G5NPOcore-PETIM betagalactose in water
186422
    1aaa     O1    1   9.735   5.347   9.873  0.3270  0.1300  0.5076
    1aaa     C1    2   9.864   5.299   9.838 -0.3972 -0.4891 -0.1597
    1aaa     H1    3   9.856   5.224   9.758 -0.2362  0.3723 -1.0069
    1aaa     H2    4   9.918   5.268   9.928  0.9993 -1.4219 -1.2838
    1aaa     C2    5   9.662   5.257   9.959 -0.5062 -0.2163 -0.1153
    1aaa     H3    6   9.705   5.258  10.060  1.0046 -1.7159 -0.6789
    1aaa     H4    7   9.673   5.158   9.912  3.1531  0.9151 -2.0574
    1aaa     C3    8   9.942   5.416   9.782 -0.4699  0.4769  0.7643
    1aaa     H5    9   9.936   5.492   9.861 -3.3050  0.7285  0.4383
    1aaa     H6   10   9.895   5.467   9.696  0.9310  1.1440  0.3739
    1aaa     C4   11   9.517   5.298   9.946  0.3998 -0.2772 -0.0290
    1aaa     H7   12   9.485   5.298   9.841  2.1250  3.3181 -0.7369
    1aaa     H8   13   9.500   5.401   9.980  0.5440 -0.9810  2.3826
    1aaa     C5   14  10.085   5.395   9.742  0.7918 -0.1826  0.3130
    1aaa     H9   15  10.087   5.347   9.643 -3.6071  0.2512 -0.1716
    1aaa    H10   16  10.119   5.497   9.718  0.6325 -0.9093 -3.6901
    1aaa     C6   17   9.419   5.209  10.027  0.5813  0.0214  0.4224
    1aaa    H11   18   9.419   5.111   9.978  0.0787  0.5278 -0.6150
    1aaa    H12   19   9.318   5.251  10.020  0.2820 -0.7117  0.2515
    1aaa     N1   20  10.182   5.336   9.838  0.2019  0.4459  0.1770
    1aaa     N2   21   9.437   5.188  10.172  0.4569 -0.2775 -0.2652
    1aaa     C7   22   9.334   5.093  10.222  0.2832 -0.3853  0.4045
    1aaa    H13   23   9.346   5.077  10.330  0.4373 -1.6804  0.2208
    1aaa    H14   24   9.232   5.125  10.201  0.7600  1.3124  0.5706
    1aaa     C8   25   9.447   5.314  10.257  0.2153  1.2706  0.3872
    1aaa    H15   26   9.510   5.390  10.208  0.8434  0.3963 -0.1896
    1aaa    H16   27   9.346   5.351  10.275  0.5032  1.0352  2.8691
    1aaa     C9   28  10.190   5.395   9.976  0.3489 -0.3149 -0.1273
    1aaa    H17   29  10.204   5.504   9.974  0.2926 -0.2784  0.9558
    1aaa    H18   30  10.094   5.381  10.027  0.5953 -0.4391  0.3014
    1aaa    C10   31  10.315   5.325   9.774 -0.0082  0.4121  0.9325
    1aaa    H19   32  10.378   5.256   9.831 -1.7097 -0.1131  2.2682
    1aaa    H20   33  10.301   5.282   9.674 -1.3556  0.8821  0.9051
    1aaa    C11   34   9.349   4.946  10.161 -1.1042  0.3231  0.4332
    1aaa    H21   35   9.312   4.950  10.058  0.7991  1.1581 -0.2429
    1aaa    H22   36   9.455   4.921  10.152 -1.9661 -3.1416 -2.8112
    1aaa    C12   37   9.519   5.288  10.388 -0.0316 -0.3881 -0.2458
    1aaa    H23   38   9.497   5.187  10.424 -1.5318 -0.4018 -1.1219
    1aaa    H24   39   9.628   5.295  10.389 -0.0904  0.7429  0.5241
    1aaa    C13   40  10.297   5.336  10.074 -0.3211  0.1081  0.0690
    1aaa    H25   41  10.397   5.341  10.030 -0.6102 -1.3740 -0.8299
    1aaa    H26   42  10.302   5.398  10.164 -2.5289  0.3464  0.0894
    1aaa    C14   43  10.394   5.457   9.758 -0.2435  0.8356  0.0555
    1aaa    H27   44  10.350   5.529   9.688  1.2932  2.0921  0.3225
    1aaa    H28   45  10.390   5.511   9.854  1.5145  0.0897  0.6000
    1aaa    C15   46  10.531   5.425   9.693 -0.1832  0.5678  0.4312
    1aaa    H29   47  10.578   5.344   9.750  3.2367 -0.0775 -2.9332
    1aaa    H30   48  10.520   5.401   9.586 -2.6762  1.1940  0.4727
    1aaa    C16   49  10.250   5.198  10.118  0.9413  0.6122 -0.3102
    1aaa    H31   50  10.148   5.200  10.158  0.7902 -0.3021 -0.6393
    1aaa    H32   51  10.244   5.134  10.029  2.6918  0.0638 -0.0654
    1aaa    C17   52   9.473   5.380  10.504 -0.1660  0.0110 -0.4310
    1aaa    H33   53   9.373   5.347  10.536  1.2113 -0.8530  3.4949
    1aaa    H34   54   9.547   5.367  10.584  1.9588 -2.5616 -2.6381
    1aaa    C18   55   9.284   4.835  10.256  0.2916 -0.2661 -0.1225
    1aaa    H35   56   9.332   4.741  10.228  2.5892  0.4574  1.0889
    1aaa    H36   57   9.315   4.863  10.357  4.0141  3.0714 -1.8637
    2bbb     N1   58  10.689   5.766   9.438 -0.2169  0.4688 -0.3889
    2bbb     C1   59  10.815   5.743   9.359  0.0737 -0.1135  0.0735
    2bbb     H1   60  10.856   5.645   9.389 -2.5640 -1.8997 -1.7452
    2bbb     H2   61  10.888   5.823   9.381  1.2052 -0.5539 -1.8395
    2bbb     C2   62  10.601   5.864   9.377 -0.2100 -0.1156  0.2259
    2bbb     H3   63  10.575   5.819   9.281 -0.1034 -0.0973  0.1887
    2bbb     H4   64  10.655   5.956   9.353 -0.8601  0.0587 -0.6059
    2bbb     C3   65  10.708   5.790   9.585 -0.2804 -0.4919 -0.2596
    2bbb     H5   66  10.617   5.806   9.643  0.2714 -2.7785  1.4145
    2bbb     H6   67  10.761   5.885   9.598 -0.0411 -0.3922 -1.7807
    2bbb     C4   68  10.798   5.692   9.655 -0.2287  0.4815  0.1670
    2bbb     H7   69  10.803   5.730   9.758 -0.0436  2.3158 -0.4845
    2bbb     H8   70  10.901   5.690   9.618 -0.1219  0.3970  0.4626
    2bbb     C5   71  10.807   5.727   9.199  0.1369  0.4108  0.4549
    2bbb     H9   72  10.739   5.804   9.162 -0.0829 -0.1902 -0.4486
    2bbb    H10   73  10.749   5.635   9.184  1.2068 -0.2200  0.0509
    2bbb     C6   74  10.461   5.890   9.432 -0.1604 -0.6948  0.0336
    2bbb    H11   75  10.409   5.961   9.367  0.5955  2.7884  2.9110
    2bbb    H12   76  10.476   5.942   9.528 -1.1192  0.0968 -0.2324
    2bbb     C7   77  10.742   5.551   9.639 -0.3091 -0.2514  0.4556
    2bbb    H13   78  10.809   5.475   9.683  0.0499 -0.2394 -0.0662
    2bbb    H14   79  10.736   5.524   9.533 -0.5449 -0.6507  0.5669
    2bbb     C8   80  10.376   5.761   9.444  0.0607 -0.5011 -0.0626
    2bbb    H15   81  10.427   5.702   9.522 -0.4557  0.8525  1.3435
    2bbb    H16   82  10.362   5.709   9.348 -1.5343 -0.1327 -0.0481
    2bbb     C9   83  10.951   5.714   9.140  0.0913  0.0593 -0.7841
    2bbb    H17   84  10.946   5.677   9.037  0.5208 -1.1831 -0.3740
    2bbb    H18   85  11.010   5.659   9.214  0.2602  1.2448 -0.0006
    2bbb     O1   86  10.613   5.546   9.709 -0.2911 -0.3224  0.3363
    3bbb     N1   87  10.590   4.850  10.235 -0.7911 -0.9140 -0.3394
    3bbb     C1   88  10.539   4.766  10.339  0.2340 -0.2667  0.5282
    3bbb     H1   89  10.444   4.794  10.387 -0.7361 -1.4084 -0.6374
    3bbb     H2   90  10.612   4.761  10.420 -0.8963 -0.8806  1.5388
    3bbb     C2   91  10.723   4.826  10.179 -0.3343  0.3296 -0.5394
    3bbb     H3   92  10.757   4.899  10.105  2.4753 -0.9747 -0.6658
    3bbb     H4   93  10.727   4.727  10.132  0.9222  0.8516 -1.5975
    3bbb     C3   94  10.491   4.873  10.128  0.1680  0.0881 -0.3851
    3bbb     H5   95  10.486   4.789  10.058  0.1262  0.0696 -0.3598
    3bbb     H6   96  10.519   4.965  10.074  2.1534  0.6315  1.4258
    3bbb     C4   97  10.343   4.900  10.168 -0.0514 -0.9278  0.3136
    3bbb     H7   98  10.308   4.805  10.210  1.2645 -1.1961  0.8461
    3bbb     H8   99  10.272   4.917  10.086 -1.6413  2.3841  2.1714
    3bbb     C5  100  10.522   4.624  10.284 -0.0475  0.6492  0.1633
    3bbb     H9  101  10.610   4.585  10.232 -0.7549 -0.1887 -0.4271
    3bbb    H10  102  10.445   4.613  10.207  0.4827  0.2585 -0.3162
    3bbb     C6  103  10.836   4.841  10.290  0.3300  0.2634  0.0189
    3bbb    H11  104  10.821   4.772  10.374 -0.1287 -2.0744 -1.8574
    3bbb    H12  105  10.822   4.944  10.325  0.2769 -0.6604  2.9411
    3bbb     C7  106  10.326   5.021  10.270 -0.5789  1.6322 -0.1565
    3bbb    H13  107  10.401   5.007  10.349 -1.1387  1.5409  0.3589
    3bbb    H14  108  10.234   5.029  10.328  0.4317  2.0709  1.4414
    3bbb     C8  109  10.979   4.821  10.232  0.1516 -0.2505  0.3582
    3bbb    H15  110  10.980   4.729  10.173  0.0474  0.2966 -0.5083
    3bbb    H16  111  11.048   4.811  10.317 -1.3315  1.2736  1.8037
    3bbb     C9  112  10.481   4.520  10.397  0.7899 -0.2938  0.0980
    3bbb    H17  113  10.559   4.535  10.473  1.6532  0.9913 -0.9955
    3bbb    H18  114  10.479   4.423  10.345 -2.5065  0.0606 -0.6042
    3bbb     O1  115  10.346   5.145  10.203 -0.4843 -0.2539 -0.2895
    4bbb     N1  116   9.554   5.821  10.148 -0.1101  0.5172 -0.0447
    4bbb     C1  117   9.689   5.807  10.085  0.8623  0.1815 -0.0871
    4bbb     H1  118   9.762   5.853  10.154 -0.4293  0.8148  0.9053
    4bbb     H2  119   9.680   5.867   9.994 -0.7031 -1.7078 -1.2563
    4bbb     C2  120   9.503   5.960  10.164 -0.4236  0.2439 -0.6741
    4bbb     H3  121   9.399   5.952  10.199  0.1341 -1.8492  0.6982
    4bbb     H4  122   9.507   6.002  10.063  1.5584  0.0960 -0.6907
    4bbb     C3  123   9.518   5.719  10.251 -0.8668  0.0275  0.3898
    4bbb     H5  124   9.555   5.622  10.214 -1.0864 -0.3893  1.2227
    4bbb     H6  125   9.410   5.702  10.260 -0.6365 -1.0381  1.6170
    4bbb     C4  126   9.567   5.726  10.397 -0.4911 -0.1657 -0.9608
    4bbb     H7  127   9.510   5.797  10.459 -0.6412 -0.9348 -0.1994
    4bbb     H8  128   9.662   5.781  10.403 -0.6657  0.1169 -0.7257
    4bbb     C5  129   9.738   5.668  10.041 -0.7768  0.0435 -0.3242
    4bbb     H9  130   9.794   5.678   9.947 -1.1770  1.2600 -0.4616
    4bbb    H10  131   9.658   5.593  10.035  0.9839 -1.8610 -0.9514
    4bbb     C6  132   9.586   6.042  10.269  0.2674  0.3857 -0.0716
    4bbb    H11  133   9.692   6.016  10.264  0.0654 -0.6659  0.9199
    4bbb    H12  134   9.553   6.018  10.371 -1.5822  2.7236 -0.0374
    4bbb     C7  135   9.591   5.603  10.481  0.2094  0.0990 -0.3861
    4bbb    H13  136   9.595   5.630  10.587  0.4931  1.4338 -0.7183
    4bbb    H14  137   9.684   5.559  10.443 -0.4106 -0.4856 -1.2652
    4bbb     C8  138   9.574   6.196  10.250 -0.0153  0.3626 -0.2369
    4bbb    H15  139   9.619   6.235  10.158 -1.4850 -0.8381 -1.5138
    4bbb    H16  140   9.630   6.233  10.337 -1.2396  0.8276  0.3790
    4bbb     C9  141   9.833   5.607  10.147  0.1410 -0.6334  0.0622
    4bbb    H17  142   9.873   5.509  10.117  3.4157  0.4580  0.4146
    4bbb    H18  143   9.784   5.594  10.245  1.6808 -0.3501  0.9054
    4bbb     O1  144   9.473   5.519  10.461 -0.2077  0.1092 -0.2450
    5bbb     N1  145   8.732   4.924  10.167 -0.4454 -0.3007 -0.7284
    5bbb     C1  146   8.636   4.987  10.261 -0.7977  0.3815  0.5873
    5bbb     H1  147   8.666   5.091  10.277  0.0204  0.5276 -1.5740
    5bbb     H2  148   8.638   4.933  10.356 -0.2352  0.1657  0.4561
    5bbb     C2  149   8.697   4.787  10.125  0.7147 -0.2957  0.2687
    5bbb     H3  150   8.592   4.771  10.100  0.6377 -3.9514  2.3374
    5bbb     H4  151   8.711   4.731  10.218 -1.3315  0.8071  1.2829
    5bbb     C3  152   8.875   4.949  10.199 -0.1156 -0.6249 -0.4550
    5bbb     H5  153   8.888   5.053  10.231  2.8584 -1.7620  2.6080
    5bbb     H6  154   8.936   4.930  10.110 -0.0684  0.6098 -0.7100
    5bbb     C4  155   8.915   4.864  10.317 -0.7509  0.1612  0.1420
    5bbb     H7  156   8.918   4.759  10.285  0.3416  0.0891  0.4416
    5bbb     H8  157   8.853   4.874  10.407  1.2311  3.8994  1.3092
    5bbb     C5  158   8.493   5.006  10.209 -0.4660  0.0656 -0.1343
    5bbb     H9  159   8.443   5.057  10.292  1.3365 -1.1097  1.7753
    5bbb    H10  160   8.442   4.909  10.212  0.4782 -0.4113  0.7534
    5bbb     C6  161   8.769   4.726   9.996  0.2077  0.4573 -0.0145
    5bbb    H11  162   8.878   4.728  10.006  0.1792 -1.7554  1.3515
    5bbb    H12  163   8.748   4.781   9.904 -2.0059 -0.6630 -0.2311
    5bbb     C7  164   9.068   4.884  10.353 -0.3488 -0.2382  0.9517
    5bbb    H13  165   9.073   4.827  10.447  0.4696  0.0532  1.0890
    5bbb    H14  166   9.092   4.987  10.381 -2.5185 -0.0661  2.4095
    5bbb     C8  167   8.733   4.576   9.976 -0.1441  0.1516  0.2539
    5bbb    H15  168   8.777   4.532   9.886  1.1897 -0.5580  1.2258
    5bbb    H16  169   8.626   4.573   9.952  0.0526 -1.6691 -0.4967
    5bbb     C9  170   8.486   5.072  10.070  0.3377  0.4333  0.0681
    5bbb    H17  171   8.529   4.997  10.002  0.9198  0.0203  0.8818
    5bbb    H18  172   8.544   5.165  10.075 -1.2762  1.5055 -0.5373
    5bbb     O1  173   9.146   4.834  10.240 -0.4703  0.3871 -0.4451
    6bbb     N1  174  10.000   6.104   9.609  0.1541  0.1579 -0.6577
    6bbb     C1  175   9.928   6.210   9.533  0.2716 -0.1976  0.4730
    6bbb     H1  176   9.821   6.206   9.556 -0.7229 -1.0924 -3.5182
    6bbb     H2  177   9.931   6.187   9.426  0.4791  0.5467  0.3164
    6bbb     C2  178   9.996   6.112   9.755  0.4520  0.0894  0.4886
    6bbb     H3  179  10.021   6.215   9.782 -0.7312  0.4051  0.3963
    6bbb     H4  180  10.084   6.064   9.801 -1.0604 -0.2497  3.2509
    6bbb     C3  181   9.969   5.971   9.556  0.0884  0.3232 -0.5521
    6bbb     H5  182   9.994   5.968   9.449 -1.4676 -0.0349 -0.9264
    6bbb     H6  183   9.864   5.947   9.577  0.7063 -0.7873  1.5861
    6bbb     C4  184  10.054   5.858   9.620 -0.4932 -0.0421 -0.1033
    6bbb     H7  185  10.012   5.765   9.581 -1.1618  0.0246  0.4449
    6bbb     H8  186  10.039   5.852   9.728  0.6833  1.4033  0.1803
    6bbb     C5  187   9.963   6.359   9.561 -0.1504  0.1389  0.2366
    6bbb     H9  188  10.071   6.368   9.544 -0.6625  0.8372 -3.7577
    6bbb    H10  189   9.935   6.394   9.661 -0.2569  1.2525 -0.1627
    6bbb     C6  190   9.868   6.068   9.824  0.0377 -0.8708 -0.3365
    6bbb    H11  191   9.891   6.071   9.931  0.3197 -1.7826 -0.3660
    6bbb    H12  192   9.854   5.964   9.794  0.6368 -0.4819 -2.0929
    6bbb     C7  193  10.207   5.854   9.601 -0.5600 -0.2617 -0.0766
    6bbb    H13  194  10.249   5.784   9.675  0.3521 -1.3180 -1.5238
    6bbb    H14  195  10.257   5.949   9.624 -0.0589 -1.0993  2.7010
    6bbb     C8  196   9.735   6.135   9.797 -0.2863 -0.0082  0.8282
    6bbb    H15  197   9.654   6.091   9.855 -0.3792 -2.2421 -0.8839
    6bbb    H16  198   9.708   6.106   9.695 -1.9334  0.3089  1.1559
    6bbb     C9  199   9.888   6.457   9.469  0.0455  0.4405  1.0051
    6bbb    H17  200   9.780   6.438   9.458  0.1369 -1.1862  2.5658
    6bbb    H18  201   9.937   6.458   9.371 -1.8189  0.8139  0.0175
    6bbb     O1  202  10.243   5.799   9.473  0.2426  0.3165 -0.3171
    7bbb     N1  203  11.387   6.164   9.097 -0.7557  0.0378  0.3197
    7bbb     C1  204  11.521   6.166   9.023  0.6351  0.6982 -0.1522
    7bbb     H1  205  11.577   6.073   9.037 -2.1827 -1.4910 -2.0701
    7bbb     H2  206  11.582   6.250   9.059  0.8193  0.5371 -0.0889
    7bbb     C2  207  11.385   6.228   9.229  0.1817  0.8607 -0.3672
    7bbb     H3  208  11.279   6.237   9.256  0.0720 -0.2336 -0.3731
    7bbb     H4  209  11.425   6.330   9.222  2.6696  0.1423  1.6996
    7bbb     C3  210  11.337   6.025   9.095  0.1614 -0.0196  0.0456
    7bbb     H5  211  11.385   5.961   9.170  0.2807  2.4169  2.2020
    7bbb     H6  212  11.362   5.982   8.997 -1.3989  1.2910 -0.9782
    7bbb     C4  213  11.183   6.013   9.115  0.1687  0.0665 -0.7501
    7bbb     H7  214  11.135   6.079   9.041 -0.9742 -1.4339 -1.4003
    7bbb     H8  215  11.153   6.048   9.215 -2.1551 -0.7627 -1.0930
    7bbb     C5  216  11.490   6.173   8.870  0.0869 -0.2164 -0.3665
    7bbb     H9  217  11.454   6.276   8.855 -0.8194 -0.8376 -2.9350
    7bbb    H10  218  11.411   6.107   8.832  0.7251 -0.4234 -1.3614
    7bbb     C6  219  11.446   6.155   9.353 -0.2054  0.4002 -0.1910
    7bbb    H11  220  11.395   6.061   9.377  0.7281 -0.2563 -0.6840
    7bbb    H12  221  11.426   6.217   9.441  0.0982  0.4785 -0.1747
    7bbb     C7  222  11.141   5.867   9.088 -0.2728  0.1806 -0.0571
    7bbb    H13  223  11.207   5.806   9.151 -0.2436  0.7451  0.4662
    7bbb    H14  224  11.146   5.850   8.980  0.0489 -2.2391  0.2769
    7bbb     C8  225  11.599   6.123   9.356  0.9472 -0.3042 -0.4663
    7bbb    H15  226  11.655   6.217   9.355  0.0466  0.2380 -1.1480
    7bbb    H16  227  11.625   6.070   9.263  0.3538  0.6802 -1.2092
    7bbb     C9  228  11.618   6.140   8.795 -0.4797  0.6242 -0.5889
    7bbb    H17  229  11.616   6.030   8.805  0.6115  0.6208 -0.2297
    7bbb    H18  230  11.708   6.174   8.848 -1.6062  0.1373  1.7706
    7bbb     O1  231  11.005   5.853   9.138 -0.0213  0.5185  0.0397
    8bbb     N1  232  11.343   4.974   9.862  0.8907  0.0332  0.3211
    8bbb     C1  233  11.413   4.849   9.815  0.0441  0.5888 -0.7165
    8bbb     H1  234  11.504   4.830   9.872 -0.6909 -0.4973  0.1365
    8bbb     H2  235  11.443   4.852   9.710  0.8518 -0.1633 -0.5155
    8bbb     C2  236  11.422   5.098   9.879 -0.5365 -1.0549 -0.1730
    8bbb     H3  237  11.361   5.183   9.912  2.0923  1.0646 -0.4278
    8bbb     H4  238  11.465   5.135   9.786 -0.4251  0.7836  0.5746
    8bbb     C3  239  11.201   4.990   9.814 -0.4253  0.3683  0.1784
    8bbb     H5  240  11.171   4.907   9.750  0.2621  0.1687  0.1090
    8bbb     H6  241  11.197   5.077   9.748 -0.1714  0.8896  0.8352
    8bbb     C4  242  11.097   4.996   9.928 -0.3617 -0.5793  0.0434
    8bbb     H7  243  10.994   5.001   9.890 -0.7507  1.0412  1.1872
    8bbb     H8  244  11.114   5.087   9.987 -0.7850 -0.6302  0.2511
    8bbb     C5  245  11.323   4.721   9.811  0.8136  0.0637 -0.0272
    8bbb     H9  246  11.239   4.723   9.741  0.2014  1.2231  0.7137
    8bbb    H10  247  11.280   4.711   9.911  1.0743 -1.6339 -0.0519
    8bbb     C6  248  11.529   5.077   9.989 -0.1707 -0.0754  0.4972
    8bbb    H11  249  11.600   4.998   9.961  2.1878  1.2788  2.2024
    8bbb    H12  250  11.483   5.043  10.082  1.6611 -1.0158  1.1010
    8bbb     C7  251  11.102   4.893  10.041  0.2784  0.0775 -0.7066
    8bbb    H13  252  11.201   4.883  10.085 -0.1100  0.3702  0.2541
    8bbb    H14  253  11.082   4.792  10.002  1.9907 -0.3386 -0.5512
    8bbb     C8  254  11.615   5.210  10.024  1.0950  0.2134 -0.0143
    8bbb    H15  255  11.667   5.238   9.932 -0.3004 -0.0606 -0.9140
    8bbb    H16  256  11.685   5.192  10.106 -0.4937  0.7569  1.5495
    8bbb     C9  257  11.406   4.593   9.782  0.2711  0.6031 -0.6719
    8bbb    H17  258  11.350   4.502   9.806 -0.1429  1.0679  0.1469
    8bbb    H18  259  11.487   4.588   9.856 -0.6973 -1.8889  0.3186
    8bbb     O1  260  11.009   4.929  10.149  0.0433 -0.1232  0.4161
    9bbb     N1  261  10.024   4.632  10.693 -0.5211 -0.5743  0.8031
    9bbb     C1  262   9.954   4.566  10.808 -0.2074  0.9269  0.1606
    9bbb     H1  263  10.025   4.558  10.892  1.9041  0.2982 -1.5756
    9bbb     H2  264   9.946   4.460  10.781  4.4296  0.6285 -0.9732
    9bbb     C2  265   9.934   4.641  10.579 -0.6392  0.4608  0.5523
    9bbb     H3  266   9.849   4.704  10.607  0.0750  1.1700  1.1498
    9bbb     H4  267   9.897   4.546  10.538 -0.3118  1.0809 -1.2867
    9bbb     C3  268  10.161   4.596  10.682 -0.5187 -0.2929 -0.0565
    9bbb     H5  269  10.206   4.599  10.782  0.7814  0.8420 -0.6342
    9bbb     H6  270  10.214   4.677  10.629 -2.0709  0.8279  0.0504
    9bbb     C4  271  10.186   4.456  10.627  0.0605  0.5385  0.3867
    9bbb     H7  272  10.121   4.445  10.539  0.7716  1.3863 -0.2689
    9bbb     H8  273  10.181   4.378  10.704  3.1495 -0.2562 -0.1015
    9bbb     C5  274   9.822   4.638  10.854  0.1002  0.3793 -0.3952
    9bbb     H9  275   9.760   4.650  10.764  0.5415 -2.8161 -1.2427
    9bbb    H10  276   9.838   4.735  10.902  0.6394 -0.4728  1.2308
    9bbb     C6  277   9.995   4.718  10.456  0.3491 -0.7281 -0.2144
    9bbb    H11  278  10.086   4.671  10.415  0.5859 -0.3427 -0.1308
    9bbb    H12  279  10.025   4.817  10.493  3.3346 -0.4487 -2.9433
    9bbb     C7  280  10.324   4.439  10.561 -0.4247  0.2212 -0.0301
    9bbb    H13  281  10.334   4.331  10.544 -0.2756 -0.3348  2.9546
    9bbb    H14  282  10.402   4.453  10.637 -0.3522 -3.0925  0.6676
    9bbb     C8  283   9.907   4.732  10.331 -0.1199 -0.3604  0.5607
    9bbb    H15  284   9.907   4.641  10.270 -0.8473 -0.3393  0.5167
    9bbb    H16  285   9.945   4.802  10.255 -0.9073 -1.5047 -0.9460
    9bbb     C9  286   9.743   4.562  10.965 -0.0451  0.0790 -0.1382
    9bbb    H17  287   9.641   4.598  10.985 -0.3935 -0.3243 -1.1657
    9bbb    H18  288   9.797   4.578  11.060 -0.8903 -0.4077  0.4442
    9bbb     O1  289  10.352   4.530  10.452 -0.1099  0.0657  0.3167
   10bbb     N1  290   9.061   6.246  10.268 -0.1049  0.2154  0.3213
   10bbb     C1  291   8.938   6.261  10.347  0.0284 -0.5011 -0.2993
   10bbb     H1  292   8.900   6.364  10.348 -1.2526 -0.8864  3.3160
   10bbb     H2  293   8.969   6.258  10.452  0.3265  1.0315 -0.3153
   10bbb     C2  294   9.110   6.105  10.247 -0.2770 -0.9363  0.4083
   10bbb     H3  295   9.192   6.101  10.174 -0.9117  1.1431 -0.4582
   10bbb     H4  296   9.035   6.028  10.224  0.9700 -2.1805  0.2988
   10bbb     C3  297   9.168   6.355  10.291  0.5132  0.7246 -0.7938
   10bbb     H5  298   9.230   6.328  10.377  0.2140 -0.5433 -0.9526
   10bbb     H6  299   9.110   6.447  10.306 -3.4062 -0.9899 -3.6598
   10bbb     C4  300   9.259   6.370  10.170  0.7086 -0.0691 -0.1345
   10bbb     H7  301   9.234   6.465  10.121  0.1554 -0.0984  0.0817
   10bbb     H8  302   9.230   6.297  10.094  0.4148  1.3212 -1.4008
   10bbb     C5  303   8.826   6.170  10.314  0.6730 -0.2765  0.3979
   10bbb     H9  304   8.843   6.064  10.338  1.3517 -0.4929 -0.9251
   10bbb    H10  305   8.798   6.178  10.208  1.0140  1.5297  0.4112
   10bbb     C6  306   9.176   6.056  10.371  0.1050  0.6162  0.0470
   10bbb    H11  307   9.121   6.090  10.459  2.0749  2.4697  0.6457
   10bbb    H12  308   9.273   6.105  10.382  0.2031  0.8706 -1.6859
   10bbb     C7  309   9.408   6.358  10.187 -0.7792  0.4091  0.3429
   10bbb    H13  310   9.450   6.453  10.221  2.4068  0.0203 -2.0708
   10bbb    H14  311   9.443   6.358  10.083  2.1074  1.0874  1.2311
   10bbb     C8  312   9.180   5.901  10.379 -0.3014 -0.0445  0.0278
   10bbb    H15  313   9.246   5.863  10.300 -0.4276 -0.0277 -0.0879
   10bbb    H16  314   9.082   5.861  10.353 -0.1372 -0.0516 -0.5878
   10bbb     C9  315   8.704   6.201  10.403  0.0404 -0.8913  0.2152
   10bbb    H17  316   8.727   6.206  10.510 -3.8035  0.1560  1.1235
   10bbb    H18  317   8.623   6.128  10.394 -0.4838 -0.2589 -0.2483
   10bbb     O1  318   9.435   6.234  10.257 -0.3178  0.2934 -0.4556
   11bbb     N1  319  10.129   6.050  10.309  0.2556 -0.5024  0.1884
   11bbb     C1  320  10.055   6.169  10.371  0.1549 -0.0340 -0.8214
   11bbb     H1  321   9.989   6.228  10.306 -2.2343 -1.0161  0.5916
   11bbb     H2  322  10.140   6.234  10.397  1.1023 -0.4477 -2.6788
   11bbb     C2  323  10.229   6.081  10.205 -0.4370 -0.0219  0.1070
   11bbb     H3  324  10.309   6.008  10.224  0.0373  1.0367  2.5172
   11bbb     H4  325  10.277   6.176  10.231  2.9961 -1.7219  0.7240
   11bbb     C3  326  10.041   5.930  10.280 -0.2725  0.0153  0.6099
   11bbb     H5  327  10.004   5.958  10.180 -0.0543 -2.0856 -0.1053
   11bbb     H6  328   9.948   5.919  10.336 -0.5295  2.2771  0.7497
   11bbb     C4  329  10.126   5.801  10.264 -0.6006  0.0909  0.8353
   11bbb     H7  330  10.208   5.790  10.337 -0.2314  0.0846  0.4221
   11bbb     H8  331  10.178   5.818  10.169 -1.0911  2.8989  0.9915
   11bbb     C5  332   9.981   6.147  10.498 -0.1718  0.0385 -0.9373
   11bbb     H9  333  10.050   6.097  10.567 -0.3832  2.3903  1.0745
   11bbb    H10  334   9.899   6.077  10.477 -1.1191  0.9866 -0.4540
   11bbb     C6  335  10.199   6.084  10.051  0.8577 -0.6892  0.6121
   11bbb    H11  336  10.141   6.175  10.036  1.5252 -0.5506 -1.4628
   11bbb    H12  337  10.124   6.008  10.026  0.0036 -0.0370  1.1160
   11bbb     C7  338  10.036   5.683  10.264  0.5413 -0.6734 -0.1518
   11bbb    H13  339   9.990   5.679  10.363 -0.2272 -1.1892 -0.5206
   11bbb    H14  340  10.092   5.590  10.253  0.2482 -0.8128 -0.4906
   11bbb     C8  341  10.315   6.087   9.953 -0.1779  0.2881  0.2510
   11bbb    H15  342  10.387   6.167   9.976  0.2245 -0.0421  0.1457
   11bbb    H16  343  10.288   6.107   9.849  2.7381  0.5067 -0.5398
   11bbb     C9  344   9.933   6.274  10.578  0.2941  0.3194 -0.2281
   11bbb    H17  345  10.018   6.342  10.593  0.5525 -0.4205  2.2632
   11bbb    H18  346   9.913   6.244  10.682 -1.7143 -2.2343 -1.2463
   11bbb     O1  347   9.948   5.696  10.151  0.0940 -0.4307  0.8337
   12bbb     N1  348   8.523   4.472  10.404 -0.0139  0.6742 -0.0340
   12bbb     C1  349   8.436   4.500  10.291  0.3890  0.0676 -0.0126
   12bbb     H1  350   8.450   4.417  10.221 -0.5677 -0.8408  0.8569
   12bbb     H2  351   8.467   4.588  10.233  2.8067 -1.0412 -0.5261
   12bbb     C2  352   8.506   4.546  10.538 -0.0278 -0.6184  0.3676
   12bbb     H3  353   8.563   4.489  10.613  0.0251 -1.1449 -0.0633
   12bbb     H4  354   8.401   4.528  10.563 -0.3702 -0.5422 -0.9322
   12bbb     C3  355   8.665   4.455  10.367  0.1345 -0.8550  0.5216
   12bbb     H5  356   8.720   4.444  10.461  1.9402  0.6063 -0.2867
   12bbb     H6  357   8.704   4.548  10.322  2.7714 -1.0821  2.1115
   12bbb     C4  358   8.691   4.341  10.266  0.5818 -0.0115 -0.4840
   12bbb     H7  359   8.614   4.264  10.278  0.3394 -0.5027 -4.1460
   12bbb     H8  360   8.786   4.291  10.286  0.6844 -0.5300 -2.1339
   12bbb     C5  361   8.285   4.518  10.329  0.2802  0.9366  0.9653
   12bbb     H9  362   8.267   4.618  10.370 -1.5204  1.6709 -1.3672
   12bbb    H10  363   8.261   4.441  10.403  1.9597 -2.4099 -1.6676
   12bbb     C6  364   8.552   4.697  10.525 -0.0429  0.3134 -0.5427
   12bbb    H11  365   8.471   4.744  10.467 -0.8619 -0.4619 -0.0715
   12bbb    H12  366   8.647   4.689  10.471  0.5317 -2.7405  0.7077
   12bbb     C7  367   8.693   4.381  10.117 -0.2803 -0.1779 -1.1390
   12bbb    H13  368   8.591   4.391  10.080 -0.9654  0.3327  0.8021
   12bbb    H14  369   8.730   4.292  10.063 -0.7198 -0.9828 -0.1613
   12bbb     C8  370   8.575   4.769  10.659  0.6059 -0.4937 -0.1092
   12bbb    H15  371   8.478   4.759  10.710  0.8554  1.6383  0.9212
   12bbb    H16  372   8.592   4.874  10.632 -0.8361 -0.9116 -3.0933
   12bbb     C9  373   8.196   4.502  10.207 -0.4392  0.4536  0.2667
   12bbb    H17  374   8.091   4.501  10.240 -0.2644  4.1135  1.3855
   12bbb    H18  375   8.210   4.410  10.149 -0.0327  0.6100  0.1164
   12bbb     O1  376   8.762   4.503  10.100 -0.0561 -0.3161 -0.4685
   13bbb     N1  377   8.158   5.406   9.807  0.7160  0.0919 -0.0493
   13bbb     C1  378   8.103   5.466   9.676 -0.0747 -0.2810  0.2310
   13bbb     H1  379   8.108   5.575   9.680 -0.2652 -0.2534 -0.2721
   13bbb     H2  380   7.998   5.435   9.668  0.5340 -2.5158  0.0931
   13bbb     C2  381   8.106   5.487   9.921 -0.7322  0.3650 -0.0934
   13bbb     H3  382   8.080   5.424  10.006 -0.2352  0.6745  0.2966
   13bbb     H4  383   8.015   5.538   9.887  0.3782  1.0240 -2.3521
   13bbb     C3  384   8.106   5.265   9.817  0.5168  0.3541 -0.0072
   13bbb     H5  385   8.117   5.218   9.719 -0.2305 -1.4873  0.7416
   13bbb     H6  386   7.997   5.267   9.833  0.3978 -1.8901 -0.1924
   13bbb     C4  387   8.160   5.172   9.924  0.0819 -0.3671  0.1868
   13bbb     H7  388   8.102   5.079   9.924 -1.1119  0.3233 -1.3744
   13bbb     H8  389   8.136   5.214  10.022 -0.6851 -1.3781  0.4550
   13bbb     C5  390   8.175   5.416   9.549  1.2868  0.0856  0.1470
   13bbb     H9  391   8.144   5.470   9.459  0.8144  0.1932  0.3706
   13bbb    H10  392   8.148   5.310   9.538 -1.6140  0.8027 -0.3528
   13bbb     C6  393   8.214   5.584   9.973  0.4416  0.1471  0.4167
   13bbb    H11  394   8.263   5.636   9.889  1.9532  1.7722  2.2066
   13bbb    H12  395   8.288   5.509  10.004 -0.4289 -1.9625 -2.1930
   13bbb     C7  396   8.310   5.142   9.923  0.0913 -0.1609  0.5188
   13bbb    H13  397   8.377   5.226   9.902  0.2066 -0.7128 -1.6541
   13bbb    H14  398   8.325   5.075   9.837  1.1011  1.6811 -0.7983
   13bbb     C8  399   8.167   5.680  10.086  0.2241  1.4007 -0.0033
   13bbb    H15  400   8.103   5.628  10.158 -0.3655 -1.0300 -2.1135
   13bbb    H16  401   8.097   5.758  10.053 -0.6750  0.2021 -1.0776
   13bbb     C9  402   8.326   5.437   9.549  0.7591 -0.1863 -0.5132
   13bbb    H17  403   8.365   5.371   9.628 -3.0065 -1.1916  0.7098
   13bbb    H18  404   8.343   5.539   9.585  0.9448 -0.8406  1.3583
   13bbb     O1  405   8.346   5.081  10.047  0.2937  0.4378 -1.1789
   14bbb     N1  406   9.709   6.649  10.011 -0.1864  1.4876  0.8243
   14bbb     C1  407   9.624   6.764   9.977  0.2943 -0.1494  0.0649
   14bbb     H1  408   9.630   6.787   9.870 -0.2617 -1.2781 -0.2245
   14bbb     H2  409   9.670   6.846  10.035 -1.2959  2.1800 -1.7561
   14bbb     C2  410   9.856   6.680   9.985 -0.0984  0.8293  0.2143
   14bbb     H3  411   9.871   6.754  10.064 -0.7473  0.6615  0.5084
   14bbb     H4  412   9.869   6.720   9.884  0.9648 -0.7463 -0.3187
   14bbb     C3  413   9.668   6.513   9.955 -0.2473 -0.4262 -0.9174
   14bbb     H5  414   9.565   6.493   9.986 -0.4280 -0.0462 -1.2690
   14bbb     H6  415   9.730   6.432   9.996  0.9698  0.6047 -0.6766
   14bbb     C4  416   9.679   6.495   9.800  0.2448  0.1696  0.0007
   14bbb     H7  417   9.780   6.516   9.764  0.4230  0.8167  0.8522
   14bbb     H8  418   9.602   6.556   9.751 -0.6341 -1.1505 -0.3124
   14bbb     C5  419   9.472   6.750  10.014 -0.1655 -0.4418  0.3064
   14bbb     H9  420   9.460   6.720  10.119  1.4657  0.3061  0.7395
   14bbb    H10  421   9.433   6.659   9.967  0.2269  0.5328 -2.0121
   14bbb     C6  422   9.952   6.561  10.020 -0.5362 -0.2579  0.3072
   14bbb    H11  423   9.922   6.482   9.950 -1.3934  0.8311 -0.5698
   14bbb    H12  424   9.935   6.515  10.118  0.5945  0.1085  0.6918
   14bbb     C7  425   9.644   6.348   9.764 -0.0027  0.1822 -0.0655
   14bbb    H13  426   9.622   6.343   9.657  1.7535  6.3156 -1.1065
   14bbb    H14  427   9.554   6.325   9.823 -0.5572 -0.0971 -1.0093
   14bbb     C8  428  10.099   6.617  10.009 -0.0687 -0.0598  0.5620
   14bbb    H15  429  10.172   6.539  10.033 -0.4900 -0.5223  0.3426
   14bbb    H16  430  10.113   6.692  10.088 -0.0565  0.2242  0.2912
   14bbb     C9  431   9.374   6.858   9.973 -0.8155 -0.1690  0.3461
   14bbb    H17  432   9.273   6.816   9.972  0.3927 -3.7021 -3.2862
   14bbb    H18  433   9.388   6.887   9.868  1.8519 -0.3717  0.5800
   14bbb     O1  434   9.751   6.271   9.812 -0.5120 -0.2280 -0.2282
   15bbb     N1  435   9.794   6.941   9.345  0.0134 -0.1046 -0.2426
   15bbb     C1  436   9.698   7.033   9.269  0.2684 -0.3202 -0.3725
   15bbb     H1  437   9.713   7.029   9.161 -2.3719 -1.1334 -0.7904
   15bbb     H2  438   9.717   7.136   9.303 -1.7617 -0.3853  1.1966
   15bbb     C2  439   9.940   6.965   9.301 -0.5449  0.2444 -0.0413
   15bbb     H3  440  10.001   6.890   9.352 -0.5066  0.0786 -0.3273
   15bbb     H4  441   9.967   7.063   9.343  2.0526  0.3133 -1.6232
   15bbb     C3  442   9.777   6.929   9.488 -0.2403  0.6180  0.8183
   15bbb     H5  443   9.671   6.906   9.505 -0.3439  0.7204  0.3321
   15bbb     H6  444   9.798   7.022   9.542  0.4653 -0.5744  2.7070
   15bbb     C4  445   9.855   6.819   9.552  0.3902  0.6599 -1.0296
   15bbb     H7  446   9.820   6.809   9.655 -0.0942 -0.4230 -1.2872
   15bbb     H8  447   9.959   6.853   9.554  0.3608  0.7340  0.9365
   15bbb     C5  448   9.549   7.005   9.290 -0.5592  0.3738  0.8874
   15bbb     H9  449   9.497   7.085   9.235  1.4757  1.8542  1.0193
   15bbb    H10  450   9.517   7.018   9.394  0.1033  1.1220  1.0034
   15bbb     C6  451   9.967   6.940   9.150 -0.6160  0.4798 -0.7586
   15bbb    H11  452  10.074   6.954   9.129 -0.7143  2.9295 -0.0139
   15bbb    H12  453   9.916   7.012   9.085  0.7252  0.0258 -2.3781
   15bbb     C7  454   9.832   6.689   9.467  0.3789 -0.3557 -0.3205
   15bbb    H13  455   9.864   6.699   9.363  0.9027 -3.8833 -0.6251
   15bbb    H14  456   9.726   6.658   9.465  0.4343 -0.5448 -0.4770
   15bbb     C8  457   9.915   6.793   9.116 -0.2210 -0.4752 -0.1967
   15bbb    H15  458   9.810   6.782   9.145 -0.6561  1.7764 -0.7224
   15bbb    H16  459   9.963   6.719   9.180  0.6121  1.0270  0.9721
   15bbb     C9  460   9.500   6.863   9.249  0.0743 -0.1228  0.9818
   15bbb    H17  461   9.393   6.852   9.267  0.4098 -1.0317  2.6925
   15bbb    H18  462   9.553   6.790   9.312 -0.2480 -0.4905  0.8342
   15bbb     O1  463   9.908   6.588   9.522  0.2226  0.4871 -0.1774
   16bbb     N1  464  11.698   5.852   9.848  0.0627 -0.3301  0.4275
   16bbb     C1  465  11.595   5.850   9.953 -0.0689  0.3857  0.1630
   16bbb     H1  466  11.622   5.780  10.032  0.0965 -2.8679 -2.5785
   16bbb     H2  467  11.497   5.814   9.920 -0.8020  0.9747  1.6211
   16bbb     C2  468  11.744   5.715   9.804  0.0048  0.7642  0.4655
   16bbb     H3  469  11.790   5.662   9.888  3.0397  1.6302 -0.5273
   16bbb     H4  470  11.824   5.720   9.729  0.3280  1.6447  0.8476
   16bbb     C3  471  11.673   5.947   9.736  0.2799 -0.6811  0.1317
   16bbb     H5  472  11.665   6.050   9.773  4.7967 -0.0931  0.0191
   16bbb     H6  473  11.578   5.917   9.691 -0.2037 -0.2343  0.8342
   16bbb     C4  474  11.781   5.951   9.629  0.1548 -0.1016 -0.6051
   16bbb     H7  475  11.789   5.852   9.582  0.7457 -0.3854  0.0744
   16bbb     H8  476  11.877   5.975   9.674 -0.3250  1.6007 -0.4286
   16bbb     C5  477  11.562   5.981  10.020 -0.4235 -0.4925 -0.1357
   16bbb     H9  478  11.512   6.052   9.953 -1.6484 -0.7092  0.5179
   16bbb    H10  479  11.661   6.018  10.047 -0.1930  0.6131 -2.3003
   16bbb     C6  480  11.632   5.631   9.745  0.7315 -0.4518  0.3356
   16bbb    H11  481  11.592   5.678   9.655 -0.4520 -0.7795  0.6780
   16bbb    H12  482  11.550   5.627   9.817 -1.9555 -0.0132 -2.5022
   16bbb     C7  483  11.765   6.053   9.519  0.0946  0.0350  0.1408
   16bbb    H13  484  11.832   6.025   9.437 -0.6435 -1.2684 -0.0558
   16bbb    H14  485  11.776   6.153   9.562 -1.6954 -0.0791  0.9595
   16bbb     C8  486  11.689   5.496   9.699  0.1464  0.3730  0.6371
   16bbb    H15  487  11.702   5.428   9.784  0.8139  1.4516  1.4031
   16bbb    H16  488  11.788   5.504   9.653 -1.2329 -0.8470 -2.8847
   16bbb     C9  489  11.478   5.964  10.150  0.3602  0.3077 -0.0927
   16bbb    H17  490  11.508   5.869  10.196  0.0020 -0.5407 -1.5556
   16bbb    H18  491  11.373   5.952  10.122  0.4668 -0.1701 -0.3064
   16bbb     O1  492  11.631   6.046   9.474  0.1341 -0.0047  0.4302
   17bbb     N1  493  11.442   6.232   8.217  0.1679  0.2652  0.1496
   17bbb     C1  494  11.581   6.264   8.162  0.3958  0.1870  0.4395
   17bbb     H1  495  11.570   6.275   8.054 -0.3221 -0.9052  0.3891
   17bbb     H2  496  11.658   6.189   8.185 -0.3345 -0.0145  2.5186
   17bbb     C2  497  11.369   6.114   8.137 -0.3877 -0.6998  0.2981
   17bbb     H3  498  11.392   6.034   8.209  0.7551 -1.2088 -0.5908
   17bbb     H4  499  11.462   6.079   8.089  0.6515  0.8463  1.0890
   17bbb     C3  500  11.449   6.214   8.362 -0.4309  0.2419 -0.6632
   17bbb     H5  501  11.356   6.183   8.412 -0.7365 -0.0509 -1.4122
   17bbb     H6  502  11.468   6.308   8.415 -0.6656 -0.1022  0.0526
   17bbb     C4  503  11.560   6.115   8.426  1.0120 -0.3175  0.0115
   17bbb     H7  504  11.657   6.166   8.429  0.9252 -0.1515  0.0049
   17bbb     H8  505  11.574   6.029   8.358  0.6863 -1.7696  1.7017
   17bbb     C5  506  11.625   6.401   8.217 -0.7102 -0.2198 -0.4894
   17bbb     H9  507  11.730   6.425   8.197  0.4999 -2.6691  2.2149
   17bbb    H10  508  11.642   6.395   8.325 -0.8807  2.9000 -0.1851
   17bbb     C6  509  11.140   6.094   8.008 -0.5890 -0.3236  0.3716
   17bbb    H11  510  11.120   6.166   7.928  0.9823 -0.1865  0.0693
   17bbb    H12  511  11.046   6.114   8.061  0.0834  1.7599  0.8663
   17bbb     C7  512  11.532   6.083   8.575  0.4480 -0.8457  0.1219
   17bbb    H13  513  11.585   5.987   8.580  0.5174 -0.8252 -0.2383
   17bbb    H14  514  11.429   6.057   8.604  0.4977 -4.0033 -2.0700
   17bbb     C8  515  11.063   5.980   7.919 -0.1846 -0.4390 -0.2728
   17bbb    H15  516  11.060   5.885   7.974 -1.1741  0.7697  1.9165
   17bbb    H16  517  11.107   5.966   7.819 -0.1343 -2.3306 -0.0209
   17bbb     C9  518  11.529   6.523   8.196 -0.8265 -0.5681  0.1205
   17bbb    H17  519  11.427   6.489   8.219 -1.4384  1.7457  1.1572
   17bbb    H18  520  11.533   6.542   8.089 -0.1703  1.6424  0.4803
   17bbb     O1  521  11.603   6.177   8.657  0.5760 -0.4714 -0.0153
   18bbb     N1  522  11.278   5.661  10.193  0.7043 -0.6809  0.8332
   18bbb     C1  523  11.168   5.706  10.106  0.4260  0.3787  0.3476
   18bbb     H1  524  11.091   5.629  10.091  1.9321 -1.3005  0.8941
   18bbb     H2  525  11.204   5.737  10.007 -2.3327 -1.2506 -1.2804
   18bbb     C2  526  11.258   5.669  10.344 -0.7780  0.8854  0.5045
   18bbb     H3  527  11.247   5.773  10.377 -0.0126  0.7157  1.3222
   18bbb     H4  528  11.356   5.632  10.378 -1.4047 -0.6988  0.6809
   18bbb     C3  529  11.355   5.554  10.128  0.1523  0.3012 -0.1522
   18bbb     H5  530  11.371   5.590  10.025  2.9481  0.9967  0.4155
   18bbb     H6  531  11.298   5.463  10.146 -3.1353  1.9193 -1.6566
   18bbb     C4  532  11.501   5.530  10.188 -0.1894 -0.6004 -0.1390
   18bbb     H7  533  11.503   5.485  10.288 -1.6965 -1.9122 -0.6715
   18bbb     H8  534  11.563   5.621  10.192  0.0326 -0.7495 -0.1390
   18bbb     C5  535  11.084   5.824  10.156 -0.0045  0.2168  0.2093
   18bbb     H9  536  11.151   5.904  10.191 -0.0018  0.9653 -1.4277
   18bbb    H10  537  11.010   5.791  10.230  0.1687 -2.7576 -0.8105
   18bbb     C6  538  11.153   5.577  10.393  0.6034  0.0538 -1.1173
   18bbb    H11  539  11.167   5.475  10.354 -2.2397 -0.4722 -0.9515
   18bbb    H12  540  11.060   5.616  10.351  1.8775 -0.4285 -4.7231
   18bbb     C7  541  11.587   5.442  10.096  0.0078 -0.0145 -0.5632
   18bbb    H13  542  11.682   5.416  10.146 -0.4133 -2.5884 -0.9944
   18bbb    H14  543  11.603   5.488   9.998 -1.1364 -1.3711 -1.4172
   18bbb     C8  544  11.153   5.553  10.548  1.0192  0.0371 -0.0176
   18bbb    H15  545  11.248   5.509  10.580  0.7178 -0.1952  0.5754
   18bbb    H16  546  11.067   5.488  10.572  1.5086 -0.4396  0.4907
   18bbb     C9  547  10.984   5.877  10.049  0.0628  0.3893  0.5862
   18bbb    H17  548  10.920   5.794  10.018  0.5488  0.2160  0.0414
   18bbb    H18  549  11.038   5.903   9.958  0.5282 -0.3643  0.6440
   18bbb     O1  550  11.520   5.307  10.080 -0.2520  0.2649  0.2810
   19bbb     N1  551  11.551   4.514   9.234  0.5832 -0.1503  0.1636
   19bbb     C1  552  11.446   4.550   9.134 -0.2891  0.2743 -0.1276
   19bbb     H1  553  11.350   4.501   9.155 -0.9811  1.5489 -0.1946
   19bbb     H2  554  11.481   4.515   9.036 -0.8366 -0.2815 -0.1295
   19bbb     C2  555  11.638   4.393   9.196 -0.0181 -0.0838 -0.3843
   19bbb     H3  556  11.731   4.403   9.252 -0.3770 -1.3674  0.4849
   19bbb     H4  557  11.676   4.398   9.093 -0.3532 -0.5310 -0.5388
   19bbb     C3  558  11.491   4.503   9.374  0.1087 -0.2380  0.4778
   19bbb     H5  559  11.433   4.411   9.389  0.2798 -0.0074  2.7685
   19bbb     H6  560  11.415   4.580   9.392 -0.0211  0.7571 -3.3857
   19bbb     C4  561  11.603   4.507   9.482 -0.5028 -0.0704  0.2799
   19bbb     H7  562  11.658   4.602   9.482  1.7717 -1.3031  0.3437
   19bbb     H8  563  11.681   4.432   9.463 -0.0438  0.2717  0.7712
   19bbb     C5  564  11.422   4.695   9.120  0.4483 -0.3569  0.0248
   19bbb     H9  565  11.505   4.747   9.071 -0.5377  3.1437  1.7091
   19bbb    H10  566  11.411   4.740   9.220  0.7148 -0.6976  0.2076
   19bbb     C6  567  11.581   4.248   9.216  0.2404 -0.3966  0.7023
   19bbb    H11  568  11.558   4.232   9.323  1.4045  1.3735  1.2415
   19bbb    H12  569  11.658   4.179   9.181 -0.4954 -0.0054 -1.8452
   19bbb     C7  570  11.543   4.480   9.620 -0.5845 -0.1310  0.4526
   19bbb    H13  571  11.624   4.467   9.692 -1.2110 -0.4019  1.1142
   19bbb    H14  572  11.491   4.384   9.613 -1.8993  0.6654 -2.3836
   19bbb     C8  573  11.445   4.221   9.133  0.4662  0.5136 -0.1402
   19bbb    H15  574  11.445   4.265   9.033  1.0288 -1.2192 -0.9462
   19bbb    H16  575  11.362   4.251   9.198  0.2030  0.1859 -0.3244
   19bbb     C9  576  11.289   4.720   9.049 -0.3803  0.2338  0.1295
   19bbb    H17  577  11.215   4.660   9.104  1.2906 -1.0622  1.0787
   19bbb    H18  578  11.297   4.675   8.950  0.3317  0.7646 -0.0606
   19bbb     O1  579  11.461   4.590   9.648  0.2695 -0.1088  0.6379
   20bbb     N1  580   9.416   4.858  10.599 -0.4873  0.5940  0.4913
   20bbb     C1  581   9.331   4.743  10.624 -0.1762 -0.6720 -0.0805
   20bbb     H1  582   9.309   4.691  10.530  3.0956 -0.1853 -1.2457
   20bbb     H2  583   9.239   4.776  10.673  0.2196  0.5714 -0.1477
   20bbb     C2  584   9.413   4.953  10.715 -0.3912 -0.2424 -0.3623
   20bbb     H3  585   9.485   5.034  10.700 -0.7834 -0.1025 -1.5783
   20bbb     H4  586   9.434   4.909  10.814  1.7954  0.4628 -0.4766
   20bbb     C3  587   9.551   4.820  10.544  0.3457 -0.3218  0.0228
   20bbb     H5  588   9.536   4.727  10.489  2.1174  0.3693 -1.7464
   20bbb     H6  589   9.617   4.788  10.626 -0.7334 -0.7962  0.7290
   20bbb     C4  590   9.610   4.929  10.450  0.4659 -0.2631 -0.0397
   20bbb     H7  591   9.615   5.020  10.510  0.3882 -0.0393 -0.3720
   20bbb     H8  592   9.551   4.945  10.359  1.0263 -0.1492 -0.3903
   20bbb     C5  593   9.394   4.632  10.712 -0.3710  0.2029  0.3132
   20bbb     H9  594   9.492   4.596  10.678  0.3722  0.5234  1.9707
   20bbb    H10  595   9.324   4.548  10.700 -0.6561  0.3807  0.6914
   20bbb     C6  596   9.271   5.021  10.737  0.4107 -0.5890  0.3239
   20bbb    H11  597   9.299   5.104  10.803 -1.2840  1.0398 -0.8828
   20bbb    H12  598   9.207   4.943  10.781 -0.0799 -1.9836 -2.6126
   20bbb     C7  599   9.754   4.909  10.413 -0.4629 -0.0891 -0.4113
   20bbb    H13  600   9.816   4.931  10.500 -0.0815 -2.4854 -0.0084
   20bbb    H14  601   9.787   4.984  10.341  1.6967 -2.2560 -1.8333
   20bbb     C8  602   9.211   5.088  10.600  0.0724 -0.6483 -0.3203
   20bbb    H15  603   9.244   5.024  10.517 -1.4329 -0.3069 -1.2151
   20bbb    H16  604   9.259   5.184  10.578 -0.5895 -0.6600 -1.9784
   20bbb     C9  605   9.396   4.660  10.867 -0.4773  0.5032 -0.4309
   20bbb    H17  606   9.469   4.739  10.886 -1.5373  1.6816 -1.0820
   20bbb    H18  607   9.426   4.568  10.918 -0.0103  1.0795  0.3572
   20bbb     O1  608   9.774   4.770  10.368 -0.3224 -0.0803  0.7314
   21bbb     N1  609   9.548   4.073  10.744  0.1966  0.0733 -0.1793
   21bbb     C1  610   9.664   3.979  10.732  0.9266 -0.3663 -0.3164
   21bbb     H1  611   9.634   3.890  10.676 -0.3745 -0.8044  1.0011
   21bbb     H2  612   9.679   3.941  10.835 -3.1383 -0.9155  0.2196
   21bbb     C2  613   9.456   4.074  10.627  0.6861 -0.9384  0.1702
   21bbb     H3  614   9.502   4.112  10.535 -0.9517 -1.7345 -1.0394
   21bbb     H4  615   9.377   4.148  10.646 -0.9213 -2.8045  1.1016
   21bbb     C3  616   9.582   4.209  10.801 -0.4626 -0.1091  0.3825
   21bbb     H5  617   9.502   4.284  10.790 -0.0383  0.1961 -0.8324
   21bbb     H6  618   9.666   4.250  10.743 -0.0075 -1.8775 -0.2895
   21bbb     C4  619   9.625   4.205  10.951  0.0167 -0.9149  0.3646
   21bbb     H7  620   9.711   4.140  10.968  0.8103  0.4939  1.9825
   21bbb     H8  621   9.539   4.155  10.998 -1.6286 -0.9894 -2.4234
   21bbb     C5  622   9.795   4.032  10.670  0.3482 -0.1593 -0.1374
   21bbb     H9  623   9.873   3.956  10.670  0.5810  0.0491  1.0845
   21bbb    H10  624   9.824   4.100  10.752  0.7364 -0.0347 -0.3781
   21bbb     C6  625   9.380   3.943  10.592 -0.0005  0.6183  0.3806
   21bbb    H11  626   9.338   3.912  10.688 -2.3059 -1.6462 -1.2104
   21bbb    H12  627   9.446   3.861  10.558 -0.3158  1.2486 -1.9573
   21bbb     C7  628   9.653   4.345  11.006  0.2556 -0.3077 -0.5241
   21bbb    H13  629   9.685   4.337  11.110 -2.6887 -0.1085  0.4884
   21bbb    H14  630   9.555   4.395  11.011  0.6298  0.3313  1.0693
   21bbb     C8  631   9.256   3.955  10.502 -0.3458 -0.0315 -0.0263
   21bbb    H15  632   9.192   4.016  10.566  1.2148  3.3108 -1.4325
   21bbb    H16  633   9.211   3.856  10.486  0.2217 -0.5751  1.5239
   21bbb     C9  634   9.799   4.102  10.533  0.1006 -0.2879  0.5230
   21bbb    H17  635   9.902   4.135  10.512  0.1613 -0.1542  1.0285
   21bbb    H18  636   9.746   4.198  10.542  1.9032  0.9041 -0.7956
   21bbb     O1  637   9.736   4.425  10.922 -0.7760 -0.1208  0.0332
   22bbb     N1  638   9.155   5.472  10.855 -0.5190 -0.1741 -0.1801
   22bbb     C1  639   9.054   5.544  10.937  0.2494 -0.4657  0.4508
   22bbb     H1  640   9.085   5.649  10.949  2.3768 -0.9862  0.0080
   22bbb     H2  641   9.047   5.486  11.029  0.0067  0.3345  0.9441
   22bbb     C2  642   9.281   5.446  10.929 -0.4699 -0.6922 -0.0180
   22bbb     H3  643   9.250   5.382  11.013 -0.3330  0.1303  0.6691
   22bbb     H4  644   9.314   5.541  10.974  0.7222 -0.8327 -0.5618
   22bbb     C3  645   9.166   5.515  10.709  0.2220 -1.2115  0.4588
   22bbb     H5  646   9.063   5.528  10.674  0.0943  1.7177  1.6370
   22bbb     H6  647   9.226   5.448  10.646  0.1575 -0.8139 -0.0355
   22bbb     C4  648   9.216   5.663  10.686 -0.0954 -0.3632 -0.2363
   22bbb     H7  649   9.324   5.668  10.708 -0.2110  0.8569  0.1533
   22bbb     H8  650   9.165   5.738  10.749  0.3704 -0.0772 -0.1922
   22bbb     C5  651   8.907   5.551  10.882  0.7146 -0.1527  0.0125
   22bbb     H9  652   8.882   5.448  10.856 -0.8221  0.1327  0.2598
   22bbb    H10  653   8.900   5.619  10.795  0.1943 -0.6873 -0.3705
   22bbb     C6  654   9.400   5.392  10.859  0.6505  0.4000  0.1873
   22bbb    H11  655   9.442   5.468  10.792  0.9562  0.6055  0.6049
   22bbb    H12  656   9.371   5.315  10.786 -1.0725  1.6207 -0.4546
   22bbb     C7  657   9.196   5.708  10.534  0.3035  0.1900 -0.3800
   22bbb    H13  658   9.092   5.686  10.506  0.3067  0.8643 -0.9491
   22bbb    H14  659   9.250   5.648  10.460 -1.3169 -1.0310 -0.6281
   22bbb     C8  660   9.508   5.338  10.957  0.1534  0.4482  0.1230
   22bbb    H15  661   9.572   5.271  10.899 -1.9227  0.0332 -1.8519
   22bbb    H16  662   9.457   5.296  11.045 -1.4641  1.8307 -0.0918
   22bbb     C9  663   8.806   5.606  10.992  0.1922  0.3439  0.4418
   22bbb    H17  664   8.852   5.698  11.029 -0.3926  0.9203 -0.2434
   22bbb    H18  665   8.803   5.530  11.071 -1.2224 -1.5903 -1.3448
   22bbb     O1  666   9.224   5.848  10.511  0.3730  0.4469  0.1259
   23bbb     N1  667   8.285   6.669  10.437 -0.8673 -0.0728 -0.7419
   23bbb     C1  668   8.256   6.695  10.293 -0.0854 -0.1569 -0.3779
   23bbb     H1  669   8.342   6.675  10.228  1.3087  2.4435  0.5523
   23bbb     H2  670   8.235   6.801  10.276  0.9072  0.3897  1.5006
   23bbb     C2  671   8.359   6.776  10.505 -0.6949  0.1382  0.1839
   23bbb     H3  672   8.455   6.796  10.454 -0.0020 -1.4693  0.7970
   23bbb     H4  673   8.379   6.739  10.606  1.9017 -3.3589 -1.4052
   23bbb     C3  674   8.321   6.528  10.465 -0.1221 -0.2283  0.1248
   23bbb     H5  675   8.242   6.460  10.431 -0.1564 -0.3139  0.3711
   23bbb     H6  676   8.336   6.506  10.572  0.2451  0.2151  0.1652
   23bbb     C4  677   8.459   6.490  10.396  0.1344  0.0513  0.1343
   23bbb     H7  678   8.537   6.555  10.438  1.2504 -0.4558 -1.1047
   23bbb     H8  679   8.457   6.505  10.288  0.4231  1.0328  0.2485
   23bbb     C5  680   8.140   6.618  10.229  0.3881  0.3492  0.6728
   23bbb     H9  681   8.043   6.636  10.276 -0.6108 -3.5735  0.4783
   23bbb    H10  682   8.165   6.511  10.229  1.6071  0.5758 -1.5117
   23bbb     C6  683   8.284   6.907  10.515 -0.4138 -0.3838  0.1763
   23bbb    H11  684   8.186   6.875  10.552  0.4809 -3.0319  0.5372
   23bbb    H12  685   8.271   6.958  10.419 -0.8529  1.3258  1.0990
   23bbb     C7  686   8.499   6.342  10.419 -0.9041 -0.3555 -0.2836
   23bbb    H13  687   8.432   6.273  10.367  0.4931 -0.8742 -1.4789
   23bbb    H14  688   8.506   6.307  10.522 -1.6363 -1.3494 -0.5666
   23bbb     C8  689   8.359   7.001  10.608 -0.4182 -0.4286  0.3489
   23bbb    H15  690   8.459   7.017  10.567 -0.5009 -0.6824  0.0476
   23bbb    H16  691   8.379   6.956  10.706  1.7281 -0.9432 -0.2627
   23bbb     C9  692   8.132   6.659  10.072 -1.0799  0.0178 -0.1091
   23bbb    H17  693   8.098   6.762  10.057  0.0628  0.7584  1.9118
   23bbb    H18  694   8.059   6.589  10.031 -0.0655 -2.9531  2.7351
   23bbb     O1  695   8.638   6.327  10.371  0.7953  0.0938 -0.8304
   24bbb     N1  696  10.574   5.649  10.151 -0.0145 -0.1066  0.2224
   24bbb     C1  697  10.558   5.630  10.298  0.1687  0.3288  0.2214
   24bbb     H1  698  10.633   5.560  10.337  0.2705  0.8770  1.0386
   24bbb     H2  699  10.460   5.586  10.324  0.6081  0.3025  1.9740
   24bbb     C2  700  10.621   5.524  10.088  0.2788 -0.2585  0.6263
   24bbb     H3  701  10.578   5.518   9.987 -1.5546  1.3575  1.2512
   24bbb     H4  702  10.587   5.431  10.134  0.8067 -1.0571 -0.5408
   24bbb     C3  703  10.485   5.741  10.082  0.0375 -0.2470 -0.6623
   24bbb     H5  704  10.467   5.829  10.146 -0.8407 -1.4992  0.9033
   24bbb     H6  705  10.387   5.699  10.058 -0.4804  0.7267 -0.3015
   24bbb     C4  706  10.542   5.778   9.945 -0.0991  0.0593 -0.0579
   24bbb     H7  707  10.507   5.708   9.868 -2.2393  0.6599  0.2924
   24bbb     H8  708  10.651   5.765   9.943  0.0781  1.3602 -1.6974
   24bbb     C5  709  10.564   5.758  10.381 -0.7166  0.6710 -0.4287
   24bbb     H9  710  10.554   5.743  10.489 -0.6137  0.4810 -0.4443
   24bbb    H10  711  10.480   5.829  10.373  0.5098  3.0214  4.2722
   24bbb     C6  712  10.772   5.530  10.082 -0.5213 -0.0715  0.0108
   24bbb    H11  713  10.816   5.514  10.181 -0.2336 -1.0981 -0.2689
   24bbb    H12  714  10.803   5.631  10.052 -0.5555 -0.3009 -0.8292
   24bbb     C7  715  10.492   5.917   9.890 -0.4380 -0.0196  0.2353
   24bbb    H13  716  10.478   5.903   9.782  2.2257 -2.5673  0.1076
   24bbb    H14  717  10.578   5.981   9.911  0.8842 -1.3263 -0.9634
   24bbb     C8  718  10.828   5.422   9.985 -0.4208 -0.1585 -0.5308
   24bbb    H15  719  10.767   5.425   9.894 -0.1069  1.9229 -0.7412
   24bbb    H16  720  10.826   5.322  10.029 -0.8262  1.0829  2.5708
   24bbb     C9  721  10.698   5.837  10.355 -0.4493  0.4733  0.1689
   24bbb    H17  722  10.708   5.879  10.255  1.6988 -1.5823 -0.5744
   24bbb    H18  723  10.778   5.762  10.362 -0.7993  0.0234 -0.5070
   24bbb     O1  724  10.375   5.958   9.964 -0.2199  0.2109  0.0389
   25bbb     N1  725   9.838   6.708  10.440  0.0347  0.1150 -0.0369
   25bbb     C1  726   9.736   6.820  10.471 -0.3688  0.0754 -0.5948
   25bbb     H1  727   9.790   6.895  10.530 -0.6919  0.7390 -1.1340
   25bbb     H2  728   9.674   6.775  10.550  2.4969  0.9542  2.3874
   25bbb     C2  729   9.968   6.758  10.389 -0.3983 -0.1527 -0.5222
   25bbb     H3  730   9.985   6.851  10.445 -1.0906 -0.4608  0.2142
   25bbb     H4  731   9.961   6.780  10.282  2.4807  3.5517 -0.1623
   25bbb     C3  732   9.792   6.581  10.370 -0.0696 -0.1274 -0.1798
   25bbb     H5  733   9.871   6.506  10.353 -0.9114 -0.6482 -2.1182
   25bbb     H6  734   9.758   6.606  10.269 -1.1879 -2.1315 -0.3519
   25bbb     C4  735   9.685   6.510  10.457  0.0477  0.1015 -0.7196
   25bbb     H7  736   9.620   6.442  10.401 -1.8528 -0.4186  1.9757
   25bbb     H8  737   9.623   6.587  10.504 -0.4573 -0.8570  0.2162
   25bbb     C5  738   9.662   6.871  10.348  0.6028  0.1561 -0.4544
   25bbb     H9  739   9.611   6.788  10.298  0.4704 -1.1382  1.7496
   25bbb    H10  740   9.736   6.908  10.275  0.2910  2.5928  0.3514
   25bbb     C6  741  10.095   6.668  10.386 -0.3812  0.3567 -0.4314
   25bbb    H11  742  10.093   6.596  10.303  1.1457 -0.2322  0.0145
   25bbb    H12  743  10.099   6.602  10.474  0.1995  1.8336  0.7001
   25bbb     C7  744   9.753   6.431  10.573  0.1943 -0.0150  0.1271
   25bbb    H13  745   9.685   6.403  10.654  2.6768 -3.2369  1.2876
   25bbb    H14  746   9.823   6.497  10.625 -0.3537 -1.0837  2.3335
   25bbb     C8  747  10.228   6.741  10.368 -0.2385 -0.7847 -0.4870
   25bbb    H15  748  10.299   6.673  10.318 -0.6687 -0.7533 -1.1564
   25bbb    H16  749  10.253   6.780  10.467 -0.0542  0.4030 -0.9840
   25bbb     C9  750   9.557   6.982  10.374 -0.3596 -0.6641 -0.5534
   25bbb    H17  751   9.497   6.954  10.462 -0.0776 -1.2535 -0.5398
   25bbb    H18  752   9.492   6.997  10.288 -0.4462  0.6491 -0.2788
   25bbb     O1  753   9.824   6.324  10.513 -0.3092 -0.4300  0.7067
   26bbb     N1  754   8.923   4.441  10.646  0.1314 -0.1824 -0.0537
   26bbb     C1  755   9.050   4.459  10.574  0.4741  0.1640  0.6155
   26bbb     H1  756   9.117   4.387  10.622 -1.5212 -1.0538  1.6863
   26bbb     H2  757   9.086   4.562  10.584 -0.9846  0.7436  0.1643
   26bbb     C2  758   8.869   4.302  10.634 -0.4852  0.1648  0.2621
   26bbb     H3  759   8.879   4.265  10.531  1.7953  0.4755  0.3212
   26bbb     H4  760   8.761   4.300  10.649 -0.8494  1.8168 -1.6853
   26bbb     C3  761   8.914   4.501  10.783 -0.6264  0.8009 -0.5515
   26bbb     H5  762   8.986   4.450  10.848 -1.4552 -2.4717 -1.9819
   26bbb     H6  763   8.818   4.477  10.831  0.0511 -2.8143 -0.7509
   26bbb     C4  764   8.907   4.659  10.783 -0.3221 -0.3680  0.0747
   26bbb     H7  765   9.010   4.685  10.757 -0.0280 -0.5118  1.0514
   26bbb     H8  766   8.878   4.709  10.876 -0.3120  1.8165 -1.0372
   26bbb     C5  767   9.052   4.415  10.424 -0.3523 -0.8819  0.4840
   26bbb     H9  768   8.954   4.445  10.384 -0.6178 -1.2820  0.8219
   26bbb    H10  769   9.058   4.306  10.416  1.2266 -0.7439 -0.5996
   26bbb     C6  770   8.930   4.195  10.732  0.0418 -0.1734  0.0116
   26bbb    H11  771   8.919   4.225  10.837 -1.2317 -1.6142  0.3263
   26bbb    H12  772   9.039   4.191  10.723  0.0798 -3.4231  0.7613
   26bbb     C7  773   8.810   4.710  10.680 -0.1738 -0.1867  0.2288
   26bbb    H13  774   8.810   4.637  10.598  2.5418 -1.4625  1.2206
   26bbb    H14  775   8.836   4.809  10.640 -0.2474 -1.0713 -2.1929
   26bbb     C8  776   8.874   4.055  10.703  0.3645 -0.8660 -0.0851
   26bbb    H15  777   8.765   4.060  10.697  0.4564  0.7610 -1.3761
   26bbb    H16  778   8.889   3.996  10.794  1.3116  1.2959  1.2411
   26bbb     C9  779   9.175   4.474  10.350 -0.1349  0.3543 -0.9289
   26bbb    H17  780   9.154   4.581  10.341  0.9815  0.5860 -0.9143
   26bbb    H18  781   9.184   4.423  10.253 -0.7787 -1.0329 -0.2900
   26bbb     O1  782   8.679   4.706  10.733  0.1105 -0.1217 -0.1472
   27bbb     N1  783   8.373   4.601   9.734 -0.5426  0.3512 -0.7234
   27bbb     C1  784   8.500   4.595   9.648  0.9416  0.4329 -0.0437
   27bbb     H1  785   8.526   4.491   9.624  1.7965  0.6141  0.0699
   27bbb     H2  786   8.582   4.636   9.708  0.8245  0.9612 -0.2383
   27bbb     C2  787   8.250   4.578   9.663  0.0458 -0.6478 -0.1406
   27bbb     H3  788   8.228   4.660   9.594  1.4123  0.4092  0.6345
   27bbb     H4  789   8.163   4.579   9.729  0.4830 -1.9167  0.4864
   27bbb     C3  790   8.371   4.727   9.815 -0.2571  0.1585 -0.2568
   27bbb     H5  791   8.380   4.821   9.760  0.8779  0.1696 -0.0867
   27bbb     H6  792   8.466   4.729   9.870 -0.1510  1.2037 -0.4612
   27bbb     C4  793   8.263   4.735   9.921  0.2506 -0.7590 -0.5911
   27bbb     H7  794   8.161   4.721   9.881 -0.4952  0.6618  0.7042
   27bbb     H8  795   8.277   4.837   9.958 -2.5288 -0.3164 -0.5523
   27bbb     C5  796   8.497   4.676   9.516 -0.4184  0.4668  0.0279
   27bbb     H9  797   8.474   4.781   9.537  0.1314  0.9523 -1.6986
   27bbb    H10  798   8.420   4.648   9.443  0.7887  2.9565 -2.3358
   27bbb     C6  799   8.246   4.449   9.575  0.9495 -0.3997 -0.2795
   27bbb    H11  800   8.272   4.361   9.636 -1.1845 -1.8999 -1.3928
   27bbb    H12  801   8.311   4.450   9.487 -1.1556  1.9168 -1.9570
   27bbb     C7  802   8.299   4.627  10.027 -0.0119 -0.6140  0.1854
   27bbb    H13  803   8.389   4.667  10.077 -0.2220  0.9272 -0.6003
   27bbb    H14  804   8.325   4.534   9.975  1.6018  0.4256 -0.9610
   27bbb     C8  805   8.097   4.426   9.526 -0.3746  0.4517 -0.2808
   27bbb    H15  806   8.036   4.397   9.613  0.2694  0.0776  0.0584
   27bbb    H16  807   8.091   4.339   9.459  0.7705  0.5708 -0.5549
   27bbb     C9  808   8.630   4.673   9.440  0.2103  0.6515 -0.2386
   27bbb    H17  809   8.662   4.569   9.449 -0.6794  0.0448 -3.1214
   27bbb    H18  810   8.704   4.736   9.493  3.0758 -0.1622 -2.9883
   27bbb     O1  811   8.196   4.620  10.127 -0.2463  0.0365 -0.0392
   28bbb     N1  812   8.604   5.756  10.416  0.3099 -0.3453 -0.5191
   28bbb     C1  813   8.607   5.828  10.546 -0.4960 -0.1162  0.4841
   28bbb     H1  814   8.547   5.775  10.621 -0.4033 -1.7837 -0.5634
   28bbb     H2  815   8.567   5.928  10.528 -3.2134 -1.1101  0.4864
   28bbb     C2  816   8.698   5.814  10.323  0.4529  0.1879  0.4450
   28bbb     H3  817   8.800   5.814  10.363  1.0477 -1.4048 -0.9775
   28bbb     H4  818   8.668   5.917  10.300 -0.3598 -0.2233 -0.4066
   28bbb     C3  819   8.464   5.729  10.374 -0.3953  0.4618  0.1984
   28bbb     H5  820   8.409   5.692  10.462 -0.0598 -1.8925 -0.5060
   28bbb     H6  821   8.462   5.651  10.296  3.0483  0.8364 -0.4009
   28bbb     C4  822   8.391   5.854  10.324  0.2932 -0.4588 -0.1906
   28bbb     H7  823   8.443   5.919  10.252 -1.7036  1.6616  0.1775
   28bbb     H8  824   8.384   5.924  10.408 -2.4988  0.9656 -1.4910
   28bbb     C5  825   8.750   5.819  10.620  0.5050 -0.9736 -0.1027
   28bbb     H9  826   8.812   5.747  10.564  0.0412  0.5654 -2.7916
   28bbb    H10  827   8.755   5.781  10.722  2.0740 -2.4413 -0.6887
   28bbb     C6  828   8.708   5.742  10.185  0.5590  0.4827  0.4727
   28bbb    H11  829   8.615   5.758  10.129  0.7958 -0.1974 -0.1229
   28bbb    H12  830   8.716   5.634  10.204 -0.5285  0.6622  2.1576
   28bbb     C7  831   8.253   5.825  10.260 -0.4681 -0.0688  0.1281
   28bbb    H13  832   8.203   5.916  10.224  1.2440  0.4564 -1.0429
   28bbb    H14  833   8.194   5.766  10.331 -0.7067  3.3903  3.0603
   28bbb     C8  834   8.829   5.789  10.099 -0.2410  0.1133  0.3563
   28bbb    H15  835   8.846   5.715  10.020  0.3533 -0.4902  1.0364
   28bbb    H16  836   8.921   5.805  10.157  0.9528 -1.1555 -1.0889
   28bbb     C9  837   8.826   5.954  10.606 -0.7758 -0.1336 -0.2616
   28bbb    H17  838   8.756   6.035  10.581 -0.1811 -0.5317 -3.6407
   28bbb    H18  839   8.904   5.961  10.529 -1.0140 -0.4025 -0.5328
   28bbb     O1  840   8.278   5.743  10.144 -0.0961 -0.1564  0.0055
   29bbb     N1  841   8.223   5.689   9.129  0.0045 -0.7419  0.0873
   29bbb     C1  842   8.112   5.692   9.234  0.6419 -0.6928 -0.0566
   29bbb     H1  843   8.059   5.786   9.253  2.6681  0.3790  0.6241
   29bbb     H2  844   8.160   5.686   9.332 -1.2041  0.8734  1.0109
   29bbb     C2  845   8.272   5.815   8.924 -1.1079  0.1156  0.3682
   29bbb     H3  846   8.228   5.914   8.910  1.3285  1.3446  0.8121
   29bbb     H4  847   8.240   5.775   8.827 -0.7538 -0.3513  0.4409
   29bbb     C3  848   8.304   5.571   9.204 -0.5662 -0.3170 -0.2305
   29bbb     H5  849   8.355   5.501   9.137 -1.6398  0.0935 -1.5292
   29bbb     H6  850   8.236   5.503   9.257  0.6722 -1.7521 -0.4196
   29bbb     C4  851   8.407   5.609   9.319  0.2981 -0.5525  0.3037
   29bbb     H7  852   8.362   5.676   9.394 -0.6702  1.4572 -1.9228
   29bbb     H8  853   8.494   5.664   9.281  0.8562 -1.2288  0.6020
   29bbb     C5  854   7.995   5.586   9.222 -0.7556 -0.5197 -0.5112
   29bbb     H9  855   8.041   5.486   9.220  3.2851  1.1273 -0.7826
   29bbb    H10  856   7.940   5.591   9.127 -0.6802 -0.3106 -0.5440
   29bbb     C6  857   8.404   5.849   8.835  0.5411 -0.4257 -0.5315
   29bbb    H11  858   8.467   5.763   8.810 -1.7716 -1.5233 -2.9642
   29bbb    H12  859   8.477   5.923   8.871 -0.5691  0.8397 -0.8313
   29bbb     C7  860   8.468   5.486   9.376 -0.9999  0.5327 -0.0907
   29bbb    H13  861   8.542   5.510   9.454 -0.2385 -0.3482 -0.5229
   29bbb    H14  862   8.529   5.431   9.304  1.4593  1.3631  1.2291
   29bbb     C8  863   8.368   5.920   8.699  0.2466 -0.2946 -0.0865
   29bbb    H15  864   8.302   5.858   8.638 -2.2539  1.1941  0.9822
   29bbb    H16  865   8.461   5.931   8.641 -0.2618 -0.0966 -0.8764
   29bbb     C9  866   7.895   5.601   9.338 -0.0325  0.1263 -0.4511
   29bbb    H17  867   7.830   5.687   9.317 -1.5818 -0.7764  0.3735
   29bbb    H18  868   7.949   5.608   9.433 -0.5347  0.5094 -0.1831
   29bbb     O1  869   8.371   5.402   9.421 -0.0354 -0.7338 -0.1464
   30bbb     N1  870  10.319   6.981   9.577  0.1757  0.3333  0.0691
   30bbb     C1  871  10.203   7.080   9.580 -0.1664 -0.2727 -0.4164
   30bbb     H1  872  10.108   7.027   9.592 -0.6196  0.2891 -1.4176
   30bbb     H2  873  10.198   7.135   9.485  1.9930  0.8066  0.0069
   30bbb     C2  874  10.330   6.915   9.444  1.0706  0.4667 -0.3679
   30bbb     H3  875  10.247   6.846   9.427  0.3855  0.6967  1.6715
   30bbb     H4  876  10.419   6.853   9.433  0.2350 -0.5205 -1.8126
   30bbb     C3  877  10.345   6.886   9.692 -0.0603  0.6065 -0.5946
   30bbb     H5  878  10.366   6.941   9.784 -1.8378  0.3682 -0.0198
   30bbb     H6  879  10.427   6.816   9.668 -0.5015  0.4153 -1.6040
   30bbb     C4  880  10.219   6.801   9.728  0.4387  0.4198  0.2437
   30bbb     H7  881  10.189   6.745   9.640 -1.2039 -1.2536  1.7892
   30bbb     H8  882  10.136   6.869   9.748 -0.1943 -0.2440 -0.1025
   30bbb     C5  883  10.208   7.198   9.680 -0.2854  0.7757 -0.2966
   30bbb     H9  884  10.211   7.157   9.781 -2.5578  2.3776  0.5161
   30bbb    H10  885  10.112   7.251   9.683  0.6700  2.5696  1.6962
   30bbb     C6  886  10.330   7.015   9.324 -0.2712 -0.4530 -0.0312
   30bbb    H11  887  10.232   7.056   9.298  0.6608 -0.4252 -4.1516
   30bbb    H12  888  10.344   6.957   9.232 -0.7221 -0.4660 -0.0921
   30bbb     C7  889  10.251   6.717   9.849 -0.5297  0.2209  0.2818
   30bbb    H13  890  10.294   6.776   9.931 -0.6364  1.7722 -0.7251
   30bbb    H14  891  10.318   6.635   9.822 -1.0726  0.0794 -0.6980
   30bbb     C8  892  10.441   7.128   9.341 -0.5906 -0.5393  0.3582
   30bbb    H15  893  10.535   7.073   9.329  0.4580  0.5906  2.7484
   30bbb    H16  894  10.441   7.159   9.446  0.8877  1.3811 -0.1644
   30bbb     C9  895  10.326   7.294   9.653  0.9807 -0.4426 -0.8949
   30bbb    H17  896  10.332   7.315   9.545  1.0796 -0.8625 -0.9749
   30bbb    H18  897  10.414   7.237   9.687 -0.4890 -1.3220  1.7089
   30bbb     O1  898  10.121   6.672   9.876  0.8296  0.9687 -0.3591
   31bbb     N1  899   9.444   7.431  10.066  0.1582 -0.5736  0.2407
   31bbb     C1  900   9.395   7.490  10.195 -0.3872 -0.4317 -0.1999
   31bbb     H1  901   9.482   7.504  10.260 -1.8841  0.8318  1.6454
   31bbb     H2  902   9.324   7.422  10.244 -0.8329 -0.7710 -1.2669
   31bbb     C2  903   9.574   7.479  10.003 -0.7379  0.5521  0.2187
   31bbb     H3  904   9.653   7.403   9.999 -0.9344  0.3853 -0.9310
   31bbb     H4  905   9.621   7.563  10.056  2.7819 -2.5892  2.6154
   31bbb     C3  906   9.446   7.281  10.064 -0.2318 -0.1772 -0.0198
   31bbb     H5  907   9.527   7.247  10.130 -0.4337  1.5672  1.1743
   31bbb     H6  908   9.470   7.259   9.959  0.6993 -2.8660  0.6901
   31bbb     C4  909   9.320   7.215  10.099 -0.0433  0.1986  0.5573
   31bbb     H7  910   9.240   7.283  10.066  1.1976  0.1042 -3.1004
   31bbb     H8  911   9.310   7.195  10.206 -1.1647  1.1858  0.6648
   31bbb     C5  912   9.328   7.636  10.181 -0.4302  0.2869  0.1090
   31bbb     H9  913   9.227   7.643  10.140  0.2905  2.3788 -1.4922
   31bbb    H10  914   9.392   7.693  10.112 -1.5293  1.5719  0.1289
   31bbb     C6  915   9.556   7.527   9.857 -0.2807 -0.1757 -0.1394
   31bbb    H11  916   9.515   7.450   9.792 -1.6440  0.4755 -0.0912
   31bbb    H12  917   9.656   7.539   9.814 -0.7421 -2.1730 -1.9038
   31bbb     C7  918   9.297   7.082  10.020 -0.4715  0.1644  0.5668
   31bbb    H13  919   9.311   7.102   9.913  0.3247  1.5473  0.9000
   31bbb    H14  920   9.193   7.054  10.039 -0.7119  1.3143  0.9857
   31bbb     C8  921   9.464   7.653   9.837 -0.3521  0.3458 -0.0538
   31bbb    H15  922   9.495   7.738   9.899  0.4675  1.8890 -2.4548
   31bbb    H16  923   9.362   7.619   9.859  0.0769 -1.3613 -0.6093
   31bbb     C9  924   9.345   7.722  10.316 -0.2190  0.6899  0.1944
   31bbb    H17  925   9.316   7.826  10.301  1.4021  1.7260  3.2599
   31bbb    H18  926   9.452   7.731  10.339 -0.2233  1.3619 -0.0465
   31bbb     O1  927   9.385   6.970  10.063  0.6724 -0.1195 -0.5736
   32bbb     N1  928  10.027   6.609   8.559  0.1671  0.2774 -0.0491
   32bbb     C1  929   9.920   6.685   8.478  0.1805 -0.5301  0.4580
   32bbb     H1  930   9.934   6.794   8.480  1.4145 -0.6052 -1.4229
   32bbb     H2  931   9.819   6.654   8.507 -0.3746  1.1259  0.4008
   32bbb     C2  932  10.160   6.613   8.506  0.0143 -0.3219 -0.0563
   32bbb     H3  933  10.161   6.574   8.404 -2.0237  1.1385 -0.6941
   32bbb     H4  934  10.237   6.555   8.559  1.5504  0.1535 -1.6832
   32bbb     C3  935  10.035   6.629   8.707 -0.4549 -0.5282 -0.7668
   32bbb     H5  936  10.090   6.721   8.728  0.8548 -1.0795 -1.6670
   32bbb     H6  937  10.085   6.542   8.750  3.0795  1.3993 -0.5813
   32bbb     C4  938   9.894   6.645   8.771 -0.0012  0.0409 -0.0014
   32bbb     H7  939   9.817   6.577   8.733 -0.1178 -0.9055  1.8632
   32bbb     H8  940   9.860   6.744   8.735  1.2792  0.3563 -0.3981
   32bbb     C5  941   9.909   6.654   8.323  0.1777 -0.0435  0.0858
   32bbb     H9  942   9.891   6.548   8.298  0.2240  0.2358 -1.2082
   32bbb    H10  943  10.005   6.678   8.275  0.2302 -3.0432 -1.6099
   32bbb     C6  944  10.225   6.756   8.483  0.4134 -1.0984 -0.1119
   32bbb    H11  945  10.226   6.796   8.586  0.8381 -2.2578  0.3455
   32bbb    H12  946  10.157   6.821   8.426 -3.2141 -2.8022  1.9020
   32bbb     C7  947   9.889   6.638   8.923  0.6885 -0.1722  0.0705
   32bbb    H13  948   9.942   6.551   8.965  0.4612  0.9988  3.0147
   32bbb    H14  949   9.784   6.627   8.954  0.7149 -0.3035  0.1147
   32bbb     C8  950  10.362   6.754   8.421  0.1952  0.7304  0.1140
   32bbb    H15  951  10.429   6.711   8.497 -1.3861 -0.0327  1.1390
   32bbb    H16  952  10.397   6.854   8.392 -0.8763  0.5736 -1.9015
   32bbb     C9  953   9.794   6.731   8.261 -0.0702 -0.0500  0.5409
   32bbb    H17  954   9.802   6.838   8.284 -2.7778  0.0296  1.5332
   32bbb    H18  955   9.693   6.700   8.290 -1.4312  1.6019 -2.0026
   32bbb     O1  956   9.939   6.765   8.974 -0.3020 -0.5008  0.2290
   33bbb     N1  957   9.492   6.860   8.627 -0.4635  0.0340  0.6072
   33bbb     C1  958   9.616   6.921   8.568  0.1636  0.4837 -0.1662
   33bbb     H1  959   9.630   6.895   8.463 -0.7204  0.6167 -0.3180
   33bbb     H2  960   9.704   6.881   8.621 -1.1164  0.8372  2.4046
   33bbb     C2  961   9.483   6.710   8.609  0.2338  0.0203  0.0602
   33bbb     H3  962   9.552   6.651   8.672  1.7611 -0.3187 -1.8181
   33bbb     H4  963   9.521   6.674   8.512  3.0811 -0.1724  1.1351
   33bbb     C3  964   9.455   6.912   8.760  0.2936  0.6510 -0.4861
   33bbb     H5  965   9.347   6.911   8.781  0.5759  0.3743  1.1117
   33bbb     H6  966   9.491   7.015   8.768  0.4907  0.5807 -0.4474
   33bbb     C4  967   9.525   6.838   8.878 -0.6916  0.5409 -0.4847
   33bbb     H7  968   9.634   6.851   8.877 -0.4494 -0.3780  3.0747
   33bbb     H8  969   9.502   6.731   8.865 -0.7973  0.6787 -1.6025
   33bbb     C5  970   9.619   7.079   8.571  0.0802  0.7467 -0.1610
   33bbb     H9  971   9.673   7.107   8.662 -0.3806 -1.3668  0.8208
   33bbb    H10  972   9.518   7.123   8.574  0.1411  1.0895 -1.9351
   33bbb     C6  973   9.337   6.670   8.624  0.0182 -1.0172  0.2372
   33bbb    H11  974   9.273   6.744   8.574  0.5877 -0.6548  0.0411
   33bbb    H12  975   9.304   6.694   8.725  0.5414 -1.1344  0.4378
   33bbb     C7  976   9.457   6.893   9.012 -0.9207  0.7477  0.3208
   33bbb    H13  977   9.354   6.856   9.025 -0.1420 -2.5462 -1.6110
   33bbb    H14  978   9.465   7.002   9.016 -1.1223  0.7363  2.7082
   33bbb     C8  979   9.300   6.527   8.578  0.2461  0.4667 -0.4468
   33bbb    H15  980   9.193   6.543   8.561  0.5439  0.9385 -1.9560
   33bbb    H16  981   9.319   6.456   8.660 -1.5681  1.6439  1.0780
   33bbb     C9  982   9.686   7.142   8.449  0.0775  0.2469  0.1040
   33bbb    H17  983   9.681   7.250   8.465 -3.3488  0.6671 -2.5465
   33bbb    H18  984   9.631   7.118   8.357  0.3374  0.5028 -0.1206
   33bbb     O1  985   9.539   6.842   9.110 -0.0810  0.2241  0.0778
   34bbb     N1  986  11.612   5.025   9.438 -0.5246  0.0568 -0.5851
   34bbb     C1  987  11.479   5.047   9.372 -0.6048 -0.1443  0.2896
   34bbb     H1  988  11.507   5.019   9.270 -1.3000 -0.3205  0.1422
   34bbb     H2  989  11.452   5.153   9.382  0.6619  0.1346  1.0665
   34bbb     C2  990  11.664   4.881   9.446  1.0241 -0.9533  0.3090
   34bbb     H3  991  11.706   4.862   9.347  1.1172 -0.5918  0.2778
   34bbb     H4  992  11.587   4.803   9.458  1.2654 -1.6003 -1.9901
   34bbb     C3  993  11.713   5.131   9.395 -0.1857  0.3009  0.3411
   34bbb     H5  994  11.719   5.119   9.286  0.5977  2.5676  0.0941
   34bbb     H6  995  11.815   5.109   9.430 -0.1163  1.7112  1.1103
   34bbb     C4  996  11.675   5.279   9.426  0.3532 -0.2149  0.1361
   34bbb     H7  997  11.597   5.307   9.354 -1.2942 -1.5485  1.3247
   34bbb     H8  998  11.768   5.334   9.407 -0.5347  0.9617 -1.0345
   34bbb     C5  999  11.360   4.962   9.427 -1.0734 -0.2556 -0.0341
   34bbb     H9 1000  11.362   4.974   9.536 -0.9107 -0.8406  0.0282
   34bbb    H10 1001  11.371   4.856   9.404 -2.1245 -0.3049 -0.3671
   34bbb     C6 1002  11.781   4.853   9.547 -0.1188  0.2845 -0.3413
   34bbb    H11 1003  11.849   4.937   9.531 -0.9547  1.1165  0.3577
   34bbb    H12 1004  11.828   4.760   9.512  0.5483 -0.0508  1.3773
   34bbb     C7 1005  11.618   5.291   9.572 -0.1167  0.2389  0.0349
   34bbb    H13 1006  11.688   5.243   9.641 -0.4574  0.8749  0.8415
   34bbb    H14 1007  11.530   5.228   9.588 -0.1327  0.1963 -0.2238
   34bbb     C8 1008  11.723   4.846   9.687 -0.3546 -0.5715  0.0832
   34bbb    H15 1009  11.661   4.755   9.690 -0.7118 -0.3095  1.2182
   34bbb    H16 1010  11.657   4.934   9.688 -0.5696 -0.6928 -1.3402
   34bbb     C9 1011  11.223   5.008   9.367  0.4429 -0.0366 -0.9370
   34bbb    H17 1012  11.213   4.958   9.270 -0.9112 -2.2699  0.2803
   34bbb    H18 1013  11.214   5.117   9.354  0.4260  0.2363  1.0554
   34bbb     O1 1014  11.593   5.426   9.607  0.2298 -0.1085 -0.1996
   35bbb     N1 1015  11.683   6.299  10.562 -0.5846 -0.0544  0.0008
   35bbb     C1 1016  11.600   6.388  10.650 -0.6526 -0.0864  0.0620
   35bbb     H1 1017  11.509   6.413  10.593 -0.4298  0.8928  0.1104
   35bbb     H2 1018  11.655   6.482  10.661  0.2942 -0.4244 -1.4355
   35bbb     C2 1019  11.740   6.381  10.447  0.1447  0.7956 -0.1415
   35bbb     H3 1020  11.810   6.463  10.467 -1.1355  1.5970  1.2674
   35bbb     H4 1021  11.665   6.433  10.386 -1.3005 -2.7478 -1.7014
   35bbb     C3 1022  11.624   6.175  10.527 -0.2058  0.3104 -0.1345
   35bbb     H5 1023  11.602   6.112  10.615 -2.1970 -1.5892 -1.8753
   35bbb     H6 1024  11.699   6.121  10.469 -1.7117 -1.2409 -0.7290
   35bbb     C4 1025  11.491   6.193  10.449 -0.0051  0.2416 -0.2444
   35bbb     H7 1026  11.492   6.282  10.385  0.1779  1.8964  1.9538
   35bbb     H8 1027  11.413   6.214  10.523  0.5216 -2.4008  1.1664
   35bbb     C5 1028  11.548   6.331  10.783 -0.3191 -0.0867 -0.7680
   35bbb     H9 1029  11.637   6.313  10.844 -1.0204  1.3065  0.7323
   35bbb    H10 1030  11.498   6.236  10.759  0.0475 -0.4223 -0.2254
   35bbb     C6 1031  11.821   6.295  10.343  0.2369 -0.6471  0.2040
   35bbb    H11 1032  11.763   6.220  10.287  1.1311 -1.6803  0.6090
   35bbb    H12 1033  11.896   6.238  10.401  0.2517 -1.6471 -0.7619
   35bbb     C7 1034  11.433   6.070  10.370 -0.0293 -0.0401 -0.3106
   35bbb    H13 1035  11.327   6.080  10.343  0.4306  0.4630 -2.0088
   35bbb    H14 1036  11.439   5.982  10.435 -1.1678 -1.2757 -1.8119
   35bbb     C8 1037  11.892   6.385  10.238 -0.2599  0.4105 -0.0625
   35bbb    H15 1038  11.827   6.467  10.207 -1.1045  0.7394  2.3344
   35bbb    H16 1039  11.918   6.315  10.157  1.2975 -1.2490  1.7426
   35bbb     C9 1040  11.438   6.418  10.855 -0.4433 -0.4048  0.1592
   35bbb    H17 1041  11.411   6.372  10.951 -0.5301 -0.5773  0.0517
   35bbb    H18 1042  11.342   6.424  10.803 -0.7729  1.0992  0.8610
   35bbb     O1 1043  11.508   6.065  10.245 -0.1623 -0.0810 -0.1211
   36bbb     N1 1044  10.925   5.580   7.748  0.2720 -0.2006  0.6262
   36bbb     C1 1045  10.988   5.460   7.818 -0.2957 -0.6321  0.3956
   36bbb     H1 1046  10.986   5.461   7.927  1.3351  0.5729  0.4511
   36bbb     H2 1047  11.096   5.462   7.799 -0.3594  0.0790  0.0716
   36bbb     C2 1048  10.957   5.596   7.607 -0.1136 -0.5343  0.3600
   36bbb     H3 1049  10.906   5.686   7.568 -0.0240 -0.2829  0.8202
   36bbb     H4 1050  10.916   5.511   7.551 -0.7034 -0.8429  1.2365
   36bbb     C3 1051  10.941   5.705   7.819 -0.4435 -0.3170  0.2769
   36bbb     H5 1052  11.032   5.757   7.785 -0.3845 -0.0087  0.9026
   36bbb     H6 1053  10.954   5.691   7.927 -0.6828  1.4879  0.5731
   36bbb     C4 1054  10.843   5.819   7.775 -0.0278  1.1419 -0.1947
   36bbb     H7 1055  10.749   5.776   7.740  0.2569  1.0012 -0.7963
   36bbb     H8 1056  10.888   5.873   7.691  1.0978 -1.2064 -1.1717
   36bbb     C5 1057  10.936   5.316   7.770 -0.6494 -0.2167 -0.4581
   36bbb     H9 1058  10.932   5.323   7.661  0.1302  3.2106 -0.3778
   36bbb    H10 1059  10.832   5.301   7.803 -0.3543  0.7935  1.0588
   36bbb     C6 1060  11.110   5.602   7.574  0.6221 -0.2937  0.6007
   36bbb    H11 1061  11.156   5.503   7.584 -0.1930 -0.8465 -0.7743
   36bbb    H12 1062  11.153   5.676   7.642 -0.3009  1.2316 -0.4102
   36bbb     C7 1063  10.829   5.912   7.897 -0.2728  0.4416 -0.2277
   36bbb    H13 1064  10.821   5.850   7.987 -0.1637 -1.1248 -1.2584
   36bbb    H14 1065  10.725   5.944   7.893 -0.4589 -0.0757  0.3538
   36bbb     C8 1066  11.134   5.649   7.428 -0.8387  0.1821 -0.0099
   36bbb    H15 1067  11.108   5.578   7.348  2.3684 -1.1444  0.0015
   36bbb    H16 1068  11.242   5.658   7.416 -0.8012 -0.7893 -0.5141
   36bbb     C9 1069  11.026   5.200   7.796  1.0427  0.3633  0.5043
   36bbb    H17 1070  11.125   5.214   7.751 -0.6877  0.5019 -3.6706
   36bbb    H18 1071  10.980   5.116   7.742  1.4361  1.2769 -1.3021
   36bbb     O1 1072  10.925   6.018   7.902  0.0393 -0.5474  0.1059
   37bbb     N1 1073  11.527   7.039   7.994  0.0259  0.1427 -0.1547
   37bbb     C1 1074  11.543   6.989   7.856 -0.0493 -0.0644  0.1827
   37bbb     H1 1075  11.443   6.982   7.812 -0.7653 -1.6920  1.9542
   37bbb     H2 1076  11.584   6.887   7.861  2.1131  0.7678  0.4446
   37bbb     C2 1077  11.466   7.175   7.993  0.0137  0.5234  0.2919
   37bbb     H3 1078  11.374   7.177   7.933 -0.3686 -0.4131  0.8248
   37bbb     H4 1079  11.542   7.243   7.952 -0.6571  2.9262  2.7430
   37bbb     C3 1080  11.453   6.937   8.075  0.3063  0.0087 -0.1015
   37bbb     H5 1081  11.355   6.922   8.027  0.0700  0.5846  0.1798
   37bbb     H6 1082  11.425   6.975   8.174  0.8443 -1.2576  0.5564
   37bbb     C4 1083  11.531   6.805   8.113  0.0013  0.3372 -0.5506
   37bbb     H7 1084  11.638   6.831   8.119  0.1603 -0.2314 -0.8928
   37bbb     H8 1085  11.526   6.728   8.035 -0.1069 -2.3242  1.8798
   37bbb     C5 1086  11.646   7.077   7.778 -0.0077 -0.3316 -0.0226
   37bbb     H9 1087  11.599   7.172   7.752 -0.4351 -0.8813 -1.3330
   37bbb    H10 1088  11.656   7.011   7.691 -1.1211 -1.1704  0.4628
   37bbb     C6 1089  11.434   7.235   8.139  0.8376 -0.4537  0.6086
   37bbb    H11 1090  11.517   7.209   8.205  0.1694 -0.5728  1.4250
   37bbb    H12 1091  11.341   7.195   8.182  1.2841 -1.6065  0.5458
   37bbb     C7 1092  11.485   6.749   8.245  0.2176 -0.2362  0.0159
   37bbb    H13 1093  11.380   6.717   8.247  0.6379 -1.6546  0.8060
   37bbb    H14 1094  11.490   6.831   8.317  1.1779  0.9549 -1.3352
   37bbb     C8 1095  11.434   7.387   8.117  0.2059 -0.5195  0.5056
   37bbb    H15 1096  11.384   7.411   8.022 -0.5377 -0.6391  0.8579
   37bbb    H16 1097  11.537   7.419   8.096 -0.2039 -0.4127 -1.6226
   37bbb     C9 1098  11.783   7.093   7.839 -0.6409  0.4217  0.1387
   37bbb    H17 1099  11.827   6.994   7.857  1.4924  1.3550  0.3925
   37bbb    H18 1100  11.775   7.153   7.931 -0.7597 -0.6342  0.8362
   37bbb     O1 1101  11.563   6.635   8.282 -0.1437  0.1687  0.3484
   38bbb     N1 1102  11.267   5.868  10.922 -0.1389  0.4069  0.4500
   38bbb     C1 1103  11.202   5.902  11.050 -0.4970  0.2014 -0.0555
   38bbb     H1 1104  11.246   5.851  11.136 -1.4009  1.0275  0.9302
   38bbb     H2 1105  11.102   5.856  11.050 -0.0108 -1.0583  2.6902
   38bbb     C2 1106  11.417   5.894  10.919 -0.1109  0.7218 -0.4615
   38bbb     H3 1107  11.453   5.854  11.015 -1.5302  2.4345  0.8686
   38bbb     H4 1108  11.439   6.000  10.905 -0.4468  0.6367 -1.7195
   38bbb     C3 1109  11.199   5.911  10.795 -0.2018 -0.5692  0.0929
   38bbb     H5 1110  11.262   5.890  10.708 -0.3483  0.3044 -0.2342
   38bbb     H6 1111  11.168   6.015  10.809  1.9905 -0.1267  2.3332
   38bbb     C4 1112  11.071   5.832  10.774  0.5863  0.3578  0.1446
   38bbb     H7 1113  11.014   5.879  10.693  1.2733 -1.8995 -1.7435
   38bbb     H8 1114  11.004   5.830  10.861 -0.2570  0.6126 -0.4869
   38bbb     C5 1115  11.178   6.052  11.083  0.9803  0.4748  0.7372
   38bbb     H9 1116  11.117   6.080  10.996  1.0754 -3.0503 -0.6630
   38bbb    H10 1117  11.271   6.109  11.087  1.1559  0.1709  0.9948
   38bbb     C6 1118  11.503   5.820  10.807  0.3097 -0.0358 -0.4604
   38bbb    H11 1119  11.609   5.842  10.823  0.0600  0.2258  1.0091
   38bbb    H12 1120  11.470   5.858  10.710 -1.3946 -0.0301  0.0767
   38bbb     C7 1121  11.086   5.680  10.739 -0.8469  0.1612  0.1184
   38bbb    H13 1122  10.991   5.625  10.748 -0.6829  0.0879  1.6333
   38bbb    H14 1123  11.168   5.638  10.797 -0.4715 -1.9342 -1.8014
   38bbb     C8 1124  11.487   5.671  10.809 -0.2266  0.0212 -0.1765
   38bbb    H15 1125  11.380   5.651  10.795 -0.6263  1.2355  0.9342
   38bbb    H16 1126  11.506   5.627  10.907  0.3007 -0.4796 -0.5008
   38bbb     C9 1127  11.115   6.070  11.226  0.1010 -0.2947  0.2710
   38bbb    H17 1128  11.188   6.051  11.307 -0.0372 -1.8653  0.0533
   38bbb    H18 1129  11.023   6.015  11.246  0.2774 -0.5419  0.4056
   38bbb     O1 1130  11.120   5.679  10.599  0.8210 -0.0775  0.3578
   39bbb     N1 1131  11.159   6.325  10.021 -1.1308 -0.1106 -0.4601
   39bbb     C1 1132  11.109   6.442   9.939  0.4423  0.3894  0.3218
   39bbb     H1 1133  11.036   6.404   9.866  0.0279  0.9950  0.4147
   39bbb     H2 1134  11.191   6.490   9.884  0.4245 -0.8113 -0.7928
   39bbb     C2 1135  11.270   6.349  10.118 -0.3882  0.6269  0.5533
   39bbb     H3 1136  11.312   6.252  10.149 -1.8234  0.7685  3.2882
   39bbb     H4 1137  11.223   6.380  10.212  0.7563  0.7333  1.1097
   39bbb     C3 1138  11.051   6.238  10.080 -0.3509  0.2956  0.4979
   39bbb     H5 1139  11.004   6.287  10.166 -1.2821  2.2882 -1.0734
   39bbb     H6 1140  11.099   6.147  10.120 -1.1169 -0.9917 -1.3694
   39bbb     C4 1141  10.947   6.200   9.972 -0.5702  0.0062  0.4240
   39bbb     H7 1142  11.009   6.160   9.891  2.9536  0.8325  2.4908
   39bbb     H8 1143  10.889   6.289   9.944 -0.6921  0.4384  1.9561
   39bbb     C5 1144  11.045   6.556  10.024  0.3062  0.6888 -0.3640
   39bbb     H9 1145  11.115   6.604  10.093  1.5525 -0.1078 -1.0366
   39bbb    H10 1146  10.967   6.510  10.087  0.1662  1.2012 -0.1632
   39bbb     C6 1147  11.395   6.425  10.073 -0.9123 -0.5651  0.7985
   39bbb    H11 1148  11.458   6.458  10.156  1.7117 -2.3657 -0.3568
   39bbb    H12 1149  11.356   6.516  10.026 -0.6110 -0.7166  0.2443
   39bbb     C7 1150  10.855   6.082  10.009  0.5338 -0.5758 -0.2082
   39bbb    H13 1151  10.816   6.030   9.921  0.7313 -0.2666 -0.4787
   39bbb    H14 1152  10.771   6.127  10.064 -0.4055 -1.9341 -0.4902
   39bbb     C8 1153  11.490   6.340   9.976  0.0940  0.7592 -0.3355
   39bbb    H15 1154  11.427   6.284   9.906  0.4654 -1.3188  0.8906
   39bbb    H16 1155  11.538   6.260  10.034  0.5776  0.9547 -0.4571
   39bbb     C9 1156  10.981   6.668   9.938 -0.1021  0.1769  0.6605
   39bbb    H17 1157  10.919   6.624   9.859 -0.6674  0.8712  0.7067
   39bbb    H18 1158  11.062   6.726   9.892 -0.0814  1.3525  2.1017
   39bbb     O1 1159  10.911   5.990  10.103 -0.3612  0.3732 -0.0232
   40bbb     N1 1160  11.257   3.792   8.825 -0.1346  0.4679  0.1538
   40bbb     C1 1161  11.214   3.678   8.899  0.1549  1.0381 -0.0640
   40bbb     H1 1162  11.126   3.705   8.958 -0.8157 -3.3399  0.8757
   40bbb     H2 1163  11.292   3.649   8.971 -0.3837 -0.0255  0.1052
   40bbb     C2 1164  11.181   3.837   8.703  0.4921  0.3631 -0.4656
   40bbb     H3 1165  11.153   3.754   8.637 -0.8829 -0.7258  1.3838
   40bbb     H4 1166  11.251   3.901   8.648  0.1384 -0.1470 -1.5258
   40bbb     C3 1167  11.299   3.903   8.916  0.5588  0.3398  0.1610
   40bbb     H5 1168  11.224   3.936   8.988 -1.5125 -1.7428 -0.9006
   40bbb     H6 1169  11.304   3.987   8.846  1.5900 -0.6711 -1.0545
   40bbb     C4 1170  11.442   3.889   8.975 -0.8546  0.4755  1.0687
   40bbb     H7 1171  11.505   3.830   8.908 -2.0874  0.9704 -0.5923
   40bbb     H8 1172  11.436   3.831   9.068  0.8674 -0.1594  0.8082
   40bbb     C5 1173  11.177   3.556   8.805 -0.0852  0.2963 -0.5234
   40bbb     H9 1174  11.257   3.535   8.734 -0.9213  0.7782 -1.6446
   40bbb    H10 1175  11.093   3.586   8.741 -0.2680 -0.4261 -0.6318
   40bbb     C6 1176  11.052   3.921   8.724 -0.4416  0.0341  0.4721
   40bbb    H11 1177  11.018   3.953   8.625 -2.6847 -1.4173  0.7221
   40bbb    H12 1178  11.088   4.009   8.779 -0.9114 -0.1047  1.0119
   40bbb     C7 1179  11.510   4.029   9.004  0.9201 -0.2645 -0.2145
   40bbb    H13 1180  11.513   4.095   8.916 -0.9464 -1.8311 -1.5447
   40bbb    H14 1181  11.612   4.011   9.040  1.0946  0.7872 -0.1651
   40bbb     C8 1182  10.943   3.839   8.796  0.3935  0.2647 -0.3413
   40bbb    H15 1183  10.984   3.785   8.882  1.4155 -1.1112 -1.6379
   40bbb    H16 1184  10.906   3.776   8.715  2.4608  0.6635 -1.6664
   40bbb     C9 1185  11.136   3.430   8.890 -0.6137 -0.4345 -0.4433
   40bbb    H17 1186  11.045   3.460   8.944  0.3434  2.6588 -0.3439
   40bbb    H18 1187  11.214   3.412   8.966 -0.5969  0.0229 -0.3474
   40bbb     O1 1188  11.431   4.080   9.106  0.2896  0.2816  0.2868
   41bbb     N1 1189  11.163   5.261   8.911 -0.7453 -0.0260 -0.1218
   41bbb     C1 1190  11.268   5.329   8.997  0.2853  0.3419 -0.3487
   41bbb     H1 1191  11.366   5.293   8.962  0.2607  0.5338 -0.6192
   41bbb     H2 1192  11.257   5.292   9.099 -0.0978 -0.8426 -0.8033
   41bbb     C2 1193  11.152   5.312   8.770 -0.3042 -0.3087  0.0684
   41bbb     H3 1194  11.105   5.410   8.784 -3.4719 -2.0797  3.5714
   41bbb     H4 1195  11.078   5.247   8.723 -2.0609  1.5240  0.1717
   41bbb     C3 1196  11.172   5.107   8.903 -0.3036 -0.5502 -0.2690
   41bbb     H5 1197  11.276   5.077   8.885  0.0223  0.0548  0.5607
   41bbb     H6 1198  11.106   5.080   8.820 -1.0361  1.8613 -0.5605
   41bbb     C4 1199  11.110   5.043   9.033  0.0108  0.1665  0.5152
   41bbb     H7 1200  11.003   5.061   9.047 -0.2031 -2.5394  3.5147
   41bbb     H8 1201  11.147   5.098   9.120 -0.1766  1.0142  0.0733
   41bbb     C5 1202  11.272   5.487   8.994  0.0331  0.2661  0.4913
   41bbb     H9 1203  11.183   5.533   9.040 -0.4675  0.9748 -1.1178
   41bbb    H10 1204  11.277   5.521   8.890 -0.8383 -0.8856  0.0478
   41bbb     C6 1205  11.280   5.310   8.683 -0.1788  0.1702 -0.6202
   41bbb    H11 1206  11.307   5.204   8.674  0.5897  0.1917  0.9452
   41bbb    H12 1207  11.367   5.350   8.736 -0.2421  1.1416 -1.2268
   41bbb     C7 1208  11.118   4.889   9.039 -0.4136  1.0824  0.0975
   41bbb    H13 1209  11.079   4.843   8.947 -0.3403 -0.0693  0.6280
   41bbb    H14 1210  11.079   4.844   9.131 -0.2113 -1.3474 -0.9243
   41bbb     C8 1211  11.268   5.377   8.546  0.2148 -0.4074  0.4709
   41bbb    H15 1212  11.238   5.482   8.557 -0.6738 -0.6620  0.5926
   41bbb    H16 1213  11.192   5.323   8.487  0.0088  1.8885 -1.5330
   41bbb     C9 1214  11.400   5.540   9.067  0.1710 -0.3182 -0.4170
   41bbb    H17 1215  11.417   5.500   9.168 -0.2748 -3.0046 -1.3267
   41bbb    H18 1216  11.389   5.649   9.075 -0.7857 -0.2490 -2.1877
   41bbb     O1 1217  11.259   4.862   9.047 -0.6987  0.0644  0.3366
   42bbb     N1 1218   8.811   5.318  10.499 -0.9162 -0.3390 -0.6069
   42bbb     C1 1219   8.944   5.334  10.432  0.0428  0.2422 -0.0524
   42bbb     H1 1220   8.960   5.234  10.390 -0.3299  0.0051  0.3553
   42bbb     H2 1221   9.024   5.342  10.507 -1.3270 -0.1486  1.5150
   42bbb     C2 1222   8.744   5.433  10.554  0.6849  0.4813 -0.8745
   42bbb     H3 1223   8.761   5.521  10.490  1.4111  2.1457  1.4658
   42bbb     H4 1224   8.787   5.465  10.649 -1.0204  1.8603 -0.5266
   42bbb     C3 1225   8.795   5.188  10.572  1.0500 -0.2402  0.6720
   42bbb     H5 1226   8.824   5.110  10.500  0.2484  1.3606 -1.4921
   42bbb     H6 1227   8.689   5.173  10.593  0.6585 -0.7623 -1.4259
   42bbb     C4 1228   8.860   5.164  10.710 -0.2010  0.7750 -0.1916
   42bbb     H7 1229   8.825   5.066  10.745  1.9148  1.5544  5.0201
   42bbb     H8 1230   8.814   5.233  10.782 -3.4649 -1.1925 -0.1914
   42bbb     C5 1231   8.960   5.462  10.343 -0.5801  0.1145 -0.1704
   42bbb     H9 1232   8.948   5.556  10.398 -0.3136  0.6644 -1.0331
   42bbb    H10 1233   8.876   5.469  10.272 -0.2609  1.0388 -0.4752
   42bbb     C6 1234   8.586   5.415  10.571  0.1111  0.0381  0.5819
   42bbb    H11 1235   8.539   5.513  10.562  1.6309  0.5957 -2.9275
   42bbb    H12 1236   8.556   5.379  10.670  1.2903 -0.0300  0.9219
   42bbb     C7 1237   9.016   5.166  10.721  0.6408 -1.1221  0.8575
   42bbb    H13 1238   9.044   5.124  10.819 -2.2695 -0.2315  2.1948
   42bbb    H14 1239   9.053   5.270  10.717 -1.6899 -0.2042  1.3393
   42bbb     C8 1240   8.525   5.345  10.440  0.5037 -0.2326  0.7910
   42bbb    H15 1241   8.578   5.250  10.428  1.0761  0.0079  1.3090
   42bbb    H16 1242   8.558   5.407  10.355 -2.5671 -1.2345 -1.2762
   42bbb     C9 1243   9.097   5.454  10.266 -0.3763 -0.0290 -0.3779
   42bbb    H17 1244   9.116   5.358  10.216  1.6436  0.0813  0.0926
   42bbb    H18 1245   9.174   5.456  10.345  0.0591 -1.7782 -0.7062
   42bbb     O1 1246   9.062   5.088  10.612  0.5353  0.0495 -0.3083
   43bbb     N1 1247   9.064   5.024  11.168 -0.7383  0.4421  0.8206
   43bbb     C1 1248   9.182   5.093  11.107  0.5150 -0.1340 -0.1810
   43bbb     H1 1249   9.165   5.201  11.099  0.4650 -0.2169 -1.3089
   43bbb     H2 1250   9.210   5.047  11.012  0.5219 -0.4682 -0.0176
   43bbb     C2 1251   8.938   5.069  11.104  0.0568  0.2028 -0.1411
   43bbb     H3 1252   8.860   5.013  11.158  0.7242  0.9709  1.7042
   43bbb     H4 1253   8.930   5.039  10.999 -1.0050 -2.3497  0.5802
   43bbb     C3 1254   9.071   4.873  11.176 -0.4616 -0.7563  0.6737
   43bbb     H5 1255   8.974   4.836  11.209 -1.2775  1.1649  0.5401
   43bbb     H6 1256   9.142   4.839  11.252  2.3296  0.8302 -1.0467
   43bbb     C4 1257   9.098   4.798  11.041  0.6429  0.2305  0.2213
   43bbb     H7 1258   9.074   4.856  10.951 -1.5432  0.3598  0.8336
   43bbb     H8 1259   9.033   4.709  11.047 -0.4179  0.8813 -1.1018
   43bbb     C5 1260   9.310   5.095  11.198  0.6897  0.2829  0.3733
   43bbb     H9 1261   9.395   5.129  11.138  0.0661  1.2135 -0.0080
   43bbb    H10 1262   9.335   4.989  11.213  1.5548  0.4799  0.3976
   43bbb     C6 1263   8.900   5.221  11.117 -0.0710  0.5993 -0.0167
   43bbb    H11 1264   8.791   5.223  11.101 -0.1042 -2.4067 -0.8011
   43bbb    H12 1265   8.956   5.280  11.044 -0.0097  0.6382  0.0617
   43bbb     C7 1266   9.243   4.749  11.027  0.9136  0.2938 -0.2306
   43bbb    H13 1267   9.255   4.680  11.111 -0.5613  2.4320  1.8589
   43bbb    H14 1268   9.310   4.835  11.045 -0.9968  1.5522  1.3343
   43bbb     C8 1269   8.926   5.274  11.260  0.1545  0.4452 -0.0934
   43bbb    H15 1270   9.034   5.263  11.278 -0.0379  1.0842  1.5652
   43bbb    H16 1271   8.883   5.203  11.331  1.7719  0.1653  0.6456
   43bbb     C9 1272   9.292   5.175  11.327 -0.0454 -0.6095  0.4883
   43bbb    H17 1273   9.227   5.128  11.401  0.9077 -2.2338  0.3554
   43bbb    H18 1274   9.251   5.274  11.305  1.4258 -0.3798 -1.4497
   43bbb     O1 1275   9.258   4.686  10.897 -0.4624 -0.0483  0.1184
   44bbb     N1 1276   9.110   4.030   9.982  0.4086  0.0360 -0.2440
   44bbb     C1 1277   9.009   4.053   9.876 -0.0935  0.8045  0.1802
   44bbb     H1 1278   9.022   3.977   9.797  3.0645  1.4236 -0.0582
   44bbb     H2 1279   9.014   4.148   9.822  1.0834  0.3390 -0.5707
   44bbb     C2 1280   9.229   3.969   9.925  0.4985  0.3795 -1.1592
   44bbb     H3 1281   9.202   3.872   9.882  0.7691 -0.5580  0.6629
   44bbb     H4 1282   9.301   3.937  10.002 -0.4166 -1.2941 -0.9402
   44bbb     C3 1283   9.133   4.152  10.070  0.0374  0.0055 -0.0704
   44bbb     H5 1284   9.043   4.203  10.106  0.0220 -0.0884  0.0223
   44bbb     H6 1285   9.176   4.231  10.007 -0.1364 -0.3467 -0.6381
   44bbb     C4 1286   9.234   4.140  10.186  0.1324  0.5430  0.0936
   44bbb     H7 1287   9.250   4.238  10.233  2.3687  0.8638 -1.1500
   44bbb     H8 1288   9.330   4.103  10.146 -0.4477 -1.3643  0.3924
   44bbb     C5 1289   8.869   4.030   9.929 -0.0860 -0.4151 -0.4186
   44bbb     H9 1290   8.861   4.057  10.035 -2.1388 -1.3674 -0.2683
   44bbb    H10 1291   8.843   3.924   9.938 -0.1903 -0.2697  1.5624
   44bbb     C6 1292   9.311   4.044   9.814 -0.2932 -0.1635 -0.6077
   44bbb    H11 1293   9.353   4.136   9.858 -3.3061 -0.1942  2.8356
   44bbb    H12 1294   9.239   4.088   9.744 -0.7279  3.9491  2.0260
   44bbb     C7 1295   9.186   4.040  10.294  0.5289 -0.7813 -0.7121
   44bbb    H13 1296   9.164   3.942  10.250 -2.0062 -0.0267 -1.2458
   44bbb    H14 1297   9.095   4.076  10.343  0.9406  2.4022 -2.0992
   44bbb     C8 1298   9.427   3.954   9.754 -0.3426  0.0167 -0.6523
   44bbb    H15 1299   9.455   4.001   9.659  0.7593 -0.4376 -0.5700
   44bbb    H16 1300   9.401   3.849   9.738  0.8882 -0.2788 -0.7630
   44bbb     C9 1301   8.755   4.099   9.848 -0.7150  0.2024  0.3424
   44bbb    H17 1302   8.731   4.037   9.760  0.8510 -1.2111  0.8782
   44bbb    H18 1303   8.770   4.203   9.816  0.1951 -0.3559 -1.1301
   44bbb     O1 1304   9.302   4.018  10.381  0.2223  0.3919  0.0686
   45bbb     N1 1305   9.605   3.640  10.289 -0.7134  0.4938  0.1863
   45bbb     C1 1306   9.540   3.682  10.162 -0.2680  0.5267  0.0892
   45bbb     H1 1307   9.590   3.767  10.115 -0.7842 -0.3674 -2.2545
   45bbb     H2 1308   9.443   3.725  10.189 -0.1873 -0.3084  1.8327
   45bbb     C2 1309   9.508   3.561  10.372 -0.0797 -0.0424 -0.2212
   45bbb     H3 1310   9.477   3.475  10.311 -1.1153  0.8019 -0.9202
   45bbb     H4 1311   9.419   3.624  10.382  0.5223  0.8076 -0.1769
   45bbb     C3 1312   9.656   3.754  10.358 -0.1485  0.4605  0.1842
   45bbb     H5 1313   9.693   3.730  10.458 -0.3360  3.0464  0.9299
   45bbb     H6 1314   9.578   3.829  10.375 -1.0439 -1.0710  3.5710
   45bbb     C4 1315   9.778   3.816  10.290 -0.4202  0.1832  0.4598
   45bbb     H7 1316   9.748   3.862  10.195 -0.7464 -1.0683 -0.0636
   45bbb     H8 1317   9.847   3.736  10.261 -0.6019  1.1064 -2.9156
   45bbb     C5 1318   9.541   3.587  10.045 -0.1086  0.0162  0.1854
   45bbb     H9 1319   9.482   3.499  10.073  1.5460 -0.2079  3.4604
   45bbb    H10 1320   9.644   3.550  10.034 -0.6572 -1.4047 -0.4220
   45bbb     C6 1321   9.564   3.516  10.508 -0.5996 -0.2124  0.0887
   45bbb    H11 1322   9.579   3.591  10.588 -3.0751  0.2236  0.2267
   45bbb    H12 1323   9.663   3.471  10.495 -0.0373  1.2959 -1.1138
   45bbb     C7 1324   9.852   3.923  10.373 -0.4478 -0.1331 -0.0097
   45bbb    H13 1325   9.929   3.970  10.311 -1.1594 -2.4758 -2.9228
   45bbb    H14 1326   9.899   3.865  10.453 -0.5926  1.8655  1.6110
   45bbb     C8 1327   9.451   3.424  10.571 -0.1785  0.0278 -1.1127
   45bbb    H15 1328   9.361   3.487  10.567 -0.4302 -0.3665 -1.8877
   45bbb    H16 1329   9.497   3.404  10.669  0.5265 -1.0414 -1.6438
   45bbb     C9 1330   9.497   3.658   9.905 -0.1574  0.5539  0.6815
   45bbb    H17 1331   9.584   3.678   9.842  0.4225  0.2338  1.3675
   45bbb    H18 1332   9.448   3.755   9.920  1.7021  1.4324  1.3295
   45bbb     O1 1333   9.751   4.010  10.432 -0.2313  0.2553 -0.3168
   46bbb     N1 1334   9.730   5.759  11.230 -0.1134  0.0813 -0.2318
   46bbb     C1 1335   9.785   5.742  11.361  0.4481 -0.4629  0.1606
   46bbb     H1 1336   9.773   5.636  11.388 -1.8568  0.1614  1.9646
   46bbb     H2 1337   9.736   5.797  11.443  1.4857  0.0068  0.4782
   46bbb     C2 1338   9.645   5.882  11.241 -0.1034 -0.8247 -0.2150
   46bbb     H3 1339   9.585   5.869  11.332  1.8360 -0.0062  1.2365
   46bbb     H4 1340   9.573   5.888  11.158 -1.0014 -0.3126  0.5682
   46bbb     C3 1341   9.660   5.646  11.177  0.4289 -0.3483 -0.0556
   46bbb     H5 1342   9.601   5.667  11.087  1.3856  0.4728 -0.5157
   46bbb     H6 1343   9.583   5.619  11.250 -0.9651 -0.3867 -1.4735
   46bbb     C4 1344   9.759   5.530  11.144 -0.3714 -0.6257  0.2522
   46bbb     H7 1345   9.808   5.497  11.236 -0.3668 -1.1826  0.0570
   46bbb     H8 1346   9.845   5.564  11.085  0.2587 -0.8777  1.0144
   46bbb     C5 1347   9.932   5.755  11.358 -0.4606  0.5585  0.1789
   46bbb     H9 1348   9.972   5.827  11.285 -0.9254  1.5947  0.9300
   46bbb    H10 1349   9.981   5.661  11.328  0.3377  0.6217  1.2419
   46bbb     C6 1350   9.734   6.003  11.241 -0.8442  0.0359 -0.5001
   46bbb    H11 1351   9.801   5.989  11.156  0.0688 -1.3818  0.4048
   46bbb    H12 1352   9.810   5.998  11.320 -0.0498  2.1988 -1.0605
   46bbb     C7 1353   9.684   5.402  11.097  0.6547 -0.2700 -0.2708
   46bbb    H13 1354   9.624   5.369  11.183 -0.2952  0.5849 -0.5794
   46bbb    H14 1355   9.752   5.326  11.057  0.8967 -0.3922  0.3681
   46bbb     C8 1356   9.671   6.138  11.252 -0.2450 -0.2516  0.7348
   46bbb    H15 1357   9.591   6.133  11.327  0.7315  1.3823  1.9260
   46bbb    H16 1358   9.620   6.142  11.154 -0.4986 -0.1818  0.8679
   46bbb     C9 1359   9.993   5.791  11.489  0.1181 -0.6227 -0.5261
   46bbb    H17 1360  10.101   5.808  11.478  0.1952 -2.0808 -2.9349
   46bbb    H18 1361   9.986   5.709  11.560 -1.3818 -0.4020 -0.3964
   46bbb     O1 1362   9.583   5.449  10.999 -0.5387 -0.1553  0.1658
   47bbb     N1 1363   8.259   5.574  10.844  0.0177 -0.4801  0.4181
   47bbb     C1 1364   8.187   5.441  10.835 -0.0878 -0.0100  0.1288
   47bbb     H1 1365   8.236   5.377  10.762  2.3846  1.3145  0.5115
   47bbb     H2 1366   8.082   5.442  10.805 -0.0087  0.0009 -0.1477
   47bbb     C2 1367   8.247   5.656  10.721 -0.4178  0.2589  0.1576
   47bbb     H3 1368   8.301   5.607  10.639 -1.5475 -0.7034 -0.0419
   47bbb     H4 1369   8.292   5.754  10.742 -2.7374  1.4707 -0.1716
   47bbb     C3 1370   8.404   5.571  10.892  1.0028  0.4684  0.2791
   47bbb     H5 1371   8.469   5.525  10.816 -1.7715 -0.8309 -1.4885
   47bbb     H6 1372   8.413   5.496  10.972 -0.3200 -1.3135 -1.1243
   47bbb     C4 1373   8.457   5.703  10.930 -0.3492 -0.2945  0.4319
   47bbb     H7 1374   8.389   5.758  10.996  1.5956  2.3045  0.4212
   47bbb     H8 1375   8.475   5.767  10.843  1.8337 -0.5452  0.6489
   47bbb     C5 1376   8.195   5.359  10.964 -0.4955 -0.2246 -0.0316
   47bbb     H9 1377   8.162   5.432  11.039  0.0239 -0.2156  0.1938
   47bbb    H10 1378   8.296   5.329  10.995 -0.0344  0.9184 -0.3752
   47bbb     C6 1379   8.099   5.672  10.672  0.3117 -0.3674  0.1013
   47bbb    H11 1380   8.053   5.579  10.637  0.6306 -1.8070  3.1630
   47bbb    H12 1381   8.101   5.747  10.592  0.5702 -0.1685  0.2903
   47bbb     C7 1382   8.585   5.695  11.013 -0.0954  0.2049  0.1881
   47bbb    H13 1383   8.560   5.630  11.098  0.3917  1.9166  1.7200
   47bbb    H14 1384   8.620   5.793  11.049 -1.1463  0.2995  1.0137
   47bbb     C8 1385   8.005   5.722  10.790  0.1769  0.3086  0.4422
   47bbb    H15 1386   8.050   5.811  10.836 -2.9106  2.8915 -1.1237
   47bbb    H16 1387   7.995   5.635  10.856 -1.4986  0.5318  0.5124
   47bbb     C9 1388   8.104   5.236  10.962 -0.3459  0.5227 -0.1867
   47bbb    H17 1389   8.104   5.178  11.056 -0.9920 -1.9411 -1.6121
   47bbb    H18 1390   8.138   5.168  10.883 -0.9609  0.2964 -0.2665
   47bbb     O1 1391   8.682   5.636  10.931  0.0106 -0.5204 -0.0058
   48bbb     N1 1392   8.521   7.469  10.523 -0.3875  0.4537 -0.0752
   48bbb     C1 1393   8.504   7.602  10.580  0.0520 -0.0496  0.0491
   48bbb     H1 1394   8.562   7.614  10.673  0.5995  0.0665 -0.3066
   48bbb     H2 1395   8.395   7.614  10.595  0.1500  0.4588  0.4014
   48bbb     C2 1396   8.669   7.428  10.502 -0.0638 -0.4838 -0.2070
   48bbb     H3 1397   8.706   7.401  10.601 -2.4448 -0.0163  0.8724
   48bbb     H4 1398   8.721   7.516  10.462 -1.4802 -1.2244 -4.1400
   48bbb     C3 1399   8.418   7.373  10.565  0.2526  0.4444  0.0860
   48bbb     H5 1400   8.411   7.285  10.500 -1.8719 -2.0531  3.3631
   48bbb     H6 1401   8.323   7.427  10.562  1.0883  2.0182  0.6881
   48bbb     C4 1402   8.422   7.309  10.702 -0.8166  0.1227 -0.1460
   48bbb     H7 1403   8.429   7.391  10.774 -1.3560 -0.0025  0.0500
   48bbb     H8 1404   8.513   7.249  10.706 -0.7289  0.1922 -0.9710
   48bbb     C5 1405   8.543   7.722  10.484  0.4905 -0.4562 -0.8988
   48bbb     H9 1406   8.491   7.700  10.390 -1.6733  2.6248 -0.5797
   48bbb    H10 1407   8.651   7.708  10.475  0.4644 -0.9703 -0.4284
   48bbb     C6 1408   8.687   7.320  10.392 -0.0072  0.5778  0.2160
   48bbb    H11 1409   8.621   7.235  10.413 -1.8668  1.8946 -0.1058
   48bbb    H12 1410   8.787   7.277  10.401 -0.6674 -1.0337  0.1828
   48bbb     C7 1411   8.297   7.216  10.724  0.4143  1.3497  0.0723
   48bbb    H13 1412   8.217   7.290  10.713 -0.8742  0.2668  1.7132
   48bbb    H14 1413   8.295   7.164  10.821 -0.6114  0.5299 -0.3824
   48bbb     C8 1414   8.643   7.357  10.251 -0.3291  0.8102  0.0513
   48bbb    H15 1415   8.553   7.419  10.258 -0.5059  0.4793  0.9597
   48bbb    H16 1416   8.607   7.264  10.205  1.9857  0.4562 -1.1521
   48bbb     C9 1417   8.505   7.861  10.540  1.6207 -0.0957  0.2503
   48bbb    H17 1418   8.548   7.867  10.641  0.1288 -0.6425  0.9434
   48bbb    H18 1419   8.398   7.884  10.536  1.6959  0.1463 -0.3645
   48bbb     O1 1420   8.284   7.126  10.610  0.1209  0.0171  1.1828
   49bbb     N1 1421   8.445   6.563   9.543  0.2521  0.2212  0.3038
   49bbb     C1 1422   8.361   6.445   9.503 -0.2578  0.3533  0.0897
   49bbb     H1 1423   8.370   6.367   9.580  0.3270 -0.6903 -1.0041
   49bbb     H2 1424   8.394   6.396   9.410 -1.5438  0.2039 -0.2990
   49bbb     C2 1425   8.585   6.524   9.586 -0.9185 -0.4326  0.2824
   49bbb     H3 1426   8.582   6.441   9.657  0.3022  0.4725  1.4602
   49bbb     H4 1427   8.635   6.610   9.632  0.1587 -0.9178  0.0501
   49bbb     C3 1428   8.375   6.649   9.638 -0.1128 -0.1472  0.2718
   49bbb     H5 1429   8.276   6.683   9.603  1.0412  2.7691 -0.4194
   49bbb     H6 1430   8.441   6.734   9.658  2.5304 -1.8613 -0.6865
   49bbb     C4 1431   8.346   6.585   9.777 -0.3550  0.4583  0.1931
   49bbb     H7 1432   8.443   6.565   9.823 -0.0052  0.6610 -0.4411
   49bbb     H8 1433   8.305   6.483   9.772 -0.2365  0.4000  0.4389
   49bbb     C5 1434   8.213   6.462   9.475  0.2671 -0.2535  0.3472
   49bbb     H9 1435   8.196   6.526   9.387  1.7070 -0.8028 -0.3698
   49bbb    H10 1436   8.170   6.513   9.562 -0.2000  0.5070 -0.3206
   49bbb     C6 1437   8.676   6.477   9.466 -0.1623 -0.6645  0.4029
   49bbb    H11 1438   8.640   6.382   9.425  0.8311 -2.7448  3.8593
   49bbb    H12 1439   8.775   6.458   9.509  0.3536  2.6110  0.9403
   49bbb     C7 1440   8.258   6.668   9.864 -0.4822  0.3302  0.0748
   49bbb    H13 1441   8.162   6.655   9.813  0.1287  2.0623 -1.6539
   49bbb    H14 1442   8.282   6.775   9.858 -0.6425  0.3020 -1.5482
   49bbb     C8 1443   8.704   6.590   9.365 -0.1661  0.3504  0.2347
   49bbb    H15 1444   8.766   6.659   9.423 -0.7027  2.2412 -1.3062
   49bbb    H16 1445   8.614   6.648   9.339 -1.8309 -1.5486  1.5133
   49bbb     C9 1446   8.151   6.326   9.449 -0.4858  0.6385 -0.3702
   49bbb    H17 1447   8.219   6.254   9.495 -1.7599 -0.1892  0.2840
   49bbb    H18 1448   8.158   6.308   9.341  0.6840  0.2702 -0.2519
   49bbb     O1 1449   8.262   6.632  10.005 -0.2931 -0.1256  0.8023
   50bbb     N1 1450  11.210   5.463   9.596  0.1051  0.1219  0.8006
   50bbb     C1 1451  11.249   5.401   9.466  0.0549  0.4611  0.3111
   50bbb     H1 1452  11.281   5.296   9.470  1.7744  0.8689 -1.4186
   50bbb     H2 1453  11.333   5.458   9.424  1.4695 -1.5901  0.1878
   50bbb     C2 1454  11.183   5.610   9.594 -0.0742 -0.0316  0.0131
   50bbb     H3 1455  11.128   5.635   9.685  1.5369  0.5737  0.8726
   50bbb     H4 1456  11.121   5.635   9.507 -0.6604  0.9367  0.6925
   50bbb     C3 1457  11.259   5.394   9.721 -0.3688 -0.2855 -0.0280
   50bbb     H5 1458  11.369   5.403   9.723 -0.1461 -0.0379 -4.1010
   50bbb     H6 1459  11.244   5.286   9.714  1.7770 -0.8306  2.1632
   50bbb     C4 1460  11.181   5.439   9.852 -0.2528 -0.3766  0.3278
   50bbb     H7 1461  11.195   5.548   9.858  0.6048 -0.4399 -0.3607
   50bbb     H8 1462  11.220   5.407   9.949 -0.7844  1.8792  1.3438
   50bbb     C5 1463  11.133   5.402   9.364  0.1154  0.1070 -0.3271
   50bbb     H9 1464  11.153   5.344   9.273  1.3661  2.9612 -2.0186
   50bbb    H10 1465  11.122   5.509   9.339 -2.7279  0.2608  1.1306
   50bbb     C6 1466  11.309   5.692   9.597 -0.2164 -0.3413  0.7980
   50bbb    H11 1467  11.378   5.652   9.522 -1.5907  0.0376 -0.7318
   50bbb    H12 1468  11.361   5.696   9.693  0.7746  0.3159  0.2514
   50bbb     C7 1469  11.033   5.399   9.851  0.8603  0.2162  0.2529
   50bbb    H13 1470  11.024   5.290   9.858  0.9485  0.0510 -1.6189
   50bbb    H14 1471  10.995   5.425   9.752 -2.1699  0.7787  1.4698
   50bbb     C8 1472  11.273   5.839   9.553  0.3841  0.0313  0.0738
   50bbb    H15 1473  11.221   5.838   9.457  0.3965 -0.7760  0.0693
   50bbb    H16 1474  11.364   5.900   9.546  0.0801  0.3210 -2.1944
   50bbb     C9 1475  10.993   5.370   9.411 -0.1379 -0.8278 -0.2250
   50bbb    H17 1476  10.967   5.444   9.488 -1.0500 -0.1393 -1.1708
   50bbb    H18 1477  11.000   5.271   9.457  0.2317 -0.7832 -0.1777
   50bbb     O1 1478  10.960   5.462   9.959  1.0051 -0.1636  0.3206
   51bbb     N1 1479  10.980   6.339  10.547 -0.1414  0.3532  0.2634
   51bbb     C1 1480  10.938   6.361  10.682 -0.4653  0.4551  0.9166
   51bbb     H1 1481  10.840   6.315  10.699  0.1859 -0.8960  1.1531
   51bbb     H2 1482  10.923   6.469  10.694  1.0287  0.6548  1.1067
   51bbb     C2 1483  11.097   6.412  10.496 -0.5206 -0.5276  0.3645
   51bbb     H3 1484  11.116   6.386  10.391 -0.7912  2.7710 -0.5921
   51bbb     H4 1485  11.186   6.386  10.555 -0.2431  0.3813  0.3554
   51bbb     C3 1486  10.972   6.198  10.491 -0.6403  0.2247  0.1389
   51bbb     H5 1487  11.066   6.147  10.514 -0.6686  0.0720 -0.0792
   51bbb     H6 1488  10.968   6.205  10.381  3.2034  0.2607 -0.1658
   51bbb     C4 1489  10.856   6.110  10.542 -0.0248  0.1367 -0.3726
   51bbb     H7 1490  10.762   6.165  10.544  0.1949  0.4960  0.6687
   51bbb     H8 1491  10.876   6.079  10.645  1.6818 -0.1219 -0.7465
   51bbb     C5 1492  11.039   6.308  10.787 -0.7819  0.6277  0.4932
   51bbb     H9 1493  11.144   6.304  10.757 -0.0436 -0.4076  2.9394
   51bbb    H10 1494  11.024   6.200  10.802 -0.7406  0.2043 -2.0437
   51bbb     C6 1495  11.090   6.568  10.508 -0.7885 -0.4311  0.6411
   51bbb    H11 1496  11.119   6.594  10.610 -1.2374 -0.3342  0.7426
   51bbb    H12 1497  10.991   6.610  10.486  0.4444  2.3618 -0.0383
   51bbb     C7 1498  10.850   5.989  10.455 -0.5891 -0.2732  0.3287
   51bbb    H13 1499  10.932   5.920  10.477  1.2362  2.3481  2.3590
   51bbb    H14 1500  10.860   6.030  10.354 -0.8695 -0.0724  0.3798
   51bbb     C8 1501  11.189   6.640  10.409 -0.2401  0.2718  0.0627
   51bbb    H15 1502  11.153   6.743  10.399 -0.6596  0.1020 -0.1596
   51bbb    H16 1503  11.185   6.604  10.306  1.6646  2.7683 -0.9847
   51bbb     C9 1504  11.028   6.384  10.921  0.1620  0.3440 -0.0912
   51bbb    H17 1505  11.075   6.483  10.914 -0.4426  0.6570  0.1953
   51bbb    H18 1506  11.070   6.326  11.004 -1.7704  0.5724  1.1006
   51bbb     O1 1507  10.726   5.929  10.460 -0.1442 -0.3466 -0.8156
   52bbb     N1 1508  10.064   7.184  10.024  0.4242 -0.4086 -0.1100
   52bbb     C1 1509   9.962   7.147   9.927 -0.6476  0.2418 -0.2112
   52bbb     H1 1510   9.992   7.052   9.882  0.2495  0.8014 -0.8372
   52bbb     H2 1511   9.955   7.215   9.841 -2.7128 -1.7641 -1.7416
   52bbb     C2 1512  10.035   7.311  10.089 -0.2790 -0.3472  0.5553
   52bbb     H3 1513  10.102   7.335  10.173 -0.3786 -0.5315  0.6873
   52bbb     H4 1514   9.937   7.312  10.139  0.1542  1.3592  1.4517
   52bbb     C3 1515  10.096   7.064  10.115 -0.5478 -0.5430  0.4876
   52bbb     H5 1516  10.111   6.976  10.051  1.2908 -0.3091  0.5232
   52bbb     H6 1517  10.008   7.044  10.177 -1.2106  1.8422  0.3975
   52bbb     C4 1518  10.236   7.081  10.187 -0.0252 -0.9530  0.0074
   52bbb     H7 1519  10.225   7.147  10.274  1.1366 -0.2614 -0.3520
   52bbb     H8 1520  10.314   7.130  10.126  0.7704 -0.2839  1.5165
   52bbb     C5 1521   9.820   7.120   9.974  1.0458  0.4632  0.2784
   52bbb     H9 1522   9.781   7.203  10.035 -0.6592  0.3497 -0.6235
   52bbb    H10 1523   9.817   7.031  10.037 -1.8499  0.0293 -0.3385
   52bbb     C6 1524  10.052   7.435   9.992  0.5045 -0.5368  0.1177
   52bbb    H11 1525  10.120   7.419   9.908  0.5152 -1.3559  0.2671
   52bbb    H12 1526  10.091   7.519  10.051  0.7207 -1.3246  1.1301
   52bbb     C7 1527  10.291   6.943  10.233 -0.1263  0.8838  0.1920
   52bbb    H13 1528  10.376   6.959  10.300 -1.1487  3.8121  0.9323
   52bbb    H14 1529  10.341   6.891  10.150 -1.2559 -1.5967  0.9504
   52bbb     C8 1530   9.920   7.480   9.930 -0.3851 -0.2014  0.6867
   52bbb    H15 1531   9.859   7.468  10.019  0.0145 -0.6767  0.9028
   52bbb    H16 1532   9.884   7.409   9.854 -2.3401 -0.5680  1.8932
   52bbb     C9 1533   9.722   7.098   9.859 -0.0776 -0.3339 -0.1662
   52bbb    H17 1534   9.632   7.065   9.911 -0.1474  0.4992  0.2632
   52bbb    H18 1535   9.762   7.014   9.801  0.8488  0.7706 -1.1788
   52bbb     O1 1536  10.191   6.853  10.278  0.0665  0.0517 -0.5236
   53bbb     N1 1537   9.876   7.467  10.387  0.1609 -0.5882  0.3274
   53bbb     C1 1538   9.819   7.604  10.419 -0.0507  0.8204 -0.5725
   53bbb     H1 1539   9.766   7.590  10.514 -0.1942  2.2609 -0.4088
   53bbb     H2 1540   9.750   7.633  10.339 -0.4503  0.3111 -0.4157
   53bbb     C2 1541   9.972   7.412  10.492 -0.5421  0.0235 -0.1242
   53bbb     H3 1542   9.925   7.422  10.591  1.0205  1.7972  0.4999
   53bbb     H4 1543  10.056   7.482  10.503 -0.2921 -0.3192  0.1910
   53bbb     C3 1544   9.759   7.381  10.352 -0.6348  0.3310  0.0607
   53bbb     H5 1545   9.789   7.286  10.306  0.6529  0.9463 -0.4039
   53bbb     H6 1546   9.687   7.425  10.281  0.9491 -0.4465 -2.1332
   53bbb     C4 1547   9.668   7.342  10.468 -0.2308  0.5293  0.0363
   53bbb     H7 1548   9.614   7.426  10.512 -0.5123  1.9003 -2.6702
   53bbb     H8 1549   9.731   7.311  10.552  1.3157  2.1230 -0.4782
   53bbb     C5 1550   9.928   7.712  10.439  0.3816 -0.2450  0.5534
   53bbb     H9 1551   9.993   7.685  10.523 -1.8721  2.0360  3.2631
   53bbb    H10 1552   9.888   7.810  10.469 -0.3629 -0.8257  1.5560
   53bbb     C6 1553  10.029   7.269  10.466 -0.6185 -0.4754 -0.2175
   53bbb    H11 1554  10.064   7.270  10.362 -0.1314  0.0703 -0.0515
   53bbb    H12 1555   9.955   7.188  10.472 -0.3405 -0.6784  0.5891
   53bbb     C7 1556   9.566   7.224  10.437  0.9835  0.7879  0.1892
   53bbb    H13 1557   9.505   7.243  10.348  0.3644  0.7317  0.5954
   53bbb    H14 1558   9.492   7.212  10.517 -1.8993 -1.6587 -2.6002
   53bbb     C8 1559  10.143   7.211  10.555  0.2052 -0.0091 -0.4123
   53bbb    H15 1560  10.221   7.286  10.577 -1.2463  0.9826  1.7041
   53bbb    H16 1561  10.189   7.130  10.498 -1.7188  0.0927 -2.2092
   53bbb     C9 1562  10.016   7.730  10.309  0.1888  0.0854 -0.0288
   53bbb    H17 1563   9.953   7.737  10.220  0.0625  1.2558  0.1296
   53bbb    H18 1564  10.072   7.638  10.290  0.3987  0.0716  0.6098
   53bbb     O1 1565   9.635   7.095  10.418 -0.0007  0.0823 -0.1334
   54bbb     N1 1566   8.569   3.823  10.312  0.2018  0.5955 -0.0804
   54bbb     C1 1567   8.481   3.936  10.329 -0.0366 -0.4677  0.2042
   54bbb     H1 1568   8.513   4.015  10.261  2.2813 -1.8490 -0.4027
   54bbb     H2 1569   8.499   3.985  10.425 -0.0351  0.6945 -0.3760
   54bbb     C2 1570   8.537   3.736  10.186  0.0150  0.2239 -0.1118
   54bbb     H3 1571   8.549   3.803  10.099  0.9929  1.6118  1.0425
   54bbb     H4 1572   8.434   3.699  10.194  0.1931 -0.4744 -0.9131
   54bbb     C3 1573   8.707   3.860  10.336 -0.6787 -0.0474  0.2793
   54bbb     H5 1574   8.728   3.936  10.259  0.2740 -0.0853  0.4935
   54bbb     H6 1575   8.771   3.773  10.318 -0.1430 -0.0099  1.8369
   54bbb     C4 1576   8.750   3.929  10.466 -0.1273 -0.9505 -0.4645
   54bbb     H7 1577   8.686   3.907  10.552 -1.7929  1.3524 -1.0209
   54bbb     H8 1578   8.748   4.036  10.444 -0.1576 -0.9307 -0.3694
   54bbb     C5 1579   8.330   3.909  10.345  0.3173 -0.1138 -0.7562
   54bbb     H9 1580   8.309   3.831  10.419 -1.2305  0.0612 -0.9751
   54bbb    H10 1581   8.290   3.877  10.248 -0.7913  2.0528 -1.0788
   54bbb     C6 1582   8.620   3.610  10.174 -0.0377 -0.6800 -0.3153
   54bbb    H11 1583   8.614   3.554  10.268  1.0740  1.0785  0.8834
   54bbb    H12 1584   8.725   3.640  10.162 -0.4101  1.0202  0.2995
   54bbb     C7 1585   8.895   3.903  10.495  0.2352  0.6036 -1.2556
   54bbb    H13 1586   8.961   3.904  10.407 -0.1618  1.3411 -1.5449
   54bbb    H14 1587   8.892   3.805  10.546  0.9373  0.2494 -1.8684
   54bbb     C8 1588   8.592   3.522  10.046  0.5654  0.0890  0.4776
   54bbb    H15 1589   8.495   3.471  10.048  0.6165 -0.0308 -0.0085
   54bbb    H16 1590   8.665   3.441  10.052  0.5203 -0.0576 -0.7330
   54bbb     C9 1591   8.259   4.041  10.367 -0.0315  0.3796  0.1688
   54bbb    H17 1592   8.276   4.089  10.270 -1.5816  0.7010  0.0217
   54bbb    H18 1593   8.302   4.098  10.451 -0.7724  1.5494 -0.2112
   54bbb     O1 1594   8.950   4.002  10.587 -0.0481  0.2404  0.3668
   55bbb     N1 1595   9.626   4.367  10.161 -0.7183 -0.1283  0.0471
   55bbb     C1 1596   9.769   4.400  10.170 -0.4930  0.0772 -1.1787
   55bbb     H1 1597   9.795   4.448  10.266 -0.3282 -0.0046 -1.1815
   55bbb     H2 1598   9.791   4.476  10.094 -0.8581 -0.1679 -1.5302
   55bbb     C2 1599   9.584   4.299  10.032 -0.1270 -0.1461 -0.3163
   55bbb     H3 1600   9.474   4.301  10.036 -0.1278  1.6503 -0.1909
   55bbb     H4 1601   9.604   4.191  10.039 -1.1416 -0.2790  0.9941
   55bbb     C3 1602   9.565   4.308  10.288  0.3526 -0.5686 -0.0491
   55bbb     H5 1603   9.623   4.228  10.336  2.3512  1.2420  0.7314
   55bbb     H6 1604   9.468   4.261  10.266  0.4237 -1.7923  2.0016
   55bbb     C4 1605   9.533   4.402  10.400  0.3507 -0.1285  0.4463
   55bbb     H7 1606   9.616   4.466  10.430 -1.4523  0.8456  3.8849
   55bbb     H8 1607   9.505   4.352  10.494 -0.0223 -3.2405 -1.1656
   55bbb     C5 1608   9.851   4.274  10.157  0.6624  0.1004  0.0816
   55bbb     H9 1609   9.820   4.228  10.062  2.4129 -0.4279 -0.2652
   55bbb    H10 1610   9.837   4.214  10.248 -0.9783  1.1646  0.5973
   55bbb     C6 1611   9.621   4.368   9.904  0.6136 -0.0805 -0.1888
   55bbb    H11 1612   9.597   4.303   9.819 -0.8502 -1.5841  1.3053
   55bbb    H12 1613   9.730   4.376   9.901  0.4692  4.5252  0.2994
   55bbb     C7 1614   9.414   4.487  10.354 -0.5153 -0.6295  0.9543
   55bbb    H13 1615   9.411   4.488  10.245  0.9993  0.9550  0.8852
   55bbb    H14 1616   9.424   4.588  10.394  1.2161 -1.0810  1.7606
   55bbb     C8 1617   9.546   4.504   9.889  0.2036 -0.1270  0.0466
   55bbb    H15 1618   9.570   4.570   9.974 -0.1672 -1.3185  1.1002
   55bbb    H16 1619   9.436   4.498   9.890  0.2636 -1.7373 -0.7425
   55bbb     C9 1620  10.006   4.305  10.142  0.4413  0.4192 -0.2251
   55bbb    H17 1621  10.052   4.208  10.120 -2.2066 -1.2655  1.0873
   55bbb    H18 1622  10.041   4.324  10.244  0.2595  1.8118 -0.4025
   55bbb     O1 1623   9.294   4.441  10.409  0.4259  0.6876  0.2022
   56bbb     N1 1624   7.855   4.916   9.324 -0.1215  0.4491  0.2841
   56bbb     C1 1625   7.705   4.932   9.307 -0.0701  0.6686 -0.0465
   56bbb     H1 1626   7.654   4.989   9.385 -1.1367 -0.6190  0.2256
   56bbb     H2 1627   7.659   4.833   9.306 -1.4985  1.3079 -1.1957
   56bbb     C2 1628   7.935   5.046   9.350  0.2188  0.3221  0.5291
   56bbb     H3 1629   7.929   5.086   9.452  0.9724  1.3960  0.1634
   56bbb     H4 1630   7.898   5.124   9.283  1.8933  0.1059 -0.7096
   56bbb     C3 1631   7.904   4.792   9.398  0.0408  0.1688  0.8431
   56bbb     H5 1632   7.880   4.791   9.505  0.4874 -0.4491  0.9399
   56bbb     H6 1633   8.013   4.799   9.398  0.1802 -1.4967  0.5350
   56bbb     C4 1634   7.870   4.655   9.326 -0.2869 -0.6783  0.5231
   56bbb     H7 1635   7.935   4.640   9.239 -0.4693  0.3131  0.2069
   56bbb     H8 1636   7.767   4.650   9.290  0.4415  1.2376 -2.0787
   56bbb     C5 1637   7.670   5.002   9.172 -0.3111  0.1939  0.0389
   56bbb     H9 1638   7.757   4.990   9.107  0.3972  2.1465  0.5381
   56bbb    H10 1639   7.662   5.110   9.188 -0.6902  0.0501  0.8668
   56bbb     C6 1640   8.084   5.036   9.314 -0.1397 -0.3226  0.0467
   56bbb    H11 1641   8.138   4.969   9.382 -0.8646 -0.2785  0.6758
   56bbb    H12 1642   8.133   5.133   9.328 -0.2551 -0.1384 -0.7879
   56bbb     C7 1643   7.897   4.540   9.419  0.2969  0.0320 -0.0552
   56bbb    H13 1644   7.880   4.451   9.358  1.0641 -1.0024  1.1911
   56bbb    H14 1645   7.827   4.543   9.504 -3.6354  0.2691 -2.9848
   56bbb     C8 1646   8.096   4.968   9.176  0.9726  0.4975  0.4471
   56bbb    H15 1647   8.051   4.868   9.179  1.5125  0.1884 -0.8786
   56bbb    H16 1648   8.204   4.954   9.158  0.8094  0.2100 -0.3316
   56bbb     C9 1649   7.532   4.948   9.110 -0.1472 -0.8484 -0.0307
   56bbb    H17 1650   7.534   4.839   9.095  3.4197 -1.1629  1.6226
   56bbb    H18 1651   7.517   4.991   9.011 -1.3288  2.3674  1.3923
   56bbb     O1 1652   8.043   4.541   9.456  0.1503  0.3293 -0.3064
   57bbb     N1 1653   8.490   4.800   8.908 -0.2665 -0.6452 -0.5341
   57bbb     C1 1654   8.489   4.943   8.856  0.4417 -0.5551 -0.2763
   57bbb     H1 1655   8.586   4.989   8.878 -0.5690  2.3713 -1.3940
   57bbb     H2 1656   8.406   4.999   8.901 -0.1678 -0.5305 -1.4008
   57bbb     C2 1657   8.391   4.701   8.857 -0.3713 -0.2449 -0.3437
   57bbb     H3 1658   8.413   4.606   8.907 -0.3107  1.2677  2.7481
   57bbb     H4 1659   8.411   4.696   8.750  0.2646  0.4706 -0.2728
   57bbb     C3 1660   8.486   4.808   9.056 -0.6996 -0.1359 -0.4476
   57bbb     H5 1661   8.463   4.710   9.098  0.5504 -1.3141 -2.3696
   57bbb     H6 1662   8.419   4.884   9.100 -1.0767 -0.3190 -0.7008
   57bbb     C4 1663   8.621   4.853   9.114  0.4341 -0.1462 -0.2526
   57bbb     H7 1664   8.650   4.946   9.064  2.4939 -0.1917  0.7524
   57bbb     H8 1665   8.705   4.784   9.098  1.1697  0.4225  1.0143
   57bbb     C5 1666   8.476   4.958   8.705 -0.1023  0.3482  0.2668
   57bbb     H9 1667   8.373   4.929   8.679 -1.2262  2.0792  2.4026
   57bbb    H10 1668   8.547   4.886   8.663 -0.6566  0.0455 -0.1711
   57bbb     C6 1669   8.241   4.729   8.876 -0.0250 -0.3318  0.1763
   57bbb    H11 1670   8.225   4.836   8.860  1.1258  0.3047  2.7695
   57bbb    H12 1671   8.212   4.710   8.980  1.6795 -2.7983  0.2855
   57bbb     C7 1672   8.616   4.850   9.266 -0.4776 -0.2579 -0.1205
   57bbb    H13 1673   8.535   4.907   9.313  0.4772  0.2139  1.0076
   57bbb    H14 1674   8.712   4.893   9.298  0.4477 -2.3212  0.0602
   57bbb     C8 1675   8.149   4.637   8.790  0.8474  0.0546  0.2881
   57bbb    H15 1676   8.192   4.536   8.782  1.7611  0.5465 -1.4946
   57bbb    H16 1677   8.158   4.665   8.685  1.9198 -2.1745 -0.2659
   57bbb     C9 1678   8.492   5.102   8.652 -0.1340  0.0356 -0.2904
   57bbb    H17 1679   8.409   5.160   8.692 -0.7046  0.2756 -1.7724
   57bbb    H18 1680   8.472   5.102   8.544  0.0604  2.3383 -0.3754
   57bbb     O1 1681   8.613   4.704   9.301 -0.2127  0.0609  0.5120
   58bbb     N1 1682   8.448   6.174   9.981  0.0149  0.5649 -0.1678
   58bbb     C1 1683   8.491   6.306   9.938 -0.2415 -0.3362  0.4317
   58bbb     H1 1684   8.406   6.375   9.928 -0.6023 -0.9682 -1.1800
   58bbb     H2 1685   8.540   6.311   9.839 -0.7451  2.3596  0.2634
   58bbb     C2 1686   8.350   6.177  10.096 -0.5299 -0.0199 -0.7360
   58bbb     H3 1687   8.391   6.220  10.188 -0.6625  1.7933 -1.4839
   58bbb     H4 1688   8.315   6.074  10.108 -1.3102  0.4755  1.7560
   58bbb     C3 1689   8.541   6.057   9.995  0.1979 -0.2514 -0.3633
   58bbb     H5 1690   8.479   5.966  10.001  0.7992 -0.6524 -0.1821
   58bbb     H6 1691   8.583   6.053  10.096 -0.7184 -0.7986  0.0101
   58bbb     C4 1692   8.646   6.025   9.888 -0.8768 -0.2805  0.2344
   58bbb     H7 1693   8.714   6.110   9.888  1.4578 -1.9691 -2.6249
   58bbb     H8 1694   8.605   6.018   9.787  0.3402  1.4943 -0.4215
   58bbb     C5 1695   8.611   6.354  10.022 -0.4884  0.5044  0.1941
   58bbb     H9 1696   8.667   6.272  10.067  0.8997  1.5714  0.4920
   58bbb    H10 1697   8.564   6.403  10.108  0.9962 -0.7745  1.7985
   58bbb     C6 1698   8.218   6.253  10.079  0.2393  0.1691 -0.6043
   58bbb    H11 1699   8.167   6.219   9.989 -1.6393 -0.7196  0.7203
   58bbb    H12 1700   8.238   6.358  10.056  2.1790 -0.3751 -1.6529
   58bbb     C7 1701   8.736   5.903   9.917 -0.3716 -0.7392  0.5227
   58bbb    H13 1702   8.818   5.909   9.845 -1.4759 -1.2804 -0.8241
   58bbb    H14 1703   8.675   5.813   9.903  0.6747 -1.4380  0.3715
   58bbb     C8 1704   8.117   6.223  10.189  0.4204  0.7469 -0.2504
   58bbb    H15 1705   8.101   6.117  10.167  0.4604  0.6315  0.2607
   58bbb    H16 1706   8.017   6.267  10.175  1.0280  2.5061  0.6073
   58bbb     C9 1707   8.709   6.458   9.955  0.0528  0.6605  0.5386
   58bbb    H17 1708   8.656   6.543   9.910 -2.9456  0.1849  2.8585
   58bbb    H18 1709   8.773   6.412   9.878  1.0330  4.5919 -1.2519
   58bbb     O1 1710   8.785   5.915  10.051 -0.1818  0.5260  0.1640
   59bbb     N1 1711   9.081   5.988  11.104  0.4064 -0.2605 -0.1991
   59bbb     C1 1712   9.124   5.875  11.182 -0.7709 -0.2130  0.2249
   59bbb     H1 1713   9.058   5.790  11.160 -1.0907  0.0534  0.1527
   59bbb     H2 1714   9.102   5.894  11.287 -0.9463 -2.1240  0.5696
   59bbb     C2 1715   8.965   6.054  11.169  0.0340 -0.4175 -0.3104
   59bbb     H3 1716   8.940   6.153  11.129  0.3622 -0.5336 -0.8078
   59bbb     H4 1717   8.994   6.063  11.275 -0.1952  0.0892 -0.2876
   59bbb     C3 1718   9.059   5.958  10.962  0.3927  0.1461  0.1809
   59bbb     H5 1719   8.979   5.888  10.934  2.2097 -1.0010 -2.4629
   59bbb     H6 1720   9.144   5.901  10.922 -0.1827 -2.1830  1.9837
   59bbb     C4 1721   9.036   6.089  10.879  0.7004 -0.2667 -0.6960
   59bbb     H7 1722   9.134   6.140  10.876 -0.1528  1.4191 -0.8296
   59bbb     H8 1723   8.960   6.151  10.928  0.8159  0.8897 -1.9437
   59bbb     C5 1724   9.264   5.824  11.144 -0.4894 -0.3090 -0.0770
   59bbb     H9 1725   9.342   5.892  11.178  0.3527 -0.8661 -0.8573
   59bbb    H10 1726   9.277   5.804  11.037  1.9119  0.4605  0.0095
   59bbb     C6 1727   8.832   5.978  11.167  0.2944 -0.2544 -0.5388
   59bbb    H11 1728   8.839   5.871  11.190  2.2220  0.1403  1.0738
   59bbb    H12 1729   8.790   5.993  11.067 -0.0834 -1.3192 -0.5548
   59bbb     C7 1730   9.001   6.059  10.731  0.1683 -0.5926 -0.0456
   59bbb    H13 1731   9.081   5.999  10.686 -0.5839 -1.5226 -0.1815
   59bbb    H14 1732   8.992   6.159  10.686  0.9549 -0.5102 -0.0405
   59bbb     C8 1733   8.735   6.040  11.267  0.3185  0.5824 -0.5321
   59bbb    H15 1734   8.747   6.148  11.277 -0.7929  0.5173  3.3129
   59bbb    H16 1735   8.756   5.998  11.367  0.0385 -0.7043 -0.9977
   59bbb     C9 1736   9.280   5.687  11.220  0.8664  0.0887 -0.3134
   59bbb    H17 1737   9.381   5.645  11.208  0.6560 -0.3829 -0.4336
   59bbb    H18 1738   9.218   5.608  11.176  0.9108 -0.1163 -0.0078
   59bbb     O1 1739   8.879   5.979  10.727 -0.2566 -0.5688  0.0462
   60bbb     N1 1740   8.119   6.363   8.943 -0.8696 -1.0242  0.3251
   60bbb     C1 1741   8.182   6.466   9.033  0.2295 -0.5449  0.9069
   60bbb     H1 1742   8.259   6.513   8.971 -0.6381 -1.1188 -0.6715
   60bbb     H2 1743   8.234   6.418   9.117  1.9251 -0.4524 -0.0577
   60bbb     C2 1744   8.052   6.425   8.828  0.1543 -0.4832 -0.3251
   60bbb     H3 1745   8.134   6.461   8.765  1.2710 -2.6364 -0.2140
   60bbb     H4 1746   7.977   6.495   8.867 -1.9189 -3.2597  1.0162
   60bbb     C3 1747   8.214   6.252   8.913  0.5066 -0.2783  0.4151
   60bbb     H5 1748   8.140   6.174   8.889  1.1914  0.1177 -3.8432
   60bbb     H6 1749   8.272   6.224   9.002  0.8862 -0.4762  0.1082
   60bbb     C4 1750   8.315   6.273   8.801 -0.4459  0.0209 -0.5309
   60bbb     H7 1751   8.380   6.360   8.817 -2.2695  2.2661 -3.9550
   60bbb     H8 1752   8.262   6.298   8.708 -0.8457 -1.1724 -0.6402
   60bbb     C5 1753   8.094   6.580   9.094 -0.3738  0.3223 -0.2573
   60bbb     H9 1754   8.060   6.638   9.007 -0.8303 -0.8380 -0.8770
   60bbb    H10 1755   8.154   6.650   9.153  1.2704  0.3297 -1.8590
   60bbb     C6 1756   7.954   6.331   8.752 -0.1698 -0.1209 -0.1821
   60bbb    H11 1757   7.895   6.280   8.829  0.8916  1.1637  1.5500
   60bbb    H12 1758   8.007   6.249   8.701 -1.7397 -2.1011  1.1916
   60bbb     C7 1759   8.402   6.151   8.772 -0.0773  0.3800 -0.3373
   60bbb    H13 1760   8.461   6.124   8.861  1.0239  3.0090 -0.2051
   60bbb    H14 1761   8.466   6.180   8.688  1.3290 -0.9716  0.2059
   60bbb     C8 1762   7.879   6.412   8.637 -0.0408 -0.1948 -0.0814
   60bbb    H15 1763   7.949   6.413   8.552 -1.7925  0.9727 -1.5695
   60bbb    H16 1764   7.859   6.514   8.669  0.1446 -0.0494 -0.4235
   60bbb     C9 1765   7.970   6.529   9.174  0.1844  1.1202  0.1533
   60bbb    H17 1766   8.015   6.472   9.256 -0.2627 -0.1691 -0.4664
   60bbb    H18 1767   7.907   6.464   9.112  0.2409  2.1575 -1.0179
   60bbb     O1 1768   8.313   6.048   8.716  0.4171  0.6243  0.0370
   61bbb     N1 1769   7.557   5.285   9.572  0.3099 -0.7206 -0.7471
   61bbb     C1 1770   7.417   5.326   9.580  0.3612 -0.0412  0.4495
   61bbb     H1 1771   7.400   5.425   9.537  1.2766  0.9273  2.2299
   61bbb     H2 1772   7.381   5.346   9.682 -2.0628 -0.2225 -0.3185
   61bbb     C2 1773   7.585   5.173   9.674 -0.1671  0.1353  0.6155
   61bbb     H3 1774   7.529   5.081   9.653  2.2689 -1.3602  0.2920
   61bbb     H4 1775   7.550   5.208   9.772  0.1445  0.5320  0.5859
   61bbb     C3 1776   7.616   5.269   9.436 -0.1357 -0.4807  0.5103
   61bbb     H5 1777   7.567   5.179   9.399  0.2945 -0.4015 -0.2638
   61bbb     H6 1778   7.722   5.241   9.434 -0.5278 -2.0195  0.3072
   61bbb     C4 1779   7.589   5.386   9.333 -0.2908  0.0989  0.5738
   61bbb     H7 1780   7.482   5.409   9.331 -0.1997  0.4418 -0.6225
   61bbb     H8 1781   7.615   5.347   9.234 -0.3061 -0.7150  0.8812
   61bbb     C5 1782   7.321   5.226   9.515  0.1829 -0.1431  0.5319
   61bbb     H9 1783   7.356   5.122   9.523 -2.8406 -1.3666 -0.6875
   61bbb    H10 1784   7.311   5.249   9.409 -0.5126 -1.3922  0.3051
   61bbb     C6 1785   7.741   5.140   9.693 -0.0549  0.5048  0.0920
   61bbb    H11 1786   7.799   5.232   9.708 -1.6753  1.5622  0.1063
   61bbb    H12 1787   7.766   5.090   9.599 -0.9022 -0.3871  0.3262
   61bbb     C7 1788   7.678   5.510   9.361  0.9880 -0.2647  0.3011
   61bbb    H13 1789   7.665   5.541   9.466  1.5335 -0.2959  0.3836
   61bbb    H14 1790   7.649   5.593   9.297  2.2200 -2.1125 -2.9043
   61bbb     C8 1791   7.757   5.048   9.810 -0.1391  0.9631  0.6009
   61bbb    H15 1792   7.753   5.103   9.904 -0.4537  0.8574  0.6507
   61bbb    H16 1793   7.856   5.001   9.808 -1.6341 -2.5737 -1.4549
   61bbb     C9 1794   7.175   5.231   9.570  0.2751  0.3666 -0.3962
   61bbb    H17 1795   7.141   5.334   9.555 -2.5074 -0.5390 -0.8519
   61bbb    H18 1796   7.160   5.220   9.678 -1.6310 -1.3039 -0.7689
   61bbb     O1 1797   7.813   5.484   9.341 -0.8417  0.2421 -0.4422
   62bbb     N1 1798  10.440   7.550   9.063 -0.2117 -0.0689  0.6283
   62bbb     C1 1799  10.412   7.562   9.207 -0.1372 -0.0140  0.0206
   62bbb     H1 1800  10.331   7.492   9.228 -0.3151 -0.3312 -1.6035
   62bbb     H2 1801  10.378   7.665   9.219 -0.9930 -0.3345  0.3817
   62bbb     C2 1802  10.324   7.590   8.984  0.2357 -0.0034 -0.9828
   62bbb     H3 1803  10.305   7.695   9.006  0.2065 -0.2778  0.4464
   62bbb     H4 1804  10.239   7.527   9.015 -0.5672  0.9228 -1.2680
   62bbb     C3 1805  10.504   7.428   9.013  0.4823 -0.2254 -0.1338
   62bbb     H5 1806  10.592   7.420   9.078  0.6234  0.3382 -0.2572
   62bbb     H6 1807  10.544   7.434   8.911  2.1523 -0.5130  0.4774
   62bbb     C4 1808  10.420   7.300   9.024  0.3447 -0.0229 -0.7028
   62bbb     H7 1809  10.419   7.240   8.932 -0.2075 -1.8253  0.4224
   62bbb     H8 1810  10.315   7.325   9.041 -0.0414 -1.8976 -0.1604
   62bbb     C5 1811  10.543   7.551   9.289  0.0274  0.0341 -0.2097
   62bbb     H9 1812  10.632   7.595   9.241  0.8035 -0.8158  0.4063
   62bbb    H10 1813  10.574   7.447   9.308 -0.9188  0.2019  2.6086
   62bbb     C6 1814  10.328   7.587   8.830 -0.2449 -0.0032 -0.2963
   62bbb    H11 1815  10.228   7.615   8.794 -1.0582  0.7308  2.2791
   62bbb    H12 1816  10.354   7.488   8.791  1.2910  0.6069 -0.8984
   62bbb     C7 1817  10.478   7.194   9.120 -0.7497 -0.1823  0.7945
   62bbb    H13 1818  10.587   7.185   9.116 -0.6333  1.1507  0.5666
   62bbb    H14 1819  10.429   7.100   9.092 -2.5127  0.8651  0.1413
   62bbb     C8 1820  10.440   7.678   8.774 -0.2591  0.4550 -0.6279
   62bbb    H15 1821  10.452   7.677   8.665  1.6752  1.4980 -0.4767
   62bbb    H16 1822  10.533   7.627   8.802 -1.3672 -0.6150  1.3146
   62bbb     C9 1823  10.531   7.615   9.428 -0.3640 -0.6377 -0.3005
   62bbb    H17 1824  10.616   7.595   9.494  0.9374  2.0794 -1.0095
   62bbb    H18 1825  10.442   7.567   9.470  0.1503  1.0216  3.0101
   62bbb     O1 1826  10.432   7.232   9.246  0.4766 -0.4932  0.2920
   63bbb     N1 1827  10.503   7.399  10.097  0.3675  0.9010  0.2737
   63bbb     C1 1828  10.614   7.497  10.121  0.1158 -0.1051 -0.2278
   63bbb     H1 1829  10.648   7.480  10.224 -0.3808  0.4377  0.0346
   63bbb     H2 1830  10.587   7.602  10.105 -2.0802 -0.3369  1.4369
   63bbb     C2 1831  10.388   7.429  10.186 -0.4658 -0.0514 -0.1309
   63bbb     H3 1832  10.307   7.360  10.162  1.1083 -1.8647 -0.4903
   63bbb     H4 1833  10.356   7.533  10.171  0.4334  0.1661 -0.5837
   63bbb     C3 1834  10.457   7.386   9.959 -0.2151 -0.0185  0.0240
   63bbb     H5 1835  10.368   7.322   9.957  1.7077 -2.8681  0.2115
   63bbb     H6 1836  10.530   7.328   9.901 -1.8742 -2.1704 -0.0498
   63bbb     C4 1837  10.421   7.520   9.890  0.3327 -1.1780 -0.4725
   63bbb     H7 1838  10.496   7.599   9.903 -1.9871  1.2610 -1.0304
   63bbb     H8 1839  10.331   7.569   9.927  2.1406  1.3799  0.8513
   63bbb     C5 1840  10.736   7.466  10.023  1.1417  0.0659  0.0328
   63bbb     H9 1841  10.690   7.489   9.926 -1.5404  1.6493  1.5472
   63bbb    H10 1842  10.771   7.363  10.035  0.8045 -0.2136 -1.3020
   63bbb     C6 1843  10.413   7.411  10.332  0.1432 -0.4266 -0.1985
   63bbb    H11 1844  10.517   7.410  10.365 -0.4218 -0.1360  1.7427
   63bbb    H12 1845  10.368   7.314  10.357 -2.9155  0.3560 -2.1390
   63bbb     C7 1846  10.402   7.494   9.739  0.3544 -0.8731 -0.3915
   63bbb    H13 1847  10.491   7.467   9.682 -0.8165  0.2985 -2.9487
   63bbb    H14 1848  10.381   7.590   9.690  3.3866 -1.2523 -2.6980
   63bbb     C8 1849  10.354   7.523  10.425  0.5136  0.3305  0.0104
   63bbb    H15 1850  10.248   7.529  10.399  0.8858  0.1426 -1.6546
   63bbb    H16 1851  10.403   7.616  10.395  0.8497 -0.4457 -2.0068
   63bbb     C9 1852  10.839   7.568  10.053 -0.0809  0.4731 -0.6047
   63bbb    H17 1853  10.865   7.567  10.160 -2.3291 -1.0179  0.0187
   63bbb    H18 1854  10.812   7.669  10.020 -1.6339 -0.6333 -2.9875
   63bbb     O1 1855  10.290   7.418   9.720  0.4198  0.6772 -0.0962
   64bbb     N1 1856   9.540   8.090   9.376 -0.5276  0.0072 -0.6100
   64bbb     C1 1857   9.426   8.303   9.303  0.6374 -0.8981 -0.5456
   64bbb     H1 1858   9.467   8.356   9.216  3.0907  0.8609  1.5319
   64bbb     H2 1859   9.328   8.293   9.255 -0.4619  0.3360  1.3104
   64bbb     C2 1860   9.628   7.980   9.304 -0.3924  0.1634 -0.2512
   64bbb     H3 1861   9.653   8.001   9.200 -0.0415  2.7188  0.2953
   64bbb     H4 1862   9.573   7.885   9.301  0.9631 -0.6203 -2.4034
   64bbb     C3 1863   9.551   8.022   9.519 -0.8414 -0.0543 -0.8902
   64bbb     H5 1864   9.497   8.064   9.605 -3.7443 -1.7578 -1.7606
   64bbb     H6 1865   9.649   8.055   9.556 -1.1279  2.2762 -1.9686
   64bbb     C4 1866   9.522   7.876   9.540  0.2247  0.1529  0.6347
   64bbb     H7 1867   9.598   7.804   9.509 -0.4249 -0.3008  0.0579
   64bbb     H8 1868   9.434   7.855   9.477  0.1385 -1.7369  1.3246
   64bbb     C5 1869   9.381   8.436   9.378  0.3059  0.4463 -0.7687
   64bbb     H9 1870   9.455   8.482   9.445 -1.3652 -0.9461  2.2337
   64bbb    H10 1871   9.299   8.420   9.449  0.4122  2.2034 -0.1840
   64bbb     C6 1872   9.778   7.954   9.359  0.1819  0.6075  0.2552
   64bbb    H11 1873   9.778   7.907   9.458  1.9486 -3.4342 -1.4562
   64bbb    H12 1874   9.824   8.053   9.367  0.0537  0.9350 -2.1208
   64bbb     C7 1875   9.488   7.845   9.687 -0.2334  0.0907  0.2673
   64bbb    H13 1876   9.396   7.895   9.718 -0.8285  0.2174 -1.6125
   64bbb    H14 1877   9.579   7.883   9.736  0.2690 -2.5691  1.5915
   64bbb     C8 1878   9.857   7.862   9.261 -0.1541  0.0450  0.1596
   64bbb    H15 1879   9.828   7.883   9.157 -0.5116  0.7714  0.4001
   64bbb    H16 1880   9.839   7.757   9.285 -0.5957  0.0415 -0.1693
   64bbb     C9 1881   9.305   8.540   9.287 -1.1401  0.1004  0.2266
   64bbb    H17 1882   9.208   8.503   9.252 -0.3512 -0.6442 -1.2816
   64bbb    H18 1883   9.360   8.558   9.194  0.0886  2.8671  1.3896
   64bbb     O1 1884   9.479   7.703   9.707 -0.1717  0.5175  0.1796
   65bbb     N1 1885   9.278   7.394  10.760  0.1549  0.2441 -0.2791
   65bbb     C1 1886   9.277   7.433  10.905 -0.7996 -0.0850 -0.1946
   65bbb     H1 1887   9.226   7.362  10.971  0.9267 -0.3117  0.9579
   65bbb     H2 1888   9.218   7.525  10.911  0.2833  0.7742 -1.8380
   65bbb     C2 1889   9.303   7.251  10.734 -0.5827 -1.1663 -0.2017
   65bbb     H3 1890   9.406   7.219  10.753 -0.5928 -0.9114  0.2974
   65bbb     H4 1891   9.301   7.229  10.626  4.5918  1.7833 -1.2781
   65bbb     C3 1892   9.341   7.482  10.658  0.0393  0.0134 -0.5720
   65bbb     H5 1893   9.327   7.446  10.555  0.2920  1.1983 -1.0320
   65bbb     H6 1894   9.450   7.485  10.668  0.1229 -0.0305 -1.4200
   65bbb     C4 1895   9.284   7.623  10.670 -0.1933 -0.5615  0.1849
   65bbb     H7 1896   9.322   7.667  10.763 -1.6658  0.0053  0.5392
   65bbb     H8 1897   9.175   7.616  10.676 -0.0633 -1.5940  2.5369
   65bbb     C5 1898   9.421   7.447  10.969 -0.0310  0.0437  0.3140
   65bbb     H9 1899   9.473   7.531  10.922  0.0990 -1.3593 -2.2330
   65bbb    H10 1900   9.481   7.355  10.960  0.9531  0.5726  1.2696
   65bbb     C6 1901   9.213   7.152  10.811 -0.1157  0.2189  0.7806
   65bbb    H11 1902   9.107   7.177  10.797 -0.1662 -0.6560 -0.5399
   65bbb    H12 1903   9.231   7.160  10.919 -0.2548  1.8882  0.7139
   65bbb     C7 1904   9.327   7.712  10.548 -0.1345  0.4459  0.2122
   65bbb    H13 1905   9.436   7.720  10.550 -0.2319  1.9174  1.4975
   65bbb    H14 1906   9.282   7.810  10.569  0.2519  0.1438  2.7794
   65bbb     C8 1907   9.243   7.008  10.757  0.1504  0.0209  0.5409
   65bbb    H15 1908   9.352   6.997  10.760  0.0735 -1.8426 -1.3621
   65bbb    H16 1909   9.215   6.996  10.652  0.7904  0.0964  0.3567
   65bbb     C9 1910   9.399   7.472  11.122  0.1680  0.1892  0.1687
   65bbb    H17 1911   9.308   7.532  11.136 -1.5192 -2.0820 -0.4653
   65bbb    H18 1912   9.476   7.526  11.177 -0.6730  1.3842  0.2247
   65bbb     O1 1913   9.278   7.655  10.426  0.0987  0.4014  0.0427
   66bbb     N1 1914  10.278   6.501   7.876 -0.2262 -0.3788 -0.4571
   66bbb     C1 1915  10.418   6.464   7.844 -0.0843 -0.8423  0.8354
   66bbb     H1 1916  10.434   6.370   7.899  1.6836  0.1343  2.1230
   66bbb     H2 1917  10.496   6.532   7.880 -2.1860  1.6455  0.9508
   66bbb     C2 1918  10.176   6.405   7.856 -0.0172  0.5507  0.5306
   66bbb     H3 1919  10.168   6.331   7.937 -0.1488 -1.6486 -1.3726
   66bbb     H4 1920  10.204   6.334   7.777  2.2574 -0.0189  1.7622
   66bbb     C3 1921  10.266   6.550   8.018 -0.0794 -0.0157  0.9277
   66bbb     H5 1922  10.286   6.477   8.097 -0.1978  0.2892  1.2452
   66bbb     H6 1923  10.163   6.584   8.032 -0.2871 -0.2405  0.0129
   66bbb     C4 1924  10.355   6.674   8.042  0.0260 -0.5409  0.3284
   66bbb     H7 1925  10.333   6.741   7.958 -1.2665 -1.5097 -0.1587
   66bbb     H8 1926  10.458   6.637   8.043 -0.1483 -1.0643  1.9533
   66bbb     C5 1927  10.450   6.437   7.695  0.5208  0.3654  0.3814
   66bbb     H9 1928  10.492   6.528   7.652 -0.9605  0.4988 -0.8715
   66bbb    H10 1929  10.353   6.429   7.645  0.1267  1.2017  0.9918
   66bbb     C6 1930  10.037   6.461   7.834 -0.0727 -0.2657  0.0313
   66bbb    H11 1931  10.032   6.501   7.732 -1.4566 -1.7868 -0.5562
   66bbb    H12 1932  10.010   6.537   7.908 -0.7772  0.2523 -0.7246
   66bbb     C7 1933  10.330   6.748   8.173 -0.3453 -0.1022  0.0543
   66bbb    H13 1934  10.227   6.783   8.185 -0.6832 -1.2205  0.4883
   66bbb    H14 1935  10.397   6.835   8.170  0.6574 -0.8776 -1.3188
   66bbb     C8 1936   9.923   6.353   7.844 -0.0757  0.4707 -0.2791
   66bbb    H15 1937   9.824   6.402   7.849 -0.7949 -0.6585 -2.2476
   66bbb    H16 1938   9.934   6.311   7.945  2.1850  4.0800  1.1925
   66bbb     C9 1939  10.540   6.317   7.666 -0.1503 -0.3411  0.2651
   66bbb    H17 1940  10.550   6.298   7.558  1.0585  2.0441 -0.1283
   66bbb    H18 1941  10.486   6.231   7.706 -2.3868  1.4463  1.2653
   66bbb     O1 1942  10.358   6.675   8.297  0.0289  0.7099  0.4243
   67bbb     N1 1943  10.001   6.907   7.711 -0.5139 -0.1990 -0.3100
   67bbb     C1 1944  10.137   6.861   7.755  0.4430  0.1571  0.2488
   67bbb     H1 1945  10.129   6.794   7.842 -1.2131 -1.2325 -0.9353
   67bbb     H2 1946  10.193   6.944   7.801  0.5686  0.2610 -0.0950
   67bbb     C2 1947  10.011   7.017   7.619  0.5020  0.0816 -0.1350
   67bbb     H3 1948  10.042   6.975   7.523 -0.4644 -0.4938 -0.2029
   67bbb     H4 1949  10.102   7.073   7.645  1.0934 -0.7944 -0.2614
   67bbb     C3 1950   9.909   6.923   7.829 -0.4698 -0.0747  0.8596
   67bbb     H5 1951   9.814   6.957   7.784  0.6203 -0.7142 -2.1498
   67bbb     H6 1952   9.944   6.999   7.901 -1.4889 -0.7326  2.1002
   67bbb     C4 1953   9.886   6.792   7.909 -0.4102  0.2999 -0.4699
   67bbb     H7 1954   9.980   6.749   7.946 -0.7331 -0.6010 -0.6549
   67bbb     H8 1955   9.828   6.722   7.846 -0.7465  2.0665 -2.2192
   67bbb     C5 1956  10.211   6.787   7.642  0.4539 -0.1098 -0.1259
   67bbb     H9 1957  10.140   6.723   7.588 -0.7847  2.3197 -1.5712
   67bbb    H10 1958  10.276   6.715   7.692 -1.0960 -1.1956  0.4055
   67bbb     C6 1959   9.884   7.110   7.602  0.0885  0.7641  0.7050
   67bbb    H11 1960   9.855   7.157   7.697  1.3963  1.1775  0.9213
   67bbb    H12 1961   9.803   7.041   7.573 -0.3528  1.8248 -0.6730
   67bbb     C7 1962   9.801   6.826   8.036  0.2329 -0.6348  0.4149
   67bbb    H13 1963   9.695   6.841   8.015 -0.0478  1.6743  2.9246
   67bbb    H14 1964   9.843   6.919   8.075  0.7283 -0.9008  0.5241
   67bbb     C8 1965   9.905   7.220   7.493 -0.1899  0.5360 -0.2920
   67bbb    H15 1966   9.814   7.282   7.502 -1.3259 -1.3711  3.2262
   67bbb    H16 1967   9.895   7.171   7.396 -1.5097  1.1621 -0.5013
   67bbb     C9 1968  10.287   6.871   7.537 -0.4341 -0.3689 -0.0084
   67bbb    H17 1969  10.341   6.947   7.596  1.0971 -1.8657  0.6277
   67bbb    H18 1970  10.221   6.914   7.461 -1.6274 -2.0564  0.0217
   67bbb     O1 1971   9.813   6.711   8.122 -1.0266  0.3186  0.4617
   68bbb     N1 1972   9.620   6.275   8.168 -0.0424 -0.0495 -0.3041
   68bbb     C1 1973   9.581   6.292   8.033 -0.6029  0.0399  0.5662
   68bbb     H1 1974   9.482   6.246   8.018  0.1312 -1.5166  0.3676
   68bbb     H2 1975   9.659   6.236   7.981  1.3134  0.7167  2.5581
   68bbb     C2 1976   9.768   6.271   8.195 -0.4705  0.0913 -0.1215
   68bbb     H3 1977   9.804   6.374   8.194 -1.8422  0.6654  2.3627
   68bbb     H4 1978   9.823   6.221   8.113 -1.4166 -0.4163 -0.4600
   68bbb     C3 1979   9.548   6.350   8.282 -0.3567 -0.0541  0.3756
   68bbb     H5 1980   9.550   6.460   8.273 -1.3122 -0.0501  0.1329
   68bbb     H6 1981   9.584   6.310   8.378 -0.1549 -1.7626 -0.3802
   68bbb     C4 1982   9.397   6.321   8.274 -0.2694 -0.0768  0.0790
   68bbb     H7 1983   9.378   6.215   8.252 -0.2635 -0.1977  0.6518
   68bbb     H8 1984   9.356   6.383   8.193  1.5520 -0.0930 -0.8949
   68bbb     C5 1985   9.581   6.443   7.974  0.5873  0.1431 -1.0060
   68bbb     H9 1986   9.682   6.478   7.997  0.9077 -1.2192 -0.1906
   68bbb    H10 1987   9.511   6.505   8.032  1.9529 -0.6487  1.6454
   68bbb     C6 1988   9.809   6.205   8.325 -0.6779  0.2631 -0.4455
   68bbb    H11 1989   9.740   6.120   8.332 -0.1420 -0.1249  0.2098
   68bbb    H12 1990   9.798   6.277   8.406 -0.6832 -0.7016  0.4298
   68bbb     C7 1991   9.318   6.357   8.403  0.1583  0.0071 -0.3431
   68bbb    H13 1992   9.347   6.276   8.471  0.6073  1.2840  1.0258
   68bbb    H14 1993   9.209   6.353   8.390  0.2385 -0.7082 -0.8691
   68bbb     C8 1994   9.954   6.155   8.327  0.3270 -0.1345 -0.6051
   68bbb    H15 1995   9.987   6.071   8.265  1.2918  1.3526 -2.1704
   68bbb    H16 1996   9.961   6.113   8.429  0.4088 -1.7396 -1.2439
   68bbb     C9 1997   9.541   6.435   7.824 -0.4933  0.0757 -0.1234
   68bbb    H17 1998   9.433   6.453   7.814 -0.6230 -0.2895  0.5686
   68bbb    H18 1999   9.549   6.329   7.796  1.8974  0.3086 -0.5905
   68bbb     O1 2000   9.358   6.490   8.450 -0.1433 -0.5888 -0.2405
   69bbb     N1 2001  10.102   7.217   8.122  0.8314  0.2087 -0.3451
   69bbb     C1 2002  10.173   7.305   8.220  0.4314  0.8983 -0.0730
   69bbb     H1 2003  10.278   7.274   8.213  0.4276  1.2964 -3.0351
   69bbb     H2 2004  10.134   7.278   8.319  1.2392  0.4412  0.1286
   69bbb     C2 2005  10.157   7.215   7.983 -0.2183 -0.8779 -0.9095
   69bbb     H3 2006  10.159   7.319   7.947  1.4010 -0.9205 -1.0165
   69bbb     H4 2007  10.088   7.158   7.920 -0.2245 -0.6070 -1.1500
   69bbb     C3 2008  10.082   7.074   8.162 -0.4369 -0.0406  0.2713
   69bbb     H5 2009  10.177   7.019   8.174  0.7487  1.8450 -0.0700
   69bbb     H6 2010  10.022   7.022   8.086  0.8325 -0.2109 -0.6407
   69bbb     C4 2011  10.015   7.055   8.297 -0.5119  0.0720  0.0778
   69bbb     H7 2012  10.084   7.079   8.379 -0.7564 -2.2940  1.0625
   69bbb     H8 2013  10.000   6.947   8.312  0.9856 -0.3783 -1.4267
   69bbb     C5 2014  10.163   7.456   8.204  0.1531 -0.0322  0.4855
   69bbb     H9 2015  10.194   7.489   8.104  0.2307  1.0262  0.8449
   69bbb    H10 2016  10.239   7.501   8.269  1.9881 -0.3080 -1.3720
   69bbb     C6 2017  10.301   7.164   7.962  0.1817  0.1771  0.2295
   69bbb    H11 2018  10.288   7.055   7.970 -1.4325  0.3853  0.7025
   69bbb    H12 2019  10.374   7.190   8.040  1.5570  0.5526 -1.1226
   69bbb     C7 2020   9.873   7.125   8.309 -1.0226 -0.4444 -0.5887
   69bbb    H13 2021   9.810   7.091   8.226 -1.2910 -1.9570  0.1848
   69bbb    H14 2022   9.884   7.234   8.316 -1.4678 -0.3167 -1.6708
   69bbb     C8 2023  10.361   7.194   7.820 -0.6670 -0.0529 -0.1751
   69bbb    H15 2024  10.294   7.147   7.747 -1.1718 -0.3621  0.4710
   69bbb    H16 2025  10.456   7.141   7.805 -0.0958  0.6766  0.7142
   69bbb     C9 2026  10.021   7.504   8.233  0.1871  0.1762  0.1172
   69bbb    H17 2027  10.002   7.493   8.341  2.0508 -0.0935  0.4566
   69bbb    H18 2028   9.960   7.428   8.182  0.6484  0.1320 -0.3818
   69bbb     O1 2029   9.815   7.083   8.431  0.6929 -0.2188 -0.1644
   70bbb     N1 2030  12.035   5.227   9.887  0.4043  0.1857  1.1090
   70bbb     C1 2031  12.139   5.199   9.784  0.0440 -0.3306  0.0403
   70bbb     H1 2032  12.120   5.102   9.736 -0.2542 -0.2828  0.0556
   70bbb     H2 2033  12.234   5.190   9.837  1.3568  0.3745 -2.0801
   70bbb     C2 2034  12.051   5.364   9.951  0.3162  0.1040  0.4193
   70bbb     H3 2035  12.061   5.447   9.881  1.0756  1.8440  2.4710
   70bbb     H4 2036  12.136   5.367  10.021  2.0126 -1.1674 -1.4779
   70bbb     C3 2037  12.023   5.112   9.986  0.1356 -0.4560  0.5927
   70bbb     H5 2038  11.941   5.126  10.057  0.0473 -1.6520  0.7482
   70bbb     H6 2039  12.108   5.100  10.054 -1.0820  0.6628  2.4081
   70bbb     C4 2040  11.998   4.974   9.922 -0.6388 -0.3801 -0.3410
   70bbb     H7 2041  11.972   4.908  10.005  0.7013 -1.3127 -0.6304
   70bbb     H8 2042  12.086   4.933   9.871  0.7755  1.1991  0.7720
   70bbb     C5 2043  12.150   5.314   9.677 -0.1954  0.8855 -0.4263
   70bbb     H9 2044  12.229   5.298   9.603  1.6118 -3.7285  2.0203
   70bbb    H10 2045  12.188   5.397   9.737  0.9191 -1.2347  2.0019
   70bbb     C6 2046  11.932   5.421  10.027  0.1827  0.0636  0.1908
   70bbb    H11 2047  11.900   5.339  10.092  1.1932 -0.8026 -0.3658
   70bbb    H12 2048  11.855   5.436   9.951  0.0260  0.3139  0.3974
   70bbb     C7 2049  11.889   4.984   9.807 -0.9392 -0.5536  0.1613
   70bbb    H13 2050  11.936   5.025   9.717  0.0670 -0.3246  0.7768
   70bbb    H14 2051  11.810   5.055   9.833  1.7349  2.1723  1.2642
   70bbb     C8 2052  11.961   5.558  10.097 -0.0979  0.2152 -0.7692
   70bbb    H15 2053  12.019   5.631  10.039 -1.2534  1.9571  0.1616
   70bbb    H16 2054  12.013   5.532  10.191 -2.5727 -2.1415  0.0704
   70bbb     C9 2055  12.018   5.354   9.607  0.0357 -0.5033 -0.0096
   70bbb    H17 2056  12.001   5.460   9.631  1.6591  0.0326 -1.0856
   70bbb    H18 2057  11.935   5.290   9.639  0.8459  0.0967  3.7570
   70bbb     O1 2058  11.832   4.848   9.784 -0.0981  0.2751  0.0465
   71bbb     N1 2059  10.715   4.906   9.654  0.3220  0.4405  0.8924
   71bbb     C1 2060  10.592   4.994   9.673 -0.3838 -0.2035 -0.7291
   71bbb     H1 2061  10.630   5.076   9.735  2.3612 -2.9347  1.5430
   71bbb     H2 2062  10.512   4.938   9.724  0.7070  0.2115  1.5678
   71bbb     C2 2063  10.748   4.836   9.781 -0.6371 -0.6781  0.2483
   71bbb     H3 2064  10.665   4.788   9.833  0.3569 -1.0123  1.5863
   71bbb     H4 2065  10.790   4.909   9.851  1.3188  0.7972 -2.2912
   71bbb     C3 2066  10.834   4.974   9.587  0.5566  0.0232  0.7542
   71bbb     H5 2067  10.914   5.003   9.656  0.7801 -0.0536  0.5286
   71bbb     H6 2068  10.802   5.071   9.546  1.4302 -0.2457 -0.6455
   71bbb     C4 2069  10.873   4.892   9.467 -0.5784 -0.3485 -0.7976
   71bbb     H7 2070  10.778   4.884   9.411 -0.5433  0.6614 -1.0282
   71bbb     H8 2071  10.906   4.791   9.492  1.8031  0.3313 -1.0015
   71bbb     C5 2072  10.537   5.050   9.539 -0.3752 -0.4309 -0.3653
   71bbb     H9 2073  10.617   5.113   9.499 -1.9548  0.9425 -1.4718
   71bbb    H10 2074  10.455   5.120   9.559  0.0853  0.1618 -0.5363
   71bbb     C6 2075  10.863   4.726   9.751 -0.6630 -0.1591  0.1536
   71bbb    H11 2076  10.962   4.768   9.727 -0.3129 -0.9814  0.1337
   71bbb    H12 2077  10.836   4.666   9.664  0.8674 -4.6416  2.4485
   71bbb     C7 2078  10.982   4.968   9.386  0.2599 -0.4556 -0.1746
   71bbb    H13 2079  10.977   5.078   9.385  0.9132 -0.3253  2.6773
   71bbb    H14 2080  10.982   4.928   9.284 -2.2033  0.1159 -0.4648
   71bbb     C8 2081  10.861   4.625   9.869 -0.4240  0.3749 -0.4736
   71bbb    H15 2082  10.767   4.568   9.865 -0.3385  0.0083  1.5796
   71bbb    H16 2083  10.852   4.671   9.968 -0.6433  0.9330 -0.7446
   71bbb     C9 2084  10.498   4.946   9.429  0.2033  0.4940 -0.9829
   71bbb    H17 2085  10.393   4.915   9.431  0.6076 -0.9156  0.1786
   71bbb    H18 2086  10.563   4.860   9.450  0.6623  0.4685 -2.4130
   71bbb     O1 2087  11.112   4.954   9.449 -0.2499 -0.2021  0.0265
   72bbb     N1 2088  12.120   6.840  10.168  0.3963  0.4734  0.0100
   72bbb     C1 2089  12.135   6.951  10.272  0.7061  0.0434 -0.3774
   72bbb     H1 2090  12.203   6.926  10.354  0.2181  1.8419  0.6206
   72bbb     H2 2091  12.034   6.970  10.310 -0.0424 -0.5512 -1.9975
   72bbb     C2 2092  12.004   6.854  10.076  0.2389 -0.4866  0.0474
   72bbb     H3 2093  12.025   6.775  10.002  3.2980  0.2119  0.0002
   72bbb     H4 2094  12.004   6.949  10.020 -0.5661 -1.7199 -2.1929
   72bbb     C3 2095  12.128   6.710  10.247 -0.2785 -0.0128  0.4791
   72bbb     H5 2096  12.051   6.707  10.326 -2.2742 -0.8751 -1.3943
   72bbb     H6 2097  12.224   6.706  10.300  0.2441 -0.7715 -0.4865
   72bbb     C4 2098  12.115   6.591  10.155  0.1813 -0.3467 -0.3200
   72bbb     H7 2099  12.188   6.602  10.074  1.5768 -0.2142  0.9317
   72bbb     H8 2100  12.021   6.585  10.098  0.0373  0.4823 -0.1714
   72bbb     C5 2101  12.166   7.082  10.201  0.1527  0.0511  0.2694
   72bbb     H9 2102  12.103   7.106  10.115  1.1958  0.5526 -0.3775
   72bbb    H10 2103  12.270   7.080  10.164  0.2058 -0.9944  0.4393
   72bbb     C6 2104  11.870   6.831  10.148 -0.0191 -0.1467 -0.7468
   72bbb    H11 2105  11.857   6.913  10.220  0.0762 -1.4683  0.8454
   72bbb    H12 2106  11.880   6.737  10.205  1.5776  0.1649 -0.4857
   72bbb     C7 2107  12.131   6.457  10.230 -0.0462  0.1086 -0.2273
   72bbb    H13 2108  12.226   6.464  10.285  0.9095 -0.8083 -1.6671
   72bbb    H14 2109  12.145   6.384  10.149  0.2243  0.8551 -0.8720
   72bbb     C8 2110  11.749   6.827  10.055  0.1886 -0.3850  0.5779
   72bbb    H15 2111  11.659   6.807  10.115 -0.5417 -1.9793 -0.9395
   72bbb    H16 2112  11.759   6.738   9.991  0.6816  0.4685 -0.5655
   72bbb     C9 2113  12.159   7.199  10.303 -0.0215  0.1310 -0.3605
   72bbb    H17 2114  12.220   7.179  10.391 -1.1283 -0.0361  0.3925
   72bbb    H18 2115  12.054   7.208  10.336  0.7586  0.0053  2.3569
   72bbb     O1 2116  12.017   6.430  10.309 -0.1551  0.2748  0.5528
   73bbb     N1 2117  11.257   6.939  10.835  0.6442 -0.4194  0.0068
   73bbb     C1 2118  11.120   6.955  10.887  0.5587 -0.4688  0.1135
   73bbb     H1 2119  11.080   6.857  10.918 -0.5198  0.1443  0.7021
   73bbb     H2 2120  11.063   7.007  10.809  0.4412 -0.0428  0.4838
   73bbb     C2 2121  11.277   6.911  10.691 -0.4180 -0.5130  0.3849
   73bbb     H3 2122  11.259   6.808  10.656 -0.8054 -0.8345  1.5022
   73bbb     H4 2123  11.382   6.933  10.668  0.0510 -0.8676  2.0662
   73bbb     C3 2124  11.349   6.853  10.915  0.1613  0.8321 -0.5941
   73bbb     H5 2125  11.371   6.893  11.015 -0.7511 -1.9875  0.8350
   73bbb     H6 2126  11.448   6.842  10.870  1.0446 -1.3375  1.6721
   73bbb     C4 2127  11.304   6.707  10.930  0.1197 -0.4470  0.0350
   73bbb     H7 2128  11.261   6.678  10.833 -2.2219 -0.1125  0.9027
   73bbb     H8 2129  11.221   6.712  11.002  0.6054  1.7558  0.4867
   73bbb     C5 2130  11.113   7.043  11.014 -0.3868 -0.7407 -0.1078
   73bbb     H9 2131  11.175   7.134  11.013 -1.8380  0.2781 -0.4943
   73bbb    H10 2132  11.136   6.983  11.102 -2.4515 -1.4176  0.0340
   73bbb     C6 2133  11.202   7.005  10.594  0.1187  0.2518 -1.1980
   73bbb    H11 2134  11.098   6.971  10.604  0.9294 -1.7065  3.3166
   73bbb    H12 2135  11.227   6.976  10.492 -0.3060 -2.5009 -0.6117
   73bbb     C7 2136  11.409   6.616  10.982  0.9752 -0.1054 -0.2054
   73bbb    H13 2137  11.360   6.555  11.059 -0.3981 -1.5672 -2.1468
   73bbb    H14 2138  11.463   6.680  11.054 -0.9613  1.0612  0.2774
   73bbb     C8 2139  11.202   7.155  10.624 -0.1805 -0.4907 -0.3581
   73bbb    H15 2140  11.168   7.175  10.726 -0.9904 -1.3619 -0.4514
   73bbb    H16 2141  11.132   7.209  10.559  0.8654  1.6167  0.1728
   73bbb     C9 2142  10.968   7.100  11.018 -0.3691 -0.0512  0.8359
   73bbb    H17 2143  10.902   7.023  11.060 -2.3679  0.9861 -0.2425
   73bbb    H18 2144  10.927   7.115  10.917  1.5214 -3.8476 -0.6928
   73bbb     O1 2145  11.489   6.548  10.882  0.1940  0.0844 -0.3851
   74bbb     N1 2146  10.908   6.189   7.424  0.0794 -0.1228  0.0606
   74bbb     C1 2147  10.774   6.139   7.389 -0.7876  0.1905 -0.7340
   74bbb     H1 2148  10.782   6.072   7.301  0.7639  0.0429 -0.5021
   74bbb     H2 2149  10.701   6.217   7.364 -0.0417  0.9813 -0.4964
   74bbb     C2 2150  10.919   6.292   7.538  0.1765  1.2796  0.2637
   74bbb     H3 2151  10.990   6.231   7.595 -2.3584 -1.0522  1.1627
   74bbb     H4 2152  10.840   6.241   7.594  0.6195 -1.7731 -1.6837
   74bbb     C3 2153  11.000   6.071   7.438 -0.7443  0.4132  0.3133
   74bbb     H5 2154  10.977   6.001   7.520  0.9417 -0.8540 -0.2450
   74bbb     H6 2155  11.099   6.109   7.464 -0.9814  2.0790 -1.0684
   74bbb     C4 2156  11.026   5.985   7.311  0.4118  0.5132 -0.5501
   74bbb     H7 2157  11.058   6.053   7.231  0.0913  0.4538 -0.7295
   74bbb     H8 2158  10.927   5.942   7.292 -0.4394  1.7666  0.8763
   74bbb     C5 2159  10.697   6.049   7.485  0.7371  0.5069 -0.3459
   74bbb     H9 2160  10.700   6.095   7.585 -0.4155 -0.8770  0.3819
   74bbb    H10 2161  10.741   5.948   7.490 -2.7985 -1.1549  1.3253
   74bbb     C6 2162  10.922   6.551   7.561  0.2452  0.1629  0.1487
   74bbb    H11 2163  10.841   6.610   7.515 -0.3950 -0.8487 -0.0479
   74bbb    H12 2164  10.991   6.616   7.505 -0.5698  0.6018 -0.3706
   74bbb     C7 2165  11.125   5.869   7.320 -0.7034 -0.7093 -0.0826
   74bbb    H13 2166  11.222   5.903   7.357 -0.6553 -0.6908 -0.2256
   74bbb    H14 2167  11.155   5.820   7.226 -0.6429  0.3770 -0.6432
   74bbb     C8 2168  10.933   6.652   7.685 -0.2796 -0.4991  0.5294
   74bbb    H15 2169  11.033   6.653   7.728  0.9300 -0.4510 -2.0722
   74bbb    H16 2170  10.860   6.626   7.762 -0.4764  0.0153  0.5198
   74bbb     C9 2171  10.544   6.026   7.443 -0.3013 -0.0789 -0.1452
   74bbb    H17 2172  10.507   6.111   7.384 -1.4495  1.3715  2.5325
   74bbb    H18 2173  10.475   6.031   7.528 -1.6800  2.9955 -1.2784
   74bbb     O1 2174  11.076   5.776   7.418 -0.2738  0.1750  0.3240
   75bbb     N1 2175  11.192   4.962   8.337 -0.1692 -0.2313 -0.2408
   75bbb     C1 2176  11.315   5.037   8.359 -0.0516  0.8642 -0.2485
   75bbb     H1 2177  11.333   5.074   8.461  0.7005  2.1394 -0.8185
   75bbb     H2 2178  11.326   5.124   8.293  0.3911  1.1853  0.2419
   75bbb     C2 2179  11.162   4.847   8.429  0.0415  0.0291  0.3324
   75bbb     H3 2180  11.211   4.755   8.393  0.2129 -0.3312  1.4583
   75bbb     H4 2181  11.055   4.827   8.429  0.2960 -1.4900  1.6133
   75bbb     C3 2182  11.145   4.934   8.195  0.0864 -0.3595 -0.3376
   75bbb     H5 2183  11.059   4.866   8.192  1.2484 -1.8831 -1.3491
   75bbb     H6 2184  11.229   4.890   8.139  1.3432  1.2902  0.1644
   75bbb     C4 2185  11.103   5.065   8.127  0.3194  0.1654  0.0548
   75bbb     H7 2186  11.183   5.136   8.150  1.8521 -1.7564  0.9839
   75bbb     H8 2187  11.013   5.099   8.181  1.0702 -0.4979  1.8099
   75bbb     C5 2188  11.437   4.945   8.324  0.4418 -0.0453 -0.4673
   75bbb     H9 2189  11.440   4.926   8.216 -0.8889  1.4605 -0.8021
   75bbb    H10 2190  11.418   4.848   8.373  0.9654 -0.0499 -0.2735
   75bbb     C6 2191  11.200   4.861   8.576 -0.3876  0.1782 -0.3563
   75bbb    H11 2192  11.144   4.943   8.622 -0.7547  1.5968 -3.1152
   75bbb    H12 2193  11.308   4.873   8.584 -0.4223 -0.2210  0.9445
   75bbb     C7 2194  11.078   5.053   7.976 -0.4479  0.7347  0.2937
   75bbb    H13 2195  11.006   4.971   7.961  0.2179  0.2422 -0.2658
   75bbb    H14 2196  11.173   5.024   7.930 -0.1990 -1.8832  2.2332
   75bbb     C8 2197  11.173   4.730   8.653 -0.6713 -0.3126 -0.0849
   75bbb    H15 2198  11.212   4.732   8.756 -2.0410  0.6921  0.4417
   75bbb    H16 2199  11.215   4.640   8.606 -0.8913 -0.1568 -0.5814
   75bbb     C9 2200  11.572   4.997   8.373 -0.9286 -0.7642 -0.6136
   75bbb    H17 2201  11.588   4.997   8.481  1.5642  1.1725 -0.9034
   75bbb    H18 2202  11.572   5.104   8.349  0.6112 -0.1092  1.8836
   75bbb     O1 2203  11.029   5.184   7.931  0.4792 -0.1622  0.1229
   76bbb     N1 2204  11.253   7.759   8.523  0.1462  0.4753  0.1209
   76bbb     C1 2205  11.320   7.773   8.644  0.3458 -0.2478  0.2935
   76bbb     H1 2206  11.364   7.683   8.689  1.5855  1.1530  2.0486
   76bbb     H2 2207  11.250   7.821   8.715  1.9019  3.7881 -0.6040
   76bbb     C2 2208  11.119   7.710   8.558 -0.4200  0.1927  0.4238
   76bbb     H3 2209  11.068   7.717   8.462  2.4615  1.2595 -1.1444
   76bbb     H4 2210  11.059   7.778   8.619 -3.0321 -0.1056 -1.6373
   76bbb     C3 2211  11.337   7.691   8.425 -0.0198 -0.3693  0.5440
   76bbb     H5 2212  11.374   7.596   8.466 -1.1784 -1.6368 -1.1891
   76bbb     H6 2213  11.427   7.748   8.399  0.4311 -2.2411 -2.4700
   76bbb     C4 2214  11.262   7.671   8.293 -0.3756  0.7377  0.1209
   76bbb     H7 2215  11.224   7.765   8.252  0.4628  0.1832 -2.0756
   76bbb     H8 2216  11.179   7.603   8.316 -0.4925  0.9505  0.3195
   76bbb     C5 2217  11.426   7.884   8.637 -0.1440  0.6514 -0.0467
   76bbb     H9 2218  11.381   7.976   8.596  0.7013  1.0431 -0.1147
   76bbb    H10 2219  11.503   7.843   8.570 -0.9564 -0.0715 -0.5672
   76bbb     C6 2220  11.111   7.563   8.614 -0.0907  0.0618  0.0687
   76bbb    H11 2221  11.188   7.503   8.564  0.8066  0.1405  1.2973
   76bbb    H12 2222  11.015   7.529   8.573 -0.5249 -0.0505  1.1328
   76bbb     C7 2223  11.341   7.602   8.185 -0.7201 -0.1321 -0.1334
   76bbb    H13 2224  11.426   7.667   8.160 -1.7596  1.5918  0.6152
   76bbb    H14 2225  11.281   7.610   8.094  1.1807  4.4996 -1.2994
   76bbb     C8 2226  11.097   7.547   8.767 -0.4434 -0.2259 -0.1842
   76bbb    H15 2227  11.044   7.452   8.780 -1.0573  0.1553  0.1593
   76bbb    H16 2228  11.036   7.620   8.823 -0.5803  0.3611 -1.0841
   76bbb     C9 2229  11.502   7.918   8.764 -0.3209  0.2991 -0.6048
   76bbb    H17 2230  11.549   8.017   8.760  2.4488 -0.9688 -2.0758
   76bbb    H18 2231  11.579   7.840   8.769  1.9492  2.3630 -0.9184
   76bbb     O1 2232  11.371   7.469   8.226 -0.0024  0.7847  0.2012
   77bbb     N1 2233  12.196   7.322   7.498  0.1329  0.0353  0.2476
   77bbb     C1 2234  12.187   7.437   7.592  0.2402  0.4200 -0.4997
   77bbb     H1 2235  12.234   7.393   7.681  1.9941  2.9563 -0.0626
   77bbb     H2 2236  12.084   7.471   7.611  0.2029 -0.0609  0.1947
   77bbb     C2 2237  12.337   7.285   7.468  1.3167  0.1790  0.1498
   77bbb     H3 2238  12.399   7.363   7.423  0.0027  0.8670 -0.5306
   77bbb     H4 2239  12.328   7.203   7.395  1.4167 -1.5799  2.0210
   77bbb     C3 2240  12.108   7.216   7.543 -0.9660 -0.0831  0.0988
   77bbb     H5 2241  12.128   7.191   7.648  0.7968 -1.9851 -0.6054
   77bbb     H6 2242  12.140   7.124   7.492 -0.4102 -0.1485  0.5446
   77bbb     C4 2243  11.960   7.239   7.538  0.0561 -0.0047 -0.3445
   77bbb     H7 2244  11.932   7.248   7.433 -1.9514 -1.6888 -0.0132
   77bbb     H8 2245  11.931   7.342   7.567  0.8125  1.2395 -3.6140
   77bbb     C5 2246  12.262   7.565   7.559  0.0501 -0.8090  0.4326
   77bbb     H9 2247  12.231   7.610   7.465  0.8745 -0.3354  0.3790
   77bbb    H10 2248  12.362   7.535   7.526  0.9572  0.0367  2.2732
   77bbb     C6 2249  12.413   7.223   7.592 -0.3859 -0.5923  0.0941
   77bbb    H11 2250  12.359   7.135   7.629  0.5854 -1.8226 -1.2985
   77bbb    H12 2251  12.436   7.297   7.670 -2.7006  0.3993 -0.0852
   77bbb     C7 2252  11.877   7.124   7.605  0.2167 -0.3132 -0.6404
   77bbb    H13 2253  11.927   7.026   7.596 -1.5244 -1.1554 -1.6871
   77bbb    H14 2254  11.775   7.126   7.564 -0.1428  1.8424  0.2176
   77bbb     C8 2255  12.554   7.176   7.548  0.8366 -0.5283 -0.2436
   77bbb    H15 2256  12.617   7.259   7.514  0.4043 -0.5784 -1.1830
   77bbb    H16 2257  12.539   7.103   7.468 -0.5283 -0.0242 -0.4684
   77bbb     C9 2258  12.265   7.663   7.672 -0.8596 -0.4888  0.3735
   77bbb    H17 2259  12.324   7.630   7.759  1.6431  1.5407 -0.4287
   77bbb    H18 2260  12.161   7.664   7.706 -0.2959 -1.5378  2.3373
   77bbb     O1 2261  11.869   7.161   7.744  0.0519 -0.3950 -0.0164
   78bbb     N1 2262  11.668   5.166  10.492 -0.7955  0.0365  0.5535
   78bbb     C1 2263  11.667   5.014  10.504 -0.1009  0.4719 -0.6811
   78bbb     H1 2264  11.757   4.978  10.554 -1.7109 -0.0105  2.0894
   78bbb     H2 2265  11.657   4.978  10.401 -2.7578 -0.1019 -0.3143
   78bbb     C2 2266  11.774   5.227  10.409  0.1308  0.0019 -0.1785
   78bbb     H3 2267  11.748   5.331  10.384 -2.7443  0.4478  3.6351
   78bbb     H4 2268  11.773   5.168  10.317 -0.9114 -1.5925  0.8071
   78bbb     C3 2269  11.643   5.241  10.618 -0.5014  0.2610  0.0162
   78bbb     H5 2270  11.733   5.227  10.680  1.1286  0.2090 -2.2398
   78bbb     H6 2271  11.556   5.202  10.672 -0.4994 -1.1599 -0.9744
   78bbb     C4 2272  11.632   5.397  10.602  0.0266 -0.0677 -0.0991
   78bbb     H7 2273  11.608   5.412  10.496  2.3868  1.1414 -0.5261
   78bbb     H8 2274  11.728   5.449  10.613 -0.1856  0.0501  1.3922
   78bbb     C5 2275  11.537   4.965  10.582  0.0616 -0.6243  0.1320
   78bbb     H9 2276  11.450   5.028  10.563 -0.0606  0.3365  3.3258
   78bbb    H10 2277  11.549   4.993  10.688 -1.7780  0.6201  0.0427
   78bbb     C6 2278  11.915   5.222  10.477  0.0391 -0.2684 -0.2587
   78bbb    H11 2279  11.937   5.122  10.517 -0.2488  0.1026  0.8608
   78bbb    H12 2280  11.915   5.295  10.559 -2.3457  0.5358 -0.8697
   78bbb     C7 2281  11.536   5.459  10.708 -0.3757 -0.1243 -0.2324
   78bbb    H13 2282  11.547   5.416  10.808 -0.8375 -0.7499 -0.4407
   78bbb    H14 2283  11.433   5.441  10.676 -1.1815 -0.9354  2.5655
   78bbb     C8 2284  12.017   5.282  10.376 -0.2194 -0.0434 -0.2199
   78bbb    H15 2285  11.973   5.376  10.344  0.4979  1.0535  1.8228
   78bbb    H16 2286  12.035   5.208  10.297 -3.2427 -1.3579  0.1992
   78bbb     C9 2287  11.509   4.814  10.580 -0.2313 -0.3626 -0.9317
   78bbb    H17 2288  11.551   4.773  10.672 -2.3817 -1.1282 -0.2252
   78bbb    H18 2289  11.543   4.754  10.495 -0.8408 -4.0062  1.1976
   78bbb     O1 2290  11.566   5.605  10.707  0.0194  0.3742 -0.3200
   79bbb     N1 2291  11.062   6.646  11.341  0.4759 -0.7022 -0.5723
   79bbb     C1 2292  10.942   6.704  11.270 -0.0164 -0.5229 -0.3514
   79bbb     H1 2293  10.847   6.652  11.287 -0.9495  1.2380  0.0232
   79bbb     H2 2294  10.961   6.710  11.163 -1.1642 -0.4622 -0.5636
   79bbb     C2 2295  11.183   6.725  11.325 -0.1175 -0.1075 -0.0445
   79bbb     H3 2296  11.162   6.824  11.367 -0.6863 -0.2565  0.0325
   79bbb     H4 2297  11.203   6.727  11.217  0.1604  1.3654  0.0162
   79bbb     C3 2298  11.082   6.502  11.299  0.6557 -0.1573 -0.1556
   79bbb     H5 2299  11.164   6.470  11.365 -0.1221  1.5372  1.7438
   79bbb     H6 2300  11.105   6.496  11.192  0.7850  0.1513 -0.1472
   79bbb     C4 2301  10.967   6.408  11.333 -0.0052  0.4862 -0.1711
   79bbb     H7 2302  10.883   6.427  11.266  0.7539  0.5656 -1.1272
   79bbb     H8 2303  10.924   6.430  11.432 -2.3270  1.2953 -1.2934
   79bbb     C5 2304  10.911   6.855  11.301  0.4851  0.7536  0.3851
   79bbb     H9 2305  10.856   6.901  11.218 -0.9503 -0.9848  0.2966
   79bbb    H10 2306  11.002   6.913  11.284  1.0230  0.1047  0.9615
   79bbb     C6 2307  11.311   6.661  11.392 -0.4965 -0.3749  0.2629
   79bbb    H11 2308  11.354   6.583  11.328  0.7621  0.1168  0.4728
   79bbb    H12 2309  11.284   6.627  11.492  1.9539  0.1220  1.1773
   79bbb     C7 2310  10.995   6.251  11.328  0.4390 -0.2306 -0.5734
   79bbb    H13 2311  10.896   6.209  11.309 -0.4786  0.8289  1.4951
   79bbb    H14 2312  11.036   6.213  11.422 -1.6369 -0.7482  0.1779
   79bbb     C8 2313  11.422   6.769  11.410  0.2247  0.5541  0.1862
   79bbb    H15 2314  11.505   6.744  11.477  0.7948 -1.0677 -1.0666
   79bbb    H16 2315  11.367   6.853  11.454  1.2460  0.3304  2.0029
   79bbb     C9 2316  10.870   6.890  11.448  0.2923 -0.0253 -0.2755
   79bbb    H17 2317  10.957   6.861  11.508 -0.2891 -2.4694 -0.4995
   79bbb    H18 2318  10.792   6.825  11.491  1.7497 -2.7983 -1.5557
   79bbb     O1 2319  11.086   6.213  11.222 -0.2563  0.1182 -0.3853
   80bbb     N1 2320  11.978   6.564   9.722 -0.4183 -0.2535  0.0614
   80bbb     C1 2321  12.121   6.562   9.770  0.6148  0.0963 -0.2037
   80bbb     H1 2322  12.126   6.621   9.863  0.0305  0.5978 -0.4833
   80bbb     H2 2323  12.182   6.607   9.691  0.3605  1.0601  0.1357
   80bbb     C2 2324  11.923   6.705   9.712  0.5244  0.3082 -0.2764
   80bbb     H3 2325  11.916   6.757   9.808 -0.9373  1.2979 -0.8776
   80bbb     H4 2326  11.822   6.704   9.669  0.4510 -0.1276 -0.1063
   80bbb     C3 2327  11.881   6.467   9.786 -0.0085  0.5193  0.5068
   80bbb     H5 2328  11.850   6.500   9.886 -0.6907 -0.3259  0.5877
   80bbb     H6 2329  11.931   6.370   9.800  0.0598  0.3736 -0.6772
   80bbb     C4 2330  11.749   6.425   9.717  0.5281 -0.2532  0.0080
   80bbb     H7 2331  11.771   6.370   9.624 -1.7245  0.7955 -1.2197
   80bbb     H8 2332  11.700   6.518   9.688  1.6923  0.3117 -0.2113
   80bbb     C5 2333  12.189   6.428   9.812  0.2096  0.4791 -0.0344
   80bbb     H9 2334  12.175   6.356   9.730 -1.0307  0.7834 -0.1106
   80bbb    H10 2335  12.149   6.388   9.905  0.8683  0.4283  0.2349
   80bbb     C6 2336  12.006   6.793   9.619 -0.1807 -0.3265  0.5957
   80bbb    H11 2337  12.033   6.745   9.524  0.6096  0.0911  0.5972
   80bbb    H12 2338  12.109   6.808   9.654 -0.2353 -0.8589  0.9965
   80bbb     C7 2339  11.653   6.331   9.809 -0.4639  0.5166  0.3621
   80bbb    H13 2340  11.714   6.250   9.850 -1.2050  0.3162  1.0977
   80bbb    H14 2341  11.572   6.293   9.745  0.0813 -1.0971  0.6021
   80bbb     C8 2342  11.951   6.935   9.593 -0.2316  0.1537  0.1066
   80bbb    H15 2343  11.909   6.978   9.684 -3.0767 -1.8471 -0.1284
   80bbb    H16 2344  11.867   6.928   9.523 -0.7919  0.7230  0.7170
   80bbb     C9 2345  12.337   6.448   9.833  0.3856 -0.2652  0.3244
   80bbb    H17 2346  12.352   6.547   9.877 -0.7017 -0.7617  1.8830
   80bbb    H18 2347  12.384   6.455   9.734  0.3698  2.5309  0.4316
   80bbb     O1 2348  11.588   6.411   9.905  0.0374 -0.0990 -0.2101
   81bbb     N1 2349  10.943   7.166  10.196 -0.1678  0.0138  0.2419
   81bbb     C1 2350  10.975   7.285  10.279  0.0397  1.2172 -0.4947
   81bbb     H1 2351  10.982   7.379  10.222  0.8416  0.6676 -1.3512
   81bbb     H2 2352  11.077   7.286  10.319 -0.0674  0.8723 -0.2133
   81bbb     C2 2353  11.019   7.172  10.071 -0.0371 -0.4692 -0.3350
   81bbb     H3 2354  11.093   7.091  10.075 -1.9060 -2.1986  3.1842
   81bbb     H4 2355  11.074   7.266  10.057 -1.8547  0.7250  0.3514
   81bbb     C3 2356  10.925   7.034  10.265 -0.0961  0.4654 -0.4363
   81bbb     H5 2357  10.852   7.044  10.347  1.5275 -0.1037  1.1564
   81bbb     H6 2358  11.022   6.997  10.301 -1.0979 -2.3519 -0.3558
   81bbb     C4 2359  10.863   6.915  10.190 -0.9234 -0.0398  0.5723
   81bbb     H7 2360  10.805   6.964  10.110  0.4346  0.6270 -0.0327
   81bbb     H8 2361  10.788   6.864  10.252 -2.7933 -2.2757 -3.1177
   81bbb     C5 2362  10.879   7.296  10.399 -0.5967 -0.0970 -0.0404
   81bbb     H9 2363  10.908   7.232  10.482 -1.6282  2.3299  2.3397
   81bbb    H10 2364  10.780   7.262  10.368 -1.7390  0.4138  2.7835
   81bbb     C6 2365  10.945   7.151   9.935  0.2652 -0.5897  0.4856
   81bbb    H11 2366  10.926   7.253   9.902  0.5441 -0.5264  0.5173
   81bbb    H12 2367  10.845   7.111   9.954 -0.3973  1.1942  0.9130
   81bbb     C7 2368  10.962   6.813  10.130  0.2500 -0.2098 -0.7004
   81bbb    H13 2369  10.992   6.736  10.202 -1.1342  1.5929  1.9518
   81bbb    H14 2370  11.056   6.859  10.098  0.7033  0.8525  1.9537
   81bbb     C8 2371  11.015   7.064   9.833 -0.0414 -0.4345 -0.2362
   81bbb    H15 2372  11.016   6.961   9.871 -1.9074  0.0885  1.4126
   81bbb    H16 2373  11.121   7.093   9.832 -0.0643  0.0091  2.3961
   81bbb     C9 2374  10.867   7.441  10.447  0.2269 -0.1109  0.6840
   81bbb    H17 2375  10.859   7.503  10.357  0.0971 -1.1178 -0.0262
   81bbb    H18 2376  10.954   7.475  10.504 -0.7851  0.0886  2.1621
   81bbb     O1 2377  10.897   6.748  10.025  0.3684  0.0839 -0.5413
   82bbb     N1 2378  10.397   4.028   8.873 -0.2949 -0.6425  0.2650
   82bbb     C1 2379  10.353   4.058   9.013 -0.8635  0.2738  0.4313
   82bbb     H1 2380  10.251   4.020   9.025 -0.7492 -0.0097  0.5035
   82bbb     H2 2381  10.363   4.166   9.029  2.1126  0.2604 -0.6312
   82bbb     C2 2382  10.303   4.079   8.770 -0.2429 -0.7806  0.3914
   82bbb     H3 2383  10.346   4.073   8.669 -1.8954  1.1160 -0.4976
   82bbb     H4 2384  10.290   4.188   8.776  2.2802 -0.3743 -0.2543
   82bbb     C3 2385  10.538   4.051   8.842  0.2721  0.4914 -0.0945
   82bbb     H5 2386  10.593   4.022   8.932 -0.2979  0.0627  0.1155
   82bbb     H6 2387  10.541   4.160   8.826 -1.1390  0.5997  0.1720
   82bbb     C4 2388  10.599   3.962   8.735 -0.6475 -0.0175 -0.4737
   82bbb     H7 2389  10.554   3.982   8.637 -1.2117 -1.7300 -0.6081
   82bbb     H8 2390  10.579   3.857   8.763  0.4453 -0.9826 -2.9819
   82bbb     C5 2391  10.436   3.995   9.126 -0.0076 -0.1968  0.1449
   82bbb     H9 2392  10.376   4.016   9.216 -0.3669  3.2382 -0.7830
   82bbb    H10 2393  10.529   4.049   9.145 -0.5522  0.4250  1.1440
   82bbb     C6 2394  10.162   4.011   8.761  0.2003  0.1246 -0.3150
   82bbb    H11 2395  10.131   4.034   8.658 -1.6969 -1.3463 -0.1225
   82bbb    H12 2396  10.093   4.060   8.832  0.9823  0.7602  0.0238
   82bbb     C7 2397  10.746   3.971   8.712 -0.1632 -0.6278  0.3792
   82bbb    H13 2398  10.780   4.070   8.681 -4.0077  0.8645  0.3138
   82bbb    H14 2399  10.769   3.912   8.622  0.3401  1.1046 -0.6690
   82bbb     C8 2400  10.172   3.857   8.765  0.5884 -0.5667 -0.2269
   82bbb    H15 2401  10.212   3.832   8.864  0.2094  1.6802  0.5491
   82bbb    H16 2402  10.256   3.825   8.702  0.5519 -0.4748 -0.3206
   82bbb     C9 2403  10.463   3.838   9.109 -0.4275  0.2438 -0.2365
   82bbb    H17 2404  10.535   3.823   9.028 -0.1443  0.8763 -0.1057
   82bbb    H18 2405  10.367   3.797   9.073 -0.4829  0.7562 -0.6687
   82bbb     O1 2406  10.824   3.924   8.825  0.1174 -0.0651  0.1831
   83bbb     N1 2407  10.731   3.109   9.042  0.4292  0.1041  0.6624
   83bbb     C1 2408  10.750   3.181   9.169  0.4330 -0.0400 -0.7055
   83bbb     H1 2409  10.833   3.133   9.223  0.3689  0.7062  0.0598
   83bbb     H2 2410  10.660   3.160   9.227  0.1514  2.2047 -0.2707
   83bbb     C2 2411  10.625   3.148   8.946  0.1765 -0.7593 -0.0774
   83bbb     H3 2412  10.625   3.074   8.865 -0.2537 -0.2648 -0.5384
   83bbb     H4 2413  10.654   3.241   8.895 -1.2961  0.0917  0.5796
   83bbb     C3 2414  10.858   3.076   8.970  0.2639  0.2743  0.0542
   83bbb     H5 2415  10.837   2.987   8.911  0.8853  0.2914 -0.1991
   83bbb     H6 2416  10.938   3.041   9.035  0.6375 -1.1566 -1.1304
   83bbb     C4 2417  10.920   3.201   8.895  0.5020  0.0403  0.1720
   83bbb     H7 2418  10.916   3.286   8.964 -0.7020 -0.0058  0.1945
   83bbb     H8 2419  10.860   3.227   8.807  2.7510  0.9338 -1.1547
   83bbb     C5 2420  10.760   3.337   9.153  0.2731 -0.3051 -0.2884
   83bbb     H9 2421  10.704   3.383   9.071  2.3035 -1.2501 -2.3265
   83bbb    H10 2422  10.863   3.373   9.142  0.2357  0.5309  1.6863
   83bbb     C6 2423  10.489   3.168   9.018 -0.0565  0.3236 -0.5514
   83bbb    H11 2424  10.417   3.187   8.938 -0.0974  0.8710 -0.3873
   83bbb    H12 2425  10.488   3.253   9.088 -0.5685  0.8635 -1.2093
   83bbb     C7 2426  11.069   3.184   8.849  0.4554  0.3028  0.0567
   83bbb    H13 2427  11.066   3.118   8.761 -0.9288  0.5514 -0.1113
   83bbb    H14 2428  11.131   3.135   8.925  0.5393 -1.1856 -0.9233
   83bbb     C8 2429  10.445   3.036   9.093  0.0120  0.1550  0.3734
   83bbb    H15 2430  10.532   3.000   9.148  0.1118  0.0413  0.1413
   83bbb    H16 2431  10.423   2.951   9.027  1.9899 -1.3060  1.5169
   83bbb     C9 2432  10.717   3.405   9.295  0.5002  0.1349  0.3823
   83bbb    H17 2433  10.753   3.509   9.299 -2.5399  1.2805  0.3276
   83bbb    H18 2434  10.778   3.357   9.372 -0.6516 -2.9480 -0.4786
   83bbb     O1 2435  11.116   3.313   8.804 -0.4601 -0.8460  0.2336
   84bbb     N1 2436  11.486   5.430   8.051  0.0274 -0.3803  0.0033
   84bbb     C1 2437  11.482   5.290   8.025  0.1574  0.9413 -0.4086
   84bbb     H1 2438  11.404   5.275   7.950 -0.7098 -0.5741  0.7572
   84bbb     H2 2439  11.453   5.230   8.112  2.4659 -0.1749 -0.3359
   84bbb     C2 2440  11.497   5.514   7.922  0.1019  0.1907  0.1821
   84bbb     H3 2441  11.435   5.464   7.847  1.3516  0.7401 -1.2621
   84bbb     H4 2442  11.595   5.497   7.875 -0.3001  0.1530 -0.6670
   84bbb     C3 2443  11.570   5.479   8.165 -1.4633  0.7610 -0.3651
   84bbb     H5 2444  11.560   5.586   8.183 -0.6458  0.8216 -0.1988
   84bbb     H6 2445  11.675   5.462   8.139 -0.9994 -0.4132  1.9461
   84bbb     C4 2446  11.552   5.418   8.305 -0.1888 -0.6930  0.2849
   84bbb     H7 2447  11.619   5.470   8.374  0.3582  1.8058 -1.9762
   84bbb     H8 2448  11.570   5.311   8.285 -0.3739 -0.2970 -2.3444
   84bbb     C5 2449  11.621   5.228   7.976  0.3335  0.0792 -0.6746
   84bbb     H9 2450  11.694   5.256   8.053 -1.2728  1.4217  0.4314
   84bbb    H10 2451  11.650   5.264   7.876 -0.0663  0.6947 -0.5754
   84bbb     C6 2452  11.466   5.663   7.928  0.8325 -0.1689  0.4268
   84bbb    H11 2453  11.515   5.717   7.847  0.8695 -0.3530  0.3264
   84bbb    H12 2454  11.502   5.720   8.015 -0.1318 -0.9181  1.3542
   84bbb     C7 2455  11.405   5.429   8.353  0.2129 -0.0137 -0.6157
   84bbb    H13 2456  11.331   5.379   8.290 -1.5622 -0.4617  1.6663
   84bbb    H14 2457  11.367   5.531   8.364 -0.2023 -0.0747 -1.4654
   84bbb     C8 2458  11.318   5.692   7.920  0.2767  0.0704 -0.1226
   84bbb    H15 2459  11.262   5.660   8.008  0.1635  0.7455  0.0602
   84bbb    H16 2460  11.278   5.642   7.831  1.1693 -0.8007 -0.0561
   84bbb     C9 2461  11.618   5.074   7.986  0.1416 -0.5708  0.6815
   84bbb    H17 2462  11.598   5.043   8.089 -1.2977 -0.8360  0.3373
   84bbb    H18 2463  11.720   5.035   7.977  0.6664  0.8355  0.2429
   84bbb     O1 2464  11.397   5.372   8.488  0.0946  0.4642  0.7370
   85bbb     N1 2465  11.749   5.169   8.832 -0.2288 -0.4760  0.2215
   85bbb     C1 2466  11.727   5.023   8.835 -0.2702  0.2935 -0.4573
   85bbb     H1 2467  11.772   4.996   8.931 -2.1851  1.2864  0.7767
   85bbb     H2 2468  11.793   4.984   8.756  0.4672 -2.3084  1.3378
   85bbb     C2 2469  11.729   5.227   8.694  0.3867 -0.0323 -0.2989
   85bbb     H3 2470  11.711   5.335   8.688 -0.6250 -0.1075  0.9837
   85bbb     H4 2471  11.633   5.180   8.667  0.2156  1.2627 -2.1104
   85bbb     C3 2472  11.656   5.238   8.925 -0.8436  0.8362  0.2363
   85bbb     H5 2473  11.650   5.190   9.024  0.6370 -0.9971 -0.4885
   85bbb     H6 2474  11.556   5.259   8.888 -1.4769  0.1104  1.4451
   85bbb     C4 2475  11.716   5.381   8.966  0.3521  0.2769 -0.5064
   85bbb     H7 2476  11.716   5.450   8.881  0.0950  1.7395  0.6323
   85bbb     H8 2477  11.816   5.366   9.007 -0.2151  1.0035  1.2622
   85bbb     C5 2478  11.576   4.978   8.823  0.2686 -0.4202 -0.0972
   85bbb     H9 2479  11.527   5.046   8.753  2.8840  0.9833 -0.6754
   85bbb    H10 2480  11.522   4.996   8.917 -0.4952 -0.8603 -0.4430
   85bbb     C6 2481  11.844   5.196   8.589 -0.1011 -0.0667  0.2677
   85bbb    H11 2482  11.815   5.225   8.488 -0.6560  0.3518  0.5414
   85bbb    H12 2483  11.870   5.089   8.590 -0.3769 -0.1318  0.3374
   85bbb     C7 2484  11.635   5.461   9.072  0.1767 -0.1345  0.2421
   85bbb    H13 2485  11.684   5.552   9.109 -1.3145  0.7182  0.2220
   85bbb    H14 2486  11.619   5.387   9.151  2.8646 -0.0880  0.9101
   85bbb     C8 2487  11.980   5.264   8.640  0.4844 -0.0852 -0.2352
   85bbb    H15 2488  12.058   5.191   8.612  0.0645 -1.0008  0.9239
   85bbb    H16 2489  11.993   5.273   8.748 -1.6638 -1.6710  0.2120
   85bbb     C9 2490  11.569   4.832   8.778  0.6527  0.4401  0.7252
   85bbb    H17 2491  11.466   4.800   8.762  0.5853  1.7789 -2.0839
   85bbb    H18 2492  11.624   4.770   8.850 -0.5616  1.3993  2.5520
   85bbb     O1 2493  11.517   5.506   8.995  0.5139  0.2433  0.1843
   86bbb     N1 2494   7.966   5.248  10.475 -0.6122 -0.6814  0.1306
   86bbb     C1 2495   7.913   5.117  10.504 -0.3593  0.2837  0.2525
   86bbb     H1 2496   7.932   5.044  10.425  0.1717  1.1669 -0.4459
   86bbb     H2 2497   7.804   5.114  10.516 -0.2666 -0.8785  1.0137
   86bbb     C2 2498   7.928   5.371  10.560 -0.2935  0.3147  0.4396
   86bbb     H3 2499   7.964   5.461  10.507  0.2458 -1.0424 -1.6332
   86bbb     H4 2500   7.985   5.365  10.653  1.5757  0.5557 -0.6549
   86bbb     C3 2501   8.107   5.245  10.436  0.1210  0.2481 -0.0138
   86bbb     H5 2502   8.129   5.156  10.376  0.6879  1.5173 -1.7919
   86bbb     H6 2503   8.170   5.238  10.525  2.0404  0.4714 -1.2827
   86bbb     C4 2504   8.158   5.370  10.358 -1.2622  0.1020  0.4683
   86bbb     H7 2505   8.157   5.455  10.427  0.8333 -0.3114  1.0771
   86bbb     H8 2506   8.094   5.388  10.270  1.7414  1.4692 -1.6163
   86bbb     C5 2507   7.956   5.060  10.640 -0.3151  0.3514  0.5623
   86bbb     H9 2508   7.930   5.131  10.719  0.9460  0.6481  0.7388
   86bbb    H10 2509   8.066   5.057  10.645 -0.3075  0.2855  0.3504
   86bbb     C6 2510   7.774   5.391  10.587  0.3862 -0.2653  0.5081
   86bbb    H11 2511   7.754   5.480  10.648 -2.2441  0.0775 -0.7063
   86bbb    H12 2512   7.736   5.316  10.657 -0.3373  0.3800  0.8309
   86bbb     C7 2513   8.307   5.340  10.318  0.5465 -0.5702 -0.4336
   86bbb    H13 2514   8.339   5.425  10.257 -3.1086  0.3616 -1.2898
   86bbb    H14 2515   8.320   5.245  10.265 -0.5242 -0.7128 -0.4524
   86bbb     C8 2516   7.688   5.392  10.457  0.2800  0.7328  0.3505
   86bbb    H15 2517   7.672   5.291  10.418 -0.9303  0.4594  1.4891
   86bbb    H16 2518   7.733   5.450  10.376 -0.9694  1.1262 -0.0780
   86bbb     C9 2519   7.895   4.914  10.657 -0.3943  0.1208  0.4982
   86bbb    H17 2520   7.943   4.852  10.580  2.5199  0.9419  1.5342
   86bbb    H18 2521   7.790   4.915  10.626 -0.8583 -0.9606  1.9600
   86bbb     O1 2522   8.388   5.331  10.442  0.2012 -0.4214  0.2093
   87bbb     N1 2523   9.323   5.789   9.801 -0.5877 -0.1803  0.2545
   87bbb     C1 2524   9.448   5.823   9.741  0.5509 -0.1548 -0.2636
   87bbb     H1 2525   9.504   5.888   9.810  1.0722 -0.7818 -0.0868
   87bbb     H2 2526   9.429   5.876   9.647  1.4598  0.8327  0.0959
   87bbb     C2 2527   9.251   5.915   9.847  1.2965 -0.2148  0.3856
   87bbb     H3 2528   9.305   5.966   9.928  2.0657  0.0694 -0.2909
   87bbb     H4 2529   9.158   5.887   9.896  0.0408  0.7703 -1.2958
   87bbb     C3 2530   9.333   5.681   9.899  0.2975 -0.4452 -0.1835
   87bbb     H5 2531   9.413   5.700   9.971 -1.1314  1.1493  1.0720
   87bbb     H6 2532   9.358   5.585   9.852  1.8561  0.6028 -1.6239
   87bbb     C4 2533   9.217   5.671   9.986 -0.5437 -1.1897 -0.0632
   87bbb     H7 2534   9.125   5.677   9.927 -0.9261 -0.7000  0.5633
   87bbb     H8 2535   9.219   5.764  10.044 -2.5146  0.0071 -1.7662
   87bbb     C5 2536   9.535   5.701   9.704  0.1855  0.4679  0.0907
   87bbb     H9 2537   9.564   5.649   9.797  3.2152  1.3279 -0.2715
   87bbb    H10 2538   9.625   5.750   9.667  0.2488  1.4975  1.4938
   87bbb     C6 2539   9.216   6.022   9.736 -0.3239  0.7218  0.1084
   87bbb    H11 2540   9.119   6.061   9.770 -0.8915 -0.3913 -0.1872
   87bbb    H12 2541   9.190   5.975   9.640 -0.1571 -2.1268  1.3436
   87bbb     C7 2542   9.209   5.549  10.077 -1.0481  0.7420 -0.1345
   87bbb    H13 2543   9.308   5.536  10.122 -0.0987  1.0904 -2.0018
   87bbb    H14 2544   9.192   5.459  10.016 -1.5342  0.9052 -0.2487
   87bbb     C8 2545   9.320   6.138   9.733 -0.3168  0.1642 -0.1387
   87bbb    H15 2546   9.417   6.096   9.704 -0.0191 -0.1319  1.2102
   87bbb    H16 2547   9.342   6.180   9.832  2.3348  1.5074 -1.1849
   87bbb     C9 2548   9.461   5.606   9.604  0.5360 -0.3884 -0.2017
   87bbb    H17 2549   9.447   5.651   9.505 -2.6834 -2.7099 -0.9718
   87bbb    H18 2550   9.361   5.597   9.647 -0.0159  3.3090 -0.3923
   87bbb     O1 2551   9.108   5.563  10.177  0.0633  0.2521  0.2327
   88bbb     N1 2552   8.839   5.775  11.511  0.2329  0.1019 -0.2576
   88bbb     C1 2553   8.720   5.813  11.586  0.0335  0.1489 -0.3177
   88bbb     H1 2554   8.626   5.781  11.541 -0.5732 -0.0318  1.0395
   88bbb     H2 2555   8.707   5.922  11.587 -1.9536 -0.0433 -1.1047
   88bbb     C2 2556   8.973   5.830  11.551  0.2329 -0.9818  0.7461
   88bbb     H3 2557   9.047   5.811  11.473  1.0206  2.9856  0.3228
   88bbb     H4 2558   9.002   5.781  11.645 -0.2894 -0.1472  1.3686
   88bbb     C3 2559   8.842   5.631  11.477  0.1596 -0.0668 -0.3101
   88bbb     H5 2560   8.820   5.579  11.571  0.0979  1.8172  0.7677
   88bbb     H6 2561   8.942   5.610  11.437 -1.3742  0.0559 -4.8084
   88bbb     C4 2562   8.735   5.583  11.377 -0.3162  0.4597  0.6781
   88bbb     H7 2563   8.732   5.657  11.296 -1.4665  0.4597  0.7138
   88bbb     H8 2564   8.635   5.596  11.420 -0.5546  1.2602 -0.0856
   88bbb     C5 2565   8.719   5.758  11.732  0.3003 -0.0375 -0.1051
   88bbb     H9 2566   8.806   5.788  11.792  0.2938 -1.6927  0.8060
   88bbb    H10 2567   8.709   5.649  11.736  1.1193 -0.0898  0.9254
   88bbb     C6 2568   8.986   5.987  11.582 -0.5171  0.1787  0.2411
   88bbb    H11 2569   8.930   6.022  11.670 -2.4185 -0.2033 -0.7622
   88bbb    H12 2570   8.939   6.044  11.502  0.3593  0.1918 -0.2755
   88bbb     C7 2571   8.757   5.438  11.336  0.6849 -0.3669  0.3404
   88bbb    H13 2572   8.687   5.401  11.260  1.0492  0.8895 -0.6350
   88bbb    H14 2573   8.742   5.373  11.424 -4.0905 -0.1976 -0.1171
   88bbb     C8 2574   9.137   6.032  11.594  0.0578  0.0393 -0.3246
   88bbb    H15 2575   9.179   6.013  11.495 -0.1081  0.5514 -0.4914
   88bbb    H16 2576   9.198   5.970  11.661 -1.1627 -1.9762 -1.0040
   88bbb     C9 2577   8.593   5.809  11.814 -0.9574  0.2483  0.1849
   88bbb    H17 2578   8.504   5.782  11.756 -0.2342 -0.3649 -0.6704
   88bbb    H18 2579   8.589   5.919  11.809 -3.3028  0.2183  0.3354
   88bbb     O1 2580   8.889   5.412  11.281  0.3174 -0.2832 -0.3030
   89bbb     N1 2581   9.815   5.237  11.539 -0.3131 -0.2371 -0.6913
   89bbb     C1 2582   9.935   5.297  11.475 -0.9685 -0.5127  0.0389
   89bbb     H1 2583  10.020   5.291  11.544 -0.8584 -1.8266 -0.1742
   89bbb     H2 2584   9.926   5.404  11.456  2.4608  0.0940  1.1084
   89bbb     C2 2585   9.832   5.260  11.685  0.0776 -0.8040 -0.1533
   89bbb     H3 2586   9.935   5.234  11.713  0.0990 -0.6380 -0.0775
   89bbb     H4 2587   9.769   5.193  11.744  3.2057 -1.6064  2.6242
   89bbb     C3 2588   9.678   5.265  11.480  1.0668  0.6953 -0.0871
   89bbb     H5 2589   9.670   5.210  11.385 -2.0287  0.2308  0.3381
   89bbb     H6 2590   9.673   5.372  11.458 -4.4814  0.7919  0.2995
   89bbb     C4 2591   9.563   5.225  11.572  1.0654 -0.4886  0.0923
   89bbb     H7 2592   9.564   5.293  11.658 -1.9543 -1.7190  1.2141
   89bbb     H8 2593   9.574   5.121  11.604  0.6163 -0.5500  0.0503
   89bbb     C5 2594   9.965   5.227  11.338  0.1297 -0.1952 -0.3787
   89bbb     H9 2595   9.889   5.251  11.262  0.5787 -1.1176 -1.1459
   89bbb    H10 2596   9.962   5.118  11.350 -1.8771 -0.1917 -0.3794
   89bbb     C6 2597   9.807   5.407  11.723 -0.3834 -0.5974 -0.1119
   89bbb    H11 2598   9.705   5.435  11.693 -0.3242 -2.4396 -2.3023
   89bbb    H12 2599   9.877   5.478  11.678  0.3826 -0.5614  1.0907
   89bbb     C7 2600   9.423   5.239  11.514 -0.3361  0.1431  0.5271
   89bbb    H13 2601   9.402   5.346  11.498 -0.3677  0.2105  0.9997
   89bbb    H14 2602   9.348   5.196  11.581 -0.1770 -0.0583  0.5796
   89bbb     C8 2603   9.813   5.416  11.879  0.5233  0.5216 -0.2949
   89bbb    H15 2604   9.911   5.379  11.914  0.5344  0.1531 -0.7137
   89bbb    H16 2605   9.740   5.348  11.925 -0.7620  2.8095  1.2373
   89bbb     C9 2606  10.089   5.267  11.267 -0.3815 -0.2783  0.2804
   89bbb    H17 2607  10.114   5.188  11.196  0.6909  0.2240  0.0743
   89bbb    H18 2608  10.177   5.264  11.333  1.2431 -1.7721 -1.8349
   89bbb     O1 2609   9.421   5.180  11.386 -0.5324 -0.3427  0.1336
   90bbb     N1 2610   9.973   4.012   9.779  0.6615  0.3318 -0.0440
   90bbb     C1 2611   9.955   4.152   9.812 -0.1916 -0.2771  0.8946
   90bbb     H1 2612  10.034   4.182   9.882 -1.1750  1.5288  1.2928
   90bbb     H2 2613   9.857   4.166   9.861 -0.4279  0.9782  0.0988
   90bbb     C2 2614  10.110   3.979   9.736  0.2102 -0.4388  0.0884
   90bbb     H3 2615  10.172   3.984   9.827  0.1525 -0.3428  0.1227
   90bbb     H4 2616  10.150   4.052   9.664 -1.9478  0.6644 -0.0771
   90bbb     C3 2617   9.920   3.917   9.877 -0.0327 -0.3043  0.4317
   90bbb     H5 2618   9.976   3.917   9.971  0.1785 -1.3668  0.3184
   90bbb     H6 2619   9.934   3.819   9.830  1.6556  0.8166 -1.5716
   90bbb     C4 2620   9.766   3.925   9.902  0.6502 -0.3250  0.0620
   90bbb     H7 2621   9.742   4.010   9.966  0.5096  0.3925 -0.9141
   90bbb     H8 2622   9.728   3.837   9.955  1.2774 -0.2774  0.6048
   90bbb     C5 2623   9.974   4.252   9.696  0.2678 -0.1402  0.4712
   90bbb     H9 2624  10.082   4.260   9.681  0.0886  2.0124  0.1283
   90bbb    H10 2625   9.943   4.353   9.723  0.0355  0.1197 -0.7100
   90bbb     C6 2626  10.121   3.835   9.675 -1.1692 -0.2412  0.6136
   90bbb    H11 2627  10.111   3.755   9.750  3.3914 -0.5225  1.2099
   90bbb    H12 2628  10.225   3.809   9.653 -1.9969 -3.1015 -0.3142
   90bbb     C7 2629   9.671   3.941   9.780 -0.4951 -0.7126  0.3187
   90bbb    H13 2630   9.663   3.852   9.717 -1.2639 -1.3345  1.2588
   90bbb    H14 2631   9.711   4.029   9.728 -0.3008 -2.2636 -2.3389
   90bbb     C8 2632  10.023   3.795   9.557  0.2837 -0.2057  0.0321
   90bbb    H15 2633  10.035   3.869   9.477  1.3100  1.1812  1.3993
   90bbb    H16 2634   9.920   3.812   9.591  0.0911  1.9494 -1.4108
   90bbb     C9 2635   9.914   4.214   9.559 -0.3940  0.4454  0.4731
   90bbb    H17 2636   9.920   4.107   9.536  1.5040  0.4493  0.8043
   90bbb    H18 2637   9.975   4.269   9.487  0.4085 -0.3100  0.5622
   90bbb     O1 2638   9.541   3.972   9.836 -0.0033 -0.2921 -0.1279
   91bbb     N1 2639   8.162   4.157   9.974  0.1945  0.0258 -0.6676
   91bbb     C1 2640   8.039   4.225   9.914  0.3191  0.0074 -0.2320
   91bbb     H1 2641   7.952   4.185   9.969 -0.1108 -1.3784 -1.8358
   91bbb     H2 2642   8.030   4.200   9.808  1.3734  1.9499 -0.8309
   91bbb     C2 2643   8.134   4.020  10.027  0.3921 -0.0880  0.9007
   91bbb     H3 2644   8.068   4.018  10.114 -0.4490 -2.1349  0.2882
   91bbb     H4 2645   8.225   3.970  10.063 -0.6227 -2.2667  0.5764
   91bbb     C3 2646   8.284   4.165   9.882  0.3130 -0.1986  0.0983
   91bbb     H5 2647   8.297   4.269   9.853 -1.1777  0.4425  1.5169
   91bbb     H6 2648   8.273   4.114   9.786  0.4904 -0.4038  0.1860
   91bbb     C4 2649   8.406   4.136   9.961 -0.4718 -0.3328  0.3802
   91bbb     H7 2650   8.417   4.031   9.990 -2.6265 -0.7277 -0.0558
   91bbb     H8 2651   8.405   4.189  10.057  1.7350  0.0299  0.2478
   91bbb     C5 2652   8.033   4.375   9.952 -0.5064 -0.4395  0.2043
   91bbb     H9 2653   8.131   4.417   9.927 -0.2129  0.2882  2.3283
   91bbb    H10 2654   8.007   4.388  10.058 -2.2145 -0.4924 -0.1839
   91bbb     C6 2655   8.055   3.923   9.920 -0.3410 -0.3844 -0.2864
   91bbb    H11 2656   8.122   3.931   9.833 -0.0237  2.6215  0.1316
   91bbb    H12 2657   7.959   3.967   9.891 -0.8434 -0.3729  1.3443
   91bbb     C7 2658   8.533   4.176   9.879 -0.1318  0.3115 -0.1585
   91bbb    H13 2659   8.546   4.285   9.880  1.5333  0.1390 -0.0999
   91bbb    H14 2660   8.512   4.140   9.778  0.4311 -0.1715 -0.1112
   91bbb     C8 2661   8.039   3.778   9.976  0.2513  0.0071 -0.2724
   91bbb    H15 2662   8.018   3.718   9.886  0.8188 -1.4467  0.5215
   91bbb    H16 2663   7.955   3.781  10.047  0.5539  1.5729  0.0487
   91bbb     C9 2664   7.917   4.448   9.874 -0.7292 -0.1902  0.0741
   91bbb    H17 2665   7.908   4.397   9.778 -1.6261 -2.2758  1.1976
   91bbb    H18 2666   7.952   4.549   9.849 -1.1769  0.1619  0.8196
   91bbb     O1 2667   8.647   4.104   9.937  0.2467  0.2307 -0.0750
   92bbb     N1 2668   9.463   3.037  10.149 -0.6707 -0.0501 -0.1518
   92bbb     C1 2669   9.457   3.098  10.014  0.1782  0.0770  0.4871
   92bbb     H1 2670   9.362   3.151  10.002  0.8032  0.9214 -0.9184
   92bbb     H2 2671   9.437   3.010   9.953 -0.0798 -0.5072  1.3859
   92bbb     C2 2672   9.344   2.949  10.170 -0.3270  0.0274  0.7752
   92bbb     H3 2673   9.352   2.884  10.258  0.1031 -0.8318  0.1189
   92bbb     H4 2674   9.322   2.880  10.088  1.3410 -0.9938  1.1258
   92bbb     C3 2675   9.495   3.146  10.240 -0.0995  0.4413  0.2427
   92bbb     H5 2676   9.416   3.220  10.227  0.8716  1.2950 -1.0116
   92bbb     H6 2677   9.586   3.198  10.208  0.8032  0.2099  2.2570
   92bbb     C4 2678   9.509   3.108  10.392  0.3240  0.1506  0.0884
   92bbb     H7 2679   9.596   3.041  10.401 -0.0455 -0.7660 -2.3891
   92bbb     H8 2680   9.429   3.046  10.432  1.3749 -2.0993 -1.1402
   92bbb     C5 2681   9.581   3.170   9.954 -0.6466  0.5041  0.1428
   92bbb     H9 2682   9.593   3.269   9.999  2.2245  1.4828 -2.4126
   92bbb    H10 2683   9.556   3.188   9.848 -1.1760  0.6843  0.2951
   92bbb     C6 2684   9.217   3.022  10.204 -0.2790 -0.0293  0.3712
   92bbb    H11 2685   9.181   3.081  10.119 -1.6873 -0.4043  0.6802
   92bbb    H12 2686   9.242   3.089  10.287  0.2657  0.5266 -0.2322
   92bbb     C7 2687   9.539   3.220  10.488 -0.3786  0.0588  0.2140
   92bbb    H13 2688   9.628   3.273  10.454 -0.1395 -0.1949  0.4415
   92bbb    H14 2689   9.570   3.181  10.585 -0.4481  0.7278  0.5076
   92bbb     C8 2690   9.108   2.930  10.255  0.1162  0.1748  0.8621
   92bbb    H15 2691   9.143   2.853  10.326 -0.4171 -1.1196 -0.2295
   92bbb    H16 2692   9.082   2.870  10.167  0.6044 -0.6461  1.2550
   92bbb     C9 2693   9.720   3.098   9.979  0.3267 -0.3504  0.5120
   92bbb    H17 2694   9.698   2.990   9.976  1.0844 -0.5187 -2.1663
   92bbb    H18 2695   9.745   3.114  10.084 -1.8065 -0.0839  1.0270
   92bbb     O1 2696   9.423   3.301  10.506 -0.2098  0.0435 -0.0099
   93bbb     N1 2697   9.143   3.231   9.740  1.0348 -0.0402 -0.4332
   93bbb     C1 2698   9.163   3.237   9.593 -1.0597 -0.1751 -0.3431
   93bbb     H1 2699   9.123   3.332   9.557  1.2696  0.7003 -0.7236
   93bbb     H2 2700   9.121   3.146   9.546  1.8898 -2.5826  1.3403
   93bbb     C2 2701   9.131   3.090   9.795  0.8657 -0.5660  0.0749
   93bbb     H3 2702   9.118   3.093   9.904  0.2563 -1.4331  0.0379
   93bbb     H4 2703   9.223   3.029   9.788  1.5449  0.3926  0.4505
   93bbb     C3 2704   9.212   3.332   9.823 -0.3714  0.0541  0.0854
   93bbb     H5 2705   9.317   3.302   9.828 -0.3407  0.3535  3.5368
   93bbb     H6 2706   9.172   3.322   9.924  1.2291 -2.0618  0.5899
   93bbb     C4 2707   9.204   3.476   9.773 -0.4629 -0.1990 -0.0627
   93bbb     H7 2708   9.100   3.510   9.765 -0.4049  0.4109  1.4512
   93bbb     H8 2709   9.246   3.487   9.673 -1.5080  1.3612 -0.3709
   93bbb     C5 2710   9.310   3.243   9.553  0.3895 -0.3370  0.3645
   93bbb     H9 2711   9.368   3.310   9.617  0.3871 -0.1722  0.1960
   93bbb    H10 2712   9.306   3.289   9.453 -1.0765  1.2932  1.1325
   93bbb     C6 2713   9.018   3.010   9.729 -0.3099  0.3256  0.0604
   93bbb    H11 2714   9.053   2.982   9.629  0.8661 -0.2138  0.5952
   93bbb    H12 2715   8.929   3.072   9.712  0.1319  0.6746 -1.1126
   93bbb     C7 2716   9.283   3.571   9.867  0.9010  0.2780  0.5855
   93bbb    H13 2717   9.259   3.547   9.972 -0.7005 -2.1153 -0.2327
   93bbb    H14 2718   9.250   3.674   9.852  0.0739 -0.1010 -0.2744
   93bbb     C8 2719   8.996   2.876   9.816  0.2701  0.1277  0.8541
   93bbb    H15 2720   8.905   2.829   9.779  1.0356  0.6904 -1.9696
   93bbb    H16 2721   8.982   2.902   9.922 -0.9595 -1.1707  1.0426
   93bbb     C9 2722   9.385   3.103   9.548  0.3850  0.2107  0.2955
   93bbb    H17 2723   9.374   3.067   9.651  1.7772 -2.1107 -0.3203
   93bbb    H18 2724   9.487   3.128   9.516 -0.0090  1.1578 -0.2732
   93bbb     O1 2725   9.422   3.560   9.838  0.8909 -0.3901  0.3362
   94bbb     N1 2726   9.892   6.584  11.511  0.5426  0.1681 -0.5560
   94bbb     C1 2727   9.903   6.591  11.664  0.3703  0.0549 -0.7055
   94bbb     H1 2728   9.960   6.672  11.710 -0.7512 -0.4940  1.8212
   94bbb     H2 2729   9.952   6.497  11.691  0.8050  0.0968 -1.3416
   94bbb     C2 2730  10.002   6.646  11.435  0.0044 -0.6417  0.1622
   94bbb     H3 2731   9.990   6.640  11.326  0.3752 -1.5996  0.1700
   94bbb     H4 2732  10.098   6.594  11.451 -0.2103 -1.1066 -0.0472
   94bbb     C3 2733   9.832   6.471  11.447 -0.5108 -0.5794  0.6488
   94bbb     H5 2734   9.751   6.443  11.515 -0.9855  0.4487  0.5209
   94bbb     H6 2735   9.908   6.392  11.454 -1.3099 -1.6813 -1.9737
   94bbb     C4 2736   9.791   6.491  11.295  0.1171  0.1948 -0.4927
   94bbb     H7 2737   9.884   6.489  11.237 -0.0972  5.6260 -1.5623
   94bbb     H8 2738   9.741   6.587  11.274 -1.2683 -0.1745  0.9129
   94bbb     C5 2739   9.765   6.588  11.734  0.5279 -0.0346 -0.5886
   94bbb     H9 2740   9.726   6.485  11.734 -0.8200  0.4627 -0.3206
   94bbb    H10 2741   9.697   6.649  11.674 -0.1271 -0.5125 -0.3524
   94bbb     C6 2742  10.012   6.801  11.466 -0.6696  0.5616 -0.2984
   94bbb    H11 2743  10.102   6.840  11.416 -0.2904  0.0577 -0.0240
   94bbb    H12 2744  10.025   6.814  11.574  0.7949  0.5129 -0.4442
   94bbb     C7 2745   9.694   6.381  11.253 -0.5752 -0.2062  0.3029
   94bbb    H13 2746   9.684   6.392  11.145  0.3537 -1.4062  0.0738
   94bbb    H14 2747   9.597   6.381  11.303  0.3858  2.3380  2.4275
   94bbb     C8 2748   9.898   6.883  11.415 -0.4738 -0.1884  0.2367
   94bbb    H15 2749   9.804   6.845  11.458 -0.9114  1.0057  0.3702
   94bbb    H16 2750   9.893   6.870  11.306  1.4264 -0.1171  0.1062
   94bbb     C9 2751   9.755   6.630  11.883 -0.3111 -0.2235  0.1684
   94bbb    H17 2752   9.852   6.612  11.930 -1.2092 -1.7068  1.5667
   94bbb    H18 2753   9.690   6.557  11.934 -1.0498  0.0409 -0.3780
   94bbb     O1 2754   9.757   6.257  11.274 -0.0639 -0.5149  0.0658
   95bbb     N1 2755   9.630   6.092  11.716  0.0808  0.3255 -0.7897
   95bbb     C1 2756   9.503   6.132  11.654 -0.0765 -0.0961 -0.4844
   95bbb     H1 2757   9.419   6.109  11.721 -1.2848  2.0161 -1.1956
   95bbb     H2 2758   9.482   6.071  11.565  0.3266  0.1538 -0.7538
   95bbb     C2 2759   9.623   5.945  11.758  0.2425  0.4105 -0.2150
   95bbb     H3 2760   9.715   5.924  11.813 -0.3320  1.9885  1.4521
   95bbb     H4 2761   9.611   5.877  11.673 -0.7359  0.4339 -0.0993
   95bbb     C3 2762   9.764   6.129  11.653 -0.1182  0.4838 -0.2735
   95bbb     H5 2763   9.771   6.238  11.657  0.9446  0.3842  1.9226
   95bbb     H6 2764   9.764   6.107  11.545  0.4848  1.8739 -0.5764
   95bbb     C4 2765   9.894   6.077  11.718  0.1141 -0.4680 -0.3595
   95bbb     H7 2766   9.887   6.074  11.827  0.2257  2.3632 -0.2166
   95bbb     H8 2767   9.973   6.149  11.698  1.1268 -1.2355  0.7679
   95bbb     C5 2768   9.490   6.283  11.628 -0.0802  0.4874 -0.1714
   95bbb     H9 2769   9.394   6.307  11.581 -0.0455  2.1664  0.5214
   95bbb    H10 2770   9.567   6.314  11.556  2.0563 -1.6431  1.0302
   95bbb     C6 2771   9.507   5.916  11.856 -0.1395 -0.2031 -0.5221
   95bbb    H11 2772   9.529   5.815  11.894  3.3962  0.5886 -0.1625
   95bbb    H12 2773   9.404   5.917  11.820 -0.4744  1.0111  0.3904
   95bbb     C7 2774   9.956   5.945  11.675 -0.2192  0.2316 -0.0744
   95bbb    H13 2775   9.937   5.861  11.743  1.1747 -0.3205 -0.3272
   95bbb    H14 2776  10.065   5.956  11.686  0.3087 -2.4609 -1.5534
   95bbb     C8 2777   9.514   6.010  11.982 -0.1412  0.6847 -0.3171
   95bbb    H15 2778   9.493   6.112  11.946  0.7031  0.8079 -0.4790
   95bbb    H16 2779   9.618   5.998  12.015 -0.6081 -1.5753  0.4976
   95bbb     C9 2780   9.484   6.371  11.752  0.3845 -0.1255  0.6277
   95bbb    H17 2781   9.576   6.369  11.813  1.4193  1.2336 -0.8243
   95bbb    H18 2782   9.411   6.335  11.825  0.4617  0.6084  1.0892
   95bbb     O1 2783   9.928   5.915  11.537 -0.3296  0.2973  0.2330
   96bbb     N1 2784   7.386   5.835  10.872 -0.3386  0.4264 -0.3098
   96bbb     C1 2785   7.332   5.750  10.772  0.3198  0.4555  0.5462
   96bbb     H1 2786   7.391   5.745  10.680  1.6628 -1.4692  1.4437
   96bbb     H2 2787   7.234   5.792  10.744  0.4859  1.1879  1.0250
   96bbb     C2 2788   7.377   5.978  10.846 -0.2709 -0.4977 -0.2912
   96bbb     H3 2789   7.423   6.001  10.749 -1.5975  1.0636 -0.5883
   96bbb     H4 2790   7.416   6.032  10.933  0.7130 -1.5992 -0.0136
   96bbb     C3 2791   7.531   5.797  10.904 -0.3606 -0.0898 -0.0286
   96bbb     H5 2792   7.530   5.704  10.962 -2.0223  0.7203  1.3049
   96bbb     H6 2793   7.583   5.874  10.961  3.0800 -0.9469 -1.7259
   96bbb     C4 2794   7.631   5.782  10.784  0.6448 -0.1794 -0.1399
   96bbb     H7 2795   7.619   5.852  10.701 -0.2081 -0.8967 -0.6453
   96bbb     H8 2796   7.625   5.680  10.743 -0.5369 -0.3062  0.3263
   96bbb     C5 2797   7.302   5.602  10.818 -0.0574 -0.4079 -1.0333
   96bbb     H9 2798   7.392   5.539  10.816  0.4626  0.1540  1.4385
   96bbb    H10 2799   7.226   5.560  10.750 -2.3355  1.7441  0.0195
   96bbb     C6 2800   7.221   6.023  10.836 -0.7261  0.2752  0.2981
   96bbb    H11 2801   7.159   5.965  10.905  1.1735 -1.7127  0.4567
   96bbb    H12 2802   7.185   5.999  10.735 -0.5848 -1.3590  0.6062
   96bbb     C7 2803   7.777   5.802  10.833 -0.6189 -0.0549  0.1854
   96bbb    H13 2804   7.797   5.751  10.928  1.6816  0.4113  0.0118
   96bbb    H14 2805   7.812   5.904  10.853  2.6093 -1.0931  0.5305
   96bbb     C8 2806   7.206   6.174  10.862  0.6215 -0.1635  0.0058
   96bbb    H15 2807   7.236   6.187  10.966 -1.7829 -0.2260  0.7793
   96bbb    H16 2808   7.100   6.198  10.845  0.4339 -1.0560 -0.1141
   96bbb     C9 2809   7.223   5.591  10.951  0.7199 -0.0769  0.0736
   96bbb    H17 2810   7.126   5.641  10.934  0.8522 -0.0547 -0.6413
   96bbb    H18 2811   7.280   5.636  11.033  0.2995 -2.1908  1.6327
   96bbb     O1 2812   7.873   5.743  10.738  0.0852 -0.1141  0.0421
   97bbb     N1 2813   7.585   5.117  10.954 -0.0906  0.1610  0.3590
   97bbb     C1 2814   7.466   5.172  11.033  0.4053  0.5829  0.2196
   97bbb     H1 2815   7.366   5.154  10.992  0.3924 -1.5589  1.0508
   97bbb     H2 2816   7.476   5.280  11.049 -0.7901  1.1681 -2.4502
   97bbb     C2 2817   7.572   5.144  10.810  0.8343  0.3578 -0.0605
   97bbb     H3 2818   7.661   5.091  10.774  0.9775 -1.4185  2.5713
   97bbb     H4 2819   7.574   5.253  10.797  1.0677  0.4644  0.7839
   97bbb     C3 2820   7.715   5.152  11.013 -0.1963 -0.1158 -0.4128
   97bbb     H5 2821   7.791   5.108  10.947  0.3304  0.1844 -0.0102
   97bbb     H6 2822   7.741   5.091  11.100  2.1699  0.1188 -0.8828
   97bbb     C4 2823   7.745   5.304  11.029 -0.7565  0.7897  0.7150
   97bbb     H7 2824   7.680   5.345  11.108 -1.4090  0.6190  0.2803
   97bbb     H8 2825   7.698   5.351  10.942 -0.9750 -0.1946  0.2849
   97bbb     C5 2826   7.462   5.110  11.178  0.2672 -0.0073 -0.9942
   97bbb     H9 2827   7.388   5.161  11.241  0.1663 -0.9607 -0.3239
   97bbb    H10 2828   7.558   5.115  11.230 -0.3498 -0.4330  0.2204
   97bbb     C6 2829   7.446   5.079  10.750  0.3414 -0.3729  0.4365
   97bbb    H11 2830   7.359   5.140  10.776  0.0827  0.0645 -1.3172
   97bbb    H12 2831   7.429   4.974  10.777  0.1762 -0.7918 -1.2278
   97bbb     C7 2832   7.897   5.329  11.045  0.0233 -0.5828  0.8228
   97bbb    H13 2833   7.928   5.290  11.142  0.1718  0.2500  1.1231
   97bbb    H14 2834   7.896   5.438  11.056 -0.8124 -0.6793  1.8545
   97bbb     C8 2835   7.449   5.089  10.593 -0.0696  0.2408 -0.2868
   97bbb    H15 2836   7.456   5.193  10.562 -2.0157  0.1379 -1.2043
   97bbb    H16 2837   7.362   5.040  10.547 -1.1147  0.9092  0.9228
   97bbb     C9 2838   7.413   4.961  11.162 -0.2166  0.1147  0.4864
   97bbb    H17 2839   7.445   4.899  11.247  0.6745  0.2542  0.2544
   97bbb    H18 2840   7.463   4.915  11.076  0.4161  3.2428 -0.9260
   97bbb     O1 2841   7.970   5.276  10.933 -0.2482  0.2961  0.5252
   98bbb     N1 2842   8.876   7.827  10.164  0.5904  0.0018 -0.2340
   98bbb     C1 2843   8.950   7.958  10.177 -0.8676 -0.0839  0.3669
   98bbb     H1 2844   8.884   8.040  10.208  0.2486  0.5509  1.1310
   98bbb     H2 2845   8.979   7.987  10.075  0.6281  3.1363  1.5845
   98bbb     C2 2846   8.760   7.843  10.069 -0.3123  0.7031  0.1253
   98bbb     H3 2847   8.718   7.744  10.052  2.9405 -1.1881  2.1491
   98bbb     H4 2848   8.801   7.880   9.974  1.3279 -0.5792  0.3000
   98bbb     C3 2849   8.972   7.717  10.143  0.2097  0.2143  0.6513
   98bbb     H5 2850   9.027   7.705  10.237  0.4732  0.4888  0.5343
   98bbb     H6 2851   9.050   7.745  10.071 -0.7285  0.9299 -0.1045
   98bbb     C4 2852   8.904   7.587  10.106  0.3736  0.2668  0.7859
   98bbb     H7 2853   8.984   7.514  10.088 -1.5716 -1.3848 -1.8294
   98bbb     H8 2854   8.851   7.598  10.010  1.8510 -0.7679 -0.1890
   98bbb     C5 2855   9.078   7.955  10.266 -0.6136  0.4043  0.3420
   98bbb     H9 2856   9.161   7.947  10.194  0.4113  1.0019  1.4169
   98bbb    H10 2857   9.095   7.872  10.336  1.0146  2.2362  2.2412
   98bbb     C6 2858   8.647   7.937  10.117 -1.1721  0.2230  0.8093
   98bbb    H11 2859   8.687   8.039  10.118  2.4384 -1.0408 -0.4482
   98bbb    H12 2860   8.623   7.908  10.220 -0.5662 -0.7497  0.6875
   98bbb     C7 2861   8.789   7.530  10.203  0.8124  0.0574 -0.0701
   98bbb    H13 2862   8.703   7.598  10.204  0.3281 -0.5392 -0.2464
   98bbb    H14 2863   8.837   7.518  10.300  0.8584 -0.2102 -0.1255
   98bbb     C8 2864   8.530   7.930  10.022  0.6157  0.1506 -0.1833
   98bbb    H15 2865   8.563   7.887   9.927 -0.1902  2.3973 -1.5618
   98bbb    H16 2866   8.494   8.029   9.993  0.5852  0.0194 -0.6050
   98bbb     C9 2867   9.093   8.081  10.344 -0.3006 -0.1917  0.4117
   98bbb    H17 2868   9.007   8.094  10.411  0.1724  0.8515  0.8518
   98bbb    H18 2869   9.095   8.167  10.275 -1.3402  0.7736  1.5383
   98bbb     O1 2870   8.747   7.403  10.161 -1.2588 -0.5783 -0.2482
   99bbb     N1 2871   8.809   8.381  10.425  0.8424  0.2846 -0.9188
   99bbb     C1 2872   8.832   8.387  10.284  0.5673 -1.0381 -0.9053
   99bbb     H1 2873   8.847   8.286  10.243  0.5932 -1.4499  0.0903
   99bbb     H2 2874   8.933   8.430  10.282  0.7197 -1.1574  1.4592
   99bbb     C2 2875   8.932   8.364  10.513  0.7187  0.1790  0.2033
   99bbb     H3 2876   9.014   8.407  10.455 -1.5322  3.1935 -0.9771
   99bbb     H4 2877   8.942   8.255  10.522 -2.1936 -0.1433  0.5884
   99bbb     C3 2878   8.684   8.314  10.476 -0.9273 -0.1968  0.4110
   99bbb     H5 2879   8.593   8.354  10.428 -1.5533 -1.3432  0.5877
   99bbb     H6 2880   8.678   8.330  10.584  0.7483  0.8118  0.3825
   99bbb     C4 2881   8.680   8.162  10.451 -0.8324 -0.1327  0.9088
   99bbb     H7 2882   8.774   8.115  10.482 -1.1211 -0.6160  1.0739
   99bbb     H8 2883   8.668   8.156  10.342 -1.1517  0.0857  0.9299
   99bbb     C5 2884   8.731   8.463  10.199 -0.1284  0.5429 -0.3270
   99bbb     H9 2885   8.702   8.548  10.263 -2.7392 -0.2665 -0.3219
   99bbb    H10 2886   8.648   8.392  10.194 -0.1477  0.5295  0.1768
   99bbb     C6 2887   8.913   8.416  10.659  0.4124 -0.2777  0.1244
   99bbb    H11 2888   8.851   8.345  10.715  1.1570 -1.1023 -0.0660
   99bbb    H12 2889   8.849   8.505  10.667  0.3630 -0.4736  2.7972
   99bbb     C7 2890   8.574   8.089  10.523 -0.4786 -0.2513  0.2492
   99bbb    H13 2891   8.478   8.139  10.508 -0.4847 -0.2973  0.1375
   99bbb    H14 2892   8.598   8.094  10.630  0.5588 -4.7829  0.4199
   99bbb     C8 2893   9.055   8.457  10.722 -0.3222 -0.3589 -0.0089
   99bbb    H15 2894   9.134   8.381  10.720  1.1975  1.1383  0.1791
   99bbb    H16 2895   9.043   8.475  10.830 -0.0184 -1.5265  0.2323
   99bbb     C9 2896   8.785   8.501  10.058 -0.0117 -0.1005 -0.1766
   99bbb    H17 2897   8.714   8.576  10.022 -0.0099  0.3589  0.7385
   99bbb    H18 2898   8.793   8.413   9.993 -0.6944  1.4862 -2.5510
   99bbb     O1 2899   8.580   7.956  10.466 -0.3433  0.4714 -0.3547
  100bbb     N1 2900   8.899   6.196   9.024  0.5693  0.7975 -0.6809
  100bbb     C1 2901   9.025   6.193   8.953  0.6999 -0.1698  0.0396
  100bbb     H1 2902   9.074   6.291   8.945  2.7371 -1.2520 -2.0492
  100bbb     H2 2903   8.995   6.158   8.854  0.2228 -1.0432  0.4793
  100bbb     C2 2904   8.848   6.063   9.059  0.1715  0.4499  0.2791
  100bbb     H3 2905   8.887   6.026   9.155 -0.3186 -1.1025 -0.0874
  100bbb     H4 2906   8.866   5.985   8.984 -0.3377  0.3732  0.2326
  100bbb     C3 2907   8.886   6.292   9.143  0.1430 -0.6262  0.4646
  100bbb     H5 2908   8.922   6.245   9.235 -2.3098 -1.4179  1.0987
  100bbb     H6 2909   8.780   6.307   9.165 -0.7031 -1.2657 -2.6973
  100bbb     C4 2910   8.943   6.436   9.130  0.1779 -0.2526  0.1729
  100bbb     H7 2911   8.908   6.491   9.042  0.0026  0.2440  0.5461
  100bbb     H8 2912   9.053   6.426   9.129  0.0815 -2.1680  2.0892
  100bbb     C5 2913   9.135   6.095   9.012 -0.2588  0.1561 -0.0932
  100bbb     H9 2914   9.103   5.993   8.986 -0.2304  0.1891 -0.2568
  100bbb    H10 2915   9.153   6.102   9.120  0.4031 -0.6819 -0.1363
  100bbb     C6 2916   8.695   6.068   9.071 -0.0641 -0.2220  0.0394
  100bbb    H11 2917   8.659   6.098   8.973 -1.2895  1.6252  1.0094
  100bbb    H12 2918   8.666   6.143   9.146  0.7339 -0.7636  0.9308
  100bbb     C7 2919   8.911   6.534   9.254 -0.1744  0.3672  0.0649
  100bbb    H13 2920   8.968   6.628   9.246  1.0769 -0.4630 -1.2688
  100bbb    H14 2921   8.945   6.485   9.346  4.1768  2.4059 -0.2057
  100bbb     C8 2922   8.629   5.936   9.113 -0.0560 -0.1552  0.0925
  100bbb    H15 2923   8.656   5.923   9.219  2.0658 -0.0235 -0.3917
  100bbb    H16 2924   8.666   5.846   9.063  0.2979  0.2921 -0.4501
  100bbb     C9 2925   9.265   6.133   8.937  0.0513  0.0045 -0.0535
  100bbb    H17 2926   9.298   6.234   8.964  0.1970 -0.4578  1.5711
  100bbb    H18 2927   9.245   6.144   8.829 -1.1647 -0.6393  0.0943
  100bbb     O1 2928   8.764   6.547   9.243  0.4262  0.1466  0.3076
  101bbb     N1 2929   7.692   6.310   9.796  0.6292  0.0011  0.0260
  101bbb     C1 2930   7.600   6.214   9.726 -0.8145 -1.0813 -0.8443
  101bbb     H1 2931   7.501   6.219   9.774  0.3962  1.0266  1.7086
  101bbb     H2 2932   7.648   6.115   9.732 -1.1478 -1.1934  0.3579
  101bbb     C2 2933   7.701   6.283   9.942 -0.3285 -0.3862  0.6847
  101bbb     H3 2934   7.765   6.194   9.950 -0.0276 -0.3510 -0.8922
  101bbb     H4 2935   7.596   6.267   9.970 -1.0978  2.4619 -0.2258
  101bbb     C3 2936   7.820   6.337   9.725  0.6009  0.4922 -0.5324
  101bbb     H5 2937   7.890   6.412   9.763  0.4556 -0.5565  2.0020
  101bbb     H6 2938   7.784   6.376   9.629 -1.9749  1.3664  0.6826
  101bbb     C4 2939   7.905   6.202   9.708 -0.2436  0.1758 -0.2589
  101bbb     H7 2940   7.851   6.124   9.653 -0.8400  0.0470  0.4931
  101bbb     H8 2941   7.935   6.166   9.807  0.0364  0.5351 -0.2123
  101bbb     C5 2942   7.566   6.226   9.572 -0.9358  0.3177 -0.4879
  101bbb     H9 2943   7.536   6.123   9.547  3.4035 -1.4056  0.5286
  101bbb    H10 2944   7.651   6.252   9.509 -1.0289 -0.7196 -1.0660
  101bbb     C6 2945   7.772   6.389  10.032 -0.4701  0.1632 -0.6437
  101bbb    H11 2946   7.878   6.402  10.005 -0.2945 -1.3184 -0.7659
  101bbb    H12 2947   7.786   6.340  10.130 -2.0745  0.6216 -0.1561
  101bbb     C7 2948   8.036   6.223   9.630  0.0505 -0.1004  0.0552
  101bbb    H13 2949   8.073   6.126   9.595  2.9811  0.9452 -0.0185
  101bbb    H14 2950   8.115   6.259   9.698  1.1488  0.5461 -1.4917
  101bbb     C8 2951   7.700   6.517  10.060  0.1953 -0.6416 -0.3639
  101bbb    H15 2952   7.665   6.569   9.970  0.8856 -0.1953 -0.3824
  101bbb    H16 2953   7.761   6.592  10.111 -0.4606  0.7963 -1.6270
  101bbb     C9 2954   7.470   6.342   9.541  0.6693  0.3587  0.2103
  101bbb    H17 2955   7.466   6.361   9.433  0.0131 -0.7910  0.0084
  101bbb    H18 2956   7.513   6.427   9.594  1.3821  1.1159 -1.5128
  101bbb     O1 2957   8.024   6.314   9.517  0.1344 -0.6991  0.2827
  102bbb     N1 2958  11.050   6.311   9.442  0.5285  0.1127  0.6501
  102bbb     C1 2959  11.111   6.441   9.397  0.1670  0.0260 -1.2039
  102bbb     H1 2960  11.081   6.456   9.292 -2.3261 -3.1549 -1.0976
  102bbb     H2 2961  11.218   6.420   9.388  0.1630 -1.1163  0.8728
  102bbb     C2 2962  10.898   6.307   9.433 -0.4187  0.1410 -0.8127
  102bbb     H3 2963  10.862   6.381   9.506 -0.1347 -1.7376  1.3681
  102bbb     H4 2964  10.854   6.221   9.484 -2.1939  2.6650  2.2542
  102bbb     C3 2965  11.125   6.251   9.563 -0.2268 -0.1719 -0.4722
  102bbb     H5 2966  11.102   6.309   9.653  2.9453 -0.8872  0.8916
  102bbb     H6 2967  11.233   6.257   9.546  0.1326  0.4549  1.7199
  102bbb     C4 2968  11.093   6.103   9.584 -0.5383 -0.3041  0.0562
  102bbb     H7 2969  11.100   6.047   9.490 -1.0236 -1.2550  0.5657
  102bbb     H8 2970  10.994   6.092   9.630  0.1187  1.5049  2.0476
  102bbb     C5 2971  11.082   6.573   9.483  0.6085  0.6443  0.1059
  102bbb     H9 2972  11.107   6.536   9.583 -0.2851  1.0331  0.4734
  102bbb    H10 2973  10.976   6.599   9.479  0.9805  2.1064 -1.8132
  102bbb     C6 2974  10.839   6.325   9.291 -0.0158 -0.5808  0.3973
  102bbb    H11 2975  10.871   6.421   9.249  2.5525 -1.7255 -0.4226
  102bbb    H12 2976  10.731   6.318   9.310 -0.3461  1.4068 -0.5706
  102bbb     C7 2977  11.190   6.036   9.685  0.1794  0.6588  0.1948
  102bbb    H13 2978  11.162   6.059   9.789  0.1645  1.5160  0.0060
  102bbb    H14 2979  11.291   6.077   9.675 -0.0722  1.0708 -0.7048
  102bbb     C8 2980  10.887   6.224   9.195 -0.2345  0.1342  0.1899
  102bbb    H15 2981  10.892   6.129   9.250 -1.2833 -1.1540 -1.7992
  102bbb    H16 2982  10.989   6.237   9.158  1.0395 -1.8816  2.6564
  102bbb     C9 2983  11.176   6.691   9.433 -0.6209 -0.0363 -0.5321
  102bbb    H17 2984  11.208   6.662   9.332 -1.9623  0.1861 -1.0372
  102bbb    H18 2985  11.266   6.696   9.495 -1.9199 -0.5924  1.4909
  102bbb     O1 2986  11.190   5.892   9.660 -0.1182  0.2724 -0.4252
  103bbb     N1 2987  10.739   5.315   8.919 -0.4316  0.0811 -0.0323
  103bbb     C1 2988  10.825   5.400   8.833  0.1478 -0.3844  0.2790
  103bbb     H1 2989  10.838   5.355   8.734 -0.2052  0.6744 -0.2588
  103bbb     H2 2990  10.926   5.400   8.878  0.7036  0.9132 -0.8880
  103bbb     C2 2991  10.594   5.304   8.887 -0.5922 -0.3083 -0.0984
  103bbb     H3 2992  10.540   5.398   8.904 -1.2897 -0.3299 -1.9431
  103bbb     H4 2993  10.553   5.230   8.958 -1.7984 -1.9165 -2.3254
  103bbb     C3 2994  10.769   5.347   9.058 -0.2925 -0.3007 -0.7335
  103bbb     H5 2995  10.710   5.432   9.093  0.9853 -0.5662  2.4615
  103bbb     H6 2996  10.873   5.376   9.079 -1.3817  3.0495  0.6528
  103bbb     C4 2997  10.736   5.241   9.164  0.4496 -0.1676 -0.9910
  103bbb     H7 2998  10.782   5.142   9.155 -1.4450 -1.2506  0.3810
  103bbb     H8 2999  10.627   5.231   9.158  0.1656  1.9688 -0.5583
  103bbb     C5 3000  10.777   5.545   8.826 -0.2167 -0.0289  0.0017
  103bbb     H9 3001  10.777   5.588   8.927 -0.5563 -0.2048  0.0763
  103bbb    H10 3002  10.675   5.552   8.788  0.2833  1.0724 -1.2402
  103bbb     C6 3003  10.559   5.236   8.746 -0.9275 -0.1978 -0.5780
  103bbb    H11 3004  10.569   5.127   8.753  0.8485 -0.1284 -1.5724
  103bbb    H12 3005  10.637   5.273   8.679  0.4492  2.8023  2.4044
  103bbb     C7 3006  10.782   5.296   9.310  0.0352  0.2089  0.0561
  103bbb    H13 3007  10.798   5.204   9.368  1.6530 -0.7802 -1.8544
  103bbb    H14 3008  10.697   5.352   9.352  0.0494 -0.1915  0.6353
  103bbb     C8 3009  10.417   5.275   8.699 -0.1120 -0.4233 -0.3505
  103bbb    H15 3010  10.344   5.250   8.777  0.6464  1.4416  1.0067
  103bbb    H16 3011  10.380   5.224   8.609 -1.0599  0.2789 -0.3758
  103bbb     C9 3012  10.876   5.639   8.748  0.5489  0.5974  0.6680
  103bbb    H17 3013  10.956   5.589   8.693  0.2881  0.1268  0.7063
  103bbb    H18 3014  10.919   5.711   8.818 -0.9585 -0.0711  2.3852
  103bbb     O1 3015  10.907   5.369   9.299  0.3256  0.1649 -0.1352
  104bbb     N1 3016  11.716   6.778  10.611  0.3637 -0.1246  0.5256
  104bbb     C1 3017  11.838   6.817  10.530 -0.5617  0.4793 -0.3923
  104bbb     H1 3018  11.834   6.926  10.519 -2.3240  0.5903  0.9307
  104bbb     H2 3019  11.836   6.761  10.436 -2.6813  2.2752 -1.5088
  104bbb     C2 3020  11.720   6.811  10.759  0.0784 -0.1384 -0.4032
  104bbb     H3 3021  11.799   6.757  10.812 -0.5203  1.9705  2.9331
  104bbb     H4 3022  11.633   6.768  10.810  0.9373  0.5969  1.7941
  104bbb     C3 3023  11.587   6.797  10.546  0.1009 -0.5824  0.2615
  104bbb     H5 3024  11.581   6.894  10.496  2.0400 -0.5685 -0.0176
  104bbb     H6 3025  11.505   6.782  10.617  0.9784 -0.8255  1.2543
  104bbb     C4 3026  11.563   6.704  10.434  0.5936 -0.2170 -0.0510
  104bbb     H7 3027  11.596   6.610  10.481  0.6496 -0.0877  0.1683
  104bbb     H8 3028  11.634   6.726  10.354  0.0571 -0.8075 -0.7090
  104bbb     C5 3029  11.968   6.781  10.606  0.6525 -0.6368  0.0865
  104bbb     H9 3030  11.974   6.822  10.708 -0.8911 -2.9135  1.1661
  104bbb    H10 3031  12.058   6.822  10.559 -0.7401  2.9064  0.2005
  104bbb     C6 3032  11.744   6.956  10.784  0.1537  0.1505 -0.2453
  104bbb    H11 3033  11.642   6.996  10.775 -0.1191 -0.1758  1.2084
  104bbb    H12 3034  11.812   7.010  10.717 -1.2445  0.7082 -1.2876
  104bbb     C7 3035  11.418   6.709  10.379  0.2960 -0.4355  0.3985
  104bbb    H13 3036  11.414   6.670  10.276 -0.9134  1.0984 -0.1773
  104bbb    H14 3037  11.384   6.813  10.378 -1.2876 -0.8649 -2.3629
  104bbb     C8 3038  11.783   6.970  10.931 -0.1264  0.4744  0.3164
  104bbb    H15 3039  11.888   6.947  10.951 -0.1382  0.5666  0.4872
  104bbb    H16 3040  11.714   6.905  10.986  0.1954  0.7549  1.0580
  104bbb     C9 3041  11.986   6.628  10.609  0.1136 -0.3436 -0.5990
  104bbb    H17 3042  11.947   6.581  10.518 -2.8005 -0.1524  0.4686
  104bbb    H18 3043  11.912   6.584  10.676  1.5438 -0.9374  0.6609
  104bbb     O1 3044  11.323   6.638  10.467  0.3205  0.3080  0.0115
  105bbb     N1 3045  10.588   6.133  11.080  0.2340 -0.5662 -0.5018
  105bbb     C1 3046  10.537   6.018  11.003  0.2245  0.0073 -0.1932
  105bbb     H1 3047  10.435   6.037  10.967 -0.6399 -1.1381  1.5476
  105bbb     H2 3048  10.528   5.932  11.070 -1.5974  0.0168 -0.3644
  105bbb     C2 3049  10.560   6.142  11.228 -0.1094  0.3638 -0.1044
  105bbb     H3 3050  10.453   6.166  11.240  0.5390  3.3271  0.6448
  105bbb     H4 3051  10.612   6.228  11.273 -2.1031  2.4222 -1.4806
  105bbb     C3 3052  10.559   6.261  11.019  0.3133  0.5446 -0.8857
  105bbb     H5 3053  10.465   6.303  11.057  0.5380  0.5558 -0.3443
  105bbb     H6 3054  10.547   6.240  10.911 -1.6847  0.4575 -0.6912
  105bbb     C4 3055  10.668   6.364  11.042  0.6031 -0.2137  1.2160
  105bbb     H7 3056  10.662   6.397  11.146 -0.5724  1.7114  0.6030
  105bbb     H8 3057  10.633   6.450  10.983  0.7225 -1.2603 -0.4550
  105bbb     C5 3058  10.629   5.967  10.887 -0.3693 -0.9231 -0.5068
  105bbb     H9 3059  10.726   5.934  10.928 -0.5345  1.3313  1.8948
  105bbb    H10 3060  10.656   6.054  10.826 -1.7070  0.7178  1.1324
  105bbb     C6 3061  10.593   6.009  11.302  0.0957 -0.2026 -1.0230
  105bbb    H11 3062  10.527   5.925  11.276  0.1268 -2.2187  4.2459
  105bbb    H12 3063  10.567   6.017  11.408 -0.2053  0.7477 -1.1613
  105bbb     C7 3064  10.804   6.315  10.998  0.2772 -0.9273 -0.1199
  105bbb    H13 3065  10.792   6.242  10.917  1.1577  0.3546 -1.4710
  105bbb    H14 3066  10.856   6.267  11.081 -0.2617  0.7178  1.2330
  105bbb     C8 3067  10.737   5.951  11.289 -0.0261 -0.5109  0.0959
  105bbb    H15 3068  10.811   6.024  11.325  0.6314 -1.1922  0.1517
  105bbb    H16 3069  10.747   5.937  11.180 -1.0606  2.4994 -0.4895
  105bbb     C9 3070  10.567   5.855  10.810  0.0992 -0.5046 -0.8784
  105bbb    H17 3071  10.599   5.868  10.705 -0.2740  1.0439 -0.8175
  105bbb    H18 3072  10.458   5.848  10.803  0.0525 -0.3113 -0.3705
  105bbb     O1 3073  10.890   6.416  10.944 -0.0478 -0.1055  0.1984
  106bbb     N1 3074  10.042   8.013   9.724  0.2362  0.0174 -0.5570
  106bbb     C1 3075   9.912   8.068   9.674 -0.6849 -0.0920 -0.3293
  106bbb     H1 3076   9.842   8.045   9.756 -0.1180 -1.6171 -0.2316
  106bbb     H2 3077   9.874   8.026   9.580 -0.2924  0.1112 -0.5791
  106bbb     C2 3078  10.149   8.042   9.627  0.3596 -0.0711  0.7051
  106bbb     H3 3079  10.162   8.146   9.595 -0.4227  0.4455  1.9678
  106bbb     H4 3080  10.139   7.976   9.540  1.9244 -1.6902  1.6819
  106bbb     C3 3081  10.022   7.872   9.783  0.2535 -0.3772  0.3216
  106bbb     H5 3082   9.965   7.867   9.877  2.5041  0.0874  1.7955
  106bbb     H6 3083  10.118   7.835   9.823  0.5154 -0.3308 -0.2561
  106bbb     C4 3084   9.943   7.773   9.693  0.5738 -0.0590  0.0772
  106bbb     H7 3085   9.975   7.781   9.588  0.2904  0.7143  0.0453
  106bbb     H8 3086   9.835   7.788   9.700  0.4641  0.0078 -1.3918
  106bbb     C5 3087   9.905   8.223   9.655 -0.2593  0.5441  0.5223
  106bbb     H9 3088   9.985   8.260   9.589 -0.2346 -0.0134  0.2408
  106bbb    H10 3089   9.931   8.266   9.753 -0.0898 -0.7440  1.0611
  106bbb     C6 3090  10.287   8.007   9.683 -0.0976 -0.1956 -0.2253
  106bbb    H11 3091  10.353   7.993   9.597  0.3712 -0.9624  0.2492
  106bbb    H12 3092  10.292   7.910   9.734  1.5841  0.6171  1.2607
  106bbb     C7 3093   9.960   7.626   9.737  0.0916  0.0473  0.0239
  106bbb    H13 3094  10.061   7.591   9.716 -0.4451 -0.4322 -1.9814
  106bbb    H14 3095   9.893   7.564   9.676 -0.7453  0.1734  0.7832
  106bbb     C8 3096  10.345   8.106   9.790 -0.0847  0.0073  0.5703
  106bbb    H15 3097  10.445   8.084   9.829  1.8601  3.1358 -2.1273
  106bbb    H16 3098  10.270   8.109   9.870 -0.3339  1.5521  0.3079
  106bbb     C9 3099   9.770   8.281   9.612  0.1290 -1.7724  0.0390
  106bbb    H17 3100   9.767   8.385   9.644 -0.0353 -1.1844 -1.7595
  106bbb    H18 3101   9.686   8.239   9.668  0.8755 -2.1111  0.9411
  106bbb     O1 3102   9.927   7.610   9.877  0.3018 -0.3019 -0.5708
  107bbb     N1 3103   9.802   7.440   9.412 -0.6405 -0.0325  0.7633
  107bbb     C1 3104   9.945   7.470   9.377  0.1348  0.1453  0.6243
  107bbb     H1 3105   9.993   7.500   9.472  0.2901 -5.1203  2.5167
  107bbb     H2 3106   9.947   7.558   9.311 -0.9006  1.1462  1.8672
  107bbb     C2 3107   9.710   7.456   9.300 -0.2760 -0.2955  0.4623
  107bbb     H3 3108   9.664   7.359   9.277  1.7533 -0.9093 -1.2732
  107bbb     H4 3109   9.766   7.496   9.215 -0.0533  1.3863  1.3528
  107bbb     C3 3110   9.788   7.321   9.508 -0.3026 -0.9584  0.1406
  107bbb     H5 3111   9.856   7.337   9.592  0.7254  0.4898 -0.9210
  107bbb     H6 3112   9.819   7.234   9.449 -2.1015 -1.4837 -0.0857
  107bbb     C4 3113   9.637   7.316   9.555 -0.0336 -0.8231  0.6777
  107bbb     H7 3114   9.567   7.295   9.473  0.3400  1.0816 -0.1751
  107bbb     H8 3115   9.606   7.417   9.582  0.0993  0.2731 -2.8243
  107bbb     C5 3116  10.037   7.366   9.315  0.1622 -0.1869  0.3063
  107bbb     H9 3117  10.060   7.285   9.385 -0.9176  0.1891  1.1203
  107bbb    H10 3118  10.137   7.410   9.303  0.8561 -2.1011 -1.7747
  107bbb     C6 3119   9.611   7.568   9.328  0.7659 -0.5893 -1.3792
  107bbb    H11 3120   9.664   7.661   9.353 -0.7267  0.1368 -0.8111
  107bbb    H12 3121   9.535   7.549   9.405  0.9245  1.2881 -0.6989
  107bbb     C7 3122   9.611   7.212   9.671  0.3575 -0.5045  0.6568
  107bbb    H13 3123   9.625   7.111   9.631  2.0478 -0.0090 -0.1048
  107bbb    H14 3124   9.507   7.213   9.705 -0.2984  1.1781 -1.1713
  107bbb     C8 3125   9.531   7.591   9.194 -0.6540  0.2566 -0.0891
  107bbb    H15 3126   9.437   7.640   9.224 -1.3670 -2.1525  1.9704
  107bbb    H16 3127   9.501   7.496   9.148  0.3271 -0.2940  0.3917
  107bbb     C9 3128   9.995   7.299   9.187  0.5925  1.0669  0.0198
  107bbb    H17 3129   9.889   7.270   9.196  0.8922 -0.9973 -2.1071
  107bbb    H18 3130  10.045   7.201   9.181 -3.2629 -1.1518  0.5994
  107bbb     O1 3131   9.706   7.219   9.777 -0.1116  0.1420  0.8833
  108bbb     N1 3132  10.098   6.907  11.035 -0.2345 -0.1301 -0.4279
  108bbb     C1 3133  10.184   6.815  11.114 -0.4154  0.2219 -0.4293
  108bbb     H1 3134  10.151   6.826  11.218 -2.3078  1.6726 -1.1314
  108bbb     H2 3135  10.290   6.841  11.115 -0.4660  0.4447  0.8741
  108bbb     C2 3136  10.082   7.035  11.109  0.4147  0.5253  0.2972
  108bbb     H3 3137  10.097   7.020  11.216  1.0994 -1.8144 -0.0782
  108bbb     H4 3138   9.979   7.069  11.098  0.9444  2.2132  0.2624
  108bbb     C3 3139  10.121   6.914  10.890 -0.0751  0.3434  0.2795
  108bbb     H5 3140  10.153   6.819  10.846  0.7741  0.3670  0.8172
  108bbb     H6 3141  10.211   6.975  10.875  1.6002 -1.8313  0.9285
  108bbb     C4 3142  10.002   6.978  10.818  0.3293  0.4310 -0.7135
  108bbb     H7 3143   9.959   7.055  10.883  0.6490  0.1023 -0.1022
  108bbb     H8 3144   9.924   6.902  10.809 -0.5621  1.2309  0.0171
  108bbb     C5 3145  10.168   6.667  11.083  0.8539  1.4987 -0.0016
  108bbb     H9 3146  10.183   6.657  10.974 -0.5840 -0.2256 -0.0865
  108bbb    H10 3147  10.067   6.630  11.105  1.9958 -1.3116  0.9185
  108bbb     C6 3148  10.180   7.144  11.057  0.0991  0.5144  0.5024
  108bbb    H11 3149  10.163   7.160  10.950 -1.1563 -1.6609  0.3209
  108bbb    H12 3150  10.286   7.115  11.069 -0.4546 -1.5017  0.9003
  108bbb     C7 3151  10.028   7.022  10.675  0.4470  0.0453  0.7658
  108bbb    H13 3152   9.941   7.024  10.609 -0.4575  0.3947  1.9343
  108bbb    H14 3153  10.103   6.955  10.630  2.5776  3.2723 -0.8654
  108bbb     C8 3154  10.170   7.290  11.127 -0.2246  0.2650  0.4065
  108bbb    H15 3155  10.066   7.324  11.133  0.1118  1.0167  3.9625
  108bbb    H16 3156  10.236   7.360  11.075 -0.8084  0.4538 -0.0970
  108bbb     C9 3157  10.275   6.577  11.153 -1.1164  0.1848 -0.0291
  108bbb    H17 3158  10.273   6.582  11.263  3.7591 -0.1791  0.3176
  108bbb    H18 3159  10.373   6.621  11.130 -1.0861  2.0476  3.0973
  108bbb     O1 3160  10.094   7.151  10.678  0.2231 -0.2150  0.0228
  109bbb     N1 3161  10.471   8.148  10.218  0.4600  0.3604 -0.0881
  109bbb     C1 3162  10.577   8.177  10.122 -0.0205  0.3497 -0.2482
  109bbb     H1 3163  10.552   8.250  10.044 -0.8613  1.1818  0.7699
  109bbb     H2 3164  10.611   8.083  10.076  1.5072  0.4042  0.7328
  109bbb     C2 3165  10.422   8.252  10.308 -0.3631 -0.9902 -0.2916
  109bbb     H3 3166  10.509   8.296  10.357 -0.2742  0.7146 -1.8551
  109bbb     H4 3167  10.358   8.214  10.388 -2.0240  2.2431  0.0936
  109bbb     C3 3168  10.360   8.067  10.158  0.2862 -0.1657  0.4907
  109bbb     H5 3169  10.399   7.982  10.101 -0.5303 -0.2824  0.0995
  109bbb     H6 3170  10.299   8.125  10.088  0.0165 -0.0876  0.7838
  109bbb     C4 3171  10.279   8.000  10.272  0.0704 -0.0053  0.2681
  109bbb     H7 3172  10.216   8.074  10.322 -0.5273  0.4559 -1.1135
  109bbb     H8 3173  10.343   7.953  10.347 -1.4115  1.2361  2.4000
  109bbb     C5 3174  10.709   8.236  10.182 -0.1843 -0.1082 -0.1130
  109bbb     H9 3175  10.763   8.165  10.246  2.1289  2.6190  1.1738
  109bbb    H10 3176  10.692   8.327  10.241 -0.7553  0.6018 -1.3437
  109bbb     C6 3177  10.354   8.364  10.233  0.4908 -0.1619  0.0344
  109bbb    H11 3178  10.261   8.335  10.182 -0.5818  0.8246  1.3667
  109bbb    H12 3179  10.427   8.398  10.159  0.2102 -1.3884 -0.8453
  109bbb     C7 3180  10.190   7.883  10.219 -0.1503  0.4333 -0.2777
  109bbb    H13 3181  10.246   7.800  10.174 -3.3696 -0.4069 -3.2474
  109bbb    H14 3182  10.132   7.918  10.132 -0.1192 -0.2388 -0.5793
  109bbb     C8 3183  10.314   8.471  10.333  0.2956  0.3153  0.5139
  109bbb    H15 3184  10.404   8.512  10.381 -0.6457  1.4868  1.3214
  109bbb    H16 3185  10.260   8.417  10.412  1.0152 -0.5423  0.4444
  109bbb     C9 3186  10.816   8.276  10.073 -0.1360  0.0689 -0.4814
  109bbb    H17 3187  10.869   8.185  10.043  1.0138 -0.0924  1.8733
  109bbb    H18 3188  10.887   8.342  10.124 -1.3031  0.3240  0.8896
  109bbb     O1 3189  10.108   7.837  10.333  0.4684  0.0082  0.4672
  110bbb     N1 3190   8.360   3.937   9.627  0.2784 -0.0754  0.4009
  110bbb     C1 3191   8.230   3.940   9.550  0.4965 -0.1373 -0.6120
  110bbb     H1 3192   8.206   4.040   9.510 -1.0525 -0.1173  0.2823
  110bbb     H2 3193   8.149   3.923   9.622  0.6038  0.5325 -0.3330
  110bbb     C2 3194   8.487   3.965   9.552  0.2394  1.0766  0.3601
  110bbb     H3 3195   8.501   3.897   9.467 -0.8732 -0.6290  1.4818
  110bbb     H4 3196   8.566   3.952   9.626 -1.8927 -2.8454  2.2633
  110bbb     C3 3197   8.363   3.802   9.694  0.4713 -0.2607  0.0468
  110bbb     H5 3198   8.351   3.725   9.617  0.8152  1.6562 -2.0168
  110bbb     H6 3199   8.275   3.789   9.758 -0.9904 -1.9304 -2.1519
  110bbb     C4 3200   8.489   3.760   9.769 -0.0188 -0.6380  0.6370
  110bbb     H7 3201   8.529   3.843   9.828  1.0623 -0.4336 -0.3539
  110bbb     H8 3202   8.567   3.743   9.694  1.0372 -2.1566  2.0207
  110bbb     C5 3203   8.209   3.847   9.431 -0.1587 -0.6944 -0.4692
  110bbb     H9 3204   8.226   3.743   9.460 -1.1823 -0.3670  1.5072
  110bbb    H10 3205   8.263   3.869   9.339  0.9878 -0.1618  0.3115
  110bbb     C6 3206   8.489   4.114   9.486  0.6169 -0.5666  0.0986
  110bbb    H11 3207   8.392   4.161   9.505 -0.0405 -0.9441 -2.0589
  110bbb    H12 3208   8.481   4.091   9.379 -3.6732 -0.9650  0.3171
  110bbb     C7 3209   8.467   3.634   9.862  0.2008 -0.3794 -0.5874
  110bbb    H13 3210   8.431   3.544   9.812 -0.8064 -0.9509  1.0820
  110bbb    H14 3211   8.400   3.665   9.944  0.1911  1.8204 -1.3386
  110bbb     C8 3212   8.606   4.199   9.518 -0.1288 -0.4510 -0.6353
  110bbb    H15 3213   8.596   4.227   9.623  1.0182  0.3594 -0.7225
  110bbb    H16 3214   8.603   4.295   9.465  0.6954 -0.7096 -1.1588
  110bbb     C9 3215   8.066   3.854   9.378  0.4973  0.4402  0.3173
  110bbb    H17 3216   8.047   3.957   9.346 -1.8426 -0.1447 -0.3243
  110bbb    H18 3217   8.006   3.835   9.467 -0.8774  0.3265 -0.6022
  110bbb     O1 3218   8.598   3.604   9.928  0.5537 -0.0613  0.6224
  111bbb     N1 3219   7.668   4.013  10.377  0.2258  0.0848 -0.1111
  111bbb     C1 3220   7.653   3.868  10.404 -0.4930 -0.0413 -0.3767
  111bbb     H1 3221   7.548   3.836  10.407 -0.3617 -0.9081 -3.0246
  111bbb     H2 3222   7.698   3.855  10.503  3.2345  2.2106 -1.5721
  111bbb     C2 3223   7.588   4.101  10.468  0.5255 -0.4776  0.0219
  111bbb     H3 3224   7.589   4.199  10.419  0.0382 -0.7916 -0.6382
  111bbb     H4 3225   7.641   4.122  10.562  2.9310 -0.1141 -1.3448
  111bbb     C3 3226   7.799   4.063  10.331  0.7497 -0.6575  0.3628
  111bbb     H5 3227   7.781   4.158  10.279  0.7393 -0.8336  0.0424
  111bbb     H6 3228   7.844   3.992  10.261 -0.8535  0.1377 -1.5830
  111bbb     C4 3229   7.899   4.088  10.448 -0.5433  0.5194 -0.6605
  111bbb     H7 3230   7.903   3.997  10.509  0.3478 -1.2617 -3.1829
  111bbb     H8 3231   7.862   4.170  10.511 -0.7452  1.6433 -2.1931
  111bbb     C5 3232   7.711   3.766  10.309 -0.0370  0.4460  1.0420
  111bbb     H9 3233   7.688   3.663  10.341  2.2614 -0.9282 -1.2918
  111bbb    H10 3234   7.821   3.771  10.305  0.0176 -0.6455  0.5768
  111bbb     C6 3235   7.443   4.053  10.508  0.4349  0.1437 -0.3465
  111bbb    H11 3236   7.444   3.961  10.567 -1.1430  2.0754  2.9417
  111bbb    H12 3237   7.392   4.026  10.415  1.7679 -2.1106 -0.5098
  111bbb     C7 3238   8.041   4.135  10.410  0.3253 -0.8035 -0.2760
  111bbb    H13 3239   8.075   4.179  10.504  0.1225 -2.0610  0.4030
  111bbb    H14 3240   8.051   4.223  10.346 -0.4445 -0.4650  0.0547
  111bbb     C8 3241   7.363   4.157  10.580  0.5161  0.2214  0.4134
  111bbb    H15 3242   7.359   4.249  10.520  0.6037  0.3901  0.6697
  111bbb    H16 3243   7.411   4.163  10.678  1.7981 -1.1549 -0.0986
  111bbb     C9 3244   7.670   3.787  10.160  0.0718 -0.9411  0.2347
  111bbb    H17 3245   7.725   3.873  10.120  1.9464 -1.4927  1.5289
  111bbb    H18 3246   7.564   3.815  10.153  0.8844  2.4377 -0.5126
  111bbb     O1 3247   8.116   4.022  10.378 -0.6364 -0.2387  0.7583
  112bbb     N1 3248   9.747   4.499   9.412  0.4261  0.3791 -0.0526
  112bbb     C1 3249   9.676   4.426   9.298 -0.6183 -0.3381 -0.6746
  112bbb     H1 3250   9.753   4.461   9.228  0.5056  0.7369  1.0272
  112bbb     H2 3251   9.616   4.514   9.274  1.0108  1.4666  1.4434
  112bbb     C2 3252   9.893   4.512   9.402 -0.1118  0.4485  0.6068
  112bbb     H3 3253   9.951   4.436   9.347 -0.3737  0.4494  0.3250
  112bbb     H4 3254   9.936   4.499   9.502 -0.8703 -1.5165  0.7357
  112bbb     C3 3255   9.670   4.611   9.468 -0.0523 -0.1930 -0.8908
  112bbb     H5 3256   9.564   4.587   9.487 -0.0227  0.7866  0.6762
  112bbb     H6 3257   9.672   4.688   9.390  0.7345 -1.3609 -2.0746
  112bbb     C4 3258   9.728   4.667   9.602  0.5376  0.2139  0.8325
  112bbb     H7 3259   9.667   4.757   9.618 -1.1104 -0.5137 -0.9548
  112bbb     H8 3260   9.831   4.704   9.593  0.9266 -1.2417 -1.3943
  112bbb     C5 3261   9.569   4.188   9.259  0.3140 -0.3297 -0.9130
  112bbb     H9 3262   9.508   4.142   9.338 -1.2586  0.7479 -1.4459
  112bbb    H10 3263   9.636   4.102   9.251  1.6577  0.8335 -3.2279
  112bbb     C6 3264   9.948   4.644   9.344 -0.7135  0.0427 -0.1211
  112bbb    H11 3265  10.054   4.658   9.367 -0.3765 -2.3470  0.0717
  112bbb    H12 3266   9.894   4.733   9.377  0.0781  0.2883  0.5318
  112bbb     C7 3267   9.710   4.572   9.726 -0.7782  0.4175  0.3678
  112bbb    H13 3268   9.771   4.613   9.808  1.6246  0.9708 -1.5538
  112bbb    H14 3269   9.745   4.471   9.704 -2.2153 -0.2958  1.2405
  112bbb     C8 3270   9.936   4.646   9.187 -0.0584 -0.2654  0.4078
  112bbb    H15 3271   9.828   4.646   9.169 -0.1893 -2.1296  0.9663
  112bbb    H16 3272   9.989   4.562   9.140  0.5553  0.7292 -0.7395
  112bbb     C9 3273   9.477   4.120   9.145  0.1257 -0.4747 -0.8508
  112bbb    H17 3274   9.536   4.107   9.053  1.2463 -1.8376  0.0098
  112bbb    H18 3275   9.390   4.176   9.110  0.0784  0.6260  0.9356
  112bbb     O1 3276   9.578   4.571   9.764 -0.5760  0.0040  0.0983
  113bbb     N1 3277  10.365   4.543   9.750 -0.2084 -0.0645 -0.3401
  113bbb     C1 3278  10.384   4.466   9.621 -0.1577  0.3254 -0.1708
  113bbb     H1 3279  10.284   4.456   9.578  0.6054 -1.3497 -1.6759
  113bbb     H2 3280  10.415   4.366   9.653  0.8653 -0.0875 -2.2736
  113bbb     C2 3281  10.352   4.699   9.732  0.2845  0.4264  0.0651
  113bbb     H3 3282  10.442   4.734   9.679  0.2539  0.4414  0.0233
  113bbb     H4 3283  10.350   4.744   9.832 -0.3715 -0.7079  0.5725
  113bbb     C3 3284  10.272   4.474   9.844  0.0890 -0.1849 -0.6988
  113bbb     H5 3285  10.314   4.377   9.871 -0.7351 -0.3064  0.2015
  113bbb     H6 3286  10.182   4.458   9.783  2.0555  0.3432 -3.9880
  113bbb     C4 3287  10.252   4.546   9.981  0.4195 -0.0896  0.2744
  113bbb     H7 3288  10.187   4.634   9.983 -0.8880 -1.0321  2.0131
  113bbb     H8 3289  10.349   4.575  10.023  0.1400  0.7920  0.3311
  113bbb     C5 3290  10.479   4.521   9.510 -0.2622 -0.1495 -0.2100
  113bbb     H9 3291  10.453   4.626   9.490  2.2018  0.7117  0.6657
  113bbb    H10 3292  10.463   4.464   9.418 -0.0074 -1.1204  0.3298
  113bbb     C6 3293  10.232   4.756   9.655 -0.5176 -0.5349  0.5202
  113bbb    H11 3294  10.150   4.690   9.683 -0.6336 -1.2000 -1.2472
  113bbb    H12 3295  10.247   4.749   9.546 -2.7490  0.7151  0.0820
  113bbb     C7 3296  10.187   4.443  10.088 -0.2953 -0.0696  0.6334
  113bbb    H13 3297  10.188   4.475  10.193 -0.1719 -1.4310  1.0673
  113bbb    H14 3298  10.245   4.350  10.078  1.4518  0.8122  1.8774
  113bbb     C8 3299  10.212   4.910   9.688 -0.1660  0.2394 -0.5847
  113bbb    H15 3300  10.291   4.974   9.646  0.6910  1.5696  2.7176
  113bbb    H16 3301  10.222   4.918   9.797  0.5348 -0.5724 -0.5773
  113bbb     C9 3302  10.632   4.525   9.554 -0.5658 -0.2900  0.2626
  113bbb    H17 3303  10.639   4.566   9.656 -0.1967  1.4228 -0.4145
  113bbb    H18 3304  10.682   4.600   9.492 -0.5303 -0.3801  0.1829
  113bbb     O1 3305  10.048   4.413  10.056 -0.3426  0.6823 -0.6267
  114bbb     N1 3306   7.814   5.291   8.852 -0.8474 -0.2945  0.2574
  114bbb     C1 3307   7.689   5.364   8.890 -0.2584 -0.0142 -0.5660
  114bbb     H1 3308   7.637   5.296   8.959  0.7861 -1.6430 -1.3257
  114bbb     H2 3309   7.632   5.382   8.798  1.9450  0.5169 -1.8941
  114bbb     C2 3310   7.780   5.165   8.783 -0.3149 -0.9525  0.0823
  114bbb     H3 3311   7.705   5.123   8.852  0.5254  1.5158  2.7008
  114bbb     H4 3312   7.865   5.095   8.780 -2.0227 -3.2274  1.4504
  114bbb     C3 3313   7.913   5.279   8.968 -0.5829 -0.3767 -0.0698
  114bbb     H5 3314   7.868   5.204   9.035 -0.0176 -0.1655  0.5500
  114bbb     H6 3315   7.918   5.373   9.024  0.3983 -0.1589 -0.5166
  114bbb     C4 3316   8.054   5.228   8.921  0.0775  0.0425  0.3443
  114bbb     H7 3317   8.111   5.316   8.890 -0.6478 -0.6239 -3.3323
  114bbb     H8 3318   8.060   5.155   8.839  2.4247 -1.4229  1.6895
  114bbb     C5 3319   7.704   5.501   8.962 -0.3298  0.5495  0.0459
  114bbb     H9 3320   7.775   5.565   8.907  0.3509  1.3441  1.7816
  114bbb    H10 3321   7.755   5.477   9.056  1.7315  3.2418 -0.2519
  114bbb     C6 3322   7.719   5.186   8.636 -0.2750  0.1980 -0.4130
  114bbb    H11 3323   7.790   5.244   8.575  2.1211 -1.9898  0.1150
  114bbb    H12 3324   7.623   5.239   8.639 -0.5284 -0.2856  0.3574
  114bbb     C7 3325   8.111   5.160   9.037 -0.4879  0.0003  0.2266
  114bbb    H13 3326   8.091   5.225   9.123 -1.1543  0.6328 -0.3922
  114bbb    H14 3327   8.218   5.145   9.021 -0.5403  0.1019 -0.2182
  114bbb     C8 3328   7.689   5.051   8.578  0.2364 -0.8411 -0.6629
  114bbb    H15 3329   7.600   5.014   8.629 -0.0354  1.9189  1.0905
  114bbb    H16 3330   7.769   4.977   8.589  2.2702  1.3885  0.5413
  114bbb     C9 3331   7.574   5.589   8.990 -0.4925 -0.5568  0.1158
  114bbb    H17 3332   7.491   5.528   9.027  1.0235 -2.7797  0.1093
  114bbb    H18 3333   7.535   5.623   8.894  0.1024 -2.3652 -0.8191
  114bbb     O1 3334   8.044   5.037   9.067  0.1323  0.1947  0.7877
  115bbb     N1 3335   7.176   4.752   9.331  0.4577  0.8297 -0.0809
  115bbb     C1 3336   7.037   4.716   9.324 -0.5635 -0.2102 -0.2784
  115bbb     H1 3337   6.970   4.800   9.305 -0.2798 -0.1460 -1.0334
  115bbb     H2 3338   7.004   4.669   9.417  0.1028  1.1888  0.6849
  115bbb     C2 3339   7.258   4.648   9.394 -0.1179  0.2932 -0.9038
  115bbb     H3 3340   7.212   4.550   9.380 -1.3091  0.4904  1.1873
  115bbb     H4 3341   7.253   4.655   9.504 -0.7692 -2.1863 -0.7137
  115bbb     C3 3342   7.196   4.887   9.370 -0.3109 -0.0157 -0.0938
  115bbb     H5 3343   7.285   4.913   9.429 -0.8644  1.5364  0.1136
  115bbb     H6 3344   7.118   4.923   9.437  0.7805  1.3705  0.4983
  115bbb     C4 3345   7.187   4.979   9.246  0.1948 -0.2439 -1.0433
  115bbb     H7 3346   7.216   5.082   9.269  0.3040 -0.6386  0.8102
  115bbb     H8 3347   7.088   4.979   9.199 -0.5456  0.8638  0.4275
  115bbb     C5 3348   7.009   4.607   9.217  0.3812 -0.2492 -0.7584
  115bbb     H9 3349   6.900   4.602   9.204 -0.0557  0.8412  1.8437
  115bbb    H10 3350   7.035   4.514   9.268 -2.2732 -1.4227 -1.3470
  115bbb     C6 3351   7.407   4.644   9.358  0.4335 -0.2599 -0.6673
  115bbb    H11 3352   7.461   4.729   9.400  1.3337 -1.9273  1.7779
  115bbb    H12 3353   7.417   4.655   9.249  4.2668 -2.5010 -0.7132
  115bbb     C7 3354   7.299   4.939   9.149 -0.6942  0.0537 -0.1594
  115bbb    H13 3355   7.284   4.989   9.053  1.4885  0.1977 -0.4736
  115bbb    H14 3356   7.292   4.830   9.138  0.0710 -0.0147 -0.0451
  115bbb     C8 3357   7.470   4.513   9.407  0.0356  0.5000 -0.1766
  115bbb    H15 3358   7.432   4.477   9.504 -0.3891 -0.6424 -0.7502
  115bbb    H16 3359   7.579   4.528   9.414 -0.0251  0.9006 -0.1099
  115bbb     C9 3360   7.085   4.619   9.082  0.6762 -0.4824  0.1589
  115bbb    H17 3361   7.193   4.610   9.096  1.0639  0.2826 -2.0550
  115bbb    H18 3362   7.070   4.720   9.044 -0.6621 -0.7370 -0.0437
  115bbb     O1 3363   7.426   4.980   9.200  0.3264 -0.2102  0.5881
  116bbb     N1 3364   7.562   4.634   8.858 -0.5820  0.0897 -0.4173
  116bbb     C1 3365   7.550   4.559   8.991  0.3728 -0.1604  0.8315
  116bbb     H1 3366   7.444   4.543   9.011 -0.0642 -1.9616 -2.4134
  116bbb     H2 3367   7.600   4.619   9.069  0.9345  0.3184  0.1138
  116bbb     C2 3368   7.477   4.752   8.850 -0.1402 -0.5018  0.7691
  116bbb     H3 3369   7.536   4.843   8.871 -0.8200  0.3156 -0.6859
  116bbb     H4 3370   7.398   4.741   8.924  0.4148 -1.0752  1.2817
  116bbb     C3 3371   7.703   4.652   8.814  0.5081 -0.0356  1.3005
  116bbb     H5 3372   7.690   4.708   8.721  0.8836 -1.5120  0.3228
  116bbb     H6 3373   7.752   4.555   8.801  0.3703 -0.1366  1.5226
  116bbb     C4 3374   7.792   4.730   8.914  0.3829 -0.6439  0.2129
  116bbb     H7 3375   7.807   4.672   9.006  1.4771 -2.1546 -0.8462
  116bbb     H8 3376   7.753   4.831   8.927  1.4739 -0.1967  0.0731
  116bbb     C5 3377   7.610   4.418   8.990  0.6661 -0.2661  0.3888
  116bbb     H9 3378   7.613   4.386   9.094 -2.0546  0.2648  0.7076
  116bbb    H10 3379   7.716   4.421   8.963  0.7789  2.6590  0.8825
  116bbb     C6 3380   7.412   4.762   8.708 -0.6992 -0.3157 -0.3279
  116bbb    H11 3381   7.376   4.661   8.684 -4.6600  0.3692  1.8723
  116bbb    H12 3382   7.494   4.794   8.643  1.3021 -1.6913  1.4020
  116bbb     C7 3383   7.933   4.753   8.843 -0.1962 -0.6229  0.0248
  116bbb    H13 3384   7.990   4.820   8.908  0.4735  0.3255 -1.4917
  116bbb    H14 3385   7.907   4.802   8.748  0.6671 -0.5201 -0.1643
  116bbb     C8 3386   7.305   4.872   8.706  0.3793 -0.1144  0.2959
  116bbb    H15 3387   7.249   4.857   8.799  2.0218 -1.8554  1.0699
  116bbb    H16 3388   7.233   4.868   8.624  0.0020  0.8494  0.5575
  116bbb     C9 3389   7.526   4.317   8.901 -0.2266  0.2921  0.4194
  116bbb    H17 3390   7.537   4.351   8.797  2.5684 -2.6137 -0.3945
  116bbb    H18 3391   7.422   4.314   8.937 -1.5473  1.2151 -2.9592
  116bbb     O1 3392   8.011   4.632   8.835  0.1945 -0.1657  0.1880
  117bbb     N1 3393   9.017   5.312   8.748  0.2039  0.1655 -0.4987
  117bbb     C1 3394   9.002   5.387   8.882 -1.0276  0.2663  0.3762
  117bbb     H1 3395   8.944   5.480   8.881  0.3751  1.1800  0.5849
  117bbb     H2 3396   9.108   5.409   8.904 -0.7100 -0.5800 -0.2417
  117bbb     C2 3397   9.090   5.388   8.641 -0.1882  0.2536 -0.5081
  117bbb     H3 3398   9.027   5.449   8.576  0.0810 -0.3368 -1.3425
  117bbb     H4 3399   9.126   5.313   8.570  0.8935  0.3721 -0.1105
  117bbb     C3 3400   8.899   5.244   8.701 -0.2376 -1.2974  0.0777
  117bbb     H5 3401   8.866   5.160   8.763  0.0109 -1.8641 -0.5475
  117bbb     H6 3402   8.932   5.197   8.608  1.7559 -0.3636  0.2424
  117bbb     C4 3403   8.780   5.343   8.690 -0.0327  0.2787  0.5866
  117bbb     H7 3404   8.810   5.432   8.633  2.7220 -1.6528 -1.2333
  117bbb     H8 3405   8.752   5.385   8.787 -1.4438  0.4248  0.1390
  117bbb     C5 3406   8.961   5.300   8.992  0.0622  0.6433  0.2314
  117bbb     H9 3407   8.965   5.194   8.965  0.1166 -0.4339  3.8629
  117bbb    H10 3408   8.856   5.308   9.023  0.0333  0.5601  0.1558
  117bbb     C6 3409   9.228   5.462   8.682  0.1596 -0.3371  0.3686
  117bbb    H11 3410   9.208   5.540   8.757 -0.9390 -0.3795  0.1334
  117bbb    H12 3411   9.261   5.521   8.596  1.7318 -0.7174  0.6717
  117bbb     C7 3412   8.655   5.271   8.625 -0.5089 -0.3332  0.4787
  117bbb    H13 3413   8.690   5.251   8.523  0.6374  0.7042  0.6510
  117bbb    H14 3414   8.569   5.338   8.608  0.8545  1.3473 -0.0528
  117bbb     C8 3415   9.349   5.371   8.711 -0.0917 -0.1572 -0.3277
  117bbb    H15 3416   9.371   5.311   8.622  0.9724 -0.8818  0.3990
  117bbb    H16 3417   9.332   5.303   8.796  0.3671  1.7122  1.3353
  117bbb     C9 3418   9.048   5.288   9.126  0.4541 -0.4205 -0.1108
  117bbb    H17 3419   9.154   5.302   9.102 -0.3033  0.6718 -3.3320
  117bbb    H18 3420   9.033   5.192   9.176  1.2877 -0.3054  0.3800
  117bbb     O1 3421   8.622   5.150   8.688  0.1515 -0.1901 -0.1962
  118bbb     N1 3422   8.333   6.155  10.734  0.0995  0.0402  0.4298
  118bbb     C1 3423   8.239   6.169  10.847 -0.6332 -0.0550  0.1377
  118bbb     H1 3424   8.160   6.239  10.818  0.0748 -0.0917 -2.0952
  118bbb     H2 3425   8.275   6.216  10.939 -0.6140  0.1701  0.0146
  118bbb     C2 3426   8.463   6.089  10.765 -0.6269  0.1422 -0.0617
  118bbb     H3 3427   8.530   6.088  10.678 -1.1254 -1.8486 -0.4711
  118bbb     H4 3428   8.446   5.986  10.796  0.9110 -0.0774  0.0803
  118bbb     C3 3429   8.266   6.120  10.598  0.2492  0.1409 -0.3850
  118bbb     H5 3430   8.239   6.014  10.594  1.0260 -0.0798 -0.0701
  118bbb     H6 3431   8.343   6.137  10.521 -0.4390  0.5131 -0.9997
  118bbb     C4 3432   8.138   6.196  10.561  0.3488  0.5573  0.0505
  118bbb     H7 3433   8.151   6.304  10.578  0.4222  0.4297  0.8350
  118bbb     H8 3434   8.060   6.177  10.636  0.7836  0.7700  0.5656
  118bbb     C5 3435   8.175   6.035  10.896 -0.3474 -0.6384  0.4029
  118bbb     H9 3436   8.259   5.965  10.904  0.9662  0.6169 -1.5504
  118bbb    H10 3437   8.108   6.003  10.814 -1.6414  0.4269  1.0142
  118bbb     C6 3438   8.544   6.174  10.875  0.5975 -0.4406  0.1110
  118bbb    H11 3439   8.645   6.134  10.859  1.1680  1.2609 -0.8082
  118bbb    H12 3440   8.514   6.155  10.979 -2.1316  0.3791 -0.4346
  118bbb     C7 3441   8.082   6.183  10.417  0.8338  0.2821 -0.1654
  118bbb    H13 3442   7.981   6.223  10.406  0.9564  0.4118 -0.8725
  118bbb    H14 3443   8.074   6.074  10.404  3.7303 -0.0450  0.0510
  118bbb     C8 3444   8.547   6.330  10.851  0.6190  0.0287 -0.9866
  118bbb    H15 3445   8.457   6.373  10.897  2.4269  1.3099  1.6329
  118bbb    H16 3446   8.541   6.351  10.743 -0.5775  1.0116 -0.7470
  118bbb     C9 3447   8.088   6.041  11.027 -0.3914 -0.6412  0.8163
  118bbb    H17 3448   8.150   6.062  11.115 -1.3630  2.7694  0.8303
  118bbb    H18 3449   8.035   5.946  11.041 -2.3978  0.5676  1.7819
  118bbb     O1 3450   8.170   6.248  10.323  0.3013  0.0486  0.5236
  119bbb     N1 3451   8.745   6.838  10.279  0.1289  0.0650 -0.1261
  119bbb     C1 3452   8.615   6.830  10.209  0.5611  0.9186  0.7575
  119bbb     H1 3453   8.551   6.751  10.251 -1.9440  2.7320  0.5472
  119bbb     H2 3454   8.628   6.806  10.103  0.2352  0.9916  0.6996
  119bbb     C2 3455   8.741   6.894  10.425 -0.2966 -0.6574  0.5417
  119bbb     H3 3456   8.689   6.823  10.490 -1.9690  1.1904  1.3240
  119bbb     H4 3457   8.685   6.988  10.416  1.5435  0.5910  1.4677
  119bbb     C3 3458   8.841   6.727  10.260 -0.2860  0.2461  0.0490
  119bbb     H5 3459   8.782   6.635  10.265  0.8687 -0.7264 -2.2747
  119bbb     H6 3460   8.923   6.736  10.332 -0.8734  1.8346  0.5657
  119bbb     C4 3461   8.914   6.710  10.127 -0.6111 -0.1991  0.1980
  119bbb     H7 3462   9.000   6.645  10.150  0.3803  1.3377  0.9677
  119bbb     H8 3463   8.961   6.800  10.088 -0.6051  0.3663  1.4753
  119bbb     C5 3464   8.541   6.968  10.218 -1.2678 -0.4514  0.1467
  119bbb     H9 3465   8.612   7.050  10.207 -1.7406  0.0704  0.9096
  119bbb    H10 3466   8.508   6.986  10.321  0.2101 -1.2836  0.7985
  119bbb     C6 3467   8.878   6.928  10.491 -0.0716 -0.2405  0.3049
  119bbb    H11 3468   8.939   6.981  10.417  1.3176 -2.0617  0.1084
  119bbb    H12 3469   8.940   6.842  10.516  0.6206  0.5497  1.4607
  119bbb     C7 3470   8.842   6.635  10.012 -0.7738  0.0491 -0.2256
  119bbb    H13 3471   8.911   6.616   9.929 -1.3019 -1.0432 -0.4367
  119bbb    H14 3472   8.761   6.703   9.979  0.0439  1.2611  0.2095
  119bbb     C8 3473   8.875   6.991  10.632  0.1042 -0.6214  0.0077
  119bbb    H15 3474   8.880   7.101  10.636  3.2858 -0.6477 -0.3543
  119bbb    H16 3475   8.967   6.971  10.687 -0.3552  0.2965  1.1482
  119bbb     C9 3476   8.427   6.969  10.116  0.6577 -0.2105  0.1912
  119bbb    H17 3477   8.366   6.879  10.126  0.7469 -0.5011 -1.5112
  119bbb    H18 3478   8.461   6.948  10.014  1.4077 -1.2404  0.6388
  119bbb     O1 3479   8.786   6.511  10.056 -0.2175  0.1402  1.1897
  120bbb     N1 3480   8.266   5.739  11.328  0.3632 -0.2428 -0.0171
  120bbb     C1 3481   8.273   5.623  11.418  0.8161  0.6457  0.0057
  120bbb     H1 3482   8.176   5.577  11.439  0.9016  0.6732  0.4714
  120bbb     H2 3483   8.313   5.643  11.518  1.9683 -0.5062 -0.2011
  120bbb     C2 3484   8.207   5.711  11.195 -0.1938  0.1627  0.2363
  120bbb     H3 3485   8.257   5.631  11.139 -0.4006 -0.0423  0.3405
  120bbb     H4 3486   8.221   5.797  11.129  0.5464 -0.8453 -0.9618
  120bbb     C3 3487   8.391   5.818  11.318  0.0993  0.2621 -0.2132
  120bbb     H5 3488   8.471   5.777  11.255  0.1129  0.4315 -0.3051
  120bbb     H6 3489   8.432   5.822  11.420  2.4046  0.6472 -1.0937
  120bbb     C4 3490   8.371   5.965  11.272  0.3681 -0.0720 -0.5664
  120bbb     H7 3491   8.286   6.016  11.316  1.4387  0.0173  1.4994
  120bbb     H8 3492   8.368   5.962  11.162  1.5865  1.5200 -0.6814
  120bbb     C5 3493   8.361   5.500  11.374 -0.6734  0.4119  0.1557
  120bbb     H9 3494   8.458   5.528  11.332  1.2409 -3.1542  1.7310
  120bbb    H10 3495   8.329   5.459  11.278  0.8138  1.1245 -0.6887
  120bbb     C6 3496   8.058   5.680  11.199  0.1562  0.0645  0.5611
  120bbb    H11 3497   8.045   5.577  11.235  0.6003  0.3055  1.4462
  120bbb    H12 3498   8.018   5.678  11.097 -2.3083  1.5581  1.4089
  120bbb     C7 3499   8.501   6.043  11.312 -0.0590  0.0052 -0.6089
  120bbb    H13 3500   8.523   6.030  11.419 -1.6439 -1.5753 -0.4259
  120bbb    H14 3501   8.481   6.150  11.312  0.5477  0.2230  2.4644
  120bbb     C8 3502   7.972   5.766  11.292 -0.2525 -0.1734  0.0679
  120bbb    H15 3503   8.004   5.870  11.306 -0.4230 -0.2843  1.5459
  120bbb    H16 3504   7.980   5.728  11.395 -0.5674 -0.5544 -0.0492
  120bbb     C9 3505   8.390   5.390  11.484  0.0731  0.0849  1.1220
  120bbb    H17 3506   8.307   5.390  11.555 -0.4005  0.6644  0.5832
  120bbb    H18 3507   8.483   5.426  11.528 -0.4763  2.6371  0.3779
  120bbb     O1 3508   8.606   5.999  11.228 -0.3517  0.7306  0.4187
  121bbb     N1 3509   9.238   5.531  11.815  0.8170  0.1826 -0.1282
  121bbb     C1 3510   9.382   5.500  11.822 -0.0369  0.2093  0.3566
  121bbb     H1 3511   9.432   5.598  11.828 -1.7497  1.2748 -1.4544
  121bbb     H2 3512   9.409   5.456  11.726  0.2255 -2.2479  1.4964
  121bbb     C2 3513   9.191   5.662  11.864 -0.0885  0.3544  0.1711
  121bbb     H3 3514   9.083   5.671  11.845 -0.2814  1.5545  1.6555
  121bbb     H4 3515   9.241   5.736  11.801  1.7981 -2.4198 -1.8059
  121bbb     C3 3516   9.190   5.511  11.673 -0.0236  0.5506 -0.6521
  121bbb     H5 3517   9.081   5.510  11.668 -0.2833  3.4730  1.6798
  121bbb     H6 3518   9.224   5.414  11.635 -0.3010  0.3829 -0.4729
  121bbb     C4 3519   9.247   5.622  11.583  0.1157 -0.0028 -0.4317
  121bbb     H7 3520   9.348   5.653  11.611  0.2913 -1.2126  0.3104
  121bbb     H8 3521   9.179   5.708  11.595 -1.2485 -1.0129 -0.6298
  121bbb     C5 3522   9.416   5.400  11.933  0.1076  0.7928  0.3934
  121bbb     H9 3523   9.388   5.445  12.029 -2.4231 -0.3324  0.2793
  121bbb    H10 3524   9.525   5.397  11.939  0.0839 -0.3381  0.6383
  121bbb     C6 3525   9.218   5.701  12.017 -0.0793  0.2187  0.9580
  121bbb    H11 3526   9.326   5.717  12.021  0.0985 -0.3075 -0.7910
  121bbb    H12 3527   9.190   5.607  12.066 -1.0711  0.4424  0.8425
  121bbb     C7 3528   9.246   5.594  11.436 -1.1231 -0.2249  0.1795
  121bbb    H13 3529   9.154   5.541  11.410 -1.7385 -0.6388  2.9321
  121bbb    H14 3530   9.335   5.531  11.425 -0.5304  0.4461  0.9979
  121bbb     C8 3531   9.138   5.827  12.054 -0.8577 -0.4539 -0.3445
  121bbb    H15 3532   9.179   5.915  12.004 -1.6930  0.3051  0.2669
  121bbb    H16 3533   9.153   5.848  12.161  0.1871 -1.1086 -0.3452
  121bbb     C9 3534   9.349   5.259  11.917  0.0699 -0.2426 -0.1205
  121bbb    H17 3535   9.386   5.208  11.827  0.2583  1.4935 -1.0876
  121bbb    H18 3536   9.243   5.285  11.902  0.4319  1.0933 -0.5070
  121bbb     O1 3537   9.259   5.711  11.358 -0.3128  0.0961  0.1311
  122bbb     N1 3538   7.560   5.988   8.789  0.5012  0.3643  0.3397
  122bbb     C1 3539   7.556   5.851   8.720  0.1770 -0.0041 -0.3012
  122bbb     H1 3540   7.526   5.861   8.614  2.0046 -0.0074 -0.8473
  122bbb     H2 3541   7.500   5.772   8.771  1.2121  0.3901  1.5118
  122bbb     C2 3542   7.560   5.972   8.947 -0.1020 -0.9775  0.8532
  122bbb     H3 3543   7.642   6.045   8.958 -0.8115 -0.1068  0.5411
  122bbb     H4 3544   7.623   5.883   8.951  1.6890  0.2796  2.2455
  122bbb     C3 3545   7.662   6.081   8.735 -0.1896  0.7927 -0.2201
  122bbb     H5 3546   7.756   6.024   8.729 -0.5039  0.2290  0.0950
  122bbb     H6 3547   7.675   6.168   8.800 -2.3327 -0.0389  1.4511
  122bbb     C4 3548   7.644   6.132   8.588  0.8800 -0.4094  0.2970
  122bbb     H7 3549   7.551   6.189   8.590  0.6147 -0.7548 -0.9708
  122bbb     H8 3550   7.633   6.048   8.517  0.9360  0.2130 -0.4649
  122bbb     C5 3551   7.696   5.780   8.698 -0.8929 -0.3416 -0.8868
  122bbb     H9 3552   7.740   5.754   8.795  0.5602  0.2794 -1.3500
  122bbb    H10 3553   7.775   5.841   8.651 -0.7290 -0.5223 -0.8468
  122bbb     C6 3554   7.372   5.988   9.130  0.4374  0.0485 -0.7709
  122bbb    H11 3555   7.288   5.917   9.122  0.3550  0.2273 -1.6824
  122bbb    H12 3556   7.297   6.068   9.134  0.1468 -0.1883 -1.3409
  122bbb     C7 3557   7.762   6.222   8.540  0.2181  0.5031  0.5205
  122bbb    H13 3558   7.748   6.241   8.433 -0.9971 -0.1474  0.5415
  122bbb    H14 3559   7.859   6.174   8.557  0.9592  1.9613  0.4699
  122bbb     C8 3560   7.366   5.981   9.294  0.4613  0.1402 -0.0393
  122bbb    H15 3561   7.422   6.058   9.348  0.9270 -0.6800  0.6657
  122bbb    H16 3562   7.422   5.899   9.340  0.9800  0.0821 -0.7577
  122bbb     C9 3563   7.688   5.644   8.630  0.5501  0.3610  0.3659
  122bbb    H17 3564   7.604   5.578   8.650 -0.0608  0.5802 -1.3194
  122bbb    H18 3565   7.769   5.587   8.678  0.4242  1.3836  1.8857
  122bbb     O1 3566   7.755   6.346   8.608  0.1704 -0.0307  0.6373
  123bbb     N1 3567   7.741   6.782   9.674 -0.1484  0.1158 -0.0043
  123bbb     C1 3568   7.774   6.863   9.805  0.2101  0.1162  0.3733
  123bbb     H1 3569   7.779   6.791   9.887 -1.1769 -1.9596 -1.2420
  123bbb     H2 3570   7.690   6.934   9.803  0.1309  0.1045 -3.1564
  123bbb     C2 3571   7.646   6.671   9.695  0.4615  0.0438  0.6927
  123bbb     H3 3572   7.703   6.595   9.750  0.0455  1.5675  3.4087
  123bbb     H4 3573   7.615   6.625   9.600  0.3268  0.4133  0.5546
  123bbb     C3 3574   7.865   6.746   9.591  0.7312  0.0975 -0.4075
  123bbb     H5 3575   7.904   6.652   9.632 -0.3530 -0.2473 -0.1364
  123bbb     H6 3576   7.955   6.808   9.588  0.6591  0.3298  1.1618
  123bbb     C4 3577   7.827   6.727   9.443 -0.5491  0.0700 -0.0127
  123bbb     H7 3578   7.786   6.826   9.416 -2.6968 -0.7119  0.1991
  123bbb     H8 3579   7.750   6.653   9.420 -0.2351 -0.0514 -0.7123
  123bbb     C5 3580   7.910   6.958   9.800 -0.0230  0.3883 -0.3020
  123bbb     H9 3581   7.999   6.898   9.777 -0.4079 -0.7589  1.0567
  123bbb    H10 3582   7.934   6.997   9.900 -0.1996  0.9445 -0.4684
  123bbb     C6 3583   7.519   6.705   9.774  1.3224  0.4048 -0.2570
  123bbb    H11 3584   7.534   6.730   9.880 -1.4090 -2.0454  0.8402
  123bbb    H12 3585   7.455   6.617   9.791  0.2173  1.2868  0.3193
  123bbb     C7 3586   7.947   6.706   9.350  0.4962 -0.0390  0.5826
  123bbb    H13 3587   8.026   6.654   9.406 -0.7869 -0.6326  1.9127
  123bbb    H14 3588   7.977   6.806   9.315  0.0145  0.0041  0.2889
  123bbb     C8 3589   7.435   6.816   9.707  0.3603  0.1577  0.2361
  123bbb    H15 3590   7.435   6.798   9.599  1.9658 -0.7197  0.3458
  123bbb    H16 3591   7.486   6.913   9.712  0.0910  0.3436 -0.4261
  123bbb     C9 3592   7.902   7.066   9.691  0.1213 -0.3037 -0.0995
  123bbb    H17 3593   7.859   7.024   9.600 -0.0053  0.7903 -0.5652
  123bbb    H18 3594   8.003   7.091   9.657  1.1579 -0.9728  2.2788
  123bbb     O1 3595   7.894   6.637   9.230  0.2929 -0.2980 -0.0684
  124bbb     N1 3596   7.289   4.740   9.782 -0.4467 -0.3667 -0.1260
  124bbb     C1 3597   7.303   4.692   9.919  0.0244 -0.1134  0.8310
  124bbb     H1 3598   7.266   4.775   9.981  0.7345  0.0819  1.0018
  124bbb     H2 3599   7.407   4.679   9.951  0.6991 -0.2117 -1.2580
  124bbb     C2 3600   7.153   4.773   9.730 -0.2962  0.8448  0.3636
  124bbb     H3 3601   7.083   4.699   9.771  1.4454 -0.6205  0.8374
  124bbb     H4 3602   7.142   4.754   9.623  1.4162  2.3508 -0.1258
  124bbb     C3 3603   7.394   4.836   9.742 -0.2620 -1.0312  0.0834
  124bbb     H5 3604   7.394   4.921   9.811 -2.1645  0.1409 -1.2503
  124bbb     H6 3605   7.371   4.871   9.641 -1.8308  0.1026  0.8037
  124bbb     C4 3606   7.532   4.767   9.730  0.9522 -0.1769  0.1413
  124bbb     H7 3607   7.527   4.696   9.647 -0.9919 -0.2168  0.2516
  124bbb     H8 3608   7.550   4.710   9.822 -2.1527 -1.8192 -0.1347
  124bbb     C5 3609   7.222   4.562   9.960 -0.5391 -0.3814 -0.0432
  124bbb     H9 3610   7.281   4.489  10.016  2.7306  1.5998 -0.6142
  124bbb    H10 3611   7.212   4.509   9.865 -0.0236  0.8102 -0.7908
  124bbb     C6 3612   7.103   4.920   9.755 -0.4658  0.2865  0.3336
  124bbb    H11 3613   7.015   4.942   9.694 -0.4048 -0.5771 -0.0854
  124bbb    H12 3614   7.186   4.983   9.723 -0.1437 -0.7713 -0.9813
  124bbb     C7 3615   7.656   4.854   9.702 -0.0425 -0.1860  0.4710
  124bbb    H13 3616   7.625   4.901   9.608  0.0923 -1.7328 -0.3712
  124bbb    H14 3617   7.741   4.785   9.698  2.2880  2.1882  3.6085
  124bbb     C8 3618   7.073   4.959   9.903 -0.3076  0.2246 -1.0308
  124bbb    H15 3619   7.158   5.020   9.935 -0.5799  0.6591 -1.1300
  124bbb    H16 3620   7.078   4.870   9.968  0.0617  2.1204  1.7071
  124bbb     C9 3621   7.095   4.590  10.043 -0.2407  0.1374 -0.4727
  124bbb    H17 3622   7.058   4.487  10.055 -1.5401  0.4143 -1.8085
  124bbb    H18 3623   7.019   4.645   9.986 -1.2039 -1.3243 -0.6684
  124bbb     O1 3624   7.655   4.938   9.814 -0.8597 -0.6886 -0.1486
  125bbb     N1 3625   6.615   5.031   9.374  0.3472  0.3105 -0.2227
  125bbb     C1 3626   6.511   4.922   9.398 -0.5625  0.4403 -0.2672
  125bbb     H1 3627   6.466   4.936   9.497  2.5862 -1.2072  1.5785
  125bbb     H2 3628   6.551   4.820   9.405  1.4224  1.2541  0.9640
  125bbb     C2 3629   6.554   5.165   9.358  0.2213 -0.0710 -0.0919
  125bbb     H3 3630   6.513   5.166   9.256  1.0656 -1.8070 -0.4920
  125bbb     H4 3631   6.638   5.231   9.333 -0.1360  0.2656 -0.4260
  125bbb     C3 3632   6.725   5.035   9.479 -0.2058 -0.4316 -0.2095
  125bbb     H5 3633   6.745   4.937   9.523  0.9173  0.6181  1.7786
  125bbb     H6 3634   6.697   5.099   9.564 -1.9770 -1.8966  0.3649
  125bbb     C4 3635   6.859   5.094   9.423 -0.6295 -0.4174  0.1279
  125bbb     H7 3636   6.847   5.157   9.334  1.0124 -0.6306 -0.2739
  125bbb     H8 3637   6.921   5.016   9.378 -0.4289 -1.3284  1.9137
  125bbb     C5 3638   6.401   4.912   9.293  0.1085 -0.6139  0.6406
  125bbb     H9 3639   6.340   5.002   9.306  0.9272  0.0606 -0.0545
  125bbb    H10 3640   6.330   4.830   9.310 -0.2926 -0.5479 -0.6350
  125bbb     C6 3641   6.451   5.220   9.450 -0.1864  0.2040 -0.1596
  125bbb    H11 3642   6.388   5.137   9.484  0.3532 -0.7298 -1.3714
  125bbb    H12 3643   6.396   5.292   9.387 -0.7228 -0.3900 -0.3821
  125bbb     C7 3644   6.948   5.162   9.535  0.5923 -0.0259 -0.3107
  125bbb    H13 3645   6.916   5.115   9.629 -0.4801  0.8600 -0.2035
  125bbb    H14 3646   6.916   5.267   9.545  0.4362 -0.2118  1.6192
  125bbb     C8 3647   6.503   5.292   9.572 -0.0480 -0.2170  0.1509
  125bbb    H15 3648   6.601   5.339   9.556  1.7703 -4.0373 -1.1572
  125bbb    H16 3649   6.521   5.208   9.641 -2.5332  0.1191  1.2783
  125bbb     C9 3650   6.448   4.897   9.141 -0.1281 -0.2172  0.2036
  125bbb    H17 3651   6.488   4.991   9.103  0.9856 -1.3978 -1.7156
  125bbb    H18 3652   6.355   4.877   9.087  0.6917 -0.5826 -1.1065
  125bbb     O1 3653   7.080   5.148   9.498  0.5446 -0.0792  0.2822
  126ccc     C1 3654  10.722   8.013   8.713 -0.0167  0.3543 -0.5920
  126ccc     C2 3655  10.819   7.973   8.825 -0.0443  0.3942 -0.1825
  126ccc     H1 3656  10.684   8.110   8.745  0.3224 -0.1140  1.3232
  126ccc     H2 3657  10.895   8.051   8.837  1.3856 -1.3635  3.4190
  126ccc     C3 3658  10.748   7.943   8.966  0.4700 -0.5905  0.5816
  126ccc     C4 3659  10.633   7.846   8.942  0.2773  0.6145 -0.6110
  126ccc     C5 3660  10.541   7.904   8.837  0.9013  0.1177 -0.8910
  126ccc     H3 3661  10.665   7.752   8.896  1.6164 -0.0998  1.6113
  126ccc     H4 3662  10.701   8.035   9.003  1.9044  0.4154  0.0090
  126ccc     H5 3663  10.499   8.001   8.866  2.0248  0.6376 -0.9599
  126ccc     O1 3664  10.427   7.812   8.818 -0.1583  0.4722 -0.3444
  126ccc     O2 3665  10.575   7.813   9.075  0.2855  0.5241  0.3366
  126ccc     O3 3666  10.838   7.901   9.065 -1.1281  0.2255  0.1905
  126ccc     O4 3667  10.897   7.856   8.787 -0.0671 -0.0965 -0.5372
  126ccc     C6 3668  10.785   8.037   8.573 -0.1123 -0.2368 -0.4657
  126ccc     H6 3669  10.842   7.804   9.051 -3.1299  0.1625 -0.2403
  126ccc     H7 3670  10.981   7.852   8.836 -1.5091 -2.4021  2.0055
  126ccc     H8 3671  10.504   7.746   9.067 -0.1637  0.0188  5.3969
  126ccc     H9 3672  10.824   7.945   8.528  1.0149 -0.4565  0.9066
  126ccc    H10 3673  10.863   8.114   8.583 -0.2244 -0.1888  0.0455
  126ccc     O5 3674  10.681   8.089   8.486 -0.0450 -0.3338 -0.0521
  126ccc    H11 3675  10.723   8.169   8.449 -0.0759 -0.6729 -0.8234
  126ccc     O6 3676  10.616   7.910   8.715  0.1203  0.4129  0.3427
  127ccc     C1 3677  10.858   7.888   9.478 -0.0293 -0.3264 -0.2054
  127ccc     C2 3678  10.823   8.042   9.490  0.6371  0.0265 -0.0068
  127ccc     H1 3679  10.907   7.882   9.379  0.9555 -0.9921  0.3089
  127ccc     H2 3680  10.919   8.093   9.478  0.5813 -0.2782 -2.0241
  127ccc     C3 3681  10.726   8.082   9.379  0.3446 -0.1712  0.8805
  127ccc     C4 3682  10.605   7.980   9.373 -0.0175  0.0785 -0.1550
  127ccc     C5 3683  10.641   7.828   9.386  0.4779 -0.5706  0.7294
  127ccc     H3 3684  10.546   8.001   9.462 -1.1862 -1.9427 -0.3726
  127ccc     H4 3685  10.781   8.055   9.288 -1.0501 -2.4347  0.6483
  127ccc     H5 3686  10.681   7.798   9.289  0.5816  1.1264  0.2054
  127ccc     O1 3687  10.517   7.762   9.418 -0.2532  0.4419  0.4052
  127ccc     O2 3688  10.523   8.005   9.260  0.0169 -0.1803  0.3045
  127ccc     O3 3689  10.692   8.222   9.379 -0.0566 -0.2398 -0.1721
  127ccc     O4 3690  10.758   8.063   9.616 -0.2415 -0.4970  0.2387
  127ccc     C6 3691  10.968   7.846   9.577  0.5705 -1.1039  0.3153
  127ccc     H6 3692  10.602   8.233   9.415 -0.6250 -1.8351 -0.9916
  127ccc     H7 3693  10.730   8.154   9.632  0.6428  0.5111 -3.0746
  127ccc     H8 3694  10.547   7.932   9.201 -3.0886 -2.2386  1.3576
  127ccc     H9 3695  10.923   7.861   9.676 -0.0812 -1.0948  0.0182
  127ccc    H10 3696  11.062   7.900   9.559  0.0908  0.2398  1.6565
  127ccc     O5 3697  10.994   7.712   9.562  0.5920 -0.5076 -0.0991
  127ccc    H11 3698  10.913   7.669   9.596 -0.5781  0.4125 -1.5906
  127ccc     O6 3699  10.740   7.813   9.487  0.4955  0.0488  0.5852
  128ccc     C1 3700  10.305   7.828  10.706  0.0637 -0.1863 -0.7758
  128ccc     C2 3701  10.333   7.801  10.858 -1.1611  0.9111 -0.5162
  128ccc     H1 3702  10.198   7.823  10.684  0.1082  1.6673 -1.6679
  128ccc     H2 3703  10.261   7.856  10.920 -3.0622 -0.0851 -1.7246
  128ccc     C3 3704  10.322   7.652  10.900 -0.6606 -0.2955  0.3121
  128ccc     C4 3705  10.388   7.549  10.803  0.7349 -0.3405  0.5174
  128ccc     C5 3706  10.326   7.586  10.662  0.6926 -0.3739  0.4001
  128ccc     H3 3707  10.494   7.572  10.787  0.2685  1.3683 -0.3880
  128ccc     H4 3708  10.213   7.641  10.896 -0.6479 -0.5944  0.7193
  128ccc     H5 3709  10.217   7.581  10.668  0.6198 -0.1043 -0.6236
  128ccc     O1 3710  10.378   7.493  10.563  0.6755 -0.1829  0.1446
  128ccc     O2 3711  10.358   7.411  10.845  0.1307  0.6094 -0.3084
  128ccc     O3 3712  10.363   7.634  11.038 -0.1662 -0.0142  0.2242
  128ccc     O4 3713  10.468   7.830  10.869 -0.5946  0.1396  0.2157
  128ccc     C6 3714  10.350   7.961  10.654  0.4327 -0.5597  0.4751
  128ccc     H6 3715  10.457   7.610  11.037 -0.1283 -0.4612  3.8039
  128ccc     H7 3716  10.481   7.890  10.793 -1.4790 -1.0007 -0.8739
  128ccc     H8 3717  10.262   7.402  10.834 -0.1731  3.4635 -0.9091
  128ccc     H9 3718  10.286   8.040  10.695 -0.2279 -0.0452 -1.4245
  128ccc    H10 3719  10.331   7.963  10.545 -2.8465 -0.5881  0.9408
  128ccc     O5 3720  10.486   7.998  10.682 -0.5222 -0.3179  0.7325
  128ccc    H11 3721  10.488   8.094  10.691 -0.3227 -0.0804 -1.3232
  128ccc     O6 3722  10.372   7.722  10.631  0.4392 -0.2072 -0.0192
  129ccc     C1 3723  11.194   7.794  10.062  0.1186  0.3535 -0.2666
  129ccc     C2 3724  11.304   7.763   9.961  0.0556  0.2773 -0.2632
  129ccc     H1 3725  11.224   7.762  10.163  1.9652  0.2485 -0.8281
  129ccc     H2 3726  11.402   7.806   9.983  0.1251  1.5564 -2.7378
  129ccc     C3 3727  11.327   7.607   9.937 -0.0542  0.0517  0.3916
  129ccc     C4 3728  11.189   7.538   9.910 -0.0138  0.5080  0.1311
  129ccc     C5 3729  11.081   7.572  10.012  0.6296 -0.1383 -0.5275
  129ccc     H3 3730  11.146   7.588   9.822  0.4427  1.6569  0.5515
  129ccc     H4 3731  11.371   7.569  10.030  1.1041 -1.0671 -0.5820
  129ccc     H5 3732  11.104   7.539  10.114  0.9997 -1.3807 -0.9971
  129ccc     O1 3733  10.950   7.517   9.971 -0.1387  0.0056  0.0041
  129ccc     O2 3734  11.207   7.395   9.886  0.2190 -0.4771  0.0859
  129ccc     O3 3735  11.411   7.588   9.826 -0.1317  0.4899 -0.3849
  129ccc     O4 3736  11.265   7.819   9.840  0.3739 -0.2845  0.2701
  129ccc     C6 3737  11.152   7.946  10.086 -0.2724 -0.3205 -0.6512
  129ccc     H6 3738  11.439   7.496   9.840  0.5851  0.8411  0.6302
  129ccc     H7 3739  11.214   7.896   9.869  0.3832  0.0537 -0.5917
  129ccc     H8 3740  11.125   7.377   9.837 -0.2007  1.4141  0.0010
  129ccc     H9 3741  11.236   8.001  10.128  0.6446 -0.2264 -2.4958
  129ccc    H10 3742  11.064   7.941  10.151 -0.3621  0.2608 -0.7262
  129ccc     O5 3743  11.116   8.008   9.964 -0.3708  0.4289  0.2691
  129ccc    H11 3744  11.019   8.000   9.966 -0.5660  2.3175  3.2585
  129ccc     O6 3745  11.075   7.722  10.014 -0.4906  0.1742 -0.2170
  130ccc     C1 3746  10.002   8.183   9.047  0.1172 -0.2251  0.8976
  130ccc     C2 3747  10.155   8.209   9.024 -0.0263  0.4200 -1.0754
  130ccc     H1 3748   9.951   8.254   9.112  0.3655  0.1595  0.6771
  130ccc     H2 3749  10.166   8.318   9.017 -1.6500  0.5870 -1.4352
  130ccc     C3 3750  10.251   8.161   9.146  0.5415  0.2250 -0.3456
  130ccc     C4 3751  10.200   8.025   9.191 -0.2304  0.3825  0.0326
  130ccc     C5 3752  10.050   8.020   9.228 -0.2202 -0.7573 -0.5034
  130ccc     H3 3753  10.212   7.955   9.108  0.5845  0.1604  0.3295
  130ccc     H4 3754  10.236   8.229   9.231  0.8032 -0.1537  0.0061
  130ccc     H5 3755  10.042   8.097   9.305  2.5949 -0.0144 -0.8176
  130ccc     O1 3756   9.999   7.892   9.278  0.8239  0.3384 -0.1889
  130ccc     O2 3757  10.268   7.985   9.310 -0.3598  0.4565 -0.5881
  130ccc     O3 3758  10.388   8.160   9.104 -0.4324 -0.2090  0.0484
  130ccc     O4 3759  10.207   8.150   8.902  0.0476  0.1984 -0.3550
  130ccc     C6 3760   9.927   8.196   8.914 -0.0693 -0.0782  0.4580
  130ccc     H6 3761  10.442   8.114   9.170  1.2326  0.7499 -0.5602
  130ccc     H7 3762  10.304   8.157   8.901  0.1545 -0.8156  0.3859
  130ccc     H8 3763  10.364   7.996   9.297 -0.2555 -0.4024 -0.5788
  130ccc     H9 3764   9.966   8.122   8.843  1.2864  0.3699  0.7120
  130ccc    H10 3765   9.952   8.296   8.877 -0.3393 -0.7733 -1.7723
  130ccc     O5 3766   9.787   8.186   8.943 -0.2513  0.0273  0.5451
  130ccc    H11 3767   9.785   8.092   8.969  2.3766 -0.3489 -0.2969
  130ccc     O6 3768   9.987   8.051   9.100 -0.0686  0.3476 -0.5945
  131ccc     C1 3769   9.247   8.886   9.066  0.4362 -0.1972  0.5624
  131ccc     C2 3770   9.280   9.028   9.126  0.3679 -0.0510  0.0174
  131ccc     H1 3771   9.138   8.887   9.076  0.5123  1.0756  1.5372
  131ccc     H2 3772   9.224   9.105   9.072 -1.6826 -0.4386  1.4799
  131ccc     C3 3773   9.239   9.039   9.277  0.1672 -0.2604 -0.3397
  131ccc     C4 3774   9.281   8.912   9.356  0.1255  0.1333 -1.3853
  131ccc     C5 3775   9.238   8.782   9.287  0.4380  0.3252 -0.1749
  131ccc     H3 3776   9.390   8.915   9.369 -0.1246  0.3906  1.3916
  131ccc     H4 3777   9.130   9.042   9.288  0.1424  4.1847  0.1448
  131ccc     H5 3778   9.130   8.772   9.271  0.6543  1.5519 -3.0951
  131ccc     O1 3779   9.294   8.664   9.360 -0.1137 -0.7234  0.3368
  131ccc     O2 3780   9.231   8.934   9.493 -0.0905 -0.0003 -0.2456
  131ccc     O3 3781   9.293   9.153   9.342  0.0072 -0.0627  0.6083
  131ccc     O4 3782   9.419   9.040   9.113 -0.4280 -0.5014  0.0317
  131ccc     C6 3783   9.302   8.859   8.923 -0.3765 -0.4566  0.3870
  131ccc     H6 3784   9.390   9.148   9.330 -0.1280 -0.7737 -0.3335
  131ccc     H7 3785   9.445   8.989   9.035  0.4828  2.1853 -1.5509
  131ccc     H8 3786   9.279   8.867   9.544 -0.5277 -2.1722 -2.4727
  131ccc     H9 3787   9.248   8.925   8.853  0.2831  0.8659  1.0822
  131ccc    H10 3788   9.282   8.754   8.898 -0.6520 -0.1301 -0.8347
  131ccc     O5 3789   9.443   8.874   8.917  0.2943  0.3672  0.6108
  131ccc    H11 3790   9.470   8.835   8.832 -0.6667  0.8521  0.0600
  131ccc     O6 3791   9.301   8.785   9.158 -0.2071 -0.3215  0.3575
  132ccc     C1 3792   9.285   6.620  10.611 -0.0475 -0.3875  0.0796
  132ccc     C2 3793   9.167   6.519  10.631  0.5178 -0.5160  0.7515
  132ccc     H1 3794   9.372   6.586  10.669 -1.1831 -1.1062  1.4131
  132ccc     H2 3795   9.206   6.418  10.610 -3.0750 -1.9333  0.1726
  132ccc     C3 3796   9.120   6.518  10.776 -0.1186 -0.2057 -0.3788
  132ccc     C4 3797   9.100   6.666  10.841  0.4522 -0.4438  0.2457
  132ccc     C5 3798   9.217   6.764  10.801 -0.6110 -0.0223 -0.3182
  132ccc     H3 3799   9.005   6.701  10.798 -0.4775 -3.2311 -0.1998
  132ccc     H4 3800   9.196   6.470  10.839 -1.1320 -0.6688  0.5299
  132ccc     H5 3801   9.300   6.734  10.867 -1.8917  1.2316  2.0245
  132ccc     O1 3802   9.179   6.903  10.833 -0.1086  0.0235  0.4074
  132ccc     O2 3803   9.084   6.652  10.984  0.9520 -0.4951  0.0956
  132ccc     O3 3804   8.992   6.448  10.795  0.0447 -0.2834  0.3546
  132ccc     O4 3805   9.064   6.553  10.541 -0.2772  0.6534 -0.0518
  132ccc     C6 3806   9.335   6.642  10.470 -0.0568  0.0597  0.6683
  132ccc     H6 3807   8.932   6.464  10.720  1.1209  1.6897 -0.1559
  132ccc     H7 3808   9.121   6.581  10.467 -2.1806 -0.1677 -1.9470
  132ccc     H8 3809   9.175   6.666  11.016  0.5752  0.7063  0.7363
  132ccc     H9 3810   9.403   6.565  10.434  1.9200  2.1424 -0.2556
  132ccc    H10 3811   9.393   6.735  10.470  2.5054 -1.4500  1.8452
  132ccc     O5 3812   9.228   6.657  10.369  0.4720  0.1341 -0.0521
  132ccc    H11 3813   9.223   6.750  10.340  0.6066 -0.0779 -0.7627
  132ccc     O6 3814   9.252   6.753  10.661 -0.3398 -0.5618 -0.4068
  133ccc     C1 3815   9.453   7.398  11.543 -0.0752  0.0153 -0.3551
  133ccc     C2 3816   9.435   7.259  11.605 -0.3863  1.0554  0.6276
  133ccc     H1 3817   9.360   7.454  11.561  0.8894  1.1697  1.4514
  133ccc     H2 3818   9.411   7.265  11.712 -0.8268 -1.1460  0.7012
  133ccc     C3 3819   9.319   7.177  11.532 -0.5626  0.3683  0.1546
  133ccc     C4 3820   9.316   7.206  11.377  0.2924 -0.2640 -0.0072
  133ccc     C5 3821   9.350   7.354  11.331 -0.4227  0.2069  0.7727
  133ccc     H3 3822   9.396   7.143  11.336 -2.8639 -4.0700 -1.0076
  133ccc     H4 3823   9.226   7.209  11.581  0.0671 -0.5842  2.0661
  133ccc     H5 3824   9.264   7.420  11.348 -2.8164 -2.2182 -0.8745
  133ccc     O1 3825   9.375   7.345  11.185 -0.4655  0.1653 -0.6155
  133ccc     O2 3826   9.184   7.168  11.327 -0.1962 -0.0192  0.3447
  133ccc     O3 3827   9.338   7.033  11.555  0.0994 -0.9435 -0.3045
  133ccc     O4 3828   9.556   7.179  11.585  0.2505  0.4207  0.1602
  133ccc     C6 3829   9.563   7.481  11.610 -0.2333 -0.0546  0.3339
  133ccc     H6 3830   9.435   7.028  11.546  0.0031 -1.5334 -1.0762
  133ccc     H7 3831   9.552   7.131  11.670  0.6668  0.6838  0.3295
  133ccc     H8 3832   9.187   7.149  11.231 -3.0411  2.5105 -0.4121
  133ccc     H9 3833   9.608   7.541  11.530 -0.8630  2.4291  1.7217
  133ccc    H10 3834   9.631   7.414  11.662  1.3390 -0.8187 -2.5028
  133ccc     O5 3835   9.502   7.581  11.693 -0.3942  0.0359 -0.3001
  133ccc    H11 3836   9.481   7.655  11.634  0.8962  1.4720  0.9266
  133ccc     O6 3837   9.465   7.394  11.399 -0.6445 -0.1857  0.2303
  134ccc     C1 3838   9.795   5.947   7.895 -0.2777  0.0416 -0.0657
  134ccc     C2 3839   9.854   5.840   7.794 -0.1006 -0.0680 -0.7773
  134ccc     H1 3840   9.692   5.974   7.869 -0.1885  2.2401  1.5629
  134ccc     H2 3841   9.798   5.746   7.802  0.8409 -0.5176  1.0100
  134ccc     C3 3842   9.839   5.900   7.651  0.2316  0.0128  0.3344
  134ccc     C4 3843   9.894   6.044   7.646 -0.1190  0.7522  0.6519
  134ccc     C5 3844   9.845   6.140   7.751  0.2526  0.0075 -0.4403
  134ccc     H3 3845  10.001   6.038   7.668 -0.3988  0.2362  1.9619
  134ccc     H4 3846   9.736   5.902   7.615  0.2421 -1.0154  0.2124
  134ccc     H5 3847   9.741   6.172   7.738  0.7762  1.7955 -0.4986
  134ccc     O1 3848   9.937   6.249   7.747 -0.1534  0.2275 -0.0843
  134ccc     O2 3849   9.866   6.104   7.512  0.0923  0.4872 -0.0794
  134ccc     O3 3850   9.913   5.796   7.569  0.0389 -0.3901  0.5893
  134ccc     O4 3851   9.995   5.827   7.827 -0.0033 -0.5331 -0.3241
  134ccc     C6 3852   9.790   5.908   8.045 -0.5116 -0.1804 -0.0215
  134ccc     H6 3853   9.854   5.719   7.560 -0.0345 -0.1713 -1.0171
  134ccc     H7 3854  10.038   5.775   7.757  2.6371 -2.3207  2.3465
  134ccc     H8 3855   9.933   6.071   7.450  1.2410  1.1212  0.7961
  134ccc     H9 3856   9.714   5.833   8.070 -0.7841  0.2302  0.3881
  134ccc    H10 3857   9.766   5.989   8.114 -0.7716 -1.0538  0.9481
  134ccc     O5 3858   9.921   5.853   8.075  0.3448 -0.2419 -0.0691
  134ccc    H11 3859   9.974   5.850   7.993  3.3638 -2.2090  1.7810
  134ccc     O6 3860   9.861   6.079   7.885 -0.2472 -0.1394 -0.2375
  135ccc     C1 3861  10.890   6.444   7.356 -0.7468  0.5569  0.0153
  135ccc     C2 3862  11.076   6.425   7.423  0.2937  0.5351  0.9323
  135ccc     H1 3863  10.902   6.551   7.333  1.5024  0.7206  1.5392
  135ccc     H2 3864  11.141   6.510   7.397 -1.0559  0.8847 -1.5957
  135ccc     C3 3865  11.109   6.414   7.617  0.3686 -0.2879 -0.2333
  135ccc     C4 3866  10.953   6.398   7.742 -0.0623  0.1492 -0.3921
  135ccc     C5 3867  10.765   6.422   7.672  0.6966  0.7352 -0.0659
  135ccc     H3 3868  10.959   6.293   7.772  1.0702  0.5137  0.7290
  135ccc     H4 3869  11.157   6.508   7.646 -0.3829 -0.2928  1.0976
  135ccc     H5 3870  10.728   6.514   7.719 -1.2503 -1.4110  2.9847
  135ccc     O1 3871  10.671   6.327   7.730  0.4323 -0.0888 -0.2809
  135ccc     O2 3872  10.973   6.442   7.878  0.5125  0.1297  0.8520
  135ccc     O3 3873  11.210   6.317   7.648 -0.0002 -0.6528  0.3970
  135ccc     O4 3874  11.132   6.319   7.359 -0.4778  0.5050 -0.4248
  135ccc     C6 3875  10.859   6.392   7.213  0.2490 -0.4266  0.3050
  135ccc     H6 3876  11.242   6.339   7.737  0.2514  2.5999 -0.3767
  135ccc     H7 3877  11.071   6.248   7.384  0.0771  0.3450  0.5449
  135ccc     H8 3878  11.064   6.412   7.896  1.2943  0.2751 -2.2269
  135ccc     H9 3879  10.813   6.292   7.221 -0.0855 -0.2655  0.4349
  135ccc    H10 3880  10.944   6.381   7.145 -0.1361  0.4488 -0.3413
  135ccc     O5 3881  10.771   6.488   7.152 -0.0164  0.0684  0.6766
  135ccc    H11 3882  10.820   6.571   7.139  1.4486 -0.4870  2.2218
  135ccc     O6 3883  10.747   6.425   7.482 -0.0985 -0.1401  0.3892
  136ccc     C1 3884   9.917   7.470   7.829 -0.0507 -0.5802  0.4545
  136ccc     C2 3885   9.979   7.609   7.797 -1.0285 -0.4866 -0.0649
  136ccc     H1 3886   9.971   7.416   7.908  2.0672  0.5183 -0.1630
  136ccc     H2 3887   9.992   7.667   7.889  2.5105 -1.4095  0.1599
  136ccc     C3 3888  10.124   7.583   7.733 -1.0015  0.6065 -0.3858
  136ccc     C4 3889  10.118   7.485   7.614  0.3218  0.5083  0.7929
  136ccc     C5 3890  10.037   7.360   7.641 -0.4368  0.3178 -0.4092
  136ccc     H3 3891  10.060   7.537   7.537 -1.6224 -1.5262  0.7789
  136ccc     H4 3892  10.189   7.534   7.806  0.8459 -0.4570 -2.6087
  136ccc     H5 3893  10.088   7.291   7.708 -0.1811  2.8720  2.2477
  136ccc     O1 3894  10.021   7.298   7.517 -0.1052  0.2977  0.0721
  136ccc     O2 3895  10.254   7.462   7.573  0.8081  0.7145  0.5949
  136ccc     O3 3896  10.183   7.714   7.708  0.5194 -0.2078 -0.0994
  136ccc     O4 3897   9.892   7.676   7.702 -0.2121  0.1732  0.6593
  136ccc     C6 3898   9.771   7.488   7.883 -0.6157 -0.0600  0.6741
  136ccc     H6 3899  10.195   7.723   7.612  0.6167  2.0660  0.0649
  136ccc     H7 3900   9.916   7.769   7.710  0.8045 -0.1440  1.4232
  136ccc     H8 3901  10.241   7.455   7.476  0.6840  0.9959  0.5920
  136ccc     H9 3902   9.760   7.564   7.961  0.2780  0.3816  0.3949
  136ccc    H10 3903   9.755   7.388   7.924 -1.5276 -0.2162 -0.0338
  136ccc     O5 3904   9.692   7.526   7.770  0.4415  0.0656  0.4549
  136ccc    H11 3905   9.754   7.581   7.719 -2.4619  1.9001 -1.4224
  136ccc     O6 3906   9.913   7.396   7.703  0.0112  0.2022 -0.0027
  137ccc     C1 3907  10.209   6.527   7.295 -0.2748 -0.0903 -0.4859
  137ccc     C2 3908  10.318   6.431   7.247 -0.5498  0.2944 -0.4809
  137ccc     H1 3909  10.170   6.591   7.214  2.1738  1.8762 -0.2460
  137ccc     H2 3910  10.292   6.394   7.146 -1.4288  0.6997 -0.4084
  137ccc     C3 3911  10.455   6.495   7.233  0.1679 -0.3615  0.6053
  137ccc     C4 3912  10.492   6.616   7.322 -0.1612 -0.4296  0.0041
  137ccc     C5 3913  10.364   6.695   7.367 -0.1259 -0.4402 -0.3361
  137ccc     H3 3914  10.547   6.576   7.408  0.4616 -0.2204 -0.2853
  137ccc     H4 3915  10.451   6.541   7.134  1.9644 -0.6063  0.3815
  137ccc     H5 3916  10.330   6.762   7.288 -3.0459  0.9913  1.9326
  137ccc     O1 3917  10.393   6.791   7.477  0.3982 -0.1957 -0.5354
  137ccc     O2 3918  10.585   6.697   7.245 -0.0708  0.2711 -0.6375
  137ccc     O3 3919  10.557   6.389   7.232 -0.0299  0.7368  0.3323
  137ccc     O4 3920  10.341   6.312   7.324  0.0986 -0.4321  0.1863
  137ccc     C6 3921  10.100   6.442   7.366  0.9005  0.0817 -0.1214
  137ccc     H6 3922  10.638   6.436   7.207 -0.5161  1.4612  0.0966
  137ccc     H7 3923  10.435   6.301   7.304 -0.3186 -0.7585 -1.8807
  137ccc     H8 3924  10.621   6.753   7.316 -0.2106  0.9494 -1.0971
  137ccc     H9 3925  10.135   6.406   7.463  0.0245 -1.2129 -0.2666
  137ccc    H10 3926  10.077   6.347   7.316  0.5374  0.4159 -0.5958
  137ccc     O5 3927   9.982   6.522   7.367  0.1151 -0.6071 -0.3226
  137ccc    H11 3928   9.921   6.470   7.423 -2.0783  0.7193 -1.3678
  137ccc     O6 3929  10.258   6.608   7.407 -0.2166  0.2449  0.0797
  138ccc     C1 3930  10.292   6.124   8.064  0.0876  0.6464  0.3095
  138ccc     C2 3931  10.375   6.039   8.157  0.1108 -0.0116 -0.3959
  138ccc     H1 3932  10.332   6.223   8.040 -0.3570  0.4557 -1.3086
  138ccc     H2 3933  10.469   6.007   8.111 -0.0151  0.2941 -0.8644
  138ccc     C3 3934  10.398   6.121   8.286 -0.6738 -0.3463  0.2742
  138ccc     C4 3935  10.271   6.177   8.355 -0.3803 -0.3132 -0.0085
  138ccc     C5 3936  10.183   6.243   8.257  0.2402 -0.0104 -0.2895
  138ccc     H3 3937  10.210   6.094   8.392  2.1545 -1.4032  2.0076
  138ccc     H4 3938  10.452   6.209   8.249  1.6280 -0.9781  1.8664
  138ccc     H5 3939  10.221   6.342   8.229 -2.1234  0.5549 -1.7905
  138ccc     O1 3940  10.044   6.262   8.307  0.0234 -0.5620  0.0275
  138ccc     O2 3941  10.319   6.269   8.451 -0.5601  0.2412 -0.2360
  138ccc     O3 3942  10.478   6.048   8.382  0.1242 -0.4961  0.4453
  138ccc     O4 3943  10.293   5.932   8.196 -0.2979  0.2046 -0.0519
  138ccc     C6 3944  10.256   6.059   7.926  0.5762 -0.6284 -0.4018
  138ccc     H6 3945  10.555   6.106   8.398 -0.4280  0.0396  1.2695
  138ccc     H7 3946  10.248   5.915   8.112 -1.7133  1.0774  0.4969
  138ccc     H8 3947  10.387   6.332   8.421 -0.0885 -0.9812 -1.8478
  138ccc     H9 3948  10.341   6.069   7.859  0.3800 -0.6660 -0.6593
  138ccc    H10 3949  10.173   6.119   7.886  1.0925  0.2800 -0.1343
  138ccc     O5 3950  10.216   5.917   7.941 -0.2542 -0.0187 -0.4843
  138ccc    H11 3951  10.144   5.897   7.879 -2.1549  0.2153  1.5121
  138ccc     O6 3952  10.172   6.161   8.133 -0.1384 -0.7325  0.0151
  139ccc     C1 3953   9.465   6.532   7.419 -0.3869  0.0391 -0.9685
  139ccc     C2 3954   9.511   6.397   7.364  0.1144 -0.2972 -1.0271
  139ccc     H1 3955   9.535   6.602   7.372  2.3370 -0.1955  2.3382
  139ccc     H2 3956   9.512   6.390   7.255  4.5367 -1.3696 -1.1358
  139ccc     C3 3957   9.664   6.381   7.388 -0.4085  0.1821  0.1386
  139ccc     C4 3958   9.692   6.404   7.538 -1.1112 -0.9345 -0.0619
  139ccc     C5 3959   9.623   6.526   7.599  0.3014 -0.9458 -0.3978
  139ccc     H3 3960   9.656   6.311   7.584 -1.1299 -0.4528  0.9098
  139ccc     H4 3961   9.727   6.452   7.333  0.5891 -0.3469  0.5815
  139ccc     H5 3962   9.673   6.616   7.562  0.1265 -0.6703  0.0172
  139ccc     O1 3963   9.623   6.531   7.751 -0.2235  0.2305 -0.3318
  139ccc     O2 3964   9.842   6.408   7.552  0.1653 -0.0150 -0.3409
  139ccc     O3 3965   9.700   6.247   7.352 -0.2546  0.3456 -1.0230
  139ccc     O4 3966   9.430   6.305   7.434  0.2777  0.2828 -0.5992
  139ccc     C6 3967   9.327   6.561   7.373  0.6908 -1.0001  0.4515
  139ccc     H6 3968   9.745   6.210   7.430 -0.6523  0.5983 -0.6735
  139ccc     H7 3969   9.445   6.216   7.398 -2.8556 -0.2511 -0.9057
  139ccc     H8 3970   9.863   6.373   7.640 -1.0165 -4.8176 -1.7057
  139ccc     H9 3971   9.250   6.499   7.419 -0.5981 -0.1896 -0.5418
  139ccc    H10 3972   9.319   6.546   7.265 -1.4017 -1.2295  0.5951
  139ccc     O5 3973   9.299   6.695   7.412  0.0554 -0.1536  0.4625
  139ccc    H11 3974   9.280   6.679   7.506  1.3479 -1.4253  0.5493
  139ccc     O6 3975   9.483   6.540   7.558 -0.1246 -0.0950  0.2379
  140ccc     C1 3976  10.676   7.448   8.002  0.2269  0.8514 -0.3791
  140ccc     C2 3977  10.637   7.591   7.998  0.3981  0.4903  0.8099
  140ccc     H1 3978  10.769   7.441   7.944  1.1248  0.1493  1.0971
  140ccc     H2 3979  10.733   7.636   8.026  0.2474  1.0545  0.4422
  140ccc     C3 3980  10.602   7.637   7.850 -0.2708  0.3345 -0.9359
  140ccc     C4 3981  10.486   7.549   7.793 -0.6194  0.0641 -0.4757
  140ccc     C5 3982  10.514   7.398   7.811  0.5484  0.1159  0.2040
  140ccc     H3 3983  10.397   7.573   7.852 -0.8117 -1.7597  0.0314
  140ccc     H4 3984  10.698   7.619   7.800  0.7651  1.4627  0.5712
  140ccc     H5 3985  10.579   7.354   7.734  2.2023  0.5875  1.2882
  140ccc     O1 3986  10.378   7.338   7.805  0.4837 -0.0688  0.3998
  140ccc     O2 3987  10.476   7.579   7.655 -1.0222 -0.0398  0.4017
  140ccc     O3 3988  10.564   7.774   7.851 -0.3819 -0.1245 -0.3941
  140ccc     O4 3989  10.527   7.622   8.082 -0.7822 -0.0403  0.6239
  140ccc     C6 3990  10.695   7.401   8.145  0.2793 -0.2904 -0.1300
  140ccc     H6 3991  10.554   7.800   7.758  1.6627 -1.8934 -1.2178
  140ccc     H7 3992  10.522   7.544   8.141 -0.3749  1.8597  3.3470
  140ccc     H8 3993  10.393   7.541   7.621  0.5666 -1.1712 -2.5814
  140ccc     H9 3994  10.766   7.464   8.198  2.0992 -2.2028 -0.1900
  140ccc    H10 3995  10.744   7.303   8.138  1.5735  0.2521  1.0803
  140ccc     O5 3996  10.563   7.405   8.213  0.1109  0.3603  0.2710
  140ccc    H11 3997  10.539   7.311   8.214 -2.6016  0.9477 -1.0731
  140ccc     O6 3998  10.566   7.370   7.941 -0.5675  0.2156 -0.3354
  141ccc     C1 3999  10.181   7.856   8.413 -0.5124 -0.9719  0.0638
  141ccc     C2 4000  10.088   7.976   8.380 -0.1439 -0.1840  0.0232
  141ccc     H1 4001  10.280   7.874   8.370  0.6826 -0.6446  2.7265
  141ccc     H2 4002  10.151   8.058   8.417 -1.3895  1.0168 -0.4322
  141ccc     C3 4003  10.072   8.006   8.225 -0.5156 -0.0761 -0.1619
  141ccc     C4 4004  10.016   7.874   8.164  0.4509  0.2494  1.0664
  141ccc     C5 4005  10.089   7.744   8.209 -0.1436 -0.3997  0.5783
  141ccc     H3 4006   9.910   7.872   8.190 -0.5434  2.4012 -2.2459
  141ccc     H4 4007  10.173   8.026   8.186 -0.6360 -1.8092 -1.5012
  141ccc     H5 4008  10.188   7.734   8.163  0.4600  3.3028  0.7881
  141ccc     O1 4009   9.992   7.634   8.180  0.0311 -0.6682 -0.1518
  141ccc     O2 4010  10.029   7.884   8.019  0.2898 -0.1582  0.2583
  141ccc     O3 4011   9.991   8.123   8.197 -0.0617  0.0453 -0.0630
  141ccc     O4 4012   9.959   7.973   8.446  0.1320 -0.7501  0.0115
  141ccc     C6 4013  10.205   7.821   8.560 -0.2809 -0.9878  0.1478
  141ccc     H6 4014  10.034   8.198   8.241  1.4070  0.7390 -2.5233
  141ccc     H7 4015   9.984   7.906   8.513 -0.0302 -0.7266  0.0966
  141ccc     H8 4016   9.935   7.886   7.994  0.1387  3.0478  0.6957
  141ccc     H9 4017  10.267   7.896   8.611  0.1522  0.2515 -2.0889
  141ccc    H10 4018  10.268   7.731   8.571  0.4090 -0.6201 -0.6978
  141ccc     O5 4019  10.074   7.806   8.620  0.9123 -0.1403  0.6802
  141ccc    H11 4020  10.088   7.809   8.717  0.1730 -3.0611  0.9825
  141ccc     O6 4021  10.119   7.746   8.349 -0.2633 -0.1269 -0.4243
  142ccc     C1 4022  11.933   5.984  10.129  0.1650  0.3016  0.0594
  142ccc     C2 4023  12.015   5.986  10.259 -0.5463 -0.3476 -0.0219
  142ccc     H1 4024  11.837   6.030  10.155  0.6500  1.5115 -0.2386
  142ccc     H2 4025  12.033   6.090  10.289  2.0506 -0.4124 -1.0588
  142ccc     C3 4026  11.939   5.905  10.369 -0.7059 -0.3709  0.2899
  142ccc     C4 4027  11.908   5.764  10.317 -0.5321  0.1433  0.5473
  142ccc     C5 4028  11.835   5.767  10.180 -0.5178  0.8252  0.0951
  142ccc     H3 4029  12.007   5.718  10.304 -0.2390  0.5426  1.3422
  142ccc     H4 4030  11.847   5.960  10.390  0.1398  1.4839 -0.6063
  142ccc     H5 4031  11.731   5.794  10.199 -0.8073 -1.3306  1.9903
  142ccc     O1 4032  11.836   5.628  10.128  0.5407  0.4934  0.3421
  142ccc     O2 4033  11.842   5.682  10.421 -0.2528 -0.1028  0.2463
  142ccc     O3 4034  12.018   5.897  10.491  0.1115 -0.1029 -0.1210
  142ccc     O4 4035  12.148   5.933  10.225  0.2184 -0.6631  0.0968
  142ccc     C6 4036  12.003   6.051  10.011 -0.0248  0.2256 -0.1300
  142ccc     H6 4037  12.105   5.862  10.465 -0.2137 -0.1762 -1.1429
  142ccc     H7 4038  12.181   6.002  10.165 -0.4488  1.1611  1.7644
  142ccc     H8 4039  11.919   5.651  10.472  1.4981  1.4877 -1.2687
  142ccc     H9 4040  12.076   5.974   9.981 -0.0525 -1.2824  3.2288
  142ccc    H10 4041  12.049   6.148  10.035 -0.2588  0.1496  0.6631
  142ccc     O5 4042  11.897   6.081   9.913 -0.8012 -0.0527 -0.3574
  142ccc    H11 4043  11.850   5.997   9.901  0.7759 -0.8344 -1.2630
  142ccc     O6 4044  11.911   5.845  10.091  0.1281 -0.2545  0.1096
  143ccc     C1 4045  12.092   5.686   9.348  0.6326  0.4259 -0.1003
  143ccc     C2 4046  12.079   5.665   9.194 -0.2844 -0.0269 -0.0676
  143ccc     H1 4047  12.196   5.708   9.376 -0.0693  1.5625  1.7912
  143ccc     H2 4048  12.160   5.721   9.147  2.3822 -2.1627  1.6289
  143ccc     C3 4049  12.123   5.523   9.147 -0.8983  0.6241  0.1895
  143ccc     C4 4050  12.082   5.407   9.244  0.2996 -1.0353 -0.3575
  143ccc     C5 4051  12.108   5.448   9.389 -0.0466 -0.4435 -0.1052
  143ccc     H3 4052  11.973   5.407   9.241  0.2782  0.9752 -0.9326
  143ccc     H4 4053  12.232   5.531   9.146 -0.8499  0.0243 -0.5425
  143ccc     H5 4054  12.214   5.440   9.416 -0.8051 -3.7487  2.6284
  143ccc     O1 4055  12.037   5.343   9.461 -0.0553 -0.0609 -0.0742
  143ccc     O2 4056  12.151   5.283   9.206  0.2667  0.3589  0.4558
  143ccc     O3 4057  12.077   5.496   9.014  0.1119  0.2619 -0.5244
  143ccc     O4 4058  11.944   5.675   9.155  0.1830 -0.1732  0.0209
  143ccc     C6 4059  12.021   5.811   9.403 -0.3273  0.2152  0.7747
  143ccc     H6 4060  12.143   5.444   8.965 -0.4179 -0.4493 -0.5022
  143ccc     H7 4061  11.952   5.607   9.087  2.6738 -0.6792  0.7251
  143ccc     H8 4062  12.097   5.249   9.133  0.6882  1.7335 -0.5595
  143ccc     H9 4063  11.914   5.795   9.387 -0.0017 -1.2816 -0.0642
  143ccc    H10 4064  12.047   5.899   9.343 -2.5551 -0.8704 -2.0380
  143ccc     O5 4065  12.056   5.809   9.541 -0.2517 -0.2348  0.1358
  143ccc    H11 4066  12.072   5.714   9.547  2.1736 -0.0920 -2.0541
  143ccc     O6 4067  12.036   5.575   9.414 -0.0603  0.5386 -0.2487
  144ccc     C1 4068  11.177   4.271  10.028 -1.0355 -0.5946 -0.2935
  144ccc     C2 4069  11.065   4.166  10.040  0.3465  0.0228  0.4855
  144ccc     H1 4070  11.177   4.305  10.133 -0.9892  2.2030 -1.1106
  144ccc     H2 4071  11.106   4.097  10.115 -0.4511 -0.7875  0.2030
  144ccc     C3 4072  10.926   4.223  10.089 -0.8276 -0.2219  0.8859
  144ccc     C4 4073  10.895   4.346  10.001  0.0741  0.1055  0.4171
  144ccc     C5 4074  11.013   4.446   9.965  0.8804  0.9461 -0.0064
  144ccc     H3 4075  10.866   4.312   9.901 -0.2574 -1.7687  1.1141
  144ccc     H4 4076  10.953   4.268  10.185 -1.0996 -0.0499  0.8814
  144ccc     H5 4077  11.033   4.506  10.055  1.7769  2.1763 -0.9829
  144ccc     O1 4078  10.985   4.538   9.856  0.1877 -0.5595  0.0109
  144ccc     O2 4079  10.781   4.405  10.069  0.3795 -0.5197 -0.0482
  144ccc     O3 4080  10.822   4.129  10.102 -0.5251  0.2248 -0.1719
  144ccc     O4 4081  11.054   4.094   9.912  0.6321  0.2453 -0.2193
  144ccc     C6 4082  11.308   4.211   9.982  0.4870 -0.1466  0.5413
  144ccc     H6 4083  10.734   4.170  10.110 -0.6288 -0.3383  2.7886
  144ccc     H7 4084  11.110   4.016   9.928  0.5694  0.4690  1.2740
  144ccc     H8 4085  10.706   4.411  10.007 -1.6282 -0.7090  2.2386
  144ccc     H9 4086  11.297   4.174   9.879 -0.9985  2.5141 -0.3542
  144ccc    H10 4087  11.348   4.125  10.036 -1.7412  0.4900  3.4515
  144ccc     O5 4088  11.403   4.311   9.962 -1.0471  0.4891 -0.3532
  144ccc    H11 4089  11.385   4.392  10.012  0.3901 -0.5296  1.9501
  144ccc     O6 4090  11.130   4.378   9.938 -0.6970  0.7499  0.1517
  145ccc     C1 4091  10.673   4.693   9.154  1.0898 -0.0885  0.3681
  145ccc     C2 4092  10.667   4.722   9.002 -0.6252 -0.6893  0.5993
  145ccc     H1 4093  10.577   4.645   9.175  1.0226  0.6549  1.8765
  145ccc     H2 4094  10.676   4.626   8.951  0.3658  0.1590 -0.8871
  145ccc     C3 4095  10.541   4.806   8.962  0.1951 -0.3448  0.2193
  145ccc     C4 4096  10.522   4.926   9.054 -0.5818 -1.1358 -0.8172
  145ccc     C5 4097  10.535   4.885   9.204 -0.4834  0.8595 -0.0918
  145ccc     H3 4098  10.612   4.983   9.028 -1.6361  0.2377 -1.6116
  145ccc     H4 4099  10.452   4.743   8.980  0.1658 -0.2545  0.3888
  145ccc     H5 4100  10.452   4.819   9.235  1.3386 -0.5023  2.1883
  145ccc     O1 4101  10.532   4.997   9.297 -0.4470  0.3029  0.3856
  145ccc     O2 4102  10.404   4.992   9.019  0.0564 -0.1248 -0.3828
  145ccc     O3 4103  10.535   4.835   8.822 -0.3420  0.2286 -0.7768
  145ccc     O4 4104  10.784   4.791   8.963  0.1884 -0.5740  0.3210
  145ccc     C6 4105  10.790   4.601   9.194  0.1083 -0.1659  0.1142
  145ccc     H6 4106  10.447   4.798   8.800 -1.0761  0.6547  1.2731
  145ccc     H7 4107  10.843   4.768   9.037  1.4832 -0.7528 -0.7394
  145ccc     H8 4108  10.402   4.974   8.923  2.2671 -1.3298 -0.2548
  145ccc     H9 4109  10.769   4.500   9.158  0.3021 -0.0403 -0.3567
  145ccc    H10 4110  10.801   4.594   9.303  1.5259 -1.0989 -0.0655
  145ccc     O5 4111  10.913   4.660   9.145 -0.4484  0.0481  0.2301
  145ccc    H11 4112  10.971   4.620   9.212  0.4422  0.0644 -0.5062
  145ccc     O6 4113  10.661   4.818   9.228  0.1358  0.2231  0.4423
  146ccc     C1 4114  11.540   7.198  10.159  0.8739  0.1313  1.0063
  146ccc     C2 4115  11.482   7.269  10.034 -0.1329 -0.1025  0.0449
  146ccc     H1 4116  11.622   7.262  10.193  0.9160 -0.2080  1.5541
  146ccc     H2 4117  11.456   7.371  10.067 -2.9781 -1.1185  1.2669
  146ccc     C3 4118  11.582   7.284   9.917 -0.6812  0.4819  0.3423
  146ccc     C4 4119  11.645   7.145   9.876  0.0721 -0.7675  0.0981
  146ccc     C5 4120  11.698   7.080  10.009  0.5742  0.0689 -0.4645
  146ccc     H3 4121  11.564   7.077   9.847  0.2816 -1.7409  1.7074
  146ccc     H4 4122  11.661   7.341   9.967  2.1761 -0.3528 -2.8574
  146ccc     H5 4123  11.777   7.137  10.060 -0.4904  0.6906  0.5632
  146ccc     O1 4124  11.749   6.952   9.968 -0.1839  0.0985 -0.2411
  146ccc     O2 4125  11.744   7.171   9.768  0.4883  0.1734  0.1359
  146ccc     O3 4126  11.527   7.354   9.805  0.2928 -0.1494 -0.2062
  146ccc     O4 4127  11.367   7.203   9.988 -0.5279 -0.4096 -0.2607
  146ccc     C6 4128  11.444   7.189  10.275  0.1203 -0.5742 -0.2301
  146ccc     H6 4129  11.586   7.347   9.728  0.4720  0.4521 -0.1284
  146ccc     H7 4130  11.314   7.264   9.934 -2.3128 -1.9776 -0.3654
  146ccc     H8 4131  11.704   7.121   9.693  1.3967 -0.4183  0.0310
  146ccc     H9 4132  11.359   7.124  10.250 -2.6288  0.6784  4.5826
  146ccc    H10 4133  11.388   7.283  10.290  0.6190 -0.4865  1.2095
  146ccc     O5 4134  11.520   7.144  10.395  0.7286 -0.5714  0.6310
  146ccc    H11 4135  11.451   7.129  10.462 -1.1062 -2.1982 -1.4867
  146ccc     O6 4136  11.593   7.068  10.109  0.5589 -0.1275 -0.4377
  147ccc     C1 4137  12.116   7.558  10.509 -0.1254 -0.0795  0.0525
  147ccc     C2 4138  12.105   7.693  10.440 -0.0081  0.4658 -1.0230
  147ccc     H1 4139  12.217   7.541  10.548  0.0963  1.0830  0.0285
  147ccc     H2 4140  12.139   7.777  10.503  1.7178 -0.2771 -0.9075
  147ccc     C3 4141  12.192   7.708  10.309  0.4217  0.2658  0.2347
  147ccc     C4 4142  12.190   7.578  10.228  0.3810 -1.1110  0.1598
  147ccc     C5 4143  12.200   7.447  10.313  0.0592  0.1264 -0.3047
  147ccc     H3 4144  12.097   7.569  10.171  0.3302  2.3702 -0.5522
  147ccc     H4 4145  12.290   7.734  10.351 -0.3447  0.9906  1.6137
  147ccc     H5 4146  12.298   7.440  10.363  0.8179 -1.3616 -1.8859
  147ccc     O1 4147  12.189   7.324  10.231  0.4650  0.9195 -0.6887
  147ccc     O2 4148  12.293   7.594  10.131  0.0826 -0.3471 -0.1892
  147ccc     O3 4149  12.134   7.813  10.228 -0.2061  0.5530 -0.0322
  147ccc     O4 4150  11.973   7.711  10.410  0.1802 -0.9103  0.1518
  147ccc     C6 4151  12.032   7.543  10.633 -0.3132 -0.0430  0.5545
  147ccc     H6 4152  12.176   7.809  10.140 -1.6830  0.1977 -0.7470
  147ccc     H7 4153  11.983   7.759  10.326 -1.4333 -1.3657 -0.3430
  147ccc     H8 4154  12.296   7.681  10.086  2.2283 -0.8569 -1.1488
  147ccc     H9 4155  11.925   7.532  10.611  0.1090 -0.0864 -1.8159
  147ccc    H10 4156  12.026   7.634  10.692  1.3286 -0.8648  2.0780
  147ccc     O5 4157  12.083   7.434  10.710  0.5786 -0.0719 -0.3206
  147ccc    H11 4158  12.050   7.352  10.670  3.7224 -1.5258 -0.2140
  147ccc     O6 4159  12.096   7.448  10.411 -0.1100  0.1883  0.1262
  148ccc     C1 4160  11.307   7.559  10.508 -0.5173  0.4212 -0.4770
  148ccc     C2 4161  11.462   7.595  10.518  0.2089  0.3711 -0.6749
  148ccc     H1 4162  11.264   7.610  10.594  1.4586  1.1399  0.1525
  148ccc     H2 4163  11.474   7.704  10.521 -0.4866  0.4335  2.4721
  148ccc     C3 4164  11.516   7.534  10.651 -0.2514 -0.1688 -0.6894
  148ccc     C4 4165  11.497   7.382  10.647 -0.5155 -0.2793 -0.7060
  148ccc     C5 4166  11.342   7.346  10.624 -0.4105  0.5709 -0.1213
  148ccc     H3 4167  11.552   7.350  10.558 -0.4672  1.1693 -1.2334
  148ccc     H4 4168  11.460   7.583  10.731 -2.1566  0.1434 -2.1226
  148ccc     H5 4169  11.286   7.371  10.714  0.1912  2.5504 -0.2421
  148ccc     O1 4170  11.333   7.205  10.604 -0.1778 -0.4830 -0.6535
  148ccc     O2 4171  11.564   7.322  10.756  0.1338 -0.3819  0.3400
  148ccc     O3 4172  11.654   7.564  10.654 -0.0243 -0.0481 -0.4409
  148ccc     O4 4173  11.532   7.548  10.403  0.4086  0.0828  0.0304
  148ccc     C6 4174  11.240   7.617  10.382  0.1741 -0.5481 -0.5111
  148ccc     H6 4175  11.690   7.492  10.709  2.1870  0.1365 -1.5428
  148ccc     H7 4176  11.627   7.541  10.422  0.1311 -2.2326  0.9016
  148ccc     H8 4177  11.507   7.251  10.792  1.2751 -0.7917  1.3933
  148ccc     H9 4178  11.261   7.725  10.373  0.1766 -0.6433 -1.8330
  148ccc    H10 4179  11.134   7.590  10.385  0.0076  0.0751  2.3978
  148ccc     O5 4180  11.300   7.554  10.272 -0.1618 -0.0966 -0.4528
  148ccc    H11 4181  11.380   7.512  10.309 -0.8646  0.6446  2.0779
  148ccc     O6 4182  11.282   7.415  10.518 -0.2119 -0.9857  0.1819
  149ccc     C1 4183  10.612   7.234  11.214  0.3651 -0.3047 -0.1393
  149ccc     C2 4184  10.558   7.348  11.119  0.2198 -0.4478  0.3058
  149ccc     H1 4185  10.631   7.288  11.308  0.1191  0.0972 -0.3170
  149ccc     H2 4186  10.462   7.391  11.150 -0.0215  0.2907 -1.3504
  149ccc     C3 4187  10.666   7.458  11.101  0.0625 -0.1209 -0.0944
  149ccc     C4 4188  10.799   7.392  11.056 -0.1599 -0.0279  0.1495
  149ccc     C5 4189  10.846   7.275  11.149  0.0837  0.0532  0.4441
  149ccc     H3 4190  10.800   7.363  10.950  1.2078 -2.1507  0.6964
  149ccc     H4 4191  10.680   7.513  11.195  0.1926  0.4536 -0.4434
  149ccc     H5 4192  10.862   7.316  11.250  1.9237 -0.4735  0.4114
  149ccc     O1 4193  10.969   7.222  11.102  0.0591  0.4600  0.0558
  149ccc     O2 4194  10.893   7.511  11.059  0.0168  0.0875 -0.9611
  149ccc     O3 4195  10.618   7.556  11.009 -0.0666  0.0787 -0.3335
  149ccc     O4 4196  10.534   7.294  10.989 -0.5310 -0.2816  0.0138
  149ccc     C6 4197  10.515   7.121  11.236 -0.1882 -0.7453  0.2935
  149ccc     H6 4198  10.675   7.544  10.931 -0.9995 -1.7890 -0.7852
  149ccc     H7 4199  10.466   7.345  10.941 -0.2488  0.1052  0.0131
  149ccc     H8 4200  10.968   7.485  11.002  3.3319  0.6757  2.6840
  149ccc     H9 4201  10.509   7.055  11.149 -2.2487 -1.6096  1.0481
  149ccc    H10 4202  10.415   7.161  11.257  0.7023  0.8995  1.7050
  149ccc     O5 4203  10.565   7.047  11.340 -0.3711  0.6405 -0.3518
  149ccc    H11 4204  10.660   7.063  11.325 -0.4566  0.2192 -1.4293
  149ccc     O6 4205  10.737   7.179  11.164  0.1226  0.3081  0.1681
  150ccc     C1 4206  11.015   6.984   7.927 -0.0605 -0.4958  0.0879
  150ccc     C2 4207  10.946   7.121   7.907 -1.2007 -0.0089 -0.0176
  150ccc     H1 4208  11.118   6.985   7.888 -0.1218 -0.6450 -0.0797
  150ccc     H2 4209  11.000   7.196   7.965 -0.2353 -0.2989 -0.5246
  150ccc     C3 4210  10.929   7.163   7.757  0.0425  0.2885 -0.3113
  150ccc     C4 4211  10.883   7.039   7.676 -0.5677 -0.4847 -0.0242
  150ccc     C5 4212  10.955   6.902   7.713 -0.2832  0.2255 -0.6973
  150ccc     H3 4213  10.781   7.025   7.713 -0.9327 -1.0725 -1.2089
  150ccc     H4 4214  11.026   7.191   7.714 -0.2860 -1.5566 -2.4777
  150ccc     H5 4215  11.063   6.894   7.694 -0.2255 -2.2689  0.3101
  150ccc     O1 4216  10.899   6.788   7.638 -0.2005  0.3406  0.3497
  150ccc     O2 4217  10.885   7.063   7.531 -0.1774 -0.5896  0.9671
  150ccc     O3 4218  10.827   7.273   7.757 -0.7602  0.0264 -0.7598
  150ccc     O4 4219  10.814   7.114   7.953  0.0521  0.3643 -0.2714
  150ccc     C6 4220  11.030   6.951   8.079 -0.3039  0.0263  0.3147
  150ccc     H6 4221  10.858   7.341   7.695 -0.4485 -0.0919 -0.7326
  150ccc     H7 4222  10.781   7.195   7.910 -0.4931  1.9221  2.7454
  150ccc     H8 4223  10.832   7.145   7.521  1.5448  0.6403  1.4895
  150ccc     H9 4224  10.930   6.924   8.116 -0.9185  1.2901 -0.3297
  150ccc    H10 4225  11.057   7.034   8.145  0.1930 -0.0600  0.2245
  150ccc     O5 4226  11.121   6.848   8.093 -0.3347  0.8905 -0.0084
  150ccc    H11 4227  11.154   6.870   8.182 -1.4241  0.5690  0.4881
  150ccc     O6 4228  10.942   6.886   7.854 -0.1597 -0.7838  0.5030
  151ccc     C1 4229  10.199   5.927   7.214 -0.4486 -0.3273  0.4000
  151ccc     C2 4230  10.111   5.845   7.306 -0.1943 -0.4034 -0.0154
  151ccc     H1 4231  10.224   5.878   7.119 -1.8317  1.3828 -0.9311
  151ccc     H2 4232  10.020   5.813   7.253 -0.9672  0.7566  0.5800
  151ccc     C3 4233  10.186   5.713   7.345 -0.3553 -0.1497 -0.0793
  151ccc     C4 4234  10.338   5.743   7.405  0.6215 -0.5663 -0.2115
  151ccc     C5 4235  10.412   5.853   7.314  0.1330  0.3548 -0.4378
  151ccc     H3 4236  10.338   5.788   7.505 -1.1699  0.0459 -0.4434
  151ccc     H4 4237  10.205   5.655   7.254 -0.4145 -2.4156  1.2856
  151ccc     H5 4238  10.435   5.805   7.219  1.5866 -0.3845  0.2552
  151ccc     O1 4239  10.540   5.902   7.373 -0.0368 -0.5475  0.5009
  151ccc     O2 4240  10.402   5.612   7.408  0.1076  0.3315  0.2601
  151ccc     O3 4241  10.103   5.625   7.427  0.1799  0.0922 -0.4127
  151ccc     O4 4242  10.066   5.930   7.414 -0.6401  0.2403 -0.6682
  151ccc     C6 4243  10.127   6.057   7.166 -0.2700  0.7128  0.3301
  151ccc     H6 4244  10.130   5.533   7.415  0.6819  0.2312 -0.3814
  151ccc     H7 4245  10.022   5.865   7.471  2.8890 -0.0758  1.9690
  151ccc     H8 4246  10.361   5.581   7.490  1.6494  1.1344  1.3818
  151ccc     H9 4247  10.132   6.139   7.239 -0.3304 -1.3757  2.8239
  151ccc    H10 4248  10.023   6.028   7.147  0.2536 -1.4350  0.5109
  151ccc     O5 4249  10.200   6.091   7.047  0.4412 -0.4273 -0.1356
  151ccc    H11 4250  10.290   6.101   7.083  0.3518 -0.5153  0.1174
  151ccc     O6 4251  10.329   5.969   7.290  0.0012  0.3300  0.0493
  152ccc     C1 4252  11.035   4.397   8.864 -0.2252 -0.0552  0.1725
  152ccc     C2 4253  10.914   4.319   8.810  0.1523 -0.4277  0.4860
  152ccc     H1 4254  10.996   4.445   8.955 -3.1417  0.4239 -1.2196
  152ccc     H2 4255  10.886   4.250   8.891  2.0567 -1.8911 -0.0406
  152ccc     C3 4256  10.800   4.415   8.777 -0.1689  0.0663 -0.5415
  152ccc     C4 4257  10.847   4.539   8.692  0.3336  0.4350  0.6515
  152ccc     C5 4258  10.976   4.608   8.749  0.3615  0.8311 -0.3307
  152ccc     H3 4259  10.879   4.503   8.593  0.6192 -0.1405  0.9525
  152ccc     H4 4260  10.756   4.448   8.872  0.8229 -1.4253  0.4732
  152ccc     H5 4261  10.940   4.642   8.847  0.2723  2.6829 -0.9843
  152ccc     O1 4262  11.028   4.718   8.665 -0.1443  0.3347  0.0307
  152ccc     O2 4263  10.742   4.643   8.700  0.6452  0.5832  0.2684
  152ccc     O3 4264  10.692   4.349   8.701  1.1079 -0.2015  0.2926
  152ccc     O4 4265  10.959   4.259   8.692 -0.3729  0.0899  0.2921
  152ccc     C6 4266  11.159   4.308   8.900  0.0829  0.1024 -0.2135
  152ccc     H6 4267  10.735   4.274   8.656  0.6781 -0.8660  0.9489
  152ccc     H7 4268  11.052   4.246   8.716 -0.5609 -3.3335 -0.3156
  152ccc     H8 4269  10.662   4.603   8.662  0.4512  0.3471  0.9095
  152ccc     H9 4270  11.127   4.231   8.972  1.6262 -2.2738 -1.9060
  152ccc    H10 4271  11.241   4.368   8.940 -0.9874 -0.5913  3.4222
  152ccc     O5 4272  11.206   4.252   8.776  0.5495  0.1590  0.2545
  152ccc    H11 4273  11.299   4.279   8.766  0.4845 -0.4968 -3.5178
  152ccc     O6 4274  11.084   4.510   8.784 -0.4503  0.6353  0.3607
  153ccc     C1 4275  11.971   5.135   8.258  0.0621  0.4094  0.2387
  153ccc     C2 4276  12.059   5.046   8.157 -0.2671  0.2887 -0.2191
  153ccc     H1 4277  12.011   5.120   8.360 -0.0410 -0.7417  0.1208
  153ccc     H2 4278  12.163   5.079   8.166 -0.3340  0.2604  0.7060
  153ccc     C3 4279  12.032   4.897   8.205 -0.6484 -0.0372 -0.0591
  153ccc     C4 4280  11.884   4.864   8.217 -0.1932  0.1891  0.7818
  153ccc     C5 4281  11.811   4.959   8.315 -0.2331  0.9868 -0.2016
  153ccc     H3 4282  11.842   4.901   8.123  0.0377  0.3320  0.7342
  153ccc     H4 4283  12.086   4.884   8.300  0.7547 -0.3760 -0.8697
  153ccc     H5 4284  11.850   4.949   8.417 -0.7427 -0.6911 -0.1322
  153ccc     O1 4285  11.671   4.914   8.304  0.1862 -0.5930 -0.3290
  153ccc     O2 4286  11.868   4.722   8.231 -0.4240  0.4510 -0.0733
  153ccc     O3 4287  12.092   4.801   8.111  0.5481 -0.7699  0.6254
  153ccc     O4 4288  12.005   5.066   8.023 -0.3288  0.4352  0.2127
  153ccc     C6 4289  11.970   5.288   8.228 -0.0391  0.4684  0.6292
  153ccc     H6 4290  12.008   4.752   8.112 -1.4397  2.1255 -2.4029
  153ccc     H7 4291  12.020   4.985   7.970 -0.0339  1.4722 -1.3441
  153ccc     H8 4292  11.868   4.700   8.326  1.8147 -1.1780 -0.3666
  153ccc     H9 4293  12.074   5.320   8.241 -0.3444  0.9868  1.9367
  153ccc    H10 4294  11.914   5.342   8.305  0.1827  3.1044 -0.9519
  153ccc     O5 4295  11.938   5.311   8.086  0.0493  0.7992 -0.2573
  153ccc    H11 4296  11.945   5.221   8.048  0.2645  1.4700 -1.8675
  153ccc     O6 4297  11.836   5.090   8.261  0.1114  0.2049 -0.0064
  154ccc     C1 4298  11.192   7.597   9.189  0.3290 -0.1043  0.6483
  154ccc     C2 4299  11.336   7.646   9.202  0.1674  0.1173 -0.3203
  154ccc     H1 4300  11.176   7.498   9.234 -1.0752 -0.9267 -1.5047
  154ccc     H2 4301  11.360   7.648   9.309 -0.5124 -0.0872 -0.1603
  154ccc     C3 4302  11.444   7.558   9.135  0.2446  0.5572 -0.0953
  154ccc     C4 4303  11.409   7.544   8.982  0.1160 -0.2130  0.0900
  154ccc     C5 4304  11.254   7.517   8.959 -0.0933  0.2280  0.2589
  154ccc     H3 4305  11.452   7.626   8.924 -0.4757 -2.2166 -3.4969
  154ccc     H4 4306  11.435   7.458   9.180 -0.0608  0.8810  0.5744
  154ccc     H5 4307  11.244   7.410   8.982  0.3567  0.0408 -0.3784
  154ccc     O1 4308  11.229   7.529   8.819  0.0888 -0.3813  0.1403
  154ccc     O2 4309  11.471   7.423   8.943 -0.2430 -0.2012  0.2158
  154ccc     O3 4310  11.577   7.611   9.155 -0.0349  0.1638  0.1833
  154ccc     O4 4311  11.345   7.773   9.153  0.0963 -0.4194  0.8531
  154ccc     C6 4312  11.092   7.694   9.253  0.0092  0.6302  0.4760
  154ccc     H6 4313  11.631   7.547   9.107  1.3485  1.2726  0.2013
  154ccc     H7 4314  11.382   7.831   9.221 -0.9634  1.3075  0.0121
  154ccc     H8 4315  11.498   7.441   8.851  1.0560  1.5787  0.9094
  154ccc     H9 4316  11.065   7.773   9.182 -0.1655 -1.7307 -2.2338
  154ccc    H10 4317  11.135   7.738   9.344 -1.6813  1.4552  0.9211
  154ccc     O5 4318  10.978   7.618   9.288  0.6859  0.1037  0.2868
  154ccc    H11 4319  10.962   7.675   9.365  2.8476  1.5144 -0.1891
  154ccc     O6 4320  11.164   7.599   9.040  0.2652 -0.1183  0.7051
  155ccc     C1 4321  11.321   8.258   8.924  0.1564  0.0972  0.3627
  155ccc     C2 4322  11.200   8.236   9.024 -0.3520  0.0169  0.3537
  155ccc     H1 4323  11.275   8.263   8.824 -1.1237 -1.9113  0.7719
  155ccc     H2 4324  11.131   8.321   9.026 -0.2588  0.0843  0.8763
  155ccc     C3 4325  11.115   8.108   8.983  0.1488 -0.0330  0.6449
  155ccc     C4 4326  11.207   7.987   8.977  0.1657  0.1806  0.1719
  155ccc     C5 4327  11.329   8.019   8.882  0.8933 -0.2967 -0.1137
  155ccc     H3 4328  11.256   7.973   9.075  1.6605  0.8903 -0.4444
  155ccc     H4 4329  11.075   8.129   8.884  2.7384  0.5965 -0.3516
  155ccc     H5 4330  11.300   8.033   8.777 -1.0764 -1.3298  0.2413
  155ccc     O1 4331  11.414   7.909   8.882  0.4884 -0.5281  0.0103
  155ccc     O2 4332  11.132   7.876   8.926  0.4410 -0.0460  0.4564
  155ccc     O3 4333  11.016   8.087   9.093 -0.1614  0.6606  0.2758
  155ccc     O4 4334  11.251   8.207   9.156 -0.1132  0.1973  0.4987
  155ccc     C6 4335  11.410   8.381   8.954 -0.4571 -0.1990 -0.9250
  155ccc     H6 4336  10.960   8.009   9.077 -1.4731  0.8858  3.1087
  155ccc     H7 4337  11.178   8.152   9.190  0.0165 -1.0314 -1.1005
  155ccc     H8 4338  11.169   7.803   8.978 -0.2910 -1.6454 -1.1827
  155ccc     H9 4339  11.435   8.400   9.059 -0.6860  0.0629 -0.9175
  155ccc    H10 4340  11.355   8.470   8.921 -0.8358  1.0618  2.6631
  155ccc     O5 4341  11.531   8.380   8.868  0.1151  0.0312 -0.6612
  155ccc    H11 4342  11.597   8.317   8.901  1.3771  1.5103 -0.2665
  155ccc     O6 4343  11.396   8.136   8.933 -0.4474  0.0816  0.0996
  156ccc     C1 4344  12.669   6.760   7.578 -0.2085 -0.5453 -0.2173
  156ccc     C2 4345  12.753   6.721   7.698 -0.5927  1.0346 -0.1949
  156ccc     H1 4346  12.742   6.769   7.496 -0.6747  2.5312 -0.4194
  156ccc     H2 4347  12.817   6.638   7.664 -2.4139 -0.4632 -0.1444
  156ccc     C3 4348  12.848   6.835   7.751  0.3425 -0.3507  0.5381
  156ccc     C4 4349  12.760   6.960   7.772 -0.0293 -0.4852 -0.0998
  156ccc     C5 4350  12.696   7.000   7.641 -0.0032  0.1363  0.3596
  156ccc     H3 4351  12.688   6.937   7.852  2.2842 -0.4904  2.1266
  156ccc     H4 4352  12.918   6.853   7.668  0.3092  1.7085  0.9207
  156ccc     H5 4353  12.772   7.031   7.568 -0.0257 -1.2100 -0.2781
  156ccc     O1 4354  12.615   7.114   7.666  0.1392  0.3465  0.5527
  156ccc     O2 4355  12.853   7.061   7.822  0.1399  0.2147  0.1109
  156ccc     O3 4356  12.932   6.799   7.859 -0.3184 -0.0375 -0.1800
  156ccc     O4 4357  12.668   6.674   7.799  0.7067  0.0154  0.2095
  156ccc     C6 4358  12.567   6.655   7.539 -1.0055 -0.0297 -0.4043
  156ccc     H6 4359  12.950   6.877   7.915 -0.0403 -0.0954 -0.1851
  156ccc     H7 4360  12.725   6.680   7.878  2.4062 -0.6005 -0.9157
  156ccc     H8 4361  12.796   7.116   7.879  1.4630  1.6666  0.0854
  156ccc     H9 4362  12.469   6.680   7.580 -1.0353 -0.2452 -0.3461
  156ccc    H10 4363  12.608   6.557   7.567  0.1330  0.3502 -0.6736
  156ccc     O5 4364  12.548   6.671   7.398 -0.0792  0.4393  0.6599
  156ccc    H11 4365  12.497   6.594   7.368 -0.9242  1.8187 -1.6916
  156ccc     O6 4366  12.611   6.890   7.598  0.6386  0.3850  0.4209
  157ccc     C1 4367  12.172   8.031   7.871 -0.7926  0.1456 -0.0641
  157ccc     C2 4368  12.256   8.158   7.834  0.3652 -0.0747 -0.1911
  157ccc     H1 4369  12.223   7.990   7.959  0.3200  1.0599 -0.2644
  157ccc     H2 4370  12.258   8.222   7.923 -0.5512  0.3428 -0.4584
  157ccc     C3 4371  12.403   8.123   7.800  0.3970  0.7111  0.1151
  157ccc     C4 4372  12.407   8.009   7.687  0.1188  0.1041  0.0534
  157ccc     C5 4373  12.323   7.890   7.736  0.6406  0.1275  0.4775
  157ccc     H3 4374  12.362   8.046   7.594 -0.5604 -1.7152 -0.3829
  157ccc     H4 4375  12.438   8.081   7.896 -2.0077  0.6152  1.0222
  157ccc     H5 4376  12.372   7.839   7.820  2.0929 -2.4328 -1.7857
  157ccc     O1 4377  12.315   7.793   7.634 -0.0484  0.2954 -0.2096
  157ccc     O2 4378  12.544   7.967   7.663  0.1309  0.7465 -0.0722
  157ccc     O3 4379  12.480   8.236   7.759  0.1812  0.0807  0.5403
  157ccc     O4 4380  12.193   8.222   7.729  0.9527 -0.5493  0.8065
  157ccc     C6 4381  12.019   8.049   7.885  0.1727  0.1007 -0.1130
  157ccc     H6 4382  12.455   8.261   7.669 -1.8363  0.3596  1.1226
  157ccc     H7 4383  12.101   8.190   7.722  1.5538 -2.5731  1.4276
  157ccc     H8 4384  12.553   7.968   7.566 -0.0285  1.4880 -0.0861
  157ccc     H9 4385  11.992   8.100   7.979 -3.8100 -1.4007 -0.2454
  157ccc    H10 4386  11.979   7.947   7.880 -0.1291 -0.0568  3.0355
  157ccc     O5 4387  11.959   8.124   7.784 -0.0279  0.0151  0.0181
  157ccc    H11 4388  11.947   8.054   7.718  3.0653 -0.4650 -0.1963
  157ccc     O6 4389  12.187   7.942   7.763  0.0877  0.7709  0.4234
  158ccc     C1 4390  12.419   5.263  10.189 -0.4778 -0.8121 -0.2411
  158ccc     C2 4391  12.537   5.301  10.284 -0.5792  0.7618 -0.7423
  158ccc     H1 4392  12.385   5.353  10.136  2.5923  0.4498 -0.2670
  158ccc     H2 4393  12.621   5.341  10.226 -0.7401 -0.5813 -1.9500
  158ccc     C3 4394  12.501   5.417  10.380  0.1341  0.0358  0.1919
  158ccc     C4 4395  12.370   5.382  10.455 -0.0320  0.1766 -0.5398
  158ccc     C5 4396  12.262   5.336  10.349 -0.1468  0.1986 -1.0196
  158ccc     H3 4397  12.406   5.305  10.524  1.9493  2.2006  0.8329
  158ccc     H4 4398  12.483   5.508  10.322  0.1916  1.2488  2.0048
  158ccc     H5 4399  12.243   5.422  10.284 -2.4766 -1.0381 -2.0940
  158ccc     O1 4400  12.142   5.305  10.434 -0.5651 -0.5160 -0.5611
  158ccc     O2 4401  12.330   5.495  10.540 -0.1593 -0.6102 -0.4116
  158ccc     O3 4402  12.622   5.445  10.462  0.3323 -0.0246  0.1853
  158ccc     O4 4403  12.574   5.181  10.350  0.7071  0.3060 -0.1378
  158ccc     C6 4404  12.461   5.147  10.086  0.4304 -0.3435 -0.4405
  158ccc     H6 4405  12.596   5.502  10.536  0.2824  0.0198  0.1330
  158ccc     H7 4406  12.546   5.104  10.296  1.2313 -1.4436  1.9212
  158ccc     H8 4407  12.320   5.456  10.629 -2.0074 -1.1703 -0.8196
  158ccc     H9 4408  12.556   5.175  10.038  0.3756 -1.2507 -1.1022
  158ccc    H10 4409  12.381   5.139  10.012  0.6579  0.9785 -0.8537
  158ccc     O5 4410  12.471   5.028  10.160 -0.7666  0.0158  0.2633
  158ccc    H11 4411  12.380   5.010  10.191 -0.0868 -0.6264  2.0401
  158ccc     O6 4412  12.302   5.226  10.263  0.0020  0.3821  0.7355
  159ccc     C1 4413  11.334   4.480  10.407  1.1298 -0.1868  0.1710
  159ccc     C2 4414  11.177   4.457  10.411 -0.3267  0.5063 -0.4432
  159ccc     H1 4415  11.381   4.416  10.482 -0.2621  1.1477  2.2941
  159ccc     H2 4416  11.162   4.349  10.425 -0.6120  0.5969 -0.0396
  159ccc     C3 4417  11.107   4.527  10.535 -0.1109  0.3840  0.3771
  159ccc     C4 4418  11.162   4.671  10.570  0.2587 -0.3862  0.7409
  159ccc     C5 4419  11.313   4.666  10.569 -0.4167 -0.9246 -0.6788
  159ccc     H3 4420  11.130   4.740  10.492  2.0995 -0.7079 -0.3484
  159ccc     H4 4421  11.116   4.462  10.623 -0.8621  1.0598  0.9771
  159ccc     H5 4422  11.343   4.618  10.664 -1.7825 -0.2760  0.0998
  159ccc     O1 4423  11.366   4.802  10.593 -0.3068  0.1914 -0.0921
  159ccc     O2 4424  11.108   4.707  10.699  0.2342  0.1681 -0.4439
  159ccc     O3 4425  10.967   4.535  10.502  0.0126  0.3310  0.5526
  159ccc     O4 4426  11.122   4.513  10.293  0.1652 -0.0525  0.2130
  159ccc     C6 4427  11.401   4.441  10.273  0.5573  0.1559 -0.9061
  159ccc     H6 4428  10.922   4.556  10.586 -0.0761 -0.3605  0.6845
  159ccc     H7 4429  11.034   4.537  10.328  1.1399  2.4465  1.1933
  159ccc     H8 4430  11.077   4.797  10.680 -0.5027  0.3604  1.4878
  159ccc     H9 4431  11.400   4.331  10.262 -1.3687 -0.0310  0.5438
  159ccc    H10 4432  11.509   4.456  10.282  0.5874 -0.9578  1.2752
  159ccc     O5 4433  11.340   4.508  10.162 -0.4635 -0.1681 -0.2706
  159ccc    H11 4434  11.253   4.520  10.204 -0.8816 -2.6757 -0.2283
  159ccc     O6 4435  11.358   4.618  10.438 -0.0807 -0.3300 -0.0242
  160ccc     C1 4436  11.796   6.976  11.333 -0.0567 -0.0656 -0.1379
  160ccc     C2 4437  11.726   7.105  11.383 -0.6085 -0.5225  0.7029
  160ccc     H1 4438  11.841   6.993  11.234 -1.1803  2.4844 -0.3123
  160ccc     H2 4439  11.803   7.182  11.385  0.9108 -1.9884  2.7226
  160ccc     C3 4440  11.612   7.152  11.286 -0.0398  0.5425 -0.3789
  160ccc     C4 4441  11.513   7.036  11.267  0.1646 -0.9975  0.4178
  160ccc     C5 4442  11.578   6.898  11.242  0.9171 -0.7844 -0.2405
  160ccc     H3 4443  11.456   7.032  11.360  0.0095 -0.0998  0.3718
  160ccc     H4 4444  11.668   7.160  11.192 -0.2721 -1.7608 -0.7821
  160ccc     H5 4445  11.604   6.890  11.136  0.3733 -0.2342 -0.4217
  160ccc     O1 4446  11.471   6.795  11.277 -0.0246 -0.3704  0.2804
  160ccc     O2 4447  11.420   7.077  11.162 -0.6151  0.0040  0.0352
  160ccc     O3 4448  11.560   7.275  11.328 -0.1391  0.1954 -0.0084
  160ccc     O4 4449  11.678   7.096  11.516  0.4426  0.8958 -0.2287
  160ccc     C6 4450  11.919   6.937  11.422  0.1147 -0.1988  0.1931
  160ccc     H6 4451  11.516   7.311  11.249  2.9371 -0.4606 -2.2329
  160ccc     H7 4452  11.740   7.031  11.553 -1.0833 -0.6525 -0.2533
  160ccc     H8 4453  11.356   7.134  11.208  0.2529 -1.0361  2.7141
  160ccc     H9 4454  12.009   6.998  11.409 -0.4021  1.0339  1.9906
  160ccc    H10 4455  11.954   6.837  11.393  0.7806 -0.1991  0.9652
  160ccc     O5 4456  11.871   6.937  11.561 -0.2014  0.3338  0.5410
  160ccc    H11 4457  11.953   6.917  11.609  0.4911  0.8364 -0.3829
  160ccc     O6 4458  11.694   6.876  11.328  0.1742  0.0875  0.2810
  161ccc     C1 4459  10.704   7.042  11.804  0.2127  0.1329 -0.2050
  161ccc     C2 4460  10.642   7.183  11.800  0.3552  0.4632 -0.2935
  161ccc     H1 4461  10.791   7.051  11.870 -2.3391 -1.4268  3.7006
  161ccc     H2 4462  10.634   7.205  11.907  0.6074 -2.1832  0.3442
  161ccc     C3 4463  10.730   7.276  11.711  0.2580 -0.3318 -0.4992
  161ccc     C4 4464  10.759   7.225  11.566  0.2693  0.5947 -0.7949
  161ccc     C5 4465  10.827   7.087  11.588  0.5283  0.0937 -0.1366
  161ccc     H3 4466  10.662   7.200  11.522  0.2425  0.4962 -0.6799
  161ccc     H4 4467  10.821   7.288  11.772  0.2874  3.0484 -1.0554
  161ccc     H5 4468  10.932   7.088  11.620  0.6378  1.0144 -0.4825
  161ccc     O1 4469  10.832   7.027  11.456  0.2308 -0.0568 -0.3609
  161ccc     O2 4470  10.827   7.322  11.483  0.2211 -0.2586  0.0692
  161ccc     O3 4471  10.666   7.402  11.697 -0.2981  0.2013 -0.0475
  161ccc     O4 4472  10.517   7.157  11.736  0.5990  0.6158  0.0866
  161ccc     C6 4473  10.610   6.939  11.870 -0.2820  0.3242  0.0519
  161ccc     H6 4474  10.650   7.420  11.791  0.4619 -2.3317  0.6512
  161ccc     H7 4475  10.471   7.242  11.724  0.7775  0.7753  0.5155
  161ccc     H8 4476  10.816   7.404  11.534  1.6711 -0.6156  1.0300
  161ccc     H9 4477  10.539   6.901  11.796 -2.4916  1.7338  1.3307
  161ccc    H10 4478  10.552   6.988  11.950 -0.5172 -0.5283  0.4088
  161ccc     O5 4479  10.689   6.829  11.917 -0.2810 -0.4521  0.0933
  161ccc    H11 4480  10.733   6.786  11.842  0.5562 -0.6061  0.6638
  161ccc     O6 4481  10.747   7.000  11.671 -0.0904  0.5234  0.6332
  162ccc     C1 4482  11.873   7.347   9.471  0.0443  0.4609 -0.3039
  162ccc     C2 4483  11.798   7.315   9.339  0.0408  0.8392  0.4622
  162ccc     H1 4484  11.958   7.406   9.435 -0.5634  0.5586 -1.6291
  162ccc     H2 4485  11.765   7.408   9.292  0.3445  0.4614 -0.5144
  162ccc     C3 4486  11.900   7.235   9.249 -0.3848 -0.0600  0.6168
  162ccc     C4 4487  11.957   7.103   9.323  0.0098 -0.8560 -0.3331
  162ccc     C5 4488  12.007   7.140   9.464 -0.2399  0.6789  0.2383
  162ccc     H3 4489  11.871   7.036   9.335  0.2845 -1.1430  0.0792
  162ccc     H4 4490  11.982   7.301   9.221  0.0032 -0.1548  1.5110
  162ccc     H5 4491  12.106   7.185   9.455 -0.0853 -0.0971 -3.3769
  162ccc     O1 4492  12.046   7.010   9.527 -0.6182  0.1331 -0.6662
  162ccc     O2 4493  12.063   7.045   9.246 -0.1222  0.5151  0.4336
  162ccc     O3 4494  11.834   7.207   9.127  0.2455  0.5509  0.3095
  162ccc     O4 4495  11.689   7.236   9.367 -0.3060  0.3351 -0.0949
  162ccc     C6 4496  11.795   7.433   9.571 -0.5835  0.2103 -0.1159
  162ccc     H6 4497  11.895   7.154   9.072 -0.3602 -1.9419  1.8532
  162ccc     H7 4498  11.648   7.220   9.280  2.3325 -2.0508 -1.0470
  162ccc     H8 4499  12.031   6.954   9.237  1.0578  0.1991 -0.9340
  162ccc     H9 4500  11.798   7.538   9.539 -0.5953 -0.3984 -2.2895
  162ccc    H10 4501  11.836   7.434   9.672 -3.1282 -1.3411  1.0164
  162ccc     O5 4502  11.658   7.392   9.574  0.4201 -0.2206  0.0613
  162ccc    H11 4503  11.669   7.331   9.500  0.8521 -0.2065  0.1144
  162ccc     O6 4504  11.915   7.219   9.540 -0.1575  0.0556 -0.2472
  163ccc     C1 4505  12.440   6.058   9.699 -0.5367  0.3638 -0.1654
  163ccc     C2 4506  12.525   5.959   9.791 -0.3173  0.2626  0.3818
  163ccc     H1 4507  12.508   6.091   9.620 -2.4817  2.2246 -1.1364
  163ccc     H2 4508  12.582   5.880   9.741  0.7497  0.8126  0.6968
  163ccc     C3 4509  12.633   6.041   9.869 -0.1264 -0.1992 -0.1170
  163ccc     C4 4510  12.571   6.167   9.937  0.4336 -0.1766 -0.3192
  163ccc     C5 4511  12.480   6.247   9.842 -0.2387 -0.1536 -0.6164
  163ccc     H3 4512  12.504   6.121  10.011  0.6619 -1.9743 -1.1586
  163ccc     H4 4513  12.709   6.074   9.797  0.7034 -2.1933 -0.2325
  163ccc     H5 4514  12.535   6.308   9.770  0.0345  0.1844 -0.1238
  163ccc     O1 4515  12.399   6.349   9.917  0.7197  0.4253 -0.1948
  163ccc     O2 4516  12.684   6.245   9.991 -0.5094 -0.1505  0.7155
  163ccc     O3 4517  12.705   5.964   9.961  0.0934 -0.2230  0.2782
  163ccc     O4 4518  12.426   5.910   9.881  0.3717 -0.1720 -0.3808
  163ccc     C6 4519  12.341   5.989   9.611 -0.5900 -0.1706  0.4304
  163ccc     H6 4520  12.788   5.948   9.913 -1.0283 -0.6755 -1.5586
  163ccc     H7 4521  12.339   5.910   9.837  0.6153  0.3611 -0.8711
  163ccc     H8 4522  12.724   6.181  10.052  1.1122  0.1117 -0.0027
  163ccc     H9 4523  12.396   5.912   9.555 -1.6060  0.1269 -1.0043
  163ccc    H10 4524  12.287   6.064   9.553 -0.6136  1.6690  2.6705
  163ccc     O5 4525  12.237   5.923   9.683 -0.2645 -0.0076  0.3077
  163ccc    H11 4526  12.173   5.891   9.618  1.1869  1.6324 -2.0862
  163ccc     O6 4527  12.378   6.165   9.777  0.3567 -0.6474 -0.9811
  164ccc     C1 4528  11.266   7.143   9.450 -0.7674  0.3198  0.3190
  164ccc     C2 4529  11.198   7.122   9.282 -0.8334 -0.5745 -0.3093
  164ccc     H1 4530  11.356   7.081   9.444 -0.9049 -0.1190  2.1122
  164ccc     H2 4531  11.278   7.059   9.242  0.5608  0.7098  0.3544
  164ccc     C3 4532  10.945   7.008   9.290  0.5037 -0.7133  0.1736
  164ccc     C4 4533  10.895   6.975   9.466 -0.0626 -0.3005  0.6714
  164ccc     C5 4534  11.017   6.998   9.598  0.2140  0.0392  0.0896
  164ccc     H3 4535  10.829   7.062   9.479 -0.1498 -0.2358 -0.1584
  164ccc     H4 4536  10.939   6.906   9.251 -0.7616 -0.7821  0.5120
  164ccc     H5 4537  11.044   6.899   9.637  0.5503  1.0082  2.5016
  164ccc     O1 4538  10.954   7.064   9.709 -0.0029  0.6608 -0.2117
  164ccc     O2 4539  10.831   6.849   9.480 -0.1397  0.2394 -0.0381
  164ccc     O3 4540  10.819   7.043   9.227  0.3279 -0.4667  0.0661
  164ccc     O4 4541  11.256   7.250   9.231 -0.4617  0.0681 -0.2182
  164ccc     C6 4542  11.314   7.286   9.484  1.0775 -0.3729  0.2864
  164ccc     H6 4543  10.758   6.968   9.242 -0.9518  0.7386  1.1018
  164ccc     H7 4544  11.230   7.320   9.294  2.2916 -0.6375  1.9203
  164ccc     H8 4545  10.906   6.789   9.464  0.7058  1.0126  0.8779
  164ccc     H9 4546  11.406   7.311   9.430  0.4746 -0.4874 -0.8321
  164ccc    H10 4547  11.337   7.285   9.591  0.8030 -0.2002  0.3477
  164ccc     O5 4548  11.212   7.379   9.452 -0.2191 -0.1124 -0.1840
  164ccc    H11 4549  11.145   7.353   9.518 -0.0445 -2.5568 -0.8539
  164ccc     O6 4550  11.175   7.075   9.582 -0.1566 -0.3775  0.0541
  165ccc     C1 4551  10.669   7.816  10.451 -0.0058  0.4649  0.3744
  165ccc     C2 4552  10.753   7.873  10.562 -0.0402 -0.1726  0.1146
  165ccc     H1 4553  10.563   7.821  10.481 -0.1783 -3.4125  0.9380
  165ccc     H2 4554  10.724   7.977  10.582  0.2257  0.7988 -3.8081
  165ccc     C3 4555  10.757   7.797  10.689  0.0843  0.2255  0.0604
  165ccc     C4 4556  10.786   7.644  10.665 -0.5542 -1.1939 -0.2937
  165ccc     C5 4557  10.694   7.591  10.560  0.3721 -0.2289 -0.1184
  165ccc     H3 4558  10.888   7.630  10.627  0.0474 -0.3670  0.9550
  165ccc     H4 4559  10.659   7.800  10.737  1.1244 -0.1451  2.3156
  165ccc     H5 4560  10.590   7.589  10.592 -0.7974  0.6772 -3.4177
  165ccc     O1 4561  10.738   7.455  10.523 -0.2631  0.4573 -0.7577
  165ccc     O2 4562  10.774   7.577  10.795  0.3021  0.6474  0.0502
  165ccc     O3 4563  10.859   7.865  10.775  0.5588  0.6108  0.0477
  165ccc     O4 4564  10.885   7.880  10.508 -0.4667 -0.1752 -0.5745
  165ccc     C6 4565  10.677   7.881  10.310  0.1438  0.4158  0.2988
  165ccc     H6 4566  10.830   7.868  10.868 -1.1517 -1.0704 -0.3599
  165ccc     H7 4567  10.936   7.872  10.590  1.2633 -1.8367 -1.7417
  165ccc     H8 4568  10.853   7.611  10.839 -0.7648  2.1737  0.8943
  165ccc     H9 4569  10.656   7.988  10.310 -0.0397  0.3805 -0.0759
  165ccc    H10 4570  10.606   7.840  10.238  1.1547 -0.7926 -0.0456
  165ccc     O5 4571  10.803   7.854  10.248  0.1750 -0.5304  0.1406
  165ccc    H11 4572  10.848   7.869  10.333 -0.1065 -0.9057  0.3569
  165ccc     O6 4573  10.694   7.673  10.439  0.3505  0.3236  0.1392
  166ccc     C1 4574   9.848   3.891   9.043 -0.2040 -0.1035 -0.0544
  166ccc     C2 4575   9.722   3.805   9.036 -0.5683 -0.1741 -0.0185
  166ccc     H1 4576   9.810   3.984   8.999  0.3486 -0.4972 -1.4011
  166ccc     H2 4577   9.639   3.852   9.091  0.2517  2.7872 -1.1281
  166ccc     C3 4578   9.680   3.790   8.891 -0.4693  0.4874 -0.0720
  166ccc     C4 4579   9.803   3.738   8.806 -0.0562  0.5301 -0.3215
  166ccc     C5 4580   9.925   3.833   8.817  0.9464 -0.1850 -0.6798
  166ccc     H3 4581   9.829   3.638   8.840  2.5514  0.8681 -1.1281
  166ccc     H4 4582   9.660   3.884   8.839  0.4954  0.3016 -0.8008
  166ccc     H5 4583   9.909   3.935   8.781  0.4975  1.3432  3.2763
  166ccc     O1 4584  10.042   3.780   8.745 -0.2730 -0.4894  0.7082
  166ccc     O2 4585   9.757   3.726   8.667  0.8673  0.3805 -0.2634
  166ccc     O3 4586   9.563   3.706   8.876 -0.1373  0.0946  0.1466
  166ccc     O4 4587   9.752   3.676   9.098 -0.8342  0.2673  0.5322
  166ccc     C6 4588   9.893   3.914   9.187  0.6548  0.2538 -0.2221
  166ccc     H6 4589   9.502   3.766   8.829  1.8538  1.5811 -0.6562
  166ccc     H7 4590   9.697   3.613   9.048 -0.6562 -1.0092  1.8632
  166ccc     H8 4591   9.760   3.814   8.626 -0.8731 -0.5030 -2.4839
  166ccc     H9 4592   9.905   3.815   9.233  0.8895 -0.7587 -2.3300
  166ccc    H10 4593   9.819   3.971   9.244  1.9099  0.0161  1.7803
  166ccc     O5 4594  10.017   3.987   9.170 -0.3696  0.1968  0.0767
  166ccc    H11 4595  10.051   3.953   9.085  2.2971  0.8157  0.8405
  166ccc     O6 4596   9.955   3.843   8.957 -0.2695 -0.2695  0.0116
  167ccc     C1 4597  10.867   3.842   9.272 -0.1964  0.2601 -0.2323
  167ccc     C2 4598  10.892   3.800   9.418 -0.0088  0.5215  0.5739
  167ccc     H1 4599  10.861   3.951   9.268 -1.1247  0.1956 -0.7111
  167ccc     H2 4600  10.977   3.845   9.471 -0.0596 -0.4302  1.5019
  167ccc     C3 4601  10.776   3.849   9.507  0.1365  0.0873  0.0920
  167ccc     C4 4602  10.645   3.789   9.447 -0.3335 -0.1714 -0.4829
  167ccc     C5 4603  10.630   3.835   9.303  0.2638 -0.3961  0.3248
  167ccc     H3 4604  10.661   3.681   9.443  1.5235  0.0788 -0.9638
  167ccc     H4 4605  10.759   3.956   9.489 -0.4037 -0.1701 -0.9830
  167ccc     H5 4606  10.612   3.943   9.304 -1.6400 -0.6831  1.5588
  167ccc     O1 4607  10.514   3.780   9.235  0.0252 -0.2457  0.3236
  167ccc     O2 4608  10.531   3.831   9.525 -1.0098 -0.4948  0.0533
  167ccc     O3 4609  10.801   3.834   9.650 -0.1203 -0.4892 -0.4960
  167ccc     O4 4610  10.916   3.658   9.419 -0.1810 -0.1618 -0.4713
  167ccc     C6 4611  10.980   3.794   9.173 -0.5437  0.2687  1.1743
  167ccc     H6 4612  10.784   3.741   9.673 -1.3454 -1.3278 -4.0880
  167ccc     H7 4613  10.962   3.638   9.336  2.2197  1.3233  0.3850
  167ccc     H8 4614  10.448   3.810   9.478 -0.2026 -1.2487 -1.1040
  167ccc     H9 4615  11.079   3.824   9.211 -0.1872  0.8310 -0.1393
  167ccc    H10 4616  10.964   3.851   9.081 -3.1881  1.3936  2.2035
  167ccc     O5 4617  10.968   3.650   9.159  0.3548 -0.1385 -0.1376
  167ccc    H11 4618  10.894   3.642   9.097 -0.8798 -0.5898  1.3272
  167ccc     O6 4619  10.740   3.799   9.226 -0.4096 -0.5353  0.6832
  168ccc     C1 4620  10.179   2.711   9.206 -0.3400 -0.7351  0.5503
  168ccc     C2 4621  10.047   2.752   9.275 -0.3393 -0.3856  0.2550
  168ccc     H1 4622  10.240   2.669   9.287 -0.5528 -0.8854  0.6371
  168ccc     H2 4623  10.007   2.666   9.329 -0.8350  0.1727  0.7989
  168ccc     C3 4624  10.084   2.852   9.390  0.2548 -1.1773 -0.4891
  168ccc     C4 4625  10.156   2.979   9.325  0.4205 -0.5954  0.1590
  168ccc     C5 4626  10.284   2.936   9.248 -0.1462  0.1294 -0.2941
  168ccc     H3 4627  10.091   3.013   9.243  1.6611  3.1117  0.4873
  168ccc     H4 4628  10.162   2.807   9.453 -1.3561 -2.1143  0.9199
  168ccc     H5 4629  10.360   2.892   9.313 -1.1597 -0.4574  0.5393
  168ccc     O1 4630  10.332   3.055   9.180  0.4399 -0.1299 -0.2891
  168ccc     O2 4631  10.160   3.095   9.414 -0.4509  0.3786 -0.1031
  168ccc     O3 4632   9.964   2.873   9.464 -0.1246 -0.4560  0.2522
  168ccc     O4 4633   9.955   2.807   9.177  0.7714 -0.0848 -0.0735
  168ccc     C6 4634  10.163   2.599   9.100  0.3049  0.1937 -0.0854
  168ccc     H6 4635   9.975   2.952   9.519 -0.0597 -1.4308  1.6745
  168ccc     H7 4636   9.874   2.799   9.230  0.7037 -1.2224 -0.3349
  168ccc     H8 4637  10.075   3.133   9.388 -1.4882 -1.4589  0.4061
  168ccc     H9 4638  10.112   2.637   9.011 -0.1496 -1.2738 -0.4804
  168ccc    H10 4639  10.100   2.517   9.137 -0.3967  1.5665  1.9298
  168ccc     O5 4640  10.295   2.552   9.065  0.3388 -0.0078  0.4278
  168ccc    H11 4641  10.317   2.607   8.988 -1.6185  0.4222  0.1067
  168ccc     O6 4642  10.248   2.834   9.155 -0.0430 -0.6821 -0.3304
  169ccc     C1 4643  10.555   3.496   9.669  0.1380  0.2891  0.4245
  169ccc     C2 4644  10.423   3.437   9.723 -0.1797  0.3740 -0.3359
  169ccc     H1 4645  10.532   3.602   9.652  1.1586  0.6753  1.3456
  169ccc     H2 4646  10.382   3.504   9.800  0.6838  0.3665  0.1349
  169ccc     C3 4647  10.323   3.422   9.607 -0.1924 -0.7508 -0.0361
  169ccc     C4 4648  10.387   3.358   9.483 -0.0443 -0.9640 -0.4496
  169ccc     C5 4649  10.511   3.439   9.436  0.1249 -0.1301 -0.0205
  169ccc     H3 4650  10.422   3.260   9.519 -0.6891 -0.7361  0.8169
  169ccc     H4 4651  10.300   3.526   9.581 -0.8587 -1.2203 -1.4516
  169ccc     H5 4652  10.484   3.542   9.412  1.0583 -0.5333 -3.1971
  169ccc     O1 4653  10.574   3.388   9.320 -0.3946 -0.1284  0.2679
  169ccc     O2 4654  10.280   3.339   9.386  0.1733  0.0909  0.0012
  169ccc     O3 4655  10.203   3.353   9.653  0.7158  0.2204  0.6280
  169ccc     O4 4656  10.455   3.304   9.770  0.6068 -0.4932 -0.2114
  169ccc     C6 4657  10.668   3.494   9.770 -0.0084 -0.1179 -0.3956
  169ccc     H6 4658  10.220   3.261   9.678 -0.9080 -0.8214 -1.7408
  169ccc     H7 4659  10.369   3.277   9.807  0.9562 -1.2217  0.0963
  169ccc     H8 4660  10.236   3.255   9.410 -1.0171  0.9027  0.7646
  169ccc     H9 4661  10.701   3.390   9.782  1.5341  0.1333 -2.0628
  169ccc    H10 4662  10.623   3.530   9.864  0.4391 -3.7348  1.3582
  169ccc     O5 4663  10.760   3.589   9.709  0.0111 -0.8087 -0.4498
  169ccc    H11 4664  10.839   3.537   9.686 -0.4408 -1.3898 -0.7202
  169ccc     O6 4665  10.605   3.433   9.548  0.5431 -0.0221  0.1801
  170ccc     C1 4666  11.163   6.080   8.244 -0.0072  0.6761  0.3215
  170ccc     C2 4667  11.183   6.263   8.172  0.0904  0.2755 -0.1265
  170ccc     H1 4668  11.231   6.062   8.328 -0.6310 -0.1009  0.6810
  170ccc     H2 4669  11.236   6.330   8.241  0.9546  1.5002 -1.9013
  170ccc     C3 4670  11.288   6.286   8.001  0.2786 -0.4098 -0.3800
  170ccc     C4 4671  11.355   6.121   7.900  0.2603  0.4936  0.1482
  170ccc     C5 4672  11.325   5.937   7.985  0.5790 -0.3196 -0.0381
  170ccc     H3 4673  11.293   6.118   7.810  1.8958 -3.5516 -1.0520
  170ccc     H4 4674  11.383   6.330   8.030 -0.5249  1.1908 -0.0958
  170ccc     H5 4675  11.424   5.906   8.020  0.5640 -0.2316  0.0810
  170ccc     O1 4676  11.292   5.829   7.891  0.1351 -0.6207  0.0015
  170ccc     O2 4677  11.494   6.141   7.853  0.2933 -0.1225  0.6021
  170ccc     O3 4678  11.226   6.378   7.910  0.2313 -0.6934  0.3475
  170ccc     O4 4679  11.052   6.319   8.160 -0.0217  0.0113 -0.4084
  170ccc     C6 4680  11.022   6.061   8.315  0.1762 -0.6865 -0.8864
  170ccc     H6 4681  11.261   6.466   7.934  2.2901 -1.5030  0.4287
  170ccc     H7 4682  11.071   6.414   8.152  2.1205 -0.2028  1.2520
  170ccc     H8 4683  11.503   6.237   7.844  1.0081 -0.3550 -1.8529
  170ccc     H9 4684  10.940   6.085   8.247 -0.2194  0.3114 -0.0754
  170ccc    H10 4685  11.005   6.133   8.397 -3.6093  0.7947 -2.7389
  170ccc     O5 4686  11.015   5.928   8.366  0.3038 -0.3793 -0.1042
  170ccc    H11 4687  11.014   5.883   8.280 -0.4822 -2.0239  0.7150
  170ccc     O6 4688  11.225   5.929   8.144  0.4187 -0.2901  0.0887
  171ccc     C1 4689  11.533   4.663   7.973 -0.0827 -0.0472  0.0760
  171ccc     C2 4690  11.557   4.605   7.830 -0.5457 -0.0225 -0.2245
  171ccc     H1 4691  11.425   4.653   7.992 -0.3155 -1.9655 -1.8606
  171ccc     H2 4692  11.536   4.498   7.845  0.5779  0.0419  2.3478
  171ccc     C3 4693  11.474   4.684   7.724  0.6253  0.5475  0.0028
  171ccc     C4 4694  11.498   4.837   7.731 -0.2841  0.2642 -0.1920
  171ccc     C5 4695  11.482   4.890   7.874 -0.5892  0.7007  0.1152
  171ccc     H3 4696  11.600   4.858   7.695 -0.4711  0.0393 -0.8654
  171ccc     H4 4697  11.371   4.666   7.757  0.7432  0.3800  0.2780
  171ccc     H5 4698  11.381   4.871   7.912 -0.2085  1.6751  1.7330
  171ccc     O1 4699  11.522   5.028   7.886  0.6005 -0.1286 -0.0867
  171ccc     O2 4700  11.408   4.894   7.638 -0.6606  0.2092 -0.2775
  171ccc     O3 4701  11.502   4.631   7.590 -0.9073 -0.1777 -0.3531
  171ccc     O4 4702  11.695   4.611   7.793  0.3101 -0.1891  0.8981
  171ccc     C6 4703  11.629   4.600   8.079  0.0314  0.2922  0.4841
  171ccc     H6 4704  11.447   4.683   7.529 -0.9541  0.2494  0.0533
  171ccc     H7 4705  11.688   4.579   7.702  1.4759  0.3810  0.5797
  171ccc     H8 4706  11.457   4.962   7.589 -1.2225  0.5972 -0.3147
  171ccc     H9 4707  11.727   4.642   8.053 -1.1805  2.4701 -0.8574
  171ccc    H10 4708  11.634   4.491   8.075 -1.6518  0.1005  2.2822
  171ccc     O5 4709  11.589   4.647   8.205  0.3891 -0.1625 -0.2604
  171ccc    H11 4710  11.624   4.738   8.204 -0.2201  0.0789 -1.3893
  171ccc     O6 4711  11.562   4.807   7.961 -0.5001  0.0527  0.5071
  172ccc     C1 4712  11.774   5.668   8.642 -0.3551  0.2095 -0.5503
  172ccc     C2 4713  11.865   5.786   8.650  0.3668 -0.0175 -0.4893
  172ccc     H1 4714  11.762   5.635   8.746  1.7296 -0.6612 -0.5549
  172ccc     H2 4715  11.820   5.846   8.731  1.6688  0.4922 -0.1115
  172ccc     C3 4716  12.018   5.763   8.683 -0.3580  0.1603 -0.0007
  172ccc     C4 4717  12.067   5.629   8.610 -0.0611 -0.0710 -0.5293
  172ccc     C5 4718  11.963   5.516   8.641  0.9338  1.0212  0.2401
  172ccc     H3 4719  12.079   5.642   8.502  1.0631  0.6142 -0.3396
  172ccc     H4 4720  12.021   5.746   8.792 -0.3768 -0.7314 -0.1286
  172ccc     H5 4721  11.945   5.501   8.748  1.9246 -0.4578  0.2393
  172ccc     O1 4722  12.012   5.392   8.575 -0.0613  0.0846  0.1197
  172ccc     O2 4723  12.196   5.592   8.673  0.3752 -0.4732 -0.6471
  172ccc     O3 4724  12.097   5.885   8.663 -0.0505  0.1979  0.6742
  172ccc     O4 4725  11.846   5.865   8.529 -0.2180  0.2810 -0.3185
  172ccc     C6 4726  11.625   5.689   8.594 -0.3758 -0.1838  0.4514
  172ccc     H6 4727  12.141   5.900   8.748 -0.3318  1.1748  0.6591
  172ccc     H7 4728  11.789   5.801   8.482  0.3505 -0.0276 -0.5954
  172ccc     H8 4729  12.252   5.665   8.642 -1.4963  0.0756 -3.0435
  172ccc     H9 4730  11.562   5.770   8.635 -1.4199 -1.3839  1.3381
  172ccc    H10 4731  11.558   5.607   8.623  0.6072 -0.5602  1.7374
  172ccc     O5 4732  11.640   5.714   8.448 -0.5786 -0.2136 -0.0204
  172ccc    H11 4733  11.557   5.752   8.416 -2.1629 -0.9469  2.8929
  172ccc     O6 4734  11.839   5.553   8.572  0.4665  0.1648  0.3807
  173ccc     C1 4735  11.552   4.470   8.572  0.4026  0.3795  0.1567
  173ccc     C2 4736  11.690   4.404   8.589 -0.4030  0.2761  0.2665
  173ccc     H1 4737  11.532   4.474   8.464  0.9925  3.2353  0.0771
  173ccc     H2 4738  11.691   4.307   8.537  2.1471  0.4498 -0.1301
  173ccc     C3 4739  11.795   4.491   8.526 -0.5420 -0.1729 -0.0648
  173ccc     C4 4740  11.789   4.639   8.576  0.0261  0.7463 -0.2357
  173ccc     C5 4741  11.647   4.699   8.569  0.8682  0.4280 -0.6833
  173ccc     H3 4742  11.827   4.637   8.679 -1.4954 -1.6476  0.3680
  173ccc     H4 4743  11.758   4.504   8.424 -1.5091  0.7303  0.3870
  173ccc     H5 4744  11.612   4.716   8.467 -2.6608 -1.5854  0.0310
  173ccc     O1 4745  11.636   4.826   8.646  0.6313  0.5262 -0.0755
  173ccc     O2 4746  11.882   4.716   8.498 -0.4575  0.3063  0.0527
  173ccc     O3 4747  11.930   4.447   8.531 -0.2709  0.3595 -0.0332
  173ccc     O4 4748  11.719   4.383   8.732 -0.8172  0.0287 -0.2614
  173ccc     C6 4749  11.437   4.388   8.627 -0.4110  0.7886 -0.1368
  173ccc     H6 4750  11.965   4.436   8.441  0.4968  0.9477  0.1783
  173ccc     H7 4751  11.816   4.387   8.733 -0.7876 -0.5283 -0.1571
  173ccc     H8 4752  11.956   4.726   8.560  1.0006 -0.0233 -1.5401
  173ccc     H9 4753  11.424   4.303   8.560 -0.9888 -0.1228  1.0869
  173ccc    H10 4754  11.348   4.450   8.614 -0.9907 -0.1638 -0.8128
  173ccc     O5 4755  11.453   4.347   8.761 -0.0802  0.1138  0.2035
  173ccc    H11 4756  11.547   4.373   8.762 -0.7105  2.5895  1.1356
  173ccc     O6 4757  11.556   4.606   8.631  0.0373  0.1067 -0.3383
  174ccc     C1 4758   7.441   5.612  10.186 -0.5122  0.2750  0.0697
  174ccc     C2 4759   7.335   5.686  10.265  0.5358 -0.9919 -0.0441
  174ccc     H1 4760   7.406   5.543  10.109  3.0652 -0.4188 -1.0839
  174ccc     H2 4761   7.263   5.739  10.200  0.0235 -1.1354  0.4014
  174ccc     C3 4762   7.250   5.604  10.361  0.6430 -0.4226 -0.2766
  174ccc     C4 4763   7.342   5.525  10.452  0.5240 -0.4440  0.3535
  174ccc     C5 4764   7.466   5.462  10.387  0.0950  0.5342  0.0833
  174ccc     H3 4765   7.387   5.598  10.521  2.7022 -1.7168  0.3597
  174ccc     H4 4766   7.195   5.525  10.308 -0.7213  1.6383 -2.0947
  174ccc     H5 4767   7.458   5.365  10.337  4.2493  0.2651 -0.4158
  174ccc     O1 4768   7.560   5.448  10.492  0.3325 -0.1910 -0.1771
  174ccc     O2 4769   7.266   5.430  10.522  0.1349  0.2714  0.5468
  174ccc     O3 4770   7.154   5.686  10.432 -0.1117 -0.3917 -0.4327
  174ccc     O4 4771   7.395   5.792  10.346 -0.1717 -0.4404 -0.1838
  174ccc     C6 4772   7.529   5.705  10.100 -0.2483  0.5510 -0.4292
  174ccc     H6 4773   7.086   5.626  10.470 -0.9279  0.3151 -0.7394
  174ccc     H7 4774   7.323   5.845  10.385 -1.1320 -0.6336 -1.6343
  174ccc     H8 4775   7.247   5.356  10.462  0.3620 -1.0566  2.0597
  174ccc     H9 4776   7.474   5.767  10.028 -1.1520 -0.7351 -0.8973
  174ccc    H10 4777   7.595   5.645  10.037 -0.1661  0.4747 -0.2697
  174ccc     O5 4778   7.599   5.781  10.202  0.7156 -0.5176 -0.7319
  174ccc    H11 4779   7.533   5.782  10.273  1.6496  1.9023  0.2139
  174ccc     O6 4780   7.522   5.549  10.288 -0.1085  0.0440  0.0723
  175ccc     C1 4781   7.736   4.535  10.728 -0.2331  0.5214 -0.3098
  175ccc     C2 4782   7.588   4.585  10.756  0.7030 -0.1999 -0.0830
  175ccc     H1 4783   7.770   4.480  10.817 -3.2280  2.3736  2.1920
  175ccc     H2 4784   7.526   4.499  10.786  0.4162  0.0248 -0.0248
  175ccc     C3 4785   7.581   4.681  10.873 -0.5319 -0.0717 -0.8810
  175ccc     C4 4786   7.688   4.790  10.875 -0.0821  0.7772  0.1999
  175ccc     C5 4787   7.830   4.737  10.834  0.1846 -0.1952  0.5172
  175ccc     H3 4788   7.648   4.872  10.815 -1.6257 -0.2492 -0.2425
  175ccc     H4 4789   7.606   4.620  10.961  0.5582  2.3797  0.5986
  175ccc     H5 4790   7.873   4.681  10.918 -0.9011 -1.7770  0.0557
  175ccc     O1 4791   7.907   4.860  10.794  0.3410 -0.4055 -0.6601
  175ccc     O2 4792   7.690   4.831  11.019  0.5875  0.1324 -0.3893
  175ccc     O3 4793   7.453   4.739  10.888  0.2553 -0.0005  0.0125
  175ccc     O4 4794   7.540   4.646  10.635  0.2240 -0.7199 -0.7236
  175ccc     C6 4795   7.746   4.451  10.597  0.3388  0.1972 -0.4073
  175ccc     H6 4796   7.385   4.670  10.878 -0.8197  1.1392 -0.8322
  175ccc     H7 4797   7.453   4.679  10.663 -0.2437 -3.1092  0.9655
  175ccc     H8 4798   7.624   4.902  11.030 -1.8411 -1.9615 -0.7149
  175ccc     H9 4799   7.723   4.514  10.511 -0.6163  1.9485  1.0590
  175ccc    H10 4800   7.679   4.364  10.609  1.6011 -0.6490  0.8220
  175ccc     O5 4801   7.879   4.398  10.584 -0.2190 -0.0369 -0.3916
  175ccc    H11 4802   7.931   4.480  10.591  1.0508 -0.6484 -1.9874
  175ccc     O6 4803   7.816   4.657  10.711 -0.3361  0.4223 -0.0382
  176ccc     C1 4804   9.445   6.078   9.329 -0.2114  0.2954  0.2711
  176ccc     C2 4805   9.496   6.213   9.261 -0.3512 -0.0921 -0.6629
  176ccc     H1 4806   9.350   6.047   9.284  0.5278  0.1518 -1.2598
  176ccc     H2 4807   9.532   6.207   9.157 -0.7966  2.1676 -0.9833
  176ccc     C3 4808   9.378   6.314   9.258  0.7024 -0.6725  0.4318
  176ccc     C4 4809   9.336   6.340   9.407  0.6518  0.3992  0.5457
  176ccc     C5 4810   9.315   6.207   9.488  0.0011 -0.2261  0.4393
  176ccc     H3 4811   9.420   6.384   9.461 -0.3412  2.3912  0.5525
  176ccc     H4 4812   9.292   6.261   9.216  0.2372 -1.0101  1.7795
  176ccc     H5 4813   9.224   6.157   9.452  0.8163 -1.1991 -0.3184
  176ccc     O1 4814   9.283   6.235   9.630 -0.7888 -0.3531  0.1239
  176ccc     O2 4815   9.219   6.429   9.408 -0.6931  0.0533  0.2196
  176ccc     O3 4816   9.409   6.437   9.181  0.3963  0.8434 -0.7061
  176ccc     O4 4817   9.606   6.257   9.344 -0.3426  0.4628 -0.1145
  176ccc     C6 4818   9.539   5.955   9.314  0.2081  0.3630  0.8326
  176ccc     H6 4819   9.497   6.466   9.210 -0.0873  0.5827  1.1342
  176ccc     H7 4820   9.632   6.165   9.363 -0.6811  0.6527  1.4020
  176ccc     H8 4821   9.235   6.486   9.331 -1.4310  0.3321  0.2671
  176ccc     H9 4822   9.550   5.923   9.210 -1.1062 -0.1380  0.8381
  176ccc    H10 4823   9.501   5.870   9.371 -2.0916  0.2486 -0.7650
  176ccc     O5 4824   9.663   5.999   9.366  0.2750 -0.7182 -0.2239
  176ccc    H11 4825   9.706   5.920   9.403 -2.4848 -0.3777  4.4509
  176ccc     O6 4826   9.424   6.103   9.467  0.1956 -0.5603 -0.1929
  177ccc     C1 4827   9.250   5.277   9.476 -0.1502  0.4038 -0.6314
  177ccc     C2 4828   9.323   5.137   9.465 -0.6583  0.1115  0.4280
  177ccc     H1 4829   9.252   5.324   9.377 -2.0758  0.9455 -0.4446
  177ccc     H2 4830   9.273   5.074   9.390  2.9805 -0.4372 -1.7881
  177ccc     C3 4831   9.477   5.146   9.435  0.5879  1.0045  0.0601
  177ccc     C4 4832   9.535   5.251   9.526  0.4499  0.5668 -0.8217
  177ccc     C5 4833   9.459   5.386   9.516  0.3338  0.3511 -0.5055
  177ccc     H3 4834   9.526   5.209   9.628 -0.5674 -1.6469 -1.7537
  177ccc     H4 4835   9.493   5.181   9.332 -0.4515  0.9608 -0.1222
  177ccc     H5 4836   9.449   5.425   9.414  0.4151 -0.4837 -0.8438
  177ccc     O1 4837   9.528   5.487   9.599 -0.7828 -0.5475  0.3277
  177ccc     O2 4838   9.675   5.269   9.483  0.6130 -0.0281  0.1326
  177ccc     O3 4839   9.521   5.007   9.459 -0.3467  0.1404  0.0789
  177ccc     O4 4840   9.307   5.065   9.577 -0.8300 -1.2233  0.3424
  177ccc     C6 4841   9.103   5.276   9.516 -1.2450  0.5050 -0.5129
  177ccc     H6 4842   9.618   5.007   9.450 -0.4166  1.9793 -1.3617
  177ccc     H7 4843   9.382   5.005   9.560 -0.6228 -0.6200 -1.0882
  177ccc     H8 4844   9.697   5.354   9.525 -0.6745  0.0470  0.7181
  177ccc     H9 4845   9.050   5.214   9.442  0.7096  0.6065 -2.0965
  177ccc    H10 4846   9.066   5.378   9.507  2.0312  1.7540 -1.4146
  177ccc     O5 4847   9.089   5.219   9.646 -0.7640  0.6111  0.2220
  177ccc    H11 4848   9.162   5.154   9.640 -2.2191 -0.9658 -2.9799
  177ccc     O6 4849   9.321   5.359   9.563 -0.0151  0.0371 -0.5561
  178ccc     C1 4850   9.145   6.340  11.297 -0.4043  0.3849  0.7272
  178ccc     C2 4851   9.172   6.488  11.341  0.6337 -0.5478 -0.4221
  178ccc     H1 4852   9.040   6.325  11.270 -0.4208 -2.1968  1.8306
  178ccc     H2 4853   9.139   6.546  11.253 -2.6098  0.2362  1.1408
  178ccc     C3 4854   9.088   6.523  11.466 -0.6657 -0.2177 -0.0813
  178ccc     C4 4855   9.121   6.422  11.577 -0.5731 -0.3563 -0.5683
  178ccc     C5 4856   9.107   6.268  11.536  0.0464  0.2781  0.1734
  178ccc     H3 4857   9.224   6.442  11.609 -1.8767  2.0781  2.7193
  178ccc     H4 4858   8.981   6.514  11.442 -0.7659  1.3486 -0.3334
  178ccc     H5 4859   9.002   6.247  11.512  0.5100 -3.7466  0.9268
  178ccc     O1 4860   9.152   6.167  11.637  0.4641  0.2402  0.3413
  178ccc     O2 4861   9.048   6.461  11.696 -0.1910  0.2196  0.2200
  178ccc     O3 4862   9.100   6.657  11.520 -0.3841 -0.2150  0.4234
  178ccc     O4 4863   9.310   6.504  11.358  0.3262  0.5570 -0.3828
  178ccc     C6 4864   9.221   6.300  11.170 -0.9198 -0.6969  0.2105
  178ccc     H6 4865   9.153   6.710  11.458  0.4374 -0.7252  0.6686
  178ccc     H7 4866   9.352   6.417  11.342  0.6524  0.4735  0.7798
  178ccc     H8 4867   9.095   6.534  11.741  0.1901 -0.3049  0.6794
  178ccc     H9 4868   9.200   6.378  11.096 -3.0953  1.5961  3.0061
  178ccc    H10 4869   9.191   6.202  11.132  0.0408 -0.0349 -2.4576
  178ccc     O5 4870   9.364   6.300  11.181  0.4879  0.9413  0.0642
  178ccc    H11 4871   9.377   6.221  11.125  0.2025  0.8175  0.1695
  178ccc     O6 4872   9.172   6.241  11.407  0.5431 -0.2547 -0.0989
  179ccc     C1 4873   8.381   5.937  12.178 -0.1814 -0.4748  0.0165
  179ccc     C2 4874   8.395   5.854  12.308  0.0542  0.4577 -0.3624
  179ccc     H1 4875   8.286   5.899  12.138  1.1850 -2.3226 -1.6720
  179ccc     H2 4876   8.303   5.869  12.365  1.6805 -0.6986  2.8329
  179ccc     C3 4877   8.418   5.702  12.282 -0.4790 -0.0629 -0.7679
  179ccc     C4 4878   8.525   5.687  12.169 -0.1116 -0.2838 -0.3742
  179ccc     C5 4879   8.486   5.766  12.043 -0.2641  0.4323  0.3703
  179ccc     H3 4880   8.619   5.730  12.207 -0.2981 -0.0521 -0.1680
  179ccc     H4 4881   8.326   5.660  12.238 -1.2859  1.4894 -0.6714
  179ccc     H5 4882   8.389   5.729  12.007  0.5542 -0.8789 -0.5853
  179ccc     O1 4883   8.601   5.748  11.945  0.1053  0.1605 -0.3863
  179ccc     O2 4884   8.544   5.549  12.142 -0.2183 -0.1931  0.2713
  179ccc     O3 4885   8.457   5.635  12.405 -0.2345  0.6196  0.1736
  179ccc     O4 4886   8.511   5.886  12.388 -0.3100  0.1409  0.4308
  179ccc     C6 4887   8.376   6.089  12.205 -0.3442  0.3212 -0.4055
  179ccc     H6 4888   8.521   5.562  12.394  0.3332  0.8747  1.5248
  179ccc     H7 4889   8.528   5.801  12.433 -1.8841  0.6791  2.1927
  179ccc     H8 4890   8.622   5.542  12.085 -1.7422  0.2707 -2.0119
  179ccc     H9 4891   8.482   6.116  12.207  0.1208 -1.2771 -1.4567
  179ccc    H10 4892   8.313   6.114  12.291 -0.1600  2.5400 -0.8429
  179ccc     O5 4893   8.320   6.153  12.093 -0.4222  0.6767  0.4572
  179ccc    H11 4894   8.260   6.225  12.120 -1.2115 -0.4329  1.8214
  179ccc     O6 4895   8.480   5.908  12.074  0.4134  0.2981 -0.0014
  180ccc     C1 4896   9.680   5.507  12.263 -0.3032  0.8551  0.4859
  180ccc     C2 4897   9.680   5.652  12.311 -0.5359 -0.0673  0.0416
  180ccc     H1 4898   9.773   5.473  12.311 -0.8591 -0.1374  0.9020
  180ccc     H2 4899   9.703   5.650  12.418  4.2530  0.7034 -0.7140
  180ccc     C3 4900   9.773   5.754  12.238  0.7139  0.4241  0.1001
  180ccc     C4 4901   9.770   5.727  12.086  0.3618 -0.0055 -0.2299
  180ccc     C5 4902   9.798   5.577  12.061  0.1058 -0.0995  0.0752
  180ccc     H3 4903   9.670   5.754  12.051 -0.8786  0.5359  3.2726
  180ccc     H4 4904   9.873   5.741  12.280 -0.3325  0.1637  2.7362
  180ccc     H5 4905   9.898   5.555  12.100 -0.1896  1.6298  2.0022
  180ccc     O1 4906   9.783   5.550  11.922 -0.1518 -0.4680 -0.1334
  180ccc     O2 4907   9.873   5.815  12.029  0.0475 -0.4751 -0.2054
  180ccc     O3 4908   9.722   5.888  12.268  0.4338  0.4074  0.4508
  180ccc     O4 4909   9.557   5.706  12.275 -0.4226  0.2329 -0.1381
  180ccc     C6 4910   9.568   5.418  12.313  0.2110 -0.7433  0.3700
  180ccc     H6 4911   9.770   5.948  12.208  1.0337 -0.9930 -0.5218
  180ccc     H7 4912   9.591   5.796  12.280 -0.9279  0.3833  3.7404
  180ccc     H8 4913   9.912   5.769  11.952 -1.2926  0.6726 -1.6158
  180ccc     H9 4914   9.501   5.397  12.229  0.3017  2.6770 -0.6998
  180ccc    H10 4915   9.515   5.481  12.386 -1.7578 -0.6623 -1.0376
  180ccc     O5 4916   9.623   5.298  12.373  0.1263  0.6307 -0.1040
  180ccc    H11 4917   9.564   5.225  12.349 -1.2978  1.3928  0.9031
  180ccc     O6 4918   9.692   5.501  12.119 -0.5482  0.1720 -0.7424
  181ccc     C1 4919  10.387   5.576  11.194 -0.1343 -0.5033  0.7796
  181ccc     C2 4920  10.350   5.701  11.116 -0.9948 -0.1492 -0.2996
  181ccc     H1 4921  10.434   5.507  11.123 -0.5408  0.0947 -0.0819
  181ccc     H2 4922  10.441   5.751  11.079 -1.1201  0.5712  0.3343
  181ccc     C3 4923  10.251   5.664  11.001  1.0477 -0.1627 -0.3694
  181ccc     C4 4924  10.128   5.590  11.057 -0.0934 -0.2577 -0.1206
  181ccc     C5 4925  10.175   5.462  11.127  0.0265  0.0630  0.2181
  181ccc     H3 4926  10.076   5.658  11.125 -1.2190 -2.2276  1.0612
  181ccc     H4 4927  10.315   5.600  10.939 -0.6318 -2.5440  0.2115
  181ccc     H5 4928  10.222   5.401  11.049 -3.1419 -0.3340 -1.5252
  181ccc     O1 4929  10.068   5.398  11.201 -0.3288  0.0272  0.3645
  181ccc     O2 4930  10.051   5.556  10.936  0.0772 -0.5728  0.0922
  181ccc     O3 4931  10.205   5.775  10.913 -0.0787 -0.4401 -0.2797
  181ccc     O4 4932  10.287   5.785  11.211 -0.3975 -0.0306  0.2574
  181ccc     C6 4933  10.492   5.603  11.296  0.1752 -0.3578 -0.4502
  181ccc     H6 4934  10.199   5.854  10.969  0.5528  0.6660 -1.7031
  181ccc     H7 4935  10.324   5.743  11.291 -2.0489  0.8509  1.5476
  181ccc     H8 4936  10.065   5.638  10.886  1.1686  0.2644  1.6778
  181ccc     H9 4937  10.585   5.640  11.252  0.3451 -2.1444 -1.7241
  181ccc    H10 4938  10.523   5.504  11.331  1.3814 -0.7246 -2.4104
  181ccc     O5 4939  10.444   5.684  11.400  0.0079 -0.4890 -0.2452
  181ccc    H11 4940  10.511   5.686  11.470 -1.4703  0.3857  1.2441
  181ccc     O6 4941  10.269   5.501  11.234  0.4820  0.3552  0.1202
  182ccc     C1 4942   9.713   3.483   9.507 -0.0210 -0.0216 -0.1756
  182ccc     C2 4943   9.756   3.336   9.490 -0.6122 -0.0641 -0.9366
  182ccc     H1 4944   9.676   3.519   9.411 -0.8624  1.2061  0.5788
  182ccc     H2 4945   9.666   3.281   9.459 -3.8633  4.0620  0.2649
  182ccc     C3 4946   9.863   3.329   9.380 -0.5216  0.1186 -0.0163
  182ccc     C4 4947   9.978   3.433   9.409 -0.3053 -0.2012  0.2961
  182ccc     C5 4948   9.933   3.579   9.448  0.2177 -1.2274 -0.3680
  182ccc     H3 4949  10.037   3.408   9.498  2.2944  0.1225 -1.2481
  182ccc     H4 4950   9.804   3.353   9.291 -0.8950 -0.3381  0.1030
  182ccc     H5 4951   9.894   3.643   9.368 -1.0927  0.0769  1.2716
  182ccc     O1 4952  10.033   3.653   9.523 -0.7373  0.3063  0.2480
  182ccc     O2 4953  10.065   3.441   9.287 -0.6000 -0.3998 -0.1832
  182ccc     O3 4954   9.923   3.202   9.360  0.3395  0.0128 -0.4383
  182ccc     O4 4955   9.807   3.293   9.620 -0.5572  0.3005 -0.2987
  182ccc     C6 4956   9.599   3.516   9.605 -0.1960 -0.6149  0.3599
  182ccc     H6 4957   9.842   3.148   9.349 -0.5583  1.4634 -1.2450
  182ccc     H7 4958   9.752   3.344   9.682  1.5994  3.3488 -0.6694
  182ccc     H8 4959  10.153   3.414   9.320  0.3779  2.1455 -0.4892
  182ccc     H9 4960   9.505   3.472   9.570 -1.0854  1.2059  0.3170
  182ccc    H10 4961   9.585   3.624   9.616 -0.0497 -0.3843 -1.4778
  182ccc     O5 4962   9.637   3.461   9.731 -0.0005  0.7031 -0.2976
  182ccc    H11 4963   9.562   3.487   9.788  1.0072  2.3823  0.3436
  182ccc     O6 4964   9.830   3.568   9.543 -0.3866  0.1763  0.6083
  183ccc     C1 4965   9.730   4.280   9.115  0.7880  0.6416  0.3131
  183ccc     C2 4966   9.554   4.372   9.102  0.0802  0.2420  0.2914
  183ccc     H1 4967   9.719   4.191   9.052  1.5891  0.3105  0.6227
  183ccc     H2 4968   9.503   4.321   9.020 -2.3625  0.8600  1.3306
  183ccc     C3 4969   9.440   4.386   9.271  0.2864  0.6693 -0.4158
  183ccc     C4 4970   9.516   4.328   9.446 -0.7690  0.6642  0.2422
  183ccc     C5 4971   9.696   4.241   9.449 -0.3379 -0.1313 -0.5504
  183ccc     H3 4972   9.538   4.408   9.517 -0.0405  1.0503 -0.4013
  183ccc     H4 4973   9.362   4.311   9.257  0.8862 -0.3285  1.2202
  183ccc     H5 4974   9.663   4.141   9.479 -1.7915  0.3394 -0.4937
  183ccc     O1 4975   9.778   4.276   9.568  0.2702  0.6239 -0.5253
  183ccc     O2 4976   9.411   4.251   9.516 -0.0511  0.0884 -0.1797
  183ccc     O3 4977   9.368   4.508   9.296 -0.2997 -0.2953  0.2610
  183ccc     O4 4978   9.569   4.500   9.042 -0.3783 -0.6325 -0.2565
  183ccc     C6 4979   9.828   4.351   9.029  0.5109 -0.1679 -0.0352
  183ccc     H6 4980   9.306   4.520   9.221 -0.1033 -1.1506 -0.0552
  183ccc     H7 4981   9.505   4.557   9.088 -1.1905 -2.2981  0.7615
  183ccc     H8 4982   9.375   4.315   9.580  3.3692  0.2146  1.8635
  183ccc     H9 4983   9.823   4.461   9.033 -3.2161 -0.2320  0.9371
  183ccc    H10 4984   9.808   4.329   8.924  1.2017 -0.3091 -0.1361
  183ccc     O5 4985   9.951   4.296   9.075 -0.2040 -0.8586  0.2340
  183ccc    H11 4986   9.914   4.228   9.135  0.0896 -0.0959  1.3127
  183ccc     O6 4987   9.794   4.233   9.288 -0.4954  0.0258 -0.1313
  184ccc     C1 4988   8.112   3.361  10.034  0.0794 -0.1184 -0.3200
  184ccc     C2 4989   8.005   3.353  10.147  0.8936 -0.5847  0.0760
  184ccc     H1 4990   8.207   3.328  10.079 -0.2026 -2.2997 -1.2010
  184ccc     H2 4991   8.003   3.252  10.191 -0.2667  0.1362  1.7928
  184ccc     C3 4992   8.046   3.452  10.259  0.2612 -0.4942 -0.2869
  184ccc     C4 4993   8.060   3.595  10.203 -1.0535 -0.0271 -0.6436
  184ccc     C5 4994   8.156   3.600  10.082 -0.4135  0.1103 -0.2206
  184ccc     H3 4995   7.967   3.629  10.155 -0.3891  0.8188 -1.3705
  184ccc     H4 4996   8.139   3.419  10.307  0.2887 -1.8220 -1.2126
  184ccc     H5 4997   8.253   3.572  10.126 -0.1300  0.0100 -0.8896
  184ccc     O1 4998   8.162   3.735  10.032 -0.6572 -0.3641 -0.0753
  184ccc     O2 4999   8.103   3.693  10.310 -0.1661 -0.1251  0.0603
  184ccc     O3 5000   7.936   3.456  10.354 -0.2178 -0.5259 -0.0774
  184ccc     O4 5001   7.879   3.397  10.093 -0.3700 -0.1381  0.1445
  184ccc     C6 5002   8.084   3.273   9.911 -0.2722  0.0345 -0.0409
  184ccc     H6 5003   7.954   3.515  10.429 -0.0314  1.2248 -1.4361
  184ccc     H7 5004   7.829   3.414  10.175 -0.0193 -1.2633  0.6162
  184ccc     H8 5005   8.079   3.777  10.268 -0.0892  0.6028  1.4018
  184ccc     H9 5006   8.149   3.294   9.826  1.6982 -2.2917  0.7847
  184ccc    H10 5007   7.982   3.289   9.874 -0.3179 -0.2730 -0.0460
  184ccc     O5 5008   8.097   3.135   9.950 -0.1681 -0.1547  0.3047
  184ccc    H11 5009   8.138   3.089   9.874 -2.1332  0.1922 -1.0511
  184ccc     O6 5010   8.131   3.497   9.989 -0.2541 -0.3427 -0.4577
  185ccc     C1 5011   7.622   4.135   9.948  0.5979 -0.0251  0.0307
  185ccc     C2 5012   7.498   4.162  10.031 -0.3247 -0.1400 -0.5826
  185ccc     H1 5013   7.688   4.071  10.008  0.9814  1.3034  1.0874
  185ccc     H2 5014   7.469   4.081  10.100  1.8112 -0.9447 -0.5543
  185ccc     C3 5015   7.527   4.275  10.139  0.8623  0.4480  0.1907
  185ccc     C4 5016   7.610   4.401  10.093 -0.3237 -0.2207  0.2304
  185ccc     C5 5017   7.734   4.354  10.013 -0.0568 -0.2807  0.8284
  185ccc     H3 5018   7.543   4.450  10.020 -1.6715 -4.6831 -1.9374
  185ccc     H4 5019   7.588   4.225  10.215 -2.4186 -1.2947  1.8566
  185ccc     H5 5020   7.810   4.307  10.076  0.6502 -0.4120 -0.1109
  185ccc     O1 5021   7.800   4.470   9.948  0.2116  0.1393 -0.0058
  185ccc     O2 5022   7.635   4.490  10.209 -0.4194  0.1276 -0.5752
  185ccc     O3 5023   7.402   4.314  10.208  0.0651  0.1150  0.3868
  185ccc     O4 5024   7.395   4.210   9.946 -0.2265  0.3198  0.0493
  185ccc     C6 5025   7.581   4.057   9.821 -0.3056 -0.6903  0.1761
  185ccc     H6 5026   7.427   4.382  10.271 -1.7390  1.3510 -0.1497
  185ccc     H7 5027   7.316   4.218  10.003  0.1365 -0.3288  0.6600
  185ccc     H8 5028   7.572   4.563  10.199  0.1829  0.5559 -1.4504
  185ccc     H9 5029   7.536   4.123   9.746 -0.9602 -2.4588 -1.0500
  185ccc    H10 5030   7.518   3.969   9.841 -0.8318 -0.4158 -0.2626
  185ccc     O5 5031   7.700   4.004   9.758  0.1083 -0.4555 -0.4596
  185ccc    H11 5032   7.755   4.080   9.733  1.8779 -0.6440  2.3732
  185ccc     O6 5033   7.683   4.262   9.910 -0.5777  0.0698  0.5997
  186ccc     C1 5034   8.675   2.897  10.144  0.0002 -0.6411  0.0890
  186ccc     C2 5035   8.583   3.017  10.188  0.2059  0.5981  0.0611
  186ccc     H1 5036   8.650   2.814  10.211 -2.1455  0.2751  0.5096
  186ccc     H2 5037   8.479   2.984  10.195  0.2599  0.3551 -0.2347
  186ccc     C3 5038   8.615   3.054  10.337  0.2398  0.1768  0.0771
  186ccc     C4 5039   8.762   3.079  10.356  0.4447 -0.4380  0.1144
  186ccc     C5 5040   8.856   2.962  10.305 -0.3613  0.1115 -0.3941
  186ccc     H3 5041   8.786   3.161  10.287 -2.9613  0.1806 -0.5217
  186ccc     H4 5042   8.595   2.962  10.394 -0.5638 -1.3522 -2.5182
  186ccc     H5 5043   8.848   2.874  10.370  0.4547  0.3178 -0.0090
  186ccc     O1 5044   8.995   3.003  10.304  0.2723 -0.4348  0.0212
  186ccc     O2 5045   8.794   3.109  10.492 -0.1559  0.4088  0.2170
  186ccc     O3 5046   8.539   3.159  10.396  0.5166  0.2296  0.1352
  186ccc     O4 5047   8.594   3.134  10.099  0.4446 -0.3668 -0.3353
  186ccc     C6 5048   8.661   2.842  10.005 -0.0023  0.9307 -0.1562
  186ccc     H6 5049   8.550   3.158  10.492  0.2881  0.0369  0.1581
  186ccc     H7 5050   8.542   3.204  10.143  0.6235  1.0363 -2.2193
  186ccc     H8 5051   8.753   3.196  10.508 -0.5563  0.3030 -0.2108
  186ccc     H9 5052   8.723   2.897   9.932 -1.0207  1.4643 -0.6342
  186ccc    H10 5053   8.556   2.850   9.975 -0.3266 -0.6237  0.4608
  186ccc     O5 5054   8.716   2.712   9.987 -0.0729  0.7802 -0.6280
  186ccc    H11 5055   8.674   2.676   9.907  0.7447 -2.8486  0.3742
  186ccc     O6 5056   8.816   2.929  10.172  0.0054  0.1215 -0.4442
  187ccc     C1 5057  10.131   2.996  10.013 -0.2095 -0.5154  0.7378
  187ccc     C2 5058  10.221   3.056   9.901  0.8429  0.3803  0.5247
  187ccc     H1 5059  10.112   2.889   9.998  0.3645 -0.6978  1.2684
  187ccc     H2 5060  10.310   2.993   9.898  0.7052  0.0406  2.1950
  187ccc     C3 5061  10.160   3.038   9.760  0.1320 -0.2197 -0.1491
  187ccc     C4 5062  10.023   3.097   9.756  0.0635  0.3136 -0.0437
  187ccc     C5 5063   9.929   3.052   9.875 -0.8922 -0.0457 -0.4445
  187ccc     H3 5064  10.038   3.205   9.772  0.5115  0.4906 -1.5133
  187ccc     H4 5065  10.145   2.930   9.750  1.1209 -0.4608  0.7769
  187ccc     H5 5066   9.899   2.947   9.865 -0.7070 -0.1237 -0.1888
  187ccc     O1 5067   9.818   3.136   9.880 -0.2865 -0.3204 -0.4423
  187ccc     O2 5068   9.963   3.076   9.628 -0.1549  0.3576 -0.3600
  187ccc     O3 5069  10.250   3.092   9.662  0.0512  0.5421 -0.2528
  187ccc     O4 5070  10.247   3.195   9.925  0.5699  0.3068  0.9082
  187ccc     C6 5071  10.188   3.021  10.158 -0.1827  0.3162  0.3832
  187ccc     H6 5072  10.196   3.072   9.583 -0.4567 -0.9071  0.4353
  187ccc     H7 5073  10.217   3.214  10.016  2.3108  2.8600  1.0577
  187ccc     H8 5074   9.908   3.156   9.617 -0.6766 -0.1632 -1.7991
  187ccc     H9 5075  10.292   2.988  10.163 -0.2334  0.1495  0.3105
  187ccc    H10 5076  10.115   2.972  10.223 -2.2138  0.1555 -1.8651
  187ccc     O5 5077  10.169   3.160  10.187 -0.5671 -0.0770  0.1915
  187ccc    H11 5078  10.082   3.173  10.230 -0.6268  2.7752 -0.6074
  187ccc     O6 5079  10.003   3.065  10.004 -0.1799  0.0861 -0.3633
  188ccc     C1 5080   9.048   2.559  10.092 -0.3626  0.3434 -0.2032
  188ccc     C2 5081   9.190   2.515  10.126 -0.4384  0.2294 -0.2173
  188ccc     H1 5082   9.000   2.467  10.053  2.0414 -2.4444  2.8571
  188ccc     H2 5083   9.192   2.413  10.168  0.9177  0.1842 -0.3259
  188ccc     C3 5084   9.276   2.512   9.997  0.5262  0.0532 -0.1391
  188ccc     C4 5085   9.250   2.632   9.896 -0.9101 -0.2265  0.6237
  188ccc     C5 5086   9.099   2.664   9.883 -0.5833 -0.4084  0.7090
  188ccc     H3 5087   9.294   2.723   9.937 -2.0167  1.0183 -0.8286
  188ccc     H4 5088   9.237   2.423   9.946 -0.2958  0.6639 -0.5881
  188ccc     H5 5089   9.053   2.583   9.827 -0.2529 -0.2419  0.1892
  188ccc     O1 5090   9.101   2.786   9.800 -0.1452  0.5554  0.2366
  188ccc     O2 5091   9.306   2.598   9.762  0.4810  0.3296 -0.4792
  188ccc     O3 5092   9.418   2.510  10.022 -0.2840 -0.4892 -0.8252
  188ccc     O4 5093   9.257   2.615  10.215  0.1202 -0.3706 -0.3361
  188ccc     C6 5094   8.958   2.586  10.219  0.1047  0.1662  0.4120
  188ccc     H6 5095   9.453   2.469   9.941 -4.1360 -1.5794 -2.1512
  188ccc     H7 5096   9.348   2.596  10.185  0.9753 -1.3173  2.5501
  188ccc     H8 5097   9.398   2.629   9.770  0.7648 -0.9433  2.1263
  188ccc     H9 5098   8.964   2.689  10.257  0.2454 -0.6523  2.8011
  188ccc    H10 5099   8.990   2.522  10.302  0.4496 -0.3760 -0.1304
  188ccc     O5 5100   8.822   2.557  10.184 -0.2344  0.4477 -0.0994
  188ccc    H11 5101   8.787   2.623  10.122 -2.3695 -0.4391  0.1006
  188ccc     O6 5102   9.040   2.675  10.009  0.2131  0.3490  0.5862
  189ccc     C1 5103   9.535   2.719   9.454 -0.5121 -0.2189 -0.3554
  189ccc     C2 5104   9.467   2.620   9.362 -0.1443  0.8059  0.2488
  189ccc     H1 5105   9.513   2.688   9.557 -0.3231  0.3436 -0.1440
  189ccc     H2 5106   9.489   2.516   9.388 -1.3075 -0.4087 -3.0602
  189ccc     C3 5107   9.313   2.638   9.363 -0.3334  0.0651 -0.5169
  189ccc     C4 5108   9.274   2.794   9.354  0.7131  0.3697 -0.0009
  189ccc     C5 5109   9.350   2.879   9.462  0.1493  0.4561 -0.0462
  189ccc     H3 5110   9.317   2.833   9.261 -0.0389 -1.9532 -1.4168
  189ccc     H4 5111   9.275   2.588   9.453  1.0239  0.3373  0.2215
  189ccc     H5 5112   9.321   2.834   9.558 -0.3637 -0.8896 -0.8039
  189ccc     O1 5113   9.315   3.024   9.453 -0.3825  0.0137  0.2806
  189ccc     O2 5114   9.128   2.807   9.361 -0.5221 -0.8473  0.2483
  189ccc     O3 5115   9.277   2.570   9.245 -0.0176 -0.0215 -0.3469
  189ccc     O4 5116   9.516   2.650   9.230  0.6447 -0.0094 -0.1430
  189ccc     C6 5117   9.691   2.703   9.445 -0.9408 -0.0407  0.0409
  189ccc     H6 5118   9.199   2.513   9.252  3.4870 -5.5257  0.5211
  189ccc     H7 5119   9.440   2.605   9.188 -0.7526  0.8113  1.3739
  189ccc     H8 5120   9.100   2.778   9.272 -4.7687  0.6641  0.8660
  189ccc     H9 5121   9.728   2.603   9.474 -0.9265 -0.1254 -0.2678
  189ccc    H10 5122   9.739   2.766   9.521  1.4842 -1.8296  0.1212
  189ccc     O5 5123   9.738   2.744   9.314  0.1131  0.3300 -0.0907
  189ccc    H11 5124   9.653   2.745   9.266  0.7994  0.5705 -1.3589
  189ccc     O6 5125   9.493   2.850   9.438 -0.2788 -0.8158  0.2567
  190ccc     C1 5126   9.667   7.174  11.226  0.0128  0.6389  0.0704
  190ccc     C2 5127   9.735   7.316  11.208  0.6276 -0.7529 -0.5638
  190ccc     H1 5128   9.573   7.167  11.282 -0.3697 -0.8191 -0.6878
  190ccc     H2 5129   9.652   7.376  11.170  1.3078  0.0789 -0.7422
  190ccc     C3 5130   9.793   7.367  11.346 -0.2440  1.0349 -0.1320
  190ccc     C4 5131   9.882   7.255  11.407  0.3178  0.6493 -0.2132
  190ccc     C5 5132   9.820   7.116  11.411  0.0023 -0.2282  0.4964
  190ccc     H3 5133   9.974   7.244  11.349  0.2100  1.0531 -0.4641
  190ccc     H4 5134   9.714   7.392  11.417 -1.3024  0.5914 -1.1297
  190ccc     H5 5135   9.741   7.105  11.486  2.1874  0.6716  3.0812
  190ccc     O1 5136   9.919   7.024  11.452  0.2431 -0.1766 -0.1356
  190ccc     O2 5137   9.920   7.291  11.548  0.2561 -0.1853 -0.7628
  190ccc     O3 5138   9.872   7.485  11.328 -0.3554  0.3269 -0.7433
  190ccc     O4 5139   9.839   7.310  11.114 -0.0516  0.5169  0.3925
  190ccc     C6 5140   9.641   7.129  11.080  0.3238 -0.2252  0.1313
  190ccc     H6 5141   9.893   7.519  11.417 -1.6109 -0.3280 -0.1724
  190ccc     H7 5142   9.884   7.388  11.151  0.2017 -0.2637  1.8229
  190ccc     H8 5143  10.015   7.270  11.555 -0.0063 -1.1506  0.0159
  190ccc     H9 5144   9.731   7.083  11.036 -0.2937 -1.0180 -0.3507
  190ccc    H10 5145   9.616   7.211  11.011  2.0208  1.0693  0.9852
  190ccc     O5 5146   9.529   7.041  11.095 -0.1609  0.4295 -0.2080
  190ccc    H11 5147   9.564   6.973  11.154  0.3160 -0.5833 -1.5895
  190ccc     O6 5148   9.769   7.086  11.281  0.5992  0.2265  0.3703
  191ccc     C1 5149   9.979   6.973  11.831 -0.2704 -0.4724  0.1558
  191ccc     C2 5150   9.929   7.103  11.894  0.3723  0.3128 -0.0188
  191ccc     H1 5151   9.967   6.987  11.723 -0.2418  2.2920  0.4335
  191ccc     H2 5152   9.996   7.182  11.858  0.9152 -0.1345 -0.0054
  191ccc     C3 5153   9.785   7.132  11.851  0.4485 -0.0301 -0.2671
  191ccc     C4 5154   9.704   7.003  11.864 -0.2700 -0.5847 -0.1596
  191ccc     C5 5155   9.769   6.867  11.825  0.1395 -0.0479 -0.0855
  191ccc     H3 5156   9.695   6.990  11.973  2.2894 -1.2599  0.0377
  191ccc     H4 5157   9.778   7.170  11.749  0.1187 -0.1492 -0.2897
  191ccc     H5 5158   9.784   6.871  11.716 -0.2911  1.2610 -0.1200
  191ccc     O1 5159   9.693   6.761  11.890 -0.5329  0.0615 -0.0740
  191ccc     O2 5160   9.573   7.022  11.800  0.3303 -0.0679 -0.2572
  191ccc     O3 5161   9.733   7.246  11.934  0.1242  0.3606  0.7737
  191ccc     O4 5162   9.943   7.103  12.040 -0.0531 -0.2981 -0.1418
  191ccc     C6 5163  10.131   6.950  11.862 -0.0130  0.3426  0.5825
  191ccc     H6 5164   9.760   7.330  11.894 -0.0630 -0.2534 -0.7445
  191ccc     H7 5165   9.915   7.193  12.063  1.8498  0.3234 -0.0976
  191ccc     H8 5166   9.539   6.930  11.801  1.4744 -0.4968  0.7199
  191ccc     H9 5167  10.191   7.040  11.848  1.9538 -0.7450  1.5869
  191ccc    H10 5168  10.173   6.880  11.789 -1.3052 -1.3036  1.3543
  191ccc     O5 5169  10.137   6.906  11.998 -0.0457  0.3353 -0.8112
  191ccc    H11 5170  10.070   6.970  12.027  1.6664  1.4825  0.8057
  191ccc     O6 5171   9.902   6.862  11.869 -0.5247  0.4238 -0.2786
  192ccc     C1 5172   9.362   5.996  12.454 -0.0612 -0.0442  0.4543
  192ccc     C2 5173   9.252   6.108  12.443  0.2436  0.1965  0.0646
  192ccc     H1 5174   9.453   6.044  12.491 -0.4520  1.0665  0.0079
  192ccc     H2 5175   9.245   6.158  12.540  2.4414 -0.4927  0.6357
  192ccc     C3 5176   9.282   6.219  12.343  0.7195 -0.0557  0.3107
  192ccc     C4 5177   9.326   6.156  12.209  0.4422  0.0103 -0.1744
  192ccc     C5 5178   9.432   6.036  12.225 -0.2394  0.4820  1.4108
  192ccc     H3 5179   9.234   6.109  12.173 -0.8099  2.9261 -0.9995
  192ccc     H4 5180   9.370   6.268  12.388  1.8456 -2.1686  0.5325
  192ccc     H5 5181   9.534   6.072  12.246  0.4541  0.3478 -1.3584
  192ccc     O1 5182   9.430   5.961  12.091 -0.6931 -0.0551 -0.0447
  192ccc     O2 5183   9.375   6.253  12.120  0.3455 -0.4058 -0.3565
  192ccc     O3 5184   9.165   6.311  12.326 -0.3291 -0.3282 -0.1552
  192ccc     O4 5185   9.126   6.046  12.399  0.0965 -0.0613 -0.0856
  192ccc     C6 5186   9.325   5.894  12.562  0.7840  0.6213  0.0930
  192ccc     H6 5187   9.213   6.381  12.279 -0.0024 -1.7661 -2.1313
  192ccc     H7 5188   9.124   5.957  12.439  0.6032 -0.1162 -0.1732
  192ccc     H8 5189   9.315   6.235  12.046  0.1436 -2.8245  0.3106
  192ccc     H9 5190   9.303   5.949  12.654 -0.5655  0.5551 -0.1619
  192ccc    H10 5191   9.406   5.821  12.573  1.1899  1.0479 -0.0388
  192ccc     O5 5192   9.207   5.823  12.513 -0.0299 -0.3335  0.2709
  192ccc    H11 5193   9.246   5.760  12.450 -0.1337  0.8246 -1.0039
  192ccc     O6 5194   9.383   5.939  12.319  0.1293  0.1560  0.1833
  193ccc     C1 5195   9.261   6.637  12.003  0.3570  0.7184  0.5105
  193ccc     C2 5196   9.194   6.755  11.939 -0.4820 -0.3831  0.7098
  193ccc     H1 5197   9.350   6.672  12.056  0.1208  0.5373  1.0321
  193ccc     H2 5198   9.154   6.820  12.017 -0.6282  1.1374 -0.5727
  193ccc     C3 5199   9.292   6.832  11.841  0.0653  0.6440 -0.5344
  193ccc     C4 5200   9.355   6.738  11.739  0.2008 -0.6619 -0.6823
  193ccc     C5 5201   9.404   6.608  11.809  0.4625  0.4498  0.0903
  193ccc     H3 5202   9.274   6.713  11.670 -1.6302 -0.9906  1.4719
  193ccc     H4 5203   9.377   6.867  11.900  1.3071  0.8120 -2.3310
  193ccc     H5 5204   9.491   6.643  11.866  0.4597  1.2721 -0.3947
  193ccc     O1 5205   9.445   6.507  11.708 -0.2652  0.1565 -0.5272
  193ccc     O2 5206   9.464   6.815  11.680 -0.1378 -0.0231 -0.0615
  193ccc     O3 5207   9.217   6.940  11.782  0.2411  0.1378 -0.1875
  193ccc     O4 5208   9.076   6.706  11.874  0.5824 -0.6506  0.6077
  193ccc     C6 5209   9.166   6.568  12.102  0.6217  0.3198  0.2358
  193ccc     H6 5210   9.271   6.975  11.709 -1.0665  3.0616  0.0947
  193ccc     H7 5211   9.040   6.788  11.835  0.5340 -0.1273  1.7177
  193ccc     H8 5212   9.492   6.769  11.599  3.4535 -0.6745  1.3518
  193ccc     H9 5213   9.093   6.507  12.048 -1.8072  2.6618  0.6336
  193ccc    H10 5214   9.120   6.645  12.165  1.0736  1.2572 -0.5457
  193ccc     O5 5215   9.263   6.494  12.183 -0.1019 -0.2460  0.1321
  193ccc    H11 5216   9.303   6.435  12.117 -1.1550 -0.7159 -0.1035
  193ccc     O6 5217   9.304   6.551  11.899 -0.0942 -0.2053  0.0339
  194ccc     C1 5218   7.187   6.575  10.874  0.8331 -0.0315  0.1259
  194ccc     C2 5219   7.276   6.672  10.793 -0.0326 -0.0107 -0.4295
  194ccc     H1 5220   7.236   6.553  10.969 -4.0322 -1.0235  2.7669
  194ccc     H2 5221   7.317   6.754  10.854  0.9040 -0.9002  0.1837
  194ccc     C3 5222   7.404   6.592  10.742  0.1579 -0.2807 -0.3203
  194ccc     C4 5223   7.383   6.454  10.698  0.3196 -0.2103  0.6221
  194ccc     C5 5224   7.307   6.375  10.808 -0.2891  0.2111  0.3927
  194ccc     H3 5225   7.320   6.474  10.610  0.9343 -0.8283  0.0270
  194ccc     H4 5226   7.473   6.579  10.826  1.4037 -1.4404 -1.4680
  194ccc     H5 5227   7.349   6.384  10.909 -1.3620  3.0204  0.6636
  194ccc     O1 5228   7.288   6.242  10.768 -0.5110 -0.0208  0.0748
  194ccc     O2 5229   7.512   6.400  10.662  0.7210 -0.2487  0.0126
  194ccc     O3 5230   7.475   6.664  10.635  0.3279  0.1236 -0.3778
  194ccc     O4 5231   7.196   6.728  10.686  0.4567 -0.0612  0.2611
  194ccc     C6 5232   7.044   6.626  10.918  0.2815 -0.2076 -0.1235
  194ccc     H6 5233   7.536   6.593  10.608  0.2162 -0.8002  1.6147
  194ccc     H7 5234   7.102   6.713  10.707  0.4899  0.1207  0.5456
  194ccc     H8 5235   7.512   6.303  10.656 -0.2325 -0.3935  1.8956
  194ccc     H9 5236   7.071   6.714  10.977  1.6746 -0.9209  0.3601
  194ccc    H10 5237   6.996   6.562  10.993 -0.0180 -0.2924 -0.3823
  194ccc     O5 5238   6.963   6.652  10.804  0.6543 -0.0191  0.2385
  194ccc    H11 5239   6.892   6.708  10.840  2.6573  1.9950  1.2676
  194ccc     O6 5240   7.175   6.444  10.814 -0.6078  0.0353 -0.2685
  195ccc     C1 5241   7.087   5.390  11.329  0.2447 -0.1280 -0.4947
  195ccc     C2 5242   7.038   5.241  11.323  0.2331 -0.0347  0.0133
  195ccc     H1 5243   7.007   5.465  11.331 -0.2635 -0.6875  1.3346
  195ccc     H2 5244   6.969   5.209  11.402 -1.7944  1.0443 -1.2344
  195ccc     C3 5245   6.972   5.215  11.185  0.3556  0.0117  0.0973
  195ccc     C4 5246   7.054   5.261  11.055 -0.1461  0.1777  0.1321
  195ccc     C5 5247   7.099   5.416  11.077  0.0927 -0.0296 -0.1552
  195ccc     H3 5248   7.146   5.202  11.044 -0.4088 -0.8386  2.6426
  195ccc     H4 5249   6.878   5.271  11.189  0.3976  0.0423  1.0989
  195ccc     H5 5250   7.012   5.482  11.074 -0.2863 -0.4916  0.5115
  195ccc     O1 5251   7.191   5.455  10.976  0.4537  0.8670  0.0227
  195ccc     O2 5252   6.967   5.254  10.943  0.2212 -0.0910 -0.1468
  195ccc     O3 5253   6.928   5.081  11.178 -0.6624 -0.1831  0.3072
  195ccc     O4 5254   7.152   5.152  11.337  1.0799  0.2344 -0.1437
  195ccc     C6 5255   7.181   5.415  11.447  0.0911 -0.1201  0.1585
  195ccc     H6 5256   6.908   5.038  11.263 -2.5919  3.1697  1.7800
  195ccc     H7 5257   7.158   5.103  11.253  0.0189  1.3098 -0.8691
  195ccc     H8 5258   7.021   5.275  10.865 -1.7296 -0.3221 -1.6478
  195ccc     H9 5259   7.276   5.367  11.423  0.1891  0.4771 -0.7010
  195ccc    H10 5260   7.136   5.374  11.539 -0.2237  1.8254  0.9316
  195ccc     O5 5261   7.206   5.556  11.475 -0.2669  0.0249  0.8780
  195ccc    H11 5262   7.167   5.578  11.561 -0.9174  0.7695  0.4061
  195ccc     O6 5263   7.160   5.428  11.205 -0.2503 -0.2272 -0.2130
  196ccc     C1 5264   7.510   5.067  10.175 -0.0050  1.0068  1.0513
  196ccc     C2 5265   7.457   4.924  10.152  0.5737 -0.1279  0.1706
  196ccc     H1 5266   7.615   5.075  10.142  0.9565 -0.6516  3.4542
  196ccc     H2 5267   7.464   4.900  10.046 -0.4455  1.6761 -0.3533
  196ccc     C3 5268   7.537   4.822  10.228 -0.0206  0.4316  0.2063
  196ccc     C4 5269   7.557   4.855  10.378 -0.7774 -0.0949  0.3705
  196ccc     C5 5270   7.585   4.995  10.402  0.3662 -0.3261 -0.2243
  196ccc     H3 5271   7.458   4.825  10.417 -0.9213  0.0675  0.1322
  196ccc     H4 5272   7.637   4.822  10.182 -1.3380  1.3128 -2.9328
  196ccc     H5 5273   7.685   5.029  10.373 -1.4130  3.0387 -3.2110
  196ccc     O1 5274   7.560   5.017  10.547 -0.5128 -0.3771  0.2625
  196ccc     O2 5275   7.664   4.763  10.423 -0.4480 -0.2024  0.0882
  196ccc     O3 5276   7.474   4.697  10.204 -0.1914  0.5307 -1.0015
  196ccc     O4 5277   7.318   4.922  10.177 -0.2575  0.2039 -0.0762
  196ccc     C6 5278   7.443   5.176  10.092 -0.3990 -0.5301 -0.0446
  196ccc     H6 5279   7.378   4.715  10.203 -0.4669 -0.6154  0.9567
  196ccc     H7 5280   7.306   5.016  10.153  4.8309  1.1075 -0.1093
  196ccc     H8 5281   7.641   4.731  10.512  0.6252 -1.2003  0.0259
  196ccc     H9 5282   7.452   5.155   9.985 -1.8956 -1.2799 -0.0534
  196ccc    H10 5283   7.489   5.272  10.120  0.6479 -1.4419  1.5055
  196ccc     O5 5284   7.306   5.172  10.112 -0.3959 -0.7302 -0.3622
  196ccc    H11 5285   7.269   5.248  10.065 -0.6046  0.1597  1.1683
  196ccc     O6 5286   7.502   5.085  10.319  0.4504 -0.7285 -0.3364
  197ccc     C1 5287   7.189   4.605  11.108  0.3247  0.1675  0.2607
  197ccc     C2 5288   7.155   4.590  10.956 -0.1479  0.5629 -0.4976
  197ccc     H1 5289   7.094   4.609  11.161 -0.2784  1.3524 -0.8376
  197ccc     H2 5290   7.087   4.504  10.957  0.6320 -0.0601 -0.2295
  197ccc     C3 5291   7.082   4.717  10.902  0.4794 -0.3613 -0.5274
  197ccc     C4 5292   7.153   4.849  10.933 -0.4883  0.1800 -0.4588
  197ccc     C5 5293   7.188   4.851  11.087 -0.4711  0.1642 -0.4913
  197ccc     H3 5294   7.239   4.850  10.866 -0.2589  1.9138 -0.1775
  197ccc     H4 5295   6.986   4.716  10.955  1.1312  0.7697  0.7548
  197ccc     H5 5296   7.098   4.841  11.149  0.1047  0.2046  0.3732
  197ccc     O1 5297   7.269   4.966  11.146  0.3872 -0.7892  0.4144
  197ccc     O2 5298   7.072   4.960  10.912  0.0845 -0.1189 -0.5492
  197ccc     O3 5299   7.052   4.709  10.757  0.1770 -0.8331 -0.2093
  197ccc     O4 5300   7.267   4.561  10.875 -0.3322  0.3284  0.0876
  197ccc     C6 5301   7.281   4.490  11.160 -0.2468 -0.3771  0.7189
  197ccc     H6 5302   6.956   4.700  10.748  0.2746 -0.4573 -1.9078
  197ccc     H7 5303   7.253   4.474  10.835  0.2536  0.9616 -1.6222
  197ccc     H8 5304   7.065   4.964  10.815 -0.6215 -0.8099 -0.5374
  197ccc     H9 5305   7.385   4.499  11.126 -0.9183 -0.2310 -1.4626
  197ccc    H10 5306   7.256   4.392  11.117  1.4687 -0.2381 -0.6941
  197ccc     O5 5307   7.278   4.486  11.302 -0.3466  0.1366  0.4746
  197ccc    H11 5308   7.187   4.500  11.333 -0.9775 -0.3519 -1.0877
  197ccc     O6 5309   7.258   4.728  11.121  0.3116 -0.0007  0.5610
  198ccc     C1 5310   8.129   8.016   9.920 -0.1171 -0.2865  0.3102
  198ccc     C2 5311   8.015   7.928   9.965  0.2785 -1.2095 -0.1784
  198ccc     H1 5312   8.144   7.997   9.813 -3.4551 -2.2415  0.0343
  198ccc     H2 5313   7.932   7.957   9.899 -0.2115 -1.0192  0.5045
  198ccc     C3 5314   8.062   7.779   9.955  0.6693 -0.7377 -0.0042
  198ccc     C4 5315   8.192   7.764  10.038  0.0938  0.1431 -0.5100
  198ccc     C5 5316   8.300   7.863   9.986 -0.2262  0.3323 -0.2266
  198ccc     H3 5317   8.166   7.790  10.141  1.4217 -1.8936  0.4059
  198ccc     H4 5318   8.084   7.756   9.850  1.2146  2.8375 -0.7867
  198ccc     H5 5319   8.319   7.841   9.880 -1.9406 -0.5398 -0.3986
  198ccc     O1 5320   8.419   7.849  10.072  0.3956  0.3387 -0.0048
  198ccc     O2 5321   8.241   7.628  10.024 -0.0075 -0.1091  0.3864
  198ccc     O3 5322   7.958   7.689  10.010 -0.6947 -0.0568  0.4254
  198ccc     O4 5323   7.975   7.954  10.106 -0.6195  0.4291 -0.1008
  198ccc     C6 5324   8.078   8.161   9.924 -1.0893  0.2466 -0.0313
  198ccc     H6 5325   7.998   7.601  10.005 -2.2576 -0.7939  0.4696
  198ccc     H7 5326   7.927   7.871  10.127 -1.7381  0.6505 -1.6200
  198ccc     H8 5327   8.278   7.608  10.112 -0.7470  1.4749  1.0937
  198ccc     H9 5328   8.079   8.193  10.029  0.3383  3.4490 -0.8853
  198ccc    H10 5329   7.974   8.163   9.889 -0.7477 -1.4087 -1.2580
  198ccc     O5 5330   8.164   8.245   9.849  0.0645  0.3877  0.2552
  198ccc    H11 5331   8.114   8.329   9.851  0.2020  0.5083 -0.7198
  198ccc     O6 5332   8.250   8.000  10.000  0.0924  0.3242 -0.2771
  199ccc     C1 5333   9.378   8.421  10.435 -0.1019 -0.7863  0.3623
  199ccc     C2 5334   9.504   8.385  10.516  0.9858 -0.1616  0.4091
  199ccc     H1 5335   9.310   8.480  10.498  0.3028  0.2817 -0.1842
  199ccc     H2 5336   9.539   8.474  10.570  2.1526 -0.0593 -0.4997
  199ccc     C3 5337   9.466   8.275  10.611  0.5425 -0.7541  0.1456
  199ccc     C4 5338   9.380   8.157  10.564 -0.0484  0.3757  0.6171
  199ccc     C5 5339   9.263   8.201  10.472 -0.4111 -0.2849  0.2996
  199ccc     H3 5340   9.441   8.086  10.506  0.7040  0.5380  1.1881
  199ccc     H4 5341   9.402   8.321  10.688 -0.1463 -1.3152 -0.0865
  199ccc     H5 5342   9.186   8.247  10.536  0.1311  0.1193  0.6656
  199ccc     O1 5343   9.220   8.082  10.412  0.1697 -0.9849  0.1264
  199ccc     O2 5344   9.333   8.079  10.675  0.0097 -0.1967 -0.0223
  199ccc     O3 5345   9.582   8.235  10.681  0.4014  0.3811  0.0161
  199ccc     O4 5346   9.596   8.346  10.418  0.1802 -0.3403  1.1858
  199ccc     C6 5347   9.417   8.519  10.316  1.0042 -0.3234 -0.0158
  199ccc     H6 5348   9.614   8.312  10.731 -0.4750  0.5017  0.4202
  199ccc     H7 5349   9.687   8.371  10.443  1.0297 -1.4045 -0.6610
  199ccc     H8 5350   9.415   8.042  10.713 -0.2098 -0.6914 -0.0327
  199ccc     H9 5351   9.481   8.476  10.238 -0.5882  0.7721 -2.0367
  199ccc    H10 5352   9.482   8.597  10.357 -0.4403  1.5430 -1.0938
  199ccc     O5 5353   9.297   8.576  10.259 -0.1288 -0.0955 -0.0402
  199ccc    H11 5354   9.251   8.505  10.210  1.4894 -1.4118  0.2694
  199ccc     O6 5355   9.310   8.303  10.380  0.4736 -0.1616 -0.2249
  200ccc     C1 5356   9.432   8.626  10.838  0.6821 -0.6602 -0.2364
  200ccc     C2 5357   9.386   8.736  10.933  0.2385  0.4580  0.0574
  200ccc     H1 5358   9.496   8.677  10.764  3.0624 -0.3928  1.8861
  200ccc     H2 5359   9.472   8.795  10.968  0.4953  0.0568  0.1038
  200ccc     C3 5360   9.287   8.834  10.864 -0.2998  0.1142 -0.0593
  200ccc     C4 5361   9.170   8.760  10.798 -0.2218  0.1656 -0.8102
  200ccc     C5 5362   9.225   8.654  10.700  0.2443  0.1513 -0.7607
  200ccc     H3 5363   9.120   8.706  10.879  0.4658  0.3619 -0.2470
  200ccc     H4 5364   9.339   8.882  10.780  1.5279  0.5602  1.2695
  200ccc     H5 5365   9.282   8.698  10.617 -1.0794 -1.4248 -2.5705
  200ccc     O1 5366   9.107   8.576  10.656  0.0880 -0.3923  0.9586
  200ccc     O2 5367   9.075   8.852  10.742 -0.0459  0.0539 -0.1281
  200ccc     O3 5368   9.247   8.938  10.961 -0.3017 -0.0047  0.2136
  200ccc     O4 5369   9.314   8.672  11.043  0.8468 -0.3372  0.0897
  200ccc     C6 5370   9.506   8.512  10.911 -0.5685 -0.4713  0.5346
  200ccc     H6 5371   9.172   8.985  10.919  1.1047  1.5951 -0.6280
  200ccc     H7 5372   9.293   8.749  11.099 -2.4483 -1.5483  0.7640
  200ccc     H8 5373   9.003   8.791  10.718 -0.4399 -0.0307  1.2129
  200ccc     H9 5374   9.447   8.420  10.912 -0.3492 -0.6543 -1.2373
  200ccc    H10 5375   9.535   8.542  11.013 -1.4605  1.9646  0.1244
  200ccc     O5 5376   9.619   8.479  10.833  0.6400 -0.9392  0.2752
  200ccc    H11 5377   9.673   8.555  10.859 -0.6613  0.4774 -0.9509
  200ccc     O6 5378   9.321   8.564  10.766 -0.5975 -0.0339  0.1149
  201ccc     C1 5379   9.035   8.552   9.714  0.0410 -0.1711  0.0474
  201ccc     C2 5380   9.160   8.641   9.730  0.4964  1.6232  0.6816
  201ccc     H1 5381   8.959   8.606   9.656  0.6906  0.5254 -0.1761
  201ccc     H2 5382   9.183   8.686   9.633 -1.9521  1.6207  0.0479
  201ccc     C3 5383   9.142   8.758   9.827 -0.3255  0.2939 -0.3419
  201ccc     C4 5384   9.085   8.709   9.955 -0.1030 -0.1878 -0.3084
  201ccc     C5 5385   8.957   8.625   9.931  0.5128  0.2999  0.8414
  201ccc     H3 5386   9.164   8.647   9.998  0.8266  0.6587 -0.7668
  201ccc     H4 5387   9.064   8.824   9.788 -0.7972 -0.4371 -0.6553
  201ccc     H5 5388   8.871   8.689   9.908  0.5064  0.3310  0.9526
  201ccc     O1 5389   8.926   8.558  10.052  0.0579  0.6593  0.6105
  201ccc     O2 5390   9.043   8.834  10.031  0.5169  0.3754 -0.0694
  201ccc     O3 5391   9.259   8.835   9.853 -0.1609  0.3244 -0.2521
  201ccc     O4 5392   9.270   8.559   9.767 -0.1106 -0.3179  0.0035
  201ccc     C6 5393   9.048   8.425   9.629  0.3487  0.0687  0.1780
  201ccc     H6 5394   9.306   8.783   9.921 -1.9830 -0.5278  0.4146
  201ccc     H7 5395   9.230   8.472   9.748 -2.5347  0.9263 -1.0897
  201ccc     H8 5396   9.119   8.894  10.023  0.6126  0.7201  2.5037
  201ccc     H9 5397   9.060   8.454   9.524 -0.8095 -2.6993 -0.8026
  201ccc    H10 5398   8.962   8.357   9.631  1.2213 -1.0481  1.2223
  201ccc     O5 5399   9.150   8.352   9.687  0.3908  0.9655 -0.4329
  201ccc    H11 5400   9.146   8.264   9.645  0.7386  1.1794 -0.9324
  201ccc     O6 5401   8.980   8.520   9.839  0.5385 -0.4461  0.2062
  202ccc     C1 5402   8.286   5.580   8.930 -0.5573 -0.2131 -0.4988
  202ccc     C2 5403   8.103   5.652   8.931 -0.2027  0.8920  0.6837
  202ccc     H1 5404   8.287   5.480   8.977  1.1907  0.5281  1.1812
  202ccc     H2 5405   8.039   5.573   8.970 -1.5204  0.9090 -1.2879
  202ccc     C3 5406   8.059   5.827   9.019 -0.1424 -0.5261 -0.6742
  202ccc     C4 5407   8.208   5.930   9.122 -0.5323 -0.0537 -0.0770
  202ccc     C5 5408   8.390   5.852   9.131 -0.1242 -0.2022  0.8856
  202ccc     H3 5409   8.222   6.024   9.067 -0.4577 -0.1544 -0.2297
  202ccc     H4 5410   7.978   5.810   9.091  0.7490 -1.3589  0.1642
  202ccc     H5 5411   8.395   5.834   9.239 -1.3023 -1.7524  0.7192
  202ccc     O1 5412   8.485   5.958   9.087  0.0337  0.2695 -0.2617
  202ccc     O2 5413   8.166   5.990   9.248  0.2067  0.2737  0.0100
  202ccc     O3 5414   8.005   5.907   8.913  0.6917  0.5641  0.1555
  202ccc     O4 5415   8.052   5.656   8.793  0.0510 -0.1147  0.0419
  202ccc     C6 5416   8.335   5.542   8.792 -0.0582  0.7697  0.4586
  202ccc     H6 5417   7.967   5.986   8.956  0.8363  1.3532 -1.1108
  202ccc     H7 5418   8.015   5.746   8.791  1.2409  0.4241 -2.7776
  202ccc     H8 5419   8.235   6.002   9.316 -0.2384 -0.8916  0.6903
  202ccc     H9 5420   8.324   5.625   8.720 -2.0566  0.9337  0.8924
  202ccc    H10 5421   8.269   5.463   8.755 -1.3361  1.7562  0.5462
  202ccc     O5 5422   8.472   5.496   8.801 -0.2188  0.2696  0.2703
  202ccc    H11 5423   8.466   5.417   8.858  0.0959  1.8049  2.5680
  202ccc     O6 5424   8.428   5.688   9.028  0.1095 -0.3683 -0.3148
  203ccc     C1 5425   9.688   6.169   8.815  0.1192  0.0155 -0.3175
  203ccc     C2 5426   9.698   6.092   8.686  0.7029 -0.0573 -0.5275
  203ccc     H1 5427   9.753   6.117   8.886 -1.7352 -2.8752 -0.5318
  203ccc     H2 5428   9.802   6.089   8.651  1.0564 -1.8741  0.5545
  203ccc     C3 5429   9.652   5.946   8.707  0.1294 -0.5337  0.3913
  203ccc     C4 5430   9.508   5.941   8.776  0.2303 -0.5750 -0.7250
  203ccc     C5 5431   9.499   6.029   8.905 -0.0730  0.1347 -0.7196
  203ccc     H3 5432   9.441   5.983   8.700  0.4531  1.2158  0.0186
  203ccc     H4 5433   9.719   5.904   8.783  1.6836 -0.4337 -0.8734
  203ccc     H5 5434   9.573   5.994   8.979  0.0376 -1.5566 -1.5810
  203ccc     O1 5435   9.366   6.030   8.966  0.0503  0.5272  0.4355
  203ccc     O2 5436   9.481   5.803   8.800 -0.3757 -0.7496  0.0815
  203ccc     O3 5437   9.668   5.876   8.574 -0.1083 -0.2747 -0.1186
  203ccc     O4 5438   9.611   6.155   8.588  0.0074 -0.1718  0.0427
  203ccc     C6 5439   9.746   6.312   8.807  0.6554 -0.5637  0.4434
  203ccc     H6 5440   9.615   5.795   8.585  0.0838 -0.3904 -0.0234
  203ccc     H7 5441   9.613   6.248   8.617 -3.5178 -0.2965  1.1362
  203ccc     H8 5442   9.384   5.806   8.802 -0.4240  0.8762 -1.5676
  203ccc     H9 5443   9.839   6.319   8.748 -0.4275 -0.8218 -1.3905
  203ccc    H10 5444   9.759   6.360   8.905 -1.2108 -0.9585  0.9238
  203ccc     O5 5445   9.646   6.385   8.738 -0.0119  0.6782  0.3071
  203ccc    H11 5446   9.582   6.403   8.809  0.9928  0.4416  1.2968
  203ccc     O6 5447   9.546   6.163   8.866 -0.0156 -0.0521  0.2982
  204ccc     C1 5448   7.416   6.804  10.121 -0.3814 -0.5472  0.3748
  204ccc     C2 5449   7.344   6.807  10.260  0.0726  0.2909  0.6726
  204ccc     H1 5450   7.343   6.779  10.044 -1.0805  0.1710  0.8033
  204ccc     H2 5451   7.259   6.877  10.257 -1.2181 -1.1818  1.4726
  204ccc     C3 5452   7.285   6.664  10.291  0.0805 -0.1956 -0.7831
  204ccc     C4 5453   7.402   6.558  10.286 -0.0838 -0.3728 -0.2464
  204ccc     C5 5454   7.474   6.568  10.144 -0.2731  0.5851 -0.0884
  204ccc     H3 5455   7.475   6.581  10.365 -0.5309  0.8306 -0.1584
  204ccc     H4 5456   7.210   6.638  10.215  0.0119 -0.5635 -0.5890
  204ccc     H5 5457   7.409   6.551  10.057  1.8103 -0.9831 -1.4418
  204ccc     O1 5458   7.582   6.475  10.143  0.1679 -0.0023 -1.0494
  204ccc     O2 5459   7.333   6.429  10.294  0.3153 -0.3887 -0.1364
  204ccc     O3 5460   7.220   6.668  10.413  0.1019  0.1843 -0.8712
  204ccc     O4 5461   7.434   6.854  10.360 -0.4605  0.0278  0.3650
  204ccc     C6 5462   7.483   6.936  10.081  0.1229 -0.2284  0.1218
  204ccc     H6 5463   7.156   6.598  10.392  0.4927 -0.4606  0.0005
  204ccc     H7 5464   7.503   6.901  10.309  0.2887 -1.8577 -0.4551
  204ccc     H8 5465   7.404   6.369  10.324 -1.3350 -2.8043 -0.7403
  204ccc     H9 5466   7.406   7.014  10.091 -0.1273 -0.3075 -1.0405
  204ccc    H10 5467   7.513   6.938   9.976 -1.9644 -0.7916 -0.5243
  204ccc     O5 5468   7.594   6.974  10.169 -0.0264 -0.3712  0.0628
  204ccc    H11 5469   7.635   7.040  10.110 -0.5942 -2.2309 -2.5937
  204ccc     O6 5470   7.521   6.704  10.129 -0.3536  0.3075 -0.5872
  205ccc     C1 5471   7.084   6.423   9.345 -0.1675 -0.6783  0.5707
  205ccc     C2 5472   7.095   6.579   9.363 -0.1807 -0.5732 -0.1778
  205ccc     H1 5473   6.991   6.390   9.392  0.5975  1.5047  3.9131
  205ccc     H2 5474   7.013   6.635   9.316  0.1859  1.0353  1.0178
  205ccc     C3 5475   7.100   6.610   9.517  1.2245 -0.0817 -1.3179
  205ccc     C4 5476   7.221   6.536   9.587 -0.6737 -0.4584 -0.0735
  205ccc     C5 5477   7.216   6.387   9.555 -0.9759 -0.0551 -0.4193
  205ccc     H3 5478   7.315   6.574   9.546 -1.0269 -1.4751 -1.9825
  205ccc     H4 5479   7.012   6.579   9.574  0.7544 -1.4998 -2.7483
  205ccc     H5 5480   7.131   6.352   9.615 -0.5766  2.7391  2.0012
  205ccc     O1 5481   7.344   6.320   9.602  0.1121 -0.4743 -0.0964
  205ccc     O2 5482   7.216   6.557   9.727  0.5251 -0.3070 -0.5984
  205ccc     O3 5483   7.121   6.755   9.531  0.1014 -0.3013 -0.2484
  205ccc     O4 5484   7.214   6.614   9.288 -0.1241 -0.3952  0.3064
  205ccc     C6 5485   7.090   6.379   9.200  0.1654  0.5193  0.3384
  205ccc     H6 5486   7.086   6.774   9.620  0.0949 -1.9775  0.1429
  205ccc     H7 5487   7.227   6.710   9.289  3.1195 -0.7218 -0.9235
  205ccc     H8 5488   7.223   6.652   9.747 -2.8485  0.5980 -2.7558
  205ccc     H9 5489   7.194   6.365   9.167 -0.4035  0.0672 -1.3937
  205ccc    H10 5490   7.052   6.460   9.137  1.7329  0.2550 -1.0163
  205ccc     O5 5491   7.022   6.247   9.186  0.1825 -0.3496 -0.2549
  205ccc    H11 5492   7.027   6.201   9.272  0.4491 -2.0002 -1.1209
  205ccc     O6 5493   7.194   6.360   9.415 -0.0772  0.0147  0.3314
  206ccc     C1 5494  10.974   6.104   8.799 -0.2255  0.1434 -0.2140
  206ccc     C2 5495  10.867   6.076   8.696 -0.2424 -0.3476  0.6813
  206ccc     H1 5496  11.013   6.004   8.822 -2.3834 -1.2442 -2.1028
  206ccc     H2 5497  10.910   6.008   8.621  1.0848  0.2343  0.8828
  206ccc     C3 5498  10.746   6.008   8.766  0.3329 -0.3254  0.0768
  206ccc     C4 5499  10.701   6.085   8.894 -0.4057 -0.7234 -0.1448
  206ccc     C5 5500  10.823   6.109   8.988  0.2513 -0.6592 -1.1280
  206ccc     H3 5501  10.661   6.182   8.863 -1.3569 -1.3026 -0.7402
  206ccc     H4 5502  10.775   5.913   8.814  0.3185  0.6650  2.1468
  206ccc     H5 5503  10.858   6.017   9.035  0.1915  0.5007  1.3664
  206ccc     O1 5504  10.792   6.221   9.083 -0.1838  0.6300  0.1367
  206ccc     O2 5505  10.596   6.002   8.955  0.3074 -0.4279  0.4605
  206ccc     O3 5506  10.642   5.991   8.671 -0.2319  0.4066 -0.6663
  206ccc     O4 5507  10.835   6.199   8.631 -0.0677 -0.3135  0.3339
  206ccc     C6 5508  11.101   6.177   8.752 -0.3101  0.5289  0.2686
  206ccc     H6 5509  10.597   6.076   8.687  0.3249  0.2082  2.7202
  206ccc     H7 5510  10.898   6.253   8.682 -1.0701 -0.9385  2.2992
  206ccc     H8 5511  10.564   6.049   9.034  0.2441 -1.2091  0.9041
  206ccc     H9 5512  11.144   6.121   8.669 -0.2228  0.5217  0.3192
  206ccc    H10 5513  11.178   6.181   8.830 -0.5447  2.9218  0.4646
  206ccc     O5 5514  11.060   6.313   8.719  0.3043  0.2354  0.2847
  206ccc    H11 5515  11.149   6.350   8.709  1.2382 -2.0707 -0.6182
  206ccc     O6 5516  10.924   6.172   8.912  0.1938  0.2557  0.1720
  207ccc     C1 5517  10.988   7.248   9.280 -0.2853  0.6770 -0.5621
  207ccc     C2 5518  11.017   7.173   9.111 -0.6710  0.5406 -0.0714
  207ccc     H1 5519  11.055   7.334   9.268  0.0369  0.7147  1.2392
  207ccc     H2 5520  11.089   7.242   9.064 -1.5355  1.6240  0.1542
  207ccc     C3 5521  11.097   7.004   9.085  0.0232  0.4557 -0.7432
  207ccc     C4 5522  11.154   6.886   9.215  0.4303 -0.5354  0.1055
  207ccc     C5 5523  11.137   6.935   9.387  0.6777 -0.1128  0.1026
  207ccc     H3 5524  11.093   6.798   9.189  0.1770 -0.1481 -0.6525
  207ccc     H4 5525  11.189   7.027   9.028 -0.1990 -0.1936 -1.3781
  207ccc     H5 5526  11.244   6.931   9.411  0.7303 -3.7266 -0.1900
  207ccc     O1 5527  11.091   6.803   9.446 -0.0653 -0.3135  0.2581
  207ccc     O2 5528  11.287   6.851   9.174  0.2493 -0.0622 -0.0572
  207ccc     O3 5529  11.027   6.921   8.992 -1.0274 -0.0501 -0.4434
  207ccc     O4 5530  10.900   7.188   9.030 -0.1563  0.3959 -0.1616
  207ccc     C6 5531  10.849   7.310   9.310  0.0346 -0.4750 -0.0381
  207ccc     H6 5532  10.971   6.982   8.940 -2.1487 -1.1710 -0.6062
  207ccc     H7 5533  10.832   7.135   9.074  2.6434 -2.2975  1.2643
  207ccc     H8 5534  11.294   6.859   9.077 -3.7755  0.7925 -0.4752
  207ccc     H9 5535  10.781   7.232   9.347  0.3401 -0.2073  1.1318
  207ccc    H10 5536  10.803   7.342   9.216 -1.0976  1.1723  1.0184
  207ccc     O5 5537  10.865   7.417   9.405  0.6128 -0.3086 -1.0471
  207ccc    H11 5538  10.890   7.496   9.354  1.0900  0.0537 -0.2738
  207ccc     O6 5539  11.037   7.154   9.420  0.5656 -0.1050  1.0499
  208ccc     C1 5540  10.164   5.508   8.406 -0.5721 -0.2172  0.6739
  208ccc     C2 5541  10.210   5.648   8.402  0.0573 -0.1325 -0.0339
  208ccc     H1 5542  10.070   5.503   8.462 -0.3735 -1.8529  0.9072
  208ccc     H2 5543  10.142   5.708   8.341 -0.3324  0.8907  1.3664
  208ccc     C3 5544  10.226   5.713   8.542  0.2323  0.3366 -0.3979
  208ccc     C4 5545  10.315   5.633   8.630  0.3911  0.0392 -0.0764
  208ccc     C5 5546  10.283   5.485   8.625  0.9441  0.5045 -0.9185
  208ccc     H3 5547  10.420   5.640   8.598  0.0983 -2.1872 -1.7592
  208ccc     H4 5548  10.126   5.722   8.586  1.2002  0.1271  2.0388
  208ccc     H5 5549  10.198   5.463   8.691  0.3064 -2.1151 -2.4468
  208ccc     O1 5550  10.403   5.419   8.685 -0.3094 -0.2407 -0.0674
  208ccc     O2 5551  10.290   5.670   8.771  0.2729  0.1435  0.1494
  208ccc     O3 5552  10.279   5.853   8.532 -0.1618 -0.0680 -0.5874
  208ccc     O4 5553  10.333   5.659   8.334  0.9568 -0.0594  0.5582
  208ccc     C6 5554  10.154   5.430   8.272  0.0995 -0.2841  0.3609
  208ccc     H6 5555  10.300   5.877   8.624 -1.7557 -0.1511 -0.1690
  208ccc     H7 5556  10.311   5.588   8.270  2.2004 -0.4868  0.5711
  208ccc     H8 5557  10.371   5.712   8.805  0.5936  0.5783 -1.0962
  208ccc     H9 5558  10.047   5.434   8.245  0.2269  2.3236 -0.0167
  208ccc    H10 5559  10.180   5.327   8.299 -0.7262 -0.8873 -1.0482
  208ccc     O5 5560  10.240   5.478   8.174  0.0473  0.3489 -0.0688
  208ccc    H11 5561  10.232   5.413   8.102 -0.0074 -0.9786  1.0820
  208ccc     O6 5562  10.258   5.439   8.489  0.3484  0.0758  0.4248
  209ccc     C1 5563  10.854   5.521   8.340  0.7885 -0.6442 -0.1307
  209ccc     C2 5564  10.788   5.624   8.243 -0.5472  0.0003  0.4909
  209ccc     H1 5565  10.783   5.438   8.348 -0.8366  0.7854  0.9194
  209ccc     H2 5566  10.761   5.571   8.151  1.0904 -0.0448  0.0164
  209ccc     C3 5567  10.659   5.679   8.299  0.5697 -0.3443  0.3884
  209ccc     C4 5568  10.690   5.742   8.444 -0.9755 -0.4453  0.4166
  209ccc     C5 5569  10.751   5.631   8.537  0.6765  0.1720 -0.5425
  209ccc     H3 5570  10.756   5.829   8.447 -0.1357 -1.0590  3.4843
  209ccc     H4 5571  10.587   5.599   8.325  0.8363 -0.2067  1.6380
  209ccc     H5 5572  10.682   5.549   8.560  1.4244 -0.3050  0.0791
  209ccc     O1 5573  10.790   5.705   8.654  0.4021  1.0860 -0.2802
  209ccc     O2 5574  10.568   5.790   8.503 -0.1225  0.1807 -0.0428
  209ccc     O3 5575  10.595   5.780   8.209  0.1543  0.2598  0.6580
  209ccc     O4 5576  10.888   5.725   8.215  0.7584 -0.0675 -0.6622
  209ccc     C6 5577  10.985   5.466   8.281 -0.4457 -0.2171  0.1320
  209ccc     H6 5578  10.651   5.859   8.210 -0.4992  0.7282  1.5308
  209ccc     H7 5579  10.971   5.674   8.217  1.2567  0.7299 -0.6598
  209ccc     H8 5580  10.594   5.860   8.565 -2.0112  0.2756  0.6914
  209ccc     H9 5581  10.963   5.416   8.186 -0.7040  0.3679 -0.1191
  209ccc    H10 5582  11.033   5.390   8.344  1.6079  0.3962 -0.6081
  209ccc     O5 5583  11.089   5.562   8.251 -0.2393 -0.8059  0.6832
  209ccc    H11 5584  11.148   5.513   8.191  1.0916  1.8817 -0.3723
  209ccc     O6 5585  10.873   5.582   8.475 -0.2130  0.5007  0.1020
  210ccc     C1 5586  12.085   7.221  11.079  0.1942 -0.3407 -0.5998
  210ccc     C2 5587  12.039   7.357  11.133 -0.3675 -0.2434 -0.7796
  210ccc     H1 5588  12.160   7.239  11.002  1.0293 -0.0552  0.2598
  210ccc     H2 5589  12.132   7.413  11.143 -0.4130 -0.5973  4.2182
  210ccc     C3 5590  11.942   7.427  11.039  0.3406  0.4209  0.2706
  210ccc     C4 5591  11.822   7.342  10.995 -0.2788  0.0696  0.0056
  210ccc     C5 5592  11.864   7.198  10.960  0.2809  0.4269  0.3303
  210ccc     H3 5593  11.755   7.335  11.081 -0.2488 -3.2295 -0.1334
  210ccc     H4 5594  12.003   7.435  10.948 -1.5451 -0.2144 -1.1081
  210ccc     H5 5595  11.912   7.209  10.861  0.7449  1.8187  0.6815
  210ccc     O1 5596  11.752   7.104  10.965 -0.0621 -0.5573 -0.3441
  210ccc     O2 5597  11.757   7.414  10.880 -0.1915  0.7232 -0.2511
  210ccc     O3 5598  11.904   7.559  11.087  0.0190  0.0210  0.3918
  210ccc     O4 5599  11.979   7.337  11.266  0.3259 -0.4647  0.3235
  210ccc     C6 5600  12.156   7.141  11.180 -0.3546  1.3279 -0.1564
  210ccc     H6 5601  11.842   7.594  11.021  1.9391 -0.1632 -1.6308
  210ccc     H7 5602  11.960   7.421  11.312 -1.9419 -0.3697 -0.6789
  210ccc     H8 5603  11.696   7.344  10.851  1.1238 -0.6713  0.1779
  210ccc     H9 5604  12.079   7.105  11.250  1.3102  0.8687  1.5419
  210ccc    H10 5605  12.224   7.204  11.240  1.0099  0.9174 -1.2270
  210ccc     O5 5606  12.222   7.029  11.116 -0.1934  0.2249 -0.2456
  210ccc    H11 5607  12.254   6.972  11.188  3.4307 -0.5540 -2.2302
  210ccc     O6 5608  11.973   7.141  11.042  0.1758  0.4531  0.0723
  211ccc     C1 5609  12.076   6.224  10.674 -0.0187 -0.1874 -0.4795
  211ccc     C2 5610  12.205   6.185  10.754  0.0217  0.2788 -0.3388
  211ccc     H1 5611  12.093   6.201  10.569 -1.1335  2.3438 -1.2847
  211ccc     H2 5612  12.239   6.083  10.731  2.2602  0.5840  1.2862
  211ccc     C3 5613  12.325   6.282  10.728  0.2712 -0.9156 -0.2275
  211ccc     C4 5614  12.280   6.427  10.727  0.0605  0.1334 -0.5476
  211ccc     C5 5615  12.158   6.453  10.641  0.4627 -0.4260  0.4021
  211ccc     H3 5616  12.253   6.460  10.828 -2.3877  1.3114 -1.4920
  211ccc     H4 5617  12.360   6.261  10.626 -1.0684  2.4392 -1.5123
  211ccc     H5 5618  12.181   6.414  10.541 -0.1477  0.6787 -0.1929
  211ccc     O1 5619  12.123   6.595  10.635 -0.2533 -0.8005  0.0442
  211ccc     O2 5620  12.388   6.515  10.687  0.1655  0.4789 -0.7563
  211ccc     O3 5621  12.431   6.269  10.835  0.1694 -0.3240 -0.1802
  211ccc     O4 5622  12.176   6.209  10.896  0.7117  0.1009  0.3422
  211ccc     C6 5623  11.947   6.137  10.708 -0.1234 -0.5138 -0.2878
  211ccc     H6 5624  12.511   6.291  10.784 -0.2853  1.7549 -0.0583
  211ccc     H7 5625  12.264   6.241  10.923  1.3837  0.0488 -1.6263
  211ccc     H8 5626  12.453   6.521  10.759  0.9317  3.0320 -1.5597
  211ccc     H9 5627  11.972   6.032  10.691  1.6698  0.0701 -1.4916
  211ccc    H10 5628  11.871   6.177  10.640  0.1927  0.0665 -0.3027
  211ccc     O5 5629  11.912   6.172  10.841 -0.5182 -0.2020 -0.4801
  211ccc    H11 5630  11.993   6.220  10.867 -1.6876  1.5965  0.0125
  211ccc     O6 5631  12.052   6.362  10.689 -0.0227 -0.0467  0.6253
  212ccc     C1 5632  11.031   5.839  11.593 -1.1431  0.0275  0.7676
  212ccc     C2 5633  11.024   5.692  11.641 -0.4976  0.3263 -0.7284
  212ccc     H1 5634  10.991   5.898  11.676 -2.7943 -0.3433  0.2633
  212ccc     H2 5635  11.082   5.680  11.733 -1.2185  1.0419 -0.1639
  212ccc     C3 5636  10.874   5.657  11.674 -0.9323  0.0855 -1.0354
  212ccc     C4 5637  10.791   5.683  11.553 -0.0555  0.1186 -0.1803
  212ccc     C5 5638  10.810   5.820  11.485  0.1353  0.3460 -0.1794
  212ccc     H3 5639  10.831   5.604  11.487 -0.5281 -1.6105  1.5247
  212ccc     H4 5640  10.847   5.727  11.753  0.2783  0.0504 -0.5677
  212ccc     H5 5641  10.757   5.903  11.533 -0.6360 -0.4157  0.3045
  212ccc     O1 5642  10.759   5.815  11.344  0.2373 -0.8527 -0.3564
  212ccc     O2 5643  10.643   5.671  11.573  0.1312 -0.2507  0.2903
  212ccc     O3 5644  10.863   5.522  11.727  0.4704  0.4391 -0.3512
  212ccc     O4 5645  11.079   5.608  11.538  0.2410 -0.0966  0.1156
  212ccc     C6 5646  11.174   5.888  11.547  0.1484 -0.4541 -0.1222
  212ccc     H6 5647  10.922   5.513  11.804  2.3048  3.7521 -1.1927
  212ccc     H7 5648  11.082   5.518  11.575 -1.5278  0.7265  2.4598
  212ccc     H8 5649  10.626   5.650  11.667 -0.5297  0.1741  0.2737
  212ccc     H9 5650  11.181   5.850  11.444 -1.8530 -0.6328 -0.2420
  212ccc    H10 5651  11.251   5.835  11.605 -0.9485 -0.7024  1.1626
  212ccc     O5 5652  11.171   6.032  11.560 -0.5584  0.1606  0.4034
  212ccc    H11 5653  11.078   6.056  11.550 -0.2355  1.2649 -0.1653
  212ccc     O6 5654  10.948   5.856  11.478  0.0167 -0.0178 -0.3577
  213ccc     C1 5655  10.446   5.466  10.692  0.2634  0.3569 -0.3766
  213ccc     C2 5656  10.490   5.360  10.791  0.7801  0.8309  0.2426
  213ccc     H1 5657  10.498   5.454  10.596 -1.7777 -0.7459 -1.4087
  213ccc     H2 5658  10.473   5.260  10.750  1.9550 -0.1577  2.0534
  213ccc     C3 5659  10.641   5.358  10.815  0.1304 -0.5239  0.9008
  213ccc     C4 5660  10.670   5.501  10.880  0.1047  0.3963  0.5131
  213ccc     C5 5661  10.618   5.617  10.791 -0.3620  0.1386 -0.0367
  213ccc     H3 5662  10.626   5.501  10.981 -0.0091  1.9459  0.4908
  213ccc     H4 5663  10.677   5.362  10.711 -1.2960  0.2533  0.3970
  213ccc     H5 5664  10.680   5.627  10.700 -0.0395 -0.7135  0.0799
  213ccc     O1 5665  10.608   5.735  10.878 -0.1581 -0.3541  0.4050
  213ccc     O2 5666  10.812   5.516  10.889  0.5475 -0.5113 -0.1003
  213ccc     O3 5667  10.673   5.244  10.898 -0.1882 -1.5254 -0.4403
  213ccc     O4 5668  10.415   5.371  10.914 -0.1657  0.3328  0.0468
  213ccc     C6 5669  10.294   5.452  10.671  0.0440 -0.2378  0.0769
  213ccc     H6 5670  10.647   5.264  10.989 -1.6874 -0.5571 -1.0333
  213ccc     H7 5671  10.419   5.280  10.946 -0.5013  0.4100  0.3155
  213ccc     H8 5672  10.823   5.560  10.975  1.3845 -0.2854 -0.3133
  213ccc     H9 5673  10.242   5.523  10.737  0.9565 -0.4121  0.9998
  213ccc    H10 5674  10.264   5.348  10.682 -0.5877  0.0658  1.3874
  213ccc     O5 5675  10.261   5.496  10.541 -0.3863  0.3297 -0.2401
  213ccc    H11 5676  10.324   5.436  10.498  1.3198  1.6505  0.2764
  213ccc     O6 5677  10.481   5.590  10.758  0.4032 -0.4735  0.3350
  214ccc     C1 5678  10.163   8.476   9.933 -0.0134  0.2650  0.2122
  214ccc     C2 5679  10.195   8.607   9.862  0.2604 -0.0726  0.6302
  214ccc     H1 5680  10.233   8.479  10.017  1.0770 -0.0795 -0.6696
  214ccc     H2 5681  10.178   8.681   9.941  1.7939 -1.0185  1.9188
  214ccc     C3 5682  10.343   8.613   9.816 -0.6740 -0.1082 -0.7059
  214ccc     C4 5683  10.376   8.481   9.732  0.3463  0.3311  0.0787
  214ccc     C5 5684  10.331   8.350   9.805 -0.4979 -0.1800 -0.0264
  214ccc     H3 5685  10.312   8.480   9.642 -0.9529 -1.9601  0.9311
  214ccc     H4 5686  10.391   8.600   9.913  0.4709  1.6816 -0.9969
  214ccc     H5 5687  10.393   8.333   9.894  0.0914 -0.9377 -0.5710
  214ccc     O1 5688  10.349   8.238   9.723  0.0762  0.5572  0.0947
  214ccc     O2 5689  10.511   8.483   9.687  0.0297 -0.3225  0.1163
  214ccc     O3 5690  10.396   8.732   9.754 -0.7441 -0.3107 -0.2454
  214ccc     O4 5691  10.110   8.611   9.750 -0.3075  0.0168  0.1639
  214ccc     C6 5692  10.025   8.455   9.993 -0.3256  0.1637 -0.0158
  214ccc     H6 5693  10.347   8.731   9.670 -2.0016  2.7063  0.3502
  214ccc     H7 5694  10.029   8.574   9.790 -2.0458  0.5138 -2.6004
  214ccc     H8 5695  10.523   8.571   9.647 -1.6707 -0.2207 -0.2493
  214ccc     H9 5696  10.024   8.507  10.090  1.7100 -0.4186  0.3710
  214ccc    H10 5697  10.014   8.350  10.023 -0.3965  0.2280  0.1892
  214ccc     O5 5698   9.919   8.493   9.896 -0.0921  0.1141  0.4599
  214ccc    H11 5699   9.846   8.433   9.920 -0.4580  0.8426  1.2316
  214ccc     O6 5700  10.197   8.359   9.853 -0.0750 -0.2070  0.9123
  215ccc     C1 5701   9.332   8.157   9.457  0.1761 -0.9695  0.1514
  215ccc     C2 5702   9.329   8.082   9.274  0.0900  0.1360 -0.2320
  215ccc     H1 5703   9.251   8.230   9.442  0.1858 -1.1412 -0.8343
  215ccc     H2 5704   9.234   8.122   9.236 -1.8417 -1.6942  2.3003
  215ccc     C3 5705   9.473   8.131   9.151 -0.3750  0.0158 -0.4652
  215ccc     C4 5706   9.638   8.234   9.217  0.0507 -0.1410  0.1721
  215ccc     C5 5707   9.642   8.305   9.405  0.5725 -0.2625  0.3274
  215ccc     H3 5708   9.733   8.180   9.210  0.1738 -0.1472  1.5943
  215ccc     H4 5709   9.421   8.203   9.087 -0.8690  1.0241  1.0198
  215ccc     H5 5710   9.650   8.414   9.401 -1.6470  0.0731  2.8010
  215ccc     O1 5711   9.766   8.266   9.473 -0.5581  0.3629 -0.0311
  215ccc     O2 5712   9.668   8.335   9.114 -0.1195 -0.1838 -0.1581
  215ccc     O3 5713   9.478   8.023   9.056  0.7863  0.3703  0.1801
  215ccc     O4 5714   9.304   7.946   9.280  0.1863 -0.4261  0.0759
  215ccc     C6 5715   9.264   8.084   9.574  0.5405 -0.1408  0.7800
  215ccc     H6 5716   9.388   7.999   9.029  0.9289 -0.4866  0.4413
  215ccc     H7 5717   9.398   7.922   9.282  0.4763  0.6822  1.6865
  215ccc     H8 5718   9.718   8.285   9.046 -0.7109 -1.3474  0.2273
  215ccc     H9 5719   9.301   8.127   9.668  2.1350  0.9027 -0.2640
  215ccc    H10 5720   9.288   7.977   9.580 -1.8897 -0.7721  0.2426
  215ccc     O5 5721   9.120   8.113   9.582 -0.1510 -0.1325  0.4279
  215ccc    H11 5722   9.088   8.051   9.514 -1.9618  2.2071 -1.0290
  215ccc     O6 5723   9.492   8.263   9.515  0.6638  0.5677 -0.1215
  216ccc     C1 5724   9.476   7.612   8.775 -0.2143 -0.7240 -0.0960
  216ccc     C2 5725   9.591   7.668   8.690  0.3017  0.1355  0.0800
  216ccc     H1 5726   9.401   7.692   8.778 -0.9327 -1.3403 -1.1889
  216ccc     H2 5727   9.555   7.691   8.589  0.8131 -2.2657 -0.7314
  216ccc     C3 5728   9.648   7.798   8.748  0.4776  0.1286  0.1689
  216ccc     C4 5729   9.678   7.784   8.903  0.2409  0.5550 -0.5114
  216ccc     C5 5730   9.562   7.710   8.984  0.2682  0.4027  0.4913
  216ccc     H3 5731   9.765   7.719   8.920 -1.5932 -1.2844  2.7864
  216ccc     H4 5732   9.567   7.871   8.741 -1.3270 -1.5886  2.1054
  216ccc     H5 5733   9.482   7.784   8.994  1.4846  1.9036 -0.4117
  216ccc     O1 5734   9.617   7.670   9.110  0.0264  0.3854  0.1730
  216ccc     O2 5735   9.709   7.916   8.956 -0.0616 -0.8735  0.3744
  216ccc     O3 5736   9.768   7.844   8.673  0.5283 -0.1292  0.1166
  216ccc     O4 5737   9.691   7.572   8.685  0.4962  0.3572 -0.2848
  216ccc     C6 5738   9.411   7.482   8.723  0.5996  0.0916 -0.4228
  216ccc     H6 5739   9.789   7.930   8.712 -0.7110  0.1518  0.2143
  216ccc     H7 5740   9.625   7.504   8.706 -1.1994  2.2937  1.1471
  216ccc     H8 5741   9.626   7.938   9.001 -0.5156 -1.4648 -0.1626
  216ccc     H9 5742   9.346   7.500   8.636  1.1052  1.4711 -0.5339
  216ccc    H10 5743   9.347   7.441   8.803  0.1087  1.2825 -0.1849
  216ccc     O5 5744   9.507   7.392   8.681  0.1032 -0.6511 -0.0756
  216ccc    H11 5745   9.458   7.348   8.609  1.0402 -1.5045 -0.2101
  216ccc     O6 5746   9.511   7.591   8.912  0.1792 -0.1976  0.0145
  217ccc     C1 5747   9.991   7.154   8.794 -0.2012  0.5031  0.0915
  217ccc     C2 5748  10.045   7.250   8.689 -0.7590 -0.7654  0.7541
  217ccc     H1 5749   9.883   7.137   8.785  0.0101 -2.4952  1.7761
  217ccc     H2 5750  10.032   7.213   8.587 -0.9483 -0.5383  0.6938
  217ccc     C3 5751   9.976   7.393   8.701 -0.6595 -0.9654 -0.5268
  217ccc     C4 5752  10.008   7.442   8.842  0.1988 -1.0326 -0.2638
  217ccc     C5 5753   9.959   7.340   8.952  0.3706 -0.7102  0.2580
  217ccc     H3 5754  10.117   7.437   8.856  0.0975 -1.3895  0.4065
  217ccc     H4 5755   9.871   7.376   8.674 -0.2579 -2.2522 -1.4277
  217ccc     H5 5756   9.849   7.344   8.947  0.4145  0.5855 -0.1330
  217ccc     O1 5757  10.008   7.391   9.079 -0.2781  0.1620  1.0177
  217ccc     O2 5758   9.959   7.574   8.855  0.4849 -0.5427 -0.2168
  217ccc     O3 5759  10.028   7.486   8.597  0.2966 -0.0666  0.5009
  217ccc     O4 5760  10.187   7.266   8.704 -0.3940 -0.0220  1.2771
  217ccc     C6 5761  10.058   7.015   8.793 -0.5043  0.0882 -0.2603
  217ccc     H6 5762  10.119   7.455   8.581  0.1767  0.0014 -0.3738
  217ccc     H7 5763  10.216   7.183   8.744 -3.2605 -0.8749  1.8237
  217ccc     H8 5764   9.991   7.604   8.942 -0.0041  0.4618 -0.3648
  217ccc     H9 5765  10.037   6.956   8.703  2.3649 -2.7620  0.7542
  217ccc    H10 5766  10.014   6.965   8.880 -0.6645 -3.5874 -2.2262
  217ccc     O5 5767  10.197   7.015   8.793  0.2173 -0.0606 -0.1467
  217ccc    H11 5768  10.220   6.930   8.834  0.8254 -0.2302 -0.8174
  217ccc     O6 5769  10.018   7.208   8.928 -0.1997 -0.2219  0.1375
  218ccc     C1 5770  10.351   7.590  11.402  0.2909 -0.3312  0.3514
  218ccc     C2 5771  10.398   7.524  11.531 -0.0476 -0.3795  1.2466
  218ccc     H1 5772  10.261   7.647  11.428  1.2390  2.1373 -1.3876
  218ccc     H2 5773  10.395   7.605  11.606 -0.4117  0.7039  0.1011
  218ccc     C3 5774  10.307   7.426  11.587 -0.7644  0.7207 -0.4358
  218ccc     C4 5775  10.282   7.317  11.485 -0.1980  0.0694 -0.1536
  218ccc     C5 5776  10.226   7.378  11.355  0.6895 -0.1200 -0.5753
  218ccc     H3 5777  10.376   7.266  11.462  0.3530  0.2565  1.5846
  218ccc     H4 5778  10.209   7.470  11.610  0.1341  1.7824  1.6334
  218ccc     H5 5779  10.133   7.431  11.378  0.8716  0.0436 -0.2087
  218ccc     O1 5780  10.209   7.264  11.260  0.1447 -0.1447 -0.3222
  218ccc     O2 5781  10.184   7.231  11.555 -0.6336  0.0561  0.3828
  218ccc     O3 5782  10.377   7.375  11.704  0.5773 -0.2001 -0.0456
  218ccc     O4 5783  10.523   7.460  11.500 -0.0570 -0.1177 -0.3606
  218ccc     C6 5784  10.453   7.683  11.342  0.4372 -0.2013 -0.5114
  218ccc     H6 5785  10.301   7.355  11.762  0.8374 -0.4550  0.2089
  218ccc     H7 5786  10.553   7.433  11.589  0.5363 -0.5582 -0.6937
  218ccc     H8 5787  10.222   7.141  11.553  0.6337  0.5834 -0.0515
  218ccc     H9 5788  10.533   7.636  11.284  1.7199  2.2324 -0.8624
  218ccc    H10 5789  10.499   7.731  11.430  2.3039 -0.6479 -1.1920
  218ccc     O5 5790  10.381   7.775  11.265  0.8181  0.6648  0.6530
  218ccc    H11 5791  10.352   7.725  11.187 -0.9867  1.0140  1.0584
  218ccc     O6 5792  10.316   7.478  11.310 -0.1883 -0.3216  0.1063
  219ccc     C1 5793  10.137   6.228  11.375 -0.5275  0.8049 -0.0397
  219ccc     C2 5794  10.133   6.095  11.298  0.0390 -0.8072  0.9649
  219ccc     H1 5795  10.032   6.258  11.388 -0.9347 -0.2880 -0.6063
  219ccc     H2 5796  10.063   6.029  11.350 -0.5115 -0.6117  0.4778
  219ccc     C3 5797  10.075   6.111  11.152  0.4184  0.6372 -0.3051
  219ccc     C4 5798  10.164   6.215  11.080 -0.3115 -0.0437 -0.9898
  219ccc     C5 5799  10.173   6.354  11.161  0.0023  0.6866  0.4873
  219ccc     H3 5800  10.267   6.178  11.068  0.4975  1.1501  1.5542
  219ccc     H4 5801   9.970   6.139  11.144 -0.0218 -1.0563 -0.9636
  219ccc     H5 5802  10.079   6.408  11.150 -0.6250 -0.6826 -1.3301
  219ccc     O1 5803  10.269   6.441  11.104  0.2939  0.8761 -0.7620
  219ccc     O2 5804  10.105   6.245  10.953  0.4075  0.1214  0.3837
  219ccc     O3 5805  10.100   5.983  11.078  0.0609 -0.1460 -0.6592
  219ccc     O4 5806  10.261   6.031  11.294  0.1057  0.3098 -0.8692
  219ccc     C6 5807  10.203   6.214  11.519 -0.2561  0.1001 -0.0377
  219ccc     H6 5808  10.027   5.966  11.016  0.8404 -0.4263 -1.5167
  219ccc     H7 5809  10.248   5.949  11.243 -0.6069 -0.3354  0.3141
  219ccc     H8 5810  10.157   6.202  10.883 -1.2807  1.3706 -1.7556
  219ccc     H9 5811  10.149   6.129  11.564 -1.2583  0.8020  0.1326
  219ccc    H10 5812  10.175   6.301  11.579  1.0178 -0.7350  1.8344
  219ccc     O5 5813  10.335   6.193  11.507 -0.2911  0.4921 -0.1140
  219ccc    H11 5814  10.336   6.131  11.432 -1.5935 -1.5942  1.4672
  219ccc     O6 5815  10.211   6.329  11.299  0.1272 -0.8101  0.0979
  220ccc     C1 5816   9.967   8.646  10.517 -0.2251 -0.2578  0.7394
  220ccc     C2 5817   9.867   8.728  10.427  0.4767  0.2891  0.0561
  220ccc     H1 5818  10.017   8.719  10.582  0.1269 -0.3170  0.5402
  220ccc     H2 5819   9.793   8.776  10.492  1.1545 -0.4767  1.4342
  220ccc     C3 5820   9.949   8.830  10.342 -0.4555 -0.2012 -0.4116
  220ccc     C4 5821  10.059   8.751  10.259  0.6346 -0.2595 -0.8821
  220ccc     C5 5822  10.150   8.665  10.353  0.0345 -0.0093 -0.1477
  220ccc     H3 5823  10.003   8.683  10.193  0.8868  0.7231 -2.1535
  220ccc     H4 5824   9.998   8.897  10.414  0.3370 -1.0324 -0.1579
  220ccc     H5 5825  10.208   8.736  10.412  0.0816  0.5214 -0.8187
  220ccc     O1 5826  10.234   8.581  10.272 -0.4573  0.2918 -0.2585
  220ccc     O2 5827  10.141   8.843  10.183  0.1126 -0.1707 -0.0094
  220ccc     O3 5828   9.854   8.912  10.263  0.0218  0.1756 -0.2568
  220ccc     O4 5829   9.805   8.629  10.347  0.0424  0.1757 -0.4987
  220ccc     C6 5830   9.890   8.542  10.600  0.6134 -0.6037  0.6267
  220ccc     H6 5831   9.896   8.957  10.187 -0.9251  0.9338 -0.3587
  220ccc     H7 5832   9.834   8.549  10.393  1.2323  0.8344 -0.0415
  220ccc     H8 5833  10.084   8.916  10.153 -0.0702  1.0855  3.0904
  220ccc     H9 5834   9.798   8.590  10.636 -0.5575 -1.7625 -0.7409
  220ccc    H10 5835   9.959   8.519  10.682  0.1518  0.4414  1.3246
  220ccc     O5 5836   9.846   8.432  10.527 -0.3475 -0.4462 -0.9138
  220ccc    H11 5837   9.926   8.378  10.527  1.3121  1.8598 -0.5136
  220ccc     O6 5838  10.068   8.580  10.434  0.5693 -0.4931 -0.1834
  221ccc     C1 5839  11.073   8.460   9.791 -0.0566 -0.5716 -0.1749
  221ccc     C2 5840  11.016   8.496   9.652  0.1408 -0.3586 -0.1252
  221ccc     H1 5841  11.132   8.368   9.790 -3.5131 -3.0657  1.5922
  221ccc     H2 5842  11.102   8.500   9.584 -0.3846 -0.4461 -0.8105
  221ccc     C3 5843  10.904   8.400   9.606 -0.9080 -0.4582 -0.5023
  221ccc     C4 5844  10.797   8.385   9.713 -0.0602 -0.3370  0.4458
  221ccc     C5 5845  10.864   8.342   9.845  0.2816 -0.2713  0.2395
  221ccc     H3 5846  10.773   8.492   9.723  1.6343  0.0924  0.1850
  221ccc     H4 5847  10.955   8.304   9.596 -0.9382 -0.4656 -0.5858
  221ccc     H5 5848  10.913   8.243   9.839  1.5364  0.4032 -2.7605
  221ccc     O1 5849  10.762   8.328   9.949 -0.0846  0.1579 -0.6297
  221ccc     O2 5850  10.690   8.302   9.668 -0.2584  0.2862  0.2161
  221ccc     O3 5851  10.858   8.439   9.481 -0.2164  0.5066  0.4300
  221ccc     O4 5852  10.967   8.633   9.663  0.0656  0.2785 -0.0767
  221ccc     C6 5853  11.169   8.562   9.862 -0.2061  0.0244  0.2141
  221ccc     H6 5854  10.815   8.365   9.436  2.4383 -0.5780 -0.5739
  221ccc     H7 5855  10.938   8.656   9.573 -0.1669 -2.3064 -0.7211
  221ccc     H8 5856  10.620   8.369   9.660 -0.2842  0.0984 -1.4611
  221ccc     H9 5857  11.105   8.641   9.903 -1.7575 -0.3841 -1.3235
  221ccc    H10 5858  11.242   8.600   9.790 -0.6228 -2.0984 -1.4514
  221ccc     O5 5859  11.236   8.492   9.978 -0.2437  0.2438  0.4131
  221ccc    H11 5860  11.170   8.448  10.035  0.6594 -0.8142  0.6647
  221ccc     O6 5861  10.962   8.447   9.885 -0.6488  0.0174  0.3431
  222ccc     C1 5862   8.961   4.387   9.407 -0.6732  0.0463  0.6853
  222ccc     C2 5863   9.082   4.306   9.377  0.4772  0.4864  0.3974
  222ccc     H1 5864   8.967   4.417   9.512 -1.7788  1.4055  0.3986
  222ccc     H2 5865   9.169   4.370   9.393 -1.2002  3.3282 -1.0464
  222ccc     C3 5866   9.096   4.179   9.480  0.7336 -0.2921  0.0631
  222ccc     C4 5867   8.965   4.099   9.478 -0.4457  0.4181  0.5574
  222ccc     C5 5868   8.844   4.189   9.497  0.2134 -0.1955  0.0768
  222ccc     H3 5869   8.959   4.071   9.372 -2.1554  1.6844  0.2804
  222ccc     H4 5870   9.097   4.221   9.582 -4.6398 -2.3317  1.3085
  222ccc     H5 5871   8.845   4.233   9.598 -2.0656 -0.6710  0.3694
  222ccc     O1 5872   8.721   4.120   9.489  0.3363 -0.2082  0.3312
  222ccc     O2 5873   8.987   3.990   9.570 -0.7848 -0.0798 -0.2616
  222ccc     O3 5874   9.207   4.089   9.451  0.1552 -0.3470 -0.1182
  222ccc     O4 5875   9.076   4.271   9.235 -0.0292  0.1048  0.5427
  222ccc     C6 5876   8.945   4.511   9.316 -0.0785 -0.1702  0.0862
  222ccc     H6 5877   9.283   4.147   9.463  0.8109 -0.8949 -1.4315
  222ccc     H7 5878   9.036   4.346   9.189 -1.0561 -0.6640  0.1407
  222ccc     H8 5879   9.077   3.970   9.538 -0.5198  0.7116 -0.0240
  222ccc     H9 5880   9.040   4.565   9.323  1.7562 -2.6428 -2.8567
  222ccc    H10 5881   8.862   4.574   9.349 -0.9450 -0.2545 -1.7832
  222ccc     O5 5882   8.923   4.486   9.176 -0.8437 -0.1574 -0.1396
  222ccc    H11 5883   8.938   4.572   9.133  2.1531 -0.8082 -0.6610
  222ccc     O6 5884   8.848   4.295   9.406 -0.1844 -0.2743  0.0594
  223ccc     C1 5885   7.694   3.644   9.265 -0.3795 -0.0994 -0.0403
  223ccc     C2 5886   7.699   3.540   9.161 -0.5824  0.5363  0.5374
  223ccc     H1 5887   7.644   3.732   9.222 -3.7702 -1.0279  1.6731
  223ccc     H2 5888   7.596   3.520   9.131 -0.9457  1.9072  0.8164
  223ccc     C3 5889   7.787   3.582   9.036  0.3892 -0.0137 -0.4705
  223ccc     C4 5890   7.923   3.635   9.088 -0.4279 -0.1248 -0.6572
  223ccc     C5 5891   7.914   3.731   9.210  0.0199 -0.4481  0.2430
  223ccc     H3 5892   7.981   3.546   9.115 -1.7095 -0.3984  1.5060
  223ccc     H4 5893   7.745   3.668   8.984  0.8637 -0.1302 -1.0580
  223ccc     H5 5894   7.874   3.828   9.181 -0.2453  0.0044  2.0014
  223ccc     O1 5895   8.043   3.757   9.265 -0.4186 -0.0320 -0.7247
  223ccc     O2 5896   7.992   3.705   8.982  0.0442  0.4237  0.2719
  223ccc     O3 5897   7.797   3.470   8.949  0.5636  0.5374 -0.5598
  223ccc     O4 5898   7.750   3.418   9.214 -0.2863 -0.3515 -0.2087
  223ccc     C6 5899   7.612   3.602   9.381  0.3554 -0.3748 -0.5596
  223ccc     H6 5900   7.855   3.492   8.874  0.2808 -0.2849 -1.0413
  223ccc     H7 5901   7.730   3.348   9.150 -1.1198 -0.7725  0.4866
  223ccc     H8 5902   8.080   3.731   9.016 -0.3566  2.0409  0.1479
  223ccc     H9 5903   7.666   3.523   9.435 -2.5542 -0.7355  2.0556
  223ccc    H10 5904   7.524   3.553   9.338  0.7555 -1.5212 -0.1186
  223ccc     O5 5905   7.585   3.718   9.462  0.3359  0.0770 -0.4363
  223ccc    H11 5906   7.669   3.739   9.505  0.2368  0.6625 -0.5177
  223ccc     O6 5907   7.829   3.670   9.309  0.3264 -0.4085 -0.9801
  224ccc     C1 5908   7.026   4.168  10.308 -0.3848  0.4104  0.6117
  224ccc     C2 5909   6.887   4.147  10.370  0.2236  0.1541 -0.4287
  224ccc     H1 5910   7.052   4.078  10.250 -0.6041  0.9477 -0.3541
  224ccc     H2 5911   6.806   4.126  10.299  0.8556  0.2330 -1.1936
  224ccc     C3 5912   6.887   4.023  10.466  0.2720  0.2413  0.2189
  224ccc     C4 5913   6.995   4.039  10.579 -0.2011 -0.2095 -0.2431
  224ccc     C5 5914   7.130   4.067  10.503 -0.1735  0.0849  0.1555
  224ccc     H3 5915   6.987   4.121  10.653  0.6337 -0.2175 -0.1317
  224ccc     H4 5916   6.906   3.934  10.405 -2.3817  0.4684 -1.1028
  224ccc     H5 5917   7.163   3.978  10.448  2.1063 -0.4743  2.2654
  224ccc     O1 5918   7.231   4.105  10.604  0.4174 -0.5454 -0.8671
  224ccc     O2 5919   7.010   3.912  10.639  0.7871  0.5824  0.1353
  224ccc     O3 5920   6.759   4.000  10.524 -0.3554 -0.0947  0.3370
  224ccc     O4 5921   6.862   4.270  10.443  0.2750  0.2910  0.5772
  224ccc     C6 5922   7.034   4.285  10.213  0.5119  0.6821 -0.3470
  224ccc     H6 5923   6.778   3.937  10.597  0.0493  0.4398  0.6993
  224ccc     H7 5924   6.805   4.325  10.386  0.6260  0.0430 -0.0317
  224ccc     H8 5925   7.060   3.930  10.720 -0.5234  2.6717  0.5783
  224ccc     H9 5926   7.029   4.377  10.271 -2.5474  0.5939 -0.3416
  224ccc    H10 5927   6.944   4.276  10.150  0.2633 -2.2165  0.2603
  224ccc     O5 5928   7.141   4.262  10.126 -1.1326 -0.2265 -0.8788
  224ccc    H11 5929   7.218   4.276  10.183 -1.4122 -1.3586 -0.1980
  224ccc     O6 5930   7.120   4.181  10.416 -0.5703 -0.5032 -0.3093
  225ccc     C1 5931   7.446   3.684   9.820  0.7007  0.2160  0.7348
  225ccc     C2 5932   7.477   3.547   9.746 -0.6231  0.1158  0.7590
  225ccc     H1 5933   7.493   3.766   9.763  1.2687 -0.6748 -0.1044
  225ccc     H2 5934   7.443   3.570   9.644 -0.0562  2.9893  1.1472
  225ccc     C3 5935   7.632   3.517   9.729 -0.2720 -0.3827  0.0665
  225ccc     C4 5936   7.693   3.525   9.868 -0.4296  0.5503 -1.5108
  225ccc     C5 5937   7.661   3.667   9.941  0.4906  0.1655 -0.0319
  225ccc     H3 5938   7.647   3.444   9.927 -1.2234  2.4507  0.6390
  225ccc     H4 5939   7.678   3.589   9.661 -0.8426 -0.4985 -0.4446
  225ccc     H5 5940   7.706   3.753   9.892  1.2338 -0.9964 -1.4719
  225ccc     O1 5941   7.697   3.665  10.084 -0.7410 -1.0081 -0.2128
  225ccc     O2 5942   7.835   3.513   9.866 -0.6241  0.2162 -0.2336
  225ccc     O3 5943   7.645   3.385   9.676  0.7665  0.0021 -0.1929
  225ccc     O4 5944   7.405   3.441   9.821  0.0409  0.4642  0.3024
  225ccc     C6 5945   7.295   3.708   9.832 -0.1365  0.0134 -0.2804
  225ccc     H6 5946   7.741   3.370   9.686  0.8070  0.5239  0.2598
  225ccc     H7 5947   7.397   3.364   9.763 -1.5434  1.9841 -1.6384
  225ccc     H8 5948   7.861   3.483   9.954  0.4246 -1.4439 -1.0531
  225ccc     H9 5949   7.260   3.630   9.901  0.3644 -0.0849 -0.1355
  225ccc    H10 5950   7.246   3.705   9.734 -1.4884 -0.6562  0.3901
  225ccc     O5 5951   7.274   3.837   9.888  0.1944 -0.2903 -0.0845
  225ccc    H11 5952   7.291   3.843   9.983 -0.1834  1.2638 -0.0801
  225ccc     O6 5953   7.515   3.678   9.946  0.0973 -0.4509  0.0211
  226ccc     C1 5954  10.073   4.657   8.786  0.0290 -0.4473  0.1289
  226ccc     C2 5955  10.170   4.766   8.739 -0.5627  0.2219  0.9515
  226ccc     H1 5956   9.980   4.694   8.742  1.4846  2.0699 -1.0313
  226ccc     H2 5957  10.185   4.770   8.630 -0.3277  0.6822  0.9990
  226ccc     C3 5958  10.126   4.908   8.788  0.1637  0.6339 -0.0511
  226ccc     C4 5959  10.082   4.905   8.940  0.2149 -0.0204 -0.4037
  226ccc     C5 5960   9.998   4.783   8.985  0.0984  0.2763  0.4087
  226ccc     H3 5961  10.175   4.901   8.998  1.7205  1.0360 -2.5816
  226ccc     H4 5962  10.035   4.935   8.733 -0.1217 -0.7572 -0.2892
  226ccc     H5 5963   9.898   4.793   8.942  0.5593  2.0143 -0.3143
  226ccc     O1 5964   9.990   4.771   9.134  0.5650 -0.4276  0.2854
  226ccc     O2 5965  10.006   5.022   8.975 -0.0605  0.1562  0.3816
  226ccc     O3 5966  10.233   4.994   8.763 -0.1734 -0.8174 -0.6374
  226ccc     O4 5967  10.289   4.725   8.796  0.2734 -0.0878 -0.0790
  226ccc     C6 5968  10.096   4.521   8.723  0.5385  0.0185  0.9514
  226ccc     H6 5969  10.272   4.967   8.678  1.6380  0.3225 -0.2177
  226ccc     H7 5970  10.282   4.628   8.789  0.4574 -0.0306 -1.2309
  226ccc     H8 5971  10.075   5.089   8.965  0.5907 -0.2235  1.9687
  226ccc     H9 5972  10.080   4.531   8.615  1.4056  2.3757  0.9889
  226ccc    H10 5973  10.021   4.463   8.778  0.5818 -1.0302 -0.0553
  226ccc     O5 5974  10.223   4.470   8.745  0.0474 -0.3098  0.1857
  226ccc    H11 5975  10.234   4.399   8.680  1.0043  0.6872 -0.7536
  226ccc     O6 5976  10.054   4.665   8.928  0.7313  0.5227  0.0410
  227ccc     C1 5977   9.265   3.872   8.862 -0.4343  0.5258  1.0654
  227ccc     C2 5978   9.119   3.920   8.889 -0.2139 -0.2335  0.2645
  227ccc     H1 5979   9.270   3.762   8.868 -0.2662  0.5193  0.8375
  227ccc     H2 5980   9.049   3.871   8.821 -0.7448 -0.7192  1.1392
  227ccc     C3 5981   9.086   3.886   9.040 -0.2952 -0.1514 -0.4834
  227ccc     C4 5982   9.190   3.947   9.144 -0.0869  0.0103  0.5323
  227ccc     C5 5983   9.329   3.907   9.099 -0.6039 -0.4678 -0.6316
  227ccc     H3 5984   9.180   4.056   9.137 -0.4245 -0.1121 -1.0894
  227ccc     H4 5985   9.092   3.777   9.045  0.0071 -0.1109  0.1548
  227ccc     H5 5986   9.331   3.798   9.114 -2.5851 -0.3033  1.4000
  227ccc     O1 5987   9.434   3.982   9.188 -0.2228  0.0742  0.4264
  227ccc     O2 5988   9.151   3.893   9.281 -0.3603 -0.0378  0.4327
  227ccc     O3 5989   8.965   3.944   9.084  0.7273 -0.4719  0.4331
  227ccc     O4 5990   9.117   4.063   8.879  0.3488 -0.1198 -0.2589
  227ccc     C6 5991   9.317   3.916   8.730  0.4400 -0.5068 -0.0522
  227ccc     H6 5992   8.931   3.879   9.148 -0.1272 -0.0845  0.3993
  227ccc     H7 5993   9.026   4.079   8.908 -0.2865  0.2418 -2.2462
  227ccc     H8 5994   9.200   3.946   9.345  1.2081 -0.2186 -0.5793
  227ccc     H9 5995   9.336   4.023   8.720  1.5391 -0.7271 -0.5082
  227ccc    H10 5996   9.246   3.881   8.654 -1.4753  0.0728  1.3894
  227ccc     O5 5997   9.443   3.862   8.712  0.4027 -0.5121 -0.1676
  227ccc    H11 5998   9.466   3.869   8.617  0.7166  1.3358  0.0190
  227ccc     O6 5999   9.356   3.939   8.964 -0.1834  0.0316 -0.4404
  228ccc     C1 6000  10.192   5.129   9.338 -0.2006 -0.6359  0.2337
  228ccc     C2 6001  10.060   5.197   9.284  0.3517  0.5859 -0.2702
  228ccc     H1 6002  10.218   5.044   9.274 -1.9273 -3.0654  2.5330
  228ccc     H2 6003  10.055   5.211   9.176 -1.6443 -0.8117 -0.4138
  228ccc     C3 6004   9.935   5.107   9.318  0.3608 -0.4990 -0.0052
  228ccc     C4 6005   9.931   5.058   9.464  0.7178 -0.0577 -0.0711
  228ccc     C5 6006  10.070   4.993   9.500  0.4726  0.4672 -0.0377
  228ccc     H3 6007   9.921   5.148   9.525  0.6407 -0.1023 -0.0173
  228ccc     H4 6008   9.960   5.021   9.255 -0.3273 -0.1285 -0.8172
  228ccc     H5 6009  10.081   4.905   9.435 -1.2293 -0.0578  0.3560
  228ccc     O1 6010  10.077   4.951   9.637 -0.3347 -0.4031  0.0452
  228ccc     O2 6011   9.810   4.974   9.493 -0.2897  0.5461 -0.7775
  228ccc     O3 6012   9.811   5.173   9.274  0.1541 -0.3284  0.8816
  228ccc     O4 6013  10.046   5.324   9.349  0.2072  0.0072  0.1094
  228ccc     C6 6014  10.316   5.233   9.322  0.0007 -0.0502 -0.2683
  228ccc     H6 6015   9.759   5.202   9.351 -0.3349  0.4797  0.2535
  228ccc     H7 6016  10.137   5.355   9.364 -1.0643  3.4478  1.8704
  228ccc     H8 6017   9.814   4.940   9.584 -2.5948 -0.1572 -0.8628
  228ccc     H9 6018  10.342   5.246   9.217 -0.8346 -0.4292 -0.5308
  228ccc    H10 6019  10.407   5.192   9.368  1.1554  0.4349 -2.0398
  228ccc     O5 6020  10.290   5.364   9.379  0.1923 -0.1953  0.1385
  228ccc    H11 6021  10.368   5.422   9.375 -0.4822  0.6671 -1.4026
  228ccc     O6 6022  10.179   5.089   9.478 -0.0286  0.4521  0.2611
  229ccc     C1 6023  11.047   4.467   9.513 -0.1441 -0.2029  0.5971
  229ccc     C2 6024  11.096   4.321   9.511 -0.1675  0.0125 -0.7664
  229ccc     H1 6025  11.055   4.516   9.611 -3.3853  0.7937  0.4829
  229ccc     H2 6026  11.202   4.312   9.540  0.0725 -1.8370 -2.0180
  229ccc     C3 6027  11.021   4.240   9.616  0.0688 -0.0885 -0.1047
  229ccc     C4 6028  10.864   4.243   9.591  0.5281  0.7204 -1.0538
  229ccc     C5 6029  10.823   4.390   9.583 -0.2037  0.3343  0.1388
  229ccc     H3 6030  10.848   4.203   9.491 -1.8376 -0.0208 -0.4510
  229ccc     H4 6031  11.038   4.280   9.716  1.4555 -1.2054  0.1341
  229ccc     H5 6032  10.816   4.433   9.684 -0.7242  0.1429  0.1876
  229ccc     O1 6033  10.689   4.398   9.538  0.2075  0.2681 -0.1665
  229ccc     O2 6034  10.809   4.168   9.702 -0.2524  0.1408  0.6794
  229ccc     O3 6035  11.066   4.101   9.614  0.1143  0.0730 -0.0692
  229ccc     O4 6036  11.085   4.273   9.374  0.4590 -0.1123 -0.2537
  229ccc     C6 6037  11.101   4.572   9.417 -0.4314  0.1238 -0.0934
  229ccc     H6 6038  11.162   4.101   9.623 -0.0241  0.5038  1.7729
  229ccc     H7 6039  11.110   4.179   9.383 -0.1798 -0.4005 -1.3080
  229ccc     H8 6040  10.714   4.161   9.681 -1.1021  2.6956  3.0675
  229ccc     H9 6041  11.208   4.589   9.431 -0.4262  1.1142 -1.1542
  229ccc    H10 6042  11.054   4.671   9.421  1.4738  1.0450  0.6723
  229ccc     O5 6043  11.080   4.524   9.285  0.0018  0.6059  0.0888
  229ccc    H11 6044  11.094   4.430   9.304 -2.8286 -0.4345 -2.2738
  229ccc     O6 6045  10.905   4.467   9.492 -0.5282 -0.4212 -0.3056
  230ccc     C1 6046   7.625   4.684   8.366 -0.0139  0.7667  0.4601
  230ccc     C2 6047   7.641   4.681   8.209 -0.7420 -0.2522 -0.3836
  230ccc     H1 6048   7.517   4.669   8.380  0.1771 -1.2265  0.1722
  230ccc     H2 6049   7.599   4.586   8.174 -0.2249 -0.7988  0.4606
  230ccc     C3 6050   7.573   4.808   8.149 -0.1722  0.8021  0.3316
  230ccc     C4 6051   7.636   4.937   8.212  0.6590 -0.4649  0.2434
  230ccc     C5 6052   7.612   4.934   8.366  0.3716  0.0150  0.0671
  230ccc     H3 6053   7.742   4.934   8.184  0.4606 -2.4290 -0.4578
  230ccc     H4 6054   7.473   4.798   8.191  0.1459  0.3947  1.0134
  230ccc     H5 6055   7.505   4.931   8.391  0.0915 -0.3599 -1.0694
  230ccc     O1 6056   7.668   5.049   8.431 -0.3494  0.4145  0.0934
  230ccc     O2 6057   7.563   5.053   8.153 -0.7925  0.1272  0.1101
  230ccc     O3 6058   7.582   4.807   8.007  0.1126 -0.6035  0.3073
  230ccc     O4 6059   7.786   4.701   8.204 -0.0357  0.0488 -0.1058
  230ccc     C6 6060   7.697   4.573   8.442  0.6248 -0.2734 -0.2235
  230ccc     H6 6061   7.676   4.810   7.985  0.3522 -2.7247  0.8072
  230ccc     H7 6062   7.812   4.660   8.288 -1.5714  1.0012  0.8812
  230ccc     H8 6063   7.620   5.075   8.077  0.3936  0.2200  0.9998
  230ccc     H9 6064   7.654   4.475   8.415 -1.4468  0.7618 -0.8502
  230ccc    H10 6065   7.689   4.579   8.551  0.5363 -2.7869 -0.0181
  230ccc     O5 6066   7.831   4.567   8.411 -0.1590  0.4157  0.2818
  230ccc    H11 6067   7.861   4.494   8.468  0.6600  1.1504  0.8241
  230ccc     O6 6068   7.667   4.809   8.419 -0.0794 -0.4180  0.4259
  231ccc     C1 6069   7.313   5.976   8.903 -0.1392  0.0872 -0.0588
  231ccc     C2 6070   7.400   6.153   8.961  0.2785 -0.8758 -0.0724
  231ccc     H1 6071   7.215   5.978   8.951  0.1569  1.2629  0.5550
  231ccc     H2 6072   7.320   6.214   9.004  1.7635  0.6650  0.6034
  231ccc     C3 6073   7.537   6.153   9.106 -0.4612  0.9656 -0.0729
  231ccc     C4 6074   7.608   5.980   9.175  0.1785  0.3221 -0.2453
  231ccc     C5 6075   7.520   5.804   9.110 -0.3816  0.1742 -0.4263
  231ccc     H3 6076   7.701   5.965   9.119 -1.1141  0.0777 -2.4688
  231ccc     H4 6077   7.487   6.196   9.194  0.8873  2.5613 -0.0476
  231ccc     H5 6078   7.469   5.765   9.199  1.9707 -1.3412  0.3410
  231ccc     O1 6079   7.615   5.694   9.086  0.5856 -0.0773 -0.3957
  231ccc     O2 6080   7.646   5.992   9.315  0.2830  0.5746  0.1654
  231ccc     O3 6081   7.639   6.248   9.082 -0.1856  0.0046 -0.1696
  231ccc     O4 6082   7.440   6.225   8.845 -0.6800  0.0927 -0.3647
  231ccc     C6 6083   7.278   5.971   8.754  0.3964  0.4313  0.0101
  231ccc     H6 6084   7.641   6.306   9.160 -2.0198 -1.1157  0.7934
  231ccc     H7 6085   7.489   6.153   8.801  0.2863  0.3331  0.2840
  231ccc     H8 6086   7.733   6.036   9.309 -0.0732  1.3211  0.4614
  231ccc     H9 6087   7.284   5.868   8.717  1.6279 -0.4715  2.4468
  231ccc    H10 6088   7.338   6.044   8.698 -0.9878  0.0207 -2.1123
  231ccc     O5 6089   7.150   6.025   8.738 -0.1217 -0.1561 -0.5681
  231ccc    H11 6090   7.094   5.954   8.774 -1.6092  1.7610  1.2164
  231ccc     O6 6091   7.389   5.818   8.973 -1.0209  0.2702 -0.1876
  232ccc     C1 6092   7.692   4.144   9.457  0.3611 -0.1205  0.4364
  232ccc     C2 6093   7.693   4.040   9.339 -0.3705  0.5239 -0.0054
  232ccc     H1 6094   7.628   4.089   9.527 -0.1090 -2.8626 -1.9565
  232ccc     H2 6095   7.733   3.941   9.365 -1.3370  0.0469 -0.2960
  232ccc     C3 6096   7.549   4.018   9.291 -0.3346 -0.2622  0.6287
  232ccc     C4 6097   7.481   4.155   9.254 -0.0128 -0.3401  0.2548
  232ccc     C5 6098   7.493   4.268   9.364  0.7257  0.4631 -0.3026
  232ccc     H3 6099   7.541   4.202   9.175  1.2234 -0.6894  0.9506
  232ccc     H4 6100   7.495   3.972   9.375  0.2987 -0.0043  1.1808
  232ccc     H5 6101   7.422   4.225   9.436  1.5641 -1.2148 -0.4339
  232ccc     O1 6102   7.455   4.403   9.314  0.3531 -0.3213 -0.0370
  232ccc     O2 6103   7.337   4.140   9.218 -0.2184  0.4086  0.3582
  232ccc     O3 6104   7.532   3.928   9.171 -0.0080 -0.1782 -0.3595
  232ccc     O4 6105   7.783   4.094   9.242 -0.1756  0.0299 -0.3671
  232ccc     C6 6106   7.825   4.169   9.516  0.1573  0.2176 -0.2801
  232ccc     H6 6107   7.436   3.924   9.160 -0.2064  0.0626  1.0856
  232ccc     H7 6108   7.776   4.041   9.161 -0.6431  2.0878 -1.7577
  232ccc     H8 6109   7.307   4.226   9.183 -0.4612 -0.4489 -1.6845
  232ccc     H9 6110   7.875   4.248   9.458  0.8853  1.4630  1.9169
  232ccc    H10 6111   7.877   4.072   9.512 -3.0835 -1.7272  1.2937
  232ccc     O5 6112   7.820   4.207   9.652 -0.1371 -0.0925 -0.0099
  232ccc    H11 6113   7.759   4.283   9.646  0.3394  0.2368 -0.8646
  232ccc     O6 6114   7.627   4.271   9.425  0.7957 -0.3322  0.0861
  233ccc     C1 6115   7.039   4.560   8.626 -0.5775 -0.0025  0.6187
  233ccc     C2 6116   6.991   4.419   8.587  0.2986  0.4848  0.0146
  233ccc     H1 6117   7.143   4.568   8.591 -0.3055 -0.7033  1.2390
  233ccc     H2 6118   7.014   4.401   8.482 -1.7245 -0.2534 -0.3314
  233ccc     C3 6119   7.066   4.311   8.674 -0.1017  0.8075  0.3981
  233ccc     C4 6120   7.041   4.343   8.823  0.4791  0.4810  0.0162
  233ccc     C5 6121   7.088   4.485   8.858  0.0019 -0.0907 -0.4045
  233ccc     H3 6122   6.934   4.339   8.847  0.5215  0.0440  0.1369
  233ccc     H4 6123   7.169   4.310   8.638  1.1022 -1.2244  3.4384
  233ccc     H5 6124   7.197   4.486   8.845 -0.1265 -2.0361 -2.2080
  233ccc     O1 6125   7.042   4.509   8.993 -0.3841  0.1471  0.3279
  233ccc     O2 6126   7.104   4.246   8.899 -0.1428 -0.5212  0.1774
  233ccc     O3 6127   7.006   4.181   8.648  0.6194  0.2032 -0.2074
  233ccc     O4 6128   6.847   4.406   8.596  0.8192  0.1151  0.6530
  233ccc     C6 6129   6.950   4.662   8.548  0.4057 -0.0087 -0.7183
  233ccc     H6 6130   7.004   4.162   8.553 -3.4900  0.0111 -0.2592
  233ccc     H7 6131   6.812   4.421   8.686 -1.0448  2.5342 -0.3785
  233ccc     H8 6132   7.055   4.164   8.883  0.0991 -0.2247 -2.6238
  233ccc     H9 6133   6.850   4.661   8.590  0.9852  1.2042  0.7723
  233ccc    H10 6134   6.949   4.624   8.445  3.0828 -0.3319 -0.7069
  233ccc     O5 6135   7.011   4.793   8.541 -0.1492  0.7713 -0.4307
  233ccc    H11 6136   6.967   4.827   8.620 -0.6701 -0.9304  0.0624
  233ccc     O6 6137   7.031   4.583   8.761  0.7070 -0.0593  0.0866
  234ccc     C1 6138   7.130   5.236   8.837  0.2279 -0.2842 -0.4520
  234ccc     C2 6139   7.067   5.277   8.702  0.6143 -0.4566  0.2964
  234ccc     H1 6140   7.195   5.320   8.862 -2.0276  0.8021  2.2398
  234ccc     H2 6141   7.019   5.374   8.717 -2.1213 -1.4551 -1.2106
  234ccc     C3 6142   7.163   5.292   8.579 -0.1988 -0.2724  0.0292
  234ccc     C4 6143   7.257   5.167   8.581  0.2841  0.5633  0.9750
  234ccc     C5 6144   7.307   5.122   8.722  0.7472  0.0464 -0.4559
  234ccc     H3 6145   7.200   5.082   8.542  1.6820  1.1192 -2.7141
  234ccc     H4 6146   7.223   5.383   8.592 -3.1114  2.4160 -3.2589
  234ccc     H5 6147   7.370   5.200   8.767  0.6617 -1.6215  2.8427
  234ccc     O1 6148   7.385   4.995   8.707  0.0715  0.2772  0.2434
  234ccc     O2 6149   7.374   5.192   8.494  0.8319 -0.5499  0.0065
  234ccc     O3 6150   7.097   5.303   8.447 -0.4337 -0.0550  0.5149
  234ccc     O4 6151   6.974   5.180   8.670 -1.0107 -0.3761  0.2425
  234ccc     C6 6152   7.024   5.230   8.951 -0.3690 -0.2303  0.2536
  234ccc     H6 6153   7.150   5.361   8.389 -0.9704 -0.7962 -0.7533
  234ccc     H7 6154   6.944   5.153   8.759  1.5959  0.1722  1.4065
  234ccc     H8 6155   7.431   5.113   8.493 -0.1377 -1.2677  0.0477
  234ccc     H9 6156   6.965   5.322   8.954 -0.2997 -0.1919  2.4639
  234ccc    H10 6157   7.078   5.226   9.047 -0.2068  0.8340  0.2122
  234ccc     O5 6158   6.931   5.120   8.940 -0.2002  0.6406  0.0645
  234ccc    H11 6159   6.889   5.087   9.021 -2.5205  0.3119 -1.1698
  234ccc     O6 6160   7.193   5.109   8.817  0.5372  0.6293  0.5362
  235ccc     C1 6161   7.879   4.201   8.694 -0.6611 -0.4916 -0.3010
  235ccc     C2 6162   7.917   4.054   8.693 -0.2878  0.7826 -0.0084
  235ccc     H1 6163   7.939   4.258   8.766  1.0513 -1.8944 -0.5728
  235ccc     H2 6164   8.026   4.053   8.678 -0.0031  1.7376  1.7641
  235ccc     C3 6165   7.890   3.976   8.831  0.3981  0.3380 -0.6345
  235ccc     C4 6166   7.754   4.017   8.890  0.3148  0.5815 -0.6648
  235ccc     C5 6167   7.730   4.166   8.884  0.4846 -0.1530  0.0619
  235ccc     H3 6168   7.673   3.977   8.827  0.1117 -0.1768  0.0566
  235ccc     H4 6169   7.973   3.997   8.900 -0.2460 -1.6297  0.8369
  235ccc     H5 6170   7.796   4.226   8.948  0.3650 -0.0711  0.1101
  235ccc     O1 6171   7.588   4.181   8.920  0.5470 -1.2521  0.1241
  235ccc     O2 6172   7.751   3.956   9.028 -0.2373 -0.2678  0.3932
  235ccc     O3 6173   7.894   3.833   8.803 -0.6482  0.2133 -0.0420
  235ccc     O4 6174   7.853   3.977   8.589 -0.1233 -0.1264  0.1499
  235ccc     C6 6175   7.893   4.252   8.553 -0.3205  0.4801  0.1679
  235ccc     H6 6176   7.935   3.788   8.879  0.1974  0.7448 -0.1751
  235ccc     H7 6177   7.866   3.889   8.629  0.9233 -0.1972 -0.3166
  235ccc     H8 6178   7.657   3.935   9.047 -0.9151  0.6668 -1.6174
  235ccc     H9 6179   7.794   4.231   8.511 -0.7565 -1.9685  2.1307
  235ccc    H10 6180   7.964   4.185   8.503 -1.1920 -0.8917  0.6908
  235ccc     O5 6181   7.939   4.387   8.559  0.2220 -0.4852 -0.7910
  235ccc    H11 6182   8.022   4.391   8.610  0.0887  0.3873 -0.6304
  235ccc     O6 6183   7.743   4.214   8.744 -0.3733 -0.2995  0.4502
  236ccc     C1 6184   9.724   5.207   8.856  0.5805  0.4791  0.3278
  236ccc     C2 6185   9.803   5.303   8.962  1.0268  0.4872 -0.0707
  236ccc     H1 6186   9.786   5.178   8.771 -1.1730 -3.1624  0.1096
  236ccc     H2 6187   9.904   5.272   8.990  1.5187 -0.2353 -2.4882
  236ccc     C3 6188   9.808   5.437   8.891 -0.0730 -0.0961  0.0175
  236ccc     C4 6189   9.673   5.495   8.854 -0.4930 -0.4202  0.7015
  236ccc     C5 6190   9.598   5.400   8.757  0.0283  0.0499 -0.3108
  236ccc     H3 6191   9.616   5.496   8.948  1.1249 -1.3405  1.7312
  236ccc     H4 6192   9.870   5.424   8.802  0.5976 -0.0713  0.4654
  236ccc     H5 6193   9.649   5.409   8.660 -1.0610  0.9841 -0.8140
  236ccc     O1 6194   9.464   5.450   8.744  0.3192  0.3950 -0.0300
  236ccc     O2 6195   9.693   5.628   8.801 -0.5729 -0.0905  0.1902
  236ccc     O3 6196   9.879   5.525   8.979  0.4014 -0.0186 -0.8723
  236ccc     O4 6197   9.713   5.307   9.073  0.1320 -0.1330 -0.0528
  236ccc     C6 6198   9.687   5.075   8.922 -0.0588 -0.4741 -0.4543
  236ccc     H6 6199   9.920   5.593   8.921  0.3037 -1.0427 -2.1911
  236ccc     H7 6200   9.754   5.246   9.136 -0.3008 -0.3145  0.0565
  236ccc     H8 6201   9.615   5.685   8.818 -1.2473 -1.1014  0.5486
  236ccc     H9 6202   9.608   5.083   8.998 -0.6798  0.6506 -1.1958
  236ccc    H10 6203   9.777   5.054   8.980  0.1431  2.5447  0.4951
  236ccc     O5 6204   9.656   4.978   8.827  0.7663  0.7796 -0.2976
  236ccc    H11 6205   9.576   5.014   8.785  1.7602  0.4535 -2.6108
  236ccc     O6 6206   9.602   5.273   8.827  0.0569  0.3719  0.2493
  237ccc     C1 6207   9.222   5.679   9.133  0.4823  0.1177 -0.5156
  237ccc     C2 6208   9.197   5.778   9.258  0.2200  0.6343  0.0646
  237ccc     H1 6209   9.173   5.722   9.044 -0.2808  2.4238  0.9283
  237ccc     H2 6210   9.216   5.882   9.230 -0.6888  0.8072  0.0680
  237ccc     C3 6211   9.045   5.772   9.291 -0.6431 -0.0780 -1.3110
  237ccc     C4 6212   8.998   5.624   9.309  0.1381 -0.2867 -0.0868
  237ccc     C5 6213   9.038   5.533   9.182  0.2490 -0.6201 -0.1773
  237ccc     H3 6214   9.050   5.573   9.391  0.6986 -2.1138 -1.5188
  237ccc     H4 6215   8.997   5.821   9.205 -0.1824  0.9705 -0.9838
  237ccc     H5 6216   8.977   5.565   9.096  1.2694 -1.5659 -1.2841
  237ccc     O1 6217   9.005   5.395   9.214 -0.2150 -0.3874  0.1282
  237ccc     O2 6218   8.852   5.611   9.327  0.7031 -0.5495  0.4729
  237ccc     O3 6219   9.025   5.852   9.413  0.3432  0.1244  0.5348
  237ccc     O4 6220   9.280   5.729   9.358  0.3361  0.6041 -0.1945
  237ccc     C6 6221   9.359   5.664   9.085 -0.0463 -0.1950  0.6091
  237ccc     H6 6222   9.056   5.797   9.487  0.6544  0.0071  0.3212
  237ccc     H7 6223   9.361   5.696   9.313  2.2064  2.3848  1.6559
  237ccc     H8 6224   8.811   5.598   9.240  2.4559  1.5095 -0.7948
  237ccc     H9 6225   9.399   5.761   9.051 -0.3787 -0.9095 -2.0463
  237ccc    H10 6226   9.353   5.611   8.989  0.8142 -1.2409  1.1155
  237ccc     O5 6227   9.445   5.607   9.179  0.2028  0.3041  0.4239
  237ccc    H11 6228   9.438   5.510   9.169 -0.2535  0.4597 -1.0946
  237ccc     O6 6229   9.176   5.542   9.162 -0.3849  0.4250 -0.4202
  238ccc     C1 6230   8.582   6.509  11.233  0.2813 -0.1588  0.3171
  238ccc     C2 6231   8.693   6.616  11.248  0.3417 -0.3636  0.5420
  238ccc     H1 6232   8.595   6.436  11.314 -0.2189  1.2985  1.7775
  238ccc     H2 6233   8.696   6.630  11.357 -1.5317 -1.5778  0.7942
  238ccc     C3 6234   8.826   6.560  11.194  0.5929 -0.0482 -0.9556
  238ccc     C4 6235   8.820   6.484  11.059  0.2537  0.0864  0.0793
  238ccc     C5 6236   8.690   6.400  11.041  0.2976 -0.2527 -0.6973
  238ccc     H3 6237   8.818   6.552  10.972 -0.7205  1.7579  1.3333
  238ccc     H4 6238   8.851   6.485  11.270 -0.5491  0.4769 -0.0376
  238ccc     H5 6239   8.697   6.304  11.094  0.7387 -0.0653 -0.4018
  238ccc     O1 6240   8.663   6.397  10.901  0.0301  0.0082 -0.3141
  238ccc     O2 6241   8.929   6.392  11.045 -0.1804  0.3419  0.8285
  238ccc     O3 6242   8.919   6.669  11.188  1.4503  0.2750 -0.0498
  238ccc     O4 6243   8.651   6.741  11.187 -0.2422 -0.0461  0.0880
  238ccc     C6 6244   8.444   6.558  11.277  0.1098 -0.0708  0.2474
  238ccc     H6 6245   8.971   6.646  11.110  1.8352 -1.7481  0.7300
  238ccc     H7 6246   8.705   6.752  11.108  2.1573  1.7927  1.8474
  238ccc     H8 6247   8.958   6.402  10.953 -0.5810  0.1765  0.6849
  238ccc     H9 6248   8.412   6.646  11.219 -3.2848 -1.0626  0.3492
  238ccc    H10 6249   8.440   6.575  11.386  0.2631 -2.7608  0.7456
  238ccc     O5 6250   8.358   6.447  11.253 -0.2513 -0.4524  0.4567
  238ccc    H11 6251   8.382   6.428  11.161 -2.2939  1.6923 -0.6300
  238ccc     O6 6252   8.575   6.470  11.093 -0.0471 -0.0750  0.4116
  239ccc     C1 6253   7.986   6.297  11.362 -0.5955  0.3219 -0.8904
  239ccc     C2 6254   7.897   6.190  11.439 -0.6014  0.4204 -0.5250
  239ccc     H1 6255   7.936   6.395  11.362  1.5833  1.5152  0.4549
  239ccc     H2 6256   7.857   6.234  11.531 -1.3534  0.5220 -0.8898
  239ccc     C3 6257   7.779   6.158  11.346 -0.0349  0.7355  0.2755
  239ccc     C4 6258   7.822   6.100  11.207 -1.1557 -1.1019  1.0095
  239ccc     C5 6259   7.921   6.203  11.140 -0.0646  0.3632 -1.1498
  239ccc     H3 6260   7.880   6.008  11.227 -0.2016 -0.8991 -0.6636
  239ccc     H4 6261   7.730   6.254  11.328 -2.9600 -0.9896 -1.9674
  239ccc     H5 6262   7.869   6.294  11.108 -0.4254  1.2342  1.6394
  239ccc     O1 6263   7.985   6.146  11.023  0.0619  0.2210  0.4252
  239ccc     O2 6264   7.708   6.074  11.120 -0.3689  0.0190 -0.3532
  239ccc     O3 6265   7.689   6.066  11.414  0.2338  0.8658 -0.2672
  239ccc     O4 6266   7.972   6.071  11.453 -0.5261  0.1909 -0.1506
  239ccc     C6 6267   8.120   6.327  11.449 -0.1281 -0.1153  0.2391
  239ccc     H6 6268   7.645   6.009  11.349  0.7640 -0.7477  0.7246
  239ccc     H7 6269   7.929   6.022  11.525 -0.7414  0.5375 -0.0406
  239ccc     H8 6270   7.663   5.997  11.158 -1.4555  0.4700 -0.6658
  239ccc     H9 6271   8.185   6.245  11.417 -0.4581  0.0432 -0.8780
  239ccc    H10 6272   8.108   6.321  11.558  2.1242  4.2143  0.9439
  239ccc     O5 6273   8.161   6.458  11.421 -0.8818  0.0944  0.0430
  239ccc    H11 6274   8.228   6.434  11.355 -1.8273  2.2953 -1.8717
  239ccc     O6 6275   8.023   6.250  11.235 -0.5828 -0.0339 -0.1343
  240ccc     C1 6276   8.733   7.206  10.958  0.5801 -0.2373 -0.4582
  240ccc     C2 6277   8.830   7.146  11.062 -0.2642 -0.4777  0.2728
  240ccc     H1 6278   8.631   7.205  10.998  0.5134  2.0552 -0.3846
  240ccc     H2 6279   8.811   7.190  11.161  1.3953  0.5332  0.1885
  240ccc     C3 6280   8.816   6.998  11.076 -0.0317  0.2995  0.6721
  240ccc     C4 6281   8.806   6.922  10.936 -0.2420 -0.6267 -0.5571
  240ccc     C5 6282   8.727   6.995  10.829  0.2215  0.3469  0.3321
  240ccc     H3 6283   8.910   6.930  10.904 -0.7324 -0.2208 -2.1727
  240ccc     H4 6284   8.724   6.987  11.135 -0.0490  1.2025  0.8284
  240ccc     H5 6285   8.621   6.981  10.851  0.1185  1.3153  0.4683
  240ccc     O1 6286   8.757   6.945  10.700  0.0074  0.4925 -0.2617
  240ccc     O2 6287   8.760   6.785  10.955 -0.5420 -0.3296  0.4172
  240ccc     O3 6288   8.929   6.948  11.151 -0.1963  0.1188  0.8333
  240ccc     O4 6289   8.968   7.165  11.043  0.5237  0.2054  0.4372
  240ccc     C6 6290   8.758   7.354  10.924  0.1021 -0.7932  0.0820
  240ccc     H6 6291   8.908   6.857  11.176 -4.4934  1.1378  1.7799
  240ccc     H7 6292   8.981   7.078  11.082 -1.2150 -0.5816 -0.5831
  240ccc     H8 6293   8.769   6.741  10.869  2.4903  0.4137  0.2507
  240ccc     H9 6294   8.758   7.406  11.020 -1.3984 -0.3344 -0.1241
  240ccc    H10 6295   8.691   7.408  10.855 -1.0265 -1.0345  0.9481
  240ccc     O5 6296   8.889   7.358  10.864  0.2485  0.4384 -0.1135
  240ccc    H11 6297   8.937   7.282  10.902 -1.2582 -0.0553  0.8981
  240ccc     O6 6298   8.749   7.143  10.837  0.3146  0.0737 -0.2634
  241ccc     C1 6299   8.252   7.194   9.781  0.5159 -0.2404 -0.7590
  241ccc     C2 6300   8.177   7.321   9.816 -0.7861  0.4917 -0.3547
  241ccc     H1 6301   8.180   7.115   9.755 -0.7708  0.2539  1.0914
  241ccc     H2 6302   8.119   7.347   9.726 -0.4189  1.3021 -0.3635
  241ccc     C3 6303   8.086   7.293   9.935 -0.2982  0.0107  0.3567
  241ccc     C4 6304   8.161   7.239  10.058  0.2139 -0.7846  0.2777
  241ccc     C5 6305   8.250   7.119  10.019 -0.9408  0.2069 -0.3667
  241ccc     H3 6306   8.228   7.320  10.088  0.2461 -0.5478 -0.4093
  241ccc     H4 6307   8.013   7.215   9.909 -0.3404 -0.1116  0.8200
  241ccc     H5 6308   8.184   7.033  10.003  0.5044 -0.7362 -1.5744
  241ccc     O1 6309   8.352   7.089  10.126 -0.0516 -0.2953  0.1016
  241ccc     O2 6310   8.066   7.199  10.156  0.0965 -0.1656 -0.5566
  241ccc     O3 6311   8.033   7.417   9.980 -0.5792 -0.2631 -0.4127
  241ccc     O4 6312   8.275   7.424   9.847 -0.5932 -0.2294  0.1022
  241ccc     C6 6313   8.345   7.195   9.658  0.1993 -0.6523  0.4874
  241ccc     H6 6314   7.949   7.399  10.027 -0.4415 -1.0943 -0.4714
  241ccc     H7 6315   8.240   7.479   9.919  0.3738  0.1172  0.3305
  241ccc     H8 6316   8.079   7.254  10.235 -0.8452  0.5417 -0.8901
  241ccc     H9 6317   8.446   7.214   9.697 -0.7421  1.1560  2.2394
  241ccc    H10 6318   8.308   7.270   9.587 -1.6628 -1.5525  0.4495
  241ccc     O5 6319   8.345   7.060   9.600 -0.1075 -0.5339  0.3486
  241ccc    H11 6320   8.412   7.016   9.655  0.2172  0.2311  0.5764
  241ccc     O6 6321   8.327   7.148   9.897  0.3700  0.3389  0.0923
  242ccc     C1 6322   7.666   5.521  11.461  0.3939  0.0955 -0.1334
  242ccc     C2 6323   7.524   5.535  11.400 -0.4578 -0.2536  0.7316
  242ccc     H1 6324   7.657   5.573  11.558 -1.0921  0.8163 -0.6328
  242ccc     H2 6325   7.448   5.505  11.473 -0.7199 -0.7170  0.2784
  242ccc     C3 6326   7.480   5.679  11.361 -0.0914  0.1233 -0.3966
  242ccc     C4 6327   7.594   5.748  11.281  0.1467  0.4012 -0.9179
  242ccc     C5 6328   7.743   5.725  11.339  0.4031  0.6100 -0.1150
  242ccc     H3 6329   7.591   5.695  11.185 -3.4229 -0.2694 -0.5941
  242ccc     H4 6330   7.468   5.741  11.450  0.5043 -0.5146  0.1443
  242ccc     H5 6331   7.759   5.787  11.428 -1.0781  1.2565 -0.2764
  242ccc     O1 6332   7.837   5.766  11.242  0.3871  0.1605  1.1585
  242ccc     O2 6333   7.559   5.892  11.255 -0.5982  0.0733 -0.1561
  242ccc     O3 6334   7.358   5.677  11.287  0.4014  0.5927 -0.1681
  242ccc     O4 6335   7.523   5.462  11.275 -0.5666  0.0095 -0.4108
  242ccc     C6 6336   7.708   5.377  11.493  1.0197 -0.6283  0.3934
  242ccc     H6 6337   7.292   5.640  11.347  0.5380  1.4681  0.5520
  242ccc     H7 6338   7.432   5.477  11.244 -1.5061 -1.0872  1.6004
  242ccc     H8 6339   7.466   5.886  11.229 -0.5353  0.0540 -0.3782
  242ccc     H9 6340   7.636   5.329  11.561 -1.0753  2.1735  0.3365
  242ccc    H10 6341   7.809   5.376  11.536  0.4713 -1.9099  1.7163
  242ccc     O5 6342   7.700   5.304  11.377 -0.0137 -0.2765  0.0469
  242ccc    H11 6343   7.644   5.365  11.326  2.0897  2.0366  0.3174
  242ccc     O6 6344   7.765   5.586  11.374 -0.5400 -0.0278  0.2556
  243ccc     C1 6345   8.487   5.041  11.703 -0.5096 -0.2909 -0.3027
  243ccc     C2 6346   8.597   4.947  11.651 -0.1528  0.5419 -0.2606
  243ccc     H1 6347   8.392   4.989  11.687  0.0785 -1.8253  0.9409
  243ccc     H2 6348   8.575   4.851  11.699  0.3628  1.6450  2.3497
  243ccc     C3 6349   8.591   4.929  11.493  0.6437 -0.1677 -0.8371
  243ccc     C4 6350   8.552   5.060  11.413  1.0508 -0.7812  0.3070
  243ccc     C5 6351   8.436   5.141  11.490 -0.1716  0.0034  1.0392
  243ccc     H3 6352   8.634   5.131  11.400 -0.1508  0.7802  1.0179
  243ccc     H4 6353   8.515   4.854  11.468  1.0301 -0.9638  0.3299
  243ccc     H5 6354   8.352   5.072  11.478  0.6121 -1.0809  1.6569
  243ccc     O1 6355   8.412   5.266  11.418  0.5241 -0.3026 -0.1433
  243ccc     O2 6356   8.515   5.010  11.285  0.1908  0.1843  0.8153
  243ccc     O3 6357   8.705   4.871  11.440 -0.4300 -0.4241 -0.0705
  243ccc     O4 6358   8.724   4.992  11.690  0.1141  0.4059  0.1138
  243ccc     C6 6359   8.504   5.081  11.853 -0.1241  0.0348 -0.6421
  243ccc     H6 6360   8.696   4.776  11.457  1.4105 -0.5611  0.3597
  243ccc     H7 6361   8.784   4.922  11.660 -0.9644  0.2113 -1.7403
  243ccc     H8 6362   8.581   4.951  11.246  0.7659  1.5484 -0.3839
  243ccc     H9 6363   8.499   4.985  11.907 -3.6841  0.9591  0.9572
  243ccc    H10 6364   8.417   5.141  11.883  0.1552 -0.5642  1.5664
  243ccc     O5 6365   8.631   5.146  11.871 -0.4661  0.0567 -0.1426
  243ccc    H11 6366   8.687   5.084  11.821  0.6719  0.5851  0.4412
  243ccc     O6 6367   8.480   5.162  11.624  0.1699 -0.1684  0.2494
  244ccc     C1 6368   8.829   6.132  11.960  0.4423 -0.2555 -0.2551
  244ccc     C2 6369   8.808   6.178  12.100 -0.2279 -0.2474 -0.8439
  244ccc     H1 6370   8.735   6.099  11.915  0.9010 -0.3836 -1.1574
  244ccc     H2 6371   8.714   6.235  12.105 -0.4483 -0.6636  3.1006
  244ccc     C3 6372   8.781   6.068  12.200 -0.5512  0.4666  0.3881
  244ccc     C4 6373   8.886   5.950  12.178 -0.4394 -0.6314 -0.7771
  244ccc     C5 6374   8.891   5.904  12.030  0.6473  0.7247 -0.0625
  244ccc     H3 6375   8.987   5.987  12.201  0.3515 -4.0160  2.0958
  244ccc     H4 6376   8.683   6.026  12.172  0.1291 -0.1381 -1.1870
  244ccc     H5 6377   8.798   5.855  11.999  0.6750  0.3690  0.4060
  244ccc     O1 6378   8.996   5.809  12.022  0.3779  0.7013  0.3020
  244ccc     O2 6379   8.840   5.844  12.267  0.1115  0.3178 -0.1542
  244ccc     O3 6380   8.790   6.108  12.339 -0.7323 -0.4851 -0.0590
  244ccc     O4 6381   8.923   6.242  12.140  0.4329  0.0426 -0.5429
  244ccc     C6 6382   8.876   6.234  11.856 -0.4723 -0.9172 -0.4186
  244ccc     H6 6383   8.743   6.193  12.335  0.1823  0.0036 -2.7617
  244ccc     H7 6384   8.951   6.270  12.052 -1.6839  0.2176 -1.2146
  244ccc     H8 6385   8.918   5.785  12.264  1.5911  2.1958 -0.5924
  244ccc     H9 6386   8.794   6.301  11.825 -0.1809 -0.2631  0.1991
  244ccc    H10 6387   8.901   6.189  11.759  2.6220  2.8137 -1.6349
  244ccc     O5 6388   8.982   6.314  11.911  0.1903 -0.6248  0.3497
  244ccc    H11 6389   8.999   6.382  11.843 -1.3085  0.2686  0.8052
  244ccc     O6 6390   8.926   6.021  11.952 -0.0087 -0.4028 -1.1154
  245ccc     C1 6391   9.615   4.917  11.928 -0.0625 -0.1408  0.0735
  245ccc     C2 6392   9.581   4.816  12.039  0.1966 -0.1114  0.2448
  245ccc     H1 6393   9.716   4.948  11.957  0.0683 -2.3046  2.2898
  245ccc     H2 6394   9.668   4.751  12.050  0.8603  0.5893 -0.6517
  245ccc     C3 6395   9.565   4.885  12.181 -0.4994  0.0335  0.4976
  245ccc     C4 6396   9.465   5.011  12.180  0.0278 -0.1261 -0.5282
  245ccc     C5 6397   9.488   5.102  12.054  0.4522  0.1047 -0.0655
  245ccc     H3 6398   9.360   4.982  12.173 -0.8434  2.6434 -0.3028
  245ccc     H4 6399   9.665   4.920  12.211  0.2317 -1.4387 -0.1203
  245ccc     H5 6400   9.570   5.170  12.082  1.9361 -1.6319  0.0427
  245ccc     O1 6401   9.363   5.177  12.039  0.4909 -0.0971 -0.2821
  245ccc     O2 6402   9.473   5.093  12.303 -0.5317 -0.3720  0.1506
  245ccc     O3 6403   9.521   4.791  12.279  0.3209 -0.5466 -0.0746
  245ccc     O4 6404   9.470   4.737  12.001  0.7946 -0.7452 -0.2669
  245ccc     C6 6405   9.621   4.860  11.786  0.4490 -0.1508  0.8557
  245ccc     H6 6406   9.518   4.836  12.365 -3.0976 -0.3203 -0.1773
  245ccc     H7 6407   9.453   4.689  12.084 -0.1790  0.4868  0.3000
  245ccc     H8 6408   9.414   5.055  12.371  0.4641 -0.7761  0.8106
  245ccc     H9 6409   9.679   4.769  11.770  0.5201  0.1430 -0.7265
  245ccc    H10 6410   9.645   4.931  11.706 -3.3986 -0.5708 -0.9051
  245ccc     O5 6411   9.482   4.837  11.760 -0.0558 -0.1532  0.3793
  245ccc    H11 6412   9.460   4.788  11.840 -0.4266  0.1648  0.4725
  245ccc     O6 6413   9.525   5.033  11.931 -0.5328 -0.3984 -0.2086
  246ccc     C1 6414   7.242   6.012   9.708  0.3382 -0.5219  0.1967
  246ccc     C2 6415   7.089   5.994   9.742 -0.4477  0.4907 -0.1044
  246ccc     H1 6416   7.270   6.118   9.713 -0.4287 -0.3334  0.8081
  246ccc     H2 6417   7.065   6.042   9.838  0.6891  1.1105 -0.1070
  246ccc     C3 6418   6.996   6.059   9.639  0.2826 -0.0424  0.0719
  246ccc     C4 6419   7.042   6.027   9.489  0.7903 -0.3511  1.3811
  246ccc     C5 6420   7.203   6.020   9.470 -0.6162 -1.2536 -0.3088
  246ccc     H3 6421   7.004   5.928   9.459  0.8340 -0.2999  1.1565
  246ccc     H4 6422   7.017   6.165   9.657  0.8886 -0.2891  0.8541
  246ccc     H5 6423   7.230   6.125   9.481  0.3743 -1.7140  2.1034
  246ccc     O1 6424   7.228   5.975   9.336 -0.1341 -0.3811  0.7135
  246ccc     O2 6425   6.990   6.121   9.399  0.5512  0.3107 -0.1635
  246ccc     O3 6426   6.856   6.028   9.659 -0.7822  0.2053  0.2688
  246ccc     O4 6427   7.061   5.854   9.738  0.0678  0.4314 -0.0438
  246ccc     C6 6428   7.325   5.941   9.815  0.4952 -0.3723  0.1206
  246ccc     H6 6429   6.839   6.054   9.751 -0.0436 -0.5293  0.6295
  246ccc     H7 6430   6.969   5.838   9.768 -0.3441  0.3888 -1.2785
  246ccc     H8 6431   6.895   6.110   9.417  0.4948  1.2407  0.1722
  246ccc     H9 6432   7.292   5.983   9.911 -2.0065 -0.6672 -0.5461
  246ccc    H10 6433   7.430   5.958   9.787  0.7555 -3.3463 -1.0633
  246ccc     O5 6434   7.302   5.805   9.802  0.2336 -0.3481  0.0116
  246ccc    H11 6435   7.206   5.808   9.792  0.2114  0.8580  0.5181
  246ccc     O6 6436   7.270   5.956   9.574 -0.2207 -0.1621  0.1979
  247ccc     C1 6437   7.822   5.472   8.174 -0.0473 -0.1564  0.0879
  247ccc     C2 6438   7.686   5.408   8.138 -0.2871 -0.5583 -0.5097
  247ccc     H1 6439   7.882   5.387   8.210  0.5206 -0.6003 -1.8321
  247ccc     H2 6440   7.708   5.317   8.080  0.8388 -2.5876  2.8120
  247ccc     C3 6441   7.615   5.362   8.266  0.0276 -0.0210 -0.0231
  247ccc     C4 6442   7.596   5.472   8.372  0.0342  0.5607  0.2633
  247ccc     C5 6443   7.735   5.531   8.406  0.6345  0.4375  0.0965
  247ccc     H3 6444   7.539   5.554   8.326 -0.3914 -0.0864 -0.3853
  247ccc     H4 6445   7.676   5.277   8.299  1.6984  0.5761 -1.3791
  247ccc     H5 6446   7.797   5.459   8.460  0.3398 -1.2130 -1.6486
  247ccc     O1 6447   7.714   5.651   8.487  0.3457 -0.0082  0.1566
  247ccc     O2 6448   7.533   5.403   8.486 -0.0211  0.2594  0.6674
  247ccc     O3 6449   7.491   5.303   8.234  0.5463  0.4631 -0.1285
  247ccc     O4 6450   7.600   5.499   8.067 -0.0644  0.3177  0.1076
  247ccc     C6 6451   7.873   5.541   8.059  0.0408 -0.2164  0.1512
  247ccc     H6 6452   7.514   5.224   8.183  1.8576  1.5543 -1.3099
  247ccc     H7 6453   7.510   5.472   8.091 -0.6086  1.2230 -0.8090
  247ccc     H8 6454   7.484   5.324   8.458 -0.3630  0.5464  0.4488
  247ccc     H9 6455   7.824   5.639   8.062 -0.4113 -0.4614  0.8984
  247ccc    H10 6456   7.855   5.487   7.964  1.1466 -0.7057  0.2054
  247ccc     O5 6457   8.016   5.553   8.078  0.2287  0.2975  0.1155
  247ccc    H11 6458   8.018   5.634   8.132 -0.3430 -0.4436  1.3078
  247ccc     O6 6459   7.792   5.574   8.278  0.2043 -0.3379  0.1852
  248ccc     C1 6460   7.224   7.165   9.833 -0.5012  0.4086  0.5550
  248ccc     C2 6461   7.108   7.137   9.930  0.8288 -0.6325  0.4409
  248ccc     H1 6462   7.177   7.179   9.735 -1.2615 -1.1895  0.6669
  248ccc     H2 6463   7.053   7.232   9.932  1.2417 -0.2699 -2.1323
  248ccc     C3 6464   7.006   7.025   9.874 -0.1502 -0.0431 -0.4700
  248ccc     C4 6465   7.092   6.897   9.841  0.2581  0.0261  0.8845
  248ccc     C5 6466   7.225   6.936   9.770  0.4507 -0.6308  0.8950
  248ccc     H3 6467   7.123   6.849   9.934  0.6785  0.5495  1.0208
  248ccc     H4 6468   6.963   7.048   9.776  0.9433  0.1505 -0.9162
  248ccc     H5 6469   7.211   6.960   9.663  1.4970  0.7367  1.0453
  248ccc     O1 6470   7.307   6.818   9.772  0.0055 -0.0617  0.6595
  248ccc     O2 6471   7.021   6.805   9.756  0.2684 -0.3854 -0.1922
  248ccc     O3 6472   6.893   6.994   9.960 -0.1693 -0.2866 -0.0844
  248ccc     O4 6473   7.159   7.104  10.063 -0.2123  0.5021 -0.0123
  248ccc     C6 6474   7.317   7.286   9.870 -0.1720  0.2308 -0.3740
  248ccc     H6 6475   6.828   6.958   9.898  0.1811 -1.1751  0.0473
  248ccc     H7 6476   7.085   7.086  10.124  0.7013 -3.8376  0.1309
  248ccc     H8 6477   6.961   6.753   9.813 -0.6580  1.7748  0.9009
  248ccc     H9 6478   7.269   7.381   9.846  0.3677  0.8443  0.8864
  248ccc    H10 6479   7.413   7.294   9.819  1.0053 -0.9178  1.5318
  248ccc     O5 6480   7.339   7.285  10.012  0.5525  0.0391 -0.0710
  248ccc    H11 6481   7.274   7.221  10.046  0.0212  0.0441 -1.0491
  248ccc     O6 6482   7.303   7.048   9.820 -0.2984  0.2818 -0.1108
  249ccc     C1 6483   7.930   7.434   9.465 -0.0224 -0.1574  0.1640
  249ccc     C2 6484   7.867   7.561   9.527 -0.0511  0.0790 -0.2002
  249ccc     H1 6485   7.865   7.393   9.386 -1.1743 -1.4243  1.7140
  249ccc     H2 6486   7.850   7.634   9.447 -0.1374 -0.3407 -0.5640
  249ccc     C3 6487   7.733   7.524   9.603 -0.4029  0.1711  0.2745
  249ccc     C4 6488   7.762   7.423   9.710  0.7018 -0.0894  0.0699
  249ccc     C5 6489   7.811   7.291   9.633  0.7339 -0.4211 -0.2973
  249ccc     H3 6490   7.844   7.468   9.767 -0.1945  2.0764 -0.2604
  249ccc     H4 6491   7.667   7.470   9.534 -0.7736  0.1690  0.6301
  249ccc     H5 6492   7.732   7.259   9.565  0.7435  0.7448 -0.8887
  249ccc     O1 6493   7.836   7.189   9.739 -0.5074  0.2274  0.3618
  249ccc     O2 6494   7.641   7.400   9.799 -0.0843  0.1434  0.6511
  249ccc     O3 6495   7.677   7.638   9.677  0.1966 -0.2100 -0.1207
  249ccc     O4 6496   7.955   7.620   9.623  0.8581 -0.8477 -0.5568
  249ccc     C6 6497   8.071   7.455   9.406 -0.9439  0.0991 -0.5524
  249ccc     H6 6498   7.644   7.697   9.607 -0.2466 -2.7534 -2.2158
  249ccc     H7 6499   7.923   7.711   9.633  0.1629 -0.9970 -1.3212
  249ccc     H8 6500   7.606   7.491   9.796 -1.1223 -0.2475 -1.9177
  249ccc     H9 6501   8.152   7.450   9.480 -1.5928 -4.3714  0.1216
  249ccc    H10 6502   8.070   7.550   9.352 -1.7097 -0.7380 -2.0662
  249ccc     O5 6503   8.090   7.357   9.308 -0.4959  0.0350  0.0617
  249ccc    H11 6504   8.060   7.271   9.341 -1.1392 -0.4260 -1.6387
  249ccc     O6 6505   7.938   7.328   9.569 -0.0703  0.4180  0.5046
  250ccc     C1 6506   6.993   5.224  10.233  0.4978  0.4017  0.0967
  250ccc     C2 6507   6.842   5.252  10.263 -0.1797 -0.2744 -0.3581
  250ccc     H1 6508   7.035   5.310  10.179 -0.7307  1.6834  1.1109
  250ccc     H2 6509   6.828   5.339  10.328 -1.7493 -0.6480 -0.1387
  250ccc     C3 6510   6.759   5.277  10.129 -0.4838  0.5202 -0.2983
  250ccc     C4 6511   6.781   5.163  10.035 -0.4661  0.3687 -0.1418
  250ccc     C5 6512   6.934   5.143  10.006 -0.2824  0.4189  0.0049
  250ccc     H3 6513   6.750   5.074  10.091 -0.0392  0.3103  0.0077
  250ccc     H4 6514   6.812   5.364  10.087  1.6337 -0.6605 -0.2492
  250ccc     H5 6515   6.977   5.237   9.969 -4.1202  1.9264 -1.0827
  250ccc     O1 6516   6.943   5.025   9.919 -0.0200  0.4461 -0.2236
  250ccc     O2 6517   6.705   5.192   9.916 -0.1813 -0.0189  0.1772
  250ccc     O3 6518   6.617   5.295  10.155  0.5390  0.2290 -0.3145
  250ccc     O4 6519   6.797   5.136  10.340 -0.4618  0.6314 -0.5358
  250ccc     C6 6520   7.080   5.192  10.355 -0.2813 -0.4772 -0.7600
  250ccc     H6 6521   6.570   5.294  10.070  2.5986  0.5486 -1.5198
  250ccc     H7 6522   6.701   5.126  10.335 -0.8532 -0.9037  4.3139
  250ccc     H8 6523   6.683   5.108   9.873  1.4001  0.0213 -0.7806
  250ccc     H9 6524   7.091   5.084  10.370  0.9504 -0.2346  0.3150
  250ccc    H10 6525   7.025   5.223  10.445 -0.3838  1.1348 -1.3467
  250ccc     O5 6526   7.210   5.260  10.344  0.4182  0.2217  0.2666
  250ccc    H11 6527   7.243   5.228  10.258 -1.8441 -0.1650 -0.5215
  250ccc     O6 6528   6.995   5.116  10.133 -0.1917  0.3145 -0.0573
  251ccc     C1 6529   6.819   4.598  10.338  0.4935 -0.0506 -0.1560
  251ccc     C2 6530   6.786   4.745  10.385  0.2783 -0.1509 -0.7667
  251ccc     H1 6531   6.859   4.550  10.428 -1.9699 -0.6519  0.6862
  251ccc     H2 6532   6.713   4.734  10.466  0.1449  2.2502 -0.4925
  251ccc     C3 6533   6.915   4.810  10.437  0.8080 -0.2961 -0.7633
  251ccc     C4 6534   7.033   4.810  10.334  0.1781 -0.7251 -0.0241
  251ccc     C5 6535   7.047   4.664  10.282  0.3557  0.4006 -1.0844
  251ccc     H3 6536   7.004   4.875  10.250  0.6222  2.8857  2.3759
  251ccc     H4 6537   6.949   4.755  10.526  0.1670 -0.9555 -0.9225
  251ccc     H5 6538   7.076   4.595  10.363 -0.6650  0.3461 -0.7562
  251ccc     O1 6539   7.134   4.658  10.163 -0.0931 -0.2882  0.3405
  251ccc     O2 6540   7.161   4.845  10.401 -0.5707 -0.4645  0.6250
  251ccc     O3 6541   6.892   4.947  10.484 -0.2398  0.9143 -0.5886
  251ccc     O4 6542   6.717   4.818  10.282  0.3188 -0.8786  0.6442
  251ccc     C6 6543   6.699   4.516  10.293  0.3317  0.0752 -0.0287
  251ccc     H6 6544   6.869   5.007  10.411  0.2686  0.8556 -0.8002
  251ccc     H7 6545   6.732   4.765  10.201 -1.6165 -1.4203  0.5980
  251ccc     H8 6546   7.215   4.869  10.325  1.8119 -1.2146  1.9749
  251ccc     H9 6547   6.639   4.566  10.216 -2.3376 -0.4721  1.5633
  251ccc    H10 6548   6.630   4.501  10.377  0.5167 -2.0298 -0.2101
  251ccc     O5 6549   6.744   4.395  10.244 -0.2228 -0.5753  0.0414
  251ccc    H11 6550   6.771   4.417  10.153 -2.0740 -0.2843 -0.4924
  251ccc     O6 6551   6.916   4.610  10.236  0.0611  0.3550  0.7555
  252ccc     C1 6552   6.493   5.741   9.577  0.1209  0.6073 -1.1743
  252ccc     C2 6553   6.353   5.808   9.570 -0.4789 -0.1904  0.9366
  252ccc     H1 6554   6.539   5.713   9.481  2.1870 -2.4217  0.5486
  252ccc     H2 6555   6.352   5.900   9.511 -0.0737  0.9160  2.5786
  252ccc     C3 6556   6.253   5.706   9.499  0.5662 -0.1286 -0.7663
  252ccc     C4 6557   6.254   5.565   9.566  0.0340  0.7303  0.3365
  252ccc     C5 6558   6.399   5.514   9.563  0.0139 -0.0088  0.6965
  252ccc     H3 6559   6.229   5.566   9.673 -0.9864  2.0761  0.1074
  252ccc     H4 6560   6.286   5.689   9.396 -2.4859 -1.9993 -1.5648
  252ccc     H5 6561   6.434   5.504   9.459 -4.8429 -1.3077 -1.0795
  252ccc     O1 6562   6.400   5.381   9.622 -0.3844  0.0727  0.2063
  252ccc     O2 6563   6.170   5.482   9.494  0.0631 -0.0352 -0.3032
  252ccc     O3 6564   6.121   5.764   9.512 -0.1565 -0.6379 -0.0371
  252ccc     O4 6565   6.306   5.851   9.700  0.8272  0.1020  0.6545
  252ccc     C6 6566   6.594   5.816   9.665  0.3798 -0.1642  0.0014
  252ccc     H6 6567   6.080   5.750   9.425 -0.1156 -0.5857 -0.0649
  252ccc     H7 6568   6.216   5.877   9.674  0.8533 -0.8487 -0.4525
  252ccc     H8 6569   6.076   5.506   9.501  0.0649  0.2884 -1.3331
  252ccc     H9 6570   6.609   5.766   9.761 -2.6467 -0.7124  0.3002
  252ccc    H10 6571   6.572   5.919   9.697  2.2390 -0.5597  2.8669
  252ccc     O5 6572   6.715   5.818   9.585 -0.2790 -0.1116 -0.7122
  252ccc    H11 6573   6.765   5.896   9.615 -0.3310 -0.5044  0.4074
  252ccc     O6 6574   6.477   5.610   9.634  0.3208  0.1622  0.2152
  253ccc     C1 6575   6.417   4.657   8.812  0.7528 -0.6907 -0.1211
  253ccc     C2 6576   6.523   4.543   8.786 -0.1882  0.2122 -0.5244
  253ccc     H1 6577   6.437   4.744   8.748 -2.8414 -0.6918 -1.5184
  253ccc     H2 6578   6.530   4.537   8.677  0.5793  3.7153 -0.7969
  253ccc     C3 6579   6.666   4.582   8.832  0.7433 -0.2823 -0.0985
  253ccc     C4 6580   6.668   4.644   8.974 -0.0082 -0.3198  0.0548
  253ccc     C5 6581   6.556   4.747   8.981  0.6774 -0.3333  0.1565
  253ccc     H3 6582   6.652   4.565   9.049  0.5101 -0.7117 -0.2390
  253ccc     H4 6583   6.716   4.657   8.771  1.7340 -1.6606 -1.0432
  253ccc     H5 6584   6.574   4.833   8.917  2.1834 -0.1070  0.8544
  253ccc     O1 6585   6.540   4.794   9.116  0.8934 -0.2607 -0.2200
  253ccc     O2 6586   6.800   4.694   8.983  0.0548  0.2752  0.3339
  253ccc     O3 6587   6.740   4.463   8.836  0.5507 -0.0573 -0.2637
  253ccc     O4 6588   6.480   4.415   8.846 -0.1482  0.2086  0.2740
  253ccc     C6 6589   6.273   4.610   8.790  0.0689  0.2682  0.2838
  253ccc     H6 6590   6.679   4.399   8.876  3.0785 -2.1415  0.6033
  253ccc     H7 6591   6.417   4.372   8.787  0.9451 -1.8297  0.5142
  253ccc     H8 6592   6.858   4.615   8.981  0.1092  0.2853 -2.5257
  253ccc     H9 6593   6.242   4.544   8.871  1.4724  0.7641  1.2568
  253ccc    H10 6594   6.269   4.559   8.692  3.0963  1.0381 -0.3515
  253ccc     O5 6595   6.195   4.726   8.790  0.1804 -0.0542 -0.1206
  253ccc    H11 6596   6.148   4.713   8.874 -0.5153  0.3083 -0.4474
  253ccc     O6 6597   6.431   4.689   8.951 -0.1267  0.1606  0.1550
  254SOL     OW 6598   8.362  12.117   7.657 -0.7212 -0.0407  0.2603
  254SOL    HW1 6599   8.340  12.079   7.743 -4.5512 -1.8247 -1.2700
  254SOL    HW2 6600   8.359  12.043   7.597 -2.1828  1.7071 -1.9630
  255SOL     OW 6601   8.105   0.384   8.385  0.3500  0.1038 -0.4450
  255SOL    HW1 6602   8.027   0.364   8.333  0.7966 -1.5222 -0.5456
  255SOL    HW2 6603   8.079   0.363   8.475  0.7243 -0.6614 -0.5074
  256SOL     OW 6604   7.049   3.965  11.474 -0.1867  0.1684  0.4632
  256SOL    HW1 6605   7.072   3.995  11.386 -1.2231 -1.2481 -0.3384
  256SOL    HW2 6606   7.082   3.875  11.478 -0.6559  0.0209  1.3002
  257SOL     OW 6607   4.290   2.628   6.199 -0.1959 -0.2286  0.0650
  257SOL    HW1 6608   4.212   2.599   6.153  0.3785 -1.1532 -0.3617
  257SOL    HW2 6609   4.363   2.592   6.149  0.4466 -2.8297  2.5755
  258SOL     OW 6610   7.696   0.968  11.496  0.4115 -0.1624 -0.0583
  258SOL    HW1 6611   7.695   1.022  11.574 -0.6637 -0.9289  0.4849
  258SOL    HW2 6612   7.615   0.989  11.450  0.2076 -0.9494 -0.0807
  259SOL     OW 6613   0.845   0.791  11.861  0.4865  0.6980  0.2024
  259SOL    HW1 6614   0.837   0.860  11.795  0.8786  0.5389 -0.0159
  259SOL    HW2 6615   0.936   0.763  11.855 -0.1920 -1.4214 -1.3172
  260SOL     OW 6616   5.494   6.581   5.204  0.2956 -0.2429  0.5648
  260SOL    HW1 6617   5.565   6.645   5.198  0.5649 -0.6742 -1.9751
  260SOL    HW2 6618   5.528   6.512   5.259  1.3142  0.2168  0.5362
  261SOL     OW 6619  11.302  11.595   9.105 -0.1271  0.4626 -0.2020
  261SOL    HW1 6620  11.281  11.638   9.188  0.7713  0.5147  0.0100
  261SOL    HW2 6621  11.308  11.667   9.042 -0.6621  0.4379 -0.2880
  262SOL     OW 6622  10.142   3.352   1.653  0.2503 -0.4277 -0.1231
  262SOL    HW1 6623  10.104   3.423   1.705 -0.6830 -0.1118 -1.1862
  262SOL    HW2 6624  10.236   3.359   1.668  0.0578  0.0739  0.9736
  263SOL     OW 6625   2.252   8.876   5.907  0.1315  0.1251 -0.3333
  263SOL    HW1 6626   2.175   8.840   5.951 -0.0682  0.6765 -0.2249
  263SOL    HW2 6627   2.311   8.801   5.897  0.3944  0.0713  1.3325
  264SOL     OW 6628   4.691   6.127   1.961 -0.1620  0.4806  0.1661
  264SOL    HW1 6629   4.783   6.141   1.985 -0.3440  1.6796  0.2278
  264SOL    HW2 6630   4.684   6.164   1.872 -0.6678  0.7789  0.3231
  265SOL     OW 6631   3.308   3.589   9.098 -0.3644  0.0383  0.0206
  265SOL    HW1 6632   3.274   3.510   9.139 -0.3975  0.0834  0.0795
  265SOL    HW2 6633   3.375   3.558   9.037 -1.0789 -0.1115 -0.6923
  266SOL     OW 6634   3.329   1.647  12.160 -0.4166 -0.4883  0.4314
  266SOL    HW1 6635   3.320   1.738  12.190  0.7762 -0.0673 -0.4115
  266SOL    HW2 6636   3.293   1.647  12.072  3.7720  0.3860 -1.5375
  267SOL     OW 6637   7.998   7.640   3.676  0.6269 -0.1135  0.0589
  267SOL    HW1 6638   8.071   7.610   3.622  0.2181 -0.9262 -0.0427
  267SOL    HW2 6639   8.039   7.699   3.740  1.4181 -0.8346  0.2265
  268SOL     OW 6640  10.397   6.837   3.278 -0.2370  0.2171  0.4198
  268SOL    HW1 6641  10.489   6.861   3.290  0.2028 -1.2272  0.2125
  268SOL    HW2 6642  10.393   6.805   3.188 -0.1516 -2.8349  1.3830
  269SOL     OW 6643   0.154  10.059   5.181 -0.0209  0.4648  1.0070
  269SOL    HW1 6644   0.221  10.113   5.224  0.2260  1.0791 -0.1092
  269SOL    HW2 6645   0.186  10.048   5.092 -1.7075  1.2922  0.2562
  270SOL     OW 6646   0.599   2.393   0.535  0.3448 -0.3128 -0.6181
  270SOL    HW1 6647   0.664   2.434   0.478  0.2142 -1.1152 -1.3493
  270SOL    HW2 6648   0.546   2.467   0.566 -1.0460 -0.0256 -3.3593
  271SOL     OW 6649   8.418   4.529   2.131  0.1523  0.4813 -0.3789
  271SOL    HW1 6650   8.508   4.534   2.099  0.5220  1.3915  0.7441
  271SOL    HW2 6651   8.375   4.605   2.092  0.1710  0.6780 -0.0156
  272SOL     OW 6652   2.440   3.952  12.183  0.1047 -0.3372  0.5158
  272SOL    HW1 6653   2.501   3.881  12.201 -0.9278 -1.1683  0.8555
  272SOL    HW2 6654   2.384   3.956  12.260 -0.0384  0.6671  0.3818
  273SOL     OW 6655  12.178   6.578   5.316 -0.1532  0.2921  0.3812
  273SOL    HW1 6656  12.153   6.594   5.407  1.5430  1.9101  0.6256
  273SOL    HW2 6657  12.185   6.666   5.277  1.8409 -0.1997 -0.5150
  274SOL     OW 6658   0.332   3.328   4.954  0.3377  0.0561 -0.0126
  274SOL    HW1 6659   0.381   3.246   4.955  0.6911  0.2560 -0.4641
  274SOL    HW2 6660   0.341   3.360   4.864 -0.8785 -0.0569 -0.2028
  275SOL     OW 6661   7.864  10.831  10.851 -0.4327  0.1201 -0.0540
  275SOL    HW1 6662   7.901  10.748  10.881  1.6533  1.2644  0.7046
  275SOL    HW2 6663   7.840  10.814  10.759 -1.2114 -1.6312  0.4226
  276SOL     OW 6664   7.085  11.761   2.711 -0.5179 -0.2333 -0.5167
  276SOL    HW1 6665   7.117  11.800   2.792  0.2407 -0.7950 -0.5372
  276SOL    HW2 6666   6.996  11.734   2.731 -0.0401 -1.1861  0.4237
  277SOL     OW 6667   2.391  12.099   5.624  0.0289  0.4490 -0.3113
  277SOL    HW1 6668   2.370  12.009   5.650  1.3511 -0.2223 -1.4366
  277SOL    HW2 6669   2.398  12.146   5.707 -1.0704 -0.3678  0.2849
  278SOL     OW 6670  10.056   8.637   2.281 -0.4659 -0.4441  0.4439
  278SOL    HW1 6671  10.128   8.585   2.315 -0.7261 -1.8047 -1.0084
  278SOL    HW2 6672  10.071   8.642   2.187 -1.8178 -0.0526  0.2219
  279SOL     OW 6673   6.222   7.692   0.513 -0.1534  0.7864 -0.1306
  279SOL    HW1 6674   6.164   7.699   0.589  0.1626 -0.2178  0.2129
  279SOL    HW2 6675   6.186   7.754   0.450 -0.5850  1.4253  0.7303
  280SOL     OW 6676   9.309   2.149   1.669 -0.0592  0.5197  0.4750
  280SOL    HW1 6677   9.289   2.221   1.730 -0.9688  1.4552 -0.8829
  280SOL    HW2 6678   9.343   2.193   1.591 -2.2623 -0.3433 -1.0590
  281SOL     OW 6679  11.786   8.723   0.537  0.9332  0.3561  0.5957
  281SOL    HW1 6680  11.749   8.741   0.451  0.1827 -0.7339  0.6675
  281SOL    HW2 6681  11.721   8.757   0.599  0.0034 -1.5554  0.7226
  282SOL     OW 6682   6.752   1.209   7.614  0.2671  0.2571 -0.3240
  282SOL    HW1 6683   6.664   1.243   7.629 -0.3258 -1.3065 -0.0901
  282SOL    HW2 6684   6.766   1.223   7.520  0.0119  1.0480 -0.2519
  283SOL     OW 6685   5.545   1.353  10.981 -0.0866  0.4157 -0.4167
  283SOL    HW1 6686   5.493   1.275  10.964 -0.1428  0.7268 -1.7889
  283SOL    HW2 6687   5.505   1.421  10.926  0.7140  1.0877 -0.1888
  284SOL     OW 6688   4.450   2.068   1.628 -0.1574  0.0101  0.0927
  284SOL    HW1 6689   4.439   2.100   1.539  1.4345 -0.3048 -0.2533
  284SOL    HW2 6690   4.461   1.973   1.618  2.3740  0.1915  0.3125
  285SOL     OW 6691   0.354   9.604   9.367 -0.1890 -0.0852 -0.3001
  285SOL    HW1 6692   0.366   9.582   9.275 -0.5770 -2.0677  0.0886
  285SOL    HW2 6693   0.310   9.528   9.405 -0.4508  0.8775  1.4365
  286SOL     OW 6694   6.481   3.806   4.850 -0.3618 -0.7185  0.1687
  286SOL    HW1 6695   6.546   3.800   4.919 -0.7729 -0.0373  0.6286
  286SOL    HW2 6696   6.405   3.760   4.883 -0.4522 -0.6646  0.0394
  287SOL     OW 6697   9.052   1.632   5.914  0.0213 -0.1537 -0.1819
  287SOL    HW1 6698   9.072   1.721   5.943  2.0486 -0.4813 -0.3936
  287SOL    HW2 6699   9.012   1.642   5.828 -1.4138  0.6052  0.5433
  288SOL     OW 6700   9.777   1.233   7.062  0.3818  0.1587  0.4675
  288SOL    HW1 6701   9.742   1.240   7.151 -0.0995 -0.0680  0.2992
  288SOL    HW2 6702   9.835   1.308   7.052 -0.5331  0.8843  0.5391
  289SOL     OW 6703  11.876   9.612   5.061  0.5231  0.1600  0.3389
  289SOL    HW1 6704  11.824   9.692   5.066 -0.0237 -0.1103 -0.6704
  289SOL    HW2 6705  11.957   9.633   5.108  1.1382  1.9175 -1.3623
  290SOL     OW 6706   2.813   4.187   8.780  0.0564  0.8229  0.5330
  290SOL    HW1 6707   2.876   4.259   8.767 -1.5265  1.7288 -3.8882
  290SOL    HW2 6708   2.799   4.152   8.692  0.2742 -4.7287  2.3544
  291SOL     OW 6709   2.445   2.243   7.938 -0.1602 -0.5323  0.4169
  291SOL    HW1 6710   2.497   2.240   7.857  1.7216  1.3075  1.4834
  291SOL    HW2 6711   2.369   2.297   7.915  0.2883 -0.1314 -0.1574
  292SOL     OW 6712   8.198  11.824  12.067 -0.6459 -0.2105 -0.2450
  292SOL    HW1 6713   8.191  11.758  12.136 -1.1937  0.2733  0.1792
  292SOL    HW2 6714   8.268  11.793  12.010 -1.3325 -1.4938 -0.4337
  293SOL     OW 6715   1.263   5.278   4.311  0.0822 -0.1509 -0.0677
  293SOL    HW1 6716   1.224   5.259   4.226 -0.6087  1.4998 -0.1634
  293SOL    HW2 6717   1.232   5.366   4.332  0.7627 -0.2755  1.6010
  294SOL     OW 6718   3.633   3.442   8.574  0.0198  0.4491  0.1164
  294SOL    HW1 6719   3.636   3.350   8.599  0.6695  0.7307  1.1232
  294SOL    HW2 6720   3.625   3.440   8.478  3.9513 -0.7347 -0.3890
  295SOL     OW 6721   7.712   1.841   8.582 -0.4152  0.2679 -0.6090
  295SOL    HW1 6722   7.704   1.757   8.537 -0.6038 -0.6532  1.0912
  295SOL    HW2 6723   7.635   1.890   8.555 -1.7900 -1.1861  0.5323
  296SOL     OW 6724  12.307   4.308   4.068 -0.0912  0.4764 -0.0306
  296SOL    HW1 6725  12.271   4.340   3.986  0.5866 -0.5135 -0.7497
  296SOL    HW2 6726  12.333   4.386   4.116 -0.9522  1.0858 -0.5430
  297SOL     OW 6727   8.651   2.041   6.306 -0.9288  0.2657  0.6724
  297SOL    HW1 6728   8.725   1.979   6.306 -1.1828 -0.0531  1.8156
  297SOL    HW2 6729   8.584   1.997   6.253 -0.6494  0.1293  0.4263
  298SOL     OW 6730   1.800   9.469   4.157 -0.4764 -0.1214 -0.6278
  298SOL    HW1 6731   1.783   9.555   4.195  0.7470  0.3769 -1.1649
  298SOL    HW2 6732   1.884   9.479   4.112 -0.3321 -1.5861 -0.7227
  299SOL     OW 6733   5.735   1.890   3.617 -0.5665 -0.1255  0.7070
  299SOL    HW1 6734   5.670   1.958   3.634  0.9079  1.7244 -0.4778
  299SOL    HW2 6735   5.786   1.884   3.698  1.1267  2.4504 -0.0274
  300SOL     OW 6736   1.215   1.804   9.711 -0.2846  0.1633  0.7304
  300SOL    HW1 6737   1.218   1.890   9.752  0.9400  1.4132 -1.7534
  300SOL    HW2 6738   1.130   1.801   9.667  0.9280  1.6541 -1.9953
  301SOL     OW 6739  11.650   2.838  11.079 -0.1813  0.1003 -0.4733
  301SOL    HW1 6740  11.636   2.760  11.132 -1.7996  0.0475 -0.9259
  301SOL    HW2 6741  11.599   2.906  11.122  1.7768  1.1569  0.3252
  302SOL     OW 6742   6.484   4.145   0.206  0.1836  0.1513 -0.8724
  302SOL    HW1 6743   6.484   4.236   0.236  2.1628 -0.3811  0.9749
  302SOL    HW2 6744   6.513   4.149   0.115  0.7517  1.3443 -0.6476
  303SOL     OW 6745   3.948   1.593   1.034 -0.6777  0.0031  0.0605
  303SOL    HW1 6746   4.009   1.557   0.969 -0.4849  0.9187 -0.2781
  303SOL    HW2 6747   3.947   1.687   1.017 -2.2469  0.0136  0.0080
  304SOL     OW 6748   8.178   6.399  12.119  0.0569 -0.3447 -0.3374
  304SOL    HW1 6749   8.216   6.439  12.198 -1.3014  0.4631 -0.0717
  304SOL    HW2 6750   8.118   6.465  12.085  0.2557 -0.8760 -1.7995
  305SOL     OW 6751   4.880   2.924   2.023  0.5853  0.0394  0.3604
  305SOL    HW1 6752   4.927   2.842   2.034  0.3247  0.0763  1.9396
  305SOL    HW2 6753   4.787   2.899   2.026  0.5042  0.4086  1.0584
  306SOL     OW 6754   1.371   6.479   1.175  0.1274  0.2290  0.4717
  306SOL    HW1 6755   1.431   6.501   1.246  0.1177  1.2398  0.1869
  306SOL    HW2 6756   1.358   6.562   1.128  0.6239 -0.5499 -1.0912
  307SOL     OW 6757   8.219   9.891   2.989  0.1696  0.1189 -0.3815
  307SOL    HW1 6758   8.281   9.955   2.953  0.2168  1.0208  1.1877
  307SOL    HW2 6759   8.142   9.943   3.012 -0.2925 -0.6161 -0.2550
  308SOL     OW 6760   4.512   1.176   8.936  0.1390 -0.5767  0.0629
  308SOL    HW1 6761   4.504   1.130   9.019 -2.9866 -0.2779  0.0498
  308SOL    HW2 6762   4.519   1.106   8.870  5.3757 -0.8576  0.5204
  309SOL     OW 6763   5.470   0.391   8.205 -0.0799  0.0496 -0.2279
  309SOL    HW1 6764   5.436   0.481   8.197  0.3793  0.4724  1.9220
  309SOL    HW2 6765   5.520   0.378   8.124 -0.3683  1.6351 -0.7160
  310SOL     OW 6766   2.263   5.480   7.886  0.1715 -0.1093 -0.1512
  310SOL    HW1 6767   2.185   5.506   7.837  0.8176  0.9141 -0.6577
  310SOL    HW2 6768   2.290   5.397   7.845  0.2225  0.3086 -0.9715
  311SOL     OW 6769   7.513   3.739   3.618 -0.3477  0.0125 -0.5287
  311SOL    HW1 6770   7.436   3.738   3.675 -1.1613 -1.5186 -1.5641
  311SOL    HW2 6771   7.579   3.788   3.667 -1.8046  0.9113  0.6154
  312SOL     OW 6772   3.963   6.998   4.218  0.0146 -0.5044 -0.2929
  312SOL    HW1 6773   3.945   7.058   4.146  0.2899  1.5827  1.3044
  312SOL    HW2 6774   3.883   6.946   4.226 -0.5054  0.1107 -1.2658
  313SOL     OW 6775   1.416  10.020   6.110 -0.0149  0.5921 -0.2538
  313SOL    HW1 6776   1.369   9.976   6.180  0.1516 -0.5407 -0.8286
  313SOL    HW2 6777   1.445  10.103   6.149 -2.0664  1.1211  0.2346
  314SOL     OW 6778   2.380   7.041  11.905 -0.9398  0.0978  0.5833
  314SOL    HW1 6779   2.399   7.077  11.818 -0.6423 -1.4957 -0.0559
  314SOL    HW2 6780   2.459   7.058  11.956 -1.0678  0.9330  0.5205
  315SOL     OW 6781   5.258   9.453   1.995 -0.4472  0.5497  0.4974
  315SOL    HW1 6782   5.175   9.477   1.952 -0.4670 -0.1921  0.1114
  315SOL    HW2 6783   5.318   9.524   1.972 -0.5586  0.3506 -0.4646
  316SOL     OW 6784  10.338   0.091  11.033  0.7567 -0.4646 -0.4904
  316SOL    HW1 6785  10.428   0.099  11.066  0.3669 -2.3848  1.2480
  316SOL    HW2 6786  10.293   0.168  11.068  1.2364 -0.5821  0.4234
  317SOL     OW 6787   1.981   6.286   8.952 -0.3672  0.4421 -0.1660
  317SOL    HW1 6788   1.926   6.218   8.989 -0.4318  0.4314 -0.2825
  317SOL    HW2 6789   2.024   6.326   9.028 -0.1258  0.0964 -0.1219
  318SOL     OW 6790   1.192   8.030   8.654 -0.1641 -0.4707 -0.1246
  318SOL    HW1 6791   1.134   8.049   8.728  3.3296 -2.3006  3.4020
  318SOL    HW2 6792   1.255   8.102   8.653 -0.3897 -0.2446 -1.7237
  319SOL     OW 6793   7.585  11.401   1.727  0.1832  0.6627 -0.3228
  319SOL    HW1 6794   7.500  11.406   1.770  0.5837 -0.9265  0.7283
  319SOL    HW2 6795   7.637  11.469   1.770  0.2066 -0.0976  0.8980
  320SOL     OW 6796   6.494  10.367   9.363 -0.3518 -0.1397  0.0071
  320SOL    HW1 6797   6.405  10.403   9.363 -0.6039 -0.6617 -1.9244
  320SOL    HW2 6798   6.549  10.441   9.390 -1.2937  0.4049  0.5114
  321SOL     OW 6799   5.636   1.168  11.281 -0.0903  0.7906 -0.7726
  321SOL    HW1 6800   5.679   1.205  11.203  0.4970  0.7677 -0.4650
  321SOL    HW2 6801   5.691   1.094  11.305  0.0448  1.1285 -0.0157
  322SOL     OW 6802  11.911   7.577   6.128  0.0555 -0.3131 -0.5465
  322SOL    HW1 6803  11.979   7.525   6.169  0.2101  0.3069 -0.0141
  322SOL    HW2 6804  11.918   7.663   6.168 -2.4427 -0.7974  1.1599
  323SOL     OW 6805   7.970   9.509   8.797  0.6791 -0.4056  0.2587
  323SOL    HW1 6806   7.920   9.581   8.759  1.6417  0.5171  0.6782
  323SOL    HW2 6807   7.960   9.437   8.735 -0.2396  0.1085 -0.2088
  324SOL     OW 6808   4.740   7.291   7.626 -0.2415  0.5538 -0.2713
  324SOL    HW1 6809   4.817   7.349   7.626 -0.9492  1.5453  1.0660
  324SOL    HW2 6810   4.777   7.203   7.641  0.6195  1.0769  0.8647
  325SOL     OW 6811   9.677   3.292   3.920  0.1836  0.0487  0.2047
  325SOL    HW1 6812   9.661   3.198   3.920 -1.3812  0.2824  0.0179
  325SOL    HW2 6813   9.724   3.310   3.839  0.1498 -0.5114  0.0629
  326SOL     OW 6814   2.257   4.539   7.765  0.4387  0.0010  1.0220
  326SOL    HW1 6815   2.352   4.540   7.768  0.4193 -0.1725  2.1732
  326SOL    HW2 6816   2.233   4.450   7.793 -0.0769  0.3542  1.7282
  327SOL     OW 6817   3.310   7.877   5.426 -0.4905  0.3825 -0.1108
  327SOL    HW1 6818   3.219   7.858   5.402 -0.0525 -0.8022 -0.9458
  327SOL    HW2 6819   3.318   7.972   5.415 -1.8933  0.6600  0.9912
  328SOL     OW 6820  11.961   0.778   5.863 -0.5791  0.1595  0.7088
  328SOL    HW1 6821  12.023   0.850   5.875  0.6550 -0.7631  0.0582
  328SOL    HW2 6822  11.898   0.790   5.934  0.4246  1.0437  1.4975
  329SOL     OW 6823   1.716   4.460  11.503 -0.5040 -0.3672  0.2428
  329SOL    HW1 6824   1.642   4.521  11.505 -1.3506 -1.3128 -1.0201
  329SOL    HW2 6825   1.785   4.508  11.458 -0.9671 -0.1213 -0.2192
  330SOL     OW 6826   7.916   0.546   9.376  0.1792 -0.4487 -0.1474
  330SOL    HW1 6827   7.832   0.554   9.422  0.2485 -0.1719 -0.0699
  330SOL    HW2 6828   7.977   0.599   9.427  0.1212  0.3673 -0.9118
  331SOL     OW 6829   6.890   4.744   3.342  0.8854 -0.3120  0.0154
  331SOL    HW1 6830   6.973   4.703   3.320  0.0994 -1.9561 -0.0366
  331SOL    HW2 6831   6.824   4.677   3.322 -0.5309  1.2633 -0.7788
  332SOL     OW 6832   1.029  11.441  10.770 -0.2613 -0.3688 -0.4581
  332SOL    HW1 6833   1.069  11.520  10.732 -0.7835  0.2497  0.2477
  332SOL    HW2 6834   0.980  11.473  10.846  2.9897 -1.8303  2.5429
  333SOL     OW 6835   4.366   9.285  10.675 -0.4007  0.0148  0.0763
  333SOL    HW1 6836   4.443   9.337  10.697  0.0757 -0.6313 -0.0607
  333SOL    HW2 6837   4.307   9.298  10.749  0.2843 -0.3528  0.7006
  334SOL     OW 6838   6.227   9.333   0.205 -0.0137  0.1953 -0.1241
  334SOL    HW1 6839   6.206   9.286   0.285 -0.0322  0.1175 -0.1748
  334SOL    HW2 6840   6.321   9.320   0.193  0.1745  0.9855  0.3892
  335SOL     OW 6841   2.658   1.064   5.955 -0.6524  0.6420  0.8622
  335SOL    HW1 6842   2.577   1.083   6.002 -2.1928 -1.4736 -0.6927
  335SOL    HW2 6843   2.652   0.970   5.935  0.7257  1.0487 -1.9309
  336SOL     OW 6844  11.675  11.299  12.252  0.5027 -0.1914 -0.6504
  336SOL    HW1 6845  11.707  11.386  12.227  0.4788 -0.5292 -1.9516
  336SOL    HW2 6846  11.582  11.301  12.231  0.0885  0.0626  1.0725
  337SOL     OW 6847   0.143   9.385   6.605 -0.1371  0.3235  0.3179
  337SOL    HW1 6848   0.082   9.312   6.618  0.0911 -0.0130 -0.4591
  337SOL    HW2 6849   0.229   9.344   6.605 -0.1097 -0.0512 -3.8489
  338SOL     OW 6850   0.576   5.021  11.778 -0.0673  0.1407 -0.0582
  338SOL    HW1 6851   0.526   4.942  11.759 -0.2945  0.4493 -0.7880
  338SOL    HW2 6852   0.554   5.043  11.868  0.2158 -0.7857  0.2466
  339SOL     OW 6853   2.636   4.895   0.055 -0.1680  0.3215 -0.5506
  339SOL    HW1 6854   2.648   4.857   0.143 -1.7282 -1.0330 -0.8696
  339SOL    HW2 6855   2.549   4.865   0.028 -0.2767  1.8349 -2.0292
  340SOL     OW 6856   7.729   0.082   6.947 -0.4272  0.4308  0.3141
  340SOL    HW1 6857   7.635   0.099   6.953 -0.6956 -0.7280 -0.3731
  340SOL    HW2 6858   7.747   0.081   6.853  0.6590  2.4868  0.4201
  341SOL     OW 6859   4.137  11.938   5.611  0.2249 -0.4822  0.7922
  341SOL    HW1 6860   4.165  12.014   5.661 -0.3466 -0.1006  0.5400
  341SOL    HW2 6861   4.054  11.912   5.651 -0.1461 -0.2867  0.1731
  342SOL     OW 6862   9.206   8.645   6.267  0.2032  0.9382 -0.3954
  342SOL    HW1 6863   9.219   8.571   6.327  0.9474  1.3592 -0.0286
  342SOL    HW2 6864   9.128   8.689   6.300  1.9375  2.5937  1.8116
  343SOL     OW 6865   9.608  10.500  11.785 -0.4793  0.0019 -0.1991
  343SOL    HW1 6866   9.526  10.459  11.756  0.1845 -1.6862  0.1975
  343SOL    HW2 6867   9.580  10.563  11.852 -1.3964 -1.2466  0.6447
  344SOL     OW 6868   0.104   1.652  11.687 -0.3692  0.4242  0.4884
  344SOL    HW1 6869   0.165   1.724  11.672 -0.0300  0.0308 -0.0438
  344SOL    HW2 6870   0.035   1.691  11.740 -0.4041  1.2547 -0.1390
  345SOL     OW 6871   6.171   5.920   2.723 -0.1706 -0.2736 -0.0736
  345SOL    HW1 6872   6.163   5.932   2.629  0.7394  0.3537 -0.0796
  345SOL    HW2 6873   6.084   5.942   2.757 -0.0245  1.2949 -0.6110
  346SOL     OW 6874   1.535   3.688   2.449  0.3821 -0.5436 -0.1086
  346SOL    HW1 6875   1.562   3.770   2.409 -0.5803  0.0800  0.4785
  346SOL    HW2 6876   1.444   3.703   2.476  1.1029 -0.7595  2.7233
  347SOL     OW 6877   2.415   4.472   0.807  0.1940 -0.0507  0.1469
  347SOL    HW1 6878   2.507   4.470   0.780  0.0892  2.7562 -0.7080
  347SOL    HW2 6879   2.373   4.405   0.753  1.7241 -1.6278  0.7857
  348SOL     OW 6880   0.383   9.642  10.750 -0.1729  0.6217  0.5056
  348SOL    HW1 6881   0.476   9.662  10.759  0.5894 -2.2644  0.3001
  348SOL    HW2 6882   0.339   9.704  10.808  1.9707  1.4004  1.3962
  349SOL     OW 6883   7.243   8.518   8.578 -0.6159  0.4158  0.2459
  349SOL    HW1 6884   7.279   8.569   8.651 -1.1978  1.2942 -0.0614
  349SOL    HW2 6885   7.320   8.477   8.537 -0.0753  1.4104  0.2309
  350SOL     OW 6886   4.627   5.457   6.885  0.0496  0.1232  0.0237
  350SOL    HW1 6887   4.566   5.494   6.821 -0.5257  0.3689  0.7006
  350SOL    HW2 6888   4.713   5.465   6.844 -0.3747 -0.3669 -1.0161
  351SOL     OW 6889   7.982   3.057  11.799 -0.3589 -0.5139 -0.1082
  351SOL    HW1 6890   7.991   2.962  11.795 -1.3909 -0.6733  1.0056
  351SOL    HW2 6891   7.889   3.072  11.811 -0.1616  0.6385  0.0919
  352SOL     OW 6892   4.976   9.936   5.322 -0.0505  0.1392 -0.2221
  352SOL    HW1 6893   4.906   9.873   5.341  0.0283 -0.2347 -1.1013
  352SOL    HW2 6894   4.942  10.020   5.350 -1.3004  0.1311 -1.6280
  353SOL     OW 6895   6.076   8.935   4.672  0.4128  0.0355 -0.2265
  353SOL    HW1 6896   6.139   8.912   4.604 -0.5183 -0.9532 -0.7832
  353SOL    HW2 6897   6.074   8.859   4.730  1.8459  1.2069  1.4626
  354SOL     OW 6898   6.684  10.499   2.367  0.0212 -0.0252  0.3735
  354SOL    HW1 6899   6.628  10.528   2.294  2.1888  0.6671 -1.1339
  354SOL    HW2 6900   6.623  10.469   2.434 -2.1323  0.7260 -1.1360
  355SOL     OW 6901   4.908   6.745   1.709  0.2045 -0.2303 -0.0741
  355SOL    HW1 6902   4.967   6.761   1.782  1.1549 -0.3120 -0.7998
  355SOL    HW2 6903   4.916   6.823   1.654 -2.0545  0.7630  0.8824
  356SOL     OW 6904  12.035   2.836  11.419 -0.2557  0.3056 -0.4039
  356SOL    HW1 6905  12.012   2.856  11.329 -1.9232 -2.4878 -0.7337
  356SOL    HW2 6906  12.127   2.809  11.415 -0.0346  1.1170 -1.0671
  357SOL     OW 6907   0.964   3.338   4.041  0.5929 -0.0183 -0.2282
  357SOL    HW1 6908   0.911   3.400   3.992 -0.3427  0.3017  1.1382
  357SOL    HW2 6909   0.951   3.254   3.997 -0.4464  0.2100 -0.3636
  358SOL     OW 6910   1.752   4.808   4.719  0.3808  0.3583  0.2759
  358SOL    HW1 6911   1.682   4.872   4.725  0.9005  0.9240  0.3737
  358SOL    HW2 6912   1.802   4.818   4.800 -1.2667 -2.2618  1.7803
  359SOL     OW 6913   7.825   1.603   7.806  0.4728 -0.3554 -0.5779
  359SOL    HW1 6914   7.875   1.528   7.837 -0.9124 -1.2746 -0.4842
  359SOL    HW2 6915   7.742   1.566   7.776  0.8983  0.7340 -3.4264
  360SOL     OW 6916   4.984   4.435   5.689 -0.2802  0.6641 -0.1853
  360SOL    HW1 6917   4.930   4.510   5.714  1.7196  1.9103  0.6112
  360SOL    HW2 6918   5.065   4.445   5.739  0.8057 -1.0241 -1.4634
  361SOL     OW 6919   6.894   7.012   8.641  0.2610  0.1522  0.9051
  361SOL    HW1 6920   6.988   6.992   8.646  0.2613  0.2930  1.7612
  361SOL    HW2 6921   6.884   7.062   8.560  0.9641  0.3256  0.9147
  362SOL     OW 6922   4.406   0.589   7.688  0.4639  0.3589 -0.4709
  362SOL    HW1 6923   4.446   0.662   7.640  1.0089 -0.2090 -0.8945
  362SOL    HW2 6924   4.454   0.584   7.770  0.4131  0.4902 -0.4332
  363SOL     OW 6925   1.848   3.881   9.036  0.0248  0.4054 -0.1497
  363SOL    HW1 6926   1.936   3.915   9.053 -0.2051  0.8729  0.1568
  363SOL    HW2 6927   1.805   3.950   8.986  0.4840 -0.6948 -2.1554
  364SOL     OW 6928   5.055   9.409   3.201  0.5257 -0.6340 -0.4493
  364SOL    HW1 6929   5.144   9.417   3.168 -0.0910  0.8535 -1.9032
  364SOL    HW2 6930   5.052   9.465   3.278  0.9836 -1.0910 -0.1018
  365SOL     OW 6931  12.269   7.796  12.276  0.3178  0.1123 -0.1854
  365SOL    HW1 6932  12.187   7.808  12.323  0.2701  0.7942 -0.4269
  365SOL    HW2 6933  12.291   7.704  12.287 -1.8983 -0.7893 -2.3828
  366SOL     OW 6934   8.511  11.231   2.603  0.6943 -0.2054  0.1114
  366SOL    HW1 6935   8.483  11.261   2.516  1.4782 -0.1874 -0.1434
  366SOL    HW2 6936   8.429  11.221   2.652  0.1856 -0.8219 -0.8170
  367SOL     OW 6937   2.500   0.485   5.851 -0.5504 -0.1460 -0.2944
  367SOL    HW1 6938   2.461   0.405   5.816 -0.6826  0.0403 -0.5748
  367SOL    HW2 6939   2.468   0.554   5.793 -0.1380  0.0622 -0.2740
  368SOL     OW 6940   1.051  11.346   3.310 -0.2672 -0.7266  0.0047
  368SOL    HW1 6941   1.124  11.340   3.371 -0.8823 -4.7836  0.5971
  368SOL    HW2 6942   0.991  11.409   3.350  1.1076 -0.3174  1.5064
  369SOL     OW 6943   3.269  10.351   6.083 -0.5660  0.1855  0.3072
  369SOL    HW1 6944   3.298  10.409   6.153  0.2294 -0.1871  0.3066
  369SOL    HW2 6945   3.325  10.273   6.092 -1.0751 -0.2442 -0.1768
  370SOL     OW 6946   2.469   0.864   2.422 -0.3913 -0.3119  0.2704
  370SOL    HW1 6947   2.538   0.854   2.356 -1.2160  0.2666 -0.7193
  370SOL    HW2 6948   2.503   0.821   2.500  1.7155  1.1888  0.2758
  371SOL     OW 6949   6.610   4.715   1.514  0.3386 -0.1879 -0.1006
  371SOL    HW1 6950   6.553   4.690   1.587  0.7496  2.8879  1.4508
  371SOL    HW2 6951   6.685   4.657   1.522 -1.2968 -2.5119 -0.5590
  372SOL     OW 6952   8.769  11.261   5.941 -0.0350 -0.0172  0.4595
  372SOL    HW1 6953   8.860  11.285   5.956  0.3736 -1.4625  0.4745
  372SOL    HW2 6954   8.754  11.279   5.849  0.2365  0.3156  0.4778
  373SOL     OW 6955  11.602   1.932  12.061 -0.4075  0.2801  0.4467
  373SOL    HW1 6956  11.683   1.898  12.023  1.1553  2.7900  1.2265
  373SOL    HW2 6957  11.532   1.883  12.018  1.5007 -1.8220 -0.4410
  374SOL     OW 6958   4.897   9.812   2.873  0.5901  0.4418 -0.3686
  374SOL    HW1 6959   4.941   9.850   2.797 -0.3106  1.5917 -0.3446
  374SOL    HW2 6960   4.811   9.853   2.874  0.4637  0.1974  1.0907
  375SOL     OW 6961  10.235   9.072  12.321  0.3964 -0.2533  0.0361
  375SOL    HW1 6962  10.280   9.116  12.393  0.0682 -0.8680  0.6356
  375SOL    HW2 6963  10.144   9.101  12.329  0.8820  2.2356 -2.1262
  376SOL     OW 6964   0.597  11.176   7.497  0.7394  0.1173 -0.0469
  376SOL    HW1 6965   0.668  11.231   7.530  0.1780  0.0900  1.2828
  376SOL    HW2 6966   0.517  11.217   7.532  0.3285 -1.8070  1.4334
  377SOL     OW 6967   9.688   3.516   5.991  0.3290 -0.2652 -0.4979
  377SOL    HW1 6968   9.601   3.475   5.991 -0.1974  0.7964 -0.7033
  377SOL    HW2 6969   9.669   3.610   5.992  1.4719 -0.0110 -1.1965
  378SOL     OW 6970   9.671   2.357   7.384  0.8130 -0.1347  0.2217
  378SOL    HW1 6971   9.744   2.388   7.331  0.7446  2.1949  1.3506
  378SOL    HW2 6972   9.598   2.414   7.361  0.3620 -0.0747  1.6973
  379SOL     OW 6973  10.714   5.133   4.567  0.0945 -0.8839  0.2316
  379SOL    HW1 6974  10.726   5.228   4.566 -2.2930 -0.5128  1.1198
  379SOL    HW2 6975  10.795   5.099   4.529  1.5261  1.4303  0.9815
  380SOL     OW 6976   4.152   4.215   1.343 -0.3061  0.2654 -0.5464
  380SOL    HW1 6977   4.171   4.215   1.437 -0.2451 -4.2851 -0.3468
  380SOL    HW2 6978   4.229   4.256   1.303  0.3334  0.9380  1.2723
  381SOL     OW 6979   6.016   7.823   5.677 -0.1867  0.4719  0.0619
  381SOL    HW1 6980   6.048   7.904   5.717  0.1112 -0.1882  1.1914
  381SOL    HW2 6981   6.013   7.843   5.583 -0.6024  1.9538  0.3619
  382SOL     OW 6982   7.549   2.916  11.066 -0.1608 -0.2774  1.1859
  382SOL    HW1 6983   7.533   2.909  11.160 -1.4564 -0.7256  0.9594
  382SOL    HW2 6984   7.492   2.849  11.027 -1.1325  1.1787 -0.0363
  383SOL     OW 6985   6.508  11.209   4.792 -0.4115  0.2455  0.2848
  383SOL    HW1 6986   6.556  11.250   4.864 -1.6181 -0.1765  1.3818
  383SOL    HW2 6987   6.571  11.148   4.753  0.0086 -0.1682  1.5687
  384SOL     OW 6988  12.308   7.153   9.270 -0.3329 -0.2968  0.1282
  384SOL    HW1 6989  12.233   7.097   9.252  0.3249 -1.9058  2.0425
  384SOL    HW2 6990  12.288   7.235   9.225 -2.3883 -1.2786 -0.8787
  385SOL     OW 6991   1.743   4.150   8.381  0.1677  0.1646 -0.2834
  385SOL    HW1 6992   1.726   4.242   8.362 -1.2071  0.0619  0.3292
  385SOL    HW2 6993   1.700   4.102   8.309 -0.7985 -0.0416  0.4031
  386SOL     OW 6994   6.045   9.351  11.275  0.1750  0.2587  0.3376
  386SOL    HW1 6995   6.084   9.323  11.357  1.1218  0.5558  0.0008
  386SOL    HW2 6996   5.979   9.284  11.255  0.2621 -0.0549  1.0964
  387SOL     OW 6997   3.564   1.839   9.010  0.1808  0.0368 -0.0717
  387SOL    HW1 6998   3.660   1.841   9.012  0.1904  2.4005  0.6827
  387SOL    HW2 6999   3.538   1.844   9.102 -0.6151  1.1927 -0.3387
  388SOL     OW 7000   2.901   1.438   2.478 -0.0281 -0.2023  0.0608
  388SOL    HW1 7001   2.918   1.433   2.572 -0.7972  0.3789  0.2412
  388SOL    HW2 7002   2.953   1.512   2.448  0.7072 -0.7740 -0.0927
  389SOL     OW 7003   4.923   1.833  10.151 -0.2722  0.1434 -0.7428
  389SOL    HW1 7004   4.904   1.764  10.215  1.2117  2.2857  2.2582
  389SOL    HW2 7005   4.840   1.878  10.138 -0.0774  1.7351  2.4996
  390SOL     OW 7006   6.669   9.676   0.942  0.1293  0.2100 -0.3558
  390SOL    HW1 7007   6.662   9.621   0.864 -0.3571 -1.0446  0.5320
  390SOL    HW2 7008   6.674   9.614   1.014  0.3222  1.3453  0.6392
  391SOL     OW 7009   7.687  11.656   0.951 -0.3280  0.6247 -0.0506
  391SOL    HW1 7010   7.704  11.594   1.022  1.7585  1.1940 -0.0018
  391SOL    HW2 7011   7.709  11.609   0.871 -2.2389  0.1428 -0.3600
  392SOL     OW 7012   3.554   6.508   4.095 -0.4099  0.5969 -0.4729
  392SOL    HW1 7013   3.492   6.581   4.100 -2.7502 -1.2285 -1.0229
  392SOL    HW2 7014   3.553   6.483   4.003 -0.1824 -0.5540 -0.1736
  393SOL     OW 7015   6.656   7.627   7.293 -0.3092 -0.2663  0.8718
  393SOL    HW1 7016   6.603   7.592   7.364 -0.6468 -1.5976 -0.0014
  393SOL    HW2 7017   6.739   7.651   7.334 -0.6090 -0.7047  1.7578
  394SOL     OW 7018   3.425   7.658  11.314  0.1861  0.7026 -0.0260
  394SOL    HW1 7019   3.521   7.649  11.315  0.2487  1.2355  1.5061
  394SOL    HW2 7020   3.406   7.716  11.388 -1.4648 -0.9069  0.8893
  395SOL     OW 7021   3.538   3.083   9.077  0.0254 -0.4016  0.5585
  395SOL    HW1 7022   3.550   3.005   9.131  2.9656  0.8835  2.0405
  395SOL    HW2 7023   3.598   3.072   9.004 -1.6199 -0.7168 -0.7988
  396SOL     OW 7024  10.655   5.110   6.085  0.2767 -0.0331 -0.1087
  396SOL    HW1 7025  10.642   5.018   6.061  0.7480 -0.2954  0.5762
  396SOL    HW2 7026  10.568   5.143   6.104  0.2562 -0.8414  1.3285
  397SOL     OW 7027  12.190  11.061   2.014  0.3565  0.6396  0.8102
  397SOL    HW1 7028  12.211  11.066   1.921 -1.0833 -3.0351  0.1364
  397SOL    HW2 7029  12.163  11.150   2.038 -1.1605  1.2921 -2.7950
  398SOL     OW 7030   6.101   6.360   3.205  0.3982 -0.0847 -0.3024
  398SOL    HW1 7031   6.087   6.371   3.299 -2.5585 -1.2639 -0.4734
  398SOL    HW2 7032   6.028   6.407   3.165  1.5648  0.3316 -2.0470
  399SOL     OW 7033   3.878   3.468   8.137 -0.2671 -0.0022  0.2395
  399SOL    HW1 7034   3.859   3.562   8.132 -2.9831 -0.5273 -0.8195
  399SOL    HW2 7035   3.958   3.457   8.086 -0.6717  1.5826 -0.8056
  400SOL     OW 7036   9.246   6.598   4.009  0.2378  0.8110 -0.4394
  400SOL    HW1 7037   9.192   6.523   4.035 -0.3683  0.1080 -3.3795
  400SOL    HW2 7038   9.223   6.667   4.071 -2.5248 -0.0913 -0.3549
  401SOL     OW 7039   9.698  10.838   5.310 -0.2002 -0.7855 -0.3717
  401SOL    HW1 7040   9.733  10.884   5.387 -0.1040 -0.4240 -0.6309
  401SOL    HW2 7041   9.723  10.747   5.324 -0.9092 -0.8711  0.4418
  402SOL     OW 7042   9.472   0.710   1.351 -0.3209  0.0614 -0.3423
  402SOL    HW1 7043   9.544   0.647   1.342 -0.1734  0.1869 -0.0597
  402SOL    HW2 7044   9.505   0.774   1.415 -0.2994  0.6554 -0.9416
  403SOL     OW 7045   6.702   6.093   9.400 -0.1762 -0.4777  0.0683
  403SOL    HW1 7046   6.715   6.006   9.361  0.5932 -0.8367  1.0617
  403SOL    HW2 7047   6.617   6.122   9.367  0.4511 -0.7242 -1.8899
  404SOL     OW 7048   3.027   2.253  11.695  0.4929 -0.3196 -0.2794
  404SOL    HW1 7049   3.057   2.324  11.638 -2.3908  0.4234 -1.0225
  404SOL    HW2 7050   3.073   2.176  11.662  0.5992  0.4903 -2.1885
  405SOL     OW 7051  11.803   6.359  11.862 -0.1192  0.0194 -0.0768
  405SOL    HW1 7052  11.749   6.430  11.898  0.3879  0.2954  0.1632
  405SOL    HW2 7053  11.744   6.284  11.856 -0.7122  0.5103 -0.4959
  406SOL     OW 7054   5.547  11.775  10.324 -0.2493 -0.0136  0.1853
  406SOL    HW1 7055   5.510  11.806  10.406 -0.1274  1.7066 -0.3651
  406SOL    HW2 7056   5.603  11.847  10.294  1.8538 -1.6425 -0.0829
  407SOL     OW 7057   6.641   2.665   5.499  0.8153 -0.1682 -0.6843
  407SOL    HW1 7058   6.727   2.704   5.513  1.3255 -1.8461  1.2363
  407SOL    HW2 7059   6.580   2.732   5.529  1.5256  0.3642 -0.3881
  408SOL     OW 7060   8.541   5.268   1.284 -0.1552 -0.3021  0.0988
  408SOL    HW1 7061   8.605   5.242   1.217  1.4488  0.6857  1.1727
  408SOL    HW2 7062   8.471   5.311   1.236  0.9187  0.3074 -0.9762
  409SOL     OW 7063  10.493   2.680  11.168 -0.2346  0.3757  0.4366
  409SOL    HW1 7064  10.548   2.757  11.186 -1.9032  1.9737 -0.9227
  409SOL    HW2 7065  10.549   2.624  11.114  1.3478  0.1077  2.2335
  410SOL     OW 7066   2.268   4.055   5.512 -0.1161 -0.5071 -0.2646
  410SOL    HW1 7067   2.339   4.110   5.544 -1.0868 -0.2392  1.5883
  410SOL    HW2 7068   2.208   4.048   5.586 -1.1140 -2.2562 -1.1654
  411SOL     OW 7069  10.745   2.407   4.448 -0.0379 -0.3432 -0.0306
  411SOL    HW1 7070  10.713   2.490   4.414  0.6329  0.3893  1.0514
  411SOL    HW2 7071  10.669   2.349   4.447 -0.3209  0.0008 -1.5796
  412SOL     OW 7072   3.526   0.184  11.467  0.4304  0.1371 -0.0403
  412SOL    HW1 7073   3.494   0.096  11.490  0.9802 -0.1421 -0.3165
  412SOL    HW2 7074   3.447   0.238  11.463  0.0900 -0.3373  0.1753
  413SOL     OW 7075   6.091   4.873   7.599 -0.2896 -0.2479 -0.3742
  413SOL    HW1 7076   6.005   4.872   7.557  0.2183  0.1072 -1.4644
  413SOL    HW2 7077   6.126   4.960   7.578  0.5085 -0.5445 -0.2828
  414SOL     OW 7078   6.582   9.988   8.597 -0.0861 -0.0435  0.6602
  414SOL    HW1 7079   6.523  10.015   8.667 -2.5057  0.6448 -1.4643
  414SOL    HW2 7080   6.613  10.071   8.559 -1.1555 -0.3042 -0.8667
  415SOL     OW 7081   8.886   1.128  12.106 -0.5570 -0.6165  0.3196
  415SOL    HW1 7082   8.919   1.135  12.017  2.0572 -2.2529  1.0478
  415SOL    HW2 7083   8.886   1.218  12.139 -2.4482  0.1370 -1.5342
  416SOL     OW 7084   6.134   4.128   2.297  0.0542  0.2576  0.1002
  416SOL    HW1 7085   6.208   4.189   2.301 -0.6440  1.0666  2.1354
  416SOL    HW2 7086   6.116   4.117   2.204  3.1838 -0.5761 -0.5236
  417SOL     OW 7087   2.105   7.678   3.519 -0.1922 -0.0990 -0.2397
  417SOL    HW1 7088   2.054   7.682   3.438  1.6036  0.3670 -1.4129
  417SOL    HW2 7089   2.043   7.646   3.585 -1.8800  0.1268 -1.6406
  418SOL     OW 7090   0.965   4.752  10.603  0.5957 -0.5197 -0.0384
  418SOL    HW1 7091   0.941   4.669  10.562  1.3423 -0.1806 -1.2132
  418SOL    HW2 7092   0.944   4.740  10.696  1.6133 -2.3674 -0.0107
  419SOL     OW 7093  11.093  11.077   8.653 -0.5076  0.0309 -0.8138
  419SOL    HW1 7094  11.178  11.046   8.621 -0.5647  1.0538 -2.0571
  419SOL    HW2 7095  11.065  11.011   8.715  2.0943  0.5876  1.1436
  420SOL     OW 7096  11.045   7.416  11.352  0.4815 -0.3704 -0.2052
  420SOL    HW1 7097  10.964   7.389  11.394  0.9264 -0.1074  0.8737
  420SOL    HW2 7098  11.088   7.473  11.417  1.0762  0.2686 -1.1264
  421SOL     OW 7099  11.507   5.303   5.402  0.5799 -0.0599  0.0755
  421SOL    HW1 7100  11.479   5.373   5.343  1.0456 -0.8211 -1.0620
  421SOL    HW2 7101  11.558   5.348   5.470  0.5946  0.7353 -0.4506
  422SOL     OW 7102  11.062  11.269   3.162 -0.1127  0.8216 -0.2542
  422SOL    HW1 7103  11.126  11.306   3.101  0.9728  0.7219  0.8032
  422SOL    HW2 7104  11.082  11.310   3.246 -0.2239 -0.6254  0.4997
  423SOL     OW 7105   7.282   5.448   8.318  0.1435 -0.4375 -0.2672
  423SOL    HW1 7106   7.359   5.398   8.294  0.4067  0.5873 -1.7645
  423SOL    HW2 7107   7.240   5.469   8.234 -0.9398  0.2942  0.4202
  424SOL     OW 7108   2.747   0.766   8.737  0.0103  0.0234  0.6837
  424SOL    HW1 7109   2.828   0.753   8.687 -0.1569 -0.1606  0.4567
  424SOL    HW2 7110   2.761   0.847   8.785 -0.6719  1.4137 -1.3541
  425SOL     OW 7111   5.520   5.952   5.499 -0.0354  0.3930 -1.0990
  425SOL    HW1 7112   5.526   6.014   5.426 -0.8780  1.6809 -0.1123
  425SOL    HW2 7113   5.501   6.006   5.575  0.0453 -1.0086 -0.0444
  426SOL     OW 7114   5.779   0.811   7.912 -0.2573  0.4379  0.5152
  426SOL    HW1 7115   5.771   0.890   7.967  0.5794 -0.0559  1.3858
  426SOL    HW2 7116   5.794   0.740   7.975  1.4926 -0.0382 -0.3668
  427SOL     OW 7117   6.129   5.701   8.623 -0.0997  0.2432 -0.6991
  427SOL    HW1 7118   6.112   5.780   8.675 -2.8209 -0.2469 -0.7219
  427SOL    HW2 7119   6.224   5.699   8.613  0.3464  1.6404  2.2463
  428SOL     OW 7120   9.212   4.479   2.987  0.0653 -0.4494  0.1450
  428SOL    HW1 7121   9.189   4.530   2.909  1.3943 -1.6682 -1.1038
  428SOL    HW2 7122   9.129   4.440   3.015 -0.2894 -0.7754 -1.2787
  429SOL     OW 7123   4.163   9.311   4.646  0.0769 -0.0589  0.0363
  429SOL    HW1 7124   4.156   9.406   4.643  0.7616  0.0472  1.3107
  429SOL    HW2 7125   4.257   9.294   4.654 -0.1821 -0.7243  2.4845
  430SOL     OW 7126   4.449  10.488   4.910 -0.3868  0.0519  0.7689
  430SOL    HW1 7127   4.479  10.475   5.000 -0.6150 -1.7523  0.6228
  430SOL    HW2 7128   4.355  10.472   4.914 -0.2978 -0.7187  0.1138
  431SOL     OW 7129   4.238   2.481   3.652 -0.2646  0.0295 -0.5035
  431SOL    HW1 7130   4.148   2.510   3.665 -0.7163 -1.2225 -0.6613
  431SOL    HW2 7131   4.264   2.446   3.738  0.0202  0.2535 -0.4979
  432SOL     OW 7132  12.312   9.168  11.407 -0.4519 -0.0670 -0.4111
  432SOL    HW1 7133  12.373   9.097  11.425 -1.0266 -0.7109 -0.9281
  432SOL    HW2 7134  12.303   9.169  11.311  1.9866  2.7973 -0.7671
  433SOL     OW 7135   2.298  11.958   8.956 -0.2155 -0.1503  0.2881
  433SOL    HW1 7136   2.315  11.992   8.868  1.7693 -3.6828 -0.9210
  433SOL    HW2 7137   2.384  11.955   8.998 -0.8241 -0.4789  1.5754
  434SOL     OW 7138   3.196   1.176   5.404 -0.1094  0.2554 -0.0108
  434SOL    HW1 7139   3.100   1.175   5.396 -0.2335 -1.1168  1.1335
  434SOL    HW2 7140   3.213   1.233   5.479 -0.1571 -0.7413  0.7754
  435SOL     OW 7141  11.718   6.371   5.564  0.0678  0.0057  0.0455
  435SOL    HW1 7142  11.706   6.453   5.515  0.1271 -0.1676 -0.2664
  435SOL    HW2 7143  11.629   6.337   5.574  0.0914 -0.1605 -0.2984
  436SOL     OW 7144   1.758   0.274   1.666  0.1201  0.4624 -1.0072
  436SOL    HW1 7145   1.828   0.298   1.605 -0.7074  0.2200 -2.0918
  436SOL    HW2 7146   1.794   0.290   1.752  1.2704  0.9968 -1.5716
  437SOL     OW 7147   5.063  10.548   5.665 -0.0174 -0.1629 -0.6559
  437SOL    HW1 7148   5.046  10.457   5.643 -0.5835 -0.3436  0.4733
  437SOL    HW2 7149   4.981  10.594   5.646 -0.1264 -0.1122 -0.0836
  438SOL     OW 7150   1.293   0.137   1.274  0.2232 -0.1954  0.0141
  438SOL    HW1 7151   1.330   0.059   1.316 -0.0273  0.2246  1.0437
  438SOL    HW2 7152   1.349   0.209   1.302 -1.2348  0.4429  1.5477
  439SOL     OW 7153   5.054   5.944   7.651  0.3366 -0.3962  0.0178
  439SOL    HW1 7154   5.047   6.031   7.691  0.5054  0.2759 -1.3438
  439SOL    HW2 7155   5.146   5.936   7.626 -0.0185 -0.1750 -1.4942
  440SOL     OW 7156   0.880   2.048  10.708 -0.0888 -0.0118 -1.2625
  440SOL    HW1 7157   0.843   1.959  10.706  0.3913 -0.3447  1.5359
  440SOL    HW2 7158   0.941   2.047  10.781 -0.6735  2.8768 -0.6160
  441SOL     OW 7159   0.844   8.829   6.346 -0.2710  0.5930 -0.6372
  441SOL    HW1 7160   0.838   8.749   6.398  2.6437  0.0034 -0.9929
  441SOL    HW2 7161   0.840   8.799   6.255  1.7949  0.6454 -0.7917
  442SOL     OW 7162   0.032   8.702  10.643  0.2908 -0.1797  0.2887
  442SOL    HW1 7163   0.060   8.791  10.666 -0.4099  0.1072  0.0608
  442SOL    HW2 7164   0.109   8.662  10.604  0.5795  0.3731  0.2808
  443SOL     OW 7165   4.427   0.562   3.905  0.0349 -0.1166 -0.3191
  443SOL    HW1 7166   4.481   0.616   3.846 -1.1916  0.9645 -0.4871
  443SOL    HW2 7167   4.343   0.553   3.859 -0.5754 -0.1636  0.7829
  444SOL     OW 7168   0.755   4.576   7.394  0.3951  0.5620 -0.0624
  444SOL    HW1 7169   0.804   4.619   7.464  2.0975  0.0765 -0.8798
  444SOL    HW2 7170   0.791   4.613   7.314 -0.9523  0.5271 -0.7021
  445SOL     OW 7171   4.365   8.218   1.665 -0.0954  0.1894 -0.4908
  445SOL    HW1 7172   4.388   8.135   1.622  1.0416 -0.2109  0.8345
  445SOL    HW2 7173   4.411   8.285   1.614  2.2167 -0.3868  0.6768
  446SOL     OW 7174   4.067   0.196  10.754  0.2293 -0.3099 -0.4476
  446SOL    HW1 7175   4.028   0.197  10.667 -1.1248 -0.2171  0.1347
  446SOL    HW2 7176   4.138   0.132  10.747 -0.6436 -1.2309 -1.2956
  447SOL     OW 7177   8.565   3.804   1.948  0.2308  0.0926 -0.0483
  447SOL    HW1 7178   8.584   3.770   2.035 -0.1819 -0.2423 -0.0851
  447SOL    HW2 7179   8.542   3.896   1.962 -0.8630 -0.2252  0.3248
  448SOL     OW 7180   5.845  10.982   4.602 -0.9993  0.0013 -0.4809
  448SOL    HW1 7181   5.844  10.966   4.508  0.9120  0.6356 -0.6502
  448SOL    HW2 7182   5.911  10.922   4.637  0.2177  1.5584  0.0331
  449SOL     OW 7183   4.120   0.513   5.941  0.3236  0.2416  0.0100
  449SOL    HW1 7184   4.107   0.432   5.991 -0.6668  1.2042  1.4017
  449SOL    HW2 7185   4.042   0.520   5.886  0.0871  0.5507  0.3735
  450SOL     OW 7186   3.257   3.659   0.189  0.2575  0.1468  0.4022
  450SOL    HW1 7187   3.293   3.583   0.143  0.1454  0.1087  0.3774
  450SOL    HW2 7188   3.199   3.621   0.255  1.0201  0.1660  1.1042
  451SOL     OW 7189   8.319   0.958   3.577 -0.3180 -0.5058  0.6801
  451SOL    HW1 7190   8.253   0.940   3.644  0.7351  1.5783  2.3866
  451SOL    HW2 7191   8.319   1.053   3.567  0.8045 -0.6375 -0.9977
  452SOL     OW 7192   7.249   9.924   1.364  0.2269 -0.3465  0.8303
  452SOL    HW1 7193   7.282   9.877   1.288  1.4702  0.7499  0.6776
  452SOL    HW2 7194   7.167   9.878   1.386  1.5900 -2.8999  0.9885
  453SOL     OW 7195   3.702   7.112   1.505 -0.6105 -0.8348  0.0254
  453SOL    HW1 7196   3.630   7.065   1.546 -0.9183 -0.7894 -0.4620
  453SOL    HW2 7197   3.778   7.056   1.519 -0.7935 -1.0148  0.2957
  454SOL     OW 7198   3.902   8.757   5.342  0.0817  0.1951  0.3685
  454SOL    HW1 7199   3.832   8.698   5.313  0.2932 -0.5774  1.3621
  454SOL    HW2 7200   3.961   8.763   5.268 -0.8175  0.5316 -0.3431
  455SOL     OW 7201   8.177   2.734   3.098  0.0751 -0.2913  0.1440
  455SOL    HW1 7202   8.264   2.695   3.090  0.1314  0.2069 -2.6806
  455SOL    HW2 7203   8.194   2.828   3.107 -0.1592 -0.3038  0.7395
  456SOL     OW 7204   7.949   7.464   4.863 -0.8905  0.6773  0.5407
  456SOL    HW1 7205   7.976   7.496   4.777 -1.0383  0.0959  0.2713
  456SOL    HW2 7206   7.910   7.378   4.846  0.6282 -0.2150  1.3776
  457SOL     OW 7207   1.832   9.113   9.772  0.1508 -0.0020 -0.2009
  457SOL    HW1 7208   1.893   9.185   9.760 -2.7562  2.3035 -2.8596
  457SOL    HW2 7209   1.857   9.049   9.705 -0.4908  1.1491 -1.6055
  458SOL     OW 7210   1.303   3.043  11.999 -0.2093  0.2144 -0.1850
  458SOL    HW1 7211   1.383   3.093  12.015 -0.7362  0.2935  2.7671
  458SOL    HW2 7212   1.328   2.976  11.936  1.3547  2.1447 -1.7280
  459SOL     OW 7213   9.768   6.999   1.210  0.0722  0.5742 -0.1455
  459SOL    HW1 7214   9.730   7.085   1.190 -1.2970  0.1065  0.2926
  459SOL    HW2 7215   9.767   6.995   1.306  1.3826  0.5812 -0.1115
  460SOL     OW 7216   2.438   4.193   8.192  0.2868 -0.1321  0.4040
  460SOL    HW1 7217   2.518   4.146   8.219  0.4649  0.1189  0.3122
  460SOL    HW2 7218   2.370   4.125   8.192  1.1763 -1.1883 -2.9740
  461SOL     OW 7219   4.202   3.668   5.900 -0.2941  0.1319 -0.4236
  461SOL    HW1 7220   4.192   3.756   5.865  2.1977  2.0669  3.0022
  461SOL    HW2 7221   4.295   3.662   5.923 -0.8625 -2.4178  1.7582
  462SOL     OW 7222   4.376   0.951   1.490  0.0757 -0.2034  0.0221
  462SOL    HW1 7223   4.437   1.024   1.481  1.6899 -1.6709 -1.8694
  462SOL    HW2 7224   4.385   0.923   1.581 -1.4468  2.5568  1.1539
  463SOL     OW 7225   1.216   0.163  11.225 -0.2005  0.7141 -0.2004
  463SOL    HW1 7226   1.168   0.132  11.148  0.3587  0.4695 -0.4549
  463SOL    HW2 7227   1.300   0.194  11.191  0.3638 -0.1074  0.3943
  464SOL     OW 7228   5.548  12.076   3.749  0.0697 -0.1270  0.2623
  464SOL    HW1 7229   5.570  12.000   3.695  0.3253  0.3032 -0.2527
  464SOL    HW2 7230   5.597  12.149   3.710 -1.8141  0.7614 -0.5829
  465SOL     OW 7231   8.688  11.541   5.568  0.4342 -0.1351  0.0863
  465SOL    HW1 7232   8.634  11.615   5.596 -0.0977 -0.3375 -0.3969
  465SOL    HW2 7233   8.636  11.497   5.502  1.9401  0.7310 -1.7752
  466SOL     OW 7234  10.030   1.617   2.631 -0.1811  0.1013 -0.3299
  466SOL    HW1 7235  10.048   1.535   2.584 -0.4508 -0.3687  0.3693
  466SOL    HW2 7236  10.111   1.668   2.621  0.5588 -0.8590  0.4424
  467SOL     OW 7237   0.331  10.053   0.563  0.1008 -0.2657 -0.0316
  467SOL    HW1 7238   0.375  10.028   0.482 -0.0972  0.9753 -0.5415
  467SOL    HW2 7239   0.239  10.065   0.537 -0.0263 -0.1909  0.4515
  468SOL     OW 7240   5.813   1.089   1.553  0.3281 -0.4250 -0.6825
  468SOL    HW1 7241   5.775   1.072   1.467  0.9525  0.4430 -1.1460
  468SOL    HW2 7242   5.907   1.097   1.536  0.4390 -0.1034  0.0591
  469SOL     OW 7243   3.789  11.168   0.455  0.3390 -0.2546 -0.2109
  469SOL    HW1 7244   3.710  11.116   0.440  0.0897 -0.1375  0.6559
  469SOL    HW2 7245   3.814  11.199   0.368  1.4557 -3.1589 -1.0115
  470SOL     OW 7246   7.202   9.796   3.840 -0.7507  0.2552 -0.2341
  470SOL    HW1 7247   7.111   9.815   3.822 -0.7139 -1.0644 -2.0174
  470SOL    HW2 7248   7.239   9.879   3.871 -2.6507  0.6586  1.0871
  471SOL     OW 7249   1.657   9.029   3.509 -0.2352 -0.2053 -0.5117
  471SOL    HW1 7250   1.575   9.024   3.461 -1.3771  1.4228  1.1290
  471SOL    HW2 7251   1.697   9.111   3.481  0.6171 -0.7427 -0.9253
  472SOL     OW 7252   4.302  11.598   4.453 -0.2220 -0.2855 -0.5499
  472SOL    HW1 7253   4.277  11.690   4.448  0.0099 -0.0397  1.7672
  472SOL    HW2 7254   4.376  11.590   4.392  0.5680  1.3676  0.1406
  473SOL     OW 7255   4.690   2.733   6.195  0.3094  0.2214 -1.0706
  473SOL    HW1 7256   4.662   2.778   6.115  0.0062  0.8607 -0.6137
  473SOL    HW2 7257   4.673   2.796   6.265  0.8693 -0.2146 -0.5341
  474SOL     OW 7258  10.642   6.444   8.737  0.3357 -0.2696 -0.2012
  474SOL    HW1 7259  10.724   6.479   8.705  0.9001 -1.4157 -0.0505
  474SOL    HW2 7260  10.626   6.366   8.684  0.0597 -0.8298  0.6773
  475SOL     OW 7261   5.645   3.365   2.609  0.4610 -0.5594 -0.3448
  475SOL    HW1 7262   5.721   3.369   2.550 -0.9497 -1.2206 -2.3315
  475SOL    HW2 7263   5.650   3.446   2.660  1.0377  0.7837 -2.3674
  476SOL     OW 7264   0.553   2.481  10.150  0.6034  0.6868 -0.1352
  476SOL    HW1 7265   0.575   2.424  10.224  3.1913 -1.7924 -2.5525
  476SOL    HW2 7266   0.627   2.542  10.145 -1.0371  2.8949  1.0239
  477SOL     OW 7267   8.752   9.967   2.165  0.0833  0.0043 -0.1546
  477SOL    HW1 7268   8.722   9.978   2.074 -1.0505 -1.8601 -0.0498
  477SOL    HW2 7269   8.840   9.932   2.157  0.0624  0.0370 -0.5485
  478SOL     OW 7270   4.388   9.142   3.272  0.0951 -0.2847 -0.4281
  478SOL    HW1 7271   4.399   9.179   3.184  2.3167  0.7891  0.2318
  478SOL    HW2 7272   4.456   9.075   3.278 -0.4494 -0.7897  0.2669
  479SOL     OW 7273   5.337   1.200   7.458 -0.0399 -0.0375 -1.1252
  479SOL    HW1 7274   5.377   1.130   7.510 -2.4157 -1.0681 -0.5351
  479SOL    HW2 7275   5.388   1.202   7.377 -0.7635 -3.6343 -1.8635
  480SOL     OW 7276   4.244   9.898   1.360  0.0487 -0.1271 -0.3111
  480SOL    HW1 7277   4.227   9.813   1.402  0.3810  0.0153  0.1289
  480SOL    HW2 7278   4.326   9.884   1.313  0.9950  0.3989  1.1065
  481SOL     OW 7279   1.226   7.414   0.322  0.2407  0.4636  0.2967
  481SOL    HW1 7280   1.135   7.442   0.312  0.6752  2.1854  0.7510
  481SOL    HW2 7281   1.277   7.491   0.298  1.6273 -0.7761 -0.9069
  482SOL     OW 7282  11.350  11.055   6.543 -0.2386 -0.2439 -0.0380
  482SOL    HW1 7283  11.351  11.034   6.449  0.0356  0.1103 -0.1172
  482SOL    HW2 7284  11.442  11.068   6.565 -0.4821  2.8620 -0.4603
  483SOL     OW 7285   8.581   1.084   6.576  0.5924  0.0991 -0.1490
  483SOL    HW1 7286   8.524   1.150   6.537 -0.8720 -0.9373  0.1825
  483SOL    HW2 7287   8.664   1.094   6.529  0.1554  1.6170 -0.6585
  484SOL     OW 7288   5.569   5.754   7.705 -0.1415 -0.4671 -0.3651
  484SOL    HW1 7289   5.481   5.790   7.693 -0.2768 -1.1926 -1.7194
  484SOL    HW2 7290   5.599   5.791   7.788 -1.7334 -0.2339  0.1395
  485SOL     OW 7291   5.943   4.535  11.500  0.2665 -0.0021  0.2441
  485SOL    HW1 7292   5.892   4.454  11.512  0.3557  0.0653  1.1339
  485SOL    HW2 7293   5.958   4.540  11.406 -1.3177 -0.0583 -0.0343
  486SOL     OW 7294  11.279   3.286   0.183 -0.2991 -0.3498 -0.0878
  486SOL    HW1 7295  11.204   3.335   0.217  0.1731  0.4755 -0.2096
  486SOL    HW2 7296  11.333   3.268   0.260 -0.4713 -0.6884 -0.0433
  487SOL     OW 7297   4.080   4.271  11.250 -0.2897 -0.2963  0.4688
  487SOL    HW1 7298   4.066   4.360  11.282 -1.0890 -0.7365  1.4078
  487SOL    HW2 7299   4.165   4.273  11.207 -0.3458  0.9378  0.3962
  488SOL     OW 7300  10.331   1.586   9.104 -0.1883  0.3273  0.5265
  488SOL    HW1 7301  10.273   1.590   9.180 -0.8198  0.7854  0.0302
  488SOL    HW2 7302  10.282   1.629   9.034  0.1794 -0.5197 -0.2744
  489SOL     OW 7303   1.553   4.516   1.556 -0.1181  0.2742 -0.5036
  489SOL    HW1 7304   1.534   4.550   1.469  1.6450  2.2713 -0.1969
  489SOL    HW2 7305   1.511   4.579   1.616 -2.5325 -1.8314  0.1766
  490SOL     OW 7306  12.036   4.732   0.291  0.6851 -0.2183 -0.0392
  490SOL    HW1 7307  12.117   4.723   0.240  0.8591 -1.5622  0.4325
  490SOL    HW2 7308  12.009   4.642   0.310 -1.2628  0.1767 -0.6850
  491SOL     OW 7309   8.925   6.626   8.352  0.3799 -0.1978 -0.1579
  491SOL    HW1 7310   8.895   6.656   8.438  0.0011 -0.8757 -0.0531
  491SOL    HW2 7311   8.968   6.703   8.314 -1.1900  0.7189 -0.1811
  492SOL     OW 7312   2.832   9.089   6.575  0.0007 -0.4989  0.4367
  492SOL    HW1 7313   2.780   9.136   6.510  1.2759  1.0266  0.4543
  492SOL    HW2 7314   2.815   8.996   6.558  0.6941 -0.1923 -2.4499
  493SOL     OW 7315  12.109   3.681   2.740 -0.0799  0.6992  0.6683
  493SOL    HW1 7316  12.025   3.635   2.751  0.6958 -1.1488 -0.6211
  493SOL    HW2 7317  12.106   3.717   2.652  0.5402  0.4819  0.5540
  494SOL     OW 7318  10.704   6.656   9.620 -0.3487 -0.1326  0.5359
  494SOL    HW1 7319  10.740   6.727   9.565 -3.5364  1.8777  0.7716
  494SOL    HW2 7320  10.677   6.589   9.557 -0.2399  0.3047  0.0125
  495SOL     OW 7321   1.786   5.868   4.922 -0.0876  0.0456  0.1906
  495SOL    HW1 7322   1.774   5.835   5.011  0.0010  0.3693  0.3255
  495SOL    HW2 7323   1.698   5.893   4.894 -0.1998 -0.5654 -0.0201
  496SOL     OW 7324   0.788   2.678   8.946 -1.0809  0.2621 -0.3171
  496SOL    HW1 7325   0.793   2.605   9.008 -0.6763  0.4476 -0.1278
  496SOL    HW2 7326   0.875   2.718   8.950 -1.5779  1.3172  0.2719
  497SOL     OW 7327  11.818   7.987   4.957  0.2530  0.7265  0.3204
  497SOL    HW1 7328  11.796   7.894   4.970 -0.3656  0.1825 -3.3939
  497SOL    HW2 7329  11.735   8.033   4.969 -0.2291  0.2957 -1.1047
  498SOL     OW 7330   6.425   6.161  12.236  0.2789  0.3607 -0.2750
  498SOL    HW1 7331   6.394   6.132  12.322 -2.0993  0.4433 -1.0355
  498SOL    HW2 7332   6.485   6.093  12.207  1.2754  0.4184  1.4869
  499SOL     OW 7333   6.365   7.667   0.125  0.5475  0.2349  0.5654
  499SOL    HW1 7334   6.420   7.655   0.047 -0.1086 -0.4363  0.1971
  499SOL    HW2 7335   6.297   7.728   0.097  0.6061  0.3947  0.7695
  500SOL     OW 7336  12.245  11.421  10.572  0.2649  0.2963  0.4573
  500SOL    HW1 7337  12.250  11.501  10.624 -0.8310  0.5417  0.2166
  500SOL    HW2 7338  12.287  11.443  10.489 -1.9759  1.3914 -0.4876
  501SOL     OW 7339   7.952   6.569   5.463 -0.5594  0.0041  0.4903
  501SOL    HW1 7340   8.011   6.613   5.523 -0.1951  0.4214 -0.1734
  501SOL    HW2 7341   8.002   6.557   5.383 -0.8976 -0.9405  0.4008
  502SOL     OW 7342   9.591   0.960   9.492  0.1605 -0.2012  0.2997
  502SOL    HW1 7343   9.594   0.932   9.400 -3.6539 -1.5653  0.4044
  502SOL    HW2 7344   9.572   1.054   9.487 -0.2995 -0.3149 -0.3422
  503SOL     OW 7345   4.821   4.790   2.435 -0.3299 -0.5651  0.2627
  503SOL    HW1 7346   4.769   4.710   2.420 -0.8697 -0.1793  0.0621
  503SOL    HW2 7347   4.905   4.771   2.393 -1.1126 -0.2961 -1.5588
  504SOL     OW 7348   1.550   5.084   2.709 -0.6226  0.5681 -0.0077
  504SOL    HW1 7349   1.466   5.078   2.755 -1.2969  0.1208 -1.2438
  504SOL    HW2 7350   1.546   5.014   2.644  0.0765  1.5250 -1.0993
  505SOL     OW 7351   5.442   9.133   7.083 -0.5527  0.3443 -0.1472
  505SOL    HW1 7352   5.465   9.210   7.030  1.6788  0.1222  0.4043
  505SOL    HW2 7353   5.526   9.098   7.111 -1.6077 -1.0673  1.3934
  506SOL     OW 7354   0.258   9.853   9.414  0.0285 -0.0152 -0.0769
  506SOL    HW1 7355   0.319   9.903   9.359 -1.2438 -0.1565 -1.6937
  506SOL    HW2 7356   0.290   9.763   9.410 -0.5480 -0.1904 -1.3882
  507SOL     OW 7357   1.398   2.767   9.569  0.0468 -0.1014  0.2991
  507SOL    HW1 7358   1.470   2.717   9.530 -0.0119  0.9994 -1.3275
  507SOL    HW2 7359   1.323   2.746   9.513 -0.4525  0.2216  0.8450
  508SOL     OW 7360   7.247  11.506   2.646 -0.0192 -0.2062 -0.1265
  508SOL    HW1 7361   7.256  11.599   2.662  2.0496 -0.5668  1.0963
  508SOL    HW2 7362   7.158  11.485   2.676 -0.4576  1.3149 -0.2924
  509SOL     OW 7363  11.242   6.282   3.145 -0.0275  0.2676 -0.1841
  509SOL    HW1 7364  11.151   6.305   3.124 -0.0690 -0.4478 -0.8429
  509SOL    HW2 7365  11.275   6.241   3.065  0.7942  0.2805  0.1422
  510SOL     OW 7366   1.332   7.488   9.906  0.5656  0.0387  0.0509
  510SOL    HW1 7367   1.323   7.543   9.827 -2.3542  0.3230  0.4598
  510SOL    HW2 7368   1.331   7.550   9.978  2.8547 -0.2529  0.3980
  511SOL     OW 7369   4.664   7.136  10.796  0.0418  0.2244 -0.6855
  511SOL    HW1 7370   4.662   7.081  10.718 -1.5702  0.0047 -0.5390
  511SOL    HW2 7371   4.574   7.168  10.805  0.1398  0.1139  1.1584
  512SOL     OW 7372   1.431   1.830   9.527 -0.1985  0.5712 -0.1407
  512SOL    HW1 7373   1.368   1.783   9.581  0.9862  1.9089  2.6097
  512SOL    HW2 7374   1.517   1.801   9.559  0.6495 -0.2812 -2.9304
  513SOL     OW 7375   3.080   9.222   4.445  0.4616 -0.2830  0.4999
  513SOL    HW1 7376   3.139   9.197   4.373 -2.4529  1.5761 -2.8523
  513SOL    HW2 7377   3.116   9.304   4.478  0.2657  0.4661 -1.0321
  514SOL     OW 7378   9.966  10.514   3.993  0.2362  0.0539  0.2258
  514SOL    HW1 7379   9.877  10.486   4.010  0.3400  0.1869  1.0283
  514SOL    HW2 7380   9.959  10.608   3.978  0.4101  0.3170  1.7027
  515SOL     OW 7381   1.390   0.966   6.808  0.3588 -0.5256 -0.2548
  515SOL    HW1 7382   1.346   0.890   6.845 -0.7148  0.6351  0.9592
  515SOL    HW2 7383   1.476   0.933   6.779  0.2646 -1.9902  1.0402
  516SOL     OW 7384   5.552  11.974  11.743 -0.8027 -0.0667 -0.3202
  516SOL    HW1 7385   5.631  11.921  11.757  0.0707  1.0834 -0.7043
  516SOL    HW2 7386   5.484  11.930  11.795  0.3932 -0.3864  1.0589
  517SOL     OW 7387   2.618   0.174   6.242 -0.0207 -0.1001  0.3905
  517SOL    HW1 7388   2.528   0.141   6.249 -0.9138  2.2378  0.7295
  517SOL    HW2 7389   2.625   0.205   6.152  1.0125 -1.6812 -0.1081
  518SOL     OW 7390   3.931   1.801   9.969  0.1370  0.0636  0.1926
  518SOL    HW1 7391   3.902   1.736  10.033  1.1653  0.1462  0.7634
  518SOL    HW2 7392   3.948   1.879  10.021  1.4919 -0.0224 -0.0707
  519SOL     OW 7393   4.682   6.243   0.928  0.3603  0.2602 -0.5279
  519SOL    HW1 7394   4.612   6.241   0.863  0.1803 -0.6113 -0.3304
  519SOL    HW2 7395   4.726   6.327   0.915 -0.9806  1.0093 -0.3826
  520SOL     OW 7396   5.151   5.799   4.329  0.3659  0.1585  0.0972
  520SOL    HW1 7397   5.183   5.889   4.329  1.1219 -0.0772 -1.1905
  520SOL    HW2 7398   5.056   5.807   4.322  0.4110  0.8504  0.2206
  521SOL     OW 7399  11.846   2.153   7.039  0.0716 -0.3450  0.0787
  521SOL    HW1 7400  11.921   2.103   7.072 -0.1999 -0.2340  0.8924
  521SOL    HW2 7401  11.880   2.200   6.962  0.7836 -0.4474  0.3224
  522SOL     OW 7402  11.635  10.831  11.628  0.6781 -0.8518 -0.1132
  522SOL    HW1 7403  11.587  10.811  11.548  1.3788  1.8496 -1.3366
  522SOL    HW2 7404  11.569  10.864  11.688  0.6634  1.3453 -1.2325
  523SOL     OW 7405   5.658   6.534   4.886  0.8312 -0.1732  0.4911
  523SOL    HW1 7406   5.566   6.559   4.889  0.4496 -1.2320 -1.0526
  523SOL    HW2 7407   5.662   6.466   4.820  2.4988 -1.2174  1.5935
  524SOL     OW 7408  11.025   1.379   9.993 -1.1259  0.1506 -0.3809
  524SOL    HW1 7409  10.987   1.465  10.013 -1.8714 -0.0002 -1.0851
  524SOL    HW2 7410  10.954   1.331   9.951 -1.0919 -1.2441  1.0726
  525SOL     OW 7411   4.991  10.583   6.790  0.3547 -0.0891  0.2323
  525SOL    HW1 7412   4.957  10.671   6.807  1.1140  0.1867  0.3365
  525SOL    HW2 7413   5.028  10.588   6.701  1.2426 -0.0363  0.5964
  526SOL     OW 7414   2.220   5.049   0.815 -0.4288  0.1555 -0.2794
  526SOL    HW1 7415   2.275   5.112   0.862 -0.1414  0.3423 -0.8598
  526SOL    HW2 7416   2.281   5.000   0.760 -0.3736 -1.8052  1.3784
  527SOL     OW 7417   3.004   8.514   6.285 -0.1207 -0.3683 -0.0502
  527SOL    HW1 7418   2.953   8.475   6.356 -2.5026 -1.8381 -2.3726
  527SOL    HW2 7419   3.059   8.442   6.253 -0.6294 -0.3666 -0.9826
  528SOL     OW 7420   5.386   0.446  11.985  0.1774  0.2780  0.5509
  528SOL    HW1 7421   5.390   0.529  11.937 -0.2122  0.0882  0.1726
  528SOL    HW2 7422   5.345   0.385  11.923  2.2742 -0.7334  0.0707
  529SOL     OW 7423   2.684   1.622  10.986  0.0145  0.0406 -0.7031
  529SOL    HW1 7424   2.663   1.592  10.898  0.4325  0.1431 -0.8417
  529SOL    HW2 7425   2.644   1.557  11.044 -1.8862  0.9647 -0.8977
  530SOL     OW 7426   9.130   0.512   7.158  0.5379  0.2158 -0.1327
  530SOL    HW1 7427   9.043   0.490   7.124  0.3340 -0.3089  0.6776
  530SOL    HW2 7428   9.180   0.539   7.082 -0.3812  0.6673 -0.5913
  531SOL     OW 7429   3.336   3.520   9.945 -0.3881 -0.0475  0.3052
  531SOL    HW1 7430   3.307   3.429   9.946 -3.0889  0.7235  0.0531
  531SOL    HW2 7431   3.294   3.560  10.022  0.0700  1.1651 -0.0463
  532SOL     OW 7432   5.364  11.671   1.098  0.0448 -0.1769 -0.6080
  532SOL    HW1 7433   5.424  11.619   1.152  0.8208 -0.8792 -2.0886
  532SOL    HW2 7434   5.419  11.741   1.063 -0.7466  1.0313  0.4865
  533SOL     OW 7435  10.670  10.906   4.081 -0.1109 -0.3983 -0.1805
  533SOL    HW1 7436  10.596  10.845   4.081  0.1173 -0.6936 -1.3401
  533SOL    HW2 7437  10.682  10.929   3.989  0.1930  0.9420  0.1767
  534SOL     OW 7438  11.975  11.492   0.099 -0.3243 -0.3378 -0.0761
  534SOL    HW1 7439  11.893  11.536   0.078  1.0096  3.0745  1.1014
  534SOL    HW2 7440  12.041  11.538   0.046  1.0397 -1.8943  0.1921
  535SOL     OW 7441   2.183   6.753   0.956 -0.1033  0.2275 -0.2851
  535SOL    HW1 7442   2.116   6.814   0.926 -0.5453 -0.3199 -0.4232
  535SOL    HW2 7443   2.260   6.773   0.902  0.3765  1.9172  0.9255
  536SOL     OW 7444   5.467  11.669   5.220  0.4464  0.2620 -0.0793
  536SOL    HW1 7445   5.536  11.735   5.209  0.8092 -0.1737 -0.4553
  536SOL    HW2 7446   5.416  11.674   5.140  0.0343  0.5774  0.1958
  537SOL     OW 7447   9.511   4.849   8.498  0.2502 -0.1906 -0.6120
  537SOL    HW1 7448   9.457   4.922   8.528 -0.1023 -0.1743 -1.2742
  537SOL    HW2 7449   9.599   4.885   8.488  1.2212 -0.8970  3.5232
  538SOL     OW 7450   3.914   7.523  10.843 -0.6539  0.1507  0.0027
  538SOL    HW1 7451   3.984   7.468  10.880 -0.0527  0.8136 -0.1463
  538SOL    HW2 7452   3.955   7.568  10.770 -1.3834  0.1588 -0.4041
  539SOL     OW 7453   6.111  10.001   2.680  0.5347  0.3239  0.0559
  539SOL    HW1 7454   6.201   9.969   2.686  1.1018  1.9189  0.4963
  539SOL    HW2 7455   6.116  10.092   2.711 -1.1693  0.5318 -0.2198
  540SOL     OW 7456   3.263   4.493   0.894  0.5860  0.0017 -0.2136
  540SOL    HW1 7457   3.311   4.531   0.820 -1.6768  2.1732 -0.6805
  540SOL    HW2 7458   3.269   4.559   0.962  0.4457 -0.8644  0.6566
  541SOL     OW 7459   0.359   6.235  11.179 -0.2043 -0.2651  0.0137
  541SOL    HW1 7460   0.298   6.163  11.162 -0.2065 -0.3710  0.4499
  541SOL    HW2 7461   0.309   6.314  11.157 -0.0558 -0.4154 -0.8823
  542SOL     OW 7462  11.065  11.369   2.103  0.3333  0.1620  0.0766
  542SOL    HW1 7463  10.981  11.356   2.146 -0.1760 -0.4013 -1.0438
  542SOL    HW2 7464  11.109  11.435   2.156 -0.1006 -0.7830  1.6684
  543SOL     OW 7465   9.373  11.446   5.536 -0.1133 -0.1522  0.2082
  543SOL    HW1 7466   9.285  11.423   5.507 -0.2916  0.2362  0.4329
  543SOL    HW2 7467   9.396  11.378   5.599 -0.8130  0.4936  1.1999
  544SOL     OW 7468   3.479   3.268   4.464  0.2986 -0.1380 -0.9659
  544SOL    HW1 7469   3.411   3.334   4.476 -0.5032 -1.2731  1.2462
  544SOL    HW2 7470   3.433   3.184   4.468  1.8248 -0.9632  1.2498
  545SOL     OW 7471   9.775   0.158   2.466 -0.2573 -0.4413  0.5542
  545SOL    HW1 7472   9.822   0.108   2.532  1.3841  0.9159  0.5040
  545SOL    HW2 7473   9.828   0.147   2.386 -0.1416  0.8998  0.4205
  546SOL     OW 7474   9.288   5.231   5.121  0.4055 -0.1659 -0.0386
  546SOL    HW1 7475   9.383   5.225   5.127  0.4057  0.6752  0.9234
  546SOL    HW2 7476   9.271   5.319   5.087 -0.0402 -0.1384  0.2442
  547SOL     OW 7477   9.816   9.915   5.913  0.3856 -0.4861  0.1494
  547SOL    HW1 7478   9.876   9.983   5.943 -0.4476 -0.4598  1.9123
  547SOL    HW2 7479   9.729   9.953   5.925 -0.0789 -1.7155  0.8822
  548SOL     OW 7480   9.058   2.525   2.415 -0.1676 -0.6067 -0.2699
  548SOL    HW1 7481   9.104   2.481   2.344 -0.8166 -0.1069 -1.0026
  548SOL    HW2 7482   8.997   2.584   2.372  0.6275  0.9656  0.6922
  549SOL     OW 7483  10.380   8.583   4.321  0.4140 -0.1989  0.5772
  549SOL    HW1 7484  10.383   8.616   4.231  2.0440 -1.2976  0.1886
  549SOL    HW2 7485  10.290   8.598   4.349  0.0753  0.8689 -0.9630
  550SOL     OW 7486   5.961   0.804   2.259  0.6089 -0.3250  0.2043
  550SOL    HW1 7487   5.866   0.811   2.253  0.7203  0.0385 -1.6417
  550SOL    HW2 7488   5.982   0.838   2.346 -1.0031 -1.2499  1.0080
  551SOL     OW 7489   8.488   1.423   8.385 -0.1084  0.2151 -0.0391
  551SOL    HW1 7490   8.529   1.500   8.426 -1.3018  0.2881  1.0777
  551SOL    HW2 7491   8.512   1.350   8.443  2.5361 -0.6688 -2.0369
  552SOL     OW 7492   4.955   1.361   7.961  0.6979 -0.1385  0.2215
  552SOL    HW1 7493   5.004   1.443   7.961  2.5496 -1.1804 -0.4397
  552SOL    HW2 7494   4.976   1.321   7.876 -1.9635 -0.3050 -0.4419
  553SOL     OW 7495   3.799   5.832   1.743  0.0574  0.2349 -0.3110
  553SOL    HW1 7496   3.745   5.754   1.730  0.0351  0.0408  0.8974
  553SOL    HW2 7497   3.865   5.805   1.806  1.0288  0.7418 -1.0906
  554SOL     OW 7498   2.528   1.351   7.061  0.4444 -0.0094 -0.1155
  554SOL    HW1 7499   2.504   1.261   7.036 -1.8316 -0.4150  2.9978
  554SOL    HW2 7500   2.491   1.406   6.992  0.9311 -1.3310 -1.4944
  555SOL     OW 7501   0.735   3.076  12.057 -0.6561  0.2790 -0.2652
  555SOL    HW1 7502   0.659   3.075  12.116 -0.0027  0.8201  0.6181
  555SOL    HW2 7503   0.804   3.033  12.108 -0.1881  0.3727 -0.8135
  556SOL     OW 7504   1.283   3.995  12.292  0.4003  0.4233  0.0211
  556SOL    HW1 7505   1.355   3.956  12.242 -0.6971 -0.6689 -0.7645
  556SOL    HW2 7506   1.302   3.973  12.383  1.6508  1.1592 -0.0366
  557SOL     OW 7507   1.993   9.249  10.871  0.3934  0.1910 -0.1945
  557SOL    HW1 7508   1.977   9.337  10.904 -0.2855  0.1704 -0.4656
  557SOL    HW2 7509   1.981   9.255  10.776  0.3107 -0.1980 -0.2135
  558SOL     OW 7510   9.535   2.046   8.183 -0.2108 -0.1850 -0.4708
  558SOL    HW1 7511   9.508   1.958   8.211 -0.9954 -0.1605 -1.1013
  558SOL    HW2 7512   9.629   2.038   8.166 -0.1875 -0.7877 -0.1127
  559SOL     OW 7513   4.886   1.233   8.898 -0.1707 -0.1969 -0.5639
  559SOL    HW1 7514   4.884   1.215   8.992 -0.2881 -1.9076 -0.8566
  559SOL    HW2 7515   4.826   1.307   8.887 -0.5525 -0.2907  0.6413
  560SOL     OW 7516   3.007   5.876   5.020  0.1494 -1.0011  0.0526
  560SOL    HW1 7517   3.038   5.853   4.933  1.0650  1.1204 -0.2577
  560SOL    HW2 7518   2.914   5.897   5.008  0.0400 -1.6317 -0.2197
  561SOL     OW 7519   3.528   3.605   3.899  0.0637 -0.2632  0.3096
  561SOL    HW1 7520   3.557   3.684   3.944 -0.9126  0.6561 -0.6501
  561SOL    HW2 7521   3.441   3.588   3.934  0.2387 -0.8973  0.4614
  562SOL     OW 7522   5.275  11.036   4.829  0.2866  0.5049 -0.0351
  562SOL    HW1 7523   5.189  11.049   4.869  0.0685  0.5998 -0.5337
  562SOL    HW2 7524   5.272  10.946   4.796 -1.0302  1.6288 -3.3907
  563SOL     OW 7525   9.823   5.020   5.448 -0.4136  0.1135  0.8246
  563SOL    HW1 7526   9.860   5.059   5.369  0.2826  0.8919  1.5142
  563SOL    HW2 7527   9.880   4.946   5.468 -0.3302  0.1828  0.8411
  564SOL     OW 7528   3.807   8.735   4.870  0.3634 -0.3682  0.2832
  564SOL    HW1 7529   3.800   8.640   4.858 -1.3100 -0.4457  1.6126
  564SOL    HW2 7530   3.788   8.771   4.784 -0.3970 -1.1985  0.0911
  565SOL     OW 7531   1.856   9.855   9.998 -0.2319  0.5597  0.5090
  565SOL    HW1 7532   1.790   9.924   9.991 -2.1443 -0.6617  3.9157
  565SOL    HW2 7533   1.861   9.816   9.911 -3.6818  1.0546 -0.0385
  566SOL     OW 7534   5.581   7.312   8.367 -0.4614 -0.9994  0.4050
  566SOL    HW1 7535   5.611   7.249   8.432 -0.2099 -0.7239  0.5621
  566SOL    HW2 7536   5.594   7.268   8.283  0.5854 -0.8194  0.4575
  567SOL     OW 7537  12.216   8.126  11.418 -0.0872 -0.4634 -0.0118
  567SOL    HW1 7538  12.310   8.142  11.429  0.1534 -0.2788 -1.9776
  567SOL    HW2 7539  12.175   8.191  11.474  0.9801  1.7193 -1.5874
  568SOL     OW 7540  11.791   8.504   9.079 -0.1573  0.1107  0.0827
  568SOL    HW1 7541  11.836   8.587   9.093  2.2485 -1.2567  1.2149
  568SOL    HW2 7542  11.717   8.506   9.140  0.8413  0.7592  1.3084
  569SOL     OW 7543   6.356   5.546   3.905 -0.0426  0.0789  0.4775
  569SOL    HW1 7544   6.368   5.636   3.874 -0.3674 -0.0201  0.0538
  569SOL    HW2 7545   6.432   5.498   3.873  0.8784  0.4970  1.9127
  570SOL     OW 7546  12.262   9.696   4.966 -0.4840  0.8941  0.0328
  570SOL    HW1 7547  12.343   9.645   4.962  0.0410  1.6486  0.5920
  570SOL    HW2 7548  12.216   9.661   5.043  0.9442  2.7208  1.8205
  571SOL     OW 7549   4.791   5.718   7.399 -0.2834  0.7069 -0.6489
  571SOL    HW1 7550   4.710   5.676   7.430 -0.9271  1.8982 -0.6742
  571SOL    HW2 7551   4.861   5.666   7.439 -1.0549 -0.3553 -0.6393
  572SOL     OW 7552   0.708  12.289   7.511  0.1841  0.0135  0.7513
  572SOL    HW1 7553   0.662  12.215   7.471 -0.8893  0.8241  0.4387
  572SOL    HW2 7554   0.762  12.249   7.580  2.4100 -1.4707 -1.6907
  573SOL     OW 7555   1.900   0.990  11.729 -0.1482 -0.4238 -0.0692
  573SOL    HW1 7556   1.860   0.909  11.761  1.6291 -1.4042 -0.2043
  573SOL    HW2 7557   1.977   1.003  11.785 -0.6429  1.4606  0.2531
  574SOL     OW 7558   0.113  11.233   8.189  0.3619 -0.4530  0.5943
  574SOL    HW1 7559   0.081  11.194   8.108 -2.9575  0.7311  1.1748
  574SOL    HW2 7560   0.189  11.286   8.163  0.0432 -0.9785 -1.5346
  575SOL     OW 7561   3.168   5.462   7.105 -0.4580 -0.4693  0.2729
  575SOL    HW1 7562   3.101   5.440   7.170 -0.1989 -0.5028  0.5301
  575SOL    HW2 7563   3.247   5.478   7.157 -0.8774  2.2153  0.2525
  576SOL     OW 7564   5.013   2.333  12.142 -0.5624 -0.1766 -0.4888
  576SOL    HW1 7565   5.036   2.244  12.168  1.4906  0.2971 -0.5333
  576SOL    HW2 7566   5.003   2.381  12.224  0.8327  0.1070 -0.4540
  577SOL     OW 7567  10.227   0.858  11.132  0.4430 -0.2842 -0.0108
  577SOL    HW1 7568  10.158   0.839  11.196 -0.0992  1.1323 -0.1520
  577SOL    HW2 7569  10.181   0.898  11.059  1.3253 -0.0808 -0.4605
  578SOL     OW 7570  11.209   3.008   5.793  0.3742 -0.3149  0.0185
  578SOL    HW1 7571  11.298   3.042   5.783  0.6720 -1.1962 -0.4694
  578SOL    HW2 7572  11.178   2.995   5.704  1.0191 -3.1267  0.0892
  579SOL     OW 7573   9.993   2.096  10.552 -0.2275  0.0751 -0.3611
  579SOL    HW1 7574  10.066   2.035  10.563  0.8412  1.3101 -0.2399
  579SOL    HW2 7575   9.969   2.121  10.641 -0.7806 -0.2923 -0.4027
  580SOL     OW 7576   8.586   0.461   1.399 -0.3457 -0.2689  0.7500
  580SOL    HW1 7577   8.668   0.423   1.367 -0.5552 -0.2192  0.1496
  580SOL    HW2 7578   8.611   0.506   1.480  0.5201  1.0037 -0.1881
  581SOL     OW 7579   5.784   3.482  10.905  0.0940  0.5242  0.0404
  581SOL    HW1 7580   5.739   3.482  10.820  0.2300  0.1981 -0.0321
  581SOL    HW2 7581   5.714   3.479  10.969  0.0078 -1.9088 -0.0819
  582SOL     OW 7582  10.391   3.802   8.503 -0.5408  0.2876  0.1037
  582SOL    HW1 7583  10.318   3.740   8.513 -1.2314  0.9227 -0.9094
  582SOL    HW2 7584  10.349   3.886   8.488  0.3648  0.3283 -2.5900
  583SOL     OW 7585   0.370  10.422   0.889 -0.2425  0.2805  0.1464
  583SOL    HW1 7586   0.305  10.491   0.874  1.6324  1.8713 -1.2061
  583SOL    HW2 7587   0.366  10.367   0.811 -0.0194  0.3470  0.0863
  584SOL     OW 7588   9.697   2.832   1.397 -0.1764  0.1896 -0.2361
  584SOL    HW1 7589   9.739   2.758   1.352  0.0017  0.3817 -0.3850
  584SOL    HW2 7590   9.730   2.909   1.352  1.5586  0.5111  1.4916
  585SOL     OW 7591   7.994   4.467   9.066  0.1279  0.4630  0.0879
  585SOL    HW1 7592   8.066   4.491   9.124 -1.0538  1.1113  1.3422
  585SOL    HW2 7593   7.986   4.541   9.006  0.9048  0.0938 -0.4997
  586SOL     OW 7594   2.198   5.007   3.601 -0.1295 -0.0299 -0.8402
  586SOL    HW1 7595   2.207   5.031   3.694 -2.7750  0.2415 -0.5809
  586SOL    HW2 7596   2.272   4.949   3.584  0.6568  0.2425  1.3325
  587SOL     OW 7597   8.080   8.669   5.539  0.0355 -0.2603  0.0155
  587SOL    HW1 7598   8.107   8.759   5.521 -0.7635 -0.0600 -0.2488
  587SOL    HW2 7599   8.115   8.619   5.465  0.1616 -0.1032 -0.0336
  588SOL     OW 7600   4.706   8.913   5.521  0.2878 -0.0998  0.5690
  588SOL    HW1 7601   4.701   8.828   5.478  1.8370 -1.0448  2.1147
  588SOL    HW2 7602   4.777   8.959   5.476  0.2692 -0.1120  0.5268
  589SOL     OW 7603   7.698   1.846   3.900 -0.5817 -0.0097 -0.1631
  589SOL    HW1 7604   7.774   1.809   3.854  0.0839  0.5385  0.4703
  589SOL    HW2 7605   7.671   1.778   3.961  0.7250  0.5579  1.1007
  590SOL     OW 7606  11.713   7.298   6.578 -0.5089 -0.1001 -0.3366
  590SOL    HW1 7607  11.803   7.270   6.567 -0.5497  0.1118 -1.2161
  590SOL    HW2 7608  11.693   7.349   6.500 -1.9416 -1.6039 -1.0337
  591SOL     OW 7609   9.147   0.721   2.290  0.6372  0.8582 -0.4978
  591SOL    HW1 7610   9.100   0.796   2.327  3.4308  3.1448 -1.2699
  591SOL    HW2 7611   9.205   0.692   2.361  2.1570  1.8064 -1.3185
  592SOL     OW 7612  12.009   7.191  12.166 -0.0836 -0.4717 -0.5065
  592SOL    HW1 7613  11.937   7.132  12.190 -0.1340  0.0847  0.8206
  592SOL    HW2 7614  12.028   7.170  12.075  0.1578 -2.8226  0.0180
  593SOL     OW 7615  12.149   0.113   6.528 -0.2407  0.6598 -0.3065
  593SOL    HW1 7616  12.158   0.096   6.622 -0.2442  0.9854 -0.2476
  593SOL    HW2 7617  12.119   0.030   6.491 -0.0883  0.4870 -0.0414
  594SOL     OW 7618   8.953   1.844   2.355 -0.4088  0.6414  0.4700
  594SOL    HW1 7619   8.945   1.885   2.268 -1.4654 -0.1649  0.1709
  594SOL    HW2 7620   8.871   1.797   2.367  0.2223 -0.2568  1.4034
  595SOL     OW 7621   1.761   8.821   6.544  0.5517  0.2131 -0.0014
  595SOL    HW1 7622   1.722   8.846   6.628 -0.1672  0.6120 -0.4431
  595SOL    HW2 7623   1.725   8.884   6.481  0.6573 -0.4135 -0.7027
  596SOL     OW 7624   5.182   5.438   1.302  0.2819 -0.0995 -0.5122
  596SOL    HW1 7625   5.099   5.426   1.348  0.9504 -0.2921  0.6997
  596SOL    HW2 7626   5.244   5.384   1.351  1.3246  0.8116 -0.7806
  597SOL     OW 7627   9.054   4.842   3.121 -0.5854  0.3025  0.1926
  597SOL    HW1 7628   8.982   4.778   3.124  0.2080 -0.5590  1.6433
  597SOL    HW2 7629   9.133   4.789   3.125  0.1601  1.2633 -1.1387
  598SOL     OW 7630   1.892   3.179   7.146 -0.3363 -0.0421 -0.2721
  598SOL    HW1 7631   1.797   3.171   7.156 -0.6718  2.7646 -0.4599
  598SOL    HW2 7632   1.914   3.114   7.079 -2.1925 -0.3890 -0.6222
  599SOL     OW 7633   4.853   6.863   7.343  0.4683 -0.1191  0.1895
  599SOL    HW1 7634   4.827   6.854   7.434  1.3880  0.3280  0.5099
  599SOL    HW2 7635   4.818   6.785   7.300 -1.1520  0.3167  0.6314
  600SOL     OW 7636   7.608   7.739   7.110 -0.0884 -0.2392  0.4602
  600SOL    HW1 7637   7.591   7.698   7.025  1.1746 -0.7482  0.4261
  600SOL    HW2 7638   7.593   7.670   7.174  0.3197 -0.2646  0.5343
  601SOL     OW 7639   2.388   5.511   6.097  0.2986  0.0626 -0.6929
  601SOL    HW1 7640   2.361   5.533   6.008  2.9986  3.4641 -0.8497
  601SOL    HW2 7641   2.321   5.549   6.153  0.0375  0.3616 -1.2053
  602SOL     OW 7642   9.607  11.492   3.346  0.4610  0.1855  0.1804
  602SOL    HW1 7643   9.568  11.483   3.433  0.9676 -1.6283  0.2477
  602SOL    HW2 7644   9.596  11.585   3.325  0.1690  0.6268  2.0917
  603SOL     OW 7645   1.161   9.883  11.209 -0.5737 -0.0353  0.2817
  603SOL    HW1 7646   1.144   9.858  11.299 -0.8411  1.7020  0.7508
  603SOL    HW2 7647   1.251   9.917  11.210 -1.1401  1.5857  0.3114
  604SOL     OW 7648   3.499   5.217   3.681  0.9257  0.4402  0.0209
  604SOL    HW1 7649   3.499   5.137   3.627  3.9594  0.4212 -0.1671
  604SOL    HW2 7650   3.527   5.187   3.767 -0.3334  1.0062  0.6479
  605SOL     OW 7651   2.284   1.642   6.287 -0.1994 -0.6487  0.4667
  605SOL    HW1 7652   2.331   1.630   6.369 -1.6912  0.6681  1.5968
  605SOL    HW2 7653   2.335   1.708   6.239  0.0807 -0.5827  0.8507
  606SOL     OW 7654   9.653   7.995   5.764 -0.3060 -0.4462 -0.1447
  606SOL    HW1 7655   9.567   7.980   5.804 -0.2098 -1.8126 -0.3833
  606SOL    HW2 7656   9.648   8.083   5.728 -0.7853  0.4289  1.8870
  607SOL     OW 7657   0.639   0.353   6.167 -0.2737 -0.1925 -0.3825
  607SOL    HW1 7658   0.568   0.417   6.177 -1.6641 -1.4168 -1.8895
  607SOL    HW2 7659   0.598   0.269   6.188  0.8277 -0.8839 -0.9405
  608SOL     OW 7660   6.489  10.231   4.496 -0.5167  0.8681 -0.4925
  608SOL    HW1 7661   6.437  10.196   4.424 -1.1973  1.8487 -0.5026
  608SOL    HW2 7662   6.439  10.308   4.526  0.6597  1.5215 -0.1569
  609SOL     OW 7663   2.066  11.796   4.537  0.1679  0.0491  0.0351
  609SOL    HW1 7664   2.139  11.792   4.599 -0.5156 -0.0632  0.8390
  609SOL    HW2 7665   2.015  11.717   4.555 -0.4910  0.4414 -0.1071
  610SOL     OW 7666   1.722   8.154   7.719 -0.2134  0.1594  0.5034
  610SOL    HW1 7667   1.765   8.078   7.758 -0.3088  0.6309  1.5470
  610SOL    HW2 7668   1.745   8.227   7.776 -0.4220  0.8624 -0.2868
  611SOL     OW 7669   7.956   0.861   6.767  0.2134  0.4445  0.1682
  611SOL    HW1 7670   7.914   0.938   6.806  0.9115  1.5881 -1.1985
  611SOL    HW2 7671   7.884   0.804   6.741 -0.3196  0.6043  1.2367
  612SOL     OW 7672   3.412   8.117   4.697 -0.2187 -0.6614  0.1139
  612SOL    HW1 7673   3.456   8.110   4.613 -0.8697 -1.8196 -0.1573
  612SOL    HW2 7674   3.473   8.076   4.759  0.2229  0.1158  0.2100
  613SOL     OW 7675  11.666   4.249   4.728  0.0295  0.7462  0.2999
  613SOL    HW1 7676  11.615   4.317   4.685 -1.5893 -1.3446 -1.3094
  613SOL    HW2 7677  11.756   4.283   4.728 -0.4924  2.3168 -1.6659
  614SOL     OW 7678   9.964   7.802   6.775  0.5982 -0.1039 -0.2916
  614SOL    HW1 7679   9.970   7.770   6.685  2.0202 -0.2515 -0.1643
  614SOL    HW2 7680   9.967   7.722   6.829  1.8545  0.0843 -0.0567
  615SOL     OW 7681   3.551  11.395   9.595 -0.1986  0.1415  0.1939
  615SOL    HW1 7682   3.631  11.412   9.644 -0.3001  3.5137 -0.5148
  615SOL    HW2 7683   3.581  11.355   9.513  0.9799  2.2010 -0.4609
  616SOL     OW 7684   5.194   9.406   0.394 -0.3090  0.1988 -0.0348
  616SOL    HW1 7685   5.150   9.322   0.382  0.0842 -0.1058  0.5824
  616SOL    HW2 7686   5.185   9.450   0.310 -1.9838  0.2544  0.1406
  617SOL     OW 7687   8.817   2.932  10.689 -0.5646  0.4927 -0.3814
  617SOL    HW1 7688   8.784   2.995  10.625 -0.5021  2.8287  1.7037
  617SOL    HW2 7689   8.906   2.963  10.709 -0.2214 -0.7658  0.1159
  618SOL     OW 7690   3.416   2.673  11.733 -0.2356  0.4516  0.0106
  618SOL    HW1 7691   3.471   2.750  11.751  0.3143  0.6066 -1.9782
  618SOL    HW2 7692   3.471   2.598  11.756 -0.9001  0.6133  2.2873
  619SOL     OW 7693   5.456   0.308   0.598 -0.2831  0.1145 -0.1492
  619SOL    HW1 7694   5.532   0.258   0.570 -0.8622  0.0717 -1.7826
  619SOL    HW2 7695   5.462   0.390   0.548 -2.6215 -0.9374 -2.4066
  620SOL     OW 7696   9.672   4.113   8.332  0.2702  0.2525  0.4000
  620SOL    HW1 7697   9.585   4.095   8.297  0.0136  1.3412  0.4211
  620SOL    HW2 7698   9.731   4.092   8.259 -0.2872  2.8625 -0.9472
  621SOL     OW 7699   7.595   4.090   0.231  0.5198 -0.0084 -0.5038
  621SOL    HW1 7700   7.501   4.078   0.216 -0.1428  0.6750  2.4912
  621SOL    HW2 7701   7.623   4.010   0.275  1.8369 -0.9998 -2.9625
  622SOL     OW 7702   5.856   9.113   1.283  0.4787 -0.3035 -0.5891
  622SOL    HW1 7703   5.905   9.143   1.207  2.5260  0.0454  0.7736
  622SOL    HW2 7704   5.816   9.193   1.319  0.5797 -0.2633 -0.5677
  623SOL     OW 7705   1.209  11.222   7.701 -0.0910  0.1271 -0.8890
  623SOL    HW1 7706   1.208  11.155   7.770 -0.1540  0.4560 -0.5610
  623SOL    HW2 7707   1.125  11.211   7.656 -1.5056  1.9108  1.0891
  624SOL     OW 7708   7.245   2.947   6.727  0.0359  0.8258 -0.1139
  624SOL    HW1 7709   7.244   2.889   6.802 -2.0720 -0.7627 -1.2741
  624SOL    HW2 7710   7.180   3.014   6.747  1.0220  1.6808  0.3508
  625SOL     OW 7711   7.754   3.394   0.870 -0.1356 -0.1844  0.1379
  625SOL    HW1 7712   7.808   3.401   0.948  0.0048 -2.1957  0.2783
  625SOL    HW2 7713   7.684   3.332   0.894 -0.5902 -0.1701 -1.0433
  626SOL     OW 7714   7.263  11.015   1.089 -0.0192  0.4557 -0.5186
  626SOL    HW1 7715   7.354  10.989   1.071  0.0337  0.4652 -0.2660
  626SOL    HW2 7716   7.250  11.093   1.035  0.1054  0.4226 -0.5986
  627SOL     OW 7717  10.184   6.207   6.519  0.3891  0.0350 -0.0736
  627SOL    HW1 7718  10.109   6.242   6.471  0.5821  1.0139  0.3163
  627SOL    HW2 7719  10.242   6.282   6.530  0.4147 -0.1999  1.5571
  628SOL     OW 7720   2.367   1.559   7.612  0.4231  0.0860 -0.1201
  628SOL    HW1 7721   2.461   1.542   7.626  0.5334  0.5025 -0.3294
  628SOL    HW2 7722   2.365   1.641   7.563  0.0182 -0.9454 -1.8961
  629SOL     OW 7723  12.250   2.369   5.575 -0.2999 -0.2760 -0.1097
  629SOL    HW1 7724  12.283   2.432   5.511  2.4850 -1.6703 -0.2085
  629SOL    HW2 7725  12.242   2.419   5.656  0.2688  0.6010 -0.5812
  630SOL     OW 7726   3.409   3.824   1.489 -0.0232  0.0736 -0.8583
  630SOL    HW1 7727   3.321   3.818   1.526 -0.4721  0.1363 -1.8893
  630SOL    HW2 7728   3.403   3.777   1.406  1.8439 -3.2684  0.6787
  631SOL     OW 7729   8.096  10.195   3.542  0.0859 -0.5416 -0.2521
  631SOL    HW1 7730   8.161  10.214   3.609 -0.6396 -1.9715  0.9086
  631SOL    HW2 7731   8.133  10.122   3.492 -0.3103 -0.8772 -0.0547
  632SOL     OW 7732   8.479   7.724   6.648 -0.3495 -0.4837 -0.5897
  632SOL    HW1 7733   8.393   7.763   6.634  0.9143  2.5295 -0.7310
  632SOL    HW2 7734   8.475   7.689   6.737 -1.1459  1.5290  0.2412
  633SOL     OW 7735  11.127   8.663   5.267 -0.0302 -0.1074 -0.0821
  633SOL    HW1 7736  11.167   8.578   5.286  0.6306  0.2249  0.0594
  633SOL    HW2 7737  11.037   8.642   5.243  0.6394 -1.0667 -2.0526
  634SOL     OW 7738   3.753   2.057   6.062 -0.0278 -0.6628  0.0889
  634SOL    HW1 7739   3.765   2.150   6.040  0.3082 -0.6116  0.4554
  634SOL    HW2 7740   3.719   2.058   6.152 -1.9644 -0.8459 -0.6082
  635SOL     OW 7741   0.507   4.334   5.358  0.2792  0.1850 -0.7966
  635SOL    HW1 7742   0.525   4.289   5.441  0.4042  0.3364 -0.7419
  635SOL    HW2 7743   0.425   4.295   5.327  0.0158  0.4191 -0.3972
  636SOL     OW 7744   6.437   8.306   3.951  0.5282  0.0434  0.0288
  636SOL    HW1 7745   6.434   8.217   3.985 -1.3343  0.7216  1.9116
  636SOL    HW2 7746   6.530   8.329   3.949  0.9175 -1.2117  1.6356
  637SOL     OW 7747   5.690   6.864  11.650 -0.3949  0.7876 -0.5037
  637SOL    HW1 7748   5.720   6.951  11.622 -0.8194  0.8816 -0.6802
  637SOL    HW2 7749   5.610   6.849  11.599 -0.3565  0.3167 -0.4308
  638SOL     OW 7750   3.967  10.556   7.733 -0.2239 -0.4708 -0.4098
  638SOL    HW1 7751   4.044  10.608   7.759 -1.6215 -0.1018  3.8716
  638SOL    HW2 7752   3.998  10.465   7.735  0.4110 -0.2537  0.0471
  639SOL     OW 7753   2.258   9.949   3.386 -0.1807 -0.5174  0.6783
  639SOL    HW1 7754   2.311  10.023   3.416  0.0496 -0.6046  0.4840
  639SOL    HW2 7755   2.321   9.880   3.365 -0.2638 -0.1432 -0.9082
  640SOL     OW 7756   6.638   8.320  11.894  0.4009 -0.3568 -0.1584
  640SOL    HW1 7757   6.557   8.277  11.921 -0.4210  1.6055  0.6745
  640SOL    HW2 7758   6.612   8.410  11.877  2.2672  0.1054 -0.7281
  641SOL     OW 7759  11.906   5.768  11.585  0.7600  0.5916 -0.0235
  641SOL    HW1 7760  11.933   5.704  11.650  0.0251 -0.5896 -0.8331
  641SOL    HW2 7761  11.811   5.756  11.577  0.9323  0.1156 -1.8633
  642SOL     OW 7762  11.736   1.640   5.332 -0.3043 -0.0569  0.6486
  642SOL    HW1 7763  11.832   1.636   5.332 -0.2181  1.3280 -0.3290
  642SOL    HW2 7764  11.709   1.552   5.307  0.6972 -0.5797  1.3334
  643SOL     OW 7765   6.564  10.983   1.639 -0.7436  0.4906 -0.5995
  643SOL    HW1 7766   6.492  11.000   1.578 -0.9999 -0.8055 -0.6690
  643SOL    HW2 7767   6.616  11.064   1.636 -1.2762  0.8184 -1.7955
  644SOL     OW 7768   9.676   6.177   5.773 -0.6281  0.0103  0.2487
  644SOL    HW1 7769   9.660   6.258   5.724  0.0660 -0.1513 -0.2668
  644SOL    HW2 7770   9.733   6.204   5.846 -1.0864  0.1283  0.5673
  645SOL     OW 7771   0.276  11.194   2.423  0.1164 -0.4250 -0.3871
  645SOL    HW1 7772   0.364  11.233   2.417 -0.0646  0.0634  0.0758
  645SOL    HW2 7773   0.290  11.113   2.472  0.3647 -0.5301 -0.6257
  646SOL     OW 7774   4.588   9.308   6.120  0.1127 -0.1541 -0.0032
  646SOL    HW1 7775   4.592   9.249   6.045 -0.9584  0.2307 -0.3812
  646SOL    HW2 7776   4.502   9.350   6.113  1.9462  3.8838 -1.6061
  647SOL     OW 7777   5.496   5.378   6.267 -0.0006  0.0701  0.0487
  647SOL    HW1 7778   5.530   5.467   6.268  1.8662 -0.5496 -1.4477
  647SOL    HW2 7779   5.447   5.372   6.185 -0.2811 -0.2300  0.2356
  648SOL     OW 7780   8.434   6.417   5.339  0.2872 -0.0716 -0.2489
  648SOL    HW1 7781   8.527   6.430   5.355  0.0732  0.2362  0.7787
  648SOL    HW2 7782   8.429   6.332   5.295  0.9902 -0.4135  0.3168
  649SOL     OW 7783   3.905   7.350   3.449 -0.1430  0.5535 -0.1160
  649SOL    HW1 7784   3.863   7.405   3.514  0.2125 -0.2326  0.7966
  649SOL    HW2 7785   3.996   7.381   3.447  0.4538 -0.9464  1.5150
  650SOL     OW 7786   9.733  11.215   3.003  0.4250  0.2475  0.0829
  650SOL    HW1 7787   9.665  11.256   3.057  1.0402  0.9401  0.3487
  650SOL    HW2 7788   9.773  11.287   2.955  1.9602  0.0766  1.0417
  651SOL     OW 7789   4.291   2.752  11.408 -0.0887  0.2859  0.1080
  651SOL    HW1 7790   4.224   2.752  11.476  0.1561  2.6765  0.4274
  651SOL    HW2 7791   4.357   2.691  11.440 -0.2176  0.9734  1.7988
  652SOL     OW 7792   2.738   7.412  12.066  0.1772  0.2424 -0.4058
  652SOL    HW1 7793   2.705   7.455  12.144 -0.9642  0.5151 -1.0152
  652SOL    HW2 7794   2.801   7.348  12.098 -0.7625 -0.1073  0.7811
  653SOL     OW 7795   7.797   6.298   7.369  0.1794  0.2319 -0.3982
  653SOL    HW1 7796   7.723   6.343   7.411  1.6099  1.0028  1.4474
  653SOL    HW2 7797   7.803   6.214   7.415  1.0234  0.5866  0.1739
  654SOL     OW 7798  10.308  10.658   6.665  0.1770  0.0001  0.3735
  654SOL    HW1 7799  10.392  10.702   6.672 -0.4586  1.3586 -0.0898
  654SOL    HW2 7800  10.329  10.568   6.639  1.4650  0.2806  0.3921
  655SOL     OW 7801   1.763   8.669   9.064 -0.0061  0.3228  0.0509
  655SOL    HW1 7802   1.830   8.724   9.104 -0.8474  1.6476 -0.3029
  655SOL    HW2 7803   1.729   8.721   8.992 -1.6163 -0.1920  0.3959
  656SOL     OW 7804   2.685   3.894   9.078 -0.3644 -0.1823  0.4816
  656SOL    HW1 7805   2.709   3.982   9.109 -1.3625  1.0132 -1.8269
  656SOL    HW2 7806   2.699   3.898   8.983 -0.0204 -2.7067  0.3626
  657SOL     OW 7807   3.521  11.299   5.052 -1.1647 -0.7486  0.2719
  657SOL    HW1 7808   3.456  11.253   4.999 -0.6192 -0.7171 -0.4394
  657SOL    HW2 7809   3.566  11.356   4.990 -0.6235 -0.5875  0.8054
  658SOL     OW 7810   2.720   2.492   1.072  0.1071  0.6698  0.5205
  658SOL    HW1 7811   2.628   2.464   1.075 -0.4640  2.4648  0.9056
  658SOL    HW2 7812   2.754   2.456   0.990 -1.2594  0.9058 -0.1747
  659SOL     OW 7813   4.489  10.158   3.181  0.3644 -0.1051  0.3147
  659SOL    HW1 7814   4.523  10.245   3.160  0.2902 -0.5490 -1.9130
  659SOL    HW2 7815   4.565  10.110   3.215  0.6890  0.4526  0.3888
  660SOL     OW 7816   4.476   1.226   6.575 -0.2016  0.4302 -0.7872
  660SOL    HW1 7817   4.533   1.284   6.626 -0.6866 -0.1320  0.4457
  660SOL    HW2 7818   4.408   1.199   6.637  0.2638 -1.8110 -1.1582
  661SOL     OW 7819   6.616   6.392   2.005 -0.0501  0.5468 -1.1029
  661SOL    HW1 7820   6.598   6.486   2.008 -1.7338  0.2431  0.2528
  661SOL    HW2 7821   6.532   6.351   2.026  1.0535 -1.2008  0.1994
  662SOL     OW 7822   6.736  11.120  11.347 -0.0825  0.2003 -0.2629
  662SOL    HW1 7823   6.798  11.073  11.404 -0.3512 -0.6117 -0.6304
  662SOL    HW2 7824   6.732  11.208  11.385  1.9794  0.5639 -0.7444
  663SOL     OW 7825   4.884   3.851   0.523 -0.8351 -0.0146  0.0174
  663SOL    HW1 7826   4.941   3.779   0.496  0.6287  1.0575  0.1496
  663SOL    HW2 7827   4.796   3.814   0.521 -0.4212 -1.0079 -2.6159
  664SOL     OW 7828   5.399   1.002   2.266 -0.2202  0.2208  0.5442
  664SOL    HW1 7829   5.384   1.096   2.268 -1.0559  0.1005  0.3780
  664SOL    HW2 7830   5.330   0.966   2.322 -0.7714 -0.3926 -0.5105
  665SOL     OW 7831  10.330  10.677   8.211  0.1086  0.0174  0.7423
  665SOL    HW1 7832  10.300  10.592   8.178  1.6672 -0.2960  0.0721
  665SOL    HW2 7833  10.377  10.656   8.291  1.4037  0.1033  0.0264
  666SOL     OW 7834  12.052   7.429   3.668  0.1309  0.1945  0.0272
  666SOL    HW1 7835  12.023   7.520   3.672 -2.3208 -0.5540  0.9686
  666SOL    HW2 7836  12.083   7.418   3.578 -0.5248  1.7071 -0.4139
  667SOL     OW 7837   6.444   0.570   4.063 -0.4276  0.2629  0.0031
  667SOL    HW1 7838   6.399   0.646   4.029 -1.4398 -0.3377 -0.0371
  667SOL    HW2 7839   6.411   0.497   4.011  1.3246 -0.0793 -0.6879
  668SOL     OW 7840   4.902   6.164   1.404 -0.3576  0.2300  0.9632
  668SOL    HW1 7841   4.832   6.122   1.453 -0.6323  0.2658  0.6036
  668SOL    HW2 7842   4.954   6.091   1.369 -2.3535  0.0422 -1.9174
  669SOL     OW 7843   3.761   2.412   6.727  0.1624  0.5833  0.3584
  669SOL    HW1 7844   3.810   2.459   6.660  1.9390  0.8195  1.7505
  669SOL    HW2 7845   3.683   2.466   6.743  0.8921  1.7273  0.1205
  670SOL     OW 7846   6.780   1.427  11.880  0.2349  0.0973  0.6904
  670SOL    HW1 7847   6.800   1.520  11.890 -0.0227  0.1203  0.9954
  670SOL    HW2 7848   6.686   1.423  11.868  0.3736 -0.0399 -0.4594
  671SOL     OW 7849   2.119   9.279  10.297  0.4398 -0.1576 -0.7306
  671SOL    HW1 7850   2.114   9.372  10.318 -0.0340 -0.1996 -0.6458
  671SOL    HW2 7851   2.033   9.257  10.261 -0.2998 -1.0689  1.4065
  672SOL     OW 7852   8.809   2.835   1.555  0.1277 -0.5041  0.5592
  672SOL    HW1 7853   8.787   2.792   1.637  0.5303 -1.2756  0.2699
  672SOL    HW2 7854   8.742   2.903   1.544  0.8750  0.5898  2.2431
  673SOL     OW 7855   9.112   0.711   8.510 -0.5768  0.2770  0.6674
  673SOL    HW1 7856   9.189   0.682   8.461 -0.8408 -1.2730  1.1116
  673SOL    HW2 7857   9.050   0.738   8.443  0.0162  0.6932  0.2721
  674SOL     OW 7858   1.412   1.076   3.731  0.0600  0.2601 -0.2413
  674SOL    HW1 7859   1.491   1.027   3.755  0.2596  0.3329 -0.7496
  674SOL    HW2 7860   1.445   1.155   3.688 -0.2656  0.7567  0.4003
  675SOL     OW 7861   9.984   0.103   6.577  0.1683 -0.6673  0.0418
  675SOL    HW1 7862   9.986   0.009   6.589  0.7265 -0.7832 -0.8082
  675SOL    HW2 7863  10.068   0.134   6.611  0.1236 -0.5162  0.0192
  676SOL     OW 7864   5.849   1.194   0.545 -0.1937  1.0392  0.0003
  676SOL    HW1 7865   5.823   1.139   0.471  1.6086 -0.8696  0.6720
  676SOL    HW2 7866   5.909   1.258   0.508  1.4962 -0.5360 -0.1343
  677SOL     OW 7867   0.571   3.585   6.330  0.3221  0.1722  0.1264
  677SOL    HW1 7868   0.648   3.544   6.290  0.9022  0.5232  0.8668
  677SOL    HW2 7869   0.499   3.527   6.306  0.4884  0.8152 -2.1642
  678SOL     OW 7870   0.703   4.837  10.321 -0.5535  0.0040 -0.2463
  678SOL    HW1 7871   0.681   4.749  10.352  0.0588  0.6615  2.2165
  678SOL    HW2 7872   0.618   4.882  10.316 -0.8518 -0.6438 -1.3618
  679SOL     OW 7873   9.983  10.618   0.409  0.5616 -0.5829 -0.1130
  679SOL    HW1 7874   9.969  10.706   0.446 -0.3303 -1.1285  0.9188
  679SOL    HW2 7875  10.002  10.564   0.485 -0.9302 -1.6761 -0.4799
  680SOL     OW 7876  10.191   6.053   9.058 -0.3750 -0.1027 -0.1591
  680SOL    HW1 7877  10.134   6.104   9.000  2.0054  0.5559 -2.0769
  680SOL    HW2 7878  10.154   5.965   9.056 -1.6697  0.4298 -0.8806
  681SOL     OW 7879   4.175   4.669  11.567  0.0096  0.2153  0.4042
  681SOL    HW1 7880   4.136   4.742  11.518  0.3102 -1.0371 -1.8622
  681SOL    HW2 7881   4.269   4.679  11.553  0.1126 -0.0955  0.8713
  682SOL     OW 7882   4.189  11.250   3.733  0.4878  0.1462  0.3534
  682SOL    HW1 7883   4.134  11.257   3.810  1.8099  0.1508  1.3298
  682SOL    HW2 7884   4.279  11.257   3.766  1.0824  0.4276 -1.2083
  683SOL     OW 7885   2.552   5.234   8.650  0.0255  0.0336  0.0940
  683SOL    HW1 7886   2.609   5.169   8.610 -0.4174 -0.7095  0.6504
  683SOL    HW2 7887   2.477   5.241   8.591  0.3623  0.5171 -0.2901
  684SOL     OW 7888  11.280   6.860   5.056  0.5877  0.4290  0.2162
  684SOL    HW1 7889  11.350   6.921   5.032  1.8290 -0.9411  0.1825
  684SOL    HW2 7890  11.325   6.776   5.066 -1.3035 -0.8949 -1.5312
  685SOL     OW 7891   5.552   2.052   9.136 -0.5070 -0.1155  0.5163
  685SOL    HW1 7892   5.574   2.074   9.227  1.1458  0.6138 -0.0098
  685SOL    HW2 7893   5.583   1.962   9.125  0.6365  0.2799  0.3068
  686SOL     OW 7894   3.326   4.213   8.832 -0.7795 -0.2884 -0.1251
  686SOL    HW1 7895   3.299   4.153   8.902 -1.2078  0.3888  0.3124
  686SOL    HW2 7896   3.341   4.157   8.756  0.3693 -1.1336  0.6816
  687SOL     OW 7897   9.415  10.690   7.434  0.3419 -0.5736 -0.3109
  687SOL    HW1 7898   9.429  10.785   7.439  0.2459 -0.4842 -1.5604
  687SOL    HW2 7899   9.482  10.659   7.373 -0.0162 -1.2274 -0.3804
  688SOL     OW 7900   9.648   3.942   2.408 -0.0586 -0.3671  0.0545
  688SOL    HW1 7901   9.704   3.969   2.481 -0.7818 -0.5795  0.7009
  688SOL    HW2 7902   9.638   3.847   2.420  1.9637 -0.9222 -1.8416
  689SOL     OW 7903   0.008   8.850  11.827  0.3459  0.2155  0.1490
  689SOL    HW1 7904   0.083   8.903  11.800 -0.3424  0.2851 -1.7541
  689SOL    HW2 7905   0.017   8.768  11.777 -0.1256 -0.3387  0.9406
  690SOL     OW 7906  10.454   1.278   5.290 -0.1240 -0.3376  0.3422
  690SOL    HW1 7907  10.508   1.355   5.272 -0.5041 -0.1742 -0.1117
  690SOL    HW2 7908  10.512   1.204   5.274 -0.5664 -0.2304 -2.1374
  691SOL     OW 7909   7.820  10.711   9.176 -0.1605  0.6632 -0.3707
  691SOL    HW1 7910   7.809  10.714   9.271 -1.2652 -1.8511 -0.3258
  691SOL    HW2 7911   7.908  10.678   9.163 -0.2727  0.2913 -0.1956
  692SOL     OW 7912   0.388   4.200   4.626  0.3462 -0.3852 -0.5290
  692SOL    HW1 7913   0.306   4.197   4.575  0.8342 -0.0296 -1.3594
  692SOL    HW2 7914   0.452   4.239   4.566  1.0146 -0.2200  0.2690
  693SOL     OW 7915   3.971   2.452   1.972  0.2596 -0.1649  0.0342
  693SOL    HW1 7916   4.022   2.515   2.023  0.1917  0.1153 -0.2407
  693SOL    HW2 7917   4.015   2.368   1.986 -0.7883 -0.4472  2.0034
  694SOL     OW 7918  11.720   6.377   6.511 -0.3576  0.2314 -0.8318
  694SOL    HW1 7919  11.698   6.316   6.581  0.2596  1.5615  0.5690
  694SOL    HW2 7920  11.668   6.347   6.436 -2.0209 -0.4828  0.5420
  695SOL     OW 7921  11.138   7.815   0.650  0.5393  0.3037  0.6869
  695SOL    HW1 7922  11.135   7.911   0.653  2.1792  0.3863  0.6135
  695SOL    HW2 7923  11.133   7.794   0.557 -0.0341  0.2929  0.7149
  696SOL     OW 7924   2.216   4.952  10.301  0.1839 -0.2321 -0.2690
  696SOL    HW1 7925   2.250   5.041  10.292  0.7479 -0.5876 -1.8675
  696SOL    HW2 7926   2.242   4.926  10.389 -0.2580  1.2780  0.3502
  697SOL     OW 7927   5.953   2.894  12.197 -0.0785 -0.2591  0.1554
  697SOL    HW1 7928   5.989   2.866  12.113  0.9125  0.1944  0.4054
  697SOL    HW2 7929   5.869   2.850  12.204  0.4376 -1.3827 -0.4556
  698SOL     OW 7930   8.856   2.320   7.825  0.2584  0.0473 -0.3156
  698SOL    HW1 7931   8.781   2.295   7.771  0.4321 -1.0320 -0.0781
  698SOL    HW2 7932   8.843   2.414   7.841 -0.6826  0.0241 -0.8218
  699SOL     OW 7933  10.069  10.007  10.060 -0.3209  0.3659  0.3981
  699SOL    HW1 7934   9.985  10.027  10.101 -0.6075  0.3774 -0.1968
  699SOL    HW2 7935  10.052   9.932  10.004  0.5671 -1.1021  1.9801
  700SOL     OW 7936   5.647   9.634   0.737 -0.1037 -0.5180  0.3454
  700SOL    HW1 7937   5.723   9.642   0.680 -0.7403  0.3003 -0.4150
  700SOL    HW2 7938   5.576   9.605   0.679 -0.9434  1.0590  0.5302
  701SOL     OW 7939   3.681   0.925   5.863  0.2623  0.3131 -0.0602
  701SOL    HW1 7940   3.625   0.886   5.930  0.9140 -0.5373  0.0093
  701SOL    HW2 7941   3.766   0.935   5.906  1.0957 -1.5589 -1.1427
  702SOL     OW 7942   2.850   3.018  10.338 -0.2311  0.0749  0.7586
  702SOL    HW1 7943   2.852   3.105  10.299  0.9345  0.8185  2.3414
  702SOL    HW2 7944   2.894   3.029  10.423  0.9343 -2.2947  0.5368
  703SOL     OW 7945  11.668  11.337   2.537  0.8670  0.0561 -0.0641
  703SOL    HW1 7946  11.735  11.346   2.606  0.0941 -0.5571  0.7918
  703SOL    HW2 7947  11.603  11.404   2.559  0.3852 -0.4550  0.0762
  704SOL     OW 7948   8.167   1.144   8.410 -0.2283  0.2308  0.1824
  704SOL    HW1 7949   8.150   1.063   8.362  0.9284  0.9144 -1.4904
  704SOL    HW2 7950   8.230   1.191   8.356 -0.5976  2.0986  1.2761
  705SOL     OW 7951   0.860   0.400   6.362  0.7801  0.2266 -0.0117
  705SOL    HW1 7952   0.785   0.415   6.304  0.7347  0.4993  0.1172
  705SOL    HW2 7953   0.935   0.398   6.303  0.7655  0.7753 -0.0549
  706SOL     OW 7954   7.438   6.952   8.745 -0.1827  0.0215  0.3965
  706SOL    HW1 7955   7.473   7.002   8.671 -0.3331 -1.7532 -0.9261
  706SOL    HW2 7956   7.404   7.019   8.805 -0.2146  1.5142 -1.2056
  707SOL     OW 7957   0.267   9.703  10.487  0.2708 -0.6563  0.2487
  707SOL    HW1 7958   0.327   9.638  10.523  0.7977  0.3583  1.2649
  707SOL    HW2 7959   0.203   9.717  10.557 -0.3093 -0.6622 -0.2731
  708SOL     OW 7960   9.403   1.330   0.182 -0.7587  0.6854  0.3563
  708SOL    HW1 7961   9.410   1.417   0.142 -1.5355 -0.1162 -1.6718
  708SOL    HW2 7962   9.309   1.312   0.184 -0.5872 -0.2953  0.2459
  709SOL     OW 7963   6.527   0.459   0.203  0.1064  0.1850  0.3287
  709SOL    HW1 7964   6.443   0.433   0.167  0.4616 -1.8731  0.8669
  709SOL    HW2 7965   6.550   0.539   0.155 -1.4915  0.0184 -0.7852
  710SOL     OW 7966  11.312   5.221   0.196 -0.4815 -0.3340 -0.4175
  710SOL    HW1 7967  11.392   5.171   0.214 -0.0792  0.9628  1.5851
  710SOL    HW2 7968  11.245   5.153   0.182  0.7638 -1.4306 -1.3613
  711SOL     OW 7969   9.379   7.554   2.223 -0.1983 -0.3163 -0.0605
  711SOL    HW1 7970   9.426   7.632   2.194 -1.5814 -0.0318 -1.7330
  711SOL    HW2 7971   9.290   7.586   2.241 -0.6862 -1.4326 -0.4159
  712SOL     OW 7972   4.510  10.463   1.566 -0.1061  0.3982  0.0719
  712SOL    HW1 7973   4.459  10.398   1.614  0.2642  1.1128  1.4959
  712SOL    HW2 7974   4.572  10.411   1.514  0.5613 -0.4186  1.6060
  713SOL     OW 7975   0.279   6.343   5.893  0.0673 -0.6418 -0.5122
  713SOL    HW1 7976   0.336   6.411   5.928 -0.7009 -1.3009  2.2252
  713SOL    HW2 7977   0.195   6.386   5.879  0.8605  0.1333 -3.7990
  714SOL     OW 7978   9.265   1.137   6.794  0.4457  0.5785  0.5179
  714SOL    HW1 7979   9.293   1.077   6.863  0.0646 -0.8421 -0.5091
  714SOL    HW2 7980   9.300   1.098   6.713 -0.3211  1.4156 -0.2396
  715SOL     OW 7981  10.707   9.224   4.784 -0.4565  0.0572 -0.5627
  715SOL    HW1 7982  10.735   9.280   4.712 -1.6763  0.0206 -1.0865
  715SOL    HW2 7983  10.666   9.284   4.847 -0.3086 -0.0457 -0.3648
  716SOL     OW 7984  12.256   3.938   6.019 -0.2918  0.7050  0.1032
  716SOL    HW1 7985  12.299   3.944   5.934 -0.2848  1.2752  0.1418
  716SOL    HW2 7986  12.268   4.025   6.058  1.5769 -0.1365  1.5763
  717SOL     OW 7987   1.500   1.032   7.079  0.8875 -0.0595 -0.2602
  717SOL    HW1 7988   1.425   1.045   7.136  0.7816 -4.5425  0.9852
  717SOL    HW2 7989   1.462   1.019   6.992  0.4646  0.2050 -0.1164
  718SOL     OW 7990   7.576  11.990   0.529 -0.6782 -0.1576 -0.1124
  718SOL    HW1 7991   7.668  12.012   0.538 -0.4844 -0.6005 -0.9294
  718SOL    HW2 7992   7.537  12.013   0.613  0.3744 -0.9094  0.6030
  719SOL     OW 7993   3.005  11.511   9.470  0.2792  0.0257 -0.0924
  719SOL    HW1 7994   3.072  11.573   9.499  0.9919  0.0192 -1.6044
  719SOL    HW2 7995   3.022  11.501   9.376 -1.4470 -0.4850 -0.3703
  720SOL     OW 7996   1.379  11.920   4.783  0.2696  0.3100  0.3192
  720SOL    HW1 7997   1.388  11.834   4.743 -1.1741 -1.2079  2.9802
  720SOL    HW2 7998   1.366  11.902   4.876  2.2420  3.5319  1.4049
  721SOL     OW 7999   0.607  10.236  12.117  0.3977  0.6234 -0.3769
  721SOL    HW1 8000   0.551  10.244  12.194 -0.1460 -3.2365 -0.1894
  721SOL    HW2 8001   0.695  10.225  12.154 -0.0848 -3.3166  0.0637
  722SOL     OW 8002   8.076   0.627   0.390 -0.7449 -0.3041 -0.4450
  722SOL    HW1 8003   8.034   0.688   0.330 -0.3227 -1.3085 -1.8091
  722SOL    HW2 8004   8.042   0.541   0.365 -0.0100 -0.8265  0.2905
  723SOL     OW 8005   7.107  10.760  11.198 -0.3724 -0.2827  0.4405
  723SOL    HW1 8006   7.197  10.780  11.223 -0.2218 -0.1584 -0.1772
  723SOL    HW2 8007   7.116  10.700  11.123 -0.8096 -1.2492  1.1401
  724SOL     OW 8008  11.652   9.378   8.214 -0.2907  0.3156 -0.4944
  724SOL    HW1 8009  11.654   9.471   8.234 -3.0944  0.5762 -0.9597
  724SOL    HW2 8010  11.611   9.338   8.291  1.2744 -0.6367 -0.1125
  725SOL     OW 8011   7.353   4.603   4.519  0.0410  0.3311  0.4315
  725SOL    HW1 8012   7.418   4.542   4.484 -0.3866 -0.0084  0.2213
  725SOL    HW2 8013   7.280   4.599   4.457  0.8500  2.6830 -0.7825
  726SOL     OW 8014  10.384  11.579  10.777 -0.3865 -0.2028  0.0496
  726SOL    HW1 8015  10.297  11.540  10.770  0.4742 -1.8824 -3.1749
  726SOL    HW2 8016  10.437  11.511  10.819  0.2019 -0.9654 -1.8143
  727SOL     OW 8017   8.558   0.248   3.916 -0.0761  0.2314 -0.0638
  727SOL    HW1 8018   8.550   0.343   3.905  1.1894  0.4919  1.0350
  727SOL    HW2 8019   8.537   0.212   3.829  1.1343  1.6200 -0.9765
  728SOL     OW 8020   8.446   4.465   4.576  0.4191  0.5474 -0.2113
  728SOL    HW1 8021   8.533   4.462   4.536  0.1695  0.2985 -0.7547
  728SOL    HW2 8022   8.394   4.515   4.513 -0.4958 -1.5883 -1.2548
  729SOL     OW 8023  10.389   5.122   0.503 -0.6626  0.8798  0.5421
  729SOL    HW1 8024  10.351   5.067   0.435  1.6482 -1.9336  1.3737
  729SOL    HW2 8025  10.433   5.192   0.455 -0.6211 -0.0115 -0.7674
  730SOL     OW 8026   1.037  10.273   3.586 -0.5061 -0.0889  0.4618
  730SOL    HW1 8027   1.015  10.359   3.549  0.8765  0.5774  1.1178
  730SOL    HW2 8028   0.969  10.257   3.651 -1.6945 -0.2580 -0.7724
  731SOL     OW 8029   1.435  11.111   9.248 -0.2464  0.8440  0.1241
  731SOL    HW1 8030   1.368  11.128   9.181 -0.4792  0.0132  0.1376
  731SOL    HW2 8031   1.499  11.181   9.236 -0.5199  0.9697 -0.6656
  732SOL     OW 8032  11.886   3.819   2.233  0.5335  0.0119  0.0533
  732SOL    HW1 8033  11.938   3.759   2.179  1.0963 -0.2222  0.8468
  732SOL    HW2 8034  11.858   3.765   2.307  0.2038  0.4734  0.2634
  733SOL     OW 8035   7.722  10.809   7.885 -0.0442  0.1312 -0.6601
  733SOL    HW1 8036   7.686  10.898   7.894 -0.9123 -0.3930  1.8589
  733SOL    HW2 8037   7.709  10.787   7.793 -2.3612  1.5865 -0.7686
  734SOL     OW 8038   3.331   4.998   6.695  0.4533  0.3026  0.0477
  734SOL    HW1 8039   3.274   5.013   6.770 -0.0095  0.5061 -0.3446
  734SOL    HW2 8040   3.414   4.969   6.734 -0.4130 -1.6497  0.5732
  735SOL     OW 8041   1.436   7.392   9.196  0.0651 -0.2462  1.2009
  735SOL    HW1 8042   1.396   7.474   9.171 -0.0215 -0.0843  1.8520
  735SOL    HW2 8043   1.447   7.398   9.291  0.0077 -1.0037  1.2646
  736SOL     OW 8044  11.879   6.644   7.093 -0.3380  0.0568 -0.8787
  736SOL    HW1 8045  11.789   6.637   7.124 -0.2581  1.6078 -0.1825
  736SOL    HW2 8046  11.907   6.732   7.120  1.0685 -0.0330 -1.9075
  737SOL     OW 8047   4.841   6.835  10.320 -0.0272  0.1857 -0.0228
  737SOL    HW1 8048   4.780   6.901  10.288 -0.5100 -0.3965 -0.3323
  737SOL    HW2 8049   4.826   6.832  10.415 -0.8644 -0.3099 -0.1543
  738SOL     OW 8050   3.719   0.649   7.268  0.6137 -0.2497 -0.6066
  738SOL    HW1 8051   3.777   0.701   7.212  1.1452 -0.1732 -0.0009
  738SOL    HW2 8052   3.664   0.714   7.313  0.7103 -0.2572 -0.4746
  739SOL     OW 8053   4.029  10.568   3.762  0.3937 -0.4775  0.2026
  739SOL    HW1 8054   3.992  10.655   3.772  2.3199  0.2299  1.9238
  739SOL    HW2 8055   3.964  10.509   3.799 -0.9457  0.1710 -1.0067
  740SOL     OW 8056   6.923  10.786   9.791  0.0592 -0.6049  0.6138
  740SOL    HW1 8057   6.930  10.779   9.696  1.3252  1.8938  0.4532
  740SOL    HW2 8058   6.829  10.797   9.808 -0.2267 -1.5203 -0.2788
  741SOL     OW 8059  10.492   9.105   5.716 -0.0512  0.1282  0.0285
  741SOL    HW1 8060  10.407   9.131   5.753  0.1941 -1.6030  1.9823
  741SOL    HW2 8061  10.555   9.163   5.759  0.1852 -1.5965  2.1490
  742SOL     OW 8062  11.707  12.185  11.271 -0.3258  0.1975  0.0054
  742SOL    HW1 8063  11.768  12.173  11.198 -0.8971  0.6907 -0.5620
  742SOL    HW2 8064  11.660  12.265  11.249 -1.5129 -0.4331  0.1890
  743SOL     OW 8065  12.104   8.573   4.782 -0.8260 -0.0088 -0.2990
  743SOL    HW1 8066  12.032   8.530   4.829  0.0588 -0.0660  1.0651
  743SOL    HW2 8067  12.167   8.503   4.767 -0.0117  0.4882  0.6637
  744SOL     OW 8068   8.179   1.370  11.568  0.2264 -0.5181 -0.7751
  744SOL    HW1 8069   8.173   1.300  11.632 -2.9507 -0.7980 -1.1928
  744SOL    HW2 8070   8.264   1.411  11.584  1.0916 -2.8316  1.1473
  745SOL     OW 8071   4.961   1.087   4.849 -0.1682  0.0131 -0.4184
  745SOL    HW1 8072   4.956   1.153   4.779 -1.0884 -1.2210 -1.5793
  745SOL    HW2 8073   4.903   1.017   4.819  0.5594 -1.2045  0.9114
  746SOL     OW 8074   8.682   9.697   5.942  0.0062 -0.2325  0.5181
  746SOL    HW1 8075   8.731   9.654   5.872 -0.2551  0.6464 -0.2182
  746SOL    HW2 8076   8.597   9.653   5.943 -0.5205  0.7347 -0.7178
  747SOL     OW 8077   6.790   2.122   5.053  0.0543 -0.4821  0.1292
  747SOL    HW1 8078   6.725   2.138   5.121  0.2401  1.4802 -0.0935
  747SOL    HW2 8079   6.740   2.083   4.981 -0.8313  0.6577  0.1019
  748SOL     OW 8080   5.867   0.408  11.056  0.5417 -0.1398 -0.3829
  748SOL    HW1 8081   5.848   0.479  10.994 -3.6222 -1.1619 -0.6396
  748SOL    HW2 8082   5.860   0.448  11.142 -1.0246 -0.0043 -0.5414
  749SOL     OW 8083  10.130  10.521   3.768 -0.1710  0.5915 -0.2075
  749SOL    HW1 8084  10.099  10.504   3.857  0.4901  0.6190  0.0385
  749SOL    HW2 8085  10.056  10.501   3.711 -0.0401 -1.1982  0.2154
  750SOL     OW 8086   0.336   2.663   2.559  0.2883  0.1270  0.8282
  750SOL    HW1 8087   0.244   2.675   2.535  0.1923 -0.3324  0.9396
  750SOL    HW2 8088   0.369   2.751   2.576 -0.0870  0.3078  0.6219
  751SOL     OW 8089   7.236   6.907   0.707  0.2372 -0.5117  0.8081
  751SOL    HW1 8090   7.166   6.934   0.767  0.1448 -0.1104  0.5242
  751SOL    HW2 8091   7.194   6.906   0.621  0.5229 -0.4956  0.6679
  752SOL     OW 8092   0.065   9.659  11.846  0.2158 -0.5199 -0.0568
  752SOL    HW1 8093   0.015   9.695  11.920  1.6198 -2.2799  1.8751
  752SOL    HW2 8094   0.156   9.681  11.867  0.5331  0.4923 -2.2435
  753SOL     OW 8095   0.079  10.062   8.769 -0.8552  0.0154 -0.2601
  753SOL    HW1 8096   0.042  10.096   8.851 -1.6750 -2.5329  0.5209
  753SOL    HW2 8097   0.003  10.037   8.717 -0.3017  0.2860 -1.2235
  754SOL     OW 8098   3.244   5.767   2.903 -0.1452  0.0724  0.0756
  754SOL    HW1 8099   3.155   5.755   2.870  0.7858 -1.2058 -2.2062
  754SOL    HW2 8100   3.252   5.862   2.916 -1.4149  0.3525 -1.0135
  755SOL     OW 8101   5.228   5.074   4.579 -0.5070  0.2423  1.0435
  755SOL    HW1 8102   5.159   5.078   4.513 -0.5116  1.7625  1.1052
  755SOL    HW2 8103   5.276   5.157   4.569  1.1493 -0.6585  1.1743
  756SOL     OW 8104  10.859   9.731   4.721  0.2345 -0.1301  0.0290
  756SOL    HW1 8105  10.858   9.758   4.813  1.3344  0.5437 -0.1467
  756SOL    HW2 8106  10.842   9.812   4.672 -1.6868 -0.7047 -0.3495
  757SOL     OW 8107   9.195   3.248   3.129  0.4837 -0.2076 -0.5343
  757SOL    HW1 8108   9.160   3.337   3.134  0.0936 -0.4226  2.1456
  757SOL    HW2 8109   9.290   3.260   3.132  0.4477  0.1319 -0.7133
  758SOL     OW 8110  12.263  11.489   9.807 -0.4508  0.5886 -0.2148
  758SOL    HW1 8111  12.226  11.411   9.765  1.2444  0.2294 -1.1500
  758SOL    HW2 8112  12.227  11.562   9.756  0.2548  0.2400 -1.2492
  759SOL     OW 8113   1.963  10.599   3.481 -0.0646  0.1103 -0.2636
  759SOL    HW1 8114   2.033  10.623   3.541  0.8376  0.0052 -1.2439
  759SOL    HW2 8115   1.933  10.514   3.512 -1.3208  1.1308  1.5041
  760SOL     OW 8116   7.905   4.449   3.550 -0.0237 -0.1577  0.3227
  760SOL    HW1 8117   7.942   4.363   3.570 -0.2193 -0.2939  0.1029
  760SOL    HW2 8118   7.927   4.503   3.626  0.2200 -0.3649  0.3984
  761SOL     OW 8119   6.585   4.916   4.562  0.3547 -0.5851  0.1636
  761SOL    HW1 8120   6.492   4.906   4.543 -0.0071 -0.1444  1.6080
  761SOL    HW2 8121   6.620   4.960   4.484 -0.9214  0.5735  0.1987
  762SOL     OW 8122   3.413   1.626   6.202 -0.3828 -0.4404  0.3990
  762SOL    HW1 8123   3.502   1.591   6.214 -0.6465 -1.4997 -0.4951
  762SOL    HW2 8124   3.413   1.709   6.248  0.5065 -1.3001  2.0189
  763SOL     OW 8125   8.924  11.529  11.060 -0.1099  0.2202  0.0942
  763SOL    HW1 8126   8.861  11.465  11.027  0.4136  0.8482 -2.3201
  763SOL    HW2 8127   8.971  11.482  11.129 -0.2357 -1.7924 -1.0878
  764SOL     OW 8128   7.238   7.408   8.791 -0.0891  0.2109 -0.0361
  764SOL    HW1 8129   7.244   7.501   8.768  0.9088  0.1443 -0.1068
  764SOL    HW2 8130   7.196   7.367   8.716 -3.0635  0.9638  1.0651
  765SOL     OW 8131  11.963   8.523   2.260  0.6522 -0.0237  0.1782
  765SOL    HW1 8132  11.918   8.501   2.178 -0.5370 -0.5571  0.9380
  765SOL    HW2 8133  11.949   8.617   2.270 -1.8157 -0.4295  1.2218
  766SOL     OW 8134  10.950   3.935  12.307 -0.2336  0.2121  0.4420
  766SOL    HW1 8135  10.943   3.906  12.216  0.1107  0.2680  0.3956
  766SOL    HW2 8136  11.033   3.984  12.310  0.2280 -0.5857  1.0018
  767SOL     OW 8137   6.519   3.542   6.173  0.2328  0.5486 -0.4172
  767SOL    HW1 8138   6.492   3.497   6.093  0.5188 -0.3441 -0.0168
  767SOL    HW2 8139   6.599   3.588   6.149  0.1089  0.5994 -0.7387
  768SOL     OW 8140   7.170   3.100   1.715  0.1846  0.0845  0.3016
  768SOL    HW1 8141   7.216   3.146   1.784  2.8710 -1.4531 -0.3095
  768SOL    HW2 8142   7.239   3.073   1.654 -1.4644 -2.6733 -0.5299
  769SOL     OW 8143   1.722   2.559   2.107  0.1237 -0.5342 -0.4430
  769SOL    HW1 8144   1.769   2.565   2.190  1.1351 -0.1655 -1.0283
  769SOL    HW2 8145   1.630   2.566   2.131  0.4653  1.0615  0.5225
  770SOL     OW 8146  11.103  10.656   3.671 -0.5979 -0.4372 -0.0689
  770SOL    HW1 8147  11.189  10.689   3.696  1.2838 -2.7609 -2.8037
  770SOL    HW2 8148  11.071  10.718   3.605 -0.9691  0.3258  0.8133
  771SOL     OW 8149   9.227  10.631   7.074  0.1433 -0.1033  0.5688
  771SOL    HW1 8150   9.320  10.629   7.096  0.2693 -0.4634  0.0358
  771SOL    HW2 8151   9.210  10.722   7.052  0.3285  0.0003  0.8525
  772SOL     OW 8152   9.926  10.695   4.224  0.3200 -0.0080 -0.0265
  772SOL    HW1 8153   9.917  10.612   4.271 -0.1787  0.5390  0.8816
  772SOL    HW2 8154   9.885  10.759   4.282  1.3422  0.9884 -0.3888
  773SOL     OW 8155   5.294   6.686   1.907  0.1941 -0.9616 -0.3044
  773SOL    HW1 8156   5.385   6.690   1.880  0.4043 -0.7082  0.4139
  773SOL    HW2 8157   5.295   6.635   1.988 -0.1526 -0.0171  0.3098
  774SOL     OW 8158   1.762   1.398  10.730 -0.1023  0.2544  0.6326
  774SOL    HW1 8159   1.769   1.395  10.634  0.6922 -0.8350  0.7084
  774SOL    HW2 8160   1.791   1.312  10.759  1.4904  1.1839  1.9509
  775SOL     OW 8161  10.246   2.956   3.730  0.1756  0.2596 -0.0424
  775SOL    HW1 8162  10.312   2.962   3.661  0.5288  1.7554  0.3943
  775SOL    HW2 8163  10.246   2.863   3.754 -0.3993 -0.4340 -2.4299
  776SOL     OW 8164   8.209   3.598   8.521  0.2451 -0.1820  0.3307
  776SOL    HW1 8165   8.122   3.596   8.480  0.4977  1.7665 -0.4411
  776SOL    HW2 8166   8.218   3.513   8.563 -2.9597  0.3209  2.3738
  777SOL     OW 8167  11.538   0.073   3.875 -0.1519 -0.7310 -0.0472
  777SOL    HW1 8168  11.515   0.160   3.844 -2.3996 -0.9635  0.7635
  777SOL    HW2 8169  11.566   0.025   3.797 -0.0429  0.3740 -0.6965
  778SOL     OW 8170  10.819  10.938   7.284 -0.6152  0.2362  0.3072
  778SOL    HW1 8171  10.726  10.950   7.300 -0.4518  2.4980 -0.2042
  778SOL    HW2 8172  10.862  10.986   7.355  0.1973 -0.7378  0.5108
  779SOL     OW 8173   0.380   1.697  12.320 -0.0694  0.1822  0.7021
  779SOL    HW1 8174   0.348   1.775  12.365 -1.8652  0.8676 -1.5855
  779SOL    HW2 8175   0.385   1.723  12.228 -1.2911 -2.5590 -0.2198
  780SOL     OW 8176   5.371  11.330   0.049 -0.6350  0.0336  0.1456
  780SOL    HW1 8177   5.435  11.359   0.114  0.0564  0.1905 -0.5939
  780SOL    HW2 8178   5.422  11.313  -0.030 -1.5766  0.7956 -0.6677
  781SOL     OW 8179   0.446   1.304   9.293  0.0740 -0.3373 -0.0372
  781SOL    HW1 8180   0.392   1.315   9.372 -0.1090  0.8367 -0.2982
  781SOL    HW2 8181   0.383   1.302   9.221  0.2253 -1.6594 -0.1485
  782SOL     OW 8182  11.314  11.686   1.429 -0.4795 -0.5036 -0.4304
  782SOL    HW1 8183  11.400  11.644   1.419  1.5232  2.6268  1.6781
  782SOL    HW2 8184  11.304  11.696   1.524 -1.9274  1.4674 -0.7360
  783SOL     OW 8185  10.869  12.091   3.462  0.2194  0.1573  0.9325
  783SOL    HW1 8186  10.845  12.064   3.550  0.1443  0.4834  1.0114
  783SOL    HW2 8187  10.786  12.104   3.417  0.2258  1.4518  1.2571
  784SOL     OW 8188  10.160   2.043  11.759  0.1073 -0.5501  0.4447
  784SOL    HW1 8189  10.167   1.976  11.827 -1.6954  0.0472  1.2814
  784SOL    HW2 8190  10.191   2.123  11.801  1.6768 -0.6959 -0.3624
  785SOL     OW 8191   9.641   2.969   9.700  0.4203 -0.0016 -0.3318
  785SOL    HW1 8192   9.689   3.026   9.761  0.3092 -0.6215  0.3567
  785SOL    HW2 8193   9.693   2.970   9.620 -0.0652  1.7979 -0.6595
  786SOL     OW 8194   8.612   7.836   5.396  0.3121  0.3862  0.1989
  786SOL    HW1 8195   8.532   7.784   5.384  0.9476 -0.1836 -2.2353
  786SOL    HW2 8196   8.581   7.926   5.407 -0.7002 -0.0230  0.7855
  787SOL     OW 8197   3.652   4.725  10.046  0.7476 -0.2612 -0.4917
  787SOL    HW1 8198   3.612   4.812  10.056  1.3525 -0.0177 -0.1670
  787SOL    HW2 8199   3.616   4.674  10.119 -0.8982 -0.7936 -1.6133
  788SOL     OW 8200   3.729   4.133   8.882 -0.0174  0.0660  0.2948
  788SOL    HW1 8201   3.642   4.157   8.914 -0.5364 -0.9114 -0.3020
  788SOL    HW2 8202   3.775   4.216   8.871 -0.0155  0.4769  2.9230
  789SOL     OW 8203   2.560   7.390   1.705 -0.3656 -0.4221  0.1481
  789SOL    HW1 8204   2.627   7.458   1.709 -0.3066 -0.4996  0.4909
  789SOL    HW2 8205   2.540   7.370   1.796  0.8339 -2.0550  0.0820
  790SOL     OW 8206   5.454  11.033   8.148 -0.5677 -0.2570  0.2010
  790SOL    HW1 8207   5.421  11.108   8.197  0.1859  0.8524 -0.9314
  790SOL    HW2 8208   5.543  11.059   8.121 -0.8176 -0.9554 -1.4285
  791SOL     OW 8209   3.038   4.095   3.092  0.2151  0.6335  0.0452
  791SOL    HW1 8210   2.961   4.057   3.134  1.1384 -2.1490 -0.5919
  791SOL    HW2 8211   3.104   4.101   3.162  0.7822 -1.1380 -0.3050
  792SOL     OW 8212   8.933  10.175   9.655 -0.0820  0.5100  0.6975
  792SOL    HW1 8213   8.939  10.270   9.642 -0.4186  0.5600  0.8976
  792SOL    HW2 8214   8.986  10.159   9.733  1.3626  0.3045 -0.2865
  793SOL     OW 8215   5.760   2.305  12.163  0.3007 -0.2771  0.7661
  793SOL    HW1 8216   5.836   2.291  12.105 -1.6329  1.6090 -2.5230
  793SOL    HW2 8217   5.725   2.217  12.178  1.1025 -0.8713 -0.6557
  794SOL     OW 8218   2.976  10.635   1.720  0.3810 -0.3590  0.2359
  794SOL    HW1 8219   2.959  10.541   1.730 -0.6747 -0.2829 -0.6939
  794SOL    HW2 8220   2.896  10.678   1.749  0.0070  0.1406 -1.4356
  795SOL     OW 8221   9.012   8.584   4.042 -0.4767  0.2910  0.8585
  795SOL    HW1 8222   8.962   8.583   4.124 -0.0497  0.2440  1.1191
  795SOL    HW2 8223   8.983   8.505   3.996 -0.4015  0.0865  1.1570
  796SOL     OW 8224  12.001  10.504  10.906  0.1042 -0.3958 -0.4825
  796SOL    HW1 8225  11.987  10.578  10.965 -1.9106 -1.6996  0.7779
  796SOL    HW2 8226  11.974  10.536  10.820 -0.4315  0.4287 -0.0151
  797SOL     OW 8227   1.663   1.801   0.271  0.2265  0.3661  0.1143
  797SOL    HW1 8228   1.610   1.818   0.349 -0.8608  0.2201 -0.5670
  797SOL    HW2 8229   1.619   1.728   0.228  2.5045 -1.5668  0.8723
  798SOL     OW 8230   9.102   7.458  10.331 -0.5097  0.2230  0.0183
  798SOL    HW1 8231   9.165   7.528  10.345 -0.1700  0.2470 -1.4659
  798SOL    HW2 8232   9.059   7.446  10.416  0.2923  1.3690  0.6013
  799SOL     OW 8233   5.192   4.566   7.260 -0.0324 -0.2463 -0.4451
  799SOL    HW1 8234   5.202   4.480   7.302 -0.4211  0.0142  0.1958
  799SOL    HW2 8235   5.239   4.626   7.317 -0.0603  0.0201 -0.7016
  800SOL     OW 8236   2.064  11.299   3.946 -0.2785  0.2183  0.6029
  800SOL    HW1 8237   2.106  11.335   4.024  1.6552 -0.2496 -0.1387
  800SOL    HW2 8238   2.092  11.357   3.875 -0.1264 -0.6361 -0.0620
  801SOL     OW 8239   4.148  10.877   5.829 -0.0642  0.2813 -0.1792
  801SOL    HW1 8240   4.063  10.909   5.799 -1.1147 -0.3883  1.8680
  801SOL    HW2 8241   4.166  10.801   5.774 -1.7881 -0.7456  0.5763
  802SOL     OW 8242   3.064   1.911   5.594 -0.1487  0.1789 -0.5822
  802SOL    HW1 8243   3.148   1.934   5.633  0.1811 -3.0218  0.8972
  802SOL    HW2 8244   3.086   1.877   5.507 -0.0615  0.6047 -0.7249
  803SOL     OW 8245   9.814   2.414   9.735 -0.0294 -0.1509 -0.1049
  803SOL    HW1 8246   9.861   2.339   9.770  0.5892  0.5860  0.6854
  803SOL    HW2 8247   9.839   2.487   9.792 -1.0881  0.5318 -0.4806
  804SOL     OW 8248   9.129   6.797   1.567 -0.8016 -0.7637 -0.0816
  804SOL    HW1 8249   9.133   6.884   1.607 -0.2804 -1.7777  2.2358
  804SOL    HW2 8250   9.039   6.769   1.579 -0.8514 -0.7483 -0.4014
  805SOL     OW 8251  10.930   2.819  11.937 -0.1896 -0.1044 -0.0718
  805SOL    HW1 8252  10.974   2.759  11.998  0.4950  1.3478  0.9049
  805SOL    HW2 8253  10.944   2.778  11.851 -0.2229 -1.6220  0.6004
  806SOL     OW 8254   6.315   9.517   3.942  0.0229  0.0276 -0.1195
  806SOL    HW1 8255   6.383   9.488   4.003 -0.0265 -0.2363 -0.1848
  806SOL    HW2 8256   6.279   9.597   3.981 -2.0145 -1.6472  1.7455
  807SOL     OW 8257   5.365   5.664   8.087  0.0941  0.1798  0.1198
  807SOL    HW1 8258   5.311   5.725   8.038  0.6334  1.3026  0.8888
  807SOL    HW2 8259   5.400   5.604   8.020 -1.1263  0.1548 -0.5268
  808SOL     OW 8260  11.758   5.260  11.675 -0.1897 -0.4185 -0.1158
  808SOL    HW1 8261  11.816   5.186  11.689 -0.1115 -0.4950 -0.8040
  808SOL    HW2 8262  11.675   5.222  11.649 -0.2729 -0.2780 -0.0606
  809SOL     OW 8263   0.406  10.954  12.157 -0.4058  0.3077  0.6417
  809SOL    HW1 8264   0.330  10.902  12.182 -0.9140  0.8031  0.1707
  809SOL    HW2 8265   0.410  11.023  12.224  0.5047 -0.5388  1.4964
  810SOL     OW 8266   4.039   8.853   4.382  0.3226  0.1759  0.3543
  810SOL    HW1 8267   4.026   8.797   4.458  0.6523  1.2109  1.1941
  810SOL    HW2 8268   4.130   8.882   4.389  0.1567  0.8216 -0.0692
  811SOL     OW 8269   4.705   9.568   4.582 -0.1668 -0.1871  0.4184
  811SOL    HW1 8270   4.779   9.510   4.566  2.8065  3.1597  0.7942
  811SOL    HW2 8271   4.707   9.631   4.510 -2.3385  0.3545  0.7528
  812SOL     OW 8272  11.129   3.364   1.311  0.0572 -0.0241  0.4669
  812SOL    HW1 8273  11.090   3.428   1.371  0.7705  1.6955 -0.8236
  812SOL    HW2 8274  11.222   3.385   1.311  0.1606 -0.4211 -0.7066
  813SOL     OW 8275  10.073  11.098  12.157  0.3289 -0.2602  0.3235
  813SOL    HW1 8276  10.023  11.060  12.229 -0.0463 -0.1074  0.1426
  813SOL    HW2 8277  10.021  11.173  12.128 -0.5424 -1.4753 -1.4410
  814SOL     OW 8278   2.517   2.171   0.990  0.0615  0.5171 -0.2991
  814SOL    HW1 8279   2.492   2.242   1.049 -0.8342 -0.9113  1.1467
  814SOL    HW2 8280   2.554   2.104   1.048  1.9116  0.2226 -1.7374
  815SOL     OW 8281  10.853   5.672   4.676  0.0212  0.7855  0.2660
  815SOL    HW1 8282  10.786   5.670   4.607 -0.4372  1.7549  0.6627
  815SOL    HW2 8283  10.917   5.737   4.645 -0.4806  1.6504  0.9979
  816SOL     OW 8284   9.783   2.003   0.179 -0.2228  0.0304 -0.1068
  816SOL    HW1 8285   9.736   2.061   0.238 -1.1356 -1.2253  0.4522
  816SOL    HW2 8286   9.872   2.039   0.175  0.1084 -0.2531  2.6628
  817SOL     OW 8287   0.720   1.642   8.135 -0.2462 -0.1893 -0.1379
  817SOL    HW1 8288   0.776   1.687   8.198 -1.0472 -0.3898  0.7557
  817SOL    HW2 8289   0.711   1.703   8.062  0.7343  0.0347 -0.0871
  818SOL     OW 8290   0.843   9.301   1.865  0.0082 -0.0601  0.4156
  818SOL    HW1 8291   0.921   9.352   1.841 -0.3849  0.3318 -0.0306
  818SOL    HW2 8292   0.867   9.211   1.845  0.0656  0.1458 -0.4648
  819SOL     OW 8293   9.629  12.077   0.363  0.4099  0.2823  0.1245
  819SOL    HW1 8294   9.596  11.988   0.355 -0.7970  0.4785  2.1758
  819SOL    HW2 8295   9.724  12.067   0.357  0.2203 -0.7315 -2.4535
  820SOL     OW 8296   6.721   7.814  10.469 -0.2760 -0.2119  0.6617
  820SOL    HW1 8297   6.784   7.783  10.404 -1.6068  0.6640 -1.1566
  820SOL    HW2 8298   6.647   7.753  10.461 -0.1697 -0.5285  1.9109
  821SOL     OW 8299   8.043   7.074   8.406 -0.1189  0.0860  0.1156
  821SOL    HW1 8300   7.972   7.035   8.456 -1.7348  1.1565 -1.2426
  821SOL    HW2 8301   8.008   7.086   8.317  1.5474  1.1648 -0.4694
  822SOL     OW 8302   4.471   5.765   7.108 -0.4251 -0.0728  0.0562
  822SOL    HW1 8303   4.381   5.792   7.126 -0.3194 -0.2605  0.9182
  822SOL    HW2 8304   4.482   5.683   7.156  0.2904  0.0861  0.1833
  823SOL     OW 8305   2.910  10.625  11.425 -0.2392  0.0507 -0.1411
  823SOL    HW1 8306   2.876  10.570  11.495  0.0863  0.4375  0.3292
  823SOL    HW2 8307   2.965  10.566  11.373 -2.9987 -1.0622 -2.0185
  824SOL     OW 8308   6.437  12.320   8.731 -0.6615 -0.2373  0.0605
  824SOL    HW1 8309   6.354  12.293   8.693 -0.2184 -0.1875 -0.9804
  824SOL    HW2 8310   6.468  12.391   8.674  0.3039 -0.5661  0.1451
  825SOL     OW 8311   1.281   6.818   9.688  0.1666 -0.8319  0.1168
  825SOL    HW1 8312   1.190   6.846   9.697 -0.0792 -1.3928 -0.4518
  825SOL    HW2 8313   1.288   6.740   9.743  0.3080 -0.7722  0.1830
  826SOL     OW 8314   1.533   8.339  11.259 -0.8106  0.3182 -0.4157
  826SOL    HW1 8315   1.533   8.434  11.245 -0.5188  0.0719 -2.3636
  826SOL    HW2 8316   1.576   8.327  11.344 -1.8321  1.9676  0.3886
  827SOL     OW 8317   9.407   2.002   6.170 -0.4213  0.4557 -0.2168
  827SOL    HW1 8318   9.349   2.019   6.245 -0.5196  0.0271 -0.1920
  827SOL    HW2 8319   9.356   2.028   6.094 -0.8375 -0.3609 -0.2329
  828SOL     OW 8320   9.544   8.858   8.494 -0.0177 -0.2984  0.5657
  828SOL    HW1 8321   9.569   8.950   8.486  0.2744 -0.5316 -2.4262
  828SOL    HW2 8322   9.460   8.852   8.449 -0.1869 -1.4400  1.0022
  829SOL     OW 8323   0.562   6.886   4.111 -0.4388 -0.1545 -0.0126
  829SOL    HW1 8324   0.609   6.954   4.158 -0.7600  1.6070 -2.0602
  829SOL    HW2 8325   0.476   6.924   4.094 -0.3825 -0.7102 -1.8364
  830SOL     OW 8326   4.428   5.756   2.712  0.4704 -0.0964  0.1923
  830SOL    HW1 8327   4.372   5.825   2.676  0.5763  0.8242  1.7028
  830SOL    HW2 8328   4.371   5.680   2.720 -0.8569  1.0460  2.4788
  831SOL     OW 8329   3.464   0.425   8.656  0.0271  0.0119 -0.5516
  831SOL    HW1 8330   3.544   0.400   8.701 -0.0474 -1.1342 -1.0213
  831SOL    HW2 8331   3.396   0.371   8.696 -0.5275  0.9618 -0.1612
  832SOL     OW 8332   8.206   6.676   3.073 -0.3777 -0.1676  0.3575
  832SOL    HW1 8333   8.131   6.618   3.070 -0.2616 -0.4263  1.7697
  832SOL    HW2 8334   8.229   6.691   2.981 -2.1940  0.0027 -0.0980
  833SOL     OW 8335   2.748   0.239  12.325  0.6676 -0.1434  0.3178
  833SOL    HW1 8336   2.767   0.173  12.258 -0.7918 -1.0028  0.7031
  833SOL    HW2 8337   2.763   0.193  12.408  2.2455  0.8458  0.6177
  834SOL     OW 8338   9.966   5.837   2.774 -0.6057 -0.2201  0.3684
  834SOL    HW1 8339   9.895   5.888   2.812 -2.6217 -1.9932 -0.8206
  834SOL    HW2 8340   9.943   5.746   2.791  0.7325 -0.8889 -1.1101
  835SOL     OW 8341  11.494  11.847  11.758 -0.1298 -0.4321 -0.5360
  835SOL    HW1 8342  11.487  11.865  11.664 -0.5663 -1.1274 -0.6511
  835SOL    HW2 8343  11.403  11.853  11.790  0.1442  0.8146  0.0442
  836SOL     OW 8344   0.857  10.017   8.421 -0.3066  0.6799  0.2453
  836SOL    HW1 8345   0.895  10.037   8.336  1.8658 -1.7020  0.5443
  836SOL    HW2 8346   0.778   9.967   8.401  1.3160 -1.7479 -0.4640
  837SOL     OW 8347  11.335   5.167   0.525 -0.6251 -0.1209 -0.1832
  837SOL    HW1 8348  11.376   5.110   0.459 -0.8863 -0.5099 -0.0151
  837SOL    HW2 8349  11.408   5.207   0.571 -0.4329  0.7538 -1.2150
  838SOL     OW 8350   3.962   9.306   6.247  0.4937 -0.6596 -0.7328
  838SOL    HW1 8351   3.936   9.249   6.319 -2.0978  0.8106 -0.4101
  838SOL    HW2 8352   3.966   9.394   6.284 -0.2153  0.0386 -2.2083
  839SOL     OW 8353   6.905   0.446   1.493  0.0220  0.1414  0.9813
  839SOL    HW1 8354   6.940   0.500   1.564  0.5003  0.2588  0.6597
  839SOL    HW2 8355   6.957   0.366   1.495 -0.2066 -0.0108  0.9916
  840SOL     OW 8356   0.765   7.933   2.067  0.1140 -0.6638 -0.7388
  840SOL    HW1 8357   0.685   7.984   2.082 -0.3156 -1.6383  0.3959
  840SOL    HW2 8358   0.807   7.977   1.993 -0.5061  1.0183 -0.1466
  841SOL     OW 8359   6.819   3.452  12.272 -0.4400  0.0337  0.1529
  841SOL    HW1 8360   6.731   3.489  12.268  0.1206  1.3576 -0.3637
  841SOL    HW2 8361   6.814   3.373  12.218  0.0024  2.9909 -4.8254
  842SOL     OW 8362   3.895  10.867   4.411  0.3644  0.2055 -0.3849
  842SOL    HW1 8363   3.962  10.838   4.472 -0.6990 -1.5617  0.0109
  842SOL    HW2 8364   3.939  10.866   4.326  0.9459 -0.6060 -0.0914
  843SOL     OW 8365   6.186  10.605   4.879  0.1778 -0.6771 -0.3422
  843SOL    HW1 8366   6.238  10.572   4.806 -0.4683 -0.4120 -0.9372
  843SOL    HW2 8367   6.250  10.631   4.945  0.7792 -4.2880  0.7466
  844SOL     OW 8368   6.126  11.289   2.324  0.2988  0.5466 -0.3008
  844SOL    HW1 8369   6.157  11.275   2.414 -0.0623 -1.6088 -0.4460
  844SOL    HW2 8370   6.195  11.252   2.269 -0.6770 -0.6353 -0.7721
  845SOL     OW 8371  11.816   7.896   2.338  0.2048  0.2716  0.1416
  845SOL    HW1 8372  11.829   7.972   2.394 -0.6496  0.3203  0.2800
  845SOL    HW2 8373  11.791   7.933   2.253  0.2874  0.1585  0.0675
  846SOL     OW 8374   6.172   1.560   0.532  0.5255  0.0965 -0.0946
  846SOL    HW1 8375   6.137   1.639   0.574  1.6288  1.0716 -0.9479
  846SOL    HW2 8376   6.213   1.591   0.452  1.9394 -1.1962  0.0752
  847SOL     OW 8377   9.783  12.034  11.215  0.0700  0.1931  0.0264
  847SOL    HW1 8378   9.764  12.069  11.302  0.9015 -0.5508  0.5297
  847SOL    HW2 8379   9.773  11.939  11.224 -0.2079  0.1376 -0.7894
  848SOL     OW 8380   6.269   6.527  10.060 -0.3384  0.0042  0.1910
  848SOL    HW1 8381   6.179   6.547  10.038 -0.7268 -2.4908 -0.8683
  848SOL    HW2 8382   6.265   6.489  10.148 -0.4230 -0.5531 -0.0464
  849SOL     OW 8383   8.258   9.131   0.989 -0.4490  0.3646  0.7427
  849SOL    HW1 8384   8.302   9.055   0.949 -0.7120  1.6967 -2.3582
  849SOL    HW2 8385   8.272   9.120   1.083  1.5829 -2.2499  0.2540
  850SOL     OW 8386   0.092   4.099   9.495 -0.4040 -0.6148 -0.0772
  850SOL    HW1 8387   0.037   4.128   9.568  0.1997 -0.5850  0.3744
  850SOL    HW2 8388   0.180   4.128   9.518  0.0030 -1.6731 -0.2258
  851SOL     OW 8389  11.503   2.104   4.216  0.8544  0.1592 -0.9312
  851SOL    HW1 8390  11.511   2.013   4.187 -0.7696 -0.3404  0.0543
  851SOL    HW2 8391  11.435   2.141   4.159  1.5865  0.8051 -1.4022
  852SOL     OW 8392   8.111  10.719   9.713  0.0670  0.1110  0.5131
  852SOL    HW1 8393   8.098  10.719   9.618  0.3378  0.2566  0.4777
  852SOL    HW2 8394   8.055  10.648   9.745  1.4021 -1.1734  0.0531
  853SOL     OW 8395   8.186   3.432   9.632 -0.1475 -0.9697  0.1779
  853SOL    HW1 8396   8.148   3.402   9.550  0.9855 -0.3911 -0.5772
  853SOL    HW2 8397   8.277   3.403   9.629  0.6916  1.4989 -0.0809
  854SOL     OW 8398   1.949   8.220   5.428 -0.3129  0.0285  0.7392
  854SOL    HW1 8399   2.041   8.237   5.450  0.0982  0.6919 -1.2896
  854SOL    HW2 8400   1.935   8.128   5.450  0.9887 -0.2093  0.6345
  855SOL     OW 8401  11.555   2.830   8.514  0.0190 -0.1761 -0.0385
  855SOL    HW1 8402  11.611   2.905   8.533  0.5271 -0.4362 -0.4612
  855SOL    HW2 8403  11.466   2.866   8.510  0.3718  0.6107 -1.3279
  856SOL     OW 8404   2.746  10.199   3.210  0.4250 -0.4109 -0.0941
  856SOL    HW1 8405   2.752  10.111   3.249  4.0928 -0.2734 -0.0394
  856SOL    HW2 8406   2.727  10.257   3.284 -0.0497 -0.9275  0.1970
  857SOL     OW 8407  11.002   0.490   0.498  0.5601 -0.2672  0.5030
  857SOL    HW1 8408  10.909   0.479   0.518  0.2470  1.4963  0.2424
  857SOL    HW2 8409  11.047   0.427   0.555 -0.8100 -1.6112  0.1586
  858SOL     OW 8410   1.456   4.299   1.667  0.3884 -0.1503 -0.1311
  858SOL    HW1 8411   1.370   4.295   1.624  1.2153 -0.8889 -1.7967
  858SOL    HW2 8412   1.492   4.384   1.642 -0.3823  0.7843  1.7267
  859SOL     OW 8413   4.676   5.908   8.787  0.0432 -0.1469  0.1289
  859SOL    HW1 8414   4.765   5.871   8.786  0.4073  0.6487 -1.6132
  859SOL    HW2 8415   4.633   5.866   8.862  1.4821 -1.5349  0.2359
  860SOL     OW 8416   3.415   1.336   4.156 -0.7788  0.1767  0.4512
  860SOL    HW1 8417   3.324   1.364   4.151 -1.0208 -0.7551 -1.2398
  860SOL    HW2 8418   3.424   1.270   4.087  0.8101 -0.8361  1.5316
  861SOL     OW 8419   2.576   1.289  10.653  0.1970 -0.8611  0.1589
  861SOL    HW1 8420   2.626   1.215  10.687 -0.0378 -1.4057 -0.6486
  861SOL    HW2 8421   2.626   1.319  10.578  0.3901 -0.0674  0.5977
  862SOL     OW 8422   9.999   1.700   0.647  0.2920 -0.0675 -0.3366
  862SOL    HW1 8423   9.950   1.624   0.677 -1.5764 -0.0271 -2.9793
  862SOL    HW2 8424  10.063   1.665   0.586 -0.1325  0.3753 -1.0530
  863SOL     OW 8425   9.048   0.321   1.583  0.4557  0.0301  0.3110
  863SOL    HW1 8426   9.022   0.334   1.492  1.1891  0.4872  0.1570
  863SOL    HW2 8427   9.132   0.366   1.590  1.4462 -1.7573  0.6618
  864SOL     OW 8428  10.643   7.259   6.621  0.1103  0.0497  0.4006
  864SOL    HW1 8429  10.591   7.276   6.543  0.0725 -0.2263  0.3656
  864SOL    HW2 8430  10.610   7.176   6.655  1.1173 -0.5966 -0.1285
  865SOL     OW 8431   0.392   3.434   2.321 -0.0659  0.4688  0.0588
  865SOL    HW1 8432   0.341   3.512   2.300 -0.2404  0.6641  1.1880
  865SOL    HW2 8433   0.461   3.433   2.254 -0.3426  1.3177 -0.2551
  866SOL     OW 8434  11.487   3.575   9.791  0.8068 -0.1890 -0.1964
  866SOL    HW1 8435  11.524   3.645   9.738 -0.2500 -0.7020 -1.6787
  866SOL    HW2 8436  11.540   3.498   9.770 -0.6227 -0.7781 -1.8438
  867SOL     OW 8437   5.023   5.024   6.517 -0.5028  0.6255  0.3638
  867SOL    HW1 8438   4.967   5.025   6.594 -1.9188 -0.9651 -0.5627
  867SOL    HW2 8439   4.969   5.063   6.448  0.2803  0.8897 -0.1118
  868SOL     OW 8440  11.646   3.759   7.656  0.2230  0.2353 -0.2047
  868SOL    HW1 8441  11.684   3.758   7.568  0.1983  0.2652 -0.2153
  868SOL    HW2 8442  11.552   3.751   7.642  0.2161  0.2771 -0.1826
  869SOL     OW 8443  10.530   3.811   0.299 -0.3845  0.2358 -0.1353
  869SOL    HW1 8444  10.434   3.813   0.304 -0.3390 -0.9658  2.0328
  869SOL    HW2 8445  10.556   3.739   0.355  1.7691 -0.5210 -1.9482
  870SOL     OW 8446   3.304   3.057   4.501  0.3852 -0.0085  0.1649
  870SOL    HW1 8447   3.299   3.036   4.408  0.4677  0.4296  0.0576
  870SOL    HW2 8448   3.226   3.017   4.539  0.0690  0.2637 -0.1864
  871SOL     OW 8449   1.562   3.659   4.951 -0.5225 -0.1233 -0.1079
  871SOL    HW1 8450   1.614   3.735   4.926 -2.5088  1.4741  0.3401
  871SOL    HW2 8451   1.473   3.693   4.962 -1.2119 -2.2307  1.5706
  872SOL     OW 8452   9.472   7.837   0.404 -0.0875  0.7599  0.6643
  872SOL    HW1 8453   9.422   7.834   0.323 -0.6434  0.0881  1.0257
  872SOL    HW2 8454   9.556   7.796   0.382  0.1671  1.5215  0.1666
  873SOL     OW 8455   9.855   8.046   0.663 -0.0723 -0.1083 -0.0006
  873SOL    HW1 8456   9.933   7.993   0.644  1.1361  1.1826  1.1018
  873SOL    HW2 8457   9.836   8.028   0.755 -1.5325 -0.9241 -0.4342
  874SOL     OW 8458   1.006   3.501   6.810  0.0668 -0.5552  0.2739
  874SOL    HW1 8459   0.976   3.508   6.719 -0.3663  1.0619  0.5192
  874SOL    HW2 8460   0.958   3.425   6.844 -2.4920  0.8873  0.1257
  875SOL     OW 8461   4.826   0.735   4.304 -0.0110  0.0987  0.0516
  875SOL    HW1 8462   4.777   0.660   4.270  1.2542 -0.3207 -0.9176
  875SOL    HW2 8463   4.802   0.739   4.396 -2.0994  0.1169 -0.4281
  876SOL     OW 8464   2.626   9.966   6.805  0.3354 -0.1726 -0.3912
  876SOL    HW1 8465   2.603  10.059   6.798 -0.4393 -0.3889 -0.8676
  876SOL    HW2 8466   2.559   9.921   6.753 -0.9202 -1.2197  1.9627
  877SOL     OW 8467   2.844   8.084  11.700  0.0549  0.4190  0.2784
  877SOL    HW1 8468   2.784   8.064  11.628  0.6748 -0.0928 -0.1133
  877SOL    HW2 8469   2.831   8.012  11.762  0.0558  0.4629  0.3287
  878SOL     OW 8470   9.445   6.467   8.898  0.5342 -0.1464 -0.2470
  878SOL    HW1 8471   9.367   6.519   8.880  0.5018 -0.1172 -0.0282
  878SOL    HW2 8472   9.454   6.470   8.993  0.4225 -0.7051 -0.2173
  879SOL     OW 8473   6.880   3.645  11.133  0.1041  0.2049  0.2802
  879SOL    HW1 8474   6.886   3.605  11.220  0.3511 -2.3621 -0.7977
  879SOL    HW2 8475   6.790   3.631  11.106  0.4037 -0.4215 -0.4435
  880SOL     OW 8476   5.024   8.804   5.786 -0.1820  0.2053  0.5391
  880SOL    HW1 8477   5.078   8.841   5.855  1.3828  0.1274 -0.5841
  880SOL    HW2 8478   4.937   8.798   5.824  0.5019  0.7299  2.2801
  881SOL     OW 8479   4.536   8.068   9.040  0.3191 -0.7287 -0.2633
  881SOL    HW1 8480   4.630   8.078   9.024  0.4740 -0.0242  0.9271
  881SOL    HW2 8481   4.499   8.154   9.022  0.1610 -0.5593  0.8244
  882SOL     OW 8482  10.851   7.052  12.265 -0.0019  0.1307  0.3960
  882SOL    HW1 8483  10.897   7.133  12.242  0.0326 -0.5888 -2.4214
  882SOL    HW2 8484  10.895   6.985  12.213 -1.9662 -1.1876  0.3642
  883SOL     OW 8485  11.369   9.056   0.636 -0.1833  0.2345  0.1351
  883SOL    HW1 8486  11.293   9.111   0.655 -0.1885  1.0334 -1.9586
  883SOL    HW2 8487  11.332   8.970   0.616 -0.5497  0.5941 -0.7736
  884SOL     OW 8488   1.794   5.676   7.940 -0.0271 -0.0309  0.1583
  884SOL    HW1 8489   1.867   5.712   7.890  1.9819 -0.5460  2.5029
  884SOL    HW2 8490   1.764   5.601   7.889  2.9748 -1.4969  0.3525
  885SOL     OW 8491   1.340  11.326   4.899 -0.1521  0.6407 -0.0401
  885SOL    HW1 8492   1.301  11.249   4.941 -1.8118  0.8258 -1.1292
  885SOL    HW2 8493   1.433  11.307   4.896 -0.4903 -1.2230 -0.0474
  886SOL     OW 8494  10.678   1.714   6.141 -0.0820  0.1928  0.1532
  886SOL    HW1 8495  10.712   1.689   6.055  0.7188  1.2074  0.1588
  886SOL    HW2 8496  10.716   1.650   6.202  1.6374  1.1340  0.1204
  887SOL     OW 8497   5.726   7.986   2.082  0.7524  0.5493 -0.3628
  887SOL    HW1 8498   5.641   7.962   2.120 -0.3754  1.3165 -2.2615
  887SOL    HW2 8499   5.777   7.904   2.083 -1.0325 -0.6677 -1.7213
  888SOL     OW 8500   8.321   5.400   8.492 -0.1830  0.2359  0.2730
  888SOL    HW1 8501   8.395   5.434   8.542  0.9477 -2.2353  0.4245
  888SOL    HW2 8502   8.277   5.478   8.459  2.2957  1.8206  0.4377
  889SOL     OW 8503   7.008   6.645   1.148  0.1663  0.1897 -0.3880
  889SOL    HW1 8504   7.018   6.599   1.065 -0.6327 -0.3811 -0.1843
  889SOL    HW2 8505   7.020   6.577   1.214 -0.7590  0.3119 -0.0767
  890SOL     OW 8506   5.188  11.010   9.238  0.4831 -0.1707 -0.4647
  890SOL    HW1 8507   5.130  10.979   9.169 -0.7287 -1.4801  1.0711
  890SOL    HW2 8508   5.160  11.100   9.255 -1.0693 -0.7404  0.1617
  891SOL     OW 8509   6.863   3.446  10.140  0.1101  0.9523 -0.1302
  891SOL    HW1 8510   6.773   3.412  10.145  0.8043 -1.1088 -0.3416
  891SOL    HW2 8511   6.873   3.502  10.217 -2.1399  3.4307 -1.4784
  892SOL     OW 8512   4.526   2.887   6.645  0.5257 -0.1452 -0.3735
  892SOL    HW1 8513   4.475   2.807   6.657  0.3281  0.1464  0.9038
  892SOL    HW2 8514   4.465   2.947   6.602  0.1414 -0.1641  0.1280
  893SOL     OW 8515   9.469   3.754  12.224 -0.4445  0.9029  0.2393
  893SOL    HW1 8516   9.558   3.781  12.245 -0.7142  2.4942 -0.5405
  893SOL    HW2 8517   9.478   3.701  12.145 -0.0801 -0.0032  0.8704
  894SOL     OW 8518   8.945   5.502   1.372 -0.2111 -0.0447 -0.0049
  894SOL    HW1 8519   9.011   5.464   1.315  0.1460 -0.8683  0.9237
  894SOL    HW2 8520   8.915   5.580   1.326  2.3120  1.0699  0.1041
  895SOL     OW 8521  10.908  10.821   9.267  0.2429 -0.4205 -0.8669
  895SOL    HW1 8522  10.948  10.810   9.353  1.1604 -2.5713 -1.4804
  895SOL    HW2 8523  10.897  10.915   9.257 -1.1006 -0.1517  2.0939
  896SOL     OW 8524   1.794   1.941   1.965  0.0288  0.0682  0.2590
  896SOL    HW1 8525   1.798   2.014   2.027 -0.0915 -0.9721  1.5402
  896SOL    HW2 8526   1.812   1.981   1.880 -1.4333  1.8137  0.7169
  897SOL     OW 8527   2.298   1.939   2.306 -0.0528 -0.2937 -0.3141
  897SOL    HW1 8528   2.228   1.879   2.333 -0.2258 -0.3797 -0.9483
  897SOL    HW2 8529   2.257   2.025   2.307  0.8134  0.2286  3.0056
  898SOL     OW 8530   2.794   8.505   0.067 -0.3768 -0.3903 -0.4261
  898SOL    HW1 8531   2.857   8.465   0.127 -0.9206 -0.4903  0.0984
  898SOL    HW2 8532   2.787   8.443  -0.006 -2.4219 -2.1477  1.1228
  899SOL     OW 8533   8.104   1.244  11.268  0.4112 -0.2458  0.2083
  899SOL    HW1 8534   8.078   1.162  11.311  1.2401 -0.6152  0.0352
  899SOL    HW2 8535   8.073   1.313  11.327 -1.0736 -0.6375 -0.0722
  900SOL     OW 8536   1.456   5.832   5.594  0.2503 -0.0310 -0.3380
  900SOL    HW1 8537   1.513   5.875   5.658  0.5303 -0.3500 -0.3707
  900SOL    HW2 8538   1.460   5.890   5.517  0.5479 -0.0588 -0.3467
  901SOL     OW 8539   3.431   7.886  11.977 -0.5856 -0.0563  0.0385
  901SOL    HW1 8540   3.480   7.871  11.896 -0.2730 -1.1835  0.4227
  901SOL    HW2 8541   3.376   7.809  11.986  1.0173 -1.0363  2.0701
  902SOL     OW 8542   5.659  11.327   6.311  0.0973  0.0416  0.4371
  902SOL    HW1 8543   5.669  11.247   6.363  0.8497  0.8582  1.5843
  902SOL    HW2 8544   5.583  11.310   6.255  0.0241 -1.3333  0.9249
  903SOL     OW 8545  11.325   3.018   9.326  0.0282  1.1798 -0.4932
  903SOL    HW1 8546  11.387   3.025   9.399  0.2070 -1.4641 -0.3057
  903SOL    HW2 8547  11.241   3.000   9.368 -0.3729  2.1471 -0.8604
  904SOL     OW 8548  10.861  11.117   1.973 -0.3917 -0.3676  0.2008
  904SOL    HW1 8549  10.772  11.085   1.987 -0.5502 -1.0499 -2.0845
  904SOL    HW2 8550  10.895  11.132   2.062 -2.7871  0.0243  1.1199
  905SOL     OW 8551   9.503  10.863  10.381  0.4303 -0.8219 -0.3624
  905SOL    HW1 8552   9.569  10.861  10.450  0.9874 -0.4743 -0.8714
  905SOL    HW2 8553   9.512  10.950  10.342 -0.8326 -0.4961  0.0357
  906SOL     OW 8554   8.901   9.310   7.726 -0.1920 -0.0218  0.0995
  906SOL    HW1 8555   8.824   9.360   7.700 -0.6311 -0.1599  1.1089
  906SOL    HW2 8556   8.866   9.231   7.768  0.5004 -0.3149  0.1525
  907SOL     OW 8557   0.723   6.999   6.003  0.4713  0.1168 -0.0675
  907SOL    HW1 8558   0.702   7.066   6.068 -0.4210 -0.9057  0.7325
  907SOL    HW2 8559   0.732   7.047   5.921 -1.9871  1.0444  0.1142
  908SOL     OW 8560   8.055   9.896   5.581 -0.5379  0.3902 -0.2150
  908SOL    HW1 8561   8.109   9.942   5.645  0.3340 -0.3746 -0.3832
  908SOL    HW2 8562   8.117   9.860   5.518 -1.2046 -0.8345 -0.2071
  909SOL     OW 8563   1.126   8.596   9.318 -0.3763  0.0217  0.2454
  909SOL    HW1 8564   1.074   8.566   9.243  1.1295 -0.6828 -0.5734
  909SOL    HW2 8565   1.113   8.529   9.385  1.2105 -1.3884 -0.7786
  910SOL     OW 8566   4.570   0.349  10.910 -0.3884 -0.1925 -0.0752
  910SOL    HW1 8567   4.575   0.400  10.991 -1.2985  1.0566 -0.7807
  910SOL    HW2 8568   4.657   0.309  10.903 -0.2677 -0.2916  1.4740
  911SOL     OW 8569   5.228   8.109   6.509 -0.0255  0.8142 -0.4521
  911SOL    HW1 8570   5.225   8.013   6.511  0.6322  0.8022  0.5361
  911SOL    HW2 8571   5.290   8.129   6.438  1.5025  0.4431  0.7252
  912SOL     OW 8572  12.128   9.141   2.134 -0.5113  0.1193  0.6724
  912SOL    HW1 8573  12.152   9.220   2.086  1.0320 -1.0632 -0.6136
  912SOL    HW2 8574  12.055   9.168   2.190 -0.2415  2.3514  0.0440
  913SOL     OW 8575   2.383   9.506   4.098 -0.1331  0.5114 -0.1236
  913SOL    HW1 8576   2.404   9.590   4.139  0.5607  0.6060 -0.6478
  913SOL    HW2 8577   2.326   9.462   4.161  0.5896  0.8159  0.7730
  914SOL     OW 8578   5.772   2.507   9.941  0.0950  0.0653 -0.5547
  914SOL    HW1 8579   5.815   2.491   9.857  2.7959 -0.6866  0.8267
  914SOL    HW2 8580   5.796   2.597   9.963  1.9932 -0.6504  0.6527
  915SOL     OW 8581   7.642   1.047   6.315  0.1357  0.4757  0.3125
  915SOL    HW1 8582   7.703   1.025   6.386  0.4625 -0.1684 -0.1581
  915SOL    HW2 8583   7.659   1.139   6.297  0.0220  0.6604  1.0950
  916SOL     OW 8584  11.038   3.242   3.325 -0.7700  0.0285 -0.6006
  916SOL    HW1 8585  11.128   3.243   3.295 -0.5038  1.8813  0.1292
  916SOL    HW2 8586  11.002   3.159   3.292  1.4628 -1.2462 -0.0038
  917SOL     OW 8587   0.664   1.958   6.866  0.0197 -0.2235 -0.1191
  917SOL    HW1 8588   0.601   1.998   6.926 -0.3164  0.0252 -0.6298
  917SOL    HW2 8589   0.749   1.981   6.903 -0.1521 -2.1506  1.6256
  918SOL     OW 8590   9.608   9.994   8.264 -0.0665 -0.4784 -0.6024
  918SOL    HW1 8591   9.664   9.954   8.331 -0.4596 -0.8661 -0.5012
  918SOL    HW2 8592   9.589   9.922   8.203  1.5472  0.2179 -1.9908
  919SOL     OW 8593   7.140   9.839   9.229 -0.7241 -0.4920 -0.3155
  919SOL    HW1 8594   7.073   9.819   9.164  0.1004 -2.6475 -0.5891
  919SOL    HW2 8595   7.219   9.858   9.178 -0.9525  1.5649  0.0152
  920SOL     OW 8596   6.653  11.061   7.287 -0.2766 -0.0778  0.4078
  920SOL    HW1 8597   6.629  11.024   7.202  0.2660 -0.5925  0.4679
  920SOL    HW2 8598   6.610  11.004   7.351 -2.0121  1.2283  0.4998
  921SOL     OW 8599   6.416   6.573   2.274  0.2351 -0.0563  0.7176
  921SOL    HW1 8600   6.340   6.611   2.318  0.1504  0.8080 -0.1513
  921SOL    HW2 8601   6.490   6.625   2.304  0.2515  0.1891  0.2521
  922SOL     OW 8602   2.395   5.100   9.627  0.4425  0.0169 -0.0399
  922SOL    HW1 8603   2.456   5.097   9.554 -0.8941 -2.8123 -1.1945
  922SOL    HW2 8604   2.441   5.055   9.699  0.2372 -0.9565 -0.5015
  923SOL     OW 8605   3.527   1.192   9.489 -0.0432  0.4942  0.1391
  923SOL    HW1 8606   3.554   1.183   9.580 -0.5830  0.7715  0.3332
  923SOL    HW2 8607   3.605   1.170   9.438  0.2247  0.2177  0.6650
  924SOL     OW 8608  10.090   6.046   3.440 -0.4022  0.0422 -1.1211
  924SOL    HW1 8609  10.020   5.985   3.463  0.6126 -1.6868 -2.3535
  924SOL    HW2 8610  10.076   6.121   3.497 -2.5028 -0.7680 -0.4641
  925SOL     OW 8611   4.065   7.244   6.891  0.5655 -0.6150 -0.0308
  925SOL    HW1 8612   4.148   7.274   6.854  0.3520  0.5055  0.3704
  925SOL    HW2 8613   4.087   7.214   6.979  0.6517 -0.9538 -0.1650
  926SOL     OW 8614   9.445   1.936   5.065  0.1401 -0.4692  0.2088
  926SOL    HW1 8615   9.525   1.887   5.080 -0.0039 -0.9514 -0.5436
  926SOL    HW2 8616   9.380   1.870   5.040  0.1361  0.1463 -1.5862
  927SOL     OW 8617   5.034   8.789   8.052 -0.1139 -0.0260  0.3351
  927SOL    HW1 8618   4.962   8.839   8.014 -0.6193 -0.0146  1.2841
  927SOL    HW2 8619   4.991   8.720   8.103  0.5497 -0.2291  0.6268
  928SOL     OW 8620   7.757   1.961   4.753  0.0955 -0.0796  0.1287
  928SOL    HW1 8621   7.831   1.905   4.775  0.3458  0.0038 -0.4998
  928SOL    HW2 8622   7.712   1.915   4.681 -1.6450 -1.1599  1.7917
  929SOL     OW 8623  11.833  10.865   3.877 -0.1519 -0.5317  0.2243
  929SOL    HW1 8624  11.900  10.822   3.825  0.4059  0.9950 -0.3831
  929SOL    HW2 8625  11.793  10.795   3.929  0.5064 -1.7832 -0.9237
  930SOL     OW 8626   5.219   2.973   2.981 -1.1275 -0.3587  0.3311
  930SOL    HW1 8627   5.226   2.960   2.886 -0.3490  0.1083  0.3161
  930SOL    HW2 8628   5.163   3.050   2.990  0.1087  0.5923  0.1789
  931SOL     OW 8629   6.952  10.679  11.697 -0.1835 -0.2553 -0.0646
  931SOL    HW1 8630   6.903  10.640  11.625 -0.2771  0.3680 -0.3405
  931SOL    HW2 8631   6.892  10.743  11.735 -0.2520 -0.8013  0.7743
  932SOL     OW 8632   5.897  11.057   4.050 -0.2818 -0.4853 -0.9139
  932SOL    HW1 8633   5.970  11.076   4.109 -0.6435  1.2933 -0.9632
  932SOL    HW2 8634   5.936  11.058   3.962 -0.4189  0.9628 -0.9783
  933SOL     OW 8635  12.193   4.044   2.604  0.2806 -0.7894  0.7010
  933SOL    HW1 8636  12.109   4.078   2.636  0.9072  0.8577  0.7125
  933SOL    HW2 8637  12.254   4.118   2.614  1.2294 -1.2333 -1.3346
  934SOL     OW 8638   5.294   0.470   6.337 -0.0121  0.3454  0.0478
  934SOL    HW1 8639   5.374   0.491   6.289  1.0945  0.2511  1.7507
  934SOL    HW2 8640   5.274   0.380   6.312  0.1067  0.5428 -0.7860
  935SOL     OW 8641   0.385   4.845   3.906  0.4354  0.1355 -0.3609
  935SOL    HW1 8642   0.344   4.842   3.992 -0.9541 -0.2850 -1.0102
  935SOL    HW2 8643   0.418   4.756   3.892  2.4010  0.6747  0.5098
  936SOL     OW 8644  10.023  12.069  11.614  0.0363 -0.9059  0.8017
  936SOL    HW1 8645  10.000  12.144  11.668 -0.5108 -1.3040  1.1335
  936SOL    HW2 8646  10.073  12.011  11.672 -0.4921 -1.3015  0.8729
  937SOL     OW 8647   4.935   8.421  10.332 -0.7818 -0.1433 -0.2080
  937SOL    HW1 8648   4.860   8.406  10.389 -0.7182  1.5027  0.3603
  937SOL    HW2 8649   4.959   8.513  10.347 -0.4205  0.1870 -2.4663
  938SOL     OW 8650  10.188   6.829   1.990 -0.1054 -0.3203  0.0256
  938SOL    HW1 8651  10.102   6.799   1.959  0.2605 -1.8815  0.4054
  938SOL    HW2 8652  10.189   6.923   1.973 -1.3148 -0.5218 -1.3563
  939SOL     OW 8653   5.972   0.229   7.155 -0.6617  0.1802 -0.1328
  939SOL    HW1 8654   6.048   0.187   7.195 -1.6114 -0.3427  1.1948
  939SOL    HW2 8655   5.986   0.323   7.168 -0.4418  0.0667  0.4769
  940SOL     OW 8656   3.223   9.573  11.495 -0.1842 -0.0631  0.1766
  940SOL    HW1 8657   3.155   9.515  11.531  0.0454 -0.5646 -0.1781
  940SOL    HW2 8658   3.264   9.611  11.572 -1.8589  1.4537  0.3936
  941SOL     OW 8659  11.352   3.081   4.344  0.2310 -0.1682 -0.4475
  941SOL    HW1 8660  11.308   3.164   4.361 -0.4823 -0.2268 -1.8204
  941SOL    HW2 8661  11.368   3.043   4.430 -4.1063 -1.0106  0.2243
  942SOL     OW 8662   3.977   9.373   8.159  0.3793 -0.3692  0.2784
  942SOL    HW1 8663   3.994   9.305   8.094 -0.1704 -1.7442  1.5228
  942SOL    HW2 8664   4.030   9.347   8.235  1.5591  1.5732  0.2068
  943SOL     OW 8665   9.965   4.733   5.181  0.4878 -0.4646  0.7916
  943SOL    HW1 8666   9.873   4.755   5.165  0.6828 -0.6126 -0.6721
  943SOL    HW2 8667   9.973   4.642   5.151  1.6109  0.2657 -1.3680
  944SOL     OW 8668   6.864   1.463   4.313 -0.5369 -0.1222  0.1602
  944SOL    HW1 8669   6.773   1.482   4.334 -0.0698  1.0853  1.1943
  944SOL    HW2 8670   6.872   1.368   4.327 -1.4157 -0.0991  0.9571
  945SOL     OW 8671   5.387   3.499   4.017  0.6246 -0.0427 -0.0373
  945SOL    HW1 8672   5.321   3.431   4.014 -1.2769  1.7102  0.0154
  945SOL    HW2 8673   5.406   3.511   4.110  0.5311 -0.1119 -0.0102
  946SOL     OW 8674   8.790   1.497   2.672  0.2828 -0.7530 -0.4710
  946SOL    HW1 8675   8.741   1.529   2.596  0.6621  0.8973 -0.0638
  946SOL    HW2 8676   8.881   1.500   2.644  0.3092 -1.9278 -0.5557
  947SOL     OW 8677   8.937   6.479   0.053  0.0332 -0.3284  0.1994
  947SOL    HW1 8678   9.012   6.503   0.106 -0.7449  0.3717  1.0012
  947SOL    HW2 8679   8.910   6.560   0.010  0.7731 -0.9056 -1.4809
  948SOL     OW 8680   2.918  11.561  12.058  0.2995  0.0011 -0.0516
  948SOL    HW1 8681   2.859  11.625  12.019  1.3184  0.5852 -0.6878
  948SOL    HW2 8682   2.911  11.484  12.003 -2.0228 -1.0296  1.5363
  949SOL     OW 8683   7.095   1.140   1.394 -0.3283  0.3415  0.2984
  949SOL    HW1 8684   7.155   1.154   1.321 -1.4040  2.5724 -0.2543
  949SOL    HW2 8685   7.042   1.064   1.369 -2.1883  2.3471 -2.4054
  950SOL     OW 8686   3.102   1.384   2.895 -0.3279  0.1728 -0.2917
  950SOL    HW1 8687   3.128   1.321   2.828 -0.6175 -1.6436  1.2355
  950SOL    HW2 8688   3.012   1.409   2.872  0.3386  1.3201 -1.8029
  951SOL     OW 8689   3.319   8.284   4.089  0.2407  0.0432  0.6442
  951SOL    HW1 8690   3.405   8.275   4.128 -0.0063 -2.7677  0.7873
  951SOL    HW2 8691   3.261   8.305   4.162  0.6216  0.6780  0.7629
  952SOL     OW 8692   4.099   6.474   9.750 -0.2566  0.5122 -0.1175
  952SOL    HW1 8693   4.075   6.566   9.765 -0.3630  0.5682 -0.6327
  952SOL    HW2 8694   4.059   6.427   9.823  1.9246  1.1736  1.6249
  953SOL     OW 8695   7.490  11.220   5.599  0.0711  0.0360  0.3825
  953SOL    HW1 8696   7.415  11.263   5.558 -0.9772 -0.9812  1.1554
  953SOL    HW2 8697   7.506  11.142   5.546  0.3826  0.0754  0.4130
  954SOL     OW 8698   5.226   8.842   5.032 -0.2892  0.5024 -0.4324
  954SOL    HW1 8699   5.201   8.850   5.125  0.0306  0.4312 -0.3413
  954SOL    HW2 8700   5.157   8.787   4.994  0.3640 -0.7094  0.0838
  955SOL     OW 8701   4.115   1.957   0.274 -0.3183 -0.5415  0.1623
  955SOL    HW1 8702   4.117   1.966   0.179 -1.3116  3.0704  0.3280
  955SOL    HW2 8703   4.207   1.952   0.300  0.2013  2.2301 -0.8565
  956SOL     OW 8704   1.965   8.689   0.816 -0.7204 -0.6209 -0.4969
  956SOL    HW1 8705   1.891   8.751   0.816  2.5259  3.7958 -2.1422
  956SOL    HW2 8706   1.984   8.675   0.723  0.9025 -0.9933 -0.1345
  957SOL     OW 8707   8.587  10.631   5.717 -0.3885 -0.0860  0.1008
  957SOL    HW1 8708   8.610  10.677   5.797  0.2999 -0.2400 -0.0023
  957SOL    HW2 8709   8.534  10.694   5.667 -0.9645 -0.0544  0.7390
  958SOL     OW 8710  10.336   9.066   6.631  0.1160  0.7543  0.0013
  958SOL    HW1 8711  10.342   8.990   6.689  0.8327  0.1412 -0.8426
  958SOL    HW2 8712  10.325   9.027   6.544 -1.1737  1.6498 -0.2691
  959SOL     OW 8713   9.289  10.673   2.897 -0.3615  0.0395 -0.2597
  959SOL    HW1 8714   9.295  10.757   2.853 -2.0043 -0.4458 -1.4746
  959SOL    HW2 8715   9.240  10.692   2.977 -0.2049  0.3375 -0.2321
  960SOL     OW 8716   8.760   3.124   4.042  0.3814 -0.0924  0.2050
  960SOL    HW1 8717   8.777   3.068   3.966 -1.3326  1.1005 -1.1546
  960SOL    HW2 8718   8.703   3.071   4.099  0.6840 -0.5614  0.0719
  961SOL     OW 8719   8.557   3.893   4.088 -0.1144 -0.7221 -0.1581
  961SOL    HW1 8720   8.477   3.872   4.138 -1.9095  1.2826 -1.9689
  961SOL    HW2 8721   8.591   3.808   4.060  0.3906 -1.8778  3.4057
  962SOL     OW 8722   2.645   2.829  10.344  0.2238 -0.2135 -0.0137
  962SOL    HW1 8723   2.690   2.899  10.297 -1.0161 -0.2406 -1.3040
  962SOL    HW2 8724   2.703   2.809  10.418  0.9444  1.6672 -0.0071
  963SOL     OW 8725   1.007   3.991   6.282  0.0706 -0.0323 -0.0146
  963SOL    HW1 8726   1.091   3.959   6.315  0.3144 -1.5345 -1.8544
  963SOL    HW2 8727   1.031   4.053   6.213 -0.3409  0.4107  0.2431
  964SOL     OW 8728  10.183   2.018   0.679 -0.8870 -0.3455 -0.1986
  964SOL    HW1 8729  10.181   2.113   0.663 -2.1129 -0.5249 -1.3699
  964SOL    HW2 8730  10.248   2.006   0.748 -0.6618  1.3432 -0.0744
  965SOL     OW 8731   1.947   7.010   2.987  0.2284 -0.1702  0.3769
  965SOL    HW1 8732   1.966   7.005   3.081  0.8565  0.7715  0.3119
  965SOL    HW2 8733   2.033   7.018   2.946  0.0229 -1.4472 -0.3624
  966SOL     OW 8734   3.918  12.298  12.332 -0.0343 -0.3750  0.0228
  966SOL    HW1 8735   3.834  12.255  12.345  1.2809 -2.5877  1.8410
  966SOL    HW2 8736   3.932  12.295  12.237 -1.7570 -0.3748 -0.2575
  967SOL     OW 8737  10.230   4.774  11.995 -0.0526  1.1513  0.2162
  967SOL    HW1 8738  10.236   4.679  12.010  0.5985  1.0093 -0.8676
  967SOL    HW2 8739  10.253   4.785  11.903  0.9274  2.4705  0.5918
  968SOL     OW 8740   6.690   2.794  10.589 -0.0473 -0.4704 -0.7423
  968SOL    HW1 8741   6.768   2.848  10.589 -0.7471  0.6748  1.6152
  968SOL    HW2 8742   6.658   2.797  10.679 -2.6546 -1.1154 -1.5346
  969SOL     OW 8743   5.298   1.391   3.100 -0.5632 -0.0450 -0.2048
  969SOL    HW1 8744   5.323   1.481   3.121 -1.0571  0.1235 -0.3197
  969SOL    HW2 8745   5.349   1.370   3.022 -0.3442  0.0848 -0.0992
  970SOL     OW 8746   3.422   8.212   2.446  0.1832 -0.0768 -0.2835
  970SOL    HW1 8747   3.395   8.304   2.446  0.1081 -0.0861 -1.6316
  970SOL    HW2 8748   3.345   8.163   2.419 -0.2817 -0.7412  2.0319
  971SOL     OW 8749   4.059  10.165  10.267 -0.1538 -0.1510 -0.5838
  971SOL    HW1 8750   4.096  10.213  10.341 -2.6113  1.2430 -0.1291
  971SOL    HW2 8751   3.975  10.132  10.300 -0.8489 -0.3744 -2.4627
  972SOL     OW 8752   6.059  10.879   5.891  0.5675 -0.2799  0.5192
  972SOL    HW1 8753   6.045  10.962   5.845  1.4001 -0.7390 -0.5941
  972SOL    HW2 8754   6.062  10.813   5.822  0.6688 -1.1425  1.3300
  973SOL     OW 8755   2.735   6.585  10.177 -0.2489  0.0749 -0.2359
  973SOL    HW1 8756   2.690   6.584  10.262  0.6417  0.7012  0.2615
  973SOL    HW2 8757   2.732   6.677  10.150  0.6932  0.1152 -0.2114
  974SOL     OW 8758   6.389   1.083   0.492  0.0030  0.2046 -0.0443
  974SOL    HW1 8759   6.379   1.178   0.494  0.2336  0.2682 -1.1518
  974SOL    HW2 8760   6.302   1.050   0.471  0.2315  0.2667 -1.1365
  975SOL     OW 8761  11.746   3.938  12.030 -0.1513 -0.1499 -0.0672
  975SOL    HW1 8762  11.724   3.846  12.040  0.9220 -0.4282 -0.1299
  975SOL    HW2 8763  11.665   3.985  12.048 -0.9205 -1.1397 -0.8373
  976SOL     OW 8764   0.895   4.787  11.301  0.1724  0.0985 -0.2860
  976SOL    HW1 8765   0.855   4.831  11.226 -0.7852 -1.4675 -0.7666
  976SOL    HW2 8766   0.847   4.704  11.308  0.6927 -0.0997  1.6521
  977SOL     OW 8767   4.345   1.732  11.581 -0.1354 -0.4260  0.1426
  977SOL    HW1 8768   4.367   1.755  11.491 -1.7039  0.2438 -0.1110
  977SOL    HW2 8769   4.264   1.680  11.573 -0.4991 -0.0354  1.1823
  978SOL     OW 8770   9.271   0.782   8.725 -0.2297 -0.3625 -0.0470
  978SOL    HW1 8771   9.215   0.792   8.648  0.2198  1.1859 -0.1934
  978SOL    HW2 8772   9.325   0.705   8.705 -0.0762  0.0488 -1.3118
  979SOL     OW 8773   5.034   7.638   7.624  0.4317  0.1099 -0.5000
  979SOL    HW1 8774   5.003   7.728   7.610  0.9639  0.5702  1.0478
  979SOL    HW2 8775   5.128   7.647   7.639  0.5743 -0.7766 -0.8083
  980SOL     OW 8776   3.439  11.025   5.259  0.3664  0.0926  0.2982
  980SOL    HW1 8777   3.357  11.051   5.216  1.6975 -0.6182 -2.9578
  980SOL    HW2 8778   3.412  10.970   5.332 -2.0625  0.4239 -0.2783
  981SOL     OW 8779   4.371   5.850   8.594 -0.0561 -0.4335  0.4570
  981SOL    HW1 8780   4.418   5.837   8.512  1.6211 -3.0395  1.6681
  981SOL    HW2 8781   4.398   5.937   8.623  1.3523 -0.4869 -0.5623
  982SOL     OW 8782   0.789   8.352   6.071  0.4247  0.4924 -0.0481
  982SOL    HW1 8783   0.725   8.395   6.129  0.4788  1.0750 -0.4105
  982SOL    HW2 8784   0.764   8.260   6.072  1.4375  0.1720  2.2360
  983SOL     OW 8785   9.514  10.602   1.075 -0.2013  0.1100  0.4767
  983SOL    HW1 8786   9.464  10.534   1.031 -1.6220 -0.2471  2.5150
  983SOL    HW2 8787   9.602  10.564   1.085 -0.1244 -0.1818 -1.0701
  984SOL     OW 8788   8.032   4.243   0.706  0.4948  0.0104  0.1829
  984SOL    HW1 8789   7.950   4.241   0.755  0.5179 -0.1713  0.2158
  984SOL    HW2 8790   8.098   4.268   0.772  0.3818  0.7191  0.0322
  985SOL     OW 8791   9.948   2.641   6.760  0.0332  0.5256  0.2472
  985SOL    HW1 8792   9.880   2.645   6.694 -0.3543 -0.4616  0.5702
  985SOL    HW2 8793   9.996   2.561   6.741 -0.8234 -0.4164  1.8499
  986SOL     OW 8794   6.956  11.634   3.314 -0.1079  0.4795  1.1656
  986SOL    HW1 8795   6.882  11.687   3.284  1.2438  1.7376 -0.0940
  986SOL    HW2 8796   7.020  11.696   3.346  0.8636 -0.4942  1.1865
  987SOL     OW 8797   4.178   0.030   0.794 -0.2427  0.2351  0.4087
  987SOL    HW1 8798   4.184   0.125   0.790  1.2253  0.1470 -0.2705
  987SOL    HW2 8799   4.235  -0.000   0.723 -0.7218 -1.1485  0.5845
  988SOL     OW 8800   8.524   1.473   1.245  0.2994  0.4078 -0.1378
  988SOL    HW1 8801   8.602   1.417   1.246  1.4210  1.9003 -1.2292
  988SOL    HW2 8802   8.537   1.532   1.172 -0.1741  3.0241  1.7417
  989SOL     OW 8803   5.546   0.492   7.103  0.2122  0.2458  0.2912
  989SOL    HW1 8804   5.588   0.406   7.115 -1.6118 -0.7814 -0.3170
  989SOL    HW2 8805   5.619   0.553   7.093  1.5957 -1.0385  1.8545
  990SOL     OW 8806  10.670  11.537   2.488 -0.1331 -0.2720  0.3229
  990SOL    HW1 8807  10.647  11.490   2.408 -0.3369 -0.8272  0.7040
  990SOL    HW2 8808  10.728  11.478   2.535 -0.6571 -0.2888  0.9654
  991SOL     OW 8809   9.734   3.793  12.285  0.2936 -0.0452 -0.1582
  991SOL    HW1 8810   9.736   3.871  12.341  1.7285 -0.2954  0.1762
  991SOL    HW2 8811   9.789   3.817  12.210 -0.4360 -0.2324 -0.7604
  992SOL     OW 8812  10.819   0.379   4.410 -0.3200  0.1058 -0.5729
  992SOL    HW1 8813  10.888   0.445   4.404  0.1807 -0.2839  0.6539
  992SOL    HW2 8814  10.862   0.297   4.387 -0.3366 -0.1525  0.2961
  993SOL     OW 8815   6.872  11.206   0.036  0.8053 -0.0871 -0.1382
  993SOL    HW1 8816   6.805  11.199   0.104 -0.6012  0.0281 -1.4718
  993SOL    HW2 8817   6.894  11.299   0.032  1.1200 -0.1370  0.3571
  994SOL     OW 8818   6.127   5.668  12.287  0.5385  0.3689  0.0083
  994SOL    HW1 8819   6.045   5.661  12.238 -0.2032  1.0994  1.0808
  994SOL    HW2 8820   6.172   5.742  12.246  1.1615 -0.6881 -1.2565
  995SOL     OW 8821   7.750   5.050   6.592 -0.1679 -0.1137  0.7398
  995SOL    HW1 8822   7.693   4.988   6.637 -1.7762  0.4743 -0.3746
  995SOL    HW2 8823   7.713   5.056   6.504  2.5495 -0.8249 -0.5216
  996SOL     OW 8824   3.478   4.535  10.307  0.1432  0.1081  0.0169
  996SOL    HW1 8825   3.432   4.540  10.391 -0.6857  0.9472 -0.4687
  996SOL    HW2 8826   3.555   4.590  10.319 -1.8144  3.3361 -0.8529
  997SOL     OW 8827   1.395  12.138   3.883 -0.0445  0.0790 -0.3583
  997SOL    HW1 8828   1.344  12.108   3.959  1.5580 -0.6215  0.4987
  997SOL    HW2 8829   1.425  12.057   3.842 -0.3166  0.4705 -1.3355
  998SOL     OW 8830   3.051   4.754   9.881 -0.3151 -0.2935  0.6778
  998SOL    HW1 8831   3.010   4.740   9.796  0.3444 -2.0155  0.6019
  998SOL    HW2 8832   3.144   4.736   9.866 -0.1563 -0.3900  1.7016
  999SOL     OW 8833   4.831   7.325   3.735  0.2366  0.0854 -0.1442
  999SOL    HW1 8834   4.886   7.342   3.659 -0.8173 -0.0921 -0.9763
  999SOL    HW2 8835   4.774   7.252   3.708 -1.3711  1.1705  0.1563
 1000SOL     OW 8836   6.451   6.462   6.031  0.5173  0.0367 -0.5603
 1000SOL    HW1 8837   6.545   6.459   6.015  0.2635  3.3216 -4.2203
 1000SOL    HW2 8838   6.443   6.497   6.120  2.8184  0.9572 -0.6419
 1001SOL     OW 8839   2.904   8.715   7.205  0.1256  0.2200 -0.0132
 1001SOL    HW1 8840   2.820   8.731   7.163  0.5914 -0.2550 -1.1513
 1001SOL    HW2 8841   2.886   8.723   7.299 -0.3358  4.4488 -0.2565
 1002SOL     OW 8842  11.699   7.953  11.033  0.3165 -0.1568  0.0355
 1002SOL    HW1 8843  11.613   7.995  11.039 -1.0143 -2.8561  1.5535
 1002SOL    HW2 8844  11.750   7.994  11.104 -0.5518 -0.2204  0.7190
 1003SOL     OW 8845  12.029   9.571   0.113 -1.2417 -0.1689 -0.0663
 1003SOL    HW1 8846  12.073   9.493   0.148  0.1735  0.7893  0.3515
 1003SOL    HW2 8847  12.009   9.549   0.022  1.3452 -0.1830 -0.7025
 1004SOL     OW 8848   9.975   9.014  10.044 -0.1548  0.0701  0.5747
 1004SOL    HW1 8849   9.974   9.109  10.050 -0.3436  0.0620  0.6851
 1004SOL    HW2 8850   9.925   8.995   9.964  0.4719  0.0909  0.1679
 1005SOL     OW 8851  10.439   3.108   0.755  0.2924 -0.4313  0.6182
 1005SOL    HW1 8852  10.497   3.181   0.734  0.1856  0.0381  1.8652
 1005SOL    HW2 8853  10.369   3.113   0.691 -0.4331  1.4014  1.4937
 1006SOL     OW 8854   2.422   3.105  10.095  0.0579  0.4924  0.5665
 1006SOL    HW1 8855   2.461   3.029  10.051  1.1805  0.4848  1.5559
 1006SOL    HW2 8856   2.387   3.158  10.023  2.9511  1.1156 -0.5296
 1007SOL     OW 8857   0.356   2.576   3.848  0.4413  0.2086 -0.1269
 1007SOL    HW1 8858   0.323   2.643   3.788  0.8998 -0.0972 -0.7417
 1007SOL    HW2 8859   0.277   2.537   3.886  0.1553  0.6938 -0.2092
 1008SOL     OW 8860  11.532  10.408  11.796 -0.4760  0.5185  0.0595
 1008SOL    HW1 8861  11.467  10.400  11.867 -0.7745  0.3887 -0.2227
 1008SOL    HW2 8862  11.593  10.336  11.812 -1.2358 -0.2706 -0.5138
 1009SOL     OW 8863   4.254   0.049  10.643  0.2499 -0.2504 -0.0064
 1009SOL    HW1 8864   4.307   0.086  10.714 -0.9130 -1.7376  1.7539
 1009SOL    HW2 8865   4.307  -0.023  10.608  0.3771 -0.2048  0.0905
 1010SOL     OW 8866   8.084  11.155   4.584 -0.1906 -0.4565 -0.0434
 1010SOL    HW1 8867   8.176  11.134   4.566 -0.2071  0.3152 -1.1250
 1010SOL    HW2 8868   8.062  11.101   4.660  1.3080 -0.2644  0.5759
 1011SOL     OW 8869   2.097   6.928   7.397  0.0220 -0.3090  0.3201
 1011SOL    HW1 8870   2.170   6.966   7.347  0.6110 -1.0715  0.5812
 1011SOL    HW2 8871   2.028   6.917   7.332  0.6315 -0.8811 -0.2476
 1012SOL     OW 8872   7.738  11.016  11.266  0.6500  0.0648 -0.3041
 1012SOL    HW1 8873   7.709  11.104  11.241  2.0615  0.0999 -1.9863
 1012SOL    HW2 8874   7.693  10.999  11.349 -1.4904  1.4062 -1.1072
 1013SOL     OW 8875   1.632   8.486   8.091  0.3272  0.3783 -0.1782
 1013SOL    HW1 8876   1.700   8.520   8.034  1.0624 -1.6288 -0.5729
 1013SOL    HW2 8877   1.552   8.487   8.038  0.6263  0.1833 -0.6288
 1014SOL     OW 8878   2.223  11.431   5.072 -0.0639  0.3983  0.3118
 1014SOL    HW1 8879   2.192  11.503   5.127 -0.8283  0.1765  0.1850
 1014SOL    HW2 8880   2.265  11.370   5.134 -0.9180  0.1496  0.6625
 1015SOL     OW 8881   4.420   3.596   7.675  0.0127  0.4342  0.0556
 1015SOL    HW1 8882   4.513   3.573   7.668  0.2736  1.4742 -0.0726
 1015SOL    HW2 8883   4.392   3.612   7.585 -0.8649 -1.9222 -0.1471
 1016SOL     OW 8884   0.380   5.169   7.438 -0.7856 -0.7313  0.4295
 1016SOL    HW1 8885   0.420   5.204   7.359 -4.4210 -0.0062 -1.2894
 1016SOL    HW2 8886   0.374   5.244   7.497  1.7446 -1.2296  1.4708
 1017SOL     OW 8887   2.454   5.561   4.943  0.4231 -0.2320  0.1097
 1017SOL    HW1 8888   2.468   5.651   4.915  0.9234 -0.3164  0.0731
 1017SOL    HW2 8889   2.452   5.565   5.039  2.1699 -0.4029  0.1799
 1018SOL     OW 8890   1.254   8.535  11.990  0.2408 -0.0172  0.2332
 1018SOL    HW1 8891   1.199   8.538  12.068  0.7245  0.0976  0.5695
 1018SOL    HW2 8892   1.302   8.453  11.998 -0.5766 -0.5892 -0.5383
 1019SOL     OW 8893   5.824   8.972   4.531  0.1142  0.1138  0.1714
 1019SOL    HW1 8894   5.916   8.968   4.557 -0.0452  0.1805  0.7719
 1019SOL    HW2 8895   5.822   9.034   4.459  0.5732 -0.0643 -0.0021
 1020SOL     OW 8896   4.166   7.666  10.991 -0.1411 -0.5057  0.2333
 1020SOL    HW1 8897   4.208   7.723  10.927 -0.6437  0.1293  0.4652
 1020SOL    HW2 8898   4.186   7.706  11.076 -0.1699 -0.8854  0.4216
 1021SOL     OW 8899   5.585   3.756  10.015 -0.6326  0.2215  1.0083
 1021SOL    HW1 8900   5.615   3.785   9.929 -2.3498 -2.8102 -0.8129
 1021SOL    HW2 8901   5.489   3.755  10.007 -0.7865 -1.3505  2.4417
 1022SOL     OW 8902   2.928  11.616   1.287  0.4660  0.0242  0.2457
 1022SOL    HW1 8903   2.963  11.588   1.371 -0.2979  1.1970  0.9905
 1022SOL    HW2 8904   3.004  11.620   1.229  0.7546 -2.5989  0.3095
 1023SOL     OW 8905   8.095   0.077   4.060  0.7777  0.4689 -0.6999
 1023SOL    HW1 8906   8.151   0.152   4.037  1.2664 -0.3343 -2.3156
 1023SOL    HW2 8907   8.025   0.080   3.995 -0.5276  0.8666  0.6908
 1024SOL     OW 8908   3.594   3.164  11.054  0.2601 -0.4622  0.0746
 1024SOL    HW1 8909   3.612   3.182  11.146  1.1301  0.9690 -0.3436
 1024SOL    HW2 8910   3.566   3.072  11.052 -0.4158 -0.3296  1.8347
 1025SOL     OW 8911   8.098   9.081   9.407 -0.1322  0.3861 -0.6982
 1025SOL    HW1 8912   8.033   9.150   9.394  0.1305  0.6932 -0.3985
 1025SOL    HW2 8913   8.123   9.054   9.318 -2.3163 -1.3204 -0.8671
 1026SOL     OW 8914   2.314   4.016   3.008  0.6405  0.2295 -0.8461
 1026SOL    HW1 8915   2.300   4.073   3.083 -1.7230  0.7193 -1.5793
 1026SOL    HW2 8916   2.231   4.018   2.960  0.4360 -3.7619 -0.9706
 1027SOL     OW 8917   1.060   2.161  12.146 -0.2585 -0.2327  0.0336
 1027SOL    HW1 8918   0.993   2.181  12.080  0.2298  1.0758 -0.1029
 1027SOL    HW2 8919   1.059   2.238  12.204  2.5973  0.8939 -1.2194
 1028SOL     OW 8920   1.642  10.716   6.644  0.5980 -0.3079 -0.4971
 1028SOL    HW1 8921   1.627  10.640   6.701 -0.5874  0.7214  0.6397
 1028SOL    HW2 8922   1.557  10.760   6.641  1.6299  1.9079  0.3076
 1029SOL     OW 8923   7.348   7.572   5.506 -0.6833  0.0233 -0.2074
 1029SOL    HW1 8924   7.285   7.502   5.524 -0.2517 -0.0409  1.1705
 1029SOL    HW2 8925   7.296   7.653   5.511 -0.6086  0.0012  1.3437
 1030SOL     OW 8926   6.155   0.444   5.255 -0.1615 -0.1152 -0.2140
 1030SOL    HW1 8927   6.150   0.381   5.183  0.5357 -1.2577  0.7047
 1030SOL    HW2 8928   6.244   0.479   5.249  0.1098 -0.6648  0.4360
 1031SOL     OW 8929   0.831   2.474   9.709 -0.0570 -0.6646 -0.2002
 1031SOL    HW1 8930   0.905   2.437   9.757 -0.5427 -1.4041  0.0024
 1031SOL    HW2 8931   0.760   2.477   9.773  0.0924  1.1451 -0.0537
 1032SOL     OW 8932   7.716   3.263   2.035  0.4619  0.3532 -0.0919
 1032SOL    HW1 8933   7.686   3.354   2.036 -1.4624 -0.2384  1.2019
 1032SOL    HW2 8934   7.783   3.259   2.103  1.4919  1.0656 -1.0391
 1033SOL     OW 8935  11.062   7.679   3.387  0.2989 -0.1412  0.0046
 1033SOL    HW1 8936  11.149   7.711   3.413 -0.1407  1.9136 -0.8369
 1033SOL    HW2 8937  11.029   7.746   3.328 -0.9561 -1.9803 -1.5253
 1034SOL     OW 8938  10.849   2.101   5.113  0.2379  0.2505 -0.4036
 1034SOL    HW1 8939  10.789   2.050   5.058  1.2327 -0.8050 -0.5433
 1034SOL    HW2 8940  10.799   2.121   5.192 -1.0040  1.2548 -1.4053
 1035SOL     OW 8941  11.272   0.572   1.823  0.2636  0.2230 -0.3240
 1035SOL    HW1 8942  11.183   0.535   1.823 -0.6685  2.2950  0.6199
 1035SOL    HW2 8943  11.324   0.507   1.870 -0.5945 -1.2735 -1.3160
 1036SOL     OW 8944   6.092   2.496   1.402  0.3815 -0.0798  0.5249
 1036SOL    HW1 8945   6.181   2.460   1.406  0.8958  1.1199  0.2038
 1036SOL    HW2 8946   6.091   2.546   1.320 -0.4345  0.3516  0.7951
 1037SOL     OW 8947   5.629   1.346   7.642  0.3060 -0.0481  0.7663
 1037SOL    HW1 8948   5.539   1.371   7.620  0.1880 -0.2115  1.0576
 1037SOL    HW2 8949   5.621   1.304   7.728  0.6645 -0.0369  0.8033
 1038SOL     OW 8950   5.458   4.590   1.433  0.5260 -0.0282 -0.2642
 1038SOL    HW1 8951   5.462   4.495   1.423  1.2299 -0.0476  0.1640
 1038SOL    HW2 8952   5.366   4.612   1.420 -0.3027 -1.1421  2.8757
 1039SOL     OW 8953   5.798   4.321   3.207 -0.3500  0.0472 -0.2557
 1039SOL    HW1 8954   5.705   4.310   3.188 -0.9824 -0.2646  2.5484
 1039SOL    HW2 8955   5.842   4.293   3.128 -2.6291  0.4686 -1.7744
 1040SOL     OW 8956  11.111   1.054   4.693  0.2496 -0.0947  0.4692
 1040SOL    HW1 8957  11.162   1.133   4.712 -1.9576  1.6537 -0.3607
 1040SOL    HW2 8958  11.161   1.008   4.626  1.1555  1.0961  0.3049
 1041SOL     OW 8959   0.354  12.056   5.137  0.5383 -0.6421 -0.4446
 1041SOL    HW1 8960   0.406  12.050   5.217  1.5143 -1.3237 -1.1086
 1041SOL    HW2 8961   0.390  11.988   5.079  1.0408  0.9836 -2.1417
 1042SOL     OW 8962   0.854  11.342   7.013  0.0533 -0.3122 -0.1075
 1042SOL    HW1 8963   0.796  11.289   6.959  0.9345 -2.1566  0.6780
 1042SOL    HW2 8964   0.795  11.389   7.072 -0.6877 -1.6032  0.2124
 1043SOL     OW 8965   4.981   4.748   5.143  0.3652  0.1984 -0.5118
 1043SOL    HW1 8966   4.948   4.787   5.224  1.5269  1.1968 -0.4790
 1043SOL    HW2 8967   4.932   4.792   5.074 -1.5523 -1.5623 -0.3769
 1044SOL     OW 8968   4.029   9.011   2.654  0.1724  0.0020 -0.1448
 1044SOL    HW1 8969   4.073   8.934   2.619 -2.4156 -1.2281 -0.9480
 1044SOL    HW2 8970   4.012   9.067   2.578 -3.2874 -1.5460 -0.6966
 1045SOL     OW 8971   2.040   2.544   6.875 -0.3396  0.0700 -0.0776
 1045SOL    HW1 8972   2.085   2.545   6.790  1.5975 -0.5313  0.8847
 1045SOL    HW2 8973   2.024   2.452   6.893  1.0517  0.0246  1.0764
 1046SOL     OW 8974   8.892   3.732   1.470  0.4743  0.2133 -0.7258
 1046SOL    HW1 8975   8.958   3.714   1.536 -0.9517 -1.0632  0.4186
 1046SOL    HW2 8976   8.939   3.725   1.387  1.8977  0.0006  0.0642
 1047SOL     OW 8977   4.084   8.067   2.492 -0.3001 -0.1596 -0.0836
 1047SOL    HW1 8978   4.152   8.001   2.479  1.9922  1.7857  1.3022
 1047SOL    HW2 8979   4.108   8.138   2.433 -0.8894  0.7294  0.7247
 1048SOL     OW 8980   1.260   6.203  11.760  0.0394  0.3424 -0.3173
 1048SOL    HW1 8981   1.249   6.205  11.855  0.2794 -0.1301 -0.2773
 1048SOL    HW2 8982   1.175   6.229  11.724 -0.0011  0.6923  0.0239
 1049SOL     OW 8983   3.330  11.844   9.753 -0.2046 -0.2298  0.2735
 1049SOL    HW1 8984   3.368  11.759   9.775  1.6107  0.4278 -0.0978
 1049SOL    HW2 8985   3.371  11.904   9.816  0.3233  0.6974 -0.9184
 1050SOL     OW 8986  10.791   9.698   7.260  0.2908 -0.5938  0.1096
 1050SOL    HW1 8987  10.739   9.773   7.290  1.0136 -0.6144  1.5612
 1050SOL    HW2 8988  10.881   9.731   7.259  0.4046 -0.8900 -1.2006
 1051SOL     OW 8989   6.407  11.654   2.074 -0.3669 -0.4687  0.8727
 1051SOL    HW1 8990   6.464  11.718   2.032 -1.8842  1.1296  1.0965
 1051SOL    HW2 8991   6.460  11.618   2.145  0.7284  0.1065  0.3714
 1052SOL     OW 8992   3.769   8.699   4.349  0.2757 -0.2023 -0.1286
 1052SOL    HW1 8993   3.837   8.748   4.394  1.0285 -3.3018  2.5370
 1052SOL    HW2 8994   3.815   8.624   4.310 -1.0489 -0.0167 -2.2091
 1053SOL     OW 8995   1.503  11.695   0.166 -0.1417  0.4538 -0.4505
 1053SOL    HW1 8996   1.572  11.648   0.214 -1.0948 -0.6384 -0.1062
 1053SOL    HW2 8997   1.441  11.723   0.233 -0.4780  0.6603 -0.8458
 1054SOL     OW 8998   5.864   9.536   4.563  0.2498 -0.1321  0.5354
 1054SOL    HW1 8999   5.954   9.568   4.552 -0.2169  0.9289 -0.3914
 1054SOL    HW2 9000   5.867   9.446   4.532  1.0499 -0.2047  0.7919
 1055SOL     OW 9001   4.848   3.718   7.343 -0.1356  0.3638  0.4913
 1055SOL    HW1 9002   4.934   3.682   7.364  0.7453  1.9203 -0.2835
 1055SOL    HW2 9003   4.790   3.642   7.342  1.1737 -0.6941  1.2312
 1056SOL     OW 9004   8.406   3.660   5.745  0.0757 -0.2769 -0.2401
 1056SOL    HW1 9005   8.398   3.710   5.664 -0.4214  0.2862  0.1476
 1056SOL    HW2 9006   8.501   3.659   5.763  0.1738 -0.2969 -0.7568
 1057SOL     OW 9007   5.740   0.226   8.565 -0.3437  0.1009 -0.4484
 1057SOL    HW1 9008   5.647   0.247   8.570  0.0635  1.8092  1.5411
 1057SOL    HW2 9009   5.744   0.130   8.570 -1.9651  0.0687  1.4909
 1058SOL     OW 9010   0.152   2.772   9.262 -0.4325  0.1486  0.2887
 1058SOL    HW1 9011   0.242   2.764   9.294 -0.5680  1.7052  1.1408
 1058SOL    HW2 9012   0.161   2.810   9.174 -0.2692  0.3929  0.4125
 1059SOL     OW 9013   3.284   4.225   0.801  0.2108  0.3143  0.2885
 1059SOL    HW1 9014   3.329   4.191   0.879  0.6239  0.8134  0.2716
 1059SOL    HW2 9015   3.263   4.315   0.823  0.3402  0.4607 -0.1849
 1060SOL     OW 9016   4.894  10.180   2.930  0.2728  0.1271 -0.1781
 1060SOL    HW1 9017   4.814  10.149   2.973  0.3673  1.0351  0.6695
 1060SOL    HW2 9018   4.870  10.265   2.893  0.8291  0.3868  0.0458
 1061SOL     OW 9019   3.929   9.163   2.897  0.3328 -0.3387 -0.7204
 1061SOL    HW1 9020   3.944   9.070   2.877 -0.0511 -1.1007  2.0901
 1061SOL    HW2 9021   3.981   9.210   2.832  0.6598 -2.5180 -2.1417
 1062SOL     OW 9022   7.330   3.390   3.134 -0.6179 -0.2614  0.1418
 1062SOL    HW1 9023   7.308   3.352   3.219 -0.4929 -1.0893 -0.1876
 1062SOL    HW2 9024   7.250   3.435   3.106 -0.6994 -0.0984  0.6335
 1063SOL     OW 9025   4.956   7.650   6.424 -0.3009  0.3458  0.0037
 1063SOL    HW1 9026   5.022   7.683   6.363 -0.6434  0.9948 -0.0234
 1063SOL    HW2 9027   4.981   7.559   6.440 -0.2873  0.1345 -1.1963
 1064SOL     OW 9028  10.390   3.134   1.021  0.0196 -0.1378 -0.0185
 1064SOL    HW1 9029  10.384   3.228   1.032  0.0230 -0.0600 -0.6454
 1064SOL    HW2 9030  10.400   3.121   0.926  0.0909 -0.7593  0.0675
 1065SOL     OW 9031   3.717   3.638   4.399  0.1431 -0.7005 -0.4220
 1065SOL    HW1 9032   3.692   3.601   4.314 -0.1706 -1.5641  0.0235
 1065SOL    HW2 9033   3.638   3.629   4.452  0.4296 -0.4484  0.0480
 1066SOL     OW 9034   8.791   5.668   3.569  0.0391 -0.3252 -0.6540
 1066SOL    HW1 9035   8.779   5.591   3.513  0.6262 -0.0727 -1.1292
 1066SOL    HW2 9036   8.882   5.664   3.597 -0.3468 -0.6638  0.6281
 1067SOL     OW 9037   0.236   1.305  12.133 -0.0332  0.0574  0.2549
 1067SOL    HW1 9038   0.291   1.348  12.068 -0.2205  0.6269  0.4640
 1067SOL    HW2 9039   0.257   1.349  12.215 -1.3637  0.8383  0.2093
 1068SOL     OW 9040   7.005   2.305   3.657  0.3591 -0.3226  0.1872
 1068SOL    HW1 9041   7.097   2.325   3.640  0.4677 -1.3463 -0.4697
 1068SOL    HW2 9042   6.981   2.240   3.592 -0.8574 -0.0384  0.3100
 1069SOL     OW 9043   6.038  10.165   4.022  0.2679  0.3686 -0.3213
 1069SOL    HW1 9044   5.979  10.202   4.087  0.4524 -0.2864  0.2327
 1069SOL    HW2 9045   6.055  10.237   3.961 -0.7630  0.6820 -0.2538
 1070SOL     OW 9046   5.216   1.052   9.728 -0.6278 -0.4547  0.1842
 1070SOL    HW1 9047   5.124   1.045   9.702 -0.3741 -1.2609 -0.5429
 1070SOL    HW2 9048   5.265   1.019   9.653  0.2561 -0.2134  0.6362
 1071SOL     OW 9049   5.949   2.030   6.148  0.2705  0.5812  0.5440
 1071SOL    HW1 9050   5.891   2.105   6.134 -1.6221 -0.5293  1.8932
 1071SOL    HW2 9051   5.959   1.992   6.061 -0.5425  1.1604  0.1753
 1072SOL     OW 9052   4.111  11.401   6.304  0.0383  0.6363 -0.2090
 1072SOL    HW1 9053   4.085  11.490   6.282  0.9099  0.8943 -0.2367
 1072SOL    HW2 9054   4.207  11.402   6.298  0.0318 -0.4517 -0.7813
 1073SOL     OW 9055   9.900   2.251   9.060 -0.2133 -0.4882  0.3098
 1073SOL    HW1 9056   9.878   2.328   9.113  0.6845 -2.4070  3.7560
 1073SOL    HW2 9057   9.820   2.199   9.059 -0.0696 -0.7092  0.2650
 1074SOL     OW 9058  10.204   9.109   7.330 -0.6459  0.1244  0.3701
 1074SOL    HW1 9059  10.220   9.204   7.333 -3.2767  0.7218 -1.0420
 1074SOL    HW2 9060  10.279   9.073   7.283  0.2054  1.5622  0.5691
 1075SOL     OW 9061  11.170   4.219  12.020 -0.0183 -0.2997  0.0511
 1075SOL    HW1 9062  11.257   4.247  11.991  0.3172  0.4850  1.7172
 1075SOL    HW2 9063  11.110   4.269  11.966  0.5809  0.5217  0.1251
 1076SOL     OW 9064  10.190   6.670   5.141 -0.2751 -0.1286  0.4927
 1076SOL    HW1 9065  10.281   6.652   5.163 -0.3946 -0.5458  0.6406
 1076SOL    HW2 9066  10.139   6.612   5.196 -0.6352  0.1055  0.4135
 1077SOL     OW 9067   7.900   4.473   1.557  0.5420 -0.2114  0.3799
 1077SOL    HW1 9068   7.915   4.464   1.652  0.4704  1.2464  0.5423
 1077SOL    HW2 9069   7.986   4.454   1.518  0.4665 -1.2725  0.6826
 1078SOL     OW 9070   1.214   1.427   7.387 -0.1004 -0.0089 -0.1090
 1078SOL    HW1 9071   1.140   1.424   7.326 -0.2836  0.0340  0.1104
 1078SOL    HW2 9072   1.187   1.489   7.455 -0.1561 -0.5303  0.3507
 1079SOL     OW 9073   0.577  11.085  11.498 -0.1741  0.1993  0.0182
 1079SOL    HW1 9074   0.560  11.048  11.411  0.0586  0.3347 -0.0870
 1079SOL    HW2 9075   0.668  11.115  11.494  0.2019 -0.8102  0.6872
 1080SOL     OW 9076  11.033   0.137   6.229 -0.6949 -0.4414 -0.3358
 1080SOL    HW1 9077  11.110   0.170   6.184  0.6095 -0.3048  1.8785
 1080SOL    HW2 9078  10.959   0.178   6.184  0.5874  0.7568 -1.4202
 1081SOL     OW 9079   1.839  10.518  10.284  0.0377 -0.4349  0.4320
 1081SOL    HW1 9080   1.927  10.548  10.262 -0.3779  0.4764 -0.0433
 1081SOL    HW2 9081   1.799  10.592  10.329 -0.1658 -1.1952  1.5509
 1082SOL     OW 9082   7.730  10.251   8.339 -0.5478 -0.1243  0.0793
 1082SOL    HW1 9083   7.804  10.222   8.393  0.2928  0.7771 -0.5712
 1082SOL    HW2 9084   7.693  10.324   8.388  0.4294  0.9210 -0.6982
 1083SOL     OW 9085   6.888  11.911   1.977  0.2591  0.4766  0.2359
 1083SOL    HW1 9086   6.939  11.852   1.920  2.1345  0.8932  1.3942
 1083SOL    HW2 9087   6.799  11.878   1.971  0.8559 -1.0881 -0.9129
 1084SOL     OW 9088  12.251   8.617   0.125  0.2380  0.1355  0.5892
 1084SOL    HW1 9089  12.276   8.526   0.110  2.4666  0.8095 -0.1662
 1084SOL    HW2 9090  12.326   8.668   0.094 -1.6528  2.3259 -0.7259
 1085SOL     OW 9091   6.385   5.762   8.616 -0.5802  1.0783 -0.2442
 1085SOL    HW1 9092   6.418   5.816   8.544 -0.7425  1.5749  0.0490
 1085SOL    HW2 9093   6.457   5.702   8.637  0.7909  3.1834  1.4671
 1086SOL     OW 9094   3.130   2.797   8.161 -0.0846 -0.3816  0.5433
 1086SOL    HW1 9095   3.054   2.740   8.168 -0.2622 -0.1357  0.6486
 1086SOL    HW2 9096   3.122   2.838   8.075 -1.1064  1.0830  1.3000
 1087SOL     OW 9097   6.311   4.524   5.601 -0.1436  0.5972  0.0598
 1087SOL    HW1 9098   6.300   4.454   5.666  0.2132 -0.1660 -0.6666
 1087SOL    HW2 9099   6.325   4.603   5.652  0.7368 -0.0934  0.9195
 1088SOL     OW 9100   0.698  12.213  10.780  0.4967 -0.0476  0.4493
 1088SOL    HW1 9101   0.708  12.289  10.836 -0.1282  0.5174 -0.1858
 1088SOL    HW2 9102   0.616  12.173  10.807  1.1487 -0.9048  1.2374
 1089SOL     OW 9103   5.641   2.511   8.360 -0.5775  0.2852  0.1025
 1089SOL    HW1 9104   5.693   2.516   8.280  0.6640  1.6625  0.9353
 1089SOL    HW2 9105   5.643   2.600   8.395  2.2069 -0.9064  3.6352
 1090SOL     OW 9106   6.168   8.800   4.448 -0.2169  0.1650  0.6440
 1090SOL    HW1 9107   6.130   8.712   4.433  0.4161 -0.1450  0.8504
 1090SOL    HW2 9108   6.245   8.802   4.391 -1.8852  1.7347 -1.7645
 1091SOL     OW 9109   8.550   1.408  11.496  0.4466  0.1370 -0.0884
 1091SOL    HW1 9110   8.486   1.375  11.432  1.1764 -0.7314 -0.3843
 1091SOL    HW2 9111   8.547   1.503  11.485  0.1934  0.0348 -1.0740
 1092SOL     OW 9112  11.896  10.610   8.135 -0.4425  0.2024 -0.0816
 1092SOL    HW1 9113  11.970  10.550   8.142 -0.0222  0.6915 -0.3059
 1092SOL    HW2 9114  11.874  10.631   8.226  0.9380  1.5661 -0.0280
 1093SOL     OW 9115   5.937   3.533   1.289  0.7513 -0.2997  0.2973
 1093SOL    HW1 9116   5.941   3.602   1.355  2.0385 -0.8058  0.7741
 1093SOL    HW2 9117   6.025   3.530   1.252 -0.0099  0.1614 -1.6672
 1094SOL     OW 9118   8.211   4.107  12.304  0.5854 -0.2291  0.3072
 1094SOL    HW1 9119   8.129   4.091  12.352 -0.8818  2.2546 -1.1100
 1094SOL    HW2 9120   8.280   4.097  12.370 -1.2185  1.8660  2.7200
 1095SOL     OW 9121   6.833   0.475  10.829  0.2669 -0.3371  0.7711
 1095SOL    HW1 9122   6.793   0.419  10.763  1.6385 -3.1933  2.1834
 1095SOL    HW2 9123   6.925   0.449  10.829  0.8422  1.4854  2.0111
 1096SOL     OW 9124  11.940   7.816   6.281 -0.0261 -0.4574 -0.4039
 1096SOL    HW1 9125  11.983   7.868   6.213  1.1194 -2.0655 -0.9645
 1096SOL    HW2 9126  12.008   7.798   6.345 -0.0048 -2.3950 -0.9134
 1097SOL     OW 9127  12.195   8.042   5.673  0.2949 -0.3555  0.3471
 1097SOL    HW1 9128  12.149   8.111   5.720  1.0641 -0.9786  2.1178
 1097SOL    HW2 9129  12.274   8.084   5.639 -1.1485  0.5561 -2.1441
 1098SOL     OW 9130   0.030   4.272   6.464 -0.3940 -0.4842 -0.1101
 1098SOL    HW1 9131   0.097   4.306   6.523  0.2266  0.6399 -1.4083
 1098SOL    HW2 9132   0.049   4.179   6.457 -0.1717 -0.5346  1.0574
 1099SOL     OW 9133   0.603   2.134   1.475 -0.0844 -0.1782  0.1981
 1099SOL    HW1 9134   0.551   2.200   1.430  1.9821  0.1162 -1.9725
 1099SOL    HW2 9135   0.568   2.051   1.447 -1.8632 -0.0845  1.9247
 1100SOL     OW 9136   4.385   3.993   5.139  0.7457  0.1143 -0.2519
 1100SOL    HW1 9137   4.450   3.950   5.084 -0.0347 -0.7950 -0.4808
 1100SOL    HW2 9138   4.437   4.046   5.200  1.6873 -0.4437 -0.5462
 1101SOL     OW 9139   6.159  11.632   3.678  0.2199  0.0019 -0.3034
 1101SOL    HW1 9140   6.231  11.692   3.699 -0.1184  0.0602  0.7596
 1101SOL    HW2 9141   6.086  11.689   3.655 -0.9219  0.2058  3.2764
 1102SOL     OW 9142   9.100  11.176  10.172  0.2482  0.0791 -0.7666
 1102SOL    HW1 9143   9.056  11.157  10.254  1.0209 -0.0161 -0.3681
 1102SOL    HW2 9144   9.107  11.272  10.169  1.3694  0.0369 -0.0933
 1103SOL     OW 9145  11.550  11.751   3.934  0.2117 -0.2799  0.3981
 1103SOL    HW1 9146  11.494  11.766   3.857 -0.8714 -2.9115  0.5488
 1103SOL    HW2 9147  11.503  11.793   4.006 -0.3830 -0.4187  0.1032
 1104SOL     OW 9148  10.232   9.064   6.226 -0.1731  0.4277  0.3796
 1104SOL    HW1 9149  10.287   9.142   6.234  0.3595  0.3787 -2.0774
 1104SOL    HW2 9150  10.143   9.098   6.218  0.0589  0.8159 -0.6863
 1105SOL     OW 9151   3.082   7.679   1.851 -0.1027  0.2596 -0.0024
 1105SOL    HW1 9152   3.070   7.623   1.928  1.7339  0.2045  0.2949
 1105SOL    HW2 9153   3.107   7.618   1.781 -0.6722  0.4266 -0.3494
 1106SOL     OW 9154   1.627   2.421   4.857 -0.0536 -0.4940  0.3312
 1106SOL    HW1 9155   1.628   2.481   4.932  0.6172 -0.5279  0.3523
 1106SOL    HW2 9156   1.673   2.344   4.888  1.1283 -0.1148 -0.4374
 1107SOL     OW 9157   5.600   9.671   0.406 -0.1598 -0.2824 -0.2110
 1107SOL    HW1 9158   5.553   9.591   0.430  0.3928 -0.8794 -1.0633
 1107SOL    HW2 9159   5.614   9.663   0.311  0.1382  0.6986 -0.2591
 1108SOL     OW 9160   3.712   0.317   1.932 -0.5946 -0.6699  0.4258
 1108SOL    HW1 9161   3.695   0.225   1.950 -1.3212 -0.9954 -1.6101
 1108SOL    HW2 9162   3.637   0.346   1.880  0.1172  0.7888  0.1385
 1109SOL     OW 9163   4.588   6.527  11.509 -0.2508  0.0971  0.2294
 1109SOL    HW1 9164   4.506   6.521  11.559  0.0627 -1.8504  0.5831
 1109SOL    HW2 9165   4.641   6.590  11.559 -0.7159 -0.2643  1.2118
 1110SOL     OW 9166   2.159   9.735   3.586  0.3654  0.2244 -0.1357
 1110SOL    HW1 9167   2.118   9.659   3.627  0.9609 -0.5418 -0.9284
 1110SOL    HW2 9168   2.167   9.712   3.493 -2.3824  2.5161 -1.0909
 1111SOL     OW 9169   1.160  10.306   5.822  0.2270 -0.1417 -0.2040
 1111SOL    HW1 9170   1.239  10.271   5.865 -0.3997 -1.0190  0.2618
 1111SOL    HW2 9171   1.089  10.249   5.852 -0.2424 -0.8708 -2.4980
 1112SOL     OW 9172   6.438   8.502  11.442  0.3663  0.6444 -0.1319
 1112SOL    HW1 9173   6.441   8.441  11.515  0.1387  0.1388 -0.5426
 1112SOL    HW2 9174   6.457   8.449  11.365  0.4470  1.1422 -0.4620
 1113SOL     OW 9175   5.009   4.906  12.102 -0.3703 -0.8154  0.5399
 1113SOL    HW1 9176   5.024   4.843  12.031  0.5928 -0.4283  0.3755
 1113SOL    HW2 9177   4.931   4.874  12.147  0.1350 -2.1699  0.5057
 1114SOL     OW 9178  10.446   4.029  11.424  0.1593 -0.0510  0.2821
 1114SOL    HW1 9179  10.441   3.992  11.512 -2.2513 -0.9023 -0.1444
 1114SOL    HW2 9180  10.386   4.104  11.426 -1.0789 -0.9700 -1.0003
 1115SOL     OW 9181   9.430  11.940   9.336  0.1318  0.2897 -0.7702
 1115SOL    HW1 9182   9.461  11.960   9.424 -1.3670 -0.5292 -0.0117
 1115SOL    HW2 9183   9.355  11.997   9.323 -0.1487 -0.1589 -1.1830
 1116SOL     OW 9184  10.028   8.492   7.641 -0.7728 -0.7269 -0.0424
 1116SOL    HW1 9185   9.947   8.494   7.692 -0.0869  1.6400  1.1302
 1116SOL    HW2 9186  10.090   8.543   7.693  1.0812 -1.3237 -1.5533
 1117SOL     OW 9187   9.694  11.079  12.034 -0.2392  0.3333  0.3930
 1117SOL    HW1 9188   9.717  11.119  12.119  0.3569 -0.9531  0.8528
 1117SOL    HW2 9189   9.613  11.123  12.009  0.5263  2.0527  0.7212
 1118SOL     OW 9190   3.251   3.640   7.137  0.0901  0.2570  0.6065
 1118SOL    HW1 9191   3.325   3.627   7.079 -0.6240  0.3125 -0.3404
 1118SOL    HW2 9192   3.252   3.733   7.158 -0.7705  0.6458 -0.9154
 1119SOL     OW 9193   5.279  11.332   7.280 -0.6910 -0.0425  0.5985
 1119SOL    HW1 9194   5.204  11.316   7.337 -0.9383  1.8659  0.8861
 1119SOL    HW2 9195   5.243  11.332   7.191 -0.7785 -0.4250  0.6312
 1120SOL     OW 9196   0.091   8.353   1.888 -0.0995  0.6332 -0.3018
 1120SOL    HW1 9197   0.097   8.269   1.843 -3.2219 -0.9078  1.7726
 1120SOL    HW2 9198   0.141   8.341   1.969 -0.2975  0.8754 -0.1411
 1121SOL     OW 9199  10.387   1.604   5.932  0.3165 -0.0163 -0.0531
 1121SOL    HW1 9200  10.351   1.629   5.847 -1.1063  0.4219  0.6603
 1121SOL    HW2 9201  10.365   1.512   5.942 -1.5478  0.4753  0.7961
 1122SOL     OW 9202   1.736   3.826  10.593  0.0623  0.0036 -0.4893
 1122SOL    HW1 9203   1.696   3.868  10.516 -0.2174  1.5324  0.4563
 1122SOL    HW2 9204   1.664   3.818  10.655  0.2155 -1.5243 -0.4835
 1123SOL     OW 9205   5.181   5.682   9.855  0.2146  0.2075 -0.0628
 1123SOL    HW1 9206   5.118   5.638   9.798 -2.9326  0.7638  2.6391
 1123SOL    HW2 9207   5.163   5.776   9.841  0.8472  0.3930  0.3438
 1124SOL     OW 9208   3.936   9.941   8.592 -0.5923  0.3623  0.9652
 1124SOL    HW1 9209   4.007  10.001   8.568 -1.1398  1.1617  1.2861
 1124SOL    HW2 9210   3.925   9.952   8.686 -1.8193  1.0379  0.7718
 1125SOL     OW 9211   8.322   5.288   5.898  0.1919  0.5376 -0.2479
 1125SOL    HW1 9212   8.323   5.212   5.840 -1.1861  0.0559  0.3102
 1125SOL    HW2 9213   8.246   5.339   5.870  0.8601  1.5102 -0.3421
 1126SOL     OW 9214  10.707   0.435   6.536 -0.1024 -0.0426 -0.3206
 1126SOL    HW1 9215  10.709   0.347   6.499 -1.0262  0.6894 -2.2440
 1126SOL    HW2 9216  10.795   0.469   6.522  0.4652 -0.8336  1.0366
 1127SOL     OW 9217   3.767   6.170   8.488  0.3694  0.5253 -0.4055
 1127SOL    HW1 9218   3.765   6.264   8.509 -0.9361  0.4960 -0.3038
 1127SOL    HW2 9219   3.786   6.128   8.572 -0.2879  0.6448 -0.1902
 1128SOL     OW 9220   0.759  10.604   5.459 -0.0573 -0.3657  0.5359
 1128SOL    HW1 9221   0.788  10.585   5.548  0.7945  0.4552  0.4498
 1128SOL    HW2 9222   0.681  10.549   5.447 -0.6917  0.1544  2.0626
 1129SOL     OW 9223   0.226   6.536  10.927  0.3294  0.3301  0.0119
 1129SOL    HW1 9224   0.321   6.538  10.941  0.3178  0.7479  0.0597
 1129SOL    HW2 9225   0.190   6.503  11.009  0.5908 -2.6540 -0.9516
 1130SOL     OW 9226  12.118   0.266   1.397  0.2942 -0.4379  0.0171
 1130SOL    HW1 9227  12.155   0.345   1.358 -1.9637 -0.5096 -2.5340
 1130SOL    HW2 9228  12.024   0.283   1.401 -0.2189 -2.8242 -0.2791
 1131SOL     OW 9229   1.850   4.628  10.389 -0.4412 -0.6949  0.2203
 1131SOL    HW1 9230   1.835   4.716  10.356 -3.6694 -0.2902  2.3056
 1131SOL    HW2 9231   1.827   4.570  10.316  0.9499  0.1229 -0.9058
 1132SOL     OW 9232  11.467  10.620   1.478 -0.0867 -0.2776 -0.2766
 1132SOL    HW1 9233  11.498  10.544   1.526  1.3820  1.8477  2.3716
 1132SOL    HW2 9234  11.522  10.623   1.399  1.8542 -0.3644  1.0157
 1133SOL     OW 9235   4.552   0.683   2.113 -0.0930 -0.0925  0.3130
 1133SOL    HW1 9236   4.537   0.610   2.174 -0.9234  1.6710  2.3670
 1133SOL    HW2 9237   4.630   0.727   2.147 -0.6746  1.0333  0.2458
 1134SOL     OW 9238   1.549   2.351   4.359 -0.1052 -0.2831  0.1805
 1134SOL    HW1 9239   1.510   2.326   4.275 -2.8465 -1.1977  1.6122
 1134SOL    HW2 9240   1.624   2.292   4.369  0.4489  0.0184 -1.6817
 1135SOL     OW 9241   4.958   8.287   8.284  0.3509 -0.7394  0.7959
 1135SOL    HW1 9242   4.908   8.315   8.361 -0.0276 -3.1459  1.4908
 1135SOL    HW2 9243   4.975   8.194   8.299 -0.1809 -1.4252 -2.2736
 1136SOL     OW 9244   2.299   9.862   1.200 -0.6809  0.3474 -0.1446
 1136SOL    HW1 9245   2.386   9.830   1.176  0.4591  1.8063  1.8146
 1136SOL    HW2 9246   2.311   9.904   1.285 -3.3298  0.5674  0.2029
 1137SOL     OW 9247  11.250   5.021   2.683 -0.1146  0.1105  0.2727
 1137SOL    HW1 9248  11.243   5.106   2.638  1.5762  0.1124 -0.0584
 1137SOL    HW2 9249  11.172   5.016   2.737 -1.3749  0.8837 -1.3799
 1138SOL     OW 9250   8.392   5.216   2.280 -0.0662 -0.5386 -0.6811
 1138SOL    HW1 9251   8.355   5.302   2.298  2.0442  0.2052  0.4646
 1138SOL    HW2 9252   8.394   5.210   2.184  2.2148  1.9289 -0.9226
 1139SOL     OW 9253   1.478  10.404  11.697 -0.0283 -0.0475  0.2599
 1139SOL    HW1 9254   1.523  10.329  11.737 -2.3179 -1.4192  0.4221
 1139SOL    HW2 9255   1.549  10.464  11.673  1.9816 -2.5491 -0.5257
 1140SOL     OW 9256  11.460   0.260   9.042 -0.7290 -0.5600 -0.3143
 1140SOL    HW1 9257  11.440   0.167   9.028 -1.3212 -0.7231  1.3052
 1140SOL    HW2 9258  11.486   0.264   9.134  0.1265  0.7579 -0.5974
 1141SOL     OW 9259   3.501   7.060   8.698  0.2180 -0.1401  0.2027
 1141SOL    HW1 9260   3.535   7.149   8.693  1.1012 -0.5145 -0.8608
 1141SOL    HW2 9261   3.437   7.055   8.627 -1.6221  0.3407  1.7428
 1142SOL     OW 9262  12.011   7.543   9.033 -0.2698  0.5267  0.8819
 1142SOL    HW1 9263  11.963   7.621   9.004  1.1053  2.3261  3.1078
 1142SOL    HW2 9264  12.085   7.538   8.972 -1.8132 -0.8158 -1.0231
 1143SOL     OW 9265  10.937   9.775  10.594  0.1602 -0.0660 -0.2071
 1143SOL    HW1 9266  10.946   9.868  10.610 -0.4755  0.1117 -0.8322
 1143SOL    HW2 9267  10.978   9.761  10.508  1.4745 -0.6079  0.4683
 1144SOL     OW 9268   9.696   5.254   4.856 -0.1584 -0.0599  0.4980
 1144SOL    HW1 9269   9.778   5.205   4.862 -0.2514 -0.5496 -1.5560
 1144SOL    HW2 9270   9.632   5.191   4.824 -0.8918  0.7791  0.2777
 1145SOL     OW 9271   7.809   2.540   3.439  0.3804 -0.2457 -0.1367
 1145SOL    HW1 9272   7.863   2.618   3.455  0.5595 -0.1230 -1.2413
 1145SOL    HW2 9273   7.814   2.527   3.345  0.2923 -1.5681  0.0258
 1146SOL     OW 9274   2.082  10.103   6.735  0.1129 -0.0949 -0.0653
 1146SOL    HW1 9275   2.093  10.077   6.827  0.1576  1.0445  0.2687
 1146SOL    HW2 9276   2.166  10.082   6.694  1.2103  2.0883  0.8632
 1147SOL     OW 9277   5.602   2.989   0.990 -0.7279  0.9457 -0.0556
 1147SOL    HW1 9278   5.529   2.998   1.051 -1.6152  0.5472 -1.0411
 1147SOL    HW2 9279   5.610   2.895   0.975 -0.6127  1.0485 -0.6714
 1148SOL     OW 9280   5.445   9.506  10.128 -0.0896 -0.1419 -0.2641
 1148SOL    HW1 9281   5.479   9.428  10.170  4.6314  1.1515 -1.1254
 1148SOL    HW2 9282   5.433   9.569  10.200 -0.9715 -0.6961  0.0863
 1149SOL     OW 9283   7.815   7.362  10.113 -0.4893  0.1756  0.2074
 1149SOL    HW1 9284   7.759   7.415  10.056 -0.0203 -0.0127 -0.4453
 1149SOL    HW2 9285   7.764   7.283  10.131 -1.0007  0.6355  0.7965
 1150SOL     OW 9286   9.288   4.565   7.983 -0.2636  0.4921  0.4676
 1150SOL    HW1 9287   9.322   4.654   7.974 -0.3766  0.6403  1.3540
 1150SOL    HW2 9288   9.330   4.532   8.064 -0.7936  0.0094  0.5519
 1151SOL     OW 9289  10.995  12.093   8.213 -0.3031 -0.1727  0.1846
 1151SOL    HW1 9290  10.933  12.142   8.268  0.3040 -0.4292  1.1254
 1151SOL    HW2 9291  10.992  12.138   8.129 -0.6312  0.7683  0.6756
 1152SOL     OW 9292   1.588   0.436   4.368 -0.1848  0.5282  0.2553
 1152SOL    HW1 9293   1.632   0.517   4.391 -0.9380  0.8106  0.7489
 1152SOL    HW2 9294   1.601   0.379   4.444 -0.5197  0.5513  0.3305
 1153SOL     OW 9295   7.944   9.418   5.406  0.0885  0.1092 -0.4896
 1153SOL    HW1 9296   7.957   9.439   5.499 -1.2862 -2.8122  0.4652
 1153SOL    HW2 9297   7.850   9.430   5.392  0.1658 -0.2054 -1.3050
 1154SOL     OW 9298   5.185   6.806   3.994 -0.4477 -0.3465  0.0292
 1154SOL    HW1 9299   5.096   6.837   4.011 -0.9717 -1.5527 -0.4252
 1154SOL    HW2 9300   5.216   6.772   4.078 -0.5140 -0.1581  0.1294
 1155SOL     OW 9301   1.925   4.641   4.899  0.6436  0.4123  0.7432
 1155SOL    HW1 9302   1.858   4.581   4.867  3.2762 -2.0232 -0.7094
 1155SOL    HW2 9303   1.959   4.600   4.978  1.2204  0.9270  0.7757
 1156SOL     OW 9304   8.029   2.441  11.000 -0.2818 -0.1069 -0.1885
 1156SOL    HW1 9305   8.082   2.520  11.007 -0.7148  0.2650 -1.0632
 1156SOL    HW2 9306   8.038   2.414  10.909  0.3673 -1.4303  0.2377
 1157SOL     OW 9307   7.706  11.130   5.090  0.1784  1.1364 -0.1581
 1157SOL    HW1 9308   7.714  11.055   5.149  0.0254  1.7938  0.7267
 1157SOL    HW2 9309   7.724  11.094   5.003 -1.0554 -0.1678  0.0862
 1158SOL     OW 9310   4.421   7.188   2.858  0.0594  0.4628 -0.4960
 1158SOL    HW1 9311   4.484   7.128   2.816  0.5943  0.1215  0.7335
 1158SOL    HW2 9312   4.455   7.275   2.839  0.9256  0.2795  0.1586
 1159SOL     OW 9313  10.498   4.262   8.458  0.0697 -0.7692 -0.0575
 1159SOL    HW1 9314  10.535   4.206   8.390  0.1061 -1.4711  0.5266
 1159SOL    HW2 9315  10.570   4.278   8.519  0.9106  2.3588 -1.6842
 1160SOL     OW 9316   9.152   2.049   2.708  0.3972 -0.7033 -0.2331
 1160SOL    HW1 9317   9.208   2.078   2.636  0.2792 -1.5495 -0.6782
 1160SOL    HW2 9318   9.156   2.120   2.772  1.7673 -0.6327 -0.3733
 1161SOL     OW 9319   5.250   3.200   8.996 -0.0226 -0.1075 -0.4977
 1161SOL    HW1 9320   5.324   3.176   9.052 -1.0841 -1.8940  0.2250
 1161SOL    HW2 9321   5.291   3.233   8.916  1.5341  1.0931  0.7184
 1162SOL     OW 9322   0.594   1.486   2.292 -0.7251  0.2075 -0.4856
 1162SOL    HW1 9323   0.611   1.558   2.230 -2.3206  0.3450 -0.7956
 1162SOL    HW2 9324   0.566   1.530   2.372  0.5548 -0.0079  0.1105
 1163SOL     OW 9325   4.022   9.659   9.216 -0.0218 -0.4367  0.3725
 1163SOL    HW1 9326   4.114   9.646   9.193  0.0859  0.1847  0.4248
 1163SOL    HW2 9327   3.982   9.573   9.205  0.7336 -0.9044  1.1525
 1164SOL     OW 9328  11.922   2.083  10.721 -0.3728 -0.2558  0.3679
 1164SOL    HW1 9329  11.964   2.049  10.642  1.9491 -0.8655  1.7633
 1164SOL    HW2 9330  11.890   2.005  10.767  0.0466 -0.0930  0.9502
 1165SOL     OW 9331   6.766  11.508   8.328  0.4014  0.1556 -0.3778
 1165SOL    HW1 9332   6.767  11.510   8.232 -0.4148  0.8978 -0.3861
 1165SOL    HW2 9333   6.791  11.418   8.351 -0.6086 -0.3986 -1.3251
 1166SOL     OW 9334   4.167   0.477   3.350  0.7623 -0.2858 -0.1075
 1166SOL    HW1 9335   4.136   0.389   3.367  0.4678 -0.0660  0.5421
 1166SOL    HW2 9336   4.240   0.466   3.290  0.3361 -0.9190 -0.5165
 1167SOL     OW 9337   2.068   8.950   9.468  0.4785  0.0764  0.4278
 1167SOL    HW1 9338   2.059   8.951   9.373  1.7551  1.4723  0.2779
 1167SOL    HW2 9339   2.162   8.935   9.483  0.3546  0.2484  1.4476
 1168SOL     OW 9340   1.217  11.472   7.822 -0.2664  0.4921 -0.0120
 1168SOL    HW1 9341   1.134  11.489   7.865 -0.6356 -1.1124 -0.0367
 1168SOL    HW2 9342   1.202  11.394   7.769  1.3189 -0.0458  0.2485
 1169SOL     OW 9343   5.774  11.186   0.615 -0.3143 -0.0101  0.8891
 1169SOL    HW1 9344   5.835  11.114   0.633 -0.8561 -0.2931  1.6745
 1169SOL    HW2 9345   5.715  11.151   0.549  0.7124  0.4727 -0.3240
 1170SOL     OW 9346   0.858   0.562   1.669  0.2937  0.2438 -0.0516
 1170SOL    HW1 9347   0.874   0.650   1.637  1.2690  0.4616  0.9450
 1170SOL    HW2 9348   0.910   0.556   1.750 -1.6455 -0.4257  1.2330
 1171SOL     OW 9349   0.110   1.037   5.302  0.4316  0.3329  0.2499
 1171SOL    HW1 9350   0.112   1.009   5.211  1.7533 -0.9388  0.6325
 1171SOL    HW2 9351   0.149   1.124   5.302 -0.7991  0.9193 -0.5413
 1172SOL     OW 9352   8.151   7.027   3.667 -0.4745  0.1465  0.1600
 1172SOL    HW1 9353   8.230   6.976   3.685  0.7357  1.7939 -0.3001
 1172SOL    HW2 9354   8.125   7.001   3.578 -0.0787  0.0574  0.0700
 1173SOL     OW 9355  12.281   5.673  10.167 -0.2924  0.1059 -0.1918
 1173SOL    HW1 9356  12.365   5.716  10.153 -0.5140  0.4504 -0.4841
 1173SOL    HW2 9357  12.232   5.687  10.086 -0.6705  0.0047  0.0138
 1174SOL     OW 9358   3.428   5.038   5.423 -0.3216  0.1070 -0.0941
 1174SOL    HW1 9359   3.390   5.126   5.427 -0.3090  0.0719  1.2790
 1174SOL    HW2 9360   3.486   5.040   5.347 -2.0806  0.5498 -1.4856
 1175SOL     OW 9361   7.203  11.753   9.771 -0.2097  0.0391 -0.0935
 1175SOL    HW1 9362   7.211  11.774   9.678 -0.5607 -0.0533 -0.1455
 1175SOL    HW2 9363   7.155  11.827   9.809  0.0926  0.1657  0.0504
 1176SOL     OW 9364  10.613   2.644   4.357  0.4744 -0.0349  0.1970
 1176SOL    HW1 9365  10.689   2.692   4.325  0.9955  0.3351  1.8697
 1176SOL    HW2 9366  10.549   2.712   4.379 -0.0411 -0.3029 -0.4413
 1177SOL     OW 9367   9.515   8.721   8.715  0.1007  0.5311  0.1289
 1177SOL    HW1 9368   9.506   8.627   8.697 -1.1386  0.4106  1.2413
 1177SOL    HW2 9369   9.504   8.763   8.629 -0.1979 -0.2985 -0.2498
 1178SOL     OW 9370   7.680   8.331   2.541 -0.6152 -0.0747  0.1582
 1178SOL    HW1 9371   7.760   8.346   2.591  0.5875 -0.7501 -1.5070
 1178SOL    HW2 9372   7.686   8.391   2.467 -0.3485 -1.9561 -1.4049
 1179SOL     OW 9373   3.398   2.071   9.382  0.5450  0.4022 -0.5312
 1179SOL    HW1 9374   3.310   2.084   9.346 -0.1642 -0.0508  0.9255
 1179SOL    HW2 9375   3.429   1.990   9.342  0.4699  0.7663 -1.3440
 1180SOL     OW 9376   6.023   2.301   8.996  0.2648 -0.7154 -0.3514
 1180SOL    HW1 9377   6.099   2.341   9.039 -0.6639  1.4967 -0.6300
 1180SOL    HW2 9378   5.998   2.230   9.055  1.5699 -0.4625  0.5723
 1181SOL     OW 9379   0.799  10.268   9.541 -0.4570  0.4453  0.0662
 1181SOL    HW1 9380   0.879  10.320   9.543 -0.0259 -0.1674 -0.6481
 1181SOL    HW2 9381   0.742  10.314   9.479 -1.6819  2.2568  2.3315
 1182SOL     OW 9382   6.238  10.456   8.100 -0.1416 -0.3749  0.3004
 1182SOL    HW1 9383   6.208  10.431   8.013 -1.5963  0.1715  0.6280
 1182SOL    HW2 9384   6.194  10.395   8.159 -1.7343  1.2620  0.8931
 1183SOL     OW 9385   4.370   5.502  10.963  0.0974 -0.3691  1.0414
 1183SOL    HW1 9386   4.444   5.558  10.984  0.1228 -0.6144  1.6239
 1183SOL    HW2 9387   4.305   5.560  10.924 -0.3896  0.3123  2.7983
 1184SOL     OW 9388   8.517   3.138   4.551 -0.5041  0.0469 -0.5391
 1184SOL    HW1 9389   8.506   3.053   4.508  1.0305  0.7003 -2.3586
 1184SOL    HW2 9390   8.589   3.179   4.504  0.5957  1.2746  2.0577
 1185SOL     OW 9391   5.870   9.097   4.301  0.0433  0.2274 -0.0377
 1185SOL    HW1 9392   5.797   9.051   4.259 -0.3657  0.6446  0.2120
 1185SOL    HW2 9393   5.948   9.057   4.262 -0.2642 -1.5016  1.0353
 1186SOL     OW 9394   3.382  11.031   1.080 -0.3473 -0.2515 -0.5553
 1186SOL    HW1 9395   3.436  11.017   1.002  0.3320 -1.0850  0.0447
 1186SOL    HW2 9396   3.411  10.964   1.142 -1.1814  0.1142  0.2608
 1187SOL     OW 9397   4.001   6.970   4.945  0.0468  0.3429  0.3750
 1187SOL    HW1 9398   3.940   6.959   5.018  0.5884  1.1586  0.9656
 1187SOL    HW2 9399   3.950   7.011   4.876 -0.5812 -0.8246  0.1249
 1188SOL     OW 9400   1.395   2.097   7.633  0.4145 -0.3833  0.6857
 1188SOL    HW1 9401   1.433   2.137   7.555  1.6364 -5.3579 -1.6810
 1188SOL    HW2 9402   1.302   2.117   7.627  0.9589  2.5178  0.2260
 1189SOL     OW 9403   8.628  12.259   9.087 -0.6423 -0.6041 -0.2600
 1189SOL    HW1 9404   8.669  12.226   9.166  1.2866  0.5124 -0.7290
 1189SOL    HW2 9405   8.599  12.347   9.110  0.1869 -0.1629 -0.8442
 1190SOL     OW 9406  11.409   1.126  10.770 -0.3789  0.1163 -0.3095
 1190SOL    HW1 9407  11.505   1.124  10.769 -0.3947 -1.3004 -1.4857
 1190SOL    HW2 9408  11.386   1.120  10.863  0.6676 -0.0468 -0.0492
 1191SOL     OW 9409   3.423  11.732   6.296 -0.5279  0.7466  0.1689
 1191SOL    HW1 9410   3.492  11.799   6.300 -0.6043  0.8061  0.4695
 1191SOL    HW2 9411   3.420  11.695   6.384  0.2269 -0.3732 -0.2453
 1192SOL     OW 9412   1.129  10.782   4.034  0.7005  0.1584  0.0046
 1192SOL    HW1 9413   1.146  10.787   3.940 -3.0492 -0.7027 -0.8962
 1192SOL    HW2 9414   1.151  10.692   4.058  0.2406 -0.0740 -0.4242
 1193SOL     OW 9415   7.181   7.455  11.302 -0.7192 -0.9097  0.4198
 1193SOL    HW1 9416   7.139   7.540  11.309 -0.5051 -0.8544  1.1909
 1193SOL    HW2 9417   7.209   7.448  11.211  2.1626  1.2340  1.0123
 1194SOL     OW 9418   6.554   6.982   3.949 -0.2044 -0.3041  0.3279
 1194SOL    HW1 9419   6.634   6.933   3.926 -0.3669  0.1535 -1.3334
 1194SOL    HW2 9420   6.584   7.052   4.007  0.5437 -0.3441 -0.0058
 1195SOL     OW 9421   9.398  10.681  11.732 -0.7114 -0.2966 -0.0372
 1195SOL    HW1 9422   9.469  10.744  11.743  0.1979 -1.5138  1.4573
 1195SOL    HW2 9423   9.419  10.637  11.649 -0.4532  0.2170 -0.2560
 1196SOL     OW 9424   7.008   0.286   0.169  0.2469  0.2164 -0.6182
 1196SOL    HW1 9425   6.968   0.307   0.085 -2.4729  0.0803  0.5425
 1196SOL    HW2 9426   7.061   0.363   0.190  0.2972  0.6029 -2.0408
 1197SOL     OW 9427   6.239   5.702   9.054 -0.2111  0.3370 -0.3456
 1197SOL    HW1 9428   6.211   5.617   9.020 -0.2572  0.5454 -0.8342
 1197SOL    HW2 9429   6.323   5.719   9.010 -0.9523  1.2633 -1.4683
 1198SOL     OW 9430  10.737   9.804  10.348 -0.1533  0.6048 -0.4598
 1198SOL    HW1 9431  10.814   9.858  10.365 -0.4771  0.2090  2.9648
 1198SOL    HW2 9432  10.772   9.720  10.319  0.5487  1.1863 -1.3481
 1199SOL     OW 9433   3.795   8.310  11.539  0.2367 -0.0586 -0.3266
 1199SOL    HW1 9434   3.831   8.395  11.511  2.0493 -0.8554 -0.5666
 1199SOL    HW2 9435   3.829   8.298  11.627  0.6190 -0.8687 -0.5803
 1200SOL     OW 9436   4.648   0.288   0.474 -0.4598 -0.2624 -0.0982
 1200SOL    HW1 9437   4.626   0.315   0.385  0.4936 -1.2370 -0.6469
 1200SOL    HW2 9438   4.638   0.193   0.474  1.8308 -0.5561  0.1375
 1201SOL     OW 9439   0.044   1.620   9.145  0.5299  0.3425 -0.1769
 1201SOL    HW1 9440   0.094   1.606   9.225 -1.0432  0.1276  0.7996
 1201SOL    HW2 9441   0.057   1.712   9.124 -0.7899  0.9685  1.5773
 1202SOL     OW 9442   9.493   6.751   2.004 -0.3456  0.1102 -0.6302
 1202SOL    HW1 9443   9.545   6.827   1.976  0.0010 -0.0197 -0.3474
 1202SOL    HW2 9444   9.498   6.752   2.100 -1.1601  0.2952 -0.5786
 1203SOL     OW 9445   6.714   7.514   4.585  0.2207 -0.5290  0.2495
 1203SOL    HW1 9446   6.724   7.559   4.669 -0.8942  0.4077 -0.0878
 1203SOL    HW2 9447   6.743   7.424   4.602 -1.2469 -0.7379  2.0216
 1204SOL     OW 9448   8.454   0.661   3.137 -0.3094 -0.5082 -0.4318
 1204SOL    HW1 9449   8.522   0.630   3.198  2.6168  2.7827 -1.6422
 1204SOL    HW2 9450   8.490   0.642   3.051 -1.6054  0.1307 -1.1272
 1205SOL     OW 9451   2.910   4.369   2.009 -0.1177  0.5390 -0.6205
 1205SOL    HW1 9452   2.944   4.394   2.095  0.2534  0.1100 -0.6410
 1205SOL    HW2 9453   2.859   4.445   1.981 -1.3479  0.1895  0.5567
 1206SOL     OW 9454   7.614   6.816  11.564 -0.3332  0.1522 -0.4056
 1206SOL    HW1 9455   7.595   6.767  11.484 -1.5495 -1.4980  0.8320
 1206SOL    HW2 9456   7.682   6.765  11.609  0.4141  1.1144 -0.3971
 1207SOL     OW 9457   1.155   4.826  10.345  0.2513  0.0632 -0.1030
 1207SOL    HW1 9458   1.102   4.886  10.293 -0.7080 -2.7512 -2.6333
 1207SOL    HW2 9459   1.094   4.790  10.409  1.0093  2.1526  1.9622
 1208SOL     OW 9460   3.333   9.287   8.427 -0.3155  0.0105  0.9243
 1208SOL    HW1 9461   3.351   9.267   8.519 -2.5526 -3.2929  0.7828
 1208SOL    HW2 9462   3.239   9.304   8.424 -1.1408 -3.8952 -1.1832
 1209SOL     OW 9463   7.378   4.977   0.936  0.3138 -0.0557 -0.0405
 1209SOL    HW1 9464   7.415   5.059   0.968  0.6383 -0.4796  0.7101
 1209SOL    HW2 9465   7.447   4.940   0.881  0.6694 -0.4096  0.6257
 1210SOL     OW 9466   1.320  10.808  11.268  0.2604 -0.5343  0.4000
 1210SOL    HW1 9467   1.319  10.889  11.216  0.3087 -0.6887  0.1572
 1210SOL    HW2 9468   1.384  10.752  11.223 -0.4619 -1.0670  0.0261
 1211SOL     OW 9469   6.832   3.194   9.906 -0.1953  0.7987 -0.3379
 1211SOL    HW1 9470   6.756   3.251   9.894  0.2981  1.2885 -1.2172
 1211SOL    HW2 9471   6.905   3.254   9.922  0.4457  0.4668 -1.8680
 1212SOL     OW 9472   3.177   1.416   8.519 -0.8302  0.1911 -0.0745
 1212SOL    HW1 9473   3.248   1.413   8.584 -0.2632 -1.7263 -0.7067
 1212SOL    HW2 9474   3.200   1.490   8.463 -0.1735  0.5577  0.6512
 1213SOL     OW 9475   1.619   7.581   3.120 -0.1970 -0.4690  0.8834
 1213SOL    HW1 9476   1.626   7.492   3.156  0.0507 -0.6491  0.3997
 1213SOL    HW2 9477   1.689   7.586   3.056  0.7555  0.5876  1.9591
 1214SOL     OW 9478  11.727   2.501   8.475  0.0648 -0.2334  0.5129
 1214SOL    HW1 9479  11.697   2.412   8.493  1.7208 -1.1734 -1.1089
 1214SOL    HW2 9480  11.717   2.547   8.559 -0.7088 -1.9562  1.4100
 1215SOL     OW 9481   7.149   3.116   5.322 -0.0128  0.3261  0.0521
 1215SOL    HW1 9482   7.168   3.209   5.306 -0.0403  0.4819  0.8752
 1215SOL    HW2 9483   7.088   3.117   5.396 -1.7098 -0.2437 -1.2779
 1216SOL     OW 9484   9.481   0.813   9.678 -0.6360  0.2134 -0.1121
 1216SOL    HW1 9485   9.519   0.842   9.595 -0.6860  1.6734  0.3435
 1216SOL    HW2 9486   9.416   0.880   9.699  1.2145  1.3490  2.4094
 1217SOL     OW 9487   1.744   2.403   8.176 -0.0876  0.4492  0.0737
 1217SOL    HW1 9488   1.669   2.345   8.160 -0.5181  1.0773 -0.2205
 1217SOL    HW2 9489   1.720   2.485   8.134  1.0228  0.4843 -0.5174
 1218SOL     OW 9490   8.672   2.802   6.462  0.3795  1.1142  0.1120
 1218SOL    HW1 9491   8.697   2.795   6.554 -0.3650  0.7092  0.2908
 1218SOL    HW2 9492   8.586   2.761   6.457  0.9345  0.0242 -0.9891
 1219SOL     OW 9493   2.333   1.269   0.842  0.3600 -0.5067 -0.8897
 1219SOL    HW1 9494   2.360   1.352   0.801 -0.5645 -0.6973 -1.9470
 1219SOL    HW2 9495   2.239   1.277   0.853  0.4421 -0.9210  0.2134
 1220SOL     OW 9496  12.112  11.331   2.050 -0.2305 -0.2118 -0.5245
 1220SOL    HW1 9497  12.139  11.392   2.119 -0.1277 -0.8590  0.0196
 1220SOL    HW2 9498  12.020  11.313   2.068  0.0898 -1.2752  0.1534
 1221SOL     OW 9499   1.057   4.524   2.042 -0.1935  0.3745  0.2033
 1221SOL    HW1 9500   1.082   4.600   1.990  0.7788  0.0468  0.1609
 1221SOL    HW2 9501   1.075   4.549   2.133  1.8423 -0.3864  0.0635
 1222SOL     OW 9502  11.142   8.123  11.659 -0.1833 -0.4036 -0.3813
 1222SOL    HW1 9503  11.096   8.181  11.599  1.9128  1.2021 -0.5567
 1222SOL    HW2 9504  11.147   8.173  11.741  1.8151 -0.1620 -0.5892
 1223SOL     OW 9505  11.931   8.781   4.403  0.3830 -0.0605 -0.2138
 1223SOL    HW1 9506  12.004   8.827   4.446  1.2880 -0.4131 -1.3236
 1223SOL    HW2 9507  11.932   8.694   4.441  2.0579 -0.8180 -1.8389
 1224SOL     OW 9508   7.817  11.091   4.779 -0.1895  0.0486 -0.0076
 1224SOL    HW1 9509   7.816  11.157   4.710 -0.3077 -0.5854 -0.6112
 1224SOL    HW2 9510   7.800  11.008   4.735  1.4841 -0.6197  0.5119
 1225SOL     OW 9511   3.701   3.637  10.543  0.5420 -0.0992  1.1983
 1225SOL    HW1 9512   3.764   3.704  10.569  0.2386  0.6350  0.1135
 1225SOL    HW2 9513   3.755   3.564  10.511  0.8589 -0.0277  1.5698
 1226SOL     OW 9514   1.392   4.944   8.099 -0.4785  0.2671 -0.1169
 1226SOL    HW1 9515   1.441   4.879   8.049 -0.1057 -1.3816  2.2344
 1226SOL    HW2 9516   1.452   4.973   8.167 -1.3157  1.6077  0.0919
 1227SOL     OW 9517   7.372   3.580   4.476  0.1428 -0.4670 -0.0377
 1227SOL    HW1 9518   7.461   3.599   4.447 -0.0847  0.0439 -0.3966
 1227SOL    HW2 9519   7.379   3.493   4.516  1.1741  0.2991  1.5748
 1228SOL     OW 9520   2.171   4.144   1.808  0.1404  0.5917 -0.2715
 1228SOL    HW1 9521   2.076   4.153   1.799 -0.1053 -1.4263 -0.1419
 1228SOL    HW2 9522   2.204   4.233   1.803 -2.0200  1.7149  2.8412
 1229SOL     OW 9523   5.774   4.218   8.460  0.1287 -1.0745 -0.3842
 1229SOL    HW1 9524   5.837   4.258   8.520 -0.5314 -0.2060 -0.2663
 1229SOL    HW2 9525   5.760   4.130   8.495  0.6856 -1.0021  0.0301
 1230SOL     OW 9526   2.538   4.871  11.902 -0.4245 -0.2458 -0.0647
 1230SOL    HW1 9527   2.586   4.895  11.822  0.6667  0.2439  0.7185
 1230SOL    HW2 9528   2.450   4.851  11.871  0.2067 -0.9491 -1.5152
 1231SOL     OW 9529   0.657   4.409   6.739 -0.2216 -0.2464 -0.1156
 1231SOL    HW1 9530   0.697   4.492   6.765 -0.7657  0.1738 -0.5827
 1231SOL    HW2 9531   0.653   4.358   6.820 -0.5814  0.4821  0.3441
 1232SOL     OW 9532  10.918   5.480   6.869 -0.5063  0.4531  0.1560
 1232SOL    HW1 9533  10.913   5.433   6.786 -0.2829 -1.4359  1.1433
 1232SOL    HW2 9534  10.955   5.565   6.848 -3.0472  1.1425 -2.0913
 1233SOL     OW 9535   2.884   7.827   3.934  0.2416  0.2069  0.1932
 1233SOL    HW1 9536   2.812   7.764   3.930 -0.0295  0.5497 -0.3164
 1233SOL    HW2 9537   2.858   7.889   4.002 -0.7493  1.3128 -1.1539
 1234SOL     OW 9538   2.514   8.067   2.053  0.5101  0.0562  0.5217
 1234SOL    HW1 9539   2.427   8.032   2.031  0.5997 -0.0774  0.3816
 1234SOL    HW2 9540   2.534   8.126   1.981  1.5810 -1.7205 -0.6981
 1235SOL     OW 9541   2.291   6.642   4.276 -0.3235  0.4851  0.0842
 1235SOL    HW1 9542   2.282   6.598   4.361  1.6751 -0.0845  0.0415
 1235SOL    HW2 9543   2.201   6.666   4.253 -1.0865 -0.5742  1.7033
 1236SOL     OW 9544   7.156   9.108   3.527 -0.1033  0.7831  0.4357
 1236SOL    HW1 9545   7.220   9.053   3.573 -0.5940 -0.0395  0.1498
 1236SOL    HW2 9546   7.194   9.122   3.441  0.7638  2.2324  1.0107
 1237SOL     OW 9547   7.804  10.452   9.990 -0.2729  0.6080  0.1588
 1237SOL    HW1 9548   7.815  10.392  10.064 -0.6947  0.4620  0.1019
 1237SOL    HW2 9549   7.753  10.403   9.926 -0.0669  0.8011 -0.1574
 1238SOL     OW 9550  10.901   2.728   5.141 -0.1867  0.0623 -0.8867
 1238SOL    HW1 9551  10.820   2.731   5.192 -0.8348  0.0674 -1.8948
 1238SOL    HW2 9552  10.900   2.643   5.099  1.2375 -0.6774  0.4956
 1239SOL     OW 9553   0.041   1.663   0.166 -0.0063 -0.4694  0.4443
 1239SOL    HW1 9554   0.065   1.587   0.220  1.2362  0.3084  1.0342
 1239SOL    HW2 9555   0.034   1.735   0.229 -1.9367 -0.2018  0.0066
 1240SOL     OW 9556  10.576   5.348   0.559 -0.2709  0.3121 -0.1328
 1240SOL    HW1 9557  10.485   5.336   0.589 -0.9884  1.8160 -1.5665
 1240SOL    HW2 9558  10.574   5.428   0.507  1.9205  0.4141 -0.1575
 1241SOL     OW 9559   1.863   5.932  10.119  0.0326 -0.2316  0.0275
 1241SOL    HW1 9560   1.899   5.940  10.031 -1.0029 -1.5745 -0.5653
 1241SOL    HW2 9561   1.847   6.023  10.147  0.5970  0.2210 -1.0576
 1242SOL     OW 9562   6.517  11.077   0.626 -0.2818  0.2613 -0.2654
 1242SOL    HW1 9563   6.428  11.057   0.597 -0.9176 -0.2604  1.8718
 1242SOL    HW2 9564   6.522  11.173   0.624 -1.6481  0.4181  1.5445
 1243SOL     OW 9565  11.176   8.109   6.560 -0.0281  0.6156 -0.2767
 1243SOL    HW1 9566  11.255   8.059   6.539  0.2443  1.7142 -2.1076
 1243SOL    HW2 9567  11.107   8.068   6.508 -0.8032 -0.5667  1.5890
 1244SOL     OW 9568   4.694   0.986  10.888  0.7014 -0.1954  0.5001
 1244SOL    HW1 9569   4.769   0.927  10.884  2.0250  1.4677 -2.1476
 1244SOL    HW2 9570   4.632   0.950  10.824  1.9634  1.6293 -1.9446
 1245SOL     OW 9571   0.822   8.555   9.443  0.4077 -0.2356 -0.2628
 1245SOL    HW1 9572   0.862   8.491   9.500  1.0494 -0.3870 -0.8724
 1245SOL    HW2 9573   0.846   8.528   9.354 -0.5080  0.0306 -0.6104
 1246SOL     OW 9574   6.211   5.168   4.005 -0.7516  0.2907 -0.3922
 1246SOL    HW1 9575   6.176   5.197   3.921  0.1183 -0.5573 -1.0677
 1246SOL    HW2 9576   6.305   5.179   3.997 -0.5151 -1.3084 -0.1369
 1247SOL     OW 9577   9.477   1.153   2.635  0.1282  0.7092 -0.3551
 1247SOL    HW1 9578   9.383   1.140   2.619  0.1470 -0.3136  0.2614
 1247SOL    HW2 9579   9.483   1.239   2.676 -0.8925 -0.3011  2.1441
 1248SOL     OW 9580   1.720   7.353   1.464 -0.2324  0.6364  0.2220
 1248SOL    HW1 9581   1.778   7.280   1.442  0.1637  1.4496 -1.6280
 1248SOL    HW2 9582   1.773   7.410   1.520 -0.4826 -0.3535  1.5167
 1249SOL     OW 9583   8.799   0.370   5.182 -0.2070 -0.2693  0.5323
 1249SOL    HW1 9584   8.744   0.341   5.110 -0.9724  1.8179  0.2122
 1249SOL    HW2 9585   8.785   0.305   5.251 -0.8346 -1.3212 -0.5540
 1250SOL     OW 9586  11.938   6.290   4.964  0.2729  0.0550 -0.2489
 1250SOL    HW1 9587  11.975   6.241   4.890  1.1803 -1.7829  1.3490
 1250SOL    HW2 9588  11.851   6.315   4.934  0.8028 -0.1895 -2.1232
 1251SOL     OW 9589   2.499   0.175   4.962 -0.1779  0.1834 -0.5586
 1251SOL    HW1 9590   2.528   0.259   4.997  1.5138  0.1633 -1.7713
 1251SOL    HW2 9591   2.441   0.199   4.889  0.9055  0.3438 -1.3899
 1252SOL     OW 9592   0.428   8.295   4.200 -0.4256  0.0501 -0.2963
 1252SOL    HW1 9593   0.482   8.340   4.135  1.1560  0.3397  1.1237
 1252SOL    HW2 9594   0.353   8.263   4.151  0.7746  0.0959 -2.2893
 1253SOL     OW 9595   7.031   7.773  10.070 -0.2346  0.1395  0.0304
 1253SOL    HW1 9596   7.104   7.714  10.051  0.1896  0.9565 -0.9703
 1253SOL    HW2 9597   6.997   7.742  10.154 -0.2142 -1.6906 -0.5905
 1254SOL     OW 9598   1.448   8.740   8.257  0.2450  0.0772  0.2113
 1254SOL    HW1 9599   1.433   8.650   8.285  1.1867 -0.8083 -1.9483
 1254SOL    HW2 9600   1.361   8.779   8.254  0.0048  0.0586  3.4977
 1255SOL     OW 9601   2.428   6.067   9.426  0.5064  0.4394  0.0838
 1255SOL    HW1 9602   2.384   6.125   9.364  0.3626  0.0350 -0.1978
 1255SOL    HW2 9603   2.433   6.117   9.507  1.8625  1.4892 -0.6025
 1256SOL     OW 9604  10.957   4.767   1.064  0.0502 -0.0858 -0.0283
 1256SOL    HW1 9605  11.021   4.771   1.135  1.7784  1.3050 -1.5679
 1256SOL    HW2 9606  10.978   4.687   1.016  0.5671  0.3091 -0.4642
 1257SOL     OW 9607   2.147   1.715   7.068 -0.1564 -0.0475 -0.0292
 1257SOL    HW1 9608   2.081   1.649   7.045  3.1866 -3.5685 -0.6531
 1257SOL    HW2 9609   2.185   1.682   7.150  1.5856  1.1580 -0.3126
 1258SOL     OW 9610   1.963  12.215   3.402  0.4649 -0.5061 -0.4764
 1258SOL    HW1 9611   2.008  12.222   3.318 -2.4402  1.3430 -2.0490
 1258SOL    HW2 9612   1.912  12.133   3.395  1.6246 -1.3188  0.2956
 1259SOL     OW 9613  12.163   5.978  11.741  0.2623 -0.8134  0.3720
 1259SOL    HW1 9614  12.111   6.059  11.742 -0.9029 -1.5362  0.8462
 1259SOL    HW2 9615  12.240   6.000  11.689 -0.9130  0.0643 -1.1032
 1260SOL     OW 9616   8.036   3.903   3.431 -0.3346  0.1182 -0.9878
 1260SOL    HW1 9617   8.010   3.821   3.474  0.8325 -1.5003 -3.2047
 1260SOL    HW2 9618   7.984   3.906   3.351 -0.5912  1.7740 -0.8053
 1261SOL     OW 9619   0.807   9.576   4.915 -0.4142  0.0370  0.5049
 1261SOL    HW1 9620   0.849   9.561   4.831 -0.8595 -0.7895  0.4140
 1261SOL    HW2 9621   0.814   9.492   4.961  0.3009  0.6267  1.5167
 1262SOL     OW 9622   5.167   5.712   2.101  0.5360  0.4381 -0.9830
 1262SOL    HW1 9623   5.213   5.755   2.173 -0.4535  0.5475 -0.3857
 1262SOL    HW2 9624   5.106   5.778   2.069  0.0481 -0.0304 -1.0445
 1263SOL     OW 9625   5.591   5.727   1.553  0.4752  0.1786 -0.1435
 1263SOL    HW1 9626   5.601   5.763   1.641 -0.6030  0.1326  0.0131
 1263SOL    HW2 9627   5.502   5.692   1.552  0.9133 -0.9690 -0.8364
 1264SOL     OW 9628  10.597  10.401  10.426 -0.1278 -0.4311  0.1811
 1264SOL    HW1 9629  10.563  10.454  10.498 -3.3150 -0.7281 -0.9407
 1264SOL    HW2 9630  10.600  10.461  10.351 -2.2245 -1.3043 -0.7009
 1265SOL     OW 9631   6.747   8.668   1.145  0.1004  0.0264  0.1291
 1265SOL    HW1 9632   6.826   8.683   1.092 -0.8524 -0.4255 -1.4970
 1265SOL    HW2 9633   6.778   8.619   1.221  1.4767  0.4368 -0.1411
 1266SOL     OW 9634   7.347   3.363   9.020  0.1661 -0.7402  0.2110
 1266SOL    HW1 9635   7.294   3.421   9.075  0.0452  0.4362 -1.1048
 1266SOL    HW2 9636   7.283   3.316   8.967  0.3726  0.3756 -1.0792
 1267SOL     OW 9637   6.238   8.832   4.156  0.7635  0.4215 -0.9448
 1267SOL    HW1 9638   6.334   8.833   4.164  0.7861 -0.2598 -1.0660
 1267SOL    HW2 9639   6.221   8.773   4.082  0.1755 -1.1542  0.3703
 1268SOL     OW 9640   1.369   2.283  11.086 -0.0937  0.4128  0.3594
 1268SOL    HW1 9641   1.300   2.224  11.116 -0.1179 -0.1996 -0.8402
 1268SOL    HW2 9642   1.348   2.367  11.127 -0.3586 -0.2662  1.6671
 1269SOL     OW 9643   9.901   1.921   3.249  0.0098 -0.0176  0.1933
 1269SOL    HW1 9644   9.806   1.909   3.261  0.1685 -0.8880  0.7044
 1269SOL    HW2 9645   9.933   1.833   3.230  0.6121  0.4090 -0.8243
 1270SOL     OW 9646   9.131  10.387   6.859 -0.2098 -0.1610  0.2838
 1270SOL    HW1 9647   9.211  10.336   6.853  1.8756  3.0242 -2.1396
 1270SOL    HW2 9648   9.153  10.459   6.918 -1.3873  0.5951 -0.1627
 1271SOL     OW 9649   3.745  10.071  10.663  0.1456  0.3407 -0.6169
 1271SOL    HW1 9650   3.821  10.118  10.697  0.4743 -0.6481  0.0509
 1271SOL    HW2 9651   3.732  10.107  10.575  1.3486  0.5698 -0.7233
 1272SOL     OW 9652  12.212  11.262  10.114 -0.3474  0.0172  0.9123
 1272SOL    HW1 9653  12.297  11.228  10.088 -1.3194 -1.8586 -0.0544
 1272SOL    HW2 9654  12.191  11.216  10.195 -1.3902 -1.3154 -0.0635
 1273SOL     OW 9655   8.507   8.666   7.221 -0.1855  0.0232 -0.0828
 1273SOL    HW1 9656   8.444   8.656   7.292  0.4056 -0.7558  0.3542
 1273SOL    HW2 9657   8.553   8.582   7.219 -0.2028  0.0211 -1.4028
 1274SOL     OW 9658   6.750   9.293   2.404  0.2618 -0.2131  0.6729
 1274SOL    HW1 9659   6.802   9.255   2.332  0.5789  0.9122  0.2940
 1274SOL    HW2 9660   6.772   9.386   2.403 -0.8083  0.0588  1.3350
 1275SOL     OW 9661   9.813   5.993   7.005  0.0021 -0.1510 -0.3302
 1275SOL    HW1 9662   9.828   5.906   7.043  1.0143 -0.2452 -0.9204
 1275SOL    HW2 9663   9.740   5.981   6.945 -0.8040 -0.2700  0.6366
 1276SOL     OW 9664   7.307   8.153   1.556  0.3147 -0.0220 -0.0277
 1276SOL    HW1 9665   7.392   8.122   1.588 -0.6474 -1.9927  0.7762
 1276SOL    HW2 9666   7.318   8.247   1.546  2.8776 -0.3207 -0.8473
 1277SOL     OW 9667  11.746   5.034   4.221  0.3094  0.0567  0.3485
 1277SOL    HW1 9668  11.817   4.994   4.271 -0.0869 -0.1657  0.7342
 1277SOL    HW2 9669  11.780   5.121   4.197  0.9091 -0.2478  0.0832
 1278SOL     OW 9670   3.100  10.121   4.530 -0.6937 -0.3204 -0.8151
 1278SOL    HW1 9671   3.182  10.076   4.506 -0.6099 -0.6490  0.0498
 1278SOL    HW2 9672   3.050  10.125   4.449  0.8762  1.3945 -1.7755
 1279SOL     OW 9673   2.951   5.429   5.402  0.3584  0.0093 -0.5138
 1279SOL    HW1 9674   2.954   5.392   5.313 -1.7739  1.2482 -1.1733
 1279SOL    HW2 9675   2.938   5.353   5.459  3.9025 -1.0832 -0.9230
 1280SOL     OW 9676   6.641   8.906   0.977  0.4655  0.0695 -0.1074
 1280SOL    HW1 9677   6.673   8.815   0.975  0.1510 -0.0597  0.5732
 1280SOL    HW2 9678   6.580   8.911   0.903  0.1358 -0.4049  0.1257
 1281SOL     OW 9679   3.972   6.465   5.331  0.0292  0.2538  0.2716
 1281SOL    HW1 9680   3.957   6.411   5.409 -1.3993 -0.8421 -0.7191
 1281SOL    HW2 9681   4.060   6.442   5.303 -0.9023 -2.4598 -0.7374
 1282SOL     OW 9682  10.021   5.785   1.307 -0.0102  0.3117  0.5934
 1282SOL    HW1 9683   9.946   5.835   1.274  0.5800 -0.4837 -2.2247
 1282SOL    HW2 9684  10.024   5.707   1.252  3.2626  0.6237  0.1244
 1283SOL     OW 9685   9.951   0.385   9.224 -0.0371 -0.8195 -0.0247
 1283SOL    HW1 9686   9.982   0.328   9.294  2.9128  0.5781 -0.0387
 1283SOL    HW2 9687   9.915   0.461   9.269  1.2091 -0.2328 -0.0068
 1284SOL     OW 9688   6.480   1.374  11.816  0.1854 -0.6298 -0.6845
 1284SOL    HW1 9689   6.435   1.447  11.858 -1.6882 -1.6926 -0.7317
 1284SOL    HW2 9690   6.480   1.396  11.723 -2.0771 -1.4895 -0.9370
 1285SOL     OW 9691   1.770   7.770   8.179 -0.3983  0.1341  0.4199
 1285SOL    HW1 9692   1.865   7.782   8.188 -0.2168 -1.3264  0.6619
 1285SOL    HW2 9693   1.758   7.675   8.175 -1.8708  0.2944  0.5129
 1286SOL     OW 9694   8.382   3.770   4.252 -0.1621 -0.2131 -0.5066
 1286SOL    HW1 9695   8.447   3.700   4.261 -1.1538 -1.2408 -0.9664
 1286SOL    HW2 9696   8.311   3.730   4.201 -1.5362  0.5951  0.6850
 1287SOL     OW 9697   5.278  11.502   0.750  0.1955 -0.2437  0.0367
 1287SOL    HW1 9698   5.301  11.586   0.709 -1.0518 -0.3973 -1.0604
 1287SOL    HW2 9699   5.336  11.438   0.707  1.7488  0.1311  1.4832
 1288SOL     OW 9700   3.884  11.994   5.054 -0.1764 -0.0959  0.5037
 1288SOL    HW1 9701   3.794  11.987   5.086 -0.8959 -1.3118 -1.5845
 1288SOL    HW2 9702   3.878  12.049   4.976  0.6831 -1.1170 -0.3081
 1289SOL     OW 9703   6.402  10.982   8.842  1.0873 -0.6835  0.0856
 1289SOL    HW1 9704   6.489  10.991   8.881  2.1163  2.3352 -2.3923
 1289SOL    HW2 9705   6.417  10.991   8.748 -1.9206  0.3963 -0.4168
 1290SOL     OW 9706   4.861   4.630   1.910  0.1737  0.2335  0.6542
 1290SOL    HW1 9707   4.874   4.703   1.850 -1.8035  0.2979  0.2339
 1290SOL    HW2 9708   4.874   4.552   1.856  4.7891  0.0484  1.6192
 1291SOL     OW 9709  11.751   5.493  12.016  0.4760  0.0610 -0.1990
 1291SOL    HW1 9710  11.824   5.524  11.962  0.9764 -1.3380 -0.3704
 1291SOL    HW2 9711  11.773   5.402  12.036 -0.0752  0.2876  1.7111
 1292SOL     OW 9712  10.935  11.456   8.336 -0.1996 -0.3252 -0.4010
 1292SOL    HW1 9713  10.992  11.474   8.261 -0.3082 -1.5294 -0.7844
 1292SOL    HW2 9714  10.991  11.408   8.397 -0.0802  0.7349  0.3656
 1293SOL     OW 9715   0.656   1.469   1.632 -0.1161 -0.1006  0.7291
 1293SOL    HW1 9716   0.720   1.477   1.702 -0.4519  0.5228  0.9746
 1293SOL    HW2 9717   0.616   1.383   1.647  0.4099 -0.3371  0.7875
 1294SOL     OW 9718   5.924   0.911   5.863  0.3273  0.3732  0.6325
 1294SOL    HW1 9719   5.866   0.893   5.789  0.2891  0.0185  0.7469
 1294SOL    HW2 9720   5.865   0.925   5.937  0.3935 -0.9377  0.9632
 1295SOL     OW 9721   0.963   2.906   3.750 -0.0356  0.1229 -0.2132
 1295SOL    HW1 9722   0.930   2.822   3.717 -0.0272  0.5638 -1.3643
 1295SOL    HW2 9723   1.057   2.890   3.765  0.3027  0.3454 -1.9211
 1296SOL     OW 9724  12.039   7.864   8.434  0.6995  0.3566 -0.5372
 1296SOL    HW1 9725  12.131   7.869   8.406  0.7576 -1.0031 -0.6445
 1296SOL    HW2 9726  11.989   7.892   8.357  1.0236  3.0490  0.1066
 1297SOL     OW 9727   6.053   0.792   6.110  0.7305  0.4490  0.7619
 1297SOL    HW1 9728   6.040   0.848   6.033  0.3130  0.9621  1.1961
 1297SOL    HW2 9729   6.147   0.778   6.114  0.9626  2.0137  1.2571
 1298SOL     OW 9730   4.268   4.311  11.042  0.7712  0.1479  0.2267
 1298SOL    HW1 9731   4.320   4.387  11.016  0.1759  0.6443  0.4519
 1298SOL    HW2 9732   4.307   4.238  10.995  0.7655  0.7512 -0.7386
 1299SOL     OW 9733   5.758  11.285   3.455  0.4843 -0.0319  0.3028
 1299SOL    HW1 9734   5.699  11.342   3.504  1.3902  0.4206  0.8943
 1299SOL    HW2 9735   5.710  11.264   3.375 -0.5337  0.1934  0.8377
 1300SOL     OW 9736  10.424   9.767   6.806 -0.1213  0.0310  0.2140
 1300SOL    HW1 9737  10.328   9.760   6.813 -0.4395  2.0319 -1.1522
 1300SOL    HW2 9738  10.454   9.778   6.896 -1.3263  0.5208  0.5824
 1301SOL     OW 9739   5.610   6.346  11.573 -0.3430 -0.4943  0.1163
 1301SOL    HW1 9740   5.660   6.308  11.500 -0.9079 -0.8344 -0.1055
 1301SOL    HW2 9741   5.676   6.388  11.628  0.3861 -2.3048  0.6885
 1302SOL     OW 9742   3.731   1.801   8.718 -0.5200 -0.2288  0.1019
 1302SOL    HW1 9743   3.773   1.715   8.729 -0.0475  0.0365  0.4066
 1302SOL    HW2 9744   3.682   1.794   8.636 -0.4785 -0.7869  0.1227
 1303SOL     OW 9745   8.765   5.334   5.771  0.1620 -0.1238  0.7418
 1303SOL    HW1 9746   8.675   5.366   5.766  0.2165 -0.2107 -2.0335
 1303SOL    HW2 9747   8.758   5.250   5.818 -1.4155 -0.7322 -0.4791
 1304SOL     OW 9748   6.667   4.814   5.055 -0.3295 -0.0118 -0.2225
 1304SOL    HW1 9749   6.658   4.908   5.074  1.2654  0.0335  0.4534
 1304SOL    HW2 9750   6.704   4.811   4.967  2.4582  0.1484  0.8479
 1305SOL     OW 9751   5.978  12.267   8.174  0.4738 -0.4469 -0.2235
 1305SOL    HW1 9752   6.061  12.288   8.131  0.4979  0.0934  0.0868
 1305SOL    HW2 9753   5.985  12.174   8.196  0.3332 -0.8259 -1.6769
 1306SOL     OW 9754   1.983  10.860   8.962 -0.5837 -0.3498 -0.0399
 1306SOL    HW1 9755   1.901  10.878   9.007 -0.3621  0.4124  0.0782
 1306SOL    HW2 9756   1.972  10.772   8.926 -1.0388 -0.6891  0.8897
 1307SOL     OW 9757   3.648  10.067   3.410  0.5960 -0.1512  0.0394
 1307SOL    HW1 9758   3.675  10.086   3.320 -0.8828 -1.0901 -0.6389
 1307SOL    HW2 9759   3.566  10.114   3.420  0.3869 -0.6420  0.6571
 1308SOL     OW 9760   5.297   7.287   5.971 -0.1142 -0.7093 -0.6543
 1308SOL    HW1 9761   5.356   7.307   6.044  0.4371 -0.3452 -1.1832
 1308SOL    HW2 9762   5.210   7.311   6.002  0.2107  0.1287 -0.3680
 1309SOL     OW 9763   6.733   0.756   2.536  0.0309  0.5447 -0.3968
 1309SOL    HW1 9764   6.646   0.780   2.569  0.0133  0.0260 -0.0428
 1309SOL    HW2 9765   6.784   0.738   2.615 -0.8203 -3.5780 -0.5852
 1310SOL     OW 9766   5.004   6.265   2.709 -0.4504 -0.5027  0.2398
 1310SOL    HW1 9767   4.954   6.220   2.777  0.1999  0.2252  1.2371
 1310SOL    HW2 9768   5.087   6.217   2.704 -0.0113  0.1585  0.8541
 1311SOL     OW 9769   4.376  11.600  10.151  0.8083  0.2935 -0.1061
 1311SOL    HW1 9770   4.444  11.537  10.127  3.2749  2.7136  0.1716
 1311SOL    HW2 9771   4.345  11.571  10.237  0.4976 -1.5528 -0.7917
 1312SOL     OW 9772   7.852   2.628   1.357 -0.1559  0.1292  0.0746
 1312SOL    HW1 9773   7.913   2.593   1.422 -0.9784 -0.5313  0.4992
 1312SOL    HW2 9774   7.768   2.630   1.402 -0.4899  0.8877 -0.5618
 1313SOL     OW 9775   1.055  10.425   9.761 -0.5688  0.1039  0.5491
 1313SOL    HW1 9776   1.004  10.385   9.831  1.0270 -0.2782  1.5295
 1313SOL    HW2 9777   1.020  10.514   9.753  0.0316  0.6078  2.7396
 1314SOL     OW 9778   1.062   1.183  11.644 -0.5798  0.7016  0.6308
 1314SOL    HW1 9779   1.124   1.147  11.581 -0.6579 -2.3216  2.1153
 1314SOL    HW2 9780   1.109   1.182  11.727 -1.8973  0.4492  1.3963
 1315SOL     OW 9781   9.482   4.799   6.648  0.0919  0.2761  0.5728
 1315SOL    HW1 9782   9.545   4.810   6.578  0.9153 -0.7463  1.1224
 1315SOL    HW2 9783   9.416   4.868   6.633  2.7375  3.2762  1.5575
 1316SOL     OW 9784   5.335  10.364   3.611 -0.4492  0.0572 -0.0001
 1316SOL    HW1 9785   5.280  10.423   3.560 -1.0173  0.6780  1.2700
 1316SOL    HW2 9786   5.281  10.341   3.687 -0.0982 -1.8139 -0.2701
 1317SOL     OW 9787  11.506   2.176   7.719 -0.5197  0.8410  0.0039
 1317SOL    HW1 9788  11.585   2.124   7.705 -1.3638 -0.3794 -0.3299
 1317SOL    HW2 9789  11.441   2.114   7.753 -0.5948  2.3402  2.9018
 1318SOL     OW 9790   5.739   0.895  11.420 -0.0001  0.0834  0.3265
 1318SOL    HW1 9791   5.791   0.938  11.488  0.3021 -0.4566  0.4413
 1318SOL    HW2 9792   5.649   0.898  11.453 -0.2354  1.9940 -0.3674
 1319SOL     OW 9793   5.592   2.911   8.662 -0.2378 -0.4356  0.8244
 1319SOL    HW1 9794   5.514   2.857   8.676 -0.5897 -0.3751 -0.7272
 1319SOL    HW2 9795   5.564   2.976   8.597  0.3875  1.1790  2.0809
 1320SOL     OW 9796   7.114   4.041   9.356 -0.1094 -0.4283 -0.2664
 1320SOL    HW1 9797   7.153   3.976   9.414  0.0537  0.1332  0.2652
 1320SOL    HW2 9798   7.187   4.097   9.330 -0.1524 -0.7692 -1.1510
 1321SOL     OW 9799   9.818   9.358   9.393  0.3010 -0.2312 -0.4998
 1321SOL    HW1 9800   9.894   9.401   9.432 -0.2612  0.8665 -0.5821
 1321SOL    HW2 9801   9.812   9.274   9.439 -0.5917  1.1527  2.1570
 1322SOL     OW 9802   8.089   7.745   8.781  0.0867 -0.2307 -0.0426
 1322SOL    HW1 9803   8.160   7.697   8.824 -0.5197 -1.8249 -0.7357
 1322SOL    HW2 9804   8.024   7.757   8.850 -0.7394 -2.4752 -0.3559
 1323SOL     OW 9805   2.189   8.204   1.185 -0.5534  0.2964 -0.2743
 1323SOL    HW1 9806   2.246   8.177   1.258  1.6528  0.4009 -1.8688
 1323SOL    HW2 9807   2.135   8.274   1.222  0.8317  0.6806  1.1426
 1324SOL     OW 9808   7.889   2.176   4.247  0.1746  0.1964  0.0298
 1324SOL    HW1 9809   7.829   2.109   4.217  0.4407  0.7540 -1.8788
 1324SOL    HW2 9810   7.976   2.145   4.220  0.2343  1.5830 -1.5595
 1325SOL     OW 9811   6.601   4.109   6.369 -0.3460  0.4257  0.3050
 1325SOL    HW1 9812   6.633   4.034   6.319  1.9161  2.1497 -1.0641
 1325SOL    HW2 9813   6.626   4.091   6.459 -0.1794 -0.6235  0.0604
 1326SOL     OW 9814   7.698   6.346   1.346 -0.5358  0.3668 -0.5470
 1326SOL    HW1 9815   7.749   6.419   1.383 -0.0774  0.3911 -1.2158
 1326SOL    HW2 9816   7.661   6.382   1.266 -2.9132  0.8559  0.6644
 1327SOL     OW 9817   7.143   2.989   0.451  1.2203  0.6812  0.1297
 1327SOL    HW1 9818   7.189   3.035   0.522 -0.2427  0.7241  1.0950
 1327SOL    HW2 9819   7.068   3.045   0.431 -0.0714 -0.7940  0.6811
 1328SOL     OW 9820   0.528  11.357   3.610 -0.2481 -0.3801  0.7052
 1328SOL    HW1 9821   0.567  11.362   3.522  1.9314 -3.1871  1.3471
 1328SOL    HW2 9822   0.476  11.436   3.617  1.5332  1.2657 -2.1597
 1329SOL     OW 9823   9.374   6.093  11.009  0.3777 -0.3904 -0.3536
 1329SOL    HW1 9824   9.295   6.047  11.039 -0.7528  0.8227 -1.3005
 1329SOL    HW2 9825   9.421   6.028  10.956  0.3857 -1.3453  0.7933
 1330SOL     OW 9826   3.950  10.659   1.806 -0.1640  0.1892  0.1962
 1330SOL    HW1 9827   3.908  10.726   1.752 -0.0325  0.7595  0.7769
 1330SOL    HW2 9828   3.993  10.601   1.744 -0.9854  0.1557 -0.3657
 1331SOL     OW 9829   9.984   2.127   4.936  0.0207 -0.5430  0.1895
 1331SOL    HW1 9830  10.040   2.172   5.000 -0.1175  0.3578 -0.3100
 1331SOL    HW2 9831   9.921   2.078   4.990  0.5841 -0.6673  0.7433
 1332SOL     OW 9832   1.562   2.423   5.999 -0.5194 -0.2189  0.3692
 1332SOL    HW1 9833   1.548   2.340   5.954  2.8274 -0.2610 -0.8946
 1332SOL    HW2 9834   1.653   2.420   6.027 -0.3673  2.8716  0.5825
 1333SOL     OW 9835   8.452   8.618  10.039  0.1025 -0.0160  0.1569
 1333SOL    HW1 9836   8.445   8.573   9.954 -0.1017  0.1691  0.0737
 1333SOL    HW2 9837   8.365   8.609  10.078  0.3337 -0.5282  0.5700
 1334SOL     OW 9838   8.140   8.197  12.221 -0.0745 -0.3370 -0.3186
 1334SOL    HW1 9839   8.103   8.278  12.255  0.6534 -0.4525  0.8361
 1334SOL    HW2 9840   8.097   8.128  12.272  1.0969 -0.5139  0.4745
 1335SOL     OW 9841  10.513  10.040   0.969  0.0577 -0.0868 -0.1374
 1335SOL    HW1 9842  10.455   9.972   0.935  0.1546 -0.2096 -0.0595
 1335SOL    HW2 9843  10.454  10.111   0.995 -0.1030 -0.3988  0.3844
 1336SOL     OW 9844   2.666  10.517   8.601 -0.5633 -0.1622 -0.9712
 1336SOL    HW1 9845   2.627  10.604   8.598  1.0259  0.6927  1.0394
 1336SOL    HW2 9846   2.591  10.457   8.595 -1.6880  1.2835 -2.2798
 1337SOL     OW 9847   2.307   6.456   5.020 -0.0960  0.0276  0.1506
 1337SOL    HW1 9848   2.216   6.450   5.048  0.1300  2.1588  1.5755
 1337SOL    HW2 9849   2.336   6.365   5.011 -2.4300 -0.6884 -0.6636
 1338SOL     OW 9850   6.776   0.607   6.350  0.0128 -0.0780  0.5442
 1338SOL    HW1 9851   6.762   0.601   6.445 -2.4028 -0.1389  0.2433
 1338SOL    HW2 9852   6.830   0.685   6.339 -0.0030  0.1675  1.9325
 1339SOL     OW 9853  11.969   8.433   3.058 -0.2358 -0.3423  0.2909
 1339SOL    HW1 9854  11.942   8.481   3.137 -0.5016 -0.9392  0.5669
 1339SOL    HW2 9855  12.050   8.388   3.084  1.6910  2.2088 -0.8120
 1340SOL     OW 9856   2.413   1.494   3.596 -0.7345  0.4741 -0.2054
 1340SOL    HW1 9857   2.464   1.415   3.580 -0.6431  0.5458 -0.2702
 1340SOL    HW2 9858   2.464   1.564   3.555 -1.8517  0.2726 -2.0800
 1341SOL     OW 9859   5.639   2.810  10.501  0.3172 -0.3182 -0.3963
 1341SOL    HW1 9860   5.673   2.794  10.589  0.6443  0.1262 -0.4403
 1341SOL    HW2 9861   5.649   2.726  10.456 -1.7287 -1.1735  0.5747
 1342SOL     OW 9862   2.350   6.932   6.172 -0.8157  0.4399  0.2124
 1342SOL    HW1 9863   2.334   7.014   6.219  0.8170  0.2144  1.2302
 1342SOL    HW2 9864   2.441   6.937   6.143 -0.4383 -1.3092  0.9498
 1343SOL     OW 9865   3.878   5.380   3.420  0.0300  0.1273  0.0213
 1343SOL    HW1 9866   3.811   5.403   3.485  0.7530  1.6445  0.2823
 1343SOL    HW2 9867   3.894   5.287   3.434 -1.3907 -0.0608  0.5425
 1344SOL     OW 9868   2.552   2.561   6.379 -0.0375  0.2616  0.0351
 1344SOL    HW1 9869   2.582   2.481   6.423 -0.9501  0.7808  1.6644
 1344SOL    HW2 9870   2.600   2.632   6.422 -0.6335  0.7528 -0.0959
 1345SOL     OW 9871  10.113   5.463   6.086 -0.2909 -0.0186  0.5021
 1345SOL    HW1 9872  10.165   5.434   6.161 -0.5040 -0.6399  0.4224
 1345SOL    HW2 9873  10.035   5.502   6.125 -0.1543  0.1448  0.6120
 1346SOL     OW 9874  11.641   9.608   7.348 -0.2311  0.3820  0.1677
 1346SOL    HW1 9875  11.688   9.524   7.352  2.0990  1.4847 -1.2897
 1346SOL    HW2 9876  11.697   9.669   7.396 -0.2274  1.7228 -1.4406
 1347SOL     OW 9877   9.748   9.708   6.433  0.0897 -0.0774  0.4619
 1347SOL    HW1 9878   9.751   9.634   6.493 -0.5451  0.2268  0.8718
 1347SOL    HW2 9879   9.670   9.694   6.380  0.2525  0.0260  0.1941
 1348SOL     OW 9880   0.145   5.933   1.165  0.0307  0.0820  0.2101
 1348SOL    HW1 9881   0.168   6.016   1.206 -1.0559  1.1383 -1.2376
 1348SOL    HW2 9882   0.066   5.904   1.212  0.8400 -0.5776  1.2325
 1349SOL     OW 9883  10.919   3.162   5.710 -0.1868 -0.0066  0.6160
 1349SOL    HW1 9884  10.827   3.183   5.725 -0.8320 -0.1960 -2.4948
 1349SOL    HW2 9885  10.928   3.070   5.736 -1.1839 -0.3310 -0.1526
 1350SOL     OW 9886   6.258  10.381   1.565 -0.0532 -0.2795 -0.5136
 1350SOL    HW1 9887   6.191  10.448   1.575  0.4568  0.2664 -0.7329
 1350SOL    HW2 9888   6.208  10.299   1.562 -0.5812 -0.0835  1.3435
 1351SOL     OW 9889   9.520   2.260   9.413 -0.1765  0.0493 -0.0748
 1351SOL    HW1 9890   9.465   2.264   9.335  0.1374 -2.2848 -0.4794
 1351SOL    HW2 9891   9.474   2.313   9.477 -0.7845  1.4844 -1.6042
 1352SOL     OW 9892   3.430   8.493   6.351 -0.6528  0.2160 -0.5970
 1352SOL    HW1 9893   3.425   8.540   6.268 -2.1551  0.3773 -0.4338
 1352SOL    HW2 9894   3.344   8.504   6.391 -0.7748 -1.9516 -0.1555
 1353SOL     OW 9895   8.091   3.314   1.280 -0.0176 -0.3959  0.2862
 1353SOL    HW1 9896   8.024   3.259   1.323  0.2198 -2.0422 -1.3238
 1353SOL    HW2 9897   8.114   3.379   1.346 -0.7011 -1.9191  2.1261
 1354SOL     OW 9898   0.104   1.462   8.943  0.1411  0.3983  0.6106
 1354SOL    HW1 9899   0.064   1.511   9.014  0.2304  0.2602  0.7566
 1354SOL    HW2 9900   0.107   1.523   8.870 -2.3026 -0.2173 -0.1009
 1355SOL     OW 9901   7.300   0.572   6.010 -0.1774  0.5958  0.3726
 1355SOL    HW1 9902   7.336   0.530   6.088  2.3553  1.6758 -0.1072
 1355SOL    HW2 9903   7.260   0.653   6.042 -3.1607 -0.9952  1.0195
 1356SOL     OW 9904   0.168   1.178   0.602  0.7314  0.1081  0.0331
 1356SOL    HW1 9905   0.234   1.244   0.587  0.8216  0.2115  0.8389
 1356SOL    HW2 9906   0.085   1.226   0.605  0.9030  0.3556  1.6919
 1357SOL     OW 9907   0.248   6.870   2.595 -0.3844  0.5546  0.2037
 1357SOL    HW1 9908   0.205   6.931   2.535  0.0494  1.1121  0.4445
 1357SOL    HW2 9909   0.241   6.785   2.552 -0.6016  0.8466 -0.3543
 1358SOL     OW 9910   2.358  11.982   4.339  0.2597 -0.1450 -0.3827
 1358SOL    HW1 9911   2.374  11.950   4.251  1.1831 -0.5391 -0.0899
 1358SOL    HW2 9912   2.435  11.954   4.389  0.2586  0.9974  0.3029
 1359SOL     OW 9913   2.086   0.692   4.162  0.0746 -0.5620  0.2352
 1359SOL    HW1 9914   2.134   0.661   4.085 -0.6848 -1.9912  0.2945
 1359SOL    HW2 9915   2.003   0.645   4.158  0.2779 -1.1830  2.2865
 1360SOL     OW 9916   1.725   2.283   1.748  0.4698  0.3531 -0.7588
 1360SOL    HW1 9917   1.819   2.283   1.763  0.3580  1.5626  0.0894
 1360SOL    HW2 9918   1.689   2.233   1.822  0.3175  1.6233  0.0519
 1361SOL     OW 9919   2.652   9.041   7.123 -0.4616 -0.1179  0.4763
 1361SOL    HW1 9920   2.742   9.064   7.099  0.8813 -1.8315  3.3529
 1361SOL    HW2 9921   2.617   9.121   7.163  0.2914  0.1565  0.6067
 1362SOL     OW 9922   6.577   9.138  12.170  0.5322  0.2650  0.4714
 1362SOL    HW1 9923   6.588   9.201  12.100 -0.1140 -0.8469 -0.6728
 1362SOL    HW2 9924   6.639   9.068  12.150 -0.9718 -0.9621 -0.0998
 1363SOL     OW 9925   9.640   1.114   3.379 -0.2755  0.4027  0.3345
 1363SOL    HW1 9926   9.662   1.200   3.415  0.3627  0.8844 -1.1394
 1363SOL    HW2 9927   9.561   1.130   3.328 -1.1427 -0.2659  1.4099
 1364SOL     OW 9928   6.624  11.775   3.894  0.3698 -0.1102  0.1119
 1364SOL    HW1 9929   6.615  11.731   3.979 -2.0604 -0.2237 -0.1339
 1364SOL    HW2 9930   6.634  11.868   3.916  0.5632 -0.2289  0.5323
 1365SOL     OW 9931   7.161   2.531   6.594  0.1315  0.1145  0.4979
 1365SOL    HW1 9932   7.126   2.455   6.547 -1.5519  0.4622  1.1198
 1365SOL    HW2 9933   7.206   2.494   6.669  0.7832 -0.3360 -0.1061
 1366SOL     OW 9934   5.909   8.141   3.385  0.1954  0.2681  0.2891
 1366SOL    HW1 9935   5.960   8.161   3.463 -1.5533  1.7719  1.1198
 1366SOL    HW2 9936   5.917   8.046   3.375  1.4997  0.2171  1.5264
 1367SOL     OW 9937   6.959   4.919   7.522  0.4208  0.7331  0.6350
 1367SOL    HW1 9938   6.865   4.904   7.516  0.6233 -1.9541  2.2925
 1367SOL    HW2 9939   6.997   4.855   7.461  1.2188  1.9048 -0.1480
 1368SOL     OW 9940   4.514   9.148   5.266 -0.3336 -0.5477  0.1201
 1368SOL    HW1 9941   4.447   9.135   5.333 -0.4554 -0.3867  0.0317
 1368SOL    HW2 9942   4.573   9.214   5.303 -2.1280  1.9353 -1.1501
 1369SOL     OW 9943   4.041   0.809   0.938  0.1707  0.2398 -0.4471
 1369SOL    HW1 9944   4.111   0.800   1.003  1.6001  1.3866 -1.7297
 1369SOL    HW2 9945   3.965   0.769   0.979  0.4995  2.4646  2.7146
 1370SOL     OW 9946  12.256   3.177  10.490  0.4144  0.4428  0.4629
 1370SOL    HW1 9947  12.294   3.089  10.488  1.6071  0.9445 -0.0081
 1370SOL    HW2 9948  12.319   3.231  10.442 -1.1391  1.2313 -0.8005
 1371SOL     OW 9949  10.007   2.002   1.148 -0.2740  0.3762  0.1435
 1371SOL    HW1 9950   9.977   2.057   1.220 -1.2164 -0.0056  0.0632
 1371SOL    HW2 9951  10.078   2.051   1.108  0.6001  0.3560  1.6341
 1372SOL     OW 9952   4.172   4.418   9.957  0.3596 -0.1119  0.1309
 1372SOL    HW1 9953   4.142   4.374   9.877  1.1429 -1.1477  0.3900
 1372SOL    HW2 9954   4.094   4.461   9.991 -0.0018  0.3072 -1.1577
 1373SOL     OW 9955   7.193   5.929   4.222  0.2085 -0.9455 -0.5361
 1373SOL    HW1 9956   7.217   5.856   4.164  3.0683 -0.3845 -0.2220
 1373SOL    HW2 9957   7.274   5.951   4.268 -1.5310 -0.2362  2.4774
 1374SOL     OW 9958   1.866   8.913   8.060  0.1577  0.2089 -0.6716
 1374SOL    HW1 9959   1.903   8.839   8.107  2.9384  0.5849 -2.0291
 1374SOL    HW2 9960   1.776   8.919   8.090  0.7262 -1.8300  1.7117
 1375SOL     OW 9961   0.941  12.071  11.973  0.3492 -0.2278 -0.0838
 1375SOL    HW1 9962   0.939  11.977  11.961  1.1317 -0.3813  0.9146
 1375SOL    HW2 9963   0.961  12.084  12.066  0.3516  0.9205 -0.2219
 1376SOL     OW 9964   5.498   8.109   4.252 -0.1293 -0.5121 -0.2459
 1376SOL    HW1 9965   5.504   8.153   4.167  0.5663 -1.2837 -0.6104
 1376SOL    HW2 9966   5.416   8.141   4.290 -1.6345 -1.8320 -2.1647
 1377SOL     OW 9967   9.192  10.640   6.713 -0.2519 -0.4348  0.8118
 1377SOL    HW1 9968   9.153  10.644   6.626 -2.1830  0.9360  1.6691
 1377SOL    HW2 9969   9.185  10.548   6.738 -1.5471 -0.4974  0.3038
 1378SOL     OW 9970   3.323  12.000   6.953 -0.0345  0.0555  0.1164
 1378SOL    HW1 9971   3.300  12.074   6.897 -0.1877  0.0164  0.1283
 1378SOL    HW2 9972   3.376  11.944   6.896 -2.1392 -1.1605 -0.7569
 1379SOL     OW 9973   6.101   0.580  10.814 -0.1420 -0.8143 -0.2444
 1379SOL    HW1 9974   6.036   0.602  10.746 -1.4658 -0.8772  0.9551
 1379SOL    HW2 9975   6.176   0.635  10.794 -2.5734  3.6396  1.5202
 1380SOL     OW 9976  10.662   2.115   4.290 -0.1855  0.1754  0.0735
 1380SOL    HW1 9977  10.679   2.085   4.379  0.3770  1.5241  0.4438
 1380SOL    HW2 9978  10.609   2.045   4.251  0.9020 -1.1895  0.9379
 1381SOL     OW 9979   0.374   2.066   2.684  0.3717 -0.4763  0.2888
 1381SOL    HW1 9980   0.458   2.022   2.674 -0.2205 -1.4709 -0.4438
 1381SOL    HW2 9981   0.311   1.995   2.699 -0.3302  0.2612  0.9706
 1382SOL     OW 9982   2.984   3.173  11.316  0.4143  0.2047  0.3788
 1382SOL    HW1 9983   2.939   3.097  11.278 -0.3698  0.2449  1.1884
 1382SOL    HW2 9984   2.931   3.248  11.290  0.1847  0.2885  1.0789
 1383SOL     OW 9985  12.284  12.217   9.114 -0.1268  0.1496  0.5015
 1383SOL    HW1 9986  12.317  12.145   9.169  0.9805  1.3822  1.5083
 1383SOL    HW2 9987  12.355  12.233   9.052  0.0212  1.0061  0.8937
 1384SOL     OW 9988   0.049   7.792   9.341 -0.3355 -0.4060  0.8567
 1384SOL    HW1 9989  -0.037   7.834   9.349  0.9216  2.6866 -0.4808
 1384SOL    HW2 9990   0.066   7.791   9.247  1.2659 -0.5526  1.1297
 1385SOL     OW 9991   4.388   1.538  12.212 -0.3211  0.2898  0.1483
 1385SOL    HW1 9992   4.337   1.472  12.166  0.1004  0.5549 -0.7190
 1385SOL    HW2 9993   4.323   1.593  12.257 -0.7657  0.3120 -0.5160
 1386SOL     OW 9994   8.865  10.704   0.927 -0.5514 -0.8147 -0.3594
 1386SOL    HW1 9995   8.911  10.675   1.006 -1.3972 -1.6917 -0.1774
 1386SOL    HW2 9996   8.817  10.782   0.955 -0.0785 -0.5524 -0.2657
 1387SOL     OW 9997  10.224   4.078  10.622  0.1099  0.9255  0.1552
 1387SOL    HW1 9998  10.212   4.085  10.528  1.9355  1.4192 -0.0849
 1387SOL    HW2 9999  10.175   4.000  10.647  0.0282  0.4846 -1.2819
 1388SOL     OW10000   6.033   1.383   5.885 -0.4209 -0.0157 -0.1527
 1388SOL    HW110001   5.948   1.423   5.903 -0.3918 -0.4862  1.1997
 1388SOL    HW210002   6.038   1.309   5.946  0.4224 -0.7853 -1.1077
 1389SOL     OW10003   8.788  11.252   2.816  0.4640  0.3866  0.4907
 1389SOL    HW110004   8.786  11.315   2.745  0.4824  0.4307  0.5292
 1389SOL    HW210005   8.734  11.179   2.785  0.9408  0.1536  0.1959
 1390SOL     OW10006   8.218  10.146   0.531 -0.2227  0.3583  0.2182
 1390SOL    HW110007   8.175  10.191   0.458  1.7169  0.3289 -1.0230
 1390SOL    HW210008   8.311  10.164   0.519  0.2458 -0.5264  2.1138
 1391SOL     OW10009   9.732  11.102   1.280  0.2146 -0.5988  0.4957
 1391SOL    HW110010   9.732  11.158   1.357 -0.9398 -0.0382  0.1087
 1391SOL    HW210011   9.789  11.029   1.303  0.1832 -0.2442  1.7355
 1392SOL     OW10012   9.271  10.605   5.230 -0.6326  0.2963 -0.1402
 1392SOL    HW110013   9.291  10.663   5.157  0.8391 -0.6947 -0.5630
 1392SOL    HW210014   9.351  10.603   5.283 -0.3234 -1.9430 -0.5813
 1393SOL     OW10015   1.988   7.106   8.397 -0.7372  0.8184  0.7338
 1393SOL    HW110016   1.896   7.128   8.384 -1.1845 -1.2274  0.1249
 1393SOL    HW210017   1.992   7.011   8.386  1.7405  1.0362 -0.9815
 1394SOL     OW10018   0.523   9.654  11.062 -0.2062 -0.4095 -0.2540
 1394SOL    HW110019   0.602   9.680  11.110  0.5365 -0.8544 -1.2218
 1394SOL    HW210020   0.546   9.663  10.970 -1.6232  0.4229 -0.5558
 1395SOL     OW10021  10.556   3.517   5.836  0.1819 -0.1685 -0.0871
 1395SOL    HW110022  10.538   3.520   5.930 -0.9500 -0.4034 -0.2859
 1395SOL    HW210023  10.575   3.425   5.819 -0.2481 -0.2406 -0.1934
 1396SOL     OW10024  10.686  11.335   8.303 -0.4758 -0.0297 -0.2089
 1396SOL    HW110025  10.777  11.345   8.332 -0.0774  0.6816 -1.5953
 1396SOL    HW210026  10.645  11.419   8.326 -0.1200  0.5970 -1.7090
 1397SOL     OW10027   5.199   2.720   6.681  0.0140 -0.1492 -0.4187
 1397SOL    HW110028   5.144   2.651   6.717 -0.1891 -0.6692 -1.6661
 1397SOL    HW210029   5.181   2.796   6.735  0.2412 -1.0494  0.9896
 1398SOL     OW10030  10.055   8.157   5.737 -0.3998  0.2454  0.0893
 1398SOL    HW110031  10.070   8.251   5.729 -0.5455  0.4712  1.9859
 1398SOL    HW210032   9.975   8.150   5.789 -0.7906 -0.9452 -0.6288
 1399SOL     OW10033   7.696   7.643   4.111 -0.0076 -0.4989 -0.1167
 1399SOL    HW110034   7.690   7.723   4.058 -0.3202 -0.7162 -0.4107
 1399SOL    HW210035   7.612   7.638   4.156  0.8177  0.5208  1.6146
 1400SOL     OW10036   1.447   5.712   6.884 -0.1791 -0.4511  0.2813
 1400SOL    HW110037   1.527   5.725   6.833 -1.6180  1.2551 -1.7331
 1400SOL    HW210038   1.411   5.629   6.851  0.0589 -0.5035  0.1512
 1401SOL     OW10039   8.900   4.883   8.771 -0.5202  0.6325  0.2032
 1401SOL    HW110040   8.847   4.807   8.794  1.3132 -1.2290 -1.2683
 1401SOL    HW210041   8.869   4.909   8.684  1.7347 -1.3743 -1.3171
 1402SOL     OW10042   7.406   6.876   4.590  0.1354  0.4284  0.9255
 1402SOL    HW110043   7.381   6.787   4.565  0.3708 -0.2890  3.0621
 1402SOL    HW210044   7.345   6.932   4.542  0.7979 -0.7617 -1.4603
 1403SOL     OW10045   2.017   8.545   6.691 -0.0313 -0.1046 -0.6283
 1403SOL    HW110046   2.062   8.521   6.610  1.2125  1.3076 -0.3907
 1403SOL    HW210047   2.077   8.604   6.736 -0.9196 -0.4393  1.0961
 1404SOL     OW10048   0.749   7.650   0.703 -0.6725 -0.3008  0.0997
 1404SOL    HW110049   0.800   7.631   0.623  0.1398  0.0591  0.5189
 1404SOL    HW210050   0.774   7.739   0.727 -0.3955 -0.6397  1.1279
 1405SOL     OW10051   4.958   7.256   8.766  0.4801  0.3491 -0.4425
 1405SOL    HW110052   4.909   7.246   8.684  0.4845  1.2704 -0.5666
 1405SOL    HW210053   5.004   7.173   8.776 -1.9875 -1.0361  0.2898
 1406SOL     OW10054   6.522   3.801   6.581  0.1643  0.4822 -0.2036
 1406SOL    HW110055   6.460   3.772   6.647 -1.7470  1.4375 -1.4764
 1406SOL    HW210056   6.562   3.880   6.618  0.8020 -0.2321  0.6910
 1407SOL     OW10057   3.248   6.812   4.287 -0.0772 -0.3784 -0.3244
 1407SOL    HW110058   3.215   6.900   4.305  2.1488  0.2267  1.3276
 1407SOL    HW210059   3.270   6.776   4.373 -0.8369 -2.5478 -0.9736
 1408SOL     OW10060   5.077   1.534   2.942 -0.0858  0.3891 -0.2641
 1408SOL    HW110061   5.094   1.456   2.995 -0.0807  0.4381 -0.1939
 1408SOL    HW210062   5.102   1.508   2.853 -3.5944 -0.9650 -1.0147
 1409SOL     OW10063  12.151   9.421  11.262 -0.4349  1.0152 -0.3544
 1409SOL    HW110064  12.242   9.410  11.289 -0.8179  0.4167  0.7976
 1409SOL    HW210065  12.155   9.434  11.167  0.7199 -0.9346 -0.6321
 1410SOL     OW10066   3.811   0.251   1.541 -0.4921  0.3896 -0.6276
 1410SOL    HW110067   3.869   0.266   1.467  0.6483 -1.1566 -0.0977
 1410SOL    HW210068   3.781   0.339   1.566  2.0220  1.3213 -0.6024
 1411SOL     OW10069  11.910   3.183   3.772  0.3788 -0.7263 -0.0786
 1411SOL    HW110070  11.886   3.118   3.839 -1.1153 -0.0970  0.0133
 1411SOL    HW210071  11.943   3.258   3.822  1.1480 -0.9997 -0.1513
 1412SOL     OW10072  11.132   1.526   3.782 -0.3149  0.3416 -0.6051
 1412SOL    HW110073  11.044   1.529   3.745 -0.5788 -0.3318 -0.0616
 1412SOL    HW210074  11.119   1.491   3.871  0.2488  2.2866  0.2890
 1413SOL     OW10075   4.053   5.304   8.683 -0.4696 -0.0535  0.1593
 1413SOL    HW110076   4.075   5.232   8.624  0.9779 -0.1710  0.7767
 1413SOL    HW210077   4.138   5.338   8.712 -1.1304  1.5197  0.3537
 1414SOL     OW10078   5.531   8.869   9.762  0.4581  0.2545  0.1071
 1414SOL    HW110079   5.553   8.805   9.694 -0.2122  1.8168 -1.6927
 1414SOL    HW210080   5.602   8.933   9.759  1.1732 -0.3961  1.9473
 1415SOL     OW10081  10.843   2.339   0.204 -0.0007  0.8435  0.0193
 1415SOL    HW110082  10.938   2.338   0.193 -0.1177 -3.4931 -3.0482
 1415SOL    HW210083  10.811   2.401   0.138  0.6511  0.5362 -0.5914
 1416SOL     OW10084  11.045   1.731   6.076 -0.6711 -0.1936 -0.1670
 1416SOL    HW110085  11.048   1.636   6.086  0.7763 -0.2570 -0.9403
 1416SOL    HW210086  11.060   1.765   6.164  1.3688 -0.7167 -0.2477
 1417SOL     OW10087   2.121   1.188   4.472  0.2998 -0.1386  0.2241
 1417SOL    HW110088   2.165   1.112   4.510 -0.0359 -0.6430 -0.3644
 1417SOL    HW210089   2.046   1.203   4.528 -0.4231 -1.1336 -0.4420
 1418SOL     OW10090   5.870  10.743   3.274 -0.3046 -0.0609 -0.2081
 1418SOL    HW110091   5.841  10.833   3.286  1.3552  0.2486  2.3730
 1418SOL    HW210092   5.917  10.744   3.191  1.5338  2.0351  0.7615
 1419SOL     OW10093   1.493   1.555  11.395  0.2590  0.8742 -0.6070
 1419SOL    HW110094   1.543   1.590  11.322  0.3715  0.6555 -0.6332
 1419SOL    HW210095   1.522   1.464  11.403  1.2222  1.2563  0.5457
 1420SOL     OW10096   2.808   3.422   5.116  0.0527  0.0428 -0.2185
 1420SOL    HW110097   2.898   3.456   5.113 -0.4763  1.5212  0.0172
 1420SOL    HW210098   2.767   3.470   5.188 -0.5871 -1.5552  0.5420
 1421SOL     OW10099   3.690   8.133   0.047 -0.2580 -0.0265 -0.2024
 1421SOL    HW110100   3.762   8.080   0.081 -0.7215 -0.9581 -0.6560
 1421SOL    HW210101   3.612   8.078   0.056 -1.2579  1.5790  1.8530
 1422SOL     OW10102   2.117  10.265  10.885  0.4439 -0.0837 -0.1293
 1422SOL    HW110103   2.201  10.309  10.870  0.1164  0.5294 -0.1958
 1422SOL    HW210104   2.101  10.215  10.805  0.9741 -0.5803  0.0740
 1423SOL     OW10105   4.579   2.383   8.881 -0.5020 -0.7325  0.0237
 1423SOL    HW110106   4.515   2.454   8.885 -1.0475 -1.2389  0.4941
 1423SOL    HW210107   4.540   2.319   8.820 -0.5150 -1.0995  0.4091
 1424SOL     OW10108   9.453   6.935   5.476 -0.0509 -0.0514 -0.3732
 1424SOL    HW110109   9.526   6.908   5.421  0.3638 -0.3688  0.3167
 1424SOL    HW210110   9.406   6.854   5.494 -0.8317  0.2148 -1.1674
 1425SOL     OW10111   0.881   2.037   3.447  0.2046  0.3428  0.0188
 1425SOL    HW110112   0.792   2.006   3.428  0.6979 -0.2797 -1.4462
 1425SOL    HW210113   0.925   2.033   3.362  1.9578 -0.3962  0.9370
 1426SOL     OW10114   2.238   5.089   2.406 -0.4539 -0.2520  0.3652
 1426SOL    HW110115   2.210   5.022   2.469 -0.5732  0.3888  1.0078
 1426SOL    HW210116   2.211   5.172   2.446 -0.6133  0.1619 -0.5809
 1427SOL     OW10117   6.342   1.027   9.705 -0.0073 -0.8463 -0.7232
 1427SOL    HW110118   6.403   0.990   9.768  1.2279  0.1294 -1.2927
 1427SOL    HW210119   6.397   1.052   9.630 -1.0570  0.3478 -1.1360
 1428SOL     OW10120   5.376   0.126   1.701  0.0358 -0.1968 -0.1023
 1428SOL    HW110121   5.432   0.070   1.755  0.7835 -2.7837 -3.1592
 1428SOL    HW210122   5.288   0.090   1.713 -0.5407  1.7465  2.1812
 1429SOL     OW10123   8.469  10.344   9.265 -0.1487  0.8410  0.6578
 1429SOL    HW110124   8.522  10.410   9.309  0.0857 -0.1628  1.9379
 1429SOL    HW210125   8.429  10.294   9.336  0.1661 -0.7956 -0.2610
 1430SOL     OW10126  12.059   0.516   3.980  0.2098 -0.1033  0.0258
 1430SOL    HW110127  12.041   0.455   3.908 -0.4566 -0.1837  0.2559
 1430SOL    HW210128  12.142   0.486   4.017  0.7917  0.2189 -0.9961
 1431SOL     OW10129   8.507   2.663  11.473  0.6514 -0.1103  0.0426
 1431SOL    HW110130   8.418   2.666  11.439  1.4588  0.8483 -2.1551
 1431SOL    HW210131   8.527   2.570  11.482 -0.5748 -0.3330  0.6535
 1432SOL     OW10132   7.562   3.475  11.044 -0.1615 -0.1473 -0.1545
 1432SOL    HW110133   7.546   3.562  11.081  0.4946  0.0589 -0.3390
 1432SOL    HW210134   7.606   3.426  11.114 -0.0163 -0.1429 -0.2409
 1433SOL     OW10135  11.341   9.606   8.504 -0.3887  0.0066 -0.5735
 1433SOL    HW110136  11.392   9.686   8.522  0.8256 -0.8162 -0.2418
 1433SOL    HW210137  11.264   9.614   8.561  0.1413  0.5417  0.0949
 1434SOL     OW10138   8.362   1.278  11.320 -0.8118  0.2804  0.3868
 1434SOL    HW110139   8.271   1.307  11.313 -0.9335 -0.1224  0.2217
 1434SOL    HW210140   8.356   1.182  11.316 -0.4003  0.2441  0.6122
 1435SOL     OW10141   2.290   9.425   9.936 -0.0752 -0.2520  0.0763
 1435SOL    HW110142   2.221   9.491   9.933  0.3034  0.1346 -0.1879
 1435SOL    HW210143   2.294   9.390   9.847 -1.8846 -2.3329  0.7180
 1436SOL     OW10144  10.892   9.003   2.991 -0.0633  0.3280  0.5561
 1436SOL    HW110145  10.839   9.082   3.003  1.1483  1.0026  1.6644
 1436SOL    HW210146  10.828   8.932   2.987 -1.2834  1.4370 -1.7871
 1437SOL     OW10147   6.933   1.495   2.536 -0.4504  0.6417 -0.7380
 1437SOL    HW110148   6.880   1.464   2.609  1.6509 -0.3960  0.4359
 1437SOL    HW210149   6.912   1.435   2.464 -1.6111  0.9048 -0.6330
 1438SOL     OW10150   5.894   2.336   8.463 -0.6712 -0.2773  0.5295
 1438SOL    HW110151   5.830   2.312   8.530 -0.8530  1.7604  1.1518
 1438SOL    HW210152   5.848   2.399   8.407  0.2066 -0.2023 -0.1285
 1439SOL     OW10153  10.480  11.808   8.858 -0.0857  0.2516  0.7901
 1439SOL    HW110154  10.491  11.903   8.864  0.3978  0.1454  2.0290
 1439SOL    HW210155  10.562  11.773   8.893  0.2501 -0.6442 -0.8144
 1440SOL     OW10156   1.221   3.648  12.137 -0.1637  0.3365  0.7015
 1440SOL    HW110157   1.228   3.669  12.044  1.9473  0.6385  0.8678
 1440SOL    HW210158   1.172   3.721  12.175 -3.4780 -1.0673 -0.4917
 1441SOL     OW10159   6.319   4.769   5.766  0.2128  0.0865  0.2641
 1441SOL    HW110160   6.332   4.786   5.860 -0.2486 -1.1797  0.5860
 1441SOL    HW210161   6.341   4.851   5.723  2.2584  0.1502  1.3305
 1442SOL     OW10162   6.372   5.910   1.521  0.1746  0.0655 -0.2601
 1442SOL    HW110163   6.372   5.973   1.449 -1.6461  1.4647  0.8696
 1442SOL    HW210164   6.337   5.829   1.482 -2.6490  1.3318 -0.6607
 1443SOL     OW10165   4.204   0.648  10.124  0.1793 -0.3628 -0.1973
 1443SOL    HW110166   4.200   0.685  10.036 -2.6834 -1.6630 -0.7342
 1443SOL    HW210167   4.114   0.623  10.143  0.7393 -0.3377  3.0415
 1444SOL     OW10168   8.713   9.787   9.141  0.2920  0.0135  0.3291
 1444SOL    HW110169   8.686   9.835   9.063  0.0795  1.3542  1.1868
 1444SOL    HW210170   8.728   9.698   9.110 -0.1220  0.4250 -1.1663
 1445SOL     OW10171  11.394   2.823   9.120 -0.1229  0.1479 -0.5632
 1445SOL    HW110172  11.330   2.868   9.176 -0.3441 -0.7385 -0.0743
 1445SOL    HW210173  11.433   2.757   9.178  1.7838  1.1295 -0.6249
 1446SOL     OW10174   1.391   4.288   3.319  0.0294  0.0088  0.3238
 1446SOL    HW110175   1.465   4.344   3.341  0.2929  0.3065 -1.2514
 1446SOL    HW210176   1.322   4.316   3.379  0.8379  0.4799  1.0671
 1447SOL     OW10177   8.414   2.866   9.700 -0.3318 -0.0340  0.3673
 1447SOL    HW110178   8.460   2.832   9.777 -1.5719 -1.6628  0.4247
 1447SOL    HW210179   8.440   2.809   9.628  0.7418  1.4197 -0.4708
 1448SOL     OW10180   6.971   7.919   6.242 -0.1847  0.7612  0.2278
 1448SOL    HW110181   7.021   7.867   6.180  1.1681  0.2945  1.6503
 1448SOL    HW210182   6.890   7.869   6.255  0.5607 -0.3711  0.6376
 1449SOL     OW10183  11.982   9.118   0.439  0.6833 -0.0174 -0.0147
 1449SOL    HW110184  11.964   9.084   0.527  0.5093  1.0319  0.3712
 1449SOL    HW210185  12.059   9.175   0.451 -0.3955  1.5417 -0.1663
 1450SOL     OW10186   9.768   7.278   4.254 -0.1443  0.0772  0.1386
 1450SOL    HW110187   9.839   7.284   4.190 -0.6016  1.0670 -0.3007
 1450SOL    HW210188   9.699   7.229   4.209 -0.0955 -0.0623  0.2178
 1451SOL     OW10189   4.738   8.878  10.247  0.0537  0.0740 -0.6222
 1451SOL    HW110190   4.749   8.784  10.230  1.6292  0.2724 -0.8593
 1451SOL    HW210191   4.805   8.898  10.313 -1.7839  0.5901  1.1915
 1452SOL     OW10192  10.318   1.671  11.181 -0.5452 -0.3752 -0.2318
 1452SOL    HW110193  10.260   1.703  11.250  1.3442 -0.2052  1.3575
 1452SOL    HW210194  10.315   1.576  11.189  1.0815 -0.3472  1.4183
 1453SOL     OW10195   5.579   0.370   1.754  0.7860  0.3406 -0.3497
 1453SOL    HW110196   5.498   0.397   1.798  0.5159 -1.8792  0.6294
 1453SOL    HW210197   5.644   0.364   1.824  0.9178 -1.1152 -0.5724
 1454SOL     OW10198   2.033   2.628   2.521  0.3669 -0.1923  0.3498
 1454SOL    HW110199   2.059   2.716   2.547  1.8084  0.1402 -1.9223
 1454SOL    HW210200   2.115   2.578   2.520  0.0563 -0.7423 -1.1666
 1455SOL     OW10201   1.937   1.166   0.770 -0.0699  0.0042  0.6458
 1455SOL    HW110202   1.956   1.072   0.776  0.2646  0.0839  0.8926
 1455SOL    HW210203   1.975   1.203   0.850  0.1544  0.4060  0.3557
 1456SOL     OW10204   8.868   8.618   1.407 -0.2450  0.3690 -0.3759
 1456SOL    HW110205   8.865   8.554   1.337 -1.0134 -0.4882  0.4208
 1456SOL    HW210206   8.785   8.607   1.454  0.2201  0.9652  0.6245
 1457SOL     OW10207   2.837   0.659   9.122 -0.3499  0.2771  0.0597
 1457SOL    HW110208   2.905   0.707   9.075 -1.4347 -1.3160 -3.5205
 1457SOL    HW210209   2.796   0.604   9.055 -3.0458 -1.2331  2.6911
 1458SOL     OW10210   5.736  10.883   1.703  0.4098  0.7710 -0.4158
 1458SOL    HW110211   5.804  10.919   1.645  0.4667  1.1584 -0.1096
 1458SOL    HW210212   5.784  10.845   1.776  0.6388 -3.2228 -2.3911
 1459SOL     OW10213  10.803   8.402   6.209 -0.1148 -0.3446 -0.8944
 1459SOL    HW110214  10.849   8.461   6.150  0.5934  0.0100 -0.0201
 1459SOL    HW210215  10.850   8.319   6.202 -0.6168 -0.5915 -1.5182
 1460SOL     OW10216   7.364  10.109   9.294  0.2229 -0.6146 -0.4122
 1460SOL    HW110217   7.403  10.033   9.251  0.9723 -0.4648 -0.0133
 1460SOL    HW210218   7.358  10.175   9.225  0.5470 -0.6874 -0.5147
 1461SOL     OW10219   8.952  11.668   6.216 -0.0123  0.3027 -0.5149
 1461SOL    HW110220   9.012  11.683   6.289  1.0787  0.2628 -1.3759
 1461SOL    HW210221   8.918  11.754   6.194 -1.9648  0.0908  1.3274
 1462SOL     OW10222  11.483   7.961   1.329 -0.0080  0.2358  0.0462
 1462SOL    HW110223  11.533   7.941   1.408  2.4875  0.6500 -1.3160
 1462SOL    HW210224  11.400   7.915   1.341 -0.7865  2.2316  3.9424
 1463SOL     OW10225   4.709   3.341   8.007 -0.1295  0.2176 -0.5239
 1463SOL    HW110226   4.624   3.302   7.986  0.5354 -0.6959 -1.6280
 1463SOL    HW210227   4.767   3.310   7.938  0.8931  1.6160 -0.3189
 1464SOL     OW10228  10.952   7.265   7.110  0.1077 -0.3270  0.3016
 1464SOL    HW110229  10.869   7.313   7.115  0.0369 -0.4268  0.1097
 1464SOL    HW210230  10.931   7.187   7.058 -0.0249 -1.1028  1.4868
 1465SOL     OW10231   7.685  11.044  12.325  0.5034  0.3444 -0.2369
 1465SOL    HW110232   7.602  11.031  12.372  0.0275  1.6186 -0.6591
 1465SOL    HW210233   7.661  11.040  12.233  0.3690  3.1855 -0.4284
 1466SOL     OW10234   6.451   7.956  11.203  0.2701 -0.8096  0.5241
 1466SOL    HW110235   6.462   7.864  11.181  1.2699 -0.2484 -1.5326
 1466SOL    HW210236   6.539   7.993  11.199 -0.4868  0.9744 -2.4936
 1467SOL     OW10237   7.337   8.636   8.809  0.3454 -0.4253 -0.5354
 1467SOL    HW110238   7.410   8.665   8.864  1.1500 -2.9930 -0.1012
 1467SOL    HW210239   7.266   8.619   8.871 -0.5460  1.6690 -0.9146
 1468SOL     OW10240   1.179   4.822   9.185  0.0534 -0.0171  0.2392
 1468SOL    HW110241   1.194   4.915   9.169  1.5793 -0.4155 -0.8618
 1468SOL    HW210242   1.148   4.818   9.276 -1.7359  1.6810 -0.2113
 1469SOL     OW10243   4.415   9.509   7.062  0.1786 -0.1482  0.1801
 1469SOL    HW110244   4.436   9.583   7.119  1.0046  0.7793 -1.2766
 1469SOL    HW210245   4.493   9.453   7.064 -0.1009 -0.5248  0.5854
 1470SOL     OW10246   3.137  11.806   7.027  0.3183  0.1622 -0.7209
 1470SOL    HW110247   3.045  11.812   7.050  0.7135  1.7617  0.6678
 1470SOL    HW210248   3.171  11.894   7.040  2.3680 -0.7121  0.4681
 1471SOL     OW10249  12.242  10.052  10.605  0.7104  0.0532  0.4482
 1471SOL    HW110250  12.227  10.117  10.536 -0.5299  0.3949  1.0250
 1471SOL    HW210251  12.257  10.103  10.684 -1.1417 -0.3348  1.0853
 1472SOL     OW10252   0.802   1.577   4.195 -0.2380 -0.1253  0.2672
 1472SOL    HW110253   0.802   1.514   4.267 -0.4166 -1.6262 -0.9822
 1472SOL    HW210254   0.891   1.575   4.161  0.3504  1.9328  1.5089
 1473SOL     OW10255   1.357   0.011   8.708  0.1056  0.1635  0.3134
 1473SOL    HW110256   1.392   0.028   8.795 -1.2037  1.5043  0.6211
 1473SOL    HW210257   1.368   0.093   8.660 -0.5621 -0.0831 -0.2909
 1474SOL     OW10258   1.659   7.318  11.003  0.1491  0.4435  0.3422
 1474SOL    HW110259   1.581   7.369  10.984  0.3835  0.9567  0.7347
 1474SOL    HW210260   1.677   7.334  11.096  0.9627  0.6735  0.1569
 1475SOL     OW10261  11.213  11.607   8.102  0.6720  0.1110  0.3435
 1475SOL    HW110262  11.220  11.618   8.197  0.2301 -0.4403  0.4426
 1475SOL    HW210263  11.266  11.678   8.066  1.1304  0.1099  1.0059
 1476SOL     OW10264   3.487   3.897   7.041 -0.4572 -0.0532  0.4812
 1476SOL    HW110265   3.405   3.941   7.019 -2.2123 -2.5899  1.4893
 1476SOL    HW210266   3.487   3.819   6.986  0.6643 -0.7288  1.4121
 1477SOL     OW10267   2.229  10.496   1.106 -0.1263  0.8122 -0.3834
 1477SOL    HW110268   2.297  10.450   1.155 -1.1791  0.7208  1.0699
 1477SOL    HW210269   2.250  10.589   1.118 -0.4795  0.7972  0.4395
 1478SOL     OW10270   9.878   7.575   0.053 -0.0858  0.4015 -0.4620
 1478SOL    HW110271   9.829   7.609  -0.021  2.0431  1.1507 -1.6285
 1478SOL    HW210272   9.956   7.632   0.058  0.8248 -0.8971  1.0597
 1479SOL     OW10273   1.714   1.202   6.678  0.0131 -0.1882  0.7810
 1479SOL    HW110274   1.797   1.247   6.661  0.5055 -0.3426  2.5863
 1479SOL    HW210275   1.671   1.200   6.593 -0.1155  3.7723  0.5534
 1480SOL     OW10276   7.728   0.847   8.336 -0.2006 -0.6218 -0.2844
 1480SOL    HW110277   7.791   0.881   8.400 -1.8581 -0.1264  1.1743
 1480SOL    HW210278   7.782   0.816   8.264  1.5993  1.9986 -0.2097
 1481SOL     OW10279   1.864  12.049   2.943  0.0788 -0.0713 -0.1314
 1481SOL    HW110280   1.903  11.963   2.959 -0.9635 -0.7012 -0.8660
 1481SOL    HW210281   1.786  12.051   2.998  0.4247  0.6795  0.3644
 1482SOL     OW10282   6.271   0.615  12.237  0.0374  0.5737 -0.5305
 1482SOL    HW110283   6.295   0.606  12.144 -0.6294  0.1832 -0.6692
 1482SOL    HW210284   6.190   0.667  12.235 -0.1042  0.3659 -0.1779
 1483SOL     OW10285   2.116   5.235   2.054  0.1024 -0.5533 -0.1227
 1483SOL    HW110286   2.045   5.191   2.006  0.1408 -0.5829 -0.1523
 1483SOL    HW210287   2.196   5.194   2.021  0.1156 -0.7313  0.1262
 1484SOL     OW10288   6.372   6.216   6.404 -0.3233 -0.0539  0.4456
 1484SOL    HW110289   6.288   6.261   6.411 -0.0426  0.8470 -1.3793
 1484SOL    HW210290   6.398   6.228   6.312  1.5504 -0.7612  0.8422
 1485SOL     OW10291   4.316   4.298   4.956  0.2854  0.0449 -0.4513
 1485SOL    HW110292   4.319   4.203   4.966  2.2511  0.2688  2.1265
 1485SOL    HW210293   4.369   4.316   4.879  0.8984 -0.8997 -0.2686
 1486SOL     OW10294   9.237   4.932   9.160  0.2379  0.1591 -0.1034
 1486SOL    HW110295   9.290   4.864   9.203  0.6460 -0.2499 -1.2378
 1486SOL    HW210296   9.155   4.888   9.139  0.4256  0.0698 -0.6563
 1487SOL     OW10297   3.101   2.259   2.429 -0.2205  0.2390 -0.5202
 1487SOL    HW110298   3.081   2.193   2.363 -1.6856  0.5824 -0.4481
 1487SOL    HW210299   3.031   2.251   2.493  0.3494  0.9469  0.2130
 1488SOL     OW10300   0.028   2.749  10.134 -0.2838 -0.4584  0.3731
 1488SOL    HW110301   0.049   2.824  10.189 -0.4797 -0.3120  0.2523
 1488SOL    HW210302  -0.018   2.787  10.059 -3.2521 -0.9877  1.7964
 1489SOL     OW10303   3.803  10.998  10.987  0.2753 -0.2885 -0.9251
 1489SOL    HW110304   3.885  10.958  11.017 -0.1730  0.4493  1.5082
 1489SOL    HW210305   3.747  10.997  11.064 -1.2934  1.0666 -1.9928
 1490SOL     OW10306  11.892   8.993   0.211  0.2749  0.0658  0.6386
 1490SOL    HW110307  11.922   9.043   0.287 -1.1055  1.7444  0.1340
 1490SOL    HW210308  11.853   9.059   0.153  0.3269 -1.3240 -1.0415
 1491SOL     OW10309   4.134   4.213   8.984  0.5128  0.6674  0.5647
 1491SOL    HW110310   4.203   4.258   8.934 -0.0217 -0.7570 -1.5805
 1491SOL    HW210311   4.052   4.245   8.947  0.1110 -1.5873 -0.6651
 1492SOL     OW10312  11.813   2.427   8.209 -0.9597  0.8155  0.0012
 1492SOL    HW110313  11.755   2.355   8.183  0.4503 -0.1243 -0.6663
 1492SOL    HW210314  11.790   2.445   8.300 -0.5455 -1.3041  0.5640
 1493SOL     OW10315   9.488   9.941   6.968 -0.2499  0.0461  0.0755
 1493SOL    HW110316   9.402   9.953   6.929 -1.5173 -0.0946  2.6486
 1493SOL    HW210317   9.471   9.914   7.058  2.4968 -0.9038  0.4201
 1494SOL     OW10318   6.660   1.393   3.089 -0.0710 -0.6156 -0.2577
 1494SOL    HW110319   6.577   1.365   3.127 -0.9064 -0.1848 -1.6432
 1494SOL    HW210320   6.704   1.442   3.159 -1.0690 -0.7070  0.4538
 1495SOL     OW10321  10.085   8.708  11.242  0.1982  0.4695  0.3020
 1495SOL    HW110322  10.079   8.614  11.258 -0.0943  0.3974 -0.2235
 1495SOL    HW210323  10.007   8.729  11.190 -0.2668  1.1802  1.2437
 1496SOL     OW10324   6.740   2.594   6.172  0.1105 -0.3353 -0.5035
 1496SOL    HW110325   6.760   2.512   6.127  1.6131  0.5772 -1.5989
 1496SOL    HW210326   6.812   2.652   6.148 -0.2850  0.9392  1.2302
 1497SOL     OW10327   4.423   1.395   1.109 -0.6488  0.1276  0.0176
 1497SOL    HW110328   4.426   1.429   1.198 -0.0183  0.7715 -0.2434
 1497SOL    HW210329   4.471   1.459   1.057  1.5740 -1.6450 -0.3055
 1498SOL     OW10330  11.676   8.588   1.870  0.2473 -0.0929  0.2734
 1498SOL    HW110331  11.595   8.573   1.822  0.9834 -0.4185 -0.9217
 1498SOL    HW210332  11.697   8.502   1.908  0.5944 -0.2921 -0.3490
 1499SOL     OW10333   8.115   1.490   2.841  0.0613 -0.1820 -0.8101
 1499SOL    HW110334   8.037   1.535   2.876  1.0161  1.3521 -0.5523
 1499SOL    HW210335   8.147   1.548   2.772  0.9101 -0.8451 -0.9855
 1500SOL     OW10336   0.343   3.499   8.932 -0.0452 -0.0336 -0.0430
 1500SOL    HW110337   0.424   3.458   8.961 -1.3242 -1.1559  2.3330
 1500SOL    HW210338   0.306   3.536   9.012 -2.1378 -0.0960 -0.9123
 1501SOL     OW10339   7.392   8.964   8.122  0.6743  0.1046  0.5407
 1501SOL    HW110340   7.323   8.993   8.181 -0.1697  0.2059 -0.4737
 1501SOL    HW210341   7.470   8.958   8.178 -0.2017 -0.3041  1.7593
 1502SOL     OW10342   2.588   0.498   1.296  0.0213 -0.2341  0.0145
 1502SOL    HW110343   2.568   0.494   1.203 -0.2280 -1.2020  0.0975
 1502SOL    HW210344   2.640   0.420   1.313 -0.7219 -0.5607  0.8591
 1503SOL     OW10345   1.068   9.197   6.221  0.7009 -0.0027 -0.3281
 1503SOL    HW110346   1.046   9.287   6.198 -1.8633 -0.8725 -1.6222
 1503SOL    HW210347   1.164   9.193   6.214  0.9606  2.7481  0.4780
 1504SOL     OW10348   5.517  11.860   9.513 -0.5246 -0.2946  0.3432
 1504SOL    HW110349   5.579  11.802   9.558 -0.5058 -0.3282  0.2750
 1504SOL    HW210350   5.569  11.903   9.445 -0.4530  0.0938  0.6456
 1505SOL     OW10351   2.879   0.745   2.762 -0.1218  0.5752  0.0140
 1505SOL    HW110352   2.960   0.694   2.772 -1.0315 -0.9288 -0.0472
 1505SOL    HW210353   2.849   0.761   2.851 -2.1811 -2.9504  0.1205
 1506SOL     OW10354   3.533   9.840   6.633 -0.3167  0.1589  0.3752
 1506SOL    HW110355   3.544   9.759   6.682  3.9161 -0.6377 -1.4332
 1506SOL    HW210356   3.571   9.908   6.689  1.5079 -0.1975 -0.3663
 1507SOL     OW10357  12.004   6.194  11.407  0.0584 -0.4041 -0.3415
 1507SOL    HW110358  11.954   6.116  11.428  0.6767 -0.7447 -0.1126
 1507SOL    HW210359  11.948   6.243  11.346 -1.4071  0.1895  1.3945
 1508SOL     OW10360   4.329   0.514   8.821  0.3546  0.5906  0.0717
 1508SOL    HW110361   4.354   0.424   8.843 -0.0651  0.4824  0.1211
 1508SOL    HW210362   4.387   0.539   8.749 -1.5267 -0.8253 -2.1077
 1509SOL     OW10363   4.467   2.215   1.404  0.0448 -0.2180 -0.3004
 1509SOL    HW110364   4.544   2.270   1.418  0.3183 -0.8813  1.0513
 1509SOL    HW210365   4.496   2.147   1.344 -0.0075  0.5181 -1.1779
 1510SOL     OW10366   8.411   3.196   5.336  0.7054  0.1200  0.1291
 1510SOL    HW110367   8.437   3.242   5.416  2.2120  0.9199 -0.7755
 1510SOL    HW210368   8.350   3.256   5.292  0.2470 -0.1166  0.4310
 1511SOL     OW10369   1.526   2.975   5.760  0.1072 -0.1608 -0.2639
 1511SOL    HW110370   1.618   2.951   5.748  0.3280  0.8169 -0.6138
 1511SOL    HW210371   1.507   2.953   5.851  0.9549  0.4876  0.0831
 1512SOL     OW10372   9.565   2.090   7.229 -0.1501 -0.1757 -0.1288
 1512SOL    HW110373   9.625   2.016   7.222 -0.4974 -0.7318  1.9812
 1512SOL    HW210374   9.605   2.148   7.293 -1.3504 -0.0610  0.5538
 1513SOL     OW10375   6.015   3.842   9.369 -0.7944 -0.1821 -0.1250
 1513SOL    HW110376   6.093   3.897   9.360  1.8438 -3.3712  1.1757
 1513SOL    HW210377   5.990   3.851   9.461  1.5359 -3.1886  0.9472
 1514SOL     OW10378   8.801  11.564  11.562 -0.0746  0.0523  0.4392
 1514SOL    HW110379   8.749  11.496  11.604  1.0728 -1.4746 -0.4879
 1514SOL    HW210380   8.884  11.521  11.542  1.0821  2.0259  0.7131
 1515SOL     OW10381   0.274   3.583  12.211  0.2921  0.8735 -0.3535
 1515SOL    HW110382   0.308   3.588  12.122  1.0664  1.9593 -0.0270
 1515SOL    HW210383   0.182   3.558  12.201  0.5804  0.2011 -1.3974
 1516SOL     OW10384  10.508   0.861   4.053 -0.5592 -0.1917  0.7556
 1516SOL    HW110385  10.446   0.921   4.010 -1.6418 -0.2609  2.1265
 1516SOL    HW210386  10.452   0.790   4.086  0.8196 -2.8358 -2.0690
 1517SOL     OW10387   8.158   3.232   7.330 -0.3250  0.3996 -0.4830
 1517SOL    HW110388   8.161   3.256   7.423 -1.7276  0.4595 -0.4271
 1517SOL    HW210389   8.242   3.260   7.295  1.5663 -2.3230  1.3935
 1518SOL     OW10390   7.893   7.231   2.301  0.1101 -0.5606  0.3392
 1518SOL    HW110391   7.826   7.291   2.268 -0.3303 -0.8004  0.7907
 1518SOL    HW210392   7.962   7.289   2.334  0.1979 -0.3152 -0.2560
 1519SOL     OW10393   7.567  12.271   2.622  0.1073 -0.3676 -0.9850
 1519SOL    HW110394   7.547  12.277   2.715 -2.2280  0.8907 -1.5120
 1519SOL    HW210395   7.569  12.177   2.604 -2.0116 -0.6257 -0.1239
 1520SOL     OW10396   2.267  11.209   4.916  0.3894  0.2737  0.4605
 1520SOL    HW110397   2.346  11.163   4.946  0.7928  1.3151  1.0162
 1520SOL    HW210398   2.251  11.276   4.982 -0.1160  1.0266 -0.4076
 1521SOL     OW10399   6.478  11.887  10.186  0.6118 -0.1658 -0.8110
 1521SOL    HW110400   6.415  11.839  10.131  0.2179  0.7818 -1.2060
 1521SOL    HW210401   6.442  11.881  10.274  0.4961 -0.4841 -0.8767
 1522SOL     OW10402   5.952   1.144   5.710 -0.0645 -0.0318  0.1115
 1522SOL    HW110403   5.860   1.127   5.689 -0.1387  0.0101  0.3952
 1522SOL    HW210404   5.968   1.091   5.788  0.2469 -0.3019 -0.1375
 1523SOL     OW10405  11.965  10.910   4.972 -0.1364 -0.2398  0.0717
 1523SOL    HW110406  12.047  10.955   4.952 -0.7887  0.6840 -0.5968
 1523SOL    HW210407  11.921  10.967   5.035  0.0947 -1.1460  1.0821
 1524SOL     OW10408   9.044   8.369   0.833  0.4680 -0.0934  0.1021
 1524SOL    HW110409   9.083   8.390   0.748  0.0713 -1.4319 -0.4257
 1524SOL    HW210410   8.956   8.339   0.813  0.8854 -1.9434  0.8102
 1525SOL     OW10411   4.971   5.399   0.342  0.0771 -0.0250  0.7703
 1525SOL    HW110412   4.979   5.329   0.408 -1.0407 -0.7428  0.1693
 1525SOL    HW210413   5.017   5.364   0.265  1.3638  0.8051  1.1232
 1526SOL     OW10414   5.523   7.779   9.060  0.0856  0.0856 -0.1795
 1526SOL    HW110415   5.576   7.811   9.133  0.1353 -0.8631  0.2139
 1526SOL    HW210416   5.511   7.856   9.004  0.3353  0.7502  0.6471
 1527SOL     OW10417   5.832   9.370   1.414  0.3801 -0.1910 -0.5254
 1527SOL    HW110418   5.919   9.386   1.451 -0.2006  1.5020  0.2193
 1527SOL    HW210419   5.805   9.456   1.380 -0.7413 -0.8464 -1.3362
 1528SOL     OW10420   3.906   2.507   7.135 -1.0690 -0.5611 -0.0011
 1528SOL    HW110421   3.854   2.586   7.151 -1.6788 -0.4905 -1.9968
 1528SOL    HW210422   3.874   2.474   7.051  1.8227 -0.7295 -1.1539
 1529SOL     OW10423   7.160   0.663   4.451  0.1994 -0.2170 -0.3830
 1529SOL    HW110424   7.143   0.598   4.383 -2.2255 -2.1190  1.8274
 1529SOL    HW210425   7.074   0.697   4.475  0.6874 -0.7557  2.6641
 1530SOL     OW10426   4.263   3.394   6.144  0.9874 -0.2587  0.1221
 1530SOL    HW110427   4.249   3.303   6.117  0.7595 -0.1183 -0.2424
 1530SOL    HW210428   4.342   3.391   6.197  0.4526 -0.8229  0.9141
 1531SOL     OW10429   1.760   0.691   6.188 -0.2073 -0.8068 -0.4390
 1531SOL    HW110430   1.744   0.719   6.098  0.3370  0.5631 -0.1308
 1531SOL    HW210431   1.675   0.658   6.218 -0.7571  0.0350 -1.0022
 1532SOL     OW10432   4.131  11.692  10.821  0.1164 -0.5524 -0.2502
 1532SOL    HW110433   4.161  11.766  10.769  1.3276  0.1274  1.3177
 1532SOL    HW210434   4.200  11.627  10.813  1.4706  0.4436  2.2084
 1533SOL     OW10435   0.980   1.943  11.258  0.6518 -0.6646 -0.4475
 1533SOL    HW110436   1.036   1.877  11.298  1.3748 -2.2888 -3.7872
 1533SOL    HW210437   0.892   1.905  11.261  0.3192  0.1502  1.3056
 1534SOL     OW10438   6.669   7.716   6.898  0.0073 -0.2573 -0.0701
 1534SOL    HW110439   6.665   7.752   6.986 -1.3199 -0.3881 -0.0559
 1534SOL    HW210440   6.671   7.621   6.911  2.0845 -0.2740 -0.1462
 1535SOL     OW10441   6.586  11.533   7.214  0.1168 -0.3646  0.8575
 1535SOL    HW110442   6.536  11.493   7.143  1.3437 -1.2456  0.4513
 1535SOL    HW210443   6.653  11.468   7.236  0.8798  0.6325  1.6013
 1536SOL     OW10444   5.456   9.440   0.443  0.2263  0.4149 -0.0233
 1536SOL    HW110445   5.385   9.426   0.380 -0.1629 -1.5290  0.7893
 1536SOL    HW210446   5.411   9.461   0.525  0.5268 -1.1435  0.5744
 1537SOL     OW10447   4.925   7.550  11.804  0.1381 -0.0706  0.2913
 1537SOL    HW110448   4.993   7.609  11.772 -0.8116  0.6593 -0.4627
 1537SOL    HW210449   4.846   7.579  11.759 -0.3523 -1.9628 -0.1583
 1538SOL     OW10450   2.339  10.055  11.117  0.1533  0.1861  0.1687
 1538SOL    HW110451   2.334   9.960  11.106  1.5583  0.0103  0.7698
 1538SOL    HW210452   2.392  10.085  11.043  2.6425  0.0249  1.7682
 1539SOL     OW10453   1.274   7.324  10.933  0.2431 -0.6309  0.3226
 1539SOL    HW110454   1.317   7.408  10.921 -0.5936 -0.4070 -1.4476
 1539SOL    HW210455   1.342   7.259  10.913  0.1204 -0.2949 -1.3764
 1540SOL     OW10456   8.320   1.329   2.963  0.1567  0.6929  0.6461
 1540SOL    HW110457   8.244   1.362   2.915  1.1390  1.8776 -0.1577
 1540SOL    HW210458   8.377   1.294   2.896  0.4245 -0.0021  1.2238
 1541SOL     OW10459   4.524   1.218   2.564 -0.0215 -0.3408 -0.5610
 1541SOL    HW110460   4.615   1.246   2.553 -0.0328  0.7334  1.6542
 1541SOL    HW210461   4.522   1.130   2.526  2.2601 -0.9101  0.4560
 1542SOL     OW10462   3.921   5.179   8.108 -0.1488 -0.6815  0.3766
 1542SOL    HW110463   3.968   5.217   8.034 -0.8566  0.4597  0.4859
 1542SOL    HW210464   3.898   5.091   8.080 -0.3382 -0.2889 -0.7335
 1543SOL     OW10465   5.508  10.870   6.290  0.0300 -0.1514 -0.0504
 1543SOL    HW110466   5.433  10.811   6.279  1.0552 -1.4191 -0.4481
 1543SOL    HW210467   5.547  10.843   6.374 -0.1329  0.7169  0.3112
 1544SOL     OW10468   0.563   8.729   8.243 -0.4037 -0.4613  0.5148
 1544SOL    HW110469   0.650   8.765   8.262 -0.5123 -0.4960  1.0675
 1544SOL    HW210470   0.543   8.672   8.317 -0.5949 -1.0140  0.0466
 1545SOL     OW10471  10.111   3.511   8.822 -0.3854 -0.2158 -0.2544
 1545SOL    HW110472  10.091   3.603   8.805  0.6392 -0.0573 -0.6503
 1545SOL    HW210473  10.049   3.486   8.891 -0.9579  0.6443 -0.4369
 1546SOL     OW10474   2.098  10.194   1.402  0.4605 -0.6658 -0.0108
 1546SOL    HW110475   2.102  10.168   1.494  1.8108 -0.6934 -0.0558
 1546SOL    HW210476   2.047  10.275   1.402  0.5560 -0.5997  0.7748
 1547SOL     OW10477   8.140   2.293   4.986 -0.1990  0.0271  0.2703
 1547SOL    HW110478   8.067   2.242   5.020 -0.5089 -0.9370 -1.6907
 1547SOL    HW210479   8.165   2.248   4.905  1.9019  0.9271  0.3527
 1548SOL     OW10480   5.536   7.145  11.635 -0.3327 -0.4170 -0.5208
 1548SOL    HW110481   5.601   7.209  11.606 -1.0293  1.2405  1.3742
 1548SOL    HW210482   5.477   7.135  11.560  1.2752 -0.9000 -1.7706
 1549SOL     OW10483   0.354   2.318   3.631  0.3351  0.0791 -0.2004
 1549SOL    HW110484   0.310   2.387   3.580  1.3930 -0.2296 -1.5954
 1549SOL    HW210485   0.413   2.277   3.569  0.0475 -1.8311  0.7239
 1550SOL     OW10486  12.045   0.565   6.273  0.1375  0.2675  0.2475
 1550SOL    HW110487  12.020   0.656   6.253  0.6119  0.2463 -0.4910
 1550SOL    HW210488  12.120   0.573   6.332  1.0089  0.3882 -0.8400
 1551SOL     OW10489  10.383  10.106   4.923  0.0244  0.0952 -0.4762
 1551SOL    HW110490  10.441  10.105   4.847  0.4610  2.6077 -0.2640
 1551SOL    HW210491  10.441  10.097   4.998 -0.0807  0.4860 -0.3451
 1552SOL     OW10492   9.043   1.918   7.046 -0.2345 -0.2979 -0.2560
 1552SOL    HW110493   9.132   1.902   7.078 -0.4686  1.4958  1.4603
 1552SOL    HW210494   9.037   2.013   7.038 -2.2711 -0.3201  0.5195
 1553SOL     OW10495   6.639   0.032   5.371  0.1727 -0.3781 -0.5864
 1553SOL    HW110496   6.601   0.055   5.456 -0.1671 -1.6177 -0.3831
 1553SOL    HW210497   6.568   0.044   5.309  0.7793  1.8235 -0.9433
 1554SOL     OW10498  11.032   0.484   1.729  0.3860  0.2595  0.5180
 1554SOL    HW110499  11.046   0.526   1.643  0.6451  0.1348  0.4972
 1554SOL    HW210500  10.957   0.530   1.766 -0.2351 -0.2179 -0.1176
 1555SOL     OW10501   7.969   1.589   0.915  0.2473  0.5142 -0.1621
 1555SOL    HW110502   7.987   1.652   0.845  0.0078 -1.0669 -1.7021
 1555SOL    HW210503   8.010   1.628   0.992  0.3984  2.3942 -1.1183
 1556SOL     OW10504   5.130   3.263   0.530  0.2345 -0.6378  0.0214
 1556SOL    HW110505   5.064   3.302   0.473  0.9973 -1.6854 -1.6834
 1556SOL    HW210506   5.202   3.326   0.531 -0.7748  0.5927  2.0336
 1557SOL     OW10507   3.713   9.179  11.935 -0.2160  0.3242  0.0559
 1557SOL    HW110508   3.805   9.168  11.911 -0.6011  0.2887 -1.5170
 1557SOL    HW210509   3.700   9.120  12.009  0.5746 -1.1678 -0.9414
 1558SOL     OW10510  11.464   8.298   5.191 -0.4551  0.4117 -0.2319
 1558SOL    HW110511  11.441   8.279   5.282 -0.3149  0.7798 -0.1140
 1558SOL    HW210512  11.558   8.317   5.195 -0.8467  2.6043 -0.0697
 1559SOL     OW10513  11.570   6.280   1.991 -0.6966  0.5071  0.0471
 1559SOL    HW110514  11.576   6.193   2.031  0.5611 -0.1540 -1.5031
 1559SOL    HW210515  11.476   6.293   1.977 -0.9852 -0.1771  1.1323
 1560SOL     OW10516  10.314   6.599  11.781 -0.3381  0.3015 -0.3780
 1560SOL    HW110517  10.386   6.547  11.815 -1.4506 -1.9226 -1.1806
 1560SOL    HW210518  10.342   6.627  11.694 -0.7393 -1.4000 -1.1012
 1561SOL     OW10519   3.855   5.483   3.175 -1.0974 -0.7735  0.5447
 1561SOL    HW110520   3.760   5.483   3.167 -1.1331 -0.6197  0.9633
 1561SOL    HW210521   3.871   5.462   3.267 -0.7414 -0.0885  0.6427
 1562SOL     OW10522   5.313   3.917   1.246  0.0925 -0.1770 -0.8205
 1562SOL    HW110523   5.345   3.982   1.184  0.2332 -0.4663 -1.0543
 1562SOL    HW210524   5.347   3.945   1.331  0.4726 -0.1552 -0.9790
 1563SOL     OW10525   8.464   2.442  10.722  0.5453  0.0483 -0.1073
 1563SOL    HW110526   8.455   2.426  10.628  0.4549 -0.5066 -0.0120
 1563SOL    HW210527   8.478   2.536  10.730  1.7249 -0.0593 -0.7653
 1564SOL     OW10528   8.477   0.710   8.330  0.3438  0.0510  0.2799
 1564SOL    HW110529   8.425   0.643   8.285  1.0387 -1.6172  1.8625
 1564SOL    HW210530   8.567   0.694   8.302  0.4839  0.5390  0.4390
 1565SOL     OW10531   0.761  10.383   8.012  0.0935 -0.0568  0.1283
 1565SOL    HW110532   0.702  10.350   8.079 -3.3903  2.2090 -1.5099
 1565SOL    HW210533   0.796  10.465   8.048 -0.6919  0.4554 -0.2481
 1566SOL     OW10534   3.249   0.285   8.294  0.0286 -0.0264 -0.9008
 1566SOL    HW110535   3.305   0.294   8.217 -0.0689  2.2341 -0.7567
 1566SOL    HW210536   3.302   0.235   8.356  1.2554  0.6423 -1.3721
 1567SOL     OW10537   3.526   8.779   5.352 -0.2182 -0.1700  0.2380
 1567SOL    HW110538   3.571   8.776   5.437  0.2898 -2.4581 -0.0292
 1567SOL    HW210539   3.438   8.809   5.372 -0.2759 -1.2025  1.7135
 1568SOL     OW10540   3.427   7.120  12.034  0.3378  0.2490 -0.0820
 1568SOL    HW110541   3.447   7.048  11.975 -1.8676  0.3205 -1.0048
 1568SOL    HW210542   3.422   7.079  12.121 -2.7354 -1.2058 -0.8060
 1569SOL     OW10543   2.224   8.976   9.878 -0.3858 -0.0512  0.3877
 1569SOL    HW110544   2.150   8.918   9.858  0.0644 -1.0988  1.6015
 1569SOL    HW210545   2.294   8.947   9.819 -0.9740  1.0945 -0.9278
 1570SOL     OW10546   1.255   3.688   5.269 -0.0281 -0.1999  0.2805
 1570SOL    HW110547   1.265   3.622   5.201 -0.6767 -1.6154  1.5145
 1570SOL    HW210548   1.340   3.690   5.314 -0.2551 -0.7975  0.7503
 1571SOL     OW10549   8.275   0.669   2.770 -0.0976  0.8773 -0.1926
 1571SOL    HW110550   8.198   0.717   2.800 -0.7371 -0.1762 -0.1121
 1571SOL    HW210551   8.267   0.667   2.675  0.0801  1.1707 -0.2150
 1572SOL     OW10552   9.388   8.740   0.971  0.3478 -0.0827  0.0162
 1572SOL    HW110553   9.345   8.689   0.902  0.7517 -1.5768  0.8340
 1572SOL    HW210554   9.317   8.763   1.031 -0.3981  2.9326 -1.7735
 1573SOL     OW10555   1.005   8.572   3.429 -0.1857 -0.1102 -0.6637
 1573SOL    HW110556   0.969   8.639   3.488  0.0864 -0.5506  0.0181
 1573SOL    HW210557   1.035   8.621   3.353  1.0982  0.7123  0.3237
 1574SOL     OW10558   0.177   9.306  10.966  0.5112  0.2438 -0.2707
 1574SOL    HW110559   0.184   9.218  11.002 -1.6690 -0.3446 -1.1661
 1574SOL    HW210560   0.105   9.347  11.015 -0.8643  0.2585 -2.2037
 1575SOL     OW10561   5.865   9.671  12.154  0.4971 -0.1974  0.2259
 1575SOL    HW110562   5.923   9.706  12.087 -1.0542  2.0964 -0.0418
 1575SOL    HW210563   5.854   9.579  12.132  1.8664 -0.0309 -1.2691
 1576SOL     OW10564   9.086  11.749  11.112  0.6447  0.2774  0.0996
 1576SOL    HW110565   9.015  11.689  11.088  0.4448  0.3502  0.4935
 1576SOL    HW210566   9.117  11.716  11.196 -1.8827  2.7455  2.2107
 1577SOL     OW10567   4.886  11.029   8.614 -0.1389 -0.0256 -0.2807
 1577SOL    HW110568   4.890  11.051   8.521  3.4135  1.2686  0.0042
 1577SOL    HW210569   4.844  11.104   8.656  0.0822  0.2977 -0.6414
 1578SOL     OW10570   2.539  10.615   9.681  1.0527  0.4030 -0.5920
 1578SOL    HW110571   2.448  10.617   9.711  1.7628  1.1422  1.7225
 1578SOL    HW210572   2.566  10.706   9.678  1.4757  0.2493 -2.1586
 1579SOL     OW10573   6.462  10.837   4.712 -0.2701 -0.4100 -0.3367
 1579SOL    HW110574   6.538  10.893   4.699  0.0230 -0.3437  1.4848
 1579SOL    HW210575   6.478  10.792   4.795 -1.3943 -1.7500 -0.7954
 1580SOL     OW10576   0.625   1.729   4.030 -0.6675 -0.4074 -0.2828
 1580SOL    HW110577   0.623   1.825   4.040 -0.9261 -0.3810 -0.5684
 1580SOL    HW210578   0.673   1.698   4.107 -3.3316 -0.2997  1.5778
 1581SOL     OW10579   8.104  10.484   8.062  0.4959 -0.0148 -0.1868
 1581SOL    HW110580   8.055  10.563   8.084  0.3383  0.0272 -0.6707
 1581SOL    HW210581   8.109  10.435   8.144  0.3631  0.3707  0.0536
 1582SOL     OW10582   0.526  11.133   5.425 -0.6652 -0.1651 -0.4272
 1582SOL    HW110583   0.554  11.173   5.343 -0.1634 -0.1885 -0.2716
 1582SOL    HW210584   0.544  11.039   5.414 -1.4987 -0.3069 -0.6531
 1583SOL     OW10585   1.092   7.643  11.088 -0.4816  0.2916  0.4189
 1583SOL    HW110586   1.089   7.728  11.045 -0.1757  0.5070  0.8158
 1583SOL    HW210587   1.185   7.626  11.102 -0.2498 -1.6394 -2.6165
 1584SOL     OW10588   2.216   0.468   1.279  0.1241 -0.4342 -0.1974
 1584SOL    HW110589   2.138   0.518   1.258 -0.0724 -0.6151  0.1032
 1584SOL    HW210590   2.260   0.456   1.195  0.7111  1.1149 -0.1469
 1585SOL     OW10591   5.874   1.110   8.383 -0.4463 -0.0300  0.1669
 1585SOL    HW110592   5.957   1.117   8.431  0.5495 -2.8814 -0.9479
 1585SOL    HW210593   5.893   1.148   8.297 -0.6626  0.3140  0.2660
 1586SOL     OW10594  12.197   4.360   4.956  0.0641 -0.4532  0.2762
 1586SOL    HW110595  12.246   4.313   4.890 -1.8307 -2.3295  0.1063
 1586SOL    HW210596  12.160   4.292   5.012 -1.5785  0.8843  0.9083
 1587SOL     OW10597   9.356   9.022   4.935  0.4441 -0.1649 -0.3770
 1587SOL    HW110598   9.395   8.986   4.855  0.9303  0.4356 -0.4197
 1587SOL    HW210599   9.263   9.003   4.928  0.8721 -3.1855  0.5098
 1588SOL     OW10600  11.224   5.606   5.504  0.0734  0.3778 -0.4207
 1588SOL    HW110601  11.172   5.542   5.455 -0.9849 -1.5738  2.9059
 1588SOL    HW210602  11.164   5.679   5.521  0.1225  0.5790 -1.0928
 1589SOL     OW10603   3.791   5.743   8.274  0.7264 -0.3934  0.9001
 1589SOL    HW110604   3.710   5.791   8.294  1.1549  0.7939 -0.0869
 1589SOL    HW210605   3.857   5.811   8.260  1.2745 -1.2350 -0.9291
 1590SOL     OW10606   0.999   4.167   9.817 -0.3429  0.5161 -0.3368
 1590SOL    HW110607   0.975   4.255   9.846  1.4131  0.6498  0.8571
 1590SOL    HW210608   1.002   4.174   9.722  1.0484  2.1374 -0.2287
 1591SOL     OW10609   1.900  10.558   3.224 -0.0525 -0.3287 -0.4679
 1591SOL    HW110610   1.820  10.609   3.214 -0.6839 -1.3133 -0.5366
 1591SOL    HW210611   1.934  10.584   3.309 -0.1534  0.4830 -0.6628
 1592SOL     OW10612   1.511   4.847  11.292 -0.7841 -0.7852  0.2965
 1592SOL    HW110613   1.511   4.857  11.197 -0.8099  0.6926  0.4226
 1592SOL    HW210614   1.546   4.759  11.308  0.7624 -0.4566 -1.0345
 1593SOL     OW10615   7.958  11.898   9.097 -0.4326  0.1964  0.0528
 1593SOL    HW110616   8.052  11.895   9.080 -0.2335 -0.9730  1.1390
 1593SOL    HW210617   7.948  11.960   9.170 -0.0187 -2.1868  2.2811
 1594SOL     OW10618   7.118   9.221   5.869 -0.2072  0.3434  0.0373
 1594SOL    HW110619   7.062   9.149   5.898  1.6170 -1.1609  0.0288
 1594SOL    HW210620   7.199   9.179   5.842  0.6439  2.3539 -0.7630
 1595SOL     OW10621   9.372   3.230   0.703 -0.0337  0.7011 -0.2551
 1595SOL    HW110622   9.387   3.290   0.777  2.4109 -1.7991  1.5056
 1595SOL    HW210623   9.282   3.200   0.715 -0.5667  2.3344  0.1039
 1596SOL     OW10624   2.609   9.632  11.239  0.4053  0.2329 -0.5522
 1596SOL    HW110625   2.520   9.668  11.250  0.4605  0.1695  0.0965
 1596SOL    HW210626   2.624   9.579  11.317  2.2536  2.8237  0.9938
 1597SOL     OW10627   3.879   3.067   4.851  0.5321  0.6985 -0.1072
 1597SOL    HW110628   3.886   3.162   4.849 -1.8794  0.9127 -1.0456
 1597SOL    HW210629   3.892   3.040   4.759  0.0657  0.2424 -0.0444
 1598SOL     OW10630   5.913   7.376   2.904  1.2434 -0.3372 -0.4829
 1598SOL    HW110631   5.941   7.467   2.916 -0.3190  0.2413 -0.8451
 1598SOL    HW210632   5.818   7.379   2.915  1.2562 -2.1390  0.6034
 1599SOL     OW10633   8.894   9.801   5.250  0.1305 -0.5563  0.0556
 1599SOL    HW110634   8.891   9.785   5.156  1.1087 -1.3465  0.1350
 1599SOL    HW210635   8.887   9.896   5.259  0.9531 -0.3960 -0.8788
 1600SOL     OW10636   5.351  10.056   9.403 -0.3547 -0.5804 -0.3125
 1600SOL    HW110637   5.389   9.974   9.371  0.3850 -0.3428 -0.0773
 1600SOL    HW210638   5.322  10.036   9.492 -0.4655 -0.6751 -0.3710
 1601SOL     OW10639   2.019   7.085   9.568 -0.1330  0.4291  0.0943
 1601SOL    HW110640   2.026   7.169   9.523  0.6441  0.7705  0.8187
 1601SOL    HW210641   2.017   7.108   9.661 -1.8654 -0.2505  0.2481
 1602SOL     OW10642   6.858   0.008   5.217  0.0788 -0.0234  0.2878
 1602SOL    HW110643   6.772   0.007   5.259  1.1438  0.0795  2.6348
 1602SOL    HW210644   6.882  -0.084   5.209  0.1199 -0.0323  0.4914
 1603SOL     OW10645   6.558   4.459   2.861 -0.6177  0.2987  0.7146
 1603SOL    HW110646   6.508   4.466   2.942 -1.7091  1.4536 -0.0095
 1603SOL    HW210647   6.531   4.536   2.810  2.4074  1.3581  0.5400
 1604SOL     OW10648   3.414   6.709   7.338 -0.2306 -0.2868 -0.2255
 1604SOL    HW110649   3.387   6.637   7.395  0.7672 -0.6764 -0.2369
 1604SOL    HW210650   3.410   6.672   7.250 -1.4954  0.2314 -0.4124
 1605SOL     OW10651   9.304  10.993   3.260  0.1379 -0.0245  0.6174
 1605SOL    HW110652   9.307  11.016   3.353  1.0837  1.1422  0.3315
 1605SOL    HW210653   9.394  11.007   3.230 -0.3781  0.5982 -0.6852
 1606SOL     OW10654   2.517   9.101   0.234  0.2422 -0.2759  0.2698
 1606SOL    HW110655   2.485   9.191   0.235  2.5542  0.5996  1.2116
 1606SOL    HW210656   2.439   9.048   0.253 -2.2158  1.0025 -4.6466
 1607SOL     OW10657   3.858   8.126   6.302 -0.3981  0.3123  0.3866
 1607SOL    HW110658   3.792   8.071   6.344  0.3261 -1.1892 -0.3620
 1607SOL    HW210659   3.892   8.073   6.230  0.1617  1.8514 -0.5540
 1608SOL     OW10660  11.547  11.391   7.181 -0.1168  0.2093 -0.5340
 1608SOL    HW110661  11.478  11.353   7.128  0.4697  0.7776 -1.7430
 1608SOL    HW210662  11.623  11.335   7.164  0.7030  1.7154 -2.1824
 1609SOL     OW10663   4.282   2.813  12.266 -0.6599 -0.1823  0.5310
 1609SOL    HW110664   4.221   2.881  12.235 -2.2795 -0.4410  2.8304
 1609SOL    HW210665   4.363   2.861  12.284 -0.4112  0.3501 -1.6817
 1610SOL     OW10666   7.499  12.291   9.351  0.0236  0.0450  0.6652
 1610SOL    HW110667   7.451  12.336   9.281  0.2870  0.0045  0.4589
 1610SOL    HW210668   7.544  12.361   9.398  0.7428 -0.0315  0.1099
 1611SOL     OW10669   5.775   5.502   7.646 -0.5532 -0.3157 -0.0659
 1611SOL    HW110670   5.761   5.465   7.559 -0.6331  1.9393 -1.0975
 1611SOL    HW210671   5.687   5.527   7.675 -0.3509  0.5593 -0.1587
 1612SOL     OW10672   1.684   2.559   5.738 -0.0840 -0.6000  0.1252
 1612SOL    HW110673   1.637   2.639   5.716  1.1128 -0.5427 -2.4607
 1612SOL    HW210674   1.617   2.490   5.735 -1.1105  0.2043  2.3339
 1613SOL     OW10675   7.120   8.529   9.001  0.1685  0.0916 -0.1360
 1613SOL    HW110676   7.140   8.580   9.080  0.6892  0.3653 -0.4444
 1613SOL    HW210677   7.058   8.583   8.952 -1.1612 -0.6273  0.6759
 1614SOL     OW10678   0.506  10.485   2.289  0.1202  0.0022 -0.4937
 1614SOL    HW110679   0.466  10.500   2.374  1.5257  2.3545 -0.1427
 1614SOL    HW210680   0.433  10.488   2.227 -0.6416  0.7363  0.4141
 1615SOL     OW10681   1.125   8.140   4.532 -0.0327  1.4401 -0.2353
 1615SOL    HW110682   1.105   8.127   4.439  1.4209  2.1526 -0.6792
 1615SOL    HW210683   1.220   8.140   4.536 -0.0126 -1.3610  1.6940
 1616SOL     OW10684   0.593   9.466   6.479 -0.0125 -0.7087 -0.3158
 1616SOL    HW110685   0.528   9.536   6.483 -1.2477 -1.8222 -0.4497
 1616SOL    HW210686   0.658   9.497   6.416 -0.9496 -0.0135 -0.9692
 1617SOL     OW10687   1.963   4.269   7.022 -0.1600 -0.2837  0.2602
 1617SOL    HW110688   2.031   4.203   7.036  0.7770  0.8291  1.1041
 1617SOL    HW210689   1.996   4.322   6.949 -1.4385 -1.3889 -1.1795
 1618SOL     OW10690   2.095  11.828   3.866  0.3088 -0.3781 -0.0192
 1618SOL    HW110691   2.121  11.849   3.955  0.9706 -0.5992 -0.1541
 1618SOL    HW210692   2.152  11.883   3.811  0.0253 -0.3703 -0.3081
 1619SOL     OW10693   9.511   5.247   8.181 -0.1384  0.2898 -0.2098
 1619SOL    HW110694   9.531   5.311   8.249  1.0571 -0.7734  0.4851
 1619SOL    HW210695   9.547   5.284   8.101  2.7027 -0.4828  0.5871
 1620SOL     OW10696   4.340   0.355   9.414 -0.0701  0.4272 -0.1752
 1620SOL    HW110697   4.309   0.317   9.496 -1.3293  0.3644 -0.6543
 1620SOL    HW210698   4.294   0.439   9.407  0.9404  0.9911 -0.2447
 1621SOL     OW10699   0.271   3.146   6.028 -0.0155 -0.2022 -0.0735
 1621SOL    HW110700   0.357   3.182   6.047  0.6063 -1.9510  0.6940
 1621SOL    HW210701   0.284   3.096   5.947  0.1246 -1.6866  0.8188
 1622SOL     OW10702  11.278   9.214   5.544 -0.1949 -0.2302  0.0891
 1622SOL    HW110703  11.199   9.185   5.498 -2.1641  0.3349  2.8378
 1622SOL    HW210704  11.296   9.301   5.507  0.6758 -1.3131 -2.2292
 1623SOL     OW10705   5.898   1.311   5.345 -0.1015  0.3517 -0.6618
 1623SOL    HW110706   5.986   1.318   5.382 -0.5095 -0.1281  0.4482
 1623SOL    HW210707   5.883   1.217   5.336 -1.3047  0.2854  1.2711
 1624SOL     OW10708   1.335   3.368   0.170 -0.0768 -0.4246  0.1732
 1624SOL    HW110709   1.428   3.382   0.155  0.0373 -0.5585  0.7607
 1624SOL    HW210710   1.326   3.360   0.265 -0.9284  1.3243  0.2936
 1625SOL     OW10711   5.735   9.559   4.810 -0.0339  0.1228 -0.3512
 1625SOL    HW110712   5.698   9.473   4.825 -1.4406  0.5486 -1.1585
 1625SOL    HW210713   5.764   9.557   4.719  0.0078  0.4685 -0.3480
 1626SOL     OW10714   6.193   6.057   6.849 -0.4484  0.4926 -0.0465
 1626SOL    HW110715   6.115   6.098   6.886 -1.0243 -0.0696 -0.6174
 1626SOL    HW210716   6.162   6.012   6.771  0.1019 -1.2057  0.6536
 1627SOL     OW10717   5.930   1.251   1.283  0.4961  0.4459 -0.5929
 1627SOL    HW110718   5.999   1.267   1.218  0.0030  2.8032 -0.6063
 1627SOL    HW210719   5.857   1.219   1.231  1.5884 -2.5087 -0.5329
 1628SOL     OW10720   7.226   0.831  11.006  0.1324  0.2046 -0.0404
 1628SOL    HW110721   7.189   0.802  10.923  1.1869 -0.6390 -0.2315
 1628SOL    HW210722   7.192   0.769  11.070  1.4501 -0.7863 -0.2695
 1629SOL     OW10723   1.461   4.021   0.217 -0.6503  0.0198  0.4983
 1629SOL    HW110724   1.501   4.092   0.267 -1.1499  0.1664  0.6884
 1629SOL    HW210725   1.460   3.946   0.277  0.7646 -0.4378 -0.0131
 1630SOL     OW10726  12.093   7.230   6.874  0.4228  0.1212 -0.2703
 1630SOL    HW110727  12.048   7.281   6.941 -0.2529  0.5170 -1.0008
 1630SOL    HW210728  12.115   7.294   6.806 -0.6719 -0.5711 -1.3253
 1631SOL     OW10729   7.454   1.765   4.735  0.0884  0.1412  0.2285
 1631SOL    HW110730   7.415   1.766   4.648 -0.5500  0.4982  0.5132
 1631SOL    HW210731   7.468   1.858   4.756  0.4249  0.0497  0.4288
 1632SOL     OW10732   0.711   3.512  10.701 -0.2065 -0.0179 -0.0669
 1632SOL    HW110733   0.677   3.452  10.636  0.7481  0.2164 -0.8019
 1632SOL    HW210734   0.668   3.595  10.683 -0.5724 -0.1579  0.1451
 1633SOL     OW10735   1.661   5.949   9.758  0.3867 -0.1988  0.2606
 1633SOL    HW110736   1.713   6.026   9.736  0.1996  0.8775  3.1385
 1633SOL    HW210737   1.711   5.875   9.724  1.8699  1.0420 -0.3563
 1634SOL     OW10738   9.436   1.068   3.762  0.1259  0.4203  0.2050
 1634SOL    HW110739   9.424   1.074   3.667  1.8592 -2.1643 -0.2894
 1634SOL    HW210740   9.390   0.987   3.786 -0.1519  0.9661  1.5567
 1635SOL     OW10741   4.140  11.190   2.913  0.2251  0.1866  0.1578
 1635SOL    HW110742   4.049  11.188   2.886  0.4916  0.1657 -0.7783
 1635SOL    HW210743   4.183  11.123   2.859  1.0768  1.2509 -0.5350
 1636SOL     OW10744   7.373   9.672   6.818 -0.3203 -0.1880 -0.1039
 1636SOL    HW110745   7.374   9.624   6.735  0.2199  0.1613 -0.3091
 1636SOL    HW210746   7.282   9.698   6.830 -0.3794 -0.1289 -0.6581
 1637SOL     OW10747   9.801   8.608   8.785 -0.5662  0.0653  0.6024
 1637SOL    HW110748   9.782   8.699   8.808 -0.8065  0.0233  0.5640
 1637SOL    HW210749   9.727   8.559   8.820  0.0988 -0.2493  1.6130
 1638SOL     OW10750  10.170   3.543  10.038  0.2127 -0.0633  0.6593
 1638SOL    HW110751  10.176   3.449  10.055 -0.4271  0.0590  1.6860
 1638SOL    HW210752  10.107   3.551   9.967  0.7667 -0.4444  0.1202
 1639SOL     OW10753   5.153  10.896  10.018  0.0439 -0.6838 -0.2676
 1639SOL    HW110754   5.189  10.809  10.003 -0.5145 -0.5598 -2.7002
 1639SOL    HW210755   5.188  10.949   9.947 -0.1698  0.9366  0.7751
 1640SOL     OW10756   1.656   2.311   2.294  0.1080  0.0518  0.2730
 1640SOL    HW110757   1.584   2.283   2.350  0.0884  0.5704  0.5187
 1640SOL    HW210758   1.696   2.384   2.342 -0.5405  1.1783 -0.8284
 1641SOL     OW10759   1.098   4.966   2.848  0.1859  0.6098 -0.3512
 1641SOL    HW110760   1.144   4.884   2.866  0.2952  0.3398 -1.7919
 1641SOL    HW210761   1.058   4.953   2.762  0.0188  1.9793 -0.4985
 1642SOL     OW10762   5.235   1.425   7.384  0.9067  0.9749 -0.5690
 1642SOL    HW110763   5.274   1.356   7.437  0.0341 -0.0193 -1.1949
 1642SOL    HW210764   5.276   1.416   7.298 -1.5336 -0.9437 -1.6405
 1643SOL     OW10765   0.649  11.541   5.974  0.3107  0.2925 -0.6110
 1643SOL    HW110766   0.607  11.551   5.888  0.6861 -1.5760 -1.0407
 1643SOL    HW210767   0.606  11.606   6.029 -1.3141  0.2064 -1.7209
 1644SOL     OW10768  11.182   3.827  11.571  0.3936  0.3094 -0.2121
 1644SOL    HW110769  11.181   3.731  11.573 -1.8024  0.2882  0.2508
 1644SOL    HW210770  11.274   3.850  11.560  1.1027 -1.8280  0.7714
 1645SOL     OW10771  10.078   8.186   2.029  0.6268 -0.7932 -0.2847
 1645SOL    HW110772  10.086   8.120   2.097  2.1673 -1.8041 -1.4010
 1645SOL    HW210773  10.133   8.258   2.059 -0.7889 -0.0811  0.7667
 1646SOL     OW10774   1.224   5.803   7.946  0.1056 -0.1038 -0.0476
 1646SOL    HW110775   1.318   5.822   7.939  0.5770 -2.4856 -0.8918
 1646SOL    HW210776   1.210   5.727   7.889 -1.7260 -1.7762  2.4362
 1647SOL     OW10777   7.145   3.218  11.552 -0.2858  0.3361  0.2690
 1647SOL    HW110778   7.237   3.245  11.547 -0.0465 -0.3656  0.7125
 1647SOL    HW210779   7.116   3.248  11.638 -0.1019 -0.5200  0.6424
 1648SOL     OW10780  10.478   6.426  11.352 -0.3313  0.2516  0.2210
 1648SOL    HW110781  10.415   6.383  11.410 -1.2798 -0.2225 -1.0931
 1648SOL    HW210782  10.431   6.435  11.269  0.7983  1.3712 -0.3291
 1649SOL     OW10783   1.448   2.623  11.668  0.1447 -0.1854  0.2903
 1649SOL    HW110784   1.372   2.660  11.624 -0.4051 -0.5500  0.9158
 1649SOL    HW210785   1.450   2.532  11.641  2.5335  0.5694 -2.6901
 1650SOL     OW10786   0.045   9.223   2.997 -0.1390 -0.3190  0.0139
 1650SOL    HW110787   0.139   9.210   3.003  0.0128  1.1620  1.5216
 1650SOL    HW210788   0.008   9.169   3.067 -0.3681 -0.4587 -0.2127
 1651SOL     OW10789   0.819   9.205   4.625 -0.4880 -0.6294  0.2138
 1651SOL    HW110790   0.797   9.298   4.622 -0.1128 -0.5633 -1.5495
 1651SOL    HW210791   0.894   9.199   4.683 -1.4473 -0.0594  1.5588
 1652SOL     OW10792   1.386   1.732   8.156  0.3756 -0.5944  0.0551
 1652SOL    HW110793   1.306   1.682   8.174  0.1838 -0.2693  0.1133
 1652SOL    HW210794   1.446   1.668   8.117 -0.2387 -0.6439 -0.8540
 1653SOL     OW10795   5.017   1.963   6.128 -0.2652 -0.0286  0.0350
 1653SOL    HW110796   5.100   1.996   6.165 -0.7746  0.7471  0.5315
 1653SOL    HW210797   5.043   1.888   6.075  0.6404 -0.4745  1.0557
 1654SOL     OW10798   1.947   0.646   0.433 -0.2748 -0.0039 -0.3475
 1654SOL    HW110799   1.986   0.577   0.486 -1.6605 -0.8811 -0.4071
 1654SOL    HW210800   1.910   0.707   0.497 -0.4851 -0.1891 -0.2893
 1655SOL     OW10801  10.611   2.040   4.911  0.2329  0.2776 -0.3574
 1655SOL    HW110802  10.632   1.990   4.832  1.6824 -0.1245  0.2327
 1655SOL    HW210803  10.521   2.017   4.932 -0.6309  1.3685 -2.5828
 1656SOL     OW10804   2.918   5.825   1.469 -0.1842  0.1218  0.4924
 1656SOL    HW110805   2.971   5.888   1.420  0.8151 -1.2911 -0.3270
 1656SOL    HW210806   2.865   5.782   1.401 -0.7577 -0.0101  1.0212
 1657SOL     OW10807   0.873  10.952  11.299 -0.3165  0.5735 -0.3553
 1657SOL    HW110808   0.911  10.912  11.376  0.8216 -1.1621 -1.7359
 1657SOL    HW210809   0.923  10.915  11.226 -1.7308  1.6935 -1.9665
 1658SOL     OW10810  10.450   8.349   6.693  0.0904 -0.6492 -0.2180
 1658SOL    HW110811  10.371   8.398   6.671  1.4973  1.4919 -0.7965
 1658SOL    HW210812  10.518   8.387   6.637  1.7258 -1.8214  0.8873
 1659SOL     OW10813  11.215   1.315  11.404  0.3564 -0.2563  0.2406
 1659SOL    HW110814  11.266   1.270  11.337 -0.1940 -0.8890  0.2342
 1659SOL    HW210815  11.125   1.286  11.389 -0.6010  3.2041 -1.7041
 1660SOL     OW10816  11.517   0.759   8.578 -0.3898  0.3246  0.0773
 1660SOL    HW110817  11.586   0.695   8.594  1.0531  1.7873 -0.0355
 1660SOL    HW210818  11.541   0.835   8.632 -1.8761  0.9030 -0.0244
 1661SOL     OW10819   0.864   0.453   6.717 -0.3872  0.0385 -0.3578
 1661SOL    HW110820   0.859   0.506   6.637 -0.3460 -2.6366 -2.2496
 1661SOL    HW210821   0.880   0.517   6.786 -0.9910  2.5586 -2.3631
 1662SOL     OW10822  11.593   4.099   6.340  0.3099 -0.4886 -0.1697
 1662SOL    HW110823  11.652   4.088   6.265  0.5233  0.5062 -0.1686
 1662SOL    HW210824  11.630   4.043   6.408  0.9185 -0.3419 -0.3704
 1663SOL     OW10825  10.146  10.817   1.583  0.3603  0.0067  0.9026
 1663SOL    HW110826  10.161  10.889   1.522  0.6958 -0.4651  0.4126
 1663SOL    HW210827  10.212  10.829   1.652  1.3957 -0.6466  0.0585
 1664SOL     OW10828   8.609  10.787   3.982 -0.0816 -0.2455 -0.0446
 1664SOL    HW110829   8.617  10.878   3.951 -1.4116 -0.1320 -0.1136
 1664SOL    HW210830   8.514  10.773   3.990  0.1605 -0.8141  2.3979
 1665SOL     OW10831   6.015  11.653   8.985  0.0179 -0.2096  0.3668
 1665SOL    HW110832   6.008  11.563   8.952 -1.9108 -0.0986  0.3746
 1665SOL    HW210833   5.988  11.708   8.911 -0.7452  0.2436  0.9621
 1666SOL     OW10834   3.190   0.038   4.566 -0.4639  0.1514  0.3534
 1666SOL    HW110835   3.152   0.086   4.492  0.3589 -0.0901 -0.2412
 1666SOL    HW210836   3.245  -0.029   4.525 -0.2821 -0.2188  1.1883
 1667SOL     OW10837   6.778   4.772   2.917 -0.1697 -0.2046  0.2610
 1667SOL    HW110838   6.770   4.842   2.852 -2.0736 -0.6075 -0.0021
 1667SOL    HW210839   6.725   4.801   2.991  0.6471 -0.4953  0.9859
 1668SOL     OW10840   4.710   8.182   1.119 -0.5503 -0.2092 -0.1665
 1668SOL    HW110841   4.694   8.218   1.031 -1.1216 -1.9089 -0.7942
 1668SOL    HW210842   4.748   8.096   1.103 -0.2055 -0.3429  1.2752
 1669SOL     OW10843   0.941   3.992   1.216  0.7864 -0.1467  0.1724
 1669SOL    HW110844   1.012   3.933   1.240  1.0295 -1.1986 -2.6957
 1669SOL    HW210845   0.964   4.023   1.128 -1.4731  0.8005 -0.1566
 1670SOL     OW10846   9.782   1.127   0.815  0.1298 -0.2587 -0.5002
 1670SOL    HW110847   9.766   1.118   0.909  0.9740  0.2851 -0.2907
 1670SOL    HW210848   9.698   1.154   0.779 -0.2502 -0.6516  0.0714
 1671SOL     OW10849   4.641   4.592  11.667  0.4091 -0.3723 -1.2285
 1671SOL    HW110850   4.662   4.682  11.691 -0.5332 -0.6194  0.7630
 1671SOL    HW210851   4.720   4.560  11.624  2.2893  0.2641  1.4474
 1672SOL     OW10852   3.669   0.686  10.520 -0.6623  0.3261 -0.3491
 1672SOL    HW110853   3.699   0.665  10.432  1.2831  3.0793 -0.4751
 1672SOL    HW210854   3.578   0.712  10.509 -0.3876  0.8102 -1.5828
 1673SOL     OW10855   9.011   2.853   1.805 -0.2339  0.8079  0.7799
 1673SOL    HW110856   9.106   2.841   1.797 -0.6047 -1.3312 -1.4234
 1673SOL    HW210857   8.980   2.865   1.715 -2.0676  1.4384  1.4489
 1674SOL     OW10858  10.904   8.941   7.772 -0.0307  0.2265 -0.0338
 1674SOL    HW110859  10.903   8.927   7.677  3.6080  2.7861 -0.6533
 1674SOL    HW210860  10.922   8.855   7.809 -0.0901 -0.5693 -1.7669
 1675SOL     OW10861   5.137   6.736   3.487  0.5301  0.1976 -0.5990
 1675SOL    HW110862   5.143   6.660   3.430  2.1338  0.9205 -1.4787
 1675SOL    HW210863   5.093   6.705   3.566  0.5577 -1.4503 -1.2069
 1676SOL     OW10864   3.534   8.048  10.720  0.0521 -0.1454 -0.1473
 1676SOL    HW110865   3.525   8.040  10.815 -0.1607  0.7911 -0.0758
 1676SOL    HW210866   3.445   8.038  10.686  0.1759 -0.8348 -0.2875
 1677SOL     OW10867  12.019   7.827   9.512 -0.0421  0.1808 -0.2859
 1677SOL    HW110868  11.988   7.773   9.585 -2.7244  0.1179 -1.3576
 1677SOL    HW210869  11.975   7.792   9.435  1.2491  1.4315 -1.6756
 1678SOL     OW10870   1.074  10.015   5.835 -0.4218 -0.1001  0.7551
 1678SOL    HW110871   1.129   9.943   5.806 -0.0059  0.0767  1.1041
 1678SOL    HW210872   0.990  10.000   5.792 -0.0002 -0.1781 -0.0542
 1679SOL     OW10873   3.832   3.644   4.895  0.5673 -0.7141  0.2401
 1679SOL    HW110874   3.780   3.657   4.816  0.8768  2.0928  0.3847
 1679SOL    HW210875   3.768   3.639   4.966  0.3646 -1.1707  0.0269
 1680SOL     OW10876   2.992   8.153   2.727 -0.5373 -0.1326 -0.1384
 1680SOL    HW110877   3.070   8.206   2.708 -0.8712 -0.3136 -2.1924
 1680SOL    HW210878   3.018   8.100   2.803  0.7199  1.0566  0.3113
 1681SOL     OW10879   1.007  10.845   8.988 -0.0521  0.1724  0.9430
 1681SOL    HW110880   0.978  10.771   9.041 -2.1671  0.1888 -0.0832
 1681SOL    HW210881   0.951  10.843   8.911  0.5662  2.2207  0.3746
 1682SOL     OW10882   5.642   2.190  10.250 -0.7254  0.4278 -0.2627
 1682SOL    HW110883   5.658   2.096  10.255  3.4100  1.0273  1.8798
 1682SOL    HW210884   5.678   2.216  10.165  1.2569  0.3796  0.4921
 1683SOL     OW10885  11.831   5.666   8.219 -0.3230  0.5103  0.6429
 1683SOL    HW110886  11.769   5.664   8.292 -0.7385 -0.6633  0.2807
 1683SOL    HW210887  11.917   5.667   8.262 -0.5643 -0.0538  1.1598
 1684SOL     OW10888   7.685   5.872   1.895 -0.1635 -0.8660  0.5022
 1684SOL    HW110889   7.716   5.896   1.807  0.2789  2.1573  1.3611
 1684SOL    HW210890   7.726   5.787   1.912  1.2435 -0.6676 -1.5038
 1685SOL     OW10891   0.190   1.033   7.142 -1.0308  0.1704  0.1105
 1685SOL    HW110892   0.095   1.035   7.154 -1.1421 -0.7319 -0.5329
 1685SOL    HW210893   0.204   0.971   7.070  0.0189  0.6131 -0.0910
 1686SOL     OW10894   0.214   8.330   3.321 -0.5205 -0.5872 -0.3654
 1686SOL    HW110895   0.303   8.352   3.292 -1.1495  1.4219 -0.9409
 1686SOL    HW210896   0.215   8.235   3.331  2.1771 -0.5025  1.2830
 1687SOL     OW10897   4.146   8.308   1.153  0.2646  0.2903 -0.2679
 1687SOL    HW110898   4.211   8.284   1.219  0.0822  0.3548 -0.0638
 1687SOL    HW210899   4.176   8.265   1.073 -1.7851 -3.4978  0.7250
 1688SOL     OW10900   8.365   0.374   7.332  0.1305 -0.2684 -0.6074
 1688SOL    HW110901   8.287   0.356   7.280 -1.2493  0.6483  1.0297
 1688SOL    HW210902   8.393   0.288   7.364 -2.3422 -0.3790  1.6060
 1689SOL     OW10903   6.475   8.984  11.413  0.3514 -0.3115 -0.5432
 1689SOL    HW110904   6.523   8.902  11.400  2.7489  0.9651 -0.2907
 1689SOL    HW210905   6.535   9.039  11.463 -1.8983  1.0035  0.9019
 1690SOL     OW10906   5.779   2.063   5.665 -0.1971  0.1625  0.5608
 1690SOL    HW110907   5.762   1.996   5.731  1.3083  0.8175  1.6552
 1690SOL    HW210908   5.769   2.018   5.581 -2.4105 -0.6191  1.1814
 1691SOL     OW10909   2.511   4.078   0.565 -0.2187 -0.0874  0.5688
 1691SOL    HW110910   2.430   4.073   0.513 -1.0595  0.7766  1.7495
 1691SOL    HW210911   2.566   4.141   0.519 -0.6349  0.0855  0.3068
 1692SOL     OW10912   4.792   1.737  11.321  0.1922 -0.2429 -0.0222
 1692SOL    HW110913   4.719   1.741  11.259 -0.0872 -1.8412  0.1625
 1692SOL    HW210914   4.777   1.656  11.371  0.9536  0.4897  1.4612
 1693SOL     OW10915   9.297  11.241   2.648  0.2704  0.3085  0.0110
 1693SOL    HW110916   9.301  11.280   2.736  1.2055  2.2630 -0.8421
 1693SOL    HW210917   9.221  11.283   2.607 -1.5192 -2.1796  0.5053
 1694SOL     OW10918  10.440   4.772   4.987 -0.0416 -0.4223  0.2324
 1694SOL    HW110919  10.517   4.720   5.008 -0.6906 -0.8646  1.6864
 1694SOL    HW210920  10.468   4.863   5.000 -0.1463 -0.6418  2.2570
 1695SOL     OW10921   4.719  11.920   8.972 -0.2130 -0.0092 -0.5648
 1695SOL    HW110922   4.686  11.902   9.060  1.0651  0.0822 -0.0388
 1695SOL    HW210923   4.643  11.952   8.924 -0.6268  1.3517  0.9162
 1696SOL     OW10924   5.484   6.603   1.127 -0.1305  0.4743 -0.0830
 1696SOL    HW110925   5.485   6.515   1.163 -1.1275  0.9459  1.2066
 1696SOL    HW210926   5.567   6.611   1.080  0.1837 -0.9734  0.1759
 1697SOL     OW10927   4.717   8.813   1.294  0.1272 -0.2135  0.2744
 1697SOL    HW110928   4.812   8.822   1.280  0.2438 -0.6255  0.7631
 1697SOL    HW210929   4.680   8.895   1.262  0.7070  0.1875  0.6050
 1698SOL     OW10930   2.652   8.251   4.045  0.4359 -0.2783 -0.1316
 1698SOL    HW110931   2.746   8.235   4.046  0.2432 -1.4978  0.0360
 1698SOL    HW210932   2.628   8.259   4.137  0.2899 -0.5351 -0.1464
 1699SOL     OW10933   7.615  10.977  11.513  0.2332 -0.1771 -0.2199
 1699SOL    HW110934   7.580  11.045  11.569 -0.3024  0.1329 -0.9183
 1699SOL    HW210935   7.695  10.948  11.557 -1.4699 -1.7686  2.0815
 1700SOL     OW10936   7.197   2.331   8.135 -0.1215  0.0371 -0.0279
 1700SOL    HW110937   7.227   2.406   8.187 -1.8807  1.2627 -0.7034
 1700SOL    HW210938   7.176   2.264   8.200  0.2763  0.5684  0.6714
 1701SOL     OW10939   3.978   9.353   1.943  0.2442  0.2711  0.2204
 1701SOL    HW110940   4.038   9.425   1.921 -0.8019  0.6739 -1.4853
 1701SOL    HW210941   3.891   9.385   1.918 -0.7440 -0.3092  2.6163
 1702SOL     OW10942  12.249  11.803   5.430  0.3501  0.5367 -0.6146
 1702SOL    HW110943  12.190  11.736   5.393  0.9332  0.3457 -1.2232
 1702SOL    HW210944  12.326  11.754   5.458  0.2837  0.8072  0.0604
 1703SOL     OW10945   4.002   7.552   2.620 -0.0490 -0.4241 -0.1390
 1703SOL    HW110946   3.938   7.577   2.686 -1.3974 -1.4618 -0.9955
 1703SOL    HW210947   4.086   7.574   2.658 -0.7424 -1.4300  2.1376
 1704SOL     OW10948   9.877  10.861   0.496  0.1095  0.6305 -0.4711
 1704SOL    HW110949   9.792  10.857   0.540 -0.6199  1.4265 -1.7592
 1704SOL    HW210950   9.927  10.925   0.546 -0.2230  0.5390 -0.0124
 1705SOL     OW10951   9.455   9.850   9.510  0.1007 -0.2355  0.0009
 1705SOL    HW110952   9.435   9.941   9.532  0.6034 -0.1266  0.0320
 1705SOL    HW210953   9.451   9.847   9.414  1.5594  0.1943 -0.1029
 1706SOL     OW10954   9.111  11.174   0.367 -0.1866 -0.2418 -0.1622
 1706SOL    HW110955   9.066  11.101   0.324  0.5770  0.0117 -1.4380
 1706SOL    HW210956   9.203  11.161   0.346  0.2228 -0.0492  1.3537
 1707SOL     OW10957  10.040   6.497   2.743 -0.2715  0.3028 -0.2589
 1707SOL    HW110958  10.093   6.482   2.821 -0.1895  1.3296 -0.1046
 1707SOL    HW210959  10.104   6.512   2.673 -0.3290 -1.2043 -0.6768
 1708SOL     OW10960  11.488   0.245   5.278 -0.1096  0.1578 -0.1653
 1708SOL    HW110961  11.393   0.236   5.281 -0.3164 -0.7271 -4.0974
 1708SOL    HW210962  11.508   0.266   5.187  3.4587  1.0132  0.6361
 1709SOL     OW10963  10.555   6.680   9.978 -0.4304  0.3951  0.3087
 1709SOL    HW110964  10.610   6.667  10.055  0.7174 -0.6900 -0.6290
 1709SOL    HW210965  10.599   6.748   9.928 -1.2015  1.1367  0.6240
 1710SOL     OW10966   9.539   0.247   8.649  0.3532  0.6520  0.2130
 1710SOL    HW110967   9.496   0.251   8.564  0.8158  1.2400  0.0007
 1710SOL    HW210968   9.576   0.334   8.662  0.2985  0.5649  1.0114
 1711SOL     OW10969   0.394   2.195   6.916 -0.1893 -0.1631 -0.0706
 1711SOL    HW110970   0.401   2.286   6.946  2.0548  0.0880 -1.1456
 1711SOL    HW210971   0.449   2.146   6.978 -0.4677 -0.6067 -0.1765
 1712SOL     OW10972   3.229   0.479   5.230 -0.1144 -0.1982 -0.5921
 1712SOL    HW110973   3.321   0.476   5.204  0.3317 -0.7407  0.9495
 1712SOL    HW210974   3.191   0.548   5.176  1.5415  1.0546 -0.2482
 1713SOL     OW10975   6.880  12.020   4.846 -0.2409  0.3540  0.3659
 1713SOL    HW110976   6.893  11.932   4.881 -1.4726  0.5144  1.2671
 1713SOL    HW210977   6.798  12.050   4.884 -0.6590  1.2939 -1.1660
 1714SOL     OW10978   7.076   2.315   3.297  0.0245 -0.7025 -0.5400
 1714SOL    HW110979   7.154   2.342   3.249  0.3085  0.6019  0.5961
 1714SOL    HW210980   7.052   2.231   3.258 -0.7141  0.9533 -4.0745
 1715SOL     OW10981   8.598   8.420   2.624 -0.0651 -0.3614 -0.4612
 1715SOL    HW110982   8.617   8.348   2.685 -0.3340 -0.1340 -0.1033
 1715SOL    HW210983   8.601   8.498   2.679  2.7215  0.2231 -1.2650
 1716SOL     OW10984   1.910  10.047   1.251 -0.0425  0.0258 -0.0869
 1716SOL    HW110985   1.983  10.053   1.313 -0.7869  0.7418  0.7472
 1716SOL    HW210986   1.951  10.027   1.167  0.9081 -1.8840  0.7921
 1717SOL     OW10987   3.961   0.571   9.716  0.2363  0.4229 -0.4731
 1717SOL    HW110988   3.881   0.572   9.769  0.1084  2.1240 -0.6510
 1717SOL    HW210989   4.031   0.554   9.779  0.0285  1.8707  0.1960
 1718SOL     OW10990   2.960   1.082   4.722  0.4183  0.3764  0.6521
 1718SOL    HW110991   2.973   0.987   4.724 -0.5400  0.2182  0.0647
 1718SOL    HW210992   2.984   1.108   4.634  0.2969  0.6225  0.6914
 1719SOL     OW10993   1.244   4.695   3.870 -0.4485 -0.1235 -0.3221
 1719SOL    HW110994   1.178   4.676   3.803 -0.5464 -0.2632 -0.1857
 1719SOL    HW210995   1.283   4.778   3.842 -2.0514  1.0046  0.6196
 1720SOL     OW10996   1.392   1.807   1.387 -0.1314  0.1595  0.4484
 1720SOL    HW110997   1.448   1.854   1.448  0.1188  0.7863 -0.2594
 1720SOL    HW210998   1.451   1.779   1.317 -0.7894  1.3756 -0.6263
 1721SOL     OW10999  11.853   6.797   2.697  0.5003 -0.3624 -0.7226
 1721SOL    HW111000  11.763   6.767   2.710 -0.7605  3.2089 -0.1461
 1721SOL    HW211001  11.893   6.793   2.784 -0.0173  0.5749 -0.4301
 1722SOL     OW11002  10.794   5.383   3.056 -0.0096 -0.0581  0.5334
 1722SOL    HW111003  10.852   5.459   3.050 -0.2971  0.2176  1.1424
 1722SOL    HW211004  10.721   5.404   2.999 -0.9110  0.8890  1.9669
 1723SOL     OW11005  10.386   1.226   9.929  0.0304 -0.5101 -0.1099
 1723SOL    HW111006  10.374   1.321   9.935 -0.1495 -0.6125  1.5028
 1723SOL    HW211007  10.431   1.202  10.010  0.8758 -1.6930 -0.8940
 1724SOL     OW11008   5.909   4.387   5.055  0.1339  0.6898  0.7913
 1724SOL    HW111009   5.893   4.320   5.122  0.3738  1.0948  1.2629
 1724SOL    HW211010   5.822   4.405   5.019  0.2415 -0.9748 -0.4429
 1725SOL     OW11011  11.957  11.621   0.377  0.6921 -0.1049 -0.5759
 1725SOL    HW111012  12.012  11.560   0.328  1.7744 -0.1814  0.6594
 1725SOL    HW211013  11.961  11.703   0.327  3.6065  0.4892  0.4400
 1726SOL     OW11014   7.489   0.799   8.211  0.5906  0.4899  0.2768
 1726SOL    HW111015   7.434   0.815   8.288  0.7376  0.9653  0.2853
 1726SOL    HW211016   7.576   0.827   8.239  0.3203  2.4032 -0.6447
 1727SOL     OW11017  11.329   2.602  11.843 -0.1996  0.2148  0.4157
 1727SOL    HW111018  11.414   2.596  11.886 -0.0580  1.6350  0.3994
 1727SOL    HW211019  11.328   2.530  11.780  0.3432 -0.7632  1.4853
 1728SOL     OW11020   0.301   3.503   2.704 -0.2061 -0.4608  0.6407
 1728SOL    HW111021   0.290   3.565   2.777  1.7455  0.9160 -0.1518
 1728SOL    HW211022   0.278   3.554   2.626 -1.7499 -1.7635  0.1835
 1729SOL     OW11023   5.480   1.589  11.720 -0.2751  0.1634  0.1018
 1729SOL    HW111024   5.488   1.530  11.644 -1.5632 -1.0621  0.8700
 1729SOL    HW211025   5.474   1.530  11.795 -1.2291  1.2910  0.9427
 1730SOL     OW11026   7.728  11.465   8.972  0.2754  0.5173  1.0321
 1730SOL    HW111027   7.731  11.561   8.966 -0.3824  0.4951  0.0865
 1730SOL    HW211028   7.806  11.436   8.924 -1.2194  0.5370 -1.6377
 1731SOL     OW11029   5.092  11.008   0.531 -0.5243 -0.5483 -0.1547
 1731SOL    HW111030   5.087  11.052   0.616 -2.1753 -0.2732 -0.3672
 1731SOL    HW211031   5.125  10.921   0.552  0.3797 -0.0583  0.5824
 1732SOL     OW11032   7.698   3.543   7.250  0.4984  0.4363 -0.6537
 1732SOL    HW111033   7.788   3.542   7.220  1.5072 -0.5982  2.1273
 1732SOL    HW211034   7.659   3.463   7.215  1.4447 -0.4031  0.1531
 1733SOL     OW11035   0.080   6.298   1.514  0.3744  0.2699  0.4576
 1733SOL    HW111036   0.029   6.232   1.562  1.4504 -1.6760 -0.9153
 1733SOL    HW211037   0.014   6.347   1.465 -0.3298 -2.0990 -1.1771
 1734SOL     OW11038   8.344   7.391   8.817  0.1316 -0.3782  0.3552
 1734SOL    HW111039   8.272   7.363   8.761  1.3547 -1.9370 -0.5049
 1734SOL    HW211040   8.301   7.413   8.901 -1.2274 -2.4500  0.2791
 1735SOL     OW11041  10.301  10.980   7.735  0.2975 -1.1603 -0.1053
 1735SOL    HW111042  10.293  10.886   7.750 -2.1246 -1.1248 -0.8334
 1735SOL    HW211043  10.241  10.998   7.663  0.0962  1.0671  0.5514
 1736SOL     OW11044  11.030   2.964   5.198 -0.0987 -0.1491 -0.4337
 1736SOL    HW111045  10.981   2.884   5.178 -2.7501  1.7933 -2.3141
 1736SOL    HW211046  11.039   3.009   5.115  1.5344  1.4626  0.5346
 1737SOL     OW11047  10.279   6.453   4.159  0.1211 -0.4930  0.1202
 1737SOL    HW111048  10.350   6.481   4.101  1.3875 -0.7310  1.4991
 1737SOL    HW211049  10.274   6.521   4.226 -1.4505 -0.1272 -0.3431
 1738SOL     OW11050   4.634   9.992  11.420 -0.0219  0.3743 -0.2221
 1738SOL    HW111051   4.566   9.925  11.420  0.1407  0.2091  0.0233
 1738SOL    HW211052   4.663   9.997  11.329 -0.3939  0.4779 -0.3373
 1739SOL     OW11053   0.211   7.303  11.273 -0.0463 -0.3063  0.5265
 1739SOL    HW111054   0.162   7.269  11.198  1.8894 -0.0427 -0.9259
 1739SOL    HW211055   0.146   7.352  11.324 -1.1435  0.7544 -1.7710
 1740SOL     OW11056   0.152   7.090   4.742 -0.2003 -0.3196 -0.1380
 1740SOL    HW111057   0.227   7.035   4.718 -0.6101 -1.1726  0.5170
 1740SOL    HW211058   0.185   7.145   4.813 -0.7019 -2.0268  1.4897
 1741SOL     OW11059   9.674   4.143   7.345 -0.6615  0.0216  0.7068
 1741SOL    HW111060   9.648   4.233   7.327 -1.1571 -0.4010 -0.8926
 1741SOL    HW211061   9.605   4.090   7.305 -0.2490 -1.0702  1.4017
 1742SOL     OW11062  11.394   4.487   3.743 -0.7348  0.3890 -0.2537
 1742SOL    HW111063  11.347   4.420   3.792  0.0627  0.1790  0.2423
 1742SOL    HW211064  11.339   4.565   3.750 -1.5135 -0.1236 -0.5739
 1743SOL     OW11065   7.995  10.014   1.212 -0.0875  0.2348  0.4321
 1743SOL    HW111066   8.025   9.923   1.218 -0.9543 -0.0002  1.4230
 1743SOL    HW211067   8.062  10.058   1.159  1.6885 -0.3902  2.0428
 1744SOL     OW11068   3.608   7.077   5.325 -0.2820  0.0660  0.7451
 1744SOL    HW111069   3.620   6.983   5.341 -0.6273 -0.2151 -0.5465
 1744SOL    HW211070   3.556   7.107   5.400  1.2275 -0.3962  2.0523
 1745SOL     OW11071   1.587   0.489   8.877  0.4114  0.3724  0.0839
 1745SOL    HW111072   1.536   0.424   8.925  0.7091  0.6087  0.7303
 1745SOL    HW211073   1.593   0.564   8.937 -0.3868  1.2158 -0.8379
 1746SOL     OW11074   0.298   2.411   5.431  0.1526 -0.0261  0.4863
 1746SOL    HW111075   0.234   2.465   5.478 -1.0963 -1.3891  0.4359
 1746SOL    HW211076   0.252   2.329   5.416  1.4476 -0.5355 -0.8388
 1747SOL     OW11077   9.789   2.159   1.939 -0.3038  0.1928 -0.0264
 1747SOL    HW111078   9.714   2.177   1.883 -0.7742  0.3538  0.6452
 1747SOL    HW211079   9.789   2.063   1.948  0.3470  0.0781 -1.0661
 1748SOL     OW11080   4.687  10.965   1.852 -0.0016 -0.3935 -0.2754
 1748SOL    HW111081   4.746  10.912   1.798 -0.3335  0.6578 -1.7211
 1748SOL    HW211082   4.715  11.055   1.837 -1.8016  0.1141 -0.8329
 1749SOL     OW11083   6.103   4.375   9.759 -0.8822 -0.0984  0.5167
 1749SOL    HW111084   6.085   4.447   9.820  1.7149  1.2828 -0.1883
 1749SOL    HW211085   6.086   4.413   9.672 -0.2126 -0.5621  0.1769
 1750SOL     OW11086   5.399   1.539   8.272  0.2160  0.0601 -0.4094
 1750SOL    HW111087   5.328   1.603   8.267  1.4021  1.4098 -0.9048
 1750SOL    HW211088   5.385   1.493   8.354 -0.2885  1.4575  0.3106
 1751SOL     OW11089   5.706   3.480  10.631 -0.2145  0.0401 -0.1731
 1751SOL    HW111090   5.777   3.449  10.576  1.6620  1.1931  1.4669
 1751SOL    HW211091   5.631   3.486  10.572  0.4875 -2.9069 -1.5986
 1752SOL     OW11092   3.279   9.877   5.990 -0.3001 -0.4755 -0.2549
 1752SOL    HW111093   3.270   9.827   6.070 -1.4870  0.0015 -0.0766
 1752SOL    HW211094   3.189   9.897   5.963  0.0892 -0.2115 -1.4350
 1753SOL     OW11095  10.646   4.612   6.320  0.0809  0.4187 -0.9742
 1753SOL    HW111096  10.661   4.567   6.403  0.3084  0.9179 -0.7410
 1753SOL    HW211097  10.727   4.600   6.270  0.2476  0.7975 -0.8009
 1754SOL     OW11098  12.067   2.249   0.068 -0.2275  0.0564 -0.2925
 1754SOL    HW111099  12.041   2.280   0.155 -1.1754 -1.1702 -0.1258
 1754SOL    HW211100  12.038   2.319   0.009  0.3488  0.8630  0.3426
 1755SOL     OW11101   9.971   9.275   3.431 -0.2235 -0.2726  0.1744
 1755SOL    HW111102   9.948   9.296   3.522 -1.5308  1.7115 -0.5465
 1755SOL    HW211103   9.887   9.254   3.390  0.1100  0.6120 -0.9960
 1756SOL     OW11104   6.623   5.257  11.419 -0.2969 -0.3970 -0.5412
 1756SOL    HW111105   6.572   5.309  11.481 -1.7184 -1.6677 -0.5858
 1756SOL    HW211106   6.671   5.194  11.473  0.5351  0.1927 -0.5697
 1757SOL     OW11107   1.591   4.991   8.784 -0.2415 -0.4510  0.2832
 1757SOL    HW111108   1.552   4.904   8.777 -2.1259  0.1698  1.9813
 1757SOL    HW211109   1.638   4.990   8.868  0.8030 -0.1955 -0.2756
 1758SOL     OW11110  10.962   4.229   7.377  0.4143  0.1048  0.0953
 1758SOL    HW111111  11.004   4.179   7.307 -0.1851  0.5176 -0.5674
 1758SOL    HW211112  10.905   4.165   7.420  1.5647 -0.4207  0.9033
 1759SOL     OW11113  11.799   8.351  11.628  0.5644  0.0091  0.1135
 1759SOL    HW111114  11.719   8.310  11.595  2.0216 -2.3736 -0.6987
 1759SOL    HW211115  11.778   8.376  11.717 -0.8515 -1.4329  0.2323
 1760SOL     OW11116  11.735   5.669   1.807  0.0010 -0.1245  0.5893
 1760SOL    HW111117  11.705   5.692   1.719  0.1996  0.3841  0.6514
 1760SOL    HW211118  11.817   5.718   1.817  0.6108 -1.1294  0.5954
 1761SOL     OW11119   9.293   1.875   6.605 -0.3929  0.5541 -0.3645
 1761SOL    HW111120   9.366   1.905   6.550 -0.3850  2.3109  0.5454
 1761SOL    HW211121   9.325   1.794   6.645  0.2685  0.2034 -1.5390
 1762SOL     OW11122   6.580   0.665   4.510 -0.3739  0.2609  0.0357
 1762SOL    HW111123   6.545   0.589   4.464  1.1271  0.9010 -2.3508
 1762SOL    HW211124   6.666   0.638   4.540  0.5261  1.2069 -1.5709
 1763SOL     OW11125   8.130   4.164   2.376 -0.0362  0.7837  0.4583
 1763SOL    HW111126   8.217   4.138   2.407 -0.0490  0.4900  0.2524
 1763SOL    HW211127   8.147   4.229   2.309  0.0908 -0.3700 -0.6603
 1764SOL     OW11128   8.956   2.282   9.748 -0.1168 -0.1703  0.2432
 1764SOL    HW111129   8.897   2.325   9.809 -0.7348 -0.3544 -0.2221
 1764SOL    HW211130   8.936   2.189   9.756 -0.0031 -0.2213 -0.0341
 1765SOL     OW11131  10.840   5.922   5.582 -0.1366 -0.2125  0.3152
 1765SOL    HW111132  10.900   5.874   5.639 -0.1765 -0.2271  0.3449
 1765SOL    HW211133  10.757   5.921   5.629  0.1534  0.9257  0.8905
 1766SOL     OW11134  11.972   3.978   9.230  0.5600 -0.1661 -0.0367
 1766SOL    HW111135  12.053   3.931   9.211 -0.7414 -2.6016  0.0820
 1766SOL    HW211136  11.909   3.910   9.251 -1.7586  1.5804 -0.8944
 1767SOL     OW11137   3.917   3.346   8.882 -0.0527 -0.6417 -0.1744
 1767SOL    HW111138   3.855   3.412   8.852 -0.6004 -0.7198  0.7338
 1767SOL    HW211139   3.901   3.270   8.826 -0.8803 -0.7046  0.1234
 1768SOL     OW11140   5.165   8.821   7.292 -0.1342  0.1303  0.2699
 1768SOL    HW111141   5.260   8.829   7.295 -0.0068  0.3205 -2.1774
 1768SOL    HW211142   5.147   8.737   7.334  1.2265 -0.4767 -0.2973
 1769SOL     OW11143   4.786   4.600   8.408 -0.3303 -0.3927 -0.3941
 1769SOL    HW111144   4.778   4.611   8.314  0.9999 -1.0818 -0.6047
 1769SOL    HW211145   4.708   4.551   8.433  0.6621 -2.7708 -1.6207
 1770SOL     OW11146   0.238   7.532   5.864 -0.1422  0.2213 -0.1705
 1770SOL    HW111147   0.243   7.542   5.959  0.0742 -0.8830 -0.0508
 1770SOL    HW211148   0.219   7.620   5.832  1.5001  0.9644  0.7696
 1771SOL     OW11149   3.299   5.461   9.009 -0.1291 -0.6247  0.1382
 1771SOL    HW111150   3.361   5.401   9.049  0.9997 -0.0967 -0.7747
 1771SOL    HW211151   3.338   5.548   9.021 -0.3083 -0.3530 -1.0802
 1772SOL     OW11152   9.415   0.047   8.771  0.6413  0.4690 -0.3846
 1772SOL    HW111153   9.339   0.025   8.716 -0.8081  3.4983  0.1768
 1772SOL    HW211154   9.473   0.096   8.713  2.0343 -1.4614 -0.6897
 1773SOL     OW11155   0.676   3.652   6.001  0.3021  0.1300 -0.2739
 1773SOL    HW111156   0.588   3.629   5.970 -0.8839  2.6161  0.9333
 1773SOL    HW211157   0.731   3.649   5.923 -1.2992  0.4064 -1.4649
 1774SOL     OW11158   1.139   1.088   0.802  0.6446  0.1286 -0.1454
 1774SOL    HW111159   1.074   1.098   0.732 -0.3454  0.5392  0.7993
 1774SOL    HW211160   1.211   1.040   0.761 -0.7290 -1.3910 -0.9504
 1775SOL     OW11161   3.919   8.071   1.799 -0.0345 -0.5353  0.0830
 1775SOL    HW111162   3.893   8.000   1.740  0.4045  0.0346 -0.8035
 1775SOL    HW211163   3.877   8.149   1.763 -0.4444 -0.3145  1.0056
 1776SOL     OW11164   3.663   5.290   4.303 -0.1369  0.3714  0.5231
 1776SOL    HW111165   3.612   5.226   4.253 -1.0115  0.6242  1.0617
 1776SOL    HW211166   3.598   5.334   4.359  0.3388  2.0669 -0.1769
 1777SOL     OW11167  11.671   8.173  10.530 -0.4566  0.4295  0.2369
 1777SOL    HW111168  11.665   8.260  10.491 -0.5367  1.5224  2.5034
 1777SOL    HW211169  11.713   8.187  10.615  1.1918 -2.0252 -0.0536
 1778SOL     OW11170   6.812   6.577  12.171  0.7991 -0.3435  0.1872
 1778SOL    HW111171   6.801   6.482  12.172  1.7751 -0.4692  0.9323
 1778SOL    HW211172   6.756   6.608  12.242  0.0186 -0.2983 -0.4432
 1779SOL     OW11173   7.915   6.078   9.316  0.1140 -0.1062 -0.5332
 1779SOL    HW111174   8.003   6.045   9.302 -0.0176 -0.9040  0.4514
 1779SOL    HW211175   7.925   6.148   9.381  0.1907  0.8019 -1.4898
 1780SOL     OW11176  10.441   4.539   4.575  0.3273 -0.6911  0.2827
 1780SOL    HW111177  10.423   4.445   4.573 -1.6568 -0.3469 -0.2994
 1780SOL    HW211178  10.355   4.580   4.573  1.0798  1.1813 -3.3337
 1781SOL     OW11179   5.078   5.252   3.896  0.2888  0.5772 -0.1491
 1781SOL    HW111180   5.044   5.290   3.977  2.5417  1.1667  0.5942
 1781SOL    HW211181   5.088   5.159   3.914  1.2179  0.7816  0.4371
 1782SOL     OW11182   5.572  11.843   7.249  0.0683 -0.4052 -0.5073
 1782SOL    HW111183   5.587  11.801   7.165 -1.3636 -1.5552 -0.2243
 1782SOL    HW211184   5.640  11.808   7.307  0.4123 -0.4099 -0.9143
 1783SOL     OW11185   3.963  11.814   0.407  0.2784  0.5928  0.3044
 1783SOL    HW111186   3.937  11.816   0.499  0.7200 -0.7185  0.4910
 1783SOL    HW211187   4.023  11.739   0.401  0.7945  1.0761 -0.9120
 1784SOL     OW11188  11.282   4.228   4.287  0.0331 -0.1335  0.4666
 1784SOL    HW111189  11.196   4.217   4.246 -0.8366  2.6583  1.3397
 1784SOL    HW211190  11.322   4.301   4.241  1.4247 -0.5643  0.9290
 1785SOL     OW11191   9.574   2.356   8.991  0.5120  0.1363 -0.5150
 1785SOL    HW111192   9.550   2.447   8.972  1.8657  0.9187  1.1998
 1785SOL    HW211193   9.667   2.351   8.966  0.1131 -1.1927 -1.8387
 1786SOL     OW11194   1.617   0.901   8.204  0.0898  0.0435  0.2050
 1786SOL    HW111195   1.638   0.994   8.213  0.4114 -0.0602  0.5781
 1786SOL    HW211196   1.529   0.893   8.239  0.2769  0.1171  0.7015
 1787SOL     OW11197   3.941  11.525   0.750  0.1281  0.4191  0.4787
 1787SOL    HW111198   4.001  11.458   0.716  0.0835  1.2067 -1.2184
 1787SOL    HW211199   3.972  11.542   0.839  0.7037 -1.1740  0.6171
 1788SOL     OW11200   7.147   7.886   7.053  0.0340  0.3896 -0.1361
 1788SOL    HW111201   7.130   7.911   6.963 -0.2204  0.4501 -0.0722
 1788SOL    HW211202   7.194   7.961   7.091 -0.6780  0.7590  0.0407
 1789SOL     OW11203   1.117   3.440   1.672 -0.1479  0.1301  0.3725
 1789SOL    HW111204   1.139   3.355   1.710 -1.6575 -0.0586  0.9099
 1789SOL    HW211205   1.138   3.431   1.579 -2.8809 -1.8859 -0.1804
 1790SOL     OW11206  11.290   9.337   8.227  0.0963  0.0465  0.0291
 1790SOL    HW111207  11.362   9.327   8.289  0.4205 -0.3610 -0.3994
 1790SOL    HW211208  11.256   9.425   8.242 -0.7698 -0.5331  1.7779
 1791SOL     OW11209  12.090   4.306   6.481 -0.0730  0.5515 -0.1715
 1791SOL    HW111210  12.045   4.318   6.565  0.0723  0.7257 -0.1179
 1791SOL    HW211211  12.179   4.281   6.506  0.0295  0.8149 -0.2717
 1792SOL     OW11212   0.135   8.251   8.398  0.6526  0.1421 -0.3567
 1792SOL    HW111213   0.078   8.311   8.350 -0.2282  1.1889  1.8425
 1792SOL    HW211214   0.123   8.275   8.490  1.6098 -2.3034  0.4874
 1793SOL     OW11215   7.019   8.222   8.180 -0.7984  0.7250  0.1300
 1793SOL    HW111216   7.028   8.268   8.264 -2.8643  1.8410 -0.1981
 1793SOL    HW211217   7.029   8.291   8.115  0.1318 -0.0273 -0.5522
 1794SOL     OW11218   2.093   8.830   3.195  0.2527 -0.5077  0.0119
 1794SOL    HW111219   2.100   8.818   3.100  2.1388 -0.4593  0.1136
 1794SOL    HW211220   2.026   8.768   3.222  0.1354 -0.9717 -1.2635
 1795SOL     OW11221   8.961   3.366   2.574  0.1049  0.5747 -0.0327
 1795SOL    HW111222   8.884   3.310   2.560 -0.0843  1.0143 -0.8848
 1795SOL    HW211223   8.997   3.337   2.657  0.6656 -1.5779 -0.9504
 1796SOL     OW11224  10.778   5.031   7.201 -0.2608 -0.5502 -0.0752
 1796SOL    HW111225  10.855   4.976   7.216 -1.5600 -1.8348  2.6324
 1796SOL    HW211226  10.710   4.970   7.173 -0.8866  0.1954 -0.2189
 1797SOL     OW11227   5.090  11.431   1.033 -0.1510 -0.0759 -0.7153
 1797SOL    HW111228   5.122  11.477   1.110 -1.1883  1.1226 -0.9600
 1797SOL    HW211229   5.128  11.478   0.959 -1.1179  0.3309 -0.9670
 1798SOL     OW11230   9.812  11.133  10.527  0.1429  0.2480 -0.1170
 1798SOL    HW111231   9.750  11.061  10.527 -1.8279  1.8590 -0.8339
 1798SOL    HW211232   9.887  11.100  10.577 -0.4510 -2.4227 -0.8287
 1799SOL     OW11233  10.842   9.711   7.966  0.0911 -0.3711  0.0656
 1799SOL    HW111234  10.874   9.665   7.889 -1.4294  0.9130 -1.4092
 1799SOL    HW211235  10.902   9.785   7.977 -0.6516  0.4120 -0.9617
 1800SOL     OW11236   6.161   8.472   7.230 -0.3333 -1.1786 -0.4548
 1800SOL    HW111237   6.142   8.543   7.168  0.1741 -1.3196 -0.7734
 1800SOL    HW211238   6.250   8.489   7.259 -1.2887  0.2202  2.0094
 1801SOL     OW11239   8.738   8.388   6.884  0.5567 -0.0747  0.3889
 1801SOL    HW111240   8.797   8.437   6.941  1.6686 -1.7695  0.7624
 1801SOL    HW211241   8.666   8.360   6.941  1.9998 -2.3392  1.2105
 1802SOL     OW11242  10.284   9.612   7.319  0.0870  0.3446  0.2129
 1802SOL    HW111243  10.303   9.668   7.395  0.3771 -0.1508  0.5040
 1802SOL    HW211244  10.262   9.674   7.249  0.0612  0.8134  0.6307
 1803SOL     OW11245   9.496  10.585  10.322 -0.4470 -0.0091 -0.6297
 1803SOL    HW111246   9.572  10.641  10.303 -0.1000  0.1423  1.0311
 1803SOL    HW211247   9.439  10.640  10.376  0.1349 -1.3313  1.4849
 1804SOL     OW11248   8.888   7.366   0.261 -0.1424  0.9743 -0.4157
 1804SOL    HW111249   8.907   7.441   0.318 -0.5053  0.8126 -0.0810
 1804SOL    HW211250   8.950   7.375   0.189  1.6461  0.1370  0.9323
 1805SOL     OW11251   8.553  11.916  10.041 -0.0472  0.2531 -0.2623
 1805SOL    HW111252   8.601  11.864  10.106  1.9736  0.0068 -1.8488
 1805SOL    HW211253   8.534  11.999  10.085 -3.4839 -1.6639  2.3989
 1806SOL     OW11254   0.253  11.722   8.451  0.3908 -0.4059 -0.1382
 1806SOL    HW111255   0.221  11.643   8.495 -0.9391  0.1160 -0.1231
 1806SOL    HW211256   0.348  11.718   8.461  0.2831 -1.5470  0.6431
 1807SOL     OW11257   0.661  10.121  10.920 -0.4873 -0.7009 -0.5642
 1807SOL    HW111258   0.734  10.068  10.953 -0.9983 -0.6723  0.6776
 1807SOL    HW211259   0.611  10.062  10.864 -1.4939 -1.8276  1.4210
 1808SOL     OW11260   2.905  11.123   9.371 -0.1449 -0.3144 -0.1461
 1808SOL    HW111261   2.880  11.168   9.452  0.6048  0.6762 -0.4443
 1808SOL    HW211262   2.831  11.138   9.312  0.4131  1.2212 -0.4953
 1809SOL     OW11263   3.971   2.621   8.088  0.0963 -0.1914  0.1619
 1809SOL    HW111264   3.898   2.612   8.027 -0.4937 -0.1437  0.8440
 1809SOL    HW211265   4.050   2.616   8.034 -0.4255  2.3706 -0.9897
 1810SOL     OW11266   8.737   7.687   9.793  0.0771 -0.2163 -0.2330
 1810SOL    HW111267   8.647   7.665   9.816  0.0170 -0.9706 -1.1010
 1810SOL    HW211268   8.729   7.741   9.714  0.3761 -0.0790 -0.1704
 1811SOL     OW11269   6.494  11.002   4.160 -0.3414  0.1135 -0.1568
 1811SOL    HW111270   6.506  11.067   4.091  2.1922  0.1057  0.1926
 1811SOL    HW211271   6.562  10.937   4.145  0.0006 -0.1316  2.0546
 1812SOL     OW11272   8.907   3.811   5.069  0.2409 -0.0095 -0.2526
 1812SOL    HW111273   8.977   3.874   5.085 -0.5829  0.7491  0.4416
 1812SOL    HW211274   8.829   3.864   5.051 -0.7382 -0.7830  1.4516
 1813SOL     OW11275   8.004   7.345   7.190  0.1162 -0.1980 -0.2317
 1813SOL    HW111276   7.986   7.264   7.141  0.6417 -0.2662 -0.3180
 1813SOL    HW211277   8.018   7.411   7.123 -2.4146  0.4767 -0.1843
 1814SOL     OW11278   8.902   6.375   1.993 -0.7065  0.4337 -0.6100
 1814SOL    HW111279   8.966   6.439   1.963 -0.3427  0.1341 -0.4936
 1814SOL    HW211280   8.849   6.355   1.916  0.0738 -0.1657 -1.0028
 1815SOL     OW11281  12.243   4.257   9.275 -0.0900  0.8761 -0.3051
 1815SOL    HW111282  12.198   4.174   9.260 -0.1455  0.4856  1.6602
 1815SOL    HW211283  12.206   4.290   9.357  2.7683  0.7782  1.1576
 1816SOL     OW11284   7.055  11.721   8.181 -0.2138 -0.4355  0.3533
 1816SOL    HW111285   6.969  11.745   8.148  0.6152  0.1167 -1.4944
 1816SOL    HW211286   7.081  11.795   8.236 -1.2824 -1.0419  1.7632
 1817SOL     OW11287  11.871   0.584   2.431 -0.4596  0.2972 -0.0695
 1817SOL    HW111288  11.827   0.505   2.398  0.4603  0.5840 -2.1399
 1817SOL    HW211289  11.956   0.552   2.462  0.7810  0.6149 -2.7934
 1818SOL     OW11290  11.889   7.384   2.706 -0.1121  0.5912 -0.1774
 1818SOL    HW111291  11.841   7.316   2.755  1.2159 -0.9784 -0.9450
 1818SOL    HW211292  11.967   7.401   2.759  0.5451  0.0279 -0.9301
 1819SOL     OW11293  10.638   3.543   5.266  0.3247  0.6878 -0.4073
 1819SOL    HW111294  10.585   3.525   5.188  0.3478  0.8445 -0.4612
 1819SOL    HW211295  10.646   3.459   5.310 -0.5237  0.7781 -0.0478
 1820SOL     OW11296   5.914   9.325   9.282  0.3991  0.2274 -0.3910
 1820SOL    HW111297   5.832   9.339   9.236 -0.2800 -1.4120  0.2607
 1820SOL    HW211298   5.965   9.269   9.224  0.3091 -0.2770  0.0164
 1821SOL     OW11299   0.789   1.003   4.181  0.4093  0.3618  0.4186
 1821SOL    HW111300   0.785   0.912   4.149  4.2349  0.5230 -1.0588
 1821SOL    HW211301   0.787   0.995   4.276  0.9279 -1.3315  0.3257
 1822SOL     OW11302   6.926   5.309   5.562 -0.4236 -0.1338 -0.0337
 1822SOL    HW111303   6.913   5.296   5.656 -3.1081 -0.4197 -0.3712
 1822SOL    HW211304   6.989   5.380   5.556 -2.4247  1.9724  2.0705
 1823SOL     OW11305   4.734   9.160   1.818 -0.1548  0.7404  0.1433
 1823SOL    HW111306   4.767   9.090   1.874 -1.0134 -0.6677 -1.0588
 1823SOL    HW211307   4.659   9.196   1.867 -1.0060 -0.5909 -0.1164
 1824SOL     OW11308   8.560   3.326  11.306 -0.0895  0.2629 -0.0255
 1824SOL    HW111309   8.524   3.408  11.274 -1.5578  0.1470  1.1857
 1824SOL    HW211310   8.654   3.332  11.290 -0.5640  0.6133 -3.2920
 1825SOL     OW11311   4.348   7.959   2.697  0.3671 -0.2754 -0.9382
 1825SOL    HW111312   4.336   8.002   2.612  1.7276  0.2767 -0.8688
 1825SOL    HW211313   4.400   8.021   2.748 -1.4472 -0.0451  0.7610
 1826SOL     OW11314   4.127  11.006   3.572 -0.3647  0.0207 -0.3634
 1826SOL    HW111315   4.069  11.041   3.505  1.2843  0.9025 -1.4016
 1826SOL    HW211316   4.156  11.083   3.621 -1.8170 -0.6341  1.6711
 1827SOL     OW11317   6.094   6.054   9.066 -0.1332 -0.2676 -0.6533
 1827SOL    HW111318   6.094   5.978   9.007  0.5056  0.0232 -1.0318
 1827SOL    HW211319   6.072   6.128   9.010  0.7630  0.0546 -0.5900
 1828SOL     OW11320   4.141  10.098   7.547 -0.9456  0.1042  0.2765
 1828SOL    HW111321   4.179  10.011   7.534  0.6527  0.9361 -1.0162
 1828SOL    HW211322   4.138  10.136   7.460 -4.3195  0.3554  0.3973
 1829SOL     OW11323  11.829   0.274   1.328 -0.0744  0.6224  0.1545
 1829SOL    HW111324  11.762   0.340   1.347 -0.6934 -0.2767  1.2098
 1829SOL    HW211325  11.797   0.195   1.371  0.7714 -0.3094 -0.8758
 1830SOL     OW11326   4.410   5.971   4.255  0.4076  0.4999 -0.4004
 1830SOL    HW111327   4.369   5.901   4.306 -0.7631  0.9409 -0.7137
 1830SOL    HW211328   4.476   5.925   4.201  0.1668 -0.2543 -0.0639
 1831SOL     OW11329   7.380   3.664   2.009 -0.1307 -0.4363  0.2697
 1831SOL    HW111330   7.412   3.747   1.975  0.6408 -0.3871  1.0848
 1831SOL    HW211331   7.298   3.648   1.961  0.7560 -0.2393 -1.3540
 1832SOL     OW11332   9.239  10.053   2.825 -0.3706  0.3205 -0.6419
 1832SOL    HW111333   9.184  10.129   2.844  0.4733  0.8224 -0.1829
 1832SOL    HW211334   9.260  10.062   2.732  1.5753  1.9253 -0.1231
 1833SOL     OW11335   3.667  11.286  10.968  0.1748  0.0489  0.1553
 1833SOL    HW111336   3.593  11.229  10.945  1.2786 -1.0671 -0.7929
 1833SOL    HW211337   3.744  11.238  10.938  1.1695  2.0432 -0.6503
 1834SOL     OW11338   2.408   6.718   9.001 -0.5750 -0.3173  0.0087
 1834SOL    HW111339   2.460   6.676   8.932  0.0085 -0.4498  0.5276
 1834SOL    HW211340   2.401   6.809   8.972  1.2837  0.0858  0.6864
 1835SOL     OW11341   4.343   8.006   9.866 -0.0684  0.1905  0.7693
 1835SOL    HW111342   4.314   7.929   9.816 -0.7654  0.6881  0.3999
 1835SOL    HW211343   4.283   8.011   9.940  0.2884  0.0938  1.0702
 1836SOL     OW11344   5.658   4.414   6.368  0.1120  0.1970 -0.7961
 1836SOL    HW111345   5.730   4.387   6.424  0.2247  0.7252 -0.6844
 1836SOL    HW211346   5.694   4.484   6.314 -0.3349  0.5229 -0.6794
 1837SOL     OW11347   1.658  10.023  11.131  0.1160 -0.4397  0.3471
 1837SOL    HW111348   1.616  10.089  11.076 -1.3046 -0.3707  1.4659
 1837SOL    HW211349   1.664   9.945  11.076 -0.6274 -0.1670 -0.1234
 1838SOL     OW11350  11.025   7.801   7.652  0.2275 -0.0616 -0.6157
 1838SOL    HW111351  10.945   7.800   7.599  0.4442  0.6566 -0.9664
 1838SOL    HW211352  11.096   7.798   7.588  0.5345 -2.7703 -0.2761
 1839SOL     OW11353  10.882   1.953  11.789 -0.0865 -0.1878 -0.0874
 1839SOL    HW111354  10.843   1.888  11.730  0.8423 -0.2511 -0.6570
 1839SOL    HW211355  10.909   2.024  11.731  0.2292  0.0532  0.3551
 1840SOL     OW11356   2.317  11.745   0.051 -0.0725 -0.3030  0.0516
 1840SOL    HW111357   2.346  11.830   0.019  1.0807  0.4064  2.6652
 1840SOL    HW211358   2.221  11.747   0.042 -0.0869  1.3803  0.2628
 1841SOL     OW11359   3.909   4.659   6.558 -0.3590  0.4378 -0.2023
 1841SOL    HW111360   3.878   4.709   6.483  0.7285 -0.6145 -1.4007
 1841SOL    HW211361   3.955   4.723   6.613  0.3703  0.9056 -1.3259
 1842SOL     OW11362   1.230   8.511   8.951 -0.4469 -0.0076 -0.1685
 1842SOL    HW111363   1.173   8.466   9.012  0.2749 -0.7517 -0.0232
 1842SOL    HW211364   1.318   8.484   8.976 -0.0901  0.3591 -0.9898
 1843SOL     OW11365   3.782   2.369   4.689 -0.2170 -0.0479 -0.2393
 1843SOL    HW111366   3.813   2.350   4.601  0.6386  1.2391 -0.2372
 1843SOL    HW211367   3.704   2.422   4.677 -0.1132  0.1083 -0.2331
 1844SOL     OW11368   1.421  10.266   0.982 -0.6736 -0.3099  0.0544
 1844SOL    HW111369   1.345  10.317   0.953 -0.0590  1.0807  0.7649
 1844SOL    HW211370   1.443  10.303   1.067 -0.8236 -2.5151  1.1307
 1845SOL     OW11371   4.401   8.960   0.748  0.0792 -0.5806 -0.0978
 1845SOL    HW111372   4.429   8.909   0.672  0.0339 -1.7930  0.6732
 1845SOL    HW211373   4.328   9.013   0.715  0.5664 -0.4950 -1.0815
 1846SOL     OW11374   7.797  12.129   1.886  0.3057 -0.1314 -0.0071
 1846SOL    HW111375   7.824  12.045   1.851  0.6672  0.0191 -0.0928
 1846SOL    HW211376   7.704  12.136   1.862  0.7019  0.2838 -1.5992
 1847SOL     OW11377  10.679   9.886   3.395 -0.1504  0.1292  0.3288
 1847SOL    HW111378  10.767   9.902   3.360 -0.1771 -1.7230 -0.6812
 1847SOL    HW211379  10.620   9.927   3.331 -0.1021 -1.0195 -0.4715
 1848SOL     OW11380   5.179   5.573   2.668 -0.2592 -0.3475  0.3279
 1848SOL    HW111381   5.156   5.502   2.607  0.5293  0.6409 -1.1798
 1848SOL    HW211382   5.266   5.549   2.701  0.1081  0.0016 -0.3583
 1849SOL     OW11383  10.222   3.573   6.744 -0.8370 -0.0310 -0.3301
 1849SOL    HW111384  10.188   3.649   6.791  1.2397 -0.1185  1.4253
 1849SOL    HW211385  10.230   3.603   6.653  0.7566  2.2030  0.4672
 1850SOL     OW11386   6.543   0.680   6.194  0.3881 -0.3704  0.0828
 1850SOL    HW111387   6.633   0.660   6.219  0.9761 -0.1161 -1.7030
 1850SOL    HW211388   6.490   0.625   6.252  1.7279 -1.4200  0.3776
 1851SOL     OW11389   7.218   4.561   6.753  0.3584 -0.1617  0.1122
 1851SOL    HW111390   7.155   4.526   6.817  1.5960 -1.8126  0.4802
 1851SOL    HW211391   7.242   4.486   6.699  0.2173  0.9601 -1.6044
 1852SOL     OW11392   5.702   5.119   2.571  0.2074 -0.5049 -0.2769
 1852SOL    HW111393   5.790   5.084   2.560 -0.2169 -1.1336 -2.0059
 1852SOL    HW211394   5.713   5.214   2.563  0.6553 -0.6173 -1.0890
 1853SOL     OW11395  10.710   2.421   8.532 -0.2296  0.1247  0.2236
 1853SOL    HW111396  10.666   2.342   8.562 -2.1750  0.2777 -1.9725
 1853SOL    HW211397  10.778   2.391   8.473  1.6955 -0.0112  2.3407
 1854SOL     OW11398   0.401   9.621   8.561  0.1324 -0.4551  0.4754
 1854SOL    HW111399   0.345   9.650   8.489  0.6606  0.7454  0.5374
 1854SOL    HW211400   0.339   9.603   8.632 -0.4510 -2.1930 -0.3958
 1855SOL     OW11401   6.886   1.365   0.190  0.3908  0.6109  0.0407
 1855SOL    HW111402   6.913   1.316   0.112 -1.7436  0.6644 -0.7998
 1855SOL    HW211403   6.883   1.299   0.260 -0.0410  0.0452 -0.5023
 1856SOL     OW11404   2.171   6.300   6.205  0.3118 -0.0749 -0.7120
 1856SOL    HW111405   2.139   6.215   6.233 -0.9465  0.4691 -0.4419
 1856SOL    HW211406   2.202   6.342   6.286 -1.6921  0.8024 -0.3358
 1857SOL     OW11407   2.776   2.408   5.004 -0.4177 -0.6970  0.5041
 1857SOL    HW111408   2.854   2.387   5.055 -1.3112 -3.0364  1.0444
 1857SOL    HW211409   2.773   2.503   5.002  0.8144 -0.5311  3.0059
 1858SOL     OW11410   9.567   1.265   1.594  0.2517 -0.3183 -0.8100
 1858SOL    HW111411   9.631   1.279   1.664 -0.9905 -1.6274  0.6691
 1858SOL    HW211412   9.494   1.323   1.617  1.0508  1.6116 -2.8034
 1859SOL     OW11413  12.155  11.955   4.331 -0.2656  0.0068 -0.5409
 1859SOL    HW111414  12.093  11.978   4.399  0.1018 -0.6263  0.0217
 1859SOL    HW211415  12.105  11.900   4.270 -0.8287  1.2821 -1.2695
 1860SOL     OW11416   5.462   0.281   0.135  0.5034 -0.7040 -0.2316
 1860SOL    HW111417   5.395   0.265   0.068  1.4344 -0.6575 -1.1910
 1860SOL    HW211418   5.432   0.231   0.211 -1.8436  1.1371  0.1740
 1861SOL     OW11419   8.557   0.045   4.480  0.8011  0.9419 -0.0359
 1861SOL    HW111420   8.482  -0.014   4.474  1.0620  0.7229 -1.2354
 1861SOL    HW211421   8.610   0.026   4.404  1.1656  2.3523 -0.1747
 1862SOL     OW11422  10.328   5.428   5.415 -0.5917 -0.3011  0.0176
 1862SOL    HW111423  10.348   5.515   5.380  1.8287 -1.4235 -1.6602
 1862SOL    HW211424  10.269   5.389   5.351  1.3084 -1.1988 -1.2515
 1863SOL     OW11425   8.680   4.963   2.983 -0.5394  0.1274  0.4869
 1863SOL    HW111426   8.613   4.896   3.001 -2.5657  1.7102 -0.7108
 1863SOL    HW211427   8.639   5.045   3.007  0.3826  1.3187 -1.6674
 1864SOL     OW11428   1.857   5.144   5.035 -0.5012  0.2234 -0.4963
 1864SOL    HW111429   1.813   5.063   5.010 -1.9693  0.3148  1.5359
 1864SOL    HW211430   1.917   5.119   5.104 -1.2426  0.8879  0.4193
 1865SOL     OW11431   7.771   1.866   2.976  0.4473 -0.3441 -0.3987
 1865SOL    HW111432   7.838   1.908   3.030 -1.0008 -0.8562  1.9116
 1865SOL    HW211433   7.711   1.937   2.953 -0.0446 -0.4707  0.4504
 1866SOL     OW11434   2.186  10.378   7.391 -0.0118  0.7938  0.5229
 1866SOL    HW111435   2.279  10.359   7.381 -0.4231 -0.5345 -1.1685
 1866SOL    HW211436   2.169  10.446   7.326 -0.6225 -0.5141 -0.7368
 1867SOL     OW11437   0.749   0.796   8.347 -0.0768 -0.3390  0.0082
 1867SOL    HW111438   0.676   0.784   8.287 -1.1759 -1.1860  1.4490
 1867SOL    HW211439   0.743   0.888   8.373 -1.0284 -0.5470  0.5782
 1868SOL     OW11440  11.490   9.284   9.538  0.2737 -0.3241 -0.0827
 1868SOL    HW111441  11.568   9.325   9.502 -1.1819  1.3912 -1.4780
 1868SOL    HW211442  11.463   9.342   9.610 -0.2095 -0.3835 -0.2101
 1869SOL     OW11443   9.816   5.347   8.198  0.0803  0.2686  0.6275
 1869SOL    HW111444   9.821   5.438   8.168  1.1623  0.4675  1.3618
 1869SOL    HW211445   9.749   5.346   8.265  1.3551  0.9520  1.9701
 1870SOL     OW11446  10.732   2.133  12.209 -0.2217 -0.3728 -0.0821
 1870SOL    HW111447  10.736   2.041  12.183  1.1581 -0.4835  0.4248
 1870SOL    HW211448  10.786   2.179  12.146 -0.5296  0.0281 -0.0612
 1871SOL     OW11449   8.132   8.768   9.262  0.0093  0.0492  0.3923
 1871SOL    HW111450   8.201   8.783   9.198 -0.9752 -0.9070 -0.9764
 1871SOL    HW211451   8.057   8.817   9.228 -0.5553 -0.5436  0.7642
 1872SOL     OW11452   9.117  10.327  11.691 -0.3510  0.5076  0.8382
 1872SOL    HW111453   9.049  10.391  11.668 -0.1255  0.5387  0.2392
 1872SOL    HW211454   9.167  10.315  11.610  1.0758  1.3428  1.5397
 1873SOL     OW11455   7.897   9.241   7.462 -0.0977 -0.1403 -0.0941
 1873SOL    HW111456   7.947   9.221   7.382 -0.1510 -1.5012  0.1898
 1873SOL    HW211457   7.881   9.335   7.457  0.3839 -0.1050 -1.4109
 1874SOL     OW11458   0.632   6.431   1.989 -0.6148 -0.3097 -0.3167
 1874SOL    HW111459   0.653   6.345   2.023 -0.5011  0.5129  1.8382
 1874SOL    HW211460   0.704   6.451   1.928  0.2108 -1.0703  0.3857
 1875SOL     OW11461   5.004   9.417   1.883 -0.3688 -0.0112  0.0526
 1875SOL    HW111462   4.934   9.412   1.949  0.3504 -1.1006  0.7624
 1875SOL    HW211463   5.030   9.326   1.869 -0.7176  0.1660 -2.0100
 1876SOL     OW11464   9.202   3.612   4.821 -0.4091  0.6344  0.2948
 1876SOL    HW111465   9.110   3.624   4.796  0.0530  1.2665 -1.2357
 1876SOL    HW211466   9.248   3.596   4.738  0.7145 -0.7657  1.1474
 1877SOL     OW11467   9.467  11.610   0.731 -0.9706  0.4411  0.3694
 1877SOL    HW111468   9.546  11.632   0.683 -0.8304 -0.8315 -0.0321
 1877SOL    HW211469   9.407  11.575   0.665 -0.8540 -1.1198  1.0342
 1878SOL     OW11470   6.305   4.669   2.234 -0.3547  0.3098 -0.5543
 1878SOL    HW111471   6.232   4.685   2.294 -0.7778 -1.4277 -0.5561
 1878SOL    HW211472   6.274   4.705   2.150 -0.7534  0.5681 -0.3047
 1879SOL     OW11473   0.147   8.823   5.434  0.4288  0.6970 -0.2303
 1879SOL    HW111474   0.176   8.913   5.424  0.4394  1.0135  2.1800
 1879SOL    HW211475   0.059   8.822   5.397  0.2970  1.7726  0.0395
 1880SOL     OW11476   5.813   3.089   4.025  0.1115 -0.0643  0.6338
 1880SOL    HW111477   5.882   3.061   3.966 -0.3255 -0.3705  0.2551
 1880SOL    HW211478   5.733   3.087   3.971 -0.5386 -1.7517  1.5838
 1881SOL     OW11479   8.919   6.413   5.237  0.4997  0.0507  0.3406
 1881SOL    HW111480   8.990   6.476   5.246  0.7299  0.3142 -2.4139
 1881SOL    HW211481   8.957   6.342   5.186 -0.5900 -0.9310  0.8613
 1882SOL     OW11482  11.990   4.717   8.958 -0.4143  0.2658 -0.1611
 1882SOL    HW111483  11.978   4.805   8.994  0.4491  0.4517 -0.3197
 1882SOL    HW211484  12.083   4.712   8.937 -0.1287 -1.2097  1.2629
 1883SOL     OW11485   1.419   6.466   2.031 -0.3554 -0.1022 -0.2422
 1883SOL    HW111486   1.450   6.383   2.068  0.7487 -0.5185 -2.0041
 1883SOL    HW211487   1.413   6.450   1.937 -2.5223  1.0947 -0.3753
 1884SOL     OW11488   9.456   2.527   1.754  0.1815 -0.0242 -0.5532
 1884SOL    HW111489   9.523   2.503   1.818  0.3991  1.2551 -0.2681
 1884SOL    HW211490   9.373   2.499   1.793  0.4962 -1.2160 -0.7089
 1885SOL     OW11491   2.935   5.124  11.068 -0.0841 -0.5081 -0.3047
 1885SOL    HW111492   2.853   5.135  11.021  0.3145  0.8154 -0.7310
 1885SOL    HW211493   3.002   5.126  11.001  0.4505  0.8093  0.2346
 1886SOL     OW11494   0.580  11.429   5.500 -0.2754  0.5019 -0.1828
 1886SOL    HW111495   0.660  11.429   5.446 -0.0473  1.0934  0.1390
 1886SOL    HW211496   0.560  11.337   5.514  0.6372  0.3448  0.1435
 1887SOL     OW11497   3.041   6.751  10.328  0.1605  0.3474  0.3702
 1887SOL    HW111498   3.032   6.761  10.423 -0.7271 -0.5825  0.4017
 1887SOL    HW211499   3.038   6.656  10.314 -2.6582  0.5169 -0.8514
 1888SOL     OW11500   6.135  11.736  10.265  0.6203  1.0480  0.1104
 1888SOL    HW111501   6.143  11.686  10.347 -0.1434  1.3868  0.3966
 1888SOL    HW211502   6.215  11.715  10.217 -0.8684 -2.7787 -1.0873
 1889SOL     OW11503   1.697   1.457   5.681  0.4114 -0.2093 -0.0637
 1889SOL    HW111504   1.712   1.380   5.627 -1.6342 -1.6074  1.2047
 1889SOL    HW211505   1.671   1.422   5.766 -1.4709  1.8636  0.3060
 1890SOL     OW11506   9.512  11.089   1.119 -0.0236 -0.1069  0.2567
 1890SOL    HW111507   9.590  11.099   1.174 -0.5718 -1.7605  1.4374
 1890SOL    HW211508   9.522  11.002   1.079 -1.2244 -0.3239  0.3983
 1891SOL     OW11509   0.116   4.755   9.548 -0.1209  0.0862  0.0263
 1891SOL    HW111510   0.045   4.805   9.588 -1.0566 -0.4790 -0.8713
 1891SOL    HW211511   0.116   4.783   9.456  2.7777  2.2721  0.5553
 1892SOL     OW11512   6.867   3.711   8.476  0.5907 -0.1769 -0.2009
 1892SOL    HW111513   6.882   3.669   8.561 -0.2608 -2.3156 -1.0690
 1892SOL    HW211514   6.783   3.755   8.486  0.1258 -1.0588 -0.1605
 1893SOL     OW11515   3.313   2.388   1.598 -0.8109 -0.2024 -0.1295
 1893SOL    HW111516   3.218   2.396   1.595 -1.0489 -1.9315  1.2921
 1893SOL    HW211517   3.343   2.470   1.637 -1.7481  0.2058 -0.2473
 1894SOL     OW11518   5.985  10.705   9.455 -0.0669 -0.6167  0.5656
 1894SOL    HW111519   6.067  10.702   9.505  0.4659 -1.2169 -0.3159
 1894SOL    HW211520   5.948  10.790   9.476  0.4338 -0.6196  1.5287
 1895SOL     OW11521   9.047  10.815   7.333  0.7950  0.2804 -0.6115
 1895SOL    HW111522   9.122  10.859   7.373  1.3900 -1.6437  0.5089
 1895SOL    HW211523   9.065  10.819   7.239  1.3268  1.4901 -0.4766
 1896SOL     OW11524   6.005  11.175   3.502 -0.1296 -0.5958 -0.2142
 1896SOL    HW111525   5.974  11.087   3.522 -0.9651 -0.1272  0.6099
 1896SOL    HW211526   5.926  11.224   3.479  0.4681 -0.3980 -2.0835
 1897SOL     OW11527   8.588   4.932   1.391  0.0852 -0.0812  0.2714
 1897SOL    HW111528   8.601   4.973   1.305  0.4808 -1.5483 -0.4020
 1897SOL    HW211529   8.647   4.857   1.390 -3.7148 -3.3833 -0.4046
 1898SOL     OW11530   2.649   1.632   0.752  0.0906 -0.0864  0.5464
 1898SOL    HW111531   2.561   1.598   0.770  0.6460 -2.1746 -0.3837
 1898SOL    HW211532   2.634   1.714   0.705 -1.3455 -0.1321  0.8667
 1899SOL     OW11533   9.302   0.791   5.733  0.4409 -0.0172  0.4329
 1899SOL    HW111534   9.221   0.741   5.731  0.2501  0.3059 -0.3372
 1899SOL    HW211535   9.365   0.732   5.774  0.1376 -0.7826 -0.1734
 1900SOL     OW11536   9.448   0.155   4.883 -0.0666 -0.8858 -0.9106
 1900SOL    HW111537   9.359   0.156   4.847  0.3989  0.9457 -2.1536
 1900SOL    HW211538   9.490   0.233   4.846  0.8729  0.4889  2.6400
 1901SOL     OW11539   3.088   8.036   6.046  0.1890  0.2737 -0.4361
 1901SOL    HW111540   3.037   8.098   5.993 -0.5126  0.2035  0.1438
 1901SOL    HW211541   3.179   8.064   6.035  0.0232  0.4547 -1.4224
 1902SOL     OW11542   8.677   9.514   4.970  0.2200 -0.6545 -0.1088
 1902SOL    HW111543   8.771   9.526   4.960 -0.0433  1.4683 -0.3741
 1902SOL    HW211544   8.652   9.461   4.894  1.1715 -1.1799 -0.0750
 1903SOL     OW11545   3.755   5.321   1.036  0.0118  0.5040  0.2441
 1903SOL    HW111546   3.694   5.358   1.099 -1.5754  0.2626 -1.0936
 1903SOL    HW211547   3.840   5.325   1.080 -0.7777  1.8231  1.7453
 1904SOL     OW11548   0.362   1.039   0.496  0.2211 -0.3084  0.4405
 1904SOL    HW111549   0.429   1.028   0.564  0.6313 -0.8921 -0.0580
 1904SOL    HW211550   0.290   1.083   0.542  1.0299  0.5618  0.9278
 1905SOL     OW11551   9.949   1.378   2.047 -0.7940  0.6391 -0.3214
 1905SOL    HW111552   9.873   1.330   2.080 -1.0240  1.9497  1.1794
 1905SOL    HW211553  10.021   1.315   2.055 -1.3731  0.0089  0.0808
 1906SOL     OW11554   4.815   7.094  10.069 -0.0298  0.1663  0.3274
 1906SOL    HW111555   4.764   7.148  10.130 -0.3662  0.8536 -0.5345
 1906SOL    HW211556   4.818   7.146   9.989 -1.0678 -1.4628 -0.8166
 1907SOL     OW11557   6.485   9.080   7.575 -0.1212 -0.1452 -0.0301
 1907SOL    HW111558   6.464   9.158   7.626  1.8641 -1.1027  2.4493
 1907SOL    HW211559   6.569   9.101   7.533 -0.3817 -0.3770 -0.6706
 1908SOL     OW11560   6.107   9.284   5.905 -0.0676 -0.3350  0.0281
 1908SOL    HW111561   6.043   9.343   5.945  0.4841 -0.7056  1.5267
 1908SOL    HW211562   6.174   9.273   5.973 -0.8978 -3.9247  0.4766
 1909SOL     OW11563   3.771   7.661   4.396  0.1973  0.5868  0.0271
 1909SOL    HW111564   3.722   7.699   4.470 -0.7712  1.9383 -1.2419
 1909SOL    HW211565   3.850   7.714   4.390  0.8568 -0.2821  0.7997
 1910SOL     OW11566   4.632   8.947   9.979 -0.0708 -0.2926  0.1100
 1910SOL    HW111567   4.699   8.911  10.036 -0.7167  2.4503  2.9200
 1910SOL    HW211568   4.562   8.881   9.978  1.3775 -1.8776 -0.4232
 1911SOL     OW11569   8.121   2.553   8.392 -0.0130  0.4469 -0.6240
 1911SOL    HW111570   8.089   2.643   8.383 -0.1158  0.9095  2.8667
 1911SOL    HW211571   8.052   2.508   8.440  1.9200 -0.0957  1.9014
 1912SOL     OW11572   7.766   3.181  12.189  0.2158  0.1319  0.2955
 1912SOL    HW111573   7.832   3.128  12.143  0.9057  0.4797  0.8614
 1912SOL    HW211574   7.817   3.237  12.246 -0.3967  2.3849 -1.2508
 1913SOL     OW11575   7.339   7.709   9.196  0.6332 -0.2794 -0.5927
 1913SOL    HW111576   7.292   7.695   9.114  0.8278  0.6790 -0.8794
 1913SOL    HW211577   7.277   7.756   9.252 -0.3818 -2.9740  0.7323
 1914SOL     OW11578   2.783   1.772   3.645 -0.8990 -0.0581  0.7254
 1914SOL    HW111579   2.749   1.689   3.612  0.3035  0.3539 -1.7851
 1914SOL    HW211580   2.737   1.838   3.593  0.8072  0.6556  0.0812
 1915SOL     OW11581  11.361   2.947  10.632 -0.0847 -0.1647  0.0258
 1915SOL    HW111582  11.433   2.998  10.670 -0.8953 -0.3520  1.9094
 1915SOL    HW211583  11.404   2.873  10.588  0.9055  0.1011  0.5311
 1916SOL     OW11584   9.749   8.239   6.888 -0.1233  0.4602 -0.2178
 1916SOL    HW111585   9.830   8.270   6.848  0.6497  1.1551  1.8094
 1916SOL    HW211586   9.761   8.144   6.897  0.0358  0.4172 -0.8019
 1917SOL     OW11587   7.242   1.328   8.922 -0.0674 -0.1584 -0.1891
 1917SOL    HW111588   7.311   1.357   8.863  1.3499  0.5422  1.6934
 1917SOL    HW211589   7.264   1.368   9.006 -1.9518 -1.1460  0.8483
 1918SOL     OW11590   3.622   2.860  12.168  0.3694  0.0569 -0.3252
 1918SOL    HW111591   3.627   2.795  12.097  0.4971  0.4325 -0.6613
 1918SOL    HW211592   3.584   2.938  12.127  1.9001  0.8028 -0.3639
 1919SOL     OW11593   7.410   9.088   5.258 -0.1945  0.0559 -0.1508
 1919SOL    HW111594   7.434   9.005   5.300  0.9533  0.8139  0.7773
 1919SOL    HW211595   7.321   9.106   5.288  0.0098 -0.2326  0.6662
 1920SOL     OW11596  10.486   5.771   6.024  0.7865 -0.1627 -0.2311
 1920SOL    HW111597  10.404   5.751   6.070  1.1901 -0.8757  0.1970
 1920SOL    HW211598  10.486   5.866   6.015  0.5673 -0.0193  1.0406
 1921SOL     OW11599   3.844   0.952  11.339  0.2916  0.3149 -0.6456
 1921SOL    HW111600   3.859   0.961  11.434 -2.1187  0.2189 -0.2127
 1921SOL    HW211601   3.784   1.023  11.318 -1.0967 -1.0974 -1.6257
 1922SOL     OW11602   6.629   1.645   6.595  0.3989 -0.4963 -0.0660
 1922SOL    HW111603   6.621   1.698   6.674 -0.3316 -1.1569  0.3078
 1922SOL    HW211604   6.671   1.704   6.532  0.1608  0.3319  0.5273
 1923SOL     OW11605   2.272   1.155   8.696  0.5817 -0.5245 -0.5575
 1923SOL    HW111606   2.206   1.144   8.765  1.0961 -3.2047 -0.3794
 1923SOL    HW211607   2.223   1.146   8.614 -0.0134  2.5588 -0.6426
 1924SOL     OW11608   9.638   2.942   7.092 -1.0329  0.0311 -0.1237
 1924SOL    HW111609   9.720   2.969   7.133 -1.2208  1.2549 -0.5301
 1924SOL    HW211610   9.658   2.933   6.999 -1.6174  1.5646 -0.4326
 1925SOL     OW11611   0.296   7.999  12.280  0.1570 -0.3870 -0.2075
 1925SOL    HW111612   0.248   7.954  12.210 -0.2534  0.9722 -0.8460
 1925SOL    HW211613   0.241   7.987  12.358 -0.5307 -0.0396 -0.6251
 1926SOL     OW11614  12.206   5.162  12.044 -0.6933 -0.2634 -0.3670
 1926SOL    HW111615  12.163   5.081  12.068 -1.0825 -0.1582 -0.7003
 1926SOL    HW211616  12.295   5.136  12.019 -0.5641 -0.4822  0.3031
 1927SOL     OW11617   9.515  10.638   3.164 -0.0236 -0.4659 -0.2030
 1927SOL    HW111618   9.540  10.708   3.103  1.4167 -0.6332  0.1568
 1927SOL    HW211619   9.419  10.641   3.166 -0.0082  1.1463 -0.5881
 1928SOL     OW11620   7.217  12.171   9.337  0.0199  0.2597  0.2733
 1928SOL    HW111621   7.196  12.164   9.430  0.8364 -0.1806  0.4328
 1928SOL    HW211622   7.310  12.150   9.332  0.4359  2.1060 -0.4158
 1929SOL     OW11623   7.743   8.021   0.474 -0.3435 -0.1412  0.5901
 1929SOL    HW111624   7.831   8.024   0.437 -0.4428  2.9713  0.3996
 1929SOL    HW211625   7.696   8.093   0.432 -2.7523 -1.1922  1.3173
 1930SOL     OW11626   7.236   2.571   8.279 -0.3664  0.0581 -0.0238
 1930SOL    HW111627   7.196   2.535   8.359  0.5786  0.5589  0.6875
 1930SOL    HW211628   7.290   2.644   8.310 -0.0684  0.3248 -1.1422
 1931SOL     OW11629   7.029  12.289  10.615 -0.3290 -0.1377 -0.7788
 1931SOL    HW111630   7.057  12.266  10.526 -2.0507  0.9579 -1.6638
 1931SOL    HW211631   7.072  12.373  10.633  0.4265 -0.6098 -0.3621
 1932SOL     OW11632   6.413   0.029   9.291 -0.1458 -0.2946 -0.0256
 1932SOL    HW111633   6.374  -0.049   9.331 -0.1952 -0.0531  0.4048
 1932SOL    HW211634   6.355   0.051   9.219  0.5668 -1.4142 -0.9708
 1933SOL     OW11635  10.108   7.321   5.414 -0.5966  0.5106  0.4850
 1933SOL    HW111636  10.164   7.267   5.470 -0.7144  1.1665  1.2370
 1933SOL    HW211637  10.154   7.323   5.330 -0.5930 -0.7642  0.4345
 1934SOL     OW11638   4.670  11.481   4.026 -0.2064 -0.7122 -0.3424
 1934SOL    HW111639   4.603  11.506   3.963 -0.6035 -0.0874  0.3097
 1934SOL    HW211640   4.735  11.551   4.022 -1.1083  0.2722  1.1791
 1935SOL     OW11641   6.925   0.567  11.488  0.1276  0.3021  0.2980
 1935SOL    HW111642   6.931   0.539  11.580 -0.7409 -0.9507  0.0031
 1935SOL    HW211643   6.985   0.641  11.482  0.1505  0.4625  1.8944
 1936SOL     OW11644  10.899   0.291   9.863 -0.2532 -1.0058  0.5664
 1936SOL    HW111645  10.945   0.214   9.895  0.0770 -0.2852  1.8767
 1936SOL    HW211646  10.899   0.352   9.936 -0.4960  0.2540 -0.4433
 1937SOL     OW11647  10.564   5.066  11.338  0.3021  0.0836 -0.7582
 1937SOL    HW111648  10.658   5.078  11.328  0.5397  0.0638  0.9937
 1937SOL    HW211649  10.551   4.971  11.330  0.5805 -0.0166 -0.0858
 1938SOL     OW11650   5.998   4.646   7.830 -0.5230  0.5042 -0.2521
 1938SOL    HW111651   6.040   4.614   7.750 -0.8661 -0.3155 -0.1149
 1938SOL    HW211652   5.905   4.651   7.808 -1.2711 -3.4793  1.1568
 1939SOL     OW11653   6.696   5.533   9.330 -0.5625  0.2019  0.9628
 1939SOL    HW111654   6.760   5.590   9.288 -0.0335 -1.5093 -0.6794
 1939SOL    HW211655   6.730   5.519   9.418  1.5991 -0.9981  0.0058
 1940SOL     OW11656   8.527   8.508  11.434  0.2228  0.5833  0.0468
 1940SOL    HW111657   8.538   8.575  11.502  0.1223  0.3528  0.2933
 1940SOL    HW211658   8.441   8.470  11.452  0.6025 -0.1436  0.3799
 1941SOL     OW11659   3.655   9.948   1.433 -0.2036  0.6007 -0.2527
 1941SOL    HW111660   3.743   9.969   1.466  0.0793 -0.0861 -0.5446
 1941SOL    HW211661   3.601   9.942   1.512  0.2803 -0.1726  0.0285
 1942SOL     OW11662  12.185   4.957   4.642  0.0200  0.3960 -0.4676
 1942SOL    HW111663  12.255   4.951   4.708  0.6294 -0.4562 -1.1628
 1942SOL    HW211664  12.159   4.866   4.628 -0.4974  0.6260 -0.9891
 1943SOL     OW11665   8.490   0.757   1.815  0.1593 -0.3139  0.3176
 1943SOL    HW111666   8.499   0.718   1.902  1.0268  0.6673  0.6926
 1943SOL    HW211667   8.464   0.848   1.832 -0.9262 -0.4482 -0.5026
 1944SOL     OW11668   6.952   3.596   0.156  0.2848  0.4484 -0.5666
 1944SOL    HW111669   7.026   3.535   0.152 -1.2971 -1.6315 -0.1534
 1944SOL    HW211670   6.891   3.563   0.090 -0.6367  1.5879 -0.3115
 1945SOL     OW11671   6.873   7.672   7.439  0.5732 -0.6461  0.0274
 1945SOL    HW111672   6.905   7.736   7.502  2.1426 -2.9920  1.7575
 1945SOL    HW211673   6.905   7.702   7.354  0.9571  1.0007  0.7339
 1946SOL     OW11674   4.838  11.859   3.824 -0.4303 -0.3317  0.1493
 1946SOL    HW111675   4.782  11.934   3.805  0.7323  0.6597  0.4842
 1946SOL    HW211676   4.871  11.832   3.738 -1.4302 -0.9524 -0.0541
 1947SOL     OW11677   9.614   2.335   5.164  0.3942 -0.3468 -0.3325
 1947SOL    HW111678   9.534   2.381   5.139 -0.2531 -0.8645  0.7024
 1947SOL    HW211679   9.607   2.325   5.259  3.0583  2.1538  0.2749
 1948SOL     OW11680  12.260   2.481   7.387 -0.1379  0.2371  0.3607
 1948SOL    HW111681  12.335   2.536   7.365 -0.1101  0.3854  0.8375
 1948SOL    HW211682  12.261   2.413   7.319  1.3141 -0.6398  1.2047
 1949SOL     OW11683   6.527   4.356   2.067  0.4486 -0.4111  0.5202
 1949SOL    HW111684   6.544   4.264   2.085  0.5727 -0.9678 -2.1363
 1949SOL    HW211685   6.592   4.403   2.119  1.1482 -1.8588  0.9948
 1950SOL     OW11686   7.391   8.302  10.813 -0.3006  0.3220  0.5532
 1950SOL    HW111687   7.428   8.219  10.781 -0.3488 -0.0880  1.5273
 1950SOL    HW211688   7.439   8.369  10.765 -0.0984 -0.2613 -0.0830
 1951SOL     OW11689   7.354   9.647   6.512 -0.1742 -0.0583  0.0538
 1951SOL    HW111690   7.447   9.667   6.514 -0.0359 -0.6121 -0.3266
 1951SOL    HW211691   7.346   9.581   6.442 -0.8048 -0.2228  0.2763
 1952SOL     OW11692  10.801   3.630  12.172 -0.4307  0.7000 -0.0937
 1952SOL    HW111693  10.811   3.565  12.102 -2.3896 -1.1269  1.2124
 1952SOL    HW211694  10.745   3.697  12.133  0.0465  0.6886 -0.8441
 1953SOL     OW11695   3.496   4.797  10.980  0.0331  0.5236 -0.4547
 1953SOL    HW111696   3.520   4.753  10.899  2.0411 -0.6276  0.6716
 1953SOL    HW211697   3.452   4.729  11.032 -0.2378  0.9203 -0.1599
 1954SOL     OW11698  11.989  10.705   5.214 -0.1846 -0.2655  0.1071
 1954SOL    HW111699  11.916  10.644   5.211 -0.2827 -0.1433  0.0281
 1954SOL    HW211700  12.000  10.735   5.124 -0.5681  0.3468  0.2600
 1955SOL     OW11701   3.654   1.029   7.938  0.3023  0.5287  0.2895
 1955SOL    HW111702   3.692   1.109   7.900 -0.0743  0.0747 -1.0775
 1955SOL    HW211703   3.617   1.058   8.022  0.3078  1.7539 -0.1104
 1956SOL     OW11704   8.067   4.491   7.072  0.2600  0.3354  0.8852
 1956SOL    HW111705   8.102   4.457   7.154 -1.6414 -0.8981  1.2556
 1956SOL    HW211706   8.118   4.446   7.003 -0.3547 -1.2232  1.3980
 1957SOL     OW11707   4.476   6.473  10.010 -0.2480 -0.7298  0.8212
 1957SOL    HW111708   4.402   6.472  10.071  0.5807 -2.5227  1.8791
 1957SOL    HW211709   4.453   6.408   9.944 -0.7042  0.5145 -0.2931
 1958SOL     OW11710   7.898  11.599   6.044  0.2539 -0.2203 -0.2595
 1958SOL    HW111711   7.842  11.677   6.037 -0.4064 -0.6845 -0.1842
 1958SOL    HW211712   7.872  11.559   6.127 -1.4850 -2.1294 -1.6520
 1959SOL     OW11713   6.764  11.767   5.200  0.4795  0.2262 -0.2170
 1959SOL    HW111714   6.845  11.739   5.157  0.3568  0.0858 -0.3601
 1959SOL    HW211715   6.792  11.797   5.287  0.4908 -1.3631  0.3663
 1960SOL     OW11716   4.848   1.191   3.956  0.1907  0.1211 -0.1093
 1960SOL    HW111717   4.775   1.250   3.935 -0.5406 -0.4093  0.8748
 1960SOL    HW211718   4.808   1.121   4.007  1.1294 -1.0015 -0.8639
 1961SOL     OW11719   9.394   9.375   7.103 -0.2364  0.4306 -0.0324
 1961SOL    HW111720   9.383   9.431   7.181 -1.6574  2.4082 -1.5390
 1961SOL    HW211721   9.309   9.333   7.092 -0.0674  0.2239 -0.5524
 1962SOL     OW11722   5.347   8.562   5.722  0.1519 -0.1687 -0.0022
 1962SOL    HW111723   5.322   8.478   5.760  1.1758 -0.4405  0.0966
 1962SOL    HW211724   5.417   8.541   5.660  0.0687  0.5514 -0.3544
 1963SOL     OW11725   9.953   9.957   8.947 -0.2473  0.3678 -0.0350
 1963SOL    HW111726  10.005   9.972   9.026  0.3264 -2.1723  0.1343
 1963SOL    HW211727   9.986   9.875   8.911 -2.5000 -0.0746 -1.2947
 1964SOL     OW11728  11.116  10.781   2.863  0.2958  0.3468  0.2125
 1964SOL    HW111729  11.146  10.759   2.775  0.9437 -0.9331  0.7261
 1964SOL    HW211730  11.190  10.761   2.920 -0.0250  1.3970  1.0377
 1965SOL     OW11731   6.545   5.059   5.033  0.2867 -0.9873 -0.3843
 1965SOL    HW111732   6.565   5.085   4.943 -0.1192 -2.6090 -0.9718
 1965SOL    HW211733   6.458   5.020   5.027 -0.7424  0.9068  1.1433
 1966SOL     OW11734  11.268  11.266   5.342  0.0654  0.1545 -0.3895
 1966SOL    HW111735  11.303  11.184   5.379  3.1525  1.5750  0.1729
 1966SOL    HW211736  11.182  11.276   5.384  2.1033  0.1706  4.3906
 1967SOL     OW11737   2.361  11.651   9.588  0.6628 -0.1747 -0.5598
 1967SOL    HW111738   2.425  11.707   9.543  1.9963 -0.2750  1.1061
 1967SOL    HW211739   2.376  11.564   9.552  2.0553 -0.3470  0.3317
 1968SOL     OW11740   3.775   8.767   1.562  0.2622 -0.0770  0.0658
 1968SOL    HW111741   3.803   8.788   1.474  0.6017 -1.8764 -0.2995
 1968SOL    HW211742   3.679   8.776   1.560  0.3257  0.5246 -0.2943
 1969SOL     OW11743   4.103   4.940   0.499  0.3866  0.1076 -0.0816
 1969SOL    HW111744   4.039   5.000   0.461  0.2451 -0.8195 -1.3871
 1969SOL    HW211745   4.178   4.943   0.439  1.1688  0.4131  0.8795
 1970SOL     OW11746   1.582   9.113  10.892  0.2859 -0.4272  0.0210
 1970SOL    HW111747   1.580   9.146  10.982 -2.6006  1.2082 -0.5280
 1970SOL    HW211748   1.546   9.024  10.898  0.3760 -0.4344  0.4951
 1971SOL     OW11749   4.628   9.489  10.493 -0.3560  0.0454 -0.1479
 1971SOL    HW111750   4.611   9.457  10.581  1.3113  0.0992  0.2382
 1971SOL    HW211751   4.618   9.413  10.436 -2.1197  0.1608 -0.0237
 1972SOL     OW11752   8.271   7.466   0.084  0.2009 -0.7958 -0.0632
 1972SOL    HW111753   8.198   7.409   0.059 -0.1889 -0.4931  0.3588
 1972SOL    HW211754   8.229   7.550   0.103  0.9726  0.3514 -2.8410
 1973SOL     OW11755   2.885   0.899   7.934  0.8120 -0.4267  0.2241
 1973SOL    HW111756   2.903   0.809   7.909  1.1306 -0.4046  0.3649
 1973SOL    HW211757   2.969   0.932   7.968  0.7219 -0.0536  0.0922
 1974SOL     OW11758   2.227   7.774  10.863  0.1012 -0.1249 -0.1159
 1974SOL    HW111759   2.221   7.723  10.944  0.9650 -1.7288 -1.0127
 1974SOL    HW211760   2.304   7.831  10.876 -0.2302  0.1951  0.4782
 1975SOL     OW11761  11.222   4.323   3.943  0.4613 -0.3505 -0.2556
 1975SOL    HW111762  11.151   4.270   3.979  0.1837 -0.0932 -0.4219
 1975SOL    HW211763  11.293   4.314   4.007 -0.4412  1.0760  1.0295
 1976SOL     OW11764   7.283   0.545   9.197  0.2235 -0.3687 -0.2437
 1976SOL    HW111765   7.328   0.511   9.119  0.7929  0.5914 -0.3547
 1976SOL    HW211766   7.190   0.528   9.180  0.5185 -2.8755  0.2225
 1977SOL     OW11767   8.347  12.296   9.414  0.7695  0.1081 -0.1837
 1977SOL    HW111768   8.274  12.257   9.462  1.3038  0.9489  1.3952
 1977SOL    HW211769   8.307  12.336   9.337 -0.3146 -0.1452  0.2276
 1978SOL     OW11770   3.483   6.846   2.923 -0.1896  0.1912 -0.0828
 1978SOL    HW111771   3.504   6.864   3.015 -0.2567 -0.9284  0.1682
 1978SOL    HW211772   3.409   6.903   2.904 -0.3721  0.2139  0.6576
 1979SOL     OW11773   9.106   7.242   5.646 -0.2675  0.2156  0.5824
 1979SOL    HW111774   9.114   7.235   5.551 -0.8475 -0.5874  0.5869
 1979SOL    HW211775   9.024   7.288   5.660  0.2944  1.2129  0.6866
 1980SOL     OW11776   2.453  10.371   2.507  0.0472 -0.1259 -0.2028
 1980SOL    HW111777   2.471  10.453   2.553 -1.7608 -0.2084  0.7390
 1980SOL    HW211778   2.498  10.304   2.559  0.0928  0.0721  0.0130
 1981SOL     OW11779   7.541   6.114   7.132 -0.2576  0.0834  0.0934
 1981SOL    HW111780   7.533   6.204   7.098  1.4787  0.1841 -0.1425
 1981SOL    HW211781   7.488   6.114   7.211 -0.4058  1.2841  0.0189
 1982SOL     OW11782   1.012   5.127   0.169  0.4271  0.1520  0.0087
 1982SOL    HW111783   1.016   5.133   0.265 -2.7432  2.3383  0.1905
 1982SOL    HW211784   1.076   5.191   0.138 -0.2029  1.2009  0.7929
 1983SOL     OW11785  10.328   3.059   7.691  0.1797 -0.1328 -0.5974
 1983SOL    HW111786  10.335   3.009   7.610 -0.2589  0.5174 -1.0486
 1983SOL    HW211787  10.415   3.096   7.704  0.3674 -0.5880 -0.5333
 1984SOL     OW11788   9.722   4.901   9.188  0.1952  0.0324 -0.1909
 1984SOL    HW111789   9.813   4.871   9.194  0.3651  0.4021 -0.7460
 1984SOL    HW211790   9.726   4.993   9.213  0.5208  0.9230 -3.0556
 1985SOL     OW11791   8.610   4.901   4.082  0.1615  0.2894  0.4168
 1985SOL    HW111792   8.568   4.820   4.110 -1.4032  1.0603  0.4288
 1985SOL    HW211793   8.702   4.878   4.069 -0.6550 -2.0883 -1.9664
 1986SOL     OW11794   5.437   1.939   6.977  0.1772  0.1426  0.2689
 1986SOL    HW111795   5.411   2.029   6.996  0.4456  0.3270 -0.2308
 1986SOL    HW211796   5.385   1.886   7.038 -0.8871  0.5514 -0.2594
 1987SOL     OW11797   5.358  10.110   7.006  0.2585  0.2782  0.2519
 1987SOL    HW111798   5.329  10.023   6.977  0.9641  0.4626 -1.0936
 1987SOL    HW211799   5.445  10.095   7.043  0.8531  0.5410 -0.9821
 1988SOL     OW11800   3.676   2.694  11.937  0.0530 -0.1432  0.2527
 1988SOL    HW111801   3.656   2.608  11.974 -0.2181 -0.9241 -1.6252
 1988SOL    HW211802   3.725   2.676  11.857  1.4843  1.5239  0.6663
 1989SOL     OW11803  10.498  11.681   4.220  0.2498  0.3149  0.1063
 1989SOL    HW111804  10.500  11.587   4.237 -1.3107  0.3341  0.6036
 1989SOL    HW211805  10.459  11.719   4.299 -0.1165  1.2561 -0.5106
 1990SOL     OW11806   2.338  11.537   0.221 -0.6078 -0.0848  0.1535
 1990SOL    HW111807   2.292  11.601   0.276 -0.7786  0.6611 -0.8274
 1990SOL    HW211808   2.345  11.579   0.135 -0.1628 -1.1367 -0.3513
 1991SOL     OW11809   8.607   5.546   1.439  0.1173 -0.1109  0.5114
 1991SOL    HW111810   8.690   5.551   1.390  0.2152 -0.5437  0.6347
 1991SOL    HW211811   8.551   5.491   1.385 -0.9744  2.1776 -0.8441
 1992SOL     OW11812   1.243   3.864  11.317 -0.1054  0.3531 -0.0425
 1992SOL    HW111813   1.229   3.956  11.338  0.3639  0.2549  0.7453
 1992SOL    HW211814   1.327   3.863  11.272 -0.5637  0.4197 -0.9179
 1993SOL     OW11815   5.723   8.276   2.105 -0.1012  0.7156  0.2781
 1993SOL    HW111816   5.749   8.185   2.118 -0.6602  0.6445  0.9741
 1993SOL    HW211817   5.684   8.302   2.189 -0.3973  1.4392 -0.0764
 1994SOL     OW11818   9.956  11.516   3.263  0.2817  0.7437 -0.3348
 1994SOL    HW111819   9.914  11.516   3.349  2.4468  2.0439  0.8049
 1994SOL    HW211820   9.890  11.552   3.204 -1.1315  0.1342  0.8204
 1995SOL     OW11821   1.051   8.074   9.029 -0.0160  0.0261  0.1970
 1995SOL    HW111822   1.029   8.164   9.053  0.5893  0.1901  0.1350
 1995SOL    HW211823   1.006   8.020   9.095 -0.3687  0.3682  0.2429
 1996SOL     OW11824  10.270   7.994   0.055 -0.1156 -0.4450  0.7200
 1996SOL    HW111825  10.310   8.074   0.089 -1.0196 -0.5571  2.1540
 1996SOL    HW211826  10.235   8.019  -0.030  3.0212 -0.3822 -0.7049
 1997SOL     OW11827  11.030   3.931   3.061 -0.3336  0.4412  0.3174
 1997SOL    HW111828  10.998   3.918   3.150  2.4479  0.4639  1.4133
 1997SOL    HW211829  11.017   4.024   3.043  1.8436  1.1442  1.9729
 1998SOL     OW11830   6.394   8.461  11.775 -0.2147  0.3729  0.7830
 1998SOL    HW111831   6.303   8.487  11.783  0.0183  1.1077  1.1698
 1998SOL    HW211832   6.443   8.543  11.781  0.4436  0.0563 -0.0439
 1999SOL     OW11833   0.865  11.598   6.135  0.2126 -0.0846  0.7579
 1999SOL    HW111834   0.803  11.556   6.075  0.7436  3.3145 -2.5161
 1999SOL    HW211835   0.814  11.668   6.177  0.5572 -0.7274  2.3185
 2000SOL     OW11836   1.233   6.460   3.551 -0.3258  0.7163  0.3538
 2000SOL    HW111837   1.208   6.467   3.459  1.0779  2.2383  0.0322
 2000SOL    HW211838   1.205   6.543   3.589 -1.8476 -0.3129  1.6015
 2001SOL     OW11839   0.682  11.517   6.576  0.1749  0.0945  0.2634
 2001SOL    HW111840   0.685  11.425   6.603 -2.3352  0.1256  0.8589
 2001SOL    HW211841   0.644  11.563   6.650  1.5392  1.7054  0.0408
 2002SOL     OW11842   8.280   0.689   9.339  0.2765  0.0192  0.4457
 2002SOL    HW111843   8.213   0.734   9.390 -0.2668  0.0454 -0.2690
 2002SOL    HW211844   8.312   0.756   9.278  0.4983 -0.1657  0.3607
 2003SOL     OW11845  11.953   8.030   8.852 -0.2616  0.1520  0.7478
 2003SOL    HW111846  11.929   8.107   8.905 -0.4820 -0.6922  1.9190
 2003SOL    HW211847  11.996   8.067   8.775 -0.5269  1.4595  1.1902
 2004SOL     OW11848  11.483   2.522   0.320  0.0094  0.0576  0.6569
 2004SOL    HW111849  11.578   2.507   0.327  0.1820 -0.0827 -1.2867
 2004SOL    HW211850  11.475   2.598   0.263 -1.0551  1.3861  2.4873
 2005SOL     OW11851   4.778   0.176   9.137 -0.4234 -0.4772  0.6505
 2005SOL    HW111852   4.862   0.140   9.166  0.0292 -0.4337 -0.5685
 2005SOL    HW211853   4.739   0.107   9.084 -0.6704 -0.1096  0.3439
 2006SOL     OW11854   5.775  10.111   4.346  0.4918 -0.0344 -0.0654
 2006SOL    HW111855   5.779  10.174   4.274  1.8160 -0.3559 -0.2956
 2006SOL    HW211856   5.748  10.029   4.305  1.7576 -0.3444 -0.3007
 2007SOL     OW11857   5.645   4.522   5.852 -0.3890  0.0997  0.2464
 2007SOL    HW111858   5.616   4.542   5.941 -0.0175  1.0591  0.1606
 2007SOL    HW211859   5.577   4.559   5.795  0.6581  1.8580  0.0648
 2008SOL     OW11860   9.809   3.364   1.004  0.5579  0.2714  0.0523
 2008SOL    HW111861   9.835   3.322   0.922  0.2011 -0.9744  0.5443
 2008SOL    HW211862   9.892   3.384   1.048  0.7428 -0.4037  0.0272
 2009SOL     OW11863   6.148   3.227   9.155 -0.0822 -0.1532 -0.6034
 2009SOL    HW111864   6.073   3.232   9.096 -1.8061 -0.7227  1.4085
 2009SOL    HW211865   6.188   3.142   9.135 -1.4217 -0.9379 -0.1666
 2010SOL     OW11866  11.614   4.063   7.868  0.1451  0.2213 -0.2983
 2010SOL    HW111867  11.667   3.995   7.827 -0.2147 -0.2853  0.0509
 2010SOL    HW211868  11.624   4.139   7.812  0.7517 -0.0474 -0.5657
 2011SOL     OW11869   4.007  10.481   9.893 -1.1124  0.5013  0.0210
 2011SOL    HW111870   4.077  10.524   9.843  0.7353 -1.6990  0.5606
 2011SOL    HW211871   3.958  10.554   9.932  0.4314  2.1470 -0.9367
 2012SOL     OW11872   9.147   6.648   3.564 -0.3878  0.0560 -0.4898
 2012SOL    HW111873   9.201   6.726   3.577  0.4188 -0.6704  0.7623
 2012SOL    HW211874   9.192   6.598   3.496  0.6481 -0.6098  0.6389
 2013SOL     OW11875  11.944   4.162  10.289  0.5606  0.0425  0.2469
 2013SOL    HW111876  11.882   4.229  10.318  2.9504  2.3992  0.2938
 2013SOL    HW211877  11.963   4.184  10.198  2.1384  0.1105  0.5624
 2014SOL     OW11878   1.609   8.206   7.049 -0.0300 -0.0559 -0.2048
 2014SOL    HW111879   1.657   8.283   7.081  0.5071 -0.7609  0.7617
 2014SOL    HW211880   1.560   8.238   6.974 -0.6344  1.4885  0.7902
 2015SOL     OW11881   9.127   2.626  11.861 -0.2392  0.0079  0.6788
 2015SOL    HW111882   9.206   2.574  11.845  0.1616  0.1619  2.0458
 2015SOL    HW211883   9.101   2.657  11.774  1.2816  0.0813  0.2127
 2016SOL     OW11884   7.553   0.636  11.192 -0.2400 -0.4904 -0.0378
 2016SOL    HW111885   7.595   0.680  11.118 -1.2313  1.7715  0.6703
 2016SOL    HW211886   7.604   0.664  11.268 -0.8427 -0.6319  0.4199
 2017SOL     OW11887   9.315   4.496   6.351  0.3653 -0.0312 -0.0541
 2017SOL    HW111888   9.300   4.587   6.327  0.2902  0.0411  0.2567
 2017SOL    HW211889   9.397   4.497   6.400  0.1098 -0.0550  0.3776
 2018SOL     OW11890   3.431   0.224   5.332 -0.8255 -0.0844 -0.2152
 2018SOL    HW111891   3.336   0.215   5.342 -1.2274  0.1555 -2.9127
 2018SOL    HW211892   3.456   0.148   5.281  0.2244  0.4364 -0.4958
 2019SOL     OW11893  12.299   1.267   8.804  0.5143  0.0110 -0.5652
 2019SOL    HW111894  12.330   1.348   8.844 -0.8960  0.0068  0.6260
 2019SOL    HW211895  12.281   1.291   8.713  0.0029  1.0889 -0.1935
 2020SOL     OW11896   3.909   1.241  11.081  0.1536  0.1477  0.3985
 2020SOL    HW111897   3.844   1.193  11.029  0.3656  0.1121  0.1673
 2020SOL    HW211898   3.861   1.266  11.160 -0.5017  1.2007 -0.3075
 2021SOL     OW11899   6.511   5.989   3.462  0.2524 -0.5576  0.1090
 2021SOL    HW111900   6.483   6.053   3.528  0.8041 -0.5605  0.3523
 2021SOL    HW211901   6.571   6.038   3.406 -1.3037 -0.1533 -1.2761
 2022SOL     OW11902   1.537   1.248   6.213  0.1490  0.3306  0.1901
 2022SOL    HW111903   1.508   1.327   6.167  0.7301  0.4848  0.0821
 2022SOL    HW211904   1.620   1.225   6.171  0.5425  0.2986  0.9712
 2023SOL     OW11905   5.891   8.588  10.229 -0.5338  0.4006  0.1590
 2023SOL    HW111906   5.981   8.559  10.246  1.1991  4.6072 -0.5605
 2023SOL    HW211907   5.867   8.639  10.307 -1.5879  0.8050 -0.4087
 2024SOL     OW11908   7.686   5.783   9.800  0.6990 -0.7514  0.5210
 2024SOL    HW111909   7.684   5.688   9.787  4.8848 -0.9185 -0.2477
 2024SOL    HW211910   7.657   5.819   9.716 -1.8426 -1.2128  1.1165
 2025SOL     OW11911   6.127   7.652   6.296  0.2663 -0.3916  0.2089
 2025SOL    HW111912   6.208   7.690   6.327  0.4847 -1.2105  0.6698
 2025SOL    HW211913   6.135   7.651   6.201  0.3413  0.4967  0.2015
 2026SOL     OW11914   2.741  10.618   2.128 -0.1317 -0.0534 -0.1785
 2026SOL    HW111915   2.737  10.698   2.181  0.3201  0.5267 -0.9875
 2026SOL    HW211916   2.667  10.625   2.069  0.7792  0.5680 -1.3052
 2027SOL     OW11917   3.924  10.265   3.974  0.0681 -0.2831  0.3182
 2027SOL    HW111918   3.930  10.249   4.068  0.8691  1.1091  0.5213
 2027SOL    HW211919   4.013  10.292   3.949 -0.1831 -0.4593 -0.8071
 2028SOL     OW11920  11.339   1.519   4.975 -0.1939  0.1152 -0.3991
 2028SOL    HW111921  11.285   1.561   4.908 -0.7978 -0.5535 -0.3495
 2028SOL    HW211922  11.301   1.546   5.058 -0.5403 -0.4536 -0.3659
 2029SOL     OW11923   3.966   3.574   0.871  0.4600 -0.1216  0.3829
 2029SOL    HW111924   3.929   3.641   0.814  0.2584 -1.1602 -0.7470
 2029SOL    HW211925   3.959   3.493   0.821 -1.4636 -1.4632  2.5923
 2030SOL     OW11926   9.049   0.948   5.501 -0.6101  0.2574  0.5159
 2030SOL    HW111927   9.029   0.917   5.589 -1.7138  0.1463  0.2452
 2030SOL    HW211928   9.126   0.898   5.475 -0.9440 -0.5291  0.9946
 2031SOL     OW11929   2.970  11.274  11.005  0.6605  0.2643 -0.6744
 2031SOL    HW111930   2.948  11.203  11.065  1.7871  1.0273  0.7179
 2031SOL    HW211931   2.951  11.239  10.918 -0.2362 -1.1837  0.0667
 2032SOL     OW11932   2.279   6.688   3.019  0.4435  0.0037 -0.1581
 2032SOL    HW111933   2.251   6.729   2.937  1.7036 -0.0917 -0.6497
 2032SOL    HW211934   2.364   6.726   3.038  1.3258 -1.8350 -0.2337
 2033SOL     OW11935   8.149   5.184  12.147  0.0084  0.4262 -0.2737
 2033SOL    HW111936   8.157   5.089  12.157 -0.6292  0.2157 -1.5897
 2033SOL    HW211937   8.230   5.218  12.183 -0.3682 -0.5026  1.5695
 2034SOL     OW11938   5.890   7.042  11.569  0.1313 -0.1504  0.0932
 2034SOL    HW111939   5.972   7.047  11.519  0.3108  0.8658  0.4601
 2034SOL    HW211940   5.864   7.133  11.581  0.4097 -0.3024  2.3389
 2035SOL     OW11941   3.951   2.819   2.422 -0.5230  0.7335  0.2359
 2035SOL    HW111942   4.004   2.856   2.352 -2.1005  1.5260 -0.5890
 2035SOL    HW211943   3.868   2.868   2.418 -0.7925  0.5520  2.4107
 2036SOL     OW11944   1.862   9.490   0.003 -0.2507 -0.4429  0.3519
 2036SOL    HW111945   1.831   9.488  -0.088  0.7615  0.5242 -0.0412
 2036SOL    HW211946   1.884   9.582   0.018  0.7975 -0.8134  1.1497
 2037SOL     OW11947   7.614   8.528   5.150 -0.3930 -0.0112  0.1543
 2037SOL    HW111948   7.561   8.585   5.205 -1.8108 -0.8789 -0.2543
 2037SOL    HW211949   7.603   8.441   5.189 -0.5672 -0.4616 -0.8675
 2038SOL     OW11950   0.366   9.013   1.801  0.2481 -0.2494 -0.3742
 2038SOL    HW111951   0.422   9.047   1.871 -0.4569 -0.4376  0.2870
 2038SOL    HW211952   0.347   8.923   1.826 -0.4721 -0.1420 -0.5158
 2039SOL     OW11953   2.218   6.233   6.750 -0.0782  0.1349 -0.2892
 2039SOL    HW111954   2.282   6.303   6.736 -0.3107  0.2577 -0.7730
 2039SOL    HW211955   2.135   6.278   6.763 -0.2369 -0.0458 -0.6476
 2040SOL     OW11956  10.247   0.120  11.991 -0.4716  0.4676 -0.1070
 2040SOL    HW111957  10.194   0.132  11.912 -1.5098 -1.0947  0.3200
 2040SOL    HW211958  10.318   0.061  11.964  0.2365  1.3752 -0.2975
 2041SOL     OW11959   6.093  11.770   5.063 -0.3633 -0.3133 -0.6003
 2041SOL    HW111960   6.118  11.752   5.154  0.8547 -1.6604 -1.1575
 2041SOL    HW211961   6.170  11.743   5.012 -0.9468  0.6290 -2.0161
 2042SOL     OW11962   3.537  12.234   7.194 -0.0472 -0.1906  0.1897
 2042SOL    HW111963   3.553  12.326   7.211  1.3592 -0.6913  1.9471
 2042SOL    HW211964   3.581  12.216   7.110 -1.5430  0.9831 -0.8952
 2043SOL     OW11965   1.165  12.307   2.169  0.6169 -0.2293 -0.2888
 2043SOL    HW111966   1.092  12.322   2.229 -0.3342 -0.6172 -1.3318
 2043SOL    HW211967   1.218  12.240   2.212  1.7204  1.7202  1.6164
 2044SOL     OW11968   4.452   4.318  12.320 -0.5110 -0.2201 -0.2181
 2044SOL    HW111969   4.537   4.280  12.345 -0.7499 -0.8515 -0.3539
 2044SOL    HW211970   4.460   4.334  12.226 -0.9095 -1.2799 -0.4480
 2045SOL     OW11971   8.813  10.200   8.809  0.5828  0.3223  0.7766
 2045SOL    HW111972   8.902  10.203   8.843  1.0485  2.1029 -0.4360
 2045SOL    HW211973   8.758  10.233   8.880  0.9759 -0.1349  1.2946
 2046SOL     OW11974   1.823  11.640   6.571  0.1477 -0.5912  1.1597
 2046SOL    HW111975   1.913  11.624   6.598  0.3782  0.2784  0.9526
 2046SOL    HW211976   1.820  11.615   6.479  0.0836 -0.9491  1.2578
 2047SOL     OW11977  11.647   3.701  12.097  0.3442  0.7859 -0.2169
 2047SOL    HW111978  11.582   3.637  12.067  0.5720  1.3629 -2.0570
 2047SOL    HW211979  11.680   3.664  12.179  1.6457 -2.3490 -1.9701
 2048SOL     OW11980   8.158   5.996  11.907 -0.2157 -0.1702 -0.0570
 2048SOL    HW111981   8.123   6.065  11.851 -2.2899 -0.2738  1.0195
 2048SOL    HW211982   8.222   6.041  11.963 -0.7048  0.6470 -0.1394
 2049SOL     OW11983   9.720   2.653   7.934 -0.5659 -0.1896  0.0545
 2049SOL    HW111984   9.730   2.704   8.014 -0.3183 -0.0434 -0.0653
 2049SOL    HW211985   9.646   2.595   7.950 -0.5280 -0.1465  0.3817
 2050SOL     OW11986  12.264   9.814   1.280 -0.0364 -0.3342 -0.2132
 2050SOL    HW111987  12.290   9.899   1.244  1.9592 -0.2909  1.1882
 2050SOL    HW211988  12.258   9.757   1.204 -2.9095  1.3178 -1.3923
 2051SOL     OW11989   4.035   1.035   8.652 -0.5014 -0.1062  0.7068
 2051SOL    HW111990   4.082   1.021   8.570 -2.0867 -0.8348 -0.1251
 2051SOL    HW211991   3.953   1.078   8.626  0.0461  1.9867  2.2065
 2052SOL     OW11992   2.094   0.391   9.454 -0.4056 -0.0749 -0.0208
 2052SOL    HW111993   2.073   0.484   9.458 -1.1831 -0.1909 -0.9652
 2052SOL    HW211994   2.162   0.384   9.388 -1.4523 -0.3293 -1.1102
 2053SOL     OW11995  12.209   3.592   3.737  0.0098  0.2282 -0.2587
 2053SOL    HW111996  12.144   3.552   3.679  0.0964  1.4708 -1.2498
 2053SOL    HW211997  12.166   3.595   3.823 -0.2338 -1.3451 -0.3041
 2054SOL     OW11998   9.292   2.961   7.885  0.0355 -0.3790  0.2729
 2054SOL    HW111999   9.268   2.908   7.809 -0.3169 -2.0984  1.5226
 2054SOL    HW212000   9.387   2.953   7.892  0.0868 -0.0815 -0.0770
 2055SOL     OW12001  11.484   9.039   5.622 -0.3569  0.5432 -0.2890
 2055SOL    HW112002  11.468   8.953   5.582  0.1891 -0.0722  0.7821
 2055SOL    HW212003  11.415   9.095   5.586 -1.7326 -0.7407  0.2421
 2056SOL     OW12004   8.179   2.598   7.848  0.4427  0.1455  0.5087
 2056SOL    HW112005   8.147   2.684   7.823  1.4197  0.3570 -0.0938
 2056SOL    HW212006   8.264   2.615   7.889  0.2237 -0.4570  1.2212
 2057SOL     OW12007   8.329   1.526  10.171 -0.0114 -0.2562  0.1785
 2057SOL    HW112008   8.256   1.524  10.109  0.4996  1.0021 -0.4912
 2057SOL    HW212009   8.311   1.601  10.227  0.9638  0.3419 -0.2719
 2058SOL     OW12010   8.220   3.575   6.360 -0.4650  0.0448 -0.0206
 2058SOL    HW112011   8.126   3.554   6.360 -0.1349 -1.6752  1.3398
 2058SOL    HW212012   8.230   3.639   6.289 -2.5029 -0.4087 -0.8031
 2059SOL     OW12013   0.736  11.020   6.416  0.3664 -0.4688 -0.6583
 2059SOL    HW112014   0.704  10.951   6.474  1.7753  0.0675  0.8543
 2059SOL    HW212015   0.678  11.018   6.340 -1.5519 -1.2160  0.7755
 2060SOL     OW12016   4.321   7.688   1.711  0.1681  0.2942 -0.3512
 2060SOL    HW112017   4.263   7.700   1.636 -3.0321  0.1075  1.8749
 2060SOL    HW212018   4.343   7.777   1.739 -1.2567  0.4619  0.2986
 2061SOL     OW12019   2.011  12.193   3.909 -0.0716  0.3805  0.0304
 2061SOL    HW112020   2.092  12.194   3.961  0.5836  0.2162 -0.9518
 2061SOL    HW212021   2.034  12.240   3.829 -1.6008  2.2511  0.6120
 2062SOL     OW12022  10.444   6.419   0.312 -0.1251  0.4723  0.1851
 2062SOL    HW112023  10.501   6.342   0.313 -0.6219  0.0890 -0.4691
 2062SOL    HW212024  10.431   6.439   0.219 -1.7368  0.0362  0.2793
 2063SOL     OW12025   5.649   3.523   9.276  0.1722  0.0436  0.0491
 2063SOL    HW112026   5.641   3.566   9.191 -1.0865  1.2192  0.7268
 2063SOL    HW212027   5.684   3.436   9.255 -0.3411  0.2096 -1.6925
 2064SOL     OW12028   6.020   4.069   6.017 -0.2264 -0.0144 -0.0333
 2064SOL    HW112029   6.052   4.023   6.094  2.0746 -0.2825 -1.0720
 2064SOL    HW212030   6.056   4.158   6.025 -2.1527  0.7807  0.4539
 2065SOL     OW12031  10.015   9.451  11.775  0.0748 -0.4439 -0.0680
 2065SOL    HW112032  10.068   9.491  11.844  2.7390 -2.3566 -0.8578
 2065SOL    HW212033  10.054   9.482  11.693 -0.9905 -0.7535 -0.7096
 2066SOL     OW12034   8.944  10.045   1.830 -0.2548  0.0698 -0.1202
 2066SOL    HW112035   8.873  10.105   1.854  1.1374  0.9293  2.1772
 2066SOL    HW212036   8.946   9.981   1.901  1.0737 -0.1174 -0.3057
 2067SOL     OW12037   3.337   3.900   0.394 -0.1610  0.0256 -0.2812
 2067SOL    HW112038   3.260   3.854   0.361  0.1838 -0.9040  0.2001
 2067SOL    HW212039   3.407   3.875   0.334 -0.2310  0.9365 -0.7681
 2068SOL     OW12040   6.650   1.474  10.974 -0.1436  0.0053  0.4408
 2068SOL    HW112041   6.696   1.549  11.014  1.6692 -1.1062  0.5627
 2068SOL    HW212042   6.653   1.406  11.041  1.9883 -1.5325 -1.0675
 2069SOL     OW12043   0.712   6.955   8.033  0.0113  0.0230 -0.0909
 2069SOL    HW112044   0.784   6.899   8.063 -0.9627 -1.0696  0.2582
 2069SOL    HW212045   0.742   7.044   8.053  1.2907 -0.4006 -0.0163
 2070SOL     OW12046  11.888   2.693   8.919  0.1268 -0.3715 -0.1043
 2070SOL    HW112047  11.848   2.611   8.947  2.1944 -0.8946  1.5949
 2070SOL    HW212048  11.840   2.761   8.968  0.1348 -0.8211  0.5368
 2071SOL     OW12049  11.391   6.244   2.379 -0.1188 -0.3388 -0.2028
 2071SOL    HW112050  11.374   6.150   2.381  0.8366 -0.5840  3.3941
 2071SOL    HW212051  11.305   6.284   2.370 -0.6158 -1.5177 -0.9395
 2072SOL     OW12052   4.415   0.198   9.179 -0.8699  0.3766  0.2972
 2072SOL    HW112053   4.383   0.238   9.260 -0.5307  1.2021  0.0458
 2072SOL    HW212054   4.455   0.116   9.207  1.0340  1.5464  1.2896
 2073SOL     OW12055   8.091   2.813   9.084 -0.1171 -0.7470  0.5572
 2073SOL    HW112056   8.151   2.853   9.020  0.7698 -3.1492 -0.2044
 2073SOL    HW212057   8.036   2.755   9.032 -1.2822 -0.6431  1.6361
 2074SOL     OW12058   4.837   3.315  11.354 -0.2058 -0.3634  0.2427
 2074SOL    HW112059   4.761   3.329  11.411 -1.8090  0.7477 -2.0049
 2074SOL    HW212060   4.836   3.221  11.336 -0.8828 -0.4037  0.4524
 2075SOL     OW12061   2.088   8.973   1.382 -0.2351 -0.2524 -0.2436
 2075SOL    HW112062   2.150   9.012   1.444 -1.8368 -0.5702  1.6541
 2075SOL    HW212063   2.048   8.901   1.431 -2.0727 -0.0751 -1.4161
 2076SOL     OW12064   5.933   9.757   5.823 -0.4898  0.2966  0.1681
 2076SOL    HW112065   5.844   9.722   5.834  0.1634 -1.1617  1.1558
 2076SOL    HW212066   5.987   9.703   5.881  0.8898  1.8285  0.3813
 2077SOL     OW12067   5.208   1.942   8.281 -0.3698 -0.1905  0.3851
 2077SOL    HW112068   5.258   1.895   8.215  0.5105 -0.5185  1.2575
 2077SOL    HW212069   5.207   1.884   8.357 -1.5690  0.0758  0.5930
 2078SOL     OW12070  11.193   5.147  11.101  0.0435  0.3065 -1.2366
 2078SOL    HW112071  11.130   5.173  11.168  1.3660 -2.0857  1.1481
 2078SOL    HW212072  11.147   5.079  11.051  0.2647 -0.5591 -0.2955
 2079SOL     OW12073   6.326   6.977   5.845 -0.3970 -0.3301 -0.0513
 2079SOL    HW112074   6.261   7.047   5.845 -0.0720 -0.0244  0.5278
 2079SOL    HW212075   6.281   6.903   5.886 -2.4540 -2.1487 -4.7492
 2080SOL     OW12076  10.121   2.513   6.965  0.0947  0.1089  0.3149
 2080SOL    HW112077  10.156   2.527   7.053 -2.2630 -2.5018  1.8328
 2080SOL    HW212078  10.065   2.436   6.973 -0.5061 -0.0541 -3.4443
 2081SOL     OW12079   0.331   2.640   6.486  0.1442 -0.4822  0.2125
 2081SOL    HW112080   0.386   2.608   6.414 -0.3901  1.0150 -0.9297
 2081SOL    HW212081   0.375   2.608   6.565  1.2030 -1.5132 -0.7310
 2082SOL     OW12082  10.058   6.680   3.733  0.0887  0.3513  0.8031
 2082SOL    HW112083  10.033   6.591   3.757  0.2193 -0.1355 -0.7155
 2082SOL    HW212084  10.153   6.683   3.748  0.2961 -0.1841 -0.2350
 2083SOL     OW12085   0.763   1.784   7.879  0.2033 -0.0314 -0.1330
 2083SOL    HW112086   0.788   1.871   7.908  1.4715 -0.9906  1.9002
 2083SOL    HW212087   0.668   1.780   7.892  0.2638  0.7565  0.5630
 2084SOL     OW12088   7.657   3.729   8.744 -0.3766 -0.3267  0.0898
 2084SOL    HW112089   7.610   3.709   8.825  0.2618  0.6202  0.7264
 2084SOL    HW212090   7.748   3.742   8.772 -0.2959  0.8216 -0.6442
 2085SOL     OW12091  11.199   3.824   5.506  0.2029  0.0233 -0.0845
 2085SOL    HW112092  11.172   3.916   5.509 -1.2678 -0.3732 -0.1207
 2085SOL    HW212093  11.118   3.775   5.524  0.6507 -1.2858 -1.4007
 2086SOL     OW12094   2.101  12.130   8.528  0.2798 -0.0145  0.3262
 2086SOL    HW112095   2.081  12.117   8.621  1.4557  2.4484  0.9985
 2086SOL    HW212096   2.015  12.142   8.486 -0.3000  4.7793  2.1975
 2087SOL     OW12097   9.396   9.946   4.475 -0.0350 -0.3171  0.5238
 2087SOL    HW112098   9.434   9.926   4.390 -0.1310 -2.5285  0.9549
 2087SOL    HW212099   9.302   9.933   4.464  0.0861 -2.1251  1.3104
 2088SOL     OW12100  12.315   7.804   2.487 -0.0693  0.0871 -0.5810
 2088SOL    HW112101  12.250   7.795   2.418 -0.6864 -0.5485  0.0620
 2088SOL    HW212102  12.371   7.877   2.459 -1.2252  0.8218 -1.0158
 2089SOL     OW12103  10.680   1.807   4.756  0.1829  0.2132 -0.0827
 2089SOL    HW112104  10.741   1.762   4.813  2.1502  2.6329 -0.0914
 2089SOL    HW212105  10.691   1.765   4.671  0.6532 -0.4160  0.2839
 2090SOL     OW12106   2.130   9.642   6.819 -0.3581  0.0440 -0.0641
 2090SOL    HW112107   2.218   9.605   6.829 -0.6282 -0.7553 -0.5974
 2090SOL    HW212108   2.128   9.674   6.729  0.1751  2.2210  0.6226
 2091SOL     OW12109   6.981   3.162   9.117  0.3730 -0.0932 -0.3148
 2091SOL    HW112110   7.031   3.089   9.152 -2.8574 -1.7707  1.2262
 2091SOL    HW212111   6.930   3.124   9.045 -0.3152  0.9807 -0.4156
 2092SOL     OW12112   6.310   3.219   1.073  0.3078 -0.2037  0.0595
 2092SOL    HW112113   6.381   3.268   1.116  0.9777 -0.7685 -0.3925
 2092SOL    HW212114   6.320   3.239   0.980  1.6010 -2.4443 -0.3389
 2093SOL     OW12115   1.803   1.753   8.983 -0.2293  0.5236 -0.0714
 2093SOL    HW112116   1.761   1.735   8.899  2.1920 -0.0773 -1.2614
 2093SOL    HW212117   1.841   1.840   8.972  0.0898  0.4434  0.3737
 2094SOL     OW12118   8.152   3.102   2.300 -0.0227 -0.0633 -0.1155
 2094SOL    HW112119   8.160   3.060   2.385  1.0090  0.2056 -0.0632
 2094SOL    HW212120   8.192   3.040   2.239  0.7007  0.4301 -0.1609
 2095SOL     OW12121   1.542  10.316   1.234  0.3443  0.8048  0.2788
 2095SOL    HW112122   1.515  10.230   1.269 -0.2676  0.7500 -0.3147
 2095SOL    HW212123   1.634  10.305   1.212 -0.1257 -0.2261 -1.3318
 2096SOL     OW12124  10.975   7.314   5.019  0.1740  0.6965  0.0707
 2096SOL    HW112125  10.954   7.404   4.996 -1.7998  0.1921 -0.3106
 2096SOL    HW212126  10.890   7.270   5.026  1.0891 -1.3607 -0.7246
 2097SOL     OW12127  10.954   0.694   9.989 -0.6870 -0.3561 -0.2422
 2097SOL    HW112128  10.978   0.745  10.067 -0.6190  2.6972 -2.0839
 2097SOL    HW212129  10.901   0.622  10.023  0.5701 -0.0193  2.7292
 2098SOL     OW12130   5.778   2.576   9.271  0.0245  0.4561  0.0500
 2098SOL    HW112131   5.723   2.499   9.263 -0.8662  1.2362 -2.5983
 2098SOL    HW212132   5.742   2.625   9.345 -2.0182  0.2620 -0.7475
 2099SOL     OW12133   3.580   9.731   5.433 -0.0502 -0.5027  0.5232
 2099SOL    HW112134   3.583   9.710   5.340  0.1419  1.2204  0.0909
 2099SOL    HW212135   3.524   9.665   5.472 -0.7347 -0.8195 -0.9473
 2100SOL     OW12136   5.072   8.116   2.034 -0.0762 -0.0212  0.1272
 2100SOL    HW112137   5.111   8.150   1.954 -0.5330  2.8186  0.9896
 2100SOL    HW212138   4.980   8.143   2.030  0.2744  1.8023  2.3289
 2101SOL     OW12139   4.222   7.638   2.713  0.5000 -0.0663  0.6936
 2101SOL    HW112140   4.315   7.656   2.702  0.1547  1.6919  0.2503
 2101SOL    HW212141   4.205   7.655   2.806  0.2364  1.8269  0.3387
 2102SOL     OW12142   0.726  12.141   3.386 -0.6443 -0.1370 -0.2389
 2102SOL    HW112143   0.793  12.171   3.448 -0.1551 -0.4361 -0.6159
 2102SOL    HW212144   0.643  12.152   3.433 -0.5247  2.0295 -0.4285
 2103SOL     OW12145  12.168   5.793   3.890  0.1563  0.5905 -0.3664
 2103SOL    HW112146  12.188   5.724   3.953 -2.1030 -0.3713 -0.6071
 2103SOL    HW212147  12.252   5.814   3.850  1.3604 -0.0037  1.6916
 2104SOL     OW12148   9.452   5.350   9.125  0.7394  1.1360  0.0202
 2104SOL    HW112149   9.409   5.279   9.078 -1.2629  1.9264  0.5400
 2104SOL    HW212150   9.545   5.342   9.101  0.3973 -0.8845 -0.8637
 2105SOL     OW12151   2.645   1.136   5.131  0.0168  0.1101 -0.1105
 2105SOL    HW112152   2.736   1.107   5.128  0.4560  1.1942  1.4389
 2105SOL    HW212153   2.620   1.129   5.223 -1.5539 -0.3813 -0.5358
 2106SOL     OW12154   2.030  11.664   0.616  0.0329  0.1734  0.3614
 2106SOL    HW112155   1.996  11.642   0.703  0.8102  3.2849  1.5864
 2106SOL    HW212156   2.094  11.733   0.632 -0.6805  1.7633 -2.7931
 2107SOL     OW12157  12.294   3.276   3.985  0.1129 -0.0331  0.7049
 2107SOL    HW112158  12.351   3.353   3.992  0.4342 -0.0306 -1.2281
 2107SOL    HW212159  12.266   3.258   4.075  2.5113  0.4546  1.6398
 2108SOL     OW12160   2.740   8.982   1.434  0.0462  0.0663  0.2319
 2108SOL    HW112161   2.726   9.043   1.506  2.3959  0.4109  0.4846
 2108SOL    HW212162   2.792   8.911   1.472 -2.1781 -1.8877 -0.1943
 2109SOL     OW12163   4.672   4.988   4.098  0.1804  0.7291 -0.2228
 2109SOL    HW112164   4.625   5.068   4.078 -1.6928  0.6507  3.0520
 2109SOL    HW212165   4.611   4.917   4.076 -0.3313  0.5188  1.6558
 2110SOL     OW12166   8.154   5.035   6.975 -0.1465 -0.5052 -0.0316
 2110SOL    HW112167   8.156   5.119   7.020  0.6724 -0.8997  0.7049
 2110SOL    HW212168   8.151   5.057   6.882 -0.6157  0.3271  0.1739
 2111SOL     OW12169  10.650   1.555   5.649 -0.2107  0.2124  0.2709
 2111SOL    HW112170  10.629   1.616   5.578 -0.5452 -1.1744 -0.8645
 2111SOL    HW212171  10.604   1.475   5.626 -1.5518  0.1388  2.8464
 2112SOL     OW12172  12.249   4.047  10.470 -0.2080  0.0142 -0.4288
 2112SOL    HW112173  12.226   4.140  10.474  0.7361  0.2344  0.1013
 2112SOL    HW212174  12.331   4.041  10.518 -0.6718 -1.2365  0.2419
 2113SOL     OW12175   2.094   8.383   7.732  0.2586  0.4009 -0.2532
 2113SOL    HW112176   2.036   8.351   7.801  0.4393 -0.4795 -0.4994
 2113SOL    HW212177   2.145   8.306   7.706 -2.3458 -0.3523 -3.9575
 2114SOL     OW12178   0.272   7.592   4.314 -0.5202  0.1945 -0.4414
 2114SOL    HW112179   0.361   7.568   4.289 -0.8510 -2.6578  0.8001
 2114SOL    HW212180   0.216   7.538   4.259 -1.4258  0.2497  0.3944
 2115SOL     OW12181   4.140  10.742   9.822 -0.4448 -0.1486 -0.0434
 2115SOL    HW112182   4.065  10.790   9.788  1.5344  1.0638 -3.0680
 2115SOL    HW212183   4.160  10.677   9.755  1.2769 -0.3563  0.6278
 2116SOL     OW12184   8.859   0.243   0.406 -0.4368 -0.3627 -0.5458
 2116SOL    HW112185   8.808   0.286   0.475  2.6433  0.2966  1.5512
 2116SOL    HW212186   8.879   0.156   0.442 -1.3328 -1.2264 -2.0270
 2117SOL     OW12187   0.994   5.142   2.303 -0.2569  0.1944  0.2734
 2117SOL    HW112188   1.081   5.170   2.273 -0.1637 -0.3945 -0.0285
 2117SOL    HW212189   1.002   5.047   2.311 -0.1433  0.3369  2.5866
 2118SOL     OW12190   8.933   9.174   5.543 -0.3934 -0.1042  0.3043
 2118SOL    HW112191   9.003   9.118   5.510  0.6004 -0.5791  2.9755
 2118SOL    HW212192   8.872   9.114   5.585 -0.1578  0.6303  1.7648
 2119SOL     OW12193   7.786   2.490   3.181  0.1290 -0.5738 -0.0603
 2119SOL    HW112194   7.752   2.408   3.217 -0.1255 -0.6149 -0.3870
 2119SOL    HW212195   7.876   2.470   3.156  0.0201 -0.7998 -0.2783
 2120SOL     OW12196   8.975   2.078   7.876  0.2196 -0.0698  0.4014
 2120SOL    HW112197   8.924   2.159   7.863 -0.2134 -0.2088  1.1230
 2120SOL    HW212198   8.911   2.016   7.912  0.8688 -0.2888  1.2055
 2121SOL     OW12199  10.911   2.766  10.111 -0.4141  0.3270 -0.0748
 2121SOL    HW112200  10.839   2.819  10.075  0.6620  2.1598  0.3262
 2121SOL    HW212201  10.875   2.678  10.118 -1.8271  0.6508 -2.2148
 2122SOL     OW12202  11.656   6.636   6.579 -0.3404  0.3644 -0.3476
 2122SOL    HW112203  11.680   6.543   6.588 -1.9496  0.0071  0.6304
 2122SOL    HW212204  11.660   6.670   6.668 -1.1355  0.8751 -0.4969
 2123SOL     OW12205   8.939  10.575  12.287 -0.3245 -0.0292 -0.2268
 2123SOL    HW112206   8.886  10.531  12.354 -2.0651 -1.4545 -2.4005
 2123SOL    HW212207   8.905  10.665  12.286  2.2599  1.2135  3.2264
 2124SOL     OW12208   2.134   2.632   3.888 -0.4685  0.1036 -0.5096
 2124SOL    HW112209   2.181   2.655   3.968  0.2223  1.3536 -1.2467
 2124SOL    HW212210   2.045   2.665   3.903 -0.1210  1.1139 -0.5745
 2125SOL     OW12211   6.068   7.607   8.885  0.4116 -0.1198  0.1078
 2125SOL    HW112212   6.013   7.530   8.874  0.6830 -0.0190 -2.4015
 2125SOL    HW212213   6.026   7.656   8.956 -0.5454 -1.8828  0.8173
 2126SOL     OW12214   4.070  11.204   5.266  0.1631 -0.1052  0.3587
 2126SOL    HW112215   4.094  11.112   5.273 -0.2471 -0.2559 -0.1569
 2126SOL    HW212216   4.118  11.247   5.337  1.5894 -0.4663 -0.3402
 2127SOL     OW12217   6.111   8.170   1.227 -0.4248  0.4583 -0.0428
 2127SOL    HW112218   6.157   8.225   1.291 -0.5990  1.6558 -0.9014
 2127SOL    HW212219   6.178   8.112   1.192 -0.2777 -0.0425  1.0303
 2128SOL     OW12220   6.779  12.171   9.648  0.4944  0.4111 -0.1497
 2128SOL    HW112221   6.725  12.237   9.693 -1.5129 -0.5004 -1.0520
 2128SOL    HW212222   6.800  12.213   9.564 -0.3394  0.1476 -0.5092
 2129SOL     OW12223   0.264   2.566   2.905  0.3466 -0.4835 -0.4242
 2129SOL    HW112224   0.217   2.557   2.988  0.1409 -0.3487 -0.5251
 2129SOL    HW212225   0.311   2.483   2.895  0.4110 -0.4806 -0.1490
 2130SOL     OW12226   3.497  11.686   9.938  0.3337 -0.2544 -0.0824
 2130SOL    HW112227   3.522  11.736  10.015 -1.1254 -1.2475  1.0876
 2130SOL    HW212228   3.556  11.611   9.938  0.7384  0.0562 -0.3083
 2131SOL     OW12229   7.707   2.288   9.063 -0.9963  0.5167 -0.5541
 2131SOL    HW112230   7.760   2.292   9.142 -2.2857  1.3088  0.3097
 2131SOL    HW212231   7.738   2.211   9.016 -1.1762 -0.8206  1.4273
 2132SOL     OW12232   9.101   7.072   6.726 -0.0754  0.6059 -0.1016
 2132SOL    HW112233   9.191   7.058   6.755  0.2754  0.6121 -1.1425
 2132SOL    HW212234   9.077   6.990   6.682 -0.5232  0.6700  0.0147
 2133SOL     OW12235   2.038  10.729   5.506  0.6372  0.5368  0.1768
 2133SOL    HW112236   2.083  10.784   5.569 -0.0695  0.1841  1.0051
 2133SOL    HW212237   2.103  10.664   5.480  1.7541  2.1818 -1.4366
 2134SOL     OW12238   9.610   8.881   1.013 -0.3357 -0.0938  0.1917
 2134SOL    HW112239   9.524   8.844   0.994  0.3550 -1.7027  0.1201
 2134SOL    HW212240   9.631   8.934   0.936 -0.2984 -1.5051 -0.7940
 2135SOL     OW12241   6.190   7.043  11.662 -0.2246 -0.6575  0.0180
 2135SOL    HW112242   6.200   6.949  11.678  1.5852 -0.3669  0.8150
 2135SOL    HW212243   6.139   7.075  11.736 -0.5418 -0.9475 -0.0723
 2136SOL     OW12244   9.155   6.609   6.904 -0.3140  0.2026 -0.1225
 2136SOL    HW112245   9.136   6.519   6.879 -0.4996 -0.0072  0.7399
 2136SOL    HW212246   9.075   6.657   6.885 -0.5981 -0.0384  0.4577
 2137SOL     OW12247   2.987   1.546   8.791  0.3288  0.1680 -0.1570
 2137SOL    HW112248   2.989   1.597   8.710  0.9849 -0.5003 -0.5720
 2137SOL    HW212249   2.960   1.608   8.858  2.2446  1.3767 -0.4359
 2138SOL     OW12250   4.315   8.736  12.278  0.3811 -0.6046 -0.7503
 2138SOL    HW112251   4.370   8.815  12.277 -0.4651  0.0425  0.9765
 2138SOL    HW212252   4.226   8.769  12.271  0.0876 -1.5427 -1.7106
 2139SOL     OW12253   1.104   4.655   6.082 -0.1539 -0.2202  0.5114
 2139SOL    HW112254   1.021   4.631   6.041 -0.3093  0.0154  0.6897
 2139SOL    HW212255   1.088   4.647   6.176 -0.7491  2.2627  0.6866
 2140SOL     OW12256   8.509   1.399   9.306  0.5414  0.2845  0.8464
 2140SOL    HW112257   8.434   1.458   9.298  0.4831  0.0318 -0.9290
 2140SOL    HW212258   8.493   1.332   9.240  1.7888 -0.3857  1.2020
 2141SOL     OW12259   2.157   5.500   8.172  0.2146  0.2157  0.6774
 2141SOL    HW112260   2.217   5.521   8.100 -1.0590  1.4985 -0.0566
 2141SOL    HW212261   2.171   5.570   8.236 -0.8760  0.8576  0.2390
 2142SOL     OW12262   2.779   3.516   2.524 -0.7104  0.0931 -0.6789
 2142SOL    HW112263   2.739   3.435   2.557 -2.6064  0.9224 -0.8514
 2142SOL    HW212264   2.866   3.489   2.495  0.0995 -1.1887  2.5485
 2143SOL     OW12265   1.275   2.022   9.891 -0.4906 -0.6741  0.1817
 2143SOL    HW112266   1.207   1.966   9.928 -0.6514  0.2470  1.3338
 2143SOL    HW212267   1.260   2.108   9.930  1.4924 -0.4997  0.7015
 2144SOL     OW12268   9.477  10.391   9.547  0.1854  0.0058 -0.6079
 2144SOL    HW112269   9.566  10.397   9.513  1.0510 -2.9001  0.7945
 2144SOL    HW212270   9.485  10.416   9.639 -0.4906 -0.1333 -0.5045
 2145SOL     OW12271   7.595   1.794   8.182  0.1731 -0.2903 -0.0157
 2145SOL    HW112272   7.584   1.888   8.195 -1.8536 -0.6187  0.9505
 2145SOL    HW212273   7.539   1.773   8.107 -0.7481 -0.9868  0.8480
 2146SOL     OW12274   9.610  10.893  11.799  0.0076  0.4453  0.0408
 2146SOL    HW112275   9.684  10.940  11.838  0.4842  1.2910 -1.7594
 2146SOL    HW212276   9.541  10.896  11.865  0.9014  1.4658  0.9567
 2147SOL     OW12277   4.230   3.340   0.224 -0.2266 -0.3034  0.0829
 2147SOL    HW112278   4.145   3.330   0.267 -0.2781 -1.3863 -0.2384
 2147SOL    HW212279   4.270   3.253   0.230  0.5402  0.0015 -0.4472
 2148SOL     OW12280  11.932   5.082   0.131  0.2613  0.0106  0.4282
 2148SOL    HW112281  11.993   5.062   0.060 -2.0261  0.1886 -1.7202
 2148SOL    HW212282  11.892   5.165   0.106 -1.7473 -0.6973  1.0860
 2149SOL     OW12283   0.202   1.779   5.934  0.8790 -0.0959  0.4476
 2149SOL    HW112284   0.238   1.858   5.973  2.1620 -0.4137 -0.0638
 2149SOL    HW212285   0.278   1.730   5.904  0.0312 -0.8796 -0.4809
 2150SOL     OW12286   2.629   8.273   1.235 -0.1355  0.2728 -0.3528
 2150SOL    HW112287   2.701   8.209   1.229 -0.1880 -0.0231  1.5340
 2150SOL    HW212288   2.668   8.356   1.209  0.8247  0.0539  0.3375
 2151SOL     OW12289   6.410   5.439   0.303  0.2538 -0.5624 -0.1852
 2151SOL    HW112290   6.377   5.454   0.391 -0.7951  0.9250 -0.8031
 2151SOL    HW212291   6.389   5.347   0.285 -0.0922 -0.7006  0.8623
 2152SOL     OW12292   1.318   8.656   9.886  0.0716  0.5955 -0.1316
 2152SOL    HW112293   1.409   8.627   9.880 -0.1645  0.0865 -1.8389
 2152SOL    HW212294   1.322   8.739   9.934  1.3576  0.3181  0.2776
 2153SOL     OW12295  11.804   0.550  10.231 -0.3912  0.1902  0.6094
 2153SOL    HW112296  11.888   0.582  10.263  0.8423 -1.5840 -0.6560
 2153SOL    HW212297  11.802   0.458  10.257 -1.2352 -0.1935 -0.6827
 2154SOL     OW12298   9.145   2.304   7.671  0.3174 -0.3778 -0.3105
 2154SOL    HW112299   9.070   2.326   7.726 -0.2796  1.0324 -1.5927
 2154SOL    HW212300   9.181   2.224   7.709 -1.4401 -0.7252  0.7227
 2155SOL     OW12301   7.053   0.082  10.203  0.0089  0.1776 -0.3869
 2155SOL    HW112302   6.958   0.071  10.209  0.1230 -0.4997  0.5548
 2155SOL    HW212303   7.088   0.022  10.269  0.9660  2.5335  1.4237
 2156SOL     OW12304   6.612  11.786   8.632 -0.2304 -0.6517 -0.6032
 2156SOL    HW112305   6.556  11.802   8.708  1.2087 -0.5559  0.4908
 2156SOL    HW212306   6.691  11.746   8.669 -0.0245 -1.8371 -2.2229
 2157SOL     OW12307   7.542   3.897   0.768 -0.5905  0.1343  0.7369
 2157SOL    HW112308   7.539   3.802   0.781 -0.3274  0.0403  0.1580
 2157SOL    HW212309   7.502   3.934   0.846 -1.2847 -0.4763  0.6762
 2158SOL     OW12310   3.784   0.419   4.862  0.5584  0.0146 -0.1682
 2158SOL    HW112311   3.716   0.352   4.876  0.3501  0.1472 -0.5315
 2158SOL    HW212312   3.768   0.451   4.773  1.7899 -0.7482 -0.6911
 2159SOL     OW12313   1.242   4.719   0.544  0.9038  0.5355  0.5198
 2159SOL    HW112314   1.224   4.813   0.542 -0.0535  0.3578  0.2450
 2159SOL    HW212315   1.251   4.694   0.452  1.2935  0.3796  0.5984
 2160SOL     OW12316   2.228   8.387   0.036 -0.0533 -0.1820  0.4841
 2160SOL    HW112317   2.213   8.406   0.129  0.6203 -0.9954  0.7698
 2160SOL    HW212318   2.283   8.309   0.036 -1.8425 -1.5255 -0.6453
 2161SOL     OW12319  10.578   0.782   8.825  0.4756  0.4898 -0.3045
 2161SOL    HW112320  10.660   0.776   8.777 -0.1142  1.1552 -1.4466
 2161SOL    HW212321  10.529   0.704   8.798 -0.0826  1.1528 -1.2491
 2162SOL     OW12322   8.403   8.280   5.158 -0.2641 -0.3353  0.2647
 2162SOL    HW112323   8.386   8.311   5.246 -0.7860 -2.4030  0.9478
 2162SOL    HW212324   8.472   8.338   5.125  0.1063  0.3331  2.1077
 2163SOL     OW12325   5.879   2.968  10.208  0.5321 -0.1629 -0.1795
 2163SOL    HW112326   5.936   3.044  10.202  1.2686 -0.6090  0.7590
 2163SOL    HW212327   5.878   2.946  10.302 -1.3977 -0.0209 -0.1270
 2164SOL     OW12328   6.594   4.445   9.640  0.0456 -1.0004  0.4520
 2164SOL    HW112329   6.504   4.477   9.648 -0.4478 -2.1601 -0.1994
 2164SOL    HW212330   6.594   4.390   9.561  2.5525  2.9233 -2.6800
 2165SOL     OW12331   2.443   5.147  11.659 -0.0638 -0.1991 -0.6172
 2165SOL    HW112332   2.522   5.095  11.671  1.1325  1.5892 -0.2985
 2165SOL    HW212333   2.418   5.174  11.747 -0.4341  0.0532 -0.7955
 2166SOL     OW12334   4.697   1.846   1.672 -0.8309  0.4529  0.3603
 2166SOL    HW112335   4.735   1.794   1.601  0.8000 -0.3675  1.7666
 2166SOL    HW212336   4.622   1.794   1.703 -0.2491 -0.2505  0.6228
 2167SOL     OW12337   4.893  10.120   0.207 -0.6525  0.5103 -0.2099
 2167SOL    HW112338   4.857  10.043   0.163 -1.3949  0.1669  0.9261
 2167SOL    HW212339   4.857  10.194   0.160 -1.7204  0.1555  0.0198
 2168SOL     OW12340   4.921   1.958   9.841  0.0221 -0.5062  0.9050
 2168SOL    HW112341   4.887   1.965   9.930  0.8662  0.0448  1.1944
 2168SOL    HW212342   5.016   1.957   9.851  0.1180 -1.0887  0.0502
 2169SOL     OW12343   3.335   1.810   3.503  0.1464  0.4845 -0.0639
 2169SOL    HW112344   3.290   1.727   3.485 -0.7749  1.1084 -0.7664
 2169SOL    HW212345   3.267   1.877   3.492  1.1390  1.4331 -0.7107
 2170SOL     OW12346   0.359   4.046  10.018 -0.2070 -0.2308  0.3684
 2170SOL    HW112347   0.331   3.976  10.077  0.4975 -0.0660  0.9074
 2170SOL    HW212348   0.359   4.125  10.073 -0.3730  0.0829 -0.0735
 2171SOL     OW12349   2.402   9.300   7.989  0.8652  0.6078  0.3542
 2171SOL    HW112350   2.370   9.243   8.059 -0.9816  0.8767 -0.2174
 2171SOL    HW212351   2.337   9.291   7.919  0.5967  3.2574  0.1694
 2172SOL     OW12352   6.461  10.743   7.491  0.3534  0.1728  0.4926
 2172SOL    HW112353   6.394  10.680   7.466  1.8029 -1.1737 -0.1868
 2172SOL    HW212354   6.414  10.826   7.500 -1.1783 -0.4246 -1.3146
 2173SOL     OW12355   4.435   2.507  10.335 -0.2146 -0.5250  0.4465
 2173SOL    HW112356   4.503   2.555  10.382  0.9549 -2.1238  0.4702
 2173SOL    HW212357   4.447   2.533  10.243 -0.1954 -0.1020  0.5644
 2174SOL     OW12358   4.459   5.557   8.052  0.4177 -0.4798  0.0453
 2174SOL    HW112359   4.511   5.501   8.109  1.9741  1.5580  0.7650
 2174SOL    HW212360   4.453   5.640   8.099 -1.9381 -0.0367 -0.8857
 2175SOL     OW12361   2.688   7.834   0.323 -0.1487  0.4718 -0.4180
 2175SOL    HW112362   2.718   7.915   0.281 -2.0106  1.1655 -0.5299
 2175SOL    HW212363   2.768   7.787   0.345  0.9590  1.7362 -1.5443
 2176SOL     OW12364   7.632   8.237  10.108 -0.1006  0.2697 -0.3827
 2176SOL    HW112365   7.706   8.295  10.091  2.0234 -1.7238  1.2971
 2176SOL    HW212366   7.653   8.157  10.061  0.9435 -1.7461  3.1044
 2177SOL     OW12367   7.756   9.800   4.588  0.0663 -0.6234  0.3316
 2177SOL    HW112368   7.677   9.854   4.583  0.8966  0.6818  0.8833
 2177SOL    HW212369   7.727   9.719   4.629 -0.8944  0.0583  1.0456
 2178SOL     OW12370   0.126   4.534   3.193  0.5809  0.1974 -0.2412
 2178SOL    HW112371   0.141   4.622   3.226  3.1271 -0.1078 -0.3611
 2178SOL    HW212372   0.171   4.477   3.255  0.3192 -0.8834 -1.0061
 2179SOL     OW12373  12.202  10.172   4.876  1.3650  0.3917 -0.0683
 2179SOL    HW112374  12.227  10.084   4.849  1.9299  0.0297  1.5150
 2179SOL    HW212375  12.202  10.169   4.971 -1.3874  1.3471  0.0680
 2180SOL     OW12376   6.941   0.525   5.670 -0.2698 -0.0983 -0.1801
 2180SOL    HW112377   6.864   0.574   5.641  0.2037 -0.5382 -2.3084
 2180SOL    HW212378   6.912   0.479   5.749 -1.5509  1.3358  0.2352
 2181SOL     OW12379  10.098  10.836   3.741  0.3509 -0.3219 -0.3613
 2181SOL    HW112380  10.066  10.783   3.667  1.4465 -0.3235 -0.8570
 2181SOL    HW212381  10.062  10.793   3.818  0.5868 -1.3414 -0.7987
 2182SOL     OW12382   1.662   0.670   4.011  0.3974  0.3872 -0.6224
 2182SOL    HW112383   1.745   0.718   4.016  0.4810  0.2717 -0.8835
 2182SOL    HW212384   1.596   0.738   3.998  0.5356  0.4232 -1.1716
 2183SOL     OW12385  11.345   9.253   7.713  0.2056  0.0559  0.1227
 2183SOL    HW112386  11.352   9.279   7.805 -1.1489 -1.7592  0.8057
 2183SOL    HW212387  11.250   9.248   7.697  0.3174 -3.2250 -0.1963
 2184SOL     OW12388   6.165  12.163   6.050 -0.5113  0.2709  0.3545
 2184SOL    HW112389   6.071  12.176   6.060 -0.8624 -1.0976 -0.8041
 2184SOL    HW212390   6.173  12.076   6.011  1.1582  0.8722 -0.7508
 2185SOL     OW12391   9.097   7.263   0.551  0.0953  0.1854  0.0555
 2185SOL    HW112392   9.060   7.191   0.603 -2.7390  1.5465  0.1122
 2185SOL    HW212393   9.109   7.225   0.464  0.1055 -0.7676  0.4586
 2186SOL     OW12394   1.141   3.817  10.285 -0.6575 -0.1987 -0.3163
 2186SOL    HW112395   1.176   3.808  10.196 -0.7291 -2.6031 -0.1799
 2186SOL    HW212396   1.056   3.774  10.282  0.4850 -2.9285  1.4525
 2187SOL     OW12397   3.815   6.942   7.958 -0.5381  0.5511  0.1018
 2187SOL    HW112398   3.798   7.036   7.949  0.5628  0.8222  0.6955
 2187SOL    HW212399   3.895   6.927   7.910 -0.0299  0.1620  1.0382
 2188SOL     OW12400  10.188  11.383   3.260 -0.2111  0.3800  0.0662
 2188SOL    HW112401  10.156  11.317   3.321 -1.0340 -2.3019 -2.9699
 2188SOL    HW212402  10.113  11.440   3.244 -0.6593 -0.2240 -0.0202
 2189SOL     OW12403   1.719   8.172   4.918 -0.0381 -0.2235  0.4984
 2189SOL    HW112404   1.696   8.265   4.912  0.9327 -0.0123 -0.3323
 2189SOL    HW212405   1.647   8.132   4.967 -0.1067  1.0922  1.5359
 2190SOL     OW12406   2.663   9.498   8.390  0.0596  0.6143 -0.2869
 2190SOL    HW112407   2.720   9.550   8.447  2.0562  0.5629 -2.1035
 2190SOL    HW212408   2.599   9.560   8.356  1.8015  1.7560 -1.6637
 2191SOL     OW12409   3.946  10.457  11.082  0.2113  0.6935  0.0545
 2191SOL    HW112410   3.878  10.475  11.017 -1.6214 -0.2573  1.5758
 2191SOL    HW212411   3.970  10.366  11.068  1.5730  1.1618 -0.7854
 2192SOL     OW12412   3.257   4.201   3.263  0.2829  0.2578 -0.0602
 2192SOL    HW112413   3.347   4.177   3.284  0.3139 -0.1089 -0.5889
 2192SOL    HW212414   3.209   4.191   3.345  0.4098 -1.0712 -0.1242
 2193SOL     OW12415   0.717  11.561   1.095 -0.2019 -0.4797  0.5631
 2193SOL    HW112416   0.739  11.629   1.158  1.7370 -1.4779  1.0424
 2193SOL    HW212417   0.629  11.532   1.120 -1.2826  2.0654  0.0787
 2194SOL     OW12418   9.361   9.168   7.762 -0.1398 -0.7137 -0.0792
 2194SOL    HW112419   9.306   9.192   7.837 -1.1470  0.5011 -1.1534
 2194SOL    HW212420   9.365   9.073   7.764  0.7866 -0.6958  2.1491
 2195SOL     OW12421   7.322   3.882  11.651 -0.1080 -0.0294 -0.2422
 2195SOL    HW112422   7.319   3.867  11.746 -1.7558 -0.9212 -0.3904
 2195SOL    HW212423   7.303   3.975  11.641  1.3447  0.3521  0.3377
 2196SOL     OW12424   6.398   2.749   9.492  0.3116 -0.1089 -0.2471
 2196SOL    HW112425   6.363   2.832   9.526 -1.5716 -2.3195  3.8966
 2196SOL    HW212426   6.480   2.736   9.540  0.5293 -0.7098 -0.7739
 2197SOL     OW12427   4.281   9.515   9.422  0.2334 -0.2429  0.5244
 2197SOL    HW112428   4.361   9.511   9.474  0.8959  0.3067 -0.4190
 2197SOL    HW212429   4.289   9.443   9.359 -0.8992 -1.3635  1.6051
 2198SOL     OW12430   0.455   5.352   4.401  0.1412 -0.0656 -0.3018
 2198SOL    HW112431   0.527   5.308   4.446 -0.1949  0.2561  0.5795
 2198SOL    HW212432   0.497   5.402   4.331  0.7589  0.0243  0.1298
 2199SOL     OW12433   1.913   5.531  11.073 -0.8327 -0.0153 -0.3591
 2199SOL    HW112434   1.949   5.495  10.992 -0.0917 -0.9598  0.3670
 2199SOL    HW212435   1.975   5.600  11.098  1.1630 -2.2737  1.4023
 2200SOL     OW12436   6.556   6.611   6.566 -0.2832  0.1532  0.5100
 2200SOL    HW112437   6.651   6.604   6.566 -0.3755 -1.3380  0.8008
 2200SOL    HW212438   6.530   6.588   6.655 -1.1183 -3.6414 -0.5344
 2201SOL     OW12439   0.454   6.506   4.965  0.2908  0.5743 -0.1582
 2201SOL    HW112440   0.460   6.440   4.895  0.4044  2.4792 -2.0466
 2201SOL    HW212441   0.504   6.580   4.932  0.4114  1.5394  2.0357
 2202SOL     OW12442   1.149   8.172   2.937  0.2213  0.2769 -0.2070
 2202SOL    HW112443   1.097   8.104   2.894  0.2232  0.1316  0.0179
 2202SOL    HW212444   1.217   8.193   2.873 -0.0429  0.3827 -0.4534
 2203SOL     OW12445   9.822  10.895  11.367  0.0732  0.2515  0.1237
 2203SOL    HW112446   9.810  10.986  11.338  2.1195  0.3450 -0.5576
 2203SOL    HW212447   9.893  10.899  11.430 -2.0799 -0.4585  2.8045
 2204SOL     OW12448   8.533   6.805   1.212 -0.2751  0.1205 -0.2356
 2204SOL    HW112449   8.455   6.797   1.267 -0.7554 -1.5125 -1.1168
 2204SOL    HW212450   8.563   6.715   1.198  0.6603  0.5935 -1.4954
 2205SOL     OW12451   6.573   9.431   1.538 -0.2734 -0.5617  0.2476
 2205SOL    HW112452   6.639   9.375   1.498  0.9839  1.4080 -0.6375
 2205SOL    HW212453   6.613   9.518   1.538 -2.0387  0.3216  1.7185
 2206SOL     OW12454   1.475   3.163   4.753 -0.0589 -0.2985 -0.1207
 2206SOL    HW112455   1.558   3.123   4.729  0.1019 -0.1032  0.1055
 2206SOL    HW212456   1.470   3.152   4.848 -1.3945 -2.4383 -0.3748
 2207SOL     OW12457   9.782   3.793   5.523  0.0220  0.1548 -0.1938
 2207SOL    HW112458   9.823   3.759   5.602  0.6805 -1.6149 -1.2274
 2207SOL    HW212459   9.697   3.825   5.552  0.4552  0.0401  1.2968
 2208SOL     OW12460   4.468   1.357   7.954 -0.6298  0.2685 -0.1461
 2208SOL    HW112461   4.483   1.450   7.969  0.3974  0.4636 -2.0466
 2208SOL    HW212462   4.383   1.354   7.910 -0.0378  0.4648 -1.3314
 2209SOL     OW12463   9.044   3.739   2.219  0.0541 -0.0882 -0.4658
 2209SOL    HW112464   8.968   3.684   2.240  0.1466  0.8493  3.0177
 2209SOL    HW212465   9.116   3.676   2.208 -0.1363 -0.8568  1.9794
 2210SOL     OW12466   2.442   2.947   8.118 -0.6322 -0.4444  0.4981
 2210SOL    HW112467   2.363   2.962   8.169 -1.2098  1.5840 -0.8564
 2210SOL    HW212468   2.473   2.860   8.145 -2.3589 -0.5628  2.2739
 2211SOL     OW12469   9.024  11.070   9.946 -0.1978 -0.1522 -0.2167
 2211SOL    HW112470   9.050  11.115  10.027  1.3404 -0.9135 -0.2465
 2211SOL    HW212471   8.958  11.007   9.973  0.2988 -0.3965  0.4675
 2212SOL     OW12472   1.970   5.885   5.900  0.0208 -0.2629 -0.4037
 2212SOL    HW112473   1.966   5.793   5.926 -0.5779 -0.5902 -1.5937
 2212SOL    HW212474   2.061   5.899   5.874 -0.1553 -0.8673 -1.3867
 2213SOL     OW12475  11.571   8.122   5.011  0.4374  0.2086 -0.1178
 2213SOL    HW112476  11.514   8.072   5.070  0.5598  0.5762  0.3189
 2213SOL    HW212477  11.602   8.195   5.065 -1.0773  1.7428 -1.2079
 2214SOL     OW12478   9.541   0.674  12.239 -0.5231  0.4402 -0.5719
 2214SOL    HW112479   9.569   0.760  12.271 -1.4302  0.3258  0.6086
 2214SOL    HW212480   9.524   0.623  12.319 -1.7775 -0.2280 -1.2284
 2215SOL     OW12481   7.467   5.296   3.154  0.1916  0.5759  0.4645
 2215SOL    HW112482   7.412   5.369   3.184 -0.9837  0.3080 -0.9250
 2215SOL    HW212483   7.509   5.329   3.075  0.1555 -0.0344  0.1904
 2216SOL     OW12484   3.605  10.915   0.338 -0.1510  0.1609  0.2940
 2216SOL    HW112485   3.569  11.003   0.337 -0.7420 -0.0759 -0.1425
 2216SOL    HW212486   3.585  10.880   0.251  0.9151 -0.0739  0.1266
 2217SOL     OW12487   7.720   2.982   4.511 -0.4739 -0.2112  0.4613
 2217SOL    HW112488   7.754   3.026   4.589 -0.2501 -1.0928  0.8748
 2217SOL    HW212489   7.628   2.963   4.532 -0.3913 -0.5223  0.5521
 2218SOL     OW12490  11.894   6.060   6.560 -0.0369 -0.0504 -0.1566
 2218SOL    HW112491  11.972   6.104   6.594 -0.8440  1.2432  0.0655
 2218SOL    HW212492  11.876   6.104   6.477  1.0681 -2.2170 -1.6599
 2219SOL     OW12493   6.566  10.915   3.453  0.1480  0.1314  0.0708
 2219SOL    HW112494   6.646  10.863   3.466 -0.4939 -0.7299  0.6355
 2219SOL    HW212495   6.502  10.853   3.420 -1.4448 -0.0973  3.2801
 2220SOL     OW12496   6.565   6.168   8.933  0.0894  0.8010 -0.0960
 2220SOL    HW112497   6.653   6.203   8.948  0.4857  0.0866 -0.6736
 2220SOL    HW212498   6.537   6.136   9.019  0.3309  1.1641  0.1224
 2221SOL     OW12499   6.996   5.851   8.890 -0.2401  0.5288  0.2622
 2221SOL    HW112500   6.910   5.875   8.858 -0.2236 -0.3350 -0.4835
 2221SOL    HW212501   7.007   5.900   8.971 -1.8074 -0.0409  0.8452
 2222SOL     OW12502   2.169   3.251   1.432  0.1289 -0.4469  0.3555
 2222SOL    HW112503   2.085   3.228   1.472 -0.0396  0.4648  0.5531
 2222SOL    HW212504   2.181   3.187   1.362 -1.1001 -0.1334 -0.1671
 2223SOL     OW12505   3.355   1.877   6.281  0.1261 -0.1826  0.1053
 2223SOL    HW112506   3.275   1.877   6.332 -1.1827  1.0831 -1.8072
 2223SOL    HW212507   3.393   1.964   6.294  0.4602 -0.2957 -0.0831
 2224SOL     OW12508   3.918  11.059   3.250 -0.3356  0.5372 -0.1745
 2224SOL    HW112509   3.974  11.000   3.199 -0.4597  0.4237 -0.1789
 2224SOL    HW212510   3.978  11.125   3.284 -0.0699 -0.0518  0.5139
 2225SOL     OW12511   2.981   7.851   1.043 -0.2242 -0.5576  0.5132
 2225SOL    HW112512   2.961   7.852   0.949  0.0331  0.7586  0.4522
 2225SOL    HW212513   2.946   7.767   1.074  0.1468 -1.2413 -0.8470
 2226SOL     OW12514  12.182   6.542   4.429 -0.0513 -0.0794  0.6985
 2226SOL    HW112515  12.130   6.540   4.510 -0.1414 -2.1812  0.6650
 2226SOL    HW212516  12.227   6.457   4.429  1.8016  0.8552 -0.2959
 2227SOL     OW12517   8.478  11.743   7.566 -0.1867 -0.5027 -0.0098
 2227SOL    HW112518   8.403  11.796   7.540 -0.8120 -0.0748  2.4926
 2227SOL    HW212519   8.469  11.732   7.660  2.6603 -0.8113  0.3121
 2228SOL     OW12520  12.076   5.775   2.501 -0.1292  0.0213  0.0448
 2228SOL    HW112521  12.026   5.857   2.499 -0.7406 -0.3176  0.8089
 2228SOL    HW212522  12.165   5.801   2.523 -0.0186  0.6040 -1.0117
 2229SOL     OW12523   0.716   3.567   7.378  0.0113 -0.7591  0.2192
 2229SOL    HW112524   0.637   3.608   7.343  0.5186  1.3547  1.3631
 2229SOL    HW212525   0.787   3.608   7.329  0.4476 -2.4473 -0.6126
 2230SOL     OW12526   8.502   8.326   8.763 -0.4645 -0.2399  0.0223
 2230SOL    HW112527   8.571   8.310   8.699 -0.9516 -0.3050 -0.4823
 2230SOL    HW212528   8.422   8.335   8.712 -1.2099 -2.2394  0.7353
 2231SOL     OW12529  12.074   5.811   3.381 -0.3854 -0.3394  0.2050
 2231SOL    HW112530  12.052   5.795   3.472 -0.2632  0.1067  0.3131
 2231SOL    HW212531  12.152   5.867   3.384 -0.4385 -0.2414 -0.1688
 2232SOL     OW12532   5.748   8.789  11.037 -0.0645 -0.5324  0.8316
 2232SOL    HW112533   5.792   8.711  11.002  0.3688  0.4437 -0.8945
 2232SOL    HW212534   5.804   8.817  11.110  1.7790  0.1887 -0.7835
 2233SOL     OW12535   6.675   7.156  10.399  0.2971 -0.0694 -0.1241
 2233SOL    HW112536   6.697   7.234  10.449  0.2785 -0.5971  0.7233
 2233SOL    HW212537   6.615   7.188  10.331  0.8862  0.7695 -0.2694
 2234SOL     OW12538   3.135   8.295   8.680  0.1297 -0.0422 -0.8146
 2234SOL    HW112539   3.067   8.240   8.718 -1.2842  1.8080 -0.5106
 2234SOL    HW212540   3.216   8.266   8.722 -0.7183 -1.1324  0.1251
 2235SOL     OW12541   0.511   0.256  10.171 -0.1418 -0.4506 -0.1463
 2235SOL    HW112542   0.583   0.196  10.150 -0.3221 -0.3198 -1.1633
 2235SOL    HW212543   0.549   0.316  10.235  0.4992 -0.7153 -0.2675
 2236SOL     OW12544   0.067   3.934   3.838  0.6196 -0.7273 -0.2405
 2236SOL    HW112545  -0.025   3.930   3.864  0.6897  0.2933  0.2081
 2236SOL    HW212546   0.067   3.908   3.746 -0.1772 -0.2900 -0.3709
 2237SOL     OW12547   8.343   3.605  12.036 -0.0847 -0.4441  0.2035
 2237SOL    HW112548   8.417   3.658  12.064 -0.8316  1.0125 -0.4870
 2237SOL    HW212549   8.305   3.652  11.962 -1.4245 -1.3900  0.2369
 2238SOL     OW12550   7.246   0.199  12.022  0.4489  0.4311  0.3412
 2238SOL    HW112551   7.321   0.154  11.983  0.2664  1.3970 -1.2538
 2238SOL    HW212552   7.195   0.130  12.064  1.1317 -0.5713 -0.4315
 2239SOL     OW12553   3.831   6.974   5.160 -0.3806  0.4766 -0.7701
 2239SOL    HW112554   3.895   6.963   5.230 -1.7663  0.0338  0.4907
 2239SOL    HW212555   3.758   7.021   5.202 -0.2117  2.5308 -2.5895
 2240SOL     OW12556   2.035   0.268   0.137 -0.6392  0.0165 -0.7529
 2240SOL    HW112557   2.122   0.227   0.146 -1.2024 -0.7737  2.0462
 2240SOL    HW212558   2.020   0.270   0.043  2.4760  0.3448 -1.3748
 2241SOL     OW12559   2.766   5.712   8.266 -0.8236  0.1210  0.3576
 2241SOL    HW112560   2.711   5.790   8.259  0.1620  0.7707 -0.3367
 2241SOL    HW212561   2.825   5.732   8.338  0.9838  1.0411 -1.3007
 2242SOL     OW12562  10.152  12.198   1.313  0.2002  0.4166 -0.6203
 2242SOL    HW112563  10.088  12.167   1.249 -0.9418  0.4021  0.4986
 2242SOL    HW212564  10.102  12.212   1.393  1.8241 -0.9271  0.7185
 2243SOL     OW12565  10.481   8.163  12.106  0.3304 -0.5466 -0.4571
 2243SOL    HW112566  10.436   8.247  12.105 -1.3757 -1.4138 -0.5790
 2243SOL    HW212567  10.567   8.181  12.066  0.7094  1.4591  1.1223
 2244SOL     OW12568   0.692   0.298   1.571  0.1108  0.0292  0.0743
 2244SOL    HW112569   0.727   0.379   1.609 -1.0524  0.3959  0.3877
 2244SOL    HW212570   0.601   0.296   1.598 -0.2721 -0.6347 -1.2039
 2245SOL     OW12571   4.386   9.770   3.159 -0.7918 -0.2052  0.0551
 2245SOL    HW112572   4.303   9.816   3.152  0.5139  2.3959  0.3841
 2245SOL    HW212573   4.407   9.770   3.253 -0.6328 -1.2636  0.0322
 2246SOL     OW12574   7.625   1.885   4.520  0.4417 -0.0670 -0.8250
 2246SOL    HW112575   7.624   1.895   4.425  1.1483 -1.0636 -0.9439
 2246SOL    HW212576   7.555   1.823   4.539  1.3690 -1.1532 -0.8662
 2247SOL     OW12577   4.899   4.108   0.011  0.6793  0.4326  0.3395
 2247SOL    HW112578   4.921   4.019  -0.017  0.3353  0.8059 -1.2683
 2247SOL    HW212579   4.911   4.161  -0.068 -3.9314  1.0140 -0.2827
 2248SOL     OW12580  11.400  11.411   5.945  0.3001 -0.0651  0.3251
 2248SOL    HW112581  11.392  11.340   5.882  0.9251 -0.0668  0.2350
 2248SOL    HW212582  11.351  11.382   6.022 -1.6702  0.5308 -0.6420
 2249SOL     OW12583   2.603   2.032   6.058 -0.0836 -0.0266  0.0998
 2249SOL    HW112584   2.627   2.101   6.120  0.7942 -0.8683  0.7370
 2249SOL    HW212585   2.647   2.058   5.977 -0.2947  0.4927  0.1439
 2250SOL     OW12586   2.042   9.512   5.478  0.5124  0.0399 -0.3110
 2250SOL    HW112587   2.056   9.459   5.400  0.0852 -1.9320  0.8735
 2250SOL    HW212588   1.991   9.587   5.447  1.2146 -0.1752 -2.0768
 2251SOL     OW12589   4.768   2.392  10.064  0.0442 -0.2841 -0.0241
 2251SOL    HW112590   4.800   2.423  10.149  0.8663 -0.5377 -0.2357
 2251SOL    HW212591   4.807   2.452  10.000 -0.2258 -0.3566 -0.2610
 2252SOL     OW12592   8.796   1.522   4.669  0.1429  0.1792 -0.1369
 2252SOL    HW112593   8.831   1.489   4.752  2.3386  1.4096 -0.5138
 2252SOL    HW212594   8.800   1.617   4.677 -2.8762  0.4481 -0.4040
 2253SOL     OW12595   1.873   0.423   8.807 -0.6016  0.4529 -0.1159
 2253SOL    HW112596   1.866   0.426   8.711  0.4613  0.3698 -0.2042
 2253SOL    HW212597   1.785   0.446   8.838 -1.2634 -0.6217 -1.1164
 2254SOL     OW12598   9.247   8.095   5.875  0.3521 -0.4517 -0.2486
 2254SOL    HW112599   9.166   8.146   5.878  0.4973 -0.2557  1.6888
 2254SOL    HW212600   9.311   8.153   5.833 -0.1700 -0.1128 -0.5846
 2255SOL     OW12601   0.949   1.277  11.202  0.5339 -0.0373  0.0958
 2255SOL    HW112602   0.911   1.335  11.268 -0.5527 -0.4018 -0.1823
 2255SOL    HW212603   1.043   1.284  11.215  0.3747 -2.0843  3.4691
 2256SOL     OW12604   0.340   9.139   8.493 -0.0235 -0.5850  0.0951
 2256SOL    HW112605   0.265   9.197   8.480 -1.7902 -2.9949 -1.2578
 2256SOL    HW212606   0.384   9.137   8.408  0.8367 -0.2423  0.5137
 2257SOL     OW12607   7.078   8.930   9.039  0.4469 -0.8794 -0.1511
 2257SOL    HW112608   7.101   9.023   9.036 -1.2943 -0.3068  2.0477
 2257SOL    HW212609   7.162   8.885   9.041  1.3348  0.6953 -0.3286
 2258SOL     OW12610   3.960  10.849  10.162  0.3572 -0.3216 -0.4953
 2258SOL    HW112611   3.956  10.783  10.232 -1.5720 -0.6355 -0.8467
 2258SOL    HW212612   4.044  10.893  10.176 -0.0841 -0.1572  2.2216
 2259SOL     OW12613   8.163   8.411   1.082 -0.0625  0.9721  0.3124
 2259SOL    HW112614   8.135   8.334   1.033 -0.9704  0.1877  1.9733
 2259SOL    HW212615   8.096   8.477   1.064 -0.3021  0.7430  0.3614
 2260SOL     OW12616   4.589   3.411   5.293 -0.3026  0.6663 -0.0251
 2260SOL    HW112617   4.589   3.372   5.205  0.9707  1.4198 -0.3857
 2260SOL    HW212618   4.504   3.385   5.330 -0.5250 -0.3586 -1.1544
 2261SOL     OW12619  10.818  11.358   2.200  0.0396  0.1290 -0.1718
 2261SOL    HW112620  10.781  11.437   2.160 -0.8292 -0.4661 -0.5849
 2261SOL    HW212621  10.744  11.298   2.206  1.0354 -1.2691 -1.3861
 2262SOL     OW12622   2.930   1.853   1.081  0.5710 -0.0187 -0.2588
 2262SOL    HW112623   2.974   1.890   1.004 -0.8928 -0.2258 -1.2449
 2262SOL    HW212624   3.001   1.835   1.143  1.7249  0.7653 -1.2941
 2263SOL     OW12625   5.378   4.441   3.676 -0.1917 -0.1012 -0.4578
 2263SOL    HW112626   5.439   4.501   3.633  1.0127 -0.8113  0.2182
 2263SOL    HW212627   5.320   4.498   3.727 -0.2643  0.5942 -1.2952
 2264SOL     OW12628   1.881   6.319  11.249  0.0339 -0.1415 -0.0771
 2264SOL    HW112629   1.874   6.407  11.284 -1.6488 -0.4336  0.4125
 2264SOL    HW212630   1.807   6.310  11.190 -0.0077 -1.3325  0.1192
 2265SOL     OW12631  12.036   9.460   4.187 -0.3032  0.8607 -0.0770
 2265SOL    HW112632  11.979   9.402   4.238  0.3885  0.5894  0.4004
 2265SOL    HW212633  11.981   9.490   4.115 -2.2199  3.4607  2.2398
 2266SOL     OW12634   2.373  11.305   5.866 -0.0845 -0.3175 -0.1546
 2266SOL    HW112635   2.389  11.218   5.902 -1.4520  0.1996  1.8687
 2266SOL    HW212636   2.449  11.357   5.892 -1.7926  0.5173  3.8717
 2267SOL     OW12637   3.865   6.026   4.940 -0.0193 -0.1606  0.1854
 2267SOL    HW112638   3.799   5.995   4.878  0.3123  2.0194 -1.3700
 2267SOL    HW212639   3.909   6.097   4.894  0.7060  1.1199  2.6966
 2268SOL     OW12640   9.402   9.314   5.683 -0.2301  0.4275  0.1022
 2268SOL    HW112641   9.365   9.326   5.771  0.6021 -0.1610  0.5486
 2268SOL    HW212642   9.469   9.382   5.676  0.3455 -0.1087  0.2979
 2269SOL     OW12643   3.801   1.882   1.693 -0.0185  0.2516  0.6900
 2269SOL    HW112644   3.839   1.899   1.607  0.4197  2.1058  1.1977
 2269SOL    HW212645   3.787   1.788   1.695 -1.4171  0.2986 -1.9859
 2270SOL     OW12646   5.764  11.882   3.005 -0.3297  0.1234 -0.0202
 2270SOL    HW112647   5.714  11.827   2.944  0.0452 -0.6057  0.3130
 2270SOL    HW212648   5.855  11.872   2.977  0.0042 -1.2249  1.3884
 2271SOL     OW12649   1.888   8.964   4.879  0.1562  0.1701  0.1547
 2271SOL    HW112650   1.967   8.937   4.926  0.3119  0.5955  0.1424
 2271SOL    HW212651   1.866   9.050   4.916 -1.0145 -0.4738  1.0443
 2272SOL     OW12652   6.152   8.680   8.616  0.4011 -0.0988  0.2840
 2272SOL    HW112653   6.133   8.602   8.565 -0.1929  1.9342 -2.9222
 2272SOL    HW212654   6.229   8.718   8.573  0.4489  1.2631  1.5056
 2273SOL     OW12655   9.767  11.228   5.167 -0.4463 -0.5058  0.1210
 2273SOL    HW112656   9.682  11.272   5.164  0.4896  1.3543 -1.5272
 2273SOL    HW212657   9.765  11.166   5.094 -0.0899  0.2255 -0.5325
 2274SOL     OW12658   3.631   8.764  12.289  0.0772  0.3191  0.3774
 2274SOL    HW112659   3.589   8.787  12.372 -0.4273  0.2474  0.1456
 2274SOL    HW212660   3.562   8.775  12.224 -0.0038 -1.1834  0.1722
 2275SOL     OW12661   8.091   2.874   7.867  0.2693  0.2204  0.0315
 2275SOL    HW112662   8.171   2.894   7.915  0.2407 -2.1029  1.2119
 2275SOL    HW212663   8.040   2.955   7.871  2.5762  1.8505 -0.9593
 2276SOL     OW12664  10.357   3.678   4.596  0.7221 -0.1163  0.4637
 2276SOL    HW112665  10.415   3.714   4.663  0.1630  1.9477 -0.0665
 2276SOL    HW212666  10.270   3.712   4.620 -0.0147 -1.8352  0.3512
 2277SOL     OW12667   4.829   8.459   6.324  0.1625  0.2623  0.1033
 2277SOL    HW112668   4.890   8.489   6.391  0.8688  0.0957 -0.4561
 2277SOL    HW212669   4.750   8.512   6.337  0.6137  0.8399  0.4961
 2278SOL     OW12670  11.274  11.683   7.047  0.0612  0.2212  0.6050
 2278SOL    HW112671  11.220  11.609   7.022 -0.3995  1.1148 -1.2100
 2278SOL    HW212672  11.222  11.760   7.021  0.8347  1.1654  1.7629
 2279SOL     OW12673   7.983  10.690   9.427 -0.1538  0.5373  0.1105
 2279SOL    HW112674   7.910  10.643   9.466  0.7339 -0.0140  1.1734
 2279SOL    HW212675   8.046  10.622   9.403  0.1707  1.0253 -0.4585
 2280SOL     OW12676   3.397  10.169   8.025 -0.3570  0.1000  0.4313
 2280SOL    HW112677   3.353  10.253   8.013  1.3072  0.9100 -0.3681
 2280SOL    HW212678   3.373  10.118   7.947  1.3647  1.1620 -0.8695
 2281SOL     OW12679   6.296   1.555   6.550  0.2525 -0.0124 -0.4239
 2281SOL    HW112680   6.326   1.620   6.613 -2.0423 -1.7108  2.6418
 2281SOL    HW212681   6.211   1.587   6.520 -0.3458 -0.9531  0.2021
 2282SOL     OW12682   9.741   6.068   5.068  0.0981  0.5251 -0.1660
 2282SOL    HW112683   9.678   6.027   5.010  0.1317  1.4329 -0.8646
 2282SOL    HW212684   9.805   6.109   5.010  1.5878 -0.7045  0.5106
 2283SOL     OW12685   7.832   4.002   0.039 -0.9493  0.3558  0.0376
 2283SOL    HW112686   7.796   3.940   0.103 -0.7816 -0.1410 -0.3405
 2283SOL    HW212687   7.874   4.070   0.092  2.1254 -1.7367  0.5250
 2284SOL     OW12688   1.481   5.094   7.847  0.0304 -0.5297 -0.5688
 2284SOL    HW112689   1.563   5.071   7.889  0.4508 -0.5643 -1.3843
 2284SOL    HW212690   1.415   5.087   7.916  0.3874 -2.5915 -0.3693
 2285SOL     OW12691   9.144   2.933  10.568  0.2557  0.1566 -0.9692
 2285SOL    HW112692   9.174   2.972  10.650 -0.3689 -0.3026 -0.5216
 2285SOL    HW212693   9.101   3.005  10.522 -1.7878 -0.1887  0.2945
 2286SOL     OW12694   2.136   7.255   1.453  0.6447  0.6035  0.1945
 2286SOL    HW112695   2.174   7.305   1.525  1.2243 -0.1407  0.4136
 2286SOL    HW212696   2.203   7.191   1.430 -0.1072 -0.1216 -0.0319
 2287SOL     OW12697   8.651   0.028   5.773  1.0173 -0.4592 -0.1251
 2287SOL    HW112698   8.687   0.078   5.700  0.7205  0.6955  0.4939
 2287SOL    HW212699   8.683   0.072   5.851 -1.2786  0.3465  0.4498
 2288SOL     OW12700   5.311   0.285   4.706 -0.4771  0.1253  0.0256
 2288SOL    HW112701   5.218   0.268   4.717 -1.0610  1.3047 -2.4869
 2288SOL    HW212702   5.316   0.367   4.657  1.9089  0.2373  0.2971
 2289SOL     OW12703   6.927  10.921   5.512 -0.0187 -0.3152 -0.1639
 2289SOL    HW112704   7.016  10.946   5.488  0.2309 -1.9355 -1.0475
 2289SOL    HW212705   6.883  10.904   5.429 -1.1610  0.3971  0.2616
 2290SOL     OW12706   7.065   6.538   4.006  0.0626 -0.0860 -0.4630
 2290SOL    HW112707   7.151   6.498   3.993  0.1941  0.2352 -0.6049
 2290SOL    HW212708   7.002   6.470   3.982  0.2871  0.2422 -2.1149
 2291SOL     OW12709  10.280   4.755   4.231 -0.0376  0.1114 -0.1155
 2291SOL    HW112710  10.289   4.660   4.230  0.1864  0.1318 -0.2057
 2291SOL    HW212711  10.309   4.781   4.318 -2.0251 -0.0731  0.6354
 2292SOL     OW12712   7.895  12.227   4.242 -0.0459  0.0091 -0.3551
 2292SOL    HW112713   7.837  12.181   4.182 -1.0217 -1.0892  1.3699
 2292SOL    HW212714   7.946  12.285   4.185 -1.6158 -0.2372 -2.1181
 2293SOL     OW12715   9.727   8.927   9.184 -0.4039 -0.0684  0.8920
 2293SOL    HW112716   9.698   8.914   9.274 -1.5133 -1.8606  0.3222
 2293SOL    HW212717   9.679   8.862   9.133  0.2890  0.8093 -0.9961
 2294SOL     OW12718   7.441   9.021   9.323 -0.6383  0.0986 -0.2128
 2294SOL    HW112719   7.479   8.984   9.403  0.7436  1.0291 -0.3940
 2294SOL    HW212720   7.351   9.043   9.347 -0.5722 -0.6227  0.7592
 2295SOL     OW12721   8.329   1.543   6.015 -0.3832  0.4821 -0.0869
 2295SOL    HW112722   8.248   1.585   5.986 -0.6242 -1.6855 -2.9391
 2295SOL    HW212723   8.374   1.520   5.935  0.2348 -3.6538  1.2242
 2296SOL     OW12724   6.225  11.271   7.441  1.0094  0.1431 -0.3061
 2296SOL    HW112725   6.147  11.310   7.480  2.3016  1.1084  1.4599
 2296SOL    HW212726   6.192  11.213   7.372 -1.4734 -2.1052  2.5584
 2297SOL     OW12727   6.330  11.685   5.543  0.4017 -0.0440  0.1653
 2297SOL    HW112728   6.342  11.591   5.555 -0.5646 -0.2974 -0.7404
 2297SOL    HW212729   6.366  11.724   5.623  1.5537 -1.1151  0.1960
 2298SOL     OW12730  11.764   0.216   8.453 -0.4888  0.1632 -0.6740
 2298SOL    HW112731  11.703   0.194   8.524 -0.7724  1.8441 -0.3527
 2298SOL    HW212732  11.707   0.239   8.379 -0.3014  1.8565 -0.3369
 2299SOL     OW12733   1.277  11.147   6.549 -0.6123  0.7120 -0.3793
 2299SOL    HW112734   1.370  11.139   6.526 -1.1449  1.6181 -3.1253
 2299SOL    HW212735   1.239  11.064   6.521 -0.6365  0.2365  0.9809
 2300SOL     OW12736   6.057   5.207   1.068  0.2456 -0.4315 -0.4346
 2300SOL    HW112737   6.076   5.291   1.026  0.2171 -0.0577  0.2944
 2300SOL    HW212738   6.106   5.143   1.016 -1.0590 -0.2023 -2.0328
 2301SOL     OW12739   9.520  11.880  10.775 -0.0106 -0.1701  0.6122
 2301SOL    HW112740   9.552  11.819  10.708 -0.9660  0.2008 -0.1962
 2301SOL    HW212741   9.472  11.824  10.837 -0.7657 -0.2805 -0.0519
 2302SOL     OW12742   3.121   2.403   2.866  0.3520  0.0221  0.6150
 2302SOL    HW112743   3.188   2.377   2.802  0.4701  2.3349 -0.3109
 2302SOL    HW212744   3.140   2.350   2.943  0.6084 -2.4179 -1.0110
 2303SOL     OW12745   3.702   0.895   4.382 -0.5754  0.7674  0.1643
 2303SOL    HW112746   3.751   0.838   4.441 -0.8049  0.8064  0.3941
 2303SOL    HW212747   3.642   0.943   4.440 -2.7763 -1.1521 -0.3666
 2304SOL     OW12748   8.664   3.606   1.443  0.5325  0.5005 -0.1788
 2304SOL    HW112749   8.619   3.582   1.524  1.4719 -2.1910 -0.3369
 2304SOL    HW212750   8.735   3.664   1.471 -0.4456  1.3346  0.6247
 2305SOL     OW12751   1.623   5.237   7.043 -0.0064  0.4725 -0.3920
 2305SOL    HW112752   1.639   5.276   6.956 -0.3199  0.7322 -0.3376
 2305SOL    HW212753   1.555   5.293   7.081 -1.3366 -0.8329 -0.7803
 2306SOL     OW12754   2.791   9.356   5.500 -0.2174  0.7361  0.5219
 2306SOL    HW112755   2.822   9.420   5.436 -2.1672  0.3942 -0.8483
 2306SOL    HW212756   2.783   9.406   5.582 -2.2542  2.4745 -0.6338
 2307SOL     OW12757   3.571  11.573   7.051 -0.0971  0.4193 -0.1788
 2307SOL    HW112758   3.581  11.512   7.124 -0.1581  0.6805  0.0504
 2307SOL    HW212759   3.484  11.610   7.063  1.3434  3.5821  2.0731
 2308SOL     OW12760   4.390   2.836   2.246  0.4448  0.8039  0.3259
 2308SOL    HW112761   4.317   2.812   2.304 -0.3572 -1.0387 -1.3436
 2308SOL    HW212762   4.365   2.922   2.211 -0.1776  0.8835  0.9347
 2309SOL     OW12763   7.840   2.804   3.779  0.2339  0.6527 -0.2157
 2309SOL    HW112764   7.892   2.761   3.711  0.6900  2.1673 -0.8629
 2309SOL    HW212765   7.895   2.876   3.809 -0.5088  0.7986  0.8519
 2310SOL     OW12766   0.812   6.486   1.751 -0.2276 -0.2352 -0.1381
 2310SOL    HW112767   0.786   6.577   1.738  0.8646 -0.2019 -2.6882
 2310SOL    HW212768   0.908   6.489   1.751 -0.1838 -1.3650 -0.2904
 2311SOL     OW12769   5.725   5.758   9.848 -0.3950 -0.1672 -0.3799
 2311SOL    HW112770   5.764   5.812   9.917  1.0459 -1.4994 -0.0992
 2311SOL    HW212771   5.740   5.808   9.767  0.3007  0.1788 -0.0452
 2312SOL     OW12772  11.091   1.988   5.493  0.3490  0.5609  0.1322
 2312SOL    HW112773  11.019   1.934   5.525  0.8851 -0.2048  0.0795
 2312SOL    HW212774  11.163   1.970   5.554  0.1689  2.2000  0.8689
 2313SOL     OW12775   9.565   8.461   7.513  0.5388 -0.1805  0.8930
 2313SOL    HW112776   9.653   8.475   7.478 -0.3386  1.1767 -0.9539
 2313SOL    HW212777   9.564   8.510   7.596  1.1527  0.8219  0.3198
 2314SOL     OW12778  10.549   1.796  11.438 -0.1761 -0.4352  0.3429
 2314SOL    HW112779  10.455   1.801  11.455  0.1583 -0.2513  2.3642
 2314SOL    HW212780  10.572   1.881  11.400 -0.7423 -0.2895  0.3241
 2315SOL     OW12781   7.094  10.039   8.128  0.5044 -0.3346  0.2823
 2315SOL    HW112782   7.002  10.065   8.132  1.3028  3.1484 -0.3283
 2315SOL    HW212783   7.134  10.083   8.203  1.8441 -1.0087 -0.0082
 2316SOL     OW12784  10.115   7.854  11.935  0.1980  0.5021  0.3221
 2316SOL    HW112785  10.191   7.902  11.967  0.3951  1.3307 -1.2913
 2316SOL    HW212786  10.075   7.911  11.869 -0.5371 -0.8274 -0.4497
 2317SOL     OW12787   2.805   0.074  10.418  0.1888 -0.4306  0.4549
 2317SOL    HW112788   2.833  -0.003  10.370 -0.3791 -1.3792  1.6060
 2317SOL    HW212789   2.719   0.096  10.382  0.1582 -0.6008  0.4251
 2318SOL     OW12790   4.304   0.920  12.100 -0.0988 -0.4558  0.1851
 2318SOL    HW112791   4.361   0.848  12.073 -0.7910 -0.7402 -0.5767
 2318SOL    HW212792   4.256   0.943  12.020  0.4800  1.1987  0.2866
 2319SOL     OW12793   0.681   4.611   3.079  0.4672 -0.0603  0.0199
 2319SOL    HW112794   0.586   4.607   3.074  0.4068  1.6155 -0.6309
 2319SOL    HW212795   0.701   4.597   3.172 -0.2450 -2.3516 -0.0942
 2320SOL     OW12796   9.313   1.051   6.070 -0.1262 -0.3879  0.0412
 2320SOL    HW112797   9.371   1.010   6.005  0.4530 -0.2562  0.4700
 2320SOL    HW212798   9.346   1.020   6.154  1.7662  2.6234  0.5829
 2321SOL     OW12799   4.276   8.833   3.635 -0.6780 -0.4280  0.7072
 2321SOL    HW112800   4.368   8.837   3.611 -0.4444 -0.8667  1.4657
 2321SOL    HW212801   4.235   8.906   3.589 -0.1925 -0.9668 -0.6284
 2322SOL     OW12802  11.864   9.864   6.253  0.3968  0.2233  0.4178
 2322SOL    HW112803  11.853   9.803   6.326  1.2539 -0.7997 -0.2697
 2322SOL    HW212804  11.933   9.923   6.282  2.0263 -1.2894 -0.2118
 2323SOL     OW12805   8.705   5.590   9.103  0.4223 -0.1944 -0.1102
 2323SOL    HW112806   8.612   5.607   9.110  0.5629  0.8384 -0.5535
 2323SOL    HW212807   8.719   5.572   9.010  0.6968 -0.1374 -0.0826
 2324SOL     OW12808   2.921   6.018   2.287  0.4343 -0.4626  0.5808
 2324SOL    HW112809   3.007   5.977   2.300 -0.2793 -3.0360 -1.8470
 2324SOL    HW212810   2.870   5.992   2.364  0.6105 -2.6113  0.0324
 2325SOL     OW12811   5.485   9.356  10.484  0.5561 -0.0714 -0.2239
 2325SOL    HW112812   5.470   9.318  10.397  1.2716 -1.8889  0.4075
 2325SOL    HW212813   5.420   9.314  10.540  0.7515  0.3583  0.3322
 2326SOL     OW12814   4.122   1.319   4.469  0.0104  0.4259 -0.3417
 2326SOL    HW112815   4.118   1.270   4.387 -0.8251  0.8168 -0.5461
 2326SOL    HW212816   4.188   1.386   4.454  0.4596 -0.0210 -0.3969
 2327SOL     OW12817   5.117   0.997   3.777  0.2768  0.1913  0.1515
 2327SOL    HW112818   5.049   0.996   3.844 -1.4251 -1.9774 -1.4616
 2327SOL    HW212819   5.069   1.002   3.694  2.0428 -1.4647 -1.0459
 2328SOL     OW12820  11.698   2.691   2.937 -0.1707  0.6031 -0.2865
 2328SOL    HW112821  11.640   2.691   2.861  2.2162 -0.4291 -2.2512
 2328SOL    HW212822  11.722   2.783   2.948 -1.7429  0.9808  0.2706
 2329SOL     OW12823   2.876   2.053  10.418 -0.0664  0.5468 -0.5298
 2329SOL    HW112824   2.888   2.126  10.357 -2.0867  1.7731  0.4047
 2329SOL    HW212825   2.785   2.027  10.406 -0.4152  0.5752  1.6292
 2330SOL     OW12826  11.383   9.856   8.598 -0.0039  0.4564  0.5922
 2330SOL    HW112827  11.294   9.879   8.627 -0.3845  0.2443 -0.3571
 2330SOL    HW212828  11.424   9.940   8.578 -0.3960  0.4924 -0.0819
 2331SOL     OW12829   2.496  10.701   3.726  0.0819 -0.0154 -0.2172
 2331SOL    HW112830   2.478  10.687   3.819  0.6297  0.1959 -0.0795
 2331SOL    HW212831   2.568  10.641   3.706 -1.7435 -2.0646 -1.1515
 2332SOL     OW12832   0.536   7.576   1.337 -0.0955 -0.0380 -0.5210
 2332SOL    HW112833   0.594   7.555   1.264 -0.9128 -1.5577 -0.7621
 2332SOL    HW212834   0.491   7.494   1.357  0.4898  0.1614  2.0705
 2333SOL     OW12835   6.017   8.208   3.844 -0.0436 -0.3790 -0.8174
 2333SOL    HW112836   6.100   8.234   3.804  0.9108 -0.8392  0.7737
 2333SOL    HW212837   6.042   8.161   3.923 -1.8311 -0.8124 -0.4596
 2334SOL     OW12838   9.737   8.122   8.119 -0.2244  0.0054  0.7121
 2334SOL    HW112839   9.717   8.201   8.168  1.8690  1.2164 -0.2333
 2334SOL    HW212840   9.826   8.100   8.145  0.0795 -0.6520 -0.7952
 2335SOL     OW12841   4.147   3.628   0.020  0.4795 -0.0273 -0.1425
 2335SOL    HW112842   4.189   3.601  -0.061 -1.7142 -0.6454 -1.1656
 2335SOL    HW212843   4.077   3.687  -0.007 -0.3278 -0.2709  1.2674
 2336SOL     OW12844   9.453   1.854   5.855  0.1945  0.1770 -0.0725
 2336SOL    HW112845   9.397   1.929   5.874  0.0022  0.2179 -0.7864
 2336SOL    HW212846   9.403   1.801   5.794  1.3396  0.7484 -1.5703
 2337SOL     OW12847   0.418  10.943  10.403 -0.2378 -0.9011  0.6191
 2337SOL    HW112848   0.454  10.990  10.478 -0.2220  1.3272 -0.6923
 2337SOL    HW212849   0.492  10.894  10.366  0.3150 -0.1382  0.7091
 2338SOL     OW12850   1.235   1.644   1.519 -0.0399 -0.1693  0.6749
 2338SOL    HW112851   1.252   1.685   1.604 -0.1789  1.3801 -0.0044
 2338SOL    HW212852   1.283   1.699   1.457  0.2539 -1.4222 -0.2333
 2339SOL     OW12853   6.183   4.770   0.259 -0.0778 -0.2402 -0.0596
 2339SOL    HW112854   6.257   4.761   0.320 -0.8204 -0.8609  0.7796
 2339SOL    HW212855   6.105   4.765   0.315 -0.7661 -0.1785 -0.9934
 2340SOL     OW12856  11.533   2.575  11.441 -0.1693 -0.0497 -0.2403
 2340SOL    HW112857  11.617   2.613  11.465  1.0736 -0.3697 -3.6005
 2340SOL    HW212858  11.549   2.481  11.433 -0.4368  0.0150 -2.0766
 2341SOL     OW12859   4.710   5.833   1.958 -0.3670  0.0637  0.0557
 2341SOL    HW112860   4.753   5.840   1.873  1.2503 -0.5773  0.7930
 2341SOL    HW212861   4.680   5.922   1.977  0.6180  0.5255 -0.4962
 2342SOL     OW12862   4.622   7.778   5.852  0.2497  0.0591  0.0246
 2342SOL    HW112863   4.700   7.724   5.867 -0.2380 -0.7750 -0.3175
 2342SOL    HW212864   4.640   7.823   5.769  0.2928 -0.2799 -0.1529
 2343SOL     OW12865   7.431  10.448   5.174  0.0888 -0.0965  0.0224
 2343SOL    HW112866   7.438  10.541   5.196  1.5311 -0.0956 -0.3294
 2343SOL    HW212867   7.512  10.409   5.207 -1.0850 -1.5175  1.4021
 2344SOL     OW12868   0.461  12.244   7.931 -0.0943 -0.6152 -0.2381
 2344SOL    HW112869   0.458  12.168   7.872 -0.2147 -1.1418  0.4334
 2344SOL    HW212870   0.417  12.214   8.010  1.6832 -0.5375  0.8252
 2345SOL     OW12871   7.994   4.192   3.909 -0.5796  0.1863 -0.8099
 2345SOL    HW112872   7.910   4.222   3.874 -0.0213  1.2152 -1.3166
 2345SOL    HW212873   8.044   4.167   3.831 -0.2372  0.0517 -0.5457
 2346SOL     OW12874  10.473   7.961   5.902  0.1630 -0.2114  0.7122
 2346SOL    HW112875  10.403   7.929   5.846  2.1930 -0.9543 -1.5369
 2346SOL    HW212876  10.428   7.989   5.982 -2.6424 -0.8266 -0.5247
 2347SOL     OW12877   4.133   9.933   0.591 -0.1675  0.1306  0.3099
 2347SOL    HW112878   4.079   9.901   0.519 -1.2291 -0.0963  1.1674
 2347SOL    HW212879   4.109  10.025   0.600 -1.6489 -0.3467  1.7060
 2348SOL     OW12880   0.053   3.075   9.225  0.2719  0.5086  0.1386
 2348SOL    HW112881   0.035   2.995   9.175 -3.1273  0.9573  0.4416
 2348SOL    HW212882   0.089   3.043   9.308  1.2173 -0.5054 -0.6179
 2349SOL     OW12883  11.317   9.364   0.092  0.0498  0.2403  0.0795
 2349SOL    HW112884  11.390   9.418   0.123  0.7325  1.1554 -2.8365
 2349SOL    HW212885  11.350   9.274   0.098  0.7294  0.5067  0.4720
 2350SOL     OW12886  11.428   0.964   0.584  1.1403  0.3686 -0.1774
 2350SOL    HW112887  11.480   0.944   0.507  0.8191  1.4608 -0.6928
 2350SOL    HW212888  11.486   1.015   0.641  1.2820 -0.1817  0.1803
 2351SOL     OW12889   5.986   9.412   2.905 -0.2284 -0.0846  0.0584
 2351SOL    HW112890   5.923   9.449   2.844  0.5894  1.5740  0.1573
 2351SOL    HW212891   5.940   9.339   2.947 -0.9474 -0.9945 -2.1929
 2352SOL     OW12892  11.875   2.966   6.065 -0.5720 -0.3347  0.4277
 2352SOL    HW112893  11.852   2.945   6.156  0.1340  0.0285  0.6966
 2352SOL    HW212894  11.791   2.981   6.022 -0.9602 -1.3372  0.8119
 2353SOL     OW12895  10.989   9.891  11.307  0.0250  0.4068  0.6023
 2353SOL    HW112896  11.082   9.915  11.311  0.3407 -0.5397 -0.4619
 2353SOL    HW212897  10.969   9.890  11.214 -1.1468  0.8880  0.8425
 2354SOL     OW12898   9.066  12.087   9.568 -0.0863 -0.1281 -0.6248
 2354SOL    HW112899   8.973  12.093   9.546 -0.0069 -1.6952 -1.4880
 2354SOL    HW212900   9.103  12.171   9.539 -1.7657  2.0847  2.9145
 2355SOL     OW12901   8.324   6.997   6.117  0.2313  0.3328 -0.3049
 2355SOL    HW112902   8.405   6.965   6.079 -0.5266 -0.2734 -1.4678
 2355SOL    HW212903   8.316   7.087   6.084 -1.2834 -0.7371 -3.1396
 2356SOL     OW12904   1.101   2.308   3.185 -0.1118 -0.3863 -0.2041
 2356SOL    HW112905   1.086   2.276   3.096  2.4398  0.9211 -1.2145
 2356SOL    HW212906   1.175   2.256   3.217  0.3152  0.5470  0.3570
 2357SOL     OW12907   4.222   9.218   5.106  0.1848  0.5306  0.3454
 2357SOL    HW112908   4.201   9.274   5.031  1.6591 -1.0712 -1.3822
 2357SOL    HW212909   4.305   9.252   5.139  0.2993  0.3023  0.2920
 2358SOL     OW12910   9.005   4.188   1.828  0.4087  0.3472 -0.2438
 2358SOL    HW112911   9.025   4.224   1.914  0.3301  0.6989 -0.3712
 2358SOL    HW212912   8.964   4.260   1.780  1.6154  0.5674 -1.0068
 2359SOL     OW12913   7.513  11.067   4.031  0.0534  0.2950 -0.0988
 2359SOL    HW112914   7.539  11.090   4.120 -1.1777  0.7348  0.1594
 2359SOL    HW212915   7.524  11.147   3.981 -0.9222  0.5318  0.0483
 2360SOL     OW12916   5.256   0.447   7.223  0.1926  0.1680  0.1904
 2360SOL    HW112917   5.206   0.528   7.217  0.2187  0.1362 -0.6112
 2360SOL    HW212918   5.190   0.380   7.245 -0.0107  0.2384 -0.1876
 2361SOL     OW12919   4.397   6.850   5.596  0.0961 -0.1830  0.1367
 2361SOL    HW112920   4.338   6.918   5.563 -0.5999 -0.0177  1.6614
 2361SOL    HW212921   4.341   6.775   5.612  0.6275 -0.6583 -0.2048
 2362SOL     OW12922   4.474  11.250  11.140 -0.2862 -0.3128  0.4000
 2362SOL    HW112923   4.440  11.230  11.052  0.1870  1.7025 -0.3023
 2362SOL    HW212924   4.407  11.216  11.200 -0.8408 -1.3158 -0.7327
 2363SOL     OW12925  10.621   2.798  10.108 -0.0560  0.1595  0.2700
 2363SOL    HW112926  10.588   2.884  10.084 -1.4399 -0.5502 -0.4582
 2363SOL    HW212927  10.543   2.743  10.117  0.8247 -1.1826  0.0758
 2364SOL     OW12928  12.059   4.551   9.981  0.0081 -0.8064 -0.5572
 2364SOL    HW112929  11.967   4.528   9.989 -0.3063  0.7490  0.6383
 2364SOL    HW212930  12.104   4.492  10.043 -0.5319  0.2359  0.8746
 2365SOL     OW12931   3.130   2.057   8.417 -0.3734 -0.1713 -0.0448
 2365SOL    HW112932   3.080   2.031   8.494 -1.2736 -1.0848 -0.9084
 2365SOL    HW212933   3.079   2.128   8.379  0.3656  0.6678  0.4867
 2366SOL     OW12934   9.711   1.751   3.682 -0.0609  0.0352  1.2185
 2366SOL    HW112935   9.674   1.665   3.702 -0.4264  0.3650  1.9921
 2366SOL    HW212936   9.804   1.742   3.698 -0.1401 -0.1376  1.5685
 2367SOL     OW12937  11.536   9.068   0.299  0.2086 -0.3283  0.5672
 2367SOL    HW112938  11.512   9.096   0.210 -1.6696 -0.0367  1.1053
 2367SOL    HW212939  11.457   9.023   0.331  1.2393 -1.3971  1.7034
 2368SOL     OW12940   5.575   7.411  11.917  0.2514 -0.2008 -0.0354
 2368SOL    HW112941   5.516   7.392  11.990  1.3425  0.4198  1.0354
 2368SOL    HW212942   5.630   7.333  11.910 -0.1133 -0.4259 -0.4761
 2369SOL     OW12943   9.620   2.004   2.321 -0.3903  0.4972 -0.3184
 2369SOL    HW112944   9.667   1.922   2.307 -0.3873  0.0628  1.9362
 2369SOL    HW212945   9.528   1.981   2.313 -0.4770 -0.1461  1.8989
 2370SOL     OW12946   6.210   3.684   4.877  0.3029 -0.2768 -0.3597
 2370SOL    HW112947   6.252   3.624   4.816 -0.8285 -1.5139  0.0277
 2370SOL    HW212948   6.119   3.654   4.881  0.3046 -0.1747  1.8056
 2371SOL     OW12949   4.137   9.626   3.393 -0.1270 -0.1684 -0.0633
 2371SOL    HW112950   4.167   9.537   3.373 -2.6846 -1.3526  1.0118
 2371SOL    HW212951   4.057   9.637   3.341  0.6654  1.9582 -0.9803
 2372SOL     OW12952   5.247   3.775   4.486  0.5634 -0.2974 -0.0293
 2372SOL    HW112953   5.244   3.818   4.571 -0.4099  0.6869 -0.5338
 2372SOL    HW212954   5.274   3.685   4.505  2.7830  0.5496  1.0285
 2373SOL     OW12955   1.282   6.896  12.203 -0.4385 -0.0450  0.6396
 2373SOL    HW112956   1.275   6.934  12.116 -2.5386 -1.4421  0.1104
 2373SOL    HW212957   1.293   6.802  12.188  3.0442  0.0155  1.9044
 2374SOL     OW12958  10.125  10.403   9.664  0.0251 -0.2009  0.1631
 2374SOL    HW112959  10.065  10.332   9.639  2.0232 -2.3724  1.1264
 2374SOL    HW212960  10.165  10.431   9.582 -0.2260 -0.7334 -0.1479
 2375SOL     OW12961  10.603   8.732   1.379  0.5518 -0.2325  0.4038
 2375SOL    HW112962  10.690   8.704   1.405  0.9882  1.2635  0.6810
 2375SOL    HW212963  10.617   8.817   1.335 -0.7820  0.2037  0.7566
 2376SOL     OW12964   5.437   9.069   3.713  0.3519 -0.1355 -0.1574
 2376SOL    HW112965   5.372   9.023   3.660 -0.5108  1.1011 -0.2169
 2376SOL    HW212966   5.514   9.012   3.711 -0.8039 -1.7833  0.1554
 2377SOL     OW12967   7.208   7.848  11.074  0.8844 -0.5543  0.2871
 2377SOL    HW112968   7.161   7.817  11.151  0.1673 -0.2350 -0.0196
 2377SOL    HW212969   7.256   7.925  11.106  0.1558 -0.0925  0.2936
 2378SOL     OW12970  10.780   3.111   1.905  0.2603 -0.6243 -0.0676
 2378SOL    HW112971  10.723   3.038   1.881  1.9118 -1.8819 -0.3854
 2378SOL    HW212972  10.735   3.154   1.977 -0.8540 -1.8478  0.0056
 2379SOL     OW12973   3.709  11.731   6.100  0.0065 -0.1478 -0.0706
 2379SOL    HW112974   3.623  11.689   6.095 -0.0611  0.1313 -2.7362
 2379SOL    HW212975   3.705  11.802   6.036  1.5994  1.1288  1.1460
 2380SOL     OW12976   0.193   4.834  12.063 -0.1200 -0.2591 -0.0812
 2380SOL    HW112977   0.232   4.749  12.044 -1.0899 -0.7949  0.2484
 2380SOL    HW212978   0.268   4.894  12.069  0.4757 -0.7018 -2.1467
 2381SOL     OW12979   9.222   4.078   4.277 -0.3319  0.6597 -0.1436
 2381SOL    HW112980   9.317   4.083   4.272 -0.3341  0.5986 -0.2478
 2381SOL    HW212981   9.192   4.166   4.258 -0.2910  0.7093  0.0202
 2382SOL     OW12982   7.828   7.976   7.481  0.2717  0.4266 -0.7783
 2382SOL    HW112983   7.823   8.009   7.570  1.3676 -1.5639  0.0869
 2382SOL    HW212984   7.885   8.038   7.435  0.8144  0.7258  0.2693
 2383SOL     OW12985   4.595  10.877   3.302 -0.4690 -0.0523  0.1739
 2383SOL    HW112986   4.511  10.914   3.328 -1.7328 -0.5286 -2.8272
 2383SOL    HW212987   4.658  10.948   3.313 -2.1054  1.7973 -1.6949
 2384SOL     OW12988   9.355  10.938   8.983 -0.1074  0.0379  0.0196
 2384SOL    HW112989   9.352  10.983   9.067  1.2475  0.1087  0.0456
 2384SOL    HW212990   9.263  10.928   8.958 -0.5742 -0.7273  1.8817
 2385SOL     OW12991   9.635  10.768   8.650 -0.2364  0.1078 -0.1018
 2385SOL    HW112992   9.703  10.828   8.681  0.8505 -0.6436 -0.9506
 2385SOL    HW212993   9.657  10.753   8.558 -1.0626 -0.8221 -0.1649
 2386SOL     OW12994   8.433   5.658   4.568 -0.7684  0.1695 -0.2603
 2386SOL    HW112995   8.410   5.565   4.567  0.5984 -0.2099 -2.8706
 2386SOL    HW212996   8.479   5.670   4.651 -1.5514 -1.2940  0.4310
 2387SOL     OW12997  10.668  12.021  11.024  0.2014 -0.6990 -0.6000
 2387SOL    HW112998  10.611  12.021  10.947 -0.8014 -2.6202  0.0475
 2387SOL    HW212999  10.609  12.042  11.097  0.0877 -3.2159  0.1507
 2388SOL     OW13000   4.938   4.173   8.815 -0.4432 -0.0015 -0.0676
 2388SOL    HW113001   4.949   4.084   8.781 -0.9415 -0.5208  1.0480
 2388SOL    HW213002   4.957   4.164   8.909  0.4008  1.2613 -0.1079
 2389SOL     OW13003   0.261   3.427   7.540  0.5259 -0.1242 -0.1864
 2389SOL    HW113004   0.233   3.390   7.457  0.4283  1.8073 -1.0831
 2389SOL    HW213005   0.232   3.519   7.536  1.6534  0.3542  1.4340
 2390SOL     OW13006   3.725   8.393   3.312  0.2291 -0.3206  0.4041
 2390SOL    HW113007   3.683   8.475   3.339 -0.0053 -0.2168 -0.2724
 2390SOL    HW213008   3.743   8.405   3.219  1.0623 -0.6675  0.5172
 2391SOL     OW13009   2.039   3.238   1.129  0.1635 -0.2196 -0.6089
 2391SOL    HW113010   2.004   3.203   1.047  0.4494 -0.9607 -0.4228
 2391SOL    HW213011   2.133   3.226   1.122  0.2802  0.6137 -0.5751
 2392SOL     OW13012  10.007   1.028   5.547 -0.0140 -0.2065  0.4654
 2392SOL    HW113013   9.992   1.093   5.478  0.4868  0.9840  1.4438
 2392SOL    HW213014  10.026   0.947   5.499 -2.2621 -0.0762 -0.7899
 2393SOL     OW13015   0.652   7.679   2.055  0.2541  0.0816 -0.5931
 2393SOL    HW113016   0.564   7.697   2.089  0.6493 -0.3038  0.6936
 2393SOL    HW213017   0.703   7.757   2.078  0.3814  0.0898 -0.8922
 2394SOL     OW13018   4.378   6.899  10.448  0.0762 -0.1814  0.9460
 2394SOL    HW113019   4.329   6.817  10.436  0.1898 -0.4888  2.4052
 2394SOL    HW213020   4.343   6.936  10.529 -1.0204  1.9992 -0.4340
 2395SOL     OW13021  12.169  11.626   5.962  0.2855  0.6094 -0.9921
 2395SOL    HW113022  12.078  11.646   5.981  0.7620  1.1371  0.9235
 2395SOL    HW213023  12.195  11.565   6.031  1.2850  0.1876 -1.7192
 2396SOL     OW13024   0.927   8.322   5.578 -0.5922  0.2409  0.2177
 2396SOL    HW113025   0.995   8.304   5.513  1.5507 -2.0357  2.8496
 2396SOL    HW213026   0.956   8.401   5.622  0.5961 -0.8420  1.4769
 2397SOL     OW13027  10.809   2.857  10.929  0.1368  0.0444  0.0052
 2397SOL    HW113028  10.762   2.903  10.999 -0.2404 -0.0366 -0.1953
 2397SOL    HW213029  10.874   2.805  10.976 -1.1172 -1.2075  0.4285
 2398SOL     OW13030   2.665   8.733   9.584 -0.0026 -0.3049  0.7482
 2398SOL    HW113031   2.666   8.773   9.497  1.0240  0.7313  1.2035
 2398SOL    HW213032   2.713   8.650   9.573 -0.1414 -0.3199  0.2670
 2399SOL     OW13033   9.616   7.986   5.033 -0.7348  0.1834 -0.2644
 2399SOL    HW113034   9.591   8.040   4.957 -2.3607 -0.2066 -0.0387
 2399SOL    HW213035   9.642   7.903   4.995 -2.8885 -0.4997 -0.3802
 2400SOL     OW13036   5.933   3.154   5.684  0.1175 -0.3647 -0.5012
 2400SOL    HW113037   5.981   3.094   5.627  0.6068 -0.8719  0.4376
 2400SOL    HW213038   5.973   3.143   5.770 -1.1520 -0.1961  0.1259
 2401SOL     OW13039   6.873   5.917   5.872  0.4425  0.0282  0.1129
 2401SOL    HW113040   6.843   6.007   5.884  0.2467 -0.0121 -0.0684
 2401SOL    HW213041   6.827   5.866   5.938 -0.3297 -0.1280 -0.5302
 2402SOL     OW13042  10.851  10.908   2.887  0.2057  0.2180 -0.5728
 2402SOL    HW113043  10.821  10.963   2.815 -0.3536 -0.7883 -1.1309
 2402SOL    HW213044  10.940  10.883   2.864  0.1117  0.0963 -0.8154
 2403SOL     OW13045   2.480   5.792   0.883  0.2140 -0.0840  0.5983
 2403SOL    HW113046   2.446   5.735   0.951  2.3103  0.0735  1.8739
 2403SOL    HW213047   2.561   5.828   0.920  2.0127 -0.7705 -2.2974
 2404SOL     OW13048   2.271   7.088   7.273  0.9496 -0.1305 -0.2409
 2404SOL    HW113049   2.346   7.072   7.216  1.5190  1.3432  0.0503
 2404SOL    HW213050   2.233   7.170   7.241 -1.4444 -1.5494 -1.2972
 2405SOL     OW13051   5.808   5.878   5.951 -0.2228 -0.6151 -0.6195
 2405SOL    HW113052   5.874   5.845   5.890 -0.0565  1.3408 -1.6141
 2405SOL    HW213053   5.782   5.962   5.913  0.1472  0.8881  2.1941
 2406SOL     OW13054   2.996   2.133   8.993 -0.2081  0.6514  0.3383
 2406SOL    HW113055   3.049   2.055   8.977 -0.9977  0.2532 -0.4582
 2406SOL    HW213056   3.000   2.147   9.087  1.1419  0.5265  0.3207
 2407SOL     OW13057  10.423   5.428   4.323 -0.0419  0.4209 -0.2404
 2407SOL    HW113058  10.391   5.478   4.248  0.5714  0.6068 -0.3859
 2407SOL    HW213059  10.470   5.493   4.376 -0.5435  0.3135  0.3557
 2408SOL     OW13060   6.202   1.604   3.860 -0.0300 -0.2872  0.1516
 2408SOL    HW113061   6.177   1.593   3.952  0.0836 -1.3536  0.0655
 2408SOL    HW213062   6.275   1.666   3.863  0.3936 -0.8016  0.8443
 2409SOL     OW13063   8.976  10.014   5.398  0.3832  0.1118 -0.6397
 2409SOL    HW113064   8.928  10.095   5.412  0.9950  0.4170 -0.2839
 2409SOL    HW213065   8.947   9.956   5.468  0.5834  0.3211 -0.3809
 2410SOL     OW13066   1.711   0.263   5.480 -0.2366 -0.4132 -0.0018
 2410SOL    HW113067   1.691   0.305   5.564 -0.3582 -2.2865  0.9454
 2410SOL    HW213068   1.805   0.272   5.470 -0.2784  0.2194  0.0814
 2411SOL     OW13069   5.102   7.647   5.278 -0.3536  0.3737  0.2860
 2411SOL    HW113070   5.042   7.719   5.298  1.1392  1.5740  0.6575
 2411SOL    HW213071   5.090   7.585   5.350 -0.8525  0.7980  0.5768
 2412SOL     OW13072   3.979  10.440   8.116  0.1254  0.4187  1.0699
 2412SOL    HW113073   4.015  10.522   8.151 -0.1333  1.3722 -0.7458
 2412SOL    HW213074   4.056  10.390   8.088  0.2122  1.5725 -0.9437
 2413SOL     OW13075   3.890   9.737   0.620  0.1652 -0.2974 -0.5189
 2413SOL    HW113076   3.812   9.682   0.614 -0.4356  0.3937  0.6973
 2413SOL    HW213077   3.891   9.768   0.710  1.3765  0.4059 -0.7544
 2414SOL     OW13078   8.954   9.467   4.135  0.2909 -0.4504 -0.2422
 2414SOL    HW113079   9.030   9.497   4.085  0.6860 -1.5785 -0.3292
 2414SOL    HW213080   8.990   9.433   4.217 -0.2538  0.2990  0.3359
 2415SOL     OW13081  10.898   6.562   6.599 -0.4964  0.4374  0.0502
 2415SOL    HW113082  10.980   6.531   6.636 -0.0003  1.2381 -0.3549
 2415SOL    HW213083  10.887   6.511   6.519 -0.3697  0.3735  0.0735
 2416SOL     OW13084  11.482  11.509   3.157 -0.2872  0.1034  0.2298
 2416SOL    HW113085  11.447  11.428   3.193  0.4890 -0.3619 -0.0431
 2416SOL    HW213086  11.406  11.554   3.120 -0.6451 -0.7296 -0.0611
 2417SOL     OW13087   9.355  10.434   8.250 -0.1981 -0.2431 -0.3540
 2417SOL    HW113088   9.439  10.451   8.292  0.4716 -0.3084 -1.6178
 2417SOL    HW213089   9.291  10.482   8.303  1.0089  2.3118 -1.0526
 2418SOL     OW13090   0.847   5.243  11.055 -0.5691  0.0457  0.0778
 2418SOL    HW113091   0.783   5.182  11.093  1.1212 -0.9240  1.5200
 2418SOL    HW213092   0.822   5.329  11.090  0.9738 -0.8123  3.7285
 2419SOL     OW13093   4.273   5.602   9.636  0.3863  0.2657  0.5111
 2419SOL    HW113094   4.306   5.533   9.694 -0.8524  0.7850  1.8916
 2419SOL    HW213095   4.272   5.680   9.691 -0.3107  0.9068 -0.3894
 2420SOL     OW13096   9.253   0.522   3.744  0.1344  0.1753  0.0622
 2420SOL    HW113097   9.337   0.495   3.782  1.0456  2.1965 -0.3880
 2420SOL    HW213098   9.192   0.452   3.769  2.1002 -1.7962 -0.3197
 2421SOL     OW13099   8.604   3.589   6.536 -0.7515 -0.2967  0.1299
 2421SOL    HW113100   8.656   3.667   6.515 -0.5676 -0.3738  0.2880
 2421SOL    HW213101   8.555   3.614   6.614 -0.3621 -0.4837  0.4390
 2422SOL     OW13102   6.508   8.941   8.283  0.4227 -0.0027 -0.2555
 2422SOL    HW113103   6.516   8.869   8.220 -0.0011  0.7369 -1.1752
 2422SOL    HW213104   6.439   8.913   8.343 -0.3564 -0.0187 -1.1248
 2423SOL     OW13105   2.995   8.286   2.067  0.1975  0.0235  0.3299
 2423SOL    HW113106   2.922   8.308   2.125 -0.0848 -2.1784  0.8779
 2423SOL    HW213107   2.973   8.200   2.031  1.6067  0.1902 -1.0519
 2424SOL     OW13108   1.425   6.750   8.904  0.1159 -0.6746  0.2991
 2424SOL    HW113109   1.393   6.790   8.823 -0.1624  0.5092  0.9716
 2424SOL    HW213110   1.346   6.725   8.951  0.2795 -1.3629  0.2178
 2425SOL     OW13111   2.296   2.094   6.805 -0.4501  0.2820 -0.3656
 2425SOL    HW113112   2.260   2.077   6.718  0.3608 -4.1798 -0.0903
 2425SOL    HW213113   2.369   2.154   6.789  0.4731 -1.3263 -3.0808
 2426SOL     OW13114   2.765   0.668  12.266 -0.7159 -0.3025 -0.3871
 2426SOL    HW113115   2.787   0.718  12.188  0.1877  0.3217  0.2399
 2426SOL    HW213116   2.718   0.591  12.234  0.8458 -0.7759 -1.6788
 2427SOL     OW13117   8.108   2.508   7.244 -0.1787  0.2299  0.8309
 2427SOL    HW113118   8.028   2.455   7.245 -0.6205  0.8283 -0.2619
 2427SOL    HW213119   8.088   2.582   7.301 -0.4534  0.4290  0.4822
 2428SOL     OW13120  10.957   3.024   0.006  0.3476  0.0734  0.3235
 2428SOL    HW113121  10.913   3.106   0.030  1.6446  1.7090 -2.4701
 2428SOL    HW213122  10.888   2.971  -0.034  0.1190  1.1277 -0.7223
 2429SOL     OW13123  10.451  11.731   7.966 -0.1626  0.1870 -0.7743
 2429SOL    HW113124  10.475  11.738   7.874 -1.2194  0.4991 -1.0357
 2429SOL    HW213125  10.524  11.772   8.013 -0.5410  1.8892 -1.5970
 2430SOL     OW13126   6.251   0.027   6.292  0.2274 -0.2542  0.4516
 2430SOL    HW113127   6.296  -0.048   6.252 -2.2266 -2.7305  1.9794
 2430SOL    HW213128   6.284   0.029   6.382  0.6851  0.9512  0.2825
 2431SOL     OW13129  10.658   9.011   1.318 -0.4315 -0.8243  0.6660
 2431SOL    HW113130  10.719   9.030   1.246  1.5695  0.0163  2.4841
 2431SOL    HW213131  10.585   9.071   1.304  0.0234 -0.5215 -0.5214
 2432SOL     OW13132   9.496   5.997   8.170 -0.6823 -0.0367  0.6251
 2432SOL    HW113133   9.544   6.079   8.154 -0.4740 -0.3766 -0.5845
 2432SOL    HW213134   9.475   6.000   8.264  1.0631  0.4659  1.0366
 2433SOL     OW13135   3.262   4.215   5.647 -0.0235  0.5648 -0.4094
 2433SOL    HW113136   3.218   4.207   5.732  0.1387 -2.1728 -0.4889
 2433SOL    HW213137   3.223   4.292   5.607 -0.0190  2.0102  2.1710
 2434SOL     OW13138   7.739  11.041   9.714  0.5150 -0.0070 -0.1428
 2434SOL    HW113139   7.812  11.096   9.684  0.2396  1.0835  1.1054
 2434SOL    HW213140   7.679  11.038   9.640  0.2742  1.8790 -0.0686
 2435SOL     OW13141  10.010  10.074   5.956 -0.4429 -0.2637  0.4332
 2435SOL    HW113142   9.989  10.164   5.932  0.3385 -0.6117 -1.7307
 2435SOL    HW213143  10.103  10.075   5.975 -0.8078 -0.2510  2.4583
 2436SOL     OW13144  12.149  10.962   5.311  0.4220 -0.0421 -0.6201
 2436SOL    HW113145  12.126  10.972   5.404  0.7977 -1.6099 -0.3356
 2436SOL    HW213146  12.120  10.874   5.288 -0.4016  0.6114 -2.2433
 2437SOL     OW13147   2.250   6.593  12.055  0.5932 -0.6531 -0.6423
 2437SOL    HW113148   2.316   6.528  12.029  0.8509 -0.3198 -0.8184
 2437SOL    HW213149   2.292   6.677  12.039  0.4702 -0.4426  0.1349
 2438SOL     OW13150   1.190   2.271   2.916  0.1629  0.2215 -0.0218
 2438SOL    HW113151   1.258   2.315   2.968 -0.6157 -1.6151  2.7731
 2438SOL    HW213152   1.238   2.206   2.864  0.8113  0.9478 -0.3441
 2439SOL     OW13153  12.219   4.772  11.079 -0.1291 -0.2384  0.5033
 2439SOL    HW113154  12.237   4.678  11.080 -1.7764 -0.5752  1.2339
 2439SOL    HW213155  12.238   4.802  11.167  1.6155  0.4033 -0.0503
 2440SOL     OW13156   6.581   4.858   6.307  0.6242 -0.3083  0.1466
 2440SOL    HW113157   6.533   4.782   6.274  0.8385 -0.3716 -0.0226
 2440SOL    HW213158   6.636   4.885   6.234 -0.8239  1.1827 -0.4516
 2441SOL     OW13159   5.178   7.716  10.987 -0.5765  0.1655 -0.2778
 2441SOL    HW113160   5.160   7.806  10.961  0.0299 -0.4280 -3.0039
 2441SOL    HW213161   5.156   7.663  10.910  0.0340 -1.9356  0.8941
 2442SOL     OW13162   7.367   0.081   9.716  0.4874 -0.2634  0.3612
 2442SOL    HW113163   7.296   0.146   9.716 -0.7537 -1.5616  0.0217
 2442SOL    HW213164   7.446   0.132   9.699 -0.4990  1.1040 -0.3660
 2443SOL     OW13165   1.482  10.155   2.060  0.2277  1.1174 -0.0079
 2443SOL    HW113166   1.392  10.181   2.079 -0.0790 -0.4327  0.8893
 2443SOL    HW213167   1.507  10.102   2.135  1.4100  0.3957 -0.8828
 2444SOL     OW13168   7.489   9.960   4.864  0.0522  0.0180 -0.1658
 2444SOL    HW113169   7.394   9.965   4.853 -0.1330  0.0818  1.2256
 2444SOL    HW213170   7.514   9.878   4.822 -0.6197 -0.0185 -0.5115
 2445SOL     OW13171   4.745  11.791   5.492  0.4932 -0.2970  0.0453
 2445SOL    HW113172   4.736  11.839   5.574  1.5765  0.6243 -0.3436
 2445SOL    HW213173   4.660  11.800   5.449  0.5534  0.9456  0.1621
 2446SOL     OW13174   1.653   6.285  11.559 -0.2944  0.0404 -0.3565
 2446SOL    HW113175   1.736   6.289  11.606  1.2485 -1.0319 -2.8214
 2446SOL    HW213176   1.610   6.369  11.577  1.5401  0.8300  0.5278
 2447SOL     OW13177   9.977   5.281   0.002 -0.1092  0.3608  0.2219
 2447SOL    HW113178  10.059   5.233   0.018 -0.1654  0.8929  2.5034
 2447SOL    HW213179   9.919   5.253   0.072 -1.5741  0.7183 -0.8051
 2448SOL     OW13180  11.419   9.020  10.266 -0.1782 -0.2256  0.0598
 2448SOL    HW113181  11.447   9.082  10.198 -1.1827  1.5611  1.1976
 2448SOL    HW213182  11.377   9.074  10.332 -2.5763 -2.2768  0.3809
 2449SOL     OW13183   2.721   7.208   5.657  0.3455  0.7273  0.0556
 2449SOL    HW113184   2.628   7.224   5.671  0.0756 -0.6832  0.0917
 2449SOL    HW213185   2.726   7.173   5.567  0.3843 -2.0725  1.0436
 2450SOL     OW13186  11.456   9.867   4.201 -0.2470  0.5795 -0.0497
 2450SOL    HW113187  11.466   9.951   4.245  1.5619  0.3428  0.0935
 2450SOL    HW213188  11.504   9.877   4.119  0.9325 -0.6013  0.4459
 2451SOL     OW13189  11.362  11.899   3.717 -0.0379  0.3036  0.4621
 2451SOL    HW113190  11.300  11.836   3.682 -1.1610  0.6840  1.7059
 2451SOL    HW213191  11.369  11.966   3.650  0.0969 -0.4339 -0.2731
 2452SOL     OW13192  12.316   2.518   5.185 -0.0526  0.1397 -0.5834
 2452SOL    HW113193  12.232   2.548   5.220 -0.3418 -0.8864 -0.3374
 2452SOL    HW213194  12.296   2.431   5.149  0.9963 -0.3163 -0.0937
 2453SOL     OW13195  10.435   0.385  11.205  0.6197  0.2348  0.0242
 2453SOL    HW113196  10.416   0.407  11.114  0.1683  1.5232  0.4153
 2453SOL    HW213197  10.486   0.458  11.238 -0.2060  0.3405  1.1261
 2454SOL     OW13198   6.310   7.575   4.160 -0.0815  0.3647 -0.4077
 2454SOL    HW113199   6.386   7.567   4.218 -0.0384  1.7265 -0.2621
 2454SOL    HW213200   6.312   7.665   4.129 -0.9899  0.0876 -1.3173
 2455SOL     OW13201   8.653   4.365   1.501 -0.4889 -0.0715  0.3777
 2455SOL    HW113202   8.589   4.430   1.471 -0.6209 -0.7232 -0.8571
 2455SOL    HW213203   8.604   4.282   1.502  0.1863 -0.4890 -0.0564
 2456SOL     OW13204   6.789   9.683  11.856  0.4146  0.0852 -0.3055
 2456SOL    HW113205   6.862   9.666  11.796  0.1009 -0.1092 -0.6453
 2456SOL    HW213206   6.828   9.684  11.943  1.0497  1.4349 -0.5917
 2457SOL     OW13207  10.853   0.146  11.788  0.0197 -0.0077 -0.1924
 2457SOL    HW113208  10.812   0.158  11.874  1.1473 -1.3885  0.5816
 2457SOL    HW213209  10.781   0.127  11.729 -0.5739 -1.6824  0.9923
 2458SOL     OW13210   1.470   8.312   1.608 -0.2089  0.2370  0.4151
 2458SOL    HW113211   1.550   8.336   1.561 -1.0249  0.0359 -1.1292
 2458SOL    HW213212   1.478   8.218   1.623  0.5710  0.4810  1.7704
 2459SOL     OW13213   0.662   9.968  11.700 -0.0859 -0.3400  0.1574
 2459SOL    HW113214   0.660  10.063  11.692 -1.7762 -0.3756 -0.2821
 2459SOL    HW213215   0.639   9.936  11.613 -2.3131 -1.0691  0.9490
 2460SOL     OW13216   5.917   7.826   2.503 -0.3767  0.1736 -0.4394
 2460SOL    HW113217   5.886   7.777   2.580 -1.0939 -0.3018 -1.0168
 2460SOL    HW213218   5.861   7.796   2.432 -0.5815  1.5646 -0.8877
 2461SOL     OW13219   2.984   6.217  10.149 -0.2541 -0.1281  0.1764
 2461SOL    HW113220   3.058   6.175  10.107 -0.9484 -0.9524 -0.2465
 2461SOL    HW213221   2.929   6.247  10.076  0.4515  1.9755  0.4414
 2462SOL     OW13222  10.894   8.561   4.517  0.2000  0.0664 -0.4060
 2462SOL    HW113223  10.814   8.568   4.465 -0.4854 -1.5728  0.3570
 2462SOL    HW213224  10.866   8.518   4.598  1.9913 -1.3264 -0.4563
 2463SOL     OW13225  10.187   7.280  12.175  0.5063 -0.1427  0.2864
 2463SOL    HW113226  10.166   7.309  12.264  0.4527  2.3219 -0.4302
 2463SOL    HW213227  10.231   7.196  12.186  0.1984 -0.0652  2.6006
 2464SOL     OW13228   1.056   6.456  12.242  0.1152  0.1730 -0.2036
 2464SOL    HW113229   0.986   6.468  12.178  1.3919 -0.1046 -1.6889
 2464SOL    HW213230   1.046   6.366  12.272  0.9854 -0.5125 -1.8676
 2465SOL     OW13231  10.345   4.599   2.194 -0.4822  0.0864  0.1501
 2465SOL    HW113232  10.344   4.533   2.124 -1.0554  0.1866  0.0577
 2465SOL    HW213233  10.354   4.682   2.148  0.9181  0.0436  0.3047
 2466SOL     OW13234   8.396   2.898   0.478 -0.0657 -0.0302  0.4920
 2466SOL    HW113235   8.324   2.879   0.418  0.1165 -0.5244  0.4242
 2466SOL    HW213236   8.385   2.834   0.548  0.1918  0.0227  0.5793
 2467SOL     OW13237   8.111  10.675   7.531 -0.3061 -0.4648 -0.1959
 2467SOL    HW113238   8.164  10.742   7.575  0.5435 -0.6032 -0.9876
 2467SOL    HW213239   8.123  10.692   7.438 -0.5938 -1.3418 -0.4003
 2468SOL     OW13240   7.502  11.744   1.984  0.2145 -0.2568  0.2712
 2468SOL    HW113241   7.596  11.743   2.001  0.1007 -0.6486  0.8817
 2468SOL    HW213242   7.463  11.784   2.062 -0.4458 -3.5385  1.7916
 2469SOL     OW13243   5.867   6.603   5.962 -0.3130 -0.0637 -0.6484
 2469SOL    HW113244   5.910   6.683   5.933 -1.4980  1.5260  1.6451
 2469SOL    HW213245   5.832   6.564   5.882  0.2015  1.7750 -1.8352
 2470SOL     OW13246   5.651   5.262  10.034 -0.0744  0.3597 -0.0727
 2470SOL    HW113247   5.700   5.334  10.073 -0.0196  0.3611 -0.1460
 2470SOL    HW213248   5.672   5.265   9.941 -0.1349  0.2994 -0.0883
 2471SOL     OW13249   5.858   9.544   2.276  0.0769  0.5566 -0.2878
 2471SOL    HW113250   5.768   9.511   2.277  0.6911 -1.2422  1.4633
 2471SOL    HW213251   5.848   9.639   2.265 -2.0555  0.4461  0.2254
 2472SOL     OW13252   2.962   5.546   2.279  0.6342 -0.1788  0.4681
 2472SOL    HW113253   3.020   5.537   2.204  0.1184  0.2340  0.0053
 2472SOL    HW213254   2.893   5.481   2.263  0.2222  0.2982  0.2889
 2473SOL     OW13255   5.200   5.669   6.588 -0.1615 -0.1108 -0.0664
 2473SOL    HW113256   5.234   5.727   6.656 -0.0698 -0.3457  0.0876
 2473SOL    HW213257   5.273   5.658   6.527 -0.6550  1.2100 -0.9502
 2474SOL     OW13258   0.611   9.047   9.219  0.6165  0.0889 -0.4135
 2474SOL    HW113259   0.562   9.128   9.213 -0.7232 -0.6390  0.2004
 2474SOL    HW213260   0.660   9.054   9.301  1.4567  0.7775 -0.9746
 2475SOL     OW13261   8.404  12.252   5.729 -0.4206  0.0665  0.5121
 2475SOL    HW113262   8.380  12.310   5.657 -1.2688  0.4081  1.0671
 2475SOL    HW213263   8.494  12.277   5.751  0.2913 -0.7909 -1.1459
 2476SOL     OW13264  10.169   5.645   4.444 -0.0454 -0.1545  0.0116
 2476SOL    HW113265  10.247   5.601   4.411  0.5945 -1.1156  2.5335
 2476SOL    HW213266  10.198   5.734   4.465  0.2845 -0.3653  0.4842
 2477SOL     OW13267   2.951   2.551   7.751  0.3264 -0.2743  0.1441
 2477SOL    HW113268   2.868   2.516   7.783 -0.8720  2.1311 -0.1441
 2477SOL    HW213269   3.017   2.518   7.813 -0.3676 -4.1227 -0.8802
 2478SOL     OW13270   9.651  11.253  10.981 -0.7686  0.1271  0.3633
 2478SOL    HW113271   9.686  11.342  10.995  0.0148 -0.0893 -0.1122
 2478SOL    HW213272   9.675  11.205  11.060  1.6465 -0.4908 -0.6525
 2479SOL     OW13273   1.683   9.001  11.622 -0.2556  0.4924  0.0852
 2479SOL    HW113274   1.642   8.939  11.562  0.2927  1.7377 -1.6460
 2479SOL    HW213275   1.734   8.946  11.682 -0.0863 -0.7621 -1.1557
 2480SOL     OW13276   1.326   2.727   4.785 -0.0163 -0.1902  0.6971
 2480SOL    HW113277   1.303   2.690   4.700  0.4502  2.6771 -0.8077
 2480SOL    HW213278   1.242   2.747   4.826 -0.2531 -2.0136  1.1798
 2481SOL     OW13279   3.460   0.069   6.361  0.2473  0.3451 -0.1152
 2481SOL    HW113280   3.370   0.049   6.387 -0.6627  0.7215 -2.6220
 2481SOL    HW213281   3.506   0.086   6.443 -2.2064  1.0634  1.2225
 2482SOL     OW13282   9.979   3.750   5.743  0.1425  0.4444  0.3030
 2482SOL    HW113283   9.966   3.681   5.807  0.7594  0.0129 -0.0290
 2482SOL    HW213284  10.059   3.795   5.772  1.3474 -0.7432 -0.9987
 2483SOL     OW13285   9.688   1.830  12.056 -0.0384 -0.1236 -0.0451
 2483SOL    HW113286   9.750   1.760  12.034 -0.5931  0.1840 -3.0211
 2483SOL    HW213287   9.736   1.911  12.041 -1.1519  0.1299 -2.8959
 2484SOL     OW13288   1.722   4.544  10.677 -0.2909  0.1179 -0.0724
 2484SOL    HW113289   1.646   4.488  10.665  0.3816 -0.7591 -0.2945
 2484SOL    HW213290   1.698   4.601  10.750 -1.8656  1.1088 -1.2949
 2485SOL     OW13291   0.333   6.033   6.423 -0.0977 -0.1162  0.3042
 2485SOL    HW113292   0.297   6.087   6.352 -0.0433 -0.7935 -0.2500
 2485SOL    HW213293   0.381   6.095   6.478 -0.3080  0.4526 -0.1404
 2486SOL     OW13294   7.663   6.053  10.188  0.2426  0.4664  0.5868
 2486SOL    HW113295   7.645   5.961  10.206 -1.6977  0.7108  0.0754
 2486SOL    HW213296   7.688   6.055  10.096  1.2169  0.3618  0.8339
 2487SOL     OW13297   6.538   5.902  10.014  0.3980 -0.3235 -0.2645
 2487SOL    HW113298   6.554   5.808  10.008 -1.5185 -0.9080  2.1435
 2487SOL    HW213299   6.482   5.912  10.091  0.2744  2.7751 -0.6278
 2488SOL     OW13300   4.781   7.562   2.704  0.3355  0.7207  0.0697
 2488SOL    HW113301   4.862   7.530   2.664 -1.2170 -1.7788 -1.2701
 2488SOL    HW213302   4.777   7.519   2.789 -0.2957 -0.3729 -0.4981
 2489SOL     OW13303   9.891  12.231   2.845 -0.3899  0.0807 -0.5077
 2489SOL    HW113304   9.901  12.297   2.913  1.3799 -0.3297 -0.3198
 2489SOL    HW213305   9.899  12.147   2.891 -0.6866 -0.2324 -1.0156
 2490SOL     OW13306   4.216   7.838  10.763 -0.1451  0.1911  0.2461
 2490SOL    HW113307   4.139   7.893  10.751 -0.5176 -0.3126  0.2824
 2490SOL    HW213308   4.285   7.883  10.714 -0.8306 -0.1110 -1.0613
 2491SOL     OW13309   5.550   0.264   1.027 -0.0583 -0.1970 -0.3193
 2491SOL    HW113310   5.528   0.354   1.004  0.9626  0.9815  2.8245
 2491SOL    HW213311   5.467   0.216   1.021 -0.9286  1.2901 -0.5469
 2492SOL     OW13312  10.079   2.450   2.501  0.0469 -0.2328 -0.1891
 2492SOL    HW113313  10.074   2.369   2.450 -0.1510 -0.7201  0.5953
 2492SOL    HW213314  10.015   2.439   2.571  0.6882  0.2059  0.4839
 2493SOL     OW13315  10.085   3.932   1.563 -0.4987 -0.3349 -0.3194
 2493SOL    HW113316  10.033   3.997   1.610  0.1741  1.1545 -1.5737
 2493SOL    HW213317  10.085   3.961   1.472  1.4472 -0.9998 -0.5720
 2494SOL     OW13318   2.373   6.210  12.062 -0.2466  0.2838  0.2841
 2494SOL    HW113319   2.285   6.171  12.071  0.3133 -1.1507 -0.1056
 2494SOL    HW213320   2.359   6.289  12.009 -1.1263 -0.7798 -1.1761
 2495SOL     OW13321  11.386  11.235  11.451 -0.1549  0.0405  0.5269
 2495SOL    HW113322  11.326  11.310  11.451  0.4804  0.5527  0.8165
 2495SOL    HW213323  11.342  11.170  11.506  0.1489  0.9092  1.8588
 2496SOL     OW13324   4.364  10.947   8.149  0.0770  0.1795  0.1225
 2496SOL    HW113325   4.370  11.026   8.095  0.9320 -0.8331 -1.3372
 2496SOL    HW213326   4.279  10.954   8.192  0.3252  2.0990  0.3795
 2497SOL     OW13327   2.515   6.428   5.262 -0.1769  0.4379  0.0084
 2497SOL    HW113328   2.513   6.516   5.300  0.8347 -0.1394  1.4830
 2497SOL    HW213329   2.595   6.426   5.209 -1.0273  0.8877 -1.3572
 2498SOL     OW13330   2.987   5.480  11.110 -0.2008  0.5141  0.6403
 2498SOL    HW113331   3.066   5.485  11.057 -0.8813  0.8881 -0.3636
 2498SOL    HW213332   2.982   5.388  11.136 -0.4567  0.0557 -0.9178
 2499SOL     OW13333   6.348   2.770  10.073  0.6306 -0.2083 -0.6391
 2499SOL    HW113334   6.336   2.685  10.029 -0.9470 -0.7742  0.7771
 2499SOL    HW213335   6.278   2.824  10.037 -0.8051 -0.7373  1.2182
 2500SOL     OW13336   6.996  11.552  10.943 -0.2482 -0.1886 -0.6930
 2500SOL    HW113337   7.063  11.490  10.913 -0.3445  0.2530 -1.8712
 2500SOL    HW213338   7.038  11.599  11.015 -0.0630 -1.3835  0.0144
 2501SOL     OW13339   4.353   6.623   4.372  0.1005  0.6324  1.2155
 2501SOL    HW113340   4.317   6.566   4.440 -0.3953  0.4803  0.8236
 2501SOL    HW213341   4.278   6.670   4.337  0.0839 -0.6013 -0.4716
 2502SOL     OW13342   0.932   0.166   1.669  0.4769 -0.2028  0.3560
 2502SOL    HW113343   0.842   0.193   1.654  0.6110  0.1838  0.2256
 2502SOL    HW213344   0.927   0.104   1.741  0.0943 -0.2666  0.2771
 2503SOL     OW13345   6.667   8.684   3.830  0.3048  0.3459 -0.4016
 2503SOL    HW113346   6.714   8.627   3.891 -0.5396 -0.0215 -0.0849
 2503SOL    HW213347   6.722   8.762   3.823  0.7603  0.0938  0.2748
 2504SOL     OW13348   2.035  10.526   8.180 -0.2776  0.1285  0.0931
 2504SOL    HW113349   2.013  10.440   8.145  0.4750 -0.4279  0.9412
 2504SOL    HW213350   2.085  10.508   8.259 -1.2939  1.3489  1.0625
 2505SOL     OW13351   0.980   0.212   3.633  0.2331 -0.6992  0.3918
 2505SOL    HW113352   0.973   0.117   3.636 -1.1940 -0.6806 -1.0708
 2505SOL    HW213353   1.070   0.229   3.606  0.1793 -1.6716 -0.4426
 2506SOL     OW13354  11.814  11.491   4.719  0.1868  0.1418  0.2074
 2506SOL    HW113355  11.859  11.496   4.634 -0.1235 -1.9588 -0.1467
 2506SOL    HW213356  11.858  11.419   4.764 -1.1136 -0.2345  0.9116
 2507SOL     OW13357   2.997   1.726   7.018 -0.4544  0.0908  0.0012
 2507SOL    HW113358   3.026   1.743   7.108 -1.0008 -0.3486  0.2663
 2507SOL    HW213359   3.026   1.637   7.000  0.8892  0.6467 -0.7726
 2508SOL     OW13360   5.461   8.095   7.454 -0.1844  0.5433  0.6281
 2508SOL    HW113361   5.500   8.124   7.536  0.5762  1.1428  0.0774
 2508SOL    HW213362   5.509   8.016   7.432 -0.5924  0.2168  0.9092
 2509SOL     OW13363  10.096   9.526   3.337  0.0654 -0.2126 -0.5788
 2509SOL    HW113364  10.021   9.471   3.314 -0.3880  0.1265  0.0515
 2509SOL    HW213365  10.148   9.471   3.396  0.1866 -0.3608 -0.8232
 2510SOL     OW13366  12.093   1.811   8.581 -0.4795  0.2050 -0.1832
 2510SOL    HW113367  12.026   1.764   8.530  0.7785 -1.4001 -0.4256
 2510SOL    HW213368  12.046   1.887   8.617 -1.3562  1.7546 -4.0939
 2511SOL     OW13369   3.699   7.751   2.025 -0.7038 -0.2879  0.0302
 2511SOL    HW113370   3.738   7.719   1.943 -3.1559  0.0809 -1.3897
 2511SOL    HW213371   3.734   7.839   2.036  0.2414 -0.6237 -0.1825
 2512SOL     OW13372  10.419   7.091   2.492  0.4556 -0.5434  0.2260
 2512SOL    HW113373  10.397   7.165   2.436 -2.3395 -0.5966  1.1355
 2512SOL    HW213374  10.364   7.019   2.461 -1.9746 -0.3282  3.4785
 2513SOL     OW13375   4.451   0.940   2.073  0.5935  0.1305  0.3941
 2513SOL    HW113376   4.461   0.851   2.040 -1.6363  0.0502 -0.2703
 2513SOL    HW213377   4.408   0.987   2.001  0.9088  1.5128  1.0726
 2514SOL     OW13378  10.998   2.518   2.252 -0.3820 -0.2470 -0.2928
 2514SOL    HW113379  10.953   2.435   2.272 -1.8900  0.6312  0.1440
 2514SOL    HW213380  11.017   2.513   2.159 -1.1504 -0.7858 -0.4363
 2515SOL     OW13381   3.501  11.253   4.735 -0.5713 -0.5158 -0.1099
 2515SOL    HW113382   3.474  11.343   4.754 -2.3865 -1.1164  0.4278
 2515SOL    HW213383   3.592  11.260   4.707  0.4624  1.1513  3.1566
 2516SOL     OW13384  10.160  10.900   6.923 -0.1154 -0.2432 -0.0527
 2516SOL    HW113385  10.173  10.884   7.016 -1.8684  0.8220  0.4349
 2516SOL    HW213386  10.086  10.845   6.899  0.3154 -0.5024 -0.8264
 2517SOL     OW13387   5.112   3.626   7.913 -0.6067  0.2422 -0.0891
 2517SOL    HW113388   5.098   3.545   7.964 -0.1916  0.8934  1.1031
 2517SOL    HW213389   5.086   3.696   7.973  0.8598  1.0869 -0.4171
 2518SOL     OW13390   7.944   3.103   5.983 -0.1443 -0.5978  0.1577
 2518SOL    HW113391   7.972   3.013   5.963 -0.8438 -0.4430 -1.7699
 2518SOL    HW213392   7.858   3.110   5.942  0.0156  1.0344  0.0540
 2519SOL     OW13393  11.000  10.842   5.374  0.2324  0.0078  0.9646
 2519SOL    HW113394  11.064  10.846   5.303 -1.3037 -1.2215 -0.5529
 2519SOL    HW213395  10.976  10.750   5.380 -3.1269  0.6766 -0.1832
 2520SOL     OW13396   8.065   0.371   3.592 -0.1484  0.0930  0.4275
 2520SOL    HW113397   8.032   0.381   3.682  2.0018  1.8309  1.1395
 2520SOL    HW213398   8.038   0.451   3.548  0.1962 -0.0059  0.0307
 2521SOL     OW13399   2.693   1.122   0.856  0.0232 -0.0615  0.2904
 2521SOL    HW113400   2.656   1.047   0.902  2.0458 -1.2972 -0.0075
 2521SOL    HW213401   2.645   1.197   0.891 -0.4146 -1.2407  2.3668
 2522SOL     OW13402   5.094  10.177   5.706  0.0644  0.6714  0.1964
 2522SOL    HW113403   5.115  10.232   5.781  0.1144  2.0083 -0.7692
 2522SOL    HW213404   5.159  10.201   5.640 -0.5882  0.2302 -0.6174
 2523SOL     OW13405   4.608   0.319   8.406 -0.0117 -0.3455  0.3598
 2523SOL    HW113406   4.683   0.367   8.440 -0.9587  0.1959  1.7251
 2523SOL    HW213407   4.636   0.292   8.318  0.7307  2.2439 -0.2840
 2524SOL     OW13408   5.062   7.928   8.071 -0.1093 -0.3721 -0.2967
 2524SOL    HW113409   5.036   8.014   8.037 -0.2940  0.0932  0.9431
 2524SOL    HW213410   4.982   7.876   8.069 -0.7326  0.3966  1.5379
 2525SOL     OW13411   3.248   3.711  12.224  0.1844  0.4026  0.2275
 2525SOL    HW113412   3.320   3.747  12.276  0.7543  0.1869 -0.3892
 2525SOL    HW213413   3.255   3.616  12.236 -0.5311  0.4154  0.8376
 2526SOL     OW13414  11.789   0.233   1.014 -0.0014  0.0716 -0.3343
 2526SOL    HW113415  11.876   0.205   1.045 -1.2177 -3.0215  0.6667
 2526SOL    HW213416  11.794   0.224   0.919 -0.0605 -3.2365 -0.1299
 2527SOL     OW13417   9.113   0.333   3.877 -0.2456  0.1379 -0.6814
 2527SOL    HW113418   9.032   0.283   3.890  1.6179 -3.6023 -1.9757
 2527SOL    HW213419   9.165   0.315   3.956 -0.9187  3.4058  0.6638
 2528SOL     OW13420   7.620   2.744   5.411  0.1932  0.3489  0.0816
 2528SOL    HW113421   7.615   2.804   5.336  0.2396  0.4396  0.1499
 2528SOL    HW213422   7.651   2.799   5.483  0.3655  0.2123  0.1126
 2529SOL     OW13423   6.848   9.130   4.735 -0.0435 -0.0935 -0.0708
 2529SOL    HW113424   6.876   9.057   4.680  1.2135  0.0585  0.3429
 2529SOL    HW213425   6.926   9.184   4.745 -0.6613  0.7025  0.5783
 2530SOL     OW13426   5.734  10.286   2.493 -0.1946  0.3902 -0.1409
 2530SOL    HW113427   5.817  10.292   2.447 -0.4883  0.2714 -0.7006
 2530SOL    HW213428   5.752  10.317   2.582  1.0914 -2.1972  0.5935
 2531SOL     OW13429  10.446   1.687  10.744  0.0049 -0.0656  0.1548
 2531SOL    HW113430  10.400   1.671  10.826  1.9304 -4.4314  0.6797
 2531SOL    HW213431  10.527   1.732  10.770 -0.5917  0.9658  0.2466
 2532SOL     OW13432   8.345   1.447   6.643 -0.3674  0.3991 -0.1295
 2532SOL    HW113433   8.425   1.496   6.658  0.3605 -0.7161 -0.2108
 2532SOL    HW213434   8.276   1.513   6.638  0.2173  1.2461  2.1024
 2533SOL     OW13435   6.876   4.563   1.153  0.5817  0.5533  0.2997
 2533SOL    HW113436   6.801   4.601   1.199  0.8556  0.3157  0.9669
 2533SOL    HW213437   6.850   4.474   1.133 -0.4771  1.3474 -2.2337
 2534SOL     OW13438  11.801   3.337   5.604 -0.0101 -0.1091  0.9547
 2534SOL    HW113439  11.813   3.384   5.687 -0.4608 -0.3825  1.1775
 2534SOL    HW213440  11.706   3.329   5.594  0.0553 -0.5443  0.6735
 2535SOL     OW13441   7.579   5.985   2.208 -0.6119 -0.5146  0.2190
 2535SOL    HW113442   7.563   6.074   2.176 -3.0772 -0.2603  1.8546
 2535SOL    HW213443   7.634   5.944   2.140 -0.9394  1.6586 -1.4690
 2536SOL     OW13444  10.759   3.650   8.964  0.2012 -0.6076  0.0080
 2536SOL    HW113445  10.760   3.724   8.903 -0.1582 -0.6084 -0.0030
 2536SOL    HW213446  10.667   3.622   8.966 -0.0488  0.2313  1.5662
 2537SOL     OW13447   3.633   7.665   9.622  0.1408 -0.6104 -0.3815
 2537SOL    HW113448   3.639   7.727   9.550 -0.5557 -0.8429 -0.6465
 2537SOL    HW213449   3.663   7.714   9.699 -0.4043  0.0580 -0.5899
 2538SOL     OW13450   1.951   7.074   6.000 -0.3831 -0.3565 -0.1999
 2538SOL    HW113451   1.942   7.159   6.044 -0.6580  0.4432 -1.7260
 2538SOL    HW213452   2.019   7.088   5.934 -0.9656 -1.1061 -0.9798
 2539SOL     OW13453   6.346  11.150  10.909 -0.4965 -0.2929  0.7754
 2539SOL    HW113454   6.314  11.209  10.977  0.2992 -1.0688  1.8638
 2539SOL    HW213455   6.430  11.188  10.882 -0.3506 -0.5092  0.9236
 2540SOL     OW13456   7.352   1.741   2.881  0.4238 -0.1602 -0.0161
 2540SOL    HW113457   7.335   1.733   2.975 -0.4404 -0.7125 -0.2112
 2540SOL    HW213458   7.428   1.800   2.876 -0.4606  1.1375  0.9571
 2541SOL     OW13459  10.201  11.882   3.807 -0.2166 -0.1254  0.0973
 2541SOL    HW113460  10.282  11.918   3.842 -0.8460  0.8930  0.5353
 2541SOL    HW213461  10.213  11.886   3.712  0.5168 -0.6360  0.1592
 2542SOL     OW13462  11.842   8.316   2.856  0.1704  1.0284 -0.3434
 2542SOL    HW113463  11.839   8.350   2.766 -0.8078 -0.2707 -0.8263
 2542SOL    HW213464  11.899   8.378   2.902  2.1629  0.7774 -2.2634
 2543SOL     OW13465   9.088   9.065  10.542  0.2538 -0.1342 -0.0607
 2543SOL    HW113466   9.080   8.994  10.606 -0.3136 -1.2748 -1.3547
 2543SOL    HW213467   9.115   9.022  10.461 -0.1656  1.1138 -0.9000
 2544SOL     OW13468  11.906   4.729   4.128 -0.1619 -0.1520  0.1196
 2544SOL    HW113469  11.990   4.772   4.143  0.3721 -0.9321 -0.4923
 2544SOL    HW213470  11.896   4.668   4.201 -0.8493  0.8634  0.9083
 2545SOL     OW13471   0.099   7.552   3.994 -0.4232  0.2119 -0.1352
 2545SOL    HW113472   0.138   7.521   3.912 -0.3300  0.6839 -0.2733
 2545SOL    HW213473   0.011   7.516   3.994  0.0636 -1.0329  0.2694
 2546SOL     OW13474   7.043   6.472  10.348  0.0159  0.4674  0.2495
 2546SOL    HW113475   6.986   6.398  10.367  0.1041  0.5614  0.9153
 2546SOL    HW213476   7.096   6.443  10.274 -1.4351  0.6761 -0.9209
 2547SOL     OW13477   1.176   8.548   8.676  0.2275  0.3525  0.4511
 2547SOL    HW113478   1.207   8.564   8.765  0.1209 -2.3184  1.0363
 2547SOL    HW213479   1.105   8.485   8.686  0.6103 -0.4774 -1.5659
 2548SOL     OW13480  11.522   1.308   9.520  0.4740 -0.1618  0.7089
 2548SOL    HW113481  11.595   1.351   9.476  0.6539 -0.2146  0.9539
 2548SOL    HW213482  11.461   1.286   9.450  1.2762 -1.2692  0.3308
 2549SOL     OW13483   4.634   4.352   6.522 -0.1462  0.4240 -0.2732
 2549SOL    HW113484   4.592   4.335   6.437  2.8267  0.0376 -1.8032
 2549SOL    HW213485   4.677   4.437   6.511  1.2641 -0.1704  0.3890
 2550SOL     OW13486   3.690   4.082   4.430 -0.5832 -0.1393  0.5402
 2550SOL    HW113487   3.771   4.048   4.469  0.4689 -0.5136 -1.8240
 2550SOL    HW213488   3.672   4.024   4.356 -2.4419  0.5828  0.3712
 2551SOL     OW13489  12.162   8.692   1.906  0.0942  0.1756  0.0413
 2551SOL    HW113490  12.173   8.707   1.812 -0.0137  0.2579  0.0414
 2551SOL    HW213491  12.069   8.708   1.923  0.3335  1.3427  0.3635
 2552SOL     OW13492   3.659   9.673   6.163  0.2658 -0.1390  0.0268
 2552SOL    HW113493   3.646   9.759   6.124 -0.2318 -0.3246 -0.2218
 2552SOL    HW213494   3.657   9.689   6.258 -0.7633  0.0007 -0.0024
 2553SOL     OW13495   4.297  11.398   9.155  0.8447 -0.2226 -0.2963
 2553SOL    HW113496   4.278  11.321   9.101 -0.3560 -0.9944  1.1395
 2553SOL    HW213497   4.349  11.455   9.098  0.7695 -1.5676 -1.7963
 2554SOL     OW13498   1.983   8.440   9.378  0.3908  0.4213 -0.0548
 2554SOL    HW113499   1.911   8.378   9.369  0.4490  0.4285 -0.5987
 2554SOL    HW213500   1.999   8.444   9.472 -0.5314  0.6678  0.0999
 2555SOL     OW13501  10.970   1.560   1.907 -0.2062 -0.0720 -0.7241
 2555SOL    HW113502  10.927   1.544   1.823  0.0005 -0.6857 -0.7160
 2555SOL    HW213503  10.902   1.546   1.973 -0.5593  1.1289 -0.8206
 2556SOL     OW13504   5.335   8.580   1.546  0.5736  0.3121 -0.3354
 2556SOL    HW113505   5.339   8.505   1.486  1.0427  0.2155 -0.1855
 2556SOL    HW213506   5.322   8.541   1.632  0.6138  0.4136 -0.2838
 2557SOL     OW13507   0.670   4.125   4.361 -0.2745 -0.2614 -0.3316
 2557SOL    HW113508   0.698   4.051   4.415 -0.7121  0.6634  1.2482
 2557SOL    HW213509   0.594   4.093   4.313 -0.8303 -0.6818  0.7936
 2558SOL     OW13510   6.280   4.983   6.532  0.5111 -0.0336  0.1227
 2558SOL    HW113511   6.369   4.950   6.527  1.3417  2.0460  0.0479
 2558SOL    HW213512   6.242   4.940   6.608  2.2439  0.4996  1.3351
 2559SOL     OW13513   9.021   0.713   6.988 -0.9503  0.0474  0.2915
 2559SOL    HW113514   8.972   0.631   7.001 -1.9563  0.5561 -0.2078
 2559SOL    HW213515   9.010   0.760   7.071 -0.6101 -0.1871  0.4751
 2560SOL     OW13516  10.963   2.191  11.993 -0.4949  0.0408 -0.0602
 2560SOL    HW113517  11.027   2.142  11.942  0.1304 -0.2102  0.9306
 2560SOL    HW213518  11.014   2.231  12.064 -1.4298 -0.2285  0.7999
 2561SOL     OW13519   1.371   3.685   7.654 -0.4725 -0.5280 -0.6340
 2561SOL    HW113520   1.325   3.601   7.654 -0.0473 -0.7841 -2.0414
 2561SOL    HW213521   1.347   3.726   7.571  0.2281  0.2391 -0.4736
 2562SOL     OW13522   8.722   0.665   8.633  0.6363  0.3447  0.1387
 2562SOL    HW113523   8.753   0.688   8.720 -0.8232 -1.9985  1.3799
 2562SOL    HW213524   8.626   0.663   8.641  0.5230 -2.3775 -0.7555
 2563SOL     OW13525   6.859   7.410   3.562  0.0860  0.5724 -0.0371
 2563SOL    HW113526   6.913   7.332   3.548 -0.3143  0.3360 -0.2837
 2563SOL    HW213527   6.886   7.471   3.493  0.0256  0.4498 -0.1689
 2564SOL     OW13528   1.465  12.325  10.804 -0.1209  0.1479  0.0304
 2564SOL    HW113529   1.503  12.238  10.786 -0.8072  0.2044 -1.9086
 2564SOL    HW213530   1.526  12.386  10.761 -0.6373  0.4734 -0.2424
 2565SOL     OW13531   4.284   7.189   9.459 -0.2500  0.2574 -0.3352
 2565SOL    HW113532   4.260   7.279   9.479  0.2904  0.3361 -0.0203
 2565SOL    HW213533   4.364   7.196   9.407  0.4243 -0.0648  0.6358
 2566SOL     OW13534   7.550   7.347  10.177 -0.1382 -0.8985  0.2176
 2566SOL    HW113535   7.472   7.353  10.123 -0.4202 -1.9274  0.4888
 2566SOL    HW213536   7.520   7.309  10.259  0.5351 -0.6795  0.5741
 2567SOL     OW13537  11.860  12.315   8.541 -0.0260 -0.5945 -0.3415
 2567SOL    HW113538  11.830  12.396   8.499  2.9064  0.4890 -0.6057
 2567SOL    HW213539  11.890  12.261   8.468 -1.0954 -1.5634 -0.0867
 2568SOL     OW13540   2.978   9.971  10.756 -0.4316  0.8814  0.4955
 2568SOL    HW113541   2.987  10.033  10.684 -0.5440  0.2599 -0.0614
 2568SOL    HW213542   2.884   9.949  10.758 -0.0062 -1.4996 -1.2431
 2569SOL     OW13543   8.429   6.511   8.508 -0.0714 -0.0376  0.2535
 2569SOL    HW113544   8.401   6.420   8.497  0.2304 -0.1257  0.2141
 2569SOL    HW213545   8.507   6.506   8.562 -0.1681  0.2154  0.4200
 2570SOL     OW13546   0.726   6.516   2.252  0.3736 -0.3654 -0.5000
 2570SOL    HW113547   0.817   6.503   2.280  0.1722 -0.5383  0.1028
 2570SOL    HW213548   0.702   6.433   2.210  0.1765 -0.7176  0.2749
 2571SOL     OW13549   5.199   3.077   0.720 -0.1429 -0.0963 -0.0946
 2571SOL    HW113550   5.292   3.074   0.744  0.0504  1.1396 -0.6634
 2571SOL    HW213551   5.194   3.140   0.649 -1.7009  1.3674  1.2278
 2572SOL     OW13552  10.093   7.774   1.957  0.2445  0.6300 -0.4123
 2572SOL    HW113553  10.174   7.817   1.930  0.4962  1.0616  0.9469
 2572SOL    HW213554  10.115   7.733   2.040 -0.7651  0.2089 -0.3423
 2573SOL     OW13555   9.734   8.895   1.758 -0.1714  0.5292 -0.5248
 2573SOL    HW113556   9.705   8.937   1.677  0.2868  2.1114  0.0884
 2573SOL    HW213557   9.702   8.952   1.827  0.3155 -0.2543  0.3643
 2574SOL     OW13558   7.565   4.411   6.815  0.2872 -0.3657 -0.1619
 2574SOL    HW113559   7.549   4.479   6.750 -0.2900 -0.2743  0.0699
 2574SOL    HW213560   7.659   4.392   6.807  0.6455  1.0406  0.3272
 2575SOL     OW13561   5.306   6.721   0.972  0.4390 -0.4474 -0.0028
 2575SOL    HW113562   5.371   6.687   1.033  0.9460 -0.5163 -0.5697
 2575SOL    HW213563   5.347   6.798   0.933  1.6206 -2.3772 -2.8685
 2576SOL     OW13564   1.901  10.721   5.839 -0.7545 -0.3207  0.1928
 2576SOL    HW113565   1.991  10.702   5.811 -0.8994 -1.6352  0.5833
 2576SOL    HW213566   1.901  10.816   5.855  0.9131 -0.4951  1.4499
 2577SOL     OW13567   8.895   0.953  10.160  0.0177  0.4474 -0.1715
 2577SOL    HW113568   8.848   1.002  10.092 -1.0143  1.7831  1.4260
 2577SOL    HW213569   8.830   0.896  10.198  1.0544 -1.7648 -1.5251
 2578SOL     OW13570  10.024   5.087   4.169 -0.0712  0.0245  0.4310
 2578SOL    HW113571   9.974   5.163   4.199 -0.4598  0.1381 -0.4900
 2578SOL    HW213572  10.096   5.080   4.232  0.7481  1.9643 -0.2121
 2579SOL     OW13573  10.470  10.921   1.408 -0.6382  0.0480  0.1126
 2579SOL    HW113574  10.496  10.888   1.322  0.1720 -1.2971  0.8504
 2579SOL    HW213575  10.499  10.854   1.469  0.8516  1.9775  1.6639
 2580SOL     OW13576   4.990   4.113   2.609  0.1857 -0.5633 -0.1048
 2580SOL    HW113577   5.010   4.073   2.694  1.4279  1.2110  0.4970
 2580SOL    HW213578   4.920   4.175   2.627  1.5956  1.0563  0.0333
 2581SOL     OW13579   2.541   2.251   5.077 -0.1617 -0.0511  0.1432
 2581SOL    HW113580   2.616   2.293   5.034 -2.2403  0.5558 -3.2778
 2581SOL    HW213581   2.494   2.323   5.120  1.3881 -0.5193  2.8467
 2582SOL     OW13582   9.107   4.160   1.522  0.3784 -0.0039  0.6597
 2582SOL    HW113583   9.116   4.236   1.464 -1.4603  0.0158  0.3226
 2582SOL    HW213584   9.074   4.196   1.604  0.3842 -0.3284  0.8049
 2583SOL     OW13585   8.833  11.381   1.283  0.0097 -0.3098  0.0717
 2583SOL    HW113586   8.890  11.306   1.266  2.5404  1.3096  0.7403
 2583SOL    HW213587   8.883  11.456   1.251 -2.1348  1.1876  0.0108
 2584SOL     OW13588   7.128   5.631  11.700  0.5370  0.3641 -0.0995
 2584SOL    HW113589   7.081   5.590  11.772 -0.5537  0.2356 -0.8625
 2584SOL    HW213590   7.188   5.692  11.742  0.2953 -0.0890  0.9325
 2585SOL     OW13591  11.490   9.584   9.344 -0.3122 -0.5102 -0.3071
 2585SOL    HW113592  11.434   9.625   9.410  0.4337  1.5234 -0.8672
 2585SOL    HW213593  11.439   9.589   9.263 -0.2018 -0.6749 -0.3869
 2586SOL     OW13594   2.356   5.440   2.321 -0.0940  0.0089 -0.4056
 2586SOL    HW113595   2.359   5.515   2.381 -1.1110  1.9691 -2.6258
 2586SOL    HW213596   2.263   5.420   2.312  0.0388 -0.2714 -1.2531
 2587SOL     OW13597   8.360   0.224   6.685 -0.2424  0.4259  0.5242
 2587SOL    HW113598   8.433   0.165   6.702  0.0216  0.4423 -0.4979
 2587SOL    HW213599   8.336   0.258   6.771 -0.7362 -1.5483  1.2117
 2588SOL     OW13600   0.250   3.773   1.291  0.3430 -0.1191  0.4346
 2588SOL    HW113601   0.210   3.803   1.209  0.3600 -1.1620  0.0346
 2588SOL    HW213602   0.262   3.853   1.342 -1.5423  0.3186  0.2622
 2589SOL     OW13603   5.882   8.863   1.578  0.4741 -0.2785 -0.1670
 2589SOL    HW113604   5.804   8.917   1.587 -0.2245 -1.4513  1.1511
 2589SOL    HW213605   5.894   8.855   1.483 -0.2841  0.8964 -0.3841
 2590SOL     OW13606   2.861   8.075   5.530  0.3185  0.2530 -0.2154
 2590SOL    HW113607   2.856   8.151   5.588 -0.2054  0.1289 -0.0963
 2590SOL    HW213608   2.861   8.112   5.442  0.4343  0.4064 -0.1509
 2591SOL     OW13609  10.960   1.892   0.660 -0.0579 -0.0883  0.2518
 2591SOL    HW113610  10.958   1.827   0.589  0.8208 -1.0135  1.0292
 2591SOL    HW213611  10.880   1.943   0.648  0.7399  0.7474 -2.2596
 2592SOL     OW13612   9.911  10.025   7.407 -0.4736  0.1672 -0.8533
 2592SOL    HW113613   9.927  10.050   7.498  1.0154  0.4070 -1.1522
 2592SOL    HW213614   9.846  10.088   7.376 -1.0552  0.0330  0.0617
 2593SOL     OW13615   6.450   2.891   0.427  1.1964 -0.3650  0.4625
 2593SOL    HW113616   6.544   2.878   0.427  1.8689  3.3143  0.7135
 2593SOL    HW213617   6.424   2.879   0.518  2.0077  1.4129  0.9692
 2594SOL     OW13618   5.988   0.518   5.871 -0.0965  0.2827  0.3404
 2594SOL    HW113619   6.060   0.520   5.934 -0.4832  1.7339  0.7853
 2594SOL    HW213620   5.932   0.446   5.900  0.1630  0.4016  1.1618
 2595SOL     OW13621   7.985   9.212   7.207 -0.2063  0.0908 -0.1409
 2595SOL    HW113622   8.056   9.250   7.154 -0.8431 -0.7963 -1.7089
 2595SOL    HW213623   7.972   9.125   7.169 -1.1985 -0.2896  1.0372
 2596SOL     OW13624   1.665   5.729   7.501  0.2660  0.1913  0.0587
 2596SOL    HW113625   1.695   5.818   7.484 -2.2494  0.6996 -2.6968
 2596SOL    HW213626   1.691   5.680   7.423  1.5274 -1.5434  1.4884
 2597SOL     OW13627   7.718   0.527   6.517 -0.0350 -0.0734 -0.0390
 2597SOL    HW113628   7.726   0.604   6.574 -1.4865  0.0127  0.0825
 2597SOL    HW213629   7.734   0.453   6.575 -0.2377  0.0761  0.2127
 2598SOL     OW13630   8.542   0.821   6.684  0.9521 -0.0673 -0.0869
 2598SOL    HW113631   8.514   0.911   6.667  0.6718 -0.4077 -1.5188
 2598SOL    HW213632   8.465   0.781   6.726  0.1496 -0.2978 -1.7027
 2599SOL     OW13633   9.328   8.086   9.940  0.1852 -0.3121  0.1174
 2599SOL    HW113634   9.269   8.018   9.909 -0.3800  0.3103 -0.1965
 2599SOL    HW213635   9.279   8.167   9.930  1.3056  0.2925 -0.7133
 2600SOL     OW13636   5.529   4.104   6.353 -0.2601 -0.3312 -0.6302
 2600SOL    HW113637   5.471   4.162   6.403  1.5010  1.8796 -0.9981
 2600SOL    HW213638   5.600   4.084   6.414  0.9022  0.7781 -1.5706
 2601SOL     OW13639  10.283   0.441   7.808 -0.0267  0.0160  0.2559
 2601SOL    HW113640  10.257   0.350   7.825 -1.8521  0.4292 -0.0896
 2601SOL    HW213641  10.260   0.487   7.888 -0.2581  0.3883 -0.0247
 2602SOL     OW13642   5.911   2.422   7.593 -0.2502 -0.4057 -0.2814
 2602SOL    HW113643   5.868   2.473   7.526 -0.8480 -1.5227 -0.7787
 2602SOL    HW213644   6.002   2.416   7.564  0.4635  2.4250  1.0529
 2603SOL     OW13645   4.223  12.055   5.076 -0.0323 -0.2756  0.2902
 2603SOL    HW113646   4.258  11.981   5.026 -0.6946 -1.0441  0.9449
 2603SOL    HW213647   4.300  12.101   5.108  0.3903 -1.2611  0.7191
 2604SOL     OW13648   2.962   6.345   4.632  0.3081  0.2949 -0.3952
 2604SOL    HW113649   2.960   6.250   4.648 -0.2023  0.2315 -0.7815
 2604SOL    HW213650   2.873   6.365   4.602 -0.0445  1.1651  1.1309
 2605SOL     OW13651  10.224  10.212   2.060  0.1233  0.1004 -0.2135
 2605SOL    HW113652  10.199  10.267   1.986 -3.2981 -0.8552  0.0570
 2605SOL    HW213653  10.154  10.146   2.066  2.4099 -2.4003  1.3750
 2606SOL     OW13654   5.526   5.461   1.321 -0.0646 -0.0555  0.5416
 2606SOL    HW113655   5.433   5.482   1.332 -0.0781 -0.6025  1.5875
 2606SOL    HW213656   5.528   5.400   1.247 -0.4796  0.3045  0.2230
 2607SOL     OW13657   1.327   3.978   9.974  0.1534  0.3037 -0.3793
 2607SOL    HW113658   1.241   3.944   9.999  0.3053  0.9713  1.0954
 2607SOL    HW213659   1.350   3.927   9.896 -0.7679 -1.1593  0.2638
 2608SOL     OW13660   3.949   3.988   5.678  0.3120  0.8687  0.2722
 2608SOL    HW113661   4.029   4.016   5.631  0.7364  0.6244  0.8395
 2608SOL    HW213662   3.939   3.896   5.656  0.7529  0.6429  0.9893
 2609SOL     OW13663   2.405   3.502   2.866  0.0314 -0.0289 -0.4354
 2609SOL    HW113664   2.321   3.467   2.895 -0.4188  0.7859 -0.7421
 2609SOL    HW213665   2.384   3.585   2.823  1.0586  0.5237  0.0925
 2610SOL     OW13666  11.457  10.306   5.502  0.0718  0.4676 -0.1107
 2610SOL    HW113667  11.417  10.243   5.442 -0.4007  0.6347  0.0292
 2610SOL    HW213668  11.538  10.263   5.531  0.4202  0.4763 -1.0338
 2611SOL     OW13669  12.150  10.386  10.664 -0.9852 -0.8881 -0.2088
 2611SOL    HW113670  12.089  10.416  10.732  0.6808  1.0863  0.5151
 2611SOL    HW213671  12.210  10.328  10.711  0.2099  0.5315  0.0963
 2612SOL     OW13672   0.043  11.392   6.659 -0.0460  0.1790 -0.1821
 2612SOL    HW113673  -0.005  11.452   6.602  0.3257 -0.1143 -0.8205
 2612SOL    HW213674   0.099  11.448   6.712  1.3012  0.3638 -1.7128
 2613SOL     OW13675  11.089   5.456   5.305  0.2526 -0.0856 -0.1490
 2613SOL    HW113676  11.006   5.503   5.292  0.1587 -0.0923  0.3805
 2613SOL    HW213677  11.127   5.449   5.218  0.0583  0.5952 -0.2918
 2614SOL     OW13678   9.274   5.388   4.606  0.2867  0.0636 -0.0834
 2614SOL    HW113679   9.260   5.300   4.641  3.1264 -0.2589  0.5183
 2614SOL    HW213680   9.194   5.408   4.559 -0.6768 -2.6200  0.2260
 2615SOL     OW13681   7.809   7.174   7.955 -0.1111 -0.2587  0.6729
 2615SOL    HW113682   7.898   7.159   7.923  0.0091  0.3703  0.7181
 2615SOL    HW213683   7.812   7.259   7.997 -0.1300 -1.3047  2.9132
 2616SOL     OW13684   9.997  11.694   7.216 -0.8118  0.2394 -0.1654
 2616SOL    HW113685  10.092  11.699   7.210 -0.6695  0.8787  1.9315
 2616SOL    HW213686   9.973  11.623   7.156  1.0506 -0.4158 -0.1989
 2617SOL     OW13687   7.298   4.621   6.192  0.3327 -0.3191  0.6062
 2617SOL    HW113688   7.240   4.682   6.146  0.0783  0.6457  2.1211
 2617SOL    HW213689   7.351   4.581   6.123 -1.3060 -0.3522 -0.7018
 2618SOL     OW13690   1.846   7.460   1.220 -0.3819  0.2735 -0.7229
 2618SOL    HW113691   1.852   7.553   1.244 -0.2413  0.3591 -1.0800
 2618SOL    HW213692   1.775   7.426   1.274  0.9702  0.0730  1.0306
 2619SOL     OW13693   4.697   0.362   3.529  0.4223  0.0217  0.2691
 2619SOL    HW113694   4.611   0.404   3.536 -0.1012 -1.2595  2.1187
 2619SOL    HW213695   4.746   0.394   3.604  0.4103 -1.7258  1.0580
 2620SOL     OW13696   7.807   9.917   7.521  0.0909  0.1509 -0.5053
 2620SOL    HW113697   7.883   9.873   7.482 -0.4114 -0.4376 -0.8288
 2620SOL    HW213698   7.827   9.922   7.614  0.3264 -0.4171 -0.5203
 2621SOL     OW13699   7.613   0.338   3.640 -0.3524 -0.4430  0.5794
 2621SOL    HW113700   7.674   0.398   3.597  0.2889 -2.2343 -1.2175
 2621SOL    HW213701   7.527   0.378   3.627  0.0442  0.0762 -0.6727
 2622SOL     OW13702   0.188   4.386   0.377  0.5155  0.0061 -0.1486
 2622SOL    HW113703   0.222   4.335   0.451  2.8709  0.9281 -0.4931
 2622SOL    HW213704   0.101   4.413   0.404  0.5564 -1.3172  1.4633
 2623SOL     OW13705  11.555   2.718   2.068  0.3848  0.2098  0.6548
 2623SOL    HW113706  11.604   2.640   2.094  0.3398 -0.4657 -1.0835
 2623SOL    HW213707  11.589   2.740   1.981 -2.0409 -0.0495 -0.4721
 2624SOL     OW13708  10.411  10.506   2.443  0.2579 -0.5397  0.2954
 2624SOL    HW113709  10.395  10.492   2.536 -0.3419 -0.2722  0.2361
 2624SOL    HW213710  10.328  10.540   2.409  0.9155  0.7842 -0.0496
 2625SOL     OW13711   2.864   2.400   3.238  0.3258 -0.0491 -0.2950
 2625SOL    HW113712   2.872   2.324   3.181 -0.6927 -0.2447 -0.2025
 2625SOL    HW213713   2.859   2.475   3.178 -0.3391 -0.2182 -0.4646
 2626SOL     OW13714   5.005  11.577   0.349  0.4642 -0.3709 -0.2041
 2626SOL    HW113715   5.044  11.493   0.324 -2.4828 -1.7233 -0.6360
 2626SOL    HW213716   5.014  11.580   0.444  2.0310 -0.3624 -0.3231
 2627SOL     OW13717   7.475   8.588   9.687 -0.2789  0.4078  0.2498
 2627SOL    HW113718   7.497   8.580   9.779 -0.1368 -2.6179  0.0628
 2627SOL    HW213719   7.382   8.612   9.685 -1.2028 -2.6485  1.3220
 2628SOL     OW13720   9.327   3.201   8.900  0.1456  0.2887 -0.1612
 2628SOL    HW113721   9.388   3.133   8.869 -0.9100 -0.9610  0.4020
 2628SOL    HW213722   9.308   3.177   8.990 -2.6671 -0.5361 -0.8696
 2629SOL     OW13723   1.263  10.096   2.911  1.0534  0.2132 -0.0103
 2629SOL    HW113724   1.222  10.183   2.912  2.0925  0.7165  0.7013
 2629SOL    HW213725   1.194  10.038   2.878 -0.4870  0.9036  1.7611
 2630SOL     OW13726   1.791   1.588   4.703 -0.3850 -0.2204 -0.7894
 2630SOL    HW113727   1.726   1.524   4.731 -1.6961  1.2477 -0.3451
 2630SOL    HW213728   1.755   1.628   4.624 -1.7563  2.9223  1.2180
 2631SOL     OW13729   7.265   0.241  11.017  0.3475 -0.1750  0.2235
 2631SOL    HW113730   7.244   0.197  11.099 -0.8479 -0.0535 -0.0009
 2631SOL    HW213731   7.302   0.325  11.044  0.4131 -0.3346  0.6381
 2632SOL     OW13732   8.218  10.440   1.486 -0.0602  0.3101  0.2729
 2632SOL    HW113733   8.219  10.529   1.522 -2.2062 -0.0421  1.3764
 2632SOL    HW213734   8.264  10.387   1.551  0.7779  0.5041 -0.1451
 2633SOL     OW13735  10.801   7.238   1.473 -0.1090 -0.1999  0.3592
 2633SOL    HW113736  10.840   7.305   1.529  1.2826 -0.7489  0.0793
 2633SOL    HW213737  10.759   7.177   1.534 -0.5623  0.4081  0.6624
 2634SOL     OW13738   0.627   0.506   2.998 -0.1028 -0.2747  0.3181
 2634SOL    HW113739   0.567   0.580   2.988  0.6758  0.2206 -0.9736
 2634SOL    HW213740   0.702   0.542   3.044  0.7029  0.0430 -1.1607
 2635SOL     OW13741   8.611  11.380   4.056 -0.5037 -0.2756 -0.3624
 2635SOL    HW113742   8.619  11.287   4.035 -1.6634 -0.9335  1.8048
 2635SOL    HW213743   8.689  11.400   4.107  0.5076  0.3987 -2.0643
 2636SOL     OW13744  12.147  10.468   7.611  0.1245  0.4474  0.0414
 2636SOL    HW113745  12.183  10.523   7.541 -0.1347  2.3597  1.3303
 2636SOL    HW213746  12.205  10.391   7.613  0.7731  0.8508 -1.5442
 2637SOL     OW13747  10.849  11.967   4.324 -0.0936 -0.2825  0.0816
 2637SOL    HW113748  10.852  11.873   4.305 -0.0495 -0.1711 -0.4805
 2637SOL    HW213749  10.780  11.976   4.390  0.2128 -0.7630  0.4820
 2638SOL     OW13750   1.719   5.309   0.935 -0.1397  0.4616 -0.0153
 2638SOL    HW113751   1.711   5.215   0.917  1.0043  0.1334  1.0565
 2638SOL    HW213752   1.687   5.351   0.855 -2.3347 -0.7763  0.1317
 2639SOL     OW13753   1.788   0.326   1.930  0.3418  0.2768 -0.1348
 2639SOL    HW113754   1.856   0.304   1.993 -0.8897  2.1863  2.0158
 2639SOL    HW213755   1.731   0.387   1.977 -3.4116 -1.9246 -1.4316
 2640SOL     OW13756   5.447  11.644   9.991  0.1155 -0.2640 -0.1743
 2640SOL    HW113757   5.529  11.606  10.022 -0.1127 -0.6415 -0.0230
 2640SOL    HW213758   5.445  11.731  10.029  0.5402 -0.1773 -0.3423
 2641SOL     OW13759   0.414   7.892   8.248  0.1856 -0.2295 -0.4547
 2641SOL    HW113760   0.416   7.984   8.273  0.7505 -0.4383  0.3176
 2641SOL    HW213761   0.477   7.885   8.177 -0.0023  0.0167 -0.6472
 2642SOL     OW13762   3.460  11.117  11.506  0.1721  0.0534  0.3346
 2642SOL    HW113763   3.451  11.208  11.479  0.2575  0.0321  0.2327
 2642SOL    HW213764   3.461  11.068  11.424  1.8637  0.1019  0.2926
 2643SOL     OW13765   5.827   8.131  11.553 -0.6669 -0.0887  0.1043
 2643SOL    HW113766   5.828   8.172  11.467 -0.7411 -1.4099 -0.5504
 2643SOL    HW213767   5.872   8.048  11.541  0.7985  0.3989  1.7324
 2644SOL     OW13768   8.381  10.229   7.510  0.3612 -0.2590  0.2103
 2644SOL    HW113769   8.329  10.269   7.580  0.3253 -1.9128  1.2013
 2644SOL    HW213770   8.395  10.139   7.540  2.2078 -0.4005 -0.9154
 2645SOL     OW13771   4.759   7.528   8.503  0.3606  0.0480  0.5721
 2645SOL    HW113772   4.834   7.469   8.506  0.7205  0.4809  0.2461
 2645SOL    HW213773   4.774   7.591   8.573  1.9516  2.0510 -1.3867
 2646SOL     OW13774   8.764  10.404  11.541 -0.5888  0.0860  1.0483
 2646SOL    HW113775   8.675  10.369  11.550 -1.1116  1.2635  0.7108
 2646SOL    HW213776   8.803  10.393  11.628 -0.4272 -2.0324  0.7659
 2647SOL     OW13777   3.992   7.632   0.878 -0.2820 -0.0057  0.1839
 2647SOL    HW113778   3.988   7.715   0.926  0.4207  1.0188 -1.4279
 2647SOL    HW213779   3.956   7.567   0.939  0.3579  1.2373  1.9885
 2648SOL     OW13780   2.141   0.016   9.618 -0.7939 -0.8289  0.0923
 2648SOL    HW113781   2.047  -0.003   9.615 -0.6199 -1.6637 -0.0557
 2648SOL    HW213782   2.147   0.108   9.590 -1.5654 -0.7573  0.1319
 2649SOL     OW13783   2.243   1.956   5.662 -0.2133 -0.4048  0.1859
 2649SOL    HW113784   2.248   1.947   5.757 -0.2493 -1.0255  0.1319
 2649SOL    HW213785   2.334   1.960   5.634 -0.2058  0.0487  0.2685
 2650SOL     OW13786   1.648   5.274   1.679 -0.7128 -0.0482 -0.3692
 2650SOL    HW113787   1.614   5.352   1.636 -0.1134  0.3178 -0.1921
 2650SOL    HW213788   1.655   5.208   1.609 -3.1423 -0.6222 -0.1622
 2651SOL     OW13789   7.532  12.213   7.335  0.1286  0.4594  0.0947
 2651SOL    HW113790   7.606  12.189   7.391  1.6712  1.6084 -1.3632
 2651SOL    HW213791   7.524  12.308   7.344 -0.0117  0.5802 -1.1253
 2652SOL     OW13792   0.521   8.191   0.287  0.3368 -0.3924  0.3661
 2652SOL    HW113793   0.608   8.155   0.269 -0.2656 -2.3678  1.1163
 2652SOL    HW213794   0.498   8.238   0.207  1.7815 -0.4707 -0.1245
 2653SOL     OW13795   1.583   5.837   1.385  0.5135 -0.3414  0.9004
 2653SOL    HW113796   1.669   5.850   1.346 -0.8479  1.1430 -1.8907
 2653SOL    HW213797   1.542   5.924   1.383 -2.2786 -1.5576 -1.2066
 2654SOL     OW13798   7.349   6.648   0.305 -0.5547 -0.1647  0.2344
 2654SOL    HW113799   7.305   6.564   0.321  1.8357 -1.5224  0.1108
 2654SOL    HW213800   7.442   6.630   0.319  0.1780  2.1561 -1.0431
 2655SOL     OW13801   6.618   4.955   8.709  0.4011 -0.1707  0.0400
 2655SOL    HW113802   6.710   4.942   8.731  0.1802  1.3831  2.1971
 2655SOL    HW213803   6.603   5.049   8.722 -1.8240 -0.6162  1.2692
 2656SOL     OW13804   2.560   8.982  11.180 -0.3057  0.6832 -0.3782
 2656SOL    HW113805   2.537   8.913  11.241  0.5077  0.2254 -0.5706
 2656SOL    HW213806   2.487   8.987  11.118 -1.2867  1.3683  0.7965
 2657SOL     OW13807   8.341   2.420   4.203  0.3310  0.1953  0.2061
 2657SOL    HW113808   8.249   2.416   4.177 -0.2112 -0.0758  2.0277
 2657SOL    HW213809   8.352   2.347   4.264  1.9406 -0.1713 -0.4935
 2658SOL     OW13810  11.600  11.651  10.027 -0.4308 -0.2544  0.1209
 2658SOL    HW113811  11.629  11.646   9.936  2.3479  3.7732  0.5251
 2658SOL    HW213812  11.510  11.683  10.022 -0.2978 -0.0296 -1.1813
 2659SOL     OW13813   0.086  11.867   2.147 -0.4453 -0.0956  0.1807
 2659SOL    HW113814   0.073  11.916   2.065  0.2255  0.9886  0.7074
 2659SOL    HW213815  -0.003  11.849   2.178 -0.7071 -0.3437 -0.6701
 2660SOL     OW13816   3.209   7.569  11.806  0.0816 -0.1363  0.5498
 2660SOL    HW113817   3.145   7.500  11.791  0.7536 -1.2252  2.3193
 2660SOL    HW213818   3.204   7.585  11.900  2.6055 -0.4953  0.8043
 2661SOL     OW13819   5.267  12.106  12.178 -0.3082 -0.3357  0.1432
 2661SOL    HW113820   5.272  12.047  12.254 -0.4799 -2.2416 -1.2669
 2661SOL    HW213821   5.356  12.107  12.143 -0.4308 -0.1688 -0.1616
 2662SOL     OW13822   9.630   1.343   6.646  0.4135 -0.0396 -0.4160
 2662SOL    HW113823   9.630   1.394   6.727  2.0177 -0.2637 -0.2597
 2662SOL    HW213824   9.716   1.302   6.642 -0.2818 -1.5080 -1.3352
 2663SOL     OW13825  12.203   1.746   8.160 -0.2323 -0.1608  0.0734
 2663SOL    HW113826  12.276   1.716   8.215 -0.2244 -0.5063 -0.1251
 2663SOL    HW213827  12.169   1.823   8.206 -0.6955 -0.8696  0.9569
 2664SOL     OW13828   6.197   9.051   1.821 -0.0746  0.0090 -1.0655
 2664SOL    HW113829   6.290   9.029   1.826 -0.1879 -1.0691 -2.8722
 2664SOL    HW213830   6.187   9.090   1.734 -1.5457 -1.1868 -1.4671
 2665SOL     OW13831  10.079  10.294  10.215 -0.3548  0.5799 -0.4093
 2665SOL    HW113832   9.995  10.302  10.260 -0.2758  1.3179 -0.3787
 2665SOL    HW213833  10.124  10.222  10.261 -0.6237  0.7516  0.1287
 2666SOL     OW13834  11.508   9.857   3.555  0.6600 -0.1971 -0.5469
 2666SOL    HW113835  11.443   9.790   3.574 -0.2600  1.0123  0.7962
 2666SOL    HW213836  11.562   9.819   3.485  0.7189 -2.6324  0.7222
 2667SOL     OW13837   9.752   7.212   6.172 -0.1455 -0.0926  0.0334
 2667SOL    HW113838   9.774   7.157   6.096 -1.0787 -1.2780  0.5757
 2667SOL    HW213839   9.690   7.158   6.222  1.7032 -0.0398  2.5107
 2668SOL     OW13840   5.958   3.048   8.533 -0.1406 -0.1684 -0.5207
 2668SOL    HW113841   6.052   3.029   8.524  0.7939  0.8897  4.2505
 2668SOL    HW213842   5.948   3.135   8.494  0.3701 -0.9755 -2.6126
 2669SOL     OW13843   5.860   8.807   0.061 -0.0176  0.0320  0.3198
 2669SOL    HW113844   5.872   8.875   0.128  0.3774 -0.5807  0.8882
 2669SOL    HW213845   5.853   8.855  -0.021 -1.0624  0.8351  0.8589
 2670SOL     OW13846   0.052   0.979   1.624 -0.1530  0.4905  0.0399
 2670SOL    HW113847  -0.004   0.978   1.546  0.5821  0.1080 -0.5017
 2670SOL    HW213848  -0.003   1.016   1.693 -2.0892 -2.4941  0.2878
 2671SOL     OW13849   2.418  10.172   0.682  0.5339 -0.0824  0.3142
 2671SOL    HW113850   2.455  10.124   0.607  0.1565 -0.1820  0.1901
 2671SOL    HW213851   2.471  10.252   0.687  3.4629 -1.9209  2.5860
 2672SOL     OW13852  11.975   8.212   1.920  0.0893  0.0054 -0.5734
 2672SOL    HW113853  12.057   8.262   1.917  1.2072 -1.6491  0.4413
 2672SOL    HW213854  11.972   8.166   1.836  1.2141 -1.3407  0.0656
 2673SOL     OW13855   4.101   1.561   9.378  0.2606  0.2772  0.2230
 2673SOL    HW113856   4.023   1.615   9.371 -0.6303 -1.0585 -0.6200
 2673SOL    HW213857   4.173   1.619   9.353 -0.6486  1.1050 -0.5361
 2674SOL     OW13858   2.841   8.404   2.770 -0.0021 -0.4079 -0.0320
 2674SOL    HW113859   2.817   8.484   2.817 -1.6980 -1.2317  0.6100
 2674SOL    HW213860   2.795   8.334   2.817  1.7972 -1.8368 -0.2896
 2675SOL     OW13861   0.863   1.821   2.673 -0.3507  0.3212 -0.2701
 2675SOL    HW113862   0.877   1.827   2.768 -0.9850 -0.7654 -0.0852
 2675SOL    HW213863   0.944   1.853   2.635 -0.1759  1.0073  0.6364
 2676SOL     OW13864  10.658  11.017   9.521 -0.2635 -0.2154 -0.1278
 2676SOL    HW113865  10.752  11.000   9.529 -0.1676  0.1266 -0.4915
 2676SOL    HW213866  10.636  11.067   9.600 -0.6203 -2.2473  1.1364
 2677SOL     OW13867   1.654   3.611   0.979 -0.4199 -0.5917  0.2216
 2677SOL    HW113868   1.659   3.515   0.971 -3.2261 -0.7588 -0.6760
 2677SOL    HW213869   1.672   3.643   0.891  0.0720 -0.2943  0.4253
 2678SOL     OW13870  11.583   7.153  12.000  0.0600  1.0108 -0.6079
 2678SOL    HW113871  11.545   7.203  12.072  0.9240  0.0523  0.5612
 2678SOL    HW213872  11.672   7.133  12.029  0.1454 -0.1289 -1.5647
 2679SOL     OW13873   8.492   6.141   7.327 -0.0177  0.2176 -0.1862
 2679SOL    HW113874   8.545   6.084   7.384 -0.8004 -2.0941 -1.6191
 2679SOL    HW213875   8.409   6.150   7.372 -0.4235 -1.1093 -0.6112
 2680SOL     OW13876   2.946   6.875   1.472 -0.3987 -0.4513  0.2461
 2680SOL    HW113877   2.857   6.840   1.480 -0.0411 -1.4824 -0.1637
 2680SOL    HW213878   3.002   6.806   1.506  0.1841  0.8050  2.0200
 2681SOL     OW13879   8.332  10.641   9.192  0.0083  0.4440  0.3334
 2681SOL    HW113880   8.418  10.646   9.150  0.0437 -0.8257  0.2207
 2681SOL    HW213881   8.284  10.717   9.157  0.8963  0.8608 -0.0075
 2682SOL     OW13882  11.847  10.004   6.032 -0.1905  0.0241 -0.6034
 2682SOL    HW113883  11.870  10.090   6.065 -1.1101  0.5124 -1.1882
 2682SOL    HW213884  11.834   9.950   6.110 -1.3568  0.8885 -0.1841
 2683SOL     OW13885  11.906   5.955   7.677  0.1658  0.1506 -0.5053
 2683SOL    HW113886  11.819   5.984   7.649  0.6264  1.3021 -0.7813
 2683SOL    HW213887  11.888   5.880   7.735 -1.0764  1.0419  0.3236
 2684SOL     OW13888   5.549   2.087   0.394  0.0793 -0.2409 -0.0386
 2684SOL    HW113889   5.459   2.057   0.384 -0.0604 -0.3113  1.2306
 2684SOL    HW213890   5.564   2.084   0.488  1.2822  0.1516 -0.2087
 2685SOL     OW13891   8.242   5.499   1.520 -0.2679 -0.3059  0.0115
 2685SOL    HW113892   8.156   5.541   1.516 -0.2556 -0.1984  0.6940
 2685SOL    HW213893   8.226   5.407   1.500 -0.4660 -0.1871 -0.3725
 2686SOL     OW13894  10.688   4.236   1.789  0.3992  0.4546  0.1305
 2686SOL    HW113895  10.674   4.199   1.877  1.3118  1.1205  0.5734
 2686SOL    HW213896  10.642   4.320   1.792  0.0587  0.2820 -0.1858
 2687SOL     OW13897   2.638   6.404  11.514 -0.0275  0.3689  0.5999
 2687SOL    HW113898   2.644   6.324  11.565  0.9913 -0.2313 -0.3932
 2687SOL    HW213899   2.716   6.401  11.457 -0.0806  1.9581  0.4074
 2688SOL     OW13900  10.514   1.454   7.829 -0.2216 -0.4178 -0.1695
 2688SOL    HW113901  10.505   1.541   7.866  2.3506 -0.5122  0.8935
 2688SOL    HW213902  10.429   1.435   7.790 -1.7735  1.3812  2.0909
 2689SOL     OW13903   7.133   0.959   7.369  0.6007  0.0137 -0.3078
 2689SOL    HW113904   7.138   1.036   7.311 -0.7787 -0.9111 -1.7114
 2689SOL    HW213905   7.118   0.996   7.456  1.7843  1.3961 -0.6437
 2690SOL     OW13906   3.416   8.116  10.288  0.3378  0.3945  0.3303
 2690SOL    HW113907   3.345   8.175  10.311  0.3255  0.6785 -0.4079
 2690SOL    HW213908   3.495   8.171  10.289  0.3372  0.4188 -0.2764
 2691SOL     OW13909   0.111  10.438   4.284  0.1874 -0.1617 -0.1041
 2691SOL    HW113910   0.146  10.349   4.278  1.8807  0.4968 -0.5010
 2691SOL    HW213911   0.098  10.466   4.193 -2.8055 -0.8522 -0.0067
 2692SOL     OW13912   7.109   8.178  11.901  0.5706  0.3912 -0.4918
 2692SOL    HW113913   7.147   8.123  11.833  0.8049 -2.6496  1.8639
 2692SOL    HW213914   7.021   8.200  11.869 -0.2339 -2.9497 -0.8882
 2693SOL     OW13915   5.280   2.881   0.354  0.3991  0.1583  0.5088
 2693SOL    HW113916   5.374   2.900   0.359  0.8334 -1.2747 -1.1149
 2693SOL    HW213917   5.254   2.867   0.445  1.2575  2.5812  1.1985
 2694SOL     OW13918   7.347  10.825   9.921  0.1363 -0.1674  0.2466
 2694SOL    HW113919   7.285  10.804   9.991  0.9020 -2.0427  0.4303
 2694SOL    HW213920   7.294  10.866   9.853 -1.6163 -2.8588 -0.1557
 2695SOL     OW13921   7.823   9.562   1.183 -0.6934 -0.6233 -0.2966
 2695SOL    HW113922   7.802   9.508   1.107 -1.0072 -0.5233 -0.2833
 2695SOL    HW213923   7.757   9.538   1.248 -1.9728  1.0726 -0.9092
 2696SOL     OW13924   3.231   0.202   0.614  0.3177 -0.3759  0.1913
 2696SOL    HW113925   3.218   0.108   0.623 -0.7328 -0.4584 -1.7286
 2696SOL    HW213926   3.178   0.227   0.539  0.8201  1.7117  0.4612
 2697SOL     OW13927   3.801   2.222   9.493 -0.1861 -0.1666 -0.3043
 2697SOL    HW113928   3.821   2.182   9.577 -2.9475 -2.8348 -0.7455
 2697SOL    HW213929   3.737   2.290   9.514  0.8571  0.7678 -0.0631
 2698SOL     OW13930   1.802   9.567   5.865  0.8078 -0.0529 -0.3440
 2698SOL    HW113931   1.897   9.556   5.869  0.6572 -1.2127  0.4068
 2698SOL    HW213932   1.767   9.492   5.913 -0.4877  0.4669 -0.4435
 2699SOL     OW13933   7.361   7.454  11.090 -0.1401  0.1923 -0.1967
 2699SOL    HW113934   7.410   7.535  11.078  1.4676 -1.1148 -3.8005
 2699SOL    HW213935   7.428   7.386  11.099 -1.4248 -0.9814  1.1607
 2700SOL     OW13936   2.177   7.300  10.020  0.7091 -0.6749  0.4629
 2700SOL    HW113937   2.264   7.317   9.984  0.6933  1.1059  1.1754
 2700SOL    HW213938   2.137   7.386  10.029 -1.8720 -1.5464 -1.5434
 2701SOL     OW13939   0.773   3.185   6.030 -0.1763  0.0912  0.2248
 2701SOL    HW113940   0.768   3.147   5.942 -2.0022 -1.0659  0.7731
 2701SOL    HW213941   0.863   3.169   6.058  0.5153  0.6909 -1.4855
 2702SOL     OW13942   0.109   1.343  10.910  0.5344 -0.0712  0.4885
 2702SOL    HW113943   0.184   1.378  10.958  0.5247  0.7708 -0.0934
 2702SOL    HW213944   0.127   1.250  10.902  0.4917 -0.2627  2.2075
 2703SOL     OW13945   5.799   6.876   1.928  0.2894  0.2139 -0.4601
 2703SOL    HW113946   5.876   6.824   1.950 -0.3229 -0.5501 -0.0751
 2703SOL    HW213947   5.792   6.870   1.833 -0.3026 -1.2114 -0.3557
 2704SOL     OW13948  12.272   7.815   9.988 -0.8912 -0.2329 -0.1400
 2704SOL    HW113949  12.359   7.820   9.950 -0.4010 -0.0685  0.9968
 2704SOL    HW213950  12.213   7.834   9.914  0.0544  0.5270 -0.7259
 2705SOL     OW13951   2.156   4.776   7.595  0.1575 -0.1169 -0.1205
 2705SOL    HW113952   2.169   4.700   7.652  0.6630  0.4010  0.4749
 2705SOL    HW213953   2.245   4.805   7.574 -0.0225 -0.3084 -1.1968
 2706SOL     OW13954   9.406  12.155   5.672 -0.7910  0.0193 -0.1475
 2706SOL    HW113955   9.478  12.189   5.619 -0.8004 -0.9953 -0.8505
 2706SOL    HW213956   9.441  12.074   5.710 -0.5256  1.1023  2.0360
 2707SOL     OW13957   2.615   2.231   8.539 -0.1102 -0.0657 -0.0562
 2707SOL    HW113958   2.626   2.191   8.626  0.3918 -0.1966 -0.1719
 2707SOL    HW213959   2.679   2.303   8.538 -0.3984  0.1877 -0.1699
 2708SOL     OW13960   9.906  11.427   4.538 -0.6801 -0.7079 -0.7720
 2708SOL    HW113961   9.873  11.431   4.628 -0.5645 -0.3861 -0.7390
 2708SOL    HW213962   9.994  11.466   4.544 -1.7564  2.1023 -1.5142
 2709SOL     OW13963   6.271   9.236   4.294 -0.1419  0.4938  0.2660
 2709SOL    HW113964   6.261   9.329   4.274  0.8665  0.3383 -1.1501
 2709SOL    HW213965   6.360   9.215   4.266 -0.4666 -0.9676  0.2525
 2710SOL     OW13966   8.854   2.131  10.061 -0.1636 -0.0626 -0.3391
 2710SOL    HW113967   8.856   2.100   9.971  1.0392  0.9724 -0.6984
 2710SOL    HW213968   8.766   2.167  10.072  0.6434  2.8685 -2.2444
 2711SOL     OW13969  11.147   5.125   0.830 -0.2514  0.2547 -0.2976
 2711SOL    HW113970  11.144   5.158   0.920  0.1722  1.6984 -0.7865
 2711SOL    HW213971  11.154   5.204   0.775  0.8410 -0.6317 -1.5171
 2712SOL     OW13972   3.161   0.406  11.135  0.4503 -0.4346  0.0665
 2712SOL    HW113973   3.176   0.411  11.040  0.1426 -0.5491  0.0089
 2712SOL    HW213974   3.090   0.468  11.151 -0.0303 -0.9823  0.1006
 2713SOL     OW13975   0.843   2.088   9.928  0.2830  0.9637 -0.2734
 2713SOL    HW113976   0.773   2.029   9.956  0.9363 -0.3644 -1.3250
 2713SOL    HW213977   0.834   2.164   9.985 -1.4044  0.4115  0.2528
 2714SOL     OW13978   8.362   0.196   2.994 -0.1451 -0.4880  0.4790
 2714SOL    HW113979   8.386   0.140   3.068  0.5371  1.6277  1.9688
 2714SOL    HW213980   8.412   0.276   3.008 -2.3627  1.1772 -0.5468
 2715SOL     OW13981  10.152   4.324   8.246  0.2060 -0.2677  0.1210
 2715SOL    HW113982  10.084   4.260   8.226  0.0647 -1.0013  2.5341
 2715SOL    HW213983  10.106   4.408   8.251 -0.1919 -0.4773 -0.0218
 2716SOL     OW13984   7.521   3.165   4.073  1.3142 -0.5220  0.4108
 2716SOL    HW113985   7.448   3.142   4.016  0.7982  0.5296  0.6338
 2716SOL    HW213986   7.591   3.191   4.014  1.8978 -2.4882  0.1455
 2717SOL     OW13987   6.326   8.156   9.111  0.0729 -0.3059 -0.0638
 2717SOL    HW113988   6.285   8.197   9.035  1.0430  1.4275  0.2830
 2717SOL    HW213989   6.280   8.073   9.121 -1.7347  0.5086 -1.0566
 2718SOL     OW13990   2.677  10.774   0.664 -0.1755  0.1228 -0.5466
 2718SOL    HW113991   2.753  10.735   0.619  0.4735  1.3644 -0.5707
 2718SOL    HW213992   2.713  10.848   0.712 -1.2010  0.0192  0.4157
 2719SOL     OW13993   7.962   2.656  11.629  0.1810 -0.1978 -0.4185
 2719SOL    HW113994   7.974   2.681  11.720 -2.3291  0.0370 -0.0817
 2719SOL    HW213995   7.967   2.560  11.629 -0.5994 -0.2519  0.1365
 2720SOL     OW13996   1.211   5.433   8.364  0.2327 -0.0075 -0.2325
 2720SOL    HW113997   1.132   5.388   8.336  0.2750 -0.2792  0.0813
 2720SOL    HW213998   1.195   5.525   8.342 -1.0136  0.2754  1.5876
 2721SOL     OW13999   2.150   5.653   7.426 -0.9807  0.1482  0.2267
 2721SOL    HW114000   2.137   5.744   7.453 -0.3924  1.0877 -2.3236
 2721SOL    HW214001   2.087   5.640   7.355  0.9250 -0.4153 -1.4581
 2722SOL     OW14002   2.862  11.128   4.545  0.2619  0.1393  0.4391
 2722SOL    HW114003   2.844  11.036   4.527  0.9470 -0.3911  2.2580
 2722SOL    HW214004   2.910  11.158   4.468  2.2497 -1.7231  0.8573
 2723SOL     OW14005   6.238   0.631   1.655  0.2501 -0.3669 -0.9533
 2723SOL    HW114006   6.325   0.663   1.630 -0.2795 -0.7310 -3.5265
 2723SOL    HW214007   6.246   0.536   1.651 -0.0908 -0.4217 -0.4383
 2724SOL     OW14008   2.205   4.910   8.708  0.1338  0.4749  0.1736
 2724SOL    HW114009   2.172   4.935   8.622  0.0147  1.7727  0.5721
 2724SOL    HW214010   2.267   4.838   8.690 -0.1777  0.4611 -0.9412
 2725SOL     OW14011  10.436   2.764   6.914  0.0571 -0.1877 -0.1784
 2725SOL    HW114012  10.397   2.711   6.844  0.0599 -0.7035  0.2053
 2725SOL    HW214013  10.529   2.744   6.911 -0.1485 -1.3947  0.9597
 2726SOL     OW14014  10.818  10.451   4.283 -0.1450 -0.0827 -0.0775
 2726SOL    HW114015  10.786  10.397   4.211  1.0027 -0.1581 -0.5660
 2726SOL    HW214016  10.912  10.433   4.286 -0.1416  0.0788  1.3182
 2727SOL     OW14017  11.622  11.514   5.658  0.3063 -0.1119  0.2607
 2727SOL    HW114018  11.656  11.536   5.571  0.7679 -1.0832  0.1778
 2727SOL    HW214019  11.641  11.420   5.668  0.0141 -0.0745  1.2967
 2728SOL     OW14020   1.817   7.075   6.876 -0.0842  0.4077 -0.0427
 2728SOL    HW114021   1.863   7.001   6.916 -2.3964 -0.5204  1.1259
 2728SOL    HW214022   1.744   7.092   6.935 -1.0031  2.0630 -1.5619
 2729SOL     OW14023   1.218   5.426   9.563  0.7173 -0.1445 -0.3162
 2729SOL    HW114024   1.161   5.396   9.493 -0.8936 -0.4896  1.0757
 2729SOL    HW214025   1.229   5.520   9.546 -0.7395  0.0468 -0.3108
 2730SOL     OW14026   9.544  11.743   2.786  0.4944  0.1856  0.9848
 2730SOL    HW114027   9.512  11.735   2.876  0.8819  0.9327  1.1938
 2730SOL    HW214028   9.503  11.823   2.753  1.5332  0.7296  0.9986
 2731SOL     OW14029   6.702   6.070   2.189  0.0596  0.1640  0.0353
 2731SOL    HW114030   6.721   6.149   2.239 -2.2970 -0.1860  1.6578
 2731SOL    HW214031   6.729   5.998   2.246 -0.7740 -0.2233 -0.0430
 2732SOL     OW14032   2.854   4.338  11.915 -0.1746 -0.1922 -0.0131
 2732SOL    HW114033   2.865   4.260  11.970 -0.8475  1.0740  2.0496
 2732SOL    HW214034   2.943   4.366  11.896  0.0736 -1.3977 -0.7199
 2733SOL     OW14035   9.401  11.719   8.694  0.0924  0.6562 -0.2785
 2733SOL    HW114036   9.381  11.714   8.787 -1.2803  0.9676 -0.5306
 2733SOL    HW214037   9.344  11.653   8.653 -1.2940  2.3123 -1.1521
 2734SOL     OW14038   2.267   3.277   5.212  0.8135  0.1750 -0.3094
 2734SOL    HW114039   2.252   3.339   5.283 -0.1877  0.9377 -1.1643
 2734SOL    HW214040   2.235   3.321   5.134  0.7124 -1.1532 -1.0485
 2735SOL     OW14041   5.811   2.143   8.019  0.1694 -0.1055  0.0849
 2735SOL    HW114042   5.854   2.195   8.086 -1.5141 -1.3251  2.2340
 2735SOL    HW214043   5.720   2.138   8.046 -0.1422 -2.4417 -1.1075
 2736SOL     OW14044   4.872   9.328   0.129  0.0360  0.3983  0.2254
 2736SOL    HW114045   4.862   9.370   0.043  1.2700  0.7885  0.2542
 2736SOL    HW214046   4.962   9.297   0.130  0.2413  0.9909  1.6484
 2737SOL     OW14047   6.257  11.542   3.419 -0.0687 -0.4063  0.2263
 2737SOL    HW114048   6.232  11.580   3.503 -0.4812  0.5479 -0.3104
 2737SOL    HW214049   6.174  11.527   3.374  0.1920  0.0099 -0.4005
 2738SOL     OW14050   4.730   1.817   7.151 -0.2044 -0.1329  0.0403
 2738SOL    HW114051   4.649   1.867   7.158 -0.1253  0.1821 -1.0387
 2738SOL    HW214052   4.798   1.874   7.189 -0.2764  0.1622 -0.2705
 2739SOL     OW14053   4.415   6.553   5.293  0.2085  0.1595  0.2038
 2739SOL    HW114054   4.344   6.491   5.310  0.2197  0.3558  0.9887
 2739SOL    HW214055   4.372   6.627   5.250 -0.4816  1.2154  2.5252
 2740SOL     OW14056   5.615   9.652  11.159  0.0614 -1.0130 -0.3319
 2740SOL    HW114057   5.605   9.584  11.226  2.1110 -1.1545 -0.1091
 2740SOL    HW214058   5.630   9.603  11.078  2.1549 -0.8894 -0.0675
 2741SOL     OW14059   2.865   6.714   7.715 -0.4611 -0.1314  0.5288
 2741SOL    HW114060   2.869   6.649   7.645  0.4038  1.4036 -0.9578
 2741SOL    HW214061   2.784   6.695   7.762 -1.7662 -0.4783 -1.7063
 2742SOL     OW14062  10.425   6.297   2.259  0.0179 -0.9710 -0.1331
 2742SOL    HW114063  10.448   6.309   2.351  0.0027 -0.6754 -0.1678
 2742SOL    HW214064  10.386   6.209   2.256 -1.0495 -0.5357  0.3562
 2743SOL     OW14065   5.029   8.140   6.176 -0.4771 -0.2789 -0.3903
 2743SOL    HW114066   4.977   8.094   6.243 -0.2444 -0.8164 -0.5697
 2743SOL    HW214067   5.059   8.219   6.220  0.1435 -0.8961  0.3410
 2744SOL     OW14068   6.993  10.166   9.248  0.7237  0.2559  0.3599
 2744SOL    HW114069   7.067  10.165   9.188  0.8561  1.0261  0.4992
 2744SOL    HW214070   7.032  10.150   9.334  0.8197  1.2152  0.5104
 2745SOL     OW14071   2.435   3.841   1.376 -0.5342  0.0171 -0.1619
 2745SOL    HW114072   2.454   3.934   1.364  0.5071 -0.5029 -4.7173
 2745SOL    HW214073   2.520   3.801   1.392 -0.8493 -0.2891  0.8085
 2746SOL     OW14074   3.114   9.201   7.266  0.2989 -0.6295  0.1775
 2746SOL    HW114075   3.104   9.259   7.342  0.6590  1.0517 -0.9864
 2746SOL    HW214076   3.208   9.184   7.262  0.4854  0.4434 -0.6482
 2747SOL     OW14077   6.900   8.880   9.719 -0.1400  0.4071 -0.0834
 2747SOL    HW114078   6.934   8.869   9.808  0.0198  0.3238 -0.1561
 2747SOL    HW214079   6.885   8.975   9.711 -0.5693  0.3667  0.1851
 2748SOL     OW14080   7.896   0.031  10.911  0.4928 -0.1934 -0.0660
 2748SOL    HW114081   7.890   0.013  11.005 -0.3769 -0.0172 -0.0822
 2748SOL    HW214082   7.846   0.112  10.899  1.3422  0.2782 -0.5482
 2749SOL     OW14083   4.624  10.859   8.090  0.6860  0.1043  0.4009
 2749SOL    HW114084   4.636  10.764   8.101  1.3281  0.2832  1.3655
 2749SOL    HW214085   4.538  10.876   8.127  1.0228  0.0480  1.2327
 2750SOL     OW14086  10.867  11.870   5.292 -0.1135  0.4944  0.0391
 2750SOL    HW114087  10.824  11.794   5.252 -0.1930  1.4591 -1.8202
 2750SOL    HW214088  10.948  11.834   5.330 -0.9091 -0.7688  0.6136
 2751SOL     OW14089  12.261   9.054   1.669 -0.0709  0.7546 -0.3123
 2751SOL    HW114090  12.200   9.111   1.622 -1.7183 -0.3292  0.4113
 2751SOL    HW214091  12.208   8.978   1.695  0.8838  1.0074  2.7621
 2752SOL     OW14092   7.291   9.301   4.871 -0.3388  0.0563  0.3873
 2752SOL    HW114093   7.300   9.370   4.936 -1.0868  0.9504 -0.4220
 2752SOL    HW214094   7.369   9.247   4.881  1.0170  1.8837  0.0388
 2753SOL     OW14095  10.853  11.358   6.383  0.3867  0.6026 -0.0228
 2753SOL    HW114096  10.802  11.353   6.302  1.4661  0.3649 -0.6998
 2753SOL    HW214097  10.918  11.288   6.376 -0.8674 -0.8956  2.0491
 2754SOL     OW14098   8.624   0.161   6.535 -0.2741 -0.1883  0.2079
 2754SOL    HW114099   8.620   0.144   6.629  0.2446 -1.7046 -0.0181
 2754SOL    HW214100   8.582   0.085   6.495 -0.3489  0.3631 -0.7910
 2755SOL     OW14101   8.879   7.388  11.600 -0.2255 -0.3909 -0.0527
 2755SOL    HW114102   8.796   7.434  11.611  0.2138  0.1936  1.0183
 2755SOL    HW214103   8.909   7.413  11.513 -0.0288  1.3554  0.4686
 2756SOL     OW14104   5.082   5.635   3.244  0.3521 -0.0534  0.1745
 2756SOL    HW114105   5.126   5.554   3.270  0.2313 -0.3415 -0.5011
 2756SOL    HW214106   4.989   5.618   3.259  0.3530  0.0725  0.3250
 2757SOL     OW14107  12.227   6.170  11.209  0.3516 -0.2961 -0.4512
 2757SOL    HW114108  12.133   6.180  11.194 -0.3566 -2.1135  1.8965
 2757SOL    HW214109  12.258   6.116  11.136 -0.6724 -0.5216 -0.7338
 2758SOL     OW14110  11.278   3.941   4.022 -0.1210 -0.3985  0.3065
 2758SOL    HW114111  11.349   3.931   3.959  0.6880  0.3489  1.0627
 2758SOL    HW214112  11.199   3.916   3.974  0.5065 -0.1108 -0.9091
 2759SOL     OW14113   2.733  10.108  11.526  0.1603 -0.3923 -0.1494
 2759SOL    HW114114   2.671  10.069  11.587 -1.9608 -1.7526 -2.9730
 2759SOL    HW214115   2.679  10.149  11.459  2.3622  2.6274 -0.3002
 2760SOL     OW14116   2.923  11.951   5.063  0.0497  0.3102 -0.0831
 2760SOL    HW114117   2.983  11.908   5.125  0.2438  0.3460 -0.2458
 2760SOL    HW214118   2.975  11.961   4.983 -1.0229 -2.2634 -1.2176
 2761SOL     OW14119   2.980   2.236   8.302  0.2705  0.3170 -0.2563
 2761SOL    HW114120   2.957   2.244   8.209 -0.0311  0.3254 -0.1823
 2761SOL    HW214121   2.903   2.196   8.342 -0.5317  2.3436  0.3929
 2762SOL     OW14122   3.594   2.983   0.231  0.3364 -0.4000 -0.1190
 2762SOL    HW114123   3.510   2.965   0.189  0.0160  0.1900  0.2570
 2762SOL    HW214124   3.575   2.980   0.325  1.3378 -3.2545  0.1094
 2763SOL     OW14125   7.132   3.408   6.219  0.1059 -0.5231  0.7767
 2763SOL    HW114126   7.211   3.392   6.166  0.8804  1.0892  1.3860
 2763SOL    HW214127   7.165   3.425   6.307 -0.9754 -0.2770  1.1446
 2764SOL     OW14128   5.431   9.595   2.753 -0.2401  0.2726 -0.2304
 2764SOL    HW114129   5.481   9.670   2.723  1.6194 -0.9171 -0.2276
 2764SOL    HW214130   5.469   9.572   2.837 -0.0970 -1.2470 -0.6701
 2765SOL     OW14131   3.970   5.391  11.406 -0.3313  0.1770 -0.0897
 2765SOL    HW114132   3.941   5.385  11.315  1.7314  1.8543 -0.9531
 2765SOL    HW214133   4.037   5.323  11.415  0.5684  0.9884 -0.3564
 2766SOL     OW14134   6.210   7.369   1.333 -0.3237 -0.3510  0.0169
 2766SOL    HW114135   6.276   7.337   1.394  0.2759 -0.6762 -0.7863
 2766SOL    HW214136   6.127   7.357   1.379  0.1225 -0.4533  0.8189
 2767SOL     OW14137   8.304   8.857   1.476 -0.1597 -0.4233  1.0162
 2767SOL    HW114138   8.261   8.809   1.405 -0.7892  1.3534  0.1362
 2767SOL    HW214139   8.248   8.933   1.492  0.2475 -0.4861  3.0859
 2768SOL     OW14140   1.064   4.459   8.591 -0.4261 -0.0285 -0.2346
 2768SOL    HW114141   1.126   4.451   8.518 -0.4049 -0.3696 -0.1839
 2768SOL    HW214142   1.084   4.384   8.648 -0.1208  0.5097  0.3744
 2769SOL     OW14143  12.064   5.751   6.846  0.1692  0.1057 -0.5626
 2769SOL    HW114144  11.988   5.807   6.831 -0.0422  0.0111  0.1278
 2769SOL    HW214145  12.034   5.686   6.909  0.4662 -0.6825 -1.2255
 2770SOL     OW14146   0.673   7.178   1.927  0.2274 -0.0096 -0.3479
 2770SOL    HW114147   0.646   7.086   1.929 -0.3251  0.1467 -0.4037
 2770SOL    HW214148   0.765   7.177   1.954 -0.4310 -0.3423  2.1664
 2771SOL     OW14149   5.474   0.163  12.142 -0.3140 -0.1907  0.4638
 2771SOL    HW114150   5.393   0.125  12.174 -0.2221  1.1956  2.5400
 2771SOL    HW214151   5.449   0.250  12.112  0.2034 -0.1987  0.0028
 2772SOL     OW14152  10.593   7.198  12.296  0.8089  0.2079  0.2132
 2772SOL    HW114153  10.677   7.151  12.290 -0.2161 -1.5047 -1.9259
 2772SOL    HW214154  10.578   7.232  12.208 -0.2358  1.4827  0.8531
 2773SOL     OW14155   8.629   0.068   3.092  0.3686 -0.4993  0.0097
 2773SOL    HW114156   8.671  -0.010   3.128  0.6659 -0.3707 -0.0576
 2773SOL    HW214157   8.701   0.129   3.076  0.0821  0.0283  0.6592
 2774SOL     OW14158   6.795   6.335   4.928  0.2557  0.8127  0.6396
 2774SOL    HW114159   6.727   6.282   4.969 -0.6395  0.8336 -0.7381
 2774SOL    HW214160   6.752   6.419   4.909  0.3879  0.5386 -0.9924
 2775SOL     OW14161   6.963   7.546   5.772 -0.0318  0.3986  0.2181
 2775SOL    HW114162   6.874   7.547   5.738 -0.1362 -1.7915  0.2500
 2775SOL    HW214163   7.013   7.498   5.705  1.1166  1.5277  0.2318
 2776SOL     OW14164  10.326   2.505   4.642 -0.5319 -0.5277 -0.4012
 2776SOL    HW114165  10.337   2.597   4.621 -2.1542 -0.5361 -1.4870
 2776SOL    HW214166  10.241   2.482   4.606 -0.1927 -2.4455 -0.1059
 2777SOL     OW14167   7.063  11.712  11.787 -0.2092  0.2215  0.2799
 2777SOL    HW114168   7.019  11.655  11.724  1.1100 -2.6519  1.7440
 2777SOL    HW214169   7.027  11.685  11.872  0.0771  2.0139  1.0167
 2778SOL     OW14170   0.162   6.097   3.423 -0.1939  0.5171  0.2311
 2778SOL    HW114171   0.204   6.172   3.380 -0.0322  0.2165 -0.1381
 2778SOL    HW214172   0.235   6.044   3.455 -0.2982  0.1154 -0.2011
 2779SOL     OW14173   4.359   2.772   9.290  0.3356  0.0676 -0.2686
 2779SOL    HW114174   4.365   2.862   9.324 -1.2610 -0.0329  0.3526
 2779SOL    HW214175   4.420   2.723   9.345  1.1275  0.7329 -0.5274
 2780SOL     OW14176   9.249   5.053   1.123  0.3602 -0.5527 -0.4728
 2780SOL    HW114177   9.234   5.085   1.034  0.6992 -0.5853 -0.5453
 2780SOL    HW214178   9.165   5.016   1.151  0.1716 -0.2747 -0.6675
 2781SOL     OW14179   0.113   2.456  11.712 -0.4823  0.4130 -0.3524
 2781SOL    HW114180   0.073   2.371  11.732 -0.8949  0.8171  0.5881
 2781SOL    HW214181   0.205   2.445  11.735  0.0340 -0.5461 -2.5964
 2782SOL     OW14182   6.261   8.425   5.928  0.1546  0.4049 -0.1022
 2782SOL    HW114183   6.229   8.436   5.839 -1.1025  0.3908  0.3363
 2782SOL    HW214184   6.194   8.372   5.972  1.2586 -0.4828  0.5723
 2783SOL     OW14185   6.864   8.287   2.811 -0.3368 -0.6885  0.1372
 2783SOL    HW114186   6.900   8.290   2.899  1.6531 -0.6205 -0.6290
 2783SOL    HW214187   6.838   8.196   2.798  0.4931 -0.9650  0.3851
 2784SOL     OW14188   2.930   3.759  11.306  0.0291 -0.5370  0.3230
 2784SOL    HW114189   2.870   3.811  11.253  1.2369  1.5548  0.9059
 2784SOL    HW214190   2.971   3.699  11.243 -0.7081 -0.1597 -0.5476
 2785SOL     OW14191   1.044  10.449   1.693 -0.0933 -0.7727  0.6046
 2785SOL    HW114192   0.985  10.376   1.706  0.3080 -1.0005  1.2111
 2785SOL    HW214193   0.991  10.516   1.651 -0.3575 -1.5542 -0.3348
 2786SOL     OW14194  10.855  11.532   8.072 -0.1264 -0.2648 -0.1574
 2786SOL    HW114195  10.831  11.615   8.031  0.8028  0.0283 -0.1191
 2786SOL    HW214196  10.789  11.518   8.139 -0.1306  0.5818  0.0171
 2787SOL     OW14197   5.323   8.358   7.678  0.1438  0.5264  0.5394
 2787SOL    HW114198   5.377   8.279   7.667 -1.4503 -0.5497 -0.0340
 2787SOL    HW214199   5.327   8.378   7.771 -0.8523 -1.3668  1.0455
 2788SOL     OW14200   7.645   6.250  11.850  0.3317 -0.4768  0.4308
 2788SOL    HW114201   7.603   6.172  11.814  0.4145 -1.4757  2.3524
 2788SOL    HW214202   7.580   6.288  11.909 -0.7596  2.5470 -2.3766
 2789SOL     OW14203  11.131   3.040   0.695  0.1453 -0.1040 -0.1149
 2789SOL    HW114204  11.204   3.097   0.672 -1.4423  1.2968 -2.0150
 2789SOL    HW214205  11.081   3.089   0.761  0.1988 -0.4871  0.2156
 2790SOL     OW14206   5.852   7.349   6.867  0.0304  0.0706  0.0083
 2790SOL    HW114207   5.758   7.363   6.879  0.1870  0.4421  0.8315
 2790SOL    HW214208   5.860   7.254   6.855 -0.2925 -0.1683  1.5359
 2791SOL     OW14209   6.470   4.063   8.977 -0.2169 -0.1533  0.2596
 2791SOL    HW114210   6.470   4.071   8.881 -0.2988 -0.0293  0.2690
 2791SOL    HW214211   6.434   3.976   8.993  0.7491 -0.5780  0.1527
 2792SOL     OW14212   8.364   7.269  11.890  0.1101 -1.3208 -0.1628
 2792SOL    HW114213   8.323   7.337  11.943  0.3872 -1.9048  0.8297
 2792SOL    HW214214   8.356   7.301  11.800  2.1060  1.0480  0.3855
 2793SOL     OW14215   7.536   6.421  11.460 -0.4815  0.1055 -0.0420
 2793SOL    HW114216   7.622   6.457  11.481 -0.7972  1.1630 -0.5133
 2793SOL    HW214217   7.511   6.463  11.378 -0.8967 -1.1548 -0.5968
 2794SOL     OW14218   5.470   9.278   8.754 -0.1157  0.1863  0.2971
 2794SOL    HW114219   5.403   9.220   8.790  0.8167 -0.4441  1.0485
 2794SOL    HW214220   5.432   9.311   8.673 -1.7453  0.6349  1.2036
 2795SOL     OW14221   0.242   0.105   7.432  0.2776  0.3664 -0.8781
 2795SOL    HW114222   0.232   0.030   7.373  0.3996 -1.5472  1.4137
 2795SOL    HW214223   0.334   0.104   7.458  0.3277  1.4568 -0.9377
 2796SOL     OW14224   2.893   0.596   3.507  0.3592 -0.2347  0.0635
 2796SOL    HW114225   2.832   0.572   3.438  0.0580  0.9237 -0.0916
 2796SOL    HW214226   2.884   0.691   3.516  0.6220 -0.3129  1.4720
 2797SOL     OW14227  10.580  10.816   5.883 -0.5156 -0.4485  0.1392
 2797SOL    HW114228  10.660  10.867   5.892 -0.8836  0.2937 -0.6962
 2797SOL    HW214229  10.510  10.878   5.905 -0.9617 -0.6112 -0.7953
 2798SOL     OW14230  11.393   3.574   5.668 -0.0754 -0.5030  0.5067
 2798SOL    HW114231  11.309   3.618   5.665  0.0286 -0.3795 -1.7861
 2798SOL    HW214232  11.452   3.637   5.710 -0.8522 -0.1665  1.1145
 2799SOL     OW14233   8.724   3.177   1.562  0.0366 -0.1238 -0.3465
 2799SOL    HW114234   8.663   3.246   1.534  1.1491  1.0019 -0.0782
 2799SOL    HW214235   8.726   3.117   1.487  1.0532  1.5369 -1.7421
 2800SOL     OW14236   1.093   8.286  10.497 -0.2516 -0.4693 -0.3439
 2800SOL    HW114237   1.159   8.221  10.473 -0.6151 -1.3310  0.9003
 2800SOL    HW214238   1.019   8.266  10.439  0.2214 -0.0892 -1.1010
 2801SOL     OW14239  10.311   3.080   1.864 -0.2319 -0.1896  0.5616
 2801SOL    HW114240  10.276   3.121   1.944 -0.3549  1.4754 -0.2863
 2801SOL    HW214241  10.248   3.012   1.842 -2.1996  1.6994 -0.0362
 2802SOL     OW14242   4.625   0.365   0.189 -0.5225  0.1797 -0.0020
 2802SOL    HW114243   4.555   0.431   0.183 -1.7774 -1.2495 -3.0153
 2802SOL    HW214244   4.693   0.397   0.130  0.0377  0.0371  0.5563
 2803SOL     OW14245   4.528   3.551   4.413 -0.2784 -0.4073 -0.0356
 2803SOL    HW114246   4.519   3.642   4.383  0.2117 -0.1485  0.5845
 2803SOL    HW214247   4.621   3.531   4.400  0.1328 -0.0359  1.9386
 2804SOL     OW14248   0.189  11.225  12.321  0.5265  0.5298  0.0526
 2804SOL    HW114249   0.119  11.178  12.365  0.9588 -1.6028 -1.3962
 2804SOL    HW214250   0.267  11.204  12.373  0.4892  0.9862  0.3054
 2805SOL     OW14251   3.492   3.798   4.912  0.2569  0.3642  0.1117
 2805SOL    HW114252   3.498   3.752   4.995  1.4939  0.9032  0.3429
 2805SOL    HW214253   3.556   3.869   4.919 -0.2605  0.9613 -0.9567
 2806SOL     OW14254   5.823   7.909   3.928  0.6105  0.3552 -0.0466
 2806SOL    HW114255   5.755   7.955   3.977  0.3650 -1.2468  1.2247
 2806SOL    HW214256   5.857   7.974   3.866 -1.9043  1.2781 -0.5758
 2807SOL     OW14257   7.646   9.906   2.897 -0.1798  0.2081 -0.3820
 2807SOL    HW114258   7.703   9.973   2.860 -1.4464  1.0559 -0.8371
 2807SOL    HW214259   7.629   9.846   2.824  2.4083 -1.7257  0.4424
 2808SOL     OW14260   6.733   9.399   6.185  0.0852 -0.2620 -0.2760
 2808SOL    HW114261   6.698   9.368   6.269  0.6155  0.2673  0.1587
 2808SOL    HW214262   6.779   9.480   6.208  0.3640 -0.1919 -1.0599
 2809SOL     OW14263   4.532   0.026   0.730 -0.2342 -0.3683 -0.0236
 2809SOL    HW114264   4.438   0.032   0.711 -0.3986 -1.4141  0.3963
 2809SOL    HW214265   4.572   0.008   0.645 -0.4290 -0.0778 -0.1792
 2810SOL     OW14266  12.303   3.971   2.010 -0.2833 -0.3340 -0.0313
 2810SOL    HW114267  12.208   3.964   2.000 -0.4606  0.0346  1.2240
 2810SOL    HW214268  12.333   4.008   1.927 -1.2107 -0.6780 -0.5305
 2811SOL     OW14269   0.954   6.808   8.079  0.3308 -0.5463  0.6416
 2811SOL    HW114270   1.033   6.795   8.028  0.8444  2.2503  0.6082
 2811SOL    HW214271   0.985   6.845   8.162 -0.9769  2.5248 -0.1283
 2812SOL     OW14272   5.004  10.210   9.449 -0.0814 -0.0856  0.2407
 2812SOL    HW114273   4.941  10.260   9.397 -0.7634 -0.4606  0.6971
 2812SOL    HW214274   5.057  10.164   9.384 -1.1239 -0.7891 -0.1309
 2813SOL     OW14275   9.841   6.698   2.633  0.6862  0.0017  0.2358
 2813SOL    HW114276   9.821   6.771   2.691  0.5594 -0.4830  0.8192
 2813SOL    HW214277   9.917   6.655   2.674  1.0641  0.0869 -0.3617
 2814SOL     OW14278   4.168   1.192   3.586 -0.1378  0.5249  0.0188
 2814SOL    HW114279   4.108   1.260   3.616 -0.7299 -0.2276  0.5755
 2814SOL    HW214280   4.218   1.168   3.664 -0.7138 -0.4553  0.0968
 2815SOL     OW14281   7.104   5.193   4.046 -0.3334 -0.2785 -0.5749
 2815SOL    HW114282   7.164   5.135   4.000 -1.2414 -1.7191  0.0018
 2815SOL    HW214283   7.157   5.270   4.067  1.1326 -1.2404 -0.6183
 2816SOL     OW14284   5.584  10.932   4.840 -0.4707 -0.0462  0.4354
 2816SOL    HW114285   5.549  11.018   4.863  1.1933  0.7796  0.0509
 2816SOL    HW214286   5.659  10.951   4.783  1.7388 -1.5524  2.6026
 2817SOL     OW14287   7.294   4.290   3.468  0.1631  0.1006  0.0064
 2817SOL    HW114288   7.269   4.317   3.556 -0.7175  1.7305 -0.6963
 2817SOL    HW214289   7.258   4.357   3.411 -0.5572 -1.6702 -1.7430
 2818SOL     OW14290  10.247  11.034   4.350  0.1491 -0.0540  0.1075
 2818SOL    HW114291  10.266  10.960   4.292  0.1178 -0.9424  1.1813
 2818SOL    HW214292  10.153  11.028   4.367  0.3965 -0.7624  1.4402
 2819SOL     OW14293   0.153   4.685   2.883  0.1098 -0.5841 -0.1722
 2819SOL    HW114294   0.120   4.753   2.943 -0.0824 -0.6335 -0.2201
 2819SOL    HW214295   0.136   4.720   2.796  2.4038  0.4928 -0.2574
 2820SOL     OW14296   2.401   0.853   6.146  0.6572 -0.0202 -0.1071
 2820SOL    HW114297   2.492   0.840   6.174  0.9820  0.1793 -1.0216
 2820SOL    HW214298   2.348   0.814   6.216  1.4464 -0.2438  0.3780
 2821SOL     OW14299   9.008   7.051   4.983  0.2636 -0.4407 -0.4210
 2821SOL    HW114300   9.087   7.032   5.033  0.9594 -1.2697 -1.7642
 2821SOL    HW214301   9.034   7.118   4.921 -0.5943  0.6013  0.3011
 2822SOL     OW14302   6.270  10.098   1.002 -0.1397 -0.1041 -0.0478
 2822SOL    HW114303   6.330  10.023   1.004 -0.2599 -0.2527 -1.5150
 2822SOL    HW214304   6.190  10.064   0.962 -0.2905  0.7399 -0.4797
 2823SOL     OW14305   0.666   3.724  10.400  0.0851  0.0378  0.0842
 2823SOL    HW114306   0.601   3.751  10.465 -0.3295 -0.1963 -0.2266
 2823SOL    HW214307   0.645   3.775  10.322  0.8725  0.6641  0.2632
 2824SOL     OW14308   9.131   7.067   8.079  0.3844  0.0964  0.5369
 2824SOL    HW114309   9.121   7.162   8.070  0.6924  0.1058  0.2643
 2824SOL    HW214310   9.165   7.039   7.994  2.0543 -0.0048  1.2141
 2825SOL     OW14311  10.437   1.237   0.217 -0.2646 -0.2155 -0.0110
 2825SOL    HW114312  10.377   1.276   0.281 -1.4907 -1.0193 -0.6248
 2825SOL    HW214313  10.383   1.175   0.169  1.0158 -0.7626 -0.7909
 2826SOL     OW14314   6.161  11.000   2.044  0.1104 -0.7756 -0.2172
 2826SOL    HW114315   6.222  11.018   1.973 -0.5153 -0.6833 -0.7379
 2826SOL    HW214316   6.102  11.076   2.045  1.0145 -0.0421  1.3817
 2827SOL     OW14317   6.471   3.671   9.231  0.1898  0.5483 -0.0612
 2827SOL    HW114318   6.382   3.680   9.265 -0.5633  0.5908 -1.8811
 2827SOL    HW214319   6.526   3.717   9.294 -0.9511 -0.2561  1.5808
 2828SOL     OW14320  10.858   6.369   0.983 -0.0471 -0.2624 -0.6254
 2828SOL    HW114321  10.776   6.323   0.999  0.2650 -1.0452 -1.2276
 2828SOL    HW214322  10.883   6.404   1.069  0.2298 -2.0972  0.0912
 2829SOL     OW14323   3.168  11.638   3.395  0.0026 -0.3700  0.0097
 2829SOL    HW114324   3.244  11.697   3.390 -0.4175  0.2222  0.4493
 2829SOL    HW214325   3.175  11.598   3.481  0.1099 -0.7276 -0.1641
 2830SOL     OW14326   6.520  10.461   8.081 -1.0110  0.0718  0.2768
 2830SOL    HW114327   6.424  10.460   8.084 -1.0037  0.6420  1.1708
 2830SOL    HW214328   6.545  10.369   8.080 -1.5347 -0.1779  2.7331
 2831SOL     OW14329   2.446  10.778   2.178 -0.1198  0.1140  0.2221
 2831SOL    HW114330   2.462  10.690   2.144  1.5163 -0.0579  1.3213
 2831SOL    HW214331   2.401  10.823   2.106  0.6124 -1.0716 -1.0479
 2832SOL     OW14332   9.791   8.346   5.159  0.1611 -0.0334 -0.3105
 2832SOL    HW114333   9.878   8.313   5.181  0.0355 -0.1091  0.0727
 2832SOL    HW214334   9.780   8.322   5.067  1.1558  1.3130 -0.8140
 2833SOL     OW14335   5.000  10.127  10.753  0.0421  0.5325  0.1251
 2833SOL    HW114336   5.017  10.217  10.723 -0.9637  0.6748 -0.0494
 2833SOL    HW214337   5.067  10.075  10.709  0.7205  1.2120  0.3248
 2834SOL     OW14338   4.491   7.755  10.885 -0.5633 -0.1097 -0.3147
 2834SOL    HW114339   4.419   7.764  10.822 -1.3954 -1.7185  0.3439
 2834SOL    HW214340   4.550   7.691  10.846  0.8038  1.5124 -1.0480
 2835SOL     OW14341  10.010   7.619   1.353 -0.0509  0.0307  0.2960
 2835SOL    HW114342  10.062   7.667   1.288 -1.0936  1.1764  0.2701
 2835SOL    HW214343   9.958   7.558   1.301  0.2070 -0.1008  0.1910
 2836SOL     OW14344  10.934   4.181   8.445 -0.5831 -0.1024 -0.3395
 2836SOL    HW114345  10.933   4.219   8.533  1.2149 -1.5315  0.3545
 2836SOL    HW214346  11.026   4.160   8.429 -1.2272 -2.4603 -1.3942
 2837SOL     OW14347   0.531  12.026   5.343  0.1718 -0.2134 -0.0500
 2837SOL    HW114348   0.510  12.101   5.399  0.7740  0.2224 -0.4008
 2837SOL    HW214349   0.611  11.990   5.380 -0.6620 -1.3427  0.7527
 2838SOL     OW14350   9.035   0.046   7.937  0.1397  0.5099 -0.1279
 2838SOL    HW114351   9.040  -0.012   7.860  0.3402 -0.3365  0.5070
 2838SOL    HW214352   9.099   0.009   7.998 -0.3785  0.8782  0.6402
 2839SOL     OW14353   4.239  10.596   1.352 -0.4480  0.1032  0.2648
 2839SOL    HW114354   4.152  10.624   1.380 -1.1184  0.0996 -1.6548
 2839SOL    HW214355   4.293  10.674   1.363 -1.3825  1.0091 -1.2328
 2840SOL     OW14356   5.323   6.470   2.592  0.1297 -0.1717  0.6791
 2840SOL    HW114357   5.300   6.494   2.682 -0.6064  2.4252 -0.1292
 2840SOL    HW214358   5.403   6.418   2.601 -0.2009 -0.4267  2.8395
 2841SOL     OW14359   4.945   3.261   8.830  0.2943  0.3192 -1.1004
 2841SOL    HW114360   5.013   3.205   8.794  1.0427 -0.2066  0.9619
 2841SOL    HW214361   4.893   3.203   8.885  1.0014  1.5283  0.9846
 2842SOL     OW14362   4.236   4.254   0.655 -0.2503  0.6613  0.2843
 2842SOL    HW114363   4.292   4.188   0.614 -0.9084  0.3357 -0.1071
 2842SOL    HW214364   4.286   4.336   0.647 -0.1177  0.5042 -0.6546
 2843SOL     OW14365  10.470   1.179   5.903  0.5139 -0.1314 -0.2599
 2843SOL    HW114366  10.520   1.162   5.983 -2.0088 -2.0001  1.0584
 2843SOL    HW214367  10.442   1.092   5.873 -2.1905  0.7863 -0.6789
 2844SOL     OW14368   8.580   2.235  10.044  0.2058  0.0181  0.0602
 2844SOL    HW114369   8.537   2.273  10.121  0.2440 -0.1903  0.1847
 2844SOL    HW214370   8.510   2.194   9.995  0.3476 -0.8700  0.5842
 2845SOL     OW14371   1.356   0.797   1.037 -0.0014  0.2069  0.0848
 2845SOL    HW114372   1.377   0.788   0.944 -0.6178  2.2122 -0.2907
 2845SOL    HW214373   1.261   0.788   1.041  0.1333 -1.1376  0.7199
 2846SOL     OW14374   1.155   1.830   5.962 -0.6976  0.0674  0.1207
 2846SOL    HW114375   1.242   1.859   5.987 -0.9206  0.5446  0.3556
 2846SOL    HW214376   1.170   1.757   5.903 -0.1484 -1.0711  1.5924
 2847SOL     OW14377   1.670   1.162   5.248  0.2761  0.0424 -0.2605
 2847SOL    HW114378   1.598   1.160   5.312  0.1018 -1.9493 -0.4816
 2847SOL    HW214379   1.627   1.180   5.164  0.2484  0.4133 -0.1721
 2848SOL     OW14380   2.967  11.548   6.090  0.0196 -0.0940 -0.0157
 2848SOL    HW114381   2.899  11.591   6.142 -0.0798 -0.0488 -0.1829
 2848SOL    HW214382   2.923  11.471   6.052 -0.4362  0.8846 -1.5543
 2849SOL     OW14383   0.931   6.159   3.221  0.0960  0.5997 -0.8261
 2849SOL    HW114384   0.869   6.097   3.184  0.5144 -0.2269 -0.1749
 2849SOL    HW214385   1.012   6.145   3.171  0.0857  0.8937 -0.9307
 2850SOL     OW14386   5.798   6.559   1.939 -0.3634 -0.4225 -0.4323
 2850SOL    HW114387   5.892   6.561   1.920 -0.3489 -2.5690 -0.8254
 2850SOL    HW214388   5.786   6.480   1.992 -1.9844 -0.3103 -0.5850
 2851SOL     OW14389   8.886   0.105   9.278 -0.0373 -0.2541 -0.0066
 2851SOL    HW114390   8.856   0.195   9.291  1.2822  0.0461  1.2132
 2851SOL    HW214391   8.865   0.059   9.359 -1.9460 -1.4655 -1.1170
 2852SOL     OW14392   5.477   5.972   7.323 -0.5801 -0.1356  0.2383
 2852SOL    HW114393   5.496   6.010   7.238 -2.3822 -2.4817 -1.3394
 2852SOL    HW214394   5.540   5.901   7.334 -1.2133 -0.7152  0.2046
 2853SOL     OW14395   0.818   3.076   9.190  0.2026  0.2947  0.4077
 2853SOL    HW114396   0.911   3.082   9.165  0.1918 -0.3131  0.1980
 2853SOL    HW214397   0.799   2.982   9.190 -0.4738  0.4244  0.2248
 2854SOL     OW14398   7.853  10.749   4.941  0.0329 -0.2118 -0.3664
 2854SOL    HW114399   7.815  10.661   4.943  1.6197 -0.9422 -0.6678
 2854SOL    HW214400   7.832  10.781   4.853 -1.1636  0.0204 -0.0162
 2855SOL     OW14401   8.915   7.038  10.138 -0.2763 -0.4342  0.1300
 2855SOL    HW114402   8.844   7.099  10.117 -0.8945 -1.2746 -0.2684
 2855SOL    HW214403   8.873   6.970  10.191  0.5562 -0.1528  1.1826
 2856SOL     OW14404   3.054   4.194   6.652  0.3388 -0.2383 -0.2338
 2856SOL    HW114405   3.038   4.259   6.583  0.0595 -0.5144 -0.4296
 2856SOL    HW214406   3.136   4.222   6.692  0.2717  0.1824 -0.3825
 2857SOL     OW14407   7.021  12.262   3.830 -0.1678  0.0942 -0.5650
 2857SOL    HW114408   6.973  12.318   3.890 -1.9194 -0.0040 -1.7868
 2857SOL    HW214409   6.955  12.202   3.796  0.9313 -0.3746 -1.9764
 2858SOL     OW14410  10.779  12.288   7.228 -0.2531  0.0132 -0.3114
 2858SOL    HW114411  10.808  12.221   7.166  2.5123 -1.0686  1.9335
 2858SOL    HW214412  10.780  12.369   7.177 -0.8191 -1.1729 -2.3527
 2859SOL     OW14413   2.759  10.682   6.105  0.1054 -0.3899  0.3881
 2859SOL    HW114414   2.725  10.594   6.120  1.3044 -0.8160  0.7091
 2859SOL    HW214415   2.816  10.674   6.029  0.3945  0.0520  0.5481
 2860SOL     OW14416  10.702   5.350  11.607 -0.3555  0.3325 -0.3155
 2860SOL    HW114417  10.685   5.301  11.688 -1.6181  1.4505  0.1373
 2860SOL    HW214418  10.749   5.427  11.636 -3.9022  2.6110  0.0060
 2861SOL     OW14419   2.687   1.164   9.753 -0.2521 -0.3970  0.4438
 2861SOL    HW114420   2.782   1.160   9.764 -0.3596 -0.0042  1.7284
 2861SOL    HW214421   2.674   1.205   9.667  0.7405  0.0974  0.5148
 2862SOL     OW14422   7.118   7.938   6.506  0.2371 -0.3100 -0.5054
 2862SOL    HW114423   7.126   7.942   6.410  1.9881  0.6797 -0.3665
 2862SOL    HW214424   7.123   8.029   6.535 -0.3799 -0.5897  0.5354
 2863SOL     OW14425   8.217   3.156   0.034  0.6092 -0.1613  0.2123
 2863SOL    HW114426   8.297   3.153   0.086  1.1223  2.4015 -0.2985
 2863SOL    HW214427   8.246   3.184  -0.053 -0.6858 -0.5474 -0.3658
 2864SOL     OW14428   3.034   9.732   3.974  0.2315 -0.1809  0.2711
 2864SOL    HW114429   3.040   9.664   4.041  0.0191  0.0753  0.5540
 2864SOL    HW214430   3.032   9.814   4.023 -1.8494 -0.0622  0.0803
 2865SOL     OW14431   5.582   6.260   8.812  0.2592  0.4664  0.3562
 2865SOL    HW114432   5.612   6.170   8.813 -0.9289  0.0453  1.4784
 2865SOL    HW214433   5.592   6.290   8.903  1.1529  1.6630 -0.0992
 2866SOL     OW14434   0.005   6.078  10.445 -0.4613 -0.0532 -0.3672
 2866SOL    HW114435   0.005   5.993  10.402  0.0313 -0.8279  1.0944
 2866SOL    HW214436   0.052   6.136  10.384  1.2497 -1.3859 -0.3893
 2867SOL     OW14437   1.373  10.779  10.634  0.2403 -0.3315  0.0742
 2867SOL    HW114438   1.367  10.789  10.729  1.4899 -1.0032  0.2298
 2867SOL    HW214439   1.329  10.857  10.599  0.4192  0.2892  1.2022
 2868SOL     OW14440  11.909   5.765   6.487 -0.4925 -0.4174 -0.2771
 2868SOL    HW114441  11.851   5.711   6.541 -2.7103  2.1811  0.1332
 2868SOL    HW214442  11.910   5.850   6.531  0.1854  0.8819 -2.6601
 2869SOL     OW14443  11.865   3.325   6.323 -0.3235 -0.3294 -0.3992
 2869SOL    HW114444  11.925   3.279   6.381  0.7880 -0.9490 -1.9496
 2869SOL    HW214445  11.790   3.267   6.315 -0.0740 -0.6671 -0.2970
 2870SOL     OW14446   6.936   6.672   8.583 -0.4808 -0.6125 -0.2345
 2870SOL    HW114447   7.026   6.678   8.552 -0.4737  0.4803 -0.0506
 2870SOL    HW214448   6.943   6.628   8.668 -0.1633 -0.8271 -0.3692
 2871SOL     OW14449   6.092   6.975   2.766 -0.1445 -0.2634  0.4032
 2871SOL    HW114450   6.152   7.006   2.834  0.2471  0.8960 -0.4384
 2871SOL    HW214451   6.006   7.004   2.795  0.0872  0.7249  0.1645
 2872SOL     OW14452  11.057  11.560   6.096 -0.1821 -0.0226  0.3118
 2872SOL    HW114453  10.981  11.505   6.076 -0.7617  0.7245  0.4243
 2872SOL    HW214454  11.075  11.605   6.013  0.4961 -0.6194  0.1290
 2873SOL     OW14455   8.002   3.042   0.959 -1.1169 -0.2574 -0.2049
 2873SOL    HW114456   8.049   3.059   0.877 -0.8313  1.9482  0.3713
 2873SOL    HW214457   8.063   3.069   1.027 -1.9324 -0.6528  0.6935
 2874SOL     OW14458   8.343   7.444   7.029  0.1197  0.2881  0.5119
 2874SOL    HW114459   8.329   7.432   7.123  0.2715  0.4994  0.5600
 2874SOL    HW214460   8.326   7.357   6.992 -0.1212  0.2467  0.7120
 2875SOL     OW14461   0.959  11.060  11.668 -0.1075  0.7461 -0.0676
 2875SOL    HW114462   1.043  11.039  11.628 -1.6435 -2.0891 -2.1170
 2875SOL    HW214463   0.974  11.046  11.762  1.8376  0.9907 -0.2887
 2876SOL     OW14464  10.439   4.137   9.873 -0.1169 -0.1979 -0.1130
 2876SOL    HW114465  10.453   4.132   9.779  0.7391 -0.5161  0.0250
 2876SOL    HW214466  10.479   4.057   9.908 -1.9686 -0.9760  0.3500
 2877SOL     OW14467   2.378   0.768   7.491 -0.0337  0.9529 -0.3018
 2877SOL    HW114468   2.294   0.752   7.532 -0.0004  1.1546 -0.1564
 2877SOL    HW214469   2.377   0.715   7.411  0.0445  0.2794  0.1418
 2878SOL     OW14470   3.497   4.102   5.558  0.5363 -1.0112 -0.4468
 2878SOL    HW114471   3.420   4.146   5.595  0.1886 -1.9178 -0.0700
 2878SOL    HW214472   3.485   4.107   5.463  0.2889 -0.6855 -0.4016
 2879SOL     OW14473   3.367  10.591   1.204  0.3740 -0.2866  0.1989
 2879SOL    HW114474   3.307  10.634   1.144  1.1120  1.0097  0.3364
 2879SOL    HW214475   3.317  10.580   1.285  0.5709  1.7657  0.6731
 2880SOL     OW14476   3.454   5.583  11.925 -0.3859 -0.2387 -0.4612
 2880SOL    HW114477   3.395   5.631  11.983  0.6502 -0.8951  1.1995
 2880SOL    HW214478   3.502   5.651  11.878 -0.0822  0.3439  0.6653
 2881SOL     OW14479   3.330   8.403   7.367  0.0341  0.1700 -0.0771
 2881SOL    HW114480   3.309   8.490   7.333  0.4760 -0.3216 -1.6928
 2881SOL    HW214481   3.244   8.361   7.381 -0.2232  1.2138  1.7940
 2882SOL     OW14482   5.081   4.999  10.703 -0.1663 -0.1746 -0.1331
 2882SOL    HW114483   5.064   5.005  10.797 -1.0065 -1.5251 -0.1638
 2882SOL    HW214484   5.020   5.062  10.664 -1.2361 -1.0136  0.1301
 2883SOL     OW14485   6.116   5.327   2.438  0.5913 -0.3381 -0.6961
 2883SOL    HW114486   6.107   5.315   2.533 -0.2942 -1.0493 -0.8577
 2883SOL    HW214487   6.057   5.262   2.400 -0.7995  1.4276 -1.7115
 2884SOL     OW14488   6.519   0.577   8.521 -0.0285 -0.4318 -0.2783
 2884SOL    HW114489   6.596   0.530   8.489 -0.6655 -1.1229 -0.8405
 2884SOL    HW214490   6.457   0.508   8.545  0.1158  0.0792  1.7496
 2885SOL     OW14491  12.191  11.167  11.604 -0.5016 -0.1750 -1.0418
 2885SOL    HW114492  12.217  11.258  11.620 -0.7018 -0.1236 -0.9899
 2885SOL    HW214493  12.127  11.149  11.674  1.6031 -1.2727  0.7060
 2886SOL     OW14494   7.008   4.310   9.900  0.8805 -0.2303  0.0578
 2886SOL    HW114495   7.053   4.287   9.981  0.5197  0.8559  0.5879
 2886SOL    HW214496   6.932   4.361   9.928  1.1776  0.8448 -0.9897
 2887SOL     OW14497   4.124  10.840  11.931 -0.4406  0.3816  0.2442
 2887SOL    HW114498   4.076  10.879  12.004 -0.9501 -0.3562  0.3147
 2887SOL    HW214499   4.126  10.747  11.950 -0.8956  0.1285 -0.8600
 2888SOL     OW14500   7.916   0.889  11.155  0.1528 -0.2726 -0.1400
 2888SOL    HW114501   7.942   0.809  11.201  2.0389  0.3347 -0.0721
 2888SOL    HW214502   7.943   0.960  11.213  0.1939  0.4541 -1.0288
 2889SOL     OW14503   8.664   9.287   7.045  0.0080 -0.2439  0.2047
 2889SOL    HW114504   8.623   9.356   7.097  0.3108 -0.2769  0.4833
 2889SOL    HW214505   8.681   9.328   6.960  1.0600  0.3133  0.6684
 2890SOL     OW14506   5.703   9.085  11.664  0.6148  0.3916 -0.6518
 2890SOL    HW114507   5.627   9.135  11.633 -0.8765 -0.3641  1.5533
 2890SOL    HW214508   5.684   8.995  11.640  1.4005  0.3392 -1.1107
 2891SOL     OW14509   6.487   7.312   6.391  0.7913 -0.0699  0.4120
 2891SOL    HW114510   6.572   7.324   6.434  0.3745  1.0315  0.9729
 2891SOL    HW214511   6.424   7.306   6.463  0.3327 -0.4227 -0.0092
 2892SOL     OW14512   3.576   5.428   1.240  0.5870  0.7559 -0.2273
 2892SOL    HW114513   3.573   5.522   1.259  2.0333  0.7908 -0.0497
 2892SOL    HW214514   3.607   5.389   1.321  2.0667  0.3770 -0.9326
 2893SOL     OW14515  11.362  12.099   0.137 -0.3640 -0.2777  0.0127
 2893SOL    HW114516  11.358  12.085   0.232 -1.5638 -0.0628  0.0171
 2893SOL    HW214517  11.453  12.123   0.120 -0.6131  2.1386  1.4990
 2894SOL     OW14518   6.657   5.432   9.806  0.4550  0.0146 -0.1541
 2894SOL    HW114519   6.565   5.420   9.783  0.8644 -1.0504 -1.3225
 2894SOL    HW214520   6.687   5.345   9.833  1.4186  0.0861 -0.9528
 2895SOL     OW14521   2.529   1.002   7.899  0.1279  0.1816 -0.2447
 2895SOL    HW114522   2.485   0.918   7.885 -0.8455  0.6076  0.2238
 2895SOL    HW214523   2.614   0.991   7.856 -0.3378 -0.7247 -0.9766
 2896SOL     OW14524   9.013   0.351   3.226 -0.5302  0.7313  0.5051
 2896SOL    HW114525   9.007   0.275   3.283 -2.4104  1.0188  0.7325
 2896SOL    HW214526   9.046   0.421   3.282  4.4403 -0.5127 -0.3982
 2897SOL     OW14527   0.802   1.772  10.715  0.0276  0.3111  0.6885
 2897SOL    HW114528   0.730   1.716  10.684 -0.1954  0.6118  0.6558
 2897SOL    HW214529   0.881   1.728  10.685 -0.1776  0.5544 -0.2445
 2898SOL     OW14530   0.664   4.630   8.393 -0.4281  0.0083  0.7146
 2898SOL    HW114531   0.693   4.607   8.482 -1.2579 -0.4336  0.8874
 2898SOL    HW214532   0.716   4.575   8.336 -0.1183  0.0580  0.9438
 2899SOL     OW14533   9.611   0.692  11.802  0.1168  0.0206  0.0494
 2899SOL    HW114534   9.637   0.768  11.854  0.1761  1.4067 -1.9114
 2899SOL    HW214535   9.610   0.620  11.865  2.1040  1.2002  1.5793
 2900SOL     OW14536   0.654   0.736  12.050  0.1676 -0.1729  0.3065
 2900SOL    HW114537   0.684   0.752  12.139 -0.1739  0.6734  0.2833
 2900SOL    HW214538   0.733   0.740  11.997  0.3060 -0.1641  0.5138
 2901SOL     OW14539   1.255   5.650  12.129 -0.3930  0.0501 -0.7686
 2901SOL    HW114540   1.161   5.653  12.148  0.0855 -1.0165  2.4943
 2901SOL    HW214541   1.291   5.722  12.180  0.4771  1.5059 -3.3072
 2902SOL     OW14542  12.191   8.346   6.641  0.0469  0.4512  0.5755
 2902SOL    HW114543  12.097   8.360   6.638 -0.4650 -2.4816 -0.6104
 2902SOL    HW214544  12.223   8.380   6.557 -0.2370 -0.0514  0.2575
 2903SOL     OW14545   4.516   9.819   6.931  0.0760  0.3062  0.3466
 2903SOL    HW114546   4.543   9.732   6.902 -1.3485  0.6206 -2.2351
 2903SOL    HW214547   4.533   9.876   6.855 -2.3516  1.5720  0.6519
 2904SOL     OW14548   6.782   9.757   5.428  0.3376  0.1857  0.2323
 2904SOL    HW114549   6.846   9.744   5.358  0.9869 -0.4887  0.9319
 2904SOL    HW214550   6.719   9.820   5.392  0.5980 -0.2275 -0.9854
 2905SOL     OW14551   0.508  10.907   5.236  0.5705 -0.5187  0.3987
 2905SOL    HW114552   0.556  10.837   5.194  0.6318 -0.2430  0.0069
 2905SOL    HW214553   0.459  10.950   5.165 -1.3434 -1.6314  0.9603
 2906SOL     OW14554   3.382  12.043   9.955  0.0762  0.2820 -0.0429
 2906SOL    HW114555   3.437  12.080   9.886 -1.0293 -0.2790 -1.2635
 2906SOL    HW214556   3.293  12.063   9.928 -0.3972 -0.0914  1.1559
 2907SOL     OW14557   2.896   5.545   8.580 -0.5257  0.0550 -0.4439
 2907SOL    HW114558   2.806   5.514   8.592 -0.4318 -0.4322 -0.9389
 2907SOL    HW214559   2.945   5.503   8.650 -0.9450  1.5459  0.7956
 2908SOL     OW14560   0.698   6.279   3.408  0.1094 -0.5839 -0.8034
 2908SOL    HW114561   0.654   6.229   3.339 -0.1158 -2.2195  0.4627
 2908SOL    HW214562   0.737   6.213   3.464 -1.8390  0.5065  2.0852
 2909SOL     OW14563   1.499  12.014   8.159  0.3116 -0.0542 -0.7055
 2909SOL    HW114564   1.521  12.052   8.074 -0.1649  0.9877 -0.3905
 2909SOL    HW214565   1.467  12.089   8.210 -1.6084 -1.0529 -0.3637
 2910SOL     OW14566   5.041   1.096  10.884  0.2164 -0.9165 -0.0661
 2910SOL    HW114567   5.007   1.032  10.820  1.4341 -0.0096 -1.7016
 2910SOL    HW214568   5.101   1.045  10.938 -0.3169 -1.5673 -0.0666
 2911SOL     OW14569  11.472   8.309  10.050 -0.3596 -0.0171 -0.6896
 2911SOL    HW114570  11.509   8.348  10.129  0.4637 -0.1322 -1.0082
 2911SOL    HW214571  11.392   8.358  10.033 -1.2068 -0.7861  0.9100
 2912SOL     OW14572   9.253   9.962   6.037  0.3085 -0.6215 -0.0285
 2912SOL    HW114573   9.232   9.909   6.114 -1.0546 -0.8550 -0.5240
 2912SOL    HW214574   9.176   9.954   5.981 -0.1267  2.1708  0.0269
 2913SOL     OW14575   4.072   9.965   3.050  0.8014  0.0134 -0.3561
 2913SOL    HW114576   3.981   9.990   3.068  0.6496 -2.2502  3.1638
 2913SOL    HW214577   4.124  10.024   3.105  1.3352  0.2668 -1.1296
 2914SOL     OW14578   8.716   3.999   3.524  0.2674 -0.2965 -0.0884
 2914SOL    HW114579   8.694   3.965   3.437  1.0994 -2.1139  0.3567
 2914SOL    HW214580   8.672   3.939   3.585 -1.3477  1.6639  0.8127
 2915SOL     OW14581   0.672   5.181   7.487 -0.0032  0.4025 -0.1764
 2915SOL    HW114582   0.606   5.113   7.473  1.1103 -0.3344 -2.1926
 2915SOL    HW214583   0.681   5.185   7.582 -2.6195  0.2608  0.1635
 2916SOL     OW14584   0.899  10.245   2.238 -0.3111 -0.4658 -0.1536
 2916SOL    HW114585   0.807  10.239   2.266  0.1046  1.0132  1.7869
 2916SOL    HW214586   0.900  10.319   2.177 -0.3154 -0.0924  0.2962
 2917SOL     OW14587  12.045  10.298   8.026 -0.2602 -0.1016  0.1264
 2917SOL    HW114588  12.113  10.337   8.080  1.1187 -0.7228 -1.0853
 2917SOL    HW214589  12.043  10.351   7.946  1.8548 -2.4858 -1.6809
 2918SOL     OW14590   4.959   2.359   5.539 -0.2191 -0.1780  0.1005
 2918SOL    HW114591   4.992   2.361   5.449 -0.7261 -0.5266 -0.0933
 2918SOL    HW214592   4.982   2.444   5.575 -0.0568 -0.0216 -0.3738
 2919SOL     OW14593   1.209   6.525   5.846  0.0356 -0.1321  0.1755
 2919SOL    HW114594   1.286   6.487   5.887  0.6080  1.3003  0.4800
 2919SOL    HW214595   1.138   6.506   5.908  0.7121  1.1559  1.4079
 2920SOL     OW14596   9.738  11.343   7.207  0.4699  0.0293 -0.3849
 2920SOL    HW114597   9.659  11.328   7.260  0.1421  0.5973 -0.7010
 2920SOL    HW214598   9.709  11.403   7.138  1.2140  0.3571 -0.4196
 2921SOL     OW14599   5.027   3.948   4.162  0.0542 -0.4097 -0.5360
 2921SOL    HW114600   5.028   3.921   4.254 -0.6861 -0.6643 -0.5994
 2921SOL    HW214601   5.119   3.942   4.135  0.3954  0.3303  0.3709
 2922SOL     OW14602   4.988   8.220   9.983  0.1011 -0.0523 -0.0821
 2922SOL    HW114603   4.985   8.125   9.992 -1.0852 -0.6540 -4.3636
 2922SOL    HW214604   4.896   8.247   9.979  0.4148  1.3410  1.2222
 2923SOL     OW14605   0.607   2.448   0.203  0.0746  0.3343 -0.2719
 2923SOL    HW114606   0.516   2.423   0.190 -0.2569  2.1713 -1.9081
 2923SOL    HW214607   0.657   2.379   0.159 -0.3987 -1.3040  1.6126
 2924SOL     OW14608  11.595  11.463  10.221 -0.1015 -0.3252  0.0807
 2924SOL    HW114609  11.604  11.535  10.158 -3.5563 -0.3150 -0.6017
 2924SOL    HW214610  11.521  11.489  10.276  0.6465 -1.9408  1.9610
 2925SOL     OW14611   6.637  10.840   9.831  0.0728  0.0918  0.1294
 2925SOL    HW114612   6.583  10.776   9.784  0.7884 -1.4082  1.2602
 2925SOL    HW214613   6.625  10.922   9.782  0.7328 -1.3467 -2.6155
 2926SOL     OW14614   5.631   8.421   4.710  0.3597 -0.1287 -0.0252
 2926SOL    HW114615   5.565   8.441   4.776  0.3524 -0.6851  0.1359
 2926SOL    HW214616   5.632   8.499   4.653 -1.4422 -0.6817 -0.8932
 2927SOL     OW14617   0.316   7.117   5.598  0.0572  0.4429 -0.4471
 2927SOL    HW114618   0.389   7.123   5.660 -0.7220 -3.9441  1.2147
 2927SOL    HW214619   0.355   7.086   5.517  0.2650 -0.1147 -0.1337
 2928SOL     OW14620   8.708   0.292  11.477  0.2337 -0.3297 -0.4135
 2928SOL    HW114621   8.747   0.354  11.538 -0.8176  0.5309 -0.5928
 2928SOL    HW214622   8.685   0.217  11.531 -0.2853  0.2462  0.1741
 2929SOL     OW14623   1.893   1.545  11.944  0.1468 -0.2312  0.6350
 2929SOL    HW114624   1.889   1.562  11.850 -4.2845 -0.3988  0.5922
 2929SOL    HW214625   1.867   1.627  11.985 -1.5398 -1.1111  1.4465
 2930SOL     OW14626   8.874   1.325  12.311 -0.0758 -0.1669 -0.0928
 2930SOL    HW114627   8.872   1.348  12.404 -0.6428 -1.3936  0.2183
 2930SOL    HW214628   8.839   1.402  12.266  1.9239  1.1669  0.5172
 2931SOL     OW14629   7.017  11.846   7.498  0.4491  0.6718  0.2355
 2931SOL    HW114630   7.017  11.751   7.515  0.7442  0.6791  0.2691
 2931SOL    HW214631   6.982  11.854   7.410  1.4862  0.4541 -0.2108
 2932SOL     OW14632   8.786   0.047   9.540 -0.5086  0.0651  0.2977
 2932SOL    HW114633   8.695   0.020   9.530 -0.7254  0.1905  1.6920
 2932SOL    HW214634   8.788   0.095   9.623  0.6040  1.0795 -0.2799
 2933SOL     OW14635   7.684   4.066   8.380 -0.4944  0.1583  0.8937
 2933SOL    HW114636   7.632   3.998   8.337  0.9935 -0.5641  0.1298
 2933SOL    HW214637   7.751   4.017   8.429 -1.1794  1.0216  2.7637
 2934SOL     OW14638   6.925  12.307   7.506  0.4119 -0.2940 -0.4581
 2934SOL    HW114639   6.990  12.260   7.558 -1.5732  0.1235  2.7018
 2934SOL    HW214640   6.841  12.271   7.536 -0.9310  0.6398 -2.8334
 2935SOL     OW14641  12.307   9.731   8.007  0.7565  0.1124 -0.5990
 2935SOL    HW114642  12.270   9.803   8.058  1.1114 -0.0425 -0.1183
 2935SOL    HW214643  12.318   9.767   7.919 -0.6719  0.1084 -0.7953
 2936SOL     OW14644   5.182   7.737   2.088  0.2339 -0.5132 -0.4063
 2936SOL    HW114645   5.225   7.656   2.115  0.5124 -0.4940 -0.7882
 2936SOL    HW214646   5.093   7.709   2.063 -0.3545 -0.3958  1.4112
 2937SOL     OW14647  10.706   0.882  12.218 -0.0184  0.3809 -0.0056
 2937SOL    HW114648  10.620   0.920  12.201 -0.3851 -0.0040  0.9490
 2937SOL    HW214649  10.764   0.925  12.154 -0.7023  1.4401  0.0593
 2938SOL     OW14650   2.689   4.859   5.462  0.0215 -0.1425  0.1294
 2938SOL    HW114651   2.628   4.785   5.462  0.5413 -0.5783  0.4155
 2938SOL    HW214652   2.687   4.891   5.372  0.7291 -1.3010 -0.3274
 2939SOL     OW14653   6.681   1.766   5.259  0.0537  0.3748 -0.3043
 2939SOL    HW114654   6.589   1.787   5.279 -0.0736  1.0072 -1.4665
 2939SOL    HW214655   6.693   1.797   5.169  1.6570  1.0906  0.1319
 2940SOL     OW14656   9.618   5.974   6.767 -0.3795  0.3951  0.3343
 2940SOL    HW114657   9.703   5.963   6.723  0.1584  4.8503 -0.1272
 2940SOL    HW214658   9.554   5.974   6.695 -0.1749  1.8500  0.1375
 2941SOL     OW14659   9.063   9.464   6.958 -0.1644  0.2091 -0.5358
 2941SOL    HW114660   8.989   9.520   6.979 -0.7516  0.0164 -1.9669
 2941SOL    HW214661   9.032   9.409   6.886  0.5471 -1.6341  0.4784
 2942SOL     OW14662   5.394   0.547   1.363 -0.4291 -0.4673  0.1598
 2942SOL    HW114663   5.330   0.532   1.433 -0.0280 -0.9408  0.4260
 2942SOL    HW214664   5.470   0.495   1.388  0.7387  1.4068  0.7409
 2943SOL     OW14665   5.889   7.930  10.343  0.7729  0.1588  0.3713
 2943SOL    HW114666   5.840   7.872  10.284  1.1986 -0.5120  0.6744
 2943SOL    HW214667   5.971   7.884  10.360  3.1616  2.7579 -2.9128
 2944SOL     OW14668   3.935  10.018   1.983 -0.3786 -0.1186 -0.5296
 2944SOL    HW114669   3.983  10.050   2.059  0.0755 -1.2779 -0.3098
 2944SOL    HW214670   3.843  10.019   2.010 -0.2019 -0.7241  0.1212
 2945SOL     OW14671  11.190   7.838  10.676  0.0873  0.0792  0.6290
 2945SOL    HW114672  11.140   7.780  10.734  0.3179  0.3167  1.0698
 2945SOL    HW214673  11.262   7.870  10.731  0.2204  0.4234  0.2530
 2946SOL     OW14674   1.961   6.075   4.251 -0.0353  0.2380 -0.0350
 2946SOL    HW114675   1.883   6.096   4.199  0.3069  0.2895 -0.5348
 2946SOL    HW214676   1.998   5.998   4.209  0.1887  0.2167  0.1971
 2947SOL     OW14677   3.510   9.424   2.767 -0.1397 -0.1097  0.1789
 2947SOL    HW114678   3.550   9.447   2.683 -1.7142  1.6221 -0.1705
 2947SOL    HW214679   3.581   9.387   2.819  0.7852 -1.7020 -2.0570
 2948SOL     OW14680  10.059   9.425   6.204  0.6785  0.0832  0.0877
 2948SOL    HW114681  10.141   9.430   6.154  0.7473 -1.0986  0.0483
 2948SOL    HW214682  10.087   9.433   6.296  0.7262  0.6311  0.0299
 2949SOL     OW14683   5.949   8.856  11.671 -0.3047  0.2265 -0.4139
 2949SOL    HW114684   5.870   8.817  11.633 -0.7852 -1.4495  2.0408
 2949SOL    HW214685   5.939   8.842  11.765  1.6089  2.5547  0.2213
 2950SOL     OW14686  12.295  10.868   2.354  0.2754  0.1551  0.1383
 2950SOL    HW114687  12.291  10.815   2.434  0.7721  1.5926  1.1517
 2950SOL    HW214688  12.268  10.808   2.285  0.8712 -1.4418  1.2221
 2951SOL     OW14689  11.863   9.587   6.895 -0.5620  0.1981 -0.1271
 2951SOL    HW114690  11.833   9.546   6.976 -0.9480 -1.8203 -1.2504
 2951SOL    HW214691  11.958   9.573   6.895 -0.3569  1.3855  0.5708
 2952SOL     OW14692   2.887  11.786   9.818 -0.5218  0.2781  0.7998
 2952SOL    HW114693   2.810  11.731   9.833  0.5567 -1.4165  0.4410
 2952SOL    HW214694   2.891  11.797   9.723 -0.4998  0.6058  0.8402
 2953SOL     OW14695   6.331   4.232   6.229  0.2398  0.4266 -0.1127
 2953SOL    HW114696   6.395   4.196   6.290  0.7353 -0.1150 -0.9204
 2953SOL    HW214697   6.278   4.292   6.281  1.5378  1.0521  0.5274
 2954SOL     OW14698   8.221   0.445  12.173 -0.1916 -0.0556 -0.0441
 2954SOL    HW114699   8.207   0.352  12.188 -1.4461  0.2630  0.8821
 2954SOL    HW214700   8.219   0.485  12.260 -2.6022  1.1992 -0.5949
 2955SOL     OW14701   6.049   4.464   0.946  0.2455 -0.2600  0.4272
 2955SOL    HW114702   6.048   4.374   0.977 -0.0026 -0.7865 -1.0425
 2955SOL    HW214703   5.977   4.506   0.992 -0.4243 -1.1400  0.2080
 2956SOL     OW14704   7.990   8.228   5.521  0.8488  0.0929 -0.6621
 2956SOL    HW114705   7.944   8.282   5.456  1.5586  1.2934 -0.2091
 2956SOL    HW214706   8.008   8.146   5.476  0.8046  0.6790 -1.7895
 2957SOL     OW14707   5.454   2.801   5.721  0.0469  0.1346  0.2795
 2957SOL    HW114708   5.376   2.766   5.677 -0.0770  1.2287 -0.4298
 2957SOL    HW214709   5.427   2.888   5.751  1.2891  1.0107 -0.9734
 2958SOL     OW14710   0.732   7.932   8.891  0.6926 -0.1661 -0.3200
 2958SOL    HW114711   0.681   7.894   8.820 -0.3336 -2.4923  1.5250
 2958SOL    HW214712   0.803   7.868   8.906 -0.0199 -0.5506  1.6990
 2959SOL     OW14713   6.653   0.716   1.880 -0.1955  0.3721  0.3317
 2959SOL    HW114714   6.695   0.793   1.840  0.2541  0.7839  1.5495
 2959SOL    HW214715   6.575   0.751   1.922 -1.2147 -0.2214 -1.0106
 2960SOL     OW14716  10.319   0.452   8.486 -0.0708  0.1973 -0.0211
 2960SOL    HW114717  10.280   0.454   8.398 -0.1622 -0.5882  0.0011
 2960SOL    HW214718  10.366   0.535   8.493 -0.5928  0.5475 -0.5740
 2961SOL     OW14719  11.338   8.669   6.422  0.0143  0.1370 -0.1919
 2961SOL    HW114720  11.264   8.682   6.363  1.3098 -0.4208 -1.9955
 2961SOL    HW214721  11.313   8.592   6.474 -1.7033  1.4008  0.9845
 2962SOL     OW14722   5.610  12.121   2.770 -0.1944 -0.3157 -0.3871
 2962SOL    HW114723   5.568  12.171   2.840  1.5548 -0.3061  0.7035
 2962SOL    HW214724   5.697  12.160   2.762  0.5015 -1.9040 -0.8853
 2963SOL     OW14725   6.299   1.833   8.998  0.2100  0.2794  0.0180
 2963SOL    HW114726   6.237   1.761   8.998  0.1335  0.3288  1.1917
 2963SOL    HW214727   6.267   1.892   8.930 -0.3039 -0.3015 -0.2525
 2964SOL     OW14728   9.934   3.068   2.095 -0.5125  0.1107  0.0622
 2964SOL    HW114729   9.973   3.043   2.011  0.7809 -0.4735  0.7941
 2964SOL    HW214730   9.999   3.127   2.134 -1.9979  1.9888 -0.1802
 2965SOL     OW14731   9.311   1.752   4.459 -0.3887  0.0134 -0.1692
 2965SOL    HW114732   9.383   1.813   4.445 -0.3130 -0.5535 -2.6503
 2965SOL    HW214733   9.235   1.797   4.423 -0.8402 -0.3248  0.3495
 2966SOL     OW14734   3.128   3.120   6.413  0.3096  0.4329  0.2271
 2966SOL    HW114735   3.041   3.084   6.397  0.3697  0.4172 -0.0591
 2966SOL    HW214736   3.181   3.091   6.339  1.0059 -1.0121  1.2286
 2967SOL     OW14737   7.057   5.833   3.858  0.2856  0.0506  0.2472
 2967SOL    HW114738   7.105   5.778   3.920 -0.1180  0.3411  0.8269
 2967SOL    HW214739   7.119   5.850   3.787  0.0543 -2.1198 -0.5365
 2968SOL     OW14740   3.737   5.387   7.319 -0.3006 -0.1615  0.3453
 2968SOL    HW114741   3.710   5.420   7.404  0.2844  2.0401 -0.2470
 2968SOL    HW214742   3.833   5.395   7.318 -0.2439 -0.7052 -0.3200
 2969SOL     OW14743   4.701   4.342   3.028 -0.6253 -0.1906  0.6172
 2969SOL    HW114744   4.690   4.248   3.019  1.2893 -0.5067  0.9990
 2969SOL    HW214745   4.625   4.380   2.984  0.0475 -1.8461 -2.2569
 2970SOL     OW14746   7.951   8.650   1.978  0.0077 -0.0117 -0.2168
 2970SOL    HW114747   7.890   8.724   1.973  1.0122  1.0678  2.0292
 2970SOL    HW214748   8.011   8.664   1.905 -0.1342  1.0812 -0.1411
 2971SOL     OW14749   4.002   6.993  11.806 -0.2164 -0.2037  0.2455
 2971SOL    HW114750   4.062   7.066  11.825  1.1147 -1.1443 -0.1631
 2971SOL    HW214751   3.921   7.035  11.780  0.4702  1.1387  0.1602
 2972SOL     OW14752   6.147   7.152  11.417 -0.0506 -0.2052  0.9606
 2972SOL    HW114753   6.116   7.238  11.447  0.9380  0.5358 -0.1032
 2972SOL    HW214754   6.162   7.103  11.498  0.7558  1.1168  1.6488
 2973SOL     OW14755   0.887   8.546   5.851 -0.3603 -0.3665 -0.4471
 2973SOL    HW114756   0.884   8.477   5.918 -0.0734 -0.9524 -1.0251
 2973SOL    HW214757   0.968   8.529   5.804  0.0592  0.7869 -0.1738
 2974SOL     OW14758   5.824   5.581   5.095 -0.7710 -0.0646  0.2619
 2974SOL    HW114759   5.752   5.519   5.099  0.5937 -1.8810 -1.3710
 2974SOL    HW214760   5.845   5.587   5.002  1.8613 -0.4807  0.7568
 2975SOL     OW14761   1.858   3.648  10.958 -0.2780 -0.1860  0.3850
 2975SOL    HW114762   1.790   3.715  10.958 -2.9445 -2.6511 -1.4276
 2975SOL    HW214763   1.895   3.650  11.047 -0.2526  3.4937  0.4177
 2976SOL     OW14764   1.922   0.731  10.015  0.3976  0.2269  0.3917
 2976SOL    HW114765   1.890   0.818  10.041  2.5588  1.1871  0.0046
 2976SOL    HW214766   1.939   0.739   9.921 -0.2035 -0.9079  0.1709
 2977SOL     OW14767   8.485   7.802  12.065 -0.1697  0.8104  0.1559
 2977SOL    HW114768   8.528   7.719  12.086 -0.3087  0.6562 -0.1622
 2977SOL    HW214769   8.553   7.868  12.078  0.0366  0.6124  0.0964
 2978SOL     OW14770   9.965  10.318   7.993  0.8970  0.0891 -0.6880
 2978SOL    HW114771   9.976  10.261   7.917  1.7444 -0.6149 -0.0558
 2978SOL    HW214772   9.875  10.304   8.021  1.1206 -1.0190 -0.4913
 2979SOL     OW14773   1.390   1.980   5.993  0.9572 -0.0108 -0.1828
 2979SOL    HW114774   1.457   1.911   5.988 -0.5005 -1.7512  2.2533
 2979SOL    HW214775   1.428   2.046   6.051  0.7911 -0.7727  0.8193
 2980SOL     OW14776   7.622   1.131   2.837  0.6256 -0.6199 -0.2074
 2980SOL    HW114777   7.619   1.036   2.838 -2.7428 -0.7014 -2.5112
 2980SOL    HW214778   7.668   1.153   2.756  0.5171 -0.3079 -0.1876
 2981SOL     OW14779   7.379   4.725   1.060  0.2634 -0.2507 -0.6164
 2981SOL    HW114780   7.359   4.809   1.019  0.8262 -0.2435 -0.8768
 2981SOL    HW214781   7.309   4.667   1.030 -0.5447  0.2898  0.1300
 2982SOL     OW14782  11.996  10.442   8.701  0.1006 -0.5231  0.2509
 2982SOL    HW114783  11.905  10.420   8.717 -0.5299  1.2932 -0.5877
 2982SOL    HW214784  12.002  10.452   8.606  1.4011 -1.4536  0.2029
 2983SOL     OW14785   9.767   5.134   1.167  0.3527 -0.0215  0.2564
 2983SOL    HW114786   9.719   5.054   1.189 -0.5220  0.3175 -0.3605
 2983SOL    HW214787   9.857   5.105   1.154 -0.0278 -0.9843 -0.3469
 2984SOL     OW14788  10.217   1.554  11.447 -0.0556  0.1734  0.3605
 2984SOL    HW114789  10.127   1.521  11.445  0.1604 -0.4496  0.7738
 2984SOL    HW214790  10.259   1.507  11.519  1.0262 -0.6705 -0.7736
 2985SOL     OW14791   2.573   2.109   3.914 -0.1144 -0.6646 -0.6889
 2985SOL    HW114792   2.595   2.162   3.837  0.3693  0.8202  0.4066
 2985SOL    HW214793   2.631   2.034   3.910  0.7150 -0.0117 -1.1873
 2986SOL     OW14794   7.219   8.528   0.357 -0.0376 -0.0866 -0.4041
 2986SOL    HW114795   7.218   8.597   0.291  1.1275 -0.2933 -0.6481
 2986SOL    HW214796   7.296   8.476   0.337 -1.2823 -1.9388 -0.6914
 2987SOL     OW14797  10.643   2.112   1.667  0.1937 -0.5504 -0.0362
 2987SOL    HW114798  10.692   2.071   1.738  1.1291  0.7120  0.0779
 2987SOL    HW214799  10.617   2.197   1.702  0.5745  0.0502 -1.1647
 2988SOL     OW14800   4.088   7.657   4.712  0.1072  0.5960  1.0981
 2988SOL    HW114801   4.099   7.714   4.788  1.9541  1.2008  0.4448
 2988SOL    HW214802   4.178   7.632   4.688 -0.4548  0.0936 -0.6333
 2989SOL     OW14803  11.646  12.134  10.703  0.1631 -0.1663  0.5221
 2989SOL    HW114804  11.709  12.172  10.641  1.7834  1.0498  2.7743
 2989SOL    HW214805  11.679  12.045  10.718 -0.2076 -0.4479 -0.2931
 2990SOL     OW14806   8.288   0.859   6.852  0.4198 -0.4296  0.3418
 2990SOL    HW114807   8.354   0.918   6.888 -0.8098  0.8010  0.6772
 2990SOL    HW214808   8.264   0.803   6.925  0.5861 -0.4163  0.4076
 2991SOL     OW14809   7.009   1.943   2.461 -0.4125  0.4101 -0.4768
 2991SOL    HW114810   7.046   1.989   2.385  1.4344  1.6801  1.0739
 2991SOL    HW214811   6.915   1.951   2.451 -0.3333 -1.2657 -3.6654
 2992SOL     OW14812   5.237   4.411   9.937  0.2153  0.2066  0.0120
 2992SOL    HW114813   5.254   4.370  10.023 -0.5930  0.2630  0.2074
 2992SOL    HW214814   5.309   4.381   9.882  0.5267 -0.1616  0.6034
 2993SOL     OW14815   7.369   1.317  10.189 -0.3964  0.9768 -0.1640
 2993SOL    HW114816   7.317   1.265  10.250  0.4666  0.5275  0.2010
 2993SOL    HW214817   7.368   1.405  10.226  0.6462  0.5800  0.8635
 2994SOL     OW14818   1.190   1.807  10.258 -0.6949  0.2543  0.0474
 2994SOL    HW114819   1.230   1.889  10.285  0.1073  0.2691 -1.0669
 2994SOL    HW214820   1.229   1.741  10.315  0.9074  0.2837 -0.9628
 2995SOL     OW14821   1.592  11.084   5.320 -0.6714  0.1076 -0.2885
 2995SOL    HW114822   1.504  11.109   5.348  0.7575  2.6522  2.5168
 2995SOL    HW214823   1.648  11.156   5.349  2.5893 -2.1342 -0.4447
 2996SOL     OW14824   4.655   5.026   6.532 -0.3380 -0.6070  0.1522
 2996SOL    HW114825   4.710   5.002   6.607  0.3665  0.7340  0.0876
 2996SOL    HW214826   4.577   5.066   6.571  0.2559  0.5529  0.1688
 2997SOL     OW14827   8.473   2.312  11.015  0.1504  0.2701  0.1390
 2997SOL    HW114828   8.566   2.299  11.029  0.0696  0.0046  0.4391
 2997SOL    HW214829   8.468   2.363  10.934  0.5755  0.7998  0.4441
 2998SOL     OW14830  10.777   5.049   5.405 -0.2956 -0.2609 -0.4091
 2998SOL    HW114831  10.816   5.078   5.487  0.9111 -1.5797 -0.4763
 2998SOL    HW214832  10.820   5.102   5.338  0.0126 -0.4002 -0.3239
 2999SOL     OW14833   3.380   9.824   7.866  0.4783 -0.0019 -0.8171
 2999SOL    HW114834   3.468   9.790   7.846  0.8244  0.3690  0.0168
 2999SOL    HW214835   3.382   9.839   7.961  0.5455  2.8642 -1.1735
 3000SOL     OW14836   3.961   9.400   6.941 -0.2750 -0.4803  0.1506
 3000SOL    HW114837   3.875   9.401   6.983 -0.8047 -0.3250 -0.9064
 3000SOL    HW214838   3.956   9.469   6.875  0.9893  0.1667  0.6872
 3001SOL     OW14839   0.942  12.303   4.994  0.3665  0.0856  0.0293
 3001SOL    HW114840   0.905  12.224   5.035  1.0692  0.4326  1.3976
 3001SOL    HW214841   1.036  12.299   5.016  0.3737  1.4071  0.3161
 3002SOL     OW14842   7.774   1.602   0.702  0.0792  0.7796 -0.2476
 3002SOL    HW114843   7.745   1.583   0.613  0.4708 -1.4851  0.0574
 3002SOL    HW214844   7.797   1.695   0.700  1.6823  0.4250 -2.9755
 3003SOL     OW14845   8.863   3.506  11.670  0.0820  0.4037 -0.3300
 3003SOL    HW114846   8.781   3.544  11.701  0.9960  3.7976 -1.5516
 3003SOL    HW214847   8.931   3.560  11.711  1.6281 -1.0625 -0.8526
 3004SOL     OW14848   4.189  11.482   5.698 -0.0242  0.0718 -0.3752
 3004SOL    HW114849   4.126  11.547   5.729  1.6212  2.1437 -1.1121
 3004SOL    HW214850   4.251  11.473   5.771  0.8490  0.9015 -0.9748
 3005SOL     OW14851   1.864   8.285   4.461 -0.4216 -0.4269  0.4358
 3005SOL    HW114852   1.832   8.312   4.376 -1.1382 -2.3501  0.0483
 3005SOL    HW214853   1.786   8.260   4.510 -0.0133  0.5304  1.6473
 3006SOL     OW14854   9.670   3.456  11.584  0.0062 -0.1906  0.1412
 3006SOL    HW114855   9.751   3.463  11.533 -0.5656 -2.4346 -1.2173
 3006SOL    HW214856   9.632   3.544  11.581  1.9206  0.6822  0.0393
 3007SOL     OW14857   1.200   9.901   3.187  0.6896  0.1725 -1.0317
 3007SOL    HW114858   1.158   9.815   3.178 -0.1399  0.6779 -2.3220
 3007SOL    HW214859   1.141   9.951   3.244  0.5240  0.2708 -1.2858
 3008SOL     OW14860  11.375   1.571   9.429 -0.1124  0.3012  0.1707
 3008SOL    HW114861  11.311   1.601   9.365  0.9388  0.8482 -0.6586
 3008SOL    HW214862  11.388   1.479   9.410  0.0395  0.4129 -0.2803
 3009SOL     OW14863  10.976   5.319  10.240 -0.2369  0.1991  0.5892
 3009SOL    HW114864  11.070   5.314  10.220 -0.7902 -5.2049 -2.7204
 3009SOL    HW214865  10.940   5.371  10.168 -0.0143 -0.6385 -0.1561
 3010SOL     OW14866   6.883   4.500   6.232  0.0342  0.4136  0.4838
 3010SOL    HW114867   6.900   4.548   6.313 -0.4219 -0.8449  1.3559
 3010SOL    HW214868   6.813   4.439   6.255  0.0557 -0.1211 -0.8023
 3011SOL     OW14869   3.424   0.429   1.143 -0.5677 -0.0193 -0.0048
 3011SOL    HW114870   3.399   0.513   1.103  2.2061  1.1867  0.5116
 3011SOL    HW214871   3.470   0.383   1.073  0.8889  0.4208  0.6208
 3012SOL     OW14872   1.824   4.165   0.623 -0.0415 -0.5888  0.0477
 3012SOL    HW114873   1.894   4.206   0.674 -0.7006  1.5095 -0.6211
 3012SOL    HW214874   1.796   4.233   0.562 -1.0828 -2.1602 -1.3065
 3013SOL     OW14875   2.275   1.557   0.549 -0.0467 -0.2515  0.2327
 3013SOL    HW114876   2.186   1.576   0.519 -0.1599 -0.3119  0.5322
 3013SOL    HW214877   2.330   1.617   0.499 -0.3941  0.8502  1.1396
 3014SOL     OW14878   7.584   1.909  10.554 -0.3171 -0.3182 -0.0729
 3014SOL    HW114879   7.522   1.876  10.489  1.1919 -1.2489 -1.1222
 3014SOL    HW214880   7.582   2.004  10.545 -0.1096 -0.4404 -1.5350
 3015SOL     OW14881   5.282   7.215   6.758  0.1783  0.1443  0.1052
 3015SOL    HW114882   5.241   7.214   6.671  0.2605  2.2477 -0.0151
 3015SOL    HW214883   5.269   7.126   6.792  1.0733 -1.0660 -2.4499
 3016SOL     OW14884   2.138   7.120  11.661 -0.4923  0.3981  0.1771
 3016SOL    HW114885   2.126   7.026  11.671 -1.5742  0.6447  1.5678
 3016SOL    HW214886   2.106   7.157  11.743  1.2510  1.8951  0.2537
 3017SOL     OW14887   0.019   2.855   5.916 -0.0795 -0.5940  0.2020
 3017SOL    HW114888   0.084   2.861   5.986 -0.4448 -0.5342  0.5419
 3017SOL    HW214889  -0.028   2.939   5.920 -1.4143 -1.3313  1.2071
 3018SOL     OW14890   4.507   8.297  10.091  0.3333  0.8521  0.2026
 3018SOL    HW114891   4.509   8.205  10.118  0.6078  1.6235  3.2346
 3018SOL    HW214892   4.599   8.323  10.085  0.3002  0.6249 -2.1206
 3019SOL     OW14893   7.856   9.891   4.324  0.2247  0.2148 -0.0491
 3019SOL    HW114894   7.911   9.865   4.398  0.6410  0.4200 -0.2825
 3019SOL    HW214895   7.895   9.973   4.293 -0.8930  0.9862  0.5032
 3020SOL     OW14896   2.300   0.516   0.307 -0.1810  0.0382 -0.0749
 3020SOL    HW114897   2.277   0.590   0.362  0.6790 -0.3048  0.7934
 3020SOL    HW214898   2.378   0.545   0.259  0.4664 -0.4694  0.6549
 3021SOL     OW14899   4.013   6.464   6.575  0.2505 -0.4739 -0.3506
 3021SOL    HW114900   3.933   6.487   6.528  0.5427 -0.4289 -0.8246
 3021SOL    HW214901   4.077   6.446   6.507  1.4695  2.2254 -0.0559
 3022SOL     OW14902   8.893   1.369   1.313  0.1839 -0.3911  0.2368
 3022SOL    HW114903   8.820   1.308   1.301 -0.8759  0.3164  2.5012
 3022SOL    HW214904   8.852   1.455   1.313  1.3919  0.2226 -0.8924
 3023SOL     OW14905   8.316   4.013   5.432  0.2026 -0.0147 -0.0426
 3023SOL    HW114906   8.312   4.003   5.528  2.9731  1.2253  0.2921
 3023SOL    HW214907   8.406   3.991   5.410  0.1815  1.7342 -2.1123
 3024SOL     OW14908   4.611  11.791   3.601  0.4385 -0.0300  0.3691
 3024SOL    HW114909   4.612  11.886   3.592 -0.0315 -0.0547  0.0166
 3024SOL    HW214910   4.693  11.762   3.561  0.9319  0.2732  1.1277
 3025SOL     OW14911   8.415   2.708  10.410  0.3316 -0.1175  0.3684
 3025SOL    HW114912   8.510   2.700  10.417  0.1999 -1.3933  0.8501
 3025SOL    HW214913   8.395   2.787  10.461  1.2308  0.8497 -0.7068
 3026SOL     OW14914   1.182   5.069   8.713  0.1830 -0.5486  0.2829
 3026SOL    HW114915   1.178   5.040   8.804 -0.4918 -0.5562  0.2546
 3026SOL    HW214916   1.240   5.006   8.670  0.4262 -0.6011  0.6848
 3027SOL     OW14917   4.963   4.885   8.084  0.4546  0.2520  0.7885
 3027SOL    HW114918   5.013   4.833   8.020  0.2473  0.6159  0.3282
 3027SOL    HW214919   4.884   4.834   8.100  0.8091 -0.1591  1.2573
 3028SOL     OW14920   1.544   3.829   6.806  0.3438 -0.0302 -0.1741
 3028SOL    HW114921   1.612   3.881   6.849  1.5229 -0.1608 -1.8243
 3028SOL    HW214922   1.569   3.827   6.714  0.8130 -4.1653 -0.1297
 3029SOL     OW14923   1.476   0.740   6.471  0.2684 -0.2869 -0.1887
 3029SOL    HW114924   1.450   0.684   6.544 -0.1559 -0.3999 -0.4253
 3029SOL    HW214925   1.398   0.748   6.417  0.9309 -1.2774 -1.3355
 3030SOL     OW14926  12.058  10.883   5.598 -0.7284  0.3852 -0.5177
 3030SOL    HW114927  12.063  10.788   5.586 -2.2692  0.4697 -2.4795
 3030SOL    HW214928  11.968  10.905   5.572 -0.2285  2.4560 -0.6441
 3031SOL     OW14929   9.773   7.711   2.812  0.4190  0.0886  0.0256
 3031SOL    HW114930   9.859   7.692   2.849  0.5204  0.7502  0.1332
 3031SOL    HW214931   9.739   7.625   2.786  1.0276 -0.1980  0.1593
 3032SOL     OW14932   0.896  12.062   3.935  0.0030 -0.0542 -0.0719
 3032SOL    HW114933   0.976  12.113   3.927 -0.1720  0.2950  0.3622
 3032SOL    HW214934   0.870  12.072   4.027 -0.2987 -0.5217 -0.1027
 3033SOL     OW14935  10.369  12.231  11.571 -0.1140  0.5226 -0.4884
 3033SOL    HW114936  10.449  12.238  11.519  0.3274  1.6244  0.3045
 3033SOL    HW214937  10.330  12.148  11.543  0.7286  0.4991 -1.6839
 3034SOL     OW14938  12.187   7.044   2.837 -0.1347  0.2304 -0.0365
 3034SOL    HW114939  12.145   7.090   2.910  0.9069  0.7947  0.2300
 3034SOL    HW214940  12.166   7.098   2.760 -2.0240 -0.8633 -0.3480
 3035SOL     OW14941   0.102  12.238   8.470 -0.4904  0.1271 -0.2351
 3035SOL    HW114942   0.189  12.278   8.473 -0.2398 -0.4289  0.1280
 3035SOL    HW214943   0.084  12.226   8.377 -0.0091 -0.1224 -0.2970
 3036SOL     OW14944   8.361  12.099   2.229  0.2289  0.3751 -0.4371
 3036SOL    HW114945   8.363  12.052   2.146 -0.2006  1.1012 -0.8707
 3036SOL    HW214946   8.269  12.123   2.241 -0.1827 -1.8469  1.4880
 3037SOL     OW14947   5.843   7.064   6.862 -0.2210  0.0902 -0.4748
 3037SOL    HW114948   5.918   7.030   6.813  0.6074  1.5615 -0.2949
 3037SOL    HW214949   5.867   7.052   6.954 -1.3786 -1.8374 -0.3913
 3038SOL     OW14950  11.525  12.061   6.431 -0.2846 -0.0219 -0.4958
 3038SOL    HW114951  11.524  11.969   6.406 -0.8224 -0.0212 -0.4938
 3038SOL    HW214952  11.433  12.089   6.424 -0.1687  0.4397 -0.2333
 3039SOL     OW14953   1.298  10.988   3.754 -0.3727 -0.0686 -0.0587
 3039SOL    HW114954   1.263  11.001   3.666  2.0153  2.4258 -0.7759
 3039SOL    HW214955   1.382  11.034   3.754  0.9749 -2.1736  2.7688
 3040SOL     OW14956  11.829  11.049  11.368  0.4763  0.2767 -0.4408
 3040SOL    HW114957  11.811  11.125  11.313 -0.9882 -0.1637 -0.6230
 3040SOL    HW214958  11.773  10.980  11.331  0.6542 -0.4578  0.6302
 3041SOL     OW14959   2.709   9.190   3.458  0.2968  0.6122  0.4406
 3041SOL    HW114960   2.706   9.283   3.478  0.8035  0.2741  2.3353
 3041SOL    HW214961   2.798   9.174   3.427  0.6625  0.5513  1.4697
 3042SOL     OW14962   0.805   1.047   4.791  0.0318 -0.3069  0.0135
 3042SOL    HW114963   0.740   1.014   4.729  0.2453  1.5668 -1.3169
 3042SOL    HW214964   0.764   1.124   4.830  1.0944  0.4070 -0.2263
 3043SOL     OW14965   6.667   5.744   0.034  0.2043  0.5820  0.3785
 3043SOL    HW114966   6.641   5.807   0.102 -1.0669 -1.0036  1.4557
 3043SOL    HW214967   6.658   5.659   0.077 -0.2238 -0.4595 -1.6731
 3044SOL     OW14968  11.862   9.875   3.184 -0.6032  0.5557 -0.1271
 3044SOL    HW114969  11.930   9.872   3.252 -1.1278 -1.1152  0.3788
 3044SOL    HW214970  11.895   9.818   3.115 -1.9939 -1.3563  0.6909
 3045SOL     OW14971  10.106   1.548  10.324 -0.2065  0.7196  0.3349
 3045SOL    HW114972  10.143   1.530  10.410  0.6557  1.9786  0.2509
 3045SOL    HW214973  10.143   1.481  10.267 -0.0010  0.4759  0.7548
 3046SOL     OW14974   5.937   8.035   7.987 -0.2281 -0.0217 -0.2837
 3046SOL    HW114975   5.843   8.029   7.971 -0.2528 -0.1805 -0.0839
 3046SOL    HW214976   5.961   8.122   7.956 -0.3772 -0.1124 -0.6573
 3047SOL     OW14977   3.678   0.116   0.188 -0.1102  0.1931 -0.3562
 3047SOL    HW114978   3.640   0.034   0.216 -0.2797  0.8709  1.5186
 3047SOL    HW214979   3.643   0.181   0.249  0.0784  1.6570 -1.7314
 3048SOL     OW14980  11.096   4.294   4.535 -0.1561  0.6184 -0.2431
 3048SOL    HW114981  11.021   4.287   4.476 -0.3007  1.1094 -0.1228
 3048SOL    HW214982  11.062   4.269   4.621  0.3916 -1.5012 -0.6001
 3049SOL     OW14983   9.922   0.761   6.535  0.0978  0.1599 -0.1241
 3049SOL    HW114984   9.976   0.826   6.490  0.6553  0.7521  1.3610
 3049SOL    HW214985   9.850   0.811   6.573 -0.6845 -0.4205 -0.7813
 3050SOL     OW14986   9.065   2.653   5.577 -0.5246 -0.5533  0.3074
 3050SOL    HW114987   9.131   2.701   5.628  0.6053 -1.3445 -0.3617
 3050SOL    HW214988   9.067   2.692   5.490 -0.5277 -0.9521  0.1237
 3051SOL     OW14989   1.502   9.803   4.385 -0.1169  0.8367 -0.3413
 3051SOL    HW114990   1.414   9.834   4.362 -1.1150 -1.6992 -0.2755
 3051SOL    HW214991   1.559   9.842   4.318 -1.0601  3.4270  0.2698
 3052SOL     OW14992   8.258   3.668  12.317 -0.2677 -0.3267  0.0927
 3052SOL    HW114993   8.304   3.644  12.237 -1.0945 -1.3076 -0.1047
 3052SOL    HW214994   8.176   3.707  12.287  0.6310  1.9731  0.4275
 3053SOL     OW14995   3.870   1.148   5.350  0.1404 -0.3055  0.2524
 3053SOL    HW114996   3.829   1.218   5.299  0.1215 -0.6350 -0.1863
 3053SOL    HW214997   3.836   1.161   5.438  0.3679  0.4214  0.2460
 3054SOL     OW14998  10.377   4.436   7.352  0.0195 -0.2618  0.2971
 3054SOL    HW114999  10.298   4.411   7.399  0.2458 -0.9108  0.3415
 3054SOL    HW215000  10.436   4.361   7.362  0.1695 -0.3041 -0.7838
 3055SOL     OW15001   2.943   5.624   9.677 -0.3114  0.1404  0.2649
 3055SOL    HW115002   2.999   5.681   9.624 -1.7082  0.7024 -0.6483
 3055SOL    HW215003   2.855   5.658   9.665 -0.9352 -1.0320  1.2727
 3056SOL     OW15004  12.064   2.213   2.617 -0.7238  0.2412 -0.2251
 3056SOL    HW115005  12.114   2.206   2.698  0.1503  1.5506 -0.6330
 3056SOL    HW215006  12.082   2.131   2.570 -1.7401 -0.8170  1.1425
 3057SOL     OW15007   4.762  11.945   7.746 -0.7333 -0.4984 -0.3133
 3057SOL    HW115008   4.737  11.915   7.834  1.1345  2.4447  1.3956
 3057SOL    HW215009   4.828  11.882   7.718 -0.4151 -0.7940  0.9905
 3058SOL     OW15010   4.251   9.558   3.873 -0.0888 -0.5506 -0.2063
 3058SOL    HW115011   4.312   9.590   3.806  0.3435 -0.9662 -0.0138
 3058SOL    HW215012   4.182   9.514   3.824  0.3678 -1.0930 -0.3713
 3059SOL     OW15013   0.295   2.630  10.439  0.4408 -0.0965 -0.0121
 3059SOL    HW115014   0.286   2.726  10.441 -0.8437 -0.1659 -1.1336
 3059SOL    HW215015   0.222   2.598  10.491  0.9249 -0.4673  0.4352
 3060SOL     OW15016   4.890   1.503   2.396 -0.3117 -0.4276 -0.3578
 3060SOL    HW115017   4.894   1.580   2.340  2.3457 -1.1205 -1.2759
 3060SOL    HW215018   4.979   1.492   2.428 -0.4412 -3.4240 -0.7105
 3061SOL     OW15019   8.171   1.877   2.040 -0.0597 -0.0212 -0.1222
 3061SOL    HW115020   8.166   1.966   2.074  0.4698  0.6636 -1.7547
 3061SOL    HW215021   8.238   1.834   2.094  0.4562  0.8879 -0.0308
 3062SOL     OW15022   5.011   5.917  12.034 -0.2550  0.8971  0.1524
 3062SOL    HW115023   5.023   5.933  11.940  0.3003 -1.6694 -0.3052
 3062SOL    HW215024   4.963   5.993  12.066 -1.1197  1.5008 -2.3608
 3063SOL     OW15025   9.162   6.234   7.546  0.5153  0.3849 -0.2828
 3063SOL    HW115026   9.125   6.183   7.475 -1.2317  2.1245 -0.6931
 3063SOL    HW215027   9.239   6.276   7.508  2.0101 -1.8591  0.0744
 3064SOL     OW15028   2.824   5.074   4.978 -0.2591  0.0125  0.2866
 3064SOL    HW115029   2.781   4.997   4.940 -0.9188  1.1267 -1.3264
 3064SOL    HW215030   2.810   5.143   4.914  1.3104  1.2039  1.1668
 3065SOL     OW15031   8.856  11.511   8.607 -0.3049  0.5551 -0.0085
 3065SOL    HW115032   8.889  11.599   8.590  1.7746  0.4946  2.9076
 3065SOL    HW215033   8.931  11.465   8.644 -2.4023 -1.1296  2.4257
 3066SOL     OW15034   6.798   3.644   6.873  0.5055 -0.0393  0.1391
 3066SOL    HW115035   6.883   3.676   6.905 -0.1109  1.3752  0.4282
 3066SOL    HW215036   6.735   3.706   6.907 -0.5458 -0.4165 -1.0513
 3067SOL     OW15037  11.890  11.068   9.086 -0.8997 -0.1880 -0.1826
 3067SOL    HW115038  11.910  10.995   9.145  0.0827 -0.3801 -0.7320
 3067SOL    HW215039  11.807  11.102   9.118  0.5252  0.9798  2.5831
 3068SOL     OW15040   0.187   9.541   6.867  0.1540 -0.0315  0.0992
 3068SOL    HW115041   0.162   9.623   6.824  1.7476  0.1380 -0.5674
 3068SOL    HW215042   0.221   9.486   6.796  0.3826 -0.7503  0.7504
 3069SOL     OW15043   5.484   8.783   1.449  0.3009 -0.0452  0.0520
 3069SOL    HW115044   5.417   8.717   1.463 -0.5168  0.6776 -0.3404
 3069SOL    HW215045   5.517   8.803   1.536  0.3247 -0.7340  0.2016
 3070SOL     OW15046   2.466   3.028   8.553 -0.3407  0.5995  0.2515
 3070SOL    HW115047   2.551   3.040   8.511 -1.3146  1.5376 -1.5970
 3070SOL    HW215048   2.403   3.033   8.481 -1.9371 -0.5704  1.5013
 3071SOL     OW15049   6.780   8.499   8.203  0.0189 -0.0216 -0.3874
 3071SOL    HW115050   6.787   8.578   8.150 -3.1683  0.6109 -0.0781
 3071SOL    HW215051   6.780   8.427   8.139 -1.1779  0.5514 -1.0611
 3072SOL     OW15052   1.074   3.328   2.688  0.0642  0.4120  0.1163
 3072SOL    HW115053   1.059   3.350   2.780 -0.3930  0.3452  0.0607
 3072SOL    HW215054   1.027   3.246   2.675 -0.6374  0.8762 -0.4018
 3073SOL     OW15055   2.337   5.435  11.933  0.1231 -0.1402 -0.5052
 3073SOL    HW115056   2.312   5.378  12.007 -0.7391  0.2204 -0.5007
 3073SOL    HW215057   2.287   5.400  11.859 -0.1737  0.4126 -0.5722
 3074SOL     OW15058   8.839   5.315   2.380  0.2914 -0.2633 -0.6156
 3074SOL    HW115059   8.774   5.263   2.331  1.5980 -0.4332 -2.2529
 3074SOL    HW215060   8.809   5.405   2.371 -0.4299 -0.4512 -0.2075
 3075SOL     OW15061   9.529  11.322   0.822 -0.0511 -0.2573 -0.2360
 3075SOL    HW115062   9.505  11.408   0.787  1.0075 -0.4808 -1.5721
 3075SOL    HW215063   9.478  11.260   0.771 -1.1845 -0.4492  1.0528
 3076SOL     OW15064   3.978   6.718   6.445 -0.3360 -0.2490 -0.0561
 3076SOL    HW115065   3.889   6.689   6.427  0.0049 -1.6873  0.4014
 3076SOL    HW215066   4.029   6.685   6.371 -0.1745  0.5716 -0.3217
 3077SOL     OW15067   2.127   8.857  11.153  0.1443  0.2564 -0.1953
 3077SOL    HW115068   2.107   8.905  11.234  0.4008  0.3666 -0.1973
 3077SOL    HW215069   2.063   8.890  11.090  1.0509  1.4691 -0.5234
 3078SOL     OW15070   3.649   9.215   1.329 -0.4573  0.4949  0.6906
 3078SOL    HW115071   3.580   9.157   1.362  0.0451 -0.0478  0.7923
 3078SOL    HW215072   3.731   9.169   1.348 -0.1211  0.4895 -0.6735
 3079SOL     OW15073   8.198   1.397   9.244 -0.1689  0.4161 -0.0746
 3079SOL    HW115074   8.109   1.384   9.276  0.5179  1.5122  2.5735
 3079SOL    HW215075   8.189   1.409   9.150 -2.5948 -1.2083 -0.1287
 3080SOL     OW15076  11.304   2.065   5.129  0.1901  0.5712 -0.2153
 3080SOL    HW115077  11.240   2.126   5.092 -1.7750 -0.9949  0.4004
 3080SOL    HW215078  11.330   2.105   5.212 -2.0674  0.0680  0.8147
 3081SOL     OW15079   9.438   2.448  11.214 -0.1040 -0.0277 -0.4700
 3081SOL    HW115080   9.350   2.433  11.249 -0.7735  0.5392 -1.8198
 3081SOL    HW215081   9.453   2.374  11.155  0.8892 -0.8243  0.7454
 3082SOL     OW15082   1.375   9.694   0.869 -0.1314 -0.2470  0.0310
 3082SOL    HW115083   1.350   9.680   0.778 -0.1237  2.4896 -0.4897
 3082SOL    HW215084   1.470   9.684   0.869  0.2055  2.2010 -0.9069
 3083SOL     OW15085   6.211   9.081   5.399 -0.2571 -1.1130 -0.7707
 3083SOL    HW115086   6.224   9.147   5.330  0.7948 -0.0305  0.4035
 3083SOL    HW215087   6.278   9.015   5.381  2.6025  0.9854  1.2111
 3084SOL     OW15088   9.928  10.418   5.007 -0.1074 -0.6827  0.0094
 3084SOL    HW115089   9.892  10.441   4.921  1.5947  0.6120 -0.4154
 3084SOL    HW215090  10.021  10.442   5.001 -0.2620  0.9963  2.7246
 3085SOL     OW15091   0.806  11.889   9.569  0.1115  0.3539 -0.2745
 3085SOL    HW115092   0.856  11.947   9.627 -1.4851  2.2884 -0.7201
 3085SOL    HW215093   0.872  11.847   9.514  1.3851  1.2819  0.4856
 3086SOL     OW15094   7.764   2.813  10.735  0.3986 -0.3289 -0.9260
 3086SOL    HW115095   7.689   2.872  10.728  0.0104 -0.8960 -1.7877
 3086SOL    HW215096   7.744   2.757  10.810  1.1723  1.1567  0.4414
 3087SOL     OW15097   1.136  12.296  11.393 -0.1055 -0.1577 -0.7753
 3087SOL    HW115098   1.043  12.299  11.368  0.2957  0.2807 -2.2604
 3087SOL    HW215099   1.175  12.372  11.351  0.4340  1.2903  2.1144
 3088SOL     OW15100  11.849   4.859   7.848 -0.1565 -0.1270  0.1221
 3088SOL    HW115101  11.780   4.794   7.840 -0.1107 -0.1500 -0.1044
 3088SOL    HW215102  11.897   4.853   7.765 -0.1174  0.1556  0.1244
 3089SOL     OW15103   5.143  10.142   6.276  0.0912 -0.4834  0.0067
 3089SOL    HW115104   5.091  10.217   6.304 -3.2370 -1.3954 -3.0479
 3089SOL    HW215105   5.111  10.069   6.329  0.4718 -0.5054  0.2109
 3090SOL     OW15106   2.492   1.888   4.172  0.1379  0.1305  0.3832
 3090SOL    HW115107   2.534   1.955   4.225  0.3333  0.8379 -0.6516
 3090SOL    HW215108   2.563   1.843   4.128  0.0088 -0.7759  1.0509
 3091SOL     OW15109  11.354   6.862   0.869 -0.4573 -0.2210 -0.1488
 3091SOL    HW115110  11.321   6.774   0.889  2.0581 -1.2993 -0.3342
 3091SOL    HW215111  11.420   6.847   0.801  0.3748  1.7484  0.1626
 3092SOL     OW15112   5.486   8.176   8.153  0.4226  0.0129 -0.5586
 3092SOL    HW115113   5.554   8.197   8.217 -0.1465 -0.3523  0.1802
 3092SOL    HW215114   5.481   8.254   8.097  1.7189 -0.1141 -0.8865
 3093SOL     OW15115   3.738   3.141   9.544  0.3466  0.5452 -0.5477
 3093SOL    HW115116   3.659   3.154   9.491  0.9031  1.5615 -1.1657
 3093SOL    HW215117   3.793   3.084   9.490 -0.2080 -0.6815  0.1568
 3094SOL     OW15118   3.765   5.065   6.713  0.3193 -0.0732 -0.2371
 3094SOL    HW115119   3.769   5.031   6.623  1.1176  0.8261 -0.5636
 3094SOL    HW215120   3.829   5.136   6.714  1.3930 -0.9999  1.4636
 3095SOL     OW15121   1.858   4.547   7.879  0.2196 -0.0901 -0.1041
 3095SOL    HW115122   1.881   4.464   7.836  0.3513 -1.5465  2.5644
 3095SOL    HW215123   1.771   4.531   7.916  0.4201  0.8399  0.8023
 3096SOL     OW15124   7.565   5.129  11.777 -0.3971  0.4838  0.2479
 3096SOL    HW115125   7.647   5.158  11.815 -0.6890  0.9950  0.5010
 3096SOL    HW215126   7.508   5.111  11.852 -0.2209 -0.7508  0.0941
 3097SOL     OW15127   7.600   8.100  10.662 -0.7003  0.4610  0.4845
 3097SOL    HW115128   7.520   8.137  10.624 -0.2560  0.3647 -0.5858
 3097SOL    HW215129   7.605   8.012  10.625  0.0281  0.5576  0.3436
 3098SOL     OW15130   5.181   6.687   0.068 -0.0922  0.2676  0.3821
 3098SOL    HW115131   5.134   6.604   0.069 -1.4148  0.9437 -0.7592
 3098SOL    HW215132   5.180   6.714  -0.024  2.6972  0.2766  0.2947
 3099SOL     OW15133   6.742  11.004   5.921  0.5789  0.1695 -0.4066
 3099SOL    HW115134   6.745  11.071   5.853 -0.8080  1.8094  1.0659
 3099SOL    HW215135   6.788  10.929   5.883 -0.4958  0.8556 -3.3077
 3100SOL     OW15136   5.507   9.965   0.832  0.0023 -0.0545  0.5602
 3100SOL    HW115137   5.419   9.946   0.866 -0.8655  1.0711 -0.9250
 3100SOL    HW215138   5.497  10.049   0.786  1.8912  0.1351  0.4243
 3101SOL     OW15139  11.110   9.664   2.116 -0.2616 -0.0336 -0.3932
 3101SOL    HW115140  11.049   9.736   2.130  0.4199  0.2149  1.6570
 3101SOL    HW215141  11.055   9.586   2.111 -0.7848  0.1775  1.4781
 3102SOL     OW15142   0.826   0.364   8.772 -0.0587 -0.3053  0.2578
 3102SOL    HW115143   0.829   0.276   8.809  1.3630  0.0633  1.0987
 3102SOL    HW215144   0.741   0.398   8.798  0.8066 -0.1104  3.2142
 3103SOL     OW15145   4.823   4.004   1.980  0.6837  0.0120 -0.1051
 3103SOL    HW115146   4.775   4.015   2.062 -1.1011  0.1254 -1.1105
 3103SOL    HW215147   4.811   4.087   1.933  0.5750 -0.5012 -1.0172
 3104SOL     OW15148   6.927   0.203   3.001  0.2411  0.2444  1.4055
 3104SOL    HW115149   6.891   0.289   2.983  0.0970  0.0370  0.6991
 3104SOL    HW215150   6.901   0.185   3.091 -0.5555  0.5260  1.2363
 3105SOL     OW15151   0.477   6.111  10.178 -0.5685  0.1385  0.4607
 3105SOL    HW115152   0.569   6.125  10.155 -0.9075  0.8505 -0.5249
 3105SOL    HW215153   0.459   6.022  10.147 -1.1022  1.1873 -2.4933
 3106SOL     OW15154   5.551   4.498   2.005 -0.2760  0.0052  0.2433
 3106SOL    HW115155   5.589   4.411   2.015 -0.0218  0.1759  0.8035
 3106SOL    HW215156   5.544   4.510   1.910  0.8956 -0.1162  0.1294
 3107SOL     OW15157   9.931   2.671   9.622  0.2165 -0.8556 -0.1142
 3107SOL    HW115158   9.950   2.588   9.578  1.8410 -0.0885 -0.9630
 3107SOL    HW215159   9.941   2.737   9.553 -0.8685  0.0684  0.5893
 3108SOL     OW15160  11.418   6.062  11.412 -0.3373 -0.2792 -0.6081
 3108SOL    HW115161  11.434   5.969  11.393  0.0378 -0.0948 -1.1818
 3108SOL    HW215162  11.334   6.062  11.459 -0.6939 -0.8442 -1.2319
 3109SOL     OW15163   0.648   4.055   8.981 -0.2486 -0.1205  0.1580
 3109SOL    HW115164   0.614   4.143   8.969 -0.0222  0.0684  0.8290
 3109SOL    HW215165   0.643   4.041   9.076  4.0408  0.9526  0.7227
 3110SOL     OW15166  11.809   8.144   0.724 -0.3575 -0.0833  0.1699
 3110SOL    HW115167  11.798   8.051   0.703  1.5006 -0.2502 -0.1671
 3110SOL    HW215168  11.902   8.155   0.739 -0.8619  1.1458  3.1805
 3111SOL     OW15169   5.258   6.350   0.021 -0.1527 -0.4118  0.2874
 3111SOL    HW115170   5.211   6.413  -0.034 -0.0470 -0.4635  0.1350
 3111SOL    HW215171   5.348   6.351  -0.014 -0.1252 -0.5682  0.3528
 3112SOL     OW15172   9.492   6.113   0.526 -0.3061 -0.2788  0.4319
 3112SOL    HW115173   9.424   6.156   0.579  0.4949 -1.8771  2.9162
 3112SOL    HW215174   9.572   6.159   0.549 -0.1901  0.2465 -0.9210
 3113SOL     OW15175   8.838   8.111   2.347 -0.2494  0.3828 -0.3351
 3113SOL    HW115176   8.795   8.197   2.350  0.2158  0.6304 -0.7214
 3113SOL    HW215177   8.930   8.131   2.330 -0.0371 -0.1638  0.1368
 3114SOL     OW15178   8.143   8.485   9.353  0.3042 -0.6071 -0.3435
 3114SOL    HW115179   8.052   8.506   9.372  0.3636  0.0274 -0.7403
 3114SOL    HW215180   8.169   8.547   9.285  0.7531 -1.4113 -0.9279
 3115SOL     OW15181   6.763   5.454   4.882  0.1893  0.5614  0.0337
 3115SOL    HW115182   6.702   5.427   4.950  2.2249 -1.1497  1.3287
 3115SOL    HW215183   6.761   5.550   4.884 -2.2001  0.5754  0.1556
 3116SOL     OW15184   5.831   0.788   2.705 -0.3223  0.2539 -0.2333
 3116SOL    HW115185   5.925   0.789   2.728 -0.0179 -0.2045 -1.4100
 3116SOL    HW215186   5.795   0.865   2.750  0.2228 -0.5999  1.7999
 3117SOL     OW15187   3.510   6.051   8.822  0.3240  0.2987  0.3079
 3117SOL    HW115188   3.507   5.983   8.754 -0.0653  0.7464 -0.1336
 3117SOL    HW215189   3.602   6.072   8.831  0.4017  0.0666  0.0903
 3118SOL     OW15190  10.209   4.577   3.459  0.0250  0.3028  0.3544
 3118SOL    HW115191  10.155   4.528   3.397 -1.7364  3.2845 -0.6592
 3118SOL    HW215192  10.213   4.520   3.536  1.6169 -3.1920 -2.0400
 3119SOL     OW15193   3.034   2.142   6.062 -0.0213  0.2170  0.4840
 3119SOL    HW115194   3.013   2.219   6.009 -0.8695  0.1571  0.7234
 3119SOL    HW215195   3.129   2.147   6.075  0.4416 -0.3935 -2.0349
 3120SOL     OW15196  10.058   8.598   9.478  0.9190 -0.0358 -0.2095
 3120SOL    HW115197  10.060   8.608   9.573  0.0935  1.5181 -0.3273
 3120SOL    HW215198  10.127   8.657   9.446  0.0031  0.8426 -0.6364
 3121SOL     OW15199   9.693  11.817  11.466  0.3831 -0.4964  0.1976
 3121SOL    HW115200   9.673  11.907  11.492  2.3436 -0.6809  2.6904
 3121SOL    HW215201   9.770  11.825  11.410 -0.5696 -0.5329 -1.1641
 3122SOL     OW15202  11.605   2.895   0.940 -0.1075  0.4944  0.1197
 3122SOL    HW115203  11.699   2.881   0.954  0.2671 -0.3018 -2.5409
 3122SOL    HW215204  11.579   2.825   0.879 -2.3422  0.9653  0.4404
 3123SOL     OW15205   8.511   6.964   3.875  0.4570  0.1499 -0.8041
 3123SOL    HW115206   8.603   6.988   3.860  0.7263 -0.9982 -1.1121
 3123SOL    HW215207   8.477   7.032   3.933  1.5100  0.5777 -0.6728
 3124SOL     OW15208   2.432   9.910   5.241 -0.7075  0.0896  0.1524
 3124SOL    HW115209   2.356   9.856   5.260 -0.6224  0.3582  1.3703
 3124SOL    HW215210   2.487   9.902   5.319  0.5729 -0.1847 -0.7400
 3125SOL     OW15211   1.517   8.385   3.875 -0.0678 -0.2938 -0.0719
 3125SOL    HW115212   1.598   8.333   3.875 -0.8318 -1.5557  1.0599
 3125SOL    HW215213   1.486   8.381   3.785  0.4475 -0.9114 -0.2337
 3126SOL     OW15214   3.184   0.958   5.832 -0.8918 -0.3641 -0.2261
 3126SOL    HW115215   3.114   1.014   5.865 -1.1233 -1.3997  1.1130
 3126SOL    HW215216   3.251   0.959   5.901 -0.7153 -1.3812 -0.3660
 3127SOL     OW15217   7.313   4.655  12.128 -0.1657 -0.0520  0.1801
 3127SOL    HW115218   7.318   4.601  12.207 -1.2753  0.8324  0.8699
 3127SOL    HW215219   7.220   4.656  12.105  0.1849 -0.6618 -1.4198
 3128SOL     OW15220   6.391   5.954  10.247 -0.1451  0.1070  0.1579
 3128SOL    HW115221   6.306   5.923  10.214 -0.7233  1.8190 -0.0597
 3128SOL    HW215222   6.374   5.978  10.338  0.4447 -0.7552  0.5064
 3129SOL     OW15223   1.299   5.094   0.669  0.3687  0.3347  0.3742
 3129SOL    HW115224   1.330   5.038   0.741  1.1013  2.3859  1.7513
 3129SOL    HW215225   1.228   5.145   0.708 -0.2972  0.3640 -0.8449
 3130SOL     OW15226   5.881   8.985   6.910 -0.3195 -0.0363  0.4044
 3130SOL    HW115227   5.972   8.978   6.940 -0.5220  0.5827  1.2064
 3130SOL    HW215228   5.879   8.937   6.827  0.3768 -1.4431  1.1623
 3131SOL     OW15229   2.854   3.851   2.312  0.4921 -0.1069  0.1040
 3131SOL    HW115230   2.892   3.831   2.227  1.7117 -0.2055  0.6474
 3131SOL    HW215231   2.842   3.946   2.312 -0.4201 -0.2036 -0.5156
 3132SOL     OW15232   0.980   5.822  11.181 -0.3321  0.4994 -0.1303
 3132SOL    HW115233   0.898   5.835  11.135 -1.0340  1.6559  1.3701
 3132SOL    HW215234   1.034   5.772  11.120 -3.0250 -2.6653 -0.2024
 3133SOL     OW15235   5.324   5.459   4.937  0.1355  0.1307 -0.2888
 3133SOL    HW115236   5.336   5.486   4.846  0.6236 -0.2742 -0.3501
 3133SOL    HW215237   5.341   5.365   4.936 -0.5568 -0.0003  0.0969
 3134SOL     OW15238   0.548   3.214   8.719 -0.0620  0.1387  0.2209
 3134SOL    HW115239   0.472   3.271   8.731  0.5177  1.1440 -0.6871
 3134SOL    HW215240   0.548   3.194   8.625  1.5349  1.2743 -0.0580
 3135SOL     OW15241   6.448   9.994  11.157 -0.1912  0.0953  0.0480
 3135SOL    HW115242   6.483  10.053  11.091  0.9215 -0.1882  0.3667
 3135SOL    HW215243   6.378   9.946  11.112  1.5803 -1.2435 -1.4195
 3136SOL     OW15244   5.933   1.591   4.777  0.1851 -0.2280 -0.3788
 3136SOL    HW115245   5.927   1.653   4.704  0.8262 -0.8185 -0.9445
 3136SOL    HW215246   5.844   1.587   4.812  0.2239  1.3806 -0.0082
 3137SOL     OW15247   4.998   2.803   1.631 -0.1526 -0.3703  0.2778
 3137SOL    HW115248   4.929   2.738   1.624 -1.3395  0.8877 -0.1788
 3137SOL    HW215249   4.957   2.878   1.674  0.3283  1.1408 -1.6953
 3138SOL     OW15250   9.769   3.910  11.183 -0.0148 -0.3002  0.3542
 3138SOL    HW115251   9.806   3.843  11.239 -0.8777  0.1477  1.5134
 3138SOL    HW215252   9.681   3.925  11.218 -1.3758 -1.3461 -2.2761
 3139SOL     OW15253   8.011   8.880   2.251 -0.0499 -0.5015  0.3710
 3139SOL    HW115254   8.032   8.833   2.331 -0.6985 -0.9800  0.2711
 3139SOL    HW215255   8.059   8.963   2.258  0.2635 -0.7342  1.0342
 3140SOL     OW15256   6.050   5.889   8.410  0.0718 -0.5831 -0.6661
 3140SOL    HW115257   6.087   5.818   8.463 -0.2910  0.3973  0.9610
 3140SOL    HW215258   6.004   5.944   8.473 -1.2099  0.1150 -2.1592
 3141SOL     OW15259   0.309   7.266  10.277 -0.0698  0.1938  0.3803
 3141SOL    HW115260   0.346   7.329  10.214  0.1675 -0.4235 -0.1067
 3141SOL    HW215261   0.246   7.317  10.328 -0.8562  0.5265 -0.8881
 3142SOL     OW15262   2.343   0.491   7.746 -0.0545  0.5954 -0.1273
 3142SOL    HW115263   2.343   0.418   7.809  0.0147  0.4510 -0.2934
 3142SOL    HW215264   2.414   0.470   7.685 -1.7772 -0.6125 -1.8289
 3143SOL     OW15265   3.503   2.385  12.113  0.1463  0.1411  0.3097
 3143SOL    HW115266   3.521   2.381  12.019  1.5468  1.6373  0.4692
 3143SOL    HW215267   3.407   2.385  12.119  0.0380 -0.2222 -1.0950
 3144SOL     OW15268   8.310   3.246   3.620  0.0464 -0.4097 -0.4967
 3144SOL    HW115269   8.238   3.234   3.682  0.5068  1.1066  0.3691
 3144SOL    HW215270   8.383   3.276   3.673  0.8458 -0.3212 -1.6019
 3145SOL     OW15271  11.142   3.802  10.361  0.3343  0.2292  0.0444
 3145SOL    HW115272  11.124   3.819  10.268  0.2929  2.1755  0.3735
 3145SOL    HW215273  11.056   3.783  10.399  0.5174 -1.9847 -0.5436
 3146SOL     OW15274   4.969   3.179   6.299  0.6362  0.2258  0.6443
 3146SOL    HW115275   4.903   3.185   6.368  0.0560  1.1029  0.0337
 3146SOL    HW215276   5.002   3.090   6.305  0.2060  0.1264  1.7039
 3147SOL     OW15277   5.615   3.924   1.848  0.2727 -0.4547  0.0845
 3147SOL    HW115278   5.630   4.002   1.793  0.7138 -1.3180 -1.0651
 3147SOL    HW215279   5.692   3.870   1.834 -0.9980 -2.1134 -0.9175
 3148SOL     OW15280   3.190   3.367   9.500 -0.2583 -0.3789  0.6863
 3148SOL    HW115281   3.237   3.450   9.506 -3.0717  1.3856  0.2943
 3148SOL    HW215282   3.228   3.313   9.570  2.8565  0.4840 -0.1652
 3149SOL     OW15283   2.265   6.671   0.019 -0.1148  0.0266 -0.5729
 3149SOL    HW115284   2.332   6.608  -0.007 -0.2704 -0.0207 -0.8716
 3149SOL    HW215285   2.210   6.681  -0.059  1.7756  3.0014 -1.7063
 3150SOL     OW15286   1.651  10.037   9.939  0.0788  0.4875  0.3360
 3150SOL    HW115287   1.576   9.986   9.910  0.5616 -1.6546  2.5305
 3150SOL    HW215288   1.613  10.116   9.977 -0.9689  0.1951 -0.0670
 3151SOL     OW15289   5.984   2.350   1.162 -0.0882 -0.1561  0.3500
 3151SOL    HW115290   5.980   2.396   1.246 -0.0678  0.6522 -0.0793
 3151SOL    HW215291   6.077   2.328   1.152 -0.0844 -0.2227  0.5186
 3152SOL     OW15292   4.481   9.129   0.315  0.2631 -0.1182  0.2929
 3152SOL    HW115293   4.546   9.062   0.295  1.0580  0.9052 -0.7070
 3152SOL    HW215294   4.483   9.187   0.239 -0.6535  0.8429  0.9760
 3153SOL     OW15295   5.067   0.566   9.028  0.0952  0.1707 -0.2125
 3153SOL    HW115296   5.067   0.479   8.989 -1.3573  0.8185 -1.7891
 3153SOL    HW215297   4.980   0.576   9.066  0.2360  0.9231 -0.0652
 3154SOL     OW15298   1.154  11.822   9.755  0.3140 -0.1041 -0.1626
 3154SOL    HW115299   1.068  11.784   9.774  1.5568 -4.0333 -1.4811
 3154SOL    HW215300   1.206  11.802   9.833  0.1968  2.1951  0.5965
 3155SOL     OW15301   9.966   8.075   5.490  0.2149  0.3819 -0.0623
 3155SOL    HW115302   9.995   8.110   5.574 -2.3642 -0.9444  1.5219
 3155SOL    HW215303   9.874   8.102   5.484  0.6734  1.7070 -3.2380
 3156SOL     OW15304   8.589   3.694   5.127  0.3096 -0.8138  0.5490
 3156SOL    HW115305   8.647   3.755   5.082  0.0465  0.4375  1.8504
 3156SOL    HW215306   8.622   3.607   5.102  1.4057 -0.1495 -0.4061
 3157SOL     OW15307   6.299   3.059   0.117 -0.0309  0.3366  0.1322
 3157SOL    HW115308   6.322   2.966   0.126  0.5437  0.5940  1.5362
 3157SOL    HW215309   6.228   3.059   0.053 -0.1201 -1.0812  0.1800
 3158SOL     OW15310   1.633   7.224   0.505 -0.5569  0.5191 -0.6325
 3158SOL    HW115311   1.682   7.164   0.449 -0.1715  0.3309 -0.1015
 3158SOL    HW215312   1.553   7.243   0.456 -3.0988 -4.1784  1.0981
 3159SOL     OW15313   6.140  12.038   8.987 -0.0981  0.4462 -0.6892
 3159SOL    HW115314   6.066  12.050   8.927  0.2267  2.6972 -0.7465
 3159SOL    HW215315   6.107  11.982   9.056 -1.5911  0.6904 -1.1745
 3160SOL     OW15316   8.546   3.566   8.750 -0.2280  0.5792  0.6602
 3160SOL    HW115317   8.510   3.620   8.679  0.0339  1.0442  0.8755
 3160SOL    HW215318   8.636   3.597   8.759  0.3827 -0.8615 -0.1642
 3161SOL     OW15319  12.324   9.321   5.267  1.1881  0.9514  0.0019
 3161SOL    HW115320  12.419   9.315   5.280  0.9978 -1.5868  0.7791
 3161SOL    HW215321  12.292   9.232   5.283 -1.4011  1.8422  0.2325
 3162SOL     OW15322  12.117   9.838   3.882  0.8962  0.2537  0.3495
 3162SOL    HW115323  12.035   9.836   3.932 -0.4477 -1.5854 -1.7738
 3162SOL    HW215324  12.175   9.776   3.927  1.0906  1.3740  1.7104
 3163SOL     OW15325   5.460   8.699   6.148  0.1496  0.3170 -0.0758
 3163SOL    HW115326   5.509   8.769   6.192  0.7749  1.0268 -1.7995
 3163SOL    HW215327   5.428   8.644   6.219  1.7814  0.9416  1.2224
 3164SOL     OW15328  10.743   9.229   2.987 -0.9118 -0.4283  0.2489
 3164SOL    HW115329  10.668   9.250   2.932 -0.0348  0.2004 -0.7614
 3164SOL    HW215330  10.773   9.314   3.019  0.2657 -0.4803 -0.6125
 3165SOL     OW15331   0.661  10.842   0.249 -0.1141 -0.2425 -0.0387
 3165SOL    HW115332   0.694  10.913   0.194 -3.0947  0.8469 -0.6095
 3165SOL    HW215333   0.594  10.800   0.195 -0.3252 -1.7353  1.3266
 3166SOL     OW15334   6.222   0.453   4.910 -0.3327  0.1597  0.0783
 3166SOL    HW115335   6.243   0.418   4.823 -0.0435  0.4170  0.0432
 3166SOL    HW215336   6.131   0.427   4.925 -0.6270  0.7395 -0.6162
 3167SOL     OW15337  10.944   0.492   1.234 -0.0389  0.5725  0.2543
 3167SOL    HW115338  10.927   0.493   1.139  0.1541  0.9510  0.2225
 3167SOL    HW215339  11.037   0.511   1.242  1.0408 -3.6054  0.3064
 3168SOL     OW15340   3.167   8.401  10.933 -0.2249 -0.0335 -0.0551
 3168SOL    HW115341   3.192   8.475  10.989 -0.3366  1.0921 -1.4303
 3168SOL    HW215342   3.146   8.441  10.849  2.6109 -1.8760 -1.8045
 3169SOL     OW15343   0.668   6.584   7.506 -0.3763 -0.2130 -0.2172
 3169SOL    HW115344   0.752   6.617   7.473 -0.7020  0.9743  0.1073
 3169SOL    HW215345   0.686   6.558   7.596 -0.1964 -0.6342 -0.3709
 3170SOL     OW15346   8.385   2.169   9.152  0.1502 -0.6070 -0.5091
 3170SOL    HW115347   8.388   2.172   9.056  1.0709  2.0421 -0.5015
 3170SOL    HW215348   8.451   2.105   9.176  2.0646  0.7910 -1.7011
 3171SOL     OW15349   4.517   4.536   1.938 -0.2372 -0.0923 -0.4727
 3171SOL    HW115350   4.530   4.605   1.873  1.4813 -0.1158 -0.2054
 3171SOL    HW215351   4.590   4.548   2.000 -0.7785 -1.2155  0.4120
 3172SOL     OW15352   4.138   8.039   7.138 -0.1875  0.9193  0.5010
 3172SOL    HW115353   4.184   8.121   7.121  0.7406  0.6551  1.5764
 3172SOL    HW215354   4.173   8.009   7.222  0.4152 -1.2071 -0.4505
 3173SOL     OW15355   1.644   4.759   6.901 -0.5785  0.1197 -0.2891
 3173SOL    HW115356   1.655   4.750   6.995  0.0681  1.4781 -0.2131
 3173SOL    HW215357   1.732   4.777   6.868 -0.9607  0.7796 -0.9935
 3174SOL     OW15358   6.725   1.765   8.171 -0.4212 -0.5099  0.3308
 3174SOL    HW115359   6.801   1.744   8.117 -1.2564 -3.3177  0.0426
 3174SOL    HW215360   6.745   1.727   8.257  0.3419  2.7803  1.7733
 3175SOL     OW15361  11.599   5.934   6.567  0.1725 -0.8633 -0.2360
 3175SOL    HW115362  11.683   5.979   6.556 -0.8929  1.2336 -0.2715
 3175SOL    HW215363  11.555   5.944   6.482 -1.5699  1.3328  0.8267
 3176SOL     OW15364   9.889   4.752   1.223 -0.3701  0.5519 -0.1183
 3176SOL    HW115365   9.946   4.808   1.275 -0.9156 -0.7227  1.9644
 3176SOL    HW215366   9.924   4.664   1.236 -0.6338  0.1679 -1.8168
 3177SOL     OW15367   3.669  10.501   0.231 -0.0421  0.0130 -0.1974
 3177SOL    HW115368   3.662  10.521   0.137  1.4752  1.8904  0.0300
 3177SOL    HW215369   3.657  10.406   0.236  0.1362 -0.1799 -2.3165
 3178SOL     OW15370   3.136   8.566   8.721 -0.1220 -0.4361  0.0275
 3178SOL    HW115371   3.174   8.586   8.807  1.4782  0.4353 -0.8190
 3178SOL    HW215372   3.131   8.471   8.718  0.5702 -0.5088  0.8002
 3179SOL     OW15373   8.164   1.013   4.953  0.4100  0.6470 -0.3328
 3179SOL    HW115374   8.145   1.102   4.922 -0.2267  0.7995  0.4498
 3179SOL    HW215375   8.211   0.972   4.881  1.1874  1.7899 -0.5134
 3180SOL     OW15376   1.442   1.351   9.348  0.5050  0.4731 -0.6156
 3180SOL    HW115377   1.394   1.315   9.274  0.0056  1.0706 -0.5908
 3180SOL    HW215378   1.517   1.292   9.359 -0.5778 -0.8690 -0.2080
 3181SOL     OW15379   3.387  10.040   4.466 -0.1725 -0.0069 -0.3686
 3181SOL    HW115380   3.449   9.992   4.411 -0.1637  0.0658 -0.4219
 3181SOL    HW215381   3.377   9.985   4.543  0.1358  0.0944 -0.2563
 3182SOL     OW15382   5.638   1.028   1.043  0.2610 -0.2922 -0.1349
 3182SOL    HW115383   5.613   0.937   1.023 -0.7416  0.0316 -0.4038
 3182SOL    HW215384   5.723   1.039   1.001 -0.9321 -0.2194 -2.7440
 3183SOL     OW15385   3.484   5.677   1.219  0.8395  0.2183  0.4423
 3183SOL    HW115386   3.458   5.730   1.294  0.5685  0.1025  0.4317
 3183SOL    HW215387   3.401   5.649   1.180  0.9738  0.5153 -0.0676
 3184SOL     OW15388  11.291   3.987   4.541 -0.3214 -0.1234  0.0641
 3184SOL    HW115389  11.373   3.938   4.540  0.2045  0.7199  0.8058
 3184SOL    HW215390  11.249   3.965   4.458  1.3393  0.5630 -1.0069
 3185SOL     OW15391  11.037   0.511   9.035 -0.0793 -0.0969  0.5150
 3185SOL    HW115392  10.995   0.591   9.005  0.6610  0.0252 -0.2262
 3185SOL    HW215393  10.966   0.461   9.076 -1.0976 -0.1651 -1.2331
 3186SOL     OW15394  10.980   2.825   7.056  0.1701 -0.6203  0.2750
 3186SOL    HW115395  11.014   2.797   6.971  3.7794 -0.0183  1.3609
 3186SOL    HW215396  10.952   2.916   7.041 -1.0945 -1.1401 -0.6754
 3187SOL     OW15397   4.267   0.993   3.389  0.1866  0.7124  0.1158
 3187SOL    HW115398   4.218   1.058   3.439 -1.1476  1.7071 -2.2783
 3187SOL    HW215399   4.345   1.040   3.359  1.2489 -0.0317  1.5727
 3188SOL     OW15400   5.151   8.311   7.089 -0.1475  0.1109 -0.0771
 3188SOL    HW115401   5.226   8.256   7.114  0.2916  0.8308  0.2264
 3188SOL    HW215402   5.075   8.261   7.115  0.1948 -0.9698 -1.0567
 3189SOL     OW15403  12.320   6.301   3.595  0.2370 -0.1122  0.0610
 3189SOL    HW115404  12.336   6.214   3.558  0.7735 -0.0601  0.1665
 3189SOL    HW215405  12.390   6.355   3.560 -0.0024  0.2447  0.1266
 3190SOL     OW15406  11.779   8.760   1.108  0.4448  0.0493 -0.1342
 3190SOL    HW115407  11.838   8.835   1.109 -0.0583  0.4526  0.5993
 3190SOL    HW215408  11.808   8.704   1.180 -0.6772  0.7670  0.9197
 3191SOL     OW15409   1.383   4.745  10.567  0.7548 -0.2097 -0.4533
 3191SOL    HW115410   1.467   4.790  10.577  0.1086  0.5220  2.7133
 3191SOL    HW215411   1.344   4.786  10.489  1.2378  3.1642  0.8890
 3192SOL     OW15412  11.296   9.881   1.475  0.3853  0.1563 -0.2240
 3192SOL    HW115413  11.269   9.969   1.499  1.9649  0.5495  0.2306
 3192SOL    HW215414  11.338   9.890   1.390  0.0456 -0.2477 -0.4381
 3193SOL     OW15415   6.140   8.622  10.011  0.4390 -0.2010 -0.3028
 3193SOL    HW115416   6.222   8.574  10.020  0.7511  0.3721 -0.0612
 3193SOL    HW215417   6.114   8.643  10.100  0.8832  1.0316 -0.4422
 3194SOL     OW15418   0.802   4.056   8.584  0.3364 -0.0457 -0.0489
 3194SOL    HW115419   0.766   3.993   8.521  1.3120  1.5021 -2.2616
 3194SOL    HW215420   0.757   4.138   8.565  0.3710  0.3872  1.5750
 3195SOL     OW15421   2.407   6.812   0.796 -0.6530 -0.1620 -0.0774
 3195SOL    HW115422   2.485   6.759   0.775 -0.2107  0.5074 -0.1483
 3195SOL    HW215423   2.442   6.896   0.826 -1.3439 -0.0364  0.4052
 3196SOL     OW15424   2.722   8.403  10.108 -0.2551  0.7113  0.0548
 3196SOL    HW115425   2.650   8.435  10.162 -2.0701 -1.2812 -1.0697
 3196SOL    HW215426   2.723   8.462  10.033  0.3550  1.6948  0.8108
 3197SOL     OW15427   3.375   8.364  11.317 -1.0164 -0.4551 -0.5603
 3197SOL    HW115428   3.313   8.332  11.383 -0.1220 -1.3578 -0.1240
 3197SOL    HW215429   3.454   8.385  11.367 -0.7231 -0.0216 -1.1993
 3198SOL     OW15430   5.576   1.074   3.362  0.2009  0.0407 -0.0776
 3198SOL    HW115431   5.635   1.121   3.422  1.2155 -0.9144 -0.2966
 3198SOL    HW215432   5.577   1.127   3.282 -1.4321  1.5091  0.8047
 3199SOL     OW15433  11.681   7.456   2.969  0.8744 -0.5593 -0.5252
 3199SOL    HW115434  11.631   7.436   2.890 -1.0930  0.6721  0.3220
 3199SOL    HW215435  11.653   7.389   3.032  1.4218 -0.7357 -0.4632
 3200SOL     OW15436   6.251   4.556   4.411  0.3345  0.1287 -0.9488
 3200SOL    HW115437   6.333   4.548   4.362  0.2072  0.6015 -1.2454
 3200SOL    HW215438   6.278   4.571   4.501  0.5741 -1.1571 -0.7916
 3201SOL     OW15439   6.250   6.564   8.228  0.6250  0.3615 -0.2764
 3201SOL    HW115440   6.322   6.514   8.191  0.0752 -0.5710 -0.1148
 3201SOL    HW215441   6.182   6.499   8.248  0.6069  0.9121  1.6904
 3202SOL     OW15442   8.879   1.294  11.253  0.2370  0.6130  0.1398
 3202SOL    HW115443   8.895   1.359  11.184  0.1045 -0.5440 -1.0024
 3202SOL    HW215444   8.935   1.220  11.230 -0.1289  0.0392  1.0470
 3203SOL     OW15445   7.543   9.875   1.867 -0.6732 -0.2559  0.4459
 3203SOL    HW115446   7.450   9.877   1.845 -0.5560 -0.5197 -0.1168
 3203SOL    HW215447   7.575   9.962   1.844 -0.2860 -0.9043 -1.7853
 3204SOL     OW15448   4.955   8.916   3.497 -0.1035  0.0029 -0.8687
 3204SOL    HW115449   4.965   8.823   3.517 -1.5286 -0.0430 -0.2490
 3204SOL    HW215450   4.956   8.921   3.402 -0.8827 -0.7692 -0.9231
 3205SOL     OW15451   8.674   6.357   0.029 -0.1118 -0.3838  0.4745
 3205SOL    HW115452   8.598   6.396   0.072 -0.3000  0.8221 -0.8798
 3205SOL    HW215453   8.746   6.418   0.046 -0.0072 -0.2988 -0.2241
 3206SOL     OW15454   3.092  11.974   1.554 -0.2284 -0.1838  0.4926
 3206SOL    HW115455   3.069  11.995   1.464  0.9665  1.0601  0.4385
 3206SOL    HW215456   3.040  12.034   1.607  0.5072  0.4477  0.5178
 3207SOL     OW15457  11.298   1.340   9.264 -0.2019 -0.0452 -0.0824
 3207SOL    HW115458  11.214   1.306   9.294  0.7539 -0.8733  1.8327
 3207SOL    HW215459  11.281   1.431   9.244 -2.0096 -0.6865 -1.7967
 3208SOL     OW15460   3.080   3.531   8.298  0.0753  0.2170 -0.0473
 3208SOL    HW115461   3.042   3.618   8.292 -3.0414 -0.9959  0.3142
 3208SOL    HW215462   3.048   3.486   8.220  0.3764 -1.0352  0.5286
 3209SOL     OW15463   3.027  10.882   2.121 -0.0993 -0.9026 -0.3786
 3209SOL    HW115464   2.973  10.920   2.051 -2.8578 -1.6918  1.1464
 3209SOL    HW215465   3.065  10.803   2.082 -0.6885 -0.7448 -1.3086
 3210SOL     OW15466   4.596   0.226   0.921  0.0956  0.5836  0.4358
 3210SOL    HW115467   4.640   0.196   1.001 -0.4853  0.0319  0.5638
 3210SOL    HW215468   4.591   0.147   0.866 -0.8020  0.6149  0.4620
 3211SOL     OW15469  10.963   2.400  10.449 -0.7503  0.3761  0.5755
 3211SOL    HW115470  10.997   2.484  10.480 -0.0786 -0.5159  2.3766
 3211SOL    HW215471  11.036   2.360  10.403 -1.0000  0.6678 -0.0841
 3212SOL     OW15472   5.378   9.689   1.852 -0.6362  0.1802 -0.1421
 3212SOL    HW115473   5.423   9.747   1.790  1.4695  0.6809  1.7004
 3212SOL    HW215474   5.312   9.644   1.800  0.7341  0.8690 -2.6283
 3213SOL     OW15475   5.234   0.989  11.028 -0.1137 -0.4513  0.2187
 3213SOL    HW115476   5.230   0.929  11.103  1.6372  1.3909  1.9041
 3213SOL    HW215477   5.257   1.073  11.066  2.0395  0.3400 -2.5085
 3214SOL     OW15478   3.255   6.432   6.196  0.0420  0.5736  0.3719
 3214SOL    HW115479   3.214   6.381   6.126 -0.0060  1.1614 -0.0312
 3214SOL    HW215480   3.182   6.464   6.249  0.1167 -0.8008  1.3709
 3215SOL     OW15481  11.992   2.777   7.509 -0.2344 -0.5040 -0.2135
 3215SOL    HW115482  12.039   2.775   7.592 -0.2021  1.0096 -0.1577
 3215SOL    HW215483  11.952   2.864   7.507 -0.0730 -0.4397 -1.8752
 3216SOL     OW15484   6.250   1.305   9.357  0.5392  0.2041  0.6566
 3216SOL    HW115485   6.160   1.310   9.324  0.8142  1.3158  0.0317
 3216SOL    HW215486   6.301   1.359   9.297  1.5472  0.0050  1.3019
 3217SOL     OW15487   3.747   4.086   1.044  0.2216 -0.0868 -0.0932
 3217SOL    HW115488   3.731   4.063   0.952 -0.2994 -0.4530  0.0909
 3217SOL    HW215489   3.842   4.081   1.053  0.1758 -1.4892 -0.2310
 3218SOL     OW15490   2.361  10.070   2.664  0.2445  0.0825  0.3844
 3218SOL    HW115491   2.356   9.977   2.689 -1.6327  0.2886  0.8910
 3218SOL    HW215492   2.453  10.093   2.679  0.2570 -1.0731  2.5907
 3219SOL     OW15493   9.787  11.558   3.035  0.1226  0.1439  0.0226
 3219SOL    HW115494   9.695  11.569   3.011 -0.0362  0.4740  0.7828
 3219SOL    HW215495   9.828  11.522   2.955 -0.2505  1.9337 -1.0305
 3220SOL     OW15496   9.089  10.937  12.176 -0.4519 -0.3189 -0.4573
 3220SOL    HW115497   9.127  10.948  12.263 -0.6277 -2.1798 -0.0855
 3220SOL    HW215498   9.074  10.842  12.169 -2.1514 -0.0019 -1.7896
 3221SOL     OW15499   2.069  11.982   4.138  0.2791  0.3661 -0.2253
 3221SOL    HW115500   2.095  11.960   4.228 -0.6976 -0.7386 -0.1882
 3221SOL    HW215501   1.976  11.961   4.135  0.0960  1.2697 -1.2440
 3222SOL     OW15502   5.801   3.822  11.458  0.1865 -0.3066  0.3612
 3222SOL    HW115503   5.730   3.820  11.523 -0.2615 -1.1972 -0.1266
 3222SOL    HW215504   5.834   3.732  11.458  2.0802  0.3540  1.3915
 3223SOL     OW15505   1.054   4.600   0.107  0.2062  0.2822  0.1133
 3223SOL    HW115506   0.980   4.602   0.167 -0.0491  0.0177 -0.1912
 3223SOL    HW215507   1.080   4.508   0.102 -0.3681  0.1611 -0.9006
 3224SOL     OW15508   3.189   2.635   1.661 -0.3965  0.1631  0.3832
 3224SOL    HW115509   3.272   2.681   1.673  0.4295 -0.8198 -1.2112
 3224SOL    HW215510   3.163   2.610   1.749  2.1028 -1.3288  0.8137
 3225SOL     OW15511   2.689  11.202   8.368 -0.2846 -0.6136 -0.3364
 3225SOL    HW115512   2.605  11.155   8.372 -0.3709 -0.7415 -2.4644
 3225SOL    HW215513   2.680  11.260   8.292  1.1192  0.2843  0.1543
 3226SOL     OW15514   6.296  10.657   1.321  0.1516  0.3439 -0.1974
 3226SOL    HW115515   6.269  10.593   1.387  0.3542  0.6100  0.1386
 3226SOL    HW215516   6.308  10.604   1.241 -0.4211  0.0771 -0.1133
 3227SOL     OW15517  11.330  10.930   8.182 -0.5778 -0.2368 -0.0674
 3227SOL    HW115518  11.334  11.025   8.172 -1.7827 -0.1331  0.2792
 3227SOL    HW215519  11.414  10.906   8.222  0.5606  0.4195 -1.9358
 3228SOL     OW15520   3.108   2.533   5.372 -0.0260  0.2730 -0.2429
 3228SOL    HW115521   3.197   2.568   5.366  0.1520 -0.2690 -0.8658
 3228SOL    HW215522   3.068   2.583   5.443  0.8341  0.3957  0.1754
 3229SOL     OW15523   6.329  11.236  10.206 -0.6827 -0.1454  0.4341
 3229SOL    HW115524   6.406  11.210  10.156 -0.4923  1.0146  0.0865
 3229SOL    HW215525   6.302  11.157  10.252 -0.3482 -1.0276 -0.8292
 3230SOL     OW15526   1.493   9.874  10.798  0.2283  0.1079  0.4376
 3230SOL    HW115527   1.437   9.949  10.778  0.8064  0.5634  0.4952
 3230SOL    HW215528   1.559   9.873  10.730  0.7708  0.2088  0.9515
 3231SOL     OW15529  10.412   0.324  11.935  0.1344 -0.4932  0.3043
 3231SOL    HW115530  10.386   0.347  11.846  1.3897  0.6585  0.1980
 3231SOL    HW215531  10.354   0.252  11.959 -0.8047 -0.2605 -1.1206
 3232SOL     OW15532   1.584  11.577   6.669  0.2289 -0.5169 -0.3407
 3232SOL    HW115533   1.544  11.662   6.650 -1.9221 -1.2262  0.6746
 3232SOL    HW215534   1.675  11.587   6.641 -0.2942  1.6494 -1.5412
 3233SOL     OW15535   2.011   4.855  11.056  0.2031  0.1964  0.1054
 3233SOL    HW115536   2.039   4.903  10.978  0.2118 -0.5154 -0.3449
 3233SOL    HW215537   2.089   4.850  11.111 -0.0966  1.6935  0.6943
 3234SOL     OW15538  12.018  11.543   8.589 -0.3484  0.3606 -0.4252
 3234SOL    HW115539  12.031  11.571   8.679  0.3628 -1.8919  0.2249
 3234SOL    HW215540  12.040  11.620   8.536  0.4884  1.3176  1.2592
 3235SOL     OW15541  11.517   0.555   0.342 -0.1054  0.4579  0.3813
 3235SOL    HW115542  11.557   0.581   0.425 -1.2690 -1.6164  1.6959
 3235SOL    HW215543  11.424   0.544   0.363 -0.1131 -2.0183 -0.6638
 3236SOL     OW15544   9.088   4.309   4.288 -0.8292  0.8365  0.1954
 3236SOL    HW115545   9.112   4.394   4.324 -0.4377  0.3286  1.1787
 3236SOL    HW215546   9.004   4.288   4.329  1.1365 -1.2857  3.7502
 3237SOL     OW15547   4.778   2.104   8.617  0.1015 -0.2714 -0.1236
 3237SOL    HW115548   4.851   2.109   8.556 -0.3555  0.5344 -0.6179
 3237SOL    HW215549   4.811   2.143   8.698  0.6765 -1.2515  0.1224
 3238SOL     OW15550   1.302  10.991   0.206  0.0018  0.0579 -0.1734
 3238SOL    HW115551   1.382  10.957   0.166 -0.5521 -0.0438 -1.2154
 3238SOL    HW215552   1.329  11.016   0.294  0.8612 -1.2783 -0.0275
 3239SOL     OW15553   6.792   1.580   8.363  0.6435 -0.2302 -0.6297
 3239SOL    HW115554   6.789   1.602   8.456  2.5819 -0.5590 -0.4478
 3239SOL    HW215555   6.759   1.491   8.358  2.0964 -0.8279  0.0034
 3240SOL     OW15556   1.201   8.975   7.116 -0.8334 -0.2339 -0.0185
 3240SOL    HW115557   1.162   9.041   7.059  1.2584  0.7585 -0.3556
 3240SOL    HW215558   1.136   8.904   7.117 -2.4891  1.1943 -0.7870
 3241SOL     OW15559  12.034   3.937  11.060 -0.3723  0.3055  0.4215
 3241SOL    HW115560  11.978   3.859  11.061  1.5863 -1.2059 -0.5654
 3241SOL    HW215561  12.015   3.981  11.143 -0.2171 -2.2564  1.9290
 3242SOL     OW15562   0.292   5.124   8.314 -0.1983  0.1022 -0.8813
 3242SOL    HW115563   0.222   5.094   8.372  0.1371 -0.2068 -0.6286
 3242SOL    HW215564   0.373   5.104   8.362  0.0784  0.0083 -1.3784
 3243SOL     OW15565   3.176   1.543   8.125  0.2556 -0.1206  0.2062
 3243SOL    HW115566   3.196   1.615   8.064  0.3503 -1.3347 -1.2722
 3243SOL    HW215567   3.142   1.586   8.203  0.8388  1.5559 -0.4151
 3244SOL     OW15568  10.305   0.383   1.440  0.3917 -0.8035  0.2484
 3244SOL    HW115569  10.394   0.402   1.410  0.4555 -1.1381  0.2235
 3244SOL    HW215570  10.309   0.293   1.471  0.2099 -0.6177  0.8252
 3245SOL     OW15571   7.243   2.052   3.633  0.0838 -0.4260 -0.3914
 3245SOL    HW115572   7.290   2.036   3.551  1.9290  0.7002  0.3662
 3245SOL    HW215573   7.249   2.146   3.646 -1.8899 -0.3397  0.0965
 3246SOL     OW15574   4.315   2.507   8.926 -0.2573  0.3482  0.2989
 3246SOL    HW115575   4.389   2.567   8.923 -0.6891  0.9473  1.1476
 3246SOL    HW215576   4.300   2.492   9.019 -0.2197 -1.0167  0.1129
 3247SOL     OW15577   0.575   4.971   0.986 -0.1712 -0.9173 -0.0203
 3247SOL    HW115578   0.543   4.998   0.900 -1.1489 -1.1556  0.2556
 3247SOL    HW215579   0.638   4.902   0.968  0.2451 -0.4041 -0.5838
 3248SOL     OW15580   1.324   0.068  12.086  0.9453 -0.1738 -0.1671
 3248SOL    HW115581   1.379   0.020  12.024 -0.0268 -1.4732 -0.0673
 3248SOL    HW215582   1.374   0.147  12.105 -0.1210  2.0887 -5.1751
 3249SOL     OW15583   0.316   0.957   4.602 -1.0350  0.0481 -0.1468
 3249SOL    HW115584   0.258   1.029   4.626 -1.2520 -0.6760  1.6149
 3249SOL    HW215585   0.266   0.909   4.535 -1.7384  0.3931  0.1137
 3250SOL     OW15586   3.147   9.336  10.847 -0.1752 -0.3068  0.0101
 3250SOL    HW115587   3.214   9.373  10.904 -0.3776 -0.0299  0.0701
 3250SOL    HW215588   3.143   9.397  10.773 -0.3018 -0.3691 -0.0334
 3251SOL     OW15589   0.598  10.129   8.162  0.1355 -0.1117 -0.3045
 3251SOL    HW115590   0.631  10.133   8.072 -1.6149 -1.4416 -1.0710
 3251SOL    HW215591   0.615  10.039   8.190  0.0513  0.0993  0.4519
 3252SOL     OW15592   0.512   3.781   8.169  0.6529 -0.3829  0.0344
 3252SOL    HW115593   0.476   3.862   8.206 -1.4657 -0.9682 -0.5669
 3252SOL    HW215594   0.573   3.810   8.101  0.1197  0.7184  0.0074
 3253SOL     OW15595   6.121   0.681   7.490 -0.5267 -0.1592  0.5461
 3253SOL    HW115596   6.049   0.687   7.428 -1.0425 -3.2132  0.7018
 3253SOL    HW215597   6.079   0.664   7.575  0.2810  1.2249  1.2569
 3254SOL     OW15598   3.135   8.534   0.652 -0.0067 -0.3341  0.0345
 3254SOL    HW115599   3.120   8.627   0.670  0.2273 -0.5925  1.8084
 3254SOL    HW215600   3.087   8.489   0.722  0.8166 -1.5061 -0.1329
 3255SOL     OW15601   4.534  11.548   0.363 -0.4152  0.3151 -0.5115
 3255SOL    HW115602   4.598  11.510   0.303  0.1928  0.2658  0.1450
 3255SOL    HW215603   4.483  11.608   0.309 -1.0304 -0.9953 -1.4514
 3256SOL     OW15604   0.420   0.514   6.237  0.3380 -0.0312  0.1412
 3256SOL    HW115605   0.333   0.552   6.222 -0.4223 -1.4001  0.9315
 3256SOL    HW215606   0.451   0.557   6.318 -0.4519 -0.9386  0.9470
 3257SOL     OW15607   5.564  11.109   7.152  0.0514 -0.3986 -0.1773
 3257SOL    HW115608   5.592  11.200   7.152  0.0255 -0.3875  0.8046
 3257SOL    HW215609   5.498  11.104   7.082 -0.2826  0.4348  0.0723
 3258SOL     OW15610   9.843   4.848   5.701 -0.0069  0.1881  0.2720
 3258SOL    HW115611   9.870   4.937   5.723 -1.2620  1.3420 -2.4083
 3258SOL    HW215612   9.917   4.811   5.652 -0.1860  0.4504 -0.2026
 3259SOL     OW15613   6.692   1.676   2.697 -0.5720  0.1461 -0.0388
 3259SOL    HW115614   6.747   1.752   2.712  0.1143 -0.1131 -1.1548
 3259SOL    HW215615   6.752   1.602   2.697 -1.1460 -0.3414  0.3792
 3260SOL     OW15616   9.939   3.476   9.054 -0.3567 -0.0429 -0.4168
 3260SOL    HW115617   9.975   3.429   9.129  0.5757 -0.0404 -0.8513
 3260SOL    HW215618   9.887   3.546   9.093  0.3455  0.1304  0.2339
 3261SOL     OW15619   9.176   5.089   1.695 -0.6082  0.2076  0.1528
 3261SOL    HW115620   9.105   5.079   1.758 -0.5186  3.2923  0.8555
 3261SOL    HW215621   9.255   5.070   1.745 -0.7474 -3.2649 -0.6388
 3262SOL     OW15622  11.243   8.399   4.664 -0.1869  0.3630  0.1309
 3262SOL    HW115623  11.289   8.468   4.616  1.5990 -2.8492 -3.2271
 3262SOL    HW215624  11.310   8.362   4.721 -0.6739  0.2971  0.6675
 3263SOL     OW15625  11.131   5.217   7.355 -0.1247  0.0515  0.4810
 3263SOL    HW115626  11.040   5.210   7.384 -1.0250  1.7962 -1.6689
 3263SOL    HW215627  11.126   5.230   7.261  2.5458 -2.6846 -0.1872
 3264SOL     OW15628   4.208  10.930   1.576 -0.0541 -0.0022  0.3059
 3264SOL    HW115629   4.131  10.970   1.534 -0.8395 -1.1916  0.5629
 3264SOL    HW215630   4.259  10.896   1.503  1.1278  2.2106 -0.0036
 3265SOL     OW15631   7.334  10.198  10.411 -0.0663  0.3423 -0.3819
 3265SOL    HW115632   7.281  10.139  10.465 -0.0269  1.9318  1.4889
 3265SOL    HW215633   7.272  10.235  10.349 -0.4075 -0.4549 -0.5402
 3266SOL     OW15634   2.436  10.169  11.512  0.0215 -0.0005  0.3511
 3266SOL    HW115635   2.415  10.161  11.606  0.9603  0.0913  0.5756
 3266SOL    HW215636   2.409  10.258  11.489  1.7162  0.7246  1.0558
 3267SOL     OW15637   4.117   5.542  10.611 -0.1783 -0.8569 -0.0921
 3267SOL    HW115638   4.081   5.617  10.658 -0.1416 -1.3494  0.7394
 3267SOL    HW215639   4.142   5.577  10.525 -0.3949  0.0175  0.1948
 3268SOL     OW15640   5.131   8.449   9.396  0.2479 -0.5623  0.1716
 3268SOL    HW115641   5.074   8.420   9.468 -1.9853  0.6508 -0.9719
 3268SOL    HW215642   5.117   8.385   9.327  0.0292 -0.0982 -0.2203
 3269SOL     OW15643   0.765   1.164   7.430  0.1676  0.1399  0.1695
 3269SOL    HW115644   0.779   1.095   7.365 -2.0782  0.8750 -1.2206
 3269SOL    HW215645   0.672   1.159   7.450  0.3210  1.6223  1.4278
 3270SOL     OW15646   1.406   2.796  11.898  0.0612  0.2536  0.3212
 3270SOL    HW115647   1.317   2.767  11.920  1.5544 -2.9369  2.9304
 3270SOL    HW215648   1.424   2.755  11.813 -0.8269  0.7944 -0.1543
 3271SOL     OW15649  12.169   8.304   5.071 -0.6080 -0.4732  0.8050
 3271SOL    HW115650  12.103   8.266   5.013 -2.5097 -0.5115  2.8582
 3271SOL    HW215651  12.211   8.228   5.112  1.1535 -0.4690 -0.8192
 3272SOL     OW15652   9.342   7.845   0.163  0.4415 -0.3606  0.1078
 3272SOL    HW115653   9.281   7.804   0.102 -0.1512  0.0819  0.3902
 3272SOL    HW215654   9.414   7.875   0.108  0.2368 -0.5685 -0.2832
 3273SOL     OW15655   2.379   7.856   5.082  0.3034 -0.1515 -0.3203
 3273SOL    HW115656   2.357   7.925   5.020  0.0224 -0.3020 -0.3872
 3273SOL    HW215657   2.399   7.780   5.028 -2.0800 -0.9361 -0.2010
 3274SOL     OW15658   1.507  10.325   9.298 -0.3291  0.1744 -0.0235
 3274SOL    HW115659   1.492  10.315   9.204 -1.7168 -0.6940  0.2566
 3274SOL    HW215660   1.419  10.325   9.337  0.2185  0.3670  1.2865
 3275SOL     OW15661   4.207   5.349   4.397  0.2474  0.3823  0.0357
 3275SOL    HW115662   4.227   5.315   4.310 -0.5355  0.3551 -0.1388
 3275SOL    HW215663   4.113   5.366   4.395 -0.3248 -2.0942  1.7218
 3276SOL     OW15664   5.043   9.254  10.711 -0.0919 -0.6123  0.5153
 3276SOL    HW115665   5.029   9.343  10.744  0.6990 -0.1352 -0.3886
 3276SOL    HW215666   5.004   9.198  10.777 -0.4397  0.4015  1.1975
 3277SOL     OW15667   9.160   8.444   0.032  0.1160  0.8239 -0.2863
 3277SOL    HW115668   9.103   8.505  -0.014 -2.0442 -0.1324  0.9848
 3277SOL    HW215669   9.151   8.362  -0.015 -3.0022 -0.4808  2.2420
 3278SOL     OW15670   7.708   3.755   4.955  0.2228 -0.0683 -0.2157
 3278SOL    HW115671   7.701   3.790   4.867 -1.8171  2.4144  0.8294
 3278SOL    HW215672   7.699   3.831   5.012 -1.1599 -1.9073  2.1798
 3279SOL     OW15673   0.165   3.421  11.303 -0.1613 -0.0735  0.2220
 3279SOL    HW115674   0.115   3.418  11.221 -0.3844 -3.0189  0.3708
 3279SOL    HW215675   0.121   3.358  11.361 -0.3667  2.3140  2.9006
 3280SOL     OW15676   0.678  11.815   8.343  0.4114 -0.5938 -0.0070
 3280SOL    HW115677   0.700  11.861   8.425  1.2119  0.7825 -0.9512
 3280SOL    HW215678   0.626  11.740   8.371 -0.6506  0.6766  1.6649
 3281SOL     OW15679   6.189   8.214   8.200  0.5530 -0.0476  0.2583
 3281SOL    HW115680   6.233   8.222   8.115  1.0877  0.2171  0.5533
 3281SOL    HW215681   6.211   8.125   8.230  0.3080 -0.1663  0.0964
 3282SOL     OW15682  10.343   8.521  11.787 -0.1001  0.4330  0.0706
 3282SOL    HW115683  10.373   8.596  11.735  1.5435 -0.9569 -1.0872
 3282SOL    HW215684  10.321   8.454  11.722 -1.6934 -0.0852  1.0755
 3283SOL     OW15685   3.189   3.377   9.201 -0.2042 -0.0437 -0.2091
 3283SOL    HW115686   3.218   3.344   9.286 -0.1581 -0.5847 -0.4257
 3283SOL    HW215687   3.196   3.301   9.143  0.3207  0.4697 -0.8285
 3284SOL     OW15688   7.705   9.867   6.019 -0.2820 -0.1792 -0.0113
 3284SOL    HW115689   7.624   9.896   6.060 -0.5904  1.8791 -1.8690
 3284SOL    HW215690   7.725   9.936   5.955  3.1787 -0.3847  0.6859
 3285SOL     OW15691   3.448   3.809   2.297 -0.5296 -0.3373 -0.0427
 3285SOL    HW115692   3.479   3.820   2.207  1.7939 -1.2364  0.5805
 3285SOL    HW215693   3.356   3.838   2.295 -0.3568  0.2144 -2.5450
 3286SOL     OW15694   7.153   4.598   5.469  0.2165  0.3529 -0.0734
 3286SOL    HW115695   7.129   4.587   5.377  0.4502 -1.5562  0.0493
 3286SOL    HW215696   7.177   4.510   5.498 -0.4188  0.8007  1.9774
 3287SOL     OW15697   6.862   2.541   4.991  0.4086  0.2338 -0.6326
 3287SOL    HW115698   6.853   2.596   4.913 -1.2948 -1.6266 -1.8791
 3287SOL    HW215699   6.804   2.582   5.056 -0.6055  0.1139 -1.4340
 3288SOL     OW15700   5.133   8.580   7.437  0.3443  0.9192  0.2984
 3288SOL    HW115701   5.221   8.546   7.420 -0.2912 -0.8112  0.3607
 3288SOL    HW215702   5.133   8.600   7.531  1.6724  4.0993 -0.2266
 3289SOL     OW15703   1.048   0.726  11.122  0.4721 -0.5327 -0.3514
 3289SOL    HW115704   1.080   0.804  11.076  0.0075  1.5221  2.5191
 3289SOL    HW215705   1.000   0.761  11.197 -0.8016 -3.6216  0.4115
 3290SOL     OW15706   2.621   6.160   5.320 -0.6923 -0.0614 -0.0016
 3290SOL    HW115707   2.529   6.176   5.299 -0.4300 -0.0163 -1.1842
 3290SOL    HW215708   2.647   6.088   5.262 -0.3095 -0.9277  1.2042
 3291SOL     OW15709  10.913  10.824   1.625  0.1131 -0.1629  0.2339
 3291SOL    HW115710  10.873  10.745   1.661 -0.2729 -0.2723 -0.4266
 3291SOL    HW215711  10.998  10.796   1.592 -0.6854 -0.6756 -1.4978
 3292SOL     OW15712   9.042  10.998   9.081 -0.0774  0.4590  0.2396
 3292SOL    HW115713   9.000  10.980   9.165 -0.3057  1.4989  0.3608
 3292SOL    HW215714   8.970  11.000   9.018  0.1365 -0.7229 -0.0651
 3293SOL     OW15715   0.103   8.494   1.630  0.6789 -0.2642 -0.5742
 3293SOL    HW115716   0.149   8.453   1.703  0.0869 -0.3364 -0.2383
 3293SOL    HW215717   0.071   8.577   1.667 -2.3322 -1.6596  0.2201
 3294SOL     OW15718   2.745   3.353   2.173  0.3523 -0.1822 -0.6285
 3294SOL    HW115719   2.702   3.269   2.190 -3.1203  1.9812  2.7592
 3294SOL    HW215720   2.677   3.408   2.133  2.5295  1.1889 -2.7584
 3295SOL     OW15721   1.387   1.749   5.250 -0.5727 -0.0778  0.2517
 3295SOL    HW115722   1.411   1.830   5.205  0.0658  0.1284  0.9412
 3295SOL    HW215723   1.296   1.763   5.277 -0.7507  0.0501 -0.4035
 3296SOL     OW15724  12.224   0.304   8.745 -0.3255 -0.5509 -0.5643
 3296SOL    HW115725  12.161   0.238   8.715 -1.5271  0.1911  0.2615
 3296SOL    HW215726  12.180   0.388   8.730  0.6420  0.0083 -0.3478
 3297SOL     OW15727   3.802   5.103   3.003  0.2790  0.4433  0.3898
 3297SOL    HW115728   3.884   5.084   2.957  1.1727  1.0827  1.6482
 3297SOL    HW215729   3.733   5.084   2.939  1.4084 -0.0263 -0.7251
 3298SOL     OW15730   9.825   9.505   4.736  0.3955  0.0528 -0.0832
 3298SOL    HW115731   9.880   9.457   4.674  0.4916 -0.6139  0.4988
 3298SOL    HW215732   9.798   9.439   4.800  0.6412  0.7988  0.8140
 3299SOL     OW15733   5.430  10.411   2.334  0.1811 -0.4627 -0.0521
 3299SOL    HW115734   5.497  10.479   2.333  0.5915 -0.8587 -0.2751
 3299SOL    HW215735   5.369  10.436   2.264  0.3159 -0.3142 -0.1159
 3300SOL     OW15736   5.757   9.655   7.301  0.1275 -0.0401  0.5030
 3300SOL    HW115737   5.724   9.607   7.226  1.6204  0.8242 -0.7622
 3300SOL    HW215738   5.680   9.699   7.337 -0.4140  0.5979 -1.3501
 3301SOL     OW15739   8.634   0.026   4.029 -0.1499  0.4263  0.6292
 3301SOL    HW115740   8.618  -0.027   3.952  1.0510  0.4076  0.3803
 3301SOL    HW215741   8.593   0.111   4.009  0.2176  0.4463 -0.0636
 3302SOL     OW15742  11.060   9.162   5.823  0.0953  0.4439  0.5003
 3302SOL    HW115743  11.128   9.124   5.768 -0.6617 -0.0971 -0.0849
 3302SOL    HW215744  11.108   9.210   5.891  1.0687 -0.8862  0.7823
 3303SOL     OW15745   6.491   7.092   7.626  0.0252 -0.1877 -0.0016
 3303SOL    HW115746   6.561   7.158   7.634  0.1999 -0.5647  2.0840
 3303SOL    HW215747   6.538   7.008   7.623 -0.2829 -0.3454 -0.7659
 3304SOL     OW15748   2.030  10.891  10.277  0.1398  0.4918  0.4217
 3304SOL    HW115749   2.026  10.863  10.368  0.8011  0.5592  0.4791
 3304SOL    HW215750   2.035  10.986  10.281  2.6398  0.4237  0.4463
 3305SOL     OW15751  11.698   8.121   2.990  0.1190 -0.0358  0.1242
 3305SOL    HW115752  11.750   8.086   3.062 -0.9283 -0.1500  0.8420
 3305SOL    HW215753  11.760   8.173   2.939  1.4547 -1.9396 -0.3075
 3306SOL     OW15754   7.887   1.746  10.950  0.6477 -0.7003 -0.0219
 3306SOL    HW115755   7.843   1.666  10.921 -3.2017  0.9072  0.8513
 3306SOL    HW215756   7.846   1.768  11.033  1.1490  2.4731 -0.4967
 3307SOL     OW15757  12.192   2.386  10.706  0.2142 -0.4737 -0.2453
 3307SOL    HW115758  12.137   2.363  10.631  2.1358 -0.8651 -1.5914
 3307SOL    HW215759  12.183   2.482  10.713  0.5621 -0.3357 -1.4509
 3308SOL     OW15760   6.629   1.076   2.620 -0.1861 -0.7625 -0.5704
 3308SOL    HW115761   6.685   0.999   2.633 -0.3520 -0.5837  1.6279
 3308SOL    HW215762   6.594   1.095   2.707  1.2881  2.9083 -0.5937
 3309SOL     OW15763   9.216   2.012   9.690 -0.5728 -0.1953 -0.3673
 3309SOL    HW115764   9.173   2.089   9.654  1.2365  0.2298 -1.8016
 3309SOL    HW215765   9.294   2.047   9.734  0.0013 -1.1484 -0.5967
 3310SOL     OW15766   0.543   6.857   0.217 -0.6093  0.3251 -0.4705
 3310SOL    HW115767   0.592   6.882   0.295 -0.4610  0.3152 -0.5607
 3310SOL    HW215768   0.599   6.795   0.172 -0.6594  0.3949 -0.6290
 3311SOL     OW15769   6.150   1.944   0.600 -0.8860 -0.3465 -0.0849
 3311SOL    HW115770   6.135   1.891   0.522 -2.1480 -0.8370  0.4676
 3311SOL    HW215771   6.062   1.964   0.633 -0.3738 -0.1946  1.2449
 3312SOL     OW15772   0.971   2.118   4.655  0.1494 -0.7038  0.7605
 3312SOL    HW115773   1.015   2.181   4.713  2.0826 -0.4940 -0.7962
 3312SOL    HW215774   0.970   2.162   4.570 -1.7397 -1.3788  0.3971
 3313SOL     OW15775   2.696   6.879   3.964  0.2816  0.1336 -0.2222
 3313SOL    HW115776   2.772   6.930   3.994 -0.8365  2.2270 -0.7803
 3313SOL    HW215777   2.622   6.918   4.010 -0.9227  0.5862 -2.4251
 3314SOL     OW15778   1.820   9.434   5.620  0.0919  0.4297  0.4411
 3314SOL    HW115779   1.914   9.434   5.599  0.5922 -1.0097  2.3495
 3314SOL    HW215780   1.812   9.494   5.693 -0.2472 -0.3814  1.0832
 3315SOL     OW15781   5.879   5.951   4.489  0.0476 -0.3189 -0.7789
 3315SOL    HW115782   5.934   5.893   4.436  0.1331 -1.0738  0.1170
 3315SOL    HW215783   5.793   5.907   4.490  0.3232 -0.8779  0.5738
 3316SOL     OW15784   3.880  11.726   2.206 -0.3982 -0.1732 -0.5662
 3316SOL    HW115785   3.854  11.755   2.119  1.7140  1.3449 -0.7855
 3316SOL    HW215786   3.969  11.760   2.217 -0.5806 -0.3235  2.1723
 3317SOL     OW15787   4.434   5.007   2.907 -0.2179 -0.6666  0.3350
 3317SOL    HW115788   4.487   5.080   2.938 -1.2857  0.3662 -0.1701
 3317SOL    HW215789   4.345   5.030   2.933 -0.8146 -0.9101 -1.3664
 3318SOL     OW15790   6.074   1.894   6.369  0.0016  0.0698  0.0773
 3318SOL    HW115791   6.102   1.956   6.436  1.3144 -1.7973  1.3491
 3318SOL    HW215792   6.011   1.943   6.316  2.6108  3.2274 -0.4241
 3319SOL     OW15793   9.780   1.344   2.986 -0.1163  0.5985  0.3055
 3319SOL    HW115794   9.834   1.324   3.063  0.6868  1.3189 -0.0481
 3319SOL    HW215795   9.758   1.437   2.997 -1.5974  0.2375  0.6136
 3320SOL     OW15796   0.470   9.802   6.719  0.6169  0.2146 -0.1174
 3320SOL    HW115797   0.380   9.829   6.698  0.3442 -0.1828  0.4872
 3320SOL    HW215798   0.508   9.777   6.635  0.1861  0.4658 -0.3919
 3321SOL     OW15799   7.811  10.700   6.195 -0.1127 -0.0420 -0.0718
 3321SOL    HW115800   7.825  10.606   6.192 -1.4912 -0.2402 -1.7691
 3321SOL    HW215801   7.802  10.720   6.288 -0.9667 -1.7879  0.2619
 3322SOL     OW15802  11.626   2.244   5.531 -0.2929  0.3823 -0.4907
 3322SOL    HW115803  11.697   2.207   5.479  0.8360  0.0655  1.2013
 3322SOL    HW215804  11.550   2.240   5.473  0.5590 -1.3515 -1.5946
 3323SOL     OW15805   3.271   2.076   2.888  0.0003 -0.0273 -0.2854
 3323SOL    HW115806   3.318   2.119   2.817 -0.0923  1.5735  0.5865
 3323SOL    HW215807   3.334   2.073   2.960 -0.4787 -0.0347  0.1364
 3324SOL     OW15808   1.970   8.438   4.229 -0.3603  0.1623 -0.0066
 3324SOL    HW115809   1.929   8.403   4.150  1.4528 -1.0674 -0.4526
 3324SOL    HW215810   2.060   8.456   4.203  0.5022 -1.0267  2.0013
 3325SOL     OW15811   2.776   1.395   5.069 -0.0935 -0.4600 -0.3157
 3325SOL    HW115812   2.729   1.328   5.120  0.0307 -0.8302 -0.6793
 3325SOL    HW215813   2.779   1.359   4.980 -1.3837  0.7159 -0.8775
 3326SOL     OW15814   6.085   5.262   0.552 -0.3319 -0.2090  0.5846
 3326SOL    HW115815   6.079   5.166   0.559  2.2674 -0.5247 -0.6187
 3326SOL    HW215816   6.079   5.279   0.458 -1.3468  0.9167  0.8284
 3327SOL     OW15817   3.663   5.759  12.113 -0.7286  0.2794 -0.1574
 3327SOL    HW115818   3.739   5.817  12.117 -0.8979  0.5390 -0.6502
 3327SOL    HW215819   3.699   5.672  12.129 -0.3784  0.4383 -0.0593
 3328SOL     OW15820   3.273   0.608   3.936  0.1438 -0.2478 -0.1242
 3328SOL    HW115821   3.344   0.653   3.891  0.4614  0.0626  0.6741
 3328SOL    HW215822   3.316   0.559   4.006  0.0170 -3.0672 -1.8474
 3329SOL     OW15823   3.387   4.375  10.080 -0.5919 -0.5321 -0.1045
 3329SOL    HW115824   3.306   4.401  10.036 -0.2171 -0.1149 -0.5674
 3329SOL    HW215825   3.404   4.447  10.142 -0.1790 -0.2351 -0.5496
 3330SOL     OW15826   4.621   0.096   5.679  0.0855 -0.5020 -0.1145
 3330SOL    HW115827   4.586   0.178   5.714 -0.2076 -0.0640 -1.3869
 3330SOL    HW215828   4.712   0.115   5.659 -0.5536  0.3046 -2.6428
 3331SOL     OW15829  11.896   4.488  11.850 -0.0154 -0.5933 -0.0342
 3331SOL    HW115830  11.857   4.568  11.815 -1.0288 -0.5313  1.1483
 3331SOL    HW215831  11.980   4.515  11.885  0.0032 -0.2166 -0.3650
 3332SOL     OW15832   8.270   6.979   9.164 -0.3919 -0.3304  0.0637
 3332SOL    HW115833   8.287   6.977   9.258 -0.6862 -0.1322  0.1250
 3332SOL    HW215834   8.267   6.887   9.138 -0.0423 -0.3794  0.1979
 3333SOL     OW15835   0.763   4.063   8.199 -0.2014 -0.2131  0.0122
 3333SOL    HW115836   0.712   4.058   8.280 -2.4429  1.8665 -1.1133
 3333SOL    HW215837   0.728   3.992   8.145  0.0629 -0.5087  0.2245
 3334SOL     OW15838   7.522   1.367   2.436 -0.2083 -0.1834 -0.1325
 3334SOL    HW115839   7.463   1.441   2.451  1.5103  1.9054 -2.5826
 3334SOL    HW215840   7.561   1.385   2.350  0.2250 -4.0855 -0.9499
 3335SOL     OW15841   9.517   3.919   5.533 -0.0465  0.0100 -0.5495
 3335SOL    HW115842   9.562   3.983   5.588 -0.0308  0.9062 -1.5545
 3335SOL    HW215843   9.430   3.957   5.518  0.0568 -0.0475 -1.3819
 3336SOL     OW15844  10.212   8.760   8.048 -0.0068  0.0862  0.4308
 3336SOL    HW115845  10.285   8.707   8.081  0.1366  0.2017  0.3001
 3336SOL    HW215846  10.161   8.700   7.995 -0.8445 -0.3955  1.7258
 3337SOL     OW15847   3.752   8.778   2.279  0.0497 -0.1313 -0.6188
 3337SOL    HW115848   3.827   8.807   2.331 -0.3522 -0.4793  0.1752
 3337SOL    HW215849   3.788   8.710   2.222  0.5679  0.4961 -1.0509
 3338SOL     OW15850  11.586   0.955   3.971  0.3125 -0.5581 -0.0665
 3338SOL    HW115851  11.513   0.894   3.987  1.2016 -1.6644 -0.1341
 3338SOL    HW215852  11.598   0.999   4.055 -1.8022  1.2150 -0.5984
 3339SOL     OW15853   5.281   9.011  11.446  0.0922  0.0644  0.0128
 3339SOL    HW115854   5.207   8.984  11.501  0.9113  0.8085  1.5242
 3339SOL    HW215855   5.306   8.931  11.399 -1.4590 -0.2741 -0.2988
 3340SOL     OW15856   6.645   8.240   4.992  0.1355  0.6318  0.1028
 3340SOL    HW115857   6.590   8.310   4.956 -1.8487  0.2364  2.1107
 3340SOL    HW215858   6.728   8.284   5.013  0.2311  1.5295 -1.8867
 3341SOL     OW15859  10.164   2.211   9.340  0.3153  0.3340  0.3508
 3341SOL    HW115860  10.078   2.192   9.302  0.8874  0.2820 -0.9444
 3341SOL    HW215861  10.215   2.248   9.268  1.9835 -1.3430  0.5916
 3342SOL     OW15862   9.528   8.710   4.881 -0.6392 -0.1990  0.2787
 3342SOL    HW115863   9.616   8.741   4.863 -0.7651 -0.2197 -0.3869
 3342SOL    HW215864   9.496   8.676   4.797 -1.6005  0.6146  0.3010
 3343SOL     OW15865  11.285   7.445   0.393  0.9482 -0.1857  0.0146
 3343SOL    HW115866  11.208   7.414   0.441  1.4912 -0.8136  0.5026
 3343SOL    HW215867  11.265   7.429   0.301  0.5263 -0.4079  0.1446
 3344SOL     OW15868   7.476   3.775  11.138 -0.1103 -0.2336 -0.2185
 3344SOL    HW115869   7.538   3.808  11.203 -0.9796  2.2911 -0.5380
 3344SOL    HW215870   7.413   3.725  11.188  1.3946 -1.7300  0.2824
 3345SOL     OW15871  10.007   4.169   2.669  0.2130 -0.0881  0.0308
 3345SOL    HW115872   9.912   4.161   2.676  0.2987  0.1088  1.7847
 3345SOL    HW215873  10.033   4.097   2.612 -1.0812  0.5381 -1.4178
 3346SOL     OW15874  10.767   5.428   4.510 -0.0629  0.3508  0.5150
 3346SOL    HW115875  10.697   5.477   4.468  0.3341  0.4996  0.0222
 3346SOL    HW215876  10.848   5.468   4.477  0.2906 -1.1870 -0.5883
 3347SOL     OW15877   6.486   3.773   8.964 -0.0379  0.1987  0.0960
 3347SOL    HW115878   6.547   3.713   8.921  2.0264  1.9813  0.3701
 3347SOL    HW215879   6.480   3.740   9.054  1.9320  0.9070  0.5469
 3348SOL     OW15880   6.385   6.159   2.997 -0.2486 -0.3647 -0.3922
 3348SOL    HW115881   6.394   6.244   2.954  0.0944 -0.4259 -0.4454
 3348SOL    HW215882   6.300   6.163   3.041  1.7546  1.8993  3.8554
 3349SOL     OW15883   4.437   5.823   9.813 -0.8436  0.4138  0.0437
 3349SOL    HW115884   4.532   5.824   9.822 -0.4316  3.4200 -2.7168
 3349SOL    HW215885   4.404   5.815   9.902  1.9254 -1.6136  1.0069
 3350SOL     OW15886  11.834  11.293   7.593  0.4193  0.1556  0.0386
 3350SOL    HW115887  11.806  11.245   7.671  0.7007  1.2878  0.8713
 3350SOL    HW215888  11.858  11.380   7.626 -1.7555  1.4948 -1.6358
 3351SOL     OW15889   6.954   1.724   1.444  0.3935  0.1348  0.3745
 3351SOL    HW115890   7.047   1.747   1.440  0.6104 -0.6958  0.4901
 3351SOL    HW215891   6.953   1.629   1.449 -0.4891  0.1087 -0.1138
 3352SOL     OW15892   8.507   3.571   7.783 -0.2706  0.3566  0.1219
 3352SOL    HW115893   8.487   3.497   7.726  1.3165 -1.1156  1.3636
 3352SOL    HW215894   8.603   3.576   7.783 -0.3233  3.2501 -0.8816
 3353SOL     OW15895   0.693   1.189   5.572 -0.2614 -0.0108 -0.3464
 3353SOL    HW115896   0.605   1.168   5.602 -0.6676 -0.6620 -1.8676
 3353SOL    HW215897   0.721   1.112   5.523 -0.7147  1.7807 -3.7866
 3354SOL     OW15898   7.300   2.473   2.854  0.6837  0.2714  0.1244
 3354SOL    HW115899   7.231   2.453   2.791  1.0832 -0.2117 -0.1658
 3354SOL    HW215900   7.292   2.567   2.870  0.7883  0.4636 -0.9038
 3355SOL     OW15901   5.771   7.991   5.097  0.4375 -0.1416  0.0210
 3355SOL    HW115902   5.842   8.053   5.108 -0.2978  0.4773  1.5398
 3355SOL    HW215903   5.811   7.905   5.110  1.7990 -0.2519 -3.6257
 3356SOL     OW15904   2.330   9.230  10.115 -0.2706  0.0429 -0.1368
 3356SOL    HW115905   2.264   9.260  10.178 -0.7739  0.3966 -0.8207
 3356SOL    HW215906   2.322   9.290  10.042  0.7592  0.0288 -0.2736
 3357SOL     OW15907   7.003  11.172   3.558  0.1924 -0.3495  0.1509
 3357SOL    HW115908   7.030  11.264   3.555 -2.2969  0.5382  1.5351
 3357SOL    HW215909   6.976  11.153   3.468 -0.1317  0.5836  0.0348
 3358SOL     OW15910  10.296   7.689   6.144  0.0952  0.1093  0.0556
 3358SOL    HW115911  10.330   7.635   6.216  2.0812 -1.2794 -1.7855
 3358SOL    HW215912  10.316   7.638   6.065 -0.5966  2.2650 -1.5914
 3359SOL     OW15913  11.101   8.337  11.825 -0.5530  0.1534 -0.2041
 3359SOL    HW115914  11.059   8.365  11.744 -0.7728  0.6098  0.0599
 3359SOL    HW215915  11.029   8.334  11.889 -0.4887 -0.7634 -0.1572
 3360SOL     OW15916   5.105   1.263   4.368 -0.2197  0.8389  0.0569
 3360SOL    HW115917   5.078   1.234   4.281  1.9016 -2.8821  0.4286
 3360SOL    HW215918   5.191   1.303   4.354 -0.6446  1.8793  0.2944
 3361SOL     OW15919   5.938   2.580  10.205 -0.0324  0.1245  0.0110
 3361SOL    HW115920   6.015   2.529  10.179 -0.6215 -0.0808 -1.3947
 3361SOL    HW215921   5.876   2.514  10.238 -0.2147  0.1014 -0.3748
 3362SOL     OW15922   6.591   0.376   4.759  0.4458 -0.1592 -0.1630
 3362SOL    HW115923   6.511   0.396   4.712  1.1154  0.4568 -1.0658
 3362SOL    HW215924   6.569   0.300   4.813 -0.6021 -0.2878 -0.7579
 3363SOL     OW15925   8.813   1.386   4.404  0.3168  0.6726  0.0802
 3363SOL    HW115926   8.788   1.433   4.483  0.8982  0.7903  0.1967
 3363SOL    HW215927   8.852   1.305   4.435 -0.6598  0.1054 -0.1200
 3364SOL     OW15928   3.098  10.447  10.480  0.0584 -0.7850  0.5289
 3364SOL    HW115929   3.010  10.467  10.449  0.3761 -0.9359 -0.4901
 3364SOL    HW215930   3.147  10.528  10.469  0.9385 -1.5804 -2.1641
 3365SOL     OW15931   4.847   6.778   9.746  0.7581 -0.0180 -0.0600
 3365SOL    HW115932   4.801   6.815   9.821  0.3837 -1.3870  0.4061
 3365SOL    HW215933   4.936   6.763   9.776  0.2200 -2.0207  0.6419
 3366SOL     OW15934   0.084   3.660  11.683 -0.3776 -0.2008 -0.2954
 3366SOL    HW115935   0.052   3.695  11.766  0.8937  3.6700 -1.2258
 3366SOL    HW215936   0.004   3.643  11.632 -1.1089  0.7321  0.5020
 3367SOL     OW15937   2.815  10.041   0.373 -0.1949  0.1352  0.3284
 3367SOL    HW115938   2.879   9.975   0.344 -0.2103  0.0389  0.5103
 3367SOL    HW215939   2.810  10.029   0.468 -0.9133 -0.2516  0.2506
 3368SOL     OW15940   1.918   6.393  10.938  0.5787  0.4512  0.2325
 3368SOL    HW115941   1.955   6.317  10.894  1.3366  0.4124  0.9150
 3368SOL    HW215942   1.825   6.372  10.948  0.3440  0.5206 -1.4451
 3369SOL     OW15943   8.771  11.809  10.648  0.3026 -0.1847 -0.4986
 3369SOL    HW115944   8.760  11.903  10.659  1.0366 -0.1422 -0.0622
 3369SOL    HW215945   8.733  11.771  10.727  2.6475 -0.0633  0.7777
 3370SOL     OW15946   2.634   7.857   1.001 -0.4193  0.0818  0.1070
 3370SOL    HW115947   2.617   7.768   0.970 -1.6880  0.8790 -1.6168
 3370SOL    HW215948   2.698   7.892   0.940  2.2879 -0.4765  2.3903
 3371SOL     OW15949   8.012  10.711   4.155 -0.5613  0.3244 -0.5324
 3371SOL    HW115950   7.957  10.664   4.217  1.5779 -1.7521 -0.0526
 3371SOL    HW215951   8.078  10.647   4.128  0.6091  2.1674 -2.3638
 3372SOL     OW15952   5.691   7.578  11.635 -0.3826 -0.3373  0.0103
 3372SOL    HW115953   5.738   7.656  11.607 -2.0652  1.2369  1.2875
 3372SOL    HW215954   5.703   7.515  11.564  0.1649  1.4422 -1.5410
 3373SOL     OW15955   0.455   8.547   8.426  0.0028 -0.0210 -0.5809
 3373SOL    HW115956   0.519   8.476   8.424  0.2210  0.1327  0.3550
 3373SOL    HW215957   0.462   8.583   8.514 -0.8657  0.4689 -0.6994
 3374SOL     OW15958   5.889  11.597  12.074  0.4573 -0.0377 -0.0498
 3374SOL    HW115959   5.867  11.571  12.164  0.9681  0.2242  0.1590
 3374SOL    HW215960   5.923  11.686  12.083  1.2053 -0.2826 -0.4059
 3375SOL     OW15961   3.679  11.590   9.239  0.2346  0.5901 -0.3479
 3375SOL    HW115962   3.725  11.578   9.156  1.2536  0.1832  0.2644
 3375SOL    HW215963   3.674  11.685   9.250 -1.7561  0.7316 -1.8581
 3376SOL     OW15964  10.782  11.823   4.590  0.1986 -0.6292 -0.0442
 3376SOL    HW115965  10.847  11.753   4.598 -0.4835 -1.2635  0.0871
 3376SOL    HW215966  10.700  11.777   4.571 -0.2090  0.1569 -0.2197
 3377SOL     OW15967  10.711   2.005   5.564 -0.0556  0.3754  0.1417
 3377SOL    HW115968  10.781   1.941   5.550 -1.3233 -0.6170 -2.2975
 3377SOL    HW215969  10.694   2.042   5.477 -2.0460  1.1399  0.7817
 3378SOL     OW15970  10.604   1.543   3.328  0.1074 -0.4071  0.5459
 3378SOL    HW115971  10.583   1.614   3.268  0.4341 -0.7657 -0.0034
 3378SOL    HW215972  10.564   1.465   3.288 -0.1914 -0.5501  1.1037
 3379SOL     OW15973   9.490   1.305   7.738 -0.1954  0.0198 -0.3757
 3379SOL    HW115974   9.580   1.336   7.729 -0.3859  0.3074 -1.4997
 3379SOL    HW215975   9.439   1.384   7.759  0.0062 -0.3841  1.7632
 3380SOL     OW15976  11.293   1.005   5.979 -0.1317  0.9335 -0.0728
 3380SOL    HW115977  11.256   0.918   5.962  0.5583  0.6566 -0.1597
 3380SOL    HW215978  11.369   0.988   6.034 -0.1734  1.5165  0.1720
 3381SOL     OW15979   1.394   0.879   8.344 -0.4515 -0.2088 -0.2415
 3381SOL    HW115980   1.398   0.857   8.437 -1.0434 -0.0207 -0.1643
 3381SOL    HW215981   1.373   0.796   8.301 -3.7599  0.2668  0.1501
 3382SOL     OW15982   2.048   9.236   1.589 -0.2946  0.1012 -0.6349
 3382SOL    HW115983   2.014   9.275   1.669  0.1344  1.3302 -1.0359
 3382SOL    HW215984   2.070   9.310   1.533 -0.0607 -0.7270 -1.6782
 3383SOL     OW15985   1.760  10.651   9.731  0.5003 -0.7200 -0.3712
 3383SOL    HW115986   1.695  10.721   9.728 -0.6087 -1.6657  0.7346
 3383SOL    HW215987   1.747  10.601   9.651 -0.3403 -1.0602 -0.0318
 3384SOL     OW15988  10.025   5.278  10.879  0.3663  0.6100  0.0181
 3384SOL    HW115989  10.016   5.359  10.930  0.1260  0.1764  0.6719
 3384SOL    HW215990   9.963   5.217  10.919  0.3045  0.2027 -0.6829
 3385SOL     OW15991   6.999   9.952   0.090  0.1851 -0.1167 -0.0584
 3385SOL    HW115992   6.935   9.935   0.159 -2.0513 -1.4945 -2.2997
 3385SOL    HW215993   7.017  10.046   0.097 -0.9232  0.0145  1.5915
 3386SOL     OW15994   4.236   3.256   1.806 -0.1511 -0.0584 -0.1749
 3386SOL    HW115995   4.150   3.283   1.839 -0.6449 -1.0323 -0.6171
 3386SOL    HW215996   4.241   3.162   1.826  0.7747 -0.0307 -0.2341
 3387SOL     OW15997   0.738   7.381  10.453  0.3419  0.1841 -0.0974
 3387SOL    HW115998   0.720   7.332  10.373 -0.5380 -0.6880  0.6069
 3387SOL    HW215999   0.793   7.322  10.505  1.8515  1.1817 -0.4877
 3388SOL     OW16000   4.065   3.884   0.787  0.2168  0.1154  0.5732
 3388SOL    HW116001   4.004   3.934   0.734  1.9669  1.4097 -0.3290
 3388SOL    HW216002   4.102   3.819   0.727  1.4279  0.8961  0.4243
 3389SOL     OW16003   5.587   3.469  11.993  0.8479 -0.0892  0.1589
 3389SOL    HW116004   5.549   3.386  12.022 -0.3027 -1.1632 -3.7405
 3389SOL    HW216005   5.553   3.535  12.054 -1.5437 -1.9606  0.9988
 3390SOL     OW16006   8.022   2.905  10.342 -0.0101 -0.0668 -0.1876
 3390SOL    HW116007   7.993   2.831  10.290 -3.0542  0.9969 -0.2032
 3390SOL    HW216008   7.963   2.977  10.318  1.8678  1.9890  0.8763
 3391SOL     OW16009  12.107   1.203   4.021 -0.0969  1.2588 -0.1183
 3391SOL    HW116010  12.014   1.187   4.004  0.2407 -0.8704 -0.2214
 3391SOL    HW216011  12.150   1.187   3.937  0.4355  1.7735  0.0478
 3392SOL     OW16012   7.258   3.704  12.018 -0.2381  0.3152  0.4510
 3392SOL    HW116013   7.165   3.712  12.043 -0.4370  0.7210 -0.3879
 3392SOL    HW216014   7.271   3.773  11.953 -0.0410 -1.4804 -1.5082
 3393SOL     OW16015   2.056  11.132   2.189  0.0252 -0.0256 -0.7936
 3393SOL    HW116016   2.118  11.069   2.226 -0.5373  0.3896  0.9719
 3393SOL    HW216017   2.066  11.210   2.243 -1.7304  0.1895 -0.7082
 3394SOL     OW16018  11.429   9.694   7.993  0.0400  0.4833  0.5520
 3394SOL    HW116019  11.449   9.777   8.035  1.3432  0.0259  0.8778
 3394SOL    HW216020  11.410   9.717   7.902  1.9396  1.0031  0.2455
 3395SOL     OW16021   6.782   1.692   6.836 -0.1097  0.1471  0.3494
 3395SOL    HW116022   6.730   1.625   6.880 -0.2642  0.4483  0.6331
 3395SOL    HW216023   6.838   1.644   6.776 -2.2531 -0.0823 -1.6383
 3396SOL     OW16024   9.649   8.572  11.618 -0.3876 -0.1021  0.6635
 3396SOL    HW116025   9.701   8.522  11.555  0.8641 -0.8576  2.2184
 3396SOL    HW216026   9.583   8.616  11.565 -0.5195 -2.1187 -0.9864
 3397SOL     OW16027   2.592   2.304   6.213  0.8064  0.1878  0.6657
 3397SOL    HW116028   2.687   2.293   6.222  1.2034 -0.1230 -2.6844
 3397SOL    HW216029   2.579   2.398   6.207  1.1589  0.1749 -0.5607
 3398SOL     OW16030   4.267   5.151   8.267 -0.0032 -0.5847 -0.6200
 3398SOL    HW116031   4.357   5.120   8.257 -0.2677 -1.0468 -1.6686
 3398SOL    HW216032   4.226   5.135   8.183 -1.4286 -1.5241  0.2086
 3399SOL     OW16033  11.802   4.800   1.477 -0.7286 -0.0914 -0.3091
 3399SOL    HW116034  11.885   4.831   1.513 -0.6476 -0.5783 -0.0780
 3399SOL    HW216035  11.763   4.748   1.547 -1.0626 -0.1659 -0.5458
 3400SOL     OW16036   0.376   9.622   6.490 -0.6473 -0.2501  0.1909
 3400SOL    HW116037   0.300   9.625   6.548 -0.7841  1.0893 -0.0240
 3400SOL    HW216038   0.355   9.683   6.419  0.5808  0.0782  0.0827
 3401SOL     OW16039   7.232  11.957   7.629  0.0064  0.8036  0.8136
 3401SOL    HW116040   7.153  11.921   7.588  0.6487  0.5905 -0.2698
 3401SOL    HW216041   7.296  11.962   7.559  1.4716 -0.4955  1.9846
 3402SOL     OW16042   1.165   6.729   3.611  0.0010 -0.4147  0.1263
 3402SOL    HW116043   1.179   6.812   3.657 -0.8443  0.2087 -0.6994
 3402SOL    HW216044   1.100   6.683   3.664  0.3075 -0.4577  0.4691
 3403SOL     OW16045  11.859   2.716   7.149  0.1139 -0.5665  0.0414
 3403SOL    HW116046  11.908   2.754   7.077 -0.5173  0.0528 -0.0733
 3403SOL    HW216047  11.926   2.675   7.204  0.5008 -2.1294 -1.5046
 3404SOL     OW16048   6.821   4.947   0.726 -0.6430  0.0764 -0.2582
 3404SOL    HW116049   6.767   4.993   0.661 -0.3353  0.5528 -0.1862
 3404SOL    HW216050   6.764   4.879   0.761 -1.7146  1.5188  0.9201
 3405SOL     OW16051   4.998   7.972   5.818 -0.3467  0.7835 -0.2630
 3405SOL    HW116052   4.968   7.945   5.905  0.5408  0.1635 -0.1306
 3405SOL    HW216053   5.069   7.912   5.798  1.4325  2.7208 -0.1530
 3406SOL     OW16054   5.790  11.385   6.580 -0.7002  0.3765 -0.0923
 3406SOL    HW116055   5.774  11.316   6.516 -0.3998  1.4943 -1.4254
 3406SOL    HW216056   5.874  11.423   6.553 -0.9074  1.3161  0.5461
 3407SOL     OW16057   3.470   9.294   6.554  0.3624  0.0933 -0.0765
 3407SOL    HW116058   3.529   9.224   6.524 -1.1073 -0.4814 -1.7888
 3407SOL    HW216059   3.418   9.253   6.623  0.6459  0.0325  0.1068
 3408SOL     OW16060   7.859   8.020   1.235 -0.3747  0.5123 -0.0892
 3408SOL    HW116061   7.899   7.965   1.167 -1.2880  0.8978 -0.9658
 3408SOL    HW216062   7.766   8.020   1.214 -0.8561 -0.2995  1.8703
 3409SOL     OW16063   5.321   8.091  12.226 -0.6074 -0.3538  0.0795
 3409SOL    HW116064   5.282   8.004  12.230 -0.0777 -0.6020 -0.0747
 3409SOL    HW216065   5.399   8.085  12.281 -0.1916 -0.1809 -0.4724
 3410SOL     OW16066   3.042   7.514   9.876 -0.1381  0.5042 -0.0976
 3410SOL    HW116067   3.127   7.492   9.839  0.2314  0.3133  0.8434
 3410SOL    HW216068   2.981   7.456   9.831  0.1566  0.9317 -1.0776
 3411SOL     OW16069   8.031   8.203   0.371  0.7198 -0.0136  0.4272
 3411SOL    HW116070   8.119   8.233   0.348 -0.3131  2.0170 -1.2833
 3411SOL    HW216071   7.985   8.283   0.396 -1.4732 -0.4737 -1.8065
 3412SOL     OW16072   6.299   9.498   8.304 -0.1804 -0.6312  0.0455
 3412SOL    HW116073   6.393   9.511   8.318 -0.3020  0.3654  0.0314
 3412SOL    HW216074   6.278   9.422   8.357  0.7774 -1.3368 -0.5521
 3413SOL     OW16075   9.004  10.931   0.327  0.3788 -0.0019 -0.1581
 3413SOL    HW116076   8.918  10.924   0.367 -0.2732  1.1263 -1.2940
 3413SOL    HW216077   9.046  10.847   0.345 -0.5157 -0.1637  1.3640
 3414SOL     OW16078   9.746  11.082   1.903 -0.4921 -0.2426 -0.2564
 3414SOL    HW116079   9.665  11.037   1.876 -1.7561  1.4877  0.4350
 3414SOL    HW216080   9.741  11.167   1.859  1.6723 -0.5963 -1.2820
 3415SOL     OW16081   4.270  10.116   1.536 -0.2627 -0.2305  0.2725
 3415SOL    HW116082   4.270  10.191   1.476  1.3173 -1.1111 -0.9029
 3415SOL    HW216083   4.281  10.040   1.479  1.1173 -1.1196  1.6572
 3416SOL     OW16084  10.416  10.442   7.654 -0.0687 -0.2713  0.3754
 3416SOL    HW116085  10.396  10.455   7.747 -0.9528 -1.9511  0.4568
 3416SOL    HW216086  10.371  10.361   7.631  0.8902 -0.3709 -1.3035
 3417SOL     OW16087  11.941  11.378   7.164  0.0212  0.6565  1.1519
 3417SOL    HW116088  11.948  11.422   7.249 -0.6259  0.0772  1.5229
 3417SOL    HW216089  11.883  11.303   7.181 -0.5170  0.8092  0.0846
 3418SOL     OW16090  11.436  11.861   4.159  0.1186  0.3145  0.3915
 3418SOL    HW116091  11.436  11.957   4.149  0.2332  0.3818  0.9874
 3418SOL    HW216092  11.359  11.843   4.213  0.3053  0.1070  0.5885
 3419SOL     OW16093   6.560   0.755   7.517 -0.2622  0.2795 -0.2042
 3419SOL    HW116094   6.545   0.682   7.457 -2.7044  0.1619  0.4402
 3419SOL    HW216095   6.474   0.793   7.531  0.6838  2.1961  0.8925
 3420SOL     OW16096   0.590   1.062   4.572 -0.1361 -0.2545 -0.3283
 3420SOL    HW116097   0.504   1.019   4.570 -0.1397 -0.3983  1.2373
 3420SOL    HW216098   0.569   1.155   4.568 -0.3007 -0.3133 -0.9123
 3421SOL     OW16099   6.722   7.361  10.920 -0.2593 -0.5061  0.1512
 3421SOL    HW116100   6.648   7.313  10.957  0.0620 -0.3715  0.9917
 3421SOL    HW216101   6.793   7.348  10.984 -0.3747  1.7087  0.8079
 3422SOL     OW16102   1.504  11.201   7.117 -0.3817  0.4008 -0.1375
 3422SOL    HW116103   1.472  11.157   7.195 -0.3649 -1.3678 -1.0775
 3422SOL    HW216104   1.426  11.238   7.076 -0.7349 -0.6793 -0.4724
 3423SOL     OW16105   1.560   7.068   6.503 -0.2088 -0.0052 -0.1762
 3423SOL    HW116106   1.558   6.982   6.545  0.6094  0.2519  0.4228
 3423SOL    HW216107   1.637   7.111   6.540 -1.0602  1.3071  0.1416
 3424SOL     OW16108   9.549   0.245   6.426  0.7526  0.4008 -0.0887
 3424SOL    HW116109   9.486   0.286   6.367  0.7501 -1.4313 -1.4374
 3424SOL    HW216110   9.541   0.295   6.508 -1.6021  0.9572 -0.5854
 3425SOL     OW16111   0.753   3.301   6.533  0.0035  0.1236  0.5195
 3425SOL    HW116112   0.702   3.233   6.577 -0.6275  0.1795 -0.0897
 3425SOL    HW216113   0.692   3.375   6.527  0.6401  0.7003  1.0596
 3426SOL     OW16114   9.472   1.653   7.959 -0.3294  0.1438  0.0080
 3426SOL    HW116115   9.457   1.705   8.038  1.1818 -0.8097  0.9828
 3426SOL    HW216116   9.509   1.715   7.896  2.1739  0.2259  1.3973
 3427SOL     OW16117   5.038  11.801  10.558  0.2361 -0.1815  0.6340
 3427SOL    HW116118   4.980  11.762  10.493 -1.5923  1.4990  1.1796
 3427SOL    HW216119   5.099  11.730  10.581  1.2608 -0.7411 -3.1241
 3428SOL     OW16120   8.785   1.188   4.677  0.1046  0.5818  1.4615
 3428SOL    HW116121   8.736   1.242   4.739 -1.2398  2.5070 -1.0883
 3428SOL    HW216122   8.875   1.220   4.684 -0.6327  3.2048  0.1292
 3429SOL     OW16123   4.565   5.237  11.085  0.4477  0.4021 -0.0695
 3429SOL    HW116124   4.556   5.142  11.076 -1.0610  0.5808 -0.6014
 3429SOL    HW216125   4.476   5.270  11.093  0.9028  1.8463 -0.5529
 3430SOL     OW16126   0.434   3.307   6.643  0.0950  0.0271 -0.1485
 3430SOL    HW116127   0.379   3.337   6.570  0.9135 -0.0096 -0.7972
 3430SOL    HW216128   0.449   3.214   6.625 -1.5811 -0.5601  1.3057
 3431SOL     OW16129   9.728   7.676   5.989  0.0559  0.1346  0.4947
 3431SOL    HW116130   9.736   7.728   5.909  0.3740 -2.6171 -1.3787
 3431SOL    HW216131   9.751   7.738   6.059  1.4465  2.2425 -1.6368
 3432SOL     OW16132   2.305   3.792   5.509 -0.2794  0.2245  0.3992
 3432SOL    HW116133   2.302   3.887   5.499 -1.7742  0.3433  1.6059
 3432SOL    HW216134   2.267   3.776   5.596  1.1591 -1.4019  0.7855
 3433SOL     OW16135  11.500   1.825   9.162  0.0351  0.0886  0.6972
 3433SOL    HW116136  11.555   1.802   9.237  0.3571  1.0032  0.7595
 3433SOL    HW216137  11.559   1.816   9.086  0.3238  1.1926  0.7760
 3434SOL     OW16138   9.860   6.632   5.494  0.0651 -0.4237 -0.5312
 3434SOL    HW116139   9.842   6.642   5.588 -0.1045  1.5660 -0.7287
 3434SOL    HW216140   9.917   6.556   5.488  0.4600 -0.3097  1.2420
 3435SOL     OW16141   8.933   3.356   8.987  0.4773 -0.1360  0.2476
 3435SOL    HW116142   8.984   3.326   9.062  0.0326 -2.1358 -0.1949
 3435SOL    HW216143   8.977   3.436   8.958  1.5937 -0.2107  1.6520
 3436SOL     OW16144   9.659   0.893   9.242  0.3777 -0.1806  0.0591
 3436SOL    HW116145   9.685   0.806   9.214 -2.2756 -2.0912  2.8966
 3436SOL    HW216146   9.581   0.913   9.190  1.4429  0.9117 -1.1583
 3437SOL     OW16147   9.898   7.699   7.135  0.4857  0.0806  0.5808
 3437SOL    HW116148   9.869   7.620   7.180  0.7474 -0.4255 -0.1381
 3437SOL    HW216149   9.831   7.715   7.068  1.0015 -0.1500  0.0088
 3438SOL     OW16150   0.009  11.667  10.708 -0.1951 -0.2819  0.3576
 3438SOL    HW116151  -0.022  11.720  10.634  0.2927 -0.2960  0.1357
 3438SOL    HW216152  -0.017  11.716  10.786 -1.0113 -0.4347  0.1838
 3439SOL     OW16153   7.782  11.019   7.229  0.5251 -0.4873  0.2197
 3439SOL    HW116154   7.740  11.020   7.315  0.1238 -1.5068  0.0445
 3439SOL    HW216155   7.876  11.011   7.249  0.5131  0.2096  0.5762
 3440SOL     OW16156  12.274   1.305   2.974  0.1085 -0.1618  0.5038
 3440SOL    HW116157  12.281   1.212   2.950  1.1468 -0.0603  0.3564
 3440SOL    HW216158  12.194   1.311   3.025 -0.4463 -0.9816 -0.2309
 3441SOL     OW16159   9.098   7.298   4.867  0.0109 -0.4134  0.2940
 3441SOL    HW116160   9.066   7.385   4.891 -0.7206 -1.2103  2.4788
 3441SOL    HW216161   9.191   7.299   4.891  0.3051  0.1153 -0.8071
 3442SOL     OW16162   7.612  10.033   3.647  0.2964 -0.4441  0.3211
 3442SOL    HW116163   7.619  10.030   3.742  0.0906 -2.0329  0.3149
 3442SOL    HW216164   7.701  10.017   3.615  0.1143 -1.3898  0.2596
 3443SOL     OW16165   5.997   0.489  10.263  0.1835 -0.3950 -0.0271
 3443SOL    HW116166   5.946   0.534  10.331 -0.1774  0.5885 -0.9264
 3443SOL    HW216167   6.047   0.423  10.311 -1.6888 -1.1984  0.9309
 3444SOL     OW16168   2.031  11.713  10.545  0.5224  0.2189 -0.1661
 3444SOL    HW116169   1.961  11.703  10.480  0.4402  0.0381 -0.0507
 3444SOL    HW216170   2.096  11.768  10.501 -0.1552  1.2673  0.1061
 3445SOL     OW16171   3.122   6.274   6.565 -0.3066  0.1224 -0.8851
 3445SOL    HW116172   3.127   6.231   6.479 -1.5081  1.2585 -1.5722
 3445SOL    HW216173   3.071   6.353   6.548 -1.7788 -0.3175  1.1547
 3446SOL     OW16174   5.026   0.993   4.507  0.3067 -0.3176 -0.5317
 3446SOL    HW116175   5.056   1.002   4.417  0.2671 -1.2963 -0.6447
 3446SOL    HW216176   4.966   1.067   4.520 -1.6162 -1.5115 -2.1036
 3447SOL     OW16177   1.874  10.312  10.014  0.1418 -0.2388 -0.6959
 3447SOL    HW116178   1.838  10.237  10.063  0.3069  0.0281 -0.1581
 3447SOL    HW216179   1.954  10.277   9.974  1.2473  0.1349  1.0981
 3448SOL     OW16180   2.797   6.169   6.550  0.1778  0.7230  0.0498
 3448SOL    HW116181   2.721   6.207   6.595 -0.3487 -0.8628  0.5595
 3448SOL    HW216182   2.760   6.124   6.474  0.5405 -0.3780  0.5059
 3449SOL     OW16183   1.254  10.696   0.397  0.8904 -0.2784 -0.4907
 3449SOL    HW116184   1.262  10.790   0.414  1.5289 -0.4621  0.2634
 3449SOL    HW216185   1.303  10.682   0.316  0.3440  0.1166 -0.8989
 3450SOL     OW16186  12.032   5.040   2.330  0.2005 -0.1643 -0.2257
 3450SOL    HW116187  11.972   5.061   2.402 -0.5770 -2.2503 -0.1935
 3450SOL    HW216188  11.979   5.052   2.251 -0.6834 -2.9231 -0.1610
 3451SOL     OW16189  12.050   9.764  10.336 -0.2869 -0.3940  0.2607
 3451SOL    HW116190  12.040   9.748  10.430  0.2030 -2.3642  0.0076
 3451SOL    HW216191  12.096   9.848  10.331 -0.5803 -0.1168  1.7568
 3452SOL     OW16192   1.021  12.051   3.155  0.4354  0.0370  0.5477
 3452SOL    HW116193   1.116  12.037   3.154  0.4304 -0.0094 -0.6675
 3452SOL    HW216194   1.011  12.144   3.177  0.9356  0.9413 -2.6274
 3453SOL     OW16195   1.801   0.682   0.785  0.1751  0.4471  0.0921
 3453SOL    HW116196   1.789   0.631   0.865  1.7765  0.9022  0.6509
 3453SOL    HW216197   1.859   0.630   0.731 -1.2029 -0.0380 -0.9824
 3454SOL     OW16198  10.545   9.415   4.956  0.5273  0.3689  0.4882
 3454SOL    HW116199  10.456   9.401   4.988  0.6221  0.7351  0.9105
 3454SOL    HW216200  10.600   9.411   5.034  0.7870  0.9906  0.3408
 3455SOL     OW16201  11.888   5.197  12.011  0.0089  0.0323  0.0090
 3455SOL    HW116202  11.910   5.179  11.919  2.0687  2.1291 -0.0210
 3455SOL    HW216203  11.841   5.120  12.040  0.1919 -1.1433 -2.5279
 3456SOL     OW16204   3.016   7.006   9.520  0.0900  0.3452  0.2348
 3456SOL    HW116205   3.026   7.081   9.462  0.6333  0.0393 -0.0746
 3456SOL    HW216206   2.948   6.953   9.480  0.6826 -0.0253 -0.3088
 3457SOL     OW16207   2.809   7.334  10.571  0.2547 -0.3795 -0.4205
 3457SOL    HW116208   2.816   7.303  10.481  0.7948 -0.8080 -0.2363
 3457SOL    HW216209   2.897   7.321  10.608 -0.4659 -2.1925  0.7948
 3458SOL     OW16210   1.796   9.199  10.311 -0.0141 -0.2584 -0.4740
 3458SOL    HW116211   1.703   9.221  10.307 -0.2460 -1.1461 -0.2408
 3458SOL    HW216212   1.815   9.156  10.228  0.3245  0.3943 -0.7415
 3459SOL     OW16213   9.208   6.943   0.448  0.3250 -0.7214  0.6564
 3459SOL    HW116214   9.131   6.913   0.496  0.5919 -0.3919  1.3027
 3459SOL    HW216215   9.184   7.029   0.414 -0.0030 -1.1237 -0.1429
 3460SOL     OW16216   9.728   9.621   7.653 -0.1075  0.4437 -0.2992
 3460SOL    HW116217   9.793   9.631   7.583 -2.0807  1.4805 -2.1115
 3460SOL    HW216218   9.716   9.526   7.661  0.8952  0.2787 -0.6443
 3461SOL     OW16219   5.511   4.160  11.096 -0.3276 -0.0852  0.1537
 3461SOL    HW116220   5.519   4.072  11.060 -0.0416  0.4729 -1.1847
 3461SOL    HW216221   5.422   4.188  11.072  0.3670  0.8444 -1.4394
 3462SOL     OW16222  11.815   2.015   9.409  0.4182  0.1193 -0.2922
 3462SOL    HW116223  11.867   1.987   9.334  0.3277 -3.4978  0.8265
 3462SOL    HW216224  11.873   2.074   9.457  2.2645 -1.2078 -0.7857
 3463SOL     OW16225  10.720   0.978   7.378 -0.1546  0.2692  0.3219
 3463SOL    HW116226  10.628   0.962   7.359 -0.6152  2.5366  0.2801
 3463SOL    HW216227  10.723   0.991   7.473 -0.2769  2.1157  0.1103
 3464SOL     OW16228   2.794   1.439   2.754 -0.2489  0.0093 -0.3215
 3464SOL    HW116229   2.702   1.430   2.776 -0.1964  0.3671  0.0691
 3464SOL    HW216230   2.811   1.533   2.761  0.2396 -0.0961  0.0148
 3465SOL     OW16231   1.676   0.118   3.785 -0.3327 -0.2695 -0.1950
 3465SOL    HW116232   1.666   0.025   3.763  0.2841 -0.2340 -0.6550
 3465SOL    HW216233   1.591   0.157   3.765  0.0523 -0.3199 -2.1646
 3466SOL     OW16234   7.081   2.576   2.238  0.9055  0.3578 -0.0096
 3466SOL    HW116235   7.011   2.571   2.173  1.5831 -1.1932 -0.6768
 3466SOL    HW216236   7.062   2.655   2.288 -0.4504  0.8002 -1.1616
 3467SOL     OW16237   1.610  11.975   6.838 -0.5749  0.6626  0.0006
 3467SOL    HW116238   1.533  11.944   6.885 -1.1752  2.8750  0.6028
 3467SOL    HW216239   1.681  11.972   6.902 -1.3495  3.4891  1.1277
 3468SOL     OW16240   3.457  11.639  11.250  1.1341 -0.0636  0.2914
 3468SOL    HW116241   3.362  11.646  11.234  1.5267  1.1350 -2.0137
 3468SOL    HW216242   3.475  11.546  11.245  0.2536 -0.2045 -0.8230
 3469SOL     OW16243   9.505   6.958   3.520 -0.1012  0.3878  0.4744
 3469SOL    HW116244   9.538   6.934   3.433  1.6900 -0.4049  1.3249
 3469SOL    HW216245   9.473   7.047   3.509  0.0419  0.2852 -1.0150
 3470SOL     OW16246   6.696   6.127   3.324 -0.0678 -0.0253  0.1901
 3470SOL    HW116247   6.786   6.154   3.338 -0.0553  1.0075 -1.5456
 3470SOL    HW216248   6.702   6.049   3.269 -0.2163  0.7066 -0.9009
 3471SOL     OW16249   9.929   6.042   5.275  0.2196  0.0990  0.0942
 3471SOL    HW116250   9.967   5.955   5.282  1.1469  0.5375  0.8317
 3471SOL    HW216251   9.860   6.033   5.210  0.6649 -1.0574 -0.2511
 3472SOL     OW16252   0.690   8.569   4.813 -0.1931  0.3888  0.0343
 3472SOL    HW116253   0.608   8.549   4.858 -0.5320  0.8769 -0.3563
 3472SOL    HW216254   0.684   8.521   4.730  0.6196 -0.8633  0.6775
 3473SOL     OW16255   0.143   2.622   5.557  0.5075 -0.2889  0.0420
 3473SOL    HW116256   0.227   2.661   5.581 -0.9185  1.7948  2.2750
 3473SOL    HW216257   0.115   2.671   5.479  1.6058 -1.4869 -1.1512
 3474SOL     OW16258   9.119   1.216  12.283 -0.5855  0.2899  0.0829
 3474SOL    HW116259   9.121   1.178  12.371 -0.2976  2.0259  0.8796
 3474SOL    HW216260   9.036   1.263  12.279  0.4000  2.1361  0.3293
 3475SOL     OW16261   7.568  10.952   8.818 -0.7206 -0.3377  0.3342
 3475SOL    HW116262   7.649  11.003   8.823 -0.8121 -0.0253 -0.9803
 3475SOL    HW216263   7.590  10.877   8.762 -1.1091 -0.7172  0.6812
 3476SOL     OW16264   0.268   8.497   8.229 -0.2193 -0.2356 -0.5213
 3476SOL    HW116265   0.219   8.427   8.272 -1.0434  0.6962  0.1090
 3476SOL    HW216266   0.336   8.521   8.292 -0.8389  0.4935 -0.1160
 3477SOL     OW16267   1.868   4.556   6.394  0.0671 -0.2312 -0.1436
 3477SOL    HW116268   1.811   4.611   6.447  0.8452  1.1193 -0.6612
 3477SOL    HW216269   1.817   4.538   6.314 -0.0732 -0.0120 -0.1035
 3478SOL     OW16270   5.822   7.698   2.766 -0.4188  0.1581 -0.1576
 3478SOL    HW116271   5.903   7.680   2.813 -0.6069  0.9900  0.5103
 3478SOL    HW216272   5.765   7.624   2.786  0.3961 -0.7786 -1.1808
 3479SOL     OW16273   3.269   3.071   5.683 -0.1196 -0.4759 -0.1856
 3479SOL    HW116274   3.241   3.153   5.724 -0.9287 -0.7440 -0.1965
 3479SOL    HW216275   3.335   3.098   5.618 -3.5902  0.7648 -3.5622
 3480SOL     OW16276   9.681   5.042   3.108  0.0377 -0.3822  0.5138
 3480SOL    HW116277   9.587   5.030   3.122  0.0220 -1.7539 -0.5700
 3480SOL    HW216278   9.721   5.022   3.192 -0.5922 -0.4951  0.7892
 3481SOL     OW16279   1.644   7.537   4.092  0.1091  0.2008  0.0672
 3481SOL    HW116280   1.687   7.494   4.018 -0.0837 -0.3656  0.2762
 3481SOL    HW216281   1.649   7.472   4.163  0.7629  0.9305  0.7163
 3482SOL     OW16282   2.234   2.882  11.907  0.1180  0.1733 -0.0355
 3482SOL    HW116283   2.195   2.851  11.825 -0.0751 -0.4261  0.2807
 3482SOL    HW216284   2.274   2.804  11.945  0.3126  0.4770  0.3842
 3483SOL     OW16285   1.321   0.173   8.286 -0.2107  0.4233 -0.2427
 3483SOL    HW116286   1.396   0.146   8.233 -0.5317 -1.0563  0.0085
 3483SOL    HW216287   1.251   0.112   8.262 -1.5674  2.1610 -0.9411
 3484SOL     OW16288   0.105   0.469   8.847 -0.1925 -0.3174  0.1925
 3484SOL    HW116289   0.050   0.396   8.818  0.4623 -0.9167  0.4302
 3484SOL    HW216290   0.178   0.428   8.892  0.3147  0.4789  0.1230
 3485SOL     OW16291   1.405   0.342   4.663  0.0504  0.1302 -0.3682
 3485SOL    HW116292   1.397   0.436   4.681  1.2704  0.1559  0.1770
 3485SOL    HW216293   1.497   0.331   4.637 -0.2041 -0.8437 -0.8711
 3486SOL     OW16294   2.595   3.147   7.501 -0.0823  0.1198  0.1757
 3486SOL    HW116295   2.593   3.231   7.546  1.4471  0.1943  0.1489
 3486SOL    HW216296   2.688   3.131   7.483 -0.3387 -1.5719  0.1819
 3487SOL     OW16297   6.890   2.992  12.084 -0.0598 -0.9108  0.5753
 3487SOL    HW116298   6.810   2.959  12.125 -1.0881 -0.3785 -0.9099
 3487SOL    HW216299   6.859   3.055  12.018  1.6633  0.3959  0.9469
 3488SOL     OW16300   1.465   7.006   1.543 -0.8711  0.8947  0.2343
 3488SOL    HW116301   1.461   6.949   1.467  0.7723  1.8491 -0.6213
 3488SOL    HW216302   1.420   6.958   1.612  0.9099 -1.7138 -0.2836
 3489SOL     OW16303  10.219   9.862   7.124  0.4182  0.2945  0.1436
 3489SOL    HW116304  10.216   9.827   7.035  1.5995  1.6125 -0.4494
 3489SOL    HW216305  10.142   9.917   7.131  0.0427 -0.2221  0.1277
 3490SOL     OW16306  12.268   3.908   3.128  0.1107 -0.1595  0.4801
 3490SOL    HW116307  12.281   3.907   3.033 -1.0700 -0.3799  0.3107
 3490SOL    HW216308  12.319   3.984   3.158 -0.0579  0.3191 -0.4115
 3491SOL     OW16309  11.386   2.654  10.003 -0.1748  0.5074 -0.6539
 3491SOL    HW116310  11.410   2.640   9.912  0.2782 -0.1138 -0.4471
 3491SOL    HW216311  11.318   2.722  10.000 -1.0885 -0.4179 -1.5477
 3492SOL     OW16312   7.929   2.412   8.573 -0.5589 -0.1464 -0.3541
 3492SOL    HW116313   7.918   2.418   8.668 -0.3861  0.4949 -0.3716
 3492SOL    HW216314   7.840   2.411   8.539 -0.6176  0.3388 -0.2229
 3493SOL     OW16315   6.377   8.814   6.976 -0.3857 -0.2330  0.5710
 3493SOL    HW116316   6.383   8.723   6.947 -0.7440  0.1344 -0.7386
 3493SOL    HW216317   6.425   8.817   7.059  1.5051 -1.1602 -0.4282
 3494SOL     OW16318   6.529   8.758  10.931 -0.1913  0.6092 -0.4008
 3494SOL    HW116319   6.598   8.767  10.997 -0.3358  0.6139 -0.2497
 3494SOL    HW216320   6.460   8.818  10.960 -0.3543  0.4381 -0.4274
 3495SOL     OW16321   3.648   9.911   8.562  0.1674  0.3499  0.1935
 3495SOL    HW116322   3.744   9.911   8.563  0.1882  0.2977  1.8166
 3495SOL    HW216323   3.625   9.954   8.480  1.5964  1.0093  0.0983
 3496SOL     OW16324   6.280   7.346   7.027  0.3683 -0.5166  0.1117
 3496SOL    HW116325   6.262   7.308   6.941  0.5577  2.0422 -1.1427
 3496SOL    HW216326   6.203   7.400   7.046  1.2037  0.5395  0.5830
 3497SOL     OW16327   3.027   5.539   9.916  0.1365 -0.5023  0.1526
 3497SOL    HW116328   3.000   5.576   9.832 -1.4949 -0.1584  0.7899
 3497SOL    HW216329   2.961   5.570   9.978 -0.7459 -3.6567  0.9352
 3498SOL     OW16330   2.224   0.226   3.499 -0.0176 -0.1344  0.2284
 3498SOL    HW116331   2.304   0.190   3.459 -0.5082 -1.6952  0.5812
 3498SOL    HW216332   2.254   0.263   3.582  0.5519  0.5565 -0.2747
 3499SOL     OW16333  11.291   1.307   2.105  0.5067  0.1122 -0.0718
 3499SOL    HW116334  11.359   1.350   2.054 -0.4364  1.0962 -0.5167
 3499SOL    HW216335  11.258   1.237   2.048 -0.0342  0.7385 -0.5392
 3500SOL     OW16336   1.121   2.645   2.930 -0.2789  0.3957  0.4869
 3500SOL    HW116337   1.135   2.653   3.024 -0.0583  0.4177  0.4518
 3500SOL    HW216338   1.207   2.624   2.894 -0.0236  2.0070  0.0950
 3501SOL     OW16339   9.603   2.251   1.749 -0.1964 -0.4999  0.0191
 3501SOL    HW116340   9.547   2.302   1.690 -3.1818 -1.4828  1.8121
 3501SOL    HW216341   9.624   2.312   1.820 -0.1562 -0.5447  0.0452
 3502SOL     OW16342   0.904   2.474   5.767 -0.0783  0.3148 -0.0949
 3502SOL    HW116343   0.873   2.539   5.830 -0.3561  1.0554 -0.9904
 3502SOL    HW216344   0.984   2.440   5.807 -0.7024  0.1440  1.0692
 3503SOL     OW16345  10.937   6.012  11.901 -0.6347  0.0514 -0.0200
 3503SOL    HW116346  10.987   6.088  11.871 -1.7731  1.3651  1.2784
 3503SOL    HW216347  10.861   6.049  11.945 -1.9416 -1.8724 -0.5359
 3504SOL     OW16348   0.335   1.751   2.282 -0.3237 -0.1952  0.2358
 3504SOL    HW116349   0.397   1.729   2.212 -0.4049  0.6658 -0.1265
 3504SOL    HW216350   0.252   1.716   2.252 -0.0644 -1.1603  0.6185
 3505SOL     OW16351   4.316   2.177   6.991 -0.0269 -0.2285 -0.4414
 3505SOL    HW116352   4.350   2.089   6.974 -1.5753 -0.8825 -0.3624
 3505SOL    HW216353   4.293   2.176   7.084  1.2973  0.7848 -0.0606
 3506SOL     OW16354   6.046   5.114   6.603 -0.0406 -0.2874  0.1605
 3506SOL    HW116355   6.136   5.083   6.595 -0.4655 -1.2653 -1.2538
 3506SOL    HW216356   6.043   5.160   6.687  1.0960 -2.4596  1.4641
 3507SOL     OW16357   2.111  10.368   8.833  0.0818  0.4270 -0.0898
 3507SOL    HW116358   2.022  10.334   8.843 -0.0008  0.3716 -0.9266
 3507SOL    HW216359   2.159  10.296   8.790  0.1025  1.0679 -1.1665
 3508SOL     OW16360   6.084   1.160   1.090 -0.5881  0.5452 -0.3469
 3508SOL    HW116361   6.066   1.089   1.151  0.6898  1.6465  1.3920
 3508SOL    HW216362   6.145   1.123   1.027 -0.5805 -0.1286  0.0508
 3509SOL     OW16363   8.086   7.031   3.380  0.1401 -0.0439 -0.2942
 3509SOL    HW116364   8.066   7.080   3.300  1.3750  1.1286  0.0778
 3509SOL    HW216365   8.125   6.950   3.349 -4.3602 -2.2392 -1.0451
 3510SOL     OW16366   8.274   4.216   7.922  0.1522  0.0088  0.0448
 3510SOL    HW116367   8.316   4.229   8.008  1.1981 -0.3219 -0.3965
 3510SOL    HW216368   8.180   4.226   7.939  0.3462 -0.0517  1.2290
 3511SOL     OW16369   9.921   0.193   3.740 -0.3410  0.7239 -0.0864
 3511SOL    HW116370   9.942   0.121   3.801 -1.1630  0.4475 -0.1131
 3511SOL    HW216371   9.883   0.149   3.664  1.4970  0.9964 -1.2079
 3512SOL     OW16372   0.126   5.161  10.961  0.0186 -0.6794  0.3469
 3512SOL    HW116373   0.159   5.122  11.042 -0.7971 -1.6733  0.2265
 3512SOL    HW216374   0.056   5.102  10.933 -0.9312  0.6253 -0.1237
 3513SOL     OW16375  10.932   3.182   9.933  0.2349 -0.2571  0.4968
 3513SOL    HW116376  10.899   3.120   9.868 -1.4740  1.7751 -0.6723
 3513SOL    HW216377  10.999   3.232   9.887  0.5701 -0.2417  0.9901
 3514SOL     OW16378   3.304  12.052  11.674  0.2648 -0.4814  0.2231
 3514SOL    HW116379   3.214  12.083  11.681  0.1804 -0.9233  1.3884
 3514SOL    HW216380   3.303  11.989  11.603 -0.1888  0.0428 -0.2397
 3515SOL     OW16381   2.196  11.077   6.222  0.0860  0.0157  0.7711
 3515SOL    HW116382   2.202  11.044   6.311  0.1842  0.9925  1.1373
 3515SOL    HW216383   2.140  11.155   6.228  0.0595  0.0711 -0.0206
 3516SOL     OW16384  10.947  11.246   3.827 -0.0703 -0.0759  0.6090
 3516SOL    HW116385  10.913  11.178   3.885 -1.2405 -0.1271 -0.1116
 3516SOL    HW216386  10.869  11.287   3.789  0.6409  0.9434  0.1918
 3517SOL     OW16387   1.238   0.037  10.965  0.4747  0.0567 -0.2511
 3517SOL    HW116388   1.185   0.059  10.887  0.8415 -1.1628 -0.8783
 3517SOL    HW216389   1.323   0.012  10.929  1.2845  1.3277  0.7096
 3518SOL     OW16390  10.716   0.861   0.336 -0.0549 -0.4598 -0.1383
 3518SOL    HW116391  10.783   0.876   0.270 -0.3896  1.7587 -0.0584
 3518SOL    HW216392  10.695   0.768   0.329 -0.1735 -0.2836 -3.2530
 3519SOL     OW16393   6.052   2.916   2.139 -0.3706  0.4541  0.0939
 3519SOL    HW116394   6.110   2.841   2.151 -1.2444 -0.4216 -1.0056
 3519SOL    HW216395   6.109   2.992   2.152  1.2899 -0.3615 -1.8901
 3520SOL     OW16396   2.553   0.125   0.996 -0.4789 -0.7545 -0.1916
 3520SOL    HW116397   2.500   0.051   0.968 -0.0593 -1.6345  1.2375
 3520SOL    HW216398   2.490   0.196   1.011 -1.0932 -1.3754  0.2024
 3521SOL     OW16399   2.675   2.839   0.923  0.1662  0.3975 -0.6923
 3521SOL    HW116400   2.628   2.913   0.882 -1.0260 -0.7988 -1.5858
 3521SOL    HW216401   2.645   2.839   1.014  0.5719  1.3202 -0.5526
 3522SOL     OW16402   3.596   3.557  10.160 -0.3522  0.0038  0.1613
 3522SOL    HW116403   3.585   3.527  10.070  0.5104 -0.5671  0.2360
 3522SOL    HW216404   3.673   3.614  10.157 -0.4714  0.1881  0.4960
 3523SOL     OW16405   3.162  10.854   7.303 -0.4111 -0.0629 -0.3213
 3523SOL    HW116406   3.248  10.814   7.311 -0.0035  0.8032 -0.3045
 3523SOL    HW216407   3.155  10.880   7.211 -1.0823 -1.0540 -0.5687
 3524SOL     OW16408   2.039  11.630   5.694  0.4771  0.4066 -0.0054
 3524SOL    HW116409   2.044  11.535   5.701  0.6967  0.4367  0.2581
 3524SOL    HW216410   1.949  11.651   5.720  0.5433  0.3044  0.3125
 3525SOL     OW16411   8.296   2.040   0.642  0.0635  0.3606 -0.1486
 3525SOL    HW116412   8.230   2.044   0.572 -0.7719  0.6800  0.6377
 3525SOL    HW216413   8.355   1.970   0.614 -0.8043 -0.1769 -0.7113
 3526SOL     OW16414   3.638   3.583   4.713  0.0556  0.1618 -0.1935
 3526SOL    HW116415   3.608   3.651   4.653  0.8093  0.0337 -0.7479
 3526SOL    HW216416   3.558   3.544   4.749 -0.3761  1.4536  0.2829
 3527SOL     OW16417   6.471   6.949   7.904 -0.3573  0.7589  0.2798
 3527SOL    HW116418   6.566   6.962   7.899 -0.4834  1.2506 -1.3228
 3527SOL    HW216419   6.461   6.868   7.955  0.8949  0.8854  0.7750
 3528SOL     OW16420   7.340  10.387  12.042 -0.2443 -0.1930 -0.1356
 3528SOL    HW116421   7.342  10.404  12.137  0.3189  1.7728 -0.4583
 3528SOL    HW216422   7.251  10.410  12.016  0.5175  2.6670 -0.5727
 3529SOL     OW16423   9.305   8.114   7.887  0.0448  0.3211  0.5020
 3529SOL    HW116424   9.351   8.081   7.965 -0.0470  0.2734  0.5365
 3529SOL    HW216425   9.257   8.038   7.855  2.4987 -0.5672 -1.4171
 3530SOL     OW16426   2.660   5.134   3.079  0.4321  0.0704 -0.4760
 3530SOL    HW116427   2.734   5.194   3.068 -0.8677  1.8836  0.3657
 3530SOL    HW216428   2.675   5.067   3.012  3.5004 -0.3702  0.4826
 3531SOL     OW16429  10.799  11.009   5.277 -0.4069 -0.3741  0.2751
 3531SOL    HW116430  10.863  10.966   5.334 -0.1249  0.1827  0.3849
 3531SOL    HW216431  10.729  10.945   5.268  0.2402 -1.0594  0.0189
 3532SOL     OW16432   3.256  11.635  10.615 -0.1332 -0.4347 -0.3075
 3532SOL    HW116433   3.292  11.711  10.571  0.0012 -0.5491 -0.3962
 3532SOL    HW216434   3.203  11.671  10.686 -1.3532 -0.2094 -1.3063
 3533SOL     OW16435   5.175   9.620   7.679 -0.2982 -0.3123 -0.1440
 3533SOL    HW116436   5.136   9.691   7.628  1.0399  0.3111 -0.3516
 3533SOL    HW216437   5.203   9.555   7.614 -2.7726 -1.7593  0.1174
 3534SOL     OW16438   5.480   9.490   1.524 -0.1610 -0.6761 -0.8524
 3534SOL    HW116439   5.546   9.559   1.513 -2.4034  2.0085  1.0732
 3534SOL    HW216440   5.430   9.492   1.442  1.5900 -2.2038 -2.0158
 3535SOL     OW16441   2.566  10.315   5.631 -0.2728  0.0427  0.1694
 3535SOL    HW116442   2.473  10.325   5.614 -0.3257  0.7054  0.8408
 3535SOL    HW216443   2.576  10.222   5.651 -1.0503  0.2536  1.6289
 3536SOL     OW16444   2.867   2.889  12.006 -0.1415 -0.5715 -0.4566
 3536SOL    HW116445   2.928   2.847  12.066 -0.0681  0.2777  0.0905
 3536SOL    HW216446   2.784   2.891  12.054 -0.1718 -0.2189 -0.5148
 3537SOL     OW16447   9.123   5.403   0.430  0.0934 -0.1500  0.7885
 3537SOL    HW116448   9.168   5.454   0.497 -2.2171  0.7074  1.8147
 3537SOL    HW216449   9.042   5.375   0.472 -0.7573 -0.8749 -1.1894
 3538SOL     OW16450   1.773   9.430   0.521  0.1552  0.4719  0.2714
 3538SOL    HW116451   1.739   9.466   0.440 -1.6831  0.4736  1.0066
 3538SOL    HW216452   1.740   9.487   0.590  0.6286 -0.2560  1.1337
 3539SOL     OW16453   4.230   8.478  12.086  0.3630 -0.1581 -0.3802
 3539SOL    HW116454   4.152   8.487  12.032 -0.1633  0.0151  0.3990
 3539SOL    HW216455   4.234   8.559  12.136  1.3187  0.0411 -0.7533
 3540SOL     OW16456  12.058   2.231   3.116  0.1028  0.1128 -0.2033
 3540SOL    HW116457  12.076   2.323   3.093  0.0104  0.3348  0.5740
 3540SOL    HW216458  12.135   2.205   3.167 -1.2701  0.7961  2.4077
 3541SOL     OW16459   4.627   5.875   2.319  0.2370  0.4642 -0.4806
 3541SOL    HW116460   4.663   5.867   2.408 -0.5560  2.3982  0.0837
 3541SOL    HW216461   4.535   5.849   2.329  0.4057 -0.3428 -0.9835
 3542SOL     OW16462   1.655   6.714   4.753 -0.6926 -0.3748  0.5998
 3542SOL    HW116463   1.647   6.786   4.690  1.3757 -0.2932  0.3545
 3542SOL    HW216464   1.589   6.650   4.726 -2.4173  1.2775  0.6721
 3543SOL     OW16465   7.072   9.607   1.888  0.3738 -0.6831 -0.5123
 3543SOL    HW116466   7.048   9.578   1.976  3.2537 -1.6408  0.0372
 3543SOL    HW216467   7.113   9.693   1.901  1.4667 -1.1473 -0.8057
 3544SOL     OW16468  10.197   4.792  12.312  0.5773  0.2509  0.0849
 3544SOL    HW116469  10.286   4.773  12.341  1.8571  1.7862 -2.5076
 3544SOL    HW216470  10.193   4.757  12.223 -1.5500 -0.0330  0.2366
 3545SOL     OW16471   7.433   8.725   5.150  0.0173  0.0574  0.3388
 3545SOL    HW116472   7.372   8.701   5.081 -1.5259  2.6320  0.7091
 3545SOL    HW216473   7.491   8.790   5.110  2.7433 -2.3537 -0.0323
 3546SOL     OW16474   8.413   9.710   4.488  0.0909 -0.2999 -0.3468
 3546SOL    HW116475   8.330   9.666   4.473 -1.0849  1.1960  1.3738
 3546SOL    HW216476   8.396   9.802   4.468  1.7883 -0.1794 -1.4616
 3547SOL     OW16477  10.803   5.808   4.222 -0.1491 -0.1964 -0.2611
 3547SOL    HW116478  10.739   5.758   4.171 -0.2188 -0.3662 -0.0150
 3547SOL    HW216479  10.881   5.812   4.167 -0.3382 -0.0778 -0.5218
 3548SOL     OW16480   4.457   7.837   7.613  0.1581 -0.3494  0.4578
 3548SOL    HW116481   4.408   7.866   7.690  1.1363  0.9585  0.6105
 3548SOL    HW216482   4.389   7.818   7.548 -0.6703 -1.2018  1.5161
 3549SOL     OW16483   8.696   2.778   9.494  0.8393  0.6947 -0.0954
 3549SOL    HW116484   8.649   2.722   9.556 -0.7956  1.0576 -0.9601
 3549SOL    HW216485   8.787   2.775   9.524  0.6019 -1.4355  0.6148
 3550SOL     OW16486   2.700   1.401   0.479  0.3113 -0.2810 -0.0581
 3550SOL    HW116487   2.744   1.393   0.563  0.7375 -0.7481 -0.3212
 3550SOL    HW216488   2.765   1.371   0.415  0.4376  1.2413 -0.6805
 3551SOL     OW16489   4.858  10.778   0.654 -0.0905  0.5021 -0.2449
 3551SOL    HW116490   4.947  10.772   0.618  0.4413 -0.6525  1.1611
 3551SOL    HW216491   4.802  10.740   0.587  0.7147 -0.4694 -0.3879
 3552SOL     OW16492   5.622   9.713   5.207  0.3499 -0.5404 -0.4925
 3552SOL    HW116493   5.529   9.736   5.208  0.1259 -1.4075 -0.5400
 3552SOL    HW216494   5.628   9.637   5.265  1.3692  0.7288  1.1605
 3553SOL     OW16495  10.971   1.782  10.691  0.2146 -0.3118  0.3898
 3553SOL    HW116496  10.893   1.795  10.636  0.3751  1.3924  0.5169
 3553SOL    HW216497  11.008   1.699  10.662 -0.2980  0.0441 -1.3574
 3554SOL     OW16498  10.821   1.841   1.059 -0.2799 -0.2437  0.5414
 3554SOL    HW116499  10.878   1.809   0.989 -0.3122  1.6279 -0.3956
 3554SOL    HW216500  10.738   1.794   1.046  0.7625 -2.5475  1.5579
 3555SOL     OW16501   2.595  11.143   4.108  0.3960  0.2547 -0.1533
 3555SOL    HW116502   2.586  11.196   4.029  0.7598  0.3421 -0.1382
 3555SOL    HW216503   2.592  11.053   4.076  1.8094  0.2807 -0.4319
 3556SOL     OW16504   8.920   7.739   2.923 -0.4221  0.3786  0.7220
 3556SOL    HW116505   8.994   7.717   2.980  0.3095 -0.3902 -0.4995
 3556SOL    HW216506   8.862   7.663   2.927  0.4110 -0.3725 -0.7744
 3557SOL     OW16507  11.289  10.756   8.912  0.4903  0.5420  0.2633
 3557SOL    HW116508  11.292  10.736   9.005  1.3490 -1.8174 -0.2187
 3557SOL    HW216509  11.366  10.714   8.875 -1.3645 -1.1639 -1.9451
 3558SOL     OW16510   1.153  12.146   9.061  0.5441 -0.2341  0.4834
 3558SOL    HW116511   1.182  12.055   9.064  2.8194  0.4265  0.2735
 3558SOL    HW216512   1.200  12.189   9.132  0.3146  0.9770 -0.0666
 3559SOL     OW16513  11.662   1.450   3.015 -0.0040 -0.1706  0.7224
 3559SOL    HW116514  11.713   1.510   2.961 -1.4081  0.3087 -0.1278
 3559SOL    HW216515  11.659   1.491   3.101  0.5009  0.1070  0.6089
 3560SOL     OW16516   8.504   6.501   6.901 -0.0586  0.0991 -0.1320
 3560SOL    HW116517   8.458   6.453   6.971 -0.5034 -1.1704 -1.2606
 3560SOL    HW216518   8.439   6.563   6.868 -0.1807 -0.0196 -0.1138
 3561SOL     OW16519   2.884   1.033   5.127  0.2721  0.1100 -0.0717
 3561SOL    HW116520   2.923   0.950   5.101 -2.2649 -1.3635  0.4120
 3561SOL    HW216521   2.884   1.030   5.223 -0.7135  0.1741 -0.0571
 3562SOL     OW16522   3.916   4.058   7.875 -0.4059 -0.0817  0.2160
 3562SOL    HW116523   3.955   4.057   7.962 -0.3329  1.0218  0.2075
 3562SOL    HW216524   3.825   4.032   7.888 -0.8605  1.6733  0.8823
 3563SOL     OW16525   7.860   7.677  11.311  0.1013  0.1123  0.0840
 3563SOL    HW116526   7.825   7.689  11.223  2.1754 -1.9380 -1.1394
 3563SOL    HW216527   7.950   7.710  11.306  0.2461  0.0165  1.4876
 3564SOL     OW16528   2.517   9.008   7.424  0.9929 -0.2448 -0.2178
 3564SOL    HW116529   2.537   8.914   7.425  0.6387 -0.3294 -0.8421
 3564SOL    HW216530   2.590   9.048   7.376  0.8202 -0.2806 -0.5130
 3565SOL     OW16531   8.316   6.733   1.369  0.0623  0.2190 -0.1604
 3565SOL    HW116532   8.235   6.785   1.371 -0.4974 -0.5972 -0.7204
 3565SOL    HW216533   8.286   6.644   1.345  1.2933  0.2628 -2.0886
 3566SOL     OW16534   0.998  11.542   7.981  0.3336 -0.9553  0.5188
 3566SOL    HW116535   0.928  11.596   8.018  1.5608  0.2738  1.1469
 3566SOL    HW216536   1.020  11.481   8.051 -1.4749 -2.8208 -0.3985
 3567SOL     OW16537   5.805   0.360   8.804  0.0866  0.7518  0.0487
 3567SOL    HW116538   5.802   0.309   8.723 -0.4292 -0.7203  0.9382
 3567SOL    HW216539   5.736   0.322   8.859  1.1585  0.9281  1.5999
 3568SOL     OW16540   4.027   5.671   2.610 -0.4330  0.9773 -0.0746
 3568SOL    HW116541   4.048   5.701   2.699 -0.9768 -0.2164  0.4861
 3568SOL    HW216542   4.108   5.683   2.561  0.8221 -1.0156  1.3439
 3569SOL     OW16543   6.424   4.233   1.790 -0.3133  0.0389  0.4517
 3569SOL    HW116544   6.406   4.228   1.696 -1.2537 -1.1869  0.6780
 3569SOL    HW216545   6.517   4.212   1.798  0.1431  1.6356 -0.3155
 3570SOL     OW16546   8.745   1.128   9.969  0.3601 -0.0003  0.3041
 3570SOL    HW116547   8.680   1.193   9.942 -0.6207 -1.5104 -1.2054
 3570SOL    HW216548   8.825   1.179   9.981 -0.3890  1.5259 -0.7128
 3571SOL     OW16549   8.377  11.440   7.933 -0.2363  0.1141  0.0085
 3571SOL    HW116550   8.367  11.371   7.868 -0.6429 -0.2328  0.4313
 3571SOL    HW216551   8.302  11.497   7.919  0.5065  0.9158 -0.8516
 3572SOL     OW16552   9.958   5.755   5.933  0.3590 -0.3184  0.1476
 3572SOL    HW116553   9.987   5.724   5.847  0.1935 -0.6825  0.2198
 3572SOL    HW216554   9.892   5.821   5.915  0.2928 -0.4268 -0.0079
 3573SOL     OW16555   7.591   9.928  12.146 -0.0271  0.3502  0.1830
 3573SOL    HW116556   7.503   9.950  12.115  0.4031  0.4086 -1.0460
 3573SOL    HW216557   7.638  10.011  12.148  1.2347 -0.1186 -3.3018
 3574SOL     OW16558   6.735   8.673   3.350  0.3880  0.6066  0.2508
 3574SOL    HW116559   6.797   8.601   3.341  0.9407  1.1938 -0.8635
 3574SOL    HW216560   6.651   8.635   3.327  1.0206  0.8335 -2.8945
 3575SOL     OW16561   6.414  11.355  11.239 -0.3060 -0.4436 -0.4604
 3575SOL    HW116562   6.456  11.294  11.178 -0.1923 -0.2331 -0.5955
 3575SOL    HW216563   6.445  11.441  11.212 -1.4129 -0.2076 -1.0420
 3576SOL     OW16564   5.699   6.487   6.690 -0.4302  1.0439 -0.1434
 3576SOL    HW116565   5.731   6.575   6.672  2.2157 -0.2929 -2.8967
 3576SOL    HW216566   5.647   6.463   6.613  0.1815 -0.3165 -0.1646
 3577SOL     OW16567  12.022   6.511   4.655 -0.2065 -0.1642  0.3208
 3577SOL    HW116568  12.017   6.415   4.653 -0.3587 -0.1752  0.8540
 3577SOL    HW216569  11.946   6.537   4.707 -1.4904  0.3797 -1.7178
 3578SOL     OW16570   6.235   8.853   0.988  0.2258 -0.3521 -0.2405
 3578SOL    HW116571   6.265   8.923   1.045  1.7933  0.1644 -1.5898
 3578SOL    HW216572   6.211   8.782   1.047 -0.6801  1.0297  1.1275
 3579SOL     OW16573   7.090   0.360   4.915  0.1989  0.6403  0.0559
 3579SOL    HW116574   7.031   0.371   4.990  0.8786  1.5130  0.4869
 3579SOL    HW216575   7.155   0.430   4.926  0.3919  0.6857 -1.2777
 3580SOL     OW16576  11.804   2.639   6.105 -0.2400 -0.0438  0.0976
 3580SOL    HW116577  11.890   2.641   6.063  0.8009  1.0231  2.1143
 3580SOL    HW216578  11.743   2.662   6.035  1.0227 -1.2171 -1.4910
 3581SOL     OW16579  10.222   2.181   5.060 -0.0821 -0.3878  0.1128
 3581SOL    HW116580  10.255   2.092   5.062 -0.2542 -0.4395  0.7086
 3581SOL    HW216581  10.220   2.209   5.152  0.5939  0.4558 -0.1100
 3582SOL     OW16582   5.435   9.020  10.368 -0.3965  0.0169 -0.2718
 3582SOL    HW116583   5.497   8.948  10.356  0.6281  0.2434  2.6109
 3582SOL    HW216584   5.357   8.993  10.322 -0.3611 -3.4279  1.3474
 3583SOL     OW16585   5.164   0.583   3.261  0.9700  0.2602  0.0019
 3583SOL    HW116586   5.210   0.546   3.336  3.7164  0.4369 -1.4654
 3583SOL    HW216587   5.141   0.508   3.206  0.9696  0.2978 -0.0494
 3584SOL     OW16588   6.783   5.749   5.001  0.1665  0.3805 -0.0032
 3584SOL    HW116589   6.875   5.726   4.988  0.0307 -0.3875  0.3497
 3584SOL    HW216590   6.769   5.825   4.944  1.2990  1.2078  0.7601
 3585SOL     OW16591   7.182  10.689   1.886  0.3423 -0.1718  0.7858
 3585SOL    HW116592   7.232  10.764   1.920  0.2600 -0.0872  0.7171
 3585SOL    HW216593   7.105  10.684   1.943  0.6358 -0.5597  1.1570
 3586SOL     OW16594  11.083   9.993   6.273  0.1089  0.3625  0.7460
 3586SOL    HW116595  11.103  10.081   6.240 -0.6315 -0.2496 -1.5369
 3586SOL    HW216596  10.999  10.003   6.318  0.0439  0.8464  0.5241
 3587SOL     OW16597   3.756   7.192   4.095  0.1937  0.1077 -0.4720
 3587SOL    HW116598   3.823   7.191   4.027 -0.6649 -0.8467 -1.3624
 3587SOL    HW216599   3.782   7.261   4.155  1.7466  0.0120 -1.0043
 3588SOL     OW16600   1.535   7.339   7.040  0.3676  0.0511  0.3979
 3588SOL    HW116601   1.544   7.249   7.069  1.3613 -0.3055 -0.9124
 3588SOL    HW216602   1.569   7.339   6.950  1.0424  1.8697  0.6094
 3589SOL     OW16603   9.894   7.961   2.110  0.2872 -0.4861  0.0923
 3589SOL    HW116604   9.927   7.931   2.025  0.2637 -1.7555  0.5226
 3589SOL    HW216605   9.837   8.035   2.088  1.2419 -0.0021 -0.8860
 3590SOL     OW16606  11.236   2.329   7.826  0.1534  0.1756 -0.6868
 3590SOL    HW116607  11.216   2.282   7.745  0.7645 -1.2859 -0.0272
 3590SOL    HW216608  11.289   2.268   7.877 -0.9152  0.6979  1.1768
 3591SOL     OW16609   0.895   7.664   9.330  0.1185  0.4574 -0.3666
 3591SOL    HW116610   0.931   7.697   9.412  1.2997 -0.6374 -0.4200
 3591SOL    HW216611   0.811   7.626   9.354  0.4114  0.2385  0.3272
 3592SOL     OW16612   1.609   8.137   2.837  0.1861 -0.1205  0.2273
 3592SOL    HW116613   1.638   8.152   2.927  1.7312 -0.7925 -0.1225
 3592SOL    HW216614   1.603   8.224   2.799 -1.0561  0.2099  1.1262
 3593SOL     OW16615  10.871   8.216   4.427 -0.1705  0.1468 -0.3225
 3593SOL    HW116616  10.911   8.284   4.374  0.0176 -0.6319 -1.2052
 3593SOL    HW216617  10.907   8.134   4.393  0.7783 -0.3312  1.7196
 3594SOL     OW16618   6.356   5.370   9.928  0.3753 -0.4019  0.3657
 3594SOL    HW116619   6.338   5.464   9.920  0.0653 -0.6324 -2.3390
 3594SOL    HW216620   6.276   5.327   9.901  0.4542 -1.4994  1.7598
 3595SOL     OW16621   2.062   0.729   5.243  0.1697 -0.1585 -0.3388
 3595SOL    HW116622   1.978   0.683   5.247 -0.3054  0.7522  1.4394
 3595SOL    HW216623   2.038   0.817   5.213  0.6182 -0.1486 -0.6682
 3596SOL     OW16624   9.109   8.897   4.851  0.1272 -0.2217 -0.2192
 3596SOL    HW116625   9.149   8.850   4.924  1.0352 -0.1574 -0.6515
 3596SOL    HW216626   9.066   8.829   4.799 -0.6956 -0.2390  0.4753
 3597SOL     OW16627   0.241  11.184   2.954  0.1906 -0.1465  0.4484
 3597SOL    HW116628   0.176  11.114   2.945  0.3819 -0.5419  1.8454
 3597SOL    HW216629   0.322  11.138   2.979  0.7950  0.4203 -0.4173
 3598SOL     OW16630   7.536   9.258  12.192 -0.1705 -0.2317 -0.1313
 3598SOL    HW116631   7.565   9.348  12.180  0.7364 -0.4680  0.1786
 3598SOL    HW216632   7.444   9.265  12.217  0.0947  0.6517  0.6382
 3599SOL     OW16633  11.134  10.458   4.631  0.3070  0.2518  0.0549
 3599SOL    HW116634  11.073  10.525   4.600 -0.5780 -0.5678 -0.0048
 3599SOL    HW216635  11.175  10.424   4.552  0.3857  0.3706  0.0442
 3600SOL     OW16636   8.368   1.415   5.742  0.4617 -0.3089 -0.3614
 3600SOL    HW116637   8.416   1.337   5.768  0.1029 -1.2645 -2.3845
 3600SOL    HW216638   8.359   1.408   5.647 -0.2846  1.7975 -0.5072
 3601SOL     OW16639   0.968   3.650   1.781 -0.1907  0.6858 -0.2458
 3601SOL    HW116640   0.941   3.713   1.714 -0.2557  0.6804 -0.2251
 3601SOL    HW216641   1.036   3.597   1.739 -0.6423  0.3025 -0.4988
 3602SOL     OW16642   8.684   4.214   3.149 -0.1444  0.8732  0.4228
 3602SOL    HW116643   8.779   4.224   3.139 -0.2810  2.6512  0.4903
 3602SOL    HW216644   8.647   4.276   3.086 -1.2330  1.0912  1.2492
 3603SOL     OW16645   2.018   2.006  10.933  0.4613 -0.3048 -0.2669
 3603SOL    HW116646   2.107   2.001  10.967  0.2134  1.2888  0.7488
 3603SOL    HW216647   1.962   1.987  11.009 -0.0729  1.1701 -0.2554
 3604SOL     OW16648   7.722  11.837   9.769  0.0208 -0.1987 -0.5750
 3604SOL    HW116649   7.672  11.816   9.848  1.7291 -0.1795  0.5842
 3604SOL    HW216650   7.720  11.757   9.717 -2.9005  0.4328 -1.6000
 3605SOL     OW16651  12.133   2.271   9.637 -0.0154  0.0375 -0.1698
 3605SOL    HW116652  12.062   2.259   9.574 -0.3381 -1.4483  0.4378
 3605SOL    HW216653  12.133   2.191   9.689  2.1815 -0.0353 -0.1950
 3606SOL     OW16654   3.209   7.668   5.861 -0.1895  0.2802 -0.1856
 3606SOL    HW116655   3.236   7.740   5.804  0.0402  0.5580  0.2682
 3606SOL    HW216656   3.141   7.706   5.916 -1.2762 -0.3124 -1.0714
 3607SOL     OW16657   0.588  11.552   7.959 -0.0370 -0.0055  0.0150
 3607SOL    HW116658   0.532  11.583   7.888  1.9611 -0.0812 -1.7212
 3607SOL    HW216659   0.593  11.625   8.020 -1.4804  0.2209 -0.1093
 3608SOL     OW16660   0.900   4.018   4.633  0.0555  0.5335  0.4326
 3608SOL    HW116661   0.977   4.072   4.617 -0.3732  1.2922  0.8807
 3608SOL    HW216662   0.838   4.077   4.677 -0.6132 -0.1822  0.4665
 3609SOL     OW16663  10.611   4.837   4.493  0.8036 -0.5529  0.4975
 3609SOL    HW116664  10.664   4.758   4.504 -1.2301 -2.9771 -4.2720
 3609SOL    HW216665  10.640   4.874   4.409  1.4201  3.8599  2.3279
 3610SOL     OW16666   1.064  12.072   4.856 -0.1236 -0.0616 -0.0766
 3610SOL    HW116667   1.100  12.073   4.767  0.1029  1.7237 -0.0080
 3610SOL    HW216668   1.142  12.069   4.912 -0.2086  0.1844  0.0556
 3611SOL     OW16669  10.926   9.061   1.186  0.4800 -0.2880 -0.0259
 3611SOL    HW116670  10.966   9.036   1.102 -0.5394 -0.6185 -0.4315
 3611SOL    HW216671  10.951   8.991   1.246 -0.4492 -1.1358 -0.5817
 3612SOL     OW16672   8.603  10.935   6.812 -0.3825  0.1837 -0.0111
 3612SOL    HW116673   8.574  10.989   6.738  0.6128 -0.8890 -1.2366
 3612SOL    HW216674   8.698  10.946   6.813  0.2819 -3.6837 -2.1959
 3613SOL     OW16675  10.271   5.648   3.666  0.1574 -0.3508  0.6903
 3613SOL    HW116676  10.194   5.620   3.617 -0.3563 -0.0786  1.3363
 3613SOL    HW216677  10.243   5.647   3.757 -0.0878  2.8800  0.7418
 3614SOL     OW16678  11.781   5.710   0.330  0.6688  0.3806 -0.2937
 3614SOL    HW116679  11.833   5.760   0.393  1.2604 -0.0371 -0.4390
 3614SOL    HW216680  11.739   5.641   0.381 -2.1412  2.4279  0.3658
 3615SOL     OW16681   7.541  10.648   7.480  0.5012  0.7374  0.3506
 3615SOL    HW116682   7.505  10.595   7.409 -0.6483  2.3362 -0.3236
 3615SOL    HW216683   7.547  10.587   7.554 -2.2599 -0.0309  0.0917
 3616SOL     OW16684   7.329   2.021  10.197  0.3919 -0.0531 -0.5612
 3616SOL    HW116685   7.370   2.059  10.275  1.6441 -0.5411 -0.9600
 3616SOL    HW216686   7.287   1.941  10.228 -1.0828  0.8911  0.0202
 3617SOL     OW16687  12.275   3.790  10.324  0.3337 -0.2228  0.3926
 3617SOL    HW116688  12.253   3.871  10.370  1.4491 -0.2990  1.1088
 3617SOL    HW216689  12.269   3.722  10.392 -0.1860 -0.6869 -0.1047
 3618SOL     OW16690   7.992  11.353   9.859  0.3721 -0.1053 -0.4149
 3618SOL    HW116691   7.906  11.357   9.902  0.2809 -1.6772 -0.3643
 3618SOL    HW216692   8.055  11.357   9.931  0.3245  0.3666 -0.3967
 3619SOL     OW16693   5.000   6.045   6.730 -0.1036  0.1502 -0.1341
 3619SOL    HW116694   4.918   5.997   6.745 -0.7515  1.2360 -0.1195
 3619SOL    HW216695   5.069   5.979   6.743 -0.9912 -1.0155 -1.1066
 3620SOL     OW16696   3.604  10.069  11.740  0.1919  0.4603  0.0705
 3620SOL    HW116697   3.615  10.081  11.646  0.8462  0.1509  0.1032
 3620SOL    HW216698   3.562  10.150  11.770  0.9321  0.9959 -0.3182
 3621SOL     OW16699   0.138   8.504   0.304  0.4920  0.1301  0.2238
 3621SOL    HW116700   0.209   8.441   0.317  3.0041  2.8418  0.8511
 3621SOL    HW216701   0.121   8.539   0.392 -0.5335  0.5934 -0.1511
 3622SOL     OW16702   2.728  11.542   5.437  0.3095  0.2083  0.6476
 3622SOL    HW116703   2.804  11.508   5.390 -0.1310  0.7910 -0.5318
 3622SOL    HW216704   2.764  11.610   5.494  0.5685  1.1982 -0.6549
 3623SOL     OW16705   1.256   7.775   8.255 -0.0813 -0.3862  0.5324
 3623SOL    HW116706   1.215   7.689   8.244 -1.1555  0.0577  0.8583
 3623SOL    HW216707   1.312   7.785   8.178  0.0553 -1.3659  0.4864
 3624SOL     OW16708   9.585   7.703   5.439  0.3929  0.0738  0.0951
 3624SOL    HW116709   9.546   7.786   5.410 -0.6904 -0.5975 -0.4436
 3624SOL    HW216710   9.675   7.726   5.463 -0.2962  1.6812  1.3696
 3625SOL     OW16711   3.215   9.798   9.411  0.0747  0.0119 -0.6105
 3625SOL    HW116712   3.143   9.734   9.414  0.2370 -0.2910 -2.1433
 3625SOL    HW216713   3.290   9.752   9.447 -0.6173  0.5712  1.7113
 3626SOL     OW16714   1.661   9.536   9.943 -0.1272  0.2029  0.3253
 3626SOL    HW116715   1.582   9.579   9.975 -0.3319 -0.3052  0.5273
 3626SOL    HW216716   1.651   9.535   9.848  0.5723  1.8872  0.2085
 3627SOL     OW16717   8.735   2.264  11.174 -0.2785 -0.8704  0.1936
 3627SOL    HW116718   8.784   2.336  11.216 -0.2250 -1.7600  1.7480
 3627SOL    HW216719   8.789   2.187  11.189 -1.2672 -1.5628  0.2783
 3628SOL     OW16720  11.365   3.656   6.206  0.4375 -0.2800 -0.5533
 3628SOL    HW116721  11.328   3.617   6.127  0.7593 -1.3215 -0.2017
 3628SOL    HW216722  11.459   3.661   6.189  0.5058 -0.4878 -0.2489
 3629SOL     OW16723   9.758  11.564   9.484 -0.1916 -0.0709 -0.3024
 3629SOL    HW116724   9.677  11.519   9.460  0.0045 -0.6823  0.1562
 3629SOL    HW216725   9.817  11.494   9.513 -0.1361  0.5439  1.1615
 3630SOL     OW16726   1.512  10.934   2.918 -0.0863 -0.3484  0.1519
 3630SOL    HW116727   1.489  10.852   2.875  0.7497 -0.9071  0.7547
 3630SOL    HW216728   1.607  10.939   2.911 -0.1846  0.9868 -0.6170
 3631SOL     OW16729   5.276   9.466   3.051 -0.8551 -0.2903 -0.0286
 3631SOL    HW116730   5.288   9.553   3.013 -2.2576 -0.4043 -0.8075
 3631SOL    HW216731   5.355   9.451   3.102  0.0545  0.8377 -1.0572
 3632SOL     OW16732  11.703   1.756   8.206 -0.2893  0.4322 -0.1121
 3632SOL    HW116733  11.677   1.763   8.114 -0.4522 -0.1830 -0.1128
 3632SOL    HW216734  11.799   1.760   8.204 -0.2934  0.4569 -0.3004
 3633SOL     OW16735   6.582   2.277   2.403 -0.4503 -0.4837 -0.2876
 3633SOL    HW116736   6.549   2.253   2.489  0.1222  0.7479  0.3011
 3633SOL    HW216737   6.523   2.346   2.372  0.8301  0.9235  0.2800
 3634SOL     OW16738   2.180   6.526   7.424 -0.3045 -0.2762  0.6897
 3634SOL    HW116739   2.214   6.608   7.460  2.0082 -0.4614 -0.8580
 3634SOL    HW216740   2.198   6.532   7.330  1.5005 -3.2309  0.7480
 3635SOL     OW16741   5.743   0.737  11.665 -0.5406  0.1658 -0.3668
 3635SOL    HW116742   5.669   0.759  11.607 -1.7248 -1.0662  0.6102
 3635SOL    HW216743   5.730   0.644  11.686  0.8720  0.1255  0.4468
 3636SOL     OW16744  10.016   8.153   3.860 -0.0455 -0.6283 -0.4350
 3636SOL    HW116745   9.994   8.121   3.948 -3.9195 -1.3581 -1.4572
 3636SOL    HW216746   9.960   8.230   3.848  2.2078  0.9706 -1.4896
 3637SOL     OW16747   4.618   1.417   2.947 -0.7450  0.2572  0.0021
 3637SOL    HW116748   4.699   1.439   2.901 -1.0224 -1.3717 -1.3703
 3637SOL    HW216749   4.580   1.345   2.896 -1.8186 -0.6823  2.0072
 3638SOL     OW16750   3.370   4.942   1.049 -0.2646 -0.3499  0.3696
 3638SOL    HW116751   3.404   4.995   0.976  3.2355 -2.8399 -0.0267
 3638SOL    HW216752   3.358   5.005   1.120 -0.3242  1.5907 -1.2412
 3639SOL     OW16753   1.068   0.856   0.963 -0.0050 -0.6103 -0.0900
 3639SOL    HW116754   1.050   0.819   0.877 -1.6869 -0.0660 -0.0134
 3639SOL    HW216755   1.114   0.938   0.944 -0.4639 -0.4378 -0.5017
 3640SOL     OW16756   3.649   8.444  12.171  0.5308  0.4422 -0.1000
 3640SOL    HW116757   3.576   8.382  12.163 -0.0224  1.1071 -0.3031
 3640SOL    HW216758   3.680   8.432  12.261 -1.9941  2.4719  1.1570
 3641SOL     OW16759   6.994   9.906   9.637 -0.1743 -0.3824 -0.7132
 3641SOL    HW116760   6.907   9.919   9.600 -0.1972  1.0266 -0.2352
 3641SOL    HW216761   6.979   9.862   9.721 -0.3996 -0.4464 -0.7886
 3642SOL     OW16762   6.544   7.064   5.698 -0.3023  0.4099 -0.9829
 3642SOL    HW116763   6.470   7.040   5.754  0.4589 -2.1635 -0.9545
 3642SOL    HW216764   6.583   6.980   5.673  1.7075  1.6421 -2.2356
 3643SOL     OW16765   9.864   7.263   2.153  0.2037  0.5479 -0.2964
 3643SOL    HW116766   9.922   7.294   2.083 -0.6108  0.1863 -1.1569
 3643SOL    HW216767   9.785   7.317   2.144  0.1407  0.5872  0.4371
 3644SOL     OW16768   5.416   5.360   7.352 -0.3344  0.3846  0.1304
 3644SOL    HW116769   5.433   5.296   7.283  0.4155  0.4464  0.2536
 3644SOL    HW216770   5.379   5.435   7.306  1.5219  1.0125 -0.4356
 3645SOL     OW16771   8.283   1.720  10.333 -0.7729  0.4411 -0.3463
 3645SOL    HW116772   8.223   1.764  10.394 -1.2316  0.8480 -1.0721
 3645SOL    HW216773   8.365   1.713  10.381 -1.2270  0.4161  0.4546
 3646SOL     OW16774   6.845  10.439   3.205  0.0792  0.7624  0.2165
 3646SOL    HW116775   6.935  10.442   3.235  0.5471  2.3502 -1.1871
 3646SOL    HW216776   6.813  10.353   3.233  2.3191 -0.2393 -0.0852
 3647SOL     OW16777   2.284   6.604   6.950 -0.0107 -0.0450 -0.0897
 3647SOL    HW116778   2.349   6.593   7.019 -0.9527 -0.2668  0.7981
 3647SOL    HW216779   2.284   6.698   6.931  1.0988 -0.1415 -0.6682
 3648SOL     OW16780  11.874   9.409   7.372  0.0978 -0.4764 -0.8874
 3648SOL    HW116781  11.837   9.449   7.294 -1.0659  1.0537  0.3844
 3648SOL    HW216782  11.909   9.325   7.342  0.4283  0.4066 -3.1837
 3649SOL     OW16783   2.359   6.753  10.107  0.7865 -0.0118  0.2797
 3649SOL    HW116784   2.387   6.810  10.035 -0.3685  0.3090  0.0598
 3649SOL    HW216785   2.420   6.772  10.179  2.9826 -1.4758 -1.0572
 3650SOL     OW16786   3.772   0.498  11.210 -0.0322 -0.4961  0.0964
 3650SOL    HW116787   3.858   0.525  11.241  0.5169 -0.8471 -1.0700
 3650SOL    HW216788   3.786   0.471  11.119 -1.5294  0.2259 -0.3793
 3651SOL     OW16789   5.438   6.240   8.352 -0.5555  0.4633  0.0293
 3651SOL    HW116790   5.447   6.149   8.379 -0.7668  0.4819  0.1657
 3651SOL    HW216791   5.426   6.289   8.433  0.3096  0.7134  0.0155
 3652SOL     OW16792   6.999   1.942   7.334  0.1740  0.0646 -0.2659
 3652SOL    HW116793   6.995   1.939   7.238  0.2309 -0.9235 -0.2562
 3652SOL    HW216794   6.978   1.852   7.361  0.2790  0.3048  0.6406
 3653SOL     OW16795   8.186   8.358  11.146 -0.1927  0.5304  0.1178
 3653SOL    HW116796   8.277   8.374  11.172  0.0069 -0.1999 -0.1044
 3653SOL    HW216797   8.190   8.340  11.052 -0.3786 -0.8769  0.3641
 3654SOL     OW16798   5.953   7.161  11.846  0.0350  0.7068 -0.1117
 3654SOL    HW116799   5.862   7.129  11.853  0.1452  0.6609  1.6570
 3654SOL    HW216800   5.998   7.118  11.919  1.9290 -0.6443 -1.9841
 3655SOL     OW16801  11.875   5.510   7.340 -0.6267  0.0701 -0.2620
 3655SOL    HW116802  11.784   5.498   7.316 -0.6011 -1.9058  0.4404
 3655SOL    HW216803  11.898   5.430   7.387  1.0685  1.1320  0.8154
 3656SOL     OW16804  11.553  11.068   2.000  0.1900 -0.0037  0.1876
 3656SOL    HW116805  11.472  11.018   1.988 -0.2697  0.4978  1.1275
 3656SOL    HW216806  11.574  11.101   1.913 -0.2487 -0.6778 -0.1878
 3657SOL     OW16807   7.329   2.833  12.072  0.0149  0.0020  0.0172
 3657SOL    HW116808   7.318   2.892  11.998 -1.5885 -2.0401 -1.4967
 3657SOL    HW216809   7.240   2.816  12.103  0.2993 -2.3279 -0.2660
 3658SOL     OW16810   0.699   5.795   3.371 -0.1471  0.7086 -0.0382
 3658SOL    HW116811   0.695   5.802   3.466  0.5999  1.4756 -0.0435
 3658SOL    HW216812   0.618   5.751   3.346  0.4868 -1.2486  1.0997
 3659SOL     OW16813  12.059   0.024   9.024 -0.5447  0.9647 -0.3976
 3659SOL    HW116814  12.045  -0.004   8.934 -0.8047  0.7427 -0.2864
 3659SOL    HW216815  12.150  -0.000   9.042 -1.2945 -1.5524  0.3244
 3660SOL     OW16816   3.779   0.672   0.046 -0.9176 -0.0128 -0.4784
 3660SOL    HW116817   3.744   0.749   0.001 -0.7303  0.4456  0.1549
 3660SOL    HW216818   3.874   0.679   0.038 -0.7687  1.0836  1.5752
 3661SOL     OW16819   5.517   6.920   3.650 -0.1366 -0.0656  0.5332
 3661SOL    HW116820   5.602   6.875   3.653 -0.5285 -0.8095  1.0555
 3661SOL    HW216821   5.538   7.011   3.633  1.0041  0.3193  3.4423
 3662SOL     OW16822  11.484   0.572   3.983 -0.2466  0.1272  0.5388
 3662SOL    HW116823  11.415   0.511   4.010 -0.4002  0.3138  0.5714
 3662SOL    HW216824  11.565   0.529   4.010 -0.4186  0.6106  1.9236
 3663SOL     OW16825   9.115   0.606   5.294 -0.3789  0.7595 -0.4221
 3663SOL    HW116826   9.026   0.628   5.266  0.0423  2.8772 -0.2424
 3663SOL    HW216827   9.166   0.606   5.214 -0.1399  1.7098 -0.2748
 3664SOL     OW16828   1.334   0.895   1.767  0.1470  0.4218  0.0357
 3664SOL    HW116829   1.313   0.935   1.851 -2.0843 -2.0003  0.7700
 3664SOL    HW216830   1.308   0.961   1.702 -2.6883  0.5897  1.1754
 3665SOL     OW16831   4.517   0.628   6.993  0.7030  0.2168  0.6539
 3665SOL    HW116832   4.460   0.551   6.996  0.2236  0.5996  1.8321
 3665SOL    HW216833   4.462   0.700   7.025  0.9612  1.1919 -0.9271
 3666SOL     OW16834   0.398   2.863   5.322  0.0877 -0.3869 -0.7557
 3666SOL    HW116835   0.315   2.824   5.348 -1.8240  3.3129 -0.6477
 3666SOL    HW216836   0.438   2.891   5.404  1.0345 -1.3353 -0.8788
 3667SOL     OW16837   7.549   1.780   1.680 -0.9489 -0.1752 -0.6433
 3667SOL    HW116838   7.462   1.743   1.665 -0.1715 -1.5990 -1.8730
 3667SOL    HW216839   7.609   1.712   1.650  0.5788  1.7392 -2.1300
 3668SOL     OW16840   5.692   6.306   8.225 -0.0289  0.2864 -0.4868
 3668SOL    HW116841   5.754   6.370   8.262 -0.4915  0.4122  0.0980
 3668SOL    HW216842   5.626   6.295   8.294 -1.7417  1.6315 -1.8126
 3669SOL     OW16843   5.587   2.544   4.254  0.6589  0.4135 -0.1622
 3669SOL    HW116844   5.676   2.563   4.284  0.5347 -0.0620  0.5500
 3669SOL    HW216845   5.533   2.612   4.294  0.6377  0.3898 -0.1493
 3670SOL     OW16846  11.749   2.500   0.439 -1.1878 -0.5874  0.0555
 3670SOL    HW116847  11.771   2.536   0.525  0.1386 -0.7129 -0.2128
 3670SOL    HW216848  11.751   2.576   0.380 -0.9373 -0.6847 -0.0624
 3671SOL     OW16849   0.361  12.154   6.387 -0.0851 -0.0460  0.3228
 3671SOL    HW116850   0.448  12.155   6.348  0.0229 -1.1264  0.4902
 3671SOL    HW216851   0.314  12.226   6.345  0.8423  0.4546  0.1333
 3672SOL     OW16852   0.778   9.083   0.309 -0.2255  0.2911  0.6372
 3672SOL    HW116853   0.824   9.004   0.340 -0.5805 -0.0254  0.3669
 3672SOL    HW216854   0.686   9.065   0.325 -0.3023  0.6934  0.6563
 3673SOL     OW16855  11.784   3.710   4.383 -0.6153 -0.3689 -0.4061
 3673SOL    HW116856  11.870   3.752   4.387 -0.2579 -1.0208 -0.9997
 3673SOL    HW216857  11.731   3.758   4.447  0.5466 -0.7740  0.9081
 3674SOL     OW16858   8.882   2.932   5.678  0.7051  0.4777 -0.4151
 3674SOL    HW116859   8.868   2.840   5.656 -1.0730  0.3252  1.0701
 3674SOL    HW216860   8.824   2.980   5.619  1.6102  0.6518 -1.1697
 3675SOL     OW16861  10.351  11.878   2.754  0.4336 -0.7811 -0.9512
 3675SOL    HW116862  10.409  11.952   2.774 -1.0374  0.1900 -0.0521
 3675SOL    HW216863  10.322  11.895   2.664 -0.6349  0.2997 -0.4308
 3676SOL     OW16864  11.381   2.130   1.391 -0.5054 -0.3021  0.7314
 3676SOL    HW116865  11.302   2.156   1.438 -0.9138  0.9773 -0.5824
 3676SOL    HW216866  11.434   2.210   1.387  0.3721 -0.8745  0.6797
 3677SOL     OW16867   0.642   1.387  12.183 -0.1869 -0.9698 -0.6518
 3677SOL    HW116868   0.736   1.374  12.185 -0.1357 -0.6421  2.2135
 3677SOL    HW216869   0.614   1.381  12.274 -2.7752  0.1586 -1.2691
 3678SOL     OW16870   7.275   4.809   8.368  0.4778  0.3427 -0.2575
 3678SOL    HW116871   7.216   4.759   8.312  0.5793 -1.0707  0.8673
 3678SOL    HW216872   7.232   4.812   8.453  0.9555  1.3115 -0.0282
 3679SOL     OW16873   3.206   5.371   6.794 -0.0298 -0.8089 -0.3677
 3679SOL    HW116874   3.170   5.345   6.878 -0.5339 -0.8768 -0.5999
 3679SOL    HW216875   3.297   5.395   6.813 -0.7884  1.5794  0.6683
 3680SOL     OW16876   7.679   1.353   8.908  0.8514  0.3592  0.1390
 3680SOL    HW116877   7.765   1.369   8.868  0.8851 -0.8543 -0.2988
 3680SOL    HW216878   7.617   1.391   8.847  0.9440 -0.8987 -0.7800
 3681SOL     OW16879   9.131   2.711   8.405 -1.2809 -0.1311 -0.0982
 3681SOL    HW116880   9.051   2.661   8.421 -0.5832 -1.8760 -1.6346
 3681SOL    HW216881   9.142   2.709   8.310  0.6201 -0.0469  0.0702
 3682SOL     OW16882   2.404   9.683   9.626 -0.0958  0.0906  0.7461
 3682SOL    HW116883   2.494   9.716   9.624 -0.3405  0.9880  2.6715
 3682SOL    HW216884   2.411   9.592   9.598  1.2153  0.5100 -0.4029
 3683SOL     OW16885   9.431   1.697   8.639  0.9894 -0.3000  0.0095
 3683SOL    HW116886   9.366   1.725   8.703 -0.1702 -0.0536 -1.2309
 3683SOL    HW216887   9.473   1.778   8.611  1.6681 -0.4331  0.6233
 3684SOL     OW16888   4.630  10.594  11.949 -0.5404  0.0141  0.0473
 3684SOL    HW116889   4.584  10.566  11.869 -1.1642  2.0970 -0.3981
 3684SOL    HW216890   4.684  10.667  11.920 -2.6355  2.4976  1.8783
 3685SOL     OW16891   0.636   4.551   5.782 -0.5382  0.3939  0.1611
 3685SOL    HW116892   0.684   4.602   5.847  0.0383  0.7481 -0.5277
 3685SOL    HW216893   0.609   4.615   5.717 -0.9124  0.0085 -0.0682
 3686SOL     OW16894  11.498   4.629   4.143  0.1506 -0.7663  0.0091
 3686SOL    HW116895  11.543   4.712   4.132  0.1486 -0.9427 -1.5262
 3686SOL    HW216896  11.411   4.644   4.106 -0.3369 -1.0539  0.9988
 3687SOL     OW16897  11.311   9.148   1.692  0.0550 -0.0497 -0.3780
 3687SOL    HW116898  11.290   9.160   1.599  0.7417 -1.0979 -0.6861
 3687SOL    HW216899  11.391   9.200   1.705  0.6438 -0.8602 -0.6820
 3688SOL     OW16900   3.446   5.440   3.944 -0.0235 -0.3551  0.1812
 3688SOL    HW116901   3.400   5.367   3.903 -2.3433  1.1892 -0.1258
 3688SOL    HW216902   3.519   5.459   3.884 -0.3113 -1.3994 -0.5319
 3689SOL     OW16903   1.236   9.830   2.432  0.0952  0.1894  0.1543
 3689SOL    HW116904   1.191   9.914   2.420  1.6915  0.8514 -1.6652
 3689SOL    HW216905   1.279   9.839   2.517 -0.2366  0.9913  0.2511
 3690SOL     OW16906  11.568   3.321   4.699  0.7422 -0.2699 -0.1971
 3690SOL    HW116907  11.612   3.386   4.643  0.5764 -0.5320 -0.6359
 3690SOL    HW216908  11.492   3.368   4.735 -0.5218 -0.7604 -2.0736
 3691SOL     OW16909   3.079   7.193   5.555  0.0995 -0.1625 -0.0775
 3691SOL    HW116910   3.086   7.266   5.617 -0.3076  1.7726 -2.1931
 3691SOL    HW216911   3.167   7.180   5.522  0.2234 -0.8505  0.5034
 3692SOL     OW16912   0.120  10.048   2.772  0.4066  0.3225 -0.2641
 3692SOL    HW116913   0.201  10.064   2.724  0.6348  2.6348  0.7304
 3692SOL    HW216914   0.083  10.135   2.786 -2.1990 -0.6462 -0.5340
 3693SOL     OW16915   7.310   6.459   6.147  0.1202  0.3305  0.0477
 3693SOL    HW116916   7.363   6.425   6.074 -0.0301  0.4947 -0.1410
 3693SOL    HW216917   7.369   6.458   6.222  0.6853  1.3463 -0.3554
 3694SOL     OW16918   4.978   8.315   0.908 -0.0398 -0.1417 -0.0426
 3694SOL    HW116919   4.943   8.245   0.963 -0.7883  1.1208  1.1481
 3694SOL    HW216920   4.968   8.282   0.819 -1.9888 -0.8766  0.3855
 3695SOL     OW16921   0.809   4.770   2.655  0.6585 -0.3614 -0.3205
 3695SOL    HW116922   0.767   4.697   2.701 -0.2533  0.0408 -0.4870
 3695SOL    HW216923   0.796   4.750   2.562  0.8141 -0.2193 -0.3733
 3696SOL     OW16924   2.730   4.431   3.623  0.9148  0.0443 -0.6731
 3696SOL    HW116925   2.644   4.469   3.606  1.3761  0.3968 -2.3998
 3696SOL    HW216926   2.711   4.342   3.654 -0.1104  0.9924  1.5817
 3697SOL     OW16927  10.414   6.456   9.993  0.2551 -0.0928 -0.3823
 3697SOL    HW116928  10.462   6.539   9.989 -0.5642  0.3740 -0.9631
 3697SOL    HW216929  10.445   6.414  10.073  0.9366  0.6207 -0.2600
 3698SOL     OW16930   4.379   0.774  11.803  0.2044 -0.2677 -0.3757
 3698SOL    HW116931   4.330   0.855  11.816 -1.0176 -0.8230 -1.2645
 3698SOL    HW216932   4.361   0.723  11.882 -1.0141 -0.6162 -0.8491
 3699SOL     OW16933   0.969   8.389  10.699  0.3681  0.3545 -0.1477
 3699SOL    HW116934   1.016   8.362  10.620 -0.2579  0.0377 -0.4148
 3699SOL    HW216935   1.035   8.435  10.751  0.8441  0.3718 -0.7523
 3700SOL     OW16936  11.338   0.257   1.390  0.7545 -0.0906 -0.1038
 3700SOL    HW116937  11.280   0.280   1.318  0.5089  1.4967  0.5582
 3700SOL    HW216938  11.357   0.164   1.377  0.7720  0.1688 -2.2324
 3701SOL     OW16939  11.903   7.925   3.518 -0.7968  0.6120  0.3161
 3701SOL    HW116940  11.866   7.839   3.540 -0.1341 -0.3576 -2.0792
 3701SOL    HW216941  11.952   7.910   3.437  0.5348  2.9673  0.6077
 3702SOL     OW16942   8.760   8.741   5.703  0.3153 -0.0019  0.6727
 3702SOL    HW116943   8.727   8.816   5.753 -0.0856 -0.0385  0.4655
 3702SOL    HW216944   8.827   8.703   5.760  0.8764  0.8021  0.5705
 3703SOL     OW16945   5.632   6.792   2.817  0.5338  0.3153 -0.4947
 3703SOL    HW116946   5.549   6.808   2.771  0.4550  0.0159 -0.4541
 3703SOL    HW216947   5.606   6.769   2.906  0.6637  0.2366 -0.4776
 3704SOL     OW16948   2.238  12.274  11.861 -0.3042 -0.0421 -0.1036
 3704SOL    HW116949   2.179  12.246  11.791 -0.3727  0.7526 -0.3723
 3704SOL    HW216950   2.271  12.192  11.899 -0.7461 -0.4819 -0.6528
 3705SOL     OW16951   5.453   2.512   4.862 -0.0251  0.2414 -0.2390
 3705SOL    HW116952   5.512   2.579   4.828  0.3026  1.2024  2.0136
 3705SOL    HW216953   5.439   2.453   4.789  2.8441  0.5916 -1.1945
 3706SOL     OW16954  10.521   8.477   9.157 -0.4786  0.0370 -0.0352
 3706SOL    HW116955  10.606   8.518   9.140 -0.6947 -0.3230 -2.3839
 3706SOL    HW216956  10.520   8.399   9.102 -1.5165 -1.1561  1.5954
 3707SOL     OW16957   4.191   6.413  12.178  0.2053 -0.5915  0.5621
 3707SOL    HW116958   4.104   6.417  12.216 -0.3328  1.1411 -0.6995
 3707SOL    HW216959   4.180   6.364  12.097 -0.1195  1.4632 -0.7058
 3708SOL     OW16960   4.333   9.394  11.250 -0.6009  0.9875  0.3323
 3708SOL    HW116961   4.245   9.410  11.217 -0.0026  0.1806 -1.8405
 3708SOL    HW216962   4.339   9.299  11.257 -0.2307  1.0804  1.4824
 3709SOL     OW16963   8.492   2.476   7.558 -0.2859  0.3438 -0.4391
 3709SOL    HW116964   8.506   2.402   7.617  1.4752 -0.4476 -1.7450
 3709SOL    HW216965   8.501   2.553   7.614  1.0402 -0.3791  0.4243
 3710SOL     OW16966   7.351   9.973   1.007 -0.5283  0.0306 -0.1186
 3710SOL    HW116967   7.282   9.909   1.024 -1.0626  0.0914 -1.9105
 3710SOL    HW216968   7.416   9.925   0.956 -0.1287  0.4650 -0.0225
 3711SOL     OW16969   9.903  10.507  10.411 -0.1125 -0.3213  0.5304
 3711SOL    HW116970   9.883  10.593  10.374  2.2595  0.0518 -0.0309
 3711SOL    HW216971   9.946  10.526  10.494  0.9810 -0.9296  0.1194
 3712SOL     OW16972   6.580   4.479   6.809 -0.3070  0.3390 -0.1186
 3712SOL    HW116973   6.512   4.483   6.876  1.0524 -2.0214  1.5275
 3712SOL    HW216974   6.651   4.535   6.842 -1.3477  2.9228 -1.9038
 3713SOL     OW16975  11.372   4.484   5.622  0.1214 -0.4515 -0.1952
 3713SOL    HW116976  11.408   4.397   5.604 -1.2386 -1.4866  1.7317
 3713SOL    HW216977  11.417   4.542   5.561  1.3445 -2.4444 -1.2728
 3714SOL     OW16978   7.935   6.195   1.479 -0.1368  0.1726  0.0392
 3714SOL    HW116979   7.909   6.286   1.473 -1.2495  0.1047  2.6622
 3714SOL    HW216980   7.853   6.146   1.474  0.1265 -0.4724  1.5801
 3715SOL     OW16981   3.212   9.882  11.521 -0.5193 -0.2164 -0.4469
 3715SOL    HW116982   3.135   9.829  11.500 -0.3803 -0.0339 -1.4655
 3715SOL    HW216983   3.283   9.840  11.472 -0.3504  0.7263 -1.0283
 3716SOL     OW16984   1.799   3.482   4.420 -0.5086  0.3628 -0.5530
 3716SOL    HW116985   1.827   3.541   4.489 -0.2418 -0.3315 -0.0537
 3716SOL    HW216986   1.850   3.508   4.344 -0.0401  0.4661 -0.2105
 3717SOL     OW16987   4.431   9.540  11.712 -0.1433  0.1207 -0.1933
 3717SOL    HW116988   4.389   9.508  11.792  1.9473 -1.2742  0.4174
 3717SOL    HW216989   4.420   9.470  11.648  1.4043 -0.3909  0.0613
 3718SOL     OW16990   4.180  10.965   9.959  0.1847 -0.2091  0.4365
 3718SOL    HW116991   4.192  10.875   9.927  0.9082 -0.6281  1.8037
 3718SOL    HW216992   4.149  11.013   9.883  0.2625 -1.5094 -0.4598
 3719SOL     OW16993  11.615   8.734   9.943  0.6020  0.4991 -0.0030
 3719SOL    HW116994  11.583   8.644   9.943 -0.4552  0.8419  1.5747
 3719SOL    HW216995  11.552   8.782   9.890  0.0362  0.6682  0.8148
 3720SOL     OW16996   1.601   7.024  10.895 -0.1040 -0.3261  0.7872
 3720SOL    HW116997   1.621   7.092  10.959  1.3863 -1.7543  1.9106
 3720SOL    HW216998   1.507   7.011  10.903  0.1618 -1.0652  3.3523
 3721SOL     OW16999   3.435   6.744   4.111 -0.2251  0.7765  0.4758
 3721SOL    HW117000   3.358   6.773   4.160 -1.7275 -0.2707 -1.1492
 3721SOL    HW217001   3.442   6.806   4.038  0.0981  0.4888  0.2607
 3722SOL     OW17002   6.665   2.449  10.567  0.3248  0.5149 -0.0976
 3722SOL    HW117003   6.661   2.388  10.493  1.1803  0.2482  0.0707
 3722SOL    HW217004   6.584   2.432  10.616  0.6649 -0.6689  0.0896
 3723SOL     OW17005   6.964   8.457  10.034 -0.0539 -0.3766 -0.1808
 3723SOL    HW117006   7.034   8.515  10.001 -0.8668  0.7148 -0.0393
 3723SOL    HW217007   7.004   8.411  10.107  0.8518 -0.5855 -0.7860
 3724SOL     OW17008  10.203   7.416   1.477 -0.0726 -0.5651  0.0556
 3724SOL    HW117009  10.256   7.379   1.406  0.1525  0.4423 -0.3221
 3724SOL    HW217010  10.155   7.488   1.436  0.2748  0.2180  0.9828
 3725SOL     OW17011  10.168   2.599   7.224 -0.1036  0.4340 -0.0788
 3725SOL    HW117012  10.257   2.564   7.221 -0.1348  0.3044  0.3883
 3725SOL    HW217013  10.148   2.606   7.317 -0.7363  0.0687 -0.1797
 3726SOL     OW17014   4.131   5.239   2.182  0.0911 -0.1012 -0.4363
 3726SOL    HW117015   4.093   5.253   2.269 -1.8046 -1.0243 -1.0684
 3726SOL    HW217016   4.105   5.316   2.132  0.7561  0.1907 -0.3471
 3727SOL     OW17017   2.263   1.154   7.041  0.0261  0.3338  0.1946
 3727SOL    HW117018   2.316   1.125   7.116  0.1786 -0.4837 -0.2205
 3727SOL    HW217019   2.261   1.079   6.982 -1.6324  0.3203  0.2117
 3728SOL     OW17020   4.516   7.457  12.128  0.1353 -0.0538 -0.1275
 3728SOL    HW117021   4.576   7.528  12.153 -0.9029  1.0413 -0.6443
 3728SOL    HW217022   4.429   7.493  12.143 -0.4476 -2.0359  1.7577
 3729SOL     OW17023   7.159  12.279   5.214 -0.2047  0.2113  0.0627
 3729SOL    HW117024   7.176  12.190   5.244 -1.5326 -0.3625 -0.7546
 3729SOL    HW217025   7.093  12.268   5.145  0.0955  1.7752 -0.5020
 3730SOL     OW17026  12.272   6.294   0.797 -0.8118  0.0654 -0.3147
 3730SOL    HW117027  12.281   6.239   0.719 -1.0591  1.9232 -1.7249
 3730SOL    HW217028  12.283   6.384   0.765 -1.9483  0.9673  1.6236
 3731SOL     OW17029   5.589   1.003  12.021 -0.1736  0.0568 -0.8790
 3731SOL    HW117030   5.533   1.014  11.944  0.8236 -0.7559 -1.7503
 3731SOL    HW217031   5.675   1.034  11.992  0.0405  0.4550  0.1559
 3732SOL     OW17032   2.373   9.551  10.494  0.1705  0.1141  0.1516
 3732SOL    HW117033   2.461   9.572  10.462  0.5640  2.0863  2.2855
 3732SOL    HW217034   2.321   9.630  10.477 -1.4436 -1.2080 -1.5912
 3733SOL     OW17035   2.135  10.962   6.716  0.6911 -0.0216  0.3623
 3733SOL    HW117036   2.157  10.898   6.785 -0.7566 -0.9603  0.0196
 3733SOL    HW217037   2.060  11.009   6.752 -0.1908 -0.6434 -0.6121
 3734SOL     OW17038   1.686  10.222  12.176 -0.4159 -0.2735 -0.1370
 3734SOL    HW117039   1.692  10.147  12.118  0.4575  0.2243 -0.7222
 3734SOL    HW217040   1.762  10.213  12.234 -0.2482  0.1975 -0.2758
 3735SOL     OW17041   5.660   0.652   5.349  0.1728  0.2652  0.0466
 3735SOL    HW117042   5.754   0.671   5.349  0.2353 -0.0362 -0.1819
 3735SOL    HW217043   5.632   0.668   5.259 -0.1655  1.1591  0.2960
 3736SOL     OW17044  10.635   0.473  10.291  0.4977  0.2682 -0.5840
 3736SOL    HW117045  10.569   0.541  10.302  0.8152  0.5435 -0.3699
 3736SOL    HW217046  10.669   0.457  10.379  0.0513 -0.5508 -0.5526
 3737SOL     OW17047   3.997   8.242  12.284  0.0145  0.1638 -0.0856
 3737SOL    HW117048   4.089   8.262  12.301 -0.2848 -0.7156  3.2667
 3737SOL    HW217049   3.949   8.305  12.338 -1.3207 -0.2130 -0.7913
 3738SOL     OW17050  11.924   3.546   1.501 -0.8002  0.3256  0.2396
 3738SOL    HW117051  11.870   3.468   1.492  1.1444 -0.9531 -1.0803
 3738SOL    HW217052  11.938   3.577   1.411  1.3397  0.0751  0.4283
 3739SOL     OW17053   7.064   2.388   1.510  0.0593 -0.4019  0.4358
 3739SOL    HW117054   7.011   2.428   1.441 -1.6458 -1.3643  1.1095
 3739SOL    HW217055   7.090   2.303   1.475 -0.3256 -0.6527  0.7470
 3740SOL     OW17056   6.004   2.290   7.278 -0.5966 -0.1281  0.2072
 3740SOL    HW117057   5.914   2.271   7.304 -0.3449  0.1267  1.3060
 3740SOL    HW217058   6.000   2.296   7.183 -1.2784 -2.5808  0.0049
 3741SOL     OW17059   9.201   4.353   3.875  0.2371 -0.2184 -0.4969
 3741SOL    HW117060   9.193   4.359   3.780  1.4948 -0.9016 -0.6705
 3741SOL    HW217061   9.259   4.278   3.889 -0.1121 -0.2649  0.8200
 3742SOL     OW17062   4.388  10.119   7.097 -0.3048  0.1044  0.0460
 3742SOL    HW117063   4.474  10.157   7.079 -0.1716  0.3909  1.2098
 3742SOL    HW217064   4.338  10.190   7.137 -0.2644 -0.7346  1.6715
 3743SOL     OW17065   2.029   1.643  10.629 -0.3357  0.0466  0.0698
 3743SOL    HW117066   1.990   1.627  10.543  2.2774 -0.9222 -1.0428
 3743SOL    HW217067   2.058   1.734  10.625  0.0040 -0.0690 -0.2040
 3744SOL     OW17068   0.054   2.071   8.467  0.1732  0.3465 -0.2548
 3744SOL    HW117069  -0.004   2.132   8.511  0.4455  0.2940  0.1877
 3744SOL    HW217070   0.131   2.122   8.444  0.9643 -0.0872  1.2688
 3745SOL     OW17071   2.397   3.700   8.267 -0.1541  0.0801  0.2980
 3745SOL    HW117072   2.468   3.762   8.255 -0.8601  0.9701  0.6249
 3745SOL    HW217073   2.404   3.640   8.193  0.4678  0.6202 -0.0834
 3746SOL     OW17074   6.667   5.900   1.626  0.4004  0.6021 -0.2757
 3746SOL    HW117075   6.612   5.881   1.701 -0.3918  0.4569 -0.8851
 3746SOL    HW217076   6.660   5.822   1.570  0.3767  1.0102 -0.8513
 3747SOL     OW17077   2.014  11.514   0.214 -0.7149 -0.3393  0.3341
 3747SOL    HW117078   2.053  11.427   0.207  1.2530  0.5649 -0.7430
 3747SOL    HW217079   2.079  11.573   0.175 -1.8420  1.6687  1.3297
 3748SOL     OW17080  10.271  10.877   4.000 -0.6549  0.5585  0.0930
 3748SOL    HW117081  10.313  10.796   3.971 -0.5300  0.6847 -0.0809
 3748SOL    HW217082  10.178  10.865   3.978 -0.7725  0.1437  0.7790
 3749SOL     OW17083  11.098   2.534   2.569 -0.3519  0.3140  0.3993
 3749SOL    HW117084  11.156   2.464   2.538  0.3088  0.8409  0.4180
 3749SOL    HW217085  11.087   2.517   2.662  1.8982  1.6458  0.9837
 3750SOL     OW17086   7.938   9.615  11.286  0.0621  0.5726 -0.0965
 3750SOL    HW117087   7.890   9.585  11.209 -1.0625  0.2299  0.7119
 3750SOL    HW217088   7.872   9.619  11.355  1.3664 -0.7781  1.2973
 3751SOL     OW17089   4.881   0.202  10.014 -0.3746  0.5952 -0.1319
 3751SOL    HW117090   4.927   0.246  10.085 -1.8519  0.7568  0.7635
 3751SOL    HW217091   4.921   0.115  10.009 -1.1759  0.0654  1.8694
 3752SOL     OW17092   2.885   9.168   9.221  0.1525  0.1343  0.6353
 3752SOL    HW117093   2.925   9.250   9.194  0.0575 -0.0983 -0.2515
 3752SOL    HW217094   2.794   9.191   9.239  0.3810  0.4259  1.4708
 3753SOL     OW17095   1.971   4.526  11.753 -0.2357  0.4460  0.1705
 3753SOL    HW117096   2.042   4.529  11.817  1.1028 -0.9734 -1.1617
 3753SOL    HW217097   1.975   4.610  11.708  0.4141  0.4818  0.2926
 3754SOL     OW17098   5.169   4.410   6.194  0.1312  0.6725 -0.2633
 3754SOL    HW117099   5.074   4.406   6.197  0.1546  0.4193  0.1660
 3754SOL    HW217100   5.189   4.504   6.190 -0.1712  0.7085 -1.8806
 3755SOL     OW17101   6.087   8.086  10.621  0.0049  0.1275 -0.1816
 3755SOL    HW117102   6.028   8.012  10.604  0.2216  0.0035 -0.3948
 3755SOL    HW217103   6.028   8.160  10.638 -0.2533  0.5803 -2.7036
 3756SOL     OW17104   7.127  11.528   2.318  0.6319  0.6512  0.7325
 3756SOL    HW117105   7.146  11.554   2.227 -2.7983  3.4945  0.5878
 3756SOL    HW217106   7.034  11.505   2.317  1.0615 -1.5543  3.1650
 3757SOL     OW17107  10.266   5.451   3.329  0.4362 -0.1395 -0.0185
 3757SOL    HW117108  10.236   5.514   3.264 -1.4212 -0.0335  0.8833
 3757SOL    HW217109  10.298   5.377   3.278 -0.6115  0.1045 -1.0542
 3758SOL     OW17110   0.228   8.910   8.154 -0.2274  0.0912 -0.1020
 3758SOL    HW117111   0.290   8.979   8.174 -0.8751  0.6502  0.0171
 3758SOL    HW217112   0.230   8.902   8.058 -2.8813  2.9495 -0.5561
 3759SOL     OW17113   1.051  11.123   2.404 -0.0634  0.0401  0.3798
 3759SOL    HW117114   1.043  11.030   2.423  1.0623  0.2615  2.1757
 3759SOL    HW217115   1.013  11.167   2.481 -1.1049  1.0986 -0.6875
 3760SOL     OW17116   2.933   9.787   3.044 -0.5294 -0.3976  0.2613
 3760SOL    HW117117   2.959   9.697   3.059  0.1404 -0.4500 -1.0379
 3760SOL    HW217118   2.886   9.785   2.961 -3.0321  0.0297  1.5721
 3761SOL     OW17119   2.004   6.879  11.093  0.5358 -0.0495  0.2247
 3761SOL    HW117120   2.090   6.849  11.122 -1.0278 -2.7046  2.7053
 3761SOL    HW217121   1.965   6.803  11.050 -0.8331  0.8798 -0.2451
 3762SOL     OW17122   3.880  11.879   0.164 -0.0710  0.1274 -0.2683
 3762SOL    HW117123   3.892  11.890   0.258  4.2772  2.1276 -0.7866
 3762SOL    HW217124   3.914  11.792   0.145 -0.5323 -0.0994 -0.0686
 3763SOL     OW17125   6.364   4.225   1.520  0.3201  0.1523  0.4110
 3763SOL    HW117126   6.366   4.320   1.511  0.8060  0.0833 -0.3079
 3763SOL    HW217127   6.322   4.194   1.440 -0.4927 -0.2106  0.9632
 3764SOL     OW17128   1.015   3.698   0.440  0.6187 -0.1671  0.2575
 3764SOL    HW117129   0.922   3.690   0.457  0.7156 -0.3663  0.7099
 3764SOL    HW217130   1.032   3.792   0.437  0.2298 -0.1233 -0.8164
 3765SOL     OW17131   0.474   8.048   7.887 -0.0692 -0.2383  0.2380
 3765SOL    HW117132   0.394   8.092   7.859 -0.2557 -0.4727  0.4029
 3765SOL    HW217133   0.448   7.958   7.906  0.9687 -1.6010 -3.8158
 3766SOL     OW17134   3.682   3.417   2.875  0.0044  0.0781  0.0396
 3766SOL    HW117135   3.721   3.420   2.788 -0.6199 -0.2530 -0.2569
 3766SOL    HW217136   3.757   3.421   2.935  0.3568  2.7138 -0.4495
 3767SOL     OW17137  12.329   6.812   2.735  0.1519  0.4811 -0.0058
 3767SOL    HW117138  12.341   6.829   2.642  0.3024 -0.8455 -0.2594
 3767SOL    HW217139  12.270   6.880   2.766  1.6902  2.1666 -0.6158
 3768SOL     OW17140   8.679  11.032   8.560 -0.2284  0.3970 -0.0946
 3768SOL    HW117141   8.733  11.106   8.531 -1.5641  1.8975  1.0426
 3768SOL    HW217142   8.597  11.072   8.588 -1.3124 -1.6399 -0.1822
 3769SOL     OW17143   9.676  11.595   7.096 -0.6297 -0.4477 -0.3261
 3769SOL    HW117144   9.690  11.645   7.177  0.6221  0.9352 -1.3387
 3769SOL    HW217145   9.605  11.641   7.051  0.4772  0.4528 -1.2279
 3770SOL     OW17146   3.203   4.297  10.708 -0.5493  0.1172 -0.3611
 3770SOL    HW117147   3.278   4.277  10.653  0.2213  1.3774  0.1826
 3770SOL    HW217148   3.130   4.248  10.669  0.7061 -1.8188 -0.4033
 3771SOL     OW17149   3.853   8.789   7.588 -0.7831 -0.1776  0.2130
 3771SOL    HW117150   3.888   8.803   7.500 -1.4523  0.8751  0.0970
 3771SOL    HW217151   3.788   8.720   7.577 -0.5131 -0.4018 -0.0152
 3772SOL     OW17152   3.095   3.859   5.261 -0.0200  0.0168 -0.2498
 3772SOL    HW117153   3.119   3.916   5.188  0.9132 -0.9346 -0.7159
 3772SOL    HW217154   3.173   3.805   5.275 -0.2752  0.0247  1.3076
 3773SOL     OW17155   6.706   2.418   5.549  0.2874  0.0613 -0.0887
 3773SOL    HW117156   6.703   2.513   5.552  0.5801  0.1187 -1.2674
 3773SOL    HW217157   6.629   2.390   5.600  0.6004  0.8921  0.8718
 3774SOL     OW17158   7.736   7.553   7.656  0.6737 -0.0894  0.2565
 3774SOL    HW117159   7.775   7.578   7.572  1.6041 -1.4787  0.2527
 3774SOL    HW217160   7.647   7.528   7.634  0.7953 -0.0860 -0.2651
 3775SOL     OW17161   3.088   9.301   2.770 -0.3508 -0.3786 -0.0893
 3775SOL    HW117162   3.148   9.271   2.702 -0.7738 -0.3253 -0.4911
 3775SOL    HW217163   3.052   9.383   2.736 -1.1361 -0.7337 -0.1411
 3776SOL     OW17164   1.718   7.002  10.645  0.4730  0.1833 -0.4242
 3776SOL    HW117165   1.766   7.085  10.647 -0.2878  0.6650  2.4169
 3776SOL    HW217166   1.648   7.013  10.710 -1.4809 -1.6685 -2.0535
 3777SOL     OW17167   4.983   3.983   5.513 -0.0228  0.8014  0.1056
 3777SOL    HW117168   5.016   4.021   5.595 -0.7968 -0.2858  0.9443
 3777SOL    HW217169   5.037   3.905   5.499 -1.7623 -0.6721  1.1859
 3778SOL     OW17170   2.497   9.808   0.301  0.1401  0.3653  0.3265
 3778SOL    HW117171   2.414   9.846   0.328  0.6443  1.1372  0.8210
 3778SOL    HW217172   2.509   9.734   0.360 -0.1747  0.2705  0.2758
 3779SOL     OW17173   8.759   5.476   7.428 -0.8075 -0.1303  0.2965
 3779SOL    HW117174   8.681   5.525   7.455 -1.2272 -0.5500 -0.1106
 3779SOL    HW217175   8.821   5.488   7.499 -1.1379  0.4643  0.4892
 3780SOL     OW17176   8.408   8.535   9.797 -0.1245 -0.4165  0.2200
 3780SOL    HW117177   8.425   8.485   9.717 -1.4412 -0.5938  0.0259
 3780SOL    HW217178   8.330   8.587   9.777 -0.2192 -0.1336  1.2447
 3781SOL     OW17179   8.617   0.654   0.801  0.4471  0.2935  0.1730
 3781SOL    HW117180   8.587   0.639   0.712 -0.6300  0.1118  0.5582
 3781SOL    HW217181   8.635   0.566   0.835 -0.6199  0.2331  0.6261
 3782SOL     OW17182  11.890  10.160   2.142  0.4492  0.2492  0.2540
 3782SOL    HW117183  11.837  10.223   2.093 -1.4957 -0.3118  1.5260
 3782SOL    HW217184  11.830  10.125   2.208  2.1962 -1.0779  1.2034
 3783SOL     OW17185   5.714   2.334   5.748  0.0527  0.4609 -0.4268
 3783SOL    HW117186   5.808   2.349   5.743 -0.1941  2.9854  0.8915
 3783SOL    HW217187   5.701   2.250   5.703  3.0102 -0.4579  0.2020
 3784SOL     OW17188   3.061   4.564   1.552 -0.5355  0.3863  0.4339
 3784SOL    HW117189   3.097   4.597   1.634  0.9189 -4.0858  1.9299
 3784SOL    HW217190   3.129   4.581   1.487  0.9152 -0.9827  1.5162
 3785SOL     OW17191   1.732   0.891   6.527  0.8321  0.3227 -0.4302
 3785SOL    HW117192   1.647   0.847   6.522  1.4610 -0.8279 -1.5067
 3785SOL    HW217193   1.711   0.984   6.514 -0.1354 -0.0944 -2.3546
 3786SOL     OW17194   1.711   1.241   5.521 -0.2263  0.1466 -0.6986
 3786SOL    HW117195   1.746   1.234   5.433 -0.9418 -0.6584 -0.9398
 3786SOL    HW217196   1.629   1.191   5.518 -0.4414  0.4100  0.3221
 3787SOL     OW17197   6.026   5.358   2.020  0.0496 -0.5040 -0.1677
 3787SOL    HW117198   5.950   5.395   1.975  0.4945 -1.4186 -1.7476
 3787SOL    HW217199   6.054   5.427   2.080 -2.4095 -0.3981  0.9682
 3788SOL     OW17200   9.922   8.195   7.726 -0.1696 -0.2611 -0.1643
 3788SOL    HW117201   9.872   8.240   7.657 -0.2906 -0.6885 -0.3622
 3788SOL    HW217202   9.905   8.245   7.805  1.1472  1.1370 -0.6986
 3789SOL     OW17203  11.008   7.910   2.636 -0.1856  0.4354 -0.1386
 3789SOL    HW117204  10.937   7.973   2.645  0.1467  0.8543 -0.4243
 3789SOL    HW217205  10.965   7.832   2.598 -0.3535  0.9658 -1.0882
 3790SOL     OW17206   9.462  10.012   5.093  0.5102  0.0806  0.5408
 3790SOL    HW117207   9.452  10.106   5.081 -0.7552 -0.2465 -1.2381
 3790SOL    HW217208   9.557   9.998   5.089  0.6390  1.1093 -0.6657
 3791SOL     OW17209   8.637   4.626   3.090  0.6413 -0.0601 -0.1775
 3791SOL    HW117210   8.570   4.694   3.096  0.4538 -0.2862  0.4022
 3791SOL    HW217211   8.705   4.652   3.152  0.1368 -0.8536  0.7501
 3792SOL     OW17212   8.167   1.836   9.794  0.3979  0.0702 -0.4788
 3792SOL    HW117213   8.253   1.873   9.775 -0.2712  1.5478 -0.7336
 3792SOL    HW217214   8.142   1.872   9.879 -0.8279  1.3542 -1.3244
 3793SOL     OW17215   9.887   9.764   6.890 -0.2699 -0.2033 -0.7932
 3793SOL    HW117216   9.922   9.731   6.807 -3.3481 -1.8453 -1.5879
 3793SOL    HW217217   9.834   9.840   6.865 -1.4071 -0.8477 -0.4141
 3794SOL     OW17218   7.259   9.406   2.157  0.1817 -0.0523 -0.1304
 3794SOL    HW117219   7.233   9.493   2.186  0.3809  0.3845 -1.2035
 3794SOL    HW217220   7.316   9.373   2.227  1.3196  1.2903 -0.3731
 3795SOL     OW17221   8.607  11.815   8.586 -0.6658 -0.2823 -0.4790
 3795SOL    HW117222   8.535  11.793   8.645 -0.4502 -0.3837 -0.2528
 3795SOL    HW217223   8.597  11.909   8.570 -0.8367 -0.2926 -0.4361
 3796SOL     OW17224   0.996   2.357  11.255  0.0322 -0.5094 -0.3003
 3796SOL    HW117225   1.024   2.305  11.180  2.6263 -0.2844  0.4333
 3796SOL    HW217226   1.004   2.448  11.225 -0.7504 -0.4350 -0.3173
 3797SOL     OW17227   9.038   0.322   7.813  0.1301 -0.4714 -0.1757
 3797SOL    HW117228   9.007   0.235   7.837  0.5525 -0.1246  1.8342
 3797SOL    HW217229   9.074   0.312   7.725 -1.0648 -1.9979 -0.5205
 3798SOL     OW17230   3.241   6.972   2.861  0.1325  0.2318 -0.1609
 3798SOL    HW117231   3.229   6.966   2.766  1.4615 -3.6865 -0.2809
 3798SOL    HW217232   3.164   6.929   2.897  0.5379 -0.0293  0.4076
 3799SOL     OW17233   9.817   3.390   6.527 -0.0114  0.0831  0.1135
 3799SOL    HW117234   9.833   3.296   6.517  3.3776  0.5746 -0.3356
 3799SOL    HW217235   9.817   3.424   6.437 -0.3083  0.6370  0.3196
 3800SOL     OW17236   4.235   8.768   1.399  0.3294 -0.2084  0.3948
 3800SOL    HW117237   4.287   8.762   1.319  0.6398 -0.0241  0.5808
 3800SOL    HW217238   4.223   8.862   1.413 -0.9260 -0.2531 -0.1987
 3801SOL     OW17239   5.492   2.884   7.206  0.2835  0.3749  0.2763
 3801SOL    HW117240   5.474   2.896   7.113  1.8256  0.7106 -0.0198
 3801SOL    HW217241   5.489   2.789   7.220  4.2271 -0.1783 -1.1740
 3802SOL     OW17242   4.210   5.475   3.474 -0.3116  0.2810 -0.7990
 3802SOL    HW117243   4.129   5.462   3.425 -0.4702 -0.9129 -0.2495
 3802SOL    HW217244   4.242   5.561   3.446 -1.1354  0.2340 -1.9122
 3803SOL     OW17245   7.668   0.590   3.157 -0.0541 -0.2092 -0.2664
 3803SOL    HW117246   7.763   0.579   3.167  0.1828  0.5720 -1.4970
 3803SOL    HW217247   7.644   0.528   3.089  0.2137  2.0830 -2.5817
 3804SOL     OW17248  12.188   5.378   0.694 -0.3158 -0.0045  0.0498
 3804SOL    HW117249  12.092   5.375   0.701 -0.3787 -0.9384 -0.9423
 3804SOL    HW217250  12.218   5.369   0.785 -1.1560 -1.3653  0.2275
 3805SOL     OW17251   3.737   4.621  10.413  0.0669  0.0121  0.5575
 3805SOL    HW117252   3.746   4.694  10.474 -1.4840  0.6306  0.0816
 3805SOL    HW217253   3.826   4.605  10.381  0.5340  1.1993  1.2059
 3806SOL     OW17254   2.093  10.804   0.156 -0.7260 -0.1802  0.1217
 3806SOL    HW117255   2.120  10.730   0.211  0.8433 -0.3805 -0.8651
 3806SOL    HW217256   1.999  10.813   0.173 -0.9443 -2.3175  0.3747
 3807SOL     OW17257   8.838  11.626   7.661 -0.3305  0.1581  0.0837
 3807SOL    HW117258   8.884  11.553   7.618 -1.4095 -0.0638 -0.7381
 3807SOL    HW217259   8.805  11.679   7.588 -0.1189  1.1211  0.6742
 3808SOL     OW17260   2.746   2.449   2.769  0.5099 -0.4359  0.0200
 3808SOL    HW117261   2.753   2.394   2.691 -1.0011 -1.4507  0.5628
 3808SOL    HW217262   2.769   2.537   2.739 -3.4714 -0.0118 -2.5247
 3809SOL     OW17263  11.406  11.340  12.168  0.8820 -0.1284 -0.2797
 3809SOL    HW117264  11.365  11.280  12.106  2.4400 -1.1848 -0.3418
 3809SOL    HW217265  11.352  11.420  12.164  0.8912 -0.1737 -2.9363
 3810SOL     OW17266   1.721   9.855   1.345  0.2177  0.4690 -0.1382
 3810SOL    HW117267   1.774   9.930   1.318 -0.9457  1.2606 -0.3061
 3810SOL    HW217268   1.670   9.834   1.267 -0.5083  0.4304  0.3425
 3811SOL     OW17269   1.391   2.399   8.062  0.0246  0.3002 -0.2573
 3811SOL    HW117270   1.360   2.481   8.100 -0.9417 -0.8090  1.5179
 3811SOL    HW217271   1.420   2.422   7.974 -1.3421  2.3123 -0.2425
 3812SOL     OW17272   7.923   9.201   2.113 -1.2994  0.0028 -0.1421
 3812SOL    HW117273   8.004   9.177   2.159 -2.0080  0.0255  1.1689
 3812SOL    HW217274   7.951   9.260   2.043 -0.0486 -1.0020 -0.5154
 3813SOL     OW17275   8.313  10.271   6.867  0.0196 -0.6720 -0.0467
 3813SOL    HW117276   8.320  10.179   6.843 -0.4854 -0.4639 -1.0510
 3813SOL    HW217277   8.403  10.298   6.885  0.0288 -1.6699  1.5309
 3814SOL     OW17278   6.588  11.737   4.583  0.1256 -0.3701  0.1018
 3814SOL    HW117279   6.666  11.779   4.547  0.7501 -0.0018  1.8122
 3814SOL    HW217280   6.530  11.810   4.606 -0.9484 -0.6474 -1.5325
 3815SOL     OW17281   9.531   2.447   6.020  0.1225 -0.0815 -0.0924
 3815SOL    HW117282   9.552   2.405   6.103 -0.3786  2.1799  1.2760
 3815SOL    HW217283   9.442   2.417   5.999  0.3429 -0.8451  0.0318
 3816SOL     OW17284   7.493  10.562   9.441  0.2519 -0.0605 -0.5261
 3816SOL    HW117285   7.440  10.556   9.521  0.3931 -0.3623 -0.4511
 3816SOL    HW217286   7.582  10.582   9.473  0.2035  0.3544 -0.6445
 3817SOL     OW17287   5.507   5.259   6.855 -0.2252 -0.3171  0.4608
 3817SOL    HW117288   5.512   5.277   6.761 -2.0998 -1.2388  0.1313
 3817SOL    HW217289   5.502   5.164   6.861 -1.4199 -0.2303  1.3724
 3818SOL     OW17290  11.981  11.444   8.186  0.4567 -0.4655  0.0041
 3818SOL    HW117291  11.974  11.433   8.092 -0.3442  0.8689 -0.1202
 3818SOL    HW217292  11.957  11.535   8.202 -0.2129 -0.8658  1.5739
 3819SOL     OW17293   7.085  10.370   2.719 -0.0680 -0.7688  0.0530
 3819SOL    HW117294   6.994  10.362   2.690 -0.0047  0.8708 -0.7079
 3819SOL    HW217295   7.129  10.294   2.682 -0.4458  0.1492 -2.5095
 3820SOL     OW17296   0.776   8.820   1.247  0.0951  0.1025 -0.4485
 3820SOL    HW117297   0.697   8.788   1.202 -0.1063  0.7637 -0.5810
 3820SOL    HW217298   0.848   8.793   1.191 -0.0519 -0.3310 -0.4324
 3821SOL     OW17299   5.210   9.866   6.982  0.2814  0.2319 -0.0238
 3821SOL    HW117300   5.213   9.816   6.900 -0.3993 -0.1440  0.1700
 3821SOL    HW217301   5.129   9.916   6.976 -1.3754 -2.0156  1.6468
 3822SOL     OW17302   5.814   5.395   0.519  0.1036 -0.0337 -0.1175
 3822SOL    HW117303   5.900   5.377   0.481  0.3778 -0.5482  0.7387
 3822SOL    HW217304   5.797   5.321   0.576 -0.2006  0.8398  0.9557
 3823SOL     OW17305  10.736   3.087  11.370  0.1555  0.4011 -0.8155
 3823SOL    HW117306  10.772   3.151  11.309  0.0990  0.7154 -0.5204
 3823SOL    HW217307  10.668   3.135  11.417  0.7336  0.3848  0.0457
 3824SOL     OW17308   9.053   2.073  11.030 -0.3451 -0.1843 -0.0445
 3824SOL    HW117309   8.976   2.086  11.085 -0.5465  1.3877 -0.6390
 3824SOL    HW217310   9.078   1.982  11.044  0.4121  0.4200  3.6758
 3825SOL     OW17311   7.882   5.242  10.156 -0.0377 -0.3035  0.1460
 3825SOL    HW117312   7.897   5.255  10.250  0.9428 -0.8931  0.0876
 3825SOL    HW217313   7.884   5.147  10.145  0.1027 -0.2255 -0.5120
 3826SOL     OW17314   5.532   9.876  12.297  0.1878 -0.0972 -0.5788
 3826SOL    HW117315   5.586   9.904  12.222 -1.4995 -2.3077 -2.7971
 3826SOL    HW217316   5.462   9.942  12.301  1.0465  0.8149  0.0419
 3827SOL     OW17317   3.569   4.384   2.685 -0.0664 -0.2970 -0.3753
 3827SOL    HW117318   3.519   4.389   2.766  0.6520  0.5928  0.0323
 3827SOL    HW217319   3.540   4.460   2.634  1.2127  0.5367  0.0905
 3828SOL     OW17320   9.053   6.725   7.269 -0.3881  0.0132 -0.3774
 3828SOL    HW117321   9.114   6.689   7.334  0.7130  2.8652  0.3316
 3828SOL    HW217322   9.025   6.649   7.218  3.5580 -1.5733 -0.5830
 3829SOL     OW17323   6.009   9.306   4.912 -0.0432  0.0103 -0.0650
 3829SOL    HW117324   5.930   9.298   4.858  0.6810 -0.1042 -1.1467
 3829SOL    HW217325   6.021   9.219   4.950  0.6007 -0.5305 -1.4315
 3830SOL     OW17326   7.412   8.308   0.475  0.5104 -0.0135  0.4047
 3830SOL    HW117327   7.458   8.381   0.517  0.6866 -1.5280  3.0669
 3830SOL    HW217328   7.478   8.264   0.422  0.6109  1.1905 -0.5180
 3831SOL     OW17329   2.048   5.708   2.226  0.4257  0.0156  0.4075
 3831SOL    HW117330   2.111   5.641   2.252  1.4226  0.5620 -0.5435
 3831SOL    HW217331   1.991   5.664   2.162  0.9513  0.0108 -0.0624
 3832SOL     OW17332   8.225  10.076   2.625 -0.3030 -0.1360 -0.0831
 3832SOL    HW117333   8.208  10.140   2.694 -0.4757 -0.5007  0.2126
 3832SOL    HW217334   8.307  10.034   2.651  0.8747  1.2893 -1.2617
 3833SOL     OW17335   4.158   9.107   6.611 -0.0329 -0.0164 -0.1760
 3833SOL    HW117336   4.240   9.127   6.656 -0.4685  0.8266  0.2700
 3833SOL    HW217337   4.118   9.038   6.663  1.3412 -1.9730 -1.5563
 3834SOL     OW17338   2.880   6.910   8.701 -0.4662  0.0938 -0.1205
 3834SOL    HW117339   2.956   6.923   8.758  0.4613  1.8203 -1.6528
 3834SOL    HW217340   2.917   6.881   8.618 -1.7699 -2.0642 -0.0155
 3835SOL     OW17341   0.808   5.656   9.320  0.7582  0.0898  0.6340
 3835SOL    HW117342   0.767   5.683   9.402  0.0710 -2.0059  1.0376
 3835SOL    HW217343   0.902   5.669   9.335  0.5736  0.5919  1.4162
 3836SOL     OW17344   0.331   5.407  10.908 -0.0678 -0.4037  0.3262
 3836SOL    HW117345   0.401   5.406  10.842 -1.1060  2.7272 -0.9937
 3836SOL    HW217346   0.335   5.320  10.948  2.2968 -1.5396 -2.0659
 3837SOL     OW17347   0.566  10.496   3.333  0.1577 -0.2643  0.5406
 3837SOL    HW117348   0.605  10.512   3.248  0.6739  1.3363  1.0454
 3837SOL    HW217349   0.475  10.473   3.314  0.1000  0.6812 -0.4151
 3838SOL     OW17350   5.010  11.177   7.464  0.6804 -0.2717  0.1636
 3838SOL    HW117351   5.005  11.222   7.380 -1.2698  0.1606  0.4770
 3838SOL    HW217352   5.073  11.106   7.450  1.9806  1.0629 -1.0344
 3839SOL     OW17353  11.281   1.261  11.729 -0.1738  0.1234  0.2848
 3839SOL    HW117354  11.218   1.331  11.745  0.1036  0.7454 -1.1660
 3839SOL    HW217355  11.364   1.307  11.712  0.6337 -0.6623  1.8480
 3840SOL     OW17356   4.066  11.393   3.349  0.1084 -0.0828  0.1160
 3840SOL    HW117357   4.124  11.445   3.405 -0.0987  0.2668  0.0082
 3840SOL    HW217358   4.124  11.353   3.285 -0.0205  2.3007 -1.6041
 3841SOL     OW17359  11.255   7.754   6.484 -0.0535  0.1600 -0.0999
 3841SOL    HW117360  11.257   7.684   6.549 -0.8032  0.2085 -0.0158
 3841SOL    HW217361  11.206   7.717   6.410 -0.2136  0.4930 -0.1641
 3842SOL     OW17362   3.527   7.079   4.103 -0.0326 -0.4227 -0.2116
 3842SOL    HW117363   3.532   7.022   4.179 -1.5680  0.6142  0.7238
 3842SOL    HW217364   3.615   7.114   4.093  0.1332 -0.3198  1.3314
 3843SOL     OW17365   5.359   0.822   5.536 -0.4863  0.2008 -0.2255
 3843SOL    HW117366   5.379   0.874   5.614  2.5102  0.2916 -0.9069
 3843SOL    HW217367   5.275   0.855   5.505  0.2836  3.2108  0.5584
 3844SOL     OW17368   8.791   6.608   5.571 -0.0094 -0.4803 -0.0031
 3844SOL    HW117369   8.778   6.691   5.617 -2.4686 -0.8606  0.1119
 3844SOL    HW217370   8.874   6.620   5.525  0.9405  1.1055  1.9277
 3845SOL     OW17371   3.451  12.182   9.516 -0.3950 -0.2500  0.1995
 3845SOL    HW117372   3.472  12.182   9.609  0.8218 -0.2030 -0.0583
 3845SOL    HW217373   3.360  12.211   9.512 -0.0475  1.1359  1.2924
 3846SOL     OW17374   0.950   2.405   4.561  0.1883  0.0494  0.0917
 3846SOL    HW117375   1.005   2.375   4.633  0.8503  0.4103 -0.2489
 3846SOL    HW217376   0.994   2.373   4.482 -0.9909 -1.0980 -0.1381
 3847SOL     OW17377   5.177  11.011   2.844 -0.4364 -0.0914  0.2277
 3847SOL    HW117378   5.223  10.957   2.780 -1.5223  0.1716 -0.8103
 3847SOL    HW217379   5.131  10.949   2.901  2.3600 -0.4566  2.3132
 3848SOL     OW17380   7.127   7.500   9.576  0.1192  0.0007  0.8783
 3848SOL    HW117381   7.221   7.485   9.571  0.2201  0.6807  0.6030
 3848SOL    HW217382   7.118   7.588   9.614 -0.3032  1.1990 -1.7409
 3849SOL     OW17383   6.545   3.379   5.947  0.1231  0.3245  0.6597
 3849SOL    HW117384   6.595   3.319   5.891 -1.0270  1.2410 -1.5004
 3849SOL    HW217385   6.488   3.321   5.998  2.5751 -0.6664  2.4710
 3850SOL     OW17386   8.309   3.836   5.955  0.0926 -0.3092 -0.2866
 3850SOL    HW117387   8.242   3.902   5.938  2.3334  2.6723  1.4696
 3850SOL    HW217388   8.351   3.823   5.870 -0.8389 -0.0246 -0.8098
 3851SOL     OW17389   5.634   8.222   1.037 -0.2604  0.4620 -0.2484
 3851SOL    HW117390   5.637   8.290   0.971  0.7699  1.6120  0.9117
 3851SOL    HW217391   5.699   8.250   1.103 -1.2581 -0.5943  1.2557
 3852SOL     OW17392   9.708  10.420   4.026 -0.2417  0.2285 -0.6948
 3852SOL    HW117393   9.675  10.331   4.042  1.4381 -0.2449  0.4280
 3852SOL    HW217394   9.629  10.472   4.007 -1.2365 -1.5456 -1.7418
 3853SOL     OW17395   5.754   3.700   0.136  0.7368  0.4008 -0.4162
 3853SOL    HW117396   5.828   3.749   0.100  1.8257  0.1268  1.3255
 3853SOL    HW217397   5.788   3.612   0.149 -0.9127 -0.6373 -2.5777
 3854SOL     OW17398   3.483   7.264  11.408  0.1190 -0.3506 -0.7530
 3854SOL    HW117399   3.418   7.306  11.352  0.4091 -0.1439 -0.9368
 3854SOL    HW217400   3.442   7.181  11.434 -1.0866  0.6994  0.8729
 3855SOL     OW17401  11.666   2.064   6.558 -0.5142  0.8609 -0.3928
 3855SOL    HW117402  11.687   2.005   6.630  1.3847  0.9172 -0.8679
 3855SOL    HW217403  11.590   2.023   6.516 -0.4724 -0.1715  0.4895
 3856SOL     OW17404   1.340   6.770   7.105 -0.5525  0.3518 -0.5269
 3856SOL    HW117405   1.287   6.690   7.104 -0.3835  0.2129  0.3720
 3856SOL    HW217406   1.353   6.789   7.198  1.1760  0.2337 -0.6963
 3857SOL     OW17407   8.834   4.279   5.221  0.0058 -0.2186  0.2849
 3857SOL    HW117408   8.762   4.329   5.260 -1.1285  0.3297 -2.3012
 3857SOL    HW217409   8.877   4.341   5.161  1.1836 -1.2044  0.0710
 3858SOL     OW17410  12.323   1.599   6.003  0.6111 -0.4201  0.7464
 3858SOL    HW117411  12.332   1.558   6.089 -0.3875 -3.5507 -0.4858
 3858SOL    HW217412  12.374   1.679   6.009  3.3096 -2.1216  3.2609
 3859SOL     OW17413   6.260   3.339   7.872  0.0653  0.5263  0.1461
 3859SOL    HW117414   6.242   3.254   7.911  0.5852 -0.0556 -0.8277
 3859SOL    HW217415   6.338   3.371   7.916  0.2461  0.1936  0.0655
 3860SOL     OW17416   0.373   3.426   5.472 -0.2220 -0.4937  0.0939
 3860SOL    HW117417   0.294   3.474   5.449 -0.2344 -0.9502 -0.8799
 3860SOL    HW217418   0.368   3.345   5.422 -0.3642 -1.7038  1.9714
 3861SOL     OW17419   8.590   1.514   3.921 -0.3732 -0.0427  0.2447
 3861SOL    HW117420   8.597   1.608   3.933 -1.4717 -0.0838  1.3696
 3861SOL    HW217421   8.679   1.486   3.898  0.2631  1.1024  1.1989
 3862SOL     OW17422   8.413   6.279   3.579 -0.3598  0.3385  0.1645
 3862SOL    HW117423   8.328   6.239   3.598 -0.4181  0.6055  0.4802
 3862SOL    HW217424   8.474   6.232   3.636  0.1736 -1.6383 -1.8783
 3863SOL     OW17425   5.584  10.644   2.328 -0.1267  0.8340  0.6886
 3863SOL    HW117426   5.634  10.658   2.408  0.8305  2.6530 -0.1672
 3863SOL    HW217427   5.638  10.682   2.259 -1.6237  0.7159 -0.6089
 3864SOL     OW17428   7.597   9.060  10.804  0.5724  0.1662 -0.3353
 3864SOL    HW117429   7.519   9.038  10.753  1.6118  1.9030 -2.8831
 3864SOL    HW217430   7.649   8.980  10.805 -0.0590 -0.2550 -0.9011
 3865SOL     OW17431   8.395  10.872   7.018  0.1933  0.4743 -0.5517
 3865SOL    HW117432   8.421  10.802   6.958  0.0026  0.6436 -0.8349
 3865SOL    HW217433   8.466  10.936   7.012 -0.5353  1.2306 -1.7951
 3866SOL     OW17434   3.403   0.963  10.916 -0.3211  0.0376  0.0520
 3866SOL    HW117435   3.399   1.011  10.999  0.9303 -0.1883  0.2581
 3866SOL    HW217436   3.397   1.031  10.849  1.0472  0.4760  0.3419
 3867SOL     OW17437   2.978   2.393   0.583 -0.4605 -0.2867 -0.5267
 3867SOL    HW117438   3.027   2.312   0.568  1.7209  0.8469  0.0262
 3867SOL    HW217439   3.041   2.463   0.566 -1.7990  1.2729  0.5762
 3868SOL     OW17440  10.103   9.322   3.045  0.3389 -0.4768 -0.0260
 3868SOL    HW117441  10.013   9.341   3.073  0.0711 -0.4422 -0.8648
 3868SOL    HW217442  10.153   9.400   3.070 -0.1412  0.0658 -0.7205
 3869SOL     OW17443   3.451   6.254   8.656 -0.1903 -0.0252  0.4173
 3869SOL    HW117444   3.444   6.336   8.704  0.6303  0.2289  0.1326
 3869SOL    HW217445   3.480   6.190   8.721 -2.6203 -0.5503  1.0661
 3870SOL     OW17446   2.896   0.470   2.053 -0.0133  0.1513  0.0877
 3870SOL    HW117447   2.875   0.563   2.050 -1.3616 -0.1392 -0.2496
 3870SOL    HW217448   2.963   0.458   1.985  2.1431  1.2920  1.9070
 3871SOL     OW17449   3.583   4.920   6.863 -0.2780  0.5448  0.4041
 3871SOL    HW117450   3.639   4.969   6.803 -0.5244 -0.1803 -0.4397
 3871SOL    HW217451   3.624   4.931   6.949  2.5228 -1.8358 -0.4625
 3872SOL     OW17452  10.650   1.397   1.440  0.2896 -0.5029  0.1417
 3872SOL    HW117453  10.569   1.402   1.390  0.8033 -2.3567 -1.0096
 3872SOL    HW217454  10.642   1.317   1.492  1.2721 -0.6028  0.1713
 3873SOL     OW17455  11.492   1.843   7.058 -0.3880 -0.4612  0.1315
 3873SOL    HW117456  11.436   1.867   7.131 -1.3759  1.4321 -1.1568
 3873SOL    HW217457  11.489   1.748   7.056 -0.4972 -0.5592  2.3864
 3874SOL     OW17458  10.500   5.603   1.799  0.1161  0.6939 -0.1371
 3874SOL    HW117459  10.501   5.665   1.873 -2.6221 -0.0404  0.6339
 3874SOL    HW217460  10.491   5.517   1.840  3.1750 -0.3105 -1.2271
 3875SOL     OW17461   5.366   6.150   2.850  0.6311  0.0127  0.3797
 3875SOL    HW117462   5.444   6.100   2.876  0.7590 -0.0057 -0.0300
 3875SOL    HW217463   5.307   6.142   2.925  0.6753 -0.7053  0.3498
 3876SOL     OW17464   3.432  10.274   8.281 -0.0454  1.0135  0.2382
 3876SOL    HW117465   3.447  10.285   8.187  0.5049  2.3232  0.4567
 3876SOL    HW217466   3.424  10.363   8.314 -0.5569  0.5562  1.3939
 3877SOL     OW17467   5.580   4.791   4.383 -0.7248  0.3857 -0.1975
 3877SOL    HW117468   5.537   4.767   4.301  0.2487  2.3922 -1.3425
 3877SOL    HW217469   5.641   4.719   4.399 -1.3417 -0.3167 -0.8883
 3878SOL     OW17470   4.266   9.191   1.883 -0.3643 -0.7242 -0.0690
 3878SOL    HW117471   4.299   9.107   1.850  0.0365 -0.1519 -1.1844
 3878SOL    HW217472   4.186   9.168   1.931  0.1523 -1.8241  0.2948
 3879SOL     OW17473   6.089   6.037   0.960  0.0196  0.0443 -0.1751
 3879SOL    HW117474   6.012   6.000   1.004 -1.3740  0.8969 -1.7822
 3879SOL    HW217475   6.107   5.976   0.889  1.0363 -0.2908  0.3509
 3880SOL     OW17476   0.012   6.912   8.628 -0.0637 -0.0282  0.9297
 3880SOL    HW117477   0.101   6.878   8.640 -0.1958  0.0620  2.3238
 3880SOL    HW217478   0.018   6.966   8.549  0.6592 -1.5199 -0.0912
 3881SOL     OW17479   8.116   7.782  11.348 -0.0166 -0.1731 -0.1703
 3881SOL    HW117480   8.194   7.733  11.322 -0.8733 -1.1600 -0.9390
 3881SOL    HW217481   8.148   7.844  11.414  1.4398 -0.4558 -0.5730
 3882SOL     OW17482   2.769   6.244   0.313 -0.5577  0.6383  0.4686
 3882SOL    HW117483   2.674   6.234   0.311 -0.5347  0.3389  0.8204
 3882SOL    HW217484   2.784   6.335   0.288 -0.8567  0.2984 -1.0733
 3883SOL     OW17485   5.810   3.921   6.796  0.8487 -0.6435 -0.1498
 3883SOL    HW117486   5.826   3.856   6.865  0.3901  1.9824  2.6564
 3883SOL    HW217487   5.896   3.961   6.781  0.5791  0.1756  0.4449
 3884SOL     OW17488  11.240   2.889   0.401 -0.0907 -0.0503 -0.4798
 3884SOL    HW117489  11.297   2.864   0.474  0.4895  1.6833 -0.2982
 3884SOL    HW217490  11.163   2.927   0.443  1.9247  4.8174 -0.5393
 3885SOL     OW17491   9.031   4.123   5.815 -0.4823  0.0493  0.3527
 3885SOL    HW117492   9.006   4.041   5.858  1.6771 -0.2841  1.0882
 3885SOL    HW217493   9.125   4.114   5.799 -0.9645  0.4224 -3.9078
 3886SOL     OW17494  10.557   9.996   3.181  0.0614 -0.3845 -0.1569
 3886SOL    HW117495  10.507  10.074   3.206  0.9185  0.2676 -0.4432
 3886SOL    HW217496  10.552   9.995   3.085  1.3944  0.2385 -0.2510
 3887SOL     OW17497  10.889   7.553   4.653 -0.5117 -0.2433 -0.3186
 3887SOL    HW117498  10.977   7.558   4.615 -0.8805  0.2303 -1.1214
 3887SOL    HW217499  10.843   7.630   4.620 -1.2827 -0.5644 -0.0280
 3888SOL     OW17500   2.860   8.288   8.519 -0.5751  0.1133  0.7631
 3888SOL    HW117501   2.805   8.220   8.558 -1.1063 -0.1651 -0.4179
 3888SOL    HW217502   2.945   8.278   8.562 -1.4910  0.7446  2.8411
 3889SOL     OW17503   2.592   4.953   1.718  0.2679  0.1777 -0.0799
 3889SOL    HW117504   2.569   4.944   1.625  1.5172 -0.0178 -0.3932
 3889SOL    HW217505   2.674   5.003   1.717 -0.0947  0.8030  0.9681
 3890SOL     OW17506   3.849   7.109   2.300 -0.0980  0.3617  0.2505
 3890SOL    HW117507   3.827   7.019   2.276  1.1756  0.6272 -2.2731
 3890SOL    HW217508   3.817   7.119   2.390 -2.6071 -1.7587 -0.2935
 3891SOL     OW17509   8.199  11.642   2.371 -0.8202  0.1381  0.4643
 3891SOL    HW117510   8.270  11.692   2.330 -0.2171  0.5289  1.9132
 3891SOL    HW217511   8.222  11.641   2.464 -0.6688 -3.0949  0.4856
 3892SOL     OW17512   7.757   1.649  12.235 -0.1918  0.3112 -0.1164
 3892SOL    HW117513   7.724   1.561  12.217 -0.6985  0.7714 -1.5979
 3892SOL    HW217514   7.693   1.708  12.193 -0.7330  1.4869  2.1440
 3893SOL     OW17515   1.041   7.267   1.645 -0.0502 -0.1463  0.2127
 3893SOL    HW117516   1.105   7.337   1.659 -0.6013  0.2744  0.6948
 3893SOL    HW217517   1.078   7.214   1.575  0.0373  1.0364 -0.6665
 3894SOL     OW17518   5.793   1.387   1.056  0.9395  0.2099  0.1780
 3894SOL    HW117519   5.774   1.407   0.965  0.9237  0.4982  0.2422
 3894SOL    HW217520   5.714   1.344   1.089  1.6331 -1.6082 -0.4483
 3895SOL     OW17521   8.800   1.295   9.531 -0.1125  0.0223 -0.5155
 3895SOL    HW117522   8.786   1.291   9.626 -1.0731 -1.6327 -0.6929
 3895SOL    HW217523   8.870   1.233   9.514 -0.9205 -0.7877 -1.0215
 3896SOL     OW17524   3.345   2.809   8.334 -0.5626  0.0440  0.1640
 3896SOL    HW117525   3.267   2.798   8.280 -2.3620  0.0155  2.6000
 3896SOL    HW217526   3.391   2.884   8.295 -2.0135  0.3413 -1.0714
 3897SOL     OW17527   2.297  11.918   1.696  0.1538 -0.4061  0.1079
 3897SOL    HW117528   2.333  11.958   1.775  0.1182  0.8338 -0.4779
 3897SOL    HW217529   2.228  11.861   1.727  0.5074 -0.3598  1.0150
 3898SOL     OW17530   6.951   7.277  10.493  0.1367  0.3446 -0.2913
 3898SOL    HW117531   6.874   7.260  10.546  1.4088 -1.2917  1.1739
 3898SOL    HW217532   7.022   7.290  10.556  1.2328  0.9597 -1.5849
 3899SOL     OW17533   7.049   6.568   0.107 -0.3061  0.2686  0.5596
 3899SOL    HW117534   7.054   6.625   0.030 -2.0864  1.4053  1.2159
 3899SOL    HW217535   7.075   6.624   0.180 -0.4804 -0.2492  1.0257
 3900SOL     OW17536   2.641   5.080   8.870 -0.2000 -0.4331 -0.1491
 3900SOL    HW117537   2.601   5.131   8.800 -1.4068  0.5917  1.2173
 3900SOL    HW217538   2.702   5.140   8.912 -0.0279 -0.7941  0.1301
 3901SOL     OW17539   6.556  10.671   0.931 -0.2103 -0.3574 -0.1920
 3901SOL    HW117540   6.589  10.657   1.020  3.3225 -1.1520 -1.4502
 3901SOL    HW217541   6.533  10.764   0.928  2.9503  0.5825  0.7028
 3902SOL     OW17542   4.189   4.014  10.410  0.4131 -0.1175  0.5305
 3902SOL    HW117543   4.185   3.919  10.395 -0.2086 -0.0661  0.3502
 3902SOL    HW217544   4.104   4.047  10.380  1.7887  0.9371 -2.6181
 3903SOL     OW17545   1.377   0.958   0.718  0.3558  0.0758  0.5122
 3903SOL    HW117546   1.352   0.866   0.713 -0.2107  0.2408  0.1255
 3903SOL    HW217547   1.470   0.957   0.743  0.0388 -0.5589  1.7241
 3904SOL     OW17548   6.334   9.308  10.016 -0.2111 -0.4687 -0.4276
 3904SOL    HW117549   6.336   9.386   9.960  1.9728  0.1618  0.4301
 3904SOL    HW217550   6.330   9.234   9.955 -1.0450  0.2593 -1.2847
 3905SOL     OW17551   0.110  10.378   1.123 -0.3297  0.0302 -0.8304
 3905SOL    HW117552   0.179  10.346   1.065  0.7839  0.7065  0.0795
 3905SOL    HW217553   0.108  10.472   1.108 -0.7142  0.0828 -0.4778
 3906SOL     OW17554   2.690  10.625   7.559 -0.4373  0.2827 -0.0784
 3906SOL    HW117555   2.626  10.594   7.494  0.2340  0.2096 -0.7235
 3906SOL    HW217556   2.738  10.693   7.513  0.1311  0.1446  0.3104
 3907SOL     OW17557   6.180  10.016   6.450 -0.4200  0.7893  0.1879
 3907SOL    HW117558   6.195  10.110   6.445  1.1025  0.5606 -0.1335
 3907SOL    HW217559   6.243   9.985   6.516 -0.6313 -0.0404  0.0103
 3908SOL     OW17560   9.329   7.756   3.710  0.0260 -0.0027  0.1621
 3908SOL    HW117561   9.422   7.736   3.703 -0.3670 -2.0882  0.3138
 3908SOL    HW217562   9.321   7.844   3.675  1.9007 -0.1843 -0.8388
 3909SOL     OW17563   6.007  10.085   5.999  0.7805 -0.2585  0.0655
 3909SOL    HW117564   6.019  10.026   6.073 -0.3495 -1.4625 -0.6746
 3909SOL    HW217565   6.068  10.054   5.932  0.8890  0.0271  0.0297
 3910SOL     OW17566   2.516   6.586  11.649  0.1900 -0.0936 -0.3690
 3910SOL    HW117567   2.451   6.631  11.596 -0.4170 -0.8393 -0.2746
 3910SOL    HW217568   2.550   6.517  11.592  0.4542 -0.0935 -0.2134
 3911SOL     OW17569   3.962   1.615   0.591 -0.2864 -0.3044 -0.0278
 3911SOL    HW117570   3.955   1.706   0.563 -0.8817 -0.3924 -0.1683
 3911SOL    HW217571   4.006   1.571   0.518 -3.1632 -0.8410 -1.5863
 3912SOL     OW17572  10.290   0.474  12.137  0.1438 -0.2965  0.5071
 3912SOL    HW117573  10.346   0.430  12.073  0.1844  0.8992 -0.3026
 3912SOL    HW217574  10.214   0.503  12.087  0.4386  1.1648  0.8518
 3913SOL     OW17575   5.298   5.821   6.780 -0.1165  0.2888 -0.0171
 3913SOL    HW117576   5.245   5.834   6.858  0.4834  0.7779  0.3220
 3913SOL    HW217577   5.384   5.857   6.803  0.0506  0.5103 -0.9245
 3914SOL     OW17578   6.841   0.556   1.264 -0.2951 -0.4506  0.1967
 3914SOL    HW117579   6.866   0.498   1.336 -1.2254 -0.6050  0.4154
 3914SOL    HW217580   6.873   0.513   1.185  3.4314  1.1556  0.6390
 3915SOL     OW17581   3.118   8.949   7.918  0.0635 -0.2273 -0.0769
 3915SOL    HW117582   3.093   8.992   7.837  0.5933 -0.4744 -0.3768
 3915SOL    HW217583   3.193   8.894   7.895  1.5469  1.2371  0.9424
 3916SOL     OW17584  11.621  11.428   2.951 -0.0691  0.5793 -0.1791
 3916SOL    HW117585  11.567  11.453   3.026  0.4523  0.3743  0.2684
 3916SOL    HW217586  11.558  11.400   2.884 -0.5087 -0.1276  0.5132
 3917SOL     OW17587  10.676  10.925   3.246 -0.0889  0.1571  0.0954
 3917SOL    HW117588  10.657  10.855   3.183  1.6191  0.1942 -0.5408
 3917SOL    HW217589  10.736  10.983   3.198  0.6131  0.6257  1.4957
 3918SOL     OW17590  10.350  10.960  10.550  0.1837 -0.0539  0.0234
 3918SOL    HW117591  10.355  10.960  10.646  0.5448 -0.5803  0.0109
 3918SOL    HW217592  10.381  10.873  10.525  2.5618  0.9133 -0.6819
 3919SOL     OW17593   1.946   8.870   5.820 -0.1993  0.8636  0.6927
 3919SOL    HW117594   2.014   8.855   5.754  0.0318  0.4805  1.0128
 3919SOL    HW217595   1.974   8.819   5.896 -0.0363  1.9282  1.3785
 3920SOL     OW17596   7.117   7.831   8.342 -0.2638 -0.4609 -0.0132
 3920SOL    HW117597   7.180   7.759   8.350 -0.2165 -0.3672  0.4615
 3920SOL    HW217598   7.140   7.891   8.413  1.0740  1.0977 -1.6464
 3921SOL     OW17599   4.270   0.115   6.133 -0.3874 -0.1194  0.3827
 3921SOL    HW117600   4.349   0.169   6.126  0.2774 -1.0160  0.7409
 3921SOL    HW217601   4.198   0.177   6.138  0.4041  0.7481  1.3423
 3922SOL     OW17602   3.240   5.634   2.261 -0.4031  0.8196  0.5702
 3922SOL    HW117603   3.219   5.577   2.188 -1.8159  2.3407 -0.2809
 3922SOL    HW217604   3.237   5.577   2.338  0.8331 -0.7490 -0.4685
 3923SOL     OW17605   3.602   4.276   2.036  0.1933  0.1086  0.0661
 3923SOL    HW117606   3.585   4.218   1.962 -0.8320  0.0820  0.3156
 3923SOL    HW217607   3.587   4.223   2.113  3.2791 -0.4960  0.3996
 3924SOL     OW17608   5.538   8.775   2.061 -0.1245  0.1204 -0.2032
 3924SOL    HW117609   5.496   8.824   1.991 -0.8869 -1.3631 -0.8282
 3924SOL    HW217610   5.632   8.786   2.045 -0.2869  1.1177 -0.4924
 3925SOL     OW17611  10.369   4.458   2.813  0.1971  0.5377  0.6379
 3925SOL    HW117612  10.397   4.537   2.860  1.6590  0.2422  0.3160
 3925SOL    HW217613  10.298   4.487   2.756  0.5671  1.5726  0.6872
 3926SOL     OW17614   3.590   7.688   2.266 -0.1192 -0.3914 -0.3181
 3926SOL    HW117615   3.542   7.763   2.302 -1.7139 -0.8794 -1.3395
 3926SOL    HW217616   3.639   7.724   2.192  1.0900  0.0932  0.6799
 3927SOL     OW17617   5.386   3.267  12.006 -0.1404  0.3774  0.4087
 3927SOL    HW117618   5.358   3.193  12.061  1.1120  0.4244  1.1425
 3927SOL    HW217619   5.388   3.231  11.917 -0.6602 -0.1353  0.5929
 3928SOL     OW17620   7.435   6.629   1.170 -0.0846 -0.2028  0.1159
 3928SOL    HW117621   7.416   6.693   1.103  0.5742  0.8277  0.8815
 3928SOL    HW217622   7.393   6.663   1.249  0.0405 -0.8558  0.4751
 3929SOL     OW17623  11.891   1.818  12.172  0.5887  0.1843  0.3879
 3929SOL    HW117624  11.901   1.860  12.086  0.8386  1.0232  0.8166
 3929SOL    HW217625  11.918   1.885  12.235  0.2480 -0.3659  1.1361
 3930SOL     OW17626  10.109   5.738   0.908 -0.9982  0.0327  0.5350
 3930SOL    HW117627  10.124   5.805   0.976 -2.2321  1.6310 -0.6837
 3930SOL    HW217628  10.014   5.723   0.910 -1.0923  0.3364 -1.0218
 3931SOL     OW17629  10.759   0.330   4.790  0.1605  0.3299  0.1362
 3931SOL    HW117630  10.679   0.369   4.823 -0.1037  0.8892 -1.0938
 3931SOL    HW217631  10.730   0.260   4.731  0.4515  1.8128 -1.9003
 3932SOL     OW17632  11.222  10.996   6.847 -0.0472 -0.4985 -0.2814
 3932SOL    HW117633  11.213  11.058   6.774  0.1889 -0.4018 -0.2277
 3932SOL    HW217634  11.139  11.004   6.895  1.0701  2.0071  1.4811
 3933SOL     OW17635   0.294  11.560   2.930 -0.1072  0.2019  0.3292
 3933SOL    HW117636   0.379  11.575   2.888 -0.6157 -0.3772 -0.9411
 3933SOL    HW217637   0.271  11.645   2.967 -0.2801  1.1520 -1.8016
 3934SOL     OW17638   4.659  11.808  10.413  0.1843 -0.2494 -0.3869
 3934SOL    HW117639   4.629  11.838  10.327  1.0129  0.6443 -0.3784
 3934SOL    HW217640   4.728  11.745  10.394  0.7080  0.3138 -0.3857
 3935SOL     OW17641   2.268   7.858   4.818 -0.5119  0.2624  0.0432
 3935SOL    HW117642   2.318   7.940   4.819 -1.5065  0.9164  1.6937
 3935SOL    HW217643   2.329   7.792   4.787  1.0125  1.2375  0.8469
 3936SOL     OW17644  12.029  10.926   4.344  0.0309  0.2267 -0.0183
 3936SOL    HW117645  12.027  10.846   4.395 -0.1737 -0.2770 -0.8037
 3936SOL    HW217646  11.982  10.906   4.263 -2.2848  1.8940  0.8135
 3937SOL     OW17647   5.548   4.518  11.502 -0.5908 -0.5683  0.2109
 3937SOL    HW117648   5.576   4.460  11.431  0.3547 -0.2244  0.2952
 3937SOL    HW217649   5.612   4.588  11.503 -1.3608  0.1531  0.5383
 3938SOL     OW17650   7.504  11.503   3.294  0.2204  0.1680  0.1068
 3938SOL    HW117651   7.558  11.495   3.373  1.1281 -1.5224 -0.6416
 3938SOL    HW217652   7.423  11.456   3.316  0.4938 -0.3457  0.0091
 3939SOL     OW17653   5.337  10.755   5.957 -0.0858  0.4173  0.0242
 3939SOL    HW117654   5.296  10.806   6.028  0.1295 -0.1848  0.5920
 3939SOL    HW217655   5.410  10.810   5.928 -0.2624  0.7348  0.1708
 3940SOL     OW17656   1.623   6.455   8.832 -0.3874 -0.2385 -0.1266
 3940SOL    HW117657   1.624   6.495   8.745  0.0926 -1.0359 -0.4943
 3940SOL    HW217658   1.655   6.523   8.890  0.1275  0.0177 -0.7005
 3941SOL     OW17659   7.230   8.619  11.187  0.5786  0.3165 -0.4209
 3941SOL    HW117660   7.146   8.602  11.144  0.6161  1.4145 -0.9464
 3941SOL    HW217661   7.294   8.570  11.135  0.2356 -0.7970  0.1782
 3942SOL     OW17662   5.184   0.859  11.380 -0.0524 -1.0316 -0.7185
 3942SOL    HW117663   5.249   0.929  11.377 -1.0874  0.0020 -0.0588
 3942SOL    HW217664   5.209   0.805  11.455 -0.0961 -0.4773 -0.2981
 3943SOL     OW17665  10.697   1.124   0.646  0.1123  0.3220  0.0204
 3943SOL    HW117666  10.724   1.034   0.664 -0.3439  0.0658 -0.5476
 3943SOL    HW217667  10.756   1.154   0.577 -0.0063  0.3100 -0.0875
 3944SOL     OW17668   3.078  10.028   2.328  0.0345 -0.1727  0.4479
 3944SOL    HW117669   3.054  10.117   2.303  2.0986  0.2965 -0.1041
 3944SOL    HW217670   3.082  10.031   2.424 -0.3932  0.1782  0.4614
 3945SOL     OW17671   0.728  11.925   1.908 -0.0153 -0.2507 -0.1850
 3945SOL    HW117672   0.732  11.892   1.819 -4.0731 -0.0345 -0.6399
 3945SOL    HW217673   0.759  12.015   1.902  2.5939 -1.1120 -0.6913
 3946SOL     OW17674   8.933   3.164  10.081 -0.4164  0.7754  0.3959
 3946SOL    HW117675   8.967   3.086  10.125 -0.2615  1.0165  0.7032
 3946SOL    HW217676   8.862   3.131  10.025 -2.0242  0.7101  2.3631
 3947SOL     OW17677   9.425  11.619   2.462  0.5866  0.1505  0.5832
 3947SOL    HW117678   9.485  11.583   2.527  0.2781  0.2645  0.9342
 3947SOL    HW217679   9.356  11.661   2.513 -1.2924 -2.3377  0.2882
 3948SOL     OW17680   8.174   5.384   5.197 -0.2015  0.5708  0.2956
 3948SOL    HW117681   8.170   5.451   5.265 -0.6826  0.8358  0.0110
 3948SOL    HW217682   8.116   5.314   5.228  2.7937 -1.3049  2.2403
 3949SOL     OW17683   5.093   9.133  11.232  0.3464 -0.1105  0.1156
 3949SOL    HW117684   5.103   9.037  11.227  1.3199 -0.1202  1.5139
 3949SOL    HW217685   5.003   9.149  11.205  0.1142 -1.4406  0.0032
 3950SOL     OW17686   9.294   2.625   1.535  0.1976  0.1016 -0.1054
 3950SOL    HW117687   9.366   2.682   1.510 -0.7174  0.9814 -0.8184
 3950SOL    HW217688   9.265   2.658   1.620  1.6096 -1.2433  0.9616
 3951SOL     OW17689   6.992  10.898   1.018 -0.6870 -0.1798  0.5305
 3951SOL    HW117690   7.085  10.919   1.021 -0.6032 -0.4281 -0.2309
 3951SOL    HW217691   6.965  10.896   1.110 -0.2293  1.1591  0.7249
 3952SOL     OW17692   8.054  10.387   1.251  0.6303  0.3184 -0.8090
 3952SOL    HW117693   7.964  10.364   1.275 -0.1565  1.7351 -2.2335
 3952SOL    HW217694   8.102  10.390   1.334  0.3450 -4.1038 -0.2304
 3953SOL     OW17695   6.748   6.940   7.368  0.3627 -0.0352 -0.0379
 3953SOL    HW117696   6.696   6.930   7.448 -0.2509 -2.6360 -0.6588
 3953SOL    HW217697   6.709   7.015   7.323 -0.4528  0.3366  1.2303
 3954SOL     OW17698   9.882   8.535   3.278  0.2294  0.7756 -0.3258
 3954SOL    HW117699   9.911   8.520   3.188 -0.0929 -2.2379 -0.0290
 3954SOL    HW217700   9.806   8.593   3.269 -0.8425 -0.8053 -2.2161
 3955SOL     OW17701   6.880   5.375   7.551 -0.9663 -0.8513  0.2685
 3955SOL    HW117702   6.900   5.432   7.625  0.6994 -2.1092  0.8428
 3955SOL    HW217703   6.851   5.435   7.482  0.4200  0.6749  0.9378
 3956SOL     OW17704  12.111   4.290   8.651 -0.2130  1.0015 -0.2203
 3956SOL    HW117705  12.177   4.339   8.601 -0.4579  1.0899 -0.4591
 3956SOL    HW217706  12.036   4.349   8.655 -0.0427  1.1774  0.6446
 3957SOL     OW17707  11.819  10.491   9.208 -0.0366 -0.1270  0.0309
 3957SOL    HW117708  11.789  10.417   9.261 -0.7936  0.2966  0.2146
 3957SOL    HW217709  11.740  10.543   9.192  0.4148  0.4434 -0.4097
 3958SOL     OW17710   7.147   3.228  10.804  0.2898 -0.1231 -0.4392
 3958SOL    HW117711   7.070   3.189  10.845  0.1923 -0.0570 -0.5602
 3958SOL    HW217712   7.221   3.179  10.840  0.1338 -0.8784 -1.1126
 3959SOL     OW17713  11.050   5.196   2.534  0.5190 -0.1445 -0.6003
 3959SOL    HW117714  11.100   5.151   2.465 -0.1676 -1.5685 -0.2156
 3959SOL    HW217715  10.992   5.256   2.488  2.4077  1.4344 -1.0729
 3960SOL     OW17716  10.973  10.964  10.163  0.1137 -0.2857  0.1548
 3960SOL    HW117717  10.991  10.924  10.248 -1.2780 -0.8109  0.2234
 3960SOL    HW217718  10.893  11.015  10.178 -1.0675 -1.6498 -1.2069
 3961SOL     OW17719  10.489  10.339  10.918  0.3862  0.3595 -0.4217
 3961SOL    HW117720  10.406  10.305  10.950  0.2409 -0.2857 -1.4261
 3961SOL    HW217721  10.551  10.324  10.989 -0.2965  0.6188  0.2367
 3962SOL     OW17722   4.418   0.758   1.718 -0.3433  0.0356  0.3049
 3962SOL    HW117723   4.367   0.678   1.705  1.2876 -0.8081 -1.4408
 3962SOL    HW217724   4.510   0.729   1.718  0.2783  1.8255  0.2356
 3963SOL     OW17725   8.886  11.200   8.767 -0.2781  0.1618 -0.8837
 3963SOL    HW117726   8.965  11.149   8.749 -0.0754 -0.1148  0.6512
 3963SOL    HW217727   8.832  11.142   8.820 -0.6974  1.0229 -0.3551
 3964SOL     OW17728   4.308   0.442   9.994  0.4837  0.1009 -0.6045
 3964SOL    HW117729   4.380   0.484   9.945 -0.0398  0.5732 -0.9838
 3964SOL    HW217730   4.279   0.510  10.055 -0.5923  0.4406 -1.4485
 3965SOL     OW17731   0.618   3.834   2.640 -0.9599 -0.1347  0.1875
 3965SOL    HW117732   0.679   3.907   2.651 -2.0792  1.1578 -1.7847
 3965SOL    HW217733   0.668   3.757   2.668  0.8975  1.1181  0.4820
 3966SOL     OW17734   1.282   3.669   2.190 -0.1978 -0.0181 -0.2858
 3966SOL    HW117735   1.250   3.643   2.276 -0.6270  0.6082 -0.2489
 3966SOL    HW217736   1.219   3.632   2.128 -1.1545  1.3951 -0.2021
 3967SOL     OW17737   0.073   5.741   5.562  0.2884  0.2655 -0.0345
 3967SOL    HW117738   0.125   5.764   5.639  0.8662  1.0495 -0.6395
 3967SOL    HW217739   0.136   5.705   5.500 -0.0820  0.1467 -0.3460
 3968SOL     OW17740  11.716   4.331   6.776  0.0745  0.1639  0.4624
 3968SOL    HW117741  11.730   4.337   6.870 -1.9327 -0.3336  0.8476
 3968SOL    HW217742  11.655   4.257   6.765  0.6805 -0.1310 -1.2751
 3969SOL     OW17743  11.160  11.588   1.199 -0.3427  0.2531  0.3740
 3969SOL    HW117744  11.077  11.609   1.241 -0.8062 -1.2817  0.2746
 3969SOL    HW217745  11.226  11.624   1.258 -1.0510  1.9299  0.2079
 3970SOL     OW17746  10.602   6.849   6.076 -0.2560 -1.0550 -0.2760
 3970SOL    HW117747  10.693   6.874   6.088 -0.9443  0.9887  1.3953
 3970SOL    HW217748  10.605   6.765   6.030  2.3967 -0.3190 -1.5991
 3971SOL     OW17749   5.132   5.629   8.861 -0.1140  0.2048 -0.9140
 3971SOL    HW117750   5.180   5.612   8.780  0.5926 -0.5964 -0.3490
 3971SOL    HW217751   5.173   5.571   8.925 -1.2246  0.1962 -0.1872
 3972SOL     OW17752   3.842   8.866   1.816 -0.1233 -0.2176  0.3964
 3972SOL    HW117753   3.815   8.845   1.727  1.2775 -1.8143  0.3122
 3972SOL    HW217754   3.771   8.832   1.871  0.5023 -2.2483  0.0392
 3973SOL     OW17755  11.432   5.142   5.876  0.3062 -0.4429 -0.7378
 3973SOL    HW117756  11.446   5.063   5.928 -0.9365 -1.4236 -1.8175
 3973SOL    HW217757  11.512   5.150   5.824  0.5612 -0.8411 -0.4157
 3974SOL     OW17758   9.010   7.799   7.298 -0.0010 -0.1638 -0.3035
 3974SOL    HW117759   8.957   7.719   7.305  0.4535 -0.4173  0.3669
 3974SOL    HW217760   8.947   7.871   7.308 -0.2356 -0.4602  0.4021
 3975SOL     OW17761   7.297   7.472   4.173  0.6580  0.5702  0.5463
 3975SOL    HW117762   7.257   7.523   4.103  0.1713 -0.3507  0.1270
 3975SOL    HW217763   7.367   7.527   4.208 -1.0223  2.2955  1.3580
 3976SOL     OW17764   5.697   2.944   6.590 -0.4062 -0.3021  0.3555
 3976SOL    HW117765   5.707   2.859   6.633  0.8606  0.8165  2.3927
 3976SOL    HW217766   5.645   2.925   6.512 -1.9943 -2.5876  1.8551
 3977SOL     OW17767   9.383   6.549   2.369 -0.3639 -0.3184  0.0127
 3977SOL    HW117768   9.414   6.527   2.457 -0.7821 -0.1996  0.1948
 3977SOL    HW217769   9.455   6.597   2.329 -0.7184  0.9488  0.8224
 3978SOL     OW17770   5.626   7.394   2.035  0.8869 -1.0468  0.2118
 3978SOL    HW117771   5.581   7.478   2.027  0.9581 -0.9267  0.9520
 3978SOL    HW217772   5.620   7.354   1.948 -3.9045 -2.6712  0.9580
 3979SOL     OW17773   6.268  10.374  11.693 -0.0241 -0.2143  0.4159
 3979SOL    HW117774   6.239  10.311  11.627  1.7435 -0.0732 -0.5606
 3979SOL    HW217775   6.328  10.325  11.749  1.5449  0.5792 -0.4860
 3980SOL     OW17776  10.979  11.083   6.978  0.4463  0.4447  0.0188
 3980SOL    HW117777  10.889  11.112   6.964 -0.2365 -0.7335  1.6687
 3980SOL    HW217778  10.993  11.091   7.072  1.8227 -0.0602 -0.1219
 3981SOL     OW17779   0.970  11.594   1.427  0.0252  0.1151  0.3215
 3981SOL    HW117780   0.933  11.608   1.340  1.0961  1.9805  0.1256
 3981SOL    HW217781   1.065  11.601   1.415  0.3074 -1.2969  1.3752
 3982SOL     OW17782  10.730   3.083  11.703  1.0862 -0.3793  0.3178
 3982SOL    HW117783  10.676   3.084  11.782 -0.2459  0.6777 -0.5569
 3982SOL    HW217784  10.715   2.996  11.665 -0.7266  0.1590 -0.3341
 3983SOL     OW17785   7.361  10.279   0.601 -0.0372 -0.2414  0.3517
 3983SOL    HW117786   7.273  10.243   0.590  0.7017 -2.0441  0.0697
 3983SOL    HW217787   7.381  10.266   0.694 -0.0054  0.0525  0.3888
 3984SOL     OW17788   6.745   6.774   2.643  0.4229 -0.7466  0.0404
 3984SOL    HW117789   6.835   6.792   2.618  0.2783 -1.1731 -0.8086
 3984SOL    HW217790   6.701   6.859   2.635  0.4799 -0.7841 -0.7379
 3985SOL     OW17791   9.538   8.781   0.740  0.5866 -0.4471  0.0923
 3985SOL    HW117792   9.510   8.867   0.707  0.0652 -0.6973 -0.1374
 3985SOL    HW217793   9.459   8.745   0.780 -0.0735 -2.0540 -2.4033
 3986SOL     OW17794   8.083  11.236   7.064 -0.0310 -0.7240  0.2575
 3986SOL    HW117795   8.021  11.216   7.134 -1.1482  1.5868  0.0147
 3986SOL    HW217796   8.030  11.273   6.994  1.3000 -1.3756 -1.1543
 3987SOL     OW17797   4.120   5.351   7.880 -0.0770  0.4430  0.3825
 3987SOL    HW117798   4.051   5.389   7.826 -0.8113 -1.1340  0.1397
 3987SOL    HW217799   4.136   5.416   7.948  0.6518  2.3616 -1.4992
 3988SOL     OW17800  11.743   7.551   8.094 -0.2212 -0.1685 -0.1004
 3988SOL    HW117801  11.735   7.622   8.031 -0.2621  0.1000  0.2066
 3988SOL    HW217802  11.732   7.593   8.179 -0.2867 -0.5483  0.0800
 3989SOL     OW17803   9.238   1.435   7.087  0.3142  0.2544 -0.2675
 3989SOL    HW117804   9.292   1.396   7.018 -2.4354 -3.2397 -0.7583
 3989SOL    HW217805   9.180   1.495   7.041 -0.5598 -0.9937 -0.8435
 3990SOL     OW17806   7.981   7.045   0.530 -0.7007 -0.6006  0.5131
 3990SOL    HW117807   8.018   6.966   0.492 -0.9022 -0.3339 -0.2633
 3990SOL    HW217808   8.034   7.116   0.495  0.4545 -0.4665  2.3916
 3991SOL     OW17809   5.220   8.196   2.262  0.1132 -0.4326  0.3245
 3991SOL    HW117810   5.197   8.141   2.337  0.3946 -1.7926 -0.5299
 3991SOL    HW217811   5.157   8.171   2.195  0.4851  0.0185 -0.2014
 3992SOL     OW17812  12.199   5.211  11.230 -0.0310  0.3345 -0.2412
 3992SOL    HW117813  12.203   5.306  11.222 -0.5821  0.5168  1.3702
 3992SOL    HW217814  12.132   5.184  11.167 -1.5078  1.2605  0.8915
 3993SOL     OW17815  12.019   8.952   9.145 -0.2310  0.0600  0.0853
 3993SOL    HW117816  12.020   9.043   9.116 -0.2079 -0.4034 -1.5142
 3993SOL    HW217817  12.091   8.945   9.207  0.6096  0.8557 -0.7713
 3994SOL     OW17818   5.742   7.799   7.738 -0.1056  0.0716  0.0991
 3994SOL    HW117819   5.835   7.784   7.756  0.1547 -1.6889 -2.2295
 3994SOL    HW217820   5.704   7.711   7.736 -2.1182  0.7999  2.0278
 3995SOL     OW17821   0.991   1.103  10.066  0.4433  0.0621 -0.5510
 3995SOL    HW117822   1.056   1.173  10.067  0.5767 -0.0604 -0.2841
 3995SOL    HW217823   0.909   1.145  10.041  0.9196 -0.0520 -2.4543
 3996SOL     OW17824   4.814   6.219  11.959 -0.2975 -0.1295 -0.6107
 3996SOL    HW117825   4.748   6.173  12.011  0.9717  0.7936  2.0085
 3996SOL    HW217826   4.833   6.298  12.010  0.9080  0.9618 -2.6439
 3997SOL     OW17827   6.377   2.873  10.332  0.1760 -0.2393 -0.2179
 3997SOL    HW117828   6.404   2.791  10.373  3.0418  0.6351 -0.1054
 3997SOL    HW217829   6.387   2.857  10.238  1.0646  0.0555 -0.1808
 3998SOL     OW17830   4.176   7.385   3.126  0.4527 -0.5573 -0.6350
 3998SOL    HW117831   4.087   7.411   3.104  0.6306  0.1112 -0.5749
 3998SOL    HW217832   4.226   7.466   3.126  0.9487 -0.8516 -0.1170
 3999SOL     OW17833   2.769  11.374   7.011 -0.2992  0.3672 -0.4620
 3999SOL    HW117834   2.864  11.361   7.016 -0.2970  0.4018 -0.4128
 3999SOL    HW217835   2.733  11.289   7.038 -0.2803  0.0372 -1.4359
 4000SOL     OW17836  10.092   0.806   1.848  0.2085 -0.8457 -0.0848
 4000SOL    HW117837  10.126   0.865   1.781 -0.4383 -1.1523 -0.6890
 4000SOL    HW217838  10.021   0.758   1.805 -1.4096  0.1866  1.2950
 4001SOL     OW17839   2.857   6.432   7.276 -0.6254  0.4647 -0.0850
 4001SOL    HW117840   2.892   6.517   7.249  1.2589 -0.3836 -0.4616
 4001SOL    HW217841   2.899   6.369   7.218 -0.6775 -0.8811  1.2760
 4002SOL     OW17842   2.218  10.912   5.635  0.3404  0.3381 -0.0417
 4002SOL    HW117843   2.212  11.007   5.643 -1.6492  0.3523 -1.0879
 4002SOL    HW217844   2.273  10.898   5.558  1.1892  0.6110  0.5048
 4003SOL     OW17845   2.846   5.708   1.840  0.5842 -0.4810  0.0568
 4003SOL    HW117846   2.853   5.740   1.930 -0.6483 -2.0244  0.7407
 4003SOL    HW217847   2.930   5.731   1.800  0.9740  0.6355  1.4489
 4004SOL     OW17848   0.538   3.815   1.241  0.2697  0.1215 -0.3497
 4004SOL    HW117849   0.451   3.850   1.258  0.8199  1.3393  0.0716
 4004SOL    HW217850   0.569   3.784   1.326  0.6741  0.7334 -0.2609
 4005SOL     OW17851  10.184  10.961   2.028 -0.3283 -0.3638  0.8692
 4005SOL    HW117852  10.164  11.005   1.945 -3.8336 -0.9946  1.2187
 4005SOL    HW217853  10.240  11.023   2.075 -0.2134  1.0510 -0.9753
 4006SOL     OW17854   5.211   1.261  11.422  0.2933  0.4899 -0.3133
 4006SOL    HW117855   5.182   1.336  11.474 -0.6180  0.1934 -0.3771
 4006SOL    HW217856   5.131   1.226  11.383  0.7271 -0.4220 -0.4193
 4007SOL     OW17857   5.299   3.548  11.926  0.4216 -0.3019  0.5920
 4007SOL    HW117858   5.324   3.458  11.946 -1.6025 -0.7854  1.1249
 4007SOL    HW217859   5.204   3.549  11.932  0.1949  1.3353 -1.6529
 4008SOL     OW17860   3.443  11.378   6.306  0.3220 -0.3409 -0.2904
 4008SOL    HW117861   3.494  11.307   6.268 -0.3478 -0.5187 -0.8838
 4008SOL    HW217862   3.359  11.337   6.329 -1.1441  0.7402 -3.1316
 4009SOL     OW17863   8.512  11.326  11.922  0.3195  0.2219 -0.1336
 4009SOL    HW117864   8.422  11.295  11.913 -0.7488  2.9698  0.0181
 4009SOL    HW217865   8.538  11.299  12.010 -0.5273 -0.1492  0.0109
 4010SOL     OW17866   2.111   7.933   6.877  0.0458  0.2544 -0.0691
 4010SOL    HW117867   2.162   7.917   6.956  0.6838  1.9593 -0.0958
 4010SOL    HW217868   2.020   7.932   6.906  0.2808  1.1173  0.7654
 4011SOL     OW17869   5.474   4.985   0.599  0.3842  0.6020  0.0373
 4011SOL    HW117870   5.478   4.897   0.635 -0.0726  0.9826  1.0408
 4011SOL    HW217871   5.395   4.985   0.545  1.5394 -0.2368 -1.7817
 4012SOL     OW17872   7.236   5.315   0.330  0.4334 -0.2718  0.4850
 4012SOL    HW117873   7.250   5.332   0.424 -0.7082 -0.6832  0.7467
 4012SOL    HW217874   7.180   5.387   0.301  0.2836 -0.4799  0.2598
 4013SOL     OW17875   9.338   0.513   2.406  0.2597 -0.3511  0.0567
 4013SOL    HW117876   9.429   0.493   2.430 -0.1513  0.1845  2.2476
 4013SOL    HW217877   9.295   0.530   2.489 -1.5720  0.6613 -1.0518
 4014SOL     OW17878   0.765   6.036   4.166 -0.0923 -0.5572 -0.0222
 4014SOL    HW117879   0.813   6.096   4.223 -0.1262 -0.7312  0.1957
 4014SOL    HW217880   0.723   5.975   4.227  0.0746 -0.8991 -0.2466
 4015SOL     OW17881   8.147   1.744  10.859  0.2864 -0.1357  0.0906
 4015SOL    HW117882   8.056   1.769  10.874  0.8186  1.7272  0.5404
 4015SOL    HW217883   8.167   1.682  10.929 -0.8348 -1.1726 -0.4758
 4016SOL     OW17884   1.881   1.492   6.602  0.0673 -0.0968 -0.2530
 4016SOL    HW117885   1.948   1.500   6.534  1.5247 -0.4794  1.0601
 4016SOL    HW217886   1.806   1.540   6.567  1.0715  0.5088 -1.7289
 4017SOL     OW17887  10.194   2.629   4.378 -0.0651 -0.0711 -0.1943
 4017SOL    HW117888  10.234   2.697   4.324  0.3950 -2.2011 -2.7443
 4017SOL    HW217889  10.100   2.645   4.369  0.0281  1.5742  1.2084
 4018SOL     OW17890   5.136   6.076   0.892  0.0078  0.4451 -0.1357
 4018SOL    HW117891   5.180   6.133   0.828 -0.2981  0.4049 -0.3832
 4018SOL    HW217892   5.207   6.025   0.931  0.4151  1.6417  0.7525
 4019SOL     OW17893   6.627   8.212   6.757 -0.0174 -0.4229  0.3501
 4019SOL    HW117894   6.588   8.300   6.761 -1.1400 -0.9459  1.9715
 4019SOL    HW217895   6.718   8.227   6.733  0.7932  1.5666  3.9331
 4020SOL     OW17896  11.528   2.746  10.576 -0.2654 -0.3004  0.6244
 4020SOL    HW117897  11.568   2.704  10.500  0.6062  1.7096 -0.1042
 4020SOL    HW217898  11.590   2.731  10.647 -0.0135 -0.3388  0.3997
 4021SOL     OW17899   6.151   6.429   8.668  0.1681  0.8329  0.2322
 4021SOL    HW117900   6.138   6.486   8.593  0.1748  0.3218 -0.1684
 4021SOL    HW217901   6.212   6.476   8.724 -1.3380  2.1062  0.8698
 4022SOL     OW17902   5.153  11.724  11.627 -0.5653 -0.2686 -0.2584
 4022SOL    HW117903   5.124  11.644  11.671  0.7551  0.1688  1.5175
 4022SOL    HW217904   5.086  11.789  11.648 -1.1688 -0.6561 -0.9373
 4023SOL     OW17905   9.305   1.346   9.353 -0.0180 -0.4667  0.1845
 4023SOL    HW117906   9.334   1.261   9.386 -0.0706 -0.3645  0.4905
 4023SOL    HW217907   9.236   1.373   9.413  0.0927 -0.1429  0.1631
 4024SOL     OW17908   5.105   8.723   6.343  0.2903  0.1382  0.0844
 4024SOL    HW117909   5.153   8.801   6.314 -1.9113  1.2242 -0.9299
 4024SOL    HW217910   5.075   8.746   6.431  0.7553 -0.1318  0.3176
 4025SOL     OW17911   4.746   0.117   9.551 -0.1767  0.3371 -0.2356
 4025SOL    HW117912   4.800   0.194   9.535 -1.7976  1.8589  1.2033
 4025SOL    HW217913   4.807   0.052   9.587  1.0209  1.3198 -0.4127
 4026SOL     OW17914   1.664   7.865   5.371  0.0721 -0.3112 -0.1671
 4026SOL    HW117915   1.742   7.889   5.320  1.6362  2.1188  3.0016
 4026SOL    HW217916   1.689   7.783   5.415  0.2551 -0.3418 -0.3274
 4027SOL     OW17917   9.688  10.640   8.381 -0.2501  0.0704 -0.1910
 4027SOL    HW117918   9.763  10.595   8.343 -0.2168 -0.7799  0.8438
 4027SOL    HW217919   9.620  10.573   8.387 -0.7129  0.5386 -0.0266
 4028SOL     OW17920   3.634   7.765   9.171 -0.3012  0.3909 -0.3770
 4028SOL    HW117921   3.543   7.765   9.139 -0.5599 -0.9399  0.2778
 4028SOL    HW217922   3.654   7.672   9.185  1.5053  0.5808 -1.4158
 4029SOL     OW17923   2.864  11.962   1.174 -0.4264 -0.7080 -0.2258
 4029SOL    HW117924   2.825  11.876   1.190  0.0598 -0.7977  0.5084
 4029SOL    HW217925   2.896  11.957   1.084  0.6274 -1.7096  0.1777
 4030SOL     OW17926   0.403   5.636   8.074  0.0814 -0.5073 -0.0749
 4030SOL    HW117927   0.442   5.623   8.161 -0.3109 -1.1330  0.0168
 4030SOL    HW217928   0.329   5.695   8.090 -0.5846 -1.3957  0.1872
 4031SOL     OW17929   9.532   6.984   2.687  0.1699 -0.4144 -0.0569
 4031SOL    HW117930   9.558   7.025   2.604  0.0325  0.5581  0.3609
 4031SOL    HW217931   9.450   7.027   2.710  1.2333  0.8611  1.6049
 4032SOL     OW17932   7.267   5.415   5.234 -0.4014 -0.0773 -0.6723
 4032SOL    HW117933   7.245   5.500   5.272 -1.3373 -1.0477  1.1292
 4032SOL    HW217934   7.301   5.364   5.308  0.8107 -1.0650 -1.8518
 4033SOL     OW17935   0.647   7.401   0.894 -0.1496  0.2712 -0.5310
 4033SOL    HW117936   0.667   7.307   0.899  1.4999  0.6256  0.2535
 4033SOL    HW217937   0.672   7.426   0.805  0.0777  0.0985 -0.5188
 4034SOL     OW17938   3.995   5.518   6.917 -0.4109  0.2863 -0.0625
 4034SOL    HW117939   4.086   5.544   6.930 -0.4965  1.3432 -1.3811
 4034SOL    HW217940   3.953   5.534   7.002  0.6265 -0.2494  0.5687
 4035SOL     OW17941   6.216   3.440   0.601 -0.2969  0.0697 -0.3736
 4035SOL    HW117942   6.250   3.430   0.512  1.8812  0.2004  0.3695
 4035SOL    HW217943   6.235   3.531   0.624  1.3923 -0.5811  1.0168
 4036SOL     OW17944   7.883   3.903   8.094  0.2202  0.4985  0.0716
 4036SOL    HW117945   7.961   3.883   8.146 -0.6008  0.5808  1.3904
 4036SOL    HW217946   7.816   3.925   8.159 -0.5547  1.6910 -1.0763
 4037SOL     OW17947   9.992   6.994   1.825  0.0919  0.2484 -0.4000
 4037SOL    HW117948   9.945   6.982   1.907  1.3837 -0.5921  0.2470
 4037SOL    HW217949   9.935   6.955   1.759 -0.7766  0.5780  0.1336
 4038SOL     OW17950   2.687   5.016  11.740  0.3977 -0.2402  0.3610
 4038SOL    HW117951   2.769   4.973  11.713  0.5703  0.6457 -0.6025
 4038SOL    HW217952   2.716   5.098  11.780  0.0027 -0.2961  0.7645
 4039SOL     OW17953   3.485   3.381  11.434  0.7368  0.1771  0.0229
 4039SOL    HW117954   3.511   3.473  11.445  0.0445  0.6410 -1.7754
 4039SOL    HW217955   3.524   3.356  11.350 -1.5831 -0.1888 -1.0172
 4040SOL     OW17956   7.163  11.340   8.313  0.5286 -0.1430  0.1350
 4040SOL    HW117957   7.214  11.400   8.367 -0.1910  0.1849  0.4652
 4040SOL    HW217958   7.128  11.394   8.243 -0.3168 -0.1200  0.5677
 4041SOL     OW17959   2.886   0.487  10.610 -0.2540 -0.2350  0.1322
 4041SOL    HW117960   2.879   0.525  10.698 -0.1595 -0.5345  0.2727
 4041SOL    HW217961   2.797   0.455  10.591 -0.6044  1.0327 -0.4450
 4042SOL     OW17962   9.444   4.616   0.376 -0.1742  0.0526 -0.6278
 4042SOL    HW117963   9.430   4.661   0.460 -2.5313 -2.0359  0.2009
 4042SOL    HW217964   9.494   4.538   0.399 -0.0163 -0.0631 -1.3421
 4043SOL     OW17965   1.907   1.146   6.971 -0.2519  0.4868  0.0540
 4043SOL    HW117966   1.866   1.221   6.928  0.1984 -0.1521 -1.5762
 4043SOL    HW217967   2.000   1.153   6.949 -0.3636 -1.1938 -1.2558
 4044SOL     OW17968  10.261  11.411   3.669  0.2655  0.4305  0.5408
 4044SOL    HW117969  10.241  11.318   3.681  2.3866 -0.2116 -0.4033
 4044SOL    HW217970  10.178  11.451   3.646 -0.6148 -1.3316  0.4915
 4045SOL     OW17971   1.899   6.780   0.820 -0.6575  0.5540  0.1372
 4045SOL    HW117972   1.873   6.701   0.868  0.7612  0.9125  1.5816
 4045SOL    HW217973   1.864   6.852   0.871 -1.6521  0.9012 -0.9961
 4046SOL     OW17974   6.938   0.455  12.308 -0.4750  0.1486 -0.4062
 4046SOL    HW117975   6.872   0.399  12.266 -1.3198  0.4646  0.4555
 4046SOL    HW217976   6.888   0.529  12.341  0.4046  0.6431 -0.1751
 4047SOL     OW17977   6.497   3.309   5.066 -0.1111 -0.7198 -0.0596
 4047SOL    HW117978   6.572   3.307   5.125 -0.4269 -0.4193  0.3554
 4047SOL    HW217979   6.496   3.222   5.025 -0.7932 -1.4875  1.5211
 4048SOL     OW17980   4.848  10.189   9.072 -0.2240 -0.2122  0.3210
 4048SOL    HW117981   4.833  10.104   9.114  0.1646  0.0508  1.0146
 4048SOL    HW217982   4.849  10.251   9.145  0.1773  0.3000 -0.1148
 4049SOL     OW17983   6.855  10.281  10.682 -0.0517 -0.2092  0.3906
 4049SOL    HW117984   6.917  10.354  10.686 -0.4704  0.1386  0.6173
 4049SOL    HW217985   6.800  10.300  10.606 -1.2079  0.5704  1.3967
 4050SOL     OW17986   9.910   1.379   0.099 -0.0929  0.1528  0.2010
 4050SOL    HW117987   9.893   1.353   0.008 -0.7592 -1.3198  0.7139
 4050SOL    HW217988   9.833   1.431   0.124 -0.8872 -1.1266  0.5190
 4051SOL     OW17989   4.521  10.233   2.144  0.3045 -0.6800 -0.0157
 4051SOL    HW117990   4.532  10.328   2.137  3.2501 -0.7957  1.4726
 4051SOL    HW217991   4.587  10.197   2.085 -1.1590 -1.8651 -1.0001
 4052SOL     OW17992   1.378   7.100   5.581  0.0419 -0.0464  0.2225
 4052SOL    HW117993   1.383   7.006   5.599 -2.1024 -0.1511  0.6246
 4052SOL    HW217994   1.389   7.107   5.486 -2.4153 -1.0572 -0.2261
 4053SOL     OW17995  11.900   7.555   5.547 -0.6743 -0.5962  0.0051
 4053SOL    HW117996  11.867   7.466   5.562  2.3518 -1.8293  0.1749
 4053SOL    HW217997  11.906   7.593   5.634 -5.2708  1.3165 -0.2177
 4054SOL     OW17998   4.086   8.659  11.646  0.3522  0.6690 -0.7259
 4054SOL    HW117999   4.026   8.646  11.572  1.1266 -1.1199 -1.0910
 4054SOL    HW218000   4.162   8.703  11.607  0.1699  1.0323 -0.6816
 4055SOL     OW18001  11.089   3.455  10.664 -0.4124 -0.0322  0.0501
 4055SOL    HW118002  11.018   3.504  10.704 -0.2756 -0.8392  1.3396
 4055SOL    HW218003  11.056   3.365  10.658 -0.3923  0.0358 -1.5969
 4056SOL     OW18004   0.096   0.588   7.556 -0.1425  0.7545 -0.1129
 4056SOL    HW118005   0.150   0.513   7.579 -0.9168  0.1626 -0.1616
 4056SOL    HW218006   0.158   0.656   7.528  0.8805  1.5380  3.6182
 4057SOL     OW18007   3.073   1.998   0.868  0.2907  0.7336 -0.6110
 4057SOL    HW118008   3.071   2.094   0.868  0.4893  0.7389 -0.8953
 4057SOL    HW218009   3.165   1.976   0.883  0.2962  0.5900 -0.8505
 4058SOL     OW18010   1.889   7.002   0.957  0.1629 -0.0638  0.0836
 4058SOL    HW118011   1.852   6.977   1.042  1.2299  2.3450  1.3684
 4058SOL    HW218012   1.857   7.092   0.943  1.4818  0.2524 -1.1575
 4059SOL     OW18013  11.130   3.388   7.713  0.0366  0.5864  0.0609
 4059SOL    HW118014  11.200   3.427   7.660  0.5327  1.2406  1.1372
 4059SOL    HW218015  11.169   3.308   7.748 -0.2652  0.1908 -0.5142
 4060SOL     OW18016   0.330   1.999   6.058 -0.2591 -0.0348 -0.0975
 4060SOL    HW118017   0.376   1.960   6.133 -2.3924  1.2491  2.0210
 4060SOL    HW218018   0.366   2.088   6.052 -1.6679  0.6378  0.9345
 4061SOL     OW18019   2.105   5.539   8.871 -0.2219 -0.3613  0.1878
 4061SOL    HW118020   2.117   5.621   8.824  2.2059 -0.2388  0.8916
 4061SOL    HW218021   2.043   5.489   8.817  0.7722  0.6154 -1.9736
 4062SOL     OW18022   3.531  10.763   7.310 -0.3869  0.2949 -0.3383
 4062SOL    HW118023   3.516  10.673   7.341 -1.9774  0.7886  0.4237
 4062SOL    HW218024   3.553  10.812   7.389  2.9123  0.1791 -1.0475
 4063SOL     OW18025  11.622  12.020   9.198  0.2330 -0.1702  0.0153
 4063SOL    HW118026  11.537  12.001   9.157  1.1367  0.0340 -2.1225
 4063SOL    HW218027  11.609  12.103   9.243 -0.5860  0.1148 -0.7126
 4064SOL     OW18028   5.788   0.574   1.062 -0.1403  0.5655  0.6459
 4064SOL    HW118029   5.845   0.640   1.021 -0.0533 -1.1463 -2.2831
 4064SOL    HW218030   5.849   0.507   1.094 -0.3730 -0.1559 -0.3828
 4065SOL     OW18031   4.007  11.035   9.283  0.0438  0.0796 -0.8614
 4065SOL    HW118032   3.953  11.077   9.216 -1.0854  0.0894  0.0338
 4065SOL    HW218033   4.028  11.105   9.345  0.7071 -0.0251 -0.9583
 4066SOL     OW18034   9.115   1.103   5.272  0.4732  0.3637 -0.0016
 4066SOL    HW118035   9.089   1.037   5.337  1.0049 -0.3123 -0.4490
 4066SOL    HW218036   9.201   1.073   5.242  0.2673  0.7032 -0.9574
 4067SOL     OW18037  10.319  11.011   0.827  0.0302  0.2600 -1.0255
 4067SOL    HW118038  10.411  11.029   0.845  0.7530 -1.6999 -2.3601
 4067SOL    HW218039  10.316  10.994   0.733 -1.2701 -1.7506 -0.6877
 4068SOL     OW18040  12.164   0.322   3.804  0.4707  0.9621  0.1171
 4068SOL    HW118041  12.096   0.280   3.752  1.5016  0.9179 -1.2518
 4068SOL    HW218042  12.205   0.250   3.852 -0.9705  1.0951  1.6616
 4069SOL     OW18043  10.351   4.493   7.070  0.1950 -0.2894 -0.2489
 4069SOL    HW118044  10.349   4.458   7.159 -2.7001 -1.7676 -0.7725
 4069SOL    HW218045  10.440   4.526   7.060  1.1696 -1.6732  2.5644
 4070SOL     OW18046   5.322   4.399   7.968 -0.5936  0.7547 -0.0161
 4070SOL    HW118047   5.412   4.430   7.974  0.7038 -2.6081 -0.1939
 4070SOL    HW218048   5.271   4.464   8.018  1.8111  2.9017 -0.1433
 4071SOL     OW18049   7.766   2.344   6.905  0.4299 -0.4113  0.2888
 4071SOL    HW118050   7.684   2.295   6.913 -0.1756  0.5475  0.1189
 4071SOL    HW218051   7.810   2.330   6.989 -0.8085  0.6161  1.1722
 4072SOL     OW18052  10.689   3.936   1.349  0.6325  0.5663 -0.2334
 4072SOL    HW118053  10.635   3.963   1.423  0.4811 -0.4670  0.0433
 4072SOL    HW218054  10.756   3.879   1.387  1.2225  0.8960 -0.7426
 4073SOL     OW18055   6.039   6.395   9.213 -0.0454  0.3853  0.3161
 4073SOL    HW118056   6.124   6.353   9.199 -1.1894 -2.6375  1.6856
 4073SOL    HW218057   6.049   6.441   9.297 -0.2140 -1.4710  1.4027
 4074SOL     OW18058   8.061   0.280   8.620 -0.2238 -0.5685 -0.4079
 4074SOL    HW118059   8.021   0.325   8.694  1.2766  0.7003 -0.3136
 4074SOL    HW218060   8.106   0.204   8.659  0.0851 -0.2223 -0.0805
 4075SOL     OW18061   1.259   8.053   6.446 -0.2363 -0.5715 -0.2136
 4075SOL    HW118062   1.281   8.120   6.382 -0.7314  0.0353  0.2399
 4075SOL    HW218063   1.197   8.095   6.506 -1.0110 -1.6058 -0.2545
 4076SOL     OW18064  10.175   2.710  12.330 -0.6939 -0.2262  0.3432
 4076SOL    HW118065  10.143   2.792  12.293 -0.7269 -0.6252 -0.5304
 4076SOL    HW218066  10.271   2.717  12.327 -0.6896 -0.4943 -0.3824
 4077SOL     OW18067   6.632   1.604   9.896 -0.3876 -0.5092 -0.0219
 4077SOL    HW118068   6.641   1.533   9.832  1.0821 -0.2331 -0.1398
 4077SOL    HW218069   6.539   1.627   9.892 -0.2948 -0.2034 -2.3983
 4078SOL     OW18070   0.886   4.549  10.827  0.4661  0.1924  0.2161
 4078SOL    HW118071   0.946   4.570  10.899  1.9634  1.3097 -1.2911
 4078SOL    HW218072   0.913   4.462  10.798  0.3035  0.0251  0.5621
 4079SOL     OW18073   8.383  11.093   7.502 -0.2269  0.5424 -0.2497
 4079SOL    HW118074   8.468  11.092   7.545 -0.2565  1.3479 -0.1581
 4079SOL    HW218075   8.327  11.039   7.557  0.3686 -0.4970 -0.6334
 4080SOL     OW18076   1.728   4.055   4.716  0.0370 -0.1551  0.3514
 4080SOL    HW118077   1.791   4.063   4.645 -1.5718  1.7710 -0.9740
 4080SOL    HW218078   1.683   4.139   4.719 -0.6419 -0.5089  3.0408
 4081SOL     OW18079   4.723   0.384   5.280 -0.0950  0.2547 -0.0084
 4081SOL    HW118080   4.680   0.391   5.195 -0.8179  1.4542  0.4383
 4081SOL    HW218081   4.762   0.470   5.294  0.1329  0.0212  0.8129
 4082SOL     OW18082   1.877   2.375   8.412  0.7710  0.4146 -0.4721
 4082SOL    HW118083   1.856   2.420   8.331  0.7307  1.1762 -0.0426
 4082SOL    HW218084   1.809   2.308   8.421  2.4373 -1.7452 -2.5906
 4083SOL     OW18085   7.605   1.247   9.335  0.1330  0.3177 -0.5077
 4083SOL    HW118086   7.564   1.331   9.312  2.4515  1.6441 -0.1514
 4083SOL    HW218087   7.675   1.271   9.397  2.3175 -1.5426 -2.0848
 4084SOL     OW18088   7.167   2.936   0.161  0.6065  0.1093 -0.0030
 4084SOL    HW118089   7.215   2.984   0.229  1.0738  0.5375 -0.6208
 4084SOL    HW218090   7.077   2.932   0.194  0.4032  1.9679 -0.2015
 4085SOL     OW18091   7.034  10.321   6.690 -0.0698  0.1082 -0.0984
 4085SOL    HW118092   7.038  10.231   6.658  0.8423 -1.1522  3.2126
 4085SOL    HW218093   6.951  10.355   6.655 -0.6742 -2.1434 -1.0427
 4086SOL     OW18094   0.443   9.725   1.366  0.0343  0.5559 -0.1398
 4086SOL    HW118095   0.350   9.722   1.342 -0.3845 -0.2112  1.4162
 4086SOL    HW218096   0.464   9.819   1.366 -0.5661  0.7109 -1.0468
 4087SOL     OW18097   0.483   2.672   4.913 -0.4340  0.2002 -0.1465
 4087SOL    HW118098   0.487   2.689   5.007 -2.0265  0.1389 -0.0364
 4087SOL    HW218099   0.540   2.596   4.900  0.4170  0.6848  0.6319
 4088SOL     OW18100   0.998   5.836   8.777  0.5528  0.2530 -0.1025
 4088SOL    HW118101   1.071   5.875   8.729 -0.7557  1.0576 -1.5664
 4088SOL    HW218102   0.954   5.911   8.818  0.9530 -0.3024  1.3978
 4089SOL     OW18103   7.938   9.740   1.531 -0.1873  0.1250  0.0648
 4089SOL    HW118104   8.020   9.753   1.483 -0.8465 -0.4592 -1.2757
 4089SOL    HW218105   7.910   9.652   1.507 -0.3358 -0.3721  1.9014
 4090SOL     OW18106   2.837   3.002   5.859  0.4292  0.5188 -0.1588
 4090SOL    HW118107   2.756   2.950   5.862  0.7484  0.0041 -0.2345
 4090SOL    HW218108   2.872   2.997   5.948  0.1794  1.0656 -0.0291
 4091SOL     OW18109  12.147   4.525   4.438 -0.2371 -0.2981 -0.0948
 4091SOL    HW118110  12.217   4.476   4.395 -1.1550 -2.4689  0.6990
 4091SOL    HW218111  12.068   4.474   4.419 -0.9756 -0.1638  2.2900
 4092SOL     OW18112  11.649   7.410   8.393  0.3847  0.1765  0.0053
 4092SOL    HW118113  11.567   7.392   8.347 -0.4298  1.5072  0.8797
 4092SOL    HW218114  11.672   7.499   8.365 -0.0495  0.9598  2.0061
 4093SOL     OW18115   4.175   3.782   0.441  0.6920 -0.1475 -0.1001
 4093SOL    HW118116   4.249   3.796   0.500  0.3976 -2.7314  1.0360
 4093SOL    HW218117   4.191   3.696   0.401 -2.0898 -1.3179  0.9911
 4094SOL     OW18118  10.294   0.019   4.204 -0.1657 -0.0971 -0.3805
 4094SOL    HW118119  10.319  -0.035   4.129 -2.7467 -0.0170 -1.4067
 4094SOL    HW218120  10.255  -0.043   4.266 -0.4440  0.1765 -0.2754
 4095SOL     OW18121   0.954   9.292  10.389 -0.0907  0.1123  0.5985
 4095SOL    HW118122   1.014   9.224  10.419  0.9597 -0.2647 -2.1144
 4095SOL    HW218123   1.006   9.373  10.394 -0.1112  0.1403  0.3305
 4096SOL     OW18124   8.419  11.230   8.557 -0.3149  0.2507 -0.1931
 4096SOL    HW118125   8.419  11.286   8.479 -2.0911 -0.7888 -0.9932
 4096SOL    HW218126   8.400  11.290   8.630 -0.5884  0.9262 -0.8128
 4097SOL     OW18127   5.189   1.379  10.550  0.2750 -0.8230  0.0162
 4097SOL    HW118128   5.133   1.414  10.480 -0.3238 -1.2728  0.2661
 4097SOL    HW218129   5.258   1.445  10.560  1.6346 -1.7099 -2.4778
 4098SOL     OW18130  10.295   9.596   2.512 -0.1510 -0.1899  0.4235
 4098SOL    HW118131  10.300   9.684   2.550  1.1029  0.0560 -0.2684
 4098SOL    HW218132  10.205   9.590   2.478  0.0073  1.1805 -0.3240
 4099SOL     OW18133   8.123   2.578   6.033  0.2953  0.1175  0.0046
 4099SOL    HW118134   8.172   2.498   6.015 -0.5030 -0.3877  0.0440
 4099SOL    HW218135   8.179   2.626   6.094  0.7634 -0.4235  0.0146
 4100SOL     OW18136   0.214   5.998  11.259 -0.0855  0.2393  0.4012
 4100SOL    HW118137   0.160   6.022  11.184  0.6569 -0.3023 -0.3371
 4100SOL    HW218138   0.153   5.961  11.323 -0.8951  1.8433  0.5836
 4101SOL     OW18139   9.289   8.589   1.290 -0.2125  0.6625  0.1704
 4101SOL    HW118140   9.241   8.624   1.365 -1.1629  1.1265 -0.6329
 4101SOL    HW218141   9.381   8.589   1.317 -0.6923 -0.8612  1.9891
 4102SOL     OW18142   0.216   9.395   8.809  0.3221  0.1865 -0.1246
 4102SOL    HW118143   0.295   9.373   8.858 -0.2225  0.6376  0.9657
 4102SOL    HW218144   0.224   9.344   8.728  1.4460 -0.2122  0.2166
 4103SOL     OW18145   0.859  12.255   7.255  0.2914 -0.0713  0.1489
 4103SOL    HW118146   0.850  12.278   7.348  0.3651  0.9059 -0.0839
 4103SOL    HW218147   0.771  12.264   7.219  0.4025  0.2529 -0.0386
 4104SOL     OW18148   9.240   6.548   9.657 -0.7956 -0.3432  0.3784
 4104SOL    HW118149   9.222   6.459   9.690 -3.7818  0.1229  0.3092
 4104SOL    HW218150   9.239   6.539   9.562  1.8229 -0.6588  0.3196
 4105SOL     OW18151   4.589   6.524   9.543 -0.1474  1.1541 -0.3427
 4105SOL    HW118152   4.501   6.539   9.578 -1.1868  1.5158 -2.8440
 4105SOL    HW218153   4.581   6.442   9.493  0.1247  2.4760 -2.7367
 4106SOL     OW18154   4.093   2.750   1.248 -0.2718 -0.0372  0.0874
 4106SOL    HW118155   4.048   2.704   1.177 -0.7057 -0.9866  0.9521
 4106SOL    HW218156   4.157   2.686   1.281  0.8443  0.8462 -0.2836
 4107SOL     OW18157  11.462   9.465   9.746 -0.0213 -0.8144  0.1310
 4107SOL    HW118158  11.528   9.471   9.815  0.1904  0.6064 -0.1766
 4107SOL    HW218159  11.455   9.554   9.711  0.5737 -1.6523 -2.3400
 4108SOL     OW18160   8.302   9.147  11.763 -0.2647 -0.1575  0.4647
 4108SOL    HW118161   8.319   9.172  11.854 -1.8430  1.1670  0.4321
 4108SOL    HW218162   8.208   9.159  11.751  0.3099  3.2556 -2.3410
 4109SOL     OW18163   3.058   7.014   5.127 -0.1399  0.3143  0.3270
 4109SOL    HW118164   3.151   7.034   5.123 -0.2123  0.5417 -0.3435
 4109SOL    HW218165   3.041   6.961   5.049 -0.5368  0.1298  0.5366
 4110SOL     OW18166   4.279   8.060   2.006 -0.5866 -0.6333 -0.4578
 4110SOL    HW118167   4.234   7.982   1.973  1.1944 -1.7873 -0.3179
 4110SOL    HW218168   4.248   8.132   1.951 -2.3850 -1.3911 -0.4892
 4111SOL     OW18169   9.590   3.033   4.567 -0.4817 -0.0716  0.5892
 4111SOL    HW118170   9.663   2.971   4.568  0.8431  1.4014  0.2090
 4111SOL    HW218171   9.600   3.084   4.647 -2.2207 -1.0013  1.4754
 4112SOL     OW18172   6.860   3.853   5.469 -0.2598  0.1047  0.2579
 4112SOL    HW118173   6.866   3.819   5.558 -0.3529 -1.8410 -0.4092
 4112SOL    HW218174   6.791   3.800   5.429 -0.1894  0.9144 -0.9854
 4113SOL     OW18175   8.546   7.334   1.704 -0.1966 -0.3166  0.1085
 4113SOL    HW118176   8.474   7.362   1.648 -0.5639 -0.9206  0.2694
 4113SOL    HW218177   8.615   7.307   1.643 -1.4431 -3.2518 -0.1743
 4114SOL     OW18178   1.944   3.515   6.446 -0.1636  0.1977 -0.0920
 4114SOL    HW118179   1.926   3.477   6.532 -2.2878  0.4821 -0.3521
 4114SOL    HW218180   1.941   3.609   6.460  1.2298  0.2722 -0.1759
 4115SOL     OW18181   0.441   5.172   2.586  0.3475  0.1538  0.2467
 4115SOL    HW118182   0.451   5.261   2.621 -1.4861  1.4314 -2.2119
 4115SOL    HW218183   0.485   5.174   2.501 -3.7425  0.3194 -2.1046
 4116SOL     OW18184  12.102   2.810   6.613 -0.0213  0.0259  0.1599
 4116SOL    HW118185  12.065   2.721   6.617  2.2076 -0.9476  0.9566
 4116SOL    HW218186  12.036   2.865   6.654 -0.1904 -1.7795  2.5841
 4117SOL     OW18187   0.723   2.597   5.390 -0.4091  0.5749 -0.6577
 4117SOL    HW118188   0.771   2.661   5.442  1.4647 -0.1904 -1.3566
 4117SOL    HW218189   0.727   2.516   5.441 -0.5516  0.3875 -0.9388
 4118SOL     OW18190   4.664   6.386   2.543 -0.5040 -0.1020 -0.2445
 4118SOL    HW118191   4.698   6.297   2.555 -0.3482  0.1684  1.5589
 4118SOL    HW218192   4.616   6.382   2.460 -0.3408 -1.8234 -0.2963
 4119SOL     OW18193   5.559   5.829   2.191 -0.5995  0.0261  0.4279
 4119SOL    HW118194   5.604   5.882   2.125 -0.7328 -0.1491  0.1950
 4119SOL    HW218195   5.500   5.891   2.235 -0.8828  0.0342  0.0379
 4120SOL     OW18196   4.396   6.997   9.650  0.1046 -0.0210  0.1806
 4120SOL    HW118197   4.487   6.997   9.619  1.0324 -0.5744  2.6551
 4120SOL    HW218198   4.356   7.073   9.608  1.8831  0.5726 -0.5270
 4121SOL     OW18199   1.475   6.963   9.833  0.1389  0.1779 -0.2062
 4121SOL    HW118200   1.560   6.948   9.790 -0.6157 -0.1823 -1.6377
 4121SOL    HW218201   1.415   6.905   9.787 -0.5842 -0.8646  1.9360
 4122SOL     OW18202   6.488   8.198   5.372 -0.3434 -0.6461  0.1744
 4122SOL    HW118203   6.433   8.151   5.435 -0.5537 -1.9228 -0.9042
 4122SOL    HW218204   6.565   8.225   5.422 -0.2839 -2.0482  0.8757
 4123SOL     OW18205   1.592   5.019   8.279  0.6490 -0.6274 -0.4038
 4123SOL    HW118206   1.588   4.984   8.368 -1.2801 -0.7933 -0.5148
 4123SOL    HW218207   1.576   5.112   8.289 -1.0900 -0.8707 -0.6718
 4124SOL     OW18208   9.535   5.214   6.794  0.4381 -0.7763  0.1408
 4124SOL    HW118209   9.630   5.226   6.796  0.2904  0.7164 -0.1192
 4124SOL    HW218210   9.504   5.251   6.876  0.0932 -1.4129  0.2996
 4125SOL     OW18211  11.891  11.549   9.854 -0.2584 -0.3857 -0.0785
 4125SOL    HW118212  11.891  11.644   9.838  0.5861 -0.1589  1.2080
 4125SOL    HW218213  11.800  11.523   9.839 -0.3373  0.4642 -1.2782
 4126SOL     OW18214   6.613   2.731   9.007  0.8496  0.3439  0.1837
 4126SOL    HW118215   6.589   2.655   9.060  0.3270  1.2901  1.3323
 4126SOL    HW218216   6.543   2.738   8.942  0.4418  0.3565  0.6198
 4127SOL     OW18217   5.857   3.717   2.689 -0.1938 -0.1146  0.0512
 4127SOL    HW118218   5.828   3.803   2.660  1.6981  0.5743  0.0407
 4127SOL    HW218219   5.951   3.727   2.703  0.1949 -2.3489 -0.5644
 4128SOL     OW18220   1.859   2.136   1.224  0.7956 -0.1785  0.1542
 4128SOL    HW118221   1.885   2.228   1.226  1.1408 -0.2801  1.7813
 4128SOL    HW218222   1.795   2.131   1.153 -0.3963  1.6269  1.0281
 4129SOL     OW18223   3.221   3.045   6.166  0.1674  0.2735 -0.0467
 4129SOL    HW118224   3.192   2.965   6.121 -2.3557  0.6916  0.6472
 4129SOL    HW218225   3.157   3.111   6.140  0.3061  1.2271  1.8720
 4130SOL     OW18226   1.177   9.073   4.985 -0.6405 -0.0784 -0.4667
 4130SOL    HW118227   1.165   8.990   4.940  1.1700  0.2302 -1.6054
 4130SOL    HW218228   1.113   9.071   5.056 -0.0480 -2.8324  0.1106
 4131SOL     OW18229   8.223   0.811   8.529 -0.5734 -0.1141  0.5090
 4131SOL    HW118230   8.304   0.794   8.481 -1.2506 -1.1874 -0.2914
 4131SOL    HW218231   8.189   0.724   8.550 -1.3675  0.3320  1.1020
 4132SOL     OW18232   5.701   6.683   8.911 -0.6075 -0.0334  0.1729
 4132SOL    HW118233   5.706   6.746   8.839 -0.1012 -0.2534  0.0144
 4132SOL    HW218234   5.792   6.660   8.929 -0.6308  0.9006  1.6549
 4133SOL     OW18235  10.562  11.595   6.076 -0.2665 -0.2435 -0.1313
 4133SOL    HW118236  10.614  11.518   6.098  0.4129  0.1953 -0.1596
 4133SOL    HW218237  10.588  11.617   5.986  0.5943  0.8192  0.3428
 4134SOL     OW18238   3.222  10.752   5.193  0.8660 -0.0855 -0.2832
 4134SOL    HW118239   3.239  10.720   5.105  0.6323  0.5568 -0.5692
 4134SOL    HW218240   3.306  10.789   5.222  0.2560  2.3605 -1.3866
 4135SOL     OW18241   7.582   5.859   4.685 -0.5366 -0.2459  0.2386
 4135SOL    HW118242   7.487   5.851   4.687 -0.5578  0.1075  1.0667
 4135SOL    HW218243   7.603   5.912   4.762  0.3242 -0.2697  0.0272
 4136SOL     OW18244   0.894   6.199   4.738 -0.0067 -0.1968  0.1663
 4136SOL    HW118245   0.826   6.170   4.677  0.8571  3.8044 -3.1759
 4136SOL    HW218246   0.856   6.184   4.825 -3.2376 -2.2069 -1.4008
 4137SOL     OW18247  10.703   3.129   7.466  0.4687 -0.6453 -0.5239
 4137SOL    HW118248  10.658   3.206   7.501 -0.4256 -1.5617  0.4099
 4137SOL    HW218249  10.781   3.165   7.423  0.0932  0.7714 -0.0976
 4138SOL     OW18250   6.616   6.778  12.125  0.0363 -0.2343 -0.5781
 4138SOL    HW118251   6.707   6.752  12.135  0.5066  1.1135 -1.1170
 4138SOL    HW218252   6.570   6.734  12.197  1.0474 -1.1603 -0.4765
 4139SOL     OW18253   2.945   9.779  11.472  0.0453  0.0433  0.5427
 4139SOL    HW118254   2.923   9.699  11.423 -0.1232  0.3825  0.0576
 4139SOL    HW218255   2.938   9.753  11.564  4.7255 -1.8853  0.6210
 4140SOL     OW18256   5.729   7.790   8.510 -0.2432 -0.1573  0.0651
 4140SOL    HW118257   5.671   7.860   8.478  1.9265  1.1743 -1.1511
 4140SOL    HW218258   5.682   7.709   8.488 -2.0843  0.8623  0.0277
 4141SOL     OW18259   8.704   9.101   3.676  0.4160 -0.3314 -0.0490
 4141SOL    HW118260   8.790   9.143   3.664  0.4612 -0.5862 -0.6594
 4141SOL    HW218261   8.670   9.091   3.587  0.4707 -1.7044  0.0608
 4142SOL     OW18262  10.557   2.897   0.996  0.1025  0.6065  0.2715
 4142SOL    HW118263  10.574   2.848   1.077  1.9414 -0.8173 -0.8948
 4142SOL    HW218264  10.499   2.968   1.023 -1.3629 -1.2422  2.3600
 4143SOL     OW18265  12.279   9.923   4.801  0.5982  0.5143  0.5052
 4143SOL    HW118266  12.373   9.909   4.789  0.6021 -0.7348  1.7823
 4143SOL    HW218267  12.249   9.846   4.850 -1.1105  0.8505  0.0597
 4144SOL     OW18268   9.992   9.775   6.614  0.0364 -0.1916 -0.2189
 4144SOL    HW118269   9.972   9.777   6.521  0.5600  2.2640 -0.3699
 4144SOL    HW218270  10.076   9.729   6.620  0.0126 -0.3379 -0.9838
 4145SOL     OW18271   9.330   0.551   5.982  0.6302  0.8429 -0.0671
 4145SOL    HW118272   9.404   0.563   5.923  0.9492 -0.8117 -0.0368
 4145SOL    HW218273   9.286   0.472   5.951 -1.1291  1.7513 -0.0649
 4146SOL     OW18274   9.314   1.075   5.758  0.1183 -0.2117  0.3389
 4146SOL    HW118275   9.299   0.985   5.728  0.7319 -0.1458 -0.1965
 4146SOL    HW218276   9.232   1.101   5.800  0.3013 -1.4156  1.4961
 4147SOL     OW18277   1.485   7.727   4.840  0.5450  0.4341 -0.6748
 4147SOL    HW118278   1.477   7.655   4.777  2.0235 -0.8831  0.5400
 4147SOL    HW218279   1.577   7.752   4.835  0.5350  0.7459  0.4884
 4148SOL     OW18280   2.072   0.628   8.765  0.4921  0.4979 -0.4152
 4148SOL    HW118281   1.994   0.583   8.731  0.0457  1.3396 -0.5262
 4148SOL    HW218282   2.126   0.643   8.687  0.9756 -0.4653 -0.2796
 4149SOL     OW18283   1.955   0.828  10.734  0.1168 -0.8855 -0.7410
 4149SOL    HW118284   1.976   0.888  10.806 -2.7025 -0.3560 -0.2206
 4149SOL    HW218285   2.040   0.801  10.699  1.5636  3.2383 -0.8888
 4150SOL     OW18286  10.660  10.847   1.844  0.1429 -0.1345 -0.8707
 4150SOL    HW118287  10.705  10.789   1.782  0.3217 -0.4746 -0.4247
 4150SOL    HW218288  10.697  10.824   1.929  1.6500  1.9713 -0.8963
 4151SOL     OW18289   2.449   6.979   0.353  0.3155 -0.2024  0.1757
 4151SOL    HW118290   2.362   6.958   0.386 -0.0257 -0.5480 -0.9118
 4151SOL    HW218291   2.443   7.072   0.330  0.8454  0.3102  1.9173
 4152SOL     OW18292  11.945  12.245   2.520  0.4852 -0.2811 -0.8448
 4152SOL    HW118293  11.887  12.304   2.471 -1.2982 -1.3985 -0.1678
 4152SOL    HW218294  11.941  12.162   2.472  2.6896 -0.0326 -1.5876
 4153SOL     OW18295   2.812   5.686   5.455  0.5710 -0.4739 -0.2967
 4153SOL    HW118296   2.877   5.754   5.435  0.1622  0.7709  2.2500
 4153SOL    HW218297   2.865   5.609   5.478  1.0417 -0.8783 -2.5030
 4154SOL     OW18298   9.634  12.074   6.745 -0.1697  0.3750 -0.3149
 4154SOL    HW118299   9.578  12.103   6.674  0.4908 -0.3145 -1.1386
 4154SOL    HW218300   9.670  12.155   6.782 -1.9931  0.8540  0.5016
 4155SOL     OW18301   9.882   5.577   6.138  0.2882 -0.3751 -0.1694
 4155SOL    HW118302   9.821   5.503   6.129 -0.0059 -0.2710  0.8553
 4155SOL    HW218303   9.903   5.601   6.048 -1.4287 -0.2172 -0.5718
 4156SOL     OW18304  12.025   2.309   0.348 -0.1131  0.1396  0.1415
 4156SOL    HW118305  11.959   2.241   0.336  0.0161  0.4879 -3.4055
 4156SOL    HW218306  11.975   2.387   0.370 -0.6890 -0.0601 -0.4456
 4157SOL     OW18307  12.130   5.076   9.422  0.0163 -0.3162 -0.2910
 4157SOL    HW118308  12.096   5.155   9.463  0.8708  1.0925 -2.2026
 4157SOL    HW218309  12.070   5.058   9.350  0.1850 -1.0811 -0.2538
 4158SOL     OW18310   0.965   6.577   3.692  0.3083 -0.3633  0.3137
 4158SOL    HW118311   0.921   6.633   3.628  0.1463 -1.1711 -0.2843
 4158SOL    HW218312   0.982   6.495   3.646  0.4649 -0.8486  1.2105
 4159SOL     OW18313   4.325   6.096   8.062  0.0083  0.5306 -0.2086
 4159SOL    HW118314   4.390   6.094   8.132  0.4131 -0.6669 -0.5992
 4159SOL    HW218315   4.257   6.034   8.090 -1.5727  2.5657  0.7258
 4160SOL     OW18316   9.530   7.532   6.080  0.2049  0.3064  0.7207
 4160SOL    HW118317   9.601   7.590   6.052 -0.5192  0.3823 -1.1236
 4160SOL    HW218318   9.524   7.467   6.010 -0.8890 -0.2825  1.3458
 4161SOL     OW18319   9.229  10.989   3.791 -0.2040 -0.2819  0.0668
 4161SOL    HW118320   9.297  10.983   3.724 -0.2114 -0.4831  0.0758
 4161SOL    HW218321   9.249  10.918   3.852 -0.1603 -0.0587  0.3110
 4162SOL     OW18322   8.686   8.533   7.967  0.5865  0.5460 -0.4490
 4162SOL    HW118323   8.717   8.623   7.978 -0.5017  1.3460 -3.0267
 4162SOL    HW218324   8.605   8.529   8.018  2.3635 -0.1405  2.5264
 4163SOL     OW18325  12.330   4.413  11.782 -0.4046 -0.3653 -0.0441
 4163SOL    HW118326  12.343   4.468  11.704  0.4722 -1.0913 -0.4191
 4163SOL    HW218327  12.293   4.473  11.847 -0.8278  0.3318 -0.9044
 4164SOL     OW18328   1.257   6.870   5.380  0.7619  0.2849 -0.3142
 4164SOL    HW118329   1.214   6.952   5.358  0.6928  0.5265  0.6757
 4164SOL    HW218330   1.343   6.875   5.337  0.5749  0.6631 -0.6431
 4165SOL     OW18331   7.750  11.561   0.694  0.7245 -0.6843  0.1506
 4165SOL    HW118332   7.781  11.479   0.655  2.3938  0.1118 -0.3083
 4165SOL    HW218333   7.808  11.628   0.657 -2.9398  1.3429 -2.5938
 4166SOL     OW18334   6.963   5.122   5.183 -0.0659  0.4191 -0.8689
 4166SOL    HW118335   6.998   5.206   5.152  1.0845  0.5336  0.6324
 4166SOL    HW218336   6.988   5.059   5.116  0.6419  0.9740 -1.1368
 4167SOL     OW18337   4.221   7.265   3.869 -0.1685 -0.0124  0.1640
 4167SOL    HW118338   4.257   7.327   3.806 -1.1952  1.4643  0.9694
 4167SOL    HW218339   4.295   7.212   3.897  0.8956  1.3343 -0.0338
 4168SOL     OW18340   6.871   1.371   7.949 -0.2210 -0.2146  0.3906
 4168SOL    HW118341   6.960   1.387   7.917 -0.6643  0.3743 -0.5784
 4168SOL    HW218342   6.867   1.419   8.032  0.3526 -0.2241  0.4307
 4169SOL     OW18343   2.796   6.087   0.907 -0.7550  0.1439 -0.8613
 4169SOL    HW118344   2.740   6.157   0.873 -0.8222  0.7024  0.3291
 4169SOL    HW218345   2.764   6.073   0.996 -0.4319 -1.0909 -0.9199
 4170SOL     OW18346  11.099   0.510   7.380  0.2271 -0.8199  0.1304
 4170SOL    HW118347  11.075   0.456   7.305  2.4612  1.5139 -2.4797
 4170SOL    HW218348  11.029   0.575   7.387 -1.0874 -2.3084  1.5613
 4171SOL     OW18349   0.872   9.977   7.814  0.1159  0.1928 -0.2913
 4171SOL    HW118350   0.934  10.036   7.770  2.2586 -2.1213 -0.5789
 4171SOL    HW218351   0.878   9.896   7.764 -0.7479 -1.1180  1.6531
 4172SOL     OW18352   7.065   7.162  12.253  0.4524 -0.4634  0.4121
 4172SOL    HW118353   7.070   7.137  12.161  0.2268 -2.1923  0.8353
 4172SOL    HW218354   7.145   7.212  12.269 -0.2922  1.3278 -1.1053
 4173SOL     OW18355   2.787   2.077   5.860  0.2415 -0.0781  0.1362
 4173SOL    HW118356   2.839   2.001   5.887  0.6164  0.5914  1.3661
 4173SOL    HW218357   2.829   2.105   5.778  0.1762 -1.0991 -0.2699
 4174SOL     OW18358  10.656   4.522   5.666  0.2110 -0.1247 -0.3862
 4174SOL    HW118359  10.593   4.592   5.681  0.1266  0.0869 -1.6530
 4174SOL    HW218360  10.612   4.461   5.607  0.0086 -1.6535  1.2359
 4175SOL     OW18361   8.338  10.481   8.826 -0.5426  0.3687  0.7254
 4175SOL    HW118362   8.248  10.500   8.854 -0.1711  0.3458  1.9608
 4175SOL    HW218363   8.346  10.386   8.834 -0.8101  0.2103 -0.6550
 4176SOL     OW18364   8.194   8.692   3.057  0.3776 -0.1365  0.2300
 4176SOL    HW118365   8.261   8.761   3.054  1.8907 -1.5828 -0.3410
 4176SOL    HW218366   8.233   8.622   3.108 -1.6912 -0.1067  2.0532
 4177SOL     OW18367   3.659  10.644   3.354  0.1562 -0.5423  0.1806
 4177SOL    HW118368   3.688  10.704   3.423  0.1564 -1.2825  0.8368
 4177SOL    HW218369   3.567  10.626   3.374 -0.1400  0.0313 -0.6037
 4178SOL     OW18370   5.764  10.723  11.315  0.1258 -0.0900  0.3430
 4178SOL    HW118371   5.777  10.684  11.402  1.4358 -0.3355  0.0578
 4178SOL    HW218372   5.689  10.675  11.279 -0.3327 -0.0916  1.2743
 4179SOL     OW18373   5.659  11.499   1.512 -0.1284 -0.4966 -0.3218
 4179SOL    HW118374   5.705  11.449   1.578  1.2720  1.1232  0.0033
 4179SOL    HW218375   5.728  11.546   1.464 -1.2901  0.4458 -1.1605
 4180SOL     OW18376  10.354   9.580   0.360  0.5715 -0.5806 -0.5518
 4180SOL    HW118377  10.350   9.628   0.277  1.1183 -2.4474 -1.7111
 4180SOL    HW218378  10.411   9.505   0.342  0.2279 -1.3604  1.3615
 4181SOL     OW18379   2.280   6.766  11.842 -0.3571  0.2284 -0.4263
 4181SOL    HW118380   2.340   6.839  11.851  0.2127 -0.3114  0.2536
 4181SOL    HW218381   2.306   6.723  11.761  0.0553  0.1146 -0.2368
 4182SOL     OW18382   5.357  11.590   4.774  0.0343  0.2004  0.0775
 4182SOL    HW118383   5.328  11.524   4.711  0.8508 -0.3121  0.2122
 4182SOL    HW218384   5.452  11.581   4.775  0.0265  0.1330  1.4514
 4183SOL     OW18385   8.447   5.111  10.582 -0.3953 -0.3055 -0.5592
 4183SOL    HW118386   8.452   5.133  10.675  1.9305 -0.1820 -0.6542
 4183SOL    HW218387   8.456   5.195  10.537  0.8547 -0.5903 -0.8801
 4184SOL     OW18388   1.686  10.856   8.178  0.0747  0.2965 -0.3039
 4184SOL    HW118389   1.772  10.875   8.139  0.4202 -0.1536  0.2283
 4184SOL    HW218390   1.697  10.772   8.223 -0.6373  0.2472 -0.2035
 4185SOL     OW18391  11.864   6.278   4.494 -0.4541 -0.4011 -0.1401
 4185SOL    HW118392  11.790   6.328   4.527  0.8984  2.4684 -1.1049
 4185SOL    HW218393  11.899   6.332   4.422  2.4377 -1.6853  0.1663
 4186SOL     OW18394  10.572   8.755  10.475 -0.2991 -0.0653 -0.0809
 4186SOL    HW118395  10.515   8.821  10.436 -0.5345 -0.4165 -0.3419
 4186SOL    HW218396  10.639   8.805  10.522 -0.2019  0.3657 -0.6640
 4187SOL     OW18397   6.966   3.193  10.364  0.3942  0.0658  0.2100
 4187SOL    HW118398   7.019   3.258  10.412 -0.4820  1.2363 -0.3433
 4187SOL    HW218399   6.883   3.238  10.348  0.0435 -0.9371 -0.8825
 4188SOL     OW18400   5.711  11.050   2.651 -0.4788  0.0508  0.0645
 4188SOL    HW118401   5.740  10.973   2.602 -0.0066  0.1771  0.1475
 4188SOL    HW218402   5.615  11.049   2.642 -0.3356  0.9133 -2.1246
 4189SOL     OW18403   0.847   0.445   7.580  0.1694 -0.0141  0.0178
 4189SOL    HW118404   0.911   0.435   7.651 -0.0504  1.6434  0.4968
 4189SOL    HW218405   0.877   0.385   7.512  2.3872  0.9015  0.1263
 4190SOL     OW18406  10.967  10.362   6.261 -0.3115 -0.1699 -0.8229
 4190SOL    HW118407  10.986  10.413   6.183 -1.3967  0.1780 -0.8627
 4190SOL    HW218408  11.054  10.339   6.296  0.1892  1.5156 -0.9047
 4191SOL     OW18409   1.561   3.226   9.498  0.1762 -0.2128  0.1914
 4191SOL    HW118410   1.625   3.198   9.563 -0.8360 -1.7686  0.5819
 4191SOL    HW218411   1.572   3.321   9.493  1.3493 -0.2474  1.4719
 4192SOL     OW18412   6.004   4.868   4.979  0.4192 -0.2703  0.1749
 4192SOL    HW118413   5.932   4.924   4.947  1.2235  0.6142 -0.1252
 4192SOL    HW218414   6.067   4.865   4.907  1.8456  1.0369  1.2977
 4193SOL     OW18415   9.327   7.305   6.942 -0.7377 -0.0972  0.0357
 4193SOL    HW118416   9.326   7.232   6.880  0.3604  0.1584 -0.3078
 4193SOL    HW218417   9.341   7.382   6.887 -0.3210  0.1929  0.5465
 4194SOL     OW18418   6.565  11.305  12.156 -0.1015 -0.1850  0.0021
 4194SOL    HW118419   6.558  11.274  12.065 -2.5866 -2.2347  0.7619
 4194SOL    HW218420   6.637  11.255  12.193  0.9316  0.6653 -0.8070
 4195SOL     OW18421   6.224   9.517   8.666 -0.0144 -0.5237  0.1708
 4195SOL    HW118422   6.317   9.537   8.658 -0.1624  0.0317 -0.2043
 4195SOL    HW218423   6.181   9.576   8.603 -0.4824 -1.8807 -0.8463
 4196SOL     OW18424   4.752   4.283   2.580 -0.3273 -0.3203  0.6124
 4196SOL    HW118425   4.794   4.361   2.545 -1.8176 -0.0106 -0.5809
 4196SOL    HW218426   4.742   4.225   2.504 -0.7457 -0.9775  1.1562
 4197SOL     OW18427   9.751   3.306   5.752 -0.3966  0.1386 -0.2372
 4197SOL    HW118428   9.804   3.333   5.826  0.8311 -1.3157 -0.5474
 4197SOL    HW218429   9.661   3.309   5.784 -0.0553  1.5478  0.6448
 4198SOL     OW18430   4.951   4.262  12.124 -0.2799 -0.1912 -0.1836
 4198SOL    HW118431   5.013   4.241  12.054 -0.2741  0.1468 -0.2783
 4198SOL    HW218432   4.963   4.355  12.141  0.7527 -0.5483  1.2742
 4199SOL     OW18433   5.908   9.229   9.776  0.4015 -0.0126 -0.2318
 4199SOL    HW118434   5.986   9.179   9.752  0.3569 -0.0624 -0.2768
 4199SOL    HW218435   5.901   9.296   9.708  0.0261 -0.4269 -0.6145
 4200SOL     OW18436   0.233   6.920   1.554 -0.6037  0.1685  0.6826
 4200SOL    HW118437   0.150   6.948   1.594 -0.7719 -2.9856  2.8958
 4200SOL    HW218438   0.210   6.844   1.501  0.6056  0.4782 -0.3135
 4201SOL     OW18439   7.265  11.999   5.230  0.3223  0.1381  0.0901
 4201SOL    HW118440   7.358  12.006   5.251 -0.0360 -1.4738  2.7295
 4201SOL    HW218441   7.248  11.904   5.227 -0.9597  0.3628 -1.9582
 4202SOL     OW18442   7.807   1.858   7.723  0.3689 -0.2778  0.5135
 4202SOL    HW118443   7.835   1.777   7.766 -0.8313  0.0979  2.0498
 4202SOL    HW218444   7.752   1.829   7.650  1.1583 -0.8566  0.1227
 4203SOL     OW18445   7.812   0.625   9.629 -0.2078  0.3915  0.2728
 4203SOL    HW118446   7.816   0.604   9.723  0.9711  0.4364  0.2440
 4203SOL    HW218447   7.802   0.720   9.626 -0.0526  0.4093  0.3423
 4204SOL     OW18448   3.968   3.742   3.090 -0.1901 -0.4776 -0.0825
 4204SOL    HW118449   4.056   3.767   3.062 -0.3376 -0.3248 -0.4062
 4204SOL    HW218450   3.911   3.807   3.051 -0.2484  0.8031  1.9903
 4205SOL     OW18451   8.366   9.485  10.630  0.3636  0.6289  0.0738
 4205SOL    HW118452   8.395   9.506  10.541  0.4481 -0.5302 -0.1913
 4205SOL    HW218453   8.271   9.474  10.622  0.0905  2.4009  0.5288
 4206SOL     OW18454   5.696   8.611  11.377  0.1267  0.2945  0.2386
 4206SOL    HW118455   5.731   8.565  11.453 -1.2362  1.0914  1.4309
 4206SOL    HW218456   5.765   8.672  11.352  0.4620  0.2950  1.1141
 4207SOL     OW18457   2.092   4.566   9.452  0.0412 -0.1017  0.0838
 4207SOL    HW118458   2.029   4.586   9.522 -0.3477  1.7823 -0.7642
 4207SOL    HW218459   2.158   4.635   9.459 -1.6031  2.0708 -3.2609
 4208SOL     OW18460   3.811   5.111   4.654  0.0215  0.4409  0.0632
 4208SOL    HW118461   3.763   5.032   4.678  1.0248 -0.2540 -0.1306
 4208SOL    HW218462   3.791   5.174   4.723 -1.5210  0.3428 -0.2593
 4209SOL     OW18463   2.381   4.104   6.595  0.1067  0.0121 -0.0960
 4209SOL    HW118464   2.389   4.191   6.556  2.7287  0.2131  0.7175
 4209SOL    HW218465   2.367   4.046   6.521 -1.0100  1.0066 -0.7101
 4210SOL     OW18466   1.249   2.145   7.021 -0.2527 -0.0714 -0.6257
 4210SOL    HW118467   1.322   2.207   7.020  0.5124 -0.8925  0.7190
 4210SOL    HW218468   1.213   2.154   7.110  0.7238 -2.4584  0.0811
 4211SOL     OW18469   5.507   8.495   6.820  0.7385 -0.1368  0.2371
 4211SOL    HW118470   5.571   8.545   6.871  0.4072  1.3340 -0.7060
 4211SOL    HW218471   5.516   8.405   6.851  0.1856  0.7330  3.2333
 4212SOL     OW18472   5.300   1.729   2.045  0.0683 -0.6449 -0.5949
 4212SOL    HW118473   5.257   1.659   1.995  0.1122 -0.6563 -0.6178
 4212SOL    HW218474   5.342   1.783   1.978 -0.1536 -0.4697 -0.5898
 4213SOL     OW18475   2.101   2.376  10.362 -0.2063  0.3639  0.0115
 4213SOL    HW118476   2.065   2.386  10.450  1.7306 -1.4670  1.0962
 4213SOL    HW218477   2.092   2.283  10.343  0.2530  0.5838 -1.3731
 4214SOL     OW18478   5.901   8.424   3.511  0.1335 -0.2769  0.0246
 4214SOL    HW118479   5.938   8.347   3.554  2.0251  0.5952  0.0444
 4214SOL    HW218480   5.830   8.451   3.569  1.2893 -0.3570  1.5364
 4215SOL     OW18481   0.627  11.629   2.909 -0.2771 -0.2908  0.0745
 4215SOL    HW118482   0.702  11.676   2.946 -0.6331  0.5054 -0.2165
 4215SOL    HW218483   0.635  11.640   2.815 -1.0400  0.2340  0.0627
 4216SOL     OW18484   8.574   5.490  11.858  0.7802 -0.4762  0.1848
 4216SOL    HW118485   8.490   5.475  11.814  0.9844  1.8747 -1.2234
 4216SOL    HW218486   8.575   5.585  11.875  3.4286 -0.2923 -0.5116
 4217SOL     OW18487   3.894   0.629   1.983 -0.0133  0.0592  0.2113
 4217SOL    HW118488   3.807   0.664   2.005 -0.0297 -0.3697  0.8424
 4217SOL    HW218489   3.938   0.702   1.940 -0.7652  0.2126 -0.3199
 4218SOL     OW18490  10.680   3.759   2.956  0.9372  0.0162  0.4543
 4218SOL    HW118491  10.590   3.777   2.928  0.2887 -0.2576  2.2111
 4218SOL    HW218492  10.701   3.833   3.014  2.3964  0.8233 -1.0310
 4219SOL     OW18493  10.724   2.347   8.895 -0.2734 -0.8675 -0.3527
 4219SOL    HW118494  10.787   2.411   8.862  0.2166 -1.2875 -0.2423
 4219SOL    HW218495  10.640   2.376   8.859 -0.1274  0.0694  0.0364
 4220SOL     OW18496   4.738   8.795   6.181  0.0752 -0.3088 -0.3253
 4220SOL    HW118497   4.739   8.841   6.265 -1.8168  0.2573 -0.5699
 4220SOL    HW218498   4.830   8.783   6.159  0.6106 -0.2864  1.7242
 4221SOL     OW18499   1.993   2.669  11.226 -0.3940 -0.2253 -0.2686
 4221SOL    HW118500   1.946   2.695  11.305  0.1838 -0.0969  0.0390
 4221SOL    HW218501   1.993   2.573  11.229 -1.7686 -0.2853 -0.9586
 4222SOL     OW18502   1.765  11.951   9.595 -0.2979 -0.1006  0.0563
 4222SOL    HW118503   1.724  11.868   9.571  0.3575 -0.8061  1.2636
 4222SOL    HW218504   1.738  11.966   9.686 -0.4530  1.0452 -0.1597
 4223SOL     OW18505   2.482   2.828   2.777  0.4019  0.6236 -0.0465
 4223SOL    HW118506   2.466   2.747   2.825 -0.0233  0.8834  0.2592
 4223SOL    HW218507   2.546   2.876   2.829  2.1416 -0.3395 -1.1843
 4224SOL     OW18508  11.059   1.500   4.562 -0.0432  0.2190 -0.0437
 4224SOL    HW118509  11.142   1.454   4.547 -0.1199 -0.2212  0.7892
 4224SOL    HW218510  11.073   1.546   4.645 -0.8436 -0.3744  0.4289
 4225SOL     OW18511   2.955   7.254   1.606 -0.5861  0.4992  0.2266
 4225SOL    HW118512   2.973   7.348   1.598 -0.3160  0.5114  0.8838
 4225SOL    HW218513   3.032   7.219   1.652  0.6938 -0.5586 -2.5026
 4226SOL     OW18514  11.551   7.268  11.768  0.2210 -0.2450 -0.3242
 4226SOL    HW118515  11.567   7.204  11.837  1.1114  1.6018  1.2621
 4226SOL    HW218516  11.546   7.352  11.813  0.5843  1.0025 -2.4767
 4227SOL     OW18517   5.461   5.534  10.148 -0.0790  0.0372  0.0479
 4227SOL    HW118518   5.480   5.583  10.228  0.4003 -0.5915  0.3322
 4227SOL    HW218519   5.537   5.477  10.137 -1.3355 -1.8602  0.6704
 4228SOL     OW18520   7.990  10.292   3.069 -0.2008 -0.2313 -0.1091
 4228SOL    HW118521   8.070  10.300   3.120 -0.2309  0.1994 -0.1267
 4228SOL    HW218522   7.925  10.343   3.117 -0.7312 -1.3518  0.4201
 4229SOL     OW18523   8.546   3.302   0.004  0.3846  0.1654 -0.2157
 4229SOL    HW118524   8.627   3.320  -0.043  0.6510 -0.9236 -0.2176
 4229SOL    HW218525   8.476   3.324  -0.058  0.7257 -0.8739 -0.9973
 4230SOL     OW18526   7.716   0.788   6.645  0.2405  0.4215 -0.4283
 4230SOL    HW118527   7.761   0.857   6.596  0.9123 -0.7440 -1.5125
 4230SOL    HW218528   7.632   0.778   6.600  0.6795 -0.3492 -1.0967
 4231SOL     OW18529   0.445   6.101   1.715 -0.2454 -0.1356 -0.4288
 4231SOL    HW118530   0.532   6.128   1.746 -0.7015  0.0124  0.7584
 4231SOL    HW218531   0.384   6.143   1.775 -1.2907  1.7255 -2.6451
 4232SOL     OW18532   5.037   9.067   6.846  0.3303  0.1006  0.0316
 4232SOL    HW118533   5.090   9.049   6.924  0.9185  1.6426  0.0170
 4232SOL    HW218534   4.964   9.005   6.852  0.1494  0.4393  2.0185
 4233SOL     OW18535   6.156   0.370   0.729  0.3937 -0.1158 -0.5856
 4233SOL    HW118536   6.130   0.441   0.789 -0.1371  1.4927 -2.6175
 4233SOL    HW218537   6.168   0.294   0.786 -0.5128  1.2129  1.4997
 4234SOL     OW18538   8.704   4.340   0.369  0.1568  0.8847  0.0245
 4234SOL    HW118539   8.779   4.324   0.426 -0.3827  0.5483  0.6489
 4234SOL    HW218540   8.693   4.259   0.319  0.1167  0.8807  0.0400
 4235SOL     OW18541   5.322   4.827  11.378  0.0827 -0.0553  0.3592
 4235SOL    HW118542   5.346   4.771  11.305 -0.9435 -0.3348  0.2220
 4235SOL    HW218543   5.336   4.774  11.456  1.0102  0.1840  0.3660
 4236SOL     OW18544   4.336   3.036   7.544  1.0196  0.0623  0.6797
 4236SOL    HW118545   4.395   2.963   7.560  1.4956  0.4959  0.9358
 4236SOL    HW218546   4.359   3.067   7.456 -0.7766 -1.5548 -0.4581
 4237SOL     OW18547  11.579  10.546  10.770 -0.2617  0.1089 -0.0816
 4237SOL    HW118548  11.567  10.639  10.754  1.7088  0.3415 -0.5422
 4237SOL    HW218549  11.674  10.535  10.780 -0.5579 -1.6422  1.3691
 4238SOL     OW18550   4.994   0.495   3.909  0.3148 -0.1931  0.2414
 4238SOL    HW118551   5.084   0.521   3.932  0.6010 -0.5778 -0.4207
 4238SOL    HW218552   4.943   0.516   3.987  0.8238  0.8184  0.3256
 4239SOL     OW18553  11.413   2.584   1.164  0.4643 -0.4954 -0.0515
 4239SOL    HW118554  11.388   2.670   1.129  0.2395 -0.9053 -0.9240
 4239SOL    HW218555  11.361   2.522   1.113 -1.0696 -1.0565  2.0539
 4240SOL     OW18556   3.026  11.034   9.625 -0.4108 -0.0495  0.1381
 4240SOL    HW118557   2.967  11.109   9.623 -2.1864 -1.3972 -1.4783
 4240SOL    HW218558   3.033  11.012   9.718 -1.6195  0.7852  0.4540
 4241SOL     OW18559   4.993   2.107   8.375  0.0707 -0.1485  0.4078
 4241SOL    HW118560   5.078   2.071   8.350 -0.3530 -0.3973 -0.7271
 4241SOL    HW218561   5.012   2.198   8.398  0.7775 -0.4511  1.0803
 4242SOL     OW18562   3.635   4.935   7.121  0.1886 -0.1267  0.1022
 4242SOL    HW118563   3.673   4.898   7.201  0.0682  0.2569  0.3449
 4242SOL    HW218564   3.543   4.951   7.143 -0.5441 -2.4830 -0.9821
 4243SOL     OW18565   1.257   1.118  10.561  0.0614  0.3706 -0.2569
 4243SOL    HW118566   1.288   1.120  10.652 -0.3069  0.2923 -0.1278
 4243SOL    HW218567   1.224   1.207  10.545 -2.3571 -0.2852  0.5759
 4244SOL     OW18568   2.589   1.284   1.904  0.1746 -0.3086 -0.4392
 4244SOL    HW118569   2.558   1.324   1.986  0.0032 -2.2501  0.4911
 4244SOL    HW218570   2.509   1.265   1.855  0.1662 -0.8157 -0.2335
 4245SOL     OW18571  12.304   4.834   3.865 -0.2358 -0.2222  0.6458
 4245SOL    HW118572  12.310   4.889   3.943  0.0105  2.5878 -1.2262
 4245SOL    HW218573  12.211   4.819   3.853 -0.2301 -2.0939  2.2875
 4246SOL     OW18574  10.835   1.967   5.988  0.3942  0.0638  0.1890
 4246SOL    HW118575  10.789   1.983   6.070  0.9795  1.4809  0.2717
 4246SOL    HW218576  10.873   1.880   5.999  0.8640  0.4170  1.6215
 4247SOL     OW18577  11.754   1.658   1.595 -0.1637  0.3847 -0.2057
 4247SOL    HW118578  11.745   1.600   1.671  0.8772  1.2281  0.6006
 4247SOL    HW218579  11.728   1.604   1.520  1.6810 -1.4398  0.3742
 4248SOL     OW18580   6.211   8.905  10.318 -0.5146  0.0925 -0.3740
 4248SOL    HW118581   6.254   8.824  10.293 -0.3996  0.1175 -0.2600
 4248SOL    HW218582   6.277   8.953  10.369 -0.5547  0.2897 -0.5051
 4249SOL     OW18583   7.625   4.247   5.463  0.1379 -0.2126 -0.4965
 4249SOL    HW118584   7.542   4.268   5.505  0.3966  0.1754 -0.1739
 4249SOL    HW218585   7.657   4.331   5.430  1.0232 -0.1350  0.5209
 4250SOL     OW18586   0.734  10.217   4.072 -0.6709 -0.3114  0.4709
 4250SOL    HW118587   0.662  10.280   4.074  0.6589  1.3866 -1.0125
 4250SOL    HW218588   0.704  10.147   4.014 -1.2963  0.1512  0.2299
 4251SOL     OW18589   0.460   6.487   0.187 -0.1717  0.6180 -0.0564
 4251SOL    HW118590   0.490   6.568   0.145 -0.1001  2.5031  3.2675
 4251SOL    HW218591   0.539   6.450   0.226 -0.1912 -1.1979 -1.6176
 4252SOL     OW18592   9.957  12.093   4.894  0.0248  0.2707  0.6321
 4252SOL    HW118593   9.986  12.037   4.966 -0.8942  1.1254  1.6927
 4252SOL    HW218594   9.905  12.035   4.839  0.0530 -0.2010  1.0900
 4253SOL     OW18595   6.556   4.949  12.108  0.9029 -0.1068 -0.1494
 4253SOL    HW118596   6.604   4.896  12.172  2.4138 -0.2440 -1.3074
 4253SOL    HW218597   6.573   4.905  12.024 -2.4380 -0.9420 -0.5113
 4254SOL     OW18598   4.446   4.938   5.959  0.1265 -0.3579 -0.0448
 4254SOL    HW118599   4.361   4.969   5.991  0.4964 -0.8142  1.4864
 4254SOL    HW218600   4.496   5.018   5.941 -0.4518 -0.0899 -0.5031
 4255SOL     OW18601   4.597   3.849   8.190 -0.1052 -0.3536 -0.4075
 4255SOL    HW118602   4.548   3.814   8.115 -0.4917 -0.1840 -0.2354
 4255SOL    HW218603   4.676   3.887   8.151 -0.7087  0.4938 -0.8286
 4256SOL     OW18604   2.904   1.989   8.559  0.1160  0.9100 -0.2383
 4256SOL    HW118605   2.833   1.992   8.496  0.0940  0.4941 -0.2354
 4256SOL    HW218606   2.866   2.022   8.641 -0.8048 -1.6491  0.4490
 4257SOL     OW18607   6.319  10.646  11.532  0.2271  0.1947 -0.3907
 4257SOL    HW118608   6.284  10.662  11.619 -0.1514  2.7644 -0.9470
 4257SOL    HW218609   6.411  10.668  11.538 -0.0463  1.5727 -0.8820
 4258SOL     OW18610   1.848   3.264   3.916 -0.4618 -0.0126  0.0306
 4258SOL    HW118611   1.795   3.281   3.838 -0.3537  2.3051  0.3924
 4258SOL    HW218612   1.938   3.263   3.885 -0.3902  1.3134  0.1515
 4259SOL     OW18613   9.735   3.375  11.841 -0.0043  0.1476  0.7016
 4259SOL    HW118614   9.806   3.438  11.847  0.0894 -0.0460  1.9438
 4259SOL    HW218615   9.681   3.406  11.769  1.4926  0.1338 -0.4659
 4260SOL     OW18616   6.126   2.454   6.840  0.2874 -0.2870  0.0348
 4260SOL    HW118617   6.124   2.378   6.782 -2.8192 -1.6123  1.6948
 4260SOL    HW218618   6.069   2.518   6.797  0.4592 -0.0527  0.1504
 4261SOL     OW18619  11.089   2.185   5.010  0.1207  0.7215  0.2246
 4261SOL    HW118620  11.008   2.149   5.046  0.2189  0.6322  0.3604
 4261SOL    HW218621  11.065   2.219   4.925  0.1716 -0.3173 -0.2228
 4262SOL     OW18622   5.759   9.491   6.040  0.1012 -0.4900  0.4865
 4262SOL    HW118623   5.737   9.576   6.001  0.9714 -0.7878 -0.7295
 4262SOL    HW218624   5.679   9.439   6.030 -0.2200 -0.0343  0.6322
 4263SOL     OW18625   9.054  11.398  12.238 -0.0251 -0.0588 -0.4968
 4263SOL    HW118626   9.039  11.448  12.158  0.2452  0.2929 -0.3338
 4263SOL    HW218627   9.096  11.460  12.297 -2.7273  0.5864  0.9391
 4264SOL     OW18628  10.559   9.828   1.973 -0.4683  0.1277 -0.4376
 4264SOL    HW118629  10.585   9.878   1.896 -0.8547 -0.7930 -1.1880
 4264SOL    HW218630  10.502   9.759   1.939 -2.2337  0.8329  0.8947
 4265SOL     OW18631  11.488   4.497   6.732  0.0172 -0.1846 -0.1101
 4265SOL    HW118632  11.514   4.454   6.814  1.1045 -0.3111 -0.5131
 4265SOL    HW218633  11.523   4.441   6.663  0.6372  0.8364 -0.6534
 4266SOL     OW18634   9.549   8.775   5.871 -0.0032  0.2782  0.3241
 4266SOL    HW118635   9.457   8.796   5.886  0.0654 -0.0741  1.3344
 4266SOL    HW218636   9.550   8.726   5.789 -0.5419  1.4323 -0.3928
 4267SOL     OW18637  11.646   1.013   2.623  0.0905 -0.4553 -0.1921
 4267SOL    HW118638  11.689   0.930   2.642 -1.3145 -0.9695  0.9538
 4267SOL    HW218639  11.656   1.064   2.704  0.1163  0.1159 -0.5498
 4268SOL     OW18640   7.355  11.579   6.134 -0.4538  0.2887 -0.3151
 4268SOL    HW118641   7.282  11.621   6.180  0.4897  2.4313 -0.6743
 4268SOL    HW218642   7.320  11.558   6.047 -1.2827 -0.8180  0.2576
 4269SOL     OW18643  11.352   8.757   2.009 -0.0564  0.7090 -0.2964
 4269SOL    HW118644  11.301   8.687   2.050 -0.6530 -0.6832 -3.1671
 4269SOL    HW218645  11.403   8.713   1.941  1.3902  2.7582 -0.6264
 4270SOL     OW18646   6.491   3.438   3.799  0.5606 -0.1812  0.3179
 4270SOL    HW118647   6.414   3.385   3.775 -0.9660  1.0632  2.1614
 4270SOL    HW218648   6.517   3.480   3.717 -0.6815 -0.7116 -0.3850
 4271SOL     OW18649  10.089  10.444   7.201 -0.5645 -0.6305 -0.3114
 4271SOL    HW118650  10.120  10.370   7.253  0.5957  0.8322  1.1976
 4271SOL    HW218651  10.007  10.414   7.162 -0.1843 -2.6431  0.3241
 4272SOL     OW18652   7.610   1.321   7.760  0.0515 -0.0812 -0.1715
 4272SOL    HW118653   7.566   1.283   7.684  1.5219 -1.5657 -0.3359
 4272SOL    HW218654   7.694   1.277   7.763 -0.2423 -0.6021  2.7555
 4273SOL     OW18655   1.795   7.175   2.319 -0.3008 -0.0666  0.4626
 4273SOL    HW118656   1.812   7.176   2.413 -0.7068 -0.4461  0.5415
 4273SOL    HW218657   1.739   7.098   2.305  1.9440 -1.6646 -0.4598
 4274SOL     OW18658   5.854  10.264   3.478 -0.0955 -0.0279 -0.3628
 4274SOL    HW118659   5.778  10.265   3.537 -0.9526  0.4297 -1.4416
 4274SOL    HW218660   5.895  10.178   3.494  1.2677  1.0284  2.7780
 4275SOL     OW18661   1.898   7.922   8.576  0.0447  0.0772  0.1263
 4275SOL    HW118662   1.953   7.938   8.653 -0.7122  0.9800  0.4974
 4275SOL    HW218663   1.820   7.976   8.590 -0.3352 -0.1368 -1.0385
 4276SOL     OW18664   8.427   2.804   3.369 -0.0699 -0.1063 -0.2931
 4276SOL    HW118665   8.370   2.736   3.405  0.4858 -0.5683 -0.2760
 4276SOL    HW218666   8.378   2.885   3.381 -1.2838 -0.6344 -1.4313
 4277SOL     OW18667   2.835   8.803   6.833 -0.0550  0.4464  0.1491
 4277SOL    HW118668   2.774   8.729   6.835 -1.1825  1.3043 -0.8165
 4277SOL    HW218669   2.780   8.880   6.820  1.3166  1.0124 -3.7812
 4278SOL     OW18670   1.856  10.241  10.301  0.3791  0.8370 -0.1991
 4278SOL    HW118671   1.869  10.331  10.268  1.1808  0.8044  0.0176
 4278SOL    HW218672   1.821  10.253  10.389  0.6658  0.9433 -0.0971
 4279SOL     OW18673   8.496   2.936   5.403  0.1925 -0.5987 -0.1528
 4279SOL    HW118674   8.468   3.008   5.347 -0.4301  0.4107  1.3804
 4279SOL    HW218675   8.421   2.877   5.405  0.4835 -1.0155 -0.9264
 4280SOL     OW18676   7.165   7.418   8.519  0.0924 -0.3159  0.7782
 4280SOL    HW118677   7.091   7.417   8.458 -0.1416  2.2259  0.9053
 4280SOL    HW218678   7.221   7.489   8.487  0.1165  0.9018  3.2871
 4281SOL     OW18679   4.825   4.656   4.908  0.2748  0.0129  0.1390
 4281SOL    HW118680   4.844   4.680   4.818 -1.4011 -1.1486 -0.5641
 4281SOL    HW218681   4.792   4.566   4.903  1.3876 -0.5769  2.0783
 4282SOL     OW18682  10.778   7.255   3.712  0.2084 -0.1363  0.4428
 4282SOL    HW118683  10.762   7.347   3.691 -1.5921 -0.6106 -0.4392
 4282SOL    HW218684  10.840   7.225   3.645 -1.3483 -0.2302 -1.0429
 4283SOL     OW18685   4.911   9.251   8.480  0.2470 -0.1503  0.4343
 4283SOL    HW118686   4.866   9.193   8.419  0.3365  0.9652 -0.7540
 4283SOL    HW218687   4.855   9.253   8.558  0.7395 -2.5300  0.9064
 4284SOL     OW18688   1.016  10.427   2.411 -0.2711 -0.3091 -0.5925
 4284SOL    HW118689   0.933  10.475   2.422 -0.5847 -0.9102 -0.2446
 4284SOL    HW218690   0.995  10.358   2.348 -0.2100 -0.8598 -0.0159
 4285SOL     OW18691   6.464   0.340  10.617  0.0079  0.3263 -1.0595
 4285SOL    HW118692   6.544   0.308  10.575  0.0232 -1.0169 -0.0647
 4285SOL    HW218693   6.395   0.285  10.581  0.1685 -1.6951  1.4547
 4286SOL     OW18694   5.505   9.751   4.517  0.2677  0.5934 -0.0076
 4286SOL    HW118695   5.486   9.837   4.480 -0.5984  0.2208 -0.4570
 4286SOL    HW218696   5.585   9.764   4.569 -0.0682  1.7477  0.2469
 4287SOL     OW18697   3.597   2.172   1.536  0.1560 -0.7011  0.3235
 4287SOL    HW118698   3.503   2.182   1.522 -0.1181 -1.2889  1.5981
 4287SOL    HW218699   3.625   2.254   1.576  0.3181 -0.2823 -0.6296
 4288SOL     OW18700   8.760   2.421   9.923  0.3221  0.1618 -0.3678
 4288SOL    HW118701   8.789   2.468  10.002 -0.2506 -0.2128  0.0689
 4288SOL    HW218702   8.721   2.340   9.956  0.4608 -0.1968 -1.0636
 4289SOL     OW18703  11.361  12.132   3.525  0.0041 -0.9781  0.4319
 4289SOL    HW118704  11.363  12.141   3.429  0.6918  0.9629  0.5770
 4289SOL    HW218705  11.277  12.169   3.550 -1.0899 -3.3486  0.4855
 4290SOL     OW18706   3.187  11.316   3.088 -0.0614  0.4703  0.3892
 4290SOL    HW118707   3.125  11.372   3.136 -0.8972 -0.0409 -0.0669
 4290SOL    HW218708   3.247  11.284   3.155  0.0605  1.4194  0.7550
 4291SOL     OW18709  10.129   9.554  11.992  0.4161  0.9385 -0.2368
 4291SOL    HW118710  10.053   9.568  12.048 -0.4654  0.4442 -1.2700
 4291SOL    HW218711  10.189   9.501  12.045 -0.1807  0.9029  0.4077
 4292SOL     OW18712   8.939   5.839   8.070 -0.4686  0.6709  0.3088
 4292SOL    HW118713   8.870   5.849   8.135 -0.5745  0.6391  0.2022
 4292SOL    HW218714   8.961   5.929   8.045 -0.4745  0.6807  0.3380
 4293SOL     OW18715   4.749   0.663  11.202  0.4235 -0.5982  0.0077
 4293SOL    HW118716   4.777   0.720  11.273  2.3459 -0.0128 -1.1245
 4293SOL    HW218717   4.825   0.660  11.143 -0.9902 -1.2622 -1.8781
 4294SOL     OW18718  10.457   2.781   1.992 -0.4992 -0.2938 -0.3033
 4294SOL    HW118719  10.475   2.875   1.994 -0.3120 -0.3021 -1.4039
 4294SOL    HW218720  10.474   2.752   2.082 -0.5294  0.7143  0.0371
 4295SOL     OW18721   2.828   3.589   6.482  0.0191  0.2326  0.5881
 4295SOL    HW118722   2.768   3.520   6.454 -0.0940  1.0724 -1.3808
 4295SOL    HW218723   2.777   3.669   6.478  0.4810  0.6037  1.7323
 4296SOL     OW18724   7.533  12.150   6.502  0.0149  0.3458 -0.2094
 4296SOL    HW118725   7.495  12.074   6.547 -1.2268  1.0970  0.0580
 4296SOL    HW218726   7.461  12.213   6.497  1.4163  2.1758  1.0576
 4297SOL     OW18727   6.564   2.249  11.216 -0.0560  0.0930 -0.1265
 4297SOL    HW118728   6.595   2.174  11.266  0.0502  1.0150  1.2324
 4297SOL    HW218729   6.592   2.231  11.126  2.2767 -0.2603  0.6244
 4298SOL     OW18730   6.476   9.081   1.478 -0.0664  0.2449  0.1545
 4298SOL    HW118731   6.519   9.166   1.486  0.4080 -0.0906  1.5505
 4298SOL    HW218732   6.410   9.093   1.410  0.6286  1.4574 -0.3265
 4299SOL     OW18733   7.251   1.194   6.938 -0.2098 -0.3653 -0.6407
 4299SOL    HW118734   7.251   1.255   6.865  0.4054 -1.1487 -1.3174
 4299SOL    HW218735   7.339   1.199   6.975  0.4305 -2.0512 -1.7865
 4300SOL     OW18736  10.749   6.976   0.625  0.4474  0.1404  0.3489
 4300SOL    HW118737  10.785   6.901   0.578 -0.9888  0.4430 -1.3565
 4300SOL    HW218738  10.825   7.031   0.643  1.3562 -1.1115  0.4912
 4301SOL     OW18739   8.231   3.790   9.040 -0.0171 -0.0903 -0.1630
 4301SOL    HW118740   8.316   3.748   9.027 -0.5022 -0.7222 -1.3953
 4301SOL    HW218741   8.249   3.859   9.105  1.6848  0.5528 -1.2325
 4302SOL     OW18742   2.407   1.269   3.059 -0.1796 -0.1131  0.0061
 4302SOL    HW118743   2.353   1.207   3.107 -0.5259  0.3429  0.2128
 4302SOL    HW218744   2.490   1.223   3.043  0.7503  0.4087  2.8284
 4303SOL     OW18745   2.913   9.394   1.432 -0.3322 -0.2621 -0.1020
 4303SOL    HW118746   2.892   9.395   1.339 -0.5017  0.4527 -0.0569
 4303SOL    HW218747   2.996   9.440   1.439 -1.3266  1.5310  0.3315
 4304SOL     OW18748   2.042   1.470   9.399  0.1855 -0.0260  0.4102
 4304SOL    HW118749   2.019   1.563   9.403 -0.3723 -0.1698  0.6142
 4304SOL    HW218750   2.106   1.458   9.469 -1.3537 -0.2352  1.8253
 4305SOL     OW18751   3.204   0.362   7.008 -0.0045 -0.3691 -0.3898
 4305SOL    HW118752   3.232   0.449   7.037  0.3064  0.3179 -2.5670
 4305SOL    HW218753   3.286   0.316   6.987 -0.1082 -1.5468  1.4953
 4306SOL     OW18754   4.102   5.993   9.727 -0.4758 -0.0656 -0.0869
 4306SOL    HW118755   4.069   6.014   9.815  1.2701  0.4899  0.4734
 4306SOL    HW218756   4.097   6.076   9.679 -1.1508 -0.2994 -0.4300
 4307SOL     OW18757   2.427  10.468   8.968 -0.4571  0.1685 -0.0298
 4307SOL    HW118758   2.387  10.382   8.962  0.7359 -0.3875 -0.1865
 4307SOL    HW218759   2.354  10.527   8.985 -1.2732 -0.8840  0.2076
 4308SOL     OW18760   5.739  10.512   4.637  0.0173 -0.2503 -0.7305
 4308SOL    HW118761   5.789  10.531   4.559 -0.1469 -0.0006 -0.7745
 4308SOL    HW218762   5.801  10.522   4.709  0.1008 -0.2230 -0.8071
 4309SOL     OW18763   9.503   3.594   9.233 -0.4987  0.1758 -0.2471
 4309SOL    HW118764   9.408   3.606   9.243 -0.2045  1.5105  1.3235
 4309SOL    HW218765   9.519   3.503   9.256 -1.3563  0.0290 -0.1994
 4310SOL     OW18766   2.812   3.715   7.175 -0.2422  0.3972  0.1877
 4310SOL    HW118767   2.737   3.674   7.132  1.4633 -0.8010 -1.8238
 4310SOL    HW218768   2.886   3.698   7.117  2.0071 -0.1582  2.9770
 4311SOL     OW18769  10.182   2.052   0.338 -0.0771  0.2970 -0.0904
 4311SOL    HW118770  10.102   2.097   0.309  1.2113  2.6084 -0.2698
 4311SOL    HW218771  10.170   2.042   0.432 -1.1552 -0.6546 -0.3061
 4312SOL     OW18772   9.803   3.974   1.998  0.2502  0.2140 -0.0316
 4312SOL    HW118773   9.801   3.902   1.935  0.8108  0.4396 -0.3216
 4312SOL    HW218774   9.812   3.932   2.083  2.4766 -0.0465 -0.3324
 4313SOL     OW18775   5.347   4.054  10.661 -0.4024  0.2855 -0.3453
 4313SOL    HW118776   5.406   3.979  10.651  1.1029  1.4301 -0.4630
 4313SOL    HW218777   5.261   4.015  10.675  0.2518 -1.4581 -0.8633
 4314SOL     OW18778   2.887   7.415   6.475 -0.4791 -0.1065  0.0782
 4314SOL    HW118779   2.915   7.374   6.393  1.3467  0.3240  0.4540
 4314SOL    HW218780   2.939   7.371   6.542 -0.5144  0.9139  0.7856
 4315SOL     OW18781   1.535   4.882   3.191  0.6584 -0.5189  0.1497
 4315SOL    HW118782   1.569   4.793   3.184  1.8023 -0.0885  0.1390
 4315SOL    HW218783   1.502   4.901   3.103  0.5315 -0.8736  0.1167
 4316SOL     OW18784   2.937  11.064  11.163 -0.2480 -0.4484  0.3911
 4316SOL    HW118785   2.851  11.022  11.168  0.9451 -3.1626  0.2103
 4316SOL    HW218786   2.971  11.059  11.253 -0.2543  0.5776  0.4562
 4317SOL     OW18787  12.329   2.075   6.541  0.3072  0.4063  0.3093
 4317SOL    HW118788  12.423   2.088   6.556 -0.0633  2.1391  1.3763
 4317SOL    HW218789  12.289   2.159   6.560 -1.4070 -0.0455 -0.9893
 4318SOL     OW18790   1.202   4.216   7.583 -0.0953 -0.3480 -0.0264
 4318SOL    HW118791   1.173   4.131   7.618  0.0644 -1.0093 -1.4266
 4318SOL    HW218792   1.193   4.207   7.488 -2.2418  2.0217 -0.1203
 4319SOL     OW18793  12.071  11.274   9.064  0.2208 -0.3694  0.1730
 4319SOL    HW118794  12.015  11.294   8.989  1.2220 -1.9621 -1.0727
 4319SOL    HW218795  12.026  11.201   9.108  0.9449 -1.2205 -0.4589
 4320SOL     OW18796   9.594   2.599  10.988 -0.1871  0.6268  0.0393
 4320SOL    HW118797   9.577   2.659  10.916  0.6844  0.8924  0.0392
 4320SOL    HW218798   9.532   2.624  11.056  0.0767  1.4414 -0.0125
 4321SOL     OW18799   9.725   9.358   2.472  0.0030 -0.2197  0.6508
 4321SOL    HW118800   9.819   9.339   2.481 -0.3530 -1.8527  1.2697
 4321SOL    HW218801   9.683   9.272   2.479 -1.4710  0.3416 -0.8783
 4322SOL     OW18802   5.751   0.011   0.095 -0.1781  0.2782 -0.0886
 4322SOL    HW118803   5.656   0.020   0.095 -0.1276  0.9037  0.3604
 4322SOL    HW218804   5.773  -0.010   0.186 -0.0412 -1.8530 -0.5603
 4323SOL     OW18805   3.111   8.111  11.715 -0.0926  0.6442 -0.3614
 4323SOL    HW118806   3.018   8.102  11.740  0.3656 -0.5041  1.1045
 4323SOL    HW218807   3.139   8.022  11.697  0.9842  0.8530  0.2300
 4324SOL     OW18808   7.018   4.520   0.070  0.3665  0.1212 -0.0722
 4324SOL    HW118809   7.022   4.497  -0.023 -1.6566  3.6776 -1.2341
 4324SOL    HW218810   7.074   4.598   0.078 -0.6886  0.7825  1.3239
 4325SOL     OW18811   1.953   9.001   0.309 -0.1890  0.0118  0.4238
 4325SOL    HW118812   1.925   9.061   0.378 -1.0947  1.0029 -0.7522
 4325SOL    HW218813   2.002   9.056   0.248  0.3847 -0.7875  0.1571
 4326SOL     OW18814  10.111   6.519   5.984  0.3584  0.4292 -0.8608
 4326SOL    HW118815  10.180   6.517   6.050 -0.1143 -0.3204 -0.3633
 4326SOL    HW218816  10.151   6.482   5.906  0.3985 -0.4457 -0.4401
 4327SOL     OW18817   8.248   3.502   3.132 -0.6657 -0.4095 -0.1967
 4327SOL    HW118818   8.190   3.556   3.078 -0.0813 -0.1561 -0.5782
 4327SOL    HW218819   8.281   3.561   3.200 -0.2867 -0.3616 -0.4172
 4328SOL     OW18820   4.949   3.319   7.196  0.0981  0.3101 -0.2411
 4328SOL    HW118821   5.010   3.261   7.241  0.3584  1.2709  0.6820
 4328SOL    HW218822   5.003   3.390   7.162 -0.3350  0.4890 -0.5781
 4329SOL     OW18823   9.469   7.130   6.250  0.0753  0.5628  0.7304
 4329SOL    HW118824   9.425   7.088   6.176  1.1375  0.1429  0.3187
 4329SOL    HW218825   9.403   7.132   6.320 -1.3283  1.9473 -0.5342
 4330SOL     OW18826   9.271   0.410   3.107  0.1361  0.5629 -0.1036
 4330SOL    HW118827   9.280   0.348   3.034 -2.0621 -0.1491  0.1281
 4330SOL    HW218828   9.183   0.393   3.141  1.4448  0.0912  3.4616
 4331SOL     OW18829   6.026   7.446   3.640  0.0429 -0.8589  0.4669
 4331SOL    HW118830   6.108   7.397   3.632  0.0575 -0.7278 -0.1939
 4331SOL    HW218831   6.052   7.538   3.633 -0.1801 -0.8258  0.0440
 4332SOL     OW18832   6.259   9.967   7.504 -0.0100 -0.0064 -0.4202
 4332SOL    HW118833   6.245   9.879   7.539 -0.5598 -0.0716 -0.7868
 4332SOL    HW218834   6.354   9.973   7.490  0.0385 -0.5087 -0.3158
 4333SOL     OW18835   1.961   4.437   2.116  0.5812 -0.4158 -0.7039
 4333SOL    HW118836   1.946   4.353   2.159 -0.8408 -0.0488 -0.4213
 4333SOL    HW218837   1.888   4.492   2.145  1.2802  0.8038 -1.1779
 4334SOL     OW18838   8.185   9.704   4.274 -0.1676  0.8179 -0.3977
 4334SOL    HW118839   8.256   9.746   4.225 -0.4008 -0.1906 -1.6307
 4334SOL    HW218840   8.105   9.730   4.229 -0.4112  0.1329 -0.3720
 4335SOL     OW18841   3.272   3.600  11.924 -0.0591  0.0892 -0.0141
 4335SOL    HW118842   3.302   3.690  11.917  0.6584  0.1001  2.3112
 4335SOL    HW218843   3.182   3.607  11.956 -0.9634 -0.0362 -2.3363
 4336SOL     OW18844   0.412   3.838   3.260  0.1228  0.0080  0.4056
 4336SOL    HW118845   0.483   3.878   3.311 -0.5489  0.4463  1.0106
 4336SOL    HW218846   0.455   3.769   3.210  1.4957  1.9937 -1.3323
 4337SOL     OW18847   7.505   3.241   8.658 -0.3180 -0.5022  0.5682
 4337SOL    HW118848   7.507   3.159   8.706  2.5570 -1.0920 -0.3635
 4337SOL    HW218849   7.534   3.307   8.722 -1.6786 -0.3473  1.0471
 4338SOL     OW18850  11.026  10.796   0.869 -0.1882  0.3140 -0.5682
 4338SOL    HW118851  11.062  10.814   0.783  0.8242  0.4154 -0.1347
 4338SOL    HW218852  11.054  10.869   0.924 -0.3908 -0.0007 -0.0260
 4339SOL     OW18853   5.592   8.015   4.864 -0.4554 -0.9066 -0.2010
 4339SOL    HW118854   5.640   8.081   4.814 -1.4575  0.2519  0.3093
 4339SOL    HW218855   5.653   7.987   4.933 -0.3555  0.2239  0.1803
 4340SOL     OW18856   3.020  11.427   3.284 -0.0917  0.3839 -0.0379
 4340SOL    HW118857   2.930  11.448   3.260  0.2556  0.1773 -1.6554
 4340SOL    HW218858   3.058  11.512   3.310 -0.2805  0.7892 -1.0313
 4341SOL     OW18859   7.476  10.113  11.367 -0.2009 -0.0655  0.4375
 4341SOL    HW118860   7.426  10.049  11.316  0.5773 -2.1311  2.1137
 4341SOL    HW218861   7.530  10.060  11.426  1.5791  2.1438  0.9330
 4342SOL     OW18862   8.169   3.017  11.611 -0.4263  0.0801  0.1071
 4342SOL    HW118863   8.159   3.075  11.536 -0.4577 -0.5635 -0.3987
 4342SOL    HW218864   8.094   3.037  11.667 -0.6792  0.2154 -0.2748
 4343SOL     OW18865  10.836   9.472   5.722 -0.1352  0.0921 -0.4618
 4343SOL    HW118866  10.878   9.391   5.694 -0.1320 -0.0757  0.0354
 4343SOL    HW218867  10.898   9.513   5.781 -0.5312 -0.0023  0.0297
 4344SOL     OW18868   2.945   3.289   1.990 -0.6218  0.3345  0.0976
 4344SOL    HW118869   3.004   3.234   2.040 -0.8637 -0.2523 -0.2571
 4344SOL    HW218870   2.884   3.325   2.054  0.1746  1.0416  0.4864
 4345SOL     OW18871   2.415   0.974   8.441 -0.4248  0.1883 -0.3143
 4345SOL    HW118872   2.475   0.923   8.496  0.5360  0.2963 -1.2288
 4345SOL    HW218873   2.464   1.052   8.417 -0.2085 -0.5623 -2.5711
 4346SOL     OW18874  10.995   2.984   1.143 -0.1185  0.3542  0.0822
 4346SOL    HW118875  10.963   2.896   1.121  0.9319  0.0129 -0.1043
 4346SOL    HW218876  10.920   3.041   1.126 -0.4071 -0.3359 -1.0909
 4347SOL     OW18877   9.607   7.729   2.180  0.1535  0.2075  0.4928
 4347SOL    HW118878   9.698   7.757   2.188  0.1985  0.1945  0.0305
 4347SOL    HW218879   9.562   7.803   2.139 -0.1145  0.3468  1.0350
 4348SOL     OW18880   3.122   7.422   5.710 -0.0683 -0.0521 -0.0889
 4348SOL    HW118881   3.153   7.452   5.795 -1.3728 -2.6004  1.3843
 4348SOL    HW218882   3.192   7.447   5.649  0.4385  2.7681  1.4727
 4349SOL     OW18883   6.101   4.009   2.865 -0.6694 -0.0470 -0.3794
 4349SOL    HW118884   6.110   3.941   2.798 -0.4289  0.2256 -0.6292
 4349SOL    HW218885   6.078   3.962   2.945  1.8824 -0.7254  0.0443
 4350SOL     OW18886  11.598  11.783   6.431  0.5058 -0.2574 -0.1451
 4350SOL    HW118887  11.515  11.738   6.447  1.3101 -1.2626  1.5103
 4350SOL    HW218888  11.649  11.720   6.381  1.2450 -0.8180  1.2525
 4351SOL     OW18889   6.417   5.823   5.928 -0.4670 -0.3957  0.5830
 4351SOL    HW118890   6.370   5.892   5.881 -0.3009 -0.8062 -0.1928
 4351SOL    HW218891   6.351   5.785   5.987 -1.2185 -1.1783 -0.7141
 4352SOL     OW18892   8.260   9.047   9.636  0.5402  0.3115 -0.4293
 4352SOL    HW118893   8.316   9.124   9.627  0.2434  0.4394 -1.3726
 4352SOL    HW218894   8.186   9.065   9.577 -0.9994  0.5664  1.4994
 4353SOL     OW18895  11.044   8.590   0.958 -0.2054 -0.0189  0.2534
 4353SOL    HW118896  10.986   8.624   1.026 -1.4096 -0.1572 -0.6716
 4353SOL    HW218897  11.042   8.657   0.890 -1.4004 -1.2118 -0.9291
 4354SOL     OW18898   2.392   9.773   4.508  0.2287 -0.2527  0.2087
 4354SOL    HW118899   2.444   9.718   4.449 -0.8933 -1.3831  0.2295
 4354SOL    HW218900   2.359   9.844   4.453  2.0175  0.6851  0.2634
 4355SOL     OW18901   5.525   9.398  11.809  0.0033 -0.7376 -0.7559
 4355SOL    HW118902   5.436   9.381  11.777  0.1309 -2.3978 -0.3264
 4355SOL    HW218903   5.576   9.412  11.729 -0.8309  1.5384 -0.9724
 4356SOL     OW18904   2.637  10.227   5.911  0.2529  0.6257  0.1146
 4356SOL    HW118905   2.665  10.171   5.839 -0.7168  0.9890 -0.5661
 4356SOL    HW218906   2.609  10.308   5.869  0.2370  1.0615  0.9557
 4357SOL     OW18907   6.535   5.231   5.484 -0.1469  0.3882  0.1441
 4357SOL    HW118908   6.541   5.172   5.409  1.8414 -0.6923  1.0741
 4357SOL    HW218909   6.528   5.318   5.446 -0.1275 -0.2058 -1.2871
 4358SOL     OW18910   9.095   3.331   4.075  0.2503  0.4867 -0.3507
 4358SOL    HW118911   9.131   3.417   4.100  1.9280 -0.3989  0.4784
 4358SOL    HW218912   9.169   3.286   4.033  0.3320 -1.5760  1.7847
 4359SOL     OW18913  10.108  10.182   7.312  0.2699  0.1539  0.0772
 4359SOL    HW118914  10.197  10.148   7.324  0.3732  0.1876 -0.5563
 4359SOL    HW218915  10.054  10.130   7.372  0.8621  0.8234  1.2243
 4360SOL     OW18916  10.242   9.404   3.564 -0.1277 -0.1329 -0.3121
 4360SOL    HW118917  10.175   9.411   3.632  0.3811  0.4507  0.1399
 4360SOL    HW218918  10.294   9.327   3.589  0.7249  0.7037  0.5848
 4361SOL     OW18919   0.376   1.667   0.299  0.0344 -0.0290  0.2199
 4361SOL    HW118920   0.326   1.668   0.218 -1.0128 -0.0911  0.8487
 4361SOL    HW218921   0.385   1.759   0.324  0.5395  0.0035 -0.0671
 4362SOL     OW18922   7.879   8.922   5.127 -0.1414  0.5928 -0.2413
 4362SOL    HW118923   7.885   8.837   5.085 -0.2268  0.9546 -0.9922
 4362SOL    HW218924   7.800   8.917   5.181 -0.5081  0.4207 -0.7947
 4363SOL     OW18925  11.163   0.629  12.109 -0.3686  0.0217  0.3930
 4363SOL    HW118926  11.129   0.543  12.136  0.7509 -0.3068  0.8216
 4363SOL    HW218927  11.163   0.625  12.013 -0.8047 -0.2674  0.4026
 4364SOL     OW18928   7.403   1.140   4.254 -0.1556 -0.4554  0.6685
 4364SOL    HW118929   7.337   1.074   4.277  1.0428 -1.6074  0.8974
 4364SOL    HW218930   7.352   1.213   4.217 -1.5267 -1.4285  0.5689
 4365SOL     OW18931   7.214   0.691   3.477  0.0546 -0.1378 -0.2462
 4365SOL    HW118932   7.269   0.726   3.407  1.0778 -0.3034  0.4628
 4365SOL    HW218933   7.187   0.768   3.527  0.5169 -0.1491  0.0267
 4366SOL     OW18934   3.025   1.080  10.552 -0.5461 -0.6852  0.3830
 4366SOL    HW118935   3.028   1.167  10.511 -2.3673 -0.2249  1.1497
 4366SOL    HW218936   3.019   1.097  10.646  2.0126 -1.7209  0.8145
 4367SOL     OW18937  10.348  12.255   2.329 -0.0043  0.0791  0.0088
 4367SOL    HW118938  10.361  12.221   2.240 -0.9921  1.8189 -0.8683
 4367SOL    HW218939  10.429  12.304   2.348  1.1933 -2.1736  1.0613
 4368SOL     OW18940   0.519  11.059   9.042 -0.0639  0.2953 -0.4543
 4368SOL    HW118941   0.474  10.981   9.011  1.0821 -0.5831  0.0452
 4368SOL    HW218942   0.530  11.113   8.963 -0.7277 -0.1053 -0.8320
 4369SOL     OW18943  12.162   0.072  11.678 -0.6820  0.5065  0.4514
 4369SOL    HW118944  12.217   0.067  11.756  0.0795 -0.6381 -0.1118
 4369SOL    HW218945  12.093   0.008  11.693 -2.4451  2.5444  1.5268
 4370SOL     OW18946   0.704   7.393   2.769  0.0508 -0.1958 -0.2244
 4370SOL    HW118947   0.610   7.376   2.774  0.0981 -0.2148  0.8120
 4370SOL    HW218948   0.742   7.331   2.831  0.8476 -0.8549 -1.3303
 4371SOL     OW18949   1.860   0.402   4.784  0.2641 -0.1107  0.2399
 4371SOL    HW118950   1.896   0.491   4.784 -0.4114  0.1758 -0.0269
 4371SOL    HW218951   1.915   0.353   4.723  0.1296  0.3500 -0.2636
 4372SOL     OW18952   6.544   0.104   0.865  0.2024 -0.4058 -0.2542
 4372SOL    HW118953   6.580   0.018   0.887  1.9471  0.5555  0.8864
 4372SOL    HW218954   6.533   0.102   0.770 -0.0504 -1.9749 -0.2085
 4373SOL     OW18955   2.860   1.369   1.986 -0.3724  0.6959  0.6161
 4373SOL    HW118956   2.875   1.278   2.013 -0.8509 -0.0341 -1.4391
 4373SOL    HW218957   2.780   1.366   1.933  0.3045  2.1044 -0.5443
 4374SOL     OW18958   5.765  10.285   6.139 -0.2967  0.0939 -0.1616
 4374SOL    HW118959   5.748  10.369   6.097  0.6535  0.3237 -0.1020
 4374SOL    HW218960   5.724  10.221   6.081  0.3398  0.4742 -1.0595
 4375SOL     OW18961   2.020   9.624   1.729  0.3160 -0.0408 -0.2808
 4375SOL    HW118962   2.069   9.581   1.799  1.6426  1.6987 -0.0620
 4375SOL    HW218963   2.004   9.713   1.761 -0.4559  0.3219 -1.5539
 4376SOL     OW18964   8.899   5.286   2.093  0.1909  0.1580  0.1039
 4376SOL    HW118965   8.924   5.357   2.153 -1.1382  0.9411 -0.2348
 4376SOL    HW218966   8.817   5.253   2.129 -0.0357 -0.1103 -0.6545
 4377SOL     OW18967   0.475   9.638   2.089  0.0545 -0.5246 -0.1375
 4377SOL    HW118968   0.429   9.702   2.035 -1.3100 -1.0086  0.4150
 4377SOL    HW218969   0.540   9.599   2.030 -1.0394 -0.6728 -1.2901
 4378SOL     OW18970   9.835   6.004   1.286  0.0779  0.0988 -0.1267
 4378SOL    HW118971   9.766   6.025   1.223  1.4609 -0.0596 -1.7622
 4378SOL    HW218972   9.888   6.083   1.290 -0.2804  0.2922  1.2841
 4379SOL     OW18973  10.515   1.910   2.233  0.2374  0.0533  0.1982
 4379SOL    HW118974  10.602   1.922   2.196  0.1243 -1.9024 -0.8582
 4379SOL    HW218975  10.455   1.929   2.161 -0.1470 -0.0885  0.4771
 4380SOL     OW18976   5.093   2.279  11.871  0.3717 -0.0947  0.2874
 4380SOL    HW118977   5.055   2.315  11.951 -0.0161  0.3507 -0.0881
 4380SOL    HW218978   5.166   2.226  11.901  0.0600 -0.1603  0.9555
 4381SOL     OW18979   5.037   3.244   2.488 -0.1196 -0.0524 -0.2780
 4381SOL    HW118980   5.013   3.173   2.547 -0.7359 -0.2608 -0.7653
 4381SOL    HW218981   4.957   3.295   2.477 -0.3157 -0.6045 -1.7089
 4382SOL     OW18982   4.853  11.665   3.996 -0.0360  0.3120 -0.3469
 4382SOL    HW118983   4.919  11.679   4.064 -0.8420 -0.1229  0.5546
 4382SOL    HW218984   4.861  11.741   3.939  2.1002 -0.3530 -1.0104
 4383SOL     OW18985   2.273   1.577  12.066  0.0825  0.6368 -0.3599
 4383SOL    HW118986   2.362   1.546  12.048 -0.3825 -2.1677  1.5268
 4383SOL    HW218987   2.279   1.616  12.153 -0.2921  1.7318 -0.8097
 4384SOL     OW18988   1.627   9.759   7.338  0.5728  0.1629  0.4898
 4384SOL    HW118989   1.636   9.848   7.373 -0.3329  0.1739  0.7091
 4384SOL    HW218990   1.677   9.704   7.399  1.6479  0.5891  0.0126
 4385SOL     OW18991   0.536   6.676  10.202  0.3742  0.1317 -0.6089
 4385SOL    HW118992   0.488   6.710  10.278  0.3941 -0.3566 -0.3719
 4385SOL    HW218993   0.532   6.746  10.138 -0.5774  0.1419 -0.5538
 4386SOL     OW18994   0.396   1.287   7.974 -0.4710 -0.4781  0.2758
 4386SOL    HW118995   0.478   1.324   8.004 -1.1691  1.6426 -0.2646
 4386SOL    HW218996   0.356   1.249   8.052  0.5983 -0.7175  0.7187
 4387SOL     OW18997   7.829  10.818   0.683 -0.0233  0.0830  0.3885
 4387SOL    HW118998   7.853  10.753   0.617  0.0471  0.0303  0.4658
 4387SOL    HW218999   7.758  10.777   0.732 -1.8168  1.1016 -1.2416
 4388SOL     OW19000   4.639  11.468   8.375  0.1136  0.0366  0.0381
 4388SOL    HW119001   4.671  11.472   8.284  0.9778 -0.8637  0.2857
 4388SOL    HW219002   4.576  11.396   8.374 -0.3772  0.4636  0.0100
 4389SOL     OW19003   3.529   4.360   9.845 -0.0530  0.1033  0.0498
 4389SOL    HW119004   3.485   4.341   9.928  0.9702 -1.1983  0.3289
 4389SOL    HW219005   3.500   4.448   9.822 -4.1188 -1.1740 -0.6008
 4390SOL     OW19006   1.250   8.921   1.650  0.4270  0.0154 -0.9193
 4390SOL    HW119007   1.303   8.893   1.576  0.1138 -0.2534 -1.0442
 4390SOL    HW219008   1.252   9.016   1.647 -0.0233  0.0067 -1.5873
 4391SOL     OW19009  11.411   7.739   7.385 -0.4757  0.2062  0.2669
 4391SOL    HW119010  11.448   7.746   7.297 -2.2561  0.0342 -0.5405
 4391SOL    HW219011  11.470   7.679   7.431  0.7444  0.6694 -0.6478
 4392SOL     OW19012   5.704   0.902   3.944 -0.2076  1.0900  0.1192
 4392SOL    HW119013   5.794   0.899   3.910  0.9872  2.7125  2.7571
 4392SOL    HW219014   5.696   0.822   3.996 -1.2163 -0.2489 -1.9933
 4393SOL     OW19015   7.999   8.136   5.170  0.0070 -0.2255  0.4601
 4393SOL    HW119016   7.985   8.080   5.247  2.1265  1.1551  1.9788
 4393SOL    HW219017   7.988   8.225   5.203  0.5927  0.3947 -0.9197
 4394SOL     OW19018   1.230   8.633   1.923 -0.6596 -0.4519  0.3299
 4394SOL    HW119019   1.280   8.572   1.868 -2.1089 -1.3343 -0.0506
 4394SOL    HW219020   1.198   8.580   1.995 -0.8117  0.1770  0.7359
 4395SOL     OW19021   9.230   1.476  12.297  0.0037  0.6333 -0.4000
 4395SOL    HW119022   9.202   1.389  12.270  1.9506  0.3111 -1.5799
 4395SOL    HW219023   9.149   1.520  12.324 -1.5334 -0.4513 -2.8322
 4396SOL     OW19024  11.707   5.619   9.395  0.5047  0.7677  0.0243
 4396SOL    HW119025  11.692   5.560   9.468  0.4787  0.4849 -0.2084
 4396SOL    HW219026  11.800   5.612   9.377  0.1867 -0.6957 -1.2577
 4397SOL     OW19027   7.399  11.823  10.956 -0.4183 -0.6780 -0.8835
 4397SOL    HW119028   7.381  11.877  11.034  1.4382  0.9642 -1.5045
 4397SOL    HW219029   7.495  11.821  10.950 -0.5082 -1.7424 -2.4764
 4398SOL     OW19030   4.736   7.226   0.346  0.4254 -0.0962  0.1309
 4398SOL    HW119031   4.758   7.250   0.255  2.0392  2.8396  1.1570
 4398SOL    HW219032   4.647   7.258   0.358  1.1931  2.1622  0.3148
 4399SOL     OW19033   0.945   0.684   7.193  0.0598  0.5682 -0.8408
 4399SOL    HW119034   0.853   0.679   7.169 -0.4343 -1.0085  1.1122
 4399SOL    HW219035   0.966   0.598   7.230  2.1294  1.0988 -0.6196
 4400SOL     OW19036   0.472   3.478   5.143 -0.0166  0.1289 -0.1254
 4400SOL    HW119037   0.409   3.446   5.079 -0.8051  1.1020  0.1503
 4400SOL    HW219038   0.420   3.528   5.205  0.8485 -0.1635  0.8579
 4401SOL     OW19039   3.746  10.596  11.782  0.6304 -0.4809  0.0025
 4401SOL    HW119040   3.707  10.660  11.842  1.0411  0.4019 -0.6563
 4401SOL    HW219041   3.721  10.511  11.819  0.9718  0.0349  1.4927
 4402SOL     OW19042   4.058   3.035   0.992  0.7681 -0.0584 -0.7331
 4402SOL    HW119043   4.029   3.028   1.083 -1.3582  0.5337 -1.3256
 4402SOL    HW219044   4.106   2.953   0.976  0.7928 -0.3721  0.7585
 4403SOL     OW19045   6.666   6.561   3.398  0.0202  0.2604 -0.0492
 4403SOL    HW119046   6.692   6.572   3.490 -1.3240 -0.3735  0.4433
 4403SOL    HW219047   6.595   6.624   3.385  0.9975  1.1958 -1.0324
 4404SOL     OW19048   0.868  10.634  12.321 -0.6051 -0.2617 -0.1070
 4404SOL    HW119049   0.900  10.548  12.292  0.5566  0.0660  0.1734
 4404SOL    HW219050   0.917  10.697  12.269 -0.4615  0.2672  0.6472
 4405SOL     OW19051  11.603  12.183   9.676  0.7693  0.2528 -0.5319
 4405SOL    HW119052  11.559  12.250   9.624 -2.6922 -2.2457 -1.1939
 4405SOL    HW219053  11.667  12.144   9.616  0.8956  1.1853 -1.0159
 4406SOL     OW19054   4.186   0.472   1.980  0.1221 -0.4499 -0.1555
 4406SOL    HW119055   4.202   0.477   2.074  0.9319 -0.7278 -0.2712
 4406SOL    HW219056   4.197   0.562   1.949  0.9151 -0.5295 -0.1364
 4407SOL     OW19057  11.086   2.174   7.359 -0.0395 -0.3315  0.0191
 4407SOL    HW119058  11.039   2.258   7.360  0.4908 -0.0249  1.0940
 4407SOL    HW219059  11.021   2.111   7.328 -0.8940  0.2426  0.5653
 4408SOL     OW19060  11.291   8.919  11.739  0.7616 -0.0291 -0.3961
 4408SOL    HW119061  11.278   8.915  11.834  1.3942 -1.0595 -0.3419
 4408SOL    HW219062  11.220   8.868  11.702  0.7788 -0.0135 -0.4514
 4409SOL     OW19063   6.420   9.751   8.603  0.4390  0.6049 -0.3151
 4409SOL    HW119064   6.432   9.844   8.585  1.0525  0.8745  1.2810
 4409SOL    HW219065   6.467   9.707   8.532 -0.4046  1.4733 -1.4599
 4410SOL     OW19066  11.537  10.486   2.267  0.0593  0.3101  0.0404
 4410SOL    HW119067  11.504  10.436   2.192  0.3324 -0.5487  0.4803
 4410SOL    HW219068  11.629  10.460   2.275 -0.2027 -0.3179  1.2289
 4411SOL     OW19069  11.489  11.642   7.186  0.2998  0.5555  0.1737
 4411SOL    HW119070  11.493  11.547   7.197 -0.4666  0.4258 -0.5562
 4411SOL    HW219071  11.416  11.656   7.126 -0.6501  1.7097  1.5228
 4412SOL     OW19072   2.850  10.073   4.041  0.7067 -0.4591  0.4662
 4412SOL    HW119073   2.879  10.121   3.963  0.3960  0.3877  0.8632
 4412SOL    HW219074   2.776  10.020   4.010  0.4310  0.0532  0.2353
 4413SOL     OW19075   4.378   0.488   8.457  0.0697 -0.7540  0.0274
 4413SOL    HW119076   4.398   0.582   8.459 -0.4093 -0.6615  2.0682
 4413SOL    HW219077   4.457   0.446   8.490 -0.3848 -0.9240  0.9156
 4414SOL     OW19078   9.606   4.443  11.891 -0.1185 -0.1470  0.3996
 4414SOL    HW119079   9.558   4.442  11.973  0.2014  0.4090  0.5999
 4414SOL    HW219080   9.685   4.495  11.910 -0.8273  1.4290 -0.6799
 4415SOL     OW19081   4.610   1.386   8.751 -0.0923  0.1226  0.3508
 4415SOL    HW119082   4.576   1.347   8.832 -1.7744  0.2554 -0.2396
 4415SOL    HW219083   4.572   1.332   8.681  0.8881  0.3390 -0.3665
 4416SOL     OW19084   4.485  11.966   5.053  0.2868 -0.3421 -0.1768
 4416SOL    HW119085   4.576  11.974   5.026 -0.0566 -1.7846 -1.9345
 4416SOL    HW219086   4.480  12.017   5.135  2.4447  0.4391 -0.4576
 4417SOL     OW19087   3.978   6.784   6.733 -0.7318  0.3664 -0.6356
 4417SOL    HW119088   3.911   6.847   6.706 -0.8801  0.1759 -0.7196
 4417SOL    HW219089   4.009   6.746   6.651  1.0600  2.0244 -0.7742
 4418SOL     OW19090   0.308   5.072   1.205  0.1525 -0.3380  0.7376
 4418SOL    HW119091   0.318   5.138   1.273 -0.3277  0.1086  0.3837
 4418SOL    HW219092   0.261   5.000   1.248 -3.0362  1.2191  0.1338
 4419SOL     OW19093   0.106   1.800   1.096 -0.5473  0.2532  0.3424
 4419SOL    HW119094   0.100   1.704   1.103  0.5427  0.1930  0.6540
 4419SOL    HW219095   0.026   1.826   1.051 -1.3942 -0.7008  1.2291
 4420SOL     OW19096   2.491   5.307  12.241 -0.3163 -0.5938 -0.5714
 4420SOL    HW119097   2.498   5.258  12.324  0.8180  0.2959 -0.1136
 4420SOL    HW219098   2.508   5.241  12.174  0.8059 -0.9359  0.0151
 4421SOL     OW19099   0.909   8.272   8.553 -0.0571  0.1301 -0.6960
 4421SOL    HW119100   0.924   8.183   8.585  2.0385  0.5877 -0.2282
 4421SOL    HW219101   0.920   8.328   8.630  1.3079  0.9621 -1.4384
 4422SOL     OW19102   0.117   9.854   0.409  0.1445  0.0634 -0.1345
 4422SOL    HW119103   0.099   9.814   0.494 -1.8823 -0.9593 -0.9859
 4422SOL    HW219104   0.073   9.939   0.413 -0.7338 -0.3690 -0.4707
 4423SOL     OW19105  12.180   5.062   7.018  0.8074  0.3194 -0.3285
 4423SOL    HW119106  12.086   5.066   7.002  0.6744 -1.3679 -0.0439
 4423SOL    HW219107  12.193   5.112   7.099 -0.3549 -2.2148  1.5472
 4424SOL     OW19108   6.653   6.883  11.367  0.0801 -0.2195 -0.2986
 4424SOL    HW119109   6.666   6.937  11.445 -1.5011  1.4996 -1.1487
 4424SOL    HW219110   6.614   6.802  11.400  0.3481  0.0848  0.7919
 4425SOL     OW19111   3.415   0.110   2.263  0.1193 -0.2455  1.4994
 4425SOL    HW119112   3.447   0.162   2.337 -2.2190  0.7349  1.9167
 4425SOL    HW219113   3.390   0.175   2.197  0.5824 -1.0325  0.5153
 4426SOL     OW19114   3.353   5.061  10.459 -0.4587  0.3112 -0.0581
 4426SOL    HW119115   3.348   4.990  10.395  0.3920 -0.4284  0.6713
 4426SOL    HW219116   3.380   5.138  10.408 -2.1764  0.3482 -0.9984
 4427SOL     OW19117  11.690   0.731  12.144  0.0040 -0.4527 -0.1941
 4427SOL    HW119118  11.617   0.732  12.206 -0.9501 -0.1683 -1.2863
 4427SOL    HW219119  11.716   0.823  12.137  0.6413 -0.5820  0.3719
 4428SOL     OW19120   8.132   2.177  11.015 -0.0950  0.1028 -0.2488
 4428SOL    HW119121   8.044   2.142  11.000 -0.0923 -0.9168  1.7652
 4428SOL    HW219122   8.117   2.259  11.061 -0.0095 -0.5416  0.9624
 4429SOL     OW19123   2.645   6.946  10.769 -0.3347 -0.2957  0.5085
 4429SOL    HW119124   2.606   7.027  10.736  1.2396  0.6553  0.8851
 4429SOL    HW219125   2.679   6.902  10.691 -0.0594  0.0449  0.4353
 4430SOL     OW19126  11.865   0.751   7.320 -0.7894 -0.4073 -0.2201
 4430SOL    HW119127  11.879   0.804   7.399 -1.5297 -1.8096  0.8941
 4430SOL    HW219128  11.867   0.661   7.352  0.5044 -1.0894 -2.0772
 4431SOL     OW19129   8.652  10.128   2.856 -0.7539 -0.0218 -0.6746
 4431SOL    HW119130   8.741  10.093   2.861 -1.0674 -0.6978  0.5746
 4431SOL    HW219131   8.615  10.089   2.778 -0.2317 -0.4224 -0.7237
 4432SOL     OW19132   4.045  11.237  11.437 -0.1607 -0.1230 -0.1859
 4432SOL    HW119133   4.040  11.206  11.346 -1.1908 -0.0551 -0.1620
 4432SOL    HW219134   4.010  11.166  11.489 -1.3715  0.5776 -0.0172
 4433SOL     OW19135   0.117   6.273   2.178 -0.0387  0.5328  0.4755
 4433SOL    HW119136   0.063   6.196   2.195 -0.5282  0.8054  0.1703
 4433SOL    HW219137   0.061   6.332   2.128  0.2987  1.1283  0.7797
 4434SOL     OW19138   5.321  11.075  11.218  0.2494  0.1430 -0.6706
 4434SOL    HW119139   5.239  11.117  11.243  0.0213 -0.9481  0.5076
 4434SOL    HW219140   5.329  11.091  11.123 -0.5004  1.6157 -0.5070
 4435SOL     OW19141   7.013   9.269   4.158 -0.3233  0.0034  0.6811
 4435SOL    HW119142   6.959   9.348   4.155  0.2934  0.5034  1.9159
 4435SOL    HW219143   7.037   9.253   4.067  1.8161  2.8768  0.5768
 4436SOL     OW19144   3.308   3.009   7.412 -0.1516 -0.0218 -0.4030
 4436SOL    HW119145   3.355   3.092   7.413 -0.7359  0.3290 -1.3285
 4436SOL    HW219146   3.242   3.018   7.480  1.4874 -0.7661  1.3766
 4437SOL     OW19147   6.025  11.868   6.741 -0.0643 -0.0078  0.0105
 4437SOL    HW119148   6.018  11.960   6.766  0.4953 -0.2111  0.9336
 4437SOL    HW219149   6.033  11.820   6.823 -1.8394 -1.0403 -0.3770
 4438SOL     OW19150   2.239   1.331   8.305  0.4483  0.1110  0.3460
 4438SOL    HW119151   2.280   1.362   8.386 -0.0788  1.1997  0.2139
 4438SOL    HW219152   2.291   1.370   8.235  0.2260  0.0912  0.1679
 4439SOL     OW19153   6.128   3.271  11.988 -0.1944  0.2804 -0.0166
 4439SOL    HW119154   6.038   3.243  11.971  0.5039 -1.0754 -1.9330
 4439SOL    HW219155   6.154   3.316  11.907  1.1160 -0.1052  0.1708
 4440SOL     OW19156   6.959   3.327   3.285  0.2499 -0.4346  0.5728
 4440SOL    HW119157   6.900   3.269   3.333 -0.7293 -0.0929 -0.1687
 4440SOL    HW219158   6.988   3.275   3.210 -0.0884 -0.2209  0.2825
 4441SOL     OW19159   9.904   9.680   0.753  0.3429 -0.3830 -0.4584
 4441SOL    HW119160   9.948   9.655   0.835 -1.0338  1.2601  0.8614
 4441SOL    HW219161   9.849   9.605   0.732  0.0369 -0.4873  0.6346
 4442SOL     OW19162   8.758   0.893   6.438  0.8688  0.2180  0.3806
 4442SOL    HW119163   8.774   0.810   6.484  0.4649  0.1561  0.4135
 4442SOL    HW219164   8.679   0.928   6.478 -0.7523 -0.8796 -1.6582
 4443SOL     OW19165  10.756   1.984   2.629 -0.1261 -0.0586 -0.3866
 4443SOL    HW119166  10.707   2.051   2.582 -3.0086 -0.5342  1.6316
 4443SOL    HW219167  10.745   2.006   2.722  0.7330 -2.0809  0.2724
 4444SOL     OW19168   8.787   8.430   2.945  0.1026  0.1215 -0.3725
 4444SOL    HW119169   8.849   8.471   2.884  0.5809 -0.8120 -0.5412
 4444SOL    HW219170   8.711   8.487   2.944  1.1347  1.5602  0.1934
 4445SOL     OW19171   2.073  11.711  12.297  0.2221  0.1272  0.4128
 4445SOL    HW119172   2.044  11.627  12.261 -0.0271  0.0394  0.8065
 4445SOL    HW219173   2.000  11.771  12.280  0.1417  0.1077  0.6849
 4446SOL     OW19174   0.586   9.552   2.814 -0.1565  0.3935  0.5294
 4446SOL    HW119175   0.547   9.563   2.728 -1.3568  1.5017  1.1766
 4446SOL    HW219176   0.560   9.464   2.841 -1.5496  0.8023  0.5923
 4447SOL     OW19177   9.687  10.892  10.586  0.3532  0.0310 -0.1613
 4447SOL    HW119178   9.763  10.845  10.622  0.7557  0.3167 -0.6231
 4447SOL    HW219179   9.655  10.945  10.658 -0.0507 -0.8796  0.3436
 4448SOL     OW19180  11.932   4.357   4.438  0.1094 -0.3904  0.7341
 4448SOL    HW119181  11.937   4.261   4.439  0.4741 -0.3697  1.9687
 4448SOL    HW219182  11.854   4.376   4.385 -0.7853 -1.4085  1.6383
 4449SOL     OW19183   0.209   8.546   4.704 -0.0072  0.1233 -0.0172
 4449SOL    HW119184   0.166   8.492   4.770 -2.1566  1.0042 -0.6053
 4449SOL    HW219185   0.217   8.489   4.628  0.2946 -0.1891  0.2482
 4450SOL     OW19186   1.735   9.058   7.853 -0.6725 -0.5158  0.3266
 4450SOL    HW119187   1.653   9.065   7.902  0.6956 -1.8334  3.0409
 4450SOL    HW219188   1.798   9.026   7.917  1.9989  0.4378 -1.6361
 4451SOL     OW19189   9.192   1.318   8.494 -0.0005 -0.1674 -0.4268
 4451SOL    HW119190   9.108   1.280   8.469 -0.6253  0.5233  0.5747
 4451SOL    HW219191   9.175   1.411   8.504  0.6837 -0.1338  0.5738
 4452SOL     OW19192   5.174   8.441   0.661  0.2208 -0.2760 -0.3221
 4452SOL    HW119193   5.234   8.368   0.646  0.7509  0.0386  0.2072
 4452SOL    HW219194   5.216   8.493   0.729 -1.3727 -0.8496  1.1815
 4453SOL     OW19195   1.694   3.714   8.060 -0.4609 -0.4354  0.2498
 4453SOL    HW119196   1.606   3.747   8.074  0.0724  0.4403  1.7707
 4453SOL    HW219197   1.741   3.736   8.140  1.4241  0.0415 -0.9249
 4454SOL     OW19198   0.487   5.424   2.678 -0.0012 -0.2703 -0.2977
 4454SOL    HW119199   0.563   5.447   2.626  0.0447 -0.2206 -0.2085
 4454SOL    HW219200   0.427   5.499   2.666  0.6259  0.4545  0.9361
 4455SOL     OW19201   7.480   5.439   3.589  0.3064  0.2820  0.1542
 4455SOL    HW119202   7.515   5.469   3.505  1.1197  1.3093  0.8234
 4455SOL    HW219203   7.387   5.425   3.573  0.7474 -1.2022 -1.3324
 4456SOL     OW19204   2.498   4.874  11.033 -0.0555  0.1679  0.0885
 4456SOL    HW119205   2.479   4.962  11.000  0.5038  0.5929  0.8569
 4456SOL    HW219206   2.570   4.843  10.977 -0.9397 -0.2399 -0.8637
 4457SOL     OW19207   5.708   8.550   1.819  0.6595  1.1300 -0.1112
 4457SOL    HW119208   5.783   8.535   1.877 -0.0273  1.7211  0.9793
 4457SOL    HW219209   5.644   8.484   1.846  1.4365 -0.6637 -2.3359
 4458SOL     OW19210   9.955   6.272   1.953 -0.2362 -0.6380  0.6937
 4458SOL    HW119211   9.904   6.192   1.970  1.6513 -2.0391  0.1002
 4458SOL    HW219212   9.975   6.267   1.859  0.5038  0.1750  0.8005
 4459SOL     OW19213   2.997   7.465   6.799  0.2148  0.3838 -0.1784
 4459SOL    HW119214   3.041   7.400   6.744  0.2047 -0.8447  1.1798
 4459SOL    HW219215   3.014   7.436   6.889 -3.0405 -0.0261  0.4573
 4460SOL     OW19216   5.741   1.133   6.763  0.1323 -0.2113  0.1447
 4460SOL    HW119217   5.748   1.056   6.706  1.0474 -0.2097  0.2478
 4460SOL    HW219218   5.788   1.202   6.716 -0.4585  0.2200  0.1768
 4461SOL     OW19219   2.591   7.229  11.322  0.3351  0.0309  0.3797
 4461SOL    HW119220   2.593   7.196  11.412 -0.7979 -1.0728  0.0307
 4461SOL    HW219221   2.665   7.289  11.317  1.7675 -1.5653  1.4047
 4462SOL     OW19222  11.178   6.186  11.821 -0.4534 -0.1939  0.1189
 4462SOL    HW119223  11.258   6.236  11.839 -0.7816  0.2613  0.3303
 4462SOL    HW219224  11.199   6.137  11.742 -0.1582  0.3621 -0.1595
 4463SOL     OW19225   7.337   4.637   0.338 -0.1538 -0.0574 -0.1601
 4463SOL    HW119226   7.392   4.703   0.381 -1.0369  1.7111 -1.5932
 4463SOL    HW219227   7.292   4.685   0.269 -1.5299 -2.0082 -0.7071
 4464SOL     OW19228  10.971  11.462   3.470 -0.7661  0.3207 -0.1178
 4464SOL    HW119229  10.897  11.428   3.420 -1.1363  0.1927  0.5053
 4464SOL    HW219230  10.941  11.461   3.561  0.4001 -0.8331  0.2894
 4465SOL     OW19231  10.582   3.587  12.330  0.4713  0.6858  0.4460
 4465SOL    HW119232  10.638   3.572  12.254 -0.0180  0.9969  0.0132
 4465SOL    HW219233  10.553   3.678  12.320  1.1823  1.0533  1.5311
 4466SOL     OW19234   4.181   9.431   0.136  0.5090  0.0936  0.1295
 4466SOL    HW119235   4.130   9.512   0.130  1.0294  0.3423 -1.8552
 4466SOL    HW219236   4.219   9.421   0.048  2.0617 -1.2608  0.9120
 4467SOL     OW19237   2.259   6.493   9.470  0.3401 -0.1248 -0.0229
 4467SOL    HW119238   2.327   6.561   9.472  0.9205 -0.6545 -0.9093
 4467SOL    HW219239   2.178   6.540   9.453  0.4599  0.5229  1.0742
 4468SOL     OW19240   0.857   5.870  12.152  0.0175 -0.2399  0.2242
 4468SOL    HW119241   0.892   5.784  12.175 -1.7607 -0.8005  0.9338
 4468SOL    HW219242   0.833   5.862  12.060  0.7368 -0.1705  0.0176
 4469SOL     OW19243  12.238   5.789  10.440 -0.1001  0.1805 -0.7083
 4469SOL    HW119244  12.285   5.706  10.450  0.4176  0.3664 -1.4877
 4469SOL    HW219245  12.223   5.797  10.346  1.8099  2.0105 -0.9321
 4470SOL     OW19246   9.716   7.804  10.691 -0.2350 -0.3957  0.3891
 4470SOL    HW119247   9.622   7.806  10.712  0.3016 -0.4670  3.1408
 4470SOL    HW219248   9.738   7.894  10.670 -0.7974 -0.2792  0.2835
 4471SOL     OW19249   1.042   7.243   6.483 -0.2812 -0.1536  0.5581
 4471SOL    HW119250   1.123   7.270   6.438 -0.0766 -2.2710 -0.4873
 4471SOL    HW219251   0.972   7.275   6.426 -0.2627  2.0948  1.7012
 4472SOL     OW19252  11.513  10.583  11.110  0.0450  0.2977 -0.2814
 4472SOL    HW119253  11.419  10.582  11.128 -0.2520 -0.9334 -1.6879
 4472SOL    HW219254  11.549  10.515  11.167  0.0360  0.5630  0.0416
 4473SOL     OW19255   0.337   6.264  10.696 -0.3003  0.3869 -0.0816
 4473SOL    HW119256   0.353   6.209  10.619  1.0881 -0.8479  1.0464
 4473SOL    HW219257   0.410   6.326  10.697  0.3489 -0.3727  0.8801
 4474SOL     OW19258   0.632   1.151   2.550  0.2360 -0.0403 -0.0334
 4474SOL    HW119259   0.564   1.146   2.483 -0.4394 -0.2179  0.6372
 4474SOL    HW219260   0.592   1.203   2.620  0.6727 -0.4187  0.5103
 4475SOL     OW19261  10.766   3.612   4.569 -0.0860  0.1982 -0.6544
 4475SOL    HW119262  10.826   3.562   4.515  2.3311  0.4932  1.5579
 4475SOL    HW219263  10.779   3.703   4.543  4.5508  0.9719  3.0996
 4476SOL     OW19264   0.394   1.555  10.317  0.3583 -0.5501 -0.5269
 4476SOL    HW119265   0.439   1.590  10.240  0.6383 -0.2670 -0.2334
 4476SOL    HW219266   0.309   1.598  10.317 -0.0788 -1.3588 -1.2932
 4477SOL     OW19267   8.078   0.559   3.039 -0.3607 -0.0494 -0.1794
 4477SOL    HW119268   8.086   0.654   3.033  2.2013 -0.1557  0.1895
 4477SOL    HW219269   8.128   0.526   2.965 -2.1468 -1.1539 -0.9609
 4478SOL     OW19270   8.290   6.369   1.569  0.2701 -0.6489  0.0631
 4478SOL    HW119271   8.232   6.445   1.566  1.6955  0.4714 -0.1809
 4478SOL    HW219272   8.351   6.382   1.496 -0.2770 -2.7490 -0.8638
 4479SOL     OW19273   8.000  11.889  12.272 -0.3149 -0.7607  0.0502
 4479SOL    HW119274   8.067  11.904  12.205 -1.2555 -0.1174 -0.7705
 4479SOL    HW219275   8.001  11.969  12.325  0.1424 -1.1006  0.5657
 4480SOL     OW19276   7.229   7.751   9.611 -0.3568  0.2070  0.0336
 4480SOL    HW119277   7.211   7.784   9.523  0.7562  1.5031  0.2586
 4480SOL    HW219278   7.184   7.812   9.669  0.7976  0.7366  0.4149
 4481SOL     OW19279   2.043   3.887  11.129 -0.8548 -0.1074  0.4885
 4481SOL    HW119280   2.000   3.962  11.088 -1.5267 -0.9640 -0.4222
 4481SOL    HW219281   2.123   3.923  11.168  0.1767  0.6682 -2.1423
 4482SOL     OW19282   3.290   4.556   0.410 -0.0166 -0.4498  0.2205
 4482SOL    HW119283   3.276   4.533   0.318 -0.5541 -1.9860  0.6571
 4482SOL    HW219284   3.242   4.490   0.459  0.8076 -0.0477  1.6265
 4483SOL     OW19285   4.879  12.154   8.048 -0.4079 -0.5842 -0.1571
 4483SOL    HW119286   4.877  12.224   8.113 -1.3156  0.7952 -1.5924
 4483SOL    HW219287   4.789  12.121   8.046  0.0099 -1.7936  0.4886
 4484SOL     OW19288   0.787   5.155   2.076 -0.0838  0.4324 -0.3229
 4484SOL    HW119289   0.845   5.224   2.108 -0.0478  0.3124 -0.1272
 4484SOL    HW219290   0.755   5.188   1.992  0.0417  0.6256 -0.2967
 4485SOL     OW19291   8.545   4.237   4.182  0.2644  0.7639 -1.0494
 4485SOL    HW119292   8.568   4.190   4.262 -0.7329  2.9415  0.6179
 4485SOL    HW219293   8.462   4.199   4.155  0.4874  0.1719 -0.9148
 4486SOL     OW19294   4.177  11.184   8.188 -0.7330  0.1782 -0.2192
 4486SOL    HW119295   4.234  11.197   8.111  1.4910  0.2202  1.3256
 4486SOL    HW219296   4.120  11.260   8.189  0.0773  0.8198 -1.1205
 4487SOL     OW19297   4.142  11.113   0.480  0.0554 -0.6639 -0.1057
 4487SOL    HW119298   4.069  11.083   0.426  0.8887 -0.2875 -1.4962
 4487SOL    HW219299   4.196  11.164   0.421  0.0194  1.4528  1.5600
 4488SOL     OW19300   3.073  11.038   8.784 -0.0198 -0.4950 -0.1666
 4488SOL    HW119301   3.124  10.981   8.842 -2.4202 -1.2981  1.2924
 4488SOL    HW219302   3.110  11.125   8.797  1.7937 -1.2176 -0.1835
 4489SOL     OW19303   0.179   5.279   7.130 -0.2907  0.6233  0.1349
 4489SOL    HW119304   0.227   5.333   7.067 -0.7007  2.1073  1.0457
 4489SOL    HW219305   0.146   5.341   7.195  0.4981 -0.8734  2.0917
 4490SOL     OW19306  10.765  10.928   0.552  0.0894 -0.0884  0.1930
 4490SOL    HW119307  10.806  10.842   0.553  0.2026 -0.0917 -1.5208
 4490SOL    HW219308  10.838  10.989   0.537 -0.1470  0.1729  0.0966
 4491SOL     OW19309   3.787  12.220   0.366 -0.2773  0.2420  0.2562
 4491SOL    HW119310   3.846  12.203   0.440  1.8754  1.9328 -0.9574
 4491SOL    HW219311   3.820  12.301   0.327 -2.5127  0.4339 -1.4543
 4492SOL     OW19312   5.253   0.354   5.887  0.7901 -0.5542  0.1421
 4492SOL    HW119313   5.342   0.389   5.882 -0.1296  1.8532 -1.8053
 4492SOL    HW219314   5.210   0.409   5.953  0.3023 -0.5181 -0.2000
 4493SOL     OW19315   8.499   9.496   2.779 -0.9028  0.2586 -0.5059
 4493SOL    HW119316   8.508   9.508   2.685 -1.4986  1.9909 -0.3857
 4493SOL    HW219317   8.415   9.451   2.789 -0.2817 -1.0109 -0.8361
 4494SOL     OW19318   8.807   0.512   3.970  0.2182 -0.0553 -0.0378
 4494SOL    HW119319   8.832   0.419   3.974  1.0707  0.2009  0.8884
 4494SOL    HW219320   8.800   0.530   3.876 -0.6522 -1.2286 -0.2291
 4495SOL     OW19321  11.958   0.139   7.368 -0.0563 -0.0816 -0.2774
 4495SOL    HW119322  11.959   0.045   7.385  0.8647 -0.4997 -2.2645
 4495SOL    HW219323  11.872   0.169   7.395  0.5814 -0.8920  3.0992
 4496SOL     OW19324   1.167   0.145  10.708  0.2876  0.6803 -0.0648
 4496SOL    HW119325   1.162   0.219  10.648  0.0773 -0.3995 -1.4410
 4496SOL    HW219326   1.222   0.081  10.662 -1.6661 -1.0701 -0.1463
 4497SOL     OW19327   6.854   2.430   7.926 -0.7530  0.1035  0.5693
 4497SOL    HW119328   6.832   2.452   7.835  0.8511  1.3020  0.4306
 4497SOL    HW219329   6.869   2.514   7.968 -1.0047 -0.4737  1.8384
 4498SOL     OW19330   6.746  11.464   7.991  0.1665  0.2090  0.6548
 4498SOL    HW119331   6.660  11.493   8.022  0.3490  0.5309  0.8648
 4498SOL    HW219332   6.750  11.496   7.901 -0.1022 -0.1719  0.5041
 4499SOL     OW19333   4.073   2.438   0.729 -0.0955 -0.6901  0.0659
 4499SOL    HW119334   4.030   2.518   0.700  1.0981 -0.4963 -1.2737
 4499SOL    HW219335   4.106   2.398   0.649  0.9890 -1.5409  0.9053
 4500SOL     OW19336   1.578  10.286   1.656 -0.5397 -0.2399 -0.2919
 4500SOL    HW119337   1.578  10.225   1.583 -1.9274 -2.6489  1.5932
 4500SOL    HW219338   1.620  10.239   1.728  1.1257  2.1812  0.4762
 4501SOL     OW19339   6.259   6.356  12.072 -0.5452  0.6382 -0.2322
 4501SOL    HW119340   6.311   6.396  12.142 -1.9952  1.4727  0.4178
 4501SOL    HW219341   6.276   6.262  12.080  0.4441  0.8474  0.2829
 4502SOL     OW19342   8.138   3.632   3.682 -0.1407  0.1533  0.3368
 4502SOL    HW119343   8.111   3.544   3.655 -0.5192  0.0218  1.1217
 4502SOL    HW219344   8.207   3.618   3.746 -0.4456  0.4211  0.7251
 4503SOL     OW19345   3.438   4.556   5.594  0.2674 -0.4074  0.3050
 4503SOL    HW119346   3.422   4.650   5.599 -2.3895 -0.7887  0.2720
 4503SOL    HW219347   3.443   4.528   5.685  0.7342 -0.2976  0.3161
 4504SOL     OW19348   0.033   6.896   3.285  0.5512  0.3557  0.1305
 4504SOL    HW119349   0.042   6.881   3.379 -0.3136 -0.0073  0.1646
 4504SOL    HW219350   0.017   6.809   3.248 -0.6616  0.6828 -0.1572
 4505SOL     OW19351   4.945   0.613  11.014 -0.0550 -0.4766 -0.2513
 4505SOL    HW119352   4.939   0.539  10.953  0.1910 -0.2124 -0.5979
 4505SOL    HW219353   5.030   0.602  11.057  0.1361 -0.1953 -0.5606
 4506SOL     OW19354   8.893  12.221   6.414 -0.6010 -0.0046 -0.0054
 4506SOL    HW119355   8.809  12.181   6.436 -0.7293 -0.0137 -0.4888
 4506SOL    HW219356   8.878  12.315   6.422 -0.4796 -0.0275  0.5111
 4507SOL     OW19357   2.320   8.770   0.853  0.1879  0.0918 -0.3588
 4507SOL    HW119358   2.243   8.738   0.806 -0.2101 -0.3504  0.5585
 4507SOL    HW219359   2.317   8.724   0.937  1.8171 -0.4030 -0.5441
 4508SOL     OW19360   4.647   8.785   4.453  0.3352  0.3138  0.3248
 4508SOL    HW119361   4.617   8.713   4.509  1.7993 -0.8197 -0.2698
 4508SOL    HW219362   4.595   8.775   4.373 -1.2048  1.4624  1.1266
 4509SOL     OW19363   7.603  10.288   3.858 -0.5169 -0.5441  0.6443
 4509SOL    HW119364   7.597  10.364   3.917 -0.5307  0.5643 -0.7309
 4509SOL    HW219365   7.512  10.260   3.848 -0.6895  0.2237 -0.0359
 4510SOL     OW19366   8.831   3.432   0.336  0.5378  0.0948 -0.3782
 4510SOL    HW119367   8.870   3.509   0.377  1.1070 -0.7752  0.7981
 4510SOL    HW219368   8.738   3.439   0.355  0.6277  0.3512 -0.0258
 4511SOL     OW19369   2.084   3.940   9.088  0.8355  0.9071 -0.1468
 4511SOL    HW119370   2.111   4.025   9.056  2.0195  0.5896 -0.0276
 4511SOL    HW219371   2.125   3.932   9.174 -0.7922  0.9847  0.6830
 4512SOL     OW19372   6.552   8.229   7.800 -0.2904 -0.0476  0.0961
 4512SOL    HW119373   6.521   8.261   7.715 -1.1405 -2.1758 -0.4733
 4512SOL    HW219374   6.611   8.157   7.778  1.6068  1.0695  1.3041
 4513SOL     OW19375  11.246   7.215   6.584  0.5009  0.1260 -0.0401
 4513SOL    HW119376  11.168   7.264   6.611  0.1890  0.8685 -2.1045
 4513SOL    HW219377  11.214   7.127   6.563  0.8439 -0.6513  2.3985
 4514SOL     OW19378   4.234   5.732   7.864 -0.0851  0.7033  0.2731
 4514SOL    HW119379   4.204   5.680   7.789 -1.2757  1.6621  0.0611
 4514SOL    HW219380   4.320   5.764   7.838  0.2058 -0.2779 -0.0222
 4515SOL     OW19381   8.796   1.545  10.450  0.2671 -0.2846  0.0244
 4515SOL    HW119382   8.701   1.533  10.450  0.2146  0.0005  1.2106
 4515SOL    HW219383   8.810   1.631  10.411 -0.0056 -0.0921  0.3436
 4516SOL     OW19384   2.765   4.773  10.958 -0.4162 -0.2758 -0.7600
 4516SOL    HW119385   2.736   4.693  10.913  0.1174 -1.3249  0.6724
 4516SOL    HW219386   2.841   4.745  11.009  0.2182  1.3350 -0.7682
 4517SOL     OW19387  10.618  10.680   6.121 -0.3151  0.8398  0.7811
 4517SOL    HW119388  10.707  10.715   6.129 -0.3157  0.8235  0.8575
 4517SOL    HW219389  10.593  10.699   6.031  0.5665 -1.0730  0.0896
 4518SOL     OW19390   7.618   6.521   2.079 -0.0062 -0.0972 -0.1873
 4518SOL    HW119391   7.670   6.599   2.098 -0.4511  0.6498 -1.9244
 4518SOL    HW219392   7.537   6.534   2.129 -0.4944  1.0580 -1.2353
 4519SOL     OW19393   1.523   6.812   0.887  0.0546  0.2761  0.3227
 4519SOL    HW119394   1.584   6.798   0.958  1.8735  1.0613 -1.0053
 4519SOL    HW219395   1.554   6.891   0.844 -0.1994 -0.8569 -2.1087
 4520SOL     OW19396   6.853   5.179   6.355 -0.8012  0.1397 -0.2137
 4520SOL    HW119397   6.932   5.233   6.351  0.0539 -0.5595  3.5781
 4520SOL    HW219398   6.885   5.089   6.352 -1.9649 -0.2798 -3.2872
 4521SOL     OW19399   3.551   5.392   2.574  0.3935  0.0445  0.2744
 4521SOL    HW119400   3.587   5.473   2.610  0.5645 -0.0002  0.2070
 4521SOL    HW219401   3.475   5.420   2.524  1.5869  0.4294 -1.4431
 4522SOL     OW19402   0.488   9.642  12.170  0.1487  0.0114 -0.0964
 4522SOL    HW119403   0.463   9.554  12.142  1.8056 -0.5594  0.0976
 4522SOL    HW219404   0.444   9.654  12.254 -1.1632 -0.0855 -0.7518
 4523SOL     OW19405   5.868   2.065   1.033  0.5417 -0.5431 -0.0946
 4523SOL    HW119406   5.944   2.119   1.055 -0.8771  0.7892  1.8586
 4523SOL    HW219407   5.847   2.089   0.943  2.1027 -0.5445 -0.4847
 4524SOL     OW19408   5.072   8.872   3.249 -0.0570  0.1419 -0.4018
 4524SOL    HW119409   5.032   8.807   3.190 -0.0145  0.9012 -1.3003
 4524SOL    HW219410   5.144   8.909   3.197  0.6369  0.1094  0.5191
 4525SOL     OW19411   3.087   9.916   9.152  0.4033 -0.2061  0.7482
 4525SOL    HW119412   3.029   9.938   9.225  0.5335 -0.9311  1.0806
 4525SOL    HW219413   3.175   9.935   9.186  0.3580  1.1143  0.1658
 4526SOL     OW19414   7.399   0.718  11.497 -0.2538 -0.3651 -0.9259
 4526SOL    HW119415   7.426   0.801  11.458 -0.3344 -0.9349 -2.2642
 4526SOL    HW219416   7.437   0.651  11.439 -1.1304 -1.2444 -0.5177
 4527SOL     OW19417   5.295   7.587   3.013 -0.5316  0.0971 -0.1901
 4527SOL    HW119418   5.367   7.649   3.015 -0.5466  0.1624 -0.9974
 4527SOL    HW219419   5.248   7.601   3.095  0.6285 -0.2730  0.5520
 4528SOL     OW19420   4.996  11.451  10.757 -0.4627 -0.3659 -0.3779
 4528SOL    HW119421   4.983  11.404  10.674  0.1170 -0.3037 -0.5043
 4528SOL    HW219422   4.948  11.399  10.821  0.7527 -1.5431 -0.3775
 4529SOL     OW19423   5.238   6.135   2.596  0.3766 -0.4995  0.6001
 4529SOL    HW119424   5.295   6.180   2.534  0.8849 -0.1416  1.3059
 4529SOL    HW219425   5.288   6.133   2.678 -0.3369 -0.8174  1.0432
 4530SOL     OW19426   1.110   8.018   5.527  0.2614 -0.4167 -0.0604
 4530SOL    HW119427   1.141   7.976   5.446 -0.5701 -1.9933  0.4033
 4530SOL    HW219428   1.181   8.004   5.590  2.3116  3.4386 -1.1757
 4531SOL     OW19429   1.830   5.351   3.376  0.0751 -0.1408  0.5899
 4531SOL    HW119430   1.923   5.373   3.381  0.1469 -0.5644  1.2717
 4531SOL    HW219431   1.815   5.293   3.451  0.0278 -2.8689 -1.4121
 4532SOL     OW19432   3.334   0.612   3.527 -0.3851 -0.6638 -0.3670
 4532SOL    HW119433   3.306   0.633   3.438 -1.1504 -0.6587 -0.1322
 4532SOL    HW219434   3.280   0.537   3.552  0.0242 -0.8449 -0.0069
 4533SOL     OW19435   7.793   8.129  11.705 -0.1824 -0.1527 -0.3298
 4533SOL    HW119436   7.838   8.212  11.690  1.1185 -0.8148 -0.2437
 4533SOL    HW219437   7.719   8.151  11.762  0.2558  0.9002 -0.1581
 4534SOL     OW19438   0.028   5.066   6.710 -0.3825  0.1833 -0.2220
 4534SOL    HW119439   0.058   5.094   6.624 -3.3712  3.1926 -0.5100
 4534SOL    HW219440  -0.055   5.021   6.692 -0.7561  0.3339  1.0496
 4535SOL     OW19441   1.604   3.423   0.128  0.1387 -0.0519  0.3195
 4535SOL    HW119442   1.692   3.428   0.164 -0.4323  1.3778  1.6523
 4535SOL    HW219443   1.588   3.511   0.092 -1.6493  0.6046  2.4832
 4536SOL     OW19444   2.980   1.730   8.559  0.4091 -0.0864 -0.4448
 4536SOL    HW119445   2.913   1.695   8.502 -0.6920  1.0364  0.1135
 4536SOL    HW219446   2.959   1.823   8.567  0.6548 -0.1513  1.5609
 4537SOL     OW19447   3.596   1.938   9.546 -0.0503 -0.2344 -0.1875
 4537SOL    HW119448   3.537   2.003   9.508  2.3009  0.6716 -2.5768
 4537SOL    HW219449   3.668   1.930   9.483  1.8438 -2.1010  2.0041
 4538SOL     OW19450   1.213   9.513  11.106  0.4050  0.1713 -0.0400
 4538SOL    HW119451   1.292   9.534  11.156  0.3941  1.1039 -0.3947
 4538SOL    HW219452   1.243   9.452  11.038  1.3655  2.4520 -1.7642
 4539SOL     OW19453   1.867   1.955   2.403  0.1105  0.1957 -0.0210
 4539SOL    HW119454   1.910   1.870   2.416  2.4097  0.9413 -2.0649
 4539SOL    HW219455   1.886   2.004   2.483  1.0432 -0.3305  0.0983
 4540SOL     OW19456   5.027   1.456  10.326  0.5256 -0.4017  0.0148
 4540SOL    HW119457   4.947   1.406  10.311 -0.9071  1.4243  1.1394
 4540SOL    HW219458   5.073   1.453  10.242  0.4698 -3.3891 -0.0317
 4541SOL     OW19459   9.213  11.657   8.325  0.0106 -0.2157 -0.2616
 4541SOL    HW119460   9.179  11.586   8.270  0.2070 -2.3381  2.1742
 4541SOL    HW219461   9.278  11.615   8.381  1.1351  2.2117  0.3928
 4542SOL     OW19462   7.110   4.735   7.018  0.2219  0.2731 -0.2739
 4542SOL    HW119463   7.205   4.728   7.023  0.3207  1.0754 -0.8161
 4542SOL    HW219464   7.078   4.647   7.040  1.0621  0.1112  0.3531
 4543SOL     OW19465   5.366   1.078  11.333  0.6801 -0.2710  0.5217
 4543SOL    HW119466   5.456   1.109  11.320  1.0691 -1.8308 -0.9150
 4543SOL    HW219467   5.318   1.155  11.363  2.6308  0.4299  2.0513
 4544SOL     OW19468  10.098   8.756   8.477  0.1479 -0.2771  0.1323
 4544SOL    HW119469  10.125   8.815   8.406 -1.3337  1.2016  0.7187
 4544SOL    HW219470  10.005   8.740   8.461 -0.3836  0.5930  2.0329
 4545SOL     OW19471   9.623   3.195   6.021 -0.0416  0.6823  0.1992
 4545SOL    HW119472   9.631   3.103   6.044  1.0894  0.6872 -0.1161
 4545SOL    HW219473   9.539   3.202   5.975  1.8337 -1.1270 -3.9703
 4546SOL     OW19474   6.781   7.033   2.973 -0.0065  0.2895  0.0960
 4546SOL    HW119475   6.812   7.108   2.922 -0.9385  1.4860  1.2381
 4546SOL    HW219476   6.791   6.958   2.914  3.4725  0.8265 -0.1935
 4547SOL     OW19477   3.954   9.509  11.453  0.5963  0.2986 -0.3266
 4547SOL    HW119478   3.940   9.565  11.530 -0.4947  0.0208 -0.3159
 4547SOL    HW219479   3.942   9.568  11.379  0.2025  0.2482 -0.3039
 4548SOL     OW19480  11.655   1.382   2.586 -0.2550 -0.4168 -0.1412
 4548SOL    HW119481  11.695   1.321   2.648 -2.0965  0.7206  2.3627
 4548SOL    HW219482  11.630   1.328   2.511  1.3817 -2.0118  0.3807
 4549SOL     OW19483   7.684  10.366   9.345  0.2604  0.0127  0.1418
 4549SOL    HW119484   7.686  10.302   9.417 -1.0458 -1.2694 -0.8981
 4549SOL    HW219485   7.591  10.389   9.337  0.2207 -0.6259 -1.7322
 4550SOL     OW19486  12.109   0.575   2.548  0.3237  0.3821  0.5418
 4550SOL    HW119487  12.162   0.637   2.597 -0.8845  0.0206  2.4101
 4550SOL    HW219488  12.167   0.541   2.480  2.8044 -0.7013  3.0377
 4551SOL     OW19489   9.369  11.264  11.190 -0.3832 -0.2256  0.6220
 4551SOL    HW119490   9.336  11.186  11.234 -2.5286  1.0388  1.4210
 4551SOL    HW219491   9.410  11.316  11.259  1.6045 -0.8566 -0.0138
 4552SOL     OW19492   8.552  11.403   6.682  0.5666 -0.3019  0.3462
 4552SOL    HW119493   8.534  11.492   6.651 -0.8624 -1.1248 -1.3034
 4552SOL    HW219494   8.619  11.369   6.623  1.7650 -0.0582  1.5177
 4553SOL     OW19495   5.213   0.898   2.430 -0.2582 -0.2978 -0.3336
 4553SOL    HW119496   5.137   0.900   2.488 -0.0847  0.4774 -0.1253
 4553SOL    HW219497   5.261   0.819   2.456  1.0159  1.2063  2.1483
 4554SOL     OW19498   2.149   5.726   5.128 -0.6360  0.4036  0.5943
 4554SOL    HW119499   2.242   5.708   5.143 -1.2473 -2.6017  1.4460
 4554SOL    HW219500   2.119   5.766   5.210  0.0051  2.2913 -0.0192
 4555SOL     OW19501   9.567   8.501   5.292  0.4283  0.1405  0.0249
 4555SOL    HW119502   9.643   8.452   5.262  1.5110  1.1530  1.0281
 4555SOL    HW219503   9.597   8.592   5.296 -0.6474  0.4754  1.0680
 4556SOL     OW19504   3.352   4.681   2.255 -0.0237  0.3821  0.2064
 4556SOL    HW119505   3.408   4.732   2.197 -0.0387  1.1626  0.8618
 4556SOL    HW219506   3.266   4.723   2.248  0.5147  2.1555  2.6843
 4557SOL     OW19507  11.372  11.021   0.475 -0.2618  0.0569 -0.5390
 4557SOL    HW119508  11.386  10.957   0.405  0.1406 -0.6096  0.1446
 4557SOL    HW219509  11.451  11.016   0.528 -1.5312 -1.1563  1.3269
 4558SOL     OW19510   9.714   0.206   6.793  0.0179  0.0756 -0.0354
 4558SOL    HW119511   9.729   0.115   6.767 -0.1150  0.2314 -0.6683
 4558SOL    HW219512   9.630   0.229   6.753 -0.2442  0.2966  0.6168
 4559SOL     OW19513   7.658   3.906  11.320 -0.0416 -0.2016  0.0659
 4559SOL    HW119514   7.702   3.958  11.386  1.9370 -0.9710 -0.5895
 4559SOL    HW219515   7.717   3.833  11.302 -1.2984 -0.9525 -1.3184
 4560SOL     OW19516   8.727   9.349   0.868  0.0590  0.4674 -0.4399
 4560SOL    HW119517   8.785   9.390   0.804  0.3293  1.8558  0.6626
 4560SOL    HW219518   8.761   9.260   0.877  1.1297  0.8158 -0.8893
 4561SOL     OW19519   1.631   9.839   8.461 -0.5770  0.7425 -0.0700
 4561SOL    HW119520   1.667   9.755   8.432 -1.0438  0.1848  0.9052
 4561SOL    HW219521   1.625   9.892   8.382  0.1007 -0.0104 -0.6302
 4562SOL     OW19522  10.572   6.100   4.050  0.0064 -0.2522 -0.2430
 4562SOL    HW119523  10.567   6.100   3.954 -0.1597 -0.4701 -0.2380
 4562SOL    HW219524  10.616   6.181   4.072  1.0668 -0.7294 -0.5514
 4563SOL     OW19525   4.895   4.525  11.497  0.0370 -0.4737 -0.2453
 4563SOL    HW119526   4.962   4.540  11.430  0.4978  0.7208  0.4525
 4563SOL    HW219527   4.817   4.501  11.448  0.3455  0.4399 -1.2289
 4564SOL     OW19528   1.580   0.237   7.559 -0.3565  0.3008  0.5254
 4564SOL    HW119529   1.634   0.187   7.621 -2.1009  0.6210  2.4188
 4564SOL    HW219530   1.504   0.180   7.543 -0.0774  0.3516 -1.1460
 4565SOL     OW19531  10.884   2.943   3.527 -0.6954 -0.6614 -0.8428
 4565SOL    HW119532  10.830   2.978   3.455 -0.8559 -0.4373 -0.6135
 4565SOL    HW219533  10.870   2.848   3.522 -0.0423 -0.7313 -1.6419
 4566SOL     OW19534   4.775   6.098   0.559  0.5353  0.3454  0.2442
 4566SOL    HW119535   4.766   6.021   0.503  0.9912  1.4190 -1.3711
 4566SOL    HW219536   4.850   6.077   0.615  1.7677  0.2618 -1.3579
 4567SOL     OW19537   6.885   2.785   5.585 -0.0646  0.0979 -0.4728
 4567SOL    HW119538   6.902   2.760   5.676  0.9851  0.7672 -0.4648
 4567SOL    HW219539   6.967   2.765   5.539 -1.0210 -1.5495 -1.5901
 4568SOL     OW19540   0.428  10.448  10.564  0.6994  0.0292  0.0557
 4568SOL    HW119541   0.518  10.432  10.536 -0.1202  1.1653 -3.7340
 4568SOL    HW219542   0.432  10.530  10.613  1.6140  0.5420 -0.8527
 4569SOL     OW19543   7.518   8.941   2.454  0.2323 -0.4040 -0.0996
 4569SOL    HW119544   7.431   8.901   2.460  0.0133 -0.1827 -1.5546
 4569SOL    HW219545   7.577   8.868   2.438 -0.1272 -0.2663 -2.4244
 4570SOL     OW19546   0.123   9.362   7.137  0.0977  0.5268 -0.2348
 4570SOL    HW119547   0.039   9.398   7.110 -1.3884 -2.1868  0.3460
 4570SOL    HW219548   0.178   9.367   7.059 -1.3704  0.3477 -1.3315
 4571SOL     OW19549  10.627   4.050   1.587 -0.0407  0.4568 -0.1044
 4571SOL    HW119550  10.691   4.085   1.650  1.6652 -0.3391 -1.3138
 4571SOL    HW219551  10.600   3.966   1.625 -0.2843  0.7428  0.3596
 4572SOL     OW19552   4.510  12.147   3.021  0.8414 -0.4336 -0.1185
 4572SOL    HW119553   4.557  12.064   3.013  1.0914 -0.2048 -1.1757
 4572SOL    HW219554   4.454  12.150   2.943  0.3982  0.1251  0.2147
 4573SOL     OW19555   2.043  10.861  11.150  0.7820  0.7589 -0.3732
 4573SOL    HW119556   1.970  10.800  11.139  2.7279 -1.5499 -1.3893
 4573SOL    HW219557   2.064  10.890  11.061  0.4076  2.3568  0.0224
 4574SOL     OW19558   5.783  11.507   2.851 -0.4431  0.4526 -0.6064
 4574SOL    HW119559   5.776  11.602   2.844  0.4930  0.4671 -1.5658
 4574SOL    HW219560   5.809  11.478   2.763  1.2723 -0.5006  0.1585
 4575SOL     OW19561   4.892   6.037  11.406  0.4702  0.1303  0.7986
 4575SOL    HW119562   4.935   6.015  11.488  1.4746  0.9602  0.5275
 4575SOL    HW219563   4.802   6.060  11.430  1.2516  2.2174  1.9614
 4576SOL     OW19564  11.515   2.621   8.321 -0.1481 -0.2345 -0.2325
 4576SOL    HW119565  11.519   2.697   8.379 -2.3259 -0.2588  0.0342
 4576SOL    HW219566  11.593   2.570   8.343  0.7990  1.3813  0.3264
 4577SOL     OW19567   7.919  11.163  12.322 -0.2673  0.4415  0.1454
 4577SOL    HW119568   7.842  11.119  12.360 -0.9739 -0.2836 -1.9840
 4577SOL    HW219569   7.991  11.102  12.338 -0.6360 -0.0578 -0.0671
 4578SOL     OW19570   1.661   2.012   2.647 -0.1308  0.1295  0.2593
 4578SOL    HW119571   1.729   2.078   2.637 -0.0974  0.0588 -0.0066
 4578SOL    HW219572   1.594   2.054   2.700 -0.5042  0.6900 -0.6230
 4579SOL     OW19573   4.608   3.800   4.768 -0.2497  0.0137 -0.6908
 4579SOL    HW119574   4.582   3.789   4.860  0.5081 -1.2926 -0.6010
 4579SOL    HW219575   4.687   3.746   4.759  0.4068  1.1075 -1.8096
 4580SOL     OW19576   0.917   1.316   1.887  0.2901 -0.2022 -0.1062
 4580SOL    HW119577   0.824   1.332   1.872 -0.2907 -3.1198 -0.0889
 4580SOL    HW219578   0.922   1.282   1.976  1.1515 -1.4958 -0.6271
 4581SOL     OW19579   3.557   1.705   7.822  0.5398 -0.4532  0.3793
 4581SOL    HW119580   3.597   1.637   7.875  0.5626 -2.2626 -1.8292
 4581SOL    HW219581   3.464   1.701   7.844  0.2777 -2.3884 -0.8926
 4582SOL     OW19582   7.386   7.399   6.600 -0.3057 -0.2652 -0.4226
 4582SOL    HW119583   7.400   7.494   6.596  2.3674 -0.5493 -0.0401
 4582SOL    HW219584   7.291   7.389   6.604 -0.6551  2.4192  0.3611
 4583SOL     OW19585  11.954   9.665   9.119 -0.5852 -1.0643  0.0350
 4583SOL    HW119586  11.924   9.730   9.183  2.8552  0.3168  0.4422
 4583SOL    HW219587  11.974   9.716   9.041  0.9551 -1.7778 -0.0763
 4584SOL     OW19588   6.616   7.908   8.573  0.1869 -0.2500 -0.6316
 4584SOL    HW119589   6.569   7.826   8.559  0.8759 -0.4223 -2.0908
 4584SOL    HW219590   6.666   7.922   8.493 -1.0688  2.3737 -1.0994
 4585SOL     OW19591   0.119   4.096  11.893  0.1071 -0.3634  0.5213
 4585SOL    HW119592   0.155   4.075  11.979 -0.1119 -0.6835  0.5352
 4585SOL    HW219593   0.027   4.073  11.899 -0.0561  0.2464  0.4130
 4586SOL     OW19594   5.635   0.209   9.746 -0.6255  0.6162 -0.5192
 4586SOL    HW119595   5.565   0.271   9.765  0.6977  1.9270  0.3135
 4586SOL    HW219596   5.709   0.264   9.721 -0.4312 -0.7790 -3.4385
 4587SOL     OW19597   6.593   9.803  12.164 -0.2059 -0.2568 -0.3731
 4587SOL    HW119598   6.670   9.858  12.173  0.5261 -1.0139 -1.6261
 4587SOL    HW219599   6.566   9.784  12.254 -0.5433  2.1508  0.0973
 4588SOL     OW19600  10.924   7.011   6.858  0.3190  0.1567  0.2263
 4588SOL    HW119601  10.855   6.978   6.917  0.2454 -0.8269 -0.3892
 4588SOL    HW219602  10.921   6.951   6.783 -0.6965  2.3048 -1.5643
 4589SOL     OW19603   3.836   1.558   8.787  0.0749  0.0079 -0.0422
 4589SOL    HW119604   3.863   1.509   8.865 -0.2265  0.3068  0.2524
 4589SOL    HW219605   3.902   1.535   8.721  0.5295  0.0184  0.3967
 4590SOL     OW19606   3.984   7.782   9.296  0.3031  0.1991  0.3293
 4590SOL    HW119607   4.049   7.711   9.297  0.1106 -0.0840  3.3088
 4590SOL    HW219608   3.906   7.743   9.336 -0.8512  1.2679 -0.7971
 4591SOL     OW19609  11.976   8.166   6.476 -0.0175 -0.7126  0.1958
 4591SOL    HW119610  11.950   8.234   6.539  0.3258  0.7677 -1.1737
 4591SOL    HW219611  11.910   8.171   6.407  1.6680  0.4499 -1.4418
 4592SOL     OW19612   1.925   7.116   7.893  0.5107  0.0299 -0.2028
 4592SOL    HW119613   1.891   7.161   7.815 -0.7413  2.1108  1.4545
 4592SOL    HW219614   2.006   7.163   7.914  0.7436 -0.4075 -0.0981
 4593SOL     OW19615   2.876   8.746  11.255 -0.2286  0.3031 -0.4277
 4593SOL    HW119616   2.959   8.699  11.255 -0.9716 -1.0649 -0.5980
 4593SOL    HW219617   2.886   8.813  11.187 -0.6562 -2.5487 -3.5768
 4594SOL     OW19618   4.315   7.343   6.850  0.2190 -0.1494  0.3044
 4594SOL    HW119619   4.370   7.291   6.908  0.1820  0.1342  0.5989
 4594SOL    HW219620   4.370   7.417   6.824 -0.5560  1.0578  1.9659
 4595SOL     OW19621   7.917   5.115   8.051  0.0826 -0.3978 -0.2346
 4595SOL    HW119622   7.999   5.161   8.031 -0.2935  0.4773  0.1892
 4595SOL    HW219623   7.898   5.137   8.142 -0.6374 -0.5829 -0.3346
 4596SOL     OW19624   4.052   2.014   3.445  0.0039  0.6270 -0.0144
 4596SOL    HW119625   4.020   2.098   3.412  0.1653  1.5377  2.0333
 4596SOL    HW219626   4.047   2.021   3.540 -0.3245 -1.8359  0.2275
 4597SOL     OW19627  11.216  11.836  11.837 -0.0517  0.5492  0.2206
 4597SOL    HW119628  11.249  11.834  11.927  1.9727 -2.1736 -0.4232
 4597SOL    HW219629  11.122  11.848  11.846  0.2915  2.0491  2.5823
 4598SOL     OW19630  11.558   9.119   4.640 -0.0589  0.0309  0.2715
 4598SOL    HW119631  11.621   9.163   4.696 -1.2022 -0.1847  1.7700
 4598SOL    HW219632  11.612   9.059   4.587  1.0627  0.3366  1.0281
 4599SOL     OW19633  11.790   6.964   5.309  0.2159  0.6245  0.9504
 4599SOL    HW119634  11.822   7.050   5.336 -2.0358  2.1078 -0.6408
 4599SOL    HW219635  11.843   6.941   5.232 -0.0424  1.2468  0.5819
 4600SOL     OW19636   7.002  10.158   4.168 -0.1163  0.3185 -0.1643
 4600SOL    HW119637   7.012  10.063   4.163  0.6153  0.3631  0.1692
 4600SOL    HW219638   7.088  10.189   4.198  0.1215  1.2077 -1.6661
 4601SOL     OW19639   0.039  10.206   9.043 -0.3551 -0.7527 -0.0635
 4601SOL    HW119640  -0.029  10.266   9.012 -1.0106 -2.1926 -1.5365
 4601SOL    HW219641   0.001  10.165   9.121 -0.5643 -0.4344  0.0031
 4602SOL     OW19642   1.538  10.450   5.130 -0.1428  0.5076 -0.3703
 4602SOL    HW119643   1.453  10.421   5.098 -1.1867  1.0228  1.7448
 4602SOL    HW219644   1.559  10.527   5.077 -1.8322  1.3843  0.1796
 4603SOL     OW19645   1.912   2.401   5.744  0.6376 -0.1833 -0.3959
 4603SOL    HW119646   1.842   2.467   5.747 -1.0592 -1.9050 -0.2573
 4603SOL    HW219647   1.892   2.348   5.666  0.7768 -1.7401  0.5877
 4604SOL     OW19648   7.853  12.232   7.934  0.5489  0.0264  0.1312
 4604SOL    HW119649   7.801  12.312   7.937 -0.1387 -0.3179 -1.5097
 4604SOL    HW219650   7.930  12.255   7.883  1.0242 -0.0248  0.8030
 4605SOL     OW19651   9.518   7.767  11.136  0.1289  0.0397  0.4812
 4605SOL    HW119652   9.607   7.738  11.119  0.5273  1.2215  0.4087
 4605SOL    HW219653   9.529   7.850  11.183 -0.9371  0.3186  0.2670
 4606SOL     OW19654   9.632  11.950   7.776  0.2329  0.0525  0.3067
 4606SOL    HW119655   9.697  11.957   7.845 -0.0675  0.7709  0.5208
 4606SOL    HW219656   9.615  12.040   7.749 -0.2134 -0.1691 -0.1790
 4607SOL     OW19657   8.442   5.150  10.854  0.1701  0.1535  0.3631
 4607SOL    HW119658   8.515   5.204  10.883 -0.1488  0.5657  0.4094
 4607SOL    HW219659   8.377   5.156  10.925  0.7359 -1.5245  1.0934
 4608SOL     OW19660   6.949   7.307   2.407  0.3957  0.6832 -0.0899
 4608SOL    HW119661   6.967   7.364   2.482  0.6963  1.2113 -0.5521
 4608SOL    HW219662   6.935   7.368   2.334  0.7722  0.1618 -0.6024
 4609SOL     OW19663   5.325  11.968   4.691 -0.2503 -0.5717  0.4048
 4609SOL    HW119664   5.260  12.034   4.714 -0.6499 -1.1700  1.0182
 4609SOL    HW219665   5.371  11.951   4.773  0.4213 -0.4492  0.0642
 4610SOL     OW19666   3.021   1.572   3.279 -0.3016 -0.4699 -0.1248
 4610SOL    HW119667   2.928   1.551   3.280  0.0017 -2.0056 -1.1948
 4610SOL    HW219668   3.028   1.647   3.218 -0.8354 -0.3101  0.0079
 4611SOL     OW19669   2.941   8.370   5.086 -0.1744  0.1275 -0.2765
 4611SOL    HW119670   2.921   8.294   5.030 -0.9508  1.1371 -1.4132
 4611SOL    HW219671   2.904   8.444   5.039  1.1726  1.3153  0.4741
 4612SOL     OW19672   3.803  12.314   6.836  0.2922 -0.6071  0.7566
 4612SOL    HW119673   3.837  12.334   6.923 -1.7928  1.0614  1.2638
 4612SOL    HW219674   3.732  12.252   6.851  0.3892 -0.8667  0.1618
 4613SOL     OW19675   4.223   8.078  12.049 -0.1564 -0.1012  0.0468
 4613SOL    HW119676   4.132   8.054  12.064 -0.0218  0.0574  1.2306
 4613SOL    HW219677   4.243   8.138  12.121  1.2319 -1.0593  0.4938
 4614SOL     OW19678   9.709   4.079   4.139 -0.2833  0.0126  0.3795
 4614SOL    HW119679   9.743   4.004   4.089 -2.5814 -1.3537  0.7321
 4614SOL    HW219680   9.787   4.128   4.165  1.2188 -1.5399 -0.9810
 4615SOL     OW19681  11.724   4.006   2.993 -0.7560 -0.1382 -0.4503
 4615SOL    HW119682  11.800   3.977   3.045  0.1175 -0.6815 -1.9650
 4615SOL    HW219683  11.708   3.933   2.933 -2.0001  0.3081 -0.6762
 4616SOL     OW19684   1.485   5.228  12.107 -0.0086 -0.1306  0.2935
 4616SOL    HW119685   1.563   5.273  12.141 -0.6868  0.9704  0.4293
 4616SOL    HW219686   1.488   5.242  12.013 -1.0844  1.6811  0.4840
 4617SOL     OW19687   0.894   2.076   3.716  0.1447 -0.3177 -0.7765
 4617SOL    HW119688   0.894   1.986   3.750  3.1753  0.0317  0.5061
 4617SOL    HW219689   0.891   2.066   3.621 -1.5596 -1.6593 -0.6180
 4618SOL     OW19690   6.569   1.826   7.784 -0.2223  0.2752 -0.0927
 4618SOL    HW119691   6.548   1.910   7.824 -0.8281  0.4356 -0.7351
 4618SOL    HW219692   6.663   1.816   7.799 -0.5058  0.0335  1.9091
 4619SOL     OW19693   8.070   7.361   1.720 -0.5156  0.0300  0.6506
 4619SOL    HW119694   8.045   7.363   1.628 -1.0203 -1.3885  0.7376
 4619SOL    HW219695   8.015   7.427   1.762 -0.3002  0.6661 -0.0484
 4620SOL     OW19696   0.321  11.462   6.703 -0.5182 -0.6663 -0.2235
 4620SOL    HW119697   0.360  11.400   6.641  0.1598 -1.1735  0.6713
 4620SOL    HW219698   0.373  11.451   6.783  0.0942  1.5931 -0.2484
 4621SOL     OW19699   4.509   5.992   6.948  0.2487  0.0409 -0.1308
 4621SOL    HW119700   4.499   5.908   6.992  0.9634  0.0357  0.0355
 4621SOL    HW219701   4.446   6.049   6.991 -0.1800 -0.3874 -0.1869
 4622SOL     OW19702   6.949   4.082  11.720  0.7501 -0.1549 -0.4185
 4622SOL    HW119703   7.035   4.099  11.759  0.6082  0.7330 -0.4700
 4622SOL    HW219704   6.968   4.065  11.628  0.9221 -0.5209 -0.3166
 4623SOL     OW19705   2.573   5.408   0.755  0.1048 -0.1223  0.1230
 4623SOL    HW119706   2.522   5.486   0.734 -0.3246 -0.1923  0.8619
 4623SOL    HW219707   2.539   5.379   0.840  0.9085 -0.5701  0.3026
 4624SOL     OW19708  12.092  10.341   3.041 -0.3056  0.3061  0.1758
 4624SOL    HW119709  12.103  10.433   3.067  1.5374  0.3882 -0.7120
 4624SOL    HW219710  12.014  10.340   2.987 -0.1432  1.4348 -0.1055
 4625SOL     OW19711   9.018   0.882   1.174  0.0738 -0.0159 -0.5632
 4625SOL    HW119712   9.080   0.817   1.142  0.8012  0.5211 -0.2641
 4625SOL    HW219713   9.025   0.954   1.111 -2.3943 -1.0827 -2.2507
 4626SOL     OW19714   5.596   7.502   4.494  0.3395  0.2553 -0.0842
 4626SOL    HW119715   5.638   7.475   4.412  1.2165 -0.1233  0.4771
 4626SOL    HW219716   5.659   7.562   4.534  0.3740 -0.3590  0.7978
 4627SOL     OW19717   0.382   6.345   8.723 -0.0823  0.2751  0.0790
 4627SOL    HW119718   0.474   6.373   8.722 -0.0832  0.2890  0.3143
 4627SOL    HW219719   0.385   6.251   8.738 -0.1342  0.4319  1.1863
 4628SOL     OW19720   7.785   0.645   7.792 -0.1988  0.1648  0.1342
 4628SOL    HW119721   7.850   0.621   7.725  0.4553  1.3274  0.3308
 4628SOL    HW219722   7.703   0.652   7.745  0.3092  1.2536 -0.6225
 4629SOL     OW19723   7.279   3.695   3.782 -0.0527  0.4746 -0.3161
 4629SOL    HW119724   7.244   3.754   3.849  0.0670 -0.5805  0.6985
 4629SOL    HW219725   7.245   3.730   3.699 -1.7318  0.7165  0.4483
 4630SOL     OW19726  11.772   1.079   2.392 -0.1441  0.1918 -0.2955
 4630SOL    HW119727  11.725   1.064   2.474  0.3566  1.4396  0.2534
 4630SOL    HW219728  11.847   1.020   2.396 -0.3705 -0.0854 -0.0786
 4631SOL     OW19729  11.551   9.674  12.157  0.3403 -0.0206  0.3305
 4631SOL    HW119730  11.562   9.718  12.242  2.2221  0.3857 -0.0646
 4631SOL    HW219731  11.552   9.581  12.177  0.5237  0.0768  0.7776
 4632SOL     OW19732  10.695   9.827   9.310  0.2795 -0.0301  0.3877
 4632SOL    HW119733  10.601   9.810   9.320 -0.0046  0.9786 -0.4212
 4632SOL    HW219734  10.735   9.740   9.311 -0.6308 -0.4569  0.9792
 4633SOL     OW19735   1.134   9.270   4.577 -0.2195  0.6354 -0.1209
 4633SOL    HW119736   1.228   9.253   4.579 -0.1917  0.5156 -1.3620
 4633SOL    HW219737   1.096   9.206   4.637  0.1986 -1.6106 -2.0999
 4634SOL     OW19738   0.703   5.238  11.641 -0.1959  0.1399  0.2398
 4634SOL    HW119739   0.648   5.179  11.693  1.9441 -1.7089  0.5736
 4634SOL    HW219740   0.648   5.313  11.624 -2.8619 -1.6470  0.4062
 4635SOL     OW19741   3.967   9.441  12.067  0.4658 -0.8230  0.5319
 4635SOL    HW119742   3.920   9.388  12.131 -0.0606 -0.0407  0.7993
 4635SOL    HW219743   3.899   9.474  12.008  0.6505  0.4195  0.9880
 4636SOL     OW19744   5.260  11.311   8.372 -0.4577 -0.3418 -0.0372
 4636SOL    HW119745   5.187  11.270   8.327  0.5068 -0.4132 -1.6027
 4636SOL    HW219746   5.233  11.402   8.384 -0.9708 -0.4680 -0.2272
 4637SOL     OW19747   3.611   9.168   6.775 -0.2309  0.0463  0.2944
 4637SOL    HW119748   3.555   9.090   6.768 -0.2054 -0.0162  0.7419
 4637SOL    HW219749   3.637   9.186   6.685  0.4401 -0.9632  0.2642
 4638SOL     OW19750  11.328   6.756  12.074  0.5361  0.2643 -0.7225
 4638SOL    HW119751  11.318   6.820  12.144 -2.2215  1.1520 -1.8133
 4638SOL    HW219752  11.390   6.797  12.013 -1.6121  2.2754 -1.6922
 4639SOL     OW19753  11.837   7.790   0.912 -0.2886 -0.0652 -0.1137
 4639SOL    HW119754  11.844   7.858   0.979 -3.2483  1.2785 -0.9902
 4639SOL    HW219755  11.832   7.708   0.961  1.2200  0.4906  1.0573
 4640SOL     OW19756   7.659  10.336   0.510  0.0057  0.1257 -0.5940
 4640SOL    HW119757   7.586  10.290   0.468  0.9961 -2.2988  0.1454
 4640SOL    HW219758   7.640  10.330   0.604  0.8348  0.0185 -0.4288
 4641SOL     OW19759  11.518  11.061   6.296  0.1883 -0.2935 -0.6424
 4641SOL    HW119760  11.578  10.988   6.283 -0.8532 -1.6886  1.7675
 4641SOL    HW219761  11.574  11.139   6.292  1.8127 -1.4045 -0.4593
 4642SOL     OW19762   7.582   2.824   2.115  0.0922  0.1629 -0.2207
 4642SOL    HW119763   7.520   2.859   2.179 -1.0685 -1.2776 -0.5067
 4642SOL    HW219764   7.618   2.746   2.157  0.1066 -0.2065 -0.9216
 4643SOL     OW19765  11.181   9.266  11.452 -0.1524  0.1644 -0.3352
 4643SOL    HW119766  11.220   9.180  11.468 -0.7048 -0.2370 -1.0910
 4643SOL    HW219767  11.226   9.325  11.513  1.3989 -0.3437 -0.9390
 4644SOL     OW19768   1.932   5.507   6.112 -0.1593 -0.5623  0.1964
 4644SOL    HW119769   1.898   5.589   6.148  0.2335 -0.1338 -0.3822
 4644SOL    HW219770   1.973   5.533   6.030  1.2069 -1.1385  0.6786
 4645SOL     OW19771   1.564  12.326   2.396  0.0391 -0.0729 -0.1701
 4645SOL    HW119772   1.622  12.402   2.401 -0.3826  0.2343  0.0669
 4645SOL    HW219773   1.578  12.292   2.308 -0.9602  1.2354 -0.8656
 4646SOL     OW19774   5.830  12.325   2.136 -0.6194  0.2669  0.6629
 4646SOL    HW119775   5.788  12.239   2.137  0.3832 -0.2409  0.9402
 4646SOL    HW219776   5.790  12.371   2.063 -1.8497 -0.0933  1.0944
 4647SOL     OW19777   6.415   7.835   6.104  0.3001  0.8145 -0.4832
 4647SOL    HW119778   6.438   7.916   6.150  1.2814  1.0831 -1.4061
 4647SOL    HW219779   6.414   7.768   6.173  0.8535  1.3620  0.0749
 4648SOL     OW19780   6.596   0.014  12.215 -0.4888  0.1689  0.2524
 4648SOL    HW119781   6.556   0.008  12.302 -1.2584  0.6816 -0.0527
 4648SOL    HW219782   6.529   0.054  12.161  0.1142  0.1790 -0.5051
 4649SOL     OW19783   8.910   4.931   6.141 -0.3223 -0.0691  0.3662
 4649SOL    HW119784   8.967   4.877   6.085 -0.2886  2.2569 -2.0464
 4649SOL    HW219785   8.856   4.867   6.188 -0.3574 -2.2613 -2.3468
 4650SOL     OW19786   5.282   3.093   2.544 -0.3011 -0.4657  0.3229
 4650SOL    HW119787   5.215   3.122   2.482  0.5148  0.4821 -0.1587
 4650SOL    HW219788   5.241   3.023   2.594 -0.5183 -2.3291 -2.2916
 4651SOL     OW19789  10.294   1.558   4.052 -0.1747 -0.1132 -0.3687
 4651SOL    HW119790  10.324   1.478   4.096  1.3677  0.1440 -0.8636
 4651SOL    HW219791  10.355   1.569   3.979  0.3613  2.1043  0.3336
 4652SOL     OW19792   2.672   1.556   5.281 -0.2252  0.1611  0.7516
 4652SOL    HW119793   2.619   1.631   5.255 -0.6159 -0.0994  0.7932
 4652SOL    HW219794   2.690   1.509   5.199  0.8065  0.8032  0.5968
 4653SOL     OW19795   5.273   8.729   2.419 -0.3056 -0.0420 -0.0691
 4653SOL    HW119796   5.323   8.809   2.406  1.0434 -0.8675 -0.2379
 4653SOL    HW219797   5.238   8.737   2.508 -1.7345  1.5081 -0.7265
 4654SOL     OW19798   0.316   2.520   2.178 -0.0561 -0.1656  0.1165
 4654SOL    HW119799   0.318   2.426   2.158 -0.1884 -0.9295  3.1508
 4654SOL    HW219800   0.223   2.541   2.187 -0.0792  0.5302 -1.3864
 4655SOL     OW19801   2.656   5.664  10.637  0.5660  0.4010 -0.5903
 4655SOL    HW119802   2.599   5.612  10.581  0.9518  0.7635 -1.3278
 4655SOL    HW219803   2.731   5.606  10.655 -0.2762 -0.2983  0.8716
 4656SOL     OW19804   7.089   7.120   9.255 -0.7555 -0.0347 -0.0043
 4656SOL    HW119805   7.003   7.161   9.261 -0.3231  1.1605 -1.3878
 4656SOL    HW219806   7.125   7.152   9.172  0.4119 -1.7012 -0.1896
 4657SOL     OW19807   5.017   5.028   7.692  0.6062  0.2878  0.1813
 4657SOL    HW119808   5.013   5.046   7.786 -1.5641  0.2910  0.1241
 4657SOL    HW219809   4.932   4.990   7.671  1.3926 -0.5824 -1.6283
 4658SOL     OW19810   3.299   4.757   3.349 -0.0046 -0.2121 -0.0955
 4658SOL    HW119811   3.276   4.726   3.436 -1.1078 -2.3761 -1.0802
 4658SOL    HW219812   3.376   4.706   3.325  1.1865  1.4103  0.1309
 4659SOL     OW19813   3.312   6.190   4.699  0.0976 -0.4100  0.5200
 4659SOL    HW119814   3.393   6.178   4.749 -0.3977  0.0949  1.4749
 4659SOL    HW219815   3.280   6.276   4.726  0.6898  0.6735 -1.9721
 4660SOL     OW19816   1.532   3.714   2.881 -0.0891  0.1718  0.7049
 4660SOL    HW119817   1.508   3.799   2.845 -1.4390 -0.0835  0.9346
 4660SOL    HW219818   1.558   3.662   2.805  0.9355  0.8354  0.5866
 4661SOL     OW19819   1.609   5.426   5.721  0.2228 -0.2251  0.1500
 4661SOL    HW119820   1.558   5.347   5.704 -1.9354  1.1907 -0.4553
 4661SOL    HW219821   1.584   5.485   5.650 -0.9211  2.1851  2.3840
 4662SOL     OW19822   6.543   1.715   1.291 -0.5769  0.5203 -0.4537
 4662SOL    HW119823   6.579   1.681   1.373 -1.0571  0.5533 -0.2286
 4662SOL    HW219824   6.556   1.809   1.296  0.3361  0.4392 -0.8780
 4663SOL     OW19825  12.023   9.905  10.635 -0.3704  0.4330 -0.5055
 4663SOL    HW119826  12.033   9.908  10.730  0.2064  2.9994 -0.5816
 4663SOL    HW219827  12.094   9.958  10.601 -0.3598 -0.7108 -2.4363
 4664SOL     OW19828   6.024  10.844   7.100 -0.7238 -0.0185  0.0928
 4664SOL    HW119829   5.981  10.789   7.166  1.5635  0.9725  2.5778
 4664SOL    HW219830   6.073  10.782   7.046 -0.3964 -0.6659  1.0991
 4665SOL     OW19831   6.117   8.029   8.754  0.6231  0.1140  0.3510
 4665SOL    HW119832   6.195   8.003   8.705 -0.7664  1.8818 -3.1149
 4665SOL    HW219833   6.065   7.949   8.759  0.2894  0.0879 -2.2699
 4666SOL     OW19834   3.090   3.210  12.087  0.8169  0.0736 -0.0712
 4666SOL    HW119835   3.121   3.124  12.116  1.7343  1.0477  2.0077
 4666SOL    HW219836   3.036   3.191  12.010  0.1653 -2.4609  0.9117
 4667SOL     OW19837   1.669   0.784  10.633 -0.8087 -0.3244  0.2317
 4667SOL    HW119838   1.746   0.794  10.688 -1.0336 -1.1778  0.7115
 4667SOL    HW219839   1.675   0.857  10.570 -0.0038  0.0373  0.7133
 4668SOL     OW19840   9.004   4.335   7.013  0.0347 -0.2650  0.1205
 4668SOL    HW119841   9.044   4.302   7.093 -0.3011 -0.7383  0.0928
 4668SOL    HW219842   9.003   4.430   7.024  2.3894 -0.1232 -0.4495
 4669SOL     OW19843   8.910   0.867   7.592 -0.1641  0.1226  0.1743
 4669SOL    HW119844   8.982   0.930   7.600  0.1414  0.0750 -1.6536
 4669SOL    HW219845   8.945   0.800   7.534 -0.8204 -1.2686  1.3422
 4670SOL     OW19846   5.786   6.266  11.327  0.1577  0.7368  0.0584
 4670SOL    HW119847   5.820   6.355  11.318 -2.1240  1.5943 -0.7805
 4670SOL    HW219848   5.713   6.262  11.265  1.4444 -2.4150 -1.4921
 4671SOL     OW19849   7.407  12.106   4.217  0.6585 -0.3105 -0.4791
 4671SOL    HW119850   7.365  12.036   4.168  0.4866 -0.3703 -0.2449
 4671SOL    HW219851   7.496  12.074   4.234  0.1625 -1.0621  0.8297
 4672SOL     OW19852   3.403  11.153   3.553 -0.3506 -0.1985 -0.7266
 4672SOL    HW119853   3.388  11.059   3.549 -1.2435 -0.0329 -2.0556
 4672SOL    HW219854   3.358  11.188   3.476 -0.4759  1.3729  0.0081
 4673SOL     OW19855   1.140  11.452   9.587  0.3949  0.3429  0.1754
 4673SOL    HW119856   1.104  11.372   9.549  0.0206  0.0545  1.0972
 4673SOL    HW219857   1.077  11.476   9.656  0.4675  1.4682 -0.1296
 4674SOL     OW19858   8.197   6.186   1.382 -0.1523  0.1362 -0.8685
 4674SOL    HW119859   8.228   6.238   1.456  0.2438 -0.5205 -0.5571
 4674SOL    HW219860   8.102   6.181   1.393  0.0395 -1.3270  0.5485
 4675SOL     OW19861   4.716   4.610   6.460 -0.0333  0.1015 -0.3444
 4675SOL    HW119862   4.694   4.629   6.551 -0.0162 -2.3017  0.2436
 4675SOL    HW219863   4.750   4.692   6.425  0.8761  0.8514  2.1094
 4676SOL     OW19864   6.993   7.926   4.582 -0.4546 -0.2828  0.3814
 4676SOL    HW119865   6.975   8.011   4.623 -0.8683 -0.5579  0.7738
 4676SOL    HW219866   6.984   7.863   4.653 -0.7959 -0.7250 -0.0501
 4677SOL     OW19867   7.979   3.617   9.653  0.0315  0.4391 -0.5198
 4677SOL    HW119868   8.067   3.580   9.642 -0.7490 -1.2035 -1.5629
 4677SOL    HW219869   7.939   3.564   9.721 -0.6948  0.1189 -1.1798
 4678SOL     OW19870   6.928   6.168   7.120  0.0640 -0.0291  0.2797
 4678SOL    HW119871   6.866   6.156   7.048  1.2601 -0.3155 -0.7422
 4678SOL    HW219872   7.012   6.186   7.076  0.7000  0.3610  1.6201
 4679SOL     OW19873   6.755   4.043  10.042  0.1509 -0.1940 -0.1954
 4679SOL    HW119874   6.714   4.044  10.128  0.3693 -0.0138 -0.0945
 4679SOL    HW219875   6.710   4.112   9.993  1.2444  0.9326  0.3395
 4680SOL     OW19876   2.892  11.493   1.736  0.8079  0.1555  0.3448
 4680SOL    HW119877   2.884  11.586   1.759  1.2185  0.9051 -2.2657
 4680SOL    HW219878   2.801  11.465   1.723  0.7602  0.5688 -0.2265
 4681SOL     OW19879  12.095  11.483  12.177  0.1997  0.4899  0.2674
 4681SOL    HW119880  12.032  11.412  12.164 -0.8804  1.5469 -0.6300
 4681SOL    HW219881  12.180  11.443  12.164 -0.3138 -0.8417  0.8000
 4682SOL     OW19882   7.795   7.899   2.964  0.1005  0.1705 -0.1101
 4682SOL    HW119883   7.886   7.914   2.938  0.2551  0.1476  0.3966
 4682SOL    HW219884   7.779   7.964   3.032 -0.1063 -0.1410  0.1422
 4683SOL     OW19885   8.576   2.597   1.414  1.0175 -0.1375  0.3046
 4683SOL    HW119886   8.506   2.594   1.349  0.5406  0.5073  0.7782
 4683SOL    HW219887   8.548   2.663   1.477  2.1459  0.2715  0.3988
 4684SOL     OW19888   1.862   9.892   8.593 -0.1923 -0.2670 -0.0953
 4684SOL    HW119889   1.768   9.872   8.592 -0.0471 -1.0013  0.1173
 4684SOL    HW219890   1.875   9.938   8.675 -0.3921 -0.0452 -0.1873
 4685SOL     OW19891   3.940   7.882   5.208 -0.2751  0.1821 -0.3427
 4685SOL    HW119892   3.943   7.934   5.288  1.3271 -0.7597  0.2765
 4685SOL    HW219893   3.847   7.877   5.185 -1.5813 -3.4517  4.1819
 4686SOL     OW19894   7.287   0.329   5.875 -0.1091 -0.7047  0.4020
 4686SOL    HW119895   7.195   0.304   5.869  0.3359 -2.8688  1.4301
 4686SOL    HW219896   7.287   0.416   5.913 -1.7203 -1.1970  1.6251
 4687SOL     OW19897   8.260   9.220   2.078 -0.1338  0.1266  0.5185
 4687SOL    HW119898   8.331   9.281   2.098 -0.0769 -0.3988  2.0371
 4687SOL    HW219899   8.206   9.267   2.014  1.6951  0.4139 -0.9186
 4688SOL     OW19900   3.396   6.545   2.949 -0.2110  0.5665  0.2104
 4688SOL    HW119901   3.421   6.637   2.951  0.1787  0.4558  2.2567
 4688SOL    HW219902   3.428   6.509   3.032 -1.0304 -1.2306 -0.2011
 4689SOL     OW19903   4.457  11.613   3.499  0.0429 -0.0644 -0.1397
 4689SOL    HW119904   4.535  11.667   3.507  0.4055 -0.6732  0.6760
 4689SOL    HW219905   4.491  11.525   3.483 -0.3998 -0.5710  1.5124
 4690SOL     OW19906   2.984   1.145   4.401  0.0720  0.1551 -0.1170
 4690SOL    HW119907   2.942   1.150   4.315 -0.1630  1.5781  0.0614
 4690SOL    HW219908   3.028   1.060   4.402 -0.6897 -0.2631 -1.2886
 4691SOL     OW19909   9.477   8.376   0.647 -1.1291  0.3273  0.4352
 4691SOL    HW119910   9.567   8.379   0.680 -0.6449 -0.4884 -0.7279
 4691SOL    HW219911   9.485   8.334   0.561 -2.4491  1.5105 -0.3059
 4692SOL     OW19912   3.686   3.101   7.914  0.0182  0.2862 -0.9651
 4692SOL    HW119913   3.594   3.126   7.910 -0.1524  0.1270  1.0175
 4692SOL    HW219914   3.703   3.057   7.830 -2.4104 -1.9432 -0.4220
 4693SOL     OW19915   6.464   7.256  10.701 -0.7726  0.5898  0.5659
 4693SOL    HW119916   6.395   7.192  10.682  0.5336 -0.4308 -0.9966
 4693SOL    HW219917   6.418   7.340  10.703 -1.8831  0.1914 -2.2707
 4694SOL     OW19918   0.526   8.886   2.625 -0.2713  0.0627 -0.4770
 4694SOL    HW119919   0.599   8.833   2.592  0.7593  1.8329 -1.1717
 4694SOL    HW219920   0.506   8.946   2.553  0.4898  2.5044  1.2344
 4695SOL     OW19921   6.761   3.236   7.175  0.0916  0.3385 -0.2837
 4695SOL    HW119922   6.785   3.296   7.105 -2.1782  0.1036 -1.3669
 4695SOL    HW219923   6.800   3.152   7.149  2.7521  1.0939  0.9280
 4696SOL     OW19924   2.035   3.569   9.646 -0.0725 -0.3505 -0.6077
 4696SOL    HW119925   2.076   3.544   9.729  0.9639 -0.0611 -1.0159
 4696SOL    HW219926   1.941   3.562   9.662  0.0353  1.6638  1.2129
 4697SOL     OW19927  10.230   2.946   4.741  0.1802  0.4190 -0.4470
 4697SOL    HW119928  10.251   3.023   4.793  0.4603  0.3924 -0.5180
 4697SOL    HW219929  10.143   2.964   4.705  0.0626  0.5135 -0.1188
 4698SOL     OW19930   8.062   6.491   5.233 -0.3703 -0.1380 -0.1816
 4698SOL    HW119931   7.992   6.488   5.168 -0.4447  0.8955 -0.1544
 4698SOL    HW219932   8.138   6.454   5.188 -0.4876  0.3424 -0.7776
 4699SOL     OW19933   9.209   6.223   6.455  0.2936  0.1782 -0.0925
 4699SOL    HW119934   9.154   6.146   6.470  2.6074 -1.9272 -1.6480
 4699SOL    HW219935   9.152   6.283   6.406 -0.7855 -1.7798 -1.4052
 4700SOL     OW19936   1.631   5.787  11.052 -0.4225  0.5890 -0.7706
 4700SOL    HW119937   1.616   5.773  11.145 -0.4112 -1.0409 -0.9865
 4700SOL    HW219938   1.726   5.782  11.042 -0.4538  0.2829 -0.9325
 4701SOL     OW19939   8.237   1.583   0.566  0.2994  1.0743 -0.1256
 4701SOL    HW119940   8.250   1.595   0.472  2.8686  3.9455  0.4337
 4701SOL    HW219941   8.325   1.577   0.602 -0.4634  2.9519  2.3402
 4702SOL     OW19942   8.640   8.276   6.629  0.0513 -0.0294  0.6031
 4702SOL    HW119943   8.682   8.284   6.714 -0.7231 -0.1196  1.0001
 4702SOL    HW219944   8.569   8.341   6.630  0.0178 -0.0443  0.0377
 4703SOL     OW19945   9.059   4.968   8.435  0.0491  0.2404  0.4568
 4703SOL    HW119946   8.973   4.975   8.477  0.3668  0.0846  1.1537
 4703SOL    HW219947   9.119   4.947   8.507  0.6505  0.2203 -0.0412
 4704SOL     OW19948  10.167   3.295   7.776 -0.3514  0.4502  0.2289
 4704SOL    HW119949  10.201   3.206   7.775  1.2667  1.0119  0.7032
 4704SOL    HW219950  10.141   3.312   7.685  1.4265  0.2151 -0.3743
 4705SOL     OW19951   8.525   9.122   4.026  0.5276 -0.0712  0.2264
 4705SOL    HW119952   8.467   9.155   4.094  1.6615  1.3381  0.5587
 4705SOL    HW219953   8.579   9.197   4.002  0.4729 -0.6615 -1.9068
 4706SOL     OW19954   2.628   9.724  12.146  0.4782 -0.4446  0.4381
 4706SOL    HW119955   2.586   9.734  12.232 -1.4815  0.3525 -0.5470
 4706SOL    HW219956   2.608   9.805  12.100  2.9415 -0.1308 -0.2376
 4707SOL     OW19957  11.197   5.408   8.022 -0.1006 -0.0645 -0.5608
 4707SOL    HW119958  11.184   5.330   7.967 -1.3530  1.1668 -2.1149
 4707SOL    HW219959  11.291   5.423   8.020  0.0859 -1.1552 -0.7885
 4708SOL     OW19960   6.168   0.907  10.319  0.2188  0.3422 -0.4173
 4708SOL    HW119961   6.225   0.842  10.279 -1.7032 -0.7825 -1.4639
 4708SOL    HW219962   6.167   0.979  10.256  0.8268  0.5737 -0.1709
 4709SOL     OW19963   4.589   6.824   8.443  0.5903  0.2825  0.1666
 4709SOL    HW119964   4.600   6.762   8.372  1.6083  1.0934 -0.4180
 4709SOL    HW219965   4.528   6.890   8.409 -0.0013 -0.0582  0.5554
 4710SOL     OW19966  12.262   9.687   1.530  0.0583  0.6876  0.1837
 4710SOL    HW119967  12.260   9.743   1.453  1.6821 -0.2819 -0.6216
 4710SOL    HW219968  12.235   9.601   1.497  1.6479  0.0516  0.4479
 4711SOL     OW19969   9.936   3.724   2.806 -0.0193  0.1564  0.0088
 4711SOL    HW119970   9.912   3.648   2.860  2.9800 -0.6143  0.4483
 4711SOL    HW219971  10.017   3.698   2.762 -0.5399  2.0256 -2.2963
 4712SOL     OW19972   0.611   5.486   1.983  0.2128 -0.2651 -0.3977
 4712SOL    HW119973   0.665   5.418   1.942 -0.1502  0.3027 -1.8829
 4712SOL    HW219974   0.553   5.515   1.913  0.7255  1.9384  0.0333
 4713SOL     OW19975  12.235  11.413   4.702 -0.1869 -0.7144 -0.4253
 4713SOL    HW119976  12.314  11.379   4.659 -0.1818  0.1181 -1.0857
 4713SOL    HW219977  12.261  11.499   4.735 -0.7239 -0.5790 -0.3513
 4714SOL     OW19978   6.647   7.931   5.531 -0.1702 -0.3345 -0.3643
 4714SOL    HW119979   6.679   8.004   5.477  1.4593  0.1787  1.1672
 4714SOL    HW219980   6.613   7.973   5.610 -2.9777 -1.0334 -1.1089
 4715SOL     OW19981  10.148   0.546   5.136  0.1245  0.0448 -0.1111
 4715SOL    HW119982  10.179   0.522   5.048 -0.8754  0.0352 -0.4784
 4715SOL    HW219983  10.196   0.625   5.158 -1.1977  1.3264 -1.6210
 4716SOL     OW19984   3.781   3.574   2.158 -0.1177 -0.3437 -0.4620
 4716SOL    HW119985   3.866   3.615   2.169 -0.0517 -0.6591  0.2485
 4716SOL    HW219986   3.744   3.569   2.246 -0.6571 -0.6610 -0.6962
 4717SOL     OW19987  11.291   7.917   5.947  0.0491 -0.2749  0.5418
 4717SOL    HW119988  11.229   7.844   5.951  0.4747 -0.5824  2.3839
 4717SOL    HW219989  11.236   7.995   5.957 -0.4213 -0.2771 -1.5549
 4718SOL     OW19990  10.498   3.476   1.020 -1.0732  0.2637 -0.1823
 4718SOL    HW119991  10.571   3.525   1.059 -0.4271  0.3840 -1.4747
 4718SOL    HW219992  10.529   3.454   0.932 -2.2401 -0.5184 -0.4164
 4719SOL     OW19993   3.667   9.123   2.277  0.0883  0.5009 -0.1276
 4719SOL    HW119994   3.597   9.059   2.275 -0.8123  1.4379  0.5619
 4719SOL    HW219995   3.658   9.171   2.194  0.4246  0.1050 -0.3982
 4720SOL     OW19996   2.723   5.615   3.645 -0.1486 -0.2940 -0.3889
 4720SOL    HW119997   2.648   5.636   3.700  0.6677  0.5549  0.4344
 4720SOL    HW219998   2.777   5.557   3.699  0.4936  0.2661 -0.4230
 4721SOL     OW19999   9.713   4.252  11.373  0.4333 -0.0109  0.6431
 4721SOL    HW120000   9.738   4.344  11.369  0.4892  0.0043  1.2130
 4721SOL    HW220001   9.782   4.210  11.425 -0.0391 -0.2072  1.1281
 4722SOL     OW20002   2.258  12.222  10.956 -0.3983  0.5704  0.1367
 4722SOL    HW120003   2.224  12.224  10.866 -0.1362 -3.1244 -0.2036
 4722SOL    HW220004   2.352  12.212  10.946 -0.4990 -1.2527  0.7341
 4723SOL     OW20005   9.869   0.490   8.968  0.2034 -0.5604  0.3449
 4723SOL    HW120006   9.909   0.434   9.035 -0.8783 -2.0362 -0.1753
 4723SOL    HW220007   9.940   0.506   8.905  0.5999 -1.1959  0.6137
 4724SOL     OW20008   4.818   8.288   3.884  0.0819 -0.0806  0.8929
 4724SOL    HW120009   4.828   8.329   3.798 -0.9978  1.8101  1.6028
 4724SOL    HW220010   4.802   8.196   3.866 -0.4372  0.3397 -0.9626
 4725SOL     OW20011   9.698   4.111   0.875  0.2652  0.0897  0.0644
 4725SOL    HW120012   9.606   4.098   0.854  0.3835 -0.8546  0.0890
 4725SOL    HW220013   9.736   4.023   0.873  1.5950  0.6287 -1.9445
 4726SOL     OW20014   1.899   5.781   0.126 -0.2653  0.3659 -0.4705
 4726SOL    HW120015   1.842   5.826   0.189 -0.8256  0.1706 -0.8289
 4726SOL    HW220016   1.892   5.688   0.150  0.4364  0.4066 -0.0926
 4727SOL     OW20017  10.355   8.630   1.492  0.7304  0.7381 -0.3848
 4727SOL    HW120018  10.404   8.573   1.551 -0.7068  1.9745  2.1487
 4727SOL    HW220019  10.423   8.684   1.450  1.7267  0.5616  0.9396
 4728SOL     OW20020   0.487   4.701   8.738  0.1319  0.0145 -0.0243
 4728SOL    HW120021   0.519   4.633   8.798 -1.3157  0.5619  1.4637
 4728SOL    HW220022   0.439   4.653   8.671 -1.6915 -0.4535  1.5335
 4729SOL     OW20023  11.430   8.488   3.031 -0.4798  0.2850  0.0380
 4729SOL    HW120024  11.520   8.512   3.051 -0.8255 -0.1692  2.4048
 4729SOL    HW220025  11.402   8.552   2.965  1.4894  0.5297 -0.6230
 4730SOL     OW20026  10.107   3.055   7.365 -0.7330  0.0797 -0.1713
 4730SOL    HW120027  10.041   2.986   7.355 -1.2317  0.6048 -0.6382
 4730SOL    HW220028  10.058   3.129   7.402  0.0215 -0.1571  1.3691
 4731SOL     OW20029  11.158   0.756   6.309  0.0809  0.7004 -0.1708
 4731SOL    HW120030  11.128   0.842   6.281  0.8504  0.5937 -1.4249
 4731SOL    HW220031  11.083   0.698   6.293 -0.8252  1.2855  1.7292
 4732SOL     OW20032   2.769   4.805   9.915  0.2171  0.0226  0.6011
 4732SOL    HW120033   2.860   4.782   9.900  0.0186  0.2448 -1.2889
 4732SOL    HW220034   2.764   4.826  10.008  1.5095 -2.4120  1.2983
 4733SOL     OW20035   6.735  11.627   7.710 -0.1078  0.3381  0.1820
 4733SOL    HW120036   6.802  11.695   7.718  0.1027  0.1720 -0.1573
 4733SOL    HW220037   6.657  11.673   7.680  0.4503  0.2080 -1.5522
 4734SOL     OW20038   5.480   5.354   9.370 -0.3911 -0.0458  0.1344
 4734SOL    HW120039   5.402   5.310   9.403 -1.0824 -0.4649 -1.8988
 4734SOL    HW220040   5.476   5.442   9.408 -1.5776 -0.2274  0.4626
 4735SOL     OW20041   0.275   6.585   3.149 -0.2499 -0.0492  0.0392
 4735SOL    HW120042   0.284   6.679   3.139 -1.5980  0.0431 -0.5146
 4735SOL    HW220043   0.183   6.567   3.128 -0.2466 -1.3738  0.9899
 4736SOL     OW20044   3.747   7.374  11.813 -0.2433  0.2539  0.4597
 4736SOL    HW120045   3.769   7.351  11.723 -0.1514 -0.8373  0.7507
 4736SOL    HW220046   3.662   7.331  11.829 -0.0803  0.1216  1.0075
 4737SOL     OW20047   4.570   0.855   5.613 -0.4193  0.0101  0.1273
 4737SOL    HW120048   4.642   0.871   5.553 -0.2795  1.2031  0.5950
 4737SOL    HW220049   4.574   0.927   5.676 -1.8239 -0.0730  0.3446
 4738SOL     OW20050  12.012   0.610   6.950 -0.5819 -0.2784 -0.3200
 4738SOL    HW120051  12.056   0.564   6.878  0.7394  0.2233  0.1422
 4738SOL    HW220052  11.966   0.541   6.998 -1.8683 -0.5668 -1.8834
 4739SOL     OW20053   0.841   6.811  10.700 -0.0910 -0.5886  0.0893
 4739SOL    HW120054   0.897   6.873  10.746 -0.4229 -1.1085  1.2195
 4739SOL    HW220055   0.902   6.757  10.649  0.4726 -1.1368  1.2881
 4740SOL     OW20056   0.431   0.546   5.398  0.2890  0.1468 -0.0512
 4740SOL    HW120057   0.494   0.562   5.327 -1.8171 -1.5443 -2.5044
 4740SOL    HW220058   0.372   0.621   5.395 -0.8149 -0.7152 -1.3839
 4741SOL     OW20059   1.850   0.460   9.789  0.1212  0.0437  0.3418
 4741SOL    HW120060   1.882   0.551   9.784 -1.2962  0.5626  0.3318
 4741SOL    HW220061   1.772   0.465   9.843 -0.4542 -1.0338 -0.3600
 4742SOL     OW20062   2.738  11.558  11.360  0.2439  0.1554 -0.0866
 4742SOL    HW120063   2.830  11.580  11.375  0.5987 -1.8412  1.0468
 4742SOL    HW220064   2.696  11.577  11.444  0.2654 -1.7671  0.4065
 4743SOL     OW20065  10.491   4.463   8.876 -0.1929  0.1610  0.4137
 4743SOL    HW120066  10.445   4.531   8.827  1.0327  0.3925 -0.4815
 4743SOL    HW220067  10.561   4.435   8.817 -0.4363 -1.6297  0.9022
 4744SOL     OW20068   5.251   7.473   9.085 -0.0494  0.1080 -0.1566
 4744SOL    HW120069   5.331   7.422   9.070 -1.2926 -2.1938  0.5994
 4744SOL    HW220070   5.189   7.410   9.120 -1.5372  2.3137  1.3993
 4745SOL     OW20071  11.799   3.266   4.425 -0.3767  0.0874 -0.1303
 4745SOL    HW120072  11.774   3.186   4.380 -1.7717  1.0716 -1.2115
 4745SOL    HW220073  11.844   3.237   4.504 -0.3126 -1.7305 -0.8025
 4746SOL     OW20074   3.859   7.397   4.450  0.1595 -0.2413  0.1187
 4746SOL    HW120075   3.838   7.489   4.436 -0.9056 -0.2976  1.1362
 4746SOL    HW220076   3.917   7.374   4.378  0.6309  1.2848 -0.0228
 4747SOL     OW20077   3.545   7.780   1.385 -0.1636 -0.6081  0.2931
 4747SOL    HW120078   3.491   7.858   1.394  1.8373  0.9128 -0.1081
 4747SOL    HW220079   3.509   7.717   1.447 -0.6761  1.3265  2.0225
 4748SOL     OW20080   0.777   2.154   0.760  0.2047  0.1807 -0.0755
 4748SOL    HW120081   0.805   2.195   0.842  1.0572 -0.1454 -0.2004
 4748SOL    HW220082   0.751   2.227   0.704  1.8070  0.5828 -0.3353
 4749SOL     OW20083   0.130   6.264   1.012  0.3605 -0.3480 -0.1200
 4749SOL    HW120084   0.061   6.283   0.948  0.4461  0.0975 -0.0857
 4749SOL    HW220085   0.200   6.325   0.990  0.4495 -0.2936  0.3045
 4750SOL     OW20086  11.547   1.285   6.168  0.2302 -0.0100  0.3187
 4750SOL    HW120087  11.510   1.352   6.111  1.0239 -1.1471 -1.6444
 4750SOL    HW220088  11.634   1.318   6.191 -0.3344  0.7410  1.4386
 4751SOL     OW20089   1.765   3.916   1.138 -0.0816 -0.4501 -0.2130
 4751SOL    HW120090   1.822   3.992   1.124  0.0006 -0.5601 -0.5033
 4751SOL    HW220091   1.680   3.954   1.161  0.0058 -0.2748 -0.1721
 4752SOL     OW20092  11.738   3.686   0.613  0.1052  0.0784 -0.4167
 4752SOL    HW120093  11.822   3.653   0.581  0.5660  0.8450 -0.0299
 4752SOL    HW220094  11.720   3.763   0.560  1.0164  1.5338  1.2786
 4753SOL     OW20095   9.170   9.983   6.766 -0.5917  0.0198  0.0764
 4753SOL    HW120096   9.161   9.950   6.856 -0.3342  1.1626  0.5491
 4753SOL    HW220097   9.179   9.905   6.712 -1.1697 -0.7124  0.9988
 4754SOL     OW20098   2.863  10.513  10.394 -0.4790  0.1886 -0.3084
 4754SOL    HW120099   2.785  10.476  10.354 -0.8344 -2.5836  2.5310
 4754SOL    HW220100   2.830  10.586  10.447 -0.9704 -0.1896 -0.0835
 4755SOL     OW20101   1.640   8.538  11.898  0.1472  0.4295 -0.1447
 4755SOL    HW120102   1.639   8.583  11.813  1.4747 -0.3450 -0.5903
 4755SOL    HW220103   1.605   8.603  11.959 -0.3580  1.1759 -1.1897
 4756SOL     OW20104   7.279   8.490   0.792  0.2645  0.6347  0.1011
 4756SOL    HW120105   7.291   8.585   0.784  0.9221  0.4748 -0.9563
 4756SOL    HW220106   7.206   8.481   0.853 -1.3797  1.8939 -1.5506
 4757SOL     OW20107  12.188   0.856   4.044 -0.1342 -0.0676 -0.3490
 4757SOL    HW120108  12.180   0.951   4.047  0.5223 -0.0048  1.8835
 4757SOL    HW220109  12.098   0.824   4.043 -0.4022  0.5987  0.5080
 4758SOL     OW20110  11.470   0.378   1.961  0.2055  0.5626  0.1098
 4758SOL    HW120111  11.458   0.285   1.946  0.5704  0.6116 -0.5045
 4758SOL    HW220112  11.511   0.384   2.047 -1.2568  0.2426  0.8684
 4759SOL     OW20113   2.205   4.396   3.811  0.4909 -0.4635 -0.4769
 4759SOL    HW120114   2.154   4.318   3.791  0.6022 -0.8544  0.6789
 4759SOL    HW220115   2.199   4.450   3.732  1.7204 -2.3236 -1.9401
 4760SOL     OW20116   4.215   4.457   2.387  0.2090  0.2371  0.4072
 4760SOL    HW120117   4.197   4.367   2.358  0.5434 -0.2515  1.6437
 4760SOL    HW220118   4.159   4.512   2.332  1.7648 -0.4939 -2.0457
 4761SOL     OW20119   9.440   9.185  11.987 -0.2960  0.2719 -0.0182
 4761SOL    HW120120   9.420   9.233  11.907 -1.8421 -0.0195  0.1512
 4761SOL    HW220121   9.520   9.137  11.967  0.8492  2.2568 -0.4547
 4762SOL     OW20122   4.105   6.875   3.586 -0.0386 -0.1983  0.3070
 4762SOL    HW120123   4.124   6.954   3.535  0.0852  0.1902  0.9385
 4762SOL    HW220124   4.011   6.878   3.600  0.2153  0.9246  2.0375
 4763SOL     OW20125   1.015   6.990  10.064  0.3742  0.2578  0.1794
 4763SOL    HW120126   1.067   7.022  10.138  1.4222  2.7045 -1.4598
 4763SOL    HW220127   0.928   7.025  10.079 -0.3170 -1.9726  1.8034
 4764SOL     OW20128   3.329   9.997   9.270  0.1920 -0.1228  0.2186
 4764SOL    HW120129   3.392   9.961   9.208  1.2151  0.6270  0.7877
 4764SOL    HW220130   3.292   9.921   9.314  0.1553 -0.6094 -0.6458
 4765SOL     OW20131   2.421   3.833  10.505 -0.0110  0.3334 -0.0741
 4765SOL    HW120132   2.503   3.787  10.491  0.4185  0.8016  0.8330
 4765SOL    HW220133   2.375   3.782  10.571 -1.4748 -1.1726 -2.1436
 4766SOL     OW20134   1.522   6.767   9.530 -0.1036  0.4358  0.1271
 4766SOL    HW120135   1.543   6.861   9.536 -1.8001  0.8445  0.3625
 4766SOL    HW220136   1.435   6.760   9.570 -0.2507 -1.1555 -0.4075
 4767SOL     OW20137   2.311   8.626   1.828 -0.0865  0.5762 -0.5860
 4767SOL    HW120138   2.347   8.706   1.789 -0.6032  0.7473 -0.7279
 4767SOL    HW220139   2.239   8.657   1.883 -0.3938  0.1965 -0.7696
 4768SOL     OW20140   2.695   8.120   7.108  0.0330  0.2563  0.3492
 4768SOL    HW120141   2.700   8.078   7.194 -2.0645  0.2751  0.5216
 4768SOL    HW220142   2.636   8.064   7.058  1.0286  0.3882 -1.0244
 4769SOL     OW20143   2.436   6.362   2.006 -0.2555  0.2304  0.0377
 4769SOL    HW120144   2.372   6.360   1.934 -1.7669 -0.2010  1.3500
 4769SOL    HW220145   2.389   6.330   2.082  1.5921 -0.2455  1.0487
 4770SOL     OW20146   7.565   7.796   9.505 -0.0282  0.0537  0.3614
 4770SOL    HW120147   7.486   7.835   9.541 -0.4824 -0.4588 -0.0727
 4770SOL    HW220148   7.582   7.846   9.425  0.4688  0.5913  0.7840
 4771SOL     OW20149   3.562   3.591   7.593 -0.2137 -0.5789 -0.3177
 4771SOL    HW120150   3.557   3.497   7.574  0.0862 -0.1711 -2.6849
 4771SOL    HW220151   3.608   3.628   7.518  0.2163  1.4148  0.8583
 4772SOL     OW20152   6.470   4.040   5.339 -0.6617  0.7359  0.4011
 4772SOL    HW120153   6.474   4.081   5.426 -1.6225  0.8277  0.4171
 4772SOL    HW220154   6.431   4.107   5.283  0.0470  0.7096 -0.1284
 4773SOL     OW20155   8.733  11.319   7.314  0.4782  0.0283  0.1738
 4773SOL    HW120156   8.700  11.359   7.395 -1.8462 -0.8545 -0.2536
 4773SOL    HW220157   8.659  11.323   7.254  1.5297 -1.1227 -1.2708
 4774SOL     OW20158   4.216  10.893   4.237  0.1708 -0.2650 -0.0223
 4774SOL    HW120159   4.140  10.860   4.189  2.0525 -2.7146 -1.5858
 4774SOL    HW220160   4.283  10.906   4.170  1.5100  0.7076  1.4306
 4775SOL     OW20161  12.224   5.511   2.576 -0.7121 -0.3249 -0.6149
 4775SOL    HW120162  12.271   5.511   2.493  0.3913  0.1649 -0.0054
 4775SOL    HW220163  12.155   5.577   2.563  1.1723  1.8656 -0.2553
 4776SOL     OW20164   0.666  11.123   2.341  0.0590  0.2002 -0.4402
 4776SOL    HW120165   0.714  11.152   2.264 -0.4606 -0.8873 -1.1997
 4776SOL    HW220166   0.719  11.052   2.378 -1.4202 -1.7949 -1.9379
 4777SOL     OW20167  12.210   2.278   4.740  0.2639  0.5785 -0.5630
 4777SOL    HW120168  12.134   2.335   4.750 -0.5034 -0.3388 -1.0661
 4777SOL    HW220169  12.229   2.248   4.829 -0.4578  0.1913 -0.5312
 4778SOL     OW20170   6.137   3.826   4.418 -0.3363  0.5003 -0.3377
 4778SOL    HW120171   6.222   3.783   4.424 -0.2922  0.1582 -2.4136
 4778SOL    HW220172   6.154   3.917   4.442  0.3824  0.2032  0.3235
 4779SOL     OW20173   6.562   3.766   1.714 -0.3104 -0.0182  0.0116
 4779SOL    HW120174   6.539   3.823   1.787  0.4681  0.4469 -0.0899
 4779SOL    HW220175   6.550   3.822   1.636  0.4363  0.0017 -0.0909
 4780SOL     OW20176   6.880   9.826   0.813  0.2667  0.1172 -0.0142
 4780SOL    HW120177   6.888   9.918   0.837  2.0444  0.0401 -0.1409
 4780SOL    HW220178   6.829   9.786   0.883  1.0208  0.8688  0.9957
 4781SOL     OW20179   4.602   3.709   3.638 -0.0583  0.0144 -0.3153
 4781SOL    HW120180   4.645   3.667   3.563 -1.1483 -0.8003 -0.5015
 4781SOL    HW220181   4.517   3.738   3.604 -0.7078 -0.6796  0.6807
 4782SOL     OW20182   3.235   1.138   2.939  0.4273 -0.2211  0.2457
 4782SOL    HW120183   3.207   1.134   2.848  1.1823  1.3054 -0.0862
 4782SOL    HW220184   3.159   1.170   2.987  0.6547  1.0030 -0.1868
 4783SOL     OW20185   3.382   7.434   6.936 -0.4671  0.1550  0.0976
 4783SOL    HW120186   3.327   7.487   6.879 -0.6684  0.6117  0.7073
 4783SOL    HW220187   3.436   7.382   6.876 -1.2800 -0.0085 -0.4980
 4784SOL     OW20188   1.684   1.403   8.238 -0.9296 -0.0771  0.3014
 4784SOL    HW120189   1.670   1.430   8.148  0.5799 -1.5799 -0.4330
 4784SOL    HW220190   1.596   1.393   8.274 -1.6253 -1.2789 -1.5851
 4785SOL     OW20191   3.790   5.457   5.051 -0.1029  0.1055  0.1653
 4785SOL    HW120192   3.810   5.404   5.129 -0.8878 -0.2407  0.1349
 4785SOL    HW220193   3.759   5.540   5.086  1.2148  0.6059  0.2148
 4786SOL     OW20194   5.861   5.415   3.780 -0.0227 -0.1182 -0.2945
 4786SOL    HW120195   5.814   5.478   3.724 -0.8217  0.0276  0.5207
 4786SOL    HW220196   5.806   5.337   3.780  0.3330 -0.3723 -0.2742
 4787SOL     OW20197   3.239   4.534   4.374  0.2630  0.7818  0.2489
 4787SOL    HW120198   3.251   4.616   4.327 -1.9948  0.6268 -0.7534
 4787SOL    HW220199   3.157   4.498   4.339 -0.2278 -0.5800  2.5341
 4788SOL     OW20200   2.475  10.730   5.983 -0.0989 -0.2189 -0.2702
 4788SOL    HW120201   2.537  10.715   6.055  0.4293  0.6368 -0.5342
 4788SOL    HW220202   2.513  10.683   5.909  1.1137  1.5883 -0.8680
 4789SOL     OW20203   5.643   4.147   4.504  0.0533  0.2417  0.3131
 4789SOL    HW120204   5.630   4.104   4.588  0.2948  1.4413  0.9773
 4789SOL    HW220205   5.649   4.240   4.524 -1.8450  0.7633 -1.2370
 4790SOL     OW20206  10.882   2.533   2.775 -0.1623 -0.0145  0.4716
 4790SOL    HW120207  10.835   2.610   2.742 -2.5779 -0.1682  3.2001
 4790SOL    HW220208  10.898   2.481   2.696 -2.3295  1.2897 -0.9751
 4791SOL     OW20209   8.021   5.878   2.775  0.5297 -0.3688  0.3073
 4791SOL    HW120210   7.947   5.872   2.714 -0.7108 -0.3460  1.7435
 4791SOL    HW220211   8.091   5.828   2.733  0.0814  0.4932 -1.5945
 4792SOL     OW20212   2.061   9.327   5.272 -0.0109  0.2520 -0.2105
 4792SOL    HW120213   2.013   9.244   5.280 -2.3594  1.3211 -1.8059
 4792SOL    HW220214   2.121   9.313   5.198  0.3131 -0.3294  0.1615
 4793SOL     OW20215   0.244   8.681   7.540 -0.0440 -0.4456 -0.4624
 4793SOL    HW120216   0.157   8.714   7.518 -0.4331 -1.0443  0.1581
 4793SOL    HW220217   0.303   8.752   7.515 -0.8774  0.7975  0.9253
 4794SOL     OW20218   1.424   2.646   3.343 -0.1613  0.2331  0.5224
 4794SOL    HW120219   1.393   2.675   3.257  1.6446  1.5214  0.2496
 4794SOL    HW220220   1.374   2.567   3.361 -1.8031  0.8796 -0.9362
 4795SOL     OW20221   7.373  10.072   5.593 -0.0602 -0.2285  0.4304
 4795SOL    HW120222   7.439  10.013   5.555  0.2441 -0.3345  1.1156
 4795SOL    HW220223   7.299  10.014   5.615  0.1936 -0.3420  0.9975
 4796SOL     OW20224  11.368   1.730   0.209  0.1806 -0.7389  0.1928
 4796SOL    HW120225  11.294   1.781   0.177 -0.0279 -0.9590  0.3205
 4796SOL    HW220226  11.372   1.751   0.303 -0.7748 -2.0149  0.5422
 4797SOL     OW20227   4.621   1.482   6.556 -0.6147 -0.1222 -0.3515
 4797SOL    HW120228   4.691   1.476   6.491  0.0527  0.2339  0.3111
 4797SOL    HW220229   4.660   1.533   6.627 -0.9641 -1.3947  0.7883
 4798SOL     OW20230   4.755   0.516   6.154 -0.6435 -0.2475 -0.4026
 4798SOL    HW120231   4.754   0.606   6.119  0.7813 -0.2120 -0.4126
 4798SOL    HW220232   4.766   0.461   6.077 -4.0763 -0.6829 -0.7283
 4799SOL     OW20233   7.409   1.948   2.218 -0.1776  0.2670 -0.3180
 4799SOL    HW120234   7.463   2.024   2.238  1.2124 -0.3914 -1.3270
 4799SOL    HW220235   7.442   1.879   2.276 -1.5606  0.4610  0.7349
 4800SOL     OW20236   0.626  11.805   0.472  0.7442 -0.5956  0.0322
 4800SOL    HW120237   0.534  11.825   0.458  0.7606  0.7430  1.5143
 4800SOL    HW220238   0.672  11.884   0.443  1.2008 -0.2716  1.5608
 4801SOL     OW20239   3.533  11.576   8.151 -0.1499 -0.2728 -0.0831
 4801SOL    HW120240   3.555  11.593   8.060  0.6029 -0.4452  0.0562
 4801SOL    HW220241   3.467  11.506   8.148 -0.5684  0.1330 -0.5071
 4802SOL     OW20242   0.289   3.252   3.800  0.0522 -0.8154  0.1353
 4802SOL    HW120243   0.215   3.301   3.766 -0.8826 -0.2336  2.7570
 4802SOL    HW220244   0.350   3.245   3.727 -1.0863  1.6819 -1.1463
 4803SOL     OW20245  10.931   8.135   1.695 -0.0931  0.1163  0.7230
 4803SOL    HW120246  10.935   8.185   1.777 -0.8024 -0.2479  0.9919
 4803SOL    HW220247  10.843   8.151   1.661  0.2342  0.3468 -0.0251
 4804SOL     OW20248  11.715   9.143  10.676 -0.2357 -0.0693  0.2000
 4804SOL    HW120249  11.630   9.160  10.716 -1.3039 -1.4046 -1.3711
 4804SOL    HW220250  11.695   9.115  10.587  1.7986 -1.1899  0.0294
 4805SOL     OW20251   2.643   0.592   4.108  0.3753 -0.5732  0.3828
 4805SOL    HW120252   2.652   0.585   4.013 -1.6204 -0.3595  0.1374
 4805SOL    HW220253   2.674   0.508   4.141 -0.2873 -1.2155 -0.5772
 4806SOL     OW20254   0.288  11.988  11.123  0.9278 -0.1292 -0.1330
 4806SOL    HW120255   0.367  12.036  11.145  1.1188 -0.5225  0.0337
 4806SOL    HW220256   0.246  12.042  11.055  0.8332  0.5784  0.4745
 4807SOL     OW20257   9.675   6.103  10.598 -0.7378 -1.4710 -0.4865
 4807SOL    HW120258   9.674   6.093  10.694  1.2563  0.7832 -0.1536
 4807SOL    HW220259   9.758   6.146  10.579 -2.0434  0.1484 -3.0256
 4808SOL     OW20260   3.732  12.066   0.019  0.0691 -0.3982 -0.4679
 4808SOL    HW120261   3.795  12.006   0.059  1.3673  0.7416 -0.7467
 4808SOL    HW220262   3.682  12.010  -0.041  0.2690 -1.4817  0.3495
 4809SOL     OW20263   7.295   4.108   8.451  0.0652 -0.6950 -0.0001
 4809SOL    HW120264   7.380   4.146   8.477 -0.7459  0.4609  1.1117
 4809SOL    HW220265   7.291   4.024   8.497 -1.1336  1.0917  3.5503
 4810SOL     OW20266   3.530   9.816   4.304  0.2302 -0.2054 -0.2656
 4810SOL    HW120267   3.585   9.874   4.252  0.9518  0.4222  1.1292
 4810SOL    HW220268   3.451   9.804   4.252  1.0843  0.0573 -1.6594
 4811SOL     OW20269   3.639   6.831  10.988  0.5660  0.1382 -0.7954
 4811SOL    HW120270   3.681   6.791  10.913  3.5228 -1.1404  1.3495
 4811SOL    HW220271   3.580   6.763  11.022  1.7773 -0.5925 -0.0810
 4812SOL     OW20272   3.802   7.092   5.622  0.2159 -0.9501  0.4270
 4812SOL    HW120273   3.813   7.100   5.717  2.5782 -2.1219  0.3287
 4812SOL    HW220274   3.753   7.011   5.611  0.9710 -1.4407  0.6268
 4813SOL     OW20275   2.509   8.456   4.943  0.1676  0.7869 -0.7140
 4813SOL    HW120276   2.445   8.444   4.873 -1.2166  1.0969  0.4654
 4813SOL    HW220277   2.536   8.367   4.965  1.0679  0.7053 -2.0023
 4814SOL     OW20278   5.060   9.473   4.238  0.2415  0.2249  0.0802
 4814SOL    HW120279   5.099   9.388   4.219  1.9102  0.5647  1.7397
 4814SOL    HW220280   5.018   9.460   4.324  0.1168  0.9427  0.1267
 4815SOL     OW20281   3.950   9.821   6.506 -0.0324 -0.3915  0.1678
 4815SOL    HW120282   3.938   9.838   6.600 -0.4963 -1.4988  0.3302
 4815SOL    HW220283   3.868   9.781   6.479 -0.3617  1.0157 -1.0032
 4816SOL     OW20284   2.990  10.559   5.473 -0.3681  0.6120 -0.1302
 4816SOL    HW120285   2.970  10.630   5.412  0.7066  1.4488  0.4509
 4816SOL    HW220286   2.934  10.487   5.445 -2.3317  2.0395 -0.0443
 4817SOL     OW20287   6.575  12.041  12.203 -0.2745  0.0029  0.2790
 4817SOL    HW120288   6.521  12.027  12.126 -1.5745 -0.2443  1.2090
 4817SOL    HW220289   6.542  12.123  12.241  1.0255  0.6692  0.0373
 4818SOL     OW20290   3.528   8.802   8.819 -0.0402 -0.0031 -0.0314
 4818SOL    HW120291   3.489   8.755   8.746 -0.8977 -0.6042  0.7803
 4818SOL    HW220292   3.542   8.735   8.886 -1.8520  0.9467  1.3930
 4819SOL     OW20293   4.511   4.396   3.843  0.8550  0.2677 -0.0130
 4819SOL    HW120294   4.561   4.417   3.764  1.0494 -0.8570 -0.2132
 4819SOL    HW220295   4.510   4.300   3.846 -1.1640  0.2440  0.0617
 4820SOL     OW20296   3.495   2.986   6.965 -0.2344  0.0661  0.1159
 4820SOL    HW120297   3.532   2.919   6.908  1.2315  1.0449 -0.1510
 4820SOL    HW220298   3.421   3.022   6.916  0.7958  0.6612 -1.0607
 4821SOL     OW20299   3.859   7.210   5.930  0.0437 -0.1286  0.1949
 4821SOL    HW120300   3.955   7.213   5.930  0.0362  0.0916  0.3299
 4821SOL    HW220301   3.834   7.258   6.008 -0.1502 -0.9672  0.6643
 4822SOL     OW20302   0.190  10.768   5.623  0.2968 -0.3542 -0.2413
 4822SOL    HW120303   0.179  10.857   5.656 -1.7464 -0.6525 -0.0479
 4822SOL    HW220304   0.215  10.780   5.532  0.0573  0.4179 -0.2152
 4823SOL     OW20305   3.864   9.136  10.604  0.3467  0.3976  0.2433
 4823SOL    HW120306   3.829   9.058  10.561 -0.5157  0.8034  0.1892
 4823SOL    HW220307   3.948   9.108  10.642  0.2315 -0.4411 -0.1198
 4824SOL     OW20308   5.761   8.595   0.507  0.0357 -0.8893 -0.2730
 4824SOL    HW120309   5.789   8.600   0.416  0.5254 -0.8495 -0.1230
 4824SOL    HW220310   5.838   8.622   0.557 -0.6448  0.4536  0.0976
 4825SOL     OW20311   7.433   7.391  11.869  0.6728  0.5817 -0.0077
 4825SOL    HW120312   7.511   7.412  11.818  0.8565 -0.3451 -0.1398
 4825SOL    HW220313   7.421   7.465  11.928  0.8490  1.3654 -0.9357
 4826SOL     OW20314   5.879   7.779   2.072 -0.6531 -0.0126 -0.2736
 4826SOL    HW120315   5.972   7.764   2.057 -0.3936  2.0510 -1.0951
 4826SOL    HW220316   5.835   7.709   2.025  0.4278  0.8870 -2.8300
 4827SOL     OW20317  11.257  10.537  11.179  0.3789  0.5131  0.5338
 4827SOL    HW120318  11.216  10.576  11.102  0.5021  0.5405  0.4823
 4827SOL    HW220319  11.187  10.534  11.245  0.1684  0.1111  0.2894
 4828SOL     OW20320   0.254   4.358  11.955 -0.3921 -0.2139  0.4204
 4828SOL    HW120321   0.211   4.278  11.925 -0.3113  0.0717 -0.4817
 4828SOL    HW220322   0.345   4.333  11.968 -0.4062 -0.3146  0.3260
 4829SOL     OW20323   6.730   6.677   9.569 -0.4219 -0.0374  0.3419
 4829SOL    HW120324   6.655   6.673   9.510  0.5871  0.1418 -0.9877
 4829SOL    HW220325   6.766   6.588   9.568 -0.3271 -0.0023  0.5918
 4830SOL     OW20326   4.649   0.699   1.368 -0.0253 -0.4043  0.2774
 4830SOL    HW120327   4.674   0.789   1.386  0.9009 -0.4137 -0.8585
 4830SOL    HW220328   4.704   0.646   1.426 -1.2763 -0.2399  1.6837
 4831SOL     OW20329   6.194   1.327   8.369 -0.0127  0.2944 -0.2590
 4831SOL    HW120330   6.157   1.374   8.443 -0.2771 -0.4224  0.0724
 4831SOL    HW220331   6.243   1.393   8.320 -1.2045  1.1182 -0.3656
 4832SOL     OW20332   7.639   1.936   9.714  0.4730 -0.4658  0.0294
 4832SOL    HW120333   7.733   1.917   9.708  0.7979  1.2337 -0.9713
 4832SOL    HW220334   7.616   1.967   9.626 -1.0258 -0.8355  0.2745
 4833SOL     OW20335  10.306   5.698  11.761  0.0027 -0.2961 -0.4456
 4833SOL    HW120336  10.282   5.637  11.692 -1.1486 -1.3129  0.8120
 4833SOL    HW220337  10.387   5.662  11.798 -0.0770 -0.4526 -0.4249
 4834SOL     OW20338   3.287   9.558   7.458 -0.2799 -0.0464  0.4761
 4834SOL    HW120339   3.221   9.586   7.522 -0.9136 -0.1599 -0.1193
 4834SOL    HW220340   3.325   9.479   7.496  0.4419  0.7433  1.4445
 4835SOL     OW20341   4.424   1.868  11.344 -0.2416  0.2659 -0.1250
 4835SOL    HW120342   4.467   1.950  11.322 -2.3487  1.3285 -0.4547
 4835SOL    HW220343   4.332   1.890  11.354 -0.4172 -1.3580  3.3628
 4836SOL     OW20344   3.524   1.289   7.730  0.7125 -0.0612 -0.3469
 4836SOL    HW120345   3.440   1.313   7.770  1.0661 -0.3266  0.5798
 4836SOL    HW220346   3.501   1.222   7.666  0.2677 -0.4753  0.2368
 4837SOL     OW20347   7.452   0.580   6.772 -0.0607 -0.2428  0.0830
 4837SOL    HW120348   7.461   0.487   6.751  0.9762 -0.0898 -0.1674
 4837SOL    HW220349   7.398   0.615   6.701  2.0867 -0.0589 -1.5568
 4838SOL     OW20350   1.813  12.161  11.534  0.1844 -0.2574  0.1063
 4838SOL    HW120351   1.859  12.093  11.583  0.0462 -0.7621 -0.4577
 4838SOL    HW220352   1.834  12.242  11.581  0.5420 -0.6524  0.6465
 4839SOL     OW20353  11.618   6.730   0.126  0.2750  0.0190  0.4815
 4839SOL    HW120354  11.525   6.739   0.142  0.2807  0.5651  0.2307
 4839SOL    HW220355  11.655   6.816   0.147  0.2656  0.8645 -2.5097
 4840SOL     OW20356   6.136   0.029   5.704 -0.2096  0.1320  0.0418
 4840SOL    HW120357   6.130  -0.066   5.694  0.1404 -0.0900  1.5912
 4840SOL    HW220358   6.058   0.063   5.660 -0.4803 -0.8913 -0.2885
 4841SOL     OW20359   7.528   8.798   0.616 -0.0487 -0.1621 -0.4344
 4841SOL    HW120360   7.550   8.891   0.628  1.9595 -0.8166  1.6013
 4841SOL    HW220361   7.505   8.791   0.523  2.0955  1.9528 -1.2341
 4842SOL     OW20362   9.516   2.613   8.926  0.5687  0.2159 -0.0364
 4842SOL    HW120363   9.587   2.677   8.921 -0.7016  1.6099 -1.3417
 4842SOL    HW220364   9.437   2.666   8.928 -0.4734 -1.2975  1.6066
 4843SOL     OW20365   7.622   7.220  10.643  0.1189  0.2227  0.4755
 4843SOL    HW120366   7.586   7.216  10.554  1.0417  1.1271  0.0373
 4843SOL    HW220367   7.552   7.187  10.698 -0.7618  0.3597 -0.5145
 4844SOL     OW20368   8.731  10.436   1.510  0.2907  0.7623  0.4982
 4844SOL    HW120369   8.818  10.434   1.549 -0.2902 -0.7556  1.8722
 4844SOL    HW220370   8.746  10.428   1.416  1.6334 -0.1014  0.7533
 4845SOL     OW20371   7.583   0.699   2.424  0.4160  0.1456  0.3610
 4845SOL    HW120372   7.600   0.630   2.487  0.3904 -1.9139 -1.7434
 4845SOL    HW220373   7.554   0.774   2.477 -1.2394 -1.9510  2.6566
 4846SOL     OW20374   4.249  10.674   1.082  0.2308 -0.2246  0.4588
 4846SOL    HW120375   4.211  10.754   1.119 -0.7505 -0.8226  0.8035
 4846SOL    HW220376   4.288  10.630   1.156 -1.1701 -1.1113  0.7119
 4847SOL     OW20377   7.951   5.141   3.181 -0.2560 -0.2899  0.0640
 4847SOL    HW120378   7.856   5.130   3.182 -0.1401 -1.4098  0.2763
 4847SOL    HW220379   7.982   5.083   3.112  0.2208  0.6882 -0.5708
 4848SOL     OW20380   6.874  10.490  10.944 -0.2545  0.4576  0.5371
 4848SOL    HW120381   6.952  10.463  10.992 -0.0968  1.1438  0.6787
 4848SOL    HW220382   6.902  10.492  10.852  0.6477  3.0874  0.7840
 4849SOL     OW20383   2.129   0.093   8.664  0.3017 -0.3677 -0.3310
 4849SOL    HW120384   2.087   0.119   8.747 -0.6935  0.1680 -0.9765
 4849SOL    HW220385   2.107   0.000   8.654  2.2301 -1.0387  1.0292
 4850SOL     OW20386   0.819   4.837   1.046  0.3713 -0.0351  0.2051
 4850SOL    HW120387   0.822   4.926   1.010 -1.0275  0.1784  0.5693
 4850SOL    HW220388   0.881   4.840   1.119  1.1588  0.3099 -0.4559
 4851SOL     OW20389  10.103  10.773   6.490  0.2545 -0.6366  0.2753
 4851SOL    HW120390  10.187  10.751   6.531 -0.4780 -1.0370  1.6067
 4851SOL    HW220391  10.060  10.831   6.553 -1.0190 -1.4838  0.2135
 4852SOL     OW20392   7.240   8.002   2.394  0.7242  0.5038 -0.0417
 4852SOL    HW120393   7.320   7.996   2.446  0.3587 -0.3115  0.4379
 4852SOL    HW220394   7.271   8.006   2.303  1.3147  0.5297  0.1530
 4853SOL     OW20395   6.185   5.687   0.974  0.0565 -0.1229 -0.1127
 4853SOL    HW120396   6.100   5.707   1.013 -0.0798  0.5601 -0.7528
 4853SOL    HW220397   6.237   5.766   0.987  1.2311 -1.1235  1.8809
 4854SOL     OW20398  11.978   3.820  11.457 -0.1688 -0.6449 -0.3798
 4854SOL    HW120399  11.976   3.756  11.387 -2.1923 -1.1863  0.0959
 4854SOL    HW220400  11.935   3.777  11.531  1.6121  0.0202  1.1287
 4855SOL     OW20401   0.337   8.218  12.084 -0.6049  0.4104  0.4409
 4855SOL    HW120402   0.330   8.175  12.170 -2.2271  1.0383  0.6648
 4855SOL    HW220403   0.246   8.234  12.058 -0.1250  0.6607 -1.1905
 4856SOL     OW20404   9.233   1.164   2.320 -0.4755  0.3184 -0.3581
 4856SOL    HW120405   9.283   1.117   2.252 -0.0547  0.1470  0.0649
 4856SOL    HW220406   9.270   1.252   2.320  1.3821 -0.3978  1.4690
 4857SOL     OW20407   0.861   7.917   3.289  0.2748 -0.3067  0.4497
 4857SOL    HW120408   0.944   7.925   3.242  0.4417 -2.7715  0.1918
 4857SOL    HW220409   0.795   7.940   3.225  0.5367 -3.1163 -0.9895
 4858SOL     OW20410   8.376   8.585   4.946 -0.1903 -0.2106 -0.6467
 4858SOL    HW120411   8.414   8.670   4.971  0.8603 -0.9144  0.2762
 4858SOL    HW220412   8.286   8.589   4.978  0.5733 -0.3620  1.7494
 4859SOL     OW20413   6.616  10.989   6.759  0.5077 -0.1949  0.2693
 4859SOL    HW120414   6.604  10.894   6.764 -0.4698 -0.2349 -1.8599
 4859SOL    HW220415   6.528  11.024   6.750  0.9621  0.7871 -0.4993
 4860SOL     OW20416   1.538   4.075   3.428 -0.0150  0.5505 -0.2270
 4860SOL    HW120417   1.512   4.159   3.390  0.2921  0.1181 -1.4429
 4860SOL    HW220418   1.512   4.011   3.363  2.6572 -0.0436 -0.8209
 4861SOL     OW20419   3.286   5.716   1.559 -0.5367  0.2007 -0.1379
 4861SOL    HW120420   3.339   5.648   1.518  0.1049 -0.7554  2.1114
 4861SOL    HW220421   3.329   5.798   1.535  0.1854 -0.3599 -0.8191
 4862SOL     OW20422   0.868   8.544   0.379  0.0956  0.5154  0.3686
 4862SOL    HW120423   0.781   8.525   0.342  0.0677  0.2062  0.5891
 4862SOL    HW220424   0.911   8.459   0.383  0.4415  0.6837  0.1843
 4863SOL     OW20425   5.286   9.676   2.375 -0.4257 -0.0468  0.2056
 4863SOL    HW120426   5.274   9.637   2.288 -1.9222  0.0436  0.3523
 4863SOL    HW220427   5.212   9.735   2.385 -0.4390 -0.2779  1.6612
 4864SOL     OW20428   5.471   5.423   0.698  0.0007  0.1603 -0.2547
 4864SOL    HW120429   5.383   5.446   0.728 -0.8319 -0.4841 -2.0644
 4864SOL    HW220430   5.483   5.332   0.726 -0.4742 -0.1973 -1.1864
 4865SOL     OW20431   4.323   6.265   2.647 -0.5289  0.1666 -0.4306
 4865SOL    HW120432   4.353   6.356   2.649 -3.0156  1.1254 -1.9441
 4865SOL    HW220433   4.355   6.231   2.563 -0.7095  0.0754 -0.4633
 4866SOL     OW20434  11.512   3.275   1.606 -0.4005 -0.0920 -0.4640
 4866SOL    HW120435  11.455   3.206   1.572  1.2114 -1.8081  0.1197
 4866SOL    HW220436  11.598   3.257   1.567  0.4983  0.4303  1.1646
 4867SOL     OW20437   0.798   8.076   2.854  0.5254  0.1109 -0.0844
 4867SOL    HW120438   0.840   8.140   2.912  1.7759 -1.2211  0.5546
 4867SOL    HW220439   0.869   8.043   2.800  0.1382 -1.4996  0.3360
 4868SOL     OW20440   8.883   0.497   7.075 -0.8998 -0.0255 -0.9575
 4868SOL    HW120441   8.821   0.446   7.022 -3.2582  0.2421  1.3411
 4868SOL    HW220442   8.846   0.495   7.163  3.4904 -1.6563  1.1635
 4869SOL     OW20443   8.854   7.423   0.914  0.3082  0.4853 -0.1884
 4869SOL    HW120444   8.887   7.512   0.920  2.5650 -0.3396  0.7464
 4869SOL    HW220445   8.917   7.370   0.963  1.4021 -2.2040 -3.9886
 4870SOL     OW20446   6.530   5.521  10.697 -0.6882  0.1330  0.7151
 4870SOL    HW120447   6.611   5.493  10.739  0.2948  0.7884 -0.6790
 4870SOL    HW220448   6.503   5.599  10.745 -2.0672 -1.5896  2.9727
 4871SOL     OW20449  11.109   7.095   4.397 -0.5472  0.0470 -0.3447
 4871SOL    HW120450  11.036   7.044   4.360 -1.5598  1.2511 -0.0518
 4871SOL    HW220451  11.069   7.147   4.466  0.9392 -0.5603  1.0220
 4872SOL     OW20452   0.984  11.528  11.073 -0.0890 -0.2635 -0.0173
 4872SOL    HW120453   0.968  11.605  11.129 -0.5608 -0.8678  0.6979
 4872SOL    HW220454   1.079  11.516  11.077 -0.1712 -0.6847  1.2061
 4873SOL     OW20455   2.191   2.369   8.914 -0.2264 -0.0209 -0.2976
 4873SOL    HW120456   2.228   2.281   8.909 -0.2348  0.0392 -2.6937
 4873SOL    HW220457   2.161   2.378   9.004 -0.9806 -2.7751 -0.1934
 4874SOL     OW20458   5.260   6.021   4.141 -0.5468  0.3853 -0.2416
 4874SOL    HW120459   5.250   6.091   4.077  1.0385 -0.3582 -1.3777
 4874SOL    HW220460   5.266   5.941   4.089  1.8081 -0.1389  0.6996
 4875SOL     OW20461   0.553   4.421  11.598  0.5958 -0.0839  0.2354
 4875SOL    HW120462   0.461   4.412  11.622 -0.0348  2.9934 -0.6326
 4875SOL    HW220463   0.600   4.371  11.664 -1.6402 -1.5283  0.8558
 4876SOL     OW20464   8.191   4.062  10.724  0.1261 -0.0213  0.1392
 4876SOL    HW120465   8.188   4.157  10.720 -0.2290  0.0415  1.4806
 4876SOL    HW220466   8.152   4.034  10.641  0.3693  0.9949 -0.3332
 4877SOL     OW20467   6.900   0.917   4.559 -0.1516 -0.4120  0.2356
 4877SOL    HW120468   6.890   0.865   4.480 -1.7945 -0.3918  0.3964
 4877SOL    HW220469   6.885   0.856   4.631 -1.5399  0.1280  0.4400
 4878SOL     OW20470   6.627   9.291   5.937  0.1783 -0.6802  0.3206
 4878SOL    HW120471   6.657   9.365   5.988 -0.2311  0.2411 -0.7427
 4878SOL    HW220472   6.575   9.238   5.998 -2.6324  1.7974  0.2894
 4879SOL     OW20473   4.851   5.161   5.272  0.5492 -0.6377 -0.1538
 4879SOL    HW120474   4.760   5.156   5.245  0.6307 -0.1074 -0.5346
 4879SOL    HW220475   4.863   5.251   5.301  0.7662 -0.8910  0.5893
 4880SOL     OW20476   0.123   1.795  10.048 -0.1561  0.5034  0.1244
 4880SOL    HW120477   0.105   1.888  10.035 -0.1788  0.2335 -2.0036
 4880SOL    HW220478   0.202   1.779   9.997  0.4678 -0.4550  1.3350
 4881SOL     OW20479   8.972   6.571   4.556  0.3091  0.3773  0.1783
 4881SOL    HW120480   8.964   6.618   4.473 -2.3456  1.0443  0.7278
 4881SOL    HW220481   9.020   6.632   4.613  0.7489  0.5664 -0.3825
 4882SOL     OW20482  10.630   8.522   6.508  0.1346  0.1807  0.2747
 4882SOL    HW120483  10.661   8.600   6.464  1.1584 -0.8873 -0.9610
 4882SOL    HW220484  10.567   8.483   6.447 -0.2570 -0.0500  0.8133
 4883SOL     OW20485   8.213   4.569   4.725  0.3814  0.2049  0.2879
 4883SOL    HW120486   8.218   4.583   4.630  2.2611 -0.9602  0.1590
 4883SOL    HW220487   8.302   4.587   4.756 -0.2220  0.5934  1.8471
 4884SOL     OW20488   4.192   1.834   6.882  1.1371  0.2541 -0.0648
 4884SOL    HW120489   4.169   1.742   6.893  1.8646  0.2239  1.4442
 4884SOL    HW220490   4.108   1.879   6.872  0.5200 -0.2329  2.2391
 4885SOL     OW20491   6.657   8.181   4.598  0.8021  0.1729 -0.8331
 4885SOL    HW120492   6.750   8.187   4.618  0.2828  1.3820  1.5610
 4885SOL    HW220493   6.631   8.094   4.627  0.7743  0.6660  0.7280
 4886SOL     OW20494   9.572   0.099   5.948 -0.2105 -0.2403 -0.5579
 4886SOL    HW120495   9.507   0.084   5.879 -0.8134  1.8949 -0.5215
 4886SOL    HW220496   9.520   0.122   6.025  0.5088 -1.3790  0.2956
 4887SOL     OW20497   9.797  11.047   2.582  0.3012  0.0862 -0.0396
 4887SOL    HW120498   9.738  11.032   2.509  0.5551 -0.9082 -0.0518
 4887SOL    HW220499   9.743  11.091   2.648 -0.3676 -0.5229 -0.1735
 4888SOL     OW20500   2.600   6.466  10.610  0.6718  0.0154 -0.7206
 4888SOL    HW120501   2.544   6.452  10.534 -1.7179  1.9775  0.5157
 4888SOL    HW220502   2.684   6.495  10.573 -0.4965  1.1760 -2.6358
 4889SOL     OW20503   8.093  11.586   4.062 -0.4231  0.0561 -0.6334
 4889SOL    HW120504   8.101  11.644   3.986  0.2134 -0.5974 -1.0759
 4889SOL    HW220505   8.029  11.520   4.036  0.2898 -0.5587 -0.8699
 4890SOL     OW20506   4.909   3.752  11.582 -0.3731 -0.0526 -0.6043
 4890SOL    HW120507   4.946   3.827  11.535  0.9438 -0.9679 -1.0583
 4890SOL    HW220508   4.981   3.690  11.590 -0.6555 -0.1798  2.1657
 4891SOL     OW20509   2.767   9.211   4.194 -0.5889 -0.7564  0.2211
 4891SOL    HW120510   2.761   9.305   4.179 -1.1620 -0.8838 -0.3668
 4891SOL    HW220511   2.816   9.203   4.276  1.0541  0.0145 -0.6327
 4892SOL     OW20512   0.622   7.190   0.366  0.3076  0.3499  0.1626
 4892SOL    HW120513   0.636   7.255   0.436  0.5167  0.6942 -0.1921
 4892SOL    HW220514   0.653   7.234   0.287  0.9162 -0.3689 -0.0071
 4893SOL     OW20515   9.799   5.298  10.669  0.0495  0.1454  0.1455
 4893SOL    HW120516   9.873   5.316  10.611  0.6229 -0.9337  0.5260
 4893SOL    HW220517   9.830   5.230  10.728 -1.5034 -0.9134 -0.1939
 4894SOL     OW20518   3.963   7.966   3.900  0.6717 -0.0772  0.5543
 4894SOL    HW120519   3.936   8.049   3.862  0.6624 -0.6782 -0.8127
 4894SOL    HW220520   4.041   7.941   3.850 -0.6190 -1.9782 -0.6178
 4895SOL     OW20521   3.953   5.564  10.944 -0.2935 -0.1723  0.4797
 4895SOL    HW120522   3.859   5.572  10.927 -0.4934 -1.9021  0.6105
 4895SOL    HW220523   3.978   5.480  10.905  1.3997  0.6466 -0.3263
 4896SOL     OW20524   3.282   3.837   8.673 -0.0502  0.1955  0.5476
 4896SOL    HW120525   3.191   3.831   8.702  0.2259 -2.4375  1.1257
 4896SOL    HW220526   3.281   3.803   8.583  0.4506 -0.7070  0.8657
 4897SOL     OW20527   9.024   2.936   2.501 -0.4929 -0.0039  0.3167
 4897SOL    HW120528   9.064   2.949   2.587  0.9058  0.0070 -0.3050
 4897SOL    HW220529   9.046   3.015   2.452 -1.6141  0.1613  0.0631
 4898SOL     OW20530   7.992   0.802   6.398 -0.2294  0.0617  0.5102
 4898SOL    HW120531   8.079   0.813   6.435 -0.2673  0.4344  0.4898
 4898SOL    HW220532   7.932   0.832   6.467 -0.3506 -0.3579  0.5917
 4899SOL     OW20533   4.323   0.083   3.290  0.4203  0.1620  0.1861
 4899SOL    HW120534   4.384   0.049   3.356  0.5484 -1.2143 -0.6033
 4899SOL    HW220535   4.315   0.012   3.227 -1.7847  0.4443  0.0975
 4900SOL     OW20536   7.753  10.609   3.808 -0.1074  0.1215 -0.7300
 4900SOL    HW120537   7.663  10.616   3.838  0.1367 -1.7200  0.6070
 4900SOL    HW220538   7.781  10.699   3.794 -2.9547  0.7264 -3.8545
 4901SOL     OW20539   8.507   4.918   0.633  0.2164  0.3335  0.1945
 4901SOL    HW120540   8.578   4.980   0.650  0.4166  0.3756 -0.7461
 4901SOL    HW220541   8.530   4.877   0.549 -1.0683  0.6433 -0.3302
 4902SOL     OW20542   5.115   9.622   8.137 -0.4274 -0.4941 -0.6060
 4902SOL    HW120543   5.056   9.696   8.152  1.8912  1.0482  1.6421
 4902SOL    HW220544   5.070   9.547   8.178 -0.7652  0.6957  1.3468
 4903SOL     OW20545   8.936   8.110   4.741 -0.0178  0.4719 -0.1483
 4903SOL    HW120546   8.941   8.046   4.812  0.1238 -0.2947 -0.8370
 4903SOL    HW220547   8.852   8.154   4.755  0.3972  0.9356  0.9939
 4904SOL     OW20548   3.347   6.653   7.725  0.2679  0.0337  0.0238
 4904SOL    HW120549   3.294   6.611   7.793  1.2215 -0.4932  0.4513
 4904SOL    HW220550   3.365   6.583   7.662  1.5050 -0.1302  0.5244
 4905SOL     OW20551   7.447   2.034   4.851  0.1259  0.1749  0.0254
 4905SOL    HW120552   7.401   2.030   4.935 -0.7175 -0.1233 -0.4315
 4905SOL    HW220553   7.536   2.061   4.873  0.0120 -0.2437  1.0501
 4906SOL     OW20554   6.885   4.522   2.956  0.3594 -0.8452  0.3468
 4906SOL    HW120555   6.853   4.612   2.954 -0.9319 -1.1203  3.2484
 4906SOL    HW220556   6.842   4.480   2.881 -2.0457  0.1084  1.0724
 4907SOL     OW20557  11.834   9.223   9.618  0.4819  0.2463  0.5411
 4907SOL    HW120558  11.810   9.316   9.621  1.6250  0.5537  0.5870
 4907SOL    HW220559  11.823   9.199   9.526 -2.4195 -0.3234  0.9575
 4908SOL     OW20560   6.884  10.301   8.292  0.3652  0.5973  0.1294
 4908SOL    HW120561   6.823  10.375   8.298 -0.6953 -0.2437  0.0378
 4908SOL    HW220562   6.929  10.301   8.377 -1.2210  0.0200  0.9967
 4909SOL     OW20563   8.589   5.913   2.186  0.4578  0.4472 -0.3798
 4909SOL    HW120564   8.580   6.003   2.155  1.1611  1.4614  2.1201
 4909SOL    HW220565   8.508   5.870   2.157 -1.1581  2.6120  0.6096
 4910SOL     OW20566   0.062   1.650   4.713 -0.0897 -0.2513  0.0522
 4910SOL    HW120567   0.007   1.600   4.773 -0.5672 -0.4323 -0.5243
 4910SOL    HW220568   0.125   1.694   4.769 -0.0291 -1.0467  0.6135
 4911SOL     OW20569   5.734   4.987  11.027  0.2064  0.3715 -0.1690
 4911SOL    HW120570   5.734   5.036  10.945  1.3511  1.0196  0.1941
 4911SOL    HW220571   5.694   5.047  11.091  1.2146  0.6940  0.1823
 4912SOL     OW20572  11.670   2.923  11.734  0.3237 -0.1580  0.1901
 4912SOL    HW120573  11.684   2.837  11.695 -0.2384 -0.4739  0.6705
 4912SOL    HW220574  11.673   2.984  11.660 -1.8392 -0.8404 -0.5417
 4913SOL     OW20575  10.791   9.857  10.805  0.3364  0.0092 -0.3807
 4913SOL    HW120576  10.817   9.816  10.723 -3.0319 -1.2185 -1.0321
 4913SOL    HW220577  10.779   9.950  10.784  1.3302  0.0548 -0.7501
 4914SOL     OW20578   1.801  11.370   4.457  0.6779 -0.4278  0.1764
 4914SOL    HW120579   1.875  11.309   4.464  0.1220 -1.2444 -0.7541
 4914SOL    HW220580   1.823  11.426   4.383  1.1436  0.4636  0.9734
 4915SOL     OW20581   2.220   1.086   8.132 -0.3734 -0.2289 -0.0835
 4915SOL    HW120582   2.197   1.139   8.209 -0.2178  0.8786 -0.7726
 4915SOL    HW220583   2.277   1.143   8.080 -0.9636 -0.7188 -1.3089
 4916SOL     OW20584   7.243   4.243   5.220  0.2393 -0.1524  0.1376
 4916SOL    HW120585   7.276   4.319   5.172 -0.9389 -0.1475 -0.7131
 4916SOL    HW220586   7.147   4.249   5.211  0.0342 -0.6900  1.6792
 4917SOL     OW20587   4.711   0.027   3.098  0.1366  0.0225  0.4705
 4917SOL    HW120588   4.693  -0.060   3.063  0.1802  0.7233 -1.4181
 4917SOL    HW220589   4.806   0.029   3.109  0.1515 -0.1139  0.3695
 4918SOL     OW20590  10.181   2.392   6.224 -0.0147  0.6994  0.8542
 4918SOL    HW120591  10.187   2.458   6.292 -0.0225  1.7965 -0.1783
 4918SOL    HW220592  10.118   2.428   6.161  0.9843  0.3381 -0.3924
 4919SOL     OW20593  11.522   8.266   0.740  0.2406  0.0396 -0.1368
 4919SOL    HW120594  11.526   8.341   0.682 -0.2997 -0.2105 -0.5130
 4919SOL    HW220595  11.588   8.206   0.707 -1.3602 -0.9499 -1.7578
 4920SOL     OW20596   7.338   4.445   1.219 -0.8156 -0.7614  0.0018
 4920SOL    HW120597   7.299   4.499   1.151 -1.8070  1.1207  1.9481
 4920SOL    HW220598   7.269   4.381   1.241 -0.7417 -0.9485 -0.3137
 4921SOL     OW20599   9.514   5.507   4.610  0.5051 -0.1304  0.0664
 4921SOL    HW120600   9.423   5.479   4.605  1.0277 -1.7938 -1.4343
 4921SOL    HW220601   9.522   5.576   4.544  0.0925  0.8425  1.0156
 4922SOL     OW20602   5.044   1.773   0.589  0.3460  0.2829  0.6007
 4922SOL    HW120603   5.078   1.856   0.556  0.4149  0.3116  0.7432
 4922SOL    HW220604   4.988   1.740   0.519  1.3734 -0.2067 -0.0037
 4923SOL     OW20605   2.720   5.105   9.886  0.0359  0.2741  0.3590
 4923SOL    HW120606   2.784   5.147   9.943 -0.5913 -0.4331  1.6287
 4923SOL    HW220607   2.768   5.034   9.843  0.3984  0.5085  0.3754
 4924SOL     OW20608   0.844  11.877   4.846  0.1260 -0.1560 -0.0069
 4924SOL    HW120609   0.893  11.796   4.860  1.4552  0.5234 -0.5587
 4924SOL    HW220610   0.911  11.944   4.831 -0.9219  1.1587  0.9041
 4925SOL     OW20611   3.880  11.762   4.479 -0.2344 -0.8353  0.2401
 4925SOL    HW120612   3.869  11.802   4.565 -1.1149  0.6183 -0.4986
 4925SOL    HW220613   3.816  11.691   4.476 -0.0630 -1.0146  0.8452
 4926SOL     OW20614   1.563   9.176   3.914 -0.0997  0.2015 -0.1692
 4926SOL    HW120615   1.474   9.147   3.935 -0.6535 -0.0598 -2.6239
 4926SOL    HW220616   1.609   9.097   3.887  0.9569  0.3262  1.1181
 4927SOL     OW20617   5.669   5.518   3.619 -0.4116  0.4707 -0.1330
 4927SOL    HW120618   5.634   5.439   3.578  0.4748 -0.3786  0.6689
 4927SOL    HW220619   5.745   5.542   3.565 -1.0881  1.2027 -0.7813
 4928SOL     OW20620   3.972   2.257   6.920 -0.4280  0.5087  0.0591
 4928SOL    HW120621   3.920   2.302   6.854  0.3032  0.5129 -0.5290
 4928SOL    HW220622   4.061   2.254   6.883 -0.2682 -0.5971  0.4953
 4929SOL     OW20623   0.720   7.285   4.805 -0.5005  0.0836  0.0317
 4929SOL    HW120624   0.774   7.363   4.818 -0.4330  0.0961 -0.3146
 4929SOL    HW220625   0.703   7.252   4.894  0.2602 -0.0509  0.1324
 4930SOL     OW20626   0.583  11.233   5.164  0.3557  0.6792 -0.2724
 4930SOL    HW120627   0.508  11.292   5.151  0.7143  0.9040 -1.3704
 4930SOL    HW220628   0.657  11.280   5.128  1.1340  0.6386  1.1977
 4931SOL     OW20629   8.779   2.226   3.857 -0.0948  0.5785 -0.2355
 4931SOL    HW120630   8.696   2.248   3.900  0.2564  0.3271  0.5837
 4931SOL    HW220631   8.843   2.284   3.898  0.7170 -1.4100  1.4256
 4932SOL     OW20632   9.052   2.190   7.085 -0.1895 -0.0695  0.2044
 4932SOL    HW120633   9.007   2.248   7.146  0.6862  1.7584 -0.8030
 4932SOL    HW220634   9.145   2.199   7.108 -0.0435 -1.1193  0.0554
 4933SOL     OW20635   8.686   7.710  11.226  0.0993 -0.0573 -0.2965
 4933SOL    HW120636   8.735   7.749  11.298 -0.0053  1.3167 -0.9443
 4933SOL    HW220637   8.717   7.756  11.148 -1.3161 -0.0370 -0.8705
 4934SOL     OW20638  12.180   0.403   2.925 -0.2166  0.5482 -0.1574
 4934SOL    HW120639  12.172   0.354   2.843  0.8039  1.0129 -0.5426
 4934SOL    HW220640  12.247   0.469   2.908 -0.2095  0.8534  0.9600
 4935SOL     OW20641   4.413   2.139  10.771  0.2205  0.0997 -0.1983
 4935SOL    HW120642   4.402   2.234  10.766 -0.4076  0.0241 -0.3189
 4935SOL    HW220643   4.490   2.127  10.826 -0.4647  0.6433  0.9140
 4936SOL     OW20644   8.899   9.876  12.152  0.0222  0.1359 -0.4688
 4936SOL    HW120645   8.808   9.900  12.141 -0.5529 -2.3321 -1.9155
 4936SOL    HW220646   8.948   9.949  12.116 -1.5259 -0.0463 -3.2070
 4937SOL     OW20647   1.366   6.039   4.574 -0.1284  0.5023 -0.0039
 4937SOL    HW120648   1.312   6.118   4.580  0.6498  0.9887  0.7977
 4937SOL    HW220649   1.317   5.973   4.623  0.8037  1.4318  2.3702
 4938SOL     OW20650   4.278   6.816   2.761 -0.0439 -0.4958  0.1239
 4938SOL    HW120651   4.211   6.883   2.754 -1.0985 -1.3122  1.8405
 4938SOL    HW220652   4.296   6.809   2.855  1.9661 -0.7694 -0.2352
 4939SOL     OW20653   9.038   7.816  10.886  0.0846 -0.8409 -0.9121
 4939SOL    HW120654   9.044   7.884  10.819 -0.7220  0.0386 -0.1319
 4939SOL    HW220655   9.127   7.804  10.918  0.0011  1.2367  0.2502
 4940SOL     OW20656   4.347   4.532  11.312 -0.3213 -0.1454 -0.3763
 4940SOL    HW120657   4.387   4.572  11.389 -0.8887  0.6056 -0.4516
 4940SOL    HW220658   4.385   4.444  11.307  0.4043  0.1257  0.2252
 4941SOL     OW20659   4.305   2.111   3.404 -0.4962  0.0516  0.3458
 4941SOL    HW120660   4.229   2.076   3.450 -1.5446  1.2622 -0.3750
 4941SOL    HW220661   4.321   2.049   3.333 -1.1960  0.0866  0.1510
 4942SOL     OW20662   0.522   2.291   1.212 -0.8965  0.7320 -0.1848
 4942SOL    HW120663   0.584   2.364   1.212 -0.7599  0.6901 -2.3472
 4942SOL    HW220664   0.461   2.312   1.141 -1.8267 -0.4810  0.2256
 4943SOL     OW20665   8.238  10.985   3.880 -0.2276 -0.4233  0.8162
 4943SOL    HW120666   8.280  10.904   3.908  0.2108 -0.3079  0.5111
 4943SOL    HW220667   8.248  11.044   3.954  3.4428  0.8293 -0.4194
 4944SOL     OW20668  12.039  11.900  10.308  0.2913  0.1560 -0.2886
 4944SOL    HW120669  12.053  11.939  10.221 -1.9305 -0.1065 -0.8065
 4944SOL    HW220670  11.946  11.911  10.325  0.7015  0.3854  2.1948
 4945SOL     OW20671   1.348   8.296   8.668  0.6211  0.0733 -0.6128
 4945SOL    HW120672   1.414   8.337   8.724  0.2216  1.3204 -1.0174
 4945SOL    HW220673   1.306   8.370   8.623  0.9204 -0.8770 -2.5567
 4946SOL     OW20674   0.331  10.839   2.600  0.3510  0.6340 -0.1769
 4946SOL    HW120675   0.358  10.797   2.681  1.9960  0.3729 -0.8329
 4946SOL    HW220676   0.384  10.918   2.594 -2.1221  2.4835  0.6182
 4947SOL     OW20677   3.582   1.172   2.304  0.5441 -0.3601  0.2456
 4947SOL    HW120678   3.575   1.218   2.221  1.9679 -0.9195 -0.2168
 4947SOL    HW220679   3.502   1.195   2.352  1.3615  2.9168  0.2418
 4948SOL     OW20680   9.261   2.255   8.851 -0.3076 -0.1334 -0.2193
 4948SOL    HW120681   9.314   2.237   8.929 -0.3852 -1.6094 -0.4764
 4948SOL    HW220682   9.171   2.242   8.880 -0.6689  2.8338  0.3434
 4949SOL     OW20683   1.777   5.912   0.341  0.3453 -0.6083 -0.1692
 4949SOL    HW120684   1.851   5.908   0.401  0.6331  0.5854 -0.4230
 4949SOL    HW220685   1.700   5.903   0.397  0.5982  0.8523  0.4423
 4950SOL     OW20686   6.164   4.787   7.332 -0.1480  0.1974 -0.4707
 4950SOL    HW120687   6.216   4.824   7.404 -0.9208 -1.0916  0.7929
 4950SOL    HW220688   6.220   4.799   7.254  0.8405  1.3416  0.3718
 4951SOL     OW20689   1.409  10.396   6.847 -0.5234  0.2855  0.5819
 4951SOL    HW120690   1.358  10.330   6.895 -0.9160  0.4842  0.4428
 4951SOL    HW220691   1.372  10.396   6.759  1.9829 -2.0890 -0.6371
 4952SOL     OW20692   9.833   0.259   4.911 -0.3134  0.3781 -0.0476
 4952SOL    HW120693   9.822   0.283   4.819 -0.0536  1.3728  0.1756
 4952SOL    HW220694   9.861   0.167   4.908  0.3240  0.5895 -0.9885
 4953SOL     OW20695   7.494   4.097   2.643  0.2299 -0.2695  0.6663
 4953SOL    HW120696   7.497   4.186   2.677  1.1747  0.0756 -0.2484
 4953SOL    HW220697   7.583   4.080   2.612 -0.1876 -1.1432 -0.1205
 4954SOL     OW20698   9.132   1.071   6.441 -0.1250 -0.2565 -0.0406
 4954SOL    HW120699   9.052   1.057   6.390  0.6843  2.7422 -2.4029
 4954SOL    HW220700   9.115   1.150   6.492  1.8888  1.7220 -2.1916
 4955SOL     OW20701   2.856   9.606   4.716  0.1895  0.1169 -0.0372
 4955SOL    HW120702   2.817   9.676   4.664  0.1634 -0.7853 -1.2551
 4955SOL    HW220703   2.913   9.652   4.778 -0.7036  1.2807 -0.0379
 4956SOL     OW20704   2.425   1.760  10.066 -0.0485 -0.0252 -0.3293
 4956SOL    HW120705   2.420   1.713  10.149 -0.1255  0.0024 -0.3184
 4956SOL    HW220706   2.393   1.848  10.086 -0.5453 -0.1679 -0.5022
 4957SOL     OW20707   0.890   9.124   9.880 -0.0181 -0.0750  0.2228
 4957SOL    HW120708   0.970   9.130   9.827 -1.3427  0.8084 -1.8175
 4957SOL    HW220709   0.900   9.043   9.930  2.8633  0.8523  1.3332
 4958SOL     OW20710   0.816   9.339   7.407  0.6013 -0.1039 -0.2687
 4958SOL    HW120711   0.828   9.397   7.482 -1.6685  1.0904 -0.7536
 4958SOL    HW220712   0.827   9.395   7.331 -2.2476 -0.0337 -0.7514
 4959SOL     OW20713   2.942   8.985   1.846 -0.4405  0.0607 -0.1084
 4959SOL    HW120714   2.963   9.075   1.824  1.4071  0.3232  2.3519
 4959SOL    HW220715   3.027   8.942   1.858 -1.2825 -1.3356  1.2261
 4960SOL     OW20716   2.944   4.389   9.570 -0.1225  0.2832  0.1160
 4960SOL    HW120717   2.979   4.301   9.564  0.2881  0.3661  1.0904
 4960SOL    HW220718   2.885   4.387   9.645  0.1598  0.9173  0.3707
 4961SOL     OW20719   5.022   8.985   7.158  0.0875  0.2005  0.7671
 4961SOL    HW120720   5.070   8.919   7.209 -0.2564  0.0055  0.8416
 4961SOL    HW220721   4.946   8.938   7.124 -1.2110  1.0184  2.3995
 4962SOL     OW20722   3.125  12.267   0.622  0.4110 -0.4757 -0.2213
 4962SOL    HW120723   3.140  12.256   0.715 -0.1343  0.4499 -0.0050
 4962SOL    HW220724   3.040  12.227   0.606 -0.1710  0.6326 -0.0201
 4963SOL     OW20725   1.837   0.665   1.796  0.7089 -0.1099  0.3479
 4963SOL    HW120726   1.772   0.668   1.865 -0.0851 -0.0136 -0.3925
 4963SOL    HW220727   1.858   0.757   1.779  0.8240 -0.1298  0.3778
 4964SOL     OW20728  10.358   8.032   7.645 -0.0720  0.6732  0.4305
 4964SOL    HW120729  10.305   8.009   7.722  0.6515  0.7386  0.9659
 4964SOL    HW220730  10.314   8.108   7.608 -1.2185 -0.1861 -0.0476
 4965SOL     OW20731   3.428   4.473   5.332 -0.0006  0.0686 -0.2444
 4965SOL    HW120732   3.433   4.501   5.424 -1.6005 -1.2974  0.3193
 4965SOL    HW220733   3.357   4.408   5.331 -0.0213  0.0559 -2.4608
 4966SOL     OW20734   5.278  11.619   3.519 -0.4213  0.0431 -0.1471
 4966SOL    HW120735   5.248  11.558   3.587 -0.4494  0.7622  0.4986
 4966SOL    HW220736   5.374  11.614   3.523 -0.4158  0.3735  0.2222
 4967SOL     OW20737   7.034   2.133   4.637  0.0905  0.2806 -0.1480
 4967SOL    HW120738   6.956   2.187   4.623  0.6956  1.4367  0.7481
 4967SOL    HW220739   7.081   2.176   4.708  1.6850 -0.2331 -0.8294
 4968SOL     OW20740   0.986  11.023   1.127  0.3910  0.2482 -0.4128
 4968SOL    HW120741   1.002  11.096   1.067  1.1223  2.7811  2.6578
 4968SOL    HW220742   0.905  11.046   1.172  0.9469 -0.4924  1.0274
 4969SOL     OW20743   9.646  10.992   3.242 -0.0123 -0.5468 -0.1744
 4969SOL    HW120744   9.660  11.070   3.295 -2.6236  0.3050 -0.5936
 4969SOL    HW220745   9.680  11.015   3.155  0.6941 -0.4962  0.1104
 4970SOL     OW20746   4.168   2.193   8.603 -0.3090 -0.4048 -0.4053
 4970SOL    HW120747   4.179   2.112   8.554 -0.4801 -0.3860 -0.4745
 4970SOL    HW220748   4.086   2.230   8.571  1.3117  1.4675 -2.7599
 4971SOL     OW20749   9.501   1.140   4.828 -0.1963  0.0275  0.1712
 4971SOL    HW120750   9.418   1.171   4.790 -0.8835 -1.1520  0.6608
 4971SOL    HW220751   9.500   1.175   4.917 -1.2365 -1.7487  0.9127
 4972SOL     OW20752   8.407   9.586   0.774  0.6209  0.0948 -0.5016
 4972SOL    HW120753   8.382   9.594   0.866 -1.4934 -1.4548 -0.8761
 4972SOL    HW220754   8.371   9.665   0.733  0.6988  0.3028 -0.1730
 4973SOL     OW20755   2.168  10.625   9.033 -0.3141 -0.1567 -0.6006
 4973SOL    HW120756   2.145  10.542   8.990 -0.5290 -1.6432  2.1422
 4973SOL    HW220757   2.093  10.645   9.089  1.3583 -0.3670  1.8696
 4974SOL     OW20758  10.583   2.589   3.430 -0.2798 -0.0941  0.4274
 4974SOL    HW120759  10.565   2.495   3.432  0.3418 -0.3527 -2.3991
 4974SOL    HW220760  10.549   2.618   3.345  1.2025  1.8597  0.4474
 4975SOL     OW20761  10.670   0.302   5.277 -0.2579  0.1705  0.1578
 4975SOL    HW120762  10.738   0.241   5.306  0.7452  1.2221  0.0724
 4975SOL    HW220763  10.646   0.270   5.189 -1.3257 -1.3636  0.9503
 4976SOL     OW20764   5.235   6.409  10.190  0.5940  0.5215  0.2380
 4976SOL    HW120765   5.253   6.447  10.275  1.2564  0.7572 -0.0061
 4976SOL    HW220766   5.253   6.315  10.201  0.0194  0.4435  0.5377
 4977SOL     OW20767   1.431   7.289   1.821 -0.1846 -0.0313  0.1575
 4977SOL    HW120768   1.435   7.347   1.897 -0.3818  1.6831 -1.0750
 4977SOL    HW220769   1.370   7.220   1.846  1.0241 -0.4789  2.1338
 4978SOL     OW20770   1.795  10.615   8.281  0.5102  0.3485 -0.3336
 4978SOL    HW120771   1.888  10.599   8.262  1.6848  1.3210  3.5488
 4978SOL    HW220772   1.785  10.592   8.373 -2.1940  3.6335  0.4061
 4979SOL     OW20773   1.075  12.278   3.298 -0.0947 -0.0711  0.1996
 4979SOL    HW120774   1.160  12.306   3.331 -0.0768  0.7548 -0.5295
 4979SOL    HW220775   1.030  12.243   3.374 -0.0094  1.6832  1.0975
 4980SOL     OW20776   8.275   9.369   0.652  0.4595  0.2870  0.3867
 4980SOL    HW120777   8.200   9.420   0.622 -0.5957 -0.7427  1.2041
 4980SOL    HW220778   8.331   9.433   0.697 -1.5650  0.5331  2.7320
 4981SOL     OW20779   7.551   5.436   5.736 -0.0082  0.1993  0.0867
 4981SOL    HW120780   7.465   5.439   5.778 -0.3187  1.2435 -0.6062
 4981SOL    HW220781   7.591   5.521   5.755  0.0959  0.4506 -1.1994
 4982SOL     OW20782   7.348  11.508   8.512 -1.1242  0.5290  0.5651
 4982SOL    HW120783   7.329  11.556   8.593  2.7503  0.7424  1.5651
 4982SOL    HW220784   7.340  11.573   8.443 -1.9060  1.0042  1.0830
 4983SOL     OW20785   9.264  12.299   3.356 -0.0643 -0.0011  0.5054
 4983SOL    HW120786   9.306  12.240   3.418  0.1394 -0.0905  0.2858
 4983SOL    HW220787   9.331  12.363   3.334  0.5879 -1.2037 -1.2504
 4984SOL     OW20788   2.508   0.617   0.149  0.0016  0.0690 -0.2412
 4984SOL    HW120789   2.488   0.610   0.056 -0.9376 -1.1802  0.0238
 4984SOL    HW220790   2.600   0.591   0.156  0.0189 -0.0211 -0.7932
 4985SOL     OW20791   6.439  11.316   9.545  0.1707 -0.4320 -0.4832
 4985SOL    HW120792   6.401  11.385   9.491  1.1243  0.3974 -0.1296
 4985SOL    HW220793   6.486  11.260   9.483  0.5672  0.0393 -0.6116
 4986SOL     OW20794   6.146   3.458   5.581 -0.8904 -0.5113 -0.0199
 4986SOL    HW120795   6.061   3.415   5.573 -2.1895  2.1885 -2.2328
 4986SOL    HW220796   6.132   3.546   5.548  2.0451  1.1437  2.5926
 4987SOL     OW20797  11.793   9.480  10.512  0.3256  0.0093  0.2074
 4987SOL    HW120798  11.769   9.425  10.587 -1.5841 -0.0503 -0.3744
 4987SOL    HW220799  11.730   9.552  10.515 -0.0951 -0.2318 -1.5815
 4988SOL     OW20800   4.190   3.784  10.223  0.0396  0.2070  0.2265
 4988SOL    HW120801   4.154   3.716  10.166 -0.7609  1.1847 -0.4714
 4988SOL    HW220802   4.273   3.748  10.254 -0.2322 -0.9612 -0.3584
 4989SOL     OW20803  12.015  11.425  10.323  0.8878 -0.1110  0.0454
 4989SOL    HW120804  12.089  11.485  10.316 -0.5663  1.7914  0.1030
 4989SOL    HW220805  11.981  11.418  10.234 -0.0143  0.6142  0.3144
 4990SOL     OW20806   1.251   2.516   1.046  0.3301  0.1092 -0.1926
 4990SOL    HW120807   1.230   2.513   0.953 -1.0597  0.5112  0.0877
 4990SOL    HW220808   1.176   2.475   1.089  0.3166  1.1652  0.8366
 4991SOL     OW20809   0.539   4.329   2.236  0.2630  0.2546 -0.1668
 4991SOL    HW120810   0.581   4.385   2.171 -0.0056  1.7544  0.9011
 4991SOL    HW220811   0.467   4.288   2.189  1.2107 -0.1974 -1.2915
 4992SOL     OW20812   3.431  12.217   7.784 -0.0358  0.6278  0.0330
 4992SOL    HW120813   3.350  12.167   7.773  0.3926  0.3893 -2.5305
 4992SOL    HW220814   3.410  12.304   7.752  0.2846  1.0407  0.9217
 4993SOL     OW20815   8.011   1.141   7.593 -0.4825 -0.2463 -0.0310
 4993SOL    HW120816   8.022   1.234   7.576  0.0693 -0.2049  0.4971
 4993SOL    HW220817   8.093   1.115   7.636 -0.7581 -0.9035  0.1089
 4994SOL     OW20818   7.983   6.804   3.884  0.1929 -0.1436  0.1191
 4994SOL    HW120819   8.033   6.741   3.833 -0.6940  0.4784 -1.6227
 4994SOL    HW220820   7.966   6.760   3.968 -2.4281 -3.2971 -1.8084
 4995SOL     OW20821  11.251   6.142   5.677 -0.0021 -0.5693 -0.2544
 4995SOL    HW120822  11.301   6.068   5.711  1.3133  0.2415 -0.3382
 4995SOL    HW220823  11.204   6.177   5.754  0.3821 -0.7157  0.0494
 4996SOL     OW20824   8.000   9.986   5.977 -0.1229  0.6127  0.2956
 4996SOL    HW120825   7.928  10.044   5.954 -0.1098 -0.0080 -1.4893
 4996SOL    HW220826   8.063   9.996   5.905  0.0128 -1.3492  0.0627
 4997SOL     OW20827  10.206   7.310   0.664  0.2282  0.3128 -0.4479
 4997SOL    HW120828  10.184   7.233   0.715 -0.4593  0.8977  0.1576
 4997SOL    HW220829  10.190   7.384   0.723  1.5482  0.8949 -0.7796
 4998SOL     OW20830   1.000   4.009   2.637 -0.2015  0.0830  0.0082
 4998SOL    HW120831   1.013   3.947   2.710  0.2379 -0.2124 -0.3184
 4998SOL    HW220832   0.906   4.025   2.637  0.1127  2.7886  2.8402
 4999SOL     OW20833   5.452   1.327   9.454 -0.2976  0.2834  0.2239
 4999SOL    HW120834   5.490   1.400   9.405 -0.8099  0.4975  0.1307
 4999SOL    HW220835   5.421   1.367   9.535 -0.4044  0.1299  0.2584
 5000SOL     OW20836   1.119  10.079   6.102 -0.1164  0.1917  0.0004
 5000SOL    HW120837   1.109  10.053   6.011 -1.0153 -0.0297  0.1452
 5000SOL    HW220838   1.038  10.127   6.122  0.8339  1.7608  0.1845
 5001SOL     OW20839   6.316   9.127   9.336 -0.0466  0.0190  0.1459
 5001SOL    HW120840   6.399   9.103   9.376 -0.2878 -0.0642  0.6118
 5001SOL    HW220841   6.332   9.125   9.242  0.3997 -0.2778  0.2279
 5002SOL     OW20842  10.947   4.557   6.765  0.6053  0.5042  0.8039
 5002SOL    HW120843  10.900   4.637   6.790  1.3434  0.9758  0.7306
 5002SOL    HW220844  11.034   4.567   6.805  0.1709 -1.0636  2.2445
 5003SOL     OW20845  10.996   8.428   0.361 -0.0122 -0.4811 -0.0165
 5003SOL    HW120846  11.073   8.468   0.401  0.5240 -1.6001  0.1338
 5003SOL    HW220847  10.932   8.422   0.432  0.6643 -1.7655  0.5226
 5004SOL     OW20848   5.767   4.285   7.317  0.6976  0.6107 -0.0484
 5004SOL    HW120849   5.679   4.263   7.287  0.3789  0.6675  0.8043
 5004SOL    HW220850   5.818   4.205   7.304 -0.1152 -0.2714  1.7718
 5005SOL     OW20851   4.274   8.947   0.331  0.1883  0.0019 -0.2712
 5005SOL    HW120852   4.268   8.970   0.424 -1.9166 -0.2482 -0.2905
 5005SOL    HW220853   4.337   9.010   0.295 -1.3620  2.3009  0.7292
 5006SOL     OW20854   7.287  10.785   7.143  0.4020 -0.3355  0.0178
 5006SOL    HW120855   7.324  10.697   7.148 -0.6033 -0.7463  0.4498
 5006SOL    HW220856   7.315  10.828   7.224  2.7798  0.5376 -1.1833
 5007SOL     OW20857   7.544   5.359   6.607 -0.3186  0.1408 -0.5045
 5007SOL    HW120858   7.500   5.397   6.683 -0.8336  0.7812 -1.1120
 5007SOL    HW220859   7.550   5.266   6.627 -0.1675  0.3474  0.4575
 5008SOL     OW20860   5.002   0.021   2.383  0.3646 -0.4141 -0.1950
 5008SOL    HW120861   5.016   0.072   2.303  0.1365 -1.4364 -0.8968
 5008SOL    HW220862   4.946   0.078   2.437 -0.9772 -0.4136 -1.5096
 5009SOL     OW20863   5.213   6.161   9.829  0.2113  0.1688 -0.0136
 5009SOL    HW120864   5.214   6.246   9.784 -3.3299  0.9653  1.1490
 5009SOL    HW220865   5.135   6.163   9.884  0.0573 -3.8160  0.2019
 5010SOL     OW20866   7.431  10.719   1.577 -0.3724 -0.2652 -0.0874
 5010SOL    HW120867   7.410  10.810   1.559  1.2836  0.1035 -0.2639
 5010SOL    HW220868   7.448  10.680   1.491  0.3989 -0.3460  0.0916
 5011SOL     OW20869   6.412  10.724   4.447  0.4421  0.0727 -0.5232
 5011SOL    HW120870   6.483  10.768   4.401  1.2264 -0.0093  0.5818
 5011SOL    HW220871   6.425  10.746   4.539 -0.1979 -1.0070 -0.1497
 5012SOL     OW20872   6.199  11.446   0.567 -0.1195  0.0323 -0.1252
 5012SOL    HW120873   6.284  11.413   0.595  0.3232  2.2548  1.3353
 5012SOL    HW220874   6.158  11.481   0.646 -1.5539  0.7933 -1.1439
 5013SOL     OW20875   6.551  10.892   9.297 -0.0368 -0.6180 -0.2012
 5013SOL    HW120876   6.604  10.956   9.249  0.5332  1.1814  2.6309
 5013SOL    HW220877   6.461  10.911   9.271  0.2770  0.0294 -0.8325
 5014SOL     OW20878   9.456   3.653   5.786 -0.1297  0.6908 -0.1530
 5014SOL    HW120879   9.520   3.709   5.831 -0.5111  0.8429  0.2104
 5014SOL    HW220880   9.503   3.617   5.711  0.7081 -0.0882  0.7346
 5015SOL     OW20881   6.015   8.880  10.667 -0.1188  0.0080  0.2194
 5015SOL    HW120882   5.940   8.883  10.726 -0.9877  0.3295 -0.8581
 5015SOL    HW220883   6.057   8.966  10.677 -1.1007  0.6235 -0.6381
 5016SOL     OW20884   8.624   9.487   8.740  0.1579  0.1003  0.1457
 5016SOL    HW120885   8.651   9.576   8.716  0.3243  0.3726  1.2610
 5016SOL    HW220886   8.531   9.484   8.719 -0.4228  1.3533  2.1975
 5017SOL     OW20887   0.428   6.310   4.735  0.3663  0.3784  0.3425
 5017SOL    HW120888   0.365   6.327   4.665  0.2235  0.7184  0.5474
 5017SOL    HW220889   0.375   6.276   4.807  0.2570  1.5551  0.8515
 5018SOL     OW20890   6.899   0.738   5.230  0.3742  0.0093  0.0522
 5018SOL    HW120891   6.953   0.763   5.155  0.8035  0.9564  0.6533
 5018SOL    HW220892   6.950   0.671   5.276 -0.1197 -0.9512 -0.7621
 5019SOL     OW20893   2.443   9.948   0.842  0.7335  0.7137 -0.4122
 5019SOL    HW120894   2.442   9.985   0.931  0.8963  0.1241 -0.1642
 5019SOL    HW220895   2.450  10.025   0.785 -0.3382  1.1766  0.0406
 5020SOL     OW20896   0.110   4.207   8.628  0.3539  0.1625 -0.5350
 5020SOL    HW120897   0.047   4.258   8.577 -1.2492 -0.9541  0.2500
 5020SOL    HW220898   0.058   4.165   8.696  1.8767 -1.2235 -0.1542
 5021SOL     OW20899   9.107   4.567   2.338  0.2441 -0.1145  0.1351
 5021SOL    HW120900   9.191   4.548   2.379  0.4073  0.6450  0.1734
 5021SOL    HW220901   9.042   4.544   2.404  0.4810  0.5175  0.6019
 5022SOL     OW20902   3.848   1.144   3.384 -0.5035 -0.1639  0.1454
 5022SOL    HW120903   3.934   1.123   3.419 -1.4385 -0.4295  2.4808
 5022SOL    HW220904   3.823   1.067   3.334  0.0809 -0.6479  0.5891
 5023SOL     OW20905   5.129   1.171   8.811  0.7338 -0.2803 -0.1517
 5023SOL    HW120906   5.196   1.217   8.861  0.8703 -0.7881  0.1365
 5023SOL    HW220907   5.046   1.199   8.851  0.8590 -0.9901  0.6347
 5024SOL     OW20908  11.477   7.259   1.287  0.3751  0.3475 -0.2385
 5024SOL    HW120909  11.506   7.214   1.366 -2.2676  0.1226  0.7295
 5024SOL    HW220910  11.511   7.348   1.296  1.3176 -0.0613  0.4081
 5025SOL     OW20911   0.496   5.485  11.659  0.0769  0.1559 -0.0528
 5025SOL    HW120912   0.429   5.513  11.597  0.3897 -0.6525 -0.7651
 5025SOL    HW220913   0.446   5.447  11.732 -0.2536 -0.0358 -0.3759
 5026SOL     OW20914   6.257   5.690   1.405 -0.1628  0.1119  0.1356
 5026SOL    HW120915   6.241   5.676   1.498  0.0873  0.4520  0.2303
 5026SOL    HW220916   6.206   5.621   1.362  0.0490 -0.3028  0.5399
 5027SOL     OW20917   6.144   2.710   2.930 -0.2186  0.8917 -0.2005
 5027SOL    HW120918   6.137   2.624   2.887  0.9953  1.0667 -0.7790
 5027SOL    HW220919   6.076   2.708   2.997  0.3283 -0.8677  0.3771
 5028SOL     OW20920   9.264  11.239  11.610 -0.0778 -0.2156  0.4736
 5028SOL    HW120921   9.192  11.301  11.601 -0.8000 -1.2945 -2.2962
 5028SOL    HW220922   9.253  11.202  11.698 -1.7690  0.9714  0.8053
 5029SOL     OW20923   7.818   2.462   9.883  0.5863  0.5650  0.2730
 5029SOL    HW120924   7.866   2.518   9.944  0.3966  1.8964 -0.7499
 5029SOL    HW220925   7.821   2.509   9.800 -0.0029 -0.7335 -0.5160
 5030SOL     OW20926   3.160   6.636   6.870 -0.0809 -0.1136 -0.2923
 5030SOL    HW120927   3.180   6.555   6.823 -0.8609 -0.4673 -0.0164
 5030SOL    HW220928   3.071   6.659   6.841  0.3425  0.9590 -0.8137
 5031SOL     OW20929   9.315  11.210   5.695 -0.1524 -0.0093  0.5020
 5031SOL    HW120930   9.380  11.243   5.757  2.4837  1.9373 -2.8983
 5031SOL    HW220931   9.339  11.118   5.681 -0.3682 -0.2768  1.7631
 5032SOL     OW20932   2.841   0.956   3.526 -0.8834 -0.1292  0.4096
 5032SOL    HW120933   2.918   0.903   3.503 -0.6941  0.7736 -1.1684
 5032SOL    HW220934   2.848   0.968   3.620  0.2365 -1.0998  0.4808
 5033SOL     OW20935  10.569   1.286   7.107  0.0260 -0.1964 -0.5293
 5033SOL    HW120936  10.651   1.241   7.126  0.7337  1.1024 -0.3401
 5033SOL    HW220937  10.583   1.324   7.020 -0.8383 -0.9543 -1.0110
 5034SOL     OW20938   1.433  10.066   4.183 -0.2565  0.2645  0.0104
 5034SOL    HW120939   1.461  10.142   4.132 -0.5689  0.4130  0.0574
 5034SOL    HW220940   1.359  10.098   4.235 -1.2792 -0.4248 -0.9819
 5035SOL     OW20941   8.017  11.159   6.681  0.5072 -0.0979 -0.3497
 5035SOL    HW120942   7.947  11.189   6.741  0.3823  0.5474 -0.8088
 5035SOL    HW220943   8.079  11.114   6.738  1.5402  2.4279  0.6981
 5036SOL     OW20944   4.329   0.865   5.412 -0.1456  0.0562 -0.0682
 5036SOL    HW120945   4.239   0.878   5.382 -0.7357 -1.4296  0.9421
 5036SOL    HW220946   4.324   0.791   5.472  2.0220 -1.1678 -1.2648
 5037SOL     OW20947   7.086   3.937   4.195 -0.1165  0.1822  0.0880
 5037SOL    HW120948   7.096   3.859   4.251  1.4692  0.9524  0.9810
 5037SOL    HW220949   7.123   3.911   4.111 -2.0698 -0.8381 -0.4984
 5038SOL     OW20950   8.042   1.896  12.150  0.4140  0.2396 -0.8020
 5038SOL    HW120951   8.046   1.811  12.108 -0.0424  0.2355 -0.8341
 5038SOL    HW220952   8.106   1.949  12.102  0.0385  0.1791 -1.3712
 5039SOL     OW20953   7.842   1.792  10.409 -0.0896  0.2326 -0.3520
 5039SOL    HW120954   7.864   1.740  10.331  1.1919 -0.2735  0.3126
 5039SOL    HW220955   7.784   1.861  10.376 -0.7152 -0.8050 -1.4959
 5040SOL     OW20956   5.559   6.245  11.165  0.3555 -0.2671  0.3305
 5040SOL    HW120957   5.557   6.165  11.113  0.8469 -0.8748  1.2335
 5040SOL    HW220958   5.478   6.243  11.215 -0.7020  0.9081 -1.2354
 5041SOL     OW20959   5.660   0.791   3.026 -0.7432  0.5624 -0.4555
 5041SOL    HW120960   5.736   0.767   3.079 -1.2359  1.3714  0.6744
 5041SOL    HW220961   5.687   0.873   2.983 -0.6065  0.2892 -0.8988
 5042SOL     OW20962   2.129  11.494  10.968 -0.4125  0.4606 -0.1364
 5042SOL    HW120963   2.098  11.408  10.938 -1.5128  0.2710  1.4359
 5042SOL    HW220964   2.105  11.554  10.898 -0.1346 -0.4092 -1.0095
 5043SOL     OW20965   3.479   7.694  10.370  0.1446 -0.1724  0.2657
 5043SOL    HW120966   3.413   7.661  10.308  0.7670  0.5733 -0.8207
 5043SOL    HW220967   3.553   7.635  10.360  0.0561 -0.3655  0.7032
 5044SOL     OW20968   3.465   2.028  10.687  0.5807 -0.3091 -0.0338
 5044SOL    HW120969   3.394   2.088  10.709  0.4981  0.1752 -1.5082
 5044SOL    HW220970   3.519   2.077  10.624  2.5012 -0.4833  1.3881
 5045SOL     OW20971   3.930   8.187   3.317  0.0221 -0.0127  0.0243
 5045SOL    HW120972   3.929   8.189   3.221  0.7365  1.1709  0.0192
 5045SOL    HW220973   3.860   8.247   3.343 -0.0376 -0.1756  0.2428
 5046SOL     OW20974   9.727   9.484   1.773 -0.4860 -0.4040  0.2341
 5046SOL    HW120975   9.765   9.570   1.757 -1.3257 -0.1473 -0.4503
 5046SOL    HW220976   9.752   9.433   1.696 -0.5936 -0.5616  0.3043
 5047SOL     OW20977   1.074   4.941   6.206 -0.0648 -0.2070 -0.1806
 5047SOL    HW120978   1.035   4.868   6.157  1.1221 -0.3460 -0.9469
 5047SOL    HW220979   1.127   4.899   6.274  1.0811 -0.0926 -0.9807
 5048SOL     OW20980   4.729   8.598   7.576 -0.1424 -0.4215  0.1384
 5048SOL    HW120981   4.811   8.555   7.554  1.0170  1.0750  1.3110
 5048SOL    HW220982   4.662   8.550   7.527  1.6991 -0.1095 -2.9125
 5049SOL     OW20983   3.042   2.730  10.603 -0.1112 -0.4376  0.5607
 5049SOL    HW120984   3.075   2.787  10.533 -1.2675  0.2037  0.5082
 5049SOL    HW220985   3.083   2.763  10.683 -2.7035  2.2631  0.9565
 5050SOL     OW20986   6.684   1.313   9.401  0.0148 -0.1102  0.2509
 5050SOL    HW120987   6.765   1.337   9.446 -0.5517  0.3700  1.0684
 5050SOL    HW220988   6.689   1.218   9.390 -0.3189 -0.4429  2.4490
 5051SOL     OW20989   1.833   5.291   0.405 -0.3596 -0.3062  0.0892
 5051SOL    HW120990   1.830   5.218   0.467  2.8409  0.0974  0.8646
 5051SOL    HW220991   1.775   5.264   0.334  0.4418 -3.4700  0.4955
 5052SOL     OW20992   0.681   4.149   3.895  0.1966  0.1284  0.0936
 5052SOL    HW120993   0.711   4.072   3.846 -1.9933 -1.7676  1.5302
 5052SOL    HW220994   0.762   4.191   3.925  1.4777 -2.3031  0.2800
 5053SOL     OW20995   2.666   7.103   2.250  0.5956 -0.0263  0.3736
 5053SOL    HW120996   2.609   7.178   2.237  0.6555 -0.0765 -0.2056
 5053SOL    HW220997   2.623   7.031   2.204 -0.8112 -1.0447  3.0259
 5054SOL     OW20998   5.457  11.102   2.591 -0.4050  0.8911 -0.0852
 5054SOL    HW120999   5.389  11.167   2.606 -1.1794 -0.0631  0.6096
 5054SOL    HW221000   5.425  11.050   2.517  0.1838  1.2408 -0.5994
 5055SOL     OW21001   8.892   5.854   7.697 -0.3956 -0.4918  0.1733
 5055SOL    HW121002   8.973   5.852   7.645  0.4527  2.8588  1.0851
 5055SOL    HW221003   8.835   5.914   7.650 -0.3547  1.0704  1.9625
 5056SOL     OW21004   3.360   8.392   3.133 -0.1122 -0.8722  0.0749
 5056SOL    HW121005   3.421   8.461   3.107 -1.1190 -0.6310 -1.7359
 5056SOL    HW221006   3.309   8.373   3.055 -2.4683 -0.9917  1.5318
 5057SOL     OW21007   9.650   1.387  10.530  0.6374 -0.1773  0.1257
 5057SOL    HW121008   9.658   1.360  10.438  0.0108 -2.0755  0.5814
 5057SOL    HW221009   9.557   1.381  10.549  0.7618  0.2178  0.8889
 5058SOL     OW21010   7.708   6.286   3.690  0.0083  0.0666 -0.5091
 5058SOL    HW121011   7.642   6.344   3.651 -0.0745 -0.2598 -0.8624
 5058SOL    HW221012   7.660   6.236   3.756  0.3081  1.1574  0.5720
 5059SOL     OW21013   0.848   5.575   8.411  0.4556  0.0208  0.0499
 5059SOL    HW121014   0.924   5.619   8.372 -1.1726  2.0347 -1.0363
 5059SOL    HW221015   0.821   5.633   8.482 -0.0628 -0.7002  0.4542
 5060SOL     OW21016  10.192   1.255  11.372  0.5228 -0.7395 -0.3578
 5060SOL    HW121017  10.184   1.184  11.437 -0.3263  1.3209  1.9482
 5060SOL    HW221018  10.256   1.315  11.411 -0.5811  0.9446 -1.0613
 5061SOL     OW21019   3.736   2.717   0.509 -0.5005  0.0172 -0.1431
 5061SOL    HW121020   3.790   2.698   0.432 -0.6353  0.1446 -0.2684
 5061SOL    HW221021   3.649   2.684   0.486  0.2751 -3.6168  1.4413
 5062SOL     OW21022   3.680   0.534   7.663  0.5017  0.0983  0.2821
 5062SOL    HW121023   3.658   0.487   7.744  0.4911  1.2727  0.9856
 5062SOL    HW221024   3.760   0.582   7.683  0.6910  0.1358 -0.5171
 5063SOL     OW21025   5.699   6.170  11.846  0.0326 -0.5151  0.2919
 5063SOL    HW121026   5.622   6.172  11.789 -0.8788 -0.8046  1.4765
 5063SOL    HW221027   5.687   6.244  11.906  0.1681 -1.1626  1.1310
 5064SOL     OW21028   5.195   0.112   5.749 -0.2161 -0.0863  0.1939
 5064SOL    HW121029   5.131   0.119   5.679 -2.1303 -0.7094  1.8128
 5064SOL    HW221030   5.180   0.189   5.804  0.5156 -0.1803  0.5455
 5065SOL     OW21031   1.863   9.720   5.451  0.1532  1.0084 -0.2312
 5065SOL    HW121032   1.835   9.768   5.373 -3.0112  2.4831  1.6103
 5065SOL    HW221033   1.794   9.737   5.515  0.0841 -3.9983  1.4644
 5066SOL     OW21034   1.558   9.400   0.963 -0.8557 -0.1407 -0.0024
 5066SOL    HW121035   1.592   9.437   0.881 -0.9843  0.4210  0.1951
 5066SOL    HW221036   1.570   9.470   1.028  0.0344 -0.8853  0.6618
 5067SOL     OW21037  10.458   3.139  11.187  0.3893 -0.3610  0.4526
 5067SOL    HW121038  10.447   3.142  11.282  1.3719 -0.4233  0.5776
 5067SOL    HW221039  10.392   3.076  11.157  0.7015 -1.0526  1.1937
 5068SOL     OW21040   1.931   1.865   7.810 -0.3571 -0.1622  0.3097
 5068SOL    HW121041   1.930   1.834   7.901 -1.7127  2.8518  1.4652
 5068SOL    HW221042   1.996   1.935   7.810 -0.9234  0.3830 -0.8322
 5069SOL     OW21043   3.952   3.029   4.171 -0.1932  0.2081 -0.0607
 5069SOL    HW121044   4.010   2.980   4.229  1.0426 -0.2960 -1.6162
 5069SOL    HW221045   3.979   3.120   4.182  2.2008 -0.1515 -1.9751
 5070SOL     OW21046   0.225   1.456   8.349  0.2746 -0.3901 -0.5390
 5070SOL    HW121047   0.278   1.531   8.323 -1.3932  0.9264 -0.3157
 5070SOL    HW221048   0.273   1.419   8.424  0.1845  1.6669  0.6377
 5071SOL     OW21049   9.811   5.047   3.971  0.1791  0.0540  0.8614
 5071SOL    HW121050   9.850   5.034   3.884 -0.6065 -1.2276  0.6778
 5071SOL    HW221051   9.886   5.052   4.030  0.6931 -0.1484  0.2354
 5072SOL     OW21052   6.198   3.355   5.141 -0.3006  0.6349  0.1161
 5072SOL    HW121053   6.274   3.353   5.083 -1.0472  2.9592 -1.1111
 5072SOL    HW221054   6.229   3.398   5.220  0.1325 -0.3103  0.4733
 5073SOL     OW21055  10.638   0.187   9.800 -0.4474 -0.1472  0.0625
 5073SOL    HW121056  10.711   0.231   9.843 -0.3100  0.2354 -0.5458
 5073SOL    HW221057  10.661   0.094   9.802  0.3937  0.0213 -0.7123
 5074SOL     OW21058   1.074  12.331   7.888  0.4360  0.0411 -0.5388
 5074SOL    HW121059   0.997  12.290   7.926  0.8033  0.1753  0.3687
 5074SOL    HW221060   1.148  12.292   7.935  1.0830 -1.5402 -2.7087
 5075SOL     OW21061   9.708   7.558   0.639 -0.1603 -0.0536  0.3773
 5075SOL    HW121062   9.714   7.642   0.684  0.1758  0.2730 -0.2635
 5075SOL    HW221063   9.780   7.559   0.576 -0.2854 -0.7341  0.2084
 5076SOL     OW21064  10.232   5.775  10.639  0.5335 -0.0055  0.5223
 5076SOL    HW121065  10.242   5.685  10.607 -0.1513  0.1254 -0.1009
 5076SOL    HW221066  10.231   5.767  10.734 -0.4757 -0.7784  0.4597
 5077SOL     OW21067   7.258  11.475  10.096  0.5642 -0.0156  0.5147
 5077SOL    HW121068   7.278  11.478  10.190 -0.3163 -2.1463  0.8163
 5077SOL    HW221069   7.239  11.383  10.078 -1.3014  0.6569 -1.3311
 5078SOL     OW21070   1.328   7.425   3.200 -1.1112  0.2083  0.0781
 5078SOL    HW121071   1.380   7.345   3.195  0.0582  0.8505  1.3472
 5078SOL    HW221072   1.240   7.398   3.175 -0.1954 -0.9065 -2.2689
 5079SOL     OW21073  10.933  10.339   2.891 -0.1641 -0.2220 -0.9515
 5079SOL    HW121074  10.931  10.399   2.966 -1.2341 -0.3860 -0.8370
 5079SOL    HW221075  10.913  10.253   2.928  1.5218 -0.7248 -1.0928
 5080SOL     OW21076   4.440   7.327  10.792  0.0098  1.0578 -0.1410
 5080SOL    HW121077   4.483   7.379  10.725  1.9016 -0.8517 -0.5288
 5080SOL    HW221078   4.486   7.349  10.873  0.8256  0.0528 -0.3086
 5081SOL     OW21079   9.742   3.964   8.583 -0.2007  0.0429  0.7771
 5081SOL    HW121080   9.775   4.016   8.511 -0.9240  0.9184  1.0624
 5081SOL    HW221081   9.657   3.932   8.553  0.6792 -1.8738  0.1937
 5082SOL     OW21082  10.197   6.028   3.187  0.2180 -0.4756  0.1183
 5082SOL    HW121083  10.179   6.051   3.279  0.3298 -1.4523  0.3989
 5082SOL    HW221084  10.221   6.111   3.146 -1.1674  0.2272  0.6381
 5083SOL     OW21085  10.813  11.234   7.175  0.1985 -0.2908  0.3215
 5083SOL    HW121086  10.763  11.314   7.192 -0.2626 -0.3053 -0.8495
 5083SOL    HW221087  10.816  11.189   7.259  0.7995  1.1392  1.0965
 5084SOL     OW21088   3.621   2.503  10.755 -0.4556  0.0158 -0.0881
 5084SOL    HW121089   3.621   2.549  10.839  1.5306  0.9408 -0.5475
 5084SOL    HW221090   3.613   2.410  10.779  0.7822  0.1961  1.1937
 5085SOL     OW21091  11.273   8.911   4.303 -0.1861  0.2251 -0.0182
 5085SOL    HW121092  11.269   8.862   4.386 -1.4941 -1.1357 -0.8305
 5085SOL    HW221093  11.303   8.998   4.328  1.8744 -0.8574  1.5571
 5086SOL     OW21094  10.115   8.746   1.429  0.0182  0.4165 -0.4259
 5086SOL    HW121095  10.173   8.682   1.470 -0.3270 -0.1678 -0.8317
 5086SOL    HW221096  10.031   8.736   1.476 -0.0699  0.4953 -0.5665
 5087SOL     OW21097   1.006  10.160   4.034 -0.2738 -0.2502  0.0139
 5087SOL    HW121098   0.991  10.079   4.082 -1.2898 -0.1882 -0.1889
 5087SOL    HW221099   0.938  10.220   4.065  1.2855  1.0001  1.1829
 5088SOL     OW21100   7.976   5.411  12.158 -0.2222  0.4310 -0.1530
 5088SOL    HW121101   8.035   5.461  12.214 -0.5634 -0.2530  0.8565
 5088SOL    HW221102   8.012   5.322  12.160 -0.3582  0.3608 -0.8533
 5089SOL     OW21103   3.471   4.652   2.497  0.3657  0.2685 -0.4043
 5089SOL    HW121104   3.463   4.611   2.411 -0.9879  0.1821 -0.2637
 5089SOL    HW221105   3.391   4.704   2.506  1.1417  1.3879  0.2352
 5090SOL     OW21106   2.479   4.653   7.382 -0.2040  0.9394 -0.1524
 5090SOL    HW121107   2.506   4.742   7.356 -0.1613  1.5759  1.9310
 5090SOL    HW221108   2.506   4.646   7.473  0.1248 -1.3858 -0.3851
 5091SOL     OW21109   5.496   2.247   1.513 -0.2304 -0.4902 -0.0849
 5091SOL    HW121110   5.538   2.245   1.427  0.9807 -2.6801  0.4875
 5091SOL    HW221111   5.548   2.188   1.567 -1.7113 -0.1572  1.8217
 5092SOL     OW21112  11.740   3.103   7.332 -0.1171 -0.1438  0.2177
 5092SOL    HW121113  11.697   3.027   7.293 -0.8547 -0.1414  1.0093
 5092SOL    HW221114  11.802   3.132   7.265 -1.1070 -0.3487 -0.8222
 5093SOL     OW21115   3.400  12.034   0.805  0.0826 -0.8063  0.6105
 5093SOL    HW121116   3.433  12.098   0.742 -2.7735  0.6092  0.3731
 5093SOL    HW221117   3.375  11.958   0.752 -0.8711 -0.2211  0.1846
 5094SOL     OW21118   0.397   4.309   1.968  0.4415 -0.5306  0.0803
 5094SOL    HW121119   0.392   4.215   1.951  0.3272 -0.5060 -0.0280
 5094SOL    HW221120   0.482   4.336   1.932  0.0721 -0.4259 -0.7405
 5095SOL     OW21121   9.885   0.350   6.983  0.8242 -0.3067 -0.4076
 5095SOL    HW121122   9.833   0.350   6.903 -0.5653  0.6895  0.4252
 5095SOL    HW221123   9.820   0.335   7.053  1.6403  1.0612  0.6897
 5096SOL     OW21124  11.760  11.527   7.963  0.0608  1.0897  0.3134
 5096SOL    HW121125  11.693  11.594   7.961 -0.0894  1.0330  2.0172
 5096SOL    HW221126  11.744  11.479   8.044  0.6437 -0.5139 -0.4688
 5097SOL     OW21127   5.438   1.299   4.069 -0.3076  0.3484 -0.5691
 5097SOL    HW121128   5.434   1.226   4.130 -1.3773  0.0096 -1.0112
 5097SOL    HW221129   5.391   1.370   4.113 -0.2838  0.3936 -0.6164
 5098SOL     OW21130   5.049   8.083   6.907  0.0279 -0.5027  0.3786
 5098SOL    HW121131   5.028   8.144   6.837  0.4528  0.5524  1.1455
 5098SOL    HW221132   5.036   8.133   6.987 -0.4642 -1.6872  1.0695
 5099SOL     OW21133   9.130  11.039   0.698 -0.5588  0.6946 -0.2025
 5099SOL    HW121134   9.135  11.025   0.793  0.4482  2.5438  0.0609
 5099SOL    HW221135   9.047  11.085   0.685 -0.8461  0.1687 -0.2834
 5100SOL     OW21136   5.802   8.432   0.024  0.0662  0.0817  0.2641
 5100SOL    HW121137   5.854   8.461  -0.051 -1.6376  1.1506 -0.5749
 5100SOL    HW221138   5.808   8.336   0.022  0.7786  0.1311 -0.7048
 5101SOL     OW21139  10.670  10.558   7.185  0.4532  0.2443  0.3635
 5101SOL    HW121140  10.722  10.485   7.152 -0.0309  0.0716 -0.0445
 5101SOL    HW221141  10.586  10.518   7.209 -0.3682  0.8748 -1.2779
 5102SOL     OW21142   0.133   5.435   9.801 -0.0226 -0.1099  0.1685
 5102SOL    HW121143   0.189   5.460   9.874  0.3023  1.7472 -0.6620
 5102SOL    HW221144   0.150   5.341   9.788  1.4856  0.0079  1.1085
 5103SOL     OW21145   2.726  12.008   1.449 -0.0839  0.5359 -0.2798
 5103SOL    HW121146   2.757  11.942   1.387 -2.2683 -1.2084  0.3737
 5103SOL    HW221147   2.632  12.013   1.434  0.0309  4.0818 -0.7630
 5104SOL     OW21148   2.843   2.843   8.832  0.4041  0.0427 -0.5654
 5104SOL    HW121149   2.937   2.850   8.817  0.4444 -2.2532 -1.7881
 5104SOL    HW221150   2.824   2.750   8.821 -2.4455  0.7755 -3.1814
 5105SOL     OW21151   0.659   8.981   2.027 -0.4001  0.1287 -0.0730
 5105SOL    HW121152   0.741   9.014   2.064 -0.2027 -0.5041  0.0678
 5105SOL    HW221153   0.612   9.059   1.998  0.9884  0.4148 -1.6976
 5106SOL     OW21154   3.682   2.928   1.063 -0.0587 -0.3765  0.1472
 5106SOL    HW121155   3.709   2.850   1.113 -0.4226 -0.4615  0.2192
 5106SOL    HW221156   3.627   2.893   0.993  1.2818 -0.3488 -0.9383
 5107SOL     OW21157  10.222   2.708  10.845  0.0863  0.0647  0.0734
 5107SOL    HW121158  10.171   2.695  10.764  2.3879 -1.3247 -1.2465
 5107SOL    HW221159  10.311   2.682  10.822  0.6907 -1.1320  3.3056
 5108SOL     OW21160   2.720   1.714   6.197  0.3382  0.2256 -0.2384
 5108SOL    HW121161   2.784   1.784   6.190  0.7682 -0.1661 -0.2329
 5108SOL    HW221162   2.743   1.667   6.277 -0.1287  0.2533 -0.0821
 5109SOL     OW21163   3.512   7.311   8.600  0.6638 -0.4865  0.0525
 5109SOL    HW121164   3.430   7.358   8.615 -0.0579 -1.7035  0.0632
 5109SOL    HW221165   3.519   7.307   8.504 -0.0661 -1.6219  0.0193
 5110SOL     OW21166   8.405  11.239   6.843 -0.3178  0.2537 -0.0159
 5110SOL    HW121167   8.328  11.292   6.863 -0.7000  0.8676 -2.7048
 5110SOL    HW221168   8.453  11.289   6.777  2.3896 -0.1629  1.4840
 5111SOL     OW21169   7.442   0.434  11.885  0.1384 -0.1665 -0.2789
 5111SOL    HW121170   7.450   0.403  11.975  0.6880 -1.5676 -0.7870
 5111SOL    HW221171   7.532   0.435  11.851 -0.1611 -0.6341 -1.1235
 5112SOL     OW21172   8.039   9.000   1.245 -0.4284 -0.2086  0.2957
 5112SOL    HW121173   7.996   9.068   1.193  0.4965 -0.6493 -1.1175
 5112SOL    HW221174   8.066   8.934   1.180  2.8048  0.2830  0.9641
 5113SOL     OW21175   5.388   6.585   4.865  0.2420  0.2118  0.1718
 5113SOL    HW121176   5.368   6.670   4.826 -1.6849  0.4462  1.5102
 5113SOL    HW221177   5.334   6.582   4.944  1.0870 -1.8193  0.7320
 5114SOL     OW21178   7.816   9.395   7.030  0.5172 -0.0274 -0.4835
 5114SOL    HW121179   7.888   9.447   6.993 -0.7537  3.2483  1.2452
 5114SOL    HW221180   7.843   9.376   7.119  0.3014 -1.0965 -0.6321
 5115SOL     OW21181   5.684  10.779   7.704  0.3055  0.8684  0.0414
 5115SOL    HW121182   5.779  10.792   7.701  0.4241  0.5074  1.4963
 5115SOL    HW221183   5.670  10.694   7.662  0.7366  0.4748  0.6834
 5116SOL     OW21184   7.664   5.193   5.421 -0.1406 -0.3824  0.1762
 5116SOL    HW121185   7.756   5.178   5.441 -0.1471 -0.5815  0.0546
 5116SOL    HW221186   7.619   5.117   5.458 -0.3625  0.1634  1.0769
 5117SOL     OW21187  11.966  11.985   0.482  0.1122 -0.0086  0.1297
 5117SOL    HW121188  12.042  12.033   0.448 -0.8293  0.4175 -1.4766
 5117SOL    HW221189  11.897  12.051   0.488  0.4054  0.1316  3.7583
 5118SOL     OW21190   9.908  11.012   0.998  0.3102  0.2497 -0.2531
 5118SOL    HW121191   9.887  11.023   1.091  0.6039  0.0972 -0.1676
 5118SOL    HW221192   9.826  11.031   0.953  0.2129  0.5017  0.0271
 5119SOL     OW21193   5.818  12.206   0.899  0.3478 -0.2074 -0.6321
 5119SOL    HW121194   5.887  12.141   0.913 -0.3747 -0.9037 -0.2795
 5119SOL    HW221195   5.861  12.290   0.915  1.0704 -0.6449 -0.2363
 5120SOL     OW21196   2.998   9.205   3.801 -0.0299 -0.5830  0.3526
 5120SOL    HW121197   2.969   9.278   3.746 -1.4653 -2.0286 -0.9049
 5120SOL    HW221198   3.090   9.225   3.820 -0.7513  2.3113  1.3951
 5121SOL     OW21199   0.055   8.425   6.815  0.1773 -0.5161  0.3036
 5121SOL    HW121200  -0.015   8.403   6.754 -0.2335  0.9738  0.1943
 5121SOL    HW221201   0.119   8.473   6.762  0.1397  0.2018  0.8978
 5122SOL     OW21202  10.134   1.275   4.895 -0.5698  0.0716  0.1695
 5122SOL    HW121203  10.123   1.364   4.926  1.5876  0.7287 -0.7897
 5122SOL    HW221204  10.204   1.280   4.831  1.2674 -2.6493  1.7407
 5123SOL     OW21205   0.656  10.405   1.596  0.3998 -0.1744 -0.0519
 5123SOL    HW121206   0.677  10.488   1.640  0.7447 -0.3661  0.1440
 5123SOL    HW221207   0.707  10.340   1.642 -0.1882 -0.5647  0.0631
 5124SOL     OW21208   2.304  11.903   6.808 -0.1858 -0.2494  1.0432
 5124SOL    HW121209   2.373  11.945   6.857 -0.6260  2.4077 -0.4300
 5124SOL    HW221210   2.348  11.834   6.758  0.6472 -1.3184  3.1594
 5125SOL     OW21211   2.289   7.496  12.056  0.5413 -1.0461  0.8402
 5125SOL    HW121212   2.340   7.458  11.985  0.6009  0.6746 -0.0875
 5125SOL    HW221213   2.198   7.476  12.033  0.5543 -0.4179  0.2159
 5126SOL     OW21214   6.390   3.855   8.554 -0.4864 -0.5955  0.3413
 5126SOL    HW121215   6.456   3.906   8.600 -1.0643 -0.1414  0.6813
 5126SOL    HW221216   6.306   3.891   8.583 -0.8752 -0.2340 -1.1191
 5127SOL     OW21217   4.544  11.872   6.849 -0.0134  0.1770 -0.4456
 5127SOL    HW121218   4.542  11.870   6.945  0.0786 -2.6603 -0.4108
 5127SOL    HW221219   4.481  11.940   6.826  1.4067  2.3399  1.5847
 5128SOL     OW21220  11.487   3.355   3.788  0.2160  0.6190 -0.5068
 5128SOL    HW121221  11.393   3.339   3.786  0.5618 -2.0766  0.1104
 5128SOL    HW221222  11.520   3.309   3.710  0.9981  1.8613 -0.9289
 5129SOL     OW21223  12.307   7.024   7.179 -0.5354 -0.0110 -0.1193
 5129SOL    HW121224  12.399   7.044   7.161 -0.1461 -1.8013 -0.2602
 5129SOL    HW221225  12.309   6.967   7.256 -1.5805  0.4505  0.2648
 5130SOL     OW21226   4.960  12.140  12.320 -0.3495 -0.4828 -0.2482
 5130SOL    HW121227   4.937  12.145  12.413 -0.0570 -0.7453 -0.1576
 5130SOL    HW221228   4.988  12.049  12.307  0.5991 -0.1905 -0.3503
 5131SOL     OW21229  12.160   4.547   3.267 -0.2807 -0.1727  0.3922
 5131SOL    HW121230  12.254   4.553   3.252 -0.3580 -1.0634 -0.5071
 5131SOL    HW221231  12.145   4.603   3.343  0.9086  0.3023  0.3006
 5132SOL     OW21232   3.803  12.044   6.365  0.1621  0.6677  0.5476
 5132SOL    HW121233   3.763  11.994   6.437 -1.3303  0.7027 -0.2075
 5132SOL    HW221234   3.869  11.985   6.329 -1.4944 -0.7840 -0.2548
 5133SOL     OW21235  11.198   8.859   9.371  0.1588  0.4013 -0.0259
 5133SOL    HW121236  11.135   8.861   9.298  0.2837  0.7052 -0.1264
 5133SOL    HW221237  11.228   8.950   9.379 -0.4602  0.5349  0.9370
 5134SOL     OW21238   8.280   5.881   3.497 -0.0402  0.3424  0.3344
 5134SOL    HW121239   8.218   5.948   3.525 -1.7502 -0.6492 -0.8619
 5134SOL    HW221240   8.332   5.923   3.429  0.7565  1.2368  1.4567
 5135SOL     OW21241   5.146   3.812   6.815 -0.3463 -0.0457  0.3692
 5135SOL    HW121242   5.175   3.766   6.893  0.6675  0.6092  0.3990
 5135SOL    HW221243   5.107   3.893   6.848 -1.4343 -0.5064  0.2742
 5136SOL     OW21244   1.441   4.789   5.390 -0.3659  0.0687  0.5868
 5136SOL    HW121245   1.399   4.825   5.468 -0.6951  3.9217 -1.1461
 5136SOL    HW221246   1.369   4.768   5.331 -0.1105  3.1844 -0.9774
 5137SOL     OW21247  10.474   7.049   8.740 -0.1313 -0.0029 -0.1738
 5137SOL    HW121248  10.513   6.975   8.786 -0.7075  0.3988  0.9913
 5137SOL    HW221249  10.382   7.049   8.767  0.0749  1.7646  0.7059
 5138SOL     OW21250   5.456   4.568   7.682 -0.4595 -0.3849 -0.3733
 5138SOL    HW121251   5.452   4.485   7.634  0.2316 -0.1325 -0.8816
 5138SOL    HW221252   5.479   4.544   7.771  1.2749 -0.6370 -0.8601
 5139SOL     OW21253   4.829   4.769  10.572  0.2369 -0.4055  0.4537
 5139SOL    HW121254   4.794   4.825  10.503 -0.0561 -0.8386  0.2429
 5139SOL    HW221255   4.853   4.829  10.642 -0.6032 -0.0636  0.4594
 5140SOL     OW21256  10.352   7.854   5.105  0.2822 -0.0199  0.2782
 5140SOL    HW121257  10.351   7.930   5.164  1.1604  0.6379 -0.5103
 5140SOL    HW221258  10.398   7.786   5.154 -1.2393 -0.3375  1.3119
 5141SOL     OW21259  11.022   0.973   6.288 -0.6353 -0.0939  0.0664
 5141SOL    HW121260  10.929   0.967   6.267 -0.4565 -0.8603 -0.5357
 5141SOL    HW221261  11.026   1.040   6.357 -1.3616  1.7453 -1.5910
 5142SOL     OW21262   2.241   6.538   9.129  0.1025 -0.5364 -0.0836
 5142SOL    HW121263   2.159   6.572   9.095  0.0437 -1.3852 -0.8188
 5142SOL    HW221264   2.309   6.588   9.084  0.0093  0.1756  0.5355
 5143SOL     OW21265   3.192   3.676   4.019  0.1198 -0.5833 -0.1922
 5143SOL    HW121266   3.218   3.768   4.012  1.0024 -0.8543 -0.6770
 5143SOL    HW221267   3.163   3.666   4.110 -0.9139  0.3925 -0.3954
 5144SOL     OW21268   2.679   0.821  11.293  0.7295 -0.2942  0.2309
 5144SOL    HW121269   2.609   0.801  11.231 -1.7278  1.5113  2.2117
 5144SOL    HW221270   2.693   0.740  11.341 -0.3627 -0.5606  0.1160
 5145SOL     OW21271   0.795   5.603  10.178  0.5793  0.1070 -0.6225
 5145SOL    HW121272   0.846   5.536  10.133 -0.8979 -1.8088  0.4182
 5145SOL    HW221273   0.790   5.573  10.269 -0.6634  1.2961 -0.2563
 5146SOL     OW21274   5.169   7.844   2.706  0.6844  0.3278 -0.1056
 5146SOL    HW121275   5.168   7.855   2.801 -0.8142  1.9792 -0.2778
 5146SOL    HW221276   5.077   7.844   2.681  1.0273 -0.8353 -1.5156
 5147SOL     OW21277   3.763   7.526   1.254 -0.1714 -0.3903  0.0496
 5147SOL    HW121278   3.683   7.501   1.301 -0.0907  0.1893  0.5129
 5147SOL    HW221279   3.834   7.503   1.313 -0.0758  0.4808  0.2878
 5148SOL     OW21280   0.299   5.806  11.717 -0.1412  0.1445  0.3344
 5148SOL    HW121281   0.312   5.875  11.652 -0.4054 -0.0591  0.0636
 5148SOL    HW221282   0.316   5.725  11.670  1.0286  0.0590  0.8794
 5149SOL     OW21283   6.533   8.993   2.109 -0.1992  0.1511  0.1157
 5149SOL    HW121284   6.494   9.046   2.178  1.9036  2.1833 -0.1363
 5149SOL    HW221285   6.611   8.954   2.150 -0.8991 -1.6292 -0.1347
 5150SOL     OW21286   3.996   3.742   5.534 -0.3815  0.7257 -0.0386
 5150SOL    HW121287   4.079   3.790   5.524  0.2594 -0.3964 -0.2999
 5150SOL    HW221288   4.001   3.672   5.469 -2.2167  1.5165 -1.0961
 5151SOL     OW21289  11.712   4.996   5.591 -0.4334 -0.1369  0.2623
 5151SOL    HW121290  11.745   5.064   5.649 -1.0480 -0.6402  1.2329
 5151SOL    HW221291  11.774   4.993   5.518 -0.1193  1.0908  0.4629
 5152SOL     OW21292   5.654  10.372   1.161  0.4963 -0.3466  0.8340
 5152SOL    HW121293   5.640  10.318   1.238 -0.4164  1.0224  1.6873
 5152SOL    HW221294   5.726  10.331   1.114  0.1062 -2.0202  1.6564
 5153SOL     OW21295  10.061  12.093   2.039  0.0558  0.2429 -0.6226
 5153SOL    HW121296  10.103  12.133   2.115 -0.2775  0.7721 -0.7132
 5153SOL    HW221297   9.980  12.144   2.027 -0.4172 -0.5101 -0.6881
 5154SOL     OW21298   6.555   8.139   8.980 -0.2300 -0.0487  0.8120
 5154SOL    HW121299   6.620   8.180   9.038  0.4561 -0.0255  0.0399
 5154SOL    HW221300   6.471   8.175   9.009  0.0499 -0.3419  2.0603
 5155SOL     OW21301   2.771   0.768   3.006  0.2822 -0.4795 -0.4249
 5155SOL    HW121302   2.691   0.822   3.007 -1.2093 -2.5771 -0.6803
 5155SOL    HW221303   2.835   0.820   3.055 -0.7091  2.0037 -1.5807
 5156SOL     OW21304   3.977  11.602   6.178 -0.1078  0.2543 -0.4722
 5156SOL    HW121305   3.900  11.653   6.153 -0.9131 -0.1244  1.0543
 5156SOL    HW221306   3.946  11.512   6.181  0.0330  0.2244  1.2963
 5157SOL     OW21307   7.914   7.791   6.311  0.0986 -0.1198 -0.0409
 5157SOL    HW121308   7.960   7.844   6.375 -0.4305  0.9802 -0.5444
 5157SOL    HW221309   7.822   7.806   6.329 -0.0560  0.1738 -1.0227
 5158SOL     OW21310   7.659   4.230   1.376  0.4709  0.0140 -0.5359
 5158SOL    HW121311   7.749   4.212   1.400  0.0134 -2.1216 -0.2590
 5158SOL    HW221312   7.607   4.181   1.440 -0.9994  2.9208  0.7220
 5159SOL     OW21313   6.582   5.195   2.015 -0.0886 -0.8963 -0.0377
 5159SOL    HW121314   6.575   5.240   2.099  0.3093  1.5753 -1.2139
 5159SOL    HW221315   6.669   5.217   1.982 -0.5058 -1.1556 -1.4116
 5160SOL     OW21316  12.296   3.679   8.341  0.2264 -0.5086  0.6689
 5160SOL    HW121317  12.353   3.742   8.297 -1.4992  0.3040 -0.4899
 5160SOL    HW221318  12.212   3.724   8.350 -0.2748 -1.6763  2.3054
 5161SOL     OW21319   7.172  10.352  10.212 -0.1961  0.0575 -0.4953
 5161SOL    HW121320   7.109  10.308  10.154  0.3087 -0.0925 -0.9400
 5161SOL    HW221321   7.127  10.432  10.239 -0.7436 -0.2497 -0.4647
 5162SOL     OW21322   4.407   8.214   4.189  0.4404 -0.2357 -0.2059
 5162SOL    HW121323   4.408   8.308   4.171 -0.4031 -0.6992 -3.1209
 5162SOL    HW221324   4.328   8.201   4.241  0.4509  0.6260  0.0514
 5163SOL     OW21325   2.753   3.630   6.043 -0.0467 -0.1523  0.7000
 5163SOL    HW121326   2.771   3.692   5.973  1.7721  1.3414  2.3555
 5163SOL    HW221327   2.818   3.560   6.032  0.6682  0.4122  1.2213
 5164SOL     OW21328   9.791  11.318   1.117  0.2570  0.4089  0.1827
 5164SOL    HW121329   9.874  11.346   1.156  2.0497 -0.5389 -2.5858
 5164SOL    HW221330   9.770  11.236   1.161  1.9359 -0.3723 -0.3710
 5165SOL     OW21331  12.317   2.144   0.226 -0.7406  0.6001  0.2302
 5165SOL    HW121332  12.307   2.179   0.137 -0.4369  3.8136  1.3445
 5165SOL    HW221333  12.238   2.173   0.272  0.6954  2.1317  1.8799
 5166SOL     OW21334   4.250   4.813  12.117  0.7649 -0.3689 -0.6114
 5166SOL    HW121335   4.256   4.869  12.040 -0.8277 -0.2862 -0.6992
 5166SOL    HW221336   4.160   4.823  12.148  0.9497 -1.5347  0.3993
 5167SOL     OW21337   9.117  11.788   4.208 -0.1693  0.3311 -0.0060
 5167SOL    HW121338   9.160  11.775   4.293 -1.8047 -1.6005  0.6120
 5167SOL    HW221339   9.025  11.803   4.230 -1.0669 -2.3425 -1.4094
 5168SOL     OW21340   8.162   6.152   3.598  0.6432  0.8464  0.6673
 5168SOL    HW121341   8.080   6.169   3.551  1.0358  1.5879  0.2376
 5168SOL    HW221342   8.138   6.159   3.690  0.6467  3.2456  0.5320
 5169SOL     OW21343   1.721   0.970   6.851 -0.2230 -0.2418  0.5189
 5169SOL    HW121344   1.714   0.989   6.945 -1.6549  1.9711  0.0530
 5169SOL    HW221345   1.716   1.056   6.809 -0.4338 -1.2360 -1.6193
 5170SOL     OW21346   4.897   9.699   0.445 -0.2212 -0.3498 -0.2343
 5170SOL    HW121347   4.869   9.787   0.471 -0.0560 -0.3694  0.0161
 5170SOL    HW221348   4.984   9.689   0.483  0.5401  0.0641 -1.7889
 5171SOL     OW21349   2.628   2.992   2.930 -0.2394 -0.1036 -0.1059
 5171SOL    HW121350   2.662   3.074   2.895  0.4321 -1.1822 -2.1254
 5171SOL    HW221351   2.672   2.982   3.015 -1.1951  2.1276  0.7267
 5172SOL     OW21352  12.074   8.946   5.993 -0.0942 -0.2508  0.1248
 5172SOL    HW121353  12.102   9.032   6.025 -1.9268  0.7117 -0.6758
 5172SOL    HW221354  12.030   8.906   6.068  1.4146 -0.8356  0.7231
 5173SOL     OW21355   6.349  12.104   9.362  0.6460  0.1234  0.1476
 5173SOL    HW121356   6.353  12.099   9.267 -2.4809 -0.8707 -0.0373
 5173SOL    HW221357   6.373  12.017   9.392  0.9759  0.2439  0.2370
 5174SOL     OW21358   9.015  12.215   5.628 -0.4475  1.0968 -0.0832
 5174SOL    HW121359   9.044  12.153   5.695 -3.6387  0.0967  0.5741
 5174SOL    HW221360   9.001  12.161   5.550  0.6922  1.7819 -0.7851
 5175SOL     OW21361   8.591   4.223   3.591 -0.4121  0.1648  0.3140
 5175SOL    HW121362   8.521   4.188   3.537 -1.9422  0.4777  1.9754
 5175SOL    HW221363   8.656   4.153   3.595 -0.4546 -0.0177 -1.5135
 5176SOL     OW21364   9.441  10.166   8.422 -0.0958  0.0537  0.0414
 5176SOL    HW121365   9.472  10.092   8.370  0.9122 -0.4380  1.2708
 5176SOL    HW221366   9.347  10.152   8.431 -0.1559 -0.2751 -0.9460
 5177SOL     OW21367   2.008  11.960  11.080  0.0357 -0.2955 -0.0510
 5177SOL    HW121368   2.091  11.932  11.117  1.0915  1.1583 -1.1838
 5177SOL    HW221369   1.967  12.013  11.148 -0.5256 -1.9204  0.9238
 5178SOL     OW21370   0.476  10.428   1.351  0.0347  0.0410  0.3303
 5178SOL    HW121371   0.391  10.410   1.392  0.4219 -1.0444  0.6632
 5178SOL    HW221372   0.540  10.395   1.413  0.6660 -0.4670 -0.5758
 5179SOL     OW21373   4.344   3.039   4.364  0.2199 -0.0998  0.1950
 5179SOL    HW121374   4.373   3.005   4.448  0.6923 -2.1636 -0.7549
 5179SOL    HW221375   4.411   3.103   4.339  0.1424  0.4305  1.2868
 5180SOL     OW21376   3.505   3.971   9.024  0.2144 -0.2696  0.1927
 5180SOL    HW121377   3.510   3.903   8.957 -0.5222  1.0889 -1.3069
 5180SOL    HW221378   3.413   3.999   9.023  0.3500  0.2788  1.2664
 5181SOL     OW21379   3.763  12.179  11.152 -0.5790  0.0119  0.0051
 5181SOL    HW121380   3.679  12.190  11.108  0.3413  1.0865 -1.5780
 5181SOL    HW221381   3.741  12.173  11.245 -2.4481 -0.5688 -0.4349
 5182SOL     OW21382   3.167   8.504   8.447 -0.3540 -0.2090  0.4875
 5182SOL    HW121383   3.161   8.470   8.536 -2.1075 -1.1070  0.0668
 5182SOL    HW221384   3.090   8.560   8.437 -0.3339 -0.3425 -0.5340
 5183SOL     OW21385   8.533   0.304   5.878  0.3310 -0.6560  0.4081
 5183SOL    HW121386   8.598   0.362   5.917  0.1825  0.0557 -0.3728
 5183SOL    HW221387   8.568   0.284   5.791 -0.6687  0.0485 -0.1688
 5184SOL     OW21388   2.637   1.784   9.905  0.5720  0.1128 -0.2871
 5184SOL    HW121389   2.704   1.715   9.896  0.3276 -0.0682 -0.7497
 5184SOL    HW221390   2.572   1.747   9.964  1.5652  0.8271  1.3119
 5185SOL     OW21391   7.417  10.872   3.633 -0.2177  0.3939  0.6030
 5185SOL    HW121392   7.469  10.806   3.679  1.6416  0.8267 -0.7719
 5185SOL    HW221393   7.434  10.856   3.540 -1.9255  1.0970  0.1299
 5186SOL     OW21394  10.772  10.980   2.253 -0.0811  0.7406  0.1315
 5186SOL    HW121395  10.773  10.938   2.340 -1.7189  0.5638  0.0913
 5186SOL    HW221396  10.857  11.022   2.247  0.0349  0.8624  1.8831
 5187SOL     OW21397  11.768   9.440   7.130 -0.3572  0.1376  0.6411
 5187SOL    HW121398  11.785   9.352   7.097 -0.6749  0.5339 -0.6407
 5187SOL    HW221399  11.674   9.452   7.118 -0.1881  0.9452  0.0252
 5188SOL     OW21400   0.271   3.736   9.986  0.1779 -0.3392 -0.1503
 5188SOL    HW121401   0.365   3.720   9.999  0.1486  0.2236  0.8406
 5188SOL    HW221402   0.238   3.656   9.945  0.5274 -1.7495  2.1855
 5189SOL     OW21403   2.532   6.253  10.375 -0.6675 -0.8741 -0.2310
 5189SOL    HW121404   2.444   6.217  10.386 -0.3237 -1.2438  1.5755
 5189SOL    HW221405   2.522   6.317  10.305 -1.8955 -2.4235 -1.5446
 5190SOL     OW21406  11.725   5.528   6.906  0.0251  0.0267  0.2773
 5190SOL    HW121407  11.685   5.554   6.989 -0.3155  1.9060 -0.4358
 5190SOL    HW221408  11.809   5.488   6.932 -0.3222  0.0677  1.5484
 5191SOL     OW21409   8.249   9.558   0.046 -0.1238 -0.5122 -0.2291
 5191SOL    HW121410   8.314   9.579  -0.021  0.4888 -1.8727 -0.0861
 5191SOL    HW221411   8.172   9.610   0.022  0.6122  0.2341 -1.0616
 5192SOL     OW21412   9.596   8.483   1.043  0.3488 -0.3159 -0.4442
 5192SOL    HW121413   9.543   8.555   1.009 -1.1384  0.4564  3.0848
 5192SOL    HW221414   9.683   8.521   1.057  0.0540  0.2880 -0.2588
 5193SOL     OW21415   6.950   8.022   2.405 -0.0045 -0.2573  0.0098
 5193SOL    HW121416   6.898   7.950   2.368  0.1131  0.4769 -1.6190
 5193SOL    HW221417   7.038   7.986   2.412 -0.5364 -1.3575  2.3652
 5194SOL     OW21418   6.068   9.509  11.598 -0.1266  0.0963 -0.0396
 5194SOL    HW121419   6.125   9.537  11.669 -0.0513  0.9056 -0.4038
 5194SOL    HW221420   6.088   9.416  11.585  0.6768  0.2289  0.2277
 5195SOL     OW21421   9.513   9.510   5.019  0.5315 -0.0496 -0.0063
 5195SOL    HW121422   9.518   9.574   5.089 -0.9660  1.7275 -1.4276
 5195SOL    HW221423   9.424   9.474   5.025  0.2102  0.4738 -1.2203
 5196SOL     OW21424   6.456   5.981   8.432 -0.1153  0.0210 -0.1021
 5196SOL    HW121425   6.526   6.023   8.381 -0.3571  0.1241 -0.3489
 5196SOL    HW221426   6.430   6.048   8.496 -0.4757  0.2415 -0.4723
 5197SOL     OW21427   4.334   1.737   7.164  0.2388  0.0610 -0.7131
 5197SOL    HW121428   4.384   1.660   7.192 -0.9794  0.1652  2.0002
 5197SOL    HW221429   4.265   1.701   7.109  0.9428 -0.5118 -1.2534
 5198SOL     OW21430   0.046   6.376   9.444  0.2103  0.0220 -0.0506
 5198SOL    HW121431   0.064   6.299   9.391 -0.2516 -1.0795  1.3199
 5198SOL    HW221432   0.003   6.437   9.384 -1.3312 -1.6133 -0.7004
 5199SOL     OW21433   5.626   6.837   5.819  0.2810 -0.2458  0.4182
 5199SOL    HW121434   5.588   6.834   5.907  1.9319 -0.9776  1.1435
 5199SOL    HW221435   5.628   6.930   5.797 -0.8435 -0.1100  0.8214
 5200SOL     OW21436   2.750   5.569   2.611  0.7927  0.4702  0.1109
 5200SOL    HW121437   2.654   5.567   2.616  0.7044 -0.6977 -1.5511
 5200SOL    HW221438   2.773   5.496   2.554  2.7072  0.5956  0.6614
 5201SOL     OW21439   3.672   0.858   3.134 -0.8040 -0.0550  0.1900
 5201SOL    HW121440   3.767   0.847   3.129 -0.6863  0.3503  1.3332
 5201SOL    HW221441   3.641   0.778   3.176 -0.7512  0.6350  1.5801
 5202SOL     OW21442  10.961   4.292   1.821  0.0106 -0.1384 -0.0848
 5202SOL    HW121443  10.868   4.274   1.832  0.1719 -0.6638  0.5176
 5202SOL    HW221444  10.978   4.276   1.729  0.1208 -3.1312  0.3614
 5203SOL     OW21445   9.428   0.075   6.871  0.3064 -0.2719  0.0004
 5203SOL    HW121446   9.446   0.168   6.879  1.2241 -0.2904 -1.5392
 5203SOL    HW221447   9.393   0.064   6.783 -0.1824 -1.3367  0.3016
 5204SOL     OW21448   3.845   7.807   8.797  0.0914 -0.3103  0.1048
 5204SOL    HW121449   3.924   7.809   8.744 -0.1768 -0.2422 -0.3034
 5204SOL    HW221450   3.870   7.847   8.880  0.0333  1.4670 -0.6735
 5205SOL     OW21451   8.283   2.018  10.861 -0.5971  0.2605  0.3163
 5205SOL    HW121452   8.216   2.067  10.910 -1.1657  2.2979 -2.2187
 5205SOL    HW221453   8.240   1.937  10.836 -1.2216  0.3969  0.9319
 5206SOL     OW21454   5.841   9.084  10.519 -0.4134 -0.7517  0.3611
 5206SOL    HW121455   5.873   9.008  10.569 -2.5864 -1.5914  0.5940
 5206SOL    HW221456   5.761   9.110  10.565  0.1495  1.5773  0.1397
 5207SOL     OW21457   8.605   4.175  11.466 -0.2799  0.1098 -0.4645
 5207SOL    HW121458   8.586   4.157  11.374  0.8023  0.6226 -0.8056
 5207SOL    HW221459   8.545   4.246  11.490 -2.6333 -1.9166  0.1062
 5208SOL     OW21460   8.314  10.695   4.710 -0.3194 -0.4734  0.2796
 5208SOL    HW121461   8.309  10.627   4.643  1.7257 -1.1551  0.7327
 5208SOL    HW221462   8.244  10.674   4.771 -2.2973  0.2274 -1.6308
 5209SOL     OW21463   7.123   6.742   3.223 -0.4875 -0.0482 -0.0313
 5209SOL    HW121464   7.161   6.655   3.231  0.4701  0.4697  1.5648
 5209SOL    HW221465   7.170   6.782   3.149 -0.5288 -0.6801 -0.4022
 5210SOL     OW21466  11.974   9.631   4.490 -0.9947 -0.5116 -0.0215
 5210SOL    HW121467  12.062   9.639   4.454 -1.2705  1.7534 -0.3523
 5210SOL    HW221468  11.973   9.691   4.565 -2.4924  0.1995 -0.5703
 5211SOL     OW21469   5.539   7.319  11.131  0.3834 -0.7253  0.4055
 5211SOL    HW121470   5.579   7.286  11.211  0.2483  0.0822  0.8220
 5211SOL    HW221471   5.600   7.296  11.062  0.7061 -1.0598  0.7971
 5212SOL     OW21472   4.684   8.209   3.030  0.3434 -0.0043 -0.3260
 5212SOL    HW121473   4.640   8.164   3.102 -1.1413  0.9311 -0.5966
 5212SOL    HW221474   4.777   8.195   3.046  0.0005 -0.9317  1.0265
 5213SOL     OW21475   2.151   5.155  10.625  0.9254 -0.1428 -0.3414
 5213SOL    HW121476   2.072   5.132  10.577  0.0314 -0.9548  1.4209
 5213SOL    HW221477   2.164   5.248  10.607 -1.8497  0.6558  1.2011
 5214SOL     OW21478   2.808   4.756   5.187 -0.7810  0.6780  0.3806
 5214SOL    HW121479   2.741   4.687   5.192 -0.9647  0.5967 -1.9128
 5214SOL    HW221480   2.891   4.708   5.185 -0.9099  0.4548 -1.2346
 5215SOL     OW21481   4.769   3.938  10.098  0.4580 -0.1010 -0.3479
 5215SOL    HW121482   4.817   3.866  10.138  1.7458  0.2406 -1.2276
 5215SOL    HW221483   4.812   4.018  10.131 -0.1313  0.2362 -0.3791
 5216SOL     OW21484   3.895   2.473   7.749  0.1467  0.2077 -0.1558
 5216SOL    HW121485   3.948   2.438   7.821  2.5664 -0.2464 -2.0178
 5216SOL    HW221486   3.822   2.411   7.741  1.5378 -1.5361 -0.0445
 5217SOL     OW21487   5.025   3.021   5.113 -0.2999 -0.1099  0.2045
 5217SOL    HW121488   4.989   2.951   5.058 -0.4157  0.8295 -0.9367
 5217SOL    HW221489   4.950   3.052   5.164  0.0259 -1.7213  1.7651
 5218SOL     OW21490   9.307  10.229   3.256 -0.1340  0.2807  0.2670
 5218SOL    HW121491   9.234  10.214   3.196 -0.2197  1.9721 -0.0762
 5218SOL    HW221492   9.274  10.295   3.317  0.8373  0.4587  0.6072
 5219SOL     OW21493   0.754   8.979  11.020 -0.2715  0.2196  0.0816
 5219SOL    HW121494   0.730   9.063  10.981 -0.5619  0.1601  0.1309
 5219SOL    HW221495   0.706   8.913  10.969 -0.3087  0.1104  0.2542
 5220SOL     OW21496   8.085   2.536   6.978 -0.1248 -0.1207 -0.3603
 5220SOL    HW121497   8.105   2.529   7.071  1.9186 -1.7170 -0.8464
 5220SOL    HW221498   8.095   2.629   6.958  0.5826  0.0588  0.7676
 5221SOL     OW21499   7.606  11.018  12.068 -0.0230 -0.5476 -0.3184
 5221SOL    HW121500   7.673  10.972  12.017 -0.2263 -0.7230 -0.4311
 5221SOL    HW221501   7.600  11.104  12.028  0.3143 -0.4443 -0.1484
 5222SOL     OW21502   6.224   2.550   9.509 -0.0578  0.5209 -0.1445
 5222SOL    HW121503   6.295   2.613   9.502 -1.1126  1.9765  1.4479
 5222SOL    HW221504   6.172   2.580   9.584 -0.7346 -2.1293  0.5546
 5223SOL     OW21505   7.080   4.695   2.240 -0.5498  0.4825 -0.7152
 5223SOL    HW121506   7.090   4.661   2.329 -2.1435 -0.2614 -0.7784
 5223SOL    HW221507   7.056   4.618   2.188  0.0357  0.9625 -1.7317
 5224SOL     OW21508  11.026  11.874   8.477  0.1788  0.1319 -0.9499
 5224SOL    HW121509  10.983  11.834   8.402  0.2996  1.1412 -1.5716
 5224SOL    HW221510  11.109  11.907   8.442  1.1116 -1.0481  0.0448
 5225SOL     OW21511   0.225   5.452   9.473  0.1898 -0.3159 -0.0287
 5225SOL    HW121512   0.157   5.385   9.464 -0.1435  0.1098 -0.7906
 5225SOL    HW221513   0.306   5.407   9.448  0.2959 -0.9833  1.4341
 5226SOL     OW21514   9.348   0.882   9.335  0.2480  0.3150 -0.3453
 5226SOL    HW121515   9.294   0.853   9.261  0.4185 -0.7006 -0.0919
 5226SOL    HW221516   9.387   0.801   9.369  0.2629  0.7834  0.7867
 5227SOL     OW21517   2.996   2.004   0.577 -0.6847  0.1211 -0.0011
 5227SOL    HW121518   3.054   2.075   0.547  0.7705  0.1756  2.5992
 5227SOL    HW221519   2.975   2.028   0.668 -3.5890 -0.7227 -0.3611
 5228SOL     OW21520   6.258  10.989   4.615 -0.4901  0.3847 -0.7643
 5228SOL    HW121521   6.171  10.960   4.642 -0.3979  1.5250  0.9293
 5228SOL    HW221522   6.319  10.929   4.658 -0.3629  1.8704  1.2857
 5229SOL     OW21523   5.725   2.953   5.251 -0.0308 -0.0181 -0.0037
 5229SOL    HW121524   5.716   2.970   5.345 -1.1025  1.4135 -0.3374
 5229SOL    HW221525   5.742   3.039   5.213 -0.5223 -0.4413 -1.2234
 5230SOL     OW21526   9.419   4.001   0.747  0.0252 -0.3673 -0.0583
 5230SOL    HW121527   9.382   3.928   0.698 -0.6342  0.6182 -1.0658
 5230SOL    HW221528   9.345   4.040   0.793  0.3747 -0.3090  0.4733
 5231SOL     OW21529   8.078   8.132   0.747 -0.2905 -0.2597 -0.3505
 5231SOL    HW121530   8.021   8.055   0.740 -0.3253 -0.2468 -0.2123
 5231SOL    HW221531   8.141   8.121   0.677 -2.5717  1.4856 -2.8949
 5232SOL     OW21532  10.520   6.422  11.943 -0.4647  0.4942  0.5271
 5232SOL    HW121533  10.497   6.337  11.904 -0.7452  0.8229 -0.0285
 5232SOL    HW221534  10.611   6.435  11.919 -0.1604 -0.0266  1.3185
 5233SOL     OW21535   2.578   5.166   0.559  0.0076 -0.6741 -0.4234
 5233SOL    HW121536   2.494   5.212   0.559 -0.5211 -1.6020 -0.0284
 5233SOL    HW221537   2.566   5.095   0.624  1.0233 -0.9365 -0.5076
 5234SOL     OW21538   8.595   5.725   7.187 -0.1295 -0.0415  0.3244
 5234SOL    HW121539   8.679   5.765   7.211 -0.1269 -0.2990  0.7435
 5234SOL    HW221540   8.615   5.668   7.113  0.1004 -0.2434  0.5419
 5235SOL     OW21541   2.038  11.675  10.805  0.4404 -0.6217  0.1741
 5235SOL    HW121542   2.018  11.684  10.712 -1.1981 -2.0029  0.3437
 5235SOL    HW221543   2.058  11.763  10.835 -1.7429  0.3113 -0.9141
 5236SOL     OW21544   3.534   2.990   6.119 -0.2681  0.1455  0.0465
 5236SOL    HW121545   3.518   3.064   6.060 -2.1909 -0.6949 -0.5548
 5236SOL    HW221546   3.457   2.934   6.109  0.5286 -1.2873  1.4876
 5237SOL     OW21547   4.086  11.094  10.488  0.4258 -0.4128 -0.0427
 5237SOL    HW121548   4.145  11.169  10.488  0.6288 -0.5654  0.5315
 5237SOL    HW221549   4.090  11.060  10.399 -1.0381  1.3188 -0.8248
 5238SOL     OW21550   3.753  12.283   4.173  0.8822 -0.5653 -0.0506
 5238SOL    HW121551   3.714  12.353   4.121  0.9127 -0.8691 -0.4846
 5238SOL    HW221552   3.822  12.246   4.117  0.1261 -1.6787 -0.2729
 5239SOL     OW21553   7.042   9.289   9.478  0.2138 -0.1814 -0.1528
 5239SOL    HW121554   7.038   9.334   9.562  0.0646  0.1018 -0.3091
 5239SOL    HW221555   6.951   9.269   9.457  0.2335 -0.0912 -0.3306
 5240SOL     OW21556   4.439   4.772   9.338  0.1399  0.3548  0.3561
 5240SOL    HW121557   4.354   4.729   9.340  1.1256 -1.9552 -1.8948
 5240SOL    HW221558   4.441   4.818   9.255  1.3322 -0.2889 -0.0032
 5241SOL     OW21559   2.477  11.619   1.951  0.2547 -0.3657 -0.1766
 5241SOL    HW121560   2.556  11.576   1.985 -0.5904 -0.7115  1.4640
 5241SOL    HW221561   2.440  11.664   2.027 -1.4397 -0.6837 -0.7699
 5242SOL     OW21562   5.269   1.694  10.616 -0.0166 -0.5515  0.2230
 5242SOL    HW121563   5.329   1.620  10.618 -0.6286 -1.0683  0.1220
 5242SOL    HW221564   5.275   1.734  10.703  1.2474  0.0598 -0.1240
 5243SOL     OW21565  11.136   6.732   6.478 -0.0786  0.4585 -0.3052
 5243SOL    HW121566  11.042   6.733   6.461 -0.2039 -0.7200  0.2038
 5243SOL    HW221567  11.176   6.727   6.391 -0.4323  2.0346 -0.5742
 5244SOL     OW21568   3.829   9.849   9.083  0.2593  0.1727  0.4154
 5244SOL    HW121569   3.887   9.886   9.016  2.1179 -0.2292  1.7299
 5244SOL    HW221570   3.888   9.807   9.146 -1.5332 -1.3818  1.1758
 5245SOL     OW21571   8.697  11.119   0.313 -0.1390  0.6523 -0.5240
 5245SOL    HW121572   8.730  11.034   0.342  0.1544  1.0441  0.3158
 5245SOL    HW221573   8.673  11.165   0.394 -0.8554  1.1467 -1.0004
 5246SOL     OW21574   5.644   2.061   5.171  0.0016  0.7099 -0.2102
 5246SOL    HW121575   5.587   2.130   5.138 -0.3051  1.2123  1.3207
 5246SOL    HW221576   5.733   2.092   5.151 -0.1731  0.9746 -0.5910
 5247SOL     OW21577  10.068   4.902   2.501  0.3443 -0.3204 -0.0075
 5247SOL    HW121578  10.061   4.851   2.420  2.0621 -0.9413  0.1936
 5247SOL    HW221579   9.981   4.896   2.541 -0.5040 -0.0562 -1.7609
 5248SOL     OW21580   6.058   2.058  11.301  0.1352  0.0766 -0.1704
 5248SOL    HW121581   6.052   2.023  11.212 -1.2196 -0.3613  0.0721
 5248SOL    HW221582   5.977   2.030  11.343  0.2958  1.1430  0.8943
 5249SOL     OW21583   6.693  11.301   4.095 -0.0642 -0.7605  0.5153
 5249SOL    HW121584   6.658  11.329   4.011  1.7493 -0.7535 -0.2964
 5249SOL    HW221585   6.625  11.324   4.159 -0.7499  0.8688 -0.7275
 5250SOL     OW21586   3.207   0.136  11.705  0.2318 -0.1359 -0.6514
 5250SOL    HW121587   3.183   0.219  11.745 -0.7047 -0.9019  0.4376
 5250SOL    HW221588   3.141   0.123  11.636 -1.2340 -1.1568  0.8601
 5251SOL     OW21589   0.242  10.210   9.574 -0.0788  0.1595  0.1561
 5251SOL    HW121590   0.229  10.184   9.665 -0.4852  3.8143  1.3091
 5251SOL    HW221591   0.334  10.192   9.557  0.0320 -0.4782  1.3267
 5252SOL     OW21592   9.338   6.669  11.109  0.5535 -0.3585 -0.3702
 5252SOL    HW121593   9.419   6.716  11.089  0.7262 -0.1729  0.6946
 5252SOL    HW221594   9.351   6.636  11.198 -0.6163 -0.1643 -0.1148
 5253SOL     OW21595   0.821   4.232   5.712  0.0903 -0.4481  0.2932
 5253SOL    HW121596   0.858   4.266   5.794 -0.2032 -2.2977  1.2514
 5253SOL    HW221597   0.896   4.228   5.652  1.6528 -3.9991  2.1497
 5254SOL     OW21598  10.908   7.946   8.238 -0.2873 -0.1387 -0.0364
 5254SOL    HW121599  10.826   7.986   8.212  0.2374  0.9653 -0.0569
 5254SOL    HW221600  10.968   8.020   8.251 -0.0730 -0.6654  2.7705
 5255SOL     OW21601   1.743   1.079   7.173 -0.0849  0.1243  0.4195
 5255SOL    HW121602   1.804   1.113   7.108 -1.1495  0.3665 -0.4635
 5255SOL    HW221603   1.658   1.080   7.130 -0.3592 -2.6517  0.7162
 5256SOL     OW21604   6.373   8.231   4.333  0.4736 -0.2754 -0.0877
 5256SOL    HW121605   6.407   8.294   4.396  0.4152 -0.0307 -0.2983
 5256SOL    HW221606   6.371   8.147   4.380 -0.7171  0.1244  0.6235
 5257SOL     OW21607   8.784  11.237   0.669  0.0464 -0.2313  0.1462
 5257SOL    HW121608   8.726  11.206   0.739  1.3354  1.7585  2.2317
 5257SOL    HW221609   8.787  11.332   0.681  2.7405 -0.1459 -0.6615
 5258SOL     OW21610  10.596   1.495   5.282 -0.0168  0.1081  0.0444
 5258SOL    HW121611  10.670   1.506   5.222 -0.9510 -0.4566 -1.2497
 5258SOL    HW221612  10.576   1.583   5.313  1.0104  0.2967  0.1894
 5259SOL     OW21613   7.711   4.862   4.598  0.2533  0.3607  0.6206
 5259SOL    HW121614   7.718   4.792   4.534 -0.4311  0.1445  0.7731
 5259SOL    HW221615   7.802   4.881   4.622  0.5157  0.4498 -0.4020
 5260SOL     OW21616   0.114   4.845   2.356 -0.3019 -0.1668 -0.8471
 5260SOL    HW121617   0.162   4.906   2.301 -0.0888  0.4518  0.0133
 5260SOL    HW221618   0.093   4.772   2.298  0.6012  0.1139 -1.5420
 5261SOL     OW21619   2.572   7.986   3.163 -0.3350  0.4729 -0.3210
 5261SOL    HW121620   2.600   8.076   3.174  0.7474 -0.0425  1.6118
 5261SOL    HW221621   2.638   7.947   3.105 -0.7470  0.8581 -1.0714
 5262SOL     OW21622   1.389   0.170   6.853 -0.1141  0.7875 -0.0370
 5262SOL    HW121623   1.315   0.140   6.801  0.1158 -0.0071  0.0846
 5262SOL    HW221624   1.363   0.257   6.883 -0.7043  0.8029 -0.5656
 5263SOL     OW21625   6.961   6.256   2.080  0.0621  0.3752 -0.1788
 5263SOL    HW121626   6.884   6.238   2.135  0.4354  1.3493  0.6805
 5263SOL    HW221627   6.992   6.170   2.054 -0.7823 -0.0622  0.2176
 5264SOL     OW21628  11.100   6.316   2.222 -0.3946 -0.8101  0.6771
 5264SOL    HW121629  11.102   6.242   2.283  0.2847 -0.6696  0.8339
 5264SOL    HW221630  11.167   6.294   2.156  0.1684 -0.1090  1.0022
 5265SOL     OW21631   9.736   2.156   3.585  0.4613 -0.0143  0.3210
 5265SOL    HW121632   9.648   2.196   3.584  0.9671  1.1584  0.7664
 5265SOL    HW221633   9.742   2.116   3.672  0.4068 -0.0324  0.3170
 5266SOL     OW21634   5.747   1.711   5.460 -0.1277  0.1971 -0.2708
 5266SOL    HW121635   5.722   1.627   5.421 -1.3861 -0.6411  2.1510
 5266SOL    HW221636   5.802   1.688   5.534  2.0929  1.7277 -1.3332
 5267SOL     OW21637  10.655   0.153   3.386  0.7217 -0.0648 -0.3113
 5267SOL    HW121638  10.675   0.246   3.378 -0.9505  0.2073 -1.9490
 5267SOL    HW221639  10.633   0.141   3.478  0.5798  1.2567 -0.1550
 5268SOL     OW21640   8.239  11.807   1.305  0.2002 -0.3756  0.1436
 5268SOL    HW121641   8.221  11.869   1.235 -1.3995 -1.1712 -0.2160
 5268SOL    HW221642   8.152  11.788   1.342  0.3574 -3.6988 -0.9133
 5269SOL     OW21643   2.460   5.920   6.381 -0.2132 -0.2158  0.2548
 5269SOL    HW121644   2.550   5.946   6.362 -1.0348  1.9499 -0.9315
 5269SOL    HW221645   2.468   5.833   6.422  2.4019  0.0504  0.4355
 5270SOL     OW21646  10.147   9.405   1.570 -0.2548 -0.2778 -0.5979
 5270SOL    HW121647  10.148   9.382   1.663 -1.1713  0.6336 -0.3310
 5270SOL    HW221648  10.088   9.341   1.530 -0.1854 -0.4215 -0.4678
 5271SOL     OW21649  10.710   4.915   8.553  0.5295  0.2854  0.0373
 5271SOL    HW121650  10.715   4.854   8.480 -0.1905  0.6270 -0.3115
 5271SOL    HW221651  10.724   5.001   8.514  1.3480  0.3706  0.4953
 5272SOL     OW21652   9.057   4.922   0.473  0.3193  0.3932 -0.7071
 5272SOL    HW121653   8.981   4.865   0.461  2.5693 -2.4986 -2.4907
 5272SOL    HW221654   9.068   4.929   0.568 -1.1136 -0.6141 -0.4494
 5273SOL     OW21655   1.439   8.543   1.743  0.0987 -0.6064 -0.1111
 5273SOL    HW121656   1.417   8.470   1.686 -1.1629  0.6511 -1.3165
 5273SOL    HW221657   1.514   8.585   1.702 -0.6424  0.1404 -0.7378
 5274SOL     OW21658  10.816  11.076   2.700  0.3482  0.2066  0.0812
 5274SOL    HW121659  10.726  11.109   2.700 -0.2414 -1.3054 -0.6367
 5274SOL    HW221660  10.870  11.155   2.706 -0.9952  1.2995 -1.2553
 5275SOL     OW21661   2.169   0.229   3.849  0.6473 -0.3245 -0.1277
 5275SOL    HW121662   2.237   0.258   3.910  1.6099  0.0425 -1.3392
 5275SOL    HW221663   2.093   0.283   3.870  0.9252 -0.2855  0.8138
 5276SOL     OW21664   3.725  10.693   8.198 -0.4859  0.3957 -0.2089
 5276SOL    HW121665   3.723  10.607   8.156  0.7767  0.8211 -1.1941
 5276SOL    HW221666   3.769  10.750   8.135 -0.0827  1.4591  0.9786
 5277SOL     OW21667   3.384  10.682  11.309  0.6767 -0.0557 -0.1706
 5277SOL    HW121668   3.383  10.764  11.358 -0.4084  0.3847 -0.8856
 5277SOL    HW221669   3.387  10.708  11.217 -2.1314 -0.6883 -0.5333
 5278SOL     OW21670   4.973   5.664   4.603  0.5692 -0.2641 -0.4632
 5278SOL    HW121671   4.920   5.734   4.566  0.2563 -0.5127 -0.4912
 5278SOL    HW221672   4.987   5.690   4.694  0.7327 -0.0066 -0.5588
 5279SOL     OW21673   8.919   9.866   8.895  0.8015 -0.6814  0.4843
 5279SOL    HW121674   8.899   9.789   8.947  1.0924 -0.2731  1.2097
 5279SOL    HW221675   8.987   9.912   8.944  0.1390  0.4037  0.4276
 5280SOL     OW21676  11.298   1.254   4.088 -0.3415 -0.4336  0.1991
 5280SOL    HW121677  11.335   1.242   4.176  0.6542 -0.0499 -0.1546
 5280SOL    HW221678  11.219   1.200   4.088  0.3477 -1.4678  0.8968
 5281SOL     OW21679   8.060  12.029   2.903  0.1723  0.4517 -0.1515
 5281SOL    HW121680   8.057  12.088   2.978  1.1798  0.2657  0.0465
 5281SOL    HW221681   7.988  12.058   2.847 -0.1686  1.0180  0.5663
 5282SOL     OW21682  10.203   0.861   8.354  0.2307 -0.2218 -0.0060
 5282SOL    HW121683  10.164   0.948   8.353 -0.7694 -0.6513 -0.5027
 5282SOL    HW221684  10.180   0.825   8.440  1.5796  0.4000  0.6242
 5283SOL     OW21685   5.776   8.412   3.258  0.5455  0.1790 -0.3869
 5283SOL    HW121686   5.696   8.361   3.248  0.8427 -0.5170  0.6096
 5283SOL    HW221687   5.812   8.385   3.343  2.1546  0.0166 -1.0714
 5284SOL     OW21688   4.787   9.437   9.964  0.2058 -0.4870  0.0795
 5284SOL    HW121689   4.703   9.451   9.919  0.9845  0.1573 -1.2235
 5284SOL    HW221690   4.781   9.348   9.998 -1.1699 -0.3115  0.3847
 5285SOL     OW21691  11.553   2.089  11.590  0.2653  0.2554 -0.4586
 5285SOL    HW121692  11.598   2.086  11.674 -0.2738 -0.2715 -0.1782
 5285SOL    HW221693  11.559   1.999  11.556 -0.3275  0.2418 -0.5411
 5286SOL     OW21694   6.905   9.808   2.274  0.5568 -0.1247 -0.3551
 5286SOL    HW121695   6.939   9.897   2.259 -0.9085  0.3227 -1.2611
 5286SOL    HW221696   6.833   9.820   2.335  0.0416 -0.6109 -0.8503
 5287SOL     OW21697   5.163   2.883   8.237  0.0470  0.1904 -0.0788
 5287SOL    HW121698   5.162   2.801   8.188  0.7764  0.4740 -0.5920
 5287SOL    HW221699   5.247   2.923   8.214  0.8284 -0.0849  2.0929
 5288SOL     OW21700   9.534  12.113   8.342  0.3115 -0.0754 -0.1360
 5288SOL    HW121701   9.607  12.161   8.380 -1.4627  1.2052  1.9105
 5288SOL    HW221702   9.537  12.027   8.383  0.4805  0.0868  0.1890
 5289SOL     OW21703   9.564   6.847   0.797  0.1685 -0.1286 -0.0225
 5289SOL    HW121704   9.541   6.834   0.705 -0.1682  0.0179  0.0383
 5289SOL    HW221705   9.487   6.889   0.835  0.5991  0.5075  0.1553
 5290SOL     OW21706   4.867  10.185   5.395  0.4009 -0.5171  0.2909
 5290SOL    HW121707   4.781  10.185   5.353  0.4878 -0.2975  0.1088
 5290SOL    HW221708   4.849  10.198   5.488  0.3236  1.3714  0.0558
 5291SOL     OW21709   0.453   6.128  10.434  0.3766  0.2287  0.4284
 5291SOL    HW121710   0.473   6.109  10.343 -2.3490  1.2949 -0.5146
 5291SOL    HW221711   0.453   6.224  10.439 -0.3392  0.1958  1.2980
 5292SOL     OW21712   1.234   3.923   3.488  0.9569  0.3475  0.3899
 5292SOL    HW121713   1.306   3.931   3.550  1.3802  0.7613 -0.1435
 5292SOL    HW221714   1.277   3.908   3.404  0.4151  0.5312  0.0752
 5293SOL     OW21715  12.099   1.631   5.721  0.0025  0.0901 -0.1831
 5293SOL    HW121716  12.181   1.581   5.722 -0.3953 -0.5747  0.7863
 5293SOL    HW221717  12.036   1.572   5.680 -0.5157 -0.3039  1.1419
 5294SOL     OW21718   3.591   3.077   9.775  0.0390  0.3762 -0.2592
 5294SOL    HW121719   3.657   3.099   9.710  2.0067  0.3787  1.6476
 5294SOL    HW221720   3.627   3.107   9.858 -1.8235 -0.7324  1.0367
 5295SOL     OW21721   0.684   5.238   7.756 -0.1417  0.1031  1.0241
 5295SOL    HW121722   0.647   5.155   7.786 -2.5890  1.0420  0.8732
 5295SOL    HW221723   0.704   5.286   7.836  0.2240 -0.1995  1.1144
 5296SOL     OW21724   3.107  10.399   9.838 -0.1500  0.2275 -0.3962
 5296SOL    HW121725   3.122  10.493   9.847  2.5122 -0.1949  0.2441
 5296SOL    HW221726   3.145  10.376   9.754  1.1604 -0.5904  0.3909
 5297SOL     OW21727   9.159   7.613   3.023 -0.3092  0.5635  0.4532
 5297SOL    HW121728   9.141   7.520   3.007 -0.7791  0.5644  0.9553
 5297SOL    HW221729   9.254   7.620   3.025 -0.2531  0.2333 -0.3880
 5298SOL     OW21730   5.569   2.615   6.217  1.0226 -0.3369 -0.4993
 5298SOL    HW121731   5.564   2.677   6.144 -1.6591  1.1284  0.7930
 5298SOL    HW221732   5.499   2.553   6.202  1.9704 -1.4851 -0.3531
 5299SOL     OW21733   1.763   7.980   9.528  0.6063  0.6640 -0.2109
 5299SOL    HW121734   1.840   8.036   9.534  1.1160  0.0054 -0.5075
 5299SOL    HW221735   1.787   7.912   9.466 -0.3658  0.6769 -0.6214
 5300SOL     OW21736   0.998   5.494  11.961 -0.3109 -1.0162 -0.4879
 5300SOL    HW121737   1.014   5.510  11.868  1.7998  3.4045  0.3795
 5300SOL    HW221738   1.076   5.447  11.990 -0.2426 -1.0350 -0.6958
 5301SOL     OW21739   9.822   4.518   0.293  0.5272  0.1257  0.0745
 5301SOL    HW121740   9.738   4.509   0.249 -0.3799 -1.0864  1.9387
 5301SOL    HW221741   9.877   4.565   0.231 -2.3519  3.6352 -0.1069
 5302SOL     OW21742   5.579   2.946   0.288 -0.1004 -0.6413 -0.3314
 5302SOL    HW121743   5.625   2.964   0.370 -0.3233  1.0463 -0.5337
 5302SOL    HW221744   5.612   2.861   0.259  0.3956 -0.9940  1.2122
 5303SOL     OW21745   7.773   7.462   7.332 -0.1010  0.0372 -0.7320
 5303SOL    HW121746   7.852   7.435   7.285 -0.6302 -0.8578 -1.1311
 5303SOL    HW221747   7.802   7.534   7.388  1.2048 -0.8750 -0.1856
 5304SOL     OW21748   0.127   8.668   0.545 -0.0032 -0.0791  0.4363
 5304SOL    HW121749   0.120   8.604   0.616  0.8021 -0.6534  0.0143
 5304SOL    HW221750   0.056   8.729   0.561 -0.3127 -0.6432  1.2953
 5305SOL     OW21751   3.638   3.449  12.265  0.0465  0.1188  0.8275
 5305SOL    HW121752   3.542   3.447  12.266  0.0063  0.7197 -0.1838
 5305SOL    HW221753   3.663   3.468  12.355 -0.7799 -0.1749  1.1245
 5306SOL     OW21754   8.326   0.032   7.327 -0.1231  0.2687 -0.4197
 5306SOL    HW121755   8.262  -0.035   7.347  1.0313 -0.1740  2.2011
 5306SOL    HW221756   8.394  -0.013   7.277  0.1770 -0.2871  0.4864
 5307SOL     OW21757   0.415  11.311   7.668  0.0718  0.1325  0.4703
 5307SOL    HW121758   0.343  11.250   7.684 -0.9620  1.3197  0.4640
 5307SOL    HW221759   0.395  11.352   7.584  0.9102  0.2788  0.3263
 5308SOL     OW21760   2.693   7.802  11.428 -0.2164 -0.6543  0.0006
 5308SOL    HW121761   2.787   7.784  11.418 -0.3304 -0.5279 -1.5004
 5308SOL    HW221762   2.655   7.773  11.345 -1.8089 -2.5727  1.3077
 5309SOL     OW21763  10.496   3.424   8.491  0.0430 -0.3021  0.2483
 5309SOL    HW121764  10.568   3.370   8.456 -1.1073 -1.3014 -0.6559
 5309SOL    HW221765  10.425   3.413   8.428 -0.9422  0.6111  1.1631
 5310SOL     OW21766   6.159   7.874   3.886 -0.3758 -0.4467  0.3775
 5310SOL    HW121767   6.112   7.807   3.936 -1.6478 -0.5037 -0.8300
 5310SOL    HW221768   6.177   7.943   3.950  0.3949 -1.6309  1.4990
 5311SOL     OW21769   7.278  11.754  10.702  0.0420 -0.1806 -0.0882
 5311SOL    HW121770   7.192  11.794  10.718 -0.6743 -2.2011  1.6170
 5311SOL    HW221771   7.328  11.771  10.782  1.1738  0.6956 -0.9402
 5312SOL     OW21772   8.224   4.450   5.897 -0.1589 -0.6467  0.1113
 5312SOL    HW121773   8.129   4.437   5.906 -0.3003 -1.7020 -2.1004
 5312SOL    HW221774   8.233   4.538   5.862 -0.3262 -0.5941  0.1965
 5313SOL     OW21775  11.119   6.140   3.382 -0.4904 -0.1735  0.0573
 5313SOL    HW121776  11.209   6.150   3.412 -0.5539 -1.3815  0.7651
 5313SOL    HW221777  11.093   6.226   3.352  0.1599  0.7486  1.9678
 5314SOL     OW21778   3.369   4.760  11.960 -0.2679 -0.5528  0.6747
 5314SOL    HW121779   3.443   4.808  11.923  0.6786 -0.3309  2.6929
 5314SOL    HW221780   3.294   4.817  11.948  0.0431 -0.3663 -0.5607
 5315SOL     OW21781   4.045   8.212   8.845 -0.2039  0.2067  0.1073
 5315SOL    HW121782   4.094   8.295   8.850 -2.4845  1.6032  1.0512
 5315SOL    HW221783   4.026   8.201   8.752 -0.1972  0.9922  0.0006
 5316SOL     OW21784   2.296   4.453   4.893 -0.4589 -0.3148  0.2611
 5316SOL    HW121785   2.254   4.462   4.978 -0.6006 -0.6775  0.2301
 5316SOL    HW221786   2.292   4.360   4.873 -1.7669 -0.0583 -0.8306
 5317SOL     OW21787   8.205   6.971   8.099 -0.0464 -0.2365  0.1209
 5317SOL    HW121788   8.286   6.921   8.092 -0.4020 -0.7258 -0.6121
 5317SOL    HW221789   8.137   6.904   8.114 -0.9479 -0.3441 -3.6227
 5318SOL     OW21790  10.343   4.005   3.721 -0.3752  0.3363  0.5241
 5318SOL    HW121791  10.318   4.049   3.640  0.6596 -0.6734 -0.3880
 5318SOL    HW221792  10.389   4.071   3.772 -0.5892  0.8445  0.0631
 5319SOL     OW21793  10.485  11.153   0.469  0.3664  0.2854  0.0217
 5319SOL    HW121794  10.444  11.196   0.393  1.3297  0.7479 -0.2442
 5319SOL    HW221795  10.574  11.188   0.471  0.9010 -1.0629  0.3259
 5320SOL     OW21796   9.011   6.228   1.611 -0.8776 -0.5339 -0.2784
 5320SOL    HW121797   9.057   6.188   1.684 -0.7282 -1.6649 -0.9767
 5320SOL    HW221798   8.935   6.270   1.651 -0.6231 -0.8646  0.5619
 5321SOL     OW21799  11.269   5.099   1.845  0.8037 -0.7934 -0.0847
 5321SOL    HW121800  11.201   5.063   1.788  1.3261  2.1322 -2.8761
 5321SOL    HW221801  11.241   5.189   1.861  3.8423  0.5125 -1.3071
 5322SOL     OW21802   3.668   6.020  11.134 -0.1153 -0.1186 -0.3751
 5322SOL    HW121803   3.709   6.069  11.206 -1.7321  0.0667  0.4820
 5322SOL    HW221804   3.670   5.929  11.163  2.1137 -0.5177 -1.5834
 5323SOL     OW21805   2.337   3.682   8.947 -0.1226  0.2327  0.3706
 5323SOL    HW121806   2.336   3.664   8.853  0.5083 -2.6249  0.8411
 5323SOL    HW221807   2.251   3.653   8.978  0.0039  0.3259  0.8172
 5324SOL     OW21808   2.191  11.506   5.989  0.0374  0.2341  0.4136
 5324SOL    HW121809   2.237  11.426   5.962  0.9140  0.8700 -0.0014
 5324SOL    HW221810   2.100  11.478   6.000  0.6048 -1.2017  1.9114
 5325SOL     OW21811   4.317   1.477  11.028 -0.9508 -0.1483  0.9401
 5325SOL    HW121812   4.268   1.424  10.965 -0.2582  1.6319 -1.2011
 5325SOL    HW221813   4.401   1.431  11.039 -0.9625 -0.3138  0.3367
 5326SOL     OW21814   2.299  10.671   4.919 -0.4903 -0.1374  0.4002
 5326SOL    HW121815   2.285  10.693   4.827 -1.5723 -1.2045  0.2843
 5326SOL    HW221816   2.257  10.742   4.967 -3.2026 -1.3951  0.0368
 5327SOL     OW21817   8.008   6.234   5.791 -0.0809  0.3052 -0.2599
 5327SOL    HW121818   7.959   6.154   5.773 -0.4381  0.5849 -0.5346
 5327SOL    HW221819   8.003   6.245   5.886  0.5970 -0.3949 -0.1225
 5328SOL     OW21820   0.797   4.538   3.867 -0.0301 -0.0052  0.2391
 5328SOL    HW121821   0.854   4.482   3.920  0.0436 -0.4817 -0.3259
 5328SOL    HW221822   0.847   4.619   3.855 -0.7786  0.8428  2.3855
 5329SOL     OW21823   2.214  10.413   3.237 -0.3672  0.0777  0.1638
 5329SOL    HW121824   2.233  10.328   3.198  0.6523 -0.5474  1.8885
 5329SOL    HW221825   2.180  10.466   3.165  0.2820 -1.3535 -1.2521
 5330SOL     OW21826  11.075   8.619   7.552  0.0787 -0.1754  0.2135
 5330SOL    HW121827  10.981   8.613   7.567  0.3683  0.0023  2.4383
 5330SOL    HW221828  11.086   8.598   7.459 -2.1819  0.2855 -0.2204
 5331SOL     OW21829  10.413   3.519   1.309  0.4417 -0.4192  0.1590
 5331SOL    HW121830  10.428   3.495   1.218  1.7535 -1.4374  0.6122
 5331SOL    HW221831  10.340   3.464   1.337  1.4460 -1.7254  0.3091
 5332SOL     OW21832   3.742   0.077  10.161 -0.3319  0.1651 -0.4247
 5332SOL    HW121833   3.669   0.018  10.180  0.5450 -1.1858 -1.1336
 5332SOL    HW221834   3.814   0.044  10.216  0.6476 -0.4673 -2.0374
 5333SOL     OW21835   4.594   2.101  10.495 -0.2040 -0.6122  0.0952
 5333SOL    HW121836   4.560   2.081  10.582 -0.5245 -2.0665 -0.3286
 5333SOL    HW221837   4.651   2.027  10.474  0.9595  0.3819 -0.3929
 5334SOL     OW21838  10.779   0.492   5.606  0.2447 -0.1870 -0.0683
 5334SOL    HW121839  10.745   0.559   5.547  0.0229 -1.8393 -1.8998
 5334SOL    HW221840  10.874   0.499   5.599  0.2746  0.9514  1.0113
 5335SOL     OW21841   6.852   3.566  11.391 -0.5396 -0.2092  0.3504
 5335SOL    HW121842   6.841   3.471  11.404  0.5243 -0.3657  0.1792
 5335SOL    HW221843   6.937   3.585  11.430  0.9246  0.0289 -2.7161
 5336SOL     OW21844   5.597  12.303   6.243 -0.8943 -0.2024  0.1938
 5336SOL    HW121845   5.545  12.354   6.180 -0.7961  1.9882  1.7677
 5336SOL    HW221846   5.533  12.257   6.296 -1.0297 -0.9101 -0.5634
 5337SOL     OW21847   8.057   2.749   9.498 -0.2599  0.1993 -0.2228
 5337SOL    HW121848   7.989   2.800   9.543  0.2322  0.5503  0.1470
 5337SOL    HW221849   8.077   2.678   9.558  0.2363  0.5379  0.0283
 5338SOL     OW21850  11.969   6.970   0.785  0.5971  0.0246 -0.3304
 5338SOL    HW121851  11.878   6.943   0.796  0.1992  0.4025 -2.2712
 5338SOL    HW221852  12.005   6.908   0.721  1.3838  0.5153 -0.3788
 5339SOL     OW21853   3.338   4.444  11.379 -0.2769  0.6054 -0.0467
 5339SOL    HW121854   3.376   4.443  11.467 -0.8006  0.0859  0.1800
 5339SOL    HW221855   3.290   4.361  11.372 -1.1643  1.1249 -0.4091
 5340SOL     OW21856  11.322  11.768   0.541 -0.5813 -0.3264 -0.3554
 5340SOL    HW121857  11.411  11.772   0.576 -0.8499  1.2532  0.2471
 5340SOL    HW221858  11.267  11.748   0.617 -1.0060  1.5938 -0.1027
 5341SOL     OW21859   4.427  11.331   3.820 -0.4704  0.6160  0.2253
 5341SOL    HW121860   4.457  11.418   3.792  0.7672  0.0976 -0.1279
 5341SOL    HW221861   4.463  11.320   3.908 -1.0091  0.6359  0.4520
 5342SOL     OW21862   5.672  11.438  12.102 -0.7981  0.3867  0.8758
 5342SOL    HW121863   5.751  11.469  12.058 -1.2577 -1.0842 -1.1155
 5342SOL    HW221864   5.691  11.447  12.196  0.1105  3.9427  0.4955
 5343SOL     OW21865   1.679   3.107   0.335 -0.4958 -0.5764 -0.3261
 5343SOL    HW121866   1.710   3.021   0.310  1.4581  0.2816 -0.9913
 5343SOL    HW221867   1.692   3.162   0.258 -2.2345  0.2251 -0.1138
 5344SOL     OW21868   5.796   6.413   4.342 -0.5749  0.2271 -0.3192
 5344SOL    HW121869   5.828   6.338   4.291 -1.1879 -0.4494  0.2717
 5344SOL    HW221870   5.870   6.474   4.343 -0.1687 -0.2307 -1.0674
 5345SOL     OW21871   9.005   0.511   4.393 -0.4324 -0.2900 -0.2152
 5345SOL    HW121872   9.027   0.593   4.439 -1.0974 -0.3120  0.1471
 5345SOL    HW221873   9.001   0.536   4.301 -0.3386  0.0214 -0.1383
 5346SOL     OW21874   1.063   6.334   0.349  0.7046 -0.3556 -0.2550
 5346SOL    HW121875   1.044   6.423   0.381  0.0890 -0.9097  1.0245
 5346SOL    HW221876   0.984   6.309   0.302 -1.0900 -1.8072  3.1412
 5347SOL     OW21877   5.726  11.746   0.460  0.1092 -0.8423 -0.5046
 5347SOL    HW121878   5.772  11.676   0.415 -1.7699 -1.4016 -1.6816
 5347SOL    HW221879   5.634  11.722   0.455 -0.8613  2.5106 -2.6261
 5348SOL     OW21880   6.150   8.519   3.113  0.3696 -0.4980  0.0098
 5348SOL    HW121881   6.115   8.529   3.201  2.1443 -1.7872  0.9225
 5348SOL    HW221882   6.211   8.445   3.119  3.3580  1.6241 -1.3531
 5349SOL     OW21883   1.535   2.528   2.602  0.3676  0.3286 -0.2893
 5349SOL    HW121884   1.616   2.484   2.577  0.3520  1.3726 -2.4459
 5349SOL    HW221885   1.495   2.470   2.667  2.1509 -0.8922 -0.2025
 5350SOL     OW21886   3.391   8.607  11.611 -0.2407 -0.7073 -0.2731
 5350SOL    HW121887   3.407   8.674  11.545  1.0918 -0.7893 -0.0712
 5350SOL    HW221888   3.413   8.524  11.568  0.0296 -0.8188  0.0708
 5351SOL     OW21889   5.672  11.421   0.038 -0.6491 -0.2151 -0.3555
 5351SOL    HW121890   5.667  11.516   0.054 -0.2422 -0.3760  0.7720
 5351SOL    HW221891   5.763  11.398   0.060 -0.5501 -0.7596 -1.2791
 5352SOL     OW21892   4.776   6.372   7.144  0.0787 -0.3069 -0.0371
 5352SOL    HW121893   4.758   6.379   7.050  1.5830  0.4608 -0.3080
 5352SOL    HW221894   4.858   6.321   7.148 -0.1291 -0.5877  0.8839
 5353SOL     OW21895   9.841   1.105  10.031  0.2960  0.3756  1.0102
 5353SOL    HW121896   9.848   1.192   9.992 -0.4099  0.6068  1.3913
 5353SOL    HW221897   9.914   1.056   9.992 -0.8546  0.3401 -1.2767
 5354SOL     OW21898   5.304   1.690   7.400 -0.0552 -0.0395 -0.5961
 5354SOL    HW121899   5.262   1.608   7.426  0.6726 -0.4195 -0.5686
 5354SOL    HW221900   5.289   1.749   7.473  0.4255 -0.5296 -0.0868
 5355SOL     OW21901  10.653   6.138   2.565  0.0975  0.3037 -0.1315
 5355SOL    HW121902  10.706   6.143   2.645 -1.1028  0.2717  0.6980
 5355SOL    HW221903  10.587   6.207   2.576  0.4866  0.9380 -1.5524
 5356SOL     OW21904   3.392   6.947  11.803  0.6014 -0.0832  0.2188
 5356SOL    HW121905   3.329   6.920  11.736  1.8322  1.1724 -1.5459
 5356SOL    HW221906   3.476   6.915  11.772  1.2093  0.5481  1.1572
 5357SOL     OW21907   0.534   0.709   6.437  0.1074  0.2018 -0.2959
 5357SOL    HW121908   0.582   0.778   6.390  1.3563 -0.1676  0.3756
 5357SOL    HW221909   0.540   0.735   6.529 -1.0580  0.1687 -0.2073
 5358SOL     OW21910   7.483   6.459   6.390  0.2478 -0.5184  0.0277
 5358SOL    HW121911   7.523   6.375   6.411  2.4752  1.0112  2.5716
 5358SOL    HW221912   7.409   6.465   6.451  0.0273 -0.6707 -0.2244
 5359SOL     OW21913   1.227   6.915   4.173  0.0271  0.3445 -0.3197
 5359SOL    HW121914   1.148   6.911   4.120  0.5165  1.3212 -1.1607
 5359SOL    HW221915   1.295   6.874   4.119  0.5937  1.6001 -0.6161
 5360SOL     OW21916   7.440   0.864  11.752  0.5831 -0.5482  0.8956
 5360SOL    HW121917   7.433   0.813  11.671  0.3182 -1.8510  1.6992
 5360SOL    HW221918   7.520   0.915  11.741  0.2325 -0.2453 -0.4287
 5361SOL     OW21919  11.047   9.211   7.688 -0.5846  0.1066 -0.2297
 5361SOL    HW121920  10.993   9.201   7.767  0.8165  0.1037  0.7714
 5361SOL    HW221921  11.046   9.124   7.647  0.6004 -0.5756  1.1062
 5362SOL     OW21922   2.817   0.504   3.015 -0.5462 -0.7392 -0.0835
 5362SOL    HW121923   2.770   0.579   2.978 -0.4306  0.5997  2.2943
 5362SOL    HW221924   2.874   0.475   2.944  1.0267  2.8381 -0.5263
 5363SOL     OW21925   1.792   7.542   5.931 -0.1562 -0.4389  0.7436
 5363SOL    HW121926   1.871   7.524   5.982  0.4414  1.8988  0.7349
 5363SOL    HW221927   1.806   7.497   5.848  0.2978 -1.6036  1.4317
 5364SOL     OW21928   3.178   0.201   0.318 -0.2468 -0.6893 -0.4378
 5364SOL    HW121929   3.130   0.136   0.268  0.9174  0.3207 -3.0668
 5364SOL    HW221930   3.267   0.198   0.283  0.3816  0.8025  0.8798
 5365SOL     OW21931   8.361   8.480   8.075 -0.2325 -0.1144  0.5082
 5365SOL    HW121932   8.288   8.425   8.047  0.0895 -0.2723 -0.0175
 5365SOL    HW221933   8.329   8.570   8.065 -0.1053 -0.1646 -0.4139
 5366SOL     OW21934   1.737   1.155  12.046 -0.2397 -0.1379 -0.5915
 5366SOL    HW121935   1.825   1.173  12.079 -1.0866 -0.1689  1.8242
 5366SOL    HW221936   1.745   1.073  11.997  0.9310 -0.4899  0.1723
 5367SOL     OW21937   0.118   7.095  10.413  0.0609 -0.1387 -0.1525
 5367SOL    HW121938   0.121   7.190  10.425  2.8413 -0.1748  0.0359
 5367SOL    HW221939   0.108   7.083  10.318 -4.3934  0.1914  0.0468
 5368SOL     OW21940   2.039  11.313   6.208 -0.2653 -0.0327 -0.1519
 5368SOL    HW121941   2.127  11.350   6.204  0.9346 -2.6528 -0.2232
 5368SOL    HW221942   2.005  11.319   6.119 -0.5685  1.7583  0.0421
 5369SOL     OW21943   6.456   1.673   3.497  0.3878  0.4129 -0.0550
 5369SOL    HW121944   6.419   1.588   3.518 -0.4959  0.0574 -2.6378
 5369SOL    HW221945   6.550   1.658   3.490  0.2217 -0.4076 -0.6120
 5370SOL     OW21946  10.883   9.615   5.435 -0.0284  0.3776 -0.0793
 5370SOL    HW121947  10.884   9.633   5.529 -0.6914  1.6127 -0.2772
 5370SOL    HW221948  10.975   9.609   5.411  0.1430 -0.4183  0.7241
 5371SOL     OW21949   3.136   6.520   5.310  0.4280  0.4658  0.6490
 5371SOL    HW121950   3.081   6.442   5.319  1.4829 -0.4635 -0.4900
 5371SOL    HW221951   3.106   6.561   5.229  1.7163 -0.3748 -0.3060
 5372SOL     OW21952   7.408  12.307  10.448  0.2051  0.3075  0.0735
 5372SOL    HW121953   7.469  12.341  10.513  1.0732  0.6225 -0.8916
 5372SOL    HW221954   7.462  12.289  10.371 -0.5485 -1.4670 -0.0841
 5373SOL     OW21955   5.696  12.298   8.695 -0.6277 -0.2061 -0.0818
 5373SOL    HW121956   5.724  12.291   8.786  0.9981  0.5337 -0.4863
 5373SOL    HW221957   5.604  12.322   8.700 -0.1159  1.6576  1.4223
 5374SOL     OW21958   2.394   4.935   7.564 -0.4876 -0.6723  0.0676
 5374SOL    HW121959   2.475   4.930   7.513 -0.3406  0.2527  0.2016
 5374SOL    HW221960   2.422   4.941   7.655 -0.6433  1.3103  0.0119
 5375SOL     OW21961   2.088   2.931   6.796  0.4331 -0.2456  0.1892
 5375SOL    HW121962   2.099   2.854   6.852  0.0245  0.6596  1.5553
 5375SOL    HW221963   2.088   2.895   6.707  0.2917 -1.8257  0.7827
 5376SOL     OW21964   8.313   1.670   3.873 -0.1059 -0.3282  0.6591
 5376SOL    HW121965   8.286   1.608   3.941  1.3535 -0.4901  1.1422
 5376SOL    HW221966   8.408   1.655   3.865  0.3708  2.1139  1.0942
 5377SOL     OW21967  11.582   8.923   0.969 -0.2193 -0.1544  0.1653
 5377SOL    HW121968  11.619   9.002   0.928 -0.9562  1.9484  3.2083
 5377SOL    HW221969  11.654   8.887   1.020  0.0183 -1.3492 -0.9625
 5378SOL     OW21970   7.856   6.740   2.888 -0.2729  0.1209 -0.1861
 5378SOL    HW121971   7.838   6.680   2.816  1.8820  0.2354 -0.8908
 5378SOL    HW221972   7.891   6.684   2.958 -1.1629  0.1752  0.3153
 5379SOL     OW21973   1.744  10.978  12.180 -0.2132 -0.7106  0.0009
 5379SOL    HW121974   1.794  10.956  12.259  0.9896 -0.4914 -0.6877
 5379SOL    HW221975   1.719  10.893  12.143  1.0497 -0.8631 -0.5261
 5380SOL     OW21976  11.355   8.363   6.067 -0.2203  0.0314 -0.3638
 5380SOL    HW121977  11.346   8.444   6.016  0.0139  0.8704  0.8951
 5380SOL    HW221978  11.447   8.338   6.057 -0.0257  0.5371  0.1503
 5381SOL     OW21979  12.157   5.635   8.029 -0.1208  0.2813 -0.1084
 5381SOL    HW121980  12.171   5.717   7.982  0.2376 -0.2518 -0.9545
 5381SOL    HW221981  12.082   5.594   7.985  1.0296 -0.8376 -1.1242
 5382SOL     OW21982   0.167  11.941   7.520 -0.4981  0.8780  0.1365
 5382SOL    HW121983   0.201  11.995   7.449 -1.8734  1.3282 -0.2203
 5382SOL    HW221984   0.074  11.964   7.526 -1.0393 -1.0849  0.3019
 5383SOL     OW21985   0.624   2.537   3.468 -0.4581 -0.3683  0.0269
 5383SOL    HW121986   0.534   2.512   3.446 -1.2089  0.5098  1.8397
 5383SOL    HW221987   0.657   2.464   3.520 -0.2933 -0.4672 -0.2143
 5384SOL     OW21988   6.703  12.025   5.049 -0.8314 -0.7858 -0.3528
 5384SOL    HW121989   6.649  12.103   5.041  0.1778 -0.1044 -0.7856
 5384SOL    HW221990   6.673  11.982   5.128 -1.9060 -0.3561 -0.5141
 5385SOL     OW21991   0.941   7.872   2.258 -0.2774 -0.1965  0.4767
 5385SOL    HW121992   0.960   7.788   2.217 -1.6618 -0.4438  0.2844
 5385SOL    HW221993   0.863   7.904   2.211 -0.3058  0.7657  1.1508
 5386SOL     OW21994   2.697   6.058   4.610 -0.1988  0.1466 -0.3664
 5386SOL    HW121995   2.763   6.029   4.547  0.1313 -1.7151  0.7580
 5386SOL    HW221996   2.617   6.012   4.584 -0.0698 -0.6023  0.5148
 5387SOL     OW21997   4.364  11.585   1.564  0.1514  0.0297  0.5224
 5387SOL    HW121998   4.290  11.598   1.623 -0.5203  0.1420 -0.3101
 5387SOL    HW221999   4.376  11.490   1.560 -1.5183 -0.1728 -1.1519
 5388SOL     OW22000   0.749   0.002  10.523  0.2080 -0.3664  0.5450
 5388SOL    HW122001   0.669   0.054  10.528  0.8288  0.8348 -1.0349
 5388SOL    HW222002   0.750  -0.049  10.604 -1.0970  1.1165  1.5614
 5389SOL     OW22003   2.430  11.562   2.805  0.1819  0.0389  0.3976
 5389SOL    HW122004   2.468  11.631   2.751 -1.0447 -0.8721 -1.7822
 5389SOL    HW222005   2.491  11.489   2.796 -0.9199 -0.7317 -1.3961
 5390SOL     OW22006   6.242   4.405   1.937 -0.0777  0.2284  0.4949
 5390SOL    HW122007   6.204   4.444   1.859 -1.1306 -0.3662  0.6850
 5390SOL    HW222008   6.318   4.357   1.906  0.9772  2.0288  0.2017
 5391SOL     OW22009   5.973   3.222  10.050 -0.3694 -0.3891  0.9204
 5391SOL    HW122010   5.986   3.315  10.029  0.0703 -0.9020 -1.3462
 5391SOL    HW222011   6.049   3.199  10.104 -0.4041  0.5125  1.3725
 5392SOL     OW22012   7.669   3.544   5.118  0.1404 -0.4712 -0.3111
 5392SOL    HW122013   7.695   3.555   5.209 -1.6707 -1.0954  0.3275
 5392SOL    HW222014   7.683   3.630   5.078 -0.6001  0.2818  0.9953
 5393SOL     OW22015  10.382   6.269   5.115  0.1893 -0.5277  0.3615
 5393SOL    HW122016  10.301   6.248   5.162 -1.0792  0.3847 -1.2883
 5393SOL    HW222017  10.352   6.304   5.031  2.3272 -2.5719 -1.3847
 5394SOL     OW22018  11.795   2.162   5.326 -0.2955 -0.1276  0.4270
 5394SOL    HW122019  11.884   2.158   5.362 -0.5273  0.2578  1.0577
 5394SOL    HW222020  11.789   2.086   5.269 -0.0395 -0.9692  1.4915
 5395SOL     OW22021   0.329  11.368   1.836  0.3210  0.2987 -0.2534
 5395SOL    HW122022   0.244  11.380   1.793 -0.5041 -0.2012  1.1685
 5395SOL    HW222023   0.390  11.421   1.785 -0.4253 -0.8944 -2.5051
 5396SOL     OW22024  10.326   6.347   2.003 -0.7634 -0.5643 -0.0709
 5396SOL    HW122025  10.368   6.341   2.089  0.8817 -1.5033 -0.8878
 5396SOL    HW222026  10.307   6.256   1.979  0.3601 -0.5005 -1.3820
 5397SOL     OW22027   0.503   4.590   3.840 -0.2145 -0.5236 -0.4046
 5397SOL    HW122028   0.487   4.578   3.746 -0.4988  0.3483 -0.4756
 5397SOL    HW222029   0.599   4.594   3.847 -0.2068 -0.1899 -0.7050
 5398SOL     OW22030  11.427  12.014   5.177  0.2908 -0.4774 -0.9182
 5398SOL    HW122031  11.363  12.009   5.107 -0.3718  1.6160 -0.5534
 5398SOL    HW222032  11.502  12.060   5.138  0.2000  0.0666 -0.4730
 5399SOL     OW22033  11.241   9.622   8.200  0.1655 -0.6460  0.0523
 5399SOL    HW122034  11.282   9.647   8.283 -0.9660  0.3826  0.3355
 5399SOL    HW222035  11.293   9.667   8.133 -0.9123  1.3234  0.4599
 5400SOL     OW22036   2.843   8.715   5.940 -0.2460 -0.0516  0.0505
 5400SOL    HW122037   2.822   8.780   5.873 -0.3302 -0.1695 -0.0394
 5400SOL    HW222038   2.859   8.766   6.020  0.1193  0.1034 -0.1237
 5401SOL     OW22039   1.850  10.043   7.334  0.3517  0.2271  0.1486
 5401SOL    HW122040   1.905   9.977   7.376 -1.5459 -0.2091  2.1046
 5401SOL    HW222041   1.874  10.125   7.378 -0.8047 -0.0302  1.2860
 5402SOL     OW22042   1.889   8.669   3.303 -0.0323  0.2008 -0.0967
 5402SOL    HW122043   1.866   8.597   3.245  0.8967  0.0928 -0.3514
 5402SOL    HW222044   1.918   8.627   3.384  1.8679  0.1898 -0.7292
 5403SOL     OW22045  10.004   0.841  11.996 -0.0052 -0.5665  0.5489
 5403SOL    HW122046  10.040   0.752  11.993  1.3224 -0.0461  0.0270
 5403SOL    HW222047   9.964   0.854  11.910 -0.4701 -0.7708  0.7364
 5404SOL     OW22048   7.591   4.017   8.001  0.1492  0.6969 -0.2515
 5404SOL    HW122049   7.508   4.000   7.956  1.1397  0.0225 -1.9281
 5404SOL    HW222050   7.582   3.975   8.087 -0.5393 -1.0949 -1.1513
 5405SOL     OW22051   9.060   5.475   1.923  0.3498 -0.2120  0.0187
 5405SOL    HW122052   8.985   5.416   1.919 -1.1375  1.4313  1.6813
 5405SOL    HW222053   9.065   5.501   2.016  1.0470  2.0494 -0.5832
 5406SOL     OW22054   7.539   8.620  10.020 -0.2413  0.1187 -0.2670
 5406SOL    HW122055   7.516   8.538   9.975 -0.3872  1.0926 -2.0678
 5406SOL    HW222056   7.518   8.603  10.112 -1.1154 -1.5687 -0.7218
 5407SOL     OW22057   4.089   2.304  10.143  0.3594 -0.1910 -0.3929
 5407SOL    HW122058   4.095   2.297  10.238  0.0834 -0.3275 -0.3848
 5407SOL    HW222059   4.171   2.346  10.117  1.3470 -1.9673 -0.2820
 5408SOL     OW22060   8.426  11.816   1.881  0.5661 -0.0537  0.4225
 5408SOL    HW122061   8.440  11.900   1.924  1.5328  0.3244 -0.5813
 5408SOL    HW222062   8.415  11.838   1.788 -2.1871 -0.7785  0.4843
 5409SOL     OW22063  12.296  10.096   5.680 -0.1693 -0.2144  0.2241
 5409SOL    HW122064  12.264  10.186   5.666 -1.9266 -0.6704  1.0433
 5409SOL    HW222065  12.356  10.081   5.608 -2.5200  0.4187 -2.0351
 5410SOL     OW22066   9.514   0.718   8.914 -0.4173 -0.4816 -0.2456
 5410SOL    HW122067   9.477   0.651   8.971  1.0254 -0.1259  1.1861
 5410SOL    HW222068   9.483   0.801   8.950 -1.4995 -0.3036 -1.4977
 5411SOL     OW22069   9.868   8.850   2.760 -0.4654 -0.6312 -0.0213
 5411SOL    HW122070   9.916   8.881   2.684 -0.9650 -0.3835 -0.2420
 5411SOL    HW222071   9.836   8.764   2.735  3.8605 -3.0938  1.8049
 5412SOL     OW22072  11.599   9.536   4.995 -0.0322 -0.1781 -0.2064
 5412SOL    HW122073  11.601   9.525   5.090  1.2774 -0.4098 -0.2456
 5412SOL    HW222074  11.671   9.596   4.975  0.2272 -0.7578 -1.1147
 5413SOL     OW22075   7.910  11.257   7.548 -0.0042  0.2592  0.2652
 5413SOL    HW122076   7.954  11.284   7.468 -1.2174  0.6641 -0.2939
 5413SOL    HW222077   7.930  11.326   7.611  0.7001  0.0931  0.2365
 5414SOL     OW22078   4.668   6.068   1.482  0.1725 -0.2948 -0.4735
 5414SOL    HW122079   4.701   5.980   1.500 -1.2622 -0.7893 -0.1284
 5414SOL    HW222080   4.609   6.057   1.407  0.8552  0.5806 -1.1565
 5415SOL     OW22081   4.295   1.371   0.856 -0.2007  0.2938 -0.0614
 5415SOL    HW122082   4.336   1.367   0.943 -2.8741 -1.5202  1.2457
 5415SOL    HW222083   4.229   1.440   0.864 -0.2888  0.2944 -0.7601
 5416SOL     OW22084  10.159   2.507   1.592  0.0502 -0.1274 -0.3748
 5416SOL    HW122085  10.075   2.522   1.637 -0.3254 -1.2355 -0.6879
 5416SOL    HW222086  10.189   2.422   1.624  1.1395  0.3135 -0.1682
 5417SOL     OW22087   8.061   1.334   3.679 -0.4135 -0.3751  0.6946
 5417SOL    HW122088   8.134   1.357   3.621  2.2042 -1.9798  3.0821
 5417SOL    HW222089   8.020   1.259   3.636  1.1143 -1.1917  0.5843
 5418SOL     OW22090   3.672   3.789   1.526  0.1848  0.2305  0.0211
 5418SOL    HW122091   3.692   3.701   1.493 -0.5414  0.5719 -1.3953
 5418SOL    HW222092   3.576   3.793   1.526  0.2120  1.4356 -1.1006
 5419SOL     OW22093   7.291  12.263   0.317  0.1928  0.0507 -0.1963
 5419SOL    HW122094   7.350  12.223   0.253 -0.4991 -2.3921  0.5918
 5419SOL    HW222095   7.208  12.273   0.271  0.2424  0.1704 -0.2604
 5420SOL     OW22096   1.324   6.664   4.390 -0.4586  0.4368  0.0967
 5420SOL    HW122097   1.267   6.602   4.436 -0.6411  0.3917 -0.1811
 5420SOL    HW222098   1.365   6.611   4.321 -2.6530  1.1265 -1.9079
 5421SOL     OW22099   3.287   8.294  10.643 -0.3424  0.0981  0.5918
 5421SOL    HW122100   3.341   8.352  10.696  0.5439  0.9575 -1.1624
 5421SOL    HW222101   3.349   8.241  10.595 -1.0557  0.3123 -0.6125
 5422SOL     OW22102   2.255   4.566  10.421  0.1505 -0.2530 -0.3086
 5422SOL    HW122103   2.228   4.567  10.329 -0.6817  1.4334 -0.1071
 5422SOL    HW222104   2.244   4.475  10.448 -2.7441 -0.2409 -1.0482
 5423SOL     OW22105   6.782   2.196   2.614  0.2102  0.2000  0.1789
 5423SOL    HW122106   6.728   2.130   2.659  0.1392  0.3293  0.2854
 5423SOL    HW222107   6.788   2.164   2.524 -1.8294  1.2496 -0.3831
 5424SOL     OW22108   7.276   4.010   3.275  0.2874 -0.4099  0.1741
 5424SOL    HW122109   7.348   3.947   3.286 -0.2960 -0.8137  2.0911
 5424SOL    HW222110   7.319   4.095   3.267  1.0183 -0.7362  0.5210
 5425SOL     OW22111   5.276   2.031   6.185 -0.4335  0.0826 -0.4406
 5425SOL    HW122112   5.297   1.955   6.240  0.5838  1.3976  1.0752
 5425SOL    HW222113   5.334   2.022   6.109  0.5994 -0.0360  0.3362
 5426SOL     OW22114   7.148   0.560   6.949 -0.1490  0.1291  0.6010
 5426SOL    HW122115   7.072   0.606   6.984 -1.0078  0.0611 -1.0769
 5426SOL    HW222116   7.207   0.551   7.024 -1.3642  1.0418  1.7176
 5427SOL     OW22117  10.591   0.605   8.382  0.1569 -0.1839 -0.0140
 5427SOL    HW122118  10.630   0.540   8.441  0.2145 -0.5339 -0.4366
 5427SOL    HW222119  10.665   0.640   8.332  0.1798  0.4766  0.4621
 5428SOL     OW22120   0.201   5.495   5.450 -0.2823 -0.8326 -0.8504
 5428SOL    HW122121   0.243   5.516   5.533 -0.5277 -0.0734 -0.9076
 5428SOL    HW222122   0.228   5.406   5.431 -0.2152 -1.0128  0.0416
 5429SOL     OW22123   9.330   2.917  11.525  0.4713 -0.1090  0.3390
 5429SOL    HW122124   9.309   3.007  11.503  0.4932  0.3188  1.9017
 5429SOL    HW222125   9.414   2.922  11.569  0.1964 -0.7973  0.9770
 5430SOL     OW22126   5.125   7.579  10.766 -0.2100  0.0997  0.3164
 5430SOL    HW122127   5.082   7.493  10.763 -1.9174  0.9005  0.7896
 5430SOL    HW222128   5.097   7.623  10.686  1.3909 -0.0776 -0.3812
 5431SOL     OW22129   3.487  11.640  10.776 -0.0135  0.2918  0.4958
 5431SOL    HW122130   3.548  11.690  10.721  0.1496  1.0636  1.3654
 5431SOL    HW222131   3.419  11.610  10.715  1.5050 -1.0834 -0.6078
 5432SOL     OW22132   9.274  10.206  10.503 -0.0646 -0.1174 -0.4900
 5432SOL    HW122133   9.195  10.227  10.553  0.3674  1.3604 -0.3528
 5432SOL    HW222134   9.345  10.245  10.555  0.4637  0.9065 -1.9165
 5433SOL     OW22135   7.833   1.337   7.021  0.2397 -0.3157 -0.1540
 5433SOL    HW122136   7.900   1.349   7.089 -0.5171 -1.7028  0.8959
 5433SOL    HW222137   7.752   1.364   7.064 -0.1742 -0.7119 -0.6872
 5434SOL     OW22138   3.929   6.541   5.995  0.2701 -0.2459 -0.0410
 5434SOL    HW122139   3.958   6.455   6.024 -0.2569 -0.0626  1.1152
 5434SOL    HW222140   3.884   6.525   5.912 -0.8048 -1.2644  0.7100
 5435SOL     OW22141  10.111   0.239   5.182  0.0092 -0.7356  0.0052
 5435SOL    HW122142  10.161   0.319   5.192  1.7511 -1.9802  2.1068
 5435SOL    HW222143  10.042   0.261   5.119  1.0324  2.0650 -0.2561
 5436SOL     OW22144   8.736  10.878   5.049 -0.1668 -0.2389 -0.1414
 5436SOL    HW122145   8.701  10.888   5.137  1.4046  0.8844  0.4186
 5436SOL    HW222146   8.753  10.785   5.040 -2.4125 -0.7033 -0.1494
 5437SOL     OW22147   8.567   5.097   5.692  0.0947 -0.7893  0.1825
 5437SOL    HW122148   8.631   5.067   5.627 -0.4470  0.2415 -0.8703
 5437SOL    HW222149   8.612   5.088   5.776  1.4677 -0.4944 -0.4926
 5438SOL     OW22150   9.620   7.338   2.818  0.4845 -0.3103 -0.0665
 5438SOL    HW122151   9.685   7.364   2.754  0.1528 -0.2392 -0.3810
 5438SOL    HW222152   9.539   7.382   2.789  0.7350  1.2294  1.4177
 5439SOL     OW22153   4.004   4.806   3.922  0.1673 -0.4360  0.4790
 5439SOL    HW122154   3.978   4.851   3.842 -0.0008 -1.1576  0.1192
 5439SOL    HW222155   4.098   4.792   3.912 -0.3129 -3.4180 -1.1428
 5440SOL     OW22156   4.476   7.018   7.983 -0.3874 -0.0898  0.4835
 5440SOL    HW122157   4.458   7.112   7.987 -0.3268 -0.1097  1.6698
 5440SOL    HW222158   4.532   7.007   7.906  0.0132  0.9150  0.6165
 5441SOL     OW22159   1.990  10.181   9.171 -0.5735 -0.0318  0.3503
 5441SOL    HW122160   1.904  10.216   9.193 -1.3443 -2.1264  0.8950
 5441SOL    HW222161   2.051  10.237   9.218 -1.6372  1.3349  0.1686
 5442SOL     OW22162   8.973  12.138   0.741 -0.0547  0.2097  0.1221
 5442SOL    HW122163   8.984  12.047   0.766  0.2327  0.4839  1.0433
 5442SOL    HW222164   9.061  12.166   0.714 -0.5683 -0.4028 -2.4295
 5443SOL     OW22165   2.810   3.447  10.398  0.0182  0.0642 -0.1141
 5443SOL    HW122166   2.835   3.376  10.339 -0.6182 -0.5373  0.3195
 5443SOL    HW222167   2.728   3.417  10.438 -0.8602  1.5067 -0.7222
 5444SOL     OW22168   3.167  10.125   1.077  0.0232  0.1833 -0.6232
 5444SOL    HW122169   3.241  10.179   1.105 -0.6379  1.3873 -1.1268
 5444SOL    HW222170   3.206  10.041   1.055  0.9102 -0.0173  1.4619
 5445SOL     OW22171   1.958  10.018   0.958 -0.2437  0.0180  0.3127
 5445SOL    HW122172   1.907  10.086   0.915  1.1840 -0.7779 -2.9955
 5445SOL    HW222173   2.038  10.061   0.986  0.9651 -0.2761 -2.4004
 5446SOL     OW22174   8.304   4.491   3.678 -1.1217 -0.0970 -0.2396
 5446SOL    HW122175   8.313   4.487   3.583 -0.0718 -0.1617 -0.1444
 5446SOL    HW222176   8.393   4.478   3.712 -1.5987 -0.8994  0.7733
 5447SOL     OW22177   1.767   7.260   3.833 -0.3760  0.3513 -0.6220
 5447SOL    HW122178   1.705   7.289   3.767 -1.0986 -0.2789 -0.2397
 5447SOL    HW222179   1.767   7.164   3.825 -3.8444 -0.2232  3.1298
 5448SOL     OW22180  11.142   7.391   4.223  0.1448  0.4105 -0.3793
 5448SOL    HW122181  11.238   7.399   4.225  0.2386 -0.7251  1.4726
 5448SOL    HW222182  11.126   7.302   4.194 -0.4834  1.3221 -3.1704
 5449SOL     OW22183  11.431   0.264   0.477 -0.1089 -0.3336 -0.2599
 5449SOL    HW122184  11.419   0.207   0.400 -0.8146 -0.8302  0.2122
 5449SOL    HW222185  11.522   0.292   0.471  0.2422 -1.4725 -0.5443
 5450SOL     OW22186   0.734   4.525   6.191 -0.2910  0.1355 -0.4772
 5450SOL    HW122187   0.647   4.532   6.152 -0.1954 -1.0216 -0.9368
 5450SOL    HW222188   0.744   4.432   6.212  0.3079  0.4649  0.8263
 5451SOL     OW22189   0.820   0.392   3.969  0.7087 -0.0020  0.1108
 5451SOL    HW122190   0.818   0.444   3.889 -1.4099 -0.8419 -0.4528
 5451SOL    HW222191   0.747   0.426   4.022  2.4956  1.0273  2.0641
 5452SOL     OW22192   6.363   4.724   7.920  0.0770 -0.2634  0.0842
 5452SOL    HW122193   6.304   4.797   7.936  0.0570 -0.5282  1.2774
 5452SOL    HW222194   6.351   4.704   7.827 -0.0295  1.1341 -0.2171
 5453SOL     OW22195  12.119   2.108   1.470  1.2727 -0.2354  0.7619
 5453SOL    HW122196  12.144   2.159   1.546  0.4768  0.4946  0.5503
 5453SOL    HW222197  12.116   2.018   1.502  0.7494  0.0832  1.6469
 5454SOL     OW22198  10.938  10.063  10.414  0.3897 -0.3918  0.2711
 5454SOL    HW122199  11.001  10.115  10.365  0.2930 -0.1325  0.4223
 5454SOL    HW222200  10.949  10.090  10.505  0.0533 -0.3332  0.2979
 5455SOL     OW22201  10.422   9.318   8.912  0.1592  0.1151 -0.2180
 5455SOL    HW122202  10.453   9.354   8.995  0.9160 -1.2504  0.1164
 5455SOL    HW222203  10.498   9.320   8.854 -0.2370  0.6055 -0.7352
 5456SOL     OW22204  10.681  11.812   4.061 -0.1897  0.5131 -0.1754
 5456SOL    HW122205  10.687  11.902   4.094 -0.1501  1.0099 -1.5063
 5456SOL    HW222206  10.599  11.779   4.098 -1.5034  1.9594 -1.6595
 5457SOL     OW22207   6.911  10.775  10.500  0.0472 -0.4948 -0.4455
 5457SOL    HW122208   6.969  10.821  10.561 -0.0105 -0.4236 -0.4441
 5457SOL    HW222209   6.871  10.845  10.448 -1.5039 -0.3873  0.8214
 5458SOL     OW22210  11.194   2.336  10.288  0.0209  0.3542 -0.0026
 5458SOL    HW122211  11.180   2.257  10.237 -0.1899  0.0187  0.5712
 5458SOL    HW222212  11.237   2.397  10.227 -0.2642 -0.0238 -0.5868
 5459SOL     OW22213  11.914   7.209   0.160 -0.3126  0.4035  0.0336
 5459SOL    HW122214  11.998   7.255   0.160 -0.2657  0.3420 -0.9479
 5459SOL    HW222215  11.936   7.120   0.187 -0.3602  0.8603  1.6488
 5460SOL     OW22216   5.673   7.105   4.563  0.0989 -0.1536  0.1939
 5460SOL    HW122217   5.612   7.174   4.592  2.2168  0.8850  2.5257
 5460SOL    HW222218   5.621   7.025   4.566 -1.2078  0.6784  2.0682
 5461SOL     OW22219   0.888   0.152   0.060 -0.3427  0.7524  0.0103
 5461SOL    HW122220   0.842   0.148   0.144 -2.3432 -0.5768 -1.0819
 5461SOL    HW222221   0.895   0.061   0.032  0.6995  1.1434 -1.0749
 5462SOL     OW22222   6.189   3.664   9.261 -0.2040  0.5826  0.1799
 5462SOL    HW122223   6.116   3.717   9.294 -0.7954  0.1250 -0.3770
 5462SOL    HW222224   6.156   3.625   9.180 -0.5159 -2.2790  1.5835
 5463SOL     OW22225  12.016   0.143   4.575  0.6033  0.1241 -0.7679
 5463SOL    HW122226  12.037   0.105   4.490  1.0053 -0.3833 -0.4442
 5463SOL    HW222227  12.067   0.092   4.638  2.6553  2.3882 -0.4670
 5464SOL     OW22228   5.659  10.992   6.078  0.2871 -0.1746 -0.4294
 5464SOL    HW122229   5.623  10.963   6.162  1.3215 -1.2024 -0.3128
 5464SOL    HW222230   5.753  11.005   6.095  0.4802 -0.2167 -1.3808
 5465SOL     OW22231  12.272   8.728   8.772  0.1380  0.0717 -0.1269
 5465SOL    HW122232  12.303   8.816   8.794 -0.2004 -0.1912  1.5612
 5465SOL    HW222233  12.351   8.674   8.770  0.3298  0.3685 -1.0274
 5466SOL     OW22234   1.628   5.265   8.707 -0.4731 -0.2097 -0.3073
 5466SOL    HW122235   1.607   5.172   8.717  0.0096 -0.2817  0.1261
 5466SOL    HW222236   1.629   5.280   8.613 -2.2517 -0.2354 -0.3585
 5467SOL     OW22237   7.585   5.596   3.787 -0.9047 -0.2098 -0.2762
 5467SOL    HW122238   7.559   5.525   3.728  0.0818 -1.8056  1.1502
 5467SOL    HW222239   7.677   5.612   3.767 -1.0419  0.5135 -0.3905
 5468SOL     OW22240   8.246  12.223   6.226  0.3945 -0.0156  0.2019
 5468SOL    HW122241   8.289  12.161   6.168  3.6911  0.4861  1.8794
 5468SOL    HW222242   8.219  12.295   6.168 -0.9092 -1.6377 -1.3213
 5469SOL     OW22243   7.255   1.618   9.509 -0.4121 -0.8068 -0.2925
 5469SOL    HW122244   7.228   1.659   9.427 -0.1199 -1.6578 -0.8284
 5469SOL    HW222245   7.324   1.676   9.543 -1.1357  0.0125 -0.1962
 5470SOL     OW22246  12.097   1.675   0.878 -0.8534 -0.6963  0.0034
 5470SOL    HW122247  12.102   1.744   0.944 -3.9517  0.6924 -0.9970
 5470SOL    HW222248  12.144   1.711   0.802 -3.8937  1.3307 -1.1302
 5471SOL     OW22249   5.011   7.847   9.580 -0.4515  0.2638  0.3728
 5471SOL    HW122250   4.993   7.791   9.505 -1.1581  0.3672  0.4605
 5471SOL    HW222251   5.082   7.905   9.551 -0.3712 -0.0381 -0.0343
 5472SOL     OW22252   8.766   6.466   0.348 -0.1239 -0.3509 -0.3983
 5472SOL    HW122253   8.673   6.454   0.330 -0.4777  0.5308  0.7351
 5472SOL    HW222254   8.785   6.555   0.320 -0.1040  0.1635  1.1737
 5473SOL     OW22255   6.762   4.224   9.724 -0.6534 -1.0899 -0.0274
 5473SOL    HW122256   6.730   4.313   9.710 -0.2873 -1.0963 -0.9277
 5473SOL    HW222257   6.841   4.235   9.778 -0.9324 -0.9188  0.3491
 5474SOL     OW22258   6.053   4.405  10.356  0.1753  0.5116  0.0059
 5474SOL    HW122259   5.997   4.385  10.431 -0.4944  0.8291 -0.3972
 5474SOL    HW222260   5.999   4.462  10.300  0.8388  0.6791 -0.4780
 5475SOL     OW22261   6.217   4.010   9.394  0.3569  0.7359  0.4018
 5475SOL    HW122262   6.273   3.973   9.462  0.3107 -1.5039 -0.6845
 5475SOL    HW222263   6.275   4.064   9.341  1.1028 -0.1279  0.3295
 5476SOL     OW22264   5.556   9.731   8.502  0.1853 -0.3103 -0.7336
 5476SOL    HW122265   5.548   9.697   8.413 -0.2638 -1.9173 -0.1125
 5476SOL    HW222266   5.471   9.716   8.542  0.8265 -1.0487  0.4338
 5477SOL     OW22267  11.198   9.662   1.758 -0.3607 -0.1204  0.3355
 5477SOL    HW122268  11.245   9.590   1.800 -0.2929 -0.5923 -0.5428
 5477SOL    HW222269  11.109   9.656   1.793 -0.2635 -0.4067  0.5391
 5478SOL     OW22270   8.283  11.496  10.960  0.3249  0.3253 -0.4809
 5478SOL    HW122271   8.366  11.497  11.007  0.6472 -0.1232 -1.0268
 5478SOL    HW222272   8.224  11.446  11.016  1.4587 -2.6353 -1.7182
 5479SOL     OW22273   2.047   4.741   6.896 -0.4388 -0.6152  0.1643
 5479SOL    HW122274   2.135   4.741   6.934  0.3581 -0.9126 -1.6049
 5479SOL    HW222275   2.002   4.668   6.939  0.7526 -1.5511 -0.1370
 5480SOL     OW22276   1.037   3.124   6.119  0.1133  0.2046  0.3019
 5480SOL    HW122277   1.014   3.106   6.210 -0.7522  0.2454  0.1028
 5480SOL    HW222278   1.079   3.210   6.121  0.8702 -0.1703  0.7678
 5481SOL     OW22279   1.230   8.717   2.456  0.1675 -0.0534  0.5361
 5481SOL    HW122280   1.294   8.756   2.396 -0.2465 -0.4589 -0.1731
 5481SOL    HW222281   1.275   8.717   2.541  0.8986  0.1869  0.1627
 5482SOL     OW22282   0.088   0.091  11.493 -0.2603 -0.4146 -0.0105
 5482SOL    HW122283   0.019   0.113  11.555  0.0218  0.3756  0.0348
 5482SOL    HW222284   0.060   0.008  11.454 -0.7811 -0.5655  0.6603
 5483SOL     OW22285   5.259   2.537   0.238 -0.2357  0.1217 -0.1313
 5483SOL    HW122286   5.290   2.626   0.258 -0.9181  0.2121  0.5872
 5483SOL    HW222287   5.268   2.530   0.143  0.2814  0.7842 -0.1424
 5484SOL     OW22288   1.231  11.439   6.499  0.6707  0.5408  0.3064
 5484SOL    HW122289   1.163  11.463   6.436  0.2437  0.5801  0.7759
 5484SOL    HW222290   1.245  11.345   6.484 -0.2365  0.2964  0.9091
 5485SOL     OW22291  10.318  10.269   5.629 -0.0363 -0.0707  0.0778
 5485SOL    HW122292  10.321  10.352   5.582 -1.4311  0.2230  0.4516
 5485SOL    HW222293  10.400  10.266   5.678  0.3494  0.7467 -0.4858
 5486SOL     OW22294   9.510   7.924  11.823  0.3836  0.2915  0.5715
 5486SOL    HW122295   9.415   7.938  11.828  0.1510 -1.2048  0.7985
 5486SOL    HW222296   9.547   7.994  11.877 -0.6240  0.4972  1.0279
 5487SOL     OW22297   5.410   3.469   9.897  0.0591  0.6015  0.0160
 5487SOL    HW122298   5.488   3.470   9.842 -0.4553  1.0845 -0.7190
 5487SOL    HW222299   5.345   3.420   9.847 -0.0097 -0.1180  0.7848
 5488SOL     OW22300   9.257   7.438  11.790  0.2766 -0.0587  0.7560
 5488SOL    HW122301   9.325   7.474  11.732 -0.1131  0.3178  0.5287
 5488SOL    HW222302   9.235   7.510  11.849 -1.8209  0.7570 -0.8697
 5489SOL     OW22303   8.834   5.458   9.592  0.5833  0.3836  0.3791
 5489SOL    HW122304   8.861   5.526   9.530  1.0711  0.7869  1.0234
 5489SOL    HW222305   8.902   5.457   9.659 -0.8247  1.2620  1.9157
 5490SOL     OW22306   9.392   0.071   5.754 -0.0251 -0.0987  0.8169
 5490SOL    HW122307   9.389   0.131   5.680  0.0281  0.6602  1.4146
 5490SOL    HW222308   9.373  -0.015   5.717  1.3831  0.0360 -0.3129
 5491SOL     OW22309   0.204   4.043  10.983  0.5968  0.1315 -0.4122
 5491SOL    HW122310   0.131   4.010  11.035  2.4549 -0.8126  1.7384
 5491SOL    HW222311   0.221   4.130  11.018  0.0649  0.6818 -1.4545
 5492SOL     OW22312   4.778   5.224  11.370 -0.2536  0.2510 -0.4365
 5492SOL    HW122313   4.774   5.230  11.275 -0.2778  1.5971 -0.3705
 5492SOL    HW222314   4.808   5.310  11.398  1.4353 -0.6463  0.6852
 5493SOL     OW22315   4.444   6.079   2.477  0.0046  0.0967  0.4356
 5493SOL    HW122316   4.515   6.132   2.515  0.1015 -0.9866  1.8587
 5493SOL    HW222317   4.489   6.005   2.436 -0.1294  1.0601 -1.5693
 5494SOL     OW22318   6.896   2.353  10.161 -0.1523  0.7438 -0.1054
 5494SOL    HW122319   6.937   2.436  10.185 -1.8787  1.3994  0.7456
 5494SOL    HW222320   6.968   2.290  10.160  1.0825  2.0965 -0.0787
 5495SOL     OW22321  10.020   0.832   8.583 -0.1172  0.5331 -0.5961
 5495SOL    HW122322   9.978   0.915   8.606 -0.8284  0.6280 -2.1321
 5495SOL    HW222323   9.947   0.772   8.567  0.2797  0.5147 -2.6476
 5496SOL     OW22324   1.841   0.998   5.721  0.4420  0.5034 -0.6190
 5496SOL    HW122325   1.786   1.044   5.658 -0.6009  0.0420 -0.0692
 5496SOL    HW222326   1.911   0.959   5.668  0.6817  1.7274 -1.2287
 5497SOL     OW22327  11.867  10.107  11.361  0.6192 -0.4946 -0.5002
 5497SOL    HW122328  11.827  10.020  11.357  0.6391 -0.5181 -0.2157
 5497SOL    HW222329  11.796  10.165  11.392  1.0420 -0.6972  0.9224
 5498SOL     OW22330   2.266   8.742   8.553  0.2931  0.1164  0.0537
 5498SOL    HW122331   2.347   8.703   8.583  1.2811  2.3060  0.4338
 5498SOL    HW222332   2.267   8.831   8.589 -1.9071  0.4577 -0.5648
 5499SOL     OW22333   2.126   4.920   9.629 -0.4805 -0.2379  0.0303
 5499SOL    HW122334   2.150   4.878   9.712  1.1899  0.4626 -0.0769
 5499SOL    HW222335   2.178   4.876   9.563  0.5002  1.2417 -0.2272
 5500SOL     OW22336   7.559   0.327   0.846 -0.0133 -0.2780  0.5559
 5500SOL    HW122337   7.620   0.393   0.813  1.8922 -2.0090  0.3686
 5500SOL    HW222338   7.480   0.338   0.794  0.5557  1.3081 -0.0217
 5501SOL     OW22339   3.350  11.825  10.939  0.1841  0.5614 -0.0455
 5501SOL    HW122340   3.349  11.818  11.034  0.2304  0.5716 -0.0441
 5501SOL    HW222341   3.417  11.763  10.911 -1.2323 -0.9498 -0.2073
 5502SOL     OW22342   8.547   8.938   7.444  0.2927 -0.4093 -0.0850
 5502SOL    HW122343   8.490   9.015   7.438  1.0614  0.0782 -1.4120
 5502SOL    HW222344   8.618   8.955   7.382  2.5125 -0.5054  2.2479
 5503SOL     OW22345   2.177   8.416   5.017  0.1756  0.4384  0.3601
 5503SOL    HW122346   2.120   8.340   5.033  0.8407 -0.1956 -0.1959
 5503SOL    HW222347   2.194   8.414   4.923  1.5653  0.2802  0.5977
 5504SOL     OW22348   5.453   9.570   4.834  0.4137  0.4745  0.1488
 5504SOL    HW122349   5.545   9.572   4.808  0.5453 -0.1940  0.5471
 5504SOL    HW222350   5.408   9.623   4.768  1.1344  1.1262  0.1639
 5505SOL     OW22351   4.861   6.091   7.164 -0.4617  0.2073  0.5559
 5505SOL    HW122352   4.780   6.134   7.193  0.2219  2.1046 -0.1829
 5505SOL    HW222353   4.837   5.999   7.152 -2.4961  0.7289  0.3496
 5506SOL     OW22354   3.128   2.863   3.562 -0.1226 -0.2621 -0.1890
 5506SOL    HW122355   3.126   2.769   3.584  0.8268 -0.0731  0.7771
 5506SOL    HW222356   3.166   2.866   3.474 -1.4613 -0.8620 -0.8099
 5507SOL     OW22357   8.021  10.589   7.774 -0.0149 -0.0553 -0.3110
 5507SOL    HW122358   8.024  10.575   7.679  0.3979  0.2604 -0.3461
 5507SOL    HW222359   8.061  10.674   7.788 -0.8386  0.2799  0.0789
 5508SOL     OW22360   7.050   7.771   0.884 -0.0399 -0.0644 -0.0357
 5508SOL    HW122361   7.091   7.685   0.876  0.8017  0.1450  1.6763
 5508SOL    HW222362   6.971   7.765   0.830  0.5394 -1.5514 -0.7684
 5509SOL     OW22363   8.259  12.087   0.793 -0.5453  0.1971  0.4515
 5509SOL    HW122364   8.300  12.035   0.723 -0.5151 -0.2185  0.7735
 5509SOL    HW222365   8.167  12.059   0.792 -0.2176 -1.0078  1.6395
 5510SOL     OW22366   9.024   1.573   0.085  0.1616 -0.0450 -0.2129
 5510SOL    HW122367   8.992   1.526   0.161 -2.8189  3.0342  0.6531
 5510SOL    HW222368   8.987   1.661   0.093  1.3754  1.0461 -4.1864
 5511SOL     OW22369   9.519   2.108  10.814 -0.0312 -0.3913 -0.2172
 5511SOL    HW122370   9.606   2.146  10.803 -0.7293  1.7787  1.1000
 5511SOL    HW222371   9.459   2.183  10.808 -1.8995 -1.8965 -1.7072
 5512SOL     OW22372   6.277   6.216   4.594  0.6616 -0.6630 -0.5316
 5512SOL    HW122373   6.184   6.196   4.582  0.1432  0.1399  1.7662
 5512SOL    HW222374   6.287   6.305   4.559 -0.0371  0.2396  1.4190
 5513SOL     OW22375   3.159   0.558   0.021  0.3623 -0.7778  0.2944
 5513SOL    HW122376   3.255   0.552   0.020  0.6044  1.5091 -2.9107
 5513SOL    HW222377   3.129   0.467   0.015  2.3027 -1.4889  0.6599
 5514SOL     OW22378   7.703  10.296   1.079  0.5188  0.1699 -0.1208
 5514SOL    HW122379   7.698  10.321   1.171 -2.5121  3.3491 -0.9783
 5514SOL    HW222380   7.679  10.203   1.078  0.1470  0.1921  2.2381
 5515SOL     OW22381   5.391   7.030  10.906 -0.5373  0.0171  0.6683
 5515SOL    HW122382   5.303   7.024  10.869 -0.2554  0.4370 -0.1074
 5515SOL    HW222383   5.418   7.121  10.890  0.6018 -0.4826 -0.4702
 5516SOL     OW22384   5.279   8.282   3.634  0.8042  0.4646 -0.5423
 5516SOL    HW122385   5.320   8.321   3.557  2.4976 -0.9447 -0.4196
 5516SOL    HW222386   5.338   8.301   3.706  0.1775  0.1814  0.0644
 5517SOL     OW22387   1.489   6.055  11.034  0.6482 -0.0359 -0.4919
 5517SOL    HW122388   1.464   6.101  11.114 -1.8011  0.1508 -1.2959
 5517SOL    HW222389   1.496   5.963  11.061 -1.5796 -0.1897 -0.2943
 5518SOL     OW22390   6.618   4.804  11.264  0.3739 -0.2391 -0.2672
 5518SOL    HW122391   6.578   4.848  11.340  0.3389 -0.2745 -0.2650
 5518SOL    HW222392   6.675   4.738  11.303  2.7839  1.7578 -0.1462
 5519SOL     OW22393   4.111   0.768   3.324 -0.0061 -0.6207  0.1307
 5519SOL    HW122394   4.150   0.840   3.374 -0.0204 -1.1119  0.8682
 5519SOL    HW222395   4.161   0.691   3.351  0.1417 -0.8610 -0.8062
 5520SOL     OW22396  10.573   4.038  11.097  0.1830  0.1684  0.2911
 5520SOL    HW122397  10.625   3.970  11.141 -0.0902  0.7464  1.5523
 5520SOL    HW222398  10.564   4.006  11.007  1.5172 -0.6318  0.4007
 5521SOL     OW22399   4.456   9.389   5.748  0.0200  0.4297 -0.3119
 5521SOL    HW122400   4.551   9.386   5.743  0.0735  1.0416  0.2161
 5521SOL    HW222401   4.429   9.444   5.675  0.1685  1.3781  0.3330
 5522SOL     OW22402   1.601   7.048   4.288  0.4742 -0.0969  0.0156
 5522SOL    HW122403   1.535   7.021   4.352  0.5383 -0.1552  0.0577
 5522SOL    HW222404   1.669   6.981   4.294  1.7435  1.2807  1.7616
 5523SOL     OW22405   9.094  10.453   0.936  0.4985  0.0861 -0.4490
 5523SOL    HW122406   9.184  10.458   0.903  0.9315 -1.4013  0.4080
 5523SOL    HW222407   9.040  10.481   0.863  1.5452 -0.9724 -1.6807
 5524SOL     OW22408  12.068   9.711   7.294 -0.2894 -0.1875  0.6767
 5524SOL    HW122409  12.142   9.694   7.352 -0.1543 -1.1790  0.2383
 5524SOL    HW222410  11.993   9.718   7.353  0.0617  0.2808  1.0802
 5525SOL     OW22411   4.203   0.260  11.773 -0.2690 -0.3520 -0.6372
 5525SOL    HW122412   4.280   0.289  11.823 -0.1543  0.8104 -1.4610
 5525SOL    HW222413   4.232   0.181  11.729  0.8636  0.6940 -1.8630
 5526SOL     OW22414  11.433   9.452   1.256  0.5853  0.3701  0.3189
 5526SOL    HW122415  11.393   9.520   1.309  1.2869  1.3333 -0.3564
 5526SOL    HW222416  11.492   9.498   1.197  0.8667 -0.7951 -0.3586
 5527SOL     OW22417   8.181   9.503   8.042  0.2288 -0.6202  0.0535
 5527SOL    HW122418   8.098   9.523   8.085  0.7664  0.0427  0.7971
 5527SOL    HW222419   8.156   9.470   7.956 -0.7547  1.6291 -0.5766
 5528SOL     OW22420   5.053  11.685   9.717 -0.2681 -0.0247  0.3499
 5528SOL    HW122421   5.054  11.769   9.763 -1.4749  1.0589 -1.4632
 5528SOL    HW222422   5.142  11.651   9.727  0.0388  1.0922  1.7644
 5529SOL     OW22423   5.552   5.287   3.499  0.2179  0.3704  0.1048
 5529SOL    HW122424   5.464   5.258   3.472 -0.1739 -0.7779  2.3652
 5529SOL    HW222425   5.608   5.212   3.479  0.3187  0.3601  0.4264
 5530SOL     OW22426   9.668  11.356   8.737 -0.3238  0.3371 -0.3309
 5530SOL    HW122427   9.750  11.308   8.724 -0.3168  0.5767 -1.2266
 5530SOL    HW222428   9.695  11.445   8.759 -0.3409  0.4193 -0.6376
 5531SOL     OW22429   6.844   8.156   0.761  0.3081  0.2640 -0.2726
 5531SOL    HW122430   6.908   8.087   0.741 -0.3607 -0.7657  1.0219
 5531SOL    HW222431   6.808   8.132   0.846  0.6007  2.6487  0.5923
 5532SOL     OW22432   8.938  11.232   7.161 -0.5583 -0.4128 -0.1161
 5532SOL    HW122433   8.877  11.263   7.229  1.0422  1.4106  0.5963
 5532SOL    HW222434   8.885  11.227   7.082 -1.7403  0.8340  0.5385
 5533SOL     OW22435   3.846   5.357   8.494 -0.0697 -0.3781  0.2366
 5533SOL    HW122436   3.908   5.333   8.562 -0.1280 -1.5474 -0.1016
 5533SOL    HW222437   3.760   5.339   8.533 -0.1736  0.3053  0.3487
 5534SOL     OW22438   2.089   6.847   3.849 -0.2663 -0.1174 -0.1738
 5534SOL    HW122439   2.085   6.943   3.842  0.5201 -0.0469  0.2327
 5534SOL    HW222440   2.030   6.825   3.921  0.7565  0.2139  0.7907
 5535SOL     OW22441   1.179  11.748  11.821 -0.4407  0.4230  0.5980
 5535SOL    HW122442   1.206  11.684  11.888  2.5098  0.7543 -0.1346
 5535SOL    HW222443   1.257  11.760  11.767 -1.5543  3.0778 -0.5879
 5536SOL     OW22444   4.966   8.032   3.322 -0.5900 -0.0175  0.0835
 5536SOL    HW122445   4.879   8.070   3.325  0.1372  1.7498  0.1242
 5536SOL    HW222446   5.003   8.063   3.239 -0.2914 -1.5014 -0.3830
 5537SOL     OW22447   7.265   8.784  11.419  0.1287 -1.1349  0.3051
 5537SOL    HW122448   7.242   8.775  11.327 -1.6644  1.5850  0.3638
 5537SOL    HW222449   7.276   8.878  11.432  5.1201 -1.6707  1.9249
 5538SOL     OW22450   4.714   5.645   9.355  0.2253  0.2089 -0.0311
 5538SOL    HW122451   4.723   5.624   9.262  2.0130 -3.2794  0.7793
 5538SOL    HW222452   4.628   5.609   9.378  0.1568  0.2906 -0.1551
 5539SOL     OW22453   6.424   0.370   8.950  0.1195 -0.3101  0.3545
 5539SOL    HW122454   6.430   0.275   8.945 -0.4175 -0.5093  2.4620
 5539SOL    HW222455   6.511   0.401   8.925  0.6524 -1.4345  0.7307
 5540SOL     OW22456   6.042  12.136   6.848 -0.1369 -0.1555 -0.1294
 5540SOL    HW122457   6.091  12.183   6.915  0.8217 -0.3072 -0.7111
 5540SOL    HW222458   5.954  12.174   6.851  0.4449  1.2366 -0.1668
 5541SOL     OW22459   0.458   8.578   7.260 -0.7364 -0.0854 -0.3073
 5541SOL    HW122460   0.494   8.544   7.178 -0.7523 -1.2200  0.1451
 5541SOL    HW222461   0.512   8.538   7.329 -0.2380  1.4298  0.2343
 5542SOL     OW22462  11.269   6.196   0.494  0.0069 -0.3181 -0.3568
 5542SOL    HW122463  11.298   6.125   0.553  1.5627 -0.5623 -1.3512
 5542SOL    HW222464  11.347   6.217   0.443 -0.3061  2.3718  0.1214
 5543SOL     OW22465  10.662   6.447   6.672 -0.3520 -0.1209  0.6634
 5543SOL    HW122466  10.732   6.504   6.640  0.3277 -1.1734  0.2124
 5543SOL    HW222467  10.664   6.372   6.614  1.0628 -2.2308  3.2007
 5544SOL     OW22468   5.060   3.602   6.243 -0.4849  0.0318 -0.3766
 5544SOL    HW122469   5.135   3.588   6.186 -1.2665  1.7775 -1.9399
 5544SOL    HW222470   5.061   3.696   6.262 -1.5214 -0.1419  0.6926
 5545SOL     OW22471   6.410  12.023   1.963 -0.3111  0.1082  0.3970
 5545SOL    HW122472   6.460  12.100   1.936 -1.5839  0.4618 -1.1458
 5545SOL    HW222473   6.320  12.045   1.939 -0.8698 -1.3841  1.0632
 5546SOL     OW22474   7.558   6.066   5.369 -0.1770  0.2036 -0.6815
 5546SOL    HW122475   7.639   6.110   5.396 -0.5627 -0.0627  1.0074
 5546SOL    HW222476   7.584   5.975   5.354 -0.2453  0.0100  0.3388
 5547SOL     OW22477   6.655   2.659   9.628  0.5281 -0.2786  0.2003
 5547SOL    HW122478   6.674   2.570   9.601  0.0612 -0.2665 -0.1791
 5547SOL    HW222479   6.693   2.714   9.560 -2.7198 -0.3077 -1.8071
 5548SOL     OW22480   1.708   5.499   4.875  0.5679 -0.3916  0.3274
 5548SOL    HW122481   1.780   5.529   4.930 -0.9523  1.1307  1.6506
 5548SOL    HW222482   1.693   5.572   4.814 -0.6338 -0.1095  0.9285
 5549SOL     OW22483   9.107  11.919   7.010  0.3305 -0.1234  0.6278
 5549SOL    HW122484   9.146  11.836   6.982  0.5769  0.6294 -1.4888
 5549SOL    HW222485   9.146  11.984   6.952 -0.6833  1.3248  1.4980
 5550SOL     OW22486   7.110   2.135  12.246 -0.1319 -0.0739  1.1286
 5550SOL    HW122487   7.032   2.147  12.300  0.3648 -0.9629  2.0878
 5550SOL    HW222488   7.116   2.215  12.193 -2.3143 -0.4733  0.2057
 5551SOL     OW22489   3.349  10.242  11.914 -0.1303 -0.2046 -0.7907
 5551SOL    HW122490   3.273  10.230  11.971 -0.1168  1.3411 -0.4200
 5551SOL    HW222491   3.331  10.186  11.838 -1.8700  0.4944 -0.9258
 5552SOL     OW22492  11.045   2.814   9.135  0.6267  0.1127 -0.0343
 5552SOL    HW122493  10.992   2.735   9.138  0.2396  0.4009  1.1550
 5552SOL    HW222494  11.095   2.807   9.054  1.7786 -2.0985  0.7983
 5553SOL     OW22495   9.011   7.247   7.499  0.0251  0.1165  0.7011
 5553SOL    HW122496   9.005   7.190   7.576 -1.2547  0.1515  0.6484
 5553SOL    HW222497   8.984   7.191   7.426 -0.0132  0.4403  0.4645
 5554SOL     OW22498   1.895   3.427   2.632 -0.1241 -0.8222  0.4870
 5554SOL    HW122499   1.921   3.426   2.724  0.5645 -1.2285  0.2936
 5554SOL    HW222500   1.824   3.492   2.628  1.2203  0.7537  0.9317
 5555SOL     OW22501   5.227   4.396   2.204 -0.6258 -0.5838  0.4231
 5555SOL    HW122502   5.197   4.463   2.143 -0.6410 -1.4051 -0.4773
 5555SOL    HW222503   5.201   4.429   2.290 -1.4011  0.1514 -0.0864
 5556SOL     OW22504   3.313   0.813   2.666 -0.0223 -0.6026 -0.5561
 5556SOL    HW122505   3.368   0.880   2.626  1.9829 -1.6530  0.2934
 5556SOL    HW222506   3.349   0.802   2.754 -2.0890 -0.8391  0.3339
 5557SOL     OW22507   7.637   9.713   6.471  0.4462  0.3389  1.0315
 5557SOL    HW122508   7.642   9.630   6.423  1.3894  1.8760 -1.7024
 5557SOL    HW222509   7.681   9.695   6.554 -1.8703 -2.6289  1.8028
 5558SOL     OW22510   7.066   3.112   5.036 -0.5221 -0.5839  0.1078
 5558SOL    HW122511   7.056   3.206   5.047  1.1649 -0.4221  0.5264
 5558SOL    HW222512   7.104   3.082   5.119 -1.5462 -1.7294  0.1938
 5559SOL     OW22513   5.557   4.619   6.087 -0.0637 -0.5213 -0.1496
 5559SOL    HW122514   5.558   4.714   6.097 -1.6855 -0.4242 -0.6169
 5559SOL    HW222515   5.583   4.585   6.172 -1.0909  0.3386  0.5204
 5560SOL     OW22516   0.837   6.588   8.594 -0.1062  0.5986 -0.3371
 5560SOL    HW122517   0.921   6.543   8.586  0.2421  0.8375  1.5350
 5560SOL    HW222518   0.837   6.624   8.683 -1.4152  2.1839 -0.9132
 5561SOL     OW22519   9.369   7.352   4.893  0.1889  0.6762 -0.4517
 5561SOL    HW122520   9.393   7.444   4.907  1.3048  0.5216 -1.2462
 5561SOL    HW222521   9.452   7.307   4.879 -0.3156 -0.5414  0.2919
 5562SOL     OW22522  11.048   1.935   2.625  0.6484 -0.3850  0.3977
 5562SOL    HW122523  11.040   1.873   2.552 -0.3906 -0.3837  0.4930
 5562SOL    HW222524  10.957   1.955   2.649  0.9047  2.1157 -0.4028
 5563SOL     OW22525   0.883   6.597   2.895 -0.2448 -0.1700  0.2771
 5563SOL    HW122526   0.864   6.652   2.819 -1.0427  1.3153  1.4852
 5563SOL    HW222527   0.978   6.594   2.899 -0.1393 -1.8161 -1.8050
 5564SOL     OW22528  10.443  12.050   4.980  0.3278 -0.3289  0.2455
 5564SOL    HW122529  10.517  12.109   4.964  0.0169  0.6803  2.1705
 5564SOL    HW222530  10.374  12.108   5.014 -0.4905 -1.5921  0.8019
 5565SOL     OW22531   7.078   2.990   7.810 -0.7897 -0.1968 -0.2538
 5565SOL    HW122532   7.029   2.909   7.799  0.8232 -1.2994  0.4549
 5565SOL    HW222533   7.118   3.006   7.725  0.6585 -1.3755  0.1590
 5566SOL     OW22534  11.202   9.339   5.274 -0.1880  0.1644 -0.3603
 5566SOL    HW122535  11.218   9.357   5.181  1.4102  1.7731  0.1931
 5566SOL    HW222536  11.134   9.271   5.273 -0.6785  0.6061 -2.6853
 5567SOL     OW22537   5.917   1.813  11.081  0.1036 -1.1925 -0.3276
 5567SOL    HW122538   5.877   1.893  11.116  0.6958 -1.0170 -0.0305
 5567SOL    HW222539   5.916   1.752  11.155  2.2923 -0.4864  0.3829
 5568SOL     OW22540   0.547  10.099  10.056  0.6027  0.3347  0.2449
 5568SOL    HW122541   0.520  10.020  10.102  1.3549 -0.2902 -0.3726
 5568SOL    HW222542   0.477  10.162  10.074  0.7253  0.0191  1.9855
 5569SOL     OW22543   4.707  10.709   4.508 -0.0547 -0.0322  0.0559
 5569SOL    HW122544   4.653  10.654   4.452 -0.7492  1.3086 -0.6445
 5569SOL    HW222545   4.696  10.672   4.596 -0.5071 -0.9778 -0.3836
 5570SOL     OW22546   5.123  11.420   3.746  0.2801 -0.0653  0.7398
 5570SOL    HW122547   5.049  11.376   3.788 -0.2458 -0.7346 -0.8147
 5570SOL    HW222548   5.138  11.497   3.800 -1.9354  0.4120  0.7919
 5571SOL     OW22549  12.001   8.482   2.608  0.2853 -0.4900  0.3256
 5571SOL    HW122550  12.011   8.533   2.689 -3.5969  0.5946  0.3233
 5571SOL    HW222551  12.011   8.547   2.538  0.5410 -0.8153  0.0556
 5572SOL     OW22552   0.172   7.416  10.482 -0.3800  0.1203  0.3958
 5572SOL    HW122553   0.183   7.365  10.562 -0.7997  0.6514  0.7954
 5572SOL    HW222554   0.169   7.507  10.512  0.0140  0.3609 -0.2762
 5573SOL     OW22555  10.100   8.962   2.058  0.4990  0.1666  0.2447
 5573SOL    HW122556  10.040   8.920   1.996  1.0825 -0.5081  0.1128
 5573SOL    HW222557  10.138   8.889   2.108  0.8000  0.6215  0.6948
 5574SOL     OW22558   9.085   1.288   6.147 -0.3798  0.0381 -0.2284
 5574SOL    HW122559   9.021   1.238   6.198 -0.0840 -0.0319  0.0738
 5574SOL    HW222560   9.038   1.367   6.122  0.2524  1.4056  2.4709
 5575SOL     OW22561   2.483  11.660   8.368  0.2306  0.4566  0.0777
 5575SOL    HW122562   2.561  11.716   8.361 -0.0364  0.6493 -2.0992
 5575SOL    HW222563   2.517  11.576   8.399  2.1104 -0.7111 -4.3361
 5576SOL     OW22564  11.141   0.539   7.671  0.1125 -0.2199  0.1592
 5576SOL    HW122565  11.053   0.526   7.706  0.9588  1.3071  3.2196
 5576SOL    HW222566  11.131   0.528   7.576 -3.1192 -1.1554  0.4890
 5577SOL     OW22567   2.230   7.744   4.010  0.4334  0.3101 -0.6895
 5577SOL    HW122568   2.278   7.686   3.951 -1.0354 -1.0610 -0.6072
 5577SOL    HW222569   2.140   7.712   4.007  0.1114  0.8282  1.5171
 5578SOL     OW22570  12.331   9.215   1.167  0.5219  0.4980 -0.1775
 5578SOL    HW122571  12.397   9.155   1.203 -0.9948 -0.2526  1.5347
 5578SOL    HW222572  12.348   9.216   1.073  2.7926  0.1452  0.1749
 5579SOL     OW22573   4.301   8.765   1.131 -0.2957  0.5731  0.3239
 5579SOL    HW122574   4.252   8.810   1.063  0.9813  1.1029 -0.2852
 5579SOL    HW222575   4.391   8.763   1.098  0.3886  0.9803  2.0718
 5580SOL     OW22576   0.718   8.868  10.160  0.0387  0.1462 -0.3730
 5580SOL    HW122577   0.703   8.833  10.248  2.0966 -0.7320 -0.3076
 5580SOL    HW222578   0.680   8.803  10.102  0.2300 -0.1754 -0.1465
 5581SOL     OW22579   5.157   1.888   4.356  0.1135 -0.5866 -0.2187
 5581SOL    HW122580   5.082   1.837   4.324  0.1583 -1.2693  0.7213
 5581SOL    HW222581   5.126   1.979   4.355  0.3481 -0.4803 -2.8064
 5582SOL     OW22582   9.319   9.500   7.392 -0.1516  0.3278  0.9968
 5582SOL    HW122583   9.226   9.478   7.394 -0.5625  1.7947  0.0040
 5582SOL    HW222584   9.327   9.578   7.446 -0.1737  2.2289 -1.5250
 5583SOL     OW22585   4.355   6.219   3.818 -0.2889  0.6966  0.7398
 5583SOL    HW122586   4.441   6.251   3.844 -0.5843  0.8286  1.5612
 5583SOL    HW222587   4.326   6.164   3.891 -0.0551 -0.9695 -0.3544
 5584SOL     OW22588  11.058   8.625   6.317 -0.4890 -0.1026  0.5847
 5584SOL    HW122589  11.018   8.553   6.366 -1.3180 -0.3502 -0.4324
 5584SOL    HW222590  10.988   8.688   6.304 -0.4313 -0.2769 -0.7239
 5585SOL     OW22591   1.857   6.589   7.202  0.1460 -0.4645  0.2994
 5585SOL    HW122592   1.768   6.566   7.229 -0.1558  0.7313  0.3592
 5585SOL    HW222593   1.850   6.614   7.110  0.7632 -2.1408 -0.2564
 5586SOL     OW22594   0.284   5.048   6.479 -0.3120  0.2095  0.2771
 5586SOL    HW122595   0.263   5.139   6.459  2.6210  1.3368  1.8238
 5586SOL    HW222596   0.271   5.002   6.396  1.5041  2.7052 -1.5408
 5587SOL     OW22597   3.248   0.914   9.065  0.0330 -0.5565 -0.0113
 5587SOL    HW122598   3.155   0.892   9.057 -0.2836  0.8396 -0.4468
 5587SOL    HW222599   3.251   0.983   9.131  0.7086 -0.2965 -0.2988
 5588SOL     OW22600   9.903  11.512  10.153  0.0589 -0.1606  0.5592
 5588SOL    HW122601   9.933  11.454  10.083 -0.4728 -0.7299  0.7883
 5588SOL    HW222602   9.813  11.484  10.170  0.0414  0.2530  1.1788
 5589SOL     OW22603  10.946   1.605  11.534 -0.2240 -0.1508 -0.2362
 5589SOL    HW122604  10.868   1.656  11.557 -0.5480 -0.2325 -1.1041
 5589SOL    HW222605  10.919   1.554  11.458 -0.1438 -2.1847  1.0191
 5590SOL     OW22606  10.475   5.581   2.263  0.4044 -0.3923 -0.1351
 5590SOL    HW122607  10.456   5.597   2.356 -1.0148 -0.6210 -0.3656
 5590SOL    HW222608  10.390   5.559   2.225  0.7197  0.9833 -1.7624
 5591SOL     OW22609  12.283   1.145  10.430  0.0045 -0.2455 -0.5323
 5591SOL    HW122610  12.232   1.189  10.498  1.4514  1.4663 -0.4809
 5591SOL    HW222611  12.230   1.156  10.351  0.3579  1.8244 -0.5549
 5592SOL     OW22612   2.680   7.798   7.570 -0.2147 -0.0072  0.6908
 5592SOL    HW122613   2.757   7.760   7.529 -1.4689 -2.4480  0.4360
 5592SOL    HW222614   2.629   7.723   7.600 -2.5842  1.5002  0.7012
 5593SOL     OW22615   4.098   8.671   4.841 -0.0934 -0.1143  0.0334
 5593SOL    HW122616   4.012   8.710   4.861  0.4956  2.2196 -1.5481
 5593SOL    HW222617   4.127   8.635   4.925 -2.0866  0.1059  0.8926
 5594SOL     OW22618   9.921   8.577   0.141  0.5014 -0.6032 -0.5866
 5594SOL    HW122619   9.931   8.672   0.151  0.0988 -0.2645 -2.8287
 5594SOL    HW222620  10.008   8.542   0.160  0.6994  0.2284  0.1049
 5595SOL     OW22621   6.732   6.068   9.878  0.2161 -0.5200  0.2057
 5595SOL    HW122622   6.655   6.028   9.919 -0.0718 -0.0470  0.1336
 5595SOL    HW222623   6.766   6.128   9.944  0.6674 -0.8968  0.3251
 5596SOL     OW22624   1.620   5.717   1.968 -0.0366 -0.7191 -0.0983
 5596SOL    HW122625   1.638   5.750   1.880 -1.8452 -1.8660 -0.9424
 5596SOL    HW222626   1.606   5.623   1.956 -0.0662 -0.9367  1.4597
 5597SOL     OW22627   4.304  11.598   6.352 -0.2147 -0.4647 -0.1154
 5597SOL    HW122628   4.271  11.663   6.414 -0.2583  0.9866 -1.5889
 5597SOL    HW222629   4.348  11.533   6.406 -0.5935  0.5377  1.4560
 5598SOL     OW22630   3.189   0.943   7.256 -0.0686 -0.8466 -0.0663
 5598SOL    HW122631   3.149   0.867   7.215 -0.3206  0.0410 -1.5299
 5598SOL    HW222632   3.264   0.964   7.199  0.4774 -0.4826  0.7706
 5599SOL     OW22633  12.276   5.850   0.427 -0.1412 -0.3515 -0.1094
 5599SOL    HW122634  12.228   5.823   0.349  1.1718 -1.6612 -0.5254
 5599SOL    HW222635  12.298   5.768   0.472  1.7907  0.1418 -0.0381
 5600SOL     OW22636   3.846   4.923   1.826  0.3174 -0.3428  0.4031
 5600SOL    HW122637   3.770   4.879   1.864  0.6841  0.1893  1.8117
 5600SOL    HW222638   3.875   4.985   1.894  2.4841 -1.0985  0.2504
 5601SOL     OW22639   6.782   8.190   2.525  0.0101 -0.5505 -0.5078
 5601SOL    HW122640   6.846   8.134   2.482  0.5003 -1.0280  0.8041
 5601SOL    HW222641   6.744   8.136   2.594 -1.5719 -0.1583 -1.0081
 5602SOL     OW22642  11.707   1.563   9.662 -0.1734  0.1539 -0.2629
 5602SOL    HW122643  11.639   1.498   9.678 -0.8396  0.5655 -1.3185
 5602SOL    HW222644  11.673   1.644   9.701 -1.0041  0.7290 -2.0901
 5603SOL     OW22645  11.618   8.785   4.261  0.0934 -0.1689  0.4635
 5603SOL    HW122646  11.547   8.749   4.208 -0.9219  0.6522  1.2242
 5603SOL    HW222647  11.692   8.793   4.201 -0.2286 -1.6823 -0.1795
 5604SOL     OW22648   8.767   7.360   2.482 -0.1435  0.1088 -0.1546
 5604SOL    HW122649   8.707   7.302   2.436 -0.5730  0.8978 -0.6137
 5604SOL    HW222650   8.712   7.406   2.546  0.1475  0.1710  0.0545
 5605SOL     OW22651   2.176   0.713   7.690 -0.0771  0.1363 -0.1222
 5605SOL    HW122652   2.090   0.673   7.686  0.2344 -0.4062 -2.6050
 5605SOL    HW222653   2.233   0.644   7.724 -0.3919  0.1497  0.4597
 5606SOL     OW22654   5.627   6.719   8.124  0.2134  0.0983 -0.1938
 5606SOL    HW122655   5.696   6.760   8.071  0.2126  1.0149  0.4810
 5606SOL    HW222656   5.675   6.668   8.189  0.2766  0.8911  0.3963
 5607SOL     OW22657  10.593   8.977   2.702 -0.1249  0.0167  0.4978
 5607SOL    HW122658  10.566   9.060   2.741 -2.3127 -1.2919  1.9999
 5607SOL    HW222659  10.585   8.991   2.607  0.4538  1.7636  0.6708
 5608SOL     OW22660   2.732   2.054  11.379 -0.1782  0.5569 -0.4378
 5608SOL    HW122661   2.781   2.126  11.339  1.3303  2.3910  4.1023
 5608SOL    HW222662   2.642   2.086  11.385 -0.0275  1.0270 -0.6061
 5609SOL     OW22663   1.811  10.309   1.192  0.4592  0.2359  0.1441
 5609SOL    HW122664   1.845  10.228   1.232  1.3687  0.3992 -0.2668
 5609SOL    HW222665   1.874  10.329   1.122 -1.0861 -0.0261 -1.3707
 5610SOL     OW22666   8.488  11.863   0.222  0.7357  0.1239  0.0447
 5610SOL    HW122667   8.562  11.896   0.271  1.5626 -0.7637 -0.5598
 5610SOL    HW222668   8.519  11.781   0.183 -1.0503 -1.1158  1.0587
 5611SOL     OW22669  10.945   7.976   4.337 -0.2972  0.7340 -0.1747
 5611SOL    HW122670  10.873   7.972   4.274 -0.9459 -1.7107  0.6169
 5611SOL    HW222671  11.007   7.910   4.307  0.2161  0.7786  0.7549
 5612SOL     OW22672  10.423   2.726  11.742 -0.2289 -0.1710  0.1221
 5612SOL    HW122673  10.398   2.817  11.760  0.0408 -0.0202 -0.2457
 5612SOL    HW222674  10.505   2.715  11.789 -1.1153 -0.7711  1.6119
 5613SOL     OW22675   4.698   3.735   5.697 -0.2924  0.2293 -0.0675
 5613SOL    HW122676   4.604   3.743   5.678 -0.3674 -0.4416  0.0062
 5613SOL    HW222677   4.726   3.656   5.651  0.0083 -0.1504  0.7427
 5614SOL     OW22678   8.733   9.077   5.699 -0.0712  0.4314 -0.1991
 5614SOL    HW122679   8.678   9.089   5.622  2.1857 -1.5793 -2.3522
 5614SOL    HW222680   8.677   9.033   5.763 -1.7507  1.2486 -1.0622
 5615SOL     OW22681  10.438   9.998   2.917  0.5061 -0.7105 -0.0992
 5615SOL    HW122682  10.421  10.089   2.893  3.2399  0.1993  0.9570
 5615SOL    HW222683  10.454   9.954   2.834 -1.5912 -0.4600 -0.6844
 5616SOL     OW22684   6.615   0.119   8.313  0.0711 -0.0892 -0.2358
 5616SOL    HW122685   6.524   0.137   8.336  0.2864  1.6840 -0.6340
 5616SOL    HW222686   6.665   0.186   8.359  0.9612  0.3424 -1.7648
 5617SOL     OW22687   7.915  12.148   8.980 -0.0608 -0.2750  0.8288
 5617SOL    HW122688   7.951  12.062   8.961 -2.0548 -0.9574 -0.1600
 5617SOL    HW222689   7.849  12.132   9.048 -0.0724  0.5581  1.0308
 5618SOL     OW22690   2.062   3.262   9.266 -0.5381 -0.9211 -0.3220
 5618SOL    HW122691   2.059   3.354   9.290  0.8703 -1.0279  0.4034
 5618SOL    HW222692   2.101   3.261   9.179 -1.0197 -0.8144 -0.5431
 5619SOL     OW22693   1.630   6.042   4.486  0.4880 -0.0515 -0.3640
 5619SOL    HW122694   1.682   5.993   4.549  0.2687 -0.2467 -0.3352
 5619SOL    HW222695   1.543   6.048   4.526  1.1053  2.5050  0.8254
 5620SOL     OW22696   8.949   7.118   2.530  0.5615  1.1513  0.1066
 5620SOL    HW122697   8.983   7.079   2.449  0.7554  0.5360  0.4769
 5620SOL    HW222698   8.929   7.208   2.506  1.3329  1.1937 -0.4331
 5621SOL     OW22699   5.351   4.860  10.467 -0.1338  0.2652  0.3308
 5621SOL    HW122700   5.401   4.839  10.388  0.0936 -0.6528  0.7139
 5621SOL    HW222701   5.274   4.907  10.434  1.0265  1.8736 -0.2591
 5622SOL     OW22702  10.962   7.407   6.075  0.4900  0.5507 -0.2733
 5622SOL    HW122703  10.950   7.479   6.137 -1.9569 -0.0767  0.0715
 5622SOL    HW222704  10.967   7.450   5.989 -3.3921  1.1480 -0.3665
 5623SOL     OW22705   8.825   4.191   4.346 -0.3994  0.1124  0.2659
 5623SOL    HW122706   8.851   4.105   4.312  0.1252  1.0531 -1.8446
 5623SOL    HW222707   8.801   4.174   4.437  0.2058 -2.1699  0.0615
 5624SOL     OW22708   9.537  10.520   6.791 -0.1043  0.0958 -0.0089
 5624SOL    HW122709   9.492  10.593   6.833  0.6770  0.0134  1.0132
 5624SOL    HW222710   9.477  10.490   6.723 -0.9897  0.8491  0.4232
 5625SOL     OW22711   7.333   5.878   2.015 -0.2740 -0.0099  0.2521
 5625SOL    HW122712   7.360   5.797   2.058  0.8446  0.7683  1.0629
 5625SOL    HW222713   7.415   5.924   1.996 -0.9080  1.3078  0.5657
 5626SOL     OW22714   9.892   7.985   6.488 -0.2002  0.5325 -0.5599
 5626SOL    HW122715   9.848   8.010   6.406 -0.6456 -1.2488 -0.9227
 5626SOL    HW222716   9.824   7.940   6.538  0.7957 -1.0283 -0.5242
 5627SOL     OW22717   6.257   5.222  10.226 -0.0119 -0.1501 -0.5523
 5627SOL    HW122718   6.316   5.294  10.247 -0.8431  0.3693  0.0315
 5627SOL    HW222719   6.188   5.261  10.173 -0.5325 -0.4837 -0.1384
 5628SOL     OW22720   7.603   9.037  11.301  0.0454 -0.3233  0.1480
 5628SOL    HW122721   7.570   9.093  11.371 -0.7630 -0.6570  0.0503
 5628SOL    HW222722   7.668   9.090  11.255 -0.1796  0.2639  0.5049
 5629SOL     OW22723   7.868   9.855   8.596  0.1596 -0.6532  0.4182
 5629SOL    HW122724   7.887   9.922   8.661 -0.9279 -0.0188  0.1107
 5629SOL    HW222725   7.826   9.903   8.524  0.7279 -1.4387 -0.4620
 5630SOL     OW22726   5.436  10.903   2.946  0.3885 -0.2015 -0.2932
 5630SOL    HW122727   5.437  10.878   2.854  2.2562  0.6995 -0.5859
 5630SOL    HW222728   5.528  10.899   2.972 -0.1491 -0.7951  1.6535
 5631SOL     OW22729   7.117  12.235   8.922 -0.1581 -0.8269 -0.7566
 5631SOL    HW122730   7.189  12.201   8.975 -0.1095 -0.6353 -0.6985
 5631SOL    HW222731   7.102  12.323   8.956  0.4196 -0.3861 -1.5947
 5632SOL     OW22732   2.684   2.715   8.074 -0.3604 -0.4931 -0.5086
 5632SOL    HW122733   2.737   2.668   8.010  1.3314 -0.4764  0.7959
 5632SOL    HW222734   2.628   2.647   8.112 -0.8256 -0.6458 -1.4548
 5633SOL     OW22735   0.921  11.751   3.464  0.2558 -0.4229 -0.0253
 5633SOL    HW122736   0.921  11.791   3.551  0.9470 -1.3272  0.3988
 5633SOL    HW222737   0.849  11.795   3.418  0.2987  0.5291  0.7798
 5634SOL     OW22738   6.369   5.744  10.565  0.2364 -0.4618  0.5071
 5634SOL    HW122739   6.289   5.694  10.549 -1.0202  1.3806  0.7609
 5634SOL    HW222740   6.344   5.811  10.629  1.5734  1.0894 -0.4957
 5635SOL     OW22741  12.240   2.674   9.813  0.0816  0.4820  0.1002
 5635SOL    HW122742  12.153   2.634   9.809  0.1281  0.4414 -0.5715
 5635SOL    HW222743  12.301   2.601   9.798  0.1154  1.0430 -2.9281
 5636SOL     OW22744   3.493   4.954  10.015  0.0079 -0.1770  0.0521
 5636SOL    HW122745   3.424   5.017   9.994  1.1081  1.0993  0.1156
 5636SOL    HW222746   3.510   4.967  10.108 -0.1098 -0.9575  0.1929
 5637SOL     OW22747   7.777   8.148   7.699 -0.7453 -0.3554  0.1741
 5637SOL    HW122748   7.775   8.128   7.792  0.1166 -1.4233 -0.0156
 5637SOL    HW222749   7.811   8.237   7.694  0.7996 -0.8686  0.8353
 5638SOL     OW22750   9.540   6.670   2.760 -0.3507  0.0359 -0.1379
 5638SOL    HW122751   9.618   6.716   2.729  0.2989 -0.3207  0.8934
 5638SOL    HW222752   9.539   6.589   2.709  0.1934 -0.1323  0.1003
 5639SOL     OW22753   4.183   2.134   1.693  0.0493 -0.3489 -0.0981
 5639SOL    HW122754   4.278   2.136   1.676 -0.1140 -0.7981 -1.1574
 5639SOL    HW222755   4.152   2.219   1.663  0.5327  1.2238  3.3152
 5640SOL     OW22756   2.656   0.765  11.007 -0.0884  0.2253 -0.2313
 5640SOL    HW122757   2.638   0.852  10.972  0.0056  0.7248  0.9290
 5640SOL    HW222758   2.571   0.733  11.037  0.1398  0.6088  0.8550
 5641SOL     OW22759  12.244   3.687   8.046 -0.2389  0.0818  0.4707
 5641SOL    HW122760  12.305   3.692   7.972  0.7868 -0.5885  1.2324
 5641SOL    HW222761  12.176   3.627   8.016 -0.2855  0.4719 -0.2269
 5642SOL     OW22762   9.437   1.094   6.594 -0.5792 -0.2238  0.0934
 5642SOL    HW122763   9.494   1.168   6.574 -0.9215  0.0384  0.0861
 5642SOL    HW222764   9.362   1.104   6.536 -1.9808  1.0084  1.9995
 5643SOL     OW22765   6.623   0.298   7.862 -0.2415  0.2320 -0.1964
 5643SOL    HW122766   6.593   0.388   7.863  0.1366  0.4545  3.7488
 5643SOL    HW222767   6.716   0.303   7.884 -0.2360 -1.1076  0.1898
 5644SOL     OW22768   0.312   1.997   7.794 -1.0253  0.2498  0.2289
 5644SOL    HW122769   0.327   1.949   7.712 -1.2040 -0.3469  0.5429
 5644SOL    HW222770   0.274   1.932   7.853 -2.1747  1.0102  0.3591
 5645SOL     OW22771   6.900   2.214   2.959 -0.1672 -0.6139  0.0923
 5645SOL    HW122772   6.823   2.210   2.903 -1.5983 -2.2120  2.0178
 5645SOL    HW222773   6.896   2.300   3.000 -1.2524 -0.8714  0.5593
 5646SOL     OW22774   5.040  11.728   8.078  0.0398 -0.2812  0.4940
 5646SOL    HW122775   5.032  11.822   8.095  0.0098 -0.2441  0.2893
 5646SOL    HW222776   5.030  11.686   8.163 -0.8783 -0.1460  0.4629
 5647SOL     OW22777   5.927   0.517   7.094  0.8577 -0.0248 -0.0497
 5647SOL    HW122778   5.988   0.538   7.024 -0.5354  1.5857 -0.8624
 5647SOL    HW222779   5.854   0.578   7.081  0.0296 -0.4686  2.1178
 5648SOL     OW22780   8.755  11.706   2.905  0.2838  0.4336  0.2822
 5648SOL    HW122781   8.671  11.751   2.900  0.5672  1.0698  0.9966
 5648SOL    HW222782   8.733  11.617   2.932 -0.3733 -0.2319 -2.1875
 5649SOL     OW22783   5.828   3.287   2.910  0.0246  0.5277 -0.3265
 5649SOL    HW122784   5.794   3.372   2.883  0.3308  0.6033 -0.4821
 5649SOL    HW222785   5.868   3.303   2.995  0.0221  0.5239 -0.3245
 5650SOL     OW22786  11.203   7.268   1.652 -0.3361  0.0342 -0.0697
 5650SOL    HW122787  11.216   7.174   1.649 -1.6356 -0.1616 -0.7378
 5650SOL    HW222788  11.148   7.283   1.729 -0.6211  0.1660 -0.2947
 5651SOL     OW22789   3.725  10.799   6.644  0.1973 -0.1142  0.3140
 5651SOL    HW122790   3.710  10.890   6.618  2.4667 -0.1252 -1.3638
 5651SOL    HW222791   3.820  10.793   6.654  0.0893 -2.2916  0.4027
 5652SOL     OW22792   3.845   2.692   5.979  0.6241  0.2476  0.2615
 5652SOL    HW122793   3.878   2.760   5.921 -2.8017  1.9382  0.0119
 5652SOL    HW222794   3.852   2.730   6.067  1.7739 -0.5037  0.5091
 5653SOL     OW22795   8.058   1.689  11.990 -0.5550  0.4993  0.1049
 5653SOL    HW122796   7.965   1.666  11.983 -0.8995  1.6912  0.5472
 5653SOL    HW222797   8.104   1.617  11.945 -1.4394 -1.8437  2.7011
 5654SOL     OW22798   1.572   4.014   0.891  0.0679 -0.3916  0.2817
 5654SOL    HW122799   1.538   3.993   0.978 -2.0891  0.2961 -0.3395
 5654SOL    HW222800   1.559   4.108   0.882  1.2447 -0.2736 -0.4093
 5655SOL     OW22801   9.138   3.280  11.221  0.4854 -0.5334  0.1510
 5655SOL    HW122802   9.185   3.236  11.291  0.2064  0.8385  1.2308
 5655SOL    HW222803   9.121   3.368  11.254 -1.3002 -0.4360 -0.8911
 5656SOL     OW22804   7.296   3.441   4.194 -0.0254 -0.3723  0.2708
 5656SOL    HW122805   7.208   3.449   4.157 -0.5663 -0.0080  1.5805
 5656SOL    HW222806   7.293   3.492   4.275  1.4659 -0.1586  0.2270
 5657SOL     OW22807   5.146   6.627   3.776  0.1371  0.6756 -0.3953
 5657SOL    HW122808   5.092   6.562   3.822  0.0840  0.0488 -1.3033
 5657SOL    HW222809   5.153   6.700   3.836  0.6483 -0.3883  0.8906
 5658SOL     OW22810   2.375   6.000   8.112 -0.6391  0.3275 -0.4035
 5658SOL    HW122811   2.442   6.057   8.076  0.7537 -0.9306  0.0663
 5658SOL    HW222812   2.358   5.935   8.043 -0.8735  0.2397 -0.2668
 5659SOL     OW22813   1.185   9.790   7.528  0.3970 -0.1516  0.0257
 5659SOL    HW122814   1.193   9.868   7.474  1.1712 -0.7791 -0.8090
 5659SOL    HW222815   1.190   9.717   7.466  0.7247 -0.8818  0.8823
 5660SOL     OW22816   1.369   1.608   9.180  0.1621  0.4013 -0.1806
 5660SOL    HW122817   1.435   1.550   9.219  0.5730  1.2175  0.3741
 5660SOL    HW222818   1.287   1.559   9.188  0.5978 -0.3590 -0.2919
 5661SOL     OW22819   1.567   9.297  10.214  0.1290 -0.2177  0.2040
 5661SOL    HW122820   1.556   9.386  10.181  0.1932 -0.3506 -0.1765
 5661SOL    HW222821   1.521   9.242  10.150  0.8208 -0.5417 -0.0271
 5662SOL     OW22822   8.613   2.828   2.024 -0.1914 -0.0490 -0.0835
 5662SOL    HW122823   8.637   2.912   2.063  1.8547 -1.2144  1.3523
 5662SOL    HW222824   8.541   2.849   1.965 -0.6232  2.4893  1.2099
 5663SOL     OW22825   4.345  11.426   6.561  0.0453 -0.1392  0.0275
 5663SOL    HW122826   4.250  11.429   6.570 -0.0805 -1.4477 -0.5956
 5663SOL    HW222827   4.378  11.445   6.649 -0.7817  0.2469  0.2704
 5664SOL     OW22828  10.234   1.561   4.666 -0.4163  0.6578  0.2149
 5664SOL    HW122829  10.258   1.527   4.580 -0.9489  0.3681  0.1788
 5664SOL    HW222830  10.240   1.656   4.657 -2.7122  0.7600 -0.8348
 5665SOL     OW22831   8.209   6.278   0.868  0.0942 -0.5921  0.2702
 5665SOL    HW122832   8.273   6.280   0.796  0.5625  1.0979  0.6829
 5665SOL    HW222833   8.125   6.266   0.825  0.1185  2.3153 -0.8691
 5666SOL     OW22834   2.333   4.620   1.011  0.2909 -0.6048  0.8495
 5666SOL    HW122835   2.370   4.587   0.929  0.9437 -0.2325  0.9823
 5666SOL    HW222836   2.247   4.580   1.017  0.2492 -0.6592 -0.0070
 5667SOL     OW22837   2.699   2.460  10.596 -0.2690  0.5763 -0.1297
 5667SOL    HW122838   2.759   2.516  10.645  0.5032 -0.1294 -0.2432
 5667SOL    HW222839   2.753   2.422  10.526  0.6152 -3.8923  2.5439
 5668SOL     OW22840  12.124  11.761  10.526 -0.1250 -0.5447 -0.8762
 5668SOL    HW122841  12.057  11.695  10.508 -0.7276  0.1221 -1.1070
 5668SOL    HW222842  12.120  11.820  10.451  0.8483 -0.5948 -0.9764
 5669SOL     OW22843   3.453   7.496   9.767 -0.2243  1.1862 -0.0721
 5669SOL    HW122844   3.508   7.536   9.700 -0.8558  1.7099 -0.2904
 5669SOL    HW222845   3.428   7.569   9.824 -2.2853  1.3806 -1.0919
 5670SOL     OW22846   2.288   4.846  11.803 -0.1546 -0.0027 -0.2190
 5670SOL    HW122847   2.214   4.796  11.837  0.5868 -1.1553 -0.2570
 5670SOL    HW222848   2.270   4.856  11.710 -0.3237 -0.1681 -0.2036
 5671SOL     OW22849   8.593   6.702   2.114 -0.1424 -0.3289  0.8910
 5671SOL    HW122850   8.565   6.760   2.185 -0.4161 -1.9479  2.1719
 5671SOL    HW222851   8.556   6.617   2.137  0.6720 -1.1417 -0.6529
 5672SOL     OW22852   6.846   7.112   7.908  0.3701  0.9213 -0.2121
 5672SOL    HW122853   6.896   7.118   7.989  0.6829  0.2105 -0.3520
 5672SOL    HW222854   6.900   7.060   7.850 -0.6441 -0.0911 -0.2714
 5673SOL     OW22855  10.674   3.117   6.467  0.1607 -0.0414 -0.0312
 5673SOL    HW122856  10.671   3.200   6.514  1.4593 -0.3726  0.6793
 5673SOL    HW222857  10.656   3.051   6.533 -0.7974 -0.3495 -0.5811
 5674SOL     OW22858   3.688   5.554  10.909  0.3829  0.2470 -0.0939
 5674SOL    HW122859   3.642   5.624  10.954 -1.2176 -0.5556 -0.4135
 5674SOL    HW222860   3.644   5.546  10.825  0.9746 -0.7106 -0.3303
 5675SOL     OW22861   4.146   0.193   3.128 -0.4026 -0.0056 -0.5245
 5675SOL    HW122862   4.108   0.108   3.106  0.3748 -0.2034 -1.1513
 5675SOL    HW222863   4.218   0.172   3.187 -0.9499  0.3226  0.2635
 5676SOL     OW22864   4.206   6.538   7.401 -0.3725 -0.2331 -0.3941
 5676SOL    HW122865   4.244   6.573   7.481 -1.4044  0.1049 -0.0339
 5676SOL    HW222866   4.219   6.606   7.335 -1.4412  0.4023  0.0396
 5677SOL     OW22867   6.031   4.375   4.387 -0.1520  0.0794  0.1205
 5677SOL    HW122868   5.961   4.403   4.328  0.1091  0.8212  0.1571
 5677SOL    HW222869   6.105   4.430   4.365 -0.0175  0.3015  1.0712
 5678SOL     OW22870   1.475   7.495  10.825  0.3927 -0.1930  0.1790
 5678SOL    HW122871   1.448   7.460  10.740 -0.4563  0.2460  0.2594
 5678SOL    HW222872   1.549   7.552  10.804 -0.9135  1.3239 -0.5350
 5679SOL     OW22873  11.676   9.061   1.671  0.0181  0.2604 -0.0994
 5679SOL    HW122874  11.736   9.044   1.599 -0.2471  0.5772 -0.3981
 5679SOL    HW222875  11.723   9.032   1.749  0.4925  0.3607 -0.3467
 5680SOL     OW22876   5.815   1.396   0.757  0.1484  0.0911 -0.7879
 5680SOL    HW122877   5.817   1.479   0.709  0.3593  0.4423 -0.1815
 5680SOL    HW222878   5.808   1.330   0.689 -2.2058  0.6806 -1.2130
 5681SOL     OW22879   5.709   3.375   8.786  0.0094  0.2773  0.0915
 5681SOL    HW122880   5.719   3.400   8.694 -2.2236  0.2661 -0.1990
 5681SOL    HW222881   5.651   3.299   8.784 -0.2946  0.4462  1.5251
 5682SOL     OW22882   5.359  11.042   7.619  0.1178 -0.2557  1.3832
 5682SOL    HW122883   5.365  11.027   7.713  2.1884  0.4709  1.4102
 5682SOL    HW222884   5.326  11.131   7.610  0.5802 -0.0748  1.4466
 5683SOL     OW22885   0.511   7.805   7.029  0.1676 -0.5263  0.0105
 5683SOL    HW122886   0.490   7.894   7.002  2.7333 -0.2543 -1.3517
 5683SOL    HW222887   0.568   7.816   7.105 -0.5829 -1.0887  0.6788
 5684SOL     OW22888   3.676   8.756   8.020 -0.0961 -0.5911 -0.4609
 5684SOL    HW122889   3.640   8.675   7.984 -0.2454  0.3077 -2.4973
 5684SOL    HW222890   3.603   8.796   8.068 -0.7248 -0.5784 -1.3965
 5685SOL     OW22891   2.344   6.249  11.644  0.2763  0.0503 -0.0069
 5685SOL    HW122892   2.301   6.315  11.591  0.4610 -0.1185 -0.3721
 5685SOL    HW222893   2.337   6.168  11.593 -1.0021 -0.4811  0.9661
 5686SOL     OW22894   5.940   2.294   1.552 -0.7238  0.4052  0.2588
 5686SOL    HW122895   5.947   2.202   1.526 -1.6742  0.4291 -0.1468
 5686SOL    HW222896   6.017   2.336   1.514 -1.6553  0.2868 -1.9270
 5687SOL     OW22897   9.516  11.321   3.131  0.5001  0.3143  0.3834
 5687SOL    HW122898   9.542  11.401   3.175  0.0203  0.9443 -0.4478
 5687SOL    HW222899   9.424  11.308   3.155  0.4267  0.3032  0.1051
 5688SOL     OW22900   1.238   3.962   9.649  0.3958  0.0747  1.2130
 5688SOL    HW122901   1.280   4.020   9.586 -0.3379 -1.0864 -0.4251
 5688SOL    HW222902   1.202   4.020   9.715  0.5944  1.3934  0.2022
 5689SOL     OW22903  11.256   4.730   5.077 -0.4116  0.1364 -0.1037
 5689SOL    HW122904  11.332   4.777   5.111 -0.2037 -0.1728 -0.1377
 5689SOL    HW222905  11.198   4.720   5.153  0.3434 -1.1406  0.3479
 5690SOL     OW22906   3.359   5.157   1.203  0.4246  0.2250  0.5123
 5690SOL    HW122907   3.379   5.237   1.155 -0.0427 -1.1145 -2.1228
 5690SOL    HW222908   3.311   5.187   1.280 -0.5884  2.4374 -0.8741
 5691SOL     OW22909   7.878   2.238   7.858 -0.1248  1.0256  0.1326
 5691SOL    HW122910   7.888   2.316   7.803  1.2961  0.8651  0.1495
 5691SOL    HW222911   7.932   2.172   7.815 -1.8611 -0.1935 -0.2771
 5692SOL     OW22912   1.315   2.981   1.986 -0.5413 -0.4731 -0.0192
 5692SOL    HW122913   1.279   2.956   1.901 -1.5570 -0.3194  0.3570
 5692SOL    HW222914   1.409   2.989   1.970 -0.2733 -3.3488 -0.4301
 5693SOL     OW22915   6.573   6.368  10.757 -0.5677 -1.1279 -0.1393
 5693SOL    HW122916   6.658   6.326  10.760  0.3321  0.6433  0.4109
 5693SOL    HW222917   6.530   6.343  10.839  0.8537  0.7282  1.2533
 5694SOL     OW22918   6.965   6.214   0.150 -0.1320  0.0635  0.3887
 5694SOL    HW122919   7.024   6.268   0.098 -1.2898  0.1908 -0.8575
 5694SOL    HW222920   7.023   6.154   0.198  1.0257  0.6671 -0.2215
 5695SOL     OW22921  11.754   1.945   9.919 -0.2269 -0.8219  0.1067
 5695SOL    HW122922  11.766   1.936   9.824  0.5781  1.8393 -0.1297
 5695SOL    HW222923  11.679   1.890   9.939 -1.8937  0.3028 -2.5007
 5696SOL     OW22924   9.718   2.310   5.847  0.0425  0.0813 -0.3972
 5696SOL    HW122925   9.687   2.219   5.849 -0.8035  0.3668  0.4015
 5696SOL    HW222926   9.646   2.360   5.887  0.6018  1.0685 -0.6059
 5697SOL     OW22927   9.076   8.481  11.076 -0.6944  0.2308  0.0660
 5697SOL    HW122928   9.163   8.512  11.050 -0.6193  0.1639  0.2357
 5697SOL    HW222929   9.042   8.550  11.132 -0.6498  0.1416  0.2013
 5698SOL     OW22930   4.077   0.263   7.723 -0.3179  0.1518  0.6391
 5698SOL    HW122931   4.125   0.301   7.650 -1.2671  0.1193 -0.0209
 5698SOL    HW222932   4.104   0.314   7.799  1.0813 -0.1503  0.3705
 5699SOL     OW22933   5.106   0.591  12.324 -0.8080  0.3411 -0.0296
 5699SOL    HW122934   5.064   0.603  12.409  0.9738 -0.2273  0.9855
 5699SOL    HW222935   5.132   0.680  12.298 -1.9995  0.6086 -0.3535
 5700SOL     OW22936   0.644   0.900   2.646  0.1410 -0.4096  0.1087
 5700SOL    HW122937   0.650   0.911   2.741 -2.9108  1.8294  0.1906
 5700SOL    HW222938   0.650   0.989   2.612  3.1953 -1.2955 -2.1157
 5701SOL     OW22939   1.626   0.494   1.050  0.2114 -0.4853 -0.6613
 5701SOL    HW122940   1.534   0.493   1.075  0.4134 -0.3256  0.1200
 5701SOL    HW222941   1.627   0.462   0.959 -0.6845  0.2573 -0.9508
 5702SOL     OW22942  12.166  10.533   3.651  0.1692 -0.0642  0.0509
 5702SOL    HW122943  12.258  10.520   3.628 -0.1617 -0.1615 -1.2772
 5702SOL    HW222944  12.135  10.445   3.672  0.3863 -0.0212  0.5806
 5703SOL     OW22945  10.341   6.601   1.882  0.3470  0.7654  0.9222
 5703SOL    HW122946  10.332   6.522   1.935 -1.2069 -0.5197 -1.1076
 5703SOL    HW222947  10.299   6.669   1.935 -0.8181 -0.3707  1.5372
 5704SOL     OW22948   6.434   9.258  10.299 -0.2721  0.0227 -0.2410
 5704SOL    HW122949   6.386   9.329  10.342  2.8886  2.5969 -0.5436
 5704SOL    HW222950   6.419   9.273  10.206 -1.3191 -1.1115 -0.2770
 5705SOL     OW22951   3.751   4.043   4.146 -0.0994  0.1017  0.1169
 5705SOL    HW122952   3.846   4.049   4.138  0.0160 -2.4883 -2.5903
 5705SOL    HW222953   3.718   4.078   4.063 -1.2305 -1.8463 -0.3272
 5706SOL     OW22954   9.150   6.638   8.903  0.4878  1.0260 -0.2858
 5706SOL    HW122955   9.090   6.583   8.854 -0.1131  2.2244 -0.9598
 5706SOL    HW222956   9.141   6.725   8.862  2.3833  1.3259 -0.1529
 5707SOL     OW22957   5.137   0.111   2.681 -0.7763  0.2055  0.0882
 5707SOL    HW122958   5.162   0.153   2.598  1.7262  0.1661  0.7369
 5707SOL    HW222959   5.092   0.031   2.655 -1.9222  1.2325 -1.1993
 5708SOL     OW22960   2.077   2.903   8.502  0.1184 -0.3985  0.2405
 5708SOL    HW122961   2.010   2.835   8.489 -0.0021 -0.5629  1.5802
 5708SOL    HW222962   2.114   2.884   8.587  0.2146  1.1146  0.5676
 5709SOL     OW22963   6.357   5.378  11.876 -0.3348  0.1168  0.2782
 5709SOL    HW122964   6.326   5.462  11.842  0.9064  0.6031  0.2935
 5709SOL    HW222965   6.443   5.398  11.913 -0.2581 -1.0607  0.7564
 5710SOL     OW22966  11.612  12.047  11.502  0.1230  0.0282  0.4246
 5710SOL    HW122967  11.638  12.120  11.446 -0.0746  0.3717  0.7746
 5710SOL    HW222968  11.692  11.995  11.512 -0.1060 -0.6729 -1.1085
 5711SOL     OW22969   7.191   2.720   9.712  0.0530 -0.5438 -0.1865
 5711SOL    HW122970   7.210   2.650   9.650  1.2353 -0.1003 -0.3383
 5711SOL    HW222971   7.203   2.679   9.798 -0.2862 -0.7943 -0.2527
 5712SOL     OW22972   8.158   2.035   9.504 -0.4958 -0.4196  0.4587
 5712SOL    HW122973   8.183   1.962   9.447 -1.0957 -0.4403  0.2186
 5712SOL    HW222974   8.157   1.997   9.592  0.5983 -0.3482  0.5257
 5713SOL     OW22975   7.612   5.934   0.445  0.3876 -0.0399  0.2602
 5713SOL    HW122976   7.683   5.914   0.384 -1.0576  0.5351 -1.7060
 5713SOL    HW222977   7.626   6.026   0.469  1.6984 -0.6279  1.8876
 5714SOL     OW22978   4.906   3.310  11.939 -0.2256 -0.1719 -0.0908
 5714SOL    HW122979   4.831   3.261  11.974  0.6663 -1.6560 -0.1796
 5714SOL    HW222980   4.954   3.338  12.017  0.0640 -0.7460 -0.0584
 5715SOL     OW22981   5.837   9.153  11.226  0.3436 -0.2269 -0.1474
 5715SOL    HW122982   5.858   9.104  11.306 -1.4406  0.2384  0.6536
 5715SOL    HW222983   5.752   9.193  11.244  1.2222  2.3081 -1.1476
 5716SOL     OW22984  10.025  10.105   8.709  0.2506  0.8232  0.1318
 5716SOL    HW122985  10.016  10.067   8.796  0.3588 -0.7884 -0.5370
 5716SOL    HW222986  10.101  10.163   8.716 -0.4136  1.5936  1.3773
 5717SOL     OW22987   6.713   7.472   1.121 -0.4406  0.0283 -0.4365
 5717SOL    HW122988   6.621   7.499   1.112 -0.5504 -0.4397 -0.7713
 5717SOL    HW222989   6.736   7.438   1.035 -0.1930 -0.5956 -0.1238
 5718SOL     OW22990   8.161   7.647   5.889 -1.0159 -0.4290 -0.0717
 5718SOL    HW122991   8.246   7.609   5.866 -2.0710 -3.1096  0.1315
 5718SOL    HW222992   8.181   7.715   5.953  1.0179 -0.3410 -0.7277
 5719SOL     OW22993   8.385   4.592   1.730  0.2559  0.4818 -0.1103
 5719SOL    HW122994   8.346   4.637   1.655  0.6704  0.6464 -0.2316
 5719SOL    HW222995   8.336   4.623   1.806 -1.2950 -0.9540 -0.4712
 5720SOL     OW22996   2.181  10.441   0.814  0.2906  0.1308  0.5113
 5720SOL    HW122997   2.174  10.447   0.909  0.3698 -0.4349  0.5555
 5720SOL    HW222998   2.164  10.349   0.794  0.4768  0.2034 -0.0054
 5721SOL     OW22999   3.768   5.031   7.865  0.6413  0.3876  0.1486
 5721SOL    HW123000   3.797   4.963   7.926  1.9794 -0.2459 -1.1318
 5721SOL    HW223001   3.675   5.013   7.851  0.4247  0.2778  1.6304
 5722SOL     OW23002   1.654  10.317   8.135 -0.0143 -0.3628 -0.0468
 5722SOL    HW123003   1.565  10.350   8.142  0.4082  1.0985 -0.9624
 5722SOL    HW223004   1.705  10.373   8.194  0.2650 -1.3477  0.6597
 5723SOL     OW23005   9.828   2.680  10.750 -0.0780 -0.1666  0.3757
 5723SOL    HW123006   9.752   2.723  10.789  1.7500  1.3948  2.4210
 5723SOL    HW223007   9.832   2.595  10.794 -1.4656 -0.9528 -0.8953
 5724SOL     OW23008  11.715   9.168   1.181  0.0181 -0.3661 -0.8620
 5724SOL    HW123009  11.636   9.122   1.153  0.7611 -2.0581 -0.3615
 5724SOL    HW223010  11.684   9.234   1.243 -1.2819  1.1820 -3.0371
 5725SOL     OW23011   7.722   9.661   5.864 -0.6815  0.3307 -0.0330
 5725SOL    HW123012   7.718   9.734   5.926 -2.2025  1.9196 -1.8970
 5725SOL    HW223013   7.633   9.654   5.830 -0.0247 -0.9088 -1.5915
 5726SOL     OW23014   2.696   7.296   0.334  0.3313 -0.1560 -0.0271
 5726SOL    HW123015   2.628   7.277   0.269  1.4433  0.5069 -1.4450
 5726SOL    HW223016   2.648   7.306   0.416 -1.0982 -1.2675 -0.6777
 5727SOL     OW23017   2.372   1.860   3.233  0.1782 -0.0032 -0.4112
 5727SOL    HW123018   2.348   1.951   3.252  0.2589 -0.0729  0.0497
 5727SOL    HW223019   2.351   1.848   3.141 -1.5989 -0.0819 -0.0264
 5728SOL     OW23020   0.929  10.834  10.249  0.8874  0.8486 -0.4420
 5728SOL    HW123021   0.970  10.796  10.327 -2.0278 -0.1285  0.7582
 5728SOL    HW223022   0.924  10.762  10.187 -1.0340  0.2331  0.3371
 5729SOL     OW23023   7.495   6.962   1.444  0.5588  0.4716 -0.0428
 5729SOL    HW123024   7.406   6.944   1.475  0.4967  1.4106  0.3779
 5729SOL    HW223025   7.492   6.948   1.350 -0.4369  1.9284 -0.2537
 5730SOL     OW23026   4.782   8.375  10.092 -0.0370  0.0167 -0.1404
 5730SOL    HW123027   4.766   8.444  10.027 -0.6704  0.1837  0.1752
 5730SOL    HW223028   4.830   8.419  10.162 -0.5144  0.1669  0.0993
 5731SOL     OW23029  11.450  11.449   0.824  0.5321  0.8257  0.0678
 5731SOL    HW123030  11.416  11.426   0.910 -0.6474 -0.1294 -0.6338
 5731SOL    HW223031  11.518  11.384   0.807 -0.4105 -0.0400 -0.4374
 5732SOL     OW23032   5.201   7.240   3.039  0.3393 -0.1885 -0.0980
 5732SOL    HW123033   5.213   7.147   3.056  1.2010 -0.1128 -0.2516
 5732SOL    HW223034   5.230   7.252   2.949  1.6353  0.4682  0.3769
 5733SOL     OW23035   4.794   0.213   2.854  0.2068  0.7594 -0.2580
 5733SOL    HW123036   4.865   0.269   2.824 -0.0658  0.5064 -1.4147
 5733SOL    HW223037   4.815   0.126   2.819 -0.0144  0.3938  0.4721
 5734SOL     OW23038  10.434  11.132   5.029 -0.3772  0.1570  0.3051
 5734SOL    HW123039  10.522  11.170   5.030 -0.5844  0.6459  1.2928
 5734SOL    HW223040  10.380  11.199   4.988 -0.3989  0.1301  0.2903
 5735SOL     OW23041  12.185   4.695   7.688  0.2939  0.1963 -0.5494
 5735SOL    HW123042  12.176   4.680   7.782  0.1199  1.2221 -0.3920
 5735SOL    HW223043  12.271   4.659   7.667  0.3305 -0.0527 -0.0040
 5736SOL     OW23044   3.910   8.007   0.161  0.0481  0.3018  0.4919
 5736SOL    HW123045   3.868   7.922   0.170  1.0858 -0.0067  3.0944
 5736SOL    HW223046   3.983   7.992   0.101 -1.3750  0.0453 -1.2464
 5737SOL     OW23047   0.018   0.306   0.660 -0.5028  0.1977  0.1579
 5737SOL    HW123048  -0.049   0.245   0.690 -1.1077  1.1313  0.7137
 5737SOL    HW223049   0.053   0.265   0.580 -1.6601 -0.3356 -0.0893
 5738SOL     OW23050   8.689   7.880   2.784 -0.2673 -0.0779  0.5387
 5738SOL    HW123051   8.639   7.833   2.717  0.2491  0.7969 -0.4845
 5738SOL    HW223052   8.773   7.835   2.787  0.6158  1.2982 -1.1763
 5739SOL     OW23053   6.708   3.146   5.939  0.3616  0.3043 -0.1319
 5739SOL    HW123054   6.798   3.177   5.945  0.3935  0.0796  0.6467
 5739SOL    HW223055   6.716   3.051   5.928  0.2202  0.2286  0.3867
 5740SOL     OW23056   3.117   3.958  11.382 -0.7473 -0.5745  0.5237
 5740SOL    HW123057   3.033   3.915  11.366 -0.8552  0.2154 -1.2582
 5740SOL    HW223058   3.165   3.948  11.299 -0.0778  1.1404  0.6725
 5741SOL     OW23059  11.089   9.930   2.457  0.3492  0.2479  0.0252
 5741SOL    HW123060  11.128   9.883   2.531  0.0819 -0.1895 -0.1105
 5741SOL    HW223061  11.033   9.866   2.414  0.0194  0.6752 -0.1945
 5742SOL     OW23062   0.211  11.942  11.549  0.2583 -0.5156 -0.2736
 5742SOL    HW123063   0.249  11.998  11.482 -0.7108 -0.6348 -0.9468
 5742SOL    HW223064   0.191  12.001  11.622 -1.0588  0.1175 -1.0988
 5743SOL     OW23065   5.756   2.138   4.566  0.5861  0.0156 -0.3889
 5743SOL    HW123066   5.710   2.179   4.492 -0.3067 -0.1398  0.0785
 5743SOL    HW223067   5.736   2.194   4.640  0.4399 -0.5410 -0.0060
 5744SOL     OW23068  12.119  10.845  10.912  0.0143 -0.0805 -0.3923
 5744SOL    HW123069  12.214  10.848  10.924 -0.2113 -1.0299  2.1557
 5744SOL    HW223070  12.088  10.785  10.979 -2.4859  0.8109 -0.6479
 5745SOL     OW23071   2.461  12.269   4.388  0.3764  0.3566  0.0853
 5745SOL    HW123072   2.413  12.336   4.339 -2.0374 -1.1437  0.2757
 5745SOL    HW223073   2.416  12.187   4.368  0.7165 -0.6453  3.0023
 5746SOL     OW23074   1.482   1.436   2.826 -0.3651  0.3584  0.1335
 5746SOL    HW123075   1.575   1.422   2.808  0.1664  2.9707  0.3572
 5746SOL    HW223076   1.461   1.516   2.777 -3.1276 -1.3867 -1.7898
 5747SOL     OW23077   4.281   3.876   7.802  1.0128  0.0536  0.6338
 5747SOL    HW123078   4.188   3.877   7.779  0.8246  0.2262  1.3615
 5747SOL    HW223079   4.326   3.896   7.720  0.4176 -0.1941  0.2358
 5748SOL     OW23080   1.312   7.745   8.884 -0.1458  0.8291 -0.5547
 5748SOL    HW123081   1.251   7.678   8.853  0.7371  0.4782 -1.5894
 5748SOL    HW223082   1.399   7.706   8.871  0.5088  2.9376 -3.1960
 5749SOL     OW23083   2.556   8.062   5.360  0.3358  0.1900  0.2715
 5749SOL    HW123084   2.575   7.970   5.381 -0.1815  0.1251  0.4676
 5749SOL    HW223085   2.636   8.094   5.317 -0.0680 -0.7949 -1.2790
 5750SOL     OW23086   1.861   2.852   0.307 -0.1334 -0.1738 -0.2551
 5750SOL    HW123087   1.905   2.910   0.369 -1.3458  0.6893 -0.1634
 5750SOL    HW223088   1.907   2.866   0.224  0.0828  0.3291 -0.0525
 5751SOL     OW23089   1.976   3.918  10.685 -0.7553 -0.2341  0.0995
 5751SOL    HW123090   1.890   3.881  10.705 -0.4938 -0.5054  0.7344
 5751SOL    HW223091   1.964   3.958  10.599 -1.1344 -1.5293 -0.4887
 5752SOL     OW23092   1.803  11.400   2.412  0.0582  1.2074 -0.1549
 5752SOL    HW123093   1.766  11.331   2.357 -1.2864  0.9447  1.0246
 5752SOL    HW223094   1.823  11.471   2.352 -0.2293  0.4754 -1.1352
 5753SOL     OW23095   8.553   5.189   1.554  0.7671 -0.0465 -0.4546
 5753SOL    HW123096   8.578   5.098   1.535 -0.9510 -0.7514  0.4373
 5753SOL    HW223097   8.529   5.225   1.469 -0.1003 -0.9660 -0.6248
 5754SOL     OW23098   1.448   3.447  11.111 -0.3589  0.1661 -0.3804
 5754SOL    HW123099   1.511   3.442  11.039 -0.4029 -0.0994 -0.4040
 5754SOL    HW223100   1.444   3.357  11.144 -0.5910  0.2199 -0.2649
 5755SOL     OW23101   4.838   5.284   8.396 -0.0540 -0.4619 -0.1632
 5755SOL    HW123102   4.903   5.264   8.328  0.1135  0.9461 -0.4654
 5755SOL    HW223103   4.891   5.316   8.470 -0.3448  0.0361 -0.1627
 5756SOL     OW23104   9.850  10.529   4.790 -0.0043 -0.3502  0.5076
 5756SOL    HW123105   9.945  10.541   4.790 -0.0211  0.0155  2.3138
 5756SOL    HW223106   9.818  10.596   4.729  0.8139  0.3697  0.8449
 5757SOL     OW23107   7.581  10.262  12.009 -0.0546 -0.2418  0.3312
 5757SOL    HW123108   7.586  10.246  12.103  2.2233  0.9476  0.4795
 5757SOL    HW223109   7.499  10.310  11.997 -1.0813 -1.6276  1.4640
 5758SOL     OW23110   7.582   7.692  11.577  0.4252 -0.0235  0.4071
 5758SOL    HW123111   7.542   7.659  11.496 -1.0864  0.9184  0.7441
 5758SOL    HW223112   7.660   7.638  11.588  0.1077 -0.8593 -1.1291
 5759SOL     OW23113  12.156   0.025   1.555  0.0089  0.0880  0.0023
 5759SOL    HW123114  12.245   0.003   1.529  0.1730 -0.0022  0.6155
 5759SOL    HW223115  12.138   0.108   1.513  0.2498 -0.0740 -0.4212
 5760SOL     OW23116   4.653   7.736  10.467  0.3468 -0.4415 -0.2245
 5760SOL    HW123117   4.586   7.716  10.402 -0.1964  0.7165 -0.0343
 5760SOL    HW223118   4.667   7.830  10.460  1.1801 -0.4970  0.4844
 5761SOL     OW23119   4.817  10.015   1.072  0.0739 -0.1082  0.0209
 5761SOL    HW123120   4.742   9.962   1.098 -0.2327  0.4974  0.4138
 5761SOL    HW223121   4.888   9.953   1.061 -0.1643 -0.5552  0.9056
 5762SOL     OW23122   0.444  10.167  11.101 -0.2324 -0.8427  0.0656
 5762SOL    HW123123   0.510  10.151  11.034 -1.7053  0.3818 -1.7794
 5762SOL    HW223124   0.494  10.189  11.180  1.5999  1.0953 -1.5321
 5763SOL     OW23125  10.173  11.698   8.019 -0.2933  0.3534 -0.1455
 5763SOL    HW123126  10.266  11.676   8.006 -0.4107 -0.2698 -0.0014
 5763SOL    HW223127  10.144  11.635   8.086 -1.1352 -0.3110 -1.1064
 5764SOL     OW23128   1.813   4.867   8.210  0.1747  0.4818  0.5332
 5764SOL    HW123129   1.801   4.809   8.285  0.5450  0.8085  0.8512
 5764SOL    HW223130   1.744   4.932   8.219 -0.9330 -0.5217 -0.4306
 5765SOL     OW23131   1.253   4.369  11.945  0.4877  0.0177  0.4300
 5765SOL    HW123132   1.209   4.316  12.011  0.4723  0.3127  0.6606
 5765SOL    HW223133   1.291   4.442  11.995 -1.4221  1.4883 -0.1385
 5766SOL     OW23134   8.016   1.377   1.241 -0.0538 -0.0588 -0.0663
 5766SOL    HW123135   8.029   1.452   1.183 -1.8841 -0.2096 -0.7444
 5766SOL    HW223136   8.041   1.302   1.187 -2.3283 -0.2496 -0.9418
 5767SOL     OW23137   6.907   4.380   7.639 -0.0592  0.2822  0.2469
 5767SOL    HW123138   6.913   4.384   7.735 -0.2953  0.7668  0.2441
 5767SOL    HW223139   6.976   4.439   7.608  0.0572  0.0781  0.1177
 5768SOL     OW23140   3.933  11.157   2.409  0.5454 -0.3471  0.0048
 5768SOL    HW123141   3.968  11.069   2.397  2.3613  0.1088  1.5709
 5768SOL    HW223142   3.948  11.200   2.324 -0.2191 -1.4567 -0.7233
 5769SOL     OW23143   4.125   2.712   0.233 -0.1716 -0.0891 -0.0109
 5769SOL    HW123144   4.212   2.708   0.192 -0.3841  0.2344 -0.5026
 5769SOL    HW223145   4.091   2.798   0.208 -1.1116 -0.6718 -0.8098
 5770SOL     OW23146  10.731   0.606   5.322  0.0918 -0.3701  0.1478
 5770SOL    HW123147  10.712   0.515   5.345  0.1395 -0.5778 -0.6142
 5770SOL    HW223148  10.665   0.657   5.369 -0.6283 -0.8840 -0.2781
 5771SOL     OW23149  10.602   0.809   6.819  0.2190  0.0079 -0.0234
 5771SOL    HW123150  10.598   0.763   6.736 -0.2232 -2.2149  1.1416
 5771SOL    HW223151  10.693   0.837   6.827 -0.2993  2.8932 -2.4866
 5772SOL     OW23152   0.608   8.223   8.027 -0.2325  0.3335 -0.6008
 5772SOL    HW123153   0.555   8.156   7.983 -1.0481 -0.0302  0.8611
 5772SOL    HW223154   0.552   8.300   8.029 -0.4987  0.1364  0.3825
 5773SOL     OW23155   8.066  10.660   7.242  0.4934  0.2383  0.1144
 5773SOL    HW123156   8.015  10.653   7.161 -0.5996  1.7585  0.6340
 5773SOL    HW223157   8.113  10.577   7.248  0.8564  0.2247 -2.2380
 5774SOL     OW23158   8.799   3.559   4.338 -0.1106  0.5324 -0.2420
 5774SOL    HW123159   8.704   3.568   4.326 -0.0521  0.5035 -0.7336
 5774SOL    HW223160   8.837   3.629   4.285  0.0624  2.4492  2.1971
 5775SOL     OW23161  12.291   0.077   4.701  0.0493 -0.1837  0.1617
 5775SOL    HW123162  12.330   0.000   4.658  0.6449  0.4159 -0.4026
 5775SOL    HW223163  12.359   0.144   4.694 -1.3847  1.1857 -1.6815
 5776SOL     OW23164   4.767  11.333   6.619 -0.0876  0.2982 -0.2711
 5776SOL    HW123165   4.757  11.264   6.684 -0.4620  0.5084 -0.1046
 5776SOL    HW223166   4.702  11.399   6.643 -0.3943  0.2705 -0.9983
 5777SOL     OW23167   3.329  11.113   0.623  0.4471 -0.1453 -0.2419
 5777SOL    HW123168   3.310  11.202   0.651  1.5828  0.1674 -0.3978
 5777SOL    HW223169   3.247  11.080   0.587 -0.2809  0.4388  0.8309
 5778SOL     OW23170   5.260   7.968   6.156  0.1891  0.3890  0.5732
 5778SOL    HW123171   5.179   8.001   6.116 -0.2118 -1.5003 -0.3050
 5778SOL    HW223172   5.322   7.962   6.084  1.1469  1.8157  1.2430
 5779SOL     OW23173   1.261  11.164   3.998  0.1490 -0.1818 -0.0113
 5779SOL    HW123174   1.345  11.143   3.955 -0.0218 -0.4030 -0.2423
 5779SOL    HW223175   1.211  11.082   3.993  0.0446 -0.1433  0.4196
 5780SOL     OW23176  11.312   8.084  11.449  0.0127  0.0539  0.2435
 5780SOL    HW123177  11.255   8.087  11.526  2.0688  0.9686  1.8246
 5780SOL    HW223178  11.398   8.060  11.483  0.8822 -0.1288 -1.8851
 5781SOL     OW23179   0.371  12.015   6.770 -0.0159 -0.4887  0.0316
 5781SOL    HW123180   0.456  12.057   6.764  0.1261 -0.8167 -0.2725
 5781SOL    HW223181   0.356  11.978   6.683  0.0079 -1.3279  0.3731
 5782SOL     OW23182   4.156   2.542   8.326 -0.3524  0.1284  0.0553
 5782SOL    HW123183   4.230   2.498   8.285  0.9188  2.0115  0.1767
 5782SOL    HW223184   4.092   2.553   8.256 -0.1749 -0.7906 -0.2553
 5783SOL     OW23185  11.286   6.076   2.963  0.5175 -0.7381  0.1037
 5783SOL    HW123186  11.288   6.139   2.891  0.9906  0.5531  1.2020
 5783SOL    HW223187  11.374   6.039   2.965  0.6875 -0.3130  0.4156
 5784SOL     OW23188   5.644  11.532  10.380 -0.5145 -0.0196 -0.3976
 5784SOL    HW123189   5.621  11.614  10.336  1.0709  0.3893 -0.5364
 5784SOL    HW223190   5.740  11.531  10.380 -0.4990 -1.4327  0.4373
 5785SOL     OW23191   7.210   3.667  12.313  0.0422  0.2315 -0.6215
 5785SOL    HW123192   7.259   3.593  12.348 -0.1254 -0.6143 -2.0673
 5785SOL    HW223193   7.218   3.735  12.379 -0.5061 -1.3356  1.1611
 5786SOL     OW23194   0.390  11.679   2.464  0.4423  0.4801  0.1217
 5786SOL    HW123195   0.320  11.660   2.402  0.8145 -0.0238 -0.1477
 5786SOL    HW223196   0.378  11.616   2.535  1.5849 -0.7191 -0.7010
 5787SOL     OW23197  11.711   7.948   7.429  0.1618 -0.2791 -0.4532
 5787SOL    HW123198  11.793   7.971   7.386 -0.3890  0.1421 -1.2860
 5787SOL    HW223199  11.648   7.936   7.358 -0.3401 -1.2997  0.1312
 5788SOL     OW23200  11.341   4.158   5.657 -0.2946  0.0840 -0.0678
 5788SOL    HW123201  11.424   4.200   5.678 -0.6697  0.4313  0.8113
 5788SOL    HW223202  11.330   4.091   5.725 -1.0182  0.4632  0.2051
 5789SOL     OW23203  11.606   6.641   2.242  0.0066 -0.4592 -0.1482
 5789SOL    HW123204  11.636   6.571   2.300  2.5655 -0.0138 -0.8398
 5789SOL    HW223205  11.640   6.619   2.156  1.2238  1.7540 -0.3283
 5790SOL     OW23206   5.125   3.232   5.773 -0.1819  0.0696  0.2720
 5790SOL    HW123207   5.155   3.298   5.711  1.0337 -1.2997 -0.6573
 5790SOL    HW223208   5.045   3.269   5.810  1.5238  2.9897  1.3734
 5791SOL     OW23209   1.430  12.070  10.282  0.2376 -0.1179 -0.4379
 5791SOL    HW123210   1.466  12.114  10.205 -0.2240  0.6562 -0.2193
 5791SOL    HW223211   1.505  12.055  10.339  0.5218 -0.3489 -0.8684
 5792SOL     OW23212   6.699  10.500   7.160 -0.2023  0.2551 -0.5224
 5792SOL    HW123213   6.722  10.548   7.240 -2.2170  0.1840  0.1777
 5792SOL    HW223214   6.638  10.558   7.114 -3.1578 -1.7151  0.6283
 5793SOL     OW23215   0.044   6.595   0.910 -0.4781  0.6945 -0.4339
 5793SOL    HW123216  -0.041   6.557   0.930  0.0098 -0.3906 -0.3679
 5793SOL    HW223217   0.023   6.675   0.862 -1.5297  0.1036 -1.0060
 5794SOL     OW23218   8.748  10.404   9.310  0.2108 -0.2999  0.2355
 5794SOL    HW123219   8.706  10.395   9.396  1.2198  1.7337  0.9975
 5794SOL    HW223220   8.791  10.320   9.295  0.9244 -0.3373  2.2375
 5795SOL     OW23221   6.546   4.195   5.574 -0.1285 -0.0973  0.1732
 5795SOL    HW123222   6.569   4.281   5.539 -0.7917  0.4787  1.0960
 5795SOL    HW223223   6.471   4.212   5.631  0.4612 -1.1057  1.2835
 5796SOL     OW23224  11.881   0.923  11.404  0.4972  0.0725 -0.1705
 5796SOL    HW123225  11.925   1.000  11.370 -0.7270  0.5050 -0.8622
 5796SOL    HW223226  11.809   0.908  11.342 -1.4895  0.5525  1.9069
 5797SOL     OW23227   4.273   5.993   5.990  0.0370 -0.5143 -0.0773
 5797SOL    HW123228   4.179   6.003   6.005  0.2446  0.2627  0.8500
 5797SOL    HW223229   4.313   6.029   6.069  1.1191 -0.8303 -0.4662
 5798SOL     OW23230  10.655   9.975   0.249  0.6164  0.5190 -0.1186
 5798SOL    HW123231  10.587  10.014   0.194 -1.3258 -0.5663  1.3564
 5798SOL    HW223232  10.645   9.881   0.236  2.2232  0.3415 -0.2453
 5799SOL     OW23233   0.585   2.793  10.158 -0.2015  0.1502 -0.0549
 5799SOL    HW123234   0.495   2.767  10.138 -0.1350 -1.3280  1.3030
 5799SOL    HW223235   0.607   2.857  10.091 -1.1495 -1.8527 -2.4334
 5800SOL     OW23236   2.731   0.094  11.718 -0.1208  0.5952  0.2022
 5800SOL    HW123237   2.687   0.065  11.797  2.2308 -0.8412  1.0966
 5800SOL    HW223238   2.799   0.155  11.748 -0.4138  1.5398 -0.9426
 5801SOL     OW23239   7.038   6.985   7.757 -0.0560 -0.0281  0.0348
 5801SOL    HW123240   7.122   6.980   7.803 -0.1058  2.2994  0.5392
 5801SOL    HW223241   7.056   7.044   7.684 -0.4321 -2.2798 -1.9671
 5802SOL     OW23242   9.336   3.869   4.469 -0.5251  0.2717  0.1966
 5802SOL    HW123243   9.410   3.930   4.467  1.1281 -1.6438 -1.2789
 5802SOL    HW223244   9.263   3.918   4.431  1.0602  1.0300 -2.1217
 5803SOL     OW23245   4.184   2.906   6.105 -0.2486  0.2539 -0.2371
 5803SOL    HW123246   4.131   2.861   6.038 -0.3650 -0.4967  0.3465
 5803SOL    HW223247   4.241   2.837   6.139 -2.1453 -0.1212  2.4602
 5804SOL     OW23248   0.009  12.225   8.180  0.4321 -0.5502 -0.2239
 5804SOL    HW123249  -0.013  12.202   8.089  1.2252 -3.0505  0.1258
 5804SOL    HW223250   0.044  12.314   8.174  0.1584 -0.5139 -2.3096
 5805SOL     OW23251   3.086  11.449  10.778  0.0221 -0.3691  0.4346
 5805SOL    HW123252   3.092  11.539  10.812  0.4460 -1.2239  2.7950
 5805SOL    HW223253   3.071  11.395  10.856 -1.0600 -2.2848 -1.0274
 5806SOL     OW23254   5.882   7.560   7.956  0.4065 -0.3085  0.7471
 5806SOL    HW123255   5.892   7.544   7.862 -0.4819  0.5964  0.4808
 5806SOL    HW223256   5.969   7.583   7.987  0.6908 -0.5592  0.1265
 5807SOL     OW23257   3.414   0.412   5.944  0.0297  0.2635 -0.4598
 5807SOL    HW123258   3.469   0.469   5.997 -0.5127 -1.5981  2.3541
 5807SOL    HW223259   3.473   0.343   5.914  0.0264  0.4926 -1.0038
 5808SOL     OW23260   2.950   3.822   1.761  0.0229 -0.2366 -0.1814
 5808SOL    HW123261   2.882   3.864   1.814  0.0222  0.0544 -0.4064
 5808SOL    HW223262   2.985   3.893   1.707  1.6378  0.0020  1.0872
 5809SOL     OW23263  10.497   6.016   6.530  0.2410  0.3466  0.3393
 5809SOL    HW123264  10.407   6.008   6.562  0.2718 -2.0696 -0.0051
 5809SOL    HW223265  10.551   5.988   6.604  0.6659  0.8734  0.2303
 5810SOL     OW23266  11.905   2.987   6.723 -0.1826  0.1464  0.5315
 5810SOL    HW123267  11.968   3.043   6.769  0.8244 -0.5610  0.0341
 5810SOL    HW223268  11.857   3.048   6.667  1.6466  0.4267 -0.8391
 5811SOL     OW23269   2.843   5.448  10.568 -0.2319  0.3331 -0.6220
 5811SOL    HW123270   2.834   5.357  10.594  1.0016  0.2712 -0.3074
 5811SOL    HW223271   2.905   5.484  10.632 -0.3762  1.2717 -0.9979
 5812SOL     OW23272  10.638   0.378   9.417  0.0048 -0.6425  0.3917
 5812SOL    HW123273  10.682   0.396   9.500  0.3531 -0.9831  0.2803
 5812SOL    HW223274  10.634   0.463   9.374  1.2490 -0.7309  0.0663
 5813SOL     OW23275   1.081   2.518   6.063  0.1869  0.2891 -0.1212
 5813SOL    HW123276   1.138   2.509   6.139  0.2128  1.8818  0.0789
 5813SOL    HW223277   1.120   2.460   5.997  1.8453  1.0253  0.1496
 5814SOL     OW23278   0.271   9.159   4.092  0.3077 -0.0343  0.5963
 5814SOL    HW123279   0.245   9.104   4.166  0.0362  0.2693  0.7310
 5814SOL    HW223280   0.355   9.123   4.063  1.1407  0.7325  1.9557
 5815SOL     OW23281  11.855  11.221   7.987 -0.1000  0.1882 -0.8126
 5815SOL    HW123282  11.803  11.182   7.917  0.5701 -0.6679 -0.8544
 5815SOL    HW223283  11.945  11.194   7.968  0.1398  0.2663  0.1640
 5816SOL     OW23284  11.358   5.975   0.651 -0.0563  0.0848  0.0297
 5816SOL    HW123285  11.448   5.998   0.630 -0.0361  0.6986  0.7410
 5816SOL    HW223286  11.346   5.887   0.615  1.0677 -0.3168  0.5872
 5817SOL     OW23287   0.918  10.275   5.069  0.6785 -0.3784 -0.2401
 5817SOL    HW123288   0.990  10.217   5.095  1.4580  0.3121 -0.8251
 5817SOL    HW223289   0.846  10.251   5.128  1.5303 -0.7394  0.6840
 5818SOL     OW23290   9.387   8.094   7.306 -0.2283  0.0403  0.9631
 5818SOL    HW123291   9.366   8.181   7.340  0.7866  0.9059 -0.4792
 5818SOL    HW223292   9.421   8.111   7.218 -2.7971 -2.0397 -0.5691
 5819SOL     OW23293   2.348   1.803   6.898  0.3217 -0.1230 -0.0389
 5819SOL    HW123294   2.257   1.792   6.925  0.2804  0.3717  0.0375
 5819SOL    HW223295   2.353   1.895   6.870  0.3324 -0.6358 -1.8318
 5820SOL     OW23296  11.364  11.511   4.225  0.0926 -0.1615  0.3960
 5820SOL    HW123297  11.431  11.538   4.287 -0.1755 -0.7100  0.9386
 5820SOL    HW223298  11.286  11.562   4.250 -0.0136 -0.3789  0.5109
 5821SOL     OW23299   8.064   8.156  10.757  0.3743  0.6624  0.1808
 5821SOL    HW123300   8.086   8.159  10.663  1.1273 -0.6167  0.2941
 5821SOL    HW223301   8.002   8.084  10.765  0.7852  0.3685  0.7600
 5822SOL     OW23302   0.285   2.812   4.743 -0.5960 -0.0100 -0.6066
 5822SOL    HW123303   0.357   2.763   4.782  1.1317  2.9547  0.2876
 5822SOL    HW223304   0.306   2.815   4.650 -0.5731 -0.6843 -0.6292
 5823SOL     OW23305   0.173   9.051  11.759  0.3066  0.0700 -0.4750
 5823SOL    HW123306   0.268   9.041  11.753  0.1991 -0.6843 -1.0522
 5823SOL    HW223307   0.156   9.142  11.736  0.7800 -0.1595 -1.8229
 5824SOL     OW23308  12.198   5.200   7.257 -0.3140  0.1944  0.3697
 5824SOL    HW123309  12.205   5.295   7.269  0.9861  0.2044 -0.3347
 5824SOL    HW223310  12.218   5.163   7.343  0.5629  0.5130  0.3071
 5825SOL     OW23311   5.735   5.674   6.716  0.0244  0.1554 -0.0690
 5825SOL    HW123312   5.754   5.767   6.716  0.6178  0.0419  0.4464
 5825SOL    HW223313   5.751   5.646   6.807  0.5851 -0.5957 -0.3900
 5826SOL     OW23314   9.330   0.966   6.990  0.0668  0.5572  0.6459
 5826SOL    HW123315   9.419   0.938   7.008 -0.0871  0.8833  2.0741
 5826SOL    HW223316   9.280   0.939   7.067 -1.0971  0.3029 -0.1626
 5827SOL     OW23317   1.930  10.431  10.703 -0.0872 -0.4554 -0.1286
 5827SOL    HW123318   1.953  10.395  10.788  0.2803  1.1923  0.5024
 5827SOL    HW223319   2.012  10.466  10.668 -0.5231  0.2737 -0.4545
 5828SOL     OW23320   0.091   3.751   2.239  0.3835  0.4318  0.0107
 5828SOL    HW123321   0.084   3.658   2.261  0.1061  0.0604 -1.5472
 5828SOL    HW223322   0.068   3.755   2.146  1.1852  1.9523 -0.1384
 5829SOL     OW23323   3.466   1.508   1.887  0.5846  0.1425 -0.5282
 5829SOL    HW123324   3.494   1.466   1.806 -0.5156 -0.8936 -0.4043
 5829SOL    HW223325   3.377   1.536   1.870  0.8641  1.3065 -0.1624
 5830SOL     OW23326   9.455  10.101   9.643 -0.2133 -0.4484  0.3962
 5830SOL    HW123327   9.407  10.172   9.601 -0.3278 -1.4858 -1.3523
 5830SOL    HW223328   9.419  10.096   9.731  0.1551  1.9542  0.7232
 5831SOL     OW23329   1.257   9.073  11.256  0.0193  0.0283 -0.5328
 5831SOL    HW123330   1.168   9.071  11.221  0.4349 -0.9149 -1.5974
 5831SOL    HW223331   1.260   9.001  11.318 -0.2094  0.6223  0.1819
 5832SOL     OW23332   0.539   7.775   2.432  0.2819 -0.0921  0.0830
 5832SOL    HW123333   0.493   7.760   2.349  2.5998  2.3052 -1.8306
 5832SOL    HW223334   0.617   7.719   2.427 -0.1462 -0.8210  1.2396
 5833SOL     OW23335   9.222   7.969   6.116 -0.3965  0.1546  0.3755
 5833SOL    HW123336   9.222   8.023   6.037 -0.8790 -0.3518  0.0336
 5833SOL    HW223337   9.160   7.899   6.098 -1.2518  0.5721  1.5710
 5834SOL     OW23338   9.438   6.846   3.982  0.2032 -0.3409 -0.6649
 5834SOL    HW123339   9.371   6.912   3.964 -0.2479 -0.3755  0.7592
 5834SOL    HW223340   9.390   6.763   3.979  0.3901 -0.4510 -0.5926
 5835SOL     OW23341  10.377   8.286   4.775  0.2762 -0.1803  0.0092
 5835SOL    HW123342  10.430   8.262   4.699  0.0452  0.3421 -0.3239
 5835SOL    HW223343  10.440   8.295   4.847  0.4249 -1.2525  0.0272
 5836SOL     OW23344   4.351   3.168   6.747 -0.4524  0.0355  0.3253
 5836SOL    HW123345   4.281   3.125   6.796 -1.5055  1.6621  0.3275
 5836SOL    HW223346   4.322   3.164   6.655  1.4269 -2.8476 -0.2662
 5837SOL     OW23347   9.828   4.441   7.285 -0.3960 -0.1425 -0.2894
 5837SOL    HW123348   9.868   4.499   7.221 -0.7546 -0.8484 -1.1706
 5837SOL    HW223349   9.743   4.418   7.247 -0.6400 -0.5208  0.4647
 5838SOL     OW23350   5.495  11.240  12.047  0.1399 -0.3205  0.4281
 5838SOL    HW123351   5.543  11.196  11.976  2.0791  0.4878  1.1777
 5838SOL    HW223352   5.558  11.301  12.084 -0.9011 -0.5429  2.7048
 5839SOL     OW23353   0.651   4.191   0.550  0.0813  0.2108 -0.3002
 5839SOL    HW123354   0.686   4.117   0.599 -2.3793 -0.3598  0.7792
 5839SOL    HW223355   0.642   4.260   0.615  1.0366  1.0023 -0.9937
 5840SOL     OW23356   8.852   6.056   9.425  0.1299  0.0671  0.2067
 5840SOL    HW123357   8.915   6.118   9.461  0.2058  0.2619 -0.2554
 5840SOL    HW223358   8.905   5.984   9.391  0.4009  1.5993 -2.9635
 5841SOL     OW23359   3.556   0.658   8.913 -0.5882  0.4541  0.1960
 5841SOL    HW123360   3.544   0.565   8.932 -1.4749  0.5389  0.1200
 5841SOL    HW223361   3.468   0.689   8.891 -0.0710  0.9883 -1.2360
 5842SOL     OW23362   1.466   4.397   9.042 -0.0953  0.2847  0.2183
 5842SOL    HW123363   1.472   4.409   8.947 -0.0857  1.7265  0.3804
 5842SOL    HW223364   1.402   4.463   9.070 -0.2140 -0.2369  1.1983
 5843SOL     OW23365   1.602   8.225   6.596 -0.2033  0.0588  0.3772
 5843SOL    HW123366   1.634   8.148   6.643  0.3937  0.4994  0.7043
 5843SOL    HW223367   1.681   8.274   6.573 -0.4127 -0.4857 -1.7153
 5844SOL     OW23368   2.738   8.539  10.774  0.0238 -0.0088 -0.1346
 5844SOL    HW123369   2.772   8.468  10.828  0.8366  1.0313  0.7713
 5844SOL    HW223370   2.728   8.613  10.835 -2.2144  0.2517 -0.7392
 5845SOL     OW23371   8.163   7.157   7.308  0.4245 -0.4542  0.1828
 5845SOL    HW123372   8.152   7.092   7.238  0.2004  0.6039 -0.7861
 5845SOL    HW223373   8.109   7.231   7.281  1.5815  0.6129  0.6783
 5846SOL     OW23374   5.573   2.015   2.092 -0.0203 -0.0855 -0.1262
 5846SOL    HW123375   5.595   1.931   2.131 -0.2566  0.3847  1.0526
 5846SOL    HW223376   5.526   1.993   2.012 -0.6863 -1.0735  0.5257
 5847SOL     OW23377   9.565  10.025   2.743 -0.2048 -0.2592  0.8300
 5847SOL    HW123378   9.563  10.083   2.820 -3.2372 -1.9220  2.1790
 5847SOL    HW223379   9.613   9.948   2.773  0.4685 -0.0558  0.3042
 5848SOL     OW23380   8.352   1.679   8.025 -1.2986 -0.4980 -0.5743
 5848SOL    HW123381   8.265   1.652   8.054 -1.8301  0.6173 -1.0984
 5848SOL    HW223382   8.357   1.650   7.934 -0.9391 -0.9631 -0.4102
 5849SOL     OW23383   0.780   1.431   4.698  0.8558 -0.0932  0.7310
 5849SOL    HW123384   0.732   1.362   4.743  0.1605 -0.2099 -0.1675
 5849SOL    HW223385   0.771   1.507   4.754 -0.5584 -0.0606  0.4823
 5850SOL     OW23386   4.648   7.358   7.203  0.4029 -0.0416  0.0730
 5850SOL    HW123387   4.606   7.315   7.128 -1.0528 -0.0537  0.8647
 5850SOL    HW223388   4.665   7.288   7.265  0.2479  0.1644  0.3534
 5851SOL     OW23389   7.780   7.675   5.437  0.7180  0.3303 -0.0887
 5851SOL    HW123390   7.781   7.582   5.461  0.9816  0.0784 -1.0112
 5851SOL    HW223391   7.695   7.707   5.468  0.7234 -0.1560  0.4468
 5852SOL     OW23392   5.736   6.750   0.958  0.0825 -0.2605 -0.2885
 5852SOL    HW123393   5.758   6.741   1.051  2.2019 -0.3719 -0.7670
 5852SOL    HW223394   5.694   6.667   0.935  0.9453 -0.8459  0.2077
 5853SOL     OW23395  12.137   8.567   8.357  0.3401 -0.1671  0.4634
 5853SOL    HW123396  12.122   8.599   8.268  1.2168 -0.2512  0.2677
 5853SOL    HW223397  12.192   8.635   8.397  0.6486 -0.5269  0.6579
 5854SOL     OW23398   0.129   3.477   4.073  0.0500  0.4007  0.5716
 5854SOL    HW123399   0.204   3.511   4.122 -0.2423  1.2297  0.4568
 5854SOL    HW223400   0.053   3.520   4.113 -0.4692 -1.0995  1.2719
 5855SOL     OW23401  11.620   0.673   2.606 -0.0458 -0.1765 -0.7786
 5855SOL    HW123402  11.679   0.728   2.658 -0.9860  1.8123 -1.6916
 5855SOL    HW223403  11.674   0.601   2.576  1.3052  0.3228  0.3374
 5856SOL     OW23404   8.741   9.842  10.757  0.2057 -0.1463  0.2494
 5856SOL    HW123405   8.828   9.875  10.781  0.6156 -1.3403  0.5008
 5856SOL    HW223406   8.733   9.759  10.805 -1.2518  0.1437  0.5641
 5857SOL     OW23407   8.978   5.962   3.849  0.3021  0.0234  0.2255
 5857SOL    HW123408   8.954   5.968   3.941 -2.3683  0.2636 -0.4144
 5857SOL    HW223409   8.962   5.871   3.825 -0.1435  0.2243 -0.2715
 5858SOL     OW23410   5.354   9.604   5.716 -0.6596  0.6217  0.2134
 5858SOL    HW123411   5.273   9.607   5.666 -0.8972 -0.2500  0.5101
 5858SOL    HW223412   5.420   9.643   5.659 -0.7607 -1.0290 -1.1182
 5859SOL     OW23413   4.575  12.121   7.553  0.4801  0.3522 -0.5496
 5859SOL    HW123414   4.643  12.180   7.585 -0.3532  0.7654  0.5371
 5859SOL    HW223415   4.588  12.040   7.603  0.3612  0.3347 -0.5469
 5860SOL     OW23416  12.219   3.088   5.975 -0.0103  0.2054  0.4458
 5860SOL    HW123417  12.276   3.128   6.041 -1.7533  0.4849  1.8595
 5860SOL    HW223418  12.154   3.156   5.955 -0.5043 -0.4734 -0.2862
 5861SOL     OW23419   9.758   9.132   6.711  0.5669 -0.0335 -0.1732
 5861SOL    HW123420   9.675   9.108   6.752  0.8677 -2.4480 -0.8215
 5861SOL    HW223421   9.793   9.202   6.766 -1.3215  0.2009  0.7937
 5862SOL     OW23422   4.780  10.402   2.788 -0.4253  0.2594 -0.0864
 5862SOL    HW123423   4.765  10.493   2.765 -0.5676 -0.0462 -1.3125
 5862SOL    HW223424   4.835  10.368   2.717  3.0770  0.3848  2.3174
 5863SOL     OW23425   7.998   1.904   8.370  0.3259  0.5331 -0.6155
 5863SOL    HW123426   7.934   1.966   8.335 -0.8897 -0.0252  0.5709
 5863SOL    HW223427   7.955   1.819   8.365  1.3500 -0.0017 -0.6803
 5864SOL     OW23428  11.427   5.755   0.046  0.6280 -0.1109 -0.0059
 5864SOL    HW123429  11.481   5.833   0.054  1.7864 -0.9806  0.9522
 5864SOL    HW223430  11.401   5.752  -0.047  0.8316  1.2166 -0.1107
 5865SOL     OW23431   2.304   0.728   3.499  0.1011  0.1321  0.1961
 5865SOL    HW123432   2.265   0.807   3.538  0.4179  0.8793 -0.9335
 5865SOL    HW223433   2.261   0.721   3.413  0.4200 -0.6618  0.0999
 5866SOL     OW23434   6.480  11.498   8.508 -0.1730  0.0928 -0.1633
 5866SOL    HW123435   6.501  11.589   8.489  1.2907 -0.1456  0.2517
 5866SOL    HW223436   6.418  11.473   8.439 -0.1921  1.2328 -0.5793
 5867SOL     OW23437  11.970   1.491   9.626  0.2285 -0.3855  0.0551
 5867SOL    HW123438  11.878   1.512   9.611  0.2889  0.1592  0.4224
 5867SOL    HW223439  11.975   1.469   9.719  0.4706 -0.4237  0.0326
 5868SOL     OW23440   9.964   4.494   6.755  0.1780  0.4838  0.2185
 5868SOL    HW123441  10.044   4.449   6.784 -0.8777 -1.6628 -0.0215
 5868SOL    HW223442   9.924   4.434   6.693 -1.7360  1.4311  0.4660
 5869SOL     OW23443   8.652   7.217   5.257  0.0901  0.1374  0.2714
 5869SOL    HW123444   8.571   7.258   5.229  0.7209  0.7418 -0.6987
 5869SOL    HW223445   8.667   7.147   5.194  1.7017  1.7285 -1.2157
 5870SOL     OW23446   3.356   0.651  10.777  0.1243 -0.5704  0.0580
 5870SOL    HW123447   3.394   0.697  10.702 -0.5312  0.2187  0.1845
 5870SOL    HW223448   3.424   0.651  10.844 -0.0975  0.9353  0.3308
 5871SOL     OW23449   4.832   2.703   5.841 -0.0412  0.2398 -0.2539
 5871SOL    HW123450   4.917   2.741   5.865  0.1987  1.6210 -2.8239
 5871SOL    HW223451   4.768   2.764   5.877  0.2530  1.3710 -1.5231
 5872SOL     OW23452   1.015   7.868  10.292 -0.9753  0.5081  0.0437
 5872SOL    HW123453   0.962   7.851  10.370 -1.2097  0.7578 -0.0619
 5872SOL    HW223454   0.956   7.914  10.232 -0.6094  0.8823 -0.0337
 5873SOL     OW23455   9.123   0.908   7.195  0.0876  0.0305 -0.3574
 5873SOL    HW123456   9.153   0.984   7.244 -1.4111  1.0062 -0.8694
 5873SOL    HW223457   9.098   0.844   7.262  0.0061  0.5393  0.1032
 5874SOL     OW23458   4.553  11.004  10.006 -0.0508  0.6796  0.2332
 5874SOL    HW123459   4.561  11.086   9.958  3.5838  0.9607  1.0143
 5874SOL    HW223460   4.632  10.955   9.982 -1.7134 -2.3461  0.3653
 5875SOL     OW23461   2.495   9.610   0.475  0.1601 -0.3931 -0.1527
 5875SOL    HW123462   2.578   9.606   0.521  0.4308 -1.4396 -0.6901
 5875SOL    HW223463   2.432   9.569   0.534  0.3603 -1.0647 -0.3932
 5876SOL     OW23464   7.939   4.451   2.064  0.2897  0.0344  0.1587
 5876SOL    HW123465   7.865   4.482   2.116  0.6420  0.1594  0.5865
 5876SOL    HW223466   8.011   4.510   2.087  0.6891 -0.4755  0.2093
 5877SOL     OW23467   4.827  12.166   0.537 -0.2029  0.2570 -0.0539
 5877SOL    HW123468   4.916  12.144   0.564 -0.2232  0.5781  0.2723
 5877SOL    HW223469   4.777  12.086   0.553 -0.4325  0.7282  1.8125
 5878SOL     OW23470   2.377   1.565   0.812  0.1755 -0.1643  1.0074
 5878SOL    HW123471   2.347   1.560   0.721  2.8108  0.5700 -0.0081
 5878SOL    HW223472   2.341   1.647   0.845 -0.8925 -0.4869  0.6677
 5879SOL     OW23473   6.704   6.580   0.553 -0.2637 -0.4171  0.1842
 5879SOL    HW123474   6.654   6.633   0.616  0.6007 -1.1078  1.4839
 5879SOL    HW223475   6.794   6.612   0.561  0.1179 -1.5135  0.3902
 5880SOL     OW23476   8.431  10.845   5.623 -0.0767  0.2135 -0.0340
 5880SOL    HW123477   8.447  10.939   5.626 -0.4195  0.2629  0.4031
 5880SOL    HW223478   8.366  10.830   5.692 -0.7484 -0.2075 -0.7461
 5881SOL     OW23479   1.361   4.324   3.687 -0.7175 -0.3114  0.2149
 5881SOL    HW123480   1.387   4.384   3.757 -0.3123  0.0052 -0.1993
 5881SOL    HW223481   1.312   4.379   3.626 -0.7251 -0.4986  0.0503
 5882SOL     OW23482   6.249   8.011   3.659  0.2048 -0.2061 -0.2273
 5882SOL    HW123483   6.223   7.953   3.730 -1.1642 -0.2188 -0.7062
 5882SOL    HW223484   6.322   7.966   3.617  0.1424 -0.8485  0.3313
 5883SOL     OW23485   6.136  11.747   0.452  0.5212  0.4081 -0.3882
 5883SOL    HW123486   6.156  11.809   0.382  0.2602 -0.0061 -0.8368
 5883SOL    HW223487   6.107  11.668   0.407  0.2929  0.1521  0.1896
 5884SOL     OW23488   3.448   7.911   7.396 -0.6098 -0.1038 -1.0124
 5884SOL    HW123489   3.491   7.925   7.480 -1.4500 -0.5968 -0.4877
 5884SOL    HW223490   3.480   7.982   7.340 -0.7053  0.7370 -0.0154
 5885SOL     OW23491   1.638  10.562   0.751  0.3431  0.3052 -0.7628
 5885SOL    HW123492   1.627  10.649   0.791  1.7510  1.1617 -2.1091
 5885SOL    HW223493   1.733  10.546   0.756  0.4517  0.0275 -2.7950
 5886SOL     OW23494  10.718  11.095   6.961 -0.2981 -0.9646  0.8686
 5886SOL    HW123495  10.677  11.013   6.934  1.6514 -2.0728  1.1199
 5886SOL    HW223496  10.692  11.106   7.053 -0.0559 -1.6335  1.0193
 5887SOL     OW23497   3.434  11.622  10.346  0.3883  0.5115 -0.9033
 5887SOL    HW123498   3.357  11.678  10.351  0.1703  0.2461 -1.2440
 5887SOL    HW223499   3.487  11.660  10.276  1.0424  1.2725 -0.0098
 5888SOL     OW23500   0.976   7.907   8.146 -0.7817 -0.1444 -0.4822
 5888SOL    HW123501   1.002   7.843   8.080 -1.2021  0.7817 -1.5872
 5888SOL    HW223502   1.042   7.899   8.215  0.2879 -0.4074 -1.5041
 5889SOL     OW23503   6.473   1.345   8.576  0.1217 -0.1989 -0.3245
 5889SOL    HW123504   6.478   1.357   8.482 -1.6356 -0.2621 -0.4545
 5889SOL    HW223505   6.550   1.391   8.610  1.1356 -0.7324 -1.8078
 5890SOL     OW23506   1.444   7.253   0.295  0.4336 -0.1894  0.4251
 5890SOL    HW123507   1.420   7.190   0.227 -1.7252  0.8117  0.1682
 5890SOL    HW223508   1.362   7.297   0.316  1.6853  1.8598  1.2927
 5891SOL     OW23509   0.174   7.787   5.672 -0.3254 -0.2573 -0.4046
 5891SOL    HW123510   0.123   7.722   5.624 -1.6466  1.0672 -0.9013
 5891SOL    HW223511   0.141   7.871   5.640  0.3397  0.6718  1.2084
 5892SOL     OW23512   8.183   4.839   1.094  0.4433  0.0775 -0.3908
 5892SOL    HW123513   8.114   4.779   1.122  1.1581  0.0556  1.5480
 5892SOL    HW223514   8.198   4.818   1.002  0.4718 -2.5684  0.1220
 5893SOL     OW23515   2.855   2.825   6.094 -0.0141 -0.2232  0.2783
 5893SOL    HW123516   2.900   2.814   6.178  1.0820 -0.1165 -0.2735
 5893SOL    HW223517   2.849   2.736   6.058  2.0967  0.0020 -0.7904
 5894SOL     OW23518  10.687  11.102   1.474 -0.3767 -0.1877  0.0025
 5894SOL    HW123519  10.718  11.069   1.558 -0.4797  1.4238  0.7053
 5894SOL    HW223520  10.604  11.056   1.459 -1.0098  0.4245  1.4241
 5895SOL     OW23521   8.200  12.198   8.989  0.2752 -0.1104 -0.5866
 5895SOL    HW123522   8.221  12.118   9.038  0.3958  0.2851  0.0180
 5895SOL    HW223523   8.108  12.189   8.966 -0.4049  0.6800  1.6394
 5896SOL     OW23524   1.447   9.462  12.291 -0.9454  0.1364 -0.4312
 5896SOL    HW123525   1.371   9.427  12.338  0.6599 -0.0819  2.1621
 5896SOL    HW223526   1.487   9.523  12.352  1.4731 -0.4114 -1.3558
 5897SOL     OW23527   9.676   1.199   3.672 -0.2622 -0.0373  0.3491
 5897SOL    HW123528   9.698   1.116   3.630  0.2493  0.2814 -0.0300
 5897SOL    HW223529   9.587   1.187   3.704  0.4052 -1.3598  1.8875
 5898SOL     OW23530   5.916   9.364   8.247  0.1633 -0.2428 -0.0069
 5898SOL    HW123531   5.989   9.305   8.230 -1.5111 -2.2170 -0.8383
 5898SOL    HW223532   5.877   9.380   8.160 -1.6328 -1.0077  0.6081
 5899SOL     OW23533   8.648   0.797  10.137 -0.3077  0.2744 -0.1094
 5899SOL    HW123534   8.657   0.758  10.224  0.7778 -0.4595 -0.5255
 5899SOL    HW223535   8.577   0.748  10.096  0.5989 -0.8529 -0.3869
 5900SOL     OW23536   6.427   1.793   1.827 -0.0708 -0.1057 -0.4166
 5900SOL    HW123537   6.410   1.871   1.774  0.7260  0.7467  0.5472
 5900SOL    HW223538   6.355   1.792   1.891  0.0693 -0.0021 -0.2568
 5901SOL     OW23539   1.749  11.095   4.655  0.3952  0.5977 -0.2016
 5901SOL    HW123540   1.837  11.065   4.631  1.5969  3.1875  0.6668
 5901SOL    HW223541   1.709  11.119   4.571  0.1171 -1.4616 -0.6999
 5902SOL     OW23542  10.420   4.287   3.762  0.3576  0.0779  0.1246
 5902SOL    HW123543  10.502   4.303   3.716 -1.5604  2.7595 -2.7626
 5902SOL    HW223544  10.409   4.362   3.821 -0.4241  0.2355 -0.2067
 5903SOL     OW23545  11.600   1.291   7.571  0.3415 -0.2763 -0.3154
 5903SOL    HW123546  11.634   1.208   7.536  5.1134  1.2844 -0.1113
 5903SOL    HW223547  11.618   1.287   7.665  0.2283  0.8265 -0.2350
 5904SOL     OW23548   8.840   8.573   3.398 -0.0852  0.1311  0.2828
 5904SOL    HW123549   8.827   8.659   3.438 -0.3674  1.3466 -2.2090
 5904SOL    HW223550   8.904   8.589   3.328 -0.0528 -1.7264 -0.1619
 5905SOL     OW23551   6.853   3.820  11.623 -0.3353  0.0554  0.5283
 5905SOL    HW123552   6.890   3.890  11.676  1.2849  1.0099 -1.6787
 5905SOL    HW223553   6.911   3.814  11.547 -1.6714 -2.2203 -0.4397
 5906SOL     OW23554   7.888  10.777   2.494 -0.0553 -0.0498 -0.0952
 5906SOL    HW123555   7.804  10.796   2.451  0.3597  0.1216 -0.8462
 5906SOL    HW223556   7.879  10.686   2.525  0.4496 -1.0462 -2.6172
 5907SOL     OW23557   2.765   9.971   7.035 -0.0174 -0.4547 -0.0029
 5907SOL    HW123558   2.714   9.962   6.955 -0.9422 -1.0251  0.6304
 5907SOL    HW223559   2.851   9.934   7.013  0.2926  0.9047 -1.2025
 5908SOL     OW23560   8.338   1.133   8.986 -0.0367 -0.2951 -0.5518
 5908SOL    HW123561   8.294   1.069   9.042 -0.1264 -0.0221 -0.3089
 5908SOL    HW223562   8.340   1.092   8.900  0.7141 -1.0194 -0.2062
 5909SOL     OW23563   0.501   5.059   6.651  0.2180  0.5224 -0.0047
 5909SOL    HW123564   0.413   5.061   6.613  0.5368 -0.4813 -0.8401
 5909SOL    HW223565   0.549   5.127   6.603  0.0772  0.6243 -0.0032
 5910SOL     OW23566   4.604   3.529   4.973  0.0154 -0.0149 -0.0016
 5910SOL    HW123567   4.510   3.548   4.974  0.3303  1.7541  0.0289
 5910SOL    HW223568   4.610   3.435   4.989 -1.6979  0.0545  1.3208
 5911SOL     OW23569   9.437   2.932   2.020 -0.0223  0.5015  0.4732
 5911SOL    HW123570   9.506   2.891   2.073 -0.0530  0.0059  0.1369
 5911SOL    HW223571   9.364   2.943   2.081 -0.3184 -0.7450  0.3825
 5912SOL     OW23572   2.875   2.976   6.594  0.0587 -0.6372  0.3561
 5912SOL    HW123573   2.831   3.060   6.587 -0.1574 -0.7051  0.8918
 5912SOL    HW223574   2.805   2.911   6.599  0.1542 -1.1241 -2.5557
 5913SOL     OW23575  11.086   9.656   3.812  0.2832 -0.4104 -0.2845
 5913SOL    HW123576  11.063   9.645   3.905  1.6513 -1.5149 -0.0331
 5913SOL    HW223577  11.048   9.579   3.769  0.6075 -0.4930 -0.4291
 5914SOL     OW23578   4.413   2.092   8.326 -0.1355 -0.1461  0.0510
 5914SOL    HW123579   4.490   2.063   8.375 -0.0348  1.0674  0.6519
 5914SOL    HW223580   4.338   2.056   8.374 -0.0806  1.6499  1.6338
 5915SOL     OW23581   1.035  11.382   1.925  0.2384  0.0997 -0.1301
 5915SOL    HW123582   0.973  11.452   1.945  0.5819  0.7025 -1.0814
 5915SOL    HW223583   0.991  11.329   1.858  0.1199 -0.4033  0.3352
 5916SOL     OW23584   2.185   2.048   7.633 -0.1923  0.0160  0.3240
 5916SOL    HW123585   2.108   2.100   7.609 -0.0188 -0.2056 -0.8038
 5916SOL    HW223586   2.198   2.065   7.726 -1.9569 -0.3946  0.6885
 5917SOL     OW23587   6.655   7.029   6.884 -0.4176  0.0003  0.0317
 5917SOL    HW123588   6.613   6.961   6.937 -1.4015  0.0984 -0.5979
 5917SOL    HW223589   6.588   7.055   6.820  0.4895  0.4181 -0.7759
 5918SOL     OW23590  10.085   0.046   0.694  0.3946  0.2314  0.0287
 5918SOL    HW123591  10.076   0.130   0.739 -0.9709 -0.2842  0.7891
 5918SOL    HW223592  10.168   0.010   0.726 -0.1190  0.2782  1.4862
 5919SOL     OW23593   2.626   1.570   1.708 -0.0903  0.6750  0.9411
 5919SOL    HW123594   2.623   1.599   1.800 -2.0351 -0.2774  1.2283
 5919SOL    HW223595   2.718   1.555   1.691  0.5368  2.7015  2.1361
 5920SOL     OW23596   4.918   8.935  10.461  0.3106  0.6417  0.3071
 5920SOL    HW123597   4.967   9.016  10.446 -0.2206  0.8054 -0.5965
 5920SOL    HW223598   4.983   8.866  10.449  0.8729  0.9214  1.5177
 5921SOL     OW23599   8.055   7.868   5.776  0.2889 -0.4559 -0.2374
 5921SOL    HW123600   8.126   7.891   5.717  1.3942 -0.6363  0.9708
 5921SOL    HW223601   8.074   7.778   5.803 -0.7478 -0.7366 -0.3701
 5922SOL     OW23602  11.803   0.557   3.826  0.4845 -0.3401 -0.1574
 5922SOL    HW123603  11.733   0.605   3.782  0.3907 -1.7313 -1.6205
 5922SOL    HW223604  11.873   0.550   3.760  1.6298  0.1944  0.9522
 5923SOL     OW23605   7.492   0.783   3.260 -0.8152  0.1965  0.0231
 5923SOL    HW123606   7.557   0.712   3.251  0.1179  0.9763  0.3990
 5923SOL    HW223607   7.536   0.848   3.316 -1.0797  1.7245 -1.4852
 5924SOL     OW23608   2.389   8.676   7.509  0.2124 -0.1123 -0.3114
 5924SOL    HW123609   2.315   8.730   7.483 -0.8909 -0.4955  1.7830
 5924SOL    HW223610   2.458   8.697   7.447 -1.3961  0.8437 -1.8455
 5925SOL     OW23611   9.554  11.106   7.297  0.2521 -0.2646  0.1267
 5925SOL    HW123612   9.576  11.157   7.376 -0.8393  1.1785 -0.4567
 5925SOL    HW223613   9.631  11.050   7.283  0.6450 -0.2636  1.9717
 5926SOL     OW23614   3.405   6.157  10.317  0.4076 -0.5633  0.3767
 5926SOL    HW123615   3.372   6.116  10.397  1.0207  0.7928  1.3695
 5926SOL    HW223616   3.498   6.136  10.316  0.2659 -1.1644 -0.3604
 5927SOL     OW23617   7.687  11.410   9.888  0.3041 -0.1122 -0.2259
 5927SOL    HW123618   7.629  11.368   9.824 -0.4898  1.7771 -0.8101
 5927SOL    HW223619   7.654  11.381   9.973 -1.4920  0.8444 -0.5442
 5928SOL     OW23620  11.427   3.270   9.531  0.3348 -0.3011 -0.1444
 5928SOL    HW123621  11.385   3.194   9.572  1.0107  0.0957  1.3862
 5928SOL    HW223622  11.520   3.260   9.552  0.5927  0.3600 -0.9191
 5929SOL     OW23623   7.632  10.279   0.806 -0.3667  0.7848 -0.4146
 5929SOL    HW123624   7.677  10.284   0.890 -0.3609  0.2766 -0.3857
 5929SOL    HW223625   7.540  10.265   0.828 -0.0530 -1.7420 -0.4989
 5930SOL     OW23626   6.158   2.875   1.699 -0.3256 -0.1516 -0.4952
 5930SOL    HW123627   6.077   2.844   1.659 -0.3270  1.2563 -1.6841
 5930SOL    HW223628   6.209   2.796   1.716 -2.2822 -1.1477  1.1008
 5931SOL     OW23629   3.095   9.801   4.617  0.1993 -0.0936  0.5565
 5931SOL    HW123630   3.058   9.813   4.705  1.1442  0.4273  0.8994
 5931SOL    HW223631   3.189   9.813   4.629  0.5167 -1.6221 -0.2516
 5932SOL     OW23632   3.564   5.869   8.315 -0.3410 -0.4028  0.6847
 5932SOL    HW123633   3.567   5.962   8.294 -0.6892 -0.3353  0.9105
 5932SOL    HW223634   3.475   5.842   8.292  0.2122 -1.0389 -0.8163
 5933SOL     OW23635   7.650   6.585   0.041  0.3687 -0.5396 -0.4718
 5933SOL    HW123636   7.731   6.606  -0.005 -1.1467 -1.2553 -3.7662
 5933SOL    HW223637   7.656   6.491   0.058  0.2788 -0.5736 -0.6254
 5934SOL     OW23638  11.354  11.016   0.995 -0.8522  0.2375 -0.7827
 5934SOL    HW123639  11.384  11.106   1.005 -0.8300  0.0250  1.9246
 5934SOL    HW223640  11.265  11.023   0.961 -0.8534  1.2897 -0.5816
 5935SOL     OW23641   2.561   4.435   1.652  0.6750 -0.1611  0.4480
 5935SOL    HW123642   2.590   4.383   1.577  0.2397  0.5883 -0.2593
 5935SOL    HW223643   2.607   4.518   1.642 -0.1464  0.3032  0.4533
 5936SOL     OW23644  11.409   1.468   2.746 -0.0768  0.3700 -0.7544
 5936SOL    HW123645  11.329   1.508   2.711 -0.1867  1.0803  0.2774
 5936SOL    HW223646  11.464   1.456   2.669 -0.3139  1.8935 -1.1977
 5937SOL     OW23647   9.969   8.523   1.284 -0.1083  0.8183 -0.5715
 5937SOL    HW123648  10.024   8.600   1.292  0.2668  0.6211 -1.2238
 5937SOL    HW223649   9.889   8.555   1.242 -1.3538  1.4986  2.0750
 5938SOL     OW23650  11.409   5.844   1.350  0.3018  0.0076 -0.2381
 5938SOL    HW123651  11.389   5.846   1.444  1.1250  0.8810 -0.0665
 5938SOL    HW223652  11.325   5.824   1.308 -0.0208 -0.6665  0.6939
 5939SOL     OW23653   5.433  10.529   7.029  0.2072  0.4211 -0.0940
 5939SOL    HW123654   5.491  10.459   7.057  0.1515  0.2632 -0.3719
 5939SOL    HW223655   5.354  10.518   7.082  0.2537  0.3640 -0.0361
 5940SOL     OW23656   0.095   7.910  12.095 -0.2361  0.7046 -0.1688
 5940SOL    HW123657   0.126   7.831  12.051  0.5299  1.0443 -0.2610
 5940SOL    HW223658   0.021   7.881  12.147  0.0354 -0.0755 -0.2042
 5941SOL     OW23659  11.513   0.999   6.138  0.1744  0.2188 -0.3386
 5941SOL    HW123660  11.472   1.085   6.146  1.9482  1.2026 -1.1606
 5941SOL    HW223661  11.591   1.015   6.085 -0.4387 -2.2355 -2.1612
 5942SOL     OW23662   2.151   5.349   0.889 -0.4700  0.3500 -0.3217
 5942SOL    HW123663   2.207   5.413   0.845  0.8713 -0.6817 -0.1539
 5942SOL    HW223664   2.095   5.314   0.819  0.5865 -0.1640 -0.9301
 5943SOL     OW23665   2.006   0.492  10.463  0.2456  0.1251  0.1335
 5943SOL    HW123666   1.946   0.422  10.487  0.8187 -0.9225 -1.3827
 5943SOL    HW223667   1.951   0.558  10.421  0.1147 -0.8107 -1.2184
 5944SOL     OW23668  10.614   2.346   6.424  0.3035  0.1117 -0.1506
 5944SOL    HW123669  10.684   2.285   6.400  0.4078 -0.2442  1.0081
 5944SOL    HW223670  10.652   2.433   6.409  1.4201 -0.0481  1.5212
 5945SOL     OW23671   8.706   4.773   0.098  0.4659 -0.0237  0.1690
 5945SOL    HW123672   8.650   4.812   0.031 -0.3627 -0.1876  0.7610
 5945SOL    HW223673   8.669   4.686   0.113  0.3967  0.1616  1.1258
 5946SOL     OW23674  10.754   8.515   7.584  0.0955 -0.0063  0.3421
 5946SOL    HW123675  10.693   8.573   7.629 -0.7182  0.1395 -0.8824
 5946SOL    HW223676  10.701   8.440   7.557  1.4321 -2.2872  3.3670
 5947SOL     OW23677  11.680   3.368   1.264  0.1104  0.4521  0.3977
 5947SOL    HW123678  11.747   3.378   1.196 -0.9002  0.4168 -0.6311
 5947SOL    HW223679  11.721   3.312   1.330  0.9255  0.0485 -0.4312
 5948SOL     OW23680   9.539   9.704   2.852  0.0653 -0.6022  0.3895
 5948SOL    HW123681   9.502   9.772   2.908  0.2773 -0.6079  0.5383
 5948SOL    HW223682   9.628   9.733   2.834 -0.0563 -0.5123 -0.0903
 5949SOL     OW23683   9.077   3.816   3.689 -0.0984 -0.2190 -0.0319
 5949SOL    HW123684   9.025   3.864   3.753 -0.3256  0.3620 -0.6274
 5949SOL    HW223685   9.139   3.881   3.656  0.6285 -0.7568  0.2638
 5950SOL     OW23686   3.763  10.971   8.311 -0.1783  0.0657  0.5232
 5950SOL    HW123687   3.714  10.889   8.313  1.0745 -0.7074  0.4135
 5950SOL    HW223688   3.764  10.996   8.219  0.0042 -0.1429  0.4688
 5951SOL     OW23689   5.423   2.033   8.547  0.2303  0.2207 -0.0152
 5951SOL    HW123690   5.505   2.054   8.501  0.1993  1.3455  0.4002
 5951SOL    HW223691   5.354   2.050   8.482  0.3103 -0.9447 -0.4385
 5952SOL     OW23692  10.485   4.683   6.751 -0.5683 -0.2757  0.0366
 5952SOL    HW123693  10.462   4.768   6.788 -1.3166 -0.3340 -0.2885
 5952SOL    HW223694  10.578   4.673   6.770 -0.3532  0.8411 -0.3523
 5953SOL     OW23695  11.849   5.645   5.439 -0.0156 -0.1098  0.0945
 5953SOL    HW123696  11.843   5.720   5.380 -1.4482 -0.6174 -0.4374
 5953SOL    HW223697  11.904   5.676   5.512  1.3226  0.7018 -1.2022
 5954SOL     OW23698   4.851  10.739   2.381 -0.6688  0.3154 -0.2550
 5954SOL    HW123699   4.833  10.732   2.288  1.7322 -1.2253 -0.7012
 5954SOL    HW223700   4.789  10.805   2.413 -0.4103  2.1806 -3.2226
 5955SOL     OW23701   3.649   6.602   8.850 -0.0805  0.1955 -0.5729
 5955SOL    HW123702   3.650   6.676   8.790 -1.1224  1.0604  0.4444
 5955SOL    HW223703   3.585   6.541   8.812  0.2270  0.1376 -1.0099
 5956SOL     OW23704   1.115   5.309   4.091 -0.0637 -0.1416 -0.1429
 5956SOL    HW123705   1.049   5.351   4.146  0.9268  0.8922  0.3034
 5956SOL    HW223706   1.071   5.232   4.055 -1.7238  0.8649 -0.3868
 5957SOL     OW23707   0.271   6.218   6.199  0.5107 -0.1977  0.3197
 5957SOL    HW123708   0.337   6.255   6.141  3.3961 -1.2164  2.7267
 5957SOL    HW223709   0.260   6.284   6.268 -1.1006 -0.0317 -0.0451
 5958SOL     OW23710   4.809   4.665   1.481 -0.8734  0.1121  0.1543
 5958SOL    HW123711   4.872   4.592   1.486  0.5451  0.9944 -2.7286
 5958SOL    HW223712   4.727   4.628   1.514  0.5563 -1.7543  1.9203
 5959SOL     OW23713   7.602  11.310   3.809 -0.2131 -0.1334  0.4166
 5959SOL    HW123714   7.542  11.384   3.799 -0.8205 -0.7642 -0.7009
 5959SOL    HW223715   7.685  11.351   3.835 -0.6985  0.8787  0.4375
 5960SOL     OW23716  11.379   0.028   1.690  0.2666  0.3530 -0.1506
 5960SOL    HW123717  11.370   0.025   1.595 -2.3469  0.7873  0.0123
 5960SOL    HW223718  11.289   0.029   1.723  1.0571 -1.4422  2.4119
 5961SOL     OW23719   3.462   5.383   7.682  0.0829 -0.2999 -0.2282
 5961SOL    HW123720   3.444   5.296   7.645 -0.6347  0.0380 -0.7133
 5961SOL    HW223721   3.525   5.422   7.621  0.3761 -0.4666 -0.0311
 5962SOL     OW23722   2.269   3.328   0.804  0.2574 -0.8681  0.1884
 5962SOL    HW123723   2.240   3.410   0.763  0.7184 -1.1400 -0.7104
 5962SOL    HW223724   2.297   3.354   0.891 -0.0771 -0.1493  0.0914
 5963SOL     OW23725   6.282   9.328   2.901  0.7322 -0.5878  1.0000
 5963SOL    HW123726   6.195   9.348   2.868  1.0878 -1.5403 -0.6432
 5963SOL    HW223727   6.325   9.414   2.906  0.4307 -0.3175 -0.4495
 5964SOL     OW23728   9.964   1.103   4.061 -0.7483  0.0778  0.0653
 5964SOL    HW123729  10.039   1.049   4.088 -0.0699  1.3934  0.9396
 5964SOL    HW223730   9.896   1.083   4.125  0.0780  1.4518  1.4579
 5965SOL     OW23731   3.617  10.359  10.747 -0.1636 -0.7748 -0.3153
 5965SOL    HW123732   3.644  10.362  10.655 -0.9003  0.3699 -0.5112
 5965SOL    HW223733   3.534  10.313  10.746 -0.8844  0.4929 -0.4245
 5966SOL     OW23734   0.124   4.164   4.545 -0.0345 -0.1070  0.3664
 5966SOL    HW123735   0.141   4.076   4.509  0.4221 -0.0736  0.4968
 5966SOL    HW223736   0.062   4.203   4.484 -0.0550 -0.4342  0.1740
 5967SOL     OW23737   0.756   6.547   8.124 -0.5182  0.2779 -0.2305
 5967SOL    HW123738   0.822   6.606   8.087  0.3241  1.1699  2.4388
 5967SOL    HW223739   0.775   6.462   8.084  1.4400  0.7955 -0.5074
 5968SOL     OW23740   0.703   8.447   0.909 -0.0100 -0.4082  0.1014
 5968SOL    HW123741   0.659   8.505   0.971  1.9516  0.0590  1.1295
 5968SOL    HW223742   0.685   8.485   0.823  2.2370  2.5733  0.8086
 5969SOL     OW23743   9.767  10.645   6.971 -0.2746 -0.4578  0.1874
 5969SOL    HW123744   9.855  10.668   6.942 -0.8982 -0.5423 -1.9423
 5969SOL    HW223745   9.717  10.635   6.890 -2.1258 -0.9124  1.3277
 5970SOL     OW23746   4.232  11.453   9.958  0.2371  0.0725  0.2922
 5970SOL    HW123747   4.140  11.438   9.982  0.8511 -2.3394  1.3913
 5970SOL    HW223748   4.266  11.508  10.028 -0.2702  0.7448  0.0256
 5971SOL     OW23749   4.386   4.836  10.886  0.0281  0.0016  0.0765
 5971SOL    HW123750   4.304   4.880  10.864 -0.3175 -0.4876  0.3464
 5971SOL    HW223751   4.366   4.785  10.965  1.2010  1.5870  1.4626
 5972SOL     OW23752   3.585   2.610   6.122  0.3476  0.9474  0.4299
 5972SOL    HW123753   3.662   2.667   6.130  0.0834  1.0305  3.4636
 5972SOL    HW223754   3.514   2.670   6.099  1.0436  0.9242 -2.0158
 5973SOL     OW23755   4.749   9.626  11.657 -0.1671  0.6528 -0.3913
 5973SOL    HW123756   4.676   9.573  11.689 -1.1676  3.0202  1.5635
 5973SOL    HW223757   4.727   9.643  11.565  0.4846 -2.6128 -1.2760
 5974SOL     OW23758   6.527   0.446   0.634 -0.0882  0.7632 -0.3685
 5974SOL    HW123759   6.526   0.365   0.584 -1.8865  1.0367 -0.8374
 5974SOL    HW223760   6.618   0.455   0.664  0.1210 -1.4464 -0.2095
 5975SOL     OW23761   3.139   5.035   9.798 -0.1701  0.1873  0.8272
 5975SOL    HW123762   3.114   5.003   9.884 -1.2805  1.8588  1.1799
 5975SOL    HW223763   3.189   5.115   9.815 -1.1292  1.0173 -0.0434
 5976SOL     OW23764   1.506   9.403   2.814  0.2927  0.3619 -0.2890
 5976SOL    HW123765   1.551   9.482   2.845  0.3645 -0.2879  1.3414
 5976SOL    HW223766   1.455   9.374   2.889 -1.8324  0.3150 -1.6750
 5977SOL     OW23767   3.453   0.529   4.123  0.4961  0.2101 -0.3716
 5977SOL    HW123768   3.513   0.603   4.135  0.0583  0.5127  0.0139
 5977SOL    HW223769   3.430   0.503   4.212  1.2791 -0.9254 -0.4861
 5978SOL     OW23770   1.001   5.873   3.701  0.5711 -0.2150 -0.6201
 5978SOL    HW123771   1.034   5.873   3.611  1.0634 -0.9021 -0.4483
 5978SOL    HW223772   0.908   5.855   3.693  0.9398 -2.2003 -0.8995
 5979SOL     OW23773   8.864   2.064   5.579  0.2651  0.0489  0.1510
 5979SOL    HW123774   8.847   2.142   5.526 -1.5655  0.8006  1.6945
 5979SOL    HW223775   8.785   2.011   5.570  0.6484 -0.6392  0.7210
 5980SOL     OW23776   6.160  10.142   4.623  0.0171 -0.2666 -0.1453
 5980SOL    HW123777   6.192  10.217   4.673 -1.5930  0.1546  0.2967
 5980SOL    HW223778   6.065  10.153   4.619 -0.1013 -1.3826 -1.5487
 5981SOL     OW23779   0.765   3.106   0.049 -0.0517  0.5152 -0.3848
 5981SOL    HW123780   0.688   3.155   0.079  0.3451 -0.1206  1.8196
 5981SOL    HW223781   0.825   3.173   0.017  0.1392  1.4714  1.7998
 5982SOL     OW23782  10.243  11.147   0.232  0.2900 -0.2560  0.0126
 5982SOL    HW123783  10.190  11.070   0.211 -0.2768 -0.0066  0.5231
 5982SOL    HW223784  10.296  11.161   0.153  0.6428 -1.3608  0.0270
 5983SOL     OW23785   6.573   3.595  11.794  0.4498 -0.2190 -0.2345
 5983SOL    HW123786   6.620   3.677  11.780  2.7982 -1.6664 -1.4930
 5983SOL    HW223787   6.527   3.607  11.877  1.1345  2.1656 -0.1430
 5984SOL     OW23788   5.656   6.755   9.211  0.1942 -0.1488 -0.3790
 5984SOL    HW123789   5.741   6.799   9.202  0.8255 -1.2246  0.0848
 5984SOL    HW223790   5.647   6.703   9.131 -0.4522  0.6622 -0.8347
 5985SOL     OW23791   5.536   7.578   8.441  0.2515 -0.2906  0.5328
 5985SOL    HW123792   5.456   7.591   8.389  0.7581 -0.2088 -0.2541
 5985SOL    HW223793   5.544   7.483   8.447 -1.2904 -0.3580  2.8609
 5986SOL     OW23794   7.255   6.440   0.907 -0.1290  0.1566  0.0781
 5986SOL    HW123795   7.239   6.420   0.999  1.0203  1.0814  0.5022
 5986SOL    HW223796   7.257   6.355   0.864 -0.7921 -0.2791  0.8801
 5987SOL     OW23797   8.454   3.392   9.600 -0.3732  0.1489  0.0667
 5987SOL    HW123798   8.484   3.302   9.595  0.0675  0.3474 -0.9580
 5987SOL    HW223799   8.534   3.444   9.612 -0.1617  0.7166 -3.1064
 5988SOL     OW23800   5.105   2.217  11.550  0.4907 -0.0881 -0.1396
 5988SOL    HW123801   5.138   2.271  11.622  0.0990 -0.3435  0.2337
 5988SOL    HW223802   5.012   2.206  11.568  0.0260  1.1726 -1.5362
 5989SOL     OW23803   2.363   5.052   1.550 -0.4215  0.0717  0.2645
 5989SOL    HW123804   2.436   5.036   1.491  0.0797  0.6067  0.7233
 5989SOL    HW223805   2.294   5.089   1.494  0.2813  1.2108  0.1050
 5990SOL     OW23806  12.153   8.392   1.837  0.9389 -0.3716 -0.1311
 5990SOL    HW123807  12.138   8.472   1.786 -1.7002  0.3893  1.6329
 5990SOL    HW223808  12.244   8.398   1.865  0.6529  2.4460  0.5343
 5991SOL     OW23809   4.573   4.696   1.005 -0.3023  0.0429  0.4594
 5991SOL    HW123810   4.553   4.617   0.956  0.0263  0.0766  0.2731
 5991SOL    HW223811   4.567   4.767   0.941 -0.7595  0.1924  0.6583
 5992SOL     OW23812   3.049  10.996  10.873  0.0516  0.4190  0.1119
 5992SOL    HW123813   2.989  11.057  10.830  0.6288  0.5793 -0.4844
 5992SOL    HW223814   3.042  10.915  10.822  0.6976  0.5917 -0.2612
 5993SOL     OW23815   1.025  11.912   8.153 -0.6737 -0.0867 -0.2481
 5993SOL    HW123816   0.982  11.832   8.182 -0.5525  0.7056  2.3836
 5993SOL    HW223817   1.107  11.914   8.202  0.2435  0.7016 -1.7543
 5994SOL     OW23818   2.205   2.472   2.908  0.1986  0.6299 -0.1132
 5994SOL    HW123819   2.184   2.565   2.899  0.2550  0.5096 -1.7038
 5994SOL    HW223820   2.287   2.460   2.861 -0.2656 -0.3878 -0.7084
 5995SOL     OW23821   0.252   0.315   8.481  0.5295 -0.3680  0.6688
 5995SOL    HW123822   0.244   0.283   8.570 -2.6891  1.9508  1.4116
 5995SOL    HW223823   0.319   0.384   8.486  0.7827 -0.6467  1.1405
 5996SOL     OW23824   2.700   7.135   2.811 -0.4072 -0.6370 -0.2935
 5996SOL    HW123825   2.635   7.149   2.741  0.0244  2.2984 -0.2401
 5996SOL    HW223826   2.784   7.147   2.768 -0.1226  0.8011  0.6144
 5997SOL     OW23827   2.339   9.543   0.687 -0.2641  0.5464  0.1700
 5997SOL    HW123828   2.290   9.624   0.703 -0.1686  0.4171  1.1293
 5997SOL    HW223829   2.292   9.477   0.737 -0.1038  0.0753 -0.2914
 5998SOL     OW23830   2.201   7.937   8.438 -0.1438  0.4645 -0.1329
 5998SOL    HW123831   2.187   7.969   8.527 -1.7123  0.0066 -0.1950
 5998SOL    HW223832   2.211   8.017   8.385 -1.9018  0.8518  0.0497
 5999SOL     OW23833  11.690  12.041   4.389  0.1768  0.5238 -0.2169
 5999SOL    HW123834  11.601  12.012   4.409 -0.2487  2.1345  0.4034
 5999SOL    HW223835  11.706  12.111   4.452  2.6247 -0.9850  1.0031
 6000SOL     OW23836   3.852   6.909   8.512  0.0380 -0.1087 -0.5044
 6000SOL    HW123837   3.923   6.964   8.480 -0.3260  1.9051  1.8201
 6000SOL    HW223838   3.778   6.930   8.455  0.4783  0.1605 -0.9846
 6001SOL     OW23839  11.259   4.228   6.805 -0.0131  0.1229  0.1664
 6001SOL    HW123840  11.198   4.208   6.876  0.7595  2.3385  1.5607
 6001SOL    HW223841  11.211   4.287   6.748  0.3346  0.7478  0.5074
 6002SOL     OW23842   2.467   8.386   2.957  0.6858 -0.0343  0.1415
 6002SOL    HW123843   2.506   8.420   3.038 -0.4370  0.1984  0.6101
 6002SOL    HW223844   2.474   8.457   2.895  1.2326 -0.0849  0.1410
 6003SOL     OW23845   3.634   9.970  10.896  0.7784 -0.3182  0.4585
 6003SOL    HW123846   3.545  10.001  10.913 -0.9394 -3.1636 -2.1663
 6003SOL    HW223847   3.663  10.021  10.820  0.8250 -0.3465  0.4571
 6004SOL     OW23848  11.273   4.029   2.765 -0.0927 -0.0542 -0.5067
 6004SOL    HW123849  11.301   3.997   2.851 -0.1800 -0.2079 -0.5355
 6004SOL    HW223850  11.258   3.950   2.714 -0.7521  0.0163 -0.4323
 6005SOL     OW23851   5.117   4.970   3.950 -0.1103 -0.2918  0.9973
 6005SOL    HW123852   5.043   4.928   3.992 -0.0717 -2.3414 -0.8518
 6005SOL    HW223853   5.190   4.908   3.960  0.4788  0.1930 -0.0801
 6006SOL     OW23854   6.969   1.384  10.205 -0.2343 -0.3766 -0.1650
 6006SOL    HW123855   7.017   1.454  10.162 -1.5664 -0.9993 -2.9060
 6006SOL    HW223856   6.955   1.415  10.295  1.1168  1.8371 -0.6483
 6007SOL     OW23857  11.420   0.606  11.930 -0.0870 -0.0887 -0.4195
 6007SOL    HW123858  11.421   0.564  12.016 -1.4319  0.3001 -0.1911
 6007SOL    HW223859  11.503   0.581  11.890  0.3123 -0.7354  0.7703
 6008SOL     OW23860  11.380   1.461   3.566  0.2387  0.2616  0.1146
 6008SOL    HW123861  11.353   1.544   3.606 -0.0134  0.3517 -0.2392
 6008SOL    HW223862  11.389   1.401   3.640 -1.9900 -0.0817  0.1782
 6009SOL     OW23863   4.485   1.158   8.250  0.2331 -0.1398  0.6405
 6009SOL    HW123864   4.530   1.242   8.248 -1.0902  0.6680  1.9081
 6009SOL    HW223865   4.397   1.177   8.216  0.6721 -1.5781 -1.4452
 6010SOL     OW23866   3.202   5.999   0.563 -0.4391  0.0795  0.7372
 6010SOL    HW123867   3.284   5.957   0.590 -0.7341 -2.0992 -1.4034
 6010SOL    HW223868   3.224   6.091   0.554  0.8342  0.1442  3.5221
 6011SOL     OW23869   4.090   7.230   6.537 -0.0747 -0.0473 -0.5560
 6011SOL    HW123870   4.057   7.142   6.518  0.1858 -0.4937  0.8812
 6011SOL    HW223871   4.182   7.216   6.562 -0.4460  0.3885  1.2189
 6012SOL     OW23872   5.032   9.385   2.438  0.7029  0.3764  0.4863
 6012SOL    HW123873   5.072   9.401   2.524  0.1378  1.2608  0.6000
 6012SOL    HW223874   4.938   9.381   2.456  0.6252 -0.0175 -0.0125
 6013SOL     OW23875   6.742   2.903   8.357  0.0609  0.5019  0.6624
 6013SOL    HW123876   6.690   2.830   8.324 -0.1472  0.6782  0.5994
 6013SOL    HW223877   6.780   2.944   8.279  0.6284  0.1291  0.7321
 6014SOL     OW23878   5.125   7.895   4.958 -0.1514  0.7293  0.0496
 6014SOL    HW123879   5.165   7.827   4.904  0.5524  0.7234  0.5511
 6014SOL    HW223880   5.055   7.931   4.904 -1.6619 -1.5129  0.3660
 6015SOL     OW23881  10.872   2.481  12.096  0.2083 -0.2316  0.2076
 6015SOL    HW123882  10.806   2.436  12.043  0.7680 -0.4721 -0.2990
 6015SOL    HW223883  10.932   2.519  12.032  0.0599  0.7798  0.6368
 6016SOL     OW23884   5.419   7.076   5.061  0.4093 -0.4561 -0.3684
 6016SOL    HW123885   5.407   7.154   5.008  1.3583  0.1525  0.2889
 6016SOL    HW223886   5.367   7.092   5.140  1.5686  0.0687  0.3140
 6017SOL     OW23887   4.791   5.488   5.313 -0.4040 -0.1102  0.0278
 6017SOL    HW123888   4.748   5.571   5.334  1.2861  0.7766  0.1922
 6017SOL    HW223889   4.823   5.456   5.398 -1.5773 -1.2854  0.0634
 6018SOL     OW23890   4.423   3.947  12.015 -0.4301 -0.0441 -0.4363
 6018SOL    HW123891   4.335   3.984  12.013 -1.0847 -1.2729  1.9781
 6018SOL    HW223892   4.448   3.948  12.107  0.9450 -2.2742 -0.6984
 6019SOL     OW23893  10.414   5.232   1.172  0.4348 -0.4207  0.2391
 6019SOL    HW123894  10.435   5.295   1.242 -2.4417  1.6773 -0.6121
 6019SOL    HW223895  10.488   5.238   1.112  0.8292  1.2682  0.8300
 6020SOL     OW23896   8.173   5.521  12.321  0.1768  0.1493  0.6130
 6020SOL    HW123897   8.253   5.478  12.290  0.2698  0.6237  0.1739
 6020SOL    HW223898   8.201   5.576  12.394 -0.0260 -0.8974  1.5101
 6021SOL     OW23899   3.361   1.569   9.244  0.1272 -0.6286 -0.2857
 6021SOL    HW123900   3.440   1.537   9.287 -0.1288 -1.0696 -0.1363
 6021SOL    HW223901   3.293   1.506   9.269 -0.5361  0.3680  0.5464
 6022SOL     OW23902   3.199   3.239   7.752 -0.2614  0.0404 -0.0071
 6022SOL    HW123903   3.174   3.301   7.685 -0.6649  0.4489  0.5119
 6022SOL    HW223904   3.121   3.229   7.807 -0.8277 -2.3374 -1.1236
 6023SOL     OW23905   2.415   8.498   4.579 -0.1203 -0.5414  0.4323
 6023SOL    HW123906   2.455   8.585   4.580  1.4780 -1.2086 -1.0537
 6023SOL    HW223907   2.478   8.442   4.625  0.2150 -1.4159 -1.0381
 6024SOL     OW23908   5.258   9.825   7.865 -0.6204  0.2176  0.0587
 6024SOL    HW123909   5.177   9.876   7.868 -0.4392  0.4626  1.2200
 6024SOL    HW223910   5.242   9.758   7.799 -1.3396  0.9675 -0.5545
 6025SOL     OW23911   2.869   6.559  10.488 -0.2350  0.0412  0.0079
 6025SOL    HW123912   2.855   6.483  10.432 -1.4726 -0.0720  0.4352
 6025SOL    HW223913   2.958   6.548  10.521 -0.1300 -0.8209 -0.5288
 6026SOL     OW23914   3.962   1.687   7.416 -0.0303 -0.0648 -0.1384
 6026SOL    HW123915   3.893   1.697   7.350  0.2089 -0.5534 -0.4698
 6026SOL    HW223916   4.034   1.644   7.369  1.7944  3.2678 -0.6931
 6027SOL     OW23917   1.532   0.924   9.137 -0.6368 -0.0223  0.3563
 6027SOL    HW123918   1.572   1.005   9.105  1.9026 -0.3449  2.3386
 6027SOL    HW223919   1.496   0.947   9.223 -3.0253 -0.2573 -0.5124
 6028SOL     OW23920  10.045   0.897   1.269  0.0331  0.2013 -0.2001
 6028SOL    HW123921   9.988   0.971   1.244  0.1499  0.0242 -1.0172
 6028SOL    HW223922   9.994   0.819   1.247 -0.0142  0.0343  0.4899
 6029SOL     OW23923   3.361   9.166   7.258 -0.9085 -0.1239 -0.3149
 6029SOL    HW123924   3.396   9.108   7.190 -1.9277 -0.5205 -0.5389
 6029SOL    HW223925   3.388   9.254   7.232  1.4869 -0.5572  0.5460
 6030SOL     OW23926   4.889   8.491   7.159 -0.3432 -0.2441 -0.1964
 6030SOL    HW123927   4.879   8.436   7.237  0.1283 -0.1941 -0.1010
 6030SOL    HW223928   4.973   8.534   7.170 -0.8500  0.7431 -0.1228
 6031SOL     OW23929   6.973   0.875   2.492 -0.6394 -0.2788 -1.0417
 6031SOL    HW123930   6.880   0.854   2.495 -0.7581  0.1645 -1.5543
 6031SOL    HW223931   7.001   0.848   2.404 -0.6807  1.2036 -1.5371
 6032SOL     OW23932   1.931   5.699   7.225  0.2015  0.2235  0.0997
 6032SOL    HW123933   1.875   5.637   7.272  0.1052  0.1292 -0.1381
 6032SOL    HW223934   1.894   5.702   7.136  0.4859  0.2708 -0.0176
 6033SOL     OW23935   6.991   7.040   4.038 -0.4788 -0.2783 -0.2567
 6033SOL    HW123936   6.948   6.956   4.057 -0.7366 -0.3003 -0.9407
 6033SOL    HW223937   7.051   7.052   4.112  0.8954 -1.9541 -1.0059
 6034SOL     OW23938  10.605  10.150   8.646 -0.9315  0.2023 -0.2016
 6034SOL    HW123939  10.648  10.224   8.603  0.6699  0.4570  1.6729
 6034SOL    HW223940  10.630  10.159   8.739 -3.6018 -0.6989  0.6956
 6035SOL     OW23941   4.322   4.606   8.122  0.5444 -0.4261  0.2589
 6035SOL    HW123942   4.283   4.519   8.111  1.0991 -0.4010 -3.0537
 6035SOL    HW223943   4.404   4.602   8.072 -0.4330  2.5639 -1.8265
 6036SOL     OW23944   6.933  10.703   8.417  0.3281  0.4801  0.1113
 6036SOL    HW123945   6.959  10.698   8.326 -0.3759 -2.3027 -0.0319
 6036SOL    HW223946   6.837  10.707   8.414  0.2426 -0.7142  0.7064
 6037SOL     OW23947   1.718  11.759  11.483  0.2582  0.0994  0.2945
 6037SOL    HW123948   1.749  11.739  11.394 -0.8188  1.5261 -0.4364
 6037SOL    HW223949   1.785  11.722  11.540  2.1077  1.0303 -1.1549
 6038SOL     OW23950   1.416   2.589   4.126 -0.0962  0.4395  0.3420
 6038SOL    HW123951   1.510   2.573   4.122  0.2792  2.6232 -1.9553
 6038SOL    HW223952   1.377   2.524   4.068 -0.0688 -0.5493  1.3950
 6039SOL     OW23953   1.573  10.035   7.394  0.6144  0.0412  0.1040
 6039SOL    HW123954   1.547  10.064   7.306  2.2129  2.2159  0.2506
 6039SOL    HW223955   1.667  10.052   7.397  0.9939 -2.0412  1.5372
 6040SOL     OW23956   1.755   2.269   9.483  0.1750  0.2236 -0.9282
 6040SOL    HW123957   1.765   2.285   9.577 -2.6684 -1.8271 -0.1528
 6040SOL    HW223958   1.834   2.221   9.458 -0.1415 -1.4421  1.0446
 6041SOL     OW23959  12.170   5.673   6.517  0.1452  0.2152  0.3451
 6041SOL    HW123960  12.214   5.712   6.592  3.7239  2.1279 -2.4017
 6041SOL    HW223961  12.089   5.723   6.508 -0.0600  0.3639  2.4762
 6042SOL     OW23962   6.304  11.114   3.012 -0.1830  0.2038  0.1311
 6042SOL    HW123963   6.275  11.147   3.097  1.1259  1.4433  0.1334
 6042SOL    HW223964   6.223  11.091   2.967 -1.0381  1.3789  0.9775
 6043SOL     OW23965   7.829   6.339   7.855  0.5813  0.5077 -0.2652
 6043SOL    HW123966   7.759   6.302   7.802  1.0210 -0.4236 -0.2055
 6043SOL    HW223967   7.794   6.423   7.886 -0.2472  0.3562 -0.7780
 6044SOL     OW23968  12.129   5.838   7.549 -0.4513 -0.0772  0.1691
 6044SOL    HW123969  12.075   5.890   7.608 -0.2150 -0.6286  0.8895
 6044SOL    HW223970  12.148   5.758   7.598 -0.2540 -0.5556 -0.6572
 6045SOL     OW23971   5.279   4.756   0.035 -0.4343 -0.0645 -0.0220
 6045SOL    HW123972   5.322   4.818  -0.025 -1.7162 -0.0604 -0.9755
 6045SOL    HW223973   5.265   4.678  -0.018 -0.5352 -0.4913  0.6245
 6046SOL     OW23974   4.817   3.623   6.977  0.6166  0.1424  0.2076
 6046SOL    HW123975   4.823   3.634   6.882 -0.8501 -0.8176 -0.0210
 6046SOL    HW223976   4.727   3.595   6.992  0.9400 -0.0826  1.8561
 6047SOL     OW23977   2.238  11.688   5.524  0.1311 -0.0015 -0.7425
 6047SOL    HW123978   2.165  11.690   5.586  1.2102  0.7383  0.5633
 6047SOL    HW223979   2.219  11.758   5.462 -0.8676 -0.6278 -1.1749
 6048SOL     OW23980   7.488  11.058   9.365  0.0554  0.3002 -0.0418
 6048SOL    HW123981   7.562  11.075   9.423  0.1095 -1.7104  0.5403
 6048SOL    HW223982   7.529  11.045   9.279  0.3971 -0.7413  0.2641
 6049SOL     OW23983  10.282   2.606   1.855  0.2292 -0.0397  0.4133
 6049SOL    HW123984  10.354   2.669   1.861  1.3086 -0.9355 -1.8230
 6049SOL    HW223985  10.207   2.658   1.826  0.7625  0.4701 -0.0994
 6050SOL     OW23986  11.071  10.797  11.613 -0.3662 -0.5441 -0.1088
 6050SOL    HW123987  11.050  10.709  11.581 -0.3577 -0.4855 -0.2733
 6050SOL    HW223988  10.987  10.843  11.611 -0.0304  0.0487 -1.8698
 6051SOL     OW23989   7.177   8.623   9.976 -0.5759 -0.0542 -0.0621
 6051SOL    HW123990   7.176   8.608   9.881 -0.9424  0.4041 -0.1342
 6051SOL    HW223991   7.165   8.717   9.986  0.7354  0.0886  0.4145
 6052SOL     OW23992  10.900   1.590   3.426  0.2790  0.0143  0.4586
 6052SOL    HW123993  10.811   1.616   3.400  0.1214 -0.5082  0.4583
 6052SOL    HW223994  10.933   1.539   3.353  0.4760 -0.0276  0.5758
 6053SOL     OW23995   5.761  12.314  10.859 -0.4640 -0.2544  0.5817
 6053SOL    HW123996   5.841  12.356  10.826 -0.9804  0.3555  0.0601
 6053SOL    HW223997   5.723  12.378  10.919 -0.2431 -0.7974  1.3010
 6054SOL     OW23998   3.369  10.570   4.631  0.9163  0.2878  0.0675
 6054SOL    HW123999   3.349  10.478   4.652  0.6398  0.1922 -0.6166
 6054SOL    HW224000   3.311  10.620   4.688  0.8139  0.0362  0.1865
 6055SOL     OW24001  12.233   4.632   7.959  0.4612 -0.0172 -0.1972
 6055SOL    HW124002  12.181   4.552   7.971  1.2175 -0.6989 -1.2538
 6055SOL    HW224003  12.196   4.695   8.021 -0.9492 -0.7998 -0.2148
 6056SOL     OW24004   8.966   0.587  12.122  0.0324  0.6764 -0.0996
 6056SOL    HW124005   9.058   0.592  12.096  0.1690 -0.1746  0.1688
 6056SOL    HW224006   8.967   0.606  12.216  0.4327 -2.6034  0.7063
 6057SOL     OW24007   8.097   3.446   7.528  0.7074  0.1906 -0.6357
 6057SOL    HW124008   8.113   3.466   7.620 -2.6051 -0.2486  0.1879
 6057SOL    HW224009   8.173   3.479   7.482  3.8979 -2.0321  2.4724
 6058SOL     OW24010   3.259   4.760   4.217  0.9847  0.1423 -0.3331
 6058SOL    HW124011   3.322   4.828   4.241  1.2641  0.7176 -2.4786
 6058SOL    HW224012   3.199   4.804   4.156  1.1171 -1.4781 -1.6992
 6059SOL     OW24013   0.951   5.820   7.877 -0.0862  0.1082  0.5381
 6059SOL    HW124014   0.894   5.748   7.903 -1.2187  1.8220  3.1917
 6059SOL    HW224015   1.033   5.803   7.922 -0.3142  0.4153  1.0708
 6060SOL     OW24016   9.813   9.163   9.032 -0.5563  0.0244  1.1730
 6060SOL    HW124017   9.790   9.241   9.082 -1.8359  0.4331  0.0374
 6060SOL    HW224018   9.748   9.098   9.058 -0.3215 -0.2319  1.1254
 6061SOL     OW24019   2.521   6.119   7.089  0.0121  0.4150  0.1288
 6061SOL    HW124020   2.546   6.203   7.051 -1.6084  0.6202 -0.5823
 6061SOL    HW224021   2.564   6.054   7.034 -1.4286  0.7369 -1.4571
 6062SOL     OW24022   9.772   8.049   4.545  0.1817 -0.5692  0.0927
 6062SOL    HW124023   9.710   7.985   4.509 -0.9954  0.8595 -0.5652
 6062SOL    HW224024   9.858   8.017   4.518 -0.2420 -2.5084  0.8557
 6063SOL     OW24025   5.667   3.954  11.916 -1.3269 -0.2576 -0.2050
 6063SOL    HW124026   5.587   3.964  11.966 -1.1315  0.5587 -0.0310
 6063SOL    HW224027   5.731   4.009  11.961 -0.5884 -1.1101 -0.1788
 6064SOL     OW24028  11.712   7.160   4.787  0.0890  0.2796  0.1434
 6064SOL    HW124029  11.707   7.177   4.881  2.9956  0.0541  0.4429
 6064SOL    HW224030  11.718   7.247   4.747  2.2163  0.3897  0.5505
 6065SOL     OW24031   0.525   4.915   7.523 -0.1176 -0.9889  0.2695
 6065SOL    HW124032   0.506   4.909   7.430  0.0361  1.3773  0.0297
 6065SOL    HW224033   0.440   4.902   7.566 -0.8439  1.2818 -0.3936
 6066SOL     OW24034   4.448   0.317   1.556 -0.0249  0.1139 -0.6929
 6066SOL    HW124035   4.459   0.297   1.463 -0.9508 -0.9855 -0.5882
 6066SOL    HW224036   4.493   0.245   1.601  0.1121  0.4523 -0.2831
 6067SOL     OW24037   6.756   2.673   1.994  0.3427  0.4000  0.2161
 6067SOL    HW124038   6.848   2.688   1.973  0.4679  0.2523  0.6461
 6067SOL    HW224039   6.739   2.733   2.067  0.5723 -0.8084  1.2912
 6068SOL     OW24040   9.587   8.454   8.898 -0.0389 -0.1724  0.5531
 6068SOL    HW124041   9.618   8.403   8.973 -1.0160 -4.0915 -1.4311
 6068SOL    HW224042   9.541   8.390   8.843  0.1739  2.5447 -3.1670
 6069SOL     OW24043   2.847  10.466   2.371  0.7363 -0.3571 -0.2602
 6069SOL    HW124044   2.869  10.558   2.385  2.0765 -0.8643  1.3914
 6069SOL    HW224045   2.790  10.466   2.294  1.5535  1.7306 -0.9408
 6070SOL     OW24046  10.418   8.862   4.861 -0.5636  0.4421 -0.1167
 6070SOL    HW124047  10.492   8.921   4.848 -0.0265 -0.2001 -0.0350
 6070SOL    HW224048  10.349   8.917   4.897  0.4526  0.7156  1.5269
 6071SOL     OW24049   8.244  11.903  11.185  0.1674  0.0435  0.2943
 6071SOL    HW124050   8.297  11.870  11.258  2.0775 -0.0857 -1.0667
 6071SOL    HW224051   8.155  11.903  11.218  0.8665 -0.8192  2.3410
 6072SOL     OW24052   5.262   4.512   1.765  0.0267 -0.4853  0.1871
 6072SOL    HW124053   5.206   4.475   1.697  1.4348 -0.6917 -0.9113
 6072SOL    HW224054   5.339   4.545   1.718  1.4413 -1.3790  1.7311
 6073SOL     OW24055   6.291   4.216  11.810  0.8033  0.2593 -0.0575
 6073SOL    HW124056   6.262   4.291  11.759  0.4356  0.0496 -0.1589
 6073SOL    HW224057   6.214   4.161  11.818  1.2431 -0.4528 -0.5986
 6074SOL     OW24058   3.650  10.779  10.174 -0.3946 -0.0316  0.1944
 6074SOL    HW124059   3.565  10.816  10.197 -0.9720  0.6948 -2.7429
 6074SOL    HW224060   3.707  10.855  10.161 -0.1177 -0.3638 -0.6541
 6075SOL     OW24061   7.819  11.320   5.957  0.2102 -0.9943  0.1929
 6075SOL    HW124062   7.851  11.261   6.025  1.7633  1.1388  1.4519
 6075SOL    HW224063   7.864  11.403   5.975 -3.1587  1.1360 -0.3138
 6076SOL     OW24064   3.511   0.524   2.689 -0.0076 -0.0085 -0.0455
 6076SOL    HW124065   3.469   0.452   2.736 -1.2688  0.1965 -0.8218
 6076SOL    HW224066   3.556   0.574   2.757 -0.0195 -0.9060  0.6486
 6077SOL     OW24067   1.633  11.500   7.377  0.1834  0.4787  0.1805
 6077SOL    HW124068   1.678  11.450   7.445  0.0146  0.3987  0.2354
 6077SOL    HW224069   1.681  11.480   7.296 -3.0911 -4.3635 -0.9989
 6078SOL     OW24070   6.297  10.140   3.490 -0.4977  0.0957  0.5077
 6078SOL    HW124071   6.213  10.186   3.498 -0.4553  0.1390  0.7107
 6078SOL    HW224072   6.363  10.207   3.511 -0.4451 -0.1113  1.0223
 6079SOL     OW24073   0.018   5.719   6.258 -0.1523  0.0068  0.5827
 6079SOL    HW124074   0.054   5.747   6.342  2.3124  0.4975 -0.5447
 6079SOL    HW224075  -0.036   5.793   6.229  1.4231  1.1438  0.4039
 6080SOL     OW24076   2.265   9.046   8.864 -0.1450  0.0222 -0.6155
 6080SOL    HW124077   2.276   9.033   8.770  0.4118  0.6188 -0.6413
 6080SOL    HW224078   2.353   9.069   8.895 -0.5561  0.9681 -0.1383
 6081SOL     OW24079   4.493   7.481   6.509  0.0768  0.4094 -0.4411
 6081SOL    HW124080   4.478   7.504   6.601  1.4315 -0.5867  0.0647
 6081SOL    HW224081   4.418   7.519   6.463 -0.2747  1.5419  0.9657
 6082SOL     OW24082   5.032   5.843   6.323 -0.0942  0.2621 -0.3665
 6082SOL    HW124083   5.087   5.853   6.245 -0.7484  0.0024 -0.8615
 6082SOL    HW224084   4.954   5.797   6.293  0.4855 -1.6073  0.8064
 6083SOL     OW24085   7.681   7.350   9.228  0.5691 -0.8245  0.1295
 6083SOL    HW124086   7.744   7.399   9.175  0.0270 -2.2822 -1.9734
 6083SOL    HW224087   7.599   7.398   9.217  0.7552 -0.3307  0.8358
 6084SOL     OW24088   8.299   2.142  12.191 -0.1112  0.1315 -0.0559
 6084SOL    HW124089   8.258   2.079  12.131  0.8334  0.2443 -0.8528
 6084SOL    HW224090   8.346   2.202  12.133  1.8822 -0.4920  0.8307
 6085SOL     OW24091   2.749   9.006   5.079 -0.4072 -0.0270  0.1706
 6085SOL    HW124092   2.797   8.927   5.104 -2.0904 -2.1520 -2.6724
 6085SOL    HW224093   2.770   9.018   4.986 -2.7025  0.9270 -0.2901
 6086SOL     OW24094  10.548   9.460  10.371 -0.0777  0.1282  0.3473
 6086SOL    HW124095  10.643   9.472  10.367 -0.1546  0.8809  0.7266
 6086SOL    HW224096  10.516   9.495  10.288 -0.1212  0.8387  0.6598
 6087SOL     OW24097   0.661  11.585   7.139  0.6845  0.4187  0.1101
 6087SOL    HW124098   0.636  11.508   7.190  2.5086 -2.1596 -2.5340
 6087SOL    HW224099   0.582  11.638   7.136 -0.4267 -0.8805  2.7244
 6088SOL     OW24100   1.507   1.511  12.148 -0.0467  0.2660 -0.1761
 6088SOL    HW124101   1.586   1.513  12.202 -0.9043 -0.1549  1.1392
 6088SOL    HW224102   1.487   1.417  12.140 -1.9819  0.4006  1.9547
 6089SOL     OW24103   3.365   2.785   8.933  0.5746 -0.7806  0.5493
 6089SOL    HW124104   3.355   2.693   8.956  0.7532 -0.3955  2.2285
 6089SOL    HW224105   3.459   2.801   8.934  0.5232 -0.4799  0.6617
 6090SOL     OW24106   3.137   8.325   8.194  0.3716  0.5285  0.6056
 6090SOL    HW124107   3.217   8.338   8.245  0.5488  2.2486 -0.0744
 6090SOL    HW224108   3.069   8.366   8.247 -0.1579 -1.1645  1.3139
 6091SOL     OW24109  10.669   2.125   5.796 -0.0695  0.2949 -0.3733
 6091SOL    HW124110  10.672   2.078   5.713 -0.1595 -0.5815  0.1060
 6091SOL    HW224111  10.728   2.076   5.853  0.8656  1.5383 -0.2379
 6092SOL     OW24112   4.721   7.856   6.580 -0.6909 -0.2742  0.1108
 6092SOL    HW124113   4.695   7.789   6.516  0.6265  0.1659 -0.9377
 6092SOL    HW224114   4.686   7.938   6.544 -1.5996 -0.2636  0.9739
 6093SOL     OW24115  10.915   3.322   2.776 -0.4087 -0.3825  0.3617
 6093SOL    HW124116  10.995   3.370   2.753  0.9319 -2.3951  0.5423
 6093SOL    HW224117  10.927   3.298   2.868 -1.5209 -0.1855  0.5734
 6094SOL     OW24118  11.645   9.166   8.857  0.3716 -0.3165  0.0330
 6094SOL    HW124119  11.597   9.243   8.826  0.8378 -0.9430 -2.4596
 6094SOL    HW224120  11.687   9.195   8.938 -0.4357  1.6735 -0.2050
 6095SOL     OW24121   3.922   7.577   9.942  0.6839  0.1711  0.4568
 6095SOL    HW124122   4.017   7.590   9.937  0.5504  1.8324  1.4292
 6095SOL    HW224123   3.906   7.559  10.035 -0.0215  0.8294  0.4721
 6096SOL     OW24124   6.720   6.253   5.471 -0.3743 -0.1175 -0.0692
 6096SOL    HW124125   6.680   6.240   5.386 -1.8055  0.9294  0.4084
 6096SOL    HW224126   6.798   6.307   5.453 -0.3316 -0.4099 -0.7727
 6097SOL     OW24127   5.028   5.397  10.082  0.5033  0.3613  0.4808
 6097SOL    HW124128   5.010   5.306  10.105  1.7028  0.0629  0.2743
 6097SOL    HW224129   5.063   5.435  10.163  1.4124  0.2386  0.1499
 6098SOL     OW24130   4.540   3.166   2.011  0.3766  0.2344  0.0343
 6098SOL    HW124131   4.612   3.218   2.044  0.7680 -0.1551 -0.1963
 6098SOL    HW224132   4.563   3.076   2.033 -0.0713  0.1099  0.0176
 6099SOL     OW24133   5.160   9.957   2.073  0.3447 -0.0390 -0.1434
 6099SOL    HW124134   5.189   9.988   2.159  2.1346 -0.8662 -0.3959
 6099SOL    HW224135   5.086   9.899   2.092 -0.9769  1.7751  0.5856
 6100SOL     OW24136   3.932   6.527  10.387  0.5710 -0.0853 -0.2648
 6100SOL    HW124137   3.890   6.588  10.327 -0.0165 -0.8157 -0.6098
 6100SOL    HW224138   3.958   6.453  10.332  1.9342  0.1566  0.0125
 6101SOL     OW24139   1.669   5.689   3.423  0.8260 -0.1806  0.0115
 6101SOL    HW124140   1.609   5.697   3.497  1.0959  0.3029  0.1855
 6101SOL    HW224141   1.753   5.719   3.458  0.3366  3.0021 -1.2865
 6102SOL     OW24142  10.847  11.241   8.099  0.0130  0.0926  0.0901
 6102SOL    HW124143  10.772  11.267   8.152  1.6508  1.2838  1.9837
 6102SOL    HW224144  10.872  11.321   8.052  0.8063  0.0370  0.4075
 6103SOL     OW24145  11.647   4.694   5.818  0.8557  0.0941 -0.4954
 6103SOL    HW124146  11.712   4.758   5.847  0.5125  0.4669 -0.5365
 6103SOL    HW224147  11.585   4.745   5.766  0.8277 -0.3577 -0.9074
 6104SOL     OW24148   8.143   1.709   6.735 -0.4123 -0.7219 -0.0441
 6104SOL    HW124149   8.231   1.743   6.750 -0.8941  0.9557 -0.6723
 6104SOL    HW224150   8.109   1.692   6.823  0.3087 -0.7424  0.2387
 6105SOL     OW24151   2.630   3.668   1.497 -0.1149 -0.0814 -0.3700
 6105SOL    HW124152   2.576   3.717   1.560 -1.4492  0.3562 -1.7908
 6105SOL    HW224153   2.676   3.603   1.550  1.0316  2.0805  1.4671
 6106SOL     OW24154   2.038   7.101   3.758  0.1118 -0.1210 -0.1507
 6106SOL    HW124155   2.091   7.074   3.683  1.9130 -1.0351  1.3774
 6106SOL    HW224156   2.035   7.197   3.752  2.0965 -0.0299 -0.2116
 6107SOL     OW24157   9.940   0.546   0.319 -0.0639  0.4803  0.4479
 6107SOL    HW124158   9.873   0.613   0.306  0.0876  0.6730  0.6439
 6107SOL    HW224159   9.960   0.550   0.413  0.0875  0.2941  0.4250
 6108SOL     OW24160  12.227   2.210   8.619 -0.7432 -0.1438  0.0254
 6108SOL    HW124161  12.274   2.292   8.603  1.4668 -1.3092  0.0156
 6108SOL    HW224162  12.137   2.236   8.637  0.0181  2.3176  0.6302
 6109SOL     OW24163  11.947   6.122   1.838  0.2852 -0.0253 -0.3521
 6109SOL    HW124164  12.009   6.118   1.766  1.7553 -0.8454  0.8931
 6109SOL    HW224165  11.998   6.156   1.912 -0.7177 -0.7814  0.7276
 6110SOL     OW24166   7.785   9.358   1.013  0.1660 -0.5859  0.4772
 6110SOL    HW124167   7.712   9.305   0.982  0.9686 -0.2624 -2.1905
 6110SOL    HW224168   7.860   9.298   1.014  0.8641  0.1720 -1.5946
 6111SOL     OW24169   1.597   7.144   7.587 -0.4703 -0.0003 -0.6489
 6111SOL    HW124170   1.643   7.098   7.517  1.8145 -0.1477  0.8457
 6111SOL    HW224171   1.564   7.224   7.546  1.6104  0.3667 -1.7069
 6112SOL     OW24172   6.696  11.403  10.406 -0.3307  0.2118  0.2448
 6112SOL    HW124173   6.698  11.307  10.400 -2.6673  0.1748 -1.4126
 6112SOL    HW224174   6.709  11.421  10.499  0.8344 -1.6489  0.5083
 6113SOL     OW24175   6.408   5.708   0.279  0.1968  0.2469  0.0660
 6113SOL    HW124176   6.418   5.614   0.295  1.5101  0.1679 -1.0525
 6113SOL    HW224177   6.325   5.716   0.232  0.3242 -0.4300 -0.2893
 6114SOL     OW24178   9.230   1.435   8.089 -0.2108 -0.9000 -0.5752
 6114SOL    HW124179   9.137   1.458   8.080 -1.0189 -1.9354  3.2903
 6114SOL    HW224180   9.264   1.498   8.152  1.1532 -1.8245 -0.3427
 6115SOL     OW24181   7.650   1.453   5.376  0.2592  0.3035  0.4918
 6115SOL    HW124182   7.684   1.533   5.337 -0.7467  0.2776 -0.4717
 6115SOL    HW224183   7.587   1.419   5.313 -1.1413  0.0514  1.9567
 6116SOL     OW24184  10.968   1.519  12.253  0.1281  0.9190  0.2592
 6116SOL    HW124185  10.980   1.602  12.207  2.2078  0.0860 -0.8241
 6116SOL    HW224186  10.964   1.543  12.346  2.2190  2.1511  0.0895
 6117SOL     OW24187   0.648   7.699   7.272  0.3577  0.1154 -0.4241
 6117SOL    HW124188   0.579   7.636   7.296 -1.5534  0.6905 -3.7927
 6117SOL    HW224189   0.685   7.664   7.191  1.9038  1.4564 -0.3395
 6118SOL     OW24190  12.238   1.621   4.208  0.2323  0.4789  0.1338
 6118SOL    HW124191  12.208   1.577   4.288 -0.8001  0.1318 -0.4261
 6118SOL    HW224192  12.284   1.699   4.240 -0.1676  0.3530  1.0689
 6119SOL     OW24193   4.785   1.085   4.255  0.1970  0.0201  0.6784
 6119SOL    HW124194   4.790   1.115   4.345  0.6385 -0.8779  0.9660
 6119SOL    HW224195   4.830   1.000   4.255  1.0153  0.4198 -0.5660
 6120SOL     OW24196   9.307  11.277   7.411  0.7706 -0.5322 -0.1727
 6120SOL    HW124197   9.267  11.354   7.451 -0.8887 -2.1212  1.4306
 6120SOL    HW224198   9.395  11.274   7.447 -0.4731 -1.5866  3.1516
 6121SOL     OW24199   5.752   4.879  10.287 -0.1173 -0.2429  0.0433
 6121SOL    HW124200   5.816   4.891  10.217 -2.6152 -0.5638 -2.4647
 6121SOL    HW224201   5.715   4.966  10.301  0.0490 -0.2679  0.6572
 6122SOL     OW24202   5.443  11.715  10.838 -0.2646  0.0593 -0.0546
 6122SOL    HW124203   5.512  11.660  10.802  1.4944  1.3612  1.1688
 6122SOL    HW224204   5.479  11.750  10.919 -1.0773  3.3086 -0.9364
 6123SOL     OW24205   4.704   2.564   5.570 -0.0777 -0.3832 -0.1086
 6123SOL    HW124206   4.725   2.607   5.653 -1.4568 -0.9130  0.5432
 6123SOL    HW224207   4.717   2.471   5.587  2.7545 -0.3425 -1.4698
 6124SOL     OW24208   7.848   4.862   2.598  0.1374  0.5674 -0.3144
 6124SOL    HW124209   7.798   4.905   2.529 -1.9066  0.1160  0.7982
 6124SOL    HW224210   7.831   4.769   2.585 -0.7650  0.4938  1.0690
 6125SOL     OW24211   5.804  11.270   3.012  1.3819 -0.0619 -0.2286
 6125SOL    HW124212   5.787  11.346   2.957  1.6005  0.3734  0.2934
 6125SOL    HW224213   5.736  11.273   3.080  1.8063  0.0756  0.2015
 6126SOL     OW24214   3.572   5.981   2.060 -0.3875 -0.4919  0.4610
 6126SOL    HW124215   3.618   6.026   1.990 -1.4925 -1.5817 -1.0342
 6126SOL    HW224216   3.608   6.018   2.141  0.6588  1.0628 -0.6672
 6127SOL     OW24217   7.313   0.012  12.316 -0.5862  0.4505 -0.0938
 6127SOL    HW124218   7.356  -0.072  12.335 -1.3436  0.4431  1.7491
 6127SOL    HW224219   7.223  -0.012  12.295 -0.6634  0.7688 -0.1190
 6128SOL     OW24220   1.816   2.222   9.097 -0.3689  0.5220  0.2308
 6128SOL    HW124221   1.879   2.220   9.169  0.4896 -0.7948 -0.4981
 6128SOL    HW224222   1.855   2.281   9.033  0.1041 -0.2049 -0.1718
 6129SOL     OW24223   6.940   8.732   8.883  0.4810  0.5174 -0.1768
 6129SOL    HW124224   6.885   8.764   8.811  0.1954  1.1138  0.2980
 6129SOL    HW224225   6.966   8.811   8.931  0.8954  0.1488  0.2131
 6130SOL     OW24226  11.996   9.877   8.105 -0.3236  0.0086 -0.2685
 6130SOL    HW124227  11.946   9.845   8.180  0.1448 -0.8080 -0.2862
 6130SOL    HW224228  11.968   9.821   8.032 -1.8362  1.7098 -1.0696
 6131SOL     OW24229   2.624   9.589   3.927 -0.4464  0.1436 -0.1259
 6131SOL    HW124230   2.645   9.504   3.965 -2.3222 -0.6797 -0.8180
 6131SOL    HW224231   2.539   9.576   3.885 -1.1114  2.5486  0.3398
 6132SOL     OW24232   3.229   6.801   0.072 -0.0944 -0.0393 -0.8192
 6132SOL    HW124233   3.143   6.759   0.071  0.4530 -1.3841  1.2939
 6132SOL    HW224234   3.210   6.895   0.079 -1.4114 -0.3105 -0.5359
 6133SOL     OW24235   7.634   9.414   8.501  0.0256 -0.6097 -0.4286
 6133SOL    HW124236   7.645   9.482   8.568  0.0747 -1.2667  0.2488
 6133SOL    HW224237   7.722   9.400   8.467 -0.1899  0.6380 -1.5701
 6134SOL     OW24238   6.650   2.716  11.520  0.3502 -0.2142  0.2494
 6134SOL    HW124239   6.663   2.659  11.445  0.8351  1.3562 -0.9097
 6134SOL    HW224240   6.730   2.769  11.524 -0.0672  0.3645  1.3043
 6135SOL     OW24241   0.965   8.845  11.732  0.4424  0.3361  0.2683
 6135SOL    HW124242   0.984   8.822  11.641 -0.1414 -0.0351  0.2421
 6135SOL    HW224243   1.036   8.905  11.756  0.3482  0.8015 -0.5724
 6136SOL     OW24244   1.318   6.256   7.004  0.5312 -0.0289 -0.0952
 6136SOL    HW124245   1.293   6.203   6.928  2.2277 -1.3334  0.1940
 6136SOL    HW224246   1.235   6.289   7.039 -0.4028 -0.7205 -1.5588
 6137SOL     OW24247   0.444   7.783   8.976  0.0262 -0.4612 -0.2975
 6137SOL    HW124248   0.519   7.758   9.030  0.9707  1.0003 -0.8486
 6137SOL    HW224249   0.484   7.827   8.900 -1.3809  0.1644 -0.7003
 6138SOL     OW24250  11.353   9.430   0.868 -0.3550  0.6802  0.4193
 6138SOL    HW124251  11.282   9.445   0.805 -0.2373 -0.9269 -0.1446
 6138SOL    HW224252  11.380   9.518   0.895  0.3256  1.4807 -2.5794
 6139SOL     OW24253   2.678   0.021   9.176  0.0500  0.3460  0.3179
 6139SOL    HW124254   2.751  -0.039   9.191  0.8854  0.3737 -2.8134
 6139SOL    HW224255   2.706   0.103   9.218  1.1823 -0.0749  0.4356
 6140SOL     OW24256   0.079   2.866   0.975 -0.8472  0.0797 -0.3461
 6140SOL    HW124257   0.171   2.891   0.969 -0.9011  1.1906  2.1666
 6140SOL    HW224258   0.043   2.887   0.889  0.7155  1.9702 -0.6122
 6141SOL     OW24259   9.748  11.732   7.329  0.2802  0.5606  0.0983
 6141SOL    HW124260   9.843  11.731   7.316  0.1379  0.6435 -0.9968
 6141SOL    HW224261   9.726  11.823   7.347  0.3990  0.5463  0.3158
 6142SOL     OW24262  12.322   6.925   0.099  0.0780  0.6295 -0.2216
 6142SOL    HW124263  12.230   6.953   0.100 -0.4174 -0.8932 -0.8559
 6142SOL    HW224264  12.367   6.992   0.150 -1.7884  0.0518  2.4219
 6143SOL     OW24265  10.704  11.894   3.036  1.0108 -0.0125 -0.2603
 6143SOL    HW124266  10.668  11.865   2.952  0.5160  0.0296 -0.0684
 6143SOL    HW224267  10.651  11.970   3.059  1.2781  0.0981 -0.0092
 6144SOL     OW24268   5.213   0.209   5.023 -0.0121 -0.4561  0.4825
 6144SOL    HW124269   5.143   0.273   5.016 -0.9754 -1.1346  2.8070
 6144SOL    HW224270   5.294   0.261   5.020 -0.7649  1.0201  2.8941
 6145SOL     OW24271   1.954   3.816   2.677  0.4641 -0.5282  0.1847
 6145SOL    HW124272   1.978   3.746   2.617  0.6501  0.6895 -1.2250
 6145SOL    HW224273   1.968   3.896   2.627 -1.4152  0.4563  1.1248
 6146SOL     OW24274   8.653   8.411  12.308 -0.5132 -0.0184 -0.1943
 6146SOL    HW124275   8.727   8.419  12.248  0.8695 -1.5653  1.1834
 6146SOL    HW224276   8.676   8.468  12.381 -2.2431  1.9573 -1.0939
 6147SOL     OW24277   5.680   7.669   3.977 -0.1554 -0.0502  0.1592
 6147SOL    HW124278   5.738   7.744   3.963  1.1922 -0.6687  2.0457
 6147SOL    HW224279   5.727   7.595   3.940  0.6984 -0.6797  2.3520
 6148SOL     OW24280   1.351  11.742  10.609  0.0952  0.8268  0.5378
 6148SOL    HW124281   1.305  11.772  10.530  0.9340 -0.2707 -0.3889
 6148SOL    HW224282   1.442  11.730  10.581  0.6955  1.6344  2.0009
 6149SOL     OW24283   7.768   2.510   2.243 -0.3287 -0.9989  0.6996
 6149SOL    HW124284   7.832   2.534   2.176 -0.2972 -3.1153 -0.0923
 6149SOL    HW224285   7.694   2.475   2.193 -2.2525  1.5345  1.5748
 6150SOL     OW24286  12.213   3.333   0.607  0.5435 -0.4899  0.8342
 6150SOL    HW124287  12.154   3.305   0.538 -1.0558  0.9576  1.5239
 6150SOL    HW224288  12.246   3.418   0.576  3.2438 -1.7693 -0.0599
 6151SOL     OW24289   4.137   2.807   3.745 -0.1140 -0.3246  0.2127
 6151SOL    HW124290   4.120   2.859   3.667  2.0928 -0.8418 -0.7061
 6151SOL    HW224291   4.100   2.858   3.817  0.8611  1.9463 -0.7888
 6152SOL     OW24292  11.082   4.652   5.904  0.1298  0.2325 -0.3794
 6152SOL    HW124293  11.114   4.726   5.851  0.6111 -0.2134 -0.7171
 6152SOL    HW224294  10.988   4.649   5.885  0.5573 -0.9782 -2.5654
 6153SOL     OW24295   5.170  11.748   4.645 -0.0310  0.2554 -0.2777
 6153SOL    HW124296   5.237  11.692   4.683 -0.4232  1.5403  2.5492
 6153SOL    HW224297   5.214  11.831   4.627 -0.2794  0.2457 -0.9816
 6154SOL     OW24298  11.171   8.554   2.147  0.1676  0.3671 -0.0953
 6154SOL    HW124299  11.227   8.488   2.106  1.5962 -0.0127  2.2666
 6154SOL    HW224300  11.097   8.504   2.182  0.0782  0.3650 -0.2850
 6155SOL     OW24301   6.278   7.671   1.775  0.3689  0.3024 -0.7136
 6155SOL    HW124302   6.329   7.750   1.794  1.1048 -0.2873 -0.1711
 6155SOL    HW224303   6.318   7.636   1.695  0.0608  0.4616 -0.9388
 6156SOL     OW24304   5.977   4.893   2.337 -0.3887 -0.0687  0.1420
 6156SOL    HW124305   5.929   4.850   2.266 -0.6692  1.1648 -0.4467
 6156SOL    HW224306   5.959   4.986   2.324  0.2238  0.2303  1.3585
 6157SOL     OW24307   9.484  10.219   6.460  0.0803  0.3625  0.5543
 6157SOL    HW124308   9.574  10.233   6.486  0.2550 -1.0668  0.8104
 6157SOL    HW224309   9.489  10.155   6.389 -0.6366  1.5321 -0.6161
 6158SOL     OW24310   8.543   3.418   2.924  0.1379 -0.3239 -0.0464
 6158SOL    HW124311   8.460   3.462   2.905 -0.4962 -1.9547 -1.3300
 6158SOL    HW224312   8.605   3.457   2.862  0.2088  0.4670  0.5027
 6159SOL     OW24313   0.989   4.423   9.004 -0.7320 -0.3410 -0.7285
 6159SOL    HW124314   0.953   4.335   9.008 -0.9269 -0.2381 -0.0413
 6159SOL    HW224315   1.025   4.438   9.092 -0.0015 -0.0321 -1.0796
 6160SOL     OW24316   3.262   4.937   4.841 -0.0311 -0.5575 -0.7200
 6160SOL    HW124317   3.309   4.857   4.863  0.8889 -0.5169 -2.3807
 6160SOL    HW224318   3.222   4.919   4.756  0.8294  0.9758 -1.5082
 6161SOL     OW24319  10.781  10.838  11.139 -0.7618  0.3418  0.0742
 6161SOL    HW124320  10.856  10.809  11.191 -0.9048  0.5738  0.4149
 6161SOL    HW224321  10.808  10.827  11.048 -0.7606 -0.7385  0.1938
 6162SOL     OW24322   4.353  11.078   1.214  0.0012  0.4784 -0.0720
 6162SOL    HW124323   4.306  11.154   1.248 -0.8860 -0.2715  0.4137
 6162SOL    HW224324   4.429  11.070   1.272 -0.7485  0.0575  0.8784
 6163SOL     OW24325   6.458   6.495  12.207 -0.0896 -0.2656 -0.0134
 6163SOL    HW124326   6.547   6.476  12.176 -0.7509 -0.8211 -1.6791
 6163SOL    HW224327   6.458   6.467  12.298  2.1185  1.9288  0.7775
 6164SOL     OW24328  10.855   0.048   9.127  0.1867  0.0469 -0.6310
 6164SOL    HW124329  10.920   0.057   9.197 -1.3229 -0.8843  0.9551
 6164SOL    HW224330  10.903   0.006   9.056  1.1852 -1.2962  0.7651
 6165SOL     OW24331   7.951  12.064   9.313 -0.1434  0.0141 -0.6957
 6165SOL    HW124332   7.873  12.061   9.369  1.1786  2.0814  1.4693
 6165SOL    HW224333   7.973  12.157   9.309  4.6207 -0.6413  2.5230
 6166SOL     OW24334   7.434   8.643   7.918  0.3741  0.0795 -0.0624
 6166SOL    HW124335   7.342   8.654   7.891  0.5397 -0.6441 -0.9932
 6166SOL    HW224336   7.484   8.694   7.855  0.6085  0.6433  0.5707
 6167SOL     OW24337   4.041   8.442   7.035  0.8244  0.1705  0.4583
 6167SOL    HW124338   4.086   8.416   6.955 -2.4814 -0.3753 -1.4293
 6167SOL    HW224339   4.051   8.537   7.039  0.7987  0.2436 -0.8088
 6168SOL     OW24340   9.865   8.842  11.509  0.6501 -0.3508  0.1896
 6168SOL    HW124341   9.895   8.887  11.430 -0.7241  1.4556  0.6197
 6168SOL    HW224342   9.781   8.802  11.484  1.6327 -2.3743 -0.0536
 6169SOL     OW24343   8.860   1.977   6.047 -0.0680 -0.1714 -0.6192
 6169SOL    HW124344   8.886   2.068   6.039  0.5401 -0.4602 -2.5146
 6169SOL    HW224345   8.942   1.928   6.040 -0.3433 -0.8749  0.7556
 6170SOL     OW24346   2.125   8.444  10.442 -0.1342  0.2659  0.0253
 6170SOL    HW124347   2.088   8.416  10.526 -1.3811 -0.2163 -0.6666
 6170SOL    HW224348   2.061   8.417  10.377  0.5567  1.1218 -1.0501
 6171SOL     OW24349  11.288   5.952   2.262 -0.1912 -0.2936 -0.1340
 6171SOL    HW124350  11.320   5.867   2.234  2.3960  0.8999 -1.1231
 6171SOL    HW224351  11.288   6.006   2.183 -1.2890  0.7745  0.5485
 6172SOL     OW24352   3.024   5.418   5.819  0.2903 -0.2012  0.0135
 6172SOL    HW124353   3.009   5.387   5.908 -0.7780 -0.8666 -0.3658
 6172SOL    HW224354   2.944   5.465   5.796  0.8490  0.5888 -0.3440
 6173SOL     OW24355   2.604   1.191   2.498 -0.6565  0.3248 -0.3178
 6173SOL    HW124356   2.638   1.179   2.409  1.2095  2.0257  0.0855
 6173SOL    HW224357   2.662   1.138   2.553  0.1754  1.6947  0.1743
 6174SOL     OW24358   1.363   3.688  10.943  0.4181 -0.7987 -0.3891
 6174SOL    HW124359   1.332   3.618  11.001  1.9252 -1.1463  0.0362
 6174SOL    HW224360   1.413   3.642  10.876 -0.2225 -0.2772 -1.2340
 6175SOL     OW24361   4.173   9.625   6.675 -0.7422  0.1169 -0.4555
 6175SOL    HW124362   4.237   9.583   6.731 -1.3699  0.6346  0.6777
 6175SOL    HW224363   4.212   9.709   6.652  1.0165 -1.3572 -3.6364
 6176SOL     OW24364   5.500   6.415   4.681 -0.8609 -0.6610  0.0177
 6176SOL    HW124365   5.466   6.432   4.593  2.5180 -0.8707 -1.4841
 6176SOL    HW224366   5.446   6.469   4.739 -1.2427  1.9654 -2.5535
 6177SOL     OW24367   2.857   4.820   0.707  0.3310  0.2846  0.0928
 6177SOL    HW124368   2.820   4.851   0.624  0.8183 -0.9553 -0.6273
 6177SOL    HW224369   2.934   4.770   0.681 -0.2614 -1.2618  1.1860
 6178SOL     OW24370   5.378  10.601   0.966 -0.1783 -0.2413  0.1500
 6178SOL    HW124371   5.377  10.516   1.011  0.5224 -0.7114 -0.7093
 6178SOL    HW224372   5.371  10.579   0.873  0.8933  0.5972 -0.1438
 6179SOL     OW24373   7.779   7.983   6.010  0.0109  0.7382 -0.1449
 6179SOL    HW124374   7.865   8.014   5.981  0.0953  0.7285  0.0915
 6179SOL    HW224375   7.761   8.033   6.089 -1.5576  2.9708 -1.7897
 6180SOL     OW24376   5.582   9.573   2.969  0.0509  0.6724  0.5581
 6180SOL    HW124377   5.655   9.634   2.960  0.1933  0.2639 -1.7720
 6180SOL    HW224378   5.619   9.498   3.016  0.4507  1.4418  1.5190
 6181SOL     OW24379   5.968  10.977  11.077  0.3091 -0.8444  0.0393
 6181SOL    HW124380   5.881  10.939  11.083 -0.3526  0.6900  0.8652
 6181SOL    HW224381   6.018  10.934  11.146 -0.2959 -0.5856  0.6626
 6182SOL     OW24382   2.610   8.666   2.273 -1.0644 -0.2196 -0.6940
 6182SOL    HW124383   2.596   8.580   2.234 -1.1547 -1.0875  1.1786
 6182SOL    HW224384   2.609   8.726   2.198  2.1337 -2.0993 -2.4577
 6183SOL     OW24385   6.126   1.639   9.681 -0.5082 -0.7345 -0.4001
 6183SOL    HW124386   6.077   1.566   9.718  1.1151 -1.0299  1.2970
 6183SOL    HW224387   6.217   1.611   9.685  0.0200  0.7991 -1.0961
 6184SOL     OW24388  11.912   3.026  11.564 -0.6883 -0.1009 -0.0111
 6184SOL    HW124389  11.972   3.070  11.624  0.3362 -0.5247 -0.6895
 6184SOL    HW224390  11.962   2.950  11.531 -1.7115 -0.6428 -0.3502
 6185SOL     OW24391   1.520   0.045   8.112  0.0076 -0.0121 -0.3338
 6185SOL    HW124392   1.462   0.027   8.038 -0.3089  0.7625 -0.2898
 6185SOL    HW224393   1.607   0.020   8.081 -0.3195 -1.0364 -0.4579
 6186SOL     OW24394   6.508   6.215   2.420  0.1203  0.1681 -0.3766
 6186SOL    HW124395   6.521   6.246   2.510 -0.7676 -0.9402  0.1755
 6186SOL    HW224396   6.533   6.289   2.365 -2.2668  2.0614  0.8452
 6187SOL     OW24397   9.722   6.831   6.166 -0.0049 -0.6446 -0.2218
 6187SOL    HW124398   9.791   6.766   6.154 -0.6782 -1.7502  1.4556
 6187SOL    HW224399   9.644   6.791   6.128 -0.8675 -1.7595  2.5000
 6188SOL     OW24400   8.521   2.632   5.605  0.6485  0.2736 -0.1112
 6188SOL    HW124401   8.610   2.619   5.637  0.3505  0.7686  0.9565
 6188SOL    HW224402   8.529   2.705   5.542  0.6579  1.9733  1.7644
 6189SOL     OW24403  10.752   2.712   6.145  0.1065 -0.4171 -0.4591
 6189SOL    HW124404  10.712   2.625   6.139 -1.9030  0.4091  0.0292
 6189SOL    HW224405  10.784   2.718   6.235  0.7520 -0.8235 -0.6510
 6190SOL     OW24406   2.087  11.459   2.129 -0.6066  0.1803 -0.0475
 6190SOL    HW124407   2.030  11.419   2.064 -1.2479  1.7524 -0.4854
 6190SOL    HW224408   2.096  11.550   2.101 -1.6980  1.1788  2.5539
 6191SOL     OW24409  10.004   4.664   1.901 -0.4734 -0.5214  0.4120
 6191SOL    HW124410  10.013   4.731   1.968 -0.6150 -1.1908  1.1166
 6191SOL    HW224411   9.932   4.695   1.846  0.6776  0.8263 -0.4157
 6192SOL     OW24412   8.582   2.902   9.013 -0.0418  0.3795 -0.1973
 6192SOL    HW124413   8.515   2.834   9.014  0.4141 -0.0688  0.1986
 6192SOL    HW224414   8.597   2.923   9.105  0.9732 -0.1350 -0.2337
 6193SOL     OW24415  11.198  11.731   1.973  0.7755  0.2814  0.2483
 6193SOL    HW124416  11.179  11.712   1.882  0.8246 -0.5991  0.4196
 6193SOL    HW224417  11.159  11.818   1.988 -0.5613 -0.2259 -0.1877
 6194SOL     OW24418  11.471   9.574   3.174 -0.0107 -0.0376 -0.5052
 6194SOL    HW124419  11.406   9.504   3.165 -0.3999  0.2266  0.1539
 6194SOL    HW224420  11.554   9.529   3.184 -0.2539 -0.4125 -0.1121
 6195SOL     OW24421   8.948  12.329   1.863 -0.5817  0.4482 -0.1118
 6195SOL    HW124422   9.002  12.348   1.939 -1.6654  1.4971  0.4274
 6195SOL    HW224423   8.858  12.338   1.894 -1.0538  0.6790 -1.4638
 6196SOL     OW24424   3.256   2.359   2.058 -0.5045 -0.2067  0.1480
 6196SOL    HW124425   3.177   2.356   2.111 -1.5938  1.7584 -1.2428
 6196SOL    HW224426   3.327   2.335   2.118 -2.0873 -1.7737  1.4915
 6197SOL     OW24427   5.094   7.767   2.352 -0.0781  0.4875  0.1952
 6197SOL    HW124428   5.116   7.860   2.361  1.1785  0.1820  0.5935
 6197SOL    HW224429   5.120   7.744   2.263 -2.6326  1.0397 -0.7760
 6198SOL     OW24430   1.047   6.174   9.193 -0.1021  0.0715 -0.1030
 6198SOL    HW124431   1.013   6.091   9.161 -0.5097 -0.8297  2.4373
 6198SOL    HW224432   1.139   6.175   9.166  0.3862 -2.0593  1.2462
 6199SOL     OW24433   8.987   7.053   0.682  0.1745 -0.2507 -0.1884
 6199SOL    HW124434   8.892   7.064   0.680 -0.1861 -2.3514  1.5394
 6199SOL    HW224435   9.001   6.964   0.648  1.2801 -0.8385  1.6664
 6200SOL     OW24436   2.817   2.913   2.018 -0.0119  0.1105 -0.4119
 6200SOL    HW124437   2.891   2.892   1.960  0.0513  0.0495 -0.3087
 6200SOL    HW224438   2.757   2.839   2.008  0.0939  0.0012 -0.2424
 6201SOL     OW24439   1.507   9.784   3.768  0.2399 -0.2523  0.5491
 6201SOL    HW124440   1.448   9.778   3.843 -0.3165  1.2433  0.2727
 6201SOL    HW224441   1.544   9.873   3.774 -1.4401  0.7518 -2.0822
 6202SOL     OW24442   5.962  11.936   1.269 -0.1997 -0.1293 -0.0030
 6202SOL    HW124443   5.870  11.960   1.262 -0.7477 -1.3464  2.1321
 6202SOL    HW224444   5.969  11.853   1.222  0.0203  0.3815 -0.8920
 6203SOL     OW24445   3.411  11.673   7.428 -0.3455  0.2942  0.5150
 6203SOL    HW124446   3.340  11.690   7.367  1.1537  2.2569 -0.8206
 6203SOL    HW224447   3.381  11.599   7.481 -3.7098  1.5659  0.6208
 6204SOL     OW24448  12.007  10.596   2.809  0.0620  0.1332  0.6000
 6204SOL    HW124449  11.937  10.592   2.874  1.9567 -0.3700  2.7364
 6204SOL    HW224450  12.026  10.504   2.788 -0.7507  0.2910 -0.9882
 6205SOL     OW24451   0.670   5.479   3.555 -0.5098 -0.2044 -0.4707
 6205SOL    HW124452   0.708   5.410   3.501 -0.4235 -0.1067 -0.5349
 6205SOL    HW224453   0.584   5.495   3.516 -0.1277  0.4322 -1.0791
 6206SOL     OW24454   3.012   8.721   2.250 -0.3009 -1.0585  0.6497
 6206SOL    HW124455   2.977   8.683   2.169 -0.2476 -0.6985  0.4546
 6206SOL    HW224456   2.940   8.712   2.313 -0.7014 -0.4741  0.2967
 6207SOL     OW24457   2.837   4.227   4.155 -0.1961  0.4123  0.8857
 6207SOL    HW124458   2.902   4.205   4.089 -2.1794  0.8924 -1.3862
 6207SOL    HW224459   2.846   4.158   4.221 -0.6070 -2.4621 -1.8076
 6208SOL     OW24460   6.092  10.665   3.713  0.7729 -0.7658 -0.1430
 6208SOL    HW124461   6.185  10.655   3.691  0.5107  0.6480 -2.2542
 6208SOL    HW224462   6.071  10.754   3.686 -1.2330 -1.1195  0.1258
 6209SOL     OW24463   5.975   5.492  11.051 -0.2026 -0.6176 -0.1090
 6209SOL    HW124464   5.966   5.459  10.962 -0.3890 -0.7838 -0.0292
 6209SOL    HW224465   6.015   5.420  11.100 -0.3818 -0.6360  0.0104
 6210SOL     OW24466   9.679  10.666   1.732 -0.2337  0.3005 -0.2769
 6210SOL    HW124467   9.692  10.708   1.817 -0.5734  0.4039 -0.2751
 6210SOL    HW224468   9.594  10.699   1.701  0.7325  1.7896 -1.5315
 6211SOL     OW24469   5.339   9.953   2.828 -0.0323 -0.5217 -0.3037
 6211SOL    HW124470   5.326  10.017   2.757 -0.2999 -0.8870 -0.5857
 6211SOL    HW224471   5.289   9.988   2.902  1.0413  0.3736  0.0308
 6212SOL     OW24472  10.975   5.346  10.763  0.0195 -0.2547 -0.5461
 6212SOL    HW124473  10.913   5.402  10.810  0.0933  0.2952 -1.0856
 6212SOL    HW224474  10.935   5.333  10.677 -1.0739 -2.8782  0.2684
 6213SOL     OW24475   4.719   5.481   6.378  0.2443  0.0173 -0.5660
 6213SOL    HW124476   4.633   5.474   6.336 -0.2657  0.5781  0.3546
 6213SOL    HW224477   4.760   5.556   6.336 -1.3880  2.4043  1.7737
 6214SOL     OW24478  11.751   2.012   3.864  0.2965 -0.1579 -0.1458
 6214SOL    HW124479  11.779   2.087   3.916  0.2655  0.4222 -0.9522
 6214SOL    HW224480  11.664   2.037   3.831 -0.4313 -1.1988  0.8617
 6215SOL     OW24481   1.491   9.858   8.677 -0.8747 -0.6274 -0.1088
 6215SOL    HW124482   1.412   9.816   8.641 -1.8095  2.4318 -2.0260
 6215SOL    HW224483   1.555   9.850   8.606 -0.9161  0.6281 -0.3098
 6216SOL     OW24484   9.762   8.000   3.506  0.8909 -0.1203  0.1923
 6216SOL    HW124485   9.719   7.970   3.426  1.4974 -0.5539  0.0190
 6216SOL    HW224486   9.695   8.051   3.552  0.2603 -0.6155 -0.1626
 6217SOL     OW24487   6.831   6.664   6.602  0.3659  0.2144 -0.2916
 6217SOL    HW124488   6.855   6.691   6.514  0.7101 -0.9398 -0.5730
 6217SOL    HW224489   6.825   6.745   6.652 -3.6208  1.3298 -2.2299
 6218SOL     OW24490   7.422   5.847   1.184  0.3861  0.0156  0.1939
 6218SOL    HW124491   7.422   5.930   1.136 -0.1483  0.0880  0.3060
 6218SOL    HW224492   7.440   5.872   1.274  1.1100 -0.0908  0.0849
 6219SOL     OW24493   2.533   3.114   5.452  0.2057 -0.8776  0.0626
 6219SOL    HW124494   2.513   3.097   5.360  0.9398  2.1235 -0.7945
 6219SOL    HW224495   2.574   3.034   5.484  0.2070 -1.8919 -2.3086
 6220SOL     OW24496   9.973   7.925   3.287 -0.4131 -0.4432 -0.1193
 6220SOL    HW124497   9.987   8.004   3.339  1.5948 -0.2937 -0.8088
 6220SOL    HW224498   9.961   7.855   3.352  1.4468 -0.1599  0.5985
 6221SOL     OW24499  10.218   3.855   0.263 -0.1412  0.4159  0.0946
 6221SOL    HW124500  10.195   3.925   0.202  1.7981 -0.0076 -1.2190
 6221SOL    HW224501  10.220   3.897   0.349  1.0868  2.0204 -0.6763
 6222SOL     OW24502   5.258   8.692   5.976  0.5594  0.0205 -0.3661
 6222SOL    HW124503   5.296   8.690   5.888 -1.9692  3.6076 -1.7961
 6222SOL    HW224504   5.334   8.688   6.035  2.4211 -1.3131 -2.6762
 6223SOL     OW24505   0.874   8.797   2.787 -0.2140 -0.1338  0.1680
 6223SOL    HW124506   0.858   8.728   2.851  0.5463  1.1500  1.8596
 6223SOL    HW224507   0.969   8.811   2.792 -0.2879  0.6470 -0.5326
 6224SOL     OW24508   1.310   2.300   2.404 -0.3969 -0.1560 -0.1461
 6224SOL    HW124509   1.278   2.359   2.472 -0.2575 -1.8406  1.4433
 6224SOL    HW224510   1.245   2.309   2.334  0.2425  2.7253 -0.5156
 6225SOL     OW24511   7.657   8.449   7.703 -0.4932  0.5675  0.4039
 6225SOL    HW124512   7.668   8.544   7.709 -0.2081  0.5104  0.8298
 6225SOL    HW224513   7.611   8.425   7.783  1.2805  0.0895  1.3292
 6226SOL     OW24514   9.990  10.966  10.904  0.3879 -0.5065  0.3326
 6226SOL    HW124515  10.084  10.958  10.922  0.1212 -0.4156  1.9655
 6226SOL    HW224516   9.973  10.905  10.832  1.6771 -0.5841  0.0774
 6227SOL     OW24517   8.874   7.623   7.899 -0.4056  0.3909  0.3528
 6227SOL    HW124518   8.872   7.664   7.812  2.5659  0.8113  0.3669
 6227SOL    HW224519   8.825   7.683   7.955 -0.2772  1.3907 -0.5724
 6228SOL     OW24520   4.775   0.879  11.867 -0.2234 -0.2446  0.1093
 6228SOL    HW124521   4.833   0.838  11.803  1.3854  2.0733 -0.0394
 6228SOL    HW224522   4.782   0.973  11.849 -3.4127  0.1973  0.6717
 6229SOL     OW24523   8.061   5.995   2.156 -0.2932 -0.7882  0.0409
 6229SOL    HW124524   7.985   6.052   2.142  1.4392  1.8728  0.7429
 6229SOL    HW224525   8.114   6.006   2.077 -0.3254 -2.1292 -0.1806
 6230SOL     OW24526  12.072  10.321   7.011 -0.4035  0.2079  0.2053
 6230SOL    HW124527  12.023  10.250   7.053 -1.4968  1.6076  1.4123
 6230SOL    HW224528  12.013  10.396   7.015  0.0804  0.8197 -2.4779
 6231SOL     OW24529   6.507   5.089   4.333  0.7664 -0.1543  0.2478
 6231SOL    HW124530   6.477   5.129   4.414 -0.6613 -0.6767 -0.0051
 6231SOL    HW224531   6.429   5.048   4.295  1.2573  0.6051 -1.7064
 6232SOL     OW24532   6.212   3.279   2.035  1.3041 -0.3229 -0.2021
 6232SOL    HW124533   6.236   3.213   1.970  1.1570 -0.9541  0.3728
 6232SOL    HW224534   6.201   3.230   2.117 -0.7562  0.0915 -0.1643
 6233SOL     OW24535   4.138   9.948   6.093 -0.7163 -0.0703 -0.1975
 6233SOL    HW124536   4.047   9.952   6.064 -0.2618  0.7745 -1.5981
 6233SOL    HW224537   4.178  10.027   6.057  0.4075 -0.0453  1.0391
 6234SOL     OW24538   5.509   2.260   5.922 -0.4099 -0.3865 -0.2021
 6234SOL    HW124539   5.514   2.174   5.880  3.1539 -0.0434 -0.8091
 6234SOL    HW224540   5.582   2.309   5.885 -1.8030  2.6588  0.7680
 6235SOL     OW24541  11.061   2.516   7.507  0.0430  0.5106 -0.2348
 6235SOL    HW124542  11.104   2.600   7.519  1.8220 -0.4486  0.4894
 6235SOL    HW224543  10.969   2.533   7.523  0.2776  2.4334 -0.7372
 6236SOL     OW24544   6.861  11.561   8.627  0.4630  0.1181 -0.0191
 6236SOL    HW124545   6.894  11.643   8.664 -3.3570  0.9926  1.9610
 6236SOL    HW224546   6.809  11.589   8.552  1.7689 -0.9309 -1.3819
 6237SOL     OW24547   0.226   5.520   8.722  0.5001 -0.2760  0.9144
 6237SOL    HW124548   0.168   5.555   8.789  0.1221  0.7617  0.0591
 6237SOL    HW224549   0.314   5.543   8.752  0.4435 -1.0891  1.7670
 6238SOL     OW24550   7.102   7.196   3.002 -0.0789  0.2526 -0.3406
 6238SOL    HW124551   7.072   7.286   3.016  1.0954  0.6414 -0.1783
 6238SOL    HW224552   7.127   7.165   3.089 -0.4432 -0.2340 -0.4008
 6239SOL     OW24553   2.383   8.800   4.214  0.0663 -0.7221  0.6413
 6239SOL    HW124554   2.453   8.859   4.185 -2.0613  0.7946 -1.8116
 6239SOL    HW224555   2.330   8.853   4.273 -0.2395 -1.1692  0.7719
 6240SOL     OW24556   0.280   2.047  10.970  0.4632  0.3827  0.3204
 6240SOL    HW124557   0.351   2.071  10.910  0.2992 -1.2698 -0.5876
 6240SOL    HW224558   0.205   2.099  10.940  0.8473  0.8907  0.2242
 6241SOL     OW24559   2.659   5.800   8.893 -0.0411  0.0449  0.4417
 6241SOL    HW124560   2.579   5.771   8.849 -0.7678  0.2152  1.6083
 6241SOL    HW224561   2.708   5.719   8.908  0.8736  0.0919 -1.8136
 6242SOL     OW24562  11.930   0.290  11.524 -0.2830 -0.4249  0.2992
 6242SOL    HW124563  11.859   0.257  11.470 -0.6794 -0.2799  0.7235
 6242SOL    HW224564  11.970   0.212  11.562  1.6028 -0.7533 -2.1144
 6243SOL     OW24565   9.301   8.584   0.758 -0.1923  0.4781 -0.1731
 6243SOL    HW124566   9.360   8.534   0.701  1.1727  0.7906  0.9099
 6243SOL    HW224567   9.296   8.532   0.839  0.5815  1.6544  0.6570
 6244SOL     OW24568   3.082   1.434   0.652  0.1085  0.3661 -0.1892
 6244SOL    HW124569   3.113   1.509   0.702 -0.2633 -0.5515  1.4975
 6244SOL    HW224570   3.161   1.387   0.626  0.2737 -0.1611  1.2039
 6245SOL     OW24571   8.884  10.618   4.246 -0.3908  0.7660 -0.3941
 6245SOL    HW124572   8.870  10.583   4.334 -1.2754  0.6846 -0.5650
 6245SOL    HW224573   8.839  10.702   4.246  0.2220  1.0992 -0.5455
 6246SOL     OW24574   4.866   6.850   5.362 -0.2500 -0.5321  0.2112
 6246SOL    HW124575   4.783   6.897   5.349  0.7781  1.9144  1.7387
 6246SOL    HW224576   4.917   6.870   5.283 -0.0261  0.5757  0.6091
 6247SOL     OW24577   6.661   9.751   6.928 -0.2652 -0.0269  0.0844
 6247SOL    HW124578   6.701   9.812   6.990  2.1888 -0.4737 -0.9631
 6247SOL    HW224579   6.607   9.694   6.983  0.1400  0.9268  1.5296
 6248SOL     OW24580   2.380   0.699   4.575 -0.2082 -0.2573 -0.5229
 6248SOL    HW124581   2.471   0.728   4.574 -0.9496  2.3453 -1.2701
 6248SOL    HW224582   2.385   0.603   4.576  2.4996 -0.2183  1.8296
 6249SOL     OW24583   6.499   1.715   4.781 -0.2454  0.2249  0.1506
 6249SOL    HW124584   6.429   1.715   4.846  1.3007 -2.8964  2.0750
 6249SOL    HW224585   6.467   1.657   4.711 -0.8703  1.5510 -0.7142
 6250SOL     OW24586  11.166   8.297   3.400  0.1830 -0.2110 -0.3590
 6250SOL    HW124587  11.130   8.341   3.323 -0.3841 -0.9611 -0.5399
 6250SOL    HW224588  11.130   8.344   3.474 -0.8862 -0.7117 -0.5426
 6251SOL     OW24589   4.284   4.324   5.208 -0.0605  0.2853  0.4613
 6251SOL    HW124590   4.203   4.276   5.225  0.9162 -0.6523  2.9260
 6251SOL    HW224591   4.299   4.312   5.114 -2.2371 -0.3249  0.1154
 6252SOL     OW24592   1.673   1.738   6.820  0.1597  0.4753 -0.0352
 6252SOL    HW124593   1.761   1.760   6.791  0.2574 -0.0729 -0.1754
 6252SOL    HW224594   1.639   1.680   6.751 -0.2108  0.4784  0.1435
 6253SOL     OW24595  10.305   1.274   4.675  0.5030 -0.1342  0.0058
 6253SOL    HW124596  10.369   1.208   4.700  1.0682  0.6071  0.5312
 6253SOL    HW224597  10.356   1.344   4.634 -0.1226 -0.1459 -0.8274
 6254SOL     OW24598  10.152  11.575   4.590  0.3426 -0.0426  0.3440
 6254SOL    HW124599  10.190  11.506   4.536 -3.4018 -1.2319 -1.0629
 6254SOL    HW224600  10.222  11.599   4.651  3.7835 -0.8325 -2.9366
 6255SOL     OW24601   9.255   6.008   3.882 -0.1304 -0.1730 -0.1320
 6255SOL    HW124602   9.163   5.984   3.873 -0.2689  0.2479  0.1377
 6255SOL    HW224603   9.254   6.094   3.924  0.3965 -0.3497  0.2589
 6256SOL     OW24604  10.426   4.738   5.397  0.3645  0.7355 -0.2829
 6256SOL    HW124605  10.511   4.727   5.355  0.4762  0.3194  0.0570
 6256SOL    HW224606  10.384   4.809   5.347  0.5745  0.3808 -0.9746
 6257SOL     OW24607   5.715   3.228   9.595  0.2486 -0.1019  0.0248
 6257SOL    HW124608   5.798   3.220   9.548  2.6172  2.6912  3.1590
 6257SOL    HW224609   5.732   3.186   9.680 -2.0968 -0.6522  0.2935
 6258SOL     OW24610   8.909   4.335   7.643  1.0270  0.3223 -0.2309
 6258SOL    HW124611   8.936   4.357   7.732  1.4937  1.3102 -0.6028
 6258SOL    HW224612   8.969   4.383   7.586 -0.4487  1.2774 -1.0749
 6259SOL     OW24613   7.759   4.656   1.367 -0.2059 -0.0012  0.1224
 6259SOL    HW124614   7.735   4.593   1.299  0.6792  1.5781 -1.7293
 6259SOL    HW224615   7.800   4.602   1.436 -1.0345 -1.6215 -0.5818
 6260SOL     OW24616   2.744   3.420  10.772 -0.0465 -0.2461  0.1765
 6260SOL    HW124617   2.683   3.384  10.708 -1.5694  0.9219  0.9098
 6260SOL    HW224618   2.757   3.511  10.744  0.7926 -0.2816  0.4390
 6261SOL     OW24619   5.592   5.805  10.323 -0.4830 -0.6391  0.2538
 6261SOL    HW124620   5.561   5.795  10.234 -1.3199  0.8504  0.3515
 6261SOL    HW224621   5.532   5.867  10.364 -0.1650 -1.3344  1.8842
 6262SOL     OW24622   3.465   5.179   1.764 -0.1180 -0.4193  0.0174
 6262SOL    HW124623   3.515   5.121   1.821  1.3013  0.2744 -0.4617
 6262SOL    HW224624   3.383   5.196   1.811  1.0366  0.1990  1.9055
 6263SOL     OW24625   2.582   1.063   6.983  0.6730 -0.0020 -0.4002
 6263SOL    HW124626   2.639   1.084   7.057  0.4992 -0.3786 -0.1550
 6263SOL    HW224627   2.563   0.970   6.993 -1.2845  0.4473  0.4456
 6264SOL     OW24628  12.188   8.390   2.235  0.2575  0.3167 -0.1530
 6264SOL    HW124629  12.098   8.421   2.247  1.2963  4.1106 -1.0585
 6264SOL    HW224630  12.178   8.307   2.187 -2.7296  1.5784 -1.9791
 6265SOL     OW24631   0.724   2.317  10.831  0.5249  0.1159  0.0516
 6265SOL    HW124632   0.645   2.371  10.826 -0.1009 -0.5162  2.1430
 6265SOL    HW224633   0.706   2.255  10.902  2.1433 -1.3291 -0.7203
 6266SOL     OW24634   3.507   5.979  12.131 -0.5381  0.1982  0.4702
 6266SOL    HW124635   3.586   5.931  12.106 -0.8211 -0.6635  1.1720
 6266SOL    HW224636   3.436   5.930  12.090 -0.9000 -0.5018  1.8648
 6267SOL     OW24637  11.831   2.052   4.214  0.2432  0.0028  0.3101
 6267SOL    HW124638  11.762   2.048   4.147  0.0476  1.1172  0.4268
 6267SOL    HW224639  11.859   2.143   4.214  0.8321 -0.1672  1.1691
 6268SOL     OW24640   8.268   6.055   5.586 -0.1419 -0.1651  0.0002
 6268SOL    HW124641   8.202   5.985   5.587 -1.6516  1.1850 -0.3174
 6268SOL    HW224642   8.224   6.127   5.541  1.7170  0.6635 -0.5518
 6269SOL     OW24643   2.323   5.190   5.377  0.1272  0.9420  0.3550
 6269SOL    HW124644   2.326   5.229   5.465  0.3643  1.9731 -0.1024
 6269SOL    HW224645   2.391   5.235   5.328  1.2987 -0.9500  0.1454
 6270SOL     OW24646  10.306   1.040   6.164 -0.4529  0.0868 -0.0450
 6270SOL    HW124647  10.276   0.951   6.144 -1.0095  0.0640  0.8339
 6270SOL    HW224648  10.333   1.076   6.079  2.4045 -1.8587 -0.0837
 6271SOL     OW24649  11.742   6.705  11.646 -0.5393 -0.1765 -0.7505
 6271SOL    HW124650  11.736   6.625  11.593 -2.8131  0.0533 -0.9366
 6271SOL    HW224651  11.773   6.771  11.585 -2.4087 -0.0872 -1.6821
 6272SOL     OW24652   8.824   1.147  10.546 -0.6504 -0.0878  0.4495
 6272SOL    HW124653   8.907   1.134  10.501 -1.1394  0.7527 -0.7561
 6272SOL    HW224654   8.846   1.147  10.639  0.9070  1.4003  0.1196
 6273SOL     OW24655  11.143   9.042  10.129  0.1834 -0.7273 -0.0248
 6273SOL    HW124656  11.169   9.043  10.037 -0.7665 -0.8998 -0.3112
 6273SOL    HW224657  11.219   9.076  10.176  0.1242  0.9039 -1.0331
 6274SOL     OW24658   2.021  10.805   4.969 -0.4885  0.7784  0.7674
 6274SOL    HW124659   2.002  10.729   5.025  0.8001  0.2988  0.5980
 6274SOL    HW224660   1.956  10.801   4.899 -0.3536 -0.2654  0.6846
 6275SOL     OW24661   7.323   2.362   6.783 -0.2363 -0.2256  0.2908
 6275SOL    HW124662   7.374   2.328   6.857  1.5266  0.4228 -0.5900
 6275SOL    HW224663   7.329   2.293   6.716  0.2102  0.2210 -0.1313
 6276SOL     OW24664  11.269   9.409  11.678  0.3039 -0.4663 -0.3121
 6276SOL    HW124665  11.188   9.449  11.710 -0.4603 -2.2096  0.0722
 6276SOL    HW224666  11.339   9.465  11.712 -0.6929  0.3539  0.4384
 6277SOL     OW24667   6.732   6.326   7.244 -0.4301  0.0724  0.3582
 6277SOL    HW124668   6.822   6.291   7.244 -0.3092  0.3732  0.0777
 6277SOL    HW224669   6.702   6.313   7.154 -0.7256 -0.1695  0.4922
 6278SOL     OW24670   4.586   7.646   0.004 -0.4049  0.2463  0.9407
 6278SOL    HW124671   4.523   7.663   0.074 -0.5885  0.4711  0.7214
 6278SOL    HW224672   4.602   7.731  -0.036  0.5304  0.2952  1.4027
 6279SOL     OW24673   3.104   4.457  10.947 -0.4663  0.6200 -0.4165
 6279SOL    HW124674   3.169   4.505  10.897  0.5490 -0.4882 -0.2069
 6279SOL    HW224675   3.086   4.379  10.894 -0.4727  0.1631  0.2420
 6280SOL     OW24676   5.818  10.503   7.097 -0.1702 -0.4040  1.0487
 6280SOL    HW124677   5.888  10.476   7.156 -0.7800  1.8791  3.0164
 6280SOL    HW224678   5.748  10.439   7.112  0.4388 -1.0312  1.2608
 6281SOL     OW24679   3.704   4.615   1.721 -0.0001  0.5423  0.2242
 6281SOL    HW124680   3.672   4.525   1.711  0.9083  0.2473 -0.0950
 6281SOL    HW224681   3.666   4.645   1.803 -2.2310  0.6985 -0.7959
 6282SOL     OW24682   8.619  12.077   5.978  0.5769 -0.0558  0.0040
 6282SOL    HW124683   8.689  12.136   5.949  0.1477 -0.0606 -1.0839
 6282SOL    HW224684   8.619  12.007   5.913 -0.3486 -0.1268  0.0724
 6283SOL     OW24685  10.973   5.297   6.224 -0.2126 -0.0930  0.5618
 6283SOL    HW124686  11.065   5.302   6.200 -0.3868 -0.4615 -0.2193
 6283SOL    HW224687  10.947   5.208   6.201 -0.3958 -0.4999  2.1721
 6284SOL     OW24688   6.408   7.327   2.456 -0.3022  0.2563 -0.1771
 6284SOL    HW124689   6.476   7.374   2.408  0.2806 -0.5858 -0.2068
 6284SOL    HW224690   6.336   7.319   2.393  0.7820 -1.6160 -1.2884
 6285SOL     OW24691   1.040  12.171   0.816 -0.7377  0.4914  0.2724
 6285SOL    HW124692   1.043  12.154   0.722  0.6052  1.2899  0.1425
 6285SOL    HW224693   1.028  12.085   0.857  2.7694 -0.5028 -0.4600
 6286SOL     OW24694   0.577  10.015   6.904 -0.0493 -0.5183 -0.4384
 6286SOL    HW124695   0.570   9.929   6.862 -1.3663 -1.0521  0.7922
 6286SOL    HW224696   0.618   9.997   6.988  0.1657  0.1551 -0.3933
 6287SOL     OW24697  11.202   7.217  11.283  0.1107 -0.6466  0.6698
 6287SOL    HW124698  11.137   7.156  11.247  0.2587  0.0175 -0.7960
 6287SOL    HW224699  11.151   7.293  11.310  0.3749  0.8058 -2.4857
 6288SOL     OW24700   8.893  10.520  10.447 -0.0458 -0.6791  0.0465
 6288SOL    HW124701   8.826  10.452  10.454 -1.4978  0.4178 -2.1700
 6288SOL    HW224702   8.845  10.599  10.423  1.8343  0.6477  0.3913
 6289SOL     OW24703   7.208   4.470   3.169 -0.2932  0.0870 -0.0281
 6289SOL    HW124704   7.232   4.516   3.089  0.0353 -0.2051 -0.0969
 6289SOL    HW224705   7.142   4.407   3.142  0.6577 -0.8128 -0.2785
 6290SOL     OW24706  11.367   9.477  10.878 -0.1571  0.4986  0.7139
 6290SOL    HW124707  11.382   9.477  10.973  2.8673  0.3231  0.3462
 6290SOL    HW224708  11.295   9.538  10.865 -1.0566  0.0875  3.1561
 6291SOL     OW24709   7.703   7.652   2.066  0.1745 -0.3991 -0.2507
 6291SOL    HW124710   7.709   7.589   1.994  1.1825  1.2414 -1.6594
 6291SOL    HW224711   7.645   7.721   2.034 -0.3675 -0.2249  1.0111
 6292SOL     OW24712   9.737   2.900  10.595 -0.0511 -0.0701 -0.0173
 6292SOL    HW124713   9.774   2.814  10.615 -1.7425 -0.7179  0.5218
 6292SOL    HW224714   9.700   2.930  10.678  0.1233  0.9926 -0.3028
 6293SOL     OW24715  11.295   3.065  11.110  0.1933  0.1914 -0.1166
 6293SOL    HW124716  11.382   3.075  11.147 -0.3970 -0.8738  1.6568
 6293SOL    HW224717  11.302   2.988  11.053  0.9251  1.4168 -1.7552
 6294SOL     OW24718   5.352   4.784   7.364  0.2710  0.2810  0.1046
 6294SOL    HW124719   5.368   4.860   7.307  0.6119  0.6830  0.7303
 6294SOL    HW224720   5.302   4.820   7.438 -1.2111 -0.4534 -0.4901
 6295SOL     OW24721   4.633  11.866  10.928  0.3476 -0.0644  0.4494
 6295SOL    HW124722   4.720  11.844  10.962  0.9396  0.9676 -0.3345
 6295SOL    HW224723   4.624  11.813  10.849 -1.1327 -2.6560  2.2129
 6296SOL     OW24724   5.165   5.696  10.137 -0.0149 -0.0633 -0.2130
 6296SOL    HW124725   5.083   5.738  10.109 -0.0466 -0.2985 -0.4740
 6296SOL    HW224726   5.141   5.644  10.213  0.2619  1.3713  0.9047
 6297SOL     OW24727  11.238   1.629   7.169 -0.1236  0.2133  0.3982
 6297SOL    HW124728  11.149   1.640   7.203 -0.5660 -0.8355 -0.3499
 6297SOL    HW224729  11.233   1.660   7.078  0.1936 -0.1425  0.2570
 6298SOL     OW24730  10.171  11.137   3.090 -0.2423 -0.1405  0.2190
 6298SOL    HW124731  10.178  11.218   3.140 -0.3220  0.5867 -0.9327
 6298SOL    HW224732  10.215  11.072   3.145 -1.0540  0.4461  1.6156
 6299SOL     OW24733   5.327   2.004  11.605  0.0010 -0.2668 -0.0240
 6299SOL    HW124734   5.286   2.003  11.692 -1.2258 -0.5954 -0.5879
 6299SOL    HW224735   5.310   2.091  11.571  0.1593 -0.2593 -0.0856
 6300SOL     OW24736   3.516   8.847   1.557  0.1539  0.3658  0.2533
 6300SOL    HW124737   3.484   8.915   1.615  0.2690  0.0061  0.7434
 6300SOL    HW224738   3.505   8.883   1.469  0.1099  0.9671  0.5033
 6301SOL     OW24739   9.647   0.015   9.336 -0.4444  0.1351  0.2031
 6301SOL    HW124740   9.699   0.057   9.268 -0.8598  1.2191  0.5276
 6301SOL    HW224741   9.574  -0.025   9.289 -0.0804 -0.1636 -0.1088
 6302SOL     OW24742   6.187   0.999   5.436  0.5355 -0.4775 -0.0710
 6302SOL    HW124743   6.171   0.952   5.518  0.4764 -1.0128 -0.3865
 6302SOL    HW224744   6.260   1.058   5.457  0.3154 -0.3858  0.4528
 6303SOL     OW24745   0.886   9.774  10.474 -0.4143 -0.0279 -0.3983
 6303SOL    HW124746   0.977   9.760  10.449 -0.0584 -0.9537  1.2542
 6303SOL    HW224747   0.889   9.786  10.569 -2.0549 -0.6555 -0.2337
 6304SOL     OW24748   2.523   0.427   4.722  0.0954 -0.3184  0.1844
 6304SOL    HW124749   2.559   0.347   4.684  0.5194 -0.1597  0.2383
 6304SOL    HW224750   2.595   0.462   4.775  0.2117  0.5375 -0.5078
 6305SOL     OW24751   1.808  11.246   8.209  0.3309  0.3417 -0.4439
 6305SOL    HW124752   1.889  11.297   8.207 -0.3367  1.4252 -0.9728
 6305SOL    HW224753   1.792  11.223   8.118  0.7682 -1.0868 -0.1817
 6306SOL     OW24754   0.681   9.614  10.537 -0.1203  0.8536  0.3133
 6306SOL    HW124755   0.724   9.693  10.504 -1.1570  1.3332  0.0721
 6306SOL    HW224756   0.746   9.573  10.594  0.8016  1.3302 -0.3724
 6307SOL     OW24757   9.253   5.773   4.973 -0.7125  0.0202  0.1344
 6307SOL    HW124758   9.229   5.819   5.053  2.1913 -0.3839  1.3489
 6307SOL    HW224759   9.300   5.837   4.921 -0.8836 -0.2651 -0.3851
 6308SOL     OW24760   8.439   7.910   0.661 -0.1678 -0.0853  0.1125
 6308SOL    HW124761   8.467   7.924   0.571  1.4805  0.0861  0.6268
 6308SOL    HW224762   8.361   7.966   0.671  0.5784  1.1611 -0.7384
 6309SOL     OW24763   7.597   8.730   6.324  0.2685  0.0418 -0.3066
 6309SOL    HW124764   7.647   8.795   6.373 -0.1817 -0.6759  1.1650
 6309SOL    HW224765   7.660   8.693   6.262  1.5754 -0.7652  1.4306
 6310SOL     OW24766  11.933  10.666   5.848 -0.4212  0.3908  0.7972
 6310SOL    HW124767  11.988  10.648   5.772 -0.1139 -0.5125  1.2171
 6310SOL    HW224768  11.846  10.683   5.812 -0.0057  1.2311  0.1656
 6311SOL     OW24769   8.610  12.324  11.753  0.2529 -0.1893 -0.2095
 6311SOL    HW124770   8.588  12.417  11.750  0.2228 -0.2033 -0.4678
 6311SOL    HW224771   8.612  12.297  11.661  0.4781 -0.3931 -0.1470
 6312SOL     OW24772  11.664   6.093   2.735 -0.2660 -0.1012 -0.5217
 6312SOL    HW124773  11.679   6.155   2.664  1.1832 -1.7938 -1.7560
 6312SOL    HW224774  11.576   6.058   2.718  0.6266 -1.5493 -2.3632
 6313SOL     OW24775  11.228   1.830   8.456  0.1923  0.4568  0.2534
 6313SOL    HW124776  11.150   1.824   8.400 -0.0662  1.9731  0.3984
 6313SOL    HW224777  11.283   1.756   8.429 -0.5106  0.3864 -1.0832
 6314SOL     OW24778  11.179   4.569   8.154  0.3812 -0.3413  0.1033
 6314SOL    HW124779  11.199   4.624   8.079 -0.6474 -0.6717 -0.4453
 6314SOL    HW224780  11.264   4.539   8.186  0.8308 -0.4537 -1.1335
 6315SOL     OW24781   2.670   1.900   1.013 -0.3106 -0.6440  0.8024
 6315SOL    HW124782   2.663   1.805   1.020 -2.0932 -0.4556  2.3997
 6315SOL    HW224783   2.758   1.920   1.046  0.0103 -1.7101  0.6342
 6316SOL     OW24784   4.804   2.268   8.079 -0.0924 -1.0150  0.1000
 6316SOL    HW124785   4.886   2.274   8.128  0.8153  1.9754 -1.5013
 6316SOL    HW224786   4.748   2.335   8.120 -0.4533 -0.6670 -0.9356
 6317SOL     OW24787   6.996   1.675   4.404  0.3732 -0.3366 -0.6197
 6317SOL    HW124788   6.972   1.587   4.373  1.5291 -0.4610 -1.2127
 6317SOL    HW224789   6.938   1.734   4.357  0.0283 -0.7437 -0.7067
 6318SOL     OW24790   3.505   3.425   6.802 -0.3247 -0.3217 -0.6072
 6318SOL    HW124791   3.516   3.336   6.767  0.3469 -0.5837  0.2249
 6318SOL    HW224792   3.589   3.467   6.788 -0.0571 -0.4072  0.5654
 6319SOL     OW24793   4.662   8.851   2.895  0.2413 -0.1659  0.0057
 6319SOL    HW124794   4.647   8.773   2.841 -0.3995 -0.5069  0.6697
 6319SOL    HW224795   4.586   8.856   2.953 -0.0762  1.3502 -0.4813
 6320SOL     OW24796   8.656   3.764   1.685  0.2435  0.3298 -0.8176
 6320SOL    HW124797   8.630   3.788   1.774 -0.2018 -1.2427 -0.5072
 6320SOL    HW224798   8.692   3.845   1.648  0.6801  0.9341  0.8644
 6321SOL     OW24799  11.686   6.011   1.818  0.3419 -0.1013 -0.4181
 6321SOL    HW124800  11.638   6.009   1.901  0.1068  0.2322 -0.5442
 6321SOL    HW224801  11.775   6.037   1.842  0.2371  0.1365 -0.2919
 6322SOL     OW24802   0.799  12.326   9.514  0.1854  0.0642  0.3405
 6322SOL    HW124803   0.719  12.279   9.490  1.3472 -2.8331  1.6394
 6322SOL    HW224804   0.784  12.354   9.605  0.7557 -0.9226  0.7623
 6323SOL     OW24805   0.847   7.471   5.636  0.2463 -0.5579 -0.0350
 6323SOL    HW124806   0.752   7.464   5.623  0.2007 -2.3322  0.9554
 6323SOL    HW224807   0.868   7.401   5.697  2.4329 -1.1309 -1.3426
 6324SOL     OW24808   1.865   5.657   6.957 -0.0045 -0.0643  0.3279
 6324SOL    HW124809   1.914   5.723   6.908  0.1024 -0.0609  0.4379
 6324SOL    HW224810   1.774   5.668   6.928  0.2489 -0.9422 -0.8313
 6325SOL     OW24811   9.650   1.320   9.241  0.2785 -0.0700 -0.9365
 6325SOL    HW124812   9.684   1.231   9.253 -0.3168 -0.2447 -0.5587
 6325SOL    HW224813   9.594   1.335   9.316  2.0442  1.4409  0.1655
 6326SOL     OW24814   7.823  12.260   2.727  0.7965  0.3144 -0.1142
 6326SOL    HW124815   7.882  12.335   2.724  0.2102  0.7790 -0.2336
 6326SOL    HW224816   7.758  12.278   2.659  0.4603 -0.1414  0.0817
 6327SOL     OW24817   5.325   6.192   6.661 -0.0192 -0.1941  0.1075
 6327SOL    HW124818   5.294   6.282   6.675  1.6508  0.1511  2.1910
 6327SOL    HW224819   5.276   6.161   6.585 -0.7314  2.4345 -0.6213
 6328SOL     OW24820   7.461   2.639   5.876 -0.3473  0.1012  0.3825
 6328SOL    HW124821   7.497   2.579   5.941 -0.0523  0.3830  0.4813
 6328SOL    HW224822   7.486   2.726   5.907 -0.0529  0.2300 -0.2002
 6329SOL     OW24823  11.016   0.160   9.316 -0.0788  0.0162  0.1633
 6329SOL    HW124824  10.999   0.248   9.284 -0.9878 -0.9597 -2.2350
 6329SOL    HW224825  11.002   0.166   9.410 -1.3958  2.1293 -0.1031
 6330SOL     OW24826   0.621  11.043   4.036  0.1155 -0.1871 -0.0102
 6330SOL    HW124827   0.682  10.993   3.982  2.4202  2.0357  0.3544
 6330SOL    HW224828   0.618  10.996   4.119 -1.0147 -1.8880 -0.9460
 6331SOL     OW24829   8.626   2.606   9.737 -0.2136  0.3226  0.3019
 6331SOL    HW124830   8.558   2.558   9.691  1.0867  0.9605 -2.4618
 6331SOL    HW224831   8.676   2.539   9.782  0.9274 -0.9489 -2.6219
 6332SOL     OW24832   0.204   9.812   6.772 -0.0284 -0.1947  0.3996
 6332SOL    HW124833   0.119   9.835   6.735  0.2332 -0.8500 -0.6257
 6332SOL    HW224834   0.216   9.875   6.844 -1.4479 -0.2136  0.6785
 6333SOL     OW24835   1.496  11.106   9.825 -0.4298  0.0604 -0.2051
 6333SOL    HW124836   1.503  11.116   9.730 -1.8721  4.0224 -0.1015
 6333SOL    HW224837   1.586  11.100   9.855  0.1221  0.2224 -1.7253
 6334SOL     OW24838   5.760   4.653  10.660  0.4050 -0.2118 -0.5642
 6334SOL    HW124839   5.690   4.713  10.685  0.2189 -0.8907  0.5903
 6334SOL    HW224840   5.730   4.567  10.690  1.6322 -0.5467 -0.2432
 6335SOL     OW24841   2.034   8.288   8.380  0.3988  0.1345 -0.0389
 6335SOL    HW124842   1.972   8.357   8.360  0.6490  0.2570 -0.4119
 6335SOL    HW224843   2.041   8.289   8.475 -0.3985 -0.0885  0.0260
 6336SOL     OW24844   4.177  10.157   7.988  0.0472  0.0160  1.0346
 6336SOL    HW124845   4.215  10.182   8.071 -0.7580 -2.2508  2.1727
 6336SOL    HW224846   4.137  10.072   8.004 -1.8050  0.3476 -1.1738
 6337SOL     OW24847   7.316   4.579   5.176  0.3390 -0.2199  0.3019
 6337SOL    HW124848   7.243   4.638   5.157  0.1937 -0.4232  0.2239
 6337SOL    HW224849   7.369   4.626   5.240 -0.0358 -0.2002  0.6067
 6338SOL     OW24850   3.673  11.314   1.836  0.3767 -0.5159 -0.1864
 6338SOL    HW124851   3.618  11.382   1.797 -0.4167 -1.5866 -0.9829
 6338SOL    HW224852   3.646  11.311   1.928  1.7440  1.5143  0.3538
 6339SOL     OW24853  11.976   2.655   8.451  0.1769 -0.3165  0.0650
 6339SOL    HW124854  11.959   2.729   8.509 -1.6283 -1.2152  0.7689
 6339SOL    HW224855  11.891   2.610   8.444  0.6354 -0.9488 -2.2988
 6340SOL     OW24856  11.263   2.228  11.904  0.0223 -0.4785  0.8759
 6340SOL    HW124857  11.269   2.143  11.862 -0.1368  0.8603 -2.1137
 6340SOL    HW224858  11.336   2.230  11.966  2.6991 -1.2925 -2.0344
 6341SOL     OW24859   4.115  12.082   1.618 -0.1785  0.6249 -0.3775
 6341SOL    HW124860   4.149  12.165   1.651  0.2565  0.4322 -0.3402
 6341SOL    HW224861   4.077  12.103   1.533  1.7442  0.4865 -1.3049
 6342SOL     OW24862   1.444   3.650   1.797 -0.2130  0.0364 -0.0904
 6342SOL    HW124863   1.496   3.571   1.786 -1.1536 -0.4710 -1.0597
 6342SOL    HW224864   1.446   3.667   1.892 -0.5973 -1.5662  0.2256
 6343SOL     OW24865   7.985   1.117   6.321  0.4004  0.4261 -0.7902
 6343SOL    HW124866   8.034   1.094   6.242  0.9324  0.7681 -0.5667
 6343SOL    HW224867   7.922   1.183   6.292  1.9375  2.0774 -0.5831
 6344SOL     OW24868   1.317  11.655  11.447 -0.2445 -0.3952 -0.3373
 6344SOL    HW124869   1.289  11.686  11.361  0.8959 -1.3944 -1.0947
 6344SOL    HW224870   1.279  11.567  11.454 -0.1342 -0.4128  0.0726
 6345SOL     OW24871   4.980  11.896   1.067 -0.1300  0.3917  0.3365
 6345SOL    HW124872   4.978  11.927   1.158  0.0730  2.0501 -0.1890
 6345SOL    HW224873   5.061  11.931   1.031 -1.2927  1.7524 -1.1224
 6346SOL     OW24874   6.607   4.600   3.645  0.0451 -0.0915 -0.3123
 6346SOL    HW124875   6.533   4.547   3.618  0.2156  0.3495 -1.7085
 6346SOL    HW224876   6.573   4.689   3.651  0.2708 -0.0146 -0.1321
 6347SOL     OW24877   0.774  10.266   0.882 -0.0014  0.0848 -0.2562
 6347SOL    HW124878   0.852  10.287   0.933 -0.5192  3.1676 -0.5322
 6347SOL    HW224879   0.806  10.213   0.809  1.4634 -0.4990  0.7817
 6348SOL     OW24880   1.116   6.949   4.434  0.2000  0.3016  0.1854
 6348SOL    HW124881   1.177   6.920   4.367 -0.4007 -1.4730  0.3523
 6348SOL    HW224882   1.128   7.043   4.439  0.8623  0.3611 -1.8048
 6349SOL     OW24883   5.370   8.561   0.817 -0.0118 -0.1814  0.2634
 6349SOL    HW124884   5.356   8.515   0.900 -0.5678 -0.8649 -0.1955
 6349SOL    HW224885   5.445   8.516   0.777  0.8132  0.7105  0.7810
 6350SOL     OW24886  11.918   6.786   7.435  0.2688  0.0198  0.1483
 6350SOL    HW124887  11.949   6.701   7.465 -0.2374  0.0561  0.7893
 6350SOL    HW224888  11.973   6.806   7.360  0.8945 -0.5331  0.4470
 6351SOL     OW24889   4.078   5.800   9.391  0.2650  0.0887  0.6101
 6351SOL    HW124890   4.039   5.858   9.325  0.8012  0.2297  0.4042
 6351SOL    HW224891   4.163   5.840   9.409  1.0305 -1.1124 -0.1979
 6352SOL     OW24892   5.634   1.174   8.437 -0.5535 -0.1038  0.0250
 6352SOL    HW124893   5.586   1.092   8.446 -0.4576 -0.2100 -0.3976
 6352SOL    HW224894   5.724   1.148   8.417 -0.9980  0.0709 -2.6254
 6353SOL     OW24895   5.676   2.588  10.385 -0.1480 -0.0671  0.2909
 6353SOL    HW124896   5.644   2.565  10.298 -1.7633 -1.9310  1.3055
 6353SOL    HW224897   5.748   2.528  10.400 -0.5105 -0.4250  0.6151
 6354SOL     OW24898   9.395   4.802   7.916 -0.2469  0.0426 -0.1217
 6354SOL    HW124899   9.476   4.755   7.894  0.0876  0.4992  0.1151
 6354SOL    HW224900   9.381   4.862   7.842 -0.4104 -0.0846 -0.1956
 6355SOL     OW24901   8.816   8.879   1.279  0.3526 -0.0359  0.3792
 6355SOL    HW124902   8.888   8.934   1.309 -0.2596  0.4742  0.9382
 6355SOL    HW224903   8.829   8.795   1.324  0.1202  0.3364  1.1556
 6356SOL     OW24904  10.930   6.555   4.760 -0.3694 -0.1764  0.1474
 6356SOL    HW124905  10.952   6.631   4.705  0.1822 -0.0527  0.5283
 6356SOL    HW224906  10.878   6.590   4.831 -1.0244 -0.3264 -0.2516
 6357SOL     OW24907   2.109   9.392   4.132 -0.7263 -0.1607 -0.1783
 6357SOL    HW124908   2.088   9.472   4.084  2.3845 -0.2045 -1.8572
 6357SOL    HW224909   2.112   9.324   4.065 -0.2590 -1.0636  0.7379
 6358SOL     OW24910   7.610  11.580   6.185 -0.8290  0.3263 -0.0482
 6358SOL    HW124911   7.516  11.575   6.170 -0.7150 -1.0393 -0.4511
 6358SOL    HW224912   7.630  11.504   6.239  0.1077  0.2986 -0.4124
 6359SOL     OW24913   5.529   2.894   6.405 -0.2960  0.4284 -0.2458
 6359SOL    HW124914   5.441   2.862   6.421  0.0876 -0.3975  0.2796
 6359SOL    HW224915   5.543   2.880   6.312 -0.2432 -0.7087 -0.0841
 6360SOL     OW24916   5.259  11.604   3.265 -0.8202 -0.4755 -0.1366
 6360SOL    HW124917   5.244  11.609   3.359 -0.7677 -1.6464 -0.0577
 6360SOL    HW224918   5.293  11.516   3.250  1.5988  0.5103 -0.9395
 6361SOL     OW24919   0.889   3.548   3.833  0.3309 -0.1877  0.1480
 6361SOL    HW124920   0.965   3.499   3.802  0.2555 -1.0106  1.2188
 6361SOL    HW224921   0.916   3.640   3.826  1.3038 -0.4555  0.1780
 6362SOL     OW24922   2.195   5.564   5.435 -0.1983 -0.1058 -0.0041
 6362SOL    HW124923   2.170   5.612   5.514  0.9520  1.4194 -0.5253
 6362SOL    HW224924   2.111   5.535   5.398 -1.1831  3.1045 -0.6430
 6363SOL     OW24925   4.107   7.454   4.065 -0.2380 -0.0371  0.0882
 6363SOL    HW124926   4.106   7.372   4.114  0.2080 -0.8241 -1.1644
 6363SOL    HW224927   4.124   7.427   3.974  3.1713  1.6307  0.0732
 6364SOL     OW24928   7.599   3.233   5.390  0.3540 -0.2350 -0.0955
 6364SOL    HW124929   7.523   3.242   5.332  0.8498  1.2509 -0.5742
 6364SOL    HW224930   7.636   3.148   5.369 -0.1848 -0.2346 -1.1073
 6365SOL     OW24931   9.123   4.113   4.679 -0.2656  0.0081 -0.6400
 6365SOL    HW124932   9.166   4.189   4.641 -0.6932 -0.0131 -1.1740
 6365SOL    HW224933   9.194   4.059   4.713  0.0880  0.2743 -0.9536
 6366SOL     OW24934  11.400   2.775   4.221  0.1336  0.1027 -0.0130
 6366SOL    HW124935  11.332   2.737   4.164 -0.9876  0.4974  1.0255
 6366SOL    HW224936  11.374   2.866   4.231  1.7992  0.7214 -0.9906
 6367SOL     OW24937   3.623   7.060  10.707 -0.4228 -0.5324 -0.3547
 6367SOL    HW124938   3.703   7.013  10.729 -0.0312 -0.4836 -1.5983
 6367SOL    HW224939   3.643   7.152  10.723 -0.4948 -0.5895  0.0733
 6368SOL     OW24940   9.934   5.025   0.795  0.2080 -0.3170  0.1912
 6368SOL    HW124941  10.012   4.982   0.759 -0.3652 -0.2665 -1.1628
 6368SOL    HW224942   9.885   4.955   0.837 -1.3712 -1.4110 -3.0973
 6369SOL     OW24943   9.241   0.843   3.775 -0.4983 -1.0237  0.1184
 6369SOL    HW124944   9.150   0.865   3.794 -0.4431 -0.6848 -0.0021
 6369SOL    HW224945   9.236   0.787   3.697 -0.5139  0.2112 -0.8039
 6370SOL     OW24946   4.613   2.077   7.680  0.4717  0.3595 -0.4916
 6370SOL    HW124947   4.617   2.163   7.723  0.7438 -0.1217  0.4809
 6370SOL    HW224948   4.703   2.044   7.686  0.7164  0.6312 -2.2167
 6371SOL     OW24949   7.480   4.093   4.229 -0.6727  0.3392 -0.2267
 6371SOL    HW124950   7.388   4.118   4.236 -0.7599 -0.0566  0.0519
 6371SOL    HW224951   7.480   3.998   4.243 -0.2625  0.2874 -0.5613
 6372SOL     OW24952   8.843   4.706   5.831 -0.0698  0.2087  0.0066
 6372SOL    HW124953   8.890   4.758   5.765  1.9365 -1.4858  0.0076
 6372SOL    HW224954   8.779   4.656   5.781 -0.7259  1.2478 -0.2251
 6373SOL     OW24955   4.123   9.883   2.452  0.2509  0.0938 -0.1795
 6373SOL    HW124956   4.128   9.978   2.465  2.2488  0.2583 -1.6869
 6373SOL    HW224957   4.154   9.846   2.535  0.2892  0.7607  0.1125
 6374SOL     OW24958   2.729   8.077   0.201 -0.3329 -0.1049  0.2307
 6374SOL    HW124959   2.821   8.104   0.191 -0.2910 -0.0340  0.7976
 6374SOL    HW224960   2.696   8.072   0.111  1.8249 -5.7894 -0.6489
 6375SOL     OW24961   7.863   6.387   2.359  0.3781 -0.0134  0.8018
 6375SOL    HW124962   7.880   6.323   2.290  0.5103  0.3709  0.4718
 6375SOL    HW224963   7.793   6.348   2.411 -0.1394 -0.0551  0.0956
 6376SOL     OW24964   9.036   6.793   0.672 -0.4381 -0.4847 -0.4292
 6376SOL    HW124965   9.024   6.703   0.642 -0.2912 -0.3986 -0.7517
 6376SOL    HW224966   9.095   6.785   0.747 -1.3243 -0.7657  0.2547
 6377SOL     OW24967   5.017   0.086   6.772  0.2435 -0.3451  0.3210
 6377SOL    HW124968   5.101   0.129   6.753  0.6171 -0.8564  0.7724
 6377SOL    HW224969   4.991   0.047   6.689  0.0732  0.4413 -0.0086
 6378SOL     OW24970   7.448   4.934   3.718  0.0411 -0.5330  0.4229
 6378SOL    HW124971   7.476   4.909   3.630 -1.6684  2.3564 -1.0795
 6378SOL    HW224972   7.528   4.931   3.770  1.2573 -1.5482 -1.4103
 6379SOL     OW24973   6.606   3.995  10.286  0.3808 -0.2885  0.0281
 6379SOL    HW124974   6.606   3.904  10.255 -0.5082 -0.6119  0.9113
 6379SOL    HW224975   6.628   3.988  10.378  1.2685  0.5000 -0.1148
 6380SOL     OW24976   3.225   7.045   2.003  0.2575 -0.1766 -0.0827
 6380SOL    HW124977   3.310   7.011   2.033 -0.7687 -1.9197  1.0248
 6380SOL    HW224978   3.182   7.076   2.082 -0.7284 -0.6761 -0.4083
 6381SOL     OW24979   4.417   3.803   0.984 -0.1351  0.4471 -0.6286
 6381SOL    HW124980   4.389   3.862   0.914 -0.8562  3.3658  1.8986
 6381SOL    HW224981   4.352   3.733   0.983 -0.6387  0.8844 -2.2471
 6382SOL     OW24982   9.114   5.734   9.628  0.4597  0.2468  1.0764
 6382SOL    HW124983   9.201   5.755   9.662  2.3184 -2.8069 -1.2774
 6382SOL    HW224984   9.095   5.648   9.663 -0.6326 -0.0392 -0.1427
 6383SOL     OW24985   7.134   9.256   8.834 -0.0634  0.8280  0.0003
 6383SOL    HW124986   7.184   9.181   8.803  0.5520  1.5353 -0.7569
 6383SOL    HW224987   7.118   9.237   8.927  1.5421  0.5261  0.2549
 6384SOL     OW24988  11.670  10.708  12.257  0.0056  0.2459  0.3361
 6384SOL    HW124989  11.669  10.614  12.276 -0.0964 -0.2680 -1.9246
 6384SOL    HW224990  11.581  10.728  12.229 -0.9821  1.8661  4.1194
 6385SOL     OW24991   7.633   6.427   4.868  0.5024 -0.2433 -0.4767
 6385SOL    HW124992   7.543   6.441   4.900  0.5887 -1.7951  0.5512
 6385SOL    HW224993   7.634   6.336   4.838  1.3901  0.1693 -1.7706
 6386SOL     OW24994   2.599   4.633  10.280  0.2252  0.0828  0.7310
 6386SOL    HW124995   2.597   4.539  10.293  0.4938  0.0009  0.2163
 6386SOL    HW224996   2.581   4.670  10.366  1.0474 -0.4303  1.1367
 6387SOL     OW24997   9.156  10.167   7.110 -0.0756  0.0208  0.0836
 6387SOL    HW124998   9.078  10.223   7.107 -0.3872 -0.4303 -1.5660
 6387SOL    HW224999   9.121  10.078   7.118  0.3148 -0.1122  0.3095
 6388SOL     OW25000   7.933  11.769   2.332 -0.1932 -0.0309  0.0201
 6388SOL    HW125001   8.027  11.787   2.331 -0.0108 -0.6681  2.0460
 6388SOL    HW225002   7.902  11.804   2.415 -1.5550 -0.7616 -0.1427
 6389SOL     OW25003   2.760   4.961   0.493 -0.2976  0.1234 -0.1031
 6389SOL    HW125004   2.702   5.035   0.475 -0.1104  0.1750 -0.4843
 6389SOL    HW225005   2.782   4.925   0.407  0.7966  0.5320 -0.0068
 6390SOL     OW25006   3.584   2.441   0.299 -0.6085  0.3131 -0.1864
 6390SOL    HW125007   3.528   2.504   0.254 -0.4842  0.7609  0.2785
 6390SOL    HW225008   3.670   2.482   0.301  0.0165 -0.8347 -1.8528
 6391SOL     OW25009   2.280   8.825   6.342  0.7960  0.3072 -0.2999
 6391SOL    HW125010   2.204   8.769   6.355  1.9539 -2.4100 -3.5816
 6391SOL    HW225011   2.245   8.903   6.299 -0.3803  0.1049  0.2541
 6392SOL     OW25012   8.709   4.214   6.954 -0.9926  0.3860  0.5292
 6392SOL    HW125013   8.797   4.249   6.946 -0.6222 -0.7379 -0.4893
 6392SOL    HW225014   8.719   4.135   7.007 -0.9274 -1.1935 -1.6865
 6393SOL     OW25015   4.576   4.828   1.887  0.0841 -0.3515 -0.0905
 6393SOL    HW125016   4.620   4.838   1.971  0.3667  1.4777 -0.4170
 6393SOL    HW225017   4.618   4.891   1.830 -3.1032  1.7740 -0.3496
 6394SOL     OW25018   0.811   0.267   3.360  0.0382  0.1002 -0.1292
 6394SOL    HW125019   0.765   0.269   3.444 -0.3755 -0.8395 -0.3091
 6394SOL    HW225020   0.904   0.273   3.383 -0.0105 -1.0481  0.4889
 6395SOL     OW25021   9.546   9.894   2.230  0.0799  0.0319  0.1310
 6395SOL    HW125022   9.561   9.988   2.228  0.3307 -0.0068  0.1051
 6395SOL    HW225023   9.599   9.860   2.158 -0.2603 -0.0937 -0.0609
 6396SOL     OW25024  10.584  11.092   8.422  0.3857 -0.3314 -0.2179
 6396SOL    HW125025  10.620  11.178   8.398  1.5972 -0.5717  0.6165
 6396SOL    HW225026  10.511  11.079   8.362 -1.5841  2.4526  1.2997
 6397SOL     OW25027   3.540  11.291   8.948  0.0800  0.1442  0.1357
 6397SOL    HW125028   3.606  11.354   8.977  2.2647  0.1277 -4.0837
 6397SOL    HW225029   3.590  11.215   8.919 -2.2853 -2.2721  1.8530
 6398SOL     OW25030   2.635   3.461   0.224  0.1637 -0.1880  0.5342
 6398SOL    HW125031   2.553   3.478   0.270 -0.5170 -1.4655 -0.1249
 6398SOL    HW225032   2.641   3.365   0.222  1.2022 -0.1222 -0.2445
 6399SOL     OW25033  10.103   0.208  10.271 -0.2617  0.0608 -0.5846
 6399SOL    HW125034  10.111   0.294  10.314  0.3703 -0.3884  0.2244
 6399SOL    HW225035  10.030   0.166  10.316  1.9343 -1.3974  1.8890
 6400SOL     OW25036  10.168   2.428   0.292  0.0962 -0.0343 -0.0478
 6400SOL    HW125037  10.236   2.364   0.270 -0.0140 -0.1931  0.0678
 6400SOL    HW225038  10.212   2.492   0.347 -0.1185 -0.7773  1.0220
 6401SOL     OW25039   2.356   2.990   6.657  0.9542 -0.1623 -0.2525
 6401SOL    HW125040   2.297   2.961   6.726  2.3311 -2.8942 -0.1259
 6401SOL    HW225041   2.311   3.066   6.618 -1.2173 -0.3458  1.6861
 6402SOL     OW25042   2.563   2.194   6.784 -0.1358  0.6071  0.7138
 6402SOL    HW125043   2.649   2.151   6.783  0.1735  1.2005  1.1891
 6402SOL    HW225044   2.580   2.283   6.754 -0.2659  1.2665  2.4636
 6403SOL     OW25045   3.353   6.370   4.275 -0.3780  0.0759  0.8832
 6403SOL    HW125046   3.440   6.342   4.246 -0.2224  0.9895  0.4247
 6403SOL    HW225047   3.329   6.307   4.343  0.4327 -0.4726  0.6768
 6404SOL     OW25048   5.308  10.999  10.504 -0.2883  0.4148 -0.0015
 6404SOL    HW125049   5.297  10.990  10.409 -1.8682 -0.2303  0.2142
 6404SOL    HW225050   5.267  10.921  10.540  0.1975  0.7116  1.2331
 6405SOL     OW25051   8.328   4.371   0.253 -0.4177  0.2655 -0.4495
 6405SOL    HW125052   8.260   4.351   0.318 -0.0787 -0.6480 -0.3652
 6405SOL    HW225053   8.344   4.288   0.208 -0.0606  0.6998 -1.1537
 6406SOL     OW25054   5.432  10.389   7.388  0.3462 -0.4318 -0.1745
 6406SOL    HW125055   5.363  10.437   7.342 -0.4817  0.1002  1.5417
 6406SOL    HW225056   5.390  10.307   7.414  0.8106 -0.7328 -0.3677
 6407SOL     OW25057   6.062   3.612   6.886  0.2738 -0.3234  0.3032
 6407SOL    HW125058   6.076   3.583   6.796 -0.0884  1.0646 -0.2123
 6407SOL    HW225059   5.987   3.561   6.916  0.2362 -0.6065 -0.2626
 6408SOL     OW25060   5.394   8.934   3.391 -0.6661  0.3499 -0.0066
 6408SOL    HW125061   5.340   8.925   3.470  0.4777 -0.7082  0.6750
 6408SOL    HW225062   5.414   8.845   3.365  0.5066  0.7213 -0.4314
 6409SOL     OW25063  11.921   9.427  10.971  0.4219  0.4703 -0.2930
 6409SOL    HW125064  11.912   9.364  10.900  0.8875  0.3779 -0.2738
 6409SOL    HW225065  12.016   9.436  10.983  0.4127 -1.2875  1.8649
 6410SOL     OW25066   4.891  10.854   8.826  0.0519 -0.2908 -0.3437
 6410SOL    HW125067   4.886  10.900   8.743 -2.5036 -0.9757 -0.6628
 6410SOL    HW225068   4.914  10.764   8.802 -0.3089 -0.3994 -0.2967
 6411SOL     OW25069   8.022   1.321   5.542  0.1584 -0.3115  0.6590
 6411SOL    HW125070   7.933   1.323   5.576 -1.0020 -0.9933 -2.0392
 6411SOL    HW225071   8.031   1.404   5.495 -0.7308 -1.9142 -2.6416
 6412SOL     OW25072   8.380  10.018  12.148 -0.1827 -0.0390 -0.1566
 6412SOL    HW125073   8.320  10.081  12.108  0.3554 -1.0213 -2.6469
 6412SOL    HW225074   8.341   9.933  12.129  0.1299 -0.5759  1.4372
 6413SOL     OW25075   5.911   5.606   8.202  0.3120  0.4722 -0.0954
 6413SOL    HW125076   5.980   5.555   8.244  0.3058  0.8541  0.3941
 6413SOL    HW225077   5.852   5.540   8.165  0.2197  0.1088  0.6654
 6414SOL     OW25078  12.255  12.243   6.154  0.5110 -0.5303 -0.2113
 6414SOL    HW125079  12.311  12.167   6.138  0.5267 -0.2491 -1.6592
 6414SOL    HW225080  12.302  12.293   6.221  0.0695 -2.1938  1.4102
 6415SOL     OW25081   8.557   1.016   0.545 -0.2735  0.2177 -0.2770
 6415SOL    HW125082   8.568   0.936   0.494  1.8590  0.8131 -0.8732
 6415SOL    HW225083   8.559   1.087   0.481  0.1499  0.8695  0.4294
 6416SOL     OW25084   2.005   3.009   7.750 -0.0989 -0.3294  0.1964
 6416SOL    HW125085   1.977   3.099   7.768 -2.1916 -0.6534 -1.0701
 6416SOL    HW225086   2.083   3.019   7.696 -1.7313  0.8800 -2.1456
 6417SOL     OW25087   1.727   3.156   7.790 -0.4170  0.0940 -0.0994
 6417SOL    HW125088   1.803   3.212   7.776 -0.3038 -0.0234  0.0393
 6417SOL    HW225089   1.730   3.094   7.717  0.1614 -0.5045  0.4140
 6418SOL     OW25090   5.506  11.891   8.635  0.2702 -0.8292  0.4987
 6418SOL    HW125091   5.454  11.893   8.554  0.3267 -2.1343  0.3992
 6418SOL    HW225092   5.477  11.810   8.679  1.9891 -1.4262  0.5940
 6419SOL     OW25093   5.040   7.253   8.279 -0.1156  0.0016 -0.1443
 6419SOL    HW125094   5.069   7.173   8.236  0.9339  0.7195 -0.8079
 6419SOL    HW225095   4.984   7.296   8.214 -2.7663 -1.3183  1.0803
 6420SOL     OW25096   1.213   4.045   5.735  0.2293  0.5866  0.7670
 6420SOL    HW125097   1.225   4.102   5.659  1.0569 -0.5302  0.0344
 6420SOL    HW225098   1.259   4.090   5.805 -0.5757  1.6524  0.6472
 6421SOL     OW25099   2.884  11.640   7.382  0.1633 -0.1319 -0.1683
 6421SOL    HW125100   2.827  11.617   7.309  1.6789 -1.2033 -1.0532
 6421SOL    HW225101   2.928  11.721   7.354 -0.2587  0.2222  0.1621
 6422SOL     OW25102  10.038   5.494   7.806 -0.2924 -0.5124 -0.5617
 6422SOL    HW125103  10.082   5.409   7.817 -2.4843 -1.5615  0.6495
 6422SOL    HW225104  10.105   5.550   7.765  1.6176 -2.4507 -0.2877
 6423SOL     OW25105   3.431   3.914   2.063 -0.2563  0.1953  0.3906
 6423SOL    HW125106   3.340   3.943   2.060  0.2977  2.1463  0.9996
 6423SOL    HW225107   3.470   3.951   1.983  0.5304  1.4968  1.3254
 6424SOL     OW25108   5.750   7.377   0.335 -0.6852 -0.1902 -0.3845
 6424SOL    HW125109   5.680   7.341   0.281 -0.4577  1.5145 -1.9128
 6424SOL    HW225110   5.706   7.436   0.395 -0.7284 -0.5253 -0.0822
 6425SOL     OW25111   1.809  10.640   7.898 -0.0941 -0.1952 -0.3781
 6425SOL    HW125112   1.724  10.618   7.935  0.7410 -0.1771  1.6783
 6425SOL    HW225113   1.834  10.563   7.846 -1.2500 -0.2737 -0.8385
 6426SOL     OW25114   3.340   5.132   8.395  0.2814  0.2963 -0.9274
 6426SOL    HW125115   3.386   5.191   8.455 -0.7937  0.3896 -0.1597
 6426SOL    HW225116   3.343   5.047   8.439 -0.1477  0.2749 -0.9370
 6427SOL     OW25117   4.427  10.745   4.050 -0.2274 -0.2425  0.6998
 6427SOL    HW125118   4.468  10.686   3.986 -1.4673  0.8247 -1.1498
 6427SOL    HW225119   4.349  10.779   4.006 -0.5290  1.4176  2.3777
 6428SOL     OW25120   0.682   8.219   4.336  0.4462  0.3294  0.2703
 6428SOL    HW125121   0.728   8.251   4.258  0.4800  3.1670  1.3431
 6428SOL    HW225122   0.590   8.220   4.311  0.5799 -0.6074 -0.3066
 6429SOL     OW25123   8.051  11.104   7.877 -0.1292 -0.2576  0.0458
 6429SOL    HW125124   7.960  11.134   7.867 -0.3552 -0.3619  1.6397
 6429SOL    HW225125   8.050  11.015   7.842 -0.1761  0.3810 -1.7134
 6430SOL     OW25126   7.113  12.315   2.085 -0.0996  0.1197 -0.2401
 6430SOL    HW125127   7.094  12.377   2.157 -1.9668 -1.8531  1.0998
 6430SOL    HW225128   7.207  12.324   2.069  0.2118  1.2475  1.8768
 6431SOL     OW25129   5.037   6.292   8.040  0.5199  0.0548  0.6907
 6431SOL    HW125130   5.126   6.321   8.059  0.6098  1.1932 -1.2289
 6431SOL    HW225131   5.000   6.361   7.984 -0.1170 -2.3032 -2.0209
 6432SOL     OW25132   6.215   4.131   5.160  0.0208  0.0482  0.3253
 6432SOL    HW125133   6.213   4.189   5.084 -2.1701 -0.7190 -0.2869
 6432SOL    HW225134   6.219   4.043   5.122 -0.1427 -0.3115  1.1292
 6433SOL     OW25135   7.990   1.222   4.380 -0.4305 -0.1758 -0.1209
 6433SOL    HW125136   8.046   1.159   4.426 -0.9595 -0.7106 -0.2036
 6433SOL    HW225137   7.960   1.175   4.302 -0.9644  0.1266 -0.0991
 6434SOL     OW25138   2.087  11.556  11.853  0.0672 -0.0191  0.1699
 6434SOL    HW125139   2.074  11.529  11.944  0.8833  0.8441  0.5582
 6434SOL    HW225140   2.135  11.483  11.813  2.3727  0.7972  1.2403
 6435SOL     OW25141   7.450   8.219  11.617 -0.5129  0.4637 -0.1101
 6435SOL    HW125142   7.489   8.212  11.705  0.1157  0.6205 -0.3749
 6435SOL    HW225143   7.502   8.286  11.573 -1.5475  1.2154 -0.2283
 6436SOL     OW25144   2.565   7.249   4.449 -0.4433  0.3619  0.5738
 6436SOL    HW125145   2.614   7.189   4.392 -0.3570 -0.5769  1.6004
 6436SOL    HW225146   2.624   7.324   4.461 -0.9545  1.1822 -1.5420
 6437SOL     OW25147   2.049   7.991   0.780 -0.4381  0.0677 -0.1681
 6437SOL    HW125148   2.015   8.080   0.776 -0.1477  0.1431 -1.3214
 6437SOL    HW225149   2.045   7.968   0.873 -0.5496  1.2620  0.1395
 6438SOL     OW25150   9.965   8.112   4.754 -0.4760 -0.6997 -0.0639
 6438SOL    HW125151  10.044   8.131   4.705 -0.0958  1.7708  1.3389
 6438SOL    HW225152   9.899   8.093   4.688  0.9856 -1.6691 -1.2968
 6439SOL     OW25153  10.645   5.814   6.394 -0.2529 -0.0013 -0.2831
 6439SOL    HW125154  10.602   5.744   6.344 -1.1413 -0.6867  1.3853
 6439SOL    HW225155  10.576   5.852   6.447  1.1427 -1.2733  2.6483
 6440SOL     OW25156  11.278  11.261   1.997 -0.2293  0.5584 -0.2050
 6440SOL    HW125157  11.210  11.317   2.034 -1.5453 -0.4725 -1.0011
 6440SOL    HW225158  11.260  11.174   2.031  1.4152  0.4431  0.4962
 6441SOL     OW25159   4.993   6.178  10.001 -0.3055 -0.4075  0.2813
 6441SOL    HW125160   4.975   6.266  10.033 -1.4830 -1.0598  1.5021
 6441SOL    HW225161   4.907   6.137   9.994  0.2513 -1.5858  0.1323
 6442SOL     OW25162   6.199   1.301  11.488 -0.2172  0.8966  0.3317
 6442SOL    HW125163   6.189   1.220  11.439  1.0104  0.5064  0.6953
 6442SOL    HW225164   6.185   1.370  11.422 -0.3395  0.3946 -0.1791
 6443SOL     OW25165  11.325   1.341   7.520 -0.4267  0.1752 -0.3436
 6443SOL    HW125166  11.407   1.334   7.569 -0.7568  0.3103  0.2348
 6443SOL    HW225167  11.276   1.410   7.564 -0.3448  0.9652 -1.4344
 6444SOL     OW25168   7.075   2.372  12.098 -0.0389 -0.1224  0.0000
 6444SOL    HW125169   7.014   2.356  12.026 -0.3861 -0.7436  0.4230
 6444SOL    HW225170   7.120   2.453  12.074 -1.4918  0.7085  0.0003
 6445SOL     OW25171   2.704   6.728   5.121  0.2765 -0.1547 -0.0217
 6445SOL    HW125172   2.638   6.728   5.190  0.8699  1.1724  0.5884
 6445SOL    HW225173   2.654   6.714   5.041 -0.8104  1.0789  0.3935
 6446SOL     OW25174  12.122   6.486   3.481 -0.2579  0.7775  0.4219
 6446SOL    HW125175  12.208   6.518   3.509 -0.6293  2.0362  0.1873
 6446SOL    HW225176  12.098   6.422   3.548  0.4182  1.1593  1.0492
 6447SOL     OW25177   5.860   9.742  11.840 -0.2514  0.0289 -0.0263
 6447SOL    HW125178   5.863   9.803  11.766 -0.9275 -0.1412 -0.1982
 6447SOL    HW225179   5.773   9.703  11.836  0.0805 -0.7646  0.2307
 6448SOL     OW25180   7.431   0.383   4.838 -0.0028 -0.1269 -0.0555
 6448SOL    HW125181   7.515   0.420   4.866 -0.1778  0.3493 -0.1511
 6448SOL    HW225182   7.366   0.443   4.874 -0.3315 -0.8588  0.5775
 6449SOL     OW25183   3.123   4.305  11.633 -0.6094  0.0761  0.2583
 6449SOL    HW125184   3.081   4.376  11.683  0.9663  0.5819  0.9344
 6449SOL    HW225185   3.073   4.300  11.552 -0.9226  1.8144  0.3031
 6450SOL     OW25186  10.324   2.072  10.577 -0.4244  0.2990 -0.1051
 6450SOL    HW125187  10.337   2.070  10.672 -1.2799  1.1101  0.0443
 6450SOL    HW225188  10.330   2.164  10.553  0.4075  0.0472 -0.9468
 6451SOL     OW25189   7.059   2.617  11.399  0.0618 -0.5575 -0.1347
 6451SOL    HW125190   7.110   2.692  11.371  0.2756 -1.2249 -1.6656
 6451SOL    HW225191   6.987   2.612  11.336 -1.5261 -0.0593  1.5559
 6452SOL     OW25192   5.740   9.901   9.852  0.4660  0.1773 -0.1371
 6452SOL    HW125193   5.713   9.910   9.943  1.1524  1.7305 -0.0522
 6452SOL    HW225194   5.776   9.812   9.846 -0.2705 -0.2080  0.9069
 6453SOL     OW25195   1.143   7.491  11.401  0.5369 -0.2287 -0.3842
 6453SOL    HW125196   1.094   7.460  11.477  0.8265  0.8944  0.2792
 6453SOL    HW225197   1.093   7.566  11.369  1.0995  0.1040 -0.5072
 6454SOL     OW25198   0.605   6.885   1.228 -0.3124  0.0822 -0.0788
 6454SOL    HW125199   0.535   6.864   1.167 -0.0743 -0.7994 -0.0581
 6454SOL    HW225200   0.617   6.806   1.280 -2.4710  1.6448  3.0972
 6455SOL     OW25201  11.554   8.943   7.786 -0.1774  0.1044  0.0699
 6455SOL    HW125202  11.505   9.025   7.783 -0.1187  0.3388  2.7378
 6455SOL    HW225203  11.488   8.875   7.798 -0.0463  0.0837  0.6883
 6456SOL     OW25204   1.901   4.194   2.238  0.3161  0.1932 -0.5876
 6456SOL    HW125205   1.889   4.127   2.306  1.1540  0.2447 -0.3849
 6456SOL    HW225206   1.843   4.166   2.167 -1.6083  0.8436  0.6413
 6457SOL     OW25207   7.892   8.397   2.663 -0.4783  0.0812 -0.1645
 6457SOL    HW125208   7.882   8.481   2.709  1.9381  0.2469  0.1990
 6457SOL    HW225209   7.955   8.416   2.593 -0.6866 -1.2092 -0.7210
 6458SOL     OW25210  10.593   2.325   8.237 -0.0595  0.4394  0.0157
 6458SOL    HW125211  10.678   2.291   8.264  1.0699  0.7383 -2.8834
 6458SOL    HW225212  10.531   2.282   8.296  1.7761 -2.3097  0.1377
 6459SOL     OW25213   7.210   8.518   6.095  0.1505 -0.5504 -0.2387
 6459SOL    HW125214   7.252   8.449   6.043  0.2611 -1.7674  1.4118
 6459SOL    HW225215   7.152   8.472   6.155  0.7046  0.7156  1.3523
 6460SOL     OW25216  11.114  12.048   6.646  0.4565  0.6627 -0.3167
 6460SOL    HW125217  11.155  12.064   6.561 -0.0058  0.4108 -0.5872
 6460SOL    HW225218  11.152  11.965   6.676 -0.4557  0.0053 -0.9422
 6461SOL     OW25219   5.969  10.230   9.564  0.4005 -0.2033 -0.1765
 6461SOL    HW125220   5.939  10.296   9.502  0.8519  0.5917  0.4446
 6461SOL    HW225221   5.888  10.186   9.592  0.0822  0.1693 -0.4880
 6462SOL     OW25222  11.983   6.300   2.927 -0.7148  0.6276 -0.6272
 6462SOL    HW125223  11.992   6.219   2.876 -2.4646  1.2843 -2.0722
 6462SOL    HW225224  11.904   6.287   2.978  0.8269  0.1198  1.7936
 6463SOL     OW25225   7.756   2.603  10.936  0.2096 -0.8759 -0.3183
 6463SOL    HW125226   7.811   2.531  10.966 -0.2493 -0.8477  0.6140
 6463SOL    HW225227   7.773   2.673  10.999 -0.0223 -0.4749 -0.7019
 6464SOL     OW25228   9.294  10.184   8.894 -0.6118 -0.0262  0.6404
 6464SOL    HW125229   9.297  10.277   8.918  0.1901 -0.2127  1.3265
 6464SOL    HW225230   9.204  10.158   8.914 -0.8094  0.5728  0.5620
 6465SOL     OW25231   8.373   3.153   4.146  0.5386  0.0016 -0.3567
 6465SOL    HW125232   8.436   3.083   4.164  1.9905  1.6015  1.1751
 6465SOL    HW225233   8.302   3.138   4.208  2.2151  1.4511  2.0573
 6466SOL     OW25234   3.737   8.727  10.611 -1.0871  0.5182  0.3215
 6466SOL    HW125235   3.827   8.759  10.605 -1.0812  0.3928 -0.2938
 6466SOL    HW225236   3.693   8.762  10.533 -0.6958 -2.1632 -1.2580
 6467SOL     OW25237   1.957   1.924   8.578  0.7852  0.1513  0.0294
 6467SOL    HW125238   1.864   1.925   8.554  0.2969 -1.8250  1.4830
 6467SOL    HW225239   1.974   2.011   8.613 -0.6286  0.4576  0.0255
 6468SOL     OW25240   1.434   6.193   3.590  0.8513  0.2580 -0.0068
 6468SOL    HW125241   1.511   6.234   3.551  3.1728 -3.9274 -0.4212
 6468SOL    HW225242   1.449   6.199   3.684  1.6987 -0.3919 -0.0830
 6469SOL     OW25243  10.896  12.097   1.763  0.0535  0.3982 -0.2303
 6469SOL    HW125244  10.848  12.166   1.808  1.6392  0.6706  1.1430
 6469SOL    HW225245  10.955  12.061   1.829  0.3725 -1.2340 -1.3294
 6470SOL     OW25246   9.991  12.286   3.371 -0.4806  0.0626 -0.5191
 6470SOL    HW125247   9.956  12.374   3.355  0.5917  0.3787 -1.3118
 6470SOL    HW225248   9.934  12.228   3.320  1.6231  0.8529 -4.1227
 6471SOL     OW25249   1.773   1.440   5.261 -0.3933  0.5514 -1.1004
 6471SOL    HW125250   1.769   1.500   5.186 -1.5572 -1.2492 -2.5707
 6471SOL    HW225251   1.735   1.359   5.229 -0.5347 -0.4441  1.3542
 6472SOL     OW25252  11.081  10.810   3.941 -0.3807  0.0101  0.0210
 6472SOL    HW125253  10.997  10.802   3.986 -0.8120  0.6197 -0.6549
 6472SOL    HW225254  11.072  10.755   3.864  1.0921 -2.7070  1.6354
 6473SOL     OW25255   4.326   6.505   3.853  0.1285 -0.5159  0.4458
 6473SOL    HW125256   4.275   6.537   3.928 -0.3271  0.9952 -0.4678
 6473SOL    HW225257   4.303   6.413   3.846 -0.3706 -0.5070  1.7312
 6474SOL     OW25258   3.954   1.415   6.464 -0.0472  0.3223 -0.5023
 6474SOL    HW125259   3.963   1.395   6.557 -2.0462  0.1378 -0.2951
 6474SOL    HW225260   3.988   1.338   6.419 -0.8891 -0.4530  0.1420
 6475SOL     OW25261   0.811   9.329   4.985 -0.1865  0.0352  0.0619
 6475SOL    HW125262   0.738   9.268   4.978  0.1141 -0.4122  0.7232
 6475SOL    HW225263   0.887   9.279   4.955  0.1276 -0.0550  0.9723
 6476SOL     OW25264   9.856  11.898   6.618  0.3125 -0.4319 -0.4045
 6476SOL    HW125265   9.905  11.826   6.657 -1.4932 -1.4075  0.1805
 6476SOL    HW225266   9.827  11.951   6.693  1.0990  0.5890 -0.7908
 6477SOL     OW25267   3.667   8.408   8.522 -0.0279 -0.7273  0.9918
 6477SOL    HW125268   3.634   8.359   8.597  0.1148 -1.1913  0.7530
 6477SOL    HW225269   3.588   8.441   8.479 -0.2094 -1.9692  0.3333
 6478SOL     OW25270  11.236   6.019   0.899  0.1765  0.4673 -0.7350
 6478SOL    HW125271  11.205   5.929   0.905  1.9958 -0.1939 -0.6808
 6478SOL    HW225272  11.283   6.023   0.815  0.6093  1.1898 -0.4717
 6479SOL     OW25273   7.321   6.781   3.009 -0.1466 -0.1571 -0.0163
 6479SOL    HW125274   7.402   6.769   2.958 -0.0637  1.2447 -0.2386
 6479SOL    HW225275   7.348   6.833   3.085 -1.0566  1.4825 -0.7628
 6480SOL     OW25276   3.988   5.744   9.758  0.2563  0.0989  0.4218
 6480SOL    HW125277   4.032   5.821   9.721 -1.1088  0.9212  0.4359
 6480SOL    HW225278   3.986   5.680   9.687  0.9917  0.2514  0.2601
 6481SOL     OW25279  10.122   3.309   3.234  0.1871 -0.1701  0.1443
 6481SOL    HW125280  10.047   3.257   3.260 -0.5662  0.3751 -0.8654
 6481SOL    HW225281  10.129   3.377   3.301  0.0432 -0.4662  0.4603
 6482SOL     OW25282   4.320   6.668  12.200 -0.2727  0.1600  0.1774
 6482SOL    HW125283   4.284   6.579  12.195  0.4126 -0.3101  2.3839
 6482SOL    HW225284   4.384   6.671  12.129 -1.0138 -0.7479 -0.5697
 6483SOL     OW25285   1.649   1.614   9.557  0.1950  0.2206  0.0471
 6483SOL    HW125286   1.560   1.593   9.586  0.3639 -1.1461 -0.3597
 6483SOL    HW225287   1.637   1.653   9.470 -0.0281  0.4361  0.1734
 6484SOL     OW25288  12.230   1.014   6.800 -0.5930  0.1019 -0.1804
 6484SOL    HW125289  12.239   0.919   6.806  1.0791  0.2957  1.3517
 6484SOL    HW225290  12.234   1.044   6.891  0.3911  1.7202 -0.7159
 6485SOL     OW25291   5.495   9.977   7.865 -0.6232  0.0069 -0.0569
 6485SOL    HW125292   5.515  10.007   7.776  1.1816  1.1949  0.6753
 6485SOL    HW225293   5.411   9.932   7.857 -0.9427  0.8380 -2.2042
 6486SOL     OW25294   8.436   3.636   3.808  0.4089 -0.2770  0.5122
 6486SOL    HW125295   8.521   3.647   3.850 -0.0105 -1.3781  1.7329
 6486SOL    HW225296   8.448   3.668   3.719  1.7250  0.8502  1.0602
 6487SOL     OW25297   9.606  11.267   7.530 -0.0004 -0.1212 -0.4183
 6487SOL    HW125298   9.587  11.255   7.623  0.9009 -0.1686 -0.2290
 6487SOL    HW225299   9.613  11.362   7.518 -1.2894 -0.0430 -0.6959
 6488SOL     OW25300   9.944   0.628   2.401 -0.5054 -0.0351  0.4044
 6488SOL    HW125301   9.896   0.558   2.357 -1.3115 -0.2898  1.6304
 6488SOL    HW225302   9.999   0.583   2.465  1.6214  0.2371 -1.1306
 6489SOL     OW25303   9.506   7.660   6.667  0.7942 -0.0970  0.1592
 6489SOL    HW125304   9.580   7.604   6.691  1.5427  1.9128  3.0740
 6489SOL    HW225305   9.544   7.746   6.654 -0.5758  0.2173 -2.3166
 6490SOL     OW25306   1.994   9.305   3.687 -0.6749  0.3589  0.2951
 6490SOL    HW125307   1.975   9.233   3.627  0.8148 -1.1866  1.5983
 6490SOL    HW225308   1.914   9.313   3.740 -0.3968 -1.2565  1.0129
 6491SOL     OW25309   0.584   0.036   7.181 -0.6380 -0.1188 -0.2331
 6491SOL    HW125310   0.495   0.010   7.158 -0.2586 -1.6898 -0.0580
 6491SOL    HW225311   0.590   0.128   7.156 -2.4197  0.1199  0.0886
 6492SOL     OW25312   2.124   8.886   3.466  0.0398 -0.4190 -0.0828
 6492SOL    HW125313   2.088   8.890   3.377 -1.2454 -0.6606  0.4017
 6492SOL    HW225314   2.189   8.816   3.462  1.5482  0.9734 -1.3320
 6493SOL     OW25315   7.592   5.760   0.662 -0.1483 -0.0772 -0.3423
 6493SOL    HW125316   7.587   5.824   0.591  0.9244 -1.2462 -1.5491
 6493SOL    HW225317   7.532   5.690   0.635 -0.2680 -0.2052  0.2550
 6494SOL     OW25318   5.629   7.806  12.325 -0.2141  0.2489  0.1663
 6494SOL    HW125319   5.583   7.772  12.402 -1.5695  1.5587 -0.0067
 6494SOL    HW225320   5.688   7.736  12.299  0.2216 -0.2554  2.3461
 6495SOL     OW25321   0.247   9.731   7.699 -0.4957 -0.3086  0.3286
 6495SOL    HW125322   0.283   9.820   7.694 -0.9109 -0.1602  0.0097
 6495SOL    HW225323   0.309   9.684   7.756  0.4139 -0.1550 -0.5010
 6496SOL     OW25324   5.978   8.040   6.644  0.3774 -0.7105 -0.0700
 6496SOL    HW125325   6.030   8.115   6.615  0.3083 -0.4199  0.5317
 6496SOL    HW225326   5.942   8.003   6.563 -0.9493  0.9266 -0.2938
 6497SOL     OW25327   8.848  11.621   6.825  0.5169 -0.0556 -0.1310
 6497SOL    HW125328   8.803  11.661   6.750 -0.6046 -1.3883 -0.2141
 6497SOL    HW225329   8.782  11.564   6.864  1.2752  0.1615  1.5358
 6498SOL     OW25330   1.060   7.855   0.266 -0.2302 -0.0837 -0.1999
 6498SOL    HW125331   1.097   7.918   0.204 -0.0320 -1.0667 -1.1129
 6498SOL    HW225332   0.990   7.903   0.310  1.2493  1.4080  0.6262
 6499SOL     OW25333   2.089   9.611   4.652  0.1795  0.0926  0.3322
 6499SOL    HW125334   2.055   9.631   4.565  1.4882  0.4108 -0.1267
 6499SOL    HW225335   2.144   9.534   4.640  0.3813  0.1439  0.8736
 6500SOL     OW25336  10.159   1.368   0.823 -0.2910  0.4300  0.1021
 6500SOL    HW125337  10.140   1.289   0.774 -2.3921  0.8159  0.1927
 6500SOL    HW225338  10.220   1.340   0.891 -0.0521 -0.8352 -0.6037
 6501SOL     OW25339   7.873   8.222  12.063  0.0313  0.2661  0.2415
 6501SOL    HW125340   7.941   8.223  12.131 -0.0091 -0.9331  0.3032
 6501SOL    HW225341   7.802   8.275  12.100  0.2829  0.1936  0.8459
 6502SOL     OW25342   1.330   0.155   6.102  0.5860 -0.0577  0.1644
 6502SOL    HW125343   1.283   0.237   6.110 -0.0254 -0.3776 -0.0614
 6502SOL    HW225344   1.366   0.156   6.014 -0.2943 -0.4717 -0.2161
 6503SOL     OW25345  10.783   2.356  11.849 -0.2883 -0.0664 -0.4575
 6503SOL    HW125346  10.838   2.289  11.889  0.6757  0.8074 -0.2892
 6503SOL    HW225347  10.784   2.335  11.755  2.2781  1.2488 -0.8067
 6504SOL     OW25348   4.745   9.772   4.381 -0.0264  0.0318 -0.9162
 6504SOL    HW125349   4.776   9.861   4.399 -2.1599  0.7763 -0.6429
 6504SOL    HW225350   4.677   9.783   4.315 -0.4798 -1.3724 -0.7257
 6505SOL     OW25351  12.168   7.972   4.100  0.0848  0.4891 -0.0252
 6505SOL    HW125352  12.131   8.023   4.029  0.4532  0.9411  0.1055
 6505SOL    HW225353  12.092   7.931   4.143 -0.1298  0.1279 -0.7336
 6506SOL     OW25354   4.073   1.336   5.536 -0.2340  0.0098 -0.0486
 6506SOL    HW125355   4.065   1.265   5.599 -0.7752 -0.2667 -0.4205
 6506SOL    HW225356   3.996   1.327   5.479 -0.8174  1.4390  0.4586
 6507SOL     OW25357   0.929  12.259   4.172 -0.2856  0.6834  0.7627
 6507SOL    HW125358   0.844  12.220   4.188 -1.0301  1.2840 -1.3414
 6507SOL    HW225359   0.912  12.354   4.170 -0.3148  0.7553 -2.7266
 6508SOL     OW25360   3.472   8.598   5.017  0.2259 -0.1341  0.3304
 6508SOL    HW125361   3.495   8.542   4.944 -1.2265 -0.9430  0.4603
 6508SOL    HW225362   3.388   8.565   5.048  0.7061  0.2875  2.2623
 6509SOL     OW25363   1.553   0.986   1.977 -0.2363  0.2288  0.4885
 6509SOL    HW125364   1.645   0.980   2.002 -0.3361 -0.7632  0.6377
 6509SOL    HW225365   1.505   0.969   2.058 -0.5641  1.2607  0.5300
 6510SOL     OW25366   6.269   9.662   5.054 -0.1360  0.4003  0.0097
 6510SOL    HW125367   6.174   9.670   5.061 -0.0817  0.9080  0.1416
 6510SOL    HW225368   6.282   9.577   5.011 -0.6437  0.2832  0.0785
 6511SOL     OW25369  10.948  11.533   0.394 -0.2963  0.2796 -0.0168
 6511SOL    HW125370  10.920  11.456   0.345  1.0305  0.1919 -0.6791
 6511SOL    HW225371  10.879  11.598   0.376  0.3509  0.4170 -2.4846
 6512SOL     OW25372   5.389   1.827   1.579  0.4142  0.0615  0.4629
 6512SOL    HW125373   5.472   1.847   1.536  1.0490 -0.4357  1.4114
 6512SOL    HW225374   5.376   1.733   1.563 -0.5969  0.3720 -0.7047
 6513SOL     OW25375   3.069   6.809   2.998  0.2657 -0.7759 -0.4593
 6513SOL    HW125376   3.117   6.803   3.081  1.5727  1.6997 -0.9452
 6513SOL    HW225377   2.984   6.844   3.022  0.8870  0.6048 -0.1965
 6514SOL     OW25378   8.300  11.224   7.773 -0.2156 -0.0566  0.0731
 6514SOL    HW125379   8.299  11.243   7.679  1.9377 -2.1560 -0.4621
 6514SOL    HW225380   8.234  11.155   7.783 -0.2927  0.0165  0.0722
 6515SOL     OW25381   9.073   6.345   3.578 -0.2330 -0.1864  0.6430
 6515SOL    HW125382   8.989   6.301   3.563 -1.0168  0.6493  2.2974
 6515SOL    HW225383   9.139   6.283   3.549 -1.3879 -1.3998  0.5402
 6516SOL     OW25384   4.031  10.078   9.186 -0.1386  0.4960 -0.3409
 6516SOL    HW125385   4.022  10.062   9.092  1.5855 -1.2680 -0.2452
 6516SOL    HW225386   4.115  10.123   9.195 -0.1299  0.3376  0.4044
 6517SOL     OW25387   5.053   2.591  11.999 -0.1617 -0.5494 -0.0128
 6517SOL    HW125388   5.047   2.647  12.076  1.2797 -2.1365  1.3030
 6517SOL    HW225389   5.015   2.508  12.026 -0.0875 -0.9887 -1.1818
 6518SOL     OW25390  10.316   7.082   5.015 -0.8381 -0.2190  0.8978
 6518SOL    HW125391  10.290   7.117   5.101  0.3848  0.8922  0.8375
 6518SOL    HW225392  10.409   7.103   5.007 -1.2270  0.9889 -1.2969
 6519SOL     OW25393  10.316   3.341   2.575 -0.3314 -0.1918 -0.2509
 6519SOL    HW125394  10.361   3.276   2.630  0.6130  0.7413  0.1206
 6519SOL    HW225395  10.244   3.372   2.630  0.2434  0.2957  0.2403
 6520SOL     OW25396  10.492   4.542   3.402  0.0639 -0.0424 -0.2533
 6520SOL    HW125397  10.458   4.487   3.332  0.4282  0.5106 -0.8777
 6520SOL    HW225398  10.415   4.583   3.441 -0.1027  0.0409 -0.6694
 6521SOL     OW25399  11.323   4.915  12.312 -0.6123 -0.0866  0.5043
 6521SOL    HW125400  11.397   4.857  12.333 -1.7188 -0.7449  2.9499
 6521SOL    HW225401  11.352   4.963  12.235  1.0643 -2.6530 -0.6267
 6522SOL     OW25402   7.379   2.914   1.154  0.0447 -0.1625  0.4382
 6522SOL    HW125403   7.468   2.950   1.154 -0.9209  2.4940 -0.6136
 6522SOL    HW225404   7.333   2.964   1.222 -1.3876  0.7713 -1.1293
 6523SOL     OW25405   5.656   5.547  11.428  0.4271  0.2455  0.0055
 6523SOL    HW125406   5.648   5.520  11.337  1.2675 -2.8807  0.7461
 6523SOL    HW225407   5.654   5.466  11.478  2.8252  1.5811  2.5770
 6524SOL     OW25408   2.617   9.733  10.952 -0.2928  0.1661 -0.5016
 6524SOL    HW125409   2.569   9.672  10.896  0.6139 -0.4079 -0.6745
 6524SOL    HW225410   2.600   9.703  11.041  0.1531 -0.3434 -0.5869
 6525SOL     OW25411   2.474  12.021   4.750  0.3666 -0.0702 -0.0369
 6525SOL    HW125412   2.529  11.962   4.802 -1.1771 -0.2083  1.5517
 6525SOL    HW225413   2.385  12.006   4.783 -0.3675  1.5519 -1.1384
 6526SOL     OW25414   2.796   0.190   7.396  0.0177 -0.1105  0.0276
 6526SOL    HW125415   2.818   0.215   7.486 -0.3406  0.6736 -0.0947
 6526SOL    HW225416   2.711   0.146   7.404  0.9938 -2.0292  0.3396
 6527SOL     OW25417   3.909   1.753   3.398  0.1266  0.0441  0.4376
 6527SOL    HW125418   3.822   1.773   3.435  0.2541  2.1346 -0.2375
 6527SOL    HW225419   3.957   1.836   3.405  2.1736 -1.1154  0.9806
 6528SOL     OW25420   0.852   6.832   8.741  0.0021 -0.3373 -0.4066
 6528SOL    HW125421   0.858   6.848   8.835 -2.5416 -0.3153 -0.1630
 6528SOL    HW225422   0.916   6.891   8.702  1.3010 -0.5400  1.2963
 6529SOL     OW25423   3.498   7.138   5.599 -0.0547  0.2335 -0.2537
 6529SOL    HW125424   3.559   7.097   5.661 -1.0904 -0.3920  0.3852
 6529SOL    HW225425   3.506   7.232   5.616 -0.6452  0.0479  1.1620
 6530SOL     OW25426   5.579   2.564   8.713 -0.2536 -0.3085 -0.2089
 6530SOL    HW125427   5.551   2.626   8.781  1.0386  2.6721 -2.1576
 6530SOL    HW225428   5.674   2.574   8.709  0.0370 -2.6598 -0.5020
 6531SOL     OW25429  10.414   0.478  10.893  0.3074  0.0844  0.0504
 6531SOL    HW125430  10.419   0.538  10.818 -2.0358  0.4737  0.1213
 6531SOL    HW225431  10.425   0.391  10.855 -1.1301  0.2575 -0.8268
 6532SOL     OW25432   0.576  11.965   7.162  0.0244 -0.2076 -0.1100
 6532SOL    HW125433   0.539  12.029   7.102 -0.2373 -0.6404 -0.4123
 6532SOL    HW225434   0.667  11.955   7.135 -0.3622 -1.1781 -1.1059
 6533SOL     OW25435  10.487  12.128   2.838 -0.3705 -0.0166  0.1306
 6533SOL    HW125436  10.536  12.131   2.920 -1.5635 -1.0218  0.9253
 6533SOL    HW225437  10.398  12.156   2.862 -0.9152 -0.9896 -0.6540
 6534SOL     OW25438   1.355  11.633   8.605 -0.0125  0.5438 -0.2882
 6534SOL    HW125439   1.352  11.653   8.699  1.7285  0.3328 -0.1648
 6534SOL    HW225440   1.413  11.699   8.568  2.6987 -1.7927 -0.5033
 6535SOL     OW25441  10.108   9.937   1.546 -0.1416 -0.3492 -0.0695
 6535SOL    HW125442  10.156   9.918   1.626  1.9470 -0.1268 -1.1874
 6535SOL    HW225443  10.141   9.873   1.483 -1.2382 -0.0906 -0.9479
 6536SOL     OW25444   9.173   5.563   3.711 -0.0215  0.2524  1.1921
 6536SOL    HW125445   9.186   5.470   3.691 -2.1166  0.0734  0.3378
 6536SOL    HW225446   9.229   5.609   3.649 -2.0036 -0.4374 -1.2888
 6537SOL     OW25447  10.158   8.204   0.820 -0.3875 -0.6562 -0.3437
 6537SOL    HW125448  10.140   8.250   0.902 -1.1964 -1.0243 -0.3140
 6537SOL    HW225449  10.111   8.255   0.754  1.0787  0.2406 -0.7599
 6538SOL     OW25450   4.884   3.390   0.902 -0.0590  0.0884 -0.2901
 6538SOL    HW125451   4.914   3.478   0.878  0.2468 -0.2127 -1.0239
 6538SOL    HW225452   4.812   3.372   0.841 -0.8422  0.2484  0.5572
 6539SOL     OW25453  10.741   2.033   4.567  0.0345 -1.3323  0.3596
 6539SOL    HW125454  10.755   1.958   4.624  0.8263 -1.7938 -0.4109
 6539SOL    HW225455  10.828   2.053   4.532 -0.0451  0.3218  0.9996
 6540SOL     OW25456   5.945   3.356   3.405  0.2165  0.5903  0.7256
 6540SOL    HW125457   5.986   3.431   3.447  0.2041  0.3420  1.1878
 6540SOL    HW225458   5.854   3.383   3.391  0.1658  0.6000  1.0577
 6541SOL     OW25459   5.613   4.159   6.753 -0.5860  0.5317 -0.2301
 6541SOL    HW125460   5.643   4.083   6.803 -1.6783 -0.0519 -0.4221
 6541SOL    HW225461   5.602   4.126   6.664 -2.0252  0.6231 -0.1207
 6542SOL     OW25462   3.746   8.323   3.625  0.6822 -0.1176  0.1622
 6542SOL    HW125463   3.775   8.370   3.547  2.1871  0.2350  0.8989
 6542SOL    HW225464   3.660   8.360   3.645  0.1398 -0.3984 -1.4430
 6543SOL     OW25465  11.967  10.514   0.530 -0.1595  0.5523  0.3567
 6543SOL    HW125466  11.893  10.536   0.473 -1.0066 -1.3703  0.6518
 6543SOL    HW225467  11.975  10.419   0.524  3.2981  0.7767 -0.8225
 6544SOL     OW25468   6.031   6.537   7.291 -0.2491  0.5118 -0.4214
 6544SOL    HW125469   5.943   6.523   7.254 -0.5806  0.2891  0.4198
 6544SOL    HW225470   6.029   6.489   7.374 -0.1487  2.4432  0.7608
 6545SOL     OW25471   1.829   6.528   5.870  0.6786  0.4507  0.3807
 6545SOL    HW125472   1.863   6.618   5.865 -0.2940  0.8281  0.4766
 6545SOL    HW225473   1.889   6.478   5.814  0.4878  1.3877 -0.7062
 6546SOL     OW25474  11.581   2.101   1.141  0.4824  0.3114  0.1990
 6546SOL    HW125475  11.609   2.013   1.118 -0.4610  0.1716 -0.5282
 6546SOL    HW225476  11.509   2.119   1.080  1.4281  2.0417 -0.4736
 6547SOL     OW25477   4.383   0.551   3.161  0.4614  0.5056  0.4812
 6547SOL    HW125478   4.444   0.478   3.145 -1.0582 -1.1473  1.7897
 6547SOL    HW225479   4.409   0.586   3.246  0.8584  1.1886  0.0906
 6548SOL     OW25480   3.186   7.040   6.839 -0.5163 -0.0477  0.7754
 6548SOL    HW125481   3.104   7.044   6.888 -0.6373 -1.4992  0.7436
 6548SOL    HW225482   3.251   7.010   6.902 -0.5266 -1.2388  0.2483
 6549SOL     OW25483   9.568   0.826  10.697 -0.9327  0.0017  0.0801
 6549SOL    HW125484   9.487   0.808  10.650 -0.5914 -1.2204 -0.0812
 6549SOL    HW225485   9.637   0.809  10.633 -0.4679 -1.4336  0.8986
 6550SOL     OW25486   0.538   6.119   4.970  0.3157  0.2738  0.2358
 6550SOL    HW125487   0.488   6.037   4.978  1.0156 -0.0870  1.0687
 6550SOL    HW225488   0.495   6.180   5.029  0.5217  0.1295  0.5376
 6551SOL     OW25489   6.092   3.903   8.731  0.1194  0.4590 -0.4111
 6551SOL    HW125490   6.024   3.857   8.681 -0.6520 -0.4920  1.4009
 6551SOL    HW225491   6.141   3.833   8.774  1.4127  1.2074 -0.6220
 6552SOL     OW25492  10.020   9.229   5.535 -0.3414 -0.6205 -0.1198
 6552SOL    HW125493  10.000   9.235   5.628 -0.9166 -2.6193 -0.0769
 6552SOL    HW225494  10.115   9.225   5.530 -0.2260  0.9101  0.2412
 6553SOL     OW25495   5.786   0.501   2.261  0.2524  0.3814 -0.7603
 6553SOL    HW125496   5.704   0.524   2.303  0.4254  1.0792 -0.7843
 6553SOL    HW225497   5.772   0.518   2.168 -0.3350 -1.7632 -1.1033
 6554SOL     OW25498   8.223   4.202   3.733 -0.2358 -0.1572 -0.3716
 6554SOL    HW125499   8.310   4.162   3.731  0.3013  0.9521 -0.2346
 6554SOL    HW225500   8.240   4.296   3.722 -1.6147 -0.1426 -3.5271
 6555SOL     OW25501  10.762  10.529   0.210 -0.1158 -0.0673 -0.1741
 6555SOL    HW125502  10.786  10.570   0.127 -1.6454  0.8531 -0.1904
 6555SOL    HW225503  10.768  10.435   0.193  3.4586  0.0209 -0.1359
 6556SOL     OW25504   3.884   6.484  10.634  0.0237  0.0941 -0.1935
 6556SOL    HW125505   3.897   6.502  10.541 -0.2022 -1.0556 -0.4567
 6556SOL    HW225506   3.888   6.388  10.641  0.2155  0.1732  1.0044
 6557SOL     OW25507   8.490   4.753  12.119 -0.2969 -0.3248 -0.8977
 6557SOL    HW125508   8.488   4.663  12.151 -1.7017 -0.3429 -0.9746
 6557SOL    HW225509   8.440   4.803  12.183  1.3815  0.6270 -0.2719
 6558SOL     OW25510   0.086   6.486  11.458  0.5345  0.9204 -0.2994
 6558SOL    HW125511   0.181   6.481  11.466  0.8992  1.5879 -2.9809
 6558SOL    HW225512   0.064   6.574  11.488  0.2744 -0.1638  3.0883
 6559SOL     OW25513   0.217   9.459   1.484 -0.0013  0.1335  0.1335
 6559SOL    HW125514   0.296   9.417   1.518  0.0858  0.5190  0.4076
 6559SOL    HW225515   0.163   9.386   1.454  1.0861 -0.0769 -1.4632
 6560SOL     OW25516   1.852   8.584  10.232  0.0694  0.1941 -0.0000
 6560SOL    HW125517   1.824   8.637  10.307 -1.2617 -0.4403 -0.0222
 6560SOL    HW225518   1.867   8.497  10.270 -0.5060 -0.1020 -0.4438
 6561SOL     OW25519   5.012  12.026   1.543  0.2504 -0.1136  0.0380
 6561SOL    HW125520   5.087  11.987   1.497  0.3273 -0.1012  0.1506
 6561SOL    HW225521   4.945  12.037   1.476  0.7101  0.8306 -0.2819
 6562SOL     OW25522   2.536   1.324   1.031  0.0909 -0.0724 -0.1903
 6562SOL    HW125523   2.548   1.418   1.043  0.6681 -0.0553 -0.8561
 6562SOL    HW225524   2.448   1.316   0.993 -0.2584  0.1358  0.5577
 6563SOL     OW25525   1.703   5.789   6.773  0.1939  0.5260  0.5788
 6563SOL    HW125526   1.723   5.882   6.772  0.8699  0.3877 -0.5058
 6563SOL    HW225527   1.746   5.754   6.695 -0.9617 -0.4995  0.3565
 6564SOL     OW25528   0.084   4.608   2.239 -0.0312  0.1822 -0.2536
 6564SOL    HW125529   0.023   4.559   2.294 -1.9524  0.4438 -2.0286
 6564SOL    HW225530   0.127   4.541   2.185 -0.2916  0.1781 -0.4558
 6565SOL     OW25531   6.156   6.785   8.813  0.1754 -0.1933 -0.3580
 6565SOL    HW125532   6.141   6.692   8.827  1.1299 -0.6547 -2.1711
 6565SOL    HW225533   6.251   6.796   8.816  0.1891  0.3664 -2.0182
 6566SOL     OW25534   0.965   7.969   7.173 -0.1655  0.5263  0.1983
 6566SOL    HW125535   0.941   8.062   7.176  0.4419  0.6595  1.6931
 6566SOL    HW225536   1.042   7.962   7.230 -1.7832 -1.3401  2.3295
 6567SOL     OW25537   6.206   2.757   5.104  0.7570 -0.0844  0.2936
 6567SOL    HW125538   6.294   2.729   5.078  1.2953  1.2940  0.5111
 6567SOL    HW225539   6.209   2.853   5.096 -0.6131  0.0030  0.6601
 6568SOL     OW25540   3.029   9.562   2.653  0.4591  0.2126  0.6399
 6568SOL    HW125541   2.989   9.518   2.579  1.3411  1.1949 -0.4745
 6568SOL    HW225542   3.013   9.655   2.637  0.6675  0.4484  1.6911
 6569SOL     OW25543   5.025   9.999   2.639  0.1439  0.2255 -0.4446
 6569SOL    HW125544   4.987  10.027   2.555  1.4903  0.1175 -1.1012
 6569SOL    HW225545   5.057  10.080   2.679 -1.5243  0.4536  0.5366
 6570SOL     OW25546   1.541   2.051   8.595 -0.1317 -0.0615  0.1151
 6570SOL    HW125547   1.450   2.052   8.624  0.0649  0.5584  0.7086
 6570SOL    HW225548   1.590   2.096   8.663  1.1257 -3.0718  1.4004
 6571SOL     OW25549   2.288   3.686  11.466  0.0241  0.1920  0.5577
 6571SOL    HW125550   2.332   3.601  11.473 -0.8913 -0.3027  0.5203
 6571SOL    HW225551   2.226   3.687  11.540 -1.6991 -0.2385 -0.7969
 6572SOL     OW25552   6.091   7.389   7.379 -0.1883  0.0313  0.5870
 6572SOL    HW125553   6.156   7.318   7.384 -0.6297 -0.4278  0.0237
 6572SOL    HW225554   6.009   7.344   7.358  0.0315  0.9154 -2.7743
 6573SOL     OW25555   2.442   5.620   4.326  0.4286 -0.2089 -0.1821
 6573SOL    HW125556   2.386   5.596   4.252 -1.3631  1.1156  0.6590
 6573SOL    HW225557   2.478   5.705   4.302  0.2539 -0.0166  0.2223
 6574SOL     OW25558   1.343   8.319   5.744  0.5743  0.3372 -0.4790
 6574SOL    HW125559   1.406   8.266   5.792 -0.5368  1.0437  1.9085
 6574SOL    HW225560   1.397   8.379   5.691  1.9470  0.9126  1.4712
 6575SOL     OW25561  10.842   2.261   7.085  0.3695 -0.3796  0.0474
 6575SOL    HW125562  10.785   2.197   7.128 -0.1354 -2.6685 -3.4967
 6575SOL    HW225563  10.785   2.335   7.066 -0.4765 -1.0884 -0.2419
 6576SOL     OW25564   5.007   2.106  10.291  0.0971 -0.6093 -0.1808
 6576SOL    HW125565   5.010   2.011  10.278 -0.1169 -0.9560  1.9870
 6576SOL    HW225566   4.949   2.119  10.366 -0.2487  1.2879 -0.7166
 6577SOL     OW25567  12.099   8.251  12.042  0.5912 -0.2279 -0.2343
 6577SOL    HW125568  12.044   8.310  12.095  0.2378 -0.7088 -0.0611
 6577SOL    HW225569  12.155   8.310  11.992  0.3065  0.2575  0.0083
 6578SOL     OW25570   3.810   6.385  11.081 -0.2384 -0.3872  0.2349
 6578SOL    HW125571   3.731   6.337  11.054  0.0661 -0.2464 -0.9853
 6578SOL    HW225572   3.878   6.318  11.089 -0.0184 -0.2856 -0.6472
 6579SOL     OW25573   8.381   2.333   5.319 -0.0425 -0.0094 -0.2045
 6579SOL    HW125574   8.340   2.252   5.350  1.3653  0.3458  3.0540
 6579SOL    HW225575   8.471   2.307   5.297  0.4938  0.6387  1.0979
 6580SOL     OW25576   8.747   1.032   9.411  0.2710  0.3714  0.1370
 6580SOL    HW125577   8.823   1.062   9.462  1.8746 -2.0009 -0.6937
 6580SOL    HW225578   8.672   1.045   9.470  1.4892  1.4091  1.5547
 6581SOL     OW25579   0.885   7.851   5.042 -0.0138 -0.5390  0.1671
 6581SOL    HW125580   0.817   7.856   4.974 -0.5204 -1.7527  0.5459
 6581SOL    HW225581   0.959   7.900   5.006 -1.5337  2.0724  0.3184
 6582SOL     OW25582   8.493   5.312   4.282  0.0174 -0.3365 -0.4769
 6582SOL    HW125583   8.498   5.253   4.357  0.4806 -0.3919 -0.5440
 6582SOL    HW225584   8.521   5.397   4.317  0.4641 -0.4139 -0.6334
 6583SOL     OW25585   1.658  11.463  10.683 -0.5108  0.5507 -0.5140
 6583SOL    HW125586   1.698  11.483  10.767 -0.4510  1.9954 -0.8534
 6583SOL    HW225587   1.640  11.369  10.686  2.2964 -0.0678 -0.1058
 6584SOL     OW25588   5.810   6.563   5.684 -0.0602 -0.3172  0.0095
 6584SOL    HW125589   5.833   6.596   5.597 -1.4824 -0.9368 -0.6316
 6584SOL    HW225590   5.717   6.544   5.678 -0.2800  0.0642  1.8274
 6585SOL     OW25591   8.524   2.904   6.863 -0.2343 -0.3940  0.1083
 6585SOL    HW125592   8.545   2.998   6.865 -0.0712 -0.4027 -0.7689
 6585SOL    HW225593   8.436   2.900   6.826 -0.2183 -0.5914  0.0898
 6586SOL     OW25594   3.697   8.050   8.206  0.3796 -0.0329 -0.4130
 6586SOL    HW125595   3.624   7.998   8.238  0.4907 -0.2710 -0.5380
 6586SOL    HW225596   3.717   8.110   8.277 -0.6880  0.8330 -0.8200
 6587SOL     OW25597  12.151   9.494  10.502 -0.5052 -0.8325  0.6243
 6587SOL    HW125598  12.119   9.404  10.493 -0.0106 -1.0319  0.8210
 6587SOL    HW225599  12.199   9.510  10.421 -0.5550 -0.7608  0.6093
 6588SOL     OW25600   0.893  11.705   7.075 -0.2887  0.3399  0.0763
 6588SOL    HW125601   0.884  11.798   7.098  1.0970  1.3226 -2.8841
 6588SOL    HW225602   0.806  11.668   7.091 -1.4838  2.6573 -0.5898
 6589SOL     OW25603   1.942   2.928   1.842 -0.3799 -0.0316  0.1974
 6589SOL    HW125604   1.952   2.862   1.911 -0.9378 -1.7999 -1.3330
 6589SOL    HW225605   1.848   2.931   1.826 -0.2863  0.6264 -0.2381
 6590SOL     OW25606   2.667   8.973   1.790  0.5571 -0.2987 -0.2534
 6590SOL    HW125607   2.635   9.061   1.768  0.8031 -0.2083 -0.2550
 6590SOL    HW225608   2.761   8.985   1.803  0.7428 -0.7367 -1.1566
 6591SOL     OW25609   9.429   6.854   5.132  0.3439  0.1485 -0.2577
 6591SOL    HW125610   9.493   6.812   5.190  0.7701 -2.4013 -2.3978
 6591SOL    HW225611   9.369   6.784   5.107 -2.0898  2.0036 -0.0365
 6592SOL     OW25612   1.843   2.471   4.665  0.1074 -0.7546  0.0372
 6592SOL    HW125613   1.784   2.437   4.732  2.3610 -0.3988  2.3381
 6592SOL    HW225614   1.833   2.566   4.671  1.4151 -0.6618  0.9700
 6593SOL     OW25615   7.595   4.258  11.737  0.2453 -0.1535 -0.1009
 6593SOL    HW125616   7.624   4.196  11.804  1.1415  0.4428  0.0745
 6593SOL    HW225617   7.662   4.254  11.670 -0.1630 -0.0471 -0.5192
 6594SOL     OW25618   3.441  11.500   9.382  0.2765 -0.2824  0.1950
 6594SOL    HW125619   3.483  11.483   9.466  1.1562  1.8025  0.2423
 6594SOL    HW225620   3.514  11.513   9.321 -0.2877 -3.7862 -1.4605
 6595SOL     OW25621   7.011   4.451   2.100  0.1142  0.0655  0.6399
 6595SOL    HW125622   7.030   4.365   2.135  1.2902 -1.5190 -3.3226
 6595SOL    HW225623   6.918   4.464   2.118 -0.6551 -3.0723 -0.4358
 6596SOL     OW25624   2.305  10.022   6.601  0.1135  0.4635  0.0966
 6596SOL    HW125625   2.352   9.941   6.620  0.7278 -0.0958 -3.1787
 6596SOL    HW225626   2.373  10.086   6.586 -0.3292  1.0517  0.5558
 6597SOL     OW25627   6.419   3.495  10.851  0.1227  0.0806 -0.1098
 6597SOL    HW125628   6.427   3.443  10.771 -0.4154  0.0220 -0.1286
 6597SOL    HW225629   6.389   3.432  10.917 -0.3360  0.3244 -0.0849
 6598SOL     OW25630   8.233   2.069  10.491  0.2918  0.0781  0.1853
 6598SOL    HW125631   8.199   1.985  10.522 -1.8525  1.3182  1.4245
 6598SOL    HW225632   8.300   2.093  10.556  2.2366 -1.4164 -1.1457
 6599SOL     OW25633   7.423   5.290   6.131  0.6054  0.3040  0.6664
 6599SOL    HW125634   7.488   5.348   6.091  1.4563 -0.4880  0.8682
 6599SOL    HW225635   7.385   5.342   6.202 -1.2403  1.8991 -1.3378
 6600SOL     OW25636   9.124   5.052   2.828  0.1614 -0.3291 -0.1602
 6600SOL    HW125637   9.047   5.003   2.799  1.0444 -2.2290  0.5135
 6600SOL    HW225638   9.123   5.044   2.923  0.1113  1.3816  0.0066
 6601SOL     OW25639   2.576   5.725   1.421  0.3514  0.3926  0.2573
 6601SOL    HW125640   2.486   5.756   1.412 -0.5105 -2.0972 -0.5531
 6601SOL    HW225641   2.607   5.765   1.503 -0.6805  3.0004 -0.5092
 6602SOL     OW25642   5.074   4.917  11.423  0.3387  0.4086  0.0617
 6602SOL    HW125643   5.165   4.897  11.401 -0.4029 -1.1978 -1.8294
 6602SOL    HW225644   5.078   5.001  11.468  2.5775  1.5323 -1.9908
 6603SOL     OW25645   6.106   3.493   7.159 -0.2558  0.0102  0.2870
 6603SOL    HW125646   6.098   3.407   7.118  1.0038 -0.1173  0.2692
 6603SOL    HW225647   6.110   3.554   7.086  0.4096 -0.0734  0.2440
 6604SOL     OW25648   3.303   7.211   7.469  0.6649  0.8388  0.1799
 6604SOL    HW125649   3.362   7.286   7.464  1.0437  0.4638 -1.1407
 6604SOL    HW225650   3.346   7.142   7.418 -0.3601  0.1745  0.1818
 6605SOL     OW25651   1.792   8.874  11.336 -0.0308  0.4951 -0.6372
 6605SOL    HW125652   1.824   8.803  11.280  1.6583  1.3410 -0.8064
 6605SOL    HW225653   1.870   8.909  11.378 -1.0443  1.1124  0.8378
 6606SOL     OW25654   3.879   3.601   7.643 -0.1173 -0.3224 -0.2307
 6606SOL    HW125655   3.801   3.648   7.612 -0.5692 -0.0267  1.2833
 6606SOL    HW225656   3.845   3.517   7.674  0.2830 -0.4962 -0.2628
 6607SOL     OW25657   5.992   6.826   0.856  0.2866  0.4646  0.3493
 6607SOL    HW125658   5.897   6.826   0.846  0.2696  1.3847  0.4815
 6607SOL    HW225659   6.013   6.738   0.887 -0.2848 -0.5431 -1.8831
 6608SOL     OW25660   1.763   8.255  12.217 -0.0110 -0.1251  0.1809
 6608SOL    HW125661   1.858   8.258  12.228 -0.0937 -0.4710  1.0324
 6608SOL    HW225662   1.750   8.241  12.123  0.8113 -2.0659  0.3213
 6609SOL     OW25663   8.244   0.659  10.765  0.1628 -0.5513  0.1584
 6609SOL    HW125664   8.239   0.590  10.699  0.4849 -0.5433  0.1241
 6609SOL    HW225665   8.255   0.612  10.848  1.9125 -0.5121 -0.0231
 6610SOL     OW25666   2.669   9.899   2.264 -0.2362  0.1699 -0.5938
 6610SOL    HW125667   2.697   9.970   2.206  0.7670  0.4733  0.2438
 6610SOL    HW225668   2.574   9.909   2.270 -0.0622  1.7220 -0.1229
 6611SOL     OW25669   4.989   8.467  11.802  0.2442 -0.7664 -0.2643
 6611SOL    HW125670   5.034   8.438  11.723  1.6522 -2.3278  1.0325
 6611SOL    HW225671   5.059   8.487  11.864 -0.8126  1.0093  0.4503
 6612SOL     OW25672   5.293   2.562   3.292  0.1530 -0.2436 -0.5560
 6612SOL    HW125673   5.383   2.541   3.316 -0.0165 -0.2919  0.0690
 6612SOL    HW225674   5.271   2.502   3.221  0.9593  0.4758 -1.4460
 6613SOL     OW25675   7.279   2.299   9.249  0.4987 -0.1295  0.1030
 6613SOL    HW125676   7.198   2.251   9.232  0.3740  0.6524 -1.7741
 6613SOL    HW225677   7.312   2.322   9.162  2.4682  0.0427  0.8469
 6614SOL     OW25678  10.837   5.556   0.706 -0.3300 -0.4947  0.2540
 6614SOL    HW125679  10.900   5.628   0.705 -0.4563 -0.3093 -2.4112
 6614SOL    HW225680  10.751   5.598   0.712 -0.4388 -0.2989 -1.9304
 6615SOL     OW25681   6.877   7.929   9.604 -0.2079 -0.2460 -0.1103
 6615SOL    HW125682   6.947   7.965   9.658 -0.3186 -0.1010 -0.0622
 6615SOL    HW225683   6.922   7.899   9.524 -0.3781  2.1149 -1.1782
 6616SOL     OW25684   0.379   6.880   1.076 -0.0052  0.0123 -0.5136
 6616SOL    HW125685   0.342   6.793   1.088 -0.8776  0.3646 -0.5573
 6616SOL    HW225686   0.318   6.925   1.017  0.0010  0.9037  0.1307
 6617SOL     OW25687   4.150   2.655   4.689  0.5954  0.4449 -0.2312
 6617SOL    HW125688   4.144   2.725   4.754  3.0712  1.2649 -0.7828
 6617SOL    HW225689   4.172   2.577   4.740 -1.8735  0.0535  0.3510
 6618SOL     OW25690  10.781   4.778   6.837 -0.0355 -0.1174 -0.1846
 6618SOL    HW125691  10.839   4.854   6.833  1.9894 -1.3684  2.5037
 6618SOL    HW225692  10.740   4.783   6.923 -1.3182 -1.0857 -0.7079
 6619SOL     OW25693   1.916  11.832   6.267  0.7765 -0.1622 -0.5474
 6619SOL    HW125694   1.877  11.919   6.282  1.2543  0.3580 -2.1529
 6619SOL    HW225695   1.858  11.772   6.314  0.6949  1.0584  1.0000
 6620SOL     OW25696   1.226   9.935   3.691  0.0873  0.4849  0.9746
 6620SOL    HW125697   1.276   9.919   3.610 -1.2159 -0.1524  0.2622
 6620SOL    HW225698   1.233  10.029   3.705  1.7503  0.3840  1.1028
 6621SOL     OW25699   2.286   6.416   2.868  0.2427 -0.2194  0.7284
 6621SOL    HW125700   2.330   6.363   2.935  3.4202  1.9017  0.5378
 6621SOL    HW225701   2.263   6.497   2.913 -0.8468 -0.1290  0.0500
 6622SOL     OW25702   8.593   8.594  10.615 -0.2392 -0.0675  0.6431
 6622SOL    HW125703   8.564   8.503  10.617  1.5893 -0.7842 -1.4482
 6622SOL    HW225704   8.569   8.625  10.527 -0.3339  1.3214  1.1285
 6623SOL     OW25705   1.890   7.409   3.398  0.0663  0.4419 -0.0897
 6623SOL    HW125706   1.949   7.352   3.348 -1.1192 -1.4578  0.6113
 6623SOL    HW225707   1.803   7.375   3.380 -0.7694  2.4791 -0.1658
 6624SOL     OW25708   7.516   9.026   1.803 -0.0494 -0.1031  0.4095
 6624SOL    HW125709   7.423   9.013   1.783 -0.3495  2.4133 -0.2110
 6624SOL    HW225710   7.556   8.941   1.790 -2.2961 -1.3193  0.9038
 6625SOL     OW25711   8.636   1.064   0.092  0.0568  0.1242 -0.2631
 6625SOL    HW125712   8.613   1.146   0.048  1.1883  0.5915 -0.0326
 6625SOL    HW225713   8.719   1.038   0.051  0.0974 -0.4910  0.2025
 6626SOL     OW25714   7.264   8.407   4.865 -0.3415 -0.1162 -0.5992
 6626SOL    HW125715   7.258   8.393   4.770  1.0242 -1.2740 -0.5591
 6626SOL    HW225716   7.264   8.318   4.902  0.0417  0.2861  0.4018
 6627SOL     OW25717   8.735  11.061   9.769 -0.3524  0.2849 -0.8920
 6627SOL    HW125718   8.689  10.979   9.750 -1.4159  0.6484 -0.0412
 6627SOL    HW225719   8.756  11.055   9.862 -0.4349  0.9782 -0.8269
 6628SOL     OW25720   8.686   3.298   0.544 -0.7573  0.3728  0.0359
 6628SOL    HW125721   8.753   3.276   0.479 -3.2357 -0.3432 -2.4712
 6628SOL    HW225722   8.657   3.214   0.579 -0.3150  0.6865  1.2185
 6629SOL     OW25723   4.592   6.437   0.751 -0.3036  0.0376  0.0493
 6629SOL    HW125724   4.497   6.448   0.762 -0.2321  0.9618 -0.1580
 6629SOL    HW225725   4.601   6.395   0.665 -0.5043  0.6452 -0.2796
 6630SOL     OW25726   0.374  11.838   3.635  0.0184  0.1950 -0.0282
 6630SOL    HW125727   0.300  11.870   3.583 -1.2555  0.6821  1.9751
 6630SOL    HW225728   0.365  11.743   3.632 -0.6058  0.2446  0.0776
 6631SOL     OW25729   7.896   0.600   1.976 -0.2231 -0.4040  0.1085
 6631SOL    HW125730   7.957   0.531   1.952  0.5598  0.3660 -0.1454
 6631SOL    HW225731   7.859   0.572   2.060 -0.7888 -1.6860 -0.5346
 6632SOL     OW25732  11.889  11.281  11.569  0.3682  0.3501  0.1488
 6632SOL    HW125733  11.857  11.347  11.507  0.6311  0.3832  0.0486
 6632SOL    HW225734  11.908  11.205  11.515  1.8225  0.7983  0.0035
 6633SOL     OW25735   0.665   7.086   0.084  0.2243  0.0075  0.0845
 6633SOL    HW125736   0.713   7.096   0.166 -0.1502  1.1668  0.1790
 6633SOL    HW225737   0.624   7.000   0.091  1.2038 -0.4489  0.5644
 6634SOL     OW25738  10.452   9.036  10.597 -0.4870 -0.2203  0.6079
 6634SOL    HW125739  10.519   9.104  10.586  0.0034 -0.8010 -0.1655
 6634SOL    HW225740  10.485   8.981  10.668  0.3335 -1.0256 -0.3660
 6635SOL     OW25741   7.532   1.625   3.275  0.1335 -0.3295 -0.0755
 6635SOL    HW125742   7.561   1.652   3.362  1.8809  1.7979 -1.2106
 6635SOL    HW225743   7.506   1.707   3.232  0.5542 -1.1396 -1.9657
 6636SOL     OW25744   2.325   0.265   4.482 -0.3419 -0.3444  0.2501
 6636SOL    HW125745   2.420   0.275   4.486 -0.1465 -2.1260  1.3245
 6636SOL    HW225746   2.306   0.243   4.391  0.3801 -0.6665  0.1717
 6637SOL     OW25747   7.395  10.798  11.574 -0.0305  0.0956 -0.6341
 6637SOL    HW125748   7.358  10.855  11.640  2.0681 -0.1688  0.8663
 6637SOL    HW225749   7.481  10.836  11.553 -0.0685 -0.5792 -2.2031
 6638SOL     OW25750   7.552   2.520   3.479  0.1192 -0.6782 -0.0191
 6638SOL    HW125751   7.537   2.426   3.488 -0.6107 -0.4830  1.0149
 6638SOL    HW225752   7.647   2.529   3.470  0.0391 -1.6883 -3.0134
 6639SOL     OW25753  10.317   7.301   1.041 -0.0795  0.1414  0.3676
 6639SOL    HW125754  10.272   7.217   1.033  0.4219 -0.2561  1.4581
 6639SOL    HW225755  10.404   7.284   1.005  0.6052 -0.3333  2.1227
 6640SOL     OW25756   1.674   2.236   7.700 -0.0664  0.1576  0.8920
 6640SOL    HW125757   1.637   2.322   7.720 -0.5566  0.3150 -0.5866
 6640SOL    HW225758   1.601   2.186   7.664  0.6032 -0.3000  0.1227
 6641SOL     OW25759   7.620   9.537   0.628 -0.5792  0.7007  0.3283
 6641SOL    HW125760   7.631   9.449   0.663 -0.5293  0.4951 -0.1991
 6641SOL    HW225761   7.675   9.592   0.684 -1.0055  0.4801  0.9782
 6642SOL     OW25762   2.482  11.588   6.980 -0.4791  0.4996 -0.6962
 6642SOL    HW125763   2.546  11.654   7.004  0.3918 -0.8661  0.9269
 6642SOL    HW225764   2.439  11.565   7.063 -0.9285 -0.7851 -1.2609
 6643SOL     OW25765   2.540   5.753  11.175  0.2474 -0.8491 -0.2150
 6643SOL    HW125766   2.604   5.758  11.104  1.8917  1.5692  1.2901
 6643SOL    HW225767   2.558   5.669  11.218  1.8572 -0.5989 -0.3555
 6644SOL     OW25768   6.779   0.835   2.804 -0.0419  0.1727  0.3394
 6644SOL    HW125769   6.724   0.785   2.864  0.1262  1.9916  2.1285
 6644SOL    HW225770   6.852   0.865   2.858  0.9430  0.5945 -1.1773
 6645SOL     OW25771   0.231   8.634   7.128 -0.3586 -0.3084  0.0537
 6645SOL    HW125772   0.202   8.544   7.124  0.8943 -0.6942 -1.3222
 6645SOL    HW225773   0.308   8.632   7.186 -1.0178  0.1113  0.9753
 6646SOL     OW25774   6.792   4.572   4.833 -0.1469 -0.0687 -0.1204
 6646SOL    HW125775   6.861   4.533   4.887 -0.1831  1.6848  1.2893
 6646SOL    HW225776   6.716   4.516   4.846  0.4784 -0.9625 -0.2048
 6647SOL     OW25777   2.157  11.818   3.241  0.5788  0.3491 -0.4544
 6647SOL    HW125778   2.138  11.911   3.246  0.9560  0.3704  0.7453
 6647SOL    HW225779   2.177  11.803   3.148 -0.0686  1.3316 -0.7705
 6648SOL     OW25780   4.486   5.864   3.616  0.3539  0.1513 -0.1982
 6648SOL    HW125781   4.400   5.840   3.650  0.0424  0.6503 -0.6148
 6648SOL    HW225782   4.546   5.848   3.689 -0.2462  0.8906  0.4790
 6649SOL     OW25783   1.879   8.616   6.353  0.1836  0.3431 -0.2563
 6649SOL    HW125784   1.799   8.592   6.305  1.1834  1.6082 -2.7269
 6649SOL    HW225785   1.849   8.679   6.418 -1.2200 -1.4228  0.9343
 6650SOL     OW25786   8.262   7.873   0.316  0.0482  0.1145  0.0194
 6650SOL    HW125787   8.285   7.945   0.258 -1.1393  0.9927  0.6138
 6650SOL    HW225788   8.243   7.800   0.256 -1.8364  1.1987 -0.7632
 6651SOL     OW25789   6.641   7.633   6.376  0.7246 -0.4070  0.3874
 6651SOL    HW125790   6.637   7.667   6.465 -1.0472 -0.7161  0.4462
 6651SOL    HW225791   6.551   7.610   6.354  0.9815  0.4227 -1.7925
 6652SOL     OW25792   3.688   4.167   6.349 -0.4429 -0.4049 -0.1054
 6652SOL    HW125793   3.618   4.159   6.284  2.2847 -0.3344 -3.2988
 6652SOL    HW225794   3.715   4.259   6.343  0.5738 -0.6685  0.3503
 6653SOL     OW25795  10.080  12.322   0.266  0.7810  0.0595  0.0910
 6653SOL    HW125796  10.142  12.282   0.326  1.7476 -0.0890 -0.9753
 6653SOL    HW225797  10.120  12.405   0.240 -0.8316  1.3892  1.6377
 6654SOL     OW25798   2.862  10.730   8.291  0.0087  0.5573  0.1755
 6654SOL    HW125799   2.823  10.801   8.342  0.2255  0.3684  0.6165
 6654SOL    HW225800   2.866  10.656   8.352 -0.5751  0.0454 -0.3958
 6655SOL     OW25801  10.439   5.386   0.250 -0.7036  0.2955 -0.3791
 6655SOL    HW125802  10.467   5.438   0.175 -0.4526 -0.4752 -0.8292
 6655SOL    HW225803  10.492   5.307   0.246 -3.6293 -1.8156 -1.9798
 6656SOL     OW25804   2.915   7.563  11.565  0.0423 -0.4164 -0.2903
 6656SOL    HW125805   2.924   7.527  11.653 -0.4216 -0.2033 -0.1527
 6656SOL    HW225806   3.004   7.565  11.530  0.6401  2.0875  1.1821
 6657SOL     OW25807   0.420   1.889   3.557 -0.2250  0.6220  0.3087
 6657SOL    HW125808   0.482   1.834   3.605 -0.2841 -0.4440 -0.7798
 6657SOL    HW225809   0.335   1.871   3.597 -0.1395  0.4635  0.4195
 6658SOL     OW25810  11.191   6.971  12.211  0.2230 -0.0655 -0.1940
 6658SOL    HW125811  11.196   7.064  12.232  1.7044 -0.4948  1.5988
 6658SOL    HW225812  11.157   6.930  12.290  3.5011 -1.4507  0.7036
 6659SOL     OW25813   9.467   4.367  11.668 -0.0997  0.1583 -0.1897
 6659SOL    HW125814   9.489   4.450  11.625 -0.7837  1.6004  2.0620
 6659SOL    HW225815   9.510   4.374  11.754 -1.8045 -0.9484  0.7892
 6660SOL     OW25816   6.131   1.596  10.234 -0.6205  0.2195 -0.5833
 6660SOL    HW125817   6.121   1.672  10.177 -1.4200  0.2711 -0.3877
 6660SOL    HW225818   6.158   1.525  10.175  1.6184  0.9681 -0.5519
 6661SOL     OW25819   9.082   3.205  10.521 -1.0062 -0.1632  0.2514
 6661SOL    HW125820   9.112   3.279  10.469  0.1922 -0.8659 -0.0817
 6661SOL    HW225821   9.005   3.172  10.475 -1.1731  0.4912  0.0677
 6662SOL     OW25822   8.390   0.596   1.286 -0.1804  0.1414 -0.3405
 6662SOL    HW125823   8.410   0.688   1.306  0.4599 -0.0795  0.0459
 6662SOL    HW225824   8.469   0.548   1.309 -0.8976 -0.6609  0.5302
 6663SOL     OW25825   2.438   0.887   8.963 -0.6054  0.4261  0.4244
 6663SOL    HW125826   2.426   0.975   8.927  0.9280 -0.0158 -1.3068
 6663SOL    HW225827   2.490   0.900   9.042 -1.1478  1.1387  0.6706
 6664SOL     OW25828  11.131   1.871   8.206  0.0152  0.0680  0.9061
 6664SOL    HW125829  11.219   1.894   8.177 -0.6335  1.4323 -0.0807
 6664SOL    HW225830  11.085   1.845   8.125 -0.6710 -0.0226  1.3150
 6665SOL     OW25831   9.523   6.613   5.632  0.0198  0.3538  0.6077
 6665SOL    HW125832   9.472   6.573   5.703  1.1205 -1.1072  0.6330
 6665SOL    HW225833   9.608   6.630   5.671  0.3062  0.4976 -0.0801
 6666SOL     OW25834   3.628   1.553   9.359  0.4064  0.0799  0.5678
 6666SOL    HW125835   3.720   1.575   9.372  0.1561  1.1564  0.6013
 6666SOL    HW225836   3.597   1.526   9.446  0.5545  0.2437  0.6725
 6667SOL     OW25837   3.779   1.916  10.204  0.5253 -0.1395 -0.0828
 6667SOL    HW125838   3.826   1.870  10.274  0.1030  1.1448  1.0971
 6667SOL    HW225839   3.692   1.875  10.202 -0.3850  1.5044  2.0186
 6668SOL     OW25840   3.839  11.177   7.235 -0.7241 -0.5404 -0.5085
 6668SOL    HW125841   3.892  11.183   7.315 -0.7897 -0.8071 -0.4429
 6668SOL    HW225842   3.793  11.094   7.243 -1.4419 -0.1393 -0.3915
 6669SOL     OW25843   3.041   5.986   3.950  0.3350 -0.5496 -0.7601
 6669SOL    HW125844   2.980   6.059   3.948  0.8226 -0.0535  0.7244
 6669SOL    HW225845   2.986   5.909   3.967  0.0761 -0.1379  0.3602
 6670SOL     OW25846   2.328   9.236   4.389  0.3129  0.0898  0.3938
 6670SOL    HW125847   2.415   9.216   4.423  0.6033 -1.7849 -1.2672
 6670SOL    HW225848   2.329   9.202   4.300 -1.3858  2.1219 -0.4880
 6671SOL     OW25849  10.085   3.488   0.543  0.1327 -0.2673 -0.7289
 6671SOL    HW125850  10.095   3.402   0.501 -1.3165 -0.6810 -0.2617
 6671SOL    HW225851   9.992   3.508   0.536 -0.0389  0.0037  1.6047
 6672SOL     OW25852   0.583  12.055  12.012  0.4490 -0.3476  0.2669
 6672SOL    HW125853   0.497  12.058  12.053 -0.7702  0.1584 -2.1399
 6672SOL    HW225854   0.618  11.970  12.036 -1.4842 -1.2988 -0.0960
 6673SOL     OW25855   6.236  12.146   5.201  0.5003 -0.1938 -0.0515
 6673SOL    HW125856   6.233  12.100   5.284 -0.6916 -0.1799 -0.0709
 6673SOL    HW225857   6.280  12.229   5.221  0.2133 -0.1873  0.5678
 6674SOL     OW25858   9.743   7.854   6.192  0.3935  0.2933  0.4805
 6674SOL    HW125859   9.677   7.921   6.208  1.1483  0.8316  1.5003
 6674SOL    HW225860   9.823   7.904   6.173  0.6116 -0.3333 -0.2705
 6675SOL     OW25861   7.521   2.472  10.921 -1.0566  0.3181  0.1551
 6675SOL    HW125862   7.611   2.503  10.916 -1.3045  0.9315 -2.5935
 6675SOL    HW225863   7.476   2.537  10.974 -0.1530  0.7402  0.4308
 6676SOL     OW25864   2.695  12.101   6.130  0.6420  0.0203  0.5042
 6676SOL    HW125865   2.609  12.117   6.091  1.8633  0.2127 -2.3647
 6676SOL    HW225866   2.706  12.006   6.124  0.5493 -0.0229  1.0376
 6677SOL     OW25867   2.399   2.725  10.245  0.3479 -0.3844  0.0006
 6677SOL    HW125868   2.351   2.792  10.196  0.0230  0.6684  1.6466
 6677SOL    HW225869   2.472   2.772  10.283  0.3775 -1.0678  0.8196
 6678SOL     OW25870   0.085   2.567   1.769  0.1338  0.4452  0.2648
 6678SOL    HW125871   0.099   2.476   1.795 -2.8372  0.2420  1.5876
 6678SOL    HW225872   0.014   2.564   1.705 -0.5469  1.8552  0.8978
 6679SOL     OW25873   2.872   8.911   0.828 -0.0593 -0.1997 -0.2161
 6679SOL    HW125874   2.829   8.993   0.853 -1.0324 -0.9460  0.6760
 6679SOL    HW225875   2.805   8.844   0.842  1.0787 -1.2858  0.2215
 6680SOL     OW25876  10.677   0.193   6.388 -0.1569  0.3876 -0.5406
 6680SOL    HW125877  10.705   0.107   6.358  0.7946 -0.1409  1.6383
 6680SOL    HW225878  10.588   0.203   6.353 -0.3151 -1.4975 -0.7945
 6681SOL     OW25879   0.913   8.888   9.108  0.0420  0.0610 -0.5954
 6681SOL    HW125880   0.962   8.838   9.043  1.2205 -1.6921  1.5244
 6681SOL    HW225881   0.824   8.891   9.074  0.7722 -0.1373 -2.6311
 6682SOL     OW25882  11.135   6.006   2.034  0.5597 -0.3217 -0.2601
 6682SOL    HW125883  11.074   6.019   2.107  0.2222 -3.8017  0.2544
 6682SOL    HW225884  11.127   6.085   1.982 -1.2448  1.1351  2.0097
 6683SOL     OW25885   6.923   1.618   9.489 -0.2255 -0.3551  0.0885
 6683SOL    HW125886   7.016   1.616   9.512  0.3711 -0.3389 -2.1153
 6683SOL    HW225887   6.892   1.529   9.504  0.8781 -1.1018 -1.7537
 6684SOL     OW25888   3.217   7.247   8.982  0.2176  0.4506 -0.0787
 6684SOL    HW125889   3.123   7.248   8.960  0.1324 -1.7697 -0.0233
 6684SOL    HW225890   3.243   7.156   8.969  2.0634  0.7571  1.2284
 6685SOL     OW25891  10.424   8.079   7.116 -0.5540 -0.3282 -0.1795
 6685SOL    HW125892  10.341   8.114   7.149 -0.8668 -0.6166 -0.6549
 6685SOL    HW225893  10.457   8.147   7.058 -1.6609 -1.2089 -1.9062
 6686SOL     OW25894   5.743   3.732   7.981 -0.2008  0.0360  0.3590
 6686SOL    HW125895   5.681   3.795   7.944  0.9331  0.3044 -1.1373
 6686SOL    HW225896   5.704   3.647   7.961 -0.7723  0.2130  0.6748
 6687SOL     OW25897   9.489   3.768   6.323 -0.1004 -0.1263  0.4624
 6687SOL    HW125898   9.422   3.742   6.386 -0.5280 -1.5829 -0.5398
 6687SOL    HW225899   9.548   3.693   6.319  0.4403  0.3191 -0.1936
 6688SOL     OW25900   8.067  10.870  11.977 -0.0627 -0.7750  0.4656
 6688SOL    HW125901   8.118  10.934  12.027 -1.9860  0.1910  1.3006
 6688SOL    HW225902   8.121  10.791  11.977  1.9261  0.4849  0.3086
 6689SOL     OW25903   8.051   7.041   7.875  0.0615 -0.0465 -0.5156
 6689SOL    HW125904   8.107   7.043   7.953  0.0175 -1.6677 -0.4006
 6689SOL    HW225905   8.056   7.129   7.839  0.7911  0.4928  0.8269
 6690SOL     OW25906   3.343  10.759   9.723  0.4371  0.0012 -0.0276
 6690SOL    HW125907   3.345  10.692   9.792 -1.9925  1.0001  1.1067
 6690SOL    HW225908   3.379  10.837   9.765 -0.3116  0.4001 -0.1163
 6691SOL     OW25909   3.839   5.980   3.340  0.1750 -0.4265 -0.1586
 6691SOL    HW125910   3.813   5.987   3.248  2.0195  2.2065 -0.5901
 6691SOL    HW225911   3.757   5.974   3.388 -0.8562 -0.9085 -1.9044
 6692SOL     OW25912   9.458   6.380   6.403 -0.3433  0.1016  0.1585
 6692SOL    HW125913   9.369   6.376   6.438 -0.1471  2.1327  1.0726
 6692SOL    HW225914   9.513   6.346   6.473 -0.2925  0.1144  0.1247
 6693SOL     OW25915  10.795   2.058   1.427 -0.0303  0.4153 -0.2991
 6693SOL    HW125916  10.765   1.977   1.386 -0.3440  0.3720  0.0167
 6693SOL    HW225917  10.738   2.070   1.503 -0.4380  1.2849 -0.7245
 6694SOL     OW25918   3.474   0.718   6.891  0.6630  0.0012 -0.2958
 6694SOL    HW125919   3.453   0.789   6.830  0.8379 -0.1965 -0.5882
 6694SOL    HW225920   3.390   0.694   6.930  0.6381  0.5342 -0.0117
 6695SOL     OW25921   6.373   4.148   9.206 -0.2927 -0.2936  0.4732
 6695SOL    HW125922   6.459   4.129   9.242 -0.0132 -0.9774 -0.5071
 6695SOL    HW225923   6.384   4.137   9.111 -1.1109  0.9747  0.2017
 6696SOL     OW25924   7.997   8.113   5.843  0.3822  0.2054  0.0276
 6696SOL    HW125925   8.037   8.032   5.811 -0.4900 -0.1802 -0.1087
 6696SOL    HW225926   7.967   8.158   5.764 -0.7121 -0.1848  0.2062
 6697SOL     OW25927   0.416   9.308   6.612 -0.2403 -0.4018 -0.1960
 6697SOL    HW125928   0.485   9.366   6.582 -0.3847  1.1965  2.2947
 6697SOL    HW225929   0.461   9.225   6.631  0.5232 -0.1547 -0.8627
 6698SOL     OW25930   3.482   1.105  11.799  0.0381  0.3499 -0.5246
 6698SOL    HW125931   3.493   1.124  11.892  2.4033 -1.6338 -0.2812
 6698SOL    HW225932   3.537   1.168  11.754  1.0863 -0.4189 -0.3469
 6699SOL     OW25933  11.558  11.336   0.396  0.0009 -0.4111  0.1328
 6699SOL    HW125934  11.495  11.317   0.465  0.1571 -0.5494  0.2386
 6699SOL    HW225935  11.522  11.412   0.349  0.8091  0.8996  1.5434
 6700SOL     OW25936   4.628   1.349   4.741 -0.7292  0.3244 -0.2127
 6700SOL    HW125937   4.638   1.348   4.646 -0.9311  0.5219 -0.2383
 6700SOL    HW225938   4.718   1.354   4.774 -0.6961  1.9066 -0.4373
 6701SOL     OW25939  11.340   9.291   5.005  0.1282  0.2473  0.1760
 6701SOL    HW125940  11.395   9.215   5.020 -2.2078 -1.6951 -0.4483
 6701SOL    HW225941  11.342   9.303   4.910  1.3852  1.7456  0.3581
 6702SOL     OW25942   2.160  11.078   9.259  0.3331  0.0782 -0.0914
 6702SOL    HW125943   2.110  11.001   9.288  2.6099 -1.6574 -0.4598
 6702SOL    HW225944   2.138  11.087   9.166 -1.0185  0.8066  0.2706
 6703SOL     OW25945  10.351  12.212  11.191 -0.6596  0.6766  0.3034
 6703SOL    HW125946  10.424  12.253  11.236  1.5940 -1.4625 -1.1891
 6703SOL    HW225947  10.321  12.279  11.129 -0.5302  1.8384  1.4520
 6704SOL     OW25948   2.778   3.511   8.381 -0.5794 -0.4301  0.3804
 6704SOL    HW125949   2.765   3.591   8.433 -1.9908 -0.8251  0.6717
 6704SOL    HW225950   2.868   3.486   8.399 -0.1990  0.9385  0.5131
 6705SOL     OW25951   8.478   6.184   8.042 -0.0573  0.4391 -0.8231
 6705SOL    HW125952   8.449   6.275   8.040 -1.6005  0.1468  2.3649
 6705SOL    HW225953   8.442   6.145   7.963 -2.6626  1.7542 -0.3848
 6706SOL     OW25954   7.978   5.959   7.270 -0.5598 -0.0115 -0.1934
 6706SOL    HW125955   7.945   5.901   7.202  0.4284 -0.0059 -0.6868
 6706SOL    HW225956   8.057   5.916   7.303 -0.6652  0.3044  0.5005
 6707SOL     OW25957   5.554   5.740   0.102  0.1078  0.2492 -0.4923
 6707SOL    HW125958   5.542   5.760   0.195 -1.2181 -0.7841 -0.4072
 6707SOL    HW225959   5.489   5.673   0.084  0.9939 -0.2506 -1.9552
 6708SOL     OW25960   4.280  11.548   8.208 -0.1811 -0.0458 -0.4628
 6708SOL    HW125961   4.342  11.617   8.232  0.0658 -0.3117 -0.3263
 6708SOL    HW225962   4.320  11.506   8.131  1.2777 -2.0699  1.2723
 6709SOL     OW25963   4.531   6.283   8.591  0.0373 -0.2051  0.1109
 6709SOL    HW125964   4.495   6.306   8.505  1.0630 -0.4479 -0.3980
 6709SOL    HW225965   4.590   6.356   8.612  1.3428 -1.1014 -0.3361
 6710SOL     OW25966   3.635  10.290   7.355 -0.3515 -0.1412 -0.1031
 6710SOL    HW125967   3.589  10.345   7.419 -0.6390  2.2363 -2.1918
 6710SOL    HW225968   3.568  10.269   7.290  0.7732  0.8588 -1.6387
 6711SOL     OW25969   1.769  11.476   9.556 -0.1858 -0.4646  0.2427
 6711SOL    HW125970   1.705  11.409   9.580 -0.3857  0.0800  1.2527
 6711SOL    HW225971   1.847  11.426   9.531 -0.4339 -1.0833  0.6818
 6712SOL     OW25972   9.772   6.688  10.811  0.2816 -0.1064  0.0625
 6712SOL    HW125973   9.708   6.758  10.822 -0.0200 -0.4903  0.8383
 6712SOL    HW225974   9.726   6.609  10.840  0.7713 -0.5536 -0.3521
 6713SOL     OW25975   9.651   2.453   1.922  0.5257 -0.0342  0.2728
 6713SOL    HW125976   9.733   2.485   1.884  0.5021  0.2647  0.4660
 6713SOL    HW225977   9.673   2.437   2.014 -0.0426  1.6200  0.7253
 6714SOL     OW25978   9.522   9.221  10.798 -0.0571 -0.1012 -0.2960
 6714SOL    HW125979   9.465   9.240  10.724 -0.6237 -2.4499 -0.5332
 6714SOL    HW225980   9.534   9.126  10.796  2.5970  0.1257  0.6989
 6715SOL     OW25981   9.789   4.229   1.707 -0.0192 -0.1058 -1.0095
 6715SOL    HW125982   9.876   4.189   1.701 -0.7921 -2.0947  0.0229
 6715SOL    HW225983   9.774   4.239   1.801 -0.8084  0.4778 -1.1910
 6716SOL     OW25984   9.524   5.717   4.840 -0.1445  0.2586 -0.1736
 6716SOL    HW125985   9.489   5.653   4.901  1.8944 -1.5624 -0.8183
 6716SOL    HW225986   9.520   5.674   4.755  1.2948  0.9675 -0.6239
 6717SOL     OW25987  12.181   8.147   9.906  0.1330  0.2713  0.2887
 6717SOL    HW125988  12.215   8.141   9.996  0.0806 -0.4359  0.2631
 6717SOL    HW225989  12.096   8.191   9.916  0.4985  0.9522  0.4847
 6718SOL     OW25990   5.859   9.295   0.092  0.5932 -0.5697  0.0480
 6718SOL    HW125991   5.907   9.355   0.148 -0.2852 -0.2067  0.4217
 6718SOL    HW225992   5.788   9.347   0.054 -0.3484 -1.4207  0.5989
 6719SOL     OW25993   3.478   0.772   5.138 -0.2268 -0.5954  0.3695
 6719SOL    HW125994   3.493   0.685   5.103 -2.8804 -0.9060 -0.2186
 6719SOL    HW225995   3.458   0.758   5.231  0.2068 -0.4983  0.4808
 6720SOL     OW25996  10.126   3.144  10.949  0.2033  0.2894  0.7759
 6720SOL    HW125997  10.161   3.197  11.021  2.2582  0.2420 -0.1101
 6720SOL    HW225998  10.196   3.143  10.884 -1.2207 -0.4810 -0.8191
 6721SOL     OW25999   4.690   6.632   8.236 -0.3449 -0.1269 -0.1910
 6721SOL    HW126000   4.774   6.642   8.192  0.0345  0.6337  0.6643
 6721SOL    HW226001   4.631   6.598   8.169  1.1310 -2.7481 -0.2897
 6722SOL     OW26002   9.519   0.373   6.679  0.3421 -0.1454 -0.2834
 6722SOL    HW126003   9.531   0.456   6.724  0.0976 -0.8974  1.2260
 6722SOL    HW226004   9.432   0.343   6.704  0.9935 -1.5555  0.4450
 6723SOL     OW26005   8.523   7.123   6.317 -0.2511  0.4275 -0.4267
 6723SOL    HW126006   8.573   7.196   6.281  1.2747  0.4905  1.6144
 6723SOL    HW226007   8.537   7.051   6.255 -0.2719  1.3275 -1.5073
 6724SOL     OW26008   7.733   2.422   4.303 -0.5490  0.2798  0.1993
 6724SOL    HW126009   7.718   2.381   4.217 -1.4760  0.1293  0.4331
 6724SOL    HW226010   7.754   2.513   4.282 -1.0341  0.3088 -0.1760
 6725SOL     OW26011   3.638   8.759   1.101 -0.1099 -0.1831  0.0758
 6725SOL    HW126012   3.593   8.843   1.095 -0.1607 -0.1914  0.3508
 6725SOL    HW226013   3.568   8.694   1.099 -0.1334 -0.1847  0.8372
 6726SOL     OW26014   3.173   7.896   9.246 -0.0391 -0.0823  0.4027
 6726SOL    HW126015   3.194   7.805   9.268 -1.8162 -0.6045  0.0612
 6726SOL    HW226016   3.258   7.935   9.225  0.7661 -1.6341  0.5922
 6727SOL     OW26017   8.915   7.801   8.923  0.0147  0.9046  0.2848
 6727SOL    HW126018   8.906   7.842   9.008 -0.0771  1.1160  0.1743
 6727SOL    HW226019   8.830   7.760   8.906 -0.1853  1.4335  0.0010
 6728SOL     OW26020   3.693   3.545   0.243  0.0725  0.1804 -0.5970
 6728SOL    HW126021   3.781   3.520   0.215 -0.8272 -3.7619 -0.5866
 6728SOL    HW226022   3.700   3.560   0.337  0.4069 -3.0652  0.0212
 6729SOL     OW26023   3.075   4.004   2.062  0.7849 -0.3810 -0.1403
 6729SOL    HW126024   3.112   4.029   1.978  1.5434  0.5247  0.4501
 6729SOL    HW226025   3.055   3.911   2.052  3.3676 -0.9891 -0.4701
 6730SOL     OW26026   5.728   6.788   3.787  0.4424  0.0132  1.1251
 6730SOL    HW126027   5.812   6.798   3.742 -0.5037  0.1847 -0.6751
 6730SOL    HW226028   5.723   6.695   3.809  1.4002  0.1268  1.8976
 6731SOL     OW26029   9.006   6.515   8.098 -0.0006  0.3157 -0.2411
 6731SOL    HW126030   8.983   6.565   8.176 -0.0166 -0.3112  0.1657
 6731SOL    HW226031   8.936   6.451   8.088 -0.6580  1.1887 -1.5092
 6732SOL     OW26032   9.546  10.660   3.885 -0.3421 -0.5823  0.0699
 6732SOL    HW126033   9.511  10.652   3.974  1.5867 -1.4503  0.8194
 6732SOL    HW226034   9.569  10.752   3.876 -0.3166 -0.5326  0.5857
 6733SOL     OW26035   7.148   1.017   8.686 -0.2205 -0.2804 -0.4001
 6733SOL    HW126036   7.167   1.095   8.739 -1.3949  0.4934 -1.0684
 6733SOL    HW226037   7.053   1.011   8.686 -0.2517 -0.3747 -2.2217
 6734SOL     OW26038   0.055   6.562   7.853  0.3280 -0.0481  0.2755
 6734SOL    HW126039   0.128   6.622   7.839 -0.1869  0.6261  0.4525
 6734SOL    HW226040   0.078   6.514   7.932  0.4920  0.2957  0.4355
 6735SOL     OW26041   5.859   5.811  10.452  0.3716 -0.0939 -0.2332
 6735SOL    HW126042   5.913   5.884  10.480  0.5494  0.5925 -2.1910
 6735SOL    HW226043   5.776   5.851  10.424  0.3805 -0.6409 -1.0912
 6736SOL     OW26044   8.026   2.728   7.453  0.2258  0.0007 -0.6496
 6736SOL    HW126045   7.983   2.812   7.443  0.6878  0.1588 -1.3591
 6736SOL    HW226046   8.120   2.748   7.452  0.3453 -0.3418  0.7878
 6737SOL     OW26047   2.452   5.969  12.249 -0.3789 -0.3552 -0.5715
 6737SOL    HW126048   2.367   6.007  12.271 -0.7571 -1.1792 -0.5693
 6737SOL    HW226049   2.479   5.923  12.328  0.7745  1.1156 -0.0715
 6738SOL     OW26050   4.929  10.252   7.425  0.4936 -0.3124 -0.0264
 6738SOL    HW126051   4.851  10.197   7.416  0.1085 -0.0269  1.2710
 6738SOL    HW226052   4.894  10.338   7.451  1.2325 -0.1927  0.6185
 6739SOL     OW26053   3.700   6.514   9.155 -0.2764  0.3966  0.3178
 6739SOL    HW126054   3.743   6.591   9.119  0.8421  0.5634  1.9099
 6739SOL    HW226055   3.612   6.516   9.118  0.0249  1.9196 -0.3811
 6740SOL     OW26056   7.130   1.848   2.764  0.0618 -0.0191 -0.1218
 6740SOL    HW126057   7.199   1.801   2.811 -0.0395  0.0572  0.1034
 6740SOL    HW226058   7.126   1.805   2.678 -0.1279 -0.5188  0.1302
 6741SOL     OW26059   0.023   2.877   0.333 -0.5341  0.3420  0.4962
 6741SOL    HW126060   0.018   2.813   0.404  0.0734  1.9415  2.0417
 6741SOL    HW226061   0.013   2.825   0.253  0.8802 -1.8249  1.6247
 6742SOL     OW26062   7.422   3.406   8.082  0.1595 -0.4582  0.2218
 6742SOL    HW126063   7.440   3.461   8.006  1.7284 -2.6613 -1.1118
 6742SOL    HW226064   7.509   3.390   8.120 -0.3689 -1.2408  1.1311
 6743SOL     OW26065   2.477   6.150   8.769 -0.4918  0.4652  0.0100
 6743SOL    HW126066   2.462   6.057   8.747 -1.5824  0.9876 -1.6922
 6743SOL    HW226067   2.550   6.176   8.714 -1.8093  1.2222 -1.4664
 6744SOL     OW26068   7.769  10.981   2.021 -0.2036 -0.5119 -0.0408
 6744SOL    HW126069   7.819  11.028   2.086 -2.6510  0.6364  1.1441
 6744SOL    HW226070   7.793  10.889   2.033 -0.4590 -0.3112  2.4229
 6745SOL     OW26071  11.242   0.551   0.383  0.3612 -0.2315  0.0896
 6745SOL    HW126072  11.152   0.538   0.413  0.3389 -1.0553 -0.3074
 6745SOL    HW226073  11.234   0.612   0.310  0.2670  0.6972  0.8688
 6746SOL     OW26074   7.576   5.427   7.394 -0.0122  0.1184 -0.3647
 6746SOL    HW126075   7.532   5.381   7.323 -0.0459 -1.1713  0.4745
 6746SOL    HW226076   7.506   5.451   7.454  0.1496  0.1964 -0.2067
 6747SOL     OW26077   8.559   2.406  11.559  0.0825  0.6508 -0.2768
 6747SOL    HW126078   8.596   2.351  11.627 -1.5714 -0.2735 -0.0596
 6747SOL    HW226079   8.549   2.348  11.484  0.6038  1.3035 -0.8602
 6748SOL     OW26080   8.968   9.269   3.896 -0.1305 -0.1178 -0.1117
 6748SOL    HW126081   8.987   9.197   3.836  0.4186 -1.0004  1.0851
 6748SOL    HW226082   9.031   9.258   3.968  0.2309  1.7870 -0.0715
 6749SOL     OW26083   3.795  11.604   6.902  0.1760  0.3866 -0.5475
 6749SOL    HW126084   3.715  11.611   6.955 -0.9340  2.2227 -2.3276
 6749SOL    HW226085   3.803  11.511   6.884 -0.6832 -0.0173  0.9322
 6750SOL     OW26086   4.010   6.388   5.029  0.1989 -0.2290 -0.1198
 6750SOL    HW126087   3.992   6.480   5.049 -1.2061 -0.1973 -1.3495
 6750SOL    HW226088   4.105   6.383   5.023  0.4106  0.7658  1.6256
 6751SOL     OW26089   9.280   8.101  11.589 -0.0298 -0.4860  0.4463
 6751SOL    HW126090   9.252   8.148  11.510  0.7445  0.4849  0.7239
 6751SOL    HW226091   9.201   8.056  11.620 -1.3541  2.1672  1.2313
 6752SOL     OW26092   4.164  11.505   9.541 -0.2476 -0.3276 -0.1679
 6752SOL    HW126093   4.106  11.561   9.593  0.2304 -0.3158  0.3600
 6752SOL    HW226094   4.236  11.562   9.516 -0.4878 -0.3240 -0.8831
 6753SOL     OW26095   5.244   7.618   1.502  0.5836 -0.4105  0.0580
 6753SOL    HW126096   5.198   7.534   1.498 -0.2133  0.0515 -1.0240
 6753SOL    HW226097   5.193   7.676   1.446  1.1568  0.7929  0.7453
 6754SOL     OW26098   3.729   3.714   7.420 -0.5635  0.0779 -0.3159
 6754SOL    HW126099   3.700   3.782   7.360  0.9282  0.3477 -0.7914
 6754SOL    HW226100   3.729   3.634   7.368 -1.1221 -0.0559 -0.1141
 6755SOL     OW26101  10.768   7.825   1.426 -0.6543  0.0062 -0.3082
 6755SOL    HW126102  10.756   7.908   1.380 -1.8342  0.7952  1.3154
 6755SOL    HW226103  10.699   7.768   1.392 -0.4080 -0.0202 -0.7748
 6756SOL     OW26104  12.246  12.081  12.189 -0.2882 -0.1962 -0.2699
 6756SOL    HW126105  12.189  12.147  12.228  1.7926  2.2155 -1.0010
 6756SOL    HW226106  12.289  12.039  12.263  0.8189  1.6678  0.1991
 6757SOL     OW26107   5.265   6.940   5.374  0.4611  0.0923 -0.0335
 6757SOL    HW126108   5.257   6.847   5.353 -0.7341  0.0946  0.3206
 6757SOL    HW226109   5.354   6.950   5.408  0.9109 -0.7450 -0.9036
 6758SOL     OW26110   2.245   0.112   4.246 -0.8400  0.2369  0.3335
 6758SOL    HW126111   2.263   0.166   4.169  1.2658 -0.1188  0.5164
 6758SOL    HW226112   2.170   0.059   4.221 -0.7746  0.7757 -1.1391
 6759SOL     OW26113   9.211   1.928   2.389 -0.1477 -0.1316 -0.7768
 6759SOL    HW126114   9.119   1.905   2.374 -0.5026 -0.4677  1.5645
 6759SOL    HW226115   9.210   2.020   2.414  0.0759 -0.2568 -0.2833
 6760SOL     OW26116  10.225   7.768   4.860  0.4480  0.5132  0.6998
 6760SOL    HW126117  10.272   7.817   4.928 -1.0255 -1.4523  3.2949
 6760SOL    HW226118  10.141   7.812   4.852 -0.3975 -0.7686  2.1358
 6761SOL     OW26119   9.037   4.070   3.879 -0.2864  0.4768 -0.3700
 6761SOL    HW126120   9.125   4.084   3.916 -0.4553  0.4972  0.0323
 6761SOL    HW226121   9.044   4.098   3.788  0.5713 -1.0306 -0.8165
 6762SOL     OW26122   1.213   1.336   8.660  0.6014 -0.1079  0.6914
 6762SOL    HW126123   1.159   1.406   8.697  0.2762  0.1713 -0.2779
 6762SOL    HW226124   1.293   1.338   8.712  1.0323  1.6948  0.0208
 6763SOL     OW26125   7.486   3.353   3.730  0.4482  0.0825 -0.4840
 6763SOL    HW126126   7.460   3.397   3.649 -0.3589  0.0385 -0.2509
 6763SOL    HW226127   7.490   3.422   3.796 -0.4087 -0.1202 -0.2141
 6764SOL     OW26128   5.486  10.830  10.979  0.0244  0.3095  0.1049
 6764SOL    HW126129   5.494  10.755  11.037 -1.8258  2.2380  3.1428
 6764SOL    HW226130   5.396  10.827  10.947  0.0537  0.9757 -0.0621
 6765SOL     OW26131   5.940  10.107   5.183 -0.4855  0.1057  0.5566
 6765SOL    HW126132   5.868  10.137   5.127 -0.7777 -0.2202  0.7540
 6765SOL    HW226133   5.901  10.040   5.239  0.6562 -2.4662 -1.5017
 6766SOL     OW26134   8.958  10.076   7.791  0.0583 -0.2323  0.3252
 6766SOL    HW126135   9.027  10.101   7.852 -0.3855 -0.7469  1.0501
 6766SOL    HW226136   8.886  10.046   7.846 -0.4083 -0.5723 -0.4445
 6767SOL     OW26137  11.056   0.227  11.398  0.0319 -0.4543  0.1784
 6767SOL    HW126138  11.091   0.138  11.405 -0.9418 -0.7315  2.5409
 6767SOL    HW226139  11.097   0.274  11.471 -0.8804  0.5079  0.0958
 6768SOL     OW26140   3.525   1.955   1.954  0.4894 -0.0420  0.2456
 6768SOL    HW126141   3.472   2.017   1.904  0.9613 -0.1349 -0.3729
 6768SOL    HW226142   3.615   1.981   1.937  0.7022 -0.9799 -0.1277
 6769SOL     OW26143   3.256   2.498   7.231  0.1726 -0.1517  0.2662
 6769SOL    HW126144   3.224   2.433   7.169 -2.0335  0.3663  0.7850
 6769SOL    HW226145   3.225   2.582   7.197  0.3759  0.3147  1.1724
 6770SOL     OW26146   4.767   3.617   6.230  0.5134  0.2583 -0.0500
 6770SOL    HW126147   4.791   3.633   6.138  0.0068  0.9227 -0.0738
 6770SOL    HW226148   4.837   3.562   6.264  1.4777  1.2103 -0.4407
 6771SOL     OW26149   9.759  11.338   4.288 -0.2379 -0.5901 -0.7804
 6771SOL    HW126150   9.816  11.360   4.362  0.8346 -1.6494 -1.2544
 6771SOL    HW226151   9.674  11.318   4.328 -0.0212  0.0265  0.0341
 6772SOL     OW26152   2.640   8.870   8.394  0.2728 -0.5388  0.4164
 6772SOL    HW126153   2.576   8.881   8.464  0.4878 -2.3791  0.9556
 6772SOL    HW226154   2.671   8.780   8.404  0.2000 -0.9174 -2.1349
 6773SOL     OW26155   1.742   7.872   5.985 -0.3487  0.5468  0.3154
 6773SOL    HW126156   1.670   7.809   5.984  0.6313 -0.6125  0.2052
 6773SOL    HW226157   1.722   7.932   5.914  0.0654 -1.2805 -1.4570
 6774SOL     OW26158   1.737   9.806   7.078  0.0687 -0.2304  0.4415
 6774SOL    HW126159   1.725   9.799   7.173  0.5011  0.3628  0.5455
 6774SOL    HW226160   1.829   9.783   7.064  0.1232  0.1070  0.2191
 6775SOL     OW26161   4.408   3.370  12.287 -0.0849 -0.0619  0.0242
 6775SOL    HW126162   4.349   3.357  12.361 -0.0913  2.9529  0.6582
 6775SOL    HW226163   4.452   3.452  12.305 -0.3604  1.0452 -3.4925
 6776SOL     OW26164  11.309   7.711   4.759  0.1980 -0.0201  0.1128
 6776SOL    HW126165  11.295   7.767   4.683 -0.8459 -0.4465 -0.0214
 6776SOL    HW226166  11.304   7.771   4.834  1.6195  0.4651 -0.1494
 6777SOL     OW26167   2.138   5.757   9.697 -0.6941 -0.3060  0.3410
 6777SOL    HW126168   2.179   5.673   9.718 -1.6999 -1.0259 -0.4807
 6777SOL    HW226169   2.088   5.740   9.617 -2.0830  0.6903  0.9552
 6778SOL     OW26170   1.366  11.784   9.594 -0.0042 -0.3414  0.4713
 6778SOL    HW126171   1.286  11.796   9.645 -0.6395 -1.6331 -0.1658
 6778SOL    HW226172   1.400  11.699   9.622  2.4365  1.1466  2.3857
 6779SOL     OW26173   4.519   2.885   9.088 -0.1933  0.0646  0.3789
 6779SOL    HW126174   4.588   2.928   9.138 -0.2928 -1.0707  1.5775
 6779SOL    HW226175   4.460   2.850   9.155  0.3806 -2.7151 -0.4375
 6780SOL     OW26176   2.498   7.585   5.625  0.0870  0.5209 -0.2622
 6780SOL    HW126177   2.505   7.661   5.682  2.4372 -1.4437  2.3293
 6780SOL    HW226178   2.586   7.574   5.589 -0.5370 -0.2707 -1.6354
 6781SOL     OW26179   0.897   8.455   0.041 -0.6177  0.6474  0.4736
 6781SOL    HW126180   0.959   8.512   0.087  0.3543 -1.1011  1.4486
 6781SOL    HW226181   0.934   8.444  -0.046  0.0758  0.1889  0.8186
 6782SOL     OW26182  10.508   6.289  10.644  0.4221 -0.4893  0.1430
 6782SOL    HW126183  10.527   6.242  10.563 -0.1626  0.8760 -0.8187
 6782SOL    HW226184  10.473   6.373  10.615 -0.4351 -0.2321  1.8138
 6783SOL     OW26185   6.649   3.849  11.809 -0.0781  0.3566  0.4685
 6783SOL    HW126186   6.720   3.855  11.874  0.3954 -1.0104  0.1138
 6783SOL    HW226187   6.689   3.881  11.728 -0.1530  0.4388  0.4633
 6784SOL     OW26188   0.077  10.409   9.358  0.0520  0.4736 -0.1760
 6784SOL    HW126189   0.074  10.419   9.453  0.7787  2.1526 -0.2906
 6784SOL    HW226190   0.098  10.497   9.326  0.4294 -0.2010 -1.8561
 6785SOL     OW26191  11.709  10.286   1.966  0.1278 -0.6906 -0.2751
 6785SOL    HW126192  11.629  10.257   1.923  0.3288 -0.5050 -0.7756
 6785SOL    HW226193  11.720  10.377   1.939  0.3576 -0.6298  0.0158
 6786SOL     OW26194   7.382   0.889   8.533  0.3429 -0.3859 -0.5988
 6786SOL    HW126195   7.310   0.950   8.549  0.9876  0.0953  0.6352
 6786SOL    HW226196   7.341   0.803   8.531 -0.2114 -0.1739  0.7098
 6787SOL     OW26197   5.935   8.219  10.302 -0.2635 -0.7742 -0.2339
 6787SOL    HW126198   5.968   8.248  10.217  0.4147 -1.8350 -0.3412
 6787SOL    HW226199   5.968   8.130  10.312  0.7482 -0.2529  1.6953
 6788SOL     OW26200   3.214   6.657   2.083 -0.2258  0.3568 -0.0977
 6788SOL    HW126201   3.271   6.635   2.157  1.5342 -1.3342 -1.8602
 6788SOL    HW226202   3.187   6.573   2.047 -2.5344  1.1456 -0.3403
 6789SOL     OW26203   0.487   1.266   6.589 -0.0397 -0.0554  0.0172
 6789SOL    HW126204   0.462   1.275   6.496 -0.1180  0.1585  0.0583
 6789SOL    HW226205   0.514   1.354   6.614 -2.4728  0.5207  0.9148
 6790SOL     OW26206   0.180   0.989   8.540  0.2496 -0.0445 -0.0231
 6790SOL    HW126207   0.201   0.955   8.453  1.3809 -0.0138  0.2207
 6790SOL    HW226208   0.102   1.043   8.527  0.5052  0.0877 -1.0511
 6791SOL     OW26209   1.200   7.749   1.363 -0.0034  0.1715  0.1403
 6791SOL    HW126210   1.206   7.841   1.336 -0.2497  0.6430  1.5620
 6791SOL    HW226211   1.283   7.710   1.335 -0.1100  0.7015 -0.9274
 6792SOL     OW26212   7.029   2.234   7.945 -0.6130 -0.2228  0.0145
 6792SOL    HW126213   7.085   2.275   8.011  0.0099 -1.4510  0.2765
 6792SOL    HW226214   6.953   2.292   7.939 -0.9803 -0.3671  2.2499
 6793SOL     OW26215   4.744   0.337   5.954 -0.0522 -0.2338 -0.3590
 6793SOL    HW126216   4.696   0.264   5.913 -0.1396  0.2973 -1.2335
 6793SOL    HW226217   4.784   0.383   5.880  0.1775  0.4878  0.2040
 6794SOL     OW26218  10.288   9.474   1.339  0.6119 -0.0488  0.2650
 6794SOL    HW126219  10.330   9.390   1.320  0.1493 -0.2313  0.0400
 6794SOL    HW226220  10.226   9.455   1.409 -0.3075 -0.1412 -0.5596
 6795SOL     OW26221   7.338   8.099   3.636 -0.4154 -0.3763  0.0500
 6795SOL    HW126222   7.421   8.081   3.592 -1.3257 -0.8518 -1.5743
 6795SOL    HW226223   7.280   8.131   3.566 -0.6766  3.2449  1.6892
 6796SOL     OW26224   4.214   2.518   4.171  0.5986 -0.2337  0.3663
 6796SOL    HW126225   4.140   2.457   4.166  0.5767 -0.2049  0.3380
 6796SOL    HW226226   4.201   2.565   4.253  0.1323  0.3549 -0.0392
 6797SOL     OW26227   4.299   8.255   7.189  0.8457 -0.3479 -0.3464
 6797SOL    HW126228   4.269   8.334   7.234  1.5245 -0.5246  0.4371
 6797SOL    HW226229   4.359   8.287   7.122  4.0491 -0.2866  2.2532
 6798SOL     OW26230   4.365   9.135   3.890  0.1286 -0.3805 -0.1303
 6798SOL    HW126231   4.459   9.150   3.879  0.2162  0.9796  1.9651
 6798SOL    HW226232   4.330   9.138   3.801  1.8615  0.6930 -0.8220
 6799SOL     OW26233   8.662  10.490  12.002 -0.1956 -0.1909 -0.3368
 6799SOL    HW126234   8.730  10.488  12.070  2.4901 -1.5078 -2.8100
 6799SOL    HW226235   8.602  10.560  12.029  0.2242 -1.1839  3.7101
 6800SOL     OW26236  11.327   1.126   0.189  0.4165 -0.4291 -0.4798
 6800SOL    HW126237  11.346   1.196   0.126  1.3215 -1.0199 -0.8929
 6800SOL    HW226238  11.244   1.151   0.228  1.1945  1.4144  0.1198
 6801SOL     OW26239   2.150   4.175   5.232 -0.3790  0.2308 -0.5631
 6801SOL    HW126240   2.183   4.130   5.154  1.6847 -0.6510  0.7373
 6801SOL    HW226241   2.158   4.110   5.302  0.9764  1.9924  1.0177
 6802SOL     OW26242   3.795   4.606   9.206 -0.1171  1.1344  0.0336
 6802SOL    HW126243   3.809   4.635   9.297  0.8748  0.2865  0.1784
 6802SOL    HW226244   3.733   4.534   9.214  0.1011  0.9476  0.0692
 6803SOL     OW26245   1.250  11.503   3.959 -1.0063 -0.0757  0.7074
 6803SOL    HW126246   1.161  11.485   3.927 -1.1366 -0.8763  1.4933
 6803SOL    HW226247   1.306  11.443   3.910 -1.4050 -2.6539  3.1022
 6804SOL     OW26248   6.237   7.862   4.209  0.8567 -0.8440 -0.2942
 6804SOL    HW126249   6.326   7.839   4.234  0.3546 -0.1065  2.5823
 6804SOL    HW226250   6.184   7.835   4.284 -1.2144 -0.4311 -1.5420
 6805SOL     OW26251   6.461   2.258  11.621 -0.0498 -0.1682 -0.0606
 6805SOL    HW126252   6.400   2.193  11.656 -1.1035 -0.2059 -1.8503
 6805SOL    HW226253   6.405   2.326  11.585  0.9917  0.3266 -0.7908
 6806SOL     OW26254   0.986   5.646   1.119 -0.5557 -1.0646  0.0220
 6806SOL    HW126255   1.058   5.693   1.163  0.4542 -1.3834 -1.2364
 6806SOL    HW226256   0.910   5.664   1.174  0.3551 -0.2193  1.0787
 6807SOL     OW26257  10.443  11.292   3.884 -0.3396 -0.5690  0.0835
 6807SOL    HW126258  10.419  11.251   3.968 -0.1728 -0.1797  0.3246
 6807SOL    HW226259  10.467  11.219   3.828 -5.0180 -1.4519 -1.2491
 6808SOL     OW26260   7.837  12.035   1.146 -0.5467  0.3479 -0.1228
 6808SOL    HW126261   7.774  11.972   1.109 -1.6295  1.8313 -0.9271
 6808SOL    HW226262   7.885  12.067   1.069 -0.9838  1.5045  0.0629
 6809SOL     OW26263   6.134   8.599  12.027 -0.0607 -0.8716 -0.5389
 6809SOL    HW126264   6.145   8.560  11.941  1.9248  1.2938 -1.3733
 6809SOL    HW226265   6.191   8.676  12.026 -2.0808  0.8142  1.7389
 6810SOL     OW26266   0.417   0.457  11.697 -0.6809 -0.1125 -0.1383
 6810SOL    HW126267   0.484   0.424  11.639 -1.8326 -2.3843 -0.2724
 6810SOL    HW226268   0.465   0.498  11.769  0.7662  0.6081 -1.4694
 6811SOL     OW26269   9.623  10.409   8.710  0.3595 -0.3066 -0.6149
 6811SOL    HW126270   9.599  10.318   8.689 -1.3765 -0.5257  1.8479
 6811SOL    HW226271   9.539  10.454   8.718  0.8548  0.3247  2.7395
 6812SOL     OW26272   4.427  10.913  10.628  0.0563  0.3753 -0.1635
 6812SOL    HW126273   4.394  10.896  10.540 -1.3780  2.5217 -0.0996
 6812SOL    HW226274   4.412  10.831  10.675  0.9321 -0.8438 -1.8881
 6813SOL     OW26275   2.378   3.784   0.828 -0.7080 -0.2114 -0.2072
 6813SOL    HW126276   2.354   3.805   0.918 -1.5018 -1.0954 -0.2006
 6813SOL    HW226277   2.440   3.711   0.837  0.9086  1.1078 -0.2921
 6814SOL     OW26278   5.050   1.408   8.280  0.3507 -0.2693  0.2953
 6814SOL    HW126279   5.073   1.376   8.367  1.1415 -2.7352 -0.7290
 6814SOL    HW226280   4.960   1.379   8.267  0.1771  0.2398  0.3327
 6815SOL     OW26281  11.667   5.521  12.285 -0.6570 -0.1548 -0.2350
 6815SOL    HW126282  11.650   5.613  12.305 -1.7812  0.0494 -1.9356
 6815SOL    HW226283  11.675   5.518  12.190  1.6973 -1.4807 -0.0815
 6816SOL     OW26284   3.263   8.502   7.666  0.0340 -0.1465  0.1556
 6816SOL    HW126285   3.285   8.444   7.739  1.0306 -1.5811 -1.2100
 6816SOL    HW226286   3.242   8.442   7.594 -0.7127  1.2206 -0.8176
 6817SOL     OW26287   3.455   0.782   6.004  0.0777  0.1296 -0.0548
 6817SOL    HW126288   3.421   0.744   5.923  1.6195 -0.8917 -0.2636
 6817SOL    HW226289   3.377   0.798   6.058 -0.8601 -0.4177 -1.1984
 6818SOL     OW26290   3.583   3.931  10.856 -0.7247 -0.1146  0.8086
 6818SOL    HW126291   3.647   3.929  10.927 -1.4328  0.1231  1.4730
 6818SOL    HW226292   3.624   3.984  10.788 -0.6377  0.9163  1.6461
 6819SOL     OW26293   8.731  12.157   5.008  0.1285  0.2988  0.1280
 6819SOL    HW126294   8.781  12.232   4.977 -0.9956  0.6613 -0.8986
 6819SOL    HW226295   8.793  12.084   5.006  0.9830  1.0030  0.2572
 6820SOL     OW26296   4.135   3.126   0.710 -0.2785  0.2302  0.2344
 6820SOL    HW126297   4.131   3.221   0.706 -0.5510  0.2433  0.7676
 6820SOL    HW226298   4.149   3.105   0.802  2.1259 -0.1834 -0.1580
 6821SOL     OW26299   1.471  10.801   3.882  0.1195  0.1266 -0.7518
 6821SOL    HW126300   1.482  10.799   3.977  3.8825  2.3174 -0.9413
 6821SOL    HW226301   1.399  10.862   3.868  0.4490  0.9021  0.6910
 6822SOL     OW26302   2.043   9.733   0.331  0.4097  0.0159  0.5528
 6822SOL    HW126303   2.078   9.646   0.349 -1.4657 -0.6275  1.3149
 6822SOL    HW226304   1.951   9.727   0.355  0.1524  2.1145  0.2471
 6823SOL     OW26305  11.791   9.135   4.901 -0.1186  0.1596  0.1943
 6823SOL    HW126306  11.806   9.229   4.904  0.0166  0.2022 -1.1420
 6823SOL    HW226307  11.874   9.098   4.870 -0.1789 -0.3929  0.6750
 6824SOL     OW26308   0.148   0.555   5.634 -0.5462 -0.1281  0.1943
 6824SOL    HW126309   0.123   0.479   5.582 -1.1978  0.1232  0.1226
 6824SOL    HW226310   0.156   0.627   5.571  0.7592 -0.2766  0.1649
 6825SOL     OW26311   3.555   0.636   3.265 -0.8079  0.2357 -0.2151
 6825SOL    HW126312   3.475   0.603   3.306 -0.7202  0.6833  0.3335
 6825SOL    HW226313   3.623   0.575   3.294 -0.9766 -0.2601 -0.8433
 6826SOL     OW26314   0.041   2.698   4.808 -0.3397  0.5717  0.7004
 6826SOL    HW126315   0.040   2.624   4.748  0.1910  0.5310  0.7400
 6826SOL    HW226316   0.133   2.725   4.812 -0.5242  1.2262  0.6897
 6827SOL     OW26317   2.655   9.215   2.071  0.1131 -0.3266 -0.1853
 6827SOL    HW126318   2.734   9.260   2.041  1.3646 -2.3419 -0.1106
 6827SOL    HW226319   2.652   9.232   2.165  1.3554 -1.4322  0.0914
 6828SOL     OW26320   4.063   0.236  10.157 -0.3703  0.8752 -0.1389
 6828SOL    HW126321   4.149   0.193  10.158  0.3687  2.2898  0.1915
 6828SOL    HW226322   4.044   0.253  10.249 -1.3403 -0.0073 -0.1523
 6829SOL     OW26323   2.913   5.953  12.131 -0.1818 -0.5766 -0.5864
 6829SOL    HW126324   2.903   6.013  12.205 -2.5209 -0.4827 -0.8883
 6829SOL    HW226325   3.004   5.924  12.135 -0.3947 -1.1040  2.6960
 6830SOL     OW26326   8.960   7.154   8.802  0.6310 -0.5713 -0.3555
 6830SOL    HW126327   8.930   7.243   8.819  0.9490 -0.2146 -1.5345
 6830SOL    HW226328   9.011   7.161   8.721  0.4984 -1.8589 -0.5720
 6831SOL     OW26329   3.319  11.092   2.695 -0.5577 -0.3023 -0.3163
 6831SOL    HW126330   3.228  11.121   2.698 -0.5397  0.0475 -2.1697
 6831SOL    HW226331   3.342  11.095   2.602  0.9132 -1.7433 -0.0404
 6832SOL     OW26332   3.840   3.554   5.846  0.1588  0.0861 -0.0718
 6832SOL    HW126333   3.868   3.482   5.788  0.9226  0.7414 -0.5276
 6832SOL    HW226334   3.914   3.569   5.903  0.1942  0.8532 -0.3142
 6833SOL     OW26335   7.888   9.086   8.483 -0.5437 -0.1908 -0.2112
 6833SOL    HW126336   7.949   9.013   8.479 -2.2532 -1.7464  0.2930
 6833SOL    HW226337   7.810   9.054   8.438 -1.3088  1.3625 -0.0520
 6834SOL     OW26338   1.406   7.508   3.469  0.0898 -0.2283  0.4250
 6834SOL    HW126339   1.389   7.449   3.396 -1.9883  0.5703  0.1837
 6834SOL    HW226340   1.467   7.573   3.434 -0.7241  0.0271 -0.5649
 6835SOL     OW26341   9.263  12.044   3.723 -0.1012 -0.0608 -0.4104
 6835SOL    HW126342   9.315  12.092   3.659 -1.0454  0.2219 -0.9706
 6835SOL    HW226343   9.201  11.993   3.671 -0.8963  0.1915  0.2654
 6836SOL     OW26344  11.013   0.201   4.781 -0.0008  0.1289  0.1080
 6836SOL    HW126345  10.925   0.238   4.795  0.7069  0.8776  3.1802
 6836SOL    HW226346  11.015   0.122   4.835  0.9073 -0.4619 -0.7553
 6837SOL     OW26347   6.405  10.849   2.833  0.4772  0.6990 -0.6455
 6837SOL    HW126348   6.488  10.889   2.806  1.0034  0.1695  0.1197
 6837SOL    HW226349   6.401  10.863   2.927 -0.3059  0.7054 -0.6723
 6838SOL     OW26350   2.328   6.315   8.598  0.6997  0.3532  0.1054
 6838SOL    HW126351   2.357   6.244   8.540  0.2536  0.5610 -0.3850
 6838SOL    HW226352   2.371   6.298   8.681  0.1117 -0.8502  0.1857
 6839SOL     OW26353  11.729   3.385   3.577  0.2473 -0.5835  0.1177
 6839SOL    HW126354  11.719   3.298   3.537  1.4830 -0.5194 -0.3613
 6839SOL    HW226355  11.821   3.390   3.601  0.0427  0.3543  0.7322
 6840SOL     OW26356   3.132   6.941   0.940  0.0181 -0.3204  0.1814
 6840SOL    HW126357   3.142   6.894   1.023 -0.5507 -0.5012  0.1562
 6840SOL    HW226358   3.203   6.909   0.885  0.0463 -0.6407  0.4030
 6841SOL     OW26359   3.337   1.367   6.144 -0.1991  0.2107  0.1108
 6841SOL    HW126360   3.351   1.461   6.143  2.0895 -0.0377  1.8735
 6841SOL    HW226361   3.420   1.330   6.172 -1.1529 -2.3332 -0.1242
 6842SOL     OW26362   2.786   8.596   4.273  0.5680  0.2417  0.1977
 6842SOL    HW126363   2.714   8.537   4.296 -0.7460  1.4322 -0.7251
 6842SOL    HW226364   2.865   8.542   4.284 -0.5186 -1.4261  0.1803
 6843SOL     OW26365   0.123   2.393  10.043  0.4089  0.2668 -0.2185
 6843SOL    HW126366   0.121   2.439   9.959  0.3865 -1.1601 -1.0365
 6843SOL    HW226367   0.214   2.368  10.055  0.1133 -1.1986 -0.7985
 6844SOL     OW26368   4.521   9.955   3.713 -0.2844 -0.3172  0.0203
 6844SOL    HW126369   4.570   9.965   3.632  0.8694 -0.8840  0.6195
 6844SOL    HW226370   4.429   9.952   3.686 -0.2010  2.6438 -0.9732
 6845SOL     OW26371   0.746   8.325   1.188  0.8670 -0.4516  0.1888
 6845SOL    HW126372   0.662   8.353   1.153  0.7916  0.1033  0.7888
 6845SOL    HW226373   0.799   8.405   1.192  1.5790 -0.8699 -0.5949
 6846SOL     OW26374   2.001   3.643   3.164  0.0750  0.1838  0.7372
 6846SOL    HW126375   2.061   3.614   3.095  0.6603  0.2820  1.1972
 6846SOL    HW226376   2.058   3.664   3.238 -0.5122  0.4844  1.1115
 6847SOL     OW26377   2.602   7.493   0.957 -0.4201 -0.3635 -0.3756
 6847SOL    HW126378   2.639   7.461   0.874 -0.3404  1.2614 -1.0114
 6847SOL    HW226379   2.578   7.413   1.005  1.0922 -1.3897 -1.2280
 6848SOL     OW26380   4.023  10.642   6.445  0.2810 -0.3661  0.0043
 6848SOL    HW126381   3.993  10.649   6.536  0.4548 -0.6796  0.0910
 6848SOL    HW226382   3.972  10.707   6.397 -2.0071 -2.2071 -0.2334
 6849SOL     OW26383   8.814   5.736   4.318  0.1431  0.0203  0.2924
 6849SOL    HW126384   8.783   5.773   4.401 -0.3395 -2.9796  1.5923
 6849SOL    HW226385   8.904   5.768   4.310 -0.3245  1.6376  1.1331
 6850SOL     OW26386   2.392   2.891   3.068 -0.0352  0.0904  0.1606
 6850SOL    HW126387   2.321   2.955   3.079 -0.8012 -0.3921 -1.6353
 6850SOL    HW226388   2.456   2.936   3.013  0.4150  0.0294  0.6246
 6851SOL     OW26389  10.674   8.996   7.406  0.4409  0.2975 -0.1315
 6851SOL    HW126390  10.589   8.954   7.393  0.5044 -0.2573  1.1499
 6851SOL    HW226391  10.655   9.090   7.410  0.1610  0.3490 -1.8673
 6852SOL     OW26392   8.321   5.476   7.199 -0.7417 -0.1708  0.2541
 6852SOL    HW126393   8.285   5.555   7.239 -1.2761 -0.1286 -0.2855
 6852SOL    HW226394   8.366   5.507   7.121 -0.4560 -0.3395  0.3532
 6853SOL     OW26395   6.714   0.013   3.530 -0.2566  0.5045  0.0917
 6853SOL    HW126396   6.626   0.049   3.539 -1.0416 -1.3913  0.6618
 6853SOL    HW226397   6.704  -0.080   3.550  1.8005  0.1302 -0.3189
 6854SOL     OW26398   3.634   6.500  10.016  0.3347 -0.2322 -0.5536
 6854SOL    HW126399   3.578   6.490   9.940  0.1722 -1.4667 -0.2985
 6854SOL    HW226400   3.588   6.563  10.072 -1.3684 -1.9600  0.1184
 6855SOL     OW26401   2.929   6.138   7.463  0.0107 -0.2190  0.0758
 6855SOL    HW126402   2.868   6.210   7.448  1.0862  0.9110  0.8486
 6855SOL    HW226403   2.929   6.088   7.382 -0.0992  1.1948 -0.8173
 6856SOL     OW26404   5.440   0.582   6.705 -0.3509 -0.5345  0.3659
 6856SOL    HW126405   5.504   0.516   6.679 -1.1031 -0.4276 -1.9404
 6856SOL    HW226406   5.394   0.543   6.780 -0.0691 -2.1805 -0.2892
 6857SOL     OW26407   0.127   3.915   9.269  0.2070 -0.1895  0.2184
 6857SOL    HW126408   0.095   3.960   9.348  2.1085  0.1010  0.8770
 6857SOL    HW226409   0.140   3.825   9.296  0.3183 -0.2169  0.0748
 6858SOL     OW26410   0.942   2.995   9.819  0.2503 -0.7390  0.8600
 6858SOL    HW126411   1.007   2.930   9.845  0.8481  0.1143  1.5564
 6858SOL    HW226412   0.984   3.079   9.836 -0.6365 -0.1647  0.2970
 6859SOL     OW26413   0.822   6.832   6.880 -0.0403 -0.0277 -0.0291
 6859SOL    HW126414   0.872   6.848   6.960 -0.5891  0.7678  0.1679
 6859SOL    HW226415   0.812   6.737   6.876  0.5724 -0.1194  0.4870
 6860SOL     OW26416   3.904   3.820   9.906  0.1467 -0.1575 -0.1657
 6860SOL    HW126417   3.969   3.772   9.856  0.3369 -1.2009  1.0192
 6860SOL    HW226418   3.955   3.878   9.963  0.0397 -0.8008  0.5924
 6861SOL     OW26419  12.244   5.143   7.564  0.1971 -0.1938 -0.0549
 6861SOL    HW126420  12.246   5.052   7.535  0.3659  0.2107 -1.3520
 6861SOL    HW226421  12.208   5.138   7.653 -0.0530 -1.4900 -0.2016
 6862SOL     OW26422   5.316   5.189   4.944  0.6729  0.6999 -0.2391
 6862SOL    HW126423   5.377   5.120   4.971  0.1955  0.3193 -0.1210
 6862SOL    HW226424   5.246   5.185   5.008  1.0448  1.8659  0.2730
 6863SOL     OW26425   5.226  10.258   1.657 -0.1326 -0.0307 -0.4842
 6863SOL    HW126426   5.296  10.255   1.721  0.8947 -0.8327 -1.5967
 6863SOL    HW226427   5.148  10.280   1.707  0.9334  1.0450  0.7588
 6864SOL     OW26428   6.697   6.796  11.796 -0.1039  0.3461 -0.0152
 6864SOL    HW126429   6.680   6.707  11.764  1.6657 -0.2247  0.4871
 6864SOL    HW226430   6.767   6.785  11.860  1.6671  2.3206 -1.4456
 6865SOL     OW26431   9.306   5.137   2.285 -0.5482  0.2064  0.1096
 6865SOL    HW126432   9.223   5.171   2.317  0.1768  0.2821  2.0134
 6865SOL    HW226433   9.351   5.106   2.363 -0.4584 -3.6918 -1.2709
 6866SOL     OW26434   8.922   5.373   8.285 -0.4310  0.1562  0.0095
 6866SOL    HW126435   8.864   5.298   8.273 -0.6161  0.5724 -2.3495
 6866SOL    HW226436   8.867   5.441   8.323 -0.9233 -0.1502 -0.1474
 6867SOL     OW26437   7.162   7.968   3.843  0.1194  0.9908 -0.2168
 6867SOL    HW126438   7.166   8.059   3.813  0.4010  1.2284  0.5167
 6867SOL    HW226439   7.201   7.918   3.771  3.8975  1.8732  0.9424
 6868SOL     OW26440   6.176   3.310  11.621 -0.0015 -0.4025 -0.6540
 6868SOL    HW126441   6.142   3.391  11.658 -1.6346 -1.5650  0.4845
 6868SOL    HW226442   6.270   3.313  11.640 -0.4590 -0.0248  1.8525
 6869SOL     OW26443   4.876   3.405   4.109 -0.4852 -0.0403  1.1220
 6869SOL    HW126444   4.883   3.391   4.204  1.2564  1.1979  1.2138
 6869SOL    HW226445   4.815   3.479   4.101 -1.7282 -1.0164  1.1567
 6870SOL     OW26446   4.583   0.720   3.725 -0.2834 -0.2804 -0.8653
 6870SOL    HW126447   4.617   0.808   3.709 -1.3817  0.4852  0.7290
 6870SOL    HW226448   4.656   0.662   3.706  1.5828  1.1966  1.2820
 6871SOL     OW26449   2.834   7.508   3.097 -0.0687 -0.1111 -0.7471
 6871SOL    HW126450   2.916   7.549   3.070  0.2485 -0.9693 -1.1235
 6871SOL    HW226451   2.843   7.496   3.192  1.7115 -3.2434 -1.1661
 6872SOL     OW26452  10.926   9.906   9.165  0.1041 -0.4146  0.0607
 6872SOL    HW126453  10.903   9.815   9.149 -0.7136 -0.3061  0.5946
 6872SOL    HW226454  10.846   9.947   9.197  0.0421  0.8530 -1.5488
 6873SOL     OW26455   9.524   8.437   3.045 -0.3241  0.4479  0.5057
 6873SOL    HW126456   9.458   8.391   2.994  1.8582 -1.2688 -0.9567
 6873SOL    HW226457   9.497   8.529   3.042 -1.8459  0.0022 -1.2556
 6874SOL     OW26458   7.965  11.274  12.077 -0.3367 -0.1059 -0.1816
 6874SOL    HW126459   7.918  11.212  12.022 -2.6378  1.5062 -0.2229
 6874SOL    HW226460   7.959  11.238  12.166  1.3838 -1.5764 -0.6183
 6875SOL     OW26461  11.322  10.334  12.026  0.4701  0.1212 -0.3695
 6875SOL    HW126462  11.330  10.255  12.080  0.5547  1.0009  0.9345
 6875SOL    HW226463  11.238  10.373  12.052  1.2375  1.3930  0.2918
 6876SOL     OW26464  10.048   4.881   2.067 -0.2956 -0.1799 -0.0423
 6876SOL    HW126465   9.959   4.909   2.087 -0.1340  0.0040  0.4532
 6876SOL    HW226466  10.102   4.926   2.133  0.0322 -1.1978  0.3942
 6877SOL     OW26467   7.838   8.129   2.646  0.1547  0.2827  0.1728
 6877SOL    HW126468   7.758   8.166   2.611  0.3482 -0.1999 -0.8289
 6877SOL    HW226469   7.903   8.199   2.639  0.4028 -0.0597 -1.2698
 6878SOL     OW26470   9.639   1.535   4.667  0.0541  0.0020 -0.1610
 6878SOL    HW126471   9.723   1.543   4.713 -1.1498 -0.7334  2.3595
 6878SOL    HW226472   9.626   1.441   4.657  0.2448  0.1378 -2.0762
 6879SOL     OW26473   5.685   4.575   0.419  0.1273  0.0463 -0.0582
 6879SOL    HW126474   5.663   4.603   0.330  0.2001  0.9453  0.1993
 6879SOL    HW226475   5.683   4.479   0.415 -0.2567  0.0819 -0.9279
 6880SOL     OW26476  10.327   6.642   4.326 -0.4300  0.2883  0.3515
 6880SOL    HW126477  10.381   6.643   4.405 -0.1968  0.1929  0.1942
 6880SOL    HW226478  10.256   6.703   4.345  0.9176  2.1563 -0.2708
 6881SOL     OW26479   0.393  12.289  11.927 -0.1411 -0.0483 -0.0480
 6881SOL    HW126480   0.482  12.268  11.898 -0.1377 -0.5815  0.3340
 6881SOL    HW226481   0.337  12.261  11.854  0.0024  0.3099 -0.2992
 6882SOL     OW26482  11.324   8.388   8.434 -0.5362  0.0949  0.4127
 6882SOL    HW126483  11.362   8.424   8.514 -1.5446 -0.6137  1.2413
 6882SOL    HW226484  11.399   8.356   8.384  0.1001  0.4757  1.0967
 6883SOL     OW26485   0.074   6.570   3.925 -0.4195  0.4790  0.3486
 6883SOL    HW126486   0.152   6.624   3.939 -0.0930 -0.0327  0.5367
 6883SOL    HW226487   0.021   6.583   4.004 -1.0798  1.7189 -0.2644
 6884SOL     OW26488   0.913   7.345   4.594  0.6167  0.4001  0.6810
 6884SOL    HW126489   0.853   7.417   4.613 -0.2398 -0.3480  0.8926
 6884SOL    HW226490   0.893   7.279   4.661  0.1566 -0.7447 -0.5303
 6885SOL     OW26491  10.285   6.350   8.906 -0.3859  0.5356 -0.1125
 6885SOL    HW126492  10.336   6.430   8.920  0.5340 -0.4341  2.7192
 6885SOL    HW226493  10.218   6.352   8.975  1.4244 -2.3956  1.9451
 6886SOL     OW26494   0.211   0.292   6.557 -0.4054 -0.2827  0.3421
 6886SOL    HW126495   0.145   0.360   6.545 -0.1501 -0.0848  0.0482
 6886SOL    HW226496   0.233   0.296   6.650 -0.3289  0.0964  0.3083
 6887SOL     OW26497   6.084   6.756   7.121  0.1196 -0.1472  0.2059
 6887SOL    HW126498   6.102   6.714   7.038 -0.4935  0.1989 -0.1075
 6887SOL    HW226499   6.083   6.685   7.185 -0.8498 -0.5946 -0.3077
 6888SOL     OW26500   1.486   8.194   9.202  0.7940  0.3268  0.5416
 6888SOL    HW126501   1.492   8.115   9.256 -1.3530 -0.1016  0.2565
 6888SOL    HW226502   1.469   8.161   9.113  0.4620  1.0899  0.3122
 6889SOL     OW26503   7.485   3.177   5.651  0.0732 -0.5669  0.2835
 6889SOL    HW126504   7.549   3.159   5.583 -0.1211  0.5132 -0.2084
 6889SOL    HW226505   7.431   3.248   5.616 -1.0798 -1.1007  0.8915
 6890SOL     OW26506  10.548   7.322   1.949  0.0281 -0.2203 -0.4292
 6890SOL    HW126507  10.511   7.343   2.035 -1.6231 -3.8514 -0.0624
 6890SOL    HW226508  10.482   7.351   1.886 -0.2760 -0.5092 -0.2423
 6891SOL     OW26509   0.052   1.321   4.980 -0.2185 -0.0410  0.4361
 6891SOL    HW126510   0.002   1.360   4.908 -2.1122 -0.2300  1.5816
 6891SOL    HW226511   0.019   1.232   4.987 -0.5951  0.1845  1.9568
 6892SOL     OW26512  10.674  10.023   8.883  0.0583  0.4194  0.3721
 6892SOL    HW126513  10.768  10.007   8.878  0.3477  2.1653 -0.8850
 6892SOL    HW226514  10.635   9.937   8.894  1.7544 -0.4426 -0.0254
 6893SOL     OW26515   2.164   2.070   4.939  0.4688  0.1104 -0.1532
 6893SOL    HW126516   2.142   2.149   4.990 -0.4959 -0.6862  0.7113
 6893SOL    HW226517   2.202   2.104   4.858 -0.3404  1.4898  0.0062
 6894SOL     OW26518   8.845   1.686  12.092 -0.2592  0.1154 -0.0761
 6894SOL    HW126519   8.877   1.751  12.154 -1.7752  0.5817  0.2752
 6894SOL    HW226520   8.919   1.667  12.036  0.4082  1.6529  0.2370
 6895SOL     OW26521  11.052   3.571   2.579 -0.1374  0.1202 -0.3773
 6895SOL    HW126522  11.122   3.506   2.583 -0.2197 -0.2368 -2.9912
 6895SOL    HW226523  11.095   3.654   2.598  0.1242 -0.5373  2.2124
 6896SOL     OW26524  11.483   5.358   3.448 -0.4277  0.0531  0.5172
 6896SOL    HW126525  11.422   5.373   3.376 -0.6584  0.9377  0.8736
 6896SOL    HW226526  11.570   5.365   3.409 -0.5394  1.3716  0.4572
 6897SOL     OW26527   9.883  11.037   1.526  0.3034  0.1880 -0.0345
 6897SOL    HW126528   9.928  11.050   1.610  0.1109 -0.6483  0.2062
 6897SOL    HW226529   9.806  11.092   1.531  0.3875  0.2802  0.2675
 6898SOL     OW26530   8.285   3.328   9.367  0.5870  0.2075 -0.1909
 6898SOL    HW126531   8.277   3.403   9.309  2.9217 -0.5381 -1.6019
 6898SOL    HW226532   8.324   3.363   9.447 -1.8294  1.0842  0.6798
 6899SOL     OW26533   0.165   5.794   8.065  0.5244  0.0571  0.9881
 6899SOL    HW126534   0.121   5.787   7.980  0.4401 -1.5194  1.1256
 6899SOL    HW226535   0.146   5.883   8.095  0.4643  0.6058 -0.5880
 6900SOL     OW26536   2.272   5.731   1.685  0.7033  0.0163 -0.0881
 6900SOL    HW126537   2.220   5.665   1.731  0.1889  0.0629 -0.5804
 6900SOL    HW226538   2.352   5.740   1.737  0.2914 -0.1825  0.5958
 6901SOL     OW26539   6.188   2.729  11.336  0.3582  0.0520  0.5290
 6901SOL    HW126540   6.174   2.650  11.388  0.5541  0.2428  0.8736
 6901SOL    HW226541   6.178   2.801  11.399 -0.7757  0.3510  0.0366
 6902SOL     OW26542   7.442   6.352   7.680  0.3411 -0.2093  0.6859
 6902SOL    HW126543   7.518   6.297   7.695  0.1580 -0.6064  0.1750
 6902SOL    HW226544   7.368   6.291   7.680  0.3695 -0.4117 -2.5781
 6903SOL     OW26545   1.735   4.890   0.385  0.0533  0.4055 -0.4011
 6903SOL    HW126546   1.764   4.844   0.463 -0.0336 -1.3913 -1.3895
 6903SOL    HW226547   1.791   4.858   0.315  0.0928  1.9377 -1.1174
 6904SOL     OW26548  10.425   7.587   5.228  0.1000  0.1914  0.4457
 6904SOL    HW126549  10.472   7.604   5.310 -0.8858 -0.5903  1.2021
 6904SOL    HW226550  10.420   7.491   5.224  0.1740  0.2194 -0.5659
 6905SOL     OW26551   4.458   9.912   4.879 -0.1456 -0.6764 -0.0311
 6905SOL    HW126552   4.451   9.877   4.790 -0.4486  0.1453 -0.3418
 6905SOL    HW226553   4.549   9.940   4.886 -0.4248  0.4060 -0.5369
 6906SOL     OW26554  10.129   4.465   5.123 -0.0772  0.1402  0.4308
 6906SOL    HW126555  10.130   4.445   5.216  1.0067  0.3821  0.4839
 6906SOL    HW226556  10.160   4.385   5.081 -0.0677  0.2058  0.3128
 6907SOL     OW26557   9.635   1.314   1.883  0.1197 -0.0501  0.3378
 6907SOL    HW126558   9.588   1.396   1.898 -0.9174 -0.7417  1.0302
 6907SOL    HW226559   9.653   1.280   1.970 -0.4447 -1.0832  0.0717
 6908SOL     OW26560   3.840   8.221  11.816 -0.0377 -0.4190 -0.2364
 6908SOL    HW126561   3.838   8.314  11.841  0.6384  0.2106 -2.3435
 6908SOL    HW226562   3.925   8.190  11.847  0.4891  0.1559 -1.0619
 6909SOL     OW26563   3.214   8.303  10.288 -0.1640 -0.4743 -0.1290
 6909SOL    HW126564   3.119   8.299  10.301 -0.7899  1.8377 -2.8048
 6909SOL    HW226565   3.238   8.392  10.316  1.5340 -1.4643  1.7908
 6910SOL     OW26566   1.653   4.707   2.786  0.4529  0.0292  0.0603
 6910SOL    HW126567   1.640   4.764   2.710  0.1551 -0.0743  0.0298
 6910SOL    HW226568   1.709   4.757   2.845 -0.2378  0.5708  0.2650
 6911SOL     OW26569   1.105   5.594   0.627  0.4525 -0.5763 -0.8309
 6911SOL    HW126570   1.097   5.687   0.646 -0.4905 -0.4828 -1.6067
 6911SOL    HW226571   1.099   5.551   0.712  2.7053  0.1384 -0.2472
 6912SOL     OW26572   7.525   7.155  10.385 -0.3650 -0.5140  0.5797
 6912SOL    HW126573   7.561   7.099  10.317  0.3362  0.4356  0.1393
 6912SOL    HW226574   7.430   7.150  10.373 -0.2780 -0.9981  0.0596
 6913SOL     OW26575  10.572   2.033  11.311 -0.0429  0.0825 -0.0775
 6913SOL    HW126576  10.508   2.068  11.374  1.9824 -0.1985  2.2672
 6913SOL    HW226577  10.615   2.111  11.275  0.4946  0.2002  0.7926
 6914SOL     OW26578  10.394   1.386   5.721 -0.2658  0.1709  0.3139
 6914SOL    HW126579  10.361   1.313   5.668  0.1416  0.8538 -0.9216
 6914SOL    HW226580  10.427   1.344   5.800 -0.5589 -0.9261 -0.1181
 6915SOL     OW26581   3.374   2.671  11.352  0.1821  0.5292 -0.1275
 6915SOL    HW126582   3.370   2.621  11.270  0.8159 -0.1392  0.2333
 6915SOL    HW226583   3.290   2.655  11.395  0.4327 -0.3696  0.0529
 6916SOL     OW26584   3.388  12.156   2.653  0.3430  0.4944  0.0688
 6916SOL    HW126585   3.315  12.169   2.592  0.3714 -2.3087 -0.6690
 6916SOL    HW226586   3.353  12.097   2.719  1.3718  0.7392  0.8479
 6917SOL     OW26587   1.906   7.681   6.665  0.8546 -0.0520  0.0826
 6917SOL    HW126588   1.972   7.703   6.599 -0.7810  2.4232 -0.8841
 6917SOL    HW226589   1.830   7.735   6.642 -0.1397  0.2119  3.4189
 6918SOL     OW26590   8.658   5.992   5.314  0.0265 -0.0905 -0.0582
 6918SOL    HW126591   8.745   5.970   5.279  1.2852  0.5208  2.5106
 6918SOL    HW226592   8.625   5.909   5.350 -0.9509 -0.5475 -1.8639
 6919SOL     OW26593   0.790   6.306  10.478 -0.2631 -0.1366  0.5539
 6919SOL    HW126594   0.863   6.262  10.434  0.5712 -0.6124  2.3495
 6919SOL    HW226595   0.756   6.367  10.412  1.0787 -0.6636 -0.6708
 6920SOL     OW26596   9.928   8.009   6.092  0.7506 -0.2426  0.6014
 6920SOL    HW126597   9.956   7.973   6.008 -2.5115  0.2450 -0.8739
 6920SOL    HW226598   9.946   8.103   6.085 -2.7048  0.4817 -1.2926
 6921SOL     OW26599  10.363   9.161  10.934  0.5517  0.0621  0.1457
 6921SOL    HW126600  10.415   9.161  11.014 -0.0797 -1.4157  0.5809
 6921SOL    HW226601  10.415   9.214  10.872  2.4711 -1.1619  0.6192
 6922SOL     OW26602   2.501   3.905   7.558 -0.0594 -0.3865  0.4967
 6922SOL    HW126603   2.448   3.868   7.487 -0.7390  0.9333  0.2873
 6922SOL    HW226604   2.524   3.993   7.527  1.3564 -0.5411  1.0532
 6923SOL     OW26605   6.340   3.844  10.404  0.0292  0.9502 -0.0082
 6923SOL    HW126606   6.393   3.924  10.400  0.7073  0.4731 -0.7804
 6923SOL    HW226607   6.376   3.795  10.477  1.5117  0.0499 -1.3027
 6924SOL     OW26608  12.161   9.760   5.745  0.0327  0.3154  0.5640
 6924SOL    HW126609  12.143   9.823   5.814 -2.0316  0.0374  0.3485
 6924SOL    HW226610  12.095   9.692   5.757  1.5362 -1.2893  0.1456
 6925SOL     OW26611   7.809   2.857  11.060 -0.2859 -0.8128  1.0379
 6925SOL    HW126612   7.852   2.936  11.027  1.0021 -2.2534 -1.0085
 6925SOL    HW226613   7.717   2.881  11.067 -0.3739  0.2290 -2.0019
 6926SOL     OW26614   5.290   4.883   3.450 -0.0833  0.2168  0.2349
 6926SOL    HW126615   5.228   4.862   3.520 -0.8136  0.8122 -0.2107
 6926SOL    HW226616   5.370   4.909   3.495 -0.8671  1.5933  0.8873
 6927SOL     OW26617   0.299   1.632   9.273 -0.2815 -0.2658  0.2088
 6927SOL    HW126618   0.346   1.702   9.226 -0.8843 -0.5622 -0.8866
 6927SOL    HW226619   0.318   1.553   9.222 -0.8240 -0.6338  0.5734
 6928SOL     OW26620   9.854   1.456   0.834  0.4923  0.6383 -0.1458
 6928SOL    HW126621   9.790   1.419   0.774 -1.2142  0.7309  1.5309
 6928SOL    HW226622   9.932   1.402   0.822 -0.8786 -1.4930 -0.0658
 6929SOL     OW26623   4.566   6.871   1.704 -0.3591  0.0248  0.5210
 6929SOL    HW126624   4.602   6.814   1.636  0.3745  2.3814 -1.2222
 6929SOL    HW226625   4.621   6.855   1.781  0.2092 -1.1270 -0.1042
 6930SOL     OW26626   9.133   1.864   6.059  0.0994  0.0082  0.2177
 6930SOL    HW126627   9.148   1.886   6.151 -2.2969  0.0146  0.6779
 6930SOL    HW226628   9.185   1.928   6.011  0.0884  1.0852  1.5622
 6931SOL     OW26629   1.406   5.635   0.574  0.0502  0.6276 -0.2180
 6931SOL    HW126630   1.338   5.580   0.613  0.7827  0.5667  1.0616
 6931SOL    HW226631   1.371   5.724   0.580  0.2046  0.6403  0.7898
 6932SOL     OW26632  10.220  10.409   1.183  0.0597 -0.2020  0.2264
 6932SOL    HW126633  10.198  10.482   1.241  0.0814 -0.7559  0.9442
 6932SOL    HW226634  10.150  10.345   1.197 -1.3976  0.7078 -2.2963
 6933SOL     OW26635   7.331   0.160  10.165  0.1195  0.0734 -0.3929
 6933SOL    HW126636   7.341   0.105  10.243 -0.4725 -2.5124 -1.9885
 6933SOL    HW226637   7.236   0.162  10.149  0.2721 -0.0216 -1.4002
 6934SOL     OW26638  10.556   4.777  11.329 -0.0658 -0.2367  0.0641
 6934SOL    HW126639  10.548   4.694  11.283  1.7424  0.0974 -0.9545
 6934SOL    HW226640  10.558   4.753  11.422 -0.1090 -1.2775 -0.1907
 6935SOL     OW26641   8.495   8.011   7.213 -0.2905  0.8491  0.8193
 6935SOL    HW126642   8.457   8.042   7.295 -0.3121 -0.8302  1.4877
 6935SOL    HW226643   8.441   7.936   7.189 -0.3792  1.4130 -0.8392
 6936SOL     OW26644   6.425   0.895   2.877 -0.0732  0.0684 -0.2317
 6936SOL    HW126645   6.361   0.938   2.933 -0.5915 -0.1014 -0.6818
 6936SOL    HW226646   6.507   0.896   2.928 -0.9013 -1.5787  1.2588
 6937SOL     OW26647  11.026   5.782   5.734  0.3581 -0.4129 -0.4537
 6937SOL    HW126648  11.110   5.802   5.774  0.0841  0.7242 -0.4281
 6937SOL    HW226649  11.003   5.696   5.769  0.8486 -0.1220  0.6285
 6938SOL     OW26650   9.646  11.453  10.205  0.1385 -0.4721  0.1007
 6938SOL    HW126651   9.658  11.416  10.292 -1.9904 -2.3068 -0.2769
 6938SOL    HW226652   9.632  11.376  10.149 -1.4663  0.7846 -1.3142
 6939SOL     OW26653   0.163   1.241   1.902  0.0839 -0.3076 -0.2826
 6939SOL    HW126654   0.113   1.194   1.968 -0.1088  1.1363  0.6390
 6939SOL    HW226655   0.103   1.309   1.871  0.5426 -0.2961 -1.1849
 6940SOL     OW26656   3.734   2.194   6.545  0.6371 -0.0412 -0.0069
 6940SOL    HW126657   3.787   2.251   6.489  2.9262 -0.2896  1.7647
 6940SOL    HW226658   3.674   2.254   6.590  0.7182  0.5109 -0.6217
 6941SOL     OW26659   3.404   8.814   3.153 -0.1124  0.3028 -0.3241
 6941SOL    HW126660   3.402   8.791   3.060 -0.8264 -1.2228  0.0393
 6941SOL    HW226661   3.494   8.842   3.169  0.0069  0.6178 -1.4795
 6942SOL     OW26662   6.428   2.882   8.175  0.2177 -0.4842 -0.0741
 6942SOL    HW126663   6.416   2.835   8.257 -0.1813 -1.3096 -0.5911
 6942SOL    HW226664   6.441   2.974   8.201 -2.0327 -0.3602  0.8244
 6943SOL     OW26665  11.252   6.027   5.059 -0.1698 -0.2266  0.1973
 6943SOL    HW126666  11.202   5.988   5.130 -0.0692 -2.8767 -1.0813
 6943SOL    HW226667  11.312   5.958   5.030  1.3522  1.4983 -1.0128
 6944SOL     OW26668   9.677  10.142   7.782 -0.5295 -0.2140 -0.0970
 6944SOL    HW126669   9.671  10.067   7.841  1.3212  0.5893  1.2147
 6944SOL    HW226670   9.652  10.217   7.836 -0.7509  0.3158 -0.9224
 6945SOL     OW26671   3.798   6.539   4.237  0.5823 -0.3818  0.0550
 6945SOL    HW126672   3.809   6.634   4.241  1.5621 -0.4052 -1.3111
 6945SOL    HW226673   3.752   6.524   4.155  0.1751 -1.0775  0.4043
 6946SOL     OW26674   2.978  12.098   5.822  0.1109  0.2267 -0.2433
 6946SOL    HW126675   2.962  12.169   5.761 -1.5310 -0.3273 -0.4939
 6946SOL    HW226676   3.014  12.141   5.900 -0.6046  1.3021 -0.4880
 6947SOL     OW26677   2.661   0.843   6.177 -0.0707  0.0192  0.4713
 6947SOL    HW126678   2.715   0.800   6.111  1.2257  1.1839  0.7186
 6947SOL    HW226679   2.666   0.786   6.253  0.2476 -0.2388  0.2605
 6948SOL     OW26680   7.922   9.359  10.189  0.1674 -0.4255  0.2033
 6948SOL    HW126681   7.906   9.447  10.223  1.1543  0.3638 -1.2587
 6948SOL    HW226682   7.842   9.311  10.211 -0.2773  0.7304  1.3016
 6949SOL     OW26683   3.035  10.104   1.571  0.0141  0.2858 -0.0730
 6949SOL    HW126684   3.009  10.165   1.641  1.6304 -0.7079  1.4971
 6949SOL    HW226685   3.020  10.153   1.490 -2.1805  1.4054  0.9277
 6950SOL     OW26686  10.040   3.695   6.167  0.1804  0.7637  0.3318
 6950SOL    HW126687  10.054   3.602   6.182  0.6190  0.7745  0.0152
 6950SOL    HW226688  10.097   3.739   6.230 -1.8394  0.8560  2.1994
 6951SOL     OW26689   8.707   7.358   1.148  0.8219  0.3599 -0.8358
 6951SOL    HW126690   8.777   7.373   1.086  2.9350 -0.4703  1.1922
 6951SOL    HW226691   8.698   7.441   1.195  3.4468 -0.5849  1.6386
 6952SOL     OW26692   1.464   2.759  10.274  0.0344  0.4385  0.0208
 6952SOL    HW126693   1.476   2.736  10.182 -1.0659 -1.4023  0.2995
 6952SOL    HW226694   1.535   2.821  10.292 -1.4702  3.3218 -2.8429
 6953SOL     OW26695   1.432   1.207   5.859  0.2473 -0.2659 -0.3166
 6953SOL    HW126696   1.524   1.194   5.836  0.5653 -2.1521  1.6104
 6953SOL    HW226697   1.417   1.146   5.932 -2.9929 -1.2877 -1.6507
 6954SOL     OW26698   4.700   2.830  10.520  0.0690  0.6199  0.3355
 6954SOL    HW126699   4.722   2.901  10.582  2.1662 -0.7735  1.3100
 6954SOL    HW226700   4.645   2.771  10.571 -1.7060  1.4849 -0.4882
 6955SOL     OW26701  11.069   4.788  11.419  0.1190 -0.0215  0.2140
 6955SOL    HW126702  11.163   4.775  11.406  0.5486  2.2464  0.6323
 6955SOL    HW226703  11.028   4.719  11.366  1.9837 -0.8954 -0.2003
 6956SOL     OW26704   0.292  12.212  10.932 -0.3503  0.3920  1.0272
 6956SOL    HW126705   0.251  12.269  10.997  0.6673 -0.4394  2.4780
 6956SOL    HW226706   0.356  12.268  10.888 -1.0502  0.9703  0.7427
 6957SOL     OW26707   3.739   3.541   1.445 -0.5751 -0.2391 -0.1393
 6957SOL    HW126708   3.793   3.483   1.499  0.3786 -0.2408 -1.0582
 6957SOL    HW226709   3.794   3.560   1.368 -0.5174  2.5452  0.4980
 6958SOL     OW26710   2.776   5.532   5.766 -0.1065  0.5697  0.4634
 6958SOL    HW126711   2.724   5.453   5.749  0.9244 -0.3648  1.4209
 6958SOL    HW226712   2.716   5.592   5.808 -0.4469 -0.4700  1.5243
 6959SOL     OW26713   4.494   3.597   2.504  0.1623  0.7388  0.2654
 6959SOL    HW126714   4.587   3.615   2.495  0.9660 -2.3850  1.0635
 6959SOL    HW226715   4.471   3.632   2.590  0.7820  0.8949  0.3713
 6960SOL     OW26716  11.317  11.187   5.714  0.2077 -0.2643 -0.3463
 6960SOL    HW126717  11.261  11.265   5.717 -1.0717 -1.1691 -0.2265
 6960SOL    HW226718  11.329  11.163   5.806 -0.6761 -1.0923 -0.4391
 6961SOL     OW26719  12.232   1.600   3.009 -0.1636  0.0682  0.2273
 6961SOL    HW126720  12.327   1.609   3.007 -0.0410 -0.5600 -2.8785
 6961SOL    HW226721  12.216   1.511   2.978 -1.7115  1.1960 -2.6405
 6962SOL     OW26722   7.249   1.638  10.584 -1.3788  0.0605 -0.0587
 6962SOL    HW126723   7.307   1.652  10.659 -0.3643 -0.3652 -0.7424
 6962SOL    HW226724   7.161   1.635  10.621 -0.8470 -0.6903  1.1841
 6963SOL     OW26725   0.409   4.085   8.036 -0.2069 -0.1878  0.1924
 6963SOL    HW126726   0.367   4.120   7.958 -0.7142 -1.7187 -0.2500
 6963SOL    HW226727   0.421   3.992   8.018  2.0332 -0.1048  0.9055
 6964SOL     OW26728   2.356   1.845   8.058 -0.2749  0.0528 -0.2645
 6964SOL    HW126729   2.398   1.788   7.993 -1.1868  1.1209 -1.8753
 6964SOL    HW226730   2.428   1.884   8.106  0.4969  0.0395 -1.3757
 6965SOL     OW26731  12.203   2.315   6.574  0.0408  0.2947 -0.1076
 6965SOL    HW126732  12.145   2.360   6.513  1.2576  1.0930 -0.7145
 6965SOL    HW226733  12.244   2.385   6.625 -1.2937 -0.3587  2.0008
 6966SOL     OW26734   9.179   2.146  10.057 -0.2750  0.0589 -0.5527
 6966SOL    HW126735   9.143   2.061  10.080 -1.7548  0.5437 -0.9967
 6966SOL    HW226736   9.136   2.207  10.117 -0.3522  0.6860 -1.2382
 6967SOL     OW26737  10.683   8.200   7.789  0.1858 -0.3361 -0.1541
 6967SOL    HW126738  10.588   8.206   7.786  0.1569 -1.1137 -0.8886
 6967SOL    HW226739  10.711   8.222   7.701  0.7927  1.4387  0.4381
 6968SOL     OW26740  11.666   9.434   2.786 -0.1796 -0.0555 -0.0938
 6968SOL    HW126741  11.591   9.478   2.828  0.5654  0.7941  0.3807
 6968SOL    HW226742  11.719   9.506   2.752  1.6355 -0.4952  1.6267
 6969SOL     OW26743   6.024   5.562  10.142 -0.0441  0.2354  0.0869
 6969SOL    HW126744   6.018   5.467  10.132 -0.4676  0.2180  0.4348
 6969SOL    HW226745   6.021   5.596  10.053  1.6794 -0.1432 -0.1451
 6970SOL     OW26746   4.390   9.595  10.469  0.5903 -0.4198 -0.7390
 6970SOL    HW126747   4.484   9.577  10.474  0.7353  0.1850 -1.1416
 6970SOL    HW226748   4.351   9.512  10.444  1.0886 -0.5112 -1.2279
 6971SOL     OW26749   1.306   2.794   0.040  0.3544 -0.0018  0.2583
 6971SOL    HW126750   1.361   2.818  -0.035  0.8718 -0.0393  0.6175
 6971SOL    HW226751   1.327   2.859   0.107 -0.6115  0.4383  0.1413
 6972SOL     OW26752   0.075   2.159   6.887 -0.1091 -0.0490 -0.5142
 6972SOL    HW126753   0.109   2.077   6.852 -1.6267 -0.8554 -0.1694
 6972SOL    HW226754   0.130   2.227   6.848  0.0965 -1.1063 -2.1217
 6973SOL     OW26755   1.589   4.773   7.589 -0.8036  0.3398  0.6624
 6973SOL    HW126756   1.595   4.842   7.523  0.2465 -0.9096 -0.6318
 6973SOL    HW226757   1.674   4.773   7.632  0.1623 -1.7081 -1.0748
 6974SOL     OW26758   6.203   6.762   0.690 -0.1114 -0.2444 -0.5136
 6974SOL    HW126759   6.132   6.769   0.753  0.7745 -1.1805  0.6397
 6974SOL    HW226760   6.282   6.785   0.740  0.6359 -1.2007 -1.2124
 6975SOL     OW26761   3.312   9.891   1.066 -0.3198 -0.0604  0.3933
 6975SOL    HW126762   3.405   9.901   1.090  0.7504 -1.7251 -2.5560
 6975SOL    HW226763   3.287   9.807   1.104  0.1597 -0.7649 -0.7938
 6976SOL     OW26764   5.928   5.336   8.516 -0.6386 -0.2210 -0.4953
 6976SOL    HW126765   5.948   5.342   8.423  1.2204  0.5770 -0.0990
 6976SOL    HW226766   6.013   5.327   8.558 -1.1890  1.8301  1.2894
 6977SOL     OW26767   9.380   6.304   0.686 -0.9699  0.2576 -0.0448
 6977SOL    HW126768   9.455   6.320   0.743  0.2952 -0.9747 -1.2697
 6977SOL    HW226769   9.395   6.359   0.609 -0.9417 -0.4675 -0.5798
 6978SOL     OW26770  10.170  11.434   9.649  0.0038  0.6513  0.0654
 6978SOL    HW126771  10.081  11.468   9.649  0.4009  1.7608 -0.6822
 6978SOL    HW226772  10.181  11.395   9.562  0.3804  0.9064 -0.0046
 6979SOL     OW26773   6.904   5.698   1.255 -0.1000  0.7924  0.1049
 6979SOL    HW126774   6.904   5.794   1.262 -0.7985  0.7378  1.0779
 6979SOL    HW226775   6.839   5.679   1.187  0.8616  1.0362 -0.9153
 6980SOL     OW26776   9.605   0.004   0.099  0.4479 -0.2460  0.5399
 6980SOL    HW126777   9.691  -0.030   0.122  1.4821  0.6894 -1.6282
 6980SOL    HW226778   9.563  -0.066   0.049  0.7781  0.0118 -0.1097
 6981SOL     OW26779   6.609   7.527   2.193 -0.1911 -0.1764 -0.1562
 6981SOL    HW126780   6.640   7.504   2.280  0.9982 -1.4518 -0.8775
 6981SOL    HW226781   6.674   7.590   2.160 -1.3235  1.2945  0.3272
 6982SOL     OW26782  11.012   2.472   9.099 -0.2713  0.0295  0.2815
 6982SOL    HW126783  11.087   2.477   9.159 -0.7701 -0.4226  0.9689
 6982SOL    HW226784  10.946   2.529   9.139 -0.0946  0.8883 -0.6339
 6983SOL     OW26785   9.805   2.055   8.202 -0.1722 -0.0453  0.2057
 6983SOL    HW126786   9.871   2.004   8.155 -0.7140 -2.7481  2.1723
 6983SOL    HW226787   9.829   2.046   8.294 -1.7750  1.1742  0.7909
 6984SOL     OW26788   8.986   0.132   8.690  0.2036  0.1017  0.0972
 6984SOL    HW126789   8.898   0.166   8.675 -0.3358 -1.7686 -1.4391
 6984SOL    HW226790   9.026   0.194   8.751 -2.6811  0.2256  2.0766
 6985SOL     OW26791   0.296   1.962   5.692  0.5490 -1.0108 -0.3146
 6985SOL    HW126792   0.314   1.921   5.777  0.9033 -0.4372 -0.1082
 6985SOL    HW226793   0.366   2.026   5.681 -0.9544  0.8079  0.1941
 6986SOL     OW26794   2.317   0.020  10.194  0.3685  0.1939  0.5114
 6986SOL    HW126795   2.311   0.014  10.099  0.5384 -0.2116  0.5260
 6986SOL    HW226796   2.277   0.105  10.215 -1.6807 -0.6491  0.2667
 6987SOL     OW26797   0.593   3.077   5.212  0.1342  0.5658 -0.2282
 6987SOL    HW126798   0.543   3.047   5.289  1.3843  0.2365  0.4781
 6987SOL    HW226799   0.620   3.166   5.235  0.5026  0.4701 -0.2870
 6988SOL     OW26800   4.593   9.322   8.348  0.6711  0.2439  0.0397
 6988SOL    HW126801   4.623   9.310   8.438 -2.4054  0.2640  1.1690
 6988SOL    HW226802   4.624   9.409   8.324  2.5328 -0.2152  0.5928
 6989SOL     OW26803   7.698  10.794   4.246 -0.2145  0.4146 -0.2771
 6989SOL    HW126804   7.732  10.870   4.293  0.4504  0.8764 -1.4347
 6989SOL    HW226805   7.738  10.802   4.158  1.1995 -2.1513  0.0481
 6990SOL     OW26806  12.130  12.221   4.937  0.2379  0.0502 -0.1540
 6990SOL    HW126807  12.073  12.203   4.863 -1.1730  1.9264  0.3780
 6990SOL    HW226808  12.200  12.276   4.902 -0.4544  0.9754 -0.1425
 6991SOL     OW26809   3.553   1.990   0.852  0.3990  0.7208  0.2323
 6991SOL    HW126810   3.483   2.045   0.817 -0.2828  0.7374  1.5758
 6991SOL    HW226811   3.515   1.903   0.857  0.5546  0.6794  0.7350
 6992SOL     OW26812   1.684   1.932   4.732 -0.7690  1.0133 -0.1954
 6992SOL    HW126813   1.753   1.942   4.798 -0.5003  0.0235 -0.3201
 6992SOL    HW226814   1.712   1.990   4.661 -0.6977  1.5487  0.2600
 6993SOL     OW26815   3.781   2.007  10.888 -0.1584  0.1941 -0.0709
 6993SOL    HW126816   3.831   1.981  10.811  0.7287 -0.5475  0.7367
 6993SOL    HW226817   3.722   1.934  10.905 -0.4191  0.3965 -0.1030
 6994SOL     OW26818   3.432  11.231   5.905 -0.2614 -0.0523  0.5866
 6994SOL    HW126819   3.496  11.247   5.835  1.1498 -0.8405  1.6490
 6994SOL    HW226820   3.357  11.193   5.860 -0.4573  1.8776 -0.8492
 6995SOL     OW26821   4.809   3.635   5.945 -0.1941  0.0813  0.0547
 6995SOL    HW126822   4.897   3.669   5.963 -0.3407  1.1476 -1.1018
 6995SOL    HW226823   4.799   3.644   5.850 -0.7156 -2.1071 -0.1448
 6996SOL     OW26824  10.122   0.831   5.381 -0.0241  0.1669 -0.0430
 6996SOL    HW126825  10.154   0.755   5.429 -0.2403  0.6318  0.8575
 6996SOL    HW226826  10.192   0.852   5.319  0.2647 -0.4298  0.0788
 6997SOL     OW26827   6.233   2.454   9.113  0.2007  0.0215 -0.2057
 6997SOL    HW126828   6.187   2.515   9.170 -2.0204 -0.8865 -0.9399
 6997SOL    HW226829   6.219   2.488   9.025  0.6350 -0.4691 -0.4715
 6998SOL     OW26830   2.183   2.638   1.257  0.2557  0.1887  0.1025
 6998SOL    HW126831   2.257   2.626   1.198  1.0908 -0.4864  1.2617
 6998SOL    HW226832   2.109   2.599   1.210  1.0170 -0.8548 -0.2654
 6999SOL     OW26833   6.818  12.156   2.035 -0.1964 -0.3443  0.2537
 6999SOL    HW126834   6.850  12.067   2.019  1.7494  0.1872  0.8575
 6999SOL    HW226835   6.898  12.208   2.045 -1.2857  1.5244 -0.3325
 7000SOL     OW26836   7.994   6.520   7.150  0.5315  0.1232 -0.0200
 7000SOL    HW126837   7.936   6.563   7.213  0.0488 -0.2007 -0.2364
 7000SOL    HW226838   8.006   6.432   7.184  0.3686 -0.0147 -0.3075
 7001SOL     OW26839   6.915   4.532   9.700 -0.2240 -0.2204  0.2930
 7001SOL    HW126840   7.002   4.517   9.738 -0.9576 -0.2385  2.0688
 7001SOL    HW226841   6.907   4.465   9.632  1.4657  0.3361 -0.5169
 7002SOL     OW26842   9.680   9.348   9.155  0.0720 -0.3613  0.2855
 7002SOL    HW126843   9.738   9.379   9.225  0.7338 -0.7754 -0.0613
 7002SOL    HW226844   9.640   9.427   9.119  0.9411 -0.0019  0.0896
 7003SOL     OW26845  12.235   1.013   7.161 -0.3427  0.3319 -0.1704
 7003SOL    HW126846  12.203   1.083   7.217  0.3778  0.5502 -0.0212
 7003SOL    HW226847  12.182   0.937   7.185  0.1623  0.3349  1.0614
 7004SOL     OW26848  10.300   2.594   6.759 -0.6221  0.2433  0.0688
 7004SOL    HW126849  10.337   2.521   6.708  1.3404  1.4208 -0.3042
 7004SOL    HW226850  10.257   2.552   6.833  0.9570 -1.3042  0.1876
 7005SOL     OW26851   0.966   1.755   0.686 -0.0174 -0.3104  0.0266
 7005SOL    HW126852   0.960   1.841   0.646  2.3381  0.4473  1.0757
 7005SOL    HW226853   1.053   1.754   0.726  0.5036 -3.5835 -0.8874
 7006SOL     OW26854   3.001   3.309   4.617 -0.2643  0.2528 -0.3485
 7006SOL    HW126855   3.081   3.323   4.567  0.4546  1.0323  0.9578
 7006SOL    HW226856   2.977   3.397   4.648 -1.2108 -0.0774 -0.1063
 7007SOL     OW26857   1.227   3.301  11.873  0.1982 -0.2917 -0.1209
 7007SOL    HW126858   1.263   3.220  11.909 -0.2927 -1.1755 -1.5245
 7007SOL    HW226859   1.177   3.339  11.945  1.6387 -0.4522  1.0187
 7008SOL     OW26860   6.144   6.870   9.676  0.3998  0.0006 -0.0729
 7008SOL    HW126861   6.070   6.822   9.639 -0.3312  0.1780  1.1322
 7008SOL    HW226862   6.202   6.885   9.601  0.5162 -2.4800 -0.5797
 7009SOL     OW26863   0.681   7.291   9.871  0.5140 -0.5023  0.1078
 7009SOL    HW126864   0.768   7.293   9.833  1.5992  0.4606  2.4655
 7009SOL    HW226865   0.671   7.377   9.913 -0.9992 -1.1342  1.1295
 7010SOL     OW26866   7.733   4.570   2.217 -0.2848 -0.6178 -0.2603
 7010SOL    HW126867   7.724   4.635   2.146  2.3757  0.1996  0.0464
 7010SOL    HW226868   7.667   4.595   2.281 -1.8365 -0.5489 -1.8080
 7011SOL     OW26869   3.753  10.098   7.972 -0.0825  0.6856  0.2572
 7011SOL    HW126870   3.696  10.173   7.955  0.1840  0.6414 -0.9101
 7011SOL    HW226871   3.836  10.120   7.931 -0.5542 -0.9985 -1.7732
 7012SOL     OW26872   1.277   5.771   2.178  0.1790 -0.5011 -0.1772
 7012SOL    HW126873   1.235   5.770   2.264 -0.5116 -0.8220 -0.5086
 7012SOL    HW226874   1.208   5.742   2.118  0.2610  0.9438 -1.0091
 7013SOL     OW26875   6.644   8.422  10.988 -0.1507  0.1528  0.1644
 7013SOL    HW126876   6.680   8.493  10.934  1.7741 -1.3034 -0.5696
 7013SOL    HW226877   6.614   8.356  10.925 -1.1851 -0.0579  0.8474
 7014SOL     OW26878   1.185   9.536   8.992 -0.2811  0.2407 -0.1447
 7014SOL    HW126879   1.095   9.525   9.022 -0.8046 -0.4953 -1.8683
 7014SOL    HW226880   1.177   9.572   8.904  1.1592  1.1357  0.0524
 7015SOL     OW26881   4.043   0.389   5.480 -0.3868 -0.3591 -0.6178
 7015SOL    HW126882   3.983   0.378   5.554  0.5130 -1.6148 -0.0341
 7015SOL    HW226883   4.042   0.304   5.436  0.5979 -0.2523 -0.8735
 7016SOL     OW26884   2.366   7.043   2.523  0.1078 -0.0405  0.3826
 7016SOL    HW126885   2.451   7.000   2.514  0.0967  0.0879 -0.4294
 7016SOL    HW226886   2.323   7.030   2.438 -0.6665 -0.0629  0.7642
 7017SOL     OW26887  11.723   7.935   6.376 -0.0212  0.2952  0.2034
 7017SOL    HW126888  11.764   8.017   6.351 -0.4035  1.3390  2.6939
 7017SOL    HW226889  11.791   7.869   6.362  0.5100  1.1015 -1.2038
 7018SOL     OW26890  10.466   2.816  11.475 -0.3975  0.4833  0.1341
 7018SOL    HW126891  10.447   2.771  11.557 -0.0823  0.2493  0.0835
 7018SOL    HW226892  10.419   2.765  11.408 -0.0098  0.2011  0.0717
 7019SOL     OW26893  11.018   1.874   5.213  0.0426  0.1117 -0.3177
 7019SOL    HW126894  10.960   1.950   5.206  0.3240  0.3817  0.1952
 7019SOL    HW226895  11.053   1.879   5.302 -1.1295 -1.4998  0.2878
 7020SOL     OW26896   3.647   4.123   6.982  0.3631  0.3063  0.5625
 7020SOL    HW126897   3.592   4.054   7.020 -1.0589  2.4616  2.7165
 7020SOL    HW226898   3.592   4.162   6.913  0.1311  0.8424  1.0348
 7021SOL     OW26899   3.193   1.439   6.555  0.4558 -0.0027  0.2185
 7021SOL    HW126900   3.098   1.444   6.559  0.3017 -0.6521 -1.6555
 7021SOL    HW226901   3.211   1.361   6.503  2.0795 -0.9418  2.0617
 7022SOL     OW26902   8.495   2.930   6.110 -0.0526  0.2452 -0.0267
 7022SOL    HW126903   8.535   2.948   6.025 -1.8400 -0.0351 -0.9755
 7022SOL    HW226904   8.487   3.015   6.152 -1.1157  0.6806 -1.0760
 7023SOL     OW26905   1.055   0.785   3.389  0.2114 -0.1141  0.4662
 7023SOL    HW126906   1.049   0.871   3.432 -1.1888 -0.4699  1.0209
 7023SOL    HW226907   1.052   0.805   3.295 -0.7983  0.4041  0.6026
 7024SOL     OW26908   4.030  10.937  11.142  0.1456 -0.4898 -0.0974
 7024SOL    HW126909   4.120  10.905  11.138 -0.0445 -1.2994  1.3191
 7024SOL    HW226910   3.985  10.874  11.199 -0.5175  1.6416  1.9224
 7025SOL     OW26911  12.214   6.158   5.706  0.1502 -0.0831  0.4700
 7025SOL    HW126912  12.221   6.134   5.614  0.4419 -1.9128  0.9292
 7025SOL    HW226913  12.301   6.139   5.742  0.5209  2.0764  0.8397
 7026SOL     OW26914  11.693  11.809   3.120 -0.1946  0.7611 -0.0388
 7026SOL    HW126915  11.640  11.778   3.193  0.9532  0.9029  0.8706
 7026SOL    HW226916  11.728  11.893   3.150  0.4743  0.7133 -0.6603
 7027SOL     OW26917   6.183   8.999  11.606 -0.0385 -0.1584  0.4042
 7027SOL    HW126918   6.141   8.941  11.670 -0.2213 -0.2821  0.1719
 7027SOL    HW226919   6.243   8.942  11.558 -0.3047 -0.1826  0.0963
 7028SOL     OW26920   5.815   2.039  11.694  0.4167 -0.0157 -0.3080
 7028SOL    HW126921   5.806   2.023  11.600 -0.3053 -0.2089 -0.2108
 7028SOL    HW226922   5.894   1.990  11.719  1.5552  1.3366 -1.0997
 7029SOL     OW26923   5.182   1.264  11.875  0.9156  0.2002  0.1156
 7029SOL    HW126924   5.148   1.323  11.943  1.9109  0.3508  0.4954
 7029SOL    HW226925   5.169   1.176  11.911 -0.4199  0.1757 -0.3811
 7030SOL     OW26926   8.951   8.237   1.739 -0.3343 -0.3114 -0.6591
 7030SOL    HW126927   8.919   8.201   1.656  1.0546 -0.6676 -1.0788
 7030SOL    HW226928   8.983   8.325   1.717  1.7966 -1.0950 -0.9803
 7031SOL     OW26929   3.347   6.477   8.179  0.7148  0.6272  0.1419
 7031SOL    HW126930   3.281   6.515   8.236  0.5572  2.6037 -1.2355
 7031SOL    HW226931   3.297   6.443   8.105  1.0730  0.1782  0.1080
 7032SOL     OW26932   3.790  10.002   4.531 -0.5112 -0.2245  0.0989
 7032SOL    HW126933   3.816  10.063   4.599 -1.1217  0.3364 -0.1631
 7032SOL    HW226934   3.753  10.057   4.462 -1.1662 -0.8941 -0.0961
 7033SOL     OW26935   7.471   3.187   4.987  0.4645 -0.4026 -0.1012
 7033SOL    HW126936   7.469   3.095   5.015  0.1503 -0.8892 -1.6204
 7033SOL    HW226937   7.560   3.199   4.953  0.1674 -0.5069 -0.9576
 7034SOL     OW26938   2.760   0.532   0.183  0.2632  0.3297  0.0243
 7034SOL    HW126939   2.832   0.473   0.205  0.0643 -0.0069 -0.2249
 7034SOL    HW226940   2.784   0.570   0.099  0.6525  1.0291  0.4378
 7035SOL     OW26941   8.984   4.924   4.443  0.3237  0.5109  0.4433
 7035SOL    HW126942   9.029   4.982   4.503 -0.5136  1.2957  0.3348
 7035SOL    HW226943   8.953   4.981   4.373  1.2089 -0.3707 -0.7030
 7036SOL     OW26944   8.846   2.291   7.322  0.9971 -0.1250 -0.0487
 7036SOL    HW126945   8.785   2.219   7.335  0.7959 -0.3216 -1.9159
 7036SOL    HW226946   8.798   2.369   7.350  0.0403 -0.3289 -1.0989
 7037SOL     OW26947  11.964  11.470   6.802  0.5000  0.5023 -0.0061
 7037SOL    HW126948  11.979  11.377   6.786  1.8819  0.8275 -0.8209
 7037SOL    HW226949  11.909  11.498   6.730 -0.9281  0.0942  0.8906
 7038SOL     OW26950   2.451   5.049   5.975  0.3344 -0.5144 -0.2011
 7038SOL    HW126951   2.361   5.031   5.948 -0.2742  0.9571  0.7371
 7038SOL    HW226952   2.446   5.129   6.027  2.1033 -0.7396  0.4157
 7039SOL     OW26953   6.916  11.587   3.874 -0.2013  0.4768 -0.5808
 7039SOL    HW126954   6.854  11.604   3.945  0.8998  1.7725  0.1420
 7039SOL    HW226955   6.940  11.495   3.883  0.4717  0.7888  1.2404
 7040SOL     OW26956   8.477   7.101   0.560 -0.2722 -0.1106 -0.0018
 7040SOL    HW126957   8.408   7.134   0.618  0.8503  0.1236  1.2432
 7040SOL    HW226958   8.447   7.125   0.472 -1.6428  0.2142  0.5209
 7041SOL     OW26959   2.754   3.640  11.003  0.4906 -0.0845  0.2771
 7041SOL    HW126960   2.742   3.615  10.911  0.5619 -1.4057  0.6051
 7041SOL    HW226961   2.849   3.641  11.015  0.4899  0.3818  0.2722
 7042SOL     OW26962   1.565   1.754   1.168  0.1890  0.1182  0.2110
 7042SOL    HW126963   1.601   1.807   1.097  3.0533  0.0562  1.5085
 7042SOL    HW226964   1.637   1.698   1.197 -2.1767 -3.2806  0.1335
 7043SOL     OW26965   4.970  10.010  11.279 -0.4585 -0.0361  0.1122
 7043SOL    HW126966   4.921  10.088  11.305 -1.0181 -0.2541 -0.2983
 7043SOL    HW226967   5.027   9.992  11.354  0.7079  1.5949 -0.3332
 7044SOL     OW26968   9.843   2.093   9.733  0.2748  0.2965 -0.1567
 7044SOL    HW126969   9.775   2.041   9.689 -0.4522  1.7130 -0.7432
 7044SOL    HW226970   9.810   2.104   9.823 -1.3930  2.7517 -0.9653
 7045SOL     OW26971   0.288   3.322  10.962 -0.0772 -0.2888 -0.3979
 7045SOL    HW126972   0.212   3.360  10.919  0.0393  0.0920 -0.2655
 7045SOL    HW226973   0.317   3.253  10.902 -0.9953 -0.9646 -0.0781
 7046SOL     OW26974  11.260   1.370  12.154  0.7934  0.6463 -0.2560
 7046SOL    HW126975  11.166   1.361  12.169  0.9654  1.1210  1.2932
 7046SOL    HW226976  11.278   1.462  12.172  1.3938  0.8199 -1.6365
 7047SOL     OW26977  11.030   3.753  11.281 -0.8936  0.0268  0.5155
 7047SOL    HW126978  10.978   3.816  11.331 -0.2252  1.0381 -0.0306
 7047SOL    HW226979  10.973   3.726  11.210 -0.9551  0.5414  0.3644
 7048SOL     OW26980   2.759   6.098   3.154 -0.1888  0.7912  0.2835
 7048SOL    HW126981   2.821   6.026   3.144 -1.5647 -0.5451  0.9420
 7048SOL    HW226982   2.738   6.099   3.247 -3.1731 -0.6531 -0.2418
 7049SOL     OW26983   3.128  10.996   5.241  0.2453  0.2891 -0.0610
 7049SOL    HW126984   3.114  11.034   5.154  0.9808  0.6698 -0.0208
 7049SOL    HW226985   3.147  10.904   5.223 -0.2525  0.2235 -0.2558
 7050SOL     OW26986   1.221   0.489   7.054  0.4289 -0.0953  0.3351
 7050SOL    HW126987   1.269   0.476   7.136  1.6942  0.7275 -0.2422
 7050SOL    HW226988   1.185   0.577   7.061  1.4340  0.3981 -0.3977
 7051SOL     OW26989   0.258   2.938   9.961 -0.3934  0.2973 -0.0143
 7051SOL    HW126990   0.216   2.906   9.881 -0.3356 -0.0563  0.0965
 7051SOL    HW226991   0.279   2.859  10.011 -1.2844  0.5448  0.7895
 7052SOL     OW26992  10.343   0.207   0.201 -0.0867 -0.0765  0.8149
 7052SOL    HW126993  10.261   0.256   0.209  0.1703  1.0429 -2.0881
 7052SOL    HW226994  10.406   0.271   0.169  1.0769 -1.6171 -0.1244
 7053SOL     OW26995  11.291   4.949   4.306 -0.7203 -0.0682 -0.1106
 7053SOL    HW126996  11.376   4.928   4.346 -1.3039 -0.4754  0.9708
 7053SOL    HW226997  11.294   4.907   4.220  0.0692 -0.3037  0.0189
 7054SOL     OW26998  11.710   2.928   0.008 -0.7651 -0.1024  0.5953
 7054SOL    HW126999  11.639   2.988  -0.013 -1.9820 -1.1225  1.6557
 7054SOL    HW227000  11.702   2.858  -0.058  0.3914  0.6366 -0.3792
 7055SOL     OW27001   9.214   9.200   0.366 -0.6002  0.2076  0.4882
 7055SOL    HW127002   9.191   9.292   0.374  0.8900  0.5410  1.3543
 7055SOL    HW227003   9.303   9.194   0.403 -0.3220 -1.4119 -0.3529
 7056SOL     OW27004   3.158   5.794   3.280  0.6171 -0.0262 -0.4343
 7056SOL    HW127005   3.175   5.710   3.238  0.1432 -1.8303  2.6878
 7056SOL    HW227006   3.097   5.839   3.221  1.3235 -1.5680 -2.4582
 7057SOL     OW27007   1.327   7.996   9.002  0.5477 -0.1938  0.6893
 7057SOL    HW127008   1.316   7.928   8.936  1.0133  0.0196  0.3813
 7057SOL    HW227009   1.239   8.015   9.033  0.4389 -1.1524  1.0081
 7058SOL     OW27010   7.176   7.178   4.197 -0.3898  0.4542  0.2007
 7058SOL    HW127011   7.211   7.264   4.175  1.8829 -0.3413  0.4203
 7058SOL    HW227012   7.252   7.119   4.192 -1.2095 -1.0072  3.0142
 7059SOL     OW27013   4.278   0.185   5.413 -0.6014 -0.1294  0.1129
 7059SOL    HW127014   4.359   0.235   5.424  0.5104 -1.8941  0.3018
 7059SOL    HW227015   4.258   0.192   5.320 -1.4286  2.0133  0.3900
 7060SOL     OW27016  10.862  10.824  10.881  0.1886  0.0305 -0.5709
 7060SOL    HW127017  10.801  10.848  10.812  1.5993  0.7450 -1.6171
 7060SOL    HW227018  10.946  10.859  10.852  0.4814  2.3878  2.5314
 7061SOL     OW27019  10.519   7.480   8.509 -0.0002  0.8396  0.6163
 7061SOL    HW127020  10.556   7.454   8.425 -2.9491  2.3527 -1.3420
 7061SOL    HW227021  10.563   7.562   8.531 -0.0499  1.0487 -0.0694
 7062SOL     OW27022  11.231   0.147   7.288 -0.3717 -0.0505 -0.4155
 7062SOL    HW127023  11.147   0.161   7.333  0.5050 -0.3116  1.3858
 7062SOL    HW227024  11.211   0.081   7.221 -1.8898  0.9238 -0.9655
 7063SOL     OW27025   4.688   5.178   6.871  0.1246  0.0487  0.5000
 7063SOL    HW127026   4.694   5.271   6.849  0.1764 -0.4688 -1.9689
 7063SOL    HW227027   4.594   5.159   6.869  0.2315 -0.7817 -3.3847
 7064SOL     OW27028   7.334   7.694   2.614 -0.0776  0.1880 -0.3558
 7064SOL    HW127029   7.288   7.765   2.659 -0.2093 -0.2651  0.2493
 7064SOL    HW227030   7.422   7.727   2.601 -0.7779  1.4459 -2.3977
 7065SOL     OW27031  10.628   6.609   5.575 -0.4035  0.2498 -0.3649
 7065SOL    HW127032  10.547   6.606   5.625 -0.7796 -0.9598 -0.9954
 7065SOL    HW227033  10.601   6.632   5.486  0.0161  0.3811 -0.4642
 7066SOL     OW27034   2.383   0.548   1.517 -0.1294 -0.3048 -0.2642
 7066SOL    HW127035   2.455   0.488   1.498 -0.8785 -1.1325 -0.6157
 7066SOL    HW227036   2.329   0.546   1.438  0.3981  1.7380 -0.7325
 7067SOL     OW27037   9.432   9.127   7.303  0.1872 -0.1032  0.0830
 7067SOL    HW127038   9.518   9.157   7.330  0.2709 -0.5227  0.2918
 7067SOL    HW227039   9.383   9.207   7.284  1.0959  0.1155 -1.5174
 7068SOL     OW27040   1.690   1.672   7.856  0.2234 -0.6578  0.4466
 7068SOL    HW127041   1.734   1.611   7.797  0.9750 -0.6358  0.9750
 7068SOL    HW227042   1.703   1.758   7.816 -0.4308 -0.7796 -0.0499
 7069SOL     OW27043   5.919   6.591   3.947 -0.0593  0.1099 -0.0067
 7069SOL    HW127044   5.963   6.583   4.032  0.8028 -3.2108 -0.6366
 7069SOL    HW227045   5.839   6.540   3.956 -2.0518  2.9672 -0.0880
 7070SOL     OW27046   3.158   3.806   9.064 -0.3617 -0.6597 -0.2229
 7070SOL    HW127047   3.135   3.805   8.971  0.8826 -0.6408 -0.5400
 7070SOL    HW227048   3.197   3.720   9.080  1.2864  0.0589 -0.2160
 7071SOL     OW27049   3.849   3.239   3.520 -0.2770 -0.6120  0.4306
 7071SOL    HW127050   3.754   3.253   3.529 -0.1058  1.1381 -0.0875
 7071SOL    HW227051   3.880   3.233   3.610 -0.7849 -0.4793  0.6215
 7072SOL     OW27052   7.601   0.003   3.835  0.6958  0.2745  0.3929
 7072SOL    HW127053   7.576   0.029   3.924 -0.4265 -2.0605  0.8265
 7072SOL    HW227054   7.522   0.020   3.783 -0.7224 -3.4811  1.0131
 7073SOL     OW27055   9.139   8.330   0.569  0.2012  0.0229  0.0277
 7073SOL    HW127056   9.077   8.309   0.499 -0.7083 -2.3148  1.4161
 7073SOL    HW227057   9.217   8.363   0.523 -1.2630  1.0399 -1.8884
 7074SOL     OW27058   6.883  10.521   0.757  0.4817 -0.3877 -0.4185
 7074SOL    HW127059   6.826  10.465   0.809 -0.0088  0.4881  0.0234
 7074SOL    HW227060   6.940  10.563   0.821 -1.2610  2.0272 -0.2899
 7075SOL     OW27061   8.324   9.169  11.476 -0.2408  0.2427  0.1790
 7075SOL    HW127062   8.319   9.167  11.572 -0.7744 -1.5970  0.1643
 7075SOL    HW227063   8.413   9.139  11.457 -0.6632 -1.0351  0.1130
 7076SOL     OW27064   1.053   1.201   0.556  0.1274 -0.1597  0.2585
 7076SOL    HW127065   0.977   1.212   0.499  1.5192  2.0915 -1.3049
 7076SOL    HW227066   1.059   1.283   0.605  1.2460 -0.5307  0.7743
 7077SOL     OW27067   7.240   0.575   4.948  0.0456 -0.0340 -0.1021
 7077SOL    HW127068   7.284   0.616   5.022  0.1920  0.6133 -0.5395
 7077SOL    HW227069   7.226   0.646   4.885 -0.1420 -0.5558 -0.6672
 7078SOL     OW27070  12.309   6.453   2.580  0.5859  0.4508 -0.2085
 7078SOL    HW127071  12.336   6.460   2.672  1.2487  1.0168 -0.4356
 7078SOL    HW227072  12.389   6.469   2.530  0.2891 -0.1334 -0.8883
 7079SOL     OW27073   1.661   6.312  10.987 -0.1493 -0.2696  0.1592
 7079SOL    HW127074   1.584   6.367  10.970 -0.0924 -0.0726  0.5322
 7079SOL    HW227075   1.628   6.223  10.985 -0.4455 -0.1720  0.6240
 7080SOL     OW27076  11.259   4.920   3.556  0.2826 -0.0816 -0.1082
 7080SOL    HW127077  11.288   4.829   3.543  0.7084 -0.0779  0.6930
 7080SOL    HW227078  11.332   4.972   3.523  0.7583 -0.0603  0.9320
 7081SOL     OW27079  11.270   3.531   0.036  0.4341 -0.2813  0.4125
 7081SOL    HW127080  11.175   3.534   0.027  0.5009  0.0322 -0.2454
 7081SOL    HW227081  11.288   3.442   0.067 -0.0519 -0.4622  0.1964
 7082SOL     OW27082   2.231   5.949   4.134 -0.1285  0.6592  0.3095
 7082SOL    HW127083   2.179   6.002   4.072  0.6998  0.9144 -0.1905
 7082SOL    HW227084   2.184   5.866   4.140 -0.5561  0.8552 -0.1984
 7083SOL     OW27085   8.971   0.077  12.122 -0.2403  0.1163  0.0169
 7083SOL    HW127086   8.887   0.072  12.167 -0.1571 -1.2615  0.0849
 7083SOL    HW227087   8.948   0.076  12.029 -0.3451  1.2617  0.0206
 7084SOL     OW27088   2.288   1.460   2.272  0.7697 -0.4535  0.5410
 7084SOL    HW127089   2.197   1.490   2.268  0.4762 -1.4039 -0.3829
 7084SOL    HW227090   2.308   1.458   2.366  0.5957  1.8834  0.6951
 7085SOL     OW27091  11.122   5.015   5.947 -0.0675 -0.0251  0.0046
 7085SOL    HW127092  11.180   4.974   6.011  1.5412  1.6786 -0.2622
 7085SOL    HW227093  11.148   4.976   5.863  0.9997  1.0013 -0.1632
 7086SOL     OW27094  10.648   1.356   9.308  0.1575 -0.0728 -0.1253
 7086SOL    HW127095  10.722   1.327   9.361 -0.9549 -1.4445  0.7517
 7086SOL    HW227096  10.571   1.335   9.361 -0.9447 -0.4287 -1.7999
 7087SOL     OW27097  10.147   3.809   6.851 -0.3835 -0.1176  0.2405
 7087SOL    HW127098  10.078   3.850   6.799 -0.3113  0.4598  0.5986
 7087SOL    HW227099  10.211   3.878   6.866  0.6895 -0.8616 -0.7811
 7088SOL     OW27100  10.759   6.448   2.177  0.0990 -0.3179  0.0654
 7088SOL    HW127101  10.836   6.505   2.179 -0.0295 -0.1694  0.9598
 7088SOL    HW227102  10.786   6.370   2.226  0.1949 -0.9506 -0.9451
 7089SOL     OW27103   2.037   9.197   4.912 -0.4579 -0.5765 -0.1711
 7089SOL    HW127104   2.118   9.179   4.959  0.1702 -1.5149 -1.5195
 7089SOL    HW227105   2.063   9.199   4.820 -1.3957  2.4192 -0.5017
 7090SOL     OW27106   6.963   7.083  10.268 -0.4194 -0.2514  0.2389
 7090SOL    HW127107   6.987   7.027  10.342 -0.8518 -1.5806 -0.5821
 7090SOL    HW227108   6.876   7.117  10.291 -0.4001 -0.3736  0.5008
 7091SOL     OW27109   6.528   9.505   4.135  0.4181  0.0782 -0.4189
 7091SOL    HW127110   6.586   9.568   4.092  1.2620 -0.9881 -0.8664
 7091SOL    HW227111   6.585   9.433   4.161 -0.6560 -0.8616 -0.6020
 7092SOL     OW27112   0.863  12.021   7.939  0.3985 -0.3139 -0.3121
 7092SOL    HW127113   0.923  12.000   8.010 -0.9737 -1.8814  0.4662
 7092SOL    HW227114   0.867  11.945   7.881  2.1222  1.2673 -2.4800
 7093SOL     OW27115   4.872  10.894   1.668  0.2529 -0.4711 -0.0598
 7093SOL    HW127116   4.906  10.839   1.597 -0.5093  0.0753 -0.8715
 7093SOL    HW227117   4.897  10.983   1.642 -2.3925  0.0469 -1.0813
 7094SOL     OW27118   8.081   0.210   0.405  0.0274  0.0847  0.1590
 7094SOL    HW127119   8.085   0.248   0.492  0.0461 -1.9283  1.0811
 7094SOL    HW227120   8.153   0.147   0.402 -1.4832 -1.7485 -0.3096
 7095SOL     OW27121   0.461   4.323   8.173  0.1174 -0.3900  0.1766
 7095SOL    HW127122   0.433   4.337   8.263 -1.7837  1.7717 -0.6361
 7095SOL    HW227123   0.419   4.241   8.147 -0.5980 -0.2414  0.8185
 7096SOL     OW27124   8.884   7.560   7.368 -0.8830  0.3983 -1.5134
 7096SOL    HW127125   8.832   7.555   7.448  0.0708 -1.7974 -0.9383
 7096SOL    HW227126   8.828   7.523   7.300 -1.2626  1.1604 -1.6229
 7097SOL     OW27127  11.488   2.028   1.743 -0.3138 -0.6103  0.7106
 7097SOL    HW127128  11.474   1.945   1.697  0.1434 -0.2359 -0.1350
 7097SOL    HW227129  11.581   2.027   1.765 -0.0662  0.0944 -0.1978
 7098SOL     OW27130   3.714   2.997  11.262  0.1677 -0.1433  0.4968
 7098SOL    HW127131   3.692   2.929  11.325 -1.6714 -0.0961 -0.0390
 7098SOL    HW227132   3.743   3.071  11.316 -1.5975 -0.0171  1.3501
 7099SOL     OW27133   0.977   2.771  11.616 -0.1890 -0.1002  0.2604
 7099SOL    HW127134   0.995   2.812  11.700  0.4888  1.0589 -0.4216
 7099SOL    HW227135   0.910   2.826  11.576 -1.0306 -1.0492  0.3181
 7100SOL     OW27136  10.156   1.049  10.335 -0.0108  0.4585  0.0517
 7100SOL    HW127137  10.188   1.093  10.413  1.3697 -0.7600  0.2339
 7100SOL    HW227138  10.061   1.050  10.343  0.1074 -0.3122  2.1471
 7101SOL     OW27139   9.133  10.763   8.934 -0.7181  0.1891 -0.6196
 7101SOL    HW127140   9.072  10.701   8.973 -1.6631  1.5304  0.1421
 7101SOL    HW227141   9.110  10.764   8.841  0.1098 -1.4405 -0.8794
 7102SOL     OW27142   0.866   3.404  11.445 -0.1583  0.1088 -0.2980
 7102SOL    HW127143   0.916   3.472  11.490 -0.3691 -0.1363  0.3106
 7102SOL    HW227144   0.911   3.322  11.467  0.1704  0.0524 -1.1299
 7103SOL     OW27145   1.058  10.846   2.443 -0.3548  0.2065  0.0467
 7103SOL    HW127146   1.017  10.817   2.362 -1.3000  1.0209  0.2171
 7103SOL    HW227147   1.132  10.786   2.455 -1.2791 -1.0780 -0.4540
 7104SOL     OW27148   2.432  10.950   9.144  0.0720 -1.1292 -0.5465
 7104SOL    HW127149   2.521  10.979   9.126  0.1676 -0.7285  0.4799
 7104SOL    HW227150   2.385  11.031   9.167 -0.9855 -1.0862 -2.5995
 7105SOL     OW27151   6.953   8.791  12.290 -0.0626  0.3233 -0.3419
 7105SOL    HW127152   6.965   8.768  12.382  1.5286  0.4059 -0.4984
 7105SOL    HW227153   6.978   8.711  12.243  0.5884  0.7534 -0.7375
 7106SOL     OW27154  12.002   1.296   3.082 -0.0613  0.0952 -0.4294
 7106SOL    HW127155  11.914   1.282   3.047  0.6973 -1.2443 -1.9733
 7106SOL    HW227156  11.991   1.300   3.177 -1.7088 -0.6940 -0.5603
 7107SOL     OW27157   4.631   1.630   1.971  0.2311 -0.6200 -0.3629
 7107SOL    HW127158   4.606   1.603   2.059  0.0967  1.6255  0.3581
 7107SOL    HW227159   4.560   1.689   1.943  0.7456 -0.5478 -1.5759
 7108SOL     OW27160  12.172   0.473   0.206 -0.1095  0.1581  0.2397
 7108SOL    HW127161  12.195   0.381   0.212 -0.2871  0.1790  1.5128
 7108SOL    HW227162  12.208   0.512   0.286 -0.3242  1.1232 -0.1200
 7109SOL     OW27163   3.846   1.288  10.650  0.5109 -0.0127  0.4628
 7109SOL    HW127164   3.852   1.379  10.679 -0.9682 -0.3812  2.0726
 7109SOL    HW227165   3.867   1.236  10.727 -0.5622 -1.0436  0.0924
 7110SOL     OW27166  11.470   9.573   4.233  0.1496 -0.1550  0.6650
 7110SOL    HW127167  11.453   9.661   4.199  0.8039 -0.6899 -1.1837
 7110SOL    HW227168  11.557   9.578   4.272  0.2903 -0.0465  0.3356
 7111SOL     OW27169   8.213   6.342   0.361 -0.3521 -0.1208 -0.4652
 7111SOL    HW127170   8.248   6.330   0.449 -0.9673  3.4335  0.4196
 7111SOL    HW227171   8.260   6.278   0.307 -0.3904 -2.8686  2.4617
 7112SOL     OW27172   5.552   5.602   2.463  0.4547 -0.2923  0.1750
 7112SOL    HW127173   5.579   5.691   2.487  0.5660 -0.4333  0.5778
 7112SOL    HW227174   5.594   5.587   2.379  1.9753 -0.6504  0.9634
 7113SOL     OW27175   0.852   6.485   8.871  0.0470  0.0944 -0.0831
 7113SOL    HW127176   0.890   6.402   8.898 -0.7176  0.3515  1.9762
 7113SOL    HW227177   0.815   6.522   8.952 -0.2178  2.1208 -1.0658
 7114SOL     OW27178   4.660   4.458   3.283  0.0892  0.2084  0.5356
 7114SOL    HW127179   4.619   4.387   3.332 -0.6269 -0.1779 -0.5836
 7114SOL    HW227180   4.647   4.434   3.191  0.9754  1.1472  0.1491
 7115SOL     OW27181   3.855   8.385   3.955  0.0354  0.6675 -0.0814
 7115SOL    HW127182   3.835   8.428   3.872 -1.0647  0.8330  0.2467
 7115SOL    HW227183   3.778   8.330   3.973  0.1754  0.7715  0.9063
 7116SOL     OW27184   6.478   5.621   2.872 -0.6135  0.1324 -0.5123
 7116SOL    HW127185   6.452   5.712   2.888 -2.6849 -0.5601  0.3359
 7116SOL    HW227186   6.570   5.618   2.899 -0.9944  1.5747  1.1387
 7117SOL     OW27187   7.107   8.787   3.607 -0.3105  0.3963 -0.4670
 7117SOL    HW127188   7.020   8.806   3.570 -0.2879  1.5408  0.0251
 7117SOL    HW227189   7.110   8.691   3.611 -1.8229  0.3423  0.1399
 7118SOL     OW27190   3.081   5.635   8.146 -0.2030  0.2486 -0.0583
 7118SOL    HW127191   3.068   5.725   8.175 -1.3389 -0.3730  1.5115
 7118SOL    HW227192   3.106   5.643   8.054 -0.5390  2.1448 -0.0290
 7119SOL     OW27193   0.269   0.235   4.047  0.1701  0.5999  0.2879
 7119SOL    HW127194   0.259   0.255   4.140 -0.8399  0.9227  0.1210
 7119SOL    HW227195   0.350   0.184   4.042  0.9055  1.6324  1.1762
 7120SOL     OW27196   1.699   5.347   5.990  0.0981  0.0428 -0.1356
 7120SOL    HW127197   1.686   5.397   5.910  0.7664 -0.9721 -0.8997
 7120SOL    HW227198   1.612   5.313   6.011  0.2960 -1.8088 -1.9117
 7121SOL     OW27199   7.680   1.297   5.049 -0.5005 -0.3286 -0.4059
 7121SOL    HW127200   7.610   1.330   4.992  0.5351 -0.3005 -1.7203
 7121SOL    HW227201   7.747   1.366   5.048 -0.9053  0.1691  1.7787
 7122SOL     OW27202  11.189   4.049   7.069 -0.4831 -0.4962 -0.2358
 7122SOL    HW127203  11.152   4.004   7.145  0.9449  0.7777  1.2780
 7122SOL    HW227204  11.260   3.992   7.040  0.1791 -0.1129  0.5811
 7123SOL     OW27205   3.187   4.455   8.837 -0.3744  0.1423  0.0220
 7123SOL    HW127206   3.238   4.536   8.841 -0.7061  0.4073 -0.9105
 7123SOL    HW227207   3.253   4.386   8.836 -0.0580  0.4416 -0.1306
 7124SOL     OW27208   3.467   7.625   1.619  0.2980 -0.0277  0.0360
 7124SOL    HW127209   3.390   7.607   1.673 -0.3924  1.4750 -0.3786
 7124SOL    HW227210   3.523   7.548   1.630 -1.2028 -1.1083  0.4297
 7125SOL     OW27211   9.601   9.947   0.490  0.5490 -0.3948  0.1088
 7125SOL    HW127212   9.632  10.018   0.434 -1.1983  0.2975 -0.0672
 7125SOL    HW227213   9.612   9.980   0.580 -0.1940  0.0865  0.0296
 7126SOL     OW27214   0.739   3.265   2.288 -0.0084  0.5557 -0.3012
 7126SOL    HW127215   0.646   3.252   2.269  0.1320  1.4002 -1.6998
 7126SOL    HW227216   0.762   3.194   2.347 -1.0702 -0.8902 -1.5556
 7127SOL     OW27217   1.196  11.206   5.532 -0.6032 -0.1148  0.3307
 7127SOL    HW127218   1.195  11.257   5.613  0.0340  0.0351  0.2458
 7127SOL    HW227219   1.159  11.121   5.556 -0.7037  0.0374  0.7072
 7128SOL     OW27220   3.785  11.804   8.692  0.1868 -0.4743 -0.0998
 7128SOL    HW127221   3.792  11.834   8.783 -2.2157  0.6199 -0.1631
 7128SOL    HW227222   3.813  11.880   8.640 -0.8709 -0.1412 -0.2293
 7129SOL     OW27223   5.011   9.629  11.538  0.6885 -0.0192 -0.1724
 7129SOL    HW127224   5.092   9.671  11.570 -0.1628  1.0551  0.6603
 7129SOL    HW227225   4.941   9.683  11.573 -0.4034 -0.7795 -1.1188
 7130SOL     OW27226   5.425   4.268   4.291  0.0228  0.4885  0.0329
 7130SOL    HW127227   5.494   4.201   4.287 -0.4164  0.0049  0.4790
 7130SOL    HW227228   5.459   4.333   4.351 -0.8950 -0.9160  2.1875
 7131SOL     OW27229   4.987  10.882   6.873  0.5615  0.0742  0.1685
 7131SOL    HW127230   5.075  10.851   6.852  0.2492  0.1563 -1.3975
 7131SOL    HW227231   4.992  10.977   6.861  0.1816  0.0404 -0.3031
 7132SOL     OW27232   4.744   5.971   6.767  0.1438  0.4175  0.2079
 7132SOL    HW127233   4.686   5.992   6.840  0.6930  1.1069  0.4615
 7132SOL    HW227234   4.686   5.944   6.696 -0.5287  1.5641  0.2926
 7133SOL     OW27235  10.303   2.396   4.244 -0.3688  0.5395 -0.4868
 7133SOL    HW127236  10.396   2.373   4.253 -0.6431 -0.4237 -0.0607
 7133SOL    HW227237  10.292   2.474   4.299 -0.4508 -1.0945  1.9655
 7134SOL     OW27238   6.752   9.639   4.586  0.0477  0.0283  0.0970
 7134SOL    HW127239   6.805   9.560   4.573  0.7771  0.4232  0.6406
 7134SOL    HW227240   6.676   9.626   4.529 -0.7100 -1.8398  1.4434
 7135SOL     OW27241   2.895   9.930  10.352 -0.6401  0.0798 -0.7543
 7135SOL    HW127242   2.929  10.000  10.407 -1.8699 -1.2515  1.8898
 7135SOL    HW227243   2.918   9.956  10.263  2.3930  1.8737  0.4003
 7136SOL     OW27244   2.904   6.037   4.423 -0.4105 -0.2493 -0.4458
 7136SOL    HW127245   2.957   6.034   4.503 -1.5989 -1.7918  0.3659
 7136SOL    HW227246   2.954   6.091   4.362  1.6327 -0.8905  0.5624
 7137SOL     OW27247   5.255  11.087   2.072  0.4082  0.5093  0.3651
 7137SOL    HW127248   5.223  11.062   1.986  0.0961 -0.2591  0.6921
 7137SOL    HW227249   5.340  11.043   2.079 -0.2945 -0.8079  1.0777
 7138SOL     OW27250  10.752   7.261   6.187 -0.8820  0.3668 -0.1653
 7138SOL    HW127251  10.783   7.247   6.276 -3.3832 -0.8745  0.6144
 7138SOL    HW227252  10.828   7.297   6.140  0.7618  0.2207  2.2062
 7139SOL     OW27253   2.220   5.794   2.007  0.1591  0.3484  0.1916
 7139SOL    HW127254   2.210   5.843   2.088 -0.8224 -0.3692  0.5208
 7139SOL    HW227255   2.131   5.782   1.975  0.4373 -0.5485 -0.2797
 7140SOL     OW27256   8.949  11.020   2.933  0.1942 -0.3487 -0.0119
 7140SOL    HW127257   8.912  10.940   2.971  0.9301 -0.7930 -0.2067
 7140SOL    HW227258   8.929  11.014   2.840 -0.5373  0.1404  0.1076
 7141SOL     OW27259  12.051  11.250  10.720  0.5389 -0.0213 -0.3134
 7141SOL    HW127260  11.972  11.233  10.669  0.8761  1.7670 -1.4982
 7141SOL    HW227261  12.103  11.310  10.666 -0.2555  4.1756  3.0567
 7142SOL     OW27262   0.728  11.470   5.097 -0.0460 -0.3092 -0.5434
 7142SOL    HW127263   0.661  11.496   5.033 -0.9060 -1.5072 -0.1756
 7142SOL    HW227264   0.736  11.546   5.155 -1.3195 -0.2345 -0.4241
 7143SOL     OW27265   0.340   7.436   5.038 -0.5715  0.0829 -0.0544
 7143SOL    HW127266   0.371   7.356   5.081 -1.3996 -0.2188 -0.0158
 7143SOL    HW227267   0.329   7.498   5.109 -0.3347  0.1023 -0.0336
 7144SOL     OW27268   4.493   5.007   8.354  0.5940  0.2456 -0.0768
 7144SOL    HW127269   4.573   4.954   8.352  0.1810 -0.4723  1.1110
 7144SOL    HW227270   4.422   4.944   8.367 -0.1489  0.9056 -0.7484
 7145SOL     OW27271  10.228   5.417   5.862 -0.4180  0.3157 -0.3873
 7145SOL    HW127272  10.181   5.339   5.833 -1.5300  1.2912 -1.3187
 7145SOL    HW227273  10.187   5.441   5.945 -0.7316  0.4639 -0.5859
 7146SOL     OW27274   5.436  12.292   3.394 -0.0447  0.4369 -0.0145
 7146SOL    HW127275   5.397  12.301   3.307 -0.8057  0.3344  0.3051
 7146SOL    HW227276   5.492  12.369   3.403 -2.3456  2.1597  0.5866
 7147SOL     OW27277  11.673   2.162  10.379 -0.1568  0.3714 -0.7237
 7147SOL    HW127278  11.639   2.213  10.452  0.2104 -1.4942  0.8286
 7147SOL    HW227279  11.608   2.175  10.309 -0.5773  2.1028 -0.0783
 7148SOL     OW27280   1.589  11.622   1.730 -0.1207 -0.2949 -0.3569
 7148SOL    HW127281   1.559  11.655   1.814 -1.2236 -0.8120 -0.5316
 7148SOL    HW227282   1.620  11.700   1.683 -1.1475  0.2595 -0.1432
 7149SOL     OW27283   2.381  11.211  12.197 -0.3168  0.3690 -0.7687
 7149SOL    HW127284   2.379  11.219  12.102  1.3950 -1.7793 -1.0681
 7149SOL    HW227285   2.458  11.260  12.223  0.6288 -1.0350 -0.8102
 7150SOL     OW27286   4.757   1.115  11.349  0.0861 -0.1050  0.0481
 7150SOL    HW127287   4.833   1.120  11.407  0.4682 -1.7833 -0.2747
 7150SOL    HW227288   4.793   1.122  11.261 -0.3097  0.5462 -0.0752
 7151SOL     OW27289   8.865  11.286   9.674  0.8049  0.1520  0.2498
 7151SOL    HW127290   8.788  11.303   9.620  0.2694 -0.2961  0.8575
 7151SOL    HW227291   8.861  11.193   9.693  1.9064 -0.0137 -0.3198
 7152SOL     OW27292   5.141  11.863   4.387 -0.0753  0.0609 -0.1437
 7152SOL    HW127293   5.216  11.914   4.355  0.2595 -0.5691 -0.3711
 7152SOL    HW227294   5.101  11.919   4.454  1.8317 -0.4738  1.5159
 7153SOL     OW27295  10.192   8.691   0.446  0.0500  0.1654 -0.8305
 7153SOL    HW127296  10.108   8.692   0.492 -0.0439 -1.3460 -0.9260
 7153SOL    HW227297  10.173   8.730   0.361  0.0122  2.0756 -0.0080
 7154SOL     OW27298   9.913  12.298  11.695 -0.0485 -0.2106  0.0451
 7154SOL    HW127299   9.882  12.361  11.630  0.0297 -0.4355 -0.2111
 7154SOL    HW227300   9.878  12.330  11.778 -1.7014 -0.9016 -0.3255
 7155SOL     OW27301   5.315  11.664   9.144 -0.1330  0.4736 -0.1825
 7155SOL    HW127302   5.259  11.737   9.171  0.6917  1.2930 -0.6284
 7155SOL    HW227303   5.296  11.652   9.051  0.6668  0.9904 -0.4241
 7156SOL     OW27304   3.412  10.918  12.042 -0.0831 -0.1001 -0.6870
 7156SOL    HW127305   3.323  10.881  12.049 -0.1853  0.0019 -1.4258
 7156SOL    HW227306   3.399  11.002  11.999  0.3517  0.0131 -0.5939
 7157SOL     OW27307   3.459   4.286   4.218  0.1948  0.3361  0.1213
 7157SOL    HW127308   3.517   4.229   4.167  0.2700  0.2236  0.3317
 7157SOL    HW227309   3.497   4.373   4.208  0.0987  0.3480 -0.1732
 7158SOL     OW27310  11.138   1.765   0.076  0.0167 -0.4660  0.2751
 7158SOL    HW127311  11.146   1.681   0.121 -2.3195 -0.1285  1.4883
 7158SOL    HW227312  11.086   1.745  -0.002  0.8444 -0.4061 -0.2991
 7159SOL     OW27313   4.142   2.452   2.657 -0.0027  0.1357 -0.1577
 7159SOL    HW127314   4.085   2.481   2.586 -0.0097 -0.0204 -0.2155
 7159SOL    HW227315   4.083   2.416   2.723 -0.1445  1.6810  0.6213
 7160SOL     OW27316   2.804  11.502  10.779 -0.2760 -0.3532 -0.0432
 7160SOL    HW127317   2.732  11.442  10.759  0.2920 -1.3276  0.7319
 7160SOL    HW227318   2.882  11.456  10.747  0.2172 -0.2555  0.9907
 7161SOL     OW27319   4.388   0.425  12.263 -0.2869  0.4422  0.6420
 7161SOL    HW127320   4.362   0.428  12.355 -2.0090 -0.3447  0.2381
 7161SOL    HW227321   4.310   0.392  12.218  1.7965 -3.4365 -0.5551
 7162SOL     OW27322   3.061   5.046   5.321  0.4270  0.7375 -0.2763
 7162SOL    HW127323   3.045   4.985   5.393  2.4607  0.6337  0.1430
 7162SOL    HW227324   2.988   5.109   5.326  0.0148  0.1812  1.2750
 7163SOL     OW27325  11.823   1.908   7.495  0.5273 -0.0628  0.5023
 7163SOL    HW127326  11.778   1.907   7.411  0.5526 -0.7628  0.4919
 7163SOL    HW227327  11.916   1.901   7.472  0.4281 -2.9492  0.6356
 7164SOL     OW27328   9.490   4.879  11.390  0.4495 -0.1865  0.1609
 7164SOL    HW127329   9.438   4.953  11.421  0.0345 -0.2300 -0.3899
 7164SOL    HW227330   9.580   4.902  11.408  0.3382  0.5452 -0.1781
 7165SOL     OW27331   5.428   3.670  11.731  0.1900  0.3979 -0.2096
 7165SOL    HW127332   5.352   3.672  11.673 -0.2817 -2.6819  0.1593
 7165SOL    HW227333   5.396   3.631  11.812  1.8212  0.4622  0.5105
 7166SOL     OW27334   4.096   7.494   6.501  0.2177  0.6848  0.5634
 7166SOL    HW127335   4.155   7.499   6.426 -3.4581  2.2046 -2.5385
 7166SOL    HW227336   4.067   7.403   6.503 -0.7744  0.9243 -0.9503
 7167SOL     OW27337  12.176   7.813   4.370  0.1809 -0.1908 -0.1225
 7167SOL    HW127338  12.198   7.719   4.373  0.6491 -0.1077 -0.7964
 7167SOL    HW227339  12.240   7.850   4.310 -0.4705  0.4409 -0.4269
 7168SOL     OW27340   6.504   4.967   1.126  0.3753  0.4768  0.1898
 7168SOL    HW127341   6.523   5.052   1.085  1.8565  0.1055  0.0445
 7168SOL    HW227342   6.573   4.957   1.192  0.4469 -0.7862 -0.0640
 7169SOL     OW27343   0.976   1.157   1.662 -0.3581  0.4931 -0.1532
 7169SOL    HW127344   0.972   1.183   1.755  1.5459 -0.2874  0.2006
 7169SOL    HW227345   0.957   1.238   1.614  0.9623  1.5155  0.9391
 7170SOL     OW27346   0.639  12.076   4.880 -0.3557 -0.3067 -0.4524
 7170SOL    HW127347   0.702  12.007   4.858  1.6885  1.0747  0.7845
 7170SOL    HW227348   0.640  12.134   4.804 -0.9197 -0.7935 -0.8452
 7171SOL     OW27349   3.144   4.782   7.369 -0.4189 -0.6349 -0.2280
 7171SOL    HW127350   3.233   4.816   7.376 -1.2194  1.3559  1.2836
 7171SOL    HW227351   3.127   4.742   7.455 -0.0809 -3.6669 -1.4275
 7172SOL     OW27352   6.104   7.344   1.664  0.1872  0.8259 -0.4585
 7172SOL    HW127353   6.148   7.424   1.691  1.4112  0.0239  0.0188
 7172SOL    HW227354   6.046   7.371   1.593  0.2212  2.2007  0.0081
 7173SOL     OW27355   7.473   1.681   5.897 -0.2965 -0.1999 -0.2409
 7173SOL    HW127356   7.384   1.674   5.861 -0.5869 -1.3339  0.6585
 7173SOL    HW227357   7.503   1.591   5.904  0.1981  0.0584  1.2330
 7174SOL     OW27358   4.167   1.651   1.747  0.0133  0.0526 -0.1049
 7174SOL    HW127359   4.090   1.605   1.713  0.0489  0.8548 -1.3471
 7174SOL    HW227360   4.239   1.589   1.734 -0.2353 -0.2616 -0.0036
 7175SOL     OW27361  10.997   4.051   5.302  0.5816  0.0170  0.2586
 7175SOL    HW127362  10.902   4.064   5.308  0.3744 -1.0262 -0.5495
 7175SOL    HW227363  11.028   4.060   5.392 -0.7603 -2.9626  1.1199
 7176SOL     OW27364   4.542   9.376   6.402 -0.3856  0.2750  0.3139
 7176SOL    HW127365   4.616   9.337   6.449 -1.0068 -0.0098  1.0624
 7176SOL    HW227366   4.560   9.357   6.310  0.0383 -0.5433  0.5561
 7177SOL     OW27367  11.880   3.352   0.672 -0.4363 -0.3741  0.4812
 7177SOL    HW127368  11.877   3.266   0.629 -0.0841 -0.0735 -0.1655
 7177SOL    HW227369  11.953   3.397   0.628  0.2028 -0.1995  1.6842
 7178SOL     OW27370   4.109   2.460   5.158 -0.0665 -0.0592 -0.2040
 7178SOL    HW127371   4.041   2.441   5.223  0.0053 -0.0399 -0.1222
 7178SOL    HW227372   4.067   2.444   5.074  0.3971 -2.0030 -0.1137
 7179SOL     OW27373   0.514   8.063   1.193 -0.3826 -0.2494  0.0345
 7179SOL    HW127374   0.519   8.022   1.279 -1.8436  0.8955  0.7170
 7179SOL    HW227375   0.559   8.002   1.135 -0.3371 -1.5979  1.4143
 7180SOL     OW27376   8.374   3.327   4.425 -0.0542 -0.1742  0.2711
 7180SOL    HW127377   8.287   3.347   4.461  0.3405 -1.7669  2.2608
 7180SOL    HW227378   8.406   3.255   4.479  2.1977 -0.1443 -0.9363
 7181SOL     OW27379   4.128   6.796   2.286  0.4748  0.0856  0.0123
 7181SOL    HW127380   4.055   6.790   2.347  0.3216 -0.7708 -0.2364
 7181SOL    HW227381   4.168   6.709   2.289  0.4242  0.0130 -1.1495
 7182SOL     OW27382  12.313   3.191  10.140  0.8188  0.1147  0.3455
 7182SOL    HW127383  12.333   3.277  10.175  0.5584  0.7284 -0.9547
 7182SOL    HW227384  12.343   3.194  10.049  2.1206 -1.6508  0.6614
 7183SOL     OW27385   2.840   0.599   2.414  0.5233  0.6900  0.4643
 7183SOL    HW127386   2.873   0.681   2.377  1.8283 -0.3417 -0.7612
 7183SOL    HW227387   2.755   0.622   2.450  0.5617  2.4465 -0.4483
 7184SOL     OW27388   2.458   4.597   3.561  0.3402 -0.2731 -0.0443
 7184SOL    HW127389   2.377   4.648   3.560  0.8345  0.5211 -0.7335
 7184SOL    HW227390   2.472   4.577   3.654 -0.5974 -0.3570  0.0894
 7185SOL     OW27391   0.180   8.507   3.065 -0.1310 -0.5130  1.2155
 7185SOL    HW127392   0.250   8.571   3.055 -0.1159 -0.3813  2.0527
 7185SOL    HW227393   0.215   8.443   3.127 -0.1162 -1.3805  0.3248
 7186SOL     OW27394  10.039   5.847   9.094  0.7628 -0.1003  0.4047
 7186SOL    HW127395  10.011   5.792   9.020  2.2562 -1.1115  0.5504
 7186SOL    HW227396  10.074   5.785   9.158  0.8824  0.8896  1.3137
 7187SOL     OW27397   7.488  11.452  10.759 -0.0962  0.0088  0.3314
 7187SOL    HW127398   7.487  11.458  10.664  2.6764 -0.9785  0.1368
 7187SOL    HW227399   7.581  11.452  10.782 -0.6444 -1.0288  2.9422
 7188SOL     OW27400   5.855   6.488  11.570  0.1454  0.2633 -0.8327
 7188SOL    HW127401   5.844   6.524  11.482 -0.0682  0.2024 -0.8303
 7188SOL    HW227402   5.896   6.558  11.620 -0.5374  0.6081 -0.7479
 7189SOL     OW27403   0.483  11.511   5.758  0.0461 -0.2951  0.6261
 7189SOL    HW127404   0.395  11.534   5.728  0.3498  0.5740  0.3716
 7189SOL    HW227405   0.527  11.478   5.679  0.0026 -0.5878  0.7214
 7190SOL     OW27406   7.229  11.776   4.390 -0.5459 -0.1884  0.8584
 7190SOL    HW127407   7.324  11.787   4.387 -0.2170 -2.4894  0.8662
 7190SOL    HW227408   7.207  11.784   4.482  0.0141 -1.8767  1.1766
 7191SOL     OW27409   8.785   8.085   8.485 -0.0306  0.6061 -0.7625
 7191SOL    HW127410   8.767   8.159   8.543  0.1058  0.1800 -0.1715
 7191SOL    HW227411   8.880   8.085   8.475  0.0530 -0.0306 -0.0317
 7192SOL     OW27412   2.260   8.213   7.036 -0.1452  0.3182 -1.0172
 7192SOL    HW127413   2.350   8.241   7.017 -0.5297  0.9617 -2.0014
 7192SOL    HW227414   2.215   8.293   7.065 -0.0875 -0.2635  0.8035
 7193SOL     OW27415  10.810   4.488  11.214  0.3784 -0.5042  0.0639
 7193SOL    HW127416  10.791   4.438  11.293 -1.8788 -3.4109 -2.0761
 7193SOL    HW227417  10.875   4.435  11.167  0.6426  0.4298 -0.6558
 7194SOL     OW27418  12.278  12.206  11.416 -0.2417 -0.3893  0.0656
 7194SOL    HW127419  12.246  12.127  11.459 -1.2249 -0.0178  0.0286
 7194SOL    HW227420  12.270  12.187  11.322  1.6687 -1.1016 -0.0126
 7195SOL     OW27421   1.663   9.482  11.703 -0.0181  0.5048  0.4580
 7195SOL    HW127422   1.740   9.493  11.646 -0.9389 -0.2598 -1.0056
 7195SOL    HW227423   1.656   9.387  11.714  0.8704  0.6551  2.9713
 7196SOL     OW27424   1.436   9.199   6.614  0.1167  0.8183 -0.1459
 7196SOL    HW127425   1.383   9.257   6.560 -0.3942  0.1439 -0.3855
 7196SOL    HW227426   1.509   9.172   6.558 -0.1299  0.5311 -0.3303
 7197SOL     OW27427  12.079   6.835   7.205  0.6793 -0.3363 -0.0233
 7197SOL    HW127428  12.035   6.896   7.145  0.6278  0.7001  1.0206
 7197SOL    HW227429  12.162   6.879   7.226  1.0023 -1.0081  0.1299
 7198SOL     OW27430   2.905   7.970   9.435 -0.6056  0.4325 -0.5678
 7198SOL    HW127431   2.886   8.008   9.349 -0.0054 -0.3314 -1.0538
 7198SOL    HW227432   3.001   7.964   9.438 -0.5747  1.2532  0.5173
 7199SOL     OW27433  11.398   8.213   3.910 -0.3372 -0.1254  0.2703
 7199SOL    HW127434  11.335   8.285   3.918  1.6110  1.7140  0.1284
 7199SOL    HW227435  11.375   8.169   3.828 -0.6741  1.3237 -0.4439
 7200SOL     OW27436   0.135  12.156   2.561 -0.0601  0.4038  0.3559
 7200SOL    HW127437   0.128  12.222   2.630 -1.7684  0.4386  0.1831
 7200SOL    HW227438   0.178  12.082   2.605  0.8375  1.2022  0.8557
 7201SOL     OW27439   0.136   3.020   4.274  0.0551 -0.0999 -0.0608
 7201SOL    HW127440   0.162   3.047   4.362 -0.9414  1.4921 -0.2269
 7201SOL    HW227441   0.056   2.969   4.286  1.2000 -1.9832  0.1210
 7202SOL     OW27442   4.120   2.609   5.797  0.3259 -0.2781 -0.4339
 7202SOL    HW127443   4.105   2.701   5.819 -0.4811 -0.6012  0.4212
 7202SOL    HW227444   4.080   2.598   5.711  1.4508  0.4315 -1.0830
 7203SOL     OW27445   9.094   8.719   7.806  0.1174 -0.6207 -0.3344
 7203SOL    HW127446   9.029   8.766   7.858  0.0318  0.1323 -1.1064
 7203SOL    HW227447   9.047   8.643   7.772  0.4314 -1.6563  1.4585
 7204SOL     OW27448   9.895   1.164   4.891  0.5998 -0.1802  0.5664
 7204SOL    HW127449   9.865   1.161   4.800  2.3921 -0.5302 -0.0353
 7204SOL    HW227450   9.972   1.220   4.890  1.9594 -1.9535  1.4575
 7205SOL     OW27451  11.930   8.242   7.436 -0.2867  0.0909  0.2169
 7205SOL    HW127452  11.983   8.164   7.421 -2.2646 -1.0360 -1.3000
 7205SOL    HW227453  11.994   8.312   7.450  1.5798 -1.2379 -1.2126
 7206SOL     OW27454  10.343   6.509   9.566 -0.6646 -0.4055 -0.1954
 7206SOL    HW127455  10.297   6.488   9.648 -0.1774 -1.6086 -0.2049
 7206SOL    HW227456  10.434   6.519   9.592 -0.8645  1.9712 -0.1764
 7207SOL     OW27457  11.939   6.597   3.849 -0.9470  0.1570  0.3906
 7207SOL    HW127458  11.919   6.504   3.852  0.5406 -0.2021  3.4502
 7207SOL    HW227459  11.856   6.640   3.865 -1.4357 -0.6946  0.1956
 7208SOL     OW27460   4.178   6.606   4.058 -0.1924 -0.0268  0.0231
 7208SOL    HW127461   4.182   6.540   4.127  1.7914 -1.1454 -1.0656
 7208SOL    HW227462   4.186   6.689   4.104 -3.7534 -0.3257  1.5294
 7209SOL     OW27463   6.029  10.002   5.713  0.2143  0.2243 -0.0168
 7209SOL    HW127464   6.103   9.985   5.655  0.4576 -0.1607  0.3991
 7209SOL    HW227465   5.999   9.916   5.741 -1.0637  0.3206 -0.9903
 7210SOL     OW27466  10.501   3.910   5.638  0.5269 -0.5984 -0.0604
 7210SOL    HW127467  10.448   3.840   5.602 -0.1332 -1.3823  2.2624
 7210SOL    HW227468  10.591   3.878   5.630  0.3684 -0.9044 -0.6591
 7211SOL     OW27469   5.230   1.595   5.262 -0.1796  0.1790  0.3942
 7211SOL    HW127470   5.168   1.615   5.192  1.3282  1.2048 -0.6976
 7211SOL    HW227471   5.223   1.500   5.273 -0.8877  0.0909 -0.6999
 7212SOL     OW27472  10.906  11.627   6.339 -0.6287  0.1992 -0.4151
 7212SOL    HW127473  10.897  11.532   6.330 -2.0598  0.3174 -0.4835
 7212SOL    HW227474  10.968  11.652   6.271 -0.9548 -0.5786 -1.0180
 7213SOL     OW27475   2.672   6.585   2.592  0.0403 -0.3377  0.1145
 7213SOL    HW127476   2.607   6.529   2.550  0.0343 -1.0371  1.0155
 7213SOL    HW227477   2.651   6.581   2.686  1.3289 -0.5505  0.4285
 7214SOL     OW27478   6.817   7.914   5.190  0.6017 -0.6945  0.3853
 7214SOL    HW127479   6.879   7.960   5.246  1.5340 -0.7468 -0.5793
 7214SOL    HW227480   6.739   7.970   5.190  0.8647 -0.3144  1.1053
 7215SOL     OW27481   0.835   1.242   0.428 -0.6568  0.5098 -0.1302
 7215SOL    HW127482   0.830   1.331   0.462  0.4693  0.4526  0.2463
 7215SOL    HW227483   0.848   1.252   0.334 -0.2142  0.7545 -0.0443
 7216SOL     OW27484  10.361   7.527   1.229  0.1942 -0.1033 -0.3330
 7216SOL    HW127485  10.357   7.446   1.179  2.2348 -0.7031  0.3717
 7216SOL    HW227486  10.361   7.596   1.163 -1.0090 -0.6910 -0.9634
 7217SOL     OW27487   3.209   7.959   0.728  0.7607  0.9359 -0.8939
 7217SOL    HW127488   3.287   7.947   0.674  0.1550  2.0493 -2.0715
 7217SOL    HW227489   3.190   7.872   0.763  1.7943  0.4001 -1.6172
 7218SOL     OW27490   8.539   9.251   6.356  0.3469 -0.2322  0.1366
 7218SOL    HW127491   8.529   9.234   6.262 -0.5215  0.0017  0.1782
 7218SOL    HW227492   8.547   9.346   6.363 -0.8301 -0.1373  0.3884
 7219SOL     OW27493   7.833  11.390   0.136 -0.2992 -0.5642  0.8681
 7219SOL    HW127494   7.883  11.470   0.121 -0.8079 -0.4018 -0.0430
 7219SOL    HW227495   7.875  11.325   0.081 -1.1489 -0.3924 -0.0134
 7220SOL     OW27496   9.484   7.443   0.464 -0.3126 -0.6632 -0.0495
 7220SOL    HW127497   9.518   7.523   0.504  0.9768 -1.5637  0.7489
 7220SOL    HW227498   9.509   7.449   0.372  0.7510 -0.6241  0.2278
 7221SOL     OW27499   0.122  10.578   2.907  0.2919 -0.0800  0.1339
 7221SOL    HW127500   0.185  10.524   2.955 -0.2319 -1.6682 -0.8939
 7221SOL    HW227501   0.036  10.548   2.937 -0.0612 -1.3297 -1.9048
 7222SOL     OW27502   5.534   7.488   2.604 -0.1823  0.1160 -0.4895
 7222SOL    HW127503   5.509   7.577   2.628 -1.4052 -0.4927  0.6744
 7222SOL    HW227504   5.474   7.464   2.534 -1.8495 -0.7260  1.1143
 7223SOL     OW27505  12.325  10.337   9.631  0.3294 -0.7593 -0.4545
 7223SOL    HW127506  12.395  10.280   9.598  0.4075 -0.9429  0.0286
 7223SOL    HW227507  12.271  10.281   9.685 -0.3055 -0.6571 -0.9683
 7224SOL     OW27508   7.328   7.864   0.666 -0.1108 -0.2511 -0.6110
 7224SOL    HW127509   7.373   7.948   0.675 -0.5504 -0.0246 -0.5277
 7224SOL    HW227510   7.344   7.819   0.749 -0.2540 -0.0666 -0.4839
 7225SOL     OW27511  11.922   9.478  10.281 -0.8427  0.1435  0.1100
 7225SOL    HW127512  11.977   9.554  10.304  0.0134 -0.0102 -1.3303
 7225SOL    HW227513  11.856   9.476  10.350 -1.2775  2.5831 -0.1170
 7226SOL     OW27514   1.687   0.432   3.871 -0.1208 -0.4730 -0.0352
 7226SOL    HW127515   1.702   0.521   3.904 -2.1228 -0.4237  0.9239
 7226SOL    HW227516   1.695   0.440   3.776  0.7866  0.4954  0.0985
 7227SOL     OW27517   1.062   6.067  11.556  0.4506  0.5391 -0.0127
 7227SOL    HW127518   1.133   6.005  11.538  0.3753  0.7472 -1.0885
 7227SOL    HW227519   1.095   6.152  11.528 -0.6276  0.4561 -1.7048
 7228SOL     OW27520   6.201  10.033   4.940 -0.6272  0.0323  0.6647
 7228SOL    HW127521   6.121   9.992   4.907  0.3571 -0.3910 -1.3061
 7228SOL    HW227522   6.186  10.127   4.927 -0.9134 -0.0209  0.5966
 7229SOL     OW27523   9.068   9.341   7.347  0.3339  0.3980 -0.2768
 7229SOL    HW127524   9.027   9.414   7.392  1.0502  1.0281 -0.6161
 7229SOL    HW227525   9.044   9.264   7.398  0.1520  0.9578  0.4920
 7230SOL     OW27526   7.615  11.747   3.608 -0.2098 -0.2250 -0.0850
 7230SOL    HW127527   7.585  11.830   3.646 -0.1887 -0.4583  0.4564
 7230SOL    HW227528   7.624  11.689   3.683 -0.8268 -0.9121 -0.5396
 7231SOL     OW27529  12.108  11.742   3.356 -0.3955  0.1533  0.7386
 7231SOL    HW127530  12.030  11.795   3.340 -1.3102 -0.8163  1.7132
 7231SOL    HW227531  12.181  11.794   3.324 -1.3382  1.6155  0.8977
 7232SOL     OW27532   1.770   0.622   1.354  0.4431  0.4692  0.2654
 7232SOL    HW127533   1.703   0.609   1.288 -0.0971  0.3981  0.8145
 7232SOL    HW227534   1.734   0.580   1.433  0.5107  1.6421  0.9404
 7233SOL     OW27535   9.626  10.400   5.416 -0.7454 -0.3339 -0.1726
 7233SOL    HW127536   9.652  10.341   5.345 -1.0654 -0.2939 -0.3217
 7233SOL    HW227537   9.620  10.343   5.493 -1.5063 -0.5893 -0.4093
 7234SOL     OW27538  10.244   8.629   4.731 -0.3446  0.4713  0.3172
 7234SOL    HW127539  10.170   8.599   4.784  0.5221  1.2134  2.0502
 7234SOL    HW227540  10.285   8.697   4.784  2.6073 -1.1047  0.2945
 7235SOL     OW27541   3.328   6.117   6.883 -0.1786  0.0658  0.2734
 7235SOL    HW127542   3.335   6.212   6.875 -0.7961  0.0620 -0.3691
 7235SOL    HW227543   3.363   6.083   6.801  1.1888 -0.3313  0.9811
 7236SOL     OW27544   3.121  11.859   5.751 -0.0401 -0.3973 -0.5840
 7236SOL    HW127545   3.064  11.787   5.775 -0.4115 -0.1803 -0.8063
 7236SOL    HW227546   3.069  11.938   5.767 -0.1154 -0.2292 -1.5950
 7237SOL     OW27547  11.396   2.302   8.459  0.1363  0.3240  0.1130
 7237SOL    HW127548  11.439   2.354   8.528  0.2319  0.8569 -0.3418
 7237SOL    HW227549  11.303   2.311   8.478  0.1760  0.1002  0.4320
 7238SOL     OW27550   7.701   4.980   2.333  0.5839  0.1468  0.4067
 7238SOL    HW127551   7.665   5.065   2.357 -1.0053 -0.5504  0.5683
 7238SOL    HW227552   7.642   4.946   2.266  2.5781  0.2092 -1.5260
 7239SOL     OW27553   2.769   8.924   9.751 -0.3209 -0.6251  0.1793
 7239SOL    HW127554   2.751   8.838   9.712  0.1280 -0.9815  0.7361
 7239SOL    HW227555   2.712   8.927   9.828  0.3380 -0.8141  0.6792
 7240SOL     OW27556  10.714   6.014   8.191 -0.2942  0.3394  0.5717
 7240SOL    HW127557  10.710   6.085   8.256 -2.4093  1.6596 -0.8814
 7240SOL    HW227558  10.772   6.047   8.123  1.0082 -0.5766  1.1949
 7241SOL     OW27559  11.183  12.276   7.092  0.1115  0.0298 -0.2725
 7241SOL    HW127560  11.230  12.211   7.040 -1.1906  0.0261 -1.5446
 7241SOL    HW227561  11.098  12.283   7.048 -0.6386  0.8632  1.2435
 7242SOL     OW27562   4.045   1.435   8.636  0.2459 -0.2749 -0.1078
 7242SOL    HW127563   4.058   1.403   8.547  1.3873 -0.0514 -0.0468
 7242SOL    HW227564   4.095   1.374   8.691  1.0820  0.6278  0.1723
 7243SOL     OW27565   5.454   4.066   8.740 -0.1974  0.0856 -0.4444
 7243SOL    HW127566   5.433   4.111   8.658  1.7780  1.1378 -0.4256
 7243SOL    HW227567   5.379   4.084   8.796 -0.8307  0.7835 -1.4701
 7244SOL     OW27568   7.265   8.762   0.766  0.2386  0.2789 -0.1979
 7244SOL    HW127569   7.242   8.840   0.817  1.3929  1.0799 -0.8480
 7244SOL    HW227570   7.343   8.788   0.716 -1.1447 -0.2597 -2.7974
 7245SOL     OW27571   5.348   2.405   4.151  0.0009  0.5714 -0.2650
 7245SOL    HW127572   5.429   2.409   4.203  0.3342  1.8786 -0.8456
 7245SOL    HW227573   5.344   2.490   4.107 -2.1608  0.8892  0.4509
 7246SOL     OW27574   8.906   3.461   8.425  0.5513  0.2243  0.4628
 7246SOL    HW127575   8.879   3.403   8.353 -1.5906  2.3762 -0.5762
 7246SOL    HW227576   8.972   3.518   8.386 -0.4256  1.2242  0.2318
 7247SOL     OW27577   2.118   8.370   6.492 -0.6025  0.9070 -0.0306
 7247SOL    HW127578   2.162   8.346   6.411 -3.2545 -0.0131 -1.3305
 7247SOL    HW227579   2.131   8.294   6.550  0.3233  1.0809  0.0024
 7248SOL     OW27580   5.361   8.350   2.090  0.6036 -0.4547 -0.5017
 7248SOL    HW127581   5.364   8.437   2.129  0.0428 -0.3960 -0.5752
 7248SOL    HW227582   5.330   8.294   2.161  2.8973 -0.9708  0.1669
 7249SOL     OW27583   6.245  12.096   7.241 -0.6277  0.0529 -0.3184
 7249SOL    HW127584   6.229  12.006   7.212  0.0350 -1.0285  2.3075
 7249SOL    HW227585   6.185  12.149   7.190 -1.3754 -1.9457 -1.6281
 7250SOL     OW27586   6.054  11.290  12.189 -0.1054 -0.0760 -0.1160
 7250SOL    HW127587   6.022  11.239  12.114 -0.4365 -0.7230  0.4507
 7250SOL    HW227588   6.133  11.333  12.156  0.6386 -1.5762 -0.4067
 7251SOL     OW27589  11.904   3.675  11.694  0.1954 -0.0268  0.0763
 7251SOL    HW127590  11.926   3.585  11.675 -2.3012 -0.9299  0.9900
 7251SOL    HW227591  11.808   3.679  11.686 -0.5922  0.9471  5.6407
 7252SOL     OW27592   8.559   3.585  11.680  0.3662  0.1640 -0.0449
 7252SOL    HW127593   8.589   3.542  11.760  0.0866  0.6536  0.3285
 7252SOL    HW227594   8.529   3.671  11.709  1.8095  0.9915 -0.9222
 7253SOL     OW27595  10.073   2.083   7.196 -0.2392  0.1557 -0.1371
 7253SOL    HW127596  10.147   2.084   7.257 -0.2177  0.4311 -0.1673
 7253SOL    HW227597  10.112   2.102   7.111 -0.3542  0.3693 -0.1424
 7254SOL     OW27598   0.664  11.129   6.921 -0.8483 -0.1647 -0.2903
 7254SOL    HW127599   0.589  11.114   6.978 -1.1586 -1.9889 -1.1069
 7254SOL    HW227600   0.646  11.075   6.844  1.2187 -0.5198 -0.5671
 7255SOL     OW27601   3.479   4.149   8.146  0.6888  0.0347  0.4077
 7255SOL    HW127602   3.409   4.175   8.206 -0.1312 -0.1119 -0.4656
 7255SOL    HW227603   3.458   4.192   8.064  0.8707 -1.1190 -0.2588
 7256SOL     OW27604   8.999   9.663   4.814  0.3713  0.3426  0.3251
 7256SOL    HW127605   9.051   9.644   4.892 -2.0643 -1.9239  1.5456
 7256SOL    HW227606   8.965   9.751   4.828  0.3487  0.1445  1.6048
 7257SOL     OW27607   9.054   0.525   1.306  0.2428 -0.4343  0.4716
 7257SOL    HW127608   9.093   0.556   1.225 -0.9359 -1.0435 -0.3491
 7257SOL    HW227609   9.007   0.601   1.341 -1.2058 -0.7878 -0.6479
 7258SOL     OW27610   2.108   6.222   7.989  0.0293 -0.0987  0.6091
 7258SOL    HW127611   2.061   6.270   8.056 -0.8925  1.5012 -1.0943
 7258SOL    HW227612   2.052   6.147   7.969 -0.0766 -0.1421  1.0671
 7259SOL     OW27613   3.718  10.046   2.143  0.9450 -0.1755  0.1394
 7259SOL    HW127614   3.749  10.097   2.217  0.4408  0.5638 -0.1497
 7259SOL    HW227615   3.680   9.967   2.182 -0.0726  0.5948  0.7358
 7260SOL     OW27616   1.733   5.776   5.192 -0.0893  0.6070  0.5323
 7260SOL    HW127617   1.725   5.683   5.213 -0.6602  0.7185  0.8205
 7260SOL    HW227618   1.821   5.799   5.221  0.0837  0.1415  0.3920
 7261SOL     OW27619   3.086   5.914   8.191  0.5018  0.0187  0.2481
 7261SOL    HW127620   3.010   5.951   8.146  1.4700  1.2503 -0.4657
 7261SOL    HW227621   3.114   5.984   8.250 -0.0558 -1.1495  1.9846
 7262SOL     OW27622  10.321   2.078   2.900  0.6758  0.4392 -0.1670
 7262SOL    HW127623  10.311   2.119   2.814  0.7270  1.9383  0.5105
 7262SOL    HW227624  10.406   2.108   2.932  1.8473 -2.1032 -0.5819
 7263SOL     OW27625  10.900   2.712   1.218 -0.0090 -0.1077 -0.3681
 7263SOL    HW127626  10.834   2.646   1.195 -0.2705 -0.5297  1.4827
 7263SOL    HW227627  10.926   2.690   1.307  0.7852  1.5947 -0.1468
 7264SOL     OW27628   8.091   1.612   8.086 -0.3183 -0.2823 -0.3798
 7264SOL    HW127629   8.105   1.593   8.178 -0.3778  0.8757 -0.1194
 7264SOL    HW227630   8.075   1.526   8.046  1.8463 -1.0534  0.2763
 7265SOL     OW27631   4.639   9.552   8.230 -0.4665 -0.0058 -0.4537
 7265SOL    HW127632   4.660   9.641   8.259 -0.1366 -0.1914 -0.1122
 7265SOL    HW227633   4.612   9.562   8.139 -0.1861  0.4087 -0.4917
 7266SOL     OW27634   4.090   0.450   5.218 -0.6463  0.3194  0.3955
 7266SOL    HW127635   4.072   0.423   5.308 -0.5887  0.1245  0.3477
 7266SOL    HW227636   4.106   0.544   5.224  0.4600  0.1288  0.7533
 7267SOL     OW27637   8.107   7.410   2.375  0.4751  0.1093 -0.3162
 7267SOL    HW127638   8.108   7.335   2.434 -0.6619 -0.4272 -0.9423
 7267SOL    HW227639   8.062   7.478   2.425 -1.1529 -0.5720 -0.7786
 7268SOL     OW27640   8.423   1.972   9.710  0.4208  0.4468  0.0675
 7268SOL    HW127641   8.456   2.014   9.630  1.1299 -0.0367  0.0961
 7268SOL    HW227642   8.418   2.043   9.774  3.3686  0.2386  0.6685
 7269SOL     OW27643   0.278   7.015   6.070 -0.0271 -0.3076  0.1022
 7269SOL    HW127644   0.277   7.093   6.125 -0.9074  0.4401 -0.9555
 7269SOL    HW227645   0.224   7.037   5.995 -0.3934 -1.9798 -0.1662
 7270SOL     OW27646   3.570  12.098   1.026  0.3875  0.0679 -0.3830
 7270SOL    HW127647   3.497  12.058   0.979  1.0012  1.5043 -2.7193
 7270SOL    HW227648   3.570  12.189   0.997  3.0074  0.1453 -0.3767
 7271SOL     OW27649  11.085   7.571   0.069 -0.0916  0.0647 -0.4449
 7271SOL    HW127650  11.178   7.582   0.088 -0.4741  2.4904  0.3158
 7271SOL    HW227651  11.077   7.594  -0.024 -0.2633  2.5937  0.1366
 7272SOL     OW27652   9.815   2.076  12.111  0.3560  0.3787 -0.3913
 7272SOL    HW127653   9.778   2.125  12.185 -0.8900  2.6511 -2.3748
 7272SOL    HW227654   9.903   2.112  12.100  1.0049 -0.7944  0.6194
 7273SOL     OW27655   7.598   4.400   4.097 -0.1577  0.1116  0.5061
 7273SOL    HW127656   7.690   4.423   4.086 -0.2801  0.6487  0.5942
 7273SOL    HW227657   7.593   4.307   4.072  0.3962  0.0918  0.4671
 7274SOL     OW27658   6.369   8.916   9.027  0.2329  0.3961 -0.5196
 7274SOL    HW127659   6.301   8.983   9.027  0.4266  0.5989 -0.8943
 7274SOL    HW227660   6.405   8.920   8.939  1.6876  1.2719  0.0737
 7275SOL     OW27661   3.640   4.161  11.790  0.2562 -0.2469 -0.1680
 7275SOL    HW127662   3.687   4.213  11.855 -0.3190 -0.7245  0.6507
 7275SOL    HW227663   3.548   4.167  11.815  0.0914 -0.9777 -0.5431
 7276SOL     OW27664   1.551   6.864  10.460 -0.4281 -0.2590  0.2741
 7276SOL    HW127665   1.547   6.904  10.373 -0.8579 -0.7169  0.0806
 7276SOL    HW227666   1.621   6.912  10.505 -0.3250  0.1014 -0.2605
 7277SOL     OW27667   8.775   2.173   8.825 -0.1805  0.8608 -0.1179
 7277SOL    HW127668   8.692   2.218   8.838 -0.4213  1.0112 -1.9048
 7277SOL    HW227669   8.777   2.153   8.732  1.1455 -0.4487  0.1597
 7278SOL     OW27670   0.716   9.061  12.072  0.1788 -0.0882 -0.1905
 7278SOL    HW127671   0.779   8.989  12.072 -1.9377 -2.0702 -1.4271
 7278SOL    HW227672   0.679   9.059  12.161  0.0257 -0.6336 -0.2621
 7279SOL     OW27673   1.216   0.417   8.698 -0.5165  0.4901  0.2555
 7279SOL    HW127674   1.133   0.400   8.654 -0.0869  1.1452 -0.8503
 7279SOL    HW227675   1.283   0.381   8.639  0.2917  4.0308 -1.2559
 7280SOL     OW27676   0.369   8.255  10.019  0.4936 -0.0348 -0.5450
 7280SOL    HW127677   0.321   8.329   9.982  1.5811  1.8050  1.4721
 7280SOL    HW227678   0.368   8.271  10.114  2.4715 -1.5494 -0.1995
 7281SOL     OW27679   6.103   9.559   9.247  0.1572  0.1458  0.5447
 7281SOL    HW127680   6.028   9.500   9.246  0.8485 -0.7687 -0.3769
 7281SOL    HW227681   6.116   9.581   9.339 -1.3255  0.4625  0.7027
 7282SOL     OW27682  12.180   0.125   8.378  0.2732 -0.7184  0.4444
 7282SOL    HW127683  12.261   0.161   8.342 -0.0854 -0.7851 -0.4775
 7282SOL    HW227684  12.206   0.079   8.457  0.5700  2.9594  2.7556
 7283SOL     OW27685   9.583  10.054   4.212 -0.6719 -0.0315  0.7996
 7283SOL    HW127686   9.515   9.987   4.201 -0.5586 -0.3453  1.8919
 7283SOL    HW227687   9.664  10.005   4.221  0.1026  0.3756 -2.5804
 7284SOL     OW27688   3.448   7.009   9.310  0.3653 -0.4227 -0.1682
 7284SOL    HW127689   3.502   6.953   9.254 -1.3914  0.7716 -3.3266
 7284SOL    HW227690   3.375   6.953   9.337  1.4317 -1.1217  1.4094
 7285SOL     OW27691   3.626   6.771   6.444  0.2354  0.4504  0.6519
 7285SOL    HW127692   3.532   6.764   6.429  0.4691  1.9937 -2.2279
 7285SOL    HW227693   3.660   6.684   6.423 -0.3912  0.3471  0.0538
 7286SOL     OW27694   6.743  11.516   9.328  0.2991 -0.1551 -0.4719
 7286SOL    HW127695   6.780  11.583   9.271 -1.1723 -0.5383 -1.9918
 7286SOL    HW227696   6.748  11.436   9.276  0.2264 -0.8318  0.5318
 7287SOL     OW27697   3.275   1.910   5.384 -0.4505  0.1266  0.0301
 7287SOL    HW127698   3.239   1.839   5.331 -1.5192 -0.8123  1.9158
 7287SOL    HW227699   3.343   1.869   5.437 -1.5777  0.3017  1.6641
 7288SOL     OW27700   4.817   3.506  10.806  0.2297  0.0284  0.1771
 7288SOL    HW127701   4.874   3.487  10.880  0.0518 -1.8262 -0.1198
 7288SOL    HW227702   4.805   3.422  10.762 -2.4496  0.4032  0.0243
 7289SOL     OW27703   5.231   4.787   1.848 -0.3309 -0.2957 -0.2861
 7289SOL    HW127704   5.315   4.831   1.861 -1.1409  0.9175  1.2040
 7289SOL    HW227705   5.253   4.704   1.806  1.4815  0.5183 -1.0370
 7290SOL     OW27706  10.428  10.733   4.774  0.2159  0.5213 -0.2365
 7290SOL    HW127707  10.517  10.766   4.765  0.4164  0.0628  0.0576
 7290SOL    HW227708  10.373  10.802   4.735  0.7365  0.5531 -0.9396
 7291SOL     OW27709   0.008   0.696  10.273  0.9523 -0.2116 -0.4627
 7291SOL    HW127710   0.009   0.752  10.351  2.6108 -0.0418 -0.5845
 7291SOL    HW227711   0.009   0.757  10.200  0.0293 -0.3854 -0.6347
 7292SOL     OW27712  10.921   4.567   7.107  0.2184 -0.0195 -0.4713
 7292SOL    HW127713  11.007   4.525   7.108  0.4243  0.4123 -0.2894
 7292SOL    HW227714  10.868   4.514   7.167 -0.0544 -1.1445 -1.6440
 7293SOL     OW27715   2.876   8.961   3.803 -0.0870 -0.0217 -0.8911
 7293SOL    HW127716   2.790   8.967   3.761 -0.4147  0.4184 -0.1649
 7293SOL    HW227717   2.910   9.050   3.802 -0.4417  0.1396  0.4795
 7294SOL     OW27718   7.515   6.311   0.847 -0.1150  0.4035  0.1338
 7294SOL    HW127719   7.498   6.366   0.770  1.5166  0.2499 -0.3696
 7294SOL    HW227720   7.571   6.241   0.814 -0.3875 -0.3498  1.2383
 7295SOL     OW27721  10.162   4.154   0.310  1.0210  0.2567  0.0192
 7295SOL    HW127722  10.101   4.215   0.268  0.4508 -0.7827 -0.6919
 7295SOL    HW227723  10.135   4.153   0.402  1.2541  1.3193  0.1153
 7296SOL     OW27724   2.521   1.787  11.317 -0.3351  0.0886 -0.7501
 7296SOL    HW127725   2.465   1.710  11.306  1.2884 -0.9839 -1.7741
 7296SOL    HW227726   2.597   1.756  11.366  0.2026  1.1162 -0.8910
 7297SOL     OW27727   6.054   0.370  11.620 -0.1817 -0.1764  0.3717
 7297SOL    HW127728   6.052   0.465  11.630  1.0102 -0.1652  0.5610
 7297SOL    HW227729   6.030   0.336  11.706  1.2516 -0.0368  0.8568
 7298SOL     OW27730  12.206  11.486   6.448 -0.0065 -0.0089 -0.0970
 7298SOL    HW127731  12.171  11.572   6.426  0.3171  0.7088  1.9732
 7298SOL    HW227732  12.128  11.430   6.459 -0.3476  0.6031  0.7183
 7299SOL     OW27733   6.888  10.527   1.286 -0.5291  0.8685 -0.1759
 7299SOL    HW127734   6.797  10.502   1.269 -0.5054  1.6287 -1.5325
 7299SOL    HW227735   6.915  10.470   1.358 -1.3585 -0.9909 -1.2567
 7300SOL     OW27736   1.187   0.235   2.543 -0.0924 -0.8208  0.0518
 7300SOL    HW127737   1.224   0.165   2.596  1.7835  0.9769  1.2644
 7300SOL    HW227738   1.137   0.288   2.606 -1.1924 -0.8469 -0.7759
 7301SOL     OW27739  12.130   8.306   3.612 -0.0273  0.1342  0.2126
 7301SOL    HW127740  12.080   8.388   3.619 -0.9250 -0.4634  1.0301
 7301SOL    HW227741  12.221   8.332   3.628 -0.2708  1.0014  0.2373
 7302SOL     OW27742   0.078   4.957   9.358  0.0337 -0.5064 -0.2488
 7302SOL    HW127743   0.013   5.025   9.374 -1.0357 -0.6880 -3.2380
 7302SOL    HW227744   0.156   5.006   9.331  0.3029 -0.3990  0.6760
 7303SOL     OW27745   0.210   4.714   6.120 -0.3863 -0.2578 -0.0811
 7303SOL    HW127746   0.155   4.638   6.100 -0.0805 -0.7465  0.8772
 7303SOL    HW227747   0.250   4.737   6.036 -1.1235 -0.6330 -0.5499
 7304SOL     OW27748   3.418   0.531   4.388  0.1302 -0.3364 -0.3532
 7304SOL    HW127749   3.485   0.533   4.457  0.5523 -0.3661 -0.7518
 7304SOL    HW227750   3.358   0.602   4.411  0.1795 -0.4533  0.1327
 7305SOL     OW27751   6.499   6.044   7.498  0.3257  0.6126  0.1572
 7305SOL    HW127752   6.420   6.061   7.448  1.3626 -2.2062 -2.7764
 7305SOL    HW227753   6.487   5.956   7.534  3.2682 -1.4810 -3.3478
 7306SOL     OW27754   5.929  11.959   5.146  0.4647 -0.3231  0.2833
 7306SOL    HW127755   5.986  11.893   5.108 -1.1555 -1.3617 -0.4837
 7306SOL    HW227756   5.929  11.939   5.240 -0.2704 -1.6821  0.0236
 7307SOL     OW27757   0.096  11.525   7.912 -0.9190  0.1740 -0.2188
 7307SOL    HW127758   0.034  11.557   7.846  0.6801 -0.3278 -2.0627
 7307SOL    HW227759   0.105  11.598   7.974 -3.0830  0.3565 -0.0521
 7308SOL     OW27760   8.947  11.899  11.980 -0.3869  0.0831  0.2808
 7308SOL    HW127761   8.987  11.813  11.962 -0.3393  0.1745 -0.0485
 7308SOL    HW227762   9.021  11.957  11.995 -0.4236  0.0224  0.7230
 7309SOL     OW27763   3.010   9.477  11.655  0.1168 -1.0237 -0.1573
 7309SOL    HW127764   3.045   9.561  11.685 -1.6697 -0.5517  0.7654
 7309SOL    HW227765   2.923   9.472  11.695 -0.0057 -3.1137 -0.5645
 7310SOL     OW27766  12.327   0.466   4.125  0.3609  0.0239 -0.2569
 7310SOL    HW127767  12.333   0.559   4.143 -0.5497  0.0651 -0.1025
 7310SOL    HW227768  12.416   0.433   4.137  0.3216  0.4993  1.8140
 7311SOL     OW27769   2.943   5.646  12.136 -0.4799 -0.2225  0.1882
 7311SOL    HW127770   2.923   5.557  12.167 -0.6945 -0.4352 -0.5410
 7311SOL    HW227771   2.916   5.703  12.207  0.0292 -0.7659  0.8311
 7312SOL     OW27772  10.748   2.362   5.267  0.3562 -0.0805 -0.3650
 7312SOL    HW127773  10.658   2.338   5.289 -0.0010  0.4053 -1.2419
 7312SOL    HW227774  10.792   2.369   5.351 -0.0144 -1.8556  0.0195
 7313SOL     OW27775   3.494   1.804   9.276 -0.1133  0.3419  0.0117
 7313SOL    HW127776   3.556   1.758   9.333 -0.2409 -0.1633 -0.2509
 7313SOL    HW227777   3.428   1.739   9.254 -0.3231  0.6641 -0.3295
 7314SOL     OW27778   0.071   8.381   3.532 -0.1475  0.2451  0.3280
 7314SOL    HW127779   0.020   8.460   3.514  1.3240  1.9485  3.0450
 7314SOL    HW227780   0.118   8.364   3.449 -0.7606  2.0193 -0.4310
 7315SOL     OW27781   9.574  11.695   7.926 -0.3029 -0.1839  0.1156
 7315SOL    HW127782   9.531  11.612   7.907  0.1642 -0.4449  0.1842
 7315SOL    HW227783   9.516  11.739   7.988  0.1487 -1.0853  1.2105
 7316SOL     OW27784   2.303   6.210   3.673 -0.5134 -0.1800 -0.2908
 7316SOL    HW127785   2.296   6.277   3.742  1.6255 -0.2948  0.0977
 7316SOL    HW227786   2.336   6.258   3.597  0.1093 -0.6030 -0.2949
 7317SOL     OW27787   1.439   8.180   0.459 -0.2749 -0.2030 -0.4314
 7317SOL    HW127788   1.424   8.247   0.525  0.2318  0.2467 -0.7709
 7317SOL    HW227789   1.531   8.189   0.435  0.0478 -1.6058  0.1618
 7318SOL     OW27790   3.041   3.795   8.779  0.1580  0.7301  0.0690
 7318SOL    HW127791   3.009   3.707   8.760 -0.2027  1.1271 -1.3117
 7318SOL    HW227792   2.961   3.846   8.795  0.4388  0.3171  3.4810
 7319SOL     OW27793  10.970   6.373   4.395  0.5723  0.1082  0.2970
 7319SOL    HW127794  11.008   6.352   4.480 -2.1895  0.6781  1.7941
 7319SOL    HW227795  10.936   6.290   4.362  0.1721  0.1581  0.5717
 7320SOL     OW27796   4.653   9.327  11.492  0.1875  0.2680 -0.1057
 7320SOL    HW127797   4.612   9.392  11.435 -0.4394  0.0955  0.1381
 7320SOL    HW227798   4.747   9.344  11.485  0.1518 -0.0780 -1.5814
 7321SOL     OW27799   2.043   8.816  10.132 -0.4428  0.6650  0.4315
 7321SOL    HW127800   2.112   8.881  10.138 -0.0945  0.2270  1.4294
 7321SOL    HW227801   2.016   8.801  10.223 -0.4247 -0.6645  0.2399
 7322SOL     OW27802  11.251   3.495   9.542  0.1561  0.1122 -0.4076
 7322SOL    HW127803  11.312   3.423   9.522  1.6029  1.2063 -0.1123
 7322SOL    HW227804  11.202   3.464   9.618  1.3262 -0.2851  0.2261
 7323SOL     OW27805   6.313  11.816   9.272 -0.3763  0.1141  0.4500
 7323SOL    HW127806   6.285  11.757   9.202  0.9686 -2.0113  1.5997
 7323SOL    HW227807   6.407  11.826   9.259 -0.2666  0.4331  1.4256
 7324SOL     OW27808   5.845   8.399  11.455 -0.2195 -0.3746  0.2403
 7324SOL    HW127809   5.906   8.345  11.505 -0.5137 -0.0868  0.9218
 7324SOL    HW227810   5.877   8.394  11.365  0.4768 -0.6843  0.4967
 7325SOL     OW27811   5.079   2.704   8.477 -1.1426  0.3252 -0.2255
 7325SOL    HW127812   5.163   2.661   8.494 -1.1449  0.8482  1.2582
 7325SOL    HW227813   5.093   2.752   8.395 -0.4218 -0.6181 -0.6809
 7326SOL     OW27814   7.021  10.182   3.194  0.1725 -0.5021 -0.4433
 7326SOL    HW127815   6.926  10.169   3.190  0.0656 -0.2861  0.8054
 7326SOL    HW227816   7.035  10.271   3.163 -0.2375  0.0658  0.9111
 7327SOL     OW27817   5.135   9.640   0.529 -0.9759 -0.0689 -0.2471
 7327SOL    HW127818   5.198   9.702   0.492 -1.4830  0.1034 -0.8421
 7327SOL    HW227819   5.163   9.555   0.496  1.3885 -0.6411  2.7572
 7328SOL     OW27820  11.875  11.557  10.516  0.3917  0.0665  0.1510
 7328SOL    HW127821  11.912  11.491  10.457 -0.7250  0.2399 -0.7825
 7328SOL    HW227822  11.840  11.506  10.590  0.9368 -0.2360  0.2076
 7329SOL     OW27823   0.818   9.365   8.864  0.2156 -0.2211  0.4482
 7329SOL    HW127824   0.770   9.290   8.898 -0.4673  0.5269  1.1774
 7329SOL    HW227825   0.803   9.363   8.769 -0.5086 -0.5167  0.5656
 7330SOL     OW27826   6.407   8.325   7.561  0.5607  0.0637  0.7229
 7330SOL    HW127827   6.418   8.383   7.486 -1.2993 -2.3510 -1.5784
 7330SOL    HW227828   6.371   8.381   7.630  1.3352  2.1441 -0.4742
 7331SOL     OW27829  11.904  11.934   3.436 -0.2517 -0.4205 -0.6157
 7331SOL    HW127830  11.825  11.889   3.463 -0.6108  0.4346 -0.2114
 7331SOL    HW227831  11.883  11.969   3.349 -0.7636  0.8547  0.0052
 7332SOL     OW27832   5.492  11.514   1.731 -0.8451  0.1473 -0.3384
 7332SOL    HW127833   5.526  11.515   1.641 -1.5458 -1.8342 -0.6726
 7332SOL    HW227834   5.497  11.423   1.758 -0.5162  0.7169  1.7271
 7333SOL     OW27835   9.892   6.098   3.162  0.5115  0.2617  0.2407
 7333SOL    HW127836   9.859   6.029   3.105 -0.6565 -0.2365  1.4838
 7333SOL    HW227837   9.985   6.104   3.140  0.2461 -0.4308 -1.1685
 7334SOL     OW27838   4.416  10.413   6.403  0.1054 -0.7797  0.1087
 7334SOL    HW127839   4.344  10.361   6.437 -0.3203 -1.5509 -1.8160
 7334SOL    HW227840   4.443  10.368   6.323  2.4408 -0.2705  0.5096
 7335SOL     OW27841   1.583   8.290  10.764 -0.7632  0.4341  0.1028
 7335SOL    HW127842   1.509   8.248  10.808  0.1580  0.2800  1.5845
 7335SOL    HW227843   1.641   8.317  10.836  0.8862  0.0561 -1.0437
 7336SOL     OW27844   7.306   1.188   1.203  0.0625 -0.2403  0.4212
 7336SOL    HW127845   7.398   1.172   1.225 -0.3017 -0.3424  1.9514
 7336SOL    HW227846   7.283   1.116   1.144  0.9583 -0.1941 -0.0066
 7337SOL     OW27847   2.361   5.450   4.741 -0.0719  0.5236 -0.3652
 7337SOL    HW127848   2.383   5.528   4.690 -0.0958 -0.0439 -1.2697
 7337SOL    HW227849   2.380   5.474   4.832  0.4969  1.3786 -0.6979
 7338SOL     OW27850   7.362   3.595   5.099  0.3155 -0.8337 -0.1839
 7338SOL    HW127851   7.372   3.689   5.113  0.2604 -1.0447  1.3541
 7338SOL    HW227852   7.435   3.572   5.040 -0.1331  0.2856 -1.1979
 7339SOL     OW27853   1.186   1.130   4.614  0.5469 -0.4504  0.5646
 7339SOL    HW127854   1.173   1.062   4.680  0.2748 -1.2774 -0.3067
 7339SOL    HW227855   1.100   1.173   4.608  0.8167  0.2119  1.3663
 7340SOL     OW27856  12.306   8.753   7.145  0.0435  0.6447 -0.1790
 7340SOL    HW127857  12.401   8.745   7.148  0.0031 -0.1107 -0.5194
 7340SOL    HW227858  12.281   8.708   7.064 -0.6959 -0.2341  0.5198
 7341SOL     OW27859  11.791   1.205   0.522 -0.1708  0.1142 -0.5745
 7341SOL    HW127860  11.731   1.170   0.455  0.2279  0.1470 -0.9535
 7341SOL    HW227861  11.760   1.295   0.536  0.7148  0.6638 -1.9081
 7342SOL     OW27862  11.278   6.322   1.988 -0.8597 -0.4251  0.6018
 7342SOL    HW127863  11.271   6.414   1.961 -0.6269 -0.1122  1.5831
 7342SOL    HW227864  11.210   6.277   1.938 -2.7408  0.7201  2.0240
 7343SOL     OW27865   9.139   2.700   3.622 -0.2025 -0.2878 -0.3966
 7343SOL    HW127866   9.231   2.684   3.644  0.1461  2.2220  0.3438
 7343SOL    HW227867   9.099   2.727   3.705 -1.3171 -0.2242 -0.9397
 7344SOL     OW27868   3.198   5.876   7.463 -0.0302 -0.2990  0.2174
 7344SOL    HW127869   3.267   5.923   7.508  0.9379 -0.8496 -0.6492
 7344SOL    HW227870   3.238   5.846   7.381 -1.3213 -0.5367 -0.3555
 7345SOL     OW27871   7.633   3.466   1.418  0.3697  0.3490  0.3200
 7345SOL    HW127872   7.673   3.396   1.367  1.2122  1.2924 -0.3577
 7345SOL    HW227873   7.706   3.523   1.442 -0.2378  0.7582  1.2447
 7346SOL     OW27874   4.840   3.273   7.797  0.1853  0.1783 -0.2826
 7346SOL    HW127875   4.928   3.265   7.760 -0.3707 -1.1095 -1.4178
 7346SOL    HW227876   4.784   3.224   7.737 -1.0522 -0.4780  1.3214
 7347SOL     OW27877   5.661   1.772   6.261 -0.5125 -0.1067 -0.3614
 7347SOL    HW127878   5.680   1.799   6.351 -1.1756  0.5308 -0.4001
 7347SOL    HW227879   5.667   1.676   6.263 -0.5024 -0.0979  0.3578
 7348SOL     OW27880   4.975  11.946   4.073  0.2308 -0.2677  0.0246
 7348SOL    HW127881   5.024  11.867   4.095  2.2499  0.4439 -1.5649
 7348SOL    HW227882   4.937  11.927   3.987 -0.6896 -0.1203  0.3985
 7349SOL     OW27883   0.070   1.088  12.112 -0.0871  0.1755 -0.3104
 7349SOL    HW127884   0.126   1.164  12.131  0.0526  0.1200 -0.5025
 7349SOL    HW227885   0.119   1.013  12.147 -0.2116  0.1705 -0.1469
 7350SOL     OW27886   0.587   1.165   4.097 -0.4031 -0.3180 -0.0285
 7350SOL    HW127887   0.652   1.103   4.131  1.0554  1.4474  0.5987
 7350SOL    HW227888   0.507   1.145   4.145  0.4753 -0.6727  1.3533
 7351SOL     OW27889   1.049   7.318   7.647  0.4597 -0.0095 -0.6836
 7351SOL    HW127890   0.963   7.302   7.686  0.0739 -1.2570 -1.9521
 7351SOL    HW227891   1.079   7.399   7.688 -0.9866  0.0555  0.3367
 7352SOL     OW27892   6.619   0.599  11.003  0.0339 -0.1185  0.8858
 7352SOL    HW127893   6.705   0.567  10.976 -0.3430  1.3100 -2.5328
 7352SOL    HW227894   6.637   0.666  11.068  1.4849 -0.1049  0.4916
 7353SOL     OW27895  10.560   1.260   8.008 -0.1159 -0.1783 -0.0135
 7353SOL    HW127896  10.530   1.333   7.954 -0.1122 -0.6386 -0.6557
 7353SOL    HW227897  10.539   1.286   8.097  0.7857  1.0403 -0.1291
 7354SOL     OW27898   9.638  10.757  11.543 -0.1600  0.2569  0.3619
 7354SOL    HW127899   9.643  10.801  11.627  0.1784  0.9505 -0.0141
 7354SOL    HW227900   9.729  10.748  11.515 -0.1202 -1.8416  1.0153
 7355SOL     OW27901  11.652   1.251   8.047 -0.3963  1.0060 -0.4842
 7355SOL    HW127902  11.702   1.285   8.121  2.7978 -1.7061 -1.1386
 7355SOL    HW227903  11.597   1.182   8.085 -0.4521  1.1327 -0.3343
 7356SOL     OW27904   4.267   3.761   4.116 -0.2683  0.2635 -0.2198
 7356SOL    HW127905   4.189   3.716   4.086 -0.8184  1.0648 -0.0295
 7356SOL    HW227906   4.336   3.731   4.057 -0.7782 -0.2295 -0.5762
 7357SOL     OW27907   2.696  11.418   8.202 -0.1134 -0.1684  0.5270
 7357SOL    HW127908   2.707  11.376   8.116 -1.8919 -0.9084  0.6115
 7357SOL    HW227909   2.652  11.501   8.183 -0.1855 -0.1690  0.6934
 7358SOL     OW27910  11.715   7.319   3.256 -0.0808  0.8658 -0.1295
 7358SOL    HW127911  11.739   7.412   3.259 -1.3985  1.2003  1.8787
 7358SOL    HW227912  11.777   7.276   3.315 -0.3016  0.6841 -0.0285
 7359SOL     OW27913  11.670   7.089   8.475 -0.3424  0.2483 -0.1217
 7359SOL    HW127914  11.753   7.059   8.512  0.2568 -0.0690 -1.6693
 7359SOL    HW227915  11.682   7.085   8.380 -2.7258 -1.5162 -0.4492
 7360SOL     OW27916  10.540   2.107   1.053 -0.0210  0.1977  0.5044
 7360SOL    HW127917  10.587   2.061   1.123 -1.0666 -3.4917 -0.9725
 7360SOL    HW227918  10.597   2.099   0.977 -0.0762  1.8084  0.2659
 7361SOL     OW27919   9.946   0.360   1.445 -0.1210 -0.0840 -0.0677
 7361SOL    HW127920   9.852   0.345   1.441 -0.3971  1.4755  0.0993
 7361SOL    HW227921   9.975   0.355   1.354 -0.3985 -0.3570 -0.1422
 7362SOL     OW27922   3.279   1.270   7.206 -0.4502  0.8784  0.2407
 7362SOL    HW127923   3.284   1.181   7.172 -1.2875  0.8220  0.2440
 7362SOL    HW227924   3.342   1.272   7.278  0.0399  0.4811 -0.1743
 7363SOL     OW27925   6.435   5.435  10.310  0.0984 -0.3333  0.2040
 7363SOL    HW127926   6.509   5.394  10.265 -1.1676 -1.8248 -0.6351
 7363SOL    HW227927   6.426   5.520  10.267  0.8812 -0.4318 -0.1799
 7364SOL     OW27928   9.115   9.630  10.790 -0.3674 -0.2102  0.1589
 7364SOL    HW127929   9.078   9.578  10.719 -0.7397  0.5511 -0.2164
 7364SOL    HW227930   9.067   9.602  10.868  0.2736 -1.2882  0.1802
 7365SOL     OW27931   5.070   9.532   1.358 -0.3833 -0.0601  0.2958
 7365SOL    HW127932   5.023   9.549   1.440  2.3594  2.1305  1.6184
 7365SOL    HW227933   5.121   9.453   1.375  0.9777  0.9607  1.1971
 7366SOL     OW27934   3.022   4.994   9.478  0.1768 -0.3031 -0.3153
 7366SOL    HW127935   3.110   4.984   9.516  0.4123  1.1192 -0.4304
 7366SOL    HW227936   3.032   4.961   9.388  0.1916 -1.5369  0.1107
 7367SOL     OW27937   4.934   1.769   1.892 -0.0419  0.2002  0.0545
 7367SOL    HW127938   4.869   1.823   1.846  0.3141  1.6338  1.1631
 7367SOL    HW227939   4.992   1.833   1.934  1.1760 -1.0639  0.3535
 7368SOL     OW27940  10.500  11.154   3.244  0.7567  0.0521  1.0726
 7368SOL    HW127941  10.462  11.067   3.257 -0.6613  0.5459  0.4423
 7368SOL    HW227942  10.594  11.140   3.249  0.6508 -1.8413 -0.7337
 7369SOL     OW27943   6.922   6.917  10.982  0.3727 -0.5672  0.5349
 7369SOL    HW127944   6.868   6.841  11.001 -0.3397 -0.6261 -1.4529
 7369SOL    HW227945   6.883   6.988  11.033 -1.0905 -0.8017 -0.2132
 7370SOL     OW27946   9.595  11.019   9.518 -0.0652  0.1827  0.2292
 7370SOL    HW127947   9.639  11.032   9.602 -1.3510 -0.9523  1.1122
 7370SOL    HW227948   9.502  11.034   9.537 -0.6400 -2.0612 -0.4857
 7371SOL     OW27949   4.477   0.996   0.243  0.1051  0.3144 -0.1796
 7371SOL    HW127950   4.511   0.982   0.331  1.1193 -2.5386 -0.9376
 7371SOL    HW227951   4.534   1.063   0.205 -0.0878  1.2592  1.1525
 7372SOL     OW27952   6.683   1.372   1.862 -0.0774 -0.0499 -0.5834
 7372SOL    HW127953   6.669   1.453   1.813 -1.3341 -2.0436 -3.7974
 7372SOL    HW227954   6.777   1.372   1.880 -0.0790  2.2037 -0.2117
 7373SOL     OW27955   8.811   6.367   8.346  0.9214  0.6465  0.1890
 7373SOL    HW127956   8.872   6.440   8.361  0.4448  1.3596 -1.1580
 7373SOL    HW227957   8.730   6.410   8.319  1.0107 -0.4122 -1.9169
 7374SOL     OW27958   5.122   0.974   4.251  0.4258  0.1120 -0.1641
 7374SOL    HW127959   5.097   0.886   4.223 -0.0317 -0.8714  2.9947
 7374SOL    HW227960   5.198   0.995   4.196 -0.2104 -1.6910 -1.8590
 7375SOL     OW27961   5.313   7.431   8.642  0.1558  0.1355  0.3236
 7375SOL    HW127962   5.311   7.368   8.569  0.0180 -1.8206  1.9375
 7375SOL    HW227963   5.236   7.487   8.626 -1.0920 -1.5615  0.0240
 7376SOL     OW27964   6.968   2.766   6.155  0.3575 -0.5822  0.1883
 7376SOL    HW127965   6.943   2.858   6.149  0.6854 -0.5654 -1.8717
 7376SOL    HW227966   7.004   2.756   6.243  0.7736  1.3842  0.2886
 7377SOL     OW27967   3.494  12.081   3.535 -0.4632  0.4246 -0.0676
 7377SOL    HW127968   3.406  12.051   3.557 -1.1542  3.7130  2.4795
 7377SOL    HW227969   3.553  12.021   3.580 -1.5725  0.3411  1.3200
 7378SOL     OW27970   5.611   3.655   3.176  0.4068 -0.1541  0.3469
 7378SOL    HW127971   5.547   3.608   3.123 -0.3444  0.9967  0.1767
 7378SOL    HW227972   5.563   3.731   3.209  1.6044  0.5768  0.4765
 7379SOL     OW27973   7.994   6.041   0.393 -1.0749  0.9319  0.5201
 7379SOL    HW127974   7.938   6.118   0.384 -2.5276 -0.0312  0.9389
 7379SOL    HW227975   7.983   6.013   0.484  0.8539  1.2493  0.8941
 7380SOL     OW27976   8.718   6.585  11.898 -0.2488  0.4458  0.5623
 7380SOL    HW127977   8.805   6.585  11.859 -0.1213 -1.3167  0.7789
 7380SOL    HW227978   8.680   6.669  11.872  0.9925  0.6539 -0.6849
 7381SOL     OW27979   8.095   6.258   5.492 -0.4717  0.3335  0.5743
 7381SOL    HW127980   8.055   6.329   5.543  0.4862  2.0138 -0.8966
 7381SOL    HW227981   8.051   6.262   5.408 -0.9938 -1.4279  0.7266
 7382SOL     OW27982   0.045  10.774   4.547 -0.6063 -0.1263  0.5684
 7382SOL    HW127983   0.093  10.836   4.603  1.5233 -0.3991 -0.8193
 7382SOL    HW227984   0.106  10.701   4.535 -1.1788 -0.3096 -1.6451
 7383SOL     OW27985   1.335   6.311   0.323  0.0355  0.1675  0.1106
 7383SOL    HW127986   1.338   6.273   0.235 -2.0967  0.9399 -0.3585
 7383SOL    HW227987   1.242   6.326   0.339  0.6071  3.4920  0.9787
 7384SOL     OW27988   0.609   1.271   2.104 -0.2446 -0.3940 -0.6204
 7384SOL    HW127989   0.615   1.317   2.188  2.2214 -1.2306 -0.2448
 7384SOL    HW227990   0.614   1.340   2.038 -2.9134  0.3408 -0.1558
 7385SOL     OW27991   6.102   7.581   4.358 -0.4526 -0.0377 -0.0048
 7385SOL    HW127992   6.179   7.576   4.301 -2.3478  0.5220 -2.8264
 7385SOL    HW227993   6.060   7.663   4.334 -1.6750 -0.0525  1.8735
 7386SOL     OW27994  11.478   0.763   3.011  0.1077 -0.4644  0.3280
 7386SOL    HW127995  11.411   0.780   3.077  0.0718 -2.4764  0.8697
 7386SOL    HW227996  11.430   0.760   2.928 -0.2115 -0.2508  0.5054
 7387SOL     OW27997  11.018  12.149   8.565  0.1593  0.4874  0.7246
 7387SOL    HW127998  11.113  12.160   8.568  0.1284  0.5894  1.8496
 7387SOL    HW227999  11.004  12.056   8.545  0.4909  0.5941  0.0085
 7388SOL     OW28000   1.137   5.232   2.807 -0.2278  0.0957  0.0921
 7388SOL    HW128001   1.148   5.139   2.826 -0.3460  0.1165  0.2670
 7388SOL    HW228002   1.061   5.236   2.748 -1.0651  0.1892  1.1449
 7389SOL     OW28003   1.751   5.155   7.266  0.0196 -0.2099  0.3362
 7389SOL    HW128004   1.688   5.206   7.316 -0.7649 -2.4873  1.8542
 7389SOL    HW228005   1.721   5.161   7.175 -1.6247 -0.1667  0.8577
 7390SOL     OW28006   6.468   6.614  10.309 -0.0837  0.0734 -0.4216
 7390SOL    HW128007   6.433   6.703  10.304  1.1881  0.5565 -1.1917
 7390SOL    HW228008   6.423   6.566  10.240 -0.1095  0.3678 -0.6113
 7391SOL     OW28009  10.735   3.896  10.275 -0.3727 -0.0729  0.3613
 7391SOL    HW128010  10.669   3.910  10.207 -1.4768  1.5785  1.6808
 7391SOL    HW228011  10.809   3.951  10.249  0.2092 -1.3181 -0.7125
 7392SOL     OW28012   1.222   0.197   2.834 -0.8846 -0.5593  0.2870
 7392SOL    HW128013   1.139   0.221   2.793 -0.2160 -2.2629 -2.2919
 7392SOL    HW228014   1.206   0.112   2.875 -0.7253 -0.3007  0.9019
 7393SOL     OW28015   1.138   7.675  10.747  0.0179 -0.0809  0.2878
 7393SOL    HW128016   1.103   7.617  10.814 -1.1265 -0.4900 -0.6409
 7393SOL    HW228017   1.197   7.620  10.696  0.7981  0.2023  0.8505
 7394SOL     OW28018   7.301   9.703   3.599 -0.4646 -0.4861 -0.3350
 7394SOL    HW128019   7.316   9.720   3.693 -0.0137  1.0138 -0.6440
 7394SOL    HW228020   7.234   9.636   3.597  0.5490 -1.6003  1.0813
 7395SOL     OW28021   5.506   5.830   3.790 -0.7504  0.2128 -0.0270
 7395SOL    HW128022   5.500   5.889   3.715 -0.6548  1.0063  0.5660
 7395SOL    HW228023   5.498   5.742   3.753 -2.7802  0.6391 -0.7427
 7396SOL     OW28024   2.623   2.070   1.576 -0.7189 -0.4838 -0.4899
 7396SOL    HW128025   2.685   2.032   1.638 -1.4606 -0.2803  0.3992
 7396SOL    HW228026   2.606   2.001   1.512 -2.5690 -1.9926  1.4700
 7397SOL     OW28027   2.262   1.536  11.412  0.2098  0.1967  0.1088
 7397SOL    HW128028   2.226   1.456  11.449  0.4513 -0.1445 -0.3729
 7397SOL    HW228029   2.354   1.535  11.438  0.3840 -0.0495 -0.4792
 7398SOL     OW28030   0.873   6.384  10.053  0.1865 -0.6112  0.2008
 7398SOL    HW128031   0.839   6.415   9.969 -0.0632 -0.7472  0.2500
 7398SOL    HW228032   0.961   6.352  10.032 -0.6853 -2.7785 -0.5013
 7399SOL     OW28033   7.388   4.345   9.702 -0.3838 -0.0184  0.2365
 7399SOL    HW128034   7.303   4.321   9.666 -1.1410  1.4075  1.0202
 7399SOL    HW228035   7.398   4.289   9.779 -0.4094 -0.4859 -0.0963
 7400SOL     OW28036   2.984   0.519   3.891  0.2180  0.2209  0.2790
 7400SOL    HW128037   2.891   0.518   3.912  0.4849 -1.3465  1.6652
 7400SOL    HW228038   3.028   0.522   3.976  1.3993 -0.9821 -0.2406
 7401SOL     OW28039   3.188   7.571  11.466  0.1956  0.1500  0.4089
 7401SOL    HW128040   3.172   7.476  11.469  0.9872 -0.0312 -0.4786
 7401SOL    HW228041   3.248   7.582  11.392 -1.4077  1.5600 -0.7706
 7402SOL     OW28042  11.654  11.987   0.748  0.4643 -0.3309  0.9094
 7402SOL    HW128043  11.610  11.903   0.737 -0.3530  0.2944 -1.0454
 7402SOL    HW228044  11.747  11.964   0.757  0.2491 -1.4543  0.4815
 7403SOL     OW28045   5.150   1.873  10.899 -0.0499  0.0774 -0.4470
 7403SOL    HW128046   5.090   1.851  10.969 -0.3767  1.6242 -0.2059
 7403SOL    HW228047   5.236   1.874  10.940 -0.2013  0.6361 -0.1306
 7404SOL     OW28048  12.013   4.587   5.343  0.5743 -0.3119 -0.2612
 7404SOL    HW128049  11.990   4.528   5.271  0.7542 -0.1408 -0.4623
 7404SOL    HW228050  11.970   4.549   5.420  0.5325 -0.6002 -0.4226
 7405SOL     OW28051   6.018   1.377   1.507 -0.1809 -0.5094  0.5102
 7405SOL    HW128052   5.977   1.336   1.431 -1.0244 -0.8861  1.1568
 7405SOL    HW228053   6.045   1.304   1.562 -0.8923 -0.2295  1.2524
 7406SOL     OW28054   6.657   3.394   5.305  0.2307  0.8373 -0.5187
 7406SOL    HW128055   6.688   3.453   5.374  0.2897 -0.7747  0.9003
 7406SOL    HW228056   6.695   3.429   5.225  0.6743  2.4189  0.3388
 7407SOL     OW28057   7.319   0.326   9.394  0.0129 -0.3871 -0.6206
 7407SOL    HW128058   7.268   0.260   9.348  1.2958  0.0131 -2.7507
 7407SOL    HW228059   7.312   0.404   9.339  1.1097  0.3087  0.1883
 7408SOL     OW28060   1.040   7.470  12.313  0.4148 -0.1790  0.4957
 7408SOL    HW128061   1.085   7.386  12.322 -0.5052 -0.6089  1.2353
 7408SOL    HW228062   1.006   7.468  12.223  3.1000  0.8223 -0.6641
 7409SOL     OW28063  10.746   2.607   7.839 -0.2062 -0.4623 -0.1083
 7409SOL    HW128064  10.651   2.607   7.853 -0.2287 -0.6264 -0.2587
 7409SOL    HW228065  10.780   2.546   7.904 -0.1241  0.1636  0.4503
 7410SOL     OW28066   0.095   2.012   4.934  0.2907 -0.2647 -0.5904
 7410SOL    HW128067   0.024   2.074   4.922  1.6977  1.9869  1.6091
 7410SOL    HW228068   0.056   1.939   4.982 -0.8291  0.3163 -0.5971
 7411SOL     OW28069   0.715  11.826  12.083  0.8945 -0.4018 -0.0162
 7411SOL    HW128070   0.796  11.838  12.034 -0.5546 -1.3078 -2.8735
 7411SOL    HW228071   0.694  11.733  12.073  0.2833 -0.5537  2.0922
 7412SOL     OW28072   3.074   2.740  11.094  0.1495 -0.1543 -0.0059
 7412SOL    HW128073   2.999   2.732  11.034 -1.3245 -0.4420  1.8000
 7412SOL    HW228074   3.098   2.833  11.090  2.1196 -0.6431 -3.2949
 7413SOL     OW28075   9.452   5.669   1.159  0.3567  0.2687  0.6072
 7413SOL    HW128076   9.490   5.629   1.081 -1.2565 -0.5806  0.2064
 7413SOL    HW228077   9.508   5.641   1.231  0.1745 -1.4119  0.1213
 7414SOL     OW28078   9.589   0.715   5.376  0.0017  0.3497 -0.1595
 7414SOL    HW128079   9.685   0.712   5.372  0.0713 -1.5693  1.7716
 7414SOL    HW228080   9.561   0.692   5.287  1.2759  2.0450 -1.0711
 7415SOL     OW28081   7.033   5.933   6.308  0.2091 -0.1187 -0.0237
 7415SOL    HW128082   6.982   5.852   6.315 -0.8750  0.5231 -0.2587
 7415SOL    HW228083   6.989   5.994   6.367  0.7333  0.4389 -0.2083
 7416SOL     OW28084   8.440   9.539   5.977 -0.2327 -0.3693  0.6731
 7416SOL    HW128085   8.351   9.511   5.997 -1.1695  0.7775 -1.6106
 7416SOL    HW228086   8.475   9.470   5.920 -1.1270  0.9955 -1.6589
 7417SOL     OW28087   9.979  12.170   7.070 -0.3159  0.5900  0.4740
 7417SOL    HW128088  10.026  12.252   7.087  0.1413 -0.2102  3.7702
 7417SOL    HW228089   9.887  12.192   7.084 -0.2760  0.7233  0.5335
 7418SOL     OW28090   1.488   3.190   7.943 -0.2383 -0.4637  0.0108
 7418SOL    HW128091   1.572   3.167   7.903 -0.0054 -1.8528  1.2120
 7418SOL    HW228092   1.500   3.280   7.973  0.2146 -0.0513 -1.3497
 7419SOL     OW28093   6.534   7.409   7.986 -0.1978 -0.1287 -0.2468
 7419SOL    HW128094   6.559   7.497   7.960  1.3237 -0.6110 -0.4691
 7419SOL    HW228095   6.476   7.379   7.915 -1.4116  0.9528  0.2327
 7420SOL     OW28096   5.747   1.814   9.487 -0.3924 -0.0063 -0.2987
 7420SOL    HW128097   5.688   1.875   9.444  0.1374  1.1537  0.5639
 7420SOL    HW228098   5.821   1.868   9.515  1.0396 -1.3984 -1.2456
 7421SOL     OW28099   7.086   3.550   2.347 -0.1921  0.8763 -0.8792
 7421SOL    HW128100   7.095   3.521   2.256  1.2815  0.3185 -0.5837
 7421SOL    HW228101   7.173   3.579   2.372 -0.1920 -0.4355  0.8295
 7422SOL     OW28102  11.066   7.821   7.926 -0.1574 -0.1060  0.0280
 7422SOL    HW128103  11.077   7.799   7.833 -1.1310 -1.7663  0.2804
 7422SOL    HW228104  11.001   7.892   7.925 -0.8123 -0.6994 -0.5162
 7423SOL     OW28105   2.023   5.520   0.248 -0.7878  0.1350 -0.4072
 7423SOL    HW128106   2.111   5.551   0.270 -0.1974 -0.9925 -1.0771
 7423SOL    HW228107   1.999   5.463   0.321 -1.5454  1.4683  0.4331
 7424SOL     OW28108   1.412   5.712   5.049 -0.0702 -0.2115 -0.0930
 7424SOL    HW128109   1.436   5.636   5.103  0.2573 -0.5349 -0.6794
 7424SOL    HW228110   1.319   5.724   5.065 -0.1892 -0.9167 -0.2073
 7425SOL     OW28111   5.827   5.395   6.690  0.2144 -0.3873  0.4004
 7425SOL    HW128112   5.744   5.387   6.737 -0.0788 -0.7785 -0.1764
 7425SOL    HW228113   5.883   5.445   6.750 -0.1553 -0.8505  1.1576
 7426SOL     OW28114   7.310  11.497   0.941  0.4438  0.3136  0.5108
 7426SOL    HW128115   7.331  11.555   1.013 -0.0188  2.6100 -1.0926
 7426SOL    HW228116   7.387  11.499   0.884  0.1478 -0.0740  0.0839
 7427SOL     OW28117   4.137   0.475   3.044 -0.2247 -0.0910 -0.1391
 7427SOL    HW128118   4.220   0.511   3.072 -0.1271 -1.9020  2.1729
 7427SOL    HW228119   4.133   0.388   3.083 -2.4420 -0.7817 -1.6434
 7428SOL     OW28120   3.572   7.884  11.726  0.7141  0.6052  0.3366
 7428SOL    HW128121   3.519   7.885  11.647  0.6222  0.9495  0.3976
 7428SOL    HW228122   3.662   7.874  11.696  0.4639 -2.9079  0.3411
 7429SOL     OW28123   9.516   3.679  11.588 -0.7232 -0.3623 -0.1365
 7429SOL    HW128124   9.514   3.770  11.617  0.8641 -0.3734  0.0984
 7429SOL    HW228125   9.456   3.633  11.647  1.6539 -0.2158  2.6139
 7430SOL     OW28126   4.868   4.909   0.817  0.3579 -0.5573 -0.3892
 7430SOL    HW128127   4.893   4.930   0.907  1.1140 -2.4768 -0.0921
 7430SOL    HW228128   4.774   4.926   0.813  0.2817 -0.6366  0.8278
 7431SOL     OW28129   7.395  11.175   3.353  0.2037 -0.0147  0.3022
 7431SOL    HW128130   7.406  11.153   3.445 -0.6880 -0.7480  0.2551
 7431SOL    HW228131   7.339  11.253   3.352  2.4428  1.6918  0.4351
 7432SOL     OW28132   0.975  11.952   6.320  0.3668  0.0663 -0.3065
 7432SOL    HW128133   0.979  11.959   6.415  1.8376 -2.0382 -0.1428
 7432SOL    HW228134   1.044  11.889   6.298 -0.8157 -0.5270 -2.6291
 7433SOL     OW28135  10.177   2.828   6.792 -0.2145  0.0043  0.1986
 7433SOL    HW128136  10.241   2.758   6.805  0.1408  0.3472  0.2846
 7433SOL    HW228137  10.093   2.782   6.783  0.0531 -0.4462  0.0129
 7434SOL     OW28138   7.463  10.908   9.631  0.0332 -0.2081  0.6678
 7434SOL    HW128139   7.416  10.825   9.634 -0.6618  0.1250 -0.4297
 7434SOL    HW228140   7.416  10.960   9.565  1.5843  0.3618 -0.0280
 7435SOL     OW28141   2.061   9.676   2.784  0.0119 -0.2730 -0.3147
 7435SOL    HW128142   2.090   9.627   2.708  0.1767  0.8453 -1.0019
 7435SOL    HW228143   2.075   9.768   2.760  0.5049  0.0954  1.2330
 7436SOL     OW28144   2.271   9.218   5.126 -0.2685 -0.2110  0.0785
 7436SOL    HW128145   2.351   9.256   5.091  0.2765 -0.4741  0.9955
 7436SOL    HW228146   2.294   9.190   5.215 -1.1697 -0.9569  0.1030
 7437SOL     OW28147   9.406   2.728   8.038  0.5788 -0.6771  0.2665
 7437SOL    HW128148   9.353   2.701   8.113  0.4820 -0.5920  0.2277
 7437SOL    HW228149   9.435   2.646   7.999 -2.5872 -0.9004 -1.9690
 7438SOL     OW28150  11.574   9.379   5.643 -0.2275  0.0471 -0.2529
 7438SOL    HW128151  11.507   9.364   5.710 -0.1461  0.2856 -0.1191
 7438SOL    HW228152  11.535   9.443   5.584  0.6492  1.7289  0.9349
 7439SOL     OW28153   6.420   7.215   5.445 -0.4902 -0.8766 -0.1564
 7439SOL    HW128154   6.455   7.216   5.356 -1.7900 -3.1572 -0.8064
 7439SOL    HW228155   6.475   7.151   5.491 -1.5084 -1.7961 -0.1713
 7440SOL     OW28156  10.931   8.345   8.868 -0.3152  0.6570  0.4729
 7440SOL    HW128157  10.893   8.374   8.951 -1.7898 -0.4354  0.2123
 7440SOL    HW228158  10.951   8.426   8.821  0.1696  1.2832  1.7090
 7441SOL     OW28159   6.395   4.770  10.172 -0.1889  0.4883  0.3002
 7441SOL    HW128160   6.412   4.860  10.145  0.5237  0.5596  0.9542
 7441SOL    HW228161   6.455   4.718  10.118 -0.9404  0.3501 -0.4232
 7442SOL     OW28162   3.644   5.506   0.816 -0.6163  0.4306  0.3854
 7442SOL    HW128163   3.644   5.451   0.894  1.0545  0.7733  0.6751
 7442SOL    HW228164   3.735   5.503   0.785 -1.3220  0.0377 -1.7580
 7443SOL     OW28165  10.465   6.184   7.064 -0.4041 -0.1022 -0.1228
 7443SOL    HW128166  10.508   6.208   6.982  1.0294 -1.8609  0.0663
 7443SOL    HW228167  10.496   6.249   7.127  0.3451 -0.1342 -0.4464
 7444SOL     OW28168  12.262   4.669   2.518  0.4198  0.7272 -0.2143
 7444SOL    HW128169  12.321   4.733   2.477  0.1893  0.0788 -1.6017
 7444SOL    HW228170  12.175   4.708   2.512  0.2094  0.1113 -1.4970
 7445SOL     OW28171   9.831  12.322   4.964  0.0458 -0.1640  0.3874
 7445SOL    HW128172   9.872  12.236   4.957  1.2242  0.3666  0.5995
 7445SOL    HW228173   9.739  12.303   4.980  0.2429 -1.3854  0.1762
 7446SOL     OW28174   5.956   4.882   4.128  0.0386  0.2189 -0.6005
 7446SOL    HW128175   5.988   4.842   4.047  0.1624 -2.1110  0.5386
 7446SOL    HW228176   5.995   4.830   4.198 -0.7852  1.6255  0.9778
 7447SOL     OW28177   7.688   2.836   9.761  0.3198 -0.1774 -0.9304
 7447SOL    HW128178   7.663   2.897   9.692  0.7362 -0.6106 -1.4743
 7447SOL    HW228179   7.737   2.890   9.824  3.1197 -0.3876 -2.7568
 7448SOL     OW28180   2.154   3.276   1.868 -0.8610 -0.2445 -0.0677
 7448SOL    HW128181   2.174   3.355   1.818  3.6460 -0.8852  0.3107
 7448SOL    HW228182   2.157   3.304   1.960 -0.0024 -0.7015  0.0481
 7449SOL     OW28183   8.873   3.526   0.066  0.3823  0.2289  0.0267
 7449SOL    HW128184   8.870   3.621   0.055  0.1602  0.1063 -0.9772
 7449SOL    HW228185   8.849   3.512   0.158 -1.2834  1.0449 -0.2493
 7450SOL     OW28186   5.228   3.282   3.962 -0.3846 -0.2130  0.4338
 7450SOL    HW128187   5.150   3.233   3.986 -0.8676  0.2922 -0.0550
 7450SOL    HW228188   5.266   3.233   3.889 -1.8541  1.0207 -1.2645
 7451SOL     OW28189   9.722   7.499   2.053  0.6729  0.0733 -0.0834
 7451SOL    HW128190   9.785   7.563   2.021  2.2752 -0.9031  0.9793
 7451SOL    HW228191   9.675   7.546   2.123  0.9073  0.5029 -0.2067
 7452SOL     OW28192   4.340  10.769   3.540  0.3507  0.1245  0.1099
 7452SOL    HW128193   4.294  10.769   3.623  1.3897  1.2759  0.7079
 7452SOL    HW228194   4.347  10.861   3.515 -0.7649 -0.2331 -1.7415
 7453SOL     OW28195   6.507   1.896  10.677  0.2477  0.2440 -0.5672
 7453SOL    HW128196   6.594   1.907  10.638  0.8098  3.2010  1.2394
 7453SOL    HW228197   6.446   1.922  10.607  0.7430 -1.5389 -1.7343
 7454SOL     OW28198  10.835   6.186   4.712  0.2521 -0.7732  0.3092
 7454SOL    HW128199  10.926   6.210   4.730 -0.3968  1.7047  0.5928
 7454SOL    HW228200  10.789   6.207   4.793 -0.8094 -0.5942 -0.3295
 7455SOL     OW28201   7.299   0.984   1.656  0.3702 -0.0207 -0.7424
 7455SOL    HW128202   7.368   0.949   1.600  0.7036 -0.1062 -0.2845
 7455SOL    HW228203   7.320   0.951   1.743  1.3014  2.1222 -0.0787
 7456SOL     OW28204   7.511   0.902   8.941  0.0405  0.4935 -0.5241
 7456SOL    HW128205   7.564   0.926   8.865  0.3944 -0.0071 -0.4412
 7456SOL    HW228206   7.507   0.982   8.994 -0.8844  1.0924 -1.4428
 7457SOL     OW28207   6.796  12.009  11.526  0.0881 -0.2030  0.2187
 7457SOL    HW128208   6.804  12.083  11.465  0.3916 -0.8284 -0.5249
 7457SOL    HW228209   6.882  12.002  11.566  1.1516 -2.1593 -2.1374
 7458SOL     OW28210   6.598   7.013   2.603  0.7441 -0.3016 -0.1195
 7458SOL    HW128211   6.533   6.997   2.534 -0.2719  0.9183  0.5024
 7458SOL    HW228212   6.633   7.100   2.583  3.1437 -1.4140 -1.1374
 7459SOL     OW28213  11.982  11.356  10.051  0.0104 -0.2836  0.5737
 7459SOL    HW128214  11.993  11.426   9.986 -2.8350  0.7508  1.0410
 7459SOL    HW228215  12.071  11.324  10.067  0.9635  0.1423 -2.9710
 7460SOL     OW28216  10.340   0.007  10.748  0.2032 -0.3977  0.0400
 7460SOL    HW128217  10.343   0.032  10.840  1.8393  0.6566 -0.2645
 7460SOL    HW228218  10.305   0.084  10.703  0.1106 -0.6381 -0.3114
 7461SOL     OW28219  11.465   0.524  10.738  0.1092 -0.6527  0.7928
 7461SOL    HW128220  11.470   0.525  10.642  0.1121 -2.2048  0.7648
 7461SOL    HW228221  11.453   0.616  10.761  0.5938 -0.1882 -0.6656
 7462SOL     OW28222   0.674   4.728   2.366 -0.3174 -0.4040 -0.3123
 7462SOL    HW128223   0.624   4.809   2.374  0.7685  0.4553 -1.6971
 7462SOL    HW228224   0.670   4.706   2.273 -0.2547 -1.7320 -0.0255
 7463SOL     OW28225  11.235   1.429   0.388 -0.1476 -0.2658  0.5809
 7463SOL    HW128226  11.258   1.346   0.428  2.5135 -0.1407 -0.4774
 7463SOL    HW228227  11.258   1.495   0.453  0.3292 -0.2530  0.4047
 7464SOL     OW28228  10.585   0.148   8.266 -0.2320 -0.5101  0.3240
 7464SOL    HW128229  10.498   0.168   8.231 -0.6656 -1.2245  0.9607
 7464SOL    HW228230  10.568   0.097   8.345  0.7760 -0.7497  0.4012
 7465SOL     OW28231   5.655   7.141   5.171  0.1749 -0.0071  0.3122
 7465SOL    HW128232   5.674   7.131   5.264 -0.1757 -0.6212  0.3234
 7465SOL    HW228233   5.581   7.083   5.155  1.2033 -1.1095 -0.6582
 7466SOL     OW28234   5.326  10.787   2.186 -0.1732 -0.4301 -0.1526
 7466SOL    HW128235   5.354  10.718   2.246  2.3954  1.7478  1.3681
 7466SOL    HW228236   5.295  10.857   2.242 -1.8449  0.0745 -1.6161
 7467SOL     OW28237   7.241   2.557   9.335 -0.2217  0.0115  0.0989
 7467SOL    HW128238   7.239   2.469   9.298 -1.2497  0.1148 -0.1123
 7467SOL    HW228239   7.261   2.543   9.428  1.0468 -0.3329 -0.2108
 7468SOL     OW28240   5.647   2.887   9.881 -0.1333 -0.5215  0.3069
 7468SOL    HW128241   5.683   2.829   9.947  0.4376  0.6516  1.0651
 7468SOL    HW228242   5.688   2.972   9.899  0.4552 -0.2889 -1.8993
 7469SOL     OW28243   8.750   9.050   3.079  0.0600 -0.5504  0.3172
 7469SOL    HW128244   8.845   9.060   3.075 -0.0652  0.5034 -0.1449
 7469SOL    HW228245   8.736   8.958   3.057  0.8867 -0.3552 -1.1956
 7470SOL     OW28246   9.459   4.815   9.847  0.0668 -0.2066 -0.0837
 7470SOL    HW128247   9.514   4.754   9.799 -0.4378 -0.2027 -0.6778
 7470SOL    HW228248   9.517   4.854   9.912  1.1900  0.9609 -1.7136
 7471SOL     OW28249   0.015   5.871   3.379  0.6183 -1.0744  0.4774
 7471SOL    HW128250   0.091   5.862   3.322 -0.0219  0.0492 -0.5887
 7471SOL    HW228251   0.015   5.963   3.406 -1.3360 -0.5678 -1.0020
 7472SOL     OW28252   4.827  10.326  11.983  0.3174 -0.5760 -0.6039
 7472SOL    HW128253   4.819  10.231  11.977  1.0616 -0.6577 -0.3623
 7472SOL    HW228254   4.920  10.342  11.999  0.2441  0.2086 -0.9059
 7473SOL     OW28255  10.880   2.271   2.286 -0.4823 -0.3706  0.3620
 7473SOL    HW128256  10.857   2.204   2.222  0.2191  0.7564 -1.1522
 7473SOL    HW228257  10.946   2.230   2.341 -0.9521 -1.3077  0.2526
 7474SOL     OW28258   3.708   4.705   5.104  0.2102  0.2321  0.0090
 7474SOL    HW128259   3.648   4.700   5.030  0.4757  0.4123 -0.2197
 7474SOL    HW228260   3.726   4.613   5.126  0.4058  0.1796 -0.3731
 7475SOL     OW28261   0.868   5.742   0.204 -0.0885  0.0852 -0.4069
 7475SOL    HW128262   0.801   5.805   0.180  0.3855  0.6485 -0.2639
 7475SOL    HW228263   0.928   5.790   0.261  0.0882 -0.5889 -0.0093
 7476SOL     OW28264   4.343   5.752   5.455  0.9340 -0.1202 -0.2050
 7476SOL    HW128265   4.261   5.707   5.433  0.1989  1.0117  0.1696
 7476SOL    HW228266   4.357   5.812   5.382  1.3818 -0.2291 -0.2123
 7477SOL     OW28267   6.018   3.250  11.247  0.3055 -0.0641 -0.6592
 7477SOL    HW128268   5.962   3.215  11.178 -0.3460  1.9151 -1.2170
 7477SOL    HW228269   6.037   3.340  11.219  0.7557  0.5044  1.3058
 7478SOL     OW28270   8.506   0.676   8.968  0.3128  0.2847  0.2770
 7478SOL    HW128271   8.493   0.745   9.033  0.2225 -0.0747  0.6442
 7478SOL    HW228272   8.420   0.635   8.959 -0.2053  1.6665 -1.6227
 7479SOL     OW28273   4.509   1.554   5.893 -0.1403  0.0121  0.0170
 7479SOL    HW128274   4.477   1.643   5.903  0.0257 -0.0527  1.2334
 7479SOL    HW228275   4.437   1.499   5.922  0.9892 -0.1359  2.7897
 7480SOL     OW28276   2.361   8.557   7.947 -0.5328 -0.2465 -0.2483
 7480SOL    HW128277   2.368   8.493   8.018 -1.3779  0.7921  0.8156
 7480SOL    HW228278   2.431   8.620   7.965 -1.3644  0.5624  0.2739
 7481SOL     OW28279   9.315   7.325   3.257 -0.4202  0.0638  0.1790
 7481SOL    HW128280   9.350   7.309   3.169 -1.1124 -0.9144  0.0630
 7481SOL    HW228281   9.310   7.421   3.263 -0.6142  0.1449 -0.9552
 7482SOL     OW28282   8.076   7.997  11.924 -0.3385 -0.4555 -0.1497
 7482SOL    HW128283   8.036   7.968  11.842 -1.2526  0.0497  0.0973
 7482SOL    HW228284   8.017   8.065  11.956 -0.8346 -1.6863  1.7009
 7483SOL     OW28285   8.706   8.201   3.832 -0.2200  0.0116 -0.4544
 7483SOL    HW128286   8.713   8.284   3.786 -2.1471 -0.0660 -0.9793
 7483SOL    HW228287   8.620   8.168   3.809 -0.0685 -1.4552  0.8851
 7484SOL     OW28288   1.226   5.381  10.586 -0.1148  0.3529 -0.1217
 7484SOL    HW128289   1.293   5.373  10.655  0.9911 -0.5502 -1.2516
 7484SOL    HW228290   1.263   5.332  10.512 -2.2627 -0.6149 -0.6211
 7485SOL     OW28291  10.313   8.351   2.052 -0.2968  0.6913  0.1934
 7485SOL    HW128292  10.368   8.273   2.050 -0.2401  0.7207  0.6271
 7485SOL    HW228293  10.374   8.424   2.047 -0.3032  0.7222  0.5795
 7486SOL     OW28294   6.394   4.993   1.940 -0.0796 -0.0467 -0.0169
 7486SOL    HW128295   6.384   4.924   2.005  0.0493 -1.0927 -1.0781
 7486SOL    HW228296   6.445   5.061   1.984 -1.7776  0.2415  1.6639
 7487SOL     OW28297   3.046   1.255  12.150 -0.2823 -0.4080 -0.4299
 7487SOL    HW128298   3.013   1.166  12.151 -0.1484 -0.4744 -1.5398
 7487SOL    HW228299   2.970   1.309  12.170 -0.0415 -0.8227  2.0463
 7488SOL     OW28300   5.421   0.068   6.075 -0.3114  0.1176 -0.0374
 7488SOL    HW128301   5.356  -0.002   6.068 -0.3895  0.2513 -0.6638
 7488SOL    HW228302   5.434   0.097   5.985  1.9822 -1.1395 -0.1774
 7489SOL     OW28303   1.750  12.227   7.001 -0.1628 -0.2016 -0.0639
 7489SOL    HW128304   1.717  12.300   6.950  0.7170  0.7213  0.6363
 7489SOL    HW228305   1.782  12.267   7.082 -1.1788 -1.5712  1.0677
 7490SOL     OW28306   8.554   1.139   4.562 -0.1332 -0.7078 -0.6567
 7490SOL    HW128307   8.643   1.154   4.593  0.1641 -0.4653 -1.6002
 7490SOL    HW228308   8.531   1.218   4.513 -0.4597 -1.2051 -1.3238
 7491SOL     OW28309  10.118   1.121   8.313  0.4716  0.4183  0.2472
 7491SOL    HW128310  10.027   1.135   8.338  0.3058  0.9461 -0.6278
 7491SOL    HW228311  10.147   1.205   8.277  0.8750 -0.1547 -0.7916
 7492SOL     OW28312   0.378   6.777  10.437  0.2730 -0.2720 -0.4499
 7492SOL    HW128313   0.438   6.747  10.504  0.1331  0.3340 -0.0480
 7492SOL    HW228314   0.416   6.860  10.405 -0.1671 -0.0605 -0.4305
 7493SOL     OW28315   7.826   8.624  10.945  0.3122 -0.7652 -0.4284
 7493SOL    HW128316   7.866   8.540  10.922  0.6642 -1.4815  2.4446
 7493SOL    HW228317   7.865   8.648  11.029 -1.8640  0.8480  0.2322
 7494SOL     OW28318  11.462   3.718   0.374  0.2160 -0.3366  0.1677
 7494SOL    HW128319  11.444   3.788   0.437 -0.4538  0.5388 -0.9597
 7494SOL    HW228320  11.466   3.638   0.427  0.6167  0.4975  1.4272
 7495SOL     OW28321   4.021   0.719   4.999  0.2565 -0.4768  0.9305
 7495SOL    HW128322   3.947   0.771   4.965 -2.1571 -3.8276  0.4993
 7495SOL    HW228323   4.032   0.749   5.089  0.2886  1.9793  0.1869
 7496SOL     OW28324   3.670   6.038   6.301  0.0433  0.5315 -0.2723
 7496SOL    HW128325   3.611   6.045   6.376 -1.7569  1.2267 -1.6893
 7496SOL    HW228326   3.657   6.119   6.252 -0.0440 -0.5448 -2.1493
 7497SOL     OW28327   5.815   5.782   2.658  0.0915  0.4576  0.5202
 7497SOL    HW128328   5.878   5.711   2.650 -0.2888  0.3240 -2.4163
 7497SOL    HW228329   5.868   5.857   2.686  0.8342 -0.4796  1.7540
 7498SOL     OW28330   1.390   2.305   7.454 -0.5667 -0.6168  0.5478
 7498SOL    HW128331   1.318   2.360   7.425  0.7296  0.9958  0.2310
 7498SOL    HW228332   1.456   2.314   7.385  1.0824  0.2991  2.1545
 7499SOL     OW28333  11.537  11.482   4.010  0.0516 -0.4597 -0.8755
 7499SOL    HW128334  11.461  11.455   4.062  0.4571  0.5369  0.2788
 7499SOL    HW228335  11.516  11.571   3.982  1.1042  0.1498  0.1522
 7500SOL     OW28336   7.000   5.472   0.245 -0.6724 -0.0225  0.0179
 7500SOL    HW128337   6.908   5.499   0.254 -0.7077 -0.2372  0.2861
 7500SOL    HW228338   7.007   5.444   0.154 -0.4024  1.7826 -0.5648
 7501SOL     OW28339   5.929   2.282  11.626 -0.0616  0.3356 -0.0379
 7501SOL    HW128340   6.005   2.308  11.677  1.5591 -1.8878 -1.1642
 7501SOL    HW228341   5.887   2.214  11.679 -0.1498  0.1990 -0.2829
 7502SOL     OW28342   1.608   3.030  11.827 -0.1274  0.3500 -0.1588
 7502SOL    HW128343   1.582   3.040  11.918  0.0383 -0.8516  0.0424
 7502SOL    HW228344   1.614   2.935  11.814  2.2052  0.5140 -0.7523
 7503SOL     OW28345   1.179  10.055   8.637 -0.1284 -0.4858 -0.2273
 7503SOL    HW128346   1.253  10.101   8.677  0.3374 -0.7548 -0.7604
 7503SOL    HW228347   1.124  10.124   8.601  0.9996 -0.3561 -1.7829
 7504SOL     OW28348   1.931   2.620   0.416 -0.2653 -0.0594  0.3721
 7504SOL    HW128349   1.904   2.535   0.380  1.9809 -0.1948 -1.2109
 7504SOL    HW228350   1.898   2.684   0.353  2.3864 -0.2008 -1.3438
 7505SOL     OW28351   9.659   6.471   0.588 -0.0681 -0.3123 -0.1005
 7505SOL    HW128352   9.721   6.519   0.642  0.7898 -2.0765  0.5754
 7505SOL    HW228353   9.694   6.382   0.585  0.9030 -0.0570 -4.9566
 7506SOL     OW28354   0.316   4.788  10.784 -0.1708  0.4400 -0.7470
 7506SOL    HW128355   0.266   4.870  10.779 -0.3029  0.4243  0.1565
 7506SOL    HW228356   0.399   4.812  10.825 -0.4161  0.0424  0.0080
 7507SOL     OW28357   4.655   4.899   2.216 -0.0144 -0.3238  0.1320
 7507SOL    HW128358   4.718   4.969   2.197 -2.6514  2.0798 -0.4853
 7507SOL    HW228359   4.663   4.884   2.310  1.7386 -0.4278  0.0032
 7508SOL     OW28360   2.422   2.726   2.505  0.6059 -0.0531  0.1845
 7508SOL    HW128361   2.367   2.649   2.515  0.3333  0.0359 -0.5670
 7508SOL    HW228362   2.415   2.772   2.589 -2.6819  1.3881 -0.7090
 7509SOL     OW28363   1.135   7.060   4.733  0.3742 -0.3148 -0.1883
 7509SOL    HW128364   1.196   7.102   4.672  0.7908  1.1399  1.1506
 7509SOL    HW228365   1.150   6.966   4.721  1.2987 -0.0386 -1.4521
 7510SOL     OW28366   3.650   7.206   9.961 -0.4161 -0.2807  0.3764
 7510SOL    HW128367   3.659   7.295   9.997  1.2123 -0.4933  0.5943
 7510SOL    HW228368   3.634   7.151  10.037 -1.2494 -0.2030  0.2616
 7511SOL     OW28369   2.998   1.563   4.119  0.0601 -0.1106 -0.1726
 7511SOL    HW128370   2.911   1.564   4.159  0.0115  0.4418 -0.2864
 7511SOL    HW228371   2.985   1.596   4.030  0.4239  0.2324 -0.1025
 7512SOL     OW28372   6.463  12.225   4.972  1.1647 -0.3765 -1.1593
 7512SOL    HW128373   6.402  12.154   4.994 -0.3699  1.3717  0.6814
 7512SOL    HW228374   6.467  12.223   4.877 -2.8406  0.0876 -1.5404
 7513SOL     OW28375   3.315   7.216   6.476 -0.1975  0.1705 -0.5648
 7513SOL    HW128376   3.246   7.228   6.541 -0.7944  3.0048 -1.5691
 7513SOL    HW228377   3.389   7.180   6.525 -1.1788  0.5593  1.2955
 7514SOL     OW28378   4.281   3.264   2.568 -0.0791 -0.3481 -0.7093
 7514SOL    HW128379   4.304   3.291   2.479  1.0486  0.0174 -0.3221
 7514SOL    HW228380   4.344   3.309   2.624 -2.9637  2.4608  0.6453
 7515SOL     OW28381   5.001  10.717   2.909  0.3740 -0.2558 -0.2824
 7515SOL    HW128382   5.057  10.645   2.879  0.6445  0.7590 -2.3221
 7515SOL    HW228383   4.932  10.723   2.843 -0.9912 -0.0986  1.0900
 7516SOL     OW28384  11.314  10.265  11.101 -0.0819 -0.1538 -0.0525
 7516SOL    HW128385  11.309  10.353  11.137 -0.8341  1.0909 -2.8628
 7516SOL    HW228386  11.229  10.226  11.121 -0.4467  0.4671 -0.3574
 7517SOL     OW28387   6.360   0.522   9.482 -0.0397  0.0212 -0.2126
 7517SOL    HW128388   6.444   0.519   9.529 -0.7806  0.0933  1.1760
 7517SOL    HW228389   6.294   0.527   9.552 -1.1316  1.5476 -1.3010
 7518SOL     OW28390   3.872   9.153   5.371  0.0509 -0.1005 -0.5266
 7518SOL    HW128391   3.855   9.114   5.286  0.1204 -0.5469 -0.3362
 7518SOL    HW228392   3.954   9.201   5.360  0.6184 -1.0278 -0.4277
 7519SOL     OW28393   7.319   5.380   0.825 -0.2546 -0.1628  0.1792
 7519SOL    HW128394   7.309   5.370   0.919  0.4376  0.0693  0.2787
 7519SOL    HW228395   7.392   5.441   0.814 -0.4276 -0.0645 -0.5031
 7520SOL     OW28396   1.686   6.036   2.267 -0.4687  0.0856 -0.4739
 7520SOL    HW128397   1.623   6.003   2.203 -0.6794  1.8257 -1.2073
 7520SOL    HW228398   1.770   6.037   2.220  0.2840 -2.5513  0.5998
 7521SOL     OW28399   7.389   9.847   6.111  0.2006  0.0379 -0.1704
 7521SOL    HW128400   7.333   9.774   6.087 -1.4338  1.5811 -1.3358
 7521SOL    HW228401   7.406   9.836   6.205 -1.8636 -0.6189  0.1542
 7522SOL     OW28402   2.550   4.443   8.811 -0.2591  0.0821 -0.1163
 7522SOL    HW128403   2.507   4.515   8.857 -0.1871 -0.6186  1.0967
 7522SOL    HW228404   2.580   4.384   8.881  1.3171 -0.2137 -0.9794
 7523SOL     OW28405  11.955   3.885   2.923  0.5007 -0.6568 -0.0136
 7523SOL    HW128406  11.982   3.875   3.015 -0.9900 -1.9753  0.3113
 7523SOL    HW228407  11.997   3.811   2.878 -0.5525 -1.3024  0.0419
 7524SOL     OW28408   2.548   1.588   9.146 -0.2186  0.4944 -0.1418
 7524SOL    HW128409   2.581   1.646   9.078 -1.1615 -0.2971 -1.3128
 7524SOL    HW228410   2.601   1.509   9.137 -0.5689  0.2625 -0.1831
 7525SOL     OW28411   3.297   9.517   8.066 -0.4362 -0.4634 -0.2823
 7525SOL    HW128412   3.210   9.477   8.067  0.0142 -1.4835  0.3683
 7525SOL    HW228413   3.355   9.446   8.040  0.2557  0.0920 -0.2710
 7526SOL     OW28414   1.718  10.089   1.810 -0.1523 -0.3041  0.0496
 7526SOL    HW128415   1.706  10.010   1.758 -0.5360 -0.1950 -0.0367
 7526SOL    HW228416   1.745  10.058   1.896 -3.3344 -0.7840  1.0309
 7527SOL     OW28417   5.834   7.687   0.250  0.1993 -0.6998  0.0865
 7527SOL    HW128418   5.834   7.627   0.176  0.6471 -1.0302  0.3526
 7527SOL    HW228419   5.750   7.671   0.293 -1.0796  1.0414 -1.5718
 7528SOL     OW28420   0.982  10.048  12.054  0.1270  0.1011 -0.0456
 7528SOL    HW128421   0.976   9.982  11.985  0.9411  0.2244 -0.2513
 7528SOL    HW228422   0.936  10.125  12.019  2.1596  0.8390 -1.3060
 7529SOL     OW28423   7.373   7.841   1.036 -0.1901 -0.0382  0.5998
 7529SOL    HW128424   7.341   7.808   1.120  1.9838  0.3688  1.6389
 7529SOL    HW228425   7.420   7.768   0.998  0.6864  0.4344  0.7587
 7530SOL     OW28426   1.202   6.582  11.484  0.5280  0.1862  0.0310
 7530SOL    HW128427   1.135   6.634  11.528  0.6957  0.9570 -0.5908
 7530SOL    HW228428   1.199   6.613  11.393  0.6569 -0.8747 -0.3427
 7531SOL     OW28429   6.043   7.364   6.352 -0.3350 -0.4135 -0.0085
 7531SOL    HW128430   6.096   7.433   6.311  1.4213 -0.3535  2.1525
 7531SOL    HW228431   5.963   7.409   6.380  0.5977  0.7218  0.9773
 7532SOL     OW28432  12.216  11.053   0.961 -0.1634 -0.2470 -0.3010
 7532SOL    HW128433  12.211  10.963   0.990  0.4382 -0.2040 -0.0714
 7532SOL    HW228434  12.307  11.078   0.971 -0.9575  1.7892  3.8745
 7533SOL     OW28435   3.130   5.984   1.338 -0.0090 -0.0800  0.2056
 7533SOL    HW128436   3.135   6.061   1.281  0.0907  0.1295  0.4940
 7533SOL    HW228437   3.217   5.979   1.378 -0.2439  0.0932  0.7479
 7534SOL     OW28438   2.205   0.571   8.257  0.0084  0.6029 -0.1950
 7534SOL    HW128439   2.298   0.555   8.269  0.2994  1.1912 -1.4456
 7534SOL    HW228440   2.201   0.640   8.190 -1.2936  1.5758  0.8209
 7535SOL     OW28441  10.673   7.956  12.106 -0.1163  0.3777  0.3559
 7535SOL    HW128442  10.653   7.867  12.134 -1.8210  1.3250  2.4229
 7535SOL    HW228443  10.597   8.008  12.133  0.2346  2.2682 -1.9460
 7536SOL     OW28444   8.071   4.839   3.515  0.3074  0.4501 -0.5072
 7536SOL    HW128445   8.141   4.800   3.568  0.2768 -0.0452 -0.8245
 7536SOL    HW228446   8.114   4.864   3.433  0.7095  2.6639  0.2929
 7537SOL     OW28447   2.507  11.923   0.743 -0.6699 -0.2569 -0.3114
 7537SOL    HW128448   2.563  11.894   0.815 -0.7452  0.7008  0.1455
 7537SOL    HW228449   2.517  11.855   0.676  1.4362  0.1313 -0.4484
 7538SOL     OW28450   2.659   2.331   6.531  0.1755  0.0213  0.3295
 7538SOL    HW128451   2.656   2.247   6.485  0.2287  0.0324  0.3060
 7538SOL    HW228452   2.752   2.352   6.538  0.1374  0.8305 -1.0362
 7539SOL     OW28453   9.982   5.093   7.298 -0.6255  0.3843 -0.1224
 7539SOL    HW128454  10.023   5.085   7.213  1.2472  0.1493  0.7491
 7539SOL    HW228455   9.989   5.005   7.337  1.2979  1.1441  1.4094
 7540SOL     OW28456   5.320   1.606   3.924  0.1267 -0.1175  0.6415
 7540SOL    HW128457   5.389   1.672   3.928  0.9186 -0.8300 -0.7099
 7540SOL    HW228458   5.353   1.538   3.865 -1.4398 -0.8281  0.5006
 7541SOL     OW28459   8.418   1.077   5.660 -0.4264 -0.8250  0.9551
 7541SOL    HW128460   8.397   1.037   5.744 -0.9015  0.2378  1.3514
 7541SOL    HW228461   8.514   1.075   5.656 -0.4251 -1.5139  1.1942
 7542SOL     OW28462   9.269   2.715   6.355  0.2056 -0.0078 -0.2347
 7542SOL    HW128463   9.237   2.800   6.385 -0.3825  0.3973 -1.9624
 7542SOL    HW228464   9.214   2.651   6.400 -0.7495  0.5844 -0.5575
 7543SOL     OW28465   6.051   0.495   3.658 -0.2254 -0.3387  0.2225
 7543SOL    HW128466   6.025   0.585   3.675  1.0326  0.0794  0.0709
 7543SOL    HW228467   5.980   0.459   3.604 -0.3431  0.8221 -0.4258
 7544SOL     OW28468   0.558   7.778   0.381  0.2355 -0.1950 -0.0126
 7544SOL    HW128469   0.497   7.799   0.451  0.0460 -0.9970  0.0648
 7544SOL    HW228470   0.629   7.842   0.391  0.1820 -0.2714  0.8674
 7545SOL     OW28471   6.016  12.126   0.566 -0.2586 -0.7456  0.3490
 7545SOL    HW128472   5.992  12.040   0.602 -1.9976 -0.7945 -0.7982
 7545SOL    HW228473   5.969  12.189   0.621  1.2834 -0.4591  1.4046
 7546SOL     OW28474   7.252   6.371   8.775 -0.5012  0.4911  0.0639
 7546SOL    HW128475   7.318   6.306   8.799 -0.1768 -0.0482 -2.0943
 7546SOL    HW228476   7.169   6.325   8.785 -0.3129 -0.0557 -0.7847
 7547SOL     OW28477  11.526   3.058   4.149 -0.2711  0.6790 -0.7030
 7547SOL    HW128478  11.455   3.065   4.212  1.1177 -0.0371  1.0148
 7547SOL    HW228479  11.512   2.973   4.107  0.4128 -0.2050  0.7736
 7548SOL     OW28480   4.290   0.811   3.050 -0.2646 -0.1499 -0.2358
 7548SOL    HW128481   4.301   0.730   3.100 -0.8500 -0.3209 -0.3780
 7548SOL    HW228482   4.207   0.847   3.081 -0.4885 -0.1096 -0.8736
 7549SOL     OW28483   1.167   5.934   9.959  0.3251 -0.2348  0.0279
 7549SOL    HW128484   1.100   5.886   9.910 -0.0435 -0.0619  0.3556
 7549SOL    HW228485   1.249   5.917   9.912  0.1199 -0.7999 -0.1282
 7550SOL     OW28486  11.569   0.433   1.397  0.0299  0.0564  0.1160
 7550SOL    HW128487  11.577   0.404   1.488  1.3820  0.0393  0.0102
 7550SOL    HW228488  11.512   0.368   1.356  1.7720 -1.6262  0.2621
 7551SOL     OW28489   8.286   2.105   2.192 -0.2102 -0.3523  0.5056
 7551SOL    HW128490   8.375   2.110   2.159 -0.1064  1.0544  0.9332
 7551SOL    HW228491   8.295   2.072   2.281 -0.0957  0.1127  0.6633
 7552SOL     OW28492   6.030   3.436   4.924  0.0899  0.3613 -0.3488
 7552SOL    HW128493   6.047   3.375   4.852 -1.5696  0.4180 -0.8392
 7552SOL    HW228494   6.045   3.385   5.003 -2.8163 -1.2928 -0.7140
 7553SOL     OW28495  12.182   8.164   3.287  0.1074  0.0993 -0.4183
 7553SOL    HW128496  12.175   8.239   3.229 -1.4777  1.0700  0.9354
 7553SOL    HW228497  12.211   8.200   3.370 -1.9683 -0.4866  0.6474
 7554SOL     OW28498  10.096   3.552   1.852 -0.4197 -0.2545  0.4297
 7554SOL    HW128499  10.049   3.525   1.931 -0.3449 -1.1072  0.1827
 7554SOL    HW228500  10.183   3.576   1.883 -0.5446 -0.1159  0.6740
 7555SOL     OW28501  11.965  11.869   6.693 -0.2751 -0.2648  0.1563
 7555SOL    HW128502  11.967  11.959   6.726 -0.9523 -0.3680  0.5150
 7555SOL    HW228503  11.871  11.848   6.688 -0.1511 -0.5918 -0.9256
 7556SOL     OW28504   8.189   2.813   0.324 -0.5255  0.4821  0.5108
 7556SOL    HW128505   8.121   2.812   0.392 -1.0104  1.1964  0.0604
 7556SOL    HW228506   8.174   2.734   0.273 -2.1801  1.4957 -0.6656
 7557SOL     OW28507   0.959   5.418   9.712 -0.1047  0.2785 -0.3031
 7557SOL    HW128508   1.027   5.355   9.688 -0.4085 -0.0524 -0.3028
 7557SOL    HW228509   0.911   5.434   9.631 -0.1367  0.3771 -0.2645
 7558SOL     OW28510   7.567   4.345   4.901 -0.0442 -0.4571  0.1138
 7558SOL    HW128511   7.635   4.386   4.955  0.1822  1.7110 -1.6801
 7558SOL    HW228512   7.602   4.258   4.882  1.9429  0.3519 -0.1880
 7559SOL     OW28513   4.257  11.250   3.211 -0.4845  0.0327  0.2130
 7559SOL    HW128514   4.351  11.243   3.227 -0.7318  0.5686  2.1745
 7559SOL    HW228515   4.244  11.208   3.127  1.5174 -0.0212 -0.1212
 7560SOL     OW28516   3.575   4.670   8.257 -0.7275 -0.0967 -0.0862
 7560SOL    HW128517   3.547   4.663   8.166  1.0468  0.8307 -0.7626
 7560SOL    HW228518   3.563   4.582   8.293 -1.3744 -0.4976 -1.2239
 7561SOL     OW28519  10.547   5.366   8.435  0.2403 -0.1442 -0.0123
 7561SOL    HW128520  10.477   5.407   8.384  0.0271  0.8196  0.9976
 7561SOL    HW228521  10.506   5.344   8.519  0.6923 -1.2554 -0.0727
 7562SOL     OW28522  11.123   4.654   1.547  0.0304  0.0494 -0.3234
 7562SOL    HW128523  11.031   4.681   1.552 -0.5395 -1.8965  0.1737
 7562SOL    HW228524  11.157   4.663   1.636  0.1932  0.2795 -0.4057
 7563SOL     OW28525   8.675   7.893   6.714 -0.1377 -0.2282  0.4363
 7563SOL    HW128526   8.750   7.899   6.655  1.4157 -0.0556  2.3165
 7563SOL    HW228527   8.606   7.852   6.662  1.3300 -0.5969 -1.3042
 7564SOL     OW28528   7.758  11.714   6.741 -0.2408 -0.1335  0.4230
 7564SOL    HW128529   7.784  11.783   6.801 -3.0250 -0.7877  2.5682
 7564SOL    HW228530   7.811  11.638   6.767  1.9801  0.7443 -1.1941
 7565SOL     OW28531   7.398   8.043   0.868  0.2892  0.2847 -0.6457
 7565SOL    HW128532   7.394   7.965   0.924  0.3858  1.6050  1.3281
 7565SOL    HW228533   7.312   8.084   0.879  0.4173  0.7209 -1.2541
 7566SOL     OW28534   4.533   6.969   5.083  0.3024  0.7095 -0.2036
 7566SOL    HW128535   4.517   7.063   5.096 -1.5318  0.3289  0.6668
 7566SOL    HW228536   4.518   6.931   5.170  0.1094 -0.4947 -0.7508
 7567SOL     OW28537   2.568   0.619   3.621  0.5210 -0.0861  0.5724
 7567SOL    HW128538   2.655   0.622   3.581  0.1289  0.3879 -0.2683
 7567SOL    HW228539   2.510   0.657   3.555 -0.5563 -1.7508  0.4904
 7568SOL     OW28540  11.372   6.531  12.319  0.0077  0.2823 -0.2760
 7568SOL    HW128541  11.359   6.597  12.250  1.1503  1.2264  0.3838
 7568SOL    HW228542  11.427   6.464  12.277 -0.4860  0.1332 -0.7017
 7569SOL     OW28543  12.297   2.611   9.399  0.1546  0.5215 -0.4949
 7569SOL    HW128544  12.361   2.659   9.348  1.1690 -1.5147 -1.2564
 7569SOL    HW228545  12.330   2.521   9.401 -0.6271  0.1910  2.5044
 7570SOL     OW28546   7.471   2.102  10.848 -0.2561  0.1017  0.3943
 7570SOL    HW128547   7.505   2.111  10.759 -0.4892  0.2826  0.3231
 7570SOL    HW228548   7.535   2.148  10.903 -0.2780  0.2625  0.2853
 7571SOL     OW28549   5.271   4.379   6.675  0.5456  0.2855  0.4568
 7571SOL    HW128550   5.352   4.387   6.624  0.0725 -2.6094 -0.9809
 7571SOL    HW228551   5.298   4.336   6.756  0.4129 -1.1122 -0.2256
 7572SOL     OW28552   0.386  10.143   4.670  0.2395 -0.0408 -0.0009
 7572SOL    HW128553   0.338  10.069   4.632 -0.7145  0.8696 -0.6352
 7572SOL    HW228554   0.465  10.152   4.617  0.9374 -1.2866  0.7826
 7573SOL     OW28555   5.329   5.789  12.201  0.0603 -0.0674  0.1315
 7573SOL    HW128556   5.412   5.831  12.180 -0.5376  1.1006  0.0189
 7573SOL    HW228557   5.273   5.860  12.231 -0.9680 -0.7970  0.0041
 7574SOL     OW28558   5.724   8.187   0.274 -0.1249 -0.2853  0.3137
 7574SOL    HW128559   5.721   8.148   0.187  1.5297 -1.6045  0.7776
 7574SOL    HW228560   5.708   8.113   0.333 -2.2511  0.7611  1.1604
 7575SOL     OW28561   9.260   5.713   2.859 -0.4822 -0.4317 -0.0086
 7575SOL    HW128562   9.206   5.775   2.907 -1.0247  0.0993 -1.2773
 7575SOL    HW228563   9.200   5.671   2.797  0.2569 -0.8783 -0.4435
 7576SOL     OW28564   1.147   9.032  12.049  0.3371  0.1222  0.4795
 7576SOL    HW128565   1.084   8.966  12.020  1.4464 -0.7053 -0.1052
 7576SOL    HW228566   1.104   9.075  12.123  0.0121 -1.9874  1.5875
 7577SOL     OW28567   7.944   2.716   5.433  0.3257 -0.0676 -0.1574
 7577SOL    HW128568   8.023   2.674   5.402 -0.0631 -0.2018 -0.9932
 7577SOL    HW228569   7.879   2.698   5.365 -1.0519 -1.8730  1.5290
 7578SOL     OW28570   9.234  12.277   8.615  0.0836 -0.0155  0.3767
 7578SOL    HW128571   9.228  12.208   8.549 -0.2219  1.2123 -0.9338
 7578SOL    HW228572   9.145  12.313   8.622  0.2463  0.2957  0.9885
 7579SOL     OW28573   6.088   4.788   9.381  0.0852 -0.0425  0.2707
 7579SOL    HW128574   6.137   4.721   9.334 -0.5222 -0.6168  0.4423
 7579SOL    HW228575   6.002   4.789   9.339 -0.0645  0.2965  0.5801
 7580SOL     OW28576   2.963  11.718   8.899 -0.3518 -0.1675 -0.0757
 7580SOL    HW128577   3.041  11.667   8.921 -1.2260 -1.9173 -0.8935
 7580SOL    HW228578   2.997  11.791   8.847  0.7830 -0.7556 -0.1950
 7581SOL     OW28579   7.517   7.820   8.767 -0.1261  0.0836  0.3613
 7581SOL    HW128580   7.476   7.905   8.781 -1.0911 -0.5001  1.2006
 7581SOL    HW228581   7.551   7.794   8.852 -0.3088 -0.6036  0.2352
 7582SOL     OW28582   9.340   3.659  10.823 -0.2441  0.3947  0.3444
 7582SOL    HW128583   9.246   3.672  10.836 -0.3918  0.0724 -0.3648
 7582SOL    HW228584   9.381   3.731  10.871 -0.8367  0.3230  0.9648
 7583SOL     OW28585   9.823   2.792   4.939  0.4946 -0.0880  0.2028
 7583SOL    HW128586   9.827   2.820   4.847 -2.1183 -1.6187 -0.4938
 7583SOL    HW228587   9.841   2.698   4.937 -0.6330 -0.3496  1.0843
 7584SOL     OW28588   0.913  11.156   5.185  0.0752 -0.1424  0.0270
 7584SOL    HW128589   0.837  11.118   5.142  0.1375 -0.0803 -0.1405
 7584SOL    HW228590   0.950  11.085   5.238 -0.0016 -0.2184 -0.0234
 7585SOL     OW28591   2.428   3.242   0.589  0.3317 -0.0801 -0.1070
 7585SOL    HW128592   2.385   3.175   0.537  1.1035 -1.8231  1.3827
 7585SOL    HW228593   2.367   3.260   0.661  0.5243  0.1268  0.0081
 7586SOL     OW28594   3.593   0.913   3.972  0.1715  0.1364 -0.2800
 7586SOL    HW128595   3.539   0.992   3.969 -0.1642 -0.1167 -1.2775
 7586SOL    HW228596   3.632   0.907   3.885 -0.8730 -1.5139 -0.6959
 7587SOL     OW28597   4.541   7.737   0.422 -0.3992 -0.2725 -0.5316
 7587SOL    HW128598   4.483   7.772   0.354 -0.0623  1.6110  0.0839
 7587SOL    HW228599   4.482   7.700   0.487 -0.9238  1.0410 -0.2218
 7588SOL     OW28600   2.323   1.155  10.711 -0.7188 -0.0271 -0.2036
 7588SOL    HW128601   2.402   1.189  10.669 -1.2303  0.4922 -0.7479
 7588SOL    HW228602   2.356   1.094  10.777  0.3889  2.8210  2.1513
 7589SOL     OW28603   2.301   3.052   5.655 -0.5938  0.0344  0.4530
 7589SOL    HW128604   2.365   3.083   5.720 -0.0722  0.7114 -0.3649
 7589SOL    HW228605   2.313   3.111   5.580 -1.8599 -0.1300  0.1070
 7590SOL     OW28606   0.924  11.036  10.431  0.4182 -0.0598  0.5416
 7590SOL    HW128607   0.964  11.055  10.346 -1.9949  1.6698 -0.3339
 7590SOL    HW228608   0.910  10.941  10.430  0.1999 -0.0455 -1.1452
 7591SOL     OW28609  11.709   8.953   3.456 -0.0977  0.8743  0.1821
 7591SOL    HW128610  11.735   9.010   3.383  0.1669 -1.3645 -1.5619
 7591SOL    HW228611  11.792   8.920   3.491 -0.1512 -2.6430 -2.4235
 7592SOL     OW28612  11.093   7.002   3.300  0.2283 -0.1594  0.4725
 7592SOL    HW128613  11.160   6.971   3.360  0.9294  0.2644 -0.0773
 7592SOL    HW228614  11.015   7.014   3.355  1.2520  1.6679  1.6155
 7593SOL     OW28615   4.640   2.887   2.672 -0.1283 -0.0345  0.0346
 7593SOL    HW128616   4.689   2.816   2.712 -2.3419 -0.6092  1.8744
 7593SOL    HW228617   4.569   2.844   2.624  0.1113  0.8496 -1.1685
 7594SOL     OW28618  11.837   2.874   5.572  0.3348  0.0556 -0.8900
 7594SOL    HW128619  11.868   2.961   5.546  0.5207  0.5910  0.9312
 7594SOL    HW228620  11.834   2.878   5.668 -0.9464 -1.5221 -0.8261
 7595SOL     OW28621   8.341  10.778   1.015 -0.0888  0.1793  0.3007
 7595SOL    HW128622   8.314  10.691   1.042 -0.7015  0.3608  0.2781
 7595SOL    HW228623   8.361  10.769   0.922 -0.1391  0.0634  0.3012
 7596SOL     OW28624   4.517   5.149   6.147 -0.2897 -0.4695  0.3986
 7596SOL    HW128625   4.445   5.211   6.157 -0.2447 -0.4360  0.5189
 7596SOL    HW228626   4.596   5.202   6.161 -0.2066 -0.3426 -0.5061
 7597SOL     OW28627   3.775   2.039   9.727 -0.3541 -0.1549  0.1927
 7597SOL    HW128628   3.705   1.994   9.680 -1.2771  0.7010  0.7111
 7597SOL    HW228629   3.734   2.070   9.808  0.3953  1.0722  0.1316
 7598SOL     OW28630   2.685   0.124   4.034  0.2802 -0.3807  0.1178
 7598SOL    HW128631   2.769   0.079   4.034  0.7084  0.3828  0.9245
 7598SOL    HW228632   2.620   0.054   4.042  0.8318 -0.9652 -0.3856
 7599SOL     OW28633   2.330   5.096   1.874  0.3820 -0.5110 -0.2506
 7599SOL    HW128634   2.359   5.042   1.800  2.0862  0.6507 -0.5045
 7599SOL    HW228635   2.406   5.152   1.894 -1.5388  2.5222 -0.7034
 7600SOL     OW28636   6.210   2.472   8.419 -0.0284  0.2886 -0.0484
 7600SOL    HW128637   6.197   2.378   8.412 -1.5134  0.1770  2.9249
 7600SOL    HW228638   6.139   2.503   8.475  1.2957  2.9456  0.3430
 7601SOL     OW28639  11.768   1.602   5.843 -0.0743 -0.2971 -0.3197
 7601SOL    HW128640  11.754   1.687   5.886  1.6350 -0.4239  0.5558
 7601SOL    HW228641  11.738   1.616   5.753 -0.9228  0.8715  0.1221
 7602SOL     OW28642   5.376   7.335  10.850 -0.1106 -0.0635 -0.0112
 7602SOL    HW128643   5.283   7.313  10.853 -0.2635  0.2363 -1.7434
 7602SOL    HW228644   5.387   7.404  10.915 -1.0554 -0.1975  0.3028
 7603SOL     OW28645   5.514   4.200  10.505 -0.6666  0.2858 -0.5266
 7603SOL    HW128646   5.423   4.180  10.525 -0.9548  2.8040  1.1794
 7603SOL    HW228647   5.554   4.217  10.591  1.5318 -1.0564 -1.2060
 7604SOL     OW28648   9.125   9.043   5.385  0.0245 -0.6801 -0.2183
 7604SOL    HW128649   9.185   9.109   5.419 -1.5631  0.1044  1.2413
 7604SOL    HW228650   9.122   8.977   5.454 -1.0034 -0.5476 -0.1215
 7605SOL     OW28651   3.974  10.969  12.126 -0.2512  0.0601  0.0491
 7605SOL    HW128652   3.901  11.027  12.104 -0.2584  0.2819  0.6433
 7605SOL    HW228653   4.026  11.019  12.189  0.1922 -0.2573 -0.0641
 7606SOL     OW28654   1.633   3.502   5.155 -0.3154 -0.1187  0.3502
 7606SOL    HW128655   1.701   3.542   5.100 -0.5231 -1.3554 -0.8333
 7606SOL    HW228656   1.551   3.538   5.122 -0.3686 -0.0081  0.5985
 7607SOL     OW28657   9.551   4.405   0.489 -0.1183 -0.1723  0.1553
 7607SOL    HW128658   9.509   4.321   0.467 -0.7267 -0.0233  0.7391
 7607SOL    HW228659   9.586   4.391   0.577 -0.3518  0.2359  0.3119
 7608SOL     OW28660   3.572   9.920   4.869 -0.6850  0.1013  0.1636
 7608SOL    HW128661   3.540   9.831   4.852  0.5772 -0.2595 -0.4307
 7608SOL    HW228662   3.667   9.911   4.872 -0.5975  1.1719  1.7001
 7609SOL     OW28663  10.721   6.907   2.305  0.2066 -0.0978  0.0848
 7609SOL    HW128664  10.796   6.865   2.348  0.3661  0.2790  0.1750
 7609SOL    HW228665  10.651   6.841   2.311  0.0781  0.1219  1.3568
 7610SOL     OW28666   5.019  11.545   6.846  0.3991 -0.2262  0.1169
 7610SOL    HW128667   5.058  11.505   6.923  2.2045  0.7249 -0.2454
 7610SOL    HW228668   4.973  11.622   6.879  1.0651  0.1095  0.2889
 7611SOL     OW28669  10.768   0.939   8.393  0.0023  0.1606 -0.0470
 7611SOL    HW128670  10.773   0.849   8.361 -1.4737  0.9139 -2.7214
 7611SOL    HW228671  10.677   0.964   8.381  0.5882  2.3400 -0.3535
 7612SOL     OW28672   7.570   7.662  11.125 -0.0090 -0.3554 -0.2660
 7612SOL    HW128673   7.508   7.662  11.198 -0.9295 -1.2808 -1.0232
 7612SOL    HW228674   7.545   7.737  11.072  0.6202  0.2803  0.3241
 7613SOL     OW28675   4.883   5.793  12.311  0.2858  0.3052  0.0087
 7613SOL    HW128676   4.958   5.733  12.315  0.6949  0.7330 -0.9256
 7613SOL    HW228677   4.818   5.746  12.259 -0.0814 -0.0483  0.7840
 7614SOL     OW28678  10.509  11.427   4.337  0.5556  0.1216 -0.4226
 7614SOL    HW128679  10.553  11.357   4.288 -0.8789 -0.0334 -1.5542
 7614SOL    HW228680  10.531  11.409   4.429 -0.3305 -2.2850 -0.5906
 7615SOL     OW28681   3.278   9.626   2.764 -0.4906 -0.0298  0.4528
 7615SOL    HW128682   3.342   9.561   2.793 -1.4251 -1.0189  0.3657
 7615SOL    HW228683   3.204   9.574   2.732 -0.0470  0.9840 -2.6001
 7616SOL     OW28684   4.060  11.452   1.522  0.0743  0.0295 -0.7994
 7616SOL    HW128685   4.070  11.499   1.604  0.4849 -1.7863  0.2433
 7616SOL    HW228686   3.992  11.386   1.539  2.7186 -2.9089 -0.5974
 7617SOL     OW28687   3.323  10.951   7.702 -0.6284  0.1416  0.1823
 7617SOL    HW128688   3.286  11.031   7.740 -1.4011  0.6374 -1.5380
 7617SOL    HW228689   3.311  10.885   7.771  0.1530  1.5031  1.6900
 7618SOL     OW28690   2.557   4.399   8.548  0.2231  0.0988  0.0554
 7618SOL    HW128691   2.544   4.403   8.643  1.1509 -0.4889  0.2209
 7618SOL    HW228692   2.525   4.312   8.523 -1.6099  0.8693 -0.4616
 7619SOL     OW28693   4.977   7.872   0.631  0.4079 -0.5003  0.3500
 7619SOL    HW128694   4.937   7.852   0.546  1.1043  1.0816 -0.4002
 7619SOL    HW228695   5.058   7.918   0.609 -0.7571  2.5671  1.8188
 7620SOL     OW28696   9.889  11.317   9.563 -0.0420 -0.0816  0.1803
 7620SOL    HW128697   9.978  11.324   9.529 -0.9701  2.0122 -2.1304
 7620SOL    HW228698   9.866  11.225   9.552  1.1264 -0.2414 -1.1653
 7621SOL     OW28699   8.351  10.677   7.719 -0.2960  0.3751 -0.0899
 7621SOL    HW128700   8.404  10.680   7.798  0.9235 -1.7006 -0.7367
 7621SOL    HW228701   8.379  10.597   7.675 -2.3158  0.4460 -1.6603
 7622SOL     OW28702  10.348   1.947   9.346 -0.3545  0.7928  0.0991
 7622SOL    HW128703  10.309   2.016   9.292  0.2759  0.1015 -1.3246
 7622SOL    HW228704  10.425   1.988   9.385 -0.6659  1.2368  0.2435
 7623SOL     OW28705   1.971   2.019   9.433  0.5277  0.7072 -0.0071
 7623SOL    HW128706   1.968   1.961   9.358 -0.8878 -0.1939  0.7148
 7623SOL    HW228707   2.043   2.079   9.414  0.9892 -0.2756 -1.4947
 7624SOL     OW28708   1.343   6.713   3.137  0.6016 -0.6332 -0.9104
 7624SOL    HW128709   1.249   6.693   3.141  0.0910  1.6411 -0.0669
 7624SOL    HW228710   1.380   6.667   3.212 -0.8710  2.8430  2.2736
 7625SOL     OW28711  11.476   3.785   5.456 -0.0946  0.0354 -0.0099
 7625SOL    HW128712  11.388   3.820   5.439 -0.1774 -0.6145 -1.0209
 7625SOL    HW228713  11.461   3.706   5.508  0.0342  0.9197  1.4421
 7626SOL     OW28714  10.076   5.322   1.114 -0.5797 -0.2581  0.1441
 7626SOL    HW128715  10.093   5.318   1.208 -2.0148 -1.3078  0.3853
 7626SOL    HW228716  10.039   5.236   1.092 -0.1906 -0.0708 -1.4116
 7627SOL     OW28717   2.784   3.375   4.382 -0.0095 -0.0463  0.9331
 7627SOL    HW128718   2.749   3.427   4.454  0.1641 -0.2939  1.1955
 7627SOL    HW228719   2.789   3.286   4.417 -0.8936 -0.3668  0.2981
 7628SOL     OW28720  10.447   9.379   7.673  0.3239  0.3176  0.1921
 7628SOL    HW128721  10.521   9.439   7.675 -0.3112  1.2667 -1.6617
 7628SOL    HW228722  10.371   9.434   7.691 -0.2992  0.1958 -1.7709
 7629SOL     OW28723   2.122   5.710   3.708 -0.1413 -0.2823 -0.2277
 7629SOL    HW128724   2.142   5.803   3.703 -1.9355  0.0892 -1.3191
 7629SOL    HW228725   2.198   5.667   3.670  0.0330  0.8441 -1.1904
 7630SOL     OW28726   7.627   6.676   7.436 -0.3137  0.2765 -0.0878
 7630SOL    HW128727   7.672   6.631   7.508 -1.6485  0.0357  0.6190
 7630SOL    HW228728   7.600   6.760   7.473 -1.0338  0.1405 -0.3037
 7631SOL     OW28729   3.031   3.036   8.255  0.8633 -0.0815 -0.4690
 7631SOL    HW128730   3.088   2.972   8.211 -0.0917 -0.4835 -1.1479
 7631SOL    HW228731   2.942   3.007   8.235  0.3741 -0.2239  1.6744
 7632SOL     OW28732   8.159   1.796   5.208  0.4687  0.1849  0.8368
 7632SOL    HW128733   8.092   1.856   5.242  0.7437  0.2247  1.3146
 7632SOL    HW228734   8.218   1.782   5.282  1.1870  0.4286  0.3177
 7633SOL     OW28735   1.566   2.562   0.998  0.5483 -0.1009  0.7688
 7633SOL    HW128736   1.614   2.506   1.058  0.6279 -0.3915  0.4388
 7633SOL    HW228737   1.474   2.549   1.021  0.5298 -0.7681  0.3653
 7634SOL     OW28738  10.304   9.180   8.457 -0.3630 -0.2130  0.4541
 7634SOL    HW128739  10.240   9.250   8.445 -1.2165 -0.8383  1.1787
 7634SOL    HW228740  10.335   9.160   8.369 -1.4004 -0.1064  0.0519
 7635SOL     OW28741   4.786   9.764   5.380  0.7849  0.0767  0.1099
 7635SOL    HW128742   4.729   9.749   5.455  1.4191  0.1760  0.6266
 7635SOL    HW228743   4.728   9.796   5.311 -0.1927 -2.0872 -0.1732
 7636SOL     OW28744   9.491  10.096   2.494  0.2572  0.4861 -0.0889
 7636SOL    HW128745   9.427  10.024   2.496 -0.2050  0.9020  0.6533
 7636SOL    HW228746   9.550  10.078   2.566 -0.1965  1.1325  0.4653
 7637SOL     OW28747  11.738   5.152   3.272 -0.4287  0.4202 -0.5056
 7637SOL    HW128748  11.750   5.200   3.355 -1.4056  0.0842 -0.1634
 7637SOL    HW228749  11.828   5.134   3.243 -0.0570  1.3279  0.0145
 7638SOL     OW28750   9.109   8.674   4.703  0.0190  0.0443  0.0619
 7638SOL    HW128751   9.113   8.659   4.608  0.6097 -0.8387  0.2121
 7638SOL    HW228752   9.088   8.588   4.739  1.0308  0.1111  0.8224
 7639SOL     OW28753   5.606   8.785  10.481 -0.0644  0.2816 -0.3074
 7639SOL    HW128754   5.699   8.762  10.487 -0.6112 -2.0366  0.2111
 7639SOL    HW228755   5.585   8.777  10.388 -0.2461 -1.5557 -0.1403
 7640SOL     OW28756   5.857   7.629  11.390  0.3968  0.3398  0.1423
 7640SOL    HW128757   5.929   7.566  11.393 -0.5382 -0.7148  1.6682
 7640SOL    HW228758   5.803   7.602  11.316  1.6236  1.2642 -1.1488
 7641SOL     OW28759   2.388   1.615   6.564  0.7316  0.5111 -0.1462
 7641SOL    HW128760   2.347   1.529   6.577  2.3833 -0.3107 -0.1613
 7641SOL    HW228761   2.445   1.625   6.640  2.4951  0.4214 -1.4077
 7642SOL     OW28762   3.709   3.101   1.840 -0.2173  0.4653 -0.4190
 7642SOL    HW128763   3.646   3.058   1.898 -0.5058  0.5047 -0.7005
 7642SOL    HW228764   3.671   3.093   1.753  0.3642  0.1309 -0.6510
 7643SOL     OW28765   6.840   5.130   0.966 -0.5568 -0.3724  0.4313
 7643SOL    HW128766   6.931   5.105   0.986 -0.5180  0.1259  0.8969
 7643SOL    HW228767   6.796   5.046   0.951  0.2269 -0.5720 -0.9087
 7644SOL     OW28768   4.195   3.512   3.240 -0.4415  0.2088 -0.0063
 7644SOL    HW128769   4.174   3.428   3.279  0.4451 -0.1042 -0.1918
 7644SOL    HW228770   4.115   3.539   3.196 -1.1206  0.0595  1.0931
 7645SOL     OW28771   8.966   7.484   3.779 -0.0314 -0.3290 -0.3881
 7645SOL    HW128772   8.955   7.447   3.692 -0.2516 -0.0660 -0.4723
 7645SOL    HW228773   8.996   7.574   3.764  0.6850 -0.5258 -0.1826
 7646SOL     OW28774   4.531   1.553  11.634 -0.3381  0.4646  0.8060
 7646SOL    HW128775   4.501   1.515  11.551 -1.0304  1.9447  0.3464
 7646SOL    HW228776   4.503   1.644  11.630  0.1309  0.7096  2.4358
 7647SOL     OW28777  11.282   0.610   5.119  0.6025 -0.1539 -0.6479
 7647SOL    HW128778  11.225   0.534   5.102 -0.9534  1.5513 -4.1077
 7647SOL    HW228779  11.322   0.629   5.034  1.1758  2.6763  0.1622
 7648SOL     OW28780   2.301   1.520   7.207  0.1949 -0.2430 -0.1182
 7648SOL    HW128781   2.294   1.514   7.112  0.6972 -1.3887 -0.0981
 7648SOL    HW228782   2.395   1.510   7.224  0.4850  2.5141  0.3597
 7649SOL     OW28783  11.592   4.829  11.440  0.6358  0.7532  0.3119
 7649SOL    HW128784  11.632   4.764  11.499 -2.5437  0.1189  1.9924
 7649SOL    HW228785  11.611   4.913  11.482 -2.5600  0.2639  3.2042
 7650SOL     OW28786   0.858   5.549   3.379 -0.4885  0.8629 -0.3409
 7650SOL    HW128787   0.847   5.534   3.473  0.3403  0.5385 -0.2878
 7650SOL    HW228788   0.803   5.625   3.359 -2.7641 -0.6067 -0.0925
 7651SOL     OW28789  11.666   4.320   1.191  0.0662  0.3206  0.4943
 7651SOL    HW128790  11.608   4.391   1.218  1.5800  1.3350  1.2211
 7651SOL    HW228791  11.607   4.248   1.170 -1.5280  1.7414 -0.1885
 7652SOL     OW28792  10.655   6.220   6.511  0.9487 -0.5153  0.5537
 7652SOL    HW128793  10.590   6.150   6.506  0.5726 -0.1236 -0.4178
 7652SOL    HW228794  10.735   6.180   6.476  0.4067 -0.1338 -1.2484
 7653SOL     OW28795   0.936  11.205   1.731  0.0647  0.3648 -0.1330
 7653SOL    HW128796   0.845  11.230   1.721 -0.4163  0.4538  3.3037
 7653SOL    HW228797   0.973  11.210   1.643 -2.1545  4.4642 -1.0436
 7654SOL     OW28798   8.394  11.726   3.882  0.0839 -0.3061 -0.2856
 7654SOL    HW128799   8.438  11.671   3.818  1.0486 -0.7460  0.7064
 7654SOL    HW228800   8.456  11.731   3.955 -2.1681 -2.3905  1.9609
 7655SOL     OW28801   4.262   9.646   1.526 -0.5962 -0.3198  0.2155
 7655SOL    HW128802   4.248   9.559   1.563  1.9090 -1.8986 -2.0984
 7655SOL    HW228803   4.321   9.689   1.587 -0.6411 -0.8463  0.6321
 7656SOL     OW28804   8.197   8.713   9.735  0.7626  0.4511  0.2156
 7656SOL    HW128805   8.144   8.745   9.662  0.0018  0.3857  0.7239
 7656SOL    HW228806   8.190   8.781   9.801  0.2654 -0.1297  0.7752
 7657SOL     OW28807   9.865   8.743   1.550  0.2336  0.3426 -0.2626
 7657SOL    HW128808   9.818   8.661   1.531  0.7028  0.6241 -3.0463
 7657SOL    HW228809   9.806   8.792   1.607 -1.0929 -0.9630 -0.4569
 7658SOL     OW28810   0.203   6.907   8.200  0.2815 -0.7150 -0.2091
 7658SOL    HW128811   0.290   6.940   8.225 -0.6160  1.0312  0.8573
 7658SOL    HW228812   0.221   6.831   8.145  2.4868 -0.2645 -0.2195
 7659SOL     OW28813  10.591   1.624  12.232 -0.2034 -0.0677  0.1901
 7659SOL    HW128814  10.550   1.553  12.182 -0.2723 -0.3186  0.6001
 7659SOL    HW228815  10.580   1.599  12.324 -1.0421  0.9217  0.3785
 7660SOL     OW28816   7.602   2.125   6.346 -0.4624  0.0665 -0.1956
 7660SOL    HW128817   7.652   2.125   6.265  1.1983 -0.2251  0.7746
 7660SOL    HW228818   7.594   2.218   6.370  0.2478  0.0767  0.0072
 7661SOL     OW28819   8.912   3.224  12.011 -0.2822  0.2267 -0.7019
 7661SOL    HW128820   8.926   3.130  12.017  0.0867  0.2935 -0.4888
 7661SOL    HW228821   8.828   3.233  11.966 -0.8054 -0.2230  0.1583
 7662SOL     OW28822   5.505   9.857   8.837 -0.2559 -0.1492  0.7325
 7662SOL    HW128823   5.592   9.818   8.833 -1.5383 -3.2115 -1.9455
 7662SOL    HW228824   5.459   9.806   8.903 -1.2277 -1.7897 -1.0825
 7663SOL     OW28825   0.345   7.114  11.400  0.3184 -0.4042 -0.2144
 7663SOL    HW128826   0.434   7.144  11.416  0.5449 -0.0060 -2.0650
 7663SOL    HW228827   0.302   7.186  11.354 -1.1214 -0.4262  0.9859
 7664SOL     OW28828   5.052   4.706   8.376  0.2091  0.0195  0.3121
 7664SOL    HW128829   4.971   4.720   8.424 -0.5639 -0.3856 -0.8040
 7664SOL    HW228830   5.078   4.792   8.344 -0.2016  0.0519  0.0582
 7665SOL     OW28831   7.186   4.348   6.327  0.3298  0.1651 -0.4596
 7665SOL    HW128832   7.093   4.358   6.308  0.3444 -0.8538 -1.1190
 7665SOL    HW228833   7.193   4.362   6.421 -0.8892 -2.3485  0.0862
 7666SOL     OW28834   9.166  10.125   8.512  0.1029  0.2482 -0.2739
 7666SOL    HW128835   9.095  10.187   8.499 -0.1039  0.2518  0.8037
 7666SOL    HW228836   9.125  10.049   8.553  0.8032  0.4680  0.8530
 7667SOL     OW28837   1.020  11.239   9.434 -0.1649 -0.7643 -0.5188
 7667SOL    HW128838   0.981  11.158   9.467 -1.5331  0.5008  1.1192
 7667SOL    HW228839   0.974  11.257   9.352 -0.7652 -0.9512 -0.2221
 7668SOL     OW28840   2.073   6.227   4.521  0.6557  0.3029 -0.0487
 7668SOL    HW128841   2.012   6.165   4.481  1.5307 -0.9297  0.4546
 7668SOL    HW228842   2.017   6.284   4.574  0.0415 -1.9581  1.9149
 7669SOL     OW28843   6.273   3.443   3.545  0.0450 -0.3203 -0.3187
 7669SOL    HW128844   6.286   3.349   3.561  1.1304 -0.2111 -0.4873
 7669SOL    HW228845   6.359   3.475   3.517 -0.9361  0.2105 -2.9161
 7670SOL     OW28846   9.464   8.196   7.042 -0.6179  0.4763 -0.2707
 7670SOL    HW128847   9.553   8.187   7.007 -0.5470 -0.6986  0.1469
 7670SOL    HW228848   9.435   8.282   7.014  0.6426  0.8570 -0.4619
 7671SOL     OW28849   9.416   0.278   1.920  0.3089  0.5181 -0.4869
 7671SOL    HW128850   9.454   0.303   1.836 -1.7118  0.9414 -1.3268
 7671SOL    HW228851   9.473   0.209   1.952  1.0351  0.2258 -2.2850
 7672SOL     OW28852   4.802   1.571   0.130 -0.5117 -0.4194 -0.3236
 7672SOL    HW128853   4.744   1.522   0.071 -0.3617 -2.7609  1.3172
 7672SOL    HW228854   4.888   1.565   0.089 -0.8304  0.1444 -1.0928
 7673SOL     OW28855  10.541   2.075   3.705 -0.1207  0.2839  0.7896
 7673SOL    HW128856  10.487   2.147   3.672 -0.1699 -0.2032 -0.2334
 7673SOL    HW228857  10.599   2.053   3.631 -0.7743 -1.3670  0.7355
 7674SOL     OW28858   2.833   0.044   8.007 -0.6032 -0.3205 -0.1625
 7674SOL    HW128859   2.917   0.084   8.028 -0.7399  0.4444 -1.0126
 7674SOL    HW228860   2.842  -0.047   8.034  0.2083 -0.0557  0.5077
 7675SOL     OW28861   6.331   9.312   1.576  0.1938 -0.4774  0.0436
 7675SOL    HW128862   6.327   9.303   1.671 -1.1222 -2.1631 -0.1248
 7675SOL    HW228863   6.415   9.355   1.560  0.2299  0.2921  1.9693
 7676SOL     OW28864   5.988   6.500  10.435 -0.6337 -0.4182  0.0574
 7676SOL    HW128865   5.962   6.474  10.347  0.3505 -0.8927 -0.1118
 7676SOL    HW228866   6.041   6.427  10.466 -1.1296 -0.3354  1.1254
 7677SOL     OW28867   8.921   3.311   7.118 -0.5821 -0.1738 -0.3746
 7677SOL    HW128868   8.957   3.391   7.158 -2.9332  1.1031 -0.6411
 7677SOL    HW228869   8.986   3.287   7.052  0.7177  0.8620  0.4459
 7678SOL     OW28870   6.994   2.926   1.833  0.4894  0.0041  0.2954
 7678SOL    HW128871   7.036   2.947   1.916  0.7005  1.9394 -0.2594
 7678SOL    HW228872   7.044   2.974   1.767  0.1342 -1.2272 -0.9468
 7679SOL     OW28873   2.793   8.652   2.931 -0.3067  0.2373 -0.1616
 7679SOL    HW128874   2.882   8.680   2.953 -0.8808  1.5370  0.5618
 7679SOL    HW228875   2.757   8.622   3.014 -0.6836  0.0977 -0.3779
 7680SOL     OW28876  11.754   4.302   3.501 -1.0035  0.0487  0.0027
 7680SOL    HW128877  11.670   4.263   3.478 -1.5642  0.3640  1.4301
 7680SOL    HW228878  11.753   4.388   3.460 -1.7855  0.4182  0.7629
 7681SOL     OW28879   9.736   3.859   7.301 -0.9562 -0.0045  0.1824
 7681SOL    HW128880   9.728   3.954   7.308 -0.0897  0.0079  1.2487
 7681SOL    HW228881   9.650   3.829   7.272 -1.5927  0.9973  0.9991
 7682SOL     OW28882   4.510   7.083   4.635  0.4335  0.6430 -0.0912
 7682SOL    HW128883   4.433   7.041   4.674  0.0405  1.1990 -0.2561
 7682SOL    HW228884   4.536   7.148   4.700  0.7983  0.4268 -0.0167
 7683SOL     OW28885   7.984   1.374  10.403 -0.3409 -0.2230  0.1717
 7683SOL    HW128886   8.066   1.328  10.418 -0.5676 -1.2330 -1.4278
 7683SOL    HW228887   8.004   1.466  10.419  0.9595 -0.5191  0.3285
 7684SOL     OW28888  10.898   9.659   9.896 -0.1070  0.0734 -0.7692
 7684SOL    HW128889  10.890   9.753   9.885 -0.3841 -0.0756 -1.9624
 7684SOL    HW228890  10.813   9.632   9.931  0.1125  0.3114 -0.0410
 7685SOL     OW28891   6.242   2.134  10.691  0.0811 -0.2400 -0.7604
 7685SOL    HW128892   6.244   2.039  10.686 -0.1977 -0.1817 -2.5697
 7685SOL    HW228893   6.216   2.153  10.782 -0.0236 -1.8705 -0.4254
 7686SOL     OW28894   3.975   6.876   8.896 -0.4117 -0.0968 -0.5800
 7686SOL    HW128895   3.999   6.814   8.828  1.7624 -1.0889  0.9543
 7686SOL    HW228896   4.021   6.956   8.873 -1.7749  0.4339 -1.5984
 7687SOL     OW28897  10.013  11.982   2.927  0.5318 -0.3329  0.4338
 7687SOL    HW128898  10.045  11.897   2.957  3.1543  0.7098  0.9086
 7687SOL    HW228899   9.933  11.962   2.879  0.4485 -2.9263  1.4825
 7688SOL     OW28900  10.150   6.294   4.383  0.3917 -0.2764  0.2905
 7688SOL    HW128901  10.215   6.308   4.452 -0.0921 -1.1988  0.9469
 7688SOL    HW228902  10.193   6.326   4.303  0.7380  1.3609  1.0822
 7689SOL     OW28903  10.882  11.742   7.873  0.5505  0.3219  0.2477
 7689SOL    HW128904  10.919  11.667   7.826 -0.1286  0.4698 -0.5387
 7689SOL    HW228905  10.842  11.796   7.805 -3.1738 -0.9515  1.2002
 7690SOL     OW28906   7.464   7.686   3.109 -0.2010  0.3654  0.4580
 7690SOL    HW128907   7.413   7.616   3.068  0.4860 -0.1223  0.4138
 7690SOL    HW228908   7.496   7.738   3.035  0.5440 -0.1695  0.3830
 7691SOL     OW28909   4.283   6.431   1.985 -0.4963 -0.3817  0.4519
 7691SOL    HW128910   4.342   6.401   1.916 -0.5708  0.5933 -0.0454
 7691SOL    HW228911   4.198   6.441   1.942 -0.3788  0.9349  0.5050
 7692SOL     OW28912   9.619   8.933  10.716 -0.1146 -0.2533 -0.1498
 7692SOL    HW128913   9.701   8.968  10.681 -0.0487 -0.1682  0.0931
 7692SOL    HW228914   9.565   8.917  10.638  0.0115 -0.0078 -0.2861
 7693SOL     OW28915   1.115   0.733  10.818  0.2736  0.3531  0.0617
 7693SOL    HW128916   1.157   0.737  10.732 -0.3130  1.1128 -0.2025
 7693SOL    HW228917   1.093   0.824  10.838  2.7684  0.5856  2.2279
 7694SOL     OW28918  10.157  11.595   6.380 -0.2811 -0.1731 -0.5326
 7694SOL    HW128919  10.216  11.646   6.324 -1.1304  1.3538 -0.0945
 7694SOL    HW228920  10.211  11.522   6.410  0.8710  0.2247 -1.5026
 7695SOL     OW28921   7.513  12.293   1.256  0.3920 -0.5761  0.3330
 7695SOL    HW128922   7.422  12.322   1.266  1.2812  2.7840 -0.0812
 7695SOL    HW228923   7.551  12.301   1.343  0.1996 -2.7285  0.6788
 7696SOL     OW28924   6.592   1.678   3.141  0.5744 -0.2036  0.0899
 7696SOL    HW128925   6.591   1.609   3.075 -1.4107  0.4050 -0.5909
 7696SOL    HW228926   6.607   1.632   3.223  1.4519 -1.1686 -0.5816
 7697SOL     OW28927   4.665   9.214   0.842  0.3631 -0.4207 -0.5792
 7697SOL    HW128928   4.588   9.199   0.787 -1.3780 -0.4085  1.7032
 7697SOL    HW228929   4.717   9.278   0.793  0.0890 -2.0401 -3.1893
 7698SOL     OW28930   8.421  10.086   2.980  0.3092 -0.1870  0.0300
 7698SOL    HW128931   8.359  10.135   2.926  0.6251 -0.7062 -0.8171
 7698SOL    HW228932   8.507  10.111   2.946  0.4857 -1.0773 -0.2106
 7699SOL     OW28933   1.672   7.653  10.700  0.3481 -0.2639 -0.0090
 7699SOL    HW128934   1.594   7.709  10.705  0.6129  0.2814 -1.3535
 7699SOL    HW228935   1.735   7.695  10.758  0.9045  1.5045 -1.7960
 7700SOL     OW28936   0.883   5.102   1.054  0.4182  0.3522 -0.4819
 7700SOL    HW128937   0.947   5.164   1.090 -0.2519  1.3205 -0.9235
 7700SOL    HW228938   0.798   5.142   1.073 -0.1043 -1.2905  0.7764
 7701SOL     OW28939   3.183   7.968   1.184  0.3736 -0.2120  0.0257
 7701SOL    HW128940   3.155   7.993   1.272 -0.9927  1.6429 -0.8621
 7701SOL    HW228941   3.119   7.902   1.157 -0.9183  1.2261 -0.5600
 7702SOL     OW28942   6.524   0.150   2.068  0.4122  0.4536  0.2971
 7702SOL    HW128943   6.458   0.114   2.126  0.7677  1.7117  1.5454
 7702SOL    HW228944   6.554   0.076   2.016 -1.2283 -0.3342  0.4269
 7703SOL     OW28945   8.035   8.419   2.441 -0.8980  0.0793 -0.0271
 7703SOL    HW128946   8.067   8.481   2.375  0.2967  0.0167  0.4814
 7703SOL    HW228947   7.984   8.355   2.391  0.7308 -0.4728 -1.0224
 7704SOL     OW28948  11.108   0.798   7.521  1.1138  0.0286  0.4737
 7704SOL    HW128949  11.126   0.708   7.550  1.0240 -0.8549 -1.9610
 7704SOL    HW228950  11.018   0.815   7.550  0.8698 -0.9577  0.3471
 7705SOL     OW28951   7.892   5.925  11.653 -0.5787  0.5579 -0.0264
 7705SOL    HW128952   7.956   5.859  11.626 -2.1163 -1.5231  1.0250
 7705SOL    HW228953   7.923   5.954  11.739 -0.9498 -0.3731  0.4391
 7706SOL     OW28954  10.919   8.998  10.305 -0.5091  0.0426  0.3015
 7706SOL    HW128955  10.992   9.010  10.244  0.1619 -0.0191  1.0673
 7706SOL    HW228956  10.865   8.930  10.265 -0.6279  0.6967 -0.7016
 7707SOL     OW28957   3.608   8.190   3.093  0.1149  0.7555  0.3834
 7707SOL    HW128958   3.605   8.268   3.037 -0.1753  1.0789  0.8490
 7707SOL    HW228959   3.623   8.118   3.031  1.0711  1.2467  0.0249
 7708SOL     OW28960   5.084   0.670   8.776  0.1955 -0.5840 -0.5216
 7708SOL    HW128961   5.138   0.747   8.758 -0.2825 -0.1850 -0.2568
 7708SOL    HW228962   5.101   0.650   8.869  0.9173 -1.2774 -0.7833
 7709SOL     OW28963  10.076  10.351   7.606  0.6070 -0.2909 -0.1941
 7709SOL    HW128964  10.090  10.410   7.680 -2.2554 -1.1590  1.1824
 7709SOL    HW228965   9.994  10.381   7.568  0.2548 -2.0202 -0.8456
 7710SOL     OW28966   4.035  12.190   0.512  0.3124  0.0556  0.2849
 7710SOL    HW128967   4.025  12.284   0.529 -0.0988  0.1695 -0.5425
 7710SOL    HW228968   4.122  12.182   0.474  0.8313 -0.0706  1.4367
 7711SOL     OW28969   9.706   4.690   5.033  0.0160  0.1433  0.0575
 7711SOL    HW128970   9.627   4.743   5.018  0.1876 -0.2003 -2.5077
 7711SOL    HW228971   9.672   4.609   5.073 -0.8516  0.3026 -0.3209
 7712SOL     OW28972  10.102   4.108   4.665  0.5640  0.2820  0.4580
 7712SOL    HW128973  10.076   4.196   4.640  1.0027  0.0761 -0.7975
 7712SOL    HW228974  10.126   4.066   4.582 -2.6136 -2.0421  0.5056
 7713SOL     OW28975   1.198   2.238   3.560 -0.2930  0.4225  0.0249
 7713SOL    HW128976   1.110   2.266   3.534 -0.2922  1.7157  1.2944
 7713SOL    HW228977   1.187   2.147   3.589 -1.2907  0.6872  0.5202
 7714SOL     OW28978   3.061   1.845   7.489 -0.5683 -0.0494 -0.3198
 7714SOL    HW128979   3.026   1.927   7.525 -0.5211 -0.4643  0.7176
 7714SOL    HW228980   2.988   1.807   7.440 -0.9025  0.1441  0.0224
 7715SOL     OW28981   6.678   0.935   3.052  0.4563  0.0314 -0.5593
 7715SOL    HW128982   6.713   1.009   3.002 -0.8674  2.3144  1.6734
 7715SOL    HW228983   6.754   0.898   3.097  0.9749  0.7193 -0.8560
 7716SOL     OW28984   5.985   8.889   7.231  0.3584 -0.2981  0.9209
 7716SOL    HW128985   5.916   8.911   7.294  1.2566 -0.0091  1.8371
 7716SOL    HW228986   6.051   8.957   7.243 -0.5270  1.2537 -2.1362
 7717SOL     OW28987   9.016   4.446   7.389 -0.4616  0.4769  0.4070
 7717SOL    HW128988   9.024   4.523   7.445  1.3205 -0.0794  0.9775
 7717SOL    HW228989   8.964   4.476   7.315  4.1761  3.8612 -2.0127
 7718SOL     OW28990   3.289  12.149  11.066 -0.0743  0.5115 -0.3272
 7718SOL    HW128991   3.376  12.182  11.043  1.6014 -3.4003 -0.2862
 7718SOL    HW228992   3.276  12.179  11.156  0.5887  2.2260 -0.7505
 7719SOL     OW28993   7.292   6.936   7.348  0.2243  0.1639 -0.1815
 7719SOL    HW128994   7.332   6.934   7.261  4.0939  1.3284  1.3395
 7719SOL    HW228995   7.262   7.027   7.359  1.1053  0.4274  0.1704
 7720SOL     OW28996   9.167   2.417   6.327 -0.2891  0.2050 -0.0612
 7720SOL    HW128997   9.216   2.471   6.265  0.9979 -0.0522  0.6916
 7720SOL    HW228998   9.092   2.470   6.352 -0.1985  0.7722 -0.9638
 7721SOL     OW28999   1.896   1.823   5.874  0.4139  0.6112  0.0017
 7721SOL    HW129000   1.850   1.766   5.936  0.5622 -0.6898 -1.0453
 7721SOL    HW229001   1.957   1.873   5.929  0.2963 -0.2645  0.9557
 7722SOL     OW29002   8.789   0.324   8.930 -0.2361 -0.1339  0.4423
 7722SOL    HW129003   8.852   0.312   8.859 -0.6956 -1.0121  0.1668
 7722SOL    HW229004   8.827   0.393   8.985  0.4437  0.0859 -0.2912
 7723SOL     OW29005   5.234   7.733   8.303 -0.3989  0.2162 -0.0773
 7723SOL    HW129006   5.152   7.781   8.316 -1.2775 -1.2707  0.0525
 7723SOL    HW229007   5.289   7.794   8.254 -1.8357  1.0136 -0.7808
 7724SOL     OW29008  11.084   9.888   7.313 -0.5890 -0.1172 -0.2340
 7724SOL    HW129009  11.117   9.830   7.382  1.8585 -0.9731 -1.9985
 7724SOL    HW229010  11.104   9.976   7.345  0.7275 -0.5075  0.0775
 7725SOL     OW29011   3.033   0.701   0.346  0.2403 -0.1555 -0.5227
 7725SOL    HW129012   3.052   0.607   0.347 -1.4925 -0.5799 -1.5768
 7725SOL    HW229013   2.984   0.714   0.264  2.2242  2.0734 -1.4650
 7726SOL     OW29014   8.717   3.743   6.214 -0.2239 -0.6022  0.0351
 7726SOL    HW129015   8.626   3.730   6.188 -1.3966 -0.4115  3.4690
 7726SOL    HW229016   8.746   3.819   6.164 -2.0211 -0.5184 -0.9639
 7727SOL     OW29017   5.959   2.736   6.012  0.3641  0.4144  0.2243
 7727SOL    HW129018   5.916   2.756   5.929 -0.2958  0.5853  0.6043
 7727SOL    HW229019   6.031   2.799   6.016  0.8683 -0.0839 -0.5627
 7728SOL     OW29020  11.263   0.861   0.897  0.2528  0.0112  0.6539
 7728SOL    HW129021  11.313   0.805   0.837 -2.7645 -0.8739 -1.2372
 7728SOL    HW229022  11.254   0.944   0.851  0.5280  0.3841  1.2671
 7729SOL     OW29023   6.286  10.988   0.490 -0.2039  0.3478 -0.2511
 7729SOL    HW129024   6.336  10.945   0.421 -2.0023 -0.8127 -0.8992
 7729SOL    HW229025   6.285  10.925   0.562 -0.3475  0.5641 -0.0611
 7730SOL     OW29026  11.883   1.867  10.877 -0.2067  0.5800  0.0928
 7730SOL    HW129027  11.888   1.814  10.956  1.7884 -1.2618 -1.1548
 7730SOL    HW229028  11.853   1.807  10.809 -0.7367  1.8184 -0.8201
 7731SOL     OW29029   2.759   7.439   4.495  0.0752  0.0083 -0.4883
 7731SOL    HW129030   2.840   7.407   4.456 -1.1483 -1.8133 -1.6921
 7731SOL    HW229031   2.750   7.528   4.462  1.8723  0.4646  0.1649
 7732SOL     OW29032   2.074   2.145  11.461 -0.0087  0.4210 -0.4384
 7732SOL    HW129033   2.139   2.076  11.445 -0.6537 -0.3155  0.0150
 7732SOL    HW229034   2.118   2.207  11.519  0.6361  0.4738 -0.9796
 7733SOL     OW29035   2.319   9.205   3.502  0.4055 -0.4654 -0.2812
 7733SOL    HW129036   2.311   9.257   3.422 -0.9861 -0.4013 -0.1128
 7733SOL    HW229037   2.343   9.118   3.471  1.0424 -0.1630 -0.6741
 7734SOL     OW29038   6.136   9.992  12.120  0.8090 -0.1189 -0.3460
 7734SOL    HW129039   6.071   9.946  12.173  0.4535 -0.1747 -0.8325
 7734SOL    HW229040   6.181  10.049  12.183  0.1964  0.0308 -0.0336
 7735SOL     OW29041   4.712  10.433   3.505 -0.1823 -0.1398 -0.0454
 7735SOL    HW129042   4.619  10.447   3.519  0.1065 -0.5972  2.8014
 7735SOL    HW229043   4.729  10.472   3.419 -2.9581 -0.0738 -0.6549
 7736SOL     OW29044   5.733   5.523   8.584  0.3403  0.1002  0.1053
 7736SOL    HW129045   5.689   5.469   8.650 -1.7584  1.0572 -0.4255
 7736SOL    HW229046   5.811   5.474   8.561  0.6938 -0.6803  2.6605
 7737SOL     OW29047   9.247   9.266  11.357  0.3295  0.4891  0.7656
 7737SOL    HW129048   9.287   9.192  11.403 -3.8607 -3.0342 -0.4804
 7737SOL    HW229049   9.199   9.314  11.425  0.7964  0.3297  1.2096
 7738SOL     OW29050   8.913   1.738  10.695 -0.5336 -0.5390  0.0939
 7738SOL    HW129051   8.964   1.707  10.770 -0.2503 -0.1967  0.0441
 7738SOL    HW229052   8.972   1.730  10.620 -0.3507  0.3697  0.1215
 7739SOL     OW29053   1.540  10.910  10.456  0.2335  0.6481  0.0301
 7739SOL    HW129054   1.494  10.992  10.439  1.2354  1.4837  1.1420
 7739SOL    HW229055   1.489  10.867  10.525 -1.2642 -0.5412 -1.7426
 7740SOL     OW29056   7.031   8.180   6.846 -0.7906 -0.2581 -0.4829
 7740SOL    HW129057   7.096   8.124   6.804  0.9609  0.6290  0.9228
 7740SOL    HW229058   6.947   8.146   6.815  0.3112 -1.4651 -2.3405
 7741SOL     OW29059  10.235   3.898   7.708 -0.6227 -0.4455 -0.1502
 7741SOL    HW129060  10.213   3.828   7.647 -2.5478 -1.5530  1.6699
 7741SOL    HW229061  10.314   3.868   7.752 -1.0351 -1.1793  0.1133
 7742SOL     OW29062   1.259   4.308   5.616 -0.8284 -0.3042 -0.4641
 7742SOL    HW129063   1.229   4.347   5.698 -0.5763 -1.3561  0.1535
 7742SOL    HW229064   1.179   4.281   5.571 -0.9734  0.3820 -0.6190
 7743SOL     OW29065   7.465  11.503   9.502  0.8339  0.1779 -0.0425
 7743SOL    HW129066   7.474  11.588   9.545  2.0960 -0.1346  0.3687
 7743SOL    HW229067   7.463  11.440   9.574 -0.4002 -0.1240 -0.3334
 7744SOL     OW29068  10.657   4.110   2.025 -0.0064 -0.4485  0.3488
 7744SOL    HW129069  10.641   4.190   2.076 -0.4373  0.9313 -1.8051
 7744SOL    HW229070  10.608   4.042   2.071 -2.3502  1.2185  0.4965
 7745SOL     OW29071  10.760   9.630   3.520  0.2249 -1.1788  0.0263
 7745SOL    HW129072  10.803   9.565   3.465 -0.2421 -0.2695 -1.4723
 7745SOL    HW229073  10.727   9.695   3.458 -0.5596 -0.2548  1.3775
 7746SOL     OW29074  12.184   3.232   3.727 -0.2519 -0.4237  0.5637
 7746SOL    HW129075  12.131   3.156   3.751  0.8628 -1.5445 -0.3401
 7746SOL    HW229076  12.223   3.261   3.810 -2.0468  0.2983  1.2050
 7747SOL     OW29077   6.158   2.278   2.184 -0.0568  0.0462  0.2199
 7747SOL    HW129078   6.098   2.325   2.242  0.0516 -0.5402  0.8255
 7747SOL    HW229079   6.222   2.238   2.243  0.3234 -0.1902 -0.3419
 7748SOL     OW29080   4.258   6.081  10.516  1.0836  0.0268  0.1553
 7748SOL    HW129081   4.172   6.066  10.477  0.9861  2.0805 -0.5873
 7748SOL    HW229082   4.239   6.130  10.596  1.5496  0.8524 -0.2228
 7749SOL     OW29083   7.255  10.202   3.381  0.2766  0.0442  0.0010
 7749SOL    HW129084   7.262  10.119   3.428  0.4772  0.3127  0.4518
 7749SOL    HW229085   7.163  10.226   3.387 -0.0661 -0.8492 -1.3548
 7750SOL     OW29086   6.301   0.751   8.425 -0.0862  0.5350 -0.0788
 7750SOL    HW129087   6.333   0.685   8.486 -1.8508  0.6166  1.0201
 7750SOL    HW229088   6.337   0.834   8.459  1.0304  0.3158 -0.6795
 7751SOL     OW29089   9.494   3.895   8.460  0.0556  0.0207  0.4839
 7751SOL    HW129090   9.518   3.823   8.402  1.9092  0.6279  0.4069
 7751SOL    HW229091   9.468   3.965   8.401  0.8182  0.2563  0.4114
 7752SOL     OW29092  10.053   2.441   9.989  0.4612 -0.2608  0.3474
 7752SOL    HW129093   9.997   2.363   9.993  0.8952 -0.6198 -0.3515
 7752SOL    HW229094  10.035   2.487  10.071 -1.6284  0.1720 -0.2777
 7753SOL     OW29095   8.377   3.296   3.279  0.0255 -0.0780 -0.1563
 7753SOL    HW129096   8.462   3.305   3.235  0.0624 -0.1758 -0.1056
 7753SOL    HW229097   8.321   3.362   3.237  0.3524  0.5433  0.3573
 7754SOL     OW29098   6.862   3.730   2.166  0.2604  0.1586 -0.1543
 7754SOL    HW129099   6.782   3.679   2.174  0.5034 -0.3438 -0.8130
 7754SOL    HW229100   6.884   3.755   2.256 -0.3694 -0.1001  0.0763
 7755SOL     OW29101   5.771   7.293   7.949 -0.3776  0.6870  0.3982
 7755SOL    HW129102   5.702   7.298   7.883  0.2281  0.2604 -0.2884
 7755SOL    HW229103   5.798   7.384   7.963 -0.8042  0.8179  0.3699
 7756SOL     OW29104   4.590   3.011   9.594 -0.1750  0.1530 -1.0973
 7756SOL    HW129105   4.589   3.097   9.635 -0.3115  0.3591 -1.5280
 7756SOL    HW229106   4.554   2.952   9.660  0.9397  0.2352 -0.3916
 7757SOL     OW29107  12.049   6.148   9.314 -0.4525  0.1893 -0.3760
 7757SOL    HW129108  12.110   6.096   9.367 -3.1023 -1.9157  0.8414
 7757SOL    HW229109  12.062   6.238   9.344  2.2858 -0.0473 -0.5288
 7758SOL     OW29110  12.153   3.571   9.201  0.0073  0.2092  0.0824
 7758SOL    HW129111  12.215   3.515   9.154 -0.9708  1.0533 -2.3900
 7758SOL    HW229112  12.068   3.529   9.187 -0.6911  1.9899 -1.4715
 7759SOL     OW29113   1.069   2.628  11.191 -0.6951 -0.7179  0.1678
 7759SOL    HW129114   1.094   2.686  11.120 -2.2388 -1.3620 -0.9558
 7759SOL    HW229115   0.993   2.670  11.231 -1.2165 -1.4454 -0.0272
 7760SOL     OW29116   9.847   0.141  10.563 -0.2508 -0.2144 -0.2145
 7760SOL    HW129117   9.928   0.092  10.553  0.2351 -0.2475  2.9403
 7760SOL    HW229118   9.803   0.132  10.479  1.7233 -2.5380 -1.1083
 7761SOL     OW29119   4.474   8.750   2.556  0.3103 -0.3708  0.2787
 7761SOL    HW129120   4.529   8.741   2.479 -0.0068 -0.0416  0.0096
 7761SOL    HW229121   4.406   8.812   2.530  0.9198  0.7149  1.2289
 7762SOL     OW29122  11.265   8.077   8.217  0.4549 -0.6892 -0.6302
 7762SOL    HW129123  11.252   8.050   8.307  0.0257 -2.5051 -1.2042
 7762SOL    HW229124  11.194   8.139   8.200  0.5991 -0.2618  0.2907
 7763SOL     OW29125   8.576   7.286   6.860  0.1075  0.4220 -0.0598
 7763SOL    HW129126   8.601   7.258   6.772  0.5554 -0.3849  0.3234
 7763SOL    HW229127   8.480   7.280   6.860  0.1740 -0.9674 -0.0453
 7764SOL     OW29128  11.878   4.447   5.538 -0.4433 -0.0855  0.0168
 7764SOL    HW129129  11.804   4.484   5.587 -0.5104 -0.3122  0.0871
 7764SOL    HW229130  11.847   4.361   5.509 -0.3046 -0.0671 -0.1902
 7765SOL     OW29131  10.519  10.710  11.715  0.2832  0.4710 -0.5948
 7765SOL    HW129132  10.429  10.690  11.690  0.1637  0.5635 -0.2483
 7765SOL    HW229133  10.512  10.748  11.803  0.8034 -1.0883  0.1620
 7766SOL     OW29134  10.894   0.107   8.551  0.2876  0.7080 -0.2468
 7766SOL    HW129135  10.988   0.105   8.569  0.3807  1.8853 -0.4901
 7766SOL    HW229136  10.887   0.133   8.460 -0.2659  3.2195  0.4275
 7767SOL     OW29137   5.785   6.741   6.619 -0.7606 -0.2692 -0.5907
 7767SOL    HW129138   5.845   6.714   6.549  0.7531 -0.7718  0.8380
 7767SOL    HW229139   5.809   6.832   6.636  0.4188 -0.8024  0.7438
 7768SOL     OW29140   4.735   4.409   7.931  0.8171 -0.2150 -0.5665
 7768SOL    HW129141   4.809   4.366   7.890  1.8595 -1.3446  2.2533
 7768SOL    HW229142   4.694   4.341   7.985 -0.8513  0.9794 -0.2277
 7769SOL     OW29143   6.803   1.421   2.766  0.1720 -0.0557  0.3722
 7769SOL    HW129144   6.893   1.428   2.800  0.2266  1.8248 -0.0386
 7769SOL    HW229145   6.756   1.371   2.832  1.0629  0.6896  1.6155
 7770SOL     OW29146   8.401   7.059   1.319 -0.6659 -0.2202 -0.1359
 7770SOL    HW129147   8.352   7.031   1.397 -0.7222  0.1462 -0.0386
 7770SOL    HW229148   8.344   7.124   1.278 -0.3787  0.0069 -0.1721
 7771SOL     OW29149   1.435   5.693  10.875  0.7325  0.0632 -0.3787
 7771SOL    HW129150   1.396   5.763  10.822  2.3328 -0.3047 -2.1758
 7771SOL    HW229151   1.504   5.737  10.925  0.9308 -0.0042 -0.5877
 7772SOL     OW29152   0.629   9.157   4.898 -0.3726  0.1158 -0.2787
 7772SOL    HW129153   0.546   9.205   4.906  0.6676  2.1025 -0.9105
 7772SOL    HW229154   0.642   9.147   4.804  0.8503  1.1985 -0.2392
 7773SOL     OW29155   5.403   7.902  10.837  0.4298  0.5984 -0.3585
 7773SOL    HW129156   5.441   7.836  10.895  0.2182  0.8578  0.0848
 7773SOL    HW229157   5.311   7.906  10.864  0.0321 -0.1632 -1.5429
 7774SOL     OW29158   3.490   7.450   3.935  0.0872  0.1324 -0.2187
 7774SOL    HW129159   3.556   7.404   3.987 -1.6035 -1.8961  0.2514
 7774SOL    HW229160   3.497   7.412   3.848  0.6208  1.1267 -0.6332
 7775SOL     OW29161   4.011   8.625   9.803  0.3533 -0.0162  0.0159
 7775SOL    HW129162   3.973   8.712   9.786  0.6925  0.2673  0.6688
 7775SOL    HW229163   3.953   8.564   9.757  0.3626  0.5944 -0.8175
 7776SOL     OW29164   5.153   2.978  11.931  0.1884  0.2994  0.3212
 7776SOL    HW129165   5.162   3.006  12.022  0.2062 -4.1955  1.9470
 7776SOL    HW229166   5.227   2.920  11.916 -1.0939 -0.9368 -1.7081
 7777SOL     OW29167   1.220   2.542   0.440  0.3496 -0.2042 -0.4055
 7777SOL    HW129168   1.217   2.601   0.365 -0.6842 -0.4910 -0.6018
 7777SOL    HW229169   1.134   2.500   0.442 -0.6606  1.6720  2.4425
 7778SOL     OW29170   1.347  12.158  11.871 -0.2411 -0.6967  0.1808
 7778SOL    HW129171   1.295  12.159  11.790 -1.0792  1.5763  0.6625
 7778SOL    HW229172   1.427  12.205  11.849 -0.7722  0.5496  0.7951
 7779SOL     OW29173   4.313   4.000   9.023  0.1571 -0.4698  0.5262
 7779SOL    HW129174   4.252   4.074   9.019 -0.9319 -1.3510 -0.0526
 7779SOL    HW229175   4.296   3.960   9.109 -1.2442 -1.6096 -0.2270
 7780SOL     OW29176   3.276  12.213   2.135 -0.4618  0.3911 -0.5341
 7780SOL    HW129177   3.332  12.187   2.061 -1.1719 -1.7727 -0.3833
 7780SOL    HW229178   3.328  12.278   2.182  1.0800 -0.0540 -1.5163
 7781SOL     OW29179   4.384   7.166   1.421  0.0161 -0.4953 -0.4020
 7781SOL    HW129180   4.340   7.248   1.444  0.0148 -0.3199 -1.0121
 7781SOL    HW229181   4.411   7.129   1.505 -2.0262 -1.0304  0.0851
 7782SOL     OW29182   6.448   0.164  10.951  0.1742  0.0865  0.1591
 7782SOL    HW129183   6.406   0.110  10.883  1.9309  0.3629 -1.1976
 7782SOL    HW229184   6.429   0.254  10.925 -0.6446  0.1870  1.0508
 7783SOL     OW29185   6.238   7.113   8.946 -0.3924 -0.5235 -0.2204
 7783SOL    HW129186   6.149   7.082   8.928 -0.6159 -0.8923  1.4195
 7783SOL    HW229187   6.236   7.140   9.038  1.7026 -2.3872  0.4434
 7784SOL     OW29188   1.752   7.157  10.366 -0.3786  0.4710 -0.7626
 7784SOL    HW129189   1.779   7.149  10.458 -2.4699 -1.2330 -0.1939
 7784SOL    HW229190   1.750   7.251  10.349  0.6539  0.7970  0.7448
 7785SOL     OW29191   5.730  10.028   5.652 -0.1253 -0.1394  0.8108
 7785SOL    HW129192   5.744  10.099   5.714  1.2875  0.2003  0.1279
 7785SOL    HW229193   5.636  10.010   5.657 -0.1566  0.3838  2.4829
 7786SOL     OW29194   9.396  11.425   4.600 -0.6949  0.9462  0.3133
 7786SOL    HW129195   9.302  11.437   4.613 -0.7712  1.9346 -0.9133
 7786SOL    HW229196   9.437  11.478   4.668 -0.9797 -0.6227  1.7758
 7787SOL     OW29197   1.280   6.856   6.144  0.2633  0.5384 -0.1089
 7787SOL    HW129198   1.265   6.893   6.057 -0.3383  0.5507 -0.0055
 7787SOL    HW229199   1.196   6.864   6.188  0.2909 -0.3962  0.1326
 7788SOL     OW29200   6.079   2.579   0.119  0.4168 -0.2702  0.0474
 7788SOL    HW129201   5.995   2.560   0.077  0.9642 -0.9300 -0.7829
 7788SOL    HW229202   6.071   2.541   0.207  0.3235 -1.5320 -0.4911
 7789SOL     OW29203   6.165   9.522   2.243  0.0154 -0.2928  0.2704
 7789SOL    HW129204   6.076   9.499   2.216 -0.1427  0.6322 -0.0197
 7789SOL    HW229205   6.154   9.595   2.304  0.6399  0.9307 -1.0135
 7790SOL     OW29206   7.325   4.691   0.732 -0.1711  0.0230  0.3056
 7790SOL    HW129207   7.316   4.597   0.715  1.1395 -0.0097 -0.3697
 7790SOL    HW229208   7.236   4.725   0.725 -0.5889 -1.0830 -0.0399
 7791SOL     OW29209   4.046   9.444   9.541  0.1714 -0.1180 -0.6186
 7791SOL    HW129210   4.076   9.481   9.624  0.3246  0.6383 -1.0006
 7791SOL    HW229211   4.119   9.457   9.481  0.1612 -0.8987 -0.8079
 7792SOL     OW29212  11.654   1.752   6.300 -0.8721  0.1499 -0.3221
 7792SOL    HW129213  11.586   1.802   6.344 -0.1938  0.7894  0.0364
 7792SOL    HW229214  11.730   1.810   6.300  1.0951 -2.0588  3.2893
 7793SOL     OW29215   9.905   6.416  10.900 -0.4266 -0.1503 -0.0327
 7793SOL    HW129216   9.990   6.381  10.927  0.5393  1.3098 -1.0720
 7793SOL    HW229217   9.844   6.345  10.918  0.7515 -0.7040  2.1456
 7794SOL     OW29218  11.908  11.280   4.028  0.0963  0.0941  0.0859
 7794SOL    HW129219  11.969  11.331   4.081  0.7719  1.2012 -1.6717
 7794SOL    HW229220  11.920  11.312   3.939 -0.2125 -2.4157 -0.9608
 7795SOL     OW29221   7.988   9.560   8.225 -0.2341  0.0686  0.5080
 7795SOL    HW129222   7.962   9.490   8.285  0.5970 -0.5049  0.2143
 7795SOL    HW229223   7.920   9.561   8.158 -0.5407 -0.0893  0.8127
 7796SOL     OW29224   1.486   7.871   8.080  0.1992  0.3250  0.4161
 7796SOL    HW129225   1.506   7.963   8.066  1.6633 -0.0552 -0.2385
 7796SOL    HW229226   1.567   7.834   8.115 -0.4062 -0.6880  0.8016
 7797SOL     OW29227   3.229   0.053   6.479 -0.2604  0.0770 -0.1416
 7797SOL    HW129228   3.267   0.084   6.560  0.2606 -0.8312 -0.0178
 7797SOL    HW229229   3.142   0.020   6.503  0.8050 -2.4733  0.5808
 7798SOL     OW29230   4.036   4.128   4.002 -0.6454 -0.4723 -0.0917
 7798SOL    HW129231   4.054   4.074   4.079  0.0749  1.0943  0.8733
 7798SOL    HW229232   4.074   4.213   4.022 -0.6209  0.0477 -2.1062
 7799SOL     OW29233  10.509   7.766  12.197 -0.1419 -0.0607  0.6376
 7799SOL    HW129234  10.463   7.682  12.188 -0.7746  0.3470  0.0202
 7799SOL    HW229235  10.532   7.770  12.290 -0.2659 -0.8365  0.7090
 7800SOL     OW29236   5.595   1.514   6.228  0.7617  0.0814 -0.2820
 7800SOL    HW129237   5.541   1.556   6.295  1.6352  1.9714 -0.6932
 7800SOL    HW229238   5.552   1.430   6.212  0.0334 -0.0382  1.9844
 7801SOL     OW29239   4.352   1.564   6.509 -0.2749  0.6161 -0.1631
 7801SOL    HW129240   4.445   1.562   6.532  0.1826  2.4834 -1.5941
 7801SOL    HW229241   4.314   1.631   6.567 -1.0732 -1.0182  1.3169
 7802SOL     OW29242   8.645   9.986  12.112  0.0220 -0.4368  0.1073
 7802SOL    HW129243   8.647  10.034  12.029  0.1534 -0.6703 -0.0244
 7802SOL    HW229244   8.553   9.987  12.138 -0.3090 -1.8129 -0.8859
 7803SOL     OW29245   7.309   1.325   0.824  0.1416  0.2281  0.5125
 7803SOL    HW129246   7.396   1.365   0.827  1.1693 -1.8882  0.5270
 7803SOL    HW229247   7.292   1.297   0.914 -0.2902  0.0807  0.3861
 7804SOL     OW29248   6.301   7.486   9.095  0.2074  0.3446  0.0937
 7804SOL    HW129249   6.337   7.570   9.069  2.2509  0.2775  2.3268
 7804SOL    HW229250   6.369   7.423   9.074 -1.5090 -0.9414 -2.0754
 7805SOL     OW29251   1.058  10.365  11.440 -0.3178  0.0223  0.5136
 7805SOL    HW129252   1.144  10.338  11.474 -1.3443 -0.1502  3.2515
 7805SOL    HW229253   1.078  10.436  11.379  1.9457 -2.0532 -1.3903
 7806SOL     OW29254   1.456   9.606  11.305 -0.2247 -0.2866  0.4398
 7806SOL    HW129255   1.380   9.599  11.364 -0.8586  1.8432 -0.0473
 7806SOL    HW229256   1.486   9.696  11.316  1.4111 -0.7017 -0.4170
 7807SOL     OW29257   3.607  11.738   4.719 -0.2301  0.5313  0.4198
 7807SOL    HW129258   3.567  11.819   4.688  0.4722  0.4094 -0.8638
 7807SOL    HW229259   3.694  11.764   4.749 -0.7800  0.5904  2.0354
 7808SOL     OW29260   6.453   2.619   8.822 -0.4595  0.2389 -0.3927
 7808SOL    HW129261   6.368   2.579   8.806 -0.4023  0.2181 -0.6378
 7808SOL    HW229262   6.494   2.562   8.888 -1.3041  1.1727  0.9755
 7809SOL     OW29263  10.209   0.971   4.151 -0.1483  0.2969 -0.4056
 7809SOL    HW129264  10.220   0.883   4.187 -0.6306  1.4534  2.8739
 7809SOL    HW229265  10.267   0.972   4.074 -0.4894 -2.9720 -0.8605
 7810SOL     OW29266   1.279   8.815   5.124  0.1489 -0.1381 -0.4757
 7810SOL    HW129267   1.343   8.860   5.069  0.3783  1.8691  1.2923
 7810SOL    HW229268   1.248   8.882   5.184 -2.4004 -1.4772 -0.1650
 7811SOL     OW29269   8.633   7.399   9.906  0.6891 -0.4531 -0.2230
 7811SOL    HW129270   8.676   7.386   9.990  0.5051 -1.4275 -0.2730
 7811SOL    HW229271   8.591   7.485   9.913  2.2726  0.3217 -0.0259
 7812SOL     OW29272   7.223   6.248   7.788 -0.1554 -0.2326 -0.0440
 7812SOL    HW129273   7.158   6.230   7.720  0.9137 -2.1654 -0.6516
 7812SOL    HW229274   7.172   6.262   7.868 -1.4597  2.5179 -1.2589
 7813SOL     OW29275  11.995   1.004   3.699 -0.3474 -0.1987  0.7944
 7813SOL    HW129276  11.902   1.001   3.720 -0.6844  2.3976  0.1143
 7813SOL    HW229277  11.998   1.011   3.604  0.5320 -0.1837  0.8137
 7814SOL     OW29278   5.728   0.322  12.131  0.2114  0.3681  0.2932
 7814SOL    HW129279   5.666   0.249  12.127 -0.0663  0.6225 -0.1090
 7814SOL    HW229280   5.673   0.399  12.150  0.2013  0.8413 -1.5237
 7815SOL     OW29281   8.702   6.766   2.433 -0.3650  0.0634 -0.0098
 7815SOL    HW129282   8.746   6.718   2.363  0.3980  1.6244 -0.6312
 7815SOL    HW229283   8.741   6.731   2.514  1.4030  0.7895 -0.5164
 7816SOL     OW29284   3.714   8.926   4.680  0.1503  0.0417  1.1423
 7816SOL    HW129285   3.666   8.861   4.629  1.3112 -0.0091  0.0777
 7816SOL    HW229286   3.691   9.010   4.641  0.9184  0.0155  0.6049
 7817SOL     OW29287   6.400   2.055  12.104 -0.0088 -0.9404 -0.2851
 7817SOL    HW129288   6.429   1.999  12.177  0.4394  0.0829  0.3527
 7817SOL    HW229289   6.364   1.995  12.040 -2.4343 -1.7817  1.6652
 7818SOL     OW29290   3.353  11.940   4.991  0.4847  0.1025 -0.5428
 7818SOL    HW129291   3.316  11.864   5.035 -1.7104  1.8246  0.8633
 7818SOL    HW229292   3.278  11.981   4.947  1.6926  1.1616 -1.7077
 7819SOL     OW29293   0.023   9.511   0.693 -0.3004  0.1792  0.1833
 7819SOL    HW129294  -0.019   9.425   0.685 -0.7006  0.3780  0.1252
 7819SOL    HW229295   0.057   9.529   0.605  1.6313 -0.8403  0.6612
 7820SOL     OW29296   0.132  10.493   7.072 -0.1415 -0.0698 -0.2244
 7820SOL    HW129297   0.143  10.398   7.073 -0.4404 -0.2064  3.3981
 7820SOL    HW229298   0.040  10.508   7.093  0.1985  0.9779  0.6596
 7821SOL     OW29299  10.706   2.750   6.857  0.3625 -0.0813  0.1938
 7821SOL    HW129300  10.745   2.681   6.803  1.3561  0.6753 -0.0788
 7821SOL    HW229301  10.779   2.809   6.877 -0.5343  1.0719  0.1409
 7822SOL     OW29302   9.294   7.625   6.174  0.1817 -0.0827 -0.0580
 7822SOL    HW129303   9.368   7.579   6.134  1.8225  2.3387 -0.0134
 7822SOL    HW229304   9.332   7.670   6.250 -1.7204 -0.0934  0.9477
 7823SOL     OW29305   2.867   0.077   6.925 -0.3673 -0.5971 -0.0858
 7823SOL    HW129306   2.926   0.051   6.854 -0.4908  0.8827 -0.7695
 7823SOL    HW229307   2.926   0.108   6.995 -0.2744  0.9130 -0.7811
 7824SOL     OW29308   4.882   5.437   5.067 -0.4225  0.0255  0.5905
 7824SOL    HW129309   4.856   5.444   5.159  0.8221 -1.8654  1.1403
 7824SOL    HW229310   4.966   5.484   5.062 -0.3520 -0.1145  0.4712
 7825SOL     OW29311   4.947   4.991  11.759 -0.1798  0.3123 -0.4428
 7825SOL    HW129312   5.039   4.972  11.778 -0.4402 -1.5658 -0.9038
 7825SOL    HW229313   4.948   5.027  11.670  0.1211  0.6842 -0.2978
 7826SOL     OW29314   6.467  10.569  10.674  0.1856  0.3670  0.1337
 7826SOL    HW129315   6.448  10.479  10.699 -1.2469  0.8274  0.8284
 7826SOL    HW229316   6.561  10.570  10.657  0.3333 -1.1125  0.6965
 7827SOL     OW29317   2.768   1.303   4.789 -0.2052 -0.2778 -0.0152
 7827SOL    HW129318   2.823   1.224   4.795 -1.3293 -1.2608 -1.8175
 7827SOL    HW229319   2.695   1.277   4.732 -0.3938  2.1782 -1.0028
 7828SOL     OW29320   4.179   3.860   5.262  0.2491 -0.2512 -0.4139
 7828SOL    HW129321   4.186   3.910   5.343  1.6252  1.3016 -1.4342
 7828SOL    HW229322   4.247   3.895   5.205 -0.6383 -1.3179 -2.2565
 7829SOL     OW29323   4.164   3.583  10.048  0.1967 -0.0262  0.3776
 7829SOL    HW129324   4.256   3.562  10.065 -0.1605  0.6410  3.6941
 7829SOL    HW229325   4.120   3.498  10.044  0.5264 -0.2810  1.8313
 7830SOL     OW29326   3.844  10.046   5.130 -0.1450  0.1677 -0.4779
 7830SOL    HW129327   3.857   9.956   5.102 -0.7297 -0.0985  0.0748
 7830SOL    HW229328   3.894  10.054   5.212  1.5536  0.9388 -1.5273
 7831SOL     OW29329   6.856   1.532   6.336  0.3189  0.5111 -0.2901
 7831SOL    HW129330   6.772   1.577   6.324  0.4448  1.4626  1.9684
 7831SOL    HW229331   6.920   1.593   6.300  0.1523  0.0628 -1.4219
 7832SOL     OW29332   4.408   7.625   5.951 -0.0295 -0.1455  0.0100
 7832SOL    HW129333   4.476   7.679   5.911 -1.2689  1.3001 -0.2116
 7832SOL    HW229334   4.424   7.634   6.045 -0.1356  0.5053 -0.0276
 7833SOL     OW29335   8.553   6.181   3.352 -0.5025 -0.1699  0.2954
 7833SOL    HW129336   8.510   6.106   3.309  0.3433 -0.2579 -0.4420
 7833SOL    HW229337   8.496   6.202   3.426 -1.3450 -0.8288 -0.1399
 7834SOL     OW29338   1.148   8.466   4.538  0.2839  0.3030  0.5978
 7834SOL    HW129339   1.060   8.443   4.508  0.4233  0.4200  0.0982
 7834SOL    HW229340   1.173   8.541   4.484  0.8605  0.0005  0.4459
 7835SOL     OW29341   5.591   8.035  11.587  0.1672 -0.5517 -0.1120
 7835SOL    HW129342   5.672   8.085  11.590 -0.7151  0.9323  0.1212
 7835SOL    HW229343   5.575   8.010  11.678  0.8692 -1.7287 -0.2985
 7836SOL     OW29344   6.656  11.526   5.620 -0.2258 -0.7447  0.2474
 7836SOL    HW129345   6.580  11.476   5.591 -0.0142 -0.2393 -1.2679
 7836SOL    HW229346   6.623  11.582   5.689 -1.6478  0.5917 -1.4308
 7837SOL     OW29347   7.465   3.050   3.782  0.2031 -0.1315 -0.3282
 7837SOL    HW129348   7.483   3.144   3.779  0.1393 -0.0520  1.2164
 7837SOL    HW229349   7.378   3.043   3.820  1.0762 -0.8631  1.6751
 7838SOL     OW29350  10.860   5.663   1.583  0.0505 -0.1554 -0.3758
 7838SOL    HW129351  10.827   5.744   1.623  1.6219  1.5655 -2.3436
 7838SOL    HW229352  10.802   5.648   1.508  0.2771 -0.3717 -0.5078
 7839SOL     OW29353   9.205   6.649   9.184  0.4999  0.0400  0.1801
 7839SOL    HW129354   9.154   6.671   9.106  0.5020 -2.2698 -0.5619
 7839SOL    HW229355   9.279   6.597   9.151  0.6066 -0.8349  1.6811
 7840SOL     OW29356  11.066   1.760   2.440  0.1999 -0.2628 -0.2028
 7840SOL    HW129357  11.155   1.762   2.405 -0.3201 -0.5639 -1.6073
 7840SOL    HW229358  11.057   1.671   2.474  0.5746 -0.0960  0.3479
 7841SOL     OW29359  11.221   0.166   5.126  0.2011 -0.4407  0.0492
 7841SOL    HW129360  11.257   0.125   5.048 -0.1736 -0.8101  0.0702
 7841SOL    HW229361  11.211   0.095   5.189  0.2463 -0.1906  0.3431
 7842SOL     OW29362   3.113   4.836   4.645 -0.2831  0.2842 -0.2344
 7842SOL    HW129363   3.027   4.817   4.683 -0.4630 -0.3725 -0.9450
 7842SOL    HW229364   3.097   4.907   4.583 -0.1398  0.7969  0.3122
 7843SOL     OW29365   4.990   7.580  12.270  0.0510 -0.0936 -0.6726
 7843SOL    HW129366   4.902   7.552  12.295  0.5025 -1.2781 -0.3458
 7843SOL    HW229367   5.047   7.543  12.337  0.5913  2.9872  0.7434
 7844SOL     OW29368  11.901  11.238   5.501 -0.1456  0.2496 -0.1104
 7844SOL    HW129369  11.850  11.179   5.446 -0.4876  0.9476 -0.5587
 7844SOL    HW229370  11.963  11.181   5.546 -1.4439 -0.6418  0.6026
 7845SOL     OW29371   2.542   8.650   1.578 -0.4010  0.2503  0.2578
 7845SOL    HW129372   2.611   8.694   1.527 -1.4930  1.2572 -0.4034
 7845SOL    HW229373   2.507   8.719   1.634 -2.0000  0.2045 -0.6328
 7846SOL     OW29374   0.696  10.384  10.909 -0.3648  0.2196 -0.1017
 7846SOL    HW129375   0.682  10.292  10.931 -0.3314  0.4351  0.8699
 7846SOL    HW229376   0.610  10.425  10.917 -0.3035  0.3516 -0.1064
 7847SOL     OW29377  10.673   7.306   7.083 -0.2490 -0.0183  0.0844
 7847SOL    HW129378  10.614   7.364   7.131 -3.2384 -0.8772 -2.2263
 7847SOL    HW229379  10.678   7.344   6.996  1.0082 -1.0810 -0.3307
 7848SOL     OW29380   5.186   5.273   7.905  0.6122  0.5733  0.4904
 7848SOL    HW129381   5.203   5.275   7.811  1.7014 -0.2184  0.6503
 7848SOL    HW229382   5.109   5.216   7.914  2.0035 -1.4584  0.2316
 7849SOL     OW29383   0.596  11.447   0.161  0.6014  0.1780  0.3804
 7849SOL    HW129384   0.641  11.366   0.139 -1.5928 -1.0900  0.2427
 7849SOL    HW229385   0.538  11.423   0.234 -2.6015  0.6177 -1.7936
 7850SOL     OW29386   3.970  10.114   5.430 -0.1688  0.0410  0.4945
 7850SOL    HW129387   3.900  10.066   5.475  1.4626 -2.1090  0.9554
 7850SOL    HW229388   4.045  10.053   5.432  1.3178  1.6993 -1.1339
 7851SOL     OW29389   1.863  11.948   6.996 -0.2413  0.7241 -0.3580
 7851SOL    HW129390   1.837  12.039   6.978 -0.5117  0.5545 -0.8601
 7851SOL    HW229391   1.958  11.949   6.989 -0.0663  1.3624  1.5401
 7852SOL     OW29392  11.677   2.258   2.382  0.1132 -0.2737 -0.3782
 7852SOL    HW129393  11.689   2.250   2.477 -0.8700 -2.2264 -0.3469
 7852SOL    HW229394  11.748   2.206   2.345 -0.5229 -0.9830 -0.6283
 7853SOL     OW29395   8.980   1.564   6.350  0.3568  0.2594 -0.4267
 7853SOL    HW129396   9.065   1.535   6.383  0.4380 -0.5855 -1.3299
 7853SOL    HW229397   8.918   1.539   6.419  0.6581 -0.5207 -0.4231
 7854SOL     OW29398  10.276   9.002   7.896  0.4322 -0.0056  0.0519
 7854SOL    HW129399  10.217   8.989   7.821 -0.0957  0.6310  0.3512
 7854SOL    HW229400  10.244   8.940   7.962 -1.0190  1.5193  0.8513
 7855SOL     OW29401   3.397   8.956   3.530  0.4202  0.4699 -0.0727
 7855SOL    HW129402   3.482   8.915   3.549  0.2265  0.2667  0.3669
 7855SOL    HW229403   3.333   8.885   3.542  0.3151  0.2021 -1.9305
 7856SOL     OW29404   0.997  11.004   9.811  0.0642  0.2296 -0.1885
 7856SOL    HW129405   0.971  11.088   9.774  1.0948  0.6830  0.0645
 7856SOL    HW229406   1.092  11.001   9.799 -0.0216 -1.2374 -0.8684
 7857SOL     OW29407   7.307   8.999   8.882  0.5025 -0.2238  0.6363
 7857SOL    HW129408   7.349   8.917   8.856  2.1804 -0.3452  3.3319
 7857SOL    HW229409   7.379   9.062   8.887 -0.5689  1.1120 -0.0754
 7858SOL     OW29410   3.355  12.110   4.495  0.4987  0.5282 -0.7337
 7858SOL    HW129411   3.440  12.140   4.464  1.3439  0.0928  0.9873
 7858SOL    HW229412   3.377  12.045   4.563 -1.1481  1.7567  1.0726
 7859SOL     OW29413  11.435  12.080   9.914  0.2172  0.1768 -0.0336
 7859SOL    HW129414  11.525  12.050   9.929  0.0878  0.0892  0.6032
 7859SOL    HW229415  11.384  12.000   9.903 -0.1399  0.1107  1.7360
 7860SOL     OW29416   1.052  10.059   9.858  0.3401  0.2133  0.1633
 7860SOL    HW129417   1.051   9.971   9.896 -0.6435  0.3770  0.5752
 7860SOL    HW229418   1.109  10.053   9.782  2.2513 -0.1797  1.5700
 7861SOL     OW29419   2.813   6.973   4.893 -0.2513  0.0106  0.0546
 7861SOL    HW129420   2.777   6.931   4.815  0.9339 -2.0388  0.5524
 7861SOL    HW229421   2.907   6.956   4.889  0.5443  3.5405 -0.1948
 7862SOL     OW29422  10.842  10.234  11.109 -0.2910  0.2727 -0.0167
 7862SOL    HW129423  10.825  10.322  11.141 -1.3385  0.8312 -1.9345
 7862SOL    HW229424  10.766  10.183  11.135  0.8154 -0.4259  2.0840
 7863SOL     OW29425   6.467  12.125   2.348 -0.0203 -0.3477  0.3675
 7863SOL    HW129426   6.559  12.147   2.330  0.1858 -1.4066  0.0772
 7863SOL    HW229427   6.417  12.177   2.285  0.4110 -0.1894  0.1481
 7864SOL     OW29428  10.668   4.543   3.080 -0.1013  0.0286  0.0989
 7864SOL    HW129429  10.616   4.471   3.115 -0.2312 -0.2349 -0.6346
 7864SOL    HW229430  10.613   4.620   3.094  0.1468  0.0449  1.1249
 7865SOL     OW29431   0.853   6.569   4.419  0.7838  0.3397 -0.4802
 7865SOL    HW129432   0.788   6.500   4.432  1.8147 -0.4386  0.8635
 7865SOL    HW229433   0.802   6.645   4.390 -0.5488 -0.5886 -0.6683
 7866SOL     OW29434   3.659   9.648   8.980 -0.1394  0.0419 -0.2840
 7866SOL    HW129435   3.733   9.709   8.988  0.1653 -0.1303 -1.6886
 7866SOL    HW229436   3.625   9.641   9.070  3.3236 -2.1533  1.0606
 7867SOL     OW29437   7.871   9.837   6.352 -0.1230  0.0611  0.5312
 7867SOL    HW129438   7.796   9.788   6.388  0.6414 -1.4720  0.1438
 7867SOL    HW229439   7.895   9.788   6.273  1.3932  0.4016  0.7463
 7868SOL     OW29440  10.562   5.224   7.332 -0.6871 -0.4551 -0.4029
 7868SOL    HW129441  10.599   5.305   7.367 -0.1856  1.0199 -3.9231
 7868SOL    HW229442  10.637   5.173   7.303 -1.0181 -2.1562  1.5346
 7869SOL     OW29443   8.656   3.020   1.334  0.3717  0.0770 -0.0883
 7869SOL    HW129444   8.635   2.975   1.252  0.1051  1.9330 -1.0814
 7869SOL    HW229445   8.571   3.045   1.371  0.5347  0.2091  0.2022
 7870SOL     OW29446   6.097   4.236  12.253  0.0304  0.3316 -0.1130
 7870SOL    HW129447   6.159   4.247  12.181 -0.2807 -0.0061 -0.4407
 7870SOL    HW229448   6.105   4.316  12.305  2.4306 -0.6087  1.1880
 7871SOL     OW29449  10.206   0.828   9.717  0.3821  0.3023  0.0778
 7871SOL    HW129450  10.223   0.921   9.730  0.6706  0.1629  0.7094
 7871SOL    HW229451  10.271   0.801   9.651  1.2347  0.2483  0.9123
 7872SOL     OW29452   1.611   7.875   3.580  0.1534 -0.3422 -0.7790
 7872SOL    HW129453   1.563   7.836   3.653 -1.1794 -0.4263 -1.6798
 7872SOL    HW229454   1.611   7.809   3.512  0.7478  0.0136 -1.1387
 7873SOL     OW29455   6.100   5.363   9.271 -0.3084  0.6605  0.2297
 7873SOL    HW129456   6.128   5.391   9.359  1.8040 -3.0293  0.9550
 7873SOL    HW229457   6.062   5.276   9.285 -0.7872  0.3684 -2.4112
 7874SOL     OW29458   6.561   9.887   0.437  0.2019  0.0737 -0.2711
 7874SOL    HW129459   6.521   9.807   0.403  0.1697  0.4147 -1.0721
 7874SOL    HW229460   6.603   9.861   0.519 -2.0418 -0.2063  0.8526
 7875SOL     OW29461   0.753   8.650  11.959 -0.2021 -0.2019  0.4477
 7875SOL    HW129462   0.704   8.697  11.892  2.3535  1.0875 -0.6626
 7875SOL    HW229463   0.803   8.585  11.910 -0.7724 -1.5119  1.5438
 7876SOL     OW29464   3.346   3.928  10.715  0.5416  0.0195  0.4309
 7876SOL    HW129465   3.436   3.917  10.745  0.7497 -1.0943 -0.5202
 7876SOL    HW229466   3.344   3.886  10.629 -1.1127 -0.7923  0.8290
 7877SOL     OW29467   5.840  10.824  12.248  0.5012  0.2454 -0.2513
 7877SOL    HW129468   5.755  10.781  12.255  0.2241  0.8172 -0.0374
 7877SOL    HW229469   5.820  10.910  12.212  0.7826  0.9977  1.2987
 7878SOL     OW29470   9.911   0.562   2.911  0.0367 -0.0299 -0.2936
 7878SOL    HW129471   9.843   0.603   2.858  0.3640  0.7314 -0.1348
 7878SOL    HW229472   9.989   0.563   2.856 -0.2799 -1.7593 -0.8379
 7879SOL     OW29473  10.172   4.506   0.366  0.1217  0.5070 -0.0288
 7879SOL    HW129474  10.119   4.559   0.307  0.0101 -0.5979 -0.9595
 7879SOL    HW229475  10.111   4.444   0.405  0.8516 -1.8262 -2.2892
 7880SOL     OW29476  11.802  10.855  11.919 -0.1907  0.6202  0.2346
 7880SOL    HW129477  11.840  10.890  11.838  0.7026  0.3781  0.5377
 7880SOL    HW229478  11.743  10.786  11.889 -0.4295  1.0265 -0.2503
 7881SOL     OW29479   2.271   6.676   6.261  0.4066  0.4353  0.0050
 7881SOL    HW129480   2.307   6.765   6.255 -0.5338  0.8062 -0.2707
 7881SOL    HW229481   2.250   6.653   6.171 -1.8226  0.9934  0.3254
 7882SOL     OW29482   9.645   1.547   4.391 -0.0159  0.1196 -0.3495
 7882SOL    HW129483   9.646   1.548   4.487 -1.1040  0.5789 -0.3275
 7882SOL    HW229484   9.722   1.496   4.366  0.6653  0.5708  0.7574
 7883SOL     OW29485   3.202   3.195  10.207  0.4386  0.6219  0.0979
 7883SOL    HW129486   3.229   3.275  10.251 -0.3612  0.8870  0.1250
 7883SOL    HW229487   3.243   3.125  10.256  0.3026  0.9637  0.7057
 7884SOL     OW29488   9.866   1.357   1.758 -0.5457  0.3819 -0.4629
 7884SOL    HW129489   9.912   1.434   1.792 -1.6630  1.3994 -1.1817
 7884SOL    HW229490   9.798   1.339   1.823  2.5125 -3.0109  2.2546
 7885SOL     OW29491   4.499   1.187   6.003 -0.7854  0.3546  0.3205
 7885SOL    HW129492   4.419   1.142   5.976 -1.3299  0.8672  1.0476
 7885SOL    HW229493   4.469   1.266   6.046  0.0399 -0.3556  2.3067
 7886SOL     OW29494   6.341   8.561   6.895  0.2789 -0.8845 -0.2961
 7886SOL    HW129495   6.257   8.543   6.853 -0.4990  2.1507 -0.2846
 7886SOL    HW229496   6.406   8.553   6.825 -0.5923  0.8171 -1.3647
 7887SOL     OW29497   2.665   5.997   3.977 -0.2656  0.2029  0.1991
 7887SOL    HW129498   2.589   6.051   3.956 -0.7896 -0.1424  1.1504
 7887SOL    HW229499   2.731   6.061   4.006 -1.0932  0.3273  1.9314
 7888SOL     OW29500  11.751   9.443   0.645 -0.5162 -0.2782 -0.1707
 7888SOL    HW129501  11.731   9.370   0.586  0.5762 -1.2956  0.6592
 7888SOL    HW229502  11.673   9.451   0.701 -1.5773  0.7220 -1.7101
 7889SOL     OW29503   9.385   4.487  11.168  0.2265  0.4964 -0.1339
 7889SOL    HW129504   9.334   4.473  11.089 -0.4509 -0.0640  0.3843
 7889SOL    HW229505   9.322   4.475  11.240  0.9491  0.3937  0.5023
 7890SOL     OW29506  10.254   0.204   6.811 -0.1100 -0.8151  0.4414
 7890SOL    HW129507  10.291   0.159   6.735  1.6860  1.5386 -0.1760
 7890SOL    HW229508  10.329   0.236   6.860 -1.2821  0.0756  1.7519
 7891SOL     OW29509   8.807  10.071   5.858 -0.1867 -0.0721  0.0079
 7891SOL    HW129510   8.834  10.132   5.927 -1.4479  0.9102 -0.3318
 7891SOL    HW229511   8.888  10.052   5.810  0.7943 -1.0686  1.9300
 7892SOL     OW29512   2.646  11.371   1.404 -0.5903 -0.2848 -0.5999
 7892SOL    HW129513   2.567  11.382   1.351 -0.6924 -0.2037 -0.4335
 7892SOL    HW229514   2.702  11.445   1.379 -0.9792  0.2171 -0.0011
 7893SOL     OW29515  10.515  12.202   7.309  0.1353  0.2581 -0.1339
 7893SOL    HW129516  10.595  12.254   7.295  0.0157  0.0730 -1.6404
 7893SOL    HW229517  10.457  12.228   7.238 -1.2526  0.5286  1.0497
 7894SOL     OW29518   4.695   5.607  10.216  0.1107 -0.4651 -0.1841
 7894SOL    HW129519   4.609   5.566  10.213 -0.5528  0.7167  1.2414
 7894SOL    HW229520   4.716   5.627  10.125 -0.5869 -1.7853 -0.6696
 7895SOL     OW29521   2.666   8.868  12.044 -0.4450  0.0855  0.1239
 7895SOL    HW129522   2.710   8.835  12.121  0.6780  0.4657 -0.3306
 7895SOL    HW229523   2.588   8.912  12.077 -1.1291 -1.5933  0.8506
 7896SOL     OW29524   7.510   7.789   7.535  0.7568 -0.4099 -0.3291
 7896SOL    HW129525   7.536   7.867   7.584  0.0196 -0.3053 -0.1007
 7896SOL    HW229526   7.493   7.821   7.446 -0.1078 -0.2040 -0.0952
 7897SOL     OW29527   3.945   4.795   7.448 -0.2454  0.3849  0.0519
 7897SOL    HW129528   4.004   4.747   7.507 -2.4858 -1.1488  1.2296
 7897SOL    HW229529   3.918   4.872   7.498 -0.6488  0.0998  0.2834
 7898SOL     OW29530  10.726   1.701   4.531 -0.1976 -0.3956 -0.0872
 7898SOL    HW129531  10.755   1.610   4.535 -0.5003 -0.4598  3.0713
 7898SOL    HW229532  10.714   1.718   4.438  1.1230 -3.1627 -0.8752
 7899SOL     OW29533   2.360   2.702   6.249  0.5883  0.4611  0.0863
 7899SOL    HW129534   2.376   2.786   6.293  2.5095  0.1301  0.0813
 7899SOL    HW229535   2.406   2.637   6.302 -1.6200 -0.7983  0.6145
 7900SOL     OW29536   7.472   8.597  12.030  0.4985 -0.1092 -0.1411
 7900SOL    HW129537   7.460   8.682  12.073 -2.1618  0.0996 -1.1600
 7900SOL    HW229538   7.523   8.546  12.093 -0.2338  1.3303  1.7142
 7901SOL     OW29539   3.798   7.489   5.686 -0.2411 -0.6621  0.2289
 7901SOL    HW129540   3.778   7.417   5.746  1.3226 -4.7390 -3.5535
 7901SOL    HW229541   3.718   7.500   5.634  0.1242 -1.1082 -0.4440
 7902SOL     OW29542   4.770   4.085   7.109 -0.0403 -0.3823  0.3256
 7902SOL    HW129543   4.757   3.992   7.093 -1.4616 -0.0015 -1.0702
 7902SOL    HW229544   4.697   4.110   7.167  0.3040 -0.1310  0.6556
 7903SOL     OW29545  10.941   1.554   8.591  0.1931  0.2091 -0.0806
 7903SOL    HW129546  10.957   1.561   8.497  0.5317  0.1792 -0.0290
 7903SOL    HW229547  10.876   1.485   8.600 -1.5377  1.7153 -0.4476
 7904SOL     OW29548   4.545   5.848  11.570  0.7724  0.4146  0.4821
 7904SOL    HW129549   4.552   5.933  11.613  1.3599  0.7848 -0.3138
 7904SOL    HW229550   4.590   5.787  11.629  1.8086  0.9623  0.2875
 7905SOL     OW29551   9.073   9.976   7.358 -0.5534  0.5899 -0.2571
 7905SOL    HW129552   9.096   9.941   7.445 -1.3884  1.7657  0.4748
 7905SOL    HW229553   9.068  10.071   7.372 -0.3696  0.8199 -1.6864
 7906SOL     OW29554   7.095   2.503  10.430  0.3164 -0.2152 -0.1018
 7906SOL    HW129555   7.044   2.516  10.510  0.9251 -0.3368  0.3158
 7906SOL    HW229556   7.065   2.572  10.371  1.4293  1.3112  1.0418
 7907SOL     OW29557   9.000   3.433   7.899  0.5102 -0.5023  0.4194
 7907SOL    HW129558   8.987   3.383   7.980 -1.0843 -0.1734  0.3873
 7907SOL    HW229559   9.070   3.495   7.921  0.1848 -0.4957  1.5192
 7908SOL     OW29560   9.729   1.244   2.155  0.2503  0.5945  0.5963
 7908SOL    HW129561   9.708   1.309   2.222 -2.2260  0.6573 -0.1338
 7908SOL    HW229562   9.695   1.162   2.190  0.2206  0.3704  0.0487
 7909SOL     OW29563   0.804   4.198   1.469  0.3758 -0.2175 -0.2127
 7909SOL    HW129564   0.800   4.172   1.377  0.8472 -0.9866 -0.0293
 7909SOL    HW229565   0.817   4.292   1.467 -0.4559 -0.0984 -0.9233
 7910SOL     OW29566   7.944   9.146   4.785  0.3995  0.2200 -0.2754
 7910SOL    HW129567   7.983   9.185   4.706  2.4579 -3.2085 -1.1284
 7910SOL    HW229568   7.853   9.127   4.759  0.4356  1.0488 -1.0648
 7911SOL     OW29569   6.869   0.130   8.623  0.5413  0.0078 -0.1711
 7911SOL    HW129570   6.794   0.074   8.644 -0.0572  0.5157 -0.9404
 7911SOL    HW229571   6.938   0.068   8.598  0.2360 -0.4370  0.0647
 7912SOL     OW29572   5.075   3.335   7.599 -0.3734  0.0906 -0.0957
 7912SOL    HW129573   5.061   3.272   7.528  0.1824 -0.7490  0.5262
 7912SOL    HW229574   5.169   3.349   7.601 -0.6072  2.3495 -1.3897
 7913SOL     OW29575  10.199   5.251   3.976  0.0129 -0.3864 -0.5419
 7913SOL    HW129576  10.162   5.198   4.046 -1.4760  0.5206 -0.6187
 7913SOL    HW229577  10.255   5.190   3.928  0.6306 -1.1535  1.0800
 7914SOL     OW29578   9.052   5.666   6.799 -0.5070  0.0408  0.1479
 7914SOL    HW129579   9.137   5.622   6.807  0.9811  2.7039 -0.0967
 7914SOL    HW229580   9.053   5.734   6.866 -3.3937 -1.1391  1.5654
 7915SOL     OW29581   8.350  11.109   9.799  0.0917  0.1960 -0.4232
 7915SOL    HW129582   8.273  11.058   9.822  1.4395 -1.9189 -0.2821
 7915SOL    HW229583   8.386  11.139   9.883 -0.1866  0.5610 -0.4362
 7916SOL     OW29584   2.260   4.531   6.611 -0.9173  0.4129 -0.3634
 7916SOL    HW129585   2.297   4.472   6.545 -1.1092 -0.0259 -0.0847
 7916SOL    HW229586   2.333   4.548   6.671 -1.8325 -3.0267  2.0398
 7917SOL     OW29587   3.387   9.309   8.726 -0.3808 -0.4773 -0.1016
 7917SOL    HW129588   3.433   9.306   8.810  2.8558 -1.0389 -1.7597
 7917SOL    HW229589   3.368   9.218   8.705 -0.3567 -0.4143 -0.4035
 7918SOL     OW29590   0.347   1.783   3.015 -0.2940 -0.4748 -0.2871
 7918SOL    HW129591   0.378   1.761   2.927  0.7496  1.0309 -0.3384
 7918SOL    HW229592   0.322   1.699   3.054  0.0616 -1.2669 -1.7067
 7919SOL     OW29593   2.837   6.337   3.758 -0.2083  0.0249  0.3082
 7919SOL    HW129594   2.878   6.398   3.818  0.5713  1.3583 -1.4884
 7919SOL    HW229595   2.743   6.358   3.762 -0.2328 -0.2491  1.3941
 7920SOL     OW29596   9.048   8.067   7.416  0.2706  0.5601 -0.6012
 7920SOL    HW129597   9.017   7.987   7.459 -2.5158  1.7878 -0.0827
 7920SOL    HW229598   9.064   8.041   7.326 -0.0514 -0.6956 -0.3124
 7921SOL     OW29599   4.907  11.308   3.304 -0.1612 -0.1096 -0.0223
 7921SOL    HW129600   4.937  11.318   3.213 -1.0934  0.2356 -0.3055
 7921SOL    HW229601   4.845  11.380   3.316  1.1849  0.8789  1.4342
 7922SOL     OW29602   5.419   4.488   3.328  0.1339 -0.0850  0.0800
 7922SOL    HW129603   5.344   4.455   3.279  2.7965 -2.9614 -2.5612
 7922SOL    HW229604   5.454   4.559   3.274 -0.5214  1.0915  1.1779
 7923SOL     OW29605   8.242   7.454   0.654 -0.1892  0.3996  0.3392
 7923SOL    HW129606   8.297   7.518   0.609  1.9544  0.1761  2.4189
 7923SOL    HW229607   8.194   7.505   0.720  0.4371  0.1130  1.0387
 7924SOL     OW29608   4.513   4.275   3.407  0.6291 -0.1235 -0.0111
 7924SOL    HW129609   4.581   4.228   3.455 -1.1178 -0.1404  2.6273
 7924SOL    HW229610   4.471   4.207   3.354  1.9132 -0.3084 -0.8510
 7925SOL     OW29611  11.780   3.300   6.997  0.0457  0.3935 -0.0766
 7925SOL    HW129612  11.839   3.242   7.044 -1.3872 -0.9159  0.1902
 7925SOL    HW229613  11.809   3.296   6.906  1.3055  1.0027  0.2843
 7926SOL     OW29614   6.679  12.048   2.866  0.3136 -0.1866 -0.4901
 7926SOL    HW129615   6.663  11.956   2.844 -1.0898  0.4665 -2.4574
 7926SOL    HW229616   6.661  12.096   2.785  1.7107  1.7885  0.2743
 7927SOL     OW29617  11.421  10.083  10.926 -0.2819 -0.2911 -0.1843
 7927SOL    HW129618  11.490  10.139  10.891 -1.5543  0.5756 -1.4206
 7927SOL    HW229619  11.380  10.136  10.995 -0.4394 -0.3364 -0.2405
 7928SOL     OW29620  10.607   7.092   9.680 -0.0531 -0.2034  0.1776
 7928SOL    HW129621  10.529   7.067   9.630 -0.7237 -1.1178  1.6175
 7928SOL    HW229622  10.643   7.009   9.711 -0.0355  0.3764  1.7693
 7929SOL     OW29623   3.948  12.319  10.346  0.0312 -0.3983 -0.3757
 7929SOL    HW129624   4.042  12.309  10.330  0.2018  0.7771 -0.1740
 7929SOL    HW229625   3.930  12.261  10.420  0.6861 -0.2840 -0.1239
 7930SOL     OW29626   9.280   9.701   3.456  0.0559  0.0720  0.0284
 7930SOL    HW129627   9.234   9.757   3.394  0.2951  0.1304 -0.0938
 7930SOL    HW229628   9.278   9.614   3.416  0.2628  0.1207 -0.0902
 7931SOL     OW29629  11.892   7.311  10.180 -0.2352 -0.6082 -0.2900
 7931SOL    HW129630  11.916   7.399  10.150  0.9552  0.3153  2.8599
 7931SOL    HW229631  11.967   7.257  10.157  0.3931 -0.0630  0.4154
 7932SOL     OW29632   2.648   2.825   0.239 -0.2446  0.4889  0.3159
 7932SOL    HW129633   2.716   2.883   0.206  0.0244  0.9295  1.5851
 7932SOL    HW229634   2.674   2.805   0.329 -0.6720 -1.0930  0.1172
 7933SOL     OW29635   8.539   3.187   1.809 -0.0276  0.1371  0.6157
 7933SOL    HW129636   8.505   3.104   1.840  0.6461 -0.2591  0.3185
 7933SOL    HW229637   8.599   3.164   1.738  0.7075  0.8211  0.9915
 7934SOL     OW29638   7.944   0.394   5.357 -0.2174  0.1262  0.1875
 7934SOL    HW129639   7.955   0.489   5.356  2.1620  0.0106  3.0804
 7934SOL    HW229640   7.997   0.363   5.283  0.0924  0.9505  0.0553
 7935SOL     OW29641  10.918   3.422   4.969  0.3311 -0.1168 -0.3100
 7935SOL    HW129642  11.013   3.423   4.966  0.4693  2.2055  1.8354
 7935SOL    HW229643  10.897   3.395   5.058 -1.0059  0.1201 -0.5295
 7936SOL     OW29644   2.767   9.512   9.391 -0.2615 -0.2731  0.1950
 7936SOL    HW129645   2.686   9.482   9.348 -0.6895 -2.3654  2.2336
 7936SOL    HW229646   2.835   9.500   9.325 -1.1428 -1.6169 -0.5157
 7937SOL     OW29647   6.336   2.991  11.765 -1.1013  0.4471  0.1375
 7937SOL    HW129648   6.432   2.988  11.758 -1.0932  1.6906 -0.8131
 7937SOL    HW229649   6.319   3.063  11.827 -1.4232 -1.1038  1.9227
 7938SOL     OW29650   1.620   8.420   1.407 -0.1755 -0.3842  0.6294
 7938SOL    HW129651   1.695   8.439   1.352 -0.9005  0.2970 -0.1526
 7938SOL    HW229652   1.624   8.486   1.476 -0.9326  0.6853 -0.3181
 7939SOL     OW29653   7.321   8.880   8.395 -0.4362  0.1885  0.7815
 7939SOL    HW129654   7.273   8.954   8.357 -0.4408 -0.2256 -0.0513
 7939SOL    HW229655   7.413   8.904   8.387 -0.4398  0.1311  0.5707
 7940SOL     OW29656   4.476  11.188   6.580  0.0177 -0.4940  0.5415
 7940SOL    HW129657   4.447  11.279   6.571  0.8521 -0.1886  0.8532
 7940SOL    HW229658   4.491  11.159   6.489  1.0334  0.1173  0.5010
 7941SOL     OW29659   0.210   0.416   0.879  0.0563  0.2578 -0.0565
 7941SOL    HW129660   0.171   0.440   0.795 -0.1928 -0.3659 -0.1251
 7941SOL    HW229661   0.300   0.447   0.874  0.3367 -0.6501 -0.9536
 7942SOL     OW29662   8.234  11.139   8.857 -0.2759  0.8662  0.2602
 7942SOL    HW129663   8.273  11.218   8.893  1.4164  0.2236 -0.0594
 7942SOL    HW229664   8.147  11.134   8.898 -0.7705  3.2793 -0.3464
 7943SOL     OW29665   7.080   8.154   9.511  0.7777  0.3812  0.3087
 7943SOL    HW129666   7.127   8.103   9.576  0.3710 -1.1688 -0.5487
 7943SOL    HW229667   7.085   8.101   9.431 -3.4079 -0.6018  0.4417
 7944SOL     OW29668  11.848   6.091   7.111 -0.5307  0.5279  0.4236
 7944SOL    HW129669  11.904   6.013   7.108 -0.5948  0.5015 -0.6239
 7944SOL    HW229670  11.826   6.101   7.203  0.5321  0.0635  0.7496
 7945SOL     OW29671   6.445   6.074   8.012 -0.6803  0.0363  0.3958
 7945SOL    HW129672   6.370   6.014   8.006 -0.4118 -0.2176 -0.5803
 7945SOL    HW229673   6.495   6.057   7.932 -0.7616  1.7878 -0.0735
 7946SOL     OW29674  11.259   0.635   9.385  0.4804 -0.0458  0.2513
 7946SOL    HW129675  11.290   0.645   9.295  1.8141 -0.4792  0.6458
 7946SOL    HW229676  11.339   0.627   9.437 -0.2936 -1.2186  1.3081
 7947SOL     OW29677  10.260  10.880  10.976 -0.0005 -0.6636 -0.2314
 7947SOL    HW129678  10.302  10.951  11.024 -0.0608  0.1088 -1.2890
 7947SOL    HW229679  10.332  10.838  10.928 -0.3773  0.6715 -2.0574
 7948SOL     OW29680  10.141   9.521   9.054 -0.2650 -0.1027 -0.0628
 7948SOL    HW129681  10.166   9.472   8.976  1.3318  0.3086  0.1392
 7948SOL    HW229682  10.143   9.456   9.125 -0.3141 -0.1887 -0.1404
 7949SOL     OW29683  11.487   8.020   0.112 -0.4266  0.2265  0.3293
 7949SOL    HW129684  11.548   7.946   0.121 -0.7462  0.0440  1.0679
 7949SOL    HW229685  11.455   8.013   0.022  0.0946 -0.1064  0.1628
 7950SOL     OW29686  11.796   0.128   6.474  0.7029 -0.1496  0.2938
 7950SOL    HW129687  11.804   0.188   6.400 -1.4400  0.7116  0.6809
 7950SOL    HW229688  11.819   0.042   6.439  2.6694  0.6689 -0.5715
 7951SOL     OW29689  11.153   9.344   2.712  0.1251 -0.1025 -0.0763
 7951SOL    HW129690  11.239   9.306   2.694 -0.2205 -0.8768 -0.1583
 7951SOL    HW229691  11.172   9.432   2.745  0.8432  0.6621 -2.3669
 7952SOL     OW29692   1.613   0.436   0.784 -0.7108 -0.0981  0.0088
 7952SOL    HW129693   1.525   0.405   0.805 -0.2141 -0.7658  1.2220
 7952SOL    HW229694   1.650   0.367   0.729 -0.8890  0.1045 -0.3649
 7953SOL     OW29695  10.553   1.769   0.932 -0.3295  0.2201  0.3018
 7953SOL    HW129696  10.605   1.716   0.871  0.8277 -0.2953  1.6870
 7953SOL    HW229697  10.543   1.853   0.888  0.9355  0.0424 -0.3759
 7954SOL     OW29698   2.461   1.082   3.936 -0.5070  0.2845  0.5439
 7954SOL    HW129699   2.403   1.035   3.876  0.8168 -1.8163  0.8312
 7954SOL    HW229700   2.451   1.037   4.020 -0.0322  1.2402  1.1295
 7955SOL     OW29701  10.336   3.424  11.379 -0.0028 -0.5242 -0.2838
 7955SOL    HW129702  10.343   3.469  11.463 -1.0129 -1.8568  0.5542
 7955SOL    HW229703  10.426   3.421  11.345  0.6260 -1.0512  1.3424
 7956SOL     OW29704   4.814   0.174   5.139  0.5005 -0.5208 -0.2477
 7956SOL    HW129705   4.748   0.201   5.203  0.9370 -0.6001  0.2444
 7956SOL    HW229706   4.859   0.255   5.116  2.1038 -0.8121  1.5602
 7957SOL     OW29707   8.528  11.587  12.003 -0.3361  0.0141  0.4724
 7957SOL    HW129708   8.521  11.501  11.962 -0.6044 -0.0540  0.6566
 7957SOL    HW229709   8.480  11.578  12.086  2.0691 -0.5074  1.8963
 7958SOL     OW29710   6.756   0.541   4.907 -0.3324 -0.4121  0.8667
 7958SOL    HW129711   6.688   0.496   4.857 -1.2293  2.0881 -0.3083
 7958SOL    HW229712   6.732   0.526   4.998 -2.1494 -0.0883  0.4878
 7959SOL     OW29713   7.417   7.609  11.380 -0.0226  0.5928 -0.5240
 7959SOL    HW129714   7.363   7.665  11.435 -0.7591  1.5148 -2.1229
 7959SOL    HW229715   7.363   7.531  11.365  0.1968  0.3209  0.0609
 7960SOL     OW29716   8.570   0.386   3.098 -0.3523 -0.2955 -1.0252
 7960SOL    HW129717   8.576   0.387   3.193 -0.4913  0.2946 -1.0168
 7960SOL    HW229718   8.652   0.345   3.069  0.1160  0.3811 -0.6773
 7961SOL     OW29719   3.037   7.888   8.427  0.5831  0.4300  0.6288
 7961SOL    HW129720   2.987   7.951   8.374 -0.8006 -0.0743  1.2923
 7961SOL    HW229721   3.070   7.824   8.364  2.5844  2.1240 -0.1579
 7962SOL     OW29722   5.113   4.047   5.107 -0.3922 -0.0255  0.5251
 7962SOL    HW129723   5.189   4.061   5.164 -0.7863 -2.7428  1.8901
 7962SOL    HW229724   5.054   3.993   5.159 -2.1472 -0.0871 -1.4207
 7963SOL     OW29725  11.239   7.898   7.524  0.1646 -0.5003  0.5307
 7963SOL    HW129726  11.276   7.831   7.465  0.4350 -0.1561  0.3071
 7963SOL    HW229727  11.312   7.924   7.579  0.4379  0.6688 -0.3571
 7964SOL     OW29728   1.473  10.201   2.498 -0.2248 -0.3226  0.4074
 7964SOL    HW129729   1.557  10.219   2.455 -0.6151  0.0230 -0.2180
 7964SOL    HW229730   1.416  10.273   2.472 -0.8712 -0.8155  0.4273
 7965SOL     OW29731   7.276   4.396   0.761  0.8754 -0.2655  0.6624
 7965SOL    HW129732   7.344   4.337   0.793  0.3587 -0.7481  0.8877
 7965SOL    HW229733   7.281   4.389   0.665  0.2631 -1.3404  0.6916
 7966SOL     OW29734   8.154   9.944   3.697  0.2817 -0.4217 -0.2577
 7966SOL    HW129735   8.174   9.852   3.715 -1.5441 -0.9566 -0.7666
 7966SOL    HW229736   8.179   9.957   3.606  1.8563  0.0134  0.2042
 7967SOL     OW29737   7.601   1.512  10.362  0.1486 -0.2406 -0.0194
 7967SOL    HW129738   7.673   1.561  10.403  0.5377 -0.6554 -0.1950
 7967SOL    HW229739   7.559   1.576  10.305 -0.3001  0.3038  0.8836
 7968SOL     OW29740  11.641  12.140   0.102 -0.2195 -0.0230  0.2610
 7968SOL    HW129741  11.636  12.178   0.015  1.0455  1.2076  0.6919
 7968SOL    HW229742  11.703  12.068   0.093  0.0420  0.2113  0.1715
 7969SOL     OW29743   0.601   3.383  10.926  0.0093 -0.1528 -0.4610
 7969SOL    HW129744   0.641   3.302  10.896  0.6510  0.1207 -0.3634
 7969SOL    HW229745   0.638   3.451  10.869  0.2539  0.2007  0.1065
 7970SOL     OW29746   8.625   6.224  11.678  0.1976 -0.4740  0.4183
 7970SOL    HW129747   8.551   6.173  11.647 -0.9160  1.2276  0.1523
 7970SOL    HW229748   8.607   6.239  11.771 -1.1803  2.1120 -0.1962
 7971SOL     OW29749   9.010   9.635   3.118  0.0936 -0.8694 -0.0644
 7971SOL    HW129750   9.062   9.654   3.040  3.1235 -2.5466  1.3842
 7971SOL    HW229751   9.018   9.714   3.172 -2.5615  0.5754 -1.5064
 7972SOL     OW29752   6.215   0.657   5.705 -0.1998  0.1923 -0.3420
 7972SOL    HW129753   6.148   0.603   5.745 -0.4478  0.4649 -0.3873
 7972SOL    HW229754   6.232   0.616   5.620 -1.1438  0.7765 -0.8284
 7973SOL     OW29755   5.731   2.489   7.080  0.1226  0.0037 -0.1043
 7973SOL    HW129756   5.800   2.423   7.073 -0.9672 -1.1613 -0.2163
 7973SOL    HW229757   5.666   2.463   7.014 -1.5552 -0.3458  1.5889
 7974SOL     OW29758  12.059   9.707   9.494 -0.6729  0.3418 -0.3751
 7974SOL    HW129759  12.066   9.618   9.527 -0.5995  0.5542  0.2010
 7974SOL    HW229760  12.149   9.731   9.470 -0.5951  0.4704  0.0396
 7975SOL     OW29761   6.969  10.491   6.317  0.0854  0.0844  0.4888
 7975SOL    HW129762   7.028  10.478   6.243 -1.7687  0.8197 -1.2181
 7975SOL    HW229763   7.010  10.560   6.369 -0.2461  2.2130 -1.8808
 7976SOL     OW29764   1.332   7.640   9.180  0.0057  0.1791  0.3634
 7976SOL    HW129765   1.324   7.664   9.088 -0.3706 -2.0260 -0.2313
 7976SOL    HW229766   1.419   7.671   9.206  0.9524 -0.9337 -1.3305
 7977SOL     OW29767   2.586   6.871   2.457 -0.0392  0.4365 -0.0727
 7977SOL    HW129768   2.587   6.786   2.501 -0.6574 -0.3748 -1.5522
 7977SOL    HW229769   2.676   6.883   2.425 -0.2599 -0.2895 -0.9911
 7978SOL     OW29770   0.390   2.824   0.938  0.4424 -0.5350 -0.1180
 7978SOL    HW129771   0.440   2.834   1.019 -1.3186  0.3206  0.9125
 7978SOL    HW229772   0.447   2.862   0.871  0.7400  1.5083  1.1981
 7979SOL     OW29773   5.178   5.394   5.689 -0.5586 -0.1411 -0.3328
 7979SOL    HW129774   5.265   5.416   5.657 -0.5005 -2.1500 -1.7267
 7979SOL    HW229775   5.192   5.318   5.746 -1.3919 -0.4366 -0.5108
 7980SOL     OW29776  10.620   7.630   5.444  0.0872  0.7198 -0.0136
 7980SOL    HW129777  10.619   7.711   5.494 -0.4391  0.3879  0.5270
 7980SOL    HW229778  10.673   7.570   5.496 -1.3559  0.0351  0.7175
 7981SOL     OW29779   6.506   0.704  10.776 -0.1720 -0.0885 -0.7628
 7981SOL    HW129780   6.533   0.795  10.781  0.4099 -0.2816 -0.2120
 7981SOL    HW229781   6.563   0.658  10.838  0.0796 -0.9500 -1.5987
 7982SOL     OW29782   2.492   4.208  11.589 -0.4382 -0.3326 -0.3784
 7982SOL    HW129783   2.532   4.233  11.673 -0.0550 -0.5441 -0.4985
 7982SOL    HW229784   2.398   4.209  11.607 -0.4046  0.5214 -0.1951
 7983SOL     OW29785  10.075   3.479   0.821  0.1391  0.2956 -0.4065
 7983SOL    HW129786  10.017   3.554   0.830 -0.5050 -0.0106 -1.7153
 7983SOL    HW229787  10.097   3.477   0.728  0.9706 -0.5359 -0.2077
 7984SOL     OW29788   8.698   3.078   5.504 -0.4727 -0.2879 -0.4629
 7984SOL    HW129789   8.627   3.024   5.468  0.0060 -1.3792  0.1849
 7984SOL    HW229790   8.722   3.136   5.432 -0.0394 -1.9185 -1.7096
 7985SOL     OW29791   8.009   9.193   8.103 -0.1900  0.1694 -0.0706
 7985SOL    HW129792   7.986   9.286   8.106 -1.8336 -0.0842 -2.3125
 7985SOL    HW229793   8.086   9.186   8.159 -1.2456  2.4849  1.8548
 7986SOL     OW29794  10.486  11.022   9.055  0.2995  0.2020 -0.0834
 7986SOL    HW129795  10.571  11.007   9.014  0.9657 -2.6561  2.0526
 7986SOL    HW229796  10.435  10.943   9.033 -0.9417  0.7649  0.6734
 7987SOL     OW29797   8.658  10.088   1.277 -0.3273 -0.1307  0.1731
 7987SOL    HW129798   8.728  10.068   1.339  0.2558  0.0126 -0.4283
 7987SOL    HW229799   8.595  10.140   1.327 -0.6764 -1.3838  1.0841
 7988SOL     OW29800   6.402   3.355   4.055 -0.2216  0.0274  0.2297
 7988SOL    HW129801   6.353   3.431   4.085 -1.8197 -0.7245 -0.3446
 7988SOL    HW229802   6.457   3.388   3.983  0.2769  0.9257  1.0061
 7989SOL     OW29803   2.480   2.583   5.164 -0.0193 -0.6820  0.3200
 7989SOL    HW129804   2.563   2.587   5.117 -0.5691  1.6823 -0.5816
 7989SOL    HW229805   2.479   2.662   5.218 -2.9698  1.1538 -2.1066
 7990SOL     OW29806   8.168   2.375   9.924 -0.2307  0.1100  1.0225
 7990SOL    HW129807   8.133   2.451   9.971  1.0974  0.9238  0.7314
 7990SOL    HW229808   8.092   2.319   9.910 -1.3481  1.6429  0.7498
 7991SOL     OW29809   0.991   5.244  11.592  0.0682 -0.5405 -0.0281
 7991SOL    HW129810   0.911   5.201  11.561 -1.1692  1.2817  0.4671
 7991SOL    HW229811   0.998   5.323  11.537  0.0697  0.6501  1.6189
 7992SOL     OW29812   7.109   2.581  11.061 -0.3226 -0.4417  0.7634
 7992SOL    HW129813   7.133   2.490  11.079  0.1013 -1.1448 -2.6584
 7992SOL    HW229814   7.025   2.593  11.105 -1.0901 -2.9823  0.1985
 7993SOL     OW29815  10.197   7.154   7.334  1.1040 -0.3351 -0.3397
 7993SOL    HW129816  10.138   7.208   7.386  0.4181  2.6663 -3.7821
 7993SOL    HW229817  10.141   7.085   7.298  1.1655 -1.2477  1.2544
 7994SOL     OW29818   6.438   0.717   9.903 -0.1533  0.3740  0.3186
 7994SOL    HW129819   6.477   0.630   9.894  0.2004  0.6509 -1.0443
 7994SOL    HW229820   6.511   0.778   9.889 -0.9516  0.9052 -1.9224
 7995SOL     OW29821   5.931   3.069   1.750 -0.3526  0.9570 -0.3656
 7995SOL    HW129822   5.891   3.010   1.814 -0.9983 -0.8201 -2.2910
 7995SOL    HW229823   6.023   3.043   1.747  0.1187  2.3383  1.1707
 7996SOL     OW29824  11.364   0.112   8.846  0.4362  0.4797 -1.0270
 7996SOL    HW129825  11.292   0.170   8.872 -0.2423 -0.9245  0.4037
 7996SOL    HW229826  11.334   0.025   8.870  1.9956 -0.3311 -1.8728
 7997SOL     OW29827   3.901   9.139   6.441  0.8344  0.5238 -0.5455
 7997SOL    HW129828   3.965   9.152   6.511 -0.7474 -1.2883  1.3795
 7997SOL    HW229829   3.935   9.064   6.391 -0.0286 -0.9273  0.9307
 7998SOL     OW29830   3.001   0.930   2.583  0.3585  0.2319  0.0358
 7998SOL    HW129831   2.938   0.887   2.642 -0.3578 -0.0356 -0.8897
 7998SOL    HW229832   2.992   0.882   2.501  2.1269 -0.1072  0.0126
 7999SOL     OW29833   7.220   6.013  10.158  0.0458 -0.4006  0.1044
 7999SOL    HW129834   7.287   6.078  10.179 -0.6975  0.6708 -0.7150
 7999SOL    HW229835   7.197   5.975  10.242  0.2090  0.6970  0.6682
 8000SOL     OW29836   3.694  10.487   0.802  0.0312 -0.3475  0.4114
 8000SOL    HW129837   3.625  10.484   0.736  2.1972  1.6101 -2.1495
 8000SOL    HW229838   3.670  10.562   0.857 -0.3277 -0.2141  0.0808
 8001SOL     OW29839   2.254  11.869  11.270 -0.4071  0.2016  0.3032
 8001SOL    HW129840   2.313  11.847  11.197 -1.1508  0.9448 -0.5491
 8001SOL    HW229841   2.216  11.786  11.296 -0.7282  0.0211 -0.6997
 8002SOL     OW29842   5.496   2.511   3.743 -0.0605  0.1482 -0.3311
 8002SOL    HW129843   5.569   2.466   3.702  0.5463  0.8727 -0.0702
 8002SOL    HW229844   5.530   2.542   3.826 -1.6021 -2.3017  1.3397
 8003SOL     OW29845  10.558  12.269  10.388  0.1812 -0.1155  0.1848
 8003SOL    HW129846  10.606  12.334  10.337 -0.6752  2.1051  1.9951
 8003SOL    HW229847  10.626  12.219  10.434  0.8655  1.4453  0.9439
 8004SOL     OW29848   3.345  10.630   5.920 -0.2476 -0.1754  0.2547
 8004SOL    HW129849   3.413  10.569   5.951 -1.4776 -1.6986  0.0999
 8004SOL    HW229850   3.358  10.709   5.971  0.7022 -0.9728  1.2992
 8005SOL     OW29851   6.005   3.243   7.069  0.0974  0.1405  0.1974
 8005SOL    HW129852   5.946   3.305   7.026  1.5333 -0.2109 -2.5448
 8005SOL    HW229853   5.981   3.158   7.031  0.9709 -0.3103  0.6318
 8006SOL     OW29854   3.592   0.134  10.945 -0.2091 -0.0164 -0.2182
 8006SOL    HW129855   3.517   0.186  10.918 -2.1330 -1.4813  1.8376
 8006SOL    HW229856   3.611   0.163  11.034 -0.8545 -2.1654  0.6997
 8007SOL     OW29857   3.661   4.487   7.680 -0.4217  0.8093  0.6896
 8007SOL    HW129858   3.752   4.512   7.667 -1.0499  2.2386 -1.2794
 8007SOL    HW229859   3.650   4.488   7.775  1.5682  0.6981  0.9653
 8008SOL     OW29860   7.828  10.354  11.111  0.2845 -0.4516  0.1776
 8008SOL    HW129861   7.843  10.307  11.193 -0.9833  0.3568  0.9110
 8008SOL    HW229862   7.854  10.292  11.043  1.8316 -0.9668  1.1767
 8009SOL     OW29863   3.010   3.975   2.857 -0.6967 -0.4184  0.1886
 8009SOL    HW129864   3.016   4.026   2.938  0.4271  0.1234 -0.2176
 8009SOL    HW229865   2.938   4.016   2.809 -1.8548 -1.1924  1.1929
 8010SOL     OW29866   5.063   1.951   3.814  0.2535 -0.1561  0.3738
 8010SOL    HW129867   5.059   2.042   3.786  0.6229  0.0241  0.8941
 8010SOL    HW229868   5.145   1.918   3.778 -1.3043 -1.2385 -2.5576
 8011SOL     OW29869   5.858   5.853   6.376  0.4185  0.2023 -0.4765
 8011SOL    HW129870   5.883   5.761   6.371  1.2719  0.3905  0.1102
 8011SOL    HW229871   5.941   5.899   6.389 -0.2620  0.8046  2.2551
 8012SOL     OW29872   6.799  10.199   7.747  0.2032  0.0728  0.0652
 8012SOL    HW129873   6.711  10.161   7.749  0.4676 -0.5855 -0.4561
 8012SOL    HW229874   6.857  10.124   7.741  0.8326  0.4848  0.8452
 8013SOL     OW29875   3.450   2.494   2.819 -0.3767 -0.0617 -0.0904
 8013SOL    HW129876   3.450   2.576   2.869  1.5630  1.1376 -1.8861
 8013SOL    HW229877   3.402   2.432   2.874 -1.5400  2.1453  1.5407
 8014SOL     OW29878   2.448   0.693  11.186 -0.0343  0.3682 -0.3066
 8014SOL    HW129879   2.357   0.706  11.212 -0.2014 -0.6750 -0.3335
 8014SOL    HW229880   2.464   0.600  11.200  1.0589  0.5560 -0.2197
 8015SOL     OW29881   3.810   5.465   8.179  0.3214  0.2739 -0.2247
 8015SOL    HW129882   3.771   5.552   8.192  0.0428 -0.0562  1.3884
 8015SOL    HW229883   3.765   5.430   8.102  1.6983  2.2174 -2.0547
 8016SOL     OW29884   2.148  11.038   3.530 -0.0424 -0.2875  0.4457
 8016SOL    HW129885   2.205  10.985   3.586 -1.1421  0.9697  2.9328
 8016SOL    HW229886   2.078  10.978   3.504  0.9927 -1.1465 -0.4514
 8017SOL     OW29887   5.978   9.059   5.545  0.0260 -0.2551 -0.7284
 8017SOL    HW129888   6.015   9.059   5.634 -0.8602  3.1891 -0.2000
 8017SOL    HW229889   6.049   9.089   5.489 -0.4184  1.2232 -0.5399
 8018SOL     OW29890  11.135  11.834   3.464  0.5395  0.1640  0.1653
 8018SOL    HW129891  11.043  11.831   3.438  0.6118  1.8564 -0.3825
 8018SOL    HW229892  11.182  11.861   3.385  1.2560  1.1873  0.9087
 8019SOL     OW29893  11.977   4.995   3.976 -0.5156  0.4233 -0.3022
 8019SOL    HW129894  11.991   4.929   3.909 -1.4490 -0.5271  0.4047
 8019SOL    HW229895  12.034   4.970   4.048  2.9824  3.2353 -1.8114
 8020SOL     OW29896   7.996   0.673   5.329  0.2130 -0.4030  0.3302
 8020SOL    HW129897   7.945   0.749   5.356 -1.3231 -1.0989 -0.4678
 8020SOL    HW229898   7.982   0.668   5.234  0.5267 -1.5000  0.3304
 8021SOL     OW29899   6.934   8.197   2.030 -0.2772  0.3429  0.4441
 8021SOL    HW129900   6.974   8.111   2.043 -0.6267 -0.2531 -1.8878
 8021SOL    HW229901   6.998   8.245   1.977 -0.5232  1.1751  0.8762
 8022SOL     OW29902   0.799  11.849  10.345  0.0167 -0.2047  0.1465
 8022SOL    HW129903   0.768  11.908  10.413 -0.3015 -0.9441  0.6524
 8022SOL    HW229904   0.728  11.786  10.333  1.5472 -2.4061  1.8690
 8023SOL     OW29905   3.539   5.560   5.645 -0.2209  0.7305  0.0766
 8023SOL    HW129906   3.549   5.653   5.626 -0.3241  1.0917  1.6637
 8023SOL    HW229907   3.445   5.548   5.659 -0.3174  0.2038 -0.9468
 8024SOL     OW29908   5.079   4.341  10.586  0.0720  0.0261 -0.2176
 8024SOL    HW129909   5.059   4.435  10.584 -0.1667  0.0077  0.7150
 8024SOL    HW229910   4.993   4.299  10.597  0.1664 -0.3054 -0.7376
 8025SOL     OW29911   2.696   2.242   9.054 -0.4499 -0.2605 -0.3709
 8025SOL    HW129912   2.787   2.233   9.026 -0.2153  1.1928 -0.1322
 8025SOL    HW229913   2.701   2.251   9.150 -0.9144 -0.9601 -0.2723
 8026SOL     OW29914   7.773   3.553   4.437  0.7050  0.2799 -0.4602
 8026SOL    HW129915   7.772   3.458   4.424  3.6250  0.0877  0.0915
 8026SOL    HW229916   7.722   3.567   4.517  1.1549 -0.9573  0.0682
 8027SOL     OW29917   9.432   4.318   2.903  0.0013 -0.0768 -0.2122
 8027SOL    HW129918   9.404   4.268   2.826 -1.3968  0.7663 -0.2749
 8027SOL    HW229919   9.356   4.371   2.927  0.9833  0.9690  0.7164
 8028SOL     OW29920  12.111   1.379  10.900 -0.0412  0.2466  0.3622
 8028SOL    HW129921  12.206   1.373  10.903 -0.0029  0.5745 -0.1126
 8028SOL    HW229922  12.080   1.313  10.963  0.4841 -0.2246  0.1273
 8029SOL     OW29923   5.744   0.148   5.883 -0.5150  0.0826  0.2901
 8029SOL    HW129924   5.682   0.209   5.922 -0.5233 -0.3109  0.9073
 8029SOL    HW229925   5.823   0.157   5.936 -0.2617  0.1073 -0.0878
 8030SOL     OW29926   5.083   2.462   5.314 -0.0962 -0.1672 -0.2907
 8030SOL    HW129927   5.139   2.537   5.294  0.3287 -0.8349 -1.7242
 8030SOL    HW229928   5.036   2.488   5.393  0.7590  1.2136 -0.2006
 8031SOL     OW29929  10.319  10.742   7.930 -0.1549  0.1462  0.2182
 8031SOL    HW129930  10.393  10.736   7.870 -0.1349  0.7173  0.1827
 8031SOL    HW229931  10.358  10.740   8.017 -0.1602 -0.3313  0.2152
 8032SOL     OW29932   1.409  10.827   6.225  0.0262  0.3208 -0.3758
 8032SOL    HW129933   1.396  10.901   6.166  0.6360 -0.1817 -1.1604
 8032SOL    HW229934   1.447  10.759   6.170  2.4109  0.4659  0.9868
 8033SOL     OW29935   4.707   8.475   3.289 -0.4929 -0.5423 -0.8760
 8033SOL    HW129936   4.613   8.470   3.272 -1.0295  1.3710  1.0331
 8033SOL    HW229937   4.730   8.565   3.267  0.4794 -0.4570  0.3772
 8034SOL     OW29938  10.318   3.349   6.039 -0.7619  0.0129 -0.2415
 8034SOL    HW129939  10.408   3.317   6.038 -0.4579  0.8418 -0.6206
 8034SOL    HW229940  10.269   3.284   6.089  0.3258  0.2829  1.2276
 8035SOL     OW29941   8.275   4.829  11.501 -0.6104  0.4247 -0.1418
 8035SOL    HW129942   8.187   4.866  11.511 -0.0104  1.6700  0.8364
 8035SOL    HW229943   8.282   4.809  11.408 -2.0785 -0.1029 -0.1665
 8036SOL     OW29944   2.611   6.185   2.801  0.1175 -0.5975 -0.1760
 8036SOL    HW129945   2.681   6.232   2.756 -0.7407 -0.5771 -1.5581
 8036SOL    HW229946   2.628   6.093   2.783  0.8107 -0.7206  1.0485
 8037SOL     OW29947  11.660  12.310  11.895  0.2710  0.3608 -0.1228
 8037SOL    HW129948  11.648  12.365  11.818  2.4723  0.8936 -0.1431
 8037SOL    HW229949  11.602  12.235  11.880  1.0187  0.1998 -2.5500
 8038SOL     OW29950   3.628   0.434  10.668 -0.0176  0.3629  0.5051
 8038SOL    HW129951   3.694   0.408  10.732  0.8984 -0.7597 -0.8333
 8038SOL    HW229952   3.643   0.528  10.655 -0.4819  0.7044  2.1770
 8039SOL     OW29953   2.415   7.829   6.171  0.2996 -0.0529  0.7905
 8039SOL    HW129954   2.503   7.794   6.162  0.0384 -0.7156  0.7072
 8039SOL    HW229955   2.410   7.861   6.261  1.0363  1.1960  0.4108
 8040SOL     OW29956   0.144  11.819   3.104  0.3613  0.2632  0.1113
 8040SOL    HW129957   0.208  11.811   3.175 -0.5544  0.0213  0.9328
 8040SOL    HW229958   0.061  11.835   3.149  0.1667  2.7814 -0.9882
 8041SOL     OW29959   7.504   0.715   6.477  0.3279 -0.0538 -0.1368
 8041SOL    HW129960   7.549   0.663   6.410  1.8583 -2.4495  2.5196
 8041SOL    HW229961   7.420   0.670   6.489 -0.9498  1.7092 -1.8873
 8042SOL     OW29962   1.192   9.617  12.210  0.1817  0.2221  0.5572
 8042SOL    HW129963   1.164   9.525  12.210 -0.7536  0.3005 -3.3353
 8042SOL    HW229964   1.261   9.621  12.144  0.7032  2.2316  1.1514
 8043SOL     OW29965   6.646  11.182   9.418 -0.3518  0.2802  0.1748
 8043SOL    HW129966   6.721  11.229   9.381 -0.5643  1.2668  0.9663
 8043SOL    HW229967   6.595  11.156   9.341 -0.8975  2.4930 -0.3051
 8044SOL     OW29968   7.744   2.929   8.917 -0.9057  0.1669 -0.5510
 8044SOL    HW129969   7.693   2.909   8.996 -1.3435 -0.5758 -1.0007
 8044SOL    HW229970   7.788   2.846   8.896 -0.5194  0.4559 -0.8814
 8045SOL     OW29971   1.806  11.150   7.305 -0.7535 -0.4419 -0.6757
 8045SOL    HW129972   1.761  11.188   7.229 -0.3387  1.3944 -0.0356
 8045SOL    HW229973   1.816  11.222   7.367  1.0343 -1.3333  0.1669
 8046SOL     OW29974   0.733   0.690   5.427  0.4144 -0.2032 -0.0682
 8046SOL    HW129975   0.670   0.715   5.360 -0.1980 -0.5288  0.3803
 8046SOL    HW229976   0.757   0.600   5.406  2.2858  0.5543 -1.4237
 8047SOL     OW29977   1.929   0.454   6.175  0.0565 -0.2011  0.3472
 8047SOL    HW129978   1.864   0.519   6.202  2.2505  2.1143  0.4196
 8047SOL    HW229979   1.960   0.485   6.090  1.2540 -1.0671  0.4416
 8048SOL     OW29980   0.000   6.555   2.876  0.5570 -0.4932  0.1683
 8048SOL    HW129981  -0.015   6.645   2.849 -0.4876 -0.5966  0.3772
 8048SOL    HW229982   0.090   6.536   2.848 -0.1613 -0.3246 -2.5123
 8049SOL     OW29983   4.611   5.389   6.053 -0.0285 -0.1545  0.2669
 8049SOL    HW129984   4.585   5.365   5.964  0.4842 -1.1225  0.3668
 8049SOL    HW229985   4.529   5.393   6.102 -0.2032 -0.9227  0.0531
 8050SOL     OW29986   3.071   4.133   9.874 -0.2334 -0.3648  0.4081
 8050SOL    HW129987   3.065   4.163   9.784  0.2204  0.9169  0.7862
 8050SOL    HW229988   3.073   4.213   9.926 -1.4898 -1.0749  1.6325
 8051SOL     OW29989  10.121  10.905   7.957  0.2064 -0.7849  0.0965
 8051SOL    HW129990  10.044  10.892   7.901  0.0611 -0.8553  0.3111
 8051SOL    HW229991  10.176  10.829   7.941  0.1354 -0.8359  0.0992
 8052SOL     OW29992   6.553   0.130   3.795  0.2126 -0.0777 -0.6695
 8052SOL    HW129993   6.494   0.060   3.822  0.4028 -0.0294 -0.1026
 8052SOL    HW229994   6.529   0.149   3.705 -1.1637  0.4653 -0.2151
 8053SOL     OW29995   3.472   9.901   3.539  0.0725  0.1508 -0.3661
 8053SOL    HW129996   3.505   9.896   3.629 -0.7397 -1.0990 -0.1043
 8053SOL    HW229997   3.549   9.921   3.487  0.2644  2.7363  0.7580
 8054SOL     OW29998   3.018  10.810  11.170 -0.1213  0.3253 -1.1862
 8054SOL    HW129999   3.024  10.903  11.151 -0.3605  0.5220 -0.3460
 8054SOL    HW230000   3.069  10.798  11.251 -2.8156  0.3718  0.6556
 8055SOL     OW30001   2.107   4.476   9.860 -0.0394 -0.5221  0.1205
 8055SOL    HW130002   2.034   4.539   9.860  0.0220 -0.4250 -1.5883
 8055SOL    HW230003   2.185   4.531   9.867  0.0253 -0.3518 -1.5814
 8056SOL     OW30004   1.681   0.433   3.600  0.1872  0.0265 -0.0400
 8056SOL    HW130005   1.695   0.360   3.539  1.3599  1.5660 -1.7215
 8056SOL    HW230006   1.609   0.482   3.562 -0.7028 -0.3129  1.1732
 8057SOL     OW30007   8.291   2.463  11.171 -0.4558 -0.0257 -0.0831
 8057SOL    HW130008   8.363   2.402  11.152  0.1859  1.1113 -1.5187
 8057SOL    HW230009   8.321   2.547  11.136 -2.2154  0.6231 -0.1276
 8058SOL     OW30010   4.905   9.281   7.911 -0.2240  0.0408 -0.3351
 8058SOL    HW130011   4.852   9.257   7.988  0.3006 -0.2548 -0.0631
 8058SOL    HW230012   4.841   9.309   7.846 -0.6538  0.7227  0.3636
 8059SOL     OW30013   2.384   2.886   2.113 -0.0108 -0.4882 -0.2160
 8059SOL    HW130014   2.402   2.896   2.020 -2.6247  0.8426 -0.6748
 8059SOL    HW230015   2.368   2.976   2.144 -2.5096 -1.1944  0.7203
 8060SOL     OW30016   3.657   4.090   9.276  0.3318  0.7655  0.1541
 8060SOL    HW130017   3.724   4.040   9.229  0.4907  0.6818  0.4668
 8060SOL    HW230018   3.576   4.070   9.230 -0.0082 -1.5936  1.5997
 8061SOL     OW30019   2.476  11.299   0.692  0.4200  0.2721  0.2974
 8061SOL    HW130020   2.530  11.229   0.656 -0.5316  0.5565 -1.8189
 8061SOL    HW230021   2.538  11.371   0.709  1.5482 -1.2194  3.2608
 8062SOL     OW30022  12.324  12.280  11.931  0.7894 -0.4307  0.7528
 8062SOL    HW130023  12.314  12.367  11.969  1.3296 -0.0874  0.1245
 8062SOL    HW230024  12.316  12.220  12.005 -0.6272  0.0814  1.0505
 8063SOL     OW30025   5.789   9.387  11.796 -0.6127  0.3702  0.0915
 8063SOL    HW130026   5.861   9.348  11.844 -0.8883 -1.5806 -0.9940
 8063SOL    HW230027   5.710   9.355  11.839 -0.8696 -1.6209 -1.7038
 8064SOL     OW30028   8.885   2.199   1.982 -0.4259 -0.1044 -0.3288
 8064SOL    HW130029   8.821   2.224   1.916  0.8280  0.6847 -1.2878
 8064SOL    HW230030   8.893   2.276   2.039  0.3207  0.1415 -0.7550
 8065SOL     OW30031   0.772   8.899   7.576 -0.0781 -0.2506 -0.0008
 8065SOL    HW130032   0.736   8.814   7.551  0.0410 -0.1418 -0.5547
 8065SOL    HW230033   0.800   8.939   7.493  4.1552 -1.5767  0.5579
 8066SOL     OW30034   5.129  11.906   7.466 -0.4456 -0.3412 -0.1328
 8066SOL    HW130035   5.189  11.875   7.398 -0.3489  0.2789 -0.3416
 8066SOL    HW230036   5.162  11.993   7.489 -0.8678 -0.2733  0.2388
 8067SOL     OW30037   7.752  11.204   3.472 -0.2329  0.3571  0.2935
 8067SOL    HW130038   7.812  11.135   3.444 -2.0830 -0.7401 -1.3467
 8067SOL    HW230039   7.683  11.157   3.519  0.2293  1.5980  2.3041
 8068SOL     OW30040   1.376   5.334   8.159 -0.1153 -0.1644 -0.0777
 8068SOL    HW130041   1.450   5.274   8.170  1.1011  1.1681 -0.6923
 8068SOL    HW230042   1.336   5.338   8.246  1.7038  0.5479  0.7904
 8069SOL     OW30043   7.198   5.792   8.223  0.6082  0.1074 -0.3696
 8069SOL    HW130044   7.129   5.853   8.250  2.2663  2.1547 -0.4514
 8069SOL    HW230045   7.152   5.714   8.195 -1.8970  2.2270 -2.7678
 8070SOL     OW30046   5.809  10.372   5.464  0.4578 -0.4049 -0.1188
 8070SOL    HW130047   5.789  10.446   5.522  1.5191 -0.2706  0.1012
 8070SOL    HW230048   5.853  10.309   5.521 -0.3264 -1.1685 -0.3367
 8071SOL     OW30049  11.730   1.194   4.520  0.7426 -0.2708 -0.0537
 8071SOL    HW130050  11.644   1.218   4.553  0.4133 -2.6989  1.0657
 8071SOL    HW230051  11.714   1.165   4.430  0.1278 -1.8671  0.5341
 8072SOL     OW30052  11.710   4.853   1.884  0.6363  0.3011  0.5073
 8072SOL    HW130053  11.708   4.816   1.796  1.3392  0.3870  0.4482
 8072SOL    HW230054  11.626   4.898   1.894  1.1098  1.4702 -0.6351
 8073SOL     OW30055   7.586   8.003   4.196 -0.0709  0.2566  0.1134
 8073SOL    HW130056   7.625   8.028   4.113  2.2964 -0.0978  1.0312
 8073SOL    HW230057   7.513   7.946   4.173 -0.8729  1.9212 -1.7446
 8074SOL     OW30058  10.713   6.197   0.770  0.3678  0.0966 -0.1607
 8074SOL    HW130059  10.669   6.279   0.790 -0.1597  0.0888 -1.2329
 8074SOL    HW230060  10.745   6.166   0.854 -2.3345 -0.2841  0.8061
 8075SOL     OW30061   9.247  10.684   0.199 -0.0032 -0.4392  0.3863
 8075SOL    HW130062   9.267  10.665   0.291 -0.4552  1.9184  1.0230
 8075SOL    HW230063   9.295  10.765   0.180 -2.2759  0.7702 -0.5405
 8076SOL     OW30064  12.095   9.305   0.173 -0.4027  0.3470  0.1570
 8076SOL    HW130065  12.174   9.257   0.152 -2.0781 -2.2226 -0.7289
 8076SOL    HW230066  12.064   9.267   0.255 -0.1896  2.1093  1.1142
 8077SOL     OW30067   2.515   6.251   3.195  0.5409 -0.4745 -0.2391
 8077SOL    HW130068   2.544   6.298   3.117 -0.6794 -0.6948 -0.8638
 8077SOL    HW230069   2.499   6.162   3.164 -4.8363  0.4725 -1.1350
 8078SOL     OW30070   6.405   1.733   5.596  0.0839  0.4516 -0.3207
 8078SOL    HW130071   6.439   1.678   5.526  1.6313  0.6534  0.2341
 8078SOL    HW230072   6.321   1.765   5.563  0.7486  0.5095 -2.0518
 8079SOL     OW30073  11.552   9.254   0.783 -0.4287 -0.4127 -0.0361
 8079SOL    HW130074  11.478   9.305   0.816  0.4384  1.7388 -1.2283
 8079SOL    HW230075  11.511   9.184   0.732 -1.6858  1.0881 -1.1785
 8080SOL     OW30076   3.688   5.756  11.247 -0.1497  0.5327 -0.2204
 8080SOL    HW130077   3.734   5.788  11.325  0.9122  1.3238 -1.1425
 8080SOL    HW230078   3.663   5.667  11.270 -1.4427  1.3100  1.6857
 8081SOL     OW30079   7.868   3.569   3.996  0.4949 -0.2283  0.1532
 8081SOL    HW130080   7.943   3.514   3.973  1.3651  1.0121 -0.0961
 8081SOL    HW230081   7.905   3.637   4.053 -0.7053 -0.3552  1.1084
 8082SOL     OW30082   2.235   1.319   6.362 -0.2784  0.4605 -0.4077
 8082SOL    HW130083   2.299   1.249   6.344 -0.9969 -0.8269  1.6766
 8082SOL    HW230084   2.153   1.287   6.325 -1.0621 -0.8194  2.1709
 8083SOL     OW30085   6.565   0.212   0.489  0.0414  0.1578 -0.0620
 8083SOL    HW130086   6.583   0.209   0.395 -0.1706  0.7986 -0.1314
 8083SOL    HW230087   6.634   0.158   0.529 -1.2045 -2.0580 -0.7363
 8084SOL     OW30088  11.686   1.655   4.391  0.2266  0.3525 -0.3558
 8084SOL    HW130089  11.715   1.572   4.353  0.0887 -0.1196  0.5432
 8084SOL    HW230090  11.761   1.713   4.381 -0.0631  0.5063 -2.0549
 8085SOL     OW30091   8.038  10.996  10.246 -0.1275 -0.3993  0.4519
 8085SOL    HW130092   8.079  11.082  10.237  2.3419 -1.0832  3.4095
 8085SOL    HW230093   8.065  10.948  10.168  0.5407  0.7345 -0.0451
 8086SOL     OW30094   6.136   4.405   1.315 -0.4363 -0.2637  0.1399
 8086SOL    HW130095   6.177   4.352   1.246 -1.4957 -1.2264  0.2257
 8086SOL    HW230096   6.056   4.439   1.275 -0.5245  0.0411  0.5703
 8087SOL     OW30097  11.954  10.854   6.404 -0.2305 -0.9732 -0.0526
 8087SOL    HW130098  11.913  10.774   6.371 -0.0325 -2.3632  2.7816
 8087SOL    HW230099  12.048  10.841   6.389 -0.3534  0.1139 -2.2213
 8088SOL     OW30100   6.093   3.608   6.375 -0.7217 -0.7219 -0.4109
 8088SOL    HW130101   6.002   3.602   6.347 -0.8960 -2.3053  0.3724
 8088SOL    HW230102   6.144   3.582   6.298 -0.9691 -0.5419 -0.6368
 8089SOL     OW30103   9.130   7.666   2.265 -0.3531 -0.1009  0.4436
 8089SOL    HW130104   9.128   7.761   2.272  2.0540  0.0788 -0.3566
 8089SOL    HW230105   9.087   7.635   2.345  1.3879  1.6740  2.1644
 8090SOL     OW30106   3.032   1.062  10.225  0.0924  0.0010 -0.1127
 8090SOL    HW130107   2.956   1.105  10.186 -0.5066 -0.3362  0.6659
 8090SOL    HW230108   3.073   1.015  10.153 -0.6361 -0.0948 -0.4658
 8091SOL     OW30109   5.145   2.648   8.095 -0.5432 -0.4922 -0.8992
 8091SOL    HW130110   5.109   2.662   8.008 -0.4070 -0.5710 -0.9681
 8091SOL    HW230111   5.215   2.585   8.082 -0.3452 -0.2991 -0.7721
 8092SOL     OW30112   1.568   3.904   4.517  0.5980 -0.0720  0.1254
 8092SOL    HW130113   1.543   3.968   4.583 -0.1046 -0.9796  0.7598
 8092SOL    HW230114   1.502   3.836   4.523  1.6252 -1.1239 -0.1763
 8093SOL     OW30115   6.178   4.059  11.532 -0.0708  0.5471  0.5491
 8093SOL    HW130116   6.179   4.130  11.467  0.3597  0.3696  0.3591
 8093SOL    HW230117   6.165   3.980  11.480  0.6180  0.3700  0.6426
 8094SOL     OW30118   8.482  12.107   3.070 -0.1767 -0.3518 -0.4863
 8094SOL    HW130119   8.416  12.176   3.064  1.0138  0.9216  0.3295
 8094SOL    HW230120   8.475  12.059   2.987 -0.0580  1.6979 -1.7587
 8095SOL     OW30121   5.355   5.922  10.456 -0.1161 -0.3187 -1.0703
 8095SOL    HW130122   5.406   5.999  10.433  2.5776 -1.0058  1.8416
 8095SOL    HW230123   5.271   5.956  10.485  0.9844  1.5571  0.0855
 8096SOL     OW30124   3.760  11.606   6.360 -0.4168 -0.1927 -0.2660
 8096SOL    HW130125   3.745  11.680   6.418 -2.2251 -1.5552  1.1317
 8096SOL    HW230126   3.777  11.645   6.274  1.9598  1.8740  1.0412
 8097SOL     OW30127  12.224   9.001   9.291 -0.1396 -0.4173 -0.4298
 8097SOL    HW130128  12.228   9.092   9.319  0.1507 -0.7027  0.4802
 8097SOL    HW230129  12.312   8.967   9.309 -0.4716 -1.0844 -0.0551
 8098SOL     OW30130  10.459   8.399   7.542  0.1631 -0.2022  0.4680
 8098SOL    HW130131  10.376   8.354   7.525 -0.3405  0.4904  0.9981
 8098SOL    HW230132  10.526   8.335   7.523 -0.5326 -1.1614  1.1422
 8099SOL     OW30133   0.432   0.513   8.519 -0.3563 -0.3179  0.5006
 8099SOL    HW130134   0.506   0.573   8.529 -0.5701 -0.2885  2.4336
 8099SOL    HW230135   0.405   0.521   8.428 -0.1265  2.2341  0.6063
 8100SOL     OW30136   1.993   3.640  11.187  0.6673 -0.3729 -0.0059
 8100SOL    HW130137   2.078   3.597  11.175  0.9049 -0.0875  0.5863
 8100SOL    HW230138   2.008   3.731  11.162  1.2955  0.3469  2.6318
 8101SOL     OW30139  10.004   9.223   4.004 -0.3943 -0.4245  0.0162
 8101SOL    HW130140  10.046   9.279   4.070  0.3387 -1.2011  0.2188
 8101SOL    HW230141  10.076   9.175   3.964 -0.7928  0.1836 -1.5272
 8102SOL     OW30142   8.081   7.489  11.590  0.4925 -0.0934 -0.9252
 8102SOL    HW130143   8.078   7.405  11.545  1.8063 -0.6614 -0.0119
 8102SOL    HW230144   8.174   7.508  11.600  0.2320  1.9641 -1.9753
 8103SOL     OW30145   3.984   5.118   0.349  0.5936  0.0432  0.4887
 8103SOL    HW130146   3.914   5.147   0.407  0.1343  0.6897 -0.3754
 8103SOL    HW230147   3.974   5.171   0.270  2.4534  0.6259  0.5920
 8104SOL     OW30148   7.006   6.482   7.102 -0.1356 -0.1341 -0.0322
 8104SOL    HW130149   6.940   6.482   7.033  1.6361 -3.3811 -1.9917
 8104SOL    HW230150   7.036   6.572   7.108 -2.1375  0.7023 -1.6851
 8105SOL     OW30151  11.613   2.051   6.853 -0.5111  0.5757  0.3132
 8105SOL    HW130152  11.677   2.122   6.850 -0.3816  0.4938  1.1112
 8105SOL    HW230153  11.603   2.031   6.946 -1.9665  0.8205  0.2309
 8106SOL     OW30154   8.687   6.487   5.363  0.0558 -0.1762 -0.4130
 8106SOL    HW130155   8.707   6.530   5.446 -0.5705  0.7520 -0.7307
 8106SOL    HW230156   8.772   6.474   5.321  0.2338  1.0887 -0.4671
 8107SOL     OW30157   7.946   7.126   9.331 -0.6468 -1.1949  0.3662
 8107SOL    HW130158   7.942   7.093   9.241  0.5914  0.6207 -0.4189
 8107SOL    HW230159   7.997   7.061   9.378 -2.5407 -2.9301  0.1822
 8108SOL     OW30160   8.733   7.622   6.089 -0.7474  1.2630 -0.0257
 8108SOL    HW130161   8.788   7.656   6.159 -0.6470 -0.5698  0.8453
 8108SOL    HW230162   8.646   7.657   6.108 -0.4325  1.9702  0.1459
 8109SOL     OW30163   1.935   4.776   9.324  0.1271  0.1028 -0.0349
 8109SOL    HW130164   1.965   4.702   9.271 -0.7906 -0.4756  0.2395
 8109SOL    HW230165   1.840   4.765   9.330 -0.2150  2.0102 -1.0567
 8110SOL     OW30166   7.866  10.911  11.602  0.0333 -0.4210  0.4959
 8110SOL    HW130167   7.891  10.866  11.521  0.6915  1.2918 -0.2915
 8110SOL    HW230168   7.906  10.858  11.672 -1.0501 -2.2664 -0.1974
 8111SOL     OW30169  10.173   7.526   3.057  0.3246 -0.3842 -0.0849
 8111SOL    HW130170  10.159   7.617   3.082 -2.8307 -1.2604  1.9035
 8111SOL    HW230171  10.242   7.495   3.115  1.4502  0.6938 -0.8045
 8112SOL     OW30172   0.366  10.048   7.257  0.9261  0.0848 -0.4186
 8112SOL    HW130173   0.440  10.087   7.304  0.3969  1.1943 -0.4594
 8112SOL    HW230174   0.354   9.962   7.297  1.1827  0.5743  0.7513
 8113SOL     OW30175   1.098   0.451   7.759  0.8815  0.0045  0.5013
 8113SOL    HW130176   1.167   0.388   7.782  2.2015  1.4810  0.8089
 8113SOL    HW230177   1.073   0.491   7.842  1.3389  1.1104  0.1297
 8114SOL     OW30178   3.561   1.136   9.745  0.5266  0.0693  0.3111
 8114SOL    HW130179   3.655   1.135   9.724  1.6219 -1.8172  4.2081
 8114SOL    HW230180   3.546   1.221   9.786  0.0163  1.0795 -1.8676
 8115SOL     OW30181   7.670   7.478   2.650 -0.2555 -0.4960 -0.0170
 8115SOL    HW130182   7.643   7.409   2.589  1.9153 -0.7514 -0.7463
 8115SOL    HW230183   7.639   7.559   2.611 -0.1174 -0.7870 -0.7437
 8116SOL     OW30184   3.873   5.368   4.554 -0.7893 -0.2866  0.3627
 8116SOL    HW130185   3.889   5.323   4.470  1.8999 -0.5525  0.9308
 8116SOL    HW230186   3.857   5.297   4.616 -1.6028 -0.1518  0.3148
 8117SOL     OW30187  10.809   5.138   3.378 -0.2505 -0.5525 -0.6520
 8117SOL    HW130188  10.867   5.209   3.348  0.1486 -0.8861 -0.6814
 8117SOL    HW230189  10.868   5.065   3.395 -0.2591 -0.0121  2.2206
 8118SOL     OW30190  11.714   2.865   6.298 -1.2849 -0.3523 -0.1701
 8118SOL    HW130191  11.648   2.848   6.365  0.0407 -2.2708  0.7333
 8118SOL    HW230192  11.720   2.783   6.250  1.8784 -0.9887  1.1085
 8119SOL     OW30193  10.020  11.631   1.118  0.0621 -0.2290  0.6656
 8119SOL    HW130194  10.000  11.583   1.199 -0.0851 -0.6144  0.4010
 8119SOL    HW230195  10.110  11.607   1.098 -0.2101 -0.8770  0.2009
 8120SOL     OW30196   5.661   6.437  11.945  0.0881 -0.4421  0.4262
 8120SOL    HW130197   5.575   6.477  11.958  0.5090  1.0151 -0.9209
 8120SOL    HW230198   5.699   6.433  12.032 -0.8582  0.0179  0.8802
 8121SOL     OW30199   4.315  11.703   3.962 -0.7543  0.1094  0.0566
 8121SOL    HW130200   4.319  11.701   3.867  3.7771  1.1460 -0.0095
 8121SOL    HW230201   4.297  11.794   3.984  1.0886  0.4938  0.0867
 8122SOL     OW30202   7.533   4.963   2.129  0.1928  0.1604 -0.2426
 8122SOL    HW130203   7.442   4.939   2.143  0.1387  1.1718  1.2761
 8122SOL    HW230204   7.532   5.058   2.118  1.0104  0.1181 -0.8404
 8123SOL     OW30205   2.392   4.813  10.143 -0.0462 -0.0823 -0.1191
 8123SOL    HW130206   2.438   4.744  10.191 -0.2630 -1.7449 -2.1533
 8123SOL    HW230207   2.327   4.845  10.205  1.7173  0.1230  1.7483
 8124SOL     OW30208   9.656   2.207  12.315  0.2634 -0.5134  0.0106
 8124SOL    HW130209   9.582   2.243  12.267 -0.3762 -0.8612  0.7216
 8124SOL    HW230210   9.625   2.122  12.347  1.0237 -0.7381  0.1780
 8125SOL     OW30211   7.753   7.391  11.940  0.3896 -0.0129 -0.1750
 8125SOL    HW130212   7.786   7.475  11.909  0.3637 -0.3777 -1.2521
 8125SOL    HW230213   7.700   7.358  11.866 -1.3541 -0.0231  1.0144
 8126SOL     OW30214   4.735   3.741   2.263  0.3864  0.1340 -0.2832
 8126SOL    HW130215   4.693   3.733   2.177 -0.2137  0.6263 -0.0435
 8126SOL    HW230216   4.747   3.835   2.276  1.6389  0.0102 -0.3668
 8127SOL     OW30217   4.354   5.710   3.366  0.4048  0.2302 -0.2963
 8127SOL    HW130218   4.348   5.802   3.339 -1.0963  0.7386  1.5098
 8127SOL    HW230219   4.447   5.698   3.389  0.9464  0.7916 -2.0219
 8128SOL     OW30220   8.361   8.753   7.451  0.2712  0.0146 -0.4761
 8128SOL    HW130221   8.425   8.824   7.446  0.2901  0.1127  0.9147
 8128SOL    HW230222   8.302   8.778   7.521 -0.5490 -0.6990 -0.8934
 8129SOL     OW30223   7.090  10.794  10.030 -0.1491  0.1935  0.1038
 8129SOL    HW130224   7.093  10.863  10.097 -0.5468 -0.6600  1.0308
 8129SOL    HW230225   7.015  10.817   9.976  0.8853  1.5503 -0.8139
 8130SOL     OW30226   6.278   4.973   4.203 -0.8836  0.2039  0.2708
 8130SOL    HW130227   6.247   5.017   4.124  2.1116  3.4015  0.6558
 8130SOL    HW230228   6.332   4.901   4.170  1.9086  2.6222 -0.8748
 8131SOL     OW30229   3.707   1.195  10.348 -0.0221  0.2587 -0.1187
 8131SOL    HW130230   3.731   1.234  10.431 -2.0154  1.8022 -0.2141
 8131SOL    HW230231   3.640   1.131  10.369 -0.9762  1.0864 -0.5753
 8132SOL     OW30232   2.599   1.004   9.196  0.4272 -0.2943  0.0147
 8132SOL    HW130233   2.694   1.012   9.204  0.4637 -1.0187  0.3887
 8132SOL    HW230234   2.574   0.943   9.265 -0.4256  0.5796  0.5014
 8133SOL     OW30235   1.019  11.025   2.133  0.5710 -0.1304 -0.0167
 8133SOL    HW130236   1.030  11.076   2.213  0.2729 -1.0115  0.5932
 8133SOL    HW230237   0.926  11.004   2.131  0.4678  0.3697 -0.8992
 8134SOL     OW30238   7.099  11.765   9.081  0.1167  0.0109  0.4583
 8134SOL    HW130239   7.175  11.794   9.030  0.2299 -0.0422  0.5972
 8134SOL    HW230240   7.070  11.843   9.128  0.9609 -0.2978  1.5211
 8135SOL     OW30241   6.324   0.588   2.689  0.5729  0.0383 -0.1459
 8135SOL    HW130242   6.249   0.534   2.665  0.7303  0.2842 -1.2280
 8135SOL    HW230243   6.293   0.641   2.762  0.3141 -1.2577  0.7250
 8136SOL     OW30244   9.830  10.419   7.479  0.6631  0.0301  0.9149
 8136SOL    HW130245   9.818  10.375   7.394  0.4723 -0.1194  1.0204
 8136SOL    HW230246   9.775  10.370   7.540  1.6817 -0.5805  1.3675
 8137SOL     OW30247  11.829   8.007   1.518 -0.4051 -0.1280  0.3751
 8137SOL    HW130248  11.896   8.047   1.573 -0.1325  0.5289 -0.4265
 8137SOL    HW230249  11.785   7.944   1.576  0.4901 -0.1221  1.0768
 8138SOL     OW30250   7.052   6.234  10.613  0.8395  0.7969  0.2429
 8138SOL    HW130251   6.987   6.288  10.658 -1.2002 -1.3882  0.1421
 8138SOL    HW230252   7.134   6.252  10.658 -0.4732  1.1703  2.6628
 8139SOL     OW30253   8.000   1.178   0.019 -0.0862  0.3145 -0.4141
 8139SOL    HW130254   7.934   1.242  -0.009 -0.6714  0.1200  0.4696
 8139SOL    HW230255   7.957   1.129   0.089  1.0037  0.1930  0.1924
 8140SOL     OW30256   0.092   1.230   6.766 -0.4716 -0.0268 -0.5387
 8140SOL    HW130257   0.160   1.164   6.751 -0.7027 -0.6693  1.1455
 8140SOL    HW230258   0.011   1.181   6.775 -0.6969  0.5009  0.4250
 8141SOL     OW30259   0.061   2.845   5.382  0.1104 -0.0650 -0.6979
 8141SOL    HW130260   0.007   2.874   5.309 -1.6318 -1.9487 -0.2553
 8141SOL    HW230261   0.078   2.924   5.433 -2.2848  0.6158 -0.8426
 8142SOL     OW30262   7.578   9.597   1.721  0.1509  0.3507  0.4495
 8142SOL    HW130263   7.487   9.624   1.709  0.3404  0.4680 -0.8451
 8142SOL    HW230264   7.573   9.503   1.740 -0.1518 -0.0720 -1.5566
 8143SOL     OW30265   6.948   0.973  11.826 -0.1902  0.1217 -0.5481
 8143SOL    HW130266   7.042   0.986  11.837 -0.1134 -0.8243  0.0364
 8143SOL    HW230267   6.941   0.885  11.789 -0.8367  0.3161 -0.9062
 8144SOL     OW30268   2.157   6.895   9.867 -0.1109 -0.0645  0.1815
 8144SOL    HW130269   2.127   6.986   9.865  0.5967  0.1574 -1.1109
 8144SOL    HW230270   2.160   6.873   9.961 -0.3943  1.2043  0.5024
 8145SOL     OW30271   3.628   7.947   3.200 -0.1108 -0.1658 -0.3011
 8145SOL    HW130272   3.615   8.041   3.196 -1.1888 -0.3284 -3.1945
 8145SOL    HW230273   3.545   7.910   3.171 -0.1088 -2.1144  1.8656
 8146SOL     OW30274   3.633   4.321   3.765  0.0384  0.6448  0.3399
 8146SOL    HW130275   3.721   4.343   3.735  0.4068 -0.5057  0.5195
 8146SOL    HW230276   3.576   4.388   3.726  0.7707  0.4310 -1.1686
 8147SOL     OW30277   5.559   1.629   3.539 -0.2788  0.2743 -0.3883
 8147SOL    HW130278   5.644   1.620   3.497 -0.9736  2.3018 -2.4801
 8147SOL    HW230279   5.578   1.632   3.632  1.7640 -0.8102 -0.7245
 8148SOL     OW30280   6.942   5.961   1.851  0.3256 -0.1055 -0.5688
 8148SOL    HW130281   6.848   5.967   1.869  0.1048 -1.1637 -1.2924
 8148SOL    HW230282   6.981   5.935   1.934 -0.0115  0.3637 -0.2565
 8149SOL     OW30283   7.615   7.393   1.421 -0.2225 -0.1792  0.0796
 8149SOL    HW130284   7.589   7.369   1.332 -0.6011  0.7177 -0.0621
 8149SOL    HW230285   7.577   7.325   1.477 -1.0907 -0.0388 -0.3273
 8150SOL     OW30286  10.887  10.170   1.104 -0.0643  0.0101  0.0785
 8150SOL    HW130287  10.807  10.214   1.134 -0.4806 -0.6515 -0.0457
 8150SOL    HW230288  10.938  10.155   1.183  0.2185  0.9537  0.0985
 8151SOL     OW30289   2.693   3.378  11.807  0.7305  0.7778  0.5687
 8151SOL    HW130290   2.610   3.335  11.784  0.9363  1.0707 -0.8181
 8151SOL    HW230291   2.731   3.403  11.723  1.5395  1.9487  1.2492
 8152SOL     OW30292   7.639   5.499  11.845 -0.0624 -0.3138 -0.3897
 8152SOL    HW130293   7.664   5.495  11.937  0.0653  0.1163 -0.4020
 8152SOL    HW230294   7.642   5.592  11.823 -2.7321 -0.1031 -0.1306
 8153SOL     OW30295   2.128  11.491   4.483  0.2489 -0.1825 -0.9199
 8153SOL    HW130296   2.104  11.421   4.544 -1.7740  0.7685 -0.5614
 8153SOL    HW230297   2.221  11.507   4.502  0.1896 -1.2657  0.4963
 8154SOL     OW30298   0.839   4.071   5.380  0.2666  0.2837  0.3166
 8154SOL    HW130299   0.763   4.063   5.322  0.4033  0.7476  0.0719
 8154SOL    HW230300   0.812   4.027   5.461  0.3226 -0.9952 -0.3337
 8155SOL     OW30301   4.110  10.586  12.018 -0.2821  0.3106 -0.3710
 8155SOL    HW130302   4.103  10.494  11.989 -0.7051  0.4298 -0.6645
 8155SOL    HW230303   4.203  10.600  12.032 -0.2922 -0.4256  0.5338
 8156SOL     OW30304   3.030   5.832   5.292  0.4387 -0.2833  0.1076
 8156SOL    HW130305   3.081   5.909   5.319 -2.0463  1.4633  0.0769
 8156SOL    HW230306   3.020   5.842   5.197 -0.8193 -0.0268  0.2546
 8157SOL     OW30307  11.405   9.086   6.490  0.3280 -0.1219  0.0509
 8157SOL    HW130308  11.499   9.069   6.477  0.1739 -0.3119 -0.8799
 8157SOL    HW230309  11.375   9.120   6.406 -0.1429  1.3767  0.7979
 8158SOL     OW30310   1.733   7.837   1.821 -0.3081  0.1888  0.5452
 8158SOL    HW130311   1.771   7.841   1.909 -2.8332 -0.4980  1.7597
 8158SOL    HW230312   1.670   7.765   1.825 -0.4779  0.1176 -1.8665
 8159SOL     OW30313   5.621   0.192  11.752  1.0723 -0.1911 -0.2784
 8159SOL    HW130314   5.554   0.127  11.775  1.2085 -0.1848  0.1545
 8159SOL    HW230315   5.693   0.174  11.813  0.5686  1.2254  0.7896
 8160SOL     OW30316   9.578   3.861   4.848  0.3761 -0.2349 -0.2133
 8160SOL    HW130317   9.547   3.799   4.914  0.7731 -0.7967 -0.5378
 8160SOL    HW230318   9.625   3.927   4.898  0.8676 -0.7762  0.0657
 8161SOL     OW30319   5.883   1.767   3.871  0.0877 -0.0651 -0.1135
 8161SOL    HW130320   5.820   1.813   3.926  0.9207 -0.2661  1.0407
 8161SOL    HW230321   5.966   1.811   3.888  0.1498  0.8454 -2.3377
 8162SOL     OW30322   2.729   3.351   9.960 -0.5110 -0.1899  0.5550
 8162SOL    HW130323   2.687   3.360  10.046 -1.7152 -0.9229  0.0643
 8162SOL    HW230324   2.670   3.395   9.900  0.6364  0.8734  0.1545
 8163SOL     OW30325   8.494   9.470   2.002  0.0473 -0.2335 -0.5420
 8163SOL    HW130326   8.559   9.470   2.073 -0.5586  0.0056  0.0265
 8163SOL    HW230327   8.544   9.492   1.924  0.3293  2.2514  0.2316
 8164SOL     OW30328   7.380   8.100   3.248 -0.0253 -0.6321 -1.1243
 8164SOL    HW130329   7.360   8.160   3.176 -2.0680 -0.2841 -0.3386
 8164SOL    HW230330   7.298   8.053   3.264  0.8208 -1.8309 -0.0308
 8165SOL     OW30331   1.768  12.270   5.317 -0.2507 -0.4932  0.3503
 8165SOL    HW130332   1.703  12.245   5.383  0.4981  0.1159  1.3198
 8165SOL    HW230333   1.746  12.360   5.295 -1.0556 -0.9549 -0.9366
 8166SOL     OW30334   0.835   4.999  11.480 -0.9139 -0.4990  0.3253
 8166SOL    HW130335   0.859   4.925  11.425  1.1989 -0.5434  1.1910
 8166SOL    HW230336   0.866   4.975  11.567 -0.0041  1.4345  0.6031
 8167SOL     OW30337   4.013  11.578  10.517 -0.5609 -0.0515 -0.3460
 8167SOL    HW130338   4.016  11.566  10.612 -1.2877  0.2792 -0.2753
 8167SOL    HW230339   3.925  11.613  10.500 -0.6326 -0.6258 -1.2003
 8168SOL     OW30340  10.935   0.519   4.058  0.3165  0.0907  0.1954
 8168SOL    HW130341  10.971   0.582   4.120  0.7990  1.7062 -1.6330
 8168SOL    HW230342  10.865   0.566   4.013  0.0996 -0.9687 -0.6246
 8169SOL     OW30343   3.113   7.567   2.993 -0.2080  0.0913  0.1451
 8169SOL    HW130344   3.147   7.632   2.931  1.2903 -2.2371 -1.6439
 8169SOL    HW230345   3.176   7.566   3.065 -0.1378  0.4842  0.0888
 8170SOL     OW30346   3.176   3.361  11.736  0.3859 -0.5954  0.1297
 8170SOL    HW130347   3.112   3.431  11.746 -0.9807 -1.5440 -1.4799
 8170SOL    HW230348   3.261   3.406  11.733 -0.2420  0.7553  1.4769
 8171SOL     OW30349   8.236   6.688   0.924  0.0646  0.3605 -0.0540
 8171SOL    HW130350   8.232   6.594   0.944 -0.3643  0.9842  3.4285
 8171SOL    HW230351   8.178   6.698   0.848 -2.0172 -1.8773  1.0785
 8172SOL     OW30352  11.889   7.947   1.132  0.3489 -0.3608 -0.2751
 8172SOL    HW130353  11.846   8.019   1.086 -0.2455 -0.7482 -0.3222
 8172SOL    HW230354  11.952   7.990   1.191 -0.5480  0.2323  0.2640
 8173SOL     OW30355   3.617   6.339   0.986  0.4746 -0.3789 -0.2806
 8173SOL    HW130356   3.668   6.309   0.910  0.4131 -0.9971 -0.0794
 8173SOL    HW230357   3.614   6.434   0.976  1.0643 -0.3948 -0.6806
 8174SOL     OW30358   0.495   6.171   4.396  0.2442  0.2971 -0.3193
 8174SOL    HW130359   0.471   6.202   4.309  0.6066 -1.1448 -0.9714
 8174SOL    HW230360   0.431   6.212   4.455 -0.4058  0.7916 -1.3392
 8175SOL     OW30361   3.268   8.891   5.915 -0.2445  0.2388 -0.0803
 8175SOL    HW130362   3.276   8.798   5.896  0.5528 -0.0658  1.5443
 8175SOL    HW230363   3.352   8.928   5.887 -0.5563  0.4874 -0.7134
 8176SOL     OW30364  10.033   9.528   0.465  0.0221 -0.0724  0.3552
 8176SOL    HW130365  10.020   9.621   0.448 -0.9224  0.0136  1.4027
 8176SOL    HW230366  10.128   9.516   0.462  0.5232  1.6946  3.6107
 8177SOL     OW30367   9.035   0.634  11.509 -0.3607 -0.1065 -0.2447
 8177SOL    HW130368   9.069   0.583  11.582  0.3142 -1.7707 -1.6485
 8177SOL    HW230369   8.943   0.608  11.501  0.2119 -1.9724 -1.5539
 8178SOL     OW30370   6.130   0.286  10.367  0.4428  0.2410 -0.2245
 8178SOL    HW130371   6.084   0.213  10.326  0.3710 -0.1340  0.5103
 8178SOL    HW230372   6.223   0.264  10.359  0.4011 -1.2153  2.2029
 8179SOL     OW30373   2.159   9.977   8.548  0.2975 -0.4744  0.1328
 8179SOL    HW130374   2.131   9.915   8.616  0.8804 -0.4376  0.4124
 8179SOL    HW230375   2.090   9.972   8.481  0.6109 -1.8719 -0.1302
 8180SOL     OW30376   1.105   6.346   7.943 -0.0779  0.3191 -0.0085
 8180SOL    HW130377   1.109   6.405   7.867 -0.1532 -0.0253 -0.2849
 8180SOL    HW230378   1.079   6.262   7.906 -4.2986  1.0015  0.8347
 8181SOL     OW30379  10.353  11.952   2.468  0.7190  0.1012  0.4505
 8181SOL    HW130380  10.432  11.974   2.420 -0.1392  1.2629 -0.4945
 8181SOL    HW230381  10.281  11.985   2.414 -0.3178  1.1528  2.3227
 8182SOL     OW30382   0.713   9.365  10.041 -0.1516 -0.1096 -0.5896
 8182SOL    HW130383   0.742   9.441  10.092  1.0990 -0.3570 -0.9193
 8182SOL    HW230384   0.793   9.329  10.004 -0.9962 -0.1530 -2.4512
 8183SOL     OW30385  11.833  10.983   6.973 -0.2439  0.3924 -0.2194
 8183SOL    HW130386  11.805  11.057   6.920  2.2601  0.7669 -1.1792
 8183SOL    HW230387  11.910  10.949   6.927 -0.9752 -2.4922  0.4878
 8184SOL     OW30388   8.631   7.294   0.847 -0.9083  0.2697  0.2327
 8184SOL    HW130389   8.602   7.351   0.776 -1.6955  0.0103  0.3393
 8184SOL    HW230390   8.712   7.334   0.878 -0.3986  0.2171 -0.9980
 8185SOL     OW30391   4.425   0.636  12.044  0.0780 -0.2067  0.1081
 8185SOL    HW130392   4.517   0.661  12.047 -0.3262  1.2985  1.6978
 8185SOL    HW230393   4.421   0.553  12.090  0.4118  0.6519  1.7437
 8186SOL     OW30394   1.951   8.094   8.182 -0.1141  0.8157 -0.3966
 8186SOL    HW130395   2.003   8.154   8.235  0.4488 -1.1142  1.3564
 8186SOL    HW230396   1.889   8.054   8.243 -0.3833 -0.4600 -1.4571
 8187SOL     OW30397   8.557   7.957   0.410  0.0772 -0.1875  0.4078
 8187SOL    HW130398   8.612   7.883   0.386  0.6811  0.1295  0.7942
 8187SOL    HW230399   8.560   8.015   0.334  0.9135  0.1954  0.7282
 8188SOL     OW30400   3.861   7.409   0.011  0.6306  0.2589 -0.3272
 8188SOL    HW130401   3.866   7.354   0.089  0.0068  0.7785  0.0847
 8188SOL    HW230402   3.821   7.352  -0.055  1.1866 -0.1911 -0.2860
 8189SOL     OW30403  11.622   2.425  12.225  0.4634  0.3561 -0.1360
 8189SOL    HW130404  11.706   2.418  12.180 -0.4307  0.2707 -1.8750
 8189SOL    HW230405  11.644   2.455  12.313  2.4356 -1.2712 -0.0286
 8190SOL     OW30406   5.976   3.666   9.054  0.3857  0.0066  0.0917
 8190SOL    HW130407   5.906   3.601   9.050 -0.4450  0.9622 -2.3023
 8190SOL    HW230408   6.028   3.650   8.975  0.3022  2.0611 -0.4165
 8191SOL     OW30409   5.881   1.262   8.906 -0.5538 -0.0694 -0.2215
 8191SOL    HW130410   5.967   1.226   8.923 -0.1093  1.4772  0.9565
 8191SOL    HW230411   5.824   1.185   8.896  1.3846 -1.2805 -4.0502
 8192SOL     OW30412  10.557   3.861   9.813  0.4674  0.4760 -0.2023
 8192SOL    HW130413  10.534   3.887   9.723  0.2469 -0.0387 -0.2962
 8192SOL    HW230414  10.647   3.828   9.806  0.8645  1.4860 -0.0262
 8193SOL     OW30415   3.432   6.923  10.319 -0.6046 -0.4540 -0.0951
 8193SOL    HW130416   3.477   6.841  10.336  1.2931 -0.0717 -2.6113
 8193SOL    HW230417   3.391   6.947  10.402  0.9268 -2.6343  1.3798
 8194SOL     OW30418   5.286  10.897   3.950  0.3719  0.4472  0.0398
 8194SOL    HW130419   5.258  10.820   4.000 -0.6136  0.7366 -0.0384
 8194SOL    HW230420   5.248  10.884   3.863  0.2279  0.9991  0.0168
 8195SOL     OW30421   1.818   6.150   9.702 -0.2273 -0.7561 -0.1297
 8195SOL    HW130422   1.829   6.227   9.646 -2.1039 -2.2142 -2.6957
 8195SOL    HW230423   1.900   6.145   9.752  1.7428  0.4962 -2.9735
 8196SOL     OW30424   1.965  11.916   1.864 -0.1714  0.2783 -0.2058
 8196SOL    HW130425   1.982  11.903   1.958  0.2589  1.4252 -0.1132
 8196SOL    HW230426   2.018  11.849   1.821  0.0512  0.0901  0.3470
 8197SOL     OW30427   2.442   2.485  10.176 -0.5171  0.6005 -0.4653
 8197SOL    HW130428   2.369   2.469  10.116  0.3782 -1.2027 -1.1554
 8197SOL    HW230429   2.422   2.570  10.216 -1.9479  1.1138 -2.1278
 8198SOL     OW30430   4.522   2.857   1.276 -0.5147 -0.0921  0.1468
 8198SOL    HW130431   4.479   2.783   1.320  0.7130 -0.4949  0.7254
 8198SOL    HW230432   4.566   2.819   1.201 -0.8874  0.2593 -0.2538
 8199SOL     OW30433   9.155   7.746   4.084 -0.6142  1.0495  0.1885
 8199SOL    HW130434   9.198   7.814   4.136  0.2575  1.7487 -1.3819
 8199SOL    HW230435   9.224   7.683   4.064 -1.5314 -0.7070  2.1177
 8200SOL     OW30436  11.289   1.920  10.534  0.0396 -0.0446  0.2374
 8200SOL    HW130437  11.339   2.000  10.548  0.0608 -0.1870  1.0284
 8200SOL    HW230438  11.292   1.875  10.619  4.7860 -3.6737 -1.4249
 8201SOL     OW30439  11.185   2.061   6.204  0.0911  0.4323 -0.0139
 8201SOL    HW130440  11.120   1.998   6.234 -0.5469  1.0482 -0.0998
 8201SOL    HW230441  11.179   2.058   6.108  0.4368  0.2335 -0.0312
 8202SOL     OW30442   4.509   4.264  10.463 -0.0410  0.1373 -0.0647
 8202SOL    HW130443   4.427   4.309  10.486  1.5974  2.5106  1.6123
 8202SOL    HW230444   4.537   4.305  10.381 -0.6001 -0.8331 -0.7597
 8203SOL     OW30445   2.532  10.049  10.920 -0.8850 -0.1445  0.7576
 8203SOL    HW130446   2.520   9.954  10.913 -0.6352 -0.0790 -0.8136
 8203SOL    HW230447   2.609  10.059  10.977 -0.5041 -0.9075  0.3886
 8204SOL     OW30448   6.055   9.291   7.152 -0.0195 -0.5124 -0.6537
 8204SOL    HW130449   5.998   9.298   7.228  0.2511  0.3837 -0.5278
 8204SOL    HW230450   6.032   9.367   7.098 -0.4155 -1.2875 -1.6190
 8205SOL     OW30451   4.119  11.410   7.335  0.7411  0.1357 -0.0404
 8205SOL    HW130452   4.079  11.431   7.250 -1.9159  1.9751  1.5031
 8205SOL    HW230453   4.182  11.481   7.349  0.3261  0.5016  0.0113
 8206SOL     OW30454   5.349   8.308   1.409 -0.0203  0.0690  0.4323
 8206SOL    HW130455   5.438   8.341   1.426  0.0426  0.2368 -0.2078
 8206SOL    HW230456   5.349   8.220   1.447 -0.1354  0.7157  1.9928
 8207SOL     OW30457   5.187   1.530   1.862  0.3727 -0.4095  0.0655
 8207SOL    HW130458   5.140   1.541   1.780  1.1946  0.8132 -0.2736
 8207SOL    HW230459   5.205   1.436   1.868  1.2898 -0.3760 -1.7152
 8208SOL     OW30460   1.417   1.096  10.306  0.2003  0.2460  0.3518
 8208SOL    HW130461   1.472   1.158  10.258 -0.5956  1.1679  0.5965
 8208SOL    HW230462   1.372   1.149  10.371 -1.4484 -0.3532 -0.2443
 8209SOL     OW30463   0.312   5.745   2.077  0.4964 -0.1875 -0.4886
 8209SOL    HW130464   0.335   5.826   2.032 -1.9244  1.2413  0.6328
 8209SOL    HW230465   0.391   5.720   2.125  1.4881  1.1181 -1.4105
 8210SOL     OW30466   9.753   0.223   8.001  0.6416  0.0910 -0.1056
 8210SOL    HW130467   9.691   0.171   8.053  1.4600 -1.2171 -0.4002
 8210SOL    HW230468   9.748   0.311   8.039  0.5457 -0.6132  1.6025
 8211SOL     OW30469   9.909  11.829   0.631 -0.3662 -0.0328  0.2737
 8211SOL    HW130470   9.999  11.809   0.658 -0.7629 -0.0163  1.6479
 8211SOL    HW230471   9.915  11.917   0.595  0.1360  0.0595  0.5671
 8212SOL     OW30472   5.569  11.075  10.215 -0.2302 -0.3131  0.2356
 8212SOL    HW130473   5.492  11.018  10.219 -1.0563  0.8170  1.0980
 8212SOL    HW230474   5.534  11.163  10.226  1.2340  0.1924  1.1471
 8213SOL     OW30475   1.558   9.677   2.798  0.3513  0.1765  0.2276
 8213SOL    HW130476   1.584   9.739   2.729 -0.3172  0.7277  0.4535
 8213SOL    HW230477   1.509   9.731   2.861  0.2000 -0.4904  0.6886
 8214SOL     OW30478   6.021   2.391   8.056 -0.6236  0.2705  0.4485
 8214SOL    HW130479   6.031   2.357   7.967 -0.8570 -1.0385  0.9039
 8214SOL    HW230480   6.111   2.405   8.087 -0.4459 -1.3963  0.7787
 8215SOL     OW30481   4.190   2.535  10.460  0.4432  0.4354  0.1586
 8215SOL    HW130482   4.243   2.517  10.382 -1.1136 -0.5686 -0.7205
 8215SOL    HW230483   4.100   2.532  10.429 -0.2668 -0.7169  2.1313
 8216SOL     OW30484  10.369   5.478  12.025 -0.0101 -0.4876 -0.0573
 8216SOL    HW130485  10.447   5.486  11.971  0.8486  1.4203  1.3389
 8216SOL    HW230486  10.305   5.433  11.970  1.0787  0.6084 -2.3108
 8217SOL     OW30487   2.291   1.103   3.611  0.9816 -0.1380  0.4441
 8217SOL    HW130488   2.220   1.102   3.675  0.1403 -0.1340 -0.4603
 8217SOL    HW230489   2.326   1.192   3.615  0.1793  0.2060  0.1116
 8218SOL     OW30490  11.040   6.968   5.612  0.2284  0.6012  0.1835
 8218SOL    HW130491  11.045   6.875   5.636  0.8615  0.3659 -0.7871
 8218SOL    HW230492  10.954   6.996   5.643 -0.0607 -0.3715  0.3084
 8219SOL     OW30493   7.258   0.506   2.907  0.0558  0.7148 -0.2431
 8219SOL    HW130494   7.237   0.419   2.940 -1.3175  0.9595 -0.4168
 8219SOL    HW230495   7.336   0.533   2.957 -0.6643  0.1872  1.2356
 8220SOL     OW30496   7.763   2.380   4.028 -0.2536  0.4569 -0.0373
 8220SOL    HW130497   7.720   2.390   3.943 -1.0771 -0.9112  0.1946
 8220SOL    HW230498   7.847   2.339   4.008 -0.4269  0.1826 -0.2094
 8221SOL     OW30499   5.878   1.172  10.090 -1.0707  0.4170  0.5273
 8221SOL    HW130500   5.874   1.089  10.136  0.2039  0.2087  0.2884
 8221SOL    HW230501   5.950   1.220  10.131 -1.0301  0.9244 -0.1010
 8222SOL     OW30502   1.601   2.993   7.160 -0.4316 -0.3632  0.6988
 8222SOL    HW130503   1.527   3.028   7.111 -0.0764 -0.4160  0.1131
 8222SOL    HW230504   1.645   2.934   7.099  1.1858  1.0875  0.3699
 8223SOL     OW30505   3.999   6.456   9.352 -0.0419  0.2397 -0.0478
 8223SOL    HW130506   3.940   6.459   9.427  0.9475  3.3977  0.7608
 8223SOL    HW230507   3.942   6.451   9.276 -1.2987  1.1133  0.8010
 8224SOL     OW30508   7.581   0.965  12.180  0.0399 -0.3085 -0.0116
 8224SOL    HW130509   7.593   0.901  12.109 -3.8950 -2.2978  0.7698
 8224SOL    HW230510   7.606   0.917  12.259 -1.4280 -0.4231  0.4255
 8225SOL     OW30511   6.688   6.416   5.717 -0.1157 -1.1175  0.1745
 8225SOL    HW130512   6.593   6.410   5.702 -0.1148 -0.2863 -0.2025
 8225SOL    HW230513   6.719   6.479   5.652  0.5040 -0.4126  1.1191
 8226SOL     OW30514   0.071   9.627   6.471 -0.3512 -0.6254 -0.0325
 8226SOL    HW130515   0.085   9.535   6.497  1.4407 -0.3763  0.0277
 8226SOL    HW230516   0.067   9.624   6.376  0.6658 -0.6795 -0.0872
 8227SOL     OW30517   7.925   1.428  11.451  0.0160 -0.8788  0.0448
 8227SOL    HW130518   7.855   1.470  11.501 -0.6062  0.1393 -1.5896
 8227SOL    HW230519   7.990   1.403  11.516 -0.5240  0.8268  1.2918
 8228SOL     OW30520   7.422   8.959   2.752 -0.2272  0.0531 -0.0558
 8228SOL    HW130521   7.355   8.904   2.792  0.7403 -0.3553  1.0394
 8228SOL    HW230522   7.390   8.975   2.663 -2.6934  1.3986  0.9736
 8229SOL     OW30523   6.059   9.863   8.202  0.6528  0.1816 -0.6047
 8229SOL    HW130524   5.973   9.899   8.177  0.3184 -1.4370 -1.9998
 8229SOL    HW230525   6.119   9.937   8.194 -0.4023  1.0355 -0.9303
 8230SOL     OW30526   0.205   9.787   2.729 -0.4427 -0.1972  0.5191
 8230SOL    HW130527   0.185   9.878   2.707  1.5727  0.3532  0.7723
 8230SOL    HW230528   0.226   9.789   2.822  0.2371 -0.7968  0.3865
 8231SOL     OW30529   9.381   3.133  11.822  0.8803  0.0795  0.0109
 8231SOL    HW130530   9.341   3.218  11.803 -0.1322 -0.4059 -0.0768
 8231SOL    HW230531   9.312   3.083  11.865  1.3939 -0.7790 -0.1384
 8232SOL     OW30532   4.249  11.922   7.725  0.2343  0.2400 -0.2384
 8232SOL    HW130533   4.188  11.870   7.777  0.0458 -0.1083 -0.7913
 8232SOL    HW230534   4.310  11.959   7.788 -0.2647  0.2015  0.2738
 8233SOL     OW30535   5.173   3.070   5.476 -0.6422 -0.3861 -0.0664
 8233SOL    HW130536   5.125   2.999   5.433 -0.1613 -0.5042 -0.4108
 8233SOL    HW230537   5.151   3.149   5.425 -2.8139  0.1199  1.5158
 8234SOL     OW30538   0.918  11.765   7.497 -0.0537 -0.3606 -0.5840
 8234SOL    HW130539   0.934  11.811   7.414 -0.0524 -0.3380 -0.5714
 8234SOL    HW230540   0.943  11.674   7.479  1.6557 -0.0187 -0.0982
 8235SOL     OW30541   4.709   4.939   1.480 -0.0160 -0.0678 -0.1044
 8235SOL    HW130542   4.753   4.855   1.469  1.1024  0.2370  1.6807
 8235SOL    HW230543   4.620   4.916   1.507 -0.3384 -0.6642 -1.5654
 8236SOL     OW30544   1.755   8.125   2.147 -0.1157  0.3403  0.5229
 8236SOL    HW130545   1.722   8.036   2.161  1.4931 -0.0450  2.2280
 8236SOL    HW230546   1.734   8.172   2.228  0.5038  1.0277  0.2966
 8237SOL     OW30547   3.754   6.590   2.992  0.0866  0.0335 -0.1840
 8237SOL    HW130548   3.728   6.511   2.944 -1.0258  0.8257 -0.9292
 8237SOL    HW230549   3.832   6.564   3.041  0.6669 -1.1064 -1.6358
 8238SOL     OW30550   2.075   6.929   6.193  0.5668 -0.2077  0.2050
 8238SOL    HW130551   2.165   6.904   6.172  0.3531  0.5405 -1.7413
 8238SOL    HW230552   2.048   6.985   6.121 -2.1608 -1.9999 -0.2967
 8239SOL     OW30553   2.473  11.708   3.870  0.4805  0.1310  0.3652
 8239SOL    HW130554   2.569  11.711   3.866  0.6147 -2.2361  0.6004
 8239SOL    HW230555   2.452  11.616   3.883 -1.8755  0.5123 -0.2227
 8240SOL     OW30556   7.019   6.599   3.594  0.5067  0.7564  0.4504
 8240SOL    HW130557   6.955   6.546   3.641 -0.4034  1.4112 -0.0115
 8240SOL    HW230558   7.095   6.542   3.584 -0.0156 -0.0547  0.9842
 8241SOL     OW30559   9.139   8.428   6.832  0.0238  0.0087 -0.5196
 8241SOL    HW130560   9.165   8.520   6.822 -1.6879  0.5675 -0.2928
 8241SOL    HW230561   9.149   8.411   6.926  0.6146 -0.1289 -0.6064
 8242SOL     OW30562   2.828   3.942   4.939  0.7844 -0.0434  0.6720
 8242SOL    HW130563   2.798   4.028   4.968  0.4580  0.1690 -0.2570
 8242SOL    HW230564   2.880   3.959   4.861 -1.0295 -0.8259 -0.7919
 8243SOL     OW30565   8.865   0.157   4.676  0.3001  0.3278  0.4401
 8243SOL    HW130566   8.933   0.211   4.716 -0.6057  0.1495  2.2850
 8243SOL    HW230567   8.866   0.075   4.725 -3.0970  1.3219  2.5057
 8244SOL     OW30568  10.747  10.619   8.806  0.3419 -0.6024 -0.6548
 8244SOL    HW130569  10.745  10.703   8.760 -1.3625 -0.6983 -0.8057
 8244SOL    HW230570  10.815  10.630   8.873  2.4410 -0.2429 -2.7180
 8245SOL     OW30571   4.060  11.829   1.617  0.4006 -0.0581 -0.4115
 8245SOL    HW130572   4.073  11.788   1.532  0.8801  0.3661 -0.5497
 8245SOL    HW230573   4.111  11.910   1.613  2.4900 -1.1759  1.1054
 8246SOL     OW30574   8.257  11.237   4.025  0.2687  0.0188  0.1800
 8246SOL    HW130575   8.341  11.258   3.985 -0.5010  0.1127 -1.5127
 8246SOL    HW230576   8.250  11.296   4.100  1.5389  0.2872  0.1009
 8247SOL     OW30577   8.071   7.207   2.564 -0.5333 -0.2181  0.3697
 8247SOL    HW130578   8.132   7.165   2.625 -2.2107 -1.1710  1.4629
 8247SOL    HW230579   8.013   7.136   2.536 -0.9913  0.6153 -0.8443
 8248SOL     OW30580  11.079   3.713   3.967 -0.3836  0.0008 -0.1921
 8248SOL    HW130581  11.130   3.632   3.957 -0.5748 -0.3885  1.6126
 8248SOL    HW230582  11.012   3.691   4.031  0.8689  2.1401  1.9940
 8249SOL     OW30583  10.973   2.308   7.670  0.0994 -0.5543 -0.1089
 8249SOL    HW130584  11.038   2.374   7.696  0.6504 -1.1778  0.1399
 8249SOL    HW230585  11.022   2.248   7.614 -0.4307 -0.6809 -0.4418
 8250SOL     OW30586   8.097   1.506   7.557  1.0742  0.2476 -0.4407
 8250SOL    HW130587   8.032   1.481   7.491  2.4734 -1.5654 -1.2503
 8250SOL    HW230588   8.089   1.601   7.565 -1.0392  0.1765 -1.1421
 8251SOL     OW30589  11.204   0.890   4.504  0.8556 -0.2663  0.2104
 8251SOL    HW130590  11.234   0.948   4.433  0.8470 -1.6454 -0.9606
 8251SOL    HW230591  11.270   0.821   4.507 -1.3934 -2.6577 -1.5227
 8252SOL     OW30592   8.276   4.732   7.616 -0.1838 -0.1632 -0.4759
 8252SOL    HW130593   8.300   4.681   7.693 -1.4675 -0.4031 -0.2172
 8252SOL    HW230594   8.181   4.742   7.622 -0.0221  1.9794 -0.7026
 8253SOL     OW30595   4.240   0.462  10.648  0.4727  0.1463 -0.3654
 8253SOL    HW130596   4.285   0.393  10.598  1.0514  1.2100 -1.3667
 8253SOL    HW230597   4.149   0.456  10.619  0.5984  0.0589 -0.7529
 8254SOL     OW30598   0.272   0.833   2.624 -0.4696  0.3616 -0.5386
 8254SOL    HW130599   0.284   0.915   2.672  2.1137 -0.2215 -0.0516
 8254SOL    HW230600   0.308   0.851   2.537 -0.9935  0.0805 -0.8171
 8255SOL     OW30601   0.212   9.041   1.145 -0.4812 -0.3482  0.2029
 8255SOL    HW130602   0.284   9.094   1.111 -0.8671  0.8491  1.2029
 8255SOL    HW230603   0.250   8.994   1.219 -0.9047  0.9610  1.2956
 8256SOL     OW30604   4.703   3.638   4.007  0.2941 -0.0931  0.0105
 8256SOL    HW130605   4.721   3.700   3.936  0.4344  0.1869  0.2928
 8256SOL    HW230606   4.608   3.638   4.015  0.3672  1.5330  1.2926
 8257SOL     OW30607   1.780   6.460   6.525 -0.1324 -0.1038 -0.0882
 8257SOL    HW130608   1.741   6.451   6.612 -1.7921 -1.1223 -0.8685
 8257SOL    HW230609   1.705   6.477   6.468  0.4890 -2.3845 -1.7283
 8258SOL     OW30610   4.647  11.920   0.596 -0.4560  0.4806 -0.4198
 8258SOL    HW130611   4.643  11.940   0.689 -1.6381 -0.3558 -0.2669
 8258SOL    HW230612   4.714  11.852   0.589 -0.7310  0.1707 -0.0960
 8259SOL     OW30613   7.902   8.952   3.288 -0.7252 -0.1226  0.1425
 8259SOL    HW130614   7.878   8.880   3.229 -1.8851 -0.4199  0.9303
 8259SOL    HW230615   7.820   9.000   3.300 -0.0109  1.2085 -0.1987
 8260SOL     OW30616   2.651   8.735  10.160  0.3596 -0.4207 -0.8382
 8260SOL    HW130617   2.566   8.717  10.199  0.6953 -0.5387 -0.1510
 8260SOL    HW230618   2.705   8.766  10.232  1.0711 -0.9002 -1.1477
 8261SOL     OW30619  10.595   2.804   0.614  0.1352 -0.3200  0.2488
 8261SOL    HW130620  10.566   2.837   0.529  2.4999 -1.3655 -1.0403
 8261SOL    HW230621  10.523   2.748   0.643 -0.6936  0.0131 -1.0583
 8262SOL     OW30622   7.734   1.321   8.039 -0.0366  0.0210 -0.0592
 8262SOL    HW130623   7.718   1.235   8.079 -1.2225  0.8265  1.2926
 8262SOL    HW230624   7.725   1.305   7.945 -3.0727 -0.8481  0.2697
 8263SOL     OW30625   3.048   1.250   1.561 -0.0961  0.0045 -0.0360
 8263SOL    HW130626   3.084   1.237   1.473 -0.5248 -0.6568 -0.1235
 8263SOL    HW230627   3.027   1.162   1.592 -0.0022  0.2315  0.7128
 8264SOL     OW30628  10.599   8.596   3.237 -0.2333  0.0526 -0.3552
 8264SOL    HW130629  10.591   8.680   3.284  0.3706  0.8887 -1.6846
 8264SOL    HW230630  10.556   8.612   3.153  1.1230 -0.4916 -1.1927
 8265SOL     OW30631   6.632  10.957  10.955 -0.2975 -0.1097 -0.0459
 8265SOL    HW130632   6.698  10.895  10.986 -0.8835 -0.5015  0.4407
 8265SOL    HW230633   6.661  10.982  10.868  0.0666 -0.8977 -0.1513
 8266SOL     OW30634   8.552   8.085  12.272  0.0539  0.4157 -0.2244
 8266SOL    HW130635   8.565   8.054  12.183 -2.8790  0.9392 -0.9473
 8266SOL    HW230636   8.507   8.169  12.262 -0.8805  0.2158  1.7462
 8267SOL     OW30637   6.827   6.571   6.903  0.7567 -0.2002  0.4467
 8267SOL    HW130638   6.793   6.642   6.958 -1.0770 -1.0947  0.5361
 8267SOL    HW230639   6.819   6.604   6.813 -0.1334 -0.2930  0.4853
 8268SOL     OW30640   9.039  10.226   2.333 -0.4193 -0.6153 -0.0085
 8268SOL    HW130641   9.096  10.301   2.351 -0.7102 -0.9798  2.8211
 8268SOL    HW230642   9.088  10.173   2.270  0.8716  0.7051 -0.1697
 8269SOL     OW30643  11.435  11.305   3.732 -0.7406 -0.6248 -0.1076
 8269SOL    HW130644  11.363  11.330   3.789  1.5206  3.8959  1.2404
 8269SOL    HW230645  11.420  11.354   3.651  0.3759 -0.1445 -0.0515
 8270SOL     OW30646  10.283   9.439   5.661  0.6554 -1.1656  0.0262
 8270SOL    HW130647  10.334   9.513   5.692  0.6285 -1.2259  0.2106
 8270SOL    HW230648  10.203   9.441   5.714  0.6455 -1.3150  0.0151
 8271SOL     OW30649   4.439   3.130  10.231 -0.6386 -0.5059 -0.0910
 8271SOL    HW130650   4.438   3.098  10.321 -0.8780 -1.4779 -0.4270
 8271SOL    HW230651   4.435   3.051  10.177 -1.8958  0.1138 -0.9504
 8272SOL     OW30652   0.731   0.670   1.045 -0.6468 -0.4136  0.1372
 8272SOL    HW130653   0.707   0.616   1.120 -0.3917  0.1638  0.6518
 8272SOL    HW230654   0.781   0.743   1.083  1.0970 -1.0665 -0.7706
 8273SOL     OW30655   7.578   8.934   4.267  0.5280  0.2616 -0.4840
 8273SOL    HW130656   7.581   8.881   4.347  1.4112  1.2725  0.1854
 8273SOL    HW230657   7.590   8.871   4.196  0.0420 -0.6205  0.1830
 8274SOL     OW30658   1.226   9.835   4.328 -0.4418 -0.7202 -0.4274
 8274SOL    HW130659   1.135   9.826   4.355 -1.4176 -0.9578 -3.4308
 8274SOL    HW230660   1.233   9.926   4.297  0.7877 -0.2478  1.0949
 8275SOL     OW30661   1.191  10.002   9.648  0.4050  0.1543  0.4939
 8275SOL    HW130662   1.182   9.925   9.592  0.3445 -1.0013  2.0267
 8275SOL    HW230663   1.234  10.067   9.592 -0.1707 -0.7328 -1.0518
 8276SOL     OW30664   1.505   6.569   9.772 -0.0525  0.2970 -0.3683
 8276SOL    HW130665   1.577   6.564   9.835  0.4105 -2.3069 -0.9801
 8276SOL    HW230666   1.508   6.485   9.726  0.2510  2.3464 -4.5615
 8277SOL     OW30667   4.536   3.628   0.032 -0.4838  1.3504  0.4206
 8277SOL    HW130668   4.459   3.662   0.076 -1.5978 -0.0439 -0.3873
 8277SOL    HW230669   4.529   3.660  -0.058 -1.9607 -1.4399 -0.5742
 8278SOL     OW30670   5.889   3.377   5.553  0.2630  0.4448 -0.5953
 8278SOL    HW130671   5.885   3.302   5.612  1.1160  1.3911  0.7362
 8278SOL    HW230672   5.808   3.372   5.502 -1.5702  0.6746  2.0519
 8279SOL     OW30673   9.275   2.635   4.141 -0.1732 -0.1234  0.4870
 8279SOL    HW130674   9.303   2.725   4.127 -0.5002 -0.0185  0.5067
 8279SOL    HW230675   9.300   2.616   4.232  0.1390 -0.1466  0.4004
 8280SOL     OW30676   5.345   6.570   2.848  0.1792  0.7591  0.2818
 8280SOL    HW130677   5.393   6.580   2.930  1.7914 -3.1405  0.0450
 8280SOL    HW230678   5.255   6.594   2.870 -0.1105 -2.7040  4.1665
 8281SOL     OW30679   1.597   2.151  10.983  0.2038  0.9221 -0.0225
 8281SOL    HW130680   1.563   2.064  10.960 -0.3665  1.3797 -0.9320
 8281SOL    HW230681   1.522   2.196  11.022 -0.0491  1.6596 -1.3114
 8282SOL     OW30682  11.717   9.866  10.993  0.2513  0.4694  0.0912
 8282SOL    HW130683  11.792   9.834  11.043 -0.1975  1.1260  1.2269
 8282SOL    HW230684  11.719   9.961  11.004  0.4603  0.7052 -1.6436
 8283SOL     OW30685   0.525   4.416   6.519 -0.0952  0.1948 -0.1623
 8283SOL    HW130686   0.553   4.504   6.493 -0.0368  0.1081 -0.3899
 8283SOL    HW230687   0.574   4.398   6.599  3.6169 -1.5771 -2.6148
 8284SOL     OW30688   7.732   6.362   2.997 -0.5381 -0.2526 -0.1313
 8284SOL    HW130689   7.738   6.284   2.942  0.3449 -1.6089  1.7857
 8284SOL    HW230690   7.699   6.330   3.080 -2.0673  1.7764  0.1311
 8285SOL     OW30691   7.525  11.669   5.093  0.3590  0.8243 -0.3334
 8285SOL    HW130692   7.571  11.689   5.012 -0.9231  0.6745 -1.1317
 8285SOL    HW230693   7.543  11.576   5.108 -1.7253  0.0360 -2.0928
 8286SOL     OW30694   2.923   5.007   0.277 -0.0409  0.4014 -0.1578
 8286SOL    HW130695   2.940   4.936   0.214 -1.9017  0.3000 -0.6104
 8286SOL    HW230696   2.953   4.973   0.361 -0.5756 -0.8159 -0.4351
 8287SOL     OW30697   4.033   8.745   8.295  0.2213 -0.0291 -0.1372
 8287SOL    HW130698   3.983   8.667   8.323 -0.4214 -0.9107 -3.3352
 8287SOL    HW230699   3.968   8.815   8.296  0.3693  0.1074  1.1036
 8288SOL     OW30700  11.963   8.931   1.979 -0.1731  1.1751 -0.1897
 8288SOL    HW130701  11.938   8.913   1.888 -1.8315  0.7168  0.3166
 8288SOL    HW230702  11.991   9.023   1.978 -0.4734  1.2711 -1.1022
 8289SOL     OW30703   5.082   8.695   6.845  0.0286  0.4167  0.2241
 8289SOL    HW130704   5.131   8.665   6.921 -0.4885 -2.4575 -0.4660
 8289SOL    HW230705   5.018   8.757   6.881  0.2677 -0.3093  2.0125
 8290SOL     OW30706   3.605  12.030   0.276 -0.1049 -0.6957 -0.4846
 8290SOL    HW130707   3.651  12.096   0.328 -0.9892 -0.3971 -0.0675
 8290SOL    HW230708   3.644  12.037   0.189  0.4259 -0.2422 -0.2178
 8291SOL     OW30709  11.403   3.443   1.266 -0.4570  0.1950  0.0652
 8291SOL    HW130710  11.475   3.399   1.311  1.4921  2.0576 -0.9949
 8291SOL    HW230711  11.410   3.413   1.175 -0.6686  0.8016 -0.1550
 8292SOL     OW30712   7.016   7.960   8.987  0.2378 -0.7714  0.2458
 8292SOL    HW130713   7.030   8.034   9.047 -1.1872 -0.0636 -0.2573
 8292SOL    HW230714   6.955   7.903   9.034 -0.9912 -0.1479 -0.5430
 8293SOL     OW30715   6.709   8.342   6.130  0.0572 -0.3680  0.3630
 8293SOL    HW130716   6.726   8.433   6.155  0.5413 -0.4955  0.5002
 8293SOL    HW230717   6.751   8.290   6.199 -0.9948 -0.6904  0.7883
 8294SOL     OW30718   1.175   2.936   5.974  0.2686 -0.0490 -0.1096
 8294SOL    HW130719   1.117   2.999   6.017  0.2328  0.2343 -0.5675
 8294SOL    HW230720   1.246   2.923   6.036 -1.1098 -1.6928  1.2081
 8295SOL     OW30721  12.186   7.528   4.463 -0.6070 -0.1934 -0.1737
 8295SOL    HW130722  12.092   7.536   4.481 -0.2773  1.0816  1.2173
 8295SOL    HW230723  12.224   7.497   4.545  0.3500  0.7320 -0.2441
 8296SOL     OW30724   5.904   0.727   5.621  0.2457  0.5707 -0.1609
 8296SOL    HW130725   5.958   0.727   5.543  0.1248 -0.3930 -0.2570
 8296SOL    HW230726   5.921   0.642   5.662  2.9786  2.2900  2.7545
 8297SOL     OW30727   0.591   2.658   2.990 -0.1150  0.4818  0.2460
 8297SOL    HW130728   0.509   2.707   2.981 -1.5719 -1.9840 -1.0472
 8297SOL    HW230729   0.588   2.592   2.921  1.1235 -2.1689  2.4852
 8298SOL     OW30730   9.367   2.120   0.938  0.5141 -0.6513 -0.1574
 8298SOL    HW130731   9.288   2.113   0.884  0.3662  1.0120 -0.1964
 8298SOL    HW230732   9.334   2.135   1.027  0.7772  0.1512 -0.1891
 8299SOL     OW30733   8.363   0.433  11.924 -0.8657 -0.2606 -0.1816
 8299SOL    HW130734   8.333   0.458  12.011 -0.1669  0.2745 -0.0857
 8299SOL    HW230735   8.289   0.385  11.886 -1.1980 -0.4395  0.6743
 8300SOL     OW30736   2.468   6.293   1.335 -0.3384 -0.5719 -0.3095
 8300SOL    HW130737   2.434   6.229   1.272 -1.5985  2.2643 -2.7274
 8300SOL    HW230738   2.457   6.378   1.292  3.5603  1.1881  1.6436
 8301SOL     OW30739  10.889   4.195   6.426 -0.0608  0.3043 -0.7241
 8301SOL    HW130740  10.918   4.114   6.384  1.9823  0.2255  0.6968
 8301SOL    HW230741  10.801   4.175   6.459 -0.0532 -0.9367 -1.4271
 8302SOL     OW30742   8.225   8.069   0.515  0.1968  0.3378  0.4462
 8302SOL    HW130743   8.239   7.980   0.482 -0.0283  0.2123  0.6897
 8302SOL    HW230744   8.160   8.107   0.456  1.4143  0.8716 -0.6010
 8303SOL     OW30745   4.956   6.872   6.608 -0.2054 -0.4564  0.6555
 8303SOL    HW130746   4.915   6.953   6.577  1.9429  0.8560  1.0310
 8303SOL    HW230747   4.894   6.803   6.584 -1.2838  1.0939 -1.2947
 8304SOL     OW30748   3.037   8.644   9.320  0.1650 -0.4087 -0.3275
 8304SOL    HW130749   3.020   8.736   9.342 -2.6746 -0.8629 -0.1378
 8304SOL    HW230750   3.047   8.601   9.405  1.7595 -0.2875 -0.4219
 8305SOL     OW30751   2.856   1.527   7.251 -0.1989  0.0582 -0.3927
 8305SOL    HW130752   2.949   1.520   7.230  0.0017  0.7129  0.2264
 8305SOL    HW230753   2.845   1.617   7.282 -0.9154 -0.2028  0.1525
 8306SOL     OW30754   4.881   0.195   8.327 -0.5321  0.3873  0.7354
 8306SOL    HW130755   4.795   0.210   8.286 -0.2887  0.3913  0.2146
 8306SOL    HW230756   4.934   0.270   8.299 -0.2897  0.2611  0.8571
 8307SOL     OW30757   9.184   3.382  10.355  0.2087  0.0655  0.5067
 8307SOL    HW130758   9.278   3.380  10.374  0.2934 -1.1817  0.0463
 8307SOL    HW230759   9.175   3.443  10.282  0.7123 -0.0941  0.3092
 8308SOL     OW30760   7.294   9.485   3.391 -0.6731  0.0580 -0.6185
 8308SOL    HW130761   7.205   9.514   3.370 -0.9120  0.4042  0.7828
 8308SOL    HW230762   7.287   9.447   3.479  0.6104  0.3672 -0.3641
 8309SOL     OW30763   8.503   9.298   5.826  0.4728 -0.2220 -0.0405
 8309SOL    HW130764   8.563   9.328   5.757  0.9526  0.6809  0.7533
 8309SOL    HW230765   8.428   9.265   5.778  0.7061  0.5808 -1.0127
 8310SOL     OW30766   1.990   3.981   4.520 -0.0638 -0.1110 -0.2320
 8310SOL    HW130767   1.955   4.066   4.493  1.1010  0.7287  0.7586
 8310SOL    HW230768   2.008   3.991   4.614  0.8024 -1.1899 -0.2590
 8311SOL     OW30769   0.502   5.702  12.213 -0.4431  0.0290  0.0515
 8311SOL    HW130770   0.501   5.731  12.121 -1.8084 -0.4559 -0.1200
 8311SOL    HW230771   0.505   5.783  12.263 -1.5484  0.3909 -0.4303
 8312SOL     OW30772   1.772   3.235   8.274 -0.2871  0.8866  0.2654
 8312SOL    HW130773   1.707   3.254   8.342  2.1935  1.8072  2.5383
 8312SOL    HW230774   1.829   3.169   8.313  1.3218  1.5686 -0.8462
 8313SOL     OW30775   3.432   5.897   1.389  0.4164 -0.5407  0.0249
 8313SOL    HW130776   3.443   5.960   1.319 -1.0286 -0.5652 -0.2656
 8313SOL    HW230777   3.519   5.885   1.426  1.6448 -1.9756 -2.9958
 8314SOL     OW30778   5.971   1.007  11.587  0.1793  0.3042 -0.1086
 8314SOL    HW130779   5.963   1.095  11.551  0.7437  0.2500 -0.3698
 8314SOL    HW230780   6.065   0.990  11.589  0.0101 -1.2795 -2.4228
 8315SOL     OW30781   8.546   8.910   6.879  0.0795  0.0350  0.8594
 8315SOL    HW130782   8.623   8.943   6.832  1.0307 -0.8192  1.7423
 8315SOL    HW230783   8.498   8.860   6.814 -1.4271  3.0220 -0.5312
 8316SOL     OW30784   5.264   9.297   8.109 -0.5861 -0.4182 -0.2886
 8316SOL    HW130785   5.234   9.207   8.100  0.4169 -0.6477 -1.5467
 8316SOL    HW230786   5.223   9.344   8.036 -1.2577  0.2001  0.4680
 8317SOL     OW30787  10.301   7.983   6.125 -0.2859  0.6594 -0.3938
 8317SOL    HW130788  10.270   8.011   6.211  0.9923  1.0676 -0.0316
 8317SOL    HW230789  10.311   7.888   6.132 -0.7783  0.6126 -0.3024
 8318SOL     OW30790   9.597   1.920   9.717  0.0637 -0.0110 -0.0198
 8318SOL    HW130791   9.662   1.859   9.751 -0.6503 -1.3370 -0.9367
 8318SOL    HW230792   9.517   1.867   9.706 -0.5681  1.0670 -0.8809
 8319SOL     OW30793   4.989   7.381   3.150 -0.0375 -0.1003 -0.1980
 8319SOL    HW130794   4.935   7.302   3.151 -0.5311  0.2269  1.0622
 8319SOL    HW230795   5.074   7.351   3.118 -0.6826 -0.8036 -1.3424
 8320SOL     OW30796   2.264   5.247   1.112 -0.0853  0.0675 -0.0381
 8320SOL    HW130797   2.203   5.288   1.051 -0.4139 -1.0162 -0.4469
 8320SOL    HW230798   2.336   5.215   1.057  1.2206  1.8723  0.4862
 8321SOL     OW30799  10.587   0.407   3.183  0.2861  0.4712 -0.1407
 8321SOL    HW130800  10.507   0.460   3.192  2.0863  3.9413 -2.4116
 8321SOL    HW230801  10.566   0.346   3.112 -0.2033  1.7761 -1.1625
 8322SOL     OW30802   6.884  11.588   6.864  0.5170 -0.2967 -0.3298
 8322SOL    HW130803   6.801  11.566   6.823  0.3633 -0.0618 -0.1465
 8322SOL    HW230804   6.883  11.541   6.948  0.3258  0.1501 -0.0796
 8323SOL     OW30805  11.979   0.269   3.601 -0.3414 -0.0052 -0.3677
 8323SOL    HW130806  11.972   0.363   3.587  1.1492  0.0829 -0.7263
 8323SOL    HW230807  11.897   0.233   3.567  0.1069  0.9278 -2.5959
 8324SOL     OW30808   2.958   7.237   8.947  0.2076  0.7156 -0.7290
 8324SOL    HW130809   2.895   7.193   8.891  1.1318 -0.3819 -0.9555
 8324SOL    HW230810   2.936   7.209   9.036  1.6159 -1.3865 -0.9756
 8325SOL     OW30811  11.063   1.674  10.263  0.0034 -0.1310 -0.0135
 8325SOL    HW130812  11.157   1.690  10.268 -0.0107  0.1365 -0.5204
 8325SOL    HW230813  11.054   1.579  10.271  0.4686 -0.3557 -1.6605
 8326SOL     OW30814  10.528  12.260   6.754  0.3091  0.2742 -0.2399
 8326SOL    HW130815  10.582  12.338   6.770  1.0647 -0.0208 -1.1942
 8326SOL    HW230816  10.591  12.194   6.724 -0.2675 -0.8354  0.9469
 8327SOL     OW30817   3.125   0.556   8.424  0.5039  0.0818  0.3935
 8327SOL    HW130818   3.196   0.491   8.425 -0.7903 -1.4000 -0.0706
 8327SOL    HW230819   3.133   0.598   8.339  0.1427 -0.8946 -0.1401
 8328SOL     OW30820  10.632   9.454  11.342 -0.2652 -0.4658  0.7327
 8328SOL    HW130821  10.623   9.360  11.360 -2.1204 -0.4564  0.0328
 8328SOL    HW230822  10.556   9.494  11.383 -1.8793  0.1612 -2.5462
 8329SOL     OW30823   7.000  11.299  10.245  0.0363 -0.8145 -0.7156
 8329SOL    HW130824   6.975  11.384  10.279 -0.9758 -1.7875  1.1673
 8329SOL    HW230825   6.948  11.288  10.165  0.1385  0.2866 -0.9403
 8330SOL     OW30826   0.819  10.449  11.497 -0.1406  0.4929  0.0279
 8330SOL    HW130827   0.784  10.514  11.437 -1.1273 -0.5418 -0.5651
 8330SOL    HW230828   0.900  10.419  11.456  0.2439  1.2244  0.2346
 8331SOL     OW30829   1.544   5.842   3.242  0.1454 -0.2360  0.1136
 8331SOL    HW130830   1.583   5.786   3.308 -1.6082 -1.1878  0.4071
 8331SOL    HW230831   1.601   5.833   3.165 -0.9703 -3.8627 -0.4467
 8332SOL     OW30832   5.286   4.317   9.212 -0.2633 -0.1905 -0.4097
 8332SOL    HW130833   5.219   4.384   9.206  1.2627  1.5540  0.7839
 8332SOL    HW230834   5.263   4.267   9.290  0.8963  1.7647  1.2733
 8333SOL     OW30835   3.556  11.459  10.512 -0.0756 -0.0679 -0.3442
 8333SOL    HW130836   3.502  11.517  10.459 -0.4069  0.7067  0.7881
 8333SOL    HW230837   3.495  11.419  10.573  0.5549  0.6240  0.7845
 8334SOL     OW30838  11.601   6.378   7.072  0.8320  0.7037 -0.4190
 8334SOL    HW130839  11.542   6.450   7.094 -1.7976 -1.0647 -1.2899
 8334SOL    HW230840  11.586   6.313   7.141  1.4835  0.0413 -0.8875
 8335SOL     OW30841   8.041   4.731   2.064 -0.6036 -0.1789 -0.1763
 8335SOL    HW130842   7.992   4.742   2.145  0.4370  1.0648  0.3055
 8335SOL    HW230843   8.015   4.806   2.010 -1.3181 -1.0131 -1.0389
 8336SOL     OW30844   1.064   2.409   6.788  0.1061 -0.5746  0.2051
 8336SOL    HW130845   0.990   2.404   6.727  1.5040 -1.4080 -1.5176
 8336SOL    HW230846   1.101   2.321   6.788  0.5144 -0.4333  1.8256
 8337SOL     OW30847   0.440   1.886   1.361 -0.5998 -0.4209 -0.1539
 8337SOL    HW130848   0.533   1.873   1.340 -1.1066 -2.1358 -1.5399
 8337SOL    HW230849   0.428   1.841   1.444 -0.3537 -0.8848 -0.3652
 8338SOL     OW30850   8.980   3.804   5.896 -0.2857  0.1690 -0.0736
 8338SOL    HW130851   9.050   3.814   5.961 -0.1673 -0.5870 -0.0820
 8338SOL    HW230852   9.021   3.756   5.824 -0.6033  0.4127 -0.4232
 8339SOL     OW30853   4.270  10.162   8.925 -0.2148 -0.0674  0.3753
 8339SOL    HW130854   4.189  10.120   8.896  0.0168  0.3355 -0.9326
 8339SOL    HW230855   4.262  10.167   9.020 -1.1360 -1.2173  0.3778
 8340SOL     OW30856   5.510   6.291   7.736 -0.5705 -0.4942 -0.5426
 8340SOL    HW130857   5.426   6.337   7.740  0.0371  0.6793 -0.6914
 8340SOL    HW230858   5.569   6.346   7.787  0.6447 -0.0980 -2.2811
 8341SOL     OW30859   0.567   8.061   3.700 -0.3005  0.1712  0.3433
 8341SOL    HW130860   0.495   8.123   3.705 -1.1909 -0.6842 -1.2891
 8341SOL    HW230861   0.597   8.053   3.791  0.2655  3.3869  0.5518
 8342SOL     OW30862   5.106   8.096   0.375 -0.1404  0.1983  0.4059
 8342SOL    HW130863   5.101   8.189   0.395 -0.1100 -0.0726  1.8036
 8342SOL    HW230864   5.159   8.059   0.445  1.7044 -0.5732 -1.3079
 8343SOL     OW30865  11.603   3.783   6.441 -0.3215  0.1549  0.0745
 8343SOL    HW130866  11.631   3.711   6.385 -1.5495  1.7633 -2.8547
 8343SOL    HW230867  11.685   3.828   6.465  0.2362 -0.4886 -0.5906
 8344SOL     OW30868   7.039   5.541  10.102  0.2799 -0.0147  0.2858
 8344SOL    HW130869   6.980   5.601  10.149  2.2535  2.6916 -0.3992
 8344SOL    HW230870   7.000   5.530  10.016  0.2934  1.0398  0.1324
 8345SOL     OW30871   8.511   6.925   5.921 -0.0072 -0.3440  0.7311
 8345SOL    HW130872   8.535   6.841   5.882 -1.2374 -1.9710  3.1698
 8345SOL    HW230873   8.593   6.961   5.954  0.3034 -1.7221  1.5780
 8346SOL     OW30874   9.268   9.311  10.455 -0.2273 -0.7878  0.0560
 8346SOL    HW130875   9.201   9.244  10.470  1.1005 -2.3883 -0.8277
 8346SOL    HW230876   9.322   9.276  10.384  1.7312  0.3063  0.9297
 8347SOL     OW30877  10.537   3.961   6.662 -0.8145 -0.8104 -0.1371
 8347SOL    HW130878  10.494   3.884   6.701 -1.7793  0.3483  1.2322
 8347SOL    HW230879  10.615   3.975   6.716 -2.3219  0.9900  1.7524
 8348SOL     OW30880  12.008  10.283   7.341 -0.1978  0.2584 -0.4645
 8348SOL    HW130881  12.101  10.278   7.322 -0.0207 -0.3126  0.4873
 8348SOL    HW230882  11.966  10.233   7.272  0.3616 -1.0975  0.1363
 8349SOL     OW30883   8.285   0.498   0.547 -0.1181  0.6573  0.3233
 8349SOL    HW130884   8.262   0.573   0.601 -0.0713  0.0181  1.2560
 8349SOL    HW230885   8.250   0.422   0.594  1.3281 -0.0696  0.3035
 8350SOL     OW30886   4.644   2.539   6.404  0.7745  0.3707  0.6422
 8350SOL    HW130887   4.571   2.517   6.463  2.2001 -3.0623  1.3808
 8350SOL    HW230888   4.722   2.527   6.458  2.0146  3.5004 -0.2525
 8351SOL     OW30889  12.082   8.782   0.285  0.2471 -0.4949  0.0730
 8351SOL    HW130890  12.105   8.719   0.217 -0.9352 -3.8570  2.5244
 8351SOL    HW230891  12.000   8.821   0.255 -0.6049 -2.4167 -0.1955
 8352SOL     OW30892   7.128   3.704   6.629 -0.3396 -0.0571  0.4643
 8352SOL    HW130893   7.172   3.726   6.547  0.2016 -0.3817  0.6599
 8352SOL    HW230894   7.107   3.788   6.669  0.5278  0.1141  0.5838
 8353SOL     OW30895   7.462   2.023   5.678  0.3892 -0.1373  0.0506
 8353SOL    HW130896   7.523   2.096   5.684  0.6203 -0.4026  1.2351
 8353SOL    HW230897   7.382   2.061   5.643  1.1738  0.2331 -1.4236
 8354SOL     OW30898   6.922   5.644   9.225 -0.3443 -0.3852  0.5355
 8354SOL    HW130899   6.921   5.637   9.130 -0.7275  1.1312  0.3907
 8354SOL    HW230900   7.015   5.638   9.249 -0.2043 -0.3277  0.0141
 8355SOL     OW30901   1.744  10.677  10.954  0.4559 -0.5635 -0.1499
 8355SOL    HW130902   1.808  10.608  10.974 -0.5481 -1.4469  0.0621
 8355SOL    HW230903   1.710  10.653  10.868  0.4647 -0.0381 -0.3049
 8356SOL     OW30904   8.155  11.964   5.281  0.1297  0.2052  0.6452
 8356SOL    HW130905   8.125  11.958   5.371 -0.9678 -1.5365  0.2179
 8356SOL    HW230906   8.091  12.019   5.237  0.9280  1.4509  1.0028
 8357SOL     OW30907   6.073  10.692   5.691 -0.0597 -0.0465 -0.4528
 8357SOL    HW130908   5.990  10.648   5.670  0.7387 -0.1664 -3.8547
 8357SOL    HW230909   6.138  10.648   5.636  2.3212  0.1472  2.0059
 8358SOL     OW30910   6.271  11.095   1.785 -0.3056  0.3084 -0.1508
 8358SOL    HW130911   6.199  11.158   1.780  1.9983  3.2015  0.1435
 8358SOL    HW230912   6.329  11.120   1.712  0.1690 -2.3112 -0.7674
 8359SOL     OW30913  11.912   0.857   9.830 -0.2483  0.2248  0.0765
 8359SOL    HW130914  11.836   0.826   9.780 -0.1704  1.3492 -0.7837
 8359SOL    HW230915  11.889   0.947   9.854  0.2682  0.1290  0.9516
 8360SOL     OW30916   5.908   7.294   0.549 -0.3959  0.5086  0.0003
 8360SOL    HW130917   6.000   7.269   0.549 -0.3289  0.6186  1.6809
 8360SOL    HW230918   5.887   7.311   0.457  1.1655  0.1752 -0.4387
 8361SOL     OW30919   2.972   3.433   9.039 -0.5376 -0.2098 -0.2026
 8361SOL    HW130920   3.021   3.433   8.957  0.2165  2.6960  0.1293
 8361SOL    HW230921   3.037   3.416   9.107 -0.5495  0.6139  0.0217
 8362SOL     OW30922   2.618   1.527   2.404  0.1028  0.0667 -0.5865
 8362SOL    HW130923   2.572   1.470   2.342  0.0577 -0.6788  0.1242
 8362SOL    HW230924   2.679   1.469   2.450 -0.0717  0.5490  0.2711
 8363SOL     OW30925   5.657  11.607   5.802  0.0093  0.6274 -0.0866
 8363SOL    HW130926   5.565  11.608   5.775  0.6342 -0.6142 -2.5092
 8363SOL    HW230927   5.684  11.699   5.798 -0.9312  0.9163 -0.0266
 8364SOL     OW30928   7.924   6.938   7.637  0.1751  0.1552 -0.2365
 8364SOL    HW130929   7.950   6.953   7.728  0.1274  0.7340 -0.3090
 8364SOL    HW230930   7.959   6.852   7.615 -0.8217 -0.5096  0.7000
 8365SOL     OW30931  12.300  10.515  12.150  0.3645 -0.1997 -0.4445
 8365SOL    HW130932  12.287  10.571  12.227 -0.1064 -0.5494 -0.2671
 8365SOL    HW230933  12.224  10.458  12.148  0.6061 -0.5152 -0.9027
 8366SOL     OW30934   0.371  12.054   8.671 -0.3512  0.1707  0.0859
 8366SOL    HW130935   0.442  12.014   8.621 -2.9671 -2.4821 -1.8732
 8366SOL    HW230936   0.329  12.113   8.609  0.1999  1.8852  1.2923
 8367SOL     OW30937  10.134  12.000   6.077 -0.1618  0.4702  0.3719
 8367SOL    HW130938  10.094  11.973   6.160  0.4185  1.6018  1.0603
 8367SOL    HW230939  10.159  11.918   6.034 -2.4494 -0.2298  0.2652
 8368SOL     OW30940   2.314   8.714   7.010  0.5801  0.4847 -0.0103
 8368SOL    HW130941   2.233   8.706   7.061 -0.3350 -0.0342 -1.4904
 8368SOL    HW230942   2.357   8.791   7.046  0.9622 -0.9333  2.8412
 8369SOL     OW30943  12.258   9.803   3.265  0.5915  0.1134  0.1684
 8369SOL    HW130944  12.307   9.786   3.346  1.1172  0.3025 -0.0997
 8369SOL    HW230945  12.167   9.785   3.287  0.6021  1.0570  1.0679
 8370SOL     OW30946   1.755   3.652   9.818 -0.0859  0.5543 -0.5324
 8370SOL    HW130947   1.770   3.735   9.864  1.7857 -0.4065  0.6850
 8370SOL    HW230948   1.755   3.586   9.886  1.5893 -0.7887 -1.7595
 8371SOL     OW30949   3.688   3.570   0.529 -0.1683 -0.1080 -0.5557
 8371SOL    HW130950   3.708   3.496   0.587 -0.6600 -0.7562 -1.1914
 8371SOL    HW230951   3.731   3.645   0.571  1.9389 -1.0625 -0.8394
 8372SOL     OW30952   7.798   2.928   3.021  0.1084 -0.6183 -0.2194
 8372SOL    HW130953   7.888   2.923   2.990  1.2212  0.5521  2.4698
 8372SOL    HW230954   7.800   2.886   3.108 -1.4413  1.1131  0.7360
 8373SOL     OW30955   5.023   3.798   8.122 -0.3795  0.0467 -0.0941
 8373SOL    HW130956   4.964   3.733   8.160  0.0547 -0.8786 -0.9473
 8373SOL    HW230957   5.103   3.791   8.174 -0.5314  0.3029  0.1735
 8374SOL     OW30958   4.040   8.927   7.748 -0.5440 -0.0214  0.1186
 8374SOL    HW130959   4.003   8.860   7.691  1.7204 -1.5481  0.2939
 8374SOL    HW230960   4.015   8.899   7.836 -2.5016  1.3268  0.0309
 8375SOL     OW30961   9.611   2.189  11.115 -0.8663 -0.2186  0.1201
 8375SOL    HW130962   9.672   2.151  11.178 -0.5275  0.1734  0.0312
 8375SOL    HW230963   9.653   2.270  11.087 -1.2525 -0.1366 -0.2270
 8376SOL     OW30964  10.044  11.319   6.703  0.3965  0.5628 -0.0483
 8376SOL    HW130965   9.978  11.334   6.770 -0.1948  3.2926 -1.1412
 8376SOL    HW230966  10.127  11.322   6.750 -0.1224 -1.9350  1.1813
 8377SOL     OW30967   5.079   5.115   5.071 -0.0922 -0.0825  0.8527
 8377SOL    HW130968   5.028   5.151   5.143 -0.2323  0.4294  0.5050
 8377SOL    HW230969   5.051   5.165   4.994  0.0196 -0.6480  0.4313
 8378SOL     OW30970   1.308   1.611   0.058 -0.5279  0.1002  0.2642
 8378SOL    HW130971   1.327   1.518   0.058  0.1909  0.2372  0.2220
 8378SOL    HW230972   1.230   1.621   0.004 -0.0450 -0.3656 -0.5236
 8379SOL     OW30973   9.386   2.032  10.284 -0.4654 -0.1894 -0.1471
 8379SOL    HW130974   9.439   2.081  10.221 -0.1531  0.0208  0.2747
 8379SOL    HW230975   9.389   2.084  10.364  1.5517 -1.8712  0.9609
 8380SOL     OW30976   4.472   3.871   7.321  1.0501  0.2168 -0.4192
 8380SOL    HW130977   4.425   3.946   7.286  1.6764  0.8297  0.0256
 8380SOL    HW230978   4.553   3.867   7.269  0.2968 -1.1680 -1.5637
 8381SOL     OW30979   4.965  10.565   3.965  0.6829  0.6124 -0.5289
 8381SOL    HW130980   4.892  10.518   3.924  2.6451 -4.2778  0.8211
 8381SOL    HW230981   4.927  10.606   4.043 -0.7039 -2.4190  0.5638
 8382SOL     OW30982   5.711   1.017   1.310 -0.0923  0.6480 -0.6466
 8382SOL    HW130983   5.704   0.922   1.321 -2.6962  0.9469  1.2042
 8382SOL    HW230984   5.703   1.031   1.215  1.9281 -0.9866 -1.1432
 8383SOL     OW30985   3.570   5.753   3.927  0.0554  0.2453 -0.2729
 8383SOL    HW130986   3.637   5.737   3.994  0.8053  0.8560 -0.8601
 8383SOL    HW230987   3.592   5.691   3.857  1.1271  1.6620 -1.2433
 8384SOL     OW30988   1.105   3.542  10.447 -0.1499  0.3219 -0.2517
 8384SOL    HW130989   1.036   3.489  10.408 -0.5396  0.2550  0.4984
 8384SOL    HW230990   1.090   3.630  10.413 -1.4093  0.5809  0.8710
 8385SOL     OW30991   8.860   9.356   1.469  0.0400 -0.1675 -0.0856
 8385SOL    HW130992   8.859   9.373   1.563  0.4586 -0.0394 -0.1016
 8385SOL    HW230993   8.768   9.349   1.445 -0.0580 -0.9947  0.4784
 8386SOL     OW30994  10.733  10.795   7.042 -0.3843 -0.3752  0.4203
 8386SOL    HW130995  10.727  10.862   7.110  1.9285  0.3143  0.0385
 8386SOL    HW230996  10.724  10.712   7.089 -1.2484  0.1267  1.1844
 8387SOL     OW30997  11.349   9.755  10.620 -0.1683  0.1553 -0.2837
 8387SOL    HW130998  11.315   9.733  10.533 -0.0856 -0.2105 -0.2236
 8387SOL    HW230999  11.316   9.844  10.636  1.3421  0.9762 -1.4667
 8388SOL     OW31000   8.373   8.964   5.253  0.2676 -0.6923  0.4161
 8388SOL    HW131001   8.345   8.926   5.170 -0.9536  0.0481  0.4704
 8388SOL    HW231002   8.375   9.058   5.237 -0.3950 -0.5099  1.3358
 8389SOL     OW31003   0.648  11.657   4.370 -0.6133 -0.3076 -0.4739
 8389SOL    HW131004   0.614  11.702   4.293 -0.7920  0.4122  0.0062
 8389SOL    HW231005   0.635  11.720   4.441 -0.4148 -0.9412  0.1320
 8390SOL     OW31006   9.153   5.026   8.795  0.7133  0.6281 -0.1966
 8390SOL    HW131007   9.108   5.111   8.792  0.6180  0.6160  0.6905
 8390SOL    HW231008   9.088   4.963   8.765  0.4960  0.7544  0.0026
 8391SOL     OW31009   0.580   5.241   6.023 -0.7686  0.3997 -0.2911
 8391SOL    HW131010   0.566   5.320   6.076 -1.8751  0.0499 -0.0391
 8391SOL    HW231011   0.538   5.171   6.073 -2.3066  0.1446 -1.8416
 8392SOL     OW31012   7.674   9.455   5.587 -0.7185  0.2798 -0.3457
 8392SOL    HW131013   7.760   9.461   5.627 -0.3033  0.1926 -1.2145
 8392SOL    HW231014   7.625   9.394   5.643 -0.0048 -0.1920 -0.2334
 8393SOL     OW31015   5.272   1.713   2.761 -0.2032  0.0243  0.4363
 8393SOL    HW131016   5.217   1.676   2.692 -0.9139  0.7448  0.6033
 8393SOL    HW231017   5.357   1.670   2.750  0.1721  1.2118 -1.8285
 8394SOL     OW31018   3.277   1.081   1.816  0.1395  0.1957 -0.3030
 8394SOL    HW131019   3.235   1.167   1.811  0.9697  0.6732  0.5357
 8394SOL    HW231020   3.347   1.093   1.880  1.3854 -0.6458 -1.4574
 8395SOL     OW31021   0.830   7.774  11.578  0.4921 -0.5078 -0.3577
 8395SOL    HW131022   0.771   7.713  11.624  0.2503  0.8705  1.2562
 8395SOL    HW231023   0.771   7.836  11.536  0.7632  0.1068  0.1625
 8396SOL     OW31024  10.805   5.647  11.113  0.1755  0.1033 -0.3356
 8396SOL    HW131025  10.779   5.729  11.154 -1.0564 -0.6648  0.4602
 8396SOL    HW231026  10.855   5.601  11.180 -0.5361 -0.4915 -0.1997
 8397SOL     OW31027   1.630   0.429   5.688 -0.3675 -0.4954 -0.4982
 8397SOL    HW131028   1.690   0.489   5.643 -2.0679  0.3132 -1.7682
 8397SOL    HW231029   1.571   0.486   5.737  1.9468 -1.3074  3.7492
 8398SOL     OW31030   0.894   3.823   0.958 -0.2030 -0.0721 -0.0462
 8398SOL    HW131031   0.914   3.788   1.044 -0.1474 -0.0438 -0.0471
 8398SOL    HW231032   0.801   3.805   0.945 -0.7726  1.8112  0.9331
 8399SOL     OW31033   7.752   7.456  10.622  0.0263 -0.2582 -0.0280
 8399SOL    HW131034   7.724   7.366  10.638 -0.9545  0.0535  0.0964
 8399SOL    HW231035   7.710   7.480  10.540  0.5874 -0.0311 -0.2557
 8400SOL     OW31036   1.041   9.187   1.258  0.1883  0.4486  0.0320
 8400SOL    HW131037   1.003   9.251   1.197  2.0833  0.4838 -1.1809
 8400SOL    HW231038   1.135   9.205   1.255  0.6098 -1.5084  0.7138
 8401SOL     OW31039   7.858   0.328   8.228  0.2714 -0.6276  0.2602
 8401SOL    HW131040   7.822   0.239   8.232  0.8878 -0.9712 -1.0895
 8401SOL    HW231041   7.791   0.383   8.268 -0.5030 -1.6024  0.3364
 8402SOL     OW31042   2.487   2.180  10.348 -0.4088  0.5192  0.2267
 8402SOL    HW131043   2.431   2.145  10.417  1.5677  0.9540  2.1774
 8402SOL    HW231044   2.502   2.271  10.373 -0.4043  0.9709 -1.3210
 8403SOL     OW31045   1.611   8.784   7.420 -0.2905 -0.1275  0.0362
 8403SOL    HW131046   1.655   8.763   7.502  3.0240 -1.1983 -1.8105
 8403SOL    HW231047   1.518   8.770   7.438  0.3919 -1.2916  3.2889
 8404SOL     OW31048   3.651   6.762   7.033  0.5205 -0.4684  0.0141
 8404SOL    HW131049   3.700   6.841   7.054  1.4225 -0.5328 -1.7119
 8404SOL    HW231050   3.713   6.691   7.048  1.3314 -0.5009 -2.9555
 8405SOL     OW31051   1.031   5.905   2.883 -0.3196 -0.2775  0.5443
 8405SOL    HW131052   0.965   5.863   2.939  0.8245 -0.0201  2.1603
 8405SOL    HW231053   1.093   5.835   2.862 -0.8509 -0.4203 -0.6081
 8406SOL     OW31054   3.097  11.174  11.702 -0.4788  0.1716  0.0638
 8406SOL    HW131055   3.092  11.140  11.612  0.9275 -0.2037  0.1037
 8406SOL    HW231056   3.144  11.106  11.750  0.3820  1.1674  0.6699
 8407SOL     OW31057   5.703  11.130   6.747 -0.1003 -0.0303  0.3282
 8407SOL    HW131058   5.726  11.199   6.809 -0.0851  0.6500 -0.4282
 8407SOL    HW231059   5.734  11.049   6.789 -1.1158  0.2607  1.7439
 8408SOL     OW31060   5.627   5.814   4.506 -0.0849 -0.1773 -0.2618
 8408SOL    HW131061   5.604   5.730   4.546  1.3216 -0.1967  0.5714
 8408SOL    HW231062   5.544   5.859   4.495 -0.7992 -1.4314 -0.1483
 8409SOL     OW31063   6.341  11.355   5.235 -0.0835  0.2484  0.0798
 8409SOL    HW131064   6.323  11.341   5.142  0.2997 -1.2062  0.2078
 8409SOL    HW231065   6.424  11.403   5.236  0.5998 -0.8813 -0.3178
 8410SOL     OW31066   9.329  10.391   2.936 -0.7362  0.8291 -0.1290
 8410SOL    HW131067   9.244  10.356   2.910 -0.3699  2.0522 -3.5467
 8410SOL    HW231068   9.317  10.486   2.935  0.6834  1.0296 -0.9455
 8411SOL     OW31069   0.588  10.584  10.192 -0.0040 -0.2818 -0.0139
 8411SOL    HW131070   0.602  10.674  10.223  0.2804 -0.4168  0.2553
 8411SOL    HW231071   0.552  10.595  10.104 -1.4187  0.1241  0.5707
 8412SOL     OW31072   0.889   4.687   4.111  0.0283  0.4182  0.1007
 8412SOL    HW131073   0.874   4.760   4.049 -0.2431  0.6061  0.3851
 8412SOL    HW231074   0.980   4.663   4.096  0.6155  1.8697  1.1062
 8413SOL     OW31075   0.141   1.496  10.679 -0.1342 -0.3559 -0.2471
 8413SOL    HW131076   0.124   1.457  10.765  0.4685 -0.0656  0.0103
 8413SOL    HW231077   0.232   1.527  10.684 -0.9685  2.3617  0.0846
 8414SOL     OW31078   1.070   3.338   1.100 -0.0112 -0.0743  0.5733
 8414SOL    HW131079   1.149   3.388   1.120  0.0847  1.3024 -2.5685
 8414SOL    HW231080   0.998   3.396   1.124  0.0516  0.3788 -0.2836
 8415SOL     OW31081   1.370   9.333   3.035 -0.2665  0.1023  0.2728
 8415SOL    HW131082   1.368   9.241   3.059  0.9313 -0.2094 -0.7204
 8415SOL    HW231083   1.282   9.365   3.054 -1.3600 -1.7546 -1.3462
 8416SOL     OW31084   7.602   9.975  10.083 -0.0729  0.0284 -0.3838
 8416SOL    HW131085   7.527  10.022  10.119 -0.3918 -0.7177 -0.0627
 8416SOL    HW231086   7.565   9.895  10.046  0.3354  0.4640 -1.7910
 8417SOL     OW31087  10.087   0.465   3.137  0.2159 -0.0361 -0.6612
 8417SOL    HW131088  10.119   0.413   3.063 -0.9850 -0.8821 -0.6279
 8417SOL    HW231089  10.001   0.427   3.156  0.0084  0.9419  0.4150
 8418SOL     OW31090   6.207   8.384   4.079  0.1081  0.0290  0.2805
 8418SOL    HW131091   6.180   8.294   4.097  0.6946 -0.1932  0.0705
 8418SOL    HW231092   6.291   8.376   4.034 -0.6926  0.6038 -1.4102
 8419SOL     OW31093   2.640   9.302  10.925 -0.0656 -0.2959 -0.2774
 8419SOL    HW131094   2.711   9.364  10.937 -0.8412  1.1637 -2.5323
 8419SOL    HW231095   2.680   9.216  10.937  1.9514  0.5097 -0.9051
 8420SOL     OW31096  10.812   9.226   8.142 -0.5152  0.2608 -0.4791
 8420SOL    HW131097  10.790   9.172   8.066 -1.0427  0.8034 -0.7130
 8420SOL    HW231098  10.896   9.265   8.120 -1.0286  1.0243 -1.1205
 8421SOL     OW31099   8.916   2.503  10.885 -0.1180  0.4042  0.0582
 8421SOL    HW131100   8.994   2.545  10.848  0.9014 -1.4951 -0.0722
 8421SOL    HW231101   8.843   2.550  10.846  0.9112  2.6632  0.6445
 8422SOL     OW31102  10.701   4.129  11.373 -0.3625  0.1522 -0.6002
 8422SOL    HW131103  10.738   4.102  11.458  0.0738  0.0622 -0.8183
 8422SOL    HW231104  10.606   4.123  11.386 -0.2895 -1.5240 -0.6464
 8423SOL     OW31105  11.871   2.665   2.583 -0.2644 -0.1961 -0.3017
 8423SOL    HW131106  11.801   2.717   2.623 -0.3975  0.1558 -0.9659
 8423SOL    HW231107  11.871   2.583   2.631 -0.4409  0.1963  0.3892
 8424SOL     OW31108   7.286   2.812   1.406  0.4417 -0.0468  0.3296
 8424SOL    HW131109   7.260   2.758   1.481 -0.3033 -0.0292  0.0911
 8424SOL    HW231110   7.348   2.757   1.358  3.1918  0.9755  2.4305
 8425SOL     OW31111  10.184  11.275   0.809 -0.3931 -0.2044  0.4769
 8425SOL    HW131112  10.222  11.193   0.842 -0.7026 -1.3185 -1.7356
 8425SOL    HW231113  10.254  11.313   0.755 -1.1446 -0.3948 -0.6530
 8426SOL     OW31114   3.839   7.318   2.704  0.2657 -0.6048  0.4931
 8426SOL    HW131115   3.891   7.268   2.767  0.9310  0.8092  1.1193
 8426SOL    HW231116   3.884   7.403   2.699 -0.4528 -0.2872 -1.0078
 8427SOL     OW31117   0.566   0.754   8.090 -0.6435 -0.8441  0.0792
 8427SOL    HW131118   0.631   0.702   8.044 -0.0791  0.4187 -0.5904
 8427SOL    HW231119   0.553   0.832   8.036 -1.0852 -0.0366  1.2768
 8428SOL     OW31120  10.517   9.826   7.051 -0.2406 -0.0847  0.3349
 8428SOL    HW131121  10.599   9.873   7.036  0.0811 -1.0329 -0.9866
 8428SOL    HW231122  10.451   9.896   7.060  0.6060  0.6648  0.8180
 8429SOL     OW31123  11.855   1.071   8.293 -0.4512  0.4575  0.4368
 8429SOL    HW131124  11.825   1.159   8.269  0.2199  0.5437 -0.1126
 8429SOL    HW231125  11.877   1.029   8.210  2.2705  0.8898  0.8382
 8430SOL     OW31126   9.980   5.748   5.163  0.7566 -0.0501 -0.1655
 8430SOL    HW131127  10.060   5.747   5.111  0.1731 -2.1320 -1.1145
 8430SOL    HW231128   9.913   5.712   5.105 -0.7406  1.0205  0.8283
 8431SOL     OW31129  11.807   8.935   7.877 -0.9484 -0.4067  0.3793
 8431SOL    HW131130  11.730   8.967   7.829 -0.0963  0.9496 -0.1287
 8431SOL    HW231131  11.832   9.008   7.933  0.5493 -0.4603 -0.1813
 8432SOL     OW31132   1.189   2.162   1.523 -0.1106 -0.5598  0.0092
 8432SOL    HW131133   1.111   2.136   1.573  0.1205 -1.0417  0.1194
 8432SOL    HW231134   1.242   2.211   1.586 -0.9472  0.9845 -0.4275
 8433SOL     OW31135   4.660   6.703   2.616 -0.0463  0.5048  0.0434
 8433SOL    HW131136   4.611   6.751   2.550  2.3961 -1.0023 -3.1599
 8433SOL    HW231137   4.719   6.767   2.655  0.3265  0.9183 -1.1836
 8434SOL     OW31138   0.185   5.242   8.889 -0.1403 -0.6391 -0.1552
 8434SOL    HW131139   0.124   5.239   8.815  0.3999  0.9564 -0.7283
 8434SOL    HW231140   0.271   5.230   8.850  0.1886  0.6320  0.1188
 8435SOL     OW31141  10.988   8.410  11.585 -0.7064  0.7812  0.2427
 8435SOL    HW131142  10.932   8.488  11.590  0.2047  1.4951 -0.3042
 8435SOL    HW231143  10.939   8.349  11.530 -0.9230  1.4200 -0.2821
 8436SOL     OW31144   8.490  11.753   9.607 -0.0609  0.2212  0.4034
 8436SOL    HW131145   8.583  11.773   9.601 -0.1490  0.4639 -0.1298
 8436SOL    HW231146   8.464  11.731   9.518 -0.2029 -1.2436  0.7841
 8437SOL     OW31147   3.827   2.945   2.715 -0.4803 -0.2290 -1.0072
 8437SOL    HW131148   3.852   2.993   2.636  1.9130  0.3682  0.0394
 8437SOL    HW231149   3.824   3.011   2.784  0.9160 -1.2111  0.0665
 8438SOL     OW31150   3.894   3.301   7.458 -0.5784 -0.1215  0.4413
 8438SOL    HW131151   3.973   3.325   7.507 -1.0153 -0.5954  1.4154
 8438SOL    HW231152   3.919   3.309   7.366  1.4246 -2.7077  0.6554
 8439SOL     OW31153  10.384   6.784   5.774  0.4624 -0.1421 -0.4430
 8439SOL    HW131154  10.372   6.829   5.857  0.4359  0.8478 -0.9729
 8439SOL    HW231155  10.357   6.847   5.707 -0.5517 -1.2779 -1.1666
 8440SOL     OW31156  10.400   7.685   4.373  0.0950  0.1822  0.1733
 8440SOL    HW131157  10.478   7.632   4.359 -0.9507 -1.2246 -0.5917
 8440SOL    HW231158  10.386   7.682   4.468  0.5446 -0.1597  0.2288
 8441SOL     OW31159   6.651  10.757   8.418 -0.1261 -0.2307  0.5946
 8441SOL    HW131160   6.687  10.815   8.485  0.3128 -0.9732  1.0173
 8441SOL    HW231161   6.572  10.801   8.388 -0.4888 -0.0189  1.8119
 8442SOL     OW31162   1.562   5.823   7.143 -0.0172 -0.7098 -0.5421
 8442SOL    HW131163   1.530   5.784   7.224 -1.0559  1.2101  0.0236
 8442SOL    HW231164   1.536   5.761   7.075 -1.4646 -1.1166  0.3347
 8443SOL     OW31165   9.892  11.483   0.449 -0.0116 -0.0297 -0.3607
 8443SOL    HW131166   9.955  11.503   0.518 -2.0700 -0.8747  1.8857
 8443SOL    HW231167   9.817  11.445   0.494 -1.5889 -0.4184 -3.0594
 8444SOL     OW31168   8.170   4.520   8.437 -0.2212 -0.3214  0.2795
 8444SOL    HW131169   8.192   4.439   8.482  1.9676 -0.6318 -1.1675
 8444SOL    HW231170   8.079   4.537   8.460 -0.8422 -3.3224  0.4052
 8445SOL     OW31171   2.753   9.488   1.165  0.6444  0.0704  0.2056
 8445SOL    HW131172   2.742   9.577   1.199 -0.0224 -0.0871  0.4121
 8445SOL    HW231173   2.665   9.451   1.167  0.7641 -0.2891 -0.7333
 8446SOL     OW31174  10.991  10.360  11.724  0.0942  0.1994  0.1026
 8446SOL    HW131175  10.963  10.311  11.801  1.3605 -1.1319 -0.2304
 8446SOL    HW231176  10.915  10.358  11.666 -0.1207 -0.8064  0.3936
 8447SOL     OW31177   3.522   9.048   8.915  0.1794 -0.3408 -0.3999
 8447SOL    HW131178   3.560   8.967   8.882 -0.0118  0.4256 -2.6566
 8447SOL    HW231179   3.460   9.075   8.848 -1.2328  0.6800  1.2260
 8448SOL     OW31180   1.935   5.162   3.897  0.2116 -0.2954 -0.3076
 8448SOL    HW131181   1.952   5.219   3.973 -0.4495 -0.2260 -0.2019
 8448SOL    HW231182   1.868   5.100   3.929  0.0787 -0.3921 -0.7727
 8449SOL     OW31183   1.103   4.203   1.409 -0.2222  0.3462  0.8973
 8449SOL    HW131184   1.160   4.161   1.344 -2.3147  0.5145 -1.1375
 8449SOL    HW231185   1.053   4.131   1.446 -1.1439  0.5783  0.1299
 8450SOL     OW31186   1.818   8.414   3.221  0.0711 -0.2041 -0.1874
 8450SOL    HW131187   1.737   8.420   3.170  0.1740 -1.1473 -0.4926
 8450SOL    HW231188   1.878   8.364   3.165  1.3056  1.5366 -0.4960
 8451SOL     OW31189   8.714   3.715   0.221  0.3797  0.7176 -0.1426
 8451SOL    HW131190   8.738   3.698   0.312  0.8891  1.6484 -0.0941
 8451SOL    HW231191   8.623   3.743   0.225 -0.1382 -0.8820 -0.1140
 8452SOL     OW31192   5.251  11.619   7.949 -0.5369  0.4614 -0.5658
 8452SOL    HW131193   5.306  11.678   7.898  1.1028  0.2393  0.8372
 8452SOL    HW231194   5.180  11.674   7.982 -0.7071  0.9494 -1.6913
 8453SOL     OW31195   3.782   8.585   5.136  0.1221 -0.2410  0.2913
 8453SOL    HW131196   3.809   8.522   5.070 -0.2338 -0.4937  0.3872
 8453SOL    HW231197   3.694   8.612   5.110  1.0349  1.8174 -0.9452
 8454SOL     OW31198   5.148   5.813  11.480  0.2123  0.0233  0.0489
 8454SOL    HW131199   5.122   5.856  11.399  0.5352 -0.2698 -0.2092
 8454SOL    HW231200   5.082   5.840  11.544 -0.2985 -0.1106 -0.4213
 8455SOL     OW31201   2.582   3.102   3.902  0.6693 -0.2972 -0.2039
 8455SOL    HW131202   2.657   3.043   3.905  0.9794  0.0748 -0.5280
 8455SOL    HW231203   2.592   3.150   3.820  1.0577  1.0387  0.5841
 8456SOL     OW31204  10.383   5.693   0.565  0.3367  0.4574  0.1023
 8456SOL    HW131205  10.433   5.660   0.490 -2.1237  0.7394 -1.7829
 8456SOL    HW231206  10.329   5.618   0.592  0.3127  0.7277  0.8259
 8457SOL     OW31207  11.543   2.935   7.621 -0.0473  0.0596 -0.2530
 8457SOL    HW131208  11.610   2.993   7.655  0.4115  1.0017 -2.5483
 8457SOL    HW231209  11.590   2.857   7.592 -0.3468 -0.4636  0.6206
 8458SOL     OW31210   4.480  10.598   2.608  0.1493 -0.2473 -0.0456
 8458SOL    HW131211   4.450  10.685   2.581 -1.5175 -1.0469 -0.8700
 8458SOL    HW231212   4.559  10.583   2.555  0.2394  0.5958 -0.1676
 8459SOL     OW31213   8.807   3.970   6.020  0.1941 -0.1144  0.7706
 8459SOL    HW131214   8.879   3.924   5.977 -0.6538 -1.7630  1.0114
 8459SOL    HW231215   8.849   4.042   6.067  1.3533  0.5525 -1.1864
 8460SOL     OW31216  11.771   3.639   5.205  0.9477 -0.6798 -0.0934
 8460SOL    HW131217  11.791   3.578   5.277 -0.4608  0.5043  1.3918
 8460SOL    HW231218  11.841   3.626   5.142  1.7690 -2.4077  1.1009
 8461SOL     OW31219   4.650   4.219   8.157  0.2622 -0.6887 -0.0393
 8461SOL    HW131220   4.640   4.142   8.213 -0.5259 -0.0226  0.7549
 8461SOL    HW231221   4.563   4.258   8.154  0.5748 -0.0143 -0.7332
 8462SOL     OW31222  11.965   2.341  10.533  0.6009 -0.1144  0.4778
 8462SOL    HW131223  11.916   2.294  10.465  1.6740 -0.6442  0.0429
 8462SOL    HW231224  11.912   2.419  10.551 -0.8625 -1.1191  0.7027
 8463SOL     OW31225   7.114   9.434   7.367 -0.1785 -0.8329  0.3960
 8463SOL    HW131226   7.164   9.421   7.287  0.8221  0.8310  0.6965
 8463SOL    HW231227   7.035   9.480   7.340  1.2487  1.8898  0.5679
 8464SOL     OW31228  10.422   1.572   6.222 -0.3829  0.4508  0.0215
 8464SOL    HW131229  10.514   1.578   6.248 -0.2619 -1.0547  0.0453
 8464SOL    HW231230  10.415   1.628   6.145  0.3296  1.3181  0.5664
 8465SOL     OW31231   7.091   9.288   4.683  0.3961  0.5696  0.5951
 8465SOL    HW131232   7.127   9.286   4.594  0.6642 -0.0816  0.7099
 8465SOL    HW231233   7.167   9.281   4.740  0.3243  2.1169  0.9173
 8466SOL     OW31234   1.411  12.283   6.241 -0.0134 -1.0713  0.7552
 8466SOL    HW131235   1.393  12.366   6.196  1.2229 -0.9982  0.3535
 8466SOL    HW231236   1.493  12.299   6.287 -0.5438 -1.6047  1.9088
 8467SOL     OW31237  11.519  11.733   3.327 -0.6854  0.1135  0.0199
 8467SOL    HW131238  11.500  11.645   3.296 -1.4951  0.1530  0.3806
 8467SOL    HW231239  11.434  11.779   3.324 -0.5887  0.4227  1.2731
 8468SOL     OW31240   5.825   5.427   4.081  0.3160 -0.0326  0.1304
 8468SOL    HW131241   5.830   5.392   3.992  0.2056 -0.7695  0.4043
 8468SOL    HW231242   5.732   5.422   4.103  0.3059  0.3986  0.1920
 8469SOL     OW31243   3.257   1.699   6.853  0.2317  0.4458 -0.0282
 8469SOL    HW131244   3.215   1.649   6.924  1.7016 -1.3485 -0.3522
 8469SOL    HW231245   3.307   1.767   6.898  1.6170 -1.0340  0.7605
 8470SOL     OW31246   5.741   4.640   7.699 -0.2085 -0.4431 -0.6753
 8470SOL    HW131247   5.661   4.605   7.738  0.0235  0.1633  0.3917
 8470SOL    HW231248   5.710   4.690   7.623 -0.6394 -1.9247 -1.5145
 8471SOL     OW31249   0.644  11.179   5.905  0.3127 -0.1592  0.3258
 8471SOL    HW131250   0.726  11.145   5.941  1.3244 -0.6791 -2.2255
 8471SOL    HW231251   0.670  11.222   5.823 -1.8807  0.3337 -0.1692
 8472SOL     OW31252   8.493   3.061  11.343  0.0731 -0.6073  0.6092
 8472SOL    HW131253   8.528   3.143  11.306 -0.3032  0.3959  2.3445
 8472SOL    HW231254   8.562   3.030  11.401 -0.4763 -0.5599  1.2957
 8473SOL     OW31255   0.047   5.103   1.053  0.2595  0.0551 -0.2735
 8473SOL    HW131256   0.132   5.126   1.090 -0.1881  3.7318 -1.1821
 8473SOL    HW231257  -0.011   5.095   1.129  1.1704 -1.7765  0.2944
 8474SOL     OW31258   0.012   3.501  12.125  0.0805 -0.3766  0.0693
 8474SOL    HW131259  -0.033   3.488  12.041  0.3369 -0.7584 -0.0112
 8474SOL    HW231260  -0.049   3.554  12.176  0.2114  0.4412 -0.6033
 8475SOL     OW31261   1.311  11.490   3.148 -0.5235  0.0089  0.4874
 8475SOL    HW131262   1.291  11.583   3.152  1.6324  0.5084  3.6775
 8475SOL    HW231263   1.269  11.453   3.226 -0.5433 -1.5277 -0.2105
 8476SOL     OW31264   0.208   9.181   7.321  0.2979  0.1138  0.2191
 8476SOL    HW131265   0.295   9.157   7.288 -0.0554 -0.8772 -0.0226
 8476SOL    HW231266   0.164   9.220   7.245 -0.0684 -0.9884 -0.1451
 8477SOL     OW31267   7.163  11.774   3.456 -0.3563 -0.2619  0.0021
 8477SOL    HW131268   7.137  11.856   3.498 -1.3947  0.0518 -1.1754
 8477SOL    HW231269   7.251  11.757   3.488  0.3188  1.8941 -0.5454
 8478SOL     OW31270   6.986   0.774   2.223 -0.2588 -0.0299 -0.2255
 8478SOL    HW131271   6.943   0.829   2.158 -0.3978 -0.8001 -0.8098
 8478SOL    HW231272   6.937   0.691   2.220  1.2807 -0.9638 -0.9726
 8479SOL     OW31273   5.345   1.968  11.303  0.2510 -0.3900  0.0843
 8479SOL    HW131274   5.436   1.995  11.292 -0.4434  3.3762  1.7504
 8479SOL    HW231275   5.336   1.952  11.397 -1.0100  0.4333  0.1316
 8480SOL     OW31276  12.086   9.646   7.717  0.0963 -0.1132  0.4844
 8480SOL    HW131277  12.151   9.581   7.744  1.1621  1.1195  1.0124
 8480SOL    HW231278  12.127   9.689   7.641 -0.7653 -0.3125 -0.1013
 8481SOL     OW31279   9.873   9.936   0.864  0.1092 -0.0209 -0.7571
 8481SOL    HW131280   9.872   9.850   0.822  1.1340 -0.0757 -0.6893
 8481SOL    HW231281   9.803   9.985   0.820 -1.5896 -1.3778  0.3085
 8482SOL     OW31282   8.529  11.342  10.342 -0.0555 -0.1784 -0.1503
 8482SOL    HW131283   8.519  11.391  10.260  1.1487  1.4361  0.6129
 8482SOL    HW231284   8.520  11.250  10.317 -2.4426  0.3723 -1.6514
 8483SOL     OW31285   4.828   4.962   6.010  0.3459  0.5872  0.2579
 8483SOL    HW131286   4.752   4.932   6.060  1.2986  0.2952  1.5640
 8483SOL    HW231287   4.879   5.014   6.072  0.4473  2.1025 -1.0360
 8484SOL     OW31288   1.210  10.388   7.776  0.3404 -0.0883  0.3487
 8484SOL    HW131289   1.302  10.361   7.774  0.4911  0.4307 -0.9637
 8484SOL    HW231290   1.203  10.445   7.853  1.1667  0.0290  0.3452
 8485SOL     OW31291   8.232  11.602   8.515  0.3045 -0.3585 -0.5202
 8485SOL    HW131292   8.221  11.507   8.522  1.6748 -0.4565  0.5386
 8485SOL    HW231293   8.271  11.628   8.598 -1.0609  1.3040 -0.3494
 8486SOL     OW31294   9.363   3.455  11.256 -0.0280 -0.0443  0.1974
 8486SOL    HW131295   9.443   3.492  11.219  0.4955 -0.3661  0.9766
 8486SOL    HW231296   9.338   3.387  11.193 -0.1302  0.5802 -0.4462
 8487SOL     OW31297  10.136   5.007   6.692 -0.0196 -0.0135 -0.4532
 8487SOL    HW131298  10.158   5.051   6.610  0.6240  0.8572  0.1692
 8487SOL    HW231299  10.107   4.920   6.666 -1.0169  0.6555 -1.6949
 8488SOL     OW31300   5.044   0.595   9.786 -0.0306  0.2476  0.1819
 8488SOL    HW131301   5.051   0.587   9.691  1.2173  2.7387 -0.0141
 8488SOL    HW231302   4.955   0.628   9.801  0.2709  1.2900 -0.2687
 8489SOL     OW31303   8.993  10.404   3.647  0.0843  0.0809  0.0435
 8489SOL    HW131304   8.972  10.313   3.625 -2.3512  0.6441 -0.1784
 8489SOL    HW231305   9.000  10.404   3.743 -0.7126 -0.1857  0.1047
 8490SOL     OW31306  10.047   1.130   7.802 -0.4620  0.1834  0.3896
 8490SOL    HW131307  10.041   1.184   7.881  1.5678  0.9837  0.0478
 8490SOL    HW231308  10.114   1.065   7.823 -0.5144 -0.1260 -0.3833
 8491SOL     OW31309   5.544   1.592   0.911  0.0820 -0.7430 -0.4099
 8491SOL    HW131310   5.500   1.662   0.863 -0.3784 -0.8321 -0.1188
 8491SOL    HW231311   5.473   1.540   0.950  0.4358 -0.8971  0.0453
 8492SOL     OW31312   6.070   5.263   6.082 -0.3953  0.0993  0.3760
 8492SOL    HW131313   6.107   5.238   6.167  1.0050 -0.1767 -0.2701
 8492SOL    HW231314   6.081   5.184   6.028  0.1878  0.7527 -0.4852
 8493SOL     OW31315  11.705   8.792   8.720 -0.0896 -0.0612  0.0153
 8493SOL    HW131316  11.753   8.832   8.792 -1.2558  0.9367  0.2684
 8493SOL    HW231317  11.740   8.703   8.715  0.3201 -0.0183  1.5275
 8494SOL     OW31318   9.703   9.505   3.347 -0.2671 -0.3336 -0.3038
 8494SOL    HW131319   9.640   9.438   3.372 -1.2721  0.8992  0.6550
 8494SOL    HW231320   9.741   9.534   3.430 -0.2866  0.6596 -0.6240
 8495SOL     OW31321  11.480   9.980   8.049 -0.7221 -0.0418 -0.5134
 8495SOL    HW131322  11.384   9.981   8.048 -0.7804  2.0219  1.2060
 8495SOL    HW231323  11.503   9.939   8.132 -0.0842 -0.7892 -1.0475
 8496SOL     OW31324   0.853  11.104   8.987 -0.5763 -0.5416  0.3438
 8496SOL    HW131325   0.806  11.123   8.906 -0.8050 -1.7839  0.1624
 8496SOL    HW231326   0.910  11.030   8.965  1.6037  0.9968  0.5242
 8497SOL     OW31327   6.354   9.810   8.293 -0.2380  0.2999 -0.1962
 8497SOL    HW131328   6.279   9.756   8.319 -0.0779 -0.4531 -1.2128
 8497SOL    HW231329   6.426   9.747   8.283 -0.2935  0.5053 -2.4001
 8498SOL     OW31330   2.447   3.685   6.289 -0.3595  0.6507 -0.1582
 8498SOL    HW131331   2.371   3.698   6.233  0.0879  0.4623 -0.8157
 8498SOL    HW231332   2.443   3.756   6.353 -1.2523  0.4661 -0.0008
 8499SOL     OW31333   5.787   5.072   1.668 -0.1509  0.6658 -0.5269
 8499SOL    HW131334   5.827   5.123   1.597  2.3302  0.0427  0.3173
 8499SOL    HW231335   5.824   5.108   1.748 -2.4302  0.9400  0.4828
 8500SOL     OW31336  10.825   8.912  11.096 -0.0789 -0.1360 -0.4707
 8500SOL    HW131337  10.906   8.944  11.134  0.2641 -1.8875  0.3831
 8500SOL    HW231338  10.809   8.968  11.021  0.2992  2.1676  1.0670
 8501SOL     OW31339   2.275   6.189  10.420  0.0385 -0.3296  0.0978
 8501SOL    HW131340   2.189   6.165  10.455  0.5767 -2.5891  0.0378
 8501SOL    HW231341   2.264   6.190  10.325  0.4219 -2.5332 -0.0412
 8502SOL     OW31342   6.680  11.602   4.125  0.1370 -0.2339  0.0048
 8502SOL    HW131343   6.709  11.516   4.156 -1.3936 -1.0187 -0.6250
 8502SOL    HW231344   6.585  11.594   4.118 -0.2163  1.9497  1.1959
 8503SOL     OW31345   9.440   6.165   5.471 -0.6045 -0.1748  0.0070
 8503SOL    HW131346   9.395   6.120   5.542  1.6438 -1.3975  0.7377
 8503SOL    HW231347   9.467   6.096   5.411  0.8639  0.4071 -0.0544
 8504SOL     OW31348   9.144   7.601  11.468  0.1608  0.2730  0.2375
 8504SOL    HW131349   9.139   7.669  11.401 -0.5073 -0.9244 -0.9769
 8504SOL    HW231350   9.121   7.520  11.422  0.2605 -0.6788  1.7884
 8505SOL     OW31351   6.492   6.143   0.288 -0.2317  0.1519  0.5327
 8505SOL    HW131352   6.510   6.197   0.365  1.7777 -0.4094  0.5152
 8505SOL    HW231353   6.549   6.179   0.220 -0.8423 -0.3381 -0.2648
 8506SOL     OW31354   8.540  11.638   4.092  0.2820 -0.2438  0.3508
 8506SOL    HW131355   8.634  11.627   4.107  0.5428 -0.0677 -0.9727
 8506SOL    HW231356   8.501  11.554   4.118  1.0020 -0.8387 -0.4254
 8507SOL     OW31357   5.795   3.704   7.023  0.4008 -0.1070  0.0212
 8507SOL    HW131358   5.705   3.716   7.051  0.7393  0.9635  0.7276
 8507SOL    HW231359   5.847   3.740   7.095  1.3709 -0.1233 -0.6542
 8508SOL     OW31360   2.913  10.429   1.295 -0.0421 -0.1229 -0.2445
 8508SOL    HW131361   2.976  10.365   1.263 -0.0165  0.4310 -1.3430
 8508SOL    HW231362   2.832  10.409   1.248  0.3116  1.4402 -1.5889
 8509SOL     OW31363   6.155  10.402   3.572  0.1076 -0.6114  0.2780
 8509SOL    HW131364   6.233  10.424   3.522 -0.6353 -0.1532 -0.7198
 8509SOL    HW231365   6.084  10.448   3.527 -0.9949 -2.3055  0.1636
 8510SOL     OW31366   0.581   6.812  11.692 -0.1292  0.5531 -0.2507
 8510SOL    HW131367   0.495   6.843  11.721  0.5683  2.1408  0.2428
 8510SOL    HW231368   0.597   6.859  11.610  0.1117 -0.0483 -0.5584
 8511SOL     OW31369   8.243   1.372  12.328 -0.0907  0.3475  0.0854
 8511SOL    HW131370   8.214   1.460  12.305 -0.9762  0.1114  0.2793
 8511SOL    HW231371   8.163   1.324  12.348  0.4459 -0.2367  0.9286
 8512SOL     OW31372   1.461   5.040   5.808 -0.1941  0.1535  0.0395
 8512SOL    HW131373   1.446   5.131   5.784 -0.1231  0.2809  0.4699
 8512SOL    HW231374   1.397   5.023   5.878  0.2361  0.0734  0.4206
 8513SOL     OW31375   5.555   7.111   6.960  0.1432  0.1865 -0.0517
 8513SOL    HW131376   5.625   7.070   7.010 -1.5180 -2.1051  0.5921
 8513SOL    HW231377   5.591   7.124   6.873  1.6773  0.0857  0.5355
 8514SOL     OW31378  11.950   4.982   6.914 -0.0959 -0.0618 -0.1637
 8514SOL    HW131379  11.862   4.973   6.879  0.3698 -2.6656 -0.8913
 8514SOL    HW231380  12.006   4.987   6.836  0.5117 -0.0227  0.2693
 8515SOL     OW31381   8.333  11.460  10.562  0.3306 -0.3485  0.0852
 8515SOL    HW131382   8.392  11.392  10.530  1.8104  0.1500  1.6518
 8515SOL    HW231383   8.388  11.517  10.615 -1.1488  1.3381 -0.0940
 8516SOL     OW31384   8.797   1.098   3.556 -0.2341 -0.1150 -0.3361
 8516SOL    HW131385   8.766   1.077   3.644 -0.8145 -1.1269 -0.7655
 8516SOL    HW231386   8.717   1.103   3.503  0.0076  1.6029 -0.6025
 8517SOL     OW31387   2.136   3.569  11.688  0.2010  0.2367  0.8595
 8517SOL    HW131388   2.111   3.478  11.702 -0.1634  0.0286 -0.8881
 8517SOL    HW231389   2.231   3.570  11.692  0.2627 -0.4259 -0.0251
 8518SOL     OW31390   2.758  11.682  10.498 -0.1757 -0.0234 -0.0508
 8518SOL    HW131391   2.826  11.701  10.435 -0.4212  0.6099 -0.1293
 8518SOL    HW231392   2.800  11.624  10.562  0.8492  1.4152  0.6540
 8519SOL     OW31393   1.666   7.178   1.204  0.4922 -0.1384  0.3147
 8519SOL    HW131394   1.583   7.147   1.242  0.4452 -1.0348 -0.4682
 8519SOL    HW231395   1.730   7.167   1.274  0.1685 -0.5912  0.5492
 8520SOL     OW31396   3.989   0.068   8.264 -0.4183 -0.0412  0.4853
 8520SOL    HW131397   4.040   0.088   8.342 -0.3402  1.2899  0.1175
 8520SOL    HW231398   4.054   0.035   8.201 -0.1823  0.6518  0.3651
 8521SOL     OW31399   3.674  12.102   7.849  0.5277  0.2660 -0.7339
 8521SOL    HW131400   3.745  12.165   7.860  1.2172 -0.6079 -0.0321
 8521SOL    HW231401   3.603  12.153   7.809  1.1335  1.4293 -0.3773
 8522SOL     OW31402   7.774  11.153   7.869  0.1187 -0.8531 -0.0155
 8522SOL    HW131403   7.696  11.147   7.815 -0.1899  2.1118 -0.0728
 8522SOL    HW231404   7.754  11.100   7.947 -2.0256 -0.0810  0.0291
 8523SOL     OW31405  10.337  10.059   6.086  0.4539 -0.2500  0.2555
 8523SOL    HW131406  10.426  10.052   6.052  0.8286 -0.2815  1.2131
 8523SOL    HW231407  10.295   9.977   6.059  0.5503 -0.0290 -0.6128
 8524SOL     OW31408   2.940   4.096   2.276 -0.3575  0.0935 -0.2439
 8524SOL    HW131409   2.989   4.081   2.195 -0.8483 -2.7042 -0.1296
 8524SOL    HW231410   3.006   4.128   2.338  0.5779 -0.2071 -1.0535
 8525SOL     OW31411   0.936   4.315   2.987 -0.0971 -0.2259  0.2188
 8525SOL    HW131412   0.969   4.245   3.043  1.0819  1.1414  1.3058
 8525SOL    HW231413   1.009   4.336   2.930 -0.0380  0.9031  0.6952
 8526SOL     OW31414  11.351   4.011   5.912  0.5464 -0.5607 -0.5422
 8526SOL    HW131415  11.304   3.952   5.971  0.8508  0.0691  0.3543
 8526SOL    HW231416  11.343   4.097   5.953  2.5107 -0.4322 -0.3125
 8527SOL     OW31417   6.626   1.954   3.140  0.3713 -0.4505  0.1334
 8527SOL    HW131418   6.586   1.867   3.142  1.0037 -0.7767 -1.0061
 8527SOL    HW231419   6.574   2.003   3.076  0.7756 -0.3626 -0.1273
 8528SOL     OW31420   2.792   5.814   0.836 -0.2219  0.7986  0.1641
 8528SOL    HW131421   2.827   5.898   0.865  0.5645  0.3593  0.5153
 8528SOL    HW231422   2.856   5.781   0.773 -1.0583  0.9486 -0.7832
 8529SOL     OW31423   2.987   8.809  10.109 -0.5404 -0.0794 -0.6176
 8529SOL    HW131424   2.928   8.760  10.167 -1.6222  0.9960 -0.7610
 8529SOL    HW231425   3.002   8.751  10.035  1.5836 -1.8570  1.0589
 8530SOL     OW31426   1.847   9.573  10.667  0.1948  0.3801 -0.1531
 8530SOL    HW131427   1.812   9.654  10.631 -2.4919  0.1405  1.6650
 8530SOL    HW231428   1.784   9.506  10.640  0.0152 -0.3599  1.9624
 8531SOL     OW31429   0.141  10.438   8.735  0.2350  0.3706 -0.1749
 8531SOL    HW131430   0.126  10.347   8.760  2.4709 -0.0712 -0.2250
 8531SOL    HW231431   0.117  10.441   8.642  0.5814 -0.2852 -0.2912
 8532SOL     OW31432   2.385  10.583  11.939  0.4437 -0.3921 -0.3046
 8532SOL    HW131433   2.470  10.551  11.908  0.7194  0.1606 -0.1287
 8532SOL    HW231434   2.322  10.520  11.904  0.8436 -0.3280 -1.1745
 8533SOL     OW31435  11.044   3.434  10.157  0.6041  0.1139 -0.2922
 8533SOL    HW131436  11.062   3.409  10.247  0.8145 -0.6256 -0.5295
 8533SOL    HW231437  10.949   3.442  10.153  0.5483 -0.4263 -0.1434
 8534SOL     OW31438   2.464   6.056  11.223 -0.3849  0.0897 -0.5303
 8534SOL    HW131439   2.382   6.062  11.273  0.1664  0.3862  0.3699
 8534SOL    HW231440   2.476   5.962  11.209 -1.0270  0.0631 -0.9235
 8535SOL     OW31441   3.404   0.806   0.159  0.0580 -0.1368  0.7012
 8535SOL    HW131442   3.447   0.739   0.106 -0.4139  0.0737  0.0535
 8535SOL    HW231443   3.473   0.834   0.220  1.1320  0.7934 -0.8634
 8536SOL     OW31444  10.459   2.558   7.223 -0.0254 -0.4748 -0.9517
 8536SOL    HW131445  10.536   2.603   7.257 -0.5889  0.5284 -0.9597
 8536SOL    HW231446  10.494   2.490   7.165  0.9066 -1.1865  0.3775
 8537SOL     OW31447   8.512   5.646   7.434 -0.3955  0.0157  0.6154
 8537SOL    HW131448   8.537   5.647   7.342  0.9172  0.1231  0.9592
 8537SOL    HW231449   8.535   5.734   7.466  1.7465 -0.8613  1.6862
 8538SOL     OW31450   1.623   7.028   7.327  0.2170  0.0687  0.0528
 8538SOL    HW131451   1.633   6.940   7.364 -0.0686 -0.4107 -0.9791
 8538SOL    HW231452   1.535   7.055   7.352 -0.5093 -0.8347 -1.4398
 8539SOL     OW31453   7.467   5.499   4.056  0.4278 -0.0077  0.1961
 8539SOL    HW131454   7.518   5.532   3.982 -1.7014  0.2862 -1.2129
 8539SOL    HW231455   7.500   5.410   4.070  0.9756 -0.0112 -1.0150
 8540SOL     OW31456  10.088   1.280   8.038  0.1156 -0.0317 -0.0546
 8540SOL    HW131457  10.009   1.259   8.087  0.3614  1.9104  1.2527
 8540SOL    HW231458  10.154   1.296   8.105  0.1097  4.1248 -0.8203
 8541SOL     OW31459   6.454  10.042   8.221 -0.0058  0.4322 -0.1785
 8541SOL    HW131460   6.417   9.954   8.229  1.7679 -0.2954  0.7354
 8541SOL    HW231461   6.386  10.100   8.254 -0.8466 -0.7112  0.1544
 8542SOL     OW31462  11.559  11.880   6.127  0.3754  0.0568 -0.4495
 8542SOL    HW131463  11.626  11.868   6.195  1.6572  0.9876 -1.5036
 8542SOL    HW231464  11.496  11.810   6.143 -0.5033  1.3836  2.9962
 8543SOL     OW31465   2.224   2.205   2.397  0.5321 -0.0783 -0.2640
 8543SOL    HW131466   2.257   2.280   2.348  0.7569  0.2097  0.3206
 8543SOL    HW231467   2.129   2.217   2.399  0.6984  1.4992  1.8590
 8544SOL     OW31468  10.644   3.309   0.108  0.1503  0.4787 -0.1367
 8544SOL    HW131469  10.622   3.277   0.195 -0.2386  0.1916 -0.3394
 8544SOL    HW231470  10.653   3.404   0.119  1.1173  0.3355  0.4241
 8545SOL     OW31471   0.989   2.461   9.294  0.1244  0.1405  0.2850
 8545SOL    HW131472   1.064   2.485   9.239 -0.0110 -2.1617 -1.0322
 8545SOL    HW231473   1.025   2.395   9.354 -0.4376  0.3837  0.8896
 8546SOL     OW31474   0.200   0.226   3.671  0.6036 -1.0200 -0.0480
 8546SOL    HW131475   0.224   0.305   3.622  0.9797 -0.9545  0.2429
 8546SOL    HW231476   0.283   0.189   3.700  0.4555 -1.6942 -0.4377
 8547SOL     OW31477   6.805   2.023  10.083 -0.3621  0.3050  0.4746
 8547SOL    HW131478   6.749   1.956  10.044 -0.2665 -0.2134  1.2129
 8547SOL    HW231479   6.893   2.004  10.050 -0.6083  1.1642 -0.7438
 8548SOL     OW31480   5.054   2.743   3.185  0.8680  0.0176  0.0321
 8548SOL    HW131481   5.013   2.828   3.170  1.0884 -0.2532 -2.7111
 8548SOL    HW231482   5.119   2.758   3.253  1.7313  2.3382 -1.2161
 8549SOL     OW31483   4.051   2.773   9.178  0.2454 -0.3968  0.0913
 8549SOL    HW131484   4.115   2.843   9.167  0.2693 -0.2168  1.2808
 8549SOL    HW231485   3.970   2.818   9.201 -0.5631 -0.5606 -2.1436
 8550SOL     OW31486   1.169   5.537   4.327 -0.4703  0.1722 -0.4790
 8550SOL    HW131487   1.078   5.536   4.355  0.4044  0.5724  2.8443
 8550SOL    HW231488   1.202   5.622   4.355  1.0697 -0.1661 -1.1415
 8551SOL     OW31489   4.176  11.245   7.041  0.7051  0.3819  0.5134
 8551SOL    HW131490   4.094  11.272   7.000  0.1587  1.0491  1.9797
 8551SOL    HW231491   4.210  11.176   6.983 -2.0146 -1.5413  1.0351
 8552SOL     OW31492   2.121  12.294  11.200 -0.0695 -0.1313 -0.3691
 8552SOL    HW131493   2.172  12.366  11.236 -0.9040  0.0294  0.5200
 8552SOL    HW231494   2.161  12.277  11.114  0.9216  0.5457 -0.0548
 8553SOL     OW31495  10.765  11.129  10.864  0.2043  0.4610 -0.5129
 8553SOL    HW131496  10.777  11.185  10.787  0.8042 -1.5298 -1.9473
 8553SOL    HW231497  10.842  11.146  10.918  0.0445  1.4880 -0.5775
 8554SOL     OW31498   7.395  11.994   9.544  0.1333  0.1633  0.2237
 8554SOL    HW131499   7.354  12.046   9.613 -0.6719  1.6100 -1.2892
 8554SOL    HW231500   7.480  12.035   9.530  0.2856 -0.1137  0.3138
 8555SOL     OW31501   1.099   9.874   1.136  0.0057  0.5633  0.1757
 8555SOL    HW131502   1.193   9.861   1.146  0.1127  0.5877 -0.6897
 8555SOL    HW231503   1.060   9.806   1.191  0.5514 -0.7862 -1.0181
 8556SOL     OW31504   3.400   1.066   6.789 -0.6546 -0.4206 -0.3899
 8556SOL    HW131505   3.430   1.009   6.718  0.4252  1.8558 -1.8792
 8556SOL    HW231506   3.305   1.050   6.794 -1.4188  1.4825 -4.5711
 8557SOL     OW31507   7.860   7.405   0.069 -0.5742  0.3052 -0.3173
 8557SOL    HW131508   7.825   7.443   0.149 -0.5366  0.5794 -0.4273
 8557SOL    HW231509   7.884   7.316   0.093  0.6624  0.7859  0.3349
 8558SOL     OW31510   8.115   8.902   5.393  0.4623  0.1052 -0.4699
 8558SOL    HW131511   8.064   8.906   5.312 -1.2927 -1.5241  0.4678
 8558SOL    HW231512   8.135   8.993   5.413  1.9263  0.5018 -3.2652
 8559SOL     OW31513   8.282  11.760   5.657 -0.2176  0.2702  0.0889
 8559SOL    HW131514   8.263  11.853   5.667 -0.8085  0.1210  0.3948
 8559SOL    HW231515   8.201  11.722   5.625 -0.2570 -0.2754  0.7944
 8560SOL     OW31516  10.836  10.992   4.341 -0.3471 -0.4248  0.1145
 8560SOL    HW131517  10.840  10.905   4.303 -2.6162 -0.3751 -0.3855
 8560SOL    HW231518  10.920  11.032   4.319 -0.3366 -1.5128 -2.1233
 8561SOL     OW31519   4.212   1.040   1.302 -0.2285  0.3015  0.0395
 8561SOL    HW131520   4.287   1.079   1.258 -0.3641 -1.1475 -1.5712
 8561SOL    HW231521   4.249   0.997   1.379  0.6100 -0.4595 -0.7766
 8562SOL     OW31522   9.364   5.647   5.903 -0.2021 -1.1361  0.4115
 8562SOL    HW131523   9.438   5.702   5.927 -0.4854 -0.2399 -0.6861
 8562SOL    HW231524   9.383   5.620   5.813 -1.5268 -0.3083 -0.1455
 8563SOL     OW31525   2.949   3.526   4.798  0.1525 -0.1317 -0.3441
 8563SOL    HW131526   2.892   3.470   4.852  0.3712 -1.5139 -1.4936
 8563SOL    HW231527   3.036   3.488   4.808  0.5373  0.7765 -0.1662
 8564SOL     OW31528   9.889   4.998   1.608 -0.1988 -0.3740 -0.0934
 8564SOL    HW131529   9.808   5.036   1.574 -0.7281  0.6722  2.1331
 8564SOL    HW231530   9.861   4.927   1.666  0.3211  0.6672  1.5373
 8565SOL     OW31531   7.136   9.452   8.636 -0.0007 -1.2241 -0.0678
 8565SOL    HW131532   7.125   9.369   8.682 -1.8546 -0.5673  0.8099
 8565SOL    HW231533   7.075   9.511   8.680  0.0832  0.1656 -1.7200
 8566SOL     OW31534   2.800   9.831   3.283  0.2490 -0.3248 -0.0628
 8566SOL    HW131535   2.888   9.847   3.317  0.2499  0.1324 -0.2726
 8566SOL    HW231536   2.812   9.826   3.188  0.1590 -1.0066 -0.0406
 8567SOL     OW31537   5.753   0.174   6.808  0.0246  0.0229 -0.1269
 8567SOL    HW131538   5.732   0.267   6.802 -2.0974 -0.3571  0.6120
 8567SOL    HW231539   5.835   0.165   6.760  0.2981  2.2666 -0.1899
 8568SOL     OW31540   2.565   1.552   9.677  0.1392 -0.1153  0.1381
 8568SOL    HW131541   2.589   1.631   9.726  0.5410  0.2967 -0.6967
 8568SOL    HW231542   2.616   1.558   9.596 -0.3237 -0.9058 -0.2231
 8569SOL     OW31543   5.593   4.717   3.293 -0.1853 -0.1818  0.2950
 8569SOL    HW131544   5.525   4.724   3.359  0.3003  0.7715  0.7096
 8569SOL    HW231545   5.552   4.745   3.211 -0.3736  0.1003  0.4870
 8570SOL     OW31546   4.257   8.456   4.525  0.5699 -0.2534  0.6865
 8570SOL    HW131547   4.171   8.474   4.564 -0.0540 -0.8350 -0.3685
 8570SOL    HW231548   4.302   8.403   4.590 -0.2126 -0.7043  0.8788
 8571SOL     OW31549   2.876   6.154   2.054 -0.6635  0.5219  0.0352
 8571SOL    HW131550   2.887   6.121   2.143 -0.8442 -1.0103 -0.4849
 8571SOL    HW231551   2.792   6.200   2.056 -0.4261  0.9399  0.7685
 8572SOL     OW31552   6.640   7.066   1.472  0.0086  0.7922  0.0656
 8572SOL    HW131553   6.643   7.115   1.389 -0.6034  2.0704  0.7648
 8572SOL    HW231554   6.581   6.993   1.454 -0.0790  1.0279 -0.6407
 8573SOL     OW31555   0.722   8.792   4.128 -0.2819 -0.7224  0.0155
 8573SOL    HW131556   0.662   8.788   4.203 -1.3282 -3.2338 -0.8755
 8573SOL    HW231557   0.802   8.750   4.159 -0.1987 -0.4641  0.1536
 8574SOL     OW31558  10.931  11.545  11.404  0.4640 -0.1802 -0.3627
 8574SOL    HW131559  10.942  11.577  11.494 -1.1404  0.7170 -0.4407
 8574SOL    HW231560  10.917  11.624  11.352  1.8100 -0.6586 -1.5081
 8575SOL     OW31561  10.870   6.784   6.717 -0.4461 -0.3347 -0.5549
 8575SOL    HW131562  10.898   6.738   6.796 -1.8263 -1.4335 -0.6687
 8575SOL    HW231563  10.885   6.721   6.647  0.2547  0.4354 -1.1182
 8576SOL     OW31564   0.445   2.996  11.948 -0.2834 -0.1733  0.0573
 8576SOL    HW131565   0.394   3.059  11.897 -0.6530 -0.5190 -0.0029
 8576SOL    HW231566   0.462   3.041  12.031  1.2391  0.8064 -0.7547
 8577SOL     OW31567   4.013   3.175   3.770  0.1237 -0.0512 -0.1125
 8577SOL    HW131568   4.093   3.156   3.721  2.5009  0.8719  3.1013
 8577SOL    HW231569   4.007   3.103   3.834 -2.6204 -0.9846 -1.2584
 8578SOL     OW31570   6.519   5.174   7.047 -0.1026 -0.2901 -0.5844
 8578SOL    HW131571   6.475   5.164   7.132  0.3036 -0.3564 -0.3805
 8578SOL    HW231572   6.539   5.268   7.042 -0.7000 -0.1726 -0.8965
 8579SOL     OW31573   8.412   7.283  11.129  0.2535  0.6360 -0.1503
 8579SOL    HW131574   8.455   7.342  11.067  1.7458  0.1705  0.3861
 8579SOL    HW231575   8.472   7.280  11.204 -0.2924 -0.7529  0.2600
 8580SOL     OW31576  10.889   1.776   5.513  0.3766 -0.1197  0.1928
 8580SOL    HW131577  10.921   1.689   5.537 -0.6201 -0.0360  1.9689
 8580SOL    HW231578  10.812   1.759   5.459  0.2688 -0.3465  0.4153
 8581SOL     OW31579   3.704  11.576   0.087 -0.0167 -0.7823 -0.0674
 8581SOL    HW131580   3.682  11.507   0.150  0.2193  0.8664  1.9394
 8581SOL    HW231581   3.789  11.608   0.116 -0.7926  1.3473  0.0151
 8582SOL     OW31582   7.482   8.645  11.775  0.3052  1.3179 -0.0966
 8582SOL    HW131583   7.432   8.725  11.788  0.9509  1.6631  0.3291
 8582SOL    HW231584   7.484   8.603  11.861  0.9246  1.4224 -0.0519
 8583SOL     OW31585   3.571   2.579   7.988 -0.5101 -0.3236  0.2322
 8583SOL    HW131586   3.591   2.672   7.998 -0.0451 -0.4281  0.3073
 8583SOL    HW231587   3.513   2.559   8.062 -0.2294 -0.1964  0.4935
 8584SOL     OW31588   4.570   3.039   5.660 -0.1634 -0.3557 -0.3437
 8584SOL    HW131589   4.521   3.113   5.626 -1.0573 -0.2092  1.1665
 8584SOL    HW231590   4.517   3.007   5.733  2.2019  0.1381  1.7321
 8585SOL     OW31591   1.375   9.465   1.406  1.2249  0.3270 -0.0390
 8585SOL    HW131592   1.328   9.382   1.396  0.7512  0.5812  0.0723
 8585SOL    HW231593   1.462   9.440   1.439  0.3439  0.0397  2.1836
 8586SOL     OW31594   3.987   7.199   2.892 -0.2585 -0.2168 -0.1764
 8586SOL    HW131595   4.046   7.219   2.964  0.0344  1.3024 -0.7963
 8586SOL    HW231596   3.945   7.116   2.917  1.0291 -0.5554  0.9550
 8587SOL     OW31597   4.674   5.354   2.219  0.0002 -0.0971 -0.2280
 8587SOL    HW131598   4.740   5.285   2.227  0.4311  0.3445  0.0837
 8587SOL    HW231599   4.714   5.419   2.162 -0.1482  0.1890 -0.0121
 8588SOL     OW31600   3.311  11.043   2.441  0.1814 -0.3828  0.3319
 8588SOL    HW131601   3.293  10.955   2.407 -0.8365 -0.2367  0.4608
 8588SOL    HW231602   3.245  11.099   2.400  0.8835  0.3405  0.1783
 8589SOL     OW31603   5.981  11.813  10.836  0.0234 -0.2096 -0.4155
 8589SOL    HW131604   5.989  11.876  10.908  0.1951  0.9127 -1.3924
 8589SOL    HW231605   5.992  11.865  10.757 -1.0381 -1.2748 -1.3039
 8590SOL     OW31606  12.229   2.217   5.022 -0.1065  0.4738 -0.2314
 8590SOL    HW131607  12.248   2.169   5.102  0.7773  0.6200 -0.3399
 8590SOL    HW231608  12.138   2.245   5.031  0.0033  0.5333  0.7320
 8591SOL     OW31609   7.792  11.658   3.397  0.2662  0.4484 -0.0763
 8591SOL    HW131610   7.760  11.664   3.487  1.3076 -0.4539  0.3797
 8591SOL    HW231611   7.770  11.742   3.358 -0.0996  0.8980  1.0619
 8592SOL     OW31612   5.610  10.115   8.759  0.0147 -0.8269  0.1693
 8592SOL    HW131613   5.575  10.027   8.769  3.0686 -2.2287 -0.1780
 8592SOL    HW231614   5.644  10.137   8.846  2.2909 -1.5295 -0.4657
 8593SOL     OW31615   6.030  10.590   0.243 -0.2153 -0.3377  0.1972
 8593SOL    HW131616   6.043  10.564   0.152 -0.3476 -0.3212  0.1728
 8593SOL    HW231617   6.021  10.686   0.239  2.0416 -0.0618  0.4858
 8594SOL     OW31618  10.304   3.376  11.063  0.2736  0.0838 -0.0635
 8594SOL    HW131619  10.220   3.415  11.087  0.9370  1.8446 -0.4537
 8594SOL    HW231620  10.329   3.324  11.139 -0.5935  0.4904  0.5165
 8595SOL     OW31621   0.487   1.696   4.722  0.1264  0.3412 -0.3555
 8595SOL    HW131622   0.555   1.673   4.785 -0.6513 -0.7276  0.1246
 8595SOL    HW231623   0.507   1.643   4.645  0.3071  0.6572 -0.5307
 8596SOL     OW31624   8.615  10.773  10.024 -0.4564  0.5304  0.1026
 8596SOL    HW131625   8.574  10.689  10.006 -2.2718  1.1111  1.2094
 8596SOL    HW231626   8.704  10.752  10.052 -0.6461 -0.9564 -0.3679
 8597SOL     OW31627   3.426   6.776   5.197  0.1080 -0.0826 -0.4361
 8597SOL    HW131628   3.521   6.775   5.212  0.4560 -1.0111 -2.3175
 8597SOL    HW231629   3.389   6.730   5.272  1.3092 -1.1576 -0.4709
 8598SOL     OW31630   4.584   8.279   8.279  0.3521  0.0228 -0.5213
 8598SOL    HW131631   4.664   8.311   8.235  0.8768  0.2696  0.5689
 8598SOL    HW231632   4.562   8.348   8.341 -1.7604  0.7814 -1.9911
 8599SOL     OW31633   4.749   3.643   2.506  0.1188 -0.0173 -0.0295
 8599SOL    HW131634   4.760   3.670   2.414 -1.0105  0.8754  0.0771
 8599SOL    HW231635   4.797   3.710   2.556 -1.0316  0.7358  0.1223
 8600SOL     OW31636   8.996  10.723  11.104 -0.3645 -0.2089 -0.5868
 8600SOL    HW131637   8.911  10.757  11.132 -0.9380 -1.1248 -1.1621
 8600SOL    HW231638   9.001  10.637  11.144  0.4633 -0.0167 -0.2624
 8601SOL     OW31639   5.632   0.502  11.758  0.1474  0.0348  0.0661
 8601SOL    HW131640   5.555   0.557  11.771 -0.0487 -0.0691 -0.6614
 8601SOL    HW231641   5.605   0.436  11.694  0.5003 -0.6782  0.6272
 8602SOL     OW31642  10.916   0.291  10.381 -0.3873 -0.1305  0.4117
 8602SOL    HW131643  10.981   0.362  10.384 -0.4906 -0.0503  0.8012
 8602SOL    HW231644  10.851   0.316  10.446  0.8798 -1.8549  2.4553
 8603SOL     OW31645   2.980   1.719   2.757 -0.4447  0.5988 -0.2097
 8603SOL    HW131646   2.920   1.735   2.685  0.6429  1.1365 -1.0315
 8603SOL    HW231647   3.055   1.674   2.717  0.5587  1.6648  0.3935
 8604SOL     OW31648   4.782   0.569   7.021  0.3881 -0.4368 -0.2225
 8604SOL    HW131649   4.815   0.545   7.107  0.0952 -0.2495 -0.0560
 8604SOL    HW231650   4.687   0.578   7.033  0.5395  1.4772 -0.1139
 8605SOL     OW31651   8.451   4.474   2.749 -0.3694 -0.6438  0.3033
 8605SOL    HW131652   8.432   4.539   2.817  2.0764 -0.4354  0.8861
 8605SOL    HW231653   8.373   4.474   2.693 -1.6979  0.5087  2.0549
 8606SOL     OW31654   4.297   6.642  11.701 -0.5914  0.5331 -0.9286
 8606SOL    HW131655   4.367   6.708  11.702  0.7674 -0.8372 -1.4053
 8606SOL    HW231656   4.223   6.685  11.744  0.7506  1.8343  0.2074
 8607SOL     OW31657  10.311   2.893  11.074  0.1105 -0.2175 -0.1965
 8607SOL    HW131658  10.337   2.811  11.117 -1.6869 -1.3290 -1.1132
 8607SOL    HW231659  10.302   2.870  10.982 -0.6044  0.9758 -0.4421
 8608SOL     OW31660  12.016  10.308   4.170 -0.2749  0.6248  0.1299
 8608SOL    HW131661  12.092  10.348   4.126 -0.5444  0.1170 -0.8365
 8608SOL    HW231662  11.992  10.370   4.239  1.3561  0.5327  0.8201
 8609SOL     OW31663   9.510   3.341   9.273  0.0369 -0.2880  0.2508
 8609SOL    HW131664   9.579   3.323   9.209  0.2304  0.8823  0.1137
 8609SOL    HW231665   9.439   3.282   9.248  1.5315 -2.7018  1.3768
 8610SOL     OW31666   7.514   6.944   8.291  0.0944  0.3220 -0.4418
 8610SOL    HW131667   7.454   6.878   8.258 -3.0944  3.3741 -1.3206
 8610SOL    HW231668   7.521   7.009   8.221 -0.9563  3.3253  1.9874
 8611SOL     OW31669   0.089   2.507   6.357  0.3212 -0.7668  0.0475
 8611SOL    HW131670   0.093   2.507   6.261 -1.1021  1.1187 -0.0654
 8611SOL    HW231671   0.166   2.558   6.384 -0.2903  0.3153 -0.2026
 8612SOL     OW31672   5.542   6.717   3.063 -0.8759 -0.3907  0.4425
 8612SOL    HW131673   5.464   6.726   3.117  0.1589  1.9250  1.7431
 8612SOL    HW231674   5.615   6.728   3.124  0.3886  1.0639 -1.2015
 8613SOL     OW31675   8.981   4.122   0.394 -0.0190  1.0790 -0.0221
 8613SOL    HW131676   8.912   4.056   0.408  0.3091  0.3821 -1.5552
 8613SOL    HW231677   8.967   4.185   0.465 -0.8081 -0.2354  1.0510
 8614SOL     OW31678   8.117   6.844   2.847  0.2433 -0.1552  0.2093
 8614SOL    HW131679   8.119   6.785   2.771  1.3852  0.9966 -0.7084
 8614SOL    HW231680   8.026   6.843   2.875  0.0941 -1.7627 -0.2455
 8615SOL     OW31681  11.682   6.404   4.784 -0.1386  0.1057  0.2220
 8615SOL    HW131682  11.599   6.390   4.738 -0.7704 -0.0026  1.3633
 8615SOL    HW231683  11.661   6.391   4.876  1.1144  0.2689  0.5481
 8616SOL     OW31684   2.287   8.282   6.286 -0.0935 -0.3660 -0.3532
 8616SOL    HW131685   2.277   8.187   6.277  1.8266 -0.4989 -2.0847
 8616SOL    HW231686   2.324   8.310   6.202 -1.3664  2.0688 -0.1986
 8617SOL     OW31687   4.496  12.069   7.303 -0.6218  0.3185 -0.4879
 8617SOL    HW131688   4.563  12.113   7.251 -0.4418  0.1206 -0.4237
 8617SOL    HW231689   4.517  12.092   7.393  0.2584 -0.9597 -0.3467
 8618SOL     OW31690   9.202   8.979   8.176 -0.0992 -0.5013  0.5838
 8618SOL    HW131691   9.144   8.983   8.100 -0.7618 -1.9208  0.9832
 8618SOL    HW231692   9.181   9.058   8.226 -0.6921 -0.2927  0.0237
 8619SOL     OW31693   7.520   1.496   9.321 -0.1069  0.2913 -0.0108
 8619SOL    HW131694   7.533   1.559   9.392 -1.1990  1.0722 -0.4672
 8619SOL    HW231695   7.591   1.514   9.259  0.5214 -0.0170  0.6179
 8620SOL     OW31696   5.333   0.541   9.461  0.1947 -0.1679 -0.3276
 8620SOL    HW131697   5.299   0.461   9.420  0.1350 -0.7626  0.8406
 8620SOL    HW231698   5.380   0.510   9.538 -1.2570  0.9983  1.1063
 8621SOL     OW31699   5.072   4.830   4.293 -0.3684  0.1836  0.2229
 8621SOL    HW131700   5.081   4.925   4.282 -1.4446  0.3085  0.3133
 8621SOL    HW231701   4.986   4.819   4.334 -1.1941 -0.9669 -1.7125
 8622SOL     OW31702   7.300   8.831   3.156 -0.0613  0.3609  0.1430
 8622SOL    HW131703   7.223   8.845   3.212  1.0040  0.0648  1.7591
 8622SOL    HW231704   7.367   8.888   3.194  0.1176  1.8805 -2.2252
 8623SOL     OW31705  11.816   9.214   8.383 -0.3917  0.2193  0.5868
 8623SOL    HW131706  11.827   9.119   8.386  0.3401  0.3082  1.2795
 8623SOL    HW231707  11.799   9.239   8.474  1.2225  0.9203  0.7451
 8624SOL     OW31708   5.061  12.180   2.652 -0.6380 -0.1758  0.2337
 8624SOL    HW131709   5.049  12.132   2.570  0.3209 -1.5100  0.8457
 8624SOL    HW231710   5.068  12.112   2.719 -1.0619  0.8810  1.3923
 8625SOL     OW31711  10.692   8.954   4.826 -0.2546 -0.4102  0.5048
 8625SOL    HW131712  10.782   8.959   4.858  0.4290 -0.7366 -1.2436
 8625SOL    HW231713  10.679   9.037   4.780  0.2094 -1.4924 -1.7200
 8626SOL     OW31714   6.345   6.089  10.478 -0.3264 -0.1519 -0.2571
 8626SOL    HW131715   6.401   6.167  10.476 -0.9041  0.2987  0.3890
 8626SOL    HW231716   6.266   6.118  10.523 -0.6994 -1.0253 -0.3278
 8627SOL     OW31717   1.604   0.226   8.299 -0.5856  0.4020  0.0900
 8627SOL    HW131718   1.648   0.166   8.359  3.1861  1.6974 -1.1180
 8627SOL    HW231719   1.587   0.173   8.221 -2.3067 -0.3844  0.9476
 8628SOL     OW31720   5.645   0.892   1.675 -1.1388 -0.1852 -0.3437
 8628SOL    HW131721   5.703   0.957   1.634 -1.1842 -0.2377 -0.4930
 8628SOL    HW231722   5.599   0.851   1.602 -0.3102 -1.1525 -0.3400
 8629SOL     OW31723   6.321   8.633   2.923 -0.2421  0.3511 -0.2526
 8629SOL    HW131724   6.370   8.659   2.845 -0.4573  1.9732  0.1183
 8629SOL    HW231725   6.351   8.692   2.992  0.4101 -1.4606  1.1032
 8630SOL     OW31726   0.713   6.541   6.535  0.1537 -0.1910  0.0579
 8630SOL    HW131727   0.777   6.509   6.599  0.8092 -0.4891 -0.7285
 8630SOL    HW231728   0.736   6.632   6.521  0.2646 -0.2385 -0.0641
 8631SOL     OW31729   5.861  11.050   9.989  0.1632 -0.1187 -0.0285
 8631SOL    HW131730   5.768  11.035   9.971  0.3792 -0.3809 -0.9780
 8631SOL    HW231731   5.862  11.085  10.078 -0.7926 -0.6667  0.2153
 8632SOL     OW31732   6.701   7.125   9.091  0.7880 -0.1026 -0.2517
 8632SOL    HW131733   6.756   7.169   9.156 -0.2620 -0.6922  1.0899
 8632SOL    HW231734   6.645   7.195   9.056 -1.1281 -0.2818  2.1261
 8633SOL     OW31735   3.043   1.178   4.975  0.0268 -0.5856  0.1360
 8633SOL    HW131736   3.018   1.151   4.887 -1.8353  1.8295 -0.1960
 8633SOL    HW231737   2.989   1.126   5.033  0.0263 -1.0019 -0.2356
 8634SOL     OW31738   9.708   1.366   2.389  0.1987  0.7580  0.1557
 8634SOL    HW131739   9.700   1.448   2.438  2.7945  1.6597 -0.7723
 8634SOL    HW231740   9.743   1.303   2.452 -0.6377  0.6563  0.5419
 8635SOL     OW31741   5.449  11.310   0.570 -0.4813  0.0166  0.0362
 8635SOL    HW131742   5.445  11.246   0.499  0.0743  0.7283 -0.6592
 8635SOL    HW231743   5.456  11.394   0.525 -1.3820  0.5848  0.9282
 8636SOL     OW31744   9.940   7.590   0.488 -0.1897 -0.1330  0.0692
 8636SOL    HW131745   9.983   7.507   0.466 -0.3566  0.1171 -1.3271
 8636SOL    HW231746  10.007   7.641   0.533  0.0454 -0.8667  0.5693
 8637SOL     OW31747  11.017   8.907  10.623 -0.5788 -0.7138  0.2143
 8637SOL    HW131748  11.060   8.848  10.562 -1.6379 -0.1903 -1.0801
 8637SOL    HW231749  10.998   8.852  10.699 -0.8049 -1.8431 -0.6312
 8638SOL     OW31750   6.210   0.848   9.907  0.1363  0.2664 -0.2232
 8638SOL    HW131751   6.153   0.791   9.959 -0.7233 -0.9932 -2.4265
 8638SOL    HW231752   6.288   0.795   9.891  0.1920  0.4728 -0.6265
 8639SOL     OW31753   0.127   6.463  10.422  0.3666 -0.3769 -0.0913
 8639SOL    HW131754   0.144   6.550  10.386 -1.3971  0.1738  0.3341
 8639SOL    HW231755   0.102   6.478  10.513 -1.0037 -1.2216 -0.3093
 8640SOL     OW31756   6.404   5.159  12.209  0.6001  0.6029  0.4380
 8640SOL    HW131757   6.439   5.075  12.180 -3.0716 -0.8357 -0.3793
 8640SOL    HW231758   6.427   5.220  12.139  2.1502 -0.0057  0.3876
 8641SOL     OW31759  10.444   7.796   7.181  0.3477  0.0122 -0.0472
 8641SOL    HW131760  10.423   7.884   7.151 -4.0366 -0.2733  1.5598
 8641SOL    HW231761  10.471   7.807   7.272  2.5061 -0.1893 -0.5895
 8642SOL     OW31762   9.283  10.838   2.157 -0.1664 -0.1773  0.4109
 8642SOL    HW131763   9.194  10.857   2.124 -0.4325 -2.0308 -0.0653
 8642SOL    HW231764   9.269  10.780   2.231  0.6058  1.0883  1.5822
 8643SOL     OW31765   8.236   1.006   0.615  0.3940 -0.0265 -0.1842
 8643SOL    HW131766   8.304   1.027   0.679  0.7335  0.4234 -0.6829
 8643SOL    HW231767   8.205   1.091   0.583 -0.5148 -0.2166  0.1406
 8644SOL     OW31768  12.248   1.961   7.578  0.0693  0.4078  0.5245
 8644SOL    HW131769  12.272   1.897   7.646 -0.0226  0.4366  0.5842
 8644SOL    HW231770  12.274   2.046   7.615  1.6746  0.2681 -0.2155
 8645SOL     OW31771   1.836   1.779  12.077  0.0719  0.4501  0.4243
 8645SOL    HW131772   1.891   1.835  12.131 -0.3791  1.9019 -0.5774
 8645SOL    HW231773   1.753   1.774  12.124  0.2520  0.2597  0.7263
 8646SOL     OW31774   2.852   2.018   3.287 -0.0717  0.2412  0.0804
 8646SOL    HW131775   2.785   1.995   3.223  0.0735  0.2252 -0.0687
 8646SOL    HW231776   2.911   2.076   3.239  1.1919 -1.3963 -0.4392
 8647SOL     OW31777   6.185   0.959  12.049  0.1500 -0.5647  0.0351
 8647SOL    HW131778   6.113   0.908  12.012 -1.5264  1.7393 -0.1183
 8647SOL    HW231779   6.200   1.029  11.985  1.3546  0.0000  0.8998
 8648SOL     OW31780  12.123   6.113   1.622  0.1273  0.1803 -0.1878
 8648SOL    HW131781  12.203   6.078   1.583  0.5072  0.7529  0.0732
 8648SOL    HW231782  12.063   6.123   1.548  0.8782  1.3598 -0.6686
 8649SOL     OW31783   5.957   1.411   0.422  0.0755  0.3045 -0.0687
 8649SOL    HW131784   5.927   1.457   0.343 -0.7381 -1.3683 -0.7778
 8649SOL    HW231785   6.010   1.476   0.469  0.9824  1.2212 -2.2123
 8650SOL     OW31786   1.065   8.804   4.827 -0.2043 -0.5260 -0.3399
 8650SOL    HW131787   1.151   8.809   4.868 -0.7605  0.7807  0.7913
 8650SOL    HW231788   1.080   8.825   4.735  0.5393  1.0442  0.1026
 8651SOL     OW31789  10.992  11.734   6.762  0.7232  0.3288  0.2133
 8651SOL    HW131790  10.978  11.666   6.697  0.2204 -0.4433  1.1020
 8651SOL    HW231791  10.904  11.765   6.785  0.9313  1.0966  0.0227
 8652SOL     OW31792  10.798  10.081   2.952  0.2355 -0.0457  0.0381
 8652SOL    HW131793  10.800   9.989   2.924  1.1205 -0.1052  0.2798
 8652SOL    HW231794  10.705  10.103   2.953 -0.0951 -1.3462  1.2797
 8653SOL     OW31795   7.758   4.259   7.421  0.1197 -0.1567 -0.6515
 8653SOL    HW131796   7.738   4.189   7.358 -2.0752  0.1379 -0.3430
 8653SOL    HW231797   7.704   4.333   7.394 -0.0266  0.3513  0.9208
 8654SOL     OW31798   8.921   8.627   0.445 -0.3964 -0.2518  0.1751
 8654SOL    HW131799   8.954   8.641   0.357 -0.1639 -0.2362  0.2651
 8654SOL    HW231800   8.862   8.701   0.461  1.0701  0.8164  0.7747
 8655SOL     OW31801   9.441   3.420   4.309 -0.0368 -0.3673  0.0301
 8655SOL    HW131802   9.470   3.456   4.393 -1.0885  0.1800  0.1762
 8655SOL    HW231803   9.522   3.404   4.261  0.5227  1.0587  0.4367
 8656SOL     OW31804   0.921   0.424  11.238  0.3910  0.1376 -0.5638
 8656SOL    HW131805   0.946   0.365  11.310 -0.3882  0.9902  0.4301
 8656SOL    HW231806   0.992   0.415  11.174 -0.2835 -2.8248 -1.0603
 8657SOL     OW31807   0.460   2.937  11.402 -0.2284 -0.3287  0.0707
 8657SOL    HW131808   0.375   2.978  11.394 -0.4771 -0.7051  0.7467
 8657SOL    HW231809   0.522   3.001  11.366 -0.5502  0.8110  1.4901
 8658SOL     OW31810  10.103   8.856   3.269  0.3441 -0.7766 -0.2750
 8658SOL    HW131811  10.101   8.921   3.199  1.9839 -0.9297 -0.5058
 8658SOL    HW231812  10.029   8.879   3.326  1.2069  1.6661 -0.0227
 8659SOL     OW31813   5.591   0.329  11.528  0.5414 -0.0416  0.2133
 8659SOL    HW131814   5.650   0.298  11.459  0.3275 -0.1321  0.0703
 8659SOL    HW231815   5.609   0.271  11.602  0.0578 -0.5864 -0.0923
 8660SOL     OW31816   9.163   0.599   3.473  0.9671 -0.0641  0.4116
 8660SOL    HW131817   9.232   0.628   3.412  0.4298 -1.4082 -0.8974
 8660SOL    HW231818   9.211   0.561   3.546  1.6231  0.8791  0.4941
 8661SOL     OW31819   8.580   5.770   5.482  0.2244  0.2381  0.5832
 8661SOL    HW131820   8.622   5.774   5.568  0.1325  0.7269  0.6112
 8661SOL    HW231821   8.487   5.758   5.501  0.0731  1.2880  0.5923
 8662SOL     OW31822   6.929   5.900  10.148 -0.0435 -0.2370 -0.0873
 8662SOL    HW131823   6.912   5.912  10.241 -0.4877 -0.0165 -0.1962
 8662SOL    HW231824   7.004   5.957  10.130 -0.4412  0.3116 -0.0279
 8663SOL     OW31825   1.486   4.001   2.084 -0.0940  0.2682 -0.3510
 8663SOL    HW131826   1.418   4.050   2.130 -1.3597 -2.3853  0.8178
 8663SOL    HW231827   1.445   3.975   2.001 -0.0860 -0.2942 -0.1835
 8664SOL     OW31828   9.349   0.580   9.611  0.4542 -0.2799  0.3012
 8664SOL    HW131829   9.416   0.643   9.637 -0.1886  1.7934 -2.5607
 8664SOL    HW231830   9.291   0.573   9.687  1.7541  0.8840  1.4500
 8665SOL     OW31831   8.051   0.969  10.499  0.0763  0.4720  0.5803
 8665SOL    HW131832   8.021   1.043  10.447  1.9632 -0.1322 -1.5191
 8665SOL    HW231833   8.120   1.005  10.555 -0.1609  0.6145  0.7823
 8666SOL     OW31834   9.280  10.089   3.560 -0.2448  0.5771 -0.2051
 8666SOL    HW131835   9.275  10.036   3.481  0.6313  0.0161  0.0946
 8666SOL    HW231836   9.199  10.071   3.607 -1.2348  1.6667 -1.4090
 8667SOL     OW31837   9.048   3.992  12.026  0.0793 -0.7504 -0.4565
 8667SOL    HW131838   9.091   3.926  11.972  0.2706 -1.9496  1.0596
 8667SOL    HW231839   9.112   4.062  12.035  0.1759 -0.6969 -1.4493
 8668SOL     OW31840   4.350   4.565  10.790  0.0658 -0.0333 -0.3975
 8668SOL    HW131841   4.388   4.651  10.807  1.0304 -0.4530 -0.3729
 8668SOL    HW231842   4.395   4.533  10.712  0.4112 -0.9112  0.1380
 8669SOL     OW31843   2.360   5.992  11.522  0.4167  0.1249 -0.2327
 8669SOL    HW131844   2.290   5.957  11.576  0.5608 -3.0212 -1.8854
 8669SOL    HW231845   2.436   5.938  11.541  1.7671  1.9095 -0.2642
 8670SOL     OW31846   5.822   4.282  11.483 -0.2083  0.0365 -0.4362
 8670SOL    HW131847   5.810   4.237  11.399  0.6615 -0.1604 -0.4635
 8670SOL    HW231848   5.830   4.211  11.547  2.6923  0.0150 -0.6726
 8671SOL     OW31849   7.713   2.712   4.709  0.4045 -0.3277  0.3051
 8671SOL    HW131850   7.650   2.783   4.698  1.7967  0.9149 -0.0911
 8671SOL    HW231851   7.737   2.715   4.802 -0.9396 -1.5694  0.7242
 8672SOL     OW31852  10.895   6.934   2.085  0.1697  0.4425 -0.0654
 8672SOL    HW131853  10.916   6.843   2.063 -0.1197  0.2967  0.2504
 8672SOL    HW231854  10.829   6.927   2.154 -0.1040  0.8951 -0.2824
 8673SOL     OW31855   2.673   8.043   7.393 -0.2709  0.0571  0.4065
 8673SOL    HW131856   2.669   7.958   7.437  2.1446 -1.3127 -1.7694
 8673SOL    HW231857   2.582   8.062   7.369 -0.8155 -2.1756  0.5070
 8674SOL     OW31858   1.660   7.964   3.944 -0.1969 -0.9037 -0.1044
 8674SOL    HW131859   1.603   7.913   3.886  0.7894 -1.3081 -0.7469
 8674SOL    HW231860   1.749   7.936   3.921  0.3450  0.6499 -0.0265
 8675SOL     OW31861   2.799   8.217   8.052  0.2542 -0.1449  0.1857
 8675SOL    HW131862   2.834   8.135   8.016 -0.4009 -1.1264  1.6817
 8675SOL    HW231863   2.719   8.232   8.002 -0.4506 -1.2890  0.9170
 8676SOL     OW31864   4.709   6.053   3.969  0.0161  0.1042 -0.2827
 8676SOL    HW131865   4.799   6.066   3.998 -0.0659  1.1475 -0.4754
 8676SOL    HW231866   4.663   6.132   3.997 -1.4424 -1.4161  2.0646
 8677SOL     OW31867   3.086  10.196   6.274  0.0060 -0.5462  0.1035
 8677SOL    HW131868   3.027  10.205   6.199  0.9903 -0.4563 -0.6879
 8677SOL    HW231869   3.173  10.189   6.235  0.3886 -2.4079  1.1400
 8678SOL     OW31870   3.120  10.637   7.111 -0.3819  0.4471 -0.1062
 8678SOL    HW131871   3.131  10.546   7.083 -1.9048 -0.1571  1.0561
 8678SOL    HW231872   3.091  10.630   7.202 -0.3691  2.1110  0.0566
 8679SOL     OW31873   4.353   6.335   6.955 -0.0309  0.0665 -0.1637
 8679SOL    HW131874   4.287   6.344   6.887  1.2312  5.4965 -1.1283
 8679SOL    HW231875   4.435   6.365   6.914  1.8987 -1.1467  2.4705
 8680SOL     OW31876   3.018   3.221   6.031 -0.5867  0.4615  0.6277
 8680SOL    HW131877   2.958   3.281   6.076 -2.4398  0.0960 -1.1881
 8680SOL    HW231878   3.027   3.258   5.943  0.8533 -0.2060  0.4729
 8681SOL     OW31879   1.147   0.467   4.287 -0.1450  0.4015 -0.2794
 8681SOL    HW131880   1.090   0.541   4.266 -0.6206 -0.1521 -1.0028
 8681SOL    HW231881   1.234   0.505   4.294 -0.3048  0.9690 -1.1430
 8682SOL     OW31882   7.499  11.037   1.296  0.1518 -0.9085 -0.2280
 8682SOL    HW131883   7.589  11.018   1.271 -0.0979 -0.6283 -1.3631
 8682SOL    HW231884   7.483  11.125   1.264 -0.1754 -0.5062  0.9772
 8683SOL     OW31885   9.877   4.806  12.161  0.2048 -0.1399  0.3239
 8683SOL    HW131886   9.968   4.821  12.134  0.1939 -1.3534 -0.4483
 8683SOL    HW231887   9.871   4.845  12.248  0.7806  2.1524 -0.5840
 8684SOL     OW31888   0.040  12.085   1.009  0.0441 -0.0549  0.0292
 8684SOL    HW131889  -0.017  12.047   0.943  0.9590  1.2520 -1.5962
 8684SOL    HW231890  -0.001  12.063   1.093 -1.4184 -1.3327 -0.9779
 8685SOL     OW31891   4.134   9.809   0.856 -0.5073  0.0189 -0.0956
 8685SOL    HW131892   4.177   9.726   0.835 -0.2742  0.3939 -1.1675
 8685SOL    HW231893   4.137   9.859   0.774 -1.2353  0.8267  0.3551
 8686SOL     OW31894  11.232   1.561   0.608  0.4542  1.5139 -0.5011
 8686SOL    HW131895  11.146   1.573   0.648  0.2120 -1.0306 -0.1236
 8686SOL    HW231896  11.294   1.575   0.679  0.0556 -2.0838  0.7739
 8687SOL     OW31897  10.965   3.078   2.373  0.2698  0.5510 -0.0977
 8687SOL    HW131898  10.910   3.033   2.308 -0.8335  0.7241  0.6775
 8687SOL    HW231899  11.046   3.097   2.327 -0.9921  1.9400 -1.8911
 8688SOL     OW31900   8.340  12.147   6.556 -0.1606 -0.3373  0.1319
 8688SOL    HW131901   8.267  12.108   6.508 -0.3838 -0.9359  0.9542
 8688SOL    HW231902   8.306  12.162   6.644 -0.4284  2.6857 -0.3754
 8689SOL     OW31903   1.116   9.058   0.657  0.2249  0.4356 -0.1616
 8689SOL    HW131904   1.021   9.049   0.646 -0.0960  2.1209  0.9896
 8689SOL    HW231905   1.148   9.081   0.570 -0.7232  2.0165 -0.1192
 8690SOL     OW31906   6.731  11.219   4.392  0.1353 -0.3516 -0.2628
 8690SOL    HW131907   6.740  11.129   4.424 -0.3243 -0.6094 -0.8439
 8690SOL    HW231908   6.681  11.211   4.311  0.1722  0.4213 -0.3695
 8691SOL     OW31909   4.594   5.672  11.033 -0.7861 -0.0420 -0.1504
 8691SOL    HW131910   4.657   5.709  11.096  2.0659 -1.3230 -2.0418
 8691SOL    HW231911   4.559   5.747  10.987 -0.2597  0.7045  0.6288
 8692SOL     OW31912   0.465  11.126   1.709  0.8735 -0.4941 -0.4169
 8692SOL    HW131913   0.542  11.136   1.765 -0.2646  1.9275  0.8844
 8692SOL    HW231914   0.392  11.157   1.763 -0.6775 -0.5226 -2.3753
 8693SOL     OW31915   2.200   1.463   4.945  0.3969  0.4767 -0.0172
 8693SOL    HW131916   2.270   1.398   4.936  1.0839  1.2937 -0.7947
 8693SOL    HW231917   2.180   1.488   4.855 -1.2219 -0.0686  0.1686
 8694SOL     OW31918  11.412   6.352  11.253  0.2221 -0.1907 -0.0012
 8694SOL    HW131919  11.404   6.284  11.320  0.7858 -0.7401 -0.4791
 8694SOL    HW231920  11.432   6.305  11.172 -3.0818  0.1909 -1.1971
 8695SOL     OW31921   8.945   5.499   5.026  0.6264  0.7987  0.0143
 8695SOL    HW131922   8.975   5.419   4.981  1.7162  0.5734  1.0832
 8695SOL    HW231923   8.961   5.569   4.963 -0.0951  0.2198 -0.8408
 8696SOL     OW31924  11.471  11.597   1.155 -0.4158 -0.3838  0.3890
 8696SOL    HW131925  11.429  11.653   1.091 -1.8618  1.9869  3.1702
 8696SOL    HW231926  11.557  11.637   1.170 -0.3720 -0.4982  0.4488
 8697SOL     OW31927   5.007  10.452   9.081  0.2417 -0.0668 -0.3138
 8697SOL    HW131928   5.024  10.545   9.091  1.1760 -0.3553  0.9269
 8697SOL    HW231929   5.047  10.429   8.997  0.2950  0.5634 -0.4661
 8698SOL     OW31930  11.604  10.391   9.879  0.5406 -0.2734 -0.4627
 8698SOL    HW131931  11.677  10.452   9.892  0.2979 -0.0283 -0.2414
 8698SOL    HW231932  11.541  10.440   9.826 -0.5102  0.3625  1.3042
 8699SOL     OW31933   1.265  11.162  11.931 -0.1954  0.4135  0.0871
 8699SOL    HW131934   1.260  11.244  11.881 -0.0614 -0.4263 -1.3607
 8699SOL    HW231935   1.331  11.179  11.998  0.7287  1.1251 -0.9581
 8700SOL     OW31936   4.135   1.954   9.597  0.2612 -0.3230 -0.0809
 8700SOL    HW131937   4.121   2.016   9.668  1.4451  0.7256 -0.7299
 8700SOL    HW231938   4.135   2.007   9.518  2.4117 -0.9317 -0.5517
 8701SOL     OW31939   4.138   1.355   0.199 -0.3281  0.0728  0.7390
 8701SOL    HW131940   4.168   1.315   0.117  0.5053 -0.3693  1.2455
 8701SOL    HW231941   4.188   1.436   0.206 -1.9133  1.1841 -0.2142
 8702SOL     OW31942  11.380   0.147  11.529 -0.2420 -0.3581  0.2377
 8702SOL    HW131943  11.391   0.240  11.549 -0.3856 -0.0463 -1.0419
 8702SOL    HW231944  11.446   0.128  11.462 -1.7110 -0.5701 -1.2277
 8703SOL     OW31945   0.961   7.774   8.862 -0.2182 -0.8904  0.8164
 8703SOL    HW131946   1.020   7.766   8.787 -1.6800 -1.8196 -0.2772
 8703SOL    HW231947   1.014   7.749   8.937  0.7447 -1.8722 -0.1533
 8704SOL     OW31948   2.291   4.703   6.967 -0.3881 -0.5505  0.0996
 8704SOL    HW131949   2.321   4.613   6.984  0.5040 -0.4915 -1.0708
 8704SOL    HW231950   2.370   4.756   6.973 -0.7990  0.0727  0.0978
 8705SOL     OW31951   3.010  10.118   4.783  0.1958  0.2555  0.3099
 8705SOL    HW131952   3.039  10.117   4.692  1.2890  1.5886  0.6203
 8705SOL    HW231953   2.915  10.130   4.778  0.1810 -0.1969 -0.6498
 8706SOL     OW31954   6.442   6.149   8.662  0.0545 -0.1290 -0.1198
 8706SOL    HW131955   6.349   6.161   8.644 -0.0163 -1.2117 -0.5281
 8706SOL    HW231956   6.451   6.170   8.755 -0.8629 -1.4264  0.2864
 8707SOL     OW31957   2.244   1.456   4.241 -0.0627 -0.1779  0.0175
 8707SOL    HW131958   2.210   1.524   4.182  0.1527 -1.4719 -1.6614
 8707SOL    HW231959   2.173   1.441   4.303 -0.2043  1.4001  0.2768
 8708SOL     OW31960   2.169   7.367   7.310 -0.2319  0.3542 -0.6240
 8708SOL    HW131961   2.205   7.455   7.320  1.3006 -0.3500  0.4082
 8708SOL    HW231962   2.088   7.368   7.362  0.7740  0.6209  1.0183
 8709SOL     OW31963   9.420   9.143   1.253 -0.1214  0.0393 -0.8575
 8709SOL    HW131964   9.499   9.154   1.200  1.4815 -0.5877  1.2386
 8709SOL    HW231965   9.417   9.222   1.307 -2.1299  1.0131 -2.2892
 8710SOL     OW31966   7.689  12.172   7.113  0.1197  0.5443  0.2024
 8710SOL    HW131967   7.702  12.260   7.079  1.5602  0.6371  0.9271
 8710SOL    HW231968   7.633  12.184   7.190  0.2527  0.8194  0.2579
 8711SOL     OW31969   7.115   2.503   4.752 -0.4490  0.4650  0.5541
 8711SOL    HW131970   7.026   2.468   4.758 -0.2673 -0.2550 -0.6157
 8711SOL    HW231971   7.107   2.594   4.782 -1.3199  0.0485  1.6917
 8712SOL     OW31972   4.619   7.738   6.159 -0.5807 -0.2491 -0.0299
 8712SOL    HW131973   4.578   7.822   6.142 -0.8821 -0.6079 -1.1870
 8712SOL    HW231974   4.617   7.728   6.254 -1.3486  0.6401  0.0536
 8713SOL     OW31975   7.015   1.959   7.972  0.2056 -0.0018  0.5116
 8713SOL    HW131976   7.040   2.051   7.963 -0.3831  0.1148 -0.0494
 8713SOL    HW231977   7.031   1.939   8.065 -0.6805  0.9890  0.9111
 8714SOL     OW31978   7.064   9.453   2.478  0.2925 -0.3228  0.5345
 8714SOL    HW131979   6.984   9.485   2.520  1.7759  1.0618  2.4355
 8714SOL    HW231980   7.069   9.361   2.504 -0.8273 -0.5392  0.0770
 8715SOL     OW31981   5.242   4.250  12.126 -0.3919  0.0698 -0.4204
 8715SOL    HW131982   5.280   4.233  12.040  1.9873 -1.2076  0.7790
 8715SOL    HW231983   5.229   4.163  12.164 -0.9900  0.6196  0.6980
 8716SOL     OW31984   4.594   1.593  10.539  0.2350 -0.6839 -0.5423
 8716SOL    HW131985   4.667   1.564  10.485  1.3445 -1.9044  1.4955
 8716SOL    HW231986   4.626   1.673  10.581  0.8284 -1.7032  1.0471
 8717SOL     OW31987   1.115   6.015   8.467  0.4115 -0.3495 -0.3736
 8717SOL    HW131988   1.090   6.026   8.375 -0.1757  2.8416  0.0466
 8717SOL    HW231989   1.041   6.048   8.517  1.1768 -0.9406  1.2539
 8718SOL     OW31990   9.916   8.727   3.670 -0.1332 -0.5190 -0.4197
 8718SOL    HW131991   9.967   8.671   3.612  0.5494 -1.1025  0.7048
 8718SOL    HW231992   9.981   8.767   3.727 -0.6970  0.7932 -0.6659
 8719SOL     OW31993   3.455   7.247  10.398 -0.2888 -0.3066 -0.5647
 8719SOL    HW131994   3.395   7.228  10.471 -2.0674  0.2628 -1.8208
 8719SOL    HW231995   3.498   7.163  10.380  0.3124 -0.4233  1.2102
 8720SOL     OW31996   8.172   9.519   4.491  0.2706  0.2079 -0.2585
 8720SOL    HW131997   8.105   9.562   4.437  0.3493  0.5344 -0.0984
 8720SOL    HW231998   8.142   9.429   4.500  0.1797  0.1856 -0.7273
 8721SOL     OW31999  11.701   9.671   8.509 -0.3908 -0.4604 -0.3456
 8721SOL    HW132000  11.772   9.711   8.459 -1.5289  0.0655 -1.6191
 8721SOL    HW232001  11.659   9.745   8.554 -0.4762 -0.6871 -0.0486
 8722SOL     OW32002   6.597   6.947   8.281 -0.5517  0.1654  0.3593
 8722SOL    HW132003   6.593   6.908   8.368  1.0138 -2.6014 -0.6563
 8722SOL    HW232004   6.672   7.006   8.284  0.1892 -0.7610  0.6347
 8723SOL     OW32005   5.150  10.719   4.987 -0.0300 -0.3149 -0.2957
 8723SOL    HW132006   5.149  10.715   4.892 -1.2474  2.3819 -0.4881
 8723SOL    HW232007   5.098  10.644   5.015 -3.1364  0.9801 -2.0018
 8724SOL     OW32008  12.147   0.488   5.505 -0.4311  0.0888  0.2603
 8724SOL    HW132009  12.072   0.492   5.446 -0.5971  0.3748  0.4879
 8724SOL    HW232010  12.137   0.565   5.562  0.5477  0.6676 -0.3257
 8725SOL     OW32011  10.403   8.859  10.863  0.3776  0.0824  0.7667
 8725SOL    HW132012  10.474   8.821  10.913  0.6888  0.9156  0.9734
 8725SOL    HW232013  10.365   8.925  10.921  0.6981  1.0149 -0.0551
 8726SOL     OW32014   4.845   8.795   0.933 -0.0546 -0.2637  1.1151
 8726SOL    HW132015   4.927   8.766   0.971 -0.7058  0.4741  3.2469
 8726SOL    HW232016   4.847   8.890   0.940 -0.7100 -0.1790  0.3541
 8727SOL     OW32017  11.689   8.084  11.324 -0.5739 -0.3112 -0.1551
 8727SOL    HW132018  11.617   8.085  11.261 -0.5333  0.7626 -0.2090
 8727SOL    HW232019  11.657   8.029  11.395 -1.8747  0.9110  0.2675
 8728SOL     OW32020  11.392   4.342   3.511  0.2744 -0.5883 -0.4541
 8728SOL    HW132021  11.341   4.403   3.458 -1.4432 -2.6349 -1.3125
 8728SOL    HW232022  11.396   4.383   3.598 -2.2261  0.0228 -0.5638
 8729SOL     OW32023   3.232   0.944   8.405 -0.4668  0.2450  0.3614
 8729SOL    HW132024   3.276   1.025   8.428  0.9369 -0.3858  0.0368
 8729SOL    HW232025   3.150   0.945   8.454 -1.1953  2.5290 -0.7759
 8730SOL     OW32026  10.435  10.526   8.420  0.0390 -0.1183  0.1685
 8730SOL    HW132027  10.433  10.555   8.511 -1.0883  0.1620  0.0734
 8730SOL    HW232028  10.517  10.478   8.412 -0.5137 -1.3903  1.7159
 8731SOL     OW32029   5.262  11.428   9.952 -0.2412  0.1316 -0.2861
 8731SOL    HW132030   5.326  11.370   9.913 -1.6379 -0.2299 -2.1952
 8731SOL    HW232031   5.310  11.507   9.973  0.9157 -0.2954 -1.2383
 8732SOL     OW32032   7.716   6.210   4.406 -0.0259  0.1361  0.2065
 8732SOL    HW132033   7.704   6.116   4.395  2.1768 -0.4076  1.6108
 8732SOL    HW232034   7.640   6.250   4.365 -1.4545 -2.2919  0.3304
 8733SOL     OW32035  11.343   7.808   3.532  0.2971  0.1220 -0.1931
 8733SOL    HW132036  11.404   7.766   3.471  0.7127  0.8350 -0.2767
 8733SOL    HW232037  11.313   7.886   3.485 -0.9594 -0.4016 -0.2914
 8734SOL     OW32038   1.246   1.927   4.752  0.0883 -0.0421 -0.0428
 8734SOL    HW132039   1.309   1.856   4.763 -0.3419 -0.2986  0.8839
 8734SOL    HW232040   1.299   2.007   4.753  0.3764 -0.2290  1.1305
 8735SOL     OW32041   6.525   6.638  11.458  0.1779 -0.5248  0.5023
 8735SOL    HW132042   6.500   6.563  11.405 -0.9309 -0.9242  1.5517
 8735SOL    HW232043   6.546   6.602  11.544  0.0255  0.3196  0.9082
 8736SOL     OW32044  11.531   0.368   6.398  0.0052 -0.2230  0.1276
 8736SOL    HW132045  11.487   0.405   6.474 -1.4683  3.0944 -2.1111
 8736SOL    HW232046  11.625   0.376   6.418 -0.3418 -0.2741  1.9000
 8737SOL     OW32047   3.895   5.738   6.803  0.0791  0.6060  0.7898
 8737SOL    HW132048   3.919   5.647   6.821 -1.1968  0.5182  2.2051
 8737SOL    HW232049   3.942   5.759   6.723 -0.2795 -1.5959 -0.0827
 8738SOL     OW32050   4.758   4.121  11.928 -0.0138  0.3166  0.5502
 8738SOL    HW132051   4.747   4.188  11.861  0.4522 -0.5515 -0.4218
 8738SOL    HW232052   4.770   4.170  12.009 -1.7205  1.3740  0.2139
 8739SOL     OW32053   6.629   4.122   1.215 -0.3756  0.3203 -0.0009
 8739SOL    HW132054   6.686   4.051   1.246 -1.2445  0.0772  1.0960
 8739SOL    HW232055   6.659   4.199   1.263 -0.4086  0.3812 -0.0773
 8740SOL     OW32056   0.536   6.438   5.437  0.8747 -0.0599 -0.3031
 8740SOL    HW132057   0.610   6.378   5.446  0.1613 -0.7086  1.7891
 8740SOL    HW232058   0.459   6.382   5.441  0.2149  0.8712  0.5023
 8741SOL     OW32059   3.768   6.132   0.073 -0.2206 -0.0855  0.5603
 8741SOL    HW132060   3.739   6.202   0.131  0.1808 -0.2657  0.9839
 8741SOL    HW232061   3.713   6.057   0.096 -0.3152 -0.0504  0.4487
 8742SOL     OW32062   2.847   1.029   9.484  0.1671  0.0160  0.2475
 8742SOL    HW132063   2.853   0.938   9.512  3.8175 -0.0891 -0.2766
 8742SOL    HW232064   2.850   1.025   9.388  1.9454  0.6148  0.2271
 8743SOL     OW32065   2.672   7.442   2.527 -0.2051 -0.4722 -0.4883
 8743SOL    HW132066   2.644   7.530   2.502 -2.0003 -0.3882  1.5064
 8743SOL    HW232067   2.710   7.453   2.614 -1.7427 -1.8111  0.4156
 8744SOL     OW32068   4.306   1.735   5.649  0.4933  0.7310  0.0801
 8744SOL    HW132069   4.239   1.731   5.581 -0.1023  0.4308  0.6736
 8744SOL    HW232070   4.308   1.647   5.686  1.4593  0.6415 -0.1513
 8745SOL     OW32071  10.160   2.279   4.569  0.3225  0.4155 -0.4435
 8745SOL    HW132072  10.112   2.204   4.604 -0.1124  0.6138 -0.6021
 8745SOL    HW232073  10.215   2.309   4.642  2.5114 -1.6477 -1.1345
 8746SOL     OW32074   7.803   7.410   5.467 -0.2052  0.5783 -0.2428
 8746SOL    HW132075   7.730   7.350   5.483  0.0766  0.2418 -0.2202
 8746SOL    HW232076   7.831   7.391   5.378  0.8648 -0.3897  0.2786
 8747SOL     OW32077   2.912  10.722   8.736  0.4235  0.3054  0.5733
 8747SOL    HW132078   2.872  10.662   8.799 -0.2468  1.0501  0.8800
 8747SOL    HW232079   2.936  10.667   8.662  0.9163 -0.5289  1.3445
 8748SOL     OW32080   5.799   5.559  11.905 -0.3590 -0.1809 -0.4719
 8748SOL    HW132081   5.818   5.565  11.998  0.1614  0.9950 -0.6287
 8748SOL    HW232082   5.749   5.639  11.886 -2.1106 -1.3156 -0.8428
 8749SOL     OW32083   0.415   5.197  11.092  0.3525  0.2680  0.2837
 8749SOL    HW132084   0.453   5.241  11.168 -0.6989  1.1481  0.3399
 8749SOL    HW232085   0.356   5.132  11.129 -0.5578  1.0504  0.2584
 8750SOL     OW32086  12.175   3.513   3.297 -0.1550  0.0368  0.7931
 8750SOL    HW132087  12.236   3.441   3.279  0.2554  0.5391  0.1181
 8750SOL    HW232088  12.091   3.484   3.261 -0.1493 -0.3664  1.0970
 8751SOL     OW32089   6.278   9.206   3.154  0.1079 -0.0286 -0.1799
 8751SOL    HW132090   6.198   9.161   3.126  0.9625 -1.9005  0.2912
 8751SOL    HW232091   6.293   9.272   3.086 -2.0251  0.6635 -0.0846
 8752SOL     OW32092   4.937   5.742   7.776  0.1115  0.0177  0.0463
 8752SOL    HW132093   4.942   5.684   7.700 -0.6829 -0.7322  0.5379
 8752SOL    HW232094   5.006   5.806   7.762 -0.7736  0.6335 -1.9030
 8753SOL     OW32095  11.938   2.041   8.638  0.6222 -0.1357 -0.5954
 8753SOL    HW132096  11.979   2.083   8.714  0.1899 -0.4287 -0.1918
 8753SOL    HW232097  11.980   2.081   8.562  0.6527  0.5850 -0.2080
 8754SOL     OW32098   9.588   0.241   2.845 -0.1799 -0.5387  0.0501
 8754SOL    HW132099   9.676   0.267   2.817 -1.1811 -0.4643 -3.6447
 8754SOL    HW232100   9.593   0.146   2.855  0.7009 -0.3427  1.7466
 8755SOL     OW32101  11.591   9.043   9.592  0.0566 -0.2174  0.3250
 8755SOL    HW132102  11.557   9.129   9.568  0.1038  0.2933  1.9372
 8755SOL    HW232103  11.678   9.039   9.552 -0.1662  0.2464 -0.2181
 8756SOL     OW32104   1.444   9.486   7.231  0.1116  0.2011  0.1894
 8756SOL    HW132105   1.496   9.554   7.190  0.9066 -0.2208  0.4813
 8756SOL    HW232106   1.507   9.432   7.279 -0.4202 -1.0237 -0.4215
 8757SOL     OW32107   2.033  11.844  10.224  0.2325 -0.2358  0.5384
 8757SOL    HW132108   2.125  11.832  10.250 -0.3044 -3.8633  1.3689
 8757SOL    HW232109   2.027  11.803  10.138 -0.7234 -0.5836  0.7610
 8758SOL     OW32110   0.254   9.575  11.133 -0.0736  0.9235  0.2848
 8758SOL    HW132111   0.348   9.584  11.120  0.0184  1.6089  1.3277
 8758SOL    HW232112   0.219   9.562  11.045  0.9486  1.0351 -0.1563
 8759SOL     OW32113  10.729  12.092   5.006 -0.5031  0.0859  0.1218
 8759SOL    HW132114  10.772  12.007   4.999 -1.0887 -0.1008 -1.9565
 8759SOL    HW232115  10.742  12.119   5.097  0.0978 -2.0042  0.6976
 8760SOL     OW32116   1.550   8.802  11.461  0.1569  0.3347  0.5292
 8760SOL    HW132117   1.464   8.800  11.419  0.2572 -0.9478  0.3656
 8760SOL    HW232118   1.611   8.824  11.391  0.2611 -1.2893  0.0901
 8761SOL     OW32119  10.119  10.617  10.570  0.6979 -0.2626  0.2733
 8761SOL    HW132120  10.148  10.578  10.652 -2.2251 -1.1535  0.9903
 8761SOL    HW232121  10.157  10.561  10.502 -0.3547 -2.1680  1.1868
 8762SOL     OW32122   2.041   0.540   0.723 -0.3274  0.0816 -0.2809
 8762SOL    HW132123   2.090   0.458   0.731 -1.0704 -0.2943  0.5805
 8762SOL    HW232124   2.054   0.583   0.808 -0.1611  0.7339 -0.6343
 8763SOL     OW32125   9.884  11.985   0.334  0.5187  0.1423 -0.0360
 8763SOL    HW132126   9.919  11.913   0.283  1.1554  1.5246 -1.6502
 8763SOL    HW232127   9.961  12.023   0.378  0.5627  1.1245 -0.9164
 8764SOL     OW32128  11.314   3.325   3.335  0.3998  0.2878 -0.1420
 8764SOL    HW132129  11.345   3.376   3.410 -1.5056  1.0477  0.1687
 8764SOL    HW232130  11.340   3.377   3.259  0.1188  0.7736  0.0946
 8765SOL     OW32131   9.467  10.173   2.140 -0.2172 -0.0728  0.2961
 8765SOL    HW132132   9.523  10.210   2.071 -0.3330  0.4151  0.4574
 8765SOL    HW232133   9.497  10.216   2.220 -0.4198 -0.2631  0.4730
 8766SOL     OW32134   4.321   4.757   1.763 -0.3127 -0.0711  0.3707
 8766SOL    HW132135   4.308   4.665   1.788  2.4552 -1.4435 -2.5160
 8766SOL    HW232136   4.378   4.792   1.832  0.0473 -1.0926  0.6243
 8767SOL     OW32137   1.628   4.519  12.097 -0.2167  0.3955 -0.2165
 8767SOL    HW132138   1.662   4.433  12.121  0.6469  0.7112 -0.2346
 8767SOL    HW232139   1.673   4.540  12.015 -1.0300  0.5171 -0.6337
 8768SOL     OW32140   8.997   5.743   1.747 -0.0878  0.2390  0.0137
 8768SOL    HW132141   8.923   5.721   1.691  0.2591  0.6702 -0.6251
 8768SOL    HW232142   8.991   5.837   1.761 -1.0325 -0.0576  1.9790
 8769SOL     OW32143   4.977  11.122  12.063 -0.0928 -0.7473  0.3601
 8769SOL    HW132144   4.961  11.213  12.086 -0.3919 -0.7881  0.3297
 8769SOL    HW232145   4.958  11.073  12.143  1.8233 -0.6442  0.9232
 8770SOL     OW32146  11.685  12.023  10.435 -0.4986 -0.0089 -0.5443
 8770SOL    HW132147  11.616  12.050  10.496 -0.0361  1.2413 -0.5425
 8770SOL    HW232148  11.669  11.930  10.420  0.1819 -0.7570  2.5753
 8771SOL     OW32149   1.334   0.888   4.618 -0.8763  0.5944 -0.3892
 8771SOL    HW132150   1.280   0.944   4.563 -1.2758 -0.6130 -1.2928
 8771SOL    HW232151   1.412   0.870   4.564 -1.1239 -0.3430 -0.4512
 8772SOL     OW32152   9.641   3.560   0.292  0.3697  0.4229 -0.2307
 8772SOL    HW132153   9.619   3.532   0.203 -0.8471 -1.4238  0.5919
 8772SOL    HW232154   9.639   3.655   0.288 -1.4254  0.3712 -1.7768
 8773SOL     OW32155   4.947   8.125   7.155  0.0627  0.4619 -0.2456
 8773SOL    HW132156   4.864   8.086   7.184 -0.6050  1.8447 -0.2279
 8773SOL    HW232157   5.003   8.124   7.233 -0.1438  0.0662 -0.1000
 8774SOL     OW32158   0.548   3.903  11.544 -0.4488 -0.9243 -0.6318
 8774SOL    HW132159   0.519   3.890  11.454 -0.1497 -0.5252 -0.7904
 8774SOL    HW232160   0.525   3.994  11.564  1.9220 -0.0970 -1.2590
 8775SOL     OW32161  11.767   1.784   1.893 -0.1500 -0.2295  0.1242
 8775SOL    HW132162  11.837   1.726   1.865 -0.3233 -1.0071  1.2273
 8775SOL    HW232163  11.692   1.726   1.908 -0.1094  0.1375  1.9760
 8776SOL     OW32164   0.081  12.277   9.443 -0.2930  0.7786  0.1414
 8776SOL    HW132165   0.016  12.218   9.405  0.4454  0.3291 -0.4619
 8776SOL    HW232166   0.165  12.248   9.405  0.3551  0.9028  1.4297
 8777SOL     OW32167   6.992   4.384  12.168 -0.0929 -0.0619  0.1394
 8777SOL    HW132168   6.919   4.332  12.134 -1.0387  0.5144  1.1895
 8777SOL    HW232169   7.055   4.387  12.097 -1.3226 -0.1554 -0.9975
 8778SOL     OW32170   4.120   6.292  11.066  0.0027  0.1001 -0.4606
 8778SOL    HW132171   4.114   6.326  10.977  1.4547 -0.8098 -0.9421
 8778SOL    HW232172   4.119   6.197  11.055 -3.1366 -0.1447  0.7818
 8779SOL     OW32173   7.709   0.118   8.204 -0.2237  0.2354  0.1821
 8779SOL    HW132174   7.633   0.135   8.148 -0.7639 -2.4011 -0.0225
 8779SOL    HW232175   7.671   0.082   8.285  0.7192  1.2837  1.1385
 8780SOL     OW32176   6.574   8.215   3.041  0.0140 -0.0691 -0.4975
 8780SOL    HW132177   6.626   8.210   2.961 -0.0844 -0.8380 -0.5226
 8780SOL    HW232178   6.615   8.151   3.099 -0.2916  0.0477 -0.1525
 8781SOL     OW32179   4.840   9.813   1.380  0.4316 -0.0584  0.4694
 8781SOL    HW132180   4.855   9.760   1.301 -0.8717 -0.2111  0.2963
 8781SOL    HW232181   4.924   9.813   1.425  0.9473 -0.7608 -0.4457
 8782SOL     OW32182   5.726   0.603  10.900 -0.4632  0.4937 -0.4495
 8782SOL    HW132183   5.774   0.577  10.822 -1.0078 -0.5419 -0.4542
 8782SOL    HW232184   5.635   0.612  10.871 -0.4957  1.1852 -0.1649
 8783SOL     OW32185   8.700   9.573   3.827  0.6752  0.6414 -0.1327
 8783SOL    HW132186   8.727   9.629   3.899 -0.7418  0.8531  0.2764
 8783SOL    HW232187   8.721   9.484   3.856 -2.4069  0.4165  1.8721
 8784SOL     OW32188   2.293   7.601   7.283 -0.4316 -0.3298  0.0804
 8784SOL    HW132189   2.285   7.595   7.379  0.4520 -0.1328  0.1835
 8784SOL    HW232190   2.373   7.653   7.270 -1.5567  1.2820 -0.7622
 8785SOL     OW32191   0.856   4.974  10.491 -0.1679 -0.3195  0.1992
 8785SOL    HW132192   0.796   4.932  10.430  2.1896 -0.0653 -2.5454
 8785SOL    HW232193   0.888   4.903  10.546 -3.4476 -0.3232  2.3525
 8786SOL     OW32194   4.947  11.738   2.928 -0.3866 -0.7766  0.0387
 8786SOL    HW132195   4.899  11.801   2.874 -1.8236 -0.5897  1.4509
 8786SOL    HW232196   4.988  11.791   2.996 -0.8975 -1.2661  0.7393
 8787SOL     OW32197   8.920   3.675   3.175 -0.0328 -0.0941 -0.6509
 8787SOL    HW132198   8.932   3.704   3.265  1.8371 -1.8876 -0.2512
 8787SOL    HW232199   8.846   3.615   3.178  1.1216 -1.5350  0.0912
 8788SOL     OW32200  11.684  10.188   8.970  0.0210  0.2847  0.2700
 8788SOL    HW132201  11.701  10.140   8.889 -0.5252  0.3094  0.1355
 8788SOL    HW232202  11.767  10.184   9.018  0.2837  0.0824 -0.1907
 8789SOL     OW32203   6.183   2.744   5.614 -0.4067  0.4775 -0.0343
 8789SOL    HW132204   6.140   2.830   5.611 -3.0029 -0.7079  0.5117
 8789SOL    HW232205   6.171   2.709   5.525 -0.0210  0.3660 -0.0435
 8790SOL     OW32206   0.903  10.429   2.048 -0.0970 -0.0674 -0.5246
 8790SOL    HW132207   0.982  10.480   2.030  0.1612 -0.5144 -0.6754
 8790SOL    HW232208   0.837  10.495   2.070 -0.4608  0.5518 -3.1084
 8791SOL     OW32209   3.347  11.794   5.945 -0.2843  0.0402  0.2529
 8791SOL    HW132210   3.352  11.700   5.959  1.1901  0.3396  2.0253
 8791SOL    HW232211   3.293  11.804   5.866 -3.5626 -2.1256  1.9776
 8792SOL     OW32212   2.579  10.451   1.705 -0.1918 -0.1140  0.0803
 8792SOL    HW132213   2.538  10.379   1.754 -0.1269 -0.4397 -0.3363
 8792SOL    HW232214   2.666  10.461   1.746 -0.5381  0.3329  0.7236
 8793SOL     OW32215   8.994  10.601   1.151 -0.3566 -0.0794 -0.1067
 8793SOL    HW132216   9.062  10.636   1.210  0.3608 -0.5719 -0.6367
 8793SOL    HW232217   9.042  10.554   1.084 -1.0901  1.3500 -1.7148
 8794SOL     OW32218   1.999   0.991   1.509  0.0653 -0.4399 -0.5974
 8794SOL    HW132219   1.921   1.001   1.456  0.1513  0.1110 -0.6286
 8794SOL    HW232220   2.032   0.904   1.488  0.7156  0.1652 -2.2909
 8795SOL     OW32221  11.251   3.645   9.901  0.2290 -0.5396 -0.1449
 8795SOL    HW132222  11.188   3.574   9.913 -0.3002 -0.5124 -2.3584
 8795SOL    HW232223  11.325   3.604   9.856  1.3768 -0.3257  1.4335
 8796SOL     OW32224   5.332   2.125  10.084 -0.0801 -0.0971 -0.3428
 8796SOL    HW132225   5.272   2.187  10.126  0.0642 -0.8593  1.0825
 8796SOL    HW232226   5.402   2.179  10.049  0.0911  0.5546  0.9514
 8797SOL     OW32227  10.417   1.396  10.729 -0.0763 -0.3799 -0.4431
 8797SOL    HW132228  10.453   1.482  10.706 -0.7556  0.9884  3.0152
 8797SOL    HW232229  10.325   1.414  10.748 -0.0736 -1.7445  1.0004
 8798SOL     OW32230   7.026   0.237   7.519  0.1026 -0.3378  0.5449
 8798SOL    HW132231   6.975   0.275   7.590 -1.7766 -1.2723 -0.2474
 8798SOL    HW232232   6.993   0.147   7.510 -0.4201  0.0319 -2.1192
 8799SOL     OW32233   5.446   0.348   8.484 -0.5429  0.4107 -0.0738
 8799SOL    HW132234   5.460   0.337   8.389  0.7684  0.1206  0.1290
 8799SOL    HW232235   5.380   0.417   8.490 -1.1209 -0.0132 -1.2078
 8800SOL     OW32236   4.843   6.474  12.073  0.6210 -0.5833 -0.6226
 8800SOL    HW132237   4.863   6.503  11.984 -1.4233  1.9050 -0.4080
 8800SOL    HW232238   4.786   6.543  12.108  1.6970 -1.2172  2.7876
 8801SOL     OW32239   4.308   9.771  10.987 -0.2464  0.8673  0.1915
 8801SOL    HW132240   4.243   9.730  11.044 -0.6770  1.3555  0.0507
 8801SOL    HW232241   4.306   9.719  10.907  0.4046  0.1389  0.6265
 8802SOL     OW32242   5.023   2.994  11.382 -0.4543 -0.2506  0.6691
 8802SOL    HW132243   4.934   2.995  11.417 -0.1434 -1.5548  1.5772
 8802SOL    HW232244   5.075   2.951  11.449  1.2166  1.9357  0.8758
 8803SOL     OW32245   8.185  10.521   4.053  0.2559 -0.3480 -0.2970
 8803SOL    HW132246   8.114  10.496   3.994  0.7542 -0.8681 -0.6914
 8803SOL    HW232247   8.253  10.455   4.038  0.3187 -0.6021  1.0061
 8804SOL     OW32248   2.133  12.019   3.486  0.0681  0.2143  0.0120
 8804SOL    HW132249   2.102  12.108   3.468  2.8518  0.9329 -1.8366
 8804SOL    HW232250   2.053  11.968   3.497 -1.6348  2.8872  1.0698
 8805SOL     OW32251  11.508   2.439   2.291  1.0438  0.1888 -0.0686
 8805SOL    HW132252  11.551   2.364   2.334  1.2319 -0.1336 -0.8038
 8805SOL    HW232253  11.428   2.402   2.254 -0.0556  0.8517  1.5487
 8806SOL     OW32254  11.837   9.999   7.632 -0.1174 -0.3563  0.2588
 8806SOL    HW132255  11.917  10.017   7.682  1.7437 -2.4287 -1.7569
 8806SOL    HW232256  11.770   9.989   7.699  1.6746 -0.3103  2.1773
 8807SOL     OW32257  10.712   3.620   1.111 -0.5687  0.4604  0.0752
 8807SOL    HW132258  10.663   3.702   1.100  0.2094  1.0913  1.1029
 8807SOL    HW232259  10.801   3.642   1.083 -0.5020 -0.2228 -0.2491
 8808SOL     OW32260   8.619   1.011  12.098  0.4694 -0.1872 -0.7172
 8808SOL    HW132261   8.706   1.046  12.115  0.1985  0.4105 -0.5214
 8808SOL    HW232262   8.622   0.978  12.009  1.1802 -1.0528 -0.3830
 8809SOL     OW32263   0.789   3.789   4.783  0.7646 -0.0256  0.1463
 8809SOL    HW132264   0.870   3.750   4.749 -0.9192 -1.9546 -1.8849
 8809SOL    HW232265   0.763   3.852   4.716  1.2687  1.7475  1.5058
 8810SOL     OW32266   5.330   6.743   4.298 -0.7555 -0.2297  0.0101
 8810SOL    HW132267   5.417   6.708   4.313 -0.0048  1.6800  0.4004
 8810SOL    HW232268   5.273   6.688   4.352  0.6984  0.6380  2.6049
 8811SOL     OW32269  11.204   0.721   6.037  0.0951  0.0504 -0.0322
 8811SOL    HW132270  11.221   0.690   6.127 -1.3590 -1.7671 -0.3203
 8811SOL    HW232271  11.109   0.721   6.030  0.2007 -1.5398 -2.1181
 8812SOL     OW32272   6.256   5.160   8.150 -0.2383 -0.2885 -0.5036
 8812SOL    HW132273   6.237   5.071   8.180 -0.5620 -0.5850 -1.5520
 8812SOL    HW232274   6.310   5.148   8.072  0.3229  0.4602 -0.2368
 8813SOL     OW32275   7.857   5.939  11.950  0.0458  0.1526  0.0429
 8813SOL    HW132276   7.927   5.891  11.994  0.3534  1.8637  1.5302
 8813SOL    HW232277   7.799   5.968  12.021 -0.7835  0.9122 -0.9129
 8814SOL     OW32278   7.526   6.368   5.979  0.3981  0.6441  0.1431
 8814SOL    HW132279   7.574   6.300   6.027 -0.4182 -1.3394 -1.6816
 8814SOL    HW232280   7.545   6.350   5.887 -2.6845  0.6261 -0.5996
 8815SOL     OW32281   1.171  11.447   0.232  0.3494 -0.6387 -0.2022
 8815SOL    HW132282   1.178  11.540   0.209 -0.5198 -0.6135 -0.4039
 8815SOL    HW232283   1.232  11.436   0.305 -0.9694  0.5368  1.1317
 8816SOL     OW32284  10.897  11.387   6.942 -0.2712  0.0477  0.1905
 8816SOL    HW132285  10.840  11.375   6.866 -0.6769 -1.4851  0.6968
 8816SOL    HW232286  10.882  11.309   6.996  1.4974  0.1129  0.8686
 8817SOL     OW32287   4.865   6.049   8.993  0.1513  1.2631  0.0847
 8817SOL    HW132288   4.934   6.113   8.977 -1.3278  2.8349 -0.2935
 8817SOL    HW232289   4.804   6.060   8.920 -1.1239  0.7868  1.0348
 8818SOL     OW32290   2.567   4.359   0.204 -0.2414  0.1662  0.3180
 8818SOL    HW132291   2.588   4.266   0.213  2.2231  0.5020 -1.1975
 8818SOL    HW232292   2.631   4.393   0.142 -1.4778  2.7736  0.3225
 8819SOL     OW32293   0.420   4.144  11.626 -0.5252 -0.0291 -0.3418
 8819SOL    HW132294   0.382   4.230  11.644 -1.5717 -0.5625  0.0641
 8819SOL    HW232295   0.493   4.136  11.688  0.2645  0.9758 -1.0876
 8820SOL     OW32296  11.844   8.636   1.647 -0.2235  0.0951 -0.1229
 8820SOL    HW132297  11.783   8.632   1.720 -0.6231 -0.3933 -0.4765
 8820SOL    HW232298  11.788   8.632   1.569  0.2527 -0.2517 -0.4503
 8821SOL     OW32299   8.373  10.500   7.997 -0.1335 -0.1604  0.0717
 8821SOL    HW132300   8.280  10.484   8.009 -0.4422  1.2895 -0.2294
 8821SOL    HW232301   8.381  10.595   7.994  1.2364 -0.2786 -0.8789
 8822SOL     OW32302   1.674   0.113   3.155 -0.7839  0.0846  0.7945
 8822SOL    HW132303   1.640   0.045   3.097  2.0408 -0.4664 -0.3640
 8822SOL    HW232304   1.768   0.097   3.159 -0.1798  3.1429  1.5111
 8823SOL     OW32305   8.426   8.120   4.071  0.1513  0.0514  0.3760
 8823SOL    HW132306   8.423   8.204   4.115  2.2121  0.6188 -0.4667
 8823SOL    HW232307   8.359   8.125   4.003 -0.5679  0.5172  1.1073
 8824SOL     OW32308   9.698   1.927   6.617 -0.5049 -0.6872  0.3485
 8824SOL    HW132309   9.759   1.957   6.550 -1.1625  0.3037  0.1896
 8824SOL    HW232310   9.666   1.843   6.584 -0.5709 -0.3646 -0.4070
 8825SOL     OW32311   1.524   8.169  11.523 -0.1529  0.4772 -0.2121
 8825SOL    HW132312   1.447   8.161  11.466 -0.1295 -2.4735  0.0521
 8825SOL    HW232313   1.549   8.079  11.544  1.7822  1.3988  1.9098
 8826SOL     OW32314   7.254   5.545   6.935  0.5097  0.3604  0.1342
 8826SOL    HW132315   7.265   5.497   6.854  1.9026 -1.2290  1.2029
 8826SOL    HW232316   7.256   5.637   6.909  0.8515 -0.1139 -1.6323
 8827SOL     OW32317   1.801   2.222   5.572  0.1857  0.0455  0.2688
 8827SOL    HW132318   1.834   2.209   5.483 -0.5430  0.3720 -0.0623
 8827SOL    HW232319   1.825   2.142   5.619  1.2936  0.2093  0.0097
 8828SOL     OW32320   3.707  12.239   3.249 -0.3565 -0.2051  0.1584
 8828SOL    HW132321   3.674  12.276   3.167  0.6448 -1.9599 -1.0799
 8828SOL    HW232322   3.629  12.210   3.295 -0.9256  0.7403 -0.1773
 8829SOL     OW32323   7.794  10.022  10.321 -0.2508  1.0354 -0.0690
 8829SOL    HW132324   7.847  10.037  10.398  1.0475 -3.4842  0.1931
 8829SOL    HW232325   7.850  10.047  10.247  0.4048  0.7649  0.3341
 8830SOL     OW32326   3.758   5.474   9.333 -0.1090  0.6677 -0.2160
 8830SOL    HW132327   3.669   5.466   9.300  0.2633  0.8823 -1.3217
 8830SOL    HW232328   3.813   5.447   9.259  0.7095 -1.3048  1.0502
 8831SOL     OW32329   6.288   1.000   5.887 -0.0366  0.4974 -0.1928
 8831SOL    HW132330   6.224   1.004   5.817  0.2528  1.6654 -0.4045
 8831SOL    HW232331   6.316   1.090   5.900  0.5153  0.1922  0.8701
 8832SOL     OW32332   0.835   7.061  11.845  0.0672  0.5507 -0.1583
 8832SOL    HW132333   0.891   7.037  11.772 -0.5787  2.3922 -1.3158
 8832SOL    HW232334   0.892   7.108  11.905 -0.1938  2.6777 -1.4681
 8833SOL     OW32335   4.242   6.776   9.656 -0.0247  0.1564 -0.9024
 8833SOL    HW132336   4.170   6.782   9.718  1.2792  0.0057  0.6727
 8833SOL    HW232337   4.292   6.856   9.669  1.5521 -0.9081 -0.0555
 8834SOL     OW32338   0.497   2.533   4.365  0.6031 -0.3940 -0.4343
 8834SOL    HW132339   0.538   2.607   4.410  2.6474 -1.7353  0.0205
 8834SOL    HW232340   0.514   2.549   4.272 -0.0831  0.3256 -0.4482
 8835SOL     OW32341   1.393   3.032   7.548 -0.5105  0.3130  0.1133
 8835SOL    HW132342   1.377   3.085   7.627 -0.6525 -0.9953  1.0015
 8835SOL    HW232343   1.306   3.005   7.520 -0.3962 -0.0768  0.1275
 8836SOL     OW32344  10.463  11.678   3.733 -0.1270 -0.0211 -0.4183
 8836SOL    HW132345  10.483  11.611   3.798 -1.7735 -0.2034 -0.0493
 8836SOL    HW232346  10.511  11.651   3.655  2.4814  0.5931  0.8651
 8837SOL     OW32347   8.617   6.129   5.570 -0.5093  0.5039 -0.0998
 8837SOL    HW132348   8.549   6.129   5.503 -0.4054 -0.4211 -0.2239
 8837SOL    HW232349   8.695   6.097   5.525 -0.1835  0.8495  0.2180
 8838SOL     OW32350  10.527   2.326   7.099  0.0750  0.3757  0.3657
 8838SOL    HW132351  10.523   2.235   7.127 -1.7068  0.3796  0.2770
 8838SOL    HW232352  10.513   2.323   7.004 -1.8098  0.7999  0.5859
 8839SOL     OW32353   8.299   3.311  11.416  0.3152  0.2245  0.4710
 8839SOL    HW132354   8.381   3.336  11.373 -0.1979 -1.6317 -1.7244
 8839SOL    HW232355   8.314   3.222  11.447  0.0141  0.8555  2.6328
 8840SOL     OW32356   9.392  12.212   7.095  0.1370  0.0378 -0.2126
 8840SOL    HW132357   9.426  12.266   7.024  0.5165  1.4377  0.9896
 8840SOL    HW232358   9.310  12.177   7.061 -0.1180  1.3595 -1.0287
 8841SOL     OW32359   2.267   8.857   2.640 -0.6226 -0.2155  0.5901
 8841SOL    HW132360   2.344   8.817   2.598  0.4748  1.1137  1.2380
 8841SOL    HW232361   2.280   8.951   2.630 -0.5079  0.1703  3.4492
 8842SOL     OW32362  10.340   9.343   7.325  0.6111 -0.5709  0.0406
 8842SOL    HW132363  10.327   9.438   7.328  1.3827 -0.4669  0.3138
 8842SOL    HW232364  10.426   9.329   7.366 -1.0084 -1.7117  3.3503
 8843SOL     OW32365   6.098  10.036  11.216 -0.8113  0.6474  0.4869
 8843SOL    HW132366   6.160  10.108  11.204  0.8439 -0.8652 -0.4319
 8843SOL    HW232367   6.136   9.982  11.285 -0.3785 -0.9688 -0.9438
 8844SOL     OW32368   9.434  11.119   7.832  0.2160  0.4897  0.7511
 8844SOL    HW132369   9.527  11.139   7.828  0.3577  0.1536  1.8612
 8844SOL    HW232370   9.430  11.033   7.874 -0.4473 -1.1970 -2.4679
 8845SOL     OW32371   5.209   9.688   9.319  0.1749 -0.3927  0.0951
 8845SOL    HW132372   5.279   9.739   9.279 -0.1923  0.3021  0.3228
 8845SOL    HW232373   5.245   9.662   9.404 -0.4539  1.4654  0.9804
 8846SOL     OW32374   2.846   8.856   4.349  0.3428 -0.6464 -0.7480
 8846SOL    HW132375   2.795   8.777   4.328 -2.6075  1.4408 -2.0398
 8846SOL    HW232376   2.897   8.874   4.270 -0.8118  0.0029 -1.3689
 8847SOL     OW32377   9.328   1.374   6.340  0.8072 -0.0755 -0.6526
 8847SOL    HW132378   9.288   1.429   6.407  1.1175  0.7347 -1.1106
 8847SOL    HW232379   9.421   1.373   6.362  0.9964  0.6397 -1.3478
 8848SOL     OW32380   7.701   0.785   5.494  0.4021 -0.4249  0.5428
 8848SOL    HW132381   7.693   0.703   5.446  3.2989 -0.8896  0.6917
 8848SOL    HW232382   7.639   0.776   5.567  0.3485 -2.2806  0.3152
 8849SOL     OW32383   2.468   7.263   3.750  0.3489  0.5125 -0.2485
 8849SOL    HW132384   2.463   7.183   3.697 -0.5036  0.8822 -0.7438
 8849SOL    HW232385   2.443   7.235   3.838  0.1557  0.2045 -0.3981
 8850SOL     OW32386   2.597   3.555   7.410  0.0198  0.2243  0.2461
 8850SOL    HW132387   2.635   3.641   7.427 -0.0640  0.4484 -0.6738
 8850SOL    HW232388   2.672   3.501   7.385  0.1016 -0.0315  1.0145
 8851SOL     OW32389   3.344  10.095   7.454 -0.1271  0.3718 -0.5682
 8851SOL    HW132390   3.264  10.120   7.502  1.0309  4.1181 -0.2631
 8851SOL    HW232391   3.323  10.114   7.363 -0.2041 -0.5657 -0.7516
 8852SOL     OW32392   8.903  11.378   9.115 -0.1281  0.1922 -0.7140
 8852SOL    HW132393   8.954  11.311   9.159  1.2126  1.2194 -0.6195
 8852SOL    HW232394   8.901  11.451   9.177 -1.9718  0.0978 -0.6126
 8853SOL     OW32395  12.104  11.052   7.265 -0.4366 -0.3088 -0.6257
 8853SOL    HW132396  12.105  11.090   7.177 -0.8076  0.5178 -0.2925
 8853SOL    HW232397  12.019  11.079   7.301 -0.3052 -0.6741 -0.0266
 8854SOL     OW32398   4.832   1.967   4.474 -0.1204 -0.4171  0.5709
 8854SOL    HW132399   4.772   1.962   4.400  0.1935  0.1085  0.2687
 8854SOL    HW232400   4.798   1.905   4.538 -0.0696 -1.3167 -0.2472
 8855SOL     OW32401   7.895   4.812   5.783 -0.2440 -0.2386  0.4069
 8855SOL    HW132402   7.916   4.878   5.849  0.7309  0.9994 -1.1023
 8855SOL    HW232403   7.979   4.785   5.747 -0.7745 -0.7180 -0.5258
 8856SOL     OW32404  12.206   3.797   2.510 -0.0372  0.1381 -0.1343
 8856SOL    HW132405  12.272   3.801   2.440 -3.2137  0.6152 -3.4626
 8856SOL    HW232406  12.198   3.887   2.540  0.1724  0.2693 -0.4648
 8857SOL     OW32407   4.245   5.313   8.985  0.1298 -0.0176 -0.0957
 8857SOL    HW132408   4.335   5.312   8.950  0.5591  0.8235  0.9111
 8857SOL    HW232409   4.219   5.405   8.979 -0.8652 -0.3348 -0.8276
 8858SOL     OW32410   8.236   8.413   6.188  0.0676 -0.1568  0.1163
 8858SOL    HW132411   8.285   8.495   6.193  0.0860 -0.1435 -0.2771
 8858SOL    HW232412   8.203   8.410   6.098  0.7400 -0.9735 -0.1203
 8859SOL     OW32413   9.730   2.009   5.488 -0.1631 -0.4331 -0.1187
 8859SOL    HW132414   9.708   2.101   5.472 -1.8382 -1.0999 -2.1258
 8859SOL    HW232415   9.816   1.998   5.450 -1.5416 -0.4988 -3.5246
 8860SOL     OW32416   6.447   3.321   3.333 -0.7661  0.2018 -0.6216
 8860SOL    HW132417   6.384   3.307   3.262 -0.8924 -0.1987 -0.4323
 8860SOL    HW232418   6.499   3.240   3.335 -1.1541 -0.0319  0.1354
 8861SOL     OW32419   0.517  11.635   8.473  0.2089  0.6844  0.3112
 8861SOL    HW132420   0.521  11.580   8.551  2.3535  2.1501  1.3177
 8861SOL    HW232421   0.514  11.572   8.400 -0.8984 -0.7062  1.4904
 8862SOL     OW32422   8.716   4.661   7.944  0.4595  0.0633  0.1612
 8862SOL    HW132423   8.783   4.597   7.968  0.9039  0.0254 -1.0648
 8862SOL    HW232424   8.705   4.715   8.022  2.1281  0.2400  0.3173
 8863SOL     OW32425  10.240   5.735   2.760  0.3984  0.6304  0.4860
 8863SOL    HW132426  10.154   5.776   2.745  0.0079 -0.3976 -0.1882
 8863SOL    HW232427  10.222   5.641   2.757  1.8430  0.3642 -1.5837
 8864SOL     OW32428   5.527  10.120   6.396 -0.1497  0.0390 -0.1648
 8864SOL    HW132429   5.599  10.182   6.389 -0.2694 -0.0217 -3.9517
 8864SOL    HW232430   5.465  10.162   6.455  1.4780  1.6373  0.5029
 8865SOL     OW32431   8.036  10.196   6.350 -0.1448 -0.6488  0.3368
 8865SOL    HW132432   8.107  10.143   6.316 -1.1401 -0.9274 -1.4169
 8865SOL    HW232433   7.959  10.171   6.299 -0.8201  1.9189 -0.0728
 8866SOL     OW32434   5.696  11.077   7.747 -0.2194  0.4291 -0.0328
 8866SOL    HW132435   5.791  11.079   7.758 -0.1240 -0.4206 -0.6002
 8866SOL    HW232436   5.676  10.984   7.733 -1.0249  0.7153 -0.8350
 8867SOL     OW32437   8.757   4.433   2.945 -0.0805 -0.1355 -0.2746
 8867SOL    HW132438   8.827   4.406   3.005  0.9656  2.8987  0.0789
 8867SOL    HW232439   8.704   4.494   2.997 -2.4261 -1.5501 -0.8789
 8868SOL     OW32440   4.052   9.630   1.905 -0.3008 -0.5673  0.0288
 8868SOL    HW132441   4.019   9.710   1.863  1.1746 -0.0636 -0.2137
 8868SOL    HW232442   4.082   9.659   1.991 -0.4442 -1.0104  0.2300
 8869SOL     OW32443   5.454   5.578   3.724  0.1608  0.1461 -0.3637
 8869SOL    HW132444   5.435   5.492   3.762  0.3836  1.1262  2.1266
 8869SOL    HW232445   5.540   5.567   3.683 -0.7509 -1.3510 -2.0408
 8870SOL     OW32446   7.009   0.535   2.751 -0.1443  0.3069 -0.2250
 8870SOL    HW132447   7.094   0.546   2.794 -0.2655  1.3908 -0.2399
 8870SOL    HW232448   7.017   0.583   2.669 -0.3004 -0.7959 -0.9103
 8871SOL     OW32449   8.933   4.151   3.632  0.0029  0.9428 -0.3189
 8871SOL    HW132450   8.879   4.085   3.589 -0.2117  0.9651 -0.0861
 8871SOL    HW232451   8.927   4.228   3.575  0.4798  0.6736 -0.7342
 8872SOL     OW32452   8.728  10.945   7.135 -0.4280 -0.1813  0.3344
 8872SOL    HW132453   8.656  11.005   7.116  0.9384  1.6155  0.4846
 8872SOL    HW232454   8.773  10.934   7.051 -1.1664 -1.7451  0.1178
 8873SOL     OW32455   7.371   1.334   4.945  0.3410  0.1199  0.1579
 8873SOL    HW132456   7.334   1.352   4.858  1.0409 -0.5814 -0.2897
 8873SOL    HW232457   7.404   1.419   4.974 -0.5579  0.5206  0.0714
 8874SOL     OW32458  10.241   2.172   3.183 -0.7178  0.1309  0.4419
 8874SOL    HW132459  10.146   2.183   3.187 -0.9654 -0.2338 -2.5623
 8874SOL    HW232460  10.256   2.082   3.213 -1.7039 -0.8771 -1.8796
 8875SOL     OW32461   9.289   8.223   0.777  0.5065 -0.0444 -0.1666
 8875SOL    HW132462   9.213   8.240   0.721 -0.4736 -1.7852  0.5350
 8875SOL    HW232463   9.357   8.282   0.744 -1.2171  1.7922 -0.6315
 8876SOL     OW32464  10.223   9.311  11.515  0.1569 -0.7059 -0.2730
 8876SOL    HW132465  10.282   9.243  11.549 -0.5119  0.1432  2.8839
 8876SOL    HW232466  10.137   9.268  11.512 -0.0239 -0.4187  0.4693
 8877SOL     OW32467   4.248  11.303   4.332  0.2078  0.1351  0.2507
 8877SOL    HW132468   4.169  11.354   4.354  0.1091 -0.9101  2.6297
 8877SOL    HW232469   4.240  11.223   4.383  3.0712  0.2268  1.0126
 8878SOL     OW32470   5.092   1.686   8.262 -0.9137  0.0838 -0.6724
 8878SOL    HW132471   5.080   1.594   8.283 -0.2818 -0.1252 -1.1902
 8878SOL    HW232472   5.049   1.733   8.333 -4.5002 -0.5756 -2.1826
 8879SOL     OW32473   1.109   7.352  10.484  0.3289  0.4025  0.0569
 8879SOL    HW132474   1.044   7.393  10.427  0.5850  1.0030  0.1907
 8879SOL    HW232475   1.129   7.268  10.442  0.1352  0.6153 -0.4637
 8880SOL     OW32476   7.828   8.618   0.069  0.3927 -0.1231  0.3219
 8880SOL    HW132477   7.757   8.600   0.130 -0.8679 -0.6143 -1.2148
 8880SOL    HW232478   7.810   8.707   0.037  0.4857 -0.2275 -0.0289
 8881SOL     OW32479  10.844   3.629   3.173  0.1669  0.0933 -0.2493
 8881SOL    HW132480  10.870   3.717   3.201  0.1127  0.1397 -0.3434
 8881SOL    HW232481  10.784   3.644   3.099  1.9378 -0.0514 -1.8081
 8882SOL     OW32482   8.983   8.403   3.793 -0.0335  0.1864 -0.2167
 8882SOL    HW132483   8.904   8.455   3.779 -1.8232 -1.8027  1.6433
 8882SOL    HW232484   8.958   8.313   3.770  1.5421 -0.5655  0.7909
 8883SOL     OW32485   9.707   2.642   5.948  0.2808 -0.1546  0.3634
 8883SOL    HW132486   9.697   2.657   5.854  0.3161  1.4804  0.5960
 8883SOL    HW232487   9.671   2.555   5.962  1.7872 -1.1442 -1.4280
 8884SOL     OW32488   6.614   2.362   6.995 -0.6078  0.1595  0.1896
 8884SOL    HW132489   6.593   2.290   6.936 -0.7080  0.0560  0.3506
 8884SOL    HW232490   6.536   2.418   6.993  0.3284  1.4914 -1.7200
 8885SOL     OW32491   7.045   5.923   1.405 -0.0610 -0.1983 -0.7888
 8885SOL    HW132492   7.010   5.856   1.464 -0.0255  0.3381 -0.1532
 8885SOL    HW232493   7.130   5.947   1.442  0.2271 -0.2726 -1.3834
 8886SOL     OW32494   9.216  11.325   1.415 -0.0568 -0.3828 -0.1763
 8886SOL    HW132495   9.279  11.381   1.371 -1.8926  2.5967  0.7147
 8886SOL    HW232496   9.195  11.257   1.351  2.0696  0.0609 -1.4134
 8887SOL     OW32497   1.787   5.765   9.297  0.4263 -0.3025  0.4859
 8887SOL    HW132498   1.851   5.770   9.368  1.0996 -0.6862 -0.0830
 8887SOL    HW232499   1.839   5.770   9.217 -0.3217  0.0916  0.0080
 8888SOL     OW32500   6.717  11.068  10.736  0.1616 -0.2263  0.2548
 8888SOL    HW132501   6.756  11.143  10.780 -1.0748  0.7940 -0.3278
 8888SOL    HW232502   6.785  11.036  10.677  0.9405 -0.0189  1.0193
 8889SOL     OW32503   2.058  11.342   3.341 -0.0353  0.0029  0.5188
 8889SOL    HW132504   2.113  11.283   3.290  0.3646 -0.4453  1.4566
 8889SOL    HW232505   1.968  11.321   3.314  0.2099  0.4992 -0.7649
 8890SOL     OW32506  11.012   5.521  11.950 -0.0337 -0.3851 -0.1973
 8890SOL    HW132507  10.974   5.519  12.038 -0.9756 -1.1944 -0.6009
 8890SOL    HW232508  11.100   5.487  11.961  0.0668  0.0979  0.5299
 8891SOL     OW32509   3.510   1.308   4.465  0.3204  0.0887  0.2870
 8891SOL    HW132510   3.416   1.291   4.470  0.0407  1.3449 -0.3488
 8891SOL    HW232511   3.527   1.323   4.372  0.8186  1.6236  0.6097
 8892SOL     OW32512   9.742   1.325   7.404 -0.7649  0.0202  0.1742
 8892SOL    HW132513   9.796   1.276   7.465 -0.1032 -0.6566 -0.9169
 8892SOL    HW232514   9.752   1.417   7.430 -0.8391 -0.2924  1.3235
 8893SOL     OW32515  10.025   5.076   6.345 -0.0574  0.3561 -0.1010
 8893SOL    HW132516  10.007   4.994   6.299 -1.5098  0.4099  0.3010
 8893SOL    HW232517  10.120   5.080   6.353  0.1638 -0.2720 -1.9608
 8894SOL     OW32518   0.783   9.255   5.750  0.1022  0.0654 -0.1761
 8894SOL    HW132519   0.773   9.346   5.724 -0.6906  0.0238 -0.0390
 8894SOL    HW232520   0.866   9.228   5.711 -0.0708  0.5996 -0.9325
 8895SOL     OW32521  11.205   0.560   1.255 -0.1771  0.0971 -0.3881
 8895SOL    HW132522  11.234   0.479   1.213  2.3216  0.1069  1.1615
 8895SOL    HW232523  11.261   0.628   1.219 -1.4054  0.9738 -0.7273
 8896SOL     OW32524   0.691   9.967   1.602  0.2695 -0.2836  0.8373
 8896SOL    HW132525   0.691  10.014   1.685  0.9399  1.3831 -0.0480
 8896SOL    HW232526   0.599   9.969   1.573  0.1253 -0.4062  1.2811
 8897SOL     OW32527   5.219   7.384   2.539 -0.0610  0.2388  0.2607
 8897SOL    HW132528   5.249   7.295   2.517 -0.4509  0.0989  0.2963
 8897SOL    HW232529   5.225   7.388   2.634  0.3212  0.3832  0.2339
 8898SOL     OW32530   9.397  12.120  10.115  0.0270  0.1145 -0.1623
 8898SOL    HW132531   9.403  12.033  10.076 -1.4818 -0.3030  0.4624
 8898SOL    HW232532   9.487  12.153  10.115  0.5411 -1.2231 -0.8886
 8899SOL     OW32533  11.359   8.385   1.457  0.5490 -0.4891  0.3075
 8899SOL    HW132534  11.350   8.357   1.366 -0.7043  3.3866 -0.9329
 8899SOL    HW232535  11.296   8.331   1.505 -1.0572 -0.5040 -1.6934
 8900SOL     OW32536   1.014   8.359  10.155  0.6191  0.5117  0.4511
 8900SOL    HW132537   1.109   8.376  10.151  0.8163 -0.6337 -0.1475
 8900SOL    HW232538   1.005   8.295  10.226  0.3486  0.3030  0.2276
 8901SOL     OW32539   4.736   4.636  11.998 -0.2576 -0.1173 -0.2327
 8901SOL    HW132540   4.647   4.657  12.026 -0.9675 -1.3617 -1.4401
 8901SOL    HW232541   4.753   4.695  11.925  2.0178  3.9454  3.0676
 8902SOL     OW32542   6.765   4.080  10.838 -0.0553  0.4642 -0.1188
 8902SOL    HW132543   6.705   4.014  10.803 -0.0071  0.5743 -0.4162
 8902SOL    HW232544   6.796   4.043  10.920  1.2408 -0.6321 -1.0499
 8903SOL     OW32545   2.288   7.462  10.843 -0.2268 -0.1422 -0.6836
 8903SOL    HW132546   2.208   7.451  10.894 -0.7434 -0.0046 -1.4446
 8903SOL    HW232547   2.349   7.398  10.879  0.2223  1.4601  1.6073
 8904SOL     OW32548   2.481  10.382   0.955  0.3044  0.7623  0.0815
 8904SOL    HW132549   2.489  10.468   0.912 -1.2418  0.5000 -0.7985
 8904SOL    HW232550   2.406  10.341   0.913  0.4501 -0.6676  1.1427
 8905SOL     OW32551   9.637   5.090   5.167 -0.1108  0.1817 -0.3273
 8905SOL    HW132552   9.571   5.030   5.203 -1.4309  2.0372  0.4923
 8905SOL    HW232553   9.592   5.174   5.159  1.8056  1.2148 -0.9700
 8906SOL     OW32554   2.775   3.540   5.377  0.4833 -0.5934 -0.0365
 8906SOL    HW132555   2.821   3.470   5.423  1.9779  0.2026 -0.2585
 8906SOL    HW232556   2.717   3.578   5.443  0.9264 -0.9417  0.5672
 8907SOL     OW32557   8.213   3.241   7.957 -0.7444  0.5621 -0.0851
 8907SOL    HW132558   8.153   3.193   8.014 -0.7981 -1.5974 -1.8369
 8907SOL    HW232559   8.300   3.210   7.982 -0.6435  0.7918 -0.1461
 8908SOL     OW32560   5.962   6.890   4.624 -0.3468  0.2937  0.0200
 8908SOL    HW132561   5.883   6.854   4.664  0.4857 -0.1257  1.3353
 8908SOL    HW232562   6.014   6.813   4.601 -0.1989  0.5766 -0.6272
 8909SOL     OW32563   5.236   9.891   9.590 -0.2179 -0.2377 -0.5908
 8909SOL    HW132564   5.267   9.809   9.627  0.2156 -0.1606 -0.7720
 8909SOL    HW232565   5.153   9.908   9.634  0.0724 -0.3757  0.0226
 8910SOL     OW32566  10.588  10.651   6.636 -0.1939  0.7062  0.0035
 8910SOL    HW132567  10.637  10.643   6.554 -0.7744  0.4678 -0.3255
 8910SOL    HW232568  10.562  10.562   6.658 -0.1971  0.7903  0.3503
 8911SOL     OW32569   0.088  11.471   8.777  0.3260  0.0959  0.3084
 8911SOL    HW132570   0.009  11.517   8.749 -0.5425 -0.8941  1.0875
 8911SOL    HW232571   0.129  11.442   8.695 -1.2165 -1.1821 -0.0642
 8912SOL     OW32572  10.981   7.611   2.004  0.2025  0.3387  0.2475
 8912SOL    HW132573  10.889   7.587   2.016  0.2039 -0.6436 -1.3735
 8912SOL    HW232574  11.017   7.540   1.950  1.9370  0.6654  0.9154
 8913SOL     OW32575   6.870   3.383   6.976  0.5787 -0.2586 -0.9612
 8913SOL    HW132576   6.965   3.388   6.983  0.4381  1.2938  0.8494
 8913SOL    HW232577   6.844   3.469   6.943 -0.1350 -1.3516 -3.5031
 8914SOL     OW32578   3.548  10.611   4.972 -0.1222 -0.3228  0.1804
 8914SOL    HW132579   3.461  10.611   4.933 -0.1596  0.3706  0.2534
 8914SOL    HW232580   3.557  10.697   5.013  1.4097  0.4664 -1.6693
 8915SOL     OW32581   1.223   2.562   1.919  0.4219  0.6091 -0.2628
 8915SOL    HW132582   1.225   2.654   1.943 -0.1229  0.2109  1.4713
 8915SOL    HW232583   1.246   2.515   2.000 -0.1737 -0.7873 -0.8555
 8916SOL     OW32584   8.928   9.996   8.115  0.0387 -0.0104 -0.4955
 8916SOL    HW132585   8.973   9.913   8.135  1.8845  0.5113 -2.1790
 8916SOL    HW232586   8.857   9.971   8.056 -0.4117 -0.5528  0.2538
 8917SOL     OW32587  10.993   7.248   6.697 -1.2432 -0.0735 -0.3541
 8917SOL    HW132588  10.966   7.159   6.721 -1.2369  0.3287  1.2303
 8917SOL    HW232589  10.947   7.305   6.758 -0.0099  0.9161 -0.3029
 8918SOL     OW32590   4.956  10.723   9.109 -0.5682  0.1100 -0.4343
 8918SOL    HW132591   4.876  10.702   9.062  0.5273 -0.2533 -2.2492
 8918SOL    HW232592   4.982  10.809   9.076 -0.5038  0.4847  0.5617
 8919SOL     OW32593   1.663   2.416  10.704 -0.1047 -0.1907  0.2339
 8919SOL    HW132594   1.731   2.387  10.764 -0.8350  0.2646  1.3234
 8919SOL    HW232595   1.690   2.504  10.676  0.3316 -0.4804 -0.2611
 8920SOL     OW32596   4.384   6.476   2.981  0.0898 -0.0225 -0.3910
 8920SOL    HW132597   4.390   6.510   3.071  1.6805 -0.9784 -0.0742
 8920SOL    HW232598   4.293   6.450   2.971 -0.3654  1.1122  0.5524
 8921SOL     OW32599   3.118   1.044   9.718  0.0205 -0.2576  0.2183
 8921SOL    HW132600   3.200   1.008   9.684 -0.5624 -2.1610  0.7257
 8921SOL    HW232601   3.056   1.034   9.647 -0.3405 -0.9972  0.6318
 8922SOL     OW32602   3.827   3.447   9.429 -0.1978 -0.3125  0.0658
 8922SOL    HW132603   3.732   3.457   9.424 -0.1953 -0.3747 -0.1131
 8922SOL    HW232604   3.855   3.440   9.338  0.1801  1.5973 -0.0144
 8923SOL     OW32605   0.618   9.811   3.911 -0.0464  0.3561 -0.4556
 8923SOL    HW132606   0.594   9.858   3.991  2.4941  0.8635  0.0674
 8923SOL    HW232607   0.623   9.879   3.843  0.3606  0.3276 -0.4548
 8924SOL     OW32608   6.053  11.876   0.703 -0.0849  0.1455  0.2579
 8924SOL    HW132609   6.107  11.823   0.645  1.1342 -0.3667  1.7985
 8924SOL    HW232610   5.981  11.818   0.728 -0.2854  0.1725 -0.2317
 8925SOL     OW32611  10.062   0.375   1.861  0.4930  0.3951  0.1937
 8925SOL    HW132612  10.024   0.433   1.795  0.4199  0.1333  0.0080
 8925SOL    HW232613  10.033   0.412   1.945 -2.2247 -1.1604  0.0419
 8926SOL     OW32614   3.509   1.816  10.285 -0.1575  0.2337 -0.1314
 8926SOL    HW132615   3.444   1.782  10.346 -0.1619  0.6613  0.1062
 8926SOL    HW232616   3.485   1.908  10.273 -0.2657  0.1052 -0.9206
 8927SOL     OW32617   8.037   1.613  10.509  0.6558  0.0007  0.0028
 8927SOL    HW132618   7.947   1.646  10.506  0.4947 -0.4940 -1.3419
 8927SOL    HW232619   8.085   1.677  10.562 -0.6363 -0.1336  1.4020
 8928SOL     OW32620   9.383   4.725   4.389  0.0989  0.1332  0.2548
 8928SOL    HW132621   9.400   4.716   4.295  1.0282 -0.8287  0.4900
 8928SOL    HW232622   9.468   4.750   4.426 -0.0401 -0.3795  0.9397
 8929SOL     OW32623   3.585   0.518   4.620  0.1414 -0.4169 -0.6510
 8929SOL    HW132624   3.614   0.427   4.606 -1.4726 -1.4934  2.2461
 8929SOL    HW232625   3.529   0.514   4.697  0.7557  3.2462  0.1530
 8930SOL     OW32626   1.117   4.302  11.215  0.5261 -0.4933  0.5196
 8930SOL    HW132627   1.190   4.308  11.153  0.3075  0.8650  0.3621
 8930SOL    HW232628   1.146   4.236  11.278  1.6709 -0.3696  0.1596
 8931SOL     OW32629  11.117   3.843   9.757 -0.2586  0.0755 -0.5669
 8931SOL    HW132630  11.206   3.833   9.723  0.8976  0.0603  2.2144
 8931SOL    HW232631  11.107   3.773   9.821 -1.9291  0.6484 -0.1401
 8932SOL     OW32632   3.012   9.967   5.934  0.0014  0.2484  0.4174
 8932SOL    HW132633   2.948   9.920   5.880 -0.0556  0.1130  0.6043
 8932SOL    HW232634   2.964   9.993   6.012  0.4552 -0.8469  1.0803
 8933SOL     OW32635  10.237   7.436   3.668  0.4922 -0.1777  0.3428
 8933SOL    HW132636  10.237   7.462   3.575  0.9584 -1.1590  0.0624
 8933SOL    HW232637  10.285   7.507   3.711  1.3745 -0.3305 -0.3531
 8934SOL     OW32638   3.960   2.576  10.128  0.1579 -0.1065 -0.5061
 8934SOL    HW132639   3.939   2.639  10.197  0.5018 -0.2163 -0.2983
 8934SOL    HW232640   4.047   2.601  10.099  0.1329 -0.2419 -0.6992
 8935SOL     OW32641   4.288  10.554   8.144  0.1318 -0.6927  0.0702
 8935SOL    HW132642   4.259  10.608   8.218 -2.0966 -1.7948  0.0925
 8935SOL    HW232643   4.269  10.609   8.067  0.2201 -0.4615  0.2116
 8936SOL     OW32644   2.217   0.277   2.483  0.0751  0.1423 -0.5892
 8936SOL    HW132645   2.128   0.281   2.517  0.3250  0.4376  0.0335
 8936SOL    HW232646   2.227   0.357   2.431  0.4375  0.8202  0.4931
 8937SOL     OW32647   6.765   8.923   4.051 -0.7366 -0.0134 -0.0859
 8937SOL    HW132648   6.744   9.012   4.024 -1.7364 -0.5085 -1.0015
 8937SOL    HW232649   6.827   8.891   3.986 -0.3755  0.0148  0.2432
 8938SOL     OW32650   8.886  10.517   1.780  0.0883 -0.3039 -0.2237
 8938SOL    HW132651   8.799  10.482   1.800 -0.2344  1.2138  1.2059
 8938SOL    HW232652   8.901  10.585   1.846  1.8447  0.3263 -1.2014
 8939SOL     OW32653   4.897   4.204   4.399  0.0423 -0.1829 -0.4634
 8939SOL    HW132654   4.959   4.168   4.462  0.4905 -1.1958 -1.4455
 8939SOL    HW232655   4.949   4.217   4.319 -1.2945 -2.5707 -1.8356
 8940SOL     OW32656   1.900   4.732   4.043 -0.0520  0.3026  0.5557
 8940SOL    HW132657   1.978   4.759   4.093  1.5873 -2.0117 -0.5948
 8940SOL    HW232658   1.858   4.666   4.098  0.1189 -0.1486  0.1466
 8941SOL     OW32659   6.557  11.863  11.610  0.8027 -0.1501  0.1545
 8941SOL    HW132660   6.558  11.775  11.574  0.3132 -0.1699  0.1825
 8941SOL    HW232661   6.628  11.908  11.565  1.3610 -0.6883  0.4779
 8942SOL     OW32662   1.883  11.197  12.310  0.6030 -0.2588  0.1112
 8942SOL    HW132663   1.855  11.209  12.400 -0.0213  2.0973 -0.3200
 8942SOL    HW232664   1.978  11.205  12.313  0.5599  0.1552  0.5411
 8943SOL     OW32665  10.905   4.307   3.880  0.5129 -0.4682 -0.3610
 8943SOL    HW132666  10.912   4.295   3.974 -0.6813  0.3636 -0.1474
 8943SOL    HW232667  10.841   4.242   3.851  0.4882 -0.3755 -0.5182
 8944SOL     OW32668   5.316   0.651   0.378 -0.4523 -0.2382  0.2244
 8944SOL    HW132669   5.390   0.592   0.364 -0.0802  0.2457  0.1294
 8944SOL    HW232670   5.300   0.647   0.473  0.6322  0.7424  0.4783
 8945SOL     OW32671   0.434  10.215   0.015 -0.2486  0.0269  0.5032
 8945SOL    HW132672   0.389  10.137   0.046 -0.5739 -0.3126 -0.7440
 8945SOL    HW232673   0.373  10.255  -0.047  1.3271 -0.7626 -1.6795
 8946SOL     OW32674   2.696   3.160   0.625  0.4049  0.1408  0.2905
 8946SOL    HW132675   2.753   3.101   0.576  0.5599  0.1942  0.4083
 8946SOL    HW232676   2.611   3.153   0.580  0.9102  1.3354 -0.9195
 8947SOL     OW32677   3.661   9.196  10.795 -0.7450 -0.4373  0.1568
 8947SOL    HW132678   3.617   9.111  10.792  1.3112 -1.5568 -0.2377
 8947SOL    HW232679   3.725   9.192  10.725  0.1927  0.9944  0.8817
 8948SOL     OW32680   3.033   7.981  10.554  0.4511 -0.0697  0.7290
 8948SOL    HW132681   3.041   7.898  10.600 -1.5480 -1.0888 -0.5804
 8948SOL    HW232682   3.001   8.042  10.620  0.8216 -0.6260  1.4409
 8949SOL     OW32683   8.542   0.251  11.716  0.5292  0.1357  0.1551
 8949SOL    HW132684   8.545   0.339  11.754  0.7869  0.6811 -1.0893
 8949SOL    HW232685   8.455   0.245  11.677  1.2490  0.6703 -1.6213
 8950SOL     OW32686   8.781   4.743   1.084  0.1656 -0.3086  0.5267
 8950SOL    HW132687   8.763   4.743   0.990 -1.3657 -2.7615  0.7299
 8950SOL    HW232688   8.723   4.810   1.119  0.7621  0.6418 -0.2368
 8951SOL     OW32689   5.062  12.318   3.338 -0.6584  1.2288  0.2460
 8951SOL    HW132690   5.035  12.323   3.247  0.4326  0.3863 -0.1400
 8951SOL    HW232691   5.153  12.290   3.335 -1.1996 -0.9797  1.6297
 8952SOL     OW32692   2.693   5.343   6.713 -0.3556 -0.1523  0.1378
 8952SOL    HW132693   2.786   5.364   6.706 -0.1224 -1.1640  0.1938
 8952SOL    HW232694   2.662   5.341   6.622 -0.0824 -0.8627  0.0528
 8953SOL     OW32695  11.013   6.757   4.378 -0.3057 -0.6119 -1.1588
 8953SOL    HW132696  11.059   6.774   4.296 -0.6903 -0.3653 -1.3295
 8953SOL    HW232697  11.018   6.662   4.390  1.2947 -0.4752 -0.5397
 8954SOL     OW32698  10.899  10.428   1.528 -0.4932 -0.0296  0.1490
 8954SOL    HW132699  10.895  10.384   1.444 -0.3965  1.4559 -0.6615
 8954SOL    HW232700  10.977  10.392   1.570  0.5243  0.5365 -1.1846
 8955SOL     OW32701   0.075   7.381   3.135 -0.2703 -0.1531  0.0633
 8955SOL    HW132702   0.048   7.324   3.207 -0.6430  0.1634  0.1797
 8955SOL    HW232703   0.171   7.379   3.137 -0.2340 -1.8408 -0.7794
 8956SOL     OW32704   2.747   1.909   2.336  0.3057  0.4221  0.0831
 8956SOL    HW132705   2.756   1.838   2.272  1.0671 -0.4331  1.0853
 8956SOL    HW232706   2.792   1.983   2.296 -0.6761  0.4164 -1.0712
 8957SOL     OW32707   1.257  10.295   9.363 -0.8010 -0.1965  0.1983
 8957SOL    HW132708   1.186  10.330   9.417  0.6708  0.3890  1.8238
 8957SOL    HW232709   1.243  10.200   9.365  0.3951 -0.4296  3.4938
 8958SOL     OW32710   0.350   5.489   7.268  0.5868 -0.5924 -0.7416
 8958SOL    HW132711   0.405   5.556   7.308 -0.3620  0.2896 -0.8869
 8958SOL    HW232712   0.266   5.532   7.253 -0.8903 -2.4662  1.4191
 8959SOL     OW32713  10.666  11.655  11.881 -0.1882  0.6883  0.0844
 8959SOL    HW132714  10.729  11.627  11.946  1.1364  1.2222 -0.9313
 8959SOL    HW232715  10.590  11.599  11.896  1.1167 -1.1051  0.3065
 8960SOL     OW32716   2.545   3.695   3.134  0.3098 -0.0629  0.4333
 8960SOL    HW132717   2.591   3.768   3.092 -0.6826  0.8720  0.9368
 8960SOL    HW232718   2.453   3.718   3.129 -0.1086 -1.7786 -0.2815
 8961SOL     OW32719  10.174   9.982   6.808 -0.2187  0.3564 -0.5813
 8961SOL    HW132720  10.094  10.029   6.785 -1.8039 -1.1700  1.4659
 8961SOL    HW232721  10.144   9.896   6.838  2.2539 -0.5230 -0.4008
 8962SOL     OW32722   6.441  11.532  10.378 -0.8171 -1.2701  0.8645
 8962SOL    HW132723   6.496  11.463  10.341 -0.9466 -0.5214 -0.8449
 8962SOL    HW232724   6.501  11.582  10.434  0.4717 -0.1609 -1.3666
 8963SOL     OW32725   8.658   1.851   8.365  0.0412 -0.7504 -0.0529
 8963SOL    HW132726   8.616   1.858   8.280  1.1224  1.5971 -0.4851
 8963SOL    HW232727   8.725   1.920   8.364  0.9937 -1.5589  2.1814
 8964SOL     OW32728  11.985  10.692   0.084 -0.2151  0.4626  0.0630
 8964SOL    HW132729  11.943  10.687  -0.002  0.7362  3.2124 -0.6506
 8964SOL    HW232730  11.912  10.701   0.145 -0.8376  0.6262 -0.6830
 8965SOL     OW32731   8.230   0.800  11.920 -0.4267 -0.2863 -0.0531
 8965SOL    HW132732   8.208   0.892  11.934  0.8993  0.0139  0.1702
 8965SOL    HW232733   8.319   0.791  11.954 -0.4982 -1.6304 -0.1694
 8966SOL     OW32734   0.640   7.090   0.957  0.5653  0.2034 -0.3183
 8966SOL    HW132735   0.701   7.151   0.999 -1.4141  0.4710  2.4121
 8966SOL    HW232736   0.674   7.003   0.980 -0.7729  0.3346  2.5502
 8967SOL     OW32737   8.710  11.376  10.977  0.1513 -1.2005 -0.0320
 8967SOL    HW132738   8.665  11.361  10.894  0.0386  0.9787 -0.4244
 8967SOL    HW232739   8.644  11.417  11.033  0.5864 -1.4719  0.6992
 8968SOL     OW32740   4.786   4.009   2.259  0.9730 -0.2243  0.2290
 8968SOL    HW132741   4.862   3.980   2.310  1.3320  0.4410  0.0773
 8968SOL    HW232742   4.804   4.100   2.238  0.1977 -0.1004  0.0597
 8969SOL     OW32743  12.160  11.122   5.629  0.1247 -0.0937  0.0377
 8969SOL    HW132744  12.130  11.031   5.634 -0.8713  0.2635  1.0441
 8969SOL    HW232745  12.172  11.148   5.721  2.3986  0.1818 -0.2796
 8970SOL     OW32746   9.591   7.344   7.616 -0.0228 -0.2399 -0.1537
 8970SOL    HW132747   9.629   7.413   7.670 -2.0480  0.5917  0.3261
 8970SOL    HW232748   9.559   7.390   7.538 -1.3527 -0.5978  0.1490
 8971SOL     OW32749   6.457   0.713   8.183 -0.5066  0.0006  0.1696
 8971SOL    HW132750   6.479   0.802   8.156 -0.2013  0.2114  1.0835
 8971SOL    HW232751   6.402   0.724   8.261 -0.5502 -0.6106  0.2329
 8972SOL     OW32752   6.401  11.871  10.440 -0.0387  0.1289 -0.3623
 8972SOL    HW132753   6.395  11.966  10.447  0.3966  0.1120  0.4437
 8972SOL    HW232754   6.363  11.839  10.522  0.6034 -0.3483 -0.2384
 8973SOL     OW32755   8.435   6.488   3.209  0.6680 -0.0717 -0.7864
 8973SOL    HW132756   8.500   6.422   3.232 -0.5609 -0.3697  2.2291
 8973SOL    HW232757   8.411   6.466   3.118  2.3891 -1.9238 -0.8826
 8974SOL     OW32758  10.532   3.264   2.345  0.2909  0.3161  0.3430
 8974SOL    HW132759  10.457   3.270   2.405  0.5113  0.4579  0.6058
 8974SOL    HW232760  10.599   3.217   2.395  0.3401  0.0894  0.0682
 8975SOL     OW32761   3.599   8.597   8.970 -0.0165  0.2368  0.1948
 8975SOL    HW132762   3.651   8.635   9.041 -1.8483 -0.7510  2.1912
 8975SOL    HW232763   3.614   8.502   8.978 -0.0750  0.1326 -0.8819
 8976SOL     OW32764  10.169   6.429   2.975 -0.0344 -0.4399 -0.1550
 8976SOL    HW132765  10.221   6.375   3.034 -1.3017 -0.9057  0.5682
 8976SOL    HW232766  10.174   6.517   3.012  1.7225 -0.0884 -1.1236
 8977SOL     OW32767   0.869   0.815   0.386 -0.7555 -0.5095 -0.0265
 8977SOL    HW132768   0.869   0.743   0.323 -1.0684 -0.0822 -0.5197
 8977SOL    HW232769   0.808   0.786   0.454 -0.2286 -1.0785  0.2129
 8978SOL     OW32770   2.586   8.455   2.548  0.0547 -0.2451 -0.1081
 8978SOL    HW132771   2.681   8.445   2.553 -0.0899 -1.8117  0.2276
 8978SOL    HW232772   2.562   8.414   2.464 -0.3518 -0.1692 -0.0320
 8979SOL     OW32773   5.463   6.934   0.037  0.6677 -0.2373 -0.3519
 8979SOL    HW132774   5.404   7.001   0.070  1.8397 -0.0640  1.5815
 8979SOL    HW232775   5.501   6.895   0.116  2.8290 -0.5846 -1.4889
 8980SOL     OW32776   2.117   8.055   6.350 -0.1352  0.9746  0.1273
 8980SOL    HW132777   2.046   8.050   6.415 -0.0465  2.3308  0.3653
 8980SOL    HW232778   2.075   8.033   6.267 -1.3430  3.5308 -0.0490
 8981SOL     OW32779  10.778   9.280   1.523 -0.1904 -0.0089 -0.4613
 8981SOL    HW132780  10.777   9.187   1.545  0.9170  0.2632  0.9367
 8981SOL    HW232781  10.739   9.285   1.436 -0.4210 -1.7542 -0.4969
 8982SOL     OW32782   4.996   1.717   3.574  0.4970  0.1584 -0.7435
 8982SOL    HW132783   4.986   1.622   3.565  1.8438 -0.1115  0.2655
 8982SOL    HW232784   5.091   1.731   3.570  0.6203  1.0145  2.5788
 8983SOL     OW32785   3.609  12.200   2.197 -0.2409 -0.2461  0.1796
 8983SOL    HW132786   3.606  12.245   2.282  2.1392 -2.1030  1.3720
 8983SOL    HW232787   3.600  12.107   2.219  1.1284 -0.8229 -1.5159
 8984SOL     OW32788  10.925   8.515   5.944  0.0122  0.2796  0.2813
 8984SOL    HW132789  11.007   8.546   5.983  0.9505 -1.3652 -0.2847
 8984SOL    HW232790  10.923   8.422   5.965  0.1262 -0.5220 -2.7906
 8985SOL     OW32791  10.676   1.162   9.104  0.0480  0.0226  0.6491
 8985SOL    HW132792  10.589   1.130   9.128  1.1126 -2.0035  2.0690
 8985SOL    HW232793  10.692   1.235   9.164  0.0591 -0.8116  1.6861
 8986SOL     OW32794   5.962  10.941   6.568  0.4592 -0.0900  0.1894
 8986SOL    HW132795   5.894  10.875   6.583  0.7670 -0.3235  0.5585
 8986SOL    HW232796   5.994  10.964   6.655 -0.9426  1.9409  0.2453
 8987SOL     OW32797   7.855  11.529   4.264  0.6706 -0.3500 -0.1817
 8987SOL    HW132798   7.868  11.608   4.212  0.9274 -0.6489 -0.5775
 8987SOL    HW232799   7.924  11.533   4.331  3.0343 -1.9729 -2.3319
 8988SOL     OW32800  12.321  10.824   0.350  0.2543  0.3018  0.0660
 8988SOL    HW132801  12.349  10.895   0.407 -0.3051  1.5162 -1.1100
 8988SOL    HW232802  12.226  10.837   0.339  0.1101 -0.7142 -0.0620
 8989SOL     OW32803   3.426   4.088   1.586 -0.0298  0.5085 -0.1277
 8989SOL    HW132804   3.355   4.142   1.550 -0.3098  0.6296  0.5910
 8989SOL    HW232805   3.419   4.005   1.539 -0.2893  0.7127 -0.4593
 8990SOL     OW32806  11.413   4.890   0.935 -0.3064  0.3424  0.1947
 8990SOL    HW132807  11.499   4.932   0.931  0.0335 -0.2619  0.8621
 8990SOL    HW232808  11.368   4.933   1.007 -0.6219  0.7601 -0.2505
 8991SOL     OW32809  11.426   2.447   1.379  0.2784  0.1174 -0.0698
 8991SOL    HW132810  11.515   2.422   1.402  0.0280  0.1510  0.9902
 8991SOL    HW232811  11.434   2.495   1.297  1.2608  0.3303  0.1447
 8992SOL     OW32812   7.335  11.578   8.159  0.1946  0.2029 -0.1775
 8992SOL    HW132813   7.412  11.595   8.213  0.4219  0.1340 -0.4785
 8992SOL    HW232814   7.269  11.640   8.191  0.3802  0.2754  0.0678
 8993SOL     OW32815   9.553   5.420   3.200  0.7071  0.2177  0.2564
 8993SOL    HW132816   9.519   5.351   3.257  1.6500 -0.3509  0.1525
 8993SOL    HW232817   9.488   5.428   3.131  0.8578 -0.9874 -0.0416
 8994SOL     OW32818  11.796   1.583  12.275  0.0391 -0.2337  0.3322
 8994SOL    HW132819  11.812   1.676  12.260 -0.2067 -0.3025 -0.3690
 8994SOL    HW232820  11.757   1.580  12.363 -1.8358  0.5436 -0.4233
 8995SOL     OW32821   8.135   5.783   1.621 -0.4727  0.0296 -0.1986
 8995SOL    HW132822   8.180   5.824   1.695 -0.9320  0.0533  0.0699
 8995SOL    HW232823   8.206   5.752   1.564 -0.1128 -0.0424  0.2796
 8996SOL     OW32824   0.170   9.804   4.396  0.4455 -0.2009  0.2618
 8996SOL    HW132825   0.232   9.784   4.327  0.9868  0.7202  0.4629
 8996SOL    HW232826   0.107   9.864   4.355  0.0324 -0.6574  0.2223
 8997SOL     OW32827   5.044   6.604   0.358 -0.0408  0.2394 -0.0769
 8997SOL    HW132828   4.980   6.675   0.358 -0.1453  0.1605  0.9828
 8997SOL    HW232829   5.125   6.644   0.325 -0.3099  0.6432 -0.2530
 8998SOL     OW32830   3.723  11.021  10.733 -0.1297 -0.1769 -0.5859
 8998SOL    HW132831   3.812  11.029  10.698 -0.3556  0.5325 -1.0282
 8998SOL    HW232832   3.734  11.021  10.828  0.3167  0.2964 -0.6346
 8999SOL     OW32833   1.963   0.694   9.711  0.3309 -0.0239  0.0786
 8999SOL    HW132834   2.015   0.774   9.701 -0.9780  0.8718  0.1020
 8999SOL    HW232835   1.921   0.681   9.626 -2.2783  1.4172  1.0180
 9000SOL     OW32836   1.333   5.271   5.848 -0.1592 -0.4030 -0.6887
 9000SOL    HW132837   1.253   5.323   5.841  0.0430 -0.1022 -0.7668
 9000SOL    HW232838   1.308   5.196   5.902 -0.5111 -0.3450 -0.7687
 9001SOL     OW32839  10.032  11.472  11.637  0.1250 -0.2570 -0.6914
 9001SOL    HW132840  10.107  11.416  11.620  0.2184  0.2445 -2.1109
 9001SOL    HW232841   9.976  11.461  11.559 -0.7273  0.2175 -0.1636
 9002SOL     OW32842   7.228   2.992   2.016  0.4069  0.3571  0.2518
 9002SOL    HW132843   7.278   2.946   1.948  1.8746  1.2415  0.7024
 9002SOL    HW232844   7.287   3.060   2.048 -0.4586  0.3214  2.0358
 9003SOL     OW32845  11.474   7.472   5.041  0.6256 -0.4399  0.3784
 9003SOL    HW132846  11.482   7.530   5.116 -0.0922  1.9886 -1.2901
 9003SOL    HW232847  11.380   7.455   5.033  0.6394 -0.2489 -0.2627
 9004SOL     OW32848  11.869   9.776   7.471  0.2863  0.5395  0.0789
 9004SOL    HW132849  11.855   9.715   7.543 -0.9211  0.4641 -0.2103
 9004SOL    HW232850  11.859   9.862   7.510 -1.0605  0.4909 -0.1113
 9005SOL     OW32851   7.638  11.734  10.405 -0.2918 -0.2135 -0.4602
 9005SOL    HW132852   7.647  11.702  10.316 -0.3008  0.2208 -0.6187
 9005SOL    HW232853   7.570  11.801  10.400  0.9469  1.0886 -0.4785
 9006SOL     OW32854   3.594   9.665   9.264 -0.2312 -0.1484 -0.1251
 9006SOL    HW132855   3.609   9.758   9.251 -1.5664  0.2221  0.7959
 9006SOL    HW232856   3.644   9.643   9.343 -0.6956  0.0094  0.2138
 9007SOL     OW32857   9.545   4.643   2.597 -0.0193 -0.4818  0.0792
 9007SOL    HW132858   9.457   4.605   2.604 -1.0276  1.9677  1.9748
 9007SOL    HW232859   9.597   4.594   2.661 -0.6585 -0.2737  0.7672
 9008SOL     OW32860   4.618   4.764   6.121 -0.6297 -0.4077  0.4074
 9008SOL    HW132861   4.569   4.825   6.066  1.2507  1.6781  0.8713
 9008SOL    HW232862   4.640   4.691   6.064  0.0836  1.0409 -1.2863
 9009SOL     OW32863  10.510   6.544   2.195  0.8829  0.2957  0.2698
 9009SOL    HW132864  10.456   6.480   2.242  0.9456  0.2606  0.2939
 9009SOL    HW232865  10.594   6.500   2.183  0.7266  0.1322 -0.2706
 9010SOL     OW32866   6.659   3.477  11.186 -0.0565  0.1231  0.5103
 9010SOL    HW132867   6.669   3.416  11.113  0.8168  1.4747 -0.5576
 9010SOL    HW232868   6.712   3.440  11.256 -2.0247 -1.9472  1.0423
 9011SOL     OW32869   1.993  12.100   1.328  0.0698 -0.0878 -0.5191
 9011SOL    HW132870   1.974  12.180   1.376 -0.7785  0.0241 -1.0150
 9011SOL    HW232871   2.051  12.128   1.257  1.1638 -0.2213  0.3065
 9012SOL     OW32872   9.703  10.411   9.379 -0.6063  1.0291  0.1309
 9012SOL    HW132873   9.701  10.440   9.288 -0.4997 -0.8287 -0.5018
 9012SOL    HW232874   9.715  10.492   9.429 -0.0865  2.0303 -1.5187
 9013SOL     OW32875   8.328   3.635   1.086  0.1423 -1.0376 -0.1133
 9013SOL    HW132876   8.280   3.642   1.003 -1.9167 -2.6494  0.8318
 9013SOL    HW232877   8.334   3.725   1.118  1.3110 -0.3339 -2.1358
 9014SOL     OW32878   5.425   2.793  11.307  0.0159 -0.3620  0.2591
 9014SOL    HW132879   5.503   2.790  11.252  1.0154 -1.9948  1.6526
 9014SOL    HW232880   5.456   2.767  11.393 -1.5810  1.7231  1.5332
 9015SOL     OW32881   1.932  10.439   2.615 -0.0605 -0.0089 -0.4764
 9015SOL    HW132882   1.995  10.367   2.615  1.8557  1.5594  0.6418
 9015SOL    HW232883   1.877  10.422   2.538  0.7531 -2.2502 -0.6511
 9016SOL     OW32884   2.382   0.580   0.802 -0.6511 -0.7799  0.2969
 9016SOL    HW132885   2.405   0.497   0.759 -0.8924 -0.2718 -0.8657
 9016SOL    HW232886   2.463   0.607   0.844 -0.6159 -1.6877  0.8408
 9017SOL     OW32887   4.325   2.888   1.021 -0.4781  0.6813  0.0954
 9017SOL    HW132888   4.248   2.849   0.979 -0.4989  0.6605  0.1526
 9017SOL    HW232889   4.290   2.937   1.095 -0.3794  0.1279  0.5163
 9018SOL     OW32890   5.289   7.822   9.886 -0.3968 -0.0443  0.0826
 9018SOL    HW132891   5.312   7.741   9.931  0.9910  1.5684  2.5621
 9018SOL    HW232892   5.193   7.821   9.882 -0.4134 -1.7722 -0.0027
 9019SOL     OW32893   0.285   3.605  11.138  0.0463  0.1201 -0.2796
 9019SOL    HW132894   0.275   3.541  11.209 -2.6251 -1.1399 -1.6245
 9019SOL    HW232895   0.199   3.646  11.130  1.3352  3.0605 -0.3405
 9020SOL     OW32896  10.784   8.321   0.044  0.4713 -0.2436  0.2669
 9020SOL    HW132897  10.735   8.247   0.080 -1.3596  0.8096  0.0458
 9020SOL    HW232898  10.835   8.284  -0.028  0.1023 -1.4055  0.5922
 9021SOL     OW32899   7.908   1.683   4.207  0.0024 -0.1490 -0.1248
 9021SOL    HW132900   7.828   1.722   4.172  0.2781  0.6277  0.1099
 9021SOL    HW232901   7.912   1.597   4.165 -0.3536  0.2590 -1.0193
 9022SOL     OW32902   4.498   4.597   0.047  0.9741 -0.2539 -0.2222
 9022SOL    HW132903   4.434   4.652   0.092  2.1726 -0.6216  2.0649
 9022SOL    HW232904   4.461   4.508   0.052  0.4161 -0.0994 -1.3280
 9023SOL     OW32905  11.371   5.249   4.410  0.8201 -0.2437 -0.0610
 9023SOL    HW132906  11.402   5.160   4.390  0.2880 -0.3980 -0.2052
 9023SOL    HW232907  11.358   5.289   4.324  0.1444 -0.3469 -0.0088
 9024SOL     OW32908  11.541   8.309   6.439 -0.0590 -0.2758  0.0190
 9024SOL    HW132909  11.539   8.404   6.452 -0.8078 -0.3352  0.3556
 9024SOL    HW232910  11.533   8.273   6.527 -0.5671 -0.6578 -0.1784
 9025SOL     OW32911   8.908   5.945   5.909 -0.2751 -0.7906 -0.4808
 9025SOL    HW132912   8.947   5.858   5.914  1.7412  0.0488 -0.3040
 9025SOL    HW232913   8.984   6.004   5.902 -1.5789  0.9387 -0.5886
 9026SOL     OW32914   3.817   0.630  10.884 -0.4312  0.4045  0.6674
 9026SOL    HW132915   3.746   0.692  10.901 -1.5934 -1.4270  2.9231
 9026SOL    HW232916   3.893   0.686  10.868 -1.6489  2.4383  1.5585
 9027SOL     OW32917   9.710   8.221   7.536 -0.5213  0.6326  0.5789
 9027SOL    HW132918   9.641   8.282   7.508 -1.0414  0.6727  1.8774
 9027SOL    HW232919   9.667   8.165   7.601 -0.0435 -1.0995 -0.5211
 9028SOL     OW32920   5.502   4.384  10.256 -0.3252  0.0262 -0.2085
 9028SOL    HW132921   5.467   4.451  10.315 -0.4966 -1.1892  1.1280
 9028SOL    HW232922   5.427   4.328  10.236  0.3279 -1.2526  0.7918
 9029SOL     OW32923  10.698   9.393   0.797  0.0210  0.1610  0.1776
 9029SOL    HW132924  10.731   9.483   0.802  0.8430 -0.1843  2.3071
 9029SOL    HW232925  10.607   9.398   0.826  0.6882  0.1018  2.5198
 9030SOL     OW32926   3.787   9.577  11.910 -0.2494 -0.5469  0.4920
 9030SOL    HW132927   3.709   9.530  11.881 -0.2934 -0.0726 -0.1845
 9030SOL    HW232928   3.759   9.626  11.987  0.1719 -2.7781  2.1722
 9031SOL     OW32929   4.072   2.330   0.033  0.2950 -0.2102  0.4299
 9031SOL    HW132930   4.031   2.309  -0.051 -2.1272  0.7010  1.2728
 9031SOL    HW232931   4.087   2.424   0.029  0.1426 -0.1560  1.0050
 9032SOL     OW32932  10.768   1.392   3.003 -0.5288  0.0359  0.2483
 9032SOL    HW132933  10.814   1.414   2.922 -1.2961  0.6665 -0.0353
 9032SOL    HW232934  10.736   1.303   2.989 -1.6610  0.5566 -0.6425
 9033SOL     OW32935   3.603  11.101   6.929 -0.6538  0.2626 -0.1029
 9033SOL    HW132936   3.544  11.078   6.858  1.6638 -1.0567 -1.7245
 9033SOL    HW232937   3.585  11.036   6.997 -2.8751  1.5216  0.6223
 9034SOL     OW32938   6.489  11.545   4.457  0.1443  0.7698  0.6037
 9034SOL    HW132939   6.529  11.618   4.503 -0.4516  1.2577  0.3686
 9034SOL    HW232940   6.558  11.479   4.451  0.9933  1.6793 -0.0136
 9035SOL     OW32941   4.071   8.983   4.132  0.0469  0.1284 -0.2066
 9035SOL    HW132942   4.137   9.043   4.168 -0.1826 -0.2519  0.8758
 9035SOL    HW232943   4.038   8.936   4.208 -1.9004  0.7155 -0.6424
 9036SOL     OW32944   0.579   5.216   4.605 -0.0702 -0.3720 -0.4463
 9036SOL    HW132945   0.562   5.300   4.648  1.9460 -1.3945  2.6930
 9036SOL    HW232946   0.496   5.169   4.610 -0.4289  0.3390  0.5372
 9037SOL     OW32947   1.717   4.858   1.815 -0.1683 -0.6471 -0.2250
 9037SOL    HW132948   1.764   4.799   1.756 -1.9237 -0.4461 -1.9334
 9037SOL    HW232949   1.645   4.893   1.762 -0.6842  1.0805  1.4860
 9038SOL     OW32950  10.042  11.909   1.189  0.6182 -0.5418 -0.4435
 9038SOL    HW132951  10.012  11.913   1.280  0.9842 -0.1086 -0.3386
 9038SOL    HW232952  10.064  11.817   1.175 -0.3770 -0.7920 -0.4022
 9039SOL     OW32953   5.536   3.154   6.651  1.2032  0.2620  0.6917
 9039SOL    HW132954   5.573   3.066   6.656  0.6479 -0.0078  0.1647
 9039SOL    HW232955   5.452   3.142   6.608  1.6322  1.2218 -0.4466
 9040SOL     OW32956   1.424   5.989   4.067 -0.3832 -0.0357 -0.1525
 9040SOL    HW132957   1.428   5.912   4.011  1.6992  1.6169 -2.4770
 9040SOL    HW232958   1.493   5.976   4.131 -0.9095 -0.6466  0.3121
 9041SOL     OW32959   5.949  11.685   4.806 -0.0937  0.7373 -0.1378
 9041SOL    HW132960   5.965  11.775   4.778  0.9072  0.6655  0.1919
 9041SOL    HW232961   6.007  11.672   4.881 -0.5541 -0.0429  0.0889
 9042SOL     OW32962   8.700   0.226  10.566 -0.4769 -0.0089 -0.1511
 9042SOL    HW132963   8.779   0.209  10.618 -0.0464  2.3241  0.1039
 9042SOL    HW232964   8.650   0.288  10.619 -1.8851 -0.4752 -0.8907
 9043SOL     OW32965   5.236  11.993  11.496 -0.1070 -0.6957 -0.4098
 9043SOL    HW132966   5.154  11.974  11.543  0.6229 -0.6228  0.9432
 9043SOL    HW232967   5.235  12.088  11.485 -0.3364 -0.7246 -0.6422
 9044SOL     OW32968   8.176  10.490   2.688 -0.4467 -0.0768  0.5694
 9044SOL    HW132969   8.170  10.585   2.687 -1.9854 -0.0988  2.6178
 9044SOL    HW232970   8.216  10.468   2.604  1.5191  2.4371  0.7474
 9045SOL     OW32971   6.203  11.200   6.641  0.2148  0.1698 -0.0693
 9045SOL    HW132972   6.126  11.209   6.698  1.1735  0.4570  1.2423
 9045SOL    HW232973   6.230  11.290   6.623 -0.8007  0.1345 -2.0892
 9046SOL     OW32974   3.878   8.166   0.408  0.3553 -0.0756  0.1718
 9046SOL    HW132975   3.889   8.130   0.320 -0.4728 -1.2334  0.5213
 9046SOL    HW232976   3.942   8.119   0.462  0.4520  0.1990  0.2983
 9047SOL     OW32977   3.358   1.571   5.191  0.7234 -0.3429  0.1306
 9047SOL    HW132978   3.337   1.481   5.167 -0.6410  0.2946 -1.2372
 9047SOL    HW232979   3.401   1.607   5.113  0.3239  0.4872  0.2824
 9048SOL     OW32980  11.754   8.685  10.830  0.7068  0.1602  0.1447
 9048SOL    HW132981  11.672   8.729  10.849  1.3919  1.3211  0.4792
 9048SOL    HW232982  11.808   8.751  10.786  1.2422 -0.7697 -0.6478
 9049SOL     OW32983   6.761   9.243   0.586 -0.3203  0.5453  0.0833
 9049SOL    HW132984   6.712   9.221   0.507  0.9211  0.6564 -0.7427
 9049SOL    HW232985   6.694   9.257   0.652 -1.3671 -0.2357 -0.7643
 9050SOL     OW32986   6.483  10.509   3.844 -0.4344 -0.2382 -0.1829
 9050SOL    HW132987   6.564  10.469   3.877 -0.2321 -1.3136 -1.8914
 9050SOL    HW232988   6.418  10.440   3.848 -0.3703 -0.4454 -2.0926
 9051SOL     OW32989   4.649   7.230   1.389 -0.3725 -0.2804 -0.2735
 9051SOL    HW132990   4.555   7.216   1.398 -0.3629 -0.2420 -0.1006
 9051SOL    HW232991   4.686   7.142   1.391 -0.2881 -0.2368  1.1076
 9052SOL     OW32992   7.877   5.311   3.976  0.1915 -0.0851  0.1862
 9052SOL    HW132993   7.891   5.238   3.916  0.7842  1.0519 -1.1155
 9052SOL    HW232994   7.867   5.270   4.062  0.4594 -1.6865 -0.5122
 9053SOL     OW32995   6.849   3.378   6.241 -0.3369 -0.3577 -0.2125
 9053SOL    HW132996   6.942   3.374   6.265 -0.2098 -2.0163 -0.8418
 9053SOL    HW232997   6.803   3.351   6.321 -0.4154  1.8840  0.5720
 9054SOL     OW32998  12.074  10.824   7.453  0.0007 -0.7284 -0.1701
 9054SOL    HW132999  12.068  10.741   7.406 -1.9641 -0.1484 -1.0590
 9054SOL    HW233000  12.100  10.887   7.387  2.3261 -0.7041  0.6765
 9055SOL     OW33001   7.558   7.427   4.949  0.3572 -0.4686 -0.1010
 9055SOL    HW133002   7.596   7.437   4.861  0.5074  0.6450  0.0714
 9055SOL    HW233003   7.592   7.343   4.980  2.2839  0.2377 -0.1620
 9056SOL     OW33004   2.494   3.200   9.134 -0.2440 -0.0955 -0.5365
 9056SOL    HW133005   2.533   3.199   9.047  0.3721  0.3782 -0.2679
 9056SOL    HW233006   2.413   3.150   9.124 -0.6469  0.7290 -1.5944
 9057SOL     OW33007   8.555   5.914   2.657 -0.1557  0.3037  0.0887
 9057SOL    HW133008   8.561   6.007   2.681 -0.3412  0.4126 -0.2678
 9057SOL    HW233009   8.474   5.909   2.606  1.2397  0.4899 -2.3075
 9058SOL     OW33010   1.747   5.263   4.747  0.0922  0.4032  0.3870
 9058SOL    HW133011   1.730   5.350   4.784  1.7762  0.3680  1.3417
 9058SOL    HW233012   1.792   5.216   4.817  3.2640  0.2582 -1.5710
 9059SOL     OW33013   4.322   0.687   2.776 -0.8765  0.6773 -0.2104
 9059SOL    HW133014   4.353   0.725   2.858 -2.0041  1.9724 -0.3344
 9059SOL    HW233015   4.285   0.603   2.801  0.1518  0.3707  0.3527
 9060SOL     OW33016   0.895   3.811   2.012 -0.1861  0.4224 -0.3801
 9060SOL    HW133017   0.825   3.874   2.002  1.1807  1.8539 -1.4675
 9060SOL    HW233018   0.895   3.761   1.931 -0.6568 -0.3548  0.0866
 9061SOL     OW33019   6.966   6.991  10.703 -0.2472 -0.0909 -0.2294
 9061SOL    HW133020   6.956   7.086  10.713 -0.1211 -0.2526  1.9653
 9061SOL    HW233021   6.973   6.958  10.793 -1.2990 -2.3078 -0.8893
 9062SOL     OW33022   3.742   7.082  11.921 -0.2069 -0.0120  0.8311
 9062SOL    HW133023   3.813   7.105  11.982 -0.0027  1.7836 -0.0165
 9062SOL    HW233024   3.682   7.156  11.925  0.2867  0.6181 -1.8065
 9063SOL     OW33025   1.059   5.775   9.404  0.5406 -0.4460 -0.0673
 9063SOL    HW133026   1.125   5.782   9.336  0.3900  0.8954 -0.1045
 9063SOL    HW233027   1.106   5.742   9.481  1.9238  2.9610  0.7266
 9064SOL     OW33028   5.824   4.698   2.837  0.5873 -0.2193  1.1594
 9064SOL    HW133029   5.847   4.781   2.878  0.3420  0.5836 -0.2751
 9064SOL    HW233030   5.882   4.634   2.878  2.1651  0.9852  0.8755
 9065SOL     OW33031   7.726   7.975  12.007  0.2982  0.3518  0.3829
 9065SOL    HW133032   7.783   8.052  12.015  0.9562  0.1748 -1.8098
 9065SOL    HW233033   7.782   7.901  12.031  0.9386  0.2213 -1.3550
 9066SOL     OW33034   0.688  11.176   1.076 -0.1634 -0.1599 -0.6358
 9066SOL    HW133035   0.601  11.138   1.071  0.6217 -1.9375 -1.4196
 9066SOL    HW233036   0.707  11.181   1.170 -0.7744 -0.5327 -0.4923
 9067SOL     OW33037   2.632   5.613   6.149 -0.0258 -0.0207 -0.2095
 9067SOL    HW133038   2.625   5.684   6.085 -1.1295 -0.1824 -0.2781
 9067SOL    HW233039   2.558   5.556   6.130 -0.5286  0.0506  1.3562
 9068SOL     OW33040   4.664   5.627   3.670 -0.0364  0.2123 -0.3083
 9068SOL    HW133041   4.714   5.708   3.664  0.8016 -0.2496  0.2619
 9068SOL    HW233042   4.615   5.635   3.752  2.0549 -0.9293  1.1374
 9069SOL     OW33043   4.793   3.972   0.244 -0.5087 -0.4718  0.2455
 9069SOL    HW133044   4.788   3.877   0.257  1.5449 -0.8894 -1.3906
 9069SOL    HW233045   4.838   3.982   0.160  0.7186  1.9603  1.0998
 9070SOL     OW33046   5.106   1.791   5.862  0.0608  0.1445 -0.1507
 9070SOL    HW133047   5.102   1.876   5.818 -0.9794 -0.1614 -0.6687
 9070SOL    HW233048   5.192   1.756   5.838  1.2157  1.7198  1.3765
 9071SOL     OW33049  11.572   0.729   3.762 -0.3535  0.1881 -0.1061
 9071SOL    HW133050  11.495   0.689   3.720 -0.3506 -0.5894  0.6030
 9071SOL    HW233051  11.575   0.690   3.849  1.7048 -0.9533 -0.6153
 9072SOL     OW33052  12.200   6.559   9.253  0.2239 -0.0442 -0.0540
 9072SOL    HW133053  12.221   6.643   9.294  1.5520 -0.4003  0.0368
 9072SOL    HW233054  12.105   6.552   9.261  0.3748 -0.0470  2.9073
 9073SOL     OW33055   3.208  11.426   9.256  0.1260  0.7427 -0.4578
 9073SOL    HW133056   3.206  11.489   9.183 -0.1204  2.2860  0.8093
 9073SOL    HW233057   3.289  11.447   9.303  1.3475 -1.6121 -1.3886
 9074SOL     OW33058   4.473   9.771  11.561 -0.0330  0.4158 -0.0556
 9074SOL    HW133059   4.474   9.695  11.619  0.0693  0.5383  0.1003
 9074SOL    HW233060   4.560   9.772  11.521 -0.8117 -1.0218 -1.9542
 9075SOL     OW33061   3.230  11.530   6.069 -0.1583 -0.1511  0.5073
 9075SOL    HW133062   3.139  11.556   6.080  0.2702  1.0419  1.5012
 9075SOL    HW233063   3.231  11.436   6.087 -1.0601 -0.0097  1.3662
 9076SOL     OW33064   5.784  10.945   9.315 -0.1126 -0.0616  0.3213
 9076SOL    HW133065   5.729  10.877   9.353  1.0544 -1.2868 -0.0828
 9076SOL    HW233066   5.809  10.911   9.229 -1.3447  1.9253 -0.9061
 9077SOL     OW33067   4.781   0.755   9.779 -0.5360 -0.0523 -0.0702
 9077SOL    HW133068   4.780   0.811   9.701 -2.0023 -0.5937 -0.4822
 9077SOL    HW233069   4.690   0.756   9.810 -0.1405 -0.5104  1.1569
 9078SOL     OW33070   5.580   8.424   0.724  0.0149 -0.7406 -0.4180
 9078SOL    HW133071   5.654   8.462   0.677  1.5521 -1.2998  1.4063
 9078SOL    HW233072   5.548   8.354   0.668  1.6843 -1.2909 -0.7269
 9079SOL     OW33073   7.492   8.113   8.831  0.1887  0.1685 -0.3790
 9079SOL    HW133074   7.558   8.117   8.762  0.5500  1.0226  0.0071
 9079SOL    HW233075   7.439   8.191   8.818 -0.1769 -0.0294 -0.1084
 9080SOL     OW33076   7.374   2.969   9.996 -0.4919 -0.0301 -0.0402
 9080SOL    HW133077   7.406   3.018   9.921 -1.3442  0.8241  0.1400
 9080SOL    HW233078   7.411   2.881   9.985  1.2331  0.6847 -0.2554
 9081SOL     OW33079   5.105   3.250  11.321 -0.6603 -0.2296 -0.0477
 9081SOL    HW133080   5.102   3.160  11.355 -0.5442  0.3047  1.4242
 9081SOL    HW233081   5.016   3.283  11.334 -0.3698  0.3006  0.6745
 9082SOL     OW33082   6.932   3.098   9.595 -0.3171 -0.2842 -0.0626
 9082SOL    HW133083   6.928   3.167   9.661  1.3492 -0.0874 -0.1374
 9082SOL    HW233084   6.863   3.121   9.532  0.6341  1.7206 -0.4423
 9083SOL     OW33085  10.690   2.646   9.830  0.6717 -0.0365 -0.0848
 9083SOL    HW133086  10.693   2.604   9.916 -0.1079  2.1714  1.1172
 9083SOL    HW233087  10.601   2.630   9.798  0.5891  0.1157  0.0654
 9084SOL     OW33088   0.322  11.379   8.080  0.2434  0.5380  0.2232
 9084SOL    HW133089   0.297  11.465   8.047  0.0703  0.9662  1.4233
 9084SOL    HW233090   0.385  11.346   8.016 -1.2107  0.6579 -1.3459
 9085SOL     OW33091   9.163   4.935   3.788 -0.7677 -0.3537  0.5566
 9085SOL    HW133092   9.219   5.012   3.802 -0.6303  0.4645 -3.2155
 9085SOL    HW233093   9.216   4.861   3.814  0.1730  0.6795  1.6866
 9086SOL     OW33094   9.894  11.515   0.094  0.1308  0.0797  0.2588
 9086SOL    HW133095   9.898  11.501  -0.000 -0.0220 -1.2374  0.4301
 9086SOL    HW233096   9.849  11.438   0.128  0.8226  0.1856  1.4831
 9087SOL     OW33097   6.957   6.782   7.356 -0.5534 -0.6884  0.0736
 9087SOL    HW133098   6.885   6.843   7.374  0.5189  0.3171  1.2215
 9087SOL    HW233099   7.032   6.821   7.401  0.3677 -2.4764  0.1725
 9088SOL     OW33100   4.465   8.156   2.865 -0.3368 -0.3601 -0.0790
 9088SOL    HW133101   4.439   8.088   2.926  0.7336 -0.1298  0.6629
 9088SOL    HW233102   4.541   8.198   2.906  1.3866 -1.1816 -2.2420
 9089SOL     OW33103   8.014   8.531   2.927 -0.0774  0.3154  0.4994
 9089SOL    HW133104   8.066   8.590   2.981 -0.4106  0.7590  0.3494
 9089SOL    HW233105   8.006   8.451   2.978 -0.4499  0.7565  1.1489
 9090SOL     OW33106   1.756   4.902   5.005  0.4263  0.3372 -0.2645
 9090SOL    HW133107   1.831   4.879   5.061  0.6660  0.8299 -0.3804
 9090SOL    HW233108   1.703   4.822   5.003  1.7595 -0.5617 -1.4923
 9091SOL     OW33109   6.760   5.650  12.133 -0.3541 -0.2741  0.2181
 9091SOL    HW133110   6.671   5.683  12.122  0.0121  1.1406  1.2106
 9091SOL    HW233111   6.785   5.678  12.221  1.1050 -0.5911 -0.0740
 9092SOL     OW33112   5.104   4.498   5.930  0.1354  0.6581  0.1013
 9092SOL    HW133113   5.060   4.581   5.950  1.5225  1.4076  0.1271
 9092SOL    HW233114   5.091   4.444   6.009 -1.3651  0.5550 -0.1774
 9093SOL     OW33115   4.215   2.346   6.250 -0.3138  0.2057 -0.1396
 9093SOL    HW133116   4.262   2.280   6.198  1.9338 -0.3363  2.3442
 9093SOL    HW233117   4.164   2.395   6.186  1.1879 -1.2706 -2.6482
 9094SOL     OW33118   8.298  10.101   4.912  0.4092 -0.0047  0.1094
 9094SOL    HW133119   8.223  10.058   4.954 -0.8783  0.9065 -1.1707
 9094SOL    HW233120   8.362  10.031   4.901 -0.6770 -1.0629  0.2489
 9095SOL     OW33121   4.578   7.906   1.013  0.2566 -0.1495  0.0586
 9095SOL    HW133122   4.485   7.895   0.992  0.1571 -0.7308  0.7727
 9095SOL    HW233123   4.620   7.919   0.928 -0.3812 -0.6212 -0.3409
 9096SOL     OW33124   2.615   5.368   7.147 -0.0542  0.2856  0.1368
 9096SOL    HW133125   2.576   5.324   7.223 -0.0759  0.2736  0.1187
 9096SOL    HW233126   2.699   5.401   7.179  0.0371  0.0856  0.1052
 9097SOL     OW33127   3.914   1.050   7.394 -0.2769 -0.5368  0.6818
 9097SOL    HW133128   3.969   1.118   7.433 -1.3410  1.1776 -0.6378
 9097SOL    HW233129   3.825   1.072   7.422 -0.4889 -2.4483  1.6564
 9098SOL     OW33130   9.908  12.314   1.105 -0.2570  0.5920 -0.0840
 9098SOL    HW133131   9.989  12.363   1.120  0.2236  0.5370 -2.1431
 9098SOL    HW233132   9.922  12.271   1.021 -1.9394 -0.4755  0.1403
 9099SOL     OW33133   7.109   3.603   5.240  0.3361 -0.1560 -0.3456
 9099SOL    HW133134   7.200   3.609   5.212  0.4505 -0.4012 -0.0368
 9099SOL    HW233135   7.114   3.591   5.335  0.0440 -1.6124 -0.4895
 9100SOL     OW33136   3.754   6.657   1.332  0.7682 -0.1049  0.1667
 9100SOL    HW133137   3.793   6.742   1.313 -1.6614  0.8873 -0.9113
 9100SOL    HW233138   3.684   6.677   1.395 -0.0118 -1.2354 -0.3078
 9101SOL     OW33139   2.980   7.573  10.892  0.0360 -0.4402  0.4499
 9101SOL    HW133140   2.912   7.559  10.958  0.0447  0.3241  0.6241
 9101SOL    HW233141   3.005   7.665  10.902 -0.7264  0.0044 -1.3358
 9102SOL     OW33142   8.052   6.912   6.199 -0.2002  0.5470 -0.2406
 9102SOL    HW133143   7.986   6.942   6.137  0.9126  0.8284 -1.3276
 9102SOL    HW233144   8.134   6.949   6.166  0.5021  0.2124  1.0805
 9103SOL     OW33145   8.502   4.386  11.594  0.2368 -0.4621  0.1727
 9103SOL    HW133146   8.431   4.435  11.635  0.8656  0.5373  0.0809
 9103SOL    HW233147   8.533   4.327  11.662  2.7536  2.6812  2.0125
 9104SOL     OW33148   1.575  11.219  10.685  0.4145 -0.8185  0.0770
 9104SOL    HW133149   1.506  11.152  10.685  0.7604 -1.3651  4.0182
 9104SOL    HW233150   1.656  11.170  10.671  0.3158 -0.4855 -2.0068
 9105SOL     OW33151   7.936   1.080  10.956  0.0953 -0.0550 -0.2454
 9105SOL    HW133152   7.911   1.074  10.864  2.0394  0.2185 -0.8353
 9105SOL    HW233153   7.954   0.990  10.982  1.1354  0.0311 -0.6306
 9106SOL     OW33154   0.595   8.152   2.116  0.6312  0.3625  0.6188
 9106SOL    HW133155   0.609   8.239   2.079  2.1666  0.2848  0.9835
 9106SOL    HW233156   0.617   8.161   2.209  0.4773 -0.3366  0.7321
 9107SOL     OW33157   9.735   9.967   6.817  0.1441  0.0102 -0.1791
 9107SOL    HW133158   9.691  10.047   6.789 -0.3515 -0.5355 -0.9985
 9107SOL    HW233159   9.672   9.925   6.876 -0.5782 -0.9080 -1.5711
 9108SOL     OW33160   0.504   3.608   9.659 -0.3660  0.0965  0.1248
 9108SOL    HW133161   0.551   3.528   9.681 -1.0692 -0.3220  0.1342
 9108SOL    HW233162   0.571   3.676   9.661  0.0157 -0.2766  1.4069
 9109SOL     OW33163  11.680   4.033  11.201 -0.8836 -0.2608  0.0292
 9109SOL    HW133164  11.703   3.941  11.208 -0.3857 -0.0590  1.2913
 9109SOL    HW233165  11.631   4.040  11.119 -0.4625 -1.5425 -0.3409
 9110SOL     OW33166   0.423   3.080   4.987  0.0425  0.0356  0.2001
 9110SOL    HW133167   0.476   3.055   4.911 -1.0039  0.4186 -0.6922
 9110SOL    HW233168   0.475   3.054   5.063  0.0537 -2.6764 -0.6318
 9111SOL     OW33169   4.547   3.089   3.894  0.0371  0.5175  0.1003
 9111SOL    HW133170   4.595   3.027   3.840 -3.0723 -1.3287 -0.7600
 9111SOL    HW233171   4.594   3.089   3.978  1.1855 -1.6170 -0.4756
 9112SOL     OW33172  11.045   8.130   2.855  0.5375 -0.2769 -0.1115
 9112SOL    HW133173  11.012   8.172   2.935  0.2177 -1.0951  0.1948
 9112SOL    HW233174  11.113   8.189   2.823 -1.9250  2.0779 -1.3949
 9113SOL     OW33175   0.015  12.143   0.647  0.1315 -0.4117 -0.2336
 9113SOL    HW133176  -0.045  12.168   0.717  1.5098  0.4726  0.6968
 9113SOL    HW233177  -0.037  12.147   0.567 -0.3885  3.2787  0.1303
 9114SOL     OW33178   7.205   7.254   4.744 -0.9075  0.0380  0.1697
 9114SOL    HW133179   7.198   7.347   4.767 -1.7943 -0.7380  3.6030
 9114SOL    HW233180   7.298   7.233   4.758 -0.6992  0.3939 -0.6402
 9115SOL     OW33181   9.870  11.608   1.714  0.4859 -0.0542 -0.6379
 9115SOL    HW133182   9.888  11.701   1.724  1.2670  0.0003 -2.2155
 9115SOL    HW233183   9.925  11.566   1.780 -0.2105  0.5989  0.3889
 9116SOL     OW33184   2.188   1.957   2.746 -0.2138 -0.0658  0.2902
 9116SOL    HW133185   2.107   1.943   2.795 -1.0120 -1.5893 -1.3582
 9116SOL    HW233186   2.251   1.895   2.785 -0.7116 -0.9465 -0.2734
 9117SOL     OW33187   6.452   5.106   3.052 -0.3991  0.2595  0.1619
 9117SOL    HW133188   6.480   5.069   2.969 -1.6251  1.7651 -0.9963
 9117SOL    HW233189   6.520   5.170   3.074 -0.2998  0.1837  0.0746
 9118SOL     OW33190   1.297   4.216  10.085  0.5268 -0.2122  0.1214
 9118SOL    HW133191   1.332   4.269  10.014 -0.1099  0.9179  0.6387
 9118SOL    HW233192   1.312   4.125  10.056  2.0730  0.2244 -0.5406
 9119SOL     OW33193  11.295  10.960  10.016  0.5835  0.3024  0.1632
 9119SOL    HW133194  11.378  10.955  10.063  1.7228  0.5185 -1.7127
 9119SOL    HW233195  11.302  10.892   9.949  0.4433  2.0641 -1.7351
 9120SOL     OW33196   3.155  10.079  11.304 -0.2924 -0.3567  0.7417
 9120SOL    HW133197   3.061  10.094  11.288 -0.4127 -2.1719 -0.7027
 9120SOL    HW233198   3.157   9.997  11.354  0.5113  0.1303  1.5228
 9121SOL     OW33199   1.696   1.166  10.006  0.3309 -0.1599  0.3037
 9121SOL    HW133200   1.742   1.242   9.969 -2.1467  1.0765 -0.4167
 9121SOL    HW233201   1.678   1.110   9.931  1.1779 -0.9552  0.6770
 9122SOL     OW33202   3.240   6.191  10.980 -0.4514  0.2630  0.2316
 9122SOL    HW133203   3.283   6.141  11.050  0.0356 -0.3385 -0.4937
 9122SOL    HW233204   3.235   6.280  11.015  1.6708  0.4425  0.2319
 9123SOL     OW33205   7.675   7.070   5.151 -0.4538 -0.2786 -0.3577
 9123SOL    HW133206   7.703   7.157   5.179 -0.5875 -0.5238  0.5660
 9123SOL    HW233207   7.738   7.045   5.083  1.9620 -1.0331  2.0005
 9124SOL     OW33208   1.732   4.448   8.626 -0.0199 -0.0571 -0.1054
 9124SOL    HW133209   1.761   4.403   8.705  1.0183 -1.1588 -1.0945
 9124SOL    HW233210   1.809   4.496   8.596 -0.1674 -0.3104 -0.9023
 9125SOL     OW33211  10.040   1.935   9.107 -0.0524 -0.2498 -0.0630
 9125SOL    HW133212  10.122   1.982   9.094 -0.5895  0.6653 -0.2266
 9125SOL    HW233213  10.028   1.884   9.028 -0.8533  1.5210 -1.1573
 9126SOL     OW33214   4.692   8.812   0.088  0.0891 -0.1069 -0.6481
 9126SOL    HW133215   4.627   8.802   0.158 -2.1499 -0.4862 -2.6292
 9126SOL    HW233216   4.733   8.896   0.105 -0.7951  0.0706  0.7990
 9127SOL     OW33217  11.425   5.309   4.670  0.5703  0.5287 -0.4904
 9127SOL    HW133218  11.411   5.292   4.577  0.1326  0.4164 -0.4068
 9127SOL    HW233219  11.473   5.232   4.701 -0.5128 -0.1134 -0.3321
 9128SOL     OW33220   4.613   2.496   4.822  0.2482 -0.1897  0.2359
 9128SOL    HW133221   4.537   2.483   4.766  0.9770  0.8719 -1.0481
 9128SOL    HW233222   4.578   2.528   4.905 -0.8131 -1.3594  0.2655
 9129SOL     OW33223   8.929   2.435   3.970 -0.1457  0.0979 -0.4817
 9129SOL    HW133224   8.962   2.484   3.894 -1.4782  1.5946 -0.1510
 9129SOL    HW233225   8.843   2.472   3.987  0.5044  0.5425  2.4038
 9130SOL     OW33226   1.430   1.188   2.929 -0.4819 -0.0914  0.0452
 9130SOL    HW133227   1.408   1.279   2.909  0.5826  0.2336  0.3161
 9130SOL    HW233228   1.523   1.179   2.906 -0.7725 -1.3424 -0.7737
 9131SOL     OW33229  12.016   7.471   0.682 -0.4282 -0.1933  0.1102
 9131SOL    HW133230  11.990   7.423   0.760  1.9398 -1.4989  0.2126
 9131SOL    HW233231  11.934   7.503   0.644 -1.6407  0.6661  3.1744
 9132SOL     OW33232   0.672   3.493   3.969 -0.2915  0.1321  0.1300
 9132SOL    HW133233   0.733   3.515   3.899  0.0507  1.7514  0.8828
 9132SOL    HW233234   0.714   3.525   4.049 -1.6181  0.2700  0.8121
 9133SOL     OW33235  11.331  10.563  10.120 -0.4814 -0.0509  0.0923
 9133SOL    HW133236  11.361  10.521  10.201  2.1855  0.6971 -0.4205
 9133SOL    HW233237  11.301  10.491  10.065  0.2578 -0.8708  0.7264
 9134SOL     OW33238   8.696   5.249   9.253 -0.4747  0.1781 -0.1007
 9134SOL    HW133239   8.744   5.201   9.321 -0.0479 -1.0136 -1.1895
 9134SOL    HW233240   8.739   5.334   9.248  0.2671 -0.1638  0.2930
 9135SOL     OW33241  12.050   3.223   6.786  0.5803 -0.2232  0.2578
 9135SOL    HW133242  12.123   3.230   6.848  0.5110  0.9009  0.2259
 9135SOL    HW233243  12.044   3.310   6.746  0.6689 -0.9366 -1.3844
 9136SOL     OW33244   8.901   2.967  12.278  0.3126 -0.1044 -0.2474
 9136SOL    HW133245   8.926   2.972  12.186 -0.1601 -0.8649 -0.4216
 9136SOL    HW233246   8.831   3.031  12.287  1.4822  1.1996 -0.0177
 9137SOL     OW33247   1.651   4.078   8.133 -0.2851  0.4974  0.1968
 9137SOL    HW133248   1.725   4.071   8.073 -0.2458 -0.6731  0.3546
 9137SOL    HW233249   1.574   4.066   8.078 -0.2874  0.3038  0.2400
 9138SOL     OW33250   0.291   1.283   7.189  0.0272 -0.4814 -0.2989
 9138SOL    HW133251   0.273   1.193   7.165  1.5323 -1.1853  1.0356
 9138SOL    HW233252   0.387   1.288   7.194  0.0730  1.5830 -1.7585
 9139SOL     OW33253   9.855   2.166  11.568  0.2369  0.1349 -0.5190
 9139SOL    HW133254   9.866   2.255  11.602 -0.4939  0.0934 -0.1602
 9139SOL    HW233255   9.820   2.117  11.642 -0.2402 -0.2350 -0.9869
 9140SOL     OW33256   4.301  10.184   9.195  0.1010  0.0322 -0.2237
 9140SOL    HW133257   4.361  10.258   9.202 -0.5834  0.4776  3.9494
 9140SOL    HW233258   4.335  10.120   9.257 -1.2346 -1.6810 -1.1810
 9141SOL     OW33259   2.150  11.758   9.758  0.0948  0.2376  0.0843
 9141SOL    HW133260   2.237  11.758   9.720  0.7472  0.5032  1.4960
 9141SOL    HW233261   2.093  11.725   9.689  1.2148  0.6316 -1.0647
 9142SOL     OW33262   4.401  11.278  10.269 -0.2993 -0.1623  0.0692
 9142SOL    HW133263   4.487  11.321  10.263 -0.4609  0.1884  0.2649
 9142SOL    HW233264   4.419  11.186  10.247 -0.3586  0.4429 -2.8424
 9143SOL     OW33265   1.044   8.165   8.075 -0.3380 -0.0012 -0.1265
 9143SOL    HW133266   1.053   8.176   7.980  1.4133 -1.1367 -0.1276
 9143SOL    HW233267   1.007   8.077   8.084 -2.2839  0.7884  0.2434
 9144SOL     OW33268  10.889   2.770   9.724 -0.4119 -0.1418 -0.0940
 9144SOL    HW133269  10.824   2.809   9.665 -1.7258 -0.0169  1.3743
 9144SOL    HW233270  10.838   2.709   9.778  1.0421 -1.4357 -0.1453
 9145SOL     OW33271   3.861  11.914  10.889  0.3471 -0.0692 -0.2356
 9145SOL    HW133272   3.856  11.821  10.867 -0.9492 -0.3437  1.0501
 9145SOL    HW233273   3.872  11.916  10.984 -0.3855  1.0830 -0.1509
 9146SOL     OW33274   7.153   8.485   5.471 -0.2954  0.1669  0.4876
 9146SOL    HW133275   7.244   8.513   5.481 -0.7429  2.7819 -1.6549
 9146SOL    HW233276   7.137   8.488   5.377 -3.8502  4.8032  0.8626
 9147SOL     OW33277  11.523   7.021   3.141 -0.0492  0.3614 -0.0079
 9147SOL    HW133278  11.555   7.078   3.071  1.4386 -1.4749 -0.9176
 9147SOL    HW233279  11.428   7.023   3.132  0.0877  0.7025 -1.6574
 9148SOL     OW33280   3.246   7.985   3.988 -0.0022 -0.0310  0.3102
 9148SOL    HW133281   3.167   8.009   4.035  0.1764 -0.3192  0.7717
 9148SOL    HW233282   3.261   8.057   3.927 -0.2810  0.3167  0.6445
 9149SOL     OW33283   8.508   0.248   7.765 -0.2159  0.1062 -0.4231
 9149SOL    HW133284   8.535   0.180   7.827  1.2296  0.2669 -0.8238
 9149SOL    HW233285   8.456   0.202   7.699 -3.1803  0.1829  1.6554
 9150SOL     OW33286   2.556   8.155   6.490 -0.1548  0.3990 -0.4861
 9150SOL    HW133287   2.514   8.069   6.479  2.7278 -1.2947  0.4901
 9150SOL    HW233288   2.577   8.182   6.400 -1.9427  0.5987 -0.8778
 9151SOL     OW33289  11.592   0.440  11.037 -0.1450  0.0234  0.6066
 9151SOL    HW133290  11.661   0.506  11.035 -0.6332  0.6051 -2.6183
 9151SOL    HW233291  11.511   0.490  11.033 -0.5607 -0.7043 -0.6543
 9152SOL     OW33292   5.240   5.866   7.268 -0.2268 -0.0450  0.6186
 9152SOL    HW133293   5.174   5.935   7.272  0.0405  0.3719 -1.2439
 9152SOL    HW233294   5.313   5.900   7.319 -1.6613 -0.8667  3.4373
 9153SOL     OW33295   5.190   8.056   9.506 -0.3808 -0.3069 -0.9670
 9153SOL    HW133296   5.237   8.044   9.423  0.2638  0.5226 -0.7404
 9153SOL    HW233297   5.259   8.059   9.572 -0.5235  2.9510 -0.8380
 9154SOL     OW33298  10.605  10.388   9.425 -0.0389  0.1276 -0.2839
 9154SOL    HW133299  10.559  10.445   9.487 -0.0930 -0.6494  0.4051
 9154SOL    HW233300  10.694  10.423   9.421  0.3977 -0.6861  1.3995
 9155SOL     OW33301   4.723  10.853   5.490  0.4721  0.6751  0.6622
 9155SOL    HW133302   4.777  10.792   5.440  0.9618  0.5560  1.3134
 9155SOL    HW233303   4.785  10.897   5.548 -0.2271  0.0338  1.9371
 9156SOL     OW33304   2.625   8.444   1.746  0.0172 -0.6762  0.1723
 9156SOL    HW133305   2.588   8.452   1.834  0.8385 -0.3811  0.5064
 9156SOL    HW233306   2.561   8.487   1.689 -0.0214  0.1050  0.7719
 9157SOL     OW33307   0.552   6.911  11.039 -0.1413 -0.2661 -0.2679
 9157SOL    HW133308   0.519   6.947  10.956  1.4874 -0.9426 -1.2692
 9157SOL    HW233309   0.607   6.837  11.012  3.7290  1.8437  1.0471
 9158SOL     OW33310   0.918   9.049   1.775  0.4812  0.1326 -0.0611
 9158SOL    HW133311   0.940   9.057   1.683 -0.3443  0.1741 -0.2627
 9158SOL    HW233312   0.910   8.955   1.790  1.5195  0.0675  0.2038
 9159SOL     OW33313   3.630   0.160   8.073 -0.4812 -0.0002 -0.1349
 9159SOL    HW133314   3.682   0.221   8.125 -2.2464  0.7532  0.8292
 9159SOL    HW233315   3.620   0.083   8.129  0.2340 -0.4689 -0.6353
 9160SOL     OW33316  12.163   2.673   6.357 -0.8240 -0.0013 -0.1195
 9160SOL    HW133317  12.229   2.606   6.338  0.2237  1.0595 -0.3992
 9160SOL    HW233318  12.079   2.629   6.345 -0.1714 -1.3628  0.1163
 9161SOL     OW33319   5.699  10.189   5.018 -0.5221 -0.3756 -0.1577
 9161SOL    HW133320   5.665  10.252   5.080  0.7310 -1.4234  1.6857
 9161SOL    HW233321   5.670  10.104   5.051 -0.0017 -0.9473 -1.1098
 9162SOL     OW33322   8.300  10.542   3.087 -0.0474 -0.0311  0.3645
 9162SOL    HW133323   8.304  10.461   3.137  0.3440  0.2957  0.8739
 9162SOL    HW233324   8.359  10.527   3.013 -1.9200 -1.1425 -0.9730
 9163SOL     OW33325   4.568   0.755   9.316  0.3356  0.0322 -0.1171
 9163SOL    HW133326   4.491   0.806   9.292  1.2238  1.2578 -0.5161
 9163SOL    HW233327   4.599   0.717   9.233 -1.1967 -2.5277  0.3933
 9164SOL     OW33328  10.644   3.927   5.912  0.0015 -0.3155 -0.2052
 9164SOL    HW133329  10.729   3.889   5.890 -0.6407 -1.3822 -0.8925
 9164SOL    HW233330  10.593   3.921   5.831 -0.3636  1.3707 -0.1399
 9165SOL     OW33331   4.909   4.423   6.215  0.1846  0.0944 -0.4994
 9165SOL    HW133332   4.830   4.369   6.215 -0.9560  1.6883 -0.7095
 9165SOL    HW233333   4.884   4.502   6.262  1.9304  0.2969  0.1671
 9166SOL     OW33334   7.421   7.143   7.785 -0.0981  0.0207  0.1282
 9166SOL    HW133335   7.478   7.172   7.714  0.8114 -3.2440 -0.6164
 9166SOL    HW233336   7.347   7.204   7.782  0.4784  0.7355 -2.8632
 9167SOL     OW33337   2.487   5.870   4.197 -0.2847 -0.5582 -0.4769
 9167SOL    HW133338   2.397   5.865   4.166 -0.3421  1.0795 -0.6768
 9167SOL    HW233339   2.531   5.926   4.133  0.4285  0.1244  0.5779
 9168SOL     OW33340   7.127   5.913   5.159 -0.4713 -0.5665 -0.1475
 9168SOL    HW133341   7.140   5.818   5.163 -1.8885 -0.8046 -0.5577
 9168SOL    HW233342   7.131   5.941   5.250 -0.1672 -1.0479 -0.0070
 9169SOL     OW33343   3.993   4.934   7.179  0.0062  0.2283  0.4858
 9169SOL    HW133344   3.980   4.872   7.251 -2.1392 -0.6189 -0.5598
 9169SOL    HW233345   4.044   4.885   7.114 -0.7062 -0.0539  0.1389
 9170SOL     OW33346   7.961  10.992  11.091  0.3009  0.1359 -0.0711
 9170SOL    HW133347   7.929  10.942  11.016 -0.3741 -1.9241  1.5028
 9170SOL    HW233348   7.885  11.001  11.149  1.6032 -1.6270  2.0482
 9171SOL     OW33349   4.217   3.814   2.996  0.1920  0.1183  0.0779
 9171SOL    HW133350   4.254   3.773   2.918 -2.0148 -2.5115  0.2634
 9171SOL    HW233351   4.162   3.884   2.963 -1.0508 -1.2331 -0.8485
 9172SOL     OW33352   0.687   8.813   3.179 -0.9948 -0.1282  0.1271
 9172SOL    HW133353   0.666   8.831   3.088  0.4223  0.4071 -0.1295
 9172SOL    HW233354   0.732   8.728   3.177 -1.9581 -0.6631  0.4931
 9173SOL     OW33355   8.127   5.286   7.099  0.5354 -0.3078  0.1212
 9173SOL    HW133356   8.209   5.309   7.143  0.6488  0.4420 -0.4637
 9173SOL    HW233357   8.099   5.368   7.057  0.4294 -0.9961 -1.1889
 9174SOL     OW33358   0.268   8.395   1.306 -0.1174  0.3132 -0.0672
 9174SOL    HW133359   0.258   8.386   1.401  3.1669  0.5303  0.3988
 9174SOL    HW233360   0.271   8.490   1.292  0.1944  0.2694 -0.2930
 9175SOL     OW33361   0.833   3.433   7.914 -0.5738 -0.2962  0.6104
 9175SOL    HW133362   0.854   3.404   7.825  1.3943  1.0816  0.5721
 9175SOL    HW233363   0.815   3.352   7.962  1.1779 -1.3190 -0.3554
 9176SOL     OW33364   6.925   7.515   7.684 -0.4636 -0.1799 -0.1809
 9176SOL    HW133365   7.015   7.537   7.661 -1.1382  1.9968 -0.9710
 9176SOL    HW233366   6.875   7.532   7.604 -1.4724 -2.4403 -0.1163
 9177SOL     OW33367   2.103   1.782   2.390  0.1614  0.6031  0.2431
 9177SOL    HW133368   2.081   1.704   2.339  1.8481  0.3375 -0.1581
 9177SOL    HW233369   2.078   1.760   2.480  0.9136 -0.5465  0.1927
 9178SOL     OW33370   3.843   8.663  10.336  0.4145  0.9552  0.4998
 9178SOL    HW133371   3.931   8.667  10.373  0.8830  1.5372 -0.6317
 9178SOL    HW233372   3.799   8.594  10.385  1.4445  0.7763  1.1932
 9179SOL     OW33373  12.322  10.103   0.432 -0.0906  0.1812 -0.4185
 9179SOL    HW133374  12.257  10.172   0.421 -1.1975 -0.7149  0.3105
 9179SOL    HW233375  12.334  10.096   0.527 -1.4240 -1.8790 -0.3480
 9180SOL     OW33376   2.767   6.145  10.712 -0.5845 -0.3120  0.6346
 9180SOL    HW133377   2.777   6.237  10.685 -1.4219  0.1089  1.6745
 9180SOL    HW233378   2.847   6.103  10.683 -1.1357  0.2209 -1.9193
 9181SOL     OW33379   0.990  10.289   3.106  0.3235 -0.1329  0.1790
 9181SOL    HW133380   0.925  10.223   3.131 -1.0323  0.2942 -1.9174
 9181SOL    HW233381   0.940  10.371   3.104  1.3798  0.5247  0.2408
 9182SOL     OW33382  12.028   9.459   3.839  0.0809 -0.3412 -0.1539
 9182SOL    HW133383  11.981   9.541   3.822 -0.5506 -0.6261  0.1919
 9182SOL    HW233384  11.959   9.396   3.862  0.6801 -0.6236  0.9259
 9183SOL     OW33385  12.251   6.154   0.571 -0.7200 -0.7858 -0.6884
 9183SOL    HW133386  12.210   6.077   0.531 -1.6300 -0.1432 -1.0229
 9183SOL    HW233387  12.341   6.153   0.537 -0.1964 -2.6110  0.6190
 9184SOL     OW33388   7.536   2.704   4.349 -0.1411  0.2637  0.4999
 9184SOL    HW133389   7.528   2.797   4.373 -2.4693  0.4323 -0.7150
 9184SOL    HW233390   7.532   2.704   4.254  1.4833 -1.0138  0.3812
 9185SOL     OW33391   7.658   9.075   6.639  0.5563 -0.0235 -0.2459
 9185SOL    HW133392   7.685   9.134   6.710  0.8825 -0.7865  0.2811
 9185SOL    HW233393   7.573   9.042   6.666 -0.6164  1.7776 -1.5405
 9186SOL     OW33394   9.964   8.448   2.855  0.2938  0.3604  0.2644
 9186SOL    HW133395   9.943   8.386   2.925  2.4047 -1.3175 -0.4894
 9186SOL    HW233396   9.990   8.528   2.901  1.3203 -0.5991  1.4372
 9187SOL     OW33397  11.106  12.108   7.319 -0.3385  0.2988 -0.1346
 9187SOL    HW133398  11.181  12.105   7.379 -1.4422 -1.7973  1.2619
 9187SOL    HW233399  11.137  12.161   7.245  2.1941  0.2529  0.7848
 9188SOL     OW33400  12.061   0.392   6.529  0.4898 -0.1661 -0.0403
 9188SOL    HW133401  11.966   0.404   6.533  0.5627  0.1413  1.2394
 9188SOL    HW233402  12.073   0.305   6.492 -0.3950 -1.5549  2.6690
 9189SOL     OW33403   3.169  10.976   7.071 -0.2952 -0.6055  0.1441
 9189SOL    HW133404   3.175  10.964   6.976  0.1517  2.1838 -0.2687
 9189SOL    HW233405   3.196  11.067   7.085  1.0783 -1.3693  3.1228
 9190SOL     OW33406   8.109   3.920   7.178 -0.4223 -0.3190 -0.1234
 9190SOL    HW133407   8.053   3.994   7.201  0.4907 -0.4125  2.8634
 9190SOL    HW233408   8.065   3.844   7.218 -0.2043 -1.0386 -1.2251
 9191SOL     OW33409   0.258   5.058  12.229  0.1256  0.1351 -0.0427
 9191SOL    HW133410   0.252   4.965  12.252  0.6103  0.5583  2.0000
 9191SOL    HW233411   0.340   5.088  12.269 -0.6293  1.7106  0.4165
 9192SOL     OW33412   9.789   9.833   2.840  0.0635  0.5219 -0.6160
 9192SOL    HW133413   9.803   9.886   2.919  0.1745  0.6921 -0.7461
 9192SOL    HW233414   9.849   9.872   2.776  0.1352  0.2435 -0.7167
 9193SOL     OW33415   4.534  10.271  12.244 -0.2780 -0.1387 -0.2384
 9193SOL    HW133416   4.625  10.277  12.212 -0.0855 -2.5233 -0.3054
 9193SOL    HW233417   4.540  10.292  12.337  0.0439  1.3889 -0.5757
 9194SOL     OW33418   8.745   4.756   2.320  0.1394  0.3267 -0.2269
 9194SOL    HW133419   8.797   4.703   2.260 -0.9392 -1.2665  0.1660
 9194SOL    HW233420   8.792   4.751   2.403 -0.5439 -1.0777  0.1181
 9195SOL     OW33421  10.458   7.956   0.908  0.3379 -0.0519 -0.1608
 9195SOL    HW133422  10.426   8.013   0.978  1.0556 -0.6818  0.7029
 9195SOL    HW233423  10.550   7.982   0.897  0.2995 -0.1394 -0.6931
 9196SOL     OW33424   7.904   0.543   9.880 -0.6803  0.5719 -0.5087
 9196SOL    HW133425   7.993   0.573   9.859 -0.6961  0.5734 -0.5726
 9196SOL    HW233426   7.873   0.606   9.945 -0.2321 -0.0382  0.3275
 9197SOL     OW33427   7.855  11.336   0.581  0.2414  0.5416 -0.0517
 9197SOL    HW133428   7.942  11.366   0.606  1.3372 -2.4917  0.1471
 9197SOL    HW233429   7.866  11.299   0.494 -1.0153  0.6307 -0.2710
 9198SOL     OW33430  10.148   8.102   3.415  0.0922 -0.1524  0.3885
 9198SOL    HW133431  10.196   8.160   3.355 -0.6460 -0.3715 -0.4280
 9198SOL    HW233432  10.217   8.063   3.469  0.8183 -0.2725 -0.5969
 9199SOL     OW33433   7.454   1.861   8.812 -0.3496 -0.2757 -0.4085
 9199SOL    HW133434   7.528   1.847   8.872  0.6191  2.9695 -0.6582
 9199SOL    HW233435   7.410   1.939   8.846 -0.3439  1.1145 -3.2875
 9200SOL     OW33436  11.412  11.401   1.320 -0.0570 -0.4820 -0.2969
 9200SOL    HW133437  11.425  11.476   1.262 -0.2642  0.8602  1.3012
 9200SOL    HW233438  11.330  11.420   1.366  0.8887 -0.6688  1.5721
 9201SOL     OW33439   4.664   9.657   9.818 -0.0743  0.1639  0.5214
 9201SOL    HW133440   4.701   9.645   9.905 -1.4629 -0.9509  1.0003
 9201SOL    HW233441   4.693   9.744   9.792  1.5566 -0.0569  1.4773
 9202SOL     OW33442   6.647   9.088   1.218 -0.0518  0.1977 -0.6464
 9202SOL    HW133443   6.553   9.095   1.203  0.1619  2.3146 -1.3528
 9202SOL    HW233444   6.682   9.048   1.138 -0.5372 -2.9780  0.5850
 9203SOL     OW33445  11.132   6.285  12.152  0.0731 -0.1163  0.0744
 9203SOL    HW133446  11.084   6.352  12.201  0.6554  0.7420 -0.4946
 9203SOL    HW233447  11.097   6.291  12.063  0.8131  0.1284 -0.2118
 9204SOL     OW33448   4.556   1.169   4.124  0.8804 -0.3253  0.5060
 9204SOL    HW133449   4.545   1.259   4.094  0.1260 -0.0829  1.4483
 9204SOL    HW233450   4.636   1.170   4.176 -0.2464  0.3262  2.3126
 9205SOL     OW33451   8.650   8.321   8.546 -0.0249 -0.5035  0.3948
 9205SOL    HW133452   8.731   8.372   8.551  0.1018 -0.7597  1.0672
 9205SOL    HW233453   8.627   8.321   8.453  0.1333  0.5266  0.3442
 9206SOL     OW33454   7.437   4.683  11.776 -0.4176  0.2171 -0.1029
 9206SOL    HW133455   7.413   4.594  11.799  0.7115  0.0244  0.3909
 9206SOL    HW233456   7.508   4.673  11.712  0.6953  0.7434  1.0201
 9207SOL     OW33457   1.009   3.095   1.198 -0.2642 -0.0998 -0.3698
 9207SOL    HW133458   1.023   3.179   1.156 -0.4489  0.6617  1.0241
 9207SOL    HW233459   1.094   3.072   1.236 -0.4581 -0.0313  0.1170
 9208SOL     OW33460   4.379   9.853   7.585  0.1472  0.3621  0.3980
 9208SOL    HW133461   4.453   9.794   7.588 -0.0674 -0.2958 -3.3566
 9208SOL    HW233462   4.304   9.799   7.610  0.5607  0.4052  1.8155
 9209SOL     OW33463   9.353   8.786   3.171  0.1135  0.2310  0.0256
 9209SOL    HW133464   9.396   8.760   3.090  1.7868 -1.5493  1.3751
 9209SOL    HW233465   9.319   8.704   3.207 -2.1759  1.2437  0.2875
 9210SOL     OW33466   4.077   6.751   0.347  0.2956 -0.1458  0.7804
 9210SOL    HW133467   4.052   6.689   0.278  0.2158  1.3328 -0.5660
 9210SOL    HW233468   4.166   6.724   0.371  0.2535 -0.8075  0.2471
 9211SOL     OW33469   2.862   2.067  10.986 -0.5768 -0.1631  0.1789
 9211SOL    HW133470   2.932   2.041  10.926 -0.6153 -0.6329  0.3318
 9211SOL    HW233471   2.781   2.045  10.939 -0.6077 -0.4815  0.3766
 9212SOL     OW33472  10.047  10.921  10.286 -0.7887  0.1941 -0.4608
 9212SOL    HW133473  10.046  10.894  10.378 -2.3706 -3.0360 -1.2861
 9212SOL    HW233474  10.124  10.878  10.250 -2.0844 -1.5226 -1.3194
 9213SOL     OW33475   5.853   9.414   9.561  0.3367 -0.2767 -0.1669
 9213SOL    HW133476   5.894   9.368   9.488 -1.4476 -1.4856 -0.4650
 9213SOL    HW233477   5.763   9.430   9.533 -0.4096 -0.7991  1.7452
 9214SOL     OW33478   5.076   8.703  10.385 -0.1382 -0.8924 -0.0196
 9214SOL    HW133479   5.156   8.653  10.371  1.2510  1.4400 -1.0166
 9214SOL    HW233480   5.046   8.726  10.297 -0.5207  0.2936  0.3925
 9215SOL     OW33481   5.849   5.060   4.829 -0.5708  0.3276  0.3186
 9215SOL    HW133482   5.808   5.113   4.897 -0.4717  1.0329 -0.1559
 9215SOL    HW233483   5.922   5.114   4.798 -0.4632 -0.0908 -0.1718
 9216SOL     OW33484  11.428   8.635   4.146 -0.2994  0.2582 -0.0113
 9216SOL    HW133485  11.434   8.583   4.066 -0.7002 -0.4899  0.4272
 9216SOL    HW233486  11.337   8.665   4.149  0.1895  1.9370 -0.8170
 9217SOL     OW33487   6.036   0.083  10.220 -0.2864  0.4596 -0.2376
 9217SOL    HW133488   6.066   0.095  10.130 -2.2204  0.9419 -0.8693
 9217SOL    HW233489   5.986   0.001  10.219  1.0762 -0.4234  0.8179
 9218SOL     OW33490   0.363   5.371  11.889 -0.2165  0.4801  0.2152
 9218SOL    HW133491   0.311   5.293  11.911  0.0804  0.0308 -0.6473
 9218SOL    HW233492   0.301   5.444  11.894 -0.7772  0.0332 -0.1220
 9219SOL     OW33493   2.483   0.428   6.619 -0.1343  0.7246 -0.2115
 9219SOL    HW133494   2.491   0.333   6.626  1.2869  0.8769  0.4062
 9219SOL    HW233495   2.519   0.449   6.533  0.8317  0.8342  0.2142
 9220SOL     OW33496   9.123   2.688   2.177  0.0940  0.1592 -0.1087
 9220SOL    HW133497   9.210   2.647   2.168 -0.4196 -0.7469 -1.1202
 9220SOL    HW233498   9.096   2.707   2.087 -0.7967  0.3668  0.1978
 9221SOL     OW33499   1.646  10.624   3.097 -0.2485 -0.3462 -0.0761
 9221SOL    HW133500   1.602  10.694   3.146 -0.0980  0.4010 -0.9741
 9221SOL    HW233501   1.575  10.565   3.071 -0.4296 -0.3176  0.3339
 9222SOL     OW33502   8.518   4.312   7.129 -0.2569 -0.0056  0.5073
 9222SOL    HW133503   8.530   4.401   7.162  2.3180 -0.6122  1.4939
 9222SOL    HW233504   8.581   4.306   7.057 -0.8401 -0.8467  0.0645
 9223SOL     OW33505   1.378  11.412   9.436 -0.3239  0.2155  0.3643
 9223SOL    HW133506   1.396  11.320   9.458 -0.2566  0.3803  1.0158
 9223SOL    HW233507   1.306  11.436   9.493 -0.7591  0.3951 -0.2463
 9224SOL     OW33508   8.436  12.051   0.477  0.3284  0.0030  0.0300
 9224SOL    HW133509   8.511  12.024   0.424 -0.8989 -0.4007 -1.5701
 9224SOL    HW233510   8.401  11.969   0.513 -1.2460 -0.2336 -1.8943
 9225SOL     OW33511   5.466   6.350  10.504 -0.0030 -0.3736 -0.5288
 9225SOL    HW133512   5.556   6.366  10.476 -0.1755 -1.1500 -1.5930
 9225SOL    HW233513   5.432   6.287  10.441 -1.0956 -0.5841  0.2394
 9226SOL     OW33514  11.960   6.447   1.523 -0.1317  0.1371  0.0494
 9226SOL    HW133515  11.918   6.474   1.604  0.6212  3.0193 -0.3813
 9226SOL    HW233516  11.977   6.354   1.534 -2.2798 -0.1002  2.1319
 9227SOL     OW33517   5.040   0.886   7.861 -0.6778  0.3603  0.0944
 9227SOL    HW133518   5.080   0.959   7.910  1.0992 -0.9092  0.6405
 9227SOL    HW233519   5.059   0.906   7.769 -2.5904  1.9168 -0.0251
 9228SOL     OW33520   1.576   7.395   5.445  0.0661 -0.2033  0.0895
 9228SOL    HW133521   1.506   7.460   5.434  0.2862 -0.1189 -0.8857
 9228SOL    HW233522   1.539   7.314   5.412  0.5748 -0.0590 -0.8656
 9229SOL     OW33523   4.576   6.631   1.957  0.1717 -0.0315 -0.3054
 9229SOL    HW133524   4.604   6.619   1.866 -0.8632  0.0915 -0.6577
 9229SOL    HW233525   4.524   6.712   1.954  1.2808  0.7530  0.6743
 9230SOL     OW33526   6.467  11.571   6.263  0.0328  0.0118  0.1544
 9230SOL    HW133527   6.489  11.498   6.205 -1.0549  0.4597 -0.8730
 9230SOL    HW233528   6.433  11.530   6.342 -0.7607 -0.6093 -0.4924
 9231SOL     OW33529   2.070  11.279   9.650  0.3301  0.4084  0.4042
 9231SOL    HW133530   2.001  11.216   9.671 -0.9871  1.6906  0.1235
 9231SOL    HW233531   2.149  11.226   9.639 -0.7133 -1.1723  0.2424
 9232SOL     OW33532  12.189   4.354   3.053 -0.5896  0.1083  0.2411
 9232SOL    HW133533  12.173   4.432   3.107 -1.0419 -0.3837  0.8240
 9232SOL    HW233534  12.282   4.361   3.029 -0.6153  0.8044  0.3236
 9233SOL     OW33535  11.628   3.348   2.393  0.0576  0.5561  0.7454
 9233SOL    HW133536  11.554   3.352   2.333  0.6843 -0.4470 -0.1339
 9233SOL    HW233537  11.704   3.332   2.337  0.6330 -0.6455  1.8040
 9234SOL     OW33538  10.746   7.438   5.587 -0.2840  0.1569  0.0395
 9234SOL    HW133539  10.772   7.482   5.668  1.5345 -0.4602 -0.1691
 9234SOL    HW233540  10.828   7.403   5.551 -1.3558 -1.4574 -0.9562
 9235SOL     OW33541   0.289  10.418   3.310 -0.3876  0.3800 -0.6787
 9235SOL    HW133542   0.278  10.480   3.382  0.1004  0.3394 -0.5644
 9235SOL    HW233543   0.214  10.359   3.318 -0.2187  0.2424 -0.0681
 9236SOL     OW33544   7.679   5.785   2.388  0.2452 -0.7111 -0.1926
 9236SOL    HW133545   7.738   5.807   2.316 -0.1036  2.4083  0.3285
 9236SOL    HW233546   7.604   5.743   2.346  1.0854 -1.1072 -1.3356
 9237SOL     OW33547  10.254   1.609   8.672 -0.3246  0.7850  0.2700
 9237SOL    HW133548  10.334   1.654   8.699 -1.3995  2.2262  1.2277
 9237SOL    HW233549  10.237   1.546   8.742  0.4656 -0.2050 -0.4106
 9238SOL     OW33550   6.994   1.999   0.411  0.0611 -0.1847 -0.0950
 9238SOL    HW133551   6.911   2.025   0.371  0.0432 -1.5913 -1.0581
 9238SOL    HW233552   6.974   1.918   0.457  0.7180 -0.0830  0.3777
 9239SOL     OW33553   3.495   0.396   6.283 -0.9014  0.2251  0.1189
 9239SOL    HW133554   3.518   0.477   6.236 -0.8082 -0.0506 -0.3220
 9239SOL    HW233555   3.401   0.403   6.300 -0.7303  0.8188  0.8636
 9240SOL     OW33556   2.063  10.030   5.062 -0.1025  0.7864 -0.3386
 9240SOL    HW133557   2.108   9.963   5.010  0.1338  1.7798 -1.4551
 9240SOL    HW233558   2.062   9.994   5.151 -1.2265 -1.3231 -1.1248
 9241SOL     OW33559   4.991   3.909   2.381 -0.1346  0.8854 -0.1696
 9241SOL    HW133560   5.007   3.831   2.434 -1.2221  0.6850 -0.1217
 9241SOL    HW233561   5.075   3.928   2.340  0.2386 -0.0729  0.1382
 9242SOL     OW33562   0.057   5.701   1.912 -0.6036 -0.1143  0.4290
 9242SOL    HW133563   0.114   5.687   1.988  0.4649 -1.7709 -0.6233
 9242SOL    HW233564   0.116   5.701   1.837 -1.7746  0.3586 -0.5256
 9243SOL     OW33565   7.631   2.357   3.772  0.9075  0.0463 -0.0864
 9243SOL    HW133566   7.603   2.267   3.752  1.6317 -0.0808 -0.5598
 9243SOL    HW233567   7.560   2.412   3.738  0.0012 -0.3754  1.0587
 9244SOL     OW33568  10.007  11.808   7.820 -0.2941  0.8064 -0.5117
 9244SOL    HW133569   9.934  11.753   7.789  1.6072 -0.7294 -2.5502
 9244SOL    HW233570  10.055  11.751   7.880 -0.2939  1.5392  0.1981
 9245SOL     OW33571   3.953   3.829   8.654  0.3639 -0.1859 -0.0115
 9245SOL    HW133572   3.976   3.792   8.569 -0.7734 -0.0525 -0.4001
 9245SOL    HW233573   4.032   3.820   8.707  1.1020 -0.2276 -1.0931
 9246SOL     OW33574   9.345   8.686   0.138 -0.5396 -0.3072 -0.6409
 9246SOL    HW133575   9.343   8.767   0.190 -1.2885 -0.2182 -0.7960
 9246SOL    HW233576   9.435   8.656   0.144 -1.2075 -2.2529  3.7544
 9247SOL     OW33577   0.343   4.632  11.984 -0.2006 -0.4183  0.2657
 9247SOL    HW133578   0.327   4.554  11.931  2.3827  0.4878 -2.0998
 9247SOL    HW233579   0.426   4.615  12.028 -0.4380  0.3495  1.0340
 9248SOL     OW33580   5.389   9.076   9.941  0.4311 -0.0161 -0.0797
 9248SOL    HW133581   5.369   9.116   9.857 -0.8286 -0.9736 -0.2718
 9248SOL    HW233582   5.478   9.042   9.932  0.4825  0.3149 -0.8464
 9249SOL     OW33583   5.154   9.582  11.883 -0.0790 -0.0716  0.7984
 9249SOL    HW133584   5.106   9.541  11.955 -1.1324  1.3901  0.9600
 9249SOL    HW233585   5.216   9.640  11.926 -0.9015  1.0173  0.5478
 9250SOL     OW33586  12.030   3.117   1.048  0.3704  0.0924 -0.0747
 9250SOL    HW133587  12.112   3.108   1.095  0.4231  1.4364  0.1300
 9250SOL    HW233588  12.015   3.032   1.008  0.5346 -0.9744  2.0314
 9251SOL     OW33589  10.178   8.810   5.364  0.1734  0.0812  0.1453
 9251SOL    HW133590  10.198   8.775   5.276  0.5514 -0.3076  0.3780
 9251SOL    HW233591  10.095   8.855   5.353  0.3154  0.2153 -0.4648
 9252SOL     OW33592  10.627   9.013   9.491  0.1319 -0.0087 -0.0948
 9252SOL    HW133593  10.607   9.005   9.398  0.0875 -1.6337  0.0173
 9252SOL    HW233594  10.676   9.095   9.498 -1.9315  1.3957 -1.1464
 9253SOL     OW33595   3.297  10.364   0.228  0.4236 -0.2366  0.2503
 9253SOL    HW133596   3.212  10.351   0.271  0.0598  4.3863  1.4317
 9253SOL    HW233597   3.352  10.294   0.261 -2.2921 -2.0947  1.1802
 9254SOL     OW33598  10.557   3.826   3.700  0.4705  0.3473 -0.0663
 9254SOL    HW133599  10.480   3.881   3.684 -0.2782 -0.9990 -1.2664
 9254SOL    HW233600  10.521   3.747   3.741  1.2705 -0.1242 -0.2682
 9255SOL     OW33601   4.098   5.336   2.714  0.3650 -0.1782  0.1235
 9255SOL    HW133602   4.015   5.339   2.761  0.6575  0.6110  0.6110
 9255SOL    HW233603   4.137   5.423   2.728  2.9068 -1.5783  2.9413
 9256SOL     OW33604   6.675   9.322   1.829 -0.1769 -0.2950  0.3767
 9256SOL    HW133605   6.676   9.350   1.738 -3.2816  2.7643  1.0647
 9256SOL    HW233606   6.608   9.254   1.833 -1.6207  1.0886  0.6287
 9257SOL     OW33607   0.716   3.160   0.358 -0.4494 -0.0741 -0.2606
 9257SOL    HW133608   0.685   3.085   0.306  0.4109  1.4590 -3.2131
 9257SOL    HW233609   0.671   3.235   0.320  1.6839  1.3671 -0.0572
 9258SOL     OW33610   9.345   9.220   2.337 -0.5723  0.0556  0.5751
 9258SOL    HW133611   9.431   9.202   2.375  0.3159  2.9225  0.1345
 9258SOL    HW233612   9.319   9.304   2.374 -1.2847  1.2480 -2.3469
 9259SOL     OW33613   3.031  10.491   0.090  0.1221 -0.1970  0.0279
 9259SOL    HW133614   3.053  10.431   0.161 -0.0291  0.8733  1.0251
 9259SOL    HW233615   3.094  10.562   0.098 -0.7077  0.5733 -0.0797
 9260SOL     OW33616   8.245   6.545  10.895  0.5982  0.1919  0.0282
 9260SOL    HW133617   8.192   6.592  10.831  2.3043 -1.3924 -2.7459
 9260SOL    HW233618   8.311   6.608  10.923 -0.1149  0.8714  0.2250
 9261SOL     OW33619   5.856   4.561   1.159 -0.3367  0.0250  0.4647
 9261SOL    HW133620   5.792   4.611   1.209  0.3264  1.0257  0.3578
 9261SOL    HW233621   5.846   4.471   1.189 -0.0014  0.5767  2.3924
 9262SOL     OW33622   4.975   0.647   1.678 -0.4363  0.1714 -0.3005
 9262SOL    HW133623   5.042   0.703   1.639 -1.2103  0.9383 -0.5681
 9262SOL    HW233624   5.022   0.592   1.741  0.8723 -1.1210 -2.2798
 9263SOL     OW33625   5.403  11.328  11.488  0.6777  0.2675  0.7961
 9263SOL    HW133626   5.338  11.342  11.419  1.9429 -0.2501 -0.5759
 9263SOL    HW233627   5.450  11.411  11.495  1.1376  0.0508  0.3680
 9264SOL     OW33628   0.411   6.211   2.568 -0.2036  0.4074 -0.8027
 9264SOL    HW133629   0.488   6.244   2.615  0.6770 -0.1602 -1.8059
 9264SOL    HW233630   0.409   6.260   2.486 -0.5751  0.0235 -1.0306
 9265SOL     OW33631   9.603   8.915   9.895 -0.5436  0.3854 -0.3000
 9265SOL    HW133632   9.638   8.865   9.821  0.5886  1.0333 -0.2296
 9265SOL    HW233633   9.624   8.863   9.972 -4.1722 -1.7176 -0.4900
 9266SOL     OW33634   1.440  11.810   2.200 -0.1210 -0.2549  0.3180
 9266SOL    HW133635   1.480  11.756   2.131  0.3691  0.1026  0.3163
 9266SOL    HW233636   1.375  11.753   2.240  0.5220 -0.9137  0.4447
 9267SOL     OW33637   4.529   9.345   1.891  0.1739  0.5292  0.1313
 9267SOL    HW133638   4.457   9.407   1.881  0.1909  0.4197 -0.8485
 9267SOL    HW233639   4.487   9.263   1.919  0.0147  0.6749  0.3211
 9268SOL     OW33640   4.735   5.580  10.488  0.0534  0.1028  0.1063
 9268SOL    HW133641   4.825   5.595  10.518  0.3375 -2.0796  0.4966
 9268SOL    HW233642   4.741   5.582  10.392  0.6845 -0.7571  0.1158
 9269SOL     OW33643   0.700   2.622  11.114 -0.0446 -0.0353  0.9365
 9269SOL    HW133644   0.742   2.658  11.192  1.4326  2.1968 -0.7649
 9269SOL    HW233645   0.711   2.527  11.124  0.6198  0.2085  3.1421
 9270SOL     OW33646   8.629   1.711  11.810 -0.2228 -0.3459  0.1580
 9270SOL    HW133647   8.542   1.676  11.831 -0.3522 -0.4111 -0.4919
 9270SOL    HW233648   8.677   1.705  11.893 -0.9232 -0.0398  0.5951
 9271SOL     OW33649   7.021   5.647   4.927 -0.1477  0.5586 -0.3367
 9271SOL    HW133650   7.051   5.557   4.938  0.1926  0.7717  0.5549
 9271SOL    HW233651   7.100   5.696   4.907 -0.2595  0.7415 -0.3301
 9272SOL     OW33652   4.504  11.030   2.286  0.5943  0.1623  0.2917
 9272SOL    HW133653   4.432  11.085   2.315  1.3210  0.9236  0.7097
 9272SOL    HW233654   4.486  11.013   2.193  0.2476  0.9277  0.2132
 9273SOL     OW33655   5.311  10.668   5.694 -0.0150  0.1983 -0.0897
 9273SOL    HW133656   5.305  10.684   5.788 -0.5070 -0.3365 -0.0256
 9273SOL    HW233657   5.238  10.610   5.675 -0.1296  0.5860 -0.8675
 9274SOL     OW33658  11.817   9.200   6.986 -0.4971  0.1807  0.0586
 9274SOL    HW133659  11.869   9.120   6.990 -1.4162 -0.4064  1.8493
 9274SOL    HW233660  11.726   9.169   6.982 -1.1687  0.8759  4.3877
 9275SOL     OW33661   7.258  11.432   3.377  0.8228  0.7493 -0.3327
 9275SOL    HW133662   7.289  11.519   3.400  3.0436 -0.5933  2.4427
 9275SOL    HW233663   7.172  11.425   3.420  0.6212  1.5535 -0.5925
 9276SOL     OW33664   9.015   6.161   8.284  0.3832  0.7506  0.2058
 9276SOL    HW133665   8.967   6.244   8.294 -0.8949  0.0517  0.0907
 9276SOL    HW233666   8.947   6.096   8.267  1.5545  0.0747 -2.3593
 9277SOL     OW33667   7.409   7.400   9.499  0.3780 -0.3849  0.3138
 9277SOL    HW133668   7.428   7.434   9.411 -1.4838 -0.4322 -0.1550
 9277SOL    HW233669   7.350   7.326   9.484 -1.5034  0.7446  1.6377
 9278SOL     OW33670   9.744   8.520  11.976  0.1266 -0.4860 -0.3415
 9278SOL    HW133671   9.826   8.482  12.009  0.0963 -1.0732 -0.9192
 9278SOL    HW233672   9.772   8.591  11.918  0.1854  0.3389  0.6639
 9279SOL     OW33673   6.645   1.165   7.012 -0.0192 -0.1849  0.1879
 9279SOL    HW133674   6.641   1.085   6.958 -0.5421  0.0884 -0.1853
 9279SOL    HW233675   6.561   1.167   7.057  0.8241 -1.0038  1.9054
 9280SOL     OW33676   8.372   7.982   9.278 -0.0044  0.2928  0.2004
 9280SOL    HW133677   8.373   8.062   9.332  0.4075  1.0548 -0.8981
 9280SOL    HW233678   8.358   7.911   9.341  0.2401  1.1693  1.2827
 9281SOL     OW33679   2.517   5.251   2.729 -0.5325 -0.8793  0.5483
 9281SOL    HW133680   2.456   5.301   2.675 -0.5873 -0.4702  0.9834
 9281SOL    HW233681   2.526   5.302   2.809  1.0708 -0.4885  0.1399
 9282SOL     OW33682   6.269   3.362   8.426 -0.2864  0.5112  0.2779
 9282SOL    HW133683   6.297   3.451   8.402  0.5919 -0.1891 -1.5463
 9282SOL    HW233684   6.326   3.305   8.374 -0.2025 -1.1599  2.1044
 9283SOL     OW33685   5.088   3.413  12.118 -0.1310 -0.3376  0.1657
 9283SOL    HW133686   5.095   3.485  12.180  0.6355  0.0041 -0.3060
 9283SOL    HW233687   5.170   3.365  12.127 -0.6165 -1.1458  0.4529
 9284SOL     OW33688   1.286   3.577   3.237 -0.6289 -0.3310  0.5736
 9284SOL    HW133689   1.320   3.531   3.314 -1.8624 -0.2507  1.1785
 9284SOL    HW233690   1.363   3.620   3.200  0.1547 -1.1378  1.2150
 9285SOL     OW33691   9.143   8.351   7.084  0.6531 -0.1583  0.0620
 9285SOL    HW133692   9.163   8.383   7.171 -2.3895 -1.4066  1.3259
 9285SOL    HW233693   9.114   8.261   7.097  1.3093 -0.8297 -2.4301
 9286SOL     OW33694   0.501   7.271  10.635  0.5236  0.5908 -0.3226
 9286SOL    HW133695   0.500   7.217  10.556 -1.5206  0.3046 -0.1461
 9286SOL    HW233696   0.409   7.285  10.656  1.0152  0.5236  2.1246
 9287SOL     OW33697   9.603  12.317   0.660 -0.1662  0.1951  0.3435
 9287SOL    HW133698   9.613  12.356   0.573 -0.0906 -1.7297 -0.5475
 9287SOL    HW233699   9.671  12.250   0.665 -0.1259  0.3148  1.9300
 9288SOL     OW33700   2.110   6.925   3.418  0.2400  0.2950  0.1332
 9288SOL    HW133701   2.150   7.000   3.461  0.0260  1.4607 -1.5851
 9288SOL    HW233702   2.172   6.901   3.349  1.0697 -2.1824  1.6242
 9289SOL     OW33703   3.443   2.249  11.492  0.4287 -0.8942 -0.0641
 9289SOL    HW133704   3.486   2.275  11.574  0.7010 -0.1398 -0.4420
 9289SOL    HW233705   3.503   2.184  11.454  1.2711  0.1872 -0.6119
 9290SOL     OW33706   2.341  12.182   5.352  0.2260 -0.7019 -0.4912
 9290SOL    HW133707   2.372  12.180   5.443  1.7933 -1.8816 -1.0079
 9290SOL    HW233708   2.287  12.261   5.347  0.4054 -0.4107  1.3590
 9291SOL     OW33709   7.949   5.862   7.775  0.3833 -0.2451  0.4512
 9291SOL    HW133710   7.913   5.913   7.847  0.7071  1.7432 -0.7191
 9291SOL    HW233711   7.874   5.838   7.720  0.4375  0.8764 -0.1350
 9292SOL     OW33712   0.432   3.383   7.756  0.3895 -0.1479  0.0384
 9292SOL    HW133713   0.520   3.400   7.722  0.9013 -0.6656  1.0594
 9292SOL    HW233714   0.375   3.395   7.681  1.3261  0.2443 -0.6341
 9293SOL     OW33715   7.401   6.641  11.815 -0.0053 -0.6833  0.4772
 9293SOL    HW133716   7.432   6.622  11.904  1.4226 -0.0556  0.1382
 9293SOL    HW233717   7.481   6.649  11.763 -0.8000 -0.3218 -0.7234
 9294SOL     OW33718   4.846   3.330   9.378 -0.1947  0.6792 -0.6545
 9294SOL    HW133719   4.873   3.422   9.384 -1.2538  1.1210 -2.1356
 9294SOL    HW233720   4.883   3.299   9.295  0.4027 -0.3513 -0.0332
 9295SOL     OW33721  12.049   5.538   0.227  0.1096 -0.2757  0.0638
 9295SOL    HW133722  11.992   5.517   0.300 -0.6384  0.1448 -0.3908
 9295SOL    HW233723  12.022   5.480   0.156  1.2942 -1.1795  0.3044
 9296SOL     OW33724   3.573   1.541   4.211  0.7780 -0.6739 -0.1533
 9296SOL    HW133725   3.504   1.491   4.167  0.4097 -1.5395  1.3285
 9296SOL    HW233726   3.531   1.573   4.291  0.9355  2.2670 -1.1523
 9297SOL     OW33727   4.826  11.005   9.644 -0.1655  0.0117 -0.0939
 9297SOL    HW133728   4.909  10.993   9.597 -0.1220 -1.4631  0.3086
 9297SOL    HW233729   4.768  11.048   9.581  0.2052 -1.0164 -1.1639
 9298SOL     OW33730  10.989   1.187   3.596  0.2112  0.0709  0.2127
 9298SOL    HW133731  11.050   1.114   3.586  0.2603 -0.0755  1.4774
 9298SOL    HW233732  10.991   1.208   3.689  0.1317  1.6458 -0.1235
 9299SOL     OW33733   6.056   7.382   9.434  0.3040 -0.3826 -0.1862
 9299SOL    HW133734   6.043   7.420   9.347  1.9030 -0.3183 -0.4302
 9299SOL    HW233735   6.092   7.453   9.486 -0.7576 -0.3898  0.5886
 9300SOL     OW33736   3.240   8.001   9.699 -0.4554 -0.1072  0.5219
 9300SOL    HW133737   3.230   8.040   9.786 -0.1362  1.4329 -0.0847
 9300SOL    HW233738   3.282   7.916   9.715  1.1291  0.8413  1.7821
 9301SOL     OW33739  10.775   4.465   6.513  1.0382  0.3978  0.3494
 9301SOL    HW133740  10.816   4.383   6.486  3.8462  1.7894  0.0191
 9301SOL    HW233741  10.806   4.479   6.603  1.9350  1.8322 -0.1482
 9302SOL     OW33742   1.479  11.200   4.533 -0.3376 -0.4826  0.6577
 9302SOL    HW133743   1.410  11.155   4.484  0.3165 -1.1414  0.3269
 9302SOL    HW233744   1.507  11.271   4.475 -0.3014 -0.6079  0.5208
 9303SOL     OW33745   5.067   9.501   0.759  0.0207 -0.1080  0.1377
 9303SOL    HW133746   5.014   9.570   0.800 -1.1172 -1.2479  0.6394
 9303SOL    HW233747   5.108   9.544   0.684 -1.8939  0.7499 -0.4775
 9304SOL     OW33748   2.595   3.484  11.308  0.0376  0.2466 -0.7029
 9304SOL    HW133749   2.568   3.574  11.290 -3.7252 -0.8062 -1.0824
 9304SOL    HW233750   2.530   3.451  11.370  1.7530 -2.0241  0.0280
 9305SOL     OW33751   5.590   0.368   1.434  0.2121  0.1219 -0.4554
 9305SOL    HW133752   5.614   0.350   1.525  1.0162 -1.2917 -0.9116
 9305SOL    HW233753   5.657   0.323   1.382  0.8440  2.4569 -1.7672
 9306SOL     OW33754   6.032   3.629  12.202  0.5541  0.1892  0.7335
 9306SOL    HW133755   6.056   3.634  12.110  0.6685  0.3496  0.7714
 9306SOL    HW233756   5.975   3.704  12.216  0.6645  0.2567  0.8293
 9307SOL     OW33757  10.631   8.557  10.008 -0.2898 -0.3090 -0.3900
 9307SOL    HW133758  10.694   8.599   9.950 -1.1027  1.0603 -0.3245
 9307SOL    HW233759  10.643   8.463   9.992  0.7582 -0.0277 -1.4216
 9308SOL     OW33760   6.299   2.963   1.463  0.2748 -0.5035 -0.1171
 9308SOL    HW133761   6.386   2.964   1.504 -0.2188 -1.3871  0.9946
 9308SOL    HW233762   6.241   2.929   1.531 -1.3581  2.1307 -0.0764
 9309SOL     OW33763   5.594  10.196  10.133  0.3922 -0.5922 -1.4130
 9309SOL    HW133764   5.575  10.288  10.111 -0.3764 -0.7324 -1.3568
 9309SOL    HW233765   5.522  10.147  10.095  0.3897 -1.0975 -0.7764
 9310SOL     OW33766   8.694   6.988   5.128  0.0341 -0.1419 -0.5857
 9310SOL    HW133767   8.714   6.897   5.147 -0.0725  0.1245  0.9037
 9310SOL    HW233768   8.674   6.989   5.034  2.6168 -1.1770 -1.2250
 9311SOL     OW33769   3.386  10.533   7.318  0.9047 -0.3083  0.0612
 9311SOL    HW133770   3.307  10.527   7.371  0.9783  1.8124  0.4876
 9311SOL    HW233771   3.362  10.493   7.234 -0.5492  0.0655  0.2663
 9312SOL     OW33772   8.447   4.643   4.147  0.1840 -0.3662 -0.3806
 9312SOL    HW133773   8.376   4.628   4.209  1.0566 -0.2128  0.6668
 9312SOL    HW233774   8.434   4.575   4.080 -1.0591 -0.2137 -0.3234
 9313SOL     OW33775   4.146   7.326  11.514  0.5054  0.0724  0.4795
 9313SOL    HW133776   4.082   7.360  11.452  0.7741 -1.1820 -0.5355
 9313SOL    HW233777   4.166   7.400  11.572 -0.2665  1.0699 -0.4980
 9314SOL     OW33778   8.415  11.566   4.795  0.8617 -0.3647  0.2061
 9314SOL    HW133779   8.350  11.497   4.805 -0.9757  1.4089  1.1214
 9314SOL    HW233780   8.455  11.574   4.882  0.0385  0.6717  0.5019
 9315SOL     OW33781   0.838  10.468  10.545  0.0862  0.0654 -0.3105
 9315SOL    HW133782   0.912  10.450  10.603  0.1267 -0.4595 -0.5160
 9315SOL    HW233783   0.787  10.387  10.546 -1.2481  0.8717  0.9160
 9316SOL     OW33784   8.968   3.988   3.264  0.4656  0.3292  0.3575
 9316SOL    HW133785   8.988   4.074   3.226  0.3060  0.9622  1.6338
 9316SOL    HW233786   9.038   3.931   3.232 -0.3779  0.4610 -1.9313
 9317SOL     OW33787   5.476   2.344   9.971  0.7287 -0.5526 -0.2457
 9317SOL    HW133788   5.494   2.325   9.879 -0.8683 -1.9268 -0.3208
 9317SOL    HW233789   5.484   2.440   9.978 -1.8352 -0.0298 -2.5119
 9318SOL     OW33790   0.792  10.072   3.373  0.4033 -0.1852  0.2628
 9318SOL    HW133791   0.700  10.095   3.386 -0.1206 -2.0688  0.1995
 9318SOL    HW233792   0.806  10.083   3.279  0.5711  1.1382  0.4267
 9319SOL     OW33793   6.079   6.541   9.500  0.2845 -0.5443  0.3912
 9319SOL    HW133794   6.040   6.624   9.527 -0.4367 -0.5505 -0.5689
 9319SOL    HW233795   6.018   6.474   9.530  0.9113 -0.7491  1.2459
 9320SOL     OW33796   9.249   0.002  11.673 -0.8091  1.0716 -0.5187
 9320SOL    HW133797   9.276   0.027  11.585 -0.7408  0.4246 -0.6838
 9320SOL    HW233798   9.229  -0.092  11.667  0.7948  0.6256  0.5225
 9321SOL     OW33799   6.551  10.164   2.405 -0.3456  0.3027 -0.0946
 9321SOL    HW133800   6.483  10.221   2.369  1.7155  2.4284 -0.8958
 9321SOL    HW233801   6.579  10.209   2.485 -0.1380 -0.7490  0.4381
 9322SOL     OW33802   5.026   8.911   9.025 -0.3721 -0.0701 -0.1565
 9322SOL    HW133803   4.992   8.822   9.030 -1.4435  0.3471  0.2811
 9322SOL    HW233804   5.065   8.927   9.111 -0.6228  0.0497 -0.0636
 9323SOL     OW33805   4.726  11.456   5.000 -0.8340 -0.0117 -0.0510
 9323SOL    HW133806   4.738  11.479   5.093 -0.6789 -0.5911  0.0759
 9323SOL    HW233807   4.701  11.538   4.959 -2.0910  0.0106  0.7120
 9324SOL     OW33808   5.466   6.835   3.934 -0.2678  0.2675 -0.2340
 9324SOL    HW133809   5.500   6.858   3.847 -0.3684  1.5487  0.0347
 9324SOL    HW233810   5.373   6.816   3.920 -0.1042 -0.3430 -0.5222
 9325SOL     OW33811   0.314   2.991   1.768 -0.1725 -0.4538 -0.2421
 9325SOL    HW133812   0.386   2.938   1.733  0.7015  1.0576 -0.8174
 9325SOL    HW233813   0.243   2.979   1.706  0.4609  0.0566 -1.0888
 9326SOL     OW33814  12.226   1.888   3.050 -0.6409  0.1331 -0.0692
 9326SOL    HW133815  12.285   1.862   3.122  0.9825  1.1340 -0.9755
 9326SOL    HW233816  12.196   1.805   3.013  0.4740 -0.4135  0.2043
 9327SOL     OW33817   6.407  10.342   0.429 -0.6449  0.4251 -0.5572
 9327SOL    HW133818   6.359  10.390   0.496 -0.9547 -0.1381 -0.3702
 9327SOL    HW233819   6.346  10.276   0.397 -0.3707  0.4368 -1.1270
 9328SOL     OW33820   8.451   9.730   1.688  0.0620 -0.2153  0.3239
 9328SOL    HW133821   8.527   9.779   1.658  0.4915 -0.1493  1.4534
 9328SOL    HW233822   8.455   9.647   1.641  0.3252  0.1374 -0.2840
 9329SOL     OW33823   3.319   3.373   6.554 -0.1281 -0.5671 -0.2176
 9329SOL    HW133824   3.357   3.309   6.614  1.2747 -0.3449 -0.8465
 9329SOL    HW233825   3.287   3.320   6.481  1.2912 -0.5556 -0.8739
 9330SOL     OW33826   2.085   5.552   7.680  0.7728  0.2107  0.3502
 9330SOL    HW133827   2.038   5.486   7.630 -0.7156  1.7822 -0.4416
 9330SOL    HW233828   2.151   5.587   7.619  1.4251 -0.3742  0.7035
 9331SOL     OW33829   0.519   4.290   1.598 -0.6476  0.2186 -0.2580
 9331SOL    HW133830   0.525   4.294   1.502 -1.3381  0.9172 -0.2848
 9331SOL    HW233831   0.594   4.340   1.629  0.0444 -0.6929 -0.4121
 9332SOL     OW33832   4.215  11.991   0.372  0.0608  0.3275  0.3483
 9332SOL    HW133833   4.226  11.974   0.466 -1.5473 -1.0561  0.3431
 9332SOL    HW233834   4.120  11.995   0.359  0.2372  3.0716 -0.8477
 9333SOL     OW33835   2.904   0.386   6.827  0.0377 -0.1230  0.0492
 9333SOL    HW133836   2.839   0.340   6.879  0.7104 -1.5829 -0.3367
 9333SOL    HW233837   2.892   0.352   6.738  1.5871 -0.7650  0.0559
 9334SOL     OW33838   3.294   0.800  10.190 -0.5367 -0.8974  0.0461
 9334SOL    HW133839   3.374   0.850  10.176 -0.1528 -1.1205  1.3550
 9334SOL    HW233840   3.271   0.767  10.103  1.0859 -1.2696 -0.2792
 9335SOL     OW33841  11.883   7.318   5.300 -0.3824 -0.3993 -0.2107
 9335SOL    HW133842  11.882   7.411   5.277  0.8600 -0.5687 -1.0551
 9335SOL    HW233843  11.819   7.278   5.242  0.1267 -0.2697 -0.8802
 9336SOL     OW33844  12.027   0.390   1.993  0.2032  0.5205  0.3888
 9336SOL    HW133845  12.118   0.391   2.022  1.0444  0.4366 -2.0593
 9336SOL    HW233846  11.992   0.307   2.027  1.1275  0.3710  1.0221
 9337SOL     OW33847   1.419   7.415  11.994  0.3241 -0.1865 -0.1369
 9337SOL    HW133848   1.434   7.487  12.055 -0.7604  0.7816 -0.9828
 9337SOL    HW233849   1.369   7.351  12.045  2.3906 -1.0065  1.0251
 9338SOL     OW33850   8.794   3.904   7.872  0.1440 -0.1154 -1.0802
 9338SOL    HW133851   8.720   3.933   7.818 -0.4608 -1.4210 -0.9938
 9338SOL    HW233852   8.791   3.808   7.867  1.1873 -0.2118 -0.2019
 9339SOL     OW33853   5.173  12.072   5.843  0.1257 -0.0052  0.0023
 9339SOL    HW133854   5.189  12.121   5.762  1.9659 -0.7169 -0.1219
 9339SOL    HW233855   5.256  12.079   5.891 -0.2559 -1.2804  0.8949
 9340SOL     OW33856   0.793   7.546   4.257  0.1101  0.1542  0.0456
 9340SOL    HW133857   0.843   7.545   4.175  2.9715  0.3051  1.6658
 9340SOL    HW233858   0.834   7.478   4.310 -2.6538 -0.9972  0.9199
 9341SOL     OW33859   5.617   7.633   0.437 -0.3637  0.0615 -0.1762
 9341SOL    HW133860   5.605   7.624   0.531 -0.0731  0.9113 -0.0461
 9341SOL    HW233861   5.539   7.680   0.407 -0.9747 -1.1610 -0.5364
 9342SOL     OW33862   9.259   4.747   6.240  0.0690 -0.2202  0.0860
 9342SOL    HW133863   9.259   4.828   6.289  1.7699 -0.3716  0.4085
 9342SOL    HW233864   9.201   4.763   6.166  1.2604  1.7061 -0.4937
 9343SOL     OW33865   1.204  11.749   3.776  0.2940 -0.0764 -0.3084
 9343SOL    HW133866   1.154  11.667   3.770 -0.5589  0.4126 -0.0759
 9343SOL    HW233867   1.227  11.757   3.869  1.1088 -0.4616 -0.4646
 9344SOL     OW33868   3.866   8.490   7.262 -0.3964  0.2978 -0.5626
 9344SOL    HW133869   3.914   8.460   7.184 -0.2232  1.2908 -0.8474
 9344SOL    HW233870   3.774   8.481   7.238 -0.4086  2.7556 -1.8081
 9345SOL     OW33871   4.177  10.443   8.757 -0.3756  0.2718 -0.1009
 9345SOL    HW133872   4.152  10.413   8.844 -0.4978  0.2285 -0.1507
 9345SOL    HW233873   4.114  10.512   8.736 -1.9662 -1.4369 -1.1945
 9346SOL     OW33874   1.631   8.528   4.773  0.0317 -0.0384 -0.0167
 9346SOL    HW133875   1.649   8.585   4.699 -1.7903  1.5093  0.6338
 9346SOL    HW233876   1.546   8.488   4.753 -1.1906  1.4670  1.7380
 9347SOL     OW33877  11.182   4.651   3.696 -0.2294  0.2083 -0.2732
 9347SOL    HW133878  11.099   4.700   3.694 -0.9932 -1.0166  0.0529
 9347SOL    HW233879  11.222   4.668   3.611 -1.5271 -0.3057 -1.0373
 9348SOL     OW33880   5.771   8.576   1.297  0.0874 -0.1311 -0.6284
 9348SOL    HW133881   5.819   8.651   1.263  0.4939 -0.5496 -0.9752
 9348SOL    HW233882   5.756   8.597   1.389  0.6900  0.1232 -0.5873
 9349SOL     OW33883   0.960   9.638   4.689  0.1839  0.3321  0.0247
 9349SOL    HW133884   1.018   9.704   4.726  0.6794 -0.3821  0.5616
 9349SOL    HW233885   1.013   9.557   4.690 -0.5203 -0.1406 -0.2937
 9350SOL     OW33886   0.150   8.529   8.765  0.0033 -0.1714 -0.0669
 9350SOL    HW133887   0.200   8.594   8.717 -2.2688  1.6491 -0.1765
 9350SOL    HW233888   0.125   8.464   8.699 -0.4682  0.6368 -0.7019
 9351SOL     OW33889  11.433   9.211   8.034  0.1197 -0.0542 -0.4036
 9351SOL    HW133890  11.471   9.298   8.018  1.7231 -0.8222 -1.0458
 9351SOL    HW233891  11.365   9.226   8.099  1.1191  1.5198  0.3423
 9352SOL     OW33892  12.279  10.545   6.613 -0.9129  0.0900 -0.2697
 9352SOL    HW133893  12.184  10.559   6.610 -1.0163 -0.6100 -0.4835
 9352SOL    HW233894  12.289  10.451   6.601 -0.1866  0.1620 -0.2387
 9353SOL     OW33895  10.438   2.645   7.521  0.3491  0.8857  0.2905
 9353SOL    HW133896  10.483   2.618   7.441 -1.2173 -0.8888 -0.0728
 9353SOL    HW233897  10.387   2.722   7.496 -0.0291  0.4170 -0.4077
 9354SOL     OW33898   3.546  11.618   8.772 -0.3471 -0.1749  0.2775
 9354SOL    HW133899   3.604  11.548   8.801 -0.2432  0.4262  1.6058
 9354SOL    HW233900   3.604  11.692   8.757 -0.7600  0.5366  1.9599
 9355SOL     OW33901   7.068   8.373   7.453 -0.2335  0.2685  0.2767
 9355SOL    HW133902   7.133   8.415   7.510  0.9284 -1.2863  0.1605
 9355SOL    HW233903   7.024   8.309   7.509 -0.0659 -0.2756 -0.1982
 9356SOL     OW33904   4.527   2.659  10.664  0.2084  0.0361 -0.7885
 9356SOL    HW133905   4.460   2.719  10.695  0.5044 -0.0197 -0.0123
 9356SOL    HW233906   4.582   2.643  10.740 -0.0454 -1.4714 -0.8955
 9357SOL     OW33907   4.303  10.859   2.972  0.3525  0.1737  0.7015
 9357SOL    HW133908   4.230  10.887   3.027  1.2130  1.4926  1.2278
 9357SOL    HW233909   4.262  10.802   2.906 -0.8655 -0.5077  1.9854
 9358SOL     OW33910   5.837   8.013   1.194 -0.2741  0.4673 -0.6656
 9358SOL    HW133911   5.876   8.098   1.216  0.1529  0.8726 -2.7370
 9358SOL    HW233912   5.744   8.023   1.213 -0.0521  1.0105  0.1629
 9359SOL     OW33913   8.168   8.447   7.310  0.0941 -0.0282  0.1069
 9359SOL    HW133914   8.152   8.508   7.383 -2.5890  0.5515 -0.8329
 9359SOL    HW233915   8.146   8.498   7.232  0.6565 -1.3379 -0.9354
 9360SOL     OW33916   0.678   9.259   1.652  0.1958 -0.2313  0.3086
 9360SOL    HW133917   0.647   9.334   1.703  0.1111 -1.6137  2.4172
 9360SOL    HW233918   0.674   9.185   1.713 -1.5311 -2.3913 -2.1567
 9361SOL     OW33919   4.595  11.573   1.228  0.2038  0.0853  0.3081
 9361SOL    HW133920   4.613  11.479   1.225 -1.4411 -0.2790  0.8865
 9361SOL    HW233921   4.640  11.608   1.151 -0.8723 -1.5052 -1.1279
 9362SOL     OW33922   1.998   6.407  10.262 -0.4012  0.2466 -0.1112
 9362SOL    HW133923   2.067   6.356  10.220 -0.3694 -0.5908  0.9176
 9362SOL    HW233924   2.045   6.480  10.303 -0.2468  0.2333 -0.2634
 9363SOL     OW33925   5.445   0.504   4.222 -0.3915 -0.8264 -0.1679
 9363SOL    HW133926   5.522   0.450   4.201  0.0637  0.5124 -2.3359
 9363SOL    HW233927   5.415   0.536   4.136 -1.3785  1.3295  0.9032
 9364SOL     OW33928   4.639   8.637   5.438  0.5678 -0.5762 -0.0900
 9364SOL    HW133929   4.660   8.629   5.345  0.6841 -1.4653  0.0066
 9364SOL    HW233930   4.714   8.597   5.482  0.8047  0.3948  0.4152
 9365SOL     OW33931  10.825   8.743   0.708  0.0256 -0.2852  0.0392
 9365SOL    HW133932  10.791   8.832   0.696 -0.1521 -0.3583  0.0093
 9365SOL    HW233933  10.747   8.689   0.718  0.1533 -0.1803  1.8802
 9366SOL     OW33934   8.455  10.211  10.781 -0.3003 -0.2205  0.9696
 9366SOL    HW133935   8.417  10.283  10.831  1.0786  0.3717  1.2368
 9366SOL    HW233936   8.540  10.246  10.752 -0.7722 -0.7645 -1.2369
 9367SOL     OW33937   6.733   5.626   6.905  0.1129 -0.4360  0.0599
 9367SOL    HW133938   6.819   5.620   6.947 -1.1254 -1.3455  2.6886
 9367SOL    HW233939   6.692   5.703   6.944 -0.4187 -0.2334 -0.8755
 9368SOL     OW33940   0.295  10.991   4.267 -0.1346  0.3951  0.3622
 9368SOL    HW133941   0.390  10.981   4.279 -0.3626 -0.4303  1.6271
 9368SOL    HW233942   0.279  11.084   4.282  0.2552  0.2341  1.9185
 9369SOL     OW33943   5.919   3.007   2.976  0.3652  0.5294 -0.4913
 9369SOL    HW133944   5.915   3.100   2.953  2.4098  0.2128 -2.5459
 9369SOL    HW233945   6.009   2.981   2.956  0.0171 -1.7781  0.5836
 9370SOL     OW33946   6.894   6.231  10.398 -0.0352  0.0302 -0.2121
 9370SOL    HW133947   6.830   6.161  10.412 -0.0751  0.2233  0.5996
 9370SOL    HW233948   6.957   6.222  10.469  3.0166 -2.4148 -2.8901
 9371SOL     OW33949   2.416  10.652   8.340  0.2159 -0.8456  0.4444
 9371SOL    HW133950   2.342  10.713   8.346 -0.0645 -1.2470  1.2146
 9371SOL    HW233951   2.476  10.682   8.408  0.3475 -1.0731  0.4275
 9372SOL     OW33952   6.518   2.250   6.192  0.3452 -0.0996 -0.8622
 9372SOL    HW133953   6.436   2.264   6.144  0.9046  1.7713 -1.3400
 9372SOL    HW233954   6.513   2.310   6.266  1.0982 -0.3036 -0.6406
 9373SOL     OW33955   9.395   7.775   0.736  0.4337 -0.2664 -0.1042
 9373SOL    HW133956   9.442   7.792   0.654  1.5925  0.4498  0.6657
 9373SOL    HW233957   9.430   7.692   0.767 -0.6396 -0.9728 -0.7533
 9374SOL     OW33958   4.664   8.285   9.734 -0.5726 -0.3430  0.0805
 9374SOL    HW133959   4.569   8.282   9.726 -0.7627  0.6614  1.4454
 9374SOL    HW233960   4.696   8.211   9.683 -2.0596 -0.4830 -0.6881
 9375SOL     OW33961   7.798   6.592   2.645  0.6003  0.5641  0.0258
 9375SOL    HW133962   7.725   6.541   2.681  0.8146  0.5781  0.4868
 9375SOL    HW233963   7.794   6.575   2.551  0.2208  0.2798  0.0883
 9376SOL     OW33964   0.872   9.672   8.432  0.5893  0.4908  0.1786
 9376SOL    HW133965   0.897   9.586   8.466 -0.9974  1.1581  3.4385
 9376SOL    HW233966   0.780   9.663   8.409  0.5303  1.2047  0.1112
 9377SOL     OW33967   6.336   3.502   4.630  0.3443  0.2797  0.0536
 9377SOL    HW133968   6.381   3.438   4.575  1.2394  1.0725 -0.1826
 9377SOL    HW233969   6.347   3.585   4.582 -0.3349  0.6913  0.6020
 9378SOL     OW33970   1.169  10.239   8.167 -0.4955 -0.1360 -0.3974
 9378SOL    HW133971   1.088  10.210   8.125  0.0793 -0.3525 -1.3690
 9378SOL    HW233972   1.200  10.163   8.215  1.6349 -1.6780 -3.8775
 9379SOL     OW33973  10.178   9.409   8.827  0.6146  0.3206 -0.3799
 9379SOL    HW133974  10.199   9.477   8.763 -0.8523  0.4512 -0.7626
 9379SOL    HW233975  10.263   9.376   8.856  1.3519  1.9677 -0.5536
 9380SOL     OW33976   5.418   3.215   2.001  0.2288 -0.0836 -0.0222
 9380SOL    HW133977   5.366   3.256   1.932 -1.1052  0.1577  1.0927
 9380SOL    HW233978   5.373   3.132   2.018  0.1893  0.1268  0.9483
 9381SOL     OW33979  10.277   8.858   1.243 -0.5755  0.0055  0.4589
 9381SOL    HW133980  10.276   8.942   1.289 -1.2432  0.3997 -0.2487
 9381SOL    HW233981  10.260   8.793   1.311  1.2234  0.3068  1.2446
 9382SOL     OW33982   2.575   4.367   5.857  0.4705  0.1700 -0.3710
 9382SOL    HW133983   2.614   4.368   5.945 -0.7366  0.0045  0.1848
 9382SOL    HW233984   2.648   4.389   5.799  1.7992 -1.7156  0.4510
 9383SOL     OW33985   5.074   2.920   7.058 -0.3660 -0.0501  0.2465
 9383SOL    HW133986   5.080   2.825   7.070  2.1357  0.3345  3.0674
 9383SOL    HW233987   5.137   2.940   6.989  0.5416 -0.2899  0.9853
 9384SOL     OW33988   3.080  10.194   8.591 -0.2279  0.2766  0.2849
 9384SOL    HW133989   3.135  10.130   8.545 -0.3748 -0.1241  0.6525
 9384SOL    HW233990   3.101  10.278   8.551 -1.7719 -0.2719 -1.8999
 9385SOL     OW33991   9.432   9.436   1.719  0.3357 -0.6781  0.4393
 9385SOL    HW133992   9.521   9.415   1.747  0.5206 -0.1519  0.2726
 9385SOL    HW233993   9.398   9.492   1.790  0.6809  0.3682 -0.1915
 9386SOL     OW33994  12.096   6.536   1.001  0.2365  0.2737  0.1827
 9386SOL    HW133995  12.082   6.619   1.047 -1.4956  0.4565 -0.5776
 9386SOL    HW233996  12.027   6.534   0.934  0.8211 -1.3587 -0.4199
 9387SOL     OW33997   5.963   4.396  10.615 -0.2192 -0.0891  0.1726
 9387SOL    HW133998   5.920   4.315  10.589  2.1731 -1.6371  0.7600
 9387SOL    HW233999   5.950   4.402  10.710  2.2528 -1.5678  0.6909
 9388SOL     OW34000  11.795   0.058   5.291  0.0820 -0.3154 -0.3847
 9388SOL    HW134001  11.765  -0.008   5.354 -0.1377  0.1670  0.0168
 9388SOL    HW234002  11.879   0.088   5.325 -0.4132  0.5254  0.1157
 9389SOL     OW34003   2.158  11.436   9.160  0.1597  0.4692  0.1469
 9389SOL    HW134004   2.205  11.357   9.186 -0.3526  0.4864  1.1928
 9389SOL    HW234005   2.119  11.469   9.242 -0.0340  1.5351 -0.3502
 9390SOL     OW34006   4.152   2.472   9.765 -0.2916  0.1448 -0.4228
 9390SOL    HW134007   4.070   2.438   9.800 -0.1911 -0.9635 -1.1945
 9390SOL    HW234008   4.183   2.403   9.706 -0.4930  1.9073 -2.7304
 9391SOL     OW34009  11.808   8.774   8.121  0.0837  0.0598 -0.2859
 9391SOL    HW134010  11.739   8.772   8.054 -0.7910  0.0175  0.5891
 9391SOL    HW234011  11.870   8.707   8.093  0.0558  0.4538 -1.3732
 9392SOL     OW34012   4.189   7.630  10.000  0.0835 -0.0772  0.0475
 9392SOL    HW134013   4.218   7.671  10.082 -0.1208 -1.2121  0.7076
 9392SOL    HW234014   4.220   7.539  10.006 -1.4068 -0.6389 -0.3672
 9393SOL     OW34015   2.209  10.692   5.843  0.7938 -0.1022  0.6120
 9393SOL    HW134016   2.281  10.687   5.907  1.0646  1.3231  0.4440
 9393SOL    HW234017   2.226  10.773   5.795  0.9296 -1.4253 -1.6907
 9394SOL     OW34018   2.642   2.021  10.841 -0.2526 -0.1513  0.6696
 9394SOL    HW134019   2.593   2.103  10.832 -0.9594 -0.4245  1.8782
 9394SOL    HW234020   2.599   1.975  10.913  1.5207 -0.5978  1.4797
 9395SOL     OW34021   5.202   8.684   9.474  0.6257  0.1738 -0.3247
 9395SOL    HW134022   5.178   8.664   9.565 -0.8879  1.2187 -0.4628
 9395SOL    HW234023   5.162   8.613   9.423 -0.7628  0.9673 -0.3864
 9396SOL     OW34024   5.998   6.204   0.510 -0.3193  0.2155  0.1257
 9396SOL    HW134025   6.045   6.282   0.480  1.1860 -1.4938 -2.4079
 9396SOL    HW234026   6.066   6.148   0.548 -1.2556 -0.1525  1.3180
 9397SOL     OW34027  12.207   9.182  10.847 -0.3077 -0.0282 -0.0775
 9397SOL    HW134028  12.244   9.098  10.820 -0.6494 -0.2217  0.0533
 9397SOL    HW234029  12.146   9.205  10.777 -0.6444 -0.1719  0.1682
 9398SOL     OW34030   7.870  11.213   6.895  0.7782  0.0903  0.6362
 9398SOL    HW134031   7.893  11.121   6.910 -0.5048 -0.2146  0.7710
 9398SOL    HW234032   7.779  11.221   6.921  0.2285  0.9240 -1.3137
 9399SOL     OW34033   2.105   0.513  10.085  0.1495 -0.1294 -0.8727
 9399SOL    HW134034   2.169   0.530  10.016  0.2503  0.4442 -0.6416
 9399SOL    HW234035   2.039   0.581  10.073  0.3394  0.1834 -0.1963
 9400SOL     OW34036   0.628   3.413   0.661 -0.1777  0.1106 -0.3751
 9400SOL    HW134037   0.538   3.406   0.627  0.0986 -2.1765 -0.7549
 9400SOL    HW234038   0.666   3.327   0.646  1.9687  0.9105  0.1918
 9401SOL     OW34039  12.157   5.773  11.899  0.2591  0.1664  0.0302
 9401SOL    HW134040  12.164   5.820  11.982  3.8938 -0.3387  0.1804
 9401SOL    HW234041  12.146   5.841  11.833  0.1932  0.8018  0.6829
 9402SOL     OW34042   2.418   9.236   7.668  0.6303  0.4359 -0.2638
 9402SOL    HW134043   2.416   9.146   7.701 -0.6183  1.0433  1.4661
 9402SOL    HW234044   2.465   9.230   7.585  2.6180 -1.4360  0.9079
 9403SOL     OW34045   1.874   0.886   4.081  0.3746 -0.3808  0.1031
 9403SOL    HW134046   1.954   0.868   4.131 -0.5143 -3.6447  0.5622
 9403SOL    HW234047   1.906   0.924   3.999  2.6515 -3.1471 -0.4659
 9404SOL     OW34048   3.132   0.727   8.196  0.2168  0.0359 -0.2089
 9404SOL    HW134049   3.054   0.775   8.225 -0.3160  0.0879 -1.6503
 9404SOL    HW234050   3.200   0.794   8.190  0.4916 -0.0619  1.3651
 9405SOL     OW34051   7.516  10.672   1.878  0.0902 -0.3401  0.1221
 9405SOL    HW134052   7.543  10.635   1.795  0.0233 -1.7531  0.7110
 9405SOL    HW234053   7.500  10.597   1.935 -3.2218  0.4003  0.3974
 9406SOL     OW34054   3.751   9.452   1.833 -0.6167 -0.4869 -0.3691
 9406SOL    HW134055   3.777   9.538   1.802 -2.3443  0.5461  0.8752
 9406SOL    HW234056   3.684   9.469   1.899 -0.5219 -2.7620  0.4196
 9407SOL     OW34057   9.577  11.394   5.082  0.4595  0.0939  0.2369
 9407SOL    HW134058   9.529  11.427   5.007  2.2600  1.0547 -0.5729
 9407SOL    HW234059   9.535  11.435   5.158 -1.0922 -0.5356 -0.2635
 9408SOL     OW34060   4.752   6.400   8.681  0.3652  0.0073  0.1249
 9408SOL    HW134061   4.821   6.360   8.733 -0.0079  0.7274  1.2253
 9408SOL    HW234062   4.796   6.469   8.631  0.6971 -0.5731 -0.3993
 9409SOL     OW34063   6.690  10.767   6.594 -0.1286  0.3326  0.8418
 9409SOL    HW134064   6.741  10.736   6.519  0.8090  1.3174  1.0475
 9409SOL    HW234065   6.755  10.785   6.662 -0.6998  1.8665  1.0155
 9410SOL     OW34066   0.004   3.281  11.474 -0.1471  1.0306 -0.4992
 9410SOL    HW134067  -0.016   3.299  11.566 -2.5309  0.8060 -0.9146
 9410SOL    HW234068  -0.006   3.186  11.466 -0.4424  1.1104 -1.0832
 9411SOL     OW34069   0.826   7.762  11.220  0.2836 -0.2192 -0.1699
 9411SOL    HW134070   0.844   7.674  11.187 -1.8087 -1.0486  0.7461
 9411SOL    HW234071   0.736   7.758  11.252  0.1210  2.2806 -0.1290
 9412SOL     OW34072   6.894   1.156   0.370 -0.0088 -0.2837 -0.5831
 9412SOL    HW134073   6.935   1.180   0.453 -2.6170  0.7510  0.5313
 9412SOL    HW234074   6.824   1.095   0.395 -0.6836 -0.1519 -2.0569
 9413SOL     OW34075   6.256   6.692   6.749 -0.6694  0.7207  0.2302
 9413SOL    HW134076   6.331   6.634   6.763  0.2682  1.7969 -0.1614
 9413SOL    HW234077   6.192   6.639   6.703 -0.4062 -0.4125  1.1459
 9414SOL     OW34078  12.261   8.360  11.849 -0.2992 -0.0466  0.4839
 9414SOL    HW134079  12.320   8.357  11.773 -0.9600 -1.4640 -0.0129
 9414SOL    HW234080  12.223   8.448  11.846  2.8477  1.5295  1.7168
 9415SOL     OW34081  11.866   5.371   0.733  0.1788  0.0151  0.5159
 9415SOL    HW134082  11.778   5.379   0.770  0.0734 -0.2284  0.3254
 9415SOL    HW234083  11.917   5.440   0.775 -0.7823  2.0518 -1.4305
 9416SOL     OW34084   6.550   6.033   0.653  0.0953  0.0693  0.1455
 9416SOL    HW134085   6.611   6.002   0.720 -0.1223 -1.1618 -0.2080
 9416SOL    HW234086   6.531   5.956   0.599 -1.6971  0.4375  0.1859
 9417SOL     OW34087   2.529   5.587   9.946 -0.8011 -0.1602  0.2816
 9417SOL    HW134088   2.466   5.522   9.916 -0.1488 -0.0933 -1.2996
 9417SOL    HW234089   2.543   5.644   9.871  1.9510 -0.8121  0.1993
 9418SOL     OW34090   0.641   9.844   6.485 -0.5122 -0.4661 -0.1201
 9418SOL    HW134091   0.686   9.791   6.420 -0.7677 -1.7608  0.7228
 9418SOL    HW234092   0.684   9.823   6.568 -1.2655 -0.1052  0.3754
 9419SOL     OW34093   7.464  11.002   4.453 -0.3642 -1.1702 -0.1422
 9419SOL    HW134094   7.384  11.050   4.473 -0.5029 -0.2181 -2.6172
 9419SOL    HW234095   7.517  11.064   4.402  1.9839 -1.7716  1.4235
 9420SOL     OW34096   7.186  10.597   9.684  0.1704  0.2177  0.3416
 9420SOL    HW134097   7.175  10.606   9.589  1.4997  0.0756  0.1608
 9420SOL    HW234098   7.177  10.686   9.718  1.0873  0.4706 -0.0769
 9421SOL     OW34099   8.245   7.462  12.031 -0.4094 -0.5708 -0.2374
 9421SOL    HW134100   8.201   7.439  12.113  0.3183  0.4417  0.4631
 9421SOL    HW234101   8.176   7.496  11.975 -1.1182 -2.3250 -0.4869
 9422SOL     OW34102   0.590   7.327   7.357  0.2442 -0.1218  0.0544
 9422SOL    HW134103   0.570   7.247   7.308  0.5816 -0.1811  0.0119
 9422SOL    HW234104   0.636   7.297   7.435  1.6433  0.1203 -0.6493
 9423SOL     OW34105   8.092   9.502   5.168  0.0424 -0.1353 -0.0170
 9423SOL    HW134106   8.033   9.492   5.243 -0.9083  1.5814 -0.4694
 9423SOL    HW234107   8.068   9.431   5.109 -1.6177  0.4920 -0.1648
 9424SOL     OW34108   7.133   5.150   2.434 -0.0320 -0.1818 -0.5894
 9424SOL    HW134109   7.228   5.160   2.442  0.3925 -3.1088 -1.0584
 9424SOL    HW234110   7.105   5.118   2.520 -0.4412 -0.2734 -0.7554
 9425SOL     OW34111   7.744   0.493   0.765 -0.0648  0.0312  0.2581
 9425SOL    HW134112   7.836   0.491   0.791 -0.8055 -1.1991  3.1777
 9425SOL    HW234113   7.733   0.578   0.722  2.2094  0.5828  0.6421
 9426SOL     OW34114  12.156  10.004   5.905  0.5275  0.9717  0.7248
 9426SOL    HW134115  12.206  10.053   5.840  1.0720  2.1528  1.9920
 9426SOL    HW234116  12.071  10.048   5.908  1.0948  2.0629  2.0301
 9427SOL     OW34117   3.209   4.227   1.469  0.1502 -0.2587 -0.4147
 9427SOL    HW134118   3.171   4.270   1.545  0.5374 -0.6140 -0.0117
 9427SOL    HW234119   3.145   4.239   1.399 -0.9683 -1.3223  0.3821
 9428SOL     OW34120   3.053   2.908   5.686  0.0060  0.5811  0.1083
 9428SOL    HW134121   3.115   2.976   5.658  0.3328  0.2092 -0.0685
 9428SOL    HW234122   3.017   2.942   5.768 -1.4491  1.9962 -1.0640
 9429SOL     OW34123  12.044   2.587   1.119 -0.2051 -0.2718  0.0460
 9429SOL    HW134124  11.983   2.518   1.095  1.1386 -1.3572 -0.4209
 9429SOL    HW234125  12.094   2.550   1.192  0.5433  0.1880 -0.2229
 9430SOL     OW34126   0.347   7.419   2.510  0.3508  0.2945  0.0614
 9430SOL    HW134127   0.287   7.492   2.494 -0.6114 -0.1010  1.6233
 9430SOL    HW234128   0.341   7.365   2.431  1.4715  2.1032 -1.3510
 9431SOL     OW34129   0.620  10.525  12.305 -0.3816 -0.0723 -0.4070
 9431SOL    HW134130   0.650  10.479  12.226 -1.5172 -1.2821 -0.1505
 9431SOL    HW234131   0.696  10.578  12.331  0.3182 -0.3423 -1.7840
 9432SOL     OW34132   3.902  10.256   4.230  0.4436  0.1062 -0.2026
 9432SOL    HW134133   3.941  10.317   4.292  2.3520 -1.2355  0.0297
 9432SOL    HW234134   3.821  10.228   4.271  0.2316  1.4124  0.3125
 9433SOL     OW34135   4.387   4.917   5.364  0.1015 -0.1464 -0.2391
 9433SOL    HW134136   4.431   4.835   5.384  0.6708 -0.1390 -1.3771
 9433SOL    HW234137   4.319   4.894   5.301 -0.5894  0.0657  0.4206
 9434SOL     OW34138   3.512   6.637  11.862 -0.3989  0.6176  0.3713
 9434SOL    HW134139   3.511   6.723  11.903  2.2750  0.1630  1.6330
 9434SOL    HW234140   3.554   6.580  11.926  0.1941 -1.0621 -1.3925
 9435SOL     OW34141   0.416   3.253   3.529  0.0489  0.1429 -0.1168
 9435SOL    HW134142   0.343   3.300   3.488  0.3327  1.5032  0.8692
 9435SOL    HW234143   0.464   3.321   3.577  0.9000 -1.0475  0.7637
 9436SOL     OW34144   3.594   9.127   1.911 -0.1840 -0.4037 -0.0073
 9436SOL    HW134145   3.633   9.184   1.977 -0.0317  0.4770 -0.8434
 9436SOL    HW234146   3.599   9.039   1.949  0.7493 -0.0290  0.7566
 9437SOL     OW34147   8.747   0.732   9.632 -0.2814 -0.1920  0.2330
 9437SOL    HW134148   8.724   0.780   9.711 -0.7552 -1.9929  1.2266
 9437SOL    HW234149   8.817   0.784   9.592  1.7362 -0.4911  3.1264
 9438SOL     OW34150  10.927   0.904   9.266  0.1305 -0.4288  0.1932
 9438SOL    HW134151  10.979   0.930   9.190 -1.6543  1.8183 -0.3405
 9438SOL    HW234152  10.992   0.876   9.331  1.8135 -0.3656 -1.3870
 9439SOL     OW34153   5.465  10.769   4.620  0.1557 -0.1270 -0.3722
 9439SOL    HW134154   5.558  10.750   4.613  0.1078 -0.0236 -1.5136
 9439SOL    HW234155   5.457  10.821   4.700  0.9255 -0.9585  0.2638
 9440SOL     OW34156   3.226   6.764   9.153 -0.7049 -0.3512 -0.6900
 9440SOL    HW134157   3.214   6.784   9.246  1.4344  1.0535 -0.6365
 9440SOL    HW234158   3.138   6.751   9.119 -1.5942  0.1129  1.3345
 9441SOL     OW34159   8.968   4.661   4.538  0.2164 -0.0443 -0.2134
 9441SOL    HW134160   9.016   4.610   4.473 -0.6917 -0.1154 -0.8543
 9441SOL    HW234161   8.963   4.749   4.501  0.2032  0.0615  0.0346
 9442SOL     OW34162   2.145   0.928   8.410  0.5323 -0.2009  0.5259
 9442SOL    HW134163   2.235   0.958   8.404 -0.0841  2.0293  1.2807
 9442SOL    HW234164   2.145   0.866   8.483  1.6669 -1.2452 -0.3342
 9443SOL     OW34165   9.171  12.063  11.656 -0.2022 -0.4939 -0.2690
 9443SOL    HW134166   9.131  11.981  11.687 -1.3722  0.5083  0.9781
 9443SOL    HW234167   9.170  12.056  11.561 -1.3084 -1.4669 -0.2021
 9444SOL     OW34168   6.005   3.896   3.097  0.2627 -0.5370  0.3959
 9444SOL    HW134169   6.000   3.804   3.070  1.6782 -0.4205 -0.3467
 9444SOL    HW234170   6.045   3.893   3.184 -0.0331 -0.6386  0.5303
 9445SOL     OW34171   0.186   3.835   4.756 -0.0525  0.6911 -0.3358
 9445SOL    HW134172   0.131   3.848   4.833 -0.9723  1.0982 -1.0361
 9445SOL    HW234173   0.275   3.857   4.786 -0.2742  0.1246  0.7845
 9446SOL     OW34174  11.325   2.084   1.963 -0.2003  0.0680 -0.0755
 9446SOL    HW134175  11.244   2.073   1.915 -0.6014 -0.8269  0.7856
 9446SOL    HW234176  11.394   2.065   1.899 -0.5837  1.9908 -1.1413
 9447SOL     OW34177   1.801   9.839   3.337 -0.1428  0.6872 -0.0637
 9447SOL    HW134178   1.860   9.911   3.360 -0.7682  0.5792  2.0435
 9447SOL    HW234179   1.713   9.877   3.340 -0.4116  0.0824  0.0098
 9448SOL     OW34180   0.871   6.803   9.036 -0.4513  0.1933 -0.2205
 9448SOL    HW134181   0.950   6.750   9.047 -0.4091  0.3938  0.4887
 9448SOL    HW234182   0.799   6.740   9.042 -0.3689  0.0979 -0.2210
 9449SOL     OW34183   9.592   1.333   1.075 -0.2642 -0.3411  0.1422
 9449SOL    HW134184   9.553   1.263   1.128  0.2158 -0.4476  0.3644
 9449SOL    HW234185   9.562   1.316   0.986 -0.4197 -0.6357  0.2503
 9450SOL     OW34186   6.666   8.722  10.695 -0.1387  0.2362 -0.1865
 9450SOL    HW134187   6.753   8.720  10.735  0.0128  0.0758 -0.5206
 9450SOL    HW234188   6.607   8.737  10.768  0.0778 -0.6982  0.2000
 9451SOL     OW34189   3.652   2.575   2.350 -0.0384  0.4143 -0.1383
 9451SOL    HW134190   3.579   2.532   2.394 -0.9260  0.3191 -1.6515
 9451SOL    HW234191   3.614   2.656   2.314  0.5095  0.2071 -1.2167
 9452SOL     OW34192   5.108   4.589   6.735 -0.1612  0.1903 -0.2292
 9452SOL    HW134193   5.092   4.542   6.817 -1.6184 -2.1034 -1.7215
 9452SOL    HW234194   5.176   4.537   6.691 -0.0527  0.8785 -0.8805
 9453SOL     OW34195  11.228   3.953  11.172  0.0758 -0.0652  0.0732
 9453SOL    HW134196  11.221   3.888  11.102  0.8446 -2.1377  1.8137
 9453SOL    HW234197  11.138   3.969  11.200 -0.1499 -0.0874 -0.6332
 9454SOL     OW34198   8.711   2.362  10.344  0.1161  0.1134  0.5654
 9454SOL    HW134199   8.794   2.344  10.386  0.6392 -0.0731 -0.5025
 9454SOL    HW234200   8.726   2.444  10.295 -0.4644  0.3266  0.7303
 9455SOL     OW34201  10.753  10.224   9.752  0.7379  0.2119  0.0194
 9455SOL    HW134202  10.661  10.215   9.778  0.5788  0.2748 -0.5069
 9455SOL    HW234203  10.750  10.275   9.671  1.0843 -1.4919 -1.1142
 9456SOL     OW34204  12.003   7.289   4.062 -0.0351  0.1659  0.6546
 9456SOL    HW134205  12.070   7.331   4.116 -0.2590 -0.2518  1.2680
 9456SOL    HW234206  11.932   7.270   4.123 -0.2610 -0.3836  0.2286
 9457SOL     OW34207   2.771   1.385  11.920 -0.3472  0.7843  0.2463
 9457SOL    HW134208   2.820   1.459  11.884  1.6590 -0.1947  0.8225
 9457SOL    HW234209   2.745   1.334  11.843  4.4941 -1.6749 -0.1144
 9458SOL     OW34210   7.052   5.067   0.663  0.2876  0.1098  0.6940
 9458SOL    HW134211   7.102   5.050   0.743  0.4899 -1.8269  0.1925
 9458SOL    HW234212   6.978   5.007   0.668 -0.5838  1.0907  0.1453
 9459SOL     OW34213   4.572   7.753  11.961 -0.0654 -0.0626  0.1615
 9459SOL    HW134214   4.585   7.727  11.870  0.4097  0.4738  0.0650
 9459SOL    HW234215   4.484   7.789  11.964 -0.0724 -0.0569 -0.0963
 9460SOL     OW34216   1.644   2.050   5.252 -0.3892 -0.5231  0.6856
 9460SOL    HW134217   1.607   2.011   5.332  0.7707 -2.9931  0.0923
 9460SOL    HW234218   1.613   1.994   5.181  1.0170 -0.1260 -0.2779
 9461SOL     OW34219   0.758   7.752   4.453  0.0947 -0.1900 -0.9500
 9461SOL    HW134220   0.710   7.686   4.504 -0.8523  0.4765 -0.9452
 9461SOL    HW234221   0.779   7.707   4.371  2.1248 -1.4581  0.1709
 9462SOL     OW34222   3.603   1.949   1.165 -0.0369  0.0584 -0.4961
 9462SOL    HW134223   3.663   1.887   1.123  1.2893  0.8943  0.1174
 9462SOL    HW234224   3.643   1.968   1.250  0.4430  2.9636 -1.2770
 9463SOL     OW34225  11.913   4.065   9.466 -0.4541 -0.5076 -0.4585
 9463SOL    HW134226  11.960   4.148   9.474 -0.1599 -0.7537  0.6441
 9463SOL    HW234227  11.925   4.038   9.375  2.9224 -1.3545  0.1175
 9464SOL     OW34228   5.358   0.151   4.328 -0.4100 -0.4740 -0.1081
 9464SOL    HW134229   5.292   0.167   4.260  0.4569  1.2244 -0.5975
 9464SOL    HW234230   5.441   0.164   4.283  0.2131 -0.4373  1.0343
 9465SOL     OW34231  10.167   2.617  11.116 -0.2659 -0.6848  0.1671
 9465SOL    HW134232  10.186   2.603  11.024 -0.2242 -1.4272  0.2788
 9465SOL    HW234233  10.095   2.680  11.117  1.2912  1.2207 -0.2981
 9466SOL     OW34234   6.344   0.951   2.361 -0.2737  0.0821 -0.4250
 9466SOL    HW134235   6.419   0.892   2.367 -1.1717 -0.9915  0.7609
 9466SOL    HW234236   6.268   0.896   2.383 -1.0281  1.9028  1.8478
 9467SOL     OW34237   5.470  10.891   0.983 -0.3747 -0.0871 -0.6016
 9467SOL    HW134238   5.441  10.801   0.992 -0.8099 -0.1119 -1.9645
 9467SOL    HW234239   5.539  10.902   1.049 -1.2063 -1.0128  0.4427
 9468SOL     OW34240   9.992  10.727  12.092 -0.0561 -0.4792 -0.0987
 9468SOL    HW134241   9.953  10.798  12.142  1.0337  0.4063 -0.4688
 9468SOL    HW234242   9.944  10.649  12.120 -1.0628  0.3433  0.5470
 9469SOL     OW34243   4.981  12.081   2.329  0.6058  0.2237 -0.5003
 9469SOL    HW134244   5.007  12.173   2.337 -0.1320  0.2632  2.6979
 9469SOL    HW234245   4.886  12.081   2.341  0.8446 -1.0864  1.9265
 9470SOL     OW34246  10.409   5.181   6.091 -0.0327 -0.1224 -0.2384
 9470SOL    HW134247  10.352   5.159   6.017 -0.3482 -0.0933 -0.0076
 9470SOL    HW234248  10.369   5.137   6.166 -0.2520  0.6254  0.0921
 9471SOL     OW34249   9.683   1.552  12.049 -0.3328 -0.0257 -0.3647
 9471SOL    HW134250   9.601   1.576  12.091  0.6056  2.9540  0.0288
 9471SOL    HW234251   9.664   1.557  11.955 -0.9218 -0.6290 -0.2770
 9472SOL     OW34252   5.822   2.779   8.608  0.3503 -0.2364 -0.1812
 9472SOL    HW134253   5.862   2.854   8.564 -0.5231 -0.4292 -1.3268
 9472SOL    HW234254   5.732   2.806   8.626 -0.8439 -1.8917 -3.0352
 9473SOL     OW34255   7.079   6.471   0.420 -0.1503 -0.3577 -0.1503
 9473SOL    HW134256   7.024   6.426   0.357  0.5351 -0.1669 -0.8940
 9473SOL    HW234257   7.018   6.501   0.488 -0.9573 -0.1153 -0.9741
 9474SOL     OW34258   2.076   4.507   1.851 -0.1224 -0.2567  0.3880
 9474SOL    HW134259   2.019   4.500   1.927 -1.2520  1.5033 -0.2276
 9474SOL    HW234260   2.017   4.521   1.777  0.9423 -1.8684 -0.8458
 9475SOL     OW34261   0.711   3.506  12.153  0.1218  0.0498  0.3221
 9475SOL    HW134262   0.647   3.477  12.087  1.3817 -1.6849 -0.1979
 9475SOL    HW234263   0.690   3.453  12.230  0.2834  0.2233  0.4835
 9476SOL     OW34264  10.832   9.588   6.330 -0.0477  0.0487 -0.0582
 9476SOL    HW134265  10.751   9.553   6.294  0.7970  0.5978 -2.6616
 9476SOL    HW234266  10.831   9.681   6.307  1.3244  0.0506 -0.1851
 9477SOL     OW34267   6.401  12.101   9.081 -0.2269  0.0187  0.4674
 9477SOL    HW134268   6.337  12.083   9.012  0.4613  2.3803 -0.8790
 9477SOL    HW234269   6.484  12.071   9.045 -0.0047  0.4101  0.6547
 9478SOL     OW34270   4.122  10.620   3.429 -0.0192  0.8214 -0.1535
 9478SOL    HW134271   4.197  10.663   3.471 -1.3868  2.4450  0.7502
 9478SOL    HW234272   4.084  10.566   3.498  0.1036  0.2760 -0.5090
 9479SOL     OW34273   8.501   0.457   1.054 -0.5692 -0.3934  0.4149
 9479SOL    HW134274   8.572   0.512   1.088 -0.8635 -0.6341  1.4498
 9479SOL    HW234275   8.421   0.500   1.085 -0.8199 -1.0642  0.7093
 9480SOL     OW34276   5.534   7.320   5.595  0.1161  0.2962  0.1820
 9480SOL    HW134277   5.589   7.323   5.674 -0.6885 -2.0045  0.9238
 9480SOL    HW234278   5.497   7.408   5.589 -0.4310  0.3554  2.8817
 9481SOL     OW34279   0.692   6.720   1.762  0.2364  0.2858 -0.1360
 9481SOL    HW134280   0.633   6.765   1.700  0.4886 -2.0460 -2.2277
 9481SOL    HW234281   0.636   6.698   1.836 -1.4287 -1.1805 -1.7315
 9482SOL     OW34282   7.320   9.604   1.643  0.5854 -0.0643 -0.5066
 9482SOL    HW134283   7.271   9.679   1.678  2.3175  0.1907  1.5969
 9482SOL    HW234284   7.281   9.588   1.557 -1.1316  1.9993 -0.2078
 9483SOL     OW34285  11.960  10.177   4.538 -0.3400 -0.1920 -0.0422
 9483SOL    HW134286  12.014  10.235   4.592  1.3324 -2.2765  0.6621
 9483SOL    HW234287  11.870  10.199   4.563  0.1684  2.2541 -0.0531
 9484SOL     OW34288   7.920  11.535   7.536 -0.1996  0.1194  0.2558
 9484SOL    HW134289   7.962  11.563   7.617 -4.4157 -0.1426  2.8221
 9484SOL    HW234290   7.909  11.616   7.486  1.0063  0.5389  0.6204
 9485SOL     OW34291   6.880   2.728   4.477 -0.2606  0.5546  0.3791
 9485SOL    HW134292   6.881   2.819   4.507  0.1565  0.6378  0.1189
 9485SOL    HW234293   6.972   2.703   4.472 -0.3243  0.4636 -0.5851
 9486SOL     OW34294   3.625  11.923   8.424 -0.7839  0.1588 -0.1607
 9486SOL    HW134295   3.668  11.971   8.495  1.0124 -2.2434  0.5063
 9486SOL    HW234296   3.548  11.883   8.466 -1.1001  0.7058 -0.2056
 9487SOL     OW34297   3.485   1.404   1.645  0.3141 -0.4258 -0.0088
 9487SOL    HW134298   3.390   1.405   1.629  0.1836 -0.2840  0.7465
 9487SOL    HW234299   3.521   1.357   1.569 -0.2853  0.1676 -0.6766
 9488SOL     OW34300   1.325   4.619   7.303  0.2909 -0.5674 -0.3012
 9488SOL    HW134301   1.248   4.648   7.352  0.7847  1.9522 -0.8965
 9488SOL    HW234302   1.391   4.603   7.371  0.0671 -0.0497  0.0470
 9489SOL     OW34303   3.989   3.485   9.187 -0.1507  0.1649  0.1602
 9489SOL    HW134304   3.987   3.579   9.172  0.0495 -0.0455 -1.4426
 9489SOL    HW234305   3.976   3.447   9.100 -0.0302 -1.2866  0.7425
 9490SOL     OW34306   4.936   2.312   3.499  0.3554  0.0549  0.7200
 9490SOL    HW134307   4.982   2.395   3.513  0.3807  0.2221 -0.2955
 9490SOL    HW234308   4.851   2.324   3.540 -0.0321  0.9750 -0.3167
 9491SOL     OW34309   2.199   7.841   9.187 -0.4084 -0.0441  0.6424
 9491SOL    HW134310   2.137   7.829   9.114 -1.8683  0.6128  1.7250
 9491SOL    HW234311   2.237   7.928   9.173  0.5621 -0.5821 -0.2061
 9492SOL     OW34312   4.285  11.183   2.402  0.5377 -0.5261 -0.0801
 9492SOL    HW134313   4.292  11.267   2.357  3.0941 -1.1446 -0.9862
 9492SOL    HW234314   4.191  11.169   2.411  0.0278  2.4049  0.1066
 9493SOL     OW34315   5.816   3.110   3.431  0.4764 -0.5179 -0.1147
 9493SOL    HW134316   5.885   3.158   3.476 -1.3059  0.8554  1.2706
 9493SOL    HW234317   5.783   3.171   3.365 -0.7352 -0.4207  0.5680
 9494SOL     OW34318   1.626   8.982   6.743  0.0547 -0.0837  0.3959
 9494SOL    HW134319   1.535   8.970   6.769  0.1087  0.8484  1.1072
 9494SOL    HW234320   1.624   9.058   6.684  0.3469 -0.1799  0.2608
 9495SOL     OW34321   5.435  10.356  10.926  0.6328 -0.2717 -0.4597
 9495SOL    HW134322   5.505  10.407  10.967 -0.1610  0.9699 -0.5768
 9495SOL    HW234323   5.433  10.274  10.974  1.2725  0.2199  0.4434
 9496SOL     OW34324   2.980   6.660   1.654  0.3904  0.1901 -0.0370
 9496SOL    HW134325   2.919   6.619   1.716  0.9029 -0.0010  0.3430
 9496SOL    HW234326   3.031   6.720   1.707  2.3244 -1.5428  0.1898
 9497SOL     OW34327   2.076   5.612   9.282  0.1909  0.1573  0.1123
 9497SOL    HW134328   2.129   5.533   9.296  0.8951  0.7200  0.7000
 9497SOL    HW234329   2.140   5.683   9.278 -0.4109  0.6699 -0.7438
 9498SOL     OW34330   4.494   2.357   3.243 -0.6289  0.3656 -0.1257
 9498SOL    HW134331   4.462   2.364   3.333 -1.9283 -1.8788 -0.3282
 9498SOL    HW234332   4.458   2.434   3.199 -0.9974  0.8628  0.9962
 9499SOL     OW34333   3.619   8.971   4.204  0.2565 -0.1816  0.2173
 9499SOL    HW134334   3.671   8.911   4.150  2.0256  0.4521  1.1259
 9499SOL    HW234335   3.535   8.927   4.214  0.3834 -1.0033 -1.7813
 9500SOL     OW34336   0.897   0.063   4.743 -0.4351 -0.1172 -0.2891
 9500SOL    HW134337   0.916   0.012   4.821  0.4141  1.1583  0.3600
 9500SOL    HW234338   0.965   0.130   4.740 -0.3252 -0.2394 -2.2274
 9501SOL     OW34339   2.217   4.093   3.272 -0.0121 -0.2424 -0.9197
 9501SOL    HW134340   2.151   4.057   3.331 -0.5846 -0.1270 -1.4858
 9501SOL    HW234341   2.193   4.185   3.261 -0.3251 -0.4300 -1.8925
 9502SOL     OW34342   3.281   0.937   3.145 -0.0907 -0.1373  0.1698
 9502SOL    HW134343   3.360   0.973   3.184 -0.0476 -0.0475 -0.0043
 9502SOL    HW234344   3.243   1.008   3.095 -2.0645  0.9036  2.8795
 9503SOL     OW34345   4.681  10.769   7.480 -0.1577  0.3503  0.0958
 9503SOL    HW134346   4.758  10.731   7.439 -0.6333 -1.0245  0.4380
 9503SOL    HW234347   4.705  10.860   7.496  1.2255  0.0603 -0.2139
 9504SOL     OW34348   3.456   2.021   2.306 -0.3799 -0.2641 -0.6120
 9504SOL    HW134349   3.427   2.109   2.284 -1.8245 -0.5282  0.1018
 9504SOL    HW234350   3.506   1.993   2.230  0.1694  1.1926 -0.8208
 9505SOL     OW34351   7.817  10.410   1.430 -0.8602 -0.3591 -0.4062
 9505SOL    HW134352   7.791  10.320   1.448  1.6594 -0.7366  1.8303
 9505SOL    HW234353   7.747  10.463   1.466 -1.6557 -1.3896 -0.3964
 9506SOL     OW34354   7.941  12.328   9.287 -0.2029  0.5401 -0.3329
 9506SOL    HW134355   8.028  12.364   9.270 -0.5157  1.7759  0.5851
 9506SOL    HW234356   7.885  12.369   9.221  0.0647 -1.1233 -1.6752
 9507SOL     OW34357   2.048   3.707   2.440  0.1224  0.7149 -0.1140
 9507SOL    HW134358   2.088   3.743   2.361 -0.6751  0.1216 -0.8063
 9507SOL    HW234359   2.045   3.612   2.424  2.1394  0.2657  1.6418
 9508SOL     OW34360   7.969   7.558   7.791  0.2388 -0.4784  0.1431
 9508SOL    HW134361   7.943   7.632   7.845 -0.1637  0.6266 -1.5087
 9508SOL    HW234362   7.895   7.543   7.732  0.0779 -2.5797  0.8036
 9509SOL     OW34363   6.262   1.071   8.261  0.0887 -0.2450 -0.4417
 9509SOL    HW134364   6.236   1.163   8.266  0.5354 -0.1760  1.4806
 9509SOL    HW234365   6.280   1.047   8.352  0.6350 -2.0479 -0.9955
 9510SOL     OW34366   7.579   0.386   1.163 -0.4716 -0.3317  0.3958
 9510SOL    HW134367   7.528   0.406   1.242  0.4517  0.3186  0.8503
 9510SOL    HW234368   7.609   0.296   1.176 -3.0782 -1.4821 -0.7857
 9511SOL     OW34369   6.290   2.017  11.106 -0.0721  0.2798 -0.0712
 9511SOL    HW134370   6.288   2.112  11.097  1.3821  0.2272 -1.4492
 9511SOL    HW234371   6.325   1.986  11.022  1.7674 -1.2966  1.1858
 9512SOL     OW34372   5.894  10.052   4.882  0.5710  0.4734  0.7479
 9512SOL    HW134373   5.859  10.137   4.909 -1.8024 -0.9006  2.4167
 9512SOL    HW234374   5.851   9.989   4.941 -0.4959 -2.2301 -2.6187
 9513SOL     OW34375   4.953  12.158   0.289 -0.2170 -0.0897 -0.2463
 9513SOL    HW134376   4.957  12.211   0.369  1.5980 -0.7164  0.1381
 9513SOL    HW234377   4.929  12.070   0.319  3.1346 -1.0304  0.1239
 9514SOL     OW34378   2.466   0.280   1.538 -0.3510  0.0260 -0.7106
 9514SOL    HW134379   2.373   0.264   1.525 -0.2558  0.5911 -2.4022
 9514SOL    HW234380   2.510   0.222   1.475  0.4472 -0.2385  0.0628
 9515SOL     OW34381  10.328   2.328   1.277 -0.1071 -0.1321 -0.1421
 9515SOL    HW134382  10.404   2.322   1.333 -1.0836 -0.8537  1.1595
 9515SOL    HW234383  10.285   2.243   1.284 -0.9713  0.2043 -0.9518
 9516SOL     OW34384   5.315  10.201   2.723 -0.2995  0.2850 -0.2559
 9516SOL    HW134385   5.387  10.263   2.736 -0.1747 -0.3971  2.9229
 9516SOL    HW234386   5.241  10.241   2.768 -0.5632 -1.2781  0.7442
 9517SOL     OW34387   5.138   0.551   0.961  0.2359 -0.1769  0.1941
 9517SOL    HW134388   5.072   0.483   0.950  0.8545 -0.6093 -0.9100
 9517SOL    HW234389   5.212   0.523   0.907  0.2239  1.7288 -0.9045
 9518SOL     OW34390  11.171   5.462   3.613  0.4947  0.3284  0.3929
 9518SOL    HW134391  11.111   5.417   3.672 -0.6017 -0.6230 -1.3439
 9518SOL    HW234392  11.253   5.469   3.662 -0.0777 -1.2749  1.6621
 9519SOL     OW34393   4.029   1.180   1.047  0.2625  0.1146  0.0198
 9519SOL    HW134394   4.047   1.254   1.105  1.1751 -0.5345  0.6030
 9519SOL    HW234395   4.004   1.109   1.106 -0.4374 -0.0992 -0.5210
 9520SOL     OW34396   4.580   9.614   0.719 -0.4005  0.5259  0.0464
 9520SOL    HW134397   4.571   9.539   0.661  1.7039  0.2040  0.0764
 9520SOL    HW234398   4.519   9.679   0.683 -1.3598 -0.7374 -0.6937
 9521SOL     OW34399   4.518   0.219   6.901  0.1216 -0.3001 -0.1409
 9521SOL    HW134400   4.506   0.125   6.912 -1.2192 -0.0404  0.8898
 9521SOL    HW234401   4.613   0.231   6.901  0.3168 -1.6588 -0.4178
 9522SOL     OW34402   3.700   0.453   2.263 -0.4648 -0.1364  0.0262
 9522SOL    HW134403   3.748   0.518   2.313  0.7988  0.5046 -1.8965
 9522SOL    HW234404   3.666   0.500   2.188 -0.4477 -1.4583 -0.8538
 9523SOL     OW34405   4.489   0.368   5.469 -0.2998 -0.3362  0.0597
 9523SOL    HW134406   4.546   0.400   5.400 -0.0040 -1.0037 -0.0089
 9523SOL    HW234407   4.522   0.410   5.549  0.4748 -0.9384  0.0656
 9524SOL     OW34408   8.614   6.530   3.463 -0.4815 -0.2325  0.4101
 9524SOL    HW134409   8.568   6.588   3.402  0.9785  0.7983  0.2259
 9524SOL    HW234410   8.707   6.550   3.448 -0.0780 -0.0491  2.8651
 9525SOL     OW34411   1.883   3.980   7.149  0.9342  0.0210 -0.7038
 9525SOL    HW134412   1.835   3.967   7.068 -0.6290  1.1128  0.0024
 9525SOL    HW234413   1.862   3.903   7.203  1.0259 -0.1279 -0.8805
 9526SOL     OW34414  10.838   2.017   3.876  0.2022  0.7113 -0.4030
 9526SOL    HW134415  10.915   2.018   3.819  0.0892 -1.0083 -0.6371
 9526SOL    HW234416  10.793   1.935   3.855 -0.8109  0.8997  0.8857
 9527SOL     OW34417   1.593  12.019   7.371  0.0548 -0.2852 -0.2267
 9527SOL    HW134418   1.662  11.967   7.329 -0.2124 -1.2386  0.4850
 9527SOL    HW234419   1.521  12.020   7.308  0.7451  0.8648 -1.0547
 9528SOL     OW34420  10.371   8.442   1.247 -0.0243  0.5261 -0.0775
 9528SOL    HW134421  10.430   8.485   1.186 -1.7600  1.3956 -1.2084
 9528SOL    HW234422  10.341   8.512   1.305 -1.0757  0.4145 -0.4666
 9529SOL     OW34423   1.921   3.270  11.358 -0.0753 -0.0872 -0.0210
 9529SOL    HW134424   1.865   3.293  11.432  0.9025  1.1001  0.3933
 9529SOL    HW234425   1.881   3.313  11.283  0.3259  0.8578  0.2952
 9530SOL     OW34426   2.318   3.176   9.448 -0.0513 -0.0127 -0.1311
 9530SOL    HW134427   2.295   3.160   9.356 -0.7331  1.8768 -0.3177
 9530SOL    HW234428   2.312   3.089   9.489 -3.7536 -0.3468 -1.0123
 9531SOL     OW34429  11.918   2.341  11.101 -0.2129  0.0324  0.5621
 9531SOL    HW134430  11.971   2.420  11.091 -0.2615 -0.1810 -2.2069
 9531SOL    HW234431  11.954   2.280  11.036 -1.1036 -1.7192  1.6305
 9532SOL     OW34432   2.599   3.217   1.212  0.7033 -0.3946  0.4688
 9532SOL    HW134433   2.601   3.158   1.287  0.6368 -0.1053  0.7002
 9532SOL    HW234434   2.691   3.240   1.198  0.7520 -0.7209  0.2426
 9533SOL     OW34435   7.078   6.892   0.962 -0.2961  0.2395 -0.2790
 9533SOL    HW134436   7.059   6.813   1.013 -0.8151 -0.6668 -1.8076
 9533SOL    HW234437   6.993   6.935   0.952 -0.2056  0.3774 -0.4490
 9534SOL     OW34438   3.910   8.025   2.228 -0.9802  0.6523 -0.0165
 9534SOL    HW134439   3.991   8.065   2.262 -0.3025 -0.6406 -0.0404
 9534SOL    HW234440   3.877   7.973   2.301 -1.2565  0.3840 -0.3310
 9535SOL     OW34441   5.590   0.064   4.076 -0.4214  0.0799 -0.1775
 9535SOL    HW134442   5.516   0.003   4.081 -2.1569  2.0763 -0.1009
 9535SOL    HW234443   5.549   0.150   4.069  1.9311  1.4072  1.3620
 9536SOL     OW34444   5.316   1.532   7.088  0.3921  0.1115 -0.1598
 9536SOL    HW134445   5.289   1.595   7.154 -1.6746 -0.7977 -0.0620
 9536SOL    HW234446   5.310   1.579   7.005 -0.0594  0.3682  0.0160
 9537SOL     OW34447   0.134   8.752   6.327 -0.1728 -0.3012 -0.7861
 9537SOL    HW134448   0.065   8.684   6.326 -0.1602 -0.3984  0.9920
 9537SOL    HW234449   0.089   8.831   6.356  0.7198 -0.7961  2.3304
 9538SOL     OW34450   3.809  12.219   8.791  0.0310 -0.3679  1.0174
 9538SOL    HW134451   3.750  12.243   8.863 -1.9129 -0.3930 -0.4903
 9538SOL    HW234452   3.812  12.297   8.735  2.2347 -0.0273  1.4966
 9539SOL     OW34453   6.997   8.450   9.770  0.4325  0.6302  0.4202
 9539SOL    HW134454   6.956   8.412   9.847  0.2527  1.3894  0.7059
 9539SOL    HW234455   6.927   8.502   9.729  0.8340  1.1166  0.3518
 9540SOL     OW34456   9.754   0.276  12.238 -0.3001  0.2627 -0.3366
 9540SOL    HW134457   9.659   0.279  12.235 -0.3932  1.1476  1.6948
 9540SOL    HW234458   9.775   0.185  12.258 -0.8474  0.4146  1.0623
 9541SOL     OW34459   0.879   6.571   1.196  0.1680  0.3085 -0.1162
 9541SOL    HW134460   0.925   6.651   1.221  1.5346 -0.7028  0.7807
 9541SOL    HW234461   0.807   6.564   1.259  0.6865  0.2773  0.4764
 9542SOL     OW34462   2.480  11.320   0.290  0.2417  0.0060 -0.3996
 9542SOL    HW134463   2.445  11.408   0.275 -3.3094 -1.1368  0.3579
 9542SOL    HW234464   2.424  11.262   0.238 -0.3832 -2.1826  2.4478
 9543SOL     OW34465  12.014   0.855   0.739 -0.0399  0.0051 -0.2052
 9543SOL    HW134466  12.038   0.897   0.822  0.4104 -0.5918 -0.0183
 9543SOL    HW234467  12.024   0.923   0.673 -0.1529  0.4208  0.2019
 9544SOL     OW34468   6.898   3.075  10.847 -0.5893  0.2201  0.9345
 9544SOL    HW134469   6.843   3.132  10.901 -1.5287  0.4862 -0.2520
 9544SOL    HW234470   6.901   2.992  10.894  1.3896  1.3759  3.0755
 9545SOL     OW34471   4.902  10.830  10.912 -0.0524 -0.2072  0.1692
 9545SOL    HW134472   4.952  10.903  10.948 -0.9050 -0.5640  2.2646
 9545SOL    HW234473   4.811  10.853  10.929 -0.4286 -1.0381 -0.6115
 9546SOL     OW34474  10.079   7.242   6.137  0.1156  0.1359 -0.2701
 9546SOL    HW134475  10.096   7.165   6.083 -0.1942 -0.3586  0.3204
 9546SOL    HW234476  10.005   7.286   6.095  1.2667  0.9804 -1.4869
 9547SOL     OW34477   7.686   6.886   3.808 -0.0765 -0.7132 -0.0432
 9547SOL    HW134478   7.745   6.927   3.745  0.5860 -2.6442 -0.7353
 9547SOL    HW234479   7.744   6.855   3.878  0.1856 -4.5631 -1.7332
 9548SOL     OW34480   1.557   6.805   7.466 -0.1824  0.1291 -0.4203
 9548SOL    HW134481   1.505   6.730   7.435  0.5965 -1.1015  1.0965
 9548SOL    HW234482   1.519   6.827   7.551 -1.2221  2.3519 -1.3851
 9549SOL     OW34483   2.977   9.071   2.892  0.2720  0.5182  0.0068
 9549SOL    HW134484   2.968   9.099   2.983 -1.4505  2.4497 -0.6944
 9549SOL    HW234485   3.004   9.150   2.845  0.4348 -0.2780 -1.2898
 9550SOL     OW34486  10.631   2.390   0.510 -0.2237 -0.1121  1.1901
 9550SOL    HW134487  10.722   2.361   0.502  0.2688  1.7089 -0.5139
 9550SOL    HW234488  10.626   2.470   0.457 -2.6777  0.1723  1.7259
 9551SOL     OW34489   9.156   0.205   9.164  0.1344 -0.1347 -0.2552
 9551SOL    HW134490   9.078   0.209   9.220 -0.3282  3.0856 -0.9145
 9551SOL    HW234491   9.228   0.185   9.225 -0.9091 -0.9792  0.7402
 9552SOL     OW34492   9.257   4.676   9.977  0.0632 -0.1363 -0.4377
 9552SOL    HW134493   9.250   4.732  10.055  1.9711 -0.2517 -0.1458
 9552SOL    HW234494   9.340   4.701   9.937  1.3243 -3.1614  0.0404
 9553SOL     OW34495   6.618   2.702  11.157 -0.2219  0.2341  0.7754
 9553SOL    HW134496   6.533   2.658  11.156  0.9327 -2.1532  0.6009
 9553SOL    HW234497   6.602   2.784  11.204 -2.4321 -0.5229  1.4709
 9554SOL     OW34498   5.954   1.264   7.848 -0.9108  0.2784 -0.2134
 9554SOL    HW134499   6.007   1.341   7.869  0.8852 -0.6505 -1.0674
 9554SOL    HW234500   5.910   1.287   7.766 -1.1773  0.7444  0.0528
 9555SOL     OW34501   2.686   6.241   9.711 -0.5409  0.3061  0.1182
 9555SOL    HW134502   2.601   6.226   9.670 -0.4326  0.6252 -0.2260
 9555SOL    HW234503   2.750   6.205   9.649 -0.4267 -0.0282  0.4235
 9556SOL     OW34504   4.132   9.986  10.065  0.4082 -0.0567  0.1573
 9556SOL    HW134505   4.061   9.923  10.077  0.8812 -0.5619  0.3474
 9556SOL    HW234506   4.108  10.060  10.121 -0.0742 -0.1270  0.0512
 9557SOL     OW34507   7.508   5.191   1.677  0.9082 -0.4720 -0.8527
 9557SOL    HW134508   7.589   5.176   1.726 -0.0343 -1.0995  0.6000
 9557SOL    HW234509   7.496   5.111   1.625  0.2943 -1.2093  0.3654
 9558SOL     OW34510   0.937  11.207   0.318 -0.1187  0.5523 -0.0994
 9558SOL    HW134511   0.974  11.289   0.285  0.1708 -0.2018 -1.7519
 9558SOL    HW234512   1.007  11.143   0.308 -0.6148 -0.0769  0.3640
 9559SOL     OW34513   3.094   2.545   8.393 -0.8564  0.3400 -0.2531
 9559SOL    HW134514   3.187   2.540   8.371 -0.9275 -0.7576 -0.3725
 9559SOL    HW234515   3.051   2.566   8.310 -0.7363  0.7076 -0.2262
 9560SOL     OW34516   8.229   8.351   6.463 -0.0392  0.0496  0.2416
 9560SOL    HW134517   8.173   8.272   6.464 -0.4873  0.3638  0.4677
 9560SOL    HW234518   8.233   8.376   6.371 -0.4355  0.1374  0.2464
 9561SOL     OW34519   5.178   4.635   1.408 -0.5687 -0.1083 -0.0471
 9561SOL    HW134520   5.136   4.708   1.453  1.9574  0.8114  0.9512
 9561SOL    HW234521   5.168   4.561   1.468  1.4797  0.7524  1.4357
 9562SOL     OW34522   6.290   3.500   1.539 -0.3732  0.4505 -0.3597
 9562SOL    HW134523   6.364   3.472   1.593  0.3081  2.0166 -0.4112
 9562SOL    HW234524   6.297   3.448   1.459  1.1326  1.0630 -0.6649
 9563SOL     OW34525   5.798   9.202   3.745  0.3877 -0.0331  0.3088
 9563SOL    HW134526   5.780   9.191   3.651  1.8714 -0.5787  0.0732
 9563SOL    HW234527   5.870   9.264   3.749 -0.0795  0.4812  1.1389
 9564SOL     OW34528   7.280   3.908   9.099 -0.5026 -0.5372  0.0109
 9564SOL    HW134529   7.260   3.916   9.005 -0.9881 -1.0644  0.0682
 9564SOL    HW234530   7.274   3.998   9.132  0.9237 -0.1466 -0.6947
 9565SOL     OW34531  10.716   6.040   4.369  0.1514  0.1322 -0.9755
 9565SOL    HW134532  10.736   5.960   4.320  1.8300  1.0506 -1.8600
 9565SOL    HW234533  10.711   6.109   4.302 -0.7061  0.8894 -0.1681
 9566SOL     OW34534   0.362   0.235  11.979  0.7133  0.6276 -0.2343
 9566SOL    HW134535   0.414   0.276  12.048  0.0559 -0.5257  0.9927
 9566SOL    HW234536   0.390   0.144  11.979  0.1457  0.4430 -0.9731
 9567SOL     OW34537   6.658   4.111   7.491 -0.1649 -0.0103  0.4083
 9567SOL    HW134538   6.627   4.091   7.579 -0.5482  0.7499  0.4530
 9567SOL    HW234539   6.629   4.037   7.438  1.5679 -1.3340  1.2279
 9568SOL     OW34540  11.126   9.695   9.717  0.4831 -0.0473  0.1993
 9568SOL    HW134541  11.038   9.662   9.735  0.5624 -1.4621 -1.6997
 9568SOL    HW234542  11.155   9.733   9.800 -1.0343 -1.6002  1.5102
 9569SOL     OW34543  10.257   8.773   7.462 -0.4202  0.6513 -0.0414
 9569SOL    HW134544  10.213   8.721   7.394  0.7770  0.4906 -0.7182
 9569SOL    HW234545  10.215   8.859   7.455 -0.9889  0.3639 -0.3139
 9570SOL     OW34546   4.594   1.632  10.018 -0.0986  0.1934 -0.2017
 9570SOL    HW134547   4.536   1.652   9.944 -0.4647 -0.2838 -0.0530
 9570SOL    HW234548   4.542   1.573  10.073  0.8234 -0.9584 -0.5135
 9571SOL     OW34549   8.900   0.170  10.732  0.2148 -0.2877  0.2901
 9571SOL    HW134550   8.891   0.075  10.723 -0.6645 -0.1871  0.0400
 9571SOL    HW234551   8.995   0.184  10.732  0.3586 -1.1364  0.0398
 9572SOL     OW34552   7.030   1.267   4.692 -0.2626 -0.0871 -0.0518
 9572SOL    HW134553   6.942   1.305   4.698  0.2947  1.0764  1.3018
 9572SOL    HW234554   7.083   1.335   4.651  0.6743  0.5428  2.0911
 9573SOL     OW34555  11.065   6.224   4.901  0.0979 -0.6592 -0.1038
 9573SOL    HW134556  11.127   6.151   4.904 -1.1798 -1.9052  4.6597
 9573SOL    HW234557  10.985   6.190   4.940 -1.3576  2.6570  0.1494
 9574SOL     OW34558   2.561   7.490  11.659  0.3328  0.0291  1.0260
 9574SOL    HW134559   2.521   7.500  11.573  0.0227  2.8350  1.4116
 9574SOL    HW234560   2.651   7.465  11.641  0.4800  1.3096 -0.1923
 9575SOL     OW34561   0.189   3.056   4.789  0.1958 -0.4085  0.2146
 9575SOL    HW134562   0.219   2.969   4.766 -1.9081 -1.5025  1.2682
 9575SOL    HW234563   0.228   3.073   4.875 -1.1188 -1.3213  1.0384
 9576SOL     OW34564   5.287  11.252  10.635  0.3090 -0.5756  0.1961
 9576SOL    HW134565   5.361  11.304  10.603 -0.4953  0.2564 -0.3852
 9576SOL    HW234566   5.289  11.172  10.583 -0.0332  0.0671 -0.8439
 9577SOL     OW34567   6.546   9.301  10.958 -0.0829 -0.0474  0.9292
 9577SOL    HW134568   6.633   9.266  10.941  0.4563  1.8586 -0.6641
 9577SOL    HW234569   6.492   9.268  10.886 -1.0031 -1.9970  2.4117
 9578SOL     OW34570   3.644  11.363   8.614 -0.3077 -0.0823  0.9729
 9578SOL    HW134571   3.612  11.310   8.687  0.8271 -1.0636  0.7892
 9578SOL    HW234572   3.567  11.376   8.558 -1.6696  2.2195  3.1466
 9579SOL     OW34573   3.809   5.071  10.105 -0.0567  0.2424 -0.4450
 9579SOL    HW134574   3.873   5.085  10.035  1.1003  0.7660  0.6980
 9579SOL    HW234575   3.844   4.999  10.157  0.3278  1.4177  0.9851
 9580SOL     OW34576  12.131  11.267  11.877  0.2936 -0.1842  0.3817
 9580SOL    HW134577  12.086  11.338  11.832 -0.4195  0.6999  2.4014
 9580SOL    HW234578  12.224  11.285  11.862  0.1021  0.7505  0.2483
 9581SOL     OW34579   0.796   7.935   0.719  0.1994  0.0238 -0.0067
 9581SOL    HW134580   0.814   7.954   0.627  1.2277 -0.7817  0.0094
 9581SOL    HW234581   0.737   8.005   0.746 -3.3683 -1.8082 -2.3116
 9582SOL     OW34582  11.388   3.671   0.715  0.1298 -0.4518  0.5580
 9582SOL    HW134583  11.451   3.600   0.703 -0.3285 -0.6799 -0.5776
 9582SOL    HW234584  11.313   3.629   0.757  0.8771 -0.0862  2.3622
 9583SOL     OW34585  12.018   1.087   4.641 -0.2422 -0.1827 -0.2054
 9583SOL    HW134586  12.056   1.176   4.639 -0.0531 -0.1982  1.1853
 9583SOL    HW234587  11.941   1.096   4.697 -0.2224 -0.8876 -0.0590
 9584SOL     OW34588   0.445   0.717   8.752  0.1574 -0.7270  0.1288
 9584SOL    HW134589   0.456   0.795   8.698 -1.6601 -0.1627  0.4781
 9584SOL    HW234590   0.353   0.693   8.740  0.0879 -1.4424  1.8207
 9585SOL     OW34591   6.976   8.425   5.052 -0.2240 -0.6247  0.0225
 9585SOL    HW134592   7.052   8.483   5.061 -1.2255  0.4642  1.9815
 9585SOL    HW234593   6.967   8.383   5.137 -1.0305 -1.7937 -0.6021
 9586SOL     OW34594   4.676   5.648   8.615  0.1615 -0.3710  0.2271
 9586SOL    HW134595   4.646   5.739   8.616  0.9846 -0.0777 -0.5711
 9586SOL    HW234596   4.714   5.634   8.701  0.8391  0.3265  0.0508
 9587SOL     OW34597   3.371   0.474   8.990  0.4127 -0.3652  0.7531
 9587SOL    HW134598   3.326   0.433   8.916  0.7039 -0.5116  0.6559
 9587SOL    HW234599   3.300   0.501   9.048  0.0438  1.8040 -0.6097
 9588SOL     OW34600   0.566   0.625   0.148  0.4238 -0.4565  1.0500
 9588SOL    HW134601   0.533   0.541   0.116  2.7077 -1.6659  1.6233
 9588SOL    HW234602   0.607   0.666   0.071 -0.0107 -0.2178  0.9435
 9589SOL     OW34603  10.119   6.450   6.806  0.0418  0.0991 -0.0660
 9589SOL    HW134604  10.043   6.430   6.860 -0.3252  0.9874 -0.2438
 9589SOL    HW234605  10.091   6.432   6.717  0.6967 -1.5134  0.0259
 9590SOL     OW34606   2.851  11.088   3.353  0.7644  0.5482  0.3424
 9590SOL    HW134607   2.762  11.122   3.359  0.4127 -0.5102  1.4859
 9590SOL    HW234608   2.900  11.137   3.419  0.4218 -0.5745  1.4819
 9591SOL     OW34609   3.237   9.932   0.523  0.5670  0.0972 -0.5030
 9591SOL    HW134610   3.269   9.906   0.610  1.7027  0.2524 -0.8629
 9591SOL    HW234611   3.229   9.849   0.475 -1.4008 -0.1521  0.1458
 9592SOL     OW34612   0.575   8.430   0.443 -0.2293  0.4998 -0.2216
 9592SOL    HW134613   0.559   8.349   0.394  0.4184  0.6557 -0.7256
 9592SOL    HW234614   0.546   8.499   0.384  0.1357  0.6737 -0.1983
 9593SOL     OW34615   7.888  11.332   5.212  0.8557  0.3721 -0.0703
 9593SOL    HW134616   7.899  11.264   5.145  3.3906  0.3167  0.2881
 9593SOL    HW234617   7.867  11.284   5.292 -0.0073  0.2530 -0.3621
 9594SOL     OW34618  11.994   4.875   7.600  0.7774  0.1737 -0.0169
 9594SOL    HW134619  11.993   4.872   7.504 -0.1925 -0.9128 -0.0049
 9594SOL    HW234620  12.076   4.832   7.624  0.2438 -1.0963 -0.3661
 9595SOL     OW34621   2.894   8.940  11.495 -0.2494 -0.2158  0.4486
 9595SOL    HW134622   2.851   8.991  11.427 -0.4225  1.7713  1.9326
 9595SOL    HW234623   2.986   8.967  11.490 -0.4191  0.6485  1.5214
 9596SOL     OW34624   2.777  12.031   1.908 -0.4092  0.5937  0.2038
 9596SOL    HW134625   2.747  12.121   1.914  1.0397  1.0773  0.4125
 9596SOL    HW234626   2.726  11.985   1.975 -1.1650  1.2391  0.0895
 9597SOL     OW34627   1.402   5.711   7.605  0.3743 -0.6870  0.3386
 9597SOL    HW134628   1.392   5.631   7.657 -1.0024 -2.1998 -2.0661
 9597SOL    HW234629   1.481   5.696   7.553  1.0302  0.2766  1.0127
 9598SOL     OW34630   0.433   6.242   3.593 -0.0948  0.2140 -0.3109
 9598SOL    HW134631   0.500   6.304   3.564 -0.7215  0.0048 -2.3223
 9598SOL    HW234632   0.350   6.283   3.568 -0.6736 -0.1764  0.8882
 9599SOL     OW34633   3.200   8.706   4.266 -0.6954  0.2734  0.4613
 9599SOL    HW134634   3.140   8.740   4.200 -0.5302 -1.0141 -0.3811
 9599SOL    HW234635   3.179   8.613   4.273 -1.3385  0.5337  2.9279
 9600SOL     OW34636   0.922   0.151   3.132 -0.1172 -0.8930 -0.2122
 9600SOL    HW134637   0.989   0.111   3.187 -0.3336 -1.0322 -0.0452
 9600SOL    HW234638   0.856   0.182   3.194  0.5582  0.7282 -0.2609
 9601SOL     OW34639   0.698   2.508   1.438 -0.7327  0.1619 -0.2339
 9601SOL    HW134640   0.753   2.552   1.503 -0.6658  0.3084 -0.3907
 9601SOL    HW234641   0.757   2.488   1.366 -0.5690 -0.9627  0.1941
 9602SOL     OW34642   5.693   1.268   9.291 -0.2988  0.3330 -0.1156
 9602SOL    HW134643   5.740   1.279   9.373 -0.9261  0.0507  0.2865
 9602SOL    HW234644   5.635   1.344   9.285  0.7045  1.0708 -0.9697
 9603SOL     OW34645   6.173   3.494   6.664  0.1275  0.6191 -0.2793
 9603SOL    HW134646   6.241   3.431   6.640 -2.4989 -2.7663  0.4015
 9603SOL    HW234647   6.137   3.524   6.581  1.1912  1.0113 -0.6132
 9604SOL     OW34648   6.208   0.804   9.108 -0.4170  0.3724 -0.0380
 9604SOL    HW134649   6.254   0.845   9.035 -2.0373  0.3750 -1.0978
 9604SOL    HW234650   6.236   0.712   9.105  1.1880  0.7976  0.7206
 9605SOL     OW34651  10.711   0.688   3.930 -0.0387  0.2891  0.1399
 9605SOL    HW134652  10.660   0.742   3.991  1.2333 -0.3207  1.7969
 9605SOL    HW234653  10.647   0.630   3.890 -0.8927  0.6544  0.9469
 9606SOL     OW34654   1.015   3.509   3.480  0.2493 -0.2443 -0.0192
 9606SOL    HW134655   1.015   3.515   3.384  1.6332 -3.0535 -0.2997
 9606SOL    HW234656   0.938   3.457   3.501  1.3689 -1.9832  0.0603
 9607SOL     OW34657   2.977  10.162  11.628 -0.0608 -0.8882 -0.0161
 9607SOL    HW134658   3.012  10.233  11.575 -1.6114  1.4049  1.8149
 9607SOL    HW234659   2.901  10.130  11.579  0.9900 -1.7603 -1.1314
 9608SOL     OW34660  11.556   3.756   1.078 -0.8085  0.1570  0.2558
 9608SOL    HW134661  11.589   3.801   1.000  1.2911  1.0201  1.5576
 9608SOL    HW234662  11.555   3.663   1.054  4.2276 -0.2173  0.4708
 9609SOL     OW34663   0.922   1.768   3.736 -0.0264 -0.3952 -0.7702
 9609SOL    HW134664   0.940   1.695   3.795 -3.0753 -0.7529 -0.1023
 9609SOL    HW234665   0.985   1.757   3.665  2.1542 -1.3518  1.1910
 9610SOL     OW34666   7.117   7.048  11.695  0.4703  0.1095  0.1464
 9610SOL    HW134667   7.162   7.116  11.645  1.4978 -0.5614  0.1084
 9610SOL    HW234668   7.176   6.972  11.690 -0.7406 -0.8538  0.0062
 9611SOL     OW34669   2.355   3.006   2.617 -0.0873 -0.1847 -0.2873
 9611SOL    HW134670   2.414   3.065   2.569 -1.0517  1.6645  0.6815
 9611SOL    HW234671   2.413   2.954   2.672  0.7231  0.9232 -0.0625
 9612SOL     OW34672   7.648   8.667   5.689  0.5538 -0.0460 -0.3698
 9612SOL    HW134673   7.635   8.743   5.747  1.7872 -0.4094  0.4156
 9612SOL    HW234674   7.680   8.705   5.607  0.5742  0.3367 -0.1881
 9613SOL     OW34675   3.882   0.999   4.209 -0.0034  0.9200  0.0386
 9613SOL    HW134676   3.818   1.065   4.181 -1.0716 -0.0082  0.2581
 9613SOL    HW234677   3.836   0.948   4.275  0.0948 -1.3217 -1.5339
 9614SOL     OW34678   8.347  10.740   3.963  0.1178  0.7276  0.1544
 9614SOL    HW134679   8.303  10.675   4.018  0.9843  0.8508  1.0162
 9614SOL    HW234680   8.352  10.699   3.877  1.0946 -0.5704  0.8006
 9615SOL     OW34681   6.798  11.496   0.784  0.3364 -0.6905 -0.2924
 9615SOL    HW134682   6.752  11.424   0.827 -0.9567 -0.0367 -0.5468
 9615SOL    HW234683   6.785  11.480   0.690 -0.0687 -0.0555 -0.3476
 9616SOL     OW34684  10.899   6.648   2.816  0.0810  0.5130  0.4701
 9616SOL    HW134685  10.851   6.663   2.898  0.2375  0.2176  0.6184
 9616SOL    HW234686  10.900   6.553   2.806  1.3672  0.4581  0.9241
 9617SOL     OW34687   6.024   7.705   4.022 -0.0225  0.2383  0.1171
 9617SOL    HW134688   6.001   7.675   4.110 -0.8582 -2.2838 -0.8721
 9617SOL    HW234689   5.941   7.737   3.986  0.5054  2.1724  0.5140
 9618SOL     OW34690  10.138  11.023   6.677 -0.5515 -0.2162  0.1870
 9618SOL    HW134691  10.046  11.050   6.672 -0.8794 -1.0425  1.3226
 9618SOL    HW234692  10.153  11.006   6.770  0.9000  0.3652  0.0893
 9619SOL     OW34693   8.377  10.988   8.486 -0.6435 -0.3894  0.2703
 9619SOL    HW134694   8.381  11.081   8.511 -1.0072 -0.3654  0.2330
 9619SOL    HW234695   8.400  10.941   8.566  1.6802 -0.2262 -0.2219
 9620SOL     OW34696   8.159   6.217   4.402  0.3139 -0.1206  0.0126
 9620SOL    HW134697   8.246   6.252   4.383 -0.7244  1.8629 -1.4000
 9620SOL    HW234698   8.121   6.279   4.464 -0.7061  0.0091 -0.7133
 9621SOL     OW34699   5.483   4.683   0.567 -0.3076  0.0506 -0.1800
 9621SOL    HW134700   5.408   4.643   0.523  0.2705 -1.7028  0.3397
 9621SOL    HW234701   5.558   4.660   0.513  0.0170  0.7797 -0.0608
 9622SOL     OW34702   0.471  11.712   5.303  0.2434  0.4163  0.6336
 9622SOL    HW134703   0.469  11.804   5.278  0.3052  0.0418 -0.8354
 9622SOL    HW234704   0.565  11.691   5.310  0.2613  0.1522 -0.3013
 9623SOL     OW34705   6.437   3.883  11.474 -0.1109 -0.3319 -1.1173
 9623SOL    HW134706   6.353   3.854  11.512 -0.3620  1.1298 -0.5106
 9623SOL    HW234707   6.423   3.878  11.379 -1.4538  1.3381 -1.0587
 9624SOL     OW34708   7.405   0.273   3.145  0.4039  0.5762  0.6593
 9624SOL    HW134709   7.480   0.228   3.106  0.4284  1.9704 -0.9637
 9624SOL    HW234710   7.334   0.262   3.082  0.0659  1.7645  0.8160
 9625SOL     OW34711   0.078   2.973  10.264 -0.6258  0.1681  0.2006
 9625SOL    HW134712   0.150   2.989  10.324  0.4099 -0.1199 -0.9104
 9625SOL    HW234713   0.073   3.053  10.211 -0.6787 -0.0773 -0.1655
 9626SOL     OW34714   9.055   5.480   4.503 -0.2567 -0.1843 -0.4379
 9626SOL    HW134715   8.959   5.486   4.505 -0.2322  0.0315  0.1055
 9626SOL    HW234716   9.085   5.562   4.542  0.1466 -0.6570  0.2589
 9627SOL     OW34717   2.938   1.049   8.684  0.3406 -0.1015  0.4782
 9627SOL    HW134718   2.938   0.971   8.629  0.9339 -0.2083  0.6253
 9627SOL    HW234719   3.029   1.077   8.686 -0.1614  1.9416 -1.4887
 9628SOL     OW34720   0.804   0.802  10.310  0.3832  0.6236  0.0801
 9628SOL    HW134721   0.735   0.819  10.246 -0.9201  0.6619  1.4627
 9628SOL    HW234722   0.820   0.886  10.352  0.5629  0.4029  0.4629
 9629SOL     OW34723   6.324   7.178   6.205  0.6669 -0.1987  0.1794
 9629SOL    HW134724   6.302   7.107   6.265  0.5196  0.3085  0.7360
 9629SOL    HW234725   6.374   7.240   6.258 -0.4953  0.8363  0.1122
 9630SOL     OW34726   4.410   9.172   2.862  0.6491  0.2127 -0.2597
 9630SOL    HW134727   4.406   9.089   2.909 -0.6145 -0.2273 -1.0719
 9630SOL    HW234728   4.476   9.223   2.908  1.7721 -1.3910  0.0036
 9631SOL     OW34729   4.867   6.918   8.384  0.2401  0.3203 -0.1465
 9631SOL    HW134730   4.798   6.905   8.449 -0.9615  1.1496 -1.1868
 9631SOL    HW234731   4.819   6.942   8.304  1.6061 -1.2549 -1.5121
 9632SOL     OW34732   2.892   8.013   3.732 -0.2188  0.1036  0.2480
 9632SOL    HW134733   2.907   7.946   3.799  0.5534  0.9081  0.8979
 9632SOL    HW234734   2.838   8.079   3.775  0.0521  0.4959 -0.0105
 9633SOL     OW34735   1.694   6.275   3.484  0.0458  0.5635 -0.5050
 9633SOL    HW134736   1.730   6.194   3.519  2.6948  1.0662 -1.8058
 9633SOL    HW234737   1.753   6.344   3.516 -0.2030  1.5612 -2.0420
 9634SOL     OW34738   9.498   9.453   2.650  0.3156  0.0638 -0.3086
 9634SOL    HW134739   9.584   9.441   2.609  1.2965  1.5385  1.1599
 9634SOL    HW234740   9.516   9.510   2.725 -1.6130 -1.3160  1.2851
 9635SOL     OW34741   0.851  10.086   6.496 -0.6764  0.3176  0.0323
 9635SOL    HW134742   0.796  10.008   6.499 -0.3907  0.0822 -0.5490
 9635SOL    HW234743   0.848  10.122   6.585 -1.2764 -0.0292  0.1534
 9636SOL     OW34744   9.675  10.030   0.027 -0.9442  0.0283 -0.9338
 9636SOL    HW134745   9.591  10.051   0.067 -0.3728 -0.5364  0.6357
 9636SOL    HW234746   9.674   9.935   0.017 -0.0991 -0.1089  0.0981
 9637SOL     OW34747   3.833  11.325   4.631 -0.0135 -0.3702  1.0808
 9637SOL    HW134748   3.822  11.237   4.596  0.3072 -0.0907  0.2500
 9637SOL    HW234749   3.815  11.317   4.725 -3.0753 -0.7465  0.5611
 9638SOL     OW34750  10.632   6.236   0.438  0.1477  0.1963  0.1431
 9638SOL    HW134751  10.577   6.158   0.446 -1.6263  1.5456  1.9058
 9638SOL    HW234752  10.649   6.263   0.528  1.1690  1.5740 -0.4310
 9639SOL     OW34753   7.144   9.598   8.112  0.0713  0.3575  0.7425
 9639SOL    HW134754   7.128   9.630   8.201  0.6902  1.3698  0.5071
 9639SOL    HW234755   7.237   9.575   8.112  0.0339  0.2037  0.4071
 9640SOL     OW34756   5.091   9.136  10.417  0.5827 -0.4848 -0.7679
 9640SOL    HW134757   5.089   9.156  10.510 -1.6275  1.8109 -1.2154
 9640SOL    HW234758   5.161   9.190  10.382 -1.8811  2.7933 -1.1080
 9641SOL     OW34759   5.892  11.059   7.508 -0.2499 -0.4982 -0.1161
 9641SOL    HW134760   5.935  11.031   7.589  0.6634  0.7415 -0.1526
 9641SOL    HW234761   5.814  11.106   7.536 -0.0858 -0.3195  0.0422
 9642SOL     OW34762   3.601   0.452   8.400 -0.5772 -0.3663 -0.0178
 9642SOL    HW134763   3.536   0.460   8.470 -1.4760  0.3640 -0.9094
 9642SOL    HW234764   3.681   0.489   8.438 -0.5729 -1.5635  1.2025
 9643SOL     OW34765   8.504   3.124   7.574 -0.3570  0.1462 -0.3850
 9643SOL    HW134766   8.469   3.208   7.544  0.5562  0.6483 -0.0867
 9643SOL    HW234767   8.426   3.070   7.589 -0.9629  0.9530 -0.5301
 9644SOL     OW34768   2.013   9.642   4.056  0.4799 -0.1853 -0.2517
 9644SOL    HW134769   2.005   9.663   3.963  0.4369 -0.4620 -0.3110
 9644SOL    HW234770   2.038   9.725   4.098  2.0892 -0.3993 -0.7164
 9645SOL     OW34771   1.095   6.882   9.391 -0.5203 -0.0799  0.2753
 9645SOL    HW134772   1.073   6.972   9.416 -0.3265  0.3897 -1.1466
 9645SOL    HW234773   1.013   6.833   9.405 -0.9711  0.5665 -0.0317
 9646SOL     OW34774   6.686   2.167   3.858 -0.5586  0.0987  0.0425
 9646SOL    HW134775   6.656   2.165   3.767 -2.8475 -0.2115  0.7225
 9646SOL    HW234776   6.691   2.260   3.879 -2.7290  0.2171  0.3244
 9647SOL     OW34777   9.896  11.994   3.297 -0.1647 -0.0570  0.3327
 9647SOL    HW134778   9.881  11.962   3.386  1.2276  0.2215  0.6934
 9647SOL    HW234779   9.925  11.916   3.248  0.7180  0.1227  0.5597
 9648SOL     OW34780   1.748   4.849   2.573  0.6259  0.6441  0.3263
 9648SOL    HW134781   1.729   4.907   2.500  2.4209 -0.0636 -0.7710
 9648SOL    HW234782   1.832   4.809   2.551 -0.1304 -1.7609  1.4114
 9649SOL     OW34783   7.201   7.641  11.594  0.1784  0.3963  0.0233
 9649SOL    HW134784   7.124   7.623  11.648 -0.2772 -0.0736 -0.7705
 9649SOL    HW234785   7.275   7.627  11.653 -0.3149  0.2422  0.6211
 9650SOL     OW34786   4.484   2.700   5.700 -0.0708  0.0061  0.5299
 9650SOL    HW134787   4.564   2.682   5.651 -0.5211 -0.5328 -0.0070
 9650SOL    HW234788   4.413   2.687   5.638 -0.5948  0.3688  1.0333
 9651SOL     OW34789  10.978   7.926   6.405  0.0454 -0.0182 -0.1394
 9651SOL    HW134790  10.890   7.930   6.367  0.5302  0.9467 -1.2176
 9651SOL    HW234791  10.983   7.839   6.444 -1.4948  0.0277  0.2338
 9652SOL     OW34792   3.639   7.413   1.553  0.3721  0.3842 -0.5180
 9652SOL    HW134793   3.651   7.320   1.534 -2.4589 -0.5901  1.7561
 9652SOL    HW234794   3.703   7.433   1.621  1.0496  0.1707 -1.0803
 9653SOL     OW34795   2.484  11.073   3.144 -0.2916  0.0989  0.1473
 9653SOL    HW134796   2.514  11.135   3.210  1.0496  0.5304 -0.8083
 9653SOL    HW234797   2.556  11.069   3.081 -1.1147 -1.0461 -0.7704
 9654SOL     OW34798   4.875  11.309   6.019  0.6434  0.0578  0.0162
 9654SOL    HW134799   4.841  11.303   6.109  2.8266 -0.7575  0.8623
 9654SOL    HW234800   4.919  11.394   6.016 -2.3677  1.6909 -1.4753
 9655SOL     OW34801   3.631   3.697   8.369 -0.6339  0.0095 -0.2158
 9655SOL    HW134802   3.563   3.677   8.304 -0.7879 -0.8443  0.2063
 9655SOL    HW234803   3.630   3.623   8.429  3.1100 -1.8608 -2.1625
 9656SOL     OW34804   4.160   1.666   9.863 -0.2704  0.4321  0.2892
 9656SOL    HW134805   4.159   1.699   9.773 -0.9535 -0.7462 -0.1516
 9656SOL    HW234806   4.083   1.706   9.903  0.9370  2.2816  0.8770
 9657SOL     OW34807  11.073   0.434   9.471  0.3751  0.3582 -0.3379
 9657SOL    HW134808  11.104   0.509   9.421  1.2546  0.1970 -0.0515
 9657SOL    HW234809  11.024   0.472   9.544  2.5203  0.7834  0.9751
 9658SOL     OW34810   0.950   0.458   8.016 -0.2849 -0.8609  0.0464
 9658SOL    HW134811   1.004   0.453   8.095  3.8621  0.8735 -2.3055
 9658SOL    HW234812   0.906   0.543   8.022  1.0459 -0.1376  0.0018
 9659SOL     OW34813   3.115   5.552   3.845 -0.0195 -0.3392 -0.7459
 9659SOL    HW134814   3.155   5.590   3.767  1.2124 -0.5002 -0.2303
 9659SOL    HW234815   3.145   5.461   3.845 -0.0836 -0.3677 -0.1524
 9660SOL     OW34816   4.932   1.674  11.723  0.2033  0.4388 -0.2784
 9660SOL    HW134817   4.994   1.714  11.662 -0.7367  0.0984 -1.5123
 9660SOL    HW234818   4.896   1.748  11.773  0.2895  0.8423 -0.8064
 9661SOL     OW34819   0.151  11.760   8.064 -0.0703 -0.0440 -0.0356
 9661SOL    HW134820   0.183  11.804   8.143 -0.8056 -0.8875  0.7674
 9661SOL    HW234821   0.174  11.819   7.992  0.1880  0.9813  0.8552
 9662SOL     OW34822   2.344   1.059   4.744 -0.6173  0.1668  0.9271
 9662SOL    HW134823   2.300   1.002   4.682  0.3880  0.5853 -0.2086
 9662SOL    HW234824   2.346   1.145   4.702  0.6083  0.3235  1.2580
 9663SOL     OW34825   7.546  11.478  10.475  0.0135 -0.1955 -0.0327
 9663SOL    HW134826   7.594  11.560  10.467  0.5878 -0.3619  1.3441
 9663SOL    HW234827   7.562  11.433  10.392  0.4496  0.6899 -0.4430
 9664SOL     OW34828   9.657  11.849  11.064  0.5961  0.8083  0.2007
 9664SOL    HW134829   9.720  11.848  10.992  0.1539  0.8727 -0.1950
 9664SOL    HW234830   9.580  11.803  11.030  1.5432 -2.1193  1.7559
 9665SOL     OW34831   8.017   0.914   8.351 -0.8634 -0.0693  0.0706
 9665SOL    HW134832   8.081   0.912   8.422  0.8558  1.8203 -1.2892
 9665SOL    HW234833   8.052   0.852   8.286 -0.3854  0.9293 -0.6543
 9666SOL     OW34834  11.715  12.079   3.852  0.6725 -0.1723 -0.7603
 9666SOL    HW134835  11.627  12.058   3.882  1.5779 -2.3279  0.6516
 9666SOL    HW234836  11.702  12.135   3.776 -1.8874 -0.2921 -0.4994
 9667SOL     OW34837   9.529   2.900  11.087  0.3755  0.0676 -0.0768
 9667SOL    HW134838   9.451   2.951  11.107 -0.9977 -1.9488  0.0884
 9667SOL    HW234839   9.545   2.848  11.166  1.3441 -0.2156 -0.4427
 9668SOL     OW34840  10.262  10.759  10.206 -0.3592  0.6730 -0.3891
 9668SOL    HW134841  10.260  10.672  10.247  1.4465  0.8836  0.2229
 9668SOL    HW234842  10.227  10.745  10.118 -0.8670 -0.5011 -0.0233
 9669SOL     OW34843   1.532   2.296   1.544  0.5277  0.5479 -0.0753
 9669SOL    HW134844   1.620   2.289   1.582  0.6972  1.0342 -0.3710
 9669SOL    HW234845   1.474   2.301   1.620  0.9299  2.2996  0.1398
 9670SOL     OW34846   4.270   5.062   2.078 -0.2330  0.1390  0.0882
 9670SOL    HW134847   4.344   5.117   2.052 -1.4547  0.4019 -3.4664
 9670SOL    HW234848   4.205   5.124   2.112  0.5130  0.1165  1.5997
 9671SOL     OW34849   8.756  10.915   1.043 -0.2244  0.1209  0.3940
 9671SOL    HW134850   8.711  10.989   1.002  0.0980  0.9204  1.4082
 9671SOL    HW234851   8.690  10.876   1.100 -0.1150  0.2624  0.6207
 9672SOL     OW34852   7.891   2.103   1.670  0.2249  0.7559  0.4092
 9672SOL    HW134853   7.893   2.059   1.585  0.1984 -0.6679  1.1190
 9672SOL    HW234854   7.865   2.193   1.650 -2.7611 -0.2640 -0.7849
 9673SOL     OW34855   7.843   6.347   6.278  0.1683  0.0956  0.0338
 9673SOL    HW134856   7.779   6.283   6.310  0.3643 -0.3929 -0.5404
 9673SOL    HW234857   7.876   6.309   6.197  1.1472  0.3743  0.2950
 9674SOL     OW34858   4.943   7.386  10.732 -0.1647 -0.4920 -0.4143
 9674SOL    HW134859   4.985   7.340  10.804  0.6324  0.1578 -0.4520
 9674SOL    HW234860   4.863   7.337  10.715  0.9478 -2.2456 -0.8539
 9675SOL     OW34861   9.776  11.564   7.702  0.1368  0.5338 -0.0554
 9675SOL    HW134862   9.718  11.595   7.772 -3.2890 -2.8988 -1.0403
 9675SOL    HW234863   9.755  11.619   7.627 -1.8152 -0.4979 -0.3254
 9676SOL     OW34864   5.936   4.967   0.609 -0.8322 -0.1601  0.3271
 9676SOL    HW134865   5.963   4.875   0.606 -0.1745  0.0120  0.5734
 9676SOL    HW234866   5.886   4.980   0.529  0.2161 -0.3949 -0.3951
 9677SOL     OW34867   4.554   4.927   7.001  0.0100  0.3217 -0.5316
 9677SOL    HW134868   4.497   4.869   7.050 -0.5201  1.6472  0.4745
 9677SOL    HW234869   4.496   4.972   6.940  0.2385  0.5452 -0.5877
 9678SOL     OW34870   7.487   1.695   8.470 -0.4585 -0.0647 -0.5734
 9678SOL    HW134871   7.477   1.673   8.378 -1.4888 -1.4937 -0.1402
 9678SOL    HW234872   7.465   1.788   8.475 -0.7885 -0.0724 -1.6977
 9679SOL     OW34873   2.644   0.843  10.535 -0.2098  0.6227  0.6493
 9679SOL    HW134874   2.603   0.799  10.460  1.7183  2.2059 -1.4755
 9679SOL    HW234875   2.667   0.772  10.595  2.0323 -1.3757 -2.2569
 9680SOL     OW34876   5.131   1.393   2.691  0.1717  0.4040 -0.4560
 9680SOL    HW134877   5.177   1.442   2.622  2.4742  1.1056  1.4539
 9680SOL    HW234878   5.164   1.304   2.683  1.5961  0.8111  0.6335
 9681SOL     OW34879   2.159   5.173   9.227  0.1314 -0.5813 -0.4375
 9681SOL    HW134880   2.150   5.088   9.271  1.5740 -0.7662 -0.4508
 9681SOL    HW234881   2.184   5.150   9.137  1.1274 -0.1400 -0.2803
 9682SOL     OW34882   5.504  10.759   9.775 -0.3075 -0.0278 -0.0035
 9682SOL    HW134883   5.587  10.714   9.763 -0.3000  0.4225 -2.1384
 9682SOL    HW234884   5.480  10.742   9.866  2.2368  0.0604  0.7738
 9683SOL     OW34885   5.385   2.088   2.655 -0.1160  0.0031  0.8705
 9683SOL    HW134886   5.294   2.072   2.630 -0.5199  0.8828  1.7110
 9683SOL    HW234887   5.431   2.101   2.572 -0.8919  0.2176  0.4664
 9684SOL     OW34888  11.551   7.544   2.000 -0.1998 -0.1492  0.4637
 9684SOL    HW134889  11.615   7.604   1.961 -0.8573  2.1253  2.6177
 9684SOL    HW234890  11.477   7.546   1.939  0.3212  0.1637 -0.1762
 9685SOL     OW34891   3.787   5.183   1.376  0.2794 -0.5004 -0.0397
 9685SOL    HW134892   3.767   5.141   1.292  0.0848 -1.5386  0.5170
 9685SOL    HW234893   3.763   5.119   1.442  0.9922  0.0744  0.8025
 9686SOL     OW34894   5.549   5.268   4.384 -0.0395 -0.0540 -0.1999
 9686SOL    HW134895   5.605   5.190   4.382 -0.0774 -0.0710 -1.0311
 9686SOL    HW234896   5.527   5.284   4.292  0.1937  1.1058 -0.0702
 9687SOL     OW34897   9.382  11.722   1.959  0.1135  0.2935 -0.2991
 9687SOL    HW134898   9.447  11.716   1.890  0.1827 -1.8827 -0.1063
 9687SOL    HW234899   9.431  11.706   2.040 -0.4984 -0.4895 -0.0734
 9688SOL     OW34900   3.726   6.313   2.412 -0.4204  0.4256 -0.0415
 9688SOL    HW134901   3.690   6.347   2.494  0.9185 -0.1482  0.8087
 9688SOL    HW234902   3.794   6.376   2.388 -0.8298  0.6101 -0.7396
 9689SOL     OW34903   6.957   4.184   6.887  0.3231 -0.4126 -0.6990
 9689SOL    HW134904   6.898   4.229   6.827  1.7133 -1.6136 -3.1095
 9689SOL    HW234905   6.900   4.133   6.944 -1.0249 -0.2375 -1.8461
 9690SOL     OW34906  10.127   2.687   0.958  0.1917 -0.1966  0.6639
 9690SOL    HW134907  10.044   2.674   0.913  0.5258  0.0890 -0.0471
 9690SOL    HW234908  10.162   2.768   0.922  0.7885 -0.3265  0.9372
 9691SOL     OW34909   1.223   9.093   7.584  0.2714  0.3168 -0.1529
 9691SOL    HW134910   1.128   9.100   7.580  0.3303  0.7386 -1.5259
 9691SOL    HW234911   1.247   9.057   7.498  1.3701  0.5508  0.0474
 9692SOL     OW34912   7.519   6.872   9.170  0.0990  0.1710 -0.3684
 9692SOL    HW134913   7.516   6.823   9.253 -0.4271  0.3307 -0.2874
 9692SOL    HW234914   7.428   6.871   9.139  0.3088  0.0368 -0.9905
 9693SOL     OW34915  11.752   1.243   2.798  0.2999 -0.2367 -0.0783
 9693SOL    HW134916  11.684   1.253   2.864 -0.6408  1.4628 -1.2325
 9693SOL    HW234917  11.805   1.170   2.829 -2.0448 -1.6369  0.8483
 9694SOL     OW34918   7.530   7.806   4.813  0.7101  0.0975  0.2114
 9694SOL    HW134919   7.616   7.847   4.805  0.2002  0.9676 -1.2316
 9694SOL    HW234920   7.469   7.873   4.781 -0.3189 -1.1825 -0.6075
 9695SOL     OW34921   6.199   5.677   1.680 -0.7382 -0.4787  0.0906
 9695SOL    HW134922   6.186   5.664   1.774 -0.4789  2.7490  0.7047
 9695SOL    HW234923   6.121   5.723   1.651 -0.7289 -1.2705 -1.2729
 9696SOL     OW34924   3.648   4.700   0.703  0.1169 -0.1592 -0.8116
 9696SOL    HW134925   3.608   4.701   0.790 -0.6186 -1.7559 -1.0947
 9696SOL    HW234926   3.737   4.670   0.719 -0.3134 -1.4533 -0.6781
 9697SOL     OW34927   5.402   4.342   6.394 -0.0224  0.0392 -0.2752
 9697SOL    HW134928   5.350   4.397   6.336  0.8530  1.6177  0.3665
 9697SOL    HW234929   5.488   4.384   6.396  0.3418 -0.7111  1.1192
 9698SOL     OW34930  10.200   8.656   1.986  0.3715  0.2876 -0.1362
 9698SOL    HW134931  10.119   8.616   1.954 -0.0186  0.4932  0.5812
 9698SOL    HW234932  10.231   8.709   1.912  0.5135 -0.7545 -0.8427
 9699SOL     OW34933   2.680  11.393   4.653 -0.0033  0.0617 -0.0464
 9699SOL    HW134934   2.757  11.353   4.694  1.4230  1.7980 -0.8748
 9699SOL    HW234935   2.662  11.339   4.577  0.3173 -0.4466  0.2361
 9700SOL     OW34936  10.499   5.068   0.031  0.3629 -0.4848 -0.0097
 9700SOL    HW134937  10.561   5.135   0.002 -0.0046  0.8099  1.9966
 9700SOL    HW234938  10.461   5.034  -0.050 -0.8832  3.1401 -1.1457
 9701SOL     OW34939   7.589   1.889   7.890  0.1358 -0.1122 -0.1849
 9701SOL    HW134940   7.613   1.950   7.960  0.3900  0.1993 -0.5376
 9701SOL    HW234941   7.668   1.882   7.837  0.1231 -0.8015 -0.1128
 9702SOL     OW34942   4.909   2.800  11.218 -0.0085  0.1345 -0.7833
 9702SOL    HW134943   4.918   2.830  11.127  1.5754  0.0385 -0.6863
 9702SOL    HW234944   4.960   2.863  11.269  0.5135 -0.7636 -0.1695
 9703SOL     OW34945   9.608   1.080   8.916  0.2928  0.0451  0.8107
 9703SOL    HW134946   9.620   1.165   8.874 -0.2122  0.8013  2.1515
 9703SOL    HW234947   9.689   1.032   8.897  0.5983  0.8289  0.0794
 9704SOL     OW34948   3.850   3.598   3.612  0.3995  0.3134  0.0427
 9704SOL    HW134949   3.879   3.640   3.531 -0.5737 -1.0639 -1.0638
 9704SOL    HW234950   3.882   3.509   3.606  0.8941  0.3634  1.5225
 9705SOL     OW34951   9.207   2.309   2.803  0.6070  0.7227  0.0775
 9705SOL    HW134952   9.213   2.322   2.897 -1.9015  2.1023  0.1307
 9705SOL    HW234953   9.250   2.386   2.765  1.6498  0.1488  0.0521
 9706SOL     OW34954   1.503   1.307   2.490  0.4750  0.2029  0.5235
 9706SOL    HW134955   1.438   1.374   2.512 -1.0059 -0.3726 -1.7172
 9706SOL    HW234956   1.462   1.225   2.517 -0.0293 -0.2172 -1.3792
 9707SOL     OW34957   8.651   1.007   8.777  0.1588 -0.3850  0.5611
 9707SOL    HW134958   8.720   1.072   8.766  0.0936  0.1643  2.8960
 9707SOL    HW234959   8.601   1.011   8.696  1.4674  0.8788 -0.2312
 9708SOL     OW34960   3.669   2.575   9.240 -0.2368  0.1355 -0.0866
 9708SOL    HW134961   3.743   2.612   9.289 -0.5855  0.5909  0.1104
 9708SOL    HW234962   3.709   2.514   9.178  0.5195  2.0464 -1.5706
 9709SOL     OW34963   6.702   1.166   2.888  0.1438 -0.8976 -0.1257
 9709SOL    HW134964   6.686   1.223   2.963 -0.6507 -3.6115  1.9188
 9709SOL    HW234965   6.792   1.136   2.899  0.0700 -1.1973 -0.3288
 9710SOL     OW34966  10.340   3.302   5.661 -0.1784  0.3710 -0.0712
 9710SOL    HW134967  10.312   3.372   5.602  0.2934  3.0458  2.6507
 9710SOL    HW234968  10.259   3.271   5.702 -0.1898  1.0436  0.4408
 9711SOL     OW34969   4.858   1.715   9.678  0.0598  0.3435 -0.0333
 9711SOL    HW134970   4.895   1.786   9.730  1.2943 -0.7063  0.6032
 9711SOL    HW234971   4.782   1.753   9.635 -0.0528  1.6970  1.2727
 9712SOL     OW34972   8.764   0.522   4.549  0.2780 -0.3217 -0.1830
 9712SOL    HW134973   8.857   0.514   4.526 -0.6789 -0.6245 -5.1310
 9712SOL    HW234974   8.732   0.432   4.549 -0.4953 -0.0763 -1.6083
 9713SOL     OW34975  10.954   4.820   7.632  0.1732  0.1198  0.7360
 9713SOL    HW134976  11.017   4.881   7.593 -0.1931  0.0898  0.0800
 9713SOL    HW234977  10.880   4.819   7.570  0.1314 -0.9152  0.7844
 9714SOL     OW34978   2.792  11.173   6.262  0.1499  0.2311 -0.3919
 9714SOL    HW134979   2.827  11.191   6.350  3.6219  1.7566 -1.8891
 9714SOL    HW234980   2.795  11.078   6.254  3.3855  0.1681  0.0056
 9715SOL     OW34981   2.330   4.559  11.546  0.1562  0.5005  0.6619
 9715SOL    HW134982   2.305   4.651  11.535  0.5446  0.5999  0.6096
 9715SOL    HW234983   2.372   4.556  11.632  1.3853  0.6439  0.0825
 9716SOL     OW34984   0.774   2.474   9.122  0.0814  0.3700 -0.1218
 9716SOL    HW134985   0.718   2.403   9.091  1.1076 -0.1562 -0.8571
 9716SOL    HW234986   0.859   2.432   9.138  1.5515  1.8134 -3.2003
 9717SOL     OW34987   7.715   4.643   5.894  0.1402 -0.5617  0.2274
 9717SOL    HW134988   7.640   4.685   5.853  0.7128 -0.2635 -0.5407
 9717SOL    HW234989   7.790   4.696   5.866  0.9428 -2.3464 -1.1507
 9718SOL     OW34990   0.938   9.201   3.745 -0.3088 -0.1632  0.1169
 9718SOL    HW134991   0.910   9.206   3.837 -1.1787  0.3295 -0.1607
 9718SOL    HW234992   0.872   9.146   3.703 -0.2508  0.1137 -0.3350
 9719SOL     OW34993   4.312   4.826   2.452  0.3490 -0.0326 -0.8321
 9719SOL    HW134994   4.315   4.918   2.481 -1.0808 -0.1779 -0.1468
 9719SOL    HW234995   4.307   4.832   2.357  0.4180  0.5924 -0.8034
 9720SOL     OW34996   4.554  10.178   5.630  0.3237 -0.1515 -0.3474
 9720SOL    HW134997   4.636  10.155   5.675  0.8233 -1.1444 -1.7149
 9720SOL    HW234998   4.575  10.258   5.583 -0.1776  0.8460  1.0570
 9721SOL     OW34999  11.314   3.697  11.267 -0.4493 -0.5052  0.4212
 9721SOL    HW135000  11.232   3.745  11.254 -0.5862 -0.5395  1.1031
 9721SOL    HW235001  11.356   3.742  11.340 -0.9150 -1.8479  1.5536
 9722SOL     OW35002   6.219   2.160   1.005  0.0488  0.0803  0.4760
 9722SOL    HW135003   6.199   2.077   1.046 -1.1540  0.3420  0.4504
 9722SOL    HW235004   6.313   2.172   1.019  0.1728 -1.1307  0.7299
 9723SOL     OW35005   9.550   9.649   1.002 -0.1443 -0.2880  0.1312
 9723SOL    HW135006   9.480   9.590   1.030  1.1108 -1.4188  1.0895
 9723SOL    HW235007   9.517   9.691   0.923 -2.4322  0.3009  1.3408
 9724SOL     OW35008   9.204   1.150   2.601  0.1612 -0.1250  0.3542
 9724SOL    HW135009   9.169   1.238   2.611  0.7203  0.1014  0.3846
 9724SOL    HW235010   9.199   1.133   2.507  0.5484  0.1587  0.2763
 9725SOL     OW35011   2.942   8.202   4.065  0.0183 -0.0026  0.2476
 9725SOL    HW135012   2.947   8.119   4.112 -0.1739  0.8366  1.8271
 9725SOL    HW235013   2.991   8.264   4.119  1.5043  0.5999 -1.6971
 9726SOL     OW35014   6.795   2.229   8.163 -0.0593  0.0862 -0.3092
 9726SOL    HW135015   6.826   2.284   8.092 -0.7910  1.1791  0.1767
 9726SOL    HW235016   6.816   2.278   8.242 -0.4451 -0.4819  0.1581
 9727SOL     OW35017   9.356  11.812   4.672 -0.0143  0.7528  0.2140
 9727SOL    HW135018   9.419  11.871   4.632  0.2575  1.0592  1.0851
 9727SOL    HW235019   9.408  11.755   4.728 -0.3404  0.0319 -0.2003
 9728SOL     OW35020   6.584   8.417   9.869 -0.1029  0.0664  0.6317
 9728SOL    HW135021   6.563   8.328   9.896  1.3602  0.1068  2.0283
 9728SOL    HW235022   6.603   8.410   9.775  0.4373 -1.1822  0.8148
 9729SOL     OW35023  10.517   6.018   3.193 -0.1266 -0.0531  0.2086
 9729SOL    HW135024  10.447   6.009   3.258 -0.3547  0.5410  0.0530
 9729SOL    HW235025  10.505   5.944   3.134 -1.0756  0.4393 -0.2337
 9730SOL     OW35026   1.293   1.103   8.053 -0.4620  0.2179 -0.8070
 9730SOL    HW135027   1.314   1.011   8.063  0.4614  0.4095 -0.9335
 9730SOL    HW235028   1.265   1.112   7.961 -1.8199 -0.1665 -0.4488
 9731SOL     OW35029   8.814  10.057   1.532 -0.3991 -0.5199  0.1085
 9731SOL    HW135030   8.884  10.101   1.484  0.3004 -0.5225  1.0997
 9731SOL    HW235031   8.857  10.019   1.609 -1.6402  0.2859  1.2487
 9732SOL     OW35032   8.243   3.350   8.617  0.0114  0.1338  0.0887
 9732SOL    HW135033   8.286   3.280   8.568 -0.8348 -1.4606  1.5291
 9732SOL    HW235034   8.286   3.349   8.703 -0.7965  0.5717  0.5126
 9733SOL     OW35035   8.290   7.134   1.639 -0.5836  0.4813 -0.2240
 9733SOL    HW135036   8.334   7.207   1.596  0.0341  0.5159  0.4528
 9733SOL    HW235037   8.226   7.175   1.697  0.9221  0.5800  1.4376
 9734SOL     OW35038   2.760   7.091  11.048 -0.2886  0.2737  0.1954
 9734SOL    HW135039   2.733   7.109  10.958 -1.3419  0.2844  0.5038
 9734SOL    HW235040   2.819   7.016  11.040 -0.6416  0.0561 -0.4756
 9735SOL     OW35041   2.417   8.854   1.705 -0.0386 -0.6330  0.2537
 9735SOL    HW135042   2.371   8.926   1.661 -1.0950  0.1207  2.4360
 9735SOL    HW235043   2.488   8.897   1.752  0.4088 -1.2658  0.1622
 9736SOL     OW35044   5.396   3.226   3.025  0.0130  0.2175  0.1526
 9736SOL    HW135045   5.354   3.148   3.063 -0.6115  0.4908  0.0275
 9736SOL    HW235046   5.385   3.215   2.931 -0.3198  0.5951  0.1481
 9737SOL     OW35047   7.718   0.116   9.160 -0.6181  0.0603 -0.2661
 9737SOL    HW135048   7.747   0.119   9.069 -0.6873 -0.5719 -0.3104
 9737SOL    HW235049   7.625   0.136   9.156 -0.9362 -1.4010 -0.4908
 9738SOL     OW35050   5.827   8.378  11.879  0.4941 -0.2425 -0.0552
 9738SOL    HW135051   5.756   8.313  11.883  0.3103 -0.0592 -0.3010
 9738SOL    HW235052   5.903   8.327  11.852  0.1868 -0.2373 -0.9828
 9739SOL     OW35053   2.683   2.418   2.034  0.0502 -0.2731  0.2209
 9739SOL    HW135054   2.653   2.372   1.955 -0.8226 -0.2026  0.4998
 9739SOL    HW235055   2.737   2.353   2.079  0.7820 -0.2246 -0.5575
 9740SOL     OW35056  11.960   4.403   8.275  0.0406 -0.4333 -0.5230
 9740SOL    HW135057  11.958   4.474   8.211 -1.4970  0.2941  0.2917
 9740SOL    HW235058  11.981   4.325   8.223  0.0268  0.3279 -1.7130
 9741SOL     OW35059  10.004   8.095   4.148  0.1020 -0.0386 -0.4173
 9741SOL    HW135060  10.011   8.189   4.132 -0.5138 -0.0864 -1.0384
 9741SOL    HW235061   9.914   8.082   4.177  0.2651 -0.3990 -0.0704
 9742SOL     OW35062   8.816   0.363   1.320 -0.4788  0.0664  0.1589
 9742SOL    HW135063   8.824   0.337   1.229 -1.3859  0.8985 -0.1709
 9742SOL    HW235064   8.877   0.437   1.330 -0.0539 -0.3080  0.3421
 9743SOL     OW35065   9.841   6.295   9.143 -0.1164 -0.1951  0.5170
 9743SOL    HW135066   9.825   6.207   9.107 -1.6184 -0.0274  0.7470
 9743SOL    HW235067   9.783   6.301   9.218  0.9649  0.5173  1.3217
 9744SOL     OW35068   7.519   0.735   1.544 -0.0116  0.3040 -0.1363
 9744SOL    HW135069   7.564   0.800   1.598 -1.2706  0.5179  0.6957
 9744SOL    HW235070   7.440   0.713   1.594  0.6029 -2.2200 -0.1705
 9745SOL     OW35071   2.268   1.717  12.320 -0.3381 -0.1427 -0.0535
 9745SOL    HW135072   2.299   1.782  12.258  3.1035 -2.3083 -0.8875
 9745SOL    HW235073   2.252   1.765  12.401 -0.8746  2.0921 -1.4127
 9746SOL     OW35074   4.784   0.467   5.704 -0.1193  0.2952  0.2323
 9746SOL    HW135075   4.839   0.544   5.717  0.8355 -0.6597  2.1007
 9746SOL    HW235076   4.695   0.503   5.698  0.4583  1.6666 -0.6957
 9747SOL     OW35077   4.468   2.607   1.411 -0.0607  0.1604  0.4203
 9747SOL    HW135078   4.379   2.577   1.391  0.4281 -0.6297 -0.6565
 9747SOL    HW235079   4.523   2.566   1.345  0.9255  1.8803  0.1009
 9748SOL     OW35080   1.166  10.916   0.664  0.1445  0.6888  0.1294
 9748SOL    HW135081   1.127  10.829   0.678  0.9221  0.4536  1.0198
 9748SOL    HW235082   1.093  10.976   0.667 -0.5507 -0.0120 -1.5449
 9749SOL     OW35083  10.147   3.902   1.904 -0.2345 -0.7240  0.4612
 9749SOL    HW135084  10.212   3.885   1.835 -0.4966  0.9023 -0.2367
 9749SOL    HW235085  10.191   3.878   1.985  1.1790  0.1461 -0.0164
 9750SOL     OW35086   6.523  11.048   8.617  0.1255  0.1373  0.1971
 9750SOL    HW135087   6.571  10.965   8.616 -1.3069 -0.7249 -0.7956
 9750SOL    HW235088   6.584  11.112   8.581  0.8634 -0.7206 -0.1152
 9751SOL     OW35089   3.313   3.252   2.190  0.2386 -1.0333 -0.0582
 9751SOL    HW135090   3.243   3.187   2.191 -0.8165  0.0690  0.7872
 9751SOL    HW235091   3.373   3.226   2.260 -0.0797 -1.1858  0.1551
 9752SOL     OW35092  11.556   3.398   6.719 -0.1295  0.4636  0.2015
 9752SOL    HW135093  11.539   3.435   6.632 -0.5794  1.1790  0.5835
 9752SOL    HW235094  11.498   3.322   6.724  1.1908 -0.6832 -0.8002
 9753SOL     OW35095   7.307   1.416   0.278  0.5233  0.2280  0.1861
 9753SOL    HW135096   7.346   1.492   0.320  0.2455 -0.2569  1.3624
 9753SOL    HW235097   7.353   1.408   0.194  1.0951  1.2153  0.3959
 9754SOL     OW35098   4.500   6.378   1.165  0.2546 -0.3315 -0.3807
 9754SOL    HW135099   4.540   6.394   1.250  0.9544  0.7632 -0.8997
 9754SOL    HW235100   4.545   6.300   1.131 -0.6992 -1.3607  0.6374
 9755SOL     OW35101   8.619  10.442   4.651  0.3902  0.0981 -0.2655
 9755SOL    HW135102   8.595  10.367   4.706  1.5011 -0.7581 -0.9108
 9755SOL    HW235103   8.615  10.517   4.711  0.4839 -0.6440  0.7053
 9756SOL     OW35104   6.376  10.118   9.387 -0.3723  0.4980  0.0504
 9756SOL    HW135105   6.332  10.153   9.464 -0.1828  0.3891  0.2120
 9756SOL    HW235106   6.455  10.171   9.378 -0.5003  0.6469 -0.1935
 9757SOL     OW35107   4.246   9.574   0.713  0.3657  0.4271  0.8332
 9757SOL    HW135108   4.258   9.483   0.740 -0.4996  0.3256  0.9282
 9757SOL    HW235109   4.163   9.573   0.665  1.4064  0.7784 -1.0502
 9758SOL     OW35110   0.651   4.928   5.077 -0.3793 -0.1391  0.1447
 9758SOL    HW135111   0.598   4.921   5.156 -1.4431  0.6810 -0.4668
 9758SOL    HW235112   0.630   4.849   5.027 -0.5282 -0.1408  0.2088
 9759SOL     OW35113   0.857   1.502   8.978 -0.0664 -0.4902  0.4734
 9759SOL    HW135114   0.820   1.582   9.014  0.4139 -0.2896  0.5312
 9759SOL    HW235115   0.781   1.448   8.954 -0.4015  0.2361 -0.1390
 9760SOL     OW35116   1.933  12.220   8.193  0.5660  0.3196  0.2326
 9760SOL    HW135117   1.908  12.196   8.282 -0.4866 -0.9047 -0.3723
 9760SOL    HW235118   1.889  12.304   8.178 -0.6018 -0.2677  0.3012
 9761SOL     OW35119  11.279   6.134   4.122  0.0679  0.3837 -0.6408
 9761SOL    HW135120  11.187   6.139   4.097 -0.7155 -3.3620  0.8565
 9761SOL    HW235121  11.279   6.089   4.207  3.2614  1.1545 -0.0740
 9762SOL     OW35122   1.023   1.668  11.371  0.1368  0.1019  0.7288
 9762SOL    HW135123   1.085   1.622  11.428 -1.1318 -1.4863  0.8831
 9762SOL    HW235124   0.960   1.706  11.431  0.5961  1.2196  0.5340
 9763SOL     OW35125  10.148   9.198   4.849  0.4853  0.1921 -0.2023
 9763SOL    HW135126  10.148   9.256   4.925 -0.3735 -0.1901  0.0993
 9763SOL    HW235127  10.240   9.174   4.837  0.7869  1.2035 -0.0236
 9764SOL     OW35128   4.245  10.242   5.554  0.9694 -0.4043 -0.3351
 9764SOL    HW135129   4.154  10.268   5.543  1.0386 -0.0728 -0.1467
 9764SOL    HW235130   4.241  10.148   5.572  0.8429 -1.0016 -3.0292
 9765SOL     OW35131  10.818   1.336   8.709  0.6297  0.1451 -0.0319
 9765SOL    HW135132  10.782   1.300   8.628  3.5061  0.5654 -1.6313
 9765SOL    HW235133  10.812   1.265   8.772  0.9824 -1.2124 -1.4832
 9766SOL     OW35134  10.624   6.154   1.731  0.1483  0.3049  0.8776
 9766SOL    HW135135  10.531   6.175   1.728  0.4266  1.5239 -0.4843
 9766SOL    HW235136  10.656   6.177   1.644  1.5200 -1.1692  0.9483
 9767SOL     OW35137   0.159   4.849   3.308  0.0259  0.0586  0.3464
 9767SOL    HW135138   0.205   4.928   3.279 -0.4847  0.1572 -0.2281
 9767SOL    HW235139   0.165   4.851   3.403  0.7285  0.3547  0.3029
 9768SOL     OW35140   9.965  10.893   9.448 -0.0863  0.1032  0.3680
 9768SOL    HW135141   9.892  10.910   9.507 -2.2004  0.2831 -2.1390
 9768SOL    HW235142   9.969  10.970   9.392  0.7572 -0.7439 -0.7853
 9769SOL     OW35143   0.302   1.904   3.261  0.6792 -0.3428  0.2468
 9769SOL    HW135144   0.321   1.874   3.172  2.1810 -0.7699  0.6735
 9769SOL    HW235145   0.387   1.934   3.294  0.5939 -2.1116  2.2336
 9770SOL     OW35146   5.115   2.064   8.886 -0.3494  0.0842 -0.3831
 9770SOL    HW135147   5.132   2.035   8.975 -0.0866  0.2909 -0.3653
 9770SOL    HW235148   5.202   2.078   8.848 -0.4695  1.4705 -0.1907
 9771SOL     OW35149   2.763   0.825   5.632  0.1283 -0.0638 -0.3601
 9771SOL    HW135150   2.845   0.780   5.654 -0.7347 -1.4819  0.0595
 9771SOL    HW235151   2.780   0.867   5.548  0.4685 -2.5770 -1.6240
 9772SOL     OW35152  10.711   8.252   4.104 -0.0447 -0.0662 -0.4414
 9772SOL    HW135153  10.672   8.193   4.040 -0.7952  1.1519 -1.1382
 9772SOL    HW235154  10.643   8.263   4.171  0.0900  0.0151 -0.3161
 9773SOL     OW35155  11.857   2.351   7.376 -0.7687  0.1162 -0.3577
 9773SOL    HW135156  11.900   2.434   7.397 -0.9241  0.0108  0.4057
 9773SOL    HW235157  11.902   2.320   7.297  1.0650 -0.3413  0.8040
 9774SOL     OW35158   2.183   3.588   7.455 -0.1970  0.3977  0.0330
 9774SOL    HW135159   2.201   3.546   7.539  1.6238  1.7740  0.3834
 9774SOL    HW235160   2.231   3.535   7.392 -0.5493  0.0855  0.0246
 9775SOL     OW35161   1.716   0.925   3.300 -0.0362  0.0865  0.3539
 9775SOL    HW135162   1.799   0.973   3.291  0.4123 -0.6564  0.4397
 9775SOL    HW235163   1.740   0.834   3.285 -1.2887  0.0954 -2.4125
 9776SOL     OW35164   1.822   0.024   5.629 -0.5043 -0.3366  0.3002
 9776SOL    HW135165   1.824  -0.071   5.612  0.0814 -0.4015  0.6919
 9776SOL    HW235166   1.775   0.060   5.554 -0.5308 -0.9167  0.0266
 9777SOL     OW35167   4.350   7.716   1.203  0.3541 -0.5819 -0.3714
 9777SOL    HW135168   4.335   7.647   1.139 -1.7041  0.6281 -1.3235
 9777SOL    HW235169   4.334   7.797   1.155  3.7340  0.6962  0.4189
 9778SOL     OW35170  11.435   1.796   8.753  0.2291  0.2292  0.6820
 9778SOL    HW135171  11.507   1.860   8.753  1.0101 -0.6303  0.0035
 9778SOL    HW235172  11.365   1.839   8.706  0.0349  1.3421  1.9108
 9779SOL     OW35173   6.003  12.029   7.918  0.3822  0.5647  0.1394
 9779SOL    HW135174   6.021  11.936   7.910  0.5986  0.6051  0.1687
 9779SOL    HW235175   6.019  12.064   7.831 -0.5278  0.4306 -0.0922
 9780SOL     OW35176  11.010   0.562   9.732  0.1554  0.1591 -0.7404
 9780SOL    HW135177  10.972   0.526   9.812 -0.9407  0.5822 -1.0544
 9780SOL    HW235178  11.048   0.646   9.758  0.3375  0.0183 -0.5493
 9781SOL     OW35179  11.210  10.183   7.917  0.2605 -0.1314  0.4774
 9781SOL    HW135180  11.244  10.158   7.832 -3.0566 -2.0241 -0.4861
 9781SOL    HW235181  11.197  10.100   7.963  0.7941  0.7647  2.3436
 9782SOL     OW35182   2.760  11.540   0.208  0.2285 -0.5534 -0.5816
 9782SOL    HW135183   2.814  11.513   0.134  0.1566  1.2559 -1.3491
 9782SOL    HW235184   2.687  11.587   0.168 -0.0621  0.0520  0.6158
 9783SOL     OW35185  12.067   3.540   6.553 -0.2006  0.1048 -0.0183
 9783SOL    HW135186  11.994   3.533   6.614 -0.9426 -2.7610 -1.0808
 9783SOL    HW235187  12.146   3.531   6.607 -0.8491 -2.8035  0.6310
 9784SOL     OW35188   8.056  10.820   0.863  0.4129  0.1536  0.1240
 9784SOL    HW135189   8.086  10.742   0.816  0.1257  0.1276 -0.0209
 9784SOL    HW235190   7.981  10.851   0.812 -0.6805 -0.5756  1.2457
 9785SOL     OW35191   7.061  11.677  10.110 -0.0060 -0.1604  0.2573
 9785SOL    HW135192   6.996  11.623  10.156 -0.3903 -1.0737 -1.2849
 9785SOL    HW235193   7.127  11.614  10.079  1.7743  0.7649  1.9374
 9786SOL     OW35194   1.922  11.418   5.969 -0.3234 -0.4772  0.4480
 9786SOL    HW135195   1.883  11.387   5.887 -0.4689  1.4809 -0.2668
 9786SOL    HW235196   1.852  11.406   6.034 -0.7308 -0.6367 -0.0124
 9787SOL     OW35197   8.224  10.346   3.279  0.0785  0.2058 -0.2203
 9787SOL    HW135198   8.208  10.353   3.373 -0.7024 -0.4638 -0.2946
 9787SOL    HW235199   8.264  10.259   3.268  0.4103  0.3897 -0.4782
 9788SOL     OW35200  11.137   6.743   2.822 -0.3844 -0.0818 -0.2402
 9788SOL    HW135201  11.054   6.696   2.814 -0.4696  0.0764 -0.3000
 9788SOL    HW235202  11.188   6.692   2.884  1.2428 -2.7776 -3.4880
 9789SOL     OW35203  10.565   0.796   4.412 -0.3816  0.0393 -0.2458
 9789SOL    HW135204  10.631   0.756   4.469 -0.0665 -0.0466 -0.6646
 9789SOL    HW235205  10.595   0.886   4.400 -1.4556  0.6360  1.2613
 9790SOL     OW35206   7.400   0.556   1.284  0.0049 -0.0012 -0.9453
 9790SOL    HW135207   7.332   0.618   1.310  0.6371  0.5358 -0.5300
 9790SOL    HW235208   7.416   0.504   1.363 -1.9092 -2.0725 -1.8102
 9791SOL     OW35209   7.818   6.200  10.828  0.5394 -0.5161  0.7954
 9791SOL    HW135210   7.893   6.171  10.880  1.3993  2.1432  1.2010
 9791SOL    HW235211   7.837   6.292  10.808 -1.3349 -0.5305 -1.4569
 9792SOL     OW35212   7.316   1.449  11.913  0.0537 -0.5284  0.0590
 9792SOL    HW135213   7.302   1.445  12.007  2.4531  0.4547  0.5405
 9792SOL    HW235214   7.254   1.386  11.876 -1.2646 -0.5832  2.2311
 9793SOL     OW35215   3.854  12.272   7.925 -0.0346 -0.3771  0.8331
 9793SOL    HW135216   3.943  12.239   7.912 -0.9820 -2.8499 -0.0254
 9793SOL    HW235217   3.839  12.333   7.853  0.0454 -2.1748 -0.7994
 9794SOL     OW35218   6.116   4.848  12.329  0.6444  0.3906 -0.0951
 9794SOL    HW135219   6.078   4.827  12.414 -0.2153 -0.1296 -0.5815
 9794SOL    HW235220   6.073   4.929  12.302  0.0976 -0.0167 -0.4943
 9795SOL     OW35221   7.675   0.960   1.884 -0.4891 -0.7380 -0.4317
 9795SOL    HW135222   7.615   1.031   1.908 -0.0593 -0.0470 -1.3590
 9795SOL    HW235223   7.680   0.963   1.788  1.9565  0.0144 -0.3465
 9796SOL     OW35224   6.262   1.627   3.276 -0.1112 -0.4036  0.1965
 9796SOL    HW135225   6.299   1.614   3.364  0.4484 -0.3111 -0.0225
 9796SOL    HW235226   6.172   1.593   3.283  0.2348 -1.2786  0.5507
 9797SOL     OW35227   0.153   6.482   2.352  0.3627 -0.1162  0.0678
 9797SOL    HW135228   0.171   6.544   2.281 -0.2581 -1.0812 -0.9551
 9797SOL    HW235229   0.144   6.397   2.309 -1.4072 -0.5171  1.1162
 9798SOL     OW35230   0.908   1.679   1.859 -0.1848  0.6070 -0.2040
 9798SOL    HW135231   0.846   1.750   1.841 -1.1040  0.0688  0.7048
 9798SOL    HW235232   0.927   1.642   1.773 -0.4761  1.3035 -0.5801
 9799SOL     OW35233   1.576   1.181   8.539 -0.1083 -0.0386 -0.8798
 9799SOL    HW135234   1.637   1.136   8.480  0.7707  0.6725 -0.5309
 9799SOL    HW235235   1.490   1.149   8.513  0.2463  0.2755 -2.5810
 9800SOL     OW35236   4.624   7.190  11.840  0.3834  0.0827  0.5191
 9800SOL    HW135237   4.655   7.172  11.929  0.5975  2.7465  1.0934
 9800SOL    HW235238   4.700   7.226  11.795  0.2379 -1.1229 -0.7390
 9801SOL     OW35239  10.410   5.073   5.716  0.0121  0.1808  0.3201
 9801SOL    HW135240  10.321   5.062   5.682  0.3594 -0.2477 -0.4753
 9801SOL    HW235241  10.401   5.062   5.811 -1.1706  2.5244  0.5766
 9802SOL     OW35242  10.973   1.864   9.718 -0.3645 -0.1935 -0.1913
 9802SOL    HW135243  10.928   1.845   9.636  1.0941 -1.2547 -0.7951
 9802SOL    HW235244  11.050   1.808   9.716  2.6075  3.5425 -0.5790
 9803SOL     OW35245   8.398   7.226   4.363 -0.0562  0.1730  0.1626
 9803SOL    HW135246   8.381   7.132   4.369  1.0176 -0.0165  0.4038
 9803SOL    HW235247   8.493   7.233   4.359  0.1216  1.4134  3.5392
 9804SOL     OW35248   4.732  10.914   2.711 -0.1010 -0.5973  0.2715
 9804SOL    HW135249   4.657  10.941   2.763  2.5006  3.3077  2.5279
 9804SOL    HW235250   4.710  10.939   2.621 -1.2313  1.1536  0.9928
 9805SOL     OW35251   9.419   1.429   2.072 -0.6775  0.0090 -0.2542
 9805SOL    HW135252   9.433   1.335   2.064 -1.5220 -0.1536  0.1021
 9805SOL    HW235253   9.413   1.445   2.167 -1.7597  0.2221 -0.3435
 9806SOL     OW35254  12.044  10.477   1.143  0.2058 -0.1547 -0.6496
 9806SOL    HW135255  12.069  10.417   1.073 -0.7594  1.1830 -2.2158
 9806SOL    HW235256  11.950  10.490   1.132  0.3546  1.5207 -0.2918
 9807SOL     OW35257   9.507   2.919   8.219  0.1889 -0.0004 -0.0698
 9807SOL    HW135258   9.463   2.897   8.137  0.1411  0.0807 -0.0662
 9807SOL    HW235259   9.524   2.835   8.261 -1.4184  0.0262  0.6877
 9808SOL     OW35260  10.008   3.056   8.559  0.5643 -0.7596 -0.0611
 9808SOL    HW135261   9.984   3.133   8.508 -0.9544 -1.0800  0.1269
 9808SOL    HW235262  10.103   3.063   8.570  0.6100  0.4631 -1.0315
 9809SOL     OW35263   8.450   6.796   7.574  0.0042  0.3182  0.1672
 9809SOL    HW135264   8.362   6.830   7.557 -0.1770 -0.5368 -0.6368
 9809SOL    HW235265   8.498   6.872   7.608 -0.6646  1.1299 -0.6509
 9810SOL     OW35266   9.439   1.740   9.521 -0.2063  0.2314 -0.0402
 9810SOL    HW135267   9.400   1.802   9.459 -0.0890 -0.4941 -0.8508
 9810SOL    HW235268   9.529   1.727   9.489 -0.1499 -0.1665  0.2740
 9811SOL     OW35269  11.056   7.900   1.818  0.1912 -0.1546 -0.2631
 9811SOL    HW135270  10.984   7.837   1.826 -1.6367  1.8644 -0.0028
 9811SOL    HW235271  11.014   7.982   1.792  2.4170  1.1120 -0.1457
 9812SOL     OW35272  12.003   8.925   9.534 -0.3533  0.7683  0.1893
 9812SOL    HW135273  12.077   8.926   9.474 -1.2821  1.4276 -1.0003
 9812SOL    HW235274  12.035   8.971   9.612  1.0476 -0.5989  0.4779
 9813SOL     OW35275   4.814   6.445   0.308  0.4082  0.2519 -0.3771
 9813SOL    HW135276   4.896   6.491   0.327  0.2793  0.2740  0.1477
 9813SOL    HW235277   4.796   6.466   0.217  2.7948 -2.5689 -1.6789
 9814SOL     OW35278   3.910  12.210   7.554 -0.1104  0.6400 -0.4168
 9814SOL    HW135279   3.837  12.264   7.586  0.6923  0.3007  2.2604
 9814SOL    HW235280   3.872  12.156   7.486 -2.4440  0.3646  0.9870
 9815SOL     OW35281  11.213   9.606   5.760 -0.3374 -0.1490 -0.1548
 9815SOL    HW135282  11.189   9.698   5.748 -0.0837 -0.0685 -0.0388
 9815SOL    HW235283  11.147   9.572   5.822  0.6486  0.4262  1.2526
 9816SOL     OW35284   3.970   9.010   8.241 -0.5328  1.2448 -0.1607
 9816SOL    HW135285   3.997   9.033   8.330 -0.5249 -2.9354  1.1357
 9816SOL    HW235286   3.879   9.040   8.236 -1.4889 -0.7848  2.4252
 9817SOL     OW35287   2.142   3.452   0.315  0.0926  0.5839 -0.2255
 9817SOL    HW135288   2.102   3.532   0.350  0.4443  0.6885 -0.0630
 9817SOL    HW235289   2.235   3.462   0.332  0.2644  0.5911 -1.0990
 9818SOL     OW35290  11.344  12.270   1.399 -0.5146 -0.3782  0.2700
 9818SOL    HW135291  11.423  12.273   1.345 -0.9622  0.2776 -0.3725
 9818SOL    HW235292  11.337  12.178   1.425 -0.6031 -0.8508 -1.2966
 9819SOL     OW35293   4.918  12.230   7.424  0.0699  0.1836  0.3494
 9819SOL    HW135294   5.007  12.197   7.437  0.1900  0.3932  0.0637
 9819SOL    HW235295   4.871  12.155   7.387  0.0707  0.0073  0.7014
 9820SOL     OW35296   2.447   8.989   3.403 -0.5220 -0.0277  0.1317
 9820SOL    HW135297   2.452   8.896   3.426 -0.4397  0.1699  0.9424
 9820SOL    HW235298   2.535   9.022   3.420 -0.9707  0.5559  1.5039
 9821SOL     OW35299  10.566  11.490   9.620  0.4771 -0.6944  0.0370
 9821SOL    HW135300  10.510  11.447   9.685 -0.4327 -0.6944 -0.7253
 9821SOL    HW235301  10.534  11.580   9.617 -0.5014 -1.0621 -1.4781
 9822SOL     OW35302   2.234   2.045   0.789 -0.1196  0.4724  0.4495
 9822SOL    HW135303   2.147   2.052   0.750  1.5299  0.0653 -3.8823
 9822SOL    HW235304   2.279   2.125   0.763  1.2811  0.0005  1.2880
 9823SOL     OW35305   3.992   0.391   9.943 -0.4500  0.4250  0.1945
 9823SOL    HW135306   3.914   0.343   9.917  0.3519 -0.4120 -0.8007
 9823SOL    HW235307   4.032   0.335  10.011  0.2181 -0.0900 -0.6019
 9824SOL     OW35308   8.382   8.067   3.100  0.3879  0.9949 -0.6329
 9824SOL    HW135309   8.430   7.986   3.082  0.3518  1.4783 -3.3238
 9824SOL    HW235310   8.448   8.126   3.136  0.8968  0.4541 -0.6550
 9825SOL     OW35311   4.245   5.166  11.813  0.0274  0.3562  0.0307
 9825SOL    HW135312   4.152   5.171  11.795 -0.0450 -1.2890 -0.2378
 9825SOL    HW235313   4.265   5.072  11.811  1.2334  0.4772  2.3399
 9826SOL     OW35314   8.655   4.941  10.881  0.2153 -0.4130  0.3977
 9826SOL    HW135315   8.579   4.993  10.854 -0.6140 -1.7292  0.1463
 9826SOL    HW235316   8.658   4.869  10.818  0.7343 -1.2371  1.3517
 9827SOL     OW35317   5.184   1.845   9.750 -0.1744  0.2724 -0.2804
 9827SOL    HW135318   5.208   1.761   9.710  0.7402  0.5377 -0.3230
 9827SOL    HW235319   5.185   1.828   9.844 -2.4768 -0.3923 -0.3175
 9828SOL     OW35320  11.141  11.356  10.737 -0.0170 -0.2317 -0.3020
 9828SOL    HW135321  11.053  11.331  10.705  0.3069  0.7265 -2.0532
 9828SOL    HW235322  11.149  11.448  10.715  1.4042 -0.2878 -0.0867
 9829SOL     OW35323   7.369  10.533  11.536 -0.2415  0.3834 -0.2862
 9829SOL    HW135324   7.373  10.532  11.440 -0.9564  0.8871 -0.3339
 9829SOL    HW235325   7.370  10.625  11.559  2.6337  0.2749  0.3683
 9830SOL     OW35326   3.061   4.248   2.807  0.2175 -0.2272  0.0918
 9830SOL    HW135327   3.048   4.201   2.890  1.6037 -0.2473  0.3242
 9830SOL    HW235328   3.057   4.341   2.832 -0.9610 -0.2120 -0.1048
 9831SOL     OW35329  11.318   2.504   4.513 -0.1016  0.0853  0.0430
 9831SOL    HW135330  11.335   2.532   4.423 -1.4286 -0.5006 -0.4195
 9831SOL    HW235331  11.234   2.457   4.508 -0.5471  0.6320  1.7003
 9832SOL     OW35332   4.175  11.595   6.879 -0.1342 -0.4458  0.3820
 9832SOL    HW135333   4.159  11.613   6.786 -0.0549 -0.4790  0.3615
 9832SOL    HW235334   4.199  11.679   6.917  0.8419 -0.6158  0.1572
 9833SOL     OW35335  10.046   6.792   4.413  0.2406  0.3692 -0.1494
 9833SOL    HW135336  10.062   6.838   4.330 -1.0962 -1.5897 -1.5843
 9833SOL    HW235337   9.963   6.829   4.445 -1.4996 -1.6768 -1.9351
 9834SOL     OW35338   0.580  10.699   7.383  0.1026 -0.2071 -0.5231
 9834SOL    HW135339   0.555  10.727   7.295 -0.6271  0.0626 -0.2404
 9834SOL    HW235340   0.527  10.753   7.441 -1.1016 -1.9125  0.0556
 9835SOL     OW35341   9.450   4.266   8.649 -0.0324  0.0699 -0.7146
 9835SOL    HW135342   9.536   4.272   8.608 -0.5479  3.9477 -1.6892
 9835SOL    HW235343   9.388   4.262   8.576 -0.7335  0.4983 -0.1685
 9836SOL     OW35344   1.543   2.170   9.351  0.6570 -0.0621 -0.1863
 9836SOL    HW135345   1.621   2.219   9.379  1.5743 -2.1341  1.1756
 9836SOL    HW235346   1.517   2.122   9.429 -1.2068 -0.4585 -1.0134
 9837SOL     OW35347   5.032   0.782   2.621 -0.0250 -0.3237 -0.1562
 9837SOL    HW135348   5.056   0.697   2.659  1.4013  0.0054 -0.2697
 9837SOL    HW235349   5.000   0.833   2.695  1.2814 -0.2082  0.3610
 9838SOL     OW35350   2.154   4.131   2.420  0.0216  0.0796 -0.2377
 9838SOL    HW135351   2.135   4.193   2.350 -0.4139  1.0586  0.7267
 9838SOL    HW235352   2.070   4.117   2.463  0.1790 -0.9342 -0.2346
 9839SOL     OW35353   3.608   8.376   9.321 -0.3241 -0.0010 -0.4436
 9839SOL    HW135354   3.637   8.466   9.311 -2.3486  0.8047  0.4875
 9839SOL    HW235355   3.624   8.355   9.413 -3.0272  0.6820  0.2710
 9840SOL     OW35356   6.035  11.305   3.958  0.4047 -0.4321  0.0046
 9840SOL    HW135357   5.970  11.310   4.029  2.0170 -0.6524  1.5759
 9840SOL    HW235358   5.989  11.339   3.881 -0.8603  1.7474  1.5828
 9841SOL     OW35359   7.754   2.904   6.226  0.0952 -0.3119 -0.2640
 9841SOL    HW135360   7.815   2.830   6.229  0.3595 -0.0880  3.1594
 9841SOL    HW235361   7.668   2.864   6.213  0.3502 -1.1467  0.5468
 9842SOL     OW35362   7.488   0.208   8.047  0.1142  0.3000 -0.2945
 9842SOL    HW135363   7.481   0.272   8.118  2.3729  0.7534 -0.4248
 9842SOL    HW235364   7.421   0.235   7.984 -2.4294 -0.5051  1.8433
 9843SOL     OW35365   7.191   9.791  12.310  0.1158  0.7282  0.1737
 9843SOL    HW135366   7.267   9.848  12.320 -0.1877  1.6633 -2.0710
 9843SOL    HW235367   7.118   9.842  12.344  0.2446  0.5406  0.7311
 9844SOL     OW35368   5.816  12.311   7.541  0.3627 -0.1766 -0.5058
 9844SOL    HW135369   5.748  12.324   7.474  1.7466  0.1922 -1.9080
 9844SOL    HW235370   5.814  12.217   7.559 -0.5788 -0.1570 -0.4451
 9845SOL     OW35371   1.133  10.396  10.523 -0.2274 -0.4024 -0.1356
 9845SOL    HW135372   1.096  10.367  10.440 -1.1076 -0.6223  0.3218
 9845SOL    HW235373   1.158  10.315  10.568  2.4206 -0.2319 -1.1149
 9846SOL     OW35374   1.163   7.298  11.179  0.5176 -0.6672 -0.3219
 9846SOL    HW135375   1.169   7.374  11.237  0.9254 -0.9623  0.0329
 9846SOL    HW235376   1.187   7.331  11.093  1.5436 -0.5703 -0.0079
 9847SOL     OW35377  12.311   3.913   0.153 -0.3316  0.0309  0.8098
 9847SOL    HW135378  12.243   3.905   0.087 -0.7754  2.1816  0.9330
 9847SOL    HW235379  12.387   3.869   0.115 -0.5244  1.3160 -1.2261
 9848SOL     OW35380   6.236  11.234   3.638  0.1493  0.0723  0.1030
 9848SOL    HW135381   6.165  11.204   3.581  0.5492  0.2140 -0.4761
 9848SOL    HW235382   6.275  11.153   3.671  0.1711 -0.0166 -0.1398
 9849SOL     OW35383  11.999   8.801   1.395  0.8065 -0.1030 -0.0906
 9849SOL    HW135384  12.089   8.775   1.379  1.0984  0.0906  1.1422
 9849SOL    HW235385  11.948   8.721   1.381  1.2053 -0.3086 -0.3973
 9850SOL     OW35386  10.427   4.846   2.043 -0.4929 -0.2875 -0.4417
 9850SOL    HW135387  10.374   4.905   1.990  1.4127  0.9321 -1.0895
 9850SOL    HW235388  10.507   4.832   1.992  0.0692 -1.6093  0.7242
 9851SOL     OW35389   5.020   8.708   8.530  0.2021  0.1357  0.4427
 9851SOL    HW135390   5.028   8.649   8.605 -2.4283 -0.4622  0.3604
 9851SOL    HW235391   5.007   8.794   8.569 -1.3998 -0.2068  0.7494
 9852SOL     OW35392   6.225   7.450  10.826  0.2382 -0.0030 -0.2636
 9852SOL    HW135393   6.145   7.481  10.783  0.1895 -1.0313 -0.9438
 9852SOL    HW235394   6.296   7.497  10.783 -0.0070  1.3218  0.7092
 9853SOL     OW35395  10.857  10.040   4.804  0.3417  0.0223 -0.0225
 9853SOL    HW135396  10.775  10.046   4.755 -0.2241  0.1191  0.9161
 9853SOL    HW235397  10.842   9.969   4.866  0.8356  0.2856  0.4034
 9854SOL     OW35398   4.448   4.851   4.515  0.2253  0.1134  0.1113
 9854SOL    HW135399   4.469   4.870   4.607 -1.5859  1.2091  0.3465
 9854SOL    HW235400   4.514   4.787   4.489  2.4460  1.7062  1.3805
 9855SOL     OW35401   0.067   1.914   0.336  0.2201 -0.2974  0.7432
 9855SOL    HW135402   0.055   2.006   0.313 -0.0817  0.0160  2.0648
 9855SOL    HW235403   0.161   1.899   0.329  0.2287 -0.0071  0.1473
 9856SOL     OW35404   1.877   9.107  10.546  0.1423  0.2322  0.1811
 9856SOL    HW135405   1.833   9.146  10.622  0.1694 -0.3705  0.5075
 9856SOL    HW235406   1.831   9.145  10.471  0.3552  1.1126  0.4817
 9857SOL     OW35407  12.305   3.241  10.789  0.2457  0.0787  0.1577
 9857SOL    HW135408  12.308   3.336  10.774 -0.5469 -0.2017 -2.1129
 9857SOL    HW235409  12.326   3.203  10.704 -1.1940 -1.7812  0.5864
 9858SOL     OW35410   1.714   1.653   9.220  0.3751 -0.9266  0.1147
 9858SOL    HW135411   1.770   1.677   9.146  1.1433  0.8740  1.2005
 9858SOL    HW235412   1.644   1.718   9.220 -1.3844 -2.7360 -0.7998
 9859SOL     OW35413   3.055   8.148   0.925 -0.2703 -0.1414 -0.5366
 9859SOL    HW135414   3.121   8.154   0.856 -2.2747 -0.5982 -2.6159
 9859SOL    HW235415   3.062   8.058   0.957  0.0394 -0.2200 -0.8205
 9860SOL     OW35416   6.669  10.480   8.360 -0.1390  0.4072 -0.6024
 9860SOL    HW135417   6.646  10.565   8.397 -3.3182  0.0688 -1.4358
 9860SOL    HW235418   6.648  10.487   8.267  0.5390 -0.9580 -0.8883
 9861SOL     OW35419   1.901   6.487   7.718  0.1198  0.0246 -0.0965
 9861SOL    HW135420   1.939   6.551   7.779  0.1218  0.4738 -0.5535
 9861SOL    HW235421   1.831   6.535   7.674  0.2192 -0.2409 -0.5521
 9862SOL     OW35422   9.274   8.382   1.568 -0.6160 -0.0369  0.1169
 9862SOL    HW135423   9.180   8.399   1.576 -0.3818  1.4151  0.1355
 9862SOL    HW235424   9.282   8.326   1.492 -1.6170 -1.4734  1.0175
 9863SOL     OW35425   5.074   3.991   7.204 -0.3203  0.4762 -0.6407
 9863SOL    HW135426   5.113   3.936   7.272 -1.2459 -1.8111 -1.8400
 9863SOL    HW235427   4.984   4.003   7.232 -0.7996 -0.7627 -1.5814
 9864SOL     OW35428   2.179   8.960   4.340 -0.7752 -0.5024 -0.4360
 9864SOL    HW135429   2.100   8.907   4.336 -0.6060 -0.6580 -2.3653
 9864SOL    HW235430   2.157   9.040   4.293  0.4497 -0.8928 -1.7400
 9865SOL     OW35431   0.324   6.136  12.186 -0.5195 -0.2139  0.2055
 9865SOL    HW135432   0.367   6.209  12.141 -2.4605  0.1538 -1.1593
 9865SOL    HW235433   0.295   6.173  12.270  0.1048  0.0532  0.3098
 9866SOL     OW35434  11.483   9.362   6.592 -0.2592  0.3947 -0.4075
 9866SOL    HW135435  11.427   9.438   6.610  0.6119  1.2162 -1.0787
 9866SOL    HW235436  11.449   9.293   6.649 -0.3348  1.6233  1.1020
 9867SOL     OW35437   1.080  11.632   4.636  0.2615 -0.1779 -0.1954
 9867SOL    HW135438   1.156  11.574   4.628 -0.0214 -0.5014 -0.6185
 9867SOL    HW235439   1.076  11.678   4.552  0.4555  0.4262  0.1226
 9868SOL     OW35440   8.146  11.220   2.362  0.1574  0.0182  0.2822
 9868SOL    HW135441   8.120  11.145   2.414  1.6876  0.2585  1.4464
 9868SOL    HW235442   8.119  11.198   2.272  0.0634 -1.6453  0.6965
 9869SOL     OW35443   3.448   0.849   9.764 -0.2812  0.2974 -0.3147
 9869SOL    HW135444   3.494   0.933   9.770  0.6843 -0.2012 -0.4079
 9869SOL    HW235445   3.395   0.857   9.685 -0.4935  0.9503 -0.1184
 9870SOL     OW35446   5.563   5.851   2.570  0.0534  0.2682 -0.2731
 9870SOL    HW135447   5.646   5.849   2.617 -0.1971 -0.9803  0.1399
 9870SOL    HW235448   5.505   5.902   2.627  0.4094  0.7842 -0.3649
 9871SOL     OW35449   2.088   5.391   2.278 -0.1354 -0.7078 -0.3315
 9871SOL    HW135450   2.094   5.320   2.215  1.9934 -0.1673 -0.8150
 9871SOL    HW235451   2.025   5.360   2.344 -0.0185 -2.5922 -1.0478
 9872SOL     OW35452   9.973   9.368   7.612  0.2900  0.4281 -0.2874
 9872SOL    HW135453  10.015   9.285   7.590  2.7101  1.3361  0.5939
 9872SOL    HW235454   9.960   9.411   7.528  1.7095  0.3454 -0.5789
 9873SOL     OW35455   4.432   0.746   7.446  0.2352  0.0439  0.3346
 9873SOL    HW135456   4.483   0.823   7.420 -0.4920  0.8928  1.3269
 9873SOL    HW235457   4.415   0.699   7.365  2.4191 -0.1713 -0.0619
 9874SOL     OW35458   7.508   9.199   8.851  0.1362 -0.2092  0.2976
 9874SOL    HW135459   7.530   9.185   8.759  1.2635 -0.2157  0.5468
 9874SOL    HW235460   7.460   9.282   8.852  1.6742  0.7193 -0.1050
 9875SOL     OW35461   7.744  11.887   7.159  0.1925 -0.0256 -0.5460
 9875SOL    HW135462   7.681  11.959   7.151  1.6217  1.2891 -0.4264
 9875SOL    HW235463   7.785  11.881   7.072  0.7996  0.0065 -0.2678
 9876SOL     OW35464   0.461   7.588   3.783  0.4585  0.1943 -0.2272
 9876SOL    HW135465   0.439   7.639   3.706  1.7800  1.3428  0.1196
 9876SOL    HW235466   0.380   7.540   3.804 -0.6462  1.6962 -0.8975
 9877SOL     OW35467   5.761   8.203   1.467  0.7232  0.3653  0.0460
 9877SOL    HW135468   5.739   8.295   1.473  0.1242  0.1180  2.2053
 9877SOL    HW235469   5.685   8.163   1.423  0.0167  0.5921  1.0334
 9878SOL     OW35470   3.897   1.708   0.275 -0.6535 -0.2662 -0.4797
 9878SOL    HW135471   3.883   1.693   0.181 -1.4019 -0.4906 -0.3360
 9878SOL    HW235472   3.858   1.794   0.291 -0.5981 -0.2642 -0.3573
 9879SOL     OW35473   5.020   8.459   1.757 -0.4856  0.2881  0.4452
 9879SOL    HW135474   5.098   8.502   1.793  1.0174 -0.1556 -2.0839
 9879SOL    HW235475   5.040   8.366   1.760 -0.6130  0.2092 -0.8704
 9880SOL     OW35476  11.056  10.564   4.963 -0.1828 -0.1760  0.4564
 9880SOL    HW135477  11.111  10.491   4.936 -0.5098 -0.5310  0.7254
 9880SOL    HW235478  10.966  10.531   4.953 -0.3406  0.2694  0.3614
 9881SOL     OW35479   6.631   0.342   3.439  0.3279  0.1129  0.3680
 9881SOL    HW135480   6.711   0.320   3.391 -0.6553 -0.6317 -1.0038
 9881SOL    HW235481   6.585   0.258   3.448 -1.0015  0.7639 -0.2063
 9882SOL     OW35482   3.988   7.527   7.872  0.1064  0.1898  0.2988
 9882SOL    HW135483   4.024   7.442   7.847 -2.4071 -1.6030  2.3618
 9882SOL    HW235484   4.047   7.559   7.940  1.2408  0.3333 -0.7048
 9883SOL     OW35485   7.270   0.779   7.196 -0.9221 -0.6654  0.4410
 9883SOL    HW135486   7.234   0.805   7.110 -0.8896 -1.8199  0.0587
 9883SOL    HW235487   7.210   0.818   7.259 -1.0096  0.1181 -0.1022
 9884SOL     OW35488   3.824  10.794   5.357  0.5759 -0.0311  0.2363
 9884SOL    HW135489   3.826  10.795   5.261  0.4090  2.6908  0.2028
 9884SOL    HW235490   3.916  10.788   5.383  0.5877 -1.5051 -0.0324
 9885SOL     OW35491  10.800   1.212   3.369 -0.1242  0.1891  0.9871
 9885SOL    HW135492  10.824   1.300   3.342 -0.1730 -0.1761 -0.3539
 9885SOL    HW235493  10.863   1.189   3.437  2.3824 -0.1373 -1.2787
 9886SOL     OW35494   1.748   9.431   7.006  0.3386 -0.0528  0.2239
 9886SOL    HW135495   1.700   9.475   6.936  1.6399  1.2175  0.0988
 9886SOL    HW235496   1.834   9.413   6.968  0.6376 -0.5179  1.0945
 9887SOL     OW35497   6.847   5.438   5.303 -0.2590 -0.1174  0.4359
 9887SOL    HW135498   6.874   5.407   5.390  1.5743 -0.1873 -0.1062
 9887SOL    HW235499   6.789   5.370   5.270 -2.1484  0.5628  2.1144
 9888SOL     OW35500   2.918   5.080   3.772  0.1274 -0.1305  0.2514
 9888SOL    HW135501   2.921   4.994   3.813  2.2688  0.3494  1.2939
 9888SOL    HW235502   2.892   5.063   3.682 -1.6330 -1.5849  0.9764
 9889SOL     OW35503   7.323   1.511   4.394  0.9920 -0.2684 -0.4566
 9889SOL    HW135504   7.256   1.465   4.344  2.0059 -1.6412 -0.6014
 9889SOL    HW235505   7.303   1.491   4.486 -1.2174  2.7237 -0.1460
 9890SOL     OW35506   8.818   9.507   9.861  0.5247  0.0036  0.4283
 9890SOL    HW135507   8.808   9.594   9.899 -0.5945  0.9241 -1.7753
 9890SOL    HW235508   8.822   9.523   9.766  0.8471 -2.3141 -0.0048
 9891SOL     OW35509  10.948   9.088   8.735 -0.2946 -0.2150  0.0681
 9891SOL    HW135510  10.966   9.155   8.669  0.8766 -0.5886 -0.0092
 9891SOL    HW235511  11.031   9.041   8.746 -0.0134  0.7599  2.8753
 9892SOL     OW35512   3.459   3.528  10.803 -0.1753  0.2949 -0.2138
 9892SOL    HW135513   3.378   3.578  10.811  1.9945  3.9655  1.7790
 9892SOL    HW235514   3.501   3.563  10.724  1.3562  1.8529  1.1853
 9893SOL     OW35515   0.693   1.061  10.474  0.0635 -0.1051  0.6617
 9893SOL    HW135516   0.709   1.032  10.563  2.3863  0.6217  0.5308
 9893SOL    HW235517   0.668   1.153  10.482 -3.0375 -0.8432  0.7391
 9894SOL     OW35518   5.185   4.339   9.594 -0.1624  0.7426  0.5237
 9894SOL    HW135519   5.133   4.420   9.593 -1.4024 -0.0117  1.0312
 9894SOL    HW235520   5.120   4.269   9.595  0.8683 -0.2455  1.8649
 9895SOL     OW35521   1.640   9.452   8.928 -0.5497  0.0777 -0.0942
 9895SOL    HW135522   1.720   9.493   8.895  0.8153 -0.6400  2.0856
 9895SOL    HW235523   1.573   9.520   8.920  1.0817  1.9762  1.2271
 9896SOL     OW35524   2.297   2.347   6.102  0.1238 -1.1314  0.0493
 9896SOL    HW135525   2.386   2.312   6.105  1.5767  2.1634  0.2755
 9896SOL    HW235526   2.285   2.374   6.011  0.6644  1.1580  0.5745
 9897SOL     OW35527   5.197  12.002   0.968 -0.1730  0.5967  0.5600
 9897SOL    HW135528   5.202  12.097   0.954  0.6081  0.5855  0.7386
 9897SOL    HW235529   5.284  11.970   0.947 -0.4457 -0.0915  0.4685
 9898SOL     OW35530   5.107   4.706  10.294 -0.6913  0.1371  0.5402
 9898SOL    HW135531   5.181   4.690  10.236 -0.3709 -1.1282  1.2473
 9898SOL    HW235532   5.137   4.775  10.353 -0.1512 -0.2179  0.6831
 9899SOL     OW35533   3.645  10.851   4.369 -0.6300  0.4074 -0.3466
 9899SOL    HW135534   3.739  10.866   4.373 -0.6673  1.5585 -2.2518
 9899SOL    HW235535   3.626  10.792   4.442  1.4356  0.7422  0.5095
 9900SOL     OW35536   4.765   0.411   4.972  0.0143  0.3021 -0.4082
 9900SOL    HW135537   4.691   0.470   4.988 -0.3439  0.3716 -2.0671
 9900SOL    HW235538   4.746   0.374   4.885  1.5886 -0.2055 -0.5556
 9901SOL     OW35539   3.298   0.299   4.389 -0.9749 -0.1187  0.1289
 9901SOL    HW135540   3.317   0.392   4.379 -0.6499 -0.2977 -1.0921
 9901SOL    HW235541   3.384   0.257   4.386 -1.2084 -0.5528 -0.5555
 9902SOL     OW35542   4.937   1.237   4.610 -0.1785 -0.2619  0.0350
 9902SOL    HW135543   4.999   1.272   4.546 -1.5357 -1.2989 -1.9677
 9902SOL    HW235544   4.851   1.247   4.569 -1.2320 -0.1630  2.1094
 9903SOL     OW35545  10.004   5.023   1.122 -0.2728 -0.8514  0.2463
 9903SOL    HW135546   9.956   4.974   1.055 -0.0141 -2.4115  1.1611
 9903SOL    HW235547  10.096   5.001   1.106 -0.0239  0.3145 -0.0603
 9904SOL     OW35548   9.033   3.075   3.684  0.2729  0.3781 -0.2144
 9904SOL    HW135549   9.101   3.013   3.711  0.5192 -0.2988 -2.2396
 9904SOL    HW235550   8.957   3.053   3.739  0.3417 -1.7763 -0.9031
 9905SOL     OW35551   3.178   5.213   3.814  0.1334  0.0152 -0.1521
 9905SOL    HW135552   3.219   5.230   3.728  0.7003  0.9705  0.2806
 9905SOL    HW235553   3.090   5.183   3.793 -1.0216  3.5617 -1.1197
 9906SOL     OW35554   6.723   0.066  10.927 -0.1015  0.0264  0.0333
 9906SOL    HW135555   6.748   0.116  10.850  0.1114  2.4216  1.5326
 9906SOL    HW235556   6.632   0.041  10.912  0.3301 -0.7252 -1.5163
 9907SOL     OW35557   4.355   0.201   8.107  0.0302 -0.4776  0.2976
 9907SOL    HW135558   4.321   0.135   8.047  0.6382  0.1940 -0.8060
 9907SOL    HW235559   4.317   0.178   8.192  0.2287 -2.2276 -0.0629
 9908SOL     OW35560   0.537   6.374   6.081 -0.0012 -0.3986  0.2154
 9908SOL    HW135561   0.516   6.449   6.026 -1.0894 -2.1800 -2.0033
 9908SOL    HW235562   0.631   6.359   6.069  0.0705  0.1599  0.0965
 9909SOL     OW35563   1.811  10.321   8.816 -0.1427  0.3862  0.0142
 9909SOL    HW135564   1.834  10.228   8.811 -0.2098  0.3209  0.8353
 9909SOL    HW235565   1.750  10.335   8.743 -1.8448 -0.7213  1.1595
 9910SOL     OW35566   3.636  10.230   0.520 -0.2404  0.1256  0.0248
 9910SOL    HW135567   3.555  10.280   0.516 -0.4697 -0.1633  0.9936
 9910SOL    HW235568   3.678  10.247   0.435 -0.8374  1.0668 -0.0978
 9911SOL     OW35569  11.457   8.795   0.078 -0.1938 -0.1416  0.4088
 9911SOL    HW135570  11.385   8.820   0.135 -0.1372 -0.0350  0.4354
 9911SOL    HW235571  11.523   8.758   0.137  0.2977  0.9134  0.5591
 9912SOL     OW35572  10.938  11.533   6.593 -0.0282 -0.6875 -0.2541
 9912SOL    HW135573  10.879  11.475   6.642  0.3357 -0.8977 -0.0553
 9912SOL    HW235574  10.891  11.553   6.512 -0.6802 -0.2697  0.2191
 9913SOL     OW35575   8.164   5.161   6.438  0.0034  0.8918 -0.0135
 9913SOL    HW135576   8.233   5.226   6.452  0.0642  0.9598 -0.6384
 9913SOL    HW235577   8.098   5.182   6.505 -0.5659  2.3924 -1.0054
 9914SOL     OW35578  11.272  11.236   4.566  0.5392 -0.2300  1.0695
 9914SOL    HW135579  11.266  11.160   4.624  0.9422 -2.2530 -1.3930
 9914SOL    HW235580  11.347  11.218   4.509  0.0890  1.5816 -0.2084
 9915SOL     OW35581   6.614   2.610   2.975  0.2895 -0.6385  0.1113
 9915SOL    HW135582   6.621   2.556   2.896  1.1941 -3.9985  2.2870
 9915SOL    HW235583   6.525   2.594   3.007  0.4434 -0.5605  0.5885
 9916SOL     OW35584   5.407   4.315   1.348 -0.4277  0.1756  0.0650
 9916SOL    HW135585   5.328   4.282   1.306 -1.3335  2.1610  0.0879
 9916SOL    HW235586   5.474   4.315   1.279 -0.9455  0.1670 -0.4385
 9917SOL     OW35587   5.722   9.581   1.240 -0.0564  0.3528 -0.1465
 9917SOL    HW135588   5.710   9.676   1.239 -1.7139  0.2064  0.9374
 9917SOL    HW235589   5.790   9.565   1.175  0.2681  2.2738 -0.3611
 9918SOL     OW35590   7.250   0.670   8.361  0.2100  0.1058 -0.4549
 9918SOL    HW135591   7.225   0.761   8.346 -2.0227 -0.5433 -0.9406
 9918SOL    HW235592   7.176   0.619   8.330  1.4945 -1.9147 -0.3678
 9919SOL     OW35593   1.446   7.510   0.816 -0.3930 -0.2893  0.5874
 9919SOL    HW135594   1.509   7.481   0.750  1.1969 -2.3336  2.8270
 9919SOL    HW235595   1.481   7.593   0.848  0.8354 -1.0586  1.3057
 9920SOL     OW35596  12.319   6.174   4.693  0.2973  0.8226 -0.0664
 9920SOL    HW135597  12.392   6.235   4.705  0.6962  0.5566 -1.1136
 9920SOL    HW235598  12.305   6.137   4.781  1.6837  0.5776  0.0716
 9921SOL     OW35599   0.119   7.198   8.546 -0.4450  0.5092  0.2104
 9921SOL    HW135600   0.046   7.144   8.516 -0.4690  1.0298 -0.7012
 9921SOL    HW235601   0.192   7.172   8.490 -1.0440  3.0804 -1.9465
 9922SOL     OW35602   1.316   4.661  10.234 -0.2422 -0.2993  0.6025
 9922SOL    HW135603   1.242   4.711  10.270 -0.8428 -0.4213 -0.4027
 9922SOL    HW235604   1.379   4.656  10.305  0.8464  3.8104  0.1675
 9923SOL     OW35605   3.084   6.431   9.818 -0.0410 -0.3938  0.0358
 9923SOL    HW135606   3.001   6.410   9.859 -1.3325  1.0288 -1.6909
 9923SOL    HW235607   3.122   6.346   9.794 -1.3636 -1.0231  0.1294
 9924SOL     OW35608   0.020   8.434   5.228 -0.2235 -0.3646  0.4533
 9924SOL    HW135609  -0.057   8.401   5.181 -0.4544  0.5467  0.1805
 9924SOL    HW235610   0.068   8.485   5.162  0.0081  0.0415  0.9308
 9925SOL     OW35611   8.590  12.038  10.773  0.1734  0.0629  0.2796
 9925SOL    HW135612   8.510  12.036  10.722  0.2741  1.5003  0.0144
 9925SOL    HW235613   8.577  11.974  10.843 -0.7264 -0.5465 -0.4439
 9926SOL     OW35614   6.066  10.867   3.512  0.0114  0.0637  0.1994
 9926SOL    HW135615   6.121  10.904   3.443 -0.8524  0.0842 -0.5056
 9926SOL    HW235616   5.984  10.844   3.467 -1.6678  2.5952  1.6708
 9927SOL     OW35617   5.876   0.524   2.920  0.5948  0.8810 -0.5552
 9927SOL    HW135618   5.890   0.615   2.895  1.4939  0.4635 -1.6479
 9927SOL    HW235619   5.947   0.504   2.981  0.3501  0.9314 -0.2514
 9928SOL     OW35620  10.637   3.480   6.925 -0.3171 -0.1152  0.2590
 9928SOL    HW135621  10.607   3.476   7.015  2.8484  1.5927  1.5734
 9928SOL    HW235622  10.587   3.552   6.886  0.7413  1.5623  1.8392
 9929SOL     OW35623   6.894   1.032   2.064  0.2351  0.1573  0.1106
 9929SOL    HW135624   6.811   1.047   2.019  0.2930 -0.4597 -0.2202
 9929SOL    HW235625   6.952   1.099   2.030 -0.5160  1.5418  1.4433
 9930SOL     OW35626   2.713   9.476   2.826  0.2660  0.1314 -0.1577
 9930SOL    HW135627   2.723   9.445   2.916 -2.6857  0.0303  0.2285
 9930SOL    HW235628   2.745   9.404   2.772 -0.3087 -0.8883  0.8144
 9931SOL     OW35629   8.602   9.500   2.503  0.1739  0.2907 -0.3573
 9931SOL    HW135630   8.637   9.563   2.441  1.1419 -1.3039 -1.5131
 9931SOL    HW235631   8.555   9.436   2.449  0.3952 -0.7276  0.6012
 9932SOL     OW35632   4.784   8.298   6.696  0.1594 -0.8040 -0.1575
 9932SOL    HW135633   4.878   8.299   6.675  1.1671  0.0665  3.5391
 9932SOL    HW235634   4.782   8.298   6.792 -3.6743 -2.4156 -0.0876
 9933SOL     OW35635   7.058   2.932   0.880  0.2161 -0.0828  0.1082
 9933SOL    HW135636   7.026   2.965   0.964  0.9256 -1.2013  0.8445
 9933SOL    HW235637   6.987   2.948   0.819 -0.4414  0.4540  0.9946
 9934SOL     OW35638   0.490   9.220   3.267  0.0714  0.3112 -0.3361
 9934SOL    HW135639   0.504   9.315   3.269 -0.9676  0.4702  1.8038
 9934SOL    HW235640   0.578   9.183   3.268  0.4959  1.2313 -1.3564
 9935SOL     OW35641   0.857  10.652   8.117 -0.3503  0.0838  0.1257
 9935SOL    HW135642   0.929  10.651   8.181 -1.3484 -0.0630  1.2930
 9935SOL    HW235643   0.827  10.742   8.116  0.3775  0.3253 -0.9968
 9936SOL     OW35644   2.016   1.203  10.049  0.4607  0.2933 -0.3111
 9936SOL    HW135645   2.002   1.216   9.955  1.0040 -1.0306 -0.6034
 9936SOL    HW235646   2.100   1.244  10.067  1.2390 -1.0083 -0.8151
 9937SOL     OW35647   6.265  12.251   5.470 -0.2290 -0.4477  0.3021
 9937SOL    HW135648   6.250  12.303   5.549 -1.0946  0.4598 -0.4300
 9937SOL    HW235649   6.329  12.302   5.420 -2.0112  0.6283 -0.9987
 9938SOL     OW35650  10.371  11.108   6.564 -0.2736 -0.4105  0.1767
 9938SOL    HW135651  10.318  11.089   6.641  1.8865 -0.0058  1.8674
 9938SOL    HW235652  10.411  11.024   6.541 -1.1722 -0.6004 -0.7511
 9939SOL     OW35653   9.061   4.590   0.468 -0.4858  0.5877 -0.1903
 9939SOL    HW135654   9.118   4.608   0.393 -0.7000 -2.2696 -1.1984
 9939SOL    HW235655   8.987   4.542   0.431 -0.4871 -1.1413  1.8170
 9940SOL     OW35656   4.904   9.707   4.746  0.1024 -0.2670 -0.1239
 9940SOL    HW135657   4.971   9.643   4.771 -1.5038 -1.5189  1.1732
 9940SOL    HW235658   4.832   9.654   4.710 -0.7820  0.9048 -0.1306
 9941SOL     OW35659   6.035   0.210   1.280 -0.1795 -0.6573  0.0484
 9941SOL    HW135660   5.990   0.216   1.364 -0.7812 -0.0866 -0.3010
 9941SOL    HW235661   6.092   0.134   1.288  0.2863 -0.2100  1.2140
 9942SOL     OW35662  10.468   1.277  10.347  0.2486  0.3227  0.0451
 9942SOL    HW135663  10.432   1.287  10.435  0.9781  0.0521  0.3881
 9942SOL    HW235664  10.528   1.202  10.355  1.0564  0.9015 -0.4378
 9943SOL     OW35665   7.833   8.504   7.434  0.1995 -0.0373 -0.3113
 9943SOL    HW135666   7.926   8.502   7.458  0.5524 -1.2878 -1.6243
 9943SOL    HW235667   7.789   8.463   7.508  0.9440 -1.2355 -0.4958
 9944SOL     OW35668   2.430   1.551   6.869 -0.0553  0.5879 -0.4787
 9944SOL    HW135669   2.401   1.642   6.869 -1.7675  0.0780 -0.8056
 9944SOL    HW235670   2.351   1.500   6.852  0.5213 -1.0707  1.3587
 9945SOL     OW35671   4.817   8.238  11.172  0.1719 -0.4935 -0.1621
 9945SOL    HW135672   4.783   8.328  11.173  0.2327 -0.4732  0.8267
 9945SOL    HW235673   4.870   8.232  11.251 -0.9537 -1.8217  0.5205
 9946SOL     OW35674   5.926  10.235   4.563  0.0916 -0.4031  0.1116
 9946SOL    HW135675   5.870  10.219   4.639 -1.0632  1.2468 -0.3302
 9946SOL    HW235676   5.880  10.195   4.490 -1.1500  1.8301 -0.4331
 9947SOL     OW35677   6.439   6.896  10.278  0.0460  0.0144 -0.5924
 9947SOL    HW135678   6.523   6.913  10.235 -0.5530  0.7560 -1.4942
 9947SOL    HW235679   6.398   6.982  10.287  0.3655 -0.0455  1.9737
 9948SOL     OW35680   0.312   0.818   7.296  0.4126 -0.2129  0.2995
 9948SOL    HW135681   0.338   0.895   7.245  0.5727  0.3161  1.1711
 9948SOL    HW235682   0.216   0.820   7.294  0.3989  0.5169  1.0504
 9949SOL     OW35683   9.517   2.179   4.431 -0.6326 -0.2677 -0.1030
 9949SOL    HW135684   9.594   2.146   4.385 -0.7571 -2.2324  1.0062
 9949SOL    HW235685   9.448   2.180   4.365 -0.0953 -0.1927 -0.6697
 9950SOL     OW35686   2.684   3.828   6.490 -0.5998  0.0019  0.2238
 9950SOL    HW135687   2.710   3.906   6.440  0.3893 -0.3564  0.1670
 9950SOL    HW235688   2.647   3.863   6.571 -0.9196  0.5478 -0.1470
 9951SOL     OW35689   1.950   8.306   6.865 -0.0349 -0.0799 -0.1797
 9951SOL    HW135690   2.014   8.306   6.937  0.6756 -1.7609 -0.7511
 9951SOL    HW235691   1.966   8.388   6.819 -0.9550  1.3584  1.9141
 9952SOL     OW35692   2.089  12.022  12.103  0.2590 -0.2388 -0.0197
 9952SOL    HW135693   2.180  12.036  12.077 -0.2948  1.4175 -1.1676
 9952SOL    HW235694   2.052  11.967  12.034  0.3705 -0.9573  0.4742
 9953SOL     OW35695   8.014   3.564   4.708  0.5802  0.1910 -0.6034
 9953SOL    HW135696   8.029   3.586   4.800 -0.5235 -0.6788 -0.1839
 9953SOL    HW235697   8.025   3.646   4.661 -0.5844  1.0257  0.5321
 9954SOL     OW35698   9.854   3.093   9.033  0.2812 -0.4163 -0.0785
 9954SOL    HW135699   9.874   3.014   8.983 -1.6787 -2.1608  1.6767
 9954SOL    HW235700   9.906   3.084   9.113 -1.3735 -1.0013  0.9864
 9955SOL     OW35701   5.097   8.370  11.587  1.0819  0.3358 -0.3667
 9955SOL    HW135702   5.168   8.424  11.552  0.3460 -0.3478 -3.1460
 9955SOL    HW235703   5.125   8.280  11.573  0.4249  0.0405  0.1404
 9956SOL     OW35704   2.572   3.611  11.944 -0.0586  0.7322  0.0401
 9956SOL    HW135705   2.530   3.548  12.003 -0.0866  1.0980  0.4111
 9956SOL    HW235706   2.654   3.569  11.919  0.7442  1.2765  1.6623
 9957SOL     OW35707   5.751  11.210   8.775  0.1945  0.2280 -0.4215
 9957SOL    HW135708   5.671  11.176   8.816  0.2023  0.8885  0.1814
 9957SOL    HW235709   5.763  11.296   8.816  0.5933  0.6165 -1.3367
 9958SOL     OW35710   0.059   8.379   4.880 -0.2744  0.3785 -0.2266
 9958SOL    HW135711   0.015   8.406   4.960  1.3830 -1.0650  1.2503
 9958SOL    HW235712  -0.006   8.328   4.832 -0.1986 -2.1427  2.1383
 9959SOL     OW35713   0.358   6.626   8.438  0.1565 -0.4601  0.0428
 9959SOL    HW135714   0.450   6.611   8.419  1.0920  1.9611  2.0620
 9959SOL    HW235715   0.314   6.621   8.353  2.4781  0.3156 -1.2714
 9960SOL     OW35716  11.833  12.017   6.176  0.4439  0.0012  0.4370
 9960SOL    HW135717  11.902  11.952   6.188  0.6485 -0.0046 -0.6755
 9960SOL    HW235718  11.809  12.010   6.084 -1.2000 -0.1429  0.8448
 9961SOL     OW35719   2.914   7.574   5.173  0.4334  0.5280  0.0519
 9961SOL    HW135720   2.832   7.619   5.151 -0.1670 -0.4000  0.3090
 9961SOL    HW235721   2.957   7.559   5.089 -0.2925 -0.1206 -0.2199
 9962SOL     OW35722   7.792   7.204   4.861 -0.4414  0.8376  0.2942
 9962SOL    HW135723   7.833   7.119   4.877 -1.9002  0.0400 -0.0010
 9962SOL    HW235724   7.762   7.199   4.770  3.2052  3.3474 -1.2782
 9963SOL     OW35725  10.959   5.876   0.754 -0.3645 -0.2431 -0.2075
 9963SOL    HW135726  10.970   5.952   0.811  0.3553  0.0289 -0.6982
 9963SOL    HW235727  10.866   5.875   0.733 -0.6346 -0.3348  0.9523
 9964SOL     OW35728   3.137   6.556   2.856 -0.1395 -0.5175 -0.2881
 9964SOL    HW135729   3.223   6.567   2.896 -0.0827 -1.2587 -0.2003
 9964SOL    HW235730   3.085   6.628   2.891  0.4268 -0.0999 -0.2925
 9965SOL     OW35731   5.463  12.111   6.798 -0.1305  0.0140 -0.3558
 9965SOL    HW135732   5.379  12.072   6.772 -0.3689 -0.4183  0.9978
 9965SOL    HW235733   5.508  12.128   6.715 -1.8119  0.8565 -1.1453
 9966SOL     OW35734  11.369   0.869   3.404  0.3188 -0.5746  0.7765
 9966SOL    HW135735  11.379   0.775   3.423 -0.5592 -1.1993 -1.5419
 9966SOL    HW235736  11.450   0.893   3.358 -0.7524 -1.0827 -1.5439
 9967SOL     OW35737   9.292   6.995   8.485  0.0721  0.6493  0.4196
 9967SOL    HW135738   9.204   6.957   8.497  1.0015 -2.8925 -2.2876
 9967SOL    HW235739   9.349   6.938   8.537  0.9514  2.4682  1.5411
 9968SOL     OW35740  12.086   9.461   3.564 -0.3208  0.2429 -0.2476
 9968SOL    HW135741  12.160   9.513   3.533 -0.9380  1.3058 -0.0014
 9968SOL    HW235742  12.092   9.467   3.660 -0.2327 -0.3858 -0.2129
 9969SOL     OW35743   0.850   9.838  10.755  0.1544  0.3097 -0.0056
 9969SOL    HW135744   0.864   9.833  10.850 -0.1982 -1.0551 -0.0098
 9969SOL    HW235745   0.838   9.931  10.738  0.1133  0.5672  1.3089
 9970SOL     OW35746  10.008  11.984  11.042 -0.4842 -0.0656 -0.7244
 9970SOL    HW135747  10.078  11.948  11.096 -0.7628 -1.2972 -1.1515
 9970SOL    HW235748   9.944  12.020  11.104  0.6794  1.4334 -0.3362
 9971SOL     OW35749   4.567   9.065  11.897 -0.7044  0.0986  0.4830
 9971SOL    HW135750   4.481   9.044  11.934 -0.6419  1.4568  1.5162
 9971SOL    HW235751   4.630   9.036  11.964 -0.3686 -0.6327 -0.1389
 9972SOL     OW35752   2.322   1.275  12.309 -0.1051  0.8878  0.3760
 9972SOL    HW135753   2.360   1.281  12.221 -0.4052 -0.1058  0.1595
 9972SOL    HW235754   2.232   1.307  12.299 -1.1462 -1.9564 -0.3927
 9973SOL     OW35755   7.521   7.541   6.882  0.4173 -0.4886  0.7891
 9973SOL    HW135756   7.531   7.460   6.932 -1.3707 -0.1085  1.8356
 9973SOL    HW235757   7.572   7.526   6.802  0.8007 -2.3159  1.3351
 9974SOL     OW35758   7.096   2.361   8.417  0.2282 -0.0639 -0.3382
 9974SOL    HW135759   7.047   2.311   8.483  0.3613 -0.7154 -0.7246
 9974SOL    HW235760   7.030   2.419   8.378 -0.5096 -1.6513 -1.5609
 9975SOL     OW35761   1.478   3.059   6.044  0.4798 -0.4095 -0.1262
 9975SOL    HW135762   1.479   3.144   5.999  5.4644  0.7379  1.6193
 9975SOL    HW235763   1.456   3.080   6.135  1.4039 -1.0050  0.2468
 9976SOL     OW35764   9.509   8.768  11.762 -0.3724  0.3912 -0.1224
 9976SOL    HW135765   9.580   8.751  11.700  0.1701  0.4567  0.4741
 9976SOL    HW235766   9.544   8.836  11.820 -0.7972  0.1863  0.3801
 9977SOL     OW35767   6.621   5.526   1.934  0.0696  0.3101  0.5158
 9977SOL    HW135768   6.575   5.587   1.992 -1.0863  0.0052 -0.0295
 9977SOL    HW235769   6.711   5.524   1.966 -0.4710  0.3503  2.1360
 9978SOL     OW35770  10.037   2.468   9.479  0.3262  0.2865 -0.2754
 9978SOL    HW135771   9.962   2.409   9.474  0.0710  0.6214 -0.3945
 9978SOL    HW235772  10.113   2.409   9.479  0.1588 -0.0041 -2.1515
 9979SOL     OW35773   0.094  10.497   3.614  0.2758  0.6074 -0.1656
 9979SOL    HW135774   0.086  10.427   3.549  1.9266  0.8939 -0.7072
 9979SOL    HW235775   0.153  10.560   3.574 -0.6736  2.0218  0.5950
 9980SOL     OW35776   6.821   6.015   1.208  0.1630  0.5027  0.3900
 9980SOL    HW135777   6.823   6.111   1.207 -1.4753  0.5870 -1.9286
 9980SOL    HW235778   6.888   5.990   1.145  2.3304 -0.0631  2.7394
 9981SOL     OW35779   8.155   6.764   5.496 -0.4620  0.3533 -0.2172
 9981SOL    HW135780   8.220   6.729   5.558  0.5582  0.8430 -0.9667
 9981SOL    HW235781   8.114   6.836   5.543 -0.5746 -0.0557  0.3227
 9982SOL     OW35782   1.363   9.489   3.936 -0.3322  0.0815  0.3590
 9982SOL    HW135783   1.362   9.563   3.998 -0.0210  0.4746 -0.0967
 9982SOL    HW235784   1.414   9.422   3.980 -0.7800  0.0660  0.8603
 9983SOL     OW35785   3.689   6.548   4.698 -0.5794 -0.1641  0.0451
 9983SOL    HW135786   3.724   6.493   4.767 -0.1318  0.9786  0.7578
 9983SOL    HW235787   3.658   6.487   4.631 -0.0327 -1.2562  0.7742
 9984SOL     OW35788   6.071  10.727   0.787  0.3823 -0.3618 -0.4029
 9984SOL    HW135789   6.133  10.738   0.858  0.9901  2.2748 -1.2154
 9984SOL    HW235790   6.121  10.746   0.707 -0.4605 -2.4574 -1.5259
 9985SOL     OW35791   4.288   6.760   5.190 -0.4095 -0.6077  0.0226
 9985SOL    HW135792   4.282   6.806   5.106  1.6246 -1.4601 -0.6605
 9985SOL    HW235793   4.238   6.814   5.251 -0.1533  1.1704 -1.2748
 9986SOL     OW35794   5.343   0.160  11.246 -0.0097  0.4732 -0.8992
 9986SOL    HW135795   5.297   0.229  11.295 -0.1820  0.3849 -0.9343
 9986SOL    HW235796   5.430   0.155  11.286 -0.8965 -1.2571  0.9939
 9987SOL     OW35797   2.412   3.065  11.986 -0.1207  0.1494  0.6445
 9987SOL    HW135798   2.331   3.017  11.969  0.1072 -0.4702  1.2847
 9987SOL    HW235799   2.477   3.022  11.930  0.3148 -0.9812  1.9752
 9988SOL     OW35800   5.691   6.109   5.831 -0.1254  0.4814 -0.0400
 9988SOL    HW135801   5.700   6.146   5.918 -0.3224  2.2148 -0.7148
 9988SOL    HW235802   5.611   6.148   5.796  0.4580  0.5736 -1.3318
 9989SOL     OW35803   5.624  11.200  11.623 -0.2084  0.1271 -0.3175
 9989SOL    HW135804   5.566  11.250  11.566  1.3506 -0.1421 -2.2439
 9989SOL    HW235805   5.584  11.113  11.629  1.0329 -0.8362 -3.6055
 9990SOL     OW35806   7.729   6.707   4.960 -0.3432  0.1441  0.1685
 9990SOL    HW135807   7.741   6.613   4.947 -0.3835  0.1486  0.0997
 9990SOL    HW235808   7.639   6.724   4.933 -0.3230  0.2095  0.1419
 9991SOL     OW35809  11.600  10.042   3.926  0.0998  0.7663 -0.1164
 9991SOL    HW135810  11.609  10.080   4.013 -1.2513  2.9295 -0.8385
 9991SOL    HW235811  11.604   9.948   3.941  3.1610  1.0628  1.8429
 9992SOL     OW35812  12.024   9.196   8.986  0.2051 -0.3107 -0.1263
 9992SOL    HW135813  11.946   9.251   8.980  0.4133 -0.0981 -1.0131
 9992SOL    HW235814  12.097   9.255   8.965  0.6131 -0.5067  0.6872
 9993SOL     OW35815   8.337   7.772   3.183 -0.0858  0.1840  0.3513
 9993SOL    HW135816   8.415   7.789   3.131 -0.0132  1.1942  0.7743
 9993SOL    HW235817   8.363   7.796   3.272 -1.1299  1.3455  0.3626
 9994SOL     OW35818   0.696   4.498  11.046 -0.2061 -0.0556 -0.1677
 9994SOL    HW135819   0.737   4.412  11.035  1.2322  0.5642  0.2087
 9994SOL    HW235820   0.739   4.553  10.980  0.3949  0.8832  0.9857
 9995SOL     OW35821   8.098   2.151   8.948  0.5499 -0.5035  0.1825
 9995SOL    HW135822   8.075   2.143   8.855  0.3738 -0.6208  0.2367
 9995SOL    HW235823   8.042   2.221   8.980  1.3776  0.2865 -0.0560
 9996SOL     OW35824   2.233   3.299   8.976  1.0046  0.0001 -0.1051
 9996SOL    HW135825   2.297   3.257   8.919 -1.0701 -0.6313 -2.0954
 9996SOL    HW235826   2.161   3.325   8.918 -0.6671  0.5068  2.0343
 9997SOL     OW35827   7.897   5.035   5.941  0.1932 -0.2753  0.0628
 9997SOL    HW135828   7.836   5.108   5.951 -0.0118 -0.4921  0.4234
 9997SOL    HW235829   7.924   5.014   6.030  2.5344  1.2627 -0.1790
 9998SOL     OW35830   1.353   4.211  11.085  0.0831  0.3020  0.3549
 9998SOL    HW135831   1.421   4.203  11.018 -1.3934  0.3259 -1.2448
 9998SOL    HW235832   1.333   4.121  11.110 -1.2786  0.0483 -1.3809
 9999SOL     OW35833   9.576  11.958   4.574  0.4492  0.0339 -0.5908
 9999SOL    HW135834   9.655  11.996   4.613 -0.4038  1.4904 -0.2278
 9999SOL    HW235835   9.605  11.928   4.487  1.9185 -1.5526  0.3874
10000SOL     OW35836   4.236  10.610   6.603 -0.3687 -0.1769 -0.0633
10000SOL    HW135837   4.307  10.546   6.598  0.1603  0.2178  1.6009
10000SOL    HW235838   4.193  10.606   6.518 -0.1878 -2.5394 -0.1076
10001SOL     OW35839   4.841   5.114   5.744 -0.0717 -0.1379 -0.8578
10001SOL    HW135840   4.864   5.199   5.782 -0.6774 -0.2792 -0.1496
10001SOL    HW235841   4.859   5.051   5.814 -0.4255 -0.4989 -1.0907
10002SOL     OW35842   6.489   2.982   6.147 -0.7364 -0.6261  0.1400
10002SOL    HW135843   6.519   2.908   6.200  1.3974 -0.0995 -0.2352
10002SOL    HW235844   6.556   3.049   6.159 -0.9867  0.0857 -1.9777
10003SOL     OW35845   0.359  11.893   6.525  0.7065 -0.6402  0.0227
10003SOL    HW135846   0.358  11.979   6.484 -0.2640 -1.0559 -0.8617
10003SOL    HW235847   0.379  11.832   6.454 -0.3309 -1.3087  0.2733
10004SOL     OW35848   9.079  10.220   9.234 -0.4346  0.2149  0.1783
10004SOL    HW135849   9.026  10.160   9.286  0.0716 -0.4359 -0.0417
10004SOL    HW235850   9.156  10.237   9.288  0.3648 -0.9060 -0.5573
10005SOL     OW35851   9.462   5.160   7.771  0.2898 -0.6958  0.1199
10005SOL    HW135852   9.542   5.120   7.736 -0.2167  0.3566 -2.4234
10005SOL    HW235853   9.397   5.090   7.770  0.1525 -0.5874 -1.6583
10006SOL     OW35854  12.092   6.984   7.817  0.0179  0.4314  0.3537
10006SOL    HW135855  12.130   7.004   7.903 -0.4791 -2.5562  1.3662
10006SOL    HW235856  12.008   7.031   7.817  0.3260  1.0234  1.1917
10007SOL     OW35857   6.697   8.217   9.358 -0.0860  0.6224 -0.1892
10007SOL    HW135858   6.773   8.264   9.391 -0.7328  2.9393 -1.7276
10007SOL    HW235859   6.727   8.127   9.347  2.0372  1.2081  0.4155
10008SOL     OW35860  10.781  11.609   7.054 -0.5193 -0.4131  0.2330
10008SOL    HW135861  10.819  11.529   7.018  1.5416  1.1437 -1.3582
10008SOL    HW235862  10.790  11.674   6.983 -3.1485  0.9691  1.0425
10009SOL     OW35863   2.167   8.945   4.046  0.2652 -0.7811  0.4100
10009SOL    HW135864   2.204   8.883   4.109 -1.2528 -1.1750  0.9583
10009SOL    HW235865   2.166   8.898   3.963 -2.2512 -2.1510  1.1014
10010SOL     OW35866   1.257   4.976   0.401 -0.5753 -0.1026  0.1878
10010SOL    HW135867   1.345   4.937   0.403 -0.3577  0.3014 -0.9797
10010SOL    HW235868   1.257   5.038   0.474  0.6720  1.0257 -0.7112
10011SOL     OW35869  10.912   2.164   8.093  0.2115 -0.6448 -0.1589
10011SOL    HW135870  10.914   2.068   8.097  2.2983 -0.6200  0.3644
10011SOL    HW235871  11.003   2.190   8.104 -0.0323  1.3524 -2.1987
10012SOL     OW35872   9.374   9.623   9.634  0.6143 -0.0098 -0.3006
10012SOL    HW135873   9.369   9.709   9.594  1.7117 -0.2029 -0.8852
10012SOL    HW235874   9.436   9.633   9.706  1.8961 -0.6273 -1.2804
10013SOL     OW35875   8.827  10.036  11.033  0.2275  0.2895 -0.2486
10013SOL    HW135876   8.850   9.981  10.959  0.1647  0.2492 -0.2389
10013SOL    HW235877   8.910  10.052  11.078  0.2656  0.3135 -0.3274
10014SOL     OW35878   4.970  10.571   8.008  0.0893 -0.3316 -0.2577
10014SOL    HW135879   4.915  10.647   7.987  0.0474 -0.0475  0.7966
10014SOL    HW235880   4.918  10.520   8.070 -0.4474 -1.9686 -1.9633
10015SOL     OW35881  11.146   6.245   2.766 -0.0528  0.2010 -0.1195
10015SOL    HW135882  11.064   6.218   2.724 -0.6929  1.6848  0.1255
10015SOL    HW235883  11.183   6.309   2.705  0.0478  0.8321  0.6002
10016SOL     OW35884   6.446   6.229   9.874 -0.1023 -0.2141 -0.2215
10016SOL    HW135885   6.426   6.322   9.873  1.2801  0.1069 -1.0264
10016SOL    HW235886   6.536   6.224   9.906 -0.3332 -1.3248  0.3189
10017SOL     OW35887   6.691  12.159   6.562  0.1183  0.0644  0.1752
10017SOL    HW135888   6.731  12.228   6.615  2.2313  0.4608 -1.7609
10017SOL    HW235889   6.693  12.194   6.473 -1.9279 -1.1718 -0.4192
10018SOL     OW35890  12.049   0.135  11.148 -0.1785 -0.2069 -0.1505
10018SOL    HW135891  11.990   0.207  11.172  0.1686 -0.2988  1.0302
10018SOL    HW235892  12.022   0.111  11.059 -0.7281  0.9477 -0.3182
10019SOL     OW35893   9.303   9.899   4.825  0.0288 -0.4928  0.1363
10019SOL    HW135894   9.396   9.916   4.839 -0.1174  0.4609 -0.0245
10019SOL    HW235895   9.301   9.816   4.777  1.0262  1.2329 -3.2700
10020SOL     OW35896  10.138   8.348   8.292 -0.6549 -0.0163  0.6520
10020SOL    HW135897  10.163   8.319   8.379 -1.5650 -1.5747  0.4369
10020SOL    HW235898  10.221   8.373   8.250 -0.0119 -0.7855  1.4332
10021SOL     OW35899  11.907  11.969   5.311  0.1821 -0.5559 -0.1364
10021SOL    HW135900  11.851  11.916   5.368 -0.4496 -0.1918 -0.4161
10021SOL    HW235901  11.966  12.015   5.372 -1.8771  1.4995  0.4567
10022SOL     OW35902   0.568   0.604  11.452  0.4301 -0.1257  0.1551
10022SOL    HW135903   0.560   0.668  11.522 -1.4736 -0.8512  0.6876
10022SOL    HW235904   0.640   0.547  11.479  0.2836  0.1199  1.1012
10023SOL     OW35905   4.736   0.022   7.629  0.1441 -0.1659 -0.2467
10023SOL    HW135906   4.785  -0.032   7.568 -0.2522 -0.0302 -0.6945
10023SOL    HW235907   4.742   0.110   7.593  1.9089  0.3643  1.1805
10024SOL     OW35908   0.655   0.561   5.735 -0.1173 -0.3655 -0.3218
10024SOL    HW135909   0.602   0.503   5.680 -1.1893 -0.8906  1.1904
10024SOL    HW235910   0.602   0.574   5.814  0.6674  1.6656 -0.0842
10025SOL     OW35911  10.366   8.153   4.098 -0.4511  0.2045 -0.1863
10025SOL    HW135912  10.311   8.084   4.136  1.5086 -0.8479  0.9098
10025SOL    HW235913  10.405   8.197   4.174  1.5221 -0.2090 -0.9194
10026SOL     OW35914  11.511   3.322  12.304 -0.3941  0.1205  0.2824
10026SOL    HW135915  11.493   3.388  12.237  2.5176  0.8931  0.1197
10026SOL    HW235916  11.505   3.370  12.387 -0.9815 -0.0884  0.3614
10027SOL     OW35917   5.248   1.003   7.168  0.1948  0.4455 -0.1831
10027SOL    HW135918   5.237   0.911   7.146  1.2647  0.2870 -0.1446
10027SOL    HW235919   5.343   1.014   7.177  0.1150  1.6382 -0.5821
10028SOL     OW35920   0.920   6.167   8.914 -0.2564 -0.2713 -0.8049
10028SOL    HW135921   0.921   6.132   9.003  0.6544  3.3440  0.7853
10028SOL    HW235922   1.005   6.143   8.878  0.5465  0.6037  0.4126
10029SOL     OW35923   3.533   2.295   9.525 -0.5187  0.0754  0.6864
10029SOL    HW135924   3.441   2.316   9.539 -0.6194 -0.1374  0.3513
10029SOL    HW235925   3.532   2.224   9.461 -0.1709 -0.5828  1.3832
10030SOL     OW35926   0.388   0.826  10.210  0.5327  0.0023  0.3923
10030SOL    HW135927   0.383   0.733  10.229 -0.4468  0.0205  0.2748
10030SOL    HW235928   0.389   0.832  10.114  0.1572  0.1199  0.3921
10031SOL     OW35929   5.233  11.930   1.415 -0.6179  0.1597  0.1621
10031SOL    HW135930   5.195  11.877   1.345 -0.6035  0.9025 -0.4160
10031SOL    HW235931   5.257  11.866   1.483  2.0749 -1.0145 -1.6884
10032SOL     OW35932  12.101   0.743   7.177 -0.2852 -0.0686  0.2379
10032SOL    HW135933  12.072   0.686   7.106 -0.7251 -0.6908  0.8922
10032SOL    HW235934  12.026   0.749   7.235 -0.0264  0.6632  0.5090
10033SOL     OW35935  12.192   2.519   0.051 -0.0057  0.6254  0.1012
10033SOL    HW135936  12.234   2.598   0.086 -2.0954  1.4782  0.8014
10033SOL    HW235937  12.247   2.447   0.084  2.5411  1.7342 -1.3892
10034SOL     OW35938   2.608  10.042   5.686  0.2429 -0.1803 -0.0085
10034SOL    HW135939   2.649   9.967   5.730  0.0077 -0.5089 -0.3389
10034SOL    HW235940   2.515  10.031   5.704  0.2821  0.5086  0.6552
10035SOL     OW35941   3.262   0.713   9.954 -0.5018  0.1203 -0.2324
10035SOL    HW135942   3.266   0.618   9.956 -1.7290  0.0684  1.2055
10035SOL    HW235943   3.332   0.739   9.893 -0.0542 -1.6699 -0.5266
10036SOL     OW35944   1.966   1.647   0.045 -0.2040 -0.6013 -0.0090
10036SOL    HW135945   1.905   1.656   0.119 -1.2854  0.4194 -0.9838
10036SOL    HW235946   1.982   1.737   0.017  2.0891 -0.7958  0.4291
10037SOL     OW35947   6.046   1.154   3.649  0.1287  0.2819  0.6610
10037SOL    HW135948   6.068   1.243   3.621 -0.3788  0.3351  0.4032
10037SOL    HW235949   6.000   1.166   3.733 -1.0517  0.3793  0.0264
10038SOL     OW35950   9.043   0.941   4.079  0.0830 -0.1002  0.3567
10038SOL    HW135951   8.989   0.921   4.002 -0.3472 -0.0410  0.6414
10038SOL    HW235952   9.096   1.016   4.053 -1.0497  0.7994  0.5735
10039SOL     OW35953   0.914   6.052   6.073 -0.3262 -0.2744 -0.2816
10039SOL    HW135954   0.920   6.103   5.992 -0.6655  0.6288  0.2420
10039SOL    HW235955   0.821   6.029   6.081 -0.4111  0.2021  0.1743
10040SOL     OW35956   2.305  11.539   0.657 -0.6949 -0.0070 -0.1517
10040SOL    HW135957   2.213  11.542   0.681 -0.3193  2.0126  1.2472
10040SOL    HW235958   2.326  11.446   0.654 -2.6852 -0.4949 -0.1825
10041SOL     OW35959   5.344  12.322   2.865 -0.3261  0.3075  0.2799
10041SOL    HW135960   5.347  12.328   2.770  1.0158 -1.0254  0.2102
10041SOL    HW235961   5.412  12.383   2.895  1.5494 -1.6036  0.1981
10042SOL     OW35962   4.530   0.894   7.678  0.2322 -0.1072  0.1898
10042SOL    HW135963   4.441   0.928   7.692  0.4829  1.0099 -0.7544
10042SOL    HW235964   4.583   0.972   7.664  1.0849 -0.8251 -0.7475
10043SOL     OW35965   9.170   6.373   3.086 -0.4176  0.2510 -0.0819
10043SOL    HW135966   9.199   6.330   3.005 -1.1239  0.2451 -0.3355
10043SOL    HW235967   9.251   6.402   3.127  0.0189 -0.6423 -0.2861
10044SOL     OW35968   7.465   1.430   6.949 -0.0474  0.6871  0.8798
10044SOL    HW135969   7.423   1.516   6.939  2.2380  1.9197  1.3840
10044SOL    HW235970   7.518   1.438   7.028 -1.9149 -2.1731  2.6320
10045SOL     OW35971   7.422   7.772   9.924 -0.3315 -0.0433 -0.0430
10045SOL    HW135972   7.414   7.688   9.878  1.5177 -0.5132  0.4250
10045SOL    HW235973   7.515   7.779   9.944 -0.6584  1.5548  1.0138
10046SOL     OW35974   7.119  10.660   5.811 -0.2812 -0.0284 -0.1556
10046SOL    HW135975   7.126  10.610   5.892 -0.7402  0.7551  0.3775
10046SOL    HW235976   7.201  10.643   5.765 -0.4227 -1.2740  0.0037
10047SOL     OW35977   1.947   8.491   0.054  0.2504  0.0927  0.0926
10047SOL    HW135978   1.915   8.576   0.085 -0.9965 -0.5355  0.6500
10047SOL    HW235979   2.020   8.511  -0.004 -0.2485  1.5565 -0.0606
10048SOL     OW35980   6.289   3.013   5.127 -0.7503 -0.4596  0.1673
10048SOL    HW135981   6.256   3.096   5.094  0.4135  0.1380  0.4549
10048SOL    HW235982   6.331   3.035   5.210 -1.5263 -1.5538  0.8743
10049SOL     OW35983   6.834   9.622   6.324  0.2985 -0.0697  0.1999
10049SOL    HW135984   6.759   9.676   6.349 -0.1502 -0.6695  0.1883
10049SOL    HW235985   6.902   9.684   6.299  0.3720  0.5352  1.7922
10050SOL     OW35986   8.456   9.408   5.100  0.0367 -0.3023 -0.1326
10050SOL    HW135987   8.549   9.408   5.075  0.0726  0.0535 -0.0140
10050SOL    HW235988   8.409   9.417   5.017  0.0922 -0.8833 -0.2303
10051SOL     OW35989  11.696   2.901   8.806 -0.4769  0.1350  0.0566
10051SOL    HW135990  11.645   2.917   8.886 -1.0871  0.2802 -0.3487
10051SOL    HW235991  11.671   2.973   8.747 -1.3761 -0.9035 -0.8959
10052SOL     OW35992   8.876   4.408  12.262 -0.0841 -0.0755  0.2059
10052SOL    HW135993   8.913   4.483  12.214  1.4831 -1.4180 -0.8204
10052SOL    HW235994   8.860   4.442  12.350 -1.9726  2.1710 -0.8675
10053SOL     OW35995   8.643   5.377   5.345 -0.2340 -0.0673  0.3484
10053SOL    HW135996   8.575   5.352   5.408  0.0288 -1.0518  0.2614
10053SOL    HW235997   8.614   5.340   5.262 -1.6426  2.9743 -0.6539
10054SOL     OW35998  11.838  11.210   5.080 -0.1347 -0.6884 -0.2163
10054SOL    HW135999  11.916  11.220   5.135 -0.6131  0.1415  0.3443
10054SOL    HW236000  11.860  11.254   4.998  0.2361 -1.0866 -0.3351
10055SOL     OW36001  10.968   5.341   3.311 -0.0607  0.2344  0.2649
10055SOL    HW136002  10.936   5.354   3.222 -0.9089  1.9487  0.7599
10055SOL    HW236003  10.978   5.430   3.346 -0.5629 -0.3905  2.1430
10056SOL     OW36004   2.661   3.267  10.993  0.7444  0.3543 -0.3846
10056SOL    HW136005   2.596   3.289  11.060  1.1613 -2.3821  1.0597
10056SOL    HW236006   2.677   3.350  10.947 -1.2531  1.8376  1.3854
10057SOL     OW36007   2.648   4.600  11.331  0.0906 -0.5382 -0.0880
10057SOL    HW136008   2.645   4.583  11.425  0.2182 -2.5538 -0.3953
10057SOL    HW236009   2.740   4.590  11.308  0.0662 -0.0016 -0.4274
10058SOL     OW36010   3.364   2.883   7.185  0.0685  0.0637  0.3690
10058SOL    HW136011   3.393   2.940   7.115 -0.4439 -0.1597 -0.0302
10058SOL    HW236012   3.341   2.942   7.257  0.1518  0.3158  0.1895
10059SOL     OW36013  10.424  10.286   0.731 -0.4353 -0.2508 -0.4164
10059SOL    HW136014  10.453  10.377   0.738  0.6537 -0.6180 -0.1116
10059SOL    HW236015  10.401  10.261   0.820  0.7708 -0.7598 -0.2356
10060SOL     OW36016   4.005  10.638   9.522 -0.1844 -0.0136  0.1438
10060SOL    HW136017   3.920  10.613   9.557  0.5113  0.5265  2.3636
10060SOL    HW236018   3.990  10.649   9.428 -2.0575 -1.9480  0.1452
10061SOL     OW36019   5.238  12.222   2.378  0.0526 -0.1362  0.1210
10061SOL    HW136020   5.233  12.195   2.286 -0.3164  0.1849  0.0424
10061SOL    HW236021   5.178  12.296   2.384  1.0692  0.6971  0.3245
10062SOL     OW36022   0.612   5.769   1.370  0.0050 -0.0967  0.7911
10062SOL    HW136023   0.540   5.705   1.371 -0.9610  0.9200 -0.2516
10062SOL    HW236024   0.602   5.817   1.452  0.4891 -0.9948  1.3911
10063SOL     OW36025  10.053   3.632   5.409  0.1817  0.3819  0.7529
10063SOL    HW136026  10.107   3.621   5.487 -1.1985 -1.2640  1.5399
10063SOL    HW236027   9.971   3.670   5.441  0.2475  1.3582 -0.1801
10064SOL     OW36028   0.081   4.629   6.802 -0.2094  0.5919 -0.1623
10064SOL    HW136029   0.112   4.718   6.788 -1.7904  1.0454 -1.0420
10064SOL    HW236030   0.122   4.577   6.733  0.0811  0.7867 -0.1362
10065SOL     OW36031   9.527   2.731   9.813 -0.0010  0.0020  0.2219
10065SOL    HW136032   9.595   2.704   9.874 -0.8270  2.2473  2.2796
10065SOL    HW236033   9.554   2.818   9.784 -0.4537 -0.3602 -1.4028
10066SOL     OW36034   4.172   8.493   2.321  0.1439 -0.6022  0.2792
10066SOL    HW136035   4.105   8.503   2.254 -0.7465 -2.4990  0.8400
10066SOL    HW236036   4.143   8.548   2.393  0.2756  0.1804 -0.2515
10067SOL     OW36037   6.090   4.882   3.132 -0.0815 -0.0450 -0.4763
10067SOL    HW136038   6.167   4.843   3.090 -0.4889 -0.0626 -1.2418
10067SOL    HW236039   6.125   4.934   3.203  0.4568 -2.3186  1.0390
10068SOL     OW36040   2.347   4.059   7.909  0.5926 -0.3933  0.3167
10068SOL    HW136041   2.292   3.990   7.873  0.9969 -1.0322  0.9087
10068SOL    HW236042   2.365   4.117   7.834 -1.8890  0.5356  0.3468
10069SOL     OW36043   0.310   2.810   3.672  0.3288  0.0747 -0.1962
10069SOL    HW136044   0.363   2.888   3.683 -0.2777  0.4678 -0.0151
10069SOL    HW236045   0.317   2.789   3.579  1.0587 -0.0738 -0.1159
10070SOL     OW36046  11.330  11.649   7.704  0.3012 -0.2873  0.1469
10070SOL    HW136047  11.263  11.648   7.637  0.6152 -0.1122 -0.1722
10070SOL    HW236048  11.381  11.569   7.690  0.6739 -0.0022 -0.1390
10071SOL     OW36049   0.496  10.461   9.624  0.1243  0.2024  0.0259
10071SOL    HW136050   0.418  10.515   9.616  1.1839  1.9590  0.7736
10071SOL    HW236051   0.515  10.460   9.718  1.6467  0.8536 -0.2340
10072SOL     OW36052   2.952   7.754   0.542  0.2371 -0.3285 -0.0258
10072SOL    HW136053   2.879   7.696   0.561 -1.8153  1.9703 -0.3873
10072SOL    HW236054   2.996   7.713   0.467 -1.2401 -1.3440 -0.3862
10073SOL     OW36055  12.269   4.965   0.243  0.4143 -0.2385 -0.0696
10073SOL    HW136056  12.276   4.884   0.192 -1.1365 -0.7588  0.5004
10073SOL    HW236057  12.183   4.960   0.284  1.0008  0.8936  1.3678
10074SOL     OW36058   9.627   3.863   6.823 -0.7258 -0.1193 -0.1671
10074SOL    HW136059   9.548   3.852   6.771 -1.0407 -0.7367  0.4193
10074SOL    HW236060   9.606   3.931   6.886 -1.0293 -0.7304  0.4094
10075SOL     OW36061   9.080  11.028   1.814  0.0265  0.1901 -0.1607
10075SOL    HW136062   9.021  11.072   1.752  0.5222 -2.1830 -2.4927
10075SOL    HW236063   9.022  10.976   1.869 -0.3443  1.5571  0.8012
10076SOL     OW36064   1.585   7.244  12.226  0.1822  0.4727 -0.0070
10076SOL    HW136065   1.515   7.301  12.257 -0.7584 -0.4142 -0.4324
10076SOL    HW236066   1.615   7.198  12.304  1.7091  2.2801  0.5501
10077SOL     OW36067  11.203   1.618   5.193 -0.2541  0.4166  0.2526
10077SOL    HW136068  11.172   1.569   5.270 -0.9082  0.8545  0.2781
10077SOL    HW236069  11.154   1.700   5.196  1.6700  1.6125  0.8728
10078SOL     OW36070   8.350   0.416   1.731 -0.1123  0.1137 -0.1328
10078SOL    HW136071   8.370   0.490   1.789  1.4966 -0.1805 -0.2541
10078SOL    HW236072   8.432   0.368   1.726 -0.1460  0.2098 -2.8054
10079SOL     OW36073   0.598   7.031  10.522  0.1278 -0.0871 -0.1771
10079SOL    HW136074   0.691   7.014  10.507 -0.0972 -0.3079 -1.4036
10079SOL    HW236075   0.591   7.039  10.617  0.9321 -2.7521  0.1742
10080SOL     OW36076  11.254   4.174   5.291 -0.4452  0.2303 -0.1423
10080SOL    HW136077  11.315   4.191   5.363  0.4860  0.1095 -0.8693
10080SOL    HW236078  11.178   4.134   5.332 -1.3127  3.0161  1.2068
10081SOL     OW36079   2.199   9.863   5.504  0.3070 -0.2222  0.2013
10081SOL    HW136080   2.232   9.788   5.455  0.6073 -0.0351  0.1081
10081SOL    HW236081   2.189   9.832   5.594 -1.6440 -0.9821 -0.2485
10082SOL     OW36082  11.599   6.181   0.168  0.2287  0.1334 -0.7941
10082SOL    HW136083  11.620   6.271   0.145 -2.7536  0.9407 -0.7626
10082SOL    HW236084  11.504   6.174   0.153  0.1502 -2.6226  0.4282
10083SOL     OW36085   6.431   6.742   3.678  0.4415  0.5868 -0.2435
10083SOL    HW136086   6.375   6.817   3.697 -0.4686  0.0033 -0.5901
10083SOL    HW236087   6.453   6.751   3.585  0.7144  0.6606 -0.1754
10084SOL     OW36088   6.518   0.137   5.592  0.4416  0.1953  0.1331
10084SOL    HW136089   6.587   0.171   5.650 -0.4812  2.1875  0.1474
10084SOL    HW236090   6.442   0.193   5.609 -0.2173  0.1235 -2.1795
10085SOL     OW36091   1.647   8.946   1.581  0.0388 -0.3683  0.3565
10085SOL    HW136092   1.693   9.002   1.519  1.6287 -0.8847  1.0054
10085SOL    HW236093   1.657   8.991   1.665 -0.4889 -0.5917  0.5424
10086SOL     OW36094   6.560   7.015  10.846 -1.1235  0.4299 -0.1139
10086SOL    HW136095   6.597   6.996  10.760  2.1717  0.6390  1.1221
10086SOL    HW236096   6.556   7.111  10.850 -3.9221  0.4369 -0.9531
10087SOL     OW36097   4.873   1.340   5.269  0.3490  0.0580 -0.1969
10087SOL    HW136098   4.937   1.407   5.294  0.4661  0.4653 -1.4839
10087SOL    HW236099   4.927   1.269   5.233  0.0734  0.8766 -2.3555
10088SOL     OW36100  12.255   0.058   3.465  0.6489  0.0074 -0.0578
10088SOL    HW136101  12.206   0.123   3.414  0.4303 -0.0464  0.0830
10088SOL    HW236102  12.226   0.071   3.555 -1.2860 -1.9280 -0.3338
10089SOL     OW36103   7.066  10.731   4.296  0.3252  0.0416  0.0864
10089SOL    HW136104   7.007  10.806   4.286  0.2936  0.0488  0.3183
10089SOL    HW236105   7.090  10.707   4.207 -0.5831 -0.4065 -0.0417
10090SOL     OW36106  10.337   3.558  11.665  0.7752 -0.2189  0.4644
10090SOL    HW136107  10.432   3.549  11.659  1.0132  0.3863  2.5245
10090SOL    HW236108  10.322   3.653  11.663  0.2886 -0.2793  0.9081
10091SOL     OW36109   6.428   8.611   9.118  0.1585  0.1864  0.2569
10091SOL    HW136110   6.394   8.700   9.133 -1.6498 -0.3188 -0.6058
10091SOL    HW236111   6.408   8.593   9.026  1.6981 -0.6593  0.0435
10092SOL     OW36112   1.269   5.664   3.487  0.3960  0.4430 -0.0186
10092SOL    HW136113   1.308   5.712   3.561 -0.5300  1.1570  0.0321
10092SOL    HW236114   1.247   5.732   3.424  0.1114 -0.0448 -0.4483
10093SOL     OW36115   6.070   0.045   0.376  0.0945 -0.3139 -0.2336
10093SOL    HW136116   6.060  -0.039   0.421  1.4450 -0.7221 -0.6387
10093SOL    HW236117   6.114   0.022   0.294 -1.8054  0.4772 -1.5656
10094SOL     OW36118   5.667  11.353   9.300 -0.1383 -0.4984 -0.5608
10094SOL    HW136119   5.628  11.282   9.350 -0.2194  0.4178  0.7426
10094SOL    HW236120   5.610  11.428   9.316  0.4735  0.1072 -1.1228
10095SOL     OW36121  11.264   6.467   2.637  0.1542  0.0519 -0.0481
10095SOL    HW136122  11.230   6.511   2.560  1.8525 -0.1598 -0.9798
10095SOL    HW236123  11.351   6.505   2.650 -0.5069  0.9402  2.5026
10096SOL     OW36124  10.129  12.068   5.710 -0.2549  0.1109  0.1144
10096SOL    HW136125  10.172  12.148   5.678 -0.3498 -0.5677 -1.8229
10096SOL    HW236126  10.050  12.099   5.754 -0.6728  1.0713 -1.2592
10097SOL     OW36127  10.754   7.865   4.529 -0.4004  0.2676  0.2015
10097SOL    HW136128  10.661   7.868   4.507 -0.2024 -0.0617 -0.7462
10097SOL    HW236129  10.799   7.894   4.450  0.3392 -0.5264  0.3084
10098SOL     OW36130   0.376   9.548   9.730 -0.1492 -0.6568  0.0163
10098SOL    HW136131   0.413   9.513   9.649  0.6395 -0.5618  0.3296
10098SOL    HW236132   0.414   9.494   9.799 -0.1353 -0.1696  0.3887
10099SOL     OW36133  10.021   0.651   6.049  0.5253 -0.1323  0.3565
10099SOL    HW136134   9.974   0.610   6.122  0.1093  1.1065  0.8123
10099SOL    HW236135   9.954   0.670   5.984 -0.4498  4.6152  2.3072
10100SOL     OW36136   4.625   5.899   0.361  0.6542  0.3512  0.3599
10100SOL    HW136137   4.561   5.897   0.432  0.1379 -0.2767 -0.1071
10100SOL    HW236138   4.655   5.809   0.352 -0.8739 -0.0369 -1.6016
10101SOL     OW36139  11.307  11.835   2.817  0.3758  0.7215  0.2910
10101SOL    HW136140  11.315  11.850   2.723  0.5808 -0.2125  0.1556
10101SOL    HW236141  11.244  11.764   2.826 -0.7121  1.7096  0.9387
10102SOL     OW36142   1.085   4.258  11.645  0.9018 -0.3310  0.5291
10102SOL    HW136143   1.139   4.335  11.664  1.1575 -0.4585  0.3248
10102SOL    HW236144   1.023   4.254  11.717  0.4442  0.4606  0.2020
10103SOL     OW36145   3.296   0.903  11.366 -0.5760  0.2204 -0.1358
10103SOL    HW136146   3.294   0.949  11.451  1.0146  0.0073  0.0471
10103SOL    HW236147   3.324   0.814  11.388  2.2487  0.7871 -1.0800
10104SOL     OW36148   1.845   5.145   6.772  0.3497 -0.2207 -0.2796
10104SOL    HW136149   1.863   5.062   6.729  1.7023  0.7924 -1.7772
10104SOL    HW236150   1.905   5.147   6.847  0.3074 -0.5824 -0.2331
10105SOL     OW36151   2.420  10.130  10.616 -0.4191  0.1059 -0.3186
10105SOL    HW136152   2.495  10.116  10.675 -0.9644 -0.5145  0.2544
10105SOL    HW236153   2.427  10.060  10.551  0.1268  0.7306 -0.9512
10106SOL     OW36154   6.765   1.044   6.357  0.2625  0.1270 -0.2969
10106SOL    HW136155   6.717   1.000   6.287  0.5934  0.2755 -0.6196
10106SOL    HW236156   6.755   1.137   6.339 -2.1901  0.3070  1.5380
10107SOL     OW36157   7.610  10.437  11.661  0.3625  0.0154 -0.8240
10107SOL    HW136158   7.646  10.519  11.696  1.1911 -0.9526  0.7235
10107SOL    HW236159   7.516  10.455  11.650  0.1389  0.5988  1.4242
10108SOL     OW36160   5.419   2.353  10.295  0.4291  0.1204 -0.2448
10108SOL    HW136161   5.490   2.291  10.277 -1.5579 -2.0589 -0.9789
10108SOL    HW236162   5.426   2.418  10.225  1.7915  0.0678 -0.1889
10109SOL     OW36163   1.866   0.081  11.614  0.0046  0.4194 -0.0691
10109SOL    HW136164   1.804   0.117  11.550  0.2952  2.9079  0.9256
10109SOL    HW236165   1.952   0.096  11.576  0.1051 -0.1681 -0.0785
10110SOL     OW36166  10.857   8.880   1.637 -0.0811 -0.4058  0.5419
10110SOL    HW136167  10.858   8.955   1.697 -0.3261 -0.1231  0.1933
10110SOL    HW236168  10.938   8.833   1.656  0.3642  0.2733  0.3505
10111SOL     OW36169   4.833   6.817  11.243  0.0487  0.5836 -0.0232
10111SOL    HW136170   4.779   6.859  11.176  0.1553  0.4267 -0.2081
10111SOL    HW236171   4.792   6.842  11.326  0.3268  1.3711 -0.1056
10112SOL     OW36172   4.663   2.329   7.789  0.3400 -0.5808  0.1015
10112SOL    HW136173   4.704   2.382   7.858  0.8439 -0.5397 -0.2224
10112SOL    HW236174   4.591   2.382   7.757  1.7098  0.5726 -1.2170
10113SOL     OW36175   8.035   9.619   2.351 -0.2535 -0.3008  0.2287
10113SOL    HW136176   7.958   9.592   2.301  0.2979 -0.7638 -0.3805
10113SOL    HW236177   8.011   9.703   2.389 -0.3787  0.4766 -1.5040
10114SOL     OW36178   3.598   9.317  12.259 -0.3595  0.2390 -0.0786
10114SOL    HW136179   3.576   9.389  12.200 -1.0904 -0.2104 -0.3767
10114SOL    HW236180   3.521   9.308  12.316  0.5132  0.9549  1.2550
10115SOL     OW36181   2.380   3.353   3.159  0.0481  0.5576  0.4561
10115SOL    HW136182   2.336   3.400   3.230  0.4186  2.5659 -0.5875
10115SOL    HW236183   2.327   3.370   3.082  1.4752  1.2560 -0.4114
10116SOL     OW36184   8.189   0.051   6.976  0.4624 -0.0407  0.4862
10116SOL    HW136185   8.223  -0.022   7.028 -1.0848 -0.7738  0.5242
10116SOL    HW236186   8.110   0.079   7.023 -0.6970 -0.4064 -1.1650
10117SOL     OW36187   4.761   0.843   5.390  0.1274  0.1395  0.6896
10117SOL    HW136188   4.794   0.920   5.343 -0.2029 -0.4956 -0.6192
10117SOL    HW236189   4.840   0.798   5.419  0.3692  0.1446  0.0687
10118SOL     OW36190   1.094   9.929   6.511  0.4120 -0.1816  0.4147
10118SOL    HW136191   1.010   9.963   6.479  0.2961 -0.3417  0.5524
10118SOL    HW236192   1.159   9.993   6.479  0.3239 -0.4589 -0.3459
10119SOL     OW36193   2.866   9.232   7.869  0.1427 -0.3751 -0.0720
10119SOL    HW136194   2.830   9.145   7.854 -0.3907 -0.2269  0.3075
10119SOL    HW236195   2.960   9.222   7.856  0.3502 -1.4530  1.8550
10120SOL     OW36196   5.567   4.836   0.277  0.1556 -0.9328 -0.2701
10120SOL    HW136197   5.495   4.900   0.274  1.0924  0.1122 -1.8732
10120SOL    HW236198   5.620   4.863   0.352 -0.0545 -0.5123 -0.2724
10121SOL     OW36199   4.959   1.904  11.102 -0.0603 -0.3464  0.2520
10121SOL    HW136200   4.888   1.854  11.142 -1.2618  0.4630 -0.7824
10121SOL    HW236201   4.930   1.995  11.107  1.2854  0.0932  0.5194
10122SOL     OW36202   1.885   1.080   4.971  0.7659  0.9043  0.1271
10122SOL    HW136203   1.908   1.020   5.042  0.4179 -1.0891 -1.3681
10122SOL    HW236204   1.966   1.127   4.952  0.7086  1.9825  2.2215
10123SOL     OW36205   9.569   2.992  11.646 -0.2477 -0.2869  0.1201
10123SOL    HW136206   9.525   3.064  11.692  0.4212  0.1174  0.1441
10123SOL    HW236207   9.591   2.930  11.715  0.8869  0.3877  0.3958
10124SOL     OW36208   4.231   1.579   3.051  0.6265 -0.4862  0.1345
10124SOL    HW136209   4.321   1.602   3.075  1.0004  0.1748 -1.7323
10124SOL    HW236210   4.204   1.649   2.992 -0.8286 -1.1078  0.0371
10125SOL     OW36211   7.964  11.455   2.384 -0.0232  0.0461  0.3212
10125SOL    HW136212   8.018  11.534   2.373 -0.1676  0.1807  0.5706
10125SOL    HW236213   8.022  11.383   2.358 -0.4828  0.3613 -1.8036
10126SOL     OW36214   5.245   9.427   3.469  0.0316 -0.0206  0.4240
10126SOL    HW136215   5.309   9.449   3.536  0.4342 -2.5774  1.0005
10126SOL    HW236216   5.160   9.437   3.512  0.2506 -0.6018  1.0194
10127SOL     OW36217   2.819   1.116   8.155  0.3943 -0.0003 -0.3298
10127SOL    HW136218   2.874   1.194   8.147  0.0215  0.5146  1.6207
10127SOL    HW236219   2.838   1.064   8.077  2.2286  1.0502 -0.6174
10128SOL     OW36220   4.975  10.487   8.443  0.0216  0.0087  0.0431
10128SOL    HW136221   5.066  10.496   8.470 -0.4025 -1.8331  2.4089
10128SOL    HW236222   4.951  10.398   8.469 -2.2731  0.1996 -1.1466
10129SOL     OW36223   4.450   9.976   9.957  0.1570 -0.1223  0.5573
10129SOL    HW136224   4.501   9.950   9.880 -2.3615 -2.5055 -0.4991
10129SOL    HW236225   4.460   9.903  10.018 -2.1301 -0.8562  0.1578
10130SOL     OW36226  11.985   2.319   5.089 -0.1996 -0.0243 -0.2541
10130SOL    HW136227  11.952   2.407   5.110  0.6270  0.1445  0.4067
10130SOL    HW236228  11.943   2.262   5.152  1.0928  0.2610  0.9155
10131SOL     OW36229   0.859  11.857  11.449  0.3814 -0.2454 -0.3151
10131SOL    HW136230   0.819  11.787  11.500 -1.2470  1.3119  0.6484
10131SOL    HW236231   0.930  11.889  11.504  0.8396 -0.8121 -0.5625
10132SOL     OW36232   5.482   0.856   8.712  1.3206  0.2685 -0.0279
10132SOL    HW136233   5.572   0.880   8.691  1.4499 -0.7600 -0.7252
10132SOL    HW236234   5.490   0.772   8.758  0.7916  0.7837  1.0364
10133SOL     OW36235   1.922   5.491   5.431 -0.5820 -0.0356  0.2946
10133SOL    HW136236   1.894   5.560   5.492 -3.1306  0.3574 -1.1583
10133SOL    HW236237   1.910   5.410   5.480 -0.6727  0.3789  0.9795
10134SOL     OW36238   4.278   7.301  11.218 -0.0048  0.3626 -0.1002
10134SOL    HW136239   4.342   7.235  11.244 -1.5236 -1.5687 -1.0209
10134SOL    HW236240   4.232   7.323  11.299  0.2202 -0.0517  0.1429
10135SOL     OW36241   7.328  10.103   6.303 -0.1067  0.0364  0.4085
10135SOL    HW136242   7.371  10.033   6.352  0.5178 -0.4210 -0.7613
10135SOL    HW236243   7.400  10.161   6.276 -0.0304 -1.1910 -2.3050
10136SOL     OW36244  12.304   0.381  11.525  0.1403  0.3499 -1.0084
10136SOL    HW136245  12.231   0.331  11.563  0.8456 -0.0179 -0.0714
10136SOL    HW236246  12.303   0.464  11.572  1.1924 -0.2159  0.0949
10137SOL     OW36247   6.469   5.484   4.718  0.0565 -0.1197 -0.3499
10137SOL    HW136248   6.476   5.469   4.813  0.0043  1.9422  0.0425
10137SOL    HW236249   6.558   5.470   4.685 -0.0086 -1.2370 -0.0788
10138SOL     OW36250   3.594   5.495   3.118  0.1043 -0.0300  0.1450
10138SOL    HW136251   3.544   5.495   3.037  0.9559  0.2656 -0.4017
10138SOL    HW236252   3.529   5.505   3.187 -0.8000 -1.9009 -0.3762
10139SOL     OW36253   9.950  10.632   9.342  0.3618  0.1101 -0.0550
10139SOL    HW136254   9.863  10.632   9.383  0.4453  0.8651  0.1412
10139SOL    HW236255   9.994  10.708   9.379  1.0604 -0.1812 -0.2691
10140SOL     OW36256   7.728   4.023   6.554 -0.2089  0.0678  0.4459
10140SOL    HW136257   7.800   4.086   6.547 -0.4776  0.3534  0.2107
10140SOL    HW236258   7.649   4.077   6.557 -0.3759 -0.1972  1.5922
10141SOL     OW36259   2.765   2.629  10.937 -0.1730  0.5822  0.2247
10141SOL    HW136260   2.798   2.717  10.919 -0.4041  0.0771 -3.2316
10141SOL    HW236261   2.683   2.644  10.984  0.0966  2.1845  0.2580
10142SOL     OW36262   9.999   4.933   7.070 -0.2239  0.1966  0.0865
10142SOL    HW136263  10.011   5.027   7.064  2.3007 -0.0100  1.0286
10142SOL    HW236264  10.077   4.896   7.029 -0.1266 -1.4408  1.6253
10143SOL     OW36265   3.893   1.993   8.376  0.1543 -0.2789  0.2116
10143SOL    HW136266   3.808   1.986   8.419  0.6559 -1.9093  1.0354
10143SOL    HW236267   3.929   2.076   8.407 -0.6349 -0.1469  0.8026
10144SOL     OW36268  11.246   4.442   2.843 -0.3132 -0.2064 -0.2686
10144SOL    HW136269  11.225   4.520   2.893 -1.1072  0.5674 -1.7408
10144SOL    HW236270  11.295   4.387   2.904  0.1920  1.3833  0.8251
10145SOL     OW36271   6.544   6.592   2.636 -0.2697 -0.2566 -0.3337
10145SOL    HW136272   6.576   6.503   2.652 -0.4200 -0.2884 -0.2117
10145SOL    HW236273   6.618   6.637   2.595  0.4479  0.0872  1.2831
10146SOL     OW36274  11.025   9.683   0.818 -0.2243 -0.5251 -0.2913
10146SOL    HW136275  10.937   9.713   0.796  0.7657  1.0931 -2.3821
10146SOL    HW236276  11.030   9.595   0.780 -0.5260 -0.0955 -1.3665
10147SOL     OW36277   2.088   8.020   4.099  0.2276  0.2408  0.6273
10147SOL    HW136278   2.050   7.967   4.029  0.0435  0.8867  0.2218
10147SOL    HW236279   2.182   8.012   4.087  0.1959  0.5855  0.1136
10148SOL     OW36280  11.382   3.470   4.188  0.0594  0.3805  0.1815
10148SOL    HW136281  11.379   3.561   4.161  0.0879  0.1122 -0.7540
10148SOL    HW236282  11.476   3.451   4.196  0.0978  0.0626 -0.9393
10149SOL     OW36283   1.308  10.055   2.633 -0.0492  0.2211 -0.5718
10149SOL    HW136284   1.311  10.097   2.719  0.4107 -1.1752  0.1226
10149SOL    HW236285   1.347  10.118   2.574 -1.8095  1.8737 -0.0598
10150SOL     OW36286  11.784   5.519   1.454  0.9966  0.3605 -0.2264
10150SOL    HW136287  11.816   5.429   1.453  2.3508  0.8274 -0.3013
10150SOL    HW236288  11.863   5.573   1.456  0.2090  1.5444  0.9837
10151SOL     OW36289   1.269   6.823   7.397 -0.3082 -0.0829 -0.2107
10151SOL    HW136290   1.174   6.808   7.398 -0.5413  1.3013  0.2062
10151SOL    HW236291   1.284   6.884   7.469  1.1111 -1.4061  0.6705
10152SOL     OW36292   0.482   0.124   7.560  0.7089 -0.0516  0.0389
10152SOL    HW136293   0.560   0.070   7.545  0.4418 -0.4621  0.1063
10152SOL    HW236294   0.498   0.165   7.645  0.7119 -0.3929  0.2086
10153SOL     OW36295  11.421   9.587   9.060  0.0372  0.2289 -0.0847
10153SOL    HW136296  11.482   9.521   9.028  0.5132  0.7487 -0.2761
10153SOL    HW236297  11.413   9.649   8.987  0.5529  1.0272  0.5239
10154SOL     OW36298   4.088   6.119  12.138 -0.2969 -0.7054 -0.4193
10154SOL    HW136299   4.047   6.182  12.197 -0.6710  0.0203 -1.4254
10154SOL    HW236300   4.098   6.166  12.055  0.2426 -1.6880 -0.9358
10155SOL     OW36301   2.504   5.367   5.257  0.0736 -0.6922 -0.7376
10155SOL    HW136302   2.576   5.374   5.319  1.2083 -3.1131 -1.6737
10155SOL    HW236303   2.488   5.457   5.228  0.9038  0.2165  1.4568
10156SOL     OW36304   6.976   1.893   1.809 -0.2818 -0.3537 -0.3155
10156SOL    HW136305   6.934   1.965   1.763  1.7882  0.2490 -1.3467
10156SOL    HW236306   6.950   1.904   1.900 -2.5620 -0.2119 -0.9192
10157SOL     OW36307   2.478  11.697   5.624 -0.3823 -0.0163 -0.3940
10157SOL    HW136308   2.511  11.609   5.640 -2.1062 -0.6875 -0.2848
10157SOL    HW236309   2.407  11.685   5.560 -1.6258  1.0656  0.7145
10158SOL     OW36310   1.472   8.052   7.682 -0.1165 -0.4626  0.0805
10158SOL    HW136311   1.564   8.075   7.691 -0.1512 -0.3859  0.2266
10158SOL    HW236312   1.443   8.031   7.770  0.2008 -2.1513 -0.1776
10159SOL     OW36313   0.316   8.430   8.990 -0.1195 -0.2045  0.2923
10159SOL    HW136314   0.322   8.513   9.038  0.9222  0.3240 -0.7064
10159SOL    HW236315   0.258   8.450   8.916 -1.7881 -1.0366  1.3087
10160SOL     OW36316   9.007   6.084   0.706  0.4744 -0.2872  0.2885
10160SOL    HW136317   9.061   6.146   0.756 -0.0217 -0.7333  1.4061
10160SOL    HW236318   9.052   6.001   0.715  1.1469 -0.1218 -1.2247
10161SOL     OW36319  11.673   1.660   8.648 -0.3733 -0.4080  0.1413
10161SOL    HW136320  11.641   1.598   8.583  0.3844  0.7407 -1.3918
10161SOL    HW236321  11.616   1.737   8.637  0.9151  0.4949 -0.4948
10162SOL     OW36322   3.539   7.279   6.801 -0.1243 -0.2122 -0.2470
10162SOL    HW136323   3.622   7.316   6.769 -0.7629 -0.7747 -2.7688
10162SOL    HW236324   3.524   7.202   6.746 -1.7071 -0.8456  0.9987
10163SOL     OW36325   6.063   3.897   8.410  0.2185 -0.0469 -0.2270
10163SOL    HW136326   6.018   3.952   8.474  1.6112 -0.5181  1.2357
10163SOL    HW236327   6.144   3.944   8.391  1.0430 -1.1570  0.4205
10164SOL     OW36328   4.183   8.211   3.831  0.2695  0.0343  0.5270
10164SOL    HW136329   4.161   8.288   3.883 -0.7969 -2.2771  3.8314
10164SOL    HW236330   4.109   8.199   3.772 -0.7971  0.1055  1.8306
10165SOL     OW36331   6.795   1.832   0.750 -0.0601 -0.1237  0.0160
10165SOL    HW136332   6.718   1.779   0.770  1.1890 -2.9057 -1.8057
10165SOL    HW236333   6.851   1.822   0.827  0.4956 -2.2986 -0.6002
10166SOL     OW36334   9.937   2.506   0.702 -0.3922  0.9756  0.0949
10166SOL    HW136335   9.973   2.568   0.638  2.8936  1.0129  1.7408
10166SOL    HW236336   9.889   2.561   0.764  0.6941  1.6362  0.3766
10167SOL     OW36337   6.366  12.128   3.556 -0.1526  0.2357  0.5435
10167SOL    HW136338   6.406  12.211   3.532 -0.3651  0.2943  0.3963
10167SOL    HW236339   6.378  12.072   3.479  1.3570 -0.3740  1.1710
10168SOL     OW36340   6.682   9.919   2.446  0.4192  0.0645 -0.4434
10168SOL    HW136341   6.641  10.004   2.456 -0.4962 -0.4996  0.7961
10168SOL    HW236342   6.610   9.860   2.424  0.7958 -0.6792  0.2791
10169SOL     OW36343   7.358   1.613   2.413  0.4508 -0.6466  0.1870
10169SOL    HW136344   7.333   1.702   2.440  0.6908 -0.8893  1.2463
10169SOL    HW236345   7.339   1.611   2.320 -0.1849  0.3076  0.2765
10170SOL     OW36346   5.784   4.308  10.146 -0.3294  0.1687 -0.0354
10170SOL    HW136347   5.767   4.325  10.054  2.0566  1.9105 -0.2632
10170SOL    HW236348   5.879   4.303  10.153 -0.3088  1.7512  2.5278
10171SOL     OW36349   5.986   9.645   7.981 -0.0507 -0.1792  0.2014
10171SOL    HW136350   5.989   9.699   8.060 -1.6731  0.5134 -0.1647
10171SOL    HW236351   5.893   9.626   7.969  0.1686 -0.3035 -1.5282
10172SOL     OW36352   7.527   5.284   0.493  0.6199  0.9259  0.1052
10172SOL    HW136353   7.435   5.256   0.490  0.2388  2.1861 -0.6606
10172SOL    HW236354   7.564   5.235   0.567 -0.7358  0.6037  0.6088
10173SOL     OW36355   4.484   0.920   0.966 -0.2420  0.3865  0.0130
10173SOL    HW136356   4.441   0.835   0.951 -0.3821  0.4713 -0.0668
10173SOL    HW236357   4.442   0.979   0.904 -2.0127  1.1573  1.7950
10174SOL     OW36358  11.228  11.103  10.679  0.3372  0.6183 -0.2697
10174SOL    HW136359  11.203  11.188  10.716  1.0068  1.2091 -1.1333
10174SOL    HW236360  11.228  11.117  10.584 -2.1622 -1.0906 -0.6188
10175SOL     OW36361   6.095   2.906  10.975 -0.2124 -0.1984 -0.5663
10175SOL    HW136362   6.144   2.938  10.900 -1.7828 -0.0626 -1.5639
10175SOL    HW236363   6.158   2.911  11.048  0.0243  4.0796 -0.8511
10176SOL     OW36364  11.216  10.994  12.267 -0.3856 -0.4702 -0.2785
10176SOL    HW136365  11.213  11.081  12.306  0.9625 -0.7932  0.6215
10176SOL    HW236366  11.160  11.000  12.190 -0.4436  1.1459 -0.1461
10177SOL     OW36367   4.552   3.723   2.054  0.6937  0.1682  0.1356
10177SOL    HW136368   4.616   3.722   1.983 -0.5645  3.1280 -1.1798
10177SOL    HW236369   4.473   3.685   2.015  0.8627 -1.1029  0.9748
10178SOL     OW36370   3.192   8.853   0.915 -0.2846 -0.0995  0.1906
10178SOL    HW136371   3.139   8.919   0.957 -0.0731 -0.0922  0.4520
10178SOL    HW236372   3.138   8.820   0.843 -0.6527 -0.1226  0.4791
10179SOL     OW36373   1.665  12.321   6.344 -0.2703  0.0515 -0.2127
10179SOL    HW136374   1.665  12.354   6.434 -1.0781 -0.4953  0.0104
10179SOL    HW236375   1.728  12.375   6.297  0.2390  0.2721  0.7125
10180SOL     OW36376   2.703   7.540  12.324  0.2534 -0.1908  0.4278
10180SOL    HW136377   2.741   7.538  12.412 -2.6257 -0.5991  1.7765
10180SOL    HW236378   2.610   7.556  12.338 -0.0936  1.2628 -2.6781
10181SOL     OW36379  12.148   2.074   4.583 -0.4811  0.5565 -0.0411
10181SOL    HW136380  12.242   2.056   4.593 -0.5727 -0.2841 -0.5525
10181SOL    HW236381  12.136   2.161   4.620  0.2802  0.1647  1.1802
10182SOL     OW36382   5.714   1.123   4.598  0.4752 -0.5209  0.1028
10182SOL    HW136383   5.635   1.074   4.577  0.0690 -1.3244  3.0888
10182SOL    HW236384   5.768   1.062   4.648  0.7400  1.4370  2.4173
10183SOL     OW36385   6.916   3.099   2.097 -0.2633  0.6682  0.0979
10183SOL    HW136386   6.858   3.118   2.171  0.3991  3.0690  0.0599
10183SOL    HW236387   6.949   3.011   2.116 -1.8522  0.3013  1.4623
10184SOL     OW36388  11.157   9.932   5.390 -0.1601  0.0651 -0.2721
10184SOL    HW136389  11.161   9.837   5.393  1.8968  0.1042  0.1641
10184SOL    HW236390  11.174   9.960   5.480  2.4156  0.8039 -0.8751
10185SOL     OW36391   5.739  10.589   1.646  0.6764 -0.2595 -0.2854
10185SOL    HW136392   5.789  10.578   1.726  0.0959  1.0670  0.2998
10185SOL    HW236393   5.721  10.683   1.641 -0.7240 -0.5237 -1.0780
10186SOL     OW36394   2.460   9.976   3.109  0.2980  0.2111  0.4472
10186SOL    HW136395   2.485   9.951   3.021 -1.3779  0.6875 -0.2125
10186SOL    HW236396   2.495   9.906   3.165  0.9936 -0.3254 -0.6339
10187SOL     OW36397   7.896  10.632  11.834  0.2158 -0.4298  0.0755
10187SOL    HW136398   7.863  10.563  11.892 -3.6407 -0.0050 -1.3302
10187SOL    HW236399   7.985  10.605  11.813  0.1102 -3.0539  2.4014
10188SOL     OW36400   1.990  12.171   4.846  0.1760  0.0824  0.0490
10188SOL    HW136401   1.979  12.224   4.925  1.4666  0.2260  0.1529
10188SOL    HW236402   2.000  12.081   4.879  0.1548  0.0671  0.0138
10189SOL     OW36403   1.414  10.181   5.500 -0.0337  0.5694  0.0842
10189SOL    HW136404   1.500  10.168   5.540  0.2996 -0.4980 -0.9237
10189SOL    HW236405   1.364  10.229   5.565  1.1649  0.7514  0.8974
10190SOL     OW36406   4.502  10.054   8.187 -0.3560  0.1406  0.2111
10190SOL    HW136407   4.562  10.089   8.121  1.0962  0.4141  1.6325
10190SOL    HW236408   4.519  10.105   8.265 -1.0116 -1.1444  1.2304
10191SOL     OW36409   1.717   9.811  10.446 -0.2928  0.1698  0.0871
10191SOL    HW136410   1.730   9.716  10.452 -0.3991  0.2420  2.5969
10191SOL    HW236411   1.633   9.821  10.402 -0.3936 -0.9327  0.0083
10192SOL     OW36412  11.642   5.920   5.480  0.3365 -0.5728  0.0148
10192SOL    HW136413  11.610   5.973   5.407  2.2150  1.2112  0.3908
10192SOL    HW236414  11.580   5.847   5.486 -0.9306  0.2406 -2.1321
10193SOL     OW36415   5.570   4.819  12.050  0.5363  0.0455  0.3682
10193SOL    HW136416   5.627   4.864  11.987  0.7872 -0.1623  0.4492
10193SOL    HW236417   5.596   4.728  12.046  0.8939  0.1064  1.1472
10194SOL     OW36418  11.048   2.908   4.803 -0.1516 -0.2220 -0.1888
10194SOL    HW136419  11.041   2.981   4.864  0.4055  1.5405 -2.0904
10194SOL    HW236420  11.126   2.929   4.751 -1.4153 -0.8252 -2.4501
10195SOL     OW36421   3.999   5.343  12.196 -0.0176 -0.0658 -0.0174
10195SOL    HW136422   4.002   5.432  12.232  0.3977  0.2082 -0.7145
10195SOL    HW236423   4.048   5.290  12.259 -0.4949  0.1407  0.5396
10196SOL     OW36424   4.901  10.112  10.386 -0.2501 -0.4063 -0.2058
10196SOL    HW136425   4.881  10.043  10.450  1.1982  0.4616  1.2445
10196SOL    HW236426   4.851  10.187  10.416 -0.7238 -0.3993 -0.9808
10197SOL     OW36427   7.224   8.045   5.787 -0.0575 -0.6229  0.3706
10197SOL    HW136428   7.208   8.077   5.875 -1.3281 -0.5697  0.1463
10197SOL    HW236429   7.287   7.974   5.798  0.2637 -0.2148  1.2389
10198SOL     OW36430   2.868   9.759   1.958  0.4322  0.5837  0.0444
10198SOL    HW136431   2.816   9.681   1.978 -0.0226  0.9355  0.2447
10198SOL    HW236432   2.905   9.785   2.042  0.5414  0.6126 -0.0129
10199SOL     OW36433   0.283   1.252   2.142  0.2259 -0.4562  0.2219
10199SOL    HW136434   0.231   1.256   2.061 -3.2802  1.4360  2.3200
10199SOL    HW236435   0.341   1.328   2.137 -0.4349  0.0289 -0.2597
10200SOL     OW36436   6.181   0.309  12.061  0.0417 -0.1337 -0.3378
10200SOL    HW136437   6.110   0.308  12.125  1.5994  1.8536  1.6002
10200SOL    HW236438   6.196   0.402  12.043  1.7684 -0.5152 -1.1290
10201SOL     OW36439   3.968   0.372   3.702  0.1992 -0.3193 -0.0089
10201SOL    HW136440   3.972   0.420   3.619  1.8121  1.6489  1.1153
10201SOL    HW236441   3.897   0.413   3.750 -0.5680 -1.2912 -0.2828
10202SOL     OW36442  12.276   7.500   2.637  0.2105 -0.1965 -0.1837
10202SOL    HW136443  12.251   7.589   2.659 -0.3043 -0.4613  0.3405
10202SOL    HW236444  12.321   7.468   2.716  0.1466 -0.4890 -0.2644
10203SOL     OW36445   0.125   4.517   2.628  0.4988  0.7759  0.7340
10203SOL    HW136446   0.200   4.571   2.605  0.2474 -0.0847 -2.7289
10203SOL    HW236447   0.049   4.569   2.603  0.1769 -0.2353 -0.5007
10204SOL     OW36448   7.043   1.343   2.921  0.1442  0.4685  0.2233
10204SOL    HW136449   7.132   1.322   2.895 -0.0267  1.3741 -1.2266
10204SOL    HW236450   7.053   1.395   3.001  0.8998  0.4013  0.1811
10205SOL     OW36451   2.420   1.546   0.150 -0.3140 -0.2149 -0.3212
10205SOL    HW136452   2.397   1.456   0.129 -0.1707 -0.2984 -0.1284
10205SOL    HW236453   2.348   1.598   0.116 -0.5614 -0.4316 -0.1361
10206SOL     OW36454   1.919   0.404   3.121 -0.7128 -0.0480 -0.5166
10206SOL    HW136455   1.954   0.365   3.041  0.1417  0.3571 -0.3495
10206SOL    HW236456   1.941   0.341   3.189 -1.2615 -0.2963 -0.5626
10207SOL     OW36457   7.502   6.101   1.909  0.0820 -0.1758  0.4541
10207SOL    HW136458   7.572   6.037   1.924 -0.9495 -1.2973  0.6348
10207SOL    HW236459   7.523   6.140   1.824 -0.1534 -1.9973 -0.4927
10208SOL     OW36460   6.652  11.162  10.343 -0.2520  0.2549 -0.4022
10208SOL    HW136461   6.599  11.082  10.346 -0.8306  0.6134 -0.9710
10208SOL    HW236462   6.631  11.202  10.259 -0.4966  1.3695  0.1770
10209SOL     OW36463   2.668  11.139   7.382 -0.2922 -0.3516 -0.3515
10209SOL    HW136464   2.732  11.093   7.326  0.3394  0.0494  0.0323
10209SOL    HW236465   2.583  11.108   7.351  0.0277  0.0700 -1.7342
10210SOL     OW36466  11.252   6.704   5.299  0.0595  0.1509 -0.8249
10210SOL    HW136467  11.314   6.692   5.227  0.3881  3.0454 -1.1729
10210SOL    HW236468  11.300   6.756   5.364 -1.0119 -0.2894  0.3724
10211SOL     OW36469   5.813   4.944   4.592 -0.3520  0.0647 -0.0223
10211SOL    HW136470   5.805   4.852   4.619  1.1992  0.0807  0.5788
10211SOL    HW236471   5.830   4.991   4.674  0.0150  0.7290 -0.4803
10212SOL     OW36472  10.418   8.136   2.388 -0.0660  0.6783 -0.4485
10212SOL    HW136473  10.469   8.089   2.455 -0.0341 -0.1914 -1.0717
10212SOL    HW236474  10.330   8.141   2.425 -0.2668 -0.6120 -0.7266
10213SOL     OW36475   2.603   3.968   9.458  0.0878 -0.3642  0.0022
10213SOL    HW136476   2.551   3.983   9.379 -1.0375  2.2433  1.1168
10213SOL    HW236477   2.669   4.037   9.457 -0.1563 -0.0786  1.4771
10214SOL     OW36478   5.493   0.292  10.083  0.6405 -0.1243 -0.3323
10214SOL    HW136479   5.486   0.345  10.163 -0.4466  0.4533 -0.7989
10214SOL    HW236480   5.566   0.232  10.101  0.3607 -0.0710  1.1337
10215SOL     OW36481  11.140  11.546   1.747 -0.4777 -0.8712  0.2625
10215SOL    HW136482  11.079  11.472   1.758 -0.4759 -0.9814 -0.4188
10215SOL    HW236483  11.226  11.505   1.740 -0.6363 -0.9768 -1.8873
10216SOL     OW36484   8.369  10.135   6.474  0.9516  1.0635 -0.0301
10216SOL    HW136485   8.361  10.213   6.420  0.6411  0.7889 -0.3921
10216SOL    HW236486   8.350  10.063   6.414  0.2751  0.7740  0.5090
10217SOL     OW36487   7.223   5.273   0.600 -0.1495  0.3322  0.0487
10217SOL    HW136488   7.168   5.202   0.631 -0.5318  0.0324 -1.2547
10217SOL    HW236489   7.252   5.318   0.680 -0.2157 -1.0282  0.8660
10218SOL     OW36490   1.136  12.137  10.059 -0.0294  0.4205  0.5360
10218SOL    HW136491   1.198  12.067  10.039 -0.1387  0.7052 -0.9010
10218SOL    HW236492   1.077  12.098  10.124  0.7430 -0.3445  0.8098
10219SOL     OW36493   8.388  10.691   9.786 -0.2062 -0.1862 -0.0613
10219SOL    HW136494   8.304  10.731   9.764 -0.3653 -0.5486 -0.1058
10219SOL    HW236495   8.366  10.606   9.823  0.1307 -0.1938  0.1328
10220SOL     OW36496   7.770   7.765  10.460 -0.8392 -0.2455 -0.3788
10220SOL    HW136497   7.760   7.675  10.431 -0.8604 -0.0083 -1.1137
10220SOL    HW236498   7.685   7.787  10.500  0.0507 -1.4664  2.4630
10221SOL     OW36499   9.936   1.826  11.849  0.1411 -0.3261 -0.1000
10221SOL    HW136500   9.973   1.765  11.785 -0.5468 -1.0902  0.2264
10221SOL    HW236501  10.012   1.857  11.899  0.7195  0.4061 -1.3599
10222SOL     OW36502   8.044   0.648   3.501 -0.7492 -0.1488 -0.2033
10222SOL    HW136503   8.040   0.703   3.423  0.3048  0.8737  0.4320
10222SOL    HW236504   8.036   0.709   3.574 -0.5080 -0.9528  0.5060
10223SOL     OW36505   0.334   3.985   1.444  0.0354  0.6075 -0.6895
10223SOL    HW136506   0.355   4.077   1.464 -1.2725  0.6296  0.7645
10223SOL    HW236507   0.410   3.937   1.478  0.2251  1.0621 -0.4463
10224SOL     OW36508   5.565   2.113  11.787  0.4808  0.0348  0.3825
10224SOL    HW136509   5.656   2.082  11.784 -0.1912 -2.1175  0.5877
10224SOL    HW236510   5.553   2.158  11.704  1.1638 -1.5204 -0.6144
10225SOL     OW36511   9.999   0.651   4.575  0.3123  0.1250  0.3448
10225SOL    HW136512  10.070   0.691   4.525 -1.1318 -0.9923 -2.8571
10225SOL    HW236513   9.938   0.723   4.593  1.3063  0.7209  1.4751
10226SOL     OW36514   3.752   8.132   6.805  0.2472  0.3454  0.2836
10226SOL    HW136515   3.679   8.096   6.854  0.7724  0.2426  0.9981
10226SOL    HW236516   3.820   8.149   6.871  1.3380 -0.7138 -0.5140
10227SOL     OW36517   9.305  12.115   8.933  0.0023  0.1193 -0.5033
10227SOL    HW136518   9.309  12.169   8.854 -0.8778 -0.4524 -0.9620
10227SOL    HW236519   9.386  12.064   8.931 -1.2626 -2.0909 -2.7286
10228SOL     OW36520   6.810   1.202  10.665  0.0543  0.0209  0.1807
10228SOL    HW136521   6.889   1.224  10.713 -0.4661  0.8596  0.6864
10228SOL    HW236522   6.754   1.279  10.675 -0.5917 -0.3203 -0.6594
10229SOL     OW36523  12.002  11.045   8.636  0.1141  0.3727  0.3098
10229SOL    HW136524  11.915  11.084   8.645 -0.4294 -0.5183 -0.8288
10229SOL    HW236525  12.062  11.120   8.635 -0.6691  1.0182  0.7638
10230SOL     OW36526   6.856   2.709   4.795  0.5005  0.0226 -0.2394
10230SOL    HW136527   6.848   2.793   4.840 -0.7054 -1.3452  2.2925
10230SOL    HW236528   6.838   2.730   4.703  0.0952  2.4953  0.3290
10231SOL     OW36529   1.344   4.779   6.068  0.1327  0.3541  0.2824
10231SOL    HW136530   1.285   4.704   6.062  0.9408 -0.3750  1.2039
10231SOL    HW236531   1.416   4.758   6.009  0.9238 -0.1509  1.3858
10232SOL     OW36532   4.407   7.654   9.067 -0.4064 -0.1071 -0.3815
10232SOL    HW136533   4.402   7.734   9.120  0.0804 -0.3121 -0.0172
10232SOL    HW236534   4.319   7.644   9.031 -0.6824  0.1621  0.2051
10233SOL     OW36535   2.502   9.056   2.574  0.8698  0.1923 -0.1437
10233SOL    HW136536   2.549   9.026   2.496  0.9266  1.0320 -0.4453
10233SOL    HW236537   2.549   9.015   2.647  0.8823 -0.5146 -0.5366
10234SOL     OW36538   9.193   6.014   3.256 -0.2690  0.9994  0.3645
10234SOL    HW136539   9.231   6.100   3.269 -0.1197  1.2007 -1.2210
10234SOL    HW236540   9.161   5.988   3.342 -1.2005  3.0610  0.6890
10235SOL     OW36541   8.797   5.643   2.552  0.1079 -0.8073 -0.0819
10235SOL    HW136542   8.738   5.673   2.621  1.2258  1.5548 -0.0357
10235SOL    HW236543   8.769   5.692   2.474  0.7168 -1.2038 -0.5552
10236SOL     OW36544   2.898   0.778   9.549 -0.0363  0.0659 -0.0046
10236SOL    HW136545   2.855   0.702   9.510  0.5757 -1.2020  1.6674
10236SOL    HW236546   2.930   0.746   9.633 -0.3628  2.3809  1.0569
10237SOL     OW36547   4.883   1.937   9.263 -0.5014  0.1124  0.1278
10237SOL    HW136548   4.899   1.871   9.331 -1.2716 -1.0623 -0.7776
10237SOL    HW236549   4.965   1.986   9.257 -0.4218  0.2441  1.8823
10238SOL     OW36550   8.578  12.296   2.832 -0.0392  0.0993  0.2586
10238SOL    HW136551   8.584  12.364   2.899  1.5126  0.7137 -0.4587
10238SOL    HW236552   8.580  12.344   2.749  0.1041 -0.7560 -0.2414
10239SOL     OW36553   6.138   4.176   8.699  0.1472 -0.1850 -0.2386
10239SOL    HW136554   6.048   4.206   8.683  0.6884  0.3829 -2.6315
10239SOL    HW236555   6.127   4.090   8.740 -1.4239  1.5425  3.3448
10240SOL     OW36556   0.765   7.619   7.022  0.1946  0.6467 -0.2280
10240SOL    HW136557   0.707   7.543   7.019  0.9555 -0.0086  0.9907
10240SOL    HW236558   0.721   7.685   6.969 -1.1506 -0.1824 -0.1786
10241SOL     OW36559   0.643   7.218   6.118  0.5725 -0.0475 -0.2076
10241SOL    HW136560   0.644   7.311   6.094 -0.2896  0.1638  0.5284
10241SOL    HW236561   0.561   7.207   6.166 -0.0830 -1.5241 -1.5911
10242SOL     OW36562  10.761   0.643   7.900 -0.0780  0.0533 -0.0418
10242SOL    HW136563  10.769   0.713   7.964 -0.0420 -1.1885  1.3667
10242SOL    HW236564  10.667   0.633   7.886 -0.1961 -0.9648  1.3365
10243SOL     OW36565   5.715   4.003  12.219 -0.4916  0.3519  0.0592
10243SOL    HW136566   5.642   4.051  12.179  1.1114  1.2731 -1.9096
10243SOL    HW236567   5.736   4.053  12.298  0.1147  2.0623 -1.1213
10244SOL     OW36568  12.234   5.388   8.847  0.5081 -0.9081  0.1013
10244SOL    HW136569  12.278   5.314   8.806 -1.0627 -2.1441  0.5581
10244SOL    HW236570  12.207   5.443   8.773  0.8850 -1.2443 -0.2924
10245SOL     OW36571  11.298   1.109   1.086  0.2211  0.3180 -0.4696
10245SOL    HW136572  11.276   1.017   1.070 -0.7889  0.3316  0.7222
10245SOL    HW236573  11.316   1.145   0.999  0.7536 -1.0256 -0.9389
10246SOL     OW36574   8.955   8.793   1.644  0.0089  0.0807 -0.5558
10246SOL    HW136575   8.882   8.734   1.662 -0.4177  1.2898  2.2217
10246SOL    HW236576   8.914   8.878   1.629  0.7506  0.2287 -1.9462
10247SOL     OW36577   5.552   9.930   3.827  0.2849 -1.0199 -1.0231
10247SOL    HW136578   5.535   9.859   3.889  1.4522  0.1234  0.7249
10247SOL    HW236579   5.522   9.897   3.743 -0.7134 -2.9370  0.0161
10248SOL     OW36580   2.325   0.412   1.026 -0.1354 -0.5744 -0.0601
10248SOL    HW136581   2.293   0.470   0.957 -0.0877 -0.9530 -0.4094
10248SOL    HW236582   2.420   0.413   1.015 -0.1996 -2.1516 -1.2949
10249SOL     OW36583   4.267   4.373   9.188  0.3969 -0.3312  0.4984
10249SOL    HW136584   4.202   4.332   9.130  0.2307 -1.2002  1.2621
10249SOL    HW236585   4.236   4.462   9.200 -0.3527 -0.5678  0.3887
10250SOL     OW36586   8.943   5.363  12.302  0.3376 -0.6884 -0.0613
10250SOL    HW136587   8.952   5.324  12.390  0.7710 -0.8195 -0.1593
10250SOL    HW236588   9.023   5.336  12.256 -0.0390 -0.8911 -0.6030
10251SOL     OW36589   2.702   8.736   2.696  0.0899 -0.2735  0.2411
10251SOL    HW136590   2.686   8.828   2.717  1.0067 -0.2147  0.7406
10251SOL    HW236591   2.750   8.702   2.771  1.0917 -0.7639 -0.5946
10252SOL     OW36592   2.239  11.415   9.810 -0.0495  0.8191  0.5418
10252SOL    HW136593   2.180  11.354   9.767 -0.4372  1.8791 -0.5030
10252SOL    HW236594   2.253  11.485   9.746  0.5628  1.7121  1.5929
10253SOL     OW36595   1.786   6.649   1.600  0.3416 -1.0083 -0.1007
10253SOL    HW136596   1.872   6.641   1.560  0.6437 -2.4350  0.7649
10253SOL    HW236597   1.801   6.637   1.694 -0.5684  0.5945  0.2936
10254SOL     OW36598   1.250  10.274   2.071 -0.2657  0.3440 -0.1232
10254SOL    HW136599   1.233  10.366   2.090 -0.3034  0.4240 -0.5382
10254SOL    HW236600   1.170  10.242   2.029 -0.1079  0.2239 -0.3366
10255SOL     OW36601   6.139   5.131   1.481 -0.1332  0.3158 -0.4665
10255SOL    HW136602   6.050   5.166   1.487  0.3345  1.4720 -0.0953
10255SOL    HW236603   6.152   5.084   1.563 -1.1188 -1.6563 -1.3763
10256SOL     OW36604   9.367   8.862  11.254 -0.4428  0.2077 -0.3130
10256SOL    HW136605   9.379   8.954  11.233  1.6082 -0.1547 -0.9674
10256SOL    HW236606   9.313   8.862  11.332 -0.5050  1.9614 -0.3187
10257SOL     OW36607   4.514  10.044   8.891  0.1679 -0.2180 -0.0056
10257SOL    HW136608   4.544  10.025   8.802  0.0756 -1.1633  0.1469
10257SOL    HW236609   4.430  10.088   8.879  1.1992  1.7177 -0.4155
10258SOL     OW36610   0.196   6.559   5.136  0.2047  1.2641 -0.0929
10258SOL    HW136611   0.289   6.548   5.116  0.6340  1.4915  1.5581
10258SOL    HW236612   0.183   6.654   5.139  0.0713  1.2370  0.2684
10259SOL     OW36613   1.595   9.093   2.529 -0.4133 -0.2607 -0.3736
10259SOL    HW136614   1.654   9.072   2.457 -1.5158 -1.3994 -0.9907
10259SOL    HW236615   1.648   9.143   2.590  0.8307 -0.1600 -1.4968
10260SOL     OW36616   6.433  11.524   2.345 -0.4730 -0.1743 -0.4370
10260SOL    HW136617   6.474  11.559   2.424 -1.9506 -0.1137  0.3469
10260SOL    HW236618   6.484  11.446   2.323  0.6302  0.4359 -0.0872
10261SOL     OW36619  12.056  10.946   0.186  0.3777 -0.4784  0.1820
10261SOL    HW136620  12.006  10.865   0.170 -1.3351  0.1015  2.1905
10261SOL    HW236621  12.009  11.013   0.137  1.6465 -0.5751 -1.2619
10262SOL     OW36622   5.339   1.011   4.049 -0.6756 -0.4747 -0.3947
10262SOL    HW136623   5.275   1.072   4.013 -1.3940 -0.9020  0.1393
10262SOL    HW236624   5.416   1.022   3.993 -0.6773  1.1227 -0.1400
10263SOL     OW36625  12.151   5.585   7.611 -0.0425  0.2778 -0.9498
10263SOL    HW136626  12.074   5.537   7.578  0.0168 -1.5418  1.2497
10263SOL    HW236627  12.222   5.521   7.607  0.1497  0.2169  1.6987
10264SOL     OW36628   1.056   3.509   9.538 -0.3994  0.4982 -0.4711
10264SOL    HW136629   1.128   3.565   9.569 -0.5673  0.5073 -0.0968
10264SOL    HW236630   1.040   3.539   9.449  0.5492  0.0081 -0.8227
10265SOL     OW36631   9.322   5.665   1.843  0.1945 -0.4700  0.1852
10265SOL    HW136632   9.408   5.669   1.801 -0.2195 -0.5965 -0.6981
10265SOL    HW236633   9.341   5.667   1.936  1.2939 -2.4583  0.0715
10266SOL     OW36634   5.383   9.096  11.175  0.0977  0.5035 -0.1604
10266SOL    HW136635   5.440   9.037  11.225  0.1527 -0.6663 -1.5523
10266SOL    HW236636   5.297   9.087  11.216  0.2119 -0.2040 -0.0619
10267SOL     OW36637   1.738   6.613   9.598 -0.3623  0.1186  0.3018
10267SOL    HW136638   1.760   6.671   9.670 -2.3220 -1.7161  2.5462
10267SOL    HW236639   1.662   6.654   9.556 -0.4514  0.2219  0.5625
10268SOL     OW36640  11.036   9.230   7.288 -0.4678  0.1135  0.1488
10268SOL    HW136641  11.020   9.221   7.194 -0.5150  1.7441 -0.0324
10268SOL    HW236642  11.129   9.214   7.298 -0.2473  0.9879 -0.3551
10269SOL     OW36643   0.705   7.411   0.194 -0.4427 -0.1241  0.0870
10269SOL    HW136644   0.781   7.462   0.221 -1.9291  1.2247  1.9927
10269SOL    HW236645   0.655   7.470   0.138 -0.6901 -0.6003 -0.2039
10270SOL     OW36646   3.178   2.050  11.589 -0.1950  0.6299  0.6218
10270SOL    HW136647   3.241   2.108  11.546  0.6234 -0.4412  0.3387
10270SOL    HW236648   3.130   2.009  11.517 -1.4516  1.6378  0.8371
10271SOL     OW36649   9.068   6.436   4.117 -0.0874 -0.2741  0.4211
10271SOL    HW136650   9.076   6.429   4.213  1.9998  2.0559  0.4931
10271SOL    HW236651   8.980   6.472   4.104  0.2405  1.0727  1.6130
10272SOL     OW36652  12.164   2.552   3.560 -0.1901 -0.6688 -0.3522
10272SOL    HW136653  12.108   2.612   3.608 -2.3704 -2.3721 -0.6087
10272SOL    HW236654  12.153   2.577   3.468  0.7737 -0.0009 -0.3021
10273SOL     OW36655   9.999   7.926   4.481 -0.7174 -0.0698 -0.8436
10273SOL    HW136656   9.997   7.834   4.454  2.1182 -0.8621  1.1357
10273SOL    HW236657  10.085   7.957   4.453 -1.8123  2.2278 -1.9233
10274SOL     OW36658  11.178   6.313   1.383 -0.3628  0.2432  0.6199
10274SOL    HW136659  11.109   6.259   1.421 -0.9272  1.7277  1.7762
10274SOL    HW236660  11.248   6.250   1.362 -1.7527 -1.1869  0.0687
10275SOL     OW36661  11.809   9.679   6.449  0.5154 -0.6908 -0.1181
10275SOL    HW136662  11.779   9.756   6.497 -1.3855 -1.1329 -0.5333
10275SOL    HW236663  11.873   9.637   6.508  1.3496  0.9952  0.2371
10276SOL     OW36664   0.751   8.741   1.919  0.3494  0.2564  0.4640
10276SOL    HW136665   0.823   8.724   1.979 -0.3550  0.3129  1.3437
10276SOL    HW236666   0.725   8.831   1.937  0.7615  0.6086 -0.6209
10277SOL     OW36667   8.049   5.268   2.451  0.5438 -1.1046 -0.3681
10277SOL    HW136668   8.032   5.223   2.368  1.1163  1.5482 -2.0966
10277SOL    HW236669   8.102   5.344   2.425 -0.6340  0.7330  2.2261
10278SOL     OW36670   3.154   3.016   2.980 -0.1479  0.1586 -0.3957
10278SOL    HW136671   3.088   3.082   2.960 -0.3292  0.1948  0.3053
10278SOL    HW236672   3.176   3.031   3.072  0.0323 -0.5606 -0.3183
10279SOL     OW36673  10.270   6.050   0.256  0.9680  0.1441 -0.2696
10279SOL    HW136674  10.362   6.076   0.250  0.9393  0.1129 -1.0248
10279SOL    HW236675  10.222   6.133   0.257  0.9060  0.1734 -2.0977
10280SOL     OW36676   9.620   9.153   8.467  0.0732  0.0669 -0.0271
10280SOL    HW136677   9.646   9.199   8.387 -1.4282 -0.1734 -0.6844
10280SOL    HW236678   9.579   9.220   8.521  1.1443  0.2430  0.6139
10281SOL     OW36679   8.371   6.074  11.654  0.2287 -0.5584 -0.0491
10281SOL    HW136680   8.320   6.000  11.623 -1.7622  1.3714 -1.7597
10281SOL    HW236681   8.312   6.119  11.716  1.7303 -0.8312  1.6603
10282SOL     OW36682   0.539   9.347   5.519 -0.6308  0.2758 -0.1893
10282SOL    HW136683   0.602   9.404   5.563  0.0040 -1.5524  1.3799
10282SOL    HW236684   0.481   9.317   5.588 -0.7711 -1.2099 -0.9161
10283SOL     OW36685   4.610   1.976   9.252 -0.1864  0.3611 -0.1708
10283SOL    HW136686   4.583   1.896   9.297  1.1269  1.1119  2.0906
10283SOL    HW236687   4.704   1.967   9.240 -0.4189  0.3642 -2.5803
10284SOL     OW36688   3.499   3.234   9.451  0.1541 -0.3209 -0.1246
10284SOL    HW136689   3.437   3.280   9.508 -1.2869 -2.3799  0.1020
10284SOL    HW236690   3.532   3.301   9.391  1.3019  1.8466  2.6781
10285SOL     OW36691   0.327   1.595   5.410  0.3168 -0.3993 -0.0692
10285SOL    HW136692   0.333   1.578   5.316  1.2124  0.5488 -0.2040
10285SOL    HW236693   0.406   1.556   5.447 -0.0871 -0.8724  0.3209
10286SOL     OW36694   3.487   5.559  10.226  0.3571 -0.1365 -0.4284
10286SOL    HW136695   3.392   5.555  10.231  0.3430  0.7972  0.6480
10286SOL    HW236696   3.506   5.603  10.144 -0.1447 -0.1367 -0.5434
10287SOL     OW36697   3.846   7.098   6.809  0.1717  0.2913  0.3385
10287SOL    HW136698   3.940   7.115   6.821  0.0759  0.2377  1.2408
10287SOL    HW236699   3.826   7.031   6.874 -0.0535 -1.2811 -1.2863
10288SOL     OW36700   8.195   2.682   1.362  0.0562  0.5727  0.6550
10288SOL    HW136701   8.179   2.604   1.309 -2.2607  0.2092  1.7375
10288SOL    HW236702   8.270   2.724   1.321  0.6400 -1.5947 -0.6660
10289SOL     OW36703   0.063   2.611   2.220 -0.5680  0.0332 -0.5015
10289SOL    HW136704   0.074   2.652   2.134  0.0985 -1.5576 -1.2158
10289SOL    HW236705  -0.024   2.571   2.216  0.4400 -2.2531 -1.4849
10290SOL     OW36706   4.370  11.320   4.622  0.0840  0.3068  0.2558
10290SOL    HW136707   4.466  11.322   4.622  0.1612 -0.7450 -1.4775
10290SOL    HW236708   4.344  11.389   4.561 -0.1802 -0.3367 -0.3794
10291SOL     OW36709   5.047   4.889   9.932  0.1800  0.5950  0.0705
10291SOL    HW136710   5.032   4.917   9.842  0.2171 -0.6704 -0.3514
10291SOL    HW236711   5.083   4.801   9.924 -0.1672  0.3157  1.3300
10292SOL     OW36712   7.987   0.378   3.203 -0.3789  0.0410  0.0886
10292SOL    HW136713   8.059   0.361   3.264 -0.0720  0.6160 -0.1055
10292SOL    HW236714   8.015   0.455   3.154 -0.5964 -0.4502 -0.8298
10293SOL     OW36715   3.918   5.015   7.633 -0.2046  0.0410 -0.1824
10293SOL    HW136716   3.869   4.986   7.710 -0.4924 -1.3720 -0.8777
10293SOL    HW236717   3.857   5.068   7.583 -0.0201  0.9561  0.5386
10294SOL     OW36718   5.609   0.703   0.079 -0.4857  0.9239  0.0985
10294SOL    HW136719   5.683   0.666   0.127 -2.9988 -0.1018  3.6431
10294SOL    HW236720   5.577   0.630   0.025 -0.1987  0.7054  0.2224
10295SOL     OW36721   0.904   5.455   7.698 -0.2537  0.0411  0.4092
10295SOL    HW136722   0.825   5.410   7.729 -0.8502  0.4244 -0.4918
10295SOL    HW236723   0.932   5.405   7.622  0.8454 -0.5445  1.1850
10296SOL     OW36724   5.865   6.199   4.194 -0.0102 -0.0210 -0.1914
10296SOL    HW136725   5.903   6.124   4.239  1.1558  0.0906 -0.9551
10296SOL    HW236726   5.870   6.177   4.101  0.9746  1.2734 -0.4733
10297SOL     OW36727   1.560   7.677   7.684  0.1154 -0.0117 -0.0876
10297SOL    HW136728   1.500   7.616   7.641  0.5125 -0.0060 -0.6634
10297SOL    HW236729   1.597   7.728   7.612  0.3209  0.4226  0.3277
10298SOL     OW36730   4.214  11.454   3.552 -0.3533 -0.1467  0.5298
10298SOL    HW136731   4.299  11.483   3.585 -0.7746  1.4909  0.2650
10298SOL    HW236732   4.187  11.386   3.614  1.8937 -1.9982 -0.3675
10299SOL     OW36733  12.318   7.391   2.172 -0.7203 -0.0593 -0.3352
10299SOL    HW136734  12.363   7.315   2.135  0.4822 -0.5670  2.0278
10299SOL    HW236735  12.254   7.354   2.232  0.5960  0.7200  1.6579
10300SOL     OW36736   0.690   3.839   1.718 -0.8795 -0.3335  0.1250
10300SOL    HW136737   0.611   3.887   1.744 -1.3405  0.5133 -2.5134
10300SOL    HW236738   0.759   3.906   1.714 -0.4252 -0.7512  0.7379
10301SOL     OW36739  10.044   4.931   3.093  0.1449  0.3665 -0.5485
10301SOL    HW136740  10.084   4.924   3.180  1.0198  1.7234 -0.8095
10301SOL    HW236741  10.014   5.022   3.089  0.2646  0.3593 -1.7287
10302SOL     OW36742   1.810  11.033   2.135 -0.3731 -0.3731  0.0998
10302SOL    HW136743   1.829  10.939   2.134 -2.1557 -0.8265  2.1243
10302SOL    HW236744   1.891  11.073   2.165  0.9179 -1.0449 -2.2183
10303SOL     OW36745   5.354  10.234   3.081  0.4020 -0.2532  0.1307
10303SOL    HW136746   5.296  10.174   3.035 -0.8275 -0.7619  2.2219
10303SOL    HW236747   5.301  10.311   3.099  0.7976 -0.1238  0.8007
10304SOL     OW36748   2.312   0.046   7.067 -0.0702 -0.1564 -0.2373
10304SOL    HW136749   2.280   0.115   7.008 -1.6843 -0.7744 -0.1408
10304SOL    HW236750   2.275  -0.035   7.031 -0.3705 -0.6516  1.1428
10305SOL     OW36751   3.893  10.092  11.396  0.3792 -0.2518 -0.2265
10305SOL    HW136752   3.895  10.015  11.453 -0.6724 -0.0316  0.1162
10305SOL    HW236753   3.808  10.087  11.352  0.6507  0.2733 -0.8295
10306SOL     OW36754   3.178   1.675   5.776  0.7032 -0.1731  0.0370
10306SOL    HW136755   3.194   1.582   5.791  0.0798 -0.4402 -0.8132
10306SOL    HW236756   3.127   1.703   5.852 -1.1721 -1.1324 -0.7958
10307SOL     OW36757   5.938   1.303   3.294 -0.2492  0.6822 -0.3961
10307SOL    HW136758   5.969   1.392   3.278  2.1518  0.4464  2.0865
10307SOL    HW236759   5.885   1.310   3.374  1.2296 -0.2522  0.7131
10308SOL     OW36760   5.694   3.408   3.323  0.0638  0.2807  0.3316
10308SOL    HW136761   5.664   3.468   3.255  2.6647  0.8047 -0.4602
10308SOL    HW236762   5.647   3.326   3.305  0.3203  0.5575 -1.7988
10309SOL     OW36763  10.676   6.483   3.920 -0.2146  0.1799  0.1000
10309SOL    HW136764  10.699   6.573   3.945 -1.5510  1.0386 -1.5529
10309SOL    HW236765  10.732   6.465   3.844  0.3323 -0.5729  0.6620
10310SOL     OW36766   9.541   1.787   1.348 -0.0595  0.0309  0.1691
10310SOL    HW136767   9.566   1.694   1.350 -0.5184 -0.0868  0.3891
10310SOL    HW236768   9.446   1.787   1.356 -0.2484  0.4440 -1.5580
10311SOL     OW36769   7.444   0.881   7.937  0.3059  0.2734 -0.2986
10311SOL    HW136770   7.508   0.829   7.986 -0.1781 -0.0710 -0.0206
10311SOL    HW236771   7.380   0.908   8.003  0.3919  0.9711 -0.4992
10312SOL     OW36772   2.460   2.561   3.463 -0.3090  0.1672 -1.4442
10312SOL    HW136773   2.407   2.637   3.441 -0.6707 -0.0175 -1.2276
10312SOL    HW236774   2.466   2.511   3.382 -1.8195 -0.6237 -1.1024
10313SOL     OW36775  10.785   0.639   1.670  0.1226 -0.0502 -0.0870
10313SOL    HW136776  10.746   0.662   1.586 -0.2481  0.2338  0.1519
10313SOL    HW236777  10.736   0.563   1.700  0.8115 -0.6647 -0.5059
10314SOL     OW36778   0.779  10.206  10.162 -0.3430  0.0858 -0.1620
10314SOL    HW136779   0.747  10.162  10.083  0.0106  0.2196 -0.3882
10314SOL    HW236780   0.701  10.234  10.208 -0.6108 -1.3617  0.3302
10315SOL     OW36781   5.949  11.078   5.481  0.4599 -0.2244  0.0547
10315SOL    HW136782   5.924  10.985   5.477 -1.1758  0.2144 -1.1172
10315SOL    HW236783   5.998  11.093   5.400  2.0102 -0.3696  0.9324
10316SOL     OW36784   7.177   1.263  11.750 -0.3772  0.2863  0.1951
10316SOL    HW136785   7.187   1.174  11.784  0.0237  0.3910  0.3675
10316SOL    HW236786   7.158   1.252  11.657  1.3346  0.0423 -0.1645
10317SOL     OW36787   0.007   7.473   6.907  0.6411  1.1774 -0.0366
10317SOL    HW136788   0.094   7.473   6.867 -0.4634 -1.4830 -2.7782
10317SOL    HW236789   0.012   7.408   6.978  0.4224 -0.6028 -1.5861
10318SOL     OW36790   1.068   8.762   4.159  0.0302  0.7045  0.5422
10318SOL    HW136791   1.161   8.747   4.140  0.2748  1.4892  1.0660
10318SOL    HW236792   1.050   8.706   4.234  0.2691  1.0888  0.8884
10319SOL     OW36793  11.711   9.429  12.072  0.0334 -0.0528 -0.3073
10319SOL    HW136794  11.703   9.437  11.977  2.9262 -0.3060 -0.6557
10319SOL    HW236795  11.629   9.388  12.100 -0.5156 -0.7846 -2.7929
10320SOL     OW36796   0.763   1.623   8.625 -0.5058 -0.0465 -0.0715
10320SOL    HW136797   0.789   1.652   8.537 -0.7027 -1.6112 -0.6819
10320SOL    HW236798   0.845   1.611   8.672 -0.4332  2.7426  0.6829
10321SOL     OW36799   3.114   6.992   6.427  0.1788 -0.3212  0.3220
10321SOL    HW136800   3.120   6.952   6.340  0.9079  1.4000 -0.4596
10321SOL    HW236801   3.198   7.035   6.439 -0.3718  0.5074  1.3588
10322SOL     OW36802  10.549   0.522  11.706 -0.3024 -0.4270 -0.3836
10322SOL    HW136803  10.469   0.481  11.740  0.5366 -0.2674  1.9759
10322SOL    HW236804  10.539   0.615  11.727  0.3313 -0.3584 -0.3678
10323SOL     OW36805   7.281  11.621   7.518  0.5111 -0.3404  0.4297
10323SOL    HW136806   7.209  11.593   7.574  0.2426 -0.2485  0.1338
10323SOL    HW236807   7.240  11.639   7.433  0.7921  0.2705  0.4199
10324SOL     OW36808  11.910   6.820   9.226 -0.1315 -0.5668 -0.2077
10324SOL    HW136809  11.818   6.833   9.203 -0.1637 -0.3682  0.0344
10324SOL    HW236810  11.950   6.787   9.145 -0.4060 -0.6154 -0.3246
10325SOL     OW36811   5.790   0.380   7.462  0.0947 -0.1418 -0.4204
10325SOL    HW136812   5.853   0.449   7.440 -0.8234  0.9989  0.3741
10325SOL    HW236813   5.842   0.301   7.470  1.0888  0.2925 -2.0966
10326SOL     OW36814   8.967   0.495   8.621  0.0593 -0.6327 -0.1587
10326SOL    HW136815   9.057   0.526   8.617  0.3491 -0.5158  3.4527
10326SOL    HW236816   8.915   0.571   8.596  0.9336 -0.2635 -0.9041
10327SOL     OW36817   1.744   9.098   2.266  0.2441 -0.5970 -0.1997
10327SOL    HW136818   1.746   9.187   2.299 -0.4501 -0.0157 -1.6132
10327SOL    HW236819   1.833   9.066   2.275  0.3859  0.0492  0.7870
10328SOL     OW36820   7.947   2.038   3.090 -0.5159  0.6185  0.6307
10328SOL    HW136821   7.975   2.113   3.143  0.2481  1.1037 -0.4364
10328SOL    HW236822   8.018   1.974   3.101 -1.0480  0.1228  1.3369
10329SOL     OW36823   3.297   1.504   3.670  0.4205 -0.1648 -0.3018
10329SOL    HW136824   3.241   1.570   3.629 -0.0397 -1.3405 -1.6334
10329SOL    HW236825   3.346   1.552   3.737  0.2279  1.5472 -1.3412
10330SOL     OW36826   5.690   4.182   3.848 -0.0074  0.3822 -0.1395
10330SOL    HW136827   5.727   4.120   3.911 -0.1719 -0.7832 -1.1589
10330SOL    HW236828   5.596   4.171   3.855 -0.0697  1.0400  0.1660
10331SOL     OW36829   7.036   9.122   3.145  0.3423 -0.4283  0.3528
10331SOL    HW136830   7.117   9.126   3.196 -0.2416  0.1385  1.2476
10331SOL    HW236831   7.060   9.071   3.067  1.6917  0.1878  0.3363
10332SOL     OW36832   6.271   0.503   0.509  0.2835 -0.3557 -0.7942
10332SOL    HW136833   6.215   0.459   0.572  1.3252 -0.9700 -0.2714
10332SOL    HW236834   6.354   0.515   0.555  0.6798  0.2713 -1.6437
10333SOL     OW36835   7.272   7.625  12.135 -0.3298  0.0053 -0.0401
10333SOL    HW136836   7.220   7.546  12.122 -0.3439  0.1313 -0.8386
10333SOL    HW236837   7.238   7.664  12.215 -0.5857 -0.5947  0.1442
10334SOL     OW36838   9.449   2.971   7.272 -0.3896 -0.1913 -0.3780
10334SOL    HW136839   9.419   2.886   7.305  0.2338 -0.3600 -0.2254
10334SOL    HW236840   9.505   2.950   7.197 -0.3227  0.0880 -0.4087
10335SOL     OW36841   4.492   4.157   7.223 -1.1881  0.1328 -0.0082
10335SOL    HW136842   4.470   4.199   7.139 -1.2012 -0.2357 -0.1942
10335SOL    HW236843   4.458   4.217   7.289 -0.2049  0.9799 -0.2369
10336SOL     OW36844   2.878   0.790   0.790  0.1756  0.4796  0.2894
10336SOL    HW136845   2.971   0.781   0.770  0.1230 -1.1202  0.5752
10336SOL    HW236846   2.835   0.783   0.705  0.2351 -0.9251  0.3440
10337SOL     OW36847   9.047   2.375   8.449 -0.6072 -0.5101 -0.7397
10337SOL    HW136848   8.987   2.447   8.430 -1.0714 -0.4301  0.8322
10337SOL    HW236849   9.065   2.383   8.543  0.6873 -1.4343 -0.8797
10338SOL     OW36850  10.342   8.137   2.822 -0.0803  0.5075  0.9329
10338SOL    HW136851  10.359   8.047   2.851  0.4572  0.1771 -0.3435
10338SOL    HW236852  10.289   8.175   2.892 -0.5470 -0.8865  1.3715
10339SOL     OW36853   2.122  10.237   5.714 -0.1444 -0.5032 -0.1445
10339SOL    HW136854   2.126  10.149   5.749  0.7848 -0.9136 -1.2158
10339SOL    HW236855   2.122  10.225   5.619 -1.9448  0.5872 -0.3347
10340SOL     OW36856   7.962   3.459   7.189 -0.8220  0.4251  0.0662
10340SOL    HW136857   8.052   3.444   7.220 -0.0299 -1.0160 -2.6204
10340SOL    HW236858   7.971   3.534   7.129 -1.5250  0.5712  0.1413
10341SOL     OW36859   1.596   3.478   5.644 -0.6757  0.2851  0.2050
10341SOL    HW136860   1.516   3.465   5.695 -0.1201 -3.0587  0.5016
10341SOL    HW236861   1.662   3.501   5.709 -0.6259 -0.9085  0.6155
10342SOL     OW36862  11.963   4.718  12.259  0.3104  0.4465 -0.1304
10342SOL    HW136863  11.987   4.625  12.260  1.4947  0.7093 -1.0903
10342SOL    HW236864  11.940   4.736  12.168  1.9222  1.4904 -0.3818
10343SOL     OW36865   1.559   7.392   6.760 -0.5465  0.2174  0.0113
10343SOL    HW136866   1.468   7.397   6.788 -0.3437  0.1431  0.7173
10343SOL    HW236867   1.557   7.409   6.666 -1.1341  1.5775  0.2548
10344SOL     OW36868   6.112   4.162   3.249 -0.3232 -0.1415  0.3237
10344SOL    HW136869   6.073   4.248   3.232 -2.0670 -1.2592 -1.8975
10344SOL    HW236870   6.037   4.104   3.261  0.7752 -1.6526  0.1630
10345SOL     OW36871   7.910   5.159   8.309 -0.6552  0.6298  0.4348
10345SOL    HW136872   7.981   5.196   8.361 -0.7469  1.9783 -0.3551
10345SOL    HW236873   7.850   5.120   8.373  0.6624 -0.3255  1.1212
10346SOL     OW36874   2.504   1.380   4.188  0.0839  0.0370  0.1999
10346SOL    HW136875   2.492   1.290   4.215  2.7835 -0.4358  0.1781
10346SOL    HW236876   2.440   1.430   4.238 -0.9848 -1.8050  0.7374
10347SOL     OW36877   0.458   9.997   1.388  0.1716  0.0426 -0.6422
10347SOL    HW136878   0.375  10.045   1.393 -0.6358 -1.2900 -0.7364
10347SOL    HW236879   0.522  10.063   1.360 -1.1409  0.7822 -2.0774
10348SOL     OW36880   6.242  10.831   6.397 -0.0254  0.3765  0.6110
10348SOL    HW136881   6.250  10.837   6.302 -1.8737  1.3822  0.4559
10348SOL    HW236882   6.317  10.880   6.431  1.2304 -0.8615 -0.2732
10349SOL     OW36883   3.240  12.097  10.789 -0.0228 -0.1823  0.3138
10349SOL    HW136884   3.287  12.014  10.778 -1.0974 -0.6921 -0.6709
10349SOL    HW236885   3.246  12.116  10.882  0.1666 -1.4232  0.5721
10350SOL     OW36886  11.528   5.899   4.288 -0.2649 -0.3176 -0.1272
10350SOL    HW136887  11.485   5.867   4.208 -0.9365 -0.1611  0.1619
10350SOL    HW236888  11.463   5.957   4.328 -0.5255 -1.5466  1.2962
10351SOL     OW36889   6.132   1.620   9.061 -0.4355  0.5222 -0.3971
10351SOL    HW136890   6.046   1.599   9.097  0.2603 -2.7236 -0.3202
10351SOL    HW236891   6.184   1.647   9.137 -1.4610  3.0530 -0.5258
10352SOL     OW36892  11.466  11.517   8.738  0.3156  0.0581 -0.3469
10352SOL    HW136893  11.412  11.595   8.753  0.7085  0.0313  1.3609
10352SOL    HW236894  11.426  11.450   8.793  1.9081 -0.0308  0.7447
10353SOL     OW36895   5.257   9.036   3.124 -0.0670  0.3253 -0.5174
10353SOL    HW136896   5.266   9.091   3.046  1.4032 -0.6458 -1.0785
10353SOL    HW236897   5.302   9.085   3.193  0.5717  0.1759 -0.8261
10354SOL     OW36898   7.355   1.507   3.096 -0.1135  0.2614  0.5794
10354SOL    HW136899   7.436   1.496   3.146 -1.1522 -0.9489  2.0868
10354SOL    HW236900   7.312   1.583   3.135 -0.9749 -0.7468  1.6659
10355SOL     OW36901   5.164   7.673   3.796  0.3272 -0.1488 -0.0339
10355SOL    HW136902   5.246   7.661   3.844  0.6182 -0.2424 -0.5508
10355SOL    HW236903   5.189   7.666   3.704 -0.0338  1.1683 -0.2530
10356SOL     OW36904   8.913   3.745   9.625 -0.1570  0.2101  1.2462
10356SOL    HW136905   8.905   3.744   9.721  0.7783 -2.0090  1.3419
10356SOL    HW236906   8.935   3.836   9.605  1.0093  0.4394  3.2643
10357SOL     OW36907  11.213   3.497   3.959  0.3090 -0.2438  0.3441
10357SOL    HW136908  11.236   3.464   4.046 -1.0747  0.9361  1.1930
10357SOL    HW236909  11.213   3.419   3.903  0.4968 -1.1312  1.5401
10358SOL     OW36910   4.561  12.313   4.549  0.2428 -0.0279  0.2803
10358SOL    HW136911   4.646  12.318   4.593  0.7463  0.9771 -0.7327
10358SOL    HW236912   4.525  12.401   4.556 -0.3324 -0.2313 -0.0341
10359SOL     OW36913   8.795   6.712   8.608  0.1202  0.1901  0.0366
10359SOL    HW136914   8.710   6.668   8.615  0.4143 -0.3601  0.1849
10359SOL    HW236915   8.777   6.792   8.557  0.0114 -1.2793 -2.3730
10360SOL     OW36916  11.992   4.740   2.167 -0.3390 -0.1903  0.0863
10360SOL    HW136917  11.952   4.779   2.245 -0.1370 -1.5492  0.8846
10360SOL    HW236918  12.043   4.812   2.129 -2.5347  1.2738 -0.3169
10361SOL     OW36919  11.403  12.077   7.956 -0.6744  0.0104 -0.0024
10361SOL    HW136920  11.370  12.140   8.020  1.6681 -0.2471  1.5533
10361SOL    HW236921  11.353  11.997   7.973  1.0571 -0.5998  2.8138
10362SOL     OW36922   6.899   7.313   0.327 -0.2974 -0.4647 -0.3111
10362SOL    HW136923   6.856   7.391   0.363 -1.4512 -1.1744 -0.0853
10362SOL    HW236924   6.946   7.345   0.250  0.0076  0.6102  0.3081
10363SOL     OW36925   7.046   0.703  11.746  0.9746 -0.0132  0.0326
10363SOL    HW136926   6.992   0.624  11.752 -2.3485  2.0963  1.0228
10363SOL    HW236927   7.103   0.700  11.822  0.5458 -1.2089  0.3292
10364SOL     OW36928   6.911   2.920   0.246  0.5493  0.3834 -0.0448
10364SOL    HW136929   6.857   2.931   0.168 -0.1527  1.4700  0.5646
10364SOL    HW236930   6.855   2.950   0.318  1.2757 -0.3338  0.8447
10365SOL     OW36931   0.132   1.962   6.234  0.1443 -0.3302 -0.3694
10365SOL    HW136932   0.176   1.959   6.319  1.0921 -0.5154 -0.8497
10365SOL    HW236933   0.202   1.983   6.172 -0.2006 -1.9195 -1.3349
10366SOL     OW36934  10.505   9.071   2.466 -0.2974 -0.0514  0.6138
10366SOL    HW136935  10.415   9.050   2.442 -0.1722  0.2510 -0.1363
10366SOL    HW236936  10.519   9.158   2.430  0.8225 -0.7505 -0.7317
10367SOL     OW36937   6.686   0.261   7.570  0.1138 -0.6465 -0.4341
10367SOL    HW136938   6.677   0.298   7.658 -1.6680  0.8631 -1.1791
10367SOL    HW236939   6.731   0.329   7.520 -0.6078 -0.6711 -1.1335
10368SOL     OW36940   5.901   0.888  10.119  0.6792 -0.1622 -0.0129
10368SOL    HW136941   5.882   0.901  10.212  0.8582  0.2734 -0.0354
10368SOL    HW236942   5.828   0.835  10.087 -0.2566  1.0895  0.0027
10369SOL     OW36943   4.999   9.901   5.734  0.3168  0.0189 -0.0987
10369SOL    HW136944   5.052   9.975   5.706 -0.7189  0.8042 -0.0457
10369SOL    HW236945   5.027   9.883   5.824  1.2914 -0.3424 -0.4546
10370SOL     OW36946   6.538  10.407  12.321 -0.4641 -0.8535 -0.3951
10370SOL    HW136947   6.511  10.315  12.319  1.3105 -1.6994  3.7020
10370SOL    HW236948   6.459  10.454  12.345 -1.1055 -1.4594 -1.2492
10371SOL     OW36949  12.161   7.719   3.079 -0.0388  0.1358 -0.3187
10371SOL    HW136950  12.245   7.693   3.041 -0.0060  0.5574 -0.5387
10371SOL    HW236951  12.105   7.643   3.065  0.2956 -0.1349 -0.2055
10372SOL     OW36952   4.582   0.655   8.124 -0.6078 -0.3771 -0.0021
10372SOL    HW136953   4.654   0.629   8.181  1.5412 -1.2081 -2.8527
10372SOL    HW236954   4.568   0.748   8.143  0.3594 -0.4964  1.4478
10373SOL     OW36955  12.256   9.891   6.948 -0.3900  0.7579 -0.1656
10373SOL    HW136956  12.346   9.878   6.978  0.4667 -1.3190 -3.1953
10373SOL    HW236957  12.256   9.979   6.912 -0.1056  1.4032  1.3104
10374SOL     OW36958   9.540   5.914  10.896  0.2230 -0.0362  0.3294
10374SOL    HW136959   9.621   5.864  10.903 -0.9591 -1.8704  1.5181
10374SOL    HW236960   9.509   5.898  10.806  1.9554  2.0634 -0.7415
10375SOL     OW36961  12.077  11.580   5.300  0.3310 -0.1266 -0.0951
10375SOL    HW136962  12.100  11.522   5.373 -0.3945  0.1131  0.3396
10375SOL    HW236963  11.987  11.557   5.279  0.3285  0.2467 -0.4973
10376SOL     OW36964   2.575   6.307   7.650 -0.3960  0.2038  0.2100
10376SOL    HW136965   2.484   6.329   7.670 -0.2158  0.3269  0.9357
10376SOL    HW236966   2.570   6.255   7.570 -0.9377  1.7929 -0.8279
10377SOL     OW36967   7.815   4.728   2.955 -0.0911 -0.2020 -0.3538
10377SOL    HW136968   7.837   4.737   3.047  1.0402 -0.6860 -0.5700
10377SOL    HW236969   7.719   4.729   2.954 -0.1476 -1.4498  0.9543
10378SOL     OW36970  11.268   3.164   8.551  0.1620  0.3141 -0.1231
10378SOL    HW136971  11.222   3.228   8.497 -0.7713 -1.9256 -2.1505
10378SOL    HW236972  11.310   3.106   8.488  0.3055 -1.5469  1.6079
10379SOL     OW36973   8.573   3.848  11.801 -0.4578  0.2450 -0.1687
10379SOL    HW136974   8.613   3.890  11.877 -0.8866  1.5400 -0.6437
10379SOL    HW236975   8.479   3.844  11.822 -0.6865  1.2938 -0.9279
10380SOL     OW36976   4.914   2.682   0.203  0.4659 -0.0471  0.6968
10380SOL    HW136977   4.999   2.698   0.162  0.0258  0.3120 -0.1035
10380SOL    HW236978   4.895   2.763   0.251  0.9037 -0.4021  1.4685
10381SOL     OW36979  11.543   5.597   3.612  0.0028  0.2348  0.0858
10381SOL    HW136980  11.499   5.594   3.527  0.7754  1.2362 -0.3713
10381SOL    HW236981  11.621   5.543   3.600 -0.3488 -0.3596  0.4461
10382SOL     OW36982   6.195   6.177   8.574 -0.2530 -0.4766 -0.0447
10382SOL    HW136983   6.138   6.241   8.617  0.7302  0.5249 -0.1878
10382SOL    HW236984   6.217   6.218   8.490 -0.0108 -1.2368 -0.3612
10383SOL     OW36985   3.488   3.775   8.843  0.2126 -0.1714  0.5494
10383SOL    HW136986   3.565   3.807   8.795 -0.3344  1.5270  0.7407
10383SOL    HW236987   3.418   3.776   8.778 -0.0837  0.1837  0.8758
10384SOL     OW36988   3.201  10.428   8.566  0.1018 -0.2275 -0.2987
10384SOL    HW136989   3.214  10.520   8.546  0.3366  0.0655  1.0518
10384SOL    HW236990   3.277  10.404   8.619  1.4660 -1.9658 -2.8307
10385SOL     OW36991   1.227  11.892   9.093 -0.0920  0.0610  0.0927
10385SOL    HW136992   1.151  11.833   9.097  0.7886 -1.1973 -1.0640
10385SOL    HW236993   1.267  11.884   9.180  1.7200 -3.4950 -0.8841
10386SOL     OW36994   6.115   0.871   6.664 -0.0524 -0.3418  0.3122
10386SOL    HW136995   6.080   0.904   6.747 -0.0207 -1.5874  0.8583
10386SOL    HW236996   6.196   0.826   6.689 -1.1975 -2.7742  0.0273
10387SOL     OW36997   5.439   6.962  10.119 -0.0371 -0.2753 -0.0973
10387SOL    HW136998   5.424   6.960  10.025 -2.9070  1.3588  0.1986
10387SOL    HW236999   5.360   6.923  10.157  0.3771  0.4363  1.6210
10388SOL     OW37000   4.744   1.811   3.502  0.1433  0.1100 -0.4241
10388SOL    HW137001   4.827   1.796   3.546  0.3960  1.5401 -0.3839
10388SOL    HW237002   4.729   1.905   3.508  0.4258  0.5029 -3.7676
10389SOL     OW37003   8.347   2.509  12.310 -0.0636 -0.2396 -0.2285
10389SOL    HW137004   8.432   2.548  12.288  0.1040 -0.9859 -0.9982
10389SOL    HW237005   8.366   2.415  12.318 -0.6040 -0.2795  0.7569
10390SOL     OW37006   6.952   1.230   1.633  0.5408 -0.4491  0.4845
10390SOL    HW137007   7.022   1.233   1.698  0.4486  1.0266  0.5577
10390SOL    HW237008   6.995   1.205   1.551  0.9920 -0.4196  0.7110
10391SOL     OW37009   0.869   3.176  10.477  0.0516  0.2341 -0.5324
10391SOL    HW137010   0.812   3.160  10.402 -0.8477  0.1120  0.1459
10391SOL    HW237011   0.895   3.088  10.506 -0.6485  0.2028  0.0505
10392SOL     OW37012   4.432   0.103  11.844  0.0581 -0.1303  0.3796
10392SOL    HW137013   4.468   0.020  11.875 -1.8515 -1.2871 -0.2463
10392SOL    HW237014   4.411   0.086  11.752  0.3791  1.3318  0.0157
10393SOL     OW37015   8.203   4.253  11.706 -0.1428 -0.4103 -0.0748
10393SOL    HW137016   8.206   4.253  11.610 -0.0778 -0.6919 -0.0753
10393SOL    HW237017   8.285   4.210  11.732 -1.1592 -2.4145  0.0485
10394SOL     OW37018   7.602   6.654   0.672 -0.5043  0.5498 -0.0439
10394SOL    HW137019   7.613   6.731   0.616 -0.6196 -0.2413 -1.1828
10394SOL    HW237020   7.514   6.664   0.710 -1.2739  0.0815 -1.6347
10395SOL     OW37021   1.957   8.262  10.007  0.0819 -0.3762  0.2470
10395SOL    HW137022   1.875   8.230   9.970  1.0548 -2.2562 -0.4307
10395SOL    HW237023   1.987   8.329   9.944 -1.8219  1.8302  1.5174
10396SOL     OW37024   9.277   4.243   8.387  0.4928 -0.3004 -0.0599
10396SOL    HW137025   9.195   4.251   8.435  0.1087  1.8507 -0.9522
10396SOL    HW237026   9.265   4.166   8.331 -0.6811 -0.3677  0.2763
10397SOL     OW37027  12.281   1.027   2.000  0.2641  0.2725 -0.1700
10397SOL    HW137028  12.257   1.050   2.090  0.2942  0.4871 -0.2177
10397SOL    HW237029  12.279   0.931   1.999 -0.1571  0.2759 -0.0521
10398SOL     OW37030   2.169  10.066   6.325  0.1623 -0.3918  0.3085
10398SOL    HW137031   2.210  10.149   6.300  0.8354 -0.4935  1.0223
10398SOL    HW237032   2.213  10.042   6.406  0.6691 -1.9543 -0.4062
10399SOL     OW37033  11.530   2.735   3.604 -0.0324  0.4504 -0.0249
10399SOL    HW137034  11.588   2.688   3.664 -1.0018 -0.9546 -0.1352
10399SOL    HW237035  11.499   2.668   3.543 -3.0162  0.7532  1.0053
10400SOL     OW37036   9.738   0.300   0.193 -0.1352 -0.5101  0.4431
10400SOL    HW137037   9.773   0.306   0.104 -1.0850  3.0058  0.1645
10400SOL    HW237038   9.664   0.240   0.185 -0.2740 -0.1695 -1.1993
10401SOL     OW37039   4.907   6.173   2.418 -0.5200  0.1124  0.2535
10401SOL    HW137040   4.874   6.170   2.508  0.1924  0.2939  0.5251
10401SOL    HW237041   4.960   6.252   2.414  0.8201 -0.7509  0.1706
10402SOL     OW37042   6.260   0.536   9.080  0.3626  0.3724 -0.5908
10402SOL    HW137043   6.172   0.517   9.047  0.4641 -0.1767 -0.5566
10402SOL    HW237044   6.319   0.484   9.025  0.7224  1.1918 -0.9942
10403SOL     OW37045   9.774   6.294   3.964 -0.1504 -0.6748  0.1931
10403SOL    HW137046   9.798   6.203   3.981 -0.7751 -0.7157  0.8821
10403SOL    HW237047   9.726   6.321   4.042  2.2011  1.0488  1.1889
10404SOL     OW37048   1.849  11.906  10.850 -0.6124  0.5402 -0.3463
10404SOL    HW137049   1.810  11.825  10.883 -1.0082  0.5627 -0.7490
10404SOL    HW237050   1.894  11.944  10.926  0.1564 -0.3940 -0.3083
10405SOL     OW37051   0.986   1.194   4.119 -0.0355 -0.2072  0.0864
10405SOL    HW137052   0.929   1.119   4.136  1.8254 -1.8995 -0.7535
10405SOL    HW237053   0.982   1.207   4.025  1.8333 -1.1184 -0.1465
10406SOL     OW37054   4.352   7.798   8.340 -0.5364  0.1728 -0.0298
10406SOL    HW137055   4.273   7.841   8.374  0.0878  0.7637  0.7167
10406SOL    HW237056   4.347   7.709   8.374 -1.2049  0.0138 -0.5262
10407SOL     OW37057  11.804   9.843  10.063  0.0518  0.2537 -0.3727
10407SOL    HW137058  11.837   9.898  10.134 -0.5749  0.7909 -0.4926
10407SOL    HW237059  11.854   9.871   9.986 -1.1647  1.5909 -0.7151
10408SOL     OW37060   9.908   8.147  11.438  0.1876 -0.2500 -0.0249
10408SOL    HW137061   9.846   8.152  11.511 -0.2812 -2.9242 -0.1446
10408SOL    HW237062   9.853   8.145  11.360  0.5284 -0.4084 -0.2619
10409SOL     OW37063   7.757  11.823   5.422  0.3894  0.0275  0.2721
10409SOL    HW137064   7.813  11.747   5.405 -0.9544 -1.1692  0.9024
10409SOL    HW237065   7.709  11.799   5.502  0.7775  2.0603  1.1612
10410SOL     OW37066   3.459   1.451   8.599  0.1493  0.6867 -0.0051
10410SOL    HW137067   3.421   1.537   8.582 -0.9464 -0.1595 -2.2789
10410SOL    HW237068   3.552   1.462   8.579  0.0837  1.3992  0.0388
10411SOL     OW37069  11.947   2.843   8.663  0.7968  0.1741 -0.5128
10411SOL    HW137070  11.913   2.926   8.630 -0.6018 -0.0833  0.2375
10411SOL    HW237071  11.889   2.820   8.736  1.4379 -1.2373 -0.4165
10412SOL     OW37072   7.431   9.896   0.057 -0.0181 -0.6196 -0.0032
10412SOL    HW137073   7.505   9.885  -0.001  0.0364 -2.7133  0.3943
10412SOL    HW237074   7.466   9.881   0.145 -0.6026 -0.0193  0.3506
10413SOL     OW37075   8.461  10.346   1.256 -0.1064 -0.3655  0.2016
10413SOL    HW137076   8.488  10.314   1.170 -1.8839 -0.1739 -0.4634
10413SOL    HW237077   8.407  10.423   1.237  0.2150  0.2217  1.5487
10414SOL     OW37078  11.490  11.901   8.934  0.0335 -0.0396  0.1599
10414SOL    HW137079  11.496  11.982   8.984  0.8792 -0.9859  1.7009
10414SOL    HW237080  11.397  11.881   8.930 -0.2048  1.1933 -0.5643
10415SOL     OW37081   4.095  11.870   5.305 -0.1199  0.7787  0.5530
10415SOL    HW137082   4.150  11.869   5.383 -0.3090 -0.8843  0.6842
10415SOL    HW237083   4.146  11.918   5.240  0.4468  1.3292  1.3854
10416SOL     OW37084   5.564   6.829   3.377 -0.2737 -0.6504 -0.2011
10416SOL    HW137085   5.539   6.912   3.338 -2.7615 -1.0004  0.4664
10416SOL    HW237086   5.521   6.828   3.462  0.3981 -2.2695  0.1683
10417SOL     OW37087   3.272   4.268  10.309  0.4482  0.2260  0.2702
10417SOL    HW137088   3.321   4.205  10.257  1.8347  0.9964  0.6017
10417SOL    HW237089   3.242   4.333  10.245 -2.2944 -1.4526 -0.3287
10418SOL     OW37090   6.786   9.364  10.288 -0.2174  0.0866  0.2410
10418SOL    HW137091   6.734   9.322  10.219  0.8385 -0.6789 -0.1140
10418SOL    HW237092   6.735   9.441  10.312 -1.5097 -0.6289 -0.0936
10419SOL     OW37093   9.699  11.766   4.983 -0.1585 -0.1093  0.1570
10419SOL    HW137094   9.693  11.832   4.913 -1.4627 -1.0881 -0.7053
10419SOL    HW237095   9.658  11.688   4.946 -2.0350 -0.3065  2.4124
10420SOL     OW37096   6.844   0.696   6.692 -0.1859 -0.3905 -0.6388
10420SOL    HW137097   6.939   0.682   6.689 -0.1943 -1.7629  2.1137
10420SOL    HW237098   6.835   0.792   6.694  1.0996 -0.2273 -1.0734
10421SOL     OW37099  11.982   4.794   4.833 -0.3540  0.3067 -0.1691
10421SOL    HW137100  12.036   4.771   4.757 -3.3053 -0.1906 -2.2816
10421SOL    HW237101  11.968   4.711   4.878  1.1803  0.5601  0.8476
10422SOL     OW37102   5.536  10.337   8.127  0.0084 -0.6202  0.2549
10422SOL    HW137103   5.549  10.334   8.221  1.7638 -0.9991  0.0304
10422SOL    HW237104   5.603  10.397   8.095  0.5535 -1.7978 -0.9020
10423SOL     OW37105  11.525   6.008   0.384  0.1040  0.4979 -0.6647
10423SOL    HW137106  11.517   6.086   0.330  0.2224  0.9332 -0.0592
10423SOL    HW237107  11.616   5.980   0.372  0.1929  0.7230 -0.5077
10424SOL     OW37108   5.631  11.011   9.843 -0.0870 -0.0526 -0.8697
10424SOL    HW137109   5.676  11.032   9.761  0.5066 -1.4545 -0.9293
10424SOL    HW237110   5.580  10.932   9.823  0.3296 -0.6056  0.1979
10425SOL     OW37111   0.721   0.314   1.294  0.2007 -0.1242 -0.3696
10425SOL    HW137112   0.699   0.406   1.280  0.8509 -0.0050 -0.6511
10425SOL    HW237113   0.743   0.308   1.387  0.8495  0.1599 -0.4980
10426SOL     OW37114  12.312   3.870   2.839 -0.1820 -0.5180  0.0418
10426SOL    HW137115  12.303   3.926   2.762  2.2320 -1.7717 -1.2435
10426SOL    HW237116  12.255   3.795   2.821  2.7322 -2.4045 -2.2036
10427SOL     OW37117   8.896   1.549   4.183  0.4774  0.7012  0.0140
10427SOL    HW137118   8.913   1.472   4.237 -0.7202  0.6803  0.3900
10427SOL    HW237119   8.839   1.604   4.237 -2.6126 -0.3142 -1.9589
10428SOL     OW37120   7.706   5.086   6.312  0.3730 -0.7209 -0.4634
10428SOL    HW137121   7.800   5.068   6.319  0.2506 -1.4088 -0.5658
10428SOL    HW237122   7.701   5.179   6.289  0.9976 -0.3317  0.8371
10429SOL     OW37123   0.310  11.556   3.671 -0.3010 -0.8152  0.3313
10429SOL    HW137124   0.327  11.513   3.754 -0.9114  0.1848  0.9941
10429SOL    HW237125   0.217  11.543   3.654 -0.5566  0.3995  0.6652
10430SOL     OW37126   4.372   6.210   1.437  0.2798  0.0491  0.0316
10430SOL    HW137127   4.403   6.136   1.386  1.1581  1.4804 -1.5880
10430SOL    HW237128   4.434   6.281   1.419 -1.8588  1.9230 -0.4342
10431SOL     OW37129  10.884   2.755   5.895  0.2887  0.3060  0.5017
10431SOL    HW137130  10.934   2.677   5.921  0.6772  0.6164  0.6900
10431SOL    HW237131  10.813   2.761   5.958  1.1706  1.0013  1.4558
10432SOL     OW37132   1.009  11.941   0.943 -0.4983  0.4121 -0.2804
10432SOL    HW137133   1.075  11.939   1.013  0.6758 -0.4835 -1.3573
10432SOL    HW237134   0.988  11.848   0.928  1.7537  0.2229 -3.2810
10433SOL     OW37135   1.162   3.881   6.595 -0.1024 -0.3427 -0.1373
10433SOL    HW137136   1.196   3.792   6.585 -0.6733 -0.7143  1.0341
10433SOL    HW237137   1.071   3.876   6.564 -0.0808 -0.1247 -0.2385
10434SOL     OW37138   3.246   5.069   7.737 -0.5332 -0.3627 -0.2485
10434SOL    HW137139   3.306   5.079   7.663 -1.4864 -1.6480 -1.2479
10434SOL    HW237140   3.300   5.031   7.806  0.8390  2.5817  0.4599
10435SOL     OW37141   6.012  11.719   4.487 -0.3927 -0.2286 -0.2978
10435SOL    HW137142   6.079  11.722   4.555 -1.1872  1.3588  0.4704
10435SOL    HW237143   6.062  11.710   4.405  0.8598  1.6801  0.1779
10436SOL     OW37144   3.935   2.241   3.902 -0.2116 -0.1010  0.0468
10436SOL    HW137145   4.014   2.248   3.956 -1.5156 -1.0139  2.1848
10436SOL    HW237146   3.957   2.176   3.836  0.9457 -0.0767  0.3783
10437SOL     OW37147   8.585  10.879  11.423  0.1411  0.5991  0.2596
10437SOL    HW137148   8.665  10.911  11.381 -0.1323  3.1145  1.4560
10437SOL    HW237149   8.609  10.796  11.462  1.7507  0.6024 -0.6405
10438SOL     OW37150   3.866   3.072   8.123  0.0963  0.3513 -0.2044
10438SOL    HW137151   3.799   3.077   8.055 -0.1891 -0.4548  0.0190
10438SOL    HW237152   3.943   3.113   8.082 -0.2224  0.3546 -0.8225
10439SOL     OW37153   4.772  10.747   2.119 -0.2623  0.2453  0.2658
10439SOL    HW137154   4.682  10.753   2.088 -0.2836  1.1471  0.4775
10439SOL    HW237155   4.825  10.770   2.043 -0.0795 -2.3250 -0.4887
10440SOL     OW37156   6.548   9.833   9.652  0.4084  0.0056 -0.0327
10440SOL    HW137157   6.527   9.831   9.558  0.4160 -1.0255 -0.0189
10440SOL    HW237158   6.463   9.837   9.696  0.3389 -1.0555 -0.0535
10441SOL     OW37159   6.820   5.417   8.520  0.1663  0.2960 -0.1351
10441SOL    HW137160   6.817   5.509   8.545 -1.8393 -0.2761  2.1738
10441SOL    HW237161   6.732   5.385   8.537  1.3349 -2.5378  1.2330
10442SOL     OW37162   3.369   9.586   8.940 -0.2592 -0.1714  0.6407
10442SOL    HW137163   3.379   9.679   8.958 -0.5343  0.7204 -2.9907
10442SOL    HW237164   3.458   9.551   8.944  0.1190  0.6981  0.1811
10443SOL     OW37165   1.854   4.057  11.373  0.4425 -0.1994 -0.5583
10443SOL    HW137166   1.942   4.022  11.387 -0.0544 -0.8345  1.2541
10443SOL    HW237167   1.797   3.980  11.373 -0.3207  0.3427  0.3038
10444SOL     OW37168  11.070   1.807   3.485 -0.7701  0.2794  0.0096
10444SOL    HW137169  11.097   1.845   3.402 -0.4768  0.5950  0.2432
10444SOL    HW237170  10.997   1.749   3.463  0.0000 -0.4711 -0.6056
10445SOL     OW37171   0.860  10.012  11.071 -0.0780 -0.1775  0.6238
10445SOL    HW137172   0.939  10.065  11.086  0.4775 -1.5074  2.8158
10445SOL    HW237173   0.889   9.922  11.087 -1.2055 -1.1218 -2.1254
10446SOL     OW37174   9.830   2.468   9.184 -0.3330  0.0921  0.5648
10446SOL    HW137175   9.809   2.426   9.268  1.0340  0.8574  1.3204
10446SOL    HW237176   9.806   2.560   9.197 -1.1659  0.0164 -0.2996
10447SOL     OW37177   7.837   8.834   3.037 -0.9303  0.2477 -0.2525
10447SOL    HW137178   7.758   8.848   2.986 -1.0911  1.7900  0.3791
10447SOL    HW237179   7.907   8.874   2.985 -1.0722  1.6962  0.6152
10448SOL     OW37180   1.107   3.061   6.763 -0.5029  0.0121  0.7029
10448SOL    HW137181   1.166   3.132   6.736 -0.2803 -0.0827  0.9426
10448SOL    HW237182   1.131   3.042   6.853  0.7647 -1.6891  0.0498
10449SOL     OW37183   0.711   9.462   3.482  0.4566 -0.3808 -0.1209
10449SOL    HW137184   0.684   9.446   3.573  0.1085  0.9071  0.0134
10449SOL    HW237185   0.801   9.430   3.478  0.8939  0.6388  1.0124
10450SOL     OW37186  11.605   8.556   1.466 -0.9405 -0.2114  0.3719
10450SOL    HW137187  11.512   8.565   1.448 -0.9393 -0.4350  0.2480
10450SOL    HW237188  11.610   8.490   1.535 -0.8770 -0.1700  0.4073
10451SOL     OW37189   7.325   5.655   5.649  0.0356 -0.2870 -1.0227
10451SOL    HW137190   7.321   5.586   5.715  2.1325 -0.0564 -0.5965
10451SOL    HW237191   7.302   5.735   5.696 -0.6871 -0.4198 -1.1265
10452SOL     OW37192   8.070   8.574  10.611 -0.3629 -0.5235 -0.5463
10452SOL    HW137193   7.993   8.549  10.662 -0.7776 -0.0944 -0.9557
10452SOL    HW237194   8.043   8.653  10.564  0.5290  0.0025 -0.2059
10453SOL     OW37195   8.489   7.675   6.932 -0.5529  0.2366 -0.6391
10453SOL    HW137196   8.460   7.586   6.950  0.6684 -0.4408 -1.8166
10453SOL    HW237197   8.584   7.672   6.940 -0.2518  0.7963 -3.0061
10454SOL     OW37198   5.752   2.595   2.095 -0.8961 -0.7680  0.2545
10454SOL    HW137199   5.682   2.660   2.094 -0.9305 -0.8028  0.3276
10454SOL    HW237200   5.762   2.568   2.004  1.5803  1.9476 -0.4474
10455SOL     OW37201   4.552   0.871  11.577 -0.6169  0.3478 -0.4709
10455SOL    HW137202   4.560   0.966  11.573  0.8251  0.2241 -1.8781
10455SOL    HW237203   4.529   0.852  11.667  0.8327  1.9518  0.2857
10456SOL     OW37204   5.459   7.749  12.013  0.6701 -0.3400  0.2913
10456SOL    HW137205   5.479   7.827  12.065 -0.0113  0.4315 -0.5789
10456SOL    HW237206   5.497   7.677  12.063  1.6115  0.5823  0.9455
10457SOL     OW37207   6.929   9.851   2.587 -0.8896 -0.6433  0.0036
10457SOL    HW137208   6.844   9.881   2.553 -1.2036 -0.2649  1.0923
10457SOL    HW237209   6.948   9.910   2.660  0.4804 -0.5019 -0.4345
10458SOL     OW37210   6.170   9.569   7.153  0.7051 -0.0269  0.4318
10458SOL    HW137211   6.134   9.617   7.228 -0.4184  1.1186 -0.7611
10458SOL    HW237212   6.265   9.580   7.161  0.7215 -1.1327  2.4152
10459SOL     OW37213   4.549  11.620  11.846  0.2297 -0.2088 -0.0806
10459SOL    HW137214   4.616  11.566  11.888  0.8046  0.7989  0.3449
10459SOL    HW237215   4.598  11.677  11.786 -0.2831  0.2532 -0.0681
10460SOL     OW37216  11.979   8.400  10.353  0.8648 -0.3858  0.0964
10460SOL    HW137217  12.011   8.490  10.360  1.8027 -0.6676 -0.4160
10460SOL    HW237218  11.941   8.382  10.439 -0.9429  1.0813 -0.3399
10461SOL     OW37219   4.951   1.953   1.420  0.2055  0.0715 -0.2898
10461SOL    HW137220   5.036   1.918   1.394  0.5167  1.4213 -1.2208
10461SOL    HW237221   4.972   2.032   1.471 -0.4880  0.5497 -0.7272
10462SOL     OW37222   3.162  12.078   6.198 -0.0608 -0.2018 -0.1593
10462SOL    HW137223   3.158  11.983   6.202 -0.0128 -0.1663  1.2814
10462SOL    HW237224   3.099  12.108   6.264  1.1381  0.7208  0.6370
10463SOL     OW37225   5.406   9.201   4.137  0.0923 -0.1708 -0.4382
10463SOL    HW137226   5.465   9.267   4.174 -2.0140  1.6913 -0.2185
10463SOL    HW237227   5.442   9.184   4.050  1.4354  0.2576  0.0052
10464SOL     OW37228   8.357   1.394   7.470 -0.1573 -0.0044 -0.8246
10464SOL    HW137229   8.389   1.395   7.560  1.4287  1.2371 -1.3511
10464SOL    HW237230   8.263   1.405   7.478  0.1181  1.7071  0.6609
10465SOL     OW37231  10.345   2.479   2.650  0.4356 -0.0421  0.0863
10465SOL    HW137232  10.380   2.392   2.670  0.0199  0.0629  1.3208
10465SOL    HW237233  10.274   2.463   2.588  2.4221 -0.2867 -2.3061
10466SOL     OW37234   4.924   9.249   9.209 -0.2046  0.3041 -0.6947
10466SOL    HW137235   4.942   9.341   9.190  1.0954  0.0916 -0.5938
10466SOL    HW237236   4.978   9.229   9.285 -1.2522 -0.2862 -0.0894
10467SOL     OW37237   5.364  11.211   2.928 -0.1894 -0.2328  0.2859
10467SOL    HW137238   5.275  11.186   2.903 -0.6073  1.5456 -0.1142
10467SOL    HW237239   5.419  11.143   2.889 -1.2468 -0.4904 -0.8442
10468SOL     OW37240   7.138   8.605   5.197 -0.0229 -0.3677  0.1037
10468SOL    HW137241   7.216   8.629   5.147 -0.9450  2.5873 -0.0873
10468SOL    HW237242   7.108   8.687   5.236 -3.1759 -1.3599  0.0266
10469SOL     OW37243   5.210   5.897   6.121 -0.5314  0.2193  0.1002
10469SOL    HW137244   5.244   5.809   6.105 -1.3553 -0.1840  0.5005
10469SOL    HW237245   5.288   5.953   6.124  0.0553 -0.6085  0.5725
10470SOL     OW37246   1.709   6.887   9.721 -0.1092  0.4932  0.2728
10470SOL    HW137247   1.735   6.877   9.813  0.7586  1.2608  0.1242
10470SOL    HW237248   1.790   6.878   9.672 -0.2299  2.1320 -0.2684
10471SOL     OW37249   0.410   4.290   0.259 -0.3558  0.2842  0.5500
10471SOL    HW137250   0.443   4.370   0.218  0.7717  0.3298  1.4679
10471SOL    HW237251   0.339   4.319   0.315 -1.0161  0.4042 -0.3283
10472SOL     OW37252  12.075   4.284   1.505  0.4598 -0.0881 -0.2427
10472SOL    HW137253  11.990   4.314   1.538  0.3673  0.1841 -0.7175
10472SOL    HW237254  12.129   4.363   1.502  0.5825 -0.1762 -0.3829
10473SOL     OW37255  10.049   6.466   5.294  0.0325  0.4823 -0.2288
10473SOL    HW137256  10.050   6.382   5.249  1.9741  1.3237 -1.9067
10473SOL    HW237257  10.111   6.456   5.366  0.7330  0.6525 -0.8031
10474SOL     OW37258   9.295   0.430   9.882  0.3575  0.1312  0.0927
10474SOL    HW137259   9.273   0.511   9.929  1.8752  0.6617 -0.0469
10474SOL    HW237260   9.351   0.382   9.943  2.7751  1.0556 -1.2507
10475SOL     OW37261  11.529   2.092   0.388 -0.2381 -0.1187 -0.5841
10475SOL    HW137262  11.533   2.002   0.420 -1.3549  0.4630  1.3586
10475SOL    HW237263  11.439   2.121   0.408 -0.2590  1.0594 -2.2130
10476SOL     OW37264   6.459   0.451   2.493 -0.5794 -0.1109  0.0598
10476SOL    HW137265   6.431   0.514   2.560 -0.4962 -0.2049  0.1824
10476SOL    HW237266   6.378   0.425   2.450 -0.4778  1.2703 -1.0531
10477SOL     OW37267   1.131   4.770   7.885 -0.3427  0.0373  0.0705
10477SOL    HW137268   1.100   4.822   7.959 -1.8262 -1.3697  0.4853
10477SOL    HW237269   1.221   4.800   7.872 -0.6507  1.6447  1.2116
10478SOL     OW37270   3.315   7.585   5.523  0.5411 -0.0600 -0.1870
10478SOL    HW137271   3.265   7.546   5.451  0.9578  0.4621 -0.7701
10478SOL    HW237272   3.292   7.678   5.521  0.6181 -0.0266  0.3030
10479SOL     OW37273   0.619   1.384  10.378  0.4370  0.4413  0.1512
10479SOL    HW137274   0.546   1.443  10.359  0.8138  1.5214  1.8344
10479SOL    HW237275   0.635   1.394  10.472  2.2944 -0.2656 -0.0341
10480SOL     OW37276   1.902   5.185   6.070 -0.0405 -0.4196 -0.1887
10480SOL    HW137277   1.959   5.231   6.131 -2.0074 -1.2439  2.4646
10480SOL    HW237278   1.834   5.249   6.048 -0.2859 -0.6516 -0.1138
10481SOL     OW37279   4.478  10.694   5.436 -0.0248 -0.4014 -0.0794
10481SOL    HW137280   4.404  10.707   5.494  0.3074  0.7056  0.1214
10481SOL    HW237281   4.544  10.758   5.465  0.3406 -0.1545 -1.3391
10482SOL     OW37282   1.068   0.340   9.637 -0.5021 -0.1552  0.6480
10482SOL    HW137283   0.983   0.368   9.603 -0.8596 -3.2087 -1.2495
10482SOL    HW237284   1.127   0.413   9.617 -2.5216  1.9464  1.8064
10483SOL     OW37285   1.642   4.064   3.905  0.3622 -0.5935 -0.5731
10483SOL    HW137286   1.705   3.992   3.904 -0.7076 -1.5685 -0.8360
10483SOL    HW237287   1.653   4.108   3.821  1.7130  0.1982 -0.0063
10484SOL     OW37288  11.447  11.071  11.046  0.1612  0.3368 -1.1236
10484SOL    HW137289  11.423  11.160  11.019  0.4696  0.0056 -2.5556
10484SOL    HW237290  11.464  11.025  10.964 -2.4036 -1.7672 -0.6303
10485SOL     OW37291   1.511  10.635   9.869 -0.4629  0.4849  0.4838
10485SOL    HW137292   1.528  10.557   9.818  3.9132  0.7589  1.1667
10485SOL    HW237293   1.444  10.682   9.819 -0.0213 -1.5746 -2.2756
10486SOL     OW37294   4.111   2.584  12.255  0.7733 -0.2620  0.0376
10486SOL    HW137295   4.030   2.627  12.228  1.8016  1.6477 -0.1904
10486SOL    HW237296   4.168   2.656  12.283  1.7508 -1.7135  1.9678
10487SOL     OW37297   3.084   2.326   5.625  0.4636 -0.2899  0.1749
10487SOL    HW137298   3.169   2.314   5.582  0.9965  1.4985  0.6325
10487SOL    HW237299   3.067   2.420   5.618 -0.6350 -0.3461  1.6576
10488SOL     OW37300   5.347   5.020   7.950 -0.3071 -0.4989 -0.2075
10488SOL    HW137301   5.341   4.951   7.883 -1.2883  0.1063 -0.7622
10488SOL    HW237302   5.289   5.089   7.919  0.7781  0.6592  0.2702
10489SOL     OW37303   7.727   1.036   3.267  0.5236 -0.3990 -0.1118
10489SOL    HW137304   7.765   1.106   3.321  1.6775 -1.3582  0.3453
10489SOL    HW237305   7.715   0.963   3.328 -0.2752 -0.7555 -0.6825
10490SOL     OW37306   1.989  10.768   7.098 -0.1123  0.3013 -0.2096
10490SOL    HW137307   1.902  10.742   7.129 -0.2968 -0.3886 -1.2339
10490SOL    HW237308   2.017  10.837   7.158 -0.3935 -1.0200  1.4861
10491SOL     OW37309   0.724   3.229   3.654  0.3378  0.6421 -0.3272
10491SOL    HW137310   0.691   3.317   3.669 -0.5523  0.1022  0.9934
10491SOL    HW237311   0.646   3.177   3.637  0.7885 -0.0459 -0.3255
10492SOL     OW37312   5.003  11.575   5.843 -0.5358 -0.3126 -0.1461
10492SOL    HW137313   5.034  11.666   5.851 -1.4996  0.2627 -2.1690
10492SOL    HW237314   4.913  11.583   5.811 -1.3324 -1.9934  1.4984
10493SOL     OW37315   0.773  10.513   7.361  0.1197  0.0800  0.0482
10493SOL    HW137316   0.828  10.561   7.299  0.7395  1.5665  1.6312
10493SOL    HW237317   0.706  10.577   7.388 -0.4550 -0.6958  0.5156
10494SOL     OW37318  11.722   6.932   1.973 -0.9146  0.4793 -0.3064
10494SOL    HW137319  11.795   6.871   1.969 -0.3032  1.2081 -0.3135
10494SOL    HW237320  11.660   6.892   2.034  0.1943  0.6267  0.9488
10495SOL     OW37321   1.101  10.648   8.284 -0.9661  0.4103 -0.3628
10495SOL    HW137322   1.079  10.580   8.348 -1.0847 -0.0132 -0.8498
10495SOL    HW237323   1.103  10.729   8.335  1.1805 -0.1943  0.6488
10496SOL     OW37324   5.664   9.222   7.481  0.8867  0.5502  0.1400
10496SOL    HW137325   5.591   9.249   7.426  0.8112  0.1056  0.0190
10496SOL    HW237326   5.624   9.205   7.567  0.3930 -2.0122 -0.5041
10497SOL     OW37327  10.645   9.800  11.426 -0.2158 -0.0194  0.1534
10497SOL    HW137328  10.653   9.890  11.396 -0.1376  0.4968  1.6471
10497SOL    HW237329  10.576   9.762  11.372 -1.5972  1.5099  0.7723
10498SOL     OW37330   6.784   2.467   7.665 -0.5260  0.0580 -0.3682
10498SOL    HW137331   6.726   2.533   7.628  0.1084 -0.4893 -2.5124
10498SOL    HW237332   6.872   2.504   7.655 -0.1946 -0.8904 -1.2196
10499SOL     OW37333   1.201   5.608   5.304  0.1401 -0.1866 -0.2938
10499SOL    HW137334   1.269   5.548   5.274  0.5032  0.7897 -1.4960
10499SOL    HW237335   1.208   5.606   5.399 -0.2228 -2.4255 -0.2502
10500SOL     OW37336   5.085   4.322   0.978 -0.1692 -0.5728  0.2526
10500SOL    HW137337   5.096   4.362   0.892  2.6914 -1.4464  0.0927
10500SOL    HW237338   5.063   4.395   1.036 -3.1358 -0.1007 -1.2583
10501SOL     OW37339   3.364   0.515   6.594  0.2898  0.7715 -0.5239
10501SOL    HW137340   3.304   0.512   6.669  2.5131  2.5416  1.4825
10501SOL    HW237341   3.447   0.481   6.628  1.1217  0.6453 -2.5286
10502SOL     OW37342   3.642   6.715  11.426 -0.0840 -0.3451 -0.3236
10502SOL    HW137343   3.731   6.748  11.411 -0.7009  1.5330 -0.0816
10502SOL    HW237344   3.624   6.661  11.349  0.7252  0.4751 -1.1210
10503SOL     OW37345   3.334  11.056   2.046 -0.0281  0.4203  0.2533
10503SOL    HW137346   3.268  11.117   2.013 -1.1983 -0.2748  1.2138
10503SOL    HW237347   3.381  11.106   2.113  0.2517  0.8306 -0.2402
10504SOL     OW37348   7.698  10.936   6.642 -0.8246 -0.6680  0.2202
10504SOL    HW137349   7.759  10.919   6.714 -0.5551 -1.6787 -0.2222
10504SOL    HW237350   7.674  11.028   6.652 -0.9095 -0.8228  1.6772
10505SOL     OW37351  10.160   1.447   3.169 -0.0421 -0.5668  0.4461
10505SOL    HW137352  10.196   1.482   3.088 -0.8550  0.7879  0.6315
10505SOL    HW237353  10.237   1.434   3.226  0.3735  0.0261  0.0264
10506SOL     OW37354   7.827   9.794   9.950 -0.1044  0.0930 -0.5559
10506SOL    HW137355   7.785   9.867   9.995  0.5637  0.3781 -0.3942
10506SOL    HW237356   7.766   9.721   9.961  1.1480 -0.6352  3.1323
10507SOL     OW37357  11.071   3.373   1.741  0.2885 -0.3812 -0.2178
10507SOL    HW137358  11.035   3.394   1.827 -0.4048 -3.6018  0.4033
10507SOL    HW237359  10.994   3.351   1.688  0.7376  1.1984 -1.6409
10508SOL     OW37360   4.646   0.265   6.512 -0.7183 -0.1547  0.3844
10508SOL    HW137361   4.701   0.344   6.515 -1.2982  0.3119 -0.7386
10508SOL    HW237362   4.636   0.246   6.419 -0.9711 -1.2953  0.6335
10509SOL     OW37363   0.428   0.626   1.560 -0.3963 -0.2002  0.3213
10509SOL    HW137364   0.363   0.641   1.492  0.2970  0.5870 -0.1855
10509SOL    HW237365   0.429   0.707   1.611  0.2822 -0.1393  0.2304
10510SOL     OW37366   5.476   3.606   8.728  0.2800  0.0091  0.1436
10510SOL    HW137367   5.566   3.589   8.700  0.7458  1.4885  0.6930
10510SOL    HW237368   5.480   3.689   8.776 -1.4467  0.3133 -0.1693
10511SOL     OW37369   1.236  10.231   7.025  0.2745 -0.0905 -0.1433
10511SOL    HW137370   1.211  10.256   7.114  1.5747 -0.1134  0.2471
10511SOL    HW237371   1.156  10.241   6.974 -0.3622  0.4236  0.9244
10512SOL     OW37372   6.659   0.890   5.260 -0.4175  0.0903 -0.6400
10512SOL    HW137373   6.731   0.828   5.257 -0.1704  0.2574  0.9777
10512SOL    HW237374   6.670   0.943   5.181 -0.0651 -1.2574 -1.5414
10513SOL     OW37375   8.833   7.661  11.560 -0.0501  0.1781 -0.0272
10513SOL    HW137376   8.823   7.729  11.627  0.1169 -0.0935  0.2806
10513SOL    HW237377   8.927   7.661  11.540  0.2240 -1.0062  1.1121
10514SOL     OW37378   3.996  12.197   5.283  0.4036 -0.4311  0.0579
10514SOL    HW137379   3.903  12.217   5.285  0.8511  1.7625  0.9747
10514SOL    HW237380   4.000  12.106   5.252 -2.0772 -1.0400  1.3164
10515SOL     OW37381   4.938   5.227   4.861 -0.0626  0.4775  0.1895
10515SOL    HW137382   4.955   5.228   4.767 -1.5862  2.0358 -0.1165
10515SOL    HW237383   4.906   5.315   4.881  0.2334  0.1890  2.1817
10516SOL     OW37384   4.679   7.861  12.191  0.0011 -0.2184  0.4749
10516SOL    HW137385   4.667   7.817  12.107  0.0441 -1.2214  0.9807
10516SOL    HW237386   4.604   7.920  12.199 -0.3101 -0.5496  0.0018
10517SOL     OW37387   3.026   2.121   7.544 -0.4088 -0.2172 -0.0970
10517SOL    HW137388   2.998   2.164   7.464  1.1932 -0.5582 -0.8909
10517SOL    HW237389   3.087   2.183   7.585 -0.7393 -0.3048  0.5517
10518SOL     OW37390   1.129   9.608   1.420  0.2012  0.4439  0.0660
10518SOL    HW137391   1.215   9.572   1.401  0.2780  0.8804 -0.4299
10518SOL    HW237392   1.143   9.703   1.428  0.0219  0.3697  1.4669
10519SOL     OW37393   1.058   8.671   5.479  0.1100 -0.5641  0.1218
10519SOL    HW137394   1.098   8.748   5.440  0.3699  0.3899  2.1381
10519SOL    HW237395   0.969   8.699   5.502  0.4597 -0.5719  1.5876
10520SOL     OW37396  10.769   3.608   4.105  0.2074  0.1751  0.3599
10520SOL    HW137397  10.856   3.584   4.137  0.3925 -2.1492 -1.5847
10520SOL    HW237398  10.758   3.556   4.026 -2.8160  0.7003  0.3282
10521SOL     OW37399   2.757   9.448   1.654 -0.2729 -0.3816 -0.0089
10521SOL    HW137400   2.797   9.428   1.570  0.2644 -0.6840  0.3127
10521SOL    HW237401   2.709   9.529   1.639 -1.8907 -1.4946 -1.1384
10522SOL     OW37402  10.529   7.921  11.688 -0.5885 -0.1541 -0.4048
10522SOL    HW137403  10.477   7.932  11.608 -0.6318 -1.9703 -0.6717
10522SOL    HW237404  10.476   7.861  11.742 -0.3669  0.7160  0.8312
10523SOL     OW37405   7.305   9.156  10.912 -0.4383  0.3835 -0.0046
10523SOL    HW137406   7.252   9.138  10.989 -0.2116  0.6780  0.2238
10523SOL    HW237407   7.394   9.129  10.936 -0.1275  1.5889  0.2843
10524SOL     OW37408   6.631   5.382   2.238 -0.3034  0.3802  0.1349
10524SOL    HW137409   6.713   5.386   2.189 -0.6858 -0.0421 -0.5473
10524SOL    HW237410   6.652   5.423   2.322  0.5302  0.5296 -0.1344
10525SOL     OW37411   6.784   9.932   7.962  0.1205 -0.3484 -0.4232
10525SOL    HW137412   6.769   9.990   8.037 -0.2051  0.8661 -1.3725
10525SOL    HW237413   6.718   9.864   7.971 -0.6427  0.3968 -0.1652
10526SOL     OW37414   9.351   0.076   4.371  0.1117  0.0940 -0.3210
10526SOL    HW137415   9.317  -0.000   4.418  0.1504 -0.5495 -1.3179
10526SOL    HW237416   9.346   0.147   4.435 -0.9526 -0.4937  0.2796
10527SOL     OW37417   2.679   5.525   8.927 -0.4180 -0.2750 -0.5483
10527SOL    HW137418   2.584   5.512   8.925 -0.2971 -1.2004 -0.5596
10527SOL    HW237419   2.715   5.438   8.944  0.3436  0.4292  1.7381
10528SOL     OW37420   1.210   4.064  10.404 -0.4276  0.7485  0.0776
10528SOL    HW137421   1.178   3.976  10.384  1.0935 -0.5911  2.9265
10528SOL    HW237422   1.286   4.075  10.347  0.3991 -0.5612  0.8608
10529SOL     OW37423   8.309   5.937   8.161 -0.7432 -0.8726  0.1532
10529SOL    HW137424   8.361   5.875   8.109 -0.3442 -0.2896 -0.1485
10529SOL    HW237425   8.339   6.023   8.133 -1.8651 -0.5188 -0.0152
10530SOL     OW37426  12.314   4.015   2.296 -0.3915  0.0827  0.3454
10530SOL    HW137427  12.331   3.935   2.246 -1.6187  0.6681 -1.0955
10530SOL    HW237428  12.218   4.018   2.305 -0.2767  0.7104  1.5518
10531SOL     OW37429  12.112   4.763   2.875  0.0712 -0.3715 -0.0047
10531SOL    HW137430  12.065   4.839   2.908 -0.8505 -1.2659  0.7847
10531SOL    HW237431  12.185   4.751   2.935  0.2617 -0.0859 -0.1733
10532SOL     OW37432   1.477   8.431   9.095  0.2769  0.2139  0.4131
10532SOL    HW137433   1.563   8.472   9.096 -0.5840  2.1958 -0.3180
10532SOL    HW237434   1.491   8.342   9.127  2.8755 -0.1285 -1.4018
10533SOL     OW37435   4.743   0.198   8.677 -0.6298 -0.4700  0.3769
10533SOL    HW137436   4.744   0.242   8.762  0.9278  0.1218  0.0925
10533SOL    HW237437   4.758   0.268   8.614  2.3557 -1.3625 -0.0697
10534SOL     OW37438   4.114   9.680   2.243  0.4261  0.5162 -0.3592
10534SOL    HW137439   4.160   9.617   2.298 -0.5479 -0.3132 -0.4543
10534SOL    HW237440   4.082   9.746   2.304 -0.1148 -0.0742  0.0187
10535SOL     OW37441   5.072   6.655   7.211  0.1759  0.3121 -0.0779
10535SOL    HW137442   5.123   6.584   7.251 -2.6512 -1.0458  1.4659
10535SOL    HW237443   5.068   6.722   7.280 -1.7457 -0.5033  0.6749
10536SOL     OW37444   5.814   1.937   5.367 -0.5289 -0.5148 -0.0748
10536SOL    HW137445   5.783   1.852   5.397 -0.9567 -0.5204 -0.5084
10536SOL    HW237446   5.740   1.974   5.319 -0.2815  0.0191 -0.0589
10537SOL     OW37447   0.050   2.694   2.806  0.5172 -0.0117 -0.6616
10537SOL    HW137448   0.072   2.754   2.735  1.0092  1.1077  0.4065
10537SOL    HW237449   0.126   2.637   2.815  1.3074  1.1308  0.2417
10538SOL     OW37450  11.708  12.307   0.293  0.1780 -0.0284 -0.5973
10538SOL    HW137451  11.735  12.250   0.365 -0.0995 -0.8577 -1.1391
10538SOL    HW237452  11.692  12.248   0.220 -1.0303  0.6489 -0.9093
10539SOL     OW37453   2.581   0.473   1.031  0.7004  0.7622 -0.3278
10539SOL    HW137454   2.645   0.401   1.032 -0.3196 -0.1790 -0.2771
10539SOL    HW237455   2.634   0.552   1.030  1.9008  0.0513  1.2020
10540SOL     OW37456   7.045   4.899   1.790  0.3047  0.1753  0.2679
10540SOL    HW137457   6.959   4.860   1.810  1.2576 -2.8370 -0.8804
10540SOL    HW237458   7.025   4.969   1.727 -1.3943  0.3927  0.9812
10541SOL     OW37459   9.672  11.923   4.129 -0.5015 -0.1144 -0.5827
10541SOL    HW137460   9.634  11.861   4.191 -2.1243  0.2189 -1.2040
10541SOL    HW237461   9.760  11.889   4.113 -0.0550 -0.2657  1.7826
10542SOL     OW37462   2.946   5.189   9.676 -0.3182  0.4052 -0.5171
10542SOL    HW137463   3.016   5.180   9.741 -2.2384 -0.2770  1.5960
10542SOL    HW237464   2.929   5.099   9.647 -0.7671  0.4961 -0.5306
10543SOL     OW37465   3.343   4.885   3.073 -0.0058  1.0090  0.1222
10543SOL    HW137466   3.431   4.850   3.087 -0.2215 -0.0181 -0.9155
10543SOL    HW237467   3.336   4.894   2.978 -0.9091  1.4066  0.2179
10544SOL     OW37468   8.727   6.884  11.825 -0.8647 -0.6029  0.0357
10544SOL    HW137469   8.787   6.846  11.761 -2.1091 -1.9909 -0.3613
10544SOL    HW237470   8.784   6.910  11.898  0.3203 -1.0349 -0.7080
10545SOL     OW37471   5.373  12.080   9.018  0.2300 -0.6004 -0.4188
10545SOL    HW137472   5.397  12.092   8.926  1.2446 -1.9076 -0.3541
10545SOL    HW237473   5.392  12.164   9.059  3.6435 -1.1425 -0.6307
10546SOL     OW37474   2.279   6.441  10.574  0.0459  0.0650 -0.4267
10546SOL    HW137475   2.243   6.356  10.551  0.5576 -0.4296  0.5367
10546SOL    HW237476   2.248   6.458  10.663 -0.4260  1.1041 -0.7662
10547SOL     OW37477   2.412   1.077   0.598  0.3096  0.3901  0.5965
10547SOL    HW137478   2.444   1.165   0.578 -0.5303  0.7823  0.8936
10547SOL    HW237479   2.480   1.018   0.567 -0.0339  1.0441 -1.5927
10548SOL     OW37480   0.701  12.171   0.153 -0.2634 -0.1441 -0.5203
10548SOL    HW137481   0.675  12.092   0.106 -0.0763 -0.1383 -0.6348
10548SOL    HW237482   0.765  12.213   0.096  1.1389 -0.9202  0.3853
10549SOL     OW37483   3.105   6.263   0.043 -0.4623  0.3693  0.0542
10549SOL    HW137484   3.068   6.247  -0.044 -2.0130  0.2065  0.7087
10549SOL    HW237485   3.112   6.176   0.082  0.3380  0.4325  0.0599
10550SOL     OW37486   3.840   9.021   5.144 -0.0493 -0.3092  0.5598
10550SOL    HW137487   3.913   8.959   5.145 -0.0150 -0.2727  1.9631
10550SOL    HW237488   3.829   9.043   5.051  1.8923 -0.0995  0.3409
10551SOL     OW37489   4.303   6.210  10.094  0.0851 -0.2590 -0.6607
10551SOL    HW137490   4.277   6.124  10.127  0.4183 -0.4460 -0.8786
10551SOL    HW237491   4.311   6.198  10.000  0.8675 -0.1872 -0.6109
10552SOL     OW37492   5.629   2.441   0.401 -0.3930  0.1859  0.5655
10552SOL    HW137493   5.700   2.446   0.466  0.4669  1.3101 -0.4040
10552SOL    HW237494   5.654   2.367   0.344 -0.0535  0.5023  0.2988
10553SOL     OW37495   4.508   8.531  11.567  0.2832 -0.2485  0.1336
10553SOL    HW137496   4.532   8.501  11.479 -0.8649  0.9683 -0.6292
10553SOL    HW237497   4.462   8.456  11.606 -0.7235 -0.2317 -0.9647
10554SOL     OW37498   3.488   5.304  11.565 -0.2267  0.8024  0.5948
10554SOL    HW137499   3.577   5.313  11.531  0.2288 -1.9922  0.8183
10554SOL    HW237500   3.436   5.279  11.489 -0.5108  0.8860  0.7598
10555SOL     OW37501  11.731   9.088   9.859  0.2931  0.2367 -0.3265
10555SOL    HW137502  11.783   9.008   9.869  0.4137  0.2796 -0.5976
10555SOL    HW237503  11.755   9.121   9.773 -1.0332 -0.3517 -0.9498
10556SOL     OW37504   6.480   1.408   5.041  0.0456  0.8238  0.0176
10556SOL    HW137505   6.576   1.409   5.038  0.0978 -1.2208 -1.6722
10556SOL    HW237506   6.458   1.451   5.123  2.4903 -0.4775  1.4912
10557SOL     OW37507   8.240  12.205   4.218  0.1280  0.6168  0.1972
10557SOL    HW137508   8.287  12.167   4.143  0.0062  1.8859 -0.5404
10557SOL    HW237509   8.194  12.280   4.182  0.4682  1.5538  1.6420
10558SOL     OW37510   5.956   7.456  11.989 -0.3813 -0.4921 -0.3209
10558SOL    HW137511   6.028   7.519  11.998 -0.4718 -0.3126 -0.8179
10558SOL    HW237512   5.883   7.508  11.957 -1.1947 -0.3728  1.6061
10559SOL     OW37513   6.233   7.255   6.518  0.1146 -0.0143 -0.0979
10559SOL    HW137514   6.150   7.296   6.493  0.8315  0.4796 -1.7450
10559SOL    HW237515   6.229   7.167   6.480  0.4449  0.0837 -0.3570
10560SOL     OW37516   8.034   2.896   2.873  0.3646 -0.4909 -0.4151
10560SOL    HW137517   8.047   2.969   2.934 -0.0528  0.4577 -1.4369
10560SOL    HW237518   8.122   2.868   2.849  0.5453  0.6356 -1.1268
10561SOL     OW37519   8.200  10.717   8.556 -0.2250 -0.3233 -0.3254
10561SOL    HW137520   8.255  10.659   8.503 -0.8379 -0.0364 -1.2975
10561SOL    HW237521   8.256  10.741   8.631 -0.2069 -2.7528  0.5191
10562SOL     OW37522   9.353   7.046   6.810  0.1119  0.3258 -0.1746
10562SOL    HW137523   9.352   6.978   6.878  0.5899  2.3772  2.0100
10562SOL    HW237524   9.433   7.028   6.761 -1.9814 -3.3752 -2.7613
10563SOL     OW37525   4.126   7.193   5.881 -0.1025  0.3784 -0.0806
10563SOL    HW137526   4.103   7.265   5.822  0.2982 -0.6371 -1.5182
10563SOL    HW237527   4.212   7.217   5.916  0.3576  0.2594 -1.1191
10564SOL     OW37528  11.671   3.766  11.276 -0.0329 -0.3311 -0.4212
10564SOL    HW137529  11.608   3.736  11.210 -0.8104  1.5262 -0.5931
10564SOL    HW237530  11.695   3.687  11.324  1.1396 -1.9030 -3.3653
10565SOL     OW37531   3.943  10.623   7.245 -0.0167 -0.6065  0.4004
10565SOL    HW137532   3.946  10.576   7.162 -0.4381 -0.3468  0.2376
10565SOL    HW237533   3.938  10.555   7.311  2.4493 -0.9291  0.3661
10566SOL     OW37534  11.890   7.562   4.945  0.6344  0.5794  0.5781
10566SOL    HW137535  11.941   7.491   4.905  0.8127  0.1760  1.4975
10566SOL    HW237536  11.952   7.634   4.954  0.2594  1.1419 -1.0644
10567SOL     OW37537  10.015   5.623   5.423  0.3271 -0.0614 -0.6160
10567SOL    HW137538   9.970   5.542   5.400  0.1825  0.2691 -1.5306
10567SOL    HW237539  10.014   5.675   5.343  3.2722 -0.4537 -1.0260
10568SOL     OW37540   8.671   4.272   8.065  0.1566  0.1188 -0.9764
10568SOL    HW137541   8.693   4.337   8.132  2.6900 -1.0910 -0.5439
10568SOL    HW237542   8.581   4.245   8.087  1.0696 -0.6740  2.3424
10569SOL     OW37543   3.327   7.601   3.157 -0.0402 -0.2317 -0.0110
10569SOL    HW137544   3.375   7.634   3.081 -0.3583  1.8077  0.6016
10569SOL    HW237545   3.309   7.679   3.210 -2.7418 -1.0915  0.5185
10570SOL     OW37546   5.093   1.766   0.001 -0.1022 -0.4679 -0.1471
10570SOL    HW137547   5.055   1.678  -0.002 -0.5653 -0.2405 -1.6801
10570SOL    HW237548   5.024   1.820   0.041  0.7101 -1.0051  2.1365
10571SOL     OW37549   9.017   0.445   5.021  0.5439 -0.0527  0.1136
10571SOL    HW137550   8.951   0.427   5.087  0.3312  0.4579  0.0430
10571SOL    HW237551   8.979   0.514   4.967  0.9340 -0.0979 -0.2243
10572SOL     OW37552   2.865   9.996   7.323 -0.2486 -0.1639  0.7561
10572SOL    HW137553   2.801  10.009   7.392 -0.6091  0.8246  0.2496
10572SOL    HW237554   2.816   9.957   7.251 -0.1704  0.1101  0.5532
10573SOL     OW37555   4.054   8.047   9.224 -0.0114  0.1546  0.3874
10573SOL    HW137556   4.010   7.967   9.252  0.6561 -1.1855 -2.0507
10573SOL    HW237557   3.995   8.117   9.250 -2.7574 -1.4163 -1.0584
10574SOL     OW37558   1.061   7.201  10.796 -0.2362 -0.5050 -0.2791
10574SOL    HW137559   0.979   7.234  10.832 -0.1415 -2.8965  2.5127
10574SOL    HW237560   1.128   7.258  10.831 -0.5317  0.5640 -1.3733
10575SOL     OW37561   7.854  10.152  11.292  0.1811  0.5667  0.2328
10575SOL    HW137562   7.949  10.151  11.301  0.1411 -1.2162  0.8164
10575SOL    HW237563   7.831  10.063  11.267 -1.2648  1.2420 -0.9744
10576SOL     OW37564   1.544  10.939   5.648 -0.1725 -0.2833 -0.2183
10576SOL    HW137565   1.454  10.908   5.647  0.3764 -1.9395 -1.5083
10576SOL    HW237566   1.579  10.916   5.562  1.1546  1.3657 -0.1674
10577SOL     OW37567   4.727  10.197   4.790 -0.3103 -0.8431  0.2100
10577SOL    HW137568   4.804  10.234   4.747 -0.7758 -0.4711 -0.3125
10577SOL    HW237569   4.756  10.112   4.823 -0.1427 -1.4909 -1.5169
10578SOL     OW37570  10.220   3.754   3.417 -0.3267 -0.3480 -0.1755
10578SOL    HW137571  10.293   3.792   3.368  1.0517 -0.6687  1.5040
10578SOL    HW237572  10.258   3.731   3.502 -1.7633 -2.9027 -0.1156
10579SOL     OW37573   8.354  11.856   4.241 -0.2432  0.0104  0.0164
10579SOL    HW137574   8.293  11.866   4.168 -1.2032  1.7809  0.9955
10579SOL    HW237575   8.440  11.854   4.200 -0.7693  0.8735 -1.1811
10580SOL     OW37576   4.130   0.612   7.251  0.2683  0.3976  0.1935
10580SOL    HW137577   4.157   0.622   7.342  0.8597  0.8729 -0.0242
10580SOL    HW237578   4.074   0.688   7.234 -0.8170 -0.3072  0.4898
10581SOL     OW37579   0.037   7.894  11.716  0.0502  0.6743  0.2187
10581SOL    HW137580  -0.036   7.914  11.657  0.6305  2.5235  0.0385
10581SOL    HW237581   0.012   7.935  11.799  0.0331 -0.3538  0.7257
10582SOL     OW37582   7.009   5.693   3.264 -0.4215  0.0870  0.4008
10582SOL    HW137583   7.012   5.743   3.182  1.0839  1.3199  1.1692
10582SOL    HW237584   6.974   5.608   3.238 -2.0196  1.1305 -1.1412
10583SOL     OW37585   6.674   5.931   1.938 -0.2206  0.4755  0.3478
10583SOL    HW137586   6.632   5.965   2.016 -1.0951 -0.8175  0.4796
10583SOL    HW237587   6.603   5.891   1.888  0.0117  2.6804 -1.9471
10584SOL     OW37588   4.350   6.971  11.975  0.2035  0.0093  0.1166
10584SOL    HW137589   4.282   6.927  12.026 -0.3849  3.1524  2.2813
10584SOL    HW237590   4.302   7.035  11.922  1.2578  0.1701 -0.6773
10585SOL     OW37591   7.156   8.850   6.003  0.4443 -0.0840 -0.4387
10585SOL    HW137592   7.213   8.889   5.937 -0.1709  1.2125 -0.2378
10585SOL    HW237593   7.216   8.811   6.066  1.0819  0.1887 -0.8692
10586SOL     OW37594  10.972   6.819   1.666 -0.1104  0.1818 -0.1902
10586SOL    HW137595  11.051   6.785   1.625 -0.2818  1.5654 -1.7789
10586SOL    HW237596  10.904   6.757   1.642  0.4231 -0.9721  1.1195
10587SOL     OW37597  11.775  11.915   0.058  0.3684  0.0885 -0.2302
10587SOL    HW137598  11.844  11.871   0.107  0.8369  2.1165  1.0550
10587SOL    HW237599  11.799  11.902  -0.034 -0.2757 -3.3832 -0.0259
10588SOL     OW37600   3.531   8.972   0.435  0.4390  0.1402 -0.1933
10588SOL    HW137601   3.612   8.966   0.486 -0.7660 -1.2132  1.6506
10588SOL    HW237602   3.472   9.024   0.489 -0.9795 -1.6152  0.0261
10589SOL     OW37603  10.767   1.455   3.973  0.2985  0.5554 -0.2797
10589SOL    HW137604  10.854   1.418   3.990  1.1892  2.0687 -1.2983
10589SOL    HW237605  10.784   1.543   3.938 -1.5561  0.1333 -2.5471
10590SOL     OW37606  10.363   6.126   1.544  0.4261  0.0146  0.0420
10590SOL    HW137607  10.362   6.205   1.597 -1.2975  0.6022 -0.8217
10590SOL    HW237608  10.280   6.083   1.563 -0.2840  0.2856 -2.2276
10591SOL     OW37609   5.724   4.980   0.449 -0.2506 -0.5335  0.1953
10591SOL    HW137610   5.655   5.001   0.511  0.8111  0.2702  1.1442
10591SOL    HW237611   5.725   5.054   0.388  0.2395 -0.1732  0.6256
10592SOL     OW37612   6.797   2.974   4.302 -0.3545  0.6158 -0.4640
10592SOL    HW137613   6.706   2.961   4.275 -0.3859  0.5430 -0.3256
10592SOL    HW237614   6.848   2.956   4.223 -0.2446 -2.4469  0.1745
10593SOL     OW37615   7.774   2.107   1.392 -0.5530 -0.2636 -0.0350
10593SOL    HW137616   7.717   2.181   1.369  0.1754 -0.2509 -1.9332
10593SOL    HW237617   7.715   2.033   1.400 -0.8259 -0.5327 -3.2247
10594SOL     OW37618  11.858   6.637   8.154  0.0946  0.0915  0.0249
10594SOL    HW137619  11.834   6.628   8.247 -0.3072 -0.3414 -0.1181
10594SOL    HW237620  11.909   6.718   8.151  2.3855 -1.1976  1.0645
10595SOL     OW37621   1.939   7.315   7.671 -0.6173  0.6166 -0.2098
10595SOL    HW137622   1.889   7.376   7.724 -0.6379  1.2594 -0.9491
10595SOL    HW237623   1.923   7.343   7.581 -0.0980 -0.0767 -0.5279
10596SOL     OW37624   5.090   1.536   3.336 -0.4088  0.3602  0.8521
10596SOL    HW137625   5.002   1.571   3.342 -1.3373 -1.6809  0.1852
10596SOL    HW237626   5.077   1.441   3.324  1.8442  0.0835  0.1452
10597SOL     OW37627   2.337   0.217   0.098  0.2756 -0.7770  0.1548
10597SOL    HW137628   2.319   0.307   0.125 -1.6834 -1.0132 -0.2254
10597SOL    HW237629   2.422   0.197   0.136  1.0502  1.4318 -0.2559
10598SOL     OW37630  12.192  10.373   5.606 -0.0216  0.0385  0.0135
10598SOL    HW137631  12.238  10.366   5.522 -0.3033 -0.8042 -0.0848
10598SOL    HW237632  12.258  10.406   5.667  0.2916  0.2941 -0.4534
10599SOL     OW37633   1.115   0.268   5.035  0.5879  0.2477  0.1350
10599SOL    HW137634   1.189   0.215   5.007  1.4006  1.0262  0.7500
10599SOL    HW237635   1.093   0.234   5.122 -1.5581 -1.7780 -1.0655
10600SOL     OW37636   4.118   7.115   8.929  0.0346  0.2614  0.3889
10600SOL    HW137637   4.162   7.151   8.853 -0.9540  0.0765 -0.2865
10600SOL    HW237638   4.187   7.105   8.995  1.0129 -0.1250 -0.6730
10601SOL     OW37639   4.085   2.170   9.108 -0.0169  0.6131  0.0833
10601SOL    HW137640   4.023   2.123   9.052  0.1859 -0.2671  0.5817
10601SOL    HW237641   4.166   2.171   9.057  0.0130  0.3000  0.1179
10602SOL     OW37642   6.901  12.092   4.174  0.0589 -0.2730 -0.3390
10602SOL    HW137643   6.874  12.157   4.109  0.8413 -0.4383 -0.8466
10602SOL    HW237644   6.995  12.081   4.159  0.2513 -0.3297  0.8168
10603SOL     OW37645   5.540  10.357  10.661  0.0737  0.9559  0.5725
10603SOL    HW137646   5.623  10.337  10.703 -0.6500 -0.3183  1.4591
10603SOL    HW237647   5.479  10.372  10.733 -1.1285 -1.0293  0.0425
10604SOL     OW37648   2.018   6.136  10.895 -0.0872 -0.4371 -0.0062
10604SOL    HW137649   2.078   6.066  10.871  2.1470  1.7159 -1.2337
10604SOL    HW237650   1.938   6.116  10.848  0.6740 -1.9032 -0.7350
10605SOL     OW37651   8.463   6.705   7.834  0.3318 -0.3502 -0.6631
10605SOL    HW137652   8.387   6.750   7.798  0.9471 -0.0757 -1.6497
10605SOL    HW237653   8.516   6.682   7.758  1.6241  0.1674  0.0528
10606SOL     OW37654   3.208   0.780   0.917 -0.3044  0.3038  0.0217
10606SOL    HW137655   3.265   0.851   0.888  0.0633  0.1818  0.4310
10606SOL    HW237656   3.163   0.816   0.993 -0.1761  0.1246  0.1811
10607SOL     OW37657   0.507  10.237   0.694 -0.2346 -0.4494  0.6599
10607SOL    HW137658   0.479  10.299   0.627  1.5610  0.7431  0.9400
10607SOL    HW237659   0.473  10.153   0.665 -0.5114  0.2345 -1.1189
10608SOL     OW37660   6.272   3.087   1.863 -0.7185  0.0172  0.0729
10608SOL    HW137661   6.358   3.046   1.874 -0.0000  1.0345 -1.4382
10608SOL    HW237662   6.215   3.016   1.832 -0.3518 -0.5870  0.7714
10609SOL     OW37663   8.726  11.364   7.847 -0.1029  0.7197  0.4988
10609SOL    HW137664   8.702  11.355   7.755 -0.9626  0.7407  0.7077
10609SOL    HW237665   8.795  11.299   7.860 -0.4202  0.2698 -0.0089
10610SOL     OW37666   1.241  11.103   9.787  0.1826  0.0468 -0.1006
10610SOL    HW137667   1.251  11.118   9.693 -1.0289 -0.2331 -0.2862
10610SOL    HW237668   1.331  11.103   9.820  0.6454 -0.0569 -1.2857
10611SOL     OW37669   1.821   1.222   7.993  0.2199 -0.2734  0.3712
10611SOL    HW137670   1.797   1.184   8.078 -0.3110  1.2967  0.9509
10611SOL    HW237671   1.738   1.239   7.949  0.3404  1.5729  0.7671
10612SOL     OW37672   2.562   0.283  11.607  0.2812 -0.1975 -0.3087
10612SOL    HW137673   2.627   0.228  11.652  0.2655  0.9062  1.0896
10612SOL    HW237674   2.486   0.226  11.597 -0.4375  0.0350  2.8207
10613SOL     OW37675  10.839   2.162   9.583  0.0843 -0.3073  0.0297
10613SOL    HW137676  10.785   2.150   9.661  1.7949 -0.9496  1.1696
10613SOL    HW237677  10.869   2.074   9.560 -1.2893 -0.3109 -2.0949
10614SOL     OW37678   6.160   1.690   7.542 -0.5178  0.6676 -0.0822
10614SOL    HW137679   6.219   1.716   7.471 -1.7335 -0.6817 -1.6605
10614SOL    HW237680   6.115   1.771   7.566  0.4463  1.2949 -0.3205
10615SOL     OW37681   2.275   9.552   5.003 -0.0083 -0.8160 -0.2686
10615SOL    HW137682   2.307   9.462   5.007 -2.0593 -1.5728  1.0571
10615SOL    HW237683   2.350   9.603   4.973  1.3075 -2.9057 -0.7658
10616SOL     OW37684   6.290   9.087  11.220 -0.1060  0.1551  0.3959
10616SOL    HW137685   6.350   9.054  11.287  0.7992 -1.5100 -1.1392
10616SOL    HW237686   6.331   9.062  11.137 -1.3802  1.7993 -0.7948
10617SOL     OW37687   7.739   1.275   5.563  0.4305  0.2844 -0.2659
10617SOL    HW137688   7.702   1.337   5.500 -0.4468  0.5213  0.4563
10617SOL    HW237689   7.729   1.190   5.522  1.0369  0.5584 -0.9879
10618SOL     OW37690  11.827   9.163   8.072 -0.4611 -0.3354  0.4012
10618SOL    HW137691  11.853   9.114   8.150  0.6950 -1.6613 -0.7415
10618SOL    HW237692  11.808   9.251   8.103  2.5628 -0.0776  1.8521
10619SOL     OW37693  10.653   9.599   7.017 -0.4420 -0.3403 -0.5544
10619SOL    HW137694  10.598   9.675   7.035 -1.1854 -1.0652  0.3133
10619SOL    HW237695  10.693   9.578   7.101 -0.3990 -1.0382 -0.7483
10620SOL     OW37696   8.631   4.126   0.843  0.4362 -0.0169 -0.0265
10620SOL    HW137697   8.699   4.088   0.898  0.8127  0.8556  0.1135
10620SOL    HW237698   8.568   4.054   0.831  1.1894 -0.7187  0.1386
10621SOL     OW37699   4.529   5.017   9.496 -0.1153  0.0529  0.5631
10621SOL    HW137700   4.480   5.099   9.490  1.0271  0.7160 -0.1938
10621SOL    HW237701   4.481   4.956   9.440  0.0618  0.7819 -0.4074
10622SOL     OW37702  10.406   2.936   5.404 -0.0510  0.1080  0.4740
10622SOL    HW137703  10.446   2.948   5.318  1.1359 -0.1660  0.9774
10622SOL    HW237704  10.343   2.865   5.391  0.2330 -0.0363 -0.1246
10623SOL     OW37705   1.071   0.680  10.302 -0.4923 -0.6907  0.2426
10623SOL    HW137706   1.153   0.706  10.261 -0.0515 -1.3802  0.6613
10623SOL    HW237707   1.007   0.744  10.272  0.2216 -0.0891 -0.0076
10624SOL     OW37708   0.757   2.961   4.034 -0.5680 -0.1408 -0.4371
10624SOL    HW137709   0.794   3.038   3.992  1.0000 -1.3854 -1.4215
10624SOL    HW237710   0.690   2.929   3.974 -0.9551  0.2292 -0.2045
10625SOL     OW37711  11.221  10.094   3.037 -0.0960 -0.0827  0.5520
10625SOL    HW137712  11.270  10.049   3.106  0.0198 -0.3902  0.2711
10625SOL    HW237713  11.130  10.088   3.064  0.0706  1.3607  1.5901
10626SOL     OW37714   1.594  10.499  11.342 -0.0893  0.1929 -0.0328
10626SOL    HW137715   1.633  10.523  11.426 -0.1301  0.8225 -0.1873
10626SOL    HW237716   1.545  10.419  11.361 -1.1572  1.0175  0.8539
10627SOL     OW37717   7.133   0.227  10.600 -0.2721 -0.1407  0.5670
10627SOL    HW137718   7.134   0.301  10.661  0.5905  1.0910 -0.8784
10627SOL    HW237719   7.178   0.259  10.522  0.5250 -2.3542  0.0526
10628SOL     OW37720   2.280   4.594   4.006  0.1888 -0.6248  0.0592
10628SOL    HW137721   2.230   4.566   4.083  1.3590 -1.1037  0.6637
10628SOL    HW237722   2.248   4.539   3.935 -0.8475 -0.2338  0.1995
10629SOL     OW37723   0.523   4.281   1.318  0.0272  0.2975  0.2619
10629SOL    HW137724   0.437   4.264   1.281  0.7135  1.2988 -1.9294
10629SOL    HW237725   0.574   4.203   1.297 -0.1294  0.0031  0.9421
10630SOL     OW37726   7.658  10.126   9.504  0.5194 -0.5473  0.7911
10630SOL    HW137727   7.653  10.096   9.413  2.1331 -0.8800  0.7857
10630SOL    HW237728   7.578  10.092   9.545 -0.6372  0.2801 -0.6597
10631SOL     OW37729   3.485   4.046   3.349  0.0925 -0.5843  0.2774
10631SOL    HW137730   3.534   4.101   3.410 -1.0155 -0.4144  1.0579
10631SOL    HW237731   3.448   3.977   3.405 -1.2230 -0.2353 -0.1202
10632SOL     OW37732   8.738   2.844   4.595 -0.3295  0.7637 -0.7461
10632SOL    HW137733   8.772   2.909   4.534 -0.6002  1.4493 -0.1809
10632SOL    HW237734   8.649   2.874   4.615 -0.4226  0.2723 -0.3928
10633SOL     OW37735   2.581  11.368  10.689  0.2436 -0.2167  0.2709
10633SOL    HW137736   2.490  11.352  10.715 -0.9364  1.0060 -2.6913
10633SOL    HW237737   2.612  11.282  10.660 -0.3564 -0.4038  0.1652
10634SOL     OW37738  10.322   1.190   7.010  0.1855 -0.2268  0.5068
10634SOL    HW137739  10.383   1.224   7.075  1.0217 -0.5528 -0.0924
10634SOL    HW237740  10.378   1.155   6.940 -0.6510 -1.7028  0.5296
10635SOL     OW37741   5.780   1.084   0.310 -0.2297 -0.1525 -0.3686
10635SOL    HW137742   5.712   1.017   0.310  0.8416 -1.2860 -1.7493
10635SOL    HW237743   5.759   1.140   0.235 -1.3536  1.3735  1.0081
10636SOL     OW37744  12.149   0.833   1.455  0.5635 -0.4631  0.5319
10636SOL    HW137745  12.139   0.922   1.489 -0.5481 -1.0275  1.7983
10636SOL    HW237746  12.094   0.780   1.513  0.7968 -1.8957 -0.5240
10637SOL     OW37747   7.189   8.301   0.101  0.3994  0.2546 -0.2043
10637SOL    HW137748   7.176   8.269   0.190  0.8437 -1.0090 -0.5794
10637SOL    HW237749   7.111   8.272   0.054  1.2620 -1.1803 -0.7840
10638SOL     OW37750   3.424   5.060  11.274 -0.4476  0.3923  0.1543
10638SOL    HW137751   3.499   5.009  11.241 -0.2588  0.4847  0.4421
10638SOL    HW237752   3.444   5.150  11.250 -1.7840  0.1287 -2.2977
10639SOL     OW37753   3.189   7.337   6.256 -0.3864  0.3244 -0.3115
10639SOL    HW137754   3.115   7.276   6.255  0.2820 -0.5133  0.5373
10639SOL    HW237755   3.258   7.291   6.303  0.3653  1.4783 -0.2524
10640SOL     OW37756   2.420   6.699   5.099 -0.4697 -0.0765 -0.3582
10640SOL    HW137757   2.381   6.616   5.070 -1.4233  0.1502  0.2490
10640SOL    HW237758   2.452   6.681   5.187  1.7384 -0.5419 -1.1895
10641SOL     OW37759   7.730  11.744   8.997 -0.8136 -0.1733 -0.1904
10641SOL    HW137760   7.710  11.823   8.947  0.1697 -0.3875 -0.9257
10641SOL    HW237761   7.820  11.756   9.027 -0.7381 -0.9040 -0.1009
10642SOL     OW37762   4.227   4.478   4.471  0.1502 -0.0786 -0.6851
10642SOL    HW137763   4.319   4.451   4.470  1.1276  2.5479  2.0089
10642SOL    HW237764   4.184   4.411   4.524  0.7586 -0.6668 -0.9055
10643SOL     OW37765  10.276   8.062   0.455 -0.3952 -0.5007  0.4981
10643SOL    HW137766  10.352   8.042   0.401  1.0972  0.2505  2.2361
10643SOL    HW237767  10.310   8.115   0.527 -3.1175  3.2888 -0.6709
10644SOL     OW37768   2.037  10.270   7.109 -0.4815  0.2888  0.5517
10644SOL    HW137769   1.967  10.319   7.151 -1.8183  0.2785 -1.4901
10644SOL    HW237770   1.997  10.186   7.086 -0.0155  0.5006 -1.1671
10645SOL     OW37771   8.643   9.706  11.204  0.1499 -0.0959 -0.4851
10645SOL    HW137772   8.560   9.664  11.183 -0.0821 -0.1336  0.4953
10645SOL    HW237773   8.659   9.764  11.130 -0.6799 -0.1908 -0.7488
10646SOL     OW37774   6.169   5.232   9.617  0.0184 -0.0558 -0.0655
10646SOL    HW137775   6.131   5.194   9.539 -1.7951  2.7218 -0.6646
10646SOL    HW237776   6.238   5.290   9.585  0.2463 -0.0027  0.5032
10647SOL     OW37777   1.266   2.886   9.305  0.6245  0.2371 -0.1338
10647SOL    HW137778   1.193   2.947   9.318 -1.0163 -1.2032 -1.9934
10647SOL    HW237779   1.343   2.943   9.294 -0.6689  1.9345 -0.8821
10648SOL     OW37780   7.727   5.011   1.172  0.3123 -0.2304 -0.4615
10648SOL    HW137781   7.665   5.070   1.130  0.2961 -0.3774 -0.6445
10648SOL    HW237782   7.793   4.993   1.105  0.2840 -0.4690 -0.4258
10649SOL     OW37783   0.603   3.866   6.181 -0.0605  0.6280 -0.4584
10649SOL    HW137784   0.607   3.954   6.142  2.1991  1.3199  1.1620
10649SOL    HW237785   0.653   3.811   6.121  0.4485  0.9534 -0.3408
10650SOL     OW37786   0.266  10.884   0.252  0.1620  0.1051  0.0726
10650SOL    HW137787   0.201  10.819   0.279  2.3862 -1.2233  2.7154
10650SOL    HW237788   0.325  10.835   0.195  0.5386  0.4487  0.1682
10651SOL     OW37789   9.463  11.017   1.869  0.1398 -0.4895  0.1023
10651SOL    HW137790   9.414  11.061   1.938  0.4185 -0.0980  0.0566
10651SOL    HW237791   9.411  11.031   1.790 -0.1216 -0.8397  0.2093
10652SOL     OW37792   7.546   6.915   7.518  0.1930  0.1135 -0.2556
10652SOL    HW137793   7.578   6.948   7.603  0.5835 -0.8253 -0.0220
10652SOL    HW237794   7.455   6.944   7.514 -0.3314 -1.1782  1.2376
10653SOL     OW37795  12.224   4.528   1.447  0.1249 -0.0392  0.2393
10653SOL    HW137796  12.182   4.610   1.423 -0.1689  0.3349  1.9395
10653SOL    HW237797  12.312   4.553   1.474  0.3110 -0.4010 -0.0176
10654SOL     OW37798   4.017  10.026  12.046 -0.0536  0.6064 -0.0637
10654SOL    HW137799   3.941  10.070  12.083  0.2327  0.3042  0.9162
10654SOL    HW237800   4.039  10.078  11.969 -2.0980 -0.1363 -1.2120
10655SOL     OW37801   2.856   3.383  11.218  0.0626 -0.1305 -0.6284
10655SOL    HW137802   2.771   3.415  11.250 -1.3141 -1.8114 -2.3358
10655SOL    HW237803   2.895   3.457  11.173 -0.3993  0.7244  0.3354
10656SOL     OW37804   7.800   1.372   0.333 -0.1211 -0.2191  0.0636
10656SOL    HW137805   7.726   1.337   0.383  0.2464  0.3535  1.0400
10656SOL    HW237806   7.759   1.426   0.265 -0.6104  0.1849  0.6704
10657SOL     OW37807   5.219   4.690   3.782 -0.3619 -0.4313  0.5182
10657SOL    HW137808   5.294   4.724   3.830  0.5799 -0.9300 -0.5843
10657SOL    HW237809   5.159   4.660   3.851 -2.1168  4.8474  1.7823
10658SOL     OW37810   4.807   4.241  10.531  0.2306  0.6582  0.4036
10658SOL    HW137811   4.837   4.292  10.456 -2.0745  1.1423 -0.2627
10658SOL    HW237812   4.712   4.233  10.518  0.3226 -2.9073  1.0223
10659SOL     OW37813  10.220   8.247   3.034 -0.8360 -0.3450 -0.0561
10659SOL    HW137814  10.224   8.241   3.129 -0.1044 -1.6251 -0.1365
10659SOL    HW237815  10.126   8.245   3.013 -1.0131  0.3510  0.6489
10660SOL     OW37816   9.312   7.378   9.288  0.0834 -0.2498 -0.0349
10660SOL    HW137817   9.290   7.285   9.301  2.7054 -1.0055 -0.5023
10660SOL    HW237818   9.320   7.413   9.376 -0.4492 -0.5904  0.1534
10661SOL     OW37819   6.919   8.209   5.960  0.0871  0.3376 -0.0915
10661SOL    HW137820   6.850   8.240   6.019  0.8762  2.0287 -0.0190
10661SOL    HW237821   6.959   8.289   5.926  1.3858 -0.6244 -0.8854
10662SOL     OW37822   8.663  10.794   3.655  0.0361 -0.1207  0.0905
10662SOL    HW137823   8.633  10.704   3.666 -2.0962  0.3801 -0.9984
10662SOL    HW237824   8.739  10.788   3.597 -0.8420 -1.1448 -1.0058
10663SOL     OW37825   5.447  11.236   1.811 -0.1198 -0.0430  0.3969
10663SOL    HW137826   5.475  11.151   1.776  0.4086 -0.0964  0.9315
10663SOL    HW237827   5.357  11.246   1.781  0.0648 -0.4468 -0.3103
10664SOL     OW37828   0.318  10.252   5.313 -0.2541  0.5398 -0.6336
10664SOL    HW137829   0.365  10.189   5.368 -0.8827 -0.6747 -1.4337
10664SOL    HW237830   0.385  10.316   5.288  0.0876  1.0434  1.3588
10665SOL     OW37831   8.541   4.559   6.150 -0.0418  0.0995  0.8682
10665SOL    HW137832   8.522   4.491   6.086 -0.5897  0.7935  0.2796
10665SOL    HW237833   8.599   4.517   6.213 -1.4051 -1.3151  1.2466
10666SOL     OW37834   1.396   9.292   4.376 -0.1953  0.1751 -0.1872
10666SOL    HW137835   1.361   9.381   4.380 -0.4752  0.0887 -0.5725
10666SOL    HW237836   1.459   9.294   4.304 -2.0031 -0.5252 -1.8798
10667SOL     OW37837   4.527   0.223   3.112  0.0333 -0.1684 -0.2696
10667SOL    HW137838   4.577   0.145   3.089 -0.1414 -0.1770 -0.6357
10667SOL    HW237839   4.468   0.195   3.182  0.1311 -0.3059 -0.2430
10668SOL     OW37840  11.953   7.282   9.864 -0.3773 -0.1273  0.6407
10668SOL    HW137841  11.883   7.230   9.825  0.5718 -1.5137  0.6674
10668SOL    HW237842  12.032   7.228   9.852  0.2673  0.2131  2.8140
10669SOL     OW37843   9.305   2.168   3.283 -0.0572 -0.1367 -0.3916
10669SOL    HW137844   9.283   2.243   3.339  0.4656  0.9037 -1.5104
10669SOL    HW237845   9.267   2.190   3.198  0.5591 -0.8888 -0.8746
10670SOL     OW37846   8.274   9.428   4.924  0.5000  0.3649 -0.2713
10670SOL    HW137847   8.238   9.506   4.881 -1.3244 -0.7265 -0.8404
10670SOL    HW237848   8.200   9.368   4.932  1.3807 -0.5461  2.0288
10671SOL     OW37849   8.378   8.753   8.837  0.5758 -0.0825  0.6473
10671SOL    HW137850   8.403   8.672   8.881 -0.8236  0.3559  2.3391
10671SOL    HW237851   8.441   8.818   8.869  0.5576 -0.1027  0.7235
10672SOL     OW37852   5.978  10.369   7.293 -0.2560 -0.2101 -0.3120
10672SOL    HW137853   6.001  10.277   7.300 -0.0894 -0.1747 -0.4002
10672SOL    HW237854   6.055  10.411   7.256 -0.0853  0.0773  0.3540
10673SOL     OW37855   4.478  11.346   0.533 -0.4115  0.9913  0.3760
10673SOL    HW137856   4.490  11.422   0.475  0.2504  0.1608 -0.6096
10673SOL    HW237857   4.562  11.337   0.579 -0.3922  0.6998  0.2871
10674SOL     OW37858   1.194   5.944   3.898 -0.3869  0.0904  0.0413
10674SOL    HW137859   1.203   5.859   3.856 -0.1384 -0.2185  0.7041
10674SOL    HW237860   1.254   5.941   3.973 -0.2272  0.9204 -0.0370
10675SOL     OW37861   1.218   9.900   5.580 -0.5338 -0.1699 -0.1475
10675SOL    HW137862   1.301   9.863   5.608 -0.3823 -0.2835 -0.7328
10675SOL    HW237863   1.221   9.898   5.484 -1.4851 -0.7965 -0.1806
10676SOL     OW37864   9.466   9.627   4.542 -0.0471  0.2495 -0.1997
10676SOL    HW137865   9.459   9.534   4.564 -0.3701  0.4092  0.4018
10676SOL    HW237866   9.425   9.672   4.616 -1.2202  0.8183 -1.1589
10677SOL     OW37867   1.932   7.929   3.341 -0.4503 -0.4827  0.0847
10677SOL    HW137868   1.899   7.852   3.294  0.3547 -0.8949  0.1854
10677SOL    HW237869   2.012   7.953   3.296 -0.2577 -0.2033  0.5658
10678SOL     OW37870  10.122   9.627  10.891 -0.5734  0.5141 -0.1180
10678SOL    HW137871  10.066   9.703  10.874  0.0749  0.7999 -1.0625
10678SOL    HW237872  10.211   9.658  10.873 -0.2401 -0.3058  0.0699
10679SOL     OW37873   2.987   5.931   6.581 -0.0013  0.2293 -0.2219
10679SOL    HW137874   2.892   5.919   6.588  0.0698 -1.6260 -1.5420
10679SOL    HW237875   2.998   6.022   6.554 -1.4084  0.4191 -0.2457
10680SOL     OW37876   9.894   5.770   3.626 -0.4545 -0.3336 -1.0161
10680SOL    HW137877   9.951   5.741   3.555  1.5006 -1.7349  1.0144
10680SOL    HW237878   9.807   5.778   3.585  0.6284 -0.7228 -3.5974
10681SOL     OW37879   2.036   6.900   7.674  0.0362 -0.1241  0.3338
10681SOL    HW137880   1.942   6.893   7.692  0.1743  1.1294  1.6914
10681SOL    HW237881   2.041   6.910   7.579 -1.2212 -0.0163  0.2662
10682SOL     OW37882   8.287   9.127   3.111 -0.3270  0.1012 -0.0805
10682SOL    HW137883   8.379   9.143   3.131 -0.8876  0.6920  2.3974
10682SOL    HW237884   8.267   9.044   3.155 -0.9142 -0.2031 -0.8964
10683SOL     OW37885   0.657   5.406   9.884 -0.0216  0.3231 -0.4901
10683SOL    HW137886   0.697   5.337   9.832  0.7029 -0.2930  0.8262
10683SOL    HW237887   0.565   5.382   9.890  0.3108 -0.7876  0.3355
10684SOL     OW37888   5.986  11.857  12.038  0.5355 -0.2494  0.1813
10684SOL    HW137889   6.025  11.925  12.093 -1.3039  1.9361 -1.0180
10684SOL    HW237890   5.997  11.889  11.948 -1.1878 -1.0534 -0.3694
10685SOL     OW37891   3.556   3.563   5.789 -0.2232 -0.1272 -0.0773
10685SOL    HW137892   3.638   3.530   5.824  1.1743  1.4557 -1.7028
10685SOL    HW237893   3.564   3.658   5.794 -1.8078  0.0622 -0.6214
10686SOL     OW37894   1.027   9.816   9.266  0.5425 -0.1778  0.1689
10686SOL    HW137895   1.054   9.790   9.354  1.2787 -2.7701 -0.7133
10686SOL    HW237896   0.932   9.808   9.267  0.6564 -2.1776  0.2586
10687SOL     OW37897   1.156   3.378  11.030  0.2256  0.4291  0.4540
10687SOL    HW137898   1.170   3.357  11.122 -1.6359 -1.3350  0.4160
10687SOL    HW237899   1.228   3.333  10.984 -0.2694 -0.8284  0.8764
10688SOL     OW37900   4.709   0.301  10.309 -0.3666 -0.3028  0.3236
10688SOL    HW137901   4.760   0.381  10.298 -0.2693 -0.5534 -1.3495
10688SOL    HW237902   4.663   0.313  10.392  1.3909  0.4940  1.2390
10689SOL     OW37903   2.507   2.746   7.845  0.2674  0.8433  0.4426
10689SOL    HW137904   2.518   2.821   7.787  1.2717  0.1594 -0.2942
10689SOL    HW237905   2.573   2.759   7.914  0.1368  0.8630  0.5647
10690SOL     OW37906   5.647   2.142   2.971  0.2988  0.0039 -0.2581
10690SOL    HW137907   5.624   2.053   2.945  1.8996 -0.2370 -1.0112
10690SOL    HW237908   5.566   2.179   3.005 -0.5700 -1.5057 -0.5793
10691SOL     OW37909   3.577   9.818   2.197 -0.3405  0.2716 -0.6103
10691SOL    HW137910   3.634   9.776   2.262 -1.3099 -0.9077 -0.4884
10691SOL    HW237911   3.493   9.827   2.241 -1.0666 -0.7309 -1.7421
10692SOL     OW37912  10.070   0.794   8.117 -0.3185 -0.5748 -0.0394
10692SOL    HW137913  10.119   0.818   8.196  0.6809  2.4032 -1.4156
10692SOL    HW237914   9.979   0.813   8.138 -0.0004  0.6971  0.2809
10693SOL     OW37915   0.271   3.461  11.774 -0.0397  0.0612  0.2125
10693SOL    HW137916   0.360   3.439  11.745 -0.4024  0.3535 -1.1715
10693SOL    HW237917   0.234   3.512  11.702 -2.0827 -1.8175 -0.1811
10694SOL     OW37918   2.697   5.515   4.837  0.1658  0.1496  0.0658
10694SOL    HW137919   2.608   5.523   4.871 -0.5101 -1.2026 -1.2360
10694SOL    HW237920   2.706   5.421   4.817  0.7239  0.7290 -2.7817
10695SOL     OW37921   5.158  10.764   2.433  0.2507  0.3037 -0.1041
10695SOL    HW137922   5.190  10.681   2.468  0.2879 -0.8220 -2.5867
10695SOL    HW237923   5.063  10.755   2.432  0.2836 -0.0412 -1.0583
10696SOL     OW37924   3.910   5.139  12.065 -0.1205  0.2090  0.4003
10696SOL    HW137925   3.916   5.103  12.154 -1.9905 -1.1914  0.0175
10696SOL    HW237926   3.939   5.230  12.074 -0.2815  0.1101  2.4458
10697SOL     OW37927  10.265   9.107   9.495 -0.4046  0.0529 -0.0792
10697SOL    HW137928  10.357   9.103   9.469  0.1350 -1.1011  1.8453
10697SOL    HW237929  10.216   9.092   9.413  1.0997  0.2456 -1.0453
10698SOL     OW37930   3.137   3.100  11.760  0.2811  0.0482  0.3502
10698SOL    HW137931   3.152   3.192  11.739 -0.0459  0.3165  1.2223
10698SOL    HW237932   3.133   3.056  11.675  0.2396  0.8723 -0.0869
10699SOL     OW37933  12.325   1.730  10.651 -0.3666  0.9761  0.0005
10699SOL    HW137934  12.367   1.645  10.635 -0.8058  0.3062  2.0742
10699SOL    HW237935  12.357   1.756  10.737 -1.4651  2.1581  0.0722
10700SOL     OW37936   8.319   6.975   0.354 -0.1656  0.9523 -0.6036
10700SOL    HW137937   8.277   7.044   0.303 -1.0691  0.7747 -0.1141
10700SOL    HW237938   8.249   6.913   0.374  0.0509  1.2602  1.2486
10701SOL     OW37939  10.605   5.631   4.415 -0.8152 -0.4474 -0.0452
10701SOL    HW137940  10.593   5.716   4.455  2.1462 -0.2187  0.6169
10701SOL    HW237941  10.670   5.645   4.346 -0.7215 -2.0537 -0.3448
10702SOL     OW37942   2.949   5.506   6.750 -0.5180  0.0951 -0.1476
10702SOL    HW137943   2.933   5.550   6.834  0.7092  0.8533 -0.2831
10702SOL    HW237944   3.037   5.469   6.760  0.2473  1.4234 -1.5827
10703SOL     OW37945   1.676   0.933  10.392  0.4691 -0.1538 -0.2385
10703SOL    HW137946   1.606   0.992  10.364 -0.7562 -1.8606 -0.9070
10703SOL    HW237947   1.751   0.991  10.407 -1.4573  2.0221  2.1227
10704SOL     OW37948   0.185   7.140   3.250 -0.2496 -1.0296  0.1624
10704SOL    HW137949   0.198   7.161   3.342 -2.7282 -0.1014  0.3663
10704SOL    HW237950   0.123   7.067   3.249  1.0157 -2.1550 -0.7843
10705SOL     OW37951   8.591   2.928  10.861  0.7585  0.0249  0.0310
10705SOL    HW137952   8.659   2.938  10.794 -0.2090  0.1572 -0.9628
10705SOL    HW237953   8.637   2.938  10.944  1.7624  1.2987 -0.6487
10706SOL     OW37954   2.708  11.714   2.927  0.0427  0.1114 -0.6214
10706SOL    HW137955   2.764  11.648   2.885 -3.2586 -3.3391 -0.0938
10706SOL    HW237956   2.700  11.783   2.861  1.8170 -1.0700 -2.1885
10707SOL     OW37957  11.439  10.123   8.543  0.4601  0.1616  0.3917
10707SOL    HW137958  11.387  10.150   8.618  2.3237  0.7908  1.5429
10707SOL    HW237959  11.518  10.178   8.547  1.2939 -0.8303 -1.1464
10708SOL     OW37960   4.892  11.837   1.930 -0.4536  0.0121  0.2867
10708SOL    HW137961   4.884  11.810   2.022 -1.1730 -0.2935  0.1491
10708SOL    HW237962   4.902  11.755   1.882  3.3553  0.2825  0.3355
10709SOL     OW37963   0.769   5.744   2.963 -1.0427 -0.0020  0.1797
10709SOL    HW137964   0.704   5.675   2.977 -0.0336 -0.7987  1.1757
10709SOL    HW237965   0.770   5.757   2.868 -0.9246 -1.7090 -0.0818
10710SOL     OW37966   8.433   1.834   0.532 -0.0636  0.0954 -0.2975
10710SOL    HW137967   8.516   1.845   0.578  1.5541 -0.3936 -2.8427
10710SOL    HW237968   8.455   1.854   0.440 -2.5834 -0.8000 -1.1705
10711SOL     OW37969   7.411  11.412  11.454 -0.6090  0.1526 -0.5712
10711SOL    HW137970   7.429  11.410  11.548  1.7682 -2.6213 -0.9496
10711SOL    HW237971   7.317  11.392  11.448 -0.5931 -0.7378  1.2254
10712SOL     OW37972   3.923   9.199   7.237 -0.5852 -0.5010 -0.2839
10712SOL    HW137973   3.945   9.290   7.260 -0.2510 -1.0998  2.0134
10712SOL    HW237974   3.888   9.162   7.318  0.2671 -2.7108 -0.8572
10713SOL     OW37975   6.284  11.365  12.098  0.3267  0.8879  0.0007
10713SOL    HW137976   6.291  11.333  12.008 -0.7800  1.2140 -0.2111
10713SOL    HW237977   6.361  11.329  12.142  0.1512 -0.4313 -0.7177
10714SOL     OW37978   2.468   4.866   3.831  0.6032  0.2205  0.1769
10714SOL    HW137979   2.484   4.773   3.849 -1.1882  0.3546  3.1626
10714SOL    HW237980   2.373   4.875   3.837  0.8028  2.3815  0.9378
10715SOL     OW37981   0.722   7.833  11.860  0.2416  0.9398 -0.7126
10715SOL    HW137982   0.671   7.775  11.804  0.3639  0.4682 -0.3516
10715SOL    HW237983   0.666   7.848  11.936  0.0727  1.5819 -0.9594
10716SOL     OW37984   4.024  10.227   6.727 -0.1735 -0.1446  0.3200
10716SOL    HW137985   4.074  10.146   6.717  1.1546  0.6074  0.6448
10716SOL    HW237986   4.018  10.263   6.638 -1.3394 -0.9047  0.0707
10717SOL     OW37987  11.853   0.069   6.740  0.0961 -0.1573 -0.4793
10717SOL    HW137988  11.944   0.038   6.745 -0.0031 -0.3094  0.5782
10717SOL    HW237989  11.848   0.114   6.655  1.1639 -0.1104 -0.5339
10718SOL     OW37990   3.607   7.394   0.678  0.8456 -0.3461 -0.4959
10718SOL    HW137991   3.587   7.307   0.644 -1.3433  0.0214 -0.2879
10718SOL    HW237992   3.693   7.414   0.642  2.6421 -3.5936  1.4691
10719SOL     OW37993  11.859   0.599   1.148 -0.0966 -0.0181 -0.4501
10719SOL    HW137994  11.840   0.507   1.130 -0.1111  0.3119 -2.2911
10719SOL    HW237995  11.946   0.613   1.112 -0.4409  0.8898 -0.9504
10720SOL     OW37996   3.971   2.008   5.813  0.2649 -0.1229  0.4415
10720SOL    HW137997   3.943   1.947   5.745 -0.5492  0.5744  0.1436
10720SOL    HW237998   4.021   1.953   5.874 -1.0675 -1.2308  0.5766
10721SOL     OW37999   0.889   7.152  10.592 -0.1316 -0.0353  0.1653
10721SOL    HW138000   0.943   7.168  10.670 -0.8554  1.0336  0.4589
10721SOL    HW238001   0.948   7.107  10.532  0.7083 -0.0697  0.9833
10722SOL     OW38002   8.804   7.791   7.523  0.5717 -0.4135 -0.0240
10722SOL    HW138003   8.806   7.869   7.466 -0.8656 -1.6761 -1.9447
10722SOL    HW238004   8.791   7.826   7.611  1.6129  1.5779 -0.5998
10723SOL     OW38005   8.985   1.977  10.254 -0.3530 -0.2760  0.2998
10723SOL    HW138006   8.988   2.049  10.318 -1.2198 -0.1522  0.2022
10723SOL    HW238007   8.922   2.005  10.188  2.5362  0.8965 -2.2122
10724SOL     OW38008   6.673   5.668   1.088 -1.0269  0.0849 -0.6537
10724SOL    HW138009   6.590   5.646   1.129 -1.5178  1.4922 -0.8572
10724SOL    HW238010   6.685   5.601   1.020 -1.0320 -1.2543  0.6254
10725SOL     OW38011   2.004   0.027  10.599 -0.0500 -0.4713  0.3356
10725SOL    HW138012   2.053  -0.044  10.559  1.0816  0.1334  0.6108
10725SOL    HW238013   2.051   0.046  10.680  0.4137  1.4088 -0.3187
10726SOL     OW38014   2.662   8.616   0.299  0.1958 -0.2919  0.1443
10726SOL    HW138015   2.721   8.587   0.229 -0.5558 -3.0864  0.5792
10726SOL    HW238016   2.578   8.630   0.254  0.3355  0.4520  0.0942
10727SOL     OW38017   1.425   6.398  10.571  0.5528 -0.1988 -0.2060
10727SOL    HW138018   1.350   6.424  10.626 -0.5250 -0.5306 -1.4620
10727SOL    HW238019   1.479   6.477  10.566 -0.1294  0.3009  0.0813
10728SOL     OW38020   0.925   1.378   2.863 -0.1743  0.3620 -0.1515
10728SOL    HW138021   0.867   1.426   2.923 -1.5793 -0.4812 -0.7867
10728SOL    HW238022   0.908   1.418   2.778 -1.1009 -0.9747 -0.6310
10729SOL     OW38023  12.031   5.162   3.197 -0.0714 -0.2062  0.4438
10729SOL    HW138024  12.060   5.072   3.210 -0.8030 -0.1840  2.6669
10729SOL    HW238025  12.105   5.215   3.227  0.8257  0.0064 -1.9697
10730SOL     OW38026   6.551   2.102   3.634 -0.2826 -0.4728 -0.1534
10730SOL    HW138027   6.467   2.091   3.590 -0.6120 -0.0787  0.3598
10730SOL    HW238028   6.601   2.161   3.578  0.4754 -2.3560 -1.5495
10731SOL     OW38029   6.739   1.671  10.632 -0.0144  0.1596  0.0353
10731SOL    HW138030   6.722   1.757  10.595  1.7126  0.9395  0.9639
10731SOL    HW238031   6.748   1.685  10.726  0.1041 -1.0555  0.2315
10732SOL     OW38032   2.594   5.761  12.150  0.3676 -0.1261 -0.0521
10732SOL    HW138033   2.572   5.854  12.162  2.1799  0.3428 -0.2024
10732SOL    HW238034   2.511   5.721  12.121 -0.5010  1.3838  0.2371
10733SOL     OW38035   3.246   9.767   7.286  0.5111  0.2693 -1.0717
10733SOL    HW138036   3.332   9.802   7.307 -0.8827  2.3039  1.8815
10733SOL    HW238037   3.239   9.687   7.338 -0.6888  2.1275  1.8145
10734SOL     OW38038   9.155   6.076   7.272 -0.5739  0.0152 -0.2884
10734SOL    HW138039   9.062   6.072   7.252 -0.5740 -0.8893 -0.1340
10734SOL    HW238040   9.173   5.996   7.322  0.4741 -0.3184 -1.1532
10735SOL     OW38041   0.992   4.515   0.534 -0.3520 -0.0496 -0.2099
10735SOL    HW138042   0.923   4.582   0.534 -0.1334  0.1762  0.1779
10735SOL    HW238043   1.070   4.561   0.566 -0.3560 -0.6393  0.6771
10736SOL     OW38044  12.138   1.001   5.891  0.2276 -0.8221 -0.0162
10736SOL    HW138045  12.119   1.086   5.851 -0.2305 -0.4856  0.8847
10736SOL    HW238046  12.221   1.013   5.936 -0.3116 -0.5398  0.9357
10737SOL     OW38047   8.909   2.487   7.107  0.1147  0.0545 -0.1994
10737SOL    HW138048   8.875   2.491   7.196 -1.8780 -0.0820 -0.9047
10737SOL    HW238049   8.838   2.448   7.056  0.6080  1.5330 -2.1234
10738SOL     OW38050   7.496   7.301   8.735 -0.6277  0.4265 -0.6191
10738SOL    HW138051   7.496   7.315   8.640  0.8466  0.3191 -0.6563
10738SOL    HW238052   7.410   7.331   8.764 -0.4458  2.1909 -1.7456
10739SOL     OW38053   9.912   7.550   4.889 -0.4169  0.0385  0.2102
10739SOL    HW138054   9.974   7.536   4.818  0.5877  0.0188  1.0537
10739SOL    HW238055   9.925   7.476   4.948  0.2802  1.0841  1.4479
10740SOL     OW38056   9.231   0.816   4.281  0.2496 -0.0324 -0.1928
10740SOL    HW138057   9.172   0.741   4.287 -1.2843  0.9479 -1.9726
10740SOL    HW238058   9.192   0.873   4.215  1.7545  1.9979  0.5323
10741SOL     OW38059  10.185   3.739   7.457 -0.6816  0.4873  0.4738
10741SOL    HW138060  10.200   3.733   7.362 -0.1166  0.5906  0.5561
10741SOL    HW238061  10.091   3.721   7.467 -1.1219  2.1858 -0.2590
10742SOL     OW38062  10.440   9.039  11.278  0.2990 -0.3061  0.3515
10742SOL    HW138063  10.491   9.078  11.207 -0.1310 -0.9375 -0.3082
10742SOL    HW238064  10.489   9.062  11.357  1.1260 -0.1379 -0.1981
10743SOL     OW38065   6.861   3.123   0.735  0.0937  0.1909  0.1996
10743SOL    HW138066   6.777   3.166   0.718 -0.2061 -0.9407 -1.3394
10743SOL    HW238067   6.915   3.144   0.660  0.1465 -1.5584 -0.3015
10744SOL     OW38068  11.166  10.301   5.752  0.2237 -0.2148  0.1319
10744SOL    HW138069  11.241  10.266   5.703 -1.4742  0.5129 -3.3195
10744SOL    HW238070  11.105  10.228   5.758  0.2501 -0.1869  0.9071
10745SOL     OW38071   3.669   8.296   9.830  0.4799  0.1838  0.0825
10745SOL    HW138072   3.698   8.349   9.904 -4.0177 -0.2437  2.4862
10745SOL    HW238073   3.710   8.210   9.845  1.2864  0.6793  0.8120
10746SOL     OW38074   1.133   5.345   8.630  0.4169  0.4418 -0.2873
10746SOL    HW138075   1.172   5.258   8.629 -0.1530  0.1648  0.7396
10746SOL    HW238076   1.111   5.363   8.539 -0.1323 -0.7927 -0.4109
10747SOL     OW38077   0.216   9.487   0.459  0.0699  0.1708  0.8277
10747SOL    HW138078   0.240   9.415   0.517  0.1064  0.8766  1.7197
10747SOL    HW238079   0.281   9.555   0.477  0.5983  0.1077 -0.6725
10748SOL     OW38080  11.961   6.506   2.013  0.1295 -0.7925  0.4376
10748SOL    HW138081  11.873   6.486   1.982 -0.5214  1.9358  0.2646
10748SOL    HW238082  11.956   6.498   2.108 -1.0999  1.7799  0.6632
10749SOL     OW38083   1.876   6.641  11.049 -0.1288 -0.0960  0.2288
10749SOL    HW138084   1.797   6.682  11.014 -0.1772 -0.2464  0.1618
10749SOL    HW238085   1.883   6.558  11.002 -1.1980 -1.1514  1.8173
10750SOL     OW38086  12.174  11.762  12.190  0.2152  0.3865 -0.4910
10750SOL    HW138087  12.216  11.765  12.276  0.2165  2.0230 -0.5247
10750SOL    HW238088  12.141  11.672  12.183  1.7679 -0.2877  0.4532
10751SOL     OW38089   6.101   5.443   7.569  0.3555  0.6065  0.0058
10751SOL    HW138090   6.168   5.481   7.513  0.0330  0.3213 -0.5914
10751SOL    HW238091   6.025   5.499   7.558 -0.0659 -0.0841 -0.7418
10752SOL     OW38092   8.486   9.677   9.709 -0.2362  0.2030  0.2101
10752SOL    HW138093   8.446   9.673   9.622 -1.1839 -1.1275  0.6794
10752SOL    HW238094   8.494   9.586   9.736  0.5184  0.5794  1.3166
10753SOL     OW38095   4.183   6.508  11.206  0.4161 -0.4897 -0.3437
10753SOL    HW138096   4.105   6.536  11.254  0.0929  0.4979 -1.3958
10753SOL    HW238097   4.154   6.429  11.159 -0.8491  1.3277 -2.8426
10754SOL     OW38098   9.977  10.006   4.599 -0.4285  0.0064  0.5438
10754SOL    HW138099   9.966   9.928   4.654 -1.7324  0.0204  0.3341
10754SOL    HW238100  10.053  10.051   4.636 -0.2538 -0.8597  1.2710
10755SOL     OW38101   2.355   0.829   2.707  0.4403 -0.2562  0.1000
10755SOL    HW138102   2.424   0.765   2.726  1.2219  0.8143  1.0685
10755SOL    HW238103   2.276   0.792   2.747  1.0942 -0.1875  1.5345
10756SOL     OW38104   1.797   6.874   4.334  0.8912 -0.0154  0.0423
10756SOL    HW138105   1.761   6.807   4.392  0.0372 -0.5274 -1.0506
10756SOL    HW238106   1.868   6.830   4.287  0.3801 -0.1570 -0.6196
10757SOL     OW38107   5.380   6.548   2.157  0.5508 -0.1736 -0.1639
10757SOL    HW138108   5.434   6.590   2.223 -1.1612  1.3231  0.3571
10757SOL    HW238109   5.299   6.525   2.203 -0.6228  0.7737 -1.6449
10758SOL     OW38110  10.817   1.227   9.490 -0.7163  0.4114  0.2697
10758SOL    HW138111  10.774   1.143   9.507  1.3486 -0.5171  1.1513
10758SOL    HW238112  10.819   1.270   9.576 -1.9303  1.5055 -0.2064
10759SOL     OW38113  11.562   2.007   2.506 -0.1786 -0.2693 -0.4524
10759SOL    HW138114  11.557   2.077   2.441  1.0540  0.1188 -0.1600
10759SOL    HW238115  11.491   2.026   2.567 -0.5833  0.0556 -1.0135
10760SOL     OW38116  12.136   2.836  10.982 -0.4803 -0.8559  0.0493
10760SOL    HW138117  12.132   2.810  10.890  0.8770 -0.9881 -0.0025
10760SOL    HW238118  12.198   2.908  10.983  1.8948 -2.7522  1.2007
10761SOL     OW38119   3.934  11.809  11.998  0.1742 -0.1101 -0.0877
10761SOL    HW138120   3.876  11.805  12.073  0.9954  0.7289  0.6224
10761SOL    HW238121   3.963  11.900  11.995 -0.3751  0.0424 -1.8493
10762SOL     OW38122   5.930   0.789   0.949  0.1518 -0.5745 -0.4717
10762SOL    HW138123   5.997   0.853   0.924  0.3888 -0.3325  0.6843
10762SOL    HW238124   5.903   0.817   1.037 -0.3577 -1.5667 -0.2978
10763SOL     OW38125   0.585   8.390   8.724  0.1773 -0.3661 -0.4861
10763SOL    HW138126   0.600   8.479   8.694 -0.0972 -0.6503 -1.5311
10763SOL    HW238127   0.627   8.335   8.657  0.1375 -1.0206  0.0153
10764SOL     OW38128  11.375  10.480   0.230  0.0578 -0.4203 -0.4825
10764SOL    HW138129  11.416  10.397   0.204 -2.4674 -1.9885  0.2575
10764SOL    HW238130  11.353  10.468   0.322 -1.0945  0.7412 -0.5820
10765SOL     OW38131   3.607   3.637   3.124 -0.3333 -0.3651 -0.1485
10765SOL    HW138132   3.602   3.728   3.093 -2.1428 -0.8661 -1.4790
10765SOL    HW238133   3.549   3.634   3.200  0.2081 -0.2783  0.2726
10766SOL     OW38134   4.411   1.389  11.809 -0.5280  0.1554 -0.2096
10766SOL    HW138135   4.461   1.453  11.758 -0.8871  0.9909  0.4453
10766SOL    HW238136   4.381   1.325  11.745  0.4748  0.2232 -0.7728
10767SOL     OW38137   3.602   7.117   5.869  0.2539 -0.4603 -0.0775
10767SOL    HW138138   3.671   7.180   5.890 -1.7347  1.9208 -0.2356
10767SOL    HW238139   3.606   7.052   5.939  0.6773  1.3484  1.6668
10768SOL     OW38140  11.818   0.783   8.301 -0.4467 -0.4962 -0.0369
10768SOL    HW138141  11.877   0.756   8.372 -0.2083 -2.2050 -0.8427
10768SOL    HW238142  11.790   0.871   8.326  2.4467  0.4002  0.3665
10769SOL     OW38143   1.228   3.565   6.542 -0.0643  0.2460  0.1788
10769SOL    HW138144   1.153   3.542   6.488  0.2240  0.7594 -0.4554
10769SOL    HW238145   1.304   3.547   6.487  0.2122  1.3807  0.1640
10770SOL     OW38146   6.477  11.377   3.311  0.3291  0.1476 -0.0893
10770SOL    HW138147   6.438  11.431   3.379 -0.8237  0.3187 -0.8578
10770SOL    HW238148   6.426  11.397   3.232 -1.2076 -3.1147 -0.1186
10771SOL     OW38149   0.900   0.201   7.974  0.4202  0.1555  0.1321
10771SOL    HW138150   0.992   0.174   7.970  0.1133 -0.7609 -1.1781
10771SOL    HW238151   0.903   0.292   8.002  1.5417 -0.8516  4.0322
10772SOL     OW38152   4.956   3.872  12.238  0.2793 -0.3409 -0.1704
10772SOL    HW138153   4.987   3.807  12.301  1.8284  1.0873  0.6063
10772SOL    HW238154   4.899   3.822  12.179 -0.7747 -1.8536  1.9703
10773SOL     OW38155   2.982   3.743   2.035 -0.9403 -0.2797  0.5345
10773SOL    HW138156   3.013   3.732   1.946 -1.1125  0.5517  0.3580
10773SOL    HW238157   3.024   3.673   2.085  0.8426  0.5203  0.2125
10774SOL     OW38158   0.987   5.324   4.651  0.4286 -0.1324 -0.0559
10774SOL    HW138159   0.927   5.302   4.723  1.2438  0.3350  0.7989
10774SOL    HW238160   1.050   5.252   4.650  0.9494  0.3011  0.3231
10775SOL     OW38161   6.299   0.351   2.290  0.7666 -0.3106 -0.1977
10775SOL    HW138162   6.342   0.388   2.213 -1.2112  3.2634  0.1653
10775SOL    HW238163   6.206   0.351   2.267  0.2557 -0.3387  1.6995
10776SOL     OW38164   5.341  12.296   3.710 -0.1887  0.6029 -0.0439
10776SOL    HW138165   5.359  12.333   3.623  0.8218 -0.0981 -0.1495
10776SOL    HW238166   5.404  12.225   3.719 -0.7456  0.2263  0.9934
10777SOL     OW38167   9.658   9.241   4.685  0.4019 -0.3639  0.5350
10777SOL    HW138168   9.650   9.239   4.780 -0.2034 -1.5282  0.4750
10777SOL    HW238169   9.741   9.286   4.669  1.4223 -1.7649  1.6663
10778SOL     OW38170   1.171   1.977   3.628  0.0297  0.2160 -0.0812
10778SOL    HW138171   1.105   1.994   3.696 -0.8324  0.9982 -1.0823
10778SOL    HW238172   1.231   1.916   3.669 -0.7432  0.2793  1.2282
10779SOL     OW38173   4.984  11.152   1.625 -0.4774 -0.1772  0.5556
10779SOL    HW138174   4.988  11.132   1.531  0.8256 -0.5735  0.6774
10779SOL    HW238175   5.045  11.225   1.636 -2.2061  1.3039  0.7803
10780SOL     OW38176  12.300   5.578   2.843 -0.3118 -0.0933 -0.2301
10780SOL    HW138177  12.251   5.655   2.873 -2.0022 -0.8596 -0.8755
10780SOL    HW238178  12.267   5.563   2.754 -0.9084 -2.2398  0.3051
10781SOL     OW38179   4.315   2.014  11.632 -0.1988 -0.3999  0.0425
10781SOL    HW138180   4.359   2.033  11.715 -2.2771 -1.1155  1.3638
10781SOL    HW238181   4.349   1.929  11.605  0.5759 -0.1063  0.0682
10782SOL     OW38182   1.496   6.555   0.133 -0.3681  0.7505  0.2286
10782SOL    HW138183   1.517   6.608   0.210 -0.2681 -0.5585  1.1311
10782SOL    HW238184   1.575   6.503   0.118 -0.5663  0.6430 -0.4851
10783SOL     OW38185   1.455  11.015   1.314  0.3008  0.2314 -0.1788
10783SOL    HW138186   1.498  10.930   1.312 -1.8877 -0.9351 -0.9648
10783SOL    HW238187   1.368  10.999   1.275 -0.7137  2.5078  0.9754
10784SOL     OW38188   3.306  10.341  12.292 -0.3662  0.1354 -0.6463
10784SOL    HW138189   3.357  10.413  12.255  2.7452 -1.8022 -0.4635
10784SOL    HW238190   3.301  10.360  12.385  1.9852 -0.6407 -0.3045
10785SOL     OW38191   8.110   5.438   6.695 -0.3853 -0.3564 -0.6304
10785SOL    HW138192   8.093   5.459   6.787  0.9524 -1.7643 -0.0113
10785SOL    HW238193   8.035   5.474   6.648 -1.2408  0.1608  1.0443
10786SOL     OW38194  12.152   7.178   5.756 -0.3344  0.3143  0.0925
10786SOL    HW138195  12.154   7.273   5.747  2.1470  0.2759 -0.3849
10786SOL    HW238196  12.122   7.147   5.670 -0.9348  0.6460  0.1777
10787SOL     OW38197   7.044   4.535  11.415  0.1326 -0.1856  0.2660
10787SOL    HW138198   6.955   4.536  11.381  0.2399 -0.5427 -0.0251
10787SOL    HW238199   7.044   4.600  11.485 -0.5874 -0.8248  0.8699
10788SOL     OW38200  11.335  11.861   6.742  0.1006  0.4728 -0.3175
10788SOL    HW138201  11.331  11.765   6.748  0.7992  0.4503 -0.1721
10788SOL    HW238202  11.425  11.880   6.718  0.3624  1.1745  1.1396
10789SOL     OW38203   3.920   4.629   9.962 -0.4015 -0.1742 -0.3435
10789SOL    HW138204   3.839   4.646  10.011  0.4107 -0.5199  1.1705
10789SOL    HW238205   3.972   4.708   9.971 -0.3708 -0.1209 -0.9339
10790SOL     OW38206   2.005  11.703   1.588 -0.3635  0.3194  0.0429
10790SOL    HW138207   2.047  11.691   1.673  0.1938  0.5108 -0.1972
10790SOL    HW238208   1.923  11.655   1.594 -1.1186  1.7115  1.2539
10791SOL     OW38209   4.083  10.298   3.326 -0.2570 -0.3936 -0.0789
10791SOL    HW138210   4.000  10.251   3.328 -0.4882  0.0140  2.3527
10791SOL    HW238211   4.116  10.293   3.416  0.6017  2.5232 -0.1412
10792SOL     OW38212   7.790  10.763   6.469  0.2488 -0.1161 -0.0338
10792SOL    HW138213   7.827  10.707   6.538 -0.5719  1.7091  2.0074
10792SOL    HW238214   7.748  10.834   6.516 -1.3083  0.6722 -2.4454
10793SOL     OW38215  10.462   0.268  10.179 -1.0324 -0.1061  0.5409
10793SOL    HW138216  10.496   0.189  10.138 -2.0949  0.0535 -0.7430
10793SOL    HW238217  10.537   0.328  10.183 -0.5429 -0.6973  0.2590
10794SOL     OW38218   0.053   8.296   5.914 -0.3088  0.3025 -0.4048
10794SOL    HW138219   0.009   8.282   5.830  0.1550 -2.8745 -0.2461
10794SOL    HW238220   0.145   8.312   5.891 -0.0273 -1.3213 -0.5725
10795SOL     OW38221   2.783   3.167  12.169 -0.5736 -0.2964 -0.8557
10795SOL    HW138222   2.742   3.081  12.172  1.9782 -1.6955 -2.5233
10795SOL    HW238223   2.820   3.180  12.256  0.3658 -1.6567 -1.0237
10796SOL     OW38224   6.419   6.579   5.537  0.1984  0.0529  0.2419
10796SOL    HW138225   6.428   6.486   5.561 -0.5860  0.2183  1.2436
10796SOL    HW238226   6.409   6.624   5.620  0.9162  1.0920 -0.2226
10797SOL     OW38227   6.032   6.690   1.246 -0.1523 -0.4987 -0.5432
10797SOL    HW138228   5.957   6.650   1.203  0.2333 -1.6815 -0.1547
10797SOL    HW238229   6.092   6.617   1.262  1.1134  0.4289 -0.9065
10798SOL     OW38230   9.988   9.010   4.341  0.2808  0.1413 -0.4110
10798SOL    HW138231  10.033   9.086   4.379  1.1782 -0.6832  0.2134
10798SOL    HW238232   9.909   9.047   4.301  0.1134  1.2653  0.8603
10799SOL     OW38233   8.486   9.079   8.343 -0.6023 -0.6423 -1.1636
10799SOL    HW138234   8.489   8.984   8.340 -0.1856 -0.6629 -0.3941
10799SOL    HW238235   8.491   9.106   8.251 -0.5305 -1.3545 -1.3763
10800SOL     OW38236   6.264  10.279   6.386 -0.3998  0.2509 -0.0157
10800SOL    HW138237   6.234  10.284   6.295  0.3707  1.2962 -0.2358
10800SOL    HW238238   6.354  10.311   6.383  0.3934 -1.7277  0.7907
10801SOL     OW38239   2.020   0.631   9.310 -0.2910  0.0498  0.2215
10801SOL    HW138240   1.991   0.713   9.270 -1.5831 -0.3273  0.3365
10801SOL    HW238241   2.099   0.607   9.261 -1.1769  0.1916 -1.3691
10802SOL     OW38242   0.235  10.875   5.976  0.1505 -0.4288  0.4383
10802SOL    HW138243   0.199  10.901   5.891 -1.2346 -2.3201  0.3716
10802SOL    HW238244   0.319  10.836   5.955 -1.1920 -3.1054 -0.4862
10803SOL     OW38245  11.692  10.733   6.887  0.3251 -0.2822 -0.5034
10803SOL    HW138246  11.696  10.795   6.960  0.2410  0.1544 -0.8712
10803SOL    HW238247  11.745  10.773   6.818 -1.3499  0.3624 -1.4786
10804SOL     OW38248  12.199   9.424   6.176  0.2665  0.1004  0.3323
10804SOL    HW138249  12.244   9.489   6.230  1.2100 -0.7515  0.6081
10804SOL    HW238250  12.232   9.437   6.088  0.0343  0.3498  0.2799
10805SOL     OW38251   3.888   1.720   9.322  0.0464  0.3139 -0.1453
10805SOL    HW138252   3.889   1.816   9.315 -1.8342  0.4130  0.3490
10805SOL    HW238253   3.844   1.691   9.242  0.1472 -0.1038 -0.0510
10806SOL     OW38254  10.580   9.683   9.045  0.0423  0.2606 -0.2180
10806SOL    HW138255  10.561   9.590   9.058 -0.8301  0.3035 -1.0179
10806SOL    HW238256  10.672   9.693   9.067 -0.4067 -0.3256  2.2258
10807SOL     OW38257   6.947   7.278   5.389  0.4603 -0.1028  0.0929
10807SOL    HW138258   6.916   7.219   5.320 -1.5827  0.5571  0.3904
10807SOL    HW238259   6.952   7.223   5.467  0.4443 -0.2980 -0.0417
10808SOL     OW38260  11.279   6.742   7.222 -0.1952 -0.3537 -0.1605
10808SOL    HW138261  11.240   6.697   7.147  1.3004 -1.0016 -0.5776
10808SOL    HW238262  11.343   6.802   7.184 -0.2216  0.1241  0.5402
10809SOL     OW38263   2.699  10.949   4.901  0.2690  0.2537 -0.8012
10809SOL    HW138264   2.772  10.888   4.916  0.3557  0.4864 -0.2521
10809SOL    HW238265   2.651  10.910   4.828  1.8926  0.9684 -2.3209
10810SOL     OW38266   0.897  11.332   0.728  0.5794  0.1630 -0.7162
10810SOL    HW138267   0.817  11.344   0.676  1.2007  1.2499 -1.4700
10810SOL    HW238268   0.927  11.244   0.707  1.0073  0.7002 -2.5248
10811SOL     OW38269   0.578  10.876   1.368  0.6837  0.3708  0.0540
10811SOL    HW138270   0.666  10.853   1.396  0.4725  0.5983  0.9240
10811SOL    HW238271   0.551  10.802   1.313  1.1749  0.0012  0.3020
10812SOL     OW38272   9.773   7.562   4.301 -0.1979  0.1269  0.2212
10812SOL    HW138273   9.740   7.586   4.214 -1.8379 -2.1251  0.1337
10812SOL    HW238274   9.757   7.468   4.308  2.7188 -0.3716  1.8168
10813SOL     OW38275  11.896  11.115   3.714  0.1672  0.1464 -0.1594
10813SOL    HW138276  11.877  11.042   3.773  0.3406 -0.3406 -0.6992
10813SOL    HW238277  11.812  11.132   3.671 -0.0176  0.6541  0.3823
10814SOL     OW38278   6.129  10.284   6.160 -0.2950 -0.1288  0.2143
10814SOL    HW138279   6.041  10.248   6.150 -0.0271 -0.9447  0.7053
10814SOL    HW238280   6.128  10.363   6.106 -1.2774 -0.2050  0.0892
10815SOL     OW38281   5.314   1.379   8.902  0.1014 -0.0376 -0.5187
10815SOL    HW138282   5.372   1.357   8.829  1.2173  1.6082 -0.1761
10815SOL    HW238283   5.259   1.450   8.870  0.5310  0.6326  0.1901
10816SOL     OW38284   0.677   1.460   3.060 -0.4038 -0.2473  0.2851
10816SOL    HW138285   0.582   1.463   3.053 -0.3687 -1.3013 -0.9975
10816SOL    HW238286   0.695   1.376   3.103 -0.0468 -0.2131  0.2038
10817SOL     OW38287  10.221   9.445   5.299 -0.5032 -0.3937 -0.1180
10817SOL    HW138288  10.151   9.444   5.363 -0.1331 -0.9970  0.2905
10817SOL    HW238289  10.256   9.355   5.301  0.9224  0.1472  0.4027
10818SOL     OW38290   3.401   7.705   5.228 -0.1601 -0.0990  0.1561
10818SOL    HW138291   3.373   7.745   5.310 -1.4019 -0.6121  0.0042
10818SOL    HW238292   3.336   7.637   5.211  1.4218 -1.6214 -0.0255
10819SOL     OW38293  10.893   0.472   0.955  0.1125  0.6170  0.1830
10819SOL    HW138294  10.895   0.441   0.865 -0.6533 -0.7805  0.6129
10819SOL    HW238295  10.916   0.565   0.950  0.5477  0.4394 -1.3849
10820SOL     OW38296   8.552   6.426   2.853 -0.5491  0.2488  0.0746
10820SOL    HW138297   8.512   6.499   2.806 -1.0605 -0.6664 -0.9636
10820SOL    HW238298   8.487   6.402   2.919 -0.2778  0.8649  0.5798
10821SOL     OW38299  10.584   1.081   4.376 -0.7252  0.3670 -0.2077
10821SOL    HW138300  10.587   1.070   4.281 -1.4871 -0.2236 -0.1748
10821SOL    HW238301  10.498   1.121   4.393 -1.0899 -0.6037  0.3191
10822SOL     OW38302   9.505  11.217   1.649  0.0108 -0.0537  0.4489
10822SOL    HW138303   9.424  11.167   1.640  1.1119 -1.6967 -0.7605
10822SOL    HW238304   9.493  11.266   1.731 -1.6872 -1.1971  0.9489
10823SOL     OW38305   6.172   8.375   6.295  0.4774  0.3311 -0.2604
10823SOL    HW138306   6.227   8.316   6.243  0.3452 -0.6472  0.6912
10823SOL    HW238307   6.104   8.404   6.234  1.4350  0.7566 -1.1697
10824SOL     OW38308   4.319  10.825  11.412  0.6780 -0.1539 -0.5469
10824SOL    HW138309   4.310  10.868  11.497 -0.1748 -0.2549 -0.5775
10824SOL    HW238310   4.353  10.738  11.433 -1.9244 -1.1348 -0.0209
10825SOL     OW38311  12.309   3.994   7.910  0.2130  0.0944 -0.3927
10825SOL    HW138312  12.378   3.935   7.939 -0.0766 -0.3824 -0.6593
10825SOL    HW238313  12.233   3.970   7.964 -0.3925 -0.9482 -1.6703
10826SOL     OW38314   4.517   4.405   2.688 -0.1609  0.0826 -0.3140
10826SOL    HW138315   4.488   4.482   2.640  0.1390  0.6476  0.3875
10826SOL    HW238316   4.600   4.381   2.647  0.6528  1.2225  0.5887
10827SOL     OW38317   7.276   3.560  10.471 -0.1809  0.0460 -0.1899
10827SOL    HW138318   7.321   3.591  10.392  0.9420  0.1987  0.4899
10827SOL    HW238319   7.314   3.612  10.542 -0.4699 -0.7700  0.5808
10828SOL     OW38320   7.563   4.337   7.983 -0.4406 -0.3298 -0.6715
10828SOL    HW138321   7.545   4.360   8.074  2.6332 -0.1798 -0.0107
10828SOL    HW238322   7.560   4.241   7.981  0.8051 -0.3903 -0.0800
10829SOL     OW38323   2.680   6.082   3.407  0.3064  0.0610  0.3590
10829SOL    HW138324   2.694   6.103   3.499 -2.4771 -0.8187  1.0878
10829SOL    HW238325   2.586   6.062   3.401  0.8903 -2.7227 -2.0614
10830SOL     OW38326   8.229   8.535   5.333 -0.6885 -0.2123  0.0634
10830SOL    HW138327   8.258   8.450   5.367  0.6420  0.2920  0.2403
10830SOL    HW238328   8.310   8.581   5.312 -1.3553  1.3483  0.7657
10831SOL     OW38329  10.988   9.414   2.990 -0.4038 -0.2187  0.1811
10831SOL    HW138330  10.959   9.495   2.946 -1.3417  0.2588  1.5977
10831SOL    HW238331  11.039   9.368   2.924  0.4280  1.6805 -0.5774
10832SOL     OW38332   0.466   3.297   0.342  0.4775 -0.0911  0.3964
10832SOL    HW138333   0.487   3.382   0.302  1.8932 -1.2106 -1.4004
10832SOL    HW238334   0.375   3.282   0.318  0.3050  0.7794  0.4633
10833SOL     OW38335   2.711   3.016   1.758  0.2611 -0.2233 -0.2864
10833SOL    HW138336   2.630   2.966   1.761  0.6031 -0.8651 -1.3443
10833SOL    HW238337   2.764   2.980   1.829  0.2693 -0.9615 -0.6632
10834SOL     OW38338   1.141   8.536   6.998  0.2213 -0.1181  0.3457
10834SOL    HW138339   1.097   8.590   7.063  0.4547 -1.6757  1.8863
10834SOL    HW238340   1.234   8.546   7.019  0.2099 -2.5145  1.9482
10835SOL     OW38341   0.923   8.804   0.249 -0.1871  0.6417 -0.2497
10835SOL    HW138342   0.838   8.770   0.277  0.1433 -0.2705 -0.3297
10835SOL    HW238343   0.981   8.727   0.248  0.0430  0.7654 -2.5607
10836SOL     OW38344   4.746   5.520   1.886  0.0069  0.4866 -0.1891
10836SOL    HW138345   4.705   5.602   1.913 -1.1771 -0.5287  1.3142
10836SOL    HW238346   4.836   5.525   1.918  0.1620  1.4752 -0.7564
10837SOL     OW38347  11.507   3.109   2.160  0.1710 -0.3392  0.2486
10837SOL    HW138348  11.584   3.053   2.161 -0.7267 -1.8101 -2.6560
10837SOL    HW238349  11.434   3.050   2.175 -0.6561  0.4287 -0.6385
10838SOL     OW38350   5.804   1.492   8.171 -0.4359  0.4858 -0.0432
10838SOL    HW138351   5.850   1.410   8.189  0.4517  0.9578 -0.1238
10838SOL    HW238352   5.711   1.467   8.169 -0.1301 -0.6574 -0.8324
10839SOL     OW38353  10.871   9.336  10.159  0.3600 -0.6203 -0.1783
10839SOL    HW138354  10.957   9.334  10.116  1.0119 -0.1791  1.0527
10839SOL    HW238355  10.873   9.263  10.220  1.1939  1.2912  2.2385
10840SOL     OW38356   6.528   7.441  11.503 -0.3580  0.1648  0.1956
10840SOL    HW138357   6.604   7.411  11.552 -0.0270  0.7642  0.0553
10840SOL    HW238358   6.461   7.455  11.570  0.6235  2.6872  0.7609
10841SOL     OW38359   8.411   2.167   7.678  0.6571  0.1615  0.6255
10841SOL    HW138360   8.366   2.109   7.616  1.4931  1.7138 -1.5711
10841SOL    HW238361   8.341   2.219   7.717  0.1839 -0.2121  0.2873
10842SOL     OW38362   8.245   2.005   7.461  0.0249 -1.0164 -0.2309
10842SOL    HW138363   8.205   2.055   7.390  1.4263  0.5177 -0.0075
10842SOL    HW238364   8.326   1.971   7.424  0.4024 -0.8357  0.4191
10843SOL     OW38365   4.366   7.527   7.852 -0.0496 -0.1515 -0.0005
10843SOL    HW138366   4.414   7.521   7.769  0.2776  0.5062  0.1306
10843SOL    HW238367   4.318   7.610   7.845 -0.9320 -0.6498  0.0001
10844SOL     OW38368   9.513  12.141  11.050 -0.2555 -0.3585  0.2128
10844SOL    HW138369   9.538  12.050  11.032 -0.7589 -0.5642  0.5517
10844SOL    HW238370   9.421  12.137  11.073 -0.0463  0.1231  1.1686
10845SOL     OW38371   1.870   1.070   8.481 -0.7333 -0.4927  0.0163
10845SOL    HW138372   1.946   1.035   8.435 -0.4411  0.7114 -0.4652
10845SOL    HW238373   1.898   1.075   8.572  0.4009  1.4503 -0.3797
10846SOL     OW38374   0.812   7.245   1.078 -0.0294 -0.6107  0.6913
10846SOL    HW138375   0.813   7.257   1.173  2.1027  0.1921  0.6128
10846SOL    HW238376   0.879   7.305   1.045 -0.4756 -1.1256 -1.3068
10847SOL     OW38377   1.068   8.373   9.096  0.2780  0.0783 -0.3317
10847SOL    HW138378   0.998   8.435   9.115  0.7567  0.1974  1.1230
10847SOL    HW238379   1.069   8.313   9.170  0.9425 -0.6466 -0.9053
10848SOL     OW38380  11.183   0.390  11.613 -0.4561 -0.0273 -0.5106
10848SOL    HW138381  11.161   0.482  11.622 -1.4383 -0.1897 -1.1869
10848SOL    HW238382  11.159   0.351  11.697 -0.8874  0.1627 -0.5456
10849SOL     OW38383   7.019   4.269   1.598 -0.4068  0.1499 -0.2502
10849SOL    HW138384   6.994   4.186   1.638 -1.5628  0.9935  0.8378
10849SOL    HW238385   7.056   4.321   1.670  2.2097 -0.1132 -1.3073
10850SOL     OW38386   8.792   6.664   3.059  0.3596 -0.2590  0.0193
10850SOL    HW138387   8.697   6.670   3.065  0.3162 -0.7582 -0.0936
10850SOL    HW238388   8.824   6.746   3.097 -0.1756  1.7478 -3.4127
10851SOL     OW38389   4.502   3.054  10.525  0.3524  0.3503  0.5144
10851SOL    HW138390   4.588   3.016  10.503  0.0051 -1.5766  2.1453
10851SOL    HW238391   4.523   3.140  10.561  1.4694  0.4599 -0.3121
10852SOL     OW38392   9.926  12.279   9.654  0.1709  0.4052 -0.5778
10852SOL    HW138393   9.978  12.316   9.725 -0.5310 -1.6270  1.0959
10852SOL    HW238394   9.839  12.266   9.692 -1.0244  1.6912 -2.6476
10853SOL     OW38395   0.823   0.207   7.430 -0.1805  0.3479 -0.0841
10853SOL    HW138396   0.803   0.167   7.515 -2.6823  0.1572 -0.6848
10853SOL    HW238397   0.802   0.138   7.366 -0.0846  1.0799 -0.9253
10854SOL     OW38398   5.210   8.309   9.836 -0.5695 -0.2161  0.1843
10854SOL    HW138399   5.238   8.391   9.877 -0.7842 -1.2626  2.5863
10854SOL    HW238400   5.139   8.278   9.892 -3.0900 -0.2403 -2.7955
10855SOL     OW38401   0.278   1.422   1.364 -0.3574  0.7310  0.2062
10855SOL    HW138402   0.352   1.482   1.357 -0.0485  0.1965 -1.9134
10855SOL    HW238403   0.314   1.342   1.402  0.1088  0.5597 -0.5879
10856SOL     OW38404   1.720   1.871   7.639 -0.3501 -0.0996  0.2707
10856SOL    HW138405   1.749   1.909   7.556  0.0446 -0.2460  0.3388
10856SOL    HW238406   1.800   1.862   7.690 -0.7048  0.7707  0.9912
10857SOL     OW38407   1.713   7.582   6.886  0.2921  0.0972  0.1036
10857SOL    HW138408   1.668   7.502   6.859 -0.6600  0.2153  1.3119
10857SOL    HW238409   1.774   7.599   6.814 -0.4417 -0.9556 -0.8083
10858SOL     OW38410  11.136   0.755   2.851  0.4325  0.0588 -0.5382
10858SOL    HW138411  11.150   0.689   2.919 -3.5109 -0.9106 -0.4498
10858SOL    HW238412  11.092   0.827   2.896  0.2231  0.5844 -1.5570
10859SOL     OW38413   5.302   1.012   0.445  0.0009 -0.0872  0.1910
10859SOL    HW138414   5.249   0.973   0.514  1.7392 -0.7375  1.2250
10859SOL    HW238415   5.368   1.063   0.492  0.4178  0.5326 -1.0392
10860SOL     OW38416  10.458   4.569  11.178  0.0378 -0.5648  0.4316
10860SOL    HW138417  10.518   4.495  11.188 -1.2541 -1.5334  1.2528
10860SOL    HW238418  10.411   4.551  11.096  1.6263  0.7998 -0.8554
10861SOL     OW38419   2.922   3.133   7.809 -0.7861  0.0712 -0.4918
10861SOL    HW138420   2.904   3.106   7.719  1.1340 -0.8100 -0.6585
10861SOL    HW238421   2.839   3.118   7.855 -1.2233 -1.4584 -1.6700
10862SOL     OW38422   7.660   3.069   1.854 -0.4102  0.3699 -0.5086
10862SOL    HW138423   7.746   3.034   1.830 -0.0997 -0.0431  1.0796
10862SOL    HW238424   7.680   3.150   1.900 -0.6750 -0.7724  1.7625
10863SOL     OW38425   7.721  12.103   7.520  0.0181  0.0911 -0.3862
10863SOL    HW138426   7.775  12.083   7.596  0.3681 -0.4993 -0.7864
10863SOL    HW238427   7.687  12.018   7.491 -0.7703  0.4042 -0.4028
10864SOL     OW38428   5.225   9.996  10.691 -0.1905  0.1941 -0.3584
10864SOL    HW138429   5.319   9.982  10.702 -0.0285  0.9968 -0.6913
10864SOL    HW238430   5.207   9.973  10.600 -0.5341 -1.0626  0.0072
10865SOL     OW38431   8.687   4.347   7.421  0.0379 -0.1431 -0.3865
10865SOL    HW138432   8.704   4.402   7.345 -1.1332 -0.6916 -1.0762
10865SOL    HW238433   8.751   4.375   7.486  0.1561  1.2876 -1.0867
10866SOL     OW38434   3.216   7.901  10.803 -0.5489  0.0651 -0.0082
10866SOL    HW138435   3.238   7.811  10.778  0.0845  0.3246 -0.4113
10866SOL    HW238436   3.275   7.955  10.751 -1.5005  0.7503 -0.3962
10867SOL     OW38437   0.554   8.827   0.185 -0.3701  0.1033  0.4286
10867SOL    HW138438   0.536   8.862   0.273  0.2336 -1.1598  1.0826
10867SOL    HW238439   0.475   8.849   0.135 -1.1049  0.1002  1.5288
10868SOL     OW38440   5.194   6.183   5.075 -0.0529  0.0787  0.6349
10868SOL    HW138441   5.198   6.194   5.170 -0.1450  1.1108  0.5378
10868SOL    HW238442   5.242   6.260   5.041 -0.8897  0.2571 -0.1657
10869SOL     OW38443   4.523   0.656   9.970  0.7638 -0.5696  0.1550
10869SOL    HW138444   4.532   0.641  10.064 -1.6600  0.1651  0.5782
10869SOL    HW238445   4.572   0.585   9.929  1.3030 -1.2898  1.9791
10870SOL     OW38446  11.938   1.656   7.804  0.1654 -0.2790 -0.6798
10870SOL    HW138447  11.853   1.616   7.786 -0.0853 -0.6497  1.1356
10870SOL    HW238448  11.920   1.750   7.806  0.0602 -0.2778 -1.5635
10871SOL     OW38449   3.957   2.315   4.246 -0.3436 -0.2105 -0.4821
10871SOL    HW138450   3.882   2.256   4.253  0.2613 -0.8648  0.6159
10871SOL    HW238451   4.030   2.259   4.220  0.1566  0.1002  0.2094
10872SOL     OW38452   9.921  11.346   9.862 -0.6040  0.2083  0.8979
10872SOL    HW138453   9.906  11.313   9.774  2.5612  0.1682  0.2313
10872SOL    HW238454   9.902  11.439   9.857 -0.4670  0.2014  0.1432
10873SOL     OW38455  10.663  10.758   3.040  0.2897 -0.4117  0.0615
10873SOL    HW138456  10.683  10.829   2.980  1.1598  0.3861  1.2344
10873SOL    HW238457  10.674  10.678   2.988  1.0511  0.2489 -0.8228
10874SOL     OW38458   8.393   4.929   5.187  0.0363 -0.1401 -0.0340
10874SOL    HW138459   8.349   4.867   5.129 -0.2109  0.0075 -0.0061
10874SOL    HW238460   8.486   4.918   5.168 -0.1301  1.5886 -2.1717
10875SOL     OW38461   2.986   8.541   4.690  0.0785 -0.4474  0.4094
10875SOL    HW138462   2.955   8.565   4.603 -1.2209 -1.3662  0.5927
10875SOL    HW238463   2.906   8.527   4.741  0.8201  0.3236  1.8242
10876SOL     OW38464  11.450   7.580   1.295 -0.0600  0.6768  0.6560
10876SOL    HW138465  11.410   7.542   1.217  0.4607  1.9129 -0.2491
10876SOL    HW238466  11.391   7.650   1.321 -0.2026  0.3081  1.3564
10877SOL     OW38467   3.390   4.555   7.831 -0.3281  0.0136  0.3243
10877SOL    HW138468   3.401   4.617   7.759  0.4058 -0.5606 -0.0720
10877SOL    HW238469   3.429   4.598   7.907  1.0449 -0.3284 -0.1609
10878SOL     OW38470   4.405   1.173   1.921 -0.2959 -0.1549  0.0456
10878SOL    HW138471   4.398   1.252   1.975  0.8454  0.5376 -0.7668
10878SOL    HW238472   4.490   1.182   1.878 -0.0011 -2.0034  0.1849
10879SOL     OW38473   2.914   4.509  12.194  0.1243 -0.0038 -0.5715
10879SOL    HW138474   2.898   4.576  12.128  0.8401  0.3463 -0.4011
10879SOL    HW238475   3.008   4.490  12.187 -0.0608 -0.9927 -0.6193
10880SOL     OW38476   5.632   3.314   8.114 -0.0017  0.2928 -0.3817
10880SOL    HW138477   5.545   3.305   8.075 -0.1496  3.0112 -0.8791
10880SOL    HW238478   5.682   3.239   8.081 -1.8436 -0.7565 -0.9021
10881SOL     OW38479   9.684   9.311   9.852 -0.0525  0.0599  0.6808
10881SOL    HW138480   9.748   9.318   9.923  2.0021 -0.1135 -1.0469
10881SOL    HW238481   9.737   9.314   9.772 -2.1350 -1.1915 -0.8321
10882SOL     OW38482   6.061   7.132   4.526  0.4737 -0.0305 -0.0316
10882SOL    HW138483   5.988   7.128   4.464  1.7652  0.3879 -1.6367
10882SOL    HW238484   6.040   7.064   4.590 -0.8087 -0.6494 -1.0398
10883SOL     OW38485   5.833   8.210   4.132 -0.1099  0.1131 -0.4335
10883SOL    HW138486   5.795   8.247   4.211 -0.9048 -0.6647 -0.4387
10883SOL    HW238487   5.760   8.204   4.071 -0.5832 -3.5003  0.3019
10884SOL     OW38488   2.102   6.108   3.943 -0.1086  0.1795 -0.5579
10884SOL    HW138489   2.027   6.071   3.897  1.3567 -2.5822 -0.9280
10884SOL    HW238490   2.121   6.190   3.897 -3.5055  1.5985  0.2766
10885SOL     OW38491   6.466  10.198   1.219 -0.3014 -0.2378  0.2883
10885SOL    HW138492   6.481  10.238   1.305 -0.4295  0.2576  0.0814
10885SOL    HW238493   6.371  10.188   1.214 -0.1495 -3.4470  1.6319
10886SOL     OW38494  11.134   5.479   3.054 -0.4049 -0.4786 -0.0229
10886SOL    HW138495  11.147   5.420   2.980 -0.6909  1.2476 -1.5365
10886SOL    HW238496  11.066   5.540   3.024  0.7934  1.4197  0.8970
10887SOL     OW38497   7.937   6.387   3.763 -0.1769  0.3511 -0.0441
10887SOL    HW138498   7.984   6.310   3.797 -0.6090  0.3162  0.4881
10887SOL    HW238499   7.849   6.354   3.744 -0.9694  1.1285  2.0235
10888SOL     OW38500   7.779   2.335   1.614 -0.4286 -0.8617  0.1973
10888SOL    HW138501   7.695   2.326   1.569 -0.2519 -1.9304  0.0480
10888SOL    HW238502   7.756   2.359   1.704 -0.8554 -0.3638 -0.0443
10889SOL     OW38503   9.720  10.224   0.314  0.2044  0.1986 -0.0395
10889SOL    HW138504   9.814  10.210   0.327  0.0567  1.1642  2.7144
10889SOL    HW238505   9.699  10.176   0.234  2.6031 -1.8816  0.4724
10890SOL     OW38506   8.350   4.804   8.088  0.2579  0.0393  0.2531
10890SOL    HW138507   8.408   4.750   8.142  0.2435 -0.4845 -0.2508
10890SOL    HW238508   8.263   4.789   8.125  0.1198 -1.0305 -0.4696
10891SOL     OW38509   7.675  11.876  11.007 -0.4644  0.1965  0.3166
10891SOL    HW138510   7.739  11.870  10.936 -1.1863  0.6229 -0.3869
10891SOL    HW238511   7.683  11.967  11.038  0.1274 -0.0994  1.0623
10892SOL     OW38512   1.126   6.124   7.234 -0.3925  0.0981 -0.0178
10892SOL    HW138513   1.035   6.118   7.204 -0.3749  0.2501 -0.1031
10892SOL    HW238514   1.170   6.051   7.190 -0.4861 -0.0126  0.0715
10893SOL     OW38515   4.571   2.768   1.011 -0.6206 -0.2724 -0.3076
10893SOL    HW138516   4.476   2.781   1.002 -0.8971 -1.4641  0.5392
10893SOL    HW238517   4.609   2.818   0.940 -1.8995  0.1652 -0.7184
10894SOL     OW38518   2.818   6.580   6.141 -0.4360  0.4683  0.0979
10894SOL    HW138519   2.818   6.576   6.045 -0.6362 -1.1884  0.1383
10894SOL    HW238520   2.776   6.499   6.168  0.0182  0.7097  1.6025
10895SOL     OW38521   9.290  10.581   1.751  0.1975  0.0621 -0.5943
10895SOL    HW138522   9.322  10.671   1.744  1.4460 -0.3648 -0.5391
10895SOL    HW238523   9.310  10.542   1.666 -1.3681  0.1326 -1.0301
10896SOL     OW38524   5.544   1.842   4.737  0.7686  0.0768 -0.6022
10896SOL    HW138525   5.482   1.897   4.785 -0.2958 -2.4702  1.2003
10896SOL    HW238526   5.501   1.824   4.654 -0.7683 -1.2404  0.4264
10897SOL     OW38527  10.462   0.237   9.600  0.2776  0.5000 -0.1433
10897SOL    HW138528  10.518   0.229   9.677 -0.6830  1.1034  0.6283
10897SOL    HW238529  10.504   0.305   9.547  0.4873  0.6625  0.2322
10898SOL     OW38530   1.166   0.299   0.070 -0.0963  0.3008 -0.4830
10898SOL    HW138531   1.222   0.347   0.010 -0.4484  0.5299 -0.6346
10898SOL    HW238532   1.077   0.326   0.046 -0.2205  0.7370  0.4293
10899SOL     OW38533  10.166   0.433   8.249 -0.5120 -0.3317  0.3116
10899SOL    HW138534  10.070   0.435   8.260 -0.4131 -0.5961  1.2618
10899SOL    HW238535  10.180   0.476   8.164 -1.4584 -0.0902  0.2573
10900SOL     OW38536   4.218  12.077   7.298 -0.1974  0.0157 -0.2558
10900SOL    HW138537   4.179  12.023   7.367  0.5404  0.6437  0.6762
10900SOL    HW238538   4.312  12.068   7.310 -0.0568  0.2733 -1.0820
10901SOL     OW38539   1.785   7.878   0.210 -0.1163  0.0691 -0.3019
10901SOL    HW138540   1.721   7.820   0.169 -2.3014  1.0115  1.5767
10901SOL    HW238541   1.745   7.964   0.207  1.0439  0.6955  0.9859
10902SOL     OW38542   7.804   0.844   9.366 -0.3550  0.2406 -0.3574
10902SOL    HW138543   7.783   0.785   9.293 -1.0418 -0.8476  0.6866
10902SOL    HW238544   7.721   0.882   9.391 -0.4013 -0.6303  0.8842
10903SOL     OW38545   4.417  10.816   0.200 -0.0509 -0.1667  0.6832
10903SOL    HW138546   4.397  10.746   0.263 -1.2923  0.5002  1.0748
10903SOL    HW238547   4.368  10.891   0.233  0.0086  0.4478 -0.5965
10904SOL     OW38548   8.163  11.470   6.392  0.0421  0.1972 -0.1131
10904SOL    HW138549   8.069  11.481   6.381 -0.1324 -1.3212 -0.3327
10904SOL    HW238550   8.200  11.493   6.308  0.0081  2.0399  0.3442
10905SOL     OW38551  11.910   3.236   8.159  0.1079 -0.0716 -0.3450
10905SOL    HW138552  11.948   3.175   8.095  1.5094  1.7273 -1.3300
10905SOL    HW238553  11.928   3.195   8.244 -0.0503 -1.5713 -0.9872
10906SOL     OW38554  11.259   7.947   4.559 -0.5920 -0.0963 -0.2585
10906SOL    HW138555  11.170   7.966   4.589 -1.0499 -0.4539 -1.3444
10906SOL    HW238556  11.312   8.018   4.595 -0.8456 -1.1710  2.4924
10907SOL     OW38557   2.516   4.022  11.321  0.0916 -0.2777  0.2230
10907SOL    HW138558   2.584   4.080  11.289 -0.6445  0.1640 -0.5846
10907SOL    HW238559   2.482   4.067  11.399 -2.5219  2.0548 -2.0069
10908SOL     OW38560   7.203   6.116   1.788  0.3080 -0.1688 -0.3145
10908SOL    HW138561   7.141   6.049   1.818  0.4925 -0.9125 -1.5076
10908SOL    HW238562   7.277   6.109   1.849 -0.6634  0.5860  0.9954
10909SOL     OW38563   0.264   9.923   5.894 -0.3878 -0.4467  0.3665
10909SOL    HW138564   0.269   9.834   5.929 -0.2260 -0.5141  0.1748
10909SOL    HW238565   0.179   9.927   5.852 -0.5312 -0.4071  0.6610
10910SOL     OW38566   9.716  10.828   2.994  0.2311  0.5913  0.4829
10910SOL    HW138567   9.676  10.883   2.926 -1.1302  1.5583  1.9617
10910SOL    HW238568   9.806  10.861   3.002  0.2710  0.7525 -0.5372
10911SOL     OW38569  12.034   9.397   0.583 -0.3690 -0.5583  0.2646
10911SOL    HW138570  11.947   9.424   0.613 -0.4956 -3.0642  2.4918
10911SOL    HW238571  12.061   9.328   0.644  3.4361  0.4415  0.0120
10912SOL     OW38572  12.078  10.294   1.779 -0.0745 -0.2979  0.5271
10912SOL    HW138573  12.024  10.343   1.717  1.4795 -0.7344 -1.2597
10912SOL    HW238574  12.018  10.231   1.818 -1.3778  0.8413  0.4297
10913SOL     OW38575  11.934   0.145   3.280  0.0103 -0.0106  0.4108
10913SOL    HW138576  12.007   0.206   3.269  0.4390 -0.4850  0.5985
10913SOL    HW238577  11.958   0.069   3.226 -0.3922 -0.1271  0.3927
10914SOL     OW38578   3.863  11.434  11.285  0.1457 -0.5695  0.2926
10914SOL    HW138579   3.928  11.364  11.273  1.0053  0.4911 -1.7376
10914SOL    HW238580   3.886  11.474  11.369 -0.5923 -2.8906  1.6907
10915SOL     OW38581   1.585   4.795   7.968  0.1748 -0.4801 -0.6467
10915SOL    HW138582   1.536   4.721   8.004  0.1996 -0.5476 -0.7512
10915SOL    HW238583   1.677   4.769   7.978  0.1780 -1.1886 -2.1758
10916SOL     OW38584   8.401  11.337   9.298 -0.3635 -0.1288  0.0133
10916SOL    HW138585   8.481  11.383   9.324 -0.2451  0.0721 -0.6893
10916SOL    HW238586   8.336  11.364   9.362 -0.0684  0.3293  0.1278
10917SOL     OW38587  11.193   7.508   2.285  0.2170  0.0907 -0.0938
10917SOL    HW138588  11.161   7.418   2.285  0.4467  0.0074  0.1252
10917SOL    HW238589  11.282   7.502   2.250 -0.0301  0.3294 -0.7715
10918SOL     OW38590   0.146   6.390   8.061  0.0651  0.0155  0.1098
10918SOL    HW138591   0.127   6.365   8.151 -0.7414  0.1080 -0.0229
10918SOL    HW238592   0.169   6.307   8.018 -0.3571 -0.1571  0.2108
10919SOL     OW38593   7.706   9.493  11.729 -0.2728 -0.0767  0.1762
10919SOL    HW138594   7.613   9.517  11.735 -0.4126 -0.7469  0.7447
10919SOL    HW238595   7.736   9.488  11.820  0.0473 -0.8863  0.0373
10920SOL     OW38596   1.803   1.401   9.620 -0.0026 -0.7794 -0.1993
10920SOL    HW138597   1.876   1.398   9.558  1.7508 -1.1118  1.7951
10920SOL    HW238598   1.740   1.461   9.579  1.8455  0.3827 -1.4971
10921SOL     OW38599  11.636   5.859   1.593 -0.4361 -0.3628 -0.0682
10921SOL    HW138600  11.662   5.905   1.672  2.4197  1.7758 -2.0576
10921SOL    HW238601  11.577   5.919   1.548 -1.4458 -1.2475  0.0240
10922SOL     OW38602   5.014   3.708   3.693  0.4257  0.5081  0.5047
10922SOL    HW138603   4.951   3.656   3.743  0.3046  0.8237  0.6885
10922SOL    HW238604   5.089   3.651   3.681  0.5154  0.4740  1.1797
10923SOL     OW38605  11.028   1.365  11.750 -0.0910 -0.2168 -0.3671
10923SOL    HW138606  10.967   1.413  11.695 -0.1968 -0.3357 -0.3542
10923SOL    HW238607  10.997   1.379  11.839 -0.4906 -0.8230 -0.4061
10924SOL     OW38608   0.803   2.915   5.238 -0.0545 -0.9715  0.1172
10924SOL    HW138609   0.856   2.927   5.159  0.4496  0.0189  0.5964
10924SOL    HW238610   0.720   2.957   5.217 -0.3329 -1.6969 -0.2854
10925SOL     OW38611  10.503   2.794   8.550 -0.1570 -0.2500  0.1347
10925SOL    HW138612  10.562   2.795   8.474 -1.6911 -1.4175 -1.1470
10925SOL    HW238613  10.446   2.718   8.535  0.0320 -1.0773  2.9175
10926SOL     OW38614   8.979   2.234   4.670 -0.1447 -0.2910 -0.0056
10926SOL    HW138615   8.890   2.268   4.682  0.1697 -0.0747  2.2726
10926SOL    HW238616   8.967   2.139   4.660 -0.6410 -0.3215  0.7210
10927SOL     OW38617   0.802   7.971   4.194  0.7641 -0.1597  0.0358
10927SOL    HW138618   0.779   8.038   4.257  1.1892  0.1759 -0.1620
10927SOL    HW238619   0.739   7.900   4.210  0.8194 -0.0486  0.7747
10928SOL     OW38620   2.812   1.929   5.289 -0.5041 -0.1366  0.5454
10928SOL    HW138621   2.804   1.850   5.342  0.5262  0.4020  1.5668
10928SOL    HW238622   2.761   1.994   5.337 -2.5940 -0.5123 -1.0720
10929SOL     OW38623   2.795   4.472   2.848  0.0334  0.3179  0.7709
10929SOL    HW138624   2.806   4.541   2.782 -0.9234  1.3981  1.7110
10929SOL    HW238625   2.725   4.418   2.814  0.9202 -0.3372 -0.0683
10930SOL     OW38626  10.457   2.328  10.515  0.0452 -0.8228 -0.1332
10930SOL    HW138627  10.398   2.380  10.569  0.6314 -1.1746  0.8537
10930SOL    HW238628  10.521   2.291  10.576  2.0938  0.5718 -1.2819
10931SOL     OW38629   5.043  11.836   2.422  0.3365  0.1641 -0.4559
10931SOL    HW138630   5.029  11.925   2.390  1.5402  0.2819 -0.6848
10931SOL    HW238631   4.993  11.781   2.362 -0.8807  0.7013  0.0171
10932SOL     OW38632   9.603   0.836   8.638 -0.1072  0.5794 -0.7660
10932SOL    HW138633   9.633   0.909   8.693  0.4271  0.5469 -1.0099
10932SOL    HW238634   9.527   0.802   8.684 -2.3679  3.2557 -2.1996
10933SOL     OW38635   5.244  11.427  10.372 -0.0302  0.0449  0.0165
10933SOL    HW138636   5.336  11.403  10.364  0.1622  0.8108 -0.0869
10933SOL    HW238637   5.238  11.513  10.332 -1.2100 -0.9185 -2.0212
10934SOL     OW38638   5.146   1.199   6.713 -0.0850 -0.3675  0.2556
10934SOL    HW138639   5.074   1.136   6.707 -0.7947  0.4487 -0.1789
10934SOL    HW238640   5.137   1.253   6.634 -1.3440  2.1291  1.9473
10935SOL     OW38641   5.076   9.392   6.693  0.4683  0.2093  0.7752
10935SOL    HW138642   5.096   9.309   6.651  1.9211  0.2325  1.3705
10935SOL    HW238643   5.156   9.443   6.685  0.0618  1.0242  1.6513
10936SOL     OW38644   8.057   8.894   8.358 -0.0391  0.2505  0.1346
10936SOL    HW138645   8.100   8.906   8.443 -1.9946  0.4528  1.1527
10936SOL    HW238646   8.051   8.800   8.347  0.8582  0.2202 -0.1271
10937SOL     OW38647   6.273   6.512   2.624  0.0370  0.3421 -0.5424
10937SOL    HW138648   6.360   6.549   2.609 -0.6298  1.9067 -0.7650
10937SOL    HW238649   6.220   6.586   2.652 -0.9697 -0.8028  0.7221
10938SOL     OW38650   7.341  11.114   6.620  0.0824  0.3323  0.4236
10938SOL    HW138651   7.297  11.199   6.607 -0.8029 -0.3886 -1.6400
10938SOL    HW238652   7.395  11.128   6.698  0.8311  3.1581 -0.4470
10939SOL     OW38653   9.537   9.628   2.044  0.1874 -0.4349 -0.2026
10939SOL    HW138654   9.612   9.685   2.057 -0.4422  0.7356 -1.4411
10939SOL    HW238655   9.561   9.546   2.087  1.9023  0.1196 -0.0388
10940SOL     OW38656   2.318   9.413   9.591 -0.4006  0.0953 -0.0459
10940SOL    HW138657   2.230   9.417   9.555 -0.0582  0.2148 -0.8999
10940SOL    HW238658   2.363   9.346   9.540  0.0846  0.2260  0.1961
10941SOL     OW38659  10.781   6.483  10.414 -0.2350  0.2501  0.1294
10941SOL    HW138660  10.852   6.421  10.434  0.7415  0.5010 -2.2393
10941SOL    HW238661  10.704   6.445  10.456  0.3309 -2.5988 -1.1253
10942SOL     OW38662   3.648   0.385  10.391 -0.0454  0.3536  0.2608
10942SOL    HW138663   3.683   0.391  10.480 -0.3339 -0.9192  0.4786
10942SOL    HW238664   3.562   0.427  10.396 -0.3046 -0.2202  0.7300
10943SOL     OW38665   6.194  10.563   1.872  0.4561 -0.1421  0.1629
10943SOL    HW138666   6.218  10.653   1.849  1.1673  0.2356  2.2053
10943SOL    HW238667   6.277  10.521   1.896  0.3155 -1.7455 -1.8465
10944SOL     OW38668   9.261   4.415   0.314  0.3709 -0.3304  0.2561
10944SOL    HW138669   9.296   4.383   0.231 -0.7358  1.3726 -0.9056
10944SOL    HW238670   9.298   4.502   0.324 -0.4883 -0.0268  0.9186
10945SOL     OW38671   1.465   2.909   1.605  0.8790 -0.3929  0.5586
10945SOL    HW138672   1.485   2.913   1.511  4.0917  1.1898  1.1589
10945SOL    HW238673   1.433   2.996   1.626 -0.0056 -0.8007  0.9236
10946SOL     OW38674   6.380   2.824   3.767 -0.0066  0.3750  0.1982
10946SOL    HW138675   6.324   2.868   3.703 -2.3331 -3.8731 -1.1013
10946SOL    HW238676   6.429   2.759   3.716  0.9113 -0.6416  2.2423
10947SOL     OW38677   7.179   9.078   0.788  0.5001 -0.1258 -0.0040
10947SOL    HW138678   7.086   9.063   0.772  0.5386 -1.0932  0.5734
10947SOL    HW238679   7.184   9.168   0.821 -0.0920  0.3033 -1.0454
10948SOL     OW38680   9.626   8.164   3.841 -0.9202 -0.1113  0.3532
10948SOL    HW138681   9.594   8.152   3.751 -0.6388 -1.4189  0.4057
10948SOL    HW238682   9.715   8.197   3.830 -1.3485  1.0173  0.1772
10949SOL     OW38683   5.032   4.231   6.653 -0.2797 -0.7675 -0.2500
10949SOL    HW138684   5.091   4.305   6.639 -0.1390  0.1987  3.9684
10949SOL    HW238685   5.075   4.179   6.720 -1.5320 -3.4132 -1.3694
10950SOL     OW38686   2.205   0.318  10.556  0.1575 -0.0887  0.2814
10950SOL    HW138687   2.120   0.353  10.530 -0.4717 -0.7218  1.3992
10950SOL    HW238688   2.214   0.342  10.649  0.9232 -0.5498  0.3429
10951SOL     OW38689   7.813  10.733   2.052  0.2658  0.4412 -0.0668
10951SOL    HW138690   7.735  10.677   2.049  0.2888  0.4439 -0.9664
10951SOL    HW238691   7.877  10.683   2.102  0.6078 -0.7574 -1.6673
10952SOL     OW38692   3.326   7.818   3.496  0.2139  0.0942 -0.0796
10952SOL    HW138693   3.293   7.896   3.451 -0.7155  1.9061  3.3488
10952SOL    HW238694   3.414   7.842   3.523 -0.3223  0.3121  1.5889
10953SOL     OW38695   1.885  12.161  11.256 -0.2133 -0.2568 -0.1761
10953SOL    HW138696   1.863  12.155  11.349 -2.3622  2.5191 -0.3725
10953SOL    HW238697   1.953  12.228  11.252 -0.6305  0.1507 -0.6204
10954SOL     OW38698   5.113   1.521  10.932  0.4976  0.0413 -0.1183
10954SOL    HW138699   5.173   1.587  10.898  2.0009 -0.9012  0.5962
10954SOL    HW238700   5.153   1.437  10.907  0.2519 -0.6290  1.6073
10955SOL     OW38701   9.975   9.004   5.385 -0.2211 -0.2205 -0.1743
10955SOL    HW138702   9.892   8.967   5.415 -0.1148  0.2874  0.7697
10955SOL    HW238703   9.981   9.089   5.428  0.3297  0.1736 -1.0058
10956SOL     OW38704  10.316   3.043   6.365  0.0514 -0.3964  0.1291
10956SOL    HW138705  10.351   2.958   6.338 -0.9785 -0.7758 -0.0257
10956SOL    HW238706  10.361   3.062   6.448  2.3054  0.1933 -1.1229
10957SOL     OW38707   3.167   5.026   3.466 -0.0260 -0.3904  0.2214
10957SOL    HW138708   3.248   5.075   3.453  0.0919 -0.9426 -1.3297
10957SOL    HW238709   3.101   5.094   3.484  0.4585  0.1904 -0.1482
10958SOL     OW38710  10.529  11.633  10.550 -0.3451 -0.1144 -0.1407
10958SOL    HW138711  10.461  11.626  10.617  0.8308 -0.8344  1.0127
10958SOL    HW238712  10.485  11.604  10.470 -1.2256 -1.2581  0.7069
10959SOL     OW38713   7.625   7.046   6.330 -0.6446 -0.4401  0.5210
10959SOL    HW138714   7.576   6.964   6.324  0.0114 -0.8414  0.5670
10959SOL    HW238715   7.714   7.019   6.352  0.0568  0.1528 -1.4575
10960SOL     OW38716  10.189   4.670   4.927 -0.0527 -0.4187 -0.9244
10960SOL    HW138717  10.280   4.700   4.930 -0.5983  1.3533 -0.9034
10960SOL    HW238718  10.181   4.611   5.002  0.7839  0.2861 -0.2636
10961SOL     OW38719   5.671   7.669   2.271 -0.6365  0.8093 -0.1965
10961SOL    HW138720   5.688   7.637   2.182  1.7640 -0.7407  0.7384
10961SOL    HW238721   5.586   7.712   2.264 -0.3266  1.1660 -3.3427
10962SOL     OW38722   2.228   7.447  11.559 -0.1762  0.4081 -0.4565
10962SOL    HW138723   2.323   7.454  11.553 -0.0871 -1.1463 -1.3305
10962SOL    HW238724   2.203   7.516  11.622  1.5965  0.2380  0.5022
10963SOL     OW38725   0.011   2.203   9.003  0.1464  0.7912  0.4800
10963SOL    HW138726   0.069   2.172   8.933 -0.8804 -0.7841  0.2829
10963SOL    HW238727   0.061   2.188   9.083  1.3650  2.6853  0.1446
10964SOL     OW38728   0.862   2.072   7.785  0.5043 -0.0843 -0.1287
10964SOL    HW138729   0.863   2.128   7.863  1.1990 -1.7850  1.1725
10964SOL    HW238730   0.945   2.091   7.741  0.1371  0.8443 -0.4456
10965SOL     OW38731   0.456   7.786  10.822  0.5711  0.3579 -0.0399
10965SOL    HW138732   0.439   7.706  10.772 -1.4792  0.9062 -0.3145
10965SOL    HW238733   0.401   7.778  10.900  1.6534  0.7523  0.7937
10966SOL     OW38734   3.497   7.285   4.519 -0.6942  0.4136 -0.0514
10966SOL    HW138735   3.553   7.217   4.482 -1.6856 -0.4772  0.0241
10966SOL    HW238736   3.478   7.344   4.446 -0.2015  0.3588 -0.2271
10967SOL     OW38737   1.484   8.181   9.967 -0.1923 -0.0770  0.1105
10967SOL    HW138738   1.438   8.198   9.885  0.7602 -0.2610 -0.4665
10967SOL    HW238739   1.428   8.117  10.013 -0.2467 -0.7138 -0.8177
10968SOL     OW38740   6.287   4.500  10.474 -0.0431 -0.0049  0.0809
10968SOL    HW138741   6.294   4.407  10.496 -0.9634 -0.0923  0.0311
10968SOL    HW238742   6.200   4.510  10.437  0.2872  0.7653 -0.5243
10969SOL     OW38743  10.902   1.853   8.916 -0.3159 -0.1042 -0.3693
10969SOL    HW138744  10.959   1.825   8.844  0.6906 -0.3008  0.4898
10969SOL    HW238745  10.863   1.935   8.885 -0.9675 -0.8646 -1.6861
10970SOL     OW38746   7.580   0.458   7.569 -0.0229  0.5654  0.6639
10970SOL    HW138747   7.576   0.547   7.606  0.7924  0.4079  1.1529
10970SOL    HW238748   7.499   0.417   7.598 -1.6641  1.9394 -1.6894
10971SOL     OW38749   9.151   5.027   4.164  0.1894  0.4419 -0.5262
10971SOL    HW138750   9.171   5.096   4.228  0.2723  0.2637 -0.3626
10971SOL    HW238751   9.218   5.037   4.096 -0.7206  1.5571 -1.3208
10972SOL     OW38752   5.421   7.728   2.669  0.3474 -0.7129 -0.1889
10972SOL    HW138753   5.329   7.755   2.676  0.2902 -0.3911 -1.7135
10972SOL    HW238754   5.464   7.801   2.624  2.4002  1.2660  4.3733
10973SOL     OW38755   6.323   1.852  11.952 -0.4172  0.4114  0.2016
10973SOL    HW138756   6.294   1.797  12.025  2.5047 -0.0503  1.1254
10973SOL    HW238757   6.340   1.792  11.880 -1.1632  0.6252 -0.1696
10974SOL     OW38758   8.318   1.489   4.260 -0.7606 -0.2239  0.7706
10974SOL    HW138759   8.338   1.574   4.300 -2.8754  0.7047  0.0411
10974SOL    HW238760   8.307   1.508   4.167  2.5927 -2.0831 -0.1770
10975SOL     OW38761   7.257   7.256   2.781  0.0439  0.3050  0.2433
10975SOL    HW138762   7.292   7.341   2.807  2.5415 -0.4270 -0.4273
10975SOL    HW238763   7.197   7.232   2.852  0.9333  1.6666  1.5152
10976SOL     OW38764   8.571   2.906   1.084 -0.0951 -0.3560  0.2480
10976SOL    HW138765   8.542   2.985   1.040  0.7335  0.1881  0.6542
10976SOL    HW238766   8.603   2.849   1.014  0.9040  0.3710  0.0887
10977SOL     OW38767   3.233   6.243   8.489 -0.9407  0.9137  1.1552
10977SOL    HW138768   3.250   6.185   8.415  0.6677  2.0472  0.5733
10977SOL    HW238769   3.306   6.227   8.549 -0.7322  1.9737  1.2028
10978SOL     OW38770   8.710   1.202   2.843 -0.0756 -0.0871 -0.2401
10978SOL    HW138771   8.759   1.237   2.769  0.1170  0.0342 -0.0568
10978SOL    HW238772   8.766   1.133   2.878  0.4803  0.7756  0.6394
10979SOL     OW38773   6.670   1.648   1.805  0.1646  0.2837 -0.0303
10979SOL    HW138774   6.730   1.697   1.861  0.8502 -1.1087  0.5085
10979SOL    HW238775   6.583   1.679   1.830  0.5512  0.8336  0.6698
10980SOL     OW38776   1.291   9.459   7.743  0.2429 -0.1818  0.2785
10980SOL    HW138777   1.218   9.446   7.681  0.2599 -1.6190  0.5373
10980SOL    HW238778   1.293   9.554   7.757 -0.1520  0.1218 -1.4531
10981SOL     OW38779   2.882   9.236   6.813  0.4582 -0.9507 -0.2838
10981SOL    HW138780   2.903   9.326   6.790  0.1738 -0.9255 -0.4501
10981SOL    HW238781   2.879   9.189   6.729 -2.1708 -0.5314 -0.5319
10982SOL     OW38782   9.942   3.929   6.053  0.2120 -0.2481  0.2721
10982SOL    HW138783  10.013   3.969   6.003 -0.2462 -1.0026 -1.0483
10982SOL    HW238784   9.972   3.839   6.069 -0.6032 -0.7257 -0.7171
10983SOL     OW38785   9.763   9.846   9.279 -0.4880  0.0435  0.4308
10983SOL    HW138786   9.734   9.831   9.190  1.7537 -0.2300 -0.3085
10983SOL    HW238787   9.721   9.929   9.304 -1.8687 -0.3352 -0.4938
10984SOL     OW38788   2.712   7.945   4.119 -0.5240  0.1972 -0.2887
10984SOL    HW138789   2.620   7.939   4.091 -0.6948  2.4754 -0.4470
10984SOL    HW238790   2.706   7.973   4.211  0.0229 -0.4109 -0.0672
10985SOL     OW38791   3.929  11.850   3.412 -0.3658  0.5051  0.0861
10985SOL    HW138792   3.967  11.801   3.339 -1.1611 -0.3482  0.2190
10985SOL    HW238793   3.938  11.942   3.387  0.0403  0.2497 -0.7437
10986SOL     OW38794   3.866   6.317   3.424  0.2623  0.4357  0.1121
10986SOL    HW138795   3.909   6.349   3.503 -0.0668 -0.7671  0.7866
10986SOL    HW238796   3.848   6.225   3.441 -2.4834  0.8416 -0.1930
10987SOL     OW38797   8.584   3.947   7.708 -0.2446 -0.6772 -0.4073
10987SOL    HW138798   8.646   3.934   7.636  1.2838 -1.5381  0.9776
10987SOL    HW238799   8.553   3.858   7.728 -0.0877 -0.5491  0.4384
10988SOL     OW38800   1.659   0.866   3.714 -0.5709  0.0771 -0.0416
10988SOL    HW138801   1.646   0.889   3.806  0.1061 -0.2747  0.1474
10988SOL    HW238802   1.724   0.797   3.715 -1.0924 -0.4416 -0.7467
10989SOL     OW38803   3.744   3.102   0.044 -0.4211 -0.6554  0.1849
10989SOL    HW138804   3.701   3.064  -0.033 -0.6687  0.1514 -0.0820
10989SOL    HW238805   3.696   3.066   0.118 -1.4958  0.1227 -0.1037
10990SOL     OW38806   5.169  11.671  10.851 -0.3060 -0.5586 -0.1018
10990SOL    HW138807   5.264  11.671  10.847 -0.2197  2.8602 -3.1270
10990SOL    HW238808   5.142  11.621  10.773 -0.9091  0.1501 -0.3608
10991SOL     OW38809   9.654  10.777   7.623  0.0623 -0.0156  0.1015
10991SOL    HW138810   9.577  10.724   7.642  0.1645 -0.3024 -0.2834
10991SOL    HW238811   9.710  10.768   7.701 -0.1308 -0.0909  0.2321
10992SOL     OW38812   9.754   9.530   8.808 -0.3297 -0.4224 -0.0429
10992SOL    HW138813   9.752   9.515   8.713  0.2535 -0.2694 -0.0854
10992SOL    HW238814   9.798   9.452   8.843 -1.0388 -0.7343  0.1598
10993SOL     OW38815   4.173   4.999   7.733  0.3915 -0.4041  0.6215
10993SOL    HW138816   4.088   5.008   7.690  0.5465 -1.8943 -0.0468
10993SOL    HW238817   4.235   4.981   7.662  0.7697 -2.2041  1.3594
10994SOL     OW38818   1.408   2.679   8.007 -0.2875 -0.0419  0.2609
10994SOL    HW138819   1.496   2.670   8.042 -0.7918  0.6196  1.8073
10994SOL    HW238820   1.383   2.769   8.028 -1.1684 -0.0894 -0.5253
10995SOL     OW38821   4.579   5.060   5.207  0.0958 -0.3386 -1.0314
10995SOL    HW138822   4.494   5.069   5.165 -1.1690  1.1120  1.5816
10995SOL    HW238823   4.558   5.044   5.299  2.6446  1.4237 -0.0502
10996SOL     OW38824   4.471   5.550   5.275 -0.1025  0.1023 -0.4883
10996SOL    HW138825   4.526   5.610   5.226  0.6971  0.3438  0.6537
10996SOL    HW238826   4.436   5.603   5.348 -4.1832  0.7750 -2.6141
10997SOL     OW38827  12.208   4.894   2.135 -0.2564 -0.2659  0.2897
10997SOL    HW138828  12.160   4.933   2.208 -0.4836 -0.3563  0.1886
10997SOL    HW238829  12.266   4.963   2.104 -0.2438 -0.1900  0.4783
10998SOL     OW38830   5.118   3.440   8.633 -0.0796  0.3612 -0.0358
10998SOL    HW138831   5.185   3.508   8.630 -0.8509  1.1139 -0.6472
10998SOL    HW238832   5.085   3.443   8.723  0.8605 -0.1829  0.3379
10999SOL     OW38833  10.344   8.743  11.632 -0.2034  0.2889 -0.7260
10999SOL    HW138834  10.395   8.807  11.681  2.0824 -1.5084 -0.5863
10999SOL    HW238835  10.347   8.774  11.541  2.5005 -0.4828 -0.9796
11000SOL     OW38836  11.030  11.851   7.220 -0.4602  0.2229 -0.4564
11000SOL    HW138837  11.061  11.854   7.130 -0.2201  0.5555 -0.3621
11000SOL    HW238838  11.048  11.938   7.255 -0.2814  0.0044  0.0033
11001SOL     OW38839   8.715   3.122   3.329 -0.0276  0.1257 -0.4220
11001SOL    HW138840   8.806   3.148   3.340  0.3945 -0.8257 -1.4344
11001SOL    HW238841   8.688   3.166   3.248  0.3937 -1.6765 -1.6045
11002SOL     OW38842   5.447   2.962   9.737  0.0585 -0.3531 -0.5182
11002SOL    HW138843   5.529   2.959   9.788  0.0047 -0.5476 -0.4399
11002SOL    HW238844   5.427   3.055   9.729  0.9145 -0.2412 -1.5461
11003SOL     OW38845   2.916   5.768   6.120  0.2176  0.0127  0.1871
11003SOL    HW138846   2.864   5.699   6.161  0.9405 -0.5652  0.1553
11003SOL    HW238847   2.939   5.732   6.034 -0.0534  0.6182 -0.1494
11004SOL     OW38848   6.591   4.061   5.984 -0.0192  0.2454  0.0654
11004SOL    HW138849   6.626   4.003   6.051  1.4112  2.1125  1.0186
11004SOL    HW238850   6.641   4.040   5.905  0.3690  0.0898  0.3533
11005SOL     OW38851   4.583   8.070   0.554  0.2840 -0.8600 -0.0052
11005SOL    HW138852   4.637   8.139   0.516 -1.0300  1.7478  2.5102
11005SOL    HW238853   4.505   8.066   0.498  1.2908 -1.9544 -1.4138
11006SOL     OW38854  11.101   3.529  11.651  0.2337  0.0938 -0.1365
11006SOL    HW138855  11.038   3.508  11.582  1.1310 -0.8656 -0.7068
11006SOL    HW238856  11.149   3.447  11.664  1.2984  0.7761  0.3282
11007SOL     OW38857   7.742   7.066   0.259  0.2093  0.1857 -0.1746
11007SOL    HW138858   7.722   6.974   0.243  1.7925 -0.2647  0.2189
11007SOL    HW238859   7.825   7.081   0.213 -1.3862  2.2181 -2.6492
11008SOL     OW38860   3.516   5.348  12.061  0.7423 -0.1165 -0.3867
11008SOL    HW138861   3.525   5.432  12.016  1.0871  0.6879  1.1020
11008SOL    HW238862   3.435   5.357  12.112  0.4588 -0.9290 -0.6763
11009SOL     OW38863   4.135  11.293   6.036  0.1532  0.2077 -0.2351
11009SOL    HW138864   4.110  11.345   6.112  0.9588 -0.3534  0.4332
11009SOL    HW238865   4.056  11.288   5.983 -0.0659  1.7234 -0.1014
11010SOL     OW38866   9.625   9.423  10.257  0.1552 -0.0028 -0.5051
11010SOL    HW138867   9.592   9.504  10.297 -2.4060 -0.7672 -0.8875
11010SOL    HW238868   9.616   9.357  10.325 -1.2877 -0.6762 -1.2976
11011SOL     OW38869   9.529  11.758   8.315 -0.1898 -0.5041 -0.2470
11011SOL    HW138870   9.492  11.806   8.389 -0.5296  0.2004 -0.8523
11011SOL    HW238871   9.464  11.767   8.246 -0.1313 -1.6307 -0.4571
11012SOL     OW38872  11.863   6.565   5.399 -0.1216  0.0706  0.1418
11012SOL    HW138873  11.879   6.518   5.317  2.3197  1.6082 -0.3809
11012SOL    HW238874  11.813   6.643   5.373 -0.8716 -0.3104  0.4138
11013SOL     OW38875   0.911   6.448  10.937  0.4134  0.2831  0.0416
11013SOL    HW138876   0.834   6.393  10.924 -0.2091  0.8060  1.3759
11013SOL    HW238877   0.967   6.429  10.861 -0.1918 -1.4922 -0.0086
11014SOL     OW38878   9.588   9.641  11.415 -0.2179  0.1297 -0.0464
11014SOL    HW138879   9.502   9.666  11.450 -0.2302  0.3756 -0.2506
11014SOL    HW238880   9.601   9.699  11.341 -0.4480 -0.7710 -0.8082
11015SOL     OW38881   8.568   1.160  10.499 -0.4601  0.1457 -0.0458
11015SOL    HW138882   8.662   1.145  10.496 -0.4849 -0.8651  2.2165
11015SOL    HW238883   8.555   1.240  10.449  1.5655  0.1959 -0.5723
11016SOL     OW38884   3.000   0.603   3.183 -0.4459  0.0531 -0.1683
11016SOL    HW138885   2.936   0.549   3.137  0.3273  0.9625 -2.4715
11016SOL    HW238886   2.951   0.680   3.212 -0.9128 -0.4592  0.4304
11017SOL     OW38887   6.366   5.887   6.992  0.3985 -0.3293  0.0065
11017SOL    HW138888   6.426   5.954   7.023 -2.4979  1.0992  3.1851
11017SOL    HW238889   6.307   5.933   6.932 -1.1980 -0.0388  1.6963
11018SOL     OW38890  10.583   4.947   6.553 -0.3774  0.6213 -0.0694
11018SOL    HW138891  10.511   4.956   6.491 -0.8282 -0.1653  0.3138
11018SOL    HW238892  10.564   4.865   6.599  0.1178  1.0322  0.8822
11019SOL     OW38893   2.471   9.528   0.017  0.4862  0.0526  0.4528
11019SOL    HW138894   2.412   9.468   0.062 -1.1692  0.7215 -0.7270
11019SOL    HW238895   2.423   9.612   0.017  1.5508  0.6761 -0.3262
11020SOL     OW38896  11.727   9.649   7.685  0.8662  0.2992 -0.2799
11020SOL    HW138897  11.699   9.557   7.684 -0.5946  0.6908  0.8000
11020SOL    HW238898  11.648   9.698   7.664  1.1723  1.3894  1.0000
11021SOL     OW38899  10.724   0.804  11.776  0.4118  0.1857  0.1625
11021SOL    HW138900  10.760   0.717  11.794 -0.8641 -1.0259 -2.6594
11021SOL    HW238901  10.780   0.839  11.706 -0.0893  0.9345  0.1236
11022SOL     OW38902   6.871   1.409  11.291  0.3298  0.1540 -0.0098
11022SOL    HW138903   6.829   1.470  11.352  1.7261 -0.8551  2.0764
11022SOL    HW238904   6.824   1.327  11.303 -1.3657  0.6273 -2.6165
11023SOL     OW38905   4.447   1.850   1.930 -0.0275  0.3448 -0.3341
11023SOL    HW138906   4.374   1.815   1.981  0.7964 -1.2292 -0.1706
11023SOL    HW238907   4.421   1.940   1.910 -1.0960  0.5034  1.4822
11024SOL     OW38908  10.131   6.594  11.978 -0.6444 -0.4061 -0.0828
11024SOL    HW138909  10.205   6.593  11.917  0.4716 -0.0398  1.2069
11024SOL    HW238910  10.115   6.686  11.996 -0.3772 -0.5272  0.8377
11025SOL     OW38911   1.813   8.890   2.612  0.2234  0.6875 -0.3959
11025SOL    HW138912   1.841   8.963   2.667  0.6498  0.1434  0.1265
11025SOL    HW238913   1.895   8.853   2.579  0.1073 -0.5325  0.6344
11026SOL     OW38914   8.942   0.934   9.057  0.0196  0.2362  0.7921
11026SOL    HW138915   8.876   0.867   9.039 -1.0687  1.1406  1.2555
11026SOL    HW238916   9.025   0.891   9.038 -0.5357 -1.6930  2.3191
11027SOL     OW38917   4.486   6.066  12.050 -0.5848  0.2504 -0.2831
11027SOL    HW138918   4.391   6.060  12.042 -0.6508  0.1484  0.4921
11027SOL    HW238919   4.505   6.027  12.136  0.2599 -0.7902 -0.9173
11028SOL     OW38920   6.407  10.291  10.983 -0.0692 -0.1448 -0.4260
11028SOL    HW138921   6.335  10.350  10.963  0.7141  0.6476 -0.9730
11028SOL    HW238922   6.480  10.349  11.007  1.1148 -0.7864 -2.2593
11029SOL     OW38923   5.678   2.973   0.530 -0.0157  0.0884 -0.1118
11029SOL    HW138924   5.693   2.882   0.556 -1.7975 -0.1700  0.0996
11029SOL    HW238925   5.763   3.015   0.543  1.0948 -1.7186 -1.0403
11030SOL     OW38926   0.184  10.392   5.599 -0.2700 -0.3799 -0.1504
11030SOL    HW138927   0.135  10.460   5.647 -0.1073 -0.2183 -0.2112
11030SOL    HW238928   0.265  10.436   5.572 -0.2355 -0.5536 -0.3295
11031SOL     OW38929  11.563  11.964   2.909  0.2371  0.7247  0.3875
11031SOL    HW138930  11.480  11.928   2.877  0.1758  0.6590  0.6179
11031SOL    HW238931  11.609  11.889   2.948  1.3415  0.3066 -1.6173
11032SOL     OW38932   3.404  10.542   9.894 -0.3659  0.2970 -0.0736
11032SOL    HW138933   3.399  10.476   9.824  0.4965  0.4840 -0.3237
11032SOL    HW238934   3.490  10.582   9.882  0.5716 -0.8724  2.1782
11033SOL     OW38935   4.948   5.193  10.560 -0.5008  0.1113  0.3399
11033SOL    HW138936   4.911   5.263  10.615 -0.5023  1.5148 -1.3659
11033SOL    HW238937   4.891   5.191  10.483  0.2755 -0.9011 -0.2301
11034SOL     OW38938   8.867   4.943   0.662 -0.1482 -0.3362 -0.0583
11034SOL    HW138939   8.833   4.856   0.685  2.0429 -1.5611 -1.0362
11034SOL    HW238940   8.956   4.943   0.697  0.1175  1.2790 -0.6542
11035SOL     OW38941  11.114   0.811   5.161  0.0327 -0.8438 -0.7035
11035SOL    HW138942  11.169   0.733   5.156 -0.3684 -1.3427  1.4545
11035SOL    HW238943  11.098   0.835   5.070  1.5594 -2.2724 -1.4075
11036SOL     OW38944   4.690   2.879   8.524 -0.2547 -0.2590 -0.4928
11036SOL    HW138945   4.633   2.836   8.460 -3.4193  0.9374  1.3024
11036SOL    HW238946   4.734   2.807   8.569 -1.4845 -1.3654 -0.9797
11037SOL     OW38947   3.934   6.649  11.009 -0.0338  0.5872  0.0370
11037SOL    HW138948   3.903   6.703  11.082 -0.3792 -0.0748  0.3866
11037SOL    HW238949   3.932   6.560  11.043  0.7880  0.3728 -0.4488
11038SOL     OW38950  11.127  12.228   0.533  0.1961 -0.6443 -0.1199
11038SOL    HW138951  11.177  12.258   0.610 -0.1796 -3.2988  1.2855
11038SOL    HW238952  11.149  12.291   0.464  1.8723  0.8972  1.6871
11039SOL     OW38953   8.040   1.685   5.716 -0.2744 -0.0441  0.2378
11039SOL    HW138954   8.107   1.705   5.650 -1.2411 -0.6105 -0.9522
11039SOL    HW238955   8.010   1.597   5.693 -0.4946 -0.3401  1.5834
11040SOL     OW38956  11.726   2.494   5.498 -0.1174  0.1401  0.9992
11040SOL    HW138957  11.755   2.534   5.580  2.1051  0.2526  0.2143
11040SOL    HW238958  11.713   2.402   5.520  2.2175 -0.2179  1.1525
11041SOL     OW38959   5.348  12.130   8.303 -0.0035 -0.7974 -0.4494
11041SOL    HW138960   5.305  12.161   8.383 -1.6131 -0.4922 -1.4027
11041SOL    HW238961   5.324  12.038   8.296  1.3644 -1.2347  0.1677
11042SOL     OW38962   3.476   9.120   9.992 -0.3316  0.5515 -0.0636
11042SOL    HW138963   3.519   9.130   9.907 -0.7322  1.2917 -0.1898
11042SOL    HW238964   3.384   9.139   9.974 -0.5175  0.1523  0.4306
11043SOL     OW38965  10.547   1.596   7.440  0.3048  0.3936  0.1433
11043SOL    HW138966  10.604   1.543   7.496  1.0521  0.8965 -0.1247
11043SOL    HW238967  10.472   1.540   7.422  1.2726 -0.7445 -0.4703
11044SOL     OW38968   5.322   8.051   1.483 -0.5928 -0.0364 -0.3312
11044SOL    HW138969   5.282   7.975   1.440  2.8810 -3.2295  1.5740
11044SOL    HW238970   5.288   8.049   1.572 -0.3707  0.6012 -0.2244
11045SOL     OW38971   4.463   1.317   5.462 -0.0463  0.2940 -0.1048
11045SOL    HW138972   4.449   1.289   5.552 -2.1137  0.3859 -0.3564
11045SOL    HW238973   4.463   1.235   5.411  2.9727  0.0538  0.1059
11046SOL     OW38974   6.992   4.012   7.908 -0.7379 -0.2618  0.2415
11046SOL    HW138975   6.962   4.037   7.820 -0.5963  0.6974  0.4575
11046SOL    HW238976   7.087   4.007   7.899 -0.4914  2.1770  0.8822
11047SOL     OW38977  10.748  11.801   2.585  0.0347 -0.1197  0.1596
11047SOL    HW138978  10.739  11.724   2.528 -2.0082 -0.5881  1.0072
11047SOL    HW238979  10.738  11.766   2.674  1.9050  0.7680  0.7572
11048SOL     OW38980   9.119   2.913   0.093 -0.1157  0.2840  0.9854
11048SOL    HW138981   9.036   2.944   0.055  0.1901  0.3588  0.3693
11048SOL    HW238982   9.141   2.836   0.040  0.8651  1.0143  0.2898
11049SOL     OW38983  10.492   0.875   2.247  0.1659 -0.0786 -0.5154
11049SOL    HW138984  10.410   0.874   2.295  0.2425  2.1929 -0.2531
11049SOL    HW238985  10.542   0.801   2.282 -2.1760 -2.3374 -1.5715
11050SOL     OW38986   4.162   9.590   4.667  0.0064  0.5310 -0.4162
11050SOL    HW138987   4.128   9.675   4.697 -1.9998  0.3407 -1.9427
11050SOL    HW238988   4.173   9.601   4.573  0.0518 -0.8047 -0.5834
11051SOL     OW38989   9.659   8.743  10.147 -0.2954 -0.4375 -0.1285
11051SOL    HW138990   9.672   8.832  10.179 -1.4963 -0.3017  0.0177
11051SOL    HW238991   9.719   8.690  10.200 -1.0151  0.0185  1.1925
11052SOL     OW38992   8.881   4.745   4.959 -0.5820  0.0929 -0.4478
11052SOL    HW138993   8.854   4.760   4.868  1.5059 -0.6257 -1.2475
11052SOL    HW238994   8.888   4.832   4.997  2.1456  0.7568 -2.1563
11053SOL     OW38995   1.801   6.622   6.940  0.5786  0.0973  0.0348
11053SOL    HW138996   1.863   6.680   6.898 -0.4989  0.9554 -0.4058
11053SOL    HW238997   1.739   6.598   6.871 -0.0798 -0.0572  0.6676
11054SOL     OW38998   8.392   6.425   6.315 -0.4612  0.1144 -0.3393
11054SOL    HW138999   8.463   6.430   6.380  0.8781 -0.0962 -1.7245
11054SOL    HW239000   8.388   6.513   6.277 -3.3691  1.1796  2.0908
11055SOL     OW39001   9.404   4.964   5.281 -0.7319 -0.0202  0.5408
11055SOL    HW139002   9.387   4.869   5.277  1.3895 -0.4138 -1.6680
11055SOL    HW239003   9.420   4.981   5.373  0.0742 -2.1124  0.8630
11056SOL     OW39004  11.830   1.857  11.890 -0.0983 -0.3785 -0.1129
11056SOL    HW139005  11.794   1.797  11.825 -0.9972 -0.1407  0.1604
11056SOL    HW239006  11.918   1.878  11.857  0.8178 -2.9122  0.4591
11057SOL     OW39007   9.124   9.205   2.523  0.2405  0.4876 -0.0571
11057SOL    HW139008   9.108   9.161   2.607 -0.5014 -1.1076 -0.9802
11057SOL    HW239009   9.195   9.155   2.484 -0.8406 -0.1637 -1.2776
11058SOL     OW39010   3.663  10.286   3.835 -0.5392 -0.5512  0.2990
11058SOL    HW139011   3.632  10.197   3.852  1.3159 -1.3483 -0.2133
11058SOL    HW239012   3.752  10.288   3.870 -0.9099  1.4667  1.2877
11059SOL     OW39013   7.414  11.069   6.900 -0.1831 -0.4025 -0.2540
11059SOL    HW139014   7.401  10.976   6.922 -1.2040 -0.0599  0.7247
11059SOL    HW239015   7.467  11.103   6.971 -0.9623  0.0510  0.1275
11060SOL     OW39016   1.531  11.618   5.008  0.0245  0.1963 -0.3562
11060SOL    HW139017   1.576  11.672   4.943 -0.6334  1.4691  0.2057
11060SOL    HW239018   1.530  11.530   4.970 -0.0658  0.8420 -1.9227
11061SOL     OW39019   2.429  11.478  11.962  0.5347  0.5289 -0.0221
11061SOL    HW139020   2.366  11.448  11.896 -0.6585  1.3719  0.7054
11061SOL    HW239021   2.509  11.429  11.942 -0.6825 -1.4871 -0.2428
11062SOL     OW39022  11.143   8.949   6.506  0.2330 -0.2334  0.1283
11062SOL    HW139023  11.136   9.042   6.527 -2.1084 -0.8416  2.6362
11062SOL    HW239024  11.235   8.927   6.522  0.8035  1.5641 -0.4040
11063SOL     OW39025   8.827   8.771   6.223  0.2289  0.6407  0.2636
11063SOL    HW139026   8.769   8.697   6.206 -0.7601  1.6324 -0.8562
11063SOL    HW239027   8.888   8.739   6.290  0.5090 -1.5196 -0.9458
11064SOL     OW39028  10.615  10.845   1.150 -0.0325  0.1200 -1.2113
11064SOL    HW139029  10.530  10.801   1.143  0.5147 -1.4209  0.6583
11064SOL    HW239030  10.660  10.822   1.069 -0.7389 -0.6086 -1.4184
11065SOL     OW39031   5.824   7.583   4.954  0.0173  0.6594 -0.1869
11065SOL    HW139032   5.729   7.593   4.947  0.2924  2.6543 -1.8498
11065SOL    HW239033   5.837   7.488   4.963 -2.1671  0.4522  1.4724
11066SOL     OW39034   7.626   0.263  10.396 -0.2396  0.3754 -0.1063
11066SOL    HW139035   7.605   0.282  10.304  2.9272  0.0037 -1.0135
11066SOL    HW239036   7.699   0.321  10.416 -0.6832  0.2273  2.1199
11067SOL     OW39037  11.847   2.870   4.672 -0.3335  0.4967 -0.2794
11067SOL    HW139038  11.777   2.823   4.627 -1.2607  0.8205  0.7647
11067SOL    HW239039  11.923   2.813   4.666 -1.2773 -0.8948  0.4555
11068SOL     OW39040  10.563  12.091   8.828  0.1592  0.0580 -0.2417
11068SOL    HW139041  10.540  12.183   8.841 -1.0008 -0.1182 -0.9099
11068SOL    HW239042  10.658  12.090   8.819  0.2505  1.0933  0.5031
11069SOL     OW39043  11.043   0.454   6.202 -0.1081  0.0123 -0.1565
11069SOL    HW139044  11.098   0.377   6.188  0.2086  0.2619 -0.2936
11069SOL    HW239045  10.976   0.448   6.134 -2.0629 -1.8798  1.7613
11070SOL     OW39046   5.564   1.625   1.774  0.5206  0.2806 -0.0655
11070SOL    HW139047   5.557   1.624   1.679 -2.7777  0.7251  0.0555
11070SOL    HW239048   5.602   1.540   1.796  0.3191 -0.2718 -1.7386
11071SOL     OW39049   0.898  11.650   2.735 -0.2201 -0.0161 -0.1874
11071SOL    HW139050   0.852  11.728   2.766 -0.5769 -0.7904  1.3826
11071SOL    HW239051   0.991  11.669   2.749 -0.2607  0.3720 -0.4366
11072SOL     OW39052   4.944   8.596  10.695 -0.3968 -0.8210  0.3800
11072SOL    HW139053   4.979   8.512  10.727  1.3587 -0.3672 -0.2127
11072SOL    HW239054   5.020   8.640  10.658 -1.9655 -0.6077 -2.9214
11073SOL     OW39055   3.975   3.744   4.396 -0.1096 -0.1229  0.2648
11073SOL    HW139056   3.986   3.679   4.466 -1.7325  0.2662  0.9318
11073SOL    HW239057   3.884   3.734   4.369  0.4052 -0.0448 -1.6062
11074SOL     OW39058  11.575   9.155   5.061 -0.2025  0.1652 -0.3866
11074SOL    HW139059  11.592   9.228   5.120 -0.1407  0.4825 -0.7954
11074SOL    HW239060  11.656   9.146   5.010 -0.2783 -0.0636 -0.4676
11075SOL     OW39061   6.915  11.510  11.669  0.3272  0.3645  0.0948
11075SOL    HW139062   6.997  11.462  11.668  0.6183  0.8297  0.9086
11075SOL    HW239063   6.861  11.467  11.736 -0.9218 -1.2312 -1.8072
11076SOL     OW39064   3.460   7.044   7.742 -0.2182 -0.3314 -0.3584
11076SOL    HW139065   3.380   6.992   7.743 -0.1396 -0.6131 -2.7978
11076SOL    HW239066   3.464   7.080   7.653  0.7519  2.2679  0.6248
11077SOL     OW39067   0.076  11.085   9.260  0.1304  0.2218 -0.8893
11077SOL    HW139068   0.054  11.002   9.219  1.0059 -0.7057  0.4440
11077SOL    HW239069   0.170  11.079   9.277  0.1656  1.3994 -0.5767
11078SOL     OW39070   2.768   0.559  10.864  0.3448 -0.1108 -0.2549
11078SOL    HW139071   2.720   0.598  10.937  1.5919 -0.6296  0.9044
11078SOL    HW239072   2.703   0.508  10.817 -0.2757 -0.8127  1.2844
11079SOL     OW39073   6.832   1.375   2.305 -0.4207 -0.1467 -0.1605
11079SOL    HW139074   6.764   1.308   2.294  0.2661 -0.8388 -0.2925
11079SOL    HW239075   6.910   1.326   2.330 -0.2973  0.7758  1.3499
11080SOL     OW39076   3.493   3.022   1.993  0.0902  0.3999 -0.0370
11080SOL    HW139077   3.549   2.953   2.029  0.5456  1.2013  0.8579
11080SOL    HW239078   3.407   2.981   1.983  0.6513 -0.6559 -0.7689
11081SOL     OW39079   6.197   8.499   5.675 -0.2940 -0.0940  0.0245
11081SOL    HW139080   6.250   8.426   5.643 -1.4824 -1.5920  1.2650
11081SOL    HW239081   6.241   8.577   5.643  0.7973 -1.3606 -1.7304
11082SOL     OW39082   3.398  11.171   9.738  0.5288 -0.0330 -0.3738
11082SOL    HW139083   3.327  11.225   9.773  0.7864  0.7339 -1.0287
11082SOL    HW239084   3.420  11.210   9.654  2.1291  0.1054  0.0692
11083SOL     OW39085   7.810   0.606   2.245  0.2638 -0.1279 -0.0646
11083SOL    HW139086   7.738   0.654   2.285  1.0172  1.8742 -0.9837
11083SOL    HW239087   7.827   0.534   2.305 -1.2924  0.4140  1.0963
11084SOL     OW39088   3.217   6.512   3.859 -0.2676  0.2938  0.2810
11084SOL    HW139089   3.196   6.431   3.906 -1.2498  0.0916 -0.4592
11084SOL    HW239090   3.156   6.512   3.785  1.0718  0.7117 -0.8569
11085SOL     OW39091   4.406   1.754   7.485 -0.7297 -0.3687  0.3952
11085SOL    HW139092   4.353   1.806   7.425 -0.6855  0.9642  1.4618
11085SOL    HW239093   4.474   1.716   7.430 -0.4501  1.1380 -0.3608
11086SOL     OW39094   4.100   2.882   4.351  0.3232 -0.0925 -0.2888
11086SOL    HW139095   4.095   2.787   4.343  0.5398 -0.2120  0.8349
11086SOL    HW239096   4.193   2.900   4.367  0.2779  0.3123 -0.4633
11087SOL     OW39097   6.289   9.794  12.010 -0.3365 -0.3105  0.2035
11087SOL    HW139098   6.378   9.826  12.002 -0.4769  0.9947  2.8012
11087SOL    HW239099   6.238   9.870  12.037 -2.1852 -1.1084 -0.8552
11088SOL     OW39100   8.858   6.917   7.069 -0.4019 -0.7129 -0.7995
11088SOL    HW139101   8.766   6.899   7.047 -1.0082 -0.6565  1.4198
11088SOL    HW239102   8.904   6.836   7.048 -1.0719 -0.9602 -1.3484
11089SOL     OW39103   4.224  10.337   4.584  0.0904  0.0190  0.1510
11089SOL    HW139104   4.310  10.341   4.627  0.5708 -0.5705 -0.7208
11089SOL    HW239105   4.236  10.387   4.503 -0.0750 -0.9203 -0.4714
11090SOL     OW39106   9.416   7.812   6.335  0.7063  0.0377 -0.1696
11090SOL    HW139107   9.369   7.882   6.292  0.2199  0.2639  0.7001
11090SOL    HW239108   9.394   7.822   6.428  0.6746 -1.2233 -0.0249
11091SOL     OW39109   9.151   9.207   6.090 -0.7948  0.1527  0.0308
11091SOL    HW139110   9.092   9.250   6.028 -0.3093  0.3690 -0.2901
11091SOL    HW239111   9.104   9.128   6.117 -1.3210  0.4335 -0.0484
11092SOL     OW39112  10.596   8.858   0.018 -0.2256 -0.1714 -0.2685
11092SOL    HW139113  10.576   8.926  -0.047 -0.7673  1.7319  1.7416
11092SOL    HW239114  10.532   8.789   0.001 -0.7457  0.5474 -1.3605
11093SOL     OW39115   7.695   2.735   9.333  0.1109 -0.0209  0.3147
11093SOL    HW139116   7.720   2.808   9.390 -0.2780 -0.2344  0.7723
11093SOL    HW239117   7.636   2.682   9.387  0.0242 -0.4259 -0.1691
11094SOL     OW39118   9.602   5.892   5.762  0.4001  0.2323  0.5156
11094SOL    HW139119   9.631   5.980   5.737  0.7285  0.2343  0.8885
11094SOL    HW239120   9.660   5.834   5.714  0.2069  0.2180  0.2979
11095SOL     OW39121  11.229   2.121   6.489  0.1866  0.0716  0.0174
11095SOL    HW139122  11.198   2.073   6.412  0.8445 -2.4964  1.2275
11095SOL    HW239123  11.151   2.135   6.542  0.0032  0.1979 -0.2862
11096SOL     OW39124   8.031   5.893   4.981 -0.4003 -0.0078 -0.1642
11096SOL    HW139125   8.062   5.892   4.890  1.6296 -0.6641  0.4758
11096SOL    HW239126   7.989   5.808   4.993 -2.9258  1.0083 -1.1318
11097SOL     OW39127   8.976  11.163   1.257  0.2883  0.2216  0.9385
11097SOL    HW139128   9.062  11.144   1.219  0.6600  1.3851  1.1748
11097SOL    HW239129   8.962  11.090   1.319  2.2927  1.2978  2.8270
11098SOL     OW39130   8.059   0.133   9.903  0.2034  0.5875  0.0810
11098SOL    HW139131   8.021   0.204   9.955  0.8196  1.9523 -1.2602
11098SOL    HW239132   8.130   0.174   9.854  1.6071 -1.3041  0.4113
11099SOL     OW39133  10.774   7.418   6.794 -0.5314  0.2796 -0.1453
11099SOL    HW139134  10.718   7.491   6.770  0.2763  0.5626 -1.2112
11099SOL    HW239135  10.732   7.341   6.755  0.5736  0.6847 -2.2808
11100SOL     OW39136   2.382  11.497   8.175 -0.3777 -0.2696 -0.1996
11100SOL    HW139137   2.406  11.557   8.246 -1.0134  1.4374 -1.3674
11100SOL    HW239138   2.287  11.494   8.178 -0.3370 -2.0016  0.4140
11101SOL     OW39139   0.785   9.696   6.290 -0.0716  0.1904  0.2786
11101SOL    HW139140   0.784   9.682   6.195 -0.9111  0.6191  0.2150
11101SOL    HW239141   0.870   9.662   6.318  1.3254  2.3975 -0.9790
11102SOL     OW39142   1.750   1.008   1.395  0.1998 -0.0610 -0.0764
11102SOL    HW139143   1.713   1.034   1.479  0.9423  0.9127 -0.0422
11102SOL    HW239144   1.683   0.950   1.357 -0.7478  0.5834  0.5671
11103SOL     OW39145   4.015   3.302   4.281 -0.3174 -0.0119 -0.4971
11103SOL    HW139146   3.938   3.328   4.333 -0.9223 -0.3700 -1.1903
11103SOL    HW239147   4.076   3.375   4.291 -1.0214  0.5900 -0.4694
11104SOL     OW39148  10.628   8.206   1.763 -0.1093 -0.0716  0.0011
11104SOL    HW139149  10.628   8.191   1.668  0.5201 -1.3536  0.1766
11104SOL    HW239150  10.628   8.118   1.800 -1.6632  0.4140  1.2157
11105SOL     OW39151   0.840   4.472   5.530 -0.0098 -0.3157  0.4555
11105SOL    HW139152   0.845   4.532   5.604 -0.1333  1.9876 -1.3039
11105SOL    HW239153   0.767   4.413   5.552 -1.9474  2.0940  0.9783
11106SOL     OW39154   2.184   0.872   5.964  0.2503 -0.4790 -0.6111
11106SOL    HW139155   2.186   0.933   5.890  0.6657  0.7479  0.3616
11106SOL    HW239156   2.275   0.864   5.991 -0.0624  0.7818  1.0423
11107SOL     OW39157  11.273   9.846  11.782  0.3150  0.0038 -0.1307
11107SOL    HW139158  11.205   9.872  11.844  0.9605  0.9403  0.2141
11107SOL    HW239159  11.234   9.862  11.696 -0.2146 -0.3203  0.0421
11108SOL     OW39160   1.104   4.020   7.757 -0.4979  0.2761 -0.1343
11108SOL    HW139161   1.045   3.970   7.701 -0.0447 -0.5537  0.1221
11108SOL    HW239162   1.112   3.968   7.837 -0.6943  1.1682  0.4933
11109SOL     OW39163  10.668   4.923   0.358  0.0922  0.3075  0.3347
11109SOL    HW139164  10.696   5.010   0.384 -2.0197  0.5653  1.9832
11109SOL    HW239165  10.672   4.871   0.438  0.2865 -0.8452 -0.3895
11110SOL     OW39166   6.051   5.076   8.782  0.6581 -0.9578  0.2214
11110SOL    HW139167   5.995   5.004   8.751  0.2844 -0.7877  0.4952
11110SOL    HW239168   6.135   5.033   8.802 -0.2214 -1.7513  2.5133
11111SOL     OW39169   4.952   1.955   2.709  0.4683 -0.2002  0.1919
11111SOL    HW139170   5.009   1.881   2.688  0.1713 -0.0646 -1.1744
11111SOL    HW239171   4.890   1.920   2.773  0.9877 -0.8314  0.3622
11112SOL     OW39172   9.851   1.302   3.477 -0.1083 -0.2850 -0.6678
11112SOL    HW139173   9.807   1.297   3.562 -0.1964 -0.0622 -0.7002
11112SOL    HW239174   9.944   1.308   3.498 -0.0879 -0.7502 -0.5993
11113SOL     OW39175   3.817   3.220  11.463 -0.1274 -0.0390 -0.5577
11113SOL    HW139176   3.753   3.291  11.463 -0.7659 -0.4994  2.2814
11113SOL    HW239177   3.899   3.262  11.489 -0.3348 -0.1641  0.3463
11114SOL     OW39178   8.452  11.381   1.073  0.2993 -0.3304 -0.3775
11114SOL    HW139179   8.537  11.423   1.080  0.0935  0.0033  0.1298
11114SOL    HW239180   8.462  11.298   1.120  0.5660 -0.6407 -0.9737
11115SOL     OW39181   6.613   5.468  11.944  0.1511  0.3755  0.1173
11115SOL    HW139182   6.693   5.452  11.994  0.5659  0.7459 -0.4235
11115SOL    HW239183   6.569   5.538  11.992  1.2244  1.7021 -0.7783
11116SOL     OW39184   0.376  10.064  11.778  0.1962  0.1150  0.2088
11116SOL    HW139185   0.456  10.013  11.768  0.3104 -0.8287  4.3824
11116SOL    HW239186   0.405  10.148  11.813 -0.4832  0.9885 -1.2110
11117SOL     OW39187   0.430   8.574   4.413 -0.2538  0.3272 -0.5628
11117SOL    HW139188   0.427   8.484   4.382 -0.2580  0.2996 -0.4844
11117SOL    HW239189   0.392   8.570   4.501 -0.8880  0.5219 -0.8229
11118SOL     OW39190   1.047   5.728   7.181 -0.3011  0.3595 -0.5910
11118SOL    HW139191   0.974   5.759   7.234 -0.1329  1.3892 -0.9410
11118SOL    HW239192   1.021   5.744   7.091 -0.0442 -0.1752 -0.7675
11119SOL     OW39193   1.310  11.025  11.124 -0.1323 -0.1710  0.0316
11119SOL    HW139194   1.253  11.100  11.140  0.9240  0.6686  0.0259
11119SOL    HW239195   1.387  11.063  11.081 -0.4106 -1.5340 -1.8203
11120SOL     OW39196   8.651   4.304   7.726  0.1423 -0.2666 -0.3807
11120SOL    HW139197   8.656   4.288   7.820  0.4627 -0.3617 -0.4110
11120SOL    HW239198   8.740   4.328   7.701 -0.3271  1.6017 -0.3435
11121SOL     OW39199   0.167   1.040   0.823  0.0411 -0.1697  0.0529
11121SOL    HW139200   0.174   1.066   0.731  1.3988 -0.4133  0.0647
11121SOL    HW239201   0.187   1.120   0.872  1.7041 -0.5778  0.1000
11122SOL     OW39202   5.959   1.510   0.142  0.2826  0.0989  0.3182
11122SOL    HW139203   5.880   1.484   0.095  0.0627  0.9687  0.1991
11122SOL    HW239204   5.990   1.588   0.097  1.2050 -0.2168  0.3800
11123SOL     OW39205   9.258   0.321   5.863 -0.8126 -0.4630  0.0594
11123SOL    HW139206   9.316   0.273   5.921  0.5261  1.4588  0.4010
11123SOL    HW239207   9.296   0.309   5.776 -0.8715 -0.5504  0.0445
11124SOL     OW39208   2.660   1.365   9.009  0.1097  0.1381 -0.6094
11124SOL    HW139209   2.582   1.312   9.027  0.6244 -0.4123  0.0613
11124SOL    HW239210   2.665   1.368   8.914 -0.5890 -0.0359 -0.6578
11125SOL     OW39211   2.269   4.692   4.783 -0.1730  0.0130 -0.1906
11125SOL    HW139212   2.236   4.741   4.858 -1.2769 -1.2392  0.1597
11125SOL    HW239213   2.283   4.603   4.815  2.5703  0.1954 -0.6015
11126SOL     OW39214  10.918   7.199   8.691 -0.3890 -0.9510  0.2226
11126SOL    HW139215  10.903   7.125   8.750 -0.9302  0.8587  2.5025
11126SOL    HW239216  10.834   7.246   8.689 -0.0131 -0.2697 -1.0262
11127SOL     OW39217   1.250   5.709   4.124  0.3630  0.6255 -0.6231
11127SOL    HW139218   1.166   5.750   4.105 -0.3727 -1.8017 -3.3981
11127SOL    HW239219   1.227   5.625   4.163  1.6837  1.1690  1.4986
11128SOL     OW39220   8.771  11.212   0.993 -0.0266  0.1572  0.0942
11128SOL    HW139221   8.748  11.303   1.014 -0.5223  0.1163 -0.2524
11128SOL    HW239222   8.804  11.176   1.075 -0.9351  0.3074  0.5352
11129SOL     OW39223   9.179   6.032   6.790 -0.5803 -0.6544 -0.0962
11129SOL    HW139224   9.205   6.116   6.828 -2.6178 -0.1345  0.2783
11129SOL    HW239225   9.240   6.019   6.717  0.4484  0.6161  0.5034
11130SOL     OW39226   4.824   8.141  10.274  0.1504 -0.3115  0.2056
11130SOL    HW139227   4.869   8.195  10.339 -2.5375 -1.5315  3.3026
11130SOL    HW239228   4.751   8.195  10.244  0.3257 -0.4418 -0.4796
11131SOL     OW39229   8.090   0.145   2.938  0.0881  0.0433  0.4469
11131SOL    HW139230   8.099   0.070   2.996  1.2033 -2.0879 -2.2654
11131SOL    HW239231   8.170   0.195   2.951  1.0242 -1.2140 -0.2085
11132SOL     OW39232   5.993  11.575   6.215 -0.1124 -0.0370 -0.0527
11132SOL    HW139233   5.938  11.643   6.254 -0.0223  0.0461 -0.0718
11132SOL    HW239234   5.932  11.517   6.170 -0.0628  0.8842 -1.3572
11133SOL     OW39235   1.748   5.271   2.798  0.1243 -0.2435  0.0937
11133SOL    HW139236   1.683   5.227   2.743  0.4250 -1.3397  0.5798
11133SOL    HW239237   1.831   5.230   2.775  0.4197  0.0915  0.5444
11134SOL     OW39238  10.459   4.722   8.255  0.0325 -0.3920 -0.2105
11134SOL    HW139239  10.448   4.801   8.202  0.0562 -0.9797 -1.1316
11134SOL    HW239240  10.552   4.723   8.280 -0.0070 -0.0403 -0.0744
11135SOL     OW39241   9.464   7.789  11.541 -0.0497 -0.1190 -0.2380
11135SOL    HW139242   9.395   7.849  11.569  0.1140  0.2331 -0.5695
11135SOL    HW239243   9.545   7.830  11.571 -0.0375 -1.1606  1.2897
11136SOL     OW39244   6.955  11.001   4.644 -0.4320  0.2559  0.1556
11136SOL    HW139245   7.000  10.973   4.564  1.1008 -1.6606  1.5972
11136SOL    HW239246   7.005  11.077   4.675  0.9914 -0.9784  0.9710
11137SOL     OW39247   2.249  12.150   2.774 -0.3776 -1.1778 -0.3282
11137SOL    HW139248   2.305  12.215   2.732 -1.5534 -0.1626 -0.3615
11137SOL    HW239249   2.303  12.115   2.845  0.0206  0.3701  0.1728
11138SOL     OW39250   2.432   7.028  11.386 -0.1062 -0.2891 -0.5307
11138SOL    HW139251   2.500   6.964  11.408  1.1170  0.5435 -1.6688
11138SOL    HW239252   2.473   7.083  11.319 -2.0371  0.0374 -1.5161
11139SOL     OW39253   4.025   0.659   2.890  0.6303  0.2401  0.2505
11139SOL    HW139254   4.041   0.576   2.935  0.4945  0.2598  0.3364
11139SOL    HW239255   3.961   0.704   2.946 -0.3214 -0.1698 -0.4722
11140SOL     OW39256   1.220   1.480   8.011 -0.9185  0.3266 -0.4333
11140SOL    HW139257   1.265   1.436   7.939  0.5368  2.8819 -1.1998
11140SOL    HW239258   1.149   1.420   8.034  0.3915 -1.9663 -1.9417
11141SOL     OW39259   3.546  10.187  12.310  0.2569  0.4825 -0.0406
11141SOL    HW139260   3.510  10.108  12.270 -2.1074  1.7159 -0.4910
11141SOL    HW239261   3.471  10.245  12.322  1.7192  2.2013  1.4249
11142SOL     OW39262   0.540   1.820   9.888  0.7720 -0.3314  0.7383
11142SOL    HW139263   0.591   1.761   9.832 -0.6153 -1.5032  0.6361
11142SOL    HW239264   0.449   1.807   9.859  0.2875  0.8283  1.6710
11143SOL     OW39265   8.734   2.950   8.104  0.3743 -0.8106  0.1512
11143SOL    HW139266   8.695   2.948   8.192  0.8355  0.1605  0.3895
11143SOL    HW239267   8.784   3.031   8.102  1.2360 -1.3498 -0.6499
11144SOL     OW39268   2.261   3.507   7.701  0.8816  0.0236 -0.5009
11144SOL    HW139269   2.332   3.553   7.748 -0.0013 -0.2999  1.2427
11144SOL    HW239270   2.190   3.502   7.765 -0.7045  0.2412 -2.1648
11145SOL     OW39271  10.674   7.914   1.793 -0.3784  0.1144  0.0738
11145SOL    HW139272  10.751   7.868   1.760  1.3811 -0.4937  4.3512
11145SOL    HW239273  10.601   7.857   1.771  1.0375 -1.8800  0.2536
11146SOL     OW39274  11.652   1.050   6.423 -0.3382 -0.5781 -0.5977
11146SOL    HW139275  11.677   1.142   6.432  0.5267 -0.6758 -1.6893
11146SOL    HW239276  11.578   1.052   6.362 -0.5172 -0.5756 -0.3779
11147SOL     OW39277   0.914   4.264   8.114  0.0292  0.6891  0.1795
11147SOL    HW139278   0.862   4.192   8.149  1.0798  0.4583  1.3237
11147SOL    HW239279   1.000   4.226   8.098  0.1279  1.2909 -0.7953
11148SOL     OW39280   1.258  11.063  10.091 -0.4344  0.2626  0.1757
11148SOL    HW139281   1.244  11.033  10.001  0.4042 -0.1090  0.1649
11148SOL    HW239282   1.343  11.108  10.089  0.2410 -0.9368  1.0641
11149SOL     OW39283   7.832   7.036   2.924 -0.6063 -0.1292  0.3694
11149SOL    HW139284   7.811   6.947   2.895 -0.8201  0.1820 -0.4748
11149SOL    HW239285   7.927   7.044   2.911 -0.2207 -0.9229  2.4432
11150SOL     OW39286   6.082   3.285   1.320  0.4710 -0.2128 -0.5447
11150SOL    HW139287   6.011   3.349   1.325  1.3258  0.7529 -0.5690
11150SOL    HW239288   6.126   3.305   1.238  1.6042  0.0907  0.1211
11151SOL     OW39289   3.503  11.093   3.816 -0.6038  0.0900 -0.2471
11151SOL    HW139290   3.500  11.116   3.723  0.3002 -0.8705 -0.5357
11151SOL    HW239291   3.412  11.092   3.844 -0.9738 -0.6729 -1.4089
11152SOL     OW39292   8.635   9.511  11.697 -0.0032  0.3063 -0.3399
11152SOL    HW139293   8.624   9.419  11.672  0.7139  0.2123 -0.3370
11152SOL    HW239294   8.692   9.548  11.630 -2.9256  1.6774 -2.3088
11153SOL     OW39295  11.477   7.556   6.532  0.4065 -0.2965 -0.2825
11153SOL    HW139296  11.432   7.496   6.472 -0.2666  1.4590 -1.5996
11153SOL    HW239297  11.438   7.537   6.618 -2.9819  1.1306 -1.3475
11154SOL     OW39298   1.581   4.946   6.712 -0.0989  0.0833 -0.1582
11154SOL    HW139299   1.603   4.878   6.776  0.4405  1.3956  1.0925
11154SOL    HW239300   1.652   4.943   6.648 -0.3695 -0.8729 -0.4437
11155SOL     OW39301   8.627   3.054   0.682  0.2011  0.8742 -1.1697
11155SOL    HW139302   8.552   3.009   0.643 -0.6034  0.8839  0.2654
11155SOL    HW239303   8.681   2.984   0.718  0.4942  0.9065 -1.5439
11156SOL     OW39304   5.121   5.932   3.266  0.2736 -0.0153  0.1856
11156SOL    HW139305   5.213   5.906   3.270  0.4470  0.6029  0.3297
11156SOL    HW239306   5.099   5.925   3.173 -0.1715 -2.2551  0.4005
11157SOL     OW39307   2.205   5.004   8.198  0.0041  0.0886  0.0148
11157SOL    HW139308   2.138   5.044   8.143 -0.2253 -0.9174 -0.4658
11157SOL    HW239309   2.286   5.011   8.147  0.0018  0.1281  0.0165
11158SOL     OW39310   2.321   9.095   6.812 -0.4297  0.1906 -0.4136
11158SOL    HW139311   2.229   9.101   6.838 -0.5908 -1.6840 -0.4519
11158SOL    HW239312   2.328   9.014   6.762  1.6930 -1.0735  1.6984
11159SOL     OW39313   9.345   7.539   1.686  0.5141 -0.1176 -0.1503
11159SOL    HW139314   9.358   7.568   1.596  1.9382  1.3663  0.4615
11159SOL    HW239315   9.332   7.621   1.735 -1.3318 -0.9506  0.8658
11160SOL     OW39316   1.668   5.900   8.081  0.1583  0.5099  0.1955
11160SOL    HW139317   1.579   5.897   8.045 -0.5572 -1.7739  1.9111
11160SOL    HW239318   1.710   5.822   8.046  1.3563  1.3209 -0.2110
11161SOL     OW39319   4.483   0.077   7.240  0.0758  0.2154 -0.4108
11161SOL    HW139320   4.531   0.159   7.246  1.6276 -0.6380 -0.7340
11161SOL    HW239321   4.402   0.093   7.290  1.2584  1.2987  1.2743
11162SOL     OW39322  11.846   2.993  11.929 -0.3785 -0.1533  0.8197
11162SOL    HW139323  11.939   2.989  11.905 -0.3334 -0.5956  1.0588
11162SOL    HW239324  11.800   2.995  11.845 -0.2319 -1.8406  0.6662
11163SOL     OW39325  10.982   4.398   2.081  0.7583 -0.5162  0.1594
11163SOL    HW139326  10.935   4.357   2.009 -3.1035 -0.4968  2.4051
11163SOL    HW239327  11.056   4.340   2.098  2.2127 -0.2188 -3.9762
11164SOL     OW39328   0.328   9.648   0.063 -0.2534 -0.0448  0.0903
11164SOL    HW139329   0.242   9.613   0.084  0.1660 -0.5931  0.9328
11164SOL    HW239330   0.340   9.721   0.125  0.1911 -0.4448  0.4827
11165SOL     OW39331  12.119   0.835   6.155  0.4454  0.2214 -0.0630
11165SOL    HW139332  12.199   0.787   6.134  1.0547  0.9775  0.4517
11165SOL    HW239333  12.090   0.870   6.071 -0.4692 -1.6941 -0.5875
11166SOL     OW39334   4.986   9.703   9.957  0.1108 -0.0296  0.3515
11166SOL    HW139335   5.027   9.631  10.005 -1.1202 -0.6246  0.5521
11166SOL    HW239336   4.906   9.722  10.006 -0.2983  0.5227 -0.5040
11167SOL     OW39337   1.151   6.919   6.963 -0.3421  0.8020 -0.1201
11167SOL    HW139338   1.211   6.862   7.011 -0.4294  0.4184 -0.4617
11167SOL    HW239339   1.127   6.869   6.885 -2.0346  0.4689  0.5759
11168SOL     OW39340   3.838   7.552   4.940 -0.1006 -0.5381 -0.7415
11168SOL    HW139341   3.743   7.544   4.936 -0.0700 -2.5003  0.8154
11168SOL    HW239342   3.871   7.468   4.910  1.1424 -0.0123 -0.9192
11169SOL     OW39343   9.507  11.349   9.663  0.3364 -0.3559  0.3194
11169SOL    HW139344   9.435  11.406   9.690  1.9503  1.2161  1.6256
11169SOL    HW239345   9.530  11.379   9.575 -0.7939 -1.1284 -0.2663
11170SOL     OW39346   3.852   0.005   5.026  0.0913 -0.5060 -0.2958
11170SOL    HW139347   3.868   0.100   5.029  0.7304 -0.5275 -1.8262
11170SOL    HW239348   3.760  -0.005   5.048  0.7732  0.1237  3.4442
11171SOL     OW39349   6.792  10.055   6.885  0.1393  0.5796 -0.0353
11171SOL    HW139350   6.878  10.033   6.851 -0.8595 -1.2391 -1.5695
11171SOL    HW239351   6.732  10.039   6.812 -1.6783  0.1338  1.4730
11172SOL     OW39352   4.700   5.020   1.738  0.0213 -0.4168 -0.2691
11172SOL    HW139353   4.675   5.107   1.767  1.9059 -0.4589  1.8313
11172SOL    HW239354   4.701   5.025   1.643 -2.7970  0.9311 -0.3300
11173SOL     OW39355   0.201  10.615   1.862 -0.7426 -0.3766 -0.0717
11173SOL    HW139356   0.217  10.621   1.956  0.2378  1.6701 -0.3012
11173SOL    HW239357   0.113  10.650   1.850 -0.8507 -0.5970  0.0942
11174SOL     OW39358  11.156   1.338   1.504 -0.1489  0.3834  0.0506
11174SOL    HW139359  11.144   1.268   1.569 -0.6035 -0.2194 -0.6602
11174SOL    HW239360  11.223   1.395   1.542 -0.5993  0.1911  1.1614
11175SOL     OW39361  11.050   5.230  12.161 -0.1845 -0.4747  0.3117
11175SOL    HW139362  11.098   5.310  12.137 -1.4210  0.5784  1.2644
11175SOL    HW239363  11.043   5.181  12.079  1.3475 -0.0388 -0.1106
11176SOL     OW39364   0.027   8.090   7.242  0.2281 -0.4333  0.1775
11176SOL    HW139365   0.016   7.998   7.269 -0.9192 -0.7595 -1.2849
11176SOL    HW239366   0.082   8.086   7.164  0.6466  0.1849  0.4366
11177SOL     OW39367  11.284   2.742   2.490  0.3838 -0.8121 -0.5919
11177SOL    HW139368  11.231   2.663   2.493  0.0509 -0.5914 -0.6278
11177SOL    HW239369  11.254   2.788   2.411 -1.3394  0.6705  0.8528
11178SOL     OW39370   1.660   6.371   0.381  0.2150 -0.0879  0.2685
11178SOL    HW139371   1.700   6.287   0.360  1.2144  0.7156 -1.1520
11178SOL    HW239372   1.571   6.365   0.347  0.5517 -0.2751 -0.5883
11179SOL     OW39373  11.994  11.222   1.640  0.3411  0.3537 -0.1531
11179SOL    HW139374  12.017  11.283   1.570  1.5010 -0.5045 -0.5620
11179SOL    HW239375  11.982  11.138   1.596 -0.0914  0.0450  0.5334
11180SOL     OW39376   8.077  11.251   4.301 -0.0993 -0.4928 -0.0977
11180SOL    HW139377   8.067  11.246   4.396  0.0126  1.9307  0.0856
11180SOL    HW239378   8.170  11.270   4.287 -0.5238  1.3666 -0.5558
11181SOL     OW39379  11.140   5.802   0.520 -0.1196 -0.0841  0.5131
11181SOL    HW139380  11.153   5.881   0.467 -2.5440 -0.5955 -1.0286
11181SOL    HW239381  11.088   5.832   0.595 -2.3128 -0.3376 -0.8104
11182SOL     OW39382  11.982   6.069   2.804 -0.2035  0.5983 -0.1254
11182SOL    HW139383  11.960   6.071   2.711  1.7885  1.1853 -0.6427
11182SOL    HW239384  12.038   5.992   2.814 -0.9590  0.1323  0.7602
11183SOL     OW39385   7.483  12.178   8.047 -0.3554  0.8566 -0.6554
11183SOL    HW139386   7.413  12.120   8.017 -1.7497  0.9207  2.2116
11183SOL    HW239387   7.553  12.120   8.075  0.2837  0.7632 -2.3328
11184SOL     OW39388   9.580  11.803   6.682 -0.1704 -0.3918  0.0111
11184SOL    HW139389   9.637  11.750   6.738 -0.2675 -0.5574 -0.0472
11184SOL    HW239390   9.624  11.888   6.677  1.8154 -1.4178 -2.5957
11185SOL     OW39391   0.312   3.803   6.185 -0.2882 -0.1292 -0.0296
11185SOL    HW139392   0.279   3.881   6.141  0.2585 -0.0902 -0.3774
11185SOL    HW239393   0.406   3.818   6.194 -0.2710 -0.4888  0.4370
11186SOL     OW39394   8.071  11.992   4.690 -0.6225  0.0379 -0.3250
11186SOL    HW139395   7.994  11.992   4.747 -0.6846  0.4351 -0.4099
11186SOL    HW239396   8.045  12.044   4.614 -1.0377 -1.6839 -1.4089
11187SOL     OW39397   0.241   8.750  10.997 -0.3953  0.4686  0.3160
11187SOL    HW139398   0.301   8.804  10.946 -0.1137  0.3980  0.5729
11187SOL    HW239399   0.162   8.804  11.006 -1.0635 -0.1085 -1.5302
11188SOL     OW39400   4.333   9.431   6.163 -0.0802 -0.2859 -0.5109
11188SOL    HW139401   4.280   9.508   6.146  0.3348  0.4822  1.4174
11188SOL    HW239402   4.327   9.418   6.258  2.0929 -0.9618 -0.4195
11189SOL     OW39403   8.088   6.671  10.691  0.2695  0.0381  0.1470
11189SOL    HW139404   8.156   6.676  10.624 -0.1155  1.1384 -0.1886
11189SOL    HW239405   8.019   6.617  10.651 -1.1820  2.9044 -1.5424
11190SOL     OW39406   4.194  10.222   6.457  0.1357  0.7936  0.4440
11190SOL    HW139407   4.214  10.145   6.402  0.9849  0.7911  0.7512
11190SOL    HW239408   4.113  10.256   6.420  0.2488  0.2969 -0.2930
11191SOL     OW39409   2.949   3.963   0.319 -0.2638  0.0736 -0.0316
11191SOL    HW139410   2.993   3.903   0.259  1.7352  0.2130  1.1995
11191SOL    HW239411   2.873   3.914   0.351  0.7710 -1.4538  0.1995
11192SOL     OW39412   4.074   7.278   0.523  0.0955  0.0426 -0.0905
11192SOL    HW139413   4.055   7.184   0.523 -0.4053  0.1433 -0.4472
11192SOL    HW239414   4.154   7.286   0.574 -1.0823 -0.3445  1.9412
11193SOL     OW39415   6.679   8.013   7.714  0.0475  0.0702 -0.4866
11193SOL    HW139416   6.624   7.936   7.703 -1.5344  1.0833 -0.0487
11193SOL    HW239417   6.734   7.993   7.789 -0.0152 -0.8185 -0.6734
11194SOL     OW39418  10.323   2.688   8.836 -0.7176 -0.0218  0.2993
11194SOL    HW139419  10.394   2.714   8.778  0.3031  0.0899  1.5497
11194SOL    HW239420  10.264   2.764   8.837 -0.1327  0.4365  0.3425
11195SOL     OW39421   9.139  12.196   7.740 -0.3153 -0.1091  0.6683
11195SOL    HW139422   9.140  12.116   7.794  1.0059  1.0007  2.3679
11195SOL    HW239423   9.225  12.198   7.699 -0.3351  0.4494  0.6562
11196SOL     OW39424   0.093   2.796   7.749 -0.0790 -0.4788  0.0120
11196SOL    HW139425  -0.001   2.804   7.763 -0.1817 -2.0875  0.3642
11196SOL    HW239426   0.107   2.704   7.729  1.5884 -0.5671  1.3353
11197SOL     OW39427  10.075   2.218   2.908  0.3758  0.3299  0.6437
11197SOL    HW139428  10.114   2.131   2.917  2.2252  0.9859 -0.4472
11197SOL    HW239429  10.036   2.236   2.994 -1.3734 -2.1339  0.4653
11198SOL     OW39430  10.401   0.724   8.196 -0.2336 -0.2604 -0.0934
11198SOL    HW139431  10.467   0.679   8.248 -0.8613  0.8799  1.8034
11198SOL    HW239432  10.344   0.766   8.261 -0.6827  1.8078 -1.7122
11199SOL     OW39433   9.223   1.097   8.004 -0.0460  0.7711 -0.4022
11199SOL    HW139434   9.260   1.041   8.073 -1.5499 -0.8598 -0.8709
11199SOL    HW239435   9.287   1.168   7.995  0.6683  0.5184  1.9886
11200SOL     OW39436   7.754  12.050   2.907  1.0691  0.4051  0.5446
11200SOL    HW139437   7.685  11.991   2.878 -0.0324  1.0726  1.7116
11200SOL    HW239438   7.774  12.103   2.829  0.3620  0.1257  0.1636
11201SOL     OW39439   7.512   3.922   4.568 -0.2898 -0.2882 -0.0892
11201SOL    HW139440   7.436   3.881   4.610  0.3692 -1.4409  0.0280
11201SOL    HW239441   7.554   3.850   4.520  1.2869  0.0818  0.6862
11202SOL     OW39442   5.938  11.997   6.086 -0.6953 -0.3332 -0.3486
11202SOL    HW139443   5.892  12.079   6.065  1.0018  0.5856 -0.6469
11202SOL    HW239444   5.978  11.971   6.004 -0.0479 -0.6949  0.0811
11203SOL     OW39445   0.466   5.307   3.938  0.2093 -0.5104  0.4557
11203SOL    HW139446   0.511   5.294   3.854 -0.3389 -0.6025  0.1658
11203SOL    HW239447   0.461   5.219   3.976 -1.1765 -0.7978 -0.2890
11204SOL     OW39448   7.335   7.669   6.550  0.2518  0.0067  0.6190
11204SOL    HW139449   7.350   7.744   6.606  0.2297 -0.7466  1.6695
11204SOL    HW239450   7.252   7.632   6.582  0.3757 -0.5871  0.2633
11205SOL     OW39451   8.203   5.744   2.629  0.1971 -0.1882  0.8738
11205SOL    HW139452   8.267   5.775   2.566 -0.4331  0.1212  0.3800
11205SOL    HW239453   8.249   5.675   2.677  0.4057 -1.0692 -0.5234
11206SOL     OW39454   9.123   2.251  10.382  0.1421 -0.1522  0.2332
11206SOL    HW139455   9.185   2.186  10.415  0.1492 -0.8541 -1.0998
11206SOL    HW239456   9.044   2.238  10.434  0.7377  0.0361  1.2218
11207SOL     OW39457   7.059   1.305   7.152 -0.5005  0.1300 -0.3359
11207SOL    HW139458   7.106   1.300   7.069  1.1556 -0.0623  0.5644
11207SOL    HW239459   6.991   1.238   7.145  0.1358 -0.4483 -1.2412
11208SOL     OW39460   0.376   0.622   9.929  0.5450 -0.4698  0.4635
11208SOL    HW139461   0.382   0.591  10.019  1.1596 -0.5714  0.3897
11208SOL    HW239462   0.421   0.555   9.877  2.0861  0.6245  0.3267
11209SOL     OW39463   1.090   0.677  11.884  0.7489  0.1353  0.1170
11209SOL    HW139464   1.172   0.647  11.844  0.0275  1.3312 -2.4613
11209SOL    HW239465   1.066   0.608  11.946  3.6586 -0.2508  0.9730
11210SOL     OW39466   9.383  10.928   8.709 -0.1136 -0.0030  0.3955
11210SOL    HW139467   9.380  10.926   8.805  0.5957 -0.2349  0.4180
11210SOL    HW239468   9.460  10.877   8.686 -0.4175 -0.1549 -0.3143
11211SOL     OW39469   2.525   5.032   6.336  0.3122 -0.3500  0.6187
11211SOL    HW139470   2.472   5.093   6.285  0.2684  0.2954  1.4054
11211SOL    HW239471   2.612   5.036   6.296  1.1607  2.5252  2.3622
11212SOL     OW39472  12.046   2.157   5.464  0.7196  0.0112  0.2730
11212SOL    HW139473  12.118   2.199   5.511  0.2343 -1.1119  2.1240
11212SOL    HW239474  12.037   2.071   5.505 -0.4068 -0.6461 -1.2384
11213SOL     OW39475   1.350   9.543  11.669  0.0755  0.3102  0.1731
11213SOL    HW139476   1.381   9.554  11.759 -0.6939  0.6571  0.3996
11213SOL    HW239477   1.427   9.509  11.622  0.6869  0.7753  0.8078
11214SOL     OW39478   6.284   8.126   9.995  0.7394  0.0508 -0.2972
11214SOL    HW139479   6.229   8.191  10.039 -0.0419 -0.5976 -0.2880
11214SOL    HW239480   6.266   8.044  10.041  2.3739 -0.0287  0.2620
11215SOL     OW39481  11.317   2.881   2.158 -0.0212  0.0751  1.0278
11215SOL    HW139482  11.380   2.810   2.142  0.8602  0.4329  2.7130
11215SOL    HW239483  11.236   2.835   2.180 -0.0758 -0.3850 -0.0275
11216SOL     OW39484   6.970   3.037  11.663 -0.1783  0.6170  0.6520
11216SOL    HW139485   6.950   3.112  11.721  0.1429  1.8251 -0.7508
11216SOL    HW239486   7.037   3.069  11.604 -0.8740 -0.4078 -0.7534
11217SOL     OW39487   0.780  11.909   0.708  0.5048 -0.4566  0.0219
11217SOL    HW139488   0.765  12.000   0.683  1.3768  0.4807  2.6493
11217SOL    HW239489   0.695  11.866   0.692 -0.6325  1.3423  0.8965
11218SOL     OW39490   2.559   1.156   1.397  0.4585  0.2097  0.0188
11218SOL    HW139491   2.610   1.221   1.350 -0.3697  0.3771 -0.6778
11218SOL    HW239492   2.561   1.184   1.488 -0.9655  1.9721 -0.4442
11219SOL     OW39493  12.227   8.743   5.778 -0.2267 -0.3884  0.0568
11219SOL    HW139494  12.250   8.704   5.863  1.3385 -2.9869 -1.4094
11219SOL    HW239495  12.267   8.830   5.780 -0.1505 -0.4261  1.9268
11220SOL     OW39496   2.899   8.338   1.731 -0.5665  0.3454  0.0471
11220SOL    HW139497   2.897   8.294   1.646  1.6363  0.0712  0.0574
11220SOL    HW239498   2.827   8.400   1.728 -0.4384  0.4665 -2.1012
11221SOL     OW39499   8.256  10.906   6.337 -0.0173  0.3092  0.5971
11221SOL    HW139500   8.210  10.976   6.290  0.4410  0.2363  0.0333
11221SOL    HW239501   8.214  10.904   6.423  0.9768  2.3080  1.1883
11222SOL     OW39502   8.980   5.025   5.000 -0.1190 -0.2963  0.4409
11222SOL    HW139503   9.058   4.970   5.011  0.7109  1.0198  1.4304
11222SOL    HW239504   8.980   5.082   5.077 -0.2809  1.8978 -1.1182
11223SOL     OW39505   0.132   8.099   3.595 -0.1112  0.3954  0.1236
11223SOL    HW139506   0.108   8.184   3.556 -0.6612  0.4861  0.6556
11223SOL    HW239507   0.223   8.087   3.569  0.3144  1.6637  0.9357
11224SOL     OW39508   4.314   2.420  12.167  0.0687  0.0738  0.4568
11224SOL    HW139509   4.302   2.427  12.072  0.0611  0.4009  0.4812
11224SOL    HW239510   4.242   2.471  12.204 -1.3494 -1.9607  0.6837
11225SOL     OW39511   9.491   6.815   1.620  0.1376  0.3707 -0.2647
11225SOL    HW139512   9.495   6.782   1.531 -0.8572 -1.4391  0.3135
11225SOL    HW239513   9.509   6.738   1.675 -0.9835  1.0534  1.1226
11226SOL     OW39514   5.194   9.978   1.793  0.4269  0.3145  0.5181
11226SOL    HW139515   5.222   9.975   1.885 -1.5449  0.6940  1.1721
11226SOL    HW239516   5.122  10.041   1.792  0.6646  0.6068 -1.3818
11227SOL     OW39517   8.841   5.151   4.643 -0.1545 -0.3661 -0.2035
11227SOL    HW139518   8.764   5.181   4.692 -1.0655  0.2536 -1.9170
11227SOL    HW239519   8.904   5.223   4.651 -1.0699  0.6312 -1.5559
11228SOL     OW39520   3.430   0.376   3.230 -0.4011  0.2030  0.5591
11228SOL    HW139521   3.430   0.303   3.291 -0.2667  0.4401  0.8506
11228SOL    HW239522   3.346   0.420   3.244 -0.8308 -0.3618 -0.1935
11229SOL     OW39523   3.624   0.591   6.116 -0.4404 -0.6155 -0.2668
11229SOL    HW139524   3.577   0.668   6.084 -1.1922 -1.3280 -0.9065
11229SOL    HW239525   3.699   0.583   6.057 -0.1594 -0.1715  0.0233
11230SOL     OW39526  10.577   6.425   3.072  0.3335  0.2243 -0.6536
11230SOL    HW139527  10.642   6.496   3.077  1.2526 -0.5374 -1.3646
11230SOL    HW239528  10.624   6.353   3.029 -1.3655  0.0819 -2.4112
11231SOL     OW39529   2.816  11.006   8.844 -0.0573  0.0156  0.3133
11231SOL    HW139530   2.899  11.032   8.805 -0.9704  1.7593 -0.6376
11231SOL    HW239531   2.790  10.927   8.798  0.0737  0.6719 -0.9124
11232SOL     OW39532   3.778   2.320  12.196  0.2170 -0.2361  0.0109
11232SOL    HW139533   3.805   2.329  12.104 -0.8389  1.7843 -0.1570
11232SOL    HW239534   3.690   2.284  12.192  0.1511 -0.1004  0.2092
11233SOL     OW39535   2.083   9.794   8.787 -0.0674  0.2904  0.1244
11233SOL    HW139536   2.082   9.872   8.842 -1.3175 -0.1412  0.7507
11233SOL    HW239537   2.168   9.754   8.803  0.5301  1.4205 -0.0856
11234SOL     OW39538  12.244   9.569  10.748 -0.2450 -0.3516 -0.2060
11234SOL    HW139539  12.190   9.531  10.678 -0.6933  0.3322 -0.2344
11234SOL    HW239540  12.290   9.642  10.707  0.3944 -0.6675 -0.0744
11235SOL     OW39541   8.315   1.195   4.123  0.0496 -0.0358 -0.1800
11235SOL    HW139542   8.319   1.284   4.157  0.9877 -0.4837  0.9556
11235SOL    HW239543   8.253   1.150   4.180 -0.9099  0.0248 -1.1405
11236SOL     OW39544   6.986   4.336  11.118 -0.1460 -0.3703 -0.2302
11236SOL    HW139545   7.006   4.301  11.031 -0.4766  0.5118 -0.6748
11236SOL    HW239546   6.891   4.327  11.127 -0.0944 -0.6044  0.1077
11237SOL     OW39547   5.039   7.192   0.690 -0.1586 -0.2283  0.5370
11237SOL    HW139548   4.991   7.156   0.615  0.8194  0.1858 -0.3160
11237SOL    HW239549   5.101   7.123   0.714  1.1196  0.4904 -0.5456
11238SOL     OW39550   0.025   9.764   9.309 -0.0317  0.1131  0.3973
11238SOL    HW139551   0.112   9.805   9.312 -0.0957  0.3098 -0.1992
11238SOL    HW239552  -0.001   9.771   9.217 -1.1144  0.9921  0.7439
11239SOL     OW39553   2.156  10.699   6.403  0.4669 -0.1092 -0.5107
11239SOL    HW139554   2.090  10.715   6.470  1.7520  1.7392  0.4288
11239SOL    HW239555   2.107  10.673   6.326 -1.2771  0.3483  0.3866
11240SOL     OW39556  12.114   4.673   3.501  0.1013  0.1355  0.4871
11240SOL    HW139557  12.152   4.756   3.529  2.7390 -1.3659  1.7056
11240SOL    HW239558  12.052   4.651   3.571  2.2253 -0.6827  2.2244
11241SOL     OW39559   3.820   6.008   1.003  0.0146  0.4766 -0.1448
11241SOL    HW139560   3.905   5.981   0.968  0.4572  0.9803  0.5156
11241SOL    HW239561   3.814   6.101   0.980  0.6988  1.0514  1.7917
11242SOL     OW39562   7.725  11.365   1.236  0.3336  0.8255  0.2015
11242SOL    HW139563   7.760  11.302   1.173 -0.5134 -0.6126  1.1048
11242SOL    HW239564   7.719  11.316   1.318 -0.7212  1.9669  0.8417
11243SOL     OW39565   9.321  10.070  10.916  0.2189 -0.4030  0.0460
11243SOL    HW139566   9.348   9.982  10.890 -2.2230 -1.0797 -0.4458
11243SOL    HW239567   9.378  10.091  10.991  1.5797 -1.9206 -0.4944
11244SOL     OW39568   1.994  12.174   8.815 -0.1689  0.0769  0.6256
11244SOL    HW139569   1.902  12.200   8.820  0.0957  1.0679  0.5077
11244SOL    HW239570   2.026  12.182   8.905 -0.4406 -1.2265  0.8504
11245SOL     OW39571   4.663  12.312  10.666  0.1360 -0.4186 -0.1060
11245SOL    HW139572   4.648  12.253  10.740 -2.4575 -1.2816 -1.2014
11245SOL    HW239573   4.651  12.257  10.589  2.7077  0.4704 -1.2666
11246SOL     OW39574   1.994   5.633  11.561  0.5022 -0.1562  0.7581
11246SOL    HW139575   1.997   5.573  11.487 -0.2880 -2.1833  2.2679
11246SOL    HW239576   1.923   5.693  11.541 -0.6230 -1.5397  0.4426
11247SOL     OW39577   1.679   1.683  11.566  0.0843  0.7164  0.3945
11247SOL    HW139578   1.601   1.659  11.515 -0.8824  0.3768  1.9790
11247SOL    HW239579   1.646   1.734  11.639  1.3125  0.2776  1.2894
11248SOL     OW39580   4.202  10.243   9.948  0.2463 -0.3745 -0.0256
11248SOL    HW139581   4.229  10.264  10.038  0.5231  1.1498 -0.4344
11248SOL    HW239582   4.168  10.325   9.914  0.7372 -0.7665 -1.5285
11249SOL     OW39583   4.973  11.617  10.098  0.1646 -0.5553 -0.7400
11249SOL    HW139584   5.021  11.536  10.084  0.7237  0.0647 -2.8162
11249SOL    HW239585   4.902  11.614  10.035  0.0430  0.4619 -0.6675
11250SOL     OW39586   2.918   2.735   7.384 -0.3942 -0.3076 -0.0671
11250SOL    HW139587   2.830   2.773   7.392 -0.4751 -0.4686 -0.1892
11250SOL    HW239588   2.907   2.645   7.414 -0.3765 -0.4766 -0.5611
11251SOL     OW39589   2.477  10.594   0.650 -0.1709 -0.1583 -0.1795
11251SOL    HW139590   2.549  10.651   0.621 -0.3060  1.5051  2.4809
11251SOL    HW239591   2.500  10.569   0.739 -2.7343  0.1388  0.6374
11252SOL     OW39592   8.776   6.498   0.876 -0.2877  0.6917  0.3539
11252SOL    HW139593   8.707   6.433   0.893  0.1207  0.2498  0.3362
11252SOL    HW239594   8.856   6.458   0.909  0.0318  1.0430  0.0239
11253SOL     OW39595   0.823   3.985   3.707 -0.2819  0.0451  0.1750
11253SOL    HW139596   0.862   4.030   3.632 -2.8033 -0.4699 -1.5947
11253SOL    HW239597   0.889   3.921   3.733  1.0598  0.8800 -0.9677
11254SOL     OW39598   4.868  10.833   0.925 -0.7183  0.4043  0.2788
11254SOL    HW139599   4.923  10.762   0.958  0.1063  0.8784 -0.0472
11254SOL    HW239600   4.890  10.839   0.832 -3.7814 -1.6297 -0.7355
11255SOL     OW39601   7.916  12.201   6.631 -0.4014 -0.0072 -0.2476
11255SOL    HW139602   7.942  12.277   6.578  1.0616  0.5578  1.1671
11255SOL    HW239603   7.961  12.127   6.591 -0.0531  0.2539 -0.3434
11256SOL     OW39604  11.702  12.310   4.213 -0.3934  0.1831  0.3692
11256SOL    HW139605  11.626  12.278   4.165  1.2994 -2.0338 -1.0235
11256SOL    HW239606  11.717  12.244   4.281  1.8092 -0.9325 -1.0870
11257SOL     OW39607   9.774   0.980   5.670  0.9090 -0.0153  0.5108
11257SOL    HW139608   9.851   0.968   5.615  0.8994  0.1267  0.4650
11257SOL    HW239609   9.730   1.056   5.632  1.8089  1.1648  1.7528
11258SOL     OW39610  11.714   6.060  11.830  0.1733 -0.1937  0.0429
11258SOL    HW139611  11.748   6.053  11.740  0.4533 -0.0972  0.1391
11258SOL    HW239612  11.773   6.004  11.882  0.4392  0.2990  0.2775
11259SOL     OW39613   1.868   7.459   4.414 -0.4869  0.7823  0.1509
11259SOL    HW139614   1.819   7.379   4.432 -0.3565  0.7100  0.1876
11259SOL    HW239615   1.877   7.501   4.499 -1.8833  1.6117 -0.0739
11260SOL     OW39616   4.003   4.497  11.967  0.1013 -0.4513  0.3417
11260SOL    HW139617   4.067   4.502  11.896  0.3122  1.0953  0.5994
11260SOL    HW239618   4.000   4.586  12.003  0.3254 -1.2911  2.5616
11261SOL     OW39619   1.721  11.071   4.933 -0.3263  0.0771 -0.1745
11261SOL    HW139620   1.814  11.092   4.947  0.1670 -2.0889  0.1562
11261SOL    HW239621   1.707  11.085   4.839  0.2026  0.8396 -0.1484
11262SOL     OW39622   8.275   5.264   6.834 -0.5834  0.0544  0.0074
11262SOL    HW139623   8.218   5.299   6.766 -1.3630  0.1509  0.6999
11262SOL    HW239624   8.245   5.305   6.915  0.6744  0.3496  0.3509
11263SOL     OW39625   9.265   2.355   1.882 -0.3385  0.0049  0.0448
11263SOL    HW139626   9.253   2.277   1.936 -1.6898  0.5848  0.6244
11263SOL    HW239627   9.282   2.425   1.944 -1.8996  0.6810 -0.2539
11264SOL     OW39628   7.325   8.312  11.367  0.2071  0.0038  0.4754
11264SOL    HW139629   7.376   8.307  11.447 -0.8759 -1.7621  1.1074
11264SOL    HW239630   7.305   8.405  11.357  1.6727  0.4505  1.3733
11265SOL     OW39631   5.369   9.815   0.427  0.2599  0.0378  0.1633
11265SOL    HW139632   5.362   9.819   0.331 -0.5484 -1.5974  0.1196
11265SOL    HW239633   5.457   9.779   0.442  0.3294  0.1496  0.0318
11266SOL     OW39634   5.913   7.483   7.702 -0.3540 -0.2085 -0.0318
11266SOL    HW139635   5.930   7.574   7.678 -0.1796 -0.3329 -0.3777
11266SOL    HW239636   5.896   7.438   7.620 -0.8892 -0.3987  0.1794
11267SOL     OW39637   9.322  10.146   5.484 -0.6551  0.6053  0.2132
11267SOL    HW139638   9.288  10.163   5.572 -0.5026  0.8377  0.2279
11267SOL    HW239639   9.274  10.207   5.428 -1.4610 -0.2081 -0.0152
11268SOL     OW39640   3.858   0.221   0.941 -0.2659 -0.0512 -0.0829
11268SOL    HW139641   3.859   0.138   0.893 -2.6426 -0.2387  0.0819
11268SOL    HW239642   3.876   0.288   0.874  1.9244 -0.6572 -0.1680
11269SOL     OW39643  10.352   0.516   0.962 -0.3823 -0.1912 -0.0780
11269SOL    HW139644  10.352   0.580   1.034 -0.3403 -0.7699  0.4461
11269SOL    HW239645  10.260   0.493   0.951 -0.3149 -0.6717  0.3143
11270SOL     OW39646   5.230   8.310   8.216  0.1791 -0.3604  0.0600
11270SOL    HW139647   5.266   8.270   8.295 -1.7066 -1.5126  0.3908
11270SOL    HW239648   5.138   8.325   8.237 -0.0244  0.6433 -1.4380
11271SOL     OW39649   1.137   5.681   1.604 -0.3621  0.0622  0.0032
11271SOL    HW139650   1.212   5.621   1.609 -1.1074 -1.4669 -3.7843
11271SOL    HW239651   1.061   5.625   1.619 -0.9019  1.1742  1.6138
11272SOL     OW39652   0.886   9.847   1.419 -0.0547  0.5108  0.2485
11272SOL    HW139653   0.880   9.754   1.442 -0.1062  0.7770  1.3723
11272SOL    HW239654   0.816   9.888   1.470 -0.3459  1.1068 -0.6095
11273SOL     OW39655   2.556   4.978   7.299 -0.4378 -0.7745  0.1451
11273SOL    HW139656   2.539   4.901   7.244  1.2257 -1.3664  0.4302
11273SOL    HW239657   2.509   5.049   7.255  0.7416 -1.2574 -2.0270
11274SOL     OW39658   1.264   4.980   7.008  0.1870  0.0234  0.0173
11274SOL    HW139659   1.260   5.074   7.027  0.4723  0.2034 -0.7778
11274SOL    HW239660   1.307   4.942   7.084 -0.6550  0.4280  0.7100
11275SOL     OW39661   0.994  10.068   0.743  0.2731  0.0934 -0.4051
11275SOL    HW139662   1.044  10.089   0.664  0.5932  0.8078 -0.0305
11275SOL    HW239663   1.061  10.061   0.812 -0.1482  1.7376  0.2395
11276SOL     OW39664  11.636   5.164   2.366 -0.2496 -0.3298 -0.1513
11276SOL    HW139665  11.588   5.245   2.382  1.5058  0.4485  1.5858
11276SOL    HW239666  11.711   5.191   2.312  0.9175 -0.5529  1.3030
11277SOL     OW39667   6.698   9.547   3.015  0.5497 -0.1361 -0.5041
11277SOL    HW139668   6.685   9.586   2.928  0.2420  1.1395  0.0879
11277SOL    HW239669   6.750   9.469   2.998 -0.8471 -0.8052 -2.0181
11278SOL     OW39670   8.564   8.153   5.736 -0.0093 -0.1376  0.8193
11278SOL    HW139671   8.519   8.208   5.801 -1.6023 -0.9877  0.4769
11278SOL    HW239672   8.581   8.071   5.783 -2.8538 -1.4814 -0.2545
11279SOL     OW39673   9.114  10.661   3.724 -0.1626 -0.5040  0.4573
11279SOL    HW139674   9.075  10.574   3.712 -1.0589 -0.1153  0.5274
11279SOL    HW239675   9.139  10.663   3.816  0.4041 -0.9071  0.3155
11280SOL     OW39676   7.213   6.416   3.645  0.5507 -0.0872  0.8573
11280SOL    HW139677   7.152   6.352   3.609 -2.4256  1.5916  2.5398
11280SOL    HW239678   7.254   6.372   3.719 -0.0304 -0.6515  0.8458
11281SOL     OW39679   0.444   2.995   3.207 -0.6553 -0.4798 -0.0023
11281SOL    HW139680   0.413   2.951   3.128  0.4439 -0.1426 -0.6485
11281SOL    HW239681   0.391   2.958   3.278 -1.3916 -1.0708 -0.8440
11282SOL     OW39682   7.941   9.086   0.122 -0.5525  0.1068  0.1692
11282SOL    HW139683   7.944   9.171   0.076 -0.4001 -0.2148 -0.4224
11282SOL    HW239684   8.003   9.097   0.194  0.5694  0.0348 -0.7375
11283SOL     OW39685   8.231   1.246   4.808 -0.5476 -0.1197 -0.3631
11283SOL    HW139686   8.257   1.333   4.779  2.7325 -0.2251  1.7995
11283SOL    HW239687   8.272   1.186   4.746 -1.5238 -0.2138 -0.9466
11284SOL     OW39688   4.699   9.664   9.482 -0.5271  0.3164  0.5034
11284SOL    HW139689   4.769   9.683   9.545 -1.5145  0.3972  1.6315
11284SOL    HW239690   4.649   9.746   9.477 -1.5686 -0.2491  1.1208
11285SOL     OW39691   5.192   7.304  10.052 -0.4825  0.2724 -0.1080
11285SOL    HW139692   5.160   7.243  10.119  0.3663 -0.3117 -0.2283
11285SOL    HW239693   5.170   7.261   9.969 -1.2952  0.8744 -0.2227
11286SOL     OW39694   5.395   1.053  10.267  0.3482  0.0236  0.1081
11286SOL    HW139695   5.451   1.026  10.194  0.9043 -1.1165  0.9236
11286SOL    HW239696   5.313   1.078  10.226  0.5671 -0.8352 -0.8995
11287SOL     OW39697   1.180   5.820   7.499 -0.4453  1.1237 -0.2887
11287SOL    HW139698   1.260   5.777   7.530 -0.6079  0.4269 -0.8071
11287SOL    HW239699   1.123   5.748   7.472 -0.9447  1.6475 -0.6586
11288SOL     OW39700   1.949   6.817   8.414 -0.0458  0.0058  0.3156
11288SOL    HW139701   1.928   6.726   8.435 -2.3368  0.3504 -0.1134
11288SOL    HW239702   1.884   6.841   8.347 -0.4171  2.3253  1.3967
11289SOL     OW39703   6.180   6.925   9.275  0.0447  0.0073  0.2220
11289SOL    HW139704   6.197   7.019   9.266 -1.4986  0.2575 -0.3565
11289SOL    HW239705   6.227   6.900   9.355  1.4384  1.0034 -0.2440
11290SOL     OW39706   8.458   3.687   6.140 -0.1399 -0.2154 -0.3366
11290SOL    HW139707   8.474   3.728   6.055 -0.4407  0.8120  0.0829
11290SOL    HW239708   8.368   3.655   6.134  0.2730 -1.3131 -0.8541
11291SOL     OW39709   9.410   6.750   2.979 -0.3450  0.4471 -0.0052
11291SOL    HW139710   9.345   6.808   2.939 -3.0062 -1.7217  0.8612
11291SOL    HW239711   9.471   6.729   2.908 -1.7798  0.9503 -1.4427
11292SOL     OW39712   0.029   0.159   1.911 -0.1308 -0.8780 -0.0789
11292SOL    HW139713   0.085   0.183   1.836  0.3353  0.0704  0.5525
11292SOL    HW239714   0.039   0.232   1.972 -0.7061 -1.5302  0.8068
11293SOL     OW39715   0.833   2.659   6.697 -0.3836  0.1139 -0.2478
11293SOL    HW139716   0.823   2.634   6.605 -0.1266 -0.5208 -0.1084
11293SOL    HW239717   0.898   2.597   6.732 -0.5968  0.2471  0.4004
11294SOL     OW39718   2.792   3.447   1.558 -0.7531  0.2411 -0.0941
11294SOL    HW139719   2.761   3.409   1.641 -0.5556 -0.4338 -0.3256
11294SOL    HW239720   2.798   3.373   1.498  0.5845  0.4693 -0.2721
11295SOL     OW39721  12.015   8.240  10.638 -0.3239 -0.7209  0.0343
11295SOL    HW139722  12.097   8.228  10.686  1.1377 -2.2091 -2.6235
11295SOL    HW239723  11.998   8.334  10.642  3.3324  0.2016 -2.0207
11296SOL     OW39724   5.683  10.019  11.297  0.4895  0.4143  0.7832
11296SOL    HW139725   5.765   9.977  11.270 -0.0392 -0.5820  0.6661
11296SOL    HW239726   5.710  10.093  11.351  1.4621 -0.0700  0.9782
11297SOL     OW39727   0.622   3.501  11.738  0.0452 -0.2551  0.2054
11297SOL    HW139728   0.617   3.596  11.749 -1.1908 -0.3597  0.6926
11297SOL    HW239729   0.638   3.468  11.826  0.8650 -0.4907 -0.0230
11298SOL     OW39730   4.516   0.758   5.218  0.2701 -0.0388 -0.2555
11298SOL    HW139731   4.603   0.762   5.258  0.0645 -0.3370  0.2284
11298SOL    HW239732   4.455   0.760   5.292 -0.1003 -1.2863 -0.4998
11299SOL     OW39733   5.598   5.615   6.280 -0.7401  0.1295 -0.2710
11299SOL    HW139734   5.673   5.605   6.337  0.6597 -1.3301 -2.2129
11299SOL    HW239735   5.586   5.710   6.272  0.6381  0.3887  0.3936
11300SOL     OW39736   8.447   8.121   8.308  0.7496 -0.1444 -0.0874
11300SOL    HW139737   8.465   8.215   8.314 -1.5915  0.5958 -2.5657
11300SOL    HW239738   8.437   8.092   8.399 -1.3775  2.6874  0.7016
11301SOL     OW39739   6.442   8.248   0.701  0.1947 -0.1858  0.4727
11301SOL    HW139740   6.351   8.254   0.671 -0.2771 -0.2151  1.8134
11301SOL    HW239741   6.469   8.160   0.676  0.1978  0.1556 -0.8044
11302SOL     OW39742   2.564   0.789   0.545 -0.1765 -0.0644 -0.1678
11302SOL    HW139743   2.602   0.708   0.511 -1.0555 -0.6263  0.1798
11302SOL    HW239744   2.615   0.859   0.503  0.9224 -0.7948 -0.0774
11303SOL     OW39745   6.599   0.746   9.448  0.1513  0.2513  0.2849
11303SOL    HW139746   6.504   0.758   9.451  0.1042 -0.1538  0.5706
11303SOL    HW239747   6.625   0.741   9.541  0.3667 -0.2761  0.1975
11304SOL     OW39748   2.804   1.376   0.724 -0.1442  0.0565  0.0543
11304SOL    HW139749   2.894   1.405   0.736 -0.1222 -0.0815  0.2213
11304SOL    HW239750   2.750   1.452   0.746 -0.0446  0.4033 -0.8473
11305SOL     OW39751   3.527  11.961  11.162 -0.0434 -0.1855  0.0336
11305SOL    HW139752   3.500  12.015  11.088  0.1036  0.4232  0.4189
11305SOL    HW239753   3.514  12.016  11.238 -2.8728 -1.7208  0.8084
11306SOL     OW39754   9.816   4.946   6.787  0.6858  0.2312 -0.0542
11306SOL    HW139755   9.773   5.015   6.838  1.1232  0.1639  0.4189
11306SOL    HW239756   9.814   4.979   6.697 -0.0275  0.3861  0.0153
11307SOL     OW39757   0.490   0.818   2.972 -0.0269  0.1378 -0.0407
11307SOL    HW139758   0.562   0.880   2.962  0.7170 -1.0067 -2.4735
11307SOL    HW239759   0.495   0.790   3.064  2.9639 -0.2328 -0.2120
11308SOL     OW39760   9.477   7.455   7.399  0.2623 -0.4924 -0.4449
11308SOL    HW139761   9.382   7.470   7.396  0.1885 -0.7925  0.1885
11308SOL    HW239762   9.492   7.386   7.335 -0.4301 -2.7175  1.6000
11309SOL     OW39763   5.146  10.531   1.726  0.5690  0.4135  0.1593
11309SOL    HW139764   5.215  10.477   1.764 -0.6167 -0.2161  1.5132
11309SOL    HW239765   5.171  10.621   1.748 -0.0417  0.0787  2.4553
11310SOL     OW39766   9.222  12.291   9.445  0.1524 -0.6763  0.0600
11310SOL    HW139767   9.275  12.366   9.415 -1.4154 -0.2383 -1.8031
11310SOL    HW239768   9.233  12.225   9.377  0.0323 -1.4175  0.7532
11311SOL     OW39769  10.438  11.259   5.945 -0.0633  0.0549 -0.3826
11311SOL    HW139770  10.376  11.292   6.010  1.5787  1.2993  0.6609
11311SOL    HW239771  10.521  11.255   5.992  0.4097 -2.9868 -1.2998
11312SOL     OW39772   5.619   4.808   5.574 -0.2726  0.0874 -0.4105
11312SOL    HW139773   5.582   4.729   5.613 -0.9464 -0.5980 -2.3614
11312SOL    HW239774   5.551   4.875   5.585  0.6934  0.7803  2.1797
11313SOL     OW39775   5.995   2.283   0.189 -0.0701 -0.0185 -0.1563
11313SOL    HW139776   5.944   2.202   0.182  0.2425 -0.1886 -0.5192
11313SOL    HW239777   6.066   2.262   0.249 -0.1114  0.0552 -0.0810
11314SOL     OW39778   9.338   0.136   6.129 -0.4994  0.3382  0.4433
11314SOL    HW139779   9.267   0.170   6.183 -0.5274  1.1604 -0.0834
11314SOL    HW239780   9.300   0.061   6.084 -0.5374 -0.2150  1.3902
11315SOL     OW39781  12.094  12.259   0.838 -0.4638  0.1539  0.0056
11315SOL    HW139782  12.036  12.302   0.901 -0.8595  0.6551 -0.6924
11315SOL    HW239783  12.044  12.255   0.757 -0.8688 -2.6332  0.3002
11316SOL     OW39784   8.482   1.548   3.095 -0.0295  0.4033  0.0568
11316SOL    HW139785   8.431   1.497   3.032  1.0468 -2.5069  1.3418
11316SOL    HW239786   8.572   1.541   3.063  0.1372  1.7123  0.1925
11317SOL     OW39787   1.934   4.663   9.649  0.4418 -0.3136 -0.5256
11317SOL    HW139788   1.864   4.606   9.618  1.0948 -1.4969  0.0808
11317SOL    HW239789   1.892   4.721   9.712  0.0983 -1.4354  0.3193
11318SOL     OW39790   4.969   0.713   5.479 -0.0848  0.2881  0.2909
11318SOL    HW139791   5.039   0.771   5.449 -1.8128  2.4162  0.0997
11318SOL    HW239792   4.975   0.716   5.574 -0.4445  1.1901  0.2952
11319SOL     OW39793   5.040   5.450   1.048  0.1276 -0.1626 -0.3148
11319SOL    HW139794   5.094   5.420   1.121  0.0516  1.1658  0.3299
11319SOL    HW239795   5.090   5.522   1.010  0.0416 -0.6743 -1.4281
11320SOL     OW39796   3.889   8.045   1.322 -0.5616 -0.1380 -0.0542
11320SOL    HW139797   3.861   7.958   1.294 -2.1120 -0.1773  1.4556
11320SOL    HW239798   3.847   8.106   1.261 -1.2700 -0.3649  0.2007
11321SOL     OW39799   2.741   1.164   7.195 -0.3946 -0.3647  1.0465
11321SOL    HW139800   2.836   1.162   7.206 -0.3214  0.5636  0.6427
11321SOL    HW239801   2.711   1.081   7.232  0.5535 -0.5861  1.3420
11322SOL     OW39802   0.669   6.327   1.013 -0.0235  0.2287 -0.1076
11322SOL    HW139803   0.690   6.377   0.933  0.7640  1.1532  0.6404
11322SOL    HW239804   0.731   6.254   1.012  0.2496  0.4573 -0.1534
11323SOL     OW39805   0.334   8.663   9.810  0.0321 -0.5524  0.0319
11323SOL    HW139806   0.272   8.601   9.849 -1.8556  1.7026  0.7834
11323SOL    HW239807   0.293   8.689   9.728  0.4724  0.2318  0.0597
11324SOL     OW39808  11.498   4.722   0.005  0.1787  0.0506 -0.3734
11324SOL    HW139809  11.565   4.680  -0.050  1.4766  1.4609  0.0830
11324SOL    HW239810  11.470   4.652   0.064  4.4997  0.3244  2.4839
11325SOL     OW39811   3.911   5.477   7.776  0.1439  0.1265 -0.4840
11325SOL    HW139812   3.880   5.564   7.753 -1.1237  0.2627  1.4638
11325SOL    HW239813   3.833   5.432   7.811  0.7444 -1.8158 -1.4878
11326SOL     OW39814   7.809   5.891   2.601 -0.0400  0.4162 -0.3573
11326SOL    HW139815   7.776   5.847   2.522 -0.4956  1.4266 -0.7447
11326SOL    HW239816   7.733   5.937   2.636  0.5816  1.5150 -0.3959
11327SOL     OW39817   5.296   7.702   7.629 -0.1171  0.0786 -0.1098
11327SOL    HW139818   5.289   7.653   7.547 -1.1396 -2.6398  1.4626
11327SOL    HW239819   5.368   7.660   7.676  0.5602  1.7007  0.3503
11328SOL     OW39820   6.249  11.157   1.354 -0.2315 -0.0046  0.0249
11328SOL    HW139821   6.201  11.075   1.370  0.0205 -0.3461 -0.9298
11328SOL    HW239822   6.182  11.219   1.327 -0.2641 -0.2134 -0.3702
11329SOL     OW39823   8.482   8.235   0.520 -0.2708  0.0466 -0.1474
11329SOL    HW139824   8.473   8.151   0.475  2.1730 -0.3422 -0.0660
11329SOL    HW239825   8.490   8.299   0.449 -2.7646  0.3942 -0.2213
11330SOL     OW39826   9.559   2.660   2.540 -0.4384  0.1931  0.3586
11330SOL    HW139827   9.563   2.755   2.550 -0.1692  0.5762 -2.4303
11330SOL    HW239828   9.646   2.636   2.507 -0.6650 -0.9567  0.5631
11331SOL     OW39829   9.941  11.879   4.028  0.1430  0.5321 -0.0838
11331SOL    HW139830   9.943  11.830   3.945  0.1084 -0.5144  0.5229
11331SOL    HW239831   9.978  11.820   4.092  3.4010  2.5340  0.1057
11332SOL     OW39832   0.049   9.526   1.046  0.3934  0.1978  0.0933
11332SOL    HW139833  -0.037   9.526   1.006 -0.5506  1.5037  1.9560
11332SOL    HW239834   0.103   9.471   0.989 -2.2411 -2.6957  0.1447
11333SOL     OW39835   3.260  10.350   4.346  0.3767 -0.5533 -0.7372
11333SOL    HW139836   3.262  10.335   4.441  1.2427 -0.8398 -0.7960
11333SOL    HW239837   3.167  10.349   4.324  0.1701 -0.5633  0.0961
11334SOL     OW39838   5.837   1.416   2.345 -0.1539  0.3702  0.3142
11334SOL    HW139839   5.789   1.333   2.344 -2.0944  1.3067 -3.2123
11334SOL    HW239840   5.911   1.402   2.285  0.4462  0.7498  0.9508
11335SOL     OW39841   5.274   8.320  12.063  0.2877  0.0223  0.5470
11335SOL    HW139842   5.184   8.334  12.092  0.0703 -1.2676  0.5482
11335SOL    HW239843   5.308   8.252  12.122  1.7184  1.4174  1.4152
11336SOL     OW39844  11.705   9.511   9.161 -0.0231 -0.1005  0.7050
11336SOL    HW139845  11.762   9.585   9.139 -3.1778  1.8169 -1.9288
11336SOL    HW239846  11.661   9.536   9.242  1.3035 -0.6914  1.6452
11337SOL     OW39847   7.231  11.011   1.918  0.3412 -0.0533  0.1208
11337SOL    HW139848   7.320  10.997   1.950  0.7609  0.5301 -0.7491
11337SOL    HW239849   7.233  10.982   1.827 -0.5109 -0.5387  0.2450
11338SOL     OW39850   5.575   7.661   1.981 -0.2065 -0.5417  0.5708
11338SOL    HW139851   5.573   7.678   1.887 -0.0244 -1.6696  0.3435
11338SOL    HW239852   5.538   7.740   2.021  1.0727  0.5650 -0.3510
11339SOL     OW39853   3.244   0.554  11.949  0.0608 -0.0197 -0.2075
11339SOL    HW139854   3.166   0.577  11.999  0.0154 -0.3765 -0.1170
11339SOL    HW239855   3.273   0.470  11.985 -1.1923 -1.3844 -2.1701
11340SOL     OW39856   7.514   2.609   1.126  0.1850 -0.2147 -0.0175
11340SOL    HW139857   7.538   2.644   1.212 -2.2727 -1.4288  1.2840
11340SOL    HW239858   7.563   2.527   1.118 -0.9465 -1.0652  1.1734
11341SOL     OW39859  12.245   1.046   2.917  0.3117 -0.0884  0.1571
11341SOL    HW139860  12.205   1.024   3.001  1.7487  1.1675  1.2389
11341SOL    HW239861  12.329   1.000   2.918  0.5375  0.3077 -0.3808
11342SOL     OW39862   9.688   8.527   1.505 -0.2841 -0.3993 -1.1903
11342SOL    HW139863   9.607   8.563   1.541  0.1950  1.3461 -1.7831
11342SOL    HW239864   9.659   8.470   1.434 -1.1083 -2.0380  0.3701
11343SOL     OW39865   6.270   0.758   0.865 -0.0925 -0.2855  0.1394
11343SOL    HW139866   6.349   0.797   0.827  0.4147 -1.1552  0.2701
11343SOL    HW239867   6.299   0.723   0.949 -0.7812 -0.0038  0.4995
11344SOL     OW39868   0.339   1.409   8.597  0.0418  0.0514 -0.1792
11344SOL    HW139869   0.310   1.331   8.642 -1.6861  0.6345 -0.2252
11344SOL    HW239870   0.434   1.412   8.612 -0.1928 -0.8228  1.7234
11345SOL     OW39871  12.092   6.306   4.065 -0.7216 -0.3912  0.2812
11345SOL    HW139872  12.082   6.211   4.062 -1.1407 -0.3497  0.2693
11345SOL    HW239873  12.152   6.326   3.994  0.6716 -0.7985  1.3029
11346SOL     OW39874  12.117   8.623  10.493 -0.2961  0.2783  0.3421
11346SOL    HW139875  12.077   8.706  10.466 -1.9796 -0.0820  1.5548
11346SOL    HW239876  12.198   8.648  10.537  0.7096  1.0653 -1.8184
11347SOL     OW39877   5.659   3.096  11.793  0.4796  0.0092 -0.1603
11347SOL    HW139878   5.578   3.121  11.838  2.0928  1.6352  2.0480
11347SOL    HW239879   5.690   3.019  11.841  1.5348  0.9577  0.7233
11348SOL     OW39880   3.979   4.981   9.232 -0.0684  0.6349 -0.9204
11348SOL    HW139881   4.057   4.990   9.177  0.9527  0.5179  0.4557
11348SOL    HW239882   3.920   5.049   9.201  1.0347  1.4659 -1.2629
11349SOL     OW39883   6.172   1.619   2.230  0.3518 -0.2205 -0.0717
11349SOL    HW139884   6.216   1.596   2.148 -1.1079 -1.1948 -0.6228
11349SOL    HW239885   6.172   1.539   2.281  2.6576  0.7690  1.6195
11350SOL     OW39886   9.332   0.125  11.316  0.0211 -0.5112  0.0860
11350SOL    HW139887   9.380   0.196  11.358 -0.9302  1.1591 -1.5182
11350SOL    HW239888   9.376   0.111  11.233  0.5674 -2.2783  0.6237
11351SOL     OW39889  11.516   3.775   5.805  0.1826 -0.4062 -0.0420
11351SOL    HW139890  11.596   3.808   5.764  0.2390  0.5576  0.8142
11351SOL    HW239891  11.472   3.853   5.837  0.9659 -1.1621  3.2556
11352SOL     OW39892  12.090   0.624   0.623  0.0335 -0.1078  0.9458
11352SOL    HW139893  12.004   0.593   0.595  0.6450  0.3066 -1.6730
11352SOL    HW239894  12.074   0.712   0.657 -0.5602  0.1351  0.0778
11353SOL     OW39895  11.437   2.535   6.356 -0.0191 -0.3684 -1.1436
11353SOL    HW139896  11.395   2.576   6.281 -1.7754 -0.0744 -0.0699
11353SOL    HW239897  11.417   2.442   6.348 -0.2054 -0.3370 -1.0503
11354SOL     OW39898   8.457   4.117  11.716 -0.5610 -0.2266  0.0193
11354SOL    HW139899   8.462   4.072  11.632  1.2861  1.4187 -0.8231
11354SOL    HW239900   8.413   4.055  11.774 -2.7741 -1.0540 -2.3528
11355SOL     OW39901   1.764   5.982  11.242  0.0771  0.1752 -0.5427
11355SOL    HW139902   1.812   5.967  11.161  3.3840  1.7734  0.8925
11355SOL    HW239903   1.828   5.962  11.311 -1.7591  1.2876  1.6091
11356SOL     OW39904   6.497   5.756   3.699  0.1778  0.8842 -0.0591
11356SOL    HW139905   6.509   5.807   3.778 -2.2143  0.6355  0.5393
11356SOL    HW239906   6.483   5.821   3.630  1.5527  1.0827 -0.1779
11357SOL     OW39907   6.951  11.941  11.744 -0.0028  0.9606 -0.3537
11357SOL    HW139908   6.904  11.965  11.824 -0.7328 -0.0918 -0.4451
11357SOL    HW239909   6.996  11.860  11.766  1.6679  1.8438 -0.3288
11358SOL     OW39910   0.515   5.295  11.366 -1.1121  0.3125 -0.2251
11358SOL    HW139911   0.545   5.382  11.342 -1.1979  0.1264 -1.0341
11358SOL    HW239912   0.461   5.309  11.444 -1.7980  1.0993 -0.8188
11359SOL     OW39913   2.598  10.733   6.369  0.2679 -0.6352 -0.0374
11359SOL    HW139914   2.577  10.674   6.297 -0.2032  1.9662 -2.1960
11359SOL    HW239915   2.514  10.749   6.412 -0.3699  1.3062 -1.8478
11360SOL     OW39916  11.894   7.918   7.626  0.1072  0.3500 -0.2040
11360SOL    HW139917  11.901   7.824   7.637 -0.3870  0.5265  1.9718
11360SOL    HW239918  11.812   7.931   7.578  0.4868 -0.3243 -1.0584
11361SOL     OW39919   6.988  11.323   3.879 -0.1530 -0.1437 -0.5380
11361SOL    HW139920   7.030  11.254   3.827 -1.0664 -1.2787  0.1695
11361SOL    HW239921   6.959  11.278   3.959 -0.1597  1.2216  0.2599
11362SOL     OW39922   3.900   0.287  11.697  0.3635  0.1423  0.3275
11362SOL    HW139923   3.994   0.273  11.709  0.7240  2.4047  0.5931
11362SOL    HW239924   3.894   0.375  11.661 -1.6857  0.0433  0.3327
11363SOL     OW39925   9.351   5.697   6.349  0.1555  0.0997  0.1527
11363SOL    HW139926   9.271   5.747   6.331  0.4667  1.0656  1.3077
11363SOL    HW239927   9.343   5.619   6.296 -0.7715  0.9715 -1.0419
11364SOL     OW39928   9.475  11.531   5.296 -0.0373 -0.4483  0.2751
11364SOL    HW139929   9.465  11.505   5.387  2.2089 -0.1648  0.6438
11364SOL    HW239930   9.520  11.615   5.299  1.5051 -1.1698 -1.0779
11365SOL     OW39931   5.424  10.020   5.736 -0.0860  0.6113 -0.0792
11365SOL    HW139932   5.350   9.977   5.693  0.4242  0.7789 -1.1577
11365SOL    HW239933   5.452   9.958   5.803  0.5197 -0.7002 -1.4906
11366SOL     OW39934   6.472   6.991   8.894 -0.1445 -0.4953  0.2722
11366SOL    HW139935   6.517   7.005   8.978  0.0377 -1.6756  0.3875
11366SOL    HW239936   6.391   7.040   8.902  0.5576  0.6661  0.5373
11367SOL     OW39937   2.697  10.584   8.889 -0.0230  0.3415  0.4891
11367SOL    HW139938   2.609  10.561   8.920  0.3169 -0.6435  0.7558
11367SOL    HW239939   2.699  10.551   8.799  0.8471 -1.8046  1.2293
11368SOL     OW39940   2.050  12.177   7.642 -0.2038 -0.6246  0.2991
11368SOL    HW139941   2.142  12.171   7.669  0.0246 -0.2215 -0.3592
11368SOL    HW239942   2.054  12.200   7.549 -0.9696  1.0061  0.6409
11369SOL     OW39943   8.258   5.621   0.250  0.2996 -0.4525 -0.6961
11369SOL    HW139944   8.281   5.538   0.292 -0.4812 -1.0790 -1.4656
11369SOL    HW239945   8.333   5.641   0.193  0.4481 -0.6729 -0.5779
11370SOL     OW39946   8.986   1.515   8.163  0.4007 -0.2346 -0.5056
11370SOL    HW139947   8.957   1.600   8.195 -1.5926 -0.7909 -0.7188
11370SOL    HW239948   8.942   1.504   8.079  2.3187 -0.5813 -1.5334
11371SOL     OW39949   8.731   9.172  10.997  0.1662  0.4428 -0.3026
11371SOL    HW139950   8.639   9.148  10.988  0.3293 -0.8627  0.9989
11371SOL    HW239951   8.778   9.098  10.957  0.6591  1.0503 -0.8599
11372SOL     OW39952   5.280   0.732   4.622 -0.1208 -1.0042  0.3551
11372SOL    HW139953   5.282   0.758   4.530  0.5123 -2.1544  0.0304
11372SOL    HW239954   5.228   0.652   4.624 -0.4527 -0.7810  1.0614
11373SOL     OW39955  11.230   6.517   3.282  0.3600  0.3195  0.0507
11373SOL    HW139956  11.296   6.499   3.348  1.8404  0.8181 -1.2224
11373SOL    HW239957  11.230   6.439   3.227 -0.5487  0.0842  0.3687
11374SOL     OW39958  10.097   1.264   8.600  0.8130 -0.0411 -0.0666
11374SOL    HW139959  10.098   1.285   8.694  0.2216 -1.7078  0.3377
11374SOL    HW239960  10.187   1.237   8.581  0.7134 -0.5842  0.2318
11375SOL     OW39961  11.643   4.021   5.698 -0.2174  0.3167  0.3966
11375SOL    HW139962  11.582   4.086   5.663  0.3770  0.7983  0.2530
11375SOL    HW239963  11.709   4.072   5.744  0.1874 -0.1962  0.3876
11376SOL     OW39964   8.263   3.705   2.257 -0.6853  0.2318 -0.4334
11376SOL    HW139965   8.289   3.792   2.287  1.0687 -0.1342 -0.8234
11376SOL    HW239966   8.182   3.687   2.305 -0.0932  1.3031  1.0491
11377SOL     OW39967  11.508   7.734   0.283 -0.2885  0.0384 -0.0776
11377SOL    HW139968  11.589   7.784   0.272 -1.0303  1.3878  0.3687
11377SOL    HW239969  11.526   7.650   0.242  1.3919  0.2495  0.1548
11378SOL     OW39970   4.389   0.559   0.233  0.1617 -0.2866  0.4601
11378SOL    HW139971   4.333   0.482   0.248  1.1893 -0.9972  0.7701
11378SOL    HW239972   4.337   0.633   0.264 -0.6130 -0.9282  0.7240
11379SOL     OW39973   5.665   9.620   1.912 -0.5774 -0.2181 -0.3544
11379SOL    HW139974   5.634   9.647   1.826  0.0167  0.0820 -0.4766
11379SOL    HW239975   5.608   9.667   1.973 -1.6193 -1.1650 -0.5727
11380SOL     OW39976   8.403   5.429   3.632 -0.4809 -0.3045 -0.3792
11380SOL    HW139977   8.440   5.344   3.655  0.2705  0.2175  0.4043
11380SOL    HW239978   8.445   5.451   3.548  0.2824 -0.1541  0.0300
11381SOL     OW39979  11.795   6.933   6.097  0.2620  0.2188  0.9568
11381SOL    HW139980  11.747   6.987   6.160  0.3492 -0.2065  1.3937
11381SOL    HW239981  11.846   6.996   6.046  0.2666  0.5600  1.3752
11382SOL     OW39982   4.529   0.604   5.659 -0.3271 -0.0021  0.0386
11382SOL    HW139983   4.449   0.584   5.610  0.5958  0.4690 -1.7550
11382SOL    HW239984   4.543   0.698   5.647  0.3407 -0.0220  0.5711
11383SOL     OW39985   1.585  11.868   9.058 -0.4098  0.1154  0.4709
11383SOL    HW139986   1.607  11.778   9.083 -0.2909 -0.3673 -1.2424
11383SOL    HW239987   1.538  11.903   9.133  0.4092 -1.0462  1.5664
11384SOL     OW39988   7.820   1.661  11.812  0.8281  0.2134  0.2433
11384SOL    HW139989   7.778   1.576  11.797 -0.6968  0.5482  2.1996
11384SOL    HW239990   7.803   1.711  11.733 -1.2550 -0.1750  0.4005
11385SOL     OW39991  11.944   5.301   6.607  0.0931  0.2507  0.5011
11385SOL    HW139992  11.997   5.296   6.687 -1.5195  2.3235  1.8334
11385SOL    HW239993  11.983   5.372   6.557 -0.9418  1.3470  1.1840
11386SOL     OW39994   7.828   5.368   5.609 -0.3599  0.5278  0.0146
11386SOL    HW139995   7.850   5.460   5.592  1.3451  0.2816  0.7567
11386SOL    HW239996   7.734   5.370   5.631 -0.3837  2.0612 -0.1166
11387SOL     OW39997   3.030  12.175  11.344  0.3824  0.5242 -0.1380
11387SOL    HW139998   2.966  12.110  11.374  0.1427 -0.0083 -1.7140
11387SOL    HW239999   2.984  12.259  11.353  0.2171  0.3567  0.6684
11388SOL     OW40000   4.456  11.981   1.399 -0.1621  0.1508 -0.2600
11388SOL    HW140001   4.513  11.930   1.457 -0.9677 -0.4801 -0.0173
11388SOL    HW240002   4.438  12.061   1.448  1.4313  0.8919 -0.8061
11389SOL     OW40003  12.085   0.081   8.716  0.6376  0.2848 -0.3871
11389SOL    HW140004  12.156   0.018   8.705  1.1641  0.8322 -0.2512
11389SOL    HW240005  12.014   0.049   8.661  0.7957 -0.5623 -0.1100
11390SOL     OW40006   2.335  11.265  10.792  0.3820 -0.2778  0.5811
11390SOL    HW140007   2.320  11.327  10.863  1.5217 -1.7116  2.1752
11390SOL    HW240008   2.248  11.233  10.769 -0.0834  0.8336  0.7504
11391SOL     OW40009   0.277   8.347   5.758 -0.0274 -0.1108  0.1085
11391SOL    HW140010   0.309   8.427   5.800 -0.1404 -0.7961  1.5513
11391SOL    HW240011   0.343   8.327   5.691  0.4964  0.6547  0.3883
11392SOL     OW40012   8.525   9.661   0.341  0.6010  0.1937  0.2280
11392SOL    HW140013   8.532   9.604   0.418 -0.9755 -1.3477 -0.7014
11392SOL    HW240014   8.583   9.622   0.277  1.3155  1.0331  0.3389
11393SOL     OW40015   6.648   3.806   4.461 -0.1880 -0.2528  0.4406
11393SOL    HW140016   6.739   3.826   4.479  0.6064 -2.3082 -0.8578
11393SOL    HW240017   6.647   3.779   4.369 -1.6017 -2.7608  1.0892
11394SOL     OW40018   0.989   5.856   0.658  0.3907 -0.0070 -0.2274
11394SOL    HW140019   1.040   5.915   0.714  0.1209  0.4538 -0.4627
11394SOL    HW240020   0.916   5.828   0.713  1.3808 -1.4137  0.4316
11395SOL     OW40021   3.236   8.989   6.443 -0.5280 -0.3933 -0.3620
11395SOL    HW140022   3.314   8.937   6.461 -1.1723 -0.6698  1.9258
11395SOL    HW240023   3.207   9.020   6.528 -2.5422  0.2783 -1.2106
11396SOL     OW40024   6.216  11.761   4.657  0.2350 -0.2713  0.7392
11396SOL    HW140025   6.249  11.675   4.685  1.2311 -0.3580 -0.6114
11396SOL    HW240026   6.295  11.809   4.631 -0.4595  0.5175  0.0599
11397SOL     OW40027  11.221   8.324   3.126  0.2549 -0.5010  0.1921
11397SOL    HW140028  11.298   8.370   3.091  0.3436 -1.3510 -0.7976
11397SOL    HW240029  11.258   8.250   3.175  0.0877 -1.5665 -1.2246
11398SOL     OW40030   1.252  11.444   2.123 -0.4156 -0.0857 -0.1112
11398SOL    HW140031   1.180  11.391   2.088 -1.3844  1.7708 -1.0401
11398SOL    HW240032   1.322  11.434   2.058 -0.4254 -0.5465 -0.0576
11399SOL     OW40033   3.077  11.869  10.577  0.1526 -0.0192 -0.8036
11399SOL    HW140034   3.023  11.852  10.654  0.6579  0.2545 -0.3804
11399SOL    HW240035   3.084  11.964  10.573  0.5985 -0.0510 -0.8480
11400SOL     OW40036   2.891   6.668   9.466 -0.7928  0.2581 -0.9678
11400SOL    HW140037   2.936   6.587   9.490  1.3998  0.4824 -3.8246
11400SOL    HW240038   2.810   6.666   9.517 -0.0836 -2.9186  0.2753
11401SOL     OW40039   3.749   0.056   1.319  0.1013  0.1659  0.2309
11401SOL    HW140040   3.654   0.052   1.330  0.0105  0.3883 -0.4537
11401SOL    HW240041   3.772  -0.025   1.274  0.0384  0.7936 -0.9574
11402SOL     OW40042   2.302   3.266   8.374 -0.0893 -0.0834  0.3576
11402SOL    HW140043   2.377   3.318   8.344 -2.0184  2.1582 -0.9940
11402SOL    HW240044   2.263   3.319   8.443 -1.1194 -0.5974  0.1806
11403SOL     OW40045   4.885   4.477   5.249  0.1584  0.1259 -0.2560
11403SOL    HW140046   4.971   4.490   5.288 -0.0155  2.0128 -0.4425
11403SOL    HW240047   4.871   4.553   5.193 -1.8219  0.0903  0.0999
11404SOL     OW40048   7.435  11.312   0.075  0.5323  0.0267  0.0992
11404SOL    HW140049   7.510  11.352   0.034  0.7675 -0.9656 -0.4763
11404SOL    HW240050   7.459  11.219   0.084 -0.1337 -0.0772  1.0308
11405SOL     OW40051  10.219   0.305   3.790  0.0529 -0.3094  0.0442
11405SOL    HW140052  10.163   0.290   3.865  0.0439  0.5091  0.2157
11405SOL    HW240053  10.302   0.262   3.812  0.8550  1.8492  1.5624
11406SOL     OW40054   0.523   1.232   1.732 -0.5087  0.1693  0.0802
11406SOL    HW140055   0.445   1.197   1.690 -0.4523 -0.2550  0.3265
11406SOL    HW240056   0.540   1.172   1.805  1.1180 -0.8237 -1.0667
11407SOL     OW40057  12.256  12.164   4.190  0.0894  0.9564  0.1886
11407SOL    HW140058  12.203  12.103   4.241 -0.7542  2.7261  1.4937
11407SOL    HW240059  12.245  12.134   4.099 -0.5044 -0.6506  0.7506
11408SOL     OW40060   5.031   9.375   7.453  0.3254  0.2548 -0.1496
11408SOL    HW140061   4.956   9.434   7.457  0.0912 -0.0808  0.5730
11408SOL    HW240062   4.995   9.291   7.425  0.7585  0.5945 -1.8504
11409SOL     OW40063   7.700   2.550   7.197  0.3271 -0.0247 -0.4526
11409SOL    HW140064   7.660   2.600   7.126 -1.5160 -1.1339 -0.2515
11409SOL    HW240065   7.627   2.524   7.253  1.7964  1.6163  2.4693
11410SOL     OW40066  11.912   5.314   2.493  0.4044 -0.2587 -0.4949
11410SOL    HW140067  11.868   5.396   2.516 -0.0897 -0.8773  0.8125
11410SOL    HW240068  12.000   5.341   2.466  0.1411  0.7258 -0.4093
11411SOL     OW40069   9.063   9.247   8.877 -0.0740 -0.1518  0.1652
11411SOL    HW140070   9.011   9.324   8.853 -0.2366  0.2943  1.8355
11411SOL    HW240071   9.137   9.249   8.816 -0.7730  0.5416 -0.6973
11412SOL     OW40072   6.591   1.471   4.367  0.0690  0.4091  0.1196
11412SOL    HW140073   6.554   1.509   4.288  0.9286 -0.2711 -0.6248
11412SOL    HW240074   6.568   1.378   4.363 -2.5373  0.8573  2.2241
11413SOL     OW40075   1.603   3.960   9.875  0.2994  0.6121  0.6110
11413SOL    HW140076   1.550   4.037   9.892  0.8624  1.1219  0.1111
11413SOL    HW240077   1.629   3.969   9.783 -0.1844 -0.5157  0.3454
11414SOL     OW40078   5.718   5.883  12.244  0.0348  0.2851  0.2317
11414SOL    HW140079   5.717   5.972  12.277 -0.4077 -0.1250  1.3814
11414SOL    HW240080   5.648   5.839  12.291 -0.8308 -0.2751 -1.4965
11415SOL     OW40081   3.088   4.486   3.315 -0.8577  0.1317 -0.0100
11415SOL    HW140082   3.121   4.396   3.323  0.5831  0.6458  0.2064
11415SOL    HW240083   3.099   4.523   3.402 -0.2045  0.9111 -0.4134
11416SOL     OW40084   8.797   5.807   0.538  0.2082  0.3223 -0.1099
11416SOL    HW140085   8.710   5.792   0.500  0.5984  0.0642 -0.9197
11416SOL    HW240086   8.827   5.720   0.563 -0.5734  0.6130  2.0375
11417SOL     OW40087   4.641   6.899   3.015 -0.5898  0.3123  0.8457
11417SOL    HW140088   4.641   6.868   3.106  2.0948  0.3049  0.9035
11417SOL    HW240089   4.563   6.953   3.009 -2.7180 -2.3307  2.1670
11418SOL     OW40090   1.918   1.793   8.314  0.5486  0.2401  0.0010
11418SOL    HW140091   1.900   1.875   8.268 -4.7180 -0.1858  0.6710
11418SOL    HW240092   1.923   1.818   8.406 -0.7155 -0.0463  0.1706
11419SOL     OW40093   1.422   5.614   7.246  0.3629 -0.8532 -0.0022
11419SOL    HW140094   1.423   5.544   7.181  2.4559 -2.0880  1.2291
11419SOL    HW240095   1.347   5.593   7.303  0.2776 -1.4291 -0.3221
11420SOL     OW40096   6.451   8.705   3.677  0.0045  0.2137 -0.0407
11420SOL    HW140097   6.479   8.628   3.627  1.5978  0.9184 -0.2979
11420SOL    HW240098   6.522   8.720   3.739 -0.6013  1.0781  0.4605
11421SOL     OW40099   7.934   8.689   7.925  0.0871 -0.0955  0.3614
11421SOL    HW140100   7.987   8.760   7.960 -0.1844  0.0135  0.5610
11421SOL    HW240101   7.895   8.649   8.003 -2.7392  1.8586  0.0859
11422SOL     OW40102   5.118   5.358   2.486  0.3530  0.0699 -0.2975
11422SOL    HW140103   5.125   5.384   2.394  0.7023  1.0198 -0.0237
11422SOL    HW240104   5.026   5.337   2.499  0.3950 -0.5864 -0.9877
11423SOL     OW40105   2.741  11.219   0.340  0.1838  0.1390 -0.6405
11423SOL    HW140106   2.696  11.292   0.297  0.8528 -0.0749 -1.7271
11423SOL    HW240107   2.833  11.229   0.315  0.6180  0.0350  0.7918
11424SOL     OW40108   0.116   9.155   4.992 -0.3436  0.8652 -0.1080
11424SOL    HW140109   0.084   9.138   4.903 -1.6441  0.2955  0.4332
11424SOL    HW240110   0.091   9.076   5.041  0.1987  1.2477  0.7980
11425SOL     OW40111   4.595  11.736   1.525 -0.2517  0.2553 -0.5745
11425SOL    HW140112   4.513  11.694   1.551 -0.7193  0.8077 -1.1217
11425SOL    HW240113   4.604  11.715   1.432 -1.0854  2.2659 -1.1595
11426SOL     OW40114   9.330   9.481   2.436 -0.2047  0.3746  0.1098
11426SOL    HW140115   9.374   9.473   2.521  0.5535 -0.5302 -0.3553
11426SOL    HW240116   9.369   9.559   2.396  0.6123 -0.1238 -0.0808
11427SOL     OW40117   9.318   1.891   3.414  0.5411  0.0706 -0.2746
11427SOL    HW140118   9.380   1.825   3.445 -0.0138 -0.2542  0.1646
11427SOL    HW240119   9.373   1.964   3.384  1.1299 -0.1714  0.1971
11428SOL     OW40120  10.657  11.557   9.988  0.3211  0.1671 -0.3505
11428SOL    HW140121  10.737  11.508   9.968  0.5851 -0.1947  1.4650
11428SOL    HW240122  10.657  11.566  10.083 -1.4706  0.7461 -0.3689
11429SOL     OW40123   1.488   6.437   3.094 -0.1048  0.1266  0.4309
11429SOL    HW140124   1.525   6.360   3.136  0.5153  0.2694  0.1675
11429SOL    HW240125   1.425   6.403   3.031 -0.3591 -0.1268  0.8179
11430SOL     OW40126   7.975   2.642   3.956 -0.3415  0.1267 -0.1121
11430SOL    HW140127   8.061   2.663   3.919 -0.1111  0.4078  0.5669
11430SOL    HW240128   7.914   2.697   3.907 -0.2304 -0.5965 -1.0828
11431SOL     OW40129   0.340   8.209   5.120  0.7562 -0.2834  0.1863
11431SOL    HW140130   0.358   8.302   5.125 -0.3023 -0.1254  1.5983
11431SOL    HW240131   0.379   8.172   5.199  0.8521 -0.9954 -0.1751
11432SOL     OW40132   5.363   7.949   3.210 -0.1251  0.2205 -0.2311
11432SOL    HW140133   5.365   7.854   3.202 -1.6817  0.0353  1.1207
11432SOL    HW240134   5.438   7.979   3.159 -0.2675 -1.6575 -1.6597
11433SOL     OW40135   5.637   8.590   7.927 -0.0848 -0.1895 -0.2179
11433SOL    HW140136   5.627   8.495   7.930 -0.8381 -0.1853 -1.5504
11433SOL    HW240137   5.704   8.605   7.861  2.8443  0.1311  2.5962
11434SOL     OW40138   5.699   5.175   0.266 -0.9006  0.3864 -0.0955
11434SOL    HW140139   5.772   5.182   0.205  2.2772 -0.0228  3.2795
11434SOL    HW240140   5.680   5.266   0.291 -0.0324  0.3960  0.5687
11435SOL     OW40141   7.060  11.640   5.813 -0.0230 -0.3952 -0.1494
11435SOL    HW140142   7.024  11.705   5.873 -2.4135 -1.1801 -0.6356
11435SOL    HW240143   7.112  11.691   5.750  0.6255  0.6734  1.2057
11436SOL     OW40144   9.928   6.338   4.611 -0.4721  0.0565  0.5548
11436SOL    HW140145   9.960   6.426   4.627  1.2074 -0.6102  1.0311
11436SOL    HW240146  10.004   6.289   4.579 -1.1701 -1.4181  1.0285
11437SOL     OW40147   6.666   1.898  12.093  1.0316  0.5327  0.0367
11437SOL    HW140148   6.662   1.965  12.025  4.9955  0.4089 -0.6053
11437SOL    HW240149   6.704   1.822  12.049  1.1573 -0.4873  1.8079
11438SOL     OW40150   9.367   4.766   9.421  0.2440  0.2464  0.2550
11438SOL    HW140151   9.449   4.814   9.405  1.0590 -0.7534  1.3419
11438SOL    HW240152   9.382   4.679   9.385 -0.1881 -0.0707  0.8195
11439SOL     OW40153  10.811   6.015   0.451 -0.2120 -0.7386 -0.5168
11439SOL    HW140154  10.903   6.016   0.427  0.1451  1.7212  0.6610
11439SOL    HW240155  10.780   6.104   0.433 -1.8028 -0.9150  1.0337
11440SOL     OW40156   0.973   3.210  11.827 -0.0297  0.3583 -0.1115
11440SOL    HW140157   0.943   3.264  11.901  0.1634 -0.2995  0.4625
11440SOL    HW240158   1.058   3.248  11.802  0.1483  0.2710  0.3485
11441SOL     OW40159   8.109  11.329   8.529  0.2925  0.2224 -0.1170
11441SOL    HW140160   8.077  11.296   8.445 -0.6865  0.1040  0.2803
11441SOL    HW240161   8.188  11.278   8.547  0.4168  0.1356 -0.8818
11442SOL     OW40162  11.971  11.192   0.962  0.2953  0.2392  0.4010
11442SOL    HW140163  11.925  11.170   0.881  0.1928 -0.3763  0.6185
11442SOL    HW240164  12.058  11.152   0.952 -0.0806 -0.7722  1.0346
11443SOL     OW40165   5.801   4.958   6.855  0.1298 -0.5260  0.5198
11443SOL    HW140166   5.725   4.995   6.809 -0.3059 -3.2922 -1.2144
11443SOL    HW240167   5.858   5.033   6.872 -1.5239  1.1766 -1.0619
11444SOL     OW40168  12.045  11.477  11.676 -0.3216 -0.0056 -0.0020
11444SOL    HW140169  11.998  11.505  11.755 -1.6145  1.6287 -1.2838
11444SOL    HW240170  11.993  11.404  11.642 -0.5619  0.2005 -0.0820
11445SOL     OW40171  10.342   0.511   0.090  0.2025  0.6174  0.5008
11445SOL    HW140172  10.373   0.589   0.136  1.2041  0.6260 -0.1618
11445SOL    HW240173  10.332   0.540  -0.001 -1.3177  0.4836  0.5970
11446SOL     OW40174  11.555   0.947   9.770  0.0952  0.6735  0.2628
11446SOL    HW140175  11.547   0.957   9.865 -1.8587  0.5466  0.1605
11446SOL    HW240176  11.531   0.856   9.753 -0.2856  0.8935 -0.4129
11447SOL     OW40177   1.722   9.313   3.509  0.4126 -0.7690 -0.0682
11447SOL    HW140178   1.723   9.321   3.605  1.2551 -1.3407 -0.0153
11447SOL    HW240179   1.773   9.388   3.479  0.1078 -0.5631 -0.0755
11448SOL     OW40180   8.520  11.631   8.987 -0.3817 -0.4525 -0.1485
11448SOL    HW140181   8.608  11.619   8.951 -1.0436 -1.8181 -1.3951
11448SOL    HW240182   8.505  11.726   8.984  1.2422 -0.1310  0.6414
11449SOL     OW40183   8.102   4.576  10.574 -1.0050  0.0490 -0.0710
11449SOL    HW140184   8.115   4.642  10.642 -4.0291  0.4470  0.2318
11449SOL    HW240185   8.066   4.623  10.500  0.7065 -0.6635 -1.4405
11450SOL     OW40186  10.653   8.282   7.396  0.1040  0.1207  0.0918
11450SOL    HW140187  10.712   8.216   7.357 -1.8368 -0.7660 -1.5138
11450SOL    HW240188  10.604   8.316   7.321  0.1772  2.5400  1.0759
11451SOL     OW40189   6.637   7.184   7.285 -0.2936 -0.2654 -0.3248
11451SOL    HW140190   6.545   7.183   7.262 -0.6372  0.9035  0.8187
11451SOL    HW240191   6.681   7.216   7.207 -1.0577  0.7017 -0.3806
11452SOL     OW40192   8.185   4.334   1.270 -0.1267  0.3027 -0.0376
11452SOL    HW140193   8.259   4.279   1.298  0.6225  1.0516 -0.4820
11452SOL    HW240194   8.144   4.362   1.352 -0.4916 -0.8544  0.1962
11453SOL     OW40195   1.397  10.008   0.787  0.1504 -0.0109 -0.1352
11453SOL    HW140196   1.380  10.095   0.825  0.9435  0.2543 -0.3482
11453SOL    HW240197   1.321   9.956   0.810 -0.2093  0.6674  0.2473
11454SOL     OW40198  11.464   7.224   0.259 -0.7087  0.3031 -0.1406
11454SOL    HW140199  11.552   7.254   0.283 -0.9265  0.4550  0.4713
11454SOL    HW240200  11.442   7.159   0.325 -0.5273 -0.7248 -1.0556
11455SOL     OW40201   2.064   6.808   0.449 -0.0681  0.4698  0.3948
11455SOL    HW140202   2.057   6.818   0.354  2.2489  0.0245  0.1078
11455SOL    HW240203   2.127   6.875   0.475 -0.0698  0.0668  1.4897
11456SOL     OW40204   0.189   2.400   7.697 -0.4914  0.0200 -0.5204
11456SOL    HW140205   0.142   2.430   7.774 -1.0406  0.0135 -0.8485
11456SOL    HW240206   0.264   2.350   7.732 -1.3690 -0.9617  0.0104
11457SOL     OW40207   0.215   9.813   1.577  0.1110 -0.4200  0.4081
11457SOL    HW140208   0.223   9.881   1.511  1.6938 -2.8863 -2.1687
11457SOL    HW240209   0.123   9.787   1.575 -0.7825  2.2095  2.2279
11458SOL     OW40210   4.817   1.539   3.870 -0.2484 -0.2105 -0.5008
11458SOL    HW140211   4.901   1.584   3.872 -0.7390  0.7168  0.1374
11458SOL    HW240212   4.753   1.608   3.889 -1.0034 -1.2386  0.8215
11459SOL     OW40213   1.168   6.072   7.858  0.6128 -0.0709  0.2974
11459SOL    HW140214   1.187   5.989   7.902 -0.9152  0.8068  2.8400
11459SOL    HW240215   1.101   6.051   7.793  1.1133 -0.9921  0.0598
11460SOL     OW40216   6.286   0.700   3.883  0.2110 -0.5095 -0.7571
11460SOL    HW140217   6.322   0.788   3.885  0.0930 -0.4790  0.3697
11460SOL    HW240218   6.219   0.703   3.814 -1.2917  0.8900  0.6855
11461SOL     OW40219   5.877   8.796   9.665 -0.2070  0.2771  1.0650
11461SOL    HW140220   5.886   8.849   9.587  2.7450 -1.2626  0.2009
11461SOL    HW240221   5.814   8.727   9.641 -0.7542  0.8798  0.7428
11462SOL     OW40222   3.045   6.749   0.618  0.2171 -1.1170  0.3092
11462SOL    HW140223   3.000   6.670   0.587 -0.9168 -0.7362  0.9116
11462SOL    HW240224   3.095   6.779   0.542 -0.6604 -1.4928 -0.4482
11463SOL     OW40225   6.549  10.311   6.383  0.1873  0.3716 -0.3001
11463SOL    HW140226   6.548  10.332   6.476 -1.7272 -0.5836 -0.0594
11463SOL    HW240227   6.637  10.277   6.367  0.3863  0.0755  1.2615
11464SOL     OW40228   0.922   1.517   5.038 -0.1945 -0.3214 -0.2564
11464SOL    HW140229   0.946   1.609   5.043 -1.8818  0.3206 -2.4175
11464SOL    HW240230   0.832   1.514   5.070  0.3051 -1.4865  1.1248
11465SOL     OW40231   6.449  10.307  10.708  0.1153 -0.1869  0.1342
11465SOL    HW140232   6.436  10.254  10.787 -1.2031  0.0850  0.1271
11465SOL    HW240233   6.483  10.245  10.643 -0.2373 -0.7587  0.4801
11466SOL     OW40234   0.284   7.304   8.238 -0.0434  0.7718  0.1770
11466SOL    HW140235   0.341   7.336   8.307 -0.7644 -1.2059  1.8063
11466SOL    HW240236   0.195   7.324   8.269 -0.3536  0.9020 -0.7496
11467SOL     OW40237   0.872   9.296   2.297 -0.2909  0.1498  0.0159
11467SOL    HW140238   0.931   9.258   2.361  2.2610  1.4025 -1.4170
11467SOL    HW240239   0.838   9.221   2.247  0.8556 -0.5690  0.2834
11468SOL     OW40240   6.871   5.053   4.013  0.0882  0.4156 -0.2874
11468SOL    HW140241   6.813   5.075   4.086  0.3436 -0.1677  0.1030
11468SOL    HW240242   6.945   5.113   4.022  0.3451  0.0294  0.2231
11469SOL     OW40243   6.099   7.544   0.798  0.7868 -0.1525  0.0235
11469SOL    HW140244   6.123   7.470   0.853 -0.3028 -0.0914  0.6051
11469SOL    HW240245   6.112   7.621   0.853 -1.3746 -0.1659  0.6224
11470SOL     OW40246  10.519   5.480   5.169  0.1615 -0.5348  0.0172
11470SOL    HW140247  10.498   5.540   5.241 -0.3250 -0.8739  0.1624
11470SOL    HW240248  10.519   5.393   5.209  0.2066 -0.6982 -0.3302
11471SOL     OW40249   1.062  10.350  11.879  0.1859  0.4130 -0.2195
11471SOL    HW140250   1.060  10.441  11.850  0.3741  0.5043  0.0511
11471SOL    HW240251   0.975  10.315  11.857  0.0401  0.7184 -0.1287
11472SOL     OW40252   0.008  10.875   8.925  0.0427 -0.5259 -0.2540
11472SOL    HW140253  -0.039  10.849   8.845  0.8249 -0.5257 -0.7241
11472SOL    HW240254   0.002  10.970   8.926 -2.4158 -0.6093  1.2188
11473SOL     OW40255   8.852   3.261   6.803 -0.1529  0.1745  0.0435
11473SOL    HW140256   8.894   3.200   6.743  1.2674  0.8083  0.3570
11473SOL    HW240257   8.817   3.207   6.873 -1.8045 -0.5764 -1.2850
11474SOL     OW40258   1.320   1.351   6.781  0.0604  0.4892 -0.0493
11474SOL    HW140259   1.244   1.398   6.746  1.2949  1.6934 -1.2281
11474SOL    HW240260   1.299   1.337   6.874 -1.0915  1.8385 -0.0757
11475SOL     OW40261   8.693   5.643   8.831 -0.2496  0.7033 -0.3596
11475SOL    HW140262   8.711   5.672   8.742 -1.2024  1.9970 -0.1576
11475SOL    HW240263   8.608   5.599   8.826  0.0859  0.0202 -0.2281
11476SOL     OW40264  10.109   6.043   2.678  0.0609  0.0149 -0.0602
11476SOL    HW140265  10.066   5.970   2.721 -0.2547 -1.1185 -2.1510
11476SOL    HW240266  10.037   6.092   2.637  0.5177 -0.8018 -1.9666
11477SOL     OW40267   6.624  10.644   6.918 -0.3153 -0.0818 -0.0781
11477SOL    HW140268   6.707  10.606   6.890 -0.5397  0.9551 -2.3671
11477SOL    HW240269   6.559  10.578   6.895 -0.2757 -0.2731  0.3485
11478SOL     OW40270  10.116   6.525   0.217  0.0467 -0.0969 -0.1159
11478SOL    HW140271  10.180   6.500   0.151 -0.7506  0.8976 -1.3015
11478SOL    HW240272  10.083   6.610   0.188 -1.5004 -0.3857  0.6790
11479SOL     OW40273   0.323   8.151  11.361  0.4366  0.2210 -0.1017
11479SOL    HW140274   0.330   8.057  11.379 -0.0807  0.3760  0.9334
11479SOL    HW240275   0.408   8.173  11.322  0.1292 -0.9078 -1.4999
11480SOL     OW40276   2.751   7.564   5.465 -0.5346  0.4898  0.8111
11480SOL    HW140277   2.751   7.485   5.410 -0.2971 -0.6014  2.3265
11480SOL    HW240278   2.843   7.578   5.485 -0.4523  1.8588 -0.3734
11481SOL     OW40279   5.500  11.324  10.263  0.1541  0.5555  0.2827
11481SOL    HW140280   5.492  11.368  10.178 -1.3328  1.4679  0.8390
11481SOL    HW240281   5.554  11.383  10.315  0.4107  0.3812  0.2153
11482SOL     OW40282   4.884   5.004   3.464 -0.0719  0.5660 -0.3140
11482SOL    HW140283   4.904   4.912   3.480 -1.8659  0.2142  0.0891
11482SOL    HW240284   4.898   5.046   3.549  1.1458  0.7720 -0.5947
11483SOL     OW40285   3.050   4.242   4.418 -0.2119 -0.4190  0.1636
11483SOL    HW140286   3.062   4.320   4.364  0.8957  0.1192  1.1328
11483SOL    HW240287   3.064   4.169   4.358 -2.5256  0.0410 -1.0609
11484SOL     OW40288   9.437   0.070  10.966  0.2753  0.0812  0.5110
11484SOL    HW140289   9.466  -0.019  10.984  1.4053  0.3684  0.1993
11484SOL    HW240290   9.513   0.113  10.926 -0.3298  1.1084  0.4117
11485SOL     OW40291   6.044   6.533   6.169  0.2070  0.8028  0.8454
11485SOL    HW140292   5.984   6.575   6.108  0.2955  2.4832  1.8734
11485SOL    HW240293   6.122   6.589   6.169  0.5938  0.2881  1.7702
11486SOL     OW40294   7.852   3.080   5.551  0.2397  0.3679 -0.6213
11486SOL    HW140295   7.934   3.058   5.596 -0.7165 -0.1156  0.9866
11486SOL    HW240296   7.864   3.170   5.522  0.8591  0.7724  0.7991
11487SOL     OW40297  11.335   6.751   4.301  0.2870  0.1151 -0.1912
11487SOL    HW140298  11.345   6.836   4.346 -1.3272 -0.4527  1.3581
11487SOL    HW240299  11.294   6.773   4.218  0.5105  0.9273 -0.0983
11488SOL     OW40300   8.000   3.465   2.104  0.2017 -0.1881  0.5421
11488SOL    HW140301   7.992   3.381   2.150  3.0243 -0.2042  1.1856
11488SOL    HW240302   8.090   3.466   2.071 -0.3207  1.8319 -1.0645
11489SOL     OW40303   3.639   5.529   7.526 -0.3537  0.6381  0.7506
11489SOL    HW140304   3.600   5.581   7.456  0.1353 -1.5860 -1.3213
11489SOL    HW240305   3.681   5.594   7.583  1.0720  2.5017 -2.1692
11490SOL     OW40306   4.565   4.494   5.694 -0.3562 -0.0306 -0.2685
11490SOL    HW140307   4.573   4.451   5.609 -1.0321  0.1390 -0.4231
11490SOL    HW240308   4.472   4.485   5.717 -0.7166  2.1454 -0.7241
11491SOL     OW40309   9.806  10.989   2.193 -0.4291  0.1031  0.1694
11491SOL    HW140310   9.819  11.038   2.111  0.1027 -0.4912 -0.1094
11491SOL    HW240311   9.728  10.936   2.177 -0.4464  0.1403  0.1271
11492SOL     OW40312   4.960   6.049   3.453  0.2842 -1.1204 -0.6685
11492SOL    HW140313   4.872   6.060   3.416  1.0648 -1.4663 -2.7612
11492SOL    HW240314   5.011   6.011   3.382  1.7660 -2.4151  1.0075
11493SOL     OW40315   2.047   9.671   8.221 -0.1413  0.4155 -0.3076
11493SOL    HW140316   2.070   9.693   8.131  0.4906  0.4206 -0.1503
11493SOL    HW240317   2.076   9.580   8.232 -1.9276 -0.2379 -0.6831
11494SOL     OW40318   5.823   1.881   7.391  0.1106 -0.5445 -0.0163
11494SOL    HW140319   5.751   1.944   7.398  0.3905 -0.2950  0.7131
11494SOL    HW240320   5.781   1.795   7.393 -0.2363 -0.3918 -0.5484
11495SOL     OW40321   2.762  11.980   6.632  0.4013  0.3275 -0.0921
11495SOL    HW140322   2.725  12.023   6.556 -0.1225 -1.3313 -0.8184
11495SOL    HW240323   2.706  11.903   6.647  1.3313 -0.1695  1.0846
11496SOL     OW40324   4.097   0.307   6.685 -0.0322  0.4891  0.1411
11496SOL    HW140325   4.165   0.308   6.618 -0.5371  0.4832 -0.3758
11496SOL    HW240326   4.049   0.226   6.670 -0.7371  0.9394 -0.0943
11497SOL     OW40327   6.387   8.096   2.747 -0.7597 -0.0675  0.4574
11497SOL    HW140328   6.413   8.185   2.771  4.7608 -0.8383 -1.1223
11497SOL    HW240329   6.401   8.092   2.652  0.3246 -2.8062  0.6388
11498SOL     OW40330   3.043   4.281  10.442  0.3770 -0.1576 -0.2586
11498SOL    HW140331   3.134   4.287  10.414  0.1588  0.1395 -0.9354
11498SOL    HW240332   3.005   4.214  10.385 -0.0728  0.4481 -0.6893
11499SOL     OW40333   1.068  11.681   1.121 -0.4386 -0.1047 -0.2021
11499SOL    HW140334   1.055  11.740   1.196  0.7469  0.1742 -0.2004
11499SOL    HW240335   1.030  11.598   1.150  0.3409 -0.1153  0.8721
11500SOL     OW40336   4.704   7.126   3.618  0.1294  0.7158  0.6035
11500SOL    HW140337   4.743   7.089   3.538  0.3565 -0.3337  1.1811
11500SOL    HW240338   4.652   7.054   3.655  0.6559  0.9281  1.8073
11501SOL     OW40339   0.533  10.837   8.808 -0.2314  0.7052  0.0397
11501SOL    HW140340   0.471  10.822   8.879  0.1418 -0.2705  0.1699
11501SOL    HW240341   0.492  10.798   8.731 -0.5787  1.6497 -0.2636
11502SOL     OW40342   5.173  10.859  12.181  0.2671 -0.4726  0.4783
11502SOL    HW140343   5.128  10.924  12.235  1.5758  1.1805 -0.3459
11502SOL    HW240344   5.260  10.895  12.168  0.7602 -2.0073 -0.7332
11503SOL     OW40345   9.366   5.404   7.650 -0.1221  0.7112  0.4243
11503SOL    HW140346   9.395   5.315   7.669 -1.3957  0.1425 -0.1741
11503SOL    HW240347   9.381   5.452   7.732  1.8353  0.3230  0.3478
11504SOL     OW40348   1.259   8.908   6.715 -0.1469 -0.1272 -0.3375
11504SOL    HW140349   1.288   8.996   6.741  1.3050 -0.9546  1.0080
11504SOL    HW240350   1.167   8.904   6.741  0.0133  0.6874  0.3816
11505SOL     OW40351  11.667   1.877   5.245  1.3351 -0.3724  0.4833
11505SOL    HW140352  11.693   1.795   5.287 -2.3675 -1.4338  0.9755
11505SOL    HW240353  11.604   1.851   5.179 -0.6835  2.1169  1.3000
11506SOL     OW40354   4.683  12.069   3.573  0.3208 -0.6251  0.6807
11506SOL    HW140355   4.695  12.151   3.620  2.3079  0.9828 -2.2581
11506SOL    HW240356   4.617  12.089   3.506  0.4688 -1.5382  0.2402
11507SOL     OW40357   7.583   6.257   2.192  1.0061  0.4012 -0.0371
11507SOL    HW140358   7.528   6.280   2.117 -1.1021 -0.6808  1.0911
11507SOL    HW240359   7.574   6.331   2.252  2.2097  0.9876 -0.5242
11508SOL     OW40360   7.180   4.976   2.649 -0.1732  0.9444 -0.0426
11508SOL    HW140361   7.255   4.954   2.593 -0.5386  2.3457 -1.1685
11508SOL    HW240362   7.169   4.901   2.706  1.8557  0.5412 -0.1106
11509SOL     OW40363   8.332   3.354  12.163 -0.5895  0.1325  1.0157
11509SOL    HW140364   8.255   3.316  12.122 -0.9645  1.1042  0.7851
11509SOL    HW240365   8.350   3.433  12.112  1.4439 -0.8120  0.1427
11510SOL     OW40366   8.570   9.375   4.465 -0.2675 -0.1202 -0.2252
11510SOL    HW140367   8.664   9.375   4.448  0.1683 -1.8702  1.7214
11510SOL    HW240368   8.530   9.400   4.381  1.8850 -0.0306 -1.2861
11511SOL     OW40369   8.815   9.003   1.589  0.2027  0.1987 -0.1933
11511SOL    HW140370   8.862   9.080   1.619  1.9260 -0.1992 -1.7060
11511SOL    HW240371   8.744   9.037   1.534  1.6784  0.7315 -1.8404
11512SOL     OW40372   9.078   5.976   2.318 -0.0307  1.2464 -1.0995
11512SOL    HW140373   9.107   6.042   2.382 -0.3377  1.8366 -1.5521
11512SOL    HW240374   9.010   5.927   2.363 -1.7965  3.0488 -1.6354
11513SOL     OW40375   1.942   4.331   6.533 -0.2171  0.4473 -0.4295
11513SOL    HW140376   1.993   4.371   6.604 -2.8973  2.3004  0.6313
11513SOL    HW240377   1.921   4.404   6.475 -0.5038 -0.5238 -1.5861
11514SOL     OW40378  10.265   9.957   0.561 -0.2080 -0.0468 -0.1007
11514SOL    HW140379  10.286   9.910   0.642 -1.0696  1.3917  1.0078
11514SOL    HW240380  10.350   9.987   0.528  0.0441  0.7095  1.1572
11515SOL     OW40381   2.124   6.778   2.440 -0.2743  0.4463 -0.1430
11515SOL    HW140382   2.193   6.712   2.445 -0.1939  0.4882 -0.6859
11515SOL    HW240383   2.045   6.733   2.469  0.0315  0.4755  0.7637
11516SOL     OW40384   1.136   9.541  10.535  0.5050  0.3855  0.1421
11516SOL    HW140385   1.170   9.630  10.519  1.1989  0.3743  1.4436
11516SOL    HW240386   1.178   9.487  10.468 -0.9973  1.2268 -1.5830
11517SOL     OW40387  10.566   2.354   4.197  0.4285 -0.0478 -0.3852
11517SOL    HW140388  10.603   2.272   4.229  1.4764 -0.1511 -1.7899
11517SOL    HW240389  10.580   2.352   4.102 -0.6887  1.1838 -0.6128
11518SOL     OW40390   1.479   2.402   9.209 -0.4816 -0.7199  0.1920
11518SOL    HW140391   1.519   2.324   9.247  0.8529 -0.7775 -1.2368
11518SOL    HW240392   1.500   2.397   9.116 -0.1402  1.4647  0.0903
11519SOL     OW40393   1.897  11.904   5.354  0.1272  0.3466 -0.0588
11519SOL    HW140394   1.831  11.860   5.407  0.3596  1.5267  1.2835
11519SOL    HW240395   1.858  11.911   5.267 -0.3363 -1.4952 -0.0341
11520SOL     OW40396   3.965   0.584  10.211  0.6293  0.1832  0.0412
11520SOL    HW140397   3.997   0.534  10.286  0.9578  0.7046  0.2620
11520SOL    HW240398   3.914   0.522  10.159  1.5431 -0.5366 -0.0156
11521SOL     OW40399   8.118   8.348   8.012  0.0710  0.2867  0.5096
11521SOL    HW140400   8.088   8.340   8.103 -2.4953 -0.1287 -0.2809
11521SOL    HW240401   8.126   8.257   7.982 -2.4431  0.3392 -0.5874
11522SOL     OW40402   4.020   6.733   9.802  0.2358  0.4877  0.6710
11522SOL    HW140403   3.942   6.784   9.778 -0.5606 -0.8287  0.3879
11522SOL    HW240404   4.051   6.774   9.883  0.3771  2.2147 -0.2010
11523SOL     OW40405  11.080  10.901   4.662  0.7967  0.0490 -0.4462
11523SOL    HW140406  11.173  10.921   4.669  0.9191 -0.7344  0.3259
11523SOL    HW240407  11.038  10.985   4.644  1.7057  0.3193 -1.3774
11524SOL     OW40408   6.959  10.812   9.503  0.0121 -0.3198  0.3864
11524SOL    HW140409   6.881  10.781   9.457  0.5898  1.7452 -2.2552
11524SOL    HW240410   7.023  10.741   9.493 -0.5967 -0.8141 -0.0779
11525SOL     OW40411   2.200  10.409   4.566  0.6766 -0.0274  0.3151
11525SOL    HW140412   2.257  10.373   4.499 -0.7395 -1.5280 -0.1423
11525SOL    HW240413   2.211  10.350   4.641  1.6313  1.1630  1.1437
11526SOL     OW40414   5.985   4.761   3.518  0.3957 -0.3677  0.0137
11526SOL    HW140415   5.948   4.685   3.474  0.2061  0.4216 -1.2516
11526SOL    HW240416   6.077   4.738   3.534  0.7708 -0.2710 -1.8394
11527SOL     OW40417   6.835   8.143   6.336 -0.5061 -1.2523 -0.0976
11527SOL    HW140418   6.902   8.077   6.315 -0.7537 -2.8344  3.4505
11527SOL    HW240419   6.775   8.098   6.395 -2.6612  1.2321 -0.2575
11528SOL     OW40420   0.398   2.730   9.298  0.0855 -0.0469 -0.0767
11528SOL    HW140421   0.429   2.649   9.339  1.2689  1.2700  1.7988
11528SOL    HW240422   0.473   2.762   9.248  0.3335  0.8764  0.8416
11529SOL     OW40423   8.579   2.509   8.195 -0.1096  0.2131 -0.4787
11529SOL    HW140424   8.603   2.517   8.287  0.0625  1.7822 -0.6373
11529SOL    HW240425   8.483   2.503   8.196 -0.1211  0.4316 -0.2130
11530SOL     OW40426   0.177   6.215   0.057  0.2333  0.0272 -0.0629
11530SOL    HW140427   0.227   6.213   0.139  0.3351 -2.0234 -0.1382
11530SOL    HW240428   0.104   6.155   0.071 -0.3200  0.4183 -1.1386
11531SOL     OW40429   5.024  10.841   9.526  0.1686  0.3430  0.2863
11531SOL    HW140430   5.116  10.865   9.514 -0.3167  1.9137 -0.6259
11531SOL    HW240431   5.014  10.760   9.477  0.7543  0.9304 -0.8416
11532SOL     OW40432   9.523   9.344   6.601 -0.2211 -0.0213 -0.7624
11532SOL    HW140433   9.581   9.268   6.611 -1.7010 -0.9373  1.7700
11532SOL    HW240434   9.435   9.306   6.596 -0.8358  1.4576 -2.2081
11533SOL     OW40435   7.529   9.446   4.374 -0.1519 -0.1574 -0.2237
11533SOL    HW140436   7.555   9.523   4.324 -0.4185 -0.0502 -0.1980
11533SOL    HW240437   7.462   9.404   4.321 -2.4790  1.4601  1.2609
11534SOL     OW40438   5.342   7.769   8.581 -0.2980 -0.1715 -0.3611
11534SOL    HW140439   5.414   7.708   8.601  1.9820  2.6068  0.5917
11534SOL    HW240440   5.357   7.794   8.490 -1.2229 -0.9575 -0.7472
11535SOL     OW40441  11.670   8.572   4.807 -0.1275  0.0412 -0.4046
11535SOL    HW140442  11.673   8.643   4.743  0.6453 -0.1061 -0.5442
11535SOL    HW240443  11.593   8.592   4.861  0.9223  1.8300  0.5321
11536SOL     OW40444   6.225  10.917  10.561 -0.2621 -0.1083 -0.5749
11536SOL    HW140445   6.298  10.878  10.512  1.1467 -0.8357  1.9220
11536SOL    HW240446   6.150  10.862  10.538  0.7857 -1.6939 -0.4126
11537SOL     OW40447  10.435  11.663   9.321 -0.1293 -0.8219  0.4362
11537SOL    HW140448  10.368  11.610   9.365 -2.7689  0.5264 -1.6738
11537SOL    HW240449  10.434  11.633   9.231  0.3845  0.8604 -0.1653
11538SOL     OW40450   3.422   3.691   6.877 -0.4039 -0.3509  0.3025
11538SOL    HW140451   3.432   3.596   6.872  1.5327 -0.1370 -1.2322
11538SOL    HW240452   3.372   3.714   6.799 -0.1448 -0.0401  0.2280
11539SOL     OW40453   6.787   9.418   7.281  0.5123  0.4333 -0.0351
11539SOL    HW140454   6.834   9.446   7.202  0.3855  1.0365  0.0994
11539SOL    HW240455   6.709   9.473   7.283  0.2943  0.1105  0.2719
11540SOL     OW40456   3.969   7.742   6.156  0.3962 -0.5765 -0.4460
11540SOL    HW140457   3.885   7.727   6.113 -0.6233  0.7391  0.9566
11540SOL    HW240458   3.974   7.674   6.223  0.9666 -1.3067 -1.2212
11541SOL     OW40459   8.944   2.268   3.090  0.0743  0.1849 -0.8446
11541SOL    HW140460   8.971   2.348   3.134  0.6513 -0.9460  0.9775
11541SOL    HW240461   8.984   2.198   3.142 -4.2861 -1.5709  0.5947
11542SOL     OW40462   3.824   8.930   3.722 -0.0634  0.4099  0.2159
11542SOL    HW140463   3.776   9.012   3.713 -0.4167  0.2249  0.3529
11542SOL    HW240464   3.905   8.953   3.766  0.4114  0.8836 -0.8673
11543SOL     OW40465   4.649   1.496   5.295 -0.0817 -0.3475 -0.0045
11543SOL    HW140466   4.589   1.466   5.363 -0.3103 -0.5172 -0.2763
11543SOL    HW240467   4.711   1.423   5.284  0.3904 -0.0294  0.5240
11544SOL     OW40468   9.190   9.248   4.087 -0.2186 -0.7523  0.0185
11544SOL    HW140469   9.223   9.163   4.115 -1.6047 -1.3157  0.0178
11544SOL    HW240470   9.176   9.297   4.168 -1.0393 -1.1598  0.1324
11545SOL     OW40471  12.325  11.944   6.757  0.1812 -0.7257  0.2116
11545SOL    HW140472  12.361  11.989   6.680  3.4039 -0.1122  1.8830
11545SOL    HW240473  12.297  12.015   6.815 -2.3806 -1.1865 -0.3274
11546SOL     OW40474   6.491   5.708   2.180 -0.0034 -0.3660 -0.2859
11546SOL    HW140475   6.414   5.666   2.218 -1.7522  0.8603 -2.2474
11546SOL    HW240476   6.472   5.802   2.186  1.3475 -0.0404 -0.8427
11547SOL     OW40477   9.002  10.204   3.126 -0.1851 -0.0785 -0.0432
11547SOL    HW140478   8.977  10.113   3.113  1.1092 -0.6920  1.4826
11547SOL    HW240479   8.930  10.242   3.176 -0.7433 -0.2353 -0.7125
11548SOL     OW40480   8.969   1.408  11.489  0.4466 -0.4130 -0.4647
11548SOL    HW140481   8.899   1.460  11.529 -0.0203 -1.5179  0.2093
11548SOL    HW240482   8.940   1.394  11.399 -0.2686 -0.9497 -0.1615
11549SOL     OW40483   9.909  11.969   7.240 -0.2362  0.1181 -0.0594
11549SOL    HW140484   9.941  12.036   7.180 -0.9944  1.8170  1.3669
11549SOL    HW240485   9.924  11.886   7.193 -2.6886  1.4090 -3.5216
11550SOL     OW40486   7.133  12.068   4.456  0.3568  0.1882  0.0244
11550SOL    HW140487   7.190  12.046   4.382  1.2335  0.3533  0.6338
11550SOL    HW240488   7.091  12.150   4.430  0.0218 -0.1842 -0.6353
11551SOL     OW40489   8.447   0.500   7.832  0.1296  0.1386  0.3838
11551SOL    HW140490   8.359   0.523   7.801  0.5974 -0.5498 -1.6077
11551SOL    HW240491   8.458   0.409   7.805  1.7118  0.4462 -0.0873
11552SOL     OW40492   8.559   4.101   9.026  0.5481 -0.1714 -0.5307
11552SOL    HW140493   8.525   4.139   9.107 -0.4452 -1.5512 -0.2535
11552SOL    HW240494   8.648   4.074   9.048 -0.0990 -1.5937  0.5084
11553SOL     OW40495   3.948   9.696   4.328  0.1011 -0.2962  0.2812
11553SOL    HW140496   3.971   9.786   4.303 -1.3491 -0.2257 -0.9553
11553SOL    HW240497   4.024   9.644   4.303 -0.1807  0.1975 -1.7902
11554SOL     OW40498  11.212   9.064  10.674 -0.2010 -0.9141 -0.1420
11554SOL    HW140499  11.149   8.992  10.666 -0.8001 -0.4468  0.2918
11554SOL    HW240500  11.189   9.107  10.756  1.6239 -1.6155  0.8174
11555SOL     OW40501   4.644   3.667   0.841  0.5485 -0.1585 -0.2860
11555SOL    HW140502   4.568   3.710   0.879 -0.3374  0.1401 -2.2712
11555SOL    HW240503   4.719   3.717   0.873 -0.0964 -0.0914  1.2173
11556SOL     OW40504   6.884   8.018   8.737 -0.3493  0.1932 -0.0157
11556SOL    HW140505   6.928   8.085   8.685 -1.0901  0.0428 -0.8501
11556SOL    HW240506   6.926   8.023   8.823  0.6045  0.7257 -0.5012
11557SOL     OW40507   5.878   5.126   9.169 -0.5903  0.5140 -0.4415
11557SOL    HW140508   5.828   5.193   9.216 -0.5783  0.5788 -0.5221
11557SOL    HW240509   5.915   5.171   9.094 -0.2987  0.5002 -0.3104
11558SOL     OW40510  11.421   7.639  11.326  0.0601 -0.0050  0.2068
11558SOL    HW140511  11.444   7.667  11.237  1.3634  1.8385  1.0456
11558SOL    HW240512  11.397   7.721  11.371  1.0335 -0.6380  1.9857
11559SOL     OW40513   1.660   9.272  10.662  0.0624 -0.3360 -0.1098
11559SOL    HW140514   1.577   9.315  10.641  0.0990  0.2865  0.9700
11559SOL    HW240515   1.638   9.214  10.736  0.8061  0.6910  0.9523
11560SOL     OW40516  10.214   6.394   4.927  0.2501  0.1019 -0.1307
11560SOL    HW140517  10.125   6.430   4.916  0.3433  0.2166 -0.5137
11560SOL    HW240518  10.269   6.449   4.871  0.7185  0.6280  0.8187
11561SOL     OW40519   0.706   8.828   1.585  0.0018  0.0224 -0.2044
11561SOL    HW140520   0.728   8.739   1.612  1.3275  0.7740  1.3868
11561SOL    HW240521   0.774   8.852   1.522 -2.8297 -1.5618 -4.3458
11562SOL     OW40522   4.100   1.301   7.804 -0.2359  0.4709 -0.2210
11562SOL    HW140523   4.006   1.281   7.806 -0.0369 -0.6425  2.0526
11562SOL    HW240524   4.105   1.393   7.829 -0.7141  0.5215 -0.2966
11563SOL     OW40525   3.979   4.257   0.924  0.8313  0.2704 -0.1818
11563SOL    HW140526   4.016   4.237   0.838 -1.6478 -1.8273 -0.9044
11563SOL    HW240527   4.052   4.248   0.985  1.9356 -1.8468 -1.6827
11564SOL     OW40528   2.535   3.888   4.248 -0.3947  0.1307  0.2357
11564SOL    HW140529   2.473   3.928   4.310 -0.9228 -0.2089 -0.0623
11564SOL    HW240530   2.486   3.815   4.210  0.1846 -0.1214 -0.0330
11565SOL     OW40531  10.742   5.153   2.169  0.0005  0.1614  0.4840
11565SOL    HW140532  10.714   5.229   2.119 -1.0600 -0.5854 -0.0925
11565SOL    HW240533  10.783   5.095   2.105  1.3927  0.5095  1.0322
11566SOL     OW40534   8.756   6.946   8.462 -0.1854  0.3825  0.7842
11566SOL    HW140535   8.670   6.983   8.483  0.3675  3.2895 -1.4421
11566SOL    HW240536   8.744   6.903   8.377  0.4420  0.2553  0.7547
11567SOL     OW40537  11.912   8.330   1.384 -0.0597  0.0920 -0.2040
11567SOL    HW140538  11.918   8.265   1.454  0.7257  0.9258  0.5194
11567SOL    HW240539  11.828   8.312   1.342 -0.4276 -0.5802  0.7798
11568SOL     OW40540   3.844  12.308   1.610  0.1759  0.4670  0.9935
11568SOL    HW140541   3.824  12.393   1.571 -1.5141  0.4902  1.8314
11568SOL    HW240542   3.887  12.259   1.540  3.5479  2.7935  1.1894
11569SOL     OW40543   1.843  12.097   8.443 -0.0124 -0.8155  0.2790
11569SOL    HW140544   1.779  12.040   8.400 -3.2579  2.3333  0.4147
11569SOL    HW240545   1.834  12.076   8.536 -1.7135  0.2275  0.4023
11570SOL     OW40546   6.002   3.263   0.283 -0.3251 -0.1287  0.1345
11570SOL    HW140547   6.068   3.241   0.349  1.0286  0.8524 -0.8513
11570SOL    HW240548   6.015   3.198   0.214 -1.0932 -0.5606  0.3891
11571SOL     OW40549   6.628   0.952   5.867  0.6957 -0.3186  0.2766
11571SOL    HW140550   6.583   0.970   5.785  1.6567 -1.2634 -0.4753
11571SOL    HW240551   6.665   0.865   5.856  0.2303 -0.7775  1.9897
11572SOL     OW40552   2.502  11.525   2.511 -0.0583  0.2676  0.1029
11572SOL    HW140553   2.415  11.487   2.497 -0.5725  0.9655  1.2473
11572SOL    HW240554   2.563  11.458   2.479 -1.0157  0.3138 -1.9790
11573SOL     OW40555   5.001  11.301   8.956 -0.1730  0.3492  0.2860
11573SOL    HW140556   5.076  11.273   8.905 -0.2494 -0.1401  0.4365
11573SOL    HW240557   5.039  11.341   9.035 -0.0645  0.6927  0.0626
11574SOL     OW40558   4.550   6.285   4.010  0.4682 -0.2105 -0.0364
11574SOL    HW140559   4.470   6.257   4.054 -0.2444 -0.1655 -1.2529
11574SOL    HW240560   4.563   6.375   4.040 -0.2234 -0.0476 -0.1930
11575SOL     OW40561   6.525   6.276   7.763 -0.4084  0.2982  0.0617
11575SOL    HW140562   6.585   6.344   7.733 -1.4148  0.4323 -1.8305
11575SOL    HW240563   6.573   6.194   7.750  0.2268  0.5392  0.8390
11576SOL     OW40564  11.074   7.839   3.847 -0.5226 -0.4307 -0.1021
11576SOL    HW140565  11.055   7.884   3.764  1.2814  2.0934  0.7301
11576SOL    HW240566  11.068   7.746   3.826 -0.7626  0.1323 -2.9023
11577SOL     OW40567   3.368   1.354  11.415  0.0311  0.0528 -0.2878
11577SOL    HW140568   3.424   1.298  11.470 -1.6395 -1.0842  0.3514
11577SOL    HW240569   3.279   1.338  11.448 -0.6325  2.1860 -0.9237
11578SOL     OW40570   3.441   4.473   7.528 -0.4675 -0.1011 -0.0642
11578SOL    HW140571   3.444   4.524   7.447  0.4187 -1.0842 -0.6814
11578SOL    HW240572   3.527   4.484   7.566  0.2412 -2.1950 -0.9214
11579SOL     OW40573   6.157   2.186   4.242  0.0185  0.5165 -0.5110
11579SOL    HW140574   6.071   2.145   4.240  0.5386 -0.5939 -0.8879
11579SOL    HW240575   6.172   2.216   4.152  0.1925  0.3422 -0.5413
11580SOL     OW40576   3.226   3.754   0.975  0.1319  0.4586 -0.0763
11580SOL    HW140577   3.233   3.665   1.009  0.5062 -1.2316 -4.0161
11580SOL    HW240578   3.316   3.786   0.972 -0.0015  1.0131  1.3298
11581SOL     OW40579  10.753   6.661   3.058 -0.5493  0.2542 -0.0288
11581SOL    HW140580  10.824   6.668   3.121 -0.7337  0.3213  0.1724
11581SOL    HW240581  10.705   6.743   3.066 -0.3011  0.4647 -0.5909
11582SOL     OW40582   0.785   3.902   5.597 -0.6275 -0.0244  0.3059
11582SOL    HW140583   0.843   3.897   5.673 -0.1271 -0.9000 -0.1079
11582SOL    HW240584   0.832   3.854   5.528 -2.2506 -1.5674  0.2060
11583SOL     OW40585   0.832   9.198   3.999  0.1934 -0.2633  0.3964
11583SOL    HW140586   0.845   9.279   4.049 -0.8659 -0.5157  1.1151
11583SOL    HW240587   0.743   9.171   4.019 -0.3394 -0.3000 -1.7809
11584SOL     OW40588   7.292  10.380   4.544 -0.5510  0.2960 -0.1588
11584SOL    HW140589   7.282  10.471   4.518  0.5795  0.6271  0.5150
11584SOL    HW240590   7.383  10.372   4.571 -1.1289 -0.5430  1.7169
11585SOL     OW40591   7.564   3.332   7.153 -0.5489  0.2263  0.6157
11585SOL    HW140592   7.526   3.262   7.208  0.6450  0.8963  2.3945
11585SOL    HW240593   7.493   3.358   7.095 -2.1020 -0.1367  2.2554
11586SOL     OW40594  11.171   4.441   7.118 -0.2055  0.1368  0.5857
11586SOL    HW140595  11.194   4.463   7.027  2.2118  1.2800  1.3788
11586SOL    HW240596  11.233   4.372   7.142 -1.6844 -1.0822  1.0072
11587SOL     OW40597   5.323   3.099  11.167 -0.4105  0.0408  0.4832
11587SOL    HW140598   5.401   3.120  11.218  0.8172  1.8722 -1.9531
11587SOL    HW240599   5.254   3.154  11.206 -0.2198 -0.6521  1.8602
11588SOL     OW40600   4.251   7.468  12.242  0.0985 -0.2879 -0.7004
11588SOL    HW140601   4.165   7.504  12.224 -0.0919 -0.2751  0.1860
11588SOL    HW240602   4.268   7.490  12.334  0.7037 -0.9644 -0.6364
11589SOL     OW40603   4.628   3.815  11.551  0.1113  0.7107 -0.3565
11589SOL    HW140604   4.704   3.773  11.592 -0.3711  0.8916  0.7585
11589SOL    HW240605   4.606   3.888  11.610 -2.0119 -0.4155  0.3646
11590SOL     OW40606   6.247  11.799   8.006 -0.2347  0.7229 -0.3988
11590SOL    HW140607   6.317  11.855   8.039  1.4786 -1.1181 -0.7222
11590SOL    HW240608   6.273  11.778   7.916 -1.1868 -0.0439 -0.5163
11591SOL     OW40609   9.910   3.543   8.543  0.1121 -0.6366 -0.4515
11591SOL    HW140610   9.856   3.466   8.564  0.0316 -0.4827 -0.0920
11591SOL    HW240611   9.853   3.618   8.560  0.5852 -0.4548  0.3924
11592SOL     OW40612   1.981  11.791   5.971  0.5267  0.1583  0.3039
11592SOL    HW140613   1.958  11.822   6.059  1.8700 -1.3652  1.2558
11592SOL    HW240614   2.072  11.763   5.978  0.6211 -0.1388 -1.5573
11593SOL     OW40615   1.927   7.284   2.956 -0.0450 -0.5711  0.1942
11593SOL    HW140616   1.926   7.189   2.946  1.6118 -0.6247  0.1947
11593SOL    HW240617   1.968   7.316   2.876  1.5096 -0.0543  1.1468
11594SOL     OW40618   0.950   8.860  12.016 -0.2759  0.1291 -0.6931
11594SOL    HW140619   0.871   8.821  12.054  0.5150  0.5417  1.5277
11594SOL    HW240620   0.979   8.796  11.951 -0.9877 -1.3029  0.3261
11595SOL     OW40621   4.566   2.095  11.247 -0.3674  0.2162 -0.7304
11595SOL    HW140622   4.507   2.160  11.284 -1.2074 -0.9050 -0.0155
11595SOL    HW240623   4.643   2.096  11.304 -1.2731 -0.8686  0.5647
11596SOL     OW40624   6.140   5.742   0.467  0.2056  0.2420 -0.6649
11596SOL    HW140625   6.084   5.692   0.407 -0.8676 -0.6140  0.9490
11596SOL    HW240626   6.099   5.828   0.472 -3.1031 -1.2150  2.8481
11597SOL     OW40627   2.553   9.602   8.715  0.1965  0.0003  0.2345
11597SOL    HW140628   2.531   9.678   8.661  0.3187 -0.3938 -0.3754
11597SOL    HW240629   2.597   9.542   8.655  0.4502 -0.3900  0.8035
11598SOL     OW40630   2.639   4.488   6.407  0.2491  0.7309 -0.0940
11598SOL    HW140631   2.607   4.578   6.398  1.2916  1.2579  1.1214
11598SOL    HW240632   2.732   4.498   6.427  0.2549 -0.6044  0.6286
11599SOL     OW40633   0.364   7.765   1.402  0.1491  0.2179 -0.0396
11599SOL    HW140634   0.435   7.708   1.374 -0.6369 -0.4788 -0.6719
11599SOL    HW240635   0.336   7.810   1.323 -1.1908 -0.7554 -0.1554
11600SOL     OW40636   2.559   9.635   4.357 -0.4145  0.5486  0.1326
11600SOL    HW140637   2.621   9.589   4.413 -0.9232  1.4867  1.5326
11600SOL    HW240638   2.610   9.660   4.280  0.6123  0.1931  0.6724
11601SOL     OW40639   2.025   7.626  11.290 -0.2496  0.0517  0.7398
11601SOL    HW140640   2.021   7.608  11.384 -1.4027 -0.1308  0.6650
11601SOL    HW240641   1.979   7.710  11.280 -0.5034 -0.1384  0.2932
11602SOL     OW40642   9.573   4.014   7.052  0.0944  0.1309  0.8092
11602SOL    HW140643   9.496   4.057   7.012  0.8224 -0.2524 -1.1289
11602SOL    HW240644   9.545   3.994   7.141 -0.8554  3.1387  1.3297
11603SOL     OW40645   5.239   3.788  10.204  0.1369 -0.3654  0.6806
11603SOL    HW140646   5.237   3.759  10.113 -2.0030 -0.9155  0.8378
11603SOL    HW240647   5.153   3.829  10.218  0.4918 -0.1018  2.3907
11604SOL     OW40648   4.122  10.254   5.866  0.2276 -0.3305 -0.0620
11604SOL    HW140649   4.035  10.292   5.853  0.0876 -1.0142 -1.2569
11604SOL    HW240650   4.126  10.182   5.803  0.5789 -2.1557  1.9509
11605SOL     OW40651   9.910   5.700   4.657  0.3084 -0.1712 -0.0875
11605SOL    HW140652   9.855   5.624   4.637  0.7206 -0.4429 -0.2166
11605SOL    HW240653   9.850   5.765   4.693  0.2585 -1.3581  2.1840
11606SOL     OW40654   4.796   3.614   4.516  0.2106 -0.1354  0.1776
11606SOL    HW140655   4.851   3.687   4.545  1.9437 -0.3425 -2.2715
11606SOL    HW240656   4.761   3.642   4.432 -1.5660 -0.9883  0.5838
11607SOL     OW40657   3.676  10.365   2.628 -0.2256  0.5844  0.0489
11607SOL    HW140658   3.621  10.443   2.626 -0.6700  0.2683 -0.6436
11607SOL    HW240659   3.742  10.383   2.694  0.2314  1.9149 -0.7360
11608SOL     OW40660   9.507   0.683   1.773 -0.0299  0.3526  0.0776
11608SOL    HW140661   9.423   0.639   1.785  0.0938  0.1154  0.0635
11608SOL    HW240662   9.549   0.680   1.859  0.4263 -0.4735 -0.1615
11609SOL     OW40663   9.557  11.478   2.702 -0.2286 -0.2720 -0.3068
11609SOL    HW140664   9.573  11.572   2.714 -0.1117 -0.2569 -0.5722
11609SOL    HW240665   9.505  11.453   2.778 -1.3633  0.2810 -0.8756
11610SOL     OW40666   4.352   0.236   1.944 -0.0974 -0.1163 -0.5078
11610SOL    HW140667   4.313   0.189   1.870 -1.7304 -2.9609  1.8976
11610SOL    HW240668   4.303   0.318   1.949 -1.4761 -0.8449 -1.3105
11611SOL     OW40669   3.586   1.215   6.561 -0.2434  0.1042 -0.2245
11611SOL    HW140670   3.516   1.149   6.560  1.1084 -1.4099  0.9135
11611SOL    HW240671   3.592   1.245   6.470 -3.4184  1.5039 -0.1054
11612SOL     OW40672   7.096   1.690   3.791 -0.1477  0.7726  0.2546
11612SOL    HW140673   7.013   1.646   3.772 -0.4653  1.6588 -0.5281
11612SOL    HW240674   7.071   1.781   3.810  0.6256  1.0133  0.1615
11613SOL     OW40675   6.364   3.859   4.053 -0.6762 -0.0159  0.1819
11613SOL    HW140676   6.374   3.942   4.007 -1.4068  0.5351  0.9688
11613SOL    HW240677   6.435   3.858   4.117 -0.7808  0.1035  0.3021
11614SOL     OW40678   0.147   9.078   5.680 -0.1688 -0.8285 -0.6293
11614SOL    HW140679   0.201   9.138   5.730 -3.2153  3.2237 -1.6564
11614SOL    HW240680   0.209   9.027   5.628  2.7344 -0.5616  2.2766
11615SOL     OW40681  10.257   7.423   8.503 -0.9635 -0.2843  0.0733
11615SOL    HW140682  10.349   7.446   8.490 -0.6360 -1.0558  0.8923
11615SOL    HW240683  10.259   7.353   8.568 -2.0772 -0.8896 -0.5130
11616SOL     OW40684   2.281   7.496   9.408 -0.3724 -0.0521 -0.5744
11616SOL    HW140685   2.333   7.483   9.329 -0.9290 -0.2231 -0.9173
11616SOL    HW240686   2.328   7.563   9.457  1.0454 -1.3399 -0.1131
11617SOL     OW40687   6.935   2.766   7.675  0.5073 -0.6798 -0.1397
11617SOL    HW140688   7.002   2.698   7.676  1.9949  0.6740 -1.4100
11617SOL    HW240689   6.894   2.758   7.589 -0.3513 -0.9065  0.2813
11618SOL     OW40690   2.712   8.562   8.118 -0.3527 -1.0153 -0.3237
11618SOL    HW140691   2.762   8.525   8.191  0.7409  1.1360  0.1157
11618SOL    HW240692   2.760   8.536   8.040  0.1028 -0.9648 -0.0619
11619SOL     OW40693   0.584   7.437   5.553  0.1820  0.2563 -0.3287
11619SOL    HW140694   0.548   7.522   5.527  1.5094  0.4090 -1.8509
11619SOL    HW240695   0.534   7.412   5.630 -1.8006  1.3311 -1.2041
11620SOL     OW40696   0.385   0.109   9.342  0.7255  0.0578 -0.0034
11620SOL    HW140697   0.436   0.153   9.274 -1.7314 -0.2433 -2.1832
11620SOL    HW240698   0.347   0.180   9.393 -1.9837  0.6558 -2.5628
11621SOL     OW40699   3.326   7.397   1.846  0.4942 -0.9196  0.0711
11621SOL    HW140700   3.378   7.336   1.899  2.4301 -0.2240 -0.9366
11621SOL    HW240701   3.328   7.479   1.896 -2.8663 -1.7675  1.8813
11622SOL     OW40702  11.468   2.930   5.514 -1.0200  0.5041  0.3674
11622SOL    HW140703  11.383   2.924   5.471 -0.5725  0.6828 -0.5633
11622SOL    HW240704  11.530   2.945   5.443 -0.1742  0.1243  1.0054
11623SOL     OW40705   8.519   6.193   2.694 -0.1023  0.0359  0.0060
11623SOL    HW140706   8.532   6.281   2.731  2.1836 -0.1099 -0.2602
11623SOL    HW240707   8.426   6.176   2.703 -0.1193  1.1691  3.0850
11624SOL     OW40708   4.112   1.353   2.688  0.1402 -0.0426  0.7490
11624SOL    HW140709   4.197   1.342   2.647  0.2165 -1.3016  1.2189
11624SOL    HW240710   4.059   1.280   2.654 -0.4185  0.0991  1.2940
11625SOL     OW40711  11.550   0.072   2.653 -0.2219  0.3210 -0.8945
11625SOL    HW140712  11.601   0.024   2.587  1.4612  0.6085  0.1379
11625SOL    HW240713  11.472   0.018   2.667  0.4895 -0.9123 -1.4708
11626SOL     OW40714   1.309   1.553  10.037  0.4793 -0.3675 -0.3199
11626SOL    HW140715   1.392   1.506  10.024  0.5207 -0.2488 -0.4785
11626SOL    HW240716   1.333   1.631  10.086  0.4863 -0.2405 -0.5268
11627SOL     OW40717  10.241   4.299   8.521  0.0220  0.0306 -0.7788
11627SOL    HW140718  10.335   4.306   8.507 -0.0509  1.2775 -0.7988
11627SOL    HW240719  10.203   4.309   8.433 -0.1307 -0.5119 -0.7777
11628SOL     OW40720   7.161   2.014   6.263  0.6272 -0.1951 -0.6653
11628SOL    HW140721   7.237   1.970   6.302 -0.2677 -1.2789 -0.1017
11628SOL    HW240722   7.170   1.997   6.169  0.8225 -0.7512 -0.5524
11629SOL     OW40723  12.162  12.101   6.916 -0.3134 -0.2302 -0.3293
11629SOL    HW140724  12.191  12.110   7.007  1.4077  1.3438 -0.9712
11629SOL    HW240725  12.067  12.112   6.920 -0.2100  0.2847  1.2266
11630SOL     OW40726   7.366   1.111  12.097 -0.2939 -0.4046  0.2688
11630SOL    HW140727   7.444   1.070  12.133 -0.5314 -0.4175  0.7696
11630SOL    HW240728   7.308   1.124  12.172  0.1777  1.7980  0.3263
11631SOL     OW40729   8.520  10.272   2.185 -0.2212 -0.2849  0.5569
11631SOL    HW140730   8.588  10.307   2.242 -0.2204 -1.0100  1.0050
11631SOL    HW240731   8.499  10.345   2.126  0.1517  0.2980  1.1319
11632SOL     OW40732   6.736   1.977  10.556 -0.8419 -0.0606 -0.2466
11632SOL    HW140733   6.780   2.037  10.617 -2.2336 -0.6725  1.4687
11632SOL    HW240734   6.726   2.028  10.476  2.2096  0.3437 -0.4664
11633SOL     OW40735   1.553   6.673   2.174 -0.3939 -0.0427  0.7264
11633SOL    HW140736   1.521   6.617   2.104 -1.0971  0.7414  0.4198
11633SOL    HW240737   1.508   6.757   2.162  1.1566  0.8360  0.7557
11634SOL     OW40738   9.831   4.542   6.433 -0.1152  0.4981 -0.0947
11634SOL    HW140739   9.872   4.456   6.425 -0.0920  0.4263  0.7181
11634SOL    HW240740   9.839   4.580   6.346 -0.5407 -0.5062 -0.5897
11635SOL     OW40741  10.332  10.831   3.008  0.2203 -0.1027 -0.1562
11635SOL    HW140742  10.388  10.905   2.986 -0.8729  0.4429 -1.2349
11635SOL    HW240743  10.349  10.766   2.940 -0.3397  0.0105 -0.4109
11636SOL     OW40744   2.311   7.616   5.285 -0.1425 -0.3567 -0.0988
11636SOL    HW140745   2.287   7.678   5.216  0.4299  1.4506  1.2530
11636SOL    HW240746   2.233   7.611   5.341  1.0443  2.4477  2.0726
11637SOL     OW40747   3.783   7.349   6.681  0.7401  0.3502 -0.5621
11637SOL    HW140748   3.800   7.266   6.727  0.3641  0.1954 -0.6965
11637SOL    HW240749   3.833   7.342   6.600  1.5437  0.6956 -0.1072
11638SOL     OW40750   1.192   1.464   2.522 -0.2252  0.1077 -0.1010
11638SOL    HW140751   1.098   1.481   2.524 -0.2658 -0.1067  1.5245
11638SOL    HW240752   1.201   1.374   2.555  0.5487  0.1621 -0.1326
11639SOL     OW40753   2.669   0.468   6.101  0.6783  0.4267 -0.2040
11639SOL    HW140754   2.729   0.542   6.111  0.7788  0.6524 -2.1654
11639SOL    HW240755   2.627   0.482   6.017  1.7700 -2.4967 -1.3624
11640SOL     OW40756   5.470   7.359   0.996 -0.3050  0.7263 -0.4609
11640SOL    HW140757   5.535   7.427   1.017 -1.5399  1.4737  1.2291
11640SOL    HW240758   5.511   7.277   1.025 -1.1352  1.4932  3.5616
11641SOL     OW40759   0.208   4.512   4.492 -0.2381  0.3218 -0.2840
11641SOL    HW140760   0.262   4.555   4.558  1.2960 -1.6809 -0.1180
11641SOL    HW240761   0.149   4.456   4.542  0.2367 -0.4375 -0.5521
11642SOL     OW40762   0.165   4.086   5.023 -0.3923 -0.3903 -0.0677
11642SOL    HW140763   0.095   4.045   5.073  1.3693 -0.0401  2.9360
11642SOL    HW240764   0.192   4.161   5.077  0.4784  1.1286 -2.4559
11643SOL     OW40765   4.844  11.273   5.724  0.6423  0.3733  0.0355
11643SOL    HW140766   4.814  11.260   5.814  1.2770 -2.0037 -0.0307
11643SOL    HW240767   4.847  11.368   5.713 -1.1709  0.7172  1.9124
11644SOL     OW40768   9.473   0.947   6.307  0.1014 -0.4618  0.1684
11644SOL    HW140769   9.420   0.870   6.326 -0.8174  0.2798  0.7167
11644SOL    HW240770   9.489   0.987   6.392  0.6691 -0.1083 -0.0980
11645SOL     OW40771   2.144   7.298   4.163 -0.0187 -0.6360 -0.0757
11645SOL    HW140772   2.076   7.339   4.109  0.3252 -1.1254 -0.8947
11645SOL    HW240773   2.117   7.207   4.171 -1.7778 -0.0036  3.2956
11646SOL     OW40774   5.442  10.643   2.915 -0.1614 -0.1034 -0.1271
11646SOL    HW140775   5.508  10.597   2.967 -0.1271 -1.0682 -1.0093
11646SOL    HW240776   5.412  10.714   2.972 -0.4680 -1.4122  1.4237
11647SOL     OW40777   8.669   3.707   9.430  0.5897  0.3421 -0.2780
11647SOL    HW140778   8.682   3.694   9.524 -1.4804  0.7121  0.0844
11647SOL    HW240779   8.672   3.618   9.393  0.4156  0.1068  0.2668
11648SOL     OW40780   1.436   8.706   7.806  0.4619 -0.1107 -0.7122
11648SOL    HW140781   1.344   8.725   7.825  1.0269  0.9365  1.2114
11648SOL    HW240782   1.476   8.687   7.891  2.2562  0.5269 -1.3484
11649SOL     OW40783   5.143   7.438  10.331  0.1668  0.4538  0.1609
11649SOL    HW140784   5.128   7.356  10.378 -1.3320  0.7872  0.3057
11649SOL    HW240785   5.170   7.411  10.243 -0.8025 -0.2216  0.0499
11650SOL     OW40786   3.976   9.404   5.180 -0.1171  0.0752 -0.3432
11650SOL    HW140787   4.019   9.413   5.096  0.5619 -0.9084 -0.1082
11650SOL    HW240788   3.903   9.344   5.164 -0.0915  0.0243 -0.2696
11651SOL     OW40789   2.376   5.841   4.965 -0.7411  0.0317 -0.0687
11651SOL    HW140790   2.364   5.912   4.901 -0.6381  1.2178  1.1958
11651SOL    HW240791   2.288   5.807   4.980 -0.7359 -0.4721 -1.0366
11652SOL     OW40792  11.705   5.945   3.448  0.1587  0.0457 -0.4169
11652SOL    HW140793  11.722   5.968   3.357 -1.7381 -0.1997 -0.8693
11652SOL    HW240794  11.611   5.956   3.458 -0.0560 -2.3288  0.8124
11653SOL     OW40795   7.409   6.870   6.282  0.6641 -0.4555  0.1735
11653SOL    HW140796   7.379   6.872   6.191  1.6111  1.7633 -0.1572
11653SOL    HW240797   7.328   6.878   6.333  0.1386 -1.5253 -0.4470
11654SOL     OW40798   5.198   3.611  12.266  0.2327 -0.1636 -0.4830
11654SOL    HW140799   5.289   3.605  12.296  0.0195  0.6920  0.3718
11654SOL    HW240800   5.149   3.642  12.342 -0.8486 -0.9802 -0.8319
11655SOL     OW40801   3.883   1.188   1.640  0.0866 -0.1771 -0.0838
11655SOL    HW140802   3.956   1.191   1.577  0.2995 -1.5617  0.0513
11655SOL    HW240803   3.866   1.094   1.650 -0.7110  0.0852  1.0524
11656SOL     OW40804   4.438   8.902   9.551  0.2038 -0.2240 -0.0551
11656SOL    HW140805   4.375   8.969   9.576 -1.4451 -1.3131 -1.1119
11656SOL    HW240806   4.386   8.835   9.506  1.9889 -1.5701 -0.2403
11657SOL     OW40807   1.596   2.398   9.860 -0.0791 -0.0209 -0.4807
11657SOL    HW140808   1.531   2.396   9.789 -1.5064  1.4156  0.7135
11657SOL    HW240809   1.668   2.344   9.827 -1.1902 -0.3922 -2.5183
11658SOL     OW40810   0.294   9.618   7.128 -0.5107  0.3223  0.1061
11658SOL    HW140811   0.303   9.577   7.042 -1.5920 -0.6213  0.4053
11658SOL    HW240812   0.232   9.562   7.174 -0.1143  0.9347  1.4317
11659SOL     OW40813   0.561   0.785   6.128 -0.0096  0.2139 -0.0346
11659SOL    HW140814   0.603   0.832   6.056  1.6266 -0.2561  0.5676
11659SOL    HW240815   0.498   0.847   6.164 -0.7068  0.5410 -1.7032
11660SOL     OW40816   2.778  11.563   3.253 -0.1547  0.3627  0.0411
11660SOL    HW140817   2.703  11.571   3.195 -1.5616  2.4015  1.9606
11660SOL    HW240818   2.744  11.519   3.331  1.1453 -0.3829  0.2257
11661SOL     OW40819   7.374   8.306   6.663  0.1398 -0.2087 -0.0086
11661SOL    HW140820   7.373   8.312   6.759 -1.2544  0.1892 -0.0170
11661SOL    HW240821   7.408   8.390   6.634  1.9671 -0.8620  0.1280
11662SOL     OW40822   1.376   8.480   8.313  0.2088 -0.9014 -0.4530
11662SOL    HW140823   1.316   8.443   8.378  0.0249  0.1375  0.0021
11662SOL    HW240824   1.463   8.467   8.351  0.0365  1.0099  0.7848
11663SOL     OW40825   0.986   9.676   3.215 -0.6296  0.3579 -0.2450
11663SOL    HW140826   0.923   9.632   3.159  1.6311 -1.2707 -1.7095
11663SOL    HW240827   0.935   9.710   3.288 -3.0134 -1.6353 -0.8733
11664SOL     OW40828   3.240  11.980   5.488  0.0180  0.1010  0.0880
11664SOL    HW140829   3.190  11.960   5.567  0.6189 -0.7172  0.2831
11664SOL    HW240830   3.208  11.918   5.423 -1.4571  1.6862 -0.7517
11665SOL     OW40831   0.819   5.543   0.611  0.3117  0.3640  0.4073
11665SOL    HW140832   0.913   5.536   0.598  0.3969  0.6251  0.8784
11665SOL    HW240833   0.786   5.579   0.528  0.5518 -0.2382  0.0412
11666SOL     OW40834   1.661  12.046  12.049 -0.5520  0.0811  0.1278
11666SOL    HW140835   1.724  11.984  12.012 -0.1478  1.4101 -1.5687
11666SOL    HW240836   1.576  12.014  12.021 -0.2337  1.3724 -2.6998
11667SOL     OW40837   2.199   0.813   6.369  0.3659 -0.1680 -0.2930
11667SOL    HW140838   2.198   0.799   6.464 -0.3714  0.5114 -0.1897
11667SOL    HW240839   2.114   0.853   6.350  1.1951  1.3695 -0.9797
11668SOL     OW40840  10.153  11.481  11.043 -0.4207  0.3718 -0.2219
11668SOL    HW140841  10.189  11.544  10.981 -0.2123  0.4482 -0.0235
11668SOL    HW240842  10.082  11.528  11.087 -0.3966  0.4036 -0.2161
11669SOL     OW40843   8.846  10.940  10.858  0.2998  0.5532 -0.9792
11669SOL    HW140844   8.894  11.010  10.903  0.0835  0.8042 -1.1369
11669SOL    HW240845   8.804  10.983  10.784  0.9219  0.0920 -1.6252
11670SOL     OW40846   0.570   7.585  11.654 -0.3409  0.4725  0.1489
11670SOL    HW140847   0.498   7.524  11.640 -0.7606  0.9178  0.3352
11670SOL    HW240848   0.539   7.668  11.617  0.1315  0.6369  0.1006
11671SOL     OW40849   9.200   0.443   8.183 -0.4169 -0.1358  0.4228
11671SOL    HW140850   9.220   0.371   8.123 -0.5904  0.0868  0.0971
11671SOL    HW240851   9.111   0.470   8.159  0.0995  1.0046 -0.2883
11672SOL     OW40852  11.800   0.125   7.005 -0.5147 -0.2176 -0.0611
11672SOL    HW140853  11.803   0.122   6.910 -0.2868  1.0231 -0.1054
11672SOL    HW240854  11.840   0.042   7.033 -1.1475 -0.8673 -1.0362
11673SOL     OW40855  10.150  10.197   4.782 -0.0746 -0.0708  0.4626
11673SOL    HW140856  10.232  10.168   4.823 -0.7249 -0.0407  1.8518
11673SOL    HW240857  10.083  10.181   4.848 -1.1615  0.1858 -0.5342
11674SOL     OW40858   5.925   5.764   1.161 -0.0922  0.1502 -0.1825
11674SOL    HW140859   5.962   5.820   1.229 -0.4156  0.0006  0.1209
11674SOL    HW240860   5.903   5.683   1.206 -0.8435  0.2584 -0.3434
11675SOL     OW40861   9.200  11.928   7.496 -0.0315 -1.2584  0.4413
11675SOL    HW140862   9.167  11.972   7.417  1.0187  0.1855  0.7535
11675SOL    HW240863   9.294  11.920   7.481  0.1222 -1.3082  1.3710
11676SOL     OW40864   9.316   4.621   6.786  0.7813 -0.0688  0.3733
11676SOL    HW140865   9.365   4.681   6.730 -0.6689  0.3990 -0.4154
11676SOL    HW240866   9.271   4.677   6.849  0.5976 -0.4300  0.5682
11677SOL     OW40867  10.786   9.153   3.835  0.2378 -0.4983  0.1950
11677SOL    HW140868  10.877   9.146   3.861  0.1467  0.7279  0.9168
11677SOL    HW240869  10.740   9.090   3.890  0.4552 -0.0649  0.8819
11678SOL     OW40870   1.152  10.821   8.034  0.3503 -0.0413 -0.7296
11678SOL    HW140871   1.200  10.742   8.058  0.3237 -0.0198 -0.6085
11678SOL    HW240872   1.128  10.861   8.117 -1.3870 -0.9576 -0.7358
11679SOL     OW40873   8.094   9.705   6.056 -0.2851  0.1328 -0.5145
11679SOL    HW140874   8.109   9.799   6.060 -3.7386  0.7609  1.3058
11679SOL    HW240875   8.063   9.688   5.967  0.2491  0.6903 -0.8125
11680SOL     OW40876   2.542  10.644   0.922 -0.0370  0.7126 -0.1330
11680SOL    HW140877   2.574  10.734   0.914 -0.2807  0.6730 -2.1847
11680SOL    HW240878   2.469  10.650   0.983  1.0790  1.5700  1.1745
11681SOL     OW40879   2.015  11.484  12.165  0.0437  0.1692  0.3703
11681SOL    HW140880   1.980  11.415  12.109  1.2871 -0.5418  0.4298
11681SOL    HW240881   2.066  11.437  12.232  0.3551  1.1111  0.8109
11682SOL     OW40882   1.052   4.155   6.724  0.0870  0.2584 -0.3018
11682SOL    HW140883   1.070   4.236   6.676 -0.3916  0.1421 -0.6783
11682SOL    HW240884   1.120   4.094   6.694  0.0469  0.3157 -0.5098
11683SOL     OW40885   4.020   3.356  11.549 -0.5374  0.4049  0.7243
11683SOL    HW140886   3.998   3.448  11.562 -0.3145  0.5305  0.2128
11683SOL    HW240887   4.047   3.325  11.636 -0.3350  0.8928  0.8370
11684SOL     OW40888   2.536   8.729   3.439  0.6695  0.0009 -0.1555
11684SOL    HW140889   2.499   8.708   3.525  1.8525  0.0063  0.3779
11684SOL    HW240890   2.630   8.740   3.455  0.6876  1.7311 -1.1227
11685SOL     OW40891   9.868  10.185   2.602  0.2645 -0.2121  0.0958
11685SOL    HW140892   9.848  10.110   2.546  0.9446 -1.8563  1.9124
11685SOL    HW240893   9.789  10.239   2.601 -0.6232 -1.4855 -0.4766
11686SOL     OW40894   6.378   1.390  12.099  0.7319  0.5256  0.4729
11686SOL    HW140895   6.344   1.476  12.124  1.0516  0.2570  1.9521
11686SOL    HW240896   6.403   1.350  12.182  0.3379 -1.1154 -0.1772
11687SOL     OW40897  10.510  10.882   6.447  0.4641  0.4068 -0.0343
11687SOL    HW140898  10.471  10.802   6.412  0.2360  0.9048 -0.9550
11687SOL    HW240899  10.601  10.878   6.419  0.9694 -0.4931  1.6500
11688SOL     OW40900   3.730   8.653   6.889 -0.4728 -0.3238 -0.9094
11688SOL    HW140901   3.647   8.638   6.843  0.0490 -0.5650 -1.7927
11688SOL    HW240902   3.732   8.586   6.957  0.1507 -2.0447 -2.5173
11689SOL     OW40903   0.456   3.293   5.693  0.1642 -0.3813 -0.1204
11689SOL    HW140904   0.440   3.345   5.615  1.0071 -0.1446 -0.1501
11689SOL    HW240905   0.492   3.211   5.661 -2.6271 -1.7032 -0.1873
11690SOL     OW40906  11.631   2.893  12.043  0.2899  0.0401  0.3324
11690SOL    HW140907  11.593   2.961  12.100  0.1077  0.3411 -0.1376
11690SOL    HW240908  11.706   2.935  12.002 -0.4892  0.3362 -0.8288
11691SOL     OW40909   8.376   9.384  11.304  0.3621 -0.1197  0.6537
11691SOL    HW140910   8.379   9.316  11.371  2.1327 -1.0372 -0.2854
11691SOL    HW240911   8.324   9.454  11.343  0.1690 -1.1977  2.4230
11692SOL     OW40912   8.335   9.271   8.913  0.4158  0.4919  0.2509
11692SOL    HW140913   8.415   9.303   8.872  0.9615 -0.1159  0.8201
11692SOL    HW240914   8.272   9.264   8.841  0.6748  1.5550 -0.1016
11693SOL     OW40915   5.770   7.705   7.079  0.9023  0.2307  0.2560
11693SOL    HW140916   5.860   7.728   7.054  0.9923 -0.1041  0.2658
11693SOL    HW240917   5.716   7.769   7.034  1.1366  0.3192  0.0975
11694SOL     OW40918   8.016   9.861   4.073  0.0859  0.3753 -0.5393
11694SOL    HW140919   7.958   9.934   4.098 -0.7772  0.3921 -2.4050
11694SOL    HW240920   8.087   9.902   4.024  0.4294  0.1098 -0.2673
11695SOL     OW40921   8.138   0.348  11.445  0.6284 -0.4448  0.5442
11695SOL    HW140922   8.158   0.440  11.428 -0.2224  0.0951  2.2712
11695SOL    HW240923   8.205   0.320  11.508  0.6868 -0.9230  0.2754
11696SOL     OW40924  12.255   1.359   8.037 -0.1980  0.1452 -0.1393
11696SOL    HW140925  12.177   1.364   7.981 -2.2268 -1.1193  2.4081
11696SOL    HW240926  12.298   1.277   8.012 -0.0488  0.4771 -1.0246
11697SOL     OW40927   8.944   3.919   1.822 -0.0984 -0.4874  0.9149
11697SOL    HW140928   8.947   3.869   1.741 -0.6594 -1.2026  1.3245
11697SOL    HW240929   8.956   4.010   1.795  0.1472 -0.7632  0.0815
11698SOL     OW40930   8.467   7.720   4.161 -0.0326  0.1862 -0.1615
11698SOL    HW140931   8.534   7.788   4.169  1.0608 -0.9844  1.1552
11698SOL    HW240932   8.515   7.638   4.166 -1.5111 -0.6988  0.1671
11699SOL     OW40933   3.040   2.321   0.019 -0.0250 -0.3978  0.4661
11699SOL    HW140934   2.973   2.388   0.033  0.4067  0.1999 -0.2160
11699SOL    HW240935   3.022   2.287  -0.069 -0.8049 -1.8571  1.1694
11700SOL     OW40936   4.600   7.023   2.750 -0.3128  0.1091  0.3761
11700SOL    HW140937   4.604   6.928   2.757 -3.0363 -0.1120 -0.2475
11700SOL    HW240938   4.633   7.041   2.662  0.1944 -0.2477  0.4874
11701SOL     OW40939  10.335   6.198   3.030 -0.2448  0.0699  0.1252
11701SOL    HW140940  10.380   6.145   3.097 -0.2835  1.4495  1.2928
11701SOL    HW240941  10.389   6.188   2.952 -1.1266 -2.9783 -0.2208
11702SOL     OW40942  11.789   0.367   5.234  0.3184 -0.6412 -0.0423
11702SOL    HW140943  11.794   0.374   5.139 -3.7067 -0.8158 -0.4530
11702SOL    HW240944  11.717   0.307   5.250 -1.1226  1.6268  3.0355
11703SOL     OW40945   1.105   5.398   1.449  0.9300  0.7729  0.2928
11703SOL    HW140946   1.046   5.471   1.430  1.1964  0.6149 -1.2690
11703SOL    HW240947   1.068   5.324   1.401  2.1352  0.5556 -0.3136
11704SOL     OW40948   7.978   1.701  10.168  0.0939 -0.3987  0.4863
11704SOL    HW140949   8.032   1.623  10.157 -0.2348 -0.5991  0.2963
11704SOL    HW240950   7.925   1.706  10.088 -1.6200 -1.3310  1.5188
11705SOL     OW40951   6.401   3.767   4.570  0.0279 -0.2740 -0.1115
11705SOL    HW140952   6.414   3.779   4.664 -0.8893 -0.1614  0.0113
11705SOL    HW240953   6.488   3.780   4.532  0.2333  0.6402  0.6298
11706SOL     OW40954   4.629   5.959   3.097  0.1444 -0.6845  0.2215
11706SOL    HW140955   4.641   6.005   3.179  0.2218 -1.9736  0.9577
11706SOL    HW240956   4.707   5.905   3.087 -0.3523 -1.3506 -0.1497
11707SOL     OW40957   3.166   3.902  10.136  0.2749 -0.0696 -0.2543
11707SOL    HW140958   3.168   3.808  10.155 -0.6624 -0.0100  0.1698
11707SOL    HW240959   3.174   3.908  10.041  0.6272 -0.5591 -0.2596
11708SOL     OW40960   9.069   2.550   0.866 -0.3373  0.1019 -0.3591
11708SOL    HW140961   9.096   2.639   0.889 -2.0938  0.7611 -0.6641
11708SOL    HW240962   9.059   2.506   0.951 -1.2035  0.7765 -0.0826
11709SOL     OW40963   8.189   0.208  12.047  0.0641 -0.4716 -0.9947
11709SOL    HW140964   8.124   0.145  12.016 -2.4732  0.9126  1.0656
11709SOL    HW240965   8.179   0.283  11.989 -0.0903 -0.3404 -0.8041
11710SOL     OW40966   4.780   0.278   1.874  0.2466  0.2513  0.0822
11710SOL    HW140967   4.740   0.356   1.913  1.5253  0.7653  0.4536
11710SOL    HW240968   4.754   0.206   1.931 -1.1137  0.3563 -0.3753
11711SOL     OW40969   9.200   1.352   5.076  0.0185 -0.0597  0.0851
11711SOL    HW140970   9.126   1.329   5.132 -1.1121 -1.6454 -1.9050
11711SOL    HW240971   9.266   1.285   5.094  0.1441  0.1459  0.3886
11712SOL     OW40972   4.528  10.328   6.121  0.0504  0.2599  0.3231
11712SOL    HW140973   4.490  10.281   6.047 -0.4167 -1.8563  1.8354
11712SOL    HW240974   4.526  10.420   6.094 -2.4667 -0.1661 -1.2472
11713SOL     OW40975   3.778   1.105  11.976 -0.3762 -0.2180 -0.0017
11713SOL    HW140976   3.687   1.105  12.004 -1.3868 -0.9804 -2.9905
11713SOL    HW240977   3.806   1.014  11.986  0.1353  0.0217  0.9525
11714SOL     OW40978   5.989  10.178   0.196 -0.2637  0.2683 -0.3605
11714SOL    HW140979   5.924  10.202   0.130  2.0590  0.7830 -2.6568
11714SOL    HW240980   6.044  10.256   0.205  0.4549 -0.3594  0.9357
11715SOL     OW40981   9.448  10.786   9.362  0.2250 -0.0902  0.7709
11715SOL    HW140982   9.513  10.730   9.320 -0.2409  0.6044 -1.0135
11715SOL    HW240983   9.440  10.752   9.451 -0.0097 -2.8294 -0.1953
11716SOL     OW40984   1.568   3.269   8.745 -0.0556 -0.0417  0.1514
11716SOL    HW140985   1.511   3.316   8.806 -2.1412  2.6981 -3.4820
11716SOL    HW240986   1.526   3.183   8.735 -1.0359  0.3394  0.7662
11717SOL     OW40987   0.792   4.521   8.629 -0.3870  0.2093 -0.3448
11717SOL    HW140988   0.747   4.487   8.706 -1.6693 -1.5003 -1.7688
11717SOL    HW240989   0.885   4.502   8.645 -0.6277 -0.0328  0.8114
11718SOL     OW40990   3.549   1.813   5.726  0.1531 -0.2519  0.3833
11718SOL    HW140991   3.523   1.897   5.763 -0.8297  0.4567 -1.7606
11718SOL    HW240992   3.627   1.834   5.674  1.1874 -1.1190  1.5297
11719SOL     OW40993  10.426   5.421   7.203  0.2805  0.4511  0.6514
11719SOL    HW140994  10.467   5.342   7.236  0.1727  0.3444  0.5296
11719SOL    HW240995  10.429   5.483   7.276 -0.4056  0.0548  1.0171
11720SOL     OW40996   7.693   6.194   2.519  0.4602  0.0282  0.3491
11720SOL    HW140997   7.660   6.161   2.435  0.4204  1.2135 -0.1189
11720SOL    HW240998   7.625   6.170   2.582  0.3821 -0.6698  0.0155
11721SOL     OW40999   8.063  10.357   7.036 -0.1493 -0.0264 -0.3915
11721SOL    HW141000   7.998  10.290   7.014  0.4767 -0.6406 -0.3744
11721SOL    HW241001   8.116  10.366   6.956  1.2196 -1.2184  0.3482
11722SOL     OW41002   2.295   1.563   9.933 -0.6667  0.6409 -0.3377
11722SOL    HW141003   2.339   1.640   9.971 -0.0495 -0.6897  1.8275
11722SOL    HW241004   2.361   1.494   9.939 -1.6358 -0.3666 -1.0761
11723SOL     OW41005   6.325   5.763  11.485 -0.5871  1.2017 -0.0862
11723SOL    HW141006   6.360   5.705  11.418 -0.6990 -0.0285  0.8804
11723SOL    HW241007   6.246   5.800  11.446 -0.5178  0.6988 -0.7199
11724SOL     OW41008   6.338   0.330   3.945 -0.1602  0.0871  0.3164
11724SOL    HW141009   6.325   0.358   3.855 -0.6400  1.2690  0.7325
11724SOL    HW241010   6.359   0.237   3.939 -1.9944 -0.2927 -0.8916
11725SOL     OW41011   9.191   7.929   8.176  0.2350 -0.1274  1.1093
11725SOL    HW141012   9.282   7.935   8.203  0.2017  0.6678  1.0672
11725SOL    HW241013   9.179   7.837   8.150  1.5388  0.1777 -0.7495
11726SOL     OW41014   1.616   4.024  11.969  0.4693 -0.0234 -0.3437
11726SOL    HW141015   1.540   4.015  11.912 -0.0024  0.0296  0.2736
11726SOL    HW241016   1.608   4.111  12.007  1.4194  0.4154 -1.1030
11727SOL     OW41017   2.866   4.236   7.844 -0.5801 -0.2555 -0.6177
11727SOL    HW141018   2.960   4.236   7.864 -0.4896  0.0028 -1.0493
11727SOL    HW241019   2.832   4.313   7.888 -0.5569 -0.2430 -0.6219
11728SOL     OW41020   9.409   3.729   7.473 -0.1445  0.3075 -0.9955
11728SOL    HW141021   9.322   3.693   7.493  0.2173  1.3583  3.4277
11728SOL    HW241022   9.469   3.656   7.488 -0.0104  0.5384 -0.4079
11729SOL     OW41023   9.350  11.233   8.217 -0.1172  0.2016  0.0320
11729SOL    HW141024   9.293  11.248   8.142  0.3256  0.6171 -0.2257
11729SOL    HW241025   9.384  11.144   8.204 -0.2044  0.1947 -0.1496
11730SOL     OW41026   4.732   0.283   7.553  0.5673  0.4323  0.5199
11730SOL    HW141027   4.718   0.334   7.632  0.1531  0.4391  0.4413
11730SOL    HW241028   4.659   0.307   7.496  0.8961  0.4761  0.1116
11731SOL     OW41029  11.747  10.994  10.361 -0.3124 -0.5391 -0.2467
11731SOL    HW141030  11.775  10.911  10.322  1.4237 -0.2377  0.2842
11731SOL    HW241031  11.653  10.982  10.378 -0.5745 -1.5803 -2.1681
11732SOL     OW41032   3.382   9.187   0.517  0.0368  0.3813  0.4571
11732SOL    HW141033   3.290   9.172   0.539  0.5464  0.8487  3.3020
11732SOL    HW241034   3.388   9.281   0.498 -0.1891  0.2046 -0.5291
11733SOL     OW41035   1.622   5.771   3.686 -0.5661  0.0863 -0.1265
11733SOL    HW141036   1.681   5.846   3.686 -0.5811  0.1125  0.7174
11733SOL    HW241037   1.668   5.705   3.738 -1.5854  0.3788  1.2179
11734SOL     OW41038   3.791  11.843   1.682  0.0523  0.1663 -0.6395
11734SOL    HW141039   3.870  11.816   1.634  0.4452  0.4924 -0.1876
11734SOL    HW241040   3.750  11.908   1.625 -1.0342 -1.5038 -1.8509
11735SOL     OW41041   3.264   8.578   6.545  0.3841  0.0099  0.2390
11735SOL    HW141042   3.183   8.629   6.555  0.4001 -0.0705  0.8397
11735SOL    HW241043   3.241   8.491   6.581  0.5939 -0.1582 -0.0354
11736SOL     OW41044   5.877   4.820   0.223 -0.4735 -0.3347  0.0696
11736SOL    HW141045   5.788   4.795   0.199 -1.1161  0.7249  1.2204
11736SOL    HW241046   5.886   4.792   0.314 -0.4777  1.6106  0.7151
11737SOL     OW41047   6.852   3.811   9.669 -0.0674 -0.8251 -0.3956
11737SOL    HW141048   6.891   3.724   9.656 -1.1415 -1.1848 -1.4180
11737SOL    HW241049   6.904   3.850   9.739  2.0919 -1.2818 -1.6471
11738SOL     OW41050   6.944   7.922   3.982  0.1989 -0.6614 -0.3676
11738SOL    HW141051   7.007   7.932   3.910 -0.0783  0.4114 -0.4888
11738SOL    HW241052   6.988   7.964   4.056  0.3164 -1.4118 -0.0066
11739SOL     OW41053   1.706   9.609   1.485 -0.0035 -0.1410 -0.3253
11739SOL    HW141054   1.795   9.576   1.474 -0.8389 -2.1213 -1.7191
11739SOL    HW241055   1.706   9.693   1.439  1.3878  0.3991  0.6064
11740SOL     OW41056  12.250   6.247   4.443 -1.1605  0.2070 -0.1663
11740SOL    HW141057  12.281   6.174   4.389 -0.4211  0.9041 -0.7017
11740SOL    HW241058  12.275   6.224   4.532  1.1899  0.8445 -0.5884
11741SOL     OW41059   1.839   4.147   6.697  0.0341 -0.0345  0.0826
11741SOL    HW141060   1.824   4.211   6.767  0.0850 -0.2084  0.2526
11741SOL    HW241061   1.864   4.200   6.621 -0.1149  0.1610  0.1698
11742SOL     OW41062   0.972  11.081   3.776 -0.0813  0.1325 -0.3866
11742SOL    HW141063   0.944  11.070   3.867  0.2903 -1.1579 -0.4050
11742SOL    HW241064   0.986  10.992   3.745 -0.8889  0.5100 -1.9374
11743SOL     OW41065   9.335   2.905   2.788 -0.9439 -0.1747 -0.6305
11743SOL    HW141066   9.308   2.819   2.757 -1.1198 -1.1008  1.8198
11743SOL    HW241067   9.256   2.959   2.781 -0.9261 -0.2989 -1.8710
11744SOL     OW41068   3.924   0.217   8.916  0.0624  0.5455  0.1437
11744SOL    HW141069   3.956   0.247   9.001 -0.2659 -2.5163  1.4938
11744SOL    HW241070   3.836   0.185   8.934  0.2767 -0.8697 -1.1585
11745SOL     OW41071  11.691  11.752  11.938 -0.3385  0.2190  0.3995
11745SOL    HW141072  11.608  11.778  11.898 -1.5017 -3.0124  0.4405
11745SOL    HW241073  11.700  11.812  12.013 -3.0253  0.2637  0.8049
11746SOL     OW41074   7.857   3.619   0.707  0.1088 -0.0528 -0.0209
11746SOL    HW141075   7.900   3.615   0.793  1.7711 -1.4971 -0.8528
11746SOL    HW241076   7.807   3.538   0.701  1.1657 -0.6707 -0.9426
11747SOL     OW41077   4.036   5.005  10.441 -0.1806 -0.1707 -0.1109
11747SOL    HW141078   3.991   5.083  10.472 -0.6441 -0.2815 -0.4905
11747SOL    HW241079   4.117   5.002  10.491 -0.6132  0.0153  0.6052
11748SOL     OW41080   8.694   3.965   5.000  0.2676 -0.1338  0.0455
11748SOL    HW141081   8.726   4.051   5.028  0.5481 -0.3235  0.2985
11748SOL    HW241082   8.644   3.984   4.920  1.4812  0.0944 -0.6819
11749SOL     OW41083   2.819  11.028   6.756  0.3057 -0.2940  0.7052
11749SOL    HW141084   2.823  10.938   6.724  0.1201 -0.3038  0.7087
11749SOL    HW241085   2.733  11.035   6.798  0.7913 -0.4791  1.7766
11750SOL     OW41086   5.357   5.542   0.167  0.4585  0.4064  0.5876
11750SOL    HW141087   5.400   5.460   0.141  1.9590  0.8522  1.5014
11750SOL    HW241088   5.343   5.532   0.261 -1.1275  0.4478  0.3721
11751SOL     OW41089   0.989  12.060   7.432  0.3182  0.2139 -0.2922
11751SOL    HW141090   1.045  11.984   7.413 -1.4893 -0.9343 -1.3490
11751SOL    HW241091   1.036  12.134   7.395  1.2583 -0.6715 -0.9317
11752SOL     OW41092   5.149   3.412   6.660 -0.4462  0.0803  0.4854
11752SOL    HW141093   5.195   3.394   6.578  0.0046  0.5294  0.6328
11752SOL    HW241094   5.090   3.485   6.640 -2.1824 -1.4125 -0.0800
11753SOL     OW41095   8.673   7.088   1.154 -0.1081 -0.4131  0.2505
11753SOL    HW141096   8.755   7.060   1.196  0.4292  0.4954 -0.1655
11753SOL    HW241097   8.681   7.183   1.146 -1.6691 -0.1718  1.1611
11754SOL     OW41098  11.244   4.479   5.301 -0.3471 -0.3036  0.1652
11754SOL    HW141099  11.337   4.455   5.304 -0.2369 -0.0969 -1.1692
11754SOL    HW241100  11.238   4.561   5.350  0.1704 -0.3156  0.2492
11755SOL     OW41101   1.669   1.298   0.818 -0.2583  0.5398  0.0757
11755SOL    HW141102   1.633   1.253   0.894  2.5864  0.2607  1.3443
11755SOL    HW241103   1.707   1.228   0.764 -1.0138  0.8811 -0.9357
11756SOL     OW41104   6.248   1.711   4.448  0.2581  0.2110  1.0171
11756SOL    HW141105   6.153   1.704   4.451  0.1167 -2.3024 -2.5480
11756SOL    HW241106   6.266   1.777   4.381  0.8505 -1.4206 -0.5172
11757SOL     OW41107  11.972  10.666   6.853 -0.2632  0.5428 -0.0437
11757SOL    HW141108  11.986  10.616   6.772  0.7197 -1.3808  1.2278
11757SOL    HW241109  11.913  10.611   6.905  1.1061  0.4647  1.5276
11758SOL     OW41110   7.428   7.632  10.736  0.9577  0.0220 -0.3732
11758SOL    HW141111   7.509   7.591  10.768  1.1489  0.1342 -0.7061
11758SOL    HW241112   7.396   7.683  10.810  0.7869 -0.6248  0.0082
11759SOL     OW41113   5.919   9.620   3.395  0.2478 -0.3452 -0.5532
11759SOL    HW141114   5.951   9.550   3.338 -0.2497 -1.5927  0.6683
11759SOL    HW241115   5.970   9.611   3.476 -1.1641 -0.5535  0.3516
11760SOL     OW41116   0.934   9.459   9.107  0.4838 -0.1789 -0.6126
11760SOL    HW141117   0.887   9.425   9.030 -0.8815 -2.2924  1.0238
11760SOL    HW241118   0.871   9.450   9.178  1.7282  1.6696  0.8040
11761SOL     OW41119   7.344   3.296   7.702  0.3088 -0.2504 -0.0186
11761SOL    HW141120   7.358   3.388   7.682 -0.0388 -0.3801 -0.8935
11761SOL    HW241121   7.429   3.265   7.733  1.0246 -0.1559 -1.7675
11762SOL     OW41122   3.810  12.039   7.370 -0.3572  0.2366  0.3449
11762SOL    HW141123   3.818  12.049   7.275  1.7670  1.9788  0.6307
11762SOL    HW241124   3.723  12.001   7.383 -0.6845 -0.0784 -2.2801
11763SOL     OW41125   7.178   2.697   3.713  0.7507 -0.1617  0.2895
11763SOL    HW141126   7.144   2.750   3.641  2.3591 -0.3862 -0.6872
11763SOL    HW241127   7.261   2.661   3.679  1.2589 -0.7435  2.0509
11764SOL     OW41128  11.371   1.793   6.074  0.1994 -0.8109  0.1791
11764SOL    HW141129  11.332   1.880   6.068  0.1166 -0.8612 -0.0161
11764SOL    HW241130  11.465   1.808   6.069  0.2157 -0.6774  0.7715
11765SOL     OW41131  12.151   2.650  10.734  0.6780 -0.2946  0.1362
11765SOL    HW141132  12.140   2.730  10.682  1.6764 -0.0617  0.2550
11765SOL    HW241133  12.063   2.616  10.744  0.1371  1.1845  0.6995
11766SOL     OW41134   7.062   2.681   0.788 -0.1505 -0.5724  0.3989
11766SOL    HW141135   7.061   2.768   0.827  1.2059 -1.1399  1.8287
11766SOL    HW241136   7.080   2.696   0.695  0.2541  0.6620  0.6677
11767SOL     OW41137   9.958   4.254   4.995 -0.1140 -0.2936  0.1017
11767SOL    HW141138   9.895   4.263   4.924 -0.7201  1.3198  0.7748
11767SOL    HW241139   9.963   4.160   5.012 -0.7640 -0.6093 -1.3346
11768SOL     OW41140   8.106  12.291  12.273  0.5348 -0.4179  0.3351
11768SOL    HW141141   8.164  12.349  12.323 -0.0136  1.6128 -1.2519
11768SOL    HW241142   8.164  12.249  12.209  0.3118  2.5181 -2.0733
11769SOL     OW41143   2.088   0.468   2.716 -0.7407  0.5180  0.4804
11769SOL    HW141144   2.026   0.516   2.772  2.0857  0.6309  3.8874
11769SOL    HW241145   2.145   0.422   2.778  1.4325 -1.1017 -2.4640
11770SOL     OW41146   2.747   6.442   7.838 -0.5246 -0.2661  0.2735
11770SOL    HW141147   2.711   6.413   7.922  0.3496 -1.1127  0.3749
11770SOL    HW241148   2.709   6.382   7.774 -1.3872  0.5350  0.0121
11771SOL     OW41149  10.401   0.550   2.025 -0.2727 -0.0594  0.3012
11771SOL    HW141150  10.345   0.627   2.018 -0.9892 -0.7026 -1.4077
11771SOL    HW241151  10.367   0.489   1.960  0.0497 -1.9900  1.8367
11772SOL     OW41152   1.826   3.721   4.566  0.4475 -0.4564 -0.5255
11772SOL    HW141153   1.881   3.791   4.531  0.5416 -0.4906 -0.4473
11772SOL    HW241154   1.747   3.723   4.512  0.9749 -1.1091 -1.3708
11773SOL     OW41155   2.785   3.626   9.740 -0.0776  0.0588  0.0285
11773SOL    HW141156   2.747   3.694   9.796  1.9121  1.5133 -0.2686
11773SOL    HW241157   2.810   3.556   9.800 -0.3653  0.4487  0.6131
11774SOL     OW41158   9.887   6.613   4.677  0.4804  0.3029  0.1175
11774SOL    HW141159   9.829   6.657   4.614  0.8420  0.7761  0.1047
11774SOL    HW241160   9.972   6.656   4.665  1.0379 -0.9142 -0.4138
11775SOL     OW41161  12.212  10.390   3.996 -0.3864 -0.2053  0.0970
11775SOL    HW141162  12.298  10.431   3.986  0.4673 -1.1487  2.8056
11775SOL    HW241163  12.189  10.361   3.907  1.0707  1.9142 -1.0774
11776SOL     OW41164  11.190   2.408   2.920 -0.5537  0.3837  0.0876
11776SOL    HW141165  11.257   2.475   2.911  0.1803 -0.3534 -0.0800
11776SOL    HW241166  11.221   2.335   2.866 -0.6288 -0.6204  1.3522
11777SOL     OW41167   8.197   2.092   4.787 -0.1004 -0.0326 -0.3765
11777SOL    HW141168   8.235   2.044   4.713 -0.5366 -0.6576 -0.2008
11777SOL    HW241169   8.121   2.040   4.813 -1.9435  1.8696 -1.6144
11778SOL     OW41170   0.495   6.671   6.637  0.7761  0.8757 -0.3669
11778SOL    HW141171   0.550   6.602   6.600 -0.0047 -0.4568  0.8631
11778SOL    HW241172   0.420   6.677   6.577  0.8686  0.6845 -0.5035
11779SOL     OW41173   1.526   7.362   8.181 -0.3471  0.5640  0.4836
11779SOL    HW141174   1.564   7.287   8.226  0.5750  0.5867 -0.2262
11779SOL    HW241175   1.602   7.409   8.145 -0.8725  1.9795  1.1180
11780SOL     OW41176  10.698   9.577  11.107 -0.0386 -0.0216 -0.8080
11780SOL    HW141177  10.648   9.648  11.147 -2.8523 -2.0906 -0.3467
11780SOL    HW241178  10.709   9.513  11.177  1.2632 -0.6381 -1.5441
11781SOL     OW41179   2.737   9.831   4.635 -0.3161  0.1475 -0.0680
11781SOL    HW141180   2.679   9.785   4.696 -0.9872 -0.3130 -1.0095
11781SOL    HW241181   2.723   9.924   4.654 -0.7252  0.0142  0.3039
11782SOL     OW41182  10.164   5.690   7.685  0.5308  0.0083 -0.2855
11782SOL    HW141183  10.259   5.676   7.693  0.3185 -1.0072  0.8029
11782SOL    HW241184  10.146   5.681   7.592  1.6091  1.0029 -0.6202
11783SOL     OW41185   0.386  11.059   1.247  0.1091  0.9042 -0.4438
11783SOL    HW141186   0.362  11.115   1.321 -2.6329 -0.0859 -0.4890
11783SOL    HW241187   0.445  10.994   1.285 -2.7368 -0.7632  1.4808
11784SOL     OW41188  11.305   7.413   5.271 -0.3082 -0.2638 -0.4404
11784SOL    HW141189  11.326   7.369   5.353 -0.1627 -0.4804 -0.5889
11784SOL    HW241190  11.286   7.341   5.210  0.5449 -0.1520 -0.8552
11785SOL     OW41191   0.326  12.023   2.219 -0.5332 -0.2507  0.1937
11785SOL    HW141192   0.382  11.970   2.162  1.5302 -0.7435  2.5244
11785SOL    HW241193   0.250  11.967   2.237  0.2844 -1.3215  0.3951
11786SOL     OW41194   9.170  11.337   9.642  0.2948  0.5353 -0.3908
11786SOL    HW141195   9.076  11.342   9.659 -0.2202  2.5023 -3.1682
11786SOL    HW241196   9.211  11.367   9.723 -1.4018 -0.4298  0.9026
11787SOL     OW41197   5.665   4.902   2.030  0.2816  0.2005 -0.0540
11787SOL    HW141198   5.711   4.984   2.009 -0.3515  1.0550  1.6560
11787SOL    HW241199   5.733   4.846   2.068  0.1464  1.1705  1.7447
11788SOL     OW41200   2.802   4.595   8.767  0.2100 -0.5946 -0.3385
11788SOL    HW141201   2.789   4.688   8.783  1.8166 -0.2729 -0.7042
11788SOL    HW241202   2.716   4.563   8.739 -0.4397  0.6959  0.0853
11789SOL     OW41203   3.389   1.063   6.317  0.7390 -0.1158 -0.0896
11789SOL    HW141204   3.480   1.037   6.301  1.0538  1.8793 -1.9518
11789SOL    HW241205   3.344   1.045   6.234 -0.8986 -2.1094  1.1319
11790SOL     OW41206  10.979   1.809  12.152 -0.8136  0.6559  0.1161
11790SOL    HW141207  10.890   1.843  12.143 -0.7858  0.8749  0.5891
11790SOL    HW241208  11.020   1.824  12.067 -1.6825 -0.8298 -0.5921
11791SOL     OW41209   7.166   8.304   1.903  0.5875 -0.8079 -0.3530
11791SOL    HW141210   7.195   8.392   1.879 -2.4946  0.3838 -0.1751
11791SOL    HW241211   7.197   8.292   1.993  1.1002  0.0553 -0.4065
11792SOL     OW41212   3.058  10.162   5.197  0.4643  0.6951 -0.1891
11792SOL    HW141213   3.115  10.234   5.171 -0.7344  1.6960 -0.1379
11792SOL    HW241214   2.976  10.204   5.222 -0.2804 -0.6992 -0.1871
11793SOL     OW41215   1.018   2.003   1.698  0.2577  0.0955 -0.0265
11793SOL    HW141216   0.955   2.067   1.667 -1.7426 -1.2068  1.0986
11793SOL    HW241217   0.990   1.920   1.658  0.9991 -0.5920  0.8117
11794SOL     OW41218   6.626   3.223   6.576  0.3686  0.1938  0.0176
11794SOL    HW141219   6.614   3.261   6.663  1.8235 -0.2487  0.4450
11794SOL    HW241220   6.608   3.295   6.515 -0.2116  0.6270  0.6898
11795SOL     OW41221  11.382   0.776   4.118 -0.1904  0.3429 -0.2684
11795SOL    HW141222  11.418   0.708   4.061  1.7290  0.0837  1.1629
11795SOL    HW241223  11.305   0.735   4.158 -0.0428 -0.3657 -0.6944
11796SOL     OW41224   2.308   2.424   9.935  0.1112  0.0191 -0.5574
11796SOL    HW141225   2.327   2.346   9.883 -0.4653 -1.3015  1.0995
11796SOL    HW241226   2.212   2.429   9.937  0.1012 -0.2060  0.6551
11797SOL     OW41227   6.250   3.108  10.455 -0.1450 -0.1564  0.2064
11797SOL    HW141228   6.292   3.038  10.405 -0.2737  0.3749 -0.6657
11797SOL    HW241229   6.262   3.082  10.547  2.2988  0.0893  0.0216
11798SOL     OW41230   5.199  11.899   1.858 -0.0299 -0.2976  0.9538
11798SOL    HW141231   5.232  11.863   1.940 -2.1619 -0.3672  1.8459
11798SOL    HW241232   5.104  11.905   1.870 -0.3240  0.5193 -1.1892
11799SOL     OW41233   3.401   1.734   9.606 -0.4907  0.3800 -0.1449
11799SOL    HW141234   3.399   1.640   9.591 -2.0955  0.1271  1.3081
11799SOL    HW241235   3.491   1.760   9.585 -0.2741 -1.2776 -1.4897
11800SOL     OW41236   1.112   8.253   5.369 -0.4486 -0.4226  0.1288
11800SOL    HW141237   1.117   8.179   5.430 -0.8311 -0.8564 -0.3579
11800SOL    HW241238   1.075   8.215   5.289 -1.5970  0.5027  0.2080
11801SOL     OW41239  12.028  12.164   5.495 -0.5210  0.2159  0.2063
11801SOL    HW141240  12.095  12.209   5.444  1.9456  0.5096  3.3878
11801SOL    HW241241  11.986  12.233   5.546 -1.0722 -0.3825  0.5864
11802SOL     OW41242   3.523   8.057   2.213  0.0429 -0.1007  0.1065
11802SOL    HW141243   3.580   8.091   2.144 -1.4592  2.1432 -0.1339
11802SOL    HW241244   3.474   8.133   2.244 -1.2887 -1.5399  1.7845
11803SOL     OW41245   7.665   5.774   2.962  0.1020  0.4751 -0.5787
11803SOL    HW141246   7.732   5.838   2.986  0.9144 -0.5348 -0.0607
11803SOL    HW241247   7.712   5.708   2.912 -0.3045 -0.7009  0.5388
11804SOL     OW41248   9.377   9.823   9.172 -0.0206  0.2887  0.0084
11804SOL    HW141249   9.332   9.884   9.230  0.3440  0.5133  0.0638
11804SOL    HW241250   9.432   9.879   9.117  0.6278 -0.0059  0.3344
11805SOL     OW41251   0.581   3.057   1.323  0.4276  0.2122  0.1256
11805SOL    HW141252   0.516   3.105   1.374 -0.4783  0.4037 -1.1624
11805SOL    HW241253   0.663   3.070   1.371  0.1743  2.7922  0.0008
11806SOL     OW41254  11.415  11.382   7.647  0.8906  0.3413  0.3799
11806SOL    HW141255  11.330  11.367   7.606 -0.0980  1.4725  1.8726
11806SOL    HW241256  11.477  11.384   7.574 -0.4901  0.3761 -0.8480
11807SOL     OW41257   2.160   3.693   5.286  0.4323  0.0645  0.1615
11807SOL    HW141258   2.239   3.720   5.333 -0.1017  0.6557  0.7461
11807SOL    HW241259   2.092   3.692   5.353 -0.9974  3.6923 -0.9910
11808SOL     OW41260   9.305   7.961   4.263  0.1929  0.2856  0.7457
11808SOL    HW141261   9.243   8.018   4.310 -2.0028  0.4247 -2.0434
11808SOL    HW241262   9.357   8.022   4.210 -0.1755 -0.0980 -0.0660
11809SOL     OW41263   8.948  11.379  11.282 -0.2112 -0.7852 -0.2941
11809SOL    HW141264   8.859  11.349  11.299 -0.6243 -0.3555 -1.5618
11809SOL    HW241265   9.004  11.309  11.315 -1.0105 -0.9967  0.6409
11810SOL     OW41266   0.735   1.693   4.821  0.1545  0.4354  0.0958
11810SOL    HW141267   0.790   1.748   4.764  1.8124 -1.7661 -0.5588
11810SOL    HW241268   0.775   1.699   4.907  1.8249 -1.5152 -0.4717
11811SOL     OW41269   0.701   6.138   8.746  0.0481 -0.4034 -0.1137
11811SOL    HW141270   0.781   6.167   8.789  0.9689 -0.9304 -1.4070
11811SOL    HW241271   0.635   6.140   8.815  0.3953  3.0329  0.3266
11812SOL     OW41272   8.077   3.481   7.946  0.5498 -0.2511 -0.3637
11812SOL    HW141273   8.114   3.395   7.926 -0.0660 -0.3344 -1.2454
11812SOL    HW241274   8.128   3.542   7.893  0.5632 -0.1578 -0.2434
11813SOL     OW41275   5.520  10.213   9.813  0.3061 -0.0786 -0.2395
11813SOL    HW141276   5.474  10.139   9.853 -0.0375  0.3116  0.0915
11813SOL    HW241277   5.555  10.178   9.731 -2.4576  0.1577 -1.6490
11814SOL     OW41278   8.431   7.033  11.034 -0.0128 -0.2591  0.1129
11814SOL    HW141279   8.437   7.117  11.079  0.7862  0.3190 -1.0272
11814SOL    HW241280   8.359   6.987  11.078 -0.5314  1.0521  0.6777
11815SOL     OW41281   9.440   1.813  11.586 -0.1511  0.5577 -0.2813
11815SOL    HW141282   9.518   1.818  11.531 -0.8237 -0.3638 -1.3611
11815SOL    HW241283   9.404   1.902  11.584  1.3656  1.2679  1.0572
11816SOL     OW41284   2.612   0.892   7.216  0.1219 -0.0302 -0.1881
11816SOL    HW141285   2.581   0.846   7.138 -0.3874  1.2913 -0.7987
11816SOL    HW241286   2.661   0.826   7.266  0.5463 -0.8708 -1.6719
11817SOL     OW41287   6.667   0.508   6.785 -0.4872 -0.3836 -0.4875
11817SOL    HW141288   6.722   0.578   6.749 -1.2543 -0.0618 -1.0833
11817SOL    HW241289   6.689   0.504   6.878 -1.8791  2.0807  0.0320
11818SOL     OW41290  10.873  10.577   5.402 -0.4967 -0.6946  0.3067
11818SOL    HW141291  10.777  10.575   5.405 -0.5161  0.8662  1.6563
11818SOL    HW241292  10.895  10.514   5.333 -2.4522 -1.5776  0.4089
11819SOL     OW41293   4.341   6.895   6.285 -0.0009  0.2595 -0.6470
11819SOL    HW141294   4.326   6.853   6.370 -0.4335  1.4821 -0.0809
11819SOL    HW241295   4.433   6.876   6.265  0.2959  0.4872  0.4205
11820SOL     OW41296   5.904   2.034   4.196 -0.4388  0.4242  0.2159
11820SOL    HW141297   5.826   2.000   4.151 -0.3464  0.7694 -0.2102
11820SOL    HW241298   5.904   1.990   4.281  0.9948 -2.4964 -1.1724
11821SOL     OW41299   4.711  10.599   0.840  0.1706 -0.3807  0.2114
11821SOL    HW141300   4.758  10.671   0.799 -1.0308  0.3651  0.0699
11821SOL    HW241301   4.626  10.598   0.796 -1.0460  0.2306  2.3917
11822SOL     OW41302   8.984   7.648   4.676 -0.1023 -0.1727 -0.3331
11822SOL    HW141303   8.895   7.657   4.640 -1.2690 -0.2811  2.2758
11822SOL    HW241304   9.020   7.737   4.673 -0.6642  0.0540 -0.5511
11823SOL     OW41305   6.612   5.070   0.571  0.3222  0.3997  0.1188
11823SOL    HW141306   6.539   5.112   0.615  0.1354  0.3338 -0.1308
11823SOL    HW241307   6.646   5.136   0.510  0.7175  0.5665  0.5094
11824SOL     OW41308  11.865   3.087   8.559  0.4814  1.0861  0.2841
11824SOL    HW141309  11.821   3.087   8.474  0.3079  0.1736  0.3711
11824SOL    HW241310  11.926   3.161   8.554 -0.7937  2.1636  0.0281
11825SOL     OW41311   8.482   1.528   7.208 -0.4505  0.4257  0.1673
11825SOL    HW141312   8.417   1.474   7.254 -1.8016  2.5592  0.9362
11825SOL    HW241313   8.560   1.523   7.264 -0.6699 -0.3912  0.4224
11826SOL     OW41314   1.745   7.624   2.234  0.5779  0.2123  0.1101
11826SOL    HW141315   1.665   7.578   2.206  1.6593 -0.8002 -1.4394
11826SOL    HW241316   1.779   7.571   2.306  0.0394  0.4810  0.5729
11827SOL     OW41317   6.417   3.254   8.220  0.2371 -0.5136 -0.2352
11827SOL    HW141318   6.363   3.260   8.141 -1.4421 -1.8061  0.7534
11827SOL    HW241319   6.505   3.234   8.187  0.5229  2.8844 -1.9561
11828SOL     OW41320   1.440   3.843   6.244  0.0734 -0.1614 -0.1268
11828SOL    HW141321   1.485   3.845   6.329  0.0184 -0.4234 -0.0897
11828SOL    HW241322   1.481   3.770   6.197 -0.0771 -0.1844 -0.2233
11829SOL     OW41323   8.445  11.812   1.581 -0.1414  0.3258  0.9802
11829SOL    HW141324   8.367  11.857   1.548  0.5645  0.8245 -0.0547
11829SOL    HW241325   8.518  11.867   1.553  0.8703 -1.9829 -1.3930
11830SOL     OW41326   0.690   7.360   0.574 -0.9698  0.1453 -0.0194
11830SOL    HW141327   0.740   7.442   0.569  0.7149 -0.8329 -0.2311
11830SOL    HW241328   0.755   7.295   0.603 -2.0712 -1.2676 -0.6193
11831SOL     OW41329   4.588   6.798   3.275  0.2411 -0.6924  0.4012
11831SOL    HW141330   4.571   6.868   3.337  0.1316 -0.2109 -0.1608
11831SOL    HW241331   4.683   6.788   3.273  0.3401  0.2427 -0.3701
11832SOL     OW41332   9.694   2.670   4.319  0.0178 -0.1312  0.2858
11832SOL    HW141333   9.672   2.698   4.230 -0.6888 -1.1280  0.1225
11832SOL    HW241334   9.704   2.575   4.312  1.2437 -0.0695  1.0271
11833SOL     OW41335   2.083   1.404   0.012  0.0334  0.1296 -0.1656
11833SOL    HW141336   2.034   1.361   0.082  0.4869 -0.1915 -0.0475
11833SOL    HW241337   2.053   1.495   0.014  0.1288  0.1454  0.5139
11834SOL     OW41338   0.151   1.667  10.284  0.2841  0.8658  0.4044
11834SOL    HW141339   0.151   1.718  10.203  0.4258  2.0974  1.1448
11834SOL    HW241340   0.078   1.606  10.275  0.8007  0.4132 -0.9787
11835SOL     OW41341   8.952   6.145   7.942 -0.3495 -0.0882 -0.5168
11835SOL    HW141342   8.911   6.230   7.925  0.4062  0.3599 -0.1639
11835SOL    HW241343   9.039   6.152   7.902  0.5958  0.1548  1.4240
11836SOL     OW41344   5.218   6.922  10.328  0.2017 -0.8232 -0.2434
11836SOL    HW141345   5.289   6.942  10.389  0.9730 -0.9021 -1.1030
11836SOL    HW241346   5.153   6.875  10.381  0.0773  0.5967  0.9151
11837SOL     OW41347   4.377   1.771   8.600  0.0793 -0.3532 -0.1785
11837SOL    HW141348   4.373   1.797   8.692 -0.4778  0.0328 -0.3093
11837SOL    HW241349   4.375   1.675   8.603  1.5397 -0.3860  0.2738
11838SOL     OW41350   9.655  12.271   3.156 -0.2682  0.1427 -0.0294
11838SOL    HW141351   9.633  12.356   3.194 -2.4923 -0.9436  1.2583
11838SOL    HW241352   9.742  12.284   3.118  0.5718  2.2928  2.3570
11839SOL     OW41353   7.331   7.387   5.806  0.3373  0.6067 -0.3489
11839SOL    HW141354   7.282   7.425   5.732  0.8720  0.1470 -0.9515
11839SOL    HW241355   7.418   7.368   5.770  0.3215 -0.4757  0.1432
11840SOL     OW41356   7.036   0.558   5.373 -0.2125 -0.1932  0.0934
11840SOL    HW141357   7.049   0.498   5.446 -0.1655 -1.8901 -1.2543
11840SOL    HW241358   7.031   0.502   5.296 -0.3801  1.5274 -1.2133
11841SOL     OW41359   5.563   9.321   8.296  0.2427  0.0797 -0.6050
11841SOL    HW141360   5.484   9.369   8.321  0.0153 -0.3387 -0.5077
11841SOL    HW241361   5.585   9.355   8.209 -0.4348 -0.2775 -0.9264
11842SOL     OW41362   3.057   9.894   3.409 -0.0349  0.4422 -0.3911
11842SOL    HW141363   3.121   9.965   3.414 -0.3300  0.6332  1.7249
11842SOL    HW241364   3.110   9.814   3.412  0.1449  0.5896  2.2502
11843SOL     OW41365   4.275   3.989  11.119 -0.3312 -0.0365  0.3227
11843SOL    HW141366   4.207   3.948  11.066 -0.5871  1.3019 -0.4198
11843SOL    HW241367   4.308   3.918  11.175  1.9790 -2.3693 -3.5482
11844SOL     OW41368  11.147   3.350  12.029 -0.8250  0.5272 -0.1967
11844SOL    HW141369  11.111   3.283  12.087  1.8015 -0.1704  0.7790
11844SOL    HW241370  11.121   3.433  12.070 -0.3430  0.0462  1.1562
11845SOL     OW41371   9.601  10.896   0.604 -0.2933  0.2095  0.2501
11845SOL    HW141372   9.619  10.962   0.671 -1.0356 -0.8314  1.5081
11845SOL    HW241373   9.507  10.878   0.611 -0.3638 -0.0051 -0.9948
11846SOL     OW41374   6.619  12.023   8.955 -0.5974  0.3819  0.3129
11846SOL    HW141375   6.678  11.996   9.025  1.3446  2.6316 -0.3243
11846SOL    HW241376   6.677  12.043   8.881 -2.4099  0.0641 -1.2566
11847SOL     OW41377  10.784   5.116   6.614 -0.0820  0.2395 -0.0217
11847SOL    HW141378  10.743   5.202   6.618 -0.9701 -0.1743  0.1155
11847SOL    HW241379  10.711   5.055   6.607  0.3634 -0.6804  2.2651
11848SOL     OW41380   8.798   5.166   9.518 -0.0390  0.4199 -0.2645
11848SOL    HW141381   8.719   5.158   9.573  0.2922 -0.2750  0.1274
11848SOL    HW241382   8.829   5.255   9.534  0.1873  0.1509  0.8882
11849SOL     OW41383  11.983   6.772   4.917  0.0344  0.0450  0.3472
11849SOL    HW141384  12.073   6.749   4.895 -0.8909 -3.6889 -0.2720
11849SOL    HW241385  11.934   6.759   4.836 -1.5320 -1.5815  1.4762
11850SOL     OW41386   5.410   5.084   1.027 -0.1537  0.0931  0.2346
11850SOL    HW141387   5.423   4.989   1.033 -0.7030 -0.0234 -0.2936
11850SOL    HW241388   5.321   5.098   1.060 -0.3693  0.3231 -0.4321
11851SOL     OW41389   9.413   9.842   4.204  0.2643  0.4318  0.1506
11851SOL    HW141390   9.486   9.817   4.147  0.0360  0.5818 -0.2117
11851SOL    HW241391   9.363   9.761   4.216 -0.2115  0.6025 -0.6358
11852SOL     OW41392   7.627  10.670   0.813  0.1238 -0.3793 -0.0476
11852SOL    HW141393   7.595  10.751   0.852 -0.5982 -1.1695  1.0790
11852SOL    HW241394   7.560  10.645   0.750  1.2648  0.8689 -1.8474
11853SOL     OW41395   0.647  10.117   7.884  1.1415  0.4643  0.4672
11853SOL    HW141396   0.732  10.074   7.871  1.8884  1.1230  2.6435
11853SOL    HW241397   0.657  10.203   7.843  1.2294  0.2324 -0.0001
11854SOL     OW41398   4.970   9.104  10.171 -0.0852 -0.0420  0.3712
11854SOL    HW141399   5.029   9.090  10.245  0.8685 -0.0604 -0.3743
11854SOL    HW241400   4.899   9.157  10.206  0.8803  0.8294  1.0575
11855SOL     OW41401   1.687   9.583   8.314  0.1008 -0.3604  0.3336
11855SOL    HW141402   1.769   9.537   8.328 -0.1254 -0.4119  1.6136
11855SOL    HW241403   1.620   9.525   8.351 -0.4171  0.0824  0.1171
11856SOL     OW41404   0.339   5.993   4.662  0.3773  0.5189 -0.0152
11856SOL    HW141405   0.263   6.023   4.612 -0.0640 -0.2916  0.1539
11856SOL    HW241406   0.312   5.999   4.753  0.2649 -0.4234  0.0193
11857SOL     OW41407   1.253   5.737   2.743 -0.5997  0.1526 -0.2203
11857SOL    HW141408   1.258   5.788   2.662  2.0352  0.7971  0.2641
11857SOL    HW241409   1.262   5.646   2.715  1.2481  0.4270 -0.6404
11858SOL     OW41410  10.182   5.478   2.782  0.5793  0.3357 -0.2584
11858SOL    HW141411  10.102   5.459   2.734 -0.4045  1.5564  0.8545
11858SOL    HW241412  10.248   5.423   2.740 -1.4872 -3.5134  1.0904
11859SOL     OW41413   0.891  12.240   8.105  0.3968  0.3780 -0.2736
11859SOL    HW141414   0.869  12.217   8.196  0.7421 -1.5864 -0.6330
11859SOL    HW241415   0.853  12.169   8.053  1.3129  0.7954 -1.5577
11860SOL     OW41416   6.960  12.082   2.903 -0.3607  0.2304 -0.6324
11860SOL    HW141417   6.984  11.995   2.932 -1.1662  0.7511  1.8009
11860SOL    HW241418   6.870  12.073   2.873  0.3437 -0.2226 -2.8035
11861SOL     OW41419   9.149   7.204   8.622 -0.3210  0.1445  0.1123
11861SOL    HW141420   9.208   7.186   8.548 -1.6240 -1.5996 -0.5835
11861SOL    HW241421   9.065   7.223   8.581 -0.9645 -0.3998  1.1463
11862SOL     OW41422  11.376   6.124   1.339  0.4123 -0.1100  0.3293
11862SOL    HW141423  11.377   6.028   1.349  0.9255  0.0185  1.7341
11862SOL    HW241424  11.465   6.151   1.362  0.0850  0.7554  0.6006
11863SOL     OW41425   5.310   7.560   6.635 -0.2843 -0.3717  0.1665
11863SOL    HW141426   5.293   7.534   6.545  0.2427  0.5421 -0.2117
11863SOL    HW241427   5.318   7.656   6.631  1.3637 -0.4393  0.8860
11864SOL     OW41428   0.367  12.134   0.329 -0.1911 -0.3334  0.2230
11864SOL    HW141429   0.379  12.196   0.402  0.8198  0.6026 -0.7043
11864SOL    HW241430   0.425  12.166   0.261 -0.5871 -1.6161 -0.7504
11865SOL     OW41431   2.372   0.487   8.837  0.5851  0.1586  0.1102
11865SOL    HW141432   2.455   0.529   8.861  0.5619  0.9225 -1.0525
11865SOL    HW241433   2.306   0.555   8.850  0.4134  0.1911 -0.8474
11866SOL     OW41434  11.281   3.797   2.082  0.4237 -0.4151 -0.1371
11866SOL    HW141435  11.373   3.815   2.102 -0.0279 -0.0230  1.7412
11866SOL    HW241436  11.269   3.705   2.105  0.1478 -0.2265  0.5147
11867SOL     OW41437   8.573   6.527   4.212  0.4410  0.1742  0.1623
11867SOL    HW141438   8.578   6.473   4.292  0.6275  0.5109  0.3825
11867SOL    HW241439   8.517   6.477   4.153 -0.9286  0.6192  1.0473
11868SOL     OW41440   8.233   2.447   9.482 -0.2686  0.1975 -0.4080
11868SOL    HW141441   8.221   2.396   9.401  0.5085 -0.2349 -0.2583
11868SOL    HW241442   8.144   2.458   9.516 -0.8303  1.9927 -2.2627
11869SOL     OW41443   3.704   7.636   8.478  0.1705 -0.2201  0.0338
11869SOL    HW141444   3.612   7.615   8.467  0.4199 -0.9288 -0.8633
11869SOL    HW241445   3.737   7.571   8.540  0.2087 -0.3882 -0.1615
11870SOL     OW41446   8.808   6.283   2.288 -0.0924 -0.0248 -0.0337
11870SOL    HW141447   8.818   6.200   2.336  1.3444  0.1087 -0.0739
11870SOL    HW241448   8.834   6.262   2.198  0.5039  0.5214  0.0099
11871SOL     OW41449   0.081   3.825   6.968  0.1311  0.0485 -0.9416
11871SOL    HW141450   0.168   3.786   6.958  0.0300 -0.3928 -0.1966
11871SOL    HW241451   0.091   3.887   7.041 -0.8497 -2.2085  1.2741
11872SOL     OW41452   6.686   4.320   8.105  0.0663  0.4952 -0.4339
11872SOL    HW141453   6.672   4.349   8.015  0.5641  0.8996 -0.3852
11872SOL    HW241454   6.717   4.230   8.097  0.2898  0.5916 -0.6817
11873SOL     OW41455   2.623   7.753   7.007 -0.0595  0.5510 -0.1615
11873SOL    HW141456   2.662   7.680   7.056  0.3066  0.7916 -0.0918
11873SOL    HW241457   2.698   7.801   6.973 -0.2285  1.9494  1.3004
11874SOL     OW41458   0.667   0.643   4.944 -0.0420  0.1849 -0.3121
11874SOL    HW141459   0.720   0.601   4.877 -1.0971 -0.0291 -1.0354
11874SOL    HW241460   0.623   0.571   4.989 -1.0630  0.4414 -0.8781
11875SOL     OW41461   4.380   6.182   8.776 -0.0868  0.5363 -0.0717
11875SOL    HW141462   4.436   6.220   8.708 -0.9267  0.6786 -0.6952
11875SOL    HW241463   4.435   6.116   8.818  0.1545 -0.1901 -1.4839
11876SOL     OW41464   2.080   4.768   5.804 -0.3202  0.7475 -0.2595
11876SOL    HW141465   2.052   4.858   5.824 -1.5361  0.3445 -0.0453
11876SOL    HW241466   2.027   4.742   5.729  0.4947  0.4280 -0.7353
11877SOL     OW41467   3.428   2.140   2.674  0.3022  0.0147  0.0830
11877SOL    HW141468   3.520   2.117   2.664  0.8947  1.8236  0.8301
11877SOL    HW241469   3.421   2.227   2.636 -0.4696  1.0472  2.3560
11878SOL     OW41470   1.957   8.886  10.682  0.2560  0.4762 -0.3352
11878SOL    HW141471   1.908   8.954  10.635  0.4263  0.6011 -0.3335
11878SOL    HW241472   2.028   8.863  10.622 -0.4039 -0.4492 -0.7878
11879SOL     OW41473   3.215   7.609   6.794  0.1685  0.2648  0.4394
11879SOL    HW141474   3.204   7.632   6.702  0.2254 -0.4125  0.2554
11879SOL    HW241475   3.138   7.557   6.816  0.6343 -0.4248  0.4867
11880SOL     OW41476  10.450  11.648   3.056  0.4767 -0.0919  0.3042
11880SOL    HW141477  10.362  11.617   3.031  0.5338 -0.7821  0.9307
11880SOL    HW241478  10.479  11.586   3.124  1.2472  0.4225  0.4537
11881SOL     OW41479   4.138   7.539   9.146  0.2530  0.6679 -0.2502
11881SOL    HW141480   4.178   7.459   9.112  1.3438  1.3802 -0.7340
11881SOL    HW241481   4.050   7.540   9.108 -0.7277 -1.5183  1.7292
11882SOL     OW41482  11.364   8.145   3.639  0.0817  0.4508  0.2156
11882SOL    HW141483  11.318   8.084   3.581  0.8417  0.4371 -0.3856
11882SOL    HW241484  11.454   8.112   3.642  0.5550  1.6418 -0.2761
11883SOL     OW41485   8.330   3.909   2.710  0.1295 -0.1862 -0.3180
11883SOL    HW141486   8.418   3.871   2.715  0.3590  0.3161 -0.4401
11883SOL    HW241487   8.341   3.999   2.741 -0.6058 -0.5191  1.0395
11884SOL     OW41488   9.833   6.231   5.974 -0.2618  0.0948 -0.1062
11884SOL    HW141489   9.853   6.192   6.059  1.4446  1.0376 -0.0279
11884SOL    HW241490   9.917   6.229   5.927 -0.4266  2.3933 -0.5909
11885SOL     OW41491   2.966   1.212  10.788  0.0147 -0.0940 -0.4735
11885SOL    HW141492   2.983   1.199  10.881  0.6025 -1.3400 -0.7251
11885SOL    HW241493   2.982   1.305  10.773 -0.0704  0.1136  0.6653
11886SOL     OW41494   3.891   3.933   4.573  0.3256 -0.1438  0.4162
11886SOL    HW141495   3.927   3.878   4.503 -0.1377  0.5954 -0.4244
11886SOL    HW241496   3.953   3.924   4.645  1.5300  0.1074 -0.5578
11887SOL     OW41497   3.794  11.176   5.498  1.0017  0.4120 -0.2590
11887SOL    HW141498   3.888  11.190   5.497  1.1868 -0.4935  1.4151
11887SOL    HW241499   3.764  11.211   5.414  2.9178 -0.0218 -1.1841
11888SOL     OW41500   1.616   2.707   0.446 -0.3523 -0.4591 -0.1266
11888SOL    HW141501   1.694   2.760   0.429 -1.1773  1.0920  0.7092
11888SOL    HW241502   1.629   2.628   0.393  2.5991 -1.0790  1.2906
11889SOL     OW41503   8.665   3.742   5.541  0.8566  0.0608 -0.4157
11889SOL    HW141504   8.638   3.811   5.481  0.8565 -0.9212 -1.5920
11889SOL    HW241505   8.720   3.684   5.489  2.1701  0.0009  0.9573
11890SOL     OW41506   5.223   4.022   1.898 -0.3493  0.1485  0.3224
11890SOL    HW141507   5.165   4.090   1.932  1.4270  2.0188 -0.1364
11890SOL    HW241508   5.173   3.979   1.829 -0.9995  2.0934 -0.4633
11891SOL     OW41509  10.739   6.530   8.316 -0.2898  0.2333  0.1733
11891SOL    HW141510  10.768   6.530   8.225  1.0838 -0.4305  0.5742
11891SOL    HW241511  10.767   6.614   8.351 -0.0692  0.1494  0.1991
11892SOL     OW41512   8.477   5.087   4.430  0.7109 -0.1403  0.3828
11892SOL    HW141513   8.472   5.018   4.364 -0.0971  0.4504 -0.1892
11892SOL    HW241514   8.449   5.044   4.511 -1.8715 -0.0252 -0.3533
11893SOL     OW41515  10.379   9.109   3.628 -0.5064 -0.0768  0.2864
11893SOL    HW141516  10.468   9.111   3.592 -0.7566 -1.1736 -0.4635
11893SOL    HW241517  10.325   9.077   3.555 -1.5694  0.8466  0.6401
11894SOL     OW41518   2.168   7.367   3.490  0.2259  0.0635  0.5160
11894SOL    HW141519   2.102   7.432   3.470  0.2836  0.1043  0.4584
11894SOL    HW241520   2.239   7.384   3.427  0.2977  0.0306  0.5873
11895SOL     OW41521   2.659   4.046   0.103 -0.2902 -0.2771  0.4832
11895SOL    HW141522   2.667   3.965   0.153  0.6319 -0.2222  0.4493
11895SOL    HW241523   2.575   4.038   0.057  0.4145 -1.8552 -0.6426
11896SOL     OW41524   0.271   9.901   2.434  0.0536  0.0068  0.1314
11896SOL    HW141525   0.327   9.835   2.394 -1.3964 -1.3400  0.2328
11896SOL    HW241526   0.316   9.926   2.515  0.8871 -0.4404 -0.1855
11897SOL     OW41527  10.865   0.293   2.883  0.3061  0.3741 -0.3085
11897SOL    HW141528  10.858   0.389   2.876 -0.1918  0.3226 -0.5721
11897SOL    HW241529  10.932   0.279   2.950  0.5125  0.9078 -0.3994
11898SOL     OW41530   5.239   1.330  12.264 -0.0652  0.1536  0.4706
11898SOL    HW141531   5.309   1.330  12.329 -0.6279  0.3397  1.1013
11898SOL    HW241532   5.203   1.241  12.267 -1.3130  0.6498  1.8160
11899SOL     OW41533   8.201   6.213   4.740  0.2425  0.6813  0.6079
11899SOL    HW141534   8.185   6.270   4.815 -1.0007 -1.5629  2.2199
11899SOL    HW241535   8.113   6.196   4.704  0.1580 -2.1140  1.8184
11900SOL     OW41536   5.963   0.133   4.188 -0.2256 -0.3272  0.4329
11900SOL    HW141537   6.038   0.154   4.244  0.0586  0.4315 -0.2072
11900SOL    HW241538   6.001   0.117   4.102 -0.8623  1.0149 -0.1250
11901SOL     OW41539   9.343  11.490  11.029  0.5233  0.4559 -0.4689
11901SOL    HW141540   9.386  11.409  11.056  1.1253  0.9977  0.2466
11901SOL    HW241541   9.280  11.508  11.098  1.2609  1.2393  0.0193
11902SOL     OW41542   0.843   7.389   2.533 -0.0420 -0.4790 -0.3051
11902SOL    HW141543   0.814   7.304   2.502 -0.0663 -0.9804  1.0220
11902SOL    HW241544   0.804   7.397   2.620  0.1310  0.8010 -0.3274
11903SOL     OW41545  11.793  10.510   6.028  0.4349 -0.4496 -0.8415
11903SOL    HW141546  11.728  10.471   5.969 -0.6693  0.3873 -0.2266
11903SOL    HW241547  11.863  10.540   5.970 -1.1578  1.4483 -1.9552
11904SOL     OW41548  10.597  10.088   5.126 -1.1055  0.2762  0.4824
11904SOL    HW141549  10.685  10.081   5.090 -2.1369 -1.2650 -1.9181
11904SOL    HW241550  10.607  10.062   5.218  1.0507  1.0750  0.5427
11905SOL     OW41551  10.520   6.011   0.157  0.4641  0.0776  0.2673
11905SOL    HW141552  10.585   5.944   0.182 -0.3004 -1.3912 -1.5040
11905SOL    HW241553  10.469   5.970   0.088 -2.5501  1.0947  1.7397
11906SOL     OW41554   5.727   5.177   7.540 -0.4938  0.3447 -0.0663
11906SOL    HW141555   5.739   5.116   7.467 -0.1230  1.6027 -1.1093
11906SOL    HW241556   5.681   5.127   7.607 -0.3517 -1.0096 -0.9538
11907SOL     OW41557   8.476   9.991   0.502  0.0127 -0.3014 -0.7913
11907SOL    HW141558   8.566   9.959   0.505  0.3238  0.5170 -1.0713
11907SOL    HW241559   8.457   9.999   0.409 -0.4364 -0.6836 -0.7368
11908SOL     OW41560   2.852  12.121   0.638  0.2143  0.6123  0.0922
11908SOL    HW141561   2.868  12.154   0.726 -1.1743  1.1103  0.1793
11908SOL    HW241562   2.777  12.172   0.606  0.4641  0.1870 -1.2347
11909SOL     OW41563   1.053   4.735   8.486 -0.1270 -0.3657 -0.7835
11909SOL    HW141564   1.020   4.796   8.552 -1.4754  0.1780 -1.8994
11909SOL    HW241565   1.037   4.648   8.523  1.1633 -0.0883  0.5177
11910SOL     OW41566  10.256  10.293   8.802  0.1864  0.0899  0.1961
11910SOL    HW141567  10.313  10.258   8.871  0.7514  0.6967  0.0472
11910SOL    HW241568  10.285  10.249   8.722  1.3704  1.3646 -0.1156
11911SOL     OW41569   0.143   5.427  12.148  0.3614  0.3334 -0.3855
11911SOL    HW141570   0.169   5.520  12.148  0.5331  0.3610 -2.9721
11911SOL    HW241571   0.049   5.429  12.135  0.2270  0.1181  0.4733
11912SOL     OW41572  10.262   1.977   8.773  0.0451 -0.1404 -0.0941
11912SOL    HW141573  10.355   1.991   8.752  0.3887 -2.4659 -0.3781
11912SOL    HW241574  10.242   2.045   8.837  1.2391  1.9796 -1.8385
11913SOL     OW41575   3.648  11.500  12.076  0.4390  0.2541  0.0265
11913SOL    HW141576   3.582  11.516  12.009  1.4481  0.8363 -0.8611
11913SOL    HW241577   3.705  11.433  12.038  2.3612  2.2090 -0.7352
11914SOL     OW41578   8.773   8.417  11.067  0.0229  0.2148  0.5670
11914SOL    HW141579   8.866   8.430  11.054  0.5564 -2.4354  1.1636
11914SOL    HW241580   8.743   8.371  10.989 -0.5135 -0.0401  0.9096
11915SOL     OW41581  11.711   4.389   0.933 -0.0051 -0.6028  0.7476
11915SOL    HW141582  11.700   4.368   1.025  0.7125 -2.2206  0.4955
11915SOL    HW241583  11.805   4.380   0.917  0.6634  3.9041  0.8001
11916SOL     OW41584   1.688   7.295   4.587 -0.4595  0.4041 -0.5477
11916SOL    HW141585   1.604   7.315   4.547 -0.5232  0.6408 -0.2965
11916SOL    HW241586   1.698   7.200   4.575 -0.8177  0.3563 -0.4677
11917SOL     OW41587   4.034   3.156   9.035 -0.2269  0.2888  0.0019
11917SOL    HW141588   4.118   3.195   9.059  0.5458 -1.6056  0.5425
11917SOL    HW241589   3.993   3.221   8.978  1.3847  1.4528  0.0930
11918SOL     OW41590  11.037   6.664   3.768  0.4684 -0.2291 -0.0102
11918SOL    HW141591  10.989   6.581   3.767  0.1510 -0.0558 -1.1850
11918SOL    HW241592  10.972   6.728   3.796  0.9941 -0.4950  1.9968
11919SOL     OW41593   3.884   5.236   5.545 -0.3539 -0.1186 -0.7661
11919SOL    HW141594   3.810   5.186   5.580 -0.0629 -0.1571 -0.2106
11919SOL    HW241595   3.938   5.170   5.502 -0.2057 -0.2135 -0.4328
11920SOL     OW41596   4.571   3.228   0.525  0.1689  0.9001  0.3770
11920SOL    HW141597   4.594   3.178   0.603 -1.4152 -0.7808 -0.1596
11920SOL    HW241598   4.620   3.185   0.455 -1.5715 -0.3075 -0.1685
11921SOL     OW41599   4.918   1.473   9.299  0.5909 -0.1163  0.1237
11921SOL    HW141600   4.976   1.548   9.314  1.1523 -0.5770  0.2868
11921SOL    HW241601   4.898   1.478   9.205 -0.0823  0.7372  0.3050
11922SOL     OW41602   1.077  11.880   2.861 -0.4302  0.1027 -0.5141
11922SOL    HW141603   1.002  11.940   2.856 -0.2130  0.4106 -0.1990
11922SOL    HW241604   1.081  11.839   2.775 -1.1481 -0.1469 -0.4339
11923SOL     OW41605   1.063   4.274   2.338 -0.1740 -0.0842  0.5804
11923SOL    HW141606   0.992   4.268   2.401  0.6383  0.5688  1.5771
11923SOL    HW241607   1.127   4.333   2.378  0.8842 -0.5649 -0.3361
11924SOL     OW41608   2.992   3.642   6.982  0.6740 -0.6973  0.0424
11924SOL    HW141609   3.027   3.723   6.945 -2.0720  1.1406  1.1453
11924SOL    HW241610   3.054   3.618   7.051  2.2421 -0.3485 -1.1917
11925SOL     OW41611   5.433   8.910   1.857  0.5710  0.0470  0.2578
11925SOL    HW141612   5.392   8.898   1.771 -0.0159 -1.4932  0.7220
11925SOL    HW241613   5.412   9.000   1.880  1.4078  0.7445 -1.5451
11926SOL     OW41614   9.408   9.809  10.910  0.7736  0.0593 -0.0426
11926SOL    HW141615   9.376   9.771  10.992  1.3171  0.3891  0.3231
11926SOL    HW241616   9.469   9.744  10.876  1.9023  0.6889  0.7132
11927SOL     OW41617  11.766   8.063   9.893 -0.2218 -0.5579 -0.0037
11927SOL    HW141618  11.845   8.067   9.947  1.0402  1.0614 -1.8460
11927SOL    HW241619  11.694   8.067   9.956  1.1190 -1.7025  1.7077
11928SOL     OW41620   5.412  10.144   4.424 -0.1251 -0.4030 -0.1243
11928SOL    HW141621   5.450  10.181   4.503 -2.5862  0.4739  0.7369
11928SOL    HW241622   5.434  10.206   4.355  1.7899 -1.0321 -0.1381
11929SOL     OW41623   7.430   3.331   5.224 -0.2311  0.2065 -0.5017
11929SOL    HW141624   7.436   3.421   5.193  0.3813  0.6235  0.7425
11929SOL    HW241625   7.435   3.277   5.145 -0.9550  1.2612 -1.2914
11930SOL     OW41626   7.693   2.575  10.228  0.0542 -0.7694  0.2443
11930SOL    HW141627   7.650   2.493  10.207 -0.8003 -0.5952  1.2404
11930SOL    HW241628   7.706   2.572  10.323 -0.4893  0.4705  0.3745
11931SOL     OW41629   5.892   4.057   8.909  0.0342 -0.0503  0.1537
11931SOL    HW141630   5.864   4.017   8.991  1.1345 -2.1563 -0.4296
11931SOL    HW241631   5.938   3.987   8.863 -0.0057  1.2634 -1.9945
11932SOL     OW41632   0.756   7.730  12.154 -0.9588 -0.8652 -0.6107
11932SOL    HW141633   0.746   7.676  12.077 -1.2650 -0.2778 -0.9910
11932SOL    HW241634   0.697   7.804  12.140 -0.6913 -0.5267 -0.0196
11933SOL     OW41635   5.315   4.324   5.491  0.6624  0.5604 -0.2209
11933SOL    HW141636   5.406   4.347   5.511  1.2967 -1.0514 -1.0795
11933SOL    HW241637   5.268   4.342   5.573  1.4524  2.7177 -0.1750
11934SOL     OW41638   9.553   8.733   7.399 -0.1438  0.0124  0.1997
11934SOL    HW141639   9.571   8.823   7.425  0.0586  0.1967 -0.5560
11934SOL    HW241640   9.628   8.683   7.431  0.4939  0.3644 -0.7011
11935SOL     OW41641   4.400   3.513   9.480 -0.0629  0.8171 -0.3892
11935SOL    HW141642   4.320   3.473   9.516  0.6176 -0.5634 -0.3534
11935SOL    HW241643   4.471   3.465   9.523  0.7801  1.6303 -0.8666
11936SOL     OW41644   3.110   2.885   8.817 -0.2946  0.2707  0.0870
11936SOL    HW141645   3.145   2.947   8.881 -2.7993  0.6187  1.2469
11936SOL    HW241646   3.176   2.817   8.811  1.2374  1.6121  0.9695
11937SOL     OW41647   0.367   9.387  10.186 -0.5862 -0.2312  0.6127
11937SOL    HW141648   0.363   9.327  10.261 -0.1914  1.0201  1.6621
11937SOL    HW241649   0.416   9.463  10.218 -2.2801  1.2887 -0.2510
11938SOL     OW41650  10.836   0.940   9.607 -0.7934  0.2578 -0.0984
11938SOL    HW141651  10.864   0.933   9.699  0.3097  1.3176 -0.3291
11938SOL    HW241652  10.913   0.918   9.556 -1.4357 -0.4404 -0.8042
11939SOL     OW41653   4.594   5.519   7.837  0.2905 -0.3729  0.0736
11939SOL    HW141654   4.681   5.546   7.867 -0.2706  3.6743 -1.2802
11939SOL    HW241655   4.540   5.520   7.916  1.0698 -1.0354  0.6265
11940SOL     OW41656   8.403  10.838   6.078  0.0459 -0.0399  0.3884
11940SOL    HW141657   8.385  10.835   6.172 -1.3902  1.0461  0.1741
11940SOL    HW241658   8.332  10.890   6.041 -0.6419 -2.2208 -1.5950
11941SOL     OW41659   4.305   9.123  11.993  0.2976  0.2152 -0.0900
11941SOL    HW141660   4.238   9.055  11.987  2.2663 -1.7605 -1.0848
11941SOL    HW241661   4.294   9.174  11.914 -1.4004  1.3504  0.8111
11942SOL     OW41662   8.025   1.469   9.733  0.2903 -0.2021  0.5278
11942SOL    HW141663   7.977   1.451   9.814 -0.1560 -0.8191  0.1297
11942SOL    HW241664   7.961   1.456   9.663  0.7364  0.0929  0.0594
11943SOL     OW41665   6.267   7.588  11.946  0.1294 -0.3342 -0.2292
11943SOL    HW141666   6.341   7.640  11.979  2.2617 -3.2769  0.0245
11943SOL    HW241667   6.216   7.650  11.894  3.0931  1.7910 -0.9122
11944SOL     OW41668   6.307   9.380   9.185 -0.1996 -1.1030 -0.8171
11944SOL    HW141669   6.233   9.441   9.193  0.1395 -0.5704 -1.5765
11944SOL    HW241670   6.335   9.363   9.275 -0.7518 -0.6938 -0.5632
11945SOL     OW41671   7.796   3.433   1.726  0.4849 -1.1523 -0.0314
11945SOL    HW141672   7.728   3.366   1.720 -0.8169  0.1687 -0.6561
11945SOL    HW241673   7.825   3.431   1.817 -2.5757  0.2586  1.0958
11946SOL     OW41674   5.481  11.188   3.472 -0.4531  0.1114  0.2545
11946SOL    HW141675   5.456  11.131   3.544 -3.0979 -1.7639 -1.9326
11946SOL    HW241676   5.518  11.129   3.406 -1.1945  1.2294 -1.2118
11947SOL     OW41677   0.134   7.643   1.251 -0.7169 -0.4258  0.3626
11947SOL    HW141678   0.219   7.672   1.220 -1.2588 -0.5094 -1.3240
11947SOL    HW241679   0.150   7.612   1.340  0.7073  0.9280  0.6180
11948SOL     OW41680  11.404   9.440  10.544 -0.2858 -0.8307 -0.1909
11948SOL    HW141681  11.459   9.445  10.622 -0.8930  0.7058  0.1902
11948SOL    HW241682  11.321   9.481  10.571  0.4994  2.6667 -2.4125
11949SOL     OW41683   8.941   7.390   7.022  0.3816  0.3823 -0.3242
11949SOL    HW141684   8.932   7.318   6.959 -1.3370  0.0939  0.2050
11949SOL    HW241685   8.992   7.353   7.094 -0.8822 -0.4807  0.1549
11950SOL     OW41686   5.840   0.922   4.737 -0.4247 -0.5529 -0.1365
11950SOL    HW141687   5.864   0.976   4.812  3.9268 -0.8637 -1.0308
11950SOL    HW241688   5.853   0.832   4.767  1.6191 -0.6753 -1.1936
11951SOL     OW41689   2.396  10.424   3.971 -0.0430  0.8968  0.1138
11951SOL    HW141690   2.374  10.407   4.062  2.6980 -0.3528  0.6480
11951SOL    HW241691   2.370  10.344   3.925  0.0578  0.8929  0.0652
11952SOL     OW41692   4.466  12.100   3.392  0.2905  0.5978  0.7282
11952SOL    HW141693   4.406  12.070   3.324  0.0349  0.8399  0.8433
11952SOL    HW241694   4.524  12.161   3.348  1.7232 -1.0871  0.1636
11953SOL     OW41695  10.505   8.647   2.970  0.5046 -0.2456 -0.4069
11953SOL    HW141696  10.452   8.717   2.930  1.1493  2.5544  3.1106
11953SOL    HW241697  10.590   8.655   2.926 -0.0074 -0.2528 -1.4490
11954SOL     OW41698   0.734   9.458   9.297 -0.1048 -0.2169  0.1869
11954SOL    HW141699   0.755   9.397   9.367  1.5283  0.4973  0.3479
11954SOL    HW241700   0.714   9.540   9.342  1.7073  0.4641 -0.1562
11955SOL     OW41701  11.777  10.554   3.549 -0.4403  0.8677  0.0224
11955SOL    HW141702  11.776  10.542   3.454  0.6308 -0.9444  0.1823
11955SOL    HW241703  11.776  10.465   3.585 -2.2316  1.5098  1.7738
11956SOL     OW41704   0.170  11.550   5.107 -0.2875 -0.0779 -0.1383
11956SOL    HW141705   0.095  11.491   5.095  0.4333 -1.2047  0.7151
11956SOL    HW241706   0.134  11.638   5.094 -1.8016 -0.5868  0.4674
11957SOL     OW41707   0.563   7.862   8.676  0.2764  0.8600 -0.3143
11957SOL    HW141708   0.590   7.887   8.588  1.1455  1.8893  0.2159
11957SOL    HW241709   0.474   7.894   8.684  0.3980  1.2803 -0.6180
11958SOL     OW41710   4.873   3.903   9.223 -0.2581 -0.0232  0.4411
11958SOL    HW141711   4.804   3.944   9.275 -0.8695 -2.2001  1.4687
11958SOL    HW241712   4.827   3.867   9.147 -0.3496 -1.7205  1.2670
11959SOL     OW41713   5.314   6.861   8.958 -0.7175 -0.4297 -0.0240
11959SOL    HW141714   5.373   6.787   8.943 -0.2859 -0.2118  0.5699
11959SOL    HW241715   5.370   6.938   8.950 -0.5668 -0.2763  2.0788
11960SOL     OW41716   0.676   9.988  12.221 -0.1264  0.0002 -0.3122
11960SOL    HW141717   0.606  10.046  12.188 -1.8485 -1.1541  1.1188
11960SOL    HW241718   0.690   9.925  12.150 -1.4469 -0.4829 -0.1770
11961SOL     OW41719   7.909  10.849   3.796  0.4159  0.5233 -0.3574
11961SOL    HW141720   7.985  10.807   3.755  1.3809  0.1734  1.6155
11961SOL    HW241721   7.898  10.931   3.749  1.1473 -0.0482 -1.5758
11962SOL     OW41722   2.587   1.386  11.128  0.4224  0.1478  0.2336
11962SOL    HW141723   2.670   1.345  11.103  0.7460  0.7019  0.3799
11962SOL    HW241724   2.522   1.317  11.118  0.9800 -0.4361  0.6017
11963SOL     OW41725   2.895   9.947  12.274 -0.0053 -0.2373  0.2744
11963SOL    HW141726   2.988   9.969  12.276  0.0436 -0.4723  0.6354
11963SOL    HW241727   2.854  10.014  12.329  0.1962 -1.2699  1.7353
11964SOL     OW41728   7.371  11.439   6.419 -0.0144 -0.1701 -0.6923
11964SOL    HW141729   7.319  11.439   6.338  1.3461  0.9145 -1.6222
11964SOL    HW241730   7.431  11.512   6.408  0.7274 -0.4901  0.9873
11965SOL     OW41731   8.042   3.362   3.954  0.2004 -0.2630 -0.0956
11965SOL    HW141732   8.025   3.354   4.048  0.0243  2.1048  0.1365
11965SOL    HW241733   8.133   3.392   3.949  0.0327  0.1856 -0.6311
11966SOL     OW41734   3.127  11.067   8.131  0.0290  0.1650  0.0786
11966SOL    HW141735   3.133  11.015   8.211  0.2462  2.4074  1.5965
11966SOL    HW241736   3.045  11.115   8.139 -0.5292 -0.4039 -1.6436
11967SOL     OW41737   4.384  11.243   5.944 -0.2219 -0.7187 -0.2155
11967SOL    HW141738   4.387  11.158   5.901 -0.6113 -1.8514  1.8717
11967SOL    HW241739   4.292  11.258   5.962 -0.4106  1.1377 -2.2774
11968SOL     OW41740   9.208  11.435   6.950  0.3011  0.2162  0.3060
11968SOL    HW141741   9.212  11.365   6.885  0.0059 -0.6353  1.1741
11968SOL    HW241742   9.219  11.390   7.034  0.8010  1.3019  0.8437
11969SOL     OW41743   5.683   1.232   0.090 -0.1563  0.1593  0.1057
11969SOL    HW141744   5.606   1.275   0.127 -0.0991  1.8506 -1.5610
11969SOL    HW241745   5.733   1.304   0.050  2.0982 -0.9296  0.7811
11970SOL     OW41746   3.881   0.840   9.203  0.1201  0.0886  0.5035
11970SOL    HW141747   3.956   0.781   9.209  2.1539  2.3429 -0.9569
11970SOL    HW241748   3.855   0.855   9.294  0.7717 -1.4684  0.9965
11971SOL     OW41749   9.963   6.605   0.583  0.4365  0.2604  0.0061
11971SOL    HW141750  10.013   6.524   0.588 -1.4059 -0.8739  1.4083
11971SOL    HW241751   9.909   6.596   0.504  2.5086  1.6113 -1.6741
11972SOL     OW41752   9.017  11.617   7.035  0.0965  0.4145 -0.1244
11972SOL    HW141753   9.069  11.540   7.013 -0.3007  0.4259 -1.1536
11972SOL    HW241754   8.976  11.642   6.953 -0.9977  0.8094  0.5230
11973SOL     OW41755  11.814  11.562   3.125  0.2555 -0.2916  0.3926
11973SOL    HW141756  11.779  11.518   3.047  0.0872 -0.9540  0.8379
11973SOL    HW241757  11.765  11.644   3.130  0.8608  0.1629 -0.6801
11974SOL     OW41758   3.450  11.832   3.755 -0.3295  0.2504 -0.2510
11974SOL    HW141759   3.447  11.911   3.810  0.6336 -0.6560  1.1605
11974SOL    HW241760   3.406  11.765   3.807 -1.4936 -0.0905 -1.6029
11975SOL     OW41761  10.731   9.321   7.139  0.0337 -0.0648 -0.0758
11975SOL    HW141762  10.667   9.299   7.206 -1.0594  2.3572 -0.2577
11975SOL    HW241763  10.739   9.241   7.087 -1.2261 -1.0848  1.2178
11976SOL     OW41764   2.152   7.252  11.383 -0.4190 -0.0810 -0.3529
11976SOL    HW141765   2.159   7.307  11.461 -0.8969 -1.5980  0.8062
11976SOL    HW241766   2.199   7.301  11.316 -0.9161  1.7877  0.5715
11977SOL     OW41767   4.551   3.538   7.077 -0.0995  0.1479 -0.1756
11977SOL    HW141768   4.538   3.443   7.074 -0.0078  0.0252  1.9739
11977SOL    HW241769   4.467   3.574   7.051 -1.2730 -0.5982  2.2173
11978SOL     OW41770   0.567   3.859   4.567  0.5230  0.0247  0.2634
11978SOL    HW141771   0.518   3.939   4.587  1.2099  0.0795  1.8246
11978SOL    HW241772   0.526   3.826   4.487  0.5232  2.1732 -0.6881
11979SOL     OW41773   2.428   2.851   1.387  0.2967  0.0943  0.1058
11979SOL    HW141774   2.344   2.828   1.426  0.9772  1.3002  2.4870
11979SOL    HW241775   2.486   2.777   1.407  0.0199 -0.4144 -0.9049
11980SOL     OW41776   3.093   1.381  11.467 -0.0929 -0.0010  0.0565
11980SOL    HW141777   3.049   1.329  11.535  1.0427  0.4814  1.2026
11980SOL    HW241778   3.021   1.411  11.411 -1.1246 -0.1017  1.2569
11981SOL     OW41779   7.149   6.647   6.238  0.0765  0.2734 -0.4518
11981SOL    HW141780   7.088   6.592   6.287  0.9230  0.7547  1.2083
11981SOL    HW241781   7.220   6.588   6.212  0.4003  0.3277  0.2950
11982SOL     OW41782   3.286  10.682   2.861 -0.0696  0.1910  0.1344
11982SOL    HW141783   3.247  10.616   2.917 -0.8132  1.0760  0.6844
11982SOL    HW241784   3.283  10.763   2.913  1.8958  0.4415 -0.0559
11983SOL     OW41785   3.218   9.307   0.741 -0.3867 -0.3835 -0.2331
11983SOL    HW141786   3.184   9.364   0.671 -0.1266 -0.0586 -0.0974
11983SOL    HW241787   3.176   9.223   0.725  1.5127 -1.0484 -2.3000
11984SOL     OW41788   8.597   1.104   1.633 -0.0925 -0.0618  0.6742
11984SOL    HW141789   8.559   1.142   1.553 -0.8225 -0.1609  0.9607
11984SOL    HW241790   8.522   1.094   1.692  0.7165  1.9805  2.1807
11985SOL     OW41791  10.633   4.118   2.386  0.3064  0.3384 -0.1842
11985SOL    HW141792  10.593   4.192   2.339  2.2713  0.3057 -2.0296
11985SOL    HW241793  10.599   4.040   2.342 -1.5687  0.0601  1.6034
11986SOL     OW41794   2.520   8.591   8.659 -0.1098 -0.1336 -0.0812
11986SOL    HW141795   2.485   8.502   8.653  0.5195 -0.5367  1.5222
11986SOL    HW241796   2.612   8.579   8.682 -0.4067  0.8748  1.9400
11987SOL     OW41797   7.547   1.546  11.416 -0.3885 -0.3567 -0.5210
11987SOL    HW141798   7.560   1.512  11.328 -0.8814  0.7411 -1.0345
11987SOL    HW241799   7.487   1.484  11.457  0.3876 -1.2576 -0.7067
11988SOL     OW41800   4.033   1.599  10.371  0.2524  0.0363  0.5543
11988SOL    HW141801   3.973   1.626  10.301  0.2691  1.1316  0.9360
11988SOL    HW241802   4.120   1.613  10.335  0.3776 -2.7209 -0.4548
11989SOL     OW41803   8.924   8.472   8.579  0.2674  0.3646  0.2769
11989SOL    HW141804   8.918   8.483   8.674  1.1438 -1.3569  0.5875
11989SOL    HW241805   9.013   8.437   8.565  0.5348  1.5491 -1.2936
11990SOL     OW41806   3.218   0.384   0.843  0.2527  0.1644 -0.5136
11990SOL    HW141807   3.280   0.457   0.833 -0.0909  0.5094 -0.1939
11990SOL    HW241808   3.227   0.334   0.762 -0.0383  0.9795 -1.0686
11991SOL     OW41809   5.004  10.416  10.690  0.1827  0.1898 -0.3742
11991SOL    HW141810   5.079  10.463  10.725 -0.3450  0.8008 -0.0363
11991SOL    HW241811   4.975  10.469  10.615 -2.3508  2.2470  1.8616
11992SOL     OW41812   6.121  12.013   4.446  0.4604  0.4483  0.1475
11992SOL    HW141813   6.140  12.066   4.369 -0.4291 -1.0018 -1.1241
11992SOL    HW241814   6.149  11.925   4.423  0.1510 -0.0318  1.4784
11993SOL     OW41815   0.087   2.720   1.212  0.1081 -0.5143  0.2725
11993SOL    HW141816   0.127   2.634   1.196  0.8580 -0.0961 -0.1409
11993SOL    HW241817   0.058   2.749   1.125  0.5566 -0.0101  0.2869
11994SOL     OW41818   9.921   9.359   8.909 -0.2466 -0.0587 -0.1162
11994SOL    HW141819   9.886   9.270   8.921 -1.3572  0.5854  1.7326
11994SOL    HW241820  10.013   9.345   8.885 -0.5597 -1.7024 -0.4952
11995SOL     OW41821   6.740   0.311   9.067 -0.2129  0.2611 -0.0502
11995SOL    HW141822   6.729   0.218   9.050 -0.3676  0.1968  0.3859
11995SOL    HW241823   6.732   0.353   8.981  0.5318 -0.1857 -0.3382
11996SOL     OW41824   9.380   0.876   8.213  0.0545  0.1123  0.2438
11996SOL    HW141825   9.339   0.941   8.271 -1.2866 -0.4659 -0.0212
11996SOL    HW241826   9.307   0.827   8.177  0.9763 -0.6269 -0.6672
11997SOL     OW41827   6.245  12.221  11.841 -0.2903  0.3064 -0.4495
11997SOL    HW141828   6.203  12.289  11.788  1.5480  1.2725 -0.7717
11997SOL    HW241829   6.316  12.189  11.785 -1.8750 -2.9040 -0.8486
11998SOL     OW41830  11.262   1.976   7.223  0.1663 -0.0947  0.0079
11998SOL    HW141831  11.181   2.010   7.261  0.2931 -1.2016  1.3744
11998SOL    HW241832  11.320   2.052   7.217 -0.5912  0.4939  0.1012
11999SOL     OW41833  10.730   0.643   1.401  0.1832  0.0320 -0.2237
11999SOL    HW141834  10.658   0.581   1.387 -1.3751  2.4000 -4.1792
11999SOL    HW241835  10.795   0.620   1.335  0.9620  0.7424  0.2809
12000SOL     OW41836   7.003  10.885  10.948 -0.1831 -0.0519 -0.1582
12000SOL    HW141837   7.085  10.858  10.988 -0.1611  0.7408  0.3371
12000SOL    HW241838   6.937  10.829  10.990  0.0017 -0.1453  0.0099
12001SOL     OW41839   4.353   5.374   6.192 -0.3563  0.0667  0.4704
12001SOL    HW141840   4.364   5.450   6.248  0.5570 -1.3240  2.2872
12001SOL    HW241841   4.291   5.318   6.239  0.9804 -1.4631  0.4937
12002SOL     OW41842  10.081   0.436   6.678 -0.0632  0.0871  0.3053
12002SOL    HW141843  10.076   0.344   6.702  0.2279  0.5475  2.2394
12002SOL    HW241844  10.151   0.472   6.733 -0.3798  1.5270 -0.1910
12003SOL     OW41845   9.044   8.277   5.674  0.2210 -0.7378  0.3122
12003SOL    HW141846   9.033   8.185   5.698 -0.7299 -0.2744  1.7687
12003SOL    HW241847   9.043   8.324   5.757 -3.2561  0.9842 -0.5198
12004SOL     OW41848   5.919  11.840   6.283 -0.9626  0.1023 -0.0494
12004SOL    HW141849   5.829  11.808   6.285 -0.7637 -0.5155 -0.5423
12004SOL    HW241850   5.922  11.898   6.208 -0.0602 -2.7537 -2.4101
12005SOL     OW41851   2.159   8.952   8.184  0.2959  0.2781 -0.1044
12005SOL    HW141852   2.115   8.901   8.115  1.2912 -1.9738  0.8197
12005SOL    HW241853   2.108   8.934   8.263  1.5272 -0.5461  0.5334
12006SOL     OW41854  11.283   6.720   6.226  0.1927  0.2616  0.5735
12006SOL    HW141855  11.270   6.662   6.150 -1.7401  0.1300  0.9401
12006SOL    HW241856  11.367   6.694   6.263  1.5584  0.7955 -1.8926
12007SOL     OW41857  10.602   9.337   0.008  0.4080  0.1468  0.8134
12007SOL    HW141858  10.593   9.253  -0.037 -1.8225  0.2489  0.9254
12007SOL    HW241859  10.613   9.402  -0.061 -0.0444 -0.0247  0.5752
12008SOL     OW41860   7.807  10.500   4.666  0.1270 -0.0171  0.3615
12008SOL    HW141861   7.816  10.438   4.739  1.6506 -2.2378 -1.5824
12008SOL    HW241862   7.897  10.518   4.639 -0.3896  1.3245 -0.5427
12009SOL     OW41863   4.858   7.229   0.080  0.2769  0.6191  0.0362
12009SOL    HW141864   4.822   7.317   0.071  0.7776  0.9114  0.7915
12009SOL    HW241865   4.952   7.242   0.093  0.6495 -0.1246 -1.6287
12010SOL     OW41866   9.957  11.193   7.241  0.5588  0.0188  0.0158
12010SOL    HW141867   9.884  11.254   7.230 -0.7598 -1.8009 -2.5314
12010SOL    HW241868   9.940  11.151   7.325 -0.9112  0.2120 -0.1568
12011SOL     OW41869   9.376   8.910   4.633  0.0232 -0.6085  0.5587
12011SOL    HW141870   9.321   8.968   4.580 -0.4440 -1.7147 -0.1967
12011SOL    HW241871   9.314   8.853   4.679  0.5083 -1.3588  0.2915
12012SOL     OW41872   8.144   1.673   3.655 -0.2766 -0.2858 -0.2344
12012SOL    HW141873   8.201   1.661   3.731 -0.0330  1.5555 -0.0953
12012SOL    HW241874   8.161   1.595   3.601  1.4229 -0.4116  0.3994
12013SOL     OW41875   9.686   5.046   8.413  0.3233 -0.4310  0.3262
12013SOL    HW141876   9.736   5.128   8.418 -1.5544  0.7313  1.2007
12013SOL    HW241877   9.680   5.027   8.320  1.9203 -0.3391  0.1737
12014SOL     OW41878   3.768   6.460  11.350  0.1804  0.4679 -0.5256
12014SOL    HW141879   3.710   6.401  11.400  2.0334 -1.9687 -1.0743
12014SOL    HW241880   3.754   6.435  11.259  1.1275  0.7602 -0.7559
12015SOL     OW41881   8.903   3.744   4.149 -0.0043  0.2632 -0.1509
12015SOL    HW141882   8.852   3.796   4.088 -1.8996  0.3741  1.4253
12015SOL    HW241883   8.952   3.809   4.200 -1.2189  0.4703  0.8120
12016SOL     OW41884  11.923   0.034   5.718  0.0110 -0.4767 -0.4663
12016SOL    HW141885  11.891  -0.027   5.784 -1.8472  1.8366  0.9711
12016SOL    HW241886  11.982   0.092   5.766  1.1753 -0.6731 -1.6180
12017SOL     OW41887   7.554   0.911   0.998 -0.5965 -0.2071 -0.2146
12017SOL    HW141888   7.583   0.876   1.082  1.2149  1.0358 -0.2805
12017SOL    HW241889   7.581   0.844   0.934  1.2966  0.4526 -0.1589
12018SOL     OW41890   0.645   7.705   2.708 -0.1438  0.5933 -0.1786
12018SOL    HW141891   0.591   7.739   2.637 -1.5627 -0.7666  0.1930
12018SOL    HW241892   0.632   7.610   2.705  1.8316  0.2592  0.2787
12019SOL     OW41893   1.395   8.660   2.702 -0.1044 -0.2196 -0.3572
12019SOL    HW141894   1.450   8.636   2.777 -2.3146  1.8763  2.1205
12019SOL    HW241895   1.454   8.709   2.645  1.0406  0.5583  1.4051
12020SOL     OW41896   7.797   2.663   4.194 -0.5952 -0.1211 -0.2747
12020SOL    HW141897   7.846   2.631   4.118 -0.3954 -0.9151  0.1788
12020SOL    HW241898   7.747   2.737   4.161 -0.7356 -0.6369 -1.2605
12021SOL     OW41899   3.084   1.257   9.083 -0.2940 -0.1435  0.2490
12021SOL    HW141900   3.028   1.334   9.069 -2.7510 -1.9049 -0.1337
12021SOL    HW241901   3.166   1.279   9.038 -1.1198  2.0204 -0.3178
12022SOL     OW41902   7.701  11.858   6.160  0.3430 -0.3984  0.6146
12022SOL    HW141903   7.645  11.780   6.167  0.1537 -0.2533  0.7087
12022SOL    HW241904   7.653  11.926   6.206 -1.1084  0.7174 -2.2992
12023SOL     OW41905   5.480  10.949   2.011 -0.4558  0.3094  0.2830
12023SOL    HW141906   5.469  10.980   1.921  0.3353  1.2771  0.5085
12023SOL    HW241907   5.455  10.857   2.007 -1.3249  0.5608 -0.7359
12024SOL     OW41908   4.896   4.188   9.977 -0.3706  0.1502  0.4297
12024SOL    HW141909   4.903   4.282   9.996  0.1885  0.1076  0.4554
12024SOL    HW241910   4.837   4.183   9.901  0.0348  0.5618  0.0841
12025SOL     OW41911  11.619  11.822   5.335  0.4430  0.6181  0.2585
12025SOL    HW141912  11.613  11.744   5.280  3.2901  0.8511 -0.5446
12025SOL    HW241913  11.582  11.892   5.281 -0.6255  0.1479  0.3488
12026SOL     OW41914   3.315  10.163   6.926  0.0651 -0.1237  0.3280
12026SOL    HW141915   3.351  10.236   6.876 -0.7289 -0.1530 -0.3026
12026SOL    HW241916   3.234  10.139   6.880  0.1766 -1.2299  0.6798
12027SOL     OW41917  10.075   0.235   0.017  0.3176 -0.0560  0.4963
12027SOL    HW141918  10.120   0.297  -0.040  0.8107 -0.4364  0.4640
12027SOL    HW241919  10.065   0.156  -0.036  3.3378 -1.4337  1.7675
12028SOL     OW41920   1.285   5.683   9.552  0.0871 -0.3361  0.0328
12028SOL    HW141921   1.319   5.742   9.619  1.3062 -0.5483 -0.3782
12028SOL    HW241922   1.339   5.699   9.475 -0.4858 -0.9827 -0.5215
12029SOL     OW41923   8.761   0.468   6.842 -0.2863 -0.0696 -0.1728
12029SOL    HW141924   8.747   0.561   6.860 -2.4547 -0.5936  1.2725
12029SOL    HW241925   8.679   0.426   6.868  1.4536 -2.6979  1.5053
12030SOL     OW41926   1.822   3.662   1.218 -0.0571 -0.0981 -0.6522
12030SOL    HW141927   1.798   3.625   1.133  1.5058  0.8291 -1.5286
12030SOL    HW241928   1.782   3.749   1.219  0.0497 -0.0501 -0.4879
12031SOL     OW41929   9.087   8.284   4.586  0.3790 -0.1839 -0.4530
12031SOL    HW141930   9.022   8.223   4.621  0.5022 -0.4505 -0.6818
12031SOL    HW241931   9.116   8.335   4.662  1.0129 -1.0902 -0.0621
12032SOL     OW41932   0.637   3.915   7.500 -0.3365  0.8247 -0.1402
12032SOL    HW141933   0.671   3.856   7.567  0.7661  1.8776  0.2716
12032SOL    HW241934   0.550   3.941   7.531 -0.9172 -0.6931 -0.4260
12033SOL     OW41935   7.497   8.659  11.484 -0.1302  0.3350 -0.0167
12033SOL    HW141936   7.416   8.708  11.473 -0.8237 -0.4619  1.2250
12033SOL    HW241937   7.499   8.638  11.578  0.8507 -0.7734 -0.2658
12034SOL     OW41938   8.337   0.863   5.511  0.3948 -0.2713  0.4994
12034SOL    HW141939   8.260   0.867   5.567 -0.4005 -2.3354 -0.3508
12034SOL    HW241940   8.387   0.942   5.533 -2.7816  2.1581 -0.1814
12035SOL     OW41941   7.865   1.194   6.716  0.1191  0.1199 -0.3505
12035SOL    HW141942   7.778   1.233   6.729  0.4539  0.7788 -0.0408
12035SOL    HW241943   7.926   1.264   6.738  0.7374 -0.6235  0.3851
12036SOL     OW41944   4.666   3.389   1.821 -0.0493  0.1010  0.3218
12036SOL    HW141945   4.735   3.428   1.767  0.7888 -0.6307  0.8101
12036SOL    HW241946   4.712   3.362   1.901 -0.6199 -1.6178  0.1099
12037SOL     OW41947  11.598   7.891   6.955  0.0555  0.0819  0.5016
12037SOL    HW141948  11.687   7.897   6.921 -0.0831  2.1457  0.3750
12037SOL    HW241949  11.545   7.862   6.881  0.4373  0.0545  0.2396
12038SOL     OW41950   1.032   3.815   2.845 -0.4946 -0.2645  0.1715
12038SOL    HW141951   1.002   3.843   2.932  0.9186  0.0040  0.5930
12038SOL    HW241952   0.969   3.748   2.818 -2.2455  1.1844  0.4285
12039SOL     OW41953   2.564  11.993  10.882  0.6899  0.4926 -0.1755
12039SOL    HW141954   2.638  12.045  10.913 -0.0973  1.2384  0.5115
12039SOL    HW241955   2.588  11.969  10.792  3.9287 -3.3694  1.3995
12040SOL     OW41956   5.941   0.179   6.599 -0.0243 -0.1512 -0.1124
12040SOL    HW141957   5.905   0.097   6.564 -0.5722  0.2166 -0.4313
12040SOL    HW241958   5.961   0.232   6.521 -0.6369  0.4198  0.1102
12041SOL     OW41959   7.226   6.879   9.304  0.0671  0.2954  0.4061
12041SOL    HW141960   7.170   6.956   9.289  1.2176  1.2439  0.8037
12041SOL    HW241961   7.252   6.887   9.396 -1.0834 -1.4835  0.9354
12042SOL     OW41962   9.040  11.380   0.773  0.1531 -0.3451  0.2784
12042SOL    HW141963   8.948  11.405   0.780  0.1290 -0.4167  0.2150
12042SOL    HW241964   9.053  11.366   0.679  0.3125 -0.0083  0.2481
12043SOL     OW41965   8.442   9.226   7.809  0.5166 -0.1816 -0.1696
12043SOL    HW141966   8.367   9.249   7.753 -0.5183 -0.8510  0.8851
12043SOL    HW241967   8.471   9.309   7.845 -1.1304 -0.1068  1.0965
12044SOL     OW41968   5.758   6.720   4.697 -0.0132 -0.4354  0.0210
12044SOL    HW141969   5.708   6.695   4.775  1.3214  2.3946  1.9973
12044SOL    HW241970   5.831   6.659   4.695 -1.0425 -1.7120 -0.1700
12045SOL     OW41971  11.398   5.019  12.068 -0.3708  0.0483 -0.1829
12045SOL    HW141972  11.448   4.958  12.013 -0.6655 -1.0385  0.7065
12045SOL    HW241973  11.461   5.086  12.092  0.4775 -0.8761  0.2730
12046SOL     OW41974   2.302   4.708   5.977  0.2243  0.2023  0.3925
12046SOL    HW141975   2.301   4.740   6.068  0.6933  0.3745  0.3397
12046SOL    HW241976   2.225   4.748   5.938 -0.9012 -1.1657  1.1439
12047SOL     OW41977   7.132   7.422   5.584  0.1765 -0.1819 -0.4121
12047SOL    HW141978   7.125   7.338   5.628  0.4751 -0.1444 -0.2879
12047SOL    HW241979   7.079   7.412   5.505  0.8000 -0.7354 -0.7712
12048SOL     OW41980   6.260   1.645  12.148  0.3107  0.0283  0.6335
12048SOL    HW141981   6.184   1.656  12.206  0.1198 -1.0409  0.5976
12048SOL    HW241982   6.224   1.606  12.069  0.7415  0.5043  0.1958
12049SOL     OW41983   7.767  11.813   1.494 -0.3167 -0.0609  0.1209
12049SOL    HW141984   7.719  11.732   1.509  0.5044 -0.6810 -0.4859
12049SOL    HW241985   7.725  11.852   1.417  0.8336 -1.1905 -1.1337
12050SOL     OW41986   6.367   0.492   3.155  0.3779  0.3961  0.3331
12050SOL    HW141987   6.368   0.397   3.148 -0.5921  0.3580  0.6356
12050SOL    HW241988   6.423   0.510   3.232 -0.9426 -0.0579  1.4393
12051SOL     OW41989   5.011  10.863   7.734 -0.2582  0.1385  0.8404
12051SOL    HW141990   5.058  10.781   7.748  0.9040  0.5345 -0.4839
12051SOL    HW241991   5.080  10.928   7.718 -1.2037  0.8438 -0.6907
12052SOL     OW41992   1.205   5.557   2.375 -0.5388  0.0275 -0.0239
12052SOL    HW141993   1.232   5.500   2.303  0.0042 -0.8150  0.8317
12052SOL    HW241994   1.220   5.505   2.454 -1.0167  0.9812  0.7107
12053SOL     OW41995   2.686   5.470   1.494 -0.3556 -0.5206  0.1883
12053SOL    HW141996   2.752   5.512   1.439 -0.9981  1.4390  0.8229
12053SOL    HW241997   2.617   5.536   1.503 -0.4052 -0.8192  3.0840
12054SOL     OW41998  11.004   7.238  12.107 -0.2644 -0.2462  0.4422
12054SOL    HW141999  10.992   7.310  12.044  0.4252 -0.9973 -0.5821
12054SOL    HW242000  11.067   7.180  12.065 -2.5301 -2.6908  0.1466
12055SOL     OW42001  10.720   6.776   8.567  0.1763 -0.0405  0.6944
12055SOL    HW142002  10.786   6.708   8.583  0.3543 -0.1307 -0.3827
12055SOL    HW242003  10.718   6.787   8.472  0.0408  1.3713  0.8362
12056SOL     OW42004   6.872   7.767   8.631 -0.4218 -0.2987  0.0585
12056SOL    HW142005   6.862   7.860   8.654 -0.5885 -0.4394  0.5741
12056SOL    HW242006   6.890   7.767   8.537  0.6864  0.3169  0.2608
12057SOL     OW42007   9.341   3.313   0.266 -0.1212  0.1489 -0.6491
12057SOL    HW142008   9.375   3.360   0.342  0.1449 -0.8598 -0.1220
12057SOL    HW242009   9.288   3.377   0.219  2.0900  1.6365 -1.2275
12058SOL     OW42010  11.370   8.166   0.938  0.4858  0.3653  0.4055
12058SOL    HW142011  11.433   8.115   0.989  0.8161 -1.0676 -1.3512
12058SOL    HW242012  11.417   8.189   0.858 -0.5691  1.0400 -0.0402
12059SOL     OW42013   7.587  10.522   5.794 -0.2320 -0.3685  0.4038
12059SOL    HW142014   7.586  10.429   5.771  0.3527 -0.3321  0.2229
12059SOL    HW242015   7.679  10.543   5.804 -0.2039  0.7112 -1.6713
12060SOL     OW42016  10.301  11.699   1.983  0.2455 -0.3104 -0.3669
12060SOL    HW142017  10.214  11.684   2.019 -0.0830 -2.2870 -1.8012
12060SOL    HW242018  10.294  11.675   1.891  1.3996  3.2089 -1.5325
12061SOL     OW42019   0.998   3.730   8.728 -0.5971 -0.4162 -0.2138
12061SOL    HW142020   0.932   3.790   8.762  0.5577  1.2798 -0.8496
12061SOL    HW242021   0.952   3.683   8.658 -1.6174 -0.5487  0.5127
12062SOL     OW42022   7.465  12.311   7.800  0.2139  0.0381 -0.3869
12062SOL    HW142023   7.468  12.277   7.889 -1.6164  1.4015  0.2590
12062SOL    HW242024   7.526  12.256   7.751 -2.2307 -3.9748  0.6107
12063SOL     OW42025   9.917  11.020   3.062 -0.7225 -0.5015 -0.7680
12063SOL    HW142026   9.854  11.086   3.033 -0.0251  0.1388 -0.8536
12063SOL    HW242027  10.002  11.062   3.053 -0.1324 -1.9061 -2.2181
12064SOL     OW42028   4.838   3.300  10.042 -0.0680  0.2072 -1.0747
12064SOL    HW142029   4.904   3.363  10.072 -1.0764  0.5975  0.4599
12064SOL    HW242030   4.759   3.324  10.090 -0.7740 -1.5548 -1.2847
12065SOL     OW42031   1.395  10.524  10.546  0.3506  0.3092 -0.7217
12065SOL    HW142032   1.412  10.614  10.572  0.6916 -0.3195  1.4114
12065SOL    HW242033   1.300  10.514  10.553  0.3739  0.3398 -0.3586
12066SOL     OW42034   2.216   0.780   2.968  0.6991 -0.4427 -0.1492
12066SOL    HW142035   2.137   0.730   2.990  0.3821  0.5396  1.0938
12066SOL    HW242036   2.286   0.739   3.019  0.9087 -1.0184 -0.8867
12067SOL     OW42037  11.581  11.031   7.284 -0.2047  0.1129 -0.3027
12067SOL    HW142038  11.509  11.020   7.222  1.9977 -0.2460 -2.9987
12067SOL    HW242039  11.543  11.008   7.369 -3.4212  0.7081 -1.4279
12068SOL     OW42040   0.071   9.989  11.553 -0.2736 -0.5459 -0.3542
12068SOL    HW142041   0.117   9.935  11.616 -1.7455 -0.4570  0.8596
12068SOL    HW242042  -0.017  10.000  11.590 -1.0808 -0.1879 -2.2464
12069SOL     OW42043   7.288   8.041  10.109 -0.0640 -0.0715  0.2068
12069SOL    HW142044   7.314   7.980  10.039 -2.0005 -0.4356 -0.2736
12069SOL    HW242045   7.301   8.128  10.071  0.4383 -0.2397 -0.0054
12070SOL     OW42046   8.943   4.410   8.574 -0.4194 -0.3705 -0.0791
12070SOL    HW142047   8.950   4.425   8.668 -2.5516 -0.2668  0.1065
12070SOL    HW242048   8.964   4.495   8.534 -0.9681 -0.0180  0.3781
12071SOL     OW42049   5.946   7.371   1.451  0.0035 -0.4603  0.4579
12071SOL    HW142050   5.871   7.422   1.420 -0.0845 -0.7495  0.1872
12071SOL    HW242051   5.909   7.286   1.474  0.4189 -0.9936 -0.7547
12072SOL     OW42052   6.603   1.140   8.874 -0.3886  0.6219  0.7817
12072SOL    HW142053   6.659   1.136   8.952 -0.9986 -1.0059  1.1793
12072SOL    HW242054   6.590   1.048   8.849 -1.1775  1.0661 -0.5464
12073SOL     OW42055   3.101   9.499  10.347 -0.0234 -0.2680  0.1274
12073SOL    HW142056   3.150   9.417  10.341  1.3327  0.5278 -0.1676
12073SOL    HW242057   3.132   9.551  10.272  0.2109  1.0605  1.1058
12074SOL     OW42058  12.086   4.277   7.192 -0.0493 -0.8493  0.3903
12074SOL    HW142059  12.000   4.289   7.152 -0.7870 -1.7873  1.6196
12074SOL    HW242060  12.143   4.339   7.146 -1.0779 -1.0989 -1.3178
12075SOL     OW42061  12.064   4.252   6.740  0.3158  0.4101 -0.5508
12075SOL    HW142062  11.969   4.244   6.747  0.2714  1.4138  0.1829
12075SOL    HW242063  12.099   4.177   6.789 -0.0851  0.1995 -0.5866
12076SOL     OW42064  10.279   5.426   1.556 -0.0745 -0.4800  0.5300
12076SOL    HW142065  10.298   5.519   1.568 -0.5532 -0.3423  0.2886
12076SOL    HW242066  10.354   5.380   1.594  1.2568  0.0390 -1.3315
12077SOL     OW42067   2.693   8.006   9.869 -0.4789  0.1239  0.1864
12077SOL    HW142068   2.695   8.039   9.959  0.7968  1.1202 -0.1881
12077SOL    HW242069   2.763   8.053   9.824  0.6509 -2.2459 -0.6979
12078SOL     OW42070  10.243   9.874   2.573  0.2646  0.5479  0.1278
12078SOL    HW142071  10.170   9.900   2.630  0.3414  0.5062  0.2464
12078SOL    HW242072  10.275   9.956   2.535  0.2702  0.5856  0.2142
12079SOL     OW42073   1.795   0.398   7.082  0.2180 -0.6089  0.0930
12079SOL    HW142074   1.851   0.474   7.066 -2.1568  0.9085 -1.5229
12079SOL    HW242075   1.755   0.414   7.167  0.9389 -0.8811  0.4909
12080SOL     OW42076   2.293  11.283   7.093 -0.9381  0.5177 -0.6780
12080SOL    HW142077   2.203  11.299   7.121 -1.2330  1.6598 -2.1757
12080SOL    HW242078   2.345  11.350   7.137 -0.9209  0.3720 -0.4695
12081SOL     OW42079   0.197   5.757  12.172 -0.1135 -0.3209 -0.0384
12081SOL    HW142080   0.292   5.758  12.160 -0.1684 -3.5219 -1.9085
12081SOL    HW242081   0.162   5.798  12.092 -0.4251  2.8489  1.5745
12082SOL     OW42082   5.182  12.246   6.080  0.0374 -0.1638 -0.1117
12082SOL    HW142083   5.250  12.178   6.076  0.9329  0.6917  0.2943
12082SOL    HW242084   5.111  12.205   6.131  1.4871 -0.0495  2.1098
12083SOL     OW42085   5.050   7.918   8.765 -0.0466  0.1539 -0.7406
12083SOL    HW142086   5.004   7.988   8.720 -1.4596 -1.0678 -1.2766
12083SOL    HW242087   5.124   7.897   8.708 -0.5715  0.0972 -1.4091
12084SOL     OW42088   6.119   2.224  10.931  0.3372  0.6394 -0.1778
12084SOL    HW142089   6.113   2.302  10.876 -0.5256  0.2285 -0.6851
12084SOL    HW242090   6.122   2.258  11.020 -1.6013  1.2279 -0.2966
12085SOL     OW42091   0.988   6.283   1.300  0.1509 -0.0310 -0.4552
12085SOL    HW142092   0.900   6.246   1.300  0.1621 -0.0603 -1.4875
12085SOL    HW242093   0.974   6.378   1.292  0.1803  0.1046  0.7677
12086SOL     OW42094   2.024   9.876  11.154  0.3191 -0.8004 -0.0560
12086SOL    HW142095   2.005   9.926  11.074 -1.5352 -1.5266 -0.1136
12086SOL    HW242096   2.111   9.837  11.138 -0.1658 -1.2237 -1.8895
12087SOL     OW42097   5.595   1.860   1.433 -0.0219 -0.8137 -0.4043
12087SOL    HW142098   5.652   1.910   1.374  2.1360  0.6302  2.6349
12087SOL    HW242099   5.647   1.784   1.458 -0.1773 -0.4973  0.9412
12088SOL     OW42100   3.568   2.719  10.077  0.1276 -0.8130  0.1268
12088SOL    HW142101   3.654   2.759  10.094  0.3691 -0.8217 -1.0186
12088SOL    HW242102   3.548   2.743   9.987 -1.0175 -0.9362  0.3351
12089SOL     OW42103  10.789   4.791  11.155  0.8237  0.1004 -0.1895
12089SOL    HW142104  10.705   4.822  11.189  1.6371  0.9130  1.1851
12089SOL    HW242105  10.791   4.698  11.177  0.7585  0.3259  0.8513
12090SOL     OW42106   4.060   2.672  11.971  0.0683 -0.5696  0.5010
12090SOL    HW142107   4.106   2.704  12.048 -0.3918  0.6647  0.2805
12090SOL    HW242108   3.970   2.701  11.982  0.6971  3.2448 -2.3005
12091SOL     OW42109   4.947   2.479   5.077 -0.5473 -0.3571 -0.5951
12091SOL    HW142110   5.015   2.462   5.142  0.3714  1.6856 -0.9541
12091SOL    HW242111   4.867   2.491   5.128  0.2973  2.0186  0.3327
12092SOL     OW42112   1.114  10.609   4.498 -0.2255 -0.2904  0.3797
12092SOL    HW142113   1.109  10.583   4.590 -1.3498  0.0487  0.4225
12092SOL    HW242114   1.190  10.667   4.495 -0.8191  0.5821  1.3357
12093SOL     OW42115   8.250   1.867   3.345 -0.1592 -0.0830 -0.2780
12093SOL    HW142116   8.280   1.953   3.374 -1.2266  0.1506  0.1851
12093SOL    HW242117   8.220   1.880   3.255  0.6288 -0.2032 -0.5617
12094SOL     OW42118   1.404   9.276  11.512  0.0022  0.1403 -0.0431
12094SOL    HW142119   1.379   9.183  11.507  0.6200 -0.2182  2.4237
12094SOL    HW242120   1.428   9.298  11.422  0.4065 -2.2623 -0.6121
12095SOL     OW42121   0.795   3.586   9.097  0.4216  0.2405  0.3089
12095SOL    HW142122   0.781   3.503   9.051 -0.7957 -0.4429  1.8108
12095SOL    HW242123   0.758   3.572   9.184  1.8690  1.7555  1.2479
12096SOL     OW42124   5.063   9.817  10.234 -0.0697 -0.3935 -0.4875
12096SOL    HW142125   5.003   9.886  10.207  0.9233  0.7058  0.0325
12096SOL    HW242126   5.136   9.824  10.172  0.7729  0.0843  0.5371
12097SOL     OW42127   1.904   7.438   5.683 -0.4106  0.1408 -0.3801
12097SOL    HW142128   1.898   7.360   5.629  0.1058  0.9593 -1.6631
12097SOL    HW242129   1.993   7.436   5.719 -1.1030 -0.9890  1.4324
12098SOL     OW42130   4.611   7.891   9.680  0.1084  0.3039 -0.1047
12098SOL    HW142131   4.570   7.916   9.762 -0.3943  0.7032 -0.4691
12098SOL    HW242132   4.541   7.902   9.614 -0.0658 -1.7224 -0.3411
12099SOL     OW42133  11.999  11.726   8.113 -0.2458 -0.0241 -0.2973
12099SOL    HW142134  11.965  11.716   8.023  0.2207  0.8537 -0.5791
12099SOL    HW242135  12.031  11.816   8.117 -0.4661  0.0194  0.8312
12100SOL     OW42136  11.794   0.312   0.716  0.8594 -0.4739 -0.7217
12100SOL    HW142137  11.698   0.319   0.713  0.6805 -0.2058  2.3670
12100SOL    HW242138  11.825   0.391   0.672 -0.3843  0.3527 -0.1592
12101SOL     OW42139   8.476  10.528   2.016  0.1744  0.5117  0.3043
12101SOL    HW142140   8.554  10.516   1.963  0.2660 -0.7500  0.6872
12101SOL    HW242141   8.497  10.601   2.075  0.7519  0.6905 -0.1187
12102SOL     OW42142   8.402   3.505   4.633 -0.2307 -0.0953  0.1074
12102SOL    HW142143   8.321   3.553   4.614 -0.4659 -0.9873 -1.2717
12102SOL    HW242144   8.424   3.462   4.551  0.2383 -1.9362  1.1465
12103SOL     OW42145   4.092   5.963   3.396  0.2202  0.5587 -0.1035
12103SOL    HW142146   4.009   5.963   3.348  0.1566  0.6785  0.0053
12103SOL    HW242147   4.080   6.029   3.464  0.2170  0.1952  0.2478
12104SOL     OW42148   1.228  11.703   6.661  0.2041 -0.3153 -0.1271
12104SOL    HW142149   1.148  11.752   6.639  1.1160  2.2290  1.7938
12104SOL    HW242150   1.293  11.734   6.598  0.4849  0.1119  0.3650
12105SOL     OW42151   0.892  10.631   9.711  0.1042  0.1364  0.5462
12105SOL    HW142152   0.816  10.637   9.653  1.1207 -1.8296 -1.1028
12105SOL    HW242153   0.889  10.712   9.762 -2.2942  0.7560 -0.4350
12106SOL     OW42154   8.388   2.479   6.216  0.3663 -0.2578 -0.2616
12106SOL    HW142155   8.337   2.423   6.275 -1.5774  0.6476 -0.9736
12106SOL    HW242156   8.423   2.548   6.271  0.1346 -0.4558  0.1365
12107SOL     OW42157   7.578   2.473   7.850 -0.3098 -0.2690  0.3874
12107SOL    HW142158   7.668   2.503   7.841  0.0340 -1.3875  0.0448
12107SOL    HW242159   7.544   2.522   7.925 -0.1701  1.8804 -0.8697
12108SOL     OW42160  10.256   5.456   8.990  0.2828 -0.1816 -0.0598
12108SOL    HW142161  10.275   5.512   8.915 -2.0123  0.2961 -0.3667
12108SOL    HW242162  10.209   5.513   9.051  0.8774 -0.9231  1.1187
12109SOL     OW42163   5.643   2.255   1.281 -0.1185 -0.2003 -0.5856
12109SOL    HW142164   5.578   2.294   1.222  0.6466  0.9298 -0.7188
12109SOL    HW242165   5.705   2.326   1.298  0.7115 -1.0620  0.0797
12110SOL     OW42166   4.173   5.543   5.303 -0.5776 -0.5326  0.5510
12110SOL    HW142167   4.262   5.550   5.270 -1.0641  0.1853 -0.6663
12110SOL    HW242168   4.161   5.450   5.321  0.3917 -0.6386  0.6859
12111SOL     OW42169   9.380   6.139   2.262  0.4319  0.2635  0.4559
12111SOL    HW142170   9.382   6.050   2.227  0.7111  0.3385  0.2869
12111SOL    HW242171   9.344   6.128   2.350 -0.1619  0.0638  0.1959
12112SOL     OW42172   0.474   3.875   2.888 -0.2918  0.9434 -0.1174
12112SOL    HW142173   0.526   3.946   2.925 -0.9263  2.1891 -1.4950
12112SOL    HW242174   0.500   3.871   2.796 -0.4272 -0.4773 -0.1137
12113SOL     OW42175   4.311   0.951   3.963  0.2801  0.2617 -0.2718
12113SOL    HW142176   4.284   1.034   3.925 -1.6867  0.3769  1.2251
12113SOL    HW242177   4.237   0.892   3.950 -0.1959  0.0857  2.5127
12114SOL     OW42178   4.127   1.473   7.357  0.1183 -0.4123  0.1907
12114SOL    HW142179   4.099   1.458   7.266  0.0314 -1.7869  0.4260
12114SOL    HW242180   4.220   1.454   7.356 -0.1848 -1.9992  0.7102
12115SOL     OW42181   6.914  11.055   8.757 -0.2854  0.4236 -0.2562
12115SOL    HW142182   6.875  11.140   8.776  0.4371  0.2609  2.4143
12115SOL    HW242183   7.003  11.061   8.792  0.5822 -0.6957 -2.1335
12116SOL     OW42184  11.873   4.986   0.357 -0.1408 -0.0796 -0.3136
12116SOL    HW142185  11.898   5.042   0.283  0.4989 -0.6265 -0.5307
12116SOL    HW242186  11.917   4.902   0.339 -0.9267 -0.5921  0.0950
12117SOL     OW42187   8.094   3.728   0.615  0.3689 -0.3514  0.3058
12117SOL    HW142188   8.000   3.732   0.636  0.3369  0.9197 -0.0394
12117SOL    HW242189   8.099   3.667   0.542 -0.4992  1.3134 -1.2136
12118SOL     OW42190   0.200   4.066   3.200  0.2189 -0.1559  0.4368
12118SOL    HW142191   0.160   4.076   3.286  1.9870 -1.1470  1.4481
12118SOL    HW242192   0.253   3.986   3.207 -0.3271 -0.8134 -1.8868
12119SOL     OW42193   0.759   7.893  10.850  0.0455 -0.0543  0.1968
12119SOL    HW142194   0.829   7.952  10.821  0.9059 -0.9821  0.3492
12119SOL    HW242195   0.687   7.951  10.874 -0.2862  0.8456 -2.6116
12120SOL     OW42196   4.834   1.357   4.941  0.2009 -0.2308 -0.3922
12120SOL    HW142197   4.797   1.446   4.945  0.3696 -0.1595 -0.4175
12120SOL    HW242198   4.889   1.351   5.019  0.0500 -0.3762 -0.2966
12121SOL     OW42199  11.482   7.620   4.419 -0.5245  0.2003 -0.0869
12121SOL    HW142200  11.567   7.577   4.408 -0.8640 -0.5920  0.4074
12121SOL    HW242201  11.422   7.550   4.443 -1.0885  0.9332  0.6952
12122SOL     OW42202   4.051   2.418   7.357 -0.3088 -0.0267 -0.2206
12122SOL    HW142203   3.978   2.442   7.300  0.1829 -0.0517 -0.8688
12122SOL    HW242204   4.112   2.373   7.299  1.5441  2.4565 -0.3498
12123SOL     OW42205   4.737   4.071   9.417 -0.5853  0.0476  0.4113
12123SOL    HW142206   4.669   4.094   9.354  0.0805 -0.7255 -0.6170
12123SOL    HW242207   4.689   4.033   9.491 -1.2131 -2.0288 -0.9821
12124SOL     OW42208   0.957   4.858   3.224  0.5764  0.1527 -0.6960
12124SOL    HW142209   0.892   4.924   3.197  0.2894 -0.0168 -0.4306
12124SOL    HW242210   0.959   4.796   3.151 -1.8902 -1.5624  0.5591
12125SOL     OW42211  10.835   9.331  11.670 -0.0423  0.2951 -0.1153
12125SOL    HW142212  10.881   9.406  11.633 -0.5631 -0.0556 -1.5332
12125SOL    HW242213  10.749   9.364  11.694 -0.0310  0.3069 -0.0917
12126SOL     OW42214   7.353  11.315   9.239 -0.2321 -0.5595 -0.3039
12126SOL    HW142215   7.328  11.272   9.157  1.6353 -0.7211 -0.8360
12126SOL    HW242216   7.446  11.294   9.250  0.4307  2.1812  0.1300
12127SOL     OW42217  11.909   3.899   0.330 -0.5995  0.1361 -0.5573
12127SOL    HW142218  11.825   3.940   0.349 -0.5551  0.3891 -0.8809
12127SOL    HW242219  11.944   3.951   0.257  0.7945  1.3720  0.8981
12128SOL     OW42220   9.015   9.524   8.944 -0.4173 -0.5105  0.0610
12128SOL    HW142221   9.034   9.572   8.864 -0.0973 -0.9859 -0.1528
12128SOL    HW242222   9.097   9.526   8.993  0.0481 -2.0830 -0.6050
12129SOL     OW42223   8.324   9.388   8.251  0.6281  0.5556 -0.4922
12129SOL    HW142224   8.285   9.300   8.251 -0.2846  0.9407  0.1641
12129SOL    HW242225   8.316   9.418   8.161 -1.6121  1.0311 -0.1884
12130SOL     OW42226   4.477   6.860  10.848 -0.5348 -0.1496  0.5955
12130SOL    HW142227   4.422   6.838  10.924  1.1186 -0.6677  1.7024
12130SOL    HW242228   4.417   6.901  10.786 -2.1030 -0.4276  1.8561
12131SOL     OW42229  10.573   3.600   8.692 -0.0901 -0.5302 -0.6355
12131SOL    HW142230  10.509   3.539   8.729 -1.2230  1.8266  1.5944
12131SOL    HW242231  10.523   3.651   8.628  0.6388 -1.3260 -1.8716
12132SOL     OW42232   6.231   1.086   7.465 -0.2116  0.4345  0.7704
12132SOL    HW142233   6.295   1.022   7.496 -0.3967 -0.1054  0.0549
12132SOL    HW242234   6.211   1.139   7.542  0.6207  0.2075  1.1512
12133SOL     OW42235   7.929   8.598   9.463 -0.6933  0.0884 -0.4740
12133SOL    HW142236   7.835   8.612   9.455 -0.4999  1.1318 -1.0925
12133SOL    HW242237   7.966   8.686   9.475 -0.0164 -0.4702  2.4419
12134SOL     OW42238  11.312  12.022   2.605 -0.3864  0.2513 -0.2062
12134SOL    HW142239  11.256  12.029   2.527 -0.5335 -1.8122 -0.3260
12134SOL    HW242240  11.401  12.019   2.571 -0.4632 -0.8659 -0.3163
12135SOL     OW42241   6.084   8.707   5.094  0.6439 -0.0541 -0.0672
12135SOL    HW142242   6.061   8.632   5.150  0.9258  0.3740  0.6441
12135SOL    HW242243   6.041   8.689   5.011 -1.2768  0.1289  0.8224
12136SOL     OW42244   6.749   8.585   0.486 -0.0463  0.0508  0.4602
12136SOL    HW142245   6.808   8.528   0.436 -0.5813  1.0538 -1.3848
12136SOL    HW242246   6.691   8.524   0.532 -0.1782 -0.9276 -0.9365
12137SOL     OW42247   2.758   8.903   5.748 -0.4500 -0.4071 -0.1738
12137SOL    HW142248   2.811   8.980   5.728 -0.5384  0.1992  1.7218
12137SOL    HW242249   2.669   8.929   5.727 -0.4880  0.0706  0.5197
12138SOL     OW42250   3.750   0.836   2.658  0.3525 -0.7676 -0.5921
12138SOL    HW142251   3.703   0.898   2.603  1.7625 -0.2887 -1.2951
12138SOL    HW242252   3.772   0.763   2.600  0.6825 -0.8805 -0.3360
12139SOL     OW42253   5.198   3.596   0.320 -0.5864 -0.3791 -0.7837
12139SOL    HW142254   5.258   3.532   0.359  1.2387  1.0885 -1.0034
12139SOL    HW242255   5.140   3.622   0.392 -0.3038 -1.1039 -0.2829
12140SOL     OW42256   7.108  10.835   0.776 -0.2326 -0.4768 -0.2828
12140SOL    HW142257   7.077  10.858   0.863  2.1256  2.1843  0.0167
12140SOL    HW242258   7.169  10.762   0.790  0.4579  0.2077  0.4141
12141SOL     OW42259   6.873   8.584  10.827  0.1668 -0.2091  0.4952
12141SOL    HW142260   6.930   8.654  10.795 -0.2815  0.3145  0.8287
12141SOL    HW242261   6.884   8.513  10.763  1.1908 -0.1225  0.5559
12142SOL     OW42262   5.486   1.057   7.261 -0.2773 -0.2294 -0.3349
12142SOL    HW142263   5.558   1.037   7.321 -0.1962  0.4102 -0.2043
12142SOL    HW242264   5.522   1.041   7.174 -0.0735 -0.2107 -0.2553
12143SOL     OW42265   0.832   6.181  10.839  0.2671 -0.0730 -0.1812
12143SOL    HW142266   0.907   6.208  10.786  0.6704  0.1810  0.4988
12143SOL    HW242267   0.831   6.085  10.831  1.3915 -0.1829  0.7266
12144SOL     OW42268   1.227   7.412   4.009  0.0212 -0.4459 -0.0315
12144SOL    HW142269   1.164   7.418   3.937  1.5879  0.0754 -1.4604
12144SOL    HW242270   1.273   7.330   3.994  1.7998  0.6396 -0.9765
12145SOL     OW42271   9.108   5.843   5.540  0.2457  0.1109 -0.6601
12145SOL    HW142272   9.103   5.749   5.559  1.1785  0.6713  3.2207
12145SOL    HW242273   9.192   5.854   5.495  0.1639 -0.8587 -1.0859
12146SOL     OW42274   7.152  10.504   7.454  0.2056 -0.0929 -0.4319
12146SOL    HW142275   7.068  10.512   7.409  0.3862 -1.1578 -0.9986
12146SOL    HW242276   7.156  10.580   7.512 -0.9134  0.2462 -0.7783
12147SOL     OW42277   3.214  10.858   3.053  0.0007  0.3404 -0.5036
12147SOL    HW142278   3.239  10.936   3.103  0.7675 -0.2793  0.1102
12147SOL    HW242279   3.131  10.831   3.091  1.1454 -0.8207  1.3223
12148SOL     OW42280  10.764   5.644   6.068 -0.1129  0.1254  0.1557
12148SOL    HW142281  10.673   5.673   6.063 -0.3769 -0.5913  0.7292
12148SOL    HW242282  10.800   5.661   5.981 -0.2163  2.2834  0.4770
12149SOL     OW42283   9.758   0.312   2.040 -0.3435  0.1866 -0.3543
12149SOL    HW142284   9.743   0.403   2.016 -1.3158 -0.0818 -0.8281
12149SOL    HW242285   9.774   0.267   1.957  0.8433  0.0321 -0.0661
12150SOL     OW42286  11.702   6.683   6.106  0.1619 -0.0330  0.3533
12150SOL    HW142287  11.641   6.670   6.179  0.6306 -0.5826  0.6568
12150SOL    HW242288  11.726   6.776   6.111  1.1893 -0.3368  1.7217
12151SOL     OW42289   7.566   8.377   4.488  0.3197  0.2476  0.0137
12151SOL    HW142290   7.593   8.460   4.449  0.8399 -0.6332 -1.5659
12151SOL    HW242291   7.647   8.326   4.496  0.3879  0.6672  3.0760
12152SOL     OW42292   2.116  10.619   7.924  0.2378  0.4477 -0.2062
12152SOL    HW142293   2.057  10.636   7.997 -0.1193  1.0145 -0.6117
12152SOL    HW242294   2.189  10.570   7.962  0.6202  1.7182  0.7692
12153SOL     OW42295   8.212   0.405   5.597  0.1213  0.7474 -0.3687
12153SOL    HW142296   8.120   0.410   5.622  0.5808  0.7526  1.4963
12153SOL    HW242297   8.221   0.468   5.525 -1.5344 -0.0719 -1.3431
12154SOL     OW42298   8.873   1.496   6.119  0.1956 -0.2971 -0.6296
12154SOL    HW142299   8.900   1.525   6.207 -0.6719 -0.2516 -0.3734
12154SOL    HW242300   8.829   1.572   6.082 -1.3569 -0.9951 -0.2731
12155SOL     OW42301   3.031   6.130   6.328 -0.0344 -0.1607 -0.5617
12155SOL    HW142302   3.066   6.099   6.245 -0.0043 -1.9244  0.0675
12155SOL    HW242303   2.937   6.141   6.313  0.0768  0.1826 -1.0051
12156SOL     OW42304   9.015   8.504   1.615 -0.8721 -0.4166 -0.1690
12156SOL    HW142305   8.950   8.495   1.546 -1.7898  0.7163  0.5008
12156SOL    HW242306   9.036   8.598   1.615  1.3563 -0.8597 -0.8759
12157SOL     OW42307   7.094   4.721   7.381  0.3165 -0.3205 -0.5754
12157SOL    HW142308   7.047   4.742   7.300  0.4483  0.3882 -0.4741
12157SOL    HW242309   7.186   4.741   7.362  0.4990 -1.1559 -0.5883
12158SOL     OW42310   4.434  11.040   4.663  0.3524  0.0933  0.3861
12158SOL    HW142311   4.380  11.119   4.668 -1.4579 -0.9406 -1.2731
12158SOL    HW242312   4.496  11.058   4.592 -0.1963 -0.0058 -0.1343
12159SOL     OW42313   0.399   2.668   0.284 -0.2587  0.0971 -0.1157
12159SOL    HW142314   0.328   2.604   0.285  0.7767 -1.1826  2.2903
12159SOL    HW242315   0.474   2.620   0.250 -0.0430  0.8156 -0.6796
12160SOL     OW42316   7.547   3.901   0.414 -0.8132 -0.2202  0.5299
12160SOL    HW142317   7.568   3.884   0.506  0.2337 -1.7133  0.0584
12160SOL    HW242318   7.475   3.964   0.416  0.6729  1.5410  2.3444
12161SOL     OW42319   4.460   2.220   8.679  0.1854  0.3456  0.3886
12161SOL    HW142320   4.384   2.212   8.622  0.0837 -1.6810  0.7446
12161SOL    HW242321   4.534   2.200   8.622  0.0785 -1.7510  0.9089
12162SOL     OW42322   5.763   3.541   2.855 -0.3328  0.4759  0.3072
12162SOL    HW142323   5.672   3.566   2.875 -0.4450  1.6651 -1.4029
12162SOL    HW242324   5.789   3.603   2.787  1.0132 -1.2760 -0.8362
12163SOL     OW42325   2.038   6.973   2.670 -0.2065  0.6028  0.1446
12163SOL    HW142326   2.088   7.042   2.714 -1.3825  1.2588  0.5099
12163SOL    HW242327   1.993   7.018   2.599 -0.3585  0.0467 -0.1177
12164SOL     OW42328  11.852  10.463   0.809  0.5898  0.2331 -0.6758
12164SOL    HW142329  11.872  10.505   0.725  0.6763  1.3299 -0.1310
12164SOL    HW242330  11.902  10.382   0.808  2.6902  1.4515 -0.6194
12165SOL     OW42331   0.279   0.326   9.615 -0.5818  0.1498  0.6735
12165SOL    HW142332   0.294   0.335   9.521 -1.6790 -3.1170  0.0621
12165SOL    HW242333   0.363   0.350   9.654  0.4293  0.0027 -1.2589
12166SOL     OW42334  11.044   2.804  11.392 -0.2447 -0.0727  0.4152
12166SOL    HW142335  11.007   2.857  11.463  0.4917  0.5642  0.3352
12166SOL    HW242336  11.135   2.789  11.418 -0.1001 -0.2300 -0.1699
12167SOL     OW42337   6.922   5.970  11.719  0.2694 -0.6480 -0.2419
12167SOL    HW142338   7.004   5.920  11.714 -0.8640 -2.5224 -1.2338
12167SOL    HW242339   6.869   5.936  11.646 -2.8884 -2.2942  2.5471
12168SOL     OW42340   8.368   7.448   6.541 -0.0603  0.0389  0.5038
12168SOL    HW142341   8.301   7.490   6.595  0.4833  0.9758  0.4631
12168SOL    HW242342   8.319   7.395   6.479 -0.7310 -2.4901  2.9653
12169SOL     OW42343   6.230   7.858   5.269 -0.3239  0.5422 -0.0850
12169SOL    HW142344   6.227   7.883   5.177 -0.4832  0.6210 -0.0600
12169SOL    HW242345   6.306   7.800   5.277 -0.6864  0.0169 -0.3982
12170SOL     OW42346   1.287   5.985   1.228  0.2816 -0.6689  0.4278
12170SOL    HW142347   1.369   5.983   1.178 -0.1263 -2.1952 -0.2340
12170SOL    HW242348   1.281   6.074   1.260  1.6232 -0.2091 -0.5040
12171SOL     OW42349   4.604   6.330  12.329 -0.0589  0.0823  0.0090
12171SOL    HW142350   4.630   6.420  12.344 -1.4117  0.2321  1.8903
12171SOL    HW242351   4.660   6.278  12.387 -0.1086 -0.1516 -0.1508
12172SOL     OW42352   0.673   0.059   1.222  0.1719 -0.4327  0.1206
12172SOL    HW142353   0.656   0.022   1.309  1.7769 -2.1262 -0.2048
12172SOL    HW242354   0.685   0.153   1.237  1.2518 -0.8157  1.8814
12173SOL     OW42355   2.953   6.542  11.081  0.6036  0.3631 -0.1185
12173SOL    HW142356   2.872   6.491  11.078 -0.5900  2.0207  1.6684
12173SOL    HW242357   2.973   6.559  10.989 -0.3981 -1.0560 -0.6448
12174SOL     OW42358   7.285  10.632  10.378 -0.2355 -0.8515 -0.2254
12174SOL    HW142359   7.354  10.607  10.317  0.8391 -0.5430  0.8312
12174SOL    HW242360   7.325  10.626  10.465 -2.3660 -3.4576  0.7017
12175SOL     OW42361   8.432   0.752   2.344 -0.2121  0.2013  0.5807
12175SOL    HW142362   8.398   0.811   2.277  1.0238  0.0980 -0.1632
12175SOL    HW242363   8.491   0.693   2.297  1.8922  1.0791  1.9328
12176SOL     OW42364   5.180   2.624   9.092 -0.0326 -0.0944 -0.0408
12176SOL    HW142365   5.245   2.558   9.065  0.8806  1.4320 -1.8153
12176SOL    HW242366   5.128   2.640   9.013 -0.4517  1.0613  0.4528
12177SOL     OW42367   8.627   2.814   8.743  0.0568  0.6872  0.4075
12177SOL    HW142368   8.554   2.802   8.804 -0.6052  1.5618 -0.1821
12177SOL    HW242369   8.700   2.839   8.798  0.2983 -1.4514  1.1554
12178SOL     OW42370   8.890   7.657   4.009  0.0665  0.2644  0.2445
12178SOL    HW142371   8.895   7.659   3.913 -1.0725  0.2173  0.1658
12178SOL    HW242372   8.980   7.669   4.038  0.8307 -2.0816 -0.8489
12179SOL     OW42373   8.641   4.245  10.947  0.1383  0.3409  0.3163
12179SOL    HW142374   8.590   4.180  10.900  1.0760 -1.2014  1.3417
12179SOL    HW242375   8.588   4.325  10.944 -1.5331 -0.7416 -0.0620
12180SOL     OW42376   6.660   3.119   5.331 -0.0986  0.2668  0.0973
12180SOL    HW142377   6.659   3.210   5.360 -1.4650  0.1263  0.5222
12180SOL    HW242378   6.715   3.074   5.395  0.4160  0.7402  0.0012
12181SOL     OW42379   6.937   1.026   9.507 -0.0258 -0.4716 -0.0600
12181SOL    HW142380   6.933   0.958   9.574 -2.5127  1.3315  1.8279
12181SOL    HW242381   6.864   1.007   9.449 -1.1554  0.8250  0.8584
12182SOL     OW42382  10.378   1.323   8.988 -0.1355 -0.2700  0.4981
12182SOL    HW142383  10.459   1.281   9.018  0.0087 -0.0149  0.4628
12182SOL    HW242384  10.373   1.404   9.039 -0.6085 -0.5055  0.8376
12183SOL     OW42385  12.165   0.305   2.662  0.0518  0.6935 -0.0138
12183SOL    HW142386  12.221   0.257   2.600  0.4457  1.5128 -0.3085
12183SOL    HW242387  12.159   0.393   2.625  1.2587  1.5484  1.6888
12184SOL     OW42388   5.696   7.920   8.142 -0.1644  0.2436 -0.3482
12184SOL    HW142389   5.766   7.869   8.183 -0.3122 -0.4552 -0.9438
12184SOL    HW242390   5.717   8.011   8.162  1.4360  0.1171 -1.2858
12185SOL     OW42391   5.078  10.360   3.261  0.1293  0.2541  0.3099
12185SOL    HW142392   5.081  10.434   3.321  0.5945  0.1805  0.3811
12185SOL    HW242393   5.114  10.393   3.179 -1.6367  0.6974 -0.3226
12186SOL     OW42394   3.748   4.727   7.810 -0.1881 -0.3583 -0.1569
12186SOL    HW142395   3.819   4.729   7.746  0.5961 -0.2120  0.7117
12186SOL    HW242396   3.671   4.754   7.760 -0.2737 -3.3138 -1.8615
12187SOL     OW42397   7.522   6.383   1.128  0.3561 -0.5007 -0.4590
12187SOL    HW142398   7.465   6.458   1.144 -2.4702 -2.6457  0.3853
12187SOL    HW242399   7.508   6.361   1.036  2.0307  0.5622 -1.0168
12188SOL     OW42400   1.213   5.566   9.857  0.4378  0.1699  0.2086
12188SOL    HW142401   1.136   5.611   9.822 -0.2652 -0.1588  1.2798
12188SOL    HW242402   1.287   5.618   9.826 -0.2008  0.4313 -0.9323
12189SOL     OW42403   4.602   4.054   9.191 -0.0326 -0.0418  0.2895
12189SOL    HW142404   4.556   4.134   9.164 -3.6293 -1.1576  2.3454
12189SOL    HW242405   4.619   4.007   9.110  1.7716  2.4632 -0.9328
12190SOL     OW42406  10.027   6.946   7.252  0.1577 -0.0601  0.1460
12190SOL    HW142407   9.975   6.886   7.306 -1.7899 -0.0465 -1.6045
12190SOL    HW242408  10.021   6.910   7.163  2.2420  0.5951 -0.3138
12191SOL     OW42409   2.175   2.611   6.582  0.5274 -0.1193  0.1010
12191SOL    HW142410   2.120   2.686   6.559  1.7233  1.0197  0.7952
12191SOL    HW242411   2.200   2.572   6.498  0.7063  0.8901 -0.3239
12192SOL     OW42412   2.179   4.431   4.543  0.0776  0.4762  0.2001
12192SOL    HW142413   2.195   4.337   4.548  0.8364  0.5692 -0.3207
12192SOL    HW242414   2.248   4.470   4.596  0.9342  0.8223 -1.1134
12193SOL     OW42415   8.390  11.682   9.371 -0.3169  0.0052  0.4906
12193SOL    HW142416   8.364  11.616   9.436 -1.3456  1.5545  1.7156
12193SOL    HW242417   8.313  11.690   9.314 -0.1812  0.1415  0.3278
12194SOL     OW42418   4.657   3.172   7.615  0.3912  0.5337 -0.1207
12194SOL    HW142419   4.562   3.170   7.627  0.4453  0.4442  0.3207
12194SOL    HW242420   4.675   3.103   7.550  0.2406 -0.0778  0.4680
12195SOL     OW42421   9.726   5.758   5.325  0.2590  0.2415  0.3996
12195SOL    HW142422   9.811   5.722   5.298  0.9166  1.7418  0.3608
12195SOL    HW242423   9.670   5.749   5.248  0.9857  1.0158 -0.2392
12196SOL     OW42424   8.535   4.380   2.344  0.4203  0.1416  0.3499
12196SOL    HW142425   8.503   4.431   2.269  3.6528  2.2049  0.1680
12196SOL    HW242426   8.597   4.318   2.305  0.8899  0.1020  1.1494
12197SOL     OW42427  10.977   3.194   9.472 -0.0671 -0.7084  0.5395
12197SOL    HW142428  11.004   3.121   9.416 -1.0557 -0.0169 -0.9179
12197SOL    HW242429  10.886   3.174   9.495 -0.0175 -0.4305  0.9913
12198SOL     OW42430  12.010   0.336   8.392  0.2897  0.2093  0.1665
12198SOL    HW142431  12.077   0.268   8.384  0.4033  0.5664 -3.4087
12198SOL    HW242432  11.934   0.290   8.427  1.6281 -0.7007  2.0836
12199SOL     OW42433   4.567   0.583   8.669  0.7087 -0.0920 -0.3713
12199SOL    HW142434   4.649   0.538   8.654  0.4483 -0.6423 -0.1778
12199SOL    HW242435   4.575   0.666   8.622  1.7869  0.3269  0.5111
12200SOL     OW42436   1.358   4.434  11.590  1.0342  0.5173 -0.8730
12200SOL    HW142437   1.408   4.404  11.666 -2.5389 -0.9874  1.0982
12200SOL    HW242438   1.396   4.386  11.516  1.3356 -2.0321  0.8049
12201SOL     OW42439   1.923   8.251   3.579  0.5929  0.7871  0.1507
12201SOL    HW142440   2.005   8.212   3.608 -0.5711 -0.7972  1.5221
12201SOL    HW242441   1.878   8.181   3.531 -0.5454  1.1596  0.6339
12202SOL     OW42442   8.323   7.835   4.397 -0.3755  0.3334  0.2411
12202SOL    HW142443   8.364   7.828   4.311 -1.3152  1.8269 -0.3647
12202SOL    HW242444   8.377   7.898   4.445 -0.2423  0.0097  0.5275
12203SOL     OW42445   1.932   3.481   2.896  0.3109 -0.0337  0.1123
12203SOL    HW142446   1.915   3.572   2.918 -0.5998  0.4776 -2.2836
12203SOL    HW242447   1.849   3.436   2.915  0.4515 -0.1732  0.4005
12204SOL     OW42448   1.632   3.844   9.610 -0.5761  0.3054  0.1017
12204SOL    HW142449   1.716   3.804   9.631  0.0431  1.0341 -0.9079
12204SOL    HW242450   1.612   3.813   9.521 -0.2861  1.8422 -0.5323
12205SOL     OW42451   8.265   3.224   6.615 -0.3551 -0.3310  0.4181
12205SOL    HW142452   8.330   3.276   6.568 -0.3779 -0.1277  0.6080
12205SOL    HW242453   8.313   3.188   6.690 -0.3823 -0.4466  0.3807
12206SOL     OW42454   8.315   4.910   2.189  0.2438  0.0909  0.4245
12206SOL    HW142455   8.273   4.873   2.267 -0.6711  0.8245  0.3102
12206SOL    HW242456   8.258   4.983   2.165 -0.1144 -0.7697 -1.5613
12207SOL     OW42457   5.372   9.176   1.909 -0.2969  0.2158 -0.5821
12207SOL    HW142458   5.317   9.251   1.933  1.3973  1.2198  0.3103
12207SOL    HW242459   5.437   9.212   1.849  0.9235 -0.3879  0.3473
12208SOL     OW42460   9.553   4.918   6.924  0.3427  0.5030  0.1726
12208SOL    HW142461   9.458   4.909   6.934  0.3562  1.6370  1.6731
12208SOL    HW242462   9.575   4.860   6.851 -1.2175 -1.3514  1.0852
12209SOL     OW42463   3.634  11.881   5.321 -0.0551 -0.1119  0.0314
12209SOL    HW142464   3.583  11.958   5.344  1.4155  0.9083  0.0383
12209SOL    HW242465   3.643  11.885   5.226 -1.8550 -1.5548 -0.2650
12210SOL     OW42466  11.493   1.090   1.524  0.0699 -0.5848 -0.3760
12210SOL    HW142467  11.457   1.131   1.445  1.4738 -1.5715 -1.5878
12210SOL    HW242468  11.494   1.160   1.589 -3.9463 -0.4799 -0.2077
12211SOL     OW42469   1.688   1.094  11.583 -0.2898  0.5043 -0.6651
12211SOL    HW142470   1.727   1.007  11.596  0.4248  0.6845 -1.4889
12211SOL    HW242471   1.749   1.153  11.627 -1.0170  0.5616  0.2956
12212SOL     OW42472   9.280  11.763   4.007 -0.3456 -0.2374  0.9817
12212SOL    HW142473   9.317  11.851   3.998  0.1579 -0.4740  0.6952
12212SOL    HW242474   9.224  11.768   4.084 -1.5505  0.7529  0.0931
12213SOL     OW42475   4.558  11.240   5.614  0.2492 -0.3806 -0.2805
12213SOL    HW142476   4.545  11.299   5.688  2.4549  1.3012 -1.0950
12213SOL    HW242477   4.650  11.214   5.621  0.3328 -0.6580 -2.0732
12214SOL     OW42478   6.651   2.898   5.819  0.0515  0.2943 -0.2434
12214SOL    HW142479   6.676   2.811   5.787  0.5187 -0.1091  1.1734
12214SOL    HW242480   6.568   2.884   5.865 -0.0930  0.6845 -0.3804
12215SOL     OW42481   7.560   0.719   3.862 -0.2238 -0.6104  0.1451
12215SOL    HW142482   7.528   0.633   3.889 -1.3902 -0.1525  0.3197
12215SOL    HW242483   7.559   0.771   3.943  0.5556 -0.4483  0.0581
12216SOL     OW42484   1.015   7.087   3.416 -0.2031 -0.0015 -0.1834
12216SOL    HW142485   1.050   6.999   3.398 -2.2892 -0.4450 -2.7847
12216SOL    HW242486   1.091   7.145   3.412  1.1976 -1.6106  1.4001
12217SOL     OW42487   5.279   9.739   4.698  0.2431  0.1949 -0.1702
12217SOL    HW142488   5.267   9.785   4.615 -2.7777 -0.0979  0.0049
12217SOL    HW242489   5.339   9.795   4.748  1.2912  0.9038 -2.1002
12218SOL     OW42490  11.919   6.525   3.177  0.4738  0.2447 -0.1823
12218SOL    HW142491  11.887   6.489   3.260  1.9764 -0.1827  0.2484
12218SOL    HW242492  11.968   6.603   3.202  0.4302  0.4582 -0.7442
12219SOL     OW42493  12.003   3.740   9.487 -0.3130 -0.2988  0.3613
12219SOL    HW142494  12.084   3.792   9.484  0.1839 -1.0925 -0.4467
12219SOL    HW242495  11.967   3.758   9.574  0.2909  0.7256  0.4155
12220SOL     OW42496   0.519  10.886   0.853 -0.1152  0.3843 -0.0616
12220SOL    HW142497   0.566  10.919   0.776 -0.7991  1.9700  0.1622
12220SOL    HW242498   0.588  10.857   0.913  0.4687  0.3014 -0.7665
12221SOL     OW42499   3.117  12.045   9.891  0.0303 -0.1624  0.1444
12221SOL    HW142500   3.093  12.049   9.799  2.1007  0.9053 -0.4002
12221SOL    HW242501   3.074  11.966   9.924 -3.5296  1.1905 -0.8368
12222SOL     OW42502   6.240   4.946   2.293 -0.0994 -0.4152  0.1843
12222SOL    HW142503   6.221   5.013   2.226 -0.5927 -0.1134  0.6137
12222SOL    HW242504   6.153   4.919   2.324  0.0281  1.9544  3.1551
12223SOL     OW42505   5.802   4.499   3.684 -0.0314  0.3688 -0.8696
12223SOL    HW142506   5.747   4.501   3.762 -1.3839  0.0339 -1.7855
12223SOL    HW242507   5.842   4.412   3.685 -1.6297 -0.4155 -1.5799
12224SOL     OW42508  12.157   2.842   9.307  0.1480  0.0801  0.0823
12224SOL    HW142509  12.118   2.808   9.227 -1.1616  0.1005  0.6843
12224SOL    HW242510  12.183   2.765   9.356 -1.0620 -0.0197  0.5949
12225SOL     OW42511   5.944   7.380  10.197 -0.1107 -0.4458 -0.1736
12225SOL    HW142512   5.880   7.348  10.261 -0.8757  0.8293 -0.2678
12225SOL    HW242513   6.019   7.407  10.248 -0.8140  0.7964  0.2393
12226SOL     OW42514   6.868   3.956  11.065 -0.2594  0.0872  0.0694
12226SOL    HW142515   6.900   3.867  11.074  0.5376  0.3771  0.2274
12226SOL    HW242516   6.927   4.008  11.121 -0.3223  0.7887 -0.5065
12227SOL     OW42517   0.812   2.155   7.330 -0.1887  0.1920  0.0599
12227SOL    HW142518   0.801   2.129   7.422  1.2666 -0.1360  0.1647
12227SOL    HW242519   0.860   2.083   7.290 -1.1045  0.1857 -1.0536
12228SOL     OW42520   3.253   9.923  10.179  0.6039  0.2862  0.6623
12228SOL    HW142521   3.257   9.918  10.275 -1.0931 -1.5708  0.6893
12228SOL    HW242522   3.160   9.932  10.159  0.7966 -0.7243 -0.8478
12229SOL     OW42523  11.304   5.344  10.953 -0.0259 -0.5915  0.3932
12229SOL    HW142524  11.267   5.282  11.015  2.2512 -1.1103  1.3262
12229SOL    HW242525  11.398   5.343  10.971  0.4035  1.1081 -1.4094
12230SOL     OW42526   0.299   5.288   7.696 -0.0574 -0.1434  0.1391
12230SOL    HW142527   0.365   5.235   7.740  1.0211  1.5835  0.7080
12230SOL    HW242528   0.216   5.259   7.734  0.5579 -0.9778  0.8952
12231SOL     OW42529  10.290   8.052   6.425 -0.0743 -0.2832 -0.0933
12231SOL    HW142530  10.210   8.085   6.467 -0.3878 -0.1607 -0.7701
12231SOL    HW242531  10.290   7.959   6.446 -0.0190 -0.1562  0.5017
12232SOL     OW42532   4.175   5.592   4.993  0.0673  0.9395  0.0393
12232SOL    HW142533   4.133   5.599   5.079  1.5393 -0.1843  0.9075
12232SOL    HW242534   4.117   5.639   4.934 -0.9688  1.7884  1.6568
12233SOL     OW42535   8.648   4.895   5.093 -0.0002  0.0701  0.2349
12233SOL    HW142536   8.594   4.926   5.020 -1.6515  0.6048  1.6096
12233SOL    HW242537   8.659   4.802   5.076 -0.7504  0.0913 -0.4709
12234SOL     OW42538   4.292  12.170   5.688 -0.0223 -0.4543 -0.0715
12234SOL    HW142539   4.249  12.225   5.753 -1.0265  0.1023 -1.1641
12234SOL    HW242540   4.249  12.192   5.606 -0.1366 -2.5191 -0.6253
12235SOL     OW42541   9.519  10.453   9.806 -0.3500 -0.1672  0.1574
12235SOL    HW142542   9.577  10.470   9.880  0.3357 -0.2422 -0.3563
12235SOL    HW242543   9.480  10.368   9.827 -1.0480  0.3321  0.9808
12236SOL     OW42544   5.321   6.169   9.056  0.3081  0.1878 -0.4275
12236SOL    HW142545   5.400   6.219   9.075  1.4039 -2.4908  2.9283
12236SOL    HW242546   5.342   6.122   8.975  1.6849  0.3818 -0.2079
12237SOL     OW42547   2.814  10.984   0.813  0.2022 -0.1647  0.1689
12237SOL    HW142548   2.819  11.064   0.761  1.6852 -0.0784  0.4070
12237SOL    HW242549   2.905  10.965   0.837  0.4150 -3.6363 -2.4782
12238SOL     OW42550   6.909  10.807   2.804 -0.0918  0.4724  0.3636
12238SOL    HW142551   6.964  10.836   2.732 -0.5578 -0.6304 -0.4800
12238SOL    HW242552   6.954  10.729   2.839 -0.8477 -0.1466 -0.0174
12239SOL     OW42553  10.038   9.425   3.790 -0.3541 -0.1791  0.0686
12239SOL    HW142554   9.958   9.388   3.752 -1.5890  1.5354  0.9142
12239SOL    HW242555  10.039   9.393   3.880 -0.3541  0.1963  0.2033
12240SOL     OW42556  10.251  11.862   1.564 -0.0337 -0.0677  0.5945
12240SOL    HW142557  10.246  11.909   1.647 -0.0289  0.0332  0.5375
12240SOL    HW242558  10.252  11.770   1.588 -0.3240 -0.0462  0.6921
12241SOL     OW42559   0.534  10.377   7.227  0.0606 -0.3792  0.4261
12241SOL    HW142560   0.580  10.446   7.275 -0.0565 -0.7310  1.0501
12241SOL    HW242561   0.442  10.388   7.251 -0.0041 -0.5289  0.2506
12242SOL     OW42562   9.709  10.172   5.286 -0.0329 -0.5612 -0.4505
12242SOL    HW142563   9.659  10.101   5.325 -0.4357 -0.6730 -1.1416
12242SOL    HW242564   9.671  10.182   5.198  2.3428 -1.9005 -1.7296
12243SOL     OW42565   0.468  10.098   3.018  0.3907  0.2878 -0.4199
12243SOL    HW142566   0.469  10.055   3.104  0.5940  1.2661  0.0847
12243SOL    HW242567   0.492  10.029   2.956  1.6586 -0.1142  0.4731
12244SOL     OW42568   6.988  11.445   2.650 -0.6108  0.0695  0.1290
12244SOL    HW142569   6.982  11.444   2.554  2.6148  0.8123 -0.2040
12244SOL    HW242570   6.937  11.522   2.677  0.2792  1.1681 -1.2196
12245SOL     OW42571   8.835   4.371   1.297  0.1689 -0.6533 -0.3653
12245SOL    HW142572   8.787   4.410   1.370  2.7441  2.0301  0.1040
12245SOL    HW242573   8.846   4.279   1.322 -3.2770 -1.0480  0.1444
12246SOL     OW42574   3.914   1.503   4.846  0.3221  0.1248  0.1856
12246SOL    HW142575   3.962   1.559   4.785 -0.4788  0.2763 -0.3148
12246SOL    HW242576   3.823   1.506   4.816  0.3079 -1.6899 -0.0429
12247SOL     OW42577   7.377   8.981  10.658 -0.0093  0.4660  0.3233
12247SOL    HW142578   7.363   9.036  10.581  0.1188  0.1263  0.0565
12247SOL    HW242579   7.290   8.972  10.697 -0.0893  0.5615  0.1679
12248SOL     OW42580   2.391   0.049   3.815 -0.0207 -0.6345 -0.1330
12248SOL    HW142581   2.348  -0.001   3.745  0.1305 -2.6192  1.1016
12248SOL    HW242582   2.339   0.128   3.824 -3.2098 -2.6643  0.9491
12249SOL     OW42583   0.160   7.133   5.261  0.3020 -0.0544 -0.1649
12249SOL    HW142584   0.160   7.043   5.226 -2.3852  0.1584 -0.9474
12249SOL    HW242585   0.085   7.174   5.219  0.4509  2.0602  1.5093
12250SOL     OW42586   3.676   6.437   7.717  0.1163 -0.0656 -0.4176
12250SOL    HW142587   3.689   6.501   7.787  0.7475 -1.1642  0.4943
12250SOL    HW242588   3.764   6.407   7.695 -0.1531 -0.4359 -1.0155
12251SOL     OW42589   4.106   6.132   4.816 -0.0564  0.0926 -0.4584
12251SOL    HW142590   4.087   6.189   4.741 -0.6500  1.7493  0.8882
12251SOL    HW242591   4.163   6.064   4.780 -1.5620 -0.0839 -2.7513
12252SOL     OW42592   1.623   0.474   8.589 -0.6434 -0.1138  0.0525
12252SOL    HW142593   1.715   0.496   8.574 -1.1042  1.6166 -0.5197
12252SOL    HW242594   1.612   0.484   8.684 -0.2762 -0.2262  0.1113
12253SOL     OW42595   3.766   9.072   6.061  0.6090 -0.2385 -0.0370
12253SOL    HW142596   3.810   9.128   6.125  1.0202  0.0328 -0.5469
12253SOL    HW242597   3.838   9.029   6.014  0.3353 -3.0114  1.8743
12254SOL     OW42598   8.297   8.705   4.493 -0.0087 -0.1186 -0.1104
12254SOL    HW142599   8.262   8.618   4.515 -1.1780  0.3857  0.1288
12254SOL    HW242600   8.334   8.694   4.405 -1.9451 -0.4185 -0.9453
12255SOL     OW42601  11.041   9.448   0.063  0.6057 -0.0184  0.2711
12255SOL    HW142602  11.113   9.500   0.028 -0.3131  0.7664 -0.5114
12255SOL    HW242603  11.081   9.394   0.131  2.0168  0.0298 -0.4903
12256SOL     OW42604   7.732   4.619   2.605 -0.0568 -0.3007 -0.1374
12256SOL    HW142605   7.688   4.624   2.690  1.8490 -1.5639  0.9960
12256SOL    HW242606   7.662   4.597   2.543 -1.8192  2.4141  0.7168
12257SOL     OW42607   6.024  11.450   1.076 -0.3775 -0.1585 -0.2592
12257SOL    HW142608   6.081  11.502   1.133 -1.8516  1.0093  0.2025
12257SOL    HW242609   6.027  11.362   1.113  0.2462  0.1326  0.4171
12258SOL     OW42610   4.467   6.677   1.333 -0.6413 -0.5842  0.3106
12258SOL    HW142611   4.436   6.703   1.246 -0.4991 -1.7810 -0.1171
12258SOL    HW242612   4.531   6.744   1.357 -0.5136 -0.3631 -0.6060
12259SOL     OW42613   5.513   8.665   5.334  0.2483  0.1662 -0.1669
12259SOL    HW142614   5.494   8.571   5.337 -0.7689  0.3444 -0.8062
12259SOL    HW242615   5.480   8.699   5.417 -0.2648  0.1190 -0.3520
12260SOL     OW42616   0.084   0.195   8.245  0.3069 -0.1961 -0.3312
12260SOL    HW142617   0.160   0.189   8.303  0.1664 -0.9399 -0.2102
12260SOL    HW242618   0.078   0.287   8.222  1.8879 -0.2822 -1.2024
12261SOL     OW42619   5.821  10.593   2.789  0.6452 -0.3328 -0.3743
12261SOL    HW142620   5.812  10.617   2.697  0.2611 -1.0942 -0.5415
12261SOL    HW242621   5.891  10.649   2.821  0.4553  0.2857 -1.0026
12262SOL     OW42622   0.091  11.925   8.592  0.7243  1.1746  0.1025
12262SOL    HW142623   0.133  11.952   8.674  1.8671 -1.0158  0.3014
12262SOL    HW242624   0.145  11.854   8.559 -0.0478  1.6169 -2.2944
12263SOL     OW42625   6.741   1.053   3.769 -0.0383  0.0498  0.3681
12263SOL    HW142626   6.686   1.000   3.712  0.2340  0.1284  0.0282
12263SOL    HW242627   6.701   1.045   3.856  0.1287 -0.8869  0.3694
12264SOL     OW42628  10.112   3.354   4.060 -0.0602  0.0573 -0.0064
12264SOL    HW142629  10.031   3.403   4.075 -1.1810 -1.4583 -0.8511
12264SOL    HW242630  10.111   3.332   3.967  0.4838 -1.3806  0.2955
12265SOL     OW42631  11.136   9.312   9.121  0.4299  0.7037  1.0460
12265SOL    HW142632  11.141   9.398   9.163  0.5009  0.0567  2.4010
12265SOL    HW242633  11.047   9.282   9.137  0.1737  0.8212 -0.0656
12266SOL     OW42634  10.567   8.349   6.028 -0.1375 -0.2198 -0.4639
12266SOL    HW142635  10.602   8.310   5.947 -0.7750  1.3406 -1.5362
12266SOL    HW242636  10.622   8.312   6.097  0.5401 -1.4840 -1.6063
12267SOL     OW42637   9.497   9.077   6.738 -0.2221  0.3627  0.2096
12267SOL    HW142638   9.422   9.129   6.769  0.8779  2.7073 -0.7787
12267SOL    HW242639   9.458   8.997   6.704 -2.2388  1.2189  0.3167
12268SOL     OW42640   1.166   4.861   9.787  0.4458  0.1944 -0.5028
12268SOL    HW142641   1.224   4.891   9.717  0.7431  0.4722 -0.1395
12268SOL    HW242642   1.223   4.807   9.843  0.5642  1.1414  0.3105
12269SOL     OW42643   4.099   7.071   1.782 -0.5321 -0.2757 -0.6440
12269SOL    HW142644   4.117   7.110   1.868 -0.6861 -1.2769 -0.1366
12269SOL    HW242645   4.185   7.044   1.750 -0.6922 -2.2113  0.3726
12270SOL     OW42646   8.855  10.450   2.601 -0.3072 -0.3801 -0.4053
12270SOL    HW142647   8.885  10.517   2.540  0.3686  0.9463  1.3178
12270SOL    HW242648   8.844  10.495   2.684  0.5217 -2.4567  0.9206
12271SOL     OW42649   6.091   2.131   8.423  0.3669 -0.1363 -0.1906
12271SOL    HW142650   6.038   2.209   8.440 -0.5664 -1.1305  1.8932
12271SOL    HW242651   6.031   2.071   8.379  0.0472 -0.8277  1.1218
12272SOL     OW42652   8.870  10.250   4.424  0.0513  0.6349 -0.2742
12272SOL    HW142653   8.872  10.339   4.461 -1.5130  0.5446  0.1053
12272SOL    HW242654   8.888  10.193   4.499  0.0680  0.5911 -0.3116
12273SOL     OW42655   2.640  11.415   5.910  0.2405 -0.7182 -0.1534
12273SOL    HW142656   2.701  11.343   5.925 -0.8867 -1.4648  1.0517
12273SOL    HW242657   2.687  11.475   5.852  1.7878 -1.6628  0.0817
12274SOL     OW42658   8.595   6.522   7.472 -0.2752  0.2255 -0.3850
12274SOL    HW142659   8.603   6.483   7.385 -1.2067  0.0331 -0.3916
12274SOL    HW242660   8.526   6.473   7.514 -0.1826  0.6580  0.2871
12275SOL     OW42661   9.266   7.165   7.469  0.4374  0.2576  0.3494
12275SOL    HW142662   9.181   7.205   7.488 -0.0475 -1.1796  1.4075
12275SOL    HW242663   9.244   7.083   7.424  1.3261  0.4084 -0.3911
12276SOL     OW42664   3.342   0.973   5.582 -0.4547 -0.2700  0.1864
12276SOL    HW142665   3.289   0.959   5.661 -1.1199  2.4691  0.3074
12276SOL    HW242666   3.299   1.045   5.536  1.5814  0.1449 -1.2137
12277SOL     OW42667  11.469   3.190   0.346  0.2319 -0.5924  0.0509
12277SOL    HW142668  11.438   3.118   0.292  1.5663 -1.0990 -0.0732
12277SOL    HW242669  11.474   3.153   0.435  0.1549 -0.4106  0.1317
12278SOL     OW42670   8.598   6.514   8.254 -0.3131  0.0980 -0.0379
12278SOL    HW142671   8.608   6.503   8.159 -0.3819  1.0054 -0.1611
12278SOL    HW242672   8.506   6.498   8.271 -0.3346  0.0967 -0.1548
12279SOL     OW42673   1.448   8.767  10.524 -0.3896  0.6787 -0.8048
12279SOL    HW142674   1.459   8.733  10.613  1.2097 -0.0460 -1.2459
12279SOL    HW242675   1.361   8.738  10.497 -0.1894 -0.6032 -0.1160
12280SOL     OW42676   0.701   4.293   3.115 -0.2018 -0.3948 -0.0022
12280SOL    HW142677   0.630   4.330   3.063  0.3116 -0.2290 -0.6055
12280SOL    HW242678   0.781   4.322   3.070  0.3290  1.2432  1.8560
12281SOL     OW42679   5.387   6.764   1.347  0.0330 -0.6633 -0.4857
12281SOL    HW142680   5.391   6.711   1.267  0.6401  0.1171 -0.9876
12281SOL    HW242681   5.479   6.782   1.368 -0.1829  1.0719 -0.9246
12282SOL     OW42682   0.451   9.053   8.238  0.5150 -0.4901  0.1940
12282SOL    HW142683   0.491   9.119   8.182 -2.2611 -0.8710 -2.5128
12282SOL    HW242684   0.501   8.973   8.222  1.7747  0.1414  0.8580
12283SOL     OW42685   4.148   1.334   5.102  0.4488 -0.0419  0.0772
12283SOL    HW142686   4.183   1.364   5.018 -0.5536  1.6291  0.2078
12283SOL    HW242687   4.163   1.406   5.162 -2.5691  0.5485  0.2735
12284SOL     OW42688   7.805   7.726  12.141  0.0448 -0.5145 -0.1258
12284SOL    HW142689   7.865   7.651  12.140  0.1915 -0.4035  0.2109
12284SOL    HW242690   7.736   7.702  12.080  0.5194 -0.5760 -0.6542
12285SOL     OW42691  11.220   4.390   1.801 -0.4498 -0.2234 -0.0350
12285SOL    HW142692  11.234   4.350   1.886 -0.6061  1.7735  0.9782
12285SOL    HW242693  11.125   4.388   1.788 -0.3764 -1.1282 -0.4854
12286SOL     OW42694  10.990  10.312   9.386 -0.2586 -0.0849 -0.5593
12286SOL    HW142695  10.918  10.251   9.400  0.0281  0.1723  2.7863
12286SOL    HW242696  10.952  10.398   9.401  0.3292  0.1955 -0.6310
12287SOL     OW42697   7.014   8.094  10.803 -0.0845 -0.2381  0.3689
12287SOL    HW142698   7.037   8.095  10.711  1.4704  1.4672  0.7294
12287SOL    HW242699   7.027   8.003  10.830  0.6431 -0.4999 -0.7988
12288SOL     OW42700  10.460   9.797   1.625  0.2163  0.1294 -0.0878
12288SOL    HW142701  10.450   9.867   1.688 -0.0797  0.7765 -0.8331
12288SOL    HW242702  10.488   9.840   1.544 -1.2634 -0.4114 -0.9382
12289SOL     OW42703  10.007   9.990   1.941 -0.0449  0.2616  0.1828
12289SOL    HW142704   9.954  10.061   1.978 -0.0709  2.7824 -3.9661
12289SOL    HW242705   9.945   9.938   1.890  0.8050  1.0989 -1.8087
12290SOL     OW42706   2.521   7.364   8.096 -0.0993  0.4085 -0.1610
12290SOL    HW142707   2.451   7.304   8.070  0.1732 -0.5577  1.2032
12290SOL    HW242708   2.595   7.341   8.041 -0.2023 -0.0641 -0.1030
12291SOL     OW42709   1.871   9.366   7.233  0.1408  0.1709  0.2990
12291SOL    HW142710   1.842   9.278   7.208  1.2893 -0.0272 -0.4318
12291SOL    HW242711   1.830   9.424   7.169  0.0542  0.0855  0.2762
12292SOL     OW42712  11.179   9.172  12.099 -0.1320 -0.0934  0.2231
12292SOL    HW142713  11.159   9.118  12.176 -0.4434  1.3784  1.2322
12292SOL    HW242714  11.106   9.234  12.095 -0.1101 -0.1383 -1.2863
12293SOL     OW42715  10.104   4.768   3.974 -0.3839  0.1457 -0.0447
12293SOL    HW142716  10.127   4.859   3.993 -0.5195  0.1135  0.2899
12293SOL    HW242717  10.069   4.735   4.057 -0.5855 -0.1324 -0.2403
12294SOL     OW42718  11.488   3.095   3.555 -0.1674 -0.2722 -0.1696
12294SOL    HW142719  11.525   3.062   3.636 -1.9828  1.8328  1.6513
12294SOL    HW242720  11.403   3.052   3.548  0.5247 -1.5027 -1.7923
12295SOL     OW42721   9.919  11.838  10.043 -0.0832  0.2340 -0.5344
12295SOL    HW142722   9.866  11.792  10.108 -1.5297  2.4135 -0.0309
12295SOL    HW242723   9.986  11.884  10.095  2.7135 -2.7690 -1.1913
12296SOL     OW42724   3.624   7.915  10.398 -0.0026  0.4281  0.3459
12296SOL    HW142725   3.552   7.979  10.399  0.7866  1.3573 -0.0544
12296SOL    HW242726   3.583   7.833  10.372 -0.7388  1.1994 -1.0864
12297SOL     OW42727   6.957   4.516   4.576  0.6179  0.3101 -0.8870
12297SOL    HW142728   7.023   4.461   4.619 -2.2823 -2.1381  0.8791
12297SOL    HW242729   6.900   4.545   4.647 -0.8215  1.4579 -2.4346
12298SOL     OW42730   6.141   4.014  10.829 -0.3119 -0.4593  0.8573
12298SOL    HW142731   6.225   4.000  10.785  0.0768  0.6124  1.2185
12298SOL    HW242732   6.101   3.927  10.834  1.1251 -1.1145  1.3906
12299SOL     OW42733   8.883   9.663   1.593  0.3389  0.2900 -0.4722
12299SOL    HW142734   8.945   9.725   1.554  1.3254  1.5602  2.7763
12299SOL    HW242735   8.936   9.612   1.654 -0.7004 -3.0677 -2.1142
12300SOL     OW42736   4.157   4.112   3.109 -0.5368  0.0551 -0.6930
12300SOL    HW142737   4.179   4.190   3.058 -0.2485 -0.8859 -2.0661
12300SOL    HW242738   4.232   4.101   3.168 -0.6835  0.9300 -0.3278
12301SOL     OW42739  11.810   2.993   0.305  0.5641  0.1902 -0.3812
12301SOL    HW142740  11.788   3.034   0.389 -1.6506 -1.5481 -0.0041
12301SOL    HW242741  11.797   3.063   0.240 -0.8998  0.7191  0.4359
12302SOL     OW42742   7.859   9.061   9.741 -0.6848 -0.9448 -0.2663
12302SOL    HW142743   7.803   9.091   9.670 -0.8724 -0.7386 -0.0356
12302SOL    HW242744   7.862   9.135   9.801  1.3955 -0.2134 -1.1855
12303SOL     OW42745   5.543   8.843   4.838 -0.3156  0.6056 -0.0512
12303SOL    HW142746   5.463   8.890   4.860  0.7187  1.5507  1.9099
12303SOL    HW242747   5.527   8.753   4.867 -1.5359  0.1380 -1.9600
12304SOL     OW42748   2.782   5.556   4.068 -0.4898 -0.4970 -0.0773
12304SOL    HW142749   2.770   5.463   4.048  0.2628 -0.4570 -0.7420
12304SOL    HW242750   2.791   5.558   4.163  0.5832 -1.2379 -0.1503
12305SOL     OW42751   5.751   0.446   6.813 -0.1385 -0.2522 -0.3567
12305SOL    HW142752   5.716   0.474   6.728 -0.3563 -0.0999 -0.2167
12305SOL    HW242753   5.763   0.527   6.862  0.6104 -0.2854 -0.4793
12306SOL     OW42754   0.310   7.432   1.987  0.0210 -0.4169  0.1390
12306SOL    HW142755   0.396   7.460   1.954 -0.8775 -0.0765 -2.0963
12306SOL    HW242756   0.301   7.342   1.955 -0.7095 -0.2302 -0.1876
12307SOL     OW42757  10.924   8.875   6.326  0.0808  0.1660 -0.1723
12307SOL    HW142758  10.873   8.951   6.298  1.3871  0.5131 -1.7162
12307SOL    HW242759  11.004   8.911   6.362  0.3102 -0.4585 -0.0471
12308SOL     OW42760   6.795   6.151   0.838  0.2549 -0.1525 -0.0582
12308SOL    HW142761   6.835   6.198   0.765  0.3510 -0.0739  0.0442
12308SOL    HW242762   6.745   6.218   0.885  2.1401  0.3462  1.3496
12309SOL     OW42763  12.316   4.837   3.067  0.0027 -0.6112 -0.4324
12309SOL    HW142764  12.237   4.890   3.067  0.0659 -0.5120 -0.9201
12309SOL    HW242765  12.364   4.865   3.145  0.4242  0.6522 -1.1127
12310SOL     OW42766  10.744  12.253   0.708  0.6276 -0.1544 -0.1079
12310SOL    HW142767  10.711  12.216   0.627 -1.2507  0.7037  0.2064
12310SOL    HW242768  10.790  12.181   0.751  0.1858 -1.0898 -1.1529
12311SOL     OW42769   4.159   5.050  11.158 -0.4859  0.4597  0.3997
12311SOL    HW142770   4.216   5.116  11.118 -0.5101 -0.1568 -0.6937
12311SOL    HW242771   4.177   4.970  11.107 -0.0266 -0.5325  2.0464
12312SOL     OW42772   9.040   7.171  12.300  0.8157  0.1658 -0.8790
12312SOL    HW142773   9.125   7.188  12.339  1.3229  0.3444 -2.0027
12312SOL    HW242774   9.050   7.085  12.258 -0.1200 -0.6196  0.4569
12313SOL     OW42775   7.939   8.986   6.020 -0.5791  0.0922  0.2803
12313SOL    HW142776   7.864   9.029   6.062 -0.3084 -0.7440  1.6693
12313SOL    HW242777   8.006   8.982   6.089  0.8002  0.9227 -0.9642
12314SOL     OW42778   0.922   3.089   6.410 -0.7435 -0.4351  0.2564
12314SOL    HW142779   1.002   3.069   6.459 -0.8839 -0.1689  0.5920
12314SOL    HW242780   0.871   3.146   6.467 -0.7196  0.2269 -0.3680
12315SOL     OW42781   8.742   4.357   8.824  0.3770 -0.2497 -0.0581
12315SOL    HW142782   8.762   4.314   8.907  0.6973  0.1376  0.0631
12315SOL    HW242783   8.717   4.446   8.848  2.2092  0.4107 -0.5075
12316SOL     OW42784   4.078  10.429   2.527 -0.7544  0.0256  0.3324
12316SOL    HW142785   4.030  10.462   2.603  0.9716  0.2719  1.3710
12316SOL    HW242786   4.159  10.480   2.525 -0.5772 -0.2533 -1.4553
12317SOL     OW42787   4.916   2.929   5.443 -0.6797 -0.1550 -0.5245
12317SOL    HW142788   4.913   2.952   5.536  0.6612  0.5654 -0.6397
12317SOL    HW242789   4.824   2.921   5.418 -1.0808  0.3582  0.6981
12318SOL     OW42790   4.011   9.699  10.898 -0.1930  0.8464  0.1302
12318SOL    HW142791   4.020   9.793  10.881  1.0750  0.7423  0.1593
12318SOL    HW242792   4.035   9.657  10.815  1.1173  0.4972  0.6661
12319SOL     OW42793   9.086   0.011   2.099 -0.3759 -0.8447  0.1829
12319SOL    HW142794   9.079  -0.002   2.193 -0.4077 -1.5962  0.0768
12319SOL    HW242795   9.177  -0.009   2.078 -0.4583 -1.0383 -0.0006
12320SOL     OW42796   9.225   1.191  10.916  0.2694 -0.3030 -0.3482
12320SOL    HW142797   9.227   1.284  10.891 -0.2084 -0.1998 -0.0058
12320SOL    HW242798   9.300   1.153  10.870  1.5969  0.6150  0.9421
12321SOL     OW42799   3.668   9.167   5.581 -0.0670  0.6258 -0.0704
12321SOL    HW142800   3.746   9.216   5.556  0.8431 -0.9146 -0.4145
12321SOL    HW242801   3.662   9.098   5.515 -1.4904  0.4628  0.2023
12322SOL     OW42802  11.687   8.784   0.301  0.3167  0.5126  0.6534
12322SOL    HW142803  11.711   8.872   0.272 -0.9441  0.2647 -1.3520
12322SOL    HW242804  11.721   8.726   0.233  0.6496 -0.5209  1.6735
12323SOL     OW42805   0.096   7.864   3.410 -0.7296 -0.1005  0.0097
12323SOL    HW142806   0.080   7.950   3.450  1.5796 -0.0920  1.0703
12323SOL    HW242807   0.025   7.809   3.443 -0.3415  0.5652  2.1399
12324SOL     OW42808   3.803  10.955   1.216  0.0145  0.2388  0.5656
12324SOL    HW142809   3.790  11.014   1.289  0.1776  1.4090 -0.3254
12324SOL    HW242810   3.715  10.927   1.191 -0.3311  2.3605 -0.7970
12325SOL     OW42811   9.814   0.158   9.137  0.6971  0.1882 -0.1073
12325SOL    HW142812   9.835   0.247   9.164 -0.2980  0.7768 -1.1661
12325SOL    HW242813   9.828   0.157   9.043  2.2732 -1.2774  0.0860
12326SOL     OW42814   4.457   0.556   4.680 -0.5153  0.0138  0.7433
12326SOL    HW142815   4.405   0.512   4.612  1.1812 -1.1945  0.1721
12326SOL    HW242816   4.440   0.506   4.759 -1.6928  0.8095  1.0333
12327SOL     OW42817   5.218   9.323  10.265 -0.5147  0.0206  0.1623
12327SOL    HW142818   5.150   9.342  10.200  0.0176  3.7253  0.4553
12327SOL    HW242819   5.296   9.306  10.212 -1.0981 -1.8692 -0.1469
12328SOL     OW42820   9.791   1.731   6.290  0.2698 -0.5567  0.6491
12328SOL    HW142821   9.772   1.645   6.253  0.7823 -0.0944 -0.7210
12328SOL    HW242822   9.802   1.715   6.384 -0.9421 -1.7660  0.6051
12329SOL     OW42823   5.798   6.307   1.000 -0.3158  0.5003 -0.2569
12329SOL    HW142824   5.781   6.217   1.027 -0.8395  0.8674  0.6480
12329SOL    HW242825   5.884   6.302   0.957 -0.8162 -0.6188 -1.2047
12330SOL     OW42826   0.078   2.781   3.852  0.1372  0.3503  0.0748
12330SOL    HW142827   0.069   2.852   3.916 -1.4074  0.6950 -0.4823
12330SOL    HW242828   0.142   2.814   3.789  0.0889  0.8978  0.3050
12331SOL     OW42829  11.705   3.528   1.874  0.6442  0.1468 -0.9180
12331SOL    HW142830  11.742   3.454   1.921  0.1668 -0.1817 -1.0632
12331SOL    HW242831  11.751   3.604   1.910  1.5426 -0.2620 -1.1652
12332SOL     OW42832   6.839   2.939   9.969 -0.0809 -0.1699  0.3688
12332SOL    HW142833   6.845   3.031   9.944 -1.0029 -0.7662 -2.4248
12332SOL    HW242834   6.929   2.907   9.964 -0.0151  0.1398 -0.7225
12333SOL     OW42835   1.436   6.821   0.319  0.3009 -0.0783  0.1536
12333SOL    HW142836   1.514   6.772   0.346  0.5084 -1.0755 -2.0135
12333SOL    HW242837   1.420   6.882   0.391  1.2502 -1.9187  2.0584
12334SOL     OW42838   9.043   7.357   9.426 -0.3347 -0.0897 -0.5478
12334SOL    HW142839   9.056   7.447   9.397 -0.1479  0.2061  0.4306
12334SOL    HW242840   9.086   7.352   9.511 -1.3408 -0.7973 -0.0645
12335SOL     OW42841   7.112   8.640  11.674  0.3710 -0.0466 -0.0153
12335SOL    HW142842   7.173   8.675  11.609  0.0433  3.0549  1.1504
12335SOL    HW242843   7.168   8.618  11.749  0.3503  0.4526  0.1543
12336SOL     OW42844   5.702   8.424   6.336 -0.1105 -0.1089  0.4697
12336SOL    HW142845   5.721   8.355   6.272 -0.9413 -0.7296  0.8728
12336SOL    HW242846   5.743   8.394   6.417  0.4968  0.4250  0.3612
12337SOL     OW42847  12.208   5.608   5.908  0.6231  0.2755  0.1796
12337SOL    HW142848  12.207   5.607   5.812  0.2591  2.6974  0.0880
12337SOL    HW242849  12.265   5.681   5.931  1.0382 -0.5163  1.8525
12338SOL     OW42850   6.072   1.978   2.447  0.0366 -0.4651  0.0380
12338SOL    HW142851   6.112   2.001   2.363 -0.0102  0.4484  0.2579
12338SOL    HW242852   6.143   1.982   2.510  0.0458 -1.0288  0.0672
12339SOL     OW42853   0.471   8.422   6.999  0.1182  0.1473 -0.2546
12339SOL    HW142854   0.396   8.380   7.040 -0.9279  1.2303 -0.9649
12339SOL    HW242855   0.448   8.426   6.906  1.2905  0.0306 -0.5585
12340SOL     OW42856  11.164   7.206   1.328 -0.3926  0.0727 -0.2602
12340SOL    HW142857  11.076   7.206   1.290 -0.6418  1.1025  0.3001
12340SOL    HW242858  11.150   7.203   1.423  0.1768  0.3269 -0.1607
12341SOL     OW42859   0.188  10.858  10.251 -0.5908  0.2564 -0.4075
12341SOL    HW142860   0.260  10.884  10.308  0.6063 -0.8514 -1.3542
12341SOL    HW242861   0.123  10.928  10.260 -0.1416  0.4674  1.7416
12342SOL     OW42862  11.856   8.622  11.826 -0.1503 -0.5343 -0.3259
12342SOL    HW142863  11.851   8.712  11.795  1.1633  0.2826  1.6635
12342SOL    HW242864  11.764   8.594  11.833 -0.5438 -0.1477 -2.9522
12343SOL     OW42865   8.416   5.442   6.136  0.2810 -0.4432 -0.4836
12343SOL    HW142866   8.460   5.388   6.070 -0.2937  0.8067 -1.9518
12343SOL    HW242867   8.478   5.513   6.154  0.5466 -0.9234  0.5460
12344SOL     OW42868   8.329   2.508  11.688 -0.0697 -0.4841 -0.0696
12344SOL    HW142869   8.297   2.585  11.640 -0.9641 -0.0479  1.1793
12344SOL    HW242870   8.393   2.469  11.629 -0.8312  0.2516 -1.4470
12345SOL     OW42871   0.635   8.077   7.666 -0.2101 -0.4662  0.1030
12345SOL    HW142872   0.608   8.009   7.604  2.4007 -1.7000  0.2297
12345SOL    HW242873   0.593   8.053   7.749  1.3923 -2.4801  0.3738
12346SOL     OW42874   6.129   0.972   0.899  0.5038  0.5482  0.0113
12346SOL    HW142875   6.181   0.902   0.861 -1.0465  0.9269 -3.0852
12346SOL    HW242876   6.135   1.044   0.836 -1.2178  1.7356  1.1100
12347SOL     OW42877   1.137   5.230   4.886 -0.0405 -0.1827  0.2341
12347SOL    HW142878   1.203   5.262   4.824  1.1979  0.8596  1.9925
12347SOL    HW242879   1.162   5.139   4.902  0.0372 -0.2567 -0.2861
12348SOL     OW42880  10.325   4.792   2.563  0.2731 -0.3730  0.2446
12348SOL    HW142881  10.353   4.838   2.484  1.7872 -1.6899 -0.0409
12348SOL    HW242882  10.230   4.787   2.555  0.3862 -0.4696 -1.5037
12349SOL     OW42883   6.192   5.716   6.096  0.0715  0.1420  0.2906
12349SOL    HW142884   6.120   5.690   6.039  1.0199  0.6420 -1.2240
12349SOL    HW242885   6.236   5.634   6.118 -0.5549 -0.0985  0.6474
12350SOL     OW42886   5.411  11.870   0.888 -0.8341  0.1328 -0.3671
12350SOL    HW142887   5.471  11.943   0.870  1.4131 -0.9679  2.1192
12350SOL    HW242888   5.453  11.794   0.848 -1.3745 -0.4093  0.0841
12351SOL     OW42889   7.780  11.377   3.242 -0.2799 -0.1795  0.6198
12351SOL    HW142890   7.754  11.465   3.267 -2.5904 -0.3467 -0.8910
12351SOL    HW242891   7.768  11.324   3.321  0.5402  0.7095  1.3581
12352SOL     OW42892   5.547  10.722   4.987  0.4646  0.0463  0.3870
12352SOL    HW142893   5.478  10.762   5.040  0.3802 -0.1033  0.3902
12352SOL    HW242894   5.564  10.787   4.918  1.6976  0.9520  1.5034
12353SOL     OW42895  10.907   2.696   2.460 -0.1234 -0.0276  0.2061
12353SOL    HW142896  10.926   2.708   2.367 -2.1646 -1.6973 -0.5102
12353SOL    HW242897  10.984   2.652   2.494  0.1285 -0.6018 -1.0294
12354SOL     OW42898  11.287   9.746   6.063 -0.2096  0.1315 -0.5020
12354SOL    HW142899  11.224   9.690   6.108  0.2281  0.4795  0.5988
12354SOL    HW242900  11.350   9.685   6.024 -1.3356 -0.2286 -1.8396
12355SOL     OW42901   9.519   2.760   6.491  0.0172  0.3458 -0.0634
12355SOL    HW142902   9.503   2.731   6.581 -1.9049 -0.4452 -0.6107
12355SOL    HW242903   9.438   2.739   6.444  0.5019  1.8878 -1.7027
12356SOL     OW42904   3.154   1.319   1.321 -0.6147 -0.1931 -0.0915
12356SOL    HW142905   3.242   1.281   1.317 -1.1800 -1.8774  1.7434
12356SOL    HW242906   3.128   1.328   1.229  1.0470 -0.6604 -0.6510
12357SOL     OW42907   4.134   2.907   3.411 -0.0952  0.2478 -0.0710
12357SOL    HW142908   4.228   2.923   3.421  0.4137  0.0879 -3.4334
12357SOL    HW242909   4.128   2.812   3.396 -0.8317  0.2130  0.4393
12358SOL     OW42910   2.087   9.330   0.068  0.1298  0.1913  0.1570
12358SOL    HW142911   2.124   9.272   0.001  1.4227  0.8630  0.2657
12358SOL    HW242912   2.004   9.360   0.031 -0.3224 -1.3039 -0.1169
12359SOL     OW42913   9.686   0.556   1.580  0.2040  0.1483  0.0073
12359SOL    HW142914   9.644   0.614   1.644  0.3622 -1.2106  1.3926
12359SOL    HW242915   9.631   0.478   1.578 -0.0231  0.3019 -1.8502
12360SOL     OW42916   9.413   9.245  11.730 -0.3251 -0.4673  0.2637
12360SOL    HW142917   9.480   9.270  11.666  0.7033  1.9695  2.1277
12360SOL    HW242918   9.346   9.313  11.721 -2.1776 -2.3381 -0.8957
12361SOL     OW42919   6.558   4.924  11.505 -0.1592 -0.1020  0.7244
12361SOL    HW142920   6.596   4.999  11.549  0.8999  1.1190 -2.0457
12361SOL    HW242921   6.469   4.919  11.539  0.3276  1.2439  2.3212
12362SOL     OW42922   7.512  11.091   9.845 -0.0169 -0.4203  0.4354
12362SOL    HW142923   7.605  11.097   9.823 -0.5861  1.1693 -1.9742
12362SOL    HW242924   7.481  11.013   9.799 -0.3454  0.4753 -0.9029
12363SOL     OW42925   5.557   4.444   6.935 -0.3612  0.4120 -0.5182
12363SOL    HW142926   5.636   4.437   6.881 -0.6409  0.8556 -0.9983
12363SOL    HW242927   5.501   4.372   6.907 -1.3476  1.7830 -2.2651
12364SOL     OW42928   4.353  10.443   8.547 -0.0970 -0.0058  0.3226
12364SOL    HW142929   4.301  10.477   8.474  0.7991  0.4457 -0.1313
12364SOL    HW242930   4.292  10.436   8.620 -1.1574 -1.0591 -0.6358
12365SOL     OW42931   2.365   7.828  11.809 -0.0858  0.0308 -0.0775
12365SOL    HW142932   2.442   7.784  11.772  0.3540 -0.1078  0.9621
12365SOL    HW242933   2.371   7.918  11.778  0.9733  0.2348  0.6636
12366SOL     OW42934   3.275   6.759   5.506 -0.4576 -0.1690  0.4525
12366SOL    HW142935   3.262   6.844   5.547  0.8239  0.8552 -1.1304
12366SOL    HW242936   3.207   6.754   5.438 -0.0474 -0.0451  0.0257
12367SOL     OW42937  12.052   6.839   4.226 -0.0174 -0.3939 -0.1267
12367SOL    HW142938  12.075   6.932   4.219 -0.3297 -0.2044  1.1575
12367SOL    HW242939  11.981   6.836   4.290 -0.9169 -1.3893 -1.1223
12368SOL     OW42940  10.317  11.525   4.016  0.2404  0.0161 -0.5744
12368SOL    HW142941  10.397  11.564   4.052  0.6188 -2.5059  1.6764
12368SOL    HW242942  10.349  11.453   3.960 -0.3189 -1.8151  1.3143
12369SOL     OW42943   5.679   3.268   0.926  0.5884  0.1264 -0.4443
12369SOL    HW142944   5.626   3.212   0.983  0.9394  1.1678  0.9365
12369SOL    HW242945   5.768   3.233   0.935  0.6472  0.3046 -0.3317
12370SOL     OW42946   5.491   5.292   0.065  0.1265 -0.6384  0.3173
12370SOL    HW142947   5.493   5.214   0.120  0.4835 -1.6163 -1.0195
12370SOL    HW242948   5.440   5.266  -0.012 -0.7569  0.8357  0.3737
12371SOL     OW42949   0.948   7.519   0.510  0.2726  0.4721  0.1178
12371SOL    HW142950   1.032   7.538   0.552  0.5880  0.1492 -0.3538
12371SOL    HW242951   0.964   7.535   0.417 -0.6681  2.0882  0.1833
12372SOL     OW42952  11.901   4.747   7.090 -0.3731  0.2151  0.4197
12372SOL    HW142953  11.908   4.662   7.049  0.2563  0.3537  0.2373
12372SOL    HW242954  11.950   4.806   7.034 -1.0771  0.7695  0.3625
12373SOL     OW42955   3.614   6.342   5.193  0.1721 -0.0428 -0.8304
12373SOL    HW142956   3.666   6.289   5.254  0.9345 -1.7094 -2.8179
12373SOL    HW242957   3.531   6.355   5.238  0.3164 -2.1119  0.1574
12374SOL     OW42958   9.174   2.760   1.322 -0.3145 -0.0095 -0.1538
12374SOL    HW142959   9.187   2.849   1.354 -0.1712  0.0080 -0.2593
12374SOL    HW242960   9.234   2.706   1.374  0.1113  0.0562 -0.5695
12375SOL     OW42961   5.608   3.098   3.850 -0.0276 -0.2192 -0.6695
12375SOL    HW142962   5.512   3.103   3.855 -0.0009  0.7848 -1.0843
12375SOL    HW242963   5.625   3.066   3.762  0.0492  0.8644 -1.0554
12376SOL     OW42964   4.369   9.021   8.104  0.1309  0.5699  0.2295
12376SOL    HW142965   4.374   8.988   8.193 -0.4148  1.1533  0.4808
12376SOL    HW242966   4.413   9.106   8.108 -1.6198  1.5154  0.4042
12377SOL     OW42967  12.096   5.342   5.916 -0.4049 -0.9032 -0.3023
12377SOL    HW142968  12.080   5.339   5.822 -1.2835 -1.1938 -0.1522
12377SOL    HW242969  12.099   5.435   5.937 -2.3051 -0.8178 -0.2949
12378SOL     OW42970   9.036   1.661   2.577 -0.2096 -0.1610  0.7368
12378SOL    HW142971   9.041   1.726   2.507 -0.7524 -1.2822 -0.3882
12378SOL    HW242972   9.022   1.712   2.657  0.8956  1.1781  0.1073
12379SOL     OW42973  10.136   0.533   9.467  0.6937  0.4846 -0.3334
12379SOL    HW142974  10.177   0.449   9.446 -2.9166 -1.2739 -1.0305
12379SOL    HW242975  10.157   0.589   9.393  1.2697 -0.5347 -0.9663
12380SOL     OW42976   1.280  10.984   6.919  0.1724  0.4715 -0.0417
12380SOL    HW142977   1.294  10.976   7.014 -0.0303 -0.8175 -0.0960
12380SOL    HW242978   1.190  11.015   6.911  0.1028  0.3400  0.1956
12381SOL     OW42979   6.116   3.764  11.424  0.2422  0.1839  1.0499
12381SOL    HW142980   6.051   3.697  11.446  1.8735 -1.4724  1.1015
12381SOL    HW242981   6.088   3.795  11.337 -0.7275 -0.3377  1.1529
12382SOL     OW42982   1.457   4.271  11.386 -0.2003  0.2217  0.6466
12382SOL    HW142983   1.489   4.264  11.296 -0.8343 -0.7967  0.4728
12382SOL    HW242984   1.518   4.218  11.437  0.4782  1.2447  0.9219
12383SOL     OW42985   9.325   2.032  12.297 -0.0167  0.5037 -0.0588
12383SOL    HW142986   9.270   2.111  12.297 -1.1306 -0.2544  0.0032
12383SOL    HW242987   9.363   2.030  12.385 -0.2883  0.7710  0.0666
12384SOL     OW42988  11.492   0.053   6.526  0.3350  0.3883 -0.3833
12384SOL    HW142989  11.483   0.050   6.431  0.7657 -1.1078 -0.4091
12384SOL    HW242990  11.586   0.052   6.541  0.2717  0.7987  0.0715
12385SOL     OW42991  12.093  10.078   1.309  0.1497 -0.0276 -0.1198
12385SOL    HW142992  12.168  10.136   1.318  0.6877 -0.5922 -0.7689
12385SOL    HW242993  12.123   9.994   1.345 -1.0108  0.3695  1.9251
12386SOL     OW42994   4.170   6.182   0.785 -0.1422  0.3597  0.2437
12386SOL    HW142995   4.106   6.181   0.714  1.1310 -0.5631 -0.9541
12386SOL    HW242996   4.138   6.116   0.846 -0.6252  0.2777 -0.0925
12387SOL     OW42997   6.483   6.515   6.804 -0.0803  0.1174  0.3028
12387SOL    HW142998   6.508   6.525   6.896  0.2871 -0.8694  0.3217
12387SOL    HW242999   6.452   6.425   6.797 -0.3945  0.2760 -0.4789
12388SOL     OW43000   9.020   3.925   8.513 -0.3028  0.0117 -0.2318
12388SOL    HW143001   9.044   3.912   8.421  1.6629  0.2949  0.2005
12388SOL    HW243002   9.042   4.016   8.530 -1.9419  0.3567  0.1873
12389SOL     OW43003   4.367   4.756   7.122  0.0707  0.1020 -0.8856
12389SOL    HW143004   4.292   4.784   7.070 -2.1954 -0.5494  1.8044
12389SOL    HW243005   4.381   4.665   7.096 -0.6160 -0.0267 -0.8256
12390SOL     OW43006   8.853   4.405   5.596 -0.2785 -0.5262  0.0508
12390SOL    HW143007   8.896   4.481   5.557 -0.1554 -0.5732  0.0955
12390SOL    HW243008   8.897   4.393   5.680 -0.4557 -0.5042  0.1486
12391SOL     OW43009   7.871   0.831   3.051  0.4550  0.0449  0.2502
12391SOL    HW143010   7.800   0.874   3.098 -0.2811 -0.2579 -0.5573
12391SOL    HW243011   7.901   0.897   2.988  0.3963 -0.0758  0.0952
12392SOL     OW43012   9.426   2.752  10.556 -0.0470 -0.0831  0.0797
12392SOL    HW143013   9.461   2.698  10.485  2.0525 -0.5741  1.3893
12392SOL    HW243014   9.340   2.781  10.525  0.9071 -0.0123 -2.7794
12393SOL     OW43015   8.935   8.063   0.854 -0.3658  0.3077  0.1962
12393SOL    HW143016   8.889   8.064   0.770  0.7328 -0.0362 -0.4364
12393SOL    HW243017   8.869   8.088   0.918 -1.8229 -1.6360 -0.4609
12394SOL     OW43018  11.748   4.324   4.191 -0.4040  0.2759  0.2010
12394SOL    HW143019  11.841   4.332   4.170 -0.7160 -1.3378 -2.1045
12394SOL    HW243020  11.740   4.238   4.233 -0.6856  1.0645  1.8707
12395SOL     OW43021   9.953   3.521   5.055  0.9272  0.1625  0.0779
12395SOL    HW143022   9.958   3.605   5.101  1.8469  0.5934 -0.7688
12395SOL    HW243023  10.036   3.478   5.075 -0.4799 -1.6886  2.5318
12396SOL     OW43024   2.722  11.748   2.477  0.4462 -0.0192  0.3795
12396SOL    HW143025   2.715  11.813   2.546  0.2131 -1.5063  1.8103
12396SOL    HW243026   2.642  11.697   2.483  0.7340 -0.6171 -0.5345
12397SOL     OW43027   5.029   1.153   9.125  0.1882  0.4869 -0.1598
12397SOL    HW143028   5.057   1.061   9.133  0.1455  0.5042  0.2227
12397SOL    HW243029   5.088   1.201   9.184 -0.2264  0.6102  0.1586
12398SOL     OW43030   3.916  10.451  10.667 -0.2155  0.4884  0.4442
12398SOL    HW143031   3.859  10.435  10.592  0.8632 -0.5111 -0.1869
12398SOL    HW243032   3.892  10.384  10.731  1.1436 -0.8225 -0.3666
12399SOL     OW43033   3.779   8.826   9.735 -0.5243 -0.3617 -0.1565
12399SOL    HW143034   3.699   8.777   9.720 -0.9297  0.4167 -0.5861
12399SOL    HW243035   3.803   8.860   9.649 -1.4885  2.0548  0.4402
12400SOL     OW43036   4.304   2.893  10.381  0.0606 -0.1340 -0.6609
12400SOL    HW143037   4.213   2.894  10.410 -0.4983 -3.5518 -1.8645
12400SOL    HW243038   4.352   2.937  10.451 -2.1382 -1.0481  1.5745
12401SOL     OW43039   2.730   3.952   0.880 -0.0917 -0.0046 -0.3207
12401SOL    HW143040   2.667   3.929   0.948 -0.2932  0.8563 -0.2073
12401SOL    HW243041   2.803   3.993   0.927 -0.0315  0.1945 -0.5853
12402SOL     OW43042  11.901   4.001   3.233  0.2558  1.1305 -0.1499
12402SOL    HW143043  11.840   3.977   3.303 -0.0859  3.0136  0.2673
12402SOL    HW243044  11.965   3.931   3.232 -0.9935 -0.0799  0.5192
12403SOL     OW43045   4.453   6.566   4.748  0.4794  0.1031  0.1974
12403SOL    HW143046   4.502   6.525   4.819 -1.3745 -0.2458  1.3528
12403SOL    HW243047   4.460   6.660   4.764 -1.4271  0.0073  2.0037
12404SOL     OW43048   7.882   0.415   8.829 -0.5160  0.2149 -0.0375
12404SOL    HW143049   7.809   0.404   8.890 -0.9032  0.9623 -0.3487
12404SOL    HW243050   7.959   0.424   8.885 -0.6756 -0.4755  0.2961
12405SOL     OW43051   0.296   9.255   4.669  0.1208  0.4097 -0.0093
12405SOL    HW143052   0.204   9.256   4.643  0.1862  2.2697 -0.2622
12405SOL    HW243053   0.341   9.210   4.597 -0.6072 -0.9183  0.3198
12406SOL     OW43054   4.858   5.798   3.334 -0.4352 -0.5603  0.3906
12406SOL    HW143055   4.860   5.785   3.429 -0.3446  1.0935  0.6516
12406SOL    HW243056   4.950   5.797   3.307 -0.4403 -0.6624  0.3757
12407SOL     OW43057  12.016   3.278   1.752  0.4352  0.4757  0.0699
12407SOL    HW143058  11.996   3.185   1.766  0.5895  0.4317  0.0071
12407SOL    HW243059  12.076   3.300   1.824  0.3746  0.5337  0.1023
12408SOL     OW43060   7.426   6.006   2.422  0.1140 -0.3006  0.1078
12408SOL    HW143061   7.386   5.922   2.445 -0.5750  0.1901  0.7507
12408SOL    HW243062   7.487   5.985   2.352  0.7344 -1.5168  0.9644
12409SOL     OW43063   7.066  11.272   3.113  0.1003  0.2513 -0.3716
12409SOL    HW143064   7.065  11.308   3.025 -0.7045  2.3925  0.4371
12409SOL    HW243065   7.154  11.289   3.146  0.8157 -1.7274 -1.1686
12410SOL     OW43066   8.451   8.439   4.728 -0.3439 -0.0719 -0.6908
12410SOL    HW143067   8.482   8.483   4.807 -0.2793 -3.8252  1.5713
12410SOL    HW243068   8.356   8.433   4.739 -0.2161 -1.6937 -0.2017
12411SOL     OW43069  11.974   6.267   0.860  0.0950  0.5501 -0.1375
12411SOL    HW143070  11.988   6.254   0.954 -1.1572 -2.9066 -0.2963
12411SOL    HW243071  12.062   6.278   0.824  1.0286 -2.2488  1.0181
12412SOL     OW43072   8.805   2.734   3.071  0.0798 -0.5440  0.1770
12412SOL    HW143073   8.876   2.794   3.047  0.0855 -0.7185 -0.2368
12412SOL    HW243074   8.747   2.787   3.125  0.3689 -0.3167  0.2721
12413SOL     OW43075   1.796   2.072   3.020  0.3395 -0.3313  0.0687
12413SOL    HW143076   1.701   2.059   3.023  0.1867  0.5455 -0.5981
12413SOL    HW243077   1.823   2.077   3.112 -0.2307 -0.7332  0.2631
12414SOL     OW43078   3.132   5.632  11.925 -0.0616  0.2616  0.3619
12414SOL    HW143079   3.154   5.539  11.915 -0.1360  0.3037 -0.1794
12414SOL    HW243080   3.076   5.635  12.003  0.5497 -0.0506  0.8210
12415SOL     OW43081   7.585   9.260   0.250 -0.0706 -0.1619  0.1742
12415SOL    HW143082   7.533   9.318   0.305  1.1751  0.3879  0.8295
12415SOL    HW243083   7.672   9.300   0.249  0.1614 -0.6424 -1.4885
12416SOL     OW43084   6.375   7.742   9.053 -0.3016 -0.3831  0.2649
12416SOL    HW143085   6.438   7.809   9.025 -2.6888  1.4087 -1.2660
12416SOL    HW243086   6.322   7.786   9.119 -2.4736 -0.3376 -1.3809
12417SOL     OW43087   7.766   1.352   9.709  0.6785  0.4457  0.4027
12417SOL    HW143088   7.718   1.418   9.759  1.0943  0.7142  0.4616
12417SOL    HW243089   7.712   1.273   9.713 -0.6168  1.2188 -1.0143
12418SOL     OW43090  12.073   2.098   6.403  0.0262  0.5225 -0.3284
12418SOL    HW143091  12.136   2.145   6.457  0.0297  1.1690 -0.8886
12418SOL    HW243092  12.125   2.037   6.351 -0.1306 -1.6617  1.8647
12419SOL     OW43093   2.148   4.945   0.167  0.0341  0.3884 -0.4969
12419SOL    HW143094   2.153   4.961   0.261  2.8100 -0.7048 -0.3533
12419SOL    HW243095   2.079   4.879   0.157  2.0731 -2.2293  1.3177
12420SOL     OW43096   6.387   9.585   6.854  0.4618 -0.1212  0.0634
12420SOL    HW143097   6.301   9.545   6.856  0.3973  0.0452  1.9791
12420SOL    HW243098   6.394   9.623   6.766 -1.6208  0.3393  0.0564
12421SOL     OW43099   7.775  10.604  12.195 -0.0979 -0.0392 -0.6771
12421SOL    HW143100   7.774  10.556  12.278 -1.7174  0.9524 -0.0759
12421SOL    HW243101   7.757  10.537  12.129  1.2096 -0.8416 -0.2720
12422SOL     OW43102   1.590   5.284   9.979  0.4673  0.0771  0.1610
12422SOL    HW143103   1.599   5.348  10.049 -1.1970  1.2076 -0.5975
12422SOL    HW243104   1.508   5.307   9.935 -0.3893 -2.7917  0.0452
12423SOL     OW43105  11.037   7.408   0.486  0.6674  0.3729 -0.2439
12423SOL    HW143106  10.968   7.375   0.428 -0.4098  0.0489  1.1631
12423SOL    HW243107  11.013   7.498   0.505  1.0677  0.5104 -0.3721
12424SOL     OW43108   0.972   6.424   2.355  0.7236  0.0425 -0.0856
12424SOL    HW143109   1.010   6.456   2.437  0.3839  0.4188 -0.0688
12424SOL    HW243110   1.029   6.352   2.328  1.4065  0.5580 -0.0297
12425SOL     OW43111   0.248  12.178   4.919  0.6296  0.4085 -0.3087
12425SOL    HW143112   0.264  12.154   5.010  1.2796 -1.1061 -0.7906
12425SOL    HW243113   0.153  12.194   4.915  0.2008 -1.6527  0.2024
12426SOL     OW43114   1.578   6.207  11.276  0.4212  0.1980  0.4284
12426SOL    HW143115   1.619   6.123  11.257  2.0861  1.4292 -1.9491
12426SOL    HW243116   1.618   6.234  11.359  1.7535 -0.2631 -0.0356
12427SOL     OW43117   0.592   7.871  10.512  0.1147 -0.6110  0.1095
12427SOL    HW143118   0.588   7.787  10.558 -0.5615  0.5489  2.3460
12427SOL    HW243119   0.649   7.926  10.567  1.1514  0.2055 -1.6857
12428SOL     OW43120   6.331   4.045   7.839 -0.0241 -0.4182  0.1406
12428SOL    HW143121   6.283   4.015   7.762 -0.2434 -3.3437  1.3055
12428SOL    HW243122   6.265   4.085   7.895 -0.6604 -1.9878  0.5504
12429SOL     OW43123   7.809   8.164  10.499  0.1632 -0.3280  0.2454
12429SOL    HW143124   7.825   8.118  10.416  0.0459 -0.5688  0.3531
12429SOL    HW243125   7.770   8.097  10.556  0.7908 -0.3225  0.6902
12430SOL     OW43126   7.734   6.587   3.790  0.0845 -0.1245  0.3983
12430SOL    HW143127   7.794   6.660   3.803 -0.5234  0.8750 -1.9044
12430SOL    HW243128   7.791   6.510   3.789  1.2287  0.6948 -0.7089
12431SOL     OW43129   5.291   6.327   8.132 -0.0438  0.0062  0.3764
12431SOL    HW143130   5.345   6.289   8.201 -0.2616 -1.2000 -0.0892
12431SOL    HW243131   5.354   6.366   8.071  0.1753  0.5989  0.9779
12432SOL     OW43132  10.631  10.414   4.857 -0.1239  0.0061 -0.3376
12432SOL    HW143133  10.599  10.389   4.944  3.4910 -1.1269  0.8523
12432SOL    HW243134  10.676  10.498   4.871 -0.3701  0.3215 -1.3508
12433SOL     OW43135   2.437   1.697   0.379 -0.3850  0.4818  0.0550
12433SOL    HW143136   2.460   1.629   0.316 -2.6446 -0.2880  0.0033
12433SOL    HW243137   2.425   1.776   0.326 -0.7797  0.1953 -0.2868
12434SOL     OW43138   2.284  11.115   1.368  0.6341 -0.5994 -0.3866
12434SOL    HW143139   2.341  11.040   1.352  1.3116  0.2591 -2.3348
12434SOL    HW243140   2.343  11.187   1.387 -0.0340 -0.6461  2.3131
12435SOL     OW43141   8.999   4.691   9.759  0.5079 -0.0194 -0.4112
12435SOL    HW143142   8.951   4.773   9.749 -0.0478 -0.2332  0.4548
12435SOL    HW243143   9.091   4.718   9.758  0.3278  0.6550  0.1415
12436SOL     OW43144   1.874   7.623  12.065 -0.4703 -0.0133 -0.3352
12436SOL    HW143145   1.809   7.679  12.108 -0.8427  0.0086 -0.9223
12436SOL    HW243146   1.849   7.534  12.089 -0.1277  0.0370  0.2473
12437SOL     OW43147   6.342   9.485   4.488 -0.2943  0.2476 -0.6508
12437SOL    HW143148   6.315   9.410   4.540  0.7484 -0.7863 -1.5607
12437SOL    HW243149   6.260   9.525   4.459 -0.8675 -0.1045  0.4253
12438SOL     OW43150   2.281   7.826  11.391  0.2417 -0.2189  0.7584
12438SOL    HW143151   2.319   7.912  11.373  1.5411 -0.4997  1.9508
12438SOL    HW243152   2.224   7.841  11.466 -0.1005 -0.2650  0.5083
12439SOL     OW43153   2.295   8.806  10.526  0.2390  0.1063 -0.1860
12439SOL    HW143154   2.315   8.726  10.574  1.1767  0.4997  0.0980
12439SOL    HW243155   2.350   8.873  10.566  0.4556  0.6116 -1.2867
12440SOL     OW43156   0.903   8.489   1.440  0.1876 -0.4221 -0.3349
12440SOL    HW143157   0.998   8.476   1.451  0.3245  0.4911 -0.3574
12440SOL    HW243158   0.872   8.513   1.527  0.4560  1.9767 -0.8229
12441SOL     OW43159   1.040   8.955   6.059 -0.9073  0.5687  0.1408
12441SOL    HW143160   1.000   9.037   6.091  1.6656  2.1216 -0.3444
12441SOL    HW243161   1.132   8.977   6.044 -0.0098 -2.5698  0.3537
12442SOL     OW43162   0.383   9.261   4.942 -0.3368  0.2254 -0.1344
12442SOL    HW143163   0.346   9.259   4.854 -0.0255 -0.1688 -0.2607
12442SOL    HW243164   0.322   9.208   4.994 -0.8131  0.9051  0.0083
12443SOL     OW43165  12.037   4.789   4.441 -0.0555 -0.5071  0.5368
12443SOL    HW143166  12.071   4.700   4.455  0.2843 -0.3253  0.8736
12443SOL    HW243167  12.089   4.823   4.368 -0.4449 -0.7183  0.1540
12444SOL     OW43168   2.197   4.263   7.759  0.0509  0.9968  0.0885
12444SOL    HW143169   2.103   4.265   7.743  0.2007  1.0126 -0.8453
12444SOL    HW243170   2.235   4.243   7.674  0.9486  1.9810  0.2453
12445SOL     OW43171   8.731   8.577   0.819  0.3652 -0.7851  0.1437
12445SOL    HW143172   8.799   8.560   0.753 -0.9773 -2.3370 -0.9404
12445SOL    HW243173   8.713   8.491   0.857 -1.2925 -0.5038  0.0657
12446SOL     OW43174   2.778   7.243   8.328 -0.7802 -0.1114  0.8350
12446SOL    HW143175   2.735   7.320   8.365 -1.5135 -0.6638  1.1565
12446SOL    HW243176   2.715   7.172   8.339 -0.4374 -0.5982 -0.1834
12447SOL     OW43177  12.271  10.543  11.668 -0.1499 -0.0646 -0.9710
12447SOL    HW143178  12.329  10.605  11.624  1.2576 -0.2870  0.4703
12447SOL    HW243179  12.328  10.493  11.726 -1.7792 -0.2915  0.5520
12448SOL     OW43180   3.037   1.284   3.627  0.0345  0.7957 -0.2804
12448SOL    HW143181   2.955   1.320   3.660 -0.7764  0.0418 -1.3741
12448SOL    HW243182   3.093   1.360   3.612 -0.0606  1.2489  1.4703
12449SOL     OW43183  10.470   5.904   6.913  0.4944 -0.4172 -0.1950
12449SOL    HW143184  10.524   5.885   6.990 -0.3195  1.2697  0.8763
12449SOL    HW243185  10.406   5.833   6.911  1.4370 -1.2875 -0.2240
12450SOL     OW43186   0.188   5.287   8.560 -0.0637  0.3291 -0.2712
12450SOL    HW143187   0.099   5.278   8.525 -0.4061  0.6686  0.4794
12450SOL    HW243188   0.188   5.372   8.604  0.2949 -0.1429  0.6727
12451SOL     OW43189   1.597   6.294   8.524  0.5220 -0.2414  0.3460
12451SOL    HW143190   1.579   6.324   8.435 -2.4652  0.5984  1.1191
12451SOL    HW243191   1.652   6.362   8.562  1.3147 -0.3048 -0.6394
12452SOL     OW43192   0.560   6.137   8.989 -0.3407  0.1752  0.4592
12452SOL    HW143193   0.620   6.163   9.059 -2.1056 -0.4025  2.3128
12452SOL    HW243194   0.478   6.181   9.011 -0.4330  1.7714 -2.5451
12453SOL     OW43195   8.325  11.388   5.646 -0.3571 -0.0418 -0.4333
12453SOL    HW143196   8.329  11.454   5.716  1.2943  0.2393 -0.7549
12453SOL    HW243197   8.242  11.405   5.602 -0.1763  1.5391 -0.2255
12454SOL     OW43198   1.569   2.001   3.240  0.2545 -0.5984 -0.7869
12454SOL    HW143199   1.548   2.062   3.169  1.5564  0.0365 -0.6542
12454SOL    HW243200   1.577   1.916   3.197 -0.3274 -0.4690 -1.1715
12455SOL     OW43201   3.525  12.114   8.220  0.3200  0.1008 -0.4271
12455SOL    HW143202   3.577  12.193   8.210  0.7200 -0.1026  0.0015
12455SOL    HW243203   3.569  12.064   8.289  1.0730 -1.2944 -1.8475
12456SOL     OW43204   8.491  11.021   4.248  0.5627  0.0020 -0.5967
12456SOL    HW143205   8.397  11.011   4.238  0.4254  1.4186 -0.9585
12456SOL    HW243206   8.518  10.944   4.299 -0.8532 -0.1778 -0.0666
12457SOL     OW43207   4.993   8.917   1.635  0.7547 -0.4619  0.4180
12457SOL    HW143208   4.930   8.986   1.615  1.0237 -0.8356 -2.0044
12457SOL    HW243209   4.979   8.897   1.728 -2.0490  0.0804  0.1841
12458SOL     OW43210   2.484   9.868   1.920 -0.0467  0.3758 -0.2605
12458SOL    HW143211   2.475   9.912   2.005  0.1181  1.1108 -0.6098
12458SOL    HW243212   2.403   9.889   1.873  0.2639  0.7756 -0.6316
12459SOL     OW43213  10.209   6.708   9.176  0.0813 -0.0937 -0.0099
12459SOL    HW143214  10.142   6.651   9.140 -0.5098  0.9583 -0.6205
12459SOL    HW243215  10.219   6.680   9.267  0.6804 -1.9433 -0.6042
12460SOL     OW43216   0.578   3.864   3.717  0.0761  0.5874  0.4032
12460SOL    HW143217   0.661   3.910   3.728 -0.7784  1.6163  3.6281
12460SOL    HW243218   0.602   3.779   3.681  2.2781  1.5924 -0.6857
12461SOL     OW43219   9.348   0.185   9.356  0.4526 -0.2978 -0.2597
12461SOL    HW143220   9.304   0.269   9.365 -1.3507 -1.1173 -0.8678
12461SOL    HW243221   9.441   0.206   9.355  0.0474  1.6537 -0.1962
12462SOL     OW43222  10.635   1.078  10.694  0.1311 -0.0628 -0.4598
12462SOL    HW143223  10.641   1.152  10.755 -0.9373 -1.2390  1.1566
12462SOL    HW243224  10.541   1.061  10.686  0.1179  0.8705 -3.5653
12463SOL     OW43225   8.823   3.425   6.495  0.1299  0.3257 -0.0884
12463SOL    HW143226   8.740   3.469   6.475  0.0927  0.3858  0.1950
12463SOL    HW243227   8.852   3.464   6.578  1.5761  1.9649 -1.2799
12464SOL     OW43228   6.442   8.356   2.760 -0.1706 -0.3077 -0.2376
12464SOL    HW143229   6.385   8.418   2.713 -0.4969  0.1365  0.7255
12464SOL    HW243230   6.530   8.380   2.733 -0.3676 -0.3377 -0.9482
12465SOL     OW43231   7.917   3.651   3.505 -0.2976 -0.4764 -0.3832
12465SOL    HW143232   7.856   3.582   3.530 -1.6835 -0.1696 -2.5834
12465SOL    HW243233   8.004   3.617   3.528 -0.9207 -3.0269 -1.4863
12466SOL     OW43234   6.567   6.367   3.248  0.4050  0.3401  0.4095
12466SOL    HW143235   6.606   6.439   3.297 -0.0303  0.0940  1.1150
12466SOL    HW243236   6.625   6.292   3.266 -0.2983  0.0078  1.3482
12467SOL     OW43237   8.607   7.321   8.364 -0.3108 -0.0961  0.1397
12467SOL    HW143238   8.699   7.345   8.350 -0.7254  2.3897  1.1369
12467SOL    HW243239   8.584   7.267   8.288  1.3615  1.0370 -1.2380
12468SOL     OW43240   5.598  11.385   4.722 -0.6861 -0.4304 -0.2004
12468SOL    HW143241   5.575  11.319   4.788 -2.0048 -0.8268 -1.0134
12468SOL    HW243242   5.519  11.394   4.669  0.0183  0.6205 -1.1132
12469SOL     OW43243   5.082   6.701   9.440  0.1049 -0.6722  0.0477
12469SOL    HW143244   5.071   6.729   9.349  0.1656 -1.1714 -0.1142
12469SOL    HW243245   4.994   6.705   9.477  0.3295  1.3024  0.4977
12470SOL     OW43246   2.956   5.181  11.344  0.2996 -0.0267  0.1721
12470SOL    HW143247   2.969   5.210  11.254  2.5206 -1.5673 -0.0773
12470SOL    HW243248   2.887   5.115  11.337  0.2737  0.0487 -0.3742
12471SOL     OW43249   6.183   7.500  10.282 -0.1883  0.1386  0.0453
12471SOL    HW143250   6.169   7.583  10.326 -2.2083  0.5554 -1.2442
12471SOL    HW243251   6.199   7.523  10.190 -1.3917 -0.8897 -0.4569
12472SOL     OW43252  11.773   1.869   0.460  0.0611  0.1387 -0.4489
12472SOL    HW143253  11.798   1.778   0.445 -1.9133 -0.5853  0.2199
12472SOL    HW243254  11.815   1.892   0.543 -1.1762 -0.9660  0.5383
12473SOL     OW43255   7.888   5.229   0.769  0.2098  0.0189 -0.5768
12473SOL    HW143256   7.953   5.222   0.839  2.0987  0.7216 -2.1789
12473SOL    HW243257   7.820   5.165   0.793  0.9549 -0.0071  1.6754
12474SOL     OW43258   1.070   2.831   6.952  0.3396  0.5997 -0.6877
12474SOL    HW143259   1.012   2.810   7.025 -0.2292  4.0228 -0.0284
12474SOL    HW243260   1.122   2.751   6.940 -0.7494 -0.6950  2.2758
12475SOL     OW43261   4.319   9.840   3.420  0.0527  0.1270 -0.0721
12475SOL    HW143262   4.302   9.891   3.499 -0.1747 -0.3233  0.1761
12475SOL    HW243263   4.249   9.775   3.418 -1.2790  1.5202 -1.8462
12476SOL     OW43264   5.703   7.103   5.837 -0.2053 -0.7303  0.4287
12476SOL    HW143265   5.776   7.112   5.776 -0.3328 -3.1149 -0.1911
12476SOL    HW243266   5.725   7.159   5.911  1.5128 -0.2462 -0.4146
12477SOL     OW43267   7.850   4.545  11.663  0.1329 -0.5897 -0.0666
12477SOL    HW143268   7.756   4.538  11.679  0.4403 -1.4694  1.5610
12477SOL    HW243269   7.857   4.606  11.590 -1.7651 -1.5323 -1.1224
12478SOL     OW43270   1.067   9.976   7.054 -0.1489 -0.1122 -0.0752
12478SOL    HW143271   1.116  10.036   7.109 -0.0795 -1.4517  1.4001
12478SOL    HW243272   1.113   9.975   6.970  1.3171 -0.0211  0.7120
12479SOL     OW43273  12.093   7.859   5.866  0.4094  0.3939  0.4112
12479SOL    HW143274  12.138   7.909   5.799 -0.3247  2.1711  1.1723
12479SOL    HW243275  12.067   7.924   5.931 -2.3868 -0.6346  0.4805
12480SOL     OW43276   9.005   1.042   3.407 -0.0060 -0.7738 -0.1455
12480SOL    HW143277   9.075   1.076   3.463 -0.2803  0.7141 -0.6772
12480SOL    HW243278   8.926   1.051   3.460 -0.3022  0.8491 -0.7960
12481SOL     OW43279   7.237   8.034   4.470 -0.4179  0.0635 -0.1170
12481SOL    HW143280   7.156   7.984   4.475  0.5024 -1.6334 -1.1626
12481SOL    HW243281   7.277   8.008   4.387  1.6614  0.0935  0.7990
12482SOL     OW43282   0.910   2.313   2.295  0.0420 -0.0712 -0.2346
12482SOL    HW143283   0.896   2.324   2.389 -0.2652  2.3197 -0.4931
12482SOL    HW243284   0.831   2.270   2.263  0.0721 -0.7298  0.5523
12483SOL     OW43285   7.942   0.007   0.243 -0.2683  0.5771  0.3248
12483SOL    HW143286   7.868   0.015   0.304  0.7067  0.6535  1.5307
12483SOL    HW243287   8.015   0.049   0.288  0.7348 -0.2474 -0.4896
12484SOL     OW43288   7.894   0.483   7.552  0.0196  0.0796  0.3032
12484SOL    HW143289   7.940   0.405   7.581  0.4059  0.3341  0.3905
12484SOL    HW243290   7.804   0.455   7.538 -0.2915  0.0321  2.1609
12485SOL     OW43291   6.650   1.112  10.952 -0.0165  0.3945 -0.2145
12485SOL    HW143292   6.583   1.146  10.893 -0.1542 -0.7307 -0.7271
12485SOL    HW243293   6.645   1.170  11.029 -0.3717  1.3880 -0.9611
12486SOL     OW43294   2.863  10.115   5.440  0.3852 -0.4120 -0.1301
12486SOL    HW143295   2.901  10.129   5.527 -1.2981 -0.9838  0.7439
12486SOL    HW243296   2.905  10.034   5.409  4.5853  2.1757 -2.0315
12487SOL     OW43297  10.292   1.313   9.325 -0.1939 -0.0279 -0.5530
12487SOL    HW143298  10.331   1.395   9.353  1.3253 -0.2691 -1.7967
12487SOL    HW243299  10.199   1.324   9.340  0.1579  1.2647  0.8869
12488SOL     OW43300   1.219   7.239   9.896 -0.2069 -0.1153  0.1698
12488SOL    HW143301   1.179   7.224   9.810  1.4117 -0.8600 -0.4846
12488SOL    HW243302   1.253   7.329   9.892 -0.6983  0.0803  0.2834
12489SOL     OW43303   3.021   6.015   2.751  0.2935  0.4132  0.4897
12489SOL    HW143304   3.093   5.975   2.702 -0.0024 -0.6257  0.8707
12489SOL    HW243305   3.055   6.100   2.779  1.6892 -0.3948  1.3643
12490SOL     OW43306   8.987   4.786  11.905 -0.1416  0.0157  0.2782
12490SOL    HW143307   9.074   4.759  11.876  0.4079 -0.3167  2.1266
12490SOL    HW243308   9.000   4.870  11.949 -1.0027  0.6726 -0.6710
12491SOL     OW43309   6.471   0.873   0.663 -0.0205  0.3638  0.3612
12491SOL    HW143310   6.452   0.827   0.581  0.3291  1.4737 -0.3701
12491SOL    HW243311   6.447   0.964   0.645  1.7354  0.9716  0.8915
12492SOL     OW43312  10.006  12.122   0.754 -0.8393 -0.1099  0.9191
12492SOL    HW143313  10.068  12.090   0.818  0.9750  0.6947 -0.3473
12492SOL    HW243314  10.010  12.218   0.762 -0.7362 -0.0055 -0.2210
12493SOL     OW43315   1.384   6.982   8.107  0.3339  0.0943 -0.2962
12493SOL    HW143316   1.344   7.019   8.029  0.2012  1.1171  0.2443
12493SOL    HW243317   1.326   7.007   8.179  1.5871  1.0657  0.4130
12494SOL     OW43318  11.509   1.155   3.271 -0.0933  0.3198 -0.3519
12494SOL    HW143319  11.530   1.140   3.363 -0.5748  0.8717 -0.1420
12494SOL    HW243320  11.476   1.245   3.268 -1.2016 -0.0721 -0.8485
12495SOL     OW43321   6.676  10.783   0.452 -0.1706  0.1775  0.1202
12495SOL    HW143322   6.603  10.727   0.477 -1.5686  1.6268 -0.5932
12495SOL    HW243323   6.745  10.761   0.514 -1.3164 -0.9568  1.0439
12496SOL     OW43324   4.219   0.126   7.054  0.5387  0.3004  0.4110
12496SOL    HW143325   4.254   0.038   7.049  0.5401  0.2768  0.7705
12496SOL    HW243326   4.260   0.164   7.132 -0.7464  0.0342  1.2429
12497SOL     OW43327   8.107   0.089   4.366 -0.4792  0.1113  0.1434
12497SOL    HW143328   8.019   0.127   4.358 -0.0477  1.4163  1.1699
12497SOL    HW243329   8.165   0.157   4.332  0.3006  0.2947  1.7532
12498SOL     OW43330   2.697   4.710   0.284 -0.1004  0.2216  0.0128
12498SOL    HW143331   2.649   4.670   0.356  1.0576  2.2706  2.0536
12498SOL    HW243332   2.748   4.638   0.246 -0.7522 -0.9287  1.2312
12499SOL     OW43333   1.495   2.766   5.130  0.0152  0.7023  0.1007
12499SOL    HW143334   1.406   2.797   5.141 -0.0294  0.1554  1.5908
12499SOL    HW243335   1.538   2.786   5.213 -0.1647 -3.5095  1.4817
12500SOL     OW43336   2.463   1.792   3.480 -0.2294  0.4610  0.3659
12500SOL    HW143337   2.434   1.804   3.390 -1.9849 -0.1135  0.8035
12500SOL    HW243338   2.527   1.861   3.495 -2.0215  2.4164 -0.4617
12501SOL     OW43339  10.695   5.623   1.021  0.1093 -0.1586  0.4487
12501SOL    HW143340  10.620   5.627   1.080  1.2448  0.4621  1.8931
12501SOL    HW243341  10.659   5.646   0.935 -1.7586 -2.0137  0.6614
12502SOL     OW43342   3.767   6.064   6.894  0.2848  0.0003  0.1853
12502SOL    HW143343   3.701   6.133   6.881  1.2336  1.0134  0.6179
12502SOL    HW243344   3.717   5.982   6.891 -0.8377  0.6899 -0.5424
12503SOL     OW43345   5.376   2.261   7.568 -0.5187 -1.1141 -0.2515
12503SOL    HW143346   5.358   2.307   7.649 -1.2069  0.3951 -1.2110
12503SOL    HW243347   5.296   2.211   7.550 -1.1807  0.1687 -1.0099
12504SOL     OW43348   0.087   3.129   0.397  0.7728 -0.3616  0.1463
12504SOL    HW143349   0.056   3.040   0.380  1.0261 -0.5577  0.6901
12504SOL    HW243350   0.092   3.134   0.492  2.7401 -0.4488  0.0863
12505SOL     OW43351   2.200   7.271   0.730  0.2962  0.8828 -0.4306
12505SOL    HW143352   2.180   7.184   0.764 -2.0492  1.2593 -0.6160
12505SOL    HW243353   2.287   7.291   0.763  0.4215 -1.0661  0.5660
12506SOL     OW43354  11.778   9.344   3.950  0.3083  0.1892 -0.3195
12506SOL    HW143355  11.729   9.425   3.966 -0.7271 -0.2088 -1.3281
12506SOL    HW243356  11.795   9.308   4.037  0.5299  1.3236  0.1306
12507SOL     OW43357   8.326   1.006   1.201  0.4938  0.1095 -0.4956
12507SOL    HW143358   8.379   1.055   1.138  0.4506 -1.7593 -2.0971
12507SOL    HW243359   8.235   1.020   1.172  0.0197  2.9458  1.9730
12508SOL     OW43360   4.141   7.257   1.982  0.4373 -0.5433  0.1515
12508SOL    HW143361   4.070   7.267   2.046 -1.0959  0.0562 -1.5604
12508SOL    HW243362   4.219   7.286   2.028 -0.9410  1.8323  1.1412
12509SOL     OW43363   9.498   6.685   4.264 -0.2987  0.3733  0.0881
12509SOL    HW143364   9.506   6.764   4.318  0.6383  0.8287 -0.6899
12509SOL    HW243365   9.530   6.711   4.178  1.3185 -1.1972  0.1559
12510SOL     OW43366   3.318   5.004  11.679  0.0882  0.2024  0.0476
12510SOL    HW143367   3.316   5.016  11.774 -0.1957 -1.0028  0.2096
12510SOL    HW243368   3.379   5.070  11.648  0.0442  0.7335  1.0528
12511SOL     OW43369   6.915   0.865   8.669  0.3302 -0.5423 -0.3703
12511SOL    HW143370   6.874   0.856   8.755  0.0358  0.7725 -0.3474
12511SOL    HW243371   6.854   0.821   8.609  1.7014 -3.6710  0.3081
12512SOL     OW43372  11.048   2.825   2.002  0.8916  0.0524  0.2385
12512SOL    HW143373  11.048   2.916   1.969 -0.2075  0.1237  0.4163
12512SOL    HW243374  11.074   2.773   1.926 -1.8225  0.1967 -0.9165
12513SOL     OW43375  10.594  10.823  10.112  0.1397 -0.4822 -0.2372
12513SOL    HW143376  10.680  10.788  10.137 -0.1314 -0.4308  0.8237
12513SOL    HW243377  10.611  10.872  10.032  1.2180 -0.0279  0.2415
12514SOL     OW43378  12.133  11.582   2.696  0.3177  0.5137  0.4880
12514SOL    HW143379  12.215  11.560   2.739  2.0980 -0.3430 -2.9541
12514SOL    HW243380  12.129  11.678   2.699  2.2173  0.6639 -0.4571
12515SOL     OW43381  10.392   2.703   9.477  0.2719  0.2261  0.0055
12515SOL    HW143382  10.414   2.646   9.551  0.1853  1.2462  0.8373
12515SOL    HW243383  10.423   2.655   9.401 -0.5481 -1.3179  0.5995
12516SOL     OW43384  10.844   0.894   1.655 -0.7218  0.4548  0.6548
12516SOL    HW143385  10.913   0.920   1.595 -0.5721  1.3705  1.2094
12516SOL    HW243386  10.849   0.798   1.657 -0.2649  0.4487 -0.2254
12517SOL     OW43387  11.993   1.782  10.235  0.2668  0.2973  0.7319
12517SOL    HW143388  11.957   1.868  10.256  0.4289  0.1648  1.5651
12517SOL    HW243389  12.054   1.762  10.306  0.9589 -0.0902  0.0573
12518SOL     OW43390   3.875  10.488   5.175 -0.4928 -0.0143  0.6466
12518SOL    HW143391   3.790  10.497   5.219 -0.5999 -0.0918  0.4601
12518SOL    HW243392   3.898  10.577   5.149 -0.7018 -0.0401  0.3624
12519SOL     OW43393   8.701  12.107   8.158  0.2347 -0.2230 -0.2094
12519SOL    HW143394   8.630  12.074   8.214  0.7563 -0.0604  0.5553
12519SOL    HW243395   8.687  12.201   8.154  0.3352 -0.2064 -0.1662
12520SOL     OW43396   7.425   6.963   2.315  0.2732 -0.2954  0.3127
12520SOL    HW143397   7.376   6.996   2.391  0.6251 -0.2300  0.5153
12520SOL    HW243398   7.512   7.000   2.326  0.4373 -0.6142  0.0900
12521SOL     OW43399   6.300   8.492   0.023  0.1192 -0.3166  0.5118
12521SOL    HW143400   6.310   8.457   0.111  0.3298 -0.7697  0.3079
12521SOL    HW243401   6.238   8.565   0.033  0.3055 -0.2312  1.0641
12522SOL     OW43402   8.162   9.155   0.310  0.2599  0.4804  0.2094
12522SOL    HW143403   8.178   9.137   0.403  1.1807  1.9165  0.3537
12522SOL    HW243404   8.155   9.250   0.304  2.1240  0.5753 -1.4619
12523SOL     OW43405   6.477   0.967   8.108 -0.3120  0.1056 -0.3023
12523SOL    HW143406   6.506   1.019   8.033  1.6718  1.0646  1.0483
12523SOL    HW243407   6.460   1.031   8.176  2.3430 -0.8906  1.4579
12524SOL     OW43408   4.933   5.882   0.260 -0.3212 -0.1402 -0.5910
12524SOL    HW143409   4.908   5.852   0.173 -0.2011  0.8219 -0.9734
12524SOL    HW243410   4.875   5.835   0.319 -0.5901 -0.6032 -1.2081
12525SOL     OW43411   5.460   7.590   9.983  0.4501  0.2071 -0.6484
12525SOL    HW143412   5.503   7.547  10.057 -0.5737  0.8003  0.3218
12525SOL    HW243413   5.482   7.535   9.907 -1.6802 -2.7117  0.6582
12526SOL     OW43414  12.310  11.332  12.195 -0.4564 -0.3139  0.5602
12526SOL    HW143415  12.402  11.319  12.217 -0.6791 -1.6095  0.7896
12526SOL    HW243416  12.268  11.350  12.279 -0.5372 -0.4392  0.5457
12527SOL     OW43417   8.500   1.286   9.615  0.7485 -0.3896  0.1448
12527SOL    HW143418   8.506   1.192   9.600  1.2138 -0.5709  1.3297
12527SOL    HW243419   8.407   1.303   9.626  0.7240 -0.8600  0.7256
12528SOL     OW43420   8.659   8.381   4.541  0.4090  0.2535 -0.1676
12528SOL    HW143421   8.716   8.328   4.596 -0.6553 -1.3952 -0.5880
12528SOL    HW243422   8.590   8.411   4.601  1.2532  1.6230  0.1739
12529SOL     OW43423   7.110   6.402   1.828  0.2768  0.0431 -0.1340
12529SOL    HW143424   7.024   6.397   1.871 -0.3841  0.6739 -1.3309
12529SOL    HW243425   7.172   6.383   1.898 -0.7939  0.3915  0.9592
12530SOL     OW43426   5.661   9.136   5.366  0.0907 -0.5303  0.0008
12530SOL    HW143427   5.640   9.157   5.275  0.5894  1.9895  0.3941
12530SOL    HW243428   5.578   9.105   5.403 -0.9145  1.2439 -0.6138
12531SOL     OW43429   4.534   9.739   4.219 -0.0649  0.6812 -0.5985
12531SOL    HW143430   4.491   9.672   4.166  0.2366  0.8925 -1.1202
12531SOL    HW243431   4.510   9.822   4.176  0.3163  0.8407 -0.5059
12532SOL     OW43432   9.587   7.080   1.995  0.3309  0.0744  0.0781
12532SOL    HW143433   9.547   7.149   2.048 -1.8818 -1.6884  0.8419
12532SOL    HW243434   9.594   7.119   1.908 -0.9732  1.2449  0.4534
12533SOL     OW43435   4.695   2.357   6.768 -0.5841  0.3022  0.7290
12533SOL    HW143436   4.700   2.429   6.831  0.0058  0.1876  0.8172
12533SOL    HW243437   4.623   2.381   6.710  1.4481  2.4515 -1.0719
12534SOL     OW43438   6.712   5.592  11.459 -0.1294  0.3605  0.7834
12534SOL    HW143439   6.749   5.637  11.535 -1.6330  1.3620  0.9661
12534SOL    HW243440   6.660   5.521  11.496  0.2246  0.0051  0.6106
12535SOL     OW43441  11.616   3.698   2.988 -0.2366  0.2487 -0.5511
12535SOL    HW143442  11.642   3.623   3.041  1.8504  1.4548  0.2454
12535SOL    HW243443  11.573   3.757   3.049  1.6281  1.3743 -0.2529
12536SOL     OW43444   8.688   0.120   1.409 -0.3410 -0.2126 -0.1174
12536SOL    HW143445   8.731   0.115   1.494 -0.1676  0.8763 -0.1301
12536SOL    HW243446   8.727   0.196   1.366 -1.2282 -0.0742 -0.7193
12537SOL     OW43447   5.023  10.502  11.688  0.5604 -0.4379 -0.2013
12537SOL    HW143448   5.044  10.511  11.780 -3.1400  1.0367  0.6934
12537SOL    HW243449   4.944  10.448  11.687  2.2043 -3.0838 -2.8533
12538SOL     OW43450   7.048  11.920   7.209 -0.5315  0.2642  0.3279
12538SOL    HW143451   7.069  12.002   7.253 -2.0563  1.1924 -0.5801
12538SOL    HW243452   7.124  11.902   7.154 -0.0100  0.8346  0.8561
12539SOL     OW43453   6.004   6.172   4.617  0.6604  0.2179  0.3977
12539SOL    HW143454   5.976   6.083   4.593  0.8520  0.5414 -1.1240
12539SOL    HW243455   5.922   6.220   4.631  0.5326  0.1382 -0.0745
12540SOL     OW43456   6.855   1.833   2.833 -0.1822  0.3715 -0.3413
12540SOL    HW143457   6.873   1.810   2.924 -0.8342  0.2727 -0.2294
12540SOL    HW243458   6.935   1.875   2.802  0.2160 -0.0234  0.1330
12541SOL     OW43459  11.807   0.027   0.737 -0.0213 -0.3617  0.8839
12541SOL    HW143460  11.731   0.024   0.796  0.2406  1.4589  1.3489
12541SOL    HW243461  11.822   0.120   0.721 -0.5770 -0.7348 -2.7536
12542SOL     OW43462   3.319   6.164   4.431  0.3117  0.3156  0.0500
12542SOL    HW143463   3.309   6.175   4.526  0.8129  2.8177 -0.1253
12542SOL    HW243464   3.376   6.087   4.422 -1.2905 -1.1539  1.6677
12543SOL     OW43465   6.414  11.292   5.854  0.2097  0.0286  0.2985
12543SOL    HW143466   6.495  11.252   5.824 -1.2895 -2.7963 -0.3583
12543SOL    HW243467   6.434  11.326   5.941  2.0715 -0.6407  0.1691
12544SOL     OW43468   9.992  10.173   6.724  0.1630  0.5809 -0.0797
12544SOL    HW143469   9.918  10.227   6.754  0.9145  1.7180 -0.2372
12544SOL    HW243470  10.053  10.235   6.684  2.0009 -0.0984  1.5438
12545SOL     OW43471  12.308   9.740   4.089  0.4051  0.1573 -0.0910
12545SOL    HW143472  12.285   9.709   4.176 -1.3399 -2.0471 -1.2427
12545SOL    HW243473  12.404   9.738   4.087  0.6699  2.7969  2.5328
12546SOL     OW43474   9.101   6.500   0.659  0.1247  0.3363  0.3803
12546SOL    HW143475   9.196   6.494   0.652  0.2606  0.0673  2.1112
12546SOL    HW243476   9.074   6.412   0.686 -0.6677  0.3019 -0.4718
12547SOL     OW43477   6.598  10.143  10.442 -0.0259  0.0358 -0.0117
12547SOL    HW143478   6.513  10.104  10.422 -1.5855  2.3142  1.6481
12547SOL    HW243479   6.627  10.098  10.521 -0.1840 -0.0803 -0.0194
12548SOL     OW43480   0.721   5.693   9.616  0.4211  0.1378 -0.0935
12548SOL    HW143481   0.800   5.672   9.666  0.2594  0.7632  0.4312
12548SOL    HW243482   0.658   5.626   9.642  0.2465  0.6222  0.7663
12549SOL     OW43483   8.492   6.773   3.116 -0.8502  0.2499  0.5587
12549SOL    HW143484   8.434   6.701   3.139 -2.4704  1.1155 -0.6094
12549SOL    HW243485   8.447   6.820   3.046  1.0000  1.3347 -0.0063
12550SOL     OW43486   4.255  10.290   0.796 -0.3918 -0.3510 -0.0189
12550SOL    HW143487   4.200  10.212   0.807  0.5157 -1.0150 -0.0337
12550SOL    HW243488   4.193  10.363   0.793 -1.1524 -0.8544  2.0688
12551SOL     OW43489   0.748   9.608   3.059  0.0681 -0.3306 -0.4393
12551SOL    HW143490   0.696   9.593   3.138  1.0251 -1.8009 -0.0585
12551SOL    HW243491   0.692   9.575   2.988 -1.3014  2.0933 -0.5753
12552SOL     OW43492   4.615   7.887   5.570  0.0828 -0.0149  0.0511
12552SOL    HW143493   4.632   7.890   5.475 -0.3016  1.1843 -0.0010
12552SOL    HW243494   4.606   7.794   5.590 -2.0339 -0.2117 -1.5145
12553SOL     OW43495   9.978   0.799   7.380 -0.3144  0.1320  0.4226
12553SOL    HW143496   9.962   0.884   7.339 -0.2434 -0.0854 -0.0605
12553SOL    HW243497   9.988   0.819   7.473 -0.1946  0.6661  0.2998
12554SOL     OW43498   3.135   3.966   5.549 -0.3407  0.0392  0.0804
12554SOL    HW143499   3.143   3.917   5.466 -0.5121 -0.9427  0.6289
12554SOL    HW243500   3.204   4.033   5.543 -0.6013  0.2362 -1.0185
12555SOL     OW43501  11.258   7.466  12.079 -0.5606 -0.0064  0.4522
12555SOL    HW143502  11.281   7.405  12.148 -0.3629  0.5955  0.9299
12555SOL    HW243503  11.342   7.493  12.042 -0.5984  0.5376  0.7466
12556SOL     OW43504   0.463   9.340  10.918 -0.6157 -0.3689 -0.1334
12556SOL    HW143505   0.372   9.332  10.948 -1.0817  1.7948 -0.7893
12556SOL    HW243506   0.458   9.398  10.843  1.1384 -1.6667 -1.3372
12557SOL     OW43507   5.269   9.037   0.883  0.3434  0.2117  0.1104
12557SOL    HW143508   5.322   9.069   0.957  0.1997 -0.3421  0.4608
12557SOL    HW243509   5.286   8.943   0.881 -0.6214  0.0238  0.2312
12558SOL     OW43510   4.468  11.076   1.658  0.7057 -0.1530  0.1271
12558SOL    HW143511   4.384  11.029   1.662  0.6970 -0.2263 -0.7639
12558SOL    HW243512   4.517  11.031   1.589  0.9176  0.7985 -0.3557
12559SOL     OW43513   9.557   3.307   2.799 -0.3899 -0.9103 -0.2736
12559SOL    HW143514   9.620   3.366   2.840 -1.4254 -0.7647  1.2031
12559SOL    HW243515   9.530   3.352   2.719  1.1733 -0.8755 -0.8254
12560SOL     OW43516   3.963   3.334   7.198 -0.0830  0.0884 -0.2603
12560SOL    HW143517   4.043   3.364   7.155 -0.5443 -0.1902 -1.3570
12560SOL    HW243518   3.944   3.250   7.158 -0.4917 -0.2336  0.5775
12561SOL     OW43519   9.996   4.138   3.603 -0.0954  0.2512  0.1262
12561SOL    HW143520  10.066   4.197   3.631  1.0384 -0.5113 -0.9882
12561SOL    HW243521   9.941   4.128   3.680  0.0577  2.1924  0.5500
12562SOL     OW43522   8.785   9.455   3.255  0.3276 -0.2994  0.0183
12562SOL    HW143523   8.749   9.539   3.285  0.4518 -0.9085  2.0437
12562SOL    HW243524   8.721   9.422   3.192  0.9245  1.8881 -1.8968
12563SOL     OW43525   2.738  10.948   0.322 -0.2924 -0.4141 -0.2820
12563SOL    HW143526   2.724  11.043   0.327 -0.9298 -0.5547  1.4199
12563SOL    HW243527   2.823  10.938   0.279  0.2511  0.9581  0.4142
12564SOL     OW43528   9.071   5.719   5.882 -0.4966 -0.1111 -0.0044
12564SOL    HW143529   9.032   5.695   5.798 -0.4161  1.7265 -0.5927
12564SOL    HW243530   9.164   5.701   5.871 -0.2485  1.5698 -0.8803
12565SOL     OW43531   6.345  10.555   0.117 -0.0918 -0.5980  0.0118
12565SOL    HW143532   6.337  10.593   0.205  2.5587 -1.1113  0.5663
12565SOL    HW243533   6.328  10.629   0.058 -1.2421 -0.0794  0.9635
12566SOL     OW43534   6.759   4.520   1.938  0.0849 -0.5033  0.7248
12566SOL    HW143535   6.694   4.480   1.880  0.6013 -0.4195  0.0732
12566SOL    HW243536   6.711   4.541   2.017 -0.8833  0.3639 -0.0738
12567SOL     OW43537   2.368  11.749  11.585  0.0945  0.2378  0.4437
12567SOL    HW143538   2.373  11.800  11.505  0.9678  0.5148  0.6606
12567SOL    HW243539   2.281  11.709  11.583 -0.5110  1.5268  0.1498
12568SOL     OW43540   1.638   8.097   8.024  0.5884 -0.3501 -0.3408
12568SOL    HW143541   1.656   8.109   8.117  0.9000 -0.4033 -0.3897
12568SOL    HW243542   1.722   8.067   7.988  0.7393  0.6075 -0.8096
12569SOL     OW43543   9.174  11.650   9.071  0.3474  0.1441 -0.0359
12569SOL    HW143544   9.136  11.711   9.008 -0.3557  0.3804  0.6049
12569SOL    HW243545   9.101  11.624   9.127  0.4309 -1.9598 -0.8021
12570SOL     OW43546   4.118   9.959  10.744 -0.5792 -0.6443  0.4868
12570SOL    HW143547   4.119   9.933  10.652 -1.6823 -0.0361  0.2935
12570SOL    HW243548   4.211   9.961  10.769 -0.3249 -2.2726 -0.1744
12571SOL     OW43549   1.820   1.419   3.535  0.2881  0.0899  0.4126
12571SOL    HW143550   1.863   1.480   3.595 -1.5144 -0.3362  2.2344
12571SOL    HW243551   1.822   1.335   3.581 -0.5555 -0.3934 -0.4123
12572SOL     OW43552  10.844   7.290   0.334 -0.2345  0.1374  0.1416
12572SOL    HW143553  10.782   7.218   0.320  1.0361 -0.9236 -0.2882
12572SOL    HW243554  10.812   7.360   0.277 -0.1211 -0.9983 -1.3884
12573SOL     OW43555   1.206   4.735   2.868 -0.1277  0.2720  0.3520
12573SOL    HW143556   1.160   4.664   2.914  0.1358  0.5877  1.1148
12573SOL    HW243557   1.296   4.703   2.860  0.2487  0.9541  1.6572
12574SOL     OW43558   2.201  10.107   7.424  0.3285 -0.0588  0.4156
12574SOL    HW143559   2.290  10.088   7.395  0.2533  0.3842 -0.1317
12574SOL    HW243560   2.187  10.198   7.399  1.2398  1.3499  4.2870
12575SOL     OW43561  11.733   7.748   5.087 -0.6759 -0.3724 -0.2342
12575SOL    HW143562  11.765   7.705   5.166 -0.3162  2.1231  1.0938
12575SOL    HW243563  11.735   7.680   5.020  1.0168 -2.0447  1.3882
12576SOL     OW43564   4.389   9.782   8.676  0.2901  0.0410 -0.4263
12576SOL    HW143565   4.334   9.853   8.642  0.0913  0.2568  0.3341
12576SOL    HW243566   4.334   9.738   8.741  0.9490  0.1483  0.2152
12577SOL     OW43567   1.311   3.499   6.802  0.9999  0.0878 -0.0694
12577SOL    HW143568   1.231   3.513   6.852  0.8519 -0.0545 -0.2641
12577SOL    HW243569   1.298   3.549   6.721  0.0933 -1.8291 -1.1643
12578SOL     OW43570   5.382   8.408   7.981  0.5390 -0.1881  0.1567
12578SOL    HW143571   5.364   8.501   7.994 -1.7103 -0.3567 -1.2212
12578SOL    HW243572   5.325   8.363   8.043  1.4383 -0.6710  0.6499
12579SOL     OW43573   6.405  10.418   4.821  0.1203 -0.6524 -0.5053
12579SOL    HW143574   6.402  10.462   4.736  1.4096  0.5610  0.0369
12579SOL    HW243575   6.490  10.442   4.857 -0.5549 -0.8261  1.2826
12580SOL     OW43576   6.693   3.563   3.938 -0.0284  0.5084  0.5085
12580SOL    HW143577   6.627   3.518   3.886  0.1601 -0.4875  1.1000
12580SOL    HW243578   6.773   3.558   3.885 -0.0993  0.4787  0.4050
12581SOL     OW43579   2.712   7.020   6.464  0.0223 -0.6357 -0.0271
12581SOL    HW143580   2.669   6.936   6.448 -0.4161 -0.4062 -0.0758
12581SOL    HW243581   2.698   7.070   6.384  0.5814 -0.6369 -0.1306
12582SOL     OW43582   8.215  12.258   1.790 -0.1394  0.0521 -0.2675
12582SOL    HW143583   8.273  12.219   1.725  0.9545 -2.2893  1.9521
12582SOL    HW243584   8.180  12.184   1.839 -1.7398  1.6670  1.1770
12583SOL     OW43585   2.719   1.974   0.465 -0.2216  0.0374  0.0951
12583SOL    HW143586   2.809   1.950   0.446  0.0866  0.5315  0.9076
12583SOL    HW243587   2.673   1.961   0.381  1.1109  2.3167 -1.0856
12584SOL     OW43588  12.286   9.687   0.137 -0.6230  0.2088  0.0489
12584SOL    HW143589  12.195   9.671   0.113 -0.5321  1.0515 -0.9108
12584SOL    HW243590  12.325   9.599   0.146 -1.6911 -0.1696  1.1891
12585SOL     OW43591   8.939  11.691   4.544  0.3408 -0.0600 -0.4526
12585SOL    HW143592   8.867  11.733   4.591  1.0432  1.0274 -0.3162
12585SOL    HW243593   8.900  11.613   4.505 -0.1603 -1.3489  2.3921
12586SOL     OW43594   9.499   0.353   3.827  0.2577 -0.2660 -0.1740
12586SOL    HW143595   9.480   0.261   3.844 -0.8101 -0.0335 -0.0472
12586SOL    HW243596   9.590   0.354   3.797  0.2475 -1.3671 -0.2602
12587SOL     OW43597   3.090   3.436   3.930 -0.4104 -0.4960  0.0720
12587SOL    HW143598   3.021   3.404   3.987 -1.7744 -0.5458 -1.5255
12587SOL    HW243599   3.114   3.522   3.966 -1.2135 -0.5351  0.7169
12588SOL     OW43600   5.572   6.801  10.964  0.3853  0.3875 -0.2312
12588SOL    HW143601   5.553   6.738  10.895  1.0853  1.1694 -1.1801
12588SOL    HW243602   5.505   6.869  10.953  2.2455  2.0254 -2.1391
12589SOL     OW43603   6.938   5.671   6.333  0.8541  0.3160 -0.1421
12589SOL    HW143604   6.976   5.592   6.295  2.1538  0.6780  0.3439
12589SOL    HW243605   6.869   5.639   6.391  1.6706 -0.5027  0.4078
12590SOL     OW43606   9.724   1.963  11.670 -0.1217 -0.1657 -0.0969
12590SOL    HW143607   9.780   1.900  11.715 -0.1325 -1.4677 -1.8212
12590SOL    HW243608   9.650   1.977  11.729  1.1198  0.2093  1.4211
12591SOL     OW43609  10.468   3.540   9.110  0.4882 -0.4944  0.3667
12591SOL    HW143610  10.486   3.625   9.150  1.0478 -0.9279  1.0477
12591SOL    HW243611  10.491   3.476   9.177 -1.4009 -1.1544  0.4394
12592SOL     OW43612   6.110   0.998   8.540  0.0677  0.0965 -0.5172
12592SOL    HW143613   6.167   1.068   8.572 -1.1886  0.8871  0.0927
12592SOL    HW243614   6.085   0.950   8.619 -2.3892  1.5455 -0.2984
12593SOL     OW43615   5.471   4.875  10.216  0.0826 -0.1721 -0.2320
12593SOL    HW143616   5.487   4.969  10.211 -2.0408  0.2751  0.3287
12593SOL    HW243617   5.553   4.838  10.245  0.9952  1.4937 -0.5625
12594SOL     OW43618   5.451   9.948  11.513  0.1488  0.3199  0.2384
12594SOL    HW143619   5.518   9.910  11.455  0.3952  2.3107 -0.8602
12594SOL    HW243620   5.478  10.039  11.524 -1.1338  0.5657  1.7128
12595SOL     OW43621   4.405   7.090   9.921 -0.1651  0.3396  0.0699
12595SOL    HW143622   4.390   7.008   9.969 -1.1586  0.8710  0.6933
12595SOL    HW243623   4.382   7.070   9.831 -0.6901  0.0109  0.2754
12596SOL     OW43624   5.612   2.706   4.793  0.8783  0.3624 -0.1195
12596SOL    HW143625   5.660   2.762   4.731  1.0895  0.9353  0.5528
12596SOL    HW243626   5.636   2.739   4.879 -0.7814  0.7095  0.2451
12597SOL     OW43627   1.623   4.691  10.915  0.2865  0.5253 -1.0514
12597SOL    HW143628   1.572   4.772  10.920  0.4275  0.5539  0.1397
12597SOL    HW243629   1.561   4.622  10.937  0.0234  0.2195 -2.6179
12598SOL     OW43630   8.802   3.572   2.507 -0.6175 -0.2993 -0.2324
12598SOL    HW143631   8.753   3.573   2.589 -1.1937 -2.4388 -0.4838
12598SOL    HW243632   8.880   3.520   2.527  0.4076  1.0852 -0.4722
12599SOL     OW43633   5.876   3.828   2.337  0.1581  0.1318 -0.2741
12599SOL    HW143634   5.937   3.757   2.316  0.5211  0.5996 -0.8513
12599SOL    HW243635   5.790   3.795   2.310  0.0785 -0.6769  0.8872
12600SOL     OW43636  10.137   9.608   4.517 -0.5970  0.3613  0.0909
12600SOL    HW143637  10.200   9.561   4.463 -1.6375 -2.4656  1.1289
12600SOL    HW243638  10.064   9.627   4.457 -0.1935  0.6499 -0.3209
12601SOL     OW43639  10.164   0.773  12.274 -0.0247  0.5969  0.4172
12601SOL    HW143640  10.123   0.694  12.309  0.1348 -0.7620 -2.2279
12601SOL    HW243641  10.091   0.833  12.259 -0.3882  0.1989  0.5732
12602SOL     OW43642  12.022   0.598  11.832  0.0960 -0.1967 -0.6886
12602SOL    HW143643  12.117   0.608  11.823  0.0785 -0.3382 -1.0526
12602SOL    HW243644  11.986   0.651  11.761 -0.1524  1.0756  0.3400
12603SOL     OW43645  11.178   3.309  11.775  0.4301  0.3502 -0.1981
12603SOL    HW143646  11.131   3.229  11.749  2.0962 -0.2244 -1.6303
12603SOL    HW243647  11.166   3.314  11.870 -1.4168 -0.4540 -0.3460
12604SOL     OW43648  11.073  10.550   9.597  0.1038  0.3627 -0.6712
12604SOL    HW143649  10.984  10.537   9.629  0.3287 -0.6202 -0.4107
12604SOL    HW243650  11.126  10.488   9.647  0.2370 -2.5433 -3.9911
12605SOL     OW43651  11.220   1.555  11.567  0.6517 -0.1179  0.2797
12605SOL    HW143652  11.227   1.502  11.488 -0.7613 -0.8597  0.6175
12605SOL    HW243653  11.128   1.578  11.573  0.8465  0.4820  1.3691
12606SOL     OW43654   6.627   3.700  10.220  0.1203  0.0632  0.3600
12606SOL    HW143655   6.699   3.719  10.159  1.9559  0.2901  2.4388
12606SOL    HW243656   6.670   3.661  10.296 -2.0483 -0.1930  1.5397
12607SOL     OW43657   8.911   6.696   6.855 -0.1986  0.0781 -0.2851
12607SOL    HW143658   8.873   6.770   6.808  0.4027  0.9190  0.5100
12607SOL    HW243659   8.839   6.660   6.906 -0.4301  0.3047 -0.4481
12608SOL     OW43660   3.466   6.288   3.086  0.0350  0.4661 -0.1609
12608SOL    HW143661   3.514   6.303   3.168  1.1257  1.3978 -0.9333
12608SOL    HW243662   3.375   6.305   3.108  0.3483  1.0199  0.7892
12609SOL     OW43663   8.040   1.067   8.098  0.3846 -0.0541 -0.2148
12609SOL    HW143664   8.022   1.038   8.188  0.9223  0.8379  0.1875
12609SOL    HW243665   8.037   0.986   8.047  0.1893 -0.5948  0.6200
12610SOL     OW43666   1.626   1.559  10.169 -0.1225 -0.2609 -0.3548
12610SOL    HW143667   1.585   1.622  10.109 -1.1588  0.9977  1.5621
12610SOL    HW243668   1.653   1.612  10.244 -0.3854 -2.0258  1.0350
12611SOL     OW43669   6.791   6.459   3.694  0.5449  0.2487  0.1117
12611SOL    HW143670   6.799   6.461   3.789  2.0007  2.5260  0.0120
12611SOL    HW243671   6.696   6.455   3.678  0.3168 -2.0978  1.5755
12612SOL     OW43672  10.769   0.392  11.624 -0.1864 -0.5244 -0.2272
12612SOL    HW143673  10.728   0.306  11.634 -0.8736 -0.0736  1.0973
12612SOL    HW243674  10.698   0.454  11.638  0.5260  0.2612 -0.0216
12613SOL     OW43675   3.485   2.845   0.878 -0.1556 -0.0112 -0.1506
12613SOL    HW143676   3.404   2.808   0.912 -1.3778  3.4710  1.1593
12613SOL    HW243677   3.459   2.891   0.798  0.6252  0.6458 -0.0389
12614SOL     OW43678   9.406   4.159   0.519  0.6912 -0.7616 -0.2204
12614SOL    HW143679   9.428   4.132   0.608 -1.6875 -0.2721  0.6027
12614SOL    HW243680   9.406   4.078   0.468 -1.2865 -1.6360  1.0423
12615SOL     OW43681  11.304  10.423   5.155  0.4864 -0.2518 -0.5132
12615SOL    HW143682  11.275  10.402   5.067 -0.5850  1.8467 -0.7241
12615SOL    HW243683  11.262  10.357   5.211 -1.4590  0.2775 -1.2667
12616SOL     OW43684   4.844   9.700   1.869 -0.2361  0.6234  0.0922
12616SOL    HW143685   4.803   9.629   1.917  1.2884  1.1845  2.3963
12616SOL    HW243686   4.899   9.744   1.934  1.9894  1.4514 -2.1831
12617SOL     OW43687   6.024   9.953   7.867 -0.1600  0.5235  0.5026
12617SOL    HW143688   6.046   9.886   7.932  0.4487 -0.7432 -0.9216
12617SOL    HW243689   5.945   9.995   7.900  0.2098  0.0262  2.1008
12618SOL     OW43690  12.089   3.608   3.991  0.2800 -0.0427 -0.1464
12618SOL    HW143691  12.147   3.618   4.067  1.0467  0.0341 -0.7334
12618SOL    HW243692  12.089   3.695   3.950 -0.9681  0.2103  0.3423
12619SOL     OW43693  10.661   2.866   3.704 -0.0628  0.1511 -0.6300
12619SOL    HW143694  10.720   2.931   3.666  0.9165  0.4620  1.2803
12619SOL    HW243695  10.575   2.887   3.666  0.2885  2.3704 -0.3421
12620SOL     OW43696   8.212  10.549   9.442 -0.5209  0.2347 -0.2911
12620SOL    HW143697   8.266  10.488   9.392 -0.3667  0.1461 -0.0182
12620SOL    HW243698   8.270  10.622   9.462 -0.2372 -0.2607  0.7642
12621SOL     OW43699   2.089   5.621  10.363  0.3741  0.4190 -0.1100
12621SOL    HW143700   2.047   5.701  10.394 -1.7098 -0.5064 -0.3363
12621SOL    HW243701   2.169   5.650  10.321  0.8218  2.1548  1.7974
12622SOL     OW43702   4.367   8.937   1.866 -0.3825 -0.1012 -0.0046
12622SOL    HW143703   4.404   8.868   1.922 -0.6351 -0.6310 -0.4789
12622SOL    HW243704   4.337   8.891   1.788 -0.9469  0.4941 -0.1471
12623SOL     OW43705   0.411   1.742  12.034  0.1338  0.6064  0.1300
12623SOL    HW143706   0.505   1.729  12.026 -0.0357 -0.8336  0.0899
12623SOL    HW243707   0.373   1.656  12.012 -1.1111  0.8343  1.2383
12624SOL     OW43708  10.240   9.783   3.273  0.5125 -0.2999 -0.1730
12624SOL    HW143709  10.228   9.845   3.201  2.7446 -0.3829 -0.6674
12624SOL    HW243710  10.214   9.698   3.236  2.0727 -0.4202 -1.0766
12625SOL     OW43711   9.830   4.589  11.984 -0.0035 -0.2806  0.2379
12625SOL    HW143712   9.856   4.513  12.037 -0.5316 -0.0319  0.8754
12625SOL    HW243713   9.851   4.664  12.039  1.0505  0.0710 -0.6253
12626SOL     OW43714   9.150   9.806  10.022 -0.7356  0.0959 -0.5718
12626SOL    HW143715   9.173   9.734   9.963 -2.7233 -0.7931 -0.3476
12626SOL    HW243716   9.084   9.856   9.973 -0.8680  0.5505  0.0731
12627SOL     OW43717   8.200   0.559   8.620 -0.2037 -0.0621  0.0717
12627SOL    HW143718   8.118   0.522   8.586 -0.2170  0.1215 -0.0960
12627SOL    HW243719   8.239   0.487   8.670  0.4956 -0.7994 -1.4509
12628SOL     OW43720   3.972  11.792   3.975 -0.0177 -0.0524 -0.1779
12628SOL    HW143721   4.006  11.837   3.898 -0.5199  0.5305 -0.0636
12628SOL    HW243722   3.897  11.742   3.944  1.2478 -1.8265 -0.5522
12629SOL     OW43723   8.318   4.166   2.815 -0.3822 -0.5593  0.2114
12629SOL    HW143724   8.394   4.209   2.854 -0.3540  2.4766 -2.7191
12629SOL    HW243725   8.243   4.215   2.847 -1.1848 -3.0736  2.4959
12630SOL     OW43726   5.201   5.951   0.195 -0.0746 -0.1751  0.0356
12630SOL    HW143727   5.114   5.914   0.207 -1.1847  1.8917 -1.1600
12630SOL    HW243728   5.186   6.039   0.160  2.3710  1.6636  3.0915
12631SOL     OW43729   4.374   1.511   9.559  0.6017 -0.3490  0.2584
12631SOL    HW143730   4.282   1.509   9.532  0.9213 -1.9683 -0.9030
12631SOL    HW243731   4.374   1.555   9.644 -1.0606  0.8784 -0.3212
12632SOL     OW43732   0.401  11.427   5.150 -0.6025  0.2814  0.2479
12632SOL    HW143733   0.424  11.464   5.235  0.3879  0.1114  0.0625
12632SOL    HW243734   0.319  11.471   5.126 -1.7102 -0.7438  1.9604
12633SOL     OW43735   3.629   3.275  10.506 -0.3658  0.0369  0.2811
12633SOL    HW143736   3.543   3.257  10.542 -0.0595  0.6274  1.3311
12633SOL    HW243737   3.688   3.276  10.581  0.3248  1.0722 -0.2388
12634SOL     OW43738   8.669   0.673   4.360  0.9200 -0.0583 -0.2080
12634SOL    HW143739   8.692   0.757   4.400 -0.0111 -0.2873  0.8431
12634SOL    HW243740   8.690   0.608   4.427 -1.9555 -0.3400  0.5393
12635SOL     OW43741   2.147   1.243  11.746 -0.6806  0.2325 -0.2071
12635SOL    HW143742   2.118   1.280  11.829 -0.9003 -0.4395  0.0211
12635SOL    HW243743   2.174   1.154  11.767 -0.4973  0.1407 -0.8118
12636SOL     OW43744  12.037   6.748   1.168 -0.2877 -0.4059  0.2686
12636SOL    HW143745  12.077   6.775   1.251  1.4900 -0.1149 -0.6303
12636SOL    HW243746  12.032   6.829   1.117 -0.9395 -0.6667 -0.0987
12637SOL     OW43747   1.036   3.912   0.757  0.2867  0.2184 -0.2666
12637SOL    HW143748   0.979   3.886   0.829  1.7619 -0.1644  0.7960
12637SOL    HW243749   1.098   3.840   0.747  0.7753  0.7484 -1.2060
12638SOL     OW43750   0.470  11.560  10.073  0.3979  0.2700 -0.5989
12638SOL    HW143751   0.519  11.478  10.064 -0.2261 -0.0206 -1.4933
12638SOL    HW243752   0.387  11.544  10.028 -1.2274  0.2199  2.1773
12639SOL     OW43753   5.590   3.883   5.588  0.0572 -0.1317  0.2406
12639SOL    HW143754   5.557   3.793   5.578 -0.7606  0.2816 -1.1380
12639SOL    HW243755   5.685   3.874   5.592  0.0755 -0.9773 -1.3648
12640SOL     OW43756   1.289  11.585   5.377 -0.3147 -0.4295 -0.0043
12640SOL    HW143757   1.365  11.622   5.333 -0.8156 -0.1965 -0.6890
12640SOL    HW243758   1.303  11.490   5.374  1.1166 -0.3517  2.0119
12641SOL     OW43759   5.647   2.061   7.176 -0.2388 -0.0240 -0.1919
12641SOL    HW143760   5.598   2.103   7.106  0.2348  0.8991  0.0037
12641SOL    HW243761   5.601   1.979   7.193 -0.8546  0.1483 -0.9906
12642SOL     OW43762   5.887   6.496   5.071 -0.1411 -0.0732  0.0891
12642SOL    HW143763   5.802   6.497   5.028 -0.3466 -0.6433  0.4729
12642SOL    HW243764   5.882   6.424   5.133  0.7982 -0.4213 -0.2271
12643SOL     OW43765   2.766   8.822  10.407 -0.0850 -0.3357  0.2294
12643SOL    HW143766   2.805   8.868  10.482  0.0493 -0.6651  0.3626
12643SOL    HW243767   2.715   8.751  10.446  0.5772 -0.9558 -0.0204
12644SOL     OW43768   9.565   4.844   6.154 -0.3470  0.0635 -0.0621
12644SOL    HW143769   9.625   4.798   6.095  1.3924 -0.6507  2.1635
12644SOL    HW243770   9.478   4.814   6.127  0.1514  1.2073 -3.4501
12645SOL     OW43771   4.637  11.564  11.301  0.0172 -0.1704  0.7145
12645SOL    HW143772   4.670  11.536  11.216  1.1279  2.0780  0.3414
12645SOL    HW243773   4.543  11.579  11.286  0.1110 -0.2447  0.0200
12646SOL     OW43774   7.304  12.199   7.095  0.6573 -0.6724 -0.0651
12646SOL    HW143775   7.253  12.268   7.052  0.3720 -2.2548 -2.4909
12646SOL    HW243776   7.324  12.234   7.182 -3.5616  0.5299  0.6478
12647SOL     OW43777  11.274   2.135   0.479 -0.4964  0.0088 -0.5316
12647SOL    HW143778  11.277   2.222   0.438  0.8665 -0.2427 -1.0104
12647SOL    HW243779  11.243   2.152   0.568  0.7774  1.1588 -0.2676
12648SOL     OW43780   1.958   1.384   6.821  0.4155  0.3305  0.0359
12648SOL    HW143781   1.927   1.431   6.743 -1.6139 -1.5356 -0.3601
12648SOL    HW243782   1.927   1.435   6.895  1.3897  1.5153 -0.3390
12649SOL     OW43783   2.550   6.386   2.982 -0.6670  0.4741  0.4395
12649SOL    HW143784   2.558   6.472   2.941  1.1204  0.8279  1.3762
12649SOL    HW243785   2.582   6.325   2.916  2.9917  1.1154  1.3489
12650SOL     OW43786   5.151   3.022   1.068  0.0999 -0.5832 -0.3702
12650SOL    HW143787   5.090   3.091   1.093  0.0630 -1.2588  1.5774
12650SOL    HW243788   5.100   2.942   1.073  1.1292 -1.1924  1.5502
12651SOL     OW43789   0.828   4.525  11.472 -0.1165 -0.4457 -0.1213
12651SOL    HW143790   0.773   4.456  11.436 -0.7997 -0.5568  1.0874
12651SOL    HW243791   0.799   4.534  11.563  0.8995  0.4792  0.1321
12652SOL     OW43792   6.647   5.669   4.380  0.1888  0.7013 -0.0164
12652SOL    HW143793   6.578   5.621   4.334  0.4698  0.4125 -0.1442
12652SOL    HW243794   6.644   5.636   4.470  1.2364 -0.5346 -0.4024
12653SOL     OW43795   0.627   1.001   6.430  0.1722  0.4533  0.2077
12653SOL    HW143796   0.614   1.096   6.421  0.8890  0.5388  0.0311
12653SOL    HW243797   0.695   0.992   6.496  0.3666  0.0711 -0.0440
12654SOL     OW43798   5.939   6.823   5.852 -0.1842  0.3810  0.3613
12654SOL    HW143799   5.843   6.825   5.844 -0.3558 -1.0495  1.5319
12654SOL    HW243800   5.971   6.829   5.762 -1.4570 -1.0949 -0.2337
12655SOL     OW43801   1.103   8.948   3.013 -0.0128 -0.1444  0.4831
12655SOL    HW143802   1.113   8.944   2.917  0.4365  2.7722  0.3105
12655SOL    HW243803   1.187   8.979   3.045 -0.9099  1.3803  1.5254
12656SOL     OW43804   4.415  10.333   3.745 -0.0441 -0.3602  0.1796
12656SOL    HW143805   4.393  10.287   3.664  1.0652 -0.8103  0.1129
12656SOL    HW243806   4.439  10.263   3.806  2.9064  0.0960 -0.2995
12657SOL     OW43807   6.869   2.594  11.198 -0.3820 -0.1693 -0.0627
12657SOL    HW143808   6.792   2.649  11.183  0.8735  2.5576  2.4304
12657SOL    HW243809   6.838   2.524  11.255 -1.1323  0.8375  0.8289
12658SOL     OW43810   7.935   3.468   2.600 -0.3374  0.6727  0.0533
12658SOL    HW143811   7.851   3.444   2.559 -0.5012  0.8987  0.2534
12658SOL    HW243812   7.979   3.385   2.615 -1.6505  0.2980  2.3647
12659SOL     OW43813   3.396   1.684   4.651  0.1621 -0.0971 -1.0344
12659SOL    HW143814   3.381   1.590   4.664  1.7413 -0.0801  1.5005
12659SOL    HW243815   3.345   1.727   4.720  0.5536  0.8183 -1.2926
12660SOL     OW43816   4.401   7.455   5.579 -0.3047  0.4822  0.3783
12660SOL    HW143817   4.408   7.401   5.658  1.5654 -0.6775 -0.4936
12660SOL    HW243818   4.367   7.395   5.512 -1.5379  1.3593  0.1848
12661SOL     OW43819   3.176  11.753   0.333  0.2178 -0.8354  0.2780
12661SOL    HW143820   3.267  11.767   0.306  0.2159 -1.3476 -0.0049
12661SOL    HW243821   3.165  11.809   0.410  0.1672  0.8770 -0.8936
12662SOL     OW43822   5.925   0.516   9.911 -0.1637  0.6229 -0.1543
12662SOL    HW143823   5.849   0.498   9.967  1.3374 -0.5408  1.6467
12662SOL    HW243824   5.976   0.579   9.960 -0.8814  3.0569 -2.3119
12663SOL     OW43825   9.634   7.635   3.443 -0.8004 -0.3084  0.3678
12663SOL    HW143826   9.609   7.712   3.391 -0.8977 -1.3747 -1.2220
12663SOL    HW243827   9.651   7.567   3.378  4.1411 -0.3732  1.3479
12664SOL     OW43828   3.873   9.414   2.472 -0.2622 -0.1606 -0.1252
12664SOL    HW143829   3.801   9.351   2.476 -1.1327  0.8468  0.3246
12664SOL    HW243830   3.835   9.497   2.501  1.1899  0.2843  0.6396
12665SOL     OW43831   7.058  11.227   5.053 -0.0564  0.0951  0.2872
12665SOL    HW143832   7.013  11.219   5.137 -0.9563  0.2981 -0.1634
12665SOL    HW243833   7.139  11.178   5.064 -0.1448  0.1556  1.2846
12666SOL     OW43834   6.264   1.183   8.649 -0.1675 -0.5823  1.0825
12666SOL    HW143835   6.324   1.251   8.617 -0.6436 -0.3026  0.7718
12666SOL    HW243836   6.262   1.195   8.744  0.3747 -0.6799  1.1067
12667SOL     OW43837   2.280   2.253   1.866  0.2420  0.2820 -0.1286
12667SOL    HW143838   2.346   2.225   1.930  0.1940  1.8803  0.6726
12667SOL    HW243839   2.287   2.189   1.795  0.6978 -1.2103  1.1959
12668SOL     OW43840  10.047  11.650   2.140 -0.2103  0.0931  0.8594
12668SOL    HW143841   9.976  11.586   2.144 -0.9803  0.9733  1.7957
12668SOL    HW243842  10.072  11.664   2.232  0.5367  0.4872  0.6033
12669SOL     OW43843   0.108   7.428   0.493  0.2538 -0.1562 -0.2613
12669SOL    HW143844   0.126   7.516   0.526  0.8703 -0.4953  0.3445
12669SOL    HW243845   0.179   7.374   0.529 -1.0028 -1.2184  0.7620
12670SOL     OW43846   7.138  10.116   1.933 -0.6875 -0.7251  0.0651
12670SOL    HW143847   7.224  10.106   1.972 -0.2230 -0.2773 -0.8081
12670SOL    HW243848   7.092  10.178   1.990 -0.2156 -0.4950  0.1981
12671SOL     OW43849   5.022   4.790   6.266  0.4635  0.5148 -0.4200
12671SOL    HW143850   5.006   4.842   6.345  0.8575  1.4478 -0.9373
12671SOL    HW243851   4.938   4.748   6.248  0.3396  0.3790  0.4297
12672SOL     OW43852  10.133   1.682   6.848 -0.6705 -0.0447  0.2183
12672SOL    HW143853  10.194   1.753   6.867 -1.2267  0.7457 -0.8619
12672SOL    HW243854  10.184   1.602   6.864  1.3830  0.5569 -2.6120
12673SOL     OW43855   9.766   2.719   2.816 -0.0559 -0.1490  0.0625
12673SOL    HW143856   9.763   2.693   2.724 -0.0487  2.1209 -0.6489
12673SOL    HW243857   9.674   2.723   2.843 -0.0277 -3.0426  0.9295
12674SOL     OW43858   9.369   9.687  12.081  0.3789  0.6382  0.0414
12674SOL    HW143859   9.303   9.625  12.051  0.5206  0.9713 -1.0162
12674SOL    HW243860   9.419   9.708  12.002  0.0522  2.4205  0.2638
12675SOL     OW43861   4.778   7.595   0.687 -0.0297  0.3289  0.1988
12675SOL    HW143862   4.869   7.570   0.672 -0.2093  0.6365 -1.5473
12675SOL    HW243863   4.761   7.571   0.779  1.8108  0.3341  0.5660
12676SOL     OW43864   4.358   1.117   4.911 -0.5069  0.5639  0.2198
12676SOL    HW143865   4.396   1.147   4.828  0.0495 -0.9980 -0.1237
12676SOL    HW243866   4.390   1.027   4.921 -0.8907  0.5875  1.9387
12677SOL     OW43867  10.402   9.865   2.173  0.0716  0.2282  0.2082
12677SOL    HW143868  10.476   9.858   2.113  0.3012  0.6492  0.4376
12677SOL    HW243869  10.436   9.914   2.248 -0.5369  0.7596  0.1508
12678SOL     OW43870   9.707   8.087  11.923  0.0515 -0.3478 -0.3180
12678SOL    HW143871   9.680   8.175  11.949 -0.5754 -0.3825 -0.8108
12678SOL    HW243872   9.783   8.101  11.867 -0.8709  0.0026 -1.5341
12679SOL     OW43873   9.040   1.102  10.374 -0.2897  0.2611  0.0026
12679SOL    HW143874   9.011   1.043  10.304 -0.9753 -0.7403  1.0800
12679SOL    HW243875   9.107   1.157  10.334 -1.9625  1.0108 -1.9590
12680SOL     OW43876   3.839   8.594   3.714 -0.0524 -0.1371  0.8098
12680SOL    HW143877   3.846   8.663   3.648 -0.3065 -1.8819 -1.1396
12680SOL    HW243878   3.892   8.522   3.680  0.5639 -0.8021  2.9846
12681SOL     OW43879   0.949   7.061   3.891  0.3739  0.5521 -0.4136
12681SOL    HW143880   0.890   7.022   3.827 -0.9732  1.5641  0.1552
12681SOL    HW243881   0.937   7.009   3.970 -0.1707  1.0897 -0.1396
12682SOL     OW43882   5.338   6.332   3.698 -0.0583 -0.2784  0.1759
12682SOL    HW143883   5.294   6.262   3.649  0.2035 -0.7983  0.6656
12682SOL    HW243884   5.304   6.413   3.661  0.9271 -0.6378 -1.6031
12683SOL     OW43885  10.868   8.576   5.194  0.1879 -0.2922 -0.0622
12683SOL    HW143886  10.806   8.529   5.249  0.1327  0.9112  0.9627
12683SOL    HW243887  10.822   8.592   5.112  0.4991 -2.7052 -0.7855
12684SOL     OW43888   0.210   7.029   0.919  0.6410  0.0717 -0.7551
12684SOL    HW143889   0.233   7.112   0.959  1.1865  0.4034 -1.7150
12684SOL    HW243890   0.160   7.053   0.841 -0.7115 -0.5679 -0.1031
12685SOL     OW43891   0.117   9.471   0.194  0.5480 -0.1423  0.0192
12685SOL    HW143892   0.148   9.479   0.284 -0.5160 -0.1203  0.3980
12685SOL    HW243893   0.083   9.381   0.188  0.9911 -0.2784 -0.4807
12686SOL     OW43894   6.996   7.415   9.356 -0.3008 -0.1387  0.1178
12686SOL    HW143895   6.933   7.359   9.401  2.6552 -2.6687  1.5400
12686SOL    HW243896   7.060   7.438   9.424  1.0828  1.0719 -1.5113
12687SOL     OW43897   0.783   6.787   5.120  0.0151  0.0856  0.8294
12687SOL    HW143898   0.754   6.695   5.124 -0.9757  0.3835  0.7255
12687SOL    HW243899   0.871   6.785   5.157 -0.7520 -0.5947  2.7914
12688SOL     OW43900   6.476   8.530   7.132  0.1166  0.2187  0.2615
12688SOL    HW143901   6.412   8.536   7.061 -1.7019 -0.2738  1.7955
12688SOL    HW243902   6.541   8.597   7.111 -0.8213  0.6610 -1.4212
12689SOL     OW43903   6.861   9.392   4.487 -0.0803  0.6650 -0.0207
12689SOL    HW143904   6.900   9.309   4.459 -0.7635  0.6260 -0.8980
12689SOL    HW243905   6.890   9.455   4.422 -0.5447  0.8696 -0.0339
12690SOL     OW43906   7.694   1.244  11.334  0.0415  0.3659 -0.4118
12690SOL    HW143907   7.710   1.238  11.239  1.6073  1.1798 -0.2317
12690SOL    HW243908   7.781   1.249  11.373 -0.5205  3.9177  0.7723
12691SOL     OW43909   1.498   2.326   6.934  0.5540 -0.1780 -0.3236
12691SOL    HW143910   1.506   2.339   6.840  1.1626  0.3651 -0.2015
12691SOL    HW243911   1.586   2.340   6.968  0.0366  1.3018  0.5100
12692SOL     OW43912   4.904   8.238   5.186 -0.6376 -0.0794  0.0916
12692SOL    HW143913   4.922   8.283   5.103 -2.2102 -2.3693 -1.6123
12692SOL    HW243914   4.974   8.173   5.194  0.0356  0.7267  1.1100
12693SOL     OW43915   4.947   0.230   3.877 -0.1738  0.4176 -0.2211
12693SOL    HW143916   4.964   0.324   3.870 -0.0401  0.4464  0.4716
12693SOL    HW243917   5.033   0.190   3.866 -0.3226  0.3328 -1.1808
12694SOL     OW43918  11.298  12.180   3.246 -0.4557 -0.3848  0.3233
12694SOL    HW143919  11.326  12.123   3.174  3.4234  1.4029  0.1508
12694SOL    HW243920  11.303  12.269   3.210 -1.8071  0.3880  1.8855
12695SOL     OW43921   2.266  11.778   4.715 -0.1553  0.0320 -0.0639
12695SOL    HW143922   2.240  11.691   4.747 -3.0749  1.2607  1.2580
12695SOL    HW243923   2.332  11.807   4.778  0.6214 -1.0802 -0.3331
12696SOL     OW43924   7.545   2.849   3.019  0.4222 -0.3116 -0.5708
12696SOL    HW143925   7.556   2.757   3.041  0.8392  0.3254  2.3234
12696SOL    HW243926   7.634   2.881   3.002  0.3126 -0.3501 -1.2526
12697SOL     OW43927   9.088   1.798  11.123  0.1253  0.1880 -0.2127
12697SOL    HW143928   9.174   1.795  11.165 -0.0585 -0.9155  0.1061
12697SOL    HW243929   9.031   1.747  11.180 -0.1282 -1.4058 -1.7926
12698SOL     OW43930   2.171   3.930  11.847 -0.3445  0.1326 -0.9121
12698SOL    HW143931   2.190   3.872  11.920  3.3261  2.0831 -0.0505
12698SOL    HW243932   2.076   3.931  11.841 -0.6824 -3.0018  1.3533
12699SOL     OW43933   0.963  11.442   6.339  0.2465  0.8951 -0.2267
12699SOL    HW143934   0.948  11.354   6.303  0.9626  0.8128 -0.3386
12699SOL    HW243935   0.900  11.498   6.295  1.0002  0.7713 -1.5000
12700SOL     OW43936   9.836   9.712   1.669 -0.0553 -0.8604 -0.1203
12700SOL    HW143937   9.926   9.694   1.695  0.2187 -0.6704 -0.9271
12700SOL    HW243938   9.835   9.704   1.574 -0.7837 -0.3993 -0.1665
12701SOL     OW43939   1.754  10.441   6.496  0.4738 -0.2103  0.3639
12701SOL    HW143940   1.843  10.413   6.514  1.0217  1.1969 -0.0576
12701SOL    HW243941   1.752  10.534   6.519 -0.6746 -0.0368 -0.3146
12702SOL     OW43942   3.583   8.873   2.007  0.0401 -0.1363  0.3432
12702SOL    HW143943   3.643   8.813   2.052 -0.9860  0.1925  2.2525
12702SOL    HW243944   3.497   8.855   2.045 -0.5478  1.5222 -0.0884
12703SOL     OW43945   7.320   1.088   0.613 -0.1688  0.4706  0.3185
12703SOL    HW143946   7.289   1.118   0.527 -0.8865  0.1976  0.4765
12703SOL    HW243947   7.334   1.168   0.663 -1.6667  0.5836  0.5966
12704SOL     OW43948   5.876   7.821   8.752 -0.3869  0.0850  0.2813
12704SOL    HW143949   5.913   7.753   8.695  0.7985  0.4172  0.6139
12704SOL    HW243950   5.803   7.856   8.703 -1.0561 -1.4540  0.1174
12705SOL     OW43951   3.854   6.623   3.285 -0.4511  0.2284 -0.5708
12705SOL    HW143952   3.765   6.588   3.288  0.0610 -1.0691  0.8011
12705SOL    HW243953   3.904   6.566   3.344  1.1721  1.2588 -0.8931
12706SOL     OW43954  10.163   9.184   8.195  0.2883  0.7041 -0.2093
12706SOL    HW143955  10.138   9.092   8.204 -1.2415  0.9951 -1.1351
12706SOL    HW243956  10.259   9.183   8.196  0.2933 -0.8424  0.2174
12707SOL     OW43957  11.695   1.911   3.137 -0.1337 -0.1501 -0.2950
12707SOL    HW143958  11.702   1.917   3.041  0.1610 -1.9003 -0.4195
12707SOL    HW243959  11.775   1.951   3.170  0.0432 -0.0744 -0.8086
12708SOL     OW43960  11.570   4.968   6.104 -0.8285  0.1933  0.7777
12708SOL    HW143961  11.633   4.937   6.038 -0.7501  0.5700  0.6735
12708SOL    HW243962  11.623   5.023   6.162 -1.5226  2.7240 -0.8038
12709SOL     OW43963   5.246  12.282   7.734  0.8283 -0.0120  0.3823
12709SOL    HW143964   5.242  12.337   7.813  1.1670 -1.2670  1.2938
12709SOL    HW243965   5.193  12.205   7.755  0.8115 -0.3039 -0.6770
12710SOL     OW43966   4.205   4.833   8.211  0.2160 -0.0085 -0.1751
12710SOL    HW143967   4.209   4.761   8.148 -2.6606 -0.1792 -0.2946
12710SOL    HW243968   4.230   4.910   8.161  0.9157 -0.5623 -0.6969
12711SOL     OW43969   5.206   3.363   0.871  0.4727 -0.7698 -0.1954
12711SOL    HW143970   5.297   3.361   0.900  0.3570 -0.1130  0.2330
12711SOL    HW243971   5.175   3.273   0.882  0.9915 -0.9399 -0.1030
12712SOL     OW43972  11.331   2.859   1.105  0.1091  0.4091 -0.2564
12712SOL    HW143973  11.387   2.934   1.125 -0.2787  0.6156  0.0732
12712SOL    HW243974  11.246   2.883   1.141 -0.0924 -0.0648 -0.4156
12713SOL     OW43975  11.652   6.375   6.796 -0.1699  0.3311 -0.0677
12713SOL    HW143976  11.719   6.444   6.802 -1.2114  1.3816 -0.1763
12713SOL    HW243977  11.616   6.369   6.884  1.1973 -1.4461  0.4226
12714SOL     OW43978   2.999   6.822   5.978  0.1092 -0.3019 -0.5186
12714SOL    HW143979   3.042   6.746   5.938  1.5126  0.9196 -1.4684
12714SOL    HW243980   2.983   6.882   5.904 -0.6264  0.4784  0.2505
12715SOL     OW43981  11.141  11.700   4.282  0.0655  0.2718 -0.0508
12715SOL    HW143982  11.152  11.742   4.196  0.2058  0.8929  0.2653
12715SOL    HW243983  11.047  11.706   4.300  0.0604  0.2986 -0.0846
12716SOL     OW43984  12.195   9.520   8.382  0.0014 -0.3847 -0.2560
12716SOL    HW143985  12.194   9.446   8.442  0.8346 -0.4027 -0.2567
12716SOL    HW243986  12.248   9.587   8.426 -0.7965  0.2461 -0.2219
12717SOL     OW43987   3.090   5.825   9.550  0.1082 -0.0369  0.4206
12717SOL    HW143988   3.090   5.818   9.455 -1.7120 -1.5753  0.4701
12717SOL    HW243989   3.173   5.867   9.571  0.3647  0.7170 -1.8526
12718SOL     OW43990   3.634  10.393   9.422 -0.4439  0.2573  0.2550
12718SOL    HW143991   3.578  10.353   9.355 -0.9615 -1.9304  1.8763
12718SOL    HW243992   3.722  10.360   9.404 -0.0186  1.9178 -0.9542
12719SOL     OW43993   7.171   9.654  11.833 -0.2954 -0.0549 -0.3016
12719SOL    HW143994   7.129   9.740  11.828  1.6650  0.9723 -0.1748
12719SOL    HW243995   7.174   9.634  11.927  0.7183  0.5384 -0.1940
12720SOL     OW43996  10.899   3.517   0.817  0.2196  0.3387 -0.3602
12720SOL    HW143997  10.820   3.463   0.813  0.7380 -0.9028  2.8490
12720SOL    HW243998  10.887   3.569   0.897  2.2515  0.7606 -0.2953
12721SOL     OW43999   7.410   3.289   0.192  0.1601  0.2085  0.4257
12721SOL    HW144000   7.490   3.297   0.139 -0.0638 -0.0681  0.0367
12721SOL    HW244001   7.436   3.235   0.266  0.3853  0.2854  0.4051
12722SOL     OW44002   9.225   9.076   9.749 -0.0939 -0.1073 -0.3531
12722SOL    HW144003   9.229   8.988   9.785 -0.2935  0.0875  0.1591
12722SOL    HW244004   9.257   9.132   9.820 -2.3506  0.4808  0.2749
12723SOL     OW44005   4.452   9.509   3.218  0.8635  0.3139 -0.3495
12723SOL    HW144006   4.425   9.583   3.164  0.1676 -1.1767 -2.1613
12723SOL    HW244007   4.384   9.500   3.284  0.1560  0.3704 -1.0630
12724SOL     OW44008   6.104  12.180   9.814  0.3542  0.0695 -0.1131
12724SOL    HW144009   6.069  12.209   9.730  1.3017  0.6649 -0.3143
12724SOL    HW244010   6.129  12.261   9.859  0.2263 -0.2701  0.5851
12725SOL     OW44011   5.431   4.853   9.092 -0.4049 -0.6012  1.0068
12725SOL    HW144012   5.520   4.883   9.112 -0.9940  2.5599 -0.5389
12725SOL    HW244013   5.432   4.839   8.997 -1.3766 -1.3016  1.0864
12726SOL     OW44014   3.715  10.323   6.487  0.0349  0.4481 -0.4153
12726SOL    HW144015   3.665  10.398   6.455  0.1843  0.2079 -1.2352
12726SOL    HW244016   3.689  10.314   6.579  1.7995  2.9632  0.4185
12727SOL     OW44017   5.750   5.965   7.651  0.5858 -0.1612  0.6467
12727SOL    HW144018   5.689   5.891   7.643  0.1667  0.0876  1.4136
12727SOL    HW244019   5.794   5.951   7.735  1.4393 -0.2190  0.1993
12728SOL     OW44020   3.440   4.102   5.279  0.7318  0.6662  0.6178
12728SOL    HW144021   3.489   4.131   5.202 -0.7994  0.3859 -0.5063
12728SOL    HW244022   3.475   4.015   5.299  1.4551  0.9318  0.5291
12729SOL     OW44023  11.496   0.105   7.989  0.3597 -0.3716  0.2993
12729SOL    HW144024  11.456   0.019   8.001  1.7076 -1.1751 -0.6951
12729SOL    HW244025  11.581   0.098   8.032  0.7948  0.2129 -0.4404
12730SOL     OW44026   7.994   8.083   7.172 -0.3079 -0.4053  1.0970
12730SOL    HW144027   7.999   8.135   7.092  0.1226 -1.6565  0.2843
12730SOL    HW244028   7.939   8.008   7.148  0.5218 -1.2297  1.7242
12731SOL     OW44029   6.837   4.445   7.279  0.3152  0.3712  0.4996
12731SOL    HW144030   6.754   4.413   7.316 -0.7289  2.0992 -0.2063
12731SOL    HW244031   6.833   4.540   7.290  0.9170  0.7570 -2.0546
12732SOL     OW44032  11.379   0.765   1.133 -0.4865 -0.5379  0.0398
12732SOL    HW144033  11.332   0.798   1.056 -0.7822  0.9324  0.8091
12732SOL    HW244034  11.448   0.709   1.097 -1.1077 -0.5147 -1.2514
12733SOL     OW44035   2.196  11.948   0.689  0.0876 -0.5402 -0.1110
12733SOL    HW144036   2.182  11.984   0.602 -1.9418 -1.3233 -0.1594
12733SOL    HW244037   2.290  11.957   0.704  0.2242  1.1368 -1.6797
12734SOL     OW44038   8.182   8.468   4.582 -0.0757 -0.4053  0.7581
12734SOL    HW144039   8.107   8.449   4.526 -0.0755 -1.4850  1.0972
12734SOL    HW244040   8.155   8.437   4.669 -0.0923  1.2784  1.3919
12735SOL     OW44041   5.949   1.508   3.872 -0.1391 -0.0062  0.4611
12735SOL    HW144042   5.902   1.591   3.881  0.2794  0.1573  1.1608
12735SOL    HW244043   6.040   1.533   3.859  0.3125 -0.3463  2.5521
12736SOL     OW44044  11.644   0.992   9.219 -0.1134 -0.3220 -0.0812
12736SOL    HW144045  11.731   1.022   9.191  0.0030 -1.5089 -1.0599
12736SOL    HW244046  11.584   1.061   9.190  0.4450  0.3189  0.2585
12737SOL     OW44047   4.119   7.833  12.244  0.1710 -0.6358  0.3271
12737SOL    HW144048   4.091   7.741  12.247 -2.5365 -0.0311 -2.0114
12737SOL    HW244049   4.052   7.877  12.192  0.3989  3.0720  2.7631
12738SOL     OW44050   7.548   7.235   6.965 -0.3641 -0.2290  0.3013
12738SOL    HW144051   7.598   7.169   6.916 -0.3635 -0.2386  0.3151
12738SOL    HW244052   7.457   7.215   6.946 -0.3985 -0.7877  1.0222
12739SOL     OW44053  12.048   3.698   1.984 -0.7805 -0.0744  0.2137
12739SOL    HW144054  12.009   3.672   1.901  1.8528  1.1386 -1.5374
12739SOL    HW244055  12.030   3.792   1.990  1.7783  0.5828 -0.7672
12740SOL     OW44056   0.422   6.465  11.944  0.3069 -0.2535 -0.4110
12740SOL    HW144057   0.446   6.430  11.858 -0.6557 -0.3026 -0.6676
12740SOL    HW244058   0.383   6.550  11.925 -1.0798 -0.8052 -0.1528
12741SOL     OW44059   2.935   6.916   4.593  0.3524 -0.5244 -0.0295
12741SOL    HW144060   3.010   6.972   4.579 -0.4030  0.2995 -0.9010
12741SOL    HW244061   2.963   6.829   4.563  0.6069  0.0135 -1.4108
12742SOL     OW44062   5.531   4.389   8.537 -0.4651  0.3622  0.4193
12742SOL    HW144063   5.607   4.332   8.555 -0.5728  0.0128 -0.2147
12742SOL    HW244064   5.562   4.450   8.470 -1.3787 -1.2013 -1.5195
12743SOL     OW44065   0.968  11.292   1.460  0.0639  0.5129  1.3140
12743SOL    HW144066   1.022  11.243   1.398 -0.3222  2.1720 -0.4106
12743SOL    HW244067   0.995  11.383   1.449 -3.0266  1.4383  0.3237
12744SOL     OW44068  10.787   4.783   7.871  0.4443  0.1140  0.0541
12744SOL    HW144069  10.703   4.816   7.839  0.1760  0.3064  0.9165
12744SOL    HW244070  10.843   4.780   7.794 -0.4750 -0.3926 -0.6079
12745SOL     OW44071   0.452   3.127   0.569 -0.0985  0.3605  0.2637
12745SOL    HW144072   0.397   3.071   0.514  0.3849 -0.4434  0.5904
12745SOL    HW244073   0.487   3.193   0.509 -1.1981  0.7243  0.0037
12746SOL     OW44074  11.469   4.251   5.973 -0.1306  0.0935 -0.0164
12746SOL    HW144075  11.497   4.340   5.948  2.7300 -0.6019  0.3223
12746SOL    HW244076  11.426   4.263   6.058 -1.9693  1.3839 -1.0569
12747SOL     OW44077   0.110   5.662   7.212 -0.0228  0.5711 -0.0570
12747SOL    HW144078   0.100   5.734   7.274  1.1241  2.8965 -2.3303
12747SOL    HW244079   0.129   5.706   7.128 -1.0549 -2.3494 -1.9716
12748SOL     OW44080   6.882   0.346   8.010  0.1504 -0.4309 -0.2361
12748SOL    HW144081   6.968   0.359   8.049  0.3115  1.6223 -1.1441
12748SOL    HW244082   6.822   0.397   8.065 -0.1706 -0.3538 -0.6510
12749SOL     OW44083   3.568   2.195  10.435  0.0309 -0.0778  0.7430
12749SOL    HW144084   3.489   2.242  10.463 -1.4208 -2.0262  0.1383
12749SOL    HW244085   3.544   2.156  10.351  2.5044  1.2733 -0.7046
12750SOL     OW44086   5.128   4.509   5.378 -0.0777 -0.3554 -0.5401
12750SOL    HW144087   5.169   4.430   5.412  0.2193 -0.7251 -1.7053
12750SOL    HW244088   5.136   4.573   5.449  2.6369 -0.3765 -0.7297
12751SOL     OW44089  11.777  12.178   0.517 -0.2533 -0.4057  0.6231
12751SOL    HW144090  11.722  12.126   0.575 -0.0265 -0.3479  0.8879
12751SOL    HW244091  11.810  12.249   0.572  1.9759 -1.7305  1.1058
12752SOL     OW44092   0.081   0.850   9.417 -0.1105  0.1234  0.4458
12752SOL    HW144093   0.058   0.793   9.490 -2.1877  1.2301  0.7390
12752SOL    HW244094   0.005   0.848   9.359 -0.1164  2.2547  0.2782
12753SOL     OW44095   4.983   8.654   3.509 -0.1019 -0.2024  0.1759
12753SOL    HW144096   4.976   8.579   3.449 -0.3878 -0.9999  1.1663
12753SOL    HW244097   5.043   8.624   3.577 -1.3713 -0.1253  1.3903
12754SOL     OW44098   9.110   6.275   0.852  0.3780  0.4676 -0.0848
12754SOL    HW144099   9.092   6.206   0.915 -0.0790 -1.2291 -1.9550
12754SOL    HW244100   9.164   6.338   0.899  1.6098 -1.6284  1.4598
12755SOL     OW44101   9.905   3.931   6.329 -0.4198  0.3616 -0.3223
12755SOL    HW144102   9.933   3.878   6.255  0.8518  0.3588  0.1225
12755SOL    HW244103   9.832   3.883   6.368  0.2088 -0.6756 -0.3939
12756SOL     OW44104   0.511   9.247   0.465  0.0316  0.5436  0.2484
12756SOL    HW144105   0.451   9.195   0.518  0.8832  0.0727  0.7648
12756SOL    HW244106   0.507   9.207   0.378 -2.3111  2.0796 -0.4301
12757SOL     OW44107  10.427   8.196   1.400 -0.0429 -0.7082  0.0148
12757SOL    HW144108  10.408   8.281   1.361  0.2272 -0.7156 -0.1342
12757SOL    HW244109  10.503   8.213   1.457 -0.3771 -0.7163  0.4710
12758SOL     OW44110   2.669   5.607  11.626  0.2033  0.7249 -0.0168
12758SOL    HW144111   2.713   5.531  11.663  0.6799  0.5945 -0.8349
12758SOL    HW244112   2.582   5.607  11.667 -0.3209 -1.0636 -1.0346
12759SOL     OW44113   5.221   2.598  11.068 -0.0379  0.6557 -0.3383
12759SOL    HW144114   5.159   2.561  11.131 -0.9640 -0.2345 -1.7205
12759SOL    HW244115   5.236   2.687  11.098 -0.4189  0.2424  1.1553
12760SOL     OW44116   0.163   4.677   0.988 -0.1667 -0.6810 -0.2804
12760SOL    HW144117   0.208   4.694   0.905 -0.5084 -1.0106 -0.5393
12760SOL    HW244118   0.212   4.605   1.028  1.2139  0.7814  0.7641
12761SOL     OW44119   0.456  11.487   2.639  0.7597  0.4996 -0.5184
12761SOL    HW144120   0.451  11.433   2.560  0.2044 -0.2232 -0.0093
12761SOL    HW244121   0.464  11.424   2.710 -2.2171  0.8824  0.3110
12762SOL     OW44122   0.296   7.362   6.402  0.2956  0.2854  0.4064
12762SOL    HW144123   0.363   7.429   6.388 -0.8706  1.4238  0.0510
12762SOL    HW244124   0.216   7.401   6.368 -0.6069 -0.9394  1.0494
12763SOL     OW44125  10.878  10.811   6.724 -0.3871  0.1506  0.0000
12763SOL    HW144126  10.900  10.797   6.632  0.4992 -0.3763  0.2789
12763SOL    HW244127  10.874  10.906   6.734  0.0355  0.2214 -0.4697
12764SOL     OW44128   6.905   4.417   0.598  0.0631 -0.1595  0.1392
12764SOL    HW144129   6.919   4.511   0.584  2.1525 -0.5301 -0.6606
12764SOL    HW244130   6.880   4.410   0.690  1.3339  1.0946  0.6298
12765SOL     OW44131   7.269   0.779   9.359 -0.2114 -0.1144 -0.0855
12765SOL    HW144132   7.289   0.719   9.286 -0.9342 -0.2763 -0.1520
12765SOL    HW244133   7.266   0.722   9.436  1.1963  0.1451  0.1918
12766SOL     OW44134  11.019   9.754  10.334 -0.1600  0.0764  0.2508
12766SOL    HW144135  10.992   9.757  10.243 -0.0015  0.3555  0.2085
12766SOL    HW244136  11.114   9.739  10.331 -0.0669  0.5893  0.3490
12767SOL     OW44137   2.665   1.727   3.987 -0.2082 -0.3041 -0.3898
12767SOL    HW144138   2.580   1.704   3.948 -0.9303  0.8415  0.4531
12767SOL    HW244139   2.680   1.660   4.053 -1.1985  0.3264  0.4947
12768SOL     OW44140   8.046   2.772   9.827  0.2464 -0.0245 -0.3154
12768SOL    HW144141   8.081   2.861   9.816  0.7290 -0.2594 -0.7059
12768SOL    HW244142   8.116   2.715   9.796 -0.2351 -0.5299 -0.4772
12769SOL     OW44143   4.855   7.148   6.610 -0.1931 -0.2637 -0.4253
12769SOL    HW144144   4.874   7.107   6.695  2.8640  0.4374 -0.6687
12769SOL    HW244145   4.815   7.232   6.633 -4.6300 -2.1765  0.0874
12770SOL     OW44146   4.334   2.176   4.858  0.0903 -0.0682  0.0463
12770SOL    HW144147   4.257   2.124   4.881  0.3315  0.5111  2.5047
12770SOL    HW244148   4.383   2.183   4.940  1.8568  1.0757 -1.0427
12771SOL     OW44149   5.345   0.276   1.478  0.1820  0.6348 -0.5172
12771SOL    HW144150   5.431   0.310   1.452  0.3051  0.2249 -0.6665
12771SOL    HW244151   5.359   0.237   1.564  0.0255  1.0232 -0.3149
12772SOL     OW44152  11.802   4.626   9.178 -0.1653  0.5161 -0.4774
12772SOL    HW144153  11.810   4.635   9.083  1.4198 -1.0880 -0.5629
12772SOL    HW244154  11.716   4.586   9.191  0.5059 -1.3605 -1.4591
12773SOL     OW44155   5.355   1.351   3.486 -0.0137  0.5975 -0.1014
12773SOL    HW144156   5.395   1.306   3.561  0.1440  0.0497 -0.5092
12773SOL    HW244157   5.429   1.378   3.432  0.0280  3.0025  1.0234
12774SOL     OW44158  10.388   1.185   5.552  0.3086 -0.3598 -0.5075
12774SOL    HW144159  10.360   1.093   5.558 -1.7925  0.2417 -0.3383
12774SOL    HW244160  10.378   1.207   5.459  1.6209 -0.5102 -0.7035
12775SOL     OW44161   8.574   3.197   8.931  0.9260  0.5442  0.5875
12775SOL    HW144162   8.663   3.195   8.894  1.2052  1.2423  1.2018
12775SOL    HW244163   8.560   3.108   8.963  1.2780  0.3419  0.1993
12776SOL     OW44164  11.328   5.508   4.835 -0.2456  0.1431 -0.0811
12776SOL    HW144165  11.350   5.425   4.794 -0.0968  0.6050 -0.9562
12776SOL    HW244166  11.330   5.572   4.764  1.0475  1.1576  0.8199
12777SOL     OW44167   4.083   3.498   1.217 -0.1431  0.2291  0.6493
12777SOL    HW144168   4.107   3.526   1.129 -0.0431  0.1560  0.6535
12777SOL    HW244169   4.083   3.579   1.268 -1.4187  0.4638  0.3160
12778SOL     OW44170  10.707   1.271   2.113 -0.5580  0.4188 -0.1411
12778SOL    HW144171  10.681   1.232   2.196 -0.3013  0.5455 -0.0029
12778SOL    HW244172  10.796   1.238   2.098 -0.2098  1.2124  0.1392
12779SOL     OW44173   6.285   7.207   7.451 -0.2852  0.3486  0.3833
12779SOL    HW144174   6.375   7.177   7.464  0.1909  1.6104  0.1437
12779SOL    HW244175   6.249   7.145   7.387  0.9502  0.7668 -0.7848
12780SOL     OW44176   9.449   6.126   4.207 -0.3832  0.0747  0.4690
12780SOL    HW144177   9.498   6.059   4.254 -2.8010 -1.1727  1.4017
12780SOL    HW244178   9.414   6.082   4.130  1.5257  1.4794 -1.3064
12781SOL     OW44179   0.105   6.240   4.052  0.0515 -0.6724 -0.2454
12781SOL    HW144180   0.045   6.274   3.986  0.8538  0.3785 -0.4666
12781SOL    HW244181   0.080   6.149   4.063 -1.4520 -0.3154 -0.4662
12782SOL     OW44182   9.923   8.811   7.494  0.0966 -0.1834 -0.2281
12782SOL    HW144183   9.870   8.736   7.467  1.8617 -1.0508 -1.4532
12782SOL    HW244184   9.942   8.858   7.413  0.0446  0.9165  0.3754
12783SOL     OW44185  10.219   0.016   9.229  0.5386 -0.3610  0.1218
12783SOL    HW144186  10.270  -0.064   9.215  0.2359 -0.4557 -0.4791
12783SOL    HW244187  10.237   0.040   9.320 -0.4988 -1.9130  0.7776
12784SOL     OW44188   8.019   6.973   5.574  0.5140  0.3123  0.2498
12784SOL    HW144189   7.979   7.013   5.652 -0.9237 -0.6266  0.0315
12784SOL    HW244190   7.957   6.992   5.504  0.8550 -0.4909 -0.2736
12785SOL     OW44191   6.032   2.832   7.514 -0.1996  0.6215  0.7235
12785SOL    HW144192   5.971   2.780   7.461 -1.0003  0.6461  1.5906
12785SOL    HW244193   6.038   2.916   7.469 -1.6926  1.0101  1.2115
12786SOL     OW44194   8.293   6.430   5.084  0.0004 -0.3116 -0.0547
12786SOL    HW144195   8.360   6.373   5.047 -0.6218 -0.6759 -0.6492
12786SOL    HW244196   8.337   6.477   5.154  1.0748  0.0377 -0.9473
12787SOL     OW44197   6.955   3.573   9.701 -0.3462  0.2873  0.2121
12787SOL    HW144198   7.009   3.550   9.626 -0.6598 -0.0986  0.1013
12787SOL    HW244199   6.982   3.511   9.769  2.0078  2.4002  1.4108
12788SOL     OW44200  12.248   3.281   0.243  0.2022  0.1649 -0.2334
12788SOL    HW144201  12.275   3.283   0.152 -0.2127  0.6989 -0.3487
12788SOL    HW244202  12.315   3.228   0.287  0.4829  0.0320 -0.8152
12789SOL     OW44203   3.708   1.463   8.489  0.0913 -0.3876 -0.2300
12789SOL    HW144204   3.700   1.389   8.428  0.5121 -0.5114 -0.1420
12789SOL    HW244205   3.763   1.429   8.560  0.1319 -0.0446 -0.0960
12790SOL     OW44206   0.840   5.255   5.313  0.6406  0.1430  0.0027
12790SOL    HW144207   0.932   5.268   5.289  1.1351 -0.8993  1.1874
12790SOL    HW244208   0.800   5.213   5.237  1.1956  0.4220 -0.4447
12791SOL     OW44209   5.963   2.006  10.813  0.6164 -0.7763 -0.1070
12791SOL    HW144210   6.048   1.974  10.781  1.0124 -2.2697  2.1728
12791SOL    HW244211   5.970   1.999  10.909 -1.7959 -0.1583  0.1674
12792SOL     OW44212   1.725   1.955  10.705  0.0412 -0.0662  0.1024
12792SOL    HW144213   1.791   1.916  10.762  2.3201  1.7377 -1.1299
12792SOL    HW244214   1.651   1.895  10.710  1.2386 -1.4986  2.6089
12793SOL     OW44215   5.303   1.970  10.708  0.3264  0.5792  0.0889
12793SOL    HW144216   5.231   1.943  10.766 -0.1914  0.9303 -0.3749
12793SOL    HW244217   5.379   1.977  10.766  0.9942 -3.6360 -0.0127
12794SOL     OW44218   0.798  10.128   6.762 -0.7938 -0.1015  0.7316
12794SOL    HW144219   0.851  10.202   6.793  0.0236 -0.6536  0.6817
12794SOL    HW244220   0.732  10.115   6.831 -0.1443 -0.1333  1.3587
12795SOL     OW44221  11.359   2.110   0.973  0.2914  0.0893 -0.5481
12795SOL    HW144222  11.337   2.191   0.927  0.7856 -0.3676 -1.6301
12795SOL    HW244223  11.293   2.102   1.041 -0.1352  1.0792 -0.8327
12796SOL     OW44224   4.237   6.530   9.277  0.6859  0.5421 -0.7094
12796SOL    HW144225   4.143   6.530   9.292  1.0604 -0.7291  2.3019
12796SOL    HW244226   4.265   6.619   9.301  0.5234  0.1812  0.9380
12797SOL     OW44227   4.950   0.419   6.665  0.2295  0.2043  0.1876
12797SOL    HW144228   4.931   0.439   6.573 -1.2866  1.0544  0.6635
12797SOL    HW244229   4.919   0.329   6.677 -0.1791  0.3221  0.0278
12798SOL     OW44230   2.840   7.873  11.161  0.0443 -0.1072 -0.6019
12798SOL    HW144231   2.919   7.860  11.213 -0.3127 -0.5432 -0.1540
12798SOL    HW244232   2.867   7.857  11.070 -0.1024 -3.0322 -0.2185
12799SOL     OW44233   5.706   3.471  10.091  0.2667  0.5317  0.2166
12799SOL    HW144234   5.663   3.556  10.100 -0.5840  0.2074 -0.6695
12799SOL    HW244235   5.738   3.470  10.001 -0.4783 -0.4264 -0.0458
12800SOL     OW44236   6.351   5.930   4.638 -0.1082  0.2522  0.2525
12800SOL    HW144237   6.352   6.025   4.651 -0.7731 -0.0235  2.7300
12800SOL    HW244238   6.441   5.903   4.657  0.0756  0.3550 -0.4296
12801SOL     OW44239   2.135   4.493   4.249  0.3220 -0.0575  0.2945
12801SOL    HW144240   2.171   4.469   4.334 -0.7979  1.2763  1.1840
12801SOL    HW244241   2.106   4.410   4.212  2.0764 -0.8462  0.5705
12802SOL     OW44242   2.099  10.670   2.143 -0.2829  0.4666 -0.9696
12802SOL    HW144243   2.159  10.657   2.070  1.5208 -1.4237  0.7370
12802SOL    HW244244   2.120  10.600   2.205 -0.9952  2.5616  1.8477
12803SOL     OW44245   7.290   8.977   3.970  0.6613  0.2506  0.3751
12803SOL    HW144246   7.235   8.906   3.940  1.8332 -1.3305  1.7637
12803SOL    HW244247   7.237   9.056   3.957 -0.8742 -0.9054 -0.7240
12804SOL     OW44248  11.862   0.903   0.991 -0.1548  0.2380  0.0699
12804SOL    HW144249  11.937   0.941   1.037  0.2657  0.6168 -0.9034
12804SOL    HW244250  11.792   0.902   1.057  0.3250  1.1014  0.6160
12805SOL     OW44251  10.876   7.282   6.457 -0.7603  0.5474 -0.2899
12805SOL    HW144252  10.927   7.249   6.531 -1.4618 -1.5580 -0.6820
12805SOL    HW244253  10.786   7.285   6.489 -0.8947  0.8373 -0.6850
12806SOL     OW44254   4.523  11.531   2.524 -0.0261 -0.6857 -0.5617
12806SOL    HW144255   4.546  11.461   2.585 -0.5070  0.8608  1.5286
12806SOL    HW244256   4.584  11.520   2.451  0.4004 -2.8029  0.0351
12807SOL     OW44257   7.341  10.443   1.839  0.2952 -0.5258 -0.5215
12807SOL    HW144258   7.296  10.435   1.756 -1.0000  0.9130  0.0003
12807SOL    HW244259   7.332  10.535   1.863  1.3791 -0.7236  0.8095
12808SOL     OW44260   8.153   0.356   6.045  0.0348  0.2802  0.2569
12808SOL    HW144261   8.189   0.394   6.125  0.6319 -0.8393  0.5431
12808SOL    HW244262   8.203   0.396   5.975  0.4501  0.2602  0.5369
12809SOL     OW44263   5.778   6.579   9.830 -0.1246  0.0509 -0.2584
12809SOL    HW144264   5.784   6.521   9.755 -0.4712 -1.7440  1.0534
12809SOL    HW244265   5.855   6.635   9.823 -0.2592  0.0758 -2.0390
12810SOL     OW44266   6.606   1.693   8.567 -0.2776  0.4701  0.0599
12810SOL    HW144267   6.557   1.660   8.492  1.2222 -0.2005 -0.6586
12810SOL    HW244268   6.538   1.728   8.626 -1.7332 -1.6961 -0.2197
12811SOL     OW44269   1.470   0.431   1.955 -0.2681  0.5036  0.3231
12811SOL    HW144270   1.386   0.399   1.987 -0.6033  2.1179  1.1618
12811SOL    HW244271   1.448   0.509   1.904  0.7452  1.2353  0.9747
12812SOL     OW44272   5.928   5.053  11.625  0.2461  0.0377 -0.4519
12812SOL    HW144273   5.948   4.971  11.580 -0.1264 -0.3870  0.1274
12812SOL    HW244274   5.983   5.051  11.703 -0.3504 -0.0466 -0.0278
12813SOL     OW44275   1.216   7.717  11.693  0.2023 -0.1104  0.0817
12813SOL    HW144276   1.269   7.642  11.719  0.5111  0.2590  0.5393
12813SOL    HW244277   1.255   7.744  11.609  0.1059 -0.4451 -0.0710
12814SOL     OW44278   2.496   0.253   3.624  0.1390  0.3508  0.4339
12814SOL    HW144279   2.530   0.316   3.560  3.8562 -0.5824  1.2478
12814SOL    HW244280   2.495   0.301   3.707  1.2543 -0.1047  0.7283
12815SOL     OW44281   2.218   1.039   5.741 -0.1058 -0.1488  0.8404
12815SOL    HW144282   2.163   1.114   5.720  0.5316 -0.0458 -0.6016
12815SOL    HW244283   2.307   1.071   5.728  0.2911 -0.5562  2.3131
12816SOL     OW44284  10.971   0.860  11.624 -0.1200 -0.0906  0.0181
12816SOL    HW144285  10.902   0.910  11.580 -1.5080 -1.2243  0.8264
12816SOL    HW244286  11.012   0.809  11.555 -0.9666 -0.3776 -0.2908
12817SOL     OW44287   4.494   5.241   3.018  0.6467  0.2538 -0.3504
12817SOL    HW144288   4.460   5.329   3.032  0.6503  0.1931  0.0392
12817SOL    HW244289   4.519   5.210   3.105  2.2227  0.5121 -0.6730
12818SOL     OW44290  11.082   9.118   4.204 -0.0210 -0.7907  0.0833
12818SOL    HW144291  11.128   9.185   4.155 -0.9027 -0.8369 -0.8590
12818SOL    HW244292  11.046   9.163   4.280 -0.7243 -0.1389 -0.6150
12819SOL     OW44293   0.716   2.891   6.989 -0.0184  0.5794 -0.0425
12819SOL    HW144294   0.770   2.892   6.910  1.0693 -0.0756  0.6694
12819SOL    HW244295   0.734   2.975   7.031  2.2249 -0.4717  1.3050
12820SOL     OW44296   4.168  10.413   4.977  0.5276  0.0733  0.5636
12820SOL    HW144297   4.177  10.318   4.964 -0.7612  0.2149 -2.0424
12820SOL    HW244298   4.132  10.422   5.065 -1.7492 -2.0619 -0.0492
12821SOL     OW44299   0.539   1.642  10.109  0.0037  0.0930  0.2243
12821SOL    HW144300   0.626   1.604  10.095 -0.1205  0.1251 -0.6683
12821SOL    HW244301   0.536   1.717  10.049 -0.7306 -0.0556  0.0736
12822SOL     OW44302   4.192   1.798   6.560  0.5183 -0.2335  0.4478
12822SOL    HW144303   4.103   1.763   6.563  0.0343  1.0058  1.0691
12822SOL    HW244304   4.196   1.844   6.476 -0.1208  1.4192  1.2851
12823SOL     OW44305  10.149   1.963   7.679 -0.2273  0.0496  0.3268
12823SOL    HW144306  10.165   1.896   7.745  2.6308 -0.4709 -0.7671
12823SOL    HW244307  10.173   2.045   7.723 -0.2277 -0.0691  0.5508
12824SOL     OW44308   4.458  12.055   5.302  0.1756  0.0474  0.1831
12824SOL    HW144309   4.530  12.118   5.304  0.9719 -0.8242 -0.4388
12824SOL    HW244310   4.387  12.098   5.350  0.3393  1.8489 -1.1205
12825SOL     OW44311   7.747  11.320   8.439 -0.4293  0.1031 -0.0299
12825SOL    HW144312   7.769  11.296   8.529 -0.3637  0.5278  0.0690
12825SOL    HW244313   7.688  11.251   8.410  0.5693 -0.7422 -0.1014
12826SOL     OW44314   8.339   9.185   2.799 -0.1840 -1.3272  0.2336
12826SOL    HW144315   8.292   9.164   2.880  0.3861 -0.3145  0.8564
12826SOL    HW244316   8.420   9.134   2.804  0.0406 -0.9560  0.5224
12827SOL     OW44317  11.892   1.927   4.623 -0.3347  0.1134 -0.4719
12827SOL    HW144318  11.965   1.988   4.627  0.3848 -0.7139 -0.5836
12827SOL    HW244319  11.909   1.873   4.545  0.6279 -2.1173  1.1768
12828SOL     OW44320  10.463   0.051   2.731  0.1948  0.3232  0.1784
12828SOL    HW144321  10.473  -0.043   2.746  0.2512  0.6730  2.7279
12828SOL    HW244322  10.545   0.089   2.761  0.8218  1.1237 -2.3250
12829SOL     OW44323   7.637   5.433   0.076 -0.1323  0.0871 -0.0617
12829SOL    HW144324   7.568   5.500   0.083 -2.5022 -2.0602 -1.0613
12829SOL    HW244325   7.661   5.414   0.167 -2.2681 -0.3818  0.4615
12830SOL     OW44326   5.871   1.636  11.275  0.0952  0.1052 -0.2744
12830SOL    HW144327   5.835   1.565  11.221  2.2515 -1.3737  0.1047
12830SOL    HW244328   5.842   1.615  11.364  0.9369 -0.4839 -0.1259
12831SOL     OW44329   5.865   3.195  11.950 -0.0701  0.0042 -0.0534
12831SOL    HW144330   5.823   3.171  12.032  2.4899 -1.0436  1.0868
12831SOL    HW244331   5.813   3.153  11.883 -1.6217 -0.0044  1.1026
12832SOL     OW44332  12.132   8.528   9.998 -0.2555  0.0977 -0.2871
12832SOL    HW144333  12.228   8.519   9.998 -0.3689 -1.4406  0.6706
12832SOL    HW244334  12.099   8.440  10.013 -1.8999  0.3583 -2.0347
12833SOL     OW44335   1.717   6.049   8.524  0.0179 -0.5595  0.4415
12833SOL    HW144336   1.768   6.045   8.443  0.2951  0.1969  0.5720
12833SOL    HW244337   1.666   6.129   8.516 -2.6608 -2.2143 -0.5560
12834SOL     OW44338   6.842   6.389   1.216  0.2542  0.4817 -0.0533
12834SOL    HW144339   6.930   6.362   1.241  0.6025  1.6730  0.0438
12834SOL    HW244340   6.828   6.472   1.262 -0.8374  0.4183 -0.2425
12835SOL     OW44341   1.089   0.220  10.014  0.1536  0.0108  0.0607
12835SOL    HW144342   1.046   0.292  10.060 -1.6150 -0.7283 -0.3686
12835SOL    HW244343   1.157   0.262   9.962 -0.1369  1.2438  0.6420
12836SOL     OW44344   9.408   5.664   2.102 -0.0649 -0.1030  0.7681
12836SOL    HW144345   9.362   5.595   2.149 -0.5739  0.0990  0.5759
12836SOL    HW244346   9.382   5.745   2.146  0.1449  0.0112  0.6881
12837SOL     OW44347   9.996  11.315   3.822  0.1693  0.1883  0.2827
12837SOL    HW144348   9.984  11.308   3.916 -1.3801  0.8301  0.1620
12837SOL    HW244349  10.029  11.404   3.808  0.8990 -0.0848  0.2586
12838SOL     OW44350   3.090  11.330   5.137  0.2468 -0.3243  1.0527
12838SOL    HW144351   3.175  11.371   5.122 -1.2560  2.6531 -0.4540
12838SOL    HW244352   3.079  11.269   5.064  0.0933  1.2521 -0.3063
12839SOL     OW44353   0.390   1.552   4.043  0.0607  0.0691  0.2368
12839SOL    HW144354   0.361   1.584   3.958 -0.0730 -0.3305  0.1316
12839SOL    HW244355   0.480   1.584   4.050 -0.2589  0.9722  0.3942
12840SOL     OW44356   7.093   7.911   1.093  0.4626 -0.7493 -0.0624
12840SOL    HW144357   7.134   7.996   1.077  1.6902 -1.5588 -1.5457
12840SOL    HW244358   7.098   7.866   1.008 -0.7461 -2.0611  0.5239
12841SOL     OW44359   5.107  10.592   6.550  0.3890  0.0886  0.3157
12841SOL    HW144360   5.194  10.558   6.571  0.3168 -0.8312 -0.7834
12841SOL    HW244361   5.064  10.521   6.503  0.6462  2.0186 -3.1660
12842SOL     OW44362   4.201   6.047   2.039 -0.5932  0.7910 -0.1876
12842SOL    HW144363   4.221   6.135   2.008  0.4144  0.1694 -1.3662
12842SOL    HW244364   4.280   5.996   2.022 -1.0532 -0.2909  0.7407
12843SOL     OW44365   1.158   5.755   1.282  0.7604 -0.0629 -0.4415
12843SOL    HW144366   1.222   5.826   1.272 -1.7782  2.2618 -1.3694
12843SOL    HW244367   1.108   5.780   1.360 -1.0032 -0.0736 -1.5278
12844SOL     OW44368  11.454  12.139   1.077  0.4492 -0.0446 -0.0143
12844SOL    HW144369  11.460  12.218   1.130 -2.2557 -0.8298  1.6601
12844SOL    HW244370  11.473  12.068   1.138 -1.5921 -0.9025 -0.2987
12845SOL     OW44371  10.539   3.882  10.072 -0.5601  0.0921  0.8884
12845SOL    HW144372  10.497   3.803  10.105 -0.7994  0.2749  1.0238
12845SOL    HW244373  10.544   3.867   9.977  1.3004 -0.9928  1.1106
12846SOL     OW44374   3.575   5.907   1.076  0.3589 -0.0638  0.0029
12846SOL    HW144375   3.581   5.812   1.073 -0.3178 -0.0933 -1.2241
12846SOL    HW244376   3.662   5.938   1.051  0.7378 -0.3361  0.9311
12847SOL     OW44377  11.492   2.058   2.192 -0.2352  0.2327 -0.4445
12847SOL    HW144378  11.411   2.050   2.141  0.0430 -1.8330 -0.6420
12847SOL    HW244379  11.543   2.125   2.146 -0.4792 -0.7461 -2.2205
12848SOL     OW44380   2.046   5.915  11.351  0.6357 -0.2858  0.1985
12848SOL    HW144381   2.119   5.853  11.355  0.1917 -0.7636  1.2741
12848SOL    HW244382   2.088   6.001  11.355  1.1619 -0.5523  0.7425
12849SOL     OW44383   8.814   9.218  11.734  0.1557 -0.0691 -0.2307
12849SOL    HW144384   8.796   9.129  11.764 -3.1301  0.1761 -1.0972
12849SOL    HW244385   8.862   9.207  11.652  0.9919 -0.9463  0.3487
12850SOL     OW44386  12.226   0.758   6.808  0.2000 -0.5758  0.4184
12850SOL    HW144387  12.268   0.673   6.820  0.3221 -0.3709  1.5987
12850SOL    HW244388  12.152   0.757   6.869 -0.3402 -0.1727 -0.2098
12851SOL     OW44389   8.824  10.805  12.292 -0.6141 -0.2156  0.3763
12851SOL    HW144390   8.854  10.894  12.311 -0.9620 -0.3037  1.3680
12851SOL    HW244391   8.753  10.817  12.229 -0.5845  0.2011  0.4149
12852SOL     OW44392   2.054   5.094   1.663 -0.1812  0.0716 -0.7225
12852SOL    HW144393   2.013   5.173   1.698  0.2032 -0.3918  0.8509
12852SOL    HW244394   2.138   5.088   1.708 -0.4931 -1.5860 -0.2986
12853SOL     OW44395   1.484   4.898  11.036  1.0076  0.3059 -0.2198
12853SOL    HW144396   1.548   4.966  11.013 -0.6340  1.0684 -3.0756
12853SOL    HW244397   1.401   4.933  11.005 -0.1533 -2.3711 -0.3834
12854SOL     OW44398  12.019   2.579  11.059  0.2300  0.0327  0.3902
12854SOL    HW144399  12.048   2.658  11.105 -0.4243 -0.1612  1.1630
12854SOL    HW244400  11.974   2.611  10.981  0.8796  0.3855  0.1533
12855SOL     OW44401   0.480   4.081  10.374 -0.1351  0.1877 -0.1917
12855SOL    HW144402   0.470   4.008  10.435 -0.2169  0.3506 -0.0077
12855SOL    HW244403   0.441   4.156  10.419 -2.2908 -0.1434 -1.3268
12856SOL     OW44404  12.296  10.651   0.110 -0.3004 -0.3077  0.1857
12856SOL    HW144405  12.279  10.739   0.145 -1.1314 -0.6481  0.6843
12856SOL    HW244406  12.210  10.609   0.110  0.2226 -1.4071  0.7711
12857SOL     OW44407  10.773   9.710   8.761  0.3316 -0.1595 -0.7293
12857SOL    HW144408  10.748   9.670   8.844  0.6559  0.3296 -0.3900
12857SOL    HW244409  10.868   9.699   8.757  0.7297  2.2255  0.2949
12858SOL     OW44410   3.069   0.117  11.490 -0.1399 -0.3230  0.0916
12858SOL    HW144411   2.977   0.095  11.477 -0.3221  1.2408 -1.6173
12858SOL    HW244412   3.108   0.112  11.403  1.4079 -0.8759  0.7665
12859SOL     OW44413   6.965  10.051   5.783  0.4860  0.1817  0.0077
12859SOL    HW144414   6.982  10.094   5.866  0.2526  0.2781  0.0047
12859SOL    HW244415   6.870  10.050   5.774  0.4577 -0.8417  0.2724
12860SOL     OW44416   6.070   8.401   4.935  0.0978  0.4060  0.3690
12860SOL    HW144417   6.004   8.465   4.909 -1.3231 -1.1258  0.0331
12860SOL    HW244418   6.045   8.321   4.889  1.5496 -0.5228  1.1309
12861SOL     OW44419   7.031   5.993   3.600 -0.4984  0.2480  0.3461
12861SOL    HW144420   6.958   5.932   3.609  0.0424 -0.2977  1.1558
12861SOL    HW244421   7.054   5.990   3.507 -1.1636  0.0442  0.1816
12862SOL     OW44422   6.867   3.049   7.558 -0.2036 -0.6580  0.0494
12862SOL    HW144423   6.892   2.999   7.636 -0.8381 -0.4583  0.3835
12862SOL    HW244424   6.884   3.140   7.581  1.3213 -0.7125 -0.6967
12863SOL     OW44425  11.130   0.403   5.061 -0.5367 -0.2082  0.1245
12863SOL    HW144426  11.136   0.377   4.969  1.2173 -0.5647  0.3020
12863SOL    HW244427  11.162   0.327   5.109 -1.5046 -0.0558  1.0640
12864SOL     OW44428   7.430   3.239  11.488 -0.1878 -0.1591 -0.2411
12864SOL    HW144429   7.465   3.327  11.477 -0.2224 -0.1923 -0.6483
12864SOL    HW244430   7.507   3.185  11.508 -0.5473  0.5531  4.0304
12865SOL     OW44431   3.747   4.360   0.843  0.2123  0.0147  0.1524
12865SOL    HW144432   3.821   4.305   0.869  0.0284 -0.5115 -0.4010
12865SOL    HW244433   3.673   4.329   0.896  0.6581  1.4437  1.7086
12866SOL     OW44434  10.709   0.396   0.530  0.4953 -0.2143  0.2994
12866SOL    HW144435  10.705   0.309   0.570  2.4942 -1.4334 -1.9447
12866SOL    HW244436  10.626   0.404   0.482  2.3205 -3.3906 -4.0019
12867SOL     OW44437   3.570   0.158   9.804  0.4633  0.0156  0.3954
12867SOL    HW144438   3.562   0.193   9.893  1.9186  0.3065  0.4392
12867SOL    HW244439   3.661   0.174   9.780 -0.1568  0.9651 -1.5858
12868SOL     OW44440   4.553   0.589  10.214 -0.1565  1.2751 -0.3860
12868SOL    HW144441   4.474   0.605  10.265 -0.9719 -1.3882 -0.6214
12868SOL    HW244442   4.619   0.564  10.278 -0.5674  0.0611 -0.3960
12869SOL     OW44443  10.775   9.116   2.152 -0.3170  0.2525  0.4943
12869SOL    HW144444  10.718   9.153   2.220 -0.3444 -0.0157  0.6180
12869SOL    HW244445  10.799   9.191   2.097 -1.3792  0.2512  0.0061
12870SOL     OW44446   0.581   9.011  12.291  0.6160  0.2391  0.6347
12870SOL    HW144447   0.561   9.093  12.337 -2.4106 -1.3007  2.3945
12870SOL    HW244448   0.622   8.956  12.357  0.6220 -0.4108  0.0970
12871SOL     OW44449   0.804   8.333  10.979  0.0063 -0.4050  0.7010
12871SOL    HW144450   0.764   8.247  10.988 -1.7454  0.2869 -0.0581
12871SOL    HW244451   0.803   8.351  10.885 -1.2066  1.1016  0.9542
12872SOL     OW44452   6.045  10.559  11.428 -0.6570 -0.1789 -0.0384
12872SOL    HW144453   6.131  10.597  11.445 -0.3662 -0.3553 -1.0954
12872SOL    HW244454   5.992  10.632  11.398 -0.3922 -0.3940 -1.0471
12873SOL     OW44455   3.356   3.253   0.492  0.1112 -0.3765  0.0387
12873SOL    HW144456   3.362   3.158   0.502  0.3041 -0.2768  0.9772
12873SOL    HW244457   3.430   3.276   0.436 -2.1401 -1.1947 -3.6373
12874SOL     OW44458   0.953   7.881   0.934 -0.1346 -0.3263  0.1438
12874SOL    HW144459   0.927   7.850   0.847  0.3912  0.0675 -0.1613
12874SOL    HW244460   0.870   7.906   0.975 -0.4478 -1.0551 -0.0234
12875SOL     OW44461   8.701   2.713   4.340  0.9639  0.4682  0.0925
12875SOL    HW144462   8.773   2.686   4.398  0.4953  1.7073  1.3103
12875SOL    HW244463   8.660   2.787   4.385 -0.7960  0.0994 -0.8054
12876SOL     OW44464   2.301   6.015   0.605 -0.1666 -0.6044 -0.1855
12876SOL    HW144465   2.236   5.974   0.547  0.3210  0.6499 -1.6923
12876SOL    HW244466   2.283   6.108   0.599 -0.1746 -0.4246  1.8551
12877SOL     OW44467  10.781   9.349   4.306 -0.3133  0.0315 -0.1338
12877SOL    HW144468  10.861   9.355   4.359  0.6705 -0.2787 -1.5216
12877SOL    HW244469  10.809   9.375   4.218 -1.9262  0.6608 -0.4902
12878SOL     OW44470   9.609   2.542   8.641 -0.3655 -0.0974  0.4014
12878SOL    HW144471   9.562   2.548   8.725  0.2158 -1.6119  0.8564
12878SOL    HW244472   9.540   2.551   8.575 -0.9533  0.2248  1.0385
12879SOL     OW44473   8.557  10.370   9.536 -0.1176 -0.8685  0.2826
12879SOL    HW144474   8.491  10.423   9.581  1.4181  1.3360  0.1014
12879SOL    HW244475   8.597  10.318   9.606 -0.1855 -0.1303  0.8937
12880SOL     OW44476   7.100   0.963   7.644 -0.1569 -0.1303 -0.3349
12880SOL    HW144477   7.147   1.039   7.679 -0.1835 -0.2755  0.0179
12880SOL    HW244478   7.034   0.942   7.711  1.9572 -2.4944  1.2009
12881SOL     OW44479   3.132   6.162   5.750  0.0159  0.2394 -0.0807
12881SOL    HW144480   3.070   6.130   5.815 -0.0808 -1.3047 -0.8881
12881SOL    HW244481   3.081   6.169   5.669  0.7396 -0.4438 -0.6063
12882SOL     OW44482   0.855   8.974   0.552  0.2067 -0.4164 -0.9295
12882SOL    HW144483   0.875   8.886   0.582 -0.0286 -0.3165 -0.4620
12882SOL    HW244484   0.760   8.973   0.539 -0.2090  0.4914  1.5774
12883SOL     OW44485  10.033  11.266  10.841 -0.2334 -0.2538  0.0514
12883SOL    HW144486  10.075  11.250  10.926 -0.6997  0.7814  0.4859
12883SOL    HW244487   9.939  11.257  10.859 -0.4725  2.0220  0.1356
12884SOL     OW44488   9.332  10.432   6.528  0.3405 -0.2108  0.1754
12884SOL    HW144489   9.375  10.349   6.509 -0.4424 -1.0548  1.8637
12884SOL    HW244490   9.378  10.496   6.474  1.2315 -1.6683 -0.8523
12885SOL     OW44491   0.965   3.224   0.843  0.9296  0.4092 -0.2091
12885SOL    HW144492   0.940   3.132   0.833 -0.4040  0.9429 -2.4882
12885SOL    HW244493   0.995   3.231   0.933  0.9443 -2.2278  0.0604
12886SOL     OW44494   3.376   0.007   1.913 -0.8528  0.1908 -0.0279
12886SOL    HW144495   3.375   0.081   1.853 -1.3562 -0.8734 -1.4156
12886SOL    HW244496   3.299  -0.044   1.889 -2.3311  0.7846  2.9962
12887SOL     OW44497   5.962   1.685   6.081 -0.2335  0.7030  0.2196
12887SOL    HW144498   5.920   1.703   6.165 -1.6630 -2.5087  0.3242
12887SOL    HW244499   6.046   1.646   6.103 -0.6409 -0.2113  0.2236
12888SOL     OW44500   2.302  11.905   5.804  0.4546  0.4667  0.4872
12888SOL    HW144501   2.311  11.852   5.724 -0.9244  0.7726  0.1038
12888SOL    HW244502   2.262  11.846   5.868  2.3720 -0.0520  1.2868
12889SOL     OW44503   3.780   4.601   7.338 -0.3253 -0.5020 -0.2991
12889SOL    HW144504   3.806   4.512   7.361 -0.4694 -0.6917 -0.8457
12889SOL    HW244505   3.836   4.658   7.391 -1.4634 -0.9068  1.4274
12890SOL     OW44506   7.067   9.909  11.900  0.5041  0.2345 -0.6216
12890SOL    HW144507   7.014   9.951  11.832  0.7697  1.8909  0.1407
12890SOL    HW244508   7.007   9.900  11.974  0.0664 -2.0337 -1.1813
12891SOL     OW44509   5.947   9.157   1.757  0.5570 -0.2476 -0.1343
12891SOL    HW144510   5.949   9.159   1.661 -0.2875  1.1400 -0.1514
12891SOL    HW244511   6.039   9.157   1.784  0.8364  1.4266 -0.9478
12892SOL     OW44512   9.536  11.060   4.626 -0.1603 -0.6493 -0.2650
12892SOL    HW144513   9.501  10.971   4.621 -0.2961 -0.6467  0.5031
12892SOL    HW244514   9.488  11.101   4.698 -1.2938  0.5967 -1.6694
12893SOL     OW44515   3.182   8.873   9.580 -0.3530 -0.5568 -0.8698
12893SOL    HW144516   3.100   8.891   9.626  1.1100 -0.4585  1.8457
12893SOL    HW244517   3.198   8.952   9.528 -0.7637  0.4314  0.4674
12894SOL     OW44518   1.977  11.324  10.544  0.0760  0.0218  0.0831
12894SOL    HW144519   1.909  11.257  10.552  1.3265 -1.1852  0.9203
12894SOL    HW244520   2.017  11.328  10.631  0.7035  1.1315 -0.2369
12895SOL     OW44521   2.642   5.327   7.957  0.4314 -0.2624  0.4314
12895SOL    HW144522   2.688   5.406   7.988 -1.1428  0.8625  0.0402
12895SOL    HW244523   2.685   5.255   8.003  2.4053  0.7349  0.2570
12896SOL     OW44524   7.076   7.631   3.662 -0.0735  0.0327 -0.3174
12896SOL    HW144525   7.064   7.588   3.577  4.6517 -0.5092 -1.0034
12896SOL    HW244526   7.144   7.696   3.646  3.7829 -2.5275  3.4845
12897SOL     OW44527   9.718   7.741   4.878 -0.2704  0.0820  0.4141
12897SOL    HW144528   9.664   7.728   4.800 -0.1161 -0.0933  0.3356
12897SOL    HW244529   9.778   7.667   4.878 -0.8286 -0.3898  1.1736
12898SOL     OW44530   6.497  10.459   7.500 -0.2924  0.0388 -0.5507
12898SOL    HW144531   6.518  10.542   7.541  0.9487 -0.5230 -0.0012
12898SOL    HW244532   6.408  10.470   7.466  0.1584  1.8603 -1.2274
12899SOL     OW44533   6.784   5.560   9.585 -0.9142 -0.0784 -0.2218
12899SOL    HW144534   6.726   5.535   9.656 -1.5944 -1.0106 -1.0858
12899SOL    HW244535   6.774   5.655   9.579 -2.2177 -0.1960 -0.2295
12900SOL     OW44536   5.273   6.346   7.022  0.0216  0.1322 -0.2542
12900SOL    HW144537   5.214   6.305   6.959  0.8578  1.8428 -2.2694
12900SOL    HW244538   5.226   6.342   7.105 -2.4330  0.3841 -1.5559
12901SOL     OW44539   4.851   9.615   0.868 -0.6244  0.0605  0.4148
12901SOL    HW144540   4.904   9.691   0.843 -0.0914 -0.6518 -0.6312
12901SOL    HW244541   4.781   9.612   0.803 -0.9994 -0.0004  0.8147
12902SOL     OW44542   8.558   4.655  11.858 -0.1795  0.1075 -0.3967
12902SOL    HW144543   8.497   4.667  11.785  0.5810 -1.2053 -1.2876
12902SOL    HW244544   8.508   4.683  11.935 -2.3707 -1.8872 -0.9371
12903SOL     OW44545   3.417   8.270   0.232  0.3199 -0.0023  0.2891
12903SOL    HW144546   3.382   8.339   0.288 -0.3068  0.0514 -0.1628
12903SOL    HW244547   3.344   8.246   0.175  1.1611  0.4800 -1.0303
12904SOL     OW44548   1.351   0.147   2.260  0.0909  0.2108 -0.0252
12904SOL    HW144549   1.278   0.095   2.226 -0.5530  0.9893  0.1060
12904SOL    HW244550   1.412   0.084   2.296 -0.4060 -0.4781 -0.3712
12905SOL     OW44551   8.110  11.174   3.753 -0.6770 -0.5114 -0.3533
12905SOL    HW144552   8.019  11.166   3.784 -0.6214 -0.4890 -0.1861
12905SOL    HW244553   8.158  11.107   3.803 -0.4396  0.0414  0.1706
12906SOL     OW44554   7.065   1.930  10.851 -0.5719 -0.1345 -0.1363
12906SOL    HW144555   7.071   1.838  10.878 -0.3234 -0.4607 -1.2580
12906SOL    HW244556   7.072   1.979  10.933 -1.4571 -1.1236  0.5649
12907SOL     OW44557   7.319  11.650   1.345  0.0175  0.0312  0.5779
12907SOL    HW144558   7.270  11.573   1.374  0.9017  0.3338  3.1038
12907SOL    HW244559   7.404  11.616   1.316 -0.9982 -0.3173 -2.3384
12908SOL     OW44560   2.655   0.129   4.693 -0.1176 -0.0795 -0.2856
12908SOL    HW144561   2.704   0.048   4.705 -1.0012 -0.4883  0.6876
12908SOL    HW244562   2.591   0.130   4.764 -1.0299  0.7963 -1.0773
12909SOL     OW44563   9.464   4.950   5.760 -0.2386 -0.2073  0.3871
12909SOL    HW144564   9.529   4.959   5.830 -0.7770 -0.1295  0.8865
12909SOL    HW244565   9.510   4.980   5.681 -0.1657  1.4205  1.0008
12910SOL     OW44566   0.446   0.937   8.589  0.4542 -0.0574  0.1094
12910SOL    HW144567   0.359   0.972   8.608  0.4357 -0.0746  0.0575
12910SOL    HW244568   0.442   0.914   8.496  0.5371  0.0101  0.0887
12911SOL     OW44569   5.668   3.236  11.549  0.6079  0.0240 -0.3200
12911SOL    HW144570   5.762   3.250  11.537  0.5260 -0.1536 -1.2323
12911SOL    HW244571   5.661   3.188  11.632  1.2914  0.2905 -0.0999
12912SOL     OW44572   7.935   6.689   6.529  0.2289  0.9103 -0.2678
12912SOL    HW144573   7.943   6.640   6.610 -0.9263 -0.1556 -0.7540
12912SOL    HW244574   7.962   6.628   6.461  0.1829  1.4369 -0.7656
12913SOL     OW44575   1.204   6.561  10.733  0.2588 -0.7657 -0.4478
12913SOL    HW144576   1.245   6.609  10.660  0.0380 -2.8806 -2.0451
12913SOL    HW244577   1.118   6.536  10.700 -0.6781 -0.0813  1.3263
12914SOL     OW44578   5.630   6.832   4.169 -0.5793  0.2796  0.4882
12914SOL    HW144579   5.678   6.885   4.104 -0.1095 -1.1131 -0.3352
12914SOL    HW244580   5.540   6.833   4.137 -0.6015  0.6975  0.5566
12915SOL     OW44581   4.914   2.558   2.258 -0.0275  0.1881 -0.5023
12915SOL    HW144582   4.844   2.569   2.194  0.2666  1.6365 -0.6027
12915SOL    HW244583   4.876   2.590   2.340  0.8262  2.0479 -0.7799
12916SOL     OW44584  10.651   2.684   8.810 -0.1365 -0.0600 -0.3511
12916SOL    HW144585  10.610   2.680   8.723 -1.3259  1.2394  0.1080
12916SOL    HW244586  10.733   2.636   8.800 -1.7133 -2.8280 -1.3467
12917SOL     OW44587   1.859   8.026   1.072 -0.1294  0.3448 -0.2595
12917SOL    HW144588   1.788   8.073   1.029  0.3770  0.5104 -0.9289
12917SOL    HW244589   1.863   8.064   1.160 -1.4597 -0.3021  0.1111
12918SOL     OW44590   1.642   3.563   2.676 -0.0585 -0.4216 -0.3945
12918SOL    HW144591   1.602   3.592   2.594 -0.5172 -1.4631 -0.5541
12918SOL    HW244592   1.584   3.494   2.708  0.2920 -0.2489  0.6471
12919SOL     OW44593   9.544   1.671   0.764 -0.6904  0.1876 -0.1122
12919SOL    HW144594   9.544   1.671   0.668 -1.8543  2.0242 -0.1639
12919SOL    HW244595   9.457   1.702   0.788 -0.2898  0.1452  1.5490
12920SOL     OW44596  10.770   4.012   6.150  0.4288 -0.7778  0.4178
12920SOL    HW144597  10.728   3.962   6.080 -1.4295 -1.0303  1.6313
12920SOL    HW244598  10.739   4.102   6.136 -0.7924 -1.0061  1.4567
12921SOL     OW44599  10.524   8.323   5.187  0.1623 -0.0560 -0.2926
12921SOL    HW144600  10.494   8.233   5.198  0.1543  0.1479  1.6501
12921SOL    HW244601  10.449   8.377   5.211  0.5261  0.4792 -0.3311
12922SOL     OW44602   6.371   6.222   4.124  0.3055  0.0126 -0.3290
12922SOL    HW144603   6.423   6.254   4.050  0.8686 -2.0784 -0.9096
12922SOL    HW244604   6.288   6.269   4.117  1.1839  1.5378 -0.9058
12923SOL     OW44605   8.485   9.241   6.091 -0.1019  0.0072 -0.3557
12923SOL    HW144606   8.503   9.233   5.998 -0.5546  0.8574 -0.5217
12923SOL    HW244607   8.402   9.195   6.103 -0.0570 -0.0778 -0.3669
12924SOL     OW44608  11.571   9.690   7.103  0.2030  0.0748 -0.4481
12924SOL    HW144609  11.476   9.681   7.111 -0.1502  2.7645 -0.6819
12924SOL    HW244610  11.605   9.670   7.190 -0.6785  0.0618 -0.0949
12925SOL     OW44611  12.153   6.173   2.006 -0.3070  0.2636 -0.1438
12925SOL    HW144612  12.169   6.251   1.951 -0.4920  0.4765  0.1054
12925SOL    HW244613  12.219   6.110   1.977  0.9544  1.1017  0.8058
12926SOL     OW44614   0.691   5.530   2.528  0.0867  0.5981  0.1717
12926SOL    HW144615   0.647   5.581   2.459 -0.9904 -0.3457  0.1376
12926SOL    HW244616   0.740   5.463   2.480  1.4114  1.4924  0.2223
12927SOL     OW44617   5.031   9.132   9.463  0.0688  0.2938  0.2005
12927SOL    HW144618   5.076   9.211   9.494 -1.0732  0.8244  0.5746
12927SOL    HW244619   4.953   9.125   9.519 -0.1607 -0.7566 -0.2292
12928SOL     OW44620   9.731   4.510   1.953  0.4010  0.4608  0.0701
12928SOL    HW144621   9.758   4.422   1.980  0.0724  1.1290  2.9482
12928SOL    HW244622   9.733   4.508   1.858 -0.0337 -2.7859  0.0311
12929SOL     OW44623   2.348  12.049   5.106 -0.7896 -0.2545 -0.3289
12929SOL    HW144624   2.319  12.102   5.180 -0.6066 -1.1247  0.3789
12929SOL    HW244625   2.418  12.101   5.065 -0.5987  0.0487  0.3624
12930SOL     OW44626   2.781   1.204   1.172 -0.1124 -0.4026 -0.0701
12930SOL    HW144627   2.691   1.220   1.143 -0.5560 -0.8794  1.0065
12930SOL    HW244628   2.776   1.125   1.226  1.1996 -1.2719 -1.1339
12931SOL     OW44629   1.894   2.787   3.608 -0.2151 -0.5123 -0.1487
12931SOL    HW144630   1.839   2.845   3.555 -0.5984 -0.1757  0.6014
12931SOL    HW244631   1.941   2.846   3.667  1.4311 -0.7372 -1.1835
12932SOL     OW44632   1.654   2.153   8.820 -0.5567 -0.4730  0.3453
12932SOL    HW144633   1.616   2.170   8.906  1.0843 -1.4337  1.3178
12932SOL    HW244634   1.747   2.134   8.838  0.4826  1.8392 -1.8779
12933SOL     OW44635   3.468   1.169  10.151  0.3972 -1.1259 -0.2450
12933SOL    HW144636   3.473   1.243  10.090  1.1971 -1.7155 -0.9163
12933SOL    HW244637   3.519   1.100  10.109  1.2044 -1.4609  1.2209
12934SOL     OW44638   3.299  11.491   9.700  0.0369  0.3144  0.1730
12934SOL    HW144639   3.384  11.483   9.658  0.2114 -1.5420  0.7929
12934SOL    HW244640   3.251  11.553   9.645  2.0478  2.1067  0.3049
12935SOL     OW44641  10.106  10.815   4.688  0.5106  0.7425 -0.3771
12935SOL    HW144642  10.015  10.839   4.673 -0.6255 -1.7601  1.8673
12935SOL    HW244643  10.149  10.897   4.714 -1.3202  1.7667 -0.4416
12936SOL     OW44644   9.378   2.414   2.481 -0.1929 -0.0849 -0.3373
12936SOL    HW144645   9.454   2.398   2.425 -1.5433 -0.2422 -2.1824
12936SOL    HW244646   9.413   2.468   2.553  2.4471 -3.1331  0.9281
12937SOL     OW44647  11.561   7.773   3.880  0.2974 -0.6979  0.4619
12937SOL    HW144648  11.486   7.754   3.937  0.3772 -1.2640  0.3926
12937SOL    HW244649  11.592   7.859   3.908  0.0066 -0.7366  0.9169
12938SOL     OW44650  10.033  12.294  10.458 -0.0736 -0.4043  0.0379
12938SOL    HW144651  10.125  12.309  10.439 -0.0318  0.4003  0.8205
12938SOL    HW244652  10.001  12.244  10.383  0.9424 -0.4987 -0.3451
12939SOL     OW44653   8.354   4.673   2.934 -0.1843  0.3469 -0.7960
12939SOL    HW144654   8.391   4.733   2.999 -1.0069  0.2740 -0.2467
12939SOL    HW244655   8.325   4.598   2.985  0.1137 -0.1747 -1.3847
12940SOL     OW44656   1.826   6.317  12.032 -0.1078  0.1500 -0.2932
12940SOL    HW144657   1.735   6.323  12.061  0.4103  0.2841  1.3853
12940SOL    HW244658   1.851   6.407  12.010  0.0421  0.3393  0.6256
12941SOL     OW44659   6.033   6.554   0.854 -0.7297 -0.4389  0.2812
12941SOL    HW144660   6.030   6.471   0.901  0.9347 -0.9914 -0.5064
12941SOL    HW244661   6.114   6.550   0.804 -1.6711  0.7678 -1.4361
12942SOL     OW44662   2.508   8.361   3.849  0.2170 -1.0049 -0.6539
12942SOL    HW144663   2.417   8.346   3.875  0.4833 -0.2810  0.8174
12942SOL    HW244664   2.559   8.308   3.911  0.8461  0.0013 -0.2807
12943SOL     OW44665   8.259   9.781   8.366  0.0571 -0.2261  0.6935
12943SOL    HW144666   8.304   9.742   8.441  0.2165 -2.2439 -0.3821
12943SOL    HW244667   8.170   9.746   8.369 -0.7070  1.6290  1.2854
12944SOL     OW44668  11.418   6.596   9.161  0.4415  0.5331  0.0565
12944SOL    HW144669  11.441   6.582   9.253 -2.7390 -0.3827  0.8558
12944SOL    HW244670  11.368   6.678   9.162  1.6033  1.2878 -1.1532
12945SOL     OW44671   0.931   7.751   1.836  1.1722  0.2080  0.0316
12945SOL    HW144672   0.842   7.786   1.834  1.4624  1.0110  0.6787
12945SOL    HW244673   0.987   7.828   1.845  1.9566 -0.2740 -0.5940
12946SOL     OW44674   3.602   4.657  10.772  0.1264 -0.2176  0.1280
12946SOL    HW144675   3.639   4.708  10.699  0.8213 -0.8002  0.0615
12946SOL    HW244676   3.671   4.594  10.794  0.8378  1.3073  2.7191
12947SOL     OW44677   4.271   9.374  10.390 -0.5838  0.4725  0.6231
12947SOL    HW144678   4.326   9.311  10.437 -0.0994 -0.2402 -0.8419
12947SOL    HW244679   4.181   9.348  10.410 -0.3809 -0.0136  0.9122
12948SOL     OW44680  11.314   0.366   1.645 -0.1811 -0.3925  0.1330
12948SOL    HW144681  11.323   0.461   1.640  0.6564 -0.4191  0.8721
12948SOL    HW244682  11.344   0.334   1.561  1.1368 -0.0939  0.4697
12949SOL     OW44683   1.005   7.686   1.108 -0.3479  0.4493 -0.5040
12949SOL    HW144684   0.991   7.737   1.188 -0.1391 -0.1296 -0.0992
12949SOL    HW244685   1.011   7.753   1.039 -2.9667  0.8651 -0.4321
12950SOL     OW44686  11.674   3.449  10.754  0.1704 -0.4468 -0.5211
12950SOL    HW144687  11.697   3.413  10.668  0.2574  0.5667 -0.9437
12950SOL    HW244688  11.600   3.507  10.736 -0.1062 -0.5804  0.1725
12951SOL     OW44689   4.175  10.629   2.032  1.0128 -0.3640 -0.5266
12951SOL    HW144690   4.165  10.537   2.058 -0.1822 -0.4608 -1.2566
12951SOL    HW244691   4.106  10.643   1.967  1.5644  0.8923 -0.8612
12952SOL     OW44692   8.556   7.117  12.010 -0.2601  0.0781 -0.1610
12952SOL    HW144693   8.503   7.169  11.950  0.9286 -0.7141 -1.9509
12952SOL    HW244694   8.645   7.125  11.979  0.0785 -2.4034 -0.0822
12953SOL     OW44695   9.891   2.491  12.047  0.0476  0.0936  0.2601
12953SOL    HW144696   9.941   2.571  12.062 -0.0929 -0.1484  2.2554
12953SOL    HW244697   9.828   2.487  12.119 -2.3300 -0.0605 -1.7015
12954SOL     OW44698   9.514   4.050   6.078 -0.3037  0.0145 -0.4418
12954SOL    HW144699   9.429   4.049   6.122  0.7157  1.5960  1.7192
12954SOL    HW244700   9.578   4.029   6.146  1.2979  1.9101 -1.2326
12955SOL     OW44701   9.696   3.275   7.968  0.0187 -0.7204  0.9397
12955SOL    HW144702   9.643   3.237   7.898 -1.4113  1.3303  0.8054
12955SOL    HW244703   9.777   3.302   7.925 -1.6592  2.4733 -0.6072
12956SOL     OW44704   9.282   0.838   0.747  0.2943 -0.3467 -0.0843
12956SOL    HW144705   9.304   0.756   0.703 -0.9069 -1.0735  0.6030
12956SOL    HW244706   9.343   0.844   0.820  0.4537 -0.5731 -0.1990
12957SOL     OW44707   5.714  10.899  11.127 -0.1724  0.0545  0.0480
12957SOL    HW144708   5.729  10.842  11.202 -2.0329  0.8854  1.1353
12957SOL    HW244709   5.631  10.870  11.090  0.0455  0.5339 -0.8559
12958SOL     OW44710   3.769   1.385   0.567 -0.2517 -0.0430 -0.0208
12958SOL    HW144711   3.778   1.398   0.473 -0.6685 -1.7308 -0.3253
12958SOL    HW244712   3.748   1.472   0.601  1.5494  0.9297 -1.2322
12959SOL     OW44713   6.937   4.545  11.822 -0.1576  0.6172  0.1389
12959SOL    HW144714   6.968   4.550  11.913 -0.7408 -1.6675  0.5363
12959SOL    HW244715   6.980   4.467  11.787 -0.1342  1.3276 -1.4960
12960SOL     OW44716   5.879  11.869   5.432  0.2759 -0.0396 -0.1687
12960SOL    HW144717   5.937  11.894   5.504  1.5492 -1.9314 -0.4608
12960SOL    HW244718   5.858  11.778   5.449 -2.0305  0.3827 -0.5172
12961SOL     OW44719  11.706   1.356   9.083  0.3111 -0.0229  0.0081
12961SOL    HW144720  11.630   1.299   9.075  1.3389 -1.5253  0.5499
12961SOL    HW244721  11.703   1.412   9.006  0.4771 -2.3068 -1.7533
12962SOL     OW44722   8.458   6.728  10.953  0.4974  0.5425  0.0264
12962SOL    HW144723   8.543   6.685  10.950  0.3794  0.3526 -1.4326
12962SOL    HW244724   8.477   6.815  10.989  1.0608  0.0173  1.0486
12963SOL     OW44725   4.914   4.044  10.971 -0.1984 -0.6166 -0.3981
12963SOL    HW144726   4.889   4.133  10.995  0.4932 -0.6605  0.5812
12963SOL    HW244727   4.904   4.040  10.876  1.3310  1.0359 -0.6833
12964SOL     OW44728  10.593  10.116  11.476  0.0509 -0.1265  0.2689
12964SOL    HW144729  10.504  10.133  11.507  0.6937  1.5765  1.3508
12964SOL    HW244730  10.636  10.073  11.550 -0.4895 -3.3777 -1.1304
12965SOL     OW44731   2.252   9.799   4.740 -0.1482 -0.0662  0.1836
12965SOL    HW144732   2.190   9.727   4.734 -0.3190 -0.0491  1.4996
12965SOL    HW244733   2.288   9.807   4.651 -1.6969 -0.3487 -0.5053
12966SOL     OW44734   0.127   6.806  10.029 -0.8049  0.0046  0.2065
12966SOL    HW144735   0.061   6.750   9.989 -1.5324  1.5632 -0.8805
12966SOL    HW244736   0.195   6.815   9.962 -2.0623  2.6927 -0.8582
12967SOL     OW44737   9.998   1.896   1.709 -0.2493 -0.2476 -0.5775
12967SOL    HW144738  10.048   1.837   1.652  0.2355 -0.6428  0.2391
12967SOL    HW244739   9.996   1.979   1.661  0.0867 -0.5935 -1.2037
12968SOL     OW44740   0.173   5.358  11.372 -0.2463  0.2253 -0.3728
12968SOL    HW144741   0.215   5.278  11.339  0.7453  0.0934  1.0974
12968SOL    HW244742   0.134   5.332  11.455 -0.4545  1.1262 -0.1745
12969SOL     OW44743   0.763   6.357   3.832  0.1705 -0.0349  0.0655
12969SOL    HW144744   0.812   6.427   3.788  0.6591 -0.0588  0.5667
12969SOL    HW244745   0.675   6.364   3.796  0.8843 -0.9788 -2.0383
12970SOL     OW44746  12.120   3.468  11.304 -0.2819  0.1759  0.1272
12970SOL    HW144747  12.179   3.440  11.374 -0.7563  1.0370  0.8942
12970SOL    HW244748  12.177   3.513  11.242  0.2680 -1.2431 -0.4533
12971SOL     OW44749   4.502   7.389  11.041 -0.1580  0.0879  0.2000
12971SOL    HW144750   4.562   7.345  11.101  0.0958 -0.1542 -0.2288
12971SOL    HW244751   4.448   7.445  11.098  0.9200  0.8405  0.5118
12972SOL     OW44752   8.732   6.755   2.694 -0.7205  0.4638 -0.4773
12972SOL    HW144753   8.731   6.683   2.757  0.3874  2.1627  1.6232
12972SOL    HW244754   8.820   6.793   2.703 -0.5505  0.8145 -3.0563
12973SOL     OW44755   0.720   7.590   1.115  0.7995  0.1478 -0.2347
12973SOL    HW144756   0.812   7.607   1.136  1.4813 -1.5111 -1.6509
12973SOL    HW244757   0.723   7.532   1.039 -1.4388 -0.0133 -0.2630
12974SOL     OW44758  10.988   2.367   0.459  0.6014 -0.2232 -0.2305
12974SOL    HW144759  10.924   2.408   0.400 -0.0398  1.0153  1.2545
12974SOL    HW244760  11.073   2.397   0.427  0.1751  1.8531  0.4449
12975SOL     OW44761  11.744   4.272   6.084  0.1469 -0.6421  0.3071
12975SOL    HW144762  11.669   4.253   6.029  0.4259 -1.8107  0.3012
12975SOL    HW244763  11.780   4.186   6.106 -0.8900 -0.3629  3.6406
12976SOL     OW44764  11.330  10.590   0.635 -0.4848  0.7890 -0.6503
12976SOL    HW144765  11.349  10.508   0.590 -0.1594  1.7440 -2.3358
12976SOL    HW244766  11.277  10.564   0.710  0.3785 -1.0476 -0.6171
12977SOL     OW44767  11.586   2.273   2.024 -0.8581  0.2095  0.1247
12977SOL    HW144768  11.513   2.325   1.992  1.0164  2.2000 -1.1874
12977SOL    HW244769  11.618   2.226   1.947  0.9895  1.6257 -0.0315
12978SOL     OW44770  11.882   1.872   6.490 -0.1848 -0.4481  0.2873
12978SOL    HW144771  11.925   1.852   6.407 -1.9199  2.1405 -1.3535
12978SOL    HW244772  11.898   1.965   6.504 -2.2404 -0.2020  1.4103
12979SOL     OW44773   0.924   6.461   6.303 -0.6308 -0.2071 -0.0492
12979SOL    HW144774   0.992   6.421   6.357 -1.7115 -0.0769  1.4887
12979SOL    HW244775   0.951   6.552   6.293 -0.5014 -0.1929  0.4218
12980SOL     OW44776   3.131   2.715  11.502  0.0483  0.0173  0.0437
12980SOL    HW144777   3.060   2.733  11.563  1.0905 -0.0704  1.3159
12980SOL    HW244778   3.195   2.665  11.553  0.4443 -1.0682 -1.4319
12981SOL     OW44779   5.679   8.977   7.125  0.3759  0.0844 -0.2631
12981SOL    HW144780   5.754   8.937   7.083 -0.8106 -0.8498 -1.5994
12981SOL    HW244781   5.699   8.976   7.219  1.4849 -1.2593 -0.4986
12982SOL     OW44782  10.019   6.611  10.728 -0.5493  0.7904  0.4277
12982SOL    HW144783   9.982   6.540  10.780  0.5734  1.5561  2.3676
12982SOL    HW244784   9.942   6.660  10.698 -1.3282  2.3710  4.3672
12983SOL     OW44785   1.149   8.779   7.773  0.6819  0.0407  0.0782
12983SOL    HW144786   1.106   8.825   7.845  0.3175 -2.4012  1.5356
12983SOL    HW244787   1.193   8.848   7.723 -0.1190  1.9661  1.8956
12984SOL     OW44788   0.198   4.188   0.919  0.5233 -0.4256  0.0275
12984SOL    HW144789   0.173   4.277   0.942 -0.1356 -0.4180 -0.6567
12984SOL    HW244790   0.291   4.182   0.941  0.5085  0.3433  0.3260
12985SOL     OW44791   1.520   9.542   0.254 -0.1269  0.4998  0.1799
12985SOL    HW144792   1.596   9.490   0.231 -1.5090 -1.2077 -0.7638
12985SOL    HW244793   1.474   9.489   0.319 -1.6853  0.3861 -0.9581
12986SOL     OW44794   9.860  10.259   6.432  0.2097 -0.0937 -0.4377
12986SOL    HW144795   9.855  10.178   6.484  1.6134 -0.3038 -0.5838
12986SOL    HW244796   9.779  10.259   6.381 -0.7136 -0.4223  0.9447
12987SOL     OW44797   4.781   1.290   6.884 -0.0384  0.0742  0.2610
12987SOL    HW144798   4.808   1.221   6.943  1.3785  1.0342  0.7868
12987SOL    HW244799   4.762   1.365   6.941  0.3241  0.6945 -0.4106
12988SOL     OW44800   8.689   3.458   5.089  0.1606  0.2595 -0.2003
12988SOL    HW144801   8.781   3.478   5.105 -0.0331  0.4603  0.7214
12988SOL    HW244802   8.687   3.423   5.000  1.4562 -1.8675  0.5225
12989SOL     OW44803   3.918   0.417   0.735 -0.4364  0.6365 -0.7335
12989SOL    HW144804   3.979   0.443   0.666  0.0464  1.7581  0.0722
12989SOL    HW244805   3.839   0.469   0.718 -1.4938 -1.3376 -2.1942
12990SOL     OW44806   1.868  11.443   3.533  0.4060  0.0152  0.4458
12990SOL    HW144807   1.846  11.427   3.441 -0.8523 -0.4341  0.8068
12990SOL    HW244808   1.950  11.394   3.547  0.3320 -0.3353 -0.3081
12991SOL     OW44809   7.148   1.481   0.642  0.0871 -0.4165  0.0815
12991SOL    HW144810   7.076   1.471   0.705  0.1420  0.3538  0.2731
12991SOL    HW244811   7.226   1.458   0.691 -0.1487 -2.7096 -0.5299
12992SOL     OW44812   1.669   7.114  11.992  0.1654  0.5858 -0.0309
12992SOL    HW144813   1.696   7.034  12.037  0.6390  0.3032 -0.7817
12992SOL    HW244814   1.634   7.170  12.061  1.3339  0.3753  0.7686
12993SOL     OW44815   2.456   9.503   3.288 -0.6196  0.0546  0.2157
12993SOL    HW144816   2.524   9.542   3.343  0.0038  1.2126 -1.3081
12993SOL    HW244817   2.482   9.411   3.279  1.0111  0.5702 -0.7018
12994SOL     OW44818   5.330   7.402   1.791 -0.1851 -0.2575 -0.0721
12994SOL    HW144819   5.295   7.406   1.880 -0.8514 -2.5033 -0.1575
12994SOL    HW244820   5.273   7.341   1.746  0.8067 -0.0190 -1.7429
12995SOL     OW44821   5.053   2.571   3.704 -0.2146  0.3894 -0.4567
12995SOL    HW144822   4.965   2.579   3.740 -0.6377 -0.1656 -1.3510
12995SOL    HW244823   5.041   2.576   3.609  0.6180 -0.6052 -0.6234
12996SOL     OW44824   5.415   3.222   2.736 -0.1301 -0.6113 -0.7951
12996SOL    HW144825   5.379   3.176   2.660 -0.5146  1.7823 -2.1805
12996SOL    HW244826   5.484   3.278   2.699  0.9770 -0.7760  0.9351
12997SOL     OW44827   1.180   6.974   3.753  0.2304 -0.6961  0.3954
12997SOL    HW144828   1.224   6.930   3.826  1.2406  1.7452  1.3839
12997SOL    HW244829   1.111   7.026   3.795  1.0733  1.0502 -0.2952
12998SOL     OW44830   0.469   7.574   4.559 -0.0278  0.6945  0.0948
12998SOL    HW144831   0.430   7.543   4.477  0.2867  0.6022 -0.0193
12998SOL    HW244832   0.419   7.653   4.580 -1.1321 -0.1093  0.6166
12999SOL     OW44833   9.852   6.964   5.591  0.0152  0.4137  0.2339
12999SOL    HW144834   9.917   6.948   5.522 -2.2381 -1.4400 -1.6429
12999SOL    HW244835   9.797   7.035   5.556  0.1175  0.9268  1.1049
13000SOL     OW44836   3.450  10.665  10.754  0.3480  0.0224  0.3352
13000SOL    HW144837   3.514  10.635  10.689  0.1383  0.0292  0.1234
13000SOL    HW244838   3.371  10.615  10.735  0.3237 -0.0651  0.6664
13001SOL     OW44839   4.943  12.277   9.624  0.2464  0.1099  0.2083
13001SOL    HW144840   4.964  12.195   9.579 -0.0744  0.0165  0.2243
13001SOL    HW244841   5.013  12.338   9.598  0.4748 -0.1628  0.1819
13002SOL     OW44842   4.355   8.686   4.709  0.0279  0.0657 -0.0179
13002SOL    HW144843   4.272   8.705   4.751  0.4149  1.7357  0.0859
13002SOL    HW244844   4.331   8.655   4.622 -0.7793 -3.4339  1.2955
13003SOL     OW44845  11.459   9.715   7.644  0.2818 -0.3130 -0.0228
13003SOL    HW144846  11.444   9.637   7.590 -0.1180  0.9424 -1.8368
13003SOL    HW244847  11.465   9.787   7.580  0.8973  1.1038  1.5693
13004SOL     OW44848   4.362   8.635   8.992  0.3544  0.1577  0.2386
13004SOL    HW144849   4.382   8.703   8.928  1.2161 -0.9083 -0.6418
13004SOL    HW244850   4.396   8.669   9.075  2.0270  0.2305 -0.4451
13005SOL     OW44851   7.744   1.381   4.280 -0.6803 -0.2822  0.1850
13005SOL    HW144852   7.674   1.400   4.342 -0.1606  0.6797  0.4986
13005SOL    HW244853   7.799   1.317   4.324 -0.2002  0.5497  0.8070
13006SOL     OW44854  10.277   7.380   4.879 -0.3199 -0.3507 -0.3096
13006SOL    HW144855  10.235   7.433   4.811  0.4413  0.1470 -0.4078
13006SOL    HW244856  10.247   7.291   4.862 -0.2752 -0.2062 -1.1905
13007SOL     OW44857   3.621   1.093   7.195 -0.2498  0.2098 -0.6877
13007SOL    HW144858   3.656   1.059   7.113  1.6587  0.4423 -0.0144
13007SOL    HW244859   3.691   1.149   7.230 -0.5395 -0.7379  1.6142
13008SOL     OW44860   0.909   0.094  10.802  0.2023  0.3519  0.3086
13008SOL    HW144861   0.856   0.164  10.765  0.0983 -0.2936 -0.8059
13008SOL    HW244862   0.995   0.105  10.761  0.0449 -0.4573 -0.2651
13009SOL     OW44863   4.129  10.406  10.494  1.0745 -0.1702 -0.1417
13009SOL    HW144864   4.213  10.432  10.532  1.5530  0.0501 -1.2826
13009SOL    HW244865   4.068  10.408  10.567  1.7862  0.9431  0.4673
13010SOL     OW44866   8.687   8.669   6.583 -0.0677 -0.2705 -0.1587
13010SOL    HW144867   8.758   8.614   6.615  1.0178 -0.4809 -2.6515
13010SOL    HW244868   8.714   8.758   6.603 -0.3876 -0.4540  1.2028
13011SOL     OW44869   4.140  10.600  10.959 -0.5763  0.3096 -0.0047
13011SOL    HW144870   4.195  10.523  10.947 -1.9847 -0.7190 -0.0546
13011SOL    HW244871   4.067  10.570  11.014 -1.4627  1.4365 -0.5235
13012SOL     OW44872   5.243  11.487   4.233 -0.1184  0.1047  0.3180
13012SOL    HW144873   5.247  11.392   4.241 -3.5079 -0.2936 -1.0652
13012SOL    HW244874   5.334  11.514   4.228  1.0117 -2.9211  1.7250
13013SOL     OW44875   5.576   9.600  10.604  0.5336  0.1029  0.2115
13013SOL    HW144876   5.667   9.627  10.590  0.9915 -0.5620  1.6747
13013SOL    HW244877   5.577   9.505  10.594 -0.3314  0.2125 -1.2474
13014SOL     OW44878   5.330   9.268  10.698  1.2817  0.2895 -0.0523
13014SOL    HW144879   5.248   9.317  10.692  0.7722 -0.5723 -0.2098
13014SOL    HW244880   5.325   9.223  10.782  0.0195 -2.4727 -1.4773
13015SOL     OW44881   7.092   4.818   3.832 -1.0636  0.8768  0.3336
13015SOL    HW144882   7.053   4.856   3.753 -0.5884  0.3852 -0.1468
13015SOL    HW244883   7.067   4.726   3.829  1.2097  0.2189 -0.7045
13016SOL     OW44884   9.778   7.431   1.205 -0.0406  0.0921  0.2309
13016SOL    HW144885   9.751   7.519   1.176  0.2562  0.3520  0.7355
13016SOL    HW244886   9.700   7.378   1.194 -0.0847  0.2980 -0.5678
13017SOL     OW44887   3.374   6.897   6.660  0.1560 -0.5253 -0.6750
13017SOL    HW144888   3.414   6.820   6.701  0.9330 -0.2823 -0.9769
13017SOL    HW244889   3.292   6.909   6.708  0.0479 -1.5092 -0.5858
13018SOL     OW44890   7.709   5.425   3.041  0.2031 -0.0339  0.3957
13018SOL    HW144891   7.712   5.330   3.044 -1.9026 -0.2214 -1.1547
13018SOL    HW244892   7.713   5.452   3.133  0.0703 -1.6576  0.9074
13019SOL     OW44893  10.392   9.915   9.623  0.5518 -0.1695  0.3372
13019SOL    HW144894  10.310   9.879   9.588  1.8143 -1.4335 -1.4483
13019SOL    HW244895  10.426   9.970   9.553 -0.0198  2.5773  2.0456
13020SOL     OW44896   7.808   1.217   3.465 -0.0335 -0.2075 -0.6441
13020SOL    HW144897   7.837   1.177   3.547 -0.8347 -0.9552 -0.7212
13020SOL    HW244898   7.734   1.272   3.490  0.4150  0.4478 -0.7073
13021SOL     OW44899   3.066  12.276  10.080 -0.3887 -0.1934  0.7252
13021SOL    HW144900   3.118  12.262  10.000  1.5716  1.8183  1.5441
13021SOL    HW244901   2.987  12.320  10.049 -0.1179 -0.3226 -0.1956
13022SOL     OW44902   6.546   0.218   1.716 -0.1389 -0.2132 -0.2080
13022SOL    HW144903   6.596   0.282   1.666  0.7729  0.5804  1.6310
13022SOL    HW244904   6.492   0.270   1.775  0.8541 -1.0863  1.5462
13023SOL     OW44905   6.769   3.091   3.368 -0.6446  0.6103  0.2504
13023SOL    HW144906   6.710   3.051   3.303 -1.3468 -0.7461  1.6638
13023SOL    HW244907   6.713   3.109   3.443  0.3206  1.3584  0.8032
13024SOL     OW44908   2.598   8.160   0.442  0.0112 -0.1412 -0.0278
13024SOL    HW144909   2.645   8.226   0.493 -0.3385 -0.9335  1.3725
13024SOL    HW244910   2.667   8.100   0.413  0.2421  0.4430 -0.7188
13025SOL     OW44911  11.384   3.547  12.119 -0.6030  0.3445  0.5236
13025SOL    HW144912  11.329   3.582  12.049  0.3789  0.9453  0.0196
13025SOL    HW244913  11.327   3.543  12.195 -1.2845  1.1727  0.0791
13026SOL     OW44914   6.986   1.495   8.190 -0.0622 -0.3362 -0.5039
13026SOL    HW144915   7.067   1.503   8.241 -0.9910 -2.3351  1.4611
13026SOL    HW244916   6.923   1.548   8.239 -0.4783 -0.6361 -0.7150
13027SOL     OW44917   4.649   1.013   2.821  0.2499  0.2170  0.5820
13027SOL    HW144918   4.737   1.049   2.817  1.0870 -1.6085  1.5432
13027SOL    HW244919   4.656   0.926   2.781 -1.3025  0.3452 -0.0532
13028SOL     OW44920   5.339   5.933  10.816  0.4205 -0.1648 -0.4305
13028SOL    HW144921   5.388   5.941  10.898 -0.0139 -1.9947  0.0521
13028SOL    HW244922   5.296   6.018  10.806  3.3830  1.4650 -0.7543
13029SOL     OW44923   6.388  10.886   5.665  0.9005 -0.2659 -0.6274
13029SOL    HW144924   6.364  10.974   5.694  1.9323 -0.0451 -0.4037
13029SOL    HW244925   6.483  10.888   5.661  0.8767 -1.0520 -1.6772
13030SOL     OW44926  11.463  12.256   4.093  0.8630  0.1719 -0.3023
13030SOL    HW144927  11.465  12.327   4.028 -2.0845 -0.1400 -0.8440
13030SOL    HW244928  11.451  12.177   4.041 -0.5926 -0.1828  0.5325
13031SOL     OW44929  11.573  10.062  10.048 -0.0470  0.2498  0.0763
13031SOL    HW144930  11.668  10.059  10.051 -0.0768 -0.3117  0.4922
13031SOL    HW244931  11.544  10.001  10.115 -0.7045  0.2773 -0.1708
13032SOL     OW44932  10.942   6.639   8.583 -0.1972 -0.4336 -0.5207
13032SOL    HW144933  10.994   6.655   8.661 -0.2264  0.4936 -0.6843
13032SOL    HW244934  11.006   6.614   8.516 -0.2244 -1.8249 -0.0721
13033SOL     OW44935   2.971  11.526   7.860 -0.0018  0.0083 -0.6142
13033SOL    HW144936   2.958  11.434   7.839 -2.5634  0.2707 -0.5293
13033SOL    HW244937   2.884  11.565   7.849  0.6164  2.0453  1.1664
13034SOL     OW44938   9.441   7.610   4.935 -0.3104  0.0617 -0.5515
13034SOL    HW144939   9.424   7.655   4.852  0.0252  1.6940  0.2228
13034SOL    HW244940   9.403   7.667   5.001  0.4649 -0.6211  0.5059
13035SOL     OW44941   9.346   7.202   3.525  0.4512  0.4080 -0.6347
13035SOL    HW144942   9.315   7.200   3.435  0.4078  1.4550 -0.6461
13035SOL    HW244943   9.396   7.283   3.533  1.5802 -0.3059 -0.0797
13036SOL     OW44944   7.571   7.869   9.063 -0.0393  0.1477  0.0899
13036SOL    HW144945   7.580   7.963   9.082 -3.3877  0.7124 -0.4967
13036SOL    HW244946   7.480   7.849   9.086 -0.2732 -2.2888 -2.4393
13037SOL     OW44947   9.907   5.415   5.087 -0.2133 -0.3112 -0.3761
13037SOL    HW144948   9.835   5.431   5.027 -0.0831 -1.6003 -0.9053
13037SOL    HW244949   9.986   5.429   5.035 -0.0972 -0.8225 -0.3452
13038SOL     OW44950   2.375   9.125   5.383  0.2066  0.0426 -0.4724
13038SOL    HW144951   2.410   9.208   5.415 -0.6734  0.4527 -0.5671
13038SOL    HW244952   2.453   9.072   5.367  0.7672  0.7394 -0.1310
13039SOL     OW44953   7.599  10.299   2.738 -0.4224 -0.0013  0.1083
13039SOL    HW144954   7.523  10.244   2.757 -0.4486 -0.5160 -1.3766
13039SOL    HW244955   7.669  10.237   2.718  0.5534  0.4497  1.8752
13040SOL     OW44956   0.402   7.659   6.573 -0.1605 -0.1117  0.0752
13040SOL    HW144957   0.400   7.645   6.478 -1.4490 -3.4254  0.4243
13040SOL    HW244958   0.314   7.636   6.602 -0.0418  1.6421  2.0364
13041SOL     OW44959   6.237   5.009   1.705  0.2023  0.6727 -0.0390
13041SOL    HW144960   6.302   4.991   1.772  1.2349  3.1012 -0.2854
13041SOL    HW244961   6.164   5.050   1.753  0.2097  0.8469 -0.1756
13042SOL     OW44962   8.563   3.785   2.488 -0.2383 -0.2715  0.8150
13042SOL    HW144963   8.573   3.718   2.421  0.7836 -1.1036  1.7605
13042SOL    HW244964   8.508   3.852   2.448 -1.1830 -1.6203 -0.1893
13043SOL     OW44965   6.518   6.465   3.634  0.0156  0.4754  0.2481
13043SOL    HW144966   6.453   6.532   3.659 -1.5828 -0.3437 -1.4510
13043SOL    HW244967   6.492   6.440   3.546  1.2323 -1.6343  0.4476
13044SOL     OW44968   7.680   4.017  10.811  0.2959  0.0271 -0.2341
13044SOL    HW144969   7.734   3.945  10.779  0.3722  0.0211 -0.0888
13044SOL    HW244970   7.728   4.096  10.785  1.4779  0.0262  1.7729
13045SOL     OW44971   4.107   0.026   8.828 -0.0690 -0.2036 -0.1741
13045SOL    HW144972   4.172   0.096   8.827 -2.4369  2.2207  1.5490
13045SOL    HW244973   4.023   0.071   8.838 -1.7846 -3.2808  0.5774
13046SOL     OW44974   3.026  10.167   1.297  0.4828 -0.1076 -0.5293
13046SOL    HW144975   2.961  10.097   1.294  0.0402  0.2670  0.1003
13046SOL    HW244976   3.085  10.149   1.224 -1.1580  0.3704 -2.0317
13047SOL     OW44977   8.899   1.790   6.873 -0.0304 -0.3329  0.1547
13047SOL    HW144978   8.828   1.851   6.855 -0.0717 -0.1956  0.7655
13047SOL    HW244979   8.954   1.836   6.936  0.7591 -0.3252 -0.5154
13048SOL     OW44980   3.635   0.721   2.053  0.4725  0.6327 -0.0757
13048SOL    HW144981   3.547   0.691   2.033  0.2716  0.1285  1.4354
13048SOL    HW244982   3.626   0.770   2.134  1.3044  2.1915 -0.8683
13049SOL     OW44983   1.234  10.154   1.395  0.5023 -0.3119  0.6328
13049SOL    HW144984   1.213  10.220   1.461  1.1426 -0.0971  0.6259
13049SOL    HW244985   1.329  10.149   1.395  0.4724 -0.9567  0.3544
13050SOL     OW44986   8.023   3.095   7.128 -0.6632  0.6852  1.6226
13050SOL    HW144987   7.946   3.149   7.108 -0.0661  1.2499  0.8174
13050SOL    HW244988   8.073   3.147   7.191 -0.2369  0.9418  1.0742
13051SOL     OW44989   8.999  10.189   0.091  0.4791  0.1387 -0.2549
13051SOL    HW144990   9.047  10.268   0.114  1.2924 -0.3496 -0.2002
13051SOL    HW244991   8.996  10.138   0.172  2.7590 -1.2804 -0.9292
13052SOL     OW44992  11.617   2.657   7.274 -0.0958  0.0808 -0.0723
13052SOL    HW144993  11.698   2.642   7.226  0.1638  0.6275  0.1919
13052SOL    HW244994  11.590   2.745   7.250  0.5310  0.7231  1.4936
13053SOL     OW44995   4.281   3.545   8.658 -0.9118 -0.2118  0.5905
13053SOL    HW144996   4.358   3.547   8.715 -0.5305 -1.4628  0.1636
13053SOL    HW244997   4.218   3.489   8.705 -1.6111  0.8697  0.9788
13054SOL     OW44998   8.577   1.606   8.599  0.5541 -0.1794 -0.3338
13054SOL    HW144999   8.589   1.527   8.652 -0.7003 -1.2014 -1.5238
13054SOL    HW245000   8.504   1.652   8.641  0.8365  0.0161 -0.0473
13055SOL     OW45001   2.141   9.670  10.743  0.7942 -0.0716 -0.0260
13055SOL    HW145002   2.154   9.759  10.711 -2.3783  0.2497 -0.7833
13055SOL    HW245003   2.060   9.641  10.701 -0.4542 -1.8356  3.2561
13056SOL     OW45004   0.506   7.214   2.197  0.0209 -0.1461 -0.3792
13056SOL    HW145005   0.561   7.201   2.119 -0.7626 -0.0390 -0.9582
13056SOL    HW245006   0.536   7.147   2.258  0.7861 -0.1000 -0.6857
13057SOL     OW45007   1.386   7.802   2.273 -0.1622 -0.2534  0.8924
13057SOL    HW145008   1.324   7.853   2.221  3.2538  2.2909 -1.0334
13057SOL    HW245009   1.363   7.711   2.254 -2.5115  0.5592 -0.6082
13058SOL     OW45010   2.799   3.015  11.193 -0.2653 -0.2197 -0.0853
13058SOL    HW145011   2.816   2.972  11.109  2.3880  1.7728 -0.7002
13058SOL    HW245012   2.757   3.098  11.169 -1.0235 -0.3673  0.7011
13059SOL     OW45013   0.422   5.934   2.483  0.0198  0.4632 -0.0147
13059SOL    HW145014   0.476   5.928   2.404 -1.1390 -1.1544 -0.7317
13059SOL    HW245015   0.452   6.015   2.526  0.8410  1.2606 -1.9641
13060SOL     OW45016   4.548   8.863   0.957  0.4637  0.3932 -0.0580
13060SOL    HW145017   4.505   8.915   0.889 -0.2299 -1.6204 -1.2502
13060SOL    HW245018   4.566   8.926   1.028  1.4366  2.6283 -2.1443
13061SOL     OW45019   1.092   8.203   7.808 -0.1138 -0.2111 -0.3321
13061SOL    HW145020   1.003   8.190   7.775 -0.4722 -0.2369  0.5960
13061SOL    HW245021   1.147   8.202   7.730 -0.9623  0.1269 -0.9542
13062SOL     OW45022  10.106   9.160  10.951 -0.5745  0.1894  0.3658
13062SOL    HW145023  10.103   9.068  10.978 -0.3583 -0.5199 -1.8489
13062SOL    HW245024  10.199   9.179  10.942 -0.6538  0.0775 -0.8350
13063SOL     OW45025   8.707   1.549   7.361  0.2648  0.2988 -0.2419
13063SOL    HW145026   8.712   1.504   7.444  2.4902  1.2560  0.2332
13063SOL    HW245027   8.798   1.555   7.331 -0.4085  0.4446 -2.4914
13064SOL     OW45028   3.843   8.513   9.630  0.2375  0.8810  0.1089
13064SOL    HW145029   3.761   8.559   9.645 -0.0013  0.0847  1.4324
13064SOL    HW245030   3.816   8.423   9.607  0.6835  1.3149 -2.4838
13065SOL     OW45031   7.603  11.175   4.257 -0.0649 -0.0214  0.8248
13065SOL    HW145032   7.697  11.167   4.242 -0.0471 -0.3644  1.1021
13065SOL    HW245033   7.585  11.269   4.248  0.2519  0.0073  0.4758
13066SOL     OW45034   2.344   2.917   9.614  0.2257 -0.1118  0.0601
13066SOL    HW145035   2.306   2.851   9.557 -1.6237  2.6128 -2.1553
13066SOL    HW245036   2.274   2.940   9.675  1.2986 -1.0667  1.7191
13067SOL     OW45037   7.537   7.503   7.211 -0.2149 -0.2307  0.0453
13067SOL    HW145038   7.616   7.503   7.264 -0.0391  0.4654 -0.2086
13067SOL    HW245039   7.521   7.410   7.192 -0.2853 -0.4829  1.3019
13068SOL     OW45040   1.575   3.643   6.095 -0.0837  0.0002  0.3954
13068SOL    HW145041   1.611   3.561   6.062  0.7142  0.8086 -0.8252
13068SOL    HW245042   1.597   3.708   6.028 -2.4979  0.8500  0.3021
13069SOL     OW45043   6.974   9.833   4.172  0.2553  0.0360  0.0605
13069SOL    HW145044   7.046   9.790   4.127 -0.7739 -1.2313 -0.4381
13069SOL    HW245045   6.979   9.802   4.262 -0.0961 -0.6387 -0.1469
13070SOL     OW45046   7.252   0.506  10.731  0.3501  0.4535  0.2667
13070SOL    HW145047   7.322   0.450  10.700  0.1130  0.3661 -0.1183
13070SOL    HW245048   7.270   0.592  10.693  0.5224  0.5515  0.5721
13071SOL     OW45049  11.300   4.580  11.742 -0.2248 -0.7244  0.2073
13071SOL    HW145050  11.213   4.621  11.742 -0.3915 -1.0769  0.1682
13071SOL    HW245051  11.289   4.500  11.692  0.2040 -0.6151 -0.0673
13072SOL     OW45052   0.875   7.706   5.458  0.0453 -0.1598  0.1631
13072SOL    HW145053   0.886   7.781   5.517 -0.7610  0.7312 -0.7777
13072SOL    HW245054   0.838   7.637   5.513 -2.5696  1.2721  0.3472
13073SOL     OW45055   8.163  11.742  11.651  0.5414 -0.3703  0.3127
13073SOL    HW145056   8.093  11.693  11.695  0.4338  0.4851  1.1234
13073SOL    HW245057   8.227  11.758  11.720  0.7551  0.2881 -0.0310
13074SOL     OW45058   0.279  11.987   1.385 -0.6306  0.8130  0.0942
13074SOL    HW145059   0.216  12.059   1.373 -1.1388  0.5036  0.8423
13074SOL    HW245060   0.238  11.930   1.450  0.1731  0.3043  0.1643
13075SOL     OW45061   3.659  10.469  12.085 -0.0098 -0.3738 -0.1168
13075SOL    HW145062   3.735  10.472  12.143  1.3694  0.2182 -1.8586
13075SOL    HW245063   3.677  10.396  12.026  0.0275  0.7115 -1.5284
13076SOL     OW45064  11.953   8.523   4.482  0.3801 -0.5568  0.9220
13076SOL    HW145065  11.895   8.447   4.479  0.2030 -0.3919 -0.0948
13076SOL    HW245066  12.033   8.494   4.439 -0.8099  0.7194 -2.5086
13077SOL     OW45067   9.510  11.756   7.649  0.5554  0.3848 -0.2516
13077SOL    HW145068   9.556  11.798   7.722  1.6010  0.1884 -0.7707
13077SOL    HW245069   9.444  11.701   7.691  2.1137 -0.8878  0.6501
13078SOL     OW45070   6.399   1.818   9.564  0.1921 -0.2395  0.4423
13078SOL    HW145071   6.464   1.874   9.606 -0.1731 -0.5189  1.3908
13078SOL    HW245072   6.448   1.742   9.533  0.7256  0.6613 -1.0238
13079SOL     OW45073   6.654   8.964  10.046 -0.3070  0.0264 -0.6271
13079SOL    HW145074   6.569   8.942  10.082 -0.2356 -2.8185 -1.9056
13079SOL    HW245075   6.711   8.972  10.122 -0.9589 -1.9231  0.1444
13080SOL     OW45076  11.864  10.437   9.999 -0.2057 -0.0120  1.0586
13080SOL    HW145077  11.945  10.471  10.036 -0.4959  0.4614  1.2586
13080SOL    HW245078  11.866  10.343  10.020 -0.2588  0.2052  2.0607
13081SOL     OW45079   9.997   6.272   6.326  0.0540 -0.6869 -0.4845
13081SOL    HW145080   9.982   6.197   6.268 -0.3232 -0.2262 -0.9951
13081SOL    HW245081   9.925   6.332   6.306  0.1854 -0.3223  0.1394
13082SOL     OW45082   5.154   9.982   3.239  0.0701  0.2284 -0.2965
13082SOL    HW145083   5.215   9.912   3.261 -1.1253 -1.1855 -1.2830
13082SOL    HW245084   5.183  10.057   3.291  1.5451 -0.9182  0.5924
13083SOL     OW45085   4.180   9.062   4.782 -0.4160  0.0732 -0.0879
13083SOL    HW145086   4.095   9.028   4.807 -0.3813  1.9305  3.2061
13083SOL    HW245087   4.161   9.140   4.730 -0.6466 -0.6397 -1.0909
13084SOL     OW45088   3.238  11.699  11.749 -0.7528  0.1450 -0.4887
13084SOL    HW145089   3.301  11.745  11.694 -0.7882  1.0836  0.2523
13084SOL    HW245090   3.154  11.742  11.730 -0.6300  1.0265  0.9080
13085SOL     OW45091   2.721   8.221   6.706  0.4892 -0.3448 -0.0357
13085SOL    HW145092   2.651   8.181   6.654  1.1221 -0.2179 -1.0082
13085SOL    HW245093   2.675   8.265   6.778 -0.5951  1.0177 -1.4792
13086SOL     OW45094   6.374   2.111   1.996  0.1087  0.0497  0.0508
13086SOL    HW145095   6.329   2.026   1.992  0.1420  0.0749 -1.3973
13086SOL    HW245096   6.304   2.175   2.007  0.2077 -0.2431  3.6976
13087SOL     OW45097  10.312   6.312   0.718  0.6062 -0.3368 -0.1541
13087SOL    HW145098  10.260   6.247   0.671 -0.1526 -0.1643  0.4234
13087SOL    HW245099  10.248   6.361   0.769  1.3799 -0.3794  0.8824
13088SOL     OW45100  10.008   2.330   1.939  0.5206  0.2778  0.2946
13088SOL    HW145101   9.921   2.290   1.948  0.4028 -0.0411 -1.7126
13088SOL    HW245102   9.992   2.411   1.890  1.4188 -0.2676 -0.9727
13089SOL     OW45103   3.337  11.412  11.433 -0.7117 -0.7156  0.9430
13089SOL    HW145104   3.308  11.376  11.350 -0.3349 -1.4805  1.1333
13089SOL    HW245105   3.262  11.463  11.465 -0.0815  1.5654 -0.9483
13090SOL     OW45106   5.044   1.839  12.059  0.4633 -0.2070 -0.0586
13090SOL    HW145107   4.991   1.759  12.060  0.0968  0.0305 -0.3481
13090SOL    HW245108   5.105   1.828  12.133  1.4341 -1.4262 -0.9949
13091SOL     OW45109   6.056   3.765  10.090 -0.0660  0.7000  0.0358
13091SOL    HW145110   5.984   3.821  10.121 -0.5452 -0.4080  1.0051
13091SOL    HW245111   6.109   3.823  10.036 -2.9105  1.0160 -2.7025
13092SOL     OW45112   9.578   0.113   2.091 -0.2026 -0.2037 -0.0239
13092SOL    HW145113   9.636   0.042   2.062  1.7555 -0.0155  2.9323
13092SOL    HW245114   9.638   0.185   2.111 -1.6341  0.5682  1.6864
13093SOL     OW45115   8.291   5.536   1.186 -0.5537 -0.5548  0.3846
13093SOL    HW145116   8.361   5.535   1.120 -0.7000 -0.3780  0.2240
13093SOL    HW245117   8.240   5.615   1.165 -1.1746 -1.0196  0.1071
13094SOL     OW45118  11.467   4.730   6.401 -0.5986  0.2031 -0.5997
13094SOL    HW145119  11.395   4.713   6.463 -0.4683  0.8640 -0.2674
13094SOL    HW245120  11.437   4.690   6.319 -0.9847 -0.2552 -0.2451
13095SOL     OW45121  11.636   9.944  11.836 -0.1023 -0.4341  0.1394
13095SOL    HW145122  11.685   9.912  11.911 -0.8742 -1.5084  0.1953
13095SOL    HW245123  11.545   9.939  11.862 -0.3348  0.1374 -0.5111
13096SOL     OW45124   1.581  10.795   0.866 -0.1674  0.4240 -0.0283
13096SOL    HW145125   1.633  10.795   0.946 -1.5030 -2.7113  0.9736
13096SOL    HW245126   1.505  10.849   0.887 -1.2604 -1.5554  1.4904
13097SOL     OW45127   6.882  11.534   7.134 -0.8035  0.0414  0.4712
13097SOL    HW145128   6.828  11.455   7.129  0.7199 -1.0913  1.1010
13097SOL    HW245129   6.827  11.597   7.181 -3.4829  0.7121 -3.0892
13098SOL     OW45130   0.798  10.868   8.784 -0.1075 -0.5598  0.7794
13098SOL    HW145131   0.819  10.950   8.739  1.2639 -2.4740 -2.4193
13098SOL    HW245132   0.705  10.874   8.804 -0.2779  1.3169 -0.4005
13099SOL     OW45133   8.785   1.200   8.355  0.0780 -0.1033  1.0007
13099SOL    HW145134   8.741   1.122   8.322 -0.1404  0.3583  0.1942
13099SOL    HW245135   8.869   1.202   8.308 -1.0995  1.7126 -1.1817
13100SOL     OW45136  10.260  12.012   8.914  0.3385  0.9753  0.1012
13100SOL    HW145137  10.256  11.994   8.820 -0.0391 -1.5055  0.5087
13100SOL    HW245138  10.180  12.061   8.933 -1.3167 -1.3500 -0.4083
13101SOL     OW45139   4.022   8.345   8.123  0.6537  0.3592 -0.2003
13101SOL    HW145140   4.092   8.334   8.187  1.2054 -0.6343 -0.9508
13101SOL    HW245141   4.037   8.275   8.059 -0.5912  0.5919 -0.7653
13102SOL     OW45142  12.320   7.203  12.279 -0.4760 -0.0632 -0.4625
13102SOL    HW145143  12.375   7.137  12.236  1.0553  0.3089  0.8048
13102SOL    HW245144  12.230   7.174  12.263  0.1323 -2.6744  0.3613
13103SOL     OW45145   0.874   3.494   2.989 -0.0571  0.6557 -0.6784
13103SOL    HW145146   0.800   3.449   2.947 -0.7969 -1.8541  2.8161
13103SOL    HW245147   0.949   3.438   2.972 -0.1920  0.0859  0.5112
13104SOL     OW45148   7.861   9.265   8.703 -0.4795  0.2338 -0.0544
13104SOL    HW145149   7.841   9.198   8.637 -1.1731  1.5357 -1.2089
13104SOL    HW245150   7.842   9.223   8.786  0.0149 -1.3212 -0.6890
13105SOL     OW45151   3.683   7.049   8.344 -0.4498  0.1139 -0.3508
13105SOL    HW145152   3.658   7.131   8.302 -0.5702 -0.7052 -1.9218
13105SOL    HW245153   3.656   6.980   8.283 -2.5402 -1.2839  1.9325
13106SOL     OW45154   0.800   8.568   5.232  0.0738  0.0415 -0.1464
13106SOL    HW145155   0.872   8.595   5.176 -0.0687 -0.5690 -0.6412
13106SOL    HW245156   0.742   8.644   5.235  0.8640  0.6205  0.4698
13107SOL     OW45157   0.954   5.546   7.933 -0.1187  0.5805  0.7259
13107SOL    HW145158   1.028   5.495   7.967 -1.2703 -0.7192  1.3418
13107SOL    HW245159   0.938   5.509   7.846 -0.4472  0.4116  0.8550
13108SOL     OW45160   9.684   9.146   3.122  0.1091  0.0238  0.9102
13108SOL    HW145161   9.638   9.178   3.045  1.5145  2.0723  0.8433
13108SOL    HW245162   9.747   9.082   3.088 -1.0159 -1.0259  0.7252
13109SOL     OW45163   2.770   7.879  11.862  0.0505 -0.3553  0.1695
13109SOL    HW145164   2.712   7.921  11.926 -0.0836 -2.3331  1.4262
13109SOL    HW245165   2.710   7.834  11.802  0.2407 -0.5849  0.1531
13110SOL     OW45166  11.588   3.298   8.911 -0.1553 -0.0056 -0.5876
13110SOL    HW145167  11.658   3.237   8.885  1.3256  0.9604  0.9092
13110SOL    HW245168  11.509   3.260   8.873  0.9346 -1.9784 -1.0905
13111SOL     OW45169  10.701   0.926   0.988 -0.0152  0.2178 -0.0368
13111SOL    HW145170  10.612   0.960   0.988  0.1552  0.6797 -0.4094
13111SOL    HW245171  10.698   0.852   0.927 -0.2427 -0.0551  0.2989
13112SOL     OW45172  10.572   1.736   1.546  0.3437 -0.4889  0.1017
13112SOL    HW145173  10.488   1.690   1.552  0.1162 -0.0209  0.5579
13112SOL    HW245174  10.549   1.827   1.531  0.7963 -0.5142 -0.8286
13113SOL     OW45175   4.651   1.909   2.533  0.2181  0.4293 -0.3937
13113SOL    HW145176   4.742   1.887   2.512  0.0958  0.1825 -0.6683
13113SOL    HW245177   4.601   1.874   2.459 -0.3965 -1.8240  0.9939
13114SOL     OW45178   9.887   6.058   1.711  0.4115  0.1653 -0.5738
13114SOL    HW145179   9.889   5.978   1.762 -2.3455  0.4209  0.1235
13114SOL    HW245180   9.846   6.032   1.628  0.5009  0.6456 -0.7716
13115SOL     OW45181   5.656   0.962   9.060 -0.3690 -0.3619 -0.0350
13115SOL    HW145182   5.683   1.026   8.994  0.6140 -1.3189 -0.5897
13115SOL    HW245183   5.600   1.012   9.120  2.2210  1.6404  0.9181
13116SOL     OW45184  10.866   5.861   2.319  0.8407  0.2039  0.0581
13116SOL    HW145185  10.885   5.820   2.235  0.0764 -0.1683  0.0526
13116SOL    HW245186  10.887   5.794   2.384 -0.7524 -0.3802  0.0318
13117SOL     OW45187   6.767   2.984   1.430  0.6725 -0.1585  0.1918
13117SOL    HW145188   6.799   3.069   1.400  1.4810 -0.4729  0.1358
13117SOL    HW245189   6.845   2.929   1.434  0.0515 -1.1064 -0.4680
13118SOL     OW45190   4.891   0.049   7.883  0.4260 -0.0854  0.1605
13118SOL    HW145191   4.829   0.054   7.810 -1.1274  1.4368  1.4662
13118SOL    HW245192   4.872  -0.035   7.925  0.8716 -0.6654 -0.7607
13119SOL     OW45193   0.052   7.413   7.923  0.1446 -0.2780 -0.3328
13119SOL    HW145194   0.058   7.321   7.899 -0.1826 -0.2823 -0.4026
13119SOL    HW245195  -0.033   7.421   7.965  0.7415 -0.2880  0.9177
13120SOL     OW45196   2.649   1.695   5.624 -0.1527 -0.6066  0.3100
13120SOL    HW145197   2.708   1.645   5.568  0.2533 -0.5159  0.6467
13120SOL    HW245198   2.687   1.688   5.711 -1.4680 -1.8066  0.8280
13121SOL     OW45199  10.611   8.607   0.524  0.5999  0.4998  0.0316
13121SOL    HW145200  10.524   8.568   0.521  0.6626  0.3989 -1.8235
13121SOL    HW245201  10.597   8.693   0.563  0.1852 -0.6147  2.5084
13122SOL     OW45202   4.909   5.380   1.379  0.0249 -0.0583  0.3716
13122SOL    HW145203   4.882   5.455   1.433  0.9869  1.3611 -1.0420
13122SOL    HW245204   4.863   5.393   1.296  0.9299 -0.5181 -0.2121
13123SOL     OW45205   6.148   8.036   7.110  0.4261  0.2351 -0.4375
13123SOL    HW145206   6.216   7.970   7.095 -0.4316 -0.1865 -2.9333
13123SOL    HW245207   6.194   8.120   7.101  1.2207  0.0490  1.2950
13124SOL     OW45208   2.936   4.357   8.182 -0.3042  0.4829 -0.2680
13124SOL    HW145209   2.983   4.440   8.169  0.6805  0.1733  1.1039
13124SOL    HW245210   2.845   4.383   8.193  0.0525  1.4536  0.5722
13125SOL     OW45211   6.989   8.826  10.379  0.2924  0.4114 -0.5674
13125SOL    HW145212   7.012   8.813  10.471  2.7567  1.2606 -0.9913
13125SOL    HW245213   7.042   8.761  10.332  0.1519  0.9354 -1.4763
13126SOL     OW45214   2.498  10.311   1.956 -0.7771 -0.4163 -0.5461
13126SOL    HW145215   2.412  10.282   1.988 -0.0317 -0.7978  1.2425
13126SOL    HW245216   2.554  10.235   1.968  0.2312  0.4099  0.1057
13127SOL     OW45217   9.481   8.746   2.595 -0.2966  0.3976  0.0652
13127SOL    HW145218   9.440   8.668   2.632 -1.2206  1.0781  0.5147
13127SOL    HW245219   9.564   8.715   2.558 -0.1609 -0.6066  1.1684
13128SOL     OW45220   8.399   1.218   3.191 -0.3183  0.2861  0.6074
13128SOL    HW145221   8.377   1.258   3.107 -1.5837 -0.9243  0.3297
13128SOL    HW245222   8.448   1.139   3.168 -1.1540 -0.3524  0.9655
13129SOL     OW45223   0.299   9.383   1.917 -0.2146  0.0826 -0.6491
13129SOL    HW145224   0.290   9.478   1.922 -2.4572 -0.1344  1.6058
13129SOL    HW245225   0.237   9.357   1.849 -0.5657  0.1557 -0.3607
13130SOL     OW45226   3.952  10.431   2.780  0.1459  0.3089  0.5053
13130SOL    HW145227   3.908  10.516   2.777 -1.3168 -0.2972  2.4021
13130SOL    HW245228   4.040  10.450   2.812 -0.6300  1.0267  2.3528
13131SOL     OW45229  11.528  11.371   5.323  0.3149 -0.1812  0.1183
13131SOL    HW145230  11.525  11.353   5.229  0.0896 -1.8105  0.4173
13131SOL    HW245231  11.439  11.352   5.354 -0.3457  2.7058  0.3091
13132SOL     OW45232   6.668   9.450   8.186  0.7614 -0.0678  0.4954
13132SOL    HW145233   6.628   9.490   8.109 -0.4956 -1.3107  0.4717
13132SOL    HW245234   6.760   9.439   8.162  0.6302  0.6393 -0.3741
13133SOL     OW45235   3.583   7.886   3.501  0.4868  0.5517  0.4869
13133SOL    HW145236   3.561   7.968   3.458  1.7018  0.2315 -0.8151
13133SOL    HW245237   3.663   7.905   3.551 -0.5040  0.7297  2.0511
13134SOL     OW45238   4.906  11.161   6.844  0.1585 -0.3430  0.1235
13134SOL    HW145239   4.889  11.242   6.892  2.1620  1.0973 -1.4046
13134SOL    HW245240   4.819  11.126   6.823 -0.7396  0.5750  2.1299
13135SOL     OW45241   7.695   7.724   1.118 -0.2386 -0.0179  1.0841
13135SOL    HW145242   7.600   7.738   1.117 -0.7398 -2.3966 -1.7629
13135SOL    HW245243   7.729   7.788   1.056 -0.5550 -1.4182 -0.6228
13136SOL     OW45244   9.749   2.667   0.444  0.0603 -0.2002  0.0533
13136SOL    HW145245   9.798   2.610   0.504 -0.8742 -1.0176  0.0599
13136SOL    HW245246   9.817   2.717   0.398  0.7968  0.5832  1.8914
13137SOL     OW45247   5.950   6.284  11.722  0.0248 -1.1618  0.0828
13137SOL    HW145248   5.867   6.251  11.758 -0.6558 -0.3798 -0.7064
13137SOL    HW245249   5.923   6.350  11.657  1.2578 -1.4127 -0.7122
13138SOL     OW45250   4.610   4.117   4.708 -0.1903 -0.3013 -0.4193
13138SOL    HW145251   4.628   4.201   4.664 -2.6101  1.5265  1.7341
13138SOL    HW245252   4.567   4.064   4.641  2.0173 -0.1974 -2.0365
13139SOL     OW45253   3.346   2.480   4.302 -0.0034 -0.4852 -0.4508
13139SOL    HW145254   3.358   2.466   4.208 -0.1519  2.4588 -1.0151
13139SOL    HW245255   3.379   2.569   4.317  1.4524 -1.3907  2.6095
13140SOL     OW45256   6.845   4.168   4.903 -0.2611 -0.4263  0.4861
13140SOL    HW145257   6.815   4.096   4.847 -0.4999  1.3592 -1.8453
13140SOL    HW245258   6.770   4.188   4.959 -1.0153 -0.5496 -0.4468
13141SOL     OW45259   0.590   5.183   1.191  0.1685 -0.3232 -0.1190
13141SOL    HW145260   0.572   5.111   1.130 -0.6149  0.9992 -1.5016
13141SOL    HW245261   0.512   5.186   1.247  0.2598 -0.6166  0.0274
13142SOL     OW45262   1.584   6.642   3.559 -0.2663 -0.1880 -0.0629
13142SOL    HW145263   1.570   6.596   3.477 -3.4289 -0.2940  0.4229
13142SOL    HW245264   1.566   6.734   3.539  2.2468  0.3592 -0.1582
13143SOL     OW45265   0.716   2.366  11.235  0.6314 -0.0894 -0.3837
13143SOL    HW145266   0.797   2.323  11.209  0.2521 -0.2326 -1.3615
13143SOL    HW245267   0.648   2.300  11.222  0.4006 -0.1228  0.8599
13144SOL     OW45268   4.508   1.997   1.174  0.7843  0.6293  0.5578
13144SOL    HW145269   4.503   2.061   1.103 -0.3858 -0.3183 -0.2402
13144SOL    HW245270   4.599   1.967   1.172  1.0113  1.3155  0.1009
13145SOL     OW45271   7.399   7.427   0.716  0.6388  0.2838 -0.0916
13145SOL    HW145272   7.353   7.478   0.649  1.2453 -0.2251 -0.9102
13145SOL    HW245273   7.449   7.362   0.667 -1.8850 -2.7119  0.9603
13146SOL     OW45274   6.620   1.732   2.359 -0.1556  0.0080 -0.0003
13146SOL    HW145275   6.606   1.665   2.292  1.3067 -0.7830  0.4402
13146SOL    HW245276   6.633   1.683   2.440 -2.0928  0.9480  0.9718
13147SOL     OW45277  11.500  10.058  11.284 -0.0212  0.1462  0.0771
13147SOL    HW145278  11.501  10.132  11.344  2.9791  0.9903 -0.8536
13147SOL    HW245279  11.477  10.096  11.199 -3.4486 -0.9141  0.3603
13148SOL     OW45280   7.714  10.027   1.006 -0.1028 -0.3071  0.5138
13148SOL    HW145281   7.674   9.988   0.928 -0.3566 -1.9019  1.4098
13148SOL    HW245282   7.781   9.963   1.033 -0.5815 -0.1806  2.0740
13149SOL     OW45283  10.741   7.263   3.986  0.2735 -0.3531 -0.1493
13149SOL    HW145284  10.728   7.308   3.903  0.3480  1.5379  0.8035
13149SOL    HW245285  10.721   7.171   3.967 -0.7930  0.2029 -1.9743
13150SOL     OW45286   3.784   1.941  12.068  0.1241 -0.2865 -0.4410
13150SOL    HW145287   3.713   2.002  12.089 -0.1338 -0.4412 -0.8414
13150SOL    HW245288   3.739   1.862  12.038  0.4581 -0.7723  0.3215
13151SOL     OW45289   2.056   0.137  10.856  0.1003 -0.1468 -0.0350
13151SOL    HW145290   2.054   0.203  10.925 -0.9753  0.6605 -0.7975
13151SOL    HW245291   2.108   0.065  10.892  0.5088  0.7304  1.1663
13152SOL     OW45292   8.385   9.880   2.713 -0.0217  0.7090 -0.1675
13152SOL    HW145293   8.348   9.807   2.664  0.4364 -0.0733  0.6421
13152SOL    HW245294   8.462   9.906   2.663  1.2655 -1.0125  0.8516
13153SOL     OW45295   0.036   0.284   0.260  0.1933 -0.1208 -0.3318
13153SOL    HW145296   0.097   0.303   0.189 -1.0548 -0.1768 -1.4609
13153SOL    HW245297   0.087   0.232   0.322  1.7078  1.0924 -0.4899
13154SOL     OW45298   8.009   4.161   7.279 -0.4580 -0.5255  0.2301
13154SOL    HW145299   8.088   4.194   7.236  0.6535 -2.9530  0.2122
13154SOL    HW245300   7.942   4.166   7.211  0.2137 -0.3386 -0.4396
13155SOL     OW45301   8.590   0.381  10.073 -0.2121  0.9215  0.2228
13155SOL    HW145302   8.640   0.397  10.153  0.6867  1.1166 -0.3545
13155SOL    HW245303   8.541   0.462  10.058  1.2840  1.7361 -0.5626
13156SOL     OW45304   0.146   7.838   4.335 -0.5350 -0.6743  0.0188
13156SOL    HW145305   0.194   7.765   4.376 -0.3528  0.0071  1.0758
13156SOL    HW245306   0.165   7.830   4.242 -0.3367 -1.8473  0.1469
13157SOL     OW45307   0.393   4.465   3.295 -0.1199  0.0538 -0.1400
13157SOL    HW145308   0.429   4.378   3.278 -1.6700 -0.4673 -0.9417
13157SOL    HW245309   0.305   4.449   3.330 -0.2467  1.2952  0.1670
13158SOL     OW45310   3.450   8.867   0.201 -0.0264  0.3666  0.3411
13158SOL    HW145311   3.483   8.921   0.273  1.3960 -0.4991  0.3862
13158SOL    HW245312   3.383   8.812   0.241 -0.4105  1.0404  0.6316
13159SOL     OW45313   0.727   7.220   5.120  0.2947 -0.0956  0.3683
13159SOL    HW145314   0.737   7.132   5.158 -1.1907 -0.5598 -0.2388
13159SOL    HW245315   0.816   7.252   5.110  0.8251 -1.0140  1.8103
13160SOL     OW45316   1.937   2.400   6.579 -0.2769  0.0505  0.6447
13160SOL    HW145317   1.939   2.477   6.522  1.0230 -1.4671 -1.5162
13160SOL    HW245318   1.846   2.373   6.580 -0.2659 -0.1497 -1.1595
13161SOL     OW45319  11.044  10.580   8.683  0.8346  0.9732  0.7825
13161SOL    HW145320  11.089  10.612   8.761 -0.3003 -1.4682  2.5625
13161SOL    HW245321  11.096  10.506   8.653 -0.4003 -0.0907  1.1677
13162SOL     OW45322   3.182   1.644   9.078 -0.2705 -0.1866 -0.5416
13162SOL    HW145323   3.250   1.621   9.142 -0.7690 -1.0554 -0.3071
13162SOL    HW245324   3.130   1.564   9.069 -0.4616  0.0614 -1.7274
13163SOL     OW45325   8.717  10.559   1.193  0.7406 -0.2407 -0.0467
13163SOL    HW145326   8.670  10.524   1.117  0.7010 -0.3469  0.0264
13163SOL    HW245327   8.809  10.561   1.166  0.5101  1.5580 -0.8074
13164SOL     OW45328   6.687  11.226   8.898 -0.0118 -0.0801  0.1851
13164SOL    HW145329   6.635  11.269   8.830  1.0035  2.1123  0.6714
13164SOL    HW245330   6.761  11.286   8.912  1.9643 -2.4377  0.4074
13165SOL     OW45331   7.577   9.648  10.869  0.1327 -0.6393 -0.0096
13165SOL    HW145332   7.531   9.571  10.902  0.4619 -0.7444  0.2064
13165SOL    HW245333   7.615   9.619  10.786 -1.9191  0.0393 -1.2561
13166SOL     OW45334   8.252  11.682   9.730  0.3054  0.3891 -0.1108
13166SOL    HW145335   8.344  11.693   9.705 -0.2836  0.9986 -2.1115
13166SOL    HW245336   8.253  11.692   9.826  2.3755 -0.1333 -0.0177
13167SOL     OW45337   3.890   1.465   8.191 -0.5408  0.0312 -0.3479
13167SOL    HW145338   3.900   1.538   8.130  1.6952 -0.3556 -0.5080
13167SOL    HW245339   3.944   1.488   8.266  1.3555 -2.0195 -0.9777
13168SOL     OW45340   4.513   9.023   9.269  0.7866  0.5134 -0.0801
13168SOL    HW145341   4.451   8.956   9.241 -0.2154  1.2973  0.1800
13168SOL    HW245342   4.553   8.987   9.349  0.2287  0.2372  0.0791
13169SOL     OW45343  11.256   3.415   6.697  0.7629  0.0580 -0.4901
13169SOL    HW145344  11.298   3.329   6.694  0.8582  0.1220 -1.0534
13169SOL    HW245345  11.317   3.469   6.747  0.9613 -0.0664 -0.5939
13170SOL     OW45346   7.310   8.267   4.638 -0.1110  0.1123 -0.3230
13170SOL    HW145347   7.384   8.288   4.581  0.6501 -0.3303  0.4746
13170SOL    HW245348   7.258   8.205   4.588 -0.4853  1.1694 -1.2870
13171SOL     OW45349   8.782   4.314   8.362 -0.2613 -0.1252 -0.2691
13171SOL    HW145350   8.712   4.253   8.388 -0.2804  0.0820  0.1717
13171SOL    HW245351   8.814   4.350   8.444  1.0074 -0.9146 -0.3902
13172SOL     OW45352  11.844   1.150   3.987  0.0053 -0.0181 -0.1188
13172SOL    HW145353  11.793   1.176   4.064 -0.6782  0.2685 -0.6517
13172SOL    HW245354  11.779   1.115   3.926  0.6413 -0.9453 -0.2805
13173SOL     OW45355  11.079   0.040  10.559 -0.0257  0.0692 -0.3439
13173SOL    HW145356  11.158   0.095  10.560  0.6174 -0.8247  1.0791
13173SOL    HW245357  11.070   0.013  10.468  0.9350  0.7169 -0.6533
13174SOL     OW45358   9.036   7.767   0.802 -0.0447  0.3476  0.1394
13174SOL    HW145359   8.973   7.782   0.731  1.0885 -1.0715 -1.2435
13174SOL    HW245360   9.095   7.842   0.796 -1.1730  1.3443  1.0183
13175SOL     OW45361  10.440  10.488   1.005 -0.2252  0.1408 -1.2322
13175SOL    HW145362  10.434  10.580   1.031  0.0039 -0.7929  2.7515
13175SOL    HW245363  10.368  10.445   1.051  0.9575 -1.9829 -1.2431
13176SOL     OW45364   7.713  11.601  10.175  0.1844 -0.1728  0.1864
13176SOL    HW145365   7.804  11.575  10.188  1.2381  1.2939 -3.1634
13176SOL    HW245366   7.672  11.525  10.134  0.3901 -0.1976  0.0250
13177SOL     OW45367   6.747  10.602   3.000 -0.0952 -0.5519 -0.1894
13177SOL    HW145368   6.838  10.587   2.976  0.6701  2.4962  0.4833
13177SOL    HW245369   6.737  10.555   3.083  1.5807  0.8335  0.8683
13178SOL     OW45370  11.794   5.110   5.199  0.0761 -0.3342 -0.1105
13178SOL    HW145371  11.854   5.082   5.268  1.6526 -0.4532 -1.4334
13178SOL    HW245372  11.725   5.157   5.244 -0.3761 -2.6361  1.7754
13179SOL     OW45373   0.780  11.834   3.009  0.6765  0.4470  0.1174
13179SOL    HW145374   0.798  11.919   2.968  3.8597  0.1207  0.5698
13179SOL    HW245375   0.759  11.856   3.100 -2.6492  0.9104 -0.6329
13180SOL     OW45376   1.398  10.832   6.703  0.1139 -0.0099  0.0925
13180SOL    HW145377   1.347  10.845   6.623  1.6003  1.7208 -0.6202
13180SOL    HW245378   1.349  10.879   6.770 -0.6324 -0.6659  0.0262
13181SOL     OW45379   1.013   5.782   2.448 -0.0399  0.1886  0.1766
13181SOL    HW145380   1.052   5.702   2.412 -0.3310  0.1406 -0.0377
13181SOL    HW245381   1.081   5.818   2.505 -0.4492 -0.9947  1.4499
13182SOL     OW45382   5.888   3.992   5.000 -0.6805 -0.6260 -0.1137
13182SOL    HW145383   5.953   4.048   4.958 -0.7226 -1.1439 -0.9007
13182SOL    HW245384   5.935   3.912   5.023 -1.2446 -1.4446 -1.6673
13183SOL     OW45385   3.314   4.414   6.341  0.3041  0.2321  0.9990
13183SOL    HW145386   3.319   4.460   6.425  1.9682 -0.2681  1.1930
13183SOL    HW245387   3.320   4.322   6.363  2.2757  0.1460  0.2586
13184SOL     OW45388  11.576   3.346   8.500  0.0942  0.5206  0.0835
13184SOL    HW145389  11.509   3.398   8.544 -0.0323  0.6554 -0.2669
13184SOL    HW245390  11.640   3.411   8.469 -1.0593  0.6848 -2.1093
13185SOL     OW45391   9.308   0.608  11.334  0.8303  0.8374  0.0017
13185SOL    HW145392   9.222   0.647  11.352  0.4588 -0.0349  0.1773
13185SOL    HW245393   9.335   0.570  11.418  0.1623 -1.1956 -0.6487
13186SOL     OW45394   2.643   4.321  10.063 -0.0279 -0.0246 -0.3312
13186SOL    HW145395   2.641   4.227  10.047 -1.8337  0.0012 -0.4452
13186SOL    HW245396   2.597   4.333  10.146 -1.0531  0.8540 -0.9998
13187SOL     OW45397  10.742  10.837  11.634 -0.3087  0.0931  0.2278
13187SOL    HW145398  10.779  10.891  11.704  0.9432 -1.0648  0.5034
13187SOL    HW245399  10.668  10.792  11.674  1.1934 -1.5981  1.2915
13188SOL     OW45400  10.330   4.123   1.006  0.5320 -0.1643 -0.6489
13188SOL    HW145401  10.385   4.154   1.078  0.2292  0.2008 -0.5738
13188SOL    HW245402  10.266   4.193   0.993 -0.7595 -1.1611  0.1384
13189SOL     OW45403   4.945   5.484   9.454 -0.1320 -0.0434  0.2220
13189SOL    HW145404   4.925   5.392   9.472 -2.6532  0.6047  1.1750
13189SOL    HW245405   4.861   5.524   9.434  1.1086  1.7629 -1.8622
13190SOL     OW45406   2.139   1.394   3.889 -0.5040 -0.5972  0.4068
13190SOL    HW145407   2.217   1.402   3.835 -0.5645  1.4766  0.5570
13190SOL    HW245408   2.158   1.320   3.947  1.2721 -0.2717  0.3026
13191SOL     OW45409   1.653  10.659   4.996 -0.4085  0.4166 -0.1099
13191SOL    HW145410   1.740  10.635   5.028 -0.3069 -0.9574 -1.3094
13191SOL    HW245411   1.629  10.736   5.048  1.4321  0.7212  0.3785
13192SOL     OW45412   0.743   2.154   2.622 -0.5695  0.0073 -1.0282
13192SOL    HW145413   0.817   2.142   2.682 -0.4572  2.1686 -0.6392
13192SOL    HW245414   0.680   2.087   2.648  0.2234 -0.2546  0.3335
13193SOL     OW45415   6.290   5.202   3.651  0.0064  0.5107 -0.2321
13193SOL    HW145416   6.231   5.265   3.693  0.6747 -0.3840  2.2052
13193SOL    HW245417   6.249   5.117   3.667  0.7941  0.0666 -0.5280
13194SOL     OW45418   7.892   2.708   8.861  0.1170  0.5483  0.1261
13194SOL    HW145419   7.857   2.619   8.851  2.7939 -0.6914  0.8594
13194SOL    HW245420   7.950   2.720   8.786  0.2243  1.4473  0.3468
13195SOL     OW45421  10.102   8.289   0.378  0.0837 -0.0577 -0.5749
13195SOL    HW145422  10.083   8.317   0.289  1.3941  1.9515 -0.2773
13195SOL    HW245423  10.193   8.260   0.376  0.4544  0.9624  0.2832
13196SOL     OW45424   8.649   9.690   4.318 -0.5667  0.1665 -0.5989
13196SOL    HW145425   8.589   9.714   4.388 -0.3309  3.1544 -1.2968
13196SOL    HW245426   8.721   9.646   4.363 -0.7773  1.3395  0.9927
13197SOL     OW45427   9.233   1.083  12.073 -0.7920  0.5744  0.3134
13197SOL    HW145428   9.197   1.109  12.158 -0.2013  0.5927  0.5606
13197SOL    HW245429   9.188   1.139  12.010 -1.8677 -0.0286  0.5112
13198SOL     OW45430   7.431   9.501   8.278 -0.1735 -0.1510  0.1986
13198SOL    HW145431   7.359   9.455   8.322 -0.9298  0.2720 -0.5783
13198SOL    HW245432   7.511   9.462   8.315 -0.7981 -0.8545  0.8258
13199SOL     OW45433   4.930   2.977  10.968 -0.1978  0.1393  0.1765
13199SOL    HW145434   4.984   3.050  10.940  0.9926 -0.5038  0.7535
13199SOL    HW245435   4.841   3.014  10.972 -0.1010  0.8487 -2.1772
13200SOL     OW45436   1.660   1.696   2.384  0.4019 -0.7295 -0.2892
13200SOL    HW145437   1.712   1.729   2.311 -0.9140 -0.6996 -1.2577
13200SOL    HW245438   1.569   1.707   2.355 -0.1404 -1.1551  1.1706
13201SOL     OW45439   5.057   5.368   4.537 -0.1542 -0.3275  0.0529
13201SOL    HW145440   5.044   5.461   4.519 -0.1932 -0.1324  1.0759
13201SOL    HW245441   5.152   5.358   4.545 -0.0680 -0.5753 -1.0326
13202SOL     OW45442   2.004   5.439   7.032  0.8651 -0.2552  0.5757
13202SOL    HW145443   1.943   5.510   7.011 -0.5952 -1.0698  1.8973
13202SOL    HW245444   2.091   5.480   7.026  0.2033  1.0648 -0.8378
13203SOL     OW45445  10.251   3.606   0.376  0.2213 -0.0487  0.3730
13203SOL    HW145446  10.185   3.672   0.353  1.1072  0.9354  0.5967
13203SOL    HW245447  10.214   3.560   0.451 -0.0783  0.7193  0.7125
13204SOL     OW45448   6.832   6.826   3.918 -0.4393 -0.7956  0.4062
13204SOL    HW145449   6.762   6.766   3.891 -1.3385 -1.0618  3.0141
13204SOL    HW245450   6.902   6.768   3.950 -0.0276 -0.4709  0.1156
13205SOL     OW45451   3.104   0.367  11.788 -0.3162  0.5063 -0.4855
13205SOL    HW145452   3.101   0.438  11.723 -0.7105  0.4623 -0.5195
13205SOL    HW245453   3.154   0.403  11.861 -0.2188  0.6998 -0.6450
13206SOL     OW45454   9.551   1.046   4.470 -0.5036  0.1778 -0.7967
13206SOL    HW145455   9.582   0.983   4.534 -0.6228  1.8540  1.0030
13206SOL    HW245456   9.547   0.997   4.387 -1.1622 -2.2909  0.6106
13207SOL     OW45457  11.327   1.797   1.598  0.0048 -0.3867  0.1553
13207SOL    HW145458  11.276   1.852   1.539  1.2253 -0.0836 -0.6694
13207SOL    HW245459  11.410   1.783   1.551  1.5791  0.9986  2.3208
13208SOL     OW45460   3.398   1.011   4.337  0.0754 -0.5426 -0.6334
13208SOL    HW145461   3.462   1.032   4.270 -1.2418  4.3717 -0.7050
13208SOL    HW245462   3.317   1.055   4.308 -1.0298  0.3683  3.2246
13209SOL     OW45463   5.943   6.302   6.680  0.1575 -0.7673 -0.1018
13209SOL    HW145464   5.942   6.231   6.744 -1.4449 -0.5219  0.1760
13209SOL    HW245465   5.856   6.341   6.685  1.0096  1.2772 -0.1965
13210SOL     OW45466   2.216   5.104   1.337 -0.2604 -0.1472  0.1510
13210SOL    HW145467   2.213   5.023   1.286 -1.0514  0.2261 -0.4264
13210SOL    HW245468   2.247   5.170   1.275  0.3804 -0.0044  0.6206
13211SOL     OW45469   0.427   1.986  12.158  0.1969 -0.1072 -0.2943
13211SOL    HW145470   0.523   1.984  12.159  0.3272  2.2929 -1.0087
13211SOL    HW245471   0.402   1.898  12.130  2.2217 -0.5883 -0.7834
13212SOL     OW45472   5.915   4.725   2.125  0.7229 -0.1547  0.2670
13212SOL    HW145473   5.913   4.749   2.032  0.6679  0.9583  0.5395
13212SOL    HW245474   5.939   4.632   2.126 -0.9581 -0.6493 -0.9336
13213SOL     OW45475  12.038  11.908  12.015 -0.4135 -0.2246 -0.2233
13213SOL    HW145476  12.073  11.857  12.089 -2.4793 -1.1899  0.1464
13213SOL    HW245477  12.077  11.994  12.025  0.0676 -0.5977  1.4694
13214SOL     OW45478   4.703   5.232   8.995 -0.0220  0.0824 -0.1248
13214SOL    HW145479   4.700   5.165   8.927  0.8683 -0.2480  0.1447
13214SOL    HW245480   4.785   5.215   9.041  0.1735  1.3223  0.0013
13215SOL     OW45481  10.760   3.145   0.925 -0.4585 -0.0405 -0.2538
13215SOL    HW145482  10.750   3.055   0.894  1.2572  0.3399 -2.1508
13215SOL    HW245483  10.700   3.196   0.871 -0.4093  0.1176 -0.1600
13216SOL     OW45484   2.229   1.517   3.065  0.5537 -0.0844  0.1865
13216SOL    HW145485   2.267   1.555   3.145  2.7298 -0.7174 -0.4796
13216SOL    HW245486   2.219   1.424   3.086 -1.1879  0.1215  0.4970
13217SOL     OW45487   3.284   0.211  10.376  0.0093 -0.2713 -0.0293
13217SOL    HW145488   3.322   0.258  10.302 -1.6444  1.1698 -0.0501
13217SOL    HW245489   3.285   0.119  10.350  0.2904  0.1127 -1.4645
13218SOL     OW45490   1.045  11.266   0.981 -0.0674  0.1793  0.1525
13218SOL    HW145491   1.012  11.290   0.894 -0.7562  3.3610  1.1588
13218SOL    HW245492   1.140  11.277   0.974  0.1278 -1.7400 -0.7374
13219SOL     OW45493  10.853   1.243  10.252 -0.4243 -0.3874  0.2234
13219SOL    HW145494  10.780   1.268  10.308 -0.0242 -1.0691  1.0613
13219SOL    HW245495  10.812   1.216  10.170 -0.9386  2.0757 -0.4142
13220SOL     OW45496  11.561   1.343  11.636 -0.1256 -0.4576 -0.1119
13220SOL    HW145497  11.570   1.420  11.692 -0.6990  0.2234 -0.9205
13220SOL    HW245498  11.611   1.274  11.680  1.3453  0.6763  0.0872
13221SOL     OW45499  11.700   9.403   8.603  0.2379 -0.9597 -0.3323
13221SOL    HW145500  11.756   9.407   8.680 -0.2954 -2.2445  0.1529
13221SOL    HW245501  11.698   9.493   8.570 -0.4398 -0.1261  1.8129
13222SOL     OW45502   7.537  10.169   4.658 -0.5063  0.4285 -0.3164
13222SOL    HW145503   7.481  10.159   4.735  1.3325 -2.1096  0.8147
13222SOL    HW245504   7.554  10.263   4.653 -0.8248  0.6875  2.2940
13223SOL     OW45505   6.573  10.196   8.007 -0.1062 -0.3060 -0.0184
13223SOL    HW145506   6.537  10.139   8.075 -0.7487  0.4264  0.2748
13223SOL    HW245507   6.668  10.186   8.015 -0.2040 -1.0984  0.2243
13224SOL     OW45508   0.676   9.614   9.698 -0.4766  0.2765  0.0926
13224SOL    HW145509   0.770   9.627   9.700 -0.3608 -0.5594  1.1137
13224SOL    HW245510   0.646   9.642   9.785 -0.8544 -1.3855  0.5471
13225SOL     OW45511   4.018   1.985   7.188 -0.0932 -0.4965  0.2209
13225SOL    HW145512   3.956   1.918   7.161  0.0867 -0.6843  0.2711
13225SOL    HW245513   4.009   2.054   7.123 -0.6240 -0.3567  0.4384
13226SOL     OW45514   6.791   6.449   6.303  0.3146 -1.2572  0.2288
13226SOL    HW145515   6.696   6.459   6.307  0.4271 -0.4603  1.1508
13226SOL    HW245516   6.811   6.443   6.209 -0.5102 -0.0759 -0.0344
13227SOL     OW45517   5.135   4.987  10.376  0.2229 -0.3463 -0.5735
13227SOL    HW145518   5.110   5.008  10.466  0.0933  0.5557 -0.8011
13227SOL    HW245519   5.090   5.053  10.323  1.8414  0.3740 -1.1319
13228SOL     OW45520   8.260   9.050   1.876 -0.1322  0.3041 -0.0758
13228SOL    HW145521   8.292   9.094   1.955 -0.3065  0.9790 -0.3769
13228SOL    HW245522   8.303   8.964   1.877  0.8413  0.7848  0.0953
13229SOL     OW45523   8.278  12.235   5.207 -0.6544  0.3894  0.0980
13229SOL    HW145524   8.220  12.301   5.244  0.0390 -0.0187  2.0341
13229SOL    HW245525   8.236  12.151   5.228  0.4893  0.0958  1.3818
13230SOL     OW45526   8.041  11.677   4.498  0.3913  0.5902  0.1433
13230SOL    HW145527   8.023  11.612   4.565  0.5285  1.5576  1.1452
13230SOL    HW245528   8.132  11.703   4.514  0.5048  0.6705 -0.5746
13231SOL     OW45529   3.201   4.851   6.520  0.0059  0.1974 -0.1705
13231SOL    HW145530   3.222   4.890   6.604 -0.2427 -0.6541  0.2941
13231SOL    HW245531   3.106   4.860   6.513 -0.0315 -0.1699 -0.1388
13232SOL     OW45532  10.344   1.582   4.917  0.1461  0.3577  0.0357
13232SOL    HW145533  10.310   1.571   4.828 -2.0504 -1.6631  0.9821
13232SOL    HW245534  10.324   1.672   4.940  0.9063  0.9598 -1.5506
13233SOL     OW45535   8.459   9.110   7.158  0.3812  0.1606 -0.1837
13233SOL    HW145536   8.434   9.201   7.176 -0.3645 -0.0906  0.0638
13233SOL    HW245537   8.387   9.058   7.192  1.3630 -0.5991  0.8085
13234SOL     OW45538   5.882   1.241  10.473 -0.0346 -0.1121 -0.0798
13234SOL    HW145539   5.893   1.295  10.551  0.4411  1.3011 -1.0833
13234SOL    HW245540   5.830   1.296  10.413 -0.9422 -1.4124 -0.5397
13235SOL     OW45541   3.642   0.817   8.550 -0.0842 -0.2289  0.3606
13235SOL    HW145542   3.705   0.758   8.509  0.4883  1.3494 -1.1532
13235SOL    HW245543   3.559   0.798   8.506 -0.4921 -1.5818  1.6280
13236SOL     OW45544   8.800   2.286   5.467  0.1042 -0.1870  0.9350
13236SOL    HW145545   8.752   2.266   5.387  0.9433 -0.2707  0.4467
13236SOL    HW245546   8.773   2.375   5.490 -1.4137 -0.7581  1.4958
13237SOL     OW45547   4.696   4.815   0.389  0.0134 -0.1366  0.1512
13237SOL    HW145548   4.621   4.811   0.448  0.4395 -0.9857  0.6544
13237SOL    HW245549   4.756   4.877   0.430  0.7199 -1.4320  1.1185
13238SOL     OW45550   3.484   6.384  11.220 -0.8011  0.2557 -0.6102
13238SOL    HW145551   3.391   6.369  11.233 -0.5006 -2.6623 -1.1362
13238SOL    HW245552   3.523   6.371  11.307 -0.7963  0.6095 -0.5590
13239SOL     OW45553   9.816   8.379   1.706  0.6122 -0.3285  0.2950
13239SOL    HW145554   9.823   8.290   1.670  1.9178  0.6128 -2.0245
13239SOL    HW245555   9.759   8.424   1.643  0.7246  0.7128  0.9372
13240SOL     OW45556   5.264   3.002   9.343 -0.1450  0.1993 -0.2464
13240SOL    HW145557   5.287   2.927   9.398 -2.0219 -1.2480 -1.2886
13240SOL    HW245558   5.304   2.982   9.258 -3.0127 -1.1778 -1.3821
13241SOL     OW45559   9.060  10.360   6.502 -0.5721 -0.4212 -0.1048
13241SOL    HW145560   9.094  10.279   6.462 -1.0158 -0.3473 -0.6324
13241SOL    HW245561   9.139  10.408   6.528 -0.3061 -1.1752  0.5299
13242SOL     OW45562   3.155   1.714   5.269 -0.0759  0.3189 -0.2159
13242SOL    HW145563   3.236   1.666   5.252  0.1866  0.5795  0.2766
13242SOL    HW245564   3.089   1.669   5.217  0.2383 -0.3563 -0.0354
13243SOL     OW45565   1.728   2.777   4.546 -0.5042  0.0179  0.1269
13243SOL    HW145566   1.677   2.716   4.493 -1.0004  0.9559 -0.5008
13243SOL    HW245567   1.754   2.726   4.623 -1.7125 -0.7068  0.0804
13244SOL     OW45568   0.755  12.126  10.095 -0.2539 -0.1777 -0.0403
13244SOL    HW145569   0.831  12.142  10.038  0.9235 -3.2716  0.4777
13244SOL    HW245570   0.791  12.129  10.184 -0.8173 -1.2221  0.2385
13245SOL     OW45571  12.238   5.393   1.900  0.5600  0.1725 -0.8379
13245SOL    HW145572  12.196   5.416   1.983  2.4350 -0.4358  0.3569
13245SOL    HW245573  12.228   5.298   1.893  2.3597 -0.1256 -0.0828
13246SOL     OW45574  10.252   2.915   0.842 -0.1823  0.1170 -0.0253
13246SOL    HW145575  10.335   2.948   0.809  0.1534 -2.4436 -2.0083
13246SOL    HW245576  10.221   2.984   0.900  2.5954  1.7990 -0.3479
13247SOL     OW45577   2.307   1.798   2.054 -0.2264  0.2633 -0.6213
13247SOL    HW145578   2.305   1.796   2.150 -1.1073 -1.0438 -0.6335
13247SOL    HW245579   2.215   1.799   2.029 -0.0479 -1.1900 -1.4451
13248SOL     OW45580   8.328   3.442   8.247  0.3098  0.5496 -0.0039
13248SOL    HW145581   8.362   3.531   8.233  0.5586  0.2678 -1.2360
13248SOL    HW245582   8.406   3.387   8.247 -0.0456 -0.0246 -2.2122
13249SOL     OW45583   3.591   9.081  11.698 -0.3375 -0.4843 -0.3464
13249SOL    HW145584   3.644   9.085  11.778 -0.4720 -0.4366 -0.2604
13249SOL    HW245585   3.522   9.018  11.717 -1.4658  0.8558  0.2423
13250SOL     OW45586   7.820  10.153   1.365  0.5118  0.1533  0.3277
13250SOL    HW145587   7.886  10.115   1.306 -0.5952  2.5660 -2.7365
13250SOL    HW245588   7.743  10.097   1.354  0.7232 -0.1695  0.4971
13251SOL     OW45589   6.567   6.830   1.089  0.3218  0.5288  0.1972
13251SOL    HW145590   6.609   6.764   1.143 -1.4452  0.4924  1.6228
13251SOL    HW245591   6.636   6.893   1.069  1.0575  0.5254  2.4805
13252SOL     OW45592   3.221   8.828  11.497  0.1393  0.0852 -0.5581
13252SOL    HW145593   3.288   8.831  11.565 -0.6090 -1.0500  0.2800
13252SOL    HW245594   3.189   8.918  11.490 -1.6045 -0.1554  2.5481
13253SOL     OW45595   2.716   4.827   4.926  0.7523 -0.4194 -0.3287
13253SOL    HW145596   2.750   4.795   5.009 -0.6757  0.1002  0.5010
13253SOL    HW245597   2.632   4.782   4.916 -0.5135  1.7133  0.0359
13254SOL     OW45598   3.510   2.002   4.467  0.6877 -0.5348 -0.2291
13254SOL    HW145599   3.481   2.071   4.408 -0.3124 -1.3971 -0.7816
13254SOL    HW245600   3.476   2.028   4.553 -1.0473 -1.0900 -0.7101
13255SOL     OW45601   5.571   3.493   6.440 -0.0359 -0.0873 -0.3265
13255SOL    HW145602   5.540   3.547   6.368  0.7650  1.0330  0.1348
13255SOL    HW245603   5.522   3.411   6.432  0.1656 -0.0700 -2.2460
13256SOL     OW45604   6.943   9.152   5.606  0.0141 -0.3830 -0.4899
13256SOL    HW145605   6.908   9.224   5.658 -1.9147 -1.1919 -0.5484
13256SOL    HW245606   6.928   9.074   5.660  1.5631 -0.8209 -0.6463
13257SOL     OW45607   0.421   7.546  11.035 -0.2022  0.5217  0.1230
13257SOL    HW145608   0.365   7.577  11.106  1.2673  0.3754  1.3693
13257SOL    HW245609   0.371   7.566  10.955 -1.4737  1.5075  1.1272
13258SOL     OW45610   4.922   5.043   2.446  0.4503 -0.0594 -0.6417
13258SOL    HW145611   4.905   5.092   2.527 -0.7821  1.3880 -1.7206
13258SOL    HW245612   4.881   4.958   2.461 -2.4494  1.1927 -0.7622
13259SOL     OW45613   3.616   8.677   4.144  0.5147  0.4695  0.1735
13259SOL    HW145614   3.690   8.697   4.200  0.3329 -3.1108  1.9904
13259SOL    HW245615   3.653   8.669   4.056  1.8317  1.0308  0.6575
13260SOL     OW45616   7.273   9.114   8.616 -0.2176  0.4957  0.3494
13260SOL    HW145617   7.355   9.152   8.586 -0.7920  1.9524  0.5831
13260SOL    HW245618   7.300   9.039   8.669  0.9073  0.1381 -0.6736
13261SOL     OW45619  10.719  10.574   1.666 -0.7162  0.3698 -0.0400
13261SOL    HW145620  10.682  10.495   1.705  3.6712 -1.5821  0.7252
13261SOL    HW245621  10.776  10.541   1.596  0.6877  2.9485 -0.2138
13262SOL     OW45622   4.748   5.805   7.150  0.3269 -0.2911  0.2623
13262SOL    HW145623   4.754   5.766   7.237 -0.2320 -0.5137  0.2078
13262SOL    HW245624   4.656   5.795   7.126  0.2566  0.6735  0.0640
13263SOL     OW45625  10.037   8.366  11.661 -0.2460 -0.1431 -0.1279
13263SOL    HW145626  10.057   8.460  11.665 -0.9343 -0.0242  0.7105
13263SOL    HW245627   9.943   8.361  11.676 -0.0090 -1.0548  1.2263
13264SOL     OW45628   7.589   9.745   7.783  0.0659  0.2573 -0.0870
13264SOL    HW145629   7.594   9.786   7.869 -0.7451 -0.4374  0.3184
13264SOL    HW245630   7.512   9.784   7.742 -0.4161 -0.4632  0.1048
13265SOL     OW45631  12.235  10.339   4.430 -0.1178  0.3086  0.2365
13265SOL    HW145632  12.270  10.318   4.516  0.5826  3.2186  0.7795
13265SOL    HW245633  12.312  10.368   4.380 -0.7967  0.4988 -0.7281
13266SOL     OW45634   9.687   9.013   6.439 -0.7669 -0.1702  0.4192
13266SOL    HW145635   9.739   8.976   6.510 -1.5143  0.5220  1.3568
13266SOL    HW245636   9.720   9.103   6.429  0.7042 -0.8392 -1.5068
13267SOL     OW45637  11.932   3.422   5.377 -0.3012  0.4594  0.0278
13267SOL    HW145638  12.022   3.398   5.399 -0.7839 -0.4746  1.0624
13267SOL    HW245639  11.883   3.409   5.458 -1.2783  1.5014 -0.3615
13268SOL     OW45640   2.331   3.150   2.163 -0.2641 -0.3143  0.5796
13268SOL    HW145641   2.416   3.168   2.204 -1.1534 -0.7390  2.7779
13268SOL    HW245642   2.301   3.234   2.130  0.5662  0.0270  0.6763
13269SOL     OW45643   2.269   1.489   7.872 -0.2449  1.0942 -0.5520
13269SOL    HW145644   2.186   1.498   7.826  0.4517 -1.0779 -2.4305
13269SOL    HW245645   2.336   1.498   7.803  0.9532  0.2766  0.4527
13270SOL     OW45646   3.450   5.848  11.760 -0.3879 -0.5856  0.5977
13270SOL    HW145647   3.507   5.788  11.712  1.2067  0.7261  0.7656
13270SOL    HW245648   3.403   5.896  11.691  1.9981  1.3928  0.2312
13271SOL     OW45649   2.463  11.971  12.313 -0.1183  0.5648 -0.2368
13271SOL    HW145650   2.496  12.017  12.235  0.3898 -0.3116 -0.5498
13271SOL    HW245651   2.498  12.022  12.387  2.0863 -0.3752 -0.5521
13272SOL     OW45652   3.770   8.411   1.957 -0.2036 -0.2793  0.6592
13272SOL    HW145653   3.810   8.380   1.876 -2.3904 -1.0530 -0.1993
13272SOL    HW245654   3.730   8.333   1.996 -1.9132  0.6160  0.8041
13273SOL     OW45655   4.319   8.919   2.454 -0.0552 -0.6126 -0.4413
13273SOL    HW145656   4.245   8.883   2.405 -0.0591 -0.0134 -0.8897
13273SOL    HW245657   4.316   9.013   2.437  0.0701 -0.4143  0.5539
13274SOL     OW45658   0.437   4.618   0.102  0.9656 -0.2295 -0.0364
13274SOL    HW145659   0.343   4.630   0.110  0.4697 -1.0004 -3.2087
13274SOL    HW245660   0.474   4.706   0.109 -0.2558  0.3802 -0.8391
13275SOL     OW45661  12.227   6.204   2.472  0.1505  0.0713  0.5689
13275SOL    HW145662  12.163   6.195   2.401  0.1098  1.5154  0.3836
13275SOL    HW245663  12.230   6.298   2.489  1.7337 -0.0364  1.0425
13276SOL     OW45664  11.436   3.077   0.783 -0.5899  0.2185  0.3847
13276SOL    HW145665  11.377   3.142   0.820 -1.0460 -0.8674  1.6267
13276SOL    HW245666  11.421   2.998   0.835 -0.5659 -1.1044 -1.5237
13277SOL     OW45667  12.288   3.839   6.691 -0.7059  0.2544 -0.2119
13277SOL    HW145668  12.282   3.766   6.629 -0.7837  0.0032  0.0918
13277SOL    HW245669  12.340   3.805   6.763  0.2371  0.8700 -0.5970
13278SOL     OW45670   2.602   5.339   7.708  0.6002 -0.4163 -0.1307
13278SOL    HW145671   2.620   5.334   7.802  0.3180 -0.1143 -0.0595
13278SOL    HW245672   2.516   5.297   7.698 -0.6857  1.9951  0.1446
13279SOL     OW45673   3.644   1.151   9.186 -0.0754  0.4207 -0.5589
13279SOL    HW145674   3.653   1.056   9.187 -0.9470  0.3068  1.5317
13279SOL    HW245675   3.555   1.167   9.154  0.6930  0.6810 -2.7642
13280SOL     OW45676   8.136   7.253   0.441  0.0849 -0.1885  0.3517
13280SOL    HW145677   8.225   7.238   0.409  0.4414 -0.4479  1.4121
13280SOL    HW245678   8.129   7.348   0.448  0.7568 -0.1933  1.4682
13281SOL     OW45679   0.754   2.348   8.707  0.0376  0.3983 -0.2330
13281SOL    HW145680   0.777   2.311   8.792 -0.0015  0.6335 -0.1195
13281SOL    HW245681   0.833   2.392   8.677 -0.1616  0.9266  0.0083
13282SOL     OW45682   8.429   8.183   1.010  0.4320  0.0698  0.2314
13282SOL    HW145683   8.475   8.181   1.094  0.8517 -3.6724  0.0557
13282SOL    HW245684   8.344   8.144   1.028  0.0854  0.2722 -0.8956
13283SOL     OW45685   8.879   5.149   4.347  0.5485 -0.0817  0.1859
13283SOL    HW145686   8.838   5.189   4.269  2.0035  0.5737 -0.2740
13283SOL    HW245687   8.817   5.167   4.418 -0.2800  0.2858 -0.6064
13284SOL     OW45688   8.531   9.075   3.227  0.6455 -0.8039 -0.0549
13284SOL    HW145689   8.505   9.004   3.168  0.3603  0.8480 -2.0303
13284SOL    HW245690   8.620   9.098   3.200 -0.2393  1.3807 -1.3872
13285SOL     OW45691   6.064   4.182   2.031 -0.1597  0.4152  0.0620
13285SOL    HW145692   6.130   4.252   2.027 -0.0810  0.2868 -0.9896
13285SOL    HW245693   5.991   4.215   1.979 -0.4805  0.0740  0.2905
13286SOL     OW45694   2.140   8.823   1.955  0.0063 -0.1307  0.3278
13286SOL    HW145695   2.148   8.894   1.891  1.3699 -1.1422 -0.6575
13286SOL    HW245696   2.053   8.837   1.994  0.5873  2.6505  0.8875
13287SOL     OW45697   2.074   1.109   3.802 -0.5276 -0.3932 -0.8038
13287SOL    HW145698   2.100   1.174   3.869 -0.4450 -0.8779 -0.3586
13287SOL    HW245699   2.101   1.025   3.839 -1.3048 -0.7547 -1.0527
13288SOL     OW45700   3.085   9.907   8.855 -0.3180 -0.2329  0.9507
13288SOL    HW145701   3.161   9.954   8.821  0.0728 -1.9012 -0.6714
13288SOL    HW245702   3.105   9.892   8.948  1.2302 -0.4202  0.6068
13289SOL     OW45703   6.403   5.512   7.924 -0.2283 -0.0057 -0.1410
13289SOL    HW145704   6.423   5.513   8.017 -0.0931 -1.8587 -0.1186
13289SOL    HW245705   6.404   5.604   7.898  1.2380  0.4380  1.3534
13290SOL     OW45706   1.884  10.094  11.288  0.1641 -0.1379  0.8282
13290SOL    HW145707   1.940  10.033  11.241 -1.2502 -0.9116  0.0970
13290SOL    HW245708   1.803  10.095  11.239 -0.0493  1.9349  1.1433
13291SOL     OW45709   4.553   3.492   0.426  0.2385  0.2047  0.1484
13291SOL    HW145710   4.569   3.401   0.450 -0.6048 -0.5682 -1.9215
13291SOL    HW245711   4.514   3.531   0.504 -2.1786 -2.0398  0.2037
13292SOL     OW45712   9.900   2.438   7.264 -0.0098 -0.3101 -0.1979
13292SOL    HW145713   9.928   2.378   7.195 -0.5521 -1.6965  0.7499
13292SOL    HW245714   9.976   2.494   7.279  0.4295 -0.5976 -1.2564
13293SOL     OW45715   7.505  11.775   6.433 -0.5087 -0.1208 -0.2660
13293SOL    HW145716   7.455  11.790   6.353 -2.4611 -0.9062  0.7314
13293SOL    HW245717   7.456  11.823   6.500  0.1017 -0.8914  0.7535
13294SOL     OW45718   3.777   4.321  11.993  0.1188 -0.0334  0.1238
13294SOL    HW145719   3.850   4.382  12.003 -1.0756  1.6694 -1.0590
13294SOL    HW245720   3.816   4.235  12.010  2.4680  0.7718 -0.7319
13295SOL     OW45721   1.864   0.153   6.192  0.4311  0.0727 -0.1542
13295SOL    HW145722   1.820   0.164   6.107 -0.4377  1.5818  0.4386
13295SOL    HW245723   1.897   0.241   6.212 -0.5688  0.0737  1.6767
13296SOL     OW45724  10.603  10.972   0.794 -0.0535  0.7596  0.4506
13296SOL    HW145725  10.629  10.931   0.711 -1.0926  0.7611  0.1140
13296SOL    HW245726  10.664  10.936   0.858 -0.8504 -1.2541  0.1438
13297SOL     OW45727   0.115   8.330  11.389  0.1668 -0.3243 -0.2409
13297SOL    HW145728   0.125   8.341  11.483 -1.1132 -0.8970 -0.0124
13297SOL    HW245729   0.193   8.282  11.361  1.1744  0.9508  0.2918
13298SOL     OW45730   7.855   9.600  10.294 -0.0141 -0.0159 -0.2541
13298SOL    HW145731   7.873   9.608  10.387  0.8018  2.1611 -0.5585
13298SOL    HW245732   7.780   9.657  10.279  0.0708 -0.0963 -1.0057
13299SOL     OW45733   9.817   4.489   5.716 -0.1965  0.4805 -0.0304
13299SOL    HW145734   9.728   4.462   5.739 -0.1441  1.2751  1.2362
13299SOL    HW245735   9.841   4.434   5.641 -2.0543  0.8511 -0.9271
13300SOL     OW45736   6.741   5.999   4.863  0.1511  0.5221 -0.1266
13300SOL    HW145737   6.749   6.045   4.780  0.7455 -0.5918 -0.7055
13300SOL    HW245738   6.793   6.052   4.925 -1.2543  1.9977 -0.1497
13301SOL     OW45739  11.621   8.486   0.564  0.3431  0.4882  0.0957
13301SOL    HW145740  11.571   8.553   0.517  0.9624  0.4041 -0.7135
13301SOL    HW245741  11.663   8.533   0.636  0.3458  0.8584 -0.1458
13302SOL     OW45742   1.305   1.762   6.707  0.2340  0.2065 -0.3890
13302SOL    HW145743   1.353   1.813   6.772  0.0235 -2.2760  1.8841
13302SOL    HW245744   1.265   1.827   6.650 -0.3470  2.6037  2.5288
13303SOL     OW45745   1.450   8.245   6.816 -0.0941 -0.0122  0.2694
13303SOL    HW145746   1.508   8.218   6.745  0.3588  1.8394 -0.1199
13303SOL    HW245747   1.382   8.298   6.774  0.5793  1.7130  1.2478
13304SOL     OW45748   3.069   2.785   2.500  0.1703 -0.7422 -0.3363
13304SOL    HW145749   3.087   2.711   2.443 -1.2413 -1.3839 -0.0003
13304SOL    HW245750   3.059   2.748   2.587  0.1721 -0.0679 -0.0381
13305SOL     OW45751   9.752   0.491   0.896 -0.4999  0.8992  0.1912
13305SOL    HW145752   9.699   0.528   0.825 -0.8076 -0.1007 -0.1063
13305SOL    HW245753   9.752   0.397   0.880 -0.2721  0.6950  1.3227
13306SOL     OW45754   2.101   4.322   0.987  0.0776 -0.1486  0.2549
13306SOL    HW145755   2.191   4.298   1.006  0.3560 -1.5002 -2.4130
13306SOL    HW245756   2.104   4.415   0.964  1.1003 -0.5467 -1.3443
13307SOL     OW45757   7.104   4.504   3.607 -0.0413 -0.0748 -0.4524
13307SOL    HW145758   7.088   4.519   3.701  1.3967  1.1303 -0.3466
13307SOL    HW245759   7.029   4.454   3.577 -2.4246  2.5980  0.5697
13308SOL     OW45760  11.107  11.419   0.594  0.3269 -0.7510 -0.2884
13308SOL    HW145761  11.172  11.378   0.536  0.1948 -0.1217 -0.8928
13308SOL    HW245762  11.053  11.473   0.536 -0.2798 -0.6913  0.3169
13309SOL     OW45763  10.043   8.549   3.951  0.1258 -0.3851 -0.2064
13309SOL    HW145764  10.031   8.628   4.003 -0.8862 -0.3074 -0.5362
13309SOL    HW245765  10.133   8.554   3.919  0.4299  0.0685  0.6982
13310SOL     OW45766   6.350   3.167   3.636 -0.1863 -0.3357  0.3052
13310SOL    HW145767   6.337   3.136   3.725  0.6122 -1.1412  0.1538
13310SOL    HW245768   6.338   3.090   3.581 -0.2620  0.0650 -0.2541
13311SOL     OW45769   4.187   7.988   1.332 -0.2800  0.0138 -0.0297
13311SOL    HW145770   4.187   7.974   1.237  1.6492 -0.2569 -0.0289
13311SOL    HW245771   4.094   7.984   1.357 -0.8158 -0.0157 -1.8709
13312SOL     OW45772   8.403   2.149   8.286 -0.1815 -0.0153 -0.1944
13312SOL    HW145773   8.441   2.069   8.251  0.6354  0.3169 -0.1017
13312SOL    HW245774   8.357   2.189   8.213 -0.9389 -0.7679 -0.1344
13313SOL     OW45775  10.436   9.183   4.707 -0.7544  0.4539  0.2710
13313SOL    HW145776  10.506   9.191   4.772 -0.0272 -1.0200 -0.2705
13313SOL    HW245777  10.460   9.246   4.639 -2.0712  2.7463  1.8396
13314SOL     OW45778   8.940  11.730   2.637 -0.2605 -0.2211  0.0573
13314SOL    HW145779   9.000  11.799   2.662  2.4934 -1.3040 -2.8320
13314SOL    HW245780   8.869  11.774   2.590  1.0980  0.7209 -1.1523
13315SOL     OW45781   2.286   8.422   2.102  0.2216  0.4616  0.4814
13315SOL    HW145782   2.261   8.443   2.012  0.7580 -0.6238  0.0565
13315SOL    HW245783   2.226   8.351   2.127 -0.0128  0.8490  1.0314
13316SOL     OW45784   9.048   2.440   7.405  0.0899 -0.4037 -0.3599
13316SOL    HW145785   8.984   2.372   7.384 -0.2600 -0.8084  1.7320
13316SOL    HW245786   9.006   2.522   7.379 -1.6110 -0.6045  1.5181
13317SOL     OW45787   5.031   3.686   0.134 -0.8386  0.5611  0.1020
13317SOL    HW145788   4.953   3.629   0.137 -1.0216  0.8407  2.1822
13317SOL    HW245789   5.090   3.648   0.199  1.0223  0.0783 -1.7795
13318SOL     OW45790   4.752   3.195   3.345 -0.2312  0.2245  0.8697
13318SOL    HW145791   4.806   3.166   3.272  0.1907  1.4778  0.6705
13318SOL    HW245792   4.673   3.230   3.304  0.4933  1.9982  0.9085
13319SOL     OW45793   9.167   1.685   5.243 -0.2127 -0.1163 -0.1496
13319SOL    HW145794   9.212   1.759   5.284 -1.1580  0.8775 -0.8241
13319SOL    HW245795   9.185   1.695   5.149  0.1931 -1.1306 -0.1884
13320SOL     OW45796   7.141   8.394   2.766 -0.5199  0.3186  0.2499
13320SOL    HW145797   7.064   8.434   2.725  0.1543 -0.2144 -1.6443
13320SOL    HW245798   7.161   8.319   2.710  0.9904  0.0545  1.0925
13321SOL     OW45799   2.870   5.836   2.883 -0.3766 -0.1437  0.1005
13321SOL    HW145800   2.778   5.850   2.860 -0.9698  2.2645  3.2190
13321SOL    HW245801   2.918   5.896   2.826 -1.0187  0.5069  0.2299
13322SOL     OW45802   7.019   5.443   1.087 -1.0369 -0.0862 -0.1216
13322SOL    HW145803   6.953   5.396   1.036 -0.1747 -1.1849 -0.2573
13322SOL    HW245804   6.971   5.515   1.127 -2.0190 -0.0182 -1.3668
13323SOL     OW45805   0.824   1.688   6.542 -0.3642 -0.0182  0.0336
13323SOL    HW145806   0.841   1.718   6.631  2.4785 -3.2477  0.7740
13323SOL    HW245807   0.900   1.719   6.492 -0.2413 -1.0554 -0.4468
13324SOL     OW45808   5.512  10.651   1.971 -0.1171  0.4206  0.3184
13324SOL    HW145809   5.478  10.569   2.007  0.6387 -0.0987 -0.1381
13324SOL    HW245810   5.572  10.684   2.038  2.0252 -1.0266 -0.7769
13325SOL     OW45811  10.017  12.014   5.374 -0.2144 -0.1126  0.3304
13325SOL    HW145812  10.016  11.974   5.287 -0.5347 -0.4463  0.4829
13325SOL    HW245813  10.034  12.106   5.358 -1.1771 -0.0007 -0.1644
13326SOL     OW45814   8.808   0.268   3.046 -0.0759  0.1603  0.2594
13326SOL    HW145815   8.866   0.291   3.118  0.2863  1.8885 -0.5270
13326SOL    HW245816   8.827   0.333   2.978 -1.2177 -0.7112 -0.9575
13327SOL     OW45817   7.414  10.870   4.934  0.2184  0.1710  0.8251
13327SOL    HW145818   7.444  10.957   4.958 -1.6422  0.8212  0.9117
13327SOL    HW245819   7.324  10.865   4.966 -0.2286 -1.2195 -0.4966
13328SOL     OW45820   5.512   1.018   3.811 -0.1127 -0.1683 -0.3289
13328SOL    HW145821   5.572   0.965   3.863  0.0271 -0.2724 -0.5955
13328SOL    HW245822   5.505   0.971   3.728  0.2066  0.3689 -0.6567
13329SOL     OW45823   0.302   4.944   2.156 -0.5021 -0.9519  0.0050
13329SOL    HW145824   0.373   4.887   2.127  0.7485  0.7876 -0.4913
13329SOL    HW245825   0.283   4.999   2.080 -1.5075 -0.5235  0.5472
13330SOL     OW45826   8.742   2.900   7.411  0.3929 -0.0229  0.0920
13330SOL    HW145827   8.674   2.870   7.471  2.5481 -1.0279  2.2663
13330SOL    HW245828   8.793   2.963   7.464  1.2017  0.6255 -1.4068
13331SOL     OW45829   1.282   3.494   9.280  0.7874  0.3602 -0.1208
13331SOL    HW145830   1.326   3.463   9.201 -0.3046 -0.4303 -0.4516
13331SOL    HW245831   1.193   3.514   9.250  0.4979  0.4986  0.8202
13332SOL     OW45832   3.163  10.008  12.303 -0.9246  0.4825  0.1029
13332SOL    HW145833   3.153  10.069  12.230 -1.3342 -1.5819 -1.6278
13332SOL    HW245834   3.254  10.019  12.331 -0.3607  0.3496 -1.6099
13333SOL     OW45835   1.361  12.246   0.632 -0.3494 -0.0675 -0.2377
13333SOL    HW145836   1.320  12.161   0.618  1.9200 -1.3671  0.6029
13333SOL    HW245837   1.320  12.280   0.712 -0.3662 -0.9577  0.1425
13334SOL     OW45838   2.323   3.817   7.351 -0.0408 -0.3903 -0.0990
13334SOL    HW145839   2.298   3.801   7.260  0.2337  0.5631 -0.3513
13334SOL    HW245840   2.285   3.744   7.400 -0.7044 -0.5878 -0.8939
13335SOL     OW45841   6.518  11.639   4.870 -0.4452  0.1883  0.2459
13335SOL    HW145842   6.470  11.563   4.836 -0.1183 -0.0413  0.2955
13335SOL    HW245843   6.555  11.680   4.792  0.4458 -0.4355  0.3288
13336SOL     OW45844   7.538   9.166   8.566  0.2586 -0.0669  0.0874
13336SOL    HW145845   7.573   9.253   8.548 -0.5862  0.0382 -1.1685
13336SOL    HW245846   7.579   9.109   8.502  1.2918 -0.7375  1.3136
13337SOL     OW45847   2.392   8.079  11.339 -0.0911  0.0155 -0.1490
13337SOL    HW145848   2.318   8.139  11.330 -0.1269 -0.0785 -0.4677
13337SOL    HW245849   2.452   8.104  11.270  0.5907  0.6860  0.6650
13338SOL     OW45850   0.327   0.298   2.226 -0.1229  0.0254  0.5063
13338SOL    HW145851   0.282   0.235   2.283  0.3991 -0.4063  0.4598
13338SOL    HW245852   0.372   0.243   2.161 -0.8582  0.5238 -0.4361
13339SOL     OW45853   4.039   0.207   0.039  0.1644 -0.1689  0.3404
13339SOL    HW145854   4.006   0.117   0.032  0.4103 -0.4071  1.8333
13339SOL    HW245855   4.012   0.249  -0.043 -0.5496 -1.4047 -0.0899
13340SOL     OW45856   3.863   4.857   5.238 -0.7443 -0.2077 -0.7911
13340SOL    HW145857   3.949   4.859   5.196  0.2381 -1.7297  0.9809
13340SOL    HW245858   3.808   4.808   5.176 -0.0174 -0.2370 -1.4307
13341SOL     OW45859   0.722   7.773   1.489 -0.0884 -0.3221 -0.4246
13341SOL    HW145860   0.662   7.701   1.473 -0.4424 -0.4387  1.2086
13341SOL    HW245861   0.738   7.770   1.584  0.6509  1.1439 -0.4717
13342SOL     OW45862   2.607   2.288  12.017  0.2823 -0.0005  0.1748
13342SOL    HW145863   2.622   2.271  11.924 -1.2630  0.1534 -0.1301
13342SOL    HW245864   2.518   2.322  12.021  0.6110  0.7628  1.6324
13343SOL     OW45865   1.558   0.511   8.251 -0.2133  0.4734  0.2842
13343SOL    HW145866   1.550   0.430   8.301 -0.8002  0.4532  0.1633
13343SOL    HW245867   1.624   0.562   8.298 -1.2513  0.7554  1.4794
13344SOL     OW45868   1.817   6.942  10.027  0.1463 -0.3572  0.2163
13344SOL    HW145869   1.764   6.968  10.102 -0.7256 -0.8753 -0.1970
13344SOL    HW245870   1.894   6.900  10.065  0.4198  0.6698  0.8359
13345SOL     OW45871  10.398   3.075   6.907  0.0307  0.3321 -0.5463
13345SOL    HW145872  10.327   3.101   6.966 -0.6771 -0.3092 -1.0941
13345SOL    HW245873  10.393   2.979   6.904 -0.3070  0.3587 -2.0415
13346SOL     OW45874   2.920   7.162   2.683 -0.2512 -0.1877 -0.2940
13346SOL    HW145875   2.970   7.225   2.735  0.7762 -0.9519 -0.3281
13346SOL    HW245876   2.957   7.169   2.595 -0.6994 -0.2543 -0.4923
13347SOL     OW45877   5.831   0.172  10.422  0.6085  0.6297 -0.1894
13347SOL    HW145878   5.880   0.136  10.348 -2.0708 -1.8602 -0.9241
13347SOL    HW245879   5.850   0.113  10.494 -2.9582 -2.0334 -1.1244
13348SOL     OW45880   8.912  12.052   1.475  0.2929  0.1208 -0.2050
13348SOL    HW145881   8.966  12.103   1.536 -0.5339  0.9596 -0.1471
13348SOL    HW245882   8.930  12.091   1.390  3.5371 -2.7665 -1.0445
13349SOL     OW45883   7.899   8.584   5.770  0.0057 -0.5255 -0.0875
13349SOL    HW145884   7.948   8.584   5.688  0.6351  0.3508  0.2667
13349SOL    HW245885   7.807   8.579   5.743  0.1414  0.8201 -0.9084
13350SOL     OW45886   1.997   3.287   7.845  0.3450 -0.2508  0.6145
13350SOL    HW145887   2.087   3.299   7.876  0.2398 -1.4758  1.4441
13350SOL    HW245888   1.942   3.317   7.917  0.0582  1.1220 -0.1396
13351SOL     OW45889   0.993   0.387   3.015  0.3761 -0.1277  0.1700
13351SOL    HW145890   0.980   0.304   3.062  1.2514 -1.8257 -2.3602
13351SOL    HW245891   1.084   0.410   3.031  0.9891 -1.2846 -1.4529
13352SOL     OW45892   2.698   4.324   5.364 -0.2090 -0.2068  0.0927
13352SOL    HW145893   2.740   4.244   5.331  0.8943  0.3271  0.1806
13352SOL    HW245894   2.745   4.345   5.444 -0.2246  0.7522 -0.1391
13353SOL     OW45895   0.843  10.661   2.743  0.0985 -0.1077  0.1027
13353SOL    HW145896   0.880  10.574   2.727  0.7237 -0.0217  0.9963
13353SOL    HW245897   0.750  10.651   2.726  0.3375 -0.6515 -0.9553
13354SOL     OW45898  11.647   6.179   1.069 -0.1806 -0.2748 -0.4772
13354SOL    HW145899  11.570   6.180   1.126 -0.6657  0.2709 -1.1206
13354SOL    HW245900  11.625   6.241   0.999  0.9389  0.0448 -0.5523
13355SOL     OW45901   7.138   1.148   4.991  0.3730  0.2042  0.3197
13355SOL    HW145902   7.168   1.095   5.065  2.0370 -0.5422 -0.8096
13355SOL    HW245903   7.212   1.206   4.972  0.0685  0.2221 -0.8883
13356SOL     OW45904   8.826   1.114   5.451  0.4228  0.7107 -0.1846
13356SOL    HW145905   8.787   1.107   5.538 -0.4984  1.7097 -0.4964
13356SOL    HW245906   8.906   1.062   5.457 -0.3342 -0.4080  0.8331
13357SOL     OW45907   5.683   5.651   4.263 -0.9226 -0.7192  0.4134
13357SOL    HW145908   5.769   5.609   4.269 -0.7561 -0.3682  0.5196
13357SOL    HW245909   5.672   5.695   4.347 -0.3429  0.8621 -0.3012
13358SOL     OW45910   9.635  11.331   1.968  0.0725 -0.5307 -0.0103
13358SOL    HW145911   9.622  11.260   2.031  0.1323  0.6598  1.4296
13358SOL    HW245912   9.549  11.375   1.964  0.0869 -0.5563 -0.7361
13359SOL     OW45913   9.682  12.196   2.470  0.2098 -0.0224 -0.1042
13359SOL    HW145914   9.627  12.272   2.451 -0.2865 -0.6981 -1.5670
13359SOL    HW245915   9.763  12.234   2.504 -1.4805  0.9483  3.2123
13360SOL     OW45916  10.563  10.525  10.690  0.1468 -0.0452  1.0067
13360SOL    HW145917  10.645  10.571  10.677  2.0694 -3.3171  0.5955
13360SOL    HW245918  10.583  10.458  10.755 -1.9423 -1.5044  0.2564
13361SOL     OW45919   0.801   8.190   1.421  0.8455 -0.5519  0.4774
13361SOL    HW145920   0.782   8.230   1.336  1.5134 -0.7414  0.2306
13361SOL    HW245921   0.834   8.262   1.475  1.8961 -0.7116  0.0822
13362SOL     OW45922   2.754   0.689   7.290  0.2939 -0.3413 -0.2222
13362SOL    HW145923   2.731   0.599   7.266 -1.4782 -0.0008  0.0165
13362SOL    HW245924   2.807   0.680   7.369  0.2159 -1.1906 -0.2549
13363SOL     OW45925  10.608  10.570   5.450  0.3656 -0.1661  0.4762
13363SOL    HW145926  10.629  10.580   5.542  0.4084 -0.3397  0.4864
13363SOL    HW245927  10.520  10.531   5.450  0.8387 -1.2843  0.4661
13364SOL     OW45928   4.565   1.425   4.027  0.4200 -0.2689  0.5775
13364SOL    HW145929   4.495   1.451   3.966 -0.1716 -1.3812  0.7530
13364SOL    HW245930   4.639   1.480   4.003 -0.1645  0.1359 -0.3770
13365SOL     OW45931   9.940   9.410   9.791 -0.2893  0.4922 -0.3611
13365SOL    HW145932   9.887   9.489   9.775 -0.3177  0.3977 -0.7416
13365SOL    HW245933   9.992   9.399   9.711  1.3082  1.3431  0.5171
13366SOL     OW45934  11.196   9.787   4.263 -0.4025  0.4364 -1.5969
13366SOL    HW145935  11.202   9.808   4.356  0.6187 -1.4461 -1.1927
13366SOL    HW245936  11.269   9.834   4.223  0.7894 -0.8516 -0.9929
13367SOL     OW45937   5.561   0.492   7.972  0.4761 -0.4047  0.0484
13367SOL    HW145938   5.631   0.455   7.919  0.6510 -0.0395  0.0202
13367SOL    HW245939   5.518   0.556   7.914  0.5933 -0.0910  0.3072
13368SOL     OW45940   0.033   2.650   9.023 -0.0453  0.5376  0.1136
13368SOL    HW145941   0.100   2.605   8.971  1.9175  1.2318  1.8650
13368SOL    HW245942   0.081   2.681   9.100 -2.6071  0.2889  1.9249
13369SOL     OW45943   7.996   5.385   0.299 -0.1788 -0.1872 -0.1965
13369SOL    HW145944   7.982   5.297   0.334 -0.2364 -0.2577 -0.3908
13369SOL    HW245945   8.090   5.391   0.285 -0.0391  0.1767  0.8285
13370SOL     OW45946   1.805   8.474   2.470 -0.2191  1.0173  0.3324
13370SOL    HW145947   1.855   8.395   2.449 -0.3620  0.9907  0.0791
13370SOL    HW245948   1.714   8.445   2.474 -0.0631  0.7112  2.5808
13371SOL     OW45949   7.981  10.926   8.882  0.4269  0.0804  0.2964
13371SOL    HW145950   8.056  10.871   8.858  0.5821  0.0421  0.8539
13371SOL    HW245951   7.931  10.936   8.801  1.3294  0.5634 -0.2115
13372SOL     OW45952   7.665   4.774   3.583 -0.0912  0.2144 -0.0658
13372SOL    HW145953   7.668   4.700   3.522 -1.1257  0.1706 -0.0803
13372SOL    HW245954   7.749   4.771   3.628 -0.4880 -1.5818  0.6357
13373SOL     OW45955   2.851   6.700  11.324 -0.2769 -0.2447 -0.1319
13373SOL    HW145956   2.890   6.616  11.347  0.4286  0.6048  1.9753
13373SOL    HW245957   2.883   6.718  11.236 -0.0335 -1.9273 -0.4160
13374SOL     OW45958   2.657   3.498  12.282 -0.0910 -0.2092  0.2003
13374SOL    HW145959   2.677   3.511  12.375  0.1013  2.4992 -0.1488
13374SOL    HW245960   2.599   3.422  12.281 -1.3242  0.5810  2.7176
13375SOL     OW45961   9.351  10.946   5.606 -0.2091 -0.2214 -0.2587
13375SOL    HW145962   9.436  10.978   5.573  0.0610 -0.2214  0.4218
13375SOL    HW245963   9.308  10.909   5.529  0.2163  0.1920 -0.7076
13376SOL     OW45964   6.353   0.767   9.382  0.2508 -0.4485 -0.2249
13376SOL    HW145965   6.343   0.674   9.404  1.9136 -0.4879  0.4420
13376SOL    HW245966   6.273   0.807   9.415  0.4036 -1.3379  1.3216
13377SOL     OW45967   2.478   3.058  10.596 -0.2417 -0.0434 -0.5287
13377SOL    HW145968   2.495   3.008  10.517 -1.7485 -0.8687 -0.3664
13377SOL    HW245969   2.504   3.000  10.668 -0.1348  0.1768 -0.3885
13378SOL     OW45970   8.825   4.626  11.143  0.1445  0.3156  0.6546
13378SOL    HW145971   8.918   4.635  11.123  0.4749 -0.6024  1.6912
13378SOL    HW245972   8.817   4.540  11.184 -1.5058 -0.5153 -1.2325
13379SOL     OW45973  10.741   0.655   7.135 -0.6891  0.6689 -0.0579
13379SOL    HW145974  10.774   0.622   7.051 -0.0491 -0.1328  0.4951
13379SOL    HW245975  10.655   0.614   7.145 -0.3496  0.0031  0.1310
13380SOL     OW45976  11.125   3.834   7.686 -0.3167  0.3031  0.1842
13380SOL    HW145977  11.167   3.809   7.768 -0.6357  0.7805  0.4969
13380SOL    HW245978  11.065   3.904   7.710 -0.8946 -0.0027 -0.3537
13381SOL     OW45979   3.082   3.729   6.055  0.0311  0.2996  0.0325
13381SOL    HW145980   3.148   3.663   6.034 -0.8544 -1.1202  1.4691
13381SOL    HW245981   3.046   3.701   6.139 -2.7122  0.7499 -0.8717
13382SOL     OW45982   7.955  11.332   2.629  0.0480 -0.3337 -0.3129
13382SOL    HW145983   7.927  11.380   2.551 -1.8654 -1.0016 -0.0863
13382SOL    HW245984   7.990  11.250   2.596 -0.4854 -0.4914 -0.4903
13383SOL     OW45985   0.144   4.716   4.946 -0.2974  0.0785  0.3567
13383SOL    HW145986   0.092   4.675   5.016 -0.9406  1.1768  0.5429
13383SOL    HW245987   0.168   4.643   4.889 -0.7754 -0.6713  1.0859
13384SOL     OW45988  12.055   0.836  10.410 -0.3247  0.3547 -0.1655
13384SOL    HW145989  12.148   0.855  10.423 -0.4574  1.7415 -1.0547
13384SOL    HW245990  12.019   0.828  10.499  0.1586  2.4348  0.2741
13385SOL     OW45991   9.656   9.539   0.676  0.5923 -0.3550 -0.6079
13385SOL    HW145992   9.637   9.483   0.751 -0.2575  0.4780 -0.1849
13385SOL    HW245993   9.571   9.575   0.650  1.0423  0.2982 -1.2194
13386SOL     OW45994   5.914   9.384   0.710 -0.4278  0.1615  0.4175
13386SOL    HW145995   5.855   9.431   0.651 -0.4932 -0.1343  0.2464
13386SOL    HW245996   5.865   9.379   0.793 -0.5394  0.1370  0.3506
13387SOL     OW45997   1.677   6.331   0.075 -0.1538 -0.4795 -0.1046
13387SOL    HW145998   1.632   6.309  -0.007 -2.3932  0.5088  0.7794
13387SOL    HW245999   1.690   6.247   0.118 -1.2741 -0.8147 -0.3684
13388SOL     OW46000  11.390   1.582   5.600 -0.0660 -0.2090  0.1640
13388SOL    HW146001  11.475   1.625   5.610 -0.5050  0.3059  2.0843
13388SOL    HW246002  11.326   1.653   5.610 -0.7478 -0.8224  0.1950
13389SOL     OW46003   9.632   9.674   7.160 -0.2291 -0.2799 -0.1645
13389SOL    HW146004   9.716   9.719   7.171  1.0588 -2.6213  0.1495
13389SOL    HW246005   9.567   9.740   7.182  1.5029  1.6496 -0.4938
13390SOL     OW46006   4.721   4.024   5.647  0.1297 -0.0959  0.1343
13390SOL    HW146007   4.718   3.929   5.657 -0.7270 -0.1022 -0.1199
13390SOL    HW246008   4.814   4.044   5.636  0.2997 -0.9256 -0.0106
13391SOL     OW46009   1.592   6.546   2.686 -0.0940 -0.1278  0.0770
13391SOL    HW146010   1.545   6.577   2.763  0.4017 -0.0368  0.3490
13391SOL    HW246011   1.586   6.451   2.690 -1.6450 -0.1032 -0.7754
13392SOL     OW46012   3.762   0.730   4.594  0.6770  0.1905  0.1754
13392SOL    HW146013   3.676   0.689   4.585  0.6072  0.3185  0.2510
13392SOL    HW246014   3.760   0.772   4.680 -0.0491  2.1777 -0.7435
13393SOL     OW46015  10.288   6.309   3.751 -0.0536  0.2231 -0.1005
13393SOL    HW146016  10.249   6.343   3.832 -1.7860 -0.6012 -0.5463
13393SOL    HW246017  10.260   6.217   3.748  1.1256 -0.1323 -0.9736
13394SOL     OW46018  10.586  10.273  11.957  0.2812  0.0441  0.1059
13394SOL    HW146019  10.678  10.249  11.968  0.3758  0.3525 -0.0145
13394SOL    HW246020  10.545  10.193  11.921 -0.2241 -1.2950  3.2923
13395SOL     OW46021   1.683   2.868   1.770  0.1214 -0.7469 -0.2569
13395SOL    HW146022   1.689   2.776   1.794  0.4798 -0.3791  1.1047
13395SOL    HW246023   1.601   2.874   1.720  0.1242 -1.8027 -0.4126
13396SOL     OW46024   2.625  10.928   5.260 -0.2441  0.2448 -0.6819
13396SOL    HW146025   2.642  10.839   5.229  1.4893  0.2249  0.1679
13396SOL    HW246026   2.558  10.917   5.328  0.9703 -0.6625  0.4348
13397SOL     OW46027  10.100   3.262   0.040  0.5095 -0.9383  0.1001
13397SOL    HW146028  10.150   3.304  -0.030 -0.2587  0.4778  0.3590
13397SOL    HW246029  10.131   3.302   0.120 -2.8869  2.2295  0.1180
13398SOL     OW46030   1.081  10.347   5.301 -0.0977  0.2019 -0.5428
13398SOL    HW146031   1.025  10.273   5.324  0.3273  0.4361  1.4000
13398SOL    HW246032   1.145  10.352   5.371  3.0673 -0.6258 -3.1107
13399SOL     OW46033   1.302   3.155   3.285 -0.1969  0.3996  0.3987
13399SOL    HW146034   1.294   3.077   3.229  2.3655 -0.0624  0.5290
13399SOL    HW246035   1.353   3.217   3.232 -0.3720  1.1524  1.0909
13400SOL     OW46036  11.059   3.880   8.352 -0.1638 -0.0151 -0.4161
13400SOL    HW146037  10.995   3.879   8.280  0.0656  1.1957 -0.6479
13400SOL    HW246038  11.038   3.801   8.403 -1.6217  0.1657 -0.6834
13401SOL     OW46039   7.279   3.263   1.902  0.1516  0.0835 -0.4689
13401SOL    HW146040   7.299   3.350   1.866  1.0318 -0.8312 -2.3530
13401SOL    HW246041   7.333   3.257   1.981  3.6891 -0.3462 -2.7002
13402SOL     OW46042   8.110   1.425   5.123  0.2461  0.4611 -0.6682
13402SOL    HW146043   8.090   1.515   5.146  0.1680  0.1876  0.4085
13402SOL    HW246044   8.201   1.413   5.150  0.2859  0.2477 -0.8944
13403SOL     OW46045  10.466   5.819   1.073  0.4422  0.1104 -0.5333
13403SOL    HW146046  10.415   5.890   1.033  2.2006  0.3101 -2.5993
13403SOL    HW246047  10.434   5.740   1.030 -0.2738 -0.1792  0.4826
13404SOL     OW46048   2.355   4.207   4.872  0.1130  0.0868  0.2613
13404SOL    HW146049   2.396   4.168   4.795  0.8268  1.3271 -0.0093
13404SOL    HW246050   2.427   4.222   4.934 -0.3585 -0.3072  0.9227
13405SOL     OW46051   1.542  10.513   3.427 -0.1636  0.2007 -0.0984
13405SOL    HW146052   1.462  10.464   3.414  0.4862 -0.4280 -1.9742
13405SOL    HW246053   1.526  10.565   3.507 -2.4074  0.1247 -0.4460
13406SOL     OW46054   2.124  10.078   7.853 -0.6015  0.1681  0.0872
13406SOL    HW146055   2.111  10.107   7.763  1.8808  1.1659 -0.0415
13406SOL    HW246056   2.061  10.129   7.904 -2.5633 -0.9426 -1.0751
13407SOL     OW46057   7.879  11.165  11.840  0.3979  0.0540  0.6148
13407SOL    HW146058   7.962  11.161  11.793 -0.3476  1.5719 -0.9582
13407SOL    HW246059   7.850  11.074  11.846  1.6541 -0.3958  0.2393
13408SOL     OW46060  10.469   2.161   8.878 -0.1591  0.1462 -0.1125
13408SOL    HW146061  10.479   2.255   8.863  0.3913  0.2385  0.7676
13408SOL    HW246062  10.513   2.145   8.961  0.9587 -1.1209 -0.8992
13409SOL     OW46063  12.092  12.067   1.029 -0.1076  0.0781  0.4049
13409SOL    HW146064  12.023  12.004   1.009  0.9671 -0.5120 -1.7576
13409SOL    HW246065  12.088  12.131   0.958 -0.0058  1.4562  1.5956
13410SOL     OW46066   6.544   5.033   2.324 -0.4505  0.2379  0.2595
13410SOL    HW146067   6.529   4.971   2.395  0.3710 -1.0889 -0.6784
13410SOL    HW246068   6.463   5.084   2.319 -1.2264 -0.8949  0.9323
13411SOL     OW46069   2.008   3.732   3.786  0.1095 -0.0777  0.5976
13411SOL    HW146070   2.069   3.659   3.790  0.1174 -0.3790 -2.6400
13411SOL    HW246071   1.921   3.691   3.788  0.0822 -0.0243  0.4905
13412SOL     OW46072  12.158   0.016   6.777  0.7272 -0.5768  0.3919
13412SOL    HW146073  12.181   0.054   6.862  2.2344 -1.8656  0.6165
13412SOL    HW246074  12.161  -0.079   6.792 -1.0938 -0.8223 -0.5924
13413SOL     OW46075   7.270   9.124   3.273 -1.0198  0.1855 -0.3797
13413SOL    HW146076   7.351   9.075   3.290 -1.6557 -0.4461  1.0208
13413SOL    HW246077   7.291   9.181   3.199  0.1773 -1.2004 -1.1630
13414SOL     OW46078  10.122   4.064   7.312  0.2035  0.5134  0.1554
13414SOL    HW146079  10.057   4.047   7.244 -1.3242  0.9858  1.4499
13414SOL    HW246080  10.076   4.116   7.378  1.5198 -0.2147  1.7363
13415SOL     OW46081   8.144  10.035  10.236  0.2529  0.0723 -0.0146
13415SOL    HW146082   8.238  10.028  10.255  0.2864  1.6310  0.5906
13415SOL    HW246083   8.122   9.954  10.190  1.4248 -1.2944  1.7141
13416SOL     OW46084  10.509   3.343  10.096  0.1251  0.3060 -0.7303
13416SOL    HW146085  10.474   3.339  10.185  0.1040  0.9772 -0.6987
13416SOL    HW246086  10.465   3.419  10.057  0.0975 -0.0121 -1.3283
13417SOL     OW46087   7.463   0.628  10.118  0.0126 -0.1318 -0.0318
13417SOL    HW146088   7.462   0.537  10.091  0.6976 -0.3757  0.7216
13417SOL    HW246089   7.541   0.665  10.077  0.5142 -0.2555  0.7870
13418SOL     OW46090   6.401  11.200   1.582 -0.3105 -0.3454 -0.7852
13418SOL    HW146091   6.422  11.294   1.588  2.1532 -0.8438 -0.3245
13418SOL    HW246092   6.349  11.192   1.503 -1.7011  1.5771 -0.1434
13419SOL     OW46093   0.531   0.271   7.781 -0.9690 -0.5442  0.0992
13419SOL    HW146094   0.593   0.231   7.841 -0.3513  0.0615 -0.1203
13419SOL    HW246095   0.448   0.274   7.830 -0.4431  0.0673  0.9790
13420SOL     OW46096   2.936  11.106   2.234 -0.1866  0.2385  0.2619
13420SOL    HW146097   2.908  11.084   2.323  3.4005 -1.0152  1.2630
13420SOL    HW246098   2.985  11.029   2.205 -0.1945  1.1169 -2.3297
13421SOL     OW46099  11.347   3.725   5.141  0.1359  0.4479 -0.0603
13421SOL    HW146100  11.334   3.655   5.206 -2.6138  0.1222 -0.7978
13421SOL    HW246101  11.283   3.792   5.165  1.4095  1.8796 -0.5099
13422SOL     OW46102   1.554  10.202  10.925 -0.0956 -0.1032  0.1387
13422SOL    HW146103   1.512  10.276  10.881 -0.2089  1.3166  2.4847
13422SOL    HW246104   1.632  10.239  10.965 -0.5499 -1.0224  2.0102
13423SOL     OW46105   1.574   0.685   5.220  0.2024 -1.0326 -0.2301
13423SOL    HW146106   1.573   0.773   5.181 -0.2288 -1.9124 -2.3587
13423SOL    HW246107   1.486   0.651   5.203 -0.4230 -1.0714  2.6694
13424SOL     OW46108   4.373   5.659  10.694  0.3717  0.2055  0.0414
13424SOL    HW146109   4.369   5.703  10.779 -0.7886 -0.0274  0.1151
13424SOL    HW246110   4.296   5.603  10.692  0.7908 -0.3544 -0.8636
13425SOL     OW46111   4.134   0.864   7.825  0.2604  0.5759  0.3805
13425SOL    HW146112   4.094   0.873   7.738 -0.4778  0.0594  0.6611
13425SOL    HW246113   4.065   0.888   7.886  0.9851  1.5900  0.8175
13426SOL     OW46114  11.682  11.302   0.820 -0.0590  0.2752 -0.2137
13426SOL    HW146115  11.720  11.216   0.806 -0.2733  0.0288  0.6416
13426SOL    HW246116  11.748  11.364   0.789 -0.5730 -0.2020 -2.4223
13427SOL     OW46117   3.102   8.630  10.750  0.4119  0.1647 -0.3792
13427SOL    HW146118   3.054   8.579  10.686  0.2349 -0.0542 -0.0779
13427SOL    HW246119   3.190   8.641  10.713  0.4682 -0.4052 -0.4206
13428SOL     OW46120  10.410   0.654   1.194 -0.5795 -0.2681  0.0309
13428SOL    HW146121  10.453   0.735   1.221  0.3117 -1.3246  1.9724
13428SOL    HW246122  10.327   0.654   1.243 -0.5272 -0.5830  0.1188
13429SOL     OW46123   9.935   7.365   3.690 -0.2873 -0.0277  0.9857
13429SOL    HW146124  10.028   7.378   3.707 -0.0549 -0.5990  0.1686
13429SOL    HW246125   9.892   7.396   3.770  0.4693  2.1863  0.6072
13430SOL     OW46126   7.912   6.499   0.200  0.1181  0.2477 -0.5658
13430SOL    HW146127   7.978   6.539   0.256 -1.7336  1.9152  0.5751
13430SOL    HW246128   7.864   6.440   0.257 -2.3827  2.6533  0.0252
13431SOL     OW46129   0.441   0.444  11.250 -0.2905  0.4554  0.0951
13431SOL    HW146130   0.360   0.412  11.290 -0.1116  0.3859  0.4026
13431SOL    HW246131   0.484   0.495  11.318  0.4869 -0.4642  0.3206
13432SOL     OW46132   4.482   3.471   2.193 -0.1763 -0.1098  0.2617
13432SOL    HW146133   4.516   3.561   2.193  1.3820 -0.6488  1.6203
13432SOL    HW246134   4.511   3.436   2.109 -0.4288  0.5096 -0.0978
13433SOL     OW46135  10.182   5.884   1.829  0.6828  0.5377 -0.2242
13433SOL    HW146136  10.181   5.965   1.880  1.3400 -1.3046  2.9317
13433SOL    HW246137  10.093   5.850   1.836  1.1391 -0.4670  1.0794
13434SOL     OW46138  10.898   0.014  10.009 -0.0874  0.3242 -0.2855
13434SOL    HW146139  10.980  -0.019   9.972 -0.5170  0.3500 -1.3038
13434SOL    HW246140  10.845  -0.065  10.023 -0.6938  0.4535 -1.6770
13435SOL     OW46141   0.569   7.208   9.551  0.2569 -0.5068  0.3252
13435SOL    HW146142   0.570   7.113   9.561  0.1934 -0.7673 -1.7821
13435SOL    HW246143   0.630   7.226   9.480  0.7334  1.1043  1.0942
13436SOL     OW46144  12.234   2.976   7.951 -0.1480 -0.3438 -0.0619
13436SOL    HW146145  12.255   2.888   7.982  1.2658 -0.4541 -1.2211
13436SOL    HW246146  12.316   3.024   7.956 -0.6385  0.5802 -0.5157
13437SOL     OW46147   6.399   2.505   6.934 -0.5226 -0.1744  0.5163
13437SOL    HW146148   6.319   2.506   6.882 -1.1010  0.9219  1.3769
13437SOL    HW246149   6.370   2.518   7.024  0.6592  1.1606  0.7558
13438SOL     OW46150   3.910  10.399   7.440  0.0456  0.6360 -0.1883
13438SOL    HW146151   3.828  10.362   7.407 -0.4110  1.6230 -0.1916
13438SOL    HW246152   3.937  10.339   7.509 -0.5037  0.1229 -0.4059
13439SOL     OW46153  11.019  12.308   2.100  0.0573  0.0989  0.6101
13439SOL    HW146154  11.096  12.361   2.077 -0.9859  1.2876 -0.2391
13439SOL    HW246155  11.031  12.227   2.050  1.4135 -0.3176  1.5307
13440SOL     OW46156   6.792   9.914   3.154 -0.3044  0.0663 -0.1097
13440SOL    HW146157   6.865   9.947   3.101 -0.5352  1.0655  0.1719
13440SOL    HW246158   6.828   9.837   3.199  0.8530  1.0326  0.6824
13441SOL     OW46159   4.695   5.891   9.212 -0.6273 -0.9003 -0.0483
13441SOL    HW146160   4.636   5.964   9.229  0.5285  0.1075 -0.2330
13441SOL    HW246161   4.673   5.826   9.278 -2.8775 -1.1632 -0.9579
13442SOL     OW46162   7.612  10.346   7.826 -0.1734  0.1138 -0.1240
13442SOL    HW146163   7.683  10.410   7.834 -0.6865  0.6643  0.0963
13442SOL    HW246164   7.598  10.338   7.731  0.0656  0.1343 -0.1616
13443SOL     OW46165   7.232   0.489   3.796  0.2844 -0.2152  0.4671
13443SOL    HW146166   7.263   0.450   3.878 -0.5322 -2.0594 -0.0505
13443SOL    HW246167   7.276   0.438   3.728 -0.5657 -0.0163 -0.2373
13444SOL     OW46168  10.083   1.820   9.956  0.1200 -0.0105  0.4098
13444SOL    HW146169  10.075   1.755   9.886  0.1900  0.0875  0.3100
13444SOL    HW246170  10.087   1.904   9.910  0.8757  0.0061  0.5012
13445SOL     OW46171  10.280  11.442  10.101  0.9353  0.0815 -0.1846
13445SOL    HW146172  10.189  11.414  10.109  1.2717 -1.3098 -0.9566
13445SOL    HW246173  10.275  11.534  10.075 -0.2309  0.2644  0.6199
13446SOL     OW46174  11.979   2.945   1.561  0.4483 -0.4743 -0.8765
13446SOL    HW146175  11.901   2.985   1.523  0.2241 -1.1845 -1.1830
13446SOL    HW246176  11.961   2.941   1.655  1.1289  1.5713 -0.6114
13447SOL     OW46177   5.348   5.314   1.495 -0.1339 -0.2604  1.3173
13447SOL    HW146178   5.321   5.338   1.584  1.7219  1.3710  1.5062
13447SOL    HW246179   5.433   5.273   1.505 -0.8077 -1.9624  0.4248
13448SOL     OW46180   3.247  11.703   3.118 -0.1800  0.1201 -0.4355
13448SOL    HW146181   3.326  11.651   3.127  0.0626  0.5564  0.0380
13448SOL    HW246182   3.213  11.709   3.207 -0.2595  0.6835 -0.5015
13449SOL     OW46183   0.565   5.559  11.319 -1.0020 -0.3223  0.2327
13449SOL    HW146184   0.486   5.570  11.267  0.7968 -0.1545 -2.7232
13449SOL    HW246185   0.585   5.647  11.351 -0.8967  0.0653 -0.8408
13450SOL     OW46186   7.012   6.186   1.319 -0.3523  0.2404 -0.6077
13450SOL    HW146187   7.001   6.233   1.402 -2.0189  0.3597 -0.8547
13450SOL    HW246188   7.003   6.094   1.342  2.2552  0.0031 -0.2276
13451SOL     OW46189   8.029  10.337  10.644  0.7613 -0.2403  0.2761
13451SOL    HW146190   8.083  10.278  10.591  1.0977 -1.0721  1.4950
13451SOL    HW246191   8.088  10.409  10.668  0.1896  0.9798 -1.7109
13452SOL     OW46192   9.382   2.173   9.845 -0.1099 -0.2783 -0.1758
13452SOL    HW146193   9.441   2.114   9.892  1.3292  1.1438 -0.0885
13452SOL    HW246194   9.320   2.202   9.912  1.1331  0.7196  0.6040
13453SOL     OW46195   8.640  11.088   6.172 -0.0521 -0.4358  0.3242
13453SOL    HW146196   8.601  11.046   6.095  0.2739  0.8155 -0.5598
13453SOL    HW246197   8.565  11.123   6.220 -0.2061 -0.4472  0.0980
13454SOL     OW46198   5.707  10.834  11.710 -0.4155 -0.5821 -0.0375
13454SOL    HW146199   5.710  10.747  11.751  0.2487 -1.7308 -2.3136
13454SOL    HW246200   5.616  10.844  11.682 -0.3780 -0.7807 -0.2320
13455SOL     OW46201   7.114   0.519   7.489 -0.4136 -0.4643  0.1498
13455SOL    HW146202   7.085   0.439   7.532 -2.2402  0.7375  1.3034
13455SOL    HW246203   7.166   0.565   7.556  1.3255 -1.0142 -0.7733
13456SOL     OW46204   1.665   7.334   3.279  0.5765 -0.5697 -0.1185
13456SOL    HW146205   1.643   7.268   3.213 -1.3079 -0.3196  0.2136
13456SOL    HW246206   1.593   7.330   3.342  1.3170  0.6035  0.8429
13457SOL     OW46207   7.861  10.478   5.737  0.0992 -0.9528 -0.1578
13457SOL    HW146208   7.881  10.517   5.651  1.9636 -1.4093  0.0298
13457SOL    HW246209   7.943  10.486   5.786 -0.9399 -0.7257  1.5849
13458SOL     OW46210   2.538   8.479   2.004  0.3902 -0.1053  0.5326
13458SOL    HW146211   2.475   8.448   2.070  0.9891  0.9563  1.6425
13458SOL    HW246212   2.519   8.572   1.995  0.0893 -0.2902 -1.0961
13459SOL     OW46213   4.564   5.262   5.797 -0.4246  0.4002  0.4474
13459SOL    HW146214   4.598   5.181   5.758  1.4394 -0.0103  2.7269
13459SOL    HW246215   4.469   5.253   5.791 -0.4746 -3.3832  3.0691
13460SOL     OW46216   2.303   7.087   1.247  0.0472 -0.3294  0.0026
13460SOL    HW146217   2.306   6.997   1.216 -1.1527  0.1392 -1.6170
13460SOL    HW246218   2.392   7.105   1.278  0.3758 -1.9503  0.0881
13461SOL     OW46219   3.138  10.217  12.106  0.2192  0.2888 -0.0257
13461SOL    HW146220   3.053  10.256  12.087 -0.3447 -0.4609  0.8842
13461SOL    HW246221   3.175  10.272  12.175  2.0174  2.6659 -2.6608
13462SOL     OW46222   4.061   2.834   4.886  0.6810  0.5231  0.2569
13462SOL    HW146223   3.968   2.811   4.893  0.6403  0.2967 -0.8773
13462SOL    HW246224   4.064   2.898   4.815  1.6532 -1.1839 -1.3408
13463SOL     OW46225   9.818   4.723   0.480 -0.0071  0.6603 -0.0683
13463SOL    HW146226   9.814   4.638   0.435 -0.8820 -0.3812  1.8283
13463SOL    HW246227   9.849   4.784   0.414 -0.8942 -0.8370 -1.9609
13464SOL     OW46228  12.094   9.200   9.990  0.1647 -0.6399 -0.0488
13464SOL    HW146229  12.174   9.251   9.976  0.1388 -0.5883 -0.0110
13464SOL    HW246230  12.030   9.264  10.020  0.2967 -0.7962  0.5812
13465SOL     OW46231   3.253   9.155   6.238 -0.3413  0.1778  0.0231
13465SOL    HW146232   3.247   9.086   6.305 -0.7140  0.6993  0.5395
13465SOL    HW246233   3.343   9.186   6.243 -0.0594 -0.5228 -0.4776
13466SOL     OW46234   7.745   4.815   0.108  0.8370 -0.1609  0.1909
13466SOL    HW146235   7.680   4.855   0.051  2.1618  3.5042  0.9733
13466SOL    HW246236   7.716   4.837   0.197  1.5162 -1.2046  0.6903
13467SOL     OW46237   9.970   2.751  11.682  0.2223 -0.3095  0.3866
13467SOL    HW146238  10.031   2.720  11.749  0.1637 -0.8303  0.2030
13467SOL    HW246239   9.924   2.672  11.653 -0.9214  0.1520  0.8990
13468SOL     OW46240   0.711  12.319   0.818 -0.0594  0.5611  0.4408
13468SOL    HW146241   0.670  12.401   0.845  1.2616  0.7241  2.1959
13468SOL    HW246242   0.749  12.284   0.899  0.6760 -1.0343 -0.5441
13469SOL     OW46243  10.183   9.845  10.289 -0.3836  0.0560 -0.2990
13469SOL    HW146244  10.107   9.787  10.288 -0.4997  0.2090 -0.9355
13469SOL    HW246245  10.176   9.895  10.208  0.0749  0.4925 -0.0756
13470SOL     OW46246   6.656   1.418  10.697 -0.5396  0.2219 -0.1659
13470SOL    HW146247   6.646   1.507  10.664 -0.7253  0.0093 -0.6995
13470SOL    HW246248   6.679   1.428  10.789  1.5336  0.8545 -0.7124
13471SOL     OW46249   9.361   2.524   7.660  0.2868 -0.3142  0.0599
13471SOL    HW146250   9.359   2.433   7.630 -0.4676  0.0264 -0.9792
13471SOL    HW246251   9.271   2.544   7.685  0.7997 -0.4272  2.1978
13472SOL     OW46252   3.173   1.350   3.172  0.5926 -0.2782  0.3552
13472SOL    HW146253   3.134   1.417   3.228  1.9090  0.6526  0.2041
13472SOL    HW246254   3.164   1.385   3.083  0.8621 -0.5161  0.2321
13473SOL     OW46255   6.867   8.022   9.240  0.4785  0.2246 -0.8376
13473SOL    HW146256   6.951   8.001   9.282  0.3525  0.3980 -0.4953
13473SOL    HW246257   6.844   7.942   9.192  0.1222 -0.3573  0.2662
13474SOL     OW46258   6.398   1.530   5.335  0.3701 -0.2217  0.0724
13474SOL    HW146259   6.312   1.539   5.374 -0.1902  0.1511 -1.1758
13474SOL    HW246260   6.407   1.607   5.278  1.4757 -0.3122  0.0888
13475SOL     OW46261   2.993   9.000   2.125  0.4213  0.1440 -0.0152
13475SOL    HW146262   2.972   8.914   2.162 -0.9074 -0.0474 -1.1190
13475SOL    HW246263   2.945   9.002   2.042  1.2224  1.5738 -0.4688
13476SOL     OW46264  10.493   1.252   3.615  0.1154  0.1402 -0.3779
13476SOL    HW146265  10.448   1.246   3.530 -0.7611  0.3827  0.0633
13476SOL    HW246266  10.423   1.247   3.680  0.5543  1.9822  0.2967
13477SOL     OW46267  10.826   8.226   3.443  0.0360  0.1341  0.1501
13477SOL    HW146268  10.791   8.274   3.368  1.0782 -1.9424 -1.7932
13477SOL    HW246269  10.871   8.293   3.495 -4.0173  2.3659  1.2087
13478SOL     OW46270   2.205   1.936   9.773 -0.5918  0.0065  0.3581
13478SOL    HW146271   2.294   1.970   9.762 -0.9579  0.8891  0.0097
13478SOL    HW246272   2.169   1.987   9.846 -0.3938 -1.2498  1.3804
13479SOL     OW46273   5.622   0.063   7.369 -0.4899 -0.0886 -0.0794
13479SOL    HW146274   5.557  -0.005   7.351  0.1437 -0.6364 -0.3418
13479SOL    HW246275   5.572   0.145   7.365 -1.3499 -0.5478  0.6644
13480SOL     OW46276   9.626   6.759   5.291 -0.1394  0.1108 -0.1010
13480SOL    HW146277   9.709   6.753   5.338 -0.5740  1.1313  0.8369
13480SOL    HW246278   9.614   6.673   5.252  0.8227 -0.3882  0.6631
13481SOL     OW46279   8.150   1.779   6.223 -0.1766 -0.2589 -0.5328
13481SOL    HW146280   8.101   1.739   6.151 -0.2732 -0.2334 -0.4812
13481SOL    HW246281   8.142   1.717   6.295 -1.3935  0.4137 -0.0450
13482SOL     OW46282  10.595   4.607   0.548 -0.6441  0.7850  0.5585
13482SOL    HW146283  10.664   4.563   0.597 -1.1560  0.3799  0.9371
13482SOL    HW246284  10.544   4.654   0.615  1.0047  3.6077  0.0023
13483SOL     OW46285   4.922   6.601   6.769 -0.3158 -0.4594  0.3808
13483SOL    HW146286   4.923   6.688   6.729  0.2519  0.0941  1.5505
13483SOL    HW246287   4.901   6.542   6.697 -1.2246  0.6905 -0.3380
13484SOL     OW46288  10.552   2.128   2.471  0.0570  0.4612 -0.0678
13484SOL    HW146289  10.531   2.189   2.400 -0.4051  0.0422 -0.2952
13484SOL    HW246290  10.535   2.041   2.434  1.3741  0.1405  0.0161
13485SOL     OW46291   2.807   7.076  10.338  0.3719 -0.2698 -0.4937
13485SOL    HW146292   2.736   7.114  10.286  1.0153 -0.3219 -1.4292
13485SOL    HW246293   2.763   7.036  10.413 -0.6592 -0.8776 -1.3981
13486SOL     OW46294   9.134   9.609   7.741  0.2729  0.3118 -0.0644
13486SOL    HW146295   9.065   9.588   7.805  0.6122  0.7221  0.4389
13486SOL    HW246296   9.175   9.524   7.723 -0.6267 -0.0084 -0.6876
13487SOL     OW46297   7.879   2.491   7.728 -0.1286  0.7888 -0.5434
13487SOL    HW146298   7.833   2.570   7.756 -0.6857  0.4500 -0.4765
13487SOL    HW246299   7.874   2.492   7.632 -1.2163  0.2226 -0.5112
13488SOL     OW46300   5.609   9.295  11.328 -0.3468 -0.5800 -0.1605
13488SOL    HW146301   5.680   9.338  11.376 -0.0175 -0.4454 -0.7493
13488SOL    HW246302   5.553   9.258  11.395 -0.4290  0.4461  0.3577
13489SOL     OW46303   7.404   9.397   9.171 -0.2677 -0.2249  0.3958
13489SOL    HW146304   7.329   9.442   9.211  0.5601  1.0164  0.6155
13489SOL    HW246305   7.386   9.401   9.077 -0.3652  0.3116  0.4291
13490SOL     OW46306   0.376   0.690   3.592 -0.5887  0.3422  0.4216
13490SOL    HW146307   0.384   0.640   3.511 -1.3748  0.2457  0.3959
13490SOL    HW246308   0.432   0.644   3.654  1.2631  1.2992 -0.4591
13491SOL     OW46309   5.600   4.292   1.133  0.4432 -0.6283 -0.5133
13491SOL    HW146310   5.604   4.351   1.058 -1.0233  2.3346  1.5280
13491SOL    HW246311   5.690   4.262   1.145  0.6628 -1.4906 -3.5597
13492SOL     OW46312   3.232   7.698   8.822  0.0421  0.2869  0.6381
13492SOL    HW146313   3.179   7.618   8.820  1.2264 -0.5295 -1.5506
13492SOL    HW246314   3.189   7.756   8.759  1.0606  0.0368 -0.3205
13493SOL     OW46315   2.372   4.503  11.247 -0.1157  0.2207 -0.0677
13493SOL    HW146316   2.339   4.539  11.164  0.3668  0.0167 -0.3495
13493SOL    HW246317   2.426   4.574  11.284  1.7557 -0.5748 -1.1620
13494SOL     OW46318   2.903   0.716   1.437  0.4106  0.7069 -0.7720
13494SOL    HW146319   2.934   0.627   1.418 -0.4252  0.1459  0.4044
13494SOL    HW246320   2.973   0.773   1.403  2.7741 -0.4937  1.6813
13495SOL     OW46321   1.612   9.356  11.327  0.1051  0.6888  0.4424
13495SOL    HW146322   1.706   9.339  11.331 -0.0409 -0.5299 -0.5615
13495SOL    HW246323   1.602   9.444  11.361  1.2806 -0.1917  3.3314
13496SOL     OW46324   3.596   6.811   1.874 -0.3494  0.4059 -0.1583
13496SOL    HW146325   3.535   6.743   1.848 -2.3771  1.6642  1.0267
13496SOL    HW246326   3.560   6.847   1.956  1.7514  1.5112  0.3747
13497SOL     OW46327   3.270   4.913   1.916  0.0635 -0.5012 -0.4094
13497SOL    HW146328   3.349   4.914   1.970  0.3690 -0.9379 -0.8337
13497SOL    HW246329   3.219   4.988   1.946 -0.1155 -1.1459  0.9613
13498SOL     OW46330  10.563   1.618   2.938 -0.4686 -0.5383  0.1880
13498SOL    HW146331  10.653   1.598   2.963 -0.1217  2.1566  1.4671
13498SOL    HW246332  10.554   1.582   2.850  2.0398 -0.3972 -0.1951
13499SOL     OW46333  11.203   4.233  11.376  0.2895  0.0785 -0.2517
13499SOL    HW146334  11.116   4.204  11.404  0.6855  0.2163  1.2225
13499SOL    HW246335  11.188   4.278  11.293 -0.7197 -1.8594 -1.1675
13500SOL     OW46336   8.262   3.377   4.844 -0.2953  0.0269  0.1710
13500SOL    HW146337   8.236   3.434   4.916 -1.8779 -0.4152 -0.0214
13500SOL    HW246338   8.320   3.431   4.790  1.9670 -0.0109  2.3786
13501SOL     OW46339   6.837   2.475   8.326 -0.1718  0.6520 -0.6771
13501SOL    HW146340   6.814   2.522   8.246 -0.6133  2.0383  0.2226
13501SOL    HW246341   6.878   2.541   8.381 -0.6559 -0.0673  0.5778
13502SOL     OW46342   8.108  12.188   0.535  0.0034  0.2621  0.3737
13502SOL    HW146343   8.193  12.169   0.574  1.3566  3.3249 -0.7714
13502SOL    HW246344   8.089  12.278   0.560 -2.4137  0.0397 -0.3441
13503SOL     OW46345   6.001   2.194  10.149  0.0514 -0.1015 -0.2799
13503SOL    HW146346   5.917   2.228  10.119 -0.6894 -0.1826  1.5330
13503SOL    HW246347   6.046   2.271  10.186  0.1769 -0.3039 -0.0074
13504SOL     OW46348   2.721   7.871   1.504 -0.0957  0.1932 -0.7095
13504SOL    HW146349   2.647   7.903   1.557 -0.8260 -1.0181 -0.9557
13504SOL    HW246350   2.680   7.828   1.429  0.7961 -1.6845 -0.1793
13505SOL     OW46351  10.604  12.010   7.482 -0.0250  0.0973  0.1255
13505SOL    HW146352  10.571  12.084   7.432  0.2175 -0.4557 -0.8810
13505SOL    HW246353  10.676  11.976   7.429 -0.4895 -1.1911  0.2934
13506SOL     OW46354   2.684   9.720   9.560  0.4255 -0.4075  0.2304
13506SOL    HW146355   2.711   9.798   9.511  1.0687 -0.6166  0.2453
13506SOL    HW246356   2.721   9.647   9.511  0.2979 -0.6760  0.5282
13507SOL     OW46357   5.035  11.010   4.644 -0.3190  0.7570  0.4491
13507SOL    HW146358   5.045  11.099   4.611 -0.3238 -0.4161 -3.0879
13507SOL    HW246359   4.946  10.985   4.619 -0.5865 -0.0439  2.0458
13508SOL     OW46360   4.555   3.081   1.399  0.1851 -0.0758 -0.3936
13508SOL    HW146361   4.543   2.998   1.353 -0.1793  0.5077 -1.3820
13508SOL    HW246362   4.596   3.057   1.483  1.6581 -1.0958 -1.3560
13509SOL     OW46363   4.282   5.570   7.621  0.3519  0.1852 -0.7471
13509SOL    HW146364   4.335   5.502   7.663  0.3707  1.8955  2.2698
13509SOL    HW246365   4.198   5.527   7.603  0.3718 -0.7307  1.0714
13510SOL     OW46366   1.894   7.165   1.410  0.0903 -0.3695  0.2062
13510SOL    HW146367   1.977   7.212   1.412 -0.4741  0.6760 -0.1380
13510SOL    HW246368   1.902   7.100   1.480  0.1418  1.6083  2.1654
13511SOL     OW46369  11.328   6.961   1.683  0.0108 -0.1504 -0.4343
13511SOL    HW146370  11.289   6.926   1.603  0.3615  0.2985 -0.8103
13511SOL    HW246371  11.266   6.938   1.752 -0.2152 -0.6884 -0.8105
13512SOL     OW46372   2.817   6.027   8.467  0.2828  0.7335 -0.5620
13512SOL    HW146373   2.863   5.944   8.482 -1.8940 -0.4420  0.1551
13512SOL    HW246374   2.856   6.062   8.388 -0.0087 -1.9789 -2.0396
13513SOL     OW46375   0.077   7.903   6.365  0.1847  0.4079 -0.3431
13513SOL    HW146376   0.056   7.918   6.457  1.0076 -0.2047 -0.0447
13513SOL    HW246377  -0.003   7.867   6.328 -0.4433  1.4972 -0.0869
13514SOL     OW46378  12.138   2.826   5.199  0.4106  0.3124  0.2382
13514SOL    HW146379  12.143   2.746   5.251 -1.8156 -1.0049 -1.3668
13514SOL    HW246380  12.057   2.868   5.227 -0.1994  0.1948 -1.2114
13515SOL     OW46381   2.023  12.228   0.005  0.5282  0.8803  0.1472
13515SOL    HW146382   1.973  12.266  -0.067  1.7702  0.6146 -0.9105
13515SOL    HW246383   1.998  12.279   0.082 -0.9565  1.0663 -0.4276
13516SOL     OW46384  10.000   3.660   1.602  0.4419  0.3642 -0.1290
13516SOL    HW146385  10.033   3.600   1.669  0.3209 -0.1426 -0.5170
13516SOL    HW246386  10.055   3.738   1.611  0.4577  0.2814  0.5259
13517SOL     OW46387   8.365   8.380   6.876  0.7996  0.2914  0.7548
13517SOL    HW146388   8.371   8.471   6.905  2.2579 -0.1478  1.9826
13517SOL    HW246389   8.325   8.334   6.950 -1.2973  0.1141 -0.4034
13518SOL     OW46390   8.367   2.171   4.348 -0.1388  0.4277 -0.1465
13518SOL    HW146391   8.316   2.126   4.280 -0.6909  0.7945  0.0197
13518SOL    HW246392   8.400   2.101   4.403  0.4608  0.1130 -0.8933
13519SOL     OW46393   3.546  12.159   5.720 -0.7947  0.4728 -0.6115
13519SOL    HW146394   3.642  12.153   5.720 -0.7675  0.5059 -2.0037
13519SOL    HW246395   3.521  12.137   5.810  0.5103  0.4261 -0.2282
13520SOL     OW46396   0.213  10.016  11.989 -0.1367  0.3563 -0.2216
13520SOL    HW146397   0.264  10.053  11.917  0.0901  0.3774 -0.0511
13520SOL    HW246398   0.245   9.927  11.998 -0.0005  0.4283  0.0067
13521SOL     OW46399   5.318   3.202   9.799 -0.4601  0.3723  0.0983
13521SOL    HW146400   5.307   3.174   9.890 -3.0532  0.0832 -0.2100
13521SOL    HW246401   5.241   3.257   9.782  0.1546  0.7133 -1.8248
13522SOL     OW46402   2.667  11.680   8.061 -0.0933  0.2726 -0.2061
13522SOL    HW146403   2.596  11.741   8.042  0.9242  1.4659 -0.3409
13522SOL    HW246404   2.708  11.664   7.976  0.2444  0.1828 -0.0280
13523SOL     OW46405   4.673  11.760   2.701 -0.0515  0.0814  0.5696
13523SOL    HW146406   4.723  11.745   2.621  1.0921 -2.4677  1.6461
13523SOL    HW246407   4.599  11.698   2.695 -0.5822  0.6590  0.9833
13524SOL     OW46408  11.048   9.186   3.817  0.5504  0.2457 -0.3582
13524SOL    HW146409  11.136   9.199   3.852  0.4154 -0.1773  0.1434
13524SOL    HW246410  11.062   9.169   3.724  1.0693 -0.6986 -0.1210
13525SOL     OW46411   6.207   1.245   3.274 -0.0001  0.4135  0.2746
13525SOL    HW146412   6.115   1.238   3.249 -0.5871  1.3960  1.9741
13525SOL    HW246413   6.224   1.169   3.329 -0.1671  0.8521  0.9505
13526SOL     OW46414   0.655   2.264   2.227  0.4462 -0.7766  0.5039
13526SOL    HW146415   0.617   2.177   2.230 -1.4892  0.0109  0.5242
13526SOL    HW246416   0.621   2.303   2.146 -0.3454  0.5964  1.4402
13527SOL     OW46417  12.116   3.138  11.721  0.5879  0.1342 -0.2350
13527SOL    HW146418  12.170   3.210  11.752  1.5817 -0.6132 -0.1617
13527SOL    HW246419  12.179   3.070  11.696 -0.3057 -1.5344  1.7444
13528SOL     OW46420  10.713  10.191   1.425  0.0939  0.3844  0.3060
13528SOL    HW146421  10.645  10.193   1.357 -0.8837 -1.4328  1.1583
13528SOL    HW246422  10.718  10.099   1.451  1.4436  0.8200  1.7137
13529SOL     OW46423   4.132  10.299   7.761 -0.2285 -0.1306 -0.0544
13529SOL    HW146424   4.135  10.232   7.694 -1.5610  1.0202 -1.3456
13529SOL    HW246425   4.143  10.252   7.843  3.6867 -1.3709 -1.0802
13530SOL     OW46426   1.892  10.367   8.491 -0.2931  0.2859  0.2028
13530SOL    HW146427   1.844  10.443   8.524 -0.0495  0.6905 -0.3582
13530SOL    HW246428   1.983  10.386   8.510 -0.4225 -1.2074  2.7216
13531SOL     OW46429  12.175   4.385  10.149  0.0691 -0.5709 -0.2415
13531SOL    HW146430  12.171   4.375  10.244  1.7986 -1.0132 -0.1830
13531SOL    HW246431  12.159   4.298  10.114  1.0572 -0.7635 -0.2626
13532SOL     OW46432   2.565   2.978  11.032  0.4348 -0.0982 -0.0849
13532SOL    HW146433   2.479   2.999  11.070  0.2901  0.9157 -0.9176
13532SOL    HW246434   2.591   3.059  10.988  2.6860  0.2492  1.7163
13533SOL     OW46435   6.511  10.158  11.381 -0.4519 -0.1508 -0.0392
13533SOL    HW146436   6.543  10.232  11.329  0.8852  0.0708  1.0428
13533SOL    HW246437   6.524  10.082  11.324  1.7649 -0.0249  0.1965
13534SOL     OW46438  10.573   1.524  10.015 -0.2877  0.0804 -0.1551
13534SOL    HW146439  10.663   1.518  10.047 -0.9716  1.0258  2.1344
13534SOL    HW246440  10.522   1.471  10.076 -1.2720 -0.8617 -1.7146
13535SOL     OW46441   7.310   0.884   4.263  0.0413  0.2449 -0.2785
13535SOL    HW146442   7.309   0.818   4.333  0.1990 -0.8852 -1.2897
13535SOL    HW246443   7.226   0.872   4.217  1.0434 -0.9733 -1.9412
13536SOL     OW46444   0.546   5.728   5.199 -0.3063 -0.2805 -0.4548
13536SOL    HW146445   0.605   5.659   5.230 -2.4338 -2.2597 -0.5805
13536SOL    HW246446   0.601   5.784   5.144  1.3451 -2.2951 -0.9393
13537SOL     OW46447   4.759   2.196   5.233  0.1961 -0.7555  0.3156
13537SOL    HW146448   4.776   2.290   5.237 -1.0651 -0.4568 -0.6544
13537SOL    HW246449   4.738   2.172   5.324 -1.0935  0.2594  0.3326
13538SOL     OW46450   7.768   6.609  11.465 -0.2023 -0.4209 -0.4157
13538SOL    HW146451   7.768   6.699  11.430  0.8694 -0.1966  0.1297
13538SOL    HW246452   7.808   6.617  11.552  1.7251 -1.6874 -1.1173
13539SOL     OW46453   1.844   6.308   7.054  0.0911  0.0919 -0.0748
13539SOL    HW146454   1.898   6.282   7.128  0.4658  0.5479 -0.1848
13539SOL    HW246455   1.801   6.389   7.083 -0.2878 -0.0959 -0.1058
13540SOL     OW46456  10.395   1.914   5.271 -0.0137  0.0734  0.0544
13540SOL    HW146457  10.308   1.910   5.312 -0.0736 -0.5342 -0.1216
13540SOL    HW246458  10.377   1.919   5.178  0.1414 -1.0955 -0.0511
13541SOL     OW46459   6.861  12.111   1.057 -0.3305  0.1934 -0.5090
13541SOL    HW146460   6.807  12.168   1.003 -1.2564 -0.1642  0.0345
13541SOL    HW246461   6.938  12.093   1.002 -1.6083 -0.8282 -2.0539
13542SOL     OW46462   0.414  10.942   6.440 -0.3152  0.0352 -0.6306
13542SOL    HW146463   0.382  10.977   6.357 -2.8094 -0.4269  0.0473
13542SOL    HW246464   0.342  10.956   6.501  0.2291 -2.4277  0.6899
13543SOL     OW46465  11.594   8.138   1.508  0.0084 -0.3777 -0.3518
13543SOL    HW146466  11.673   8.085   1.517 -0.0792 -0.7642 -1.6666
13543SOL    HW246467  11.597   8.172   1.419  0.3034  2.2790  0.5650
13544SOL     OW46468   7.960   9.902   9.708 -0.4622  0.1137 -0.1400
13544SOL    HW146469   7.930   9.858   9.788 -0.2049  0.2534  0.0332
13544SOL    HW246470   8.055   9.912   9.719 -0.6465  1.6724  0.3036
13545SOL     OW46471  11.176   3.995   6.482  0.0674  0.0925  0.2959
13545SOL    HW146472  11.119   4.023   6.411 -0.0990  1.9839  1.1142
13545SOL    HW246473  11.116   3.971   6.553  0.2403 -1.3924 -0.0335
13546SOL     OW46474   4.158   3.411   0.637 -0.3393  0.0003  0.0520
13546SOL    HW146475   4.119   3.401   0.550  0.8463 -1.0066 -0.3985
13546SOL    HW246476   4.228   3.476   0.625  1.6760 -2.1214 -0.4665
13547SOL     OW46477   0.841  10.762   4.822 -0.0411 -0.0223 -0.1911
13547SOL    HW146478   0.793  10.687   4.785  0.0057 -0.8982  1.4578
13547SOL    HW246479   0.896  10.724   4.890  0.0545  1.5226  0.6211
13548SOL     OW46480   8.261   4.031   8.576  0.0635 -0.1591  0.1271
13548SOL    HW146481   8.305   3.966   8.522  0.2090 -0.1907  0.2839
13548SOL    HW246482   8.279   4.004   8.666 -1.9894 -1.3924  0.2449
13549SOL     OW46483   2.104   5.839   4.591  0.1056 -0.3501  0.2529
13549SOL    HW146484   2.069   5.767   4.642 -1.6168 -0.2705 -0.7582
13549SOL    HW246485   2.138   5.798   4.511  0.8519 -0.2418  0.5093
13550SOL     OW46486   4.234   5.269   1.877 -0.3724  0.6727  0.7084
13550SOL    HW146487   4.236   5.225   1.792 -0.0690  1.2434  0.4200
13550SOL    HW246488   4.325   5.273   1.905 -0.6366 -1.3078  2.0052
13551SOL     OW46489   0.572   7.413   7.080 -0.1342 -0.1189  0.0284
13551SOL    HW146490   0.625   7.379   7.152  0.3940 -0.9659 -0.7410
13551SOL    HW246491   0.548   7.335   7.029 -3.5828 -0.0068  1.2666
13552SOL     OW46492   9.410   5.787   2.500  0.2422 -0.3894  0.3366
13552SOL    HW146493   9.497   5.796   2.460  0.6513 -3.2167  0.3274
13552SOL    HW246494   9.420   5.824   2.588  1.2621 -0.0525  0.0913
13553SOL     OW46495   9.688  10.132  10.630  0.6178 -0.0289 -0.1781
13553SOL    HW146496   9.603  10.173  10.645 -0.2208 -1.4447 -0.8799
13553SOL    HW246497   9.717  10.165  10.545  1.4162  1.4493  0.6216
13554SOL     OW46498   3.837   6.740   9.093 -0.0968 -0.7002  0.1758
13554SOL    HW146499   3.886   6.748   9.175 -1.4181  0.9556  0.8743
13554SOL    HW246500   3.893   6.780   9.027 -0.5252  1.4119  1.0082
13555SOL     OW46501   6.233   6.173   9.517 -1.3306 -0.0032  0.2735
13555SOL    HW146502   6.318   6.139   9.487 -2.4174 -2.6004 -0.0979
13555SOL    HW246503   6.253   6.262   9.546  1.7636 -0.8947  1.3371
13556SOL     OW46504  11.444   6.893   7.103  0.5614 -0.5310 -0.2145
13556SOL    HW146505  11.425   6.978   7.143 -0.6350 -1.1386  0.5327
13556SOL    HW246506  11.424   6.905   7.011 -0.3341 -0.2042  0.0135
13557SOL     OW46507   5.102   3.146   1.398 -0.8889  0.2004 -0.4381
13557SOL    HW146508   5.093   3.189   1.483 -1.1602  0.7914 -0.7556
13557SOL    HW246509   5.155   3.207   1.346 -0.4066 -0.3318 -0.5735
13558SOL     OW46510  11.212   2.655  10.414 -0.3560  0.2872  0.0004
13558SOL    HW146511  11.144   2.665  10.347 -1.4467  2.3863  1.3399
13558SOL    HW246512  11.165   2.652  10.497  1.0631 -0.7314  0.8302
13559SOL     OW46513   8.276   7.648  10.840  0.1143 -0.4289  0.0098
13559SOL    HW146514   8.200   7.676  10.789 -1.4568  1.0231  2.9207
13559SOL    HW246515   8.303   7.727  10.887  2.9286 -1.1285 -0.2607
13560SOL     OW46516   8.705   4.187   4.603 -0.1846  0.2325  0.4494
13560SOL    HW146517   8.706   4.282   4.609 -0.0913  0.1796  1.4289
13560SOL    HW246518   8.614   4.162   4.619 -0.5845  0.2281 -1.5254
13561SOL     OW46519  11.881   8.084  11.755 -0.4112 -0.4484 -0.5877
13561SOL    HW146520  11.918   8.172  11.745  1.0633 -1.1375 -1.5670
13561SOL    HW246521  11.797   8.098  11.799  0.4488  1.3196  0.6292
13562SOL     OW46522   1.239  10.531  12.148  0.2758 -0.5511  0.3208
13562SOL    HW146523   1.257  10.618  12.184 -0.0426 -0.5596  0.5008
13562SOL    HW246524   1.208  10.549  12.059 -1.4723 -0.3594  0.9282
13563SOL     OW46525  10.468  10.536   0.314  0.4274 -0.0747 -0.1337
13563SOL    HW146526  10.537  10.570   0.257 -0.0489  0.8080 -0.2086
13563SOL    HW246527  10.484  10.442   0.318  2.2275  0.2194  0.6384
13564SOL     OW46528   3.337   2.315   3.640  0.1911 -0.7036 -0.4542
13564SOL    HW146529   3.373   2.237   3.598 -0.6687 -0.8474 -0.9411
13564SOL    HW246530   3.251   2.327   3.601  0.2388  0.4038 -0.2746
13565SOL     OW46531   1.713   0.042   4.335  0.2109 -0.1885 -0.2205
13565SOL    HW146532   1.797  -0.002   4.352  1.1177  1.6097  0.2033
13565SOL    HW246533   1.692   0.020   4.245  1.0172 -0.8742 -0.2532
13566SOL     OW46534   0.384   5.698  10.284 -0.2859 -0.1331 -0.9650
13566SOL    HW146535   0.315   5.727  10.225 -0.1201 -2.6783 -2.5608
13566SOL    HW246536   0.462   5.745  10.255 -0.3925 -0.7287 -2.3021
13567SOL     OW46537  10.104   5.627   0.662  0.1635  0.2717  0.9149
13567SOL    HW146538  10.104   5.667   0.749  2.0382 -0.0727  1.1160
13567SOL    HW246539  10.138   5.539   0.676 -0.3882 -0.1093 -0.0496
13568SOL     OW46540   5.349  10.876   9.547  0.3622  0.4041  0.0233
13568SOL    HW146541   5.402  10.877   9.467  0.6116  1.0349  0.1881
13568SOL    HW246542   5.389  10.808   9.602 -1.1097 -1.5632 -1.2235
13569SOL     OW46543   5.125   5.155   0.076 -0.2412 -0.3416  0.4856
13569SOL    HW146544   5.033   5.127   0.077 -1.0133  1.9962  1.3924
13569SOL    HW246545   5.127   5.232   0.020  1.7770 -1.9005 -1.8063
13570SOL     OW46546   0.801   5.101   6.207 -0.1693 -0.4665 -0.2676
13570SOL    HW146547   0.802   5.197   6.203 -0.9864 -0.3281  1.7016
13570SOL    HW246548   0.894   5.077   6.205  0.4289  0.7315  3.7608
13571SOL     OW46549  10.676   3.617   1.885  0.0390  0.7646  0.3051
13571SOL    HW146550  10.726   3.538   1.906  0.1615  0.4876 -0.9892
13571SOL    HW246551  10.709   3.683   1.947  0.4702  0.0204  0.8916
13572SOL     OW46552   8.261   6.691  11.989 -0.1281  0.5163 -0.5071
13572SOL    HW146553   8.340   6.743  11.981 -0.5122  0.9231 -1.8609
13572SOL    HW246554   8.257   6.667  12.082  1.2147  1.0396 -0.3009
13573SOL     OW46555   5.651   4.566  11.990  0.5860 -0.1874  0.3416
13573SOL    HW146556   5.745   4.550  11.996  0.4277 -1.7792 -0.8120
13573SOL    HW246557   5.622   4.514  11.915 -0.7549  2.4906 -1.1714
13574SOL     OW46558   2.564   1.336   6.306  0.8981  0.1018  0.1017
13574SOL    HW146559   2.611   1.399   6.361  2.2831  0.5753 -1.5317
13574SOL    HW246560   2.559   1.256   6.360 -0.8737  1.5108  2.2039
13575SOL     OW46561   7.776   0.116   2.462  0.0229 -0.2442 -0.5840
13575SOL    HW146562   7.716   0.188   2.483 -0.0249 -0.4395 -0.0339
13575SOL    HW246563   7.855   0.135   2.513 -0.2516 -0.9520  0.1214
13576SOL     OW46564   3.807   2.180  10.093  0.1836 -0.0940 -0.5104
13576SOL    HW146565   3.807   2.103  10.150  0.1429 -1.2947 -2.0943
13576SOL    HW246566   3.729   2.170  10.039  1.4301 -0.2039 -2.3674
13577SOL     OW46567   5.037   5.210   7.246  0.2022 -0.4078  0.1721
13577SOL    HW146568   5.080   5.221   7.161 -0.8079 -1.5078 -0.4963
13577SOL    HW246569   5.104   5.169   7.301  0.4094 -0.9948 -0.5076
13578SOL     OW46570  10.504   4.174  11.726  0.4144  0.0896  0.4046
13578SOL    HW146571  10.588   4.162  11.681  0.5449  1.2021  0.3299
13578SOL    HW246572  10.473   4.085  11.743  1.4827 -0.3313  0.1995
13579SOL     OW46573   1.713   0.049   2.699  0.0042 -0.6235  0.0458
13579SOL    HW146574   1.678   0.110   2.634 -0.3070 -1.7358 -0.8605
13579SOL    HW246575   1.791   0.012   2.658 -0.4936 -1.7372  0.0647
13580SOL     OW46576  10.536  11.930   4.737  0.6507 -0.0813 -0.6503
13580SOL    HW146577  10.515  11.838   4.752  4.1363 -0.6089  2.0272
13580SOL    HW246578  10.482  11.978   4.800 -0.2108 -0.3232 -1.1736
13581SOL     OW46579   9.475   9.181   9.965  0.1571  0.1133 -0.4134
13581SOL    HW146580   9.535   9.231   9.910  0.9843 -0.3654  0.0289
13581SOL    HW246581   9.499   9.089   9.950  0.9558 -0.0077  1.3038
13582SOL     OW46582   0.403   2.035   4.889  0.1738 -0.5931  0.4393
13582SOL    HW146583   0.465   2.107   4.880 -0.2796 -0.1573  0.7978
13582SOL    HW246584   0.317   2.076   4.882 -0.1492 -1.4808 -2.8037
13583SOL     OW46585   7.886  12.253   1.308 -0.3034  0.3316 -0.1853
13583SOL    HW146586   7.867  12.174   1.258  0.6947  0.3342 -0.5967
13583SOL    HW246587   7.980  12.247   1.328 -0.0992  1.6101 -0.6245
13584SOL     OW46588   0.682   7.002   6.326 -0.3494  0.3573  0.0067
13584SOL    HW146589   0.728   7.071   6.277 -0.0024 -0.3004 -0.6189
13584SOL    HW246590   0.631   7.049   6.392 -2.3025  1.4665 -2.1197
13585SOL     OW46591  10.840   3.545   5.793 -0.1811 -0.5902 -0.3508
13585SOL    HW146592  10.747   3.535   5.811  0.0334 -1.6280  0.2251
13585SOL    HW246593  10.852   3.502   5.708 -0.2857 -0.0977 -0.6227
13586SOL     OW46594   8.092   4.615   3.801  0.0978  0.1131 -0.0393
13586SOL    HW146595   8.163   4.569   3.757 -0.6845  0.2871 -1.5593
13586SOL    HW246596   8.092   4.581   3.890  2.9106  1.0440  0.4182
13587SOL     OW46597   7.731   9.443   3.464  0.0064  0.2469  0.1727
13587SOL    HW146598   7.774   9.377   3.518  2.5345  1.1026 -0.6782
13587SOL    HW246599   7.798   9.471   3.402 -1.2982  2.8671 -0.1874
13588SOL     OW46600  12.323  11.404  11.702  0.2054 -0.0216  0.5712
13588SOL    HW146601  12.260  11.472  11.679  0.5501 -0.3786 -1.6244
13588SOL    HW246602  12.408  11.441  11.679  0.4823 -0.8145  0.2715
13589SOL     OW46603   5.691   3.988   6.530  0.3651 -0.0942  0.7032
13589SOL    HW146604   5.756   3.957   6.468 -0.3877 -0.7012  0.1937
13589SOL    HW246605   5.714   3.945   6.613 -0.3558 -1.6749  0.1278
13590SOL     OW46606   6.159   6.706   3.497  0.2610 -0.7101 -0.6698
13590SOL    HW146607   6.146   6.685   3.590  0.7194  1.5742 -0.0421
13590SOL    HW246608   6.079   6.750   3.471  1.1852  1.1071 -0.5679
13591SOL     OW46609   6.377   5.276   6.113 -0.4186  0.3631 -0.7636
13591SOL    HW146610   6.336   5.336   6.176 -0.3695 -0.3932  0.0116
13591SOL    HW246611   6.325   5.286   6.033 -2.7559 -1.2372  0.4366
13592SOL     OW46612   4.554   9.861   5.930  0.0804 -0.6141  0.4486
13592SOL    HW146613   4.544   9.779   5.979  2.3869 -0.3796  1.4241
13592SOL    HW246614   4.642   9.892   5.952 -0.8339  2.3352  0.4142
13593SOL     OW46615   1.860   6.537   0.945 -0.0999 -0.4644  0.5368
13593SOL    HW146616   1.935   6.539   1.005 -0.1088 -2.3201  0.6756
13593SOL    HW246617   1.878   6.462   0.888 -1.6702 -0.7086  0.3354
13594SOL     OW46618   5.254   6.868  11.196 -0.3849 -0.0714  0.0423
13594SOL    HW146619   5.262   6.782  11.156  0.9190  0.0397  0.0100
13594SOL    HW246620   5.180   6.909  11.151 -1.0263 -1.1699  0.0774
13595SOL     OW46621  11.523   4.331  11.665  0.2125 -0.1272  0.4506
13595SOL    HW146622  11.437   4.303  11.697  0.3147 -0.9064  0.0771
13595SOL    HW246623  11.507   4.414  11.621 -0.4565 -0.5584 -0.1385
13596SOL     OW46624   0.339   8.678   0.864  0.3605  0.4295  0.2635
13596SOL    HW146625   0.293   8.594   0.865 -0.6031  0.9306  1.4961
13596SOL    HW246626   0.410   8.667   0.926 -0.0308  0.6477  0.7585
13597SOL     OW46627   4.026   3.254  12.075  0.0073 -0.2076  0.4142
13597SOL    HW146628   4.043   3.235  11.983  0.2490  1.2325  0.1453
13597SOL    HW246629   3.931   3.263  12.081 -0.0119 -0.3432  0.3132
13598SOL     OW46630   5.355   4.693   9.776 -0.0728  0.6351 -0.2559
13598SOL    HW146631   5.390   4.629   9.715 -0.8665  0.2050 -0.2646
13598SOL    HW246632   5.265   4.665   9.793 -0.1660  1.2757  0.3815
13599SOL     OW46633   3.785   7.780  11.514  0.0380  0.1323  0.0793
13599SOL    HW146634   3.796   7.730  11.595 -2.4365  0.2379  0.5590
13599SOL    HW246635   3.766   7.714  11.447 -0.5161  0.2123  0.1498
13600SOL     OW46636   3.051   1.500  10.662 -0.6122  0.3227 -0.0983
13600SOL    HW146637   2.987   1.524  10.729 -0.7427  1.7657 -0.6855
13600SOL    HW246638   3.026   1.554  10.586  0.7824  0.2735 -0.6149
13601SOL     OW46639   3.894   4.253   5.506 -0.2156  0.5388 -0.1136
13601SOL    HW146640   3.808   4.295   5.517 -1.1260 -1.5003  1.1724
13601SOL    HW246641   3.941   4.273   5.587  1.1497  2.8690 -1.4079
13602SOL     OW46642  12.232   1.705   1.751  0.1161 -0.1850 -0.1918
13602SOL    HW146643  12.203   1.774   1.692 -0.6917 -0.1555  0.2231
13602SOL    HW246644  12.152   1.673   1.792  0.5595 -0.8759  0.1572
13603SOL     OW46645   4.514   6.150   5.904 -0.9163  0.0571 -0.0193
13603SOL    HW146646   4.430   6.194   5.893 -0.0572  1.7123 -0.2249
13603SOL    HW246647   4.522   6.135   5.998 -1.2189  0.3513  0.0538
13604SOL     OW46648   6.491   6.721   5.054  0.1468  0.2921 -0.0240
13604SOL    HW146649   6.446   6.765   5.126 -0.8645 -0.4605 -0.1733
13604SOL    HW246650   6.533   6.792   5.006  0.7191  0.8259  1.2028
13605SOL     OW46651   8.851   0.080   5.106 -0.3124  0.1848  0.1377
13605SOL    HW146652   8.921   0.141   5.131 -0.7006  0.0598  1.6040
13605SOL    HW246653   8.840   0.023   5.182 -0.3009 -1.4249 -1.0133
13606SOL     OW46654   2.283   7.220   5.173  0.1149 -0.0642 -0.0410
13606SOL    HW146655   2.316   7.131   5.165 -1.2642 -0.6501  0.4601
13606SOL    HW246656   2.248   7.240   5.086  0.2842 -0.0722 -0.1109
13607SOL     OW46657   8.691   7.233   4.301  0.5466 -0.5625  0.0542
13607SOL    HW146658   8.711   7.188   4.383  1.5197  0.8821  0.6443
13607SOL    HW246659   8.775   7.245   4.258  0.6755  2.5224  0.9352
13608SOL     OW46660   1.039   3.247   3.232  0.0674 -0.4627 -0.8764
13608SOL    HW146661   0.992   3.206   3.305 -0.2130  2.4208  0.7132
13608SOL    HW246662   1.131   3.245   3.258  0.3108 -1.7801 -1.7389
13609SOL     OW46663   3.061  10.992   1.630 -0.2913 -0.0331 -0.3396
13609SOL    HW146664   3.121  10.932   1.675 -3.0663 -2.7606  0.1145
13609SOL    HW246665   3.028  11.049   1.698  2.2675  2.1431 -0.7485
13610SOL     OW46666   6.332  10.475   4.546 -0.6537  0.3280 -0.0118
13610SOL    HW146667   6.361  10.546   4.490  0.5060  0.0858  0.2434
13610SOL    HW246668   6.236  10.482   4.548 -0.5230  2.5387  0.8745
13611SOL     OW46669   1.323  10.728   3.476 -0.9386  0.2412 -0.5116
13611SOL    HW146670   1.390  10.717   3.542  1.1947 -0.3628 -2.6208
13611SOL    HW246671   1.286  10.640   3.464 -0.8650  0.2194 -0.5781
13612SOL     OW46672   9.724   0.773  10.468  1.4533 -0.0457 -0.0153
13612SOL    HW146673   9.684   0.687  10.470 -1.7352  1.3241  0.3669
13612SOL    HW246674   9.715   0.801  10.377 -0.4461  1.0619  0.4612
13613SOL     OW46675  10.866   1.814   9.480  0.1999  0.3171  0.3352
13613SOL    HW146676  10.900   1.846   9.396  2.1841 -0.3328  0.8267
13613SOL    HW246677  10.804   1.746   9.456  1.6467 -0.7337 -0.6479
13614SOL     OW46678   2.743   0.081   5.922  0.4517  0.0075  0.5152
13614SOL    HW146679   2.806   0.020   5.960  0.4078  0.7904  1.8983
13614SOL    HW246680   2.659   0.035   5.926  0.5473 -0.1392  0.8437
13615SOL     OW46681   6.125   7.000  12.000 -0.1394 -0.1092  0.1370
13615SOL    HW146682   6.124   6.905  11.993  0.1805 -0.0658 -0.5618
13615SOL    HW246683   6.217   7.023  12.013 -0.1931  0.1123  0.1339
13616SOL     OW46684   0.490   9.452   5.955  0.5055 -0.0174  0.0972
13616SOL    HW146685   0.543   9.399   6.015  0.9343  1.9056  1.4826
13616SOL    HW246686   0.552   9.484   5.889  0.1168 -1.7356 -1.1943
13617SOL     OW46687   0.016   9.761   9.752 -0.4729  0.0268 -0.2368
13617SOL    HW146688   0.099   9.794   9.786  1.6339 -0.8511 -3.9886
13617SOL    HW246689  -0.002   9.813   9.675 -2.6512 -0.8278 -0.4020
13618SOL     OW46690   0.896   1.998   7.138 -0.2128  0.2121  0.7509
13618SOL    HW146691   0.881   1.907   7.165 -0.1268  0.3323  1.2079
13618SOL    HW246692   0.950   1.991   7.060 -1.2670 -0.1746  0.0207
13619SOL     OW46693   6.639   0.889   6.953 -0.1060 -0.5128 -0.9481
13619SOL    HW146694   6.714   0.858   7.005 -1.0457 -0.0967  0.7442
13619SOL    HW246695   6.576   0.817   6.957 -1.5381  0.7274  1.4176
13620SOL     OW46696   6.002  11.729   5.900  0.1634  0.6233 -0.0746
13620SOL    HW146697   5.921  11.711   5.948 -0.8695  0.3264 -1.8313
13620SOL    HW246698   6.014  11.651   5.845  0.9357  1.2293 -0.7774
13621SOL     OW46699   0.319  10.694   9.403  0.5142  0.8486  0.3274
13621SOL    HW146700   0.231  10.715   9.371  0.5216 -0.9191 -0.9661
13621SOL    HW246701   0.305  10.670   9.495 -0.3217  0.8490  0.2110
13622SOL     OW46702   0.518   1.607   8.720  0.0324  0.1102  0.2450
13622SOL    HW146703   0.606   1.620   8.686 -0.1874 -0.4786 -0.5692
13622SOL    HW246704   0.461   1.657   8.661 -0.0486  1.8819  1.7334
13623SOL     OW46705  10.028   7.713   5.803  0.4254  0.1825  0.1449
13623SOL    HW146706   9.940   7.746   5.787  0.6176 -0.1489 -1.8679
13623SOL    HW246707  10.025   7.678   5.892 -2.4786 -2.9438 -0.9844
13624SOL     OW46708   1.038   8.863   2.262 -0.2023 -0.7398  0.2058
13624SOL    HW146709   1.098   8.853   2.188 -1.0398 -0.1513 -0.5672
13624SOL    HW246710   1.018   8.774   2.289  1.0553 -0.9498  0.5184
13625SOL     OW46711   2.690  10.582   6.848 -0.1059  0.1270 -0.3161
13625SOL    HW146712   2.621  10.629   6.894  1.2591  3.6387 -1.4894
13625SOL    HW246713   2.649  10.555   6.765 -0.7452 -0.2165  0.1035
13626SOL     OW46714   4.511  10.793   0.925 -0.1891  0.4894  0.4625
13626SOL    HW146715   4.431  10.837   0.955  0.0989  0.5865  1.1012
13626SOL    HW246716   4.482  10.707   0.896 -0.5477  0.5851  0.5349
13627SOL     OW46717   8.889   3.699  11.924  0.0928 -0.1070 -0.5644
13627SOL    HW146718   8.841   3.777  11.954  1.5084  0.8482 -0.6608
13627SOL    HW246719   8.956   3.685  11.991  1.8133  0.6556 -2.0139
13628SOL     OW46720   7.415   8.476   7.252 -0.1516  0.0297 -0.4362
13628SOL    HW146721   7.443   8.425   7.329 -0.7298 -2.4380 -1.7505
13628SOL    HW246722   7.320   8.464   7.250 -0.2091  0.5967 -1.1915
13629SOL     OW46723   7.817   8.623   3.232  0.0475  0.1660  0.1433
13629SOL    HW146724   7.834   8.543   3.184 -0.1561  0.0899  0.1957
13629SOL    HW246725   7.820   8.692   3.165 -2.0785 -0.1359 -0.3343
13630SOL     OW46726   0.556   7.903   6.245  0.7456 -0.3707 -0.1203
13630SOL    HW146727   0.558   7.844   6.170  2.4229  0.5278 -0.8325
13630SOL    HW246728   0.612   7.860   6.311 -0.2521 -0.8738  0.4217
13631SOL     OW46729   4.562   7.262  10.131 -0.3625  0.1789 -0.8790
13631SOL    HW146730   4.520   7.193  10.183  0.7541  0.6900  0.8028
13631SOL    HW246731   4.490   7.315  10.098 -1.4222 -2.6918 -3.7471
13632SOL     OW46732   9.224  12.179   0.681 -0.3485  0.4188  0.2796
13632SOL    HW146733   9.263  12.226   0.755  2.2528 -0.9326 -0.1170
13632SOL    HW246734   9.279  12.102   0.670 -2.0824 -0.6344 -1.6095
13633SOL     OW46735   6.079   6.458   7.567 -0.6587 -0.0377 -0.3765
13633SOL    HW146736   6.161   6.420   7.534  0.1913 -1.4075  2.9354
13633SOL    HW246737   6.012   6.394   7.543 -0.7498  0.8164 -2.6055
13634SOL     OW46738   7.751   4.804   7.370 -0.0627 -0.2805  0.3569
13634SOL    HW146739   7.719   4.816   7.281  0.0827 -3.7314 -0.3160
13634SOL    HW246740   7.842   4.776   7.360 -0.4076 -1.9902  1.4116
13635SOL     OW46741   2.400  11.138  11.278  0.3959 -0.1601 -0.2500
13635SOL    HW146742   2.308  11.151  11.255  0.3884  1.8565  0.6864
13635SOL    HW246743   2.399  11.064  11.338 -0.6450 -0.0857 -0.1457
13636SOL     OW46744   7.835   7.309   1.043 -0.5724  0.0058  0.0316
13636SOL    HW146745   7.828   7.287   0.950 -0.1810 -0.1404  0.0341
13636SOL    HW246746   7.929   7.314   1.060 -0.6439  0.9345  0.2164
13637SOL     OW46747  11.647   3.344   2.094 -0.7468 -0.2099  0.6661
13637SOL    HW146748  11.709   3.301   2.153  0.6054  1.3454  0.4367
13637SOL    HW246749  11.566   3.293   2.103  0.1002 -1.3657  2.1260
13638SOL     OW46750   6.038   4.866   7.999 -0.1167  0.0953  0.1500
13638SOL    HW146751   6.023   4.796   7.936  2.0785 -0.4651  0.1997
13638SOL    HW246752   6.058   4.943   7.945 -1.1387  0.3764  0.1371
13639SOL     OW46753   2.967   6.060  11.825 -0.0732 -0.0776  0.4529
13639SOL    HW146754   2.909   6.046  11.750  1.8891 -2.7450 -0.6873
13639SOL    HW246755   2.919   6.023  11.899 -1.9713  2.4606  0.6387
13640SOL     OW46756   4.967   0.293   3.397 -0.1579  0.1906 -0.5156
13640SOL    HW146757   4.927   0.206   3.401  0.0150  0.1381  0.5258
13640SOL    HW246758   4.977   0.311   3.304 -0.8454 -0.6038 -0.7569
13641SOL     OW46759   8.360  10.707   5.032  0.4455  0.3236  0.1406
13641SOL    HW146760   8.363  10.797   5.063 -0.7159 -0.0709  1.5339
13641SOL    HW246761   8.275  10.700   4.988  0.8682  0.1076 -0.6548
13642SOL     OW46762   1.589   0.575  10.471 -0.4027  0.3598 -0.3546
13642SOL    HW146763   1.631   0.596  10.388 -2.4339  1.4750 -1.1500
13642SOL    HW246764   1.605   0.652  10.526  0.1810 -0.0071  0.0001
13643SOL     OW46765   0.458   8.179   0.678  0.1475  0.1204 -0.0356
13643SOL    HW146766   0.489   8.096   0.642  0.5966  0.0245  0.5567
13643SOL    HW246767   0.538   8.225   0.704 -0.1832 -0.2035  1.6829
13644SOL     OW46768   3.112   3.726   9.745  0.1347 -0.1863  0.1263
13644SOL    HW146769   3.119   3.636   9.711 -0.1146 -0.7361  1.4570
13644SOL    HW246770   3.049   3.768   9.687 -0.9715 -1.3631  0.4166
13645SOL     OW46771   0.388   8.154   8.362 -0.5244 -0.3305 -0.7284
13645SOL    HW146772   0.394   8.132   8.455 -0.1210 -0.2123 -0.7211
13645SOL    HW246773   0.304   8.197   8.352  0.0471  0.9792 -0.1301
13646SOL     OW46774   9.191   0.539  10.554 -0.0476  0.1195 -0.3933
13646SOL    HW146775   9.159   0.512  10.468  1.0292 -0.3136 -0.6770
13646SOL    HW246776   9.202   0.457  10.602  0.6041  0.2492 -0.3066
13647SOL     OW46777   1.651  12.097  10.456 -0.2360 -0.1485  0.5138
13647SOL    HW146778   1.700  12.173  10.425  0.5729  0.3150  2.7313
13647SOL    HW246779   1.709  12.023  10.443 -0.3740 -0.1465 -0.1346
13648SOL     OW46780   6.891  10.821   6.809 -0.1800 -0.7227  0.5454
13648SOL    HW146781   6.934  10.825   6.894 -0.9808  1.1363  0.9307
13648SOL    HW246782   6.813  10.876   6.819 -0.8443 -1.2879 -1.0893
13649SOL     OW46783   4.803   4.387  11.889  0.6479  0.2928 -0.4718
13649SOL    HW146784   4.778   4.468  11.933  0.5410  0.1330 -0.2351
13649SOL    HW246785   4.864   4.414  11.821  0.4079  0.6025 -0.5661
13650SOL     OW46786   7.234   9.602  10.793  0.2546 -0.0962  0.1454
13650SOL    HW146787   7.234   9.635  10.703 -0.2932  2.1923  0.9336
13650SOL    HW246788   7.264   9.511  10.784  0.5558  0.1592 -2.2932
13651SOL     OW46789   0.046  11.656   4.776 -0.3438 -0.3962 -0.2475
13651SOL    HW146790   0.119  11.672   4.836 -0.3068  1.4441 -0.7235
13651SOL    HW246791   0.063  11.715   4.702 -2.2996  0.0742 -0.3695
13652SOL     OW46792  11.990   1.921   5.661 -0.2411  0.1180  0.0882
13652SOL    HW146793  12.003   1.900   5.753 -0.6220 -0.8825 -0.0779
13652SOL    HW246794  12.076   1.908   5.621  0.0028  0.8705  0.3497
13653SOL     OW46795   4.708   3.396   2.859 -0.4167  0.5843 -0.3349
13653SOL    HW146796   4.797   3.376   2.830 -0.2355 -0.6864  0.9944
13653SOL    HW246797   4.713   3.484   2.896  1.1154 -0.6621  2.7730
13654SOL     OW46798   0.109   0.186  12.220  0.1634 -0.8720  0.2368
13654SOL    HW146799   0.175   0.256  12.211 -0.5030 -0.2255  0.2784
13654SOL    HW246800   0.063   0.186  12.136 -0.6374 -0.4283  0.6657
13655SOL     OW46801   7.961  11.772   2.754 -0.5123 -0.3473  0.6147
13655SOL    HW146802   7.966  11.751   2.847 -2.2643  0.5390  0.9405
13655SOL    HW246803   7.897  11.710   2.719  0.2359 -0.7644 -0.0460
13656SOL     OW46804  11.996   6.812   2.949  0.5399 -0.1153 -0.4166
13656SOL    HW146805  12.065   6.878   2.948  1.7583 -1.3228  0.6101
13656SOL    HW246806  11.953   6.824   3.033 -0.1809  0.2767 -0.8273
13657SOL     OW46807   1.184   8.395   1.475  0.7987 -0.5261 -0.1738
13657SOL    HW146808   1.234   8.320   1.442  1.6622 -0.2322  0.4265
13657SOL    HW246809   1.247   8.467   1.475  0.4733 -0.2309  0.9238
13658SOL     OW46810   5.739   5.966   3.870 -0.5413  0.1576  0.2806
13658SOL    HW146811   5.696   6.033   3.923 -1.6188  0.6624 -1.1666
13658SOL    HW246812   5.669   5.907   3.844 -0.1646  0.2328 -0.9966
13659SOL     OW46813   9.943  10.818  10.664 -0.5678 -0.8044 -0.5572
13659SOL    HW146814   9.996  10.898  10.654  0.7236 -1.4631  0.6102
13659SOL    HW246815   9.995  10.750  10.622 -1.8338 -1.0035 -1.8597
13660SOL     OW46816   3.304   4.650   9.789 -0.1135 -0.4020  0.0041
13660SOL    HW146817   3.283   4.620   9.701  0.7935 -0.1091 -0.3217
13660SOL    HW246818   3.399   4.646   9.794  0.1365  2.7920 -0.2117
13661SOL     OW46819   8.610   0.455   2.373  0.0816  0.1163 -0.3452
13661SOL    HW146820   8.653   0.487   2.453 -1.7680  2.6335 -0.2323
13661SOL    HW246821   8.552   0.385   2.405 -0.4726  0.9390  0.5172
13662SOL     OW46822   1.974   0.510   7.553  0.1401  0.2250  0.4577
13662SOL    HW146823   1.964   0.445   7.622 -1.5592 -0.8870 -0.7691
13662SOL    HW246824   2.003   0.460   7.476  0.7432  1.2337  0.0024
13663SOL     OW46825   4.687   3.677   2.856  0.7441 -0.3204  0.6888
13663SOL    HW146826   4.592   3.684   2.843  0.5212 -0.3172  2.2012
13663SOL    HW246827   4.724   3.732   2.786 -0.3852  0.3015  0.5479
13664SOL     OW46828   6.992   2.324   5.117  0.2538 -0.0979  0.2037
13664SOL    HW146829   6.972   2.400   5.061  0.7366 -0.3076 -0.2670
13664SOL    HW246830   6.939   2.253   5.081  2.2117 -0.8325 -1.4756
13665SOL     OW46831   4.798   6.936   3.461  0.0220  0.3495 -0.1462
13665SOL    HW146832   4.819   6.854   3.505 -0.0918 -0.5932 -1.7395
13665SOL    HW246833   4.850   6.934   3.381  0.6402  2.2406  0.1662
13666SOL     OW46834   1.488   7.338   2.899  0.1578  0.3670  0.4122
13666SOL    HW146835   1.401   7.378   2.893  0.4369  0.8428 -0.8871
13666SOL    HW246836   1.548   7.412   2.892  0.6785 -0.1458 -0.6633
13667SOL     OW46837   7.405  10.218   4.128 -0.0749  0.3984 -0.2829
13667SOL    HW146838   7.363  10.159   4.066 -0.3252 -0.7689  0.9472
13667SOL    HW246839   7.498  10.195   4.123  0.0943  1.2522 -1.1992
13668SOL     OW46840   2.567   3.232   4.885  0.7291 -0.1478 -0.5938
13668SOL    HW146841   2.650   3.213   4.928  2.3755 -0.5304 -3.6628
13668SOL    HW246842   2.556   3.327   4.892  2.2192  0.1059 -1.3845
13669SOL     OW46843   9.090   6.499   6.358  0.2854 -0.2978  0.4300
13669SOL    HW146844   9.001   6.535   6.360  0.0044 -0.8658 -0.8495
13669SOL    HW246845   9.136   6.545   6.428 -1.0147  0.0117  1.1096
13670SOL     OW46846   1.527   1.226  12.172 -0.0463 -0.0248  0.1604
13670SOL    HW146847   1.604   1.201  12.121  1.0986  1.1034  1.2750
13670SOL    HW246848   1.553   1.212  12.263 -0.4933  2.0914  0.6627
13671SOL     OW46849  12.075   1.109   7.418  0.2724 -0.7039 -0.2796
13671SOL    HW146850  12.022   1.182   7.389 -0.0684 -1.5777 -1.9553
13671SOL    HW246851  12.013   1.047   7.456  0.4229 -0.6133  0.1213
13672SOL     OW46852  10.114   7.592  11.870  0.8519 -0.2433  0.4189
13672SOL    HW146853  10.053   7.609  11.798  0.5065 -2.2117  0.1726
13672SOL    HW246854  10.106   7.668  11.927 -1.6877 -0.3023  0.2626
13673SOL     OW46855   4.185  10.804   8.790 -0.5447  0.3255  1.1923
13673SOL    HW146856   4.261  10.829   8.738 -0.5021  1.2595  1.6822
13673SOL    HW246857   4.219  10.742   8.854 -0.5245 -0.5373  0.3605
13674SOL     OW46858   9.428  11.408  11.411 -0.1421 -0.4687 -0.0908
13674SOL    HW146859   9.388  11.337  11.462  2.5866 -1.9476  0.1945
13674SOL    HW246860   9.510  11.427  11.457  0.2964  1.2552 -1.4833
13675SOL     OW46861  12.249   6.542   4.153  0.0937  0.0728 -0.0278
13675SOL    HW146862  12.194   6.566   4.228 -1.0992  0.3524 -0.9543
13675SOL    HW246863  12.222   6.452   4.132  1.8639 -0.7676  1.0966
13676SOL     OW46864  11.348   5.026   7.246 -0.3088 -0.3037 -0.3778
13676SOL    HW146865  11.277   4.964   7.232  0.3867 -0.8312 -1.8015
13676SOL    HW246866  11.309   5.111   7.229 -0.1464 -0.7345 -3.3256
13677SOL     OW46867   4.167   2.829   7.419 -0.1620  0.1575 -0.6890
13677SOL    HW146868   4.185   2.899   7.483  1.4544 -1.2109  0.4595
13677SOL    HW246869   4.085   2.790   7.448 -0.3172  0.6537 -0.4623
13678SOL     OW46870   2.694   6.690   9.640 -0.6865  0.8597 -0.7445
13678SOL    HW146871   2.668   6.656   9.725 -1.5064 -0.0363 -1.3227
13678SOL    HW246872   2.688   6.785   9.649  1.9608  0.9441  1.0065
13679SOL     OW46873   5.959   7.856   7.347  0.0863 -0.0202  0.2589
13679SOL    HW146874   5.969   7.913   7.271 -0.6784 -1.8159 -1.2721
13679SOL    HW246875   5.901   7.905   7.406 -0.5665  0.7975 -1.0000
13680SOL     OW46876   5.827   7.638   0.981 -0.4321 -0.1093 -0.2905
13680SOL    HW146877   5.738   7.619   1.011  0.6753 -3.3314  1.3624
13680SOL    HW246878   5.846   7.570   0.916  0.5781  1.0075 -1.2091
13681SOL     OW46879   3.787   8.626   3.089 -0.3922  0.7843 -0.1280
13681SOL    HW146880   3.837   8.660   3.163  1.2353 -0.4054 -0.6163
13681SOL    HW246881   3.804   8.688   3.018  2.7086 -0.9242 -1.0665
13682SOL     OW46882   0.091   1.614   2.184  0.2118  0.4632 -0.9644
13682SOL    HW146883   0.025   1.546   2.187  0.4642  0.2496  1.2777
13682SOL    HW246884   0.042   1.695   2.168 -0.2006 -0.0530 -2.4859
13683SOL     OW46885  11.314   1.968   5.687  0.6602 -0.3937 -0.0250
13683SOL    HW146886  11.299   2.012   5.770 -0.1672 -0.0339 -0.3540
13683SOL    HW246887  11.366   2.031   5.635 -0.2754  0.0977 -0.3895
13684SOL     OW46888   1.967   0.664   3.102  0.1870 -0.1116 -0.0371
13684SOL    HW146889   1.946   0.700   3.188 -0.1036 -1.2912  0.4096
13684SOL    HW246890   1.979   0.570   3.118 -0.5368 -0.4537 -1.3871
13685SOL     OW46891   9.186   3.379   8.140 -0.1744 -0.2624 -0.1483
13685SOL    HW146892   9.200   3.411   8.229 -0.0391 -1.9156  0.4431
13685SOL    HW246893   9.097   3.345   8.140  0.1166 -1.0410 -0.3961
13686SOL     OW46894   5.884   3.952   4.326 -0.9988 -0.0701 -0.4879
13686SOL    HW146895   5.965   3.992   4.295 -0.2581 -1.5314 -0.4872
13686SOL    HW246896   5.881   3.973   4.420 -2.9242  3.8039 -1.1885
13687SOL     OW46897  11.480   2.309   7.449  0.2336  0.2586  0.8421
13687SOL    HW146898  11.492   2.402   7.432 -0.8046  0.2669  0.0409
13687SOL    HW246899  11.513   2.296   7.537  1.9716  1.0461  0.3415
13688SOL     OW46900   1.723   9.887   6.245 -0.1214  0.0070 -0.0904
13688SOL    HW146901   1.684   9.881   6.157  0.1782  0.2450 -0.2410
13688SOL    HW246902   1.756   9.977   6.250  2.8389 -0.9075 -0.9903
13689SOL     OW46903   1.872   0.647   8.046 -0.0640  0.1851  0.0554
13689SOL    HW146904   1.929   0.709   8.091 -2.7843  2.2234  1.0241
13689SOL    HW246905   1.868   0.571   8.104  0.5007  0.6370  0.6972
13690SOL     OW46906   0.068   2.869   8.190  0.1020 -0.3304  0.0146
13690SOL    HW146907   0.000   2.923   8.231  0.2947 -2.2044  3.0846
13690SOL    HW246908   0.019   2.800   8.145 -0.1034 -1.4082  1.8252
13691SOL     OW46909  10.731   1.962   0.241  0.1996  0.5951  0.8713
13691SOL    HW146910  10.816   1.993   0.271 -0.8181  3.5372  1.1161
13691SOL    HW246911  10.703   2.029   0.178 -1.6527 -0.6355  0.3070
13692SOL     OW46912  10.755   7.921   2.923  0.1801  0.5987 -0.1371
13692SOL    HW146913  10.740   7.900   3.016 -1.2009  1.8004 -0.0632
13692SOL    HW246914  10.808   7.848   2.891  0.6057  0.1095  1.5710
13693SOL     OW46915   4.784   3.686   6.702 -0.1199  0.1796 -0.2605
13693SOL    HW146916   4.872   3.655   6.682  0.1653  1.3004 -0.8548
13693SOL    HW246917   4.729   3.651   6.631 -0.2415 -0.8514  0.3278
13694SOL     OW46918   6.943  10.899   6.462 -0.1008 -0.4036 -0.2515
13694SOL    HW146919   6.936  10.817   6.511 -2.1617 -0.2192 -0.1632
13694SOL    HW246920   7.017  10.945   6.503 -1.0159 -0.7653  1.9257
13695SOL     OW46921  10.771   0.904   5.707  0.3395  0.0660  0.2860
13695SOL    HW146922  10.724   0.985   5.686 -0.1243 -0.3294 -0.2491
13695SOL    HW246923  10.858   0.915   5.668 -0.3747 -0.4879 -1.5715
13696SOL     OW46924   0.130   4.291   5.655 -0.0137  0.9131 -0.9003
13696SOL    HW146925   0.158   4.345   5.581  0.2957 -0.3735 -1.7625
13696SOL    HW246926   0.181   4.323   5.729  0.0304  1.9063 -1.3476
13697SOL     OW46927   4.966   7.681   4.628  0.0379  0.3164  0.0969
13697SOL    HW146928   5.048   7.722   4.600  0.2092  0.6888  1.1235
13697SOL    HW246929   4.962   7.695   4.722 -0.8705 -0.3143  0.1700
13698SOL     OW46930   7.129   0.939   3.641  0.6130 -0.0037  0.0946
13698SOL    HW146931   7.143   0.876   3.712 -0.8308 -1.1758 -0.6168
13698SOL    HW246932   7.062   0.998   3.675 -0.2210 -0.6825 -0.3386
13699SOL     OW46933   0.924   7.829   1.342 -0.2274  0.5109 -0.2218
13699SOL    HW146934   0.869   7.786   1.408 -1.0906  1.0128 -0.6006
13699SOL    HW246935   1.013   7.800   1.363 -0.3138  1.6260  1.9204
13700SOL     OW46936   2.556  12.206   0.145  0.0422 -0.2991 -0.1249
13700SOL    HW146937   2.636  12.161   0.170  0.6136 -0.2598 -1.7433
13700SOL    HW246938   2.564  12.294   0.182  0.3967 -0.5325  0.3568
13701SOL     OW46939  10.036  10.667  11.773 -0.3791  0.2164  0.0739
13701SOL    HW146940   9.997  10.697  11.855  0.3811 -0.5785  0.7537
13701SOL    HW246941  10.122  10.632  11.799  0.1806  0.6234 -1.1674
13702SOL     OW46942   6.298   1.231   6.197  0.2253 -0.2691  0.3831
13702SOL    HW146943   6.385   1.239   6.158  0.6879  1.1737  1.6294
13702SOL    HW246944   6.305   1.274   6.282 -1.2237 -1.7626  1.3354
13703SOL     OW46945   8.097   7.537   7.006  0.0264  0.0221  0.0406
13703SOL    HW146946   8.068   7.535   6.915  1.6061 -2.1623 -0.5039
13703SOL    HW246947   8.192   7.529   7.001  0.2054  0.6074  1.8756
13704SOL     OW46948   9.559   5.343   5.066  0.5356  0.0434 -0.4906
13704SOL    HW146949   9.619   5.339   4.992  0.0087 -0.5489 -0.8965
13704SOL    HW246950   9.504   5.420   5.047  0.6956  0.1601 -0.4830
13705SOL     OW46951   0.014   3.846   1.626  0.1395  0.0856  0.2988
13705SOL    HW146952   0.040   3.860   1.535  2.1597 -0.4889  0.7513
13705SOL    HW246953  -0.070   3.892   1.634  2.1380  4.3142 -0.6082
13706SOL     OW46954   0.856   6.423  11.506 -0.3090  0.3713 -1.0389
13706SOL    HW146955   0.790   6.382  11.562  0.9904 -0.1076  0.2127
13706SOL    HW246956   0.925   6.357  11.500  0.9465  1.6028 -0.6363
13707SOL     OW46957   7.099  10.089   6.140 -0.3955  0.0556 -0.0359
13707SOL    HW146958   7.113  10.140   6.060 -1.4158  0.0694 -0.2215
13707SOL    HW246959   7.165  10.121   6.201  0.0780  0.3942 -0.7156
13708SOL     OW46960  11.864   1.909   8.036  0.0226  0.4658  0.1441
13708SOL    HW146961  11.958   1.916   8.023  0.1534  0.2115  0.9318
13708SOL    HW246962  11.828   1.901   7.947  0.8616 -1.0139 -0.0886
13709SOL     OW46963  11.020  11.218   8.888  0.1333  0.3181 -0.7265
13709SOL    HW146964  11.048  11.176   8.807  0.1999  0.3076 -0.6983
13709SOL    HW246965  11.032  11.150   8.955  1.0631  0.6547 -0.5387
13710SOL     OW46966  11.266   9.881  11.256 -0.7582  0.5274 -0.4752
13710SOL    HW146967  11.305   9.936  11.324 -1.1037 -0.5671  0.6581
13710SOL    HW246968  11.324   9.891  11.181  0.7172  0.3309  0.5900
13711SOL     OW46969   9.196   6.562   2.162 -0.7594  1.0225  0.6495
13711SOL    HW146970   9.130   6.547   2.229  0.0120  0.5668  1.3374
13711SOL    HW246971   9.279   6.557   2.209 -0.1410 -0.2115 -0.4722
13712SOL     OW46972   8.447   4.026   0.434 -0.6311 -0.5586 -0.3109
13712SOL    HW146973   8.424   4.082   0.508  0.0698  1.0918 -1.2909
13712SOL    HW246974   8.424   3.937   0.463 -1.3020  0.1554  1.4803
13713SOL     OW46975   7.511  10.680  12.195  0.4392 -0.1009 -0.0627
13713SOL    HW146976   7.606  10.673  12.208  0.3500  1.0661  1.5259
13713SOL    HW246977   7.473  10.645  12.276 -0.3824  1.7833  0.4138
13714SOL     OW46978   1.722   0.790  11.590  0.0956 -0.2174  0.5892
13714SOL    HW146979   1.628   0.808  11.595  0.0484 -0.1335 -0.4882
13714SOL    HW246980   1.730   0.699  11.621 -0.2161  0.0892  1.5975
13715SOL     OW46981   6.546   6.656   1.989  0.2241 -0.1134 -0.0322
13715SOL    HW146982   6.466   6.647   1.937 -0.0868  0.8763  0.2598
13715SOL    HW246983   6.521   6.713   2.062  1.1477  0.0677  0.1547
13716SOL     OW46984   2.339   6.214   5.290 -0.1366  0.2917 -0.3005
13716SOL    HW146985   2.356   6.306   5.271 -2.2159  1.2070  1.6575
13716SOL    HW246986   2.287   6.183   5.216  0.2169  0.8095 -0.7729
13717SOL     OW46987   4.930   0.305   5.455 -0.7578  0.3245 -0.6028
13717SOL    HW146988   4.885   0.345   5.381 -0.5126  0.1576 -0.8452
13717SOL    HW246989   4.905   0.359   5.530  1.2116  2.2280 -1.2200
13718SOL     OW46990   0.775  11.214   5.634  0.0188  0.3101  0.0037
13718SOL    HW146991   0.733  11.133   5.663 -2.3966  0.6256 -2.2525
13718SOL    HW246992   0.759  11.217   5.540  2.1178  2.2856 -0.3775
13719SOL     OW46993   6.211   9.313   2.512  0.2750  0.0585  0.1437
13719SOL    HW146994   6.246   9.329   2.425 -0.1984  1.8798  0.2455
13719SOL    HW246995   6.126   9.357   2.513 -1.0334 -2.3136  0.6559
13720SOL     OW46996   8.121   4.968   1.861 -0.8997 -0.3214  0.3819
13720SOL    HW146997   8.114   4.891   1.805 -2.7105  0.2606 -0.2483
13720SOL    HW246998   8.202   5.012   1.833 -0.5660 -1.2675 -0.1585
13721SOL     OW46999   8.066   7.643   6.521  0.1009 -0.0843  0.0710
13721SOL    HW147000   8.064   7.727   6.475  0.9674 -0.4721 -0.7297
13721SOL    HW247001   8.048   7.578   6.452  0.6909 -0.6291  0.4139
13722SOL     OW47002   7.922  11.265   5.711 -0.3662 -0.6095 -0.6421
13722SOL    HW147003   7.987  11.336   5.712 -1.3170  0.3649 -2.6681
13722SOL    HW247004   7.882  11.268   5.798  0.3265  0.6637 -0.3363
13723SOL     OW47005   4.271   4.750   2.730 -0.2444 -0.3274  0.5398
13723SOL    HW147006   4.284   4.774   2.638 -2.2730  2.2221  0.8142
13723SOL    HW247007   4.356   4.766   2.771  0.3955 -0.4660 -0.6914
13724SOL     OW47008   2.445   8.887   0.439 -0.0196  0.3954 -0.0063
13724SOL    HW147009   2.435   8.796   0.469  2.0624  0.0630 -0.1686
13724SOL    HW247010   2.503   8.927   0.503  0.3451  1.1536 -0.7886
13725SOL     OW47011   6.567  10.587   0.660  0.3495 -0.0046 -0.3966
13725SOL    HW147012   6.603  10.609   0.746  0.0139 -0.6686 -0.0828
13725SOL    HW247013   6.502  10.519   0.678  0.0814  0.0492 -1.1452
13726SOL     OW47014   8.554   1.670  11.447  0.1869  0.2431 -0.1262
13726SOL    HW147015   8.549   1.704  11.357  3.2349  0.8156 -0.1800
13726SOL    HW247016   8.491   1.724  11.495  0.1968  1.5628 -1.4876
13727SOL     OW47017   5.416  10.776   3.676 -0.4892  0.1772 -0.3931
13727SOL    HW147018   5.448  10.710   3.614 -1.9396  0.2801 -1.2892
13727SOL    HW247019   5.412  10.729   3.759  1.9272  0.1642 -0.1980
13728SOL     OW47020   3.004  10.603   9.203 -0.1873 -0.3370  0.6392
13728SOL    HW147021   2.969  10.540   9.140 -0.9766  0.8311 -0.1197
13728SOL    HW247022   3.096  10.577   9.214 -0.5462 -1.7320  0.5011
13729SOL     OW47023   6.881  12.285  12.197 -0.1499  0.5204  0.1605
13729SOL    HW147024   6.882  12.195  12.165 -0.0924 -0.3790  2.5293
13729SOL    HW247025   6.789  12.307  12.205 -0.1772  1.0699 -1.3551
13730SOL     OW47026   1.534   9.705   6.263  0.0691 -0.4777 -0.0450
13730SOL    HW147027   1.483   9.727   6.341  0.2030 -0.6569  0.0911
13730SOL    HW247028   1.618   9.747   6.276 -0.1925  0.2074 -0.4789
13731SOL     OW47029   0.246   9.548   2.529 -0.3901  0.0874  0.1361
13731SOL    HW147030   0.218   9.607   2.598  0.9542  0.4598  0.3886
13731SOL    HW247031   0.284   9.604   2.462 -0.3516 -0.3850 -0.2483
13732SOL     OW47032   8.584   4.048   2.199 -0.3691  0.0697  0.1144
13732SOL    HW147033   8.544   4.108   2.137  0.3178 -0.9653 -1.4068
13732SOL    HW247034   8.672   4.084   2.214 -0.8633  0.8358  1.2661
13733SOL     OW47035  11.179   2.585   3.430 -0.9208  0.3409  0.0592
13733SOL    HW147036  11.197   2.526   3.357  0.7105  0.7729  0.0821
13733SOL    HW247037  11.155   2.668   3.388 -0.7139  0.3770  0.0098
13734SOL     OW47038   4.032   7.503  11.867  0.4674  0.3409 -0.6781
13734SOL    HW147039   3.994   7.508  11.955 -0.4641 -0.8524 -0.9912
13734SOL    HW247040   3.965   7.541  11.810  1.1991  1.4054 -0.8586
13735SOL     OW47041   8.884   1.793   7.236  0.5366  0.6330 -0.0323
13735SOL    HW147042   8.934   1.832   7.164 -1.4632  0.0044 -1.8545
13735SOL    HW247043   8.916   1.703   7.242  0.5247  0.6097 -0.3130
13736SOL     OW47044   1.767   3.565   2.329 -0.2467 -0.6485  0.0543
13736SOL    HW147045   1.682   3.576   2.371 -1.3109 -2.7401 -1.3941
13736SOL    HW247046   1.762   3.620   2.251 -0.3782 -0.9675 -0.1636
13737SOL     OW47047   4.339  10.771   2.197  0.7838 -0.1903 -0.0526
13737SOL    HW147048   4.384  10.823   2.130  0.9136 -1.5731 -1.0662
13737SOL    HW247049   4.266  10.730   2.151 -1.1799  1.4485  1.4025
13738SOL     OW47050   4.578   1.145  11.800 -0.3592 -0.0597 -0.3186
13738SOL    HW147051   4.514   1.215  11.815 -0.2562  0.0371 -0.3301
13738SOL    HW247052   4.600   1.153  11.707  3.1946  2.9486  0.5299
13739SOL     OW47053   7.220  11.239   1.599 -0.2270 -0.4280 -0.0975
13739SOL    HW147054   7.302  11.255   1.553  0.5274 -0.7023  1.0839
13739SOL    HW247055   7.190  11.326   1.626  0.8165 -0.4582  1.2938
13740SOL     OW47056   5.098   0.264   9.778 -0.1209 -0.9425  0.1591
13740SOL    HW147057   5.151   0.335   9.815 -0.4119 -0.2051 -0.7979
13740SOL    HW247058   5.014   0.271   9.822  0.4250 -1.8812  1.4106
13741SOL     OW47059   2.366  11.505  11.232  0.1075  0.2613  0.0319
13741SOL    HW147060   2.399  11.485  11.145 -0.8305 -1.3767  0.0087
13741SOL    HW247061   2.440  11.488  11.290  0.4569  0.4549 -0.3522
13742SOL     OW47062   5.250   6.026   4.474 -0.9449  0.1575 -0.3409
13742SOL    HW147063   5.231   5.964   4.544 -1.5864  1.0781  0.3326
13742SOL    HW247064   5.339   6.006   4.448 -0.9503 -0.6877  0.2303
13743SOL     OW47065   0.445  10.942   7.511 -0.1196 -0.2785  0.0388
13743SOL    HW147066   0.399  10.993   7.577 -1.1598  0.0155 -0.8789
13743SOL    HW247067   0.537  10.951   7.533 -0.4945 -2.4922  3.1060
13744SOL     OW47068   4.092   0.623   7.649  0.4441 -0.0707  0.1897
13744SOL    HW147069   4.181   0.639   7.680  1.4060  0.6650 -2.6668
13744SOL    HW247070   4.055   0.710   7.636  0.1214 -0.3429 -0.7728
13745SOL     OW47071   7.456   6.813   2.097 -0.0643 -0.3597  0.2572
13745SOL    HW147072   7.424   6.866   2.170 -0.1338  0.1430 -0.1330
13745SOL    HW247073   7.386   6.749   2.081 -0.2035 -0.2433  0.3963
13746SOL     OW47074   5.728   0.124  10.084 -0.6785 -0.5716 -0.5156
13746SOL    HW147075   5.760   0.202  10.040 -0.8250 -0.1151  0.1805
13746SOL    HW247076   5.787   0.054  10.054  1.5238  0.3703  1.3025
13747SOL     OW47077   4.300   4.774   1.168 -0.3988 -0.0934 -0.1209
13747SOL    HW147078   4.272   4.769   1.259 -1.2979 -2.4361 -0.4528
13747SOL    HW247079   4.332   4.686   1.147  1.4606  0.8522 -1.5886
13748SOL     OW47080  12.178   2.661   1.642  0.7187  0.5238  0.2621
13748SOL    HW147081  12.121   2.674   1.566 -0.2639 -0.2096  0.8476
13748SOL    HW247082  12.154   2.732   1.702 -0.2215 -0.2923  0.8728
13749SOL     OW47083  11.595   4.055  12.313  0.2094  0.5246 -0.1547
13749SOL    HW147084  11.568   4.041  12.404  0.2778 -0.9087 -0.3260
13749SOL    HW247085  11.530   4.008  12.261 -0.1413  1.7879 -0.9006
13750SOL     OW47086  10.710   7.213   7.429 -0.0721  0.9097  0.2476
13750SOL    HW147087  10.617   7.234   7.435 -0.1134  1.9005 -2.3761
13750SOL    HW247088  10.725   7.194   7.337  2.4581  1.4710  0.4467
13751SOL     OW47089   3.626  10.051   6.834 -0.1005  0.1429 -0.1475
13751SOL    HW147090   3.597  10.133   6.795  0.3668  0.6668  0.5849
13751SOL    HW247091   3.705  10.074   6.883 -0.6112 -0.4988  1.0230
13752SOL     OW47092   0.449   3.211   7.213 -0.7119  0.0752 -0.0003
13752SOL    HW147093   0.465   3.279   7.147  2.0876 -0.8747 -0.4229
13752SOL    HW247094   0.470   3.129   7.168 -3.3421 -1.0888  0.7072
13753SOL     OW47095   7.617  10.634   9.010  0.0846  0.2517 -0.9090
13753SOL    HW147096   7.691  10.656   9.065 -0.4891  0.1361 -0.0696
13753SOL    HW247097   7.635  10.677   8.926  1.0687  0.2491 -0.7086
13754SOL     OW47098   0.620  11.739   9.990 -0.2359 -0.0517 -0.3493
13754SOL    HW147099   0.604  11.811  10.051 -1.7155  0.5016 -1.3195
13754SOL    HW247100   0.566  11.667  10.024 -0.4294 -0.0086 -0.5692
13755SOL     OW47101   6.192  10.732   6.646  0.3197  0.1750 -0.0664
13755SOL    HW147102   6.277  10.700   6.615 -0.3030 -0.4459 -1.2021
13755SOL    HW247103   6.147  10.759   6.567 -0.4490  0.7538  0.5576
13756SOL     OW47104   2.768   8.237  11.298  0.1605 -0.3332 -0.7310
13756SOL    HW147105   2.773   8.282  11.383  0.7426  2.4338 -2.0913
13756SOL    HW247106   2.859   8.225  11.272 -0.0019  0.0412 -1.5083
13757SOL     OW47107  10.251   1.488   9.939  0.2865  0.2281 -0.5223
13757SOL    HW147108  10.172   1.539   9.920  0.4501  0.3050 -0.9959
13757SOL    HW247109  10.259   1.492  10.035 -0.1950  0.3509 -0.4847
13758SOL     OW47110   3.525   0.468   1.479  0.0126  0.2906  0.1022
13758SOL    HW147111   3.434   0.496   1.466  0.2981  1.0831 -0.2327
13758SOL    HW247112   3.563   0.466   1.391  0.0203 -1.1512  0.1107
13759SOL     OW47113   2.986   2.254  12.094 -0.4263 -0.3747 -0.3163
13759SOL    HW147114   2.953   2.165  12.083  0.5878 -0.9072  0.8015
13759SOL    HW247115   2.908   2.310  12.082 -1.8562 -1.5907  2.5218
13760SOL     OW47116   5.831  11.979   3.423 -0.0529 -0.1062 -0.1501
13760SOL    HW147117   5.739  12.005   3.424  0.0632  0.3020  0.0704
13760SOL    HW247118   5.872  12.033   3.491 -0.2643 -2.5746  2.0933
13761SOL     OW47119   7.523   2.966   8.713 -0.2692  0.2011 -0.3660
13761SOL    HW147120   7.584   2.897   8.739 -0.2256  0.5113  0.3503
13761SOL    HW247121   7.437   2.922   8.713 -0.0896 -0.1722 -1.1422
13762SOL     OW47122   5.521   7.715   5.305 -0.0989  0.2742 -0.7208
13762SOL    HW147123   5.602   7.721   5.254  0.0819 -2.8242 -0.9885
13762SOL    HW247124   5.452   7.741   5.244  0.5299  1.1536 -1.0685
13763SOL     OW47125   4.831   4.736   3.752  0.1395  0.0662 -0.5051
13763SOL    HW147126   4.880   4.772   3.825 -1.1600  0.1243  0.3804
13763SOL    HW247127   4.741   4.767   3.766 -0.5534 -1.5950 -0.9795
13764SOL     OW47128  10.611   2.290   9.150  0.5510 -0.2036  0.5849
13764SOL    HW147129  10.662   2.317   9.073  0.5318  0.9247  0.9404
13764SOL    HW247130  10.648   2.205   9.175  1.0694 -0.2269 -0.2136
13765SOL     OW47131   3.701   2.932   3.948  0.4871  0.1793 -0.0059
13765SOL    HW147132   3.657   3.015   3.931  0.3205  0.2724  0.8116
13765SOL    HW247133   3.754   2.948   4.026  0.3765 -0.4967  0.2213
13766SOL     OW47134   9.694  10.313   2.293  0.2111  0.3758 -0.0176
13766SOL    HW147135   9.747  10.392   2.306 -0.2254  0.9501 -1.5289
13766SOL    HW247136   9.657  10.294   2.379  3.3763 -0.4539  1.2870
13767SOL     OW47137   4.401  11.192   7.679  0.2092 -0.3416  0.0627
13767SOL    HW147138   4.405  11.287   7.690 -0.3942 -0.2680 -0.2963
13767SOL    HW247139   4.384  11.180   7.586  0.1917 -0.8012  0.1245
13768SOL     OW47140   0.057   9.204  11.990  0.0990  0.0971  0.1672
13768SOL    HW147141   0.098   9.148  11.923 -2.3082 -0.6130 -0.8527
13768SOL    HW247142   0.063   9.153  12.070 -0.8084 -1.0560 -0.4599
13769SOL     OW47143   6.451  11.003  11.691 -0.0081 -0.0530 -0.7646
13769SOL    HW147144   6.495  10.918  11.683  0.5886  0.2055 -0.2853
13769SOL    HW247145   6.408  11.016  11.606 -0.4147 -1.0036 -0.7160
13770SOL     OW47146   9.391  11.091   5.091 -0.1144 -0.2529  0.0103
13770SOL    HW147147   9.421  11.139   5.169 -0.9174  0.3781 -0.0554
13770SOL    HW247148   9.385  11.000   5.120 -0.3972 -0.0241  0.6955
13771SOL     OW47149   1.350   5.930   2.930  0.4361  0.0835 -0.3968
13771SOL    HW147150   1.352   5.877   2.850  0.7668  0.1184 -0.4124
13771SOL    HW247151   1.316   5.870   2.997  2.0168 -0.5592 -0.1200
13772SOL     OW47152   5.025   3.048   4.074  0.3912  0.0223  0.2882
13772SOL    HW147153   5.117   3.023   4.060  0.0937 -0.4193 -0.9510
13772SOL    HW247154   4.995   2.990   4.144  1.0456  0.1760  0.7169
13773SOL     OW47155   4.417   1.241   9.875 -0.0175  0.6928  0.6994
13773SOL    HW147156   4.364   1.162   9.874 -0.8113  1.1913 -1.2692
13773SOL    HW247157   4.499   1.215   9.916 -0.7083 -0.8141  1.1908
13774SOL     OW47158   9.588   6.680   7.079 -0.2979 -0.3021 -0.2446
13774SOL    HW147159   9.568   6.748   7.142 -0.0377 -0.7042  0.2792
13774SOL    HW247160   9.684   6.682   7.071 -0.2546 -0.8969  0.1043
13775SOL     OW47161   5.709  12.226   4.733  0.5807 -0.3975  0.0798
13775SOL    HW147162   5.774  12.182   4.788 -0.4801 -0.3877  1.4020
13775SOL    HW247163   5.742  12.216   4.644  2.5427 -0.1312  0.7248
13776SOL     OW47164   6.317  12.326   6.974  0.2875 -0.5666 -0.1104
13776SOL    HW147165   6.223  12.340   6.987  0.2323  1.0319 -1.8881
13776SOL    HW247166   6.358  12.375   7.046 -0.2148  0.9326 -0.7989
13777SOL     OW47167   6.082   3.967  10.392 -0.2355 -0.0309  0.0644
13777SOL    HW147168   6.015   3.900  10.383 -1.6813  1.2626  0.8017
13777SOL    HW247169   6.164   3.918  10.400 -1.1492 -1.6662 -0.1734
13778SOL     OW47170   5.937   8.679   4.833 -0.3088  1.1891  0.0987
13778SOL    HW147171   5.844   8.673   4.856 -0.4389  3.2690  0.2990
13778SOL    HW247172   5.939   8.665   4.738 -0.5083 -1.1239  0.3789
13779SOL     OW47173   9.824   6.479   1.656  0.4865 -0.3052 -0.1279
13779SOL    HW147174   9.889   6.410   1.670  1.5930  0.9403  1.2288
13779SOL    HW247175   9.747   6.449   1.703  0.0436 -1.7750 -1.6949
13780SOL     OW47176   8.070   3.791   5.387  0.6695  0.2354 -0.6585
13780SOL    HW147177   8.161   3.762   5.391  0.1579 -1.6256 -1.4966
13780SOL    HW247178   8.062   3.855   5.458  2.2201 -0.7211  0.4469
13781SOL     OW47179   9.075   6.101   1.095  0.6375 -0.1373  0.5790
13781SOL    HW147180   9.068   6.018   1.142  1.6089  0.0375  1.0531
13781SOL    HW247181   9.048   6.167   1.159  0.3604 -0.0441  0.3662
13782SOL     OW47182   8.951   6.477   5.745  0.0372 -0.6161  0.3468
13782SOL    HW147183   8.896   6.441   5.814  0.7175 -2.2503  0.0970
13782SOL    HW247184   8.890   6.511   5.680 -0.6774 -1.8656  0.3459
13783SOL     OW47185   5.980  10.533  12.197 -0.1699 -0.4921  0.6633
13783SOL    HW147186   5.935  10.615  12.176 -2.5719 -1.9488 -0.2915
13783SOL    HW247187   6.039  10.519  12.123 -2.4183 -1.3465 -1.0930
13784SOL     OW47188  11.309   2.135   8.917 -0.2300 -0.4946  0.1735
13784SOL    HW147189  11.299   2.109   8.826  0.0622  0.4923 -0.1500
13784SOL    HW247190  11.290   2.055   8.967 -1.0712 -0.8730 -0.7145
13785SOL     OW47191   7.441   0.144   7.279 -0.3937  0.3908  0.1965
13785SOL    HW147192   7.436   0.170   7.187 -1.6153  0.2788  0.2126
13785SOL    HW247193   7.366   0.186   7.320 -0.7886 -0.8624  0.8063
13786SOL     OW47194   4.244   4.740  11.107 -0.7694  0.0055  0.4905
13786SOL    HW147195   4.283   4.685  11.175 -0.7445  0.7917  1.1379
13786SOL    HW247196   4.150   4.723  11.114 -0.5797 -2.3527 -1.4809
13787SOL     OW47197   1.372   4.593  12.084  0.3702 -0.4051 -0.0863
13787SOL    HW147198   1.349   4.647  12.160 -0.2727  0.3544 -0.7913
13787SOL    HW247199   1.465   4.575  12.095  0.1188 -1.0118  1.2984
13788SOL     OW47200  11.106   5.855   5.275  0.3584 -0.1888 -0.5357
13788SOL    HW147201  11.057   5.789   5.325  2.2705 -0.5267  0.9939
13788SOL    HW247202  11.172   5.888   5.336  0.2449  2.3123 -1.6363
13789SOL     OW47203   1.958   7.287   6.215  0.3453 -0.1377 -0.0344
13789SOL    HW147204   1.870   7.310   6.186  0.6608 -0.4222 -1.2819
13789SOL    HW247205   1.959   7.310   6.308 -0.7200  0.8109 -0.2279
13790SOL     OW47206   1.757   3.857  11.642  0.4460 -1.0284 -0.3600
13790SOL    HW147207   1.765   3.827  11.552  0.4703  1.5096 -1.2960
13790SOL    HW247208   1.669   3.895  11.648  0.5376 -0.9190  0.6000
13791SOL     OW47209  11.526  11.146   1.704  0.2473  0.3306 -0.0889
13791SOL    HW147210  11.455  11.084   1.689  0.5636 -0.4449  1.4161
13791SOL    HW247211  11.589  11.129   1.634 -0.7007  0.5316 -1.0084
13792SOL     OW47212  11.086   8.792   0.789 -0.2463 -0.3179 -0.2512
13792SOL    HW147213  10.997   8.785   0.755  0.2470 -3.5664 -1.2244
13792SOL    HW247214  11.124   8.866   0.742 -1.8408 -0.0560 -1.2139
13793SOL     OW47215   2.691   1.622   7.541  0.7319 -0.3941  0.4311
13793SOL    HW147216   2.768   1.645   7.592  1.4170 -0.0628 -0.6983
13793SOL    HW247217   2.659   1.706   7.506  0.3824 -0.6258  0.1844
13794SOL     OW47218   4.469   1.681   2.481 -0.3980 -0.7073  0.3919
13794SOL    HW147219   4.475   1.599   2.529  2.3119 -0.5406  0.5078
13794SOL    HW247220   4.437   1.745   2.545 -0.9560 -1.3251  0.7391
13795SOL     OW47221   8.848   1.288   6.766  0.0506 -0.1375 -0.4652
13795SOL    HW147222   8.846   1.371   6.814  2.3336  0.3109 -0.9949
13795SOL    HW247223   8.792   1.230   6.816 -0.1278  1.1953  0.9728
13796SOL     OW47224   9.589  10.919   8.336  0.0005 -0.3891 -0.1564
13796SOL    HW147225   9.605  10.975   8.412 -0.6982 -0.7005  0.2295
13796SOL    HW247226   9.625  10.833   8.361  0.2217 -0.3654 -0.3806
13797SOL     OW47227  10.779   4.426   2.509 -0.1593 -0.0918 -0.0239
13797SOL    HW147228  10.697   4.416   2.557 -0.8531 -0.4950 -1.2439
13797SOL    HW247229  10.761   4.495   2.445 -0.1063 -1.2430 -1.3519
13798SOL     OW47230   3.793   2.481   8.735  0.4105  0.6436 -0.1215
13798SOL    HW147231   3.870   2.493   8.790  1.5161 -0.3657 -1.3834
13798SOL    HW247232   3.735   2.425   8.787  0.6831  1.0956  0.6808
13799SOL     OW47233   1.749   8.446   7.248 -0.1200  0.2711  0.3139
13799SOL    HW147234   1.677   8.437   7.310 -0.9929  0.6575 -0.6190
13799SOL    HW247235   1.817   8.492   7.297 -0.4341 -0.2465  1.2574
13800SOL     OW47236   5.242   4.009   0.291  0.3370 -0.2967  0.1595
13800SOL    HW147237   5.151   4.004   0.322  0.7766 -2.7142  1.3518
13800SOL    HW247238   5.289   4.051   0.363  0.4135 -0.6238  0.3056
13801SOL     OW47239   1.762   4.835   3.039 -0.0656 -0.0265 -0.5153
13801SOL    HW147240   1.851   4.804   3.057 -0.5703 -0.9794  0.4257
13801SOL    HW247241   1.744   4.898   3.109 -0.5891 -0.8013  0.0676
13802SOL     OW47242   7.437   5.732   7.370  0.1854  0.1326 -0.4125
13802SOL    HW147243   7.482   5.649   7.357 -0.1673  0.0289 -0.9979
13802SOL    HW247244   7.506   5.798   7.370  0.3616 -0.0531 -1.0486
13803SOL     OW47245   0.905  10.634   1.530  0.2848 -0.0286 -0.0413
13803SOL    HW147246   0.901  10.708   1.469  0.3684  0.6391  0.7493
13803SOL    HW247247   0.840  10.654   1.597 -1.5550 -1.9260 -1.1438
13804SOL     OW47248   2.494   1.842   5.292 -0.0793  0.2812  0.2226
13804SOL    HW147249   2.455   1.776   5.234  1.9543  0.3113 -1.2712
13804SOL    HW247250   2.459   1.925   5.261  1.6932  0.3942 -1.6845
13805SOL     OW47251   2.188   5.313   3.689  0.6043 -0.0631  0.3063
13805SOL    HW147252   2.229   5.250   3.630  0.8532 -0.2985  0.7274
13805SOL    HW247253   2.140   5.373   3.631 -0.6725 -1.3610 -0.0399
13806SOL     OW47254   0.111   9.577   1.719  0.2230 -0.0744  0.3497
13806SOL    HW147255   0.041   9.614   1.665  0.8752  1.3883  0.4610
13806SOL    HW247256   0.168   9.531   1.656  0.7794  1.3012 -0.1978
13807SOL     OW47257   2.560   7.074   3.252  0.5128  0.4105 -0.4103
13807SOL    HW147258   2.635   7.079   3.311  0.4749 -1.6864 -0.1286
13807SOL    HW247259   2.582   7.134   3.180  1.8014  0.8954  0.3552
13808SOL     OW47260   8.447   9.186  10.172 -0.0053 -0.0334 -0.3886
13808SOL    HW147261   8.510   9.222  10.236  0.0870 -0.4404 -0.2510
13808SOL    HW247262   8.464   9.236  10.092  0.7899 -0.4337 -0.4763
13809SOL     OW47263   7.840   8.861   8.827  0.3409  0.3253 -0.0210
13809SOL    HW147264   7.795   8.835   8.746 -0.3975 -0.7292  0.7013
13809SOL    HW247265   7.869   8.778   8.865  0.4462  0.7875  0.9298
13810SOL     OW47266   2.822   5.626   0.255 -0.0774 -0.9983 -0.2139
13810SOL    HW147267   2.753   5.659   0.312  0.1432 -0.9269  0.0130
13810SOL    HW247268   2.780   5.616   0.170  0.0425  0.6617 -0.5051
13811SOL     OW47269  10.363   8.969   4.163 -0.1170  0.4960  0.6373
13811SOL    HW147270  10.355   9.058   4.131 -0.2468  0.3300  0.2021
13811SOL    HW247271  10.366   8.977   4.258 -0.7224  0.9131  0.6193
13812SOL     OW47272  11.457   0.875   5.651 -0.7038  0.0783 -0.8956
13812SOL    HW147273  11.546   0.897   5.677 -0.8509  0.3538 -0.6238
13812SOL    HW247274  11.455   0.779   5.651 -0.6288  0.0709 -0.1328
13813SOL     OW47275  11.935   1.617   3.176 -0.2641  0.0719  0.1167
13813SOL    HW147276  12.015   1.621   3.228 -0.2459  1.7609 -0.0163
13813SOL    HW247277  11.964   1.628   3.086 -0.5484 -0.3543 -0.0285
13814SOL     OW47278   2.499   7.526   2.111  0.2669 -0.4322 -0.6137
13814SOL    HW147279   2.515   7.607   2.062 -0.0534 -0.1102 -0.1961
13814SOL    HW247280   2.578   7.515   2.165 -0.2689  0.3826  0.3851
13815SOL     OW47281   8.203   4.105   6.925 -0.8380 -0.2771  0.7467
13815SOL    HW147282   8.123   4.099   6.976 -0.8914  0.2840  0.7434
13815SOL    HW247283   8.226   4.198   6.927  0.7294 -0.6399  2.1561
13816SOL     OW47284  10.784   1.289  12.277 -0.2077  0.0674  0.0387
13816SOL    HW147285  10.837   1.365  12.255  0.3168 -0.4410 -0.4990
13816SOL    HW247286  10.758   1.253  12.192  0.7685 -1.1893  0.2403
13817SOL     OW47287   5.889  10.249   1.007 -0.4594  0.0099  0.1367
13817SOL    HW147288   5.923  10.176   0.956  0.3233 -0.3917  1.1947
13817SOL    HW247289   5.926  10.327   0.966 -1.6230 -0.1352 -1.2478
13818SOL     OW47290  11.178   2.569   5.428 -0.4263 -0.0478 -0.2416
13818SOL    HW147291  11.159   2.547   5.337 -0.3806  1.1038 -0.5376
13818SOL    HW247292  11.273   2.583   5.429 -0.2488 -1.1616  0.2375
13819SOL     OW47293   1.918   7.416   0.965 -0.2232 -0.3183 -0.3839
13819SOL    HW147294   2.013   7.424   0.978 -0.5431  2.1784  0.8808
13819SOL    HW247295   1.880   7.444   1.048 -2.1093  0.4528 -1.4483
13820SOL     OW47296   1.032   3.680   4.696 -0.8305 -0.4235  0.3764
13820SOL    HW147297   1.127   3.674   4.709 -0.6655  3.4285  2.1669
13820SOL    HW247298   1.021   3.673   4.601  1.5093  1.0255 -0.0835
13821SOL     OW47299   4.165   7.610   2.067  0.0070  0.0513 -0.1397
13821SOL    HW147300   4.213   7.626   2.149  0.9050  2.6240 -1.0761
13821SOL    HW247301   4.230   7.568   2.010 -0.0093  0.0741 -0.1748
13822SOL     OW47302   9.536   0.145   4.183  0.5307  0.0695 -0.1174
13822SOL    HW147303   9.561   0.222   4.234  1.4388 -1.0880  1.3060
13822SOL    HW247304   9.461   0.109   4.230  0.4006 -0.1697 -0.5035
13823SOL     OW47305   2.764  10.825  10.307 -0.0754  0.4429  0.1429
13823SOL    HW147306   2.697  10.893  10.298 -0.1963  0.3374  0.2449
13823SOL    HW247307   2.736  10.773  10.382  0.9585  1.3530  1.2054
13824SOL     OW47308   7.290   4.710   7.695  0.2964  0.3275 -0.2846
13824SOL    HW147309   7.381   4.724   7.669  0.3634  1.1175  0.3783
13824SOL    HW247310   7.293   4.693   7.789 -0.2193  0.1109 -0.3006
13825SOL     OW47311   7.057  10.452   7.070 -0.4242 -0.1382  0.1773
13825SOL    HW147312   7.000  10.375   7.073  0.0150 -0.5270 -0.9373
13825SOL    HW247313   7.048  10.491   7.156 -1.8057 -0.6012  0.2718
13826SOL     OW47314  11.891   4.222   1.999 -0.2421 -0.0615 -0.0588
13826SOL    HW147315  11.934   4.269   2.071 -0.0167  0.1788 -0.3470
13826SOL    HW247316  11.831   4.287   1.961 -3.1784 -1.1862  2.2003
13827SOL     OW47317   6.477   7.760   5.332  0.3231  0.2110 -0.1980
13827SOL    HW147318   6.503   7.790   5.419  0.8854  1.1361 -0.6643
13827SOL    HW247319   6.541   7.800   5.273 -1.1133  1.1304 -1.2217
13828SOL     OW47320  12.179   9.523   0.384  0.4039 -0.3575 -0.2740
13828SOL    HW147321  12.125   9.594   0.350 -0.4786 -0.3915  1.0410
13828SOL    HW247322  12.132   9.489   0.459  2.6078  0.1388  1.4464
13829SOL     OW47323   9.731   4.268  11.734  0.1434  0.0998  0.4131
13829SOL    HW147324   9.702   4.308  11.816  1.2534  1.9804 -0.0601
13829SOL    HW247325   9.657   4.278  11.674 -0.2785 -0.3219  0.8491
13830SOL     OW47326   0.077   5.198   1.701  0.1153 -0.1612  0.0969
13830SOL    HW147327   0.092   5.290   1.722 -2.7985 -0.0501  2.3895
13830SOL    HW247328  -0.017   5.186   1.712  0.2681 -3.2495 -0.9667
13831SOL     OW47329   4.508   1.180  10.987 -0.1484 -0.2450  0.2933
13831SOL    HW147330   4.576   1.116  10.966 -0.8962 -0.9302 -0.0902
13831SOL    HW247331   4.442   1.169  10.918  1.1593  3.1884 -1.7446
13832SOL     OW47332  12.224   9.058   7.088  0.2838  0.1978 -0.2613
13832SOL    HW147333  12.263   8.977   7.120  0.7158  0.5741  0.1867
13832SOL    HW247334  12.280   9.084   7.015  1.7411  1.4378  1.2000
13833SOL     OW47335   5.002   9.432  10.128  0.3528 -0.1348 -0.6285
13833SOL    HW147336   4.955   9.502  10.174  1.5126  0.7730 -0.7899
13833SOL    HW247337   4.951   9.416  10.049  0.6184  1.2456 -1.0914
13834SOL     OW47338  10.227   1.831   2.866  0.1088 -0.5019 -0.7530
13834SOL    HW147339  10.256   1.920   2.885 -1.6816 -0.3003  1.5767
13834SOL    HW247340  10.229   1.824   2.771  2.4954  1.2061 -0.9002
13835SOL     OW47341   5.457   2.729   4.375  0.1661  0.0366  0.1154
13835SOL    HW147342   5.458   2.825   4.384  0.3874 -0.0716  1.4814
13835SOL    HW247343   5.439   2.697   4.464 -0.7787 -1.1754 -0.4853
13836SOL     OW47344   9.365   2.373   9.618 -0.1104 -0.0980 -0.1251
13836SOL    HW147345   9.402   2.312   9.682 -1.6585 -1.5796 -0.5804
13836SOL    HW247346   9.325   2.442   9.672  1.1830  0.2717  0.4006
13837SOL     OW47347   6.861   3.441   4.646 -0.0060 -0.0671 -0.3667
13837SOL    HW147348   6.830   3.407   4.563  2.9530 -0.0718 -1.5938
13837SOL    HW247349   6.902   3.366   4.689  1.4950  0.6274 -0.5114
13838SOL     OW47350   7.557   3.472   2.011 -0.0152  0.0945  0.3451
13838SOL    HW147351   7.597   3.508   2.090  0.3335  2.4132 -0.8269
13838SOL    HW247352   7.483   3.529   1.992 -1.3570 -1.6502  0.1034
13839SOL     OW47353   8.621   2.118   3.423  0.7421  0.5882 -0.1480
13839SOL    HW147354   8.657   2.169   3.351  0.6223  1.4451  0.3817
13839SOL    HW247355   8.673   2.143   3.499  0.3084  0.3498  0.2359
13840SOL     OW47356   7.146   7.931   6.783 -0.2216  0.1604  0.1799
13840SOL    HW147357   7.131   7.921   6.689 -0.1290  0.1968  0.1606
13840SOL    HW247358   7.216   7.868   6.802  0.0220  0.4200  0.1525
13841SOL     OW47359   9.424   6.492   6.674  0.1747 -0.3283  0.3700
13841SOL    HW147360   9.382   6.411   6.703  0.0546  0.0567  1.2961
13841SOL    HW247361   9.505   6.497   6.726 -0.0645  0.3923  0.6843
13842SOL     OW47362   8.743   0.754   9.243  0.1431  0.3699  0.2898
13842SOL    HW147363   8.687   0.826   9.216  0.1153  0.2560  0.0407
13842SOL    HW247364   8.817   0.796   9.287  1.7569  0.8169 -2.5832
13843SOL     OW47365   2.944   7.214  12.043 -0.1721  0.0486 -0.1741
13843SOL    HW147366   2.994   7.133  12.031 -0.7230 -0.7509  2.3228
13843SOL    HW247367   3.011   7.281  12.061  0.2264 -0.0514 -1.2346
13844SOL     OW47368   1.385   2.592   7.535  0.2628 -0.6289  0.3240
13844SOL    HW147369   1.373   2.640   7.617 -0.8863  0.0020 -0.1914
13844SOL    HW247370   1.480   2.584   7.526  0.4400  0.3342  1.1204
13845SOL     OW47371   1.628  11.793   9.959  0.5525  0.3763 -0.4597
13845SOL    HW147372   1.630  11.721   9.897  4.8161 -1.7282  1.6544
13845SOL    HW247373   1.663  11.868   9.910 -0.9069  0.2156 -1.8251
13846SOL     OW47374  10.091   8.273   3.588  0.3092 -0.0222  0.0494
13846SOL    HW147375  10.107   8.216   3.512  0.7073 -0.7624  0.6757
13846SOL    HW247376  10.016   8.233   3.632 -0.7088  1.1070 -0.6117
13847SOL     OW47377   4.718  10.135   8.026  0.2703 -0.2393 -0.0806
13847SOL    HW147378   4.740  10.226   8.005 -0.1917 -0.1069  0.0110
13847SOL    HW247379   4.786  10.108   8.088  0.6631 -0.0994 -0.4427
13848SOL     OW47380   3.012  11.836  11.705  0.0590 -0.2437  0.3780
13848SOL    HW147381   2.918  11.826  11.713  0.0444 -1.7009 -1.2045
13848SOL    HW247382   3.025  11.930  11.693 -1.3243 -0.1748 -0.7689
13849SOL     OW47383   6.719   3.564   1.799 -0.1068 -0.4341  0.5539
13849SOL    HW147384   6.809   3.587   1.778 -0.9482  0.6850 -2.1922
13849SOL    HW247385   6.667   3.639   1.769 -2.1264 -1.8648  0.2792
13850SOL     OW47386   8.129   3.765  11.646 -0.2503  0.1440 -0.7233
13850SOL    HW147387   8.044   3.723  11.658  0.1425 -0.4695 -0.0568
13850SOL    HW247388   8.183   3.699  11.603  0.9194 -0.7560  1.9468
13851SOL     OW47389  10.496   2.954   9.499 -0.3436 -0.8413  0.4123
13851SOL    HW147390  10.465   2.863   9.503  0.1367 -1.0211  4.5353
13851SOL    HW247391  10.443   3.000   9.563 -1.5684  2.3039 -2.5580
13852SOL     OW47392   6.434  11.929   1.054  0.0224  0.2440  0.1510
13852SOL    HW147393   6.384  11.988   0.997 -2.6455 -3.2545 -1.5382
13852SOL    HW247394   6.390  11.932   1.138 -0.2673  0.4730 -0.0092
13853SOL     OW47395   2.885   9.526   6.529 -0.7758  0.1527  0.3644
13853SOL    HW147396   2.954   9.531   6.463 -0.6203 -0.6255  0.4607
13853SOL    HW247397   2.828   9.601   6.510 -0.7903 -0.1168 -0.7052
13854SOL     OW47398   1.923   1.581  11.670  0.0407 -0.7289 -0.6833
13854SOL    HW147399   1.951   1.672  11.670 -0.2689 -0.6019  0.8352
13854SOL    HW247400   1.832   1.583  11.640 -0.3349 -0.3868  0.4409
13855SOL     OW47401   4.471   6.168   5.255  0.8676  0.9019 -0.0350
13855SOL    HW147402   4.430   6.081   5.258 -0.3750  1.4951  1.1260
13855SOL    HW247403   4.559   6.152   5.220  0.2795 -0.6646 -0.8946
13856SOL     OW47404   1.142   2.425   0.806  0.1707 -0.3595 -0.0200
13856SOL    HW147405   1.150   2.343   0.854  2.1007 -0.9784 -1.3027
13856SOL    HW247406   1.072   2.410   0.744  0.7614 -1.1983 -0.5020
13857SOL     OW47407   3.939   7.298   9.205  0.3024  0.4295 -0.1520
13857SOL    HW147408   3.980   7.335   9.283 -0.3184  0.8678 -0.0309
13857SOL    HW247409   3.863   7.353   9.189 -1.3015 -1.4329  0.6733
13858SOL     OW47410   1.115   4.203   4.786  0.0884  0.4415  0.2671
13858SOL    HW147411   1.172   4.130   4.762 -0.4771 -0.3071  1.1455
13858SOL    HW247412   1.141   4.274   4.727 -0.1516 -0.8095 -1.4153
13859SOL     OW47413   6.864   7.188   6.860 -0.2568 -0.4944  0.1826
13859SOL    HW147414   6.841   7.256   6.924 -1.5791 -0.1213 -0.6322
13859SOL    HW247415   6.797   7.121   6.872 -0.5686 -0.3823 -0.8434
13860SOL     OW47416   4.579  10.497   1.834  0.8767  0.3910 -0.3370
13860SOL    HW147417   4.523  10.438   1.783  1.1377 -0.1456 -0.0222
13860SOL    HW247418   4.590  10.574   1.779  0.7094  0.0499 -0.8589
13861SOL     OW47419   9.218   9.549   8.329 -0.6555  0.0775 -0.0779
13861SOL    HW147420   9.293   9.586   8.283 -0.7332 -0.2187 -0.4468
13861SOL    HW247421   9.194   9.615   8.394  0.2924 -0.0824  0.4476
13862SOL     OW47422   1.867  12.026  10.086 -0.1528  0.0359  0.8040
13862SOL    HW147423   1.914  12.101  10.123 -2.1696  1.8480 -0.0974
13862SOL    HW247424   1.829  11.982  10.162  1.7190 -0.6689  1.4184
13863SOL     OW47425   5.163   2.935  11.614  0.3730 -0.8955 -0.2250
13863SOL    HW147426   5.148   2.842  11.630  0.3833 -1.1660 -1.6873
13863SOL    HW247427   5.130   2.978  11.693 -0.4217 -2.0681  0.1169
13864SOL     OW47428   3.128   8.881   4.806  0.2601 -0.1967  0.3726
13864SOL    HW147429   3.080   8.900   4.725 -0.2029 -1.0751  0.4205
13864SOL    HW247430   3.218   8.905   4.787 -0.1940  1.5420  0.2925
13865SOL     OW47431  11.645   1.812   6.712  0.6991  0.5074  0.5093
13865SOL    HW147432  11.603   1.872   6.774 -0.9912 -1.8555  1.8127
13865SOL    HW247433  11.728   1.789   6.752  0.4034  0.3722  1.0593
13866SOL     OW47434   6.678   7.624  10.961  0.0515  0.4463 -0.0406
13866SOL    HW147435   6.664   7.531  10.976  0.2236  0.3899 -0.2165
13866SOL    HW247436   6.617   7.668  11.020  0.0076  0.2232  0.0811
13867SOL     OW47437  10.297   8.497   8.851  0.1606 -0.4498  0.1869
13867SOL    HW147438  10.354   8.564   8.890  0.2483  0.3096 -1.2102
13867SOL    HW247439  10.218   8.545   8.825 -0.0749 -1.0307 -0.1752
13868SOL     OW47440   5.807   5.429   2.827 -0.3879 -0.3853  0.0687
13868SOL    HW147441   5.751   5.480   2.885  0.4855 -0.4965  1.0482
13868SOL    HW247442   5.877   5.397   2.884 -0.9115 -2.7045 -0.5053
13869SOL     OW47443   3.118   5.608   7.799 -0.0463 -0.1073 -0.0614
13869SOL    HW147444   3.212   5.628   7.802  0.0363 -0.5492  2.2754
13869SOL    HW247445   3.083   5.666   7.732  1.3401  2.6442  1.4188
13870SOL     OW47446   3.816  11.209   7.685  0.0341 -0.3735 -0.2428
13870SOL    HW147447   3.825  11.251   7.770 -0.9071  2.2539 -1.3193
13870SOL    HW247448   3.905  11.205   7.650  0.4210 -1.4519  0.8034
13871SOL     OW47449   4.905   9.633  10.977  0.2010  0.6001 -0.6308
13871SOL    HW147450   4.993   9.596  10.966  0.3763  0.0177  1.9090
13871SOL    HW247451   4.906   9.670  11.066 -1.2736  3.1303 -1.5651
13872SOL     OW47452   3.804   1.730   7.199 -0.2999  0.1196  0.3350
13872SOL    HW147453   3.718   1.765   7.224 -0.6662 -2.1662  2.7504
13872SOL    HW247454   3.802   1.728   7.103 -2.4279  1.2627  0.2797
13873SOL     OW47455   9.090   7.747   7.606  0.1515 -0.2462  0.1293
13873SOL    HW147456   9.009   7.720   7.563  0.1607  0.6565 -0.4908
13873SOL    HW247457   9.158   7.732   7.540  0.3065  0.2076  0.1835
13874SOL     OW47458   5.885   5.962   1.896  0.0914  0.0934 -0.0624
13874SOL    HW147459   5.895   5.991   1.805 -0.6890 -2.1530 -0.9191
13874SOL    HW247460   5.792   5.972   1.915  0.1482 -0.0230  0.2853
13875SOL     OW47461  10.854   0.654   7.405 -0.0441 -0.2274 -0.4821
13875SOL    HW147462  10.804   0.684   7.329  1.1511  1.8249 -0.5187
13875SOL    HW247463  10.804   0.685   7.480  1.8103  3.2562 -0.5132
13876SOL     OW47464  11.508   8.943  12.162 -0.1857 -0.2367 -0.0345
13876SOL    HW147465  11.599   8.972  12.160 -0.7326  1.7005  0.3662
13876SOL    HW247466  11.499   8.899  12.247  0.1141  0.6291  0.4708
13877SOL     OW47467   9.869  10.277   1.029 -0.4744  0.2166  0.5043
13877SOL    HW147468   9.909  10.194   1.052 -3.3709 -0.9511  1.7572
13877SOL    HW247469   9.883  10.286   0.934  0.2205 -1.4905  0.4225
13878SOL     OW47470   2.519   3.068   0.836  0.0816 -0.4932 -0.5094
13878SOL    HW147471   2.513   3.034   0.746  2.4899 -0.4026 -0.7721
13878SOL    HW247472   2.544   3.160   0.825 -0.3282 -0.2845  0.2606
13879SOL     OW47473   3.342  11.268   8.220 -0.2193 -0.5082 -0.5180
13879SOL    HW147474   3.389  11.280   8.138  1.7178 -0.3342  0.5442
13879SOL    HW247475   3.314  11.176   8.218 -0.3302 -0.4629 -1.4236
13880SOL     OW47476  12.166   9.860   4.547  0.1437  0.4682 -0.0148
13880SOL    HW147477  12.153   9.932   4.487 -0.4976  0.9582  0.6991
13880SOL    HW247478  12.189   9.902   4.630 -1.0502 -0.1029  0.6210
13881SOL     OW47479   6.914  10.822   1.264 -0.0946 -0.2045  0.0160
13881SOL    HW147480   6.885  10.731   1.271 -0.8604  0.1473  2.4920
13881SOL    HW247481   6.943  10.844   1.352 -0.4478  2.1207 -0.3876
13882SOL     OW47482   7.997   3.147   4.446  0.1430  0.0699  0.4041
13882SOL    HW147483   7.933   3.079   4.428  0.6026 -0.0097 -1.0568
13882SOL    HW247484   7.983   3.169   4.538 -1.2597 -0.6735  0.3991
13883SOL     OW47485   2.873  11.537   8.450 -0.0485  0.4588  0.0022
13883SOL    HW147486   2.956  11.533   8.401  0.1426 -0.8321  0.3949
13883SOL    HW247487   2.810  11.491   8.395  0.8700 -3.9484  2.1609
13884SOL     OW47488   6.596   6.364   3.991  0.2247  0.5899 -0.1181
13884SOL    HW147489   6.619   6.309   3.917 -1.8094 -1.2840  0.5415
13884SOL    HW247490   6.626   6.315   4.068 -1.5535  0.3535  0.4821
13885SOL     OW47491   3.782   2.996  10.605 -0.1202 -0.0353  0.6581
13885SOL    HW147492   3.768   2.934  10.677  0.3096  2.9602  3.5757
13885SOL    HW247493   3.875   3.017  10.610 -0.5917  2.1926  1.0898
13886SOL     OW47494  12.007   3.020   8.986  0.3462  0.1450  0.2068
13886SOL    HW147495  11.915   3.010   9.010 -0.1235 -1.3708 -1.9296
13886SOL    HW247496  12.043   2.931   8.991  1.1169  0.3645 -1.1067
13887SOL     OW47497   7.123   4.259   1.194  0.0244 -0.0458  0.1326
13887SOL    HW147498   7.064   4.298   1.130 -1.4345 -1.4315  0.5729
13887SOL    HW247499   7.148   4.175   1.156  1.6870  0.4613  0.0064
13888SOL     OW47500   0.395   8.718   0.597  0.1416  0.6588 -0.0670
13888SOL    HW147501   0.313   8.702   0.551  1.0264 -0.2510 -1.4251
13888SOL    HW247502   0.371   8.720   0.690 -1.5261  1.3234 -0.4866
13889SOL     OW47503   9.138   2.637   4.485 -0.3591  0.8510 -0.0131
13889SOL    HW147504   9.173   2.558   4.525  1.3890  1.3211 -0.5480
13889SOL    HW247505   9.045   2.618   4.472  0.0195 -1.1082 -0.1306
13890SOL     OW47506   3.214   5.338  11.343 -0.1333 -0.1856  0.1343
13890SOL    HW147507   3.153   5.264  11.341  1.1565 -1.2831 -2.1869
13890SOL    HW247508   3.192   5.384  11.424 -3.6750 -0.7797 -0.3232
13891SOL     OW47509   5.336   2.919   2.118  0.5178 -0.0071  0.0348
13891SOL    HW147510   5.322   2.837   2.071  2.1757 -0.8916  1.0257
13891SOL    HW247511   5.256   2.970   2.100 -1.2144 -2.3678  0.5789
13892SOL     OW47512   5.810   4.267   7.855 -0.1827  0.0269 -0.3615
13892SOL    HW147513   5.873   4.233   7.791 -0.3414 -1.1422  0.0679
13892SOL    HW247514   5.856   4.338   7.899  0.1512  0.4355 -1.3290
13893SOL     OW47515   6.673   6.291   6.986 -0.3301 -0.6916  0.2739
13893SOL    HW147516   6.731   6.354   6.942  0.5544 -0.1878  2.0498
13893SOL    HW247517   6.622   6.251   6.915  1.0120  0.0652 -1.1776
13894SOL     OW47518  11.653   2.530   4.777 -0.3640 -0.4426 -0.2316
13894SOL    HW147519  11.687   2.530   4.688 -1.6939  1.2470 -0.8002
13894SOL    HW247520  11.671   2.442   4.810  5.7028  0.4779  0.0970
13895SOL     OW47521   7.396  10.763   6.131 -0.1920 -0.3846  0.4279
13895SOL    HW147522   7.461  10.826   6.161  0.3982 -0.3127 -0.9384
13895SOL    HW247523   7.314  10.795   6.169  0.6465 -0.9780  2.8955
13896SOL     OW47524   9.916   8.348   2.296  0.4895  0.1706  0.3174
13896SOL    HW147525   9.994   8.375   2.344  0.7490  1.3140 -0.7109
13896SOL    HW247526   9.892   8.424   2.242 -0.8464 -0.4451 -0.0109
13897SOL     OW47527   6.575   7.232   8.480  0.1011  0.2432 -0.0219
13897SOL    HW147528   6.541   7.301   8.423  0.7164  0.6403  0.0825
13897SOL    HW247529   6.643   7.189   8.428  0.3797  0.3390  0.2618
13898SOL     OW47530  12.133   2.495   3.036 -0.1504  0.2173 -0.6835
13898SOL    HW147531  12.089   2.540   3.108 -1.4557 -0.8983 -0.7470
13898SOL    HW247532  12.131   2.557   2.964 -0.5662  0.6248 -0.3267
13899SOL     OW47533   9.458  10.258   4.390  0.1391  0.3043  0.7966
13899SOL    HW147534   9.476  10.230   4.300 -2.3290  0.8726  0.0300
13899SOL    HW247535   9.461  10.178   4.442  2.3601  0.0722  0.4085
13900SOL     OW47536   1.961  12.301   3.070  0.4963  0.5308  0.5008
13900SOL    HW147537   1.958  12.224   3.013 -1.7431  0.6077  0.4600
13900SOL    HW247538   2.038  12.286   3.125  0.0691 -1.8120  0.5772
13901SOL     OW47539   1.234   0.776   9.408 -0.4049 -0.7299  0.6743
13901SOL    HW147540   1.140   0.780   9.427 -0.5510 -0.7619  0.0054
13901SOL    HW247541   1.276   0.809   9.487 -1.0465  1.0541  0.3379
13902SOL     OW47542   6.573   8.975   6.824  0.2791 -0.4938  0.3610
13902SOL    HW147543   6.540   9.019   6.745  1.2416 -1.6410 -0.7387
13902SOL    HW247544   6.495   8.933   6.861 -0.0091 -0.9409 -0.6843
13903SOL     OW47545   6.117  11.021   4.994  0.2304  0.4040  0.0120
13903SOL    HW147546   6.079  10.940   5.027 -0.7097  1.8776  2.7854
13903SOL    HW247547   6.057  11.050   4.926 -0.9036  0.1416  0.8794
13904SOL     OW47548   4.848   4.467  10.016  0.3812  0.7508 -0.2832
13904SOL    HW147549   4.775   4.460   9.954 -0.7163  0.8410  0.9260
13904SOL    HW247550   4.861   4.561  10.027 -1.0581  0.8040  1.3752
13905SOL     OW47551   1.449   8.403   3.609  0.1690 -0.1215  0.7155
13905SOL    HW147552   1.379   8.376   3.550  2.0498 -1.5486 -1.0299
13905SOL    HW247553   1.529   8.392   3.558  1.7137  1.4356  2.6014
13906SOL     OW47554   4.749  11.611   5.811  0.5612 -0.0356  0.1158
13906SOL    HW147555   4.755  11.637   5.903 -0.3077 -0.6460  0.3586
13906SOL    HW247556   4.669  11.559   5.806  0.6782 -0.1350 -0.9604
13907SOL     OW47557   9.261   1.908   5.352 -0.0175  0.1268  0.1534
13907SOL    HW147558   9.352   1.892   5.375  0.1859  0.4935 -0.3846
13907SOL    HW247559   9.250   2.003   5.361 -0.1723  0.1650 -0.3870
13908SOL     OW47560   9.066   4.430   9.762  0.0123 -0.3639 -0.1685
13908SOL    HW147561   9.043   4.397   9.849  1.9117 -0.8864  0.1802
13908SOL    HW247562   9.040   4.522   9.765 -1.2513 -0.7102  0.4262
13909SOL     OW47563  10.652   5.650   6.712  0.5267 -0.9232 -0.6544
13909SOL    HW147564  10.734   5.620   6.673  0.5095 -1.2127 -0.4742
13909SOL    HW247565  10.664   5.744   6.722  0.5217 -0.8407 -1.3685
13910SOL     OW47566   0.896  10.760   1.954  0.4612  0.2241  0.9972
13910SOL    HW147567   0.872  10.713   1.874  0.1472  1.4471  0.3405
13910SOL    HW247568   0.954  10.830   1.924 -0.2615  1.1598  1.7377
13911SOL     OW47569   0.162   3.795   9.627  0.0994  0.0900 -0.3784
13911SOL    HW147570   0.229   3.860   9.606 -1.0443  0.9620 -1.4553
13911SOL    HW247571   0.176   3.775   9.719  1.8240  0.2471 -0.5713
13912SOL     OW47572   8.700   9.827   9.669  0.2557  0.0118  0.2015
13912SOL    HW147573   8.620   9.784   9.699  0.2234  0.2410  0.4467
13912SOL    HW247574   8.751   9.757   9.628 -0.0248 -0.1538  0.1367
13913SOL     OW47575   6.770   4.678   2.565  0.0787 -0.6009 -0.4605
13913SOL    HW147576   6.700   4.703   2.626 -0.3761 -1.8905 -0.4349
13913SOL    HW247577   6.807   4.762   2.537 -0.9863  0.0855  0.0904
13914SOL     OW47578   7.711   7.040   6.806 -0.2361 -0.3463  0.1655
13914SOL    HW147579   7.737   6.955   6.841 -0.0825 -0.3683  0.0013
13914SOL    HW247580   7.664   7.019   6.725  0.3149 -0.2496 -0.1840
13915SOL     OW47581   9.816   9.279   3.699 -0.6440 -0.2748 -0.1945
13915SOL    HW147582   9.783   9.221   3.630  1.9573 -1.4257 -0.5792
13915SOL    HW247583   9.767   9.251   3.777 -0.2613 -2.2934 -0.6082
13916SOL     OW47584   8.214  12.139   3.302  0.5408 -0.1886  0.4406
13916SOL    HW147585   8.282  12.196   3.338 -0.0110 -1.0036  2.9463
13916SOL    HW247586   8.245  12.050   3.320  0.0948 -0.6467 -0.9308
13917SOL     OW47587   6.325   1.027   6.385  0.1107  0.3170 -0.0136
13917SOL    HW147588   6.236   1.021   6.422  0.4931 -2.6136  0.6716
13917SOL    HW247589   6.312   1.065   6.298 -1.5507  1.7657  0.7969
13918SOL     OW47590   8.803  11.066   0.053  0.1762 -0.6090  0.0071
13918SOL    HW147591   8.893  11.099   0.058  0.1308 -0.1506 -1.7288
13918SOL    HW247592   8.766  11.085   0.139  1.7049 -0.7475  0.7389
13919SOL     OW47593  11.282   5.867  11.832  0.7120 -0.5791  0.5472
13919SOL    HW147594  11.331   5.949  11.828  0.5781 -0.5067  0.3851
13919SOL    HW247595  11.215   5.883  11.898  1.0786 -0.7745  0.9792
13920SOL     OW47596   0.949   3.164  11.549 -0.1239 -0.2249 -0.0903
13920SOL    HW147597   0.913   3.083  11.511 -1.4106  0.2627  0.0275
13920SOL    HW247598   0.947   3.149  11.643  1.5718 -0.8230 -0.1257
13921SOL     OW47599   0.551  11.787   0.922  0.0156  0.3064 -0.3978
13921SOL    HW147600   0.479  11.849   0.919  0.0429  0.3026 -2.0806
13921SOL    HW247601   0.595  11.804   1.005 -0.7830  1.6096 -0.2325
13922SOL     OW47602   3.960   1.444   1.459  0.4185 -0.3952 -0.2526
13922SOL    HW147603   4.014   1.372   1.492 -0.8057 -1.2038  0.0546
13922SOL    HW247604   3.899   1.463   1.530 -0.9922 -0.8432 -1.3006
13923SOL     OW47605   8.661   5.191   2.219  0.4113 -0.2457  0.4325
13923SOL    HW147606   8.654   5.128   2.148  1.8089  1.3059 -1.1802
13923SOL    HW247607   8.572   5.201   2.251 -0.1416 -1.5122 -0.6352
13924SOL     OW47608   5.388   5.304  11.397  0.1451  0.0375  0.4373
13924SOL    HW147609   5.456   5.318  11.464 -0.6271  0.2237  1.1941
13924SOL    HW247610   5.318   5.364  11.421 -0.9707 -1.2837  0.5955
13925SOL     OW47611   9.227   3.646   9.314  0.7364  0.2918 -0.7715
13925SOL    HW147612   9.159   3.602   9.365  1.0785  0.9259  0.2720
13925SOL    HW247613   9.192   3.734   9.297  0.3935 -0.0861 -2.1444
13926SOL     OW47614   0.604  11.400   3.360 -0.1707  0.1770 -0.1123
13926SOL    HW147615   0.611  11.367   3.270 -0.2651  0.2034 -0.1303
13926SOL    HW247616   0.677  11.461   3.369 -0.1377  0.1439 -0.1585
13927SOL     OW47617   7.920   5.642   4.984  0.0171 -0.2763  0.4572
13927SOL    HW147618   7.881   5.561   5.016 -0.0889 -0.6753 -0.6269
13927SOL    HW247619   7.873   5.660   4.902  1.2009 -0.0322 -0.1839
13928SOL     OW47620   8.255   7.073   5.231 -0.3986  0.0058  0.3490
13928SOL    HW147621   8.228   6.981   5.218 -0.5785  0.1885 -0.7338
13928SOL    HW247622   8.328   7.068   5.292  0.1398 -0.9605 -0.3297
13929SOL     OW47623   3.978  12.099   7.166 -0.2063 -0.0398  0.9489
13929SOL    HW147624   3.972  12.194   7.176  1.0127  0.2131 -0.3943
13929SOL    HW247625   4.051  12.074   7.224  0.8997  0.1715 -0.3111
13930SOL     OW47626   9.623   1.601   0.422  0.8800 -0.4236  0.1452
13930SOL    HW147627   9.675   1.672   0.384  0.8518 -0.4957 -0.0296
13930SOL    HW247628   9.580   1.560   0.347 -0.0981  0.1721  0.3700
13931SOL     OW47629   9.700   3.623   0.700  0.2920  1.0712  0.1551
13931SOL    HW147630   9.665   3.538   0.727 -1.6231  1.4772 -0.8892
13931SOL    HW247631   9.704   3.675   0.780  2.3394 -0.2113  0.9789
13932SOL     OW47632   3.454   0.422   3.779  0.0980  0.2879  0.7538
13932SOL    HW147633   3.391   0.472   3.726  0.7357 -0.6493 -0.9842
13932SOL    HW247634   3.522   0.485   3.801 -0.0207  0.6287  0.1744
13933SOL     OW47635  10.813   9.865   5.323 -0.4258  0.0263 -0.3230
13933SOL    HW147636  10.839   9.779   5.355 -0.1393  0.6838  1.3021
13933SOL    HW247637  10.743   9.893   5.382 -0.7741  0.7683 -1.0602
13934SOL     OW47638   9.097   4.705  11.479 -0.4293 -0.2291 -0.0692
13934SOL    HW147639   9.097   4.685  11.572 -0.7622 -1.9459 -0.4092
13934SOL    HW247640   9.072   4.798  11.475  2.1033  0.6430  1.6331
13935SOL     OW47641  10.362   4.039   1.443 -0.5098  0.0025  0.8146
13935SOL    HW147642  10.328   4.087   1.367  0.1136 -0.0160  0.5130
13935SOL    HW247643  10.360   3.948   1.416 -0.4428 -0.0195  0.8835
13936SOL     OW47644   6.573   3.992   2.280 -0.3106 -0.5119 -0.2368
13936SOL    HW147645   6.624   4.071   2.262 -0.4386 -0.1750  0.8194
13936SOL    HW247646   6.549   3.958   2.193  1.4967 -0.5498 -0.7521
13937SOL     OW47647   9.421   9.715   8.242  0.1644  0.5604 -0.3852
13937SOL    HW147648   9.384   9.789   8.290  1.6697  1.5743 -0.7533
13937SOL    HW247649   9.394   9.729   8.151 -0.8191 -0.1814 -0.2285
13938SOL     OW47650   3.306   7.706  10.593 -0.1031  0.0558 -0.0329
13938SOL    HW147651   3.382   7.711  10.535 -0.7112 -1.0360 -0.9471
13938SOL    HW247652   3.236   7.669  10.539 -0.6136 -1.2840  1.4661
13939SOL     OW47653   5.363   0.727   7.236  0.3067 -0.3564 -0.0814
13939SOL    HW147654   5.422   0.763   7.170  0.8070 -2.6569 -0.9923
13939SOL    HW247655   5.277   0.726   7.193  0.5727 -1.5536 -0.6349
13940SOL     OW47656   1.911   7.471   1.680 -0.5001  0.2925 -0.2602
13940SOL    HW147657   1.996   7.427   1.674 -1.0405 -0.5334 -2.9543
13940SOL    HW247658   1.865   7.422   1.748  0.4500 -0.5906 -0.2110
13941SOL     OW47659   9.152   7.592   8.961 -0.1641  0.3881  0.3363
13941SOL    HW147660   9.148   7.658   8.891  0.1898  0.0539 -0.0026
13941SOL    HW247661   9.130   7.641   9.041 -1.7531  0.5196 -0.1558
13942SOL     OW47662   9.644   6.242   2.910  0.5155 -0.2820  0.0850
13942SOL    HW147663   9.594   6.240   2.829  0.2432 -0.0516  0.2458
13942SOL    HW247664   9.679   6.331   2.915 -0.3503  0.0338  0.7490
13943SOL     OW47665   5.720   6.808   7.361 -0.2155 -0.1945  0.2187
13943SOL    HW147666   5.786   6.867   7.395 -1.1286  0.3088  1.1830
13943SOL    HW247667   5.755   6.778   7.277  2.2141 -1.6334  1.6326
13944SOL     OW47668   5.967   4.899   7.174  0.0512  0.2780  0.2408
13944SOL    HW147669   5.978   4.855   7.258  0.9625  1.3087  0.6733
13944SOL    HW247670   5.954   4.827   7.111 -1.2076 -0.4886  1.3111
13945SOL     OW47671   3.500   1.365  12.190 -0.8786 -0.2982  0.2869
13945SOL    HW147672   3.510   1.437  12.251  0.4755 -0.8190  0.7098
13945SOL    HW247673   3.415   1.327  12.212 -1.2774  0.7088  0.5336
13946SOL     OW47674   2.494   0.734   7.845  0.4864  0.0675 -0.6942
13946SOL    HW147675   2.427   0.666   7.838  0.1082  0.5083 -1.3648
13946SOL    HW247676   2.556   0.700   7.910 -1.8527  0.8777  2.1508
13947SOL     OW47677   1.032   5.226   9.061 -0.0390 -0.9675 -0.0798
13947SOL    HW147678   1.035   5.321   9.050  0.5820 -1.1131 -1.3606
13947SOL    HW247679   0.994   5.193   8.979  0.4881 -1.8605  0.0198
13948SOL     OW47680  11.696   1.135  10.765 -0.2761  0.1314  0.0455
13948SOL    HW147681  11.704   1.100  10.854 -2.2092 -1.7188 -0.4274
13948SOL    HW247682  11.760   1.085  10.714  0.3552  0.7188  0.2476
13949SOL     OW47683   6.507   9.703   4.754 -0.0904 -0.2818 -0.0569
13949SOL    HW147684   6.418   9.710   4.720 -0.4256  0.0340  0.8291
13949SOL    HW247685   6.552   9.643   4.695 -0.6598  0.1674 -0.9744
13950SOL     OW47686   2.711   6.380   5.083 -0.4112  0.9602 -0.7028
13950SOL    HW147687   2.737   6.434   5.008  1.9178 -1.1832 -1.5805
13950SOL    HW247688   2.701   6.292   5.046  1.2679 -0.2561  1.5219
13951SOL     OW47689   4.097   8.707   7.077  0.1794  0.4766 -0.0726
13951SOL    HW147690   4.188   8.703   7.048  1.0312  0.5858  2.3406
13951SOL    HW247691   4.075   8.800   7.075  0.6359  0.6083  0.7251
13952SOL     OW47692   1.515   2.071   1.839 -0.0178  0.3834 -0.0049
13952SOL    HW147693   1.435   2.061   1.787 -0.2603  0.4194  0.3566
13952SOL    HW247694   1.554   1.984   1.842  0.2845  0.4925 -0.7057
13953SOL     OW47695  10.571   0.116   2.324 -0.0910 -0.1896 -0.0248
13953SOL    HW147696  10.573   0.161   2.240  0.9061  2.7713  1.4452
13953SOL    HW247697  10.651   0.064   2.325  0.9926  1.3963 -0.1509
13954SOL     OW47698  12.132   8.521   7.863 -1.0047  0.2194  0.1807
13954SOL    HW147699  12.181   8.449   7.823 -1.6250 -0.4878  0.6853
13954SOL    HW247700  12.180   8.600   7.837 -0.3751 -0.3650 -0.4543
13955SOL     OW47701   6.621   1.183   8.266 -0.1587 -0.1930  0.1528
13955SOL    HW147702   6.673   1.156   8.190 -0.3799  0.8407 -0.3830
13955SOL    HW247703   6.678   1.168   8.341  1.8144  2.9501 -0.5665
13956SOL     OW47704   4.963   9.873   8.844  0.2264 -0.0296 -0.4232
13956SOL    HW147705   4.909   9.847   8.919 -1.8788  2.2115 -1.0317
13956SOL    HW247706   5.016   9.946   8.878 -2.0038  2.1956 -1.4002
13957SOL     OW47707   6.741   2.379   0.894 -0.0832 -0.1747 -0.1013
13957SOL    HW147708   6.731   2.432   0.815  0.1147 -0.2399 -0.1703
13957SOL    HW247709   6.793   2.433   0.954 -0.2730 -0.1068  0.0006
13958SOL     OW47710   6.977   0.327   8.407  0.3899 -0.4312 -0.3106
13958SOL    HW147711   6.954   0.244   8.450  0.0807  0.2061  0.7755
13958SOL    HW247712   6.980   0.391   8.477 -0.2545  0.6725 -1.2490
13959SOL     OW47713   1.665  10.610  10.685  0.6302 -0.1659 -0.0499
13959SOL    HW147714   1.741  10.607  10.626  0.2870 -0.1766 -0.4994
13959SOL    HW247715   1.615  10.686  10.656  1.0782  0.5539  1.0199
13960SOL     OW47716   7.703   2.873   5.946  0.4143  0.3312 -0.6133
13960SOL    HW147717   7.693   2.908   6.035 -1.5486 -1.4529 -0.0539
13960SOL    HW247718   7.795   2.847   5.941  0.4971  0.2023  1.0151
13961SOL     OW47719   6.613   3.003   8.904 -0.0441  0.6197  0.5942
13961SOL    HW147720   6.573   2.954   8.831  1.0523  1.6020 -0.7159
13961SOL    HW247721   6.653   2.935   8.958 -1.4312 -0.1850  0.6756
13962SOL     OW47722   9.078   8.311  11.481 -0.4534  0.0821 -0.1468
13962SOL    HW147723   8.987   8.337  11.465 -0.7254  0.4408  1.7910
13962SOL    HW247724   9.105   8.365  11.555  2.0257  1.4601 -1.9141
13963SOL     OW47725   2.610  12.133  10.132 -0.4920  0.6503 -0.3080
13963SOL    HW147726   2.519  12.146  10.106 -0.9296 -2.5638 -0.7295
13963SOL    HW247727   2.654  12.101  10.054 -0.1932 -2.4003  0.9689
13964SOL     OW47728   7.659   0.547  11.605  0.0496 -0.0049  0.1325
13964SOL    HW147729   7.659   0.465  11.556 -2.9740 -0.4465  0.6757
13964SOL    HW247730   7.673   0.615  11.540 -0.2447 -0.7874 -0.7632
13965SOL     OW47731   9.493  10.379   9.124 -0.1937  1.1512  0.2869
13965SOL    HW147732   9.437  10.403   9.051  0.7030 -0.1617 -0.8840
13965SOL    HW247733   9.573  10.430   9.111 -0.1716  1.1848  0.5467
13966SOL     OW47734   5.768   5.165   1.952  0.5344  0.0190 -0.6473
13966SOL    HW147735   5.777   5.199   2.041  0.4536 -0.9790 -0.2525
13966SOL    HW247736   5.703   5.223   1.911  1.3828  1.1715 -0.4226
13967SOL     OW47737   5.006   6.992  11.095  0.5586  0.3090 -0.3940
13967SOL    HW147738   4.921   7.001  11.138  1.1783 -0.5725  1.0755
13967SOL    HW247739   5.024   7.079  11.059 -0.7928  0.5991 -0.4537
13968SOL     OW47740   0.237   5.796   7.027 -0.6418 -0.1763 -0.2198
13968SOL    HW147741   0.270   5.781   6.939  2.5556  2.7149  0.2932
13968SOL    HW247742   0.244   5.890   7.040 -2.1019 -0.3443  2.7836
13969SOL     OW47743   5.274   1.265  11.095 -0.9007  0.5611 -0.6616
13969SOL    HW147744   5.326   1.338  11.126 -1.6569 -0.1034  2.5397
13969SOL    HW247745   5.253   1.287  11.004  2.0226  2.4296 -1.0148
13970SOL     OW47746   7.542  10.805   3.897  0.0742 -0.1608 -0.2856
13970SOL    HW147747   7.572  10.896   3.905  0.3380 -0.3299  0.9392
13970SOL    HW247748   7.478  10.795   3.968  0.0046 -0.9149 -0.4428
13971SOL     OW47749  11.458   3.227  11.731 -0.2689 -0.5413 -0.0208
13971SOL    HW147750  11.364   3.243  11.744 -0.3190 -0.6181 -0.2976
13971SOL    HW247751  11.489   3.201  11.818 -0.4483 -0.2379  0.1365
13972SOL     OW47752   7.932   0.485  12.273  0.0839 -0.1904 -0.7558
13972SOL    HW147753   7.955   0.392  12.279 -1.7767 -0.5984  2.5147
13972SOL    HW247754   8.012   0.531  12.299  0.0481 -1.1007  1.1411
13973SOL     OW47755   0.287   1.752   9.809  0.5751 -0.3730  0.0483
13973SOL    HW147756   0.303   1.665   9.773  0.4918 -0.5699  0.4805
13973SOL    HW247757   0.219   1.789   9.752  0.4408 -0.6820  0.0063
13974SOL     OW47758   7.116   9.357  11.983  0.0345  0.5918 -0.5248
13974SOL    HW147759   7.155   9.441  12.008  0.9552 -0.1050  0.4547
13974SOL    HW247760   7.182   9.314  11.930 -0.5551  0.5923 -1.2784
13975SOL     OW47761  10.470  11.076   9.329 -0.6371 -0.2123  0.0460
13975SOL    HW147762  10.554  11.060   9.372 -0.0137 -2.2293 -1.7510
13975SOL    HW247763  10.484  11.051   9.238 -2.9836  0.1769 -0.4923
13976SOL     OW47764   8.715   2.330   1.077 -0.0419 -0.6379  0.1132
13976SOL    HW147765   8.685   2.240   1.074  0.4249 -0.7920 -0.0585
13976SOL    HW247766   8.805   2.325   1.110  0.1702 -0.2899 -0.3844
13977SOL     OW47767   2.055   0.415   6.404 -0.2584 -0.1935  0.2742
13977SOL    HW147768   1.982   0.458   6.450  0.6551  0.3378  1.2638
13977SOL    HW247769   2.018   0.390   6.320 -1.1363  1.5674  0.0888
13978SOL     OW47770   9.586   3.655   7.111  0.1137 -0.7525  0.4008
13978SOL    HW147771   9.562   3.599   7.185 -0.0653 -1.4955 -0.2078
13978SOL    HW247772   9.503   3.672   7.067  0.1071  0.3370  0.8022
13979SOL     OW47773   6.050   4.237   1.576  0.0798  0.0878  0.2374
13979SOL    HW147774   6.105   4.166   1.608  0.4374 -1.0937 -2.7101
13979SOL    HW247775   6.066   4.240   1.482 -1.8763  2.4067 -0.1271
13980SOL     OW47776   4.098   0.184   8.510  0.7855 -0.8377 -0.3219
13980SOL    HW147777   4.187   0.165   8.481  0.5387 -0.0749 -1.6657
13980SOL    HW247778   4.101   0.276   8.537  0.4772 -0.9105 -0.0249
13981SOL     OW47779   1.318  10.070   7.788 -0.3344 -0.2818  0.0672
13981SOL    HW147780   1.375  10.092   7.862 -1.1348 -1.5588  1.1000
13981SOL    HW247781   1.352  10.122   7.716 -0.4171  2.1448  1.6645
13982SOL     OW47782   6.277  11.222   4.975 -0.1940 -0.0290  0.2406
13982SOL    HW147783   6.219  11.146   4.971  0.3222 -0.4648  0.7242
13982SOL    HW247784   6.344  11.205   4.910 -1.5046  1.2796 -1.5435
13983SOL     OW47785   6.988  11.823   1.142 -0.1142 -0.1003  0.3352
13983SOL    HW147786   7.026  11.909   1.128 -0.4288 -0.1345 -0.8210
13983SOL    HW247787   6.896  11.832   1.118 -0.4283 -0.4874  1.2986
13984SOL     OW47788   3.808   7.509   8.165  0.0615  0.6308  0.0605
13984SOL    HW147789   3.775   7.594   8.194 -0.7271  0.6624 -0.8815
13984SOL    HW247790   3.903   7.519   8.163 -0.0118  1.3850  0.2649
13985SOL     OW47791   6.705   0.015  10.444 -0.1878  0.3540 -0.2550
13985SOL    HW147792   6.619  -0.016  10.469 -0.5385  1.2924 -0.2488
13985SOL    HW247793   6.762  -0.011  10.516 -0.8587  1.5119  0.7313
13986SOL     OW47794   1.294   6.609  12.242 -0.6480  0.1569 -0.1641
13986SOL    HW147795   1.334   6.576  12.322  0.1980 -1.6813 -1.2763
13986SOL    HW247796   1.207   6.570  12.241 -0.1104 -1.0648 -0.8520
13987SOL     OW47797   8.781   0.912   4.476 -0.1079 -0.0010 -0.3994
13987SOL    HW147798   8.828   0.967   4.413 -1.0975  0.8496 -0.4401
13987SOL    HW247799   8.824   0.929   4.560 -1.3929  2.1731 -0.0935
13988SOL     OW47800   9.249  11.480   2.244 -0.0398  1.0483 -0.2243
13988SOL    HW147801   9.211  11.556   2.286  3.0413  1.6388  1.7923
13988SOL    HW247802   9.318  11.450   2.304  1.3462 -1.0747 -2.6429
13989SOL     OW47803   9.800  10.280  12.019  0.1444 -0.2265 -0.4802
13989SOL    HW147804   9.705  10.280  12.010 -0.0606  1.4797  1.0850
13989SOL    HW247805   9.823  10.372  12.034  1.7802 -0.8679  1.4241
13990SOL     OW47806   2.409   4.094   6.183 -0.4633 -0.4682  0.0545
13990SOL    HW147807   2.315   4.092   6.167 -0.3167  0.0596 -0.9858
13990SOL    HW247808   2.448   4.058   6.104  0.1825 -1.8970  0.9876
13991SOL     OW47809   9.842   7.982  10.234 -0.3987 -0.4311 -0.6600
13991SOL    HW147810   9.921   7.932  10.211 -0.2037  0.2232 -1.4643
13991SOL    HW247811   9.839   8.053  10.170 -1.1857  0.0456 -0.1141
13992SOL     OW47812   2.806   7.663   3.326 -0.2491  0.2461  0.8109
13992SOL    HW147813   2.817   7.723   3.252 -0.1037  0.2118  0.8055
13992SOL    HW247814   2.821   7.717   3.403  1.8230 -0.1906  0.7717
13993SOL     OW47815  10.721  11.264   3.610 -0.4566  0.1759  0.1841
13993SOL    HW147816  10.704  11.171   3.596 -0.8798  0.5852 -2.9185
13993SOL    HW247817  10.635  11.305   3.616 -0.4248  0.6862 -1.9269
13994SOL     OW47818   5.123   5.475  10.914  0.6491 -0.3089  0.1601
13994SOL    HW147819   5.101   5.482  11.007  1.6707  0.2574  0.3620
13994SOL    HW247820   5.140   5.382  10.900 -1.6229 -0.7776  0.0269
13995SOL     OW47821   7.318   6.848  11.610  0.0510  0.0037 -0.0038
13995SOL    HW147822   7.322   6.780  11.678  0.0677 -1.4912 -1.4509
13995SOL    HW247823   7.409   6.857  11.581 -0.3341 -1.5635 -1.8716
13996SOL     OW47824   1.093   8.612   5.131 -0.0873 -0.0510  0.4650
13996SOL    HW147825   1.152   8.542   5.159 -0.9269 -2.2109 -2.6103
13996SOL    HW247826   1.151   8.684   5.106  1.3525 -1.7753 -1.6176
13997SOL     OW47827   3.561  12.123   6.648  0.3295 -0.5547 -0.0801
13997SOL    HW147828   3.612  12.202   6.635 -0.9848  0.3636  0.1133
13997SOL    HW247829   3.502  12.120   6.573 -0.9627 -0.2659  0.8858
13998SOL     OW47830   3.051  11.303   4.754 -0.3954 -0.5673 -0.1534
13998SOL    HW147831   2.971  11.262   4.786 -0.9921  0.6254 -0.0436
13998SOL    HW247832   3.054  11.281   4.661 -0.5397 -1.1098 -0.0287
13999SOL     OW47833   3.490   6.881   2.117  0.1771 -0.3560  0.1933
13999SOL    HW147834   3.518   6.892   2.207  0.8136 -0.8087  0.0635
13999SOL    HW247835   3.437   6.801   2.118 -0.2304 -0.0903  0.2471
14000SOL     OW47836  11.501   8.318   9.744  0.4496  0.0724  0.0082
14000SOL    HW147837  11.504   8.337   9.838  0.9215 -1.3122  0.2979
14000SOL    HW247838  11.422   8.266   9.733 -0.3888  1.4297 -0.6288
14001SOL     OW47839   3.632   1.457   4.803  0.1517 -0.2763  0.1603
14001SOL    HW147840   3.589   1.481   4.885 -1.8853 -1.2762 -0.5292
14001SOL    HW247841   3.561   1.423   4.748  1.9369 -2.7404 -0.8183
14002SOL     OW47842   3.396   2.584   2.554 -0.1403 -0.4054  0.0761
14002SOL    HW147843   3.418   2.543   2.638 -0.3073  0.8901  0.7861
14002SOL    HW247844   3.371   2.674   2.577  3.1368  1.1273 -1.6399
14003SOL     OW47845  10.292   0.380  11.675 -0.3713 -0.3697  0.5976
14003SOL    HW147846  10.322   0.337  11.595 -0.1492  0.0659  0.4455
14003SOL    HW247847  10.235   0.451  11.645 -0.8157 -0.6178  0.8521
14004SOL     OW47848   3.123  11.998   3.383  0.7146  0.2787  0.4669
14004SOL    HW147849   3.125  12.025   3.475  0.9727  1.4397  0.1451
14004SOL    HW247850   3.055  12.052   3.344  1.5714  0.8340 -0.3104
14005SOL     OW47851   4.299   2.415   5.823  0.4555  0.4061 -0.3237
14005SOL    HW147852   4.222   2.460   5.857  0.0107 -1.2904  1.0679
14005SOL    HW247853   4.282   2.407   5.729 -0.4519  1.2031 -0.2461
14006SOL     OW47854   8.834   3.247   0.899 -0.1315  0.1781  0.6746
14006SOL    HW147855   8.797   3.284   0.979  0.4816 -0.6940  1.3795
14006SOL    HW247856   8.758   3.225   0.845 -0.5288  1.5517  0.6365
14007SOL     OW47857   3.697  10.498   6.951  0.6090  0.0351 -0.2684
14007SOL    HW147858   3.777  10.448   6.970 -0.8955 -1.1765  3.8779
14007SOL    HW247859   3.728  10.588   6.938  2.8095 -0.8379 -1.6908
14008SOL     OW47860   6.671   0.433   8.810  0.5550 -0.1259  0.2987
14008SOL    HW147861   6.751   0.406   8.764  0.2955 -1.0247  0.3547
14008SOL    HW247862   6.645   0.514   8.767  0.2137 -1.0344 -1.2816
14009SOL     OW47863   1.057   5.117   9.886 -0.6330  0.4142  0.2378
14009SOL    HW147864   1.136   5.169   9.903 -0.1918 -0.3855  0.7124
14009SOL    HW247865   1.086   5.050   9.824 -0.8899 -0.0011  0.5598
14010SOL     OW47866   8.275   8.024   8.100  0.0184  0.2490 -0.4352
14010SOL    HW147867   8.309   8.072   8.175 -0.6772 -0.0573  0.0851
14010SOL    HW247868   8.338   8.041   8.030 -1.0208  3.2402 -0.7651
14011SOL     OW47869  11.131   1.122   9.913  0.4326  0.2308  0.0449
14011SOL    HW147870  11.115   1.213   9.937 -1.3750 -0.2452  0.8970
14011SOL    HW247871  11.159   1.125   9.822 -0.8929  1.5657 -0.3572
14012SOL     OW47872   9.265   2.909   4.078 -0.0717 -0.6060  0.3969
14012SOL    HW147873   9.198   2.975   4.097  1.0079  0.5474  0.3317
14012SOL    HW247874   9.308   2.942   3.998  1.1337 -0.8550  0.9278
14013SOL     OW47875   5.522   8.844   0.010 -1.1200 -0.2564  0.2039
14013SOL    HW147876   5.592   8.778   0.011 -0.5672  0.2499 -1.3420
14013SOL    HW247877   5.460   8.814   0.076  0.6094 -0.6566  1.7439
14014SOL     OW47878   7.070   6.461   5.268 -0.1753  0.2383 -0.5440
14014SOL    HW147879   7.097   6.473   5.177  0.6689 -2.7806 -0.8014
14014SOL    HW247880   7.137   6.404   5.306 -2.4697 -1.7483  0.8348
14015SOL     OW47881   2.620  11.012   2.182  0.4324 -0.4439 -0.0415
14015SOL    HW147882   2.571  10.929   2.183  0.4972 -0.5073  1.8222
14015SOL    HW247883   2.694  10.995   2.125  1.0250 -2.0702  1.1108
14016SOL     OW47884   8.829   1.190   5.746  0.1725 -0.8890 -0.2902
14016SOL    HW147885   8.779   1.120   5.788  0.4773  0.0692  1.7738
14016SOL    HW247886   8.777   1.269   5.760  0.6915 -0.4109 -0.9940
14017SOL     OW47887   0.363   3.805   6.896  0.1177  0.1983 -0.0452
14017SOL    HW147888   0.452   3.775   6.877  0.0874 -0.5213  0.8716
14017SOL    HW247889   0.375   3.891   6.937  0.4673 -0.2726  0.8793
14018SOL     OW47890   1.992   5.601   5.874  0.3007  0.2266 -0.2712
14018SOL    HW147891   2.007   5.643   5.790 -0.5821  1.6704  0.2489
14018SOL    HW247892   2.029   5.514   5.865  1.5470  0.8686 -1.6453
14019SOL     OW47893   3.796   8.081  10.220 -0.3528  0.6294  0.4427
14019SOL    HW147894   3.887   8.078  10.248 -0.9376  1.8919  2.7663
14019SOL    HW247895   3.752   8.015  10.274 -1.1745  1.6559  1.0710
14020SOL     OW47896  10.002   3.054   1.019 -0.0307 -0.5549 -0.0199
14020SOL    HW147897  10.071   3.039   1.084  0.2100 -0.0337 -0.1560
14020SOL    HW247898   9.921   3.030   1.065  0.2469 -1.3079  0.0944
14021SOL     OW47899   1.020  10.711   6.285 -0.0580  0.0803  0.3661
14021SOL    HW147900   1.029  10.630   6.235 -0.3371 -0.6307  1.4185
14021SOL    HW247901   0.928  10.734   6.278 -0.1552 -0.1778  0.7831
14022SOL     OW47902   1.686   5.383  11.599 -0.3014 -0.4692 -0.6098
14022SOL    HW147903   1.738   5.462  11.612  0.5237 -1.0435 -0.3298
14022SOL    HW247904   1.713   5.324  11.669 -2.0723 -0.4227  0.1692
14023SOL     OW47905   6.710   0.168   7.286 -0.0526  0.2693 -0.2768
14023SOL    HW147906   6.745   0.119   7.360  0.2211  0.1084 -0.5081
14023SOL    HW247907   6.715   0.107   7.213  1.4761  1.0319 -0.8618
14024SOL     OW47908   0.721   0.564  11.166  0.1591 -0.1604  0.4318
14024SOL    HW147909   0.707   0.581  11.073  0.1556  1.0195  0.6354
14024SOL    HW247910   0.797   0.506  11.168 -0.1974 -0.6806 -0.3206
14025SOL     OW47911   1.978   3.059   7.430  0.2099  0.7231 -0.9108
14025SOL    HW147912   1.995   3.124   7.362  2.0207 -0.9133 -2.1366
14025SOL    HW247913   2.063   3.018   7.446 -0.4601  0.0865  1.3487
14026SOL     OW47914   5.219   5.606   5.997  0.0691 -0.5013  0.0111
14026SOL    HW147915   5.309   5.637   5.999  0.1901 -0.5631 -1.9692
14026SOL    HW247916   5.223   5.514   6.022  0.8494 -0.9975 -1.7732
14027SOL     OW47917   5.998   3.165   5.114  0.7402 -0.4795 -0.4357
14027SOL    HW147918   6.021   3.090   5.169  2.5150  0.4428  0.1806
14027SOL    HW247919   6.060   3.234   5.142 -1.1207  1.3608 -0.6389
14028SOL     OW47920   7.326   5.070   5.985  0.3364  0.3256  0.2859
14028SOL    HW147921   7.355   5.154   6.020 -0.0511  0.3814  0.4789
14028SOL    HW247922   7.362   5.067   5.896  1.2705  0.2091  0.6597
14029SOL     OW47923  10.246  10.699   0.671 -0.0731 -0.1163 -0.0465
14029SOL    HW147924  10.230  10.793   0.660 -0.8292  0.0210  1.8490
14029SOL    HW247925  10.342  10.691   0.677  0.0367  0.4192 -0.8980
14030SOL     OW47926   6.395   6.701   3.381  0.2167 -0.6098 -0.0502
14030SOL    HW147927   6.373   6.692   3.289  0.1930 -0.5738 -0.0481
14030SOL    HW247928   6.312   6.723   3.424  0.4373  0.5454 -0.1888
14031SOL     OW47929   9.221  10.293  11.441 -0.5201 -0.3893 -0.2116
14031SOL    HW147930   9.289  10.228  11.424 -1.3610 -1.0317 -1.2662
14031SOL    HW247931   9.147  10.266  11.386 -0.5911  1.9762 -1.4206
14032SOL     OW47932  10.156  10.084  12.329 -0.2740  0.0321  0.2696
14032SOL    HW147933  10.193  10.002  12.294 -1.3825  0.1221 -1.2476
14032SOL    HW247934  10.064  10.081  12.303 -0.5945  1.2690  1.1709
14033SOL     OW47935   2.996   4.966   2.641 -0.1456 -0.2593  0.2211
14033SOL    HW147936   3.004   5.031   2.711 -0.2000  0.5155 -0.4747
14033SOL    HW247937   2.920   4.995   2.590 -0.0868 -0.7923 -0.1780
14034SOL     OW47938   2.001   3.305   7.541  0.5152 -0.2425 -0.2258
14034SOL    HW147939   1.979   3.214   7.523  1.7996 -0.2213 -2.2654
14034SOL    HW247940   2.066   3.300   7.612  1.3132 -0.9983 -0.9929
14035SOL     OW47941  11.401   5.014   6.917  0.1814  0.2004  0.5273
14035SOL    HW147942  11.411   5.030   6.823  0.4130 -0.2188  0.4786
14035SOL    HW247943  11.389   5.101   6.955 -0.1666  0.3553  0.0810
14036SOL     OW47944  11.268   6.299   7.141  0.1471  0.0636  0.3527
14036SOL    HW147945  11.212   6.319   7.215  0.3516  0.0661  0.5061
14036SOL    HW247946  11.324   6.228   7.171 -2.2554 -2.5976 -0.9568
14037SOL     OW47947   5.432   4.066   1.062 -0.2723  0.0774  0.5900
14037SOL    HW147948   5.487   4.128   1.111  0.5346 -1.5522  1.8543
14037SOL    HW247949   5.404   4.115   0.985  2.1749  1.2882  0.3760
14038SOL     OW47950   3.715   5.863   3.104 -0.1482 -0.0403  0.3700
14038SOL    HW147951   3.657   5.876   3.029 -0.5319 -0.9850  0.4829
14038SOL    HW247952   3.693   5.776   3.136  1.2712 -0.3741  0.4933
14039SOL     OW47953   2.766   4.835   9.393 -0.4002  0.0920 -0.0863
14039SOL    HW147954   2.829   4.897   9.429 -0.0483 -0.2561 -0.1061
14039SOL    HW247955   2.759   4.859   9.300 -1.8379  1.4511  0.3106
14040SOL     OW47956   5.205  11.863   0.572 -0.0144 -0.3160 -0.3167
14040SOL    HW147957   5.286  11.913   0.585  0.1818 -0.9013  0.8760
14040SOL    HW247958   5.230  11.792   0.513  0.7464 -1.3045  1.1032
14041SOL     OW47959  12.082   2.589   5.303  0.0870  0.3257 -0.1335
14041SOL    HW147960  12.075   2.634   5.387  0.1388  0.9587 -0.4586
14041SOL    HW247961  11.991   2.585   5.271  0.1954  1.1504 -0.5806
14042SOL     OW47962   3.409   0.818  11.990 -0.3776  0.2303 -0.2852
14042SOL    HW147963   3.434   0.742  12.042  2.0220  1.1874  0.0778
14042SOL    HW247964   3.401   0.784  11.900  0.2645 -0.5299 -0.0654
14043SOL     OW47965   2.361   7.986   3.783 -0.1988 -0.1069 -0.6953
14043SOL    HW147966   2.422   7.939   3.840 -0.9775 -2.3402 -1.5943
14043SOL    HW247967   2.415   8.020   3.712  0.4470  0.8042  0.2041
14044SOL     OW47968   4.697  10.207   0.836  0.3093  0.6468  0.3562
14044SOL    HW147969   4.764  10.268   0.866 -1.0459  1.7542  1.2950
14044SOL    HW247970   4.712  10.127   0.887  1.2135  0.7041  0.1841
14045SOL     OW47971   0.338   6.577   6.026  0.2615 -0.2282  0.0083
14045SOL    HW147972   0.248   6.599   6.051  0.1826  0.0876 -0.5314
14045SOL    HW247973   0.375   6.659   5.993 -0.2517 -0.9548 -2.6756
14046SOL     OW47974  11.052  10.757   1.944 -0.1308 -0.7401  0.5735
14046SOL    HW147975  10.970  10.772   1.992 -0.1084 -0.7309  0.6089
14046SOL    HW247976  11.106  10.834   1.965 -1.9112  1.9083 -3.2844
14047SOL     OW47977   9.287   9.444   6.244  0.2801  0.0597  0.5700
14047SOL    HW147978   9.253   9.361   6.211  0.1073  1.2490 -2.5489
14047SOL    HW247979   9.214   9.505   6.234  0.9305  0.9639  1.2042
14048SOL     OW47980   5.555   6.546   4.287 -0.4356  0.3516 -0.1859
14048SOL    HW147981   5.589   6.597   4.214 -0.4748  0.5015 -0.0991
14048SOL    HW247982   5.630   6.494   4.317 -0.4552  0.1852 -0.4213
14049SOL     OW47983   3.526   0.167   1.653  0.6708  0.1847 -0.3692
14049SOL    HW147984   3.617   0.185   1.628  1.7248 -0.7808  2.4206
14049SOL    HW247985   3.496   0.247   1.695  0.7348  0.0075  0.0158
14050SOL     OW47986   6.198   1.289   5.040  0.2663 -0.3206  0.2668
14050SOL    HW147987   6.192   1.198   5.069  1.4925 -0.6750 -0.5462
14050SOL    HW247988   6.291   1.310   5.043  0.1496  0.4666 -0.8791
14051SOL     OW47989   1.454   4.407   1.213  0.1516  0.3016 -0.4563
14051SOL    HW147990   1.506   4.342   1.261 -0.6790 -0.8750 -1.1017
14051SOL    HW247991   1.442   4.369   1.126 -0.4757  1.2622 -0.8071
14052SOL     OW47992   1.602   3.691   0.067 -0.5136  0.0648  0.0165
14052SOL    HW147993   1.692   3.711   0.092 -0.3635  0.3645 -0.7369
14052SOL    HW247994   1.573   3.768   0.018 -0.3514 -0.9937 -1.8351
14053SOL     OW47995   9.810   7.630   8.401 -0.2872 -0.2574 -0.0272
14053SOL    HW147996   9.883   7.592   8.351 -0.6335  0.3645 -1.0499
14053SOL    HW247997   9.732   7.600   8.354 -0.5841  1.2195 -0.5165
14054SOL     OW47998   9.945   6.832   5.820 -0.5988  0.9848 -0.1048
14054SOL    HW147999   9.938   6.874   5.734  1.2820  2.1245  0.2507
14054SOL    HW248000  10.005   6.759   5.806 -2.1391 -0.3334 -0.2237
14055SOL     OW48001   5.287   1.137   1.186 -0.5768  0.1278  0.2359
14055SOL    HW148002   5.285   1.049   1.225  1.0690 -0.7235 -1.4139
14055SOL    HW248003   5.206   1.143   1.136 -0.6158 -0.5440  0.2073
14056SOL     OW48004   5.384   2.773   3.150 -0.6251 -0.1724 -1.1575
14056SOL    HW148005   5.314   2.715   3.180 -0.7818  1.5670  2.2917
14056SOL    HW248006   5.338   2.841   3.100 -1.0861 -0.2659 -0.8681
14057SOL     OW48007   1.693   7.894   4.680  0.1371 -0.7274 -0.3687
14057SOL    HW148008   1.715   7.898   4.588  0.4137 -0.5384 -0.2944
14057SOL    HW248009   1.701   7.984   4.711  5.1808 -1.3395  1.0180
14058SOL     OW48010   1.604   3.954   2.387 -0.1712  0.1249 -0.0192
14058SOL    HW148011   1.541   3.994   2.327  0.1062 -2.3156 -2.1300
14058SOL    HW248012   1.679   3.934   2.331  0.5506 -1.2663  1.4030
14059SOL     OW48013   8.812   6.750   0.281 -0.4347 -0.0018  0.2434
14059SOL    HW148014   8.830   6.843   0.268 -0.9122 -0.0063 -0.5189
14059SOL    HW248015   8.725   6.738   0.244 -0.4810 -0.7056  0.5740
14060SOL     OW48016   8.006   4.853   4.511 -0.4713  0.1005  0.4259
14060SOL    HW148017   8.046   4.938   4.528  1.8917 -0.5859 -1.3042
14060SOL    HW248018   8.079   4.792   4.507 -1.9934 -1.7984  0.2301
14061SOL     OW48019   1.800   8.297   4.024  0.4531 -0.6866 -0.2125
14061SOL    HW148020   1.764   8.247   3.951  0.8828 -0.3571 -0.6608
14061SOL    HW248021   1.874   8.345   3.986  0.8264 -0.6869  0.4903
14062SOL     OW48022  10.458  11.279   7.223  0.5664 -0.4286 -0.2266
14062SOL    HW148023  10.420  11.317   7.144 -0.7532 -0.3678  0.4150
14062SOL    HW248024  10.414  11.324   7.295  1.7942 -0.4343  0.5574
14063SOL     OW48025   5.069   9.106  11.628  0.1090  0.0715 -0.5056
14063SOL    HW148026   5.101   9.158  11.555 -4.4535 -0.7234 -3.4436
14063SOL    HW248027   5.011   9.166  11.676  1.0069 -0.1755  0.9457
14064SOL     OW48028   5.034  11.414   1.988  0.0486  0.3746  0.0472
14064SOL    HW148029   5.077  11.496   2.015  1.2549  0.1936 -1.2323
14064SOL    HW248030   5.046  11.355   2.062  1.6573  0.4788 -0.0905
14065SOL     OW48031   2.193   0.978  10.069 -0.3908 -0.3183 -0.1209
14065SOL    HW148032   2.134   0.908  10.043  1.0917 -0.8909 -2.2002
14065SOL    HW248033   2.137   1.056  10.074 -1.4109 -0.8998 -1.6744
14066SOL     OW48034   4.805   5.493   4.330 -0.1352 -0.2178 -0.1289
14066SOL    HW148035   4.796   5.486   4.425  2.6195 -1.1941  0.1486
14066SOL    HW248036   4.744   5.428   4.295 -1.2785  0.2436  0.9209
14067SOL     OW48037   6.499  10.347   5.450  0.0805 -0.6087 -0.0111
14067SOL    HW148038   6.475  10.286   5.381  1.3026 -0.6983 -0.3801
14067SOL    HW248039   6.475  10.302   5.531  1.4676 -1.8535 -0.2473
14068SOL     OW48040   8.684   0.359   0.576 -0.2670 -0.1073  0.1902
14068SOL    HW148041   8.634   0.433   0.543  0.4153  0.9785  1.5129
14068SOL    HW248042   8.675   0.362   0.671  2.4851  0.3411  0.5366
14069SOL     OW48043   7.058   6.905   2.550  0.3571 -0.0243  0.2566
14069SOL    HW148044   7.105   6.988   2.548 -0.7636  0.6393 -2.1557
14069SOL    HW248045   6.985   6.918   2.489 -0.1914 -2.5873  0.2807
14070SOL     OW48046  12.318   3.480   5.757 -0.2514  0.1579  0.1289
14070SOL    HW148047  12.346   3.398   5.718  1.0213 -0.1425  1.5928
14070SOL    HW248048  12.272   3.454   5.836  0.4791  0.8469  0.7960
14071SOL     OW48049   8.647  11.800  11.135  0.0432  0.1521  0.3049
14071SOL    HW148050   8.570  11.802  11.078 -0.5614 -1.7605  0.9846
14071SOL    HW248051   8.634  11.872  11.196  0.4284  1.8913 -1.5459
14072SOL     OW48052   6.939   2.996   4.076 -0.3133 -0.5453 -0.3052
14072SOL    HW148053   6.920   3.090   4.071 -1.5208 -0.7937 -0.5049
14072SOL    HW248054   6.947   2.967   3.985 -1.3324 -0.9028 -0.2894
14073SOL     OW48055   4.146   3.138   6.976 -0.1764  0.1952 -0.6153
14073SOL    HW148056   4.053   3.120   6.960 -0.3998  0.2085  0.5915
14073SOL    HW248057   4.154   3.232   6.962 -0.3464  0.1962 -0.7154
14074SOL     OW48058   1.600   8.507   3.095  0.6847 -0.4337 -0.5955
14074SOL    HW148059   1.510   8.483   3.074 -0.4424  1.6658  1.4786
14074SOL    HW248060   1.622   8.576   3.032  1.2112 -1.5135 -1.6449
14075SOL     OW48061   3.231  10.705   8.575 -0.0631 -0.1088  0.1566
14075SOL    HW148062   3.264  10.776   8.520 -3.4037  0.1053 -1.8230
14075SOL    HW248063   3.204  10.748   8.656  0.4177  0.4028  0.0530
14076SOL     OW48064   1.465   6.115  10.628  1.0972  0.0831  0.2736
14076SOL    HW148065   1.456   6.205  10.596 -0.5146 -0.4540 -0.8795
14076SOL    HW248066   1.470   6.124  10.724 -3.2902  1.2490  0.6002
14077SOL     OW48067   4.763  10.164  11.609  0.1801 -0.4251 -0.3772
14077SOL    HW148068   4.706  10.113  11.551 -1.4812  0.0953  0.7052
14077SOL    HW248069   4.813  10.098  11.658  0.0755 -0.9190 -0.9247
14078SOL     OW48070   1.782   4.312   0.402  0.6419  0.4387  0.6455
14078SOL    HW148071   1.840   4.268   0.339  0.2748 -0.0900  0.6675
14078SOL    HW248072   1.806   4.404   0.396  1.5888  0.2115  0.7585
14079SOL     OW48073   1.712   8.715   8.358 -0.0432  0.1814  0.3183
14079SOL    HW148074   1.665   8.713   8.274  1.2878  2.4024 -0.5759
14079SOL    HW248075   1.655   8.764   8.416 -1.0000 -1.4196  0.7903
14080SOL     OW48076   5.436   5.080  10.856  0.6712  0.0582  0.3777
14080SOL    HW148077   5.523   5.117  10.839  0.2983  0.1727 -1.5141
14080SOL    HW248078   5.441   4.991  10.820  0.0690 -0.0092  0.4566
14081SOL     OW48079  10.063   6.042   4.314  0.0849  0.0843 -0.1562
14081SOL    HW148080  10.127   5.984   4.355 -0.9010 -0.9836 -0.0730
14081SOL    HW248081  10.088   6.130   4.344  0.6092 -0.4578  1.0936
14082SOL     OW48082   6.420   2.870   0.907 -0.1533  0.1210  0.4346
14082SOL    HW148083   6.413   2.787   0.955  0.4273 -0.1598  0.0528
14082SOL    HW248084   6.329   2.899   0.896 -0.2929  0.2742  1.8085
14083SOL     OW48085  10.129   8.285   8.611 -0.4261  0.0079  0.3620
14083SOL    HW148086  10.201   8.227   8.636  0.6694  1.9815  2.0935
14083SOL    HW248087  10.143   8.365   8.662 -1.2876  2.2473 -2.6209
14084SOL     OW48088  11.873   2.982   1.809  0.0781 -0.1221  0.5725
14084SOL    HW148089  11.876   2.934   1.891 -2.4270 -0.9050  0.3099
14084SOL    HW248090  11.806   3.049   1.823  0.5816  0.6056 -0.3956
14085SOL     OW48091   1.487   0.998   7.707 -0.6113 -0.7301 -0.5351
14085SOL    HW148092   1.495   0.918   7.758 -0.5435 -0.2845  0.1697
14085SOL    HW248093   1.495   0.970   7.616 -2.4553 -1.7822 -0.4167
14086SOL     OW48094   4.159   0.380  11.156 -0.2368 -0.0459  0.5706
14086SOL    HW148095   4.075   0.354  11.118 -1.1577  0.6892  1.9861
14086SOL    HW248096   4.214   0.403  11.081 -1.8331  0.9465 -0.3532
14087SOL     OW48097   0.617  11.235   8.835 -0.1784  0.5090 -0.1630
14087SOL    HW148098   0.623  11.330   8.839 -1.6348  0.6341 -0.3415
14087SOL    HW248099   0.655  11.213   8.749  0.3052  0.9041 -0.0565
14088SOL     OW48100   1.738  11.221   5.542 -0.1684  0.0355  0.4851
14088SOL    HW148101   1.646  11.240   5.560 -0.5799 -0.6597 -0.7444
14088SOL    HW248102   1.770  11.297   5.494 -0.2414  0.0801  0.5071
14089SOL     OW48103   4.039   9.381   9.834 -0.2575  0.3700 -0.6200
14089SOL    HW148104   3.945   9.396   9.847 -0.3769 -0.9020  0.1267
14089SOL    HW248105   4.063   9.317   9.901  1.2098  0.8783 -0.6221
14090SOL     OW48106   1.472  10.044  11.864 -0.1898  0.4249  0.1074
14090SOL    HW148107   1.514  10.022  11.948 -0.1792 -0.0330 -0.0106
14090SOL    HW248108   1.423  10.123  11.881  1.4984  1.5493  0.0148
14091SOL     OW48109   3.497   8.909   7.677  0.4850 -0.4614  0.8251
14091SOL    HW148110   3.432   8.948   7.619  0.7690 -1.1030  0.0565
14091SOL    HW248111   3.446   8.863   7.744  0.1475 -0.4996  0.5393
14092SOL     OW48112   1.494   5.843   1.130 -0.4484 -0.4256 -0.1920
14092SOL    HW148113   1.477   5.809   1.217 -0.3133 -2.4139 -0.8991
14092SOL    HW248114   1.590   5.850   1.124 -0.4378 -0.6828 -0.3233
14093SOL     OW48115   9.594   2.370   9.876 -0.0910  0.4714 -0.1832
14093SOL    HW148116   9.665   2.367   9.811 -1.3675 -1.0756 -1.6082
14093SOL    HW248117   9.600   2.286   9.922 -0.2426  0.8605  0.5599
14094SOL     OW48118   0.408   2.233  12.000  0.5123  0.1630  0.4581
14094SOL    HW148119   0.458   2.181  11.938  2.4128  0.3728  1.7371
14094SOL    HW248120   0.389   2.173  12.072 -2.1384 -0.2325 -0.4635
14095SOL     OW48121   1.625   3.207  11.354 -0.1474 -0.2224  0.2160
14095SOL    HW148122   1.650   3.247  11.270  0.3309 -1.1003 -0.0719
14095SOL    HW248123   1.671   3.124  11.355  1.2915  0.5438  2.1729
14096SOL     OW48124  11.911   4.205  10.641 -0.0614  0.0788 -0.5332
14096SOL    HW148125  11.934   4.188  10.732 -0.2917  0.5541 -0.3842
14096SOL    HW248126  11.929   4.123  10.596 -1.9931 -0.8710  0.3106
14097SOL     OW48127   3.283   2.388   9.508 -0.1051 -0.1271  0.3383
14097SOL    HW148128   3.289   2.464   9.566 -1.1009 -0.7051  1.2309
14097SOL    HW248129   3.294   2.424   9.420 -3.4575  1.5597  0.4608
14098SOL     OW48130  12.092   6.830   3.960  0.3292  0.0042 -0.1584
14098SOL    HW148131  12.074   6.847   4.052  0.9782  0.4551 -0.1043
14098SOL    HW248132  12.082   6.735   3.951  1.3472 -0.2014  0.6348
14099SOL     OW48133   0.497   9.707   8.137 -0.0758  0.4858 -0.0967
14099SOL    HW148134   0.415   9.756   8.134  0.1597  1.0055  1.3151
14099SOL    HW248135   0.510   9.676   8.047 -2.0531 -0.0106 -0.2555
14100SOL     OW48136   4.832   8.519   4.750  0.1495 -0.2826  0.2032
14100SOL    HW148137   4.903   8.569   4.708 -0.9711  1.2879  0.0697
14100SOL    HW248138   4.764   8.585   4.766 -0.6740 -1.4529  1.7110
14101SOL     OW48139  10.567  10.609   9.076  0.5118 -0.5885 -0.2759
14101SOL    HW148140  10.590  10.516   9.084 -1.4873 -1.2454 -1.4680
14101SOL    HW248141  10.636  10.646   9.020  1.6659 -1.1757  0.7080
14102SOL     OW48142  11.557   9.531   5.294 -0.1450  0.3034 -0.1816
14102SOL    HW148143  11.570   9.437   5.288  1.2448  0.5093 -0.6456
14102SOL    HW248144  11.628   9.563   5.350 -0.9203  1.0186  0.4265
14103SOL     OW48145   4.165   5.982  10.140  0.1811  0.1373 -0.4261
14103SOL    HW148146   4.101   5.983  10.069  0.5296 -1.5152 -0.8253
14103SOL    HW248147   4.233   5.921  10.109  1.6742  1.4253  0.2103
14104SOL     OW48148   3.921   3.138   8.624  0.3114 -0.0820 -0.1431
14104SOL    HW148149   3.974   3.061   8.606 -0.1006 -0.8625  1.7148
14104SOL    HW248150   3.920   3.187   8.542  0.8807 -1.8694 -1.2612
14105SOL     OW48151   6.747   5.703   2.357 -0.0396 -0.0633 -0.2010
14105SOL    HW148152   6.752   5.693   2.262 -0.1725  1.7305 -0.4323
14105SOL    HW248153   6.669   5.757   2.371  0.8959  1.0774  0.7905
14106SOL     OW48154   6.760   9.982   0.235  0.4456 -0.5085 -0.0472
14106SOL    HW148155   6.713   9.916   0.286 -0.2133 -1.0006 -1.2437
14106SOL    HW248156   6.694  10.047   0.213  1.1958  0.8473  1.5306
14107SOL     OW48157   2.568   8.747   9.028 -0.4669  0.0186  0.1863
14107SOL    HW148158   2.540   8.783   8.944 -1.2416 -0.1224  0.3706
14107SOL    HW248159   2.528   8.660   9.030  1.5097 -0.9494 -0.3326
14108SOL     OW48160   4.681   6.722  11.652 -0.0129 -0.0726  0.1663
14108SOL    HW148161   4.748   6.759  11.710 -1.9261  0.2279  2.3320
14108SOL    HW248162   4.599   6.761  11.682 -1.2589 -0.7115 -2.1339
14109SOL     OW48163   4.403   8.073   3.640  0.0242 -0.3209 -0.8451
14109SOL    HW148164   4.440   7.995   3.681  1.3009  1.1156  0.9332
14109SOL    HW248165   4.473   8.138   3.645 -1.1710  1.1028 -1.7682
14110SOL     OW48166   8.740   2.346   2.442  0.3725  0.2334 -0.0148
14110SOL    HW148167   8.799   2.350   2.518 -0.5998  0.1081  0.7718
14110SOL    HW248168   8.753   2.430   2.398  0.2359  0.7256  0.8566
14111SOL     OW48169   5.476   7.255  10.106 -0.0014  0.5080 -0.2785
14111SOL    HW148170   5.398   7.290  10.064 -0.7707 -0.3540  0.4022
14111SOL    HW248171   5.455   7.164  10.126  1.0176  0.3806  0.3130
14112SOL     OW48172  12.054   0.816   0.281  0.6091 -0.1010 -0.4083
14112SOL    HW148173  12.122   0.757   0.248 -0.2370 -1.0249 -0.5457
14112SOL    HW248174  11.972   0.772   0.260 -0.0387  0.9709 -0.1949
14113SOL     OW48175   0.702  12.235   4.590 -0.5525  0.0785 -0.3529
14113SOL    HW148176   0.622  12.287   4.600 -0.2920  0.2087  1.3035
14113SOL    HW248177   0.773  12.299   4.592 -0.3759  0.0509 -2.6247
14114SOL     OW48178   7.530   9.719   4.754 -0.7886  0.2888  0.3931
14114SOL    HW148179   7.497   9.632   4.734  0.9491 -0.1310 -0.8862
14114SOL    HW248180   7.531   9.765   4.670  0.9090  0.5772  0.5393
14115SOL     OW48181   1.007   2.754   5.348  0.3653  0.1605 -0.2071
14115SOL    HW148182   0.928   2.807   5.334  1.0931  1.6996  1.1713
14115SOL    HW248183   0.998   2.722   5.438  0.8239 -0.5272 -0.4062
14116SOL     OW48184   4.410   8.376   0.169  0.0762  0.5749 -0.2929
14116SOL    HW148185   4.444   8.372   0.258  0.7857 -0.8094 -0.6057
14116SOL    HW248186   4.365   8.461   0.165  0.8726  1.1021  1.0661
14117SOL     OW48187  10.452   3.988   2.177  0.3933  0.3722  0.5194
14117SOL    HW148188  10.424   3.936   2.252  0.7137  0.9271  1.0324
14117SOL    HW248189  10.424   4.077   2.198  0.4755  0.5277 -0.0239
14118SOL     OW48190   7.105   6.666   7.813  0.3061 -0.2624  0.1604
14118SOL    HW148191   7.114   6.761   7.808 -0.1159 -0.1170  1.7131
14118SOL    HW248192   7.168   6.632   7.749 -1.3184  1.0760 -2.2894
14119SOL     OW48193  11.287  11.821   3.202 -0.1518 -0.1973  0.1314
14119SOL    HW148194  11.261  11.894   3.147  1.6070 -0.1038 -0.6540
14119SOL    HW248195  11.286  11.745   3.143 -0.6508 -0.5545  0.5946
14120SOL     OW48196   4.857   6.174   4.846 -0.2225  0.1356 -0.3213
14120SOL    HW148197   4.799   6.175   4.770  2.0877 -1.6528 -2.2812
14120SOL    HW248198   4.945   6.178   4.809  1.0587 -2.0473  2.1273
14121SOL     OW48199   2.372   0.064   2.732  0.0057  0.0414 -0.0064
14121SOL    HW148200   2.370   0.101   2.644 -0.3493 -0.5421 -0.2530
14121SOL    HW248201   2.458   0.086   2.766  0.1137  0.3415 -0.4676
14122SOL     OW48202   7.780   6.753   2.128  0.5177 -0.0438  0.0842
14122SOL    HW148203   7.738   6.839   2.134  0.3753 -0.1262  0.2661
14122SOL    HW248204   7.806   6.746   2.036  1.7030  0.7383  0.3464
14123SOL     OW48205  10.855   7.944   9.983  0.2797  0.2367  0.0712
14123SOL    HW148206  10.831   7.912  10.070 -0.7602  1.3216  0.2112
14123SOL    HW248207  10.777   7.926   9.930  0.8394 -0.2497 -0.5894
14124SOL     OW48208   6.195   2.257   0.445  0.1863 -0.1167 -0.1566
14124SOL    HW148209   6.209   2.166   0.472 -1.1406 -0.2582  0.1122
14124SOL    HW248210   6.132   2.292   0.508 -1.1969  0.2457 -1.6643
14125SOL     OW48211   7.616   3.657   6.249 -0.0045  0.2634 -0.3420
14125SOL    HW148212   7.659   3.573   6.238  0.9272  0.4406  1.5462
14125SOL    HW248213   7.679   3.721   6.215  1.2142  0.4971  2.1452
14126SOL     OW48214   0.329  11.010   8.195  0.3127 -0.3978  0.2092
14126SOL    HW148215   0.290  11.024   8.109  1.2812  2.3977  0.1127
14126SOL    HW248216   0.406  10.956   8.178 -0.0708 -0.7460 -0.4831
14127SOL     OW48217  10.239   4.017   4.887 -0.4264  0.6648  0.3192
14127SOL    HW148218  10.198   4.010   4.800 -0.5035  0.6416  0.3579
14127SOL    HW248219  10.328   3.985   4.874 -0.6685 -0.0755  0.4200
14128SOL     OW48220   6.366  10.051  10.629 -0.4467  0.3789  0.5016
14128SOL    HW148221   6.280  10.092  10.638 -1.8253 -2.0363 -0.4245
14128SOL    HW248222   6.363  10.009  10.543  1.6775  0.2181  0.4545
14129SOL     OW48223   4.919  11.178   9.843  0.4268  0.3700 -0.1294
14129SOL    HW148224   4.881  11.118   9.779 -1.2283  1.1941  0.0306
14129SOL    HW248225   4.953  11.250   9.791  2.5181 -0.6874 -0.3314
14130SOL     OW48226   5.100   9.124   0.348  0.1564 -0.1078  0.2327
14130SOL    HW148227   5.011   9.103   0.377 -0.2089  1.8113  0.5837
14130SOL    HW248228   5.156   9.065   0.398 -0.8342 -0.4963  0.9168
14131SOL     OW48229   0.283   5.229   5.926  0.2649  0.5681 -0.1383
14131SOL    HW148230   0.249   5.139   5.927 -0.8310  0.9371 -1.2776
14131SOL    HW248231   0.377   5.219   5.913 -0.0446 -0.4184 -2.0653
14132SOL     OW48232   8.787  11.954  12.200  0.0468  0.9224 -0.2049
14132SOL    HW148233   8.840  11.948  12.120  0.0014 -0.2323 -0.1599
14132SOL    HW248234   8.713  12.009  12.175 -0.3352  0.0089 -1.1804
14133SOL     OW48235   1.694  11.769   5.545 -0.3763  0.0106 -0.2741
14133SOL    HW148236   1.743  11.780   5.627 -1.1266  0.5824  0.1030
14133SOL    HW248237   1.613  11.726   5.572 -0.5131 -0.0394 -0.7612
14134SOL     OW48238   7.869  10.561  10.852  0.4326 -0.1739 -0.6471
14134SOL    HW148239   7.823  10.510  10.786 -1.4018 -0.4546  0.7763
14134SOL    HW248240   7.843  10.523  10.935  1.9519  0.7530  0.3055
14135SOL     OW48241   7.810  10.068   4.615  0.0932 -0.7335 -0.0188
14135SOL    HW148242   7.793   9.982   4.577 -1.3039 -0.6974  0.4507
14135SOL    HW248243   7.723  10.108   4.624  0.7581  1.0241 -0.8833
14136SOL     OW48244  10.331   6.139   1.279 -0.2820  0.6486 -0.1655
14136SOL    HW148245  10.295   6.134   1.368  1.0052 -1.7768  0.2967
14136SOL    HW248246  10.425   6.123   1.291 -0.2510 -0.8371 -2.0384
14137SOL     OW48247   4.481   9.451   2.743  0.5974 -0.3692  0.3392
14137SOL    HW148248   4.493   9.407   2.828 -0.3638 -0.9585  0.1807
14137SOL    HW248249   4.558   9.507   2.735 -0.3611  1.4404  2.6514
14138SOL     OW48250   3.051   1.226   2.306  0.2374 -0.5329 -0.0150
14138SOL    HW148251   2.998   1.304   2.321  1.9501  0.7915 -0.6037
14138SOL    HW248252   3.116   1.226   2.376  0.5081 -1.2177 -0.2495
14139SOL     OW48253   0.655   9.839   0.828  0.0039  0.2477  0.3053
14139SOL    HW148254   0.667   9.853   0.734  0.6011 -1.2135  0.1455
14139SOL    HW248255   0.743   9.842   0.865 -0.2066  0.5920  0.8010
14140SOL     OW48256   9.502   4.034   4.292  0.8601 -0.1615 -0.1125
14140SOL    HW148257   9.556   4.027   4.214  0.6587 -0.8017 -0.2005
14140SOL    HW248258   9.564   4.026   4.365  0.8369 -1.3889 -0.2147
14141SOL     OW48259   0.885   4.882   2.155  0.1150 -0.0855  0.5621
14141SOL    HW148260   0.862   4.971   2.184  0.3907  0.9123 -1.9926
14141SOL    HW248261   0.968   4.864   2.199  2.3463  2.7902 -1.9586
14142SOL     OW48262   0.371   6.146   9.319 -0.1775 -0.5835  0.4489
14142SOL    HW148263   0.436   6.084   9.286  2.1578  0.9015  1.9179
14142SOL    HW248264   0.385   6.225   9.266  1.4892  0.7799  2.7144
14143SOL     OW48265   8.541   5.724   0.409 -0.0021 -0.2365 -0.4017
14143SOL    HW148266   8.487   5.793   0.446  0.0868  1.1700 -2.6606
14143SOL    HW248267   8.492   5.643   0.423 -0.6704  0.4287  1.2467
14144SOL     OW48268   9.244  11.216  10.482 -0.4796 -0.4759  0.8231
14144SOL    HW148269   9.298  11.236  10.405 -1.8642 -0.0442 -0.0660
14144SOL    HW248270   9.233  11.300  10.526  0.1918 -0.6982  1.4427
14145SOL     OW48271   9.428  11.695   7.004  0.5785 -0.1118  0.4732
14145SOL    HW148272   9.361  11.666   6.943  0.3272 -1.0313  1.1652
14145SOL    HW248273   9.431  11.790   6.993 -1.1024 -0.0122  0.6991
14146SOL     OW48274   6.734   9.549  10.977 -0.0222  0.1763  0.1128
14146SOL    HW148275   6.801   9.526  10.913  0.6029 -1.2553  1.2100
14146SOL    HW248276   6.680   9.470  10.985 -0.0585  0.2992  1.3589
14147SOL     OW48277   1.269   6.395   8.781  0.1816  0.2675  0.3134
14147SOL    HW148278   1.237   6.392   8.872  1.0286 -0.2997  0.6099
14147SOL    HW248279   1.347   6.450   8.785  1.1178 -1.0160  0.2408
14148SOL     OW48280  11.861   2.667  10.130  0.1220 -0.0774 -0.2891
14148SOL    HW148281  11.862   2.715  10.213  0.7647  0.4982 -0.6267
14148SOL    HW248282  11.827   2.580  10.153  1.9800 -0.5265  0.8927
14149SOL     OW48283  11.964   8.867   2.745  0.3407 -0.1432 -0.0711
14149SOL    HW148284  11.941   8.912   2.663  0.2871  1.3207  0.7010
14149SOL    HW248285  11.930   8.778   2.734 -1.4082  0.5698 -0.8730
14150SOL     OW48286   5.951   2.792   6.449 -0.3784 -0.4628 -0.3250
14150SOL    HW148287   5.905   2.738   6.384  0.0726 -0.6194 -0.5183
14150SOL    HW248288   6.005   2.851   6.397  0.1327 -0.7227 -0.0878
14151SOL     OW48289   5.342   1.502   2.530 -0.2432 -0.3391  0.1723
14151SOL    HW148290   5.332   1.555   2.451  1.1145 -1.2225 -0.6199
14151SOL    HW248291   5.406   1.550   2.583 -0.6766 -0.0710  0.4577
14152SOL     OW48292   0.812  10.365   0.501  0.5624  0.2948  0.1397
14152SOL    HW148293   0.801  10.349   0.595  0.3663 -0.2494  0.0292
14152SOL    HW248294   0.807  10.460   0.492 -0.4704  0.2892  0.5511
14153SOL     OW48295  11.297   9.030   2.056  0.0874 -0.1678 -0.7371
14153SOL    HW148296  11.203   9.012   2.063  0.4412 -1.3526  2.4656
14153SOL    HW248297  11.335   8.946   2.028  0.4605 -0.7271  1.3136
14154SOL     OW48298  10.872   6.800  10.660 -0.0356 -0.8193  0.2120
14154SOL    HW148299  10.864   6.770  10.750 -4.2487 -0.8125  0.0112
14154SOL    HW248300  10.831   6.731  10.607  2.2439 -0.7986 -1.7945
14155SOL     OW48301   2.956   4.343   9.209  0.0821  0.3610  0.3143
14155SOL    HW148302   3.028   4.292   9.246  0.0497  0.6591  0.7968
14155SOL    HW248303   2.996   4.394   9.138  0.1010 -0.3737 -0.2132
14156SOL     OW48304   5.802   6.178  10.407 -0.5239 -0.2746 -0.0221
14156SOL    HW148305   5.773   6.216  10.490 -0.8027 -0.0486 -0.2206
14156SOL    HW248306   5.872   6.117  10.432 -0.2409  0.1814  0.3293
14157SOL     OW48307   5.107   7.002   7.654  0.1454 -0.1804  0.0138
14157SOL    HW148308   5.058   6.950   7.717  1.6982 -2.8785 -0.8373
14157SOL    HW248309   5.176   7.044   7.706 -1.1118  1.1381  0.7024
14158SOL     OW48310   9.165   3.290  11.787 -0.0294 -0.2397  0.1281
14158SOL    HW148311   9.071   3.282  11.805  0.2395 -0.4084  1.6314
14158SOL    HW248312   9.192   3.366  11.840  0.5184  0.4071 -1.0450
14159SOL     OW48313   0.802   1.819   4.408  0.3324 -0.6356  0.2941
14159SOL    HW148314   0.750   1.739   4.400  0.4918 -0.8004  0.8597
14159SOL    HW248315   0.848   1.809   4.491 -2.0068  1.4042  1.9700
14160SOL     OW48316   2.781   4.589   1.934  0.8176  0.0252  0.0518
14160SOL    HW148317   2.839   4.661   1.959  2.2602 -0.0841 -2.5876
14160SOL    HW248318   2.720   4.628   1.871  0.8286 -0.7870 -0.4719
14161SOL     OW48319  10.516   1.983   0.769  0.3412 -0.6186  0.2606
14161SOL    HW148320  10.485   2.071   0.746 -0.5635 -0.9537  0.1400
14161SOL    HW248321  10.565   1.954   0.693  0.0210 -0.5037  0.0082
14162SOL     OW48322   5.587   8.433   1.473  0.0099  0.0624 -0.1061
14162SOL    HW148323   5.606   8.495   1.402  0.6585  1.0077  0.8703
14162SOL    HW248324   5.598   8.484   1.553 -0.8361 -0.9560  0.6883
14163SOL     OW48325   2.608   9.805  10.060 -0.0088  0.3635  0.1195
14163SOL    HW148326   2.645   9.729  10.015  0.7442  0.2997  0.8226
14163SOL    HW248327   2.583   9.772  10.146 -3.3138 -0.0119 -0.8251
14164SOL     OW48328   8.546   7.801   1.866 -0.2703 -0.1417  0.0821
14164SOL    HW148329   8.634   7.766   1.851 -0.0792  0.7924 -1.1500
14164SOL    HW248330   8.547   7.831   1.957  1.1635  1.1535 -0.3264
14165SOL     OW48331  11.807   0.732   4.791  0.2542  0.7237 -0.5742
14165SOL    HW148332  11.773   0.811   4.750 -0.6250  0.8820  0.4103
14165SOL    HW248333  11.757   0.661   4.751  0.0830  0.7898 -0.4786
14166SOL     OW48334   7.366   7.773   7.931  0.2242  0.3936  0.4486
14166SOL    HW148335   7.442   7.715   7.940 -0.3766 -0.2686  1.4576
14166SOL    HW248336   7.298   7.733   7.986 -0.6468  1.3305  0.0973
14167SOL     OW48337   8.054   2.835   6.948 -0.5621  0.2538 -0.4112
14167SOL    HW148338   8.119   2.861   7.013  0.6393 -0.4101 -1.3267
14167SOL    HW248339   7.974   2.880   6.976  0.2450  1.0191  0.7744
14168SOL     OW48340   5.669   0.811   5.725 -0.4570 -0.0587  0.0295
14168SOL    HW148341   5.752   0.787   5.684  0.5799  1.7321  0.9559
14168SOL    HW248342   5.617   0.730   5.723  0.6747 -0.7981 -2.0103
14169SOL     OW48343   8.994   4.041  11.641  0.4052  0.1909 -0.4751
14169SOL    HW148344   8.970   3.973  11.703  3.7983 -0.0044  0.8495
14169SOL    HW248345   9.074   4.009  11.599  0.1047  1.8207 -2.4704
14170SOL     OW48346   1.474   2.251   3.588  0.2398  0.3096 -0.2001
14170SOL    HW148347   1.379   2.255   3.581  0.2356  0.1220 -0.2653
14170SOL    HW248348   1.497   2.166   3.551  0.2086 -0.7859  2.1436
14171SOL     OW48349   1.523   0.327  10.855  0.3743 -0.1420 -0.2232
14171SOL    HW148350   1.536   0.326  10.760  1.3663 -1.4258 -0.1070
14171SOL    HW248351   1.590   0.267  10.889 -2.2855 -2.6902  0.9888
14172SOL     OW48352   2.015  12.267   1.920 -0.0328  0.3125  0.7544
14172SOL    HW148353   1.947  12.223   1.971  0.6120 -0.0296  1.3480
14172SOL    HW248354   2.021  12.355   1.958 -1.4826  1.0416 -0.5829
14173SOL     OW48355   3.782  11.518   9.694 -0.1676  0.4733 -0.2906
14173SOL    HW148356   3.740  11.604   9.699 -0.9594  0.2512 -2.3606
14173SOL    HW248357   3.854  11.530   9.632  1.0152  0.1034  0.9528
14174SOL     OW48358   9.936   9.285   8.075  0.2628  0.2101 -0.4358
14174SOL    HW148359  10.016   9.248   8.114 -0.9414 -1.0283  1.0211
14174SOL    HW248360   9.964   9.320   7.991  2.3743 -0.0263  0.1114
14175SOL     OW48361   3.734   6.756   1.640 -0.4404 -0.0794  0.1158
14175SOL    HW148362   3.687   6.788   1.718 -1.9696 -0.5433 -0.5707
14175SOL    HW248363   3.665   6.721   1.584  0.4588  1.2890 -1.9743
14176SOL     OW48364   3.816   8.678   6.510  0.3047  0.0442  0.3066
14176SOL    HW148365   3.810   8.723   6.594  2.3369 -1.8988  1.6082
14176SOL    HW248366   3.757   8.604   6.517 -1.1170  1.0104 -0.8588
14177SOL     OW48367  10.506   8.347   2.989  0.1298  0.4017  0.0487
14177SOL    HW148368  10.416   8.315   2.993 -0.0752  1.0267  0.7521
14177SOL    HW248369  10.498   8.440   2.968  0.7671 -0.1624 -3.1663
14178SOL     OW48370   9.242   8.154  12.290  0.0641  0.0785  0.2478
14178SOL    HW148371   9.225   8.094  12.362  0.6748  1.4094  1.5526
14178SOL    HW248372   9.328   8.127  12.256  0.4429  0.3443  0.9778
14179SOL     OW48373  11.648   6.460   0.083  0.2716 -0.1496  0.0015
14179SOL    HW148374  11.634   6.554   0.092  2.6586  0.2470  0.2341
14179SOL    HW248375  11.630   6.441  -0.009  0.0264  0.5872 -0.1048
14180SOL     OW48376   5.147   1.004  11.955 -0.7797  0.0299  0.2480
14180SOL    HW148377   5.141   0.953  12.036 -2.9033  0.1672  0.2482
14180SOL    HW248378   5.097   0.953  11.891  1.1250 -0.2363 -1.1086
14181SOL     OW48379   0.498  11.978   7.839  0.6397 -0.4311 -0.1284
14181SOL    HW148380   0.561  11.945   7.775  1.5051  0.4199  0.2642
14181SOL    HW248381   0.537  11.958   7.924 -1.9725 -4.6096  0.4020
14182SOL     OW48382   4.065   1.545   3.292  0.2265  0.0659  0.3582
14182SOL    HW148383   4.135   1.523   3.354  0.5402  1.0301  0.3591
14182SOL    HW248384   4.021   1.620   3.332 -0.3257 -0.0546 -0.0162
14183SOL     OW48385   2.515   6.252   0.426  0.4778  0.0899  0.0852
14183SOL    HW148386   2.437   6.295   0.462  0.9498  0.8943  0.1579
14183SOL    HW248387   2.487   6.161   0.412  0.1691 -0.2063  2.2025
14184SOL     OW48388   9.174   7.856  12.267  0.4177  0.3513 -0.2061
14184SOL    HW148389   9.085   7.868  12.301  0.4441 -0.3475  0.1233
14184SOL    HW248390   9.199   7.942  12.234  0.2463  0.9489  1.1701
14185SOL     OW48391   1.976  11.151   4.471  0.0528  0.1064  0.4603
14185SOL    HW148392   1.941  11.094   4.403  0.3368  0.2637  0.1811
14185SOL    HW248393   2.051  11.103   4.506  1.8725  1.3774 -1.5041
14186SOL     OW48394   4.427  10.473   9.968 -0.0263 -0.1302 -0.0204
14186SOL    HW148395   4.454  10.494   9.879 -0.5119  1.2445  0.1355
14186SOL    HW248396   4.488  10.405   9.996 -0.8644 -1.7965 -1.9581
14187SOL     OW48397   1.291   7.519  10.582  0.2440  0.3945 -0.0257
14187SOL    HW148398   1.271   7.599  10.535  1.3139  0.0549 -1.1102
14187SOL    HW248399   1.230   7.454  10.547  0.3536  0.3876 -0.2032
14188SOL     OW48400   2.588   0.191   6.672  0.2591  0.0704 -0.7554
14188SOL    HW148401   2.569   0.101   6.697 -0.7129  0.1274 -1.2309
14188SOL    HW248402   2.597   0.239   6.754 -0.7163 -0.1714 -0.4952
14189SOL     OW48403   4.136   3.905   4.719 -0.2608  0.5991  0.1978
14189SOL    HW148404   4.169   3.994   4.709  1.4910  0.1696  1.6431
14189SOL    HW248405   4.207   3.849   4.686 -0.3676 -0.3035  1.4243
14190SOL     OW48406   1.748   4.116   8.884  0.4556  0.4838 -0.0983
14190SOL    HW148407   1.697   4.106   8.803  2.2257 -2.6424 -0.9946
14190SOL    HW248408   1.813   4.184   8.862  0.2029  0.4781 -0.9194
14191SOL     OW48409   7.557   1.482  11.165  0.1516  0.1418 -0.6318
14191SOL    HW148410   7.582   1.390  11.171 -2.6133 -0.6103  1.5097
14191SOL    HW248411   7.498   1.486  11.089  0.5977  0.2659 -0.9776
14192SOL     OW48412   2.412   9.090   3.760 -0.1421  0.2700 -0.0010
14192SOL    HW148413   2.426   9.178   3.724 -1.2761  1.2272  1.7421
14192SOL    HW248414   2.325   9.065   3.728  0.1305 -0.1870 -0.3987
14193SOL     OW48415   0.642   3.959   6.423  0.1736  0.4465  0.6182
14193SOL    HW148416   0.620   3.921   6.337 -1.5201 -0.2014  1.2847
14193SOL    HW248417   0.579   4.030   6.434  0.5946  0.7352  1.1952
14194SOL     OW48418   5.573   5.454   5.122 -0.8990  0.0422  0.3002
14194SOL    HW148419   5.525   5.409   5.191 -1.3593 -1.9397 -1.2209
14194SOL    HW248420   5.507   5.475   5.056  0.1434 -2.9717 -1.9494
14195SOL     OW48421  11.124  10.938   7.884 -0.3901 -0.5575 -0.0417
14195SOL    HW148422  11.037  10.968   7.911 -0.6499  0.0936 -1.4727
14195SOL    HW248423  11.181  11.014   7.900 -0.6156 -0.0359 -1.5624
14196SOL     OW48424   0.265  12.224  12.256 -0.1556 -0.3501 -0.0328
14196SOL    HW148425   0.288  12.153  12.195  0.0222 -0.4666  0.1690
14196SOL    HW248426   0.170  12.233  12.246 -0.1168 -0.3046 -0.3952
14197SOL     OW48427   1.646   1.189   9.713 -0.0880  0.3083  0.3917
14197SOL    HW148428   1.570   1.183   9.655  0.0910  1.5814 -0.0226
14197SOL    HW248429   1.705   1.249   9.668  0.1683  1.1390  1.7603
14198SOL     OW48430   4.498   9.749   5.523  0.4438  0.3061 -0.6013
14198SOL    HW148431   4.440   9.686   5.565  0.6171 -0.9101 -2.0667
14198SOL    HW248432   4.474   9.834   5.559  0.2497 -0.5963  1.5066
14199SOL     OW48433   2.882  12.240  10.729 -0.2933  0.1715  0.2324
14199SOL    HW148434   2.901  12.259  10.637 -0.3415 -1.1931 -0.0776
14199SOL    HW248435   2.959  12.271  10.776  0.9860 -1.6047 -0.5801
14200SOL     OW48436   9.680   7.334   0.790  0.3761  0.0127  0.2038
14200SOL    HW148437   9.700   7.251   0.745 -0.5136 -0.9024  1.4212
14200SOL    HW248438   9.677   7.399   0.720  0.0026 -1.1873 -0.9422
14201SOL     OW48439   4.604   1.224   0.125 -0.2183 -0.0869  0.3025
14201SOL    HW148440   4.636   1.291   0.065  1.9452 -0.9955  0.3714
14201SOL    HW248441   4.535   1.268   0.176 -1.8324  0.8327 -2.4702
14202SOL     OW48442   2.739   3.998   6.945  0.7973  0.4713  0.3465
14202SOL    HW148443   2.708   3.936   7.012 -0.6382 -0.1398 -0.8113
14202SOL    HW248444   2.706   3.962   6.863  0.4859  2.4437 -0.4461
14203SOL     OW48445   2.910   4.284  11.453 -0.1158 -0.0745  0.0840
14203SOL    HW148446   2.815   4.272  11.455  0.1526 -2.6225  0.9384
14203SOL    HW248447   2.932   4.279  11.360 -0.7616  0.2567 -0.0992
14204SOL     OW48448   8.401   6.741   5.609 -0.5738  0.1910 -0.2560
14204SOL    HW148449   8.462   6.753   5.536  1.8114 -1.2456  1.3926
14204SOL    HW248450   8.377   6.649   5.604 -0.9648  0.2591  0.3702
14205SOL     OW48451   9.325   7.990   7.550  0.2823 -0.1555 -0.7634
14205SOL    HW148452   9.252   8.020   7.603  0.8667 -0.1732  0.0660
14205SOL    HW248453   9.326   8.050   7.475 -0.8627 -0.4512 -1.0374
14206SOL     OW48454   4.118  12.304   7.720  0.1172  0.2081 -0.1630
14206SOL    HW148455   4.050  12.265   7.665  2.9406 -0.7816 -3.2631
14206SOL    HW248456   4.115  12.397   7.699  0.4093  0.0028 -1.1669
14207SOL     OW48457   2.706   1.272  11.428 -0.5005 -0.5426  0.1178
14207SOL    HW148458   2.781   1.325  11.401 -0.2989  0.6280  2.7045
14207SOL    HW248459   2.706   1.198  11.367  0.1841  1.5290 -2.6301
14208SOL     OW48460   2.025  11.361   8.497  0.7894 -0.2560 -0.3394
14208SOL    HW148461   2.043  11.304   8.571 -1.6053  0.2350  0.7195
14208SOL    HW248462   2.050  11.449   8.526 -0.9519  0.0795  0.3193
14209SOL     OW48463   2.902   6.694   6.799 -0.3293 -0.1135 -0.0700
14209SOL    HW148464   2.837   6.627   6.778  0.8998 -1.6320  0.7453
14209SOL    HW248465   2.917   6.739   6.716 -0.4571 -1.5211 -0.8950
14210SOL     OW48466   8.251  11.956   8.410  0.3765 -0.4052 -0.1665
14210SOL    HW148467   8.245  11.986   8.501 -1.3666 -0.7342 -0.1310
14210SOL    HW248468   8.186  11.886   8.404  0.5924 -0.5078 -1.6256
14211SOL     OW48469   9.862   6.228   7.122 -0.5044 -0.1989 -0.5290
14211SOL    HW148470   9.811   6.248   7.201  0.1951 -1.3509  0.2469
14211SOL    HW248471   9.834   6.139   7.098  2.6773 -1.8406  1.2567
14212SOL     OW48472   9.546   1.028   4.078 -0.0993  0.0496  0.5996
14212SOL    HW148473   9.579   1.117   4.068  0.0045 -0.0467  0.0301
14212SOL    HW248474   9.544   0.993   3.989  0.6096 -0.7757  0.8882
14213SOL     OW48475   9.418   1.035  10.849 -0.2515 -0.5029  0.3292
14213SOL    HW148476   9.459   0.988  10.776 -0.1630 -0.4990  0.3761
14213SOL    HW248477   9.377   0.966  10.902  0.6436 -0.6257  0.8847
14214SOL     OW48478  11.602   0.959   7.996 -1.1132  0.2328 -0.1151
14214SOL    HW148479  11.694   0.939   8.012 -0.9200  1.0714 -0.1123
14214SOL    HW248480  11.555   0.920   8.070 -0.4601  2.1566  1.4288
14215SOL     OW48481  10.509   7.438   3.799 -0.0493 -0.3022 -0.5324
14215SOL    HW148482  10.588   7.481   3.832  1.2675 -1.2064 -2.3544
14215SOL    HW248483  10.460   7.509   3.757  0.4302  0.0219 -0.5555
14216SOL     OW48484   2.217   9.780   0.750  0.3629 -0.1480  0.0372
14216SOL    HW148485   2.296   9.830   0.772  2.1735 -2.0445 -1.6456
14216SOL    HW248486   2.170   9.772   0.833  2.4114  0.2937  1.3301
14217SOL     OW48487   5.184   5.194  10.905  0.1043 -0.2796  0.6233
14217SOL    HW148488   5.181   5.188  11.001 -0.9234 -2.4378  0.5274
14217SOL    HW248489   5.275   5.175  10.883 -0.0383 -1.7931  1.1577
14218SOL     OW48490  11.651   0.532   8.338 -0.4342 -0.1314  0.4666
14218SOL    HW148491  11.654   0.553   8.432  0.0956 -0.6103  0.5665
14218SOL    HW248492  11.714   0.593   8.298  0.7390 -1.1553  0.6891
14219SOL     OW48493   0.179   0.641   1.756 -0.0797  0.0998 -0.3127
14219SOL    HW148494   0.131   0.575   1.806 -0.0208 -2.0549 -2.8552
14219SOL    HW248495   0.247   0.672   1.815  1.3856 -3.8621  0.3663
14220SOL     OW48496   7.834   5.586   2.850  0.5598  0.7008  0.6815
14220SOL    HW148497   7.806   5.530   2.922 -1.7045  1.6835  0.6271
14220SOL    HW248498   7.803   5.542   2.771  0.5163  1.0502  0.5030
14221SOL     OW48499   9.063   8.086   7.135  0.2696 -0.2147 -0.2986
14221SOL    HW148500   8.993   8.029   7.102  0.5053 -1.0136  0.5025
14221SOL    HW248501   9.143   8.039   7.114  0.6537  1.1506 -2.0624
14222SOL     OW48502  12.303   5.866   5.950  0.1408  0.5109  0.3704
14222SOL    HW148503  12.234   5.897   5.891 -0.0203 -0.4876  0.0137
14222SOL    HW248504  12.341   5.946   5.986 -0.2992  1.1200 -0.4699
14223SOL     OW48505   3.999   6.805   3.075 -0.0215 -0.0025  0.2800
14223SOL    HW148506   3.944   6.883   3.073 -0.1445 -0.0912 -0.7024
14223SOL    HW248507   3.952   6.743   3.131  0.7809  1.1096  2.2544
14224SOL     OW48508   9.160   1.372   1.319 -0.1918  0.0064  0.1156
14224SOL    HW148509   9.065   1.367   1.312 -0.2911  0.1625  1.1359
14224SOL    HW248510   9.184   1.447   1.265 -0.3750 -1.4579 -2.1092
14225SOL     OW48511   9.238  12.239   6.024  0.5909  0.0545  0.8593
14225SOL    HW148512   9.203  12.192   6.100  0.7171 -0.0852  0.8309
14225SOL    HW248513   9.178  12.216   5.952  1.6595 -1.5008  0.4223
14226SOL     OW48514   0.451   6.627   4.541 -0.2676 -0.1465 -0.2856
14226SOL    HW148515   0.381   6.658   4.598  1.6128  1.8523  1.0945
14226SOL    HW248516   0.510   6.579   4.599  0.6926  0.2321 -0.9281
14227SOL     OW48517   9.995   6.049   4.031  0.1878 -0.6161  0.4074
14227SOL    HW148518   9.999   6.070   4.124  0.6025 -0.1209  0.2881
14227SOL    HW248519  10.027   6.129   3.987 -1.9229 -0.0735 -0.2582
14228SOL     OW48520   3.744   6.805   8.173  0.3675 -0.1226  0.4986
14228SOL    HW148521   3.683   6.742   8.134 -0.6768  0.7770  0.6324
14228SOL    HW248522   3.775   6.857   8.099  2.0847 -1.4505  0.2222
14229SOL     OW48523   3.427   5.193   0.794  0.2861 -0.2096 -0.4531
14229SOL    HW148524   3.461   5.248   0.864  1.3397 -1.1223 -0.2033
14229SOL    HW248525   3.350   5.238   0.762  0.8330  1.1423  0.0745
14230SOL     OW48526   6.561   4.853  10.805 -0.1814  0.0411  0.3569
14230SOL    HW148527   6.540   4.945  10.817  1.0966  0.4456 -0.3536
14230SOL    HW248528   6.499   4.823  10.738 -0.8631  0.2637  0.8715
14231SOL     OW48529   3.138   2.376  11.184 -0.0955  0.1927  0.1757
14231SOL    HW148530   3.048   2.350  11.166  0.0748  0.1799 -0.6988
14231SOL    HW248531   3.151   2.356  11.277 -0.5789 -1.0320 -0.0073
14232SOL     OW48532   8.198   8.519  10.217  0.1192  0.0348  0.4793
14232SOL    HW148533   8.237   8.432  10.208 -1.0299 -0.6143  1.3952
14232SOL    HW248534   8.106   8.501  10.236 -0.4118  1.4846 -0.5760
14233SOL     OW48535   3.352   7.015   6.018  0.7019  0.1666  0.5329
14233SOL    HW148536   3.369   7.108   6.003  0.4487  0.0957 -0.2155
14233SOL    HW248537   3.430   6.970   5.984  0.0625 -0.0036 -0.7747
14234SOL     OW48538  11.426   9.080   8.425  0.3204 -0.2016 -0.1970
14234SOL    HW148539  11.485   9.080   8.349  3.1216 -1.4591  1.8000
14234SOL    HW248540  11.437   9.167   8.463  0.2256 -0.1369 -0.3192
14235SOL     OW48541   0.076   0.360   2.129 -0.9585 -0.2882  0.1402
14235SOL    HW148542   0.038   0.446   2.147 -2.5367 -0.7140 -0.9461
14235SOL    HW248543   0.138   0.346   2.201 -1.9399  1.0066  1.3002
14236SOL     OW48544   2.764   7.560   1.658 -0.2379  0.1264  0.3709
14236SOL    HW148545   2.831   7.598   1.600 -1.6053 -1.9787 -2.8602
14236SOL    HW248546   2.806   7.482   1.694  0.7371  1.6264  2.6872
14237SOL     OW48547   5.852   1.237   6.189  0.6564  0.3122  0.1234
14237SOL    HW148548   5.882   1.305   6.250  2.8240 -1.0635  0.6751
14237SOL    HW248549   5.931   1.191   6.162 -0.5592 -0.9129 -1.6039
14238SOL     OW48550   4.900   5.965  10.992 -0.2812  0.2942 -0.3216
14238SOL    HW148551   4.925   6.058  10.996 -1.5800  0.6916 -0.8152
14238SOL    HW248552   4.951   5.924  11.062  0.1684  1.4185  0.0462
14239SOL     OW48553   3.760  11.100   9.680  0.0272  0.1153  0.1442
14239SOL    HW148554   3.732  11.098   9.771  1.7645  0.2784  0.7249
14239SOL    HW248555   3.685  11.134   9.632 -0.7377  0.5248  1.5774
14240SOL     OW48556   8.861  10.177   2.653 -0.5874  0.1011  0.3455
14240SOL    HW148557   8.953  10.159   2.633 -0.4605  0.9596  0.1332
14240SOL    HW248558   8.854  10.272   2.652 -1.0042  0.1480  2.5308
14241SOL     OW48559   1.574   1.959   4.990 -0.3606  0.2217 -0.0158
14241SOL    HW148560   1.635   1.896   4.952  0.1071  1.4169 -1.3802
14241SOL    HW248561   1.522   1.990   4.916 -1.2824  0.6787  0.7977
14242SOL     OW48562   9.334   5.512   5.031  0.2580 -0.1971  0.1230
14242SOL    HW148563   9.273   5.505   5.104 -0.2728 -5.4447 -0.4666
14242SOL    HW248564   9.304   5.588   4.981 -3.6168 -0.4592  1.7478
14243SOL     OW48565   5.710   5.425  11.159  0.3524  0.0650 -0.2185
14243SOL    HW148566   5.735   5.350  11.213 -0.6188 -0.9351 -1.1191
14243SOL    HW248567   5.791   5.452  11.116  0.6159 -0.8036 -0.2861
14244SOL     OW48568   5.041   1.522   7.681  0.6690 -0.0717  0.7802
14244SOL    HW148569   5.020   1.430   7.663 -0.6420  0.3018  0.3314
14244SOL    HW248570   4.958   1.562   7.706  0.6562  1.5696 -1.5571
14245SOL     OW48571   4.908   5.353   8.682 -0.1160  0.4752 -1.0482
14245SOL    HW148572   4.910   5.430   8.739 -0.7240  2.3283 -3.3904
14245SOL    HW248573   5.000   5.339   8.657 -0.1226  1.1013 -1.4340
14246SOL     OW48574   9.539   2.352  10.217  0.1719  0.3240 -0.0610
14246SOL    HW148575   9.553   2.427  10.159  0.3398  1.5008  1.4110
14246SOL    HW248576   9.575   2.277  10.170  1.2154  1.3946 -1.0367
14247SOL     OW48577   0.174   2.705   5.116 -0.3338  0.1284  0.2705
14247SOL    HW148578   0.102   2.648   5.144  0.2243 -2.6976 -3.2157
14247SOL    HW248579   0.242   2.644   5.087  1.7089  2.6717 -0.6699
14248SOL     OW48580  11.550   7.580   1.600  0.0302 -0.2977 -0.7336
14248SOL    HW148581  11.545   7.488   1.627 -0.0712 -0.1785 -0.3444
14248SOL    HW248582  11.481   7.623   1.650  2.4878  0.7199  2.0348
14249SOL     OW48583  10.021   4.524   5.886 -0.5389  0.0093 -0.8687
14249SOL    HW148584   9.970   4.493   5.960  1.3918  0.1973  0.6389
14249SOL    HW248585   9.956   4.554   5.822 -2.2724 -0.6203  0.5267
14250SOL     OW48586   5.527   8.397  12.087  0.3624  0.3128  0.3568
14250SOL    HW148587   5.441   8.363  12.062  0.1715  1.7164 -1.0125
14250SOL    HW248588   5.589   8.333  12.053 -0.0508  0.5678 -0.9208
14251SOL     OW48589   6.274   3.805   0.580  0.1734  0.0831 -0.1894
14251SOL    HW148590   6.235   3.737   0.525  1.2102 -0.1519 -0.6662
14251SOL    HW248591   6.315   3.865   0.518  1.3472 -0.1749  0.3089
14252SOL     OW48592   1.603  10.551   4.752  0.7988  0.1279  0.2778
14252SOL    HW148593   1.602  10.597   4.837  1.5787  1.2555 -0.2877
14252SOL    HW248594   1.691  10.513   4.747  1.4284  1.6080 -0.7692
14253SOL     OW48595   7.362   2.783   7.318 -0.2256  0.3590  0.4622
14253SOL    HW148596   7.443   2.805   7.364  2.1558 -1.4944 -2.4678
14253SOL    HW248597   7.363   2.840   7.241  0.3829 -2.1747 -1.5473
14254SOL     OW48598   9.247   6.655   8.230 -0.6990  0.2921  0.6286
14254SOL    HW148599   9.315   6.698   8.178 -1.6397 -0.3370 -1.2153
14254SOL    HW248600   9.294   6.590   8.282  0.1368 -0.0887 -0.5554
14255SOL     OW48601  11.051   6.893   7.129 -0.6052 -0.7000 -0.4602
14255SOL    HW148602  11.088   6.973   7.090  0.6582 -1.7061 -1.4042
14255SOL    HW248603  11.078   6.895   7.220  0.5658 -0.6889 -0.7959
14256SOL     OW48604   7.313  12.281   8.247  0.5919 -0.3753  0.2771
14256SOL    HW148605   7.385  12.274   8.184 -0.4597  1.4600 -1.2528
14256SOL    HW248606   7.270  12.196   8.243  1.0513 -0.5806 -0.8794
14257SOL     OW48607   5.026   1.506   9.608  0.0219 -0.1610 -0.1476
14257SOL    HW148608   4.970   1.456   9.549 -2.0265  1.3300  0.3971
14257SOL    HW248609   4.979   1.589   9.620  1.1998  0.2281  2.2487
14258SOL     OW48610   9.692  11.925   0.797 -0.5371 -0.4982 -0.8846
14258SOL    HW148611   9.769  11.914   0.741 -0.3827 -0.9216 -0.5999
14258SOL    HW248612   9.700  11.854   0.861 -2.3431 -1.9711 -2.1839
14259SOL     OW48613   6.749   8.465   7.592  0.1972  0.6338 -0.3397
14259SOL    HW148614   6.695   8.544   7.584 -0.2117  0.3795 -0.1474
14259SOL    HW248615   6.793   8.474   7.676 -0.1790  0.4629 -0.1191
14260SOL     OW48616  10.089   0.945   9.989  0.1002  0.3602  0.1048
14260SOL    HW148617  10.149   0.896  10.045 -2.6851 -1.6048  1.6667
14260SOL    HW248618  10.066   0.885   9.919 -0.3332  0.9067 -0.2355
14261SOL     OW48619   6.593   7.558   2.725 -0.0346 -0.1765 -0.1593
14261SOL    HW148620   6.506   7.520   2.733  0.3284 -0.7242  1.8344
14261SOL    HW248621   6.579   7.643   2.685 -1.5091 -0.2310  0.1883
14262SOL     OW48622   1.622  11.048   0.347 -0.1411  0.1478 -0.3118
14262SOL    HW148623   1.554  10.982   0.338  0.3182 -0.3323 -0.3644
14262SOL    HW248624   1.575  11.131   0.358 -0.7929 -0.5070  2.6629
14263SOL     OW48625   5.224   4.662   6.142  0.2336  0.0036  0.0298
14263SOL    HW148626   5.142   4.700   6.175  0.4668  1.0543 -0.5544
14263SOL    HW248627   5.290   4.686   6.207  0.2505 -0.0264  0.0235
14264SOL     OW48628   3.175   4.791  12.234 -0.0238  0.4590 -0.8479
14264SOL    HW148629   3.268   4.808  12.220 -0.3634  1.6853 -1.8741
14264SOL    HW248630   3.137   4.795  12.146 -0.9013 -1.0897 -0.5771
14265SOL     OW48631  10.719   6.318   4.137  0.1298 -0.4262  0.3172
14265SOL    HW148632  10.771   6.364   4.203  0.9578 -1.0926  0.1497
14265SOL    HW248633  10.690   6.386   4.077 -0.4375  0.1554  1.2291
14266SOL     OW48634   4.596   7.911   3.497  0.7969  0.3671  0.0965
14266SOL    HW148635   4.594   7.858   3.576 -0.4393  0.3942  0.1026
14266SOL    HW248636   4.586   8.001   3.528  0.2219  0.3715 -0.0851
14267SOL     OW48637   7.867   8.552  12.015 -0.2763 -0.0300  0.2596
14267SOL    HW148638   7.797   8.487  12.013  1.0487 -1.5537 -2.3490
14267SOL    HW248639   7.848   8.611  11.942  1.2384 -0.6284 -0.6625
14268SOL     OW48640  11.450  10.166   1.512  0.1591 -0.3412  0.2786
14268SOL    HW148641  11.476  10.134   1.426 -0.9181  0.8695 -0.5259
14268SOL    HW248642  11.490  10.104   1.574  1.0967 -1.1212 -1.0665
14269SOL     OW48643   5.147   2.186   2.877  0.0518 -0.3553  0.1668
14269SOL    HW148644   5.173   2.095   2.869 -0.2215 -0.5775  1.5581
14269SOL    HW248645   5.184   2.214   2.961 -0.2961  0.6605 -0.0092
14270SOL     OW48646   6.947   0.098   1.208 -0.0652 -0.2589  0.0065
14270SOL    HW148647   6.992   0.164   1.156  2.0564  0.1373  2.1175
14270SOL    HW248648   6.857   0.097   1.176  0.1753  2.6823 -0.9955
14271SOL     OW48649   0.724   9.923   0.581 -0.1645  0.6921 -0.5089
14271SOL    HW148650   0.643   9.966   0.553  0.3745  1.9933 -0.1122
14271SOL    HW248651   0.794   9.972   0.538  0.6540  2.3133  2.4484
14272SOL     OW48652   2.996   6.880  11.468  0.3062  0.2051 -0.0235
14272SOL    HW148653   2.953   6.821  11.407  0.6562 -0.8896  0.7731
14272SOL    HW248654   2.939   6.883  11.545  0.2750  0.9399 -0.0595
14273SOL     OW48655  11.036  11.180  11.840 -0.3300  0.1723  0.2365
14273SOL    HW148656  11.036  11.270  11.807 -0.6095  0.8221  1.9145
14273SOL    HW248657  11.026  11.126  11.762 -2.0846  1.6652 -0.6403
14274SOL     OW48658   5.468   4.588   5.625 -0.0579 -0.1673 -1.0729
14274SOL    HW148659   5.424   4.514   5.666  0.9908  0.0615  0.5724
14274SOL    HW248660   5.401   4.628   5.569 -1.8131 -0.0990  0.9581
14275SOL     OW48661   1.499   7.810   1.579  0.0464  0.4043  0.4038
14275SOL    HW148662   1.445   7.779   1.651  0.3426 -1.9442 -0.2980
14275SOL    HW248663   1.438   7.828   1.508 -0.0537  0.4720  0.5084
14276SOL     OW48664   3.331   9.628   4.828  0.2329  0.0628  0.0353
14276SOL    HW148665   3.263   9.621   4.896 -0.7922 -1.6955 -1.0770
14276SOL    HW248666   3.409   9.592   4.870  0.6870  2.5108  1.4793
14277SOL     OW48667   5.733   9.372   8.788 -0.1087 -0.0575 -0.3025
14277SOL    HW148668   5.646   9.334   8.787 -0.0786 -0.1635  0.5470
14277SOL    HW248669   5.739   9.421   8.705 -1.8373  1.8943  0.6324
14278SOL     OW48670   0.175   6.355   6.898 -0.1808 -0.2988  0.5991
14278SOL    HW148671   0.140   6.444   6.895  0.9440  0.1320 -1.7857
14278SOL    HW248672   0.197   6.342   6.991 -1.7982  1.2766  1.2867
14279SOL     OW48673   2.580   9.868   0.045  0.0040 -0.2251  0.2412
14279SOL    HW148674   2.661   9.906   0.080 -0.9819  0.5724  1.7290
14279SOL    HW248675   2.517   9.873   0.117 -1.4091 -0.7644 -0.9012
14280SOL     OW48676   2.149   7.004   4.195 -0.7739 -0.6186 -0.0066
14280SOL    HW148677   2.058   7.035   4.197 -0.9025 -0.9246 -0.7586
14280SOL    HW248678   2.142   6.910   4.178 -0.2646 -0.2209 -2.7756
14281SOL     OW48679   1.652  10.677   0.415 -0.0359  0.4020 -0.1515
14281SOL    HW148680   1.576  10.725   0.447  0.5205  1.1978  0.0013
14281SOL    HW248681   1.632  10.585   0.432 -0.7483  0.6437  0.3253
14282SOL     OW48682   2.259   9.074  10.831  0.2684 -0.2487  0.0891
14282SOL    HW148683   2.170   9.093  10.861  0.3206 -0.2189  0.2240
14282SOL    HW248684   2.286   9.154  10.784 -0.1070 -0.5897 -0.7242
14283SOL     OW48685   5.856   8.784   2.706 -0.1392 -0.2895 -0.1574
14283SOL    HW148686   5.850   8.773   2.611 -0.3787 -1.3507 -0.0268
14283SOL    HW248687   5.776   8.744   2.740 -1.1985  2.0923  0.3684
14284SOL     OW48688   3.254   5.605  10.501  0.3237 -0.5421  0.1502
14284SOL    HW148689   3.243   5.510  10.509  0.0410 -0.4990  0.2939
14284SOL    HW248690   3.304   5.630  10.578 -0.0271 -0.5072  0.3683
14285SOL     OW48691  12.197   6.622   8.476  0.2086 -0.5344 -0.3121
14285SOL    HW148692  12.243   6.562   8.535 -1.9389 -1.2353  0.7785
14285SOL    HW248693  12.180   6.699   8.529  0.0796 -0.3053 -0.6825
14286SOL     OW48694  10.480   6.207   8.671  0.1095 -0.6179 -0.3256
14286SOL    HW148695  10.424   6.256   8.730  0.0896 -0.8607 -0.1420
14286SOL    HW248696  10.430   6.201   8.590 -0.3687 -1.3145  0.0155
14287SOL     OW48697   5.072   3.938   3.260 -0.0115 -0.0234 -0.3801
14287SOL    HW148698   5.103   4.017   3.217 -0.9155  1.2548  1.2182
14287SOL    HW248699   5.056   3.964   3.351 -0.7286 -1.9375  0.1003
14288SOL     OW48700   6.388   8.867   5.885  0.3916 -0.4722  0.2836
14288SOL    HW148701   6.366   8.920   5.962  0.3227  0.6323 -0.4617
14288SOL    HW248702   6.478   8.894   5.863  0.0031  0.0734 -0.6812
14289SOL     OW48703   5.296   8.561   3.212  0.1556  0.8062 -0.0671
14289SOL    HW148704   5.216   8.606   3.241  0.2587  0.7991  0.2309
14289SOL    HW248705   5.340   8.625   3.155 -0.5313  0.4681 -1.0142
14290SOL     OW48706   4.729  10.937   0.074  0.0626  0.4405  0.0507
14290SOL    HW148707   4.754  10.869   0.136 -0.0848 -0.2226 -0.5936
14290SOL    HW248708   4.811  10.963   0.031  0.2712  1.3942  0.9841
14291SOL     OW48709   2.516   7.004   1.527  0.2296  0.3814  0.3601
14291SOL    HW148710   2.455   7.069   1.563  0.1992  1.0648 -0.8807
14291SOL    HW248711   2.598   7.053   1.514  0.5515 -0.1186  0.4675
14292SOL     OW48712   3.723   2.306   1.966  0.0934  0.4062 -0.1247
14292SOL    HW148713   3.737   2.214   1.942 -1.4865  0.6728 -2.3992
14292SOL    HW248714   3.811   2.340   1.980  0.6544 -1.9406  3.1789
14293SOL     OW48715  12.280   5.320   0.924 -0.0281 -0.5200 -0.0017
14293SOL    HW148716  12.307   5.237   0.964 -1.2590 -1.1969 -0.5325
14293SOL    HW248717  12.203   5.347   0.974  1.1886  1.0876  1.1132
14294SOL     OW48718   5.818   8.500   5.863 -0.1503  0.4849 -0.2625
14294SOL    HW148719   5.758   8.470   5.931  0.9179  0.1257  0.5639
14294SOL    HW248720   5.779   8.580   5.829 -1.5357 -0.2082 -0.3876
14295SOL     OW48721   0.115  10.641   6.375  0.0938  0.1345 -0.1121
14295SOL    HW148722   0.184  10.671   6.434  0.2866 -0.3330 -0.0889
14295SOL    HW248723   0.040  10.623   6.433 -0.3789  1.5557 -0.2477
14296SOL     OW48724   6.758   1.327   3.567 -0.2427 -0.0089 -0.3232
14296SOL    HW148725   6.780   1.351   3.657  1.0142 -0.3891 -0.5042
14296SOL    HW248726   6.708   1.246   3.574  0.9762 -0.7654  0.0018
14297SOL     OW48727  11.349   8.321   7.451  0.7817  0.3447  0.2886
14297SOL    HW148728  11.333   8.336   7.357 -1.0898 -0.9923  0.3366
14297SOL    HW248729  11.441   8.293   7.455  0.6499 -0.4437 -1.2749
14298SOL     OW48730   6.754   8.039   7.249  0.3065  0.0640  0.0388
14298SOL    HW148731   6.843   8.035   7.284  1.0915 -1.4128 -1.9209
14298SOL    HW248732   6.743   8.129   7.219  0.2422  0.8823  2.3202
14299SOL     OW48733   4.266   2.949   1.588  0.2642  0.0443 -0.2247
14299SOL    HW148734   4.342   2.893   1.600 -0.9759 -1.4691  1.0784
14299SOL    HW248735   4.282   2.994   1.504  1.8995 -1.2933 -0.6896
14300SOL     OW48736  11.820   6.036  11.586 -0.2695  0.0102  0.8748
14300SOL    HW148737  11.858   5.948  11.591  1.4664  0.0906 -4.3601
14300SOL    HW248738  11.894   6.095  11.598 -0.3241  0.4903 -0.8913
14301SOL     OW48739  12.189   7.682  11.322 -0.2068  0.0903 -0.0563
14301SOL    HW148740  12.116   7.621  11.335 -0.3562  0.3251  0.2380
14301SOL    HW248741  12.155   7.747  11.260  0.1099 -0.3776 -0.7291
14302SOL     OW48742   2.408   1.664   9.395 -0.2982 -0.2819 -0.6135
14302SOL    HW148743   2.433   1.664   9.303  1.3824 -0.8945 -0.1778
14302SOL    HW248744   2.424   1.574   9.424  0.5509  0.2496  0.6218
14303SOL     OW48745   1.746   6.136   6.846 -0.1999  0.3717  0.1744
14303SOL    HW148746   1.685   6.089   6.903  0.9510 -0.7901  0.4784
14303SOL    HW248747   1.789   6.198   6.905  1.0611 -0.8976  0.6317
14304SOL     OW48748   0.137   2.934   1.587  0.2218 -0.1540 -0.2350
14304SOL    HW148749   0.055   2.972   1.555  1.1175  0.5491 -1.8170
14304SOL    HW248750   0.129   2.841   1.568 -0.1345 -0.0568 -0.5953
14305SOL     OW48751   2.531   3.483   2.047  0.0888  0.1741 -0.3304
14305SOL    HW148752   2.490   3.453   1.966 -0.9736 -1.3681  0.7256
14305SOL    HW248753   2.478   3.558   2.074  0.1042  0.3448 -0.7635
14306SOL     OW48754   9.807   1.942   7.193 -0.4396 -0.0131  0.4723
14306SOL    HW148755   9.817   1.885   7.116 -1.8250  0.1891  0.1121
14306SOL    HW248756   9.892   1.984   7.202  0.4088 -1.6023  0.3247
14307SOL     OW48757   7.028   7.202   5.951  0.4676  0.2771 -0.0694
14307SOL    HW148758   7.104   7.255   5.974  0.5117  0.1261  0.1400
14307SOL    HW248759   7.065   7.119   5.920  0.3743 -0.1471  0.9160
14308SOL     OW48760  12.100   3.831   0.537  0.4991  0.0242  0.0639
14308SOL    HW148761  12.061   3.850   0.451  0.0597 -0.4725  0.1510
14308SOL    HW248762  12.051   3.886   0.598  0.4195 -0.0623  0.0773
14309SOL     OW48763   7.238   6.162   0.799 -0.0442  0.4142  0.4164
14309SOL    HW148764   7.210   6.132   0.885  0.3383 -0.4233  0.2589
14309SOL    HW248765   7.278   6.085   0.758 -0.1374  0.8223 -0.4746
14310SOL     OW48766   2.254   6.582   9.893 -0.0466 -0.0846 -0.2606
14310SOL    HW148767   2.176   6.634   9.913 -0.1700 -1.0657  2.2000
14310SOL    HW248768   2.325   6.627   9.940  0.5369 -0.2276 -0.9857
14311SOL     OW48769   9.716  11.101   5.850  0.4148 -0.4420 -0.2108
14311SOL    HW148770   9.704  11.102   5.755  0.3608 -0.9242 -0.2133
14311SOL    HW248771   9.808  11.077   5.862  0.3667 -0.5983 -0.1416
14312SOL     OW48772   1.968   8.410  10.685 -0.0399  0.3778  0.2789
14312SOL    HW148773   1.891   8.466  10.681  0.3704  0.8824 -2.8582
14312SOL    HW248774   1.934   8.322  10.698 -1.0980  0.6760 -0.3906
14313SOL     OW48775   9.598  12.303  10.184 -0.1696 -0.4031  0.1415
14313SOL    HW148776   9.643  12.360  10.122 -0.7446  0.1173  0.1948
14313SOL    HW248777   9.659  12.295  10.258 -0.1878  0.3436  0.2410
14314SOL     OW48778   8.209   4.423   2.302 -0.3918 -0.7599  0.1681
14314SOL    HW148779   8.228   4.439   2.394 -0.2956  0.3632 -0.0286
14314SOL    HW248780   8.266   4.484   2.255  0.7288 -2.4014 -0.7188
14315SOL     OW48781   1.665  10.560  11.608  0.1622 -0.3096  0.0435
14315SOL    HW148782   1.666  10.654  11.627  1.3244 -0.0843 -0.9991
14315SOL    HW248783   1.757  10.537  11.597 -0.1331 -1.4919 -0.0978
14316SOL     OW48784   0.738   9.142   8.987 -0.3722 -0.2053 -0.6386
14316SOL    HW148785   0.684   9.116   9.062  1.8546 -1.6251  0.5810
14316SOL    HW248786   0.754   9.060   8.940  1.3166  0.0319 -0.5208
14317SOL     OW48787   2.922   3.912   5.905  0.2562 -0.7727 -0.1472
14317SOL    HW148788   2.888   3.964   5.978  0.7966  1.6307 -1.4884
14317SOL    HW248789   2.980   3.848   5.946 -0.6097 -0.4828  1.6271
14318SOL     OW48790   8.101   0.311   0.679  0.1348 -0.1230 -0.3261
14318SOL    HW148791   8.029   0.248   0.683 -0.3955  0.5373  1.1995
14318SOL    HW248792   8.088   0.368   0.754  1.7399  0.5977 -0.5410
14319SOL     OW48793   5.216   5.706   1.273  0.1814  0.0560  0.0970
14319SOL    HW148794   5.193   5.694   1.181 -0.5036 -0.1324  0.2900
14319SOL    HW248795   5.220   5.618   1.309 -0.9881  0.1913  0.5864
14320SOL     OW48796   3.305   0.977  11.621 -0.5067 -0.5383 -0.2365
14320SOL    HW148797   3.312   0.892  11.663  1.8838  0.3519  1.4073
14320SOL    HW248798   3.374   1.030  11.662 -0.5413  1.5786 -2.6427
14321SOL     OW48799   4.415   4.269   1.271  0.6090  0.1773  0.0962
14321SOL    HW148800   4.480   4.292   1.337  0.8083  0.2433 -0.1180
14321SOL    HW248801   4.462   4.278   1.188  0.2866  0.3523 -0.0695
14322SOL     OW48802   9.218   9.017   8.591  0.0787 -0.0445 -0.3745
14322SOL    HW148803   9.210   9.060   8.675  0.9006 -1.4526  0.4798
14322SOL    HW248804   9.273   9.075   8.539 -1.4594  1.4390 -0.4145
14323SOL     OW48805   8.453   1.825   0.249  1.1456  0.6536  0.0830
14323SOL    HW148806   8.404   1.884   0.192  1.0721  1.8547  1.3232
14323SOL    HW248807   8.405   1.742   0.245  1.2062  0.6706 -1.6369
14324SOL     OW48808  10.764   2.965  12.086  0.2221  0.6600 -0.3592
14324SOL    HW148809  10.799   3.053  12.072  0.2895  0.7109  0.1395
14324SOL    HW248810  10.820   2.909  12.033  3.1272  0.2904  2.7773
14325SOL     OW48811  11.004   8.016   5.170  0.2251  0.5297  0.1027
14325SOL    HW148812  11.046   7.937   5.138 -0.0255  0.7933 -0.8971
14325SOL    HW248813  11.005   8.076   5.095  0.3250  1.4413  0.8077
14326SOL     OW48814   4.022  11.779   4.945 -0.0385  0.5816 -0.4536
14326SOL    HW148815   3.986  11.851   4.998 -0.6367 -0.3875  0.5171
14326SOL    HW248816   4.108  11.810   4.918  0.7490  0.7429  1.9766
14327SOL     OW48817   2.769   0.088   5.257 -0.3002 -0.3275  0.1888
14327SOL    HW148818   2.826   0.039   5.316 -1.5361 -1.9317  0.1260
14327SOL    HW248819   2.734   0.022   5.197 -1.7752  0.6885 -0.1202
14328SOL     OW48820   5.835  10.249   7.618 -0.0663  0.3419 -0.7140
14328SOL    HW148821   5.842  10.206   7.533  0.8742  0.3085 -0.6362
14328SOL    HW248822   5.922  10.238   7.657 -0.7085 -0.3588  0.5939
14329SOL     OW48823   8.704   9.644   1.383  0.7601  0.2197 -0.2300
14329SOL    HW148824   8.772   9.618   1.321  0.0897  0.7893 -1.2362
14329SOL    HW248825   8.751   9.662   1.465  1.8966  1.1515 -1.0598
14330SOL     OW48826   6.464   0.056   8.996  0.0439  0.4827  0.0916
14330SOL    HW148827   6.440  -0.014   9.056 -0.8278  0.5193 -0.1963
14330SOL    HW248828   6.444   0.021   8.909 -0.5663  1.1394 -0.0439
14331SOL     OW48829   2.456   5.588   6.540  0.0001 -0.2930  0.1129
14331SOL    HW148830   2.548   5.573   6.516  0.1107 -2.6212  1.6931
14331SOL    HW248831   2.456   5.582   6.636 -1.6756  0.7124  0.2090
14332SOL     OW48832   2.032   0.998   9.394  0.1426  0.7045 -0.5227
14332SOL    HW148833   1.940   0.989   9.419  0.5189 -1.0750  0.3684
14332SOL    HW248834   2.035   0.976   9.301 -0.1724 -0.5338 -0.2554
14333SOL     OW48835   5.108   8.854   3.836 -0.0685  0.0502  0.3924
14333SOL    HW148836   5.171   8.899   3.893  2.8128 -2.3351 -0.6188
14333SOL    HW248837   5.142   8.866   3.748  0.2264 -2.9870 -0.0132
14334SOL     OW48838   5.197   7.715   0.484 -0.7923  0.2616 -0.7897
14334SOL    HW148839   5.148   7.638   0.454  0.6004 -1.4211  1.0563
14334SOL    HW248840   5.210   7.702   0.577 -1.8493  3.5686 -0.0256
14335SOL     OW48841   2.787   7.645   7.905 -0.0570  0.4750  0.4695
14335SOL    HW148842   2.832   7.587   7.843 -0.2666  1.5489 -0.7218
14335SOL    HW248843   2.775   7.591   7.983  1.2646 -0.5473  0.0049
14336SOL     OW48844   6.061   0.841   9.618  0.0231  0.3785  0.0823
14336SOL    HW148845   6.072   0.746   9.625  0.5365  0.3954 -0.4278
14336SOL    HW248846   6.034   0.856   9.527 -0.8166  0.6587  0.3686
14337SOL     OW48847   6.175   0.112   7.297  0.8914 -0.8858 -0.1836
14337SOL    HW148848   6.167   0.068   7.382  1.4181 -1.9865 -0.6870
14337SOL    HW248849   6.264   0.148   7.298  0.3967  0.4209  0.3125
14338SOL     OW48850   3.944  10.767   8.984  0.3389  0.1936  0.2822
14338SOL    HW148851   3.988  10.717   8.916 -0.1444  1.3805 -0.9500
14338SOL    HW248852   3.914  10.847   8.940 -2.0524 -0.0510  1.3012
14339SOL     OW48853  11.150   0.673   2.551  0.8127 -0.4190  0.2200
14339SOL    HW148854  11.121   0.588   2.584 -1.9066 -0.5218 -2.0998
14339SOL    HW248855  11.085   0.735   2.585  1.7112  0.4759  0.3656
14340SOL     OW48856   1.414   7.899   4.435 -0.0434 -0.3272  0.3645
14340SOL    HW148857   1.350   7.881   4.367  0.0967  0.2855  0.0647
14340SOL    HW248858   1.485   7.836   4.420  0.1896  0.0943 -0.3323
14341SOL     OW48859  11.085  10.661   0.515 -0.2867  0.1688  0.2068
14341SOL    HW148860  11.086  10.750   0.551 -0.9487  0.2656  0.0083
14341SOL    HW248861  11.172  10.627   0.533  0.8676  1.7309 -1.8858
14342SOL     OW48862   4.919   9.414   4.515  0.1464 -0.5207  0.2689
14342SOL    HW148863   4.997   9.468   4.528  0.2020 -0.3208 -0.7753
14342SOL    HW248864   4.935   9.336   4.569  1.7186 -1.1209 -0.9735
14343SOL     OW48865   7.021   3.345   1.981  0.0037  0.1123  0.5718
14343SOL    HW148866   7.112   3.319   1.966  0.7935  0.6647  3.7147
14343SOL    HW248867   6.981   3.269   2.024  0.2163  1.2005  2.8775
14344SOL     OW48868  12.180  10.750   1.052 -0.5377 -0.4587  0.5248
14344SOL    HW148869  12.273  10.729   1.055 -0.6231 -0.6753  2.6936
14344SOL    HW248870  12.142  10.706   1.128 -1.7781  2.5010  1.7887
14345SOL     OW48871   1.355  10.967   7.453  0.2353 -0.1697 -0.2358
14345SOL    HW148872   1.266  10.963   7.488 -0.0149  1.2708 -0.6213
14345SOL    HW248873   1.411  10.982   7.529 -0.0504  0.5752 -0.1606
14346SOL     OW48874   5.400   6.720   6.825 -0.8803 -0.1807 -0.0857
14346SOL    HW148875   5.366   6.809   6.838  0.8852  0.5843 -0.5135
14346SOL    HW248876   5.377   6.673   6.906  0.2314  1.3360  1.1525
14347SOL     OW48877   6.473   1.325  11.482  0.2873 -0.0420 -0.1667
14347SOL    HW148878   6.475   1.405  11.430 -0.3325 -0.3108 -0.6119
14347SOL    HW248879   6.383   1.295  11.476  0.4105 -0.5346  0.3701
14348SOL     OW48880   2.376   0.331   4.013 -0.4932  0.0816  0.0254
14348SOL    HW148881   2.433   0.296   4.082 -1.3261 -0.4811  0.4490
14348SOL    HW248882   2.368   0.424   4.034  0.6715  0.2761 -0.3369
14349SOL     OW48883   3.619  11.398  11.468  0.1162 -0.8839 -0.1467
14349SOL    HW148884   3.527  11.421  11.470 -0.0911 -1.6171 -0.7899
14349SOL    HW248885   3.646  11.410  11.377  0.3333 -1.8257 -0.2273
14350SOL     OW48886   7.976  11.961  10.279  0.1755  0.2427 -0.0037
14350SOL    HW148887   8.050  11.904  10.297  0.1688  0.2812  0.1430
14350SOL    HW248888   7.969  12.017  10.356 -1.4250 -1.2581  1.0135
14351SOL     OW48889   4.016   8.757  11.344 -0.4272 -0.2387  0.0459
14351SOL    HW148890   4.017   8.853  11.346  3.0196 -0.1757  0.6235
14351SOL    HW248891   4.092   8.733  11.291 -1.9016 -2.7221 -1.1385
14352SOL     OW48892   9.734  10.168   1.682 -1.0331 -0.2611 -0.1126
14352SOL    HW148893   9.718  10.256   1.649 -2.7625 -0.0093  1.2624
14352SOL    HW248894   9.669  10.156   1.751  1.7722 -1.0985  2.5737
14353SOL     OW48895   4.593   5.213   3.967 -0.3878  0.0677  0.0226
14353SOL    HW148896   4.647   5.243   3.894  0.0220 -0.1627  0.2238
14353SOL    HW248897   4.503   5.223   3.937 -0.2144 -0.8519 -0.8514
14354SOL     OW48898   8.021  10.051  10.479  0.3655  0.1996 -0.1109
14354SOL    HW148899   8.096  10.058  10.538  0.2522  0.3149  0.0193
14354SOL    HW248900   8.059  10.041  10.392  0.5483  1.9552 -0.2663
14355SOL     OW48901   7.109   0.306   1.090 -0.2353 -0.2666 -0.2286
14355SOL    HW148902   7.050   0.369   1.050  1.1498  0.9375 -0.4709
14355SOL    HW248903   7.197   0.340   1.072  0.6361 -2.8335 -1.3060
14356SOL     OW48904   0.368   4.429   4.257  0.1427 -0.0012 -0.4288
14356SOL    HW148905   0.295   4.460   4.311 -0.1820 -1.6911  0.1838
14356SOL    HW248906   0.426   4.385   4.319  1.1515  0.4067 -1.0694
14357SOL     OW48907   8.560   6.938   0.222  0.1266 -0.3656 -0.7298
14357SOL    HW148908   8.485   6.949   0.280 -0.9992  0.7413 -2.2948
14357SOL    HW248909   8.584   7.027   0.197  2.8039 -0.5904  0.6592
14358SOL     OW48910  10.725   7.016   1.645  0.3648 -0.1631 -0.0770
14358SOL    HW148911  10.784   6.941   1.647 -0.7217 -1.1885 -2.4354
14358SOL    HW248912  10.715   7.042   1.737  0.4916 -3.1541  0.8835
14359SOL     OW48913  11.253   9.015  12.306  0.2469 -0.6125 -0.0916
14359SOL    HW148914  11.327   9.031  12.248 -0.8585  0.7466 -1.2106
14359SOL    HW248915  11.234   8.922  12.294  0.5766 -0.5504 -1.2872
14360SOL     OW48916  10.678   1.194   4.985 -0.0817 -0.1921 -0.2977
14360SOL    HW148917  10.670   1.289   4.982  0.3156 -0.1160  0.6372
14360SOL    HW248918  10.770   1.177   4.963  0.0961 -0.2823  0.4610
14361SOL     OW48919   5.490   6.933   9.398  0.1313 -0.6576 -0.0452
14361SOL    HW148920   5.520   7.022   9.384  1.2542 -1.1096 -0.6264
14361SOL    HW248921   5.552   6.878   9.349 -0.7465 -1.7329 -0.0075
14362SOL     OW48922   8.248   2.901  12.031  0.1746 -0.1224 -0.5650
14362SOL    HW148923   8.256   2.885  12.125 -0.3651  1.3508 -0.2268
14362SOL    HW248924   8.335   2.885  11.996  1.0662  1.7824  0.6287
14363SOL     OW48925   8.320   6.596   7.395 -0.6487  0.6368 -0.4117
14363SOL    HW148926   8.384   6.653   7.439 -0.1981 -0.0511 -0.1644
14363SOL    HW248927   8.248   6.589   7.457 -0.1110 -0.1506  0.1338
14364SOL     OW48928   7.243   3.309   1.023  0.2002  0.0073 -0.0024
14364SOL    HW148929   7.193   3.347   0.951 -0.7747 -0.3305  0.4696
14364SOL    HW248930   7.177   3.269   1.080  1.0326 -0.6359  0.5474
14365SOL     OW48931   6.771  10.370   9.901 -0.2816  0.5959  0.2526
14365SOL    HW148932   6.808  10.432   9.963 -2.1077  0.2814  1.7478
14365SOL    HW248933   6.807  10.285   9.927 -0.8920  0.4918  0.7766
14366SOL     OW48934   9.084  11.203   6.717 -0.4777  0.1898 -0.3695
14366SOL    HW148935   9.039  11.285   6.694 -0.8807  0.5571  1.4904
14366SOL    HW248936   9.026  11.162   6.781  0.2367 -1.0390 -0.4849
14367SOL     OW48937   7.235  10.621   6.375 -0.0996 -0.1650  0.6374
14367SOL    HW148938   7.311  10.665   6.415  0.3367 -1.3480  1.1482
14367SOL    HW248939   7.255  10.528   6.382 -2.3298 -0.6062  2.3246
14368SOL     OW48940   1.091   9.402   7.545  0.0863  0.0876  0.4644
14368SOL    HW148941   1.072   9.316   7.505 -0.3926  0.7950 -0.9001
14368SOL    HW248942   1.005   9.436   7.569  0.2356  0.3859  0.5738
14369SOL     OW48943   4.420  11.013   8.943 -0.0776 -0.3797  0.8065
14369SOL    HW148944   4.469  11.095   8.946 -0.6403 -0.0149  0.2034
14369SOL    HW248945   4.486  10.945   8.961  1.0148 -0.0552 -1.6030
14370SOL     OW48946   8.486   7.546   5.851 -0.0304  0.2478 -0.0555
14370SOL    HW148947   8.443   7.597   5.919  0.7605 -1.1154  1.5426
14370SOL    HW248948   8.416   7.524   5.789 -0.6454  1.9858 -0.0123
14371SOL     OW48949  11.286   9.026  11.485  0.1745 -0.3685 -0.1327
14371SOL    HW148950  11.299   9.003  11.577 -0.1517  0.9527  0.2671
14371SOL    HW248951  11.370   9.006  11.444  0.4566 -0.5922  0.5342
14372SOL     OW48952   0.493   0.564   7.260 -0.2288  0.6529 -0.1516
14372SOL    HW148953   0.528   0.555   7.348 -2.2376 -0.5087  0.6001
14372SOL    HW248954   0.425   0.632   7.269 -0.9931 -0.0359 -0.5962
14373SOL     OW48955   8.682  10.398  10.672 -0.4128  0.1312  0.5831
14373SOL    HW148956   8.744  10.354  10.730  0.1749  1.0023  0.6206
14373SOL    HW248957   8.688  10.490  10.695 -1.2456  0.3075  0.1356
14374SOL     OW48958   0.892   4.858   9.722  0.1724  0.0790  0.6098
14374SOL    HW148959   0.982   4.864   9.754  1.1303 -1.2151 -1.6167
14374SOL    HW248960   0.856   4.782   9.767  0.5760 -0.0833  0.6669
14375SOL     OW48961   7.953   3.248   8.536 -0.1414 -0.0732 -0.4983
14375SOL    HW148962   8.032   3.300   8.521  0.0784 -1.0714 -3.3622
14375SOL    HW248963   7.882   3.302   8.500 -0.9747  1.1046  2.6280
14376SOL     OW48964  10.349   4.520   1.178  0.0400  0.3981  0.5320
14376SOL    HW148965  10.360   4.568   1.096 -2.0512  0.9790  0.5479
14376SOL    HW248966  10.279   4.566   1.224  0.9299 -0.1104  2.5268
14377SOL     OW48967   3.726   7.275   5.185  0.2247 -0.1582  0.3282
14377SOL    HW148968   3.686   7.189   5.200 -2.8223  1.2152  0.7881
14377SOL    HW248969   3.777   7.292   5.264  1.5226 -1.8174 -0.1022
14378SOL     OW48970   6.303   8.282   7.965  0.3920 -0.0266 -0.4715
14378SOL    HW148971   6.384   8.292   7.914 -0.0639  0.6876 -1.0707
14378SOL    HW248972   6.239   8.250   7.902  0.0131  0.1438 -0.1739
14379SOL     OW48973   7.579   6.004   2.745 -0.6436  0.4959  0.2131
14379SOL    HW148974   7.532   6.079   2.781 -1.9672  0.0112 -0.4657
14379SOL    HW248975   7.523   5.929   2.762 -0.1308 -0.1023 -0.6294
14380SOL     OW48976   9.670   4.964  11.066  0.1604 -0.0879 -0.2379
14380SOL    HW148977   9.752   4.937  11.108  0.2225 -1.3150 -1.1191
14380SOL    HW248978   9.603   4.907  11.103 -0.1283  0.1935 -0.3156
14381SOL     OW48979   0.903   9.348  11.190 -0.5411  0.1946 -0.6737
14381SOL    HW148980   0.809   9.363  11.197 -0.8005 -0.0261 -3.0550
14381SOL    HW248981   0.942   9.418  11.242 -1.9954  0.7108 -0.2296
14382SOL     OW48982  10.587  11.900   1.229 -0.9121  0.0640  0.3135
14382SOL    HW148983  10.509  11.948   1.254 -1.2292  0.3333 -1.1216
14382SOL    HW248984  10.599  11.919   1.136  1.1499  0.4409  0.5974
14383SOL     OW48985   5.043   2.545   2.986 -0.0665  0.4670  0.3564
14383SOL    HW148986   5.087   2.626   2.957 -1.0935  1.3676  1.2282
14383SOL    HW248987   4.971   2.575   3.041 -0.3682 -1.0681  0.8521
14384SOL     OW48988   9.164   4.505   8.753 -0.1025  0.2727 -0.4100
14384SOL    HW148989   9.222   4.551   8.692  0.4246  0.6361  0.3453
14384SOL    HW248990   9.207   4.422   8.771  0.3506  0.6586  0.3692
14385SOL     OW48991   1.722  10.929   1.421  0.1028  0.1312  0.0334
14385SOL    HW148992   1.800  10.984   1.414  1.0004 -1.2345 -1.3267
14385SOL    HW248993   1.650  10.991   1.431  1.3112  1.4426  1.1289
14386SOL     OW48994   6.205  10.133   8.000 -0.2865 -0.2262  0.1595
14386SOL    HW148995   6.293  10.100   7.982  0.2816  0.7863  0.9713
14386SOL    HW248996   6.155  10.111   7.922  1.5848  2.3391 -1.9149
14387SOL     OW48997   2.718   9.035   6.077  0.4044 -0.2969  0.1777
14387SOL    HW148998   2.743   9.128   6.077  0.1232 -0.2171 -0.4642
14387SOL    HW248999   2.802   8.989   6.082  0.4823 -0.0399  3.3057
14388SOL     OW49000   1.269   4.747   0.965 -0.6700 -0.4846  0.7770
14388SOL    HW149001   1.280   4.816   1.030  0.6176 -1.3592  1.5455
14388SOL    HW249002   1.331   4.769   0.896  1.4068 -1.9600  2.0499
14389SOL     OW49003   8.874  10.735   6.621 -0.1285  0.1320 -0.6553
14389SOL    HW149004   8.840  10.668   6.681  0.3374  0.9802  0.5892
14389SOL    HW249005   8.905  10.805   6.678  0.8751  0.7213 -1.8720
14390SOL     OW49006   8.424   8.065   6.796  0.2155  0.0293  0.6545
14390SOL    HW149007   8.494   8.014   6.837 -0.7409 -1.6642  0.2848
14390SOL    HW249008   8.451   8.156   6.808  1.8791 -0.5281  1.5677
14391SOL     OW49009  12.276   9.677   7.532 -0.4671 -0.3035  0.0592
14391SOL    HW149010  12.297   9.600   7.585  1.0822 -0.0519 -0.1337
14391SOL    HW249011  12.350   9.685   7.471 -1.2545  0.5658 -0.8165
14392SOL     OW49012   4.201  10.747   7.714 -0.0606 -0.4104 -0.3125
14392SOL    HW149013   4.229  10.681   7.777  0.3916 -0.1370 -0.2232
14392SOL    HW249014   4.280  10.768   7.664  0.0677  0.8289  0.3590
14393SOL     OW49015   8.577   8.234   7.066  0.0539 -0.2611 -0.5139
14393SOL    HW149016   8.641   8.197   7.005  1.6146  0.2217  0.7441
14393SOL    HW249017   8.528   8.158   7.098  0.5425 -0.7476 -0.8973
14394SOL     OW49018   7.018   0.236   5.826 -0.0306 -0.0047 -0.2208
14394SOL    HW149019   6.973   0.171   5.879  2.0379 -0.2703  1.3603
14394SOL    HW249020   7.059   0.187   5.755 -0.9849  0.0441 -0.8239
14395SOL     OW49021  11.601   4.985   1.519  0.7774  0.7099  0.1441
14395SOL    HW149022  11.630   5.023   1.602  2.7601 -0.0361 -0.1713
14395SOL    HW249023  11.627   4.893   1.524 -0.7846  0.1810 -0.5603
14396SOL     OW49024   3.423  12.036  11.926  0.5572 -0.4209 -0.7770
14396SOL    HW149025   3.404  12.126  11.952 -0.1976 -0.9543  0.6160
14396SOL    HW249026   3.391  12.029  11.836 -0.0906  0.4863 -0.6240
14397SOL     OW49027  10.807   2.511   6.748  0.2174  0.2632 -0.0862
14397SOL    HW149028  10.828   2.418   6.757  0.8706  0.3583 -0.5976
14397SOL    HW249029  10.892   2.555   6.746 -0.0407  0.7366 -1.3189
14398SOL     OW49030   4.303   2.477  10.032  1.1817 -0.5816  0.0985
14398SOL    HW149031   4.391   2.514  10.024  1.9172 -2.4847 -1.0997
14398SOL    HW249032   4.270   2.474   9.942 -0.2398  0.3162  0.5522
14399SOL     OW49033   4.490   4.760   2.908  0.1832  0.1237  0.0873
14399SOL    HW149034   4.585   4.774   2.905  0.3717 -0.3911  2.2495
14399SOL    HW249035   4.452   4.847   2.896  0.9498  0.4327 -0.1446
14400SOL     OW49036  12.181   3.069   8.424  0.3337 -0.1829 -0.3577
14400SOL    HW149037  12.238   3.112   8.360  1.0994 -0.0463  0.4021
14400SOL    HW249038  12.146   3.141   8.476  0.2051 -0.3439 -0.2252
14401SOL     OW49039  10.389   1.814   4.701  0.6330 -0.0210  0.2488
14401SOL    HW149040  10.360   1.857   4.781  2.1363  1.9884 -0.1941
14401SOL    HW249041  10.484   1.805   4.711  0.5631 -1.9459 -0.3362
14402SOL     OW49042   0.558   2.885   2.138 -0.1561  0.0631  0.7162
14402SOL    HW149043   0.518   2.962   2.180 -0.5005  0.1666  0.2030
14402SOL    HW249044   0.638   2.870   2.188 -0.1109  0.7265  0.8541
14403SOL     OW49045   2.049   2.589   7.262  0.4283  0.6564  0.8724
14403SOL    HW149046   1.978   2.569   7.323  0.0685  0.8002  0.5049
14403SOL    HW249047   2.087   2.504   7.241 -0.6315  0.3974 -0.1246
14404SOL     OW49048   0.884   2.677   3.596  0.1323  0.0533  0.0730
14404SOL    HW149049   0.794   2.695   3.623 -0.5579 -0.5719 -1.6860
14404SOL    HW249050   0.886   2.697   3.502  1.7624 -0.1703  0.0316
14405SOL     OW49051   0.650   1.323   3.644 -0.1876 -0.3978  0.2184
14405SOL    HW149052   0.634   1.414   3.670 -0.0959  0.2146 -1.6930
14405SOL    HW249053   0.600   1.271   3.707 -1.8723  1.0706  0.1789
14406SOL     OW49054   7.641   3.218   3.364 -0.1651 -0.5970  0.3476
14406SOL    HW149055   7.643   3.166   3.444  0.3876 -0.1958  0.6084
14406SOL    HW249056   7.681   3.162   3.297  1.5791 -0.0886  0.9050
14407SOL     OW49057   3.525  10.171  10.433 -0.1775  0.1870 -0.5138
14407SOL    HW149058   3.541  10.140  10.344 -2.5147  0.5944 -1.1270
14407SOL    HW249059   3.494  10.093  10.480 -0.3551  0.3021 -0.4416
14408SOL     OW49060   1.769   3.473  10.037  0.6104  0.5168 -0.5125
14408SOL    HW149061   1.812   3.552  10.071 -2.4694  2.4967 -0.8219
14408SOL    HW249062   1.686   3.469  10.084  1.1261 -3.3441  0.3742
14409SOL     OW49063   9.065   5.474   9.761  0.1328  0.1385  0.0918
14409SOL    HW149064   9.109   5.394   9.732  0.5256  0.7707 -1.1593
14409SOL    HW249065   9.021   5.449   9.842  0.1123 -1.3850 -0.3458
14410SOL     OW49066   7.719   0.244  10.922 -0.3975  0.3583 -0.0737
14410SOL    HW149067   7.764   0.255  10.838 -1.1674 -3.3841 -1.1506
14410SOL    HW249068   7.627   0.231  10.899 -1.1413  2.1355  1.6490
14411SOL     OW49069   7.492  10.947   2.008 -0.2400  0.1598  0.5024
14411SOL    HW149070   7.580  10.985   2.006 -0.2445  0.1881 -2.1709
14411SOL    HW249071   7.506  10.853   2.002 -0.3816  0.1328  0.5886
14412SOL     OW49072   2.877   1.850   4.626  0.3701  0.0418  0.1390
14412SOL    HW149073   2.958   1.823   4.583 -0.7375 -0.9769 -1.3947
14412SOL    HW249074   2.830   1.768   4.641 -0.1912  0.5797  1.4483
14413SOL     OW49075  11.928   3.368   1.148 -0.3811  0.3570 -0.1725
14413SOL    HW149076  11.993   3.300   1.132 -0.8880 -0.1239 -0.1946
14413SOL    HW249077  11.976   3.450   1.136  0.6719  0.0475  1.5078
14414SOL     OW49078   2.220   7.437   4.407  0.2643  0.3256 -0.2550
14414SOL    HW149079   2.192   7.386   4.330  0.6627 -0.1215 -0.1059
14414SOL    HW249080   2.143   7.489   4.429  0.4751  1.2473 -1.5899
14415SOL     OW49081  10.296   1.537   8.036  0.3163  0.3543  0.3677
14415SOL    HW149082  10.263   1.480   7.966 -1.3516  0.1260  1.2936
14415SOL    HW249083  10.293   1.483   8.115  1.0977  0.9677  0.8381
14416SOL     OW49084   7.521   2.730   6.213  0.3922 -0.3312  0.1420
14416SOL    HW149085   7.547   2.649   6.168  0.1447  0.9772 -2.5235
14416SOL    HW249086   7.428   2.717   6.233  0.3502 -0.7184 -0.2817
14417SOL     OW49087   7.774   4.275   0.249  0.0616 -0.2101  0.3204
14417SOL    HW149088   7.784   4.314   0.162  1.2086 -1.6218 -0.2196
14417SOL    HW249089   7.726   4.194   0.234 -0.6035  0.0101  1.1659
14418SOL     OW49090  10.176   0.913   1.015  0.1633  0.2743 -0.1124
14418SOL    HW149091  10.114   0.986   1.014  0.6909  0.7363  0.0654
14418SOL    HW249092  10.162   0.871   1.100 -0.3150  0.0082 -0.3173
14419SOL     OW49093   0.552   9.614  10.266 -0.6329  0.2763  0.3992
14419SOL    HW149094   0.573   9.650  10.352  0.5533  0.0419  0.2341
14419SOL    HW249095   0.636   9.582  10.233 -1.3291 -0.9583 -0.2317
14420SOL     OW49096   4.303   8.802  10.913 -0.1007 -0.3905  0.4537
14420SOL    HW149097   4.269   8.742  10.846  1.4253 -1.6419  0.7518
14420SOL    HW249098   4.361   8.861  10.865  0.2651 -0.6920  0.5218
14421SOL     OW49099  12.306   4.616   9.014 -0.2365 -0.3434 -0.4516
14421SOL    HW149100  12.383   4.565   9.039 -1.3390 -1.3222  1.1401
14421SOL    HW249101  12.298   4.603   8.920  1.7074  0.0624 -0.7338
14422SOL     OW49102   8.112   9.202   5.395 -0.0187  0.2341 -0.2726
14422SOL    HW149103   8.057   9.280   5.409  0.9939  1.0886 -0.9183
14422SOL    HW249104   8.154   9.217   5.310  0.2525 -0.9921 -0.3734
14423SOL     OW49105   4.165   2.986   8.839 -0.0653 -0.4162 -0.3057
14423SOL    HW149106   4.134   3.038   8.913 -0.2963 -1.0149  0.0293
14423SOL    HW249107   4.102   2.914   8.833  0.7618 -1.1580 -0.1841
14424SOL     OW49108   1.567   0.868   1.210  0.4936 -0.1395 -0.0588
14424SOL    HW149109   1.495   0.832   1.158 -0.2714  1.5663 -0.2234
14424SOL    HW249110   1.647   0.840   1.164 -0.0414 -1.7648 -0.0555
14425SOL     OW49111   4.758   1.476  11.730  0.0268 -0.7925 -0.1801
14425SOL    HW149112   4.667   1.504  11.717 -0.7162 -2.5209  0.8509
14425SOL    HW249113   4.810   1.555  11.720 -1.4544  0.0038 -2.1124
14426SOL     OW49114   7.120  10.656   4.040  0.6424  0.2815 -0.0201
14426SOL    HW149115   7.199  10.602   4.045  0.0358 -0.5816  0.4573
14426SOL    HW249116   7.137  10.716   3.967  0.7195 -1.5697 -1.6154
14427SOL     OW49117   1.988   5.949   0.904  0.5288 -0.4235 -0.2474
14427SOL    HW149118   2.081   5.929   0.889  0.3041 -1.1200 -0.7935
14427SOL    HW249119   1.943   5.908   0.831 -0.1228  0.8669 -0.5916
14428SOL     OW49120   8.415   2.280   2.976  0.6464 -0.0784  0.0509
14428SOL    HW149121   8.356   2.264   2.902 -0.2733 -0.8070  0.9147
14428SOL    HW249122   8.360   2.266   3.054  1.5100  0.9909  0.8784
14429SOL     OW49123   3.188   5.869   8.589  0.5164 -0.3675  0.6226
14429SOL    HW149124   3.259   5.857   8.526  0.6032  0.5861  0.5226
14429SOL    HW249125   3.229   5.860   8.674  0.8442  0.5677  0.5710
14430SOL     OW49126   8.665   1.332  11.741  0.1923 -0.4330  0.4148
14430SOL    HW149127   8.590   1.357  11.795  0.3798  2.7626 -0.5827
14430SOL    HW249128   8.643   1.365  11.654  1.3768 -2.4066 -0.7035
14431SOL     OW49129   3.400   7.291   7.174 -0.0952 -0.4906  0.3396
14431SOL    HW149130   3.391   7.342   7.094 -0.7414 -2.0583 -0.6264
14431SOL    HW249131   3.487   7.250   7.166  0.3617  0.3200  1.0416
14432SOL     OW49132   0.848  10.154   6.220 -0.0737  0.4001  0.1175
14432SOL    HW149133   0.858  10.105   6.302 -0.8954 -0.1047 -0.0796
14432SOL    HW249134   0.760  10.190   6.223  0.1760  1.0571 -0.1888
14433SOL     OW49135   2.731   0.731   2.011  0.8063  0.6262 -0.1895
14433SOL    HW149136   2.669   0.693   1.949 -0.1567 -0.8036  1.5663
14433SOL    HW249137   2.778   0.798   1.960 -0.8250  0.4193 -2.0793
14434SOL     OW49138  10.630   7.522   7.411 -0.0328 -0.7548  0.3279
14434SOL    HW149139  10.696   7.452   7.409  0.8600  0.0566  0.3523
14434SOL    HW249140  10.625   7.547   7.503  0.3670 -0.1419  0.1868
14435SOL     OW49141   8.660   6.848   4.320  0.7831  0.4272 -0.0931
14435SOL    HW149142   8.683   6.817   4.407 -0.1673  0.7423  0.2816
14435SOL    HW249143   8.672   6.772   4.263 -1.4426 -0.6913  0.7972
14436SOL     OW49144   6.227   9.752  11.116 -0.5976 -0.5438 -0.1731
14436SOL    HW149145   6.240   9.699  11.038  4.1941 -0.3146  0.1895
14436SOL    HW249146   6.269   9.703  11.186  1.7548  2.4053  0.6739
14437SOL     OW49147  12.022  11.316   9.747  0.3929 -0.5423  0.1069
14437SOL    HW149148  12.003  11.235   9.793  0.5168 -0.6264  0.0120
14437SOL    HW249149  11.991  11.385   9.805  2.2238 -0.5599  1.1705
14438SOL     OW49150   6.841  12.178   0.245 -0.1633  0.1960 -0.1594
14438SOL    HW149151   6.918  12.220   0.208 -0.5158  1.3285  0.3675
14438SOL    HW249152   6.808  12.239   0.311 -0.6276 -0.9527  0.7214
14439SOL     OW49153   9.515  10.510   1.918 -0.1128 -0.2087 -0.1028
14439SOL    HW149154   9.432  10.519   1.871 -0.6304  0.1432  0.8532
14439SOL    HW249155   9.535  10.598   1.949 -0.2601 -0.5772  1.1038
14440SOL     OW49156   1.659   2.049   7.250  0.7384  0.0544 -0.2025
14440SOL    HW149157   1.606   2.129   7.249 -1.7417 -1.4821  0.2092
14440SOL    HW249158   1.664   2.021   7.159 -0.9243 -0.8347 -0.0536
14441SOL     OW49159   3.332   7.224   2.918 -0.5308 -0.0852  0.2209
14441SOL    HW149160   3.316   7.132   2.894  0.2239 -0.8380  2.3190
14441SOL    HW249161   3.305   7.229   3.010  0.0459  1.6409  0.3163
14442SOL     OW49162  11.316  10.611   9.179  0.0608 -0.1387 -0.0932
14442SOL    HW149163  11.401  10.577   9.207 -0.1923 -1.3707 -0.7364
14442SOL    HW249164  11.286  10.665   9.252  1.7802  1.0489 -0.2288
14443SOL     OW49165   2.812   2.462  12.095 -0.6238  0.5031  0.4594
14443SOL    HW149166   2.741   2.405  12.066  0.5641 -1.0523  0.4593
14443SOL    HW249167   2.803   2.466  12.190 -1.2163  1.0201  0.3822
14444SOL     OW49168   4.955  11.102   2.712 -0.7338 -0.5116  0.1111
14444SOL    HW149169   5.024  11.075   2.772 -0.3983 -0.0329 -0.0573
14444SOL    HW249170   4.883  11.040   2.728 -0.4658 -0.6808  0.6576
14445SOL     OW49171   6.194  11.976   2.782  0.2647  0.2049  0.0722
14445SOL    HW149172   6.272  12.003   2.734  0.1371 -1.0628 -0.8982
14445SOL    HW249173   6.122  11.986   2.720 -0.0401 -0.5376  0.2902
14446SOL     OW49174   7.242   7.971   8.836 -0.1499 -0.5075  0.0346
14446SOL    HW149175   7.298   8.038   8.876 -0.1416 -0.3983 -0.1609
14446SOL    HW249176   7.161   7.973   8.887 -1.5238  2.0058 -2.0167
14447SOL     OW49177   7.843   6.290   0.976  0.3144  0.2643 -0.9875
14447SOL    HW149178   7.836   6.233   0.899  0.5872  0.1351 -0.9132
14447SOL    HW249179   7.772   6.261   1.034  2.2577 -1.9898  0.3931
14448SOL     OW49180   7.026   8.239   3.976  0.3404  0.1557  0.0272
14448SOL    HW149181   6.938   8.220   3.943  0.8628 -2.1139 -0.1994
14448SOL    HW249182   7.028   8.198   4.063  0.9146  0.9396  0.3919
14449SOL     OW49183   8.955   3.547   5.040  0.4554  0.1975  0.6141
14449SOL    HW149184   9.049   3.545   5.053  0.6473 -0.1840 -0.6493
14449SOL    HW249185   8.931   3.639   5.044  0.7818  0.2491  1.5155
14450SOL     OW49186   5.042  10.172   9.891  0.2270  0.0860 -0.9492
14450SOL    HW149187   5.042  10.253   9.839  0.4017  0.6474 -0.0836
14450SOL    HW249188   5.108  10.187   9.958 -1.1809  0.0694  0.5062
14451SOL     OW49189   5.990   8.516   8.913  0.5085  0.0277  0.0483
14451SOL    HW149190   5.953   8.429   8.897  1.7849 -0.4891 -0.1958
14451SOL    HW249191   5.942   8.574   8.854  1.2110 -0.9048 -1.5082
14452SOL     OW49192   7.069   1.478   3.140 -0.7759 -0.3006  0.3742
14452SOL    HW149193   7.028   1.423   3.207 -1.3249  2.0382  2.1193
14452SOL    HW249194   7.163   1.468   3.155 -0.8631  1.6409  2.9570
14453SOL     OW49195   5.880   4.233   6.249  0.0629 -0.2711 -0.1313
14453SOL    HW149196   5.898   4.234   6.343 -0.3995  0.5292 -0.0422
14453SOL    HW249197   5.952   4.282   6.210  0.3787 -0.7980 -0.2307
14454SOL     OW49198   5.333   3.735   3.329 -0.1794  0.2045 -0.8605
14454SOL    HW149199   5.392   3.805   3.302  0.0127 -0.1281 -1.3363
14454SOL    HW249200   5.275   3.775   3.393  1.4325  0.2135  0.6843
14455SOL     OW49201   8.095  11.935   4.174 -0.2131  0.0738  0.2808
14455SOL    HW149202   8.116  11.846   4.203 -0.0962 -0.1688 -0.5164
14455SOL    HW249203   8.102  11.988   4.253 -0.4854 -0.6585  0.8105
14456SOL     OW49204   8.013   5.318   2.836 -0.0514 -0.2393 -0.5866
14456SOL    HW149205   8.051   5.256   2.773 -0.2100  0.0489 -0.9648
14456SOL    HW249206   7.961   5.378   2.783  0.3338  0.3986 -0.2594
14457SOL     OW49207   1.954   6.324   5.728 -0.0364 -0.4812 -0.2430
14457SOL    HW149208   1.881   6.281   5.683 -0.1309  0.3510 -0.8932
14457SOL    HW249209   2.023   6.330   5.662  0.3552 -0.5609  0.1486
14458SOL     OW49210   1.265   7.863  11.467  0.1950  0.3568  0.0539
14458SOL    HW149211   1.249   7.957  11.456  1.6894  0.7950  1.3587
14458SOL    HW249212   1.183   7.822  11.439  0.2532  1.8811 -2.6709
14459SOL     OW49213   9.932  11.671   8.672  0.2099  0.3711  0.1810
14459SOL    HW149214   9.933  11.586   8.717 -0.6766  0.4495  0.3704
14459SOL    HW249215   9.903  11.733   8.739 -0.0651  0.6709 -0.2167
14460SOL     OW49216   1.008  10.585   5.000 -0.3738  0.6628 -0.3288
14460SOL    HW149217   0.958  10.505   5.017  0.9302 -0.0757  0.2430
14460SOL    HW249218   1.040  10.613   5.086  0.3324  0.9951 -0.6843
14461SOL     OW49219   8.748   2.651  10.736 -0.0577  0.0788 -0.7396
14461SOL    HW149220   8.789   2.737  10.748 -1.2884  0.3432  2.6419
14461SOL    HW249221   8.654   2.669  10.730 -0.5911 -0.9991  2.3238
14462SOL     OW49222   9.236   1.715  11.971 -0.2185 -0.0101 -0.4001
14462SOL    HW149223   9.159   1.659  11.973 -0.9158  0.9218 -0.5149
14462SOL    HW249224   9.279   1.694  11.888 -0.3439 -0.5295 -0.3388
14463SOL     OW49225   8.967   7.972   5.714  0.3457  0.0766 -0.2181
14463SOL    HW149226   8.918   7.919   5.652 -0.7781  0.4681  0.3116
14463SOL    HW249227   8.916   7.968   5.795 -0.5345  3.0185 -0.4989
14464SOL     OW49228   4.422   4.944  11.590  0.1908  0.0141 -0.0565
14464SOL    HW149229   4.494   5.000  11.618  1.3088 -1.7781  0.8355
14464SOL    HW249230   4.394   4.980  11.506 -0.3634  2.9686  1.2557
14465SOL     OW49231   9.602  11.009  10.848  0.3303  0.3479  0.2871
14465SOL    HW149232   9.523  11.033  10.800  1.1369  1.1912 -0.6767
14465SOL    HW249233   9.629  11.091  10.891  1.9639  0.7183 -1.3276
14466SOL     OW49234   6.789   6.134   7.539  0.2974 -0.1284  0.0491
14466SOL    HW149235   6.733   6.187   7.483  1.5180 -1.3318 -2.5238
14466SOL    HW249236   6.756   6.045   7.529  0.4085 -0.3499  1.4742
14467SOL     OW49237   6.405   1.771   7.381 -0.7731 -0.0634  0.2144
14467SOL    HW149238   6.414   1.856   7.424  0.6345 -0.6578  1.1350
14467SOL    HW249239   6.462   1.777   7.304 -1.8759  0.3448 -0.6054
14468SOL     OW49240   9.577  11.116  10.289  0.1558  0.4742  0.3555
14468SOL    HW149241   9.565  11.204  10.323 -0.7158  0.5392 -0.0993
14468SOL    HW249242   9.604  11.128  10.198 -2.0871  0.2898 -0.3915
14469SOL     OW49243   2.655   8.386   5.287  0.1862 -0.4818  0.4606
14469SOL    HW149244   2.595   8.352   5.354  0.3506  1.2578  1.5849
14469SOL    HW249245   2.602   8.448   5.237  0.7391  0.2791  0.7862
14470SOL     OW49246  10.289  10.534  10.753 -0.3145  0.1298  0.3337
14470SOL    HW149247  10.363  10.480  10.725 -0.6418  0.0393 -0.3805
14470SOL    HW249248  10.298  10.540  10.848  2.5692  2.9579  0.0622
14471SOL     OW49249   3.047  12.213  11.986  0.4082 -0.5491  0.3294
14471SOL    HW149250   3.012  12.146  12.045 -0.1825 -0.0850  0.5183
14471SOL    HW249251   3.115  12.256  12.038  2.9782 -2.9189 -0.7795
14472SOL     OW49252  12.234   3.037   1.490  0.3507  0.3453  0.0582
14472SOL    HW149253  12.233   3.048   1.394 -0.0012  0.4042  0.0662
14472SOL    HW249254  12.150   2.995   1.510  0.0107  1.1828  0.4349
14473SOL     OW49255   9.591   3.528  10.858 -0.2025 -0.2180  0.5509
14473SOL    HW149256   9.609   3.575  10.940 -1.7560  1.0358  0.2389
14473SOL    HW249257   9.502   3.556  10.835 -0.8377 -2.6182 -0.1741
14474SOL     OW49258  10.967   8.018   2.144  0.3303  0.1007 -0.2527
14474SOL    HW149259  10.991   8.045   2.233  0.1600 -0.6605  0.0312
14474SOL    HW249260  11.002   7.930   2.136 -0.7527 -0.3219 -0.4934
14475SOL     OW49261  10.205  11.023   1.387 -0.7525 -0.0152  0.2592
14475SOL    HW149262  10.298  11.000   1.383 -0.9371 -0.6163 -0.9927
14475SOL    HW249263  10.201  11.115   1.362 -0.7343 -0.7338 -2.7368
14476SOL     OW49264   2.294  11.216   8.135 -0.2986 -0.6247  0.0870
14476SOL    HW149265   2.319  11.306   8.114 -0.3552 -0.0797  2.1673
14476SOL    HW249266   2.376  11.172   8.155 -0.4160 -0.5610  0.7284
14477SOL     OW49267   9.944   0.097   8.770  0.2651  0.3985 -0.2237
14477SOL    HW149268  10.026   0.086   8.817  0.3325  0.3913 -0.3434
14477SOL    HW249269   9.967   0.146   8.692  0.1761  0.2891 -0.3188
14478SOL     OW49270   7.100  11.427   1.831  0.0449 -0.3711 -0.7645
14478SOL    HW149271   7.092  11.521   1.846  1.4825 -0.1374 -1.2618
14478SOL    HW249272   7.039  11.409   1.759 -0.4033  0.1431 -0.5116
14479SOL     OW49273  10.162   3.271   2.356 -0.6300  0.0472  0.2851
14479SOL    HW149274  10.117   3.340   2.307  2.0597  0.8359 -1.2805
14479SOL    HW249275  10.184   3.312   2.439 -1.5661  0.0922  0.5245
14480SOL     OW49276   0.910   9.051   2.126  0.0130  0.2187 -0.2371
14480SOL    HW149277   0.968   9.115   2.086  1.9938 -0.9600  0.5768
14480SOL    HW249278   0.969   8.986   2.165 -1.8707 -1.5459 -0.1187
14481SOL     OW49279  11.215   1.486   1.085  0.2289  0.0035 -0.5027
14481SOL    HW149280  11.200   1.580   1.073  1.1807  0.3549  0.8038
14481SOL    HW249281  11.198   1.471   1.178 -1.3333 -1.4273 -0.9634
14482SOL     OW49282   1.478   9.669   1.301  0.0694 -0.6509  0.1342
14482SOL    HW149283   1.439   9.590   1.338  1.0757 -1.2245 -0.0174
14482SOL    HW249284   1.543   9.637   1.239 -0.9887  0.2915 -1.5363
14483SOL     OW49285   4.143   3.047   2.569  0.2056 -0.1539 -0.0039
14483SOL    HW149286   4.054   3.082   2.564 -0.8346 -1.9302  3.1060
14483SOL    HW249287   4.200   3.124   2.562 -1.5256  1.0568 -1.8167
14484SOL     OW49288   6.439  10.237   7.761 -0.1931  0.2471  0.6007
14484SOL    HW149289   6.475  10.226   7.849 -1.0762  0.2448  0.9688
14484SOL    HW249290   6.482  10.168   7.709 -1.1142 -1.0427  1.4832
14485SOL     OW49291   2.740   3.742   4.704  0.1483  0.4208  0.2659
14485SOL    HW149292   2.727   3.658   4.659 -0.6294  0.2044  0.8568
14485SOL    HW249293   2.792   3.720   4.781  1.0551  0.7081 -0.2514
14486SOL     OW49294   7.389  10.823   7.779  0.3766  0.2787  0.7031
14486SOL    HW149295   7.324  10.806   7.848  0.3342 -0.7835  0.4095
14486SOL    HW249296   7.454  10.755   7.790  1.8735  1.7489  1.4483
14487SOL     OW49297   0.552   9.090   3.787  0.3066 -0.1507  0.1910
14487SOL    HW149298   0.541   9.184   3.803 -1.2528 -0.1405 -0.7589
14487SOL    HW249299   0.602   9.085   3.705  1.6953 -0.1795  1.0139
14488SOL     OW49300   8.545   9.991   9.507  0.1594  0.2706  0.0032
14488SOL    HW149301   8.575   9.919   9.564  0.2972  0.1879 -0.1730
14488SOL    HW249302   8.626  10.035   9.480 -0.0133  1.8747  1.8815
14489SOL     OW49303  11.137   1.374   3.397 -0.0909 -0.1145  0.3926
14489SOL    HW149304  11.067   1.340   3.453  0.6797 -0.9148  0.8948
14489SOL    HW249305  11.186   1.433   3.454  0.1719 -0.2516  0.3101
14490SOL     OW49306  10.799   3.838   0.227 -1.0329 -0.0497 -0.1347
14490SOL    HW149307  10.705   3.823   0.219 -0.7532 -1.6831 -0.5877
14490SOL    HW249308  10.828   3.855   0.137 -0.7713 -0.3255 -0.1030
14491SOL     OW49309   2.446   0.665   5.668  0.1319  0.4738  0.0311
14491SOL    HW149310   2.510   0.670   5.597 -0.5297 -0.3000 -0.6252
14491SOL    HW249311   2.365   0.700   5.631 -0.0228  0.7952  0.6522
14492SOL     OW49312   8.982   1.490   5.316 -0.5159  0.4639 -0.2023
14492SOL    HW149313   9.023   1.443   5.389  0.1706 -1.3586 -1.6877
14492SOL    HW249314   9.049   1.553   5.287  0.5477 -1.1003 -1.3167
14493SOL     OW49315   5.565   8.207   7.680  0.4466  0.3246  0.3494
14493SOL    HW149316   5.607   8.292   7.669 -0.1038  0.7233  1.2485
14493SOL    HW249317   5.597   8.174   7.764 -1.6479  1.0476  1.5223
14494SOL     OW49318  11.219   7.959  10.410  0.5398  0.2226  0.3748
14494SOL    HW149319  11.207   7.955  10.505  1.9557  1.2545  0.6324
14494SOL    HW249320  11.313   7.972  10.398  0.6933 -1.9294 -1.2698
14495SOL     OW49321   4.721   1.416   7.430 -0.0946  0.0824 -0.6006
14495SOL    HW149322   4.805   1.394   7.390  0.0368  1.3420 -1.0658
14495SOL    HW249323   4.717   1.362   7.509  1.6913  0.8186  0.0456
14496SOL     OW49324   8.521  11.134  11.566 -0.3010  0.6823  0.2671
14496SOL    HW149325   8.552  11.049  11.534 -2.2010  0.6687 -1.7494
14496SOL    HW249326   8.495  11.117  11.657  2.8411  0.0792  1.1816
14497SOL     OW49327   6.664   6.670   0.064 -0.1521 -0.3609 -0.2107
14497SOL    HW149328   6.626   6.628   0.141 -0.1135  1.1473  0.6741
14497SOL    HW249329   6.666   6.764   0.086  2.1442 -0.1405 -1.0555
14498SOL     OW49330   4.715   5.613  12.090  0.1471 -0.2953  0.1043
14498SOL    HW149331   4.660   5.575  12.159  1.0842 -0.2610  0.8939
14498SOL    HW249332   4.655   5.663  12.036 -0.6714 -0.6400  0.6751
14499SOL     OW49333   9.648   2.353   7.683  0.3165  0.3865  0.4859
14499SOL    HW149334   9.699   2.433   7.670  1.3853 -0.7216 -3.4846
14499SOL    HW249335   9.645   2.313   7.596 -0.8469 -3.5069  2.1432
14500SOL     OW49336   1.343   8.207   9.727 -0.1920  0.7434 -0.0777
14500SOL    HW149337   1.268   8.157   9.693 -0.2900  0.1459  0.9917
14500SOL    HW249338   1.306   8.293   9.746 -0.0172  1.2886 -1.9548
14501SOL     OW49339   8.957   5.744   6.133  1.0238  0.0486 -0.1014
14501SOL    HW149340   8.985   5.735   6.042  1.9439 -0.3248  0.2065
14501SOL    HW249341   9.037   5.731   6.184  0.4355 -0.2232  0.7759
14502SOL     OW49342   4.616   9.397   7.200 -0.5381 -0.1844 -0.2143
14502SOL    HW149343   4.705   9.432   7.194 -0.2061 -0.7598  0.9678
14502SOL    HW249344   4.588   9.418   7.289 -0.3922 -2.6772  0.4993
14503SOL     OW49345   3.283   1.958   5.995  0.0466  0.2571 -0.3700
14503SOL    HW149346   3.297   2.052   6.001  0.9582  0.0780  0.5645
14503SOL    HW249347   3.332   1.921   6.069 -2.0634 -0.7768  0.6004
14504SOL     OW49348   9.450   7.161   5.305 -0.4099 -0.5363  0.0227
14504SOL    HW149349   9.374   7.202   5.346 -1.4012 -1.1886 -1.0862
14504SOL    HW249350   9.468   7.085   5.360  0.7018  0.6702  1.4092
14505SOL     OW49351   0.007   2.503  10.283  0.2959 -0.4608  0.3623
14505SOL    HW149352   0.055   2.486  10.202 -0.5354  1.2811 -0.5716
14505SOL    HW249353  -0.024   2.593  10.273 -1.3301 -0.8011  1.8585
14506SOL     OW49354   8.983   7.899   6.268  1.0115  0.2430  0.1202
14506SOL    HW149355   8.934   7.820   6.291  0.9444  0.4144  0.5930
14506SOL    HW249356   9.061   7.895   6.323  2.5179 -0.9903 -1.9701
14507SOL     OW49357  12.330   1.457   1.898 -0.1750 -0.0849 -0.9275
14507SOL    HW149358  12.282   1.535   1.870 -0.3189  0.0419 -0.3275
14507SOL    HW249359  12.279   1.421   1.970 -1.2093 -1.8669 -2.4276
14508SOL     OW49360   3.945   6.923   1.310 -0.6818  0.1134  0.1006
14508SOL    HW149361   3.965   6.928   1.403 -1.5450  0.6445  0.2629
14508SOL    HW249362   3.914   7.010   1.287 -2.5454 -0.5884 -0.1899
14509SOL     OW49363   2.417   5.693   8.226  0.1863 -0.0549  0.9220
14509SOL    HW149364   2.388   5.732   8.309  1.8244  1.5049  0.8349
14509SOL    HW249365   2.505   5.661   8.244  1.0169  1.3288 -0.4742
14510SOL     OW49366   2.198   6.512   4.492 -0.3789 -0.3073 -0.4283
14510SOL    HW149367   2.127   6.469   4.444  0.6727 -2.9071  0.1600
14510SOL    HW249368   2.155   6.556   4.565 -1.4443 -1.2750 -0.4526
14511SOL     OW49369   9.552   6.739  12.267  0.5687  0.1913  0.2815
14511SOL    HW149370   9.512   6.652  12.255  0.0422  0.4588  0.0615
14511SOL    HW249371   9.638   6.732  12.226  1.7069 -1.0748  2.6867
14512SOL     OW49372   6.864   3.267   3.702  0.3878 -0.8658  0.0914
14512SOL    HW149373   6.794   3.202   3.699 -0.3490 -0.0850 -0.1050
14512SOL    HW249374   6.940   3.224   3.663 -0.1718 -1.5076 -0.2906
14513SOL     OW49375   9.214   9.483  12.258  0.2012  0.6083  0.1519
14513SOL    HW149376   9.188   9.499  12.167  0.6611 -0.5206 -0.1946
14513SOL    HW249377   9.218   9.388  12.266 -0.6155  0.6627  1.5976
14514SOL     OW49378   1.988   0.769   4.553 -0.2217 -0.6740  0.3706
14514SOL    HW149379   1.900   0.768   4.592  0.6811  0.0083  2.6059
14514SOL    HW249380   2.019   0.679   4.563 -0.2049 -0.6290  0.7421
14515SOL     OW49381   8.917  11.369  11.856 -0.0495  0.6110  0.3134
14515SOL    HW149382   8.840  11.334  11.901  0.7065  0.8209  1.8271
14515SOL    HW249383   8.937  11.451  11.902  2.4201 -0.5613  1.5097
14516SOL     OW49384   4.743   3.592   3.438 -0.5211  0.6885 -0.7571
14516SOL    HW149385   4.814   3.554   3.490  2.1994  1.5187 -3.5745
14516SOL    HW249386   4.719   3.523   3.377 -0.3998  1.2065 -1.4007
14517SOL     OW49387   3.826   3.865   8.276 -0.3085  0.0588  0.7273
14517SOL    HW149388   3.759   3.806   8.310  0.3271 -1.2349 -0.1592
14517SOL    HW249389   3.900   3.854   8.335 -0.2607  0.1242  0.6797
14518SOL     OW49390  11.302  12.019   0.410  0.2849 -0.1387 -0.0720
14518SOL    HW149391  11.222  12.059   0.444  0.6351 -1.1025  2.1126
14518SOL    HW249392  11.297  11.927   0.439  1.8139 -0.3925 -0.5287
14519SOL     OW49393   0.640  10.052   1.863 -0.0723 -0.2176 -0.8480
14519SOL    HW149394   0.549  10.055   1.892 -0.0140  0.1820 -0.7017
14519SOL    HW249395   0.685  10.003   1.932 -0.3395 -1.2338 -1.3773
14520SOL     OW49396   4.301   9.337   8.966  0.0407  0.3459  0.3402
14520SOL    HW149397   4.206   9.329   8.956 -0.2458 -2.5098  3.5150
14520SOL    HW249398   4.312   9.399   9.038  0.5870  0.7038 -0.0503
14521SOL     OW49399  11.996  11.384   2.996 -0.4729 -0.3698  0.1193
14521SOL    HW149400  11.966  11.460   3.046  0.4254  0.8829 -1.1645
14521SOL    HW249401  12.085  11.368   3.026  0.0847  0.4102 -1.0564
14522SOL     OW49402   5.197   7.211   5.338 -0.3124 -0.1765  0.5119
14522SOL    HW149403   5.131   7.218   5.269 -1.0874 -0.0511  1.2579
14522SOL    HW249404   5.206   7.117   5.354  3.1225 -0.6519 -2.8120
14523SOL     OW49405   5.040   4.504  11.733 -0.1546  0.1073  0.3681
14523SOL    HW149406   4.988   4.508  11.653  0.7513  0.2185 -0.2326
14523SOL    HW249407   5.115   4.449  11.710  0.4796  0.7129  0.9189
14524SOL     OW49408   1.112  10.177   0.528  0.1334  0.0132  0.1535
14524SOL    HW149409   1.113  10.134   0.442 -2.3073 -0.4746  0.2964
14524SOL    HW249410   1.130  10.269   0.509  0.5981 -0.2505 -0.7411
14525SOL     OW49411   9.397  10.450   1.531 -0.4101  0.2577  0.4492
14525SOL    HW149412   9.348  10.470   1.451 -1.8218  0.4722  1.3306
14525SOL    HW249413   9.390  10.355   1.540 -0.7355  0.2967  0.6133
14526SOL     OW49414   0.655   8.699  12.253  0.1312 -0.3939  0.1956
14526SOL    HW149415   0.561   8.717  12.252 -0.0215 -1.0126  1.2430
14526SOL    HW249416   0.675   8.671  12.164 -1.3725 -3.3658  0.6545
14527SOL     OW49417  11.408   1.195   2.784 -0.4986  0.5697  0.1251
14527SOL    HW149418  11.393   1.185   2.878 -0.2629  1.7588  0.3109
14527SOL    HW249419  11.412   1.290   2.771 -0.5274  0.4166 -1.0880
14528SOL     OW49420   0.805   8.584   1.699 -0.2454 -0.4028 -0.5128
14528SOL    HW149421   0.889   8.628   1.683  0.3867 -1.9210 -1.7209
14528SOL    HW249422   0.777   8.616   1.784  0.6436  1.5406 -0.8932
14529SOL     OW49423  10.275   3.374   4.304  0.7087 -0.2758 -0.1913
14529SOL    HW149424  10.248   3.370   4.212  0.6549  0.2835 -0.2043
14529SOL    HW249425  10.231   3.300   4.345  1.7738 -1.3152 -0.8769
14530SOL     OW49426   1.002  10.185   1.249 -0.5797 -0.2588  0.4305
14530SOL    HW149427   1.075  10.146   1.298 -0.8841 -1.4949 -0.0663
14530SOL    HW249428   0.959  10.243   1.312  0.7543  0.4028  0.7596
14531SOL     OW49429   8.160   2.232   5.808 -0.0555 -0.4214 -0.7774
14531SOL    HW149430   8.182   2.239   5.901 -0.2342 -4.1241 -0.2941
14531SOL    HW249431   8.070   2.262   5.802  0.5843  1.8029 -0.2115
14532SOL     OW49432   2.689  11.772   7.022  0.1479  0.2360  0.1597
14532SOL    HW149433   2.622  11.826   6.981 -0.4086 -0.5914 -0.0294
14532SOL    HW249434   2.771  11.820   7.006 -0.0020 -0.1621 -2.1533
14533SOL     OW49435  10.155   6.022   6.094 -0.0351 -0.3147  0.0497
14533SOL    HW149436  10.141   6.063   6.008  1.4234 -0.8973 -0.4963
14533SOL    HW249437  10.235   6.062   6.126 -0.3129 -0.4585  0.9392
14534SOL     OW49438   4.105   0.687   9.271 -0.5733 -0.2100 -0.3201
14534SOL    HW149439   4.093   0.656   9.360 -0.4992 -1.5404 -0.7485
14534SOL    HW249440   4.145   0.613   9.225 -1.1101  0.2540 -1.5843
14535SOL     OW49441   6.118  12.013   3.258  0.6600 -0.0224  0.4529
14535SOL    HW149442   6.106  12.107   3.242 -0.9918 -0.5265 -1.7509
14535SOL    HW249443   6.050  11.990   3.321  0.6152  0.1132  0.4535
14536SOL     OW49444   4.692   8.147  10.959 -0.4551 -0.0697  0.6907
14536SOL    HW149445   4.739   8.175  11.038 -3.5583  0.2314  2.6020
14536SOL    HW249446   4.637   8.222  10.936  0.3308 -0.1707 -1.8329
14537SOL     OW49447   8.316   4.569   0.701 -0.0992 -0.7144  0.3660
14537SOL    HW149448   8.367   4.546   0.624 -0.2945  1.0061 -0.2998
14537SOL    HW249449   8.280   4.485   0.732 -0.8952 -1.3135 -2.0222
14538SOL     OW49450   3.613   9.383   8.904 -0.1942 -0.4019 -0.0143
14538SOL    HW149451   3.602   9.341   8.989  2.5163 -0.0002  0.6040
14538SOL    HW249452   3.620   9.476   8.925 -1.1090 -0.1149 -0.8855
14539SOL     OW49453   4.328   4.864  11.819 -0.0885 -0.5715 -0.1604
14539SOL    HW149454   4.354   4.858  11.727  0.7152 -1.6461  0.1222
14539SOL    HW249455   4.251   4.808  11.825 -0.4038 -0.1554 -0.2600
14540SOL     OW49456   1.497   4.377   5.950  0.3666 -0.1809 -0.6312
14540SOL    HW149457   1.420   4.400   5.898 -0.7104  0.1966  1.0618
14540SOL    HW249458   1.512   4.284   5.931 -1.1157 -0.5251 -0.2505
14541SOL     OW49459   9.495   8.713   2.941 -0.4455 -0.2905  0.6356
14541SOL    HW149460   9.485   8.805   2.914 -2.2234 -0.4865  0.5164
14541SOL    HW249461   9.546   8.673   2.871  0.2281  0.5768  0.6197
14542SOL     OW49462   1.301   8.366   4.275 -0.9345  0.0384  0.1034
14542SOL    HW149463   1.302   8.400   4.365 -1.5484  0.3454  0.0018
14542SOL    HW249464   1.210   8.338   4.262 -0.8734  0.1028 -0.4606
14543SOL     OW49465   5.192  11.235   8.781  0.0076 -0.1167 -0.2127
14543SOL    HW149466   5.238  11.290   8.716 -0.0187 -1.2895 -1.2720
14543SOL    HW249467   5.185  11.150   8.738  0.8144 -1.2091  1.7099
14544SOL     OW49468   9.553  10.333  10.271 -0.0944 -0.5696  0.6566
14544SOL    HW149469   9.471  10.284  10.264 -0.1158 -0.6092  1.1243
14544SOL    HW249470   9.527  10.420  10.299 -0.2840  0.5062 -2.4970
14545SOL     OW49471   1.944   7.757   0.646 -0.5140  0.3314  0.1444
14545SOL    HW149472   2.009   7.689   0.667 -0.3714  0.6006  0.5935
14545SOL    HW249473   1.969   7.831   0.701 -1.0219  0.5465  0.0860
14546SOL     OW49474   8.763   3.218   2.448  0.2863 -0.1480  0.0978
14546SOL    HW149475   8.707   3.196   2.374  0.2481 -0.4521  0.2112
14546SOL    HW249476   8.726   3.168   2.521  1.8037 -1.8641 -0.2405
14547SOL     OW49477   9.636   6.116   1.108 -0.5515 -0.0792  0.7105
14547SOL    HW149478   9.554   6.070   1.092 -0.5341 -0.4258  1.5567
14547SOL    HW249479   9.611   6.202   1.140 -0.6469 -0.9767  3.2636
14548SOL     OW49480  10.633   3.298   8.288 -0.0377  0.1744 -0.4366
14548SOL    HW149481  10.629   3.214   8.241  0.6486  0.8773 -1.8367
14548SOL    HW249482  10.726   3.321   8.287  0.0534  0.0457  1.6564
14549SOL     OW49483  10.726   5.844   0.261 -0.1997  0.3187  0.7814
14549SOL    HW149484  10.817   5.821   0.244 -0.7838 -0.2906 -1.8956
14549SOL    HW249485  10.730   5.902   0.337  2.3882  0.2401  0.7915
14550SOL     OW49486   6.229   5.287   5.003  0.2083 -0.2714  0.1103
14550SOL    HW149487   6.220   5.197   4.973  0.0766 -0.8024  1.6729
14550SOL    HW249488   6.191   5.287   5.091  0.6568  1.2023  0.3291
14551SOL     OW49489   1.575   1.652   8.787  0.6117 -0.2497  0.1485
14551SOL    HW149490   1.498   1.673   8.840  0.7482  1.8401 -0.3823
14551SOL    HW249491   1.582   1.557   8.791 -1.5914 -0.4349  0.7572
14552SOL     OW49492   0.338  11.248   8.772  0.9924  0.0344 -0.0403
14552SOL    HW149493   0.427  11.233   8.803  0.1372  0.4256  2.8966
14552SOL    HW249494   0.298  11.304   8.838 -1.7762 -1.0350 -0.6597
14553SOL     OW49495   7.945   4.487   5.765  0.2051  0.0855 -0.1960
14553SOL    HW149496   7.858   4.518   5.791 -0.5576 -1.8861 -0.2142
14553SOL    HW249497   7.968   4.541   5.689 -1.2430  0.3155 -0.5056
14554SOL     OW49498   9.109   1.604   6.889 -0.6326 -0.3949  0.2564
14554SOL    HW149499   9.052   1.677   6.865 -0.5315 -0.9682 -1.9533
14554SOL    HW249500   9.197   1.640   6.883 -0.6126 -0.5069 -0.1431
14555SOL     OW49501   8.084   0.161   8.917  0.0382 -0.2299  0.0055
14555SOL    HW149502   8.160   0.103   8.909 -0.0201 -0.1060 -1.9069
14555SOL    HW249503   8.113   0.231   8.976  0.0678 -2.1969  2.4848
14556SOL     OW49504   6.806  11.161   2.189 -0.3758  0.4862  0.0463
14556SOL    HW149505   6.733  11.163   2.127 -2.2784 -0.1491  2.1555
14556SOL    HW249506   6.834  11.070   2.190  0.8756  0.8274 -1.1651
14557SOL     OW49507  11.247   5.589  11.056 -0.1081  0.3262 -0.3172
14557SOL    HW149508  11.263   5.508  11.008 -3.1161 -0.1227 -0.7571
14557SOL    HW249509  11.254   5.658  10.989  2.7105  0.5896  0.1061
14558SOL     OW49510   7.921   4.218   2.551 -0.3703  0.2960  0.2399
14558SOL    HW149511   8.001   4.206   2.500 -1.2463 -0.7276 -0.9736
14558SOL    HW249512   7.934   4.164   2.629  0.2627  0.4199  0.2235
14559SOL     OW49513   2.312   7.464  10.312 -0.2276 -0.3336 -0.2992
14559SOL    HW149514   2.319   7.559  10.318 -0.8605 -0.2013 -1.3101
14559SOL    HW249515   2.360   7.442  10.232  0.8268 -0.9967  0.4893
14560SOL     OW49516  11.223   3.883  10.011  0.1222 -0.1703  0.2249
14560SOL    HW149517  11.299   3.886  10.068  1.2603 -0.8510 -1.1885
14560SOL    HW249518  11.213   3.790   9.988 -0.2934  0.0786 -0.6804
14561SOL     OW49519   0.161   8.407   6.435  0.3874  0.7737 -0.1182
14561SOL    HW149520   0.190   8.450   6.355  1.0317  1.4433  0.4677
14561SOL    HW249521   0.186   8.315   6.423  1.3251  1.0422 -0.2997
14562SOL     OW49522   7.341   6.539   0.035 -0.2558 -0.0742  0.2625
14562SOL    HW149523   7.436   6.522   0.029  0.0061  1.0712  1.0409
14562SOL    HW249524   7.331   6.596   0.110 -1.6209 -0.4058  0.3593
14563SOL     OW49525   8.932   3.053   1.279  0.5675 -0.1366  0.0867
14563SOL    HW149526   8.839   3.034   1.291  0.9523 -1.0476  1.9209
14563SOL    HW249527   8.942   3.145   1.306  0.0983  0.2367 -0.9307
14564SOL     OW49528   3.496   4.640   6.902  0.4269 -0.2138  0.1078
14564SOL    HW149529   3.560   4.604   6.963  0.5443 -0.5043 -0.1815
14564SOL    HW249530   3.508   4.735   6.907 -0.3260 -0.1602  1.3613
14565SOL     OW49531   0.514   6.671   1.960 -0.0555 -0.3147 -0.3863
14565SOL    HW149532   0.442   6.647   1.902 -1.0636  1.4701  0.0243
14565SOL    HW249533   0.532   6.592   2.010 -1.3897 -0.9693 -0.8816
14566SOL     OW49534  10.178  10.371   4.565 -0.5402 -0.2830  0.7145
14566SOL    HW149535  10.155  10.323   4.645  0.1858 -0.5267  0.7899
14566SOL    HW249536  10.266  10.405   4.582  0.2614 -1.6238 -0.5474
14567SOL     OW49537  11.815   7.981  10.331  0.2867 -0.4805 -0.3456
14567SOL    HW149538  11.859   7.949  10.409  0.5410 -2.0568 -1.0975
14567SOL    HW249539  11.771   8.062  10.359 -1.9834 -2.3956  2.1681
14568SOL     OW49540   7.845   5.693  10.143 -0.2981 -0.4748 -0.1616
14568SOL    HW149541   7.754   5.718  10.153 -0.9619 -3.0724  1.0852
14568SOL    HW249542   7.877   5.680  10.233  0.6687 -1.5852 -0.6352
14569SOL     OW49543   0.376   3.875   6.528 -0.5869  0.4128 -0.6148
14569SOL    HW149544   0.339   3.910   6.446  1.0579  1.8434 -0.8034
14569SOL    HW249545   0.367   3.946   6.591  0.6090  0.3160 -0.3102
14570SOL     OW49546   8.159   6.679  11.572  0.1334 -0.0194 -0.0937
14570SOL    HW149547   8.198   6.648  11.654  1.9963  1.3837 -0.3946
14570SOL    HW249548   8.153   6.600  11.518  2.2050 -0.4059  0.1389
14571SOL     OW49549   4.915  10.113   2.392 -0.0888  0.3390  0.5115
14571SOL    HW149550   4.852  10.043   2.412  0.0391  0.1550  0.2721
14571SOL    HW249551   4.883  10.152   2.311 -0.3572  0.7931  0.8337
14572SOL     OW49552   0.760   5.093  10.187  0.1242  0.7085  0.1967
14572SOL    HW149553   0.838   5.145  10.205  0.9461  0.0366 -1.2433
14572SOL    HW249554   0.786   5.004  10.210  0.4866  0.1719 -2.0335
14573SOL     OW49555   3.869   0.463   6.327 -0.6409  0.3898  0.4464
14573SOL    HW149556   3.938   0.404   6.297 -1.4145 -0.3953  0.1671
14573SOL    HW249557   3.851   0.519   6.252 -1.8828 -0.9186 -0.2775
14574SOL     OW49558   9.591   1.983   9.433 -0.2761  0.1356 -0.3707
14574SOL    HW149559   9.570   2.076   9.435 -0.0107  0.1863  1.0759
14574SOL    HW249560   9.599   1.958   9.525  0.3000 -1.1702 -0.7474
14575SOL     OW49561   7.217   8.187   0.642 -0.3461  0.3580  0.1656
14575SOL    HW149562   7.264   8.231   0.571  0.5827 -1.2988 -0.2965
14575SOL    HW249563   7.150   8.249   0.668 -0.9630  0.9029 -2.4133
14576SOL     OW49564   6.333  10.906  11.317  0.0415 -0.3072 -0.1024
14576SOL    HW149565   6.414  10.931  11.271  0.2530  0.3099  0.5847
14576SOL    HW249566   6.312  10.983  11.370 -0.8546 -0.5654 -0.0725
14577SOL     OW49567   7.583   1.112  11.697  0.2806  0.0115  0.1865
14577SOL    HW149568   7.571   1.169  11.773  2.0778  1.3657 -0.4820
14577SOL    HW249569   7.527   1.150  11.630  0.0709 -0.1147  0.2892
14578SOL     OW49570  11.110   3.572   3.169 -0.1959 -0.2830  0.1463
14578SOL    HW149571  11.015   3.562   3.171 -0.2888  0.5565  0.3312
14578SOL    HW249572  11.144   3.485   3.190 -0.9198 -0.5530  0.2223
14579SOL     OW49573   0.591  11.380   4.282 -0.2703  0.0609  0.3934
14579SOL    HW149574   0.606  11.471   4.307 -1.0559  0.7366 -1.4194
14579SOL    HW249575   0.670  11.334   4.310  0.5849  1.4948  0.4176
14580SOL     OW49576   8.847   4.954   5.242 -0.0404  0.2935 -0.6402
14580SOL    HW149577   8.773   4.948   5.181  0.7549 -1.1486 -1.5239
14580SOL    HW249578   8.884   4.866   5.243 -1.0917 -0.2981  3.3309
14581SOL     OW49579   2.351   2.731   8.591 -0.0909 -0.1724 -0.4875
14581SOL    HW149580   2.350   2.818   8.629  1.6914  0.1330 -1.0528
14581SOL    HW249581   2.421   2.733   8.526 -1.0674 -1.5582 -1.6621
14582SOL     OW49582  10.014  11.504   0.759 -0.2483 -0.0779  0.7880
14582SOL    HW149583   9.924  11.491   0.789 -0.5690 -0.7755 -0.4028
14582SOL    HW249584  10.056  11.418   0.772 -0.2536 -0.2465 -0.2483
14583SOL     OW49585   3.583   6.509  12.126  0.2876  0.5482  0.0651
14583SOL    HW149586   3.574   6.414  12.131 -0.3348  0.6626  1.5352
14583SOL    HW249587   3.529   6.543  12.197 -2.7385  2.2250 -2.7205
14584SOL     OW49588   4.916   1.696   2.202  0.2242  0.2288  0.3389
14584SOL    HW149589   4.967   1.618   2.181 -0.4930  0.3258 -2.0071
14584SOL    HW249590   4.907   1.742   2.119 -0.3712  2.2381  1.4438
14585SOL     OW49591   3.039   3.082   2.634  0.2218  0.3209  0.5252
14585SOL    HW149592   3.048   2.989   2.612  1.9968  0.1741  1.6331
14585SOL    HW249593   3.049   3.127   2.550  1.1452 -0.4303  0.2056
14586SOL     OW49594   7.810   1.684   8.361  0.0287 -1.0884 -0.0968
14586SOL    HW149595   7.825   1.607   8.306 -0.8807  1.3631 -4.1719
14586SOL    HW249596   7.730   1.723   8.326 -1.9033 -0.2979  4.4465
14587SOL     OW49597   4.781   1.826   9.044  0.7424 -0.4006  0.7371
14587SOL    HW149598   4.835   1.861   9.114  1.1019  0.8624 -0.1311
14587SOL    HW249599   4.740   1.904   9.005  0.7287 -1.0445 -0.5763
14588SOL     OW49600   2.676  11.151  11.560 -0.2308 -0.1889 -0.4661
14588SOL    HW149601   2.593  11.194  11.537  0.0073  0.5949  0.0823
14588SOL    HW249602   2.736  11.178  11.491  0.5357  2.3213  1.0470
14589SOL     OW49603   6.053   0.232   3.432  0.4856 -0.5300  0.6052
14589SOL    HW149604   6.110   0.207   3.504  2.9746  0.5169 -0.8768
14589SOL    HW249605   6.099   0.201   3.354  0.1878  2.3382 -0.8183
14590SOL     OW49606   6.538  11.026   2.349 -0.3035  0.1474  0.1792
14590SOL    HW149607   6.581  10.949   2.387  2.4902  1.0139 -0.9898
14590SOL    HW249608   6.489  10.992   2.275  0.0414 -0.6550  0.3100
14591SOL     OW49609   4.806   6.118   7.894  0.0059  0.0258  0.3657
14591SOL    HW149610   4.788   6.025   7.877 -0.7976  0.3522 -0.6654
14591SOL    HW249611   4.894   6.118   7.933  1.1595 -0.9943 -2.0128
14592SOL     OW49612   2.247   3.764   0.328 -0.2976 -0.0140 -0.7113
14592SOL    HW149613   2.328   3.751   0.378  0.0089  1.9041 -0.6221
14592SOL    HW249614   2.177   3.746   0.390  0.0858  1.1541  0.0967
14593SOL     OW49615   9.415   4.007   3.649  0.6042 -0.0882 -0.4554
14593SOL    HW149616   9.330   4.016   3.608  1.6209  0.8280 -2.4779
14593SOL    HW249617   9.467   4.081   3.616  2.0266 -0.2912  1.1485
14594SOL     OW49618   4.084   0.908  12.264  0.1369 -0.6024 -0.1393
14594SOL    HW149619   4.177   0.915  12.243  0.5458  0.3339  1.7260
14594SOL    HW249620   4.081   0.919  12.359 -1.9210 -0.2865 -0.2084
14595SOL     OW49621   9.660  10.357   0.760  0.1218 -0.6146 -0.2816
14595SOL    HW149622   9.755  10.358   0.750  0.2149 -0.4339  0.5069
14595SOL    HW249623   9.646  10.347   0.855 -0.6366  0.3361 -0.2811
14596SOL     OW49624  10.444   9.591   1.851  0.0950  0.1031  0.2235
14596SOL    HW149625  10.407   9.503   1.844  0.5042 -0.0926  0.4751
14596SOL    HW249626  10.430   9.630   1.765 -0.6388  0.0126  0.2959
14597SOL     OW49627  10.176   2.837   3.321  0.2330  0.4580 -0.0056
14597SOL    HW149628  10.197   2.792   3.239 -1.5120 -0.4649 -0.0047
14597SOL    HW249629  10.206   2.927   3.307  0.9803  0.0546 -1.2242
14598SOL     OW49630   0.427   8.997   2.852  0.2981 -0.2574 -0.0735
14598SOL    HW149631   0.463   8.956   2.773 -2.3165  0.3053 -1.6452
14598SOL    HW249632   0.340   8.959   2.861 -0.8223  2.2769  0.4825
14599SOL     OW49633   3.058   0.033   1.988 -0.1014 -0.3489 -0.0073
14599SOL    HW149634   3.107  -0.049   2.000  1.5307  0.5049 -0.5398
14599SOL    HW249635   2.974   0.017   2.031  0.0090 -2.4429 -0.4595
14600SOL     OW49636   7.494   8.371   8.536 -0.6014 -0.4324  0.0706
14600SOL    HW149637   7.581   8.405   8.514 -1.0577  0.6647 -0.1009
14600SOL    HW249638   7.494   8.365   8.631 -0.2019 -0.8205  0.0498
14601SOL     OW49639   1.348   3.133   6.295  0.4597  0.2283  0.8931
14601SOL    HW149640   1.294   3.171   6.363 -0.8006 -1.3823  0.8486
14601SOL    HW249641   1.309   3.047   6.278  0.6165  0.6249 -1.9721
14602SOL     OW49642   2.356   1.350   6.627  0.2208 -0.0602 -0.3893
14602SOL    HW149643   2.386   1.274   6.678 -1.1183  0.0752  0.6702
14602SOL    HW249644   2.284   1.317   6.574  0.1916  0.2876 -0.5689
14603SOL     OW49645  10.833   5.878   6.180 -0.3012  0.4766 -0.1366
14603SOL    HW149646  10.844   5.785   6.162 -0.3175  0.5061 -0.3020
14603SOL    HW249647  10.796   5.881   6.269 -0.4525  0.3203 -0.1934
14604SOL     OW49648   5.554   9.500   6.641  0.3508  0.6242  0.1584
14604SOL    HW149649   5.472   9.463   6.674 -0.3729 -0.4777 -2.6024
14604SOL    HW249650   5.620   9.435   6.664  0.2280  0.8325  1.1394
14605SOL     OW49651   0.400   5.864  10.510  0.0876  0.1060  0.2796
14605SOL    HW149652   0.385   5.822  10.425 -0.4215  2.1873 -0.7385
14605SOL    HW249653   0.407   5.958  10.489 -1.6538  0.8790  2.6755
14606SOL     OW49654   7.230   0.996  11.856  0.0524  0.5600 -0.2708
14606SOL    HW149655   7.296   0.938  11.817 -0.2358  0.1988 -0.2263
14606SOL    HW249656   7.277   1.042  11.925  0.6080  1.3133 -1.1220
14607SOL     OW49657  11.109  12.095   5.590 -0.0095 -0.4381  0.1400
14607SOL    HW149658  11.171  12.162   5.618 -0.0772 -0.6884  0.8998
14607SOL    HW249659  11.155  12.050   5.519  0.4707 -0.2759  0.3384
14608SOL     OW49660   0.175   4.839  11.627  0.4587  0.3929  0.1811
14608SOL    HW149661   0.271   4.838  11.634  0.3866 -0.3307  1.2686
14608SOL    HW249662   0.145   4.870  11.712 -0.2628  1.8131 -0.5655
14609SOL     OW49663   2.526  11.815   7.261  0.0961 -0.0443  0.1098
14609SOL    HW149664   2.561  11.866   7.334 -1.1054  1.1132 -0.0715
14609SOL    HW249665   2.597  11.756   7.236  0.7528 -0.0101  1.7879
14610SOL     OW49666   3.157   6.741  10.700 -0.3029  0.1264 -0.1367
14610SOL    HW149667   3.182   6.674  10.637 -0.3453  0.4683 -0.5228
14610SOL    HW249668   3.083   6.703  10.748 -0.6260  0.0766 -0.6710
14611SOL     OW49669   0.426  11.114  10.184  0.3002  0.7483  0.3879
14611SOL    HW149670   0.410  11.057  10.259  0.3511 -0.7332 -0.6766
14611SOL    HW249671   0.521  11.125  10.182  0.2669  1.1028  0.7602
14612SOL     OW49672   6.060   2.483  11.445 -0.1714  0.1287 -0.6351
14612SOL    HW149673   6.022   2.399  11.469  1.8956 -0.7711 -0.3061
14612SOL    HW249674   6.021   2.545  11.506 -1.1072 -0.7069 -0.3472
14613SOL     OW49675   0.820   2.271   1.279  0.0927 -0.0920 -0.2504
14613SOL    HW149676   0.729   2.242   1.275  0.0248  0.1865 -0.8311
14613SOL    HW249677   0.869   2.193   1.303 -0.4087 -0.0164  1.1168
14614SOL     OW49678   1.593  10.888   7.642 -0.3194  0.1284  0.5958
14614SOL    HW149679   1.611  10.916   7.731 -3.1968  0.0656  1.3170
14614SOL    HW249680   1.671  10.841   7.615  1.0877  1.1447  2.6412
14615SOL     OW49681   1.574   3.360  10.864  0.0647 -0.1992  0.5919
14615SOL    HW149682   1.577   3.452  10.838 -3.3809 -0.3285 -0.8258
14615SOL    HW249683   1.610   3.312  10.790  0.1475 -0.0832  0.5584
14616SOL     OW49684   5.525   5.351   6.581  0.0084 -0.3840 -0.1413
14616SOL    HW149685   5.558   5.317   6.498 -0.0915 -1.9348  0.4196
14616SOL    HW249686   5.518   5.445   6.567  1.1675 -0.4585 -1.4772
14617SOL     OW49687  11.569   9.153   5.904  0.2269  0.0079  0.1816
14617SOL    HW149688  11.524   9.230   5.870  1.0685 -0.1511 -1.3845
14617SOL    HW249689  11.538   9.081   5.850  1.2144 -0.3553  0.0839
14618SOL     OW49690   6.875   2.281  10.920 -0.1462 -0.5640  0.6764
14618SOL    HW149691   6.920   2.364  10.933 -1.1617  0.0408  0.4226
14618SOL    HW249692   6.936   2.215  10.952  0.1663  0.3671  2.0659
14619SOL     OW49693   9.052   3.680  12.153  0.3541  0.2661 -0.1504
14619SOL    HW149694   9.143   3.682  12.181  0.8358  0.7720 -1.6495
14619SOL    HW249695   9.004   3.725  12.223  0.9408 -1.6446  1.5587
14620SOL     OW49696   3.573   0.430   0.704 -0.0926  0.1873 -0.3695
14620SOL    HW149697   3.506   0.490   0.738  1.7789  1.3210  1.6099
14620SOL    HW249698   3.621   0.482   0.639 -0.1311 -0.0531 -0.5886
14621SOL     OW49699   5.867   3.886   5.922 -0.0613 -0.1759 -0.0232
14621SOL    HW149700   5.923   3.958   5.948 -1.2609  1.4441 -1.7068
14621SOL    HW249701   5.924   3.809   5.925  0.8664  0.4435  3.3901
14622SOL     OW49702   5.547   6.319   7.189  0.2041  0.7224 -0.0315
14622SOL    HW149703   5.498   6.316   7.271  0.4091 -1.1374  0.0669
14622SOL    HW249704   5.482   6.296   7.122  0.1958  1.5414 -0.3088
14623SOL     OW49705   4.914   4.062   1.305  0.2486  0.1289 -0.4720
14623SOL    HW149706   4.915   4.144   1.355  2.2277 -0.3282  0.3224
14623SOL    HW249707   4.855   4.080   1.232 -1.5752  1.3177  1.1980
14624SOL     OW49708   2.513   1.866   2.737 -0.5758 -0.2330 -0.4251
14624SOL    HW149709   2.479   1.921   2.666 -0.3865 -1.5805 -1.6135
14624SOL    HW249710   2.496   1.776   2.707 -3.0513 -0.8791  2.5028
14625SOL     OW49711   0.474   0.149   5.720  0.4499  0.3121  0.1412
14625SOL    HW149712   0.430   0.189   5.795  0.0305  0.2907 -0.0937
14625SOL    HW249713   0.564   0.181   5.726  0.5050  0.0491  0.8387
14626SOL     OW49714  11.895   4.081   5.868 -0.3171 -0.0249  0.3321
14626SOL    HW149715  11.895   4.177   5.863  1.2755 -0.0058 -0.0786
14626SOL    HW249716  11.876   4.061   5.959 -2.1297  0.6121  0.1373
14627SOL     OW49717   5.944   8.538   0.924 -0.5932 -0.3301 -0.3882
14627SOL    HW149718   6.024   8.508   0.967 -0.3163 -0.0964 -0.7401
14627SOL    HW249719   5.906   8.459   0.886 -0.7286 -0.5038  0.0957
14628SOL     OW49720   4.880   3.204   4.635 -0.1187  0.4448  0.0427
14628SOL    HW149721   4.962   3.163   4.606 -0.5992 -0.2283 -0.3953
14628SOL    HW249722   4.906   3.292   4.662  0.7253  0.2961 -0.2392
14629SOL     OW49723   3.314  10.844   0.379  0.1958  0.2959 -0.0924
14629SOL    HW149724   3.392  10.863   0.432  0.5818  0.5437 -0.7387
14629SOL    HW249725   3.339  10.767   0.327 -0.9450 -1.3341  1.6437
14630SOL     OW49726   1.268  11.097   6.097 -0.0736 -0.0072 -0.2425
14630SOL    HW149727   1.345  11.141   6.132 -1.3163  0.9182  1.4855
14630SOL    HW249728   1.195  11.152   6.125 -1.4216 -1.1833 -1.3094
14631SOL     OW49729   7.909   9.787   6.828 -0.3474  0.1863  0.3693
14631SOL    HW149730   7.935   9.797   6.736  2.2360 -2.4244  0.6557
14631SOL    HW249731   7.962   9.851   6.875  1.5922 -1.3593  0.3858
14632SOL     OW49732   0.117   4.832   7.161  0.0789 -0.4299  0.6585
14632SOL    HW149733   0.169   4.899   7.205 -0.2070  0.0797  0.2388
14632SOL    HW249734   0.041   4.880   7.127  0.1613 -0.8588 -0.1499
14633SOL     OW49735   9.225   4.705   1.745 -0.2038 -0.1784  0.3188
14633SOL    HW149736   9.213   4.785   1.796  1.5202  0.8980 -0.8873
14633SOL    HW249737   9.235   4.636   1.811  2.0431  1.1883  1.5281
14634SOL     OW49738   4.136   7.934   8.453 -0.9767  0.0881 -0.3328
14634SOL    HW149739   4.172   7.922   8.541 -0.6213 -2.8399 -0.7796
14634SOL    HW249740   4.041   7.924   8.465 -1.1210  1.5463 -0.0651
14635SOL     OW49741   0.659   0.863   9.955 -0.1532 -0.3295 -0.1162
14635SOL    HW149742   0.624   0.932  10.011  0.1657 -1.6992  1.8405
14635SOL    HW249743   0.731   0.905   9.907 -1.5477  1.3191 -0.8618
14636SOL     OW49744  10.149  11.989   0.953 -0.2097  0.6732  0.4110
14636SOL    HW149745  10.121  11.957   1.038  2.0349  1.4893  1.5417
14636SOL    HW249746  10.193  11.915   0.912 -1.5980  0.1742 -0.2465
14637SOL     OW49747   5.262   3.415   5.629  0.6508 -0.0185 -0.1402
14637SOL    HW149748   5.206   3.481   5.588 -1.0977  0.7056  3.0734
14637SOL    HW249749   5.316   3.464   5.690  1.0525 -1.3113  0.5788
14638SOL     OW49750   4.630   0.403   2.581  0.4823  0.0280  0.2444
14638SOL    HW149751   4.552   0.457   2.587 -0.5218 -1.4379  0.7829
14638SOL    HW249752   4.655   0.386   2.672 -0.9375 -2.7534  0.2265
14639SOL     OW49753   1.014   4.067   5.167 -0.4250 -0.2207 -0.1609
14639SOL    HW149754   0.934   4.064   5.218  0.0907 -3.7042  0.6451
14639SOL    HW249755   0.994   4.018   5.087  0.9296 -1.3337  0.1559
14640SOL     OW49756   9.029   8.901  11.145  0.4136  0.0269 -0.4253
14640SOL    HW149757   8.950   8.910  11.091  0.5183  0.4038 -0.5170
14640SOL    HW249758   9.099   8.940  11.092  0.5118  0.4267 -0.0090
14641SOL     OW49759   7.092   7.236   3.892  0.1980  0.1148  0.9519
14641SOL    HW149760   7.129   7.181   3.823 -0.0834  1.3570 -0.2264
14641SOL    HW249761   7.038   7.176   3.943 -2.1652 -0.3219 -1.7953
14642SOL     OW49762  10.868   0.565   5.061 -0.3871  0.6465 -0.2801
14642SOL    HW149763  10.826   0.563   5.147 -0.8674  0.4674 -0.5151
14642SOL    HW249764  10.935   0.497   5.065 -0.1903  0.8552  0.0584
14643SOL     OW49765   1.656   7.990  10.954  0.0483 -0.1009 -0.0131
14643SOL    HW149766   1.733   7.953  10.910 -0.4812 -0.0760 -0.9863
14643SOL    HW249767   1.680   8.082  10.969  1.6183 -0.8842  2.9822
14644SOL     OW49768   1.772   4.181  10.468 -0.2031 -0.2803  0.3491
14644SOL    HW149769   1.683   4.214  10.455 -0.6426 -0.0917  3.1444
14644SOL    HW249770   1.812   4.244  10.529  0.8553 -1.8569  1.3607
14645SOL     OW49771  11.262  11.982   4.949 -0.4446 -0.4193 -0.1048
14645SOL    HW149772  11.217  12.009   4.869 -0.4173  0.8117  0.2775
14645SOL    HW249773  11.215  12.026   5.019  1.9467  1.8119  0.2361
14646SOL     OW49774   3.301   3.577   3.531 -0.4854  0.4087  0.2107
14646SOL    HW149775   3.263   3.605   3.614 -1.1860 -0.9953  0.3879
14646SOL    HW249776   3.390   3.549   3.554 -0.7421 -0.1555  0.5204
14647SOL     OW49777  11.279   1.229  10.380 -0.3842  0.1439 -0.1602
14647SOL    HW149778  11.309   1.141  10.359 -1.1390 -0.3729  0.8502
14647SOL    HW249779  11.263   1.227  10.474 -1.5977  1.0010 -0.3261
14648SOL     OW49780   4.431   9.288   4.648  0.2085  0.4180 -0.5649
14648SOL    HW149781   4.440   9.207   4.597 -2.1613 -0.8972  0.9393
14648SOL    HW249782   4.445   9.358   4.584 -1.6473 -1.1403 -2.8545
14649SOL     OW49783   6.945   7.902   0.416  0.6683  0.1412 -0.0807
14649SOL    HW149784   6.889   7.826   0.434  0.5189 -0.1166 -1.5504
14649SOL    HW249785   6.979   7.927   0.502 -0.2775 -0.8083  0.5985
14650SOL     OW49786   2.416   0.533   2.441 -0.1782 -0.2576  0.4249
14650SOL    HW149787   2.472   0.541   2.364 -1.3091 -0.2965 -0.4229
14650SOL    HW249788   2.327   0.549   2.408 -0.5264  1.4582  2.0164
14651SOL     OW49789   6.452   0.360   4.251  0.0478  0.1733 -0.1292
14651SOL    HW149790   6.543   0.360   4.279  0.4818  0.7281 -1.4623
14651SOL    HW249791   6.446   0.432   4.187 -0.9611 -0.7488 -1.1309
14652SOL     OW49792   6.199   7.036   7.775 -0.0918 -0.3960  0.4319
14652SOL    HW149793   6.225   7.044   7.683 -0.8627  0.7093  0.2815
14652SOL    HW249794   6.265   6.979   7.814  2.1955  1.7655 -0.0530
14653SOL     OW49795   4.087   4.199   4.332  0.1073  0.3040  0.1794
14653SOL    HW149796   4.128   4.244   4.258 -1.9245 -1.1374 -1.9668
14653SOL    HW249797   4.123   4.110   4.329 -0.2777  0.1232  0.6938
14654SOL     OW49798   0.370   7.223   0.251  0.4816  0.6214 -0.0861
14654SOL    HW149799   0.425   7.163   0.302  3.6332  1.2852 -2.3934
14654SOL    HW249800   0.401   7.310   0.275 -0.8676  1.1452 -0.1533
14655SOL     OW49801   3.706   3.631   1.897  0.8005 -0.4174 -0.1750
14655SOL    HW149802   3.800   3.645   1.883  1.2854 -1.7766  1.3890
14655SOL    HW249803   3.698   3.619   1.992 -0.9123 -0.6447 -0.3221
14656SOL     OW49804   5.078   7.830   2.993  0.0191  0.1117  1.0544
14656SOL    HW149805   4.984   7.823   3.011 -0.3642 -0.6423 -0.9659
14656SOL    HW249806   5.110   7.740   2.998 -0.6554 -0.7278 -4.0003
14657SOL     OW49807   9.299   5.117   0.862  0.0682  0.5280  0.6410
14657SOL    HW149808   9.378   5.065   0.871  0.1832  0.7375  0.8467
14657SOL    HW249809   9.237   5.059   0.817  0.4484  0.4761  0.1684
14658SOL     OW49810   0.290   7.678   8.385  0.5560 -0.0951  0.3397
14658SOL    HW149811   0.330   7.733   8.317  0.8471  0.4335  0.9172
14658SOL    HW249812   0.353   7.682   8.458  0.9023 -1.7406  0.1637
14659SOL     OW49813   6.529   1.957   6.194  0.2380  0.5286  0.0497
14659SOL    HW149814   6.525   2.053   6.189  1.2136  0.5918  0.3118
14659SOL    HW249815   6.438   1.930   6.201 -0.0874  1.4092 -0.5621
14660SOL     OW49816   4.096   1.774   3.746 -0.4413  0.0250 -0.2879
14660SOL    HW149817   4.032   1.711   3.712 -0.7465  0.4200 -0.4435
14660SOL    HW249818   4.163   1.778   3.677 -0.3071 -0.3017 -0.1762
14661SOL     OW49819   0.013   1.430   3.820  0.0357  0.0587 -0.3964
14661SOL    HW149820  -0.029   1.347   3.797  0.8084 -1.1922  2.3415
14661SOL    HW249821   0.093   1.431   3.768 -0.8421  0.0417 -1.8272
14662SOL     OW49822   5.227  10.169  11.196 -0.1316  0.0907  0.2296
14662SOL    HW149823   5.202  10.120  11.275  0.6864 -0.5549  0.1048
14662SOL    HW249824   5.220  10.105  11.125  2.8989 -0.5242  0.3285
14663SOL     OW49825   6.903   9.675  12.105 -0.8210  0.6239  0.2474
14663SOL    HW149826   6.911   9.639  12.193 -0.1622  1.1887  0.4223
14663SOL    HW249827   6.913   9.769  12.116  0.6444  0.5868 -0.5983
14664SOL     OW49828   1.712  10.192   5.598  0.3016 -0.1778  0.2496
14664SOL    HW149829   1.739  10.163   5.685 -0.2552 -0.7137  0.2514
14664SOL    HW249830   1.669  10.276   5.613  0.0851 -0.3351  0.5085
14665SOL     OW49831   6.407   0.053   5.199 -0.1286  0.0802  0.1306
14665SOL    HW149832   6.440   0.027   5.113  0.5602 -0.5660  0.5752
14665SOL    HW249833   6.386   0.146   5.189  2.0016  0.5776 -0.1452
14666SOL     OW49834  11.106  11.774   5.407  0.3908 -0.2529  0.4244
14666SOL    HW149835  11.193  11.810   5.420  1.1625 -1.3099 -1.4069
14666SOL    HW249836  11.061  11.787   5.491  2.4540 -0.1330  1.5639
14667SOL     OW49837   0.796   3.483   6.219  0.2436  0.7477  0.1649
14667SOL    HW149838   0.770   3.541   6.148  0.9538  0.4679 -0.3487
14667SOL    HW249839   0.837   3.408   6.174 -1.4167 -0.5746  0.7583
14668SOL     OW49840   3.452   7.248   3.374  0.0298 -0.6233  0.8620
14668SOL    HW149841   3.368   7.235   3.329 -0.0729  0.3223  0.7440
14668SOL    HW249842   3.507   7.291   3.309  0.8875 -1.9558  0.6805
14669SOL     OW49843   5.720   1.849   1.843  0.0886  1.1042 -0.1441
14669SOL    HW149844   5.661   1.775   1.833  0.6874  0.5185  0.5503
14669SOL    HW249845   5.807   1.813   1.823  0.4114  1.5643  0.4048
14670SOL     OW49846   6.005   3.310   8.401 -0.1693 -0.0909 -0.9406
14670SOL    HW149847   6.101   3.309   8.398 -0.1565 -1.6689 -0.7359
14670SOL    HW249848   5.980   3.375   8.336  1.0433  0.7025 -0.6505
14671SOL     OW49849   2.806   9.933   4.345  0.5379  0.7327 -0.0870
14671SOL    HW149850   2.746   9.896   4.280 -0.2230  1.5379  0.1428
14671SOL    HW249851   2.778   9.894   4.428 -0.0322  1.5068  0.1004
14672SOL     OW49852   6.126  12.325   9.054 -0.1135 -0.0918 -0.6084
14672SOL    HW149853   6.123  12.239   9.012  1.1057 -0.5938  0.2683
14672SOL    HW249854   6.128  12.305   9.148 -0.2851  0.9052 -0.3920
14673SOL     OW49855   6.615   2.899  11.751  0.2016  0.1498 -0.9598
14673SOL    HW149856   6.605   2.834  11.821 -3.2856  0.4621 -0.9807
14673SOL    HW249857   6.647   2.850  11.676  1.7042 -0.6584  0.1749
14674SOL     OW49858   7.278   5.196   6.958 -0.0704 -0.1828  0.0803
14674SOL    HW149859   7.249   5.233   6.875 -1.0149  1.8540  1.2255
14674SOL    HW249860   7.207   5.137   6.984  0.6915 -1.6296 -0.9854
14675SOL     OW49861   7.983   4.182   8.006  0.3113 -0.4261  0.4557
14675SOL    HW149862   7.947   4.195   7.918 -0.6737  1.9029  1.1489
14675SOL    HW249863   7.968   4.089   8.024 -0.4977 -0.6891 -1.3797
14676SOL     OW49864   2.285   9.026   3.171 -0.3259  0.3158  0.5687
14676SOL    HW149865   2.223   8.955   3.189  0.3391 -0.6024 -0.6068
14676SOL    HW249866   2.343   9.026   3.247  0.9378 -1.8399 -0.2903
14677SOL     OW49867  12.253  10.975   9.509 -0.1721 -0.1637 -0.3468
14677SOL    HW149868  12.287  10.963   9.421 -0.8190 -1.8540 -0.3967
14677SOL    HW249869  12.167  11.016   9.496 -0.5660 -1.0296 -0.5734
14678SOL     OW49870   8.802  10.929   0.604 -0.6108  0.9342 -0.2454
14678SOL    HW149871   8.721  10.903   0.648 -1.2743  0.3681 -1.7264
14678SOL    HW249872   8.811  11.023   0.624 -0.7050  0.6348  1.3197
14679SOL     OW49873   9.605   5.550   2.630  0.2776 -0.3893 -0.4481
14679SOL    HW149874   9.532   5.500   2.595 -1.3166  0.2556  1.7179
14679SOL    HW249875   9.576   5.576   2.718  2.5753  1.0584 -0.0355
14680SOL     OW49876   8.672   3.965   8.812 -0.2428  0.5491 -0.4208
14680SOL    HW149877   8.614   4.006   8.877  0.7540  2.8190 -0.8704
14680SOL    HW249878   8.711   3.891   8.859 -1.2883  0.7296  0.8170
14681SOL     OW49879   5.399  10.064   1.204 -0.0426 -0.6404  0.0211
14681SOL    HW149880   5.493  10.077   1.220 -0.6419  2.7613  1.4836
14681SOL    HW249881   5.359  10.071   1.290 -1.7452 -1.2848 -0.6762
14682SOL     OW49882   3.893  10.074   6.988 -0.3934  0.3079  0.4282
14682SOL    HW149883   3.879  10.084   7.083  2.2160  1.4654  0.7731
14682SOL    HW249884   3.901  10.164   6.956  0.5626 -0.1017 -0.5446
14683SOL     OW49885  10.608   0.886   2.644  0.3479  0.2956  0.3858
14683SOL    HW149886  10.584   0.810   2.590 -0.3351  0.3602  0.5937
14683SOL    HW249887  10.542   0.952   2.623  0.8416  0.7727  0.3376
14684SOL     OW49888   5.456   9.033   7.684 -0.0904  0.1768  0.0202
14684SOL    HW149889   5.366   9.049   7.657  0.3987 -0.4377 -2.1314
14684SOL    HW249890   5.474   8.943   7.655  0.5105 -0.6083  2.5223
14685SOL     OW49891   5.859   7.058   4.328 -0.5096 -0.4770 -0.0177
14685SOL    HW149892   5.851   7.007   4.247  0.5988  0.5140 -0.7910
14685SOL    HW249893   5.776   7.044   4.373 -1.5585 -0.2987 -1.7796
14686SOL     OW49894  11.008   8.647   2.629 -0.5814  0.1765  0.3741
14686SOL    HW149895  11.055   8.692   2.559 -1.7588  1.5908  0.4368
14686SOL    HW249896  11.016   8.706   2.705 -4.7987  2.0371 -0.3586
14687SOL     OW49897   7.676  11.507   0.342  0.3879 -0.3868 -0.2222
14687SOL    HW149898   7.588  11.538   0.321  0.3821  0.4554  0.9572
14687SOL    HW249899   7.706  11.463   0.262 -0.8551 -0.1417 -0.8430
14688SOL     OW49900   1.186   9.509   0.338 -0.7454  0.4760 -0.0709
14688SOL    HW149901   1.120   9.578   0.330 -0.8475  0.4379  0.4219
14688SOL    HW249902   1.163   9.463   0.420  0.3459  0.9436  0.5078
14689SOL     OW49903   3.388   9.048   1.716  0.4976 -0.7665 -0.4951
14689SOL    HW149904   3.444   9.071   1.790  2.4591 -2.6835 -1.2618
14689SOL    HW249905   3.345   9.130   1.692 -1.8368 -0.4032  3.9401
14690SOL     OW49906   6.950   9.967  11.657  0.0171 -0.1059  0.1828
14690SOL    HW149907   6.905   9.934  11.579 -1.9764  2.0061  0.3159
14690SOL    HW249908   6.979  10.055  11.633  1.4755 -0.2875  1.1207
14691SOL     OW49909   4.232   3.347  10.733  0.1507 -0.2274 -0.1319
14691SOL    HW149910   4.203   3.423  10.682 -0.0965  0.9695  1.7096
14691SOL    HW249911   4.212   3.370  10.824  2.4700 -1.3977  0.7432
14692SOL     OW49912   4.977  10.640   3.205  0.5845 -0.4755  0.5232
14692SOL    HW149913   4.970  10.671   3.115  3.6293  0.6751  0.5686
14692SOL    HW249914   5.071  10.643   3.225  0.2347 -2.5745  3.1143
14693SOL     OW49915   8.907  10.714  10.119 -0.8974 -0.4622  0.5653
14693SOL    HW149916   8.922  10.798  10.162  3.0472 -0.0969 -1.1992
14693SOL    HW249917   8.950  10.650  10.176 -0.5506 -0.7546 -0.0225
14694SOL     OW49918   1.041   3.637   9.280 -0.1422 -0.1358  0.5461
14694SOL    HW149919   1.009   3.634   9.190 -0.1704 -0.4660  0.5662
14694SOL    HW249920   1.037   3.730   9.304  1.1259  0.1503 -0.2581
14695SOL     OW49921   8.157  11.421   2.856  0.5778 -0.3696 -0.3113
14695SOL    HW149922   8.122  11.395   2.942  1.8211 -0.4472  0.1948
14695SOL    HW249923   8.079  11.427   2.800 -0.2109 -0.8397  0.6789
14696SOL     OW49924   0.880   6.714   3.918 -0.1700 -0.5215  0.7587
14696SOL    HW149925   0.847   6.647   3.978 -1.3088 -0.5059  0.1887
14696SOL    HW249926   0.929   6.665   3.852  0.6769 -0.5837  1.4109
14697SOL     OW49927   1.270   9.546   3.406  0.2188 -0.0555 -0.0462
14697SOL    HW149928   1.215   9.625   3.406 -1.2168 -1.0049  0.6365
14697SOL    HW249929   1.300   9.537   3.496 -0.2999 -0.7127  0.0702
14698SOL     OW49930   3.629   4.542   8.669 -0.0949  0.2732 -0.0240
14698SOL    HW149931   3.563   4.489   8.715  0.0586  1.6685  1.9116
14698SOL    HW249932   3.702   4.547   8.731  1.6506 -0.7278 -1.8862
14699SOL     OW49933   7.661   6.035   4.921 -0.3858  0.1118 -0.0216
14699SOL    HW149934   7.754   6.019   4.939 -0.2937 -1.0442 -1.3201
14699SOL    HW249935   7.662   6.096   4.847 -0.6428 -0.1017 -0.2037
14700SOL     OW49936   2.510   7.983   2.733  0.2925  0.9786 -0.8496
14700SOL    HW149937   2.505   7.901   2.683  1.9147  1.2221 -1.4493
14700SOL    HW249938   2.428   8.028   2.711 -1.0898 -0.8621  0.2454
14701SOL     OW49939  12.176   1.152   2.655  0.1674  0.2747  0.1084
14701SOL    HW149940  12.221   1.124   2.735 -0.8997 -2.1150 -0.0442
14701SOL    HW249941  12.105   1.209   2.686  0.5437  0.4205  0.7202
14702SOL     OW49942   0.551   1.329   7.261 -0.5449  0.1106 -0.3811
14702SOL    HW149943   0.600   1.319   7.180 -0.3333 -0.4297 -0.1924
14702SOL    HW249944   0.581   1.257   7.316 -2.1515 -0.7541 -0.5629
14703SOL     OW49945  11.556  10.266   5.016  0.5128  0.0935 -0.0156
14703SOL    HW149946  11.536  10.319   5.094  1.5237  0.5682 -0.0587
14703SOL    HW249947  11.646  10.289   4.995  0.6461 -0.9494 -0.6141
14704SOL     OW49948   4.895   5.132   2.199  0.1923  0.1233  0.1442
14704SOL    HW149949   4.906   5.093   2.286  0.1480  2.5696  1.3167
14704SOL    HW249950   4.967   5.195   2.193  1.4121 -1.3625 -2.4671
14705SOL     OW49951   7.276  12.147   9.739 -0.2741  0.4281 -0.1268
14705SOL    HW149952   7.314  12.104   9.816  1.8029  0.3861 -1.1219
14705SOL    HW249953   7.320  12.232   9.735 -1.4846  1.0695 -0.4365
14706SOL     OW49954   0.898   3.888   6.500 -0.0593 -0.3094  0.3626
14706SOL    HW149955   0.803   3.889   6.488 -0.2534  0.8848  1.6136
14706SOL    HW249956   0.931   3.948   6.433  0.0185 -2.0469 -1.2082
14707SOL     OW49957   8.584   0.282   5.622  0.5403 -0.6947  0.8197
14707SOL    HW149958   8.504   0.236   5.593  0.9269 -0.4472 -0.7285
14707SOL    HW249959   8.601   0.345   5.553  2.5975 -1.3584  0.6638
14708SOL     OW49960   0.308   1.681   7.767 -0.1343  0.2375  0.8724
14708SOL    HW149961   0.263   1.606   7.807 -1.2174  0.2906 -0.2033
14708SOL    HW249962   0.391   1.644   7.735  0.2427 -0.0477  2.1043
14709SOL     OW49963   7.883   3.303   9.634  0.6866  0.2320  0.4809
14709SOL    HW149964   7.955   3.240   9.632  1.0627  0.6252  1.2889
14709SOL    HW249965   7.898   3.358   9.557  0.3361 -0.6736 -0.2462
14710SOL     OW49966   6.857   9.664  11.198 -0.5238 -0.7836  0.5747
14710SOL    HW149967   6.843   9.622  11.113 -0.1301 -0.7399  0.4873
14710SOL    HW249968   6.915   9.738  11.180  1.4958 -2.1283  1.2152
14711SOL     OW49969  12.311  11.851   0.847  0.7014  0.2073  0.3053
14711SOL    HW149970  12.285  11.759   0.856  0.7792  0.2390  0.8624
14711SOL    HW249971  12.404  11.848   0.826  0.5567  0.1388 -0.3424
14712SOL     OW49972  10.185   4.038   0.693  0.4510 -0.3874  0.4090
14712SOL    HW149973  10.234   3.982   0.633  0.3817 -0.1880  0.1643
14712SOL    HW249974  10.196   3.997   0.779  0.3285 -0.8293  0.2193
14713SOL     OW49975   7.610   1.904   1.445 -0.0197 -0.3670  0.2868
14713SOL    HW149976   7.610   1.870   1.535  0.6468  1.2177  0.9211
14713SOL    HW249977   7.563   1.837   1.395 -0.2386 -1.3886  1.7677
14714SOL     OW49978   6.163  10.447   4.236  0.1475 -0.2162 -0.0059
14714SOL    HW149979   6.117  10.529   4.218 -2.1784 -1.1911  1.0477
14714SOL    HW249980   6.245  10.454   4.187 -0.7562  1.9819 -1.3592
14715SOL     OW49981   8.827   9.294   2.542 -0.1596 -0.1202  0.3289
14715SOL    HW149982   8.896   9.293   2.475  1.0918  0.1274  1.5541
14715SOL    HW249983   8.777   9.374   2.524  0.8612  0.5420  0.3504
14716SOL     OW49984   7.794   0.139   0.903  0.1254 -0.0671  0.0669
14716SOL    HW149985   7.732   0.208   0.878 -0.2658 -1.0969 -2.0367
14716SOL    HW249986   7.793   0.140   0.999  0.4126  3.0425  0.1359
14717SOL     OW49987  11.746   6.115   6.301 -0.3073  0.0043  0.1564
14717SOL    HW149988  11.810   6.044   6.308  0.5621  0.8035  0.5155
14717SOL    HW249989  11.776   6.166   6.226 -1.2218 -0.2744 -0.4176
14718SOL     OW49990  12.308  11.966   1.887 -1.1532 -0.4368  0.2229
14718SOL    HW149991  12.244  12.037   1.888  0.3276  1.1136 -2.6319
14718SOL    HW249992  12.263  11.894   1.843 -1.0689  0.5596 -1.5542
14719SOL     OW49993   7.665   9.990   7.092 -0.3858 -0.4387  0.0675
14719SOL    HW149994   7.646  10.076   7.129  0.4318 -0.1096 -0.2524
14719SOL    HW249995   7.669   9.932   7.167  2.5068  0.4449  0.7154
14720SOL     OW49996   0.375   6.718   0.748  0.2973 -0.3485 -0.0227
14720SOL    HW149997   0.328   6.698   0.829 -0.9037  1.0500 -0.3327
14720SOL    HW249998   0.360   6.642   0.692 -0.9056 -0.3071  0.2082
14721SOL     OW49999   0.342   2.927   2.463  0.5169  0.2469 -0.7309
14721SOL    HW150000   0.429   2.921   2.504  0.1175  0.2431  0.1381
14721SOL    HW250001   0.353   2.992   2.394  0.5727  2.3055  1.1078
14722SOL     OW50002   0.742   1.258   1.335 -0.0088  0.5651 -0.3705
14722SOL    HW150003   0.732   1.164   1.322  1.0478  0.2404  0.9497
14722SOL    HW250004   0.653   1.291   1.343 -0.3503 -0.5507  0.6493
14723SOL     OW50005   0.642   9.598   7.813  0.0028  0.1899  0.5576
14723SOL    HW150006   0.644   9.550   7.730 -0.1083 -1.7818  1.6473
14723SOL    HW250007   0.731   9.589   7.848  0.3282  1.8351  0.2562
14724SOL     OW50008  11.324   8.058   7.763  0.1441 -0.2319 -0.3075
14724SOL    HW150009  11.332   8.024   7.852 -1.0820 -0.8647 -0.4169
14724SOL    HW250010  11.238   8.101   7.762  0.0878 -0.3601 -1.2194
14725SOL     OW50011  12.143   3.601  10.836  0.4275 -0.4884 -0.3917
14725SOL    HW150012  12.175   3.624  10.923  4.0243 -0.5972 -1.5386
14725SOL    HW250013  12.138   3.505  10.836 -0.0169 -0.4695 -0.2038
14726SOL     OW50014  10.073  10.499  11.487 -0.1527 -0.2249  0.4866
14726SOL    HW150015  10.138  10.564  11.512 -1.2427  1.3187 -0.4780
14726SOL    HW250016   9.990  10.534  11.518 -0.6740 -1.6164  0.7406
14727SOL     OW50017   4.023   7.922   7.978  0.0659  0.4259 -0.1811
14727SOL    HW150018   3.973   7.918   7.896  0.1690 -0.4237 -0.2188
14727SOL    HW250019   4.053   8.012   7.984 -0.4285  0.6392 -0.7932
14728SOL     OW50020  10.598  11.231   7.613  0.1657  0.1904  0.0876
14728SOL    HW150021  10.597  11.135   7.612  0.3202  0.1844  0.4629
14728SOL    HW250022  10.550  11.256   7.534 -0.4163 -0.1940  0.3094
14729SOL     OW50023   2.910   8.499  11.997 -0.1581 -0.5608 -0.1125
14729SOL    HW150024   2.931   8.568  11.934 -0.8669 -1.5132 -1.4354
14729SOL    HW250025   2.982   8.437  11.990 -0.0306 -0.4672  0.3288
14730SOL     OW50026   4.374   9.054  10.094 -0.3904 -0.0903  0.3717
14730SOL    HW150027   4.408   9.002  10.166  0.9177  0.3222  0.0919
14730SOL    HW250028   4.379   8.996  10.018  1.1098  0.3904  0.0508
14731SOL     OW50029  10.176   5.751   4.755  0.0819  1.4626  0.2431
14731SOL    HW150030  10.181   5.846   4.767 -1.5677  1.6870 -0.5170
14731SOL    HW250031  10.107   5.739   4.690  0.7650 -0.2343 -0.2165
14732SOL     OW50032   0.623  12.215  11.781 -0.4162  0.3243 -0.1432
14732SOL    HW150033   0.642  12.152  11.850  0.8674  0.0661 -0.7123
14732SOL    HW250034   0.690  12.200  11.715  0.1646  2.5490 -0.1280
14733SOL     OW50035   6.456  11.034   7.698 -0.2506  0.3418 -0.3877
14733SOL    HW150036   6.450  11.119   7.741  0.9165  0.6769 -0.8529
14733SOL    HW250037   6.415  10.973   7.759 -1.0723  1.2283 -0.0389
14734SOL     OW50038   5.118  11.723   8.917 -0.0408  0.7172  0.7638
14734SOL    HW150039   5.125  11.808   8.874 -0.3557  0.6391  0.5617
14734SOL    HW250040   5.104  11.661   8.846 -0.9293  0.6303  1.0042
14735SOL     OW50041   0.814   4.799   8.658  0.0706  0.5755 -0.2429
14735SOL    HW150042   0.784   4.712   8.633  0.0407  0.2822  0.7612
14735SOL    HW250043   0.794   4.854   8.583  0.1180 -0.2850 -0.9041
14736SOL     OW50044  11.700  10.042   0.224  0.1929 -0.2410 -0.4454
14736SOL    HW150045  11.644   9.965   0.224  1.0833 -1.0730  3.0334
14736SOL    HW250046  11.789  10.007   0.234  0.9404  1.1811 -1.6494
14737SOL     OW50047   1.427   5.473   5.214  0.5311 -0.2057 -0.2544
14737SOL    HW150048   1.513   5.498   5.246 -0.9093  1.3359  2.8683
14737SOL    HW250049   1.442   5.393   5.164  3.8116  0.3712 -0.3848
14738SOL     OW50050  11.592   0.789  11.249 -0.0867 -0.0028  0.0175
14738SOL    HW150051  11.617   0.878  11.225  0.7254 -0.6080 -1.4916
14738SOL    HW250052  11.499   0.783  11.226 -1.1301  1.4160  3.1975
14739SOL     OW50053  12.274   1.837   6.673  0.5848  0.4712 -0.0256
14739SOL    HW150054  12.292   1.911   6.616 -0.1837 -0.2042 -1.1956
14739SOL    HW250055  12.358   1.818   6.715  0.7846  2.0005  0.3211
14740SOL     OW50056  11.121  11.747   5.894 -0.6060  0.1506  0.1440
14740SOL    HW150057  11.085  11.823   5.848  0.0634  1.2793  1.3983
14740SOL    HW250058  11.204  11.729   5.850 -0.2658  0.8279  0.4989
14741SOL     OW50059   3.928   0.044   7.080 -0.4087 -0.0920 -1.0767
14741SOL    HW150060   3.908   0.074   7.168  0.3912  0.4769 -1.0833
14741SOL    HW250061   4.021   0.061   7.068 -0.6274  0.4344 -2.2532
14742SOL     OW50062   7.784  11.839   1.763 -0.0959  0.3006 -0.8817
14742SOL    HW150063   7.768  11.845   1.669 -0.1891 -0.9939 -0.9710
14742SOL    HW250064   7.733  11.763   1.792 -0.1592  0.7486  0.2372
14743SOL     OW50065   8.719   3.247   7.709 -0.1226  0.2050 -0.1273
14743SOL    HW150066   8.703   3.247   7.804  0.9572 -1.0103  0.0822
14743SOL    HW250067   8.641   3.207   7.672 -0.5170  0.6096  0.2477
14744SOL     OW50068   6.143   4.050   4.192  0.3166  0.1431  0.2160
14744SOL    HW150069   6.210   3.983   4.204  1.4539  1.4352  1.4174
14744SOL    HW250070   6.186   4.132   4.216 -1.8398  0.9654  1.5688
14745SOL     OW50071   8.752   0.166   5.372  0.3965 -0.1706  0.0041
14745SOL    HW150072   8.705   0.084   5.385  1.4759 -0.9004 -0.4988
14745SOL    HW250073   8.788   0.187   5.458  1.6499 -1.2390 -0.2151
14746SOL     OW50074   2.392   7.856   0.290  0.5040 -0.3735  0.2643
14746SOL    HW150075   2.355   7.808   0.364 -1.7133  1.3997  0.4139
14746SOL    HW250076   2.476   7.889   0.323 -0.5082  0.5252  2.1006
14747SOL     OW50077   5.994  10.469   0.829  0.0862  0.2143 -0.2533
14747SOL    HW150078   6.079  10.430   0.850 -0.0675  0.3979  0.7341
14747SOL    HW250079   6.015  10.557   0.798  0.2573  0.2391 -0.0655
14748SOL     OW50080   6.308   5.148   0.292  0.0467 -0.2207 -0.2604
14748SOL    HW150081   6.223   5.189   0.273  0.3138  0.9931  0.9561
14748SOL    HW250082   6.291   5.091   0.367  0.1485 -0.5717 -0.5040
14749SOL     OW50083   9.375  11.397   2.897  0.1157 -0.1049  0.6838
14749SOL    HW150084   9.321  11.475   2.912 -0.6723 -0.6114  0.5085
14749SOL    HW250085   9.431  11.392   2.974  0.3413  0.7711  0.5869
14750SOL     OW50086   7.933  11.525   1.218 -0.0720 -0.1449  0.0352
14750SOL    HW150087   7.852  11.476   1.231 -0.2486 -0.2121 -1.2627
14750SOL    HW250088   7.987  11.470   1.162  0.2287  0.6010 -0.4193
14751SOL     OW50089   3.510   5.608   8.104  0.0338  0.0064 -0.3109
14751SOL    HW150090   3.479   5.552   8.033  0.1629 -0.3406 -0.0947
14751SOL    HW250091   3.480   5.565   8.184  0.7141 -0.1145 -0.1148
14752SOL     OW50092   3.419   6.659  11.029 -1.0241  0.4398  0.0259
14752SOL    HW150093   3.328   6.689  11.027 -0.7974  1.2016  0.6635
14752SOL    HW250094   3.414   6.568  11.059 -1.5064  0.8126  1.1094
14753SOL     OW50095  11.348   8.436   3.626  0.1926  0.1500  0.1139
14753SOL    HW150096  11.354   8.343   3.604  1.2483 -0.3309  2.2478
14753SOL    HW250097  11.389   8.481   3.552  0.5356 -1.1360 -0.4994
14754SOL     OW50098   8.824   3.348  11.310  0.0202 -0.4587  0.3403
14754SOL    HW150099   8.882   3.271  11.313  1.5481  0.5620 -1.2952
14754SOL    HW250100   8.869   3.413  11.365 -2.4860 -1.3624  3.8419
14755SOL     OW50101   8.200   7.678   7.375 -0.5895 -0.0534 -0.1185
14755SOL    HW150102   8.216   7.609   7.440  0.5701  1.9157  1.8549
14755SOL    HW250103   8.280   7.679   7.322 -0.9646 -0.7591 -0.7121
14756SOL     OW50104  11.391   0.761   7.670  0.4004 -0.1458  0.1499
14756SOL    HW150105  11.454   0.743   7.600 -0.2934  2.1021 -1.1631
14756SOL    HW250106  11.354   0.675   7.691 -0.2589 -0.8279 -3.1500
14757SOL     OW50107   0.768  10.945   2.127  0.5647  0.8279 -0.1462
14757SOL    HW150108   0.790  10.866   2.077  2.2415  1.2448 -0.1386
14757SOL    HW250109   0.713  10.913   2.199 -1.4748  0.1432 -1.9236
14758SOL     OW50110  11.934   2.404   4.384 -0.4213  0.1706  0.3045
14758SOL    HW150111  11.877   2.447   4.448  0.1309  1.8703 -0.2693
14758SOL    HW250112  12.022   2.435   4.407 -0.1166  0.1109 -0.7223
14759SOL     OW50113   0.276   5.719   8.438  0.3486 -0.1934 -0.9498
14759SOL    HW150114   0.350   5.707   8.497  0.7515 -0.5104 -1.5001
14759SOL    HW250115   0.277   5.640   8.383 -0.8931 -0.5894 -0.4421
14760SOL     OW50116  12.331   2.396   9.776 -0.5465  0.5025  0.8213
14760SOL    HW150117  12.415   2.358   9.750 -0.9982  0.0015  0.0560
14760SOL    HW250118  12.266   2.344   9.730 -1.2527  1.2890  0.9080
14761SOL     OW50119   2.452  10.080   1.084 -0.1576  0.5346  0.5717
14761SOL    HW150120   2.505  10.155   1.058  0.7259 -0.2300  0.1078
14761SOL    HW250121   2.427  10.099   1.175 -0.8773  1.8869  0.1203
14762SOL     OW50122   9.125   5.286   3.697  0.0666  0.3469  0.1419
14762SOL    HW150123   9.208   5.270   3.652 -1.2353 -2.8406 -1.4846
14762SOL    HW250124   9.124   5.224   3.770 -1.0141  0.0653 -0.0844
14763SOL     OW50125   6.025   3.484  10.769  0.1695  0.2269  0.0610
14763SOL    HW150126   5.951   3.462  10.825  1.5583  1.3423  2.4929
14763SOL    HW250127   6.070   3.400  10.755 -0.3688 -0.1149  0.3497
14764SOL     OW50128   9.676   6.725   4.057  0.5201 -0.1914 -0.6463
14764SOL    HW150129   9.630   6.805   4.029 -0.9096 -1.0062 -0.6987
14764SOL    HW250130   9.705   6.685   3.975 -0.3843 -0.6572 -0.7497
14765SOL     OW50131   4.919  12.161   1.747  0.5791  0.0317 -0.6969
14765SOL    HW150132   4.846  12.204   1.701  1.6670  2.0633 -0.6346
14765SOL    HW250133   4.953  12.099   1.683 -1.1793 -0.9799 -0.7251
14766SOL     OW50134   7.568   2.396   2.094  0.1134 -0.5628  0.1530
14766SOL    HW150135   7.479   2.428   2.086  0.3388  0.1605  0.5417
14766SOL    HW250136   7.558   2.301   2.107 -0.6738 -0.2685  2.0116
14767SOL     OW50137   9.649   0.842   1.956  0.0057 -0.0653  0.0534
14767SOL    HW150138   9.581   0.835   2.024  0.1802  1.9424  0.4864
14767SOL    HW250139   9.619   0.913   1.900 -0.1741 -1.7268 -2.1119
14768SOL     OW50140   5.602   3.973   5.273 -0.1025  0.3247  0.3467
14768SOL    HW150141   5.693   3.973   5.302 -0.2666  2.0497  1.0044
14768SOL    HW250142   5.557   3.917   5.336  0.5678 -0.9753 -0.2998
14769SOL     OW50143   5.143   8.913  12.251 -0.2589  0.2252  0.1346
14769SOL    HW150144   5.228   8.954  12.232 -1.6382  2.7378 -1.1152
14769SOL    HW250145   5.107   8.893  12.165 -1.5560  0.5819  0.5759
14770SOL     OW50146  10.948   8.722   6.675  0.2140 -0.0946 -0.2289
14770SOL    HW150147  11.011   8.701   6.606  2.0831  0.9692  1.0478
14770SOL    HW250148  10.928   8.638   6.716 -0.4798 -0.6581 -1.6705
14771SOL     OW50149   7.401   1.974   5.325 -0.1770  0.0113 -0.2426
14771SOL    HW150150   7.486   1.952   5.288 -0.3768  1.0568 -1.3776
14771SOL    HW250151   7.380   1.901   5.384  0.0147 -1.8926 -2.4135
14772SOL     OW50152  10.192   5.818   6.705 -0.6191  0.5251 -0.1922
14772SOL    HW150153  10.137   5.804   6.782  0.3869  0.6000  0.5542
14772SOL    HW250154  10.242   5.737   6.695 -0.0602  0.8649 -0.1981
14773SOL     OW50155   5.708   4.843   8.495  0.0487 -0.2308  0.4161
14773SOL    HW150156   5.643   4.911   8.514  0.9590  0.4904  1.0950
14773SOL    HW250157   5.793   4.888   8.504  0.6487 -1.2003 -0.1964
14774SOL     OW50158   8.998   9.640  11.871  0.7239 -0.4025 -0.4034
14774SOL    HW150159   9.065   9.698  11.836  2.0850 -1.8574 -0.3342
14774SOL    HW250160   8.917   9.668  11.828  1.5640  0.6702 -1.3551
14775SOL     OW50161   4.700  11.822   0.129  0.1961 -0.0818  0.1933
14775SOL    HW150162   4.620  11.860   0.094  1.5268  1.7082 -1.1235
14775SOL    HW250163   4.739  11.893   0.180  2.1736  0.0443 -1.3508
14776SOL     OW50164  10.807  12.122  10.639  0.4395 -0.5964 -0.2008
14776SOL    HW150165  10.851  12.085  10.562  1.4985  2.2708 -1.0941
14776SOL    HW250166  10.877  12.160  10.691 -0.4178 -1.3251  1.5630
14777SOL     OW50167  10.155   2.965   8.053  0.2351 -0.0069 -0.0244
14777SOL    HW150168  10.147   2.990   8.145 -1.6643 -2.1669  0.5124
14777SOL    HW250169  10.101   3.028   8.005  0.8433  0.8334  0.3838
14778SOL     OW50170   8.344   6.045   5.000 -0.3534 -0.6511 -0.4004
14778SOL    HW150171   8.346   5.950   5.012  2.0371 -0.4925  1.0373
14778SOL    HW250172   8.330   6.056   4.906  0.8999 -2.4867 -0.8733
14779SOL     OW50173   4.709   9.292   6.599 -0.5302 -0.2280  0.5264
14779SOL    HW150174   4.766   9.255   6.532 -0.3272 -2.7593  1.9580
14779SOL    HW250175   4.765   9.301   6.676 -1.5426 -0.7359  1.3486
14780SOL     OW50176   2.564   4.483   7.740  0.1192  0.0649  0.1148
14780SOL    HW150177   2.631   4.494   7.807 -0.6292  1.1332  0.7186
14780SOL    HW250178   2.588   4.545   7.671 -0.5536  0.9126  0.6126
14781SOL     OW50179  12.256   7.523   3.485 -0.1941 -0.3922 -0.2733
14781SOL    HW150180  12.185   7.517   3.421  0.4176  1.0337 -1.1322
14781SOL    HW250181  12.260   7.615   3.509  1.5180 -0.3882 -0.4288
14782SOL     OW50182  10.839  10.526   3.681  0.2926  0.2441 -0.7341
14782SOL    HW150183  10.770  10.586   3.710  1.5987  0.7354  1.6452
14782SOL    HW250184  10.918  10.581   3.676  1.0441 -0.8167 -0.8067
14783SOL     OW50185   0.298   8.660   2.744 -1.0036  0.1576  0.2332
14783SOL    HW150186   0.356   8.586   2.728  0.7017  0.6610  3.3200
14783SOL    HW250187   0.211   8.627   2.725 -0.2744 -2.5903  1.2249
14784SOL     OW50188  10.466   4.382  11.437 -0.0921  0.4163 -0.3044
14784SOL    HW150189  10.412   4.446  11.392 -1.3310  0.3492  1.0268
14784SOL    HW250190  10.408   4.343  11.503  1.4648  0.0649  0.9200
14785SOL     OW50191  10.827  10.675   0.462 -0.0033 -0.1318  0.3284
14785SOL    HW150192  10.916  10.656   0.491  0.0942  0.6593  0.5648
14785SOL    HW250193  10.817  10.623   0.382  0.2414 -1.1658  0.9508
14786SOL     OW50194   6.425   9.538   9.846  0.4779  0.1290 -0.0053
14786SOL    HW150195   6.341   9.583   9.832  1.4756  2.7004  1.5721
14786SOL    HW250196   6.461   9.527   9.758 -1.3330 -0.7602 -0.6830
14787SOL     OW50197   2.094   1.739  10.010  0.2855 -0.0982  0.0312
14787SOL    HW150198   2.139   1.807   9.961  0.5109 -0.2003  0.0928
14787SOL    HW250199   2.134   1.657   9.980 -0.7654 -0.2960 -0.8815
14788SOL     OW50200   6.246   6.495   4.548  0.9317  0.2507 -0.2648
14788SOL    HW150201   6.327   6.482   4.499  0.9753  1.8555 -0.6717
14788SOL    HW250202   6.274   6.522   4.635  0.8369 -0.3520 -0.0446
14789SOL     OW50203   7.556   1.369   6.398  0.4911 -0.0503 -0.2836
14789SOL    HW150204   7.612   1.434   6.441 -0.1575  0.1176  0.3293
14789SOL    HW250205   7.479   1.363   6.455  0.2131 -0.8102 -0.7326
14790SOL     OW50206   9.066   4.694   3.580  0.3862  0.3489  0.3930
14790SOL    HW150207   9.147   4.664   3.537 -0.2368  0.0379 -0.6024
14790SOL    HW250208   9.096   4.733   3.662  1.5566  0.2872  0.0242
14791SOL     OW50209   4.624  10.839  11.014 -0.0832 -0.4267 -0.2637
14791SOL    HW150210   4.583  10.925  11.008 -2.8350 -1.4663  1.4702
14791SOL    HW250211   4.569  10.790  11.075  1.0358 -3.6209 -1.5576
14792SOL     OW50212   3.085   5.342  11.890 -0.3443  0.1044 -0.3885
14792SOL    HW150213   3.160   5.294  11.854  0.2765  0.1879  0.7422
14792SOL    HW250214   3.037   5.276  11.941  1.2901  0.8833  2.3583
14793SOL     OW50215   2.249  11.417   7.628 -0.0193 -0.4331  0.1238
14793SOL    HW150216   2.156  11.438   7.618 -0.3472 -1.3991  0.9391
14793SOL    HW250217   2.250  11.340   7.685  1.4259  1.9104  3.6312
14794SOL     OW50218   4.496   0.511   5.062  0.5137  0.2627 -0.5159
14794SOL    HW150219   4.482   0.600   5.095  0.4639 -0.0621  0.3632
14794SOL    HW250220   4.413   0.489   5.019 -0.1656 -0.0197  0.8544
14795SOL     OW50221   7.236   4.176   4.241 -0.3784 -0.5159 -0.1777
14795SOL    HW150222   7.254   4.229   4.162 -0.4069 -0.5581 -0.2125
14795SOL    HW250223   7.181   4.105   4.210 -0.0848 -0.7388 -0.1884
14796SOL     OW50224   0.304   7.584   5.261  0.4147  0.2196  0.2237
14796SOL    HW150225   0.359   7.647   5.307 -0.8351  1.7102 -0.2272
14796SOL    HW250226   0.300   7.508   5.319  2.3493  0.3415  0.5605
14797SOL     OW50227   3.648  11.127   7.482 -0.5574 -0.5196 -0.3667
14797SOL    HW150228   3.701  11.154   7.557 -0.9743 -0.9068  0.0731
14797SOL    HW250229   3.622  11.037   7.502 -0.3095 -0.7840 -1.1791
14798SOL     OW50230   1.617   5.264   6.690 -0.0605 -0.0350 -0.0850
14798SOL    HW150231   1.694   5.231   6.735 -0.3256 -1.8572 -0.8858
14798SOL    HW250232   1.602   5.201   6.619 -0.7555  1.6998 -1.5496
14799SOL     OW50233   3.047   5.240  11.594 -0.1949 -0.6297  0.2330
14799SOL    HW150234   3.039   5.149  11.620  1.2470 -0.9622 -0.3644
14799SOL    HW250235   3.011   5.243  11.506 -1.0160 -0.4360  0.5698
14800SOL     OW50236   1.216   1.471   3.652 -0.2061 -0.0505 -0.0380
14800SOL    HW150237   1.267   1.455   3.732 -0.5769 -1.0186  0.0159
14800SOL    HW250238   1.224   1.389   3.602  0.4117  0.7069 -1.2158
14801SOL     OW50239   3.400  11.782   3.448 -0.3956  0.4085 -0.2989
14801SOL    HW150240   3.399  11.820   3.536  0.8849  0.1185 -0.1366
14801SOL    HW250241   3.432  11.853   3.392 -1.0794  0.5511 -0.5187
14802SOL     OW50242   2.988   1.727  10.445 -0.5709 -0.2406 -0.1223
14802SOL    HW150243   3.033   1.811  10.457 -3.0375  1.1542 -0.0718
14802SOL    HW250244   3.050   1.675  10.394  1.2353  1.4213  0.2246
14803SOL     OW50245   1.904   9.611   7.904  0.8295  0.1377 -0.4564
14803SOL    HW150246   1.877   9.620   7.812 -0.2555  0.2902 -0.1349
14803SOL    HW250247   1.954   9.690   7.922  0.0124  0.6857 -0.5680
14804SOL     OW50248   5.632   8.696   4.523  0.7000 -0.2145  0.5581
14804SOL    HW150249   5.727   8.707   4.534  0.7447 -0.2785  0.2319
14804SOL    HW250250   5.594   8.748   4.594  0.9100  1.8910 -0.7763
14805SOL     OW50251   8.538   5.961   1.643  0.2702  0.0651 -0.5096
14805SOL    HW150252   8.464   6.021   1.652  1.1272  1.3906 -1.9590
14805SOL    HW250253   8.515   5.887   1.700 -1.1474  1.4138  0.7671
14806SOL     OW50254  11.796   8.588   6.657 -0.9924 -0.0019 -0.2324
14806SOL    HW150255  11.735   8.602   6.586  0.0756  2.3347 -0.7783
14806SOL    HW250256  11.810   8.675   6.695 -0.7186 -1.0077  2.1675
14807SOL     OW50257   6.871   5.289  11.759 -0.0473  0.3106  0.0902
14807SOL    HW150258   6.840   5.351  11.826 -0.6557  0.8504 -0.6655
14807SOL    HW250259   6.967   5.293  11.765 -0.0867 -0.2736  1.4752
14808SOL     OW50260   0.151   8.435   3.776  0.1365  0.1695  0.4679
14808SOL    HW150261   0.167   8.353   3.823  2.2211  0.7093  0.8240
14808SOL    HW250262   0.107   8.409   3.696 -0.7427 -1.1020  1.3270
14809SOL     OW50263   0.229   5.161   4.769  0.2532  0.1050  0.1025
14809SOL    HW150264   0.208   5.144   4.678  1.3403  1.8908 -0.5355
14809SOL    HW250265   0.157   5.216   4.801 -0.5307 -1.1627  0.5863
14810SOL     OW50266   4.530   2.574   3.677  0.3876 -0.1297 -0.1738
14810SOL    HW150267   4.464   2.528   3.625  0.7027  0.7409 -1.3908
14810SOL    HW250268   4.482   2.611   3.750 -0.1540 -0.9692 -0.0875
14811SOL     OW50269   3.623   8.619   5.927 -0.1877  0.3072 -0.0476
14811SOL    HW150270   3.555   8.666   5.878 -0.0785 -0.6426 -1.1782
14811SOL    HW250271   3.704   8.661   5.901 -0.1254 -0.2290 -0.7509
14812SOL     OW50272   2.289   6.254   4.680 -0.5408  0.0864  0.1335
14812SOL    HW150273   2.223   6.259   4.611 -0.6106  2.3537  0.2954
14812SOL    HW250274   2.368   6.292   4.640  0.3607 -1.5193  0.3136
14813SOL     OW50275   5.178   5.860   7.984  0.0518  0.1294  0.0423
14813SOL    HW150276   5.133   5.919   8.044 -0.4873 -0.0495 -0.1805
14813SOL    HW250277   5.247   5.913   7.945 -1.3397  1.0721 -1.2755
14814SOL     OW50278   4.479   3.125   0.983 -0.0598  0.5456  0.2120
14814SOL    HW150279   4.478   3.030   0.992  3.5490  0.3247 -0.1891
14814SOL    HW250280   4.447   3.157   1.067 -2.0483 -0.9440  0.1035
14815SOL     OW50281   6.797   0.425   0.748 -0.3379  0.3393 -0.0495
14815SOL    HW150282   6.880   0.467   0.726  0.4211 -0.6837  0.7544
14815SOL    HW250283   6.822   0.338   0.780 -1.6170  0.4662  1.4149
14816SOL     OW50284   7.443  11.901  12.006  0.0052  0.1356 -0.3132
14816SOL    HW150285   7.369  11.946  11.965 -0.6415  0.7284  1.3929
14816SOL    HW250286   7.514  11.966  12.006  0.5783 -0.4404 -1.9706
14817SOL     OW50287   3.947  10.846   4.121  0.5414 -0.4884 -0.7624
14817SOL    HW150288   3.893  10.888   4.054  0.2853 -0.4059 -0.5073
14817SOL    HW250289   3.962  10.758   4.087 -0.4835 -0.8054 -0.4429
14818SOL     OW50290  10.671   2.697   7.306  0.6160 -0.2040  0.1715
14818SOL    HW150291  10.760   2.700   7.271  0.7862  0.9148  0.6621
14818SOL    HW250292  10.671   2.760   7.378 -1.2089  1.6403 -1.3257
14819SOL     OW50293   5.304  11.571   9.623  0.1197 -0.2429 -0.1013
14819SOL    HW150294   5.313  11.476   9.619  0.6016 -0.2367  0.6665
14819SOL    HW250295   5.297  11.598   9.532 -0.9641 -1.0937 -0.2907
14820SOL     OW50296   6.469  10.634   9.744 -0.4266  0.3749 -0.4611
14820SOL    HW150297   6.528  10.559   9.745  0.6168  1.1694 -1.0770
14820SOL    HW250298   6.401  10.610   9.682 -1.3957 -0.9907  1.0361
14821SOL     OW50299  10.751   3.879   8.271 -0.0563  0.0706  0.4216
14821SOL    HW150300  10.698   3.808   8.307 -0.3331 -0.3076 -0.7256
14821SOL    HW250301  10.705   3.959   8.298  1.9321  0.0983  4.5668
14822SOL     OW50302   1.273   2.508   5.622 -0.4453  0.3481 -0.5203
14822SOL    HW150303   1.358   2.520   5.579  0.5811 -1.0273  0.9679
14822SOL    HW250304   1.265   2.583   5.681  0.0841  0.1529 -0.1850
14823SOL     OW50305   4.758   8.280   7.823  0.0863  0.1413 -0.2190
14823SOL    HW150306   4.743   8.189   7.852  2.4184 -1.0527 -2.3613
14823SOL    HW250307   4.721   8.283   7.736  0.1520  1.2182 -0.2138
14824SOL     OW50308   8.305   3.105  10.717 -0.1190  0.3317 -0.2435
14824SOL    HW150309   8.396   3.126  10.694  1.1302 -1.7269  2.2388
14824SOL    HW250310   8.277   3.178  10.773  1.0935 -0.3117  1.2939
14825SOL     OW50311   9.890   3.500   4.754 -0.3936 -0.4869  0.6037
14825SOL    HW150312   9.858   3.497   4.845  1.4260  1.6767  1.4210
14825SOL    HW250313   9.874   3.591   4.727  1.7603 -0.2905 -0.1671
14826SOL     OW50314   2.279   2.482   2.533  0.1016 -0.4693  0.5637
14826SOL    HW150315   2.317   2.484   2.621  2.4153  0.1315 -0.3705
14826SOL    HW250316   2.345   2.438   2.479 -0.9496 -0.2108 -1.0058
14827SOL     OW50317  11.933   1.029  12.261  0.6105 -0.3054  0.6131
14827SOL    HW150318  12.023   1.005  12.285  0.9393  0.1405 -0.1379
14827SOL    HW250319  11.919   0.988  12.176  0.2309 -0.0664  0.5601
14828SOL     OW50320   8.253  12.111  10.748  0.0133 -0.0588  0.3559
14828SOL    HW150321   8.203  12.156  10.680 -0.6503 -2.7411 -1.1043
14828SOL    HW250322   8.312  12.177  10.783  0.9950  1.3298 -3.4260
14829SOL     OW50323   3.336  10.513   6.288 -0.7613 -0.4785 -0.4748
14829SOL    HW150324   3.307  10.567   6.362 -0.3655  0.5446 -1.0386
14829SOL    HW250325   3.432  10.513   6.295 -0.7199 -0.3538 -0.9890
14830SOL     OW50326   7.109   5.023   7.109 -0.7681 -0.3292 -0.3204
14830SOL    HW150327   7.190   4.972   7.105 -0.0776  0.7630 -0.7110
14830SOL    HW250328   7.040   4.958   7.097  0.1127 -1.0685 -1.7497
14831SOL     OW50329   8.344  11.412   3.703  0.1853 -0.5120  0.1327
14831SOL    HW150330   8.425  11.363   3.691  1.2395  1.1921 -0.1559
14831SOL    HW250331   8.280  11.348   3.733  1.7146 -1.8496  0.6280
14832SOL     OW50332   3.476  11.705   9.094  0.8961  0.5903  0.5024
14832SOL    HW150333   3.539  11.641   9.128 -0.2449 -1.5097 -1.1222
14832SOL    HW250334   3.525  11.754   9.029  0.6776 -1.9945 -1.8233
14833SOL     OW50335  11.767  12.068   2.754 -0.5360  0.2300  0.3098
14833SOL    HW150336  11.749  12.158   2.725 -0.1593  0.4888  0.8493
14833SOL    HW250337  11.692  12.045   2.809 -0.7280  0.1412  0.0091
14834SOL     OW50338   0.048   6.081   7.196  0.3082 -0.3434 -0.0446
14834SOL    HW150339  -0.017   6.077   7.126  0.1724  0.2787  0.0340
14834SOL    HW250340   0.039   5.998   7.243 -1.5889  0.3651  0.9818
14835SOL     OW50341   4.701   7.483   0.931 -0.4829 -0.3535 -0.3483
14835SOL    HW150342   4.738   7.487   1.019  0.4892 -2.6479 -0.5819
14835SOL    HW250343   4.637   7.413   0.935 -0.4630 -0.4512 -1.4605
14836SOL     OW50344   1.545   5.044  11.486  0.2903  0.1119 -0.2404
14836SOL    HW150345   1.537   4.982  11.413 -0.3463  1.9988 -1.8496
14836SOL    HW250346   1.547   5.130  11.445  0.4619  1.2378  1.9638
14837SOL     OW50347   2.370   8.668   9.401 -0.6707 -0.1685  0.2777
14837SOL    HW150348   2.433   8.596   9.395  1.3486  1.5084  0.4037
14837SOL    HW250349   2.298   8.642   9.343  0.1418 -2.1206  0.0786
14838SOL     OW50350   5.881   3.568  11.450 -0.6068  0.0558  0.6404
14838SOL    HW150351   5.833   3.563  11.532  0.6982  1.9586  1.6205
14838SOL    HW250352   5.931   3.486  11.446 -1.0987 -0.2955  1.4712
14839SOL     OW50353   7.857   8.807   9.959  0.3584 -0.3591  0.7277
14839SOL    HW150354   7.935   8.862   9.955 -0.9906  1.7872  1.8793
14839SOL    HW250355   7.872   8.749  10.034  1.1709 -0.5244  0.4419
14840SOL     OW50356  11.156   0.636   3.917  0.4833 -0.4213 -0.1363
14840SOL    HW150357  11.147   0.727   3.888  1.5136 -0.2837 -0.0794
14840SOL    HW250358  11.071   0.596   3.900  0.5372  0.1005 -1.7792
14841SOL     OW50359   3.073  12.315   4.811 -0.0656 -0.4690  0.3971
14841SOL    HW150360   3.118  12.350   4.735 -2.3882 -0.0078 -0.8536
14841SOL    HW250361   3.139  12.317   4.881  1.7945  0.1501 -1.2835
14842SOL     OW50362   3.706   6.093   1.842 -0.1299  0.1006 -0.3351
14842SOL    HW150363   3.743   6.159   1.783  1.6195  0.7544  1.3747
14842SOL    HW250364   3.738   6.010   1.808  1.3077  0.5099 -0.0469
14843SOL     OW50365   1.347  12.244   6.989 -0.0459  0.0561  0.5779
14843SOL    HW150366   1.359  12.189   6.912 -0.7186 -0.7018  1.0097
14843SOL    HW250367   1.355  12.334   6.955  2.0312 -0.2792  0.0228
14844SOL     OW50368   4.278   6.436   4.576  0.0780  0.3995 -0.0865
14844SOL    HW150369   4.352   6.470   4.626  0.6716  0.1299 -0.7676
14844SOL    HW250370   4.304   6.347   4.552 -1.0512 -0.2071  0.8475
14845SOL     OW50371   4.970   9.520   9.270 -0.3723 -0.5791  0.4714
14845SOL    HW150372   5.045   9.579   9.277  0.4266 -1.3997 -0.6907
14845SOL    HW250373   4.919   9.536   9.349  0.5326  0.6789  0.8322
14846SOL     OW50374  12.319   7.299   7.116  0.1285 -0.6040 -0.2725
14846SOL    HW150375  12.273   7.215   7.117 -0.0537 -0.5189  1.3319
14846SOL    HW250376  12.411   7.276   7.129 -0.1384 -0.5268  2.5172
14847SOL     OW50377   6.126   1.429  10.883  0.2036 -0.1961  0.5505
14847SOL    HW150378   6.216   1.462  10.883 -0.3555  1.4858  2.3025
14847SOL    HW250379   6.136   1.334  10.875  2.2319 -0.1866  2.1921
14848SOL     OW50380   3.798   6.951  10.421 -0.2252  0.4450  0.4930
14848SOL    HW150381   3.880   6.979  10.462  0.1581  0.5956 -0.3410
14848SOL    HW250382   3.744   6.922  10.493  0.9573 -0.6600  0.9705
14849SOL     OW50383   6.536   9.637   4.394 -0.1568 -0.5197  0.5852
14849SOL    HW150384   6.466   9.598   4.447 -0.3489 -1.7973 -0.5786
14849SOL    HW250385   6.526   9.598   4.308  1.1842  0.2963  0.0314
14850SOL     OW50386  10.313   6.571   4.723  0.1815  0.1248  0.0534
14850SOL    HW150387  10.242   6.636   4.718  1.1906  1.3855  1.3278
14850SOL    HW250388  10.379   6.604   4.662  1.1945  1.0011  1.5524
14851SOL     OW50389  10.548   9.997   5.376  0.0403  0.0597  0.5825
14851SOL    HW150390  10.565  10.009   5.470 -0.3313  0.7290  0.5691
14851SOL    HW250391  10.460   9.958   5.373  0.9860 -2.2484  0.5992
14852SOL     OW50392   9.671   1.629  11.258  0.5062 -0.2155 -0.0045
14852SOL    HW150393   9.695   1.586  11.176  0.9134  1.4504 -0.7919
14852SOL    HW250394   9.600   1.575  11.294  1.2269 -1.7334 -0.7454
14853SOL     OW50395   9.985   9.260   0.282  0.1646  0.1008 -0.0766
14853SOL    HW150396   9.973   9.316   0.358  1.6661 -0.8968  0.9296
14853SOL    HW250397  10.025   9.181   0.316  0.0855 -0.7212 -1.7949
14854SOL     OW50398   0.835   2.467  10.325 -0.1218  0.2851 -0.3597
14854SOL    HW150399   0.869   2.553  10.297  1.4956 -0.0725  0.3823
14854SOL    HW250400   0.812   2.480  10.417  1.0499 -0.2876  0.0415
14855SOL     OW50401   3.944   0.601   3.508 -0.5127  0.2955 -0.5678
14855SOL    HW150402   3.946   0.662   3.582 -2.2892  1.1996 -1.1814
14855SOL    HW250403   4.011   0.634   3.448  1.0905 -0.5694  0.6754
14856SOL     OW50404   5.545   7.371   9.840 -0.4166  0.1048 -0.1137
14856SOL    HW150405   5.472   7.327   9.796  1.3348 -0.1467 -2.9460
14856SOL    HW250406   5.593   7.300   9.883  0.9899 -0.5357 -2.5847
14857SOL     OW50407   6.970   3.126   6.488  0.4947  0.1297  0.3681
14857SOL    HW150408   6.903   3.077   6.535  0.6521 -0.3343  0.1181
14857SOL    HW250409   6.922   3.188   6.434  0.2762 -0.1078  0.2922
14858SOL     OW50410   2.306   7.072   2.809  0.1313 -0.7201 -0.4102
14858SOL    HW150411   2.337   6.981   2.815  0.2823 -0.5778  2.3880
14858SOL    HW250412   2.341   7.104   2.726 -0.4158 -3.3520 -1.7703
14859SOL     OW50413   2.676   4.668   4.403  0.2331 -0.1156 -0.2380
14859SOL    HW150414   2.656   4.575   4.417  0.2053  0.2898  3.1609
14859SOL    HW250415   2.598   4.714   4.435  1.0298  1.1263 -0.0157
14860SOL     OW50416   6.350   3.316   0.004  0.1411  0.5298 -0.1381
14860SOL    HW150417   6.370   3.222   0.001  3.1941  1.0903 -0.5500
14860SOL    HW250418   6.256   3.321  -0.014  0.0119 -2.4030 -0.7899
14861SOL     OW50419   5.023   1.453   2.106 -0.1937  0.3872 -0.3690
14861SOL    HW150420   4.942   1.434   2.059 -0.5549  3.5929 -1.2388
14861SOL    HW250421   5.091   1.456   2.039 -0.2004  2.1448 -0.3354
14862SOL     OW50422   6.168   5.871   7.602 -0.6278 -0.1100 -0.0612
14862SOL    HW150423   6.085   5.825   7.607 -1.3259  0.9131 -1.7145
14862SOL    HW250424   6.152   5.954   7.647 -0.1255 -0.4000  0.6732
14863SOL     OW50425   6.565   8.805   6.269 -1.1512 -0.3233 -0.6096
14863SOL    HW150426   6.472   8.797   6.248 -1.2458  1.4980 -1.0641
14863SOL    HW250427   6.569   8.876   6.333 -0.1183 -0.7789 -0.1490
14864SOL     OW50428   6.812  11.946   2.557 -0.2738 -0.5447 -0.4414
14864SOL    HW150429   6.868  12.016   2.590 -2.3738  1.2483 -0.4684
14864SOL    HW250430   6.872  11.886   2.513  1.6360  1.1842 -0.3385
14865SOL     OW50431   9.729   1.317   8.824  0.0282 -0.1590 -0.1065
14865SOL    HW150432   9.684   1.355   8.748  0.3184 -0.5846 -0.4954
14865SOL    HW250433   9.708   1.376   8.896 -0.8844 -0.1640 -0.3522
14866SOL     OW50434   4.434  11.662   9.847  0.3174 -0.1106  0.0525
14866SOL    HW150435   4.369  11.733   9.847 -0.2624 -0.6258 -0.1010
14866SOL    HW250436   4.388  11.589   9.889  0.4672 -0.7741 -0.9090
14867SOL     OW50437   0.489   5.063   3.446 -0.4162 -0.3447 -0.2454
14867SOL    HW150438   0.505   5.036   3.536 -0.8791 -1.5209 -0.5066
14867SOL    HW250439   0.569   5.110   3.421 -1.2979  2.3890  1.6242
14868SOL     OW50440   2.326   5.213  10.325  0.1166  0.5970 -0.7572
14868SOL    HW150441   2.380   5.252  10.256  0.0436 -0.0150 -1.1655
14868SOL    HW250442   2.256   5.277  10.339  1.2979  1.7205  0.2554
14869SOL     OW50443   9.540   1.387  10.212 -0.4019 -0.3184 -0.4057
14869SOL    HW150444   9.502   1.443  10.280 -2.7444 -0.5988 -1.3837
14869SOL    HW250445   9.615   1.437  10.179 -0.0515  0.4296  1.3925
14870SOL     OW50446   4.413   8.125   2.490  0.0191 -0.1706  0.2972
14870SOL    HW150447   4.441   8.214   2.467 -2.3301  0.5050 -0.1643
14870SOL    HW250448   4.418   8.076   2.407 -2.8691  0.7553 -0.5487
14871SOL     OW50449   0.564   3.893   4.032 -0.1354  0.5836  0.1483
14871SOL    HW150450   0.549   3.799   4.032  1.4659  0.3011 -0.0352
14871SOL    HW250451   0.511   3.926   3.959  1.8279 -0.6663 -1.9785
14872SOL     OW50452   2.335   5.737  12.067  0.5731  0.0849  1.2687
14872SOL    HW150453   2.309   5.645  12.064 -4.1741  1.1672 -1.7213
14872SOL    HW250454   2.278   5.775  12.134  1.2488  1.1889  1.2396
14873SOL     OW50455   0.926  10.129   7.450 -0.6241  0.3961 -0.3320
14873SOL    HW150456   0.991  10.146   7.382 -1.2237 -0.7051 -1.2181
14873SOL    HW250457   0.976  10.124   7.531  0.0857  1.9525 -0.6318
14874SOL     OW50458   3.339   4.009  12.210 -0.4439 -0.2097 -0.4402
14874SOL    HW150459   3.392   3.965  12.276 -0.7294  0.9436  0.5851
14874SOL    HW250460   3.299   3.937  12.160  1.4617 -1.0912 -0.7696
14875SOL     OW50461   1.539   1.981   2.963 -0.1903  0.2756  0.6024
14875SOL    HW150462   1.533   1.888   2.986  1.3993  0.2800  1.2100
14875SOL    HW250463   1.464   1.997   2.907  0.8854 -2.0192 -1.6841
14876SOL     OW50464   5.112   6.522   0.945 -0.8254 -0.4576  0.4028
14876SOL    HW150465   5.125   6.487   0.857  0.9074 -2.1146  1.2294
14876SOL    HW250466   5.188   6.578   0.960 -0.8994 -0.5005  0.9537
14877SOL     OW50467   6.882   5.069   8.033 -0.3085  0.2584 -0.3041
14877SOL    HW150468   6.894   5.043   7.942 -1.2740 -1.2801 -0.0325
14877SOL    HW250469   6.790   5.095   8.039 -0.4016 -0.1928  0.3481
14878SOL     OW50470  10.173   2.179   5.337  0.2380  0.1641 -0.5133
14878SOL    HW150471  10.144   2.089   5.321  2.2963 -1.0309  1.8486
14878SOL    HW250472  10.094   2.225   5.368 -0.3014 -1.5987  0.8833
14879SOL     OW50473  11.781   4.851  10.188  0.0633  0.0321 -0.0634
14879SOL    HW150474  11.798   4.757  10.179  1.1525  0.3744 -2.4142
14879SOL    HW250475  11.686   4.859  10.182  0.0680 -0.7983 -1.9186
14880SOL     OW50476   3.006   1.136   5.649 -0.3510  0.0579 -0.4104
14880SOL    HW150477   3.099   1.160   5.650 -0.5009  0.7072  0.6506
14880SOL    HW250478   2.982   1.135   5.742 -1.4959  0.2844 -0.6946
14881SOL     OW50479   0.291  11.158   0.311  0.4040  0.1629 -0.2858
14881SOL    HW150480   0.214  11.212   0.330  0.5880  0.5357 -0.5754
14881SOL    HW250481   0.255  11.073   0.287 -0.0054  0.7481 -1.8658
14882SOL     OW50482   1.444  11.663   5.591 -0.0638 -0.3407  0.1618
14882SOL    HW150483   1.380  11.640   5.523 -0.0578  2.0026 -0.7207
14882SOL    HW250484   1.431  11.597   5.659 -1.7978 -1.3148 -1.0258
14883SOL     OW50485  10.379   2.442   0.021 -0.3252 -0.0070 -0.1993
14883SOL    HW150486  10.354   2.368   0.076  0.2872 -1.0206 -1.2452
14883SOL    HW250487  10.417   2.505   0.081 -1.5295 -0.2097  0.8188
14884SOL     OW50488   8.236  11.179   9.553  0.2301  0.3480  0.6664
14884SOL    HW150489   8.234  11.094   9.509 -0.9126  0.8007 -0.2104
14884SOL    HW250490   8.263  11.159   9.643 -0.4348 -0.9960  0.5911
14885SOL     OW50491   1.905   7.127   4.993 -0.4452 -0.2854 -0.3526
14885SOL    HW150492   1.831   7.131   5.054  0.2979  1.8933  0.5118
14885SOL    HW250493   1.963   7.061   5.030 -0.8267 -0.2449  0.3381
14886SOL     OW50494   1.652  12.135   5.967 -0.3435 -0.8480  0.1900
14886SOL    HW150495   1.598  12.087   5.904  0.2902 -1.9871  0.4942
14886SOL    HW250496   1.597  12.208   5.995 -1.0640 -0.9861 -0.8139
14887SOL     OW50497   3.158  10.182   7.852  0.3260  0.3157  0.3433
14887SOL    HW150498   3.136  10.089   7.862 -0.2292  0.2695 -1.0543
14887SOL    HW250499   3.113  10.209   7.772  1.6281  1.4386 -0.0542
14888SOL     OW50500   0.482   4.928  11.455 -0.1663 -0.4661  0.4422
14888SOL    HW150501   0.547   4.995  11.477 -0.4222  0.3767 -1.2448
14888SOL    HW250502   0.533   4.847  11.449  0.8059  0.2233 -1.0993
14889SOL     OW50503  10.858   9.755   0.086 -0.2528  0.7627 -0.2121
14889SOL    HW150504  10.951   9.741   0.106 -0.5460 -0.1774  0.5566
14889SOL    HW250505  10.853   9.746  -0.009  0.0367 -1.9996 -0.0477
14890SOL     OW50506   9.790   5.072   7.780  0.3467  0.1555 -0.1547
14890SOL    HW150507   9.858   5.132   7.811  0.4952  0.4542 -1.0255
14890SOL    HW250508   9.774   5.014   7.854  1.4806  0.1396  0.1002
14891SOL     OW50509   4.838   1.552   6.135  0.3221  0.7101  0.3270
14891SOL    HW150510   4.785   1.618   6.090 -0.2467 -1.1323 -1.8890
14891SOL    HW250511   4.907   1.531   6.073  0.8532 -0.3640  1.2538
14892SOL     OW50512   3.995   5.680   3.454 -0.5985 -0.3546 -0.0861
14892SOL    HW150513   3.905   5.702   3.432 -0.3763 -0.3792 -1.0698
14892SOL    HW250514   4.048   5.740   3.400 -0.0261  0.5737  1.4314
14893SOL     OW50515   9.691   1.535  11.002 -0.2753  0.7845 -0.4225
14893SOL    HW150516   9.599   1.550  10.982 -0.1453 -0.5714 -2.3227
14893SOL    HW250517   9.739   1.583  10.934  0.4177  1.0717  0.2532
14894SOL     OW50518   0.167   3.819   7.994 -0.2058  0.0022  0.4835
14894SOL    HW150519   0.191   3.836   8.085 -0.2740 -1.1918  0.7327
14894SOL    HW250520   0.197   3.730   7.977 -0.0213  0.2799 -0.7269
14895SOL     OW50521  11.621   5.744  11.613 -0.0698  0.1748  0.1067
14895SOL    HW150522  11.597   5.653  11.599 -0.3101  0.3977 -1.0832
14895SOL    HW250523  11.594   5.763  11.703  0.0815 -0.9461  0.3962
14896SOL     OW50524   6.146   5.426   6.525 -0.9043  0.7118  0.1691
14896SOL    HW150525   6.071   5.371   6.549 -1.0881  0.3404 -1.1749
14896SOL    HW250526   6.220   5.386   6.571 -1.3586  0.4992  0.7374
14897SOL     OW50527   1.528   9.687   5.689 -0.0824  0.8488 -0.0006
14897SOL    HW150528   1.599   9.750   5.678 -0.4828  1.2634 -0.2140
14897SOL    HW250529   1.536   9.658   5.780  1.2972 -0.2562 -0.4366
14898SOL     OW50530   7.469   2.315   7.035  0.2203  0.2911  0.4538
14898SOL    HW150531   7.462   2.337   7.127  2.8678  2.0288  0.3605
14898SOL    HW250532   7.502   2.225   7.033 -2.5039 -0.8132  1.0450
14899SOL     OW50533   5.693   0.959   9.805 -0.5798  0.9054 -0.3041
14899SOL    HW150534   5.668   1.038   9.756 -1.1344  0.2604 -1.0996
14899SOL    HW250535   5.619   0.899   9.791 -0.3027  0.3626  0.5488
14900SOL     OW50536   3.749   2.758   2.931 -0.0286 -0.6099 -0.0424
14900SOL    HW150537   3.811   2.792   2.866  2.4299 -2.5453  1.1040
14900SOL    HW250538   3.736   2.831   2.992 -0.7389  0.5559 -1.5205
14901SOL     OW50539   8.595   2.238   6.852  0.6646  0.0510 -0.6018
14901SOL    HW150540   8.607   2.244   6.757  1.0792 -0.8730 -0.6217
14901SOL    HW250541   8.536   2.310   6.873  0.6469  0.3322 -1.5451
14902SOL     OW50542   8.098   3.656   2.941  0.5546  0.1287  0.1283
14902SOL    HW150543   8.002   3.655   2.941  0.4720  2.2136 -0.8840
14902SOL    HW250544   8.121   3.748   2.948  2.4234 -0.0597 -2.3024
14903SOL     OW50545   7.214   3.604   0.788 -0.2283  0.6867 -0.1465
14903SOL    HW150546   7.147   3.669   0.764 -0.9344 -0.0285 -0.1518
14903SOL    HW250547   7.166   3.522   0.795  0.5809  0.2440  0.3139
14904SOL     OW50548   3.965  11.277  10.845 -0.1159  0.3558  0.2686
14904SOL    HW150549   3.988  11.189  10.815  2.5364  0.7057  1.0337
14904SOL    HW250550   3.931  11.322  10.767 -0.6765 -1.0387 -0.3231
14905SOL     OW50551   7.100  11.125   1.310  0.4411  0.4299  0.2882
14905SOL    HW150552   7.148  11.113   1.392 -0.4199 -0.5563  0.6833
14905SOL    HW250553   7.156  11.084   1.243  1.0183  0.9907  0.4218
14906SOL     OW50554  11.163  10.217   9.863  0.2238  0.2762 -0.0405
14906SOL    HW150555  11.161  10.189   9.772  1.7765  3.0621 -1.0772
14906SOL    HW250556  11.084  10.270   9.874 -0.3211 -0.6203  0.4815
14907SOL     OW50557   6.233   3.709   8.869 -0.9599  0.0405  0.0912
14907SOL    HW150558   6.318   3.742   8.898 -0.5832  0.3748 -1.2996
14907SOL    HW250559   6.242   3.614   8.870 -0.8845  0.0528  0.8397
14908SOL     OW50560   7.163   9.362   5.605  0.2364 -0.0466 -0.4787
14908SOL    HW150561   7.108   9.285   5.620  2.0686 -1.4479 -0.5856
14908SOL    HW250562   7.191   9.390   5.692 -1.5480  1.4246 -0.3252
14909SOL     OW50563   3.754   1.403  12.058 -0.0311  0.2357 -0.1376
14909SOL    HW150564   3.750   1.335  11.990  0.6305 -0.7240  0.7440
14909SOL    HW250565   3.686   1.377  12.121 -1.9738  2.1732 -1.3217
14910SOL     OW50566   0.898   1.336   0.187 -0.2727 -0.2500 -0.2792
14910SOL    HW150567   0.929   1.426   0.189 -0.0565 -0.3110 -0.7487
14910SOL    HW250568   0.976   1.283   0.202 -0.1452 -0.4014 -1.4012
14911SOL     OW50569   4.464   1.163   7.480  0.0635 -0.4274 -0.1197
14911SOL    HW150570   4.411   1.142   7.556  1.7630  0.9072  1.5370
14911SOL    HW250571   4.554   1.155   7.510  0.8592 -1.8881 -2.6176
14912SOL     OW50572   4.228   7.621   8.878  0.0147 -0.6313 -0.0737
14912SOL    HW150573   4.148   7.593   8.922 -1.0707 -0.8938 -2.0940
14912SOL    HW250574   4.202   7.696   8.825  2.1057  2.1433  2.4678
14913SOL     OW50575   9.209   3.278  12.124  0.5548 -0.0139  0.5463
14913SOL    HW150576   9.221   3.229  12.205  2.7054  0.1115  0.3622
14913SOL    HW250577   9.118   3.261  12.098  0.0721 -0.6747  2.5498
14914SOL     OW50578   3.926  11.167   0.675  0.1341  0.0357 -0.0030
14914SOL    HW150579   3.872  11.184   0.598  0.3392 -0.5218 -0.2765
14914SOL    HW250580   4.014  11.154   0.640  0.5533  1.3911  0.4812
14915SOL     OW50581  11.640   4.756   2.257  0.1306  0.4040 -0.0732
14915SOL    HW150582  11.705   4.749   2.328 -1.0318 -3.6620  0.8399
14915SOL    HW250583  11.687   4.728   2.179  0.4983  1.5395 -0.2804
14916SOL     OW50584   2.473   3.640   2.460 -0.1240  0.0399  0.4034
14916SOL    HW150585   2.555   3.685   2.478  0.4112 -0.7458 -0.0001
14916SOL    HW250586   2.477   3.618   2.367 -0.5824 -0.4043  0.4830
14917SOL     OW50587   0.921   0.973   5.767 -0.0335  0.6049 -0.0108
14917SOL    HW150588   0.887   0.891   5.802 -0.9010  1.2900  0.7849
14917SOL    HW250589   0.933   0.956   5.674 -0.3233 -0.3767  0.1187
14918SOL     OW50590   3.175   3.428   7.300 -0.4512 -0.3328 -0.2832
14918SOL    HW150591   3.200   3.498   7.239  0.4220 -1.0616 -0.7904
14918SOL    HW250592   3.084   3.409   7.280 -0.6320  0.5022 -0.2933
14919SOL     OW50593   9.822   7.139   6.767  0.2037 -0.2206  0.0688
14919SOL    HW150594   9.889   7.173   6.708  0.5655 -3.4486 -1.6310
14919SOL    HW250595   9.741   7.141   6.716  0.3611 -2.2953 -0.3649
14920SOL     OW50596   4.838   9.809   8.432 -0.1824 -0.2648 -0.1728
14920SOL    HW150597   4.747   9.797   8.405  0.5357 -2.4614 -1.9293
14920SOL    HW250598   4.851   9.745   8.502  0.0666 -0.0982 -0.0653
14921SOL     OW50599  10.544   2.922   3.990  0.0819 -0.8155 -0.0632
14921SOL    HW150600  10.480   2.992   3.975 -0.1966 -1.1748 -0.5820
14921SOL    HW250601  10.619   2.966   4.030  0.3243 -0.0417 -1.3099
14922SOL     OW50602   0.738  11.414  11.725  0.1071  0.3156  0.0033
14922SOL    HW150603   0.787  11.368  11.793  0.6099  1.2182  0.2771
14922SOL    HW250604   0.779  11.501  11.722 -0.6112  0.6334 -0.7054
14923SOL     OW50605   1.478   6.918   7.708 -0.4003 -0.3892  0.1782
14923SOL    HW150606   1.414   6.927   7.778  0.7461  1.8360  1.0523
14923SOL    HW250607   1.484   7.005   7.669  1.0109 -0.8952 -0.8392
14924SOL     OW50608   9.910  10.185   2.131 -0.0977  0.1956  0.0071
14924SOL    HW150609   9.865  10.256   2.084 -2.1424 -1.4623 -0.6757
14924SOL    HW250610   9.861  10.177   2.213  0.2141 -0.3434  0.1416
14925SOL     OW50611   9.302   5.673   4.284 -0.0346  0.2812 -0.1414
14925SOL    HW150612   9.233   5.648   4.222 -0.8186  1.3840  0.2439
14925SOL    HW250613   9.338   5.755   4.249 -2.5882  2.6999  2.2825
14926SOL     OW50614   2.232   2.288   3.108  0.2079 -0.0399  0.1912
14926SOL    HW150615   2.195   2.338   3.182  2.0282  2.3200 -0.3509
14926SOL    HW250616   2.213   2.342   3.031  1.9568 -0.3222 -0.4851
14927SOL     OW50617  11.725   9.746   8.860 -0.1592  0.2223  0.2351
14927SOL    HW150618  11.799   9.699   8.823 -0.4133  1.0041 -1.3421
14927SOL    HW250619  11.733   9.835   8.826 -0.9765  0.7264  1.2895
14928SOL     OW50620   7.675   1.990   0.835  0.3895 -0.2865  0.0612
14928SOL    HW150621   7.719   2.074   0.823 -0.3423  0.3844  1.8240
14928SOL    HW250622   7.724   1.930   0.779  1.7995  1.0026 -0.1697
14929SOL     OW50623   8.674   0.886   9.859  0.1897 -0.1726 -0.5180
14929SOL    HW150624   8.662   0.846   9.945  2.1288 -1.0618 -0.6033
14929SOL    HW250625   8.707   0.974   9.879  1.0099 -0.5130 -0.3349
14930SOL     OW50626   4.246   6.572   1.579 -0.5086  0.4307  0.2230
14930SOL    HW150627   4.271   6.620   1.500 -3.3909 -1.1308 -1.8195
14930SOL    HW250628   4.189   6.632   1.627 -0.6808  0.5767 -0.1587
14931SOL     OW50629   9.522  10.055   6.239  0.2754 -0.1099 -0.8080
14931SOL    HW150630   9.616  10.068   6.223  0.2237  0.1326 -0.9081
14931SOL    HW250631   9.486  10.030   6.154  0.0972  0.6584 -0.9638
14932SOL     OW50632   6.814   4.309   5.851  0.1682  0.5622  0.4828
14932SOL    HW150633   6.739   4.301   5.910 -1.2209  1.5127 -1.0658
14932SOL    HW250634   6.835   4.219   5.826 -0.9660  0.3278  0.3404
14933SOL     OW50635   0.389   0.654  10.906 -0.0377 -0.1904 -0.4614
14933SOL    HW150636   0.457   0.721  10.914 -0.9168  0.5904  0.8118
14933SOL    HW250637   0.309   0.704  10.892 -0.5788 -1.0178 -0.3253
14934SOL     OW50638   0.246   9.373   5.670 -0.1304 -0.0911  0.0434
14934SOL    HW150639   0.240   9.377   5.766  0.9955  0.9098  0.0957
14934SOL    HW250640   0.155   9.380   5.641 -0.5038 -0.5226  1.0356
14935SOL     OW50641   8.220  11.228  10.256 -0.1253 -0.1430  0.1270
14935SOL    HW150642   8.209  11.319  10.229 -0.9166 -0.4269 -0.5259
14935SOL    HW250643   8.293  11.230  10.318  2.7820  0.3744 -2.9806
14936SOL     OW50644   7.801  10.797   1.761 -0.6828  0.1474 -0.1326
14936SOL    HW150645   7.816  10.734   1.831 -1.3405  0.4074  0.2534
14936SOL    HW250646   7.815  10.882   1.802 -0.4967  0.2800 -0.4664
14937SOL     OW50647   6.594   8.418   1.738 -0.1637 -0.6473 -0.4325
14937SOL    HW150648   6.645   8.483   1.788 -1.8697 -0.8166  1.6775
14937SOL    HW250649   6.620   8.433   1.647  1.5137  1.1512  0.2522
14938SOL     OW50650   1.749   8.104   7.421  0.1351 -0.6288  0.0032
14938SOL    HW150651   1.758   8.121   7.514  1.2253 -0.4404 -0.1180
14938SOL    HW250652   1.801   8.173   7.378 -0.5289 -0.5806 -0.7481
14939SOL     OW50653   3.534   7.098   6.579  0.1192  0.2403 -0.1512
14939SOL    HW150654   3.573   7.076   6.495 -0.7008  1.3131 -0.8201
14939SOL    HW250655   3.474   7.026   6.597  0.4026 -0.0616 -0.3997
14940SOL     OW50656   7.078   3.668  11.520 -0.4685  0.6676  0.0274
14940SOL    HW150657   7.169   3.641  11.508 -0.0258  2.1680 -0.2505
14940SOL    HW250658   7.055   3.638  11.608 -0.6252 -2.0762 -0.8338
14941SOL     OW50659   2.721   8.317  11.034 -0.2986 -0.6508  0.2283
14941SOL    HW150660   2.726   8.242  11.092 -0.3361 -1.4402 -0.7601
14941SOL    HW250661   2.724   8.393  11.092  2.0520 -1.3490  1.1388
14942SOL     OW50662   9.199   0.516   2.633  0.1265  0.8933 -0.4289
14942SOL    HW150663   9.164   0.555   2.713 -0.2200 -0.3814  0.0634
14942SOL    HW250664   9.226   0.428   2.659  0.7173  0.7322 -1.5458
14943SOL     OW50665   0.930  10.595   7.574  0.2403  0.7026  0.6855
14943SOL    HW150666   0.862  10.575   7.638 -0.1775 -1.2892 -0.2910
14943SOL    HW250667   0.903  10.547   7.495  2.0603  1.0000 -0.1735
14944SOL     OW50668   8.138   7.896   3.764  0.9980 -0.3953  0.4460
14944SOL    HW150669   8.137   7.895   3.668 -0.6708  0.4480  0.4204
14944SOL    HW250670   8.204   7.961   3.787  1.6146 -0.8076 -0.1093
14945SOL     OW50671   1.776   1.474   7.269 -0.4514 -0.3276 -0.4864
14945SOL    HW150672   1.689   1.454   7.303  0.1275 -0.1028  1.1997
14945SOL    HW250673   1.831   1.484   7.347  0.5544  2.0340 -1.4060
14946SOL     OW50674   7.729   1.956   7.105  0.2676  0.3264  0.3861
14946SOL    HW150675   7.756   1.874   7.065 -0.8565  0.1061  0.0484
14946SOL    HW250676   7.674   1.931   7.179  0.1023  0.7695  0.4210
14947SOL     OW50677   6.880   9.186   2.200 -0.2442 -0.4496  0.2164
14947SOL    HW150678   6.975   9.178   2.197 -0.1503  0.7716 -1.2954
14947SOL    HW250679   6.847   9.099   2.180  0.6103 -0.2974 -2.1247
14948SOL     OW50680   7.661   1.110   0.771  0.1416 -0.2171 -0.3779
14948SOL    HW150681   7.631   1.201   0.766 -1.4567 -0.6673  0.4016
14948SOL    HW250682   7.599   1.067   0.829  1.1306 -1.7238 -0.3737
14949SOL     OW50683   5.533   0.198   6.537  0.5413 -0.3699  0.2662
14949SOL    HW150684   5.520   0.131   6.604  1.6208  0.7900  1.7221
14949SOL    HW250685   5.542   0.150   6.455  0.4769 -1.9328  1.1448
14950SOL     OW50686  11.580   0.369  11.562 -0.5556  0.0220  0.1300
14950SOL    HW150687  11.545   0.384  11.650  1.4477 -0.9565  1.1641
14950SOL    HW250688  11.662   0.419  11.560  0.9411 -2.3172 -0.0467
14951SOL     OW50689   6.147   2.563   7.785 -0.1979  0.2764  0.0467
14951SOL    HW150690   6.115   2.475   7.767 -2.0025  0.9444 -0.2158
14951SOL    HW250691   6.189   2.557   7.871 -0.9174 -0.6897  0.3424
14952SOL     OW50692   5.552   3.977   9.281 -0.6258 -0.1986 -0.1486
14952SOL    HW150693   5.620   3.943   9.223 -1.6408  0.9110 -2.0838
14952SOL    HW250694   5.472   3.934   9.252 -0.9578 -0.7261  1.4416
14953SOL     OW50695   0.550   3.883  11.247  0.3943 -0.0863  0.0126
14953SOL    HW150696   0.626   3.825  11.236 -0.8875 -1.9306  0.3819
14953SOL    HW250697   0.541   3.925  11.162  1.5150 -0.2256 -0.2024
14954SOL     OW50698   3.638  11.789   5.574 -0.5684  0.0183 -1.0880
14954SOL    HW150699   3.572  11.721   5.563  1.9083 -2.5790 -1.1369
14954SOL    HW250700   3.645  11.830   5.488 -1.5315 -0.2362 -1.2976
14955SOL     OW50701   5.985  11.804  11.201  0.1018  0.3254 -0.0067
14955SOL    HW150702   6.080  11.804  11.201  0.1158 -0.3675  1.4101
14955SOL    HW250703   5.960  11.714  11.223 -0.9202  0.0680 -1.9443
14956SOL     OW50704   4.042   3.985   2.878 -0.2952 -0.0481 -0.2969
14956SOL    HW150705   3.955   3.949   2.864 -0.2072 -0.8621  1.0344
14956SOL    HW250706   4.027   4.069   2.922 -0.4911  1.5661 -3.1986
14957SOL     OW50707  10.339   5.428   4.817  0.7439 -0.1787 -0.1193
14957SOL    HW150708  10.345   5.380   4.734  0.3024 -0.0022 -0.2555
14957SOL    HW250709  10.418   5.403   4.864  0.8364 -0.5407 -0.4561
14958SOL     OW50710  11.761   3.171   6.602 -0.2755  0.3521  0.2390
14958SOL    HW150711  11.676   3.130   6.589 -0.6877  0.8563  1.2746
14958SOL    HW250712  11.742   3.264   6.615  0.4965  0.5936 -0.2345
14959SOL     OW50713  10.892  12.212   5.809 -0.0227  0.2481 -0.2241
14959SOL    HW150714  10.810  12.164   5.794  0.5556 -0.9194  0.1954
14959SOL    HW250715  10.937  12.210   5.724  0.7798 -1.5402  0.1894
14960SOL     OW50716   1.606   3.729   9.351  0.3322  0.0904 -0.5385
14960SOL    HW150717   1.522   3.775   9.341 -0.6095 -1.0091  1.6670
14960SOL    HW250718   1.594   3.646   9.304  0.6539  0.4205 -1.2303
14961SOL     OW50719   4.025   7.100   8.336 -0.3577 -0.4558 -0.0020
14961SOL    HW150720   4.083   7.049   8.279  0.9645  1.2453 -0.2879
14961SOL    HW250721   4.006   7.179   8.285 -1.2835 -0.0665  0.9182
14962SOL     OW50722  12.029   4.252  11.621  0.0490  0.0947  0.0896
14962SOL    HW150723  11.953   4.204  11.654 -1.5950  0.9079 -2.2122
14962SOL    HW250724  12.076   4.189  11.567 -1.2667  0.5508 -1.6926
14963SOL     OW50725  10.035   3.482  10.328  0.0024  0.6109 -0.1192
14963SOL    HW150726   9.994   3.537  10.395 -0.7170  0.1849 -0.2093
14963SOL    HW250727   9.964   3.428  10.293  0.5633  0.1265 -0.5364
14964SOL     OW50728  11.906   8.363   6.964 -0.4170  0.3815  0.2262
14964SOL    HW150729  11.888   8.427   7.033  0.0781  0.3656  0.3751
14964SOL    HW250730  11.978   8.309   6.999 -1.9297 -1.3641  0.8396
14965SOL     OW50731   1.879   1.804   5.446 -0.5069 -0.2472 -0.5449
14965SOL    HW150732   1.953   1.749   5.475  0.2964  1.3987  0.6666
14965SOL    HW250733   1.804   1.769   5.493 -0.6372 -2.1708 -2.0546
14966SOL     OW50734   2.767   2.443   7.926 -0.1220 -0.4368  0.2469
14966SOL    HW150735   2.767   2.404   8.014 -1.0167  1.0566  0.9550
14966SOL    HW250736   2.721   2.379   7.871 -0.0586 -1.1369  0.9953
14967SOL     OW50737   8.175   7.041   3.976 -0.1147  0.3164 -0.4599
14967SOL    HW150738   8.085   7.056   4.003 -0.6609  1.5393 -2.6924
14967SOL    HW250739   8.171   6.960   3.924  0.2564 -0.0770  0.1060
14968SOL     OW50740   0.734   5.427  10.416  0.1031  0.6501  0.3640
14968SOL    HW150741   0.806   5.399  10.473  1.8524  3.2059 -0.4236
14968SOL    HW250742   0.670   5.466  10.476 -0.8969 -1.9477  1.1082
14969SOL     OW50743   3.984   4.358   7.902 -0.2982 -0.4553  0.1799
14969SOL    HW150744   3.969   4.385   7.993 -0.0349 -2.5113  0.8913
14969SOL    HW250745   3.936   4.276   7.894 -0.2057 -0.3709 -1.5323
14970SOL     OW50746  11.253   8.802   8.382 -0.0218  0.6578 -0.4144
14970SOL    HW150747  11.314   8.776   8.313  1.9386 -1.4146  1.9482
14970SOL    HW250748  11.284   8.889   8.409  1.4272 -0.0146  0.1869
14971SOL     OW50749   6.721   0.929   0.764 -0.5578 -0.3426 -0.5380
14971SOL    HW150750   6.706   1.023   0.769 -1.0634 -0.4961  2.8512
14971SOL    HW250751   6.634   0.891   0.757 -0.5610 -0.6159  0.7861
14972SOL     OW50752  12.284   9.393   6.867  0.4334 -0.1450 -0.3296
14972SOL    HW150753  12.368   9.423   6.832  1.5950 -0.7042  1.8005
14972SOL    HW250754  12.293   9.297   6.872  0.1301 -0.1285  0.9474
14973SOL     OW50755   7.528   3.337   1.074  0.0122 -0.0070  0.1819
14973SOL    HW150756   7.561   3.254   1.108 -0.5340 -0.0789  0.5558
14973SOL    HW250757   7.435   3.322   1.058  0.4121 -0.2379 -2.2325
14974SOL     OW50758   6.249   3.974   6.175 -0.8020 -0.4259  0.2152
14974SOL    HW150759   6.315   3.921   6.220 -2.4028 -0.6745  2.3890
14974SOL    HW250760   6.255   4.060   6.216  0.6660  0.7545 -2.1914
14975SOL     OW50761   3.546   7.078   0.717  0.1685  0.1882  0.1896
14975SOL    HW150762   3.619   7.044   0.769 -0.6577 -0.6936  0.7908
14975SOL    HW250763   3.514   7.003   0.667  0.7240  0.9466 -1.3589
14976SOL     OW50764  10.974   1.645   7.728  0.1935  0.3604  0.6273
14976SOL    HW150765  10.887   1.661   7.693  0.8376  0.7192 -0.8893
14976SOL    HW250766  10.980   1.550   7.736  0.1339  0.2555 -0.5326
14977SOL     OW50767   0.611   8.734   2.836  0.0198 -0.8076  0.4711
14977SOL    HW150768   0.565   8.811   2.801 -0.6478  0.0988  3.0669
14977SOL    HW250769   0.680   8.716   2.772  0.1475  1.9228 -0.3172
14978SOL     OW50770   3.234   0.318   8.762 -0.4368  0.2326  0.6936
14978SOL    HW150771   3.144   0.350   8.769 -0.7700 -0.4046 -0.3981
14978SOL    HW250772   3.229   0.226   8.788 -0.8078 -0.7899 -2.5226
14979SOL     OW50773   7.113   8.823   6.453  0.1993  0.1991 -0.3813
14979SOL    HW150774   7.119   8.731   6.478 -1.5965  0.2535  0.3587
14979SOL    HW250775   7.116   8.872   6.536  1.6176  0.8641 -0.7908
14980SOL     OW50776   5.744  10.947   5.647  0.1748 -0.1650 -0.5386
14980SOL    HW150777   5.820  11.004   5.652  0.3289 -0.3337 -0.9585
14980SOL    HW250778   5.688  10.986   5.580 -0.8899  0.8837  0.9125
14981SOL     OW50779   2.382   9.854   8.223 -0.4023 -0.1738 -0.3268
14981SOL    HW150780   2.394   9.949   8.228 -1.9826  0.0094  0.9784
14981SOL    HW250781   2.340   9.840   8.138 -1.7024  0.5335  0.1663
14982SOL     OW50782   3.127   9.477   5.387 -0.8075 -0.0679 -0.0096
14982SOL    HW150783   3.041   9.519   5.394  1.0444  3.9239  1.7673
14982SOL    HW250784   3.169   9.493   5.472  2.6177  0.5580 -1.6397
14983SOL     OW50785   2.245   4.251   8.735  0.6413 -0.2114 -0.3366
14983SOL    HW150786   2.236   4.345   8.751  0.1313 -0.5316  1.4479
14983SOL    HW250787   2.255   4.212   8.822  0.5567 -1.8472 -1.0193
14984SOL     OW50788   0.961   7.567   0.231 -0.0062 -0.4296 -0.5614
14984SOL    HW150789   1.011   7.525   0.161  3.2832 -1.6215  2.2385
14984SOL    HW250790   0.996   7.656   0.236  1.1497 -0.9110  0.6474
14985SOL     OW50791   9.304   5.105   2.015 -0.8728  0.2054 -0.4803
14985SOL    HW150792   9.288   5.117   2.108 -0.5208 -1.1815 -0.2237
14985SOL    HW250793   9.259   5.024   1.992  0.0940 -0.1487 -1.2276
14986SOL     OW50794  11.740   2.761   7.664  0.2498  0.1969 -0.3839
14986SOL    HW150795  11.831   2.731   7.665 -0.1209 -0.9853  0.1688
14986SOL    HW250796  11.695   2.697   7.609 -0.2829  0.6648 -0.4971
14987SOL     OW50797   2.621   6.344   6.137  0.1850 -0.2153  1.1342
14987SOL    HW150798   2.571   6.380   6.211  0.2295 -1.7913  1.9820
14987SOL    HW250799   2.555   6.301   6.083 -0.0616  2.1172 -0.5775
14988SOL     OW50800   0.336   3.183   9.733  0.0898 -0.5076  0.2238
14988SOL    HW150801   0.341   3.266   9.780  0.2954 -0.5870  0.3449
14988SOL    HW250802   0.367   3.203   9.645 -1.3884 -0.1020 -0.2381
14989SOL     OW50803   4.991   9.469   5.871  0.1841  0.6485 -1.0024
14989SOL    HW150804   4.899   9.486   5.852  0.3148  1.7736 -0.6771
14989SOL    HW250805   5.034   9.479   5.786 -0.0672 -0.5944 -1.3019
14990SOL     OW50806   0.811   1.686   2.400 -0.2023  0.1604 -0.7346
14990SOL    HW150807   0.837   1.777   2.395  1.0353 -0.1268  0.0475
14990SOL    HW250808   0.860   1.643   2.329 -0.5079  0.0413 -0.8758
14991SOL     OW50809  10.391   5.608   6.761  0.1481  0.4879  0.2757
14991SOL    HW150810  10.363   5.525   6.722  1.5926 -0.1793  0.5576
14991SOL    HW250811  10.479   5.622   6.726 -0.2059  2.0836 -0.0208
14992SOL     OW50812   6.175   9.306   0.839  0.1130 -0.2522 -0.2636
14992SOL    HW150813   6.190   9.343   0.926  0.8483 -1.8294  0.3296
14992SOL    HW250814   6.085   9.330   0.818 -0.2442 -0.2274  1.1496
14993SOL     OW50815   3.602  11.286   2.119 -0.1895  0.0293  0.0616
14993SOL    HW150816   3.604  11.200   2.161 -1.1712  0.1070  0.2899
14993SOL    HW250817   3.571  11.346   2.187 -2.1590  0.0951 -0.8389
14994SOL     OW50818  10.796  10.503  11.168  0.8294 -0.1448  0.3267
14994SOL    HW150819  10.743  10.572  11.126 -2.0911 -1.9564  0.7683
14994SOL    HW250820  10.827  10.543  11.249 -0.0568  0.9536  0.1551
14995SOL     OW50821  10.098   3.520  12.211  0.3124  0.3563  0.1979
14995SOL    HW150822  10.177   3.493  12.257  1.2991  0.0150 -1.6137
14995SOL    HW250823  10.071   3.601  12.256 -0.0891 -1.0639  2.7531
14996SOL     OW50824   2.683  10.164   7.464  0.2007  0.5101 -0.1409
14996SOL    HW150825   2.744  10.222   7.509  0.5963 -1.0282  1.4394
14996SOL    HW250826   2.659  10.098   7.530 -1.5526 -0.1352 -1.3355
14997SOL     OW50827   2.704  10.099   4.711  0.0007  0.4068  0.0116
14997SOL    HW150828   2.661  10.049   4.781  0.0844 -0.4854 -0.5659
14997SOL    HW250829   2.704  10.189   4.743 -0.5310  0.1080  0.8863
14998SOL     OW50830   7.247  11.051   9.506  0.3161  0.3518  0.1489
14998SOL    HW150831   7.289  11.076   9.424  1.2833 -1.6892 -0.0536
14998SOL    HW250832   7.155  11.038   9.484  0.2659  1.2567 -0.2425
14999SOL     OW50833  10.738  12.082   4.648  0.5433  1.4244 -0.1624
14999SOL    HW150834  10.776  11.998   4.622  0.4783  2.3010 -3.6548
14999SOL    HW250835  10.655  12.059   4.690 -0.4704 -0.3371 -2.8418
15000SOL     OW50836   2.102   1.586   5.244 -0.3013 -0.0630  0.3780
15000SOL    HW150837   2.176   1.569   5.303 -1.0850 -1.4738  0.9957
15000SOL    HW250838   2.141   1.588   5.157  0.5365 -0.2413  0.7400
15001SOL     OW50839  12.267  11.293   4.142  0.0602  0.4290  0.3956
15001SOL    HW150840  12.314  11.236   4.081 -2.1951 -0.7735 -0.3451
15001SOL    HW250841  12.245  11.371   4.092 -1.1976 -0.2695 -0.2063
15002SOL     OW50842   6.659   9.664   6.020  0.0343 -0.1347  0.4509
15002SOL    HW150843   6.636   9.718   6.095 -0.2805  0.2272  0.0958
15002SOL    HW250844   6.751   9.686   6.002  0.5890 -1.3251  1.6507
15003SOL     OW50845   1.620  11.524   3.634 -0.4152 -0.0862 -0.1716
15003SOL    HW150846   1.672  11.534   3.714 -0.3573  1.4368 -0.3688
15003SOL    HW250847   1.684  11.500   3.567 -0.2755 -0.1948  0.0003
15004SOL     OW50848   5.942   1.260   8.154  0.1047 -0.0330  0.1216
15004SOL    HW150849   5.928   1.237   8.062  1.8482 -1.1269  0.0977
15004SOL    HW250850   6.035   1.245   8.169  0.1636  1.5457  1.6951
15005SOL     OW50851   9.291   0.790  11.941 -0.0204  0.8813 -0.2415
15005SOL    HW150852   9.335   0.868  11.908  0.5817  1.1950  1.2241
15005SOL    HW250853   9.353   0.752  12.002 -1.7620  1.3687  1.9595
15006SOL     OW50854   7.985  12.118   7.224  0.1594  0.3054  0.5463
15006SOL    HW150855   7.954  12.208   7.215 -0.5714 -0.0115 -0.2320
15006SOL    HW250856   7.914  12.064   7.189  1.5336 -0.4538 -1.1986
15007SOL     OW50857   8.594   8.114   6.429 -0.3167 -0.3343  0.2024
15007SOL    HW150858   8.647   8.034   6.430 -1.4442 -1.1623 -1.5142
15007SOL    HW250859   8.627   8.165   6.503  0.7602 -2.1657  1.0692
15008SOL     OW50860   7.057   4.267   5.504 -0.5719 -0.0262  0.3840
15008SOL    HW150861   7.010   4.264   5.588  0.1317 -1.7550  0.7602
15008SOL    HW250862   7.059   4.176   5.474  0.7346  0.3005 -0.6370
15009SOL     OW50863   8.785   4.990   8.534 -0.3516  0.1075 -0.2127
15009SOL    HW150864   8.719   4.974   8.466 -0.9807  1.9687 -0.1134
15009SOL    HW250865   8.753   5.068   8.580  0.6478 -0.4465  1.4973
15010SOL     OW50866   9.376   4.204   7.989  0.2696  0.0430 -0.0994
15010SOL    HW150867   9.296   4.252   8.011  0.4833  0.2150  0.3285
15010SOL    HW250868   9.364   4.177   7.898  0.0906  0.7997 -0.3068
15011SOL     OW50869   9.759   4.465   8.162 -0.3395  0.4124 -0.3236
15011SOL    HW150870   9.705   4.504   8.231 -1.1577 -1.6165  0.2451
15011SOL    HW250871   9.696   4.422   8.103  0.5374 -0.6570 -0.5114
15012SOL     OW50872   6.356   4.801   3.089  0.1077 -0.2361  0.0147
15012SOL    HW150873   6.370   4.895   3.080  0.0813  0.0526  2.3106
15012SOL    HW250874   6.414   4.775   3.161 -1.5410 -1.5366  0.9414
15013SOL     OW50875   0.479   0.994   9.642 -0.8514  0.1251 -0.3541
15013SOL    HW150876   0.450   1.022   9.729  2.0693 -3.4863  2.1238
15013SOL    HW250877   0.563   1.039   9.629 -1.2743  0.6449 -1.3128
15014SOL     OW50878   3.399  10.736   8.279  0.1113 -0.0256 -0.0723
15014SOL    HW150879   3.339  10.683   8.226 -0.6023  0.7789 -0.0858
15014SOL    HW250880   3.466  10.766   8.218 -0.8948  1.1811 -0.6125
15015SOL     OW50881  11.420   6.597   6.955 -0.2458  0.4337  0.5455
15015SOL    HW150882  11.504   6.598   7.002  0.0900 -0.5887 -0.0059
15015SOL    HW250883  11.444   6.618   6.865 -0.3963 -1.1346  0.1229
15016SOL     OW50884   0.634   5.852  10.229  0.4408 -0.3196 -0.7734
15016SOL    HW150885   0.718   5.807  10.218  2.0744  1.8431  1.7017
15016SOL    HW250886   0.648   5.938  10.190 -0.4548  0.2263  0.0778
15017SOL     OW50887  11.513  12.010   4.782 -0.0095 -0.0772  0.2795
15017SOL    HW150888  11.453  12.000   4.856 -0.4185 -0.2158 -0.0631
15017SOL    HW250889  11.521  11.922   4.745  1.5818 -0.3465  1.2016
15018SOL     OW50890  11.711   9.458  11.502  0.1309  0.7643  0.0512
15018SOL    HW150891  11.806   9.457  11.507  0.3135 -1.4879 -2.0437
15018SOL    HW250892  11.686   9.367  11.485 -2.4816  1.1576  1.2006
15019SOL     OW50893   7.669   1.187   8.631 -0.0321  0.0169  0.3669
15019SOL    HW150894   7.745   1.227   8.588 -1.5980 -0.3060 -3.0292
15019SOL    HW250895   7.630   1.259   8.680  0.4244  1.1821 -0.8982
15020SOL     OW50896   3.777  10.489   1.367  0.3452  0.1619  0.1817
15020SOL    HW150897   3.754  10.557   1.430  2.1159  2.6037 -1.6524
15020SOL    HW250898   3.716  10.500   1.295  1.6847  0.9576 -0.8640
15021SOL     OW50899  11.164   1.737   5.822  0.3798  0.0948  0.5181
15021SOL    HW150900  11.220   1.815   5.819 -0.1283  0.4392 -1.3775
15021SOL    HW250901  11.119   1.743   5.907  0.8143  1.5414  0.6704
15022SOL     OW50902   6.789  12.227  11.346  0.0116  0.8397 -0.3550
15022SOL    HW150903   6.862  12.223  11.284 -0.0791  1.4925 -0.5087
15022SOL    HW250904   6.717  12.264  11.296 -0.1365  1.1333  0.0693
15023SOL     OW50905  10.882   3.372   8.494  0.1362 -0.1276 -0.0884
15023SOL    HW150906  10.887   3.277   8.509 -0.7448 -0.0891  0.4763
15023SOL    HW250907  10.862   3.409   8.580 -0.0097  0.5363 -0.4013
15024SOL     OW50908   4.473   5.670   6.414 -0.2637 -0.3678 -0.4062
15024SOL    HW150909   4.403   5.712   6.364 -0.1930 -0.2770 -0.4286
15024SOL    HW250910   4.538   5.739   6.428  0.1820 -0.6512 -1.0420
15025SOL     OW50911   2.512  11.082   8.580 -0.2305  0.3969 -0.3644
15025SOL    HW150912   2.443  11.043   8.526 -0.5063  0.6045 -0.1660
15025SOL    HW250913   2.468  11.107   8.661 -0.0522  1.1039 -0.4803
15026SOL     OW50914   4.762   6.798   4.461 -0.6906  0.2512  0.1908
15026SOL    HW150915   4.771   6.702   4.467  2.3044  0.4990  1.3211
15026SOL    HW250916   4.833   6.825   4.402 -0.2538  1.8907  1.3923
15027SOL     OW50917   1.837   6.866   6.554 -0.5300 -0.2320  0.1269
15027SOL    HW150918   1.828   6.859   6.459 -1.8254 -0.0222  0.2149
15027SOL    HW250919   1.824   6.959   6.574 -0.7339 -0.3435  0.5445
15028SOL     OW50920   0.506  10.450   8.558  0.7002  0.6180 -0.4419
15028SOL    HW150921   0.496  10.365   8.515  0.6743 -0.8042  2.1209
15028SOL    HW250922   0.424  10.496   8.538 -0.4030 -0.9890  0.1053
15029SOL     OW50923  10.172   8.377  11.087 -0.3491  0.2172  0.0216
15029SOL    HW150924  10.213   8.292  11.071  0.4161  0.8806 -1.8159
15029SOL    HW250925  10.104   8.359  11.152  0.2644 -1.6510  0.2094
15030SOL     OW50926   6.714  12.204  11.700 -0.1184 -0.1935  0.0253
15030SOL    HW150927   6.786  12.246  11.748 -0.9295 -0.0865  1.1830
15030SOL    HW250928   6.744  12.202  11.609  1.0215  0.5500  0.3645
15031SOL     OW50929   3.247   0.559   2.558  0.0327  0.2113  0.3588
15031SOL    HW150930   3.334   0.538   2.593 -1.0407 -0.6170  2.7235
15031SOL    HW250931   3.231   0.649   2.586 -0.4141 -0.1079  1.1588
15032SOL     OW50932   6.417   9.288   7.307  0.6288  0.4449  0.1586
15032SOL    HW150933   6.337   9.260   7.351  1.3634  0.0024  1.2578
15032SOL    HW250934   6.430   9.379   7.335 -0.0828  0.8881 -0.9200
15033SOL     OW50935   2.208   8.282   3.864  0.2051  0.3940  0.3168
15033SOL    HW150936   2.202   8.233   3.781 -0.4819 -0.3461  0.7847
15033SOL    HW250937   2.137   8.346   3.859  0.8811  1.1302 -0.1420
15034SOL     OW50938   4.802  11.229   2.065 -0.3165  0.5738  0.0269
15034SOL    HW150939   4.799  11.209   1.972 -3.0420  0.1969  0.1302
15034SOL    HW250940   4.895  11.220   2.088  0.1786 -1.0199 -2.2540
15035SOL     OW50941   9.336   4.105   3.899  0.0291  0.2148 -0.0408
15035SOL    HW150942   9.329   4.028   3.956 -1.9772  0.7280  0.4665
15035SOL    HW250943   9.367   4.069   3.815  0.4106 -0.9502  0.5733
15036SOL     OW50944  10.638   0.059  11.138  0.0457  0.0217 -0.9373
15036SOL    HW150945  10.691   0.063  11.218 -0.8616  2.2341 -0.3840
15036SOL    HW250946  10.669   0.133  11.086 -1.7985  0.7810 -1.0131
15037SOL     OW50947   7.217  10.598   2.621  0.4037  0.2528 -0.1202
15037SOL    HW150948   7.309  10.605   2.646  0.3235 -0.6092  0.4511
15037SOL    HW250949   7.187  10.516   2.660 -1.0393  1.2970  1.0979
15038SOL     OW50950   6.930   2.679   8.090  0.2665  0.2163  0.1810
15038SOL    HW150951   7.018   2.659   8.120  0.1951 -1.4174 -0.5994
15038SOL    HW250952   6.917   2.771   8.113  2.9178  1.1228 -1.4663
15039SOL     OW50953   4.990   9.074   2.354  0.0388  0.6949  0.4627
15039SOL    HW150954   4.919   9.110   2.407 -0.7353 -0.3028  0.1510
15039SOL    HW250955   4.986   9.122   2.271 -0.3786  0.5431  0.3919
15040SOL     OW50956   4.977   4.203   9.454 -0.1183 -0.2878  0.3286
15040SOL    HW150957   4.901   4.148   9.439  1.1309 -2.2012  0.7620
15040SOL    HW250958   5.045   4.166   9.398  0.6585  1.0661  0.3344
15041SOL     OW50959   4.469   6.006   2.057  0.5225  0.3048 -0.7458
15041SOL    HW150960   4.486   5.966   2.142 -3.1451  0.0042 -0.0157
15041SOL    HW250961   4.530   6.080   2.053  0.7675  0.3804  2.1641
15042SOL     OW50962   5.210   0.573   5.639  0.4301  0.2796  0.4644
15042SOL    HW150963   5.192   0.593   5.547  0.1450  0.5595  0.5776
15042SOL    HW250964   5.200   0.478   5.645  1.4857  0.1243 -0.0123
15043SOL     OW50965  11.705  11.028  12.108  0.5828  0.6081 -0.6203
15043SOL    HW150966  11.748  10.967  12.048 -0.8180 -1.5818  0.4223
15043SOL    HW250967  11.611  11.017  12.089  0.1953  0.9322  0.9410
15044SOL     OW50968   7.147  10.471   9.178 -0.3390  0.0273 -0.1067
15044SOL    HW150969   7.193  10.528   9.116  0.0137 -1.1491 -0.9634
15044SOL    HW250970   7.185  10.385   9.163  0.4227 -0.1446  2.4247
15045SOL     OW50971   9.421   5.230   1.798 -0.4939  0.3380  0.5563
15045SOL    HW150972   9.370   5.198   1.872 -0.9780  1.7194  0.8540
15045SOL    HW250973   9.436   5.152   1.744  0.2977 -0.7817  2.3190
15046SOL     OW50974   1.617   9.685   0.000  0.4421 -0.0917 -0.2108
15046SOL    HW150975   1.684   9.747  -0.030  1.7972 -1.0197  0.7913
15046SOL    HW250976   1.642   9.665   0.091  0.1747 -2.2746 -0.5716
15047SOL     OW50977  10.822   9.804   4.980  0.5142 -0.3973 -0.1399
15047SOL    HW150978  10.876   9.749   5.037  1.6603  2.2094  1.4282
15047SOL    HW250979  10.732   9.788   5.011  0.8813 -0.8501  0.7338
15048SOL     OW50980   2.583   0.964   1.087 -0.3459  0.3119 -0.1347
15048SOL    HW150981   2.583   0.897   1.155  1.3312 -0.0088 -0.4214
15048SOL    HW250982   2.499   1.010   1.099 -1.9415 -2.3234 -0.4634
15049SOL     OW50983   1.842   8.342   6.494  0.5303 -0.2267  0.3938
15049SOL    HW150984   1.770   8.402   6.474  1.5552  0.9296  0.0248
15049SOL    HW250985   1.920   8.397   6.490  1.7181 -1.8980 -1.5748
15050SOL     OW50986  11.781   2.676  11.437  0.6945  0.4689  0.0854
15050SOL    HW150987  11.850   2.742  11.429  2.5045 -1.4276 -0.7102
15050SOL    HW250988  11.820   2.606  11.488 -0.4127 -0.9526 -0.9404
15051SOL     OW50989   9.405   6.229   5.059  0.5372 -0.9512 -0.2065
15051SOL    HW150990   9.489   6.192   5.087 -0.5319 -1.9337  1.9527
15051SOL    HW250991   9.339   6.176   5.104 -1.3502 -1.1895 -2.9697
15052SOL     OW50992   3.168   4.404   5.169  0.7818  0.0069 -0.3268
15052SOL    HW150993   3.161   4.364   5.082  0.2555  1.6915 -1.1141
15052SOL    HW250994   3.212   4.487   5.153 -0.5824  0.9829  0.7803
15053SOL     OW50995   5.211  11.983   6.447  0.4090 -1.1430 -0.3736
15053SOL    HW150996   5.121  12.016   6.449  1.4201  1.8854 -0.0270
15053SOL    HW250997   5.206  11.899   6.494 -1.8450  0.0798  1.8651
15054SOL     OW50998   5.580   5.798  10.708  0.6946  0.0776 -0.2048
15054SOL    HW150999   5.505   5.855  10.728  0.0992 -0.8286  0.2392
15054SOL    HW251000   5.540   5.718  10.673  1.4993 -0.1459 -0.6253
15055SOL     OW51001   5.238   2.129  11.110 -0.2040  0.0481  0.0516
15055SOL    HW151002   5.284   2.077  11.176 -0.8670  2.0445  2.2479
15055SOL    HW251003   5.297   2.132  11.036  1.5860 -0.5032  1.3914
15056SOL     OW51004   4.361   1.495   8.530 -0.0129 -0.1669 -0.5984
15056SOL    HW151005   4.371   1.439   8.606  1.0116  1.2630  0.3548
15056SOL    HW251006   4.273   1.473   8.496 -0.4122 -0.9515  0.8637
15057SOL     OW51007  11.088   0.453   6.599 -0.7339  0.1528  0.1544
15057SOL    HW151008  11.043   0.370   6.583 -0.8728  0.4583 -1.1644
15057SOL    HW251009  11.116   0.448   6.690  0.1019 -1.7497 -0.1587
15058SOL     OW51010   2.338   0.770   4.290 -0.0468  0.0225 -0.2763
15058SOL    HW151011   2.243   0.770   4.278 -0.2119  1.2607  0.8275
15058SOL    HW251012   2.350   0.750   4.382  0.7798 -0.2358 -0.4355
15059SOL     OW51013   2.555  12.038   9.005 -0.6938 -0.1403 -0.4346
15059SOL    HW151014   2.628  11.977   8.996  0.3242  0.9870 -0.1022
15059SOL    HW251015   2.590  12.122   8.977 -0.7953  1.1343  2.7987
15060SOL     OW51016   1.712   1.144   8.266 -0.2611  0.2559  0.2632
15060SOL    HW151017   1.776   1.109   8.328 -0.9212 -0.6910  0.4222
15060SOL    HW251018   1.718   1.239   8.277  1.3565  0.2205  0.0363
15061SOL     OW51019   7.025   7.050   4.849 -0.1873 -0.5116 -0.6293
15061SOL    HW151020   6.985   7.114   4.906 -0.0647 -0.2001 -0.8910
15061SOL    HW251021   7.102   7.094   4.813 -1.0351 -0.1695 -2.1586
15062SOL     OW51022   0.241   2.250   6.313  0.6040 -0.3128  0.3049
15062SOL    HW151023   0.288   2.219   6.236  0.6629 -0.0815  0.2470
15062SOL    HW251024   0.152   2.265   6.282  0.7860  0.4088  0.1222
15063SOL     OW51025   4.136   3.943  12.233 -0.2739  0.4832 -0.4071
15063SOL    HW151026   4.203   3.882  12.203 -0.0811  0.3853  0.1987
15063SOL    HW251027   4.066   3.887  12.267  1.1898  0.4946  3.0561
15064SOL     OW51028  10.727   9.050  10.854  0.1936  0.2065  0.4770
15064SOL    HW151029  10.719   9.000  10.773 -1.7066 -0.3519  0.9581
15064SOL    HW251030  10.754   9.137  10.826 -1.2585  0.2627 -0.8752
15065SOL     OW51031   5.406   1.660   6.841  0.4818 -0.4872  0.1658
15065SOL    HW151032   5.323   1.613   6.827  0.3566 -0.2965  0.2682
15065SOL    HW251033   5.382   1.752   6.836  0.7194 -0.4315  0.0240
15066SOL     OW51034   5.764   2.947   3.182 -0.2897  0.4560  0.0724
15066SOL    HW151035   5.816   2.965   3.104 -0.3690 -0.2732 -0.1497
15066SOL    HW251036   5.699   3.017   3.184 -1.7933 -0.7954 -1.8270
15067SOL     OW51037   5.842   2.830   2.770  0.1116  0.1943 -0.7687
15067SOL    HW151038   5.862   2.859   2.859 -0.9876  2.9009 -1.2970
15067SOL    HW251039   5.918   2.778   2.744  0.0997 -1.3927  1.9837
15068SOL     OW51040   9.248   0.181   3.674  0.6612 -0.5680 -0.1864
15068SOL    HW151041   9.157   0.151   3.663  0.9414 -1.9239  0.8857
15068SOL    HW251042   9.258   0.194   3.768  1.8369 -1.3748 -0.1730
15069SOL     OW51043   6.803   6.028   5.190  0.2769 -0.1448  0.4263
15069SOL    HW151044   6.898   6.031   5.196  0.2270 -1.0434  1.9320
15069SOL    HW251045   6.777   5.955   5.245 -1.1115 -1.9620 -2.3778
15070SOL     OW51046   5.653   7.316  12.268  0.0762  0.3459 -0.0449
15070SOL    HW151047   5.632   7.237  12.217 -0.4020  1.3039 -1.3994
15070SOL    HW251048   5.716   7.286  12.334 -0.6716 -1.3120 -0.0244
15071SOL     OW51049   3.962   0.183   6.337 -0.2812  1.0591 -0.2898
15071SOL    HW151050   3.910   0.122   6.285  0.9056  0.0410 -0.3392
15071SOL    HW251051   3.931   0.171   6.427 -0.5291  0.8874 -0.3996
15072SOL     OW51052   3.778   8.928  10.345 -0.1794  0.1092 -0.1088
15072SOL    HW151053   3.808   8.840  10.324  1.8791  1.0221 -1.3259
15072SOL    HW251054   3.856   8.983  10.336 -1.1918  1.9570  1.4541
15073SOL     OW51055  12.129   9.642   0.970 -0.1904  0.2941  0.5131
15073SOL    HW151056  12.037   9.668   0.982 -0.2252  1.5182 -1.8647
15073SOL    HW251057  12.167   9.712   0.917  2.0360 -0.4065  1.0651
15074SOL     OW51058   5.310   9.282   1.626 -0.5560  0.2242 -0.0232
15074SOL    HW151059   5.309   9.195   1.585  0.2031 -0.4174  1.2527
15074SOL    HW251060   5.383   9.328   1.584 -1.7642  0.7729 -1.6514
15075SOL     OW51061  10.623   8.908   9.756  0.0551  0.3203 -0.5494
15075SOL    HW151062  10.546   8.852   9.748  0.5936 -0.2878 -1.8047
15075SOL    HW251063  10.620   8.965   9.679  0.4496  0.8057 -0.2104
15076SOL     OW51064   1.493   1.982   3.497 -0.5959  0.2071 -0.4926
15076SOL    HW151065   1.553   1.966   3.424  0.1183 -3.3476  0.6876
15076SOL    HW251066   1.406   1.986   3.457 -0.1570 -1.0029 -1.6486
15077SOL     OW51067   1.310   6.668   4.777 -0.3328  0.5477 -0.4635
15077SOL    HW151068   1.331   6.692   4.687  0.5611  0.9209 -0.1722
15077SOL    HW251069   1.220   6.698   4.790 -1.0724 -0.9462 -1.7215
15078SOL     OW51070  11.606  12.279   8.384  0.1511  0.1947 -0.2859
15078SOL    HW151071  11.595  12.360   8.334 -1.8566 -0.5558 -1.1517
15078SOL    HW251072  11.621  12.309   8.474  0.8295  1.5279 -0.8144
15079SOL     OW51073   2.647   2.753   6.570  0.2871  0.6354  0.4454
15079SOL    HW151074   2.646   2.820   6.639 -1.8944  1.4291 -0.2906
15079SOL    HW251075   2.584   2.687   6.600  1.0494 -0.1858  0.2801
15080SOL     OW51076   0.063   9.278   1.736  0.7775 -0.1435 -0.4215
15080SOL    HW151077   0.096   9.291   1.647  1.6065  0.0961 -0.0906
15080SOL    HW251078   0.058   9.183   1.747  0.1948 -0.1725 -0.8847
15081SOL     OW51079   6.212  11.357   4.380 -0.5559 -0.6962  0.4552
15081SOL    HW151080   6.120  11.376   4.397 -0.3503  0.4404  0.3706
15081SOL    HW251081   6.241  11.309   4.457 -1.7043 -2.8592 -0.3868
15082SOL     OW51082   9.652  11.214   3.393  0.3192 -0.0366 -0.4646
15082SOL    HW151083   9.722  11.229   3.456  0.7511  0.9422 -1.1580
15082SOL    HW251084   9.645  11.296   3.345 -0.7755 -0.3880 -0.9366
15083SOL     OW51085   9.165  12.006   8.480  0.5470  0.7935  0.5084
15083SOL    HW151086   9.087  11.977   8.433  0.0803  2.2140  0.3676
15083SOL    HW251087   9.160  11.961   8.565 -0.3472  0.7710  0.4474
15084SOL     OW51088   3.747   2.458   3.954  0.4650  0.2452  0.0432
15084SOL    HW151089   3.829   2.409   3.945  0.3586 -0.1554  1.1303
15084SOL    HW251090   3.688   2.419   3.889 -0.0310 -1.9754  1.7053
15085SOL     OW51091   8.637   8.869   7.166  0.3180 -0.3235  0.0386
15085SOL    HW151092   8.567   8.804   7.169  1.2113 -1.3672 -0.6923
15085SOL    HW251093   8.677   8.856   7.080 -0.1029  1.8967 -0.5593
15086SOL     OW51094   3.075   5.804  10.509  0.3389 -0.0468 -0.2495
15086SOL    HW151095   3.017   5.802  10.432 -0.7167 -1.9483  0.5067
15086SOL    HW251096   3.128   5.725  10.500  1.0264  0.3306  0.3919
15087SOL     OW51097   6.946   3.663  10.626 -0.3597 -0.1359  0.2733
15087SOL    HW151098   7.008   3.609  10.674 -0.3323 -1.1921 -0.9055
15087SOL    HW251099   6.978   3.752  10.638  1.1291 -0.6108  0.0797
15088SOL     OW51100   6.230  11.406  10.944 -0.0663  0.2293  0.0506
15088SOL    HW151101   6.311  11.388  10.897  0.2390  1.1425  0.2038
15088SOL    HW251102   6.228  11.502  10.952 -1.5709  0.2970 -0.7235
15089SOL     OW51103   4.296   8.722  11.509 -0.1140  0.3849 -0.0614
15089SOL    HW151104   4.379   8.726  11.557 -0.6390  1.5467  0.8168
15089SOL    HW251105   4.305   8.647  11.450  1.0314 -0.3501  1.0036
15090SOL     OW51106  12.279   0.431   8.013  0.5654  0.4274  0.2353
15090SOL    HW151107  12.263   0.501   7.949  0.0145  0.8783  0.8464
15090SOL    HW251108  12.348   0.467   8.069  0.2099  0.5333  0.6128
15091SOL     OW51109   8.571  11.302   8.122  0.1817  0.2636  0.4174
15091SOL    HW151110   8.650  11.289   8.174  2.6569  1.9102 -2.5904
15091SOL    HW251111   8.556  11.217   8.079  2.3168  0.6956 -1.3661
15092SOL     OW51112   6.762  11.940   4.352  0.4730  0.4739 -0.2100
15092SOL    HW151113   6.813  11.933   4.433  0.5424 -1.9941 -0.4057
15092SOL    HW251114   6.809  12.006   4.301  1.0132  1.3279  1.3112
15093SOL     OW51115   6.465   4.595   7.040  0.2979 -0.5410 -0.0621
15093SOL    HW151116   6.521   4.589   7.117 -1.1890 -0.9097  1.0192
15093SOL    HW251117   6.421   4.680   7.048 -1.4483 -1.4669  0.6509
15094SOL     OW51118  11.792   9.835   9.266  0.3332 -0.5094 -0.5293
15094SOL    HW151119  11.727   9.849   9.197  0.8022  1.8664 -0.5679
15094SOL    HW251120  11.740   9.804   9.341 -0.7504  0.4699 -0.8370
15095SOL     OW51121   8.139  12.014  11.869  0.1144 -0.1486  0.1783
15095SOL    HW151122   8.137  11.966  11.952  2.1080  1.5136  1.2835
15095SOL    HW251123   8.229  12.006  11.838 -0.3340  0.1632 -1.3050
15096SOL     OW51124   8.708   3.186   9.864  0.3608  0.0482 -0.4022
15096SOL    HW151125   8.644   3.195   9.935  0.0344  0.5647 -0.7540
15096SOL    HW251126   8.655   3.182   9.784  0.6335 -1.9597 -0.5448
15097SOL     OW51127  11.520   3.071   4.621  0.2225 -0.3566  0.2565
15097SOL    HW151128  11.598   3.044   4.573  0.0195 -0.8035  0.1702
15097SOL    HW251129  11.538   3.161   4.647  0.2161 -0.0084 -0.8904
15098SOL     OW51130   9.302  10.505   5.677  0.2659  0.2569  0.6160
15098SOL    HW151131   9.240  10.558   5.726  1.4947  0.6724  1.7959
15098SOL    HW251132   9.375  10.565   5.658  0.5756 -0.3582 -0.2322
15099SOL     OW51133   6.987   2.635  10.233  0.4552 -0.2486 -0.1387
15099SOL    HW151134   7.034   2.717  10.219  0.0252  0.1189  0.4833
15099SOL    HW251135   6.900   2.663  10.262  0.0919 -0.9220 -0.5583
15100SOL     OW51136   7.177   9.867   6.580  0.2053  0.4114 -0.4533
15100SOL    HW151137   7.237   9.914   6.637 -1.1761  0.9606  0.5932
15100SOL    HW251138   7.220   9.782   6.565  0.6983  0.3244  1.2561
15101SOL     OW51139   1.494   6.226   7.277  0.0501 -0.0206  0.5912
15101SOL    HW151140   1.456   6.188   7.197  0.2618  1.0632 -0.0554
15101SOL    HW251141   1.570   6.171   7.296 -0.5549 -0.8699  0.6066
15102SOL     OW51142   8.765   6.303   4.873  0.4226  0.6678 -0.2738
15102SOL    HW151143   8.813   6.277   4.952  0.2755  2.0033  0.2706
15102SOL    HW251144   8.687   6.248   4.873 -0.9046  2.3929  1.9567
15103SOL     OW51145   4.241   7.859   4.444 -0.4152  0.0772  0.1652
15103SOL    HW151146   4.313   7.797   4.452  0.3473  0.8552 -0.4164
15103SOL    HW251147   4.247   7.892   4.354 -1.0563  0.6757  0.3273
15104SOL     OW51148   9.195  11.531   8.661  0.0285  0.6261 -0.4766
15104SOL    HW151149   9.204  11.436   8.647  1.7491  0.8158 -0.8907
15104SOL    HW251150   9.133  11.538   8.733  0.1891 -0.8506 -0.1471
15105SOL     OW51151   4.666   9.122   7.399 -0.3871  0.4829 -0.5722
15105SOL    HW151152   4.595   9.078   7.445  0.3534  0.3187  0.4451
15105SOL    HW251153   4.677   9.205   7.446 -0.7949  1.1109 -1.5607
15106SOL     OW51154   5.900   3.666  10.359  0.7772 -0.1727 -0.0487
15106SOL    HW151155   5.979   3.663  10.304  1.5689 -3.1776  1.0061
15106SOL    HW251156   5.878   3.574  10.373 -1.1911  0.5371  2.1437
15107SOL     OW51157   1.516   1.061   5.508  0.3892 -0.1975  0.0493
15107SOL    HW151158   1.537   0.970   5.488  1.9086 -0.0045  0.6271
15107SOL    HW251159   1.424   1.060   5.537  0.2719 -1.4658 -0.3449
15108SOL     OW51160   2.537   2.700  12.325 -0.1873 -0.0037 -0.3087
15108SOL    HW151161   2.570   2.725  12.411  0.5334 -0.0308 -0.5697
15108SOL    HW251162   2.450   2.666  12.341  0.2014 -0.6375  0.4927
15109SOL     OW51163   1.821   1.407   9.243 -0.0848 -0.1957 -0.4423
15109SOL    HW151164   1.892   1.443   9.297  0.8456  0.3482 -1.9619
15109SOL    HW251165   1.768   1.483   9.219 -0.6080 -0.4610 -0.1296
15110SOL     OW51166   6.782  10.683   3.315  0.0075 -1.0210  0.5225
15110SOL    HW151167   6.805  10.707   3.405 -1.2174 -0.1450  0.6356
15110SOL    HW251168   6.804  10.590   3.309  1.1308 -0.8355  1.3737
15111SOL     OW51169   5.259   2.931  10.001 -0.3689  0.1854  0.6126
15111SOL    HW151170   5.300   2.951   9.917 -4.5351  0.3551 -1.6402
15111SOL    HW251171   5.230   3.015  10.034  0.2281 -0.0239  1.7348
15112SOL     OW51172   7.663   0.125  12.104 -0.4072  0.7119  0.4081
15112SOL    HW151173   7.648   0.219  12.097  0.4920  0.7554 -1.9829
15112SOL    HW251174   7.710   0.114  12.186  1.7557  2.7164 -0.4522
15113SOL     OW51175   6.774  11.735   8.149  0.3823 -0.2276 -0.1800
15113SOL    HW151176   6.732  11.772   8.071  1.0291 -1.7785 -1.3155
15113SOL    HW251177   6.703  11.696   8.198 -0.4930  3.1621  1.5592
15114SOL     OW51178  11.679   0.922   2.174  0.4436  0.7092  0.1707
15114SOL    HW151179  11.605   0.972   2.142  0.2258  0.5186  0.3752
15114SOL    HW251180  11.706   0.967   2.254 -1.2946 -0.8756  1.7327
15115SOL     OW51181   4.418   6.375   8.352  0.1588 -0.1522 -0.1634
15115SOL    HW151182   4.481   6.309   8.322 -0.9010 -0.4223 -1.9590
15115SOL    HW251183   4.365   6.394   8.275 -1.2156  0.9296  0.9883
15116SOL     OW51184   1.361   8.682   9.218  0.3999 -0.6425 -0.1877
15116SOL    HW151185   1.286   8.649   9.267  0.8381 -0.6749  0.4767
15116SOL    HW251186   1.404   8.604   9.184 -0.8906 -0.5570 -2.1601
15117SOL     OW51187   8.930  11.000   3.361  0.1519  0.6361  0.7280
15117SOL    HW151188   8.910  10.910   3.389 -2.6090  1.2399  0.9562
15117SOL    HW251189   8.988  11.034   3.429  1.0922 -0.8682  0.7407
15118SOL     OW51190   3.021   6.149   0.387  0.4388 -0.4368 -0.1717
15118SOL    HW151191   2.940   6.182   0.348  0.0393 -1.7274 -0.4748
15118SOL    HW251192   3.088   6.212   0.360 -0.3798  0.4051 -0.2917
15119SOL     OW51193  11.450   8.966   8.942 -0.3624  0.4208  0.7013
15119SOL    HW151194  11.541   8.951   8.968  0.2656  1.4998 -0.7304
15119SOL    HW251195  11.450   8.952   8.848 -1.8196 -0.0801  0.7553
15120SOL     OW51196   7.698   3.087   3.621  0.3964 -0.5586 -0.4417
15120SOL    HW151197   7.605   3.065   3.625 -0.3243  1.7271 -2.1624
15120SOL    HW251198   7.710   3.152   3.691  0.6800 -0.7698 -0.2926
15121SOL     OW51199   1.814  11.393   8.835 -0.8630  0.8464  0.2009
15121SOL    HW151200   1.798  11.467   8.777 -2.4377  0.6727  0.3705
15121SOL    HW251201   1.886  11.421   8.892 -2.4693  2.9102  1.3479
15122SOL     OW51202  12.307  10.784   6.184 -0.1927 -0.0593 -0.2000
15122SOL    HW151203  12.353  10.726   6.245 -0.4465 -0.6995 -0.6126
15122SOL    HW251204  12.372  10.806   6.118  0.5266  1.7993  1.0321
15123SOL     OW51205   5.305   3.695   7.035  0.5156 -0.0333 -0.4559
15123SOL    HW151206   5.361   3.653   6.970  0.7201 -1.3608  0.5239
15123SOL    HW251207   5.366   3.728   7.101  0.2067 -1.7532  0.7721
15124SOL     OW51208  10.684   8.525  10.787  0.9177  0.0353  0.6146
15124SOL    HW151209  10.779   8.523  10.778  0.9210 -0.5536  0.6998
15124SOL    HW251210  10.663   8.614  10.816  1.1229  1.3098 -2.7555
15125SOL     OW51211   6.007   5.763   4.355  0.0537 -0.5358  0.4158
15125SOL    HW151212   6.013   5.730   4.265  0.3159 -0.7010  0.4892
15125SOL    HW251213   6.093   5.743   4.392  1.1985  2.5912 -0.3072
15126SOL     OW51214   4.295   4.456  10.505  0.0754  0.1080 -0.8952
15126SOL    HW151215   4.283   4.550  10.520 -0.9572 -0.1642  0.1759
15126SOL    HW251216   4.225   4.432  10.444 -0.2632 -0.1276 -0.4245
15127SOL     OW51217   7.556   5.246   4.085  0.2303 -0.1461 -0.4723
15127SOL    HW151218   7.593   5.277   4.167 -2.3524  2.6156 -0.1934
15127SOL    HW251219   7.503   5.170   4.110  1.0654 -0.5882  0.0209
15128SOL     OW51220   1.639   7.194   7.846  0.3730  0.4063  0.5083
15128SOL    HW151221   1.673   7.283   7.838  0.3860  0.4730  1.1983
15128SOL    HW251222   1.609   7.171   7.758  0.5200  1.0312  0.2910
15129SOL     OW51223   4.689   3.345   8.543  0.6568  0.5910 -0.1316
15129SOL    HW151224   4.738   3.263   8.538  0.1487  0.3227 -0.9744
15129SOL    HW251225   4.604   3.319   8.580  1.6844  1.3259  3.0478
15130SOL     OW51226   0.255  10.933   7.014 -0.2042  0.0274 -0.1644
15130SOL    HW151227   0.177  10.988   7.023  0.4334  0.9852 -0.4309
15130SOL    HW251228   0.233  10.873   6.942 -0.4567  0.7154 -0.6706
15131SOL     OW51229   6.189  12.319   8.015 -0.1753 -0.0042 -0.5550
15131SOL    HW151230   6.149  12.291   7.933 -1.5891  1.2479 -0.3354
15131SOL    HW251231   6.247  12.391   7.991 -1.8023  1.4473 -0.3179
15132SOL     OW51232   1.326  11.829   9.333 -0.5597 -0.1016 -0.1395
15132SOL    HW151233   1.363  11.748   9.299 -0.1856  0.6364 -1.5594
15132SOL    HW251234   1.341  11.825   9.427 -2.5168 -2.6792  0.1817
15133SOL     OW51235   2.508   6.927  11.054 -0.4723  0.0369  0.6283
15133SOL    HW151236   2.543   6.840  11.074 -0.5836 -0.3436 -0.7576
15133SOL    HW251237   2.583   6.985  11.061 -0.1929 -0.3157  0.6008
15134SOL     OW51238   4.368   1.333   6.356  0.2487  0.3125 -0.2845
15134SOL    HW151239   4.433   1.281   6.404  1.3074  0.6671 -1.2960
15134SOL    HW251240   4.342   1.402   6.417  0.1595 -0.3463  0.4375
15135SOL     OW51241   5.681   7.124  11.329  0.3029  0.3404  0.4346
15135SOL    HW151242   5.754   7.065  11.309 -0.0642 -0.1789  0.5854
15135SOL    HW251243   5.609   7.092  11.274 -0.0127  0.4007  0.8037
15136SOL     OW51244   9.878   2.832   5.740  0.2583 -0.4790 -0.0914
15136SOL    HW151245   9.829   2.901   5.695  0.5781  0.1717  0.5483
15136SOL    HW251246   9.818   2.801   5.807 -0.5625 -2.0621 -1.4692
15137SOL     OW51247   5.546   2.054   9.418  0.0284  0.2448 -0.0946
15137SOL    HW151248   5.476   2.118   9.410 -0.4336 -0.2664 -0.2292
15137SOL    HW251249   5.519   1.998   9.491  0.5316  0.3340  0.1607
15138SOL     OW51250   4.411   3.542   3.410 -0.2643 -0.1129  0.1130
15138SOL    HW151251   4.336   3.544   3.351  0.0898  0.7224 -0.3255
15138SOL    HW251252   4.380   3.494   3.487 -1.5578  1.0726  0.3678
15139SOL     OW51253  11.166   3.085   1.318 -0.2790 -0.0568 -0.4479
15139SOL    HW151254  11.142   3.178   1.322 -0.0584  0.0020 -0.4962
15139SOL    HW251255  11.100   3.046   1.260  0.4243  0.3340 -1.5537
15140SOL     OW51256   5.990   8.213   7.784  0.0492  0.2784  0.6917
15140SOL    HW151257   5.926   8.226   7.713  1.3682  1.1971 -0.3813
15140SOL    HW251258   6.036   8.132   7.760  1.7856  1.5746 -0.5967
15141SOL     OW51259   2.382   7.665   3.546  0.0732 -0.1121 -0.4718
15141SOL    HW151260   2.289   7.686   3.554  0.1955  0.4092 -0.3334
15141SOL    HW251261   2.405   7.690   3.457  0.3139  0.7714 -0.1780
15142SOL     OW51262   0.802   4.055  12.022  0.5171 -0.7502 -0.0244
15142SOL    HW151263   0.801   4.143  12.060 -0.9112  0.1822 -2.0380
15142SOL    HW251264   0.792   3.996  12.097  1.9346  0.7270  1.4239
15143SOL     OW51265   1.830   4.405   4.803 -0.4885  0.2890  0.2194
15143SOL    HW151266   1.738   4.390   4.828 -0.7554  0.9040 -0.3745
15143SOL    HW251267   1.879   4.345   4.859 -1.1902  0.4915  1.0913
15144SOL     OW51268  12.277   4.361   1.804 -0.0780 -0.4046 -0.1122
15144SOL    HW151269  12.345   4.380   1.868  1.2313  0.1812 -1.5960
15144SOL    HW251270  12.278   4.265   1.796  1.0147 -0.3728 -0.5387
15145SOL     OW51271   8.049   7.298   8.805  0.1768  0.2092  0.7868
15145SOL    HW151272   8.087   7.211   8.816  0.5999  0.1965 -0.6033
15145SOL    HW251273   7.966   7.294   8.853 -0.6056 -1.5163 -0.5768
15146SOL     OW51274  10.293   1.816   1.062 -0.0014  0.3451  0.0297
15146SOL    HW151275  10.270   1.903   1.030 -0.0610  0.1256 -0.5357
15146SOL    HW251276  10.371   1.791   1.012 -1.1749 -0.7708 -1.3384
15147SOL     OW51277   1.908   8.313   0.273 -0.3140  0.1911  0.0744
15147SOL    HW151278   1.944   8.359   0.197  2.1826 -1.1653  0.3184
15147SOL    HW251279   1.985   8.280   0.319 -1.8767 -1.8658  1.3729
15148SOL     OW51280   5.595   5.251   4.718 -0.0119 -0.0943  0.0309
15148SOL    HW151281   5.511   5.282   4.685  0.5525  0.4851 -0.9232
15148SOL    HW251282   5.575   5.169   4.763 -1.1333  0.2409  0.1700
15149SOL     OW51283   9.595   1.691   6.518  0.6579 -0.9208  0.0709
15149SOL    HW151284   9.583   1.599   6.544  0.8493 -1.1026 -0.4780
15149SOL    HW251285   9.535   1.703   6.445 -0.3201 -0.2396  0.9634
15150SOL     OW51286   0.599   6.235   7.090 -0.0128 -0.6149  0.2678
15150SOL    HW151287   0.594   6.284   7.173 -1.8494  0.2405 -0.2918
15150SOL    HW251288   0.521   6.180   7.090  0.5452 -1.4261 -0.4230
15151SOL     OW51289  11.939  10.238   9.038 -0.4758  0.3312  0.4902
15151SOL    HW151290  11.984  10.190   8.968 -0.1338 -1.4468  1.8334
15151SOL    HW251291  12.004  10.300   9.070 -0.2749  0.4229 -0.0913
15152SOL     OW51292   1.296   2.274  11.970 -0.1625 -0.2168  0.3953
15152SOL    HW151293   1.279   2.247  11.880 -0.3643 -1.2810  0.7447
15152SOL    HW251294   1.217   2.321  11.997 -0.3422 -0.4208  0.2222
15153SOL     OW51295   0.010   5.975   4.088  0.1482  0.0387  0.4561
15153SOL    HW151296   0.076   5.947   4.152  0.1255  1.8747  1.3531
15153SOL    HW251297  -0.066   5.921   4.108  0.2037  0.4419  1.9157
15154SOL     OW51298   4.500   8.954  10.314  0.3478 -0.0852 -0.4643
15154SOL    HW151299   4.469   8.873  10.355 -0.8581  0.0592 -1.0235
15154SOL    HW251300   4.588   8.934  10.283  0.9988 -0.4345  1.4650
15155SOL     OW51301  10.483  10.629   0.004  0.3370  0.7749 -0.2286
15155SOL    HW151302  10.433  10.707  -0.018 -0.5020  0.1530 -0.5435
15155SOL    HW251303  10.499  10.586  -0.080  1.5091  1.0145 -0.1521
15156SOL     OW51304  10.040   8.708   4.923 -0.1916  0.4998  0.1597
15156SOL    HW151305   9.945   8.714   4.914 -0.2554 -1.3228 -0.9239
15156SOL    HW251306  10.073   8.790   4.886 -1.2655 -0.0516 -2.2048
15157SOL     OW51307   6.706  12.190   8.731 -0.3693 -0.0669 -0.1288
15157SOL    HW151308   6.732  12.190   8.638  0.4200  1.5418  0.0474
15157SOL    HW251309   6.611  12.206   8.729 -0.6419 -1.5721 -0.6692
15158SOL     OW51310   7.589   4.592  12.266 -0.1512  0.8034 -0.5648
15158SOL    HW151311   7.503   4.624  12.241 -0.9681 -0.1344  0.8477
15158SOL    HW251312   7.615   4.647  12.340 -0.0023  0.4443 -0.3451
15159SOL     OW51313   4.246  10.383   3.110 -0.0340 -0.3470  0.3622
15159SOL    HW151314   4.189  10.351   3.180 -0.5146  0.8461  0.5440
15159SOL    HW251315   4.333  10.382   3.148 -0.3619  0.7978  1.1758
15160SOL     OW51316   8.029   2.495   3.069 -0.3400 -0.2585  0.4099
15160SOL    HW151317   8.084   2.573   3.082  1.0191 -1.3065  1.3158
15160SOL    HW251318   7.987   2.509   2.984 -1.0133  1.9497  1.0382
15161SOL     OW51319   9.806   7.509   7.295 -0.3519  0.1691 -0.4045
15161SOL    HW151320   9.745   7.511   7.369 -0.5664  0.9118 -0.6014
15161SOL    HW251321   9.835   7.418   7.292 -0.4869  0.0834  0.4761
15162SOL     OW51322  10.082  11.345   2.186  0.2785  0.3036 -0.3918
15162SOL    HW151323  10.121  11.415   2.238 -0.1220  0.0878  0.2089
15162SOL    HW251324  10.156  11.293   2.156  0.6200  1.2730 -1.2768
15163SOL     OW51325   6.207   5.022   7.015  0.0323 -0.2189  0.3243
15163SOL    HW151326   6.117   5.002   7.041  0.1015 -0.1762  0.6029
15163SOL    HW251327   6.204   5.114   6.990  0.5213  0.5150  2.7803
15164SOL     OW51328   0.643   7.802   1.773 -0.0556  0.1254 -0.1538
15164SOL    HW151329   0.599   7.887   1.782 -1.6874 -0.7849  0.6860
15164SOL    HW251330   0.618   7.753   1.851  2.7690 -0.3461  0.5655
15165SOL     OW51331  11.327  12.036   1.487  0.0312  0.4092  0.3760
15165SOL    HW151332  11.251  11.983   1.514 -0.7055  0.2264 -1.8584
15165SOL    HW251333  11.402  11.981   1.508 -0.7407 -2.4978 -3.3805
15166SOL     OW51334   2.299   7.156   6.329 -0.4095 -0.4441 -0.0894
15166SOL    HW151335   2.335   7.164   6.417 -0.6457  0.0302 -0.0376
15166SOL    HW251336   2.211   7.195   6.334 -0.2540 -0.0068 -0.6394
15167SOL     OW51337  11.129  11.240   5.102  0.3796 -0.0003 -0.7408
15167SOL    HW151338  11.182  11.269   5.176  0.2700 -0.5762 -0.4272
15167SOL    HW251339  11.066  11.311   5.088 -0.7867 -0.6428  0.9021
15168SOL     OW51340   0.916   3.818   9.074 -0.0517  0.3639  0.2789
15168SOL    HW151341   0.851   3.748   9.084 -1.1802  1.4157  0.5631
15168SOL    HW251342   0.887   3.866   8.996  0.0097  1.2236  0.7754
15169SOL     OW51343  11.712   7.339   5.002 -0.1811  0.8157 -0.6616
15169SOL    HW151344  11.751   7.425   5.015  0.2834  0.2830  2.0715
15169SOL    HW251345  11.617   7.356   4.999 -0.1803  1.3879  1.0978
15170SOL     OW51346  11.912   9.609   8.748  0.3386  0.1604  0.4774
15170SOL    HW151347  11.950   9.650   8.671  1.1143 -0.5437  0.4764
15170SOL    HW251348  11.979   9.549   8.780 -0.1549  0.0826  1.4206
15171SOL     OW51349   7.842   9.499  12.279  0.1319  0.1998 -0.2334
15171SOL    HW151350   7.879   9.413  12.298  0.3148  0.0921 -1.0226
15171SOL    HW251351   7.787   9.519  12.355  0.6649 -0.2828  0.2900
15172SOL     OW51352   4.863   7.272   8.498  0.4263 -0.3627  0.2891
15172SOL    HW151353   4.800   7.236   8.436 -0.3147 -1.2678  1.5178
15172SOL    HW251354   4.949   7.258   8.457 -0.0097 -1.3983 -0.2954
15173SOL     OW51355   6.326   6.998   6.443  0.0944 -0.4404 -0.3302
15173SOL    HW151356   6.403   6.958   6.403  1.4326 -0.3129  1.9843
15173SOL    HW251357   6.325   6.964   6.533 -2.5918 -0.4633 -0.2986
15174SOL     OW51358   7.549  11.842   2.917  0.2279  0.1597  0.0328
15174SOL    HW151359   7.520  11.812   3.003  0.1524 -0.2048 -0.1144
15174SOL    HW251360   7.488  11.801   2.856  0.0975  0.6598 -0.1727
15175SOL     OW51361   5.064   0.286   7.344  0.7585 -0.0823 -0.3786
15175SOL    HW151362   5.082   0.257   7.433 -2.0923 -0.8592  0.0480
15175SOL    HW251363   5.024   0.210   7.302 -1.5472  1.3988 -1.0593
15176SOL     OW51364   7.857  11.237   1.018  0.3513 -0.4505  0.1651
15176SOL    HW151365   7.876  11.200   0.932  0.6566 -0.3716  0.1971
15176SOL    HW251366   7.920  11.308   1.028 -0.5494  0.4118 -0.1119
15177SOL     OW51367  10.988   4.915   3.116 -0.1719 -0.1129 -0.0156
15177SOL    HW151368  11.020   4.893   3.204  0.9780 -1.0289 -0.6303
15177SOL    HW251369  10.971   4.830   3.075 -0.0237  0.2803 -0.9151
15178SOL     OW51370   6.092   7.454   5.181 -0.6587  0.1691 -0.0321
15178SOL    HW151371   6.025   7.409   5.130  0.1436  1.8148 -2.7040
15178SOL    HW251372   6.043   7.497   5.252 -1.8877 -1.6513  0.2766
15179SOL     OW51373   9.589   3.754   3.564  0.5760  0.6807  0.6909
15179SOL    HW151374   9.569   3.833   3.514  1.7940  0.9465  0.5862
15179SOL    HW251375   9.562   3.682   3.508 -1.6151  0.9938  1.2448
15180SOL     OW51376   3.986   5.581   8.430 -0.2376  0.0671  0.3065
15180SOL    HW151377   3.954   5.491   8.437 -1.0577  0.3283  0.0764
15180SOL    HW251378   3.916   5.627   8.383 -0.6473  1.2139  1.9278
15181SOL     OW51379   3.493   3.837   0.013 -0.3550  0.4158 -0.0940
15181SOL    HW151380   3.564   3.901   0.020 -1.0628  1.3278 -0.9611
15181SOL    HW251381   3.498   3.787   0.095  2.0891 -0.4464 -0.6753
15182SOL     OW51382   9.728   1.810   0.002  0.7733 -0.2444 -0.2608
15182SOL    HW151383   9.699   1.849  -0.080 -0.3263  0.8142  0.5829
15182SOL    HW251384   9.749   1.885   0.058 -2.1240 -0.6876  1.6684
15183SOL     OW51385  11.466   9.926   9.813 -0.3037 -0.2556  0.4756
15183SOL    HW151386  11.501   9.963   9.893  1.2072  0.5804 -0.5136
15183SOL    HW251387  11.455   9.833   9.832  0.3452 -0.1258  1.5383
15184SOL     OW51388   8.631   4.979   7.890  0.1798  0.0610  0.0397
15184SOL    HW151389   8.720   5.013   7.884  0.3765 -0.2670  0.9044
15184SOL    HW251390   8.624   4.945   7.980 -0.9245  0.3797  0.0892
15185SOL     OW51391   3.106   5.623   5.491 -0.4809 -0.0871  0.3108
15185SOL    HW151392   3.045   5.555   5.463 -0.5750 -0.1574  0.6750
15185SOL    HW251393   3.121   5.676   5.413 -0.8968 -0.1529  0.1833
15186SOL     OW51394   0.591   7.181   6.504 -0.2564  0.2466 -0.1642
15186SOL    HW151395   0.590   7.267   6.462  3.0046  1.0622  1.0829
15186SOL    HW251396   0.568   7.199   6.595  3.1195  0.4589  0.7929
15187SOL     OW51397   7.557   8.411   5.733 -0.4186 -0.0637  0.4961
15187SOL    HW151398   7.610   8.380   5.807 -1.2421 -0.2981  1.0014
15187SOL    HW251399   7.605   8.487   5.700  0.3037 -0.3543  0.8577
15188SOL     OW51400  11.847  10.105   8.031 -0.5685 -0.0333 -0.0288
15188SOL    HW151401  11.918  10.169   8.042 -0.6649  0.4334 -1.8374
15188SOL    HW251402  11.891  10.021   8.030 -0.3431  0.0418  1.4894
15189SOL     OW51403   6.927   1.893   7.708 -0.3147 -0.0549 -0.2184
15189SOL    HW151404   7.002   1.924   7.657  1.1724 -1.8682  0.7419
15189SOL    HW251405   6.921   1.954   7.781 -0.2585  0.5409 -0.7037
15190SOL     OW51406   4.628   5.310   4.223  0.0025 -0.6479 -0.6768
15190SOL    HW151407   4.558   5.373   4.240 -0.2967 -1.4925  1.5832
15190SOL    HW251408   4.630   5.301   4.128 -2.2681  0.1803 -0.8628
15191SOL     OW51409   1.915   4.548   7.218 -0.2334 -0.1048 -0.3773
15191SOL    HW151410   2.001   4.581   7.245 -0.2442  0.3188 -0.8457
15191SOL    HW251411   1.909   4.460   7.257 -0.6529  0.8393  1.8114
15192SOL     OW51412   0.109  11.178   1.504  0.2826  0.9515  0.2344
15192SOL    HW151413   0.194  11.220   1.490  0.3411  0.6749 -0.2922
15192SOL    HW251414   0.055  11.209   1.431 -0.0945  1.1874  0.6113
15193SOL     OW51415   0.643   4.520   4.136 -0.0299  0.1109 -0.4253
15193SOL    HW151416   0.718   4.572   4.107  0.8820 -0.9954 -0.1320
15193SOL    HW251417   0.682   4.452   4.191 -1.3557  0.0670  0.4806
15194SOL     OW51418   1.858   5.942   5.588 -0.6749  0.3512 -0.3772
15194SOL    HW151419   1.810   6.023   5.606  0.2946  0.6990  0.7854
15194SOL    HW251420   1.891   5.914   5.673  0.1969 -0.4895 -0.9717
15195SOL     OW51421  10.005   8.979   5.959  0.0089  0.2814 -0.1140
15195SOL    HW151422   9.920   8.943   5.934  0.1144  0.3070 -0.5071
15195SOL    HW251423   9.993   9.005   6.051  0.1950 -1.5480  0.4757
15196SOL     OW51424   2.629   0.810   5.884 -0.3182 -0.6075 -0.5805
15196SOL    HW151425   2.611   0.717   5.898 -1.8041 -0.3135 -0.3050
15196SOL    HW251426   2.667   0.815   5.797 -1.3998 -1.3603 -1.1085
15197SOL     OW51427   6.395   4.346   6.620  0.2060  0.2728  0.4942
15197SOL    HW151428   6.461   4.360   6.687  1.0044 -0.8951 -0.0145
15197SOL    HW251429   6.410   4.257   6.589 -1.0028  0.3095 -0.3035
15198SOL     OW51430   5.850   8.284   8.562  0.3118  0.2302 -0.5193
15198SOL    HW151431   5.892   8.202   8.537  0.9120  0.0899  0.8897
15198SOL    HW251432   5.861   8.290   8.657 -1.9368  0.7105 -0.2187
15199SOL     OW51433   9.858   0.708   5.357  0.1360  0.3618  0.5053
15199SOL    HW151434   9.898   0.622   5.343 -0.6083 -0.3809  2.6127
15199SOL    HW251435   9.932   0.765   5.381  0.4799  0.0367  0.2276
15200SOL     OW51436   9.096   6.874   8.794  0.1610 -0.6011 -0.8055
15200SOL    HW151437   9.084   6.878   8.699  0.3151  0.5461 -0.7880
15200SOL    HW251438   9.052   6.952   8.827  0.2850 -0.8863  0.0508
15201SOL     OW51439   9.067   7.402   6.338  0.4563 -0.3918 -0.2872
15201SOL    HW151440   9.154   7.421   6.302  0.6592  0.4039  0.5749
15201SOL    HW251441   9.085   7.356   6.420  0.0514 -0.3369 -0.1672
15202SOL     OW51442   5.261   0.751   5.819 -0.4197  0.3161  0.3666
15202SOL    HW151443   5.244   0.690   5.748 -1.2304  2.0916 -1.0443
15202SOL    HW251444   5.270   0.836   5.776  0.4930  1.2394  2.2643
15203SOL     OW51445   3.984   0.982   2.339 -0.5027 -0.0025 -0.3705
15203SOL    HW151446   4.034   1.048   2.291  0.2407 -0.4756 -0.2609
15203SOL    HW251447   4.012   0.898   2.303  0.4570 -0.4040  1.1992
15204SOL     OW51448   6.770   2.939   7.331  0.4111 -0.4152  0.3333
15204SOL    HW151449   6.804   2.972   7.248  0.6986 -0.0857  0.5817
15204SOL    HW251450   6.807   2.997   7.397  0.2063 -0.6946  0.6964
15205SOL     OW51451   6.696  10.464   1.565  0.4096 -0.4711  0.0754
15205SOL    HW151452   6.680  10.558   1.574  2.2312 -0.3161  3.6730
15205SOL    HW251453   6.789  10.458   1.542  0.7481 -1.3388  1.5492
15206SOL     OW51454   9.768   0.260   0.451  0.2777 -0.0249 -0.3647
15206SOL    HW151455   9.746   0.279   0.360 -0.3144  0.0912 -0.1972
15206SOL    HW251456   9.800   0.170   0.449 -0.8525 -0.4301 -0.5002
15207SOL     OW51457   9.739   9.242  11.003 -0.0151 -0.4454  0.3653
15207SOL    HW151458   9.823   9.256  10.961 -0.0737 -0.4130  0.2596
15207SOL    HW251459   9.675   9.246  10.932  0.0987 -3.0810 -0.0134
15208SOL     OW51460  11.033   5.491   4.427 -0.2314  1.0034  0.2504
15208SOL    HW151461  10.990   5.444   4.355  1.4892  3.2802 -2.4558
15208SOL    HW251462  11.075   5.422   4.479 -1.0241 -0.7000 -1.2542
15209SOL     OW51463   4.245   0.007  12.166 -0.2227  0.3741 -0.1132
15209SOL    HW151464   4.162  -0.028  12.135  0.0666 -0.3477 -0.0977
15209SOL    HW251465   4.223   0.092  12.206 -1.1330 -0.3683  1.0133
15210SOL     OW51466   2.722  10.137  11.894 -0.3826 -0.0449 -0.3714
15210SOL    HW151467   2.774  10.058  11.904 -0.4302  0.0231  0.5263
15210SOL    HW251468   2.637  10.115  11.932 -0.6021  0.2381 -0.6890
15211SOL     OW51469   8.869   0.358  12.313 -1.0863  0.1475 -0.2454
15211SOL    HW151470   8.929   0.291  12.281  1.2380  1.0257  1.9620
15211SOL    HW251471   8.799   0.360  12.248  0.4368 -2.0670 -2.1181
15212SOL     OW51472   4.264  10.096   3.898 -0.0097  0.3761  0.0241
15212SOL    HW151473   4.306  10.071   3.980 -1.9516 -3.5174  0.0654
15212SOL    HW251474   4.210  10.172   3.920 -0.5024 -0.5876  2.4347
15213SOL     OW51475   4.504   4.048   2.082 -0.2147 -0.4648  0.2173
15213SOL    HW151476   4.507   3.988   2.008  0.3263 -2.1927  1.5670
15213SOL    HW251477   4.490   4.134   2.043 -2.7121 -1.6188 -1.7185
15214SOL     OW51478  12.278   0.793   2.320  0.0794  0.4833  0.3619
15214SOL    HW151479  12.287   0.885   2.294 -1.9883  0.1099 -2.0985
15214SOL    HW251480  12.350   0.748   2.276  0.7983  0.8329  1.1622
15215SOL     OW51481  11.938  11.671   7.010  0.4400 -0.7352  0.5510
15215SOL    HW151482  11.965  11.591   6.964 -1.2303 -1.0598  0.0464
15215SOL    HW251483  11.886  11.719   6.945 -0.1721 -0.1605  1.4542
15216SOL     OW51484   6.474  12.013   3.347 -0.0559 -0.6909 -0.4645
15216SOL    HW151485   6.491  11.927   3.309  1.9471 -0.3568 -0.4416
15216SOL    HW251486   6.496  12.075   3.278  1.5252 -0.1367  0.4814
15217SOL     OW51487   6.865  12.035   7.980  0.3894 -0.4620  0.1734
15217SOL    HW151488   6.807  12.107   7.954 -0.3135 -0.9069  0.4869
15217SOL    HW251489   6.816  11.955   7.958  0.6513 -0.8459  0.9421
15218SOL     OW51490  12.163   1.084   8.971 -0.5690 -0.2563  0.0807
15218SOL    HW151491  12.175   1.102   9.064 -0.5555 -1.1594  0.2581
15218SOL    HW251492  12.197   1.162   8.927  0.2779 -0.2002  0.8012
15219SOL     OW51493   3.628   1.393   6.042  0.1828  0.6123  0.1020
15219SOL    HW151494   3.562   1.336   6.001 -0.6324  0.3201  1.7154
15219SOL    HW251495   3.636   1.466   5.982 -0.9349  0.1920 -0.6098
15220SOL     OW51496  11.141  11.117   9.147 -0.0619  0.2174 -0.3841
15220SOL    HW151497  11.214  11.135   9.088 -0.5769  2.2011 -0.4604
15220SOL    HW251498  11.180  11.067   9.218  1.8805  2.9455  0.6346
15221SOL     OW51499   5.994   0.639   5.354 -0.6389 -0.0224 -0.2637
15221SOL    HW151500   5.962   0.689   5.279  0.8122  1.4078  0.0344
15221SOL    HW251501   6.047   0.570   5.316 -0.2828  0.4197 -0.5809
15222SOL     OW51502   0.164   6.776   9.543  0.0681  0.0473  0.5688
15222SOL    HW151503   0.070   6.771   9.528  0.0720  1.1188  0.1014
15222SOL    HW251504   0.174   6.848   9.606  0.4961 -0.8238  1.5385
15223SOL     OW51505   7.847  10.979   2.695 -0.1071  0.2135  0.4353
15223SOL    HW151506   7.765  11.024   2.672  0.4086  0.8242 -0.2552
15223SOL    HW251507   7.855  10.909   2.631  0.8393  1.3178 -0.7177
15224SOL     OW51508   8.298   9.118  10.411  0.6503  0.4971  0.0588
15224SOL    HW151509   8.207   9.112  10.381  0.3810 -1.0396  1.0931
15224SOL    HW251510   8.346   9.148  10.335 -0.6786  1.0706 -0.5941
15225SOL     OW51511   7.676   1.837   6.716  0.3906  0.0214  0.2114
15225SOL    HW151512   7.672   1.747   6.746 -1.7881 -1.0898 -2.8856
15225SOL    HW251513   7.749   1.839   6.653  0.8765  0.6437  0.7721
15226SOL     OW51514   1.495   8.754   8.932  0.1267  0.1894  0.8308
15226SOL    HW151515   1.461   8.742   9.021 -0.8158 -0.5925  0.3814
15226SOL    HW251516   1.444   8.826   8.896 -0.6619 -0.5996  0.3552
15227SOL     OW51517   9.247   7.965   8.974  0.6095 -0.4042 -0.0579
15227SOL    HW151518   9.200   7.909   9.035 -0.9963  0.1358 -0.7352
15227SOL    HW251519   9.192   8.044   8.968  1.4450  0.1166 -1.1322
15228SOL     OW51520   5.044   2.267   7.055 -0.1121 -0.3497  0.1464
15228SOL    HW151521   5.029   2.174   7.039  2.3433 -1.4352  2.9861
15228SOL    HW251522   4.985   2.289   7.127 -3.5821  1.5837 -2.9449
15229SOL     OW51523   4.117   4.439   7.209  0.3119 -0.0123 -0.0949
15229SOL    HW151524   4.145   4.396   7.290 -0.3256 -0.2454  0.0112
15229SOL    HW251525   4.038   4.392   7.183  0.4443  0.1361 -0.7944
15230SOL     OW51526   8.239   0.625   5.417  0.2348 -0.3611 -0.0537
15230SOL    HW151527   8.273   0.691   5.476  1.3574 -1.3243  0.4151
15230SOL    HW251528   8.146   0.648   5.407  0.9254  2.2243 -1.2488
15231SOL     OW51529   6.829   9.587   9.200  0.5635 -0.0338 -0.1927
15231SOL    HW151530   6.855   9.622   9.115 -0.7552  1.8216  0.1202
15231SOL    HW251531   6.911   9.577   9.248  1.5885 -2.9388 -2.2209
15232SOL     OW51532  12.164   1.446   1.305  0.2745 -0.4265  0.1738
15232SOL    HW151533  12.119   1.362   1.319 -0.7035  0.0522 -0.0196
15232SOL    HW251534  12.185   1.446   1.212  1.0400 -0.8154  0.3364
15233SOL     OW51535   8.504   0.343   5.206 -0.0421 -0.6085 -0.4835
15233SOL    HW151536   8.456   0.365   5.126 -0.0097 -0.8528 -0.5696
15233SOL    HW251537   8.508   0.248   5.206  0.2261 -0.5976 -0.3463
15234SOL     OW51538   2.062   0.389   8.380 -0.5454  0.6218 -0.5888
15234SOL    HW151539   2.141   0.338   8.397 -1.4502 -1.4751 -2.1976
15234SOL    HW251540   2.087   0.450   8.311 -0.0976  0.6050 -0.4457
15235SOL     OW51541   7.210   6.350   7.193 -0.5399  0.6181  0.2342
15235SOL    HW151542   7.137   6.412   7.188 -0.4179  0.9188  1.7132
15235SOL    HW251543   7.283   6.394   7.149 -1.3615  0.0841 -1.7746
15236SOL     OW51544   8.283   2.832   5.883  0.2348  0.2847 -0.0460
15236SOL    HW151545   8.263   2.747   5.846  0.7798  0.0779  0.1150
15236SOL    HW251546   8.348   2.813   5.952  1.1854  0.9326 -0.7351
15237SOL     OW51547   2.394   8.343   6.021 -0.0062 -0.1967  0.3262
15237SOL    HW151548   2.348   8.358   5.938  0.4073 -0.7071 -0.0013
15237SOL    HW251549   2.413   8.249   6.020 -0.0357 -0.2090  1.0230
15238SOL     OW51550   0.114  10.981   1.957  0.0616  0.1185 -0.0349
15238SOL    HW151551   0.030  10.938   1.943  0.4880 -1.2277  1.2696
15238SOL    HW251552   0.096  11.051   2.019  0.2369 -1.6391  2.1142
15239SOL     OW51553   2.079   9.476   2.202 -0.0898 -0.4996 -0.1382
15239SOL    HW151554   2.080   9.380   2.203 -4.0417 -0.6948  0.5250
15239SOL    HW251555   2.001   9.500   2.252  1.1239  3.1462  0.2917
15240SOL     OW51556   0.901   2.161  11.428  0.1120  0.4137  0.5956
15240SOL    HW151557   0.866   2.103  11.360  0.8304  0.6467  0.0068
15240SOL    HW251558   0.928   2.240  11.380 -0.1075  0.9113  1.2700
15241SOL     OW51559   0.284   1.815   9.495  0.1446 -0.0741  0.2050
15241SOL    HW151560   0.325   1.736   9.460  0.0355 -0.3428  0.6759
15241SOL    HW251561   0.195   1.813   9.460  0.4852  0.4460 -0.7185
15242SOL     OW51562   7.435   8.735   1.536 -0.0756 -0.1475 -0.1551
15242SOL    HW151563   7.505   8.702   1.480 -0.7191  0.7877 -1.5488
15242SOL    HW251564   7.481   8.779   1.608  0.7757  0.0260 -0.7875
15243SOL     OW51565   2.816   1.913   3.864  0.3237 -0.3400 -0.2297
15243SOL    HW151566   2.757   1.854   3.910 -0.6864  0.8230  0.0252
15243SOL    HW251567   2.821   1.879   3.775 -2.0090  0.3917 -0.7071
15244SOL     OW51568   3.970   3.202   5.988  0.5530  0.5298  0.8487
15244SOL    HW151569   3.955   3.140   6.059 -1.1205  0.0013  0.0824
15244SOL    HW251570   3.940   3.156   5.909  1.7212  1.3603 -0.1143
15245SOL     OW51571   0.230   6.480   2.770 -0.4233 -0.2049  0.6036
15245SOL    HW151572   0.302   6.433   2.811  0.0301  0.2440  0.3373
15245SOL    HW251573   0.257   6.490   2.679 -0.3749  0.8154  0.7185
15246SOL     OW51574   1.504   4.025   1.196  0.0509  0.1862 -0.7000
15246SOL    HW151575   1.499   4.090   1.266  0.4706 -0.0514 -0.4442
15246SOL    HW251576   1.415   4.017   1.163 -0.1771  0.1773 -0.0768
15247SOL     OW51577   2.364  10.009   7.957 -0.9101  0.4387 -0.2536
15247SOL    HW151578   2.285  10.049   7.921 -1.4679  0.4704  0.9353
15247SOL    HW251579   2.391  10.069   8.027 -0.8636 -0.4562  0.5172
15248SOL     OW51580   7.331   8.891   6.288  0.3472 -0.3590 -0.4423
15248SOL    HW151581   7.402   8.839   6.327  0.8766  2.1760  2.3528
15248SOL    HW251582   7.255   8.873   6.343 -0.2630 -0.3852 -1.2783
15249SOL     OW51583   4.011   2.933   3.933 -0.3271  0.4730 -0.0230
15249SOL    HW151584   3.928   2.909   3.892 -0.0105  1.8192 -1.5612
15249SOL    HW251585   3.988   2.956   4.023 -1.4583 -0.1284 -0.1436
15250SOL     OW51586  10.771   4.897   8.124  0.3837  0.1685 -0.2005
15250SOL    HW151587  10.714   4.973   8.113 -1.8887 -1.3264  0.4613
15250SOL    HW251588  10.791   4.869   8.035 -0.2766  0.4793 -0.4549
15251SOL     OW51589   1.146   0.647   6.506 -0.2213 -0.2614  0.1228
15251SOL    HW151590   1.175   0.561   6.476 -1.1816 -0.9128  0.9910
15251SOL    HW251591   1.051   0.648   6.491 -0.5443 -0.1464  1.8998
15252SOL     OW51592   3.713   1.507   6.389  0.1105  0.1683 -0.3240
15252SOL    HW151593   3.673   1.422   6.374 -0.1548  0.2397 -0.0299
15252SOL    HW251594   3.804   1.487   6.411 -0.0390 -0.0618  0.0945
15253SOL     OW51595   9.031   0.125   5.849 -0.7552 -0.2158  0.7808
15253SOL    HW151596   9.119   0.090   5.835 -0.5678  0.1566  1.0311
15253SOL    HW251597   9.036   0.174   5.931 -1.1383 -0.0021  0.6825
15254SOL     OW51598   9.958   7.818   7.380  0.7740  0.1667  0.3251
15254SOL    HW151599   9.943   7.776   7.296  1.2849  0.8069 -0.0996
15254SOL    HW251600   9.876   7.807   7.428  0.0956  0.7235 -0.6640
15255SOL     OW51601  11.358   0.025   4.946  0.2001  0.4414  0.0234
15255SOL    HW151602  11.395   0.092   4.889  0.8777  0.9576  1.0382
15255SOL    HW251603  11.433  -0.019   4.984 -0.2421 -0.4157 -0.0649
15256SOL     OW51604  10.400   9.388  11.880 -0.3293  0.3355 -0.4219
15256SOL    HW151605  10.345   9.399  11.958  0.2850 -0.2731  0.1112
15256SOL    HW251606  10.448   9.470  11.873 -0.0033  0.2027  0.1573
15257SOL     OW51607   8.362   7.377   1.517 -0.5141  0.1295  0.2630
15257SOL    HW151608   8.429   7.416   1.461  0.4459 -1.1579  0.4690
15257SOL    HW251609   8.281   7.421   1.491  0.4994  2.3817  0.6280
15258SOL     OW51610   4.262   4.155   4.682 -0.5850 -0.1261  0.4319
15258SOL    HW151611   4.342   4.203   4.703 -0.3004 -0.5805  0.4104
15258SOL    HW251612   4.201   4.222   4.650  0.4384 -0.0031 -1.4332
15259SOL     OW51613   4.737   5.641   0.304 -0.3143  0.6423  0.0149
15259SOL    HW151614   4.659   5.594   0.335 -0.7633  1.2479 -0.1751
15259SOL    HW251615   4.789   5.574   0.260 -0.4696  0.1209  0.6126
15260SOL     OW51616  12.183   7.840   3.850  0.2798  0.0556 -0.0143
15260SOL    HW151617  12.098   7.803   3.872  0.4389 -0.1539  0.2587
15260SOL    HW251618  12.221   7.864   3.934  0.5503  0.0133 -0.1229
15261SOL     OW51619  10.848   9.542   2.696 -0.0042 -0.0275  0.4534
15261SOL    HW151620  10.848   9.636   2.683 -1.3615 -0.0907 -0.1832
15261SOL    HW251621  10.933   9.513   2.665  0.1118  0.8943 -0.1058
15262SOL     OW51622   2.908   0.016   6.486 -0.2657 -0.0180 -0.2807
15262SOL    HW151623   2.932  -0.029   6.567 -0.3938  0.4038 -0.0062
15262SOL    HW251624   2.919  -0.050   6.418 -0.9183 -0.6121  0.1742
15263SOL     OW51625   7.336   2.570   0.852 -0.1024  0.2173  0.5411
15263SOL    HW151626   7.266   2.603   0.907  0.5179  0.6487  1.0962
15263SOL    HW251627   7.292   2.522   0.781 -0.9334  0.3474  0.9645
15264SOL     OW51628   8.780   6.330  11.455 -0.2237 -0.0324  0.3914
15264SOL    HW151629   8.743   6.259  11.507 -0.1456 -0.5894 -0.2946
15264SOL    HW251630   8.786   6.404  11.515 -1.0085 -0.3877  0.9128
15265SOL     OW51631  10.257   0.438   9.816 -0.4304 -0.3002 -0.2592
15265SOL    HW151632  10.180   0.461   9.765  0.1753 -1.2892 -1.6942
15265SOL    HW251633  10.330   0.477   9.769 -0.0892  1.9765  1.9234
15266SOL     OW51634   5.353   1.214  11.667  0.2261  0.1878  0.1467
15266SOL    HW151635   5.313   1.207  11.580  0.0640  1.5376  0.0920
15266SOL    HW251636   5.281   1.241  11.724  0.5264  0.2042  0.5214
15267SOL     OW51637   8.901  10.058  11.688  0.0309  0.1424 -0.5436
15267SOL    HW151638   8.913  10.146  11.652  1.5225 -0.5515 -1.8461
15267SOL    HW251639   8.984  10.039  11.732 -0.4258 -0.4717  0.0629
15268SOL     OW51640   4.891  10.393   0.878 -0.3556 -0.1623 -0.1913
15268SOL    HW151641   4.952  10.438   0.937  0.3427 -1.3926  0.0647
15268SOL    HW251642   4.819  10.455   0.866  0.0887  0.6143  0.9597
15269SOL     OW51643   3.850   7.634   7.544  0.3057 -0.3015  0.0566
15269SOL    HW151644   3.851   7.644   7.449  0.5186  1.3018  0.1921
15269SOL    HW251645   3.781   7.571   7.562  1.7951 -2.4528 -1.2814
15270SOL     OW51646   5.504   4.389   0.629  0.1111  0.5316  0.4611
15270SOL    HW151647   5.419   4.419   0.596  0.0526  0.3498  0.4464
15270SOL    HW251648   5.555   4.370   0.550 -0.3015 -0.6774  0.4570
15271SOL     OW51649  10.648   8.734   1.814  0.0815 -0.2576 -0.0238
15271SOL    HW151650  10.663   8.793   1.740 -0.2569  0.1397  0.2228
15271SOL    HW251651  10.653   8.646   1.776  1.4312 -0.1134 -0.2483
15272SOL     OW51652   9.809   9.847  12.064 -0.6900  0.2862  0.0812
15272SOL    HW151653   9.879   9.852  12.129 -0.6866 -0.0650  0.1046
15272SOL    HW251654   9.752   9.922  12.085 -1.9072 -1.0488  1.9156
15273SOL     OW51655   2.795   7.951   0.808  0.1007 -0.7615 -0.2763
15273SOL    HW151656   2.813   7.921   0.718  0.5719 -0.4874 -0.2794
15273SOL    HW251657   2.789   8.046   0.800  2.3302 -0.5082  0.3110
15274SOL     OW51658   0.948   9.632   3.685 -0.1180 -0.3487 -0.1534
15274SOL    HW151659   1.011   9.632   3.758 -0.9936 -1.4284  0.6222
15274SOL    HW251660   0.996   9.592   3.612  1.1011  1.6324 -0.5189
15275SOL     OW51661  10.265   3.109   0.541  1.0368 -0.1725 -0.2426
15275SOL    HW151662  10.257   3.155   0.458 -0.0458  0.4767  0.2008
15275SOL    HW251663  10.204   3.036   0.534  1.5915 -0.6362 -0.3394
15276SOL     OW51664   3.446   1.429   7.397 -0.4384 -0.1439 -0.1246
15276SOL    HW151665   3.502   1.476   7.335 -1.6963  1.4494 -0.1147
15276SOL    HW251666   3.471   1.464   7.482 -1.7618  0.9878 -0.1654
15277SOL     OW51667   1.262  12.099   5.055 -0.2936  0.3108 -0.3282
15277SOL    HW151668   1.306  12.018   5.080  0.8542  1.2298  0.7393
15277SOL    HW251669   1.243  12.142   5.138  2.3183  2.7555 -0.8401
15278SOL     OW51670   6.265   8.035   9.735 -0.0461 -0.0749 -0.1117
15278SOL    HW151671   6.295   8.102   9.673  0.8820 -0.7323 -0.3943
15278SOL    HW251672   6.297   8.065   9.820  2.5126 -1.3061 -0.5394
15279SOL     OW51673   8.889   1.393   0.252  0.7255  0.0451 -0.5856
15279SOL    HW151674   8.804   1.421   0.286  0.1621 -0.5165 -1.4956
15279SOL    HW251675   8.907   1.311   0.297  1.3139  0.6882  0.4022
15280SOL     OW51676   5.829   5.531   1.880  0.9245  0.1690 -0.2563
15280SOL    HW151677   5.755   5.587   1.861  1.0050 -0.1394 -1.5531
15280SOL    HW251678   5.868   5.512   1.795  2.5703  0.4216  0.3933
15281SOL     OW51679   2.989   1.652   2.266  0.2181  0.0468 -0.1729
15281SOL    HW151680   3.015   1.742   2.249 -0.2374  0.4537  1.1855
15281SOL    HW251681   3.071   1.602   2.257  0.6921  0.7520  0.1352
15282SOL     OW51682   3.315   2.754   8.630 -0.7620 -0.2403 -0.9062
15282SOL    HW151683   3.395   2.774   8.679 -2.1480  1.8716  0.6604
15282SOL    HW251684   3.332   2.786   8.542  0.6179 -1.2012 -1.0290
15283SOL     OW51685   8.819   9.050   1.951 -0.0891 -1.2705 -0.6940
15283SOL    HW151686   8.908   9.014   1.952  0.0767 -0.8814 -0.9919
15283SOL    HW251687   8.763   8.974   1.934  0.3343 -1.2678 -2.3517
15284SOL     OW51688   0.224  11.950   7.855 -0.2511  0.0943 -0.4013
15284SOL    HW151689   0.312  11.975   7.827 -0.6888  2.0364 -0.2206
15284SOL    HW251690   0.192  11.893   7.785  1.8797 -2.5307  0.5772
15285SOL     OW51691   3.082   4.216   0.381  0.2400  0.3345 -0.3604
15285SOL    HW151692   3.060   4.146   0.442  0.1514  0.5286 -0.1691
15285SOL    HW251693   3.017   4.209   0.311  0.1704  0.2883 -0.2909
15286SOL     OW51694  10.642  11.378   0.541  0.0420 -0.5044 -0.6348
15286SOL    HW151695  10.657  11.468   0.570  0.2952 -0.8779  0.4572
15286SOL    HW251696  10.685  11.372   0.456  1.8103 -0.1343  0.1785
15287SOL     OW51697  10.338   7.320   7.019  0.1003 -0.3172  0.0836
15287SOL    HW151698  10.375   7.233   7.030  0.9928  0.2538  2.0849
15287SOL    HW251699  10.389   7.376   7.078  0.4870  1.8613 -2.1536
15288SOL     OW51700   5.235   2.145   0.825 -0.0075  0.8442 -0.2296
15288SOL    HW151701   5.212   2.231   0.861  0.3595  0.9176 -0.1670
15288SOL    HW251702   5.319   2.124   0.865 -0.2800  0.2749  0.0541
15289SOL     OW51703   4.641   3.393   9.026 -0.2065  0.3227  0.0652
15289SOL    HW151704   4.603   3.305   9.024 -3.2134  1.5179 -1.3177
15289SOL    HW251705   4.708   3.391   8.957 -0.2618 -0.8372  0.0214
15290SOL     OW51706   3.666   4.995   5.574 -0.0199  0.0775 -0.1886
15290SOL    HW151707   3.716   4.944   5.511  0.1776 -0.2338  0.2078
15290SOL    HW251708   3.575   4.990   5.543  0.2304  0.8824 -1.0647
15291SOL     OW51709   5.581   2.397   9.245  0.5875  0.1009 -0.0806
15291SOL    HW151710   5.492   2.389   9.210  1.4789  0.5257 -2.6707
15291SOL    HW251711   5.576   2.359   9.333 -1.6882 -1.8466 -0.9473
15292SOL     OW51712   5.166   8.003   4.643  1.5581  0.5702  0.3339
15292SOL    HW151713   5.243   7.964   4.602  0.6181 -0.0329 -0.9042
15292SOL    HW251714   5.109   8.026   4.570  1.0125  1.9910  1.1797
15293SOL     OW51715   5.101   3.185   8.510  0.3484 -0.5683 -0.7570
15293SOL    HW151716   5.012   3.150   8.515  0.9160 -2.0032  0.1124
15293SOL    HW251717   5.096   3.271   8.551 -0.9205  0.0326 -2.0906
15294SOL     OW51718   1.984   3.639   3.462 -0.4978  0.7234 -0.5162
15294SOL    HW151719   1.929   3.717   3.475 -0.3512  0.6561  0.5849
15294SOL    HW251720   2.072   3.667   3.486 -0.4182  0.2634 -0.2496
15295SOL     OW51721  11.653   3.778   3.967  0.1931  0.1303 -0.0208
15295SOL    HW151722  11.664   3.696   3.918 -0.3950  0.6668 -1.0868
15295SOL    HW251723  11.690   3.759   4.053 -0.6966 -1.5420  0.0488
15296SOL     OW51724   9.074  11.374   3.718 -0.3907 -0.5208 -0.0452
15296SOL    HW151725   9.147  11.431   3.693  0.7506 -1.3618  1.2498
15296SOL    HW251726   9.039  11.412   3.798  1.1482 -2.1985  1.5203
15297SOL     OW51727   7.251   1.969  11.184  0.0635  0.2132 -0.0179
15297SOL    HW151728   7.300   1.888  11.190  0.1092  0.3116  1.0169
15297SOL    HW251729   7.314   2.038  11.204 -0.0898  0.4716 -0.4015
15298SOL     OW51730   1.264   1.262   3.889  0.0500  0.2226  0.1569
15298SOL    HW151731   1.324   1.194   3.860 -0.7250  0.5613 -2.5723
15298SOL    HW251732   1.313   1.311   3.955  1.1969 -1.9530  1.0448
15299SOL     OW51733   5.529   1.665   0.113 -0.6713 -0.0367  0.3318
15299SOL    HW151734   5.595   1.706   0.169 -1.0996  0.6784  0.3357
15299SOL    HW251735   5.553   1.573   0.109  0.8133  0.3449 -0.3323
15300SOL     OW51736   2.727   3.168   9.217  0.0084 -0.0792 -0.1586
15300SOL    HW151737   2.642   3.159   9.174 -0.0897  0.0320  0.0101
15300SOL    HW251738   2.787   3.118   9.162  0.2491  1.5555 -1.4663
15301SOL     OW51739   6.699   7.774  12.041  0.2313  0.6418 -0.1516
15301SOL    HW151740   6.710   7.700  11.982 -0.5625  1.3452 -1.2080
15301SOL    HW251741   6.672   7.846  11.985  0.0235  1.4828  0.9930
15302SOL     OW51742   1.381   9.463   6.915  0.1300 -0.5748  0.4466
15302SOL    HW151743   1.354   9.523   6.985 -1.8400 -0.7388 -0.1085
15302SOL    HW251744   1.427   9.519   6.852  0.1923 -0.0572  0.9424
15303SOL     OW51745   3.848   7.433   1.832 -0.2404  0.1248 -0.1680
15303SOL    HW151746   3.810   7.347   1.847 -2.1424  0.8491 -0.5061
15303SOL    HW251747   3.862   7.469   1.920  0.8924 -0.6404 -0.0214
15304SOL     OW51748   6.046   6.215   9.699 -0.4925  0.0848  0.0353
15304SOL    HW151749   6.113   6.251   9.756 -1.8400 -0.3757  1.9895
15304SOL    HW251750   6.092   6.197   9.617  2.0915 -1.5099  1.7118
15305SOL     OW51751  10.426   8.258  11.378  0.3968  0.1260  0.2840
15305SOL    HW151752  10.371   8.279  11.453 -0.8290  1.0797 -0.8223
15305SOL    HW251753  10.437   8.163  11.382  0.0057  0.1166  1.4320
15306SOL     OW51754   6.144   0.902   5.680  0.2462 -0.5081  0.1024
15306SOL    HW151755   6.060   0.903   5.727  0.1788  0.6596 -0.0246
15306SOL    HW251756   6.175   0.812   5.689 -0.8513 -0.8703  0.4570
15307SOL     OW51757  10.309   1.389  11.150  0.5097  0.0926 -0.0264
15307SOL    HW151758  10.249   1.381  11.076  1.4909  0.4405 -0.8862
15307SOL    HW251759  10.273   1.331  11.217  0.1103 -0.9646 -1.1264
15308SOL     OW51760   8.567   2.937   9.310  0.2548  0.3087 -0.3612
15308SOL    HW151761   8.629   2.886   9.362  0.2186 -0.0778 -0.6933
15308SOL    HW251762   8.499   2.874   9.287  1.2535 -0.0588 -2.5446
15309SOL     OW51763   7.805   3.639   2.981 -0.2593 -0.2494  0.0309
15309SOL    HW151764   7.763   3.668   3.062 -2.7073 -0.5185 -1.0396
15309SOL    HW251765   7.792   3.712   2.920  3.6635  0.9996  0.3741
15310SOL     OW51766   8.475   2.647   7.981  0.2979 -0.3927  0.4648
15310SOL    HW151767   8.552   2.683   7.936  1.0944 -3.1561 -0.5919
15310SOL    HW251768   8.511   2.601   8.057 -0.6730  0.8726  1.7459
15311SOL     OW51769   0.634   2.017   3.949  0.0101 -0.0700 -0.2084
15311SOL    HW151770   0.699   2.051   4.010 -2.5453  2.7373  1.2130
15311SOL    HW251771   0.592   2.095   3.913 -2.2633 -1.7172 -1.3972
15312SOL     OW51772   1.103   5.995   5.037  0.4356  0.0893  0.6179
15312SOL    HW151773   1.022   5.978   4.988 -0.0827 -0.0864  1.5103
15312SOL    HW251774   1.112   6.090   5.034 -0.1736  0.1721  1.0615
15313SOL     OW51775   8.260  11.449   6.962 -0.0729 -0.7006  0.3292
15313SOL    HW151776   8.346  11.478   6.992 -0.7747  1.3708  0.4870
15313SOL    HW251777   8.222  11.405   7.038  0.5153 -0.9255  0.5011
15314SOL     OW51778  10.798  11.809  10.018 -0.1572 -0.4575 -1.0468
15314SOL    HW151779  10.760  11.721  10.018 -0.3311 -0.3842 -0.7539
15314SOL    HW251780  10.799  11.835   9.926 -0.1967 -0.7268 -1.1232
15315SOL     OW51781   6.179   7.898  11.331 -0.0388 -0.2203 -0.2640
15315SOL    HW151782   6.175   7.981  11.379  0.0859  0.6840 -1.7515
15315SOL    HW251783   6.270   7.892  11.301 -0.5772  0.3842 -2.2296
15316SOL     OW51784   3.715   3.505   4.158 -0.8887  0.4733  0.1755
15316SOL    HW151785   3.742   3.592   4.129 -0.9289  0.7080  0.8396
15316SOL    HW251786   3.657   3.473   4.088 -2.4274  1.7660  0.8006
15317SOL     OW51787   4.373   3.201   1.274 -0.0137 -0.3809  0.2965
15317SOL    HW151788   4.420   3.284   1.265  1.8570 -1.4971 -0.9248
15317SOL    HW251789   4.433   3.144   1.321 -1.3950 -0.9943  1.3800
15318SOL     OW51790   9.070   9.510   3.888 -0.4658  0.2875 -0.3022
15318SOL    HW151791   9.159   9.482   3.868 -0.8494 -0.6347 -0.7886
15318SOL    HW251792   9.021   9.428   3.900 -1.2638  0.7767 -0.1172
15319SOL     OW51793  11.757   3.023  10.535  0.2517 -0.3667 -0.1019
15319SOL    HW151794  11.711   3.078  10.471 -0.2385  0.3209  0.8066
15319SOL    HW251795  11.706   3.034  10.616  1.9562  0.3614  0.9242
15320SOL     OW51796   0.232   4.239   1.242  0.2032  0.5604 -0.0182
15320SOL    HW151797   0.232   4.155   1.197  3.2622  0.2020  0.4649
15320SOL    HW251798   0.139   4.260   1.253 -0.6629 -1.2725 -2.7948
15321SOL     OW51799   9.338   9.961   3.296  0.4235 -0.4345  0.2770
15321SOL    HW151800   9.323  10.052   3.273 -0.8987 -0.3504  1.3377
15321SOL    HW251801   9.265   9.914   3.254  0.1032 -0.7543  1.1806
15322SOL     OW51802   4.025   2.084   2.710 -0.8846 -0.2863 -0.2087
15322SOL    HW151803   4.033   2.021   2.639 -0.1996  0.7177 -1.0711
15322SOL    HW251804   3.997   2.033   2.786  0.7838 -1.8386 -0.5589
15323SOL     OW51805  10.445   0.680  10.204 -0.0728 -0.2043  0.3497
15323SOL    HW151806  10.382   0.619  10.166 -1.1561  0.4853  1.0088
15323SOL    HW251807  10.473   0.734  10.131  1.7228 -2.1026 -0.4971
15324SOL     OW51808   6.587   1.565  11.384  0.4106  0.4698  0.2101
15324SOL    HW151809   6.656   1.552  11.449 -0.1756 -0.0395  0.7431
15324SOL    HW251810   6.549   1.650  11.406  0.9597  0.8121 -0.1698
15325SOL     OW51811   4.717  11.507   2.937  0.8091 -0.3048  0.3632
15325SOL    HW151812   4.710  11.422   2.893  1.5225 -0.1949  0.0251
15325SOL    HW251813   4.797  11.546   2.901  0.1633  0.7737  0.0733
15326SOL     OW51814  11.854  11.282   2.140  0.4901  0.8477  0.5697
15326SOL    HW151815  11.781  11.333   2.176 -0.8625 -1.1704  0.8679
15326SOL    HW251816  11.813  11.222   2.079  1.8511 -0.5963  1.0095
15327SOL     OW51817   4.318   1.983   2.172 -0.7272 -0.6010  1.2834
15327SOL    HW151818   4.312   1.908   2.231  0.5449 -1.9516 -0.1998
15327SOL    HW251819   4.291   2.058   2.225  3.4277 -1.1172  4.6752
15328SOL     OW51820   9.575   4.507   3.076 -0.3810 -0.4755  0.0071
15328SOL    HW151821   9.564   4.455   2.997  2.7418 -0.3146 -0.6762
15328SOL    HW251822   9.584   4.597   3.044 -1.1176 -0.1206  0.7624
15329SOL     OW51823   4.149   1.081   9.460  0.1859 -0.0725 -0.1246
15329SOL    HW151824   4.103   1.122   9.387 -1.5476 -2.2286 -0.3661
15329SOL    HW251825   4.098   1.106   9.538 -1.7015 -2.5620 -0.4052
15330SOL     OW51826  10.135   6.184   8.770 -0.3238  0.4510  0.1807
15330SOL    HW151827  10.107   6.234   8.693 -1.2973 -0.1137  0.1537
15330SOL    HW251828  10.190   6.245   8.820 -1.5600  1.5957  0.1965
15331SOL     OW51829   3.178   3.528   6.762  0.1664  0.4092 -0.0672
15331SOL    HW151830   3.214   3.481   6.687 -2.1713 -0.9945 -0.4154
15331SOL    HW251831   3.190   3.468   6.836 -2.3284 -0.6536 -0.4074
15332SOL     OW51832   2.692   6.868   0.434 -0.9766 -0.4786 -0.6668
15332SOL    HW151833   2.710   6.801   0.368 -0.6047  0.9773 -2.1065
15332SOL    HW251834   2.609   6.907   0.407  0.4888  1.9681 -1.9374
15333SOL     OW51835   3.940   9.093   2.385  0.3712  0.5569  0.7697
15333SOL    HW151836   3.987   9.169   2.351  0.9516 -0.4290 -0.7006
15333SOL    HW251837   3.848   9.110   2.362  0.3905  1.1479  1.1071
15334SOL     OW51838   7.732  12.247   5.275  0.0084  0.0912  0.2904
15334SOL    HW151839   7.658  12.308   5.278  0.9641  1.3665 -0.7848
15334SOL    HW251840   7.751  12.227   5.366 -1.0507  0.5036  0.6105
15335SOL     OW51841   6.127   9.547   0.080  0.0495 -0.2797  0.3514
15335SOL    HW151842   6.165   9.477   0.133 -2.3126 -0.5539  1.8103
15335SOL    HW251843   6.108   9.617   0.142 -0.3939  0.4606 -0.5911
15336SOL     OW51844   7.104   0.645   9.813 -0.5175  0.2292  0.0280
15336SOL    HW151845   7.027   0.595   9.841 -0.7870  0.4935 -0.2345
15336SOL    HW251846   7.140   0.682   9.894 -0.6372  0.0626  0.1573
15337SOL     OW51847   7.734   8.847   6.521  0.1115 -0.4994 -0.1071
15337SOL    HW151848   7.708   8.919   6.579 -0.9050  0.3582 -1.5721
15337SOL    HW251849   7.689   8.770   6.558 -1.9157  0.3497 -0.6493
15338SOL     OW51850   3.183   5.209   4.110 -0.2660  0.9440  0.1530
15338SOL    HW151851   3.240   5.277   4.147  0.8811 -0.6011  1.3263
15338SOL    HW251852   3.186   5.224   4.016  1.4427  1.4089  0.2591
15339SOL     OW51853   4.965  10.880   5.112 -0.4701 -0.6689  0.4964
15339SOL    HW151854   5.026  10.837   5.052 -2.1976 -2.1300 -0.3058
15339SOL    HW251855   4.965  10.972   5.086 -0.5666 -1.1327 -1.2260
15340SOL     OW51856   7.462   2.536   5.084  0.1725 -0.1310  0.3512
15340SOL    HW151857   7.466   2.544   4.989  0.6093  0.2456  0.3965
15340SOL    HW251858   7.373   2.507   5.103 -0.8571  2.5830  0.0221
15341SOL     OW51859  10.687   0.696   6.343 -0.2147  0.0001  0.4076
15341SOL    HW151860  10.756   0.647   6.387  0.8188 -0.0165 -1.1647
15341SOL    HW251861  10.617   0.704   6.409  2.2173  2.2620  2.9870
15342SOL     OW51862   5.022   7.717   0.868  0.1341  0.0306 -0.7318
15342SOL    HW151863   4.943   7.719   0.921  0.2277 -1.3576 -0.5092
15342SOL    HW251864   4.997   7.762   0.787 -1.6272 -2.2442 -1.5893
15343SOL     OW51865   5.616   1.255  11.808 -0.2975  0.4163  0.1261
15343SOL    HW151866   5.596   1.326  11.869 -0.6671  0.4807 -0.0685
15343SOL    HW251867   5.536   1.243  11.758 -0.6002 -0.8732  0.8732
15344SOL     OW51868   9.621   2.962   2.561  0.8629  0.1635 -0.2243
15344SOL    HW151869   9.709   2.990   2.587  0.5377  1.6213 -0.6105
15344SOL    HW251870   9.573   2.954   2.644  0.9100  0.9920 -0.1102
15345SOL     OW51871   7.661   6.668   1.581  0.1441  0.1463  0.0992
15345SOL    HW151872   7.572   6.635   1.591  0.6115 -1.0631  0.4374
15345SOL    HW251873   7.655   6.761   1.600 -0.8994 -0.0896  0.9926
15346SOL     OW51874   0.207   9.750   9.970 -0.4138 -0.0912 -0.2253
15346SOL    HW151875   0.115   9.728   9.955 -0.1807 -1.5541  0.3488
15346SOL    HW251876   0.256   9.683   9.922  0.3827  0.9350 -0.9096
15347SOL     OW51877   0.690   9.309  11.930 -0.0140  0.1577 -0.2342
15347SOL    HW151878   0.714   9.248  12.000 -0.3821 -1.9605 -1.8699
15347SOL    HW251879   0.746   9.285  11.857  1.1595  3.0609 -0.4410
15348SOL     OW51880   1.618   9.277   9.467 -0.1418 -0.4059  0.7436
15348SOL    HW151881   1.612   9.183   9.485 -1.6493 -0.8665 -1.5945
15348SOL    HW251882   1.527   9.305   9.457  0.3446  0.5647 -1.7202
15349SOL     OW51883   2.806   7.577   4.784 -0.4869  0.8411  0.0409
15349SOL    HW151884   2.793   7.517   4.857  0.5486  0.3059 -0.1936
15349SOL    HW251885   2.783   7.526   4.706  2.0904  0.0813 -0.3251
15350SOL     OW51886   3.474   9.956   1.951 -0.9581 -0.1275  0.5585
15350SOL    HW151887   3.522   9.940   2.032 -0.1309 -0.5314  0.0012
15350SOL    HW251888   3.383   9.966   1.979 -0.4895  1.2214  1.6878
15351SOL     OW51889   4.049  11.827   3.724  0.1719 -0.4145 -0.1496
15351SOL    HW151890   4.011  11.838   3.637  0.1325 -2.0425 -0.3838
15351SOL    HW251891   4.138  11.797   3.707  0.9272  1.3946  0.4007
15352SOL     OW51892  10.512   4.449   1.873 -0.0627  0.4479 -0.4093
15352SOL    HW151893  10.430   4.418   1.911 -0.1302  1.2757  0.1594
15352SOL    HW251894  10.486   4.525   1.819  0.2488  0.3214 -0.7389
15353SOL     OW51895   8.996   5.685   5.218 -0.1980 -0.0292 -0.0450
15353SOL    HW151896   8.935   5.655   5.285  3.8454 -2.7882  2.8265
15353SOL    HW251897   8.996   5.616   5.152  0.5100 -0.5270  0.4696
15354SOL     OW51898  10.476   9.507   9.764 -0.3698 -0.2608  0.6627
15354SOL    HW151899  10.538   9.483   9.833 -0.1298  1.9680  1.3275
15354SOL    HW251900  10.515   9.586   9.725 -1.2703 -0.6042 -1.0203
15355SOL     OW51901  10.644   7.151   2.191  0.4877 -0.1361 -0.3292
15355SOL    HW151902  10.729   7.192   2.176  0.5199 -0.9382 -2.6266
15355SOL    HW251903  10.664   7.070   2.238  0.7927  0.4459  0.5834
15356SOL     OW51904   0.463   0.199   8.690  0.3220  0.3492  0.3864
15356SOL    HW151905   0.494   0.144   8.762  0.2326 -0.7982 -0.4302
15356SOL    HW251906   0.538   0.204   8.630  0.2797  1.0096  0.3789
15357SOL     OW51907   1.374   9.016   4.459 -0.2649  0.2345 -0.7677
15357SOL    HW151908   1.432   8.963   4.404 -0.8862 -0.5294 -0.6975
15357SOL    HW251909   1.379   9.104   4.420  0.9197  0.1927 -0.7687
15358SOL     OW51910   3.735  10.954   4.782  0.3293  0.2528 -0.3516
15358SOL    HW151911   3.674  10.885   4.809 -0.6371  1.6542  1.2623
15358SOL    HW251912   3.713  10.971   4.691 -0.8690 -0.1078 -0.1480
15359SOL     OW51913   5.268   5.485   3.380 -0.2452 -1.0044 -0.0193
15359SOL    HW151914   5.278   5.394   3.410  0.2161 -0.9874 -0.1136
15359SOL    HW251915   5.351   5.505   3.337 -0.2256 -0.4274  0.2885
15360SOL     OW51916   6.270   2.203   8.103 -0.5727  0.8778 -0.0490
15360SOL    HW151917   6.290   2.179   8.193  1.5948  0.7778 -0.5107
15360SOL    HW251918   6.273   2.120   8.054 -0.3890  1.1050 -0.4299
15361SOL     OW51919   3.368   0.900   0.627  0.0721 -0.5911  0.1895
15361SOL    HW151920   3.432   0.913   0.697  0.3774  1.0811 -0.3605
15361SOL    HW251921   3.420   0.880   0.550 -0.2131 -1.3865  0.1863
15362SOL     OW51922  10.647  10.588   5.723 -1.0702  0.6245 -0.5768
15362SOL    HW151923  10.610  10.663   5.769  0.0828  1.0727 -0.3364
15362SOL    HW251924  10.738  10.612   5.707 -0.1419 -1.4119  1.1175
15363SOL     OW51925   7.701  10.026   9.266 -0.0342  0.5870 -0.3755
15363SOL    HW151926   7.764   9.958   9.240 -1.3914 -1.0268  0.3739
15363SOL    HW251927   7.617   9.995   9.232 -0.9058  1.1725  1.1609
15364SOL     OW51928   0.848   2.604   2.423  0.6165  0.5080 -0.0030
15364SOL    HW151929   0.859   2.523   2.474  0.3166  0.3563 -0.1758
15364SOL    HW251930   0.757   2.601   2.394  1.3840 -0.6224 -2.5977
15365SOL     OW51931   7.819   7.923   0.949 -0.7181  0.1933  0.2324
15365SOL    HW151932   7.882   7.935   0.879 -0.3050  1.2675  0.7736
15365SOL    HW251933   7.757   7.995   0.939 -0.6805  0.3349  0.9436
15366SOL     OW51934   9.244   1.801   2.904 -0.0081 -0.6816 -0.2609
15366SOL    HW151935   9.194   1.859   2.847  0.2528 -0.1749  0.0258
15366SOL    HW251936   9.179   1.762   2.962  0.0925  1.0795  1.0912
15367SOL     OW51937  11.711   0.789  10.079 -0.4906 -0.1252 -0.3823
15367SOL    HW151938  11.788   0.846  10.085  1.0069 -1.8260 -2.1563
15367SOL    HW251939  11.737   0.709  10.126 -2.0191  0.0574  0.8369
15368SOL     OW51940   1.989   2.838   6.526  0.2151  0.4805  0.0874
15368SOL    HW151941   1.950   2.923   6.547  0.6497  1.1840 -1.8208
15368SOL    HW251942   2.000   2.839   6.431  1.6028 -1.1283  0.1869
15369SOL     OW51943   2.888   1.742   8.968  0.4870 -0.1987 -0.5651
15369SOL    HW151944   2.808   1.794   8.965  0.0889 -0.8030 -0.5871
15369SOL    HW251945   2.956   1.804   8.993 -0.2930 -0.0398  1.2680
15370SOL     OW51946   2.983   9.378  11.054  0.0008 -0.1510  0.0431
15370SOL    HW151947   2.929   9.448  11.017  2.1118  1.0589 -0.9411
15370SOL    HW251948   3.036   9.347  10.981  0.2063 -1.7228  0.8284
15371SOL     OW51949   5.896   7.755   9.035  0.0908  0.5121 -0.2831
15371SOL    HW151950   5.852   7.810   9.101  1.9548  3.4733 -1.3220
15371SOL    HW251951   5.884   7.802   8.953 -1.1512 -2.4985 -1.9875
15372SOL     OW51952   7.852  10.150   7.002  0.4047 -0.6823 -0.1301
15372SOL    HW151953   7.934  10.103   6.985  0.4210  0.0107 -2.2599
15372SOL    HW251954   7.791  10.082   7.031  1.1029 -1.6032 -0.7758
15373SOL     OW51955   1.755  12.268  10.922  0.2339 -0.5261 -0.4729
15373SOL    HW151956   1.696  12.193  10.934 -0.6065 -0.6398 -4.0138
15373SOL    HW251957   1.842  12.230  10.926 -0.1521 -1.5266 -1.1072
15374SOL     OW51958  12.152   4.346   9.753  0.3409  0.0906 -0.0231
15374SOL    HW151959  12.125   4.394   9.831  0.0566  1.1792 -0.7715
15374SOL    HW251960  12.181   4.414   9.692 -0.8046 -0.5998 -1.3970
15375SOL     OW51961  10.838   8.889   7.019 -0.5942  0.5761  0.5875
15375SOL    HW151962  10.879   8.915   7.102  0.6392  0.0746  0.1517
15375SOL    HW251963  10.808   8.971   6.981  1.8435  1.2681 -0.0243
15376SOL     OW51964   8.815   1.848   5.151  0.7271 -0.7182 -0.0883
15376SOL    HW151965   8.883   1.842   5.084  1.8523 -0.2346  0.9593
15376SOL    HW251966   8.864   1.857   5.233 -0.6070 -0.9973  0.7675
15377SOL     OW51967   2.826  11.998  11.391  0.1366 -0.6953 -0.4106
15377SOL    HW151968   2.817  11.904  11.375 -2.3253 -0.2734 -2.0786
15377SOL    HW251969   2.752  12.038  11.345  0.0351  1.9271  1.7331
15378SOL     OW51970  11.178   9.344   1.359 -0.0447  0.7497  0.0681
15378SOL    HW151971  11.266   9.361   1.327  0.5259 -0.0803  1.1339
15378SOL    HW251972  11.131   9.310   1.283  1.1801 -0.8532 -0.0099
15379SOL     OW51973   9.307  10.363   4.144 -0.3127  0.0691 -0.0655
15379SOL    HW151974   9.273  10.385   4.231  1.6271  0.7346  0.5646
15379SOL    HW251975   9.295  10.268   4.138  0.1356 -0.0901  1.2246
15380SOL     OW51976   1.035   6.572   0.537  0.3212 -0.3860 -0.0957
15380SOL    HW151977   1.080   6.542   0.616 -4.3415  0.7750  3.4418
15380SOL    HW251978   1.019   6.665   0.551 -2.4459 -0.5609 -1.3298
15381SOL     OW51979   2.913  12.313   4.021  0.1225 -0.1635 -0.2517
15381SOL    HW151980   2.989  12.362   4.053  1.5339 -2.2497 -0.1690
15381SOL    HW251981   2.928  12.224   4.051 -2.7738 -0.5337  0.3677
15382SOL     OW51982  11.391   6.848   5.482  0.6584  0.2095 -0.3304
15382SOL    HW151983  11.353   6.772   5.526  1.5777 -0.3122 -0.4133
15382SOL    HW251984  11.473   6.865   5.528  0.9443  0.5362 -0.9378
15383SOL     OW51985   5.569   3.887   7.847  0.3322  0.0645  0.3349
15383SOL    HW151986   5.489   3.852   7.887  0.5802 -0.8256  0.0866
15383SOL    HW251987   5.567   3.980   7.866 -0.2860 -0.1042  1.1535
15384SOL     OW51988  10.640  11.310   8.877 -0.0518  0.4595  0.2122
15384SOL    HW151989  10.661  11.247   8.808  0.3407  2.0484 -1.1819
15384SOL    HW251990  10.715  11.370   8.878 -1.1260  1.8389  0.3836
15385SOL     OW51991   9.154   2.934   3.409  0.1510  0.0586  0.1979
15385SOL    HW151992   9.136   2.840   3.416  1.6693 -0.4186 -1.7021
15385SOL    HW251993   9.083   2.975   3.459 -0.8721 -2.0577  0.6039
15386SOL     OW51994  10.458   7.054   6.264 -0.3282  0.2676 -0.0137
15386SOL    HW151995  10.473   7.020   6.175 -1.3363 -1.0120  0.2742
15386SOL    HW251996  10.503   6.992   6.321 -4.2494 -2.3061  0.6962
15387SOL     OW51997   1.747   1.323  11.782 -0.0445 -0.0353  0.2001
15387SOL    HW151998   1.813   1.381  11.745 -1.6385  0.0600 -2.7561
15387SOL    HW251999   1.795   1.271  11.848  2.2926  1.8450  0.0986
15388SOL     OW52000   4.332   9.076   7.831  0.1036  0.3199 -0.5084
15388SOL    HW152001   4.242   9.094   7.803 -0.1157 -0.3007 -0.2222
15388SOL    HW252002   4.322   9.030   7.915  0.6690 -0.0930 -0.6633
15389SOL     OW52003  10.993   7.732   7.109 -0.1709 -0.5999 -0.5631
15389SOL    HW152004  10.909   7.744   7.154 -1.6153 -2.1176 -2.6637
15389SOL    HW252005  11.025   7.821   7.095 -1.4124  0.0200  0.3002
15390SOL     OW52006   5.675   1.006   7.061  0.5783  0.2551 -0.4538
15390SOL    HW152007   5.678   1.077   6.996 -1.6883 -1.2381 -2.3504
15390SOL    HW252008   5.699   0.927   7.011  1.1835 -0.6250  1.1507
15391SOL     OW52009   5.376   5.562   8.570  0.0514 -0.2060 -0.0520
15391SOL    HW152010   5.393   5.602   8.485 -0.3941 -1.7466 -0.8984
15391SOL    HW252011   5.432   5.610   8.631  0.4612  0.8491 -1.2251
15392SOL     OW52012   2.368   7.376   7.708 -0.1170  0.1135  0.4215
15392SOL    HW152013   2.450   7.426   7.715 -1.4862  3.0934 -2.4640
15392SOL    HW252014   2.377   7.328   7.626 -1.0403  0.0633  0.3463
15393SOL     OW52015   0.110   3.654   6.399 -0.3413 -0.4254  0.1250
15393SOL    HW152016   0.188   3.710   6.401  0.1036 -1.0284 -0.0026
15393SOL    HW252017   0.040   3.710   6.366  0.1187  0.0253 -0.0882
15394SOL     OW52018   9.006   5.693   4.848 -0.0382 -0.3592  0.4157
15394SOL    HW152019   9.016   5.712   4.754 -0.0950  0.6862  0.6033
15394SOL    HW252020   9.089   5.723   4.887 -0.8739  1.3756  0.9832
15395SOL     OW52021   1.879   5.464   8.122 -0.1928 -0.5932 -0.6114
15395SOL    HW152022   1.875   5.511   8.038 -1.1646 -0.0922 -0.2914
15395SOL    HW252023   1.967   5.483   8.156 -0.3650  0.5067 -0.7659
15396SOL     OW52024   2.601   5.125   3.852  0.0654 -0.4747  0.5926
15396SOL    HW152025   2.561   5.039   3.857  0.3469 -0.5680  1.4670
15396SOL    HW252026   2.590   5.152   3.761 -2.1382 -0.4162  0.8252
15397SOL     OW52027  11.261  10.693  11.845 -0.1262  0.6551  0.5752
15397SOL    HW152028  11.291  10.625  11.785  1.9299  0.4210  1.7659
15397SOL    HW252029  11.231  10.764  11.787  1.5086  0.3330 -0.7565
15398SOL     OW52030   7.286   1.264  11.110  0.2788 -0.0020  0.1723
15398SOL    HW152031   7.348   1.193  11.127  0.2827 -0.3570 -1.2022
15398SOL    HW252032   7.313   1.299  11.024 -0.6465  0.6656  0.1457
15399SOL     OW52033  11.816  11.914   1.885  0.1126  0.2565 -0.0221
15399SOL    HW152034  11.816  11.963   1.803 -1.4055  2.0172  0.9356
15399SOL    HW252035  11.751  11.959   1.940 -0.6938 -2.3012  1.3030
15400SOL     OW52036   1.579   5.426   9.177  0.7682  0.3877 -0.2529
15400SOL    HW152037   1.663   5.445   9.219  0.7916 -0.0632 -0.0916
15400SOL    HW252038   1.513   5.457   9.239  0.7994 -0.4494  0.2125
15401SOL     OW52039   7.062   5.335   6.310  0.3825  0.1311 -0.5303
15401SOL    HW152040   7.095   5.405   6.367 -0.5104 -1.0104  1.5184
15401SOL    HW252041   7.131   5.270   6.309  0.1712 -0.1036 -0.2420
15402SOL     OW52042   1.332   7.649   3.012 -0.1632  0.1459 -0.5010
15402SOL    HW152043   1.312   7.587   3.082  0.8008  0.4523  0.0547
15402SOL    HW252044   1.425   7.636   2.995  0.0514  1.4485 -0.3676
15403SOL     OW52045   5.544   6.608   5.719  0.8327  0.5018  0.0600
15403SOL    HW152046   5.590   6.685   5.754  0.0409  0.7654  0.5279
15403SOL    HW252047   5.457   6.640   5.697 -0.2904 -0.7198  2.3340
15404SOL     OW52048   4.293  12.028  11.480 -0.1082  0.0932 -0.4360
15404SOL    HW152049   4.247  12.096  11.430 -1.3524 -0.3470  0.0764
15404SOL    HW252050   4.385  12.041  11.457 -0.3911  1.4623 -0.9393
15405SOL     OW52051   9.696   3.714   4.058  0.6561 -0.0182 -0.9164
15405SOL    HW152052   9.756   3.789   4.055  0.3139  0.5934  2.7647
15405SOL    HW252053   9.623   3.740   4.001 -0.1589  3.2955  1.3005
15406SOL     OW52054   2.881   8.769   1.562 -0.3947 -0.2340  0.3784
15406SOL    HW152055   2.937   8.814   1.625  2.1035 -2.2593 -0.1999
15406SOL    HW252056   2.939   8.703   1.522 -2.4166 -0.4199 -2.5440
15407SOL     OW52057   2.260   7.985   1.956 -0.1175  0.2292  0.0482
15407SOL    HW152058   2.172   8.017   1.976 -0.7053 -1.1164 -0.3219
15407SOL    HW252059   2.255   7.953   1.866 -0.1398 -2.7165  0.9960
15408SOL     OW52060   0.380   2.661   6.033  0.3999  0.1153 -0.2124
15408SOL    HW152061   0.469   2.679   6.065  0.8312  0.1789 -1.4081
15408SOL    HW252062   0.326   2.727   6.075  1.1872  1.1253 -0.7359
15409SOL     OW52063   2.018   5.887  10.384  0.3719 -0.3886 -0.1736
15409SOL    HW152064   2.022   5.979  10.412 -1.7599 -0.1346 -0.5086
15409SOL    HW252065   1.980   5.891  10.296  1.8048 -1.5242 -0.8870
15410SOL     OW52066  10.875   2.707   4.352  0.0821 -0.1430  0.4541
15410SOL    HW152067  10.891   2.717   4.446 -1.4008 -0.1857  0.7257
15410SOL    HW252068  10.952   2.747   4.311  0.8107 -0.2351  1.6757
15411SOL     OW52069   9.787   5.163   0.189 -0.3583  0.1418  0.7269
15411SOL    HW152070   9.770   5.076   0.153  1.7550  0.7621 -2.1304
15411SOL    HW252071   9.717   5.217   0.155 -0.1171  0.0917  0.1394
15412SOL     OW52072   3.034   9.323   8.393  0.2531  0.1200  0.6943
15412SOL    HW152073   2.995   9.315   8.306 -0.3039 -0.7060  1.0153
15412SOL    HW252074   3.000   9.407   8.426 -1.5832 -0.7384  1.1084
15413SOL     OW52075   2.390  12.102   9.978 -0.4941 -0.1682  0.0799
15413SOL    HW152076   2.308  12.144  10.004 -1.6221 -0.6418 -2.3917
15413SOL    HW252077   2.430  12.163   9.916 -1.5362 -2.0171 -2.5934
15414SOL     OW52078   8.384   0.681  10.331 -0.2816 -0.1623  0.0166
15414SOL    HW152079   8.363   0.774  10.334 -0.8187 -0.1448 -2.5877
15414SOL    HW252080   8.307   0.640  10.294  0.0219 -1.6562  0.9696
15415SOL     OW52081   6.574   8.737   8.084 -0.0600 -0.6522 -0.3138
15415SOL    HW152082   6.507   8.706   8.023 -2.4515  3.6435 -0.2612
15415SOL    HW252083   6.634   8.788   8.030  0.2839 -0.3610  0.3298
15416SOL     OW52084  10.229  11.916   7.614  0.0758  0.0639 -0.3057
15416SOL    HW152085  10.194  11.927   7.702 -0.0677  0.0472 -0.3592
15416SOL    HW252086  10.177  11.976   7.560  1.1316  1.1507 -0.1399
15417SOL     OW52087   1.303   4.059   5.031 -0.1398  0.4897 -0.1552
15417SOL    HW152088   1.397   4.052   5.049 -0.5833 -0.2878  2.1802
15417SOL    HW252089   1.274   4.133   5.084 -1.1251 -0.4381  0.6566
15418SOL     OW52090  11.193  10.148   2.733  0.1833 -0.6895 -0.2283
15418SOL    HW152091  11.165  10.193   2.813 -0.4169 -0.4081 -0.5880
15418SOL    HW252092  11.271  10.197   2.705  0.3676 -0.7585  0.1530
15419SOL     OW52093   1.813   9.284   6.554  0.0379 -0.3470 -0.5118
15419SOL    HW152094   1.784   9.222   6.487 -0.9007  0.3366 -0.7630
15419SOL    HW252095   1.806   9.236   6.636  2.2193 -1.5589 -0.9534
15420SOL     OW52096   6.950  11.428   5.705  0.4686 -0.3012  0.5570
15420SOL    HW152097   6.881  11.469   5.652  0.4796 -2.4841 -1.2813
15420SOL    HW252098   6.993  11.502   5.749 -1.7948  1.2904  0.2834
15421SOL     OW52099   3.709   8.103   5.557  0.6468 -0.2303 -0.5374
15421SOL    HW152100   3.651   8.030   5.576  1.1523  0.2300  3.8131
15421SOL    HW252101   3.651   8.175   5.534 -0.0250 -1.1339 -1.8275
15422SOL     OW52102   8.333   9.181   6.576  0.1232  0.7427  0.2040
15422SOL    HW152103   8.250   9.194   6.531  0.6019  2.4422 -0.2444
15422SOL    HW252104   8.393   9.149   6.509  0.4979  2.0371 -0.0998
15423SOL     OW52105   5.525   6.306  10.766 -0.3557 -0.1806 -0.1046
15423SOL    HW152106   5.480   6.315  10.682  1.0626  2.1339 -0.7163
15423SOL    HW252107   5.598   6.247  10.747 -0.6670 -0.5369 -0.2049
15424SOL     OW52108   0.238   3.743   2.885 -0.3881  0.3161 -0.3103
15424SOL    HW152109   0.153   3.786   2.876  0.2970  1.4377 -1.8827
15424SOL    HW252110   0.300   3.815   2.896  0.3447 -0.5115  1.2740
15425SOL     OW52111  12.157  11.980   8.143 -0.2859 -0.4356  0.1343
15425SOL    HW152112  12.201  12.015   8.220 -0.3829  3.3121 -1.3142
15425SOL    HW252113  12.068  12.015   8.148  0.3132  1.7909 -2.6581
15426SOL     OW52114   9.560  10.011   5.475  0.1493  0.0046  0.2557
15426SOL    HW152115   9.471  10.043   5.465 -0.2325 -1.0804  0.0377
15426SOL    HW252116   9.598  10.067   5.542 -1.4638 -0.9693  2.1038
15427SOL     OW52117  12.299   5.087   6.309  1.1563  0.3042 -1.0300
15427SOL    HW152118  12.346   5.170   6.306 -2.9219  3.1298  1.9646
15427SOL    HW252119  12.215   5.105   6.268 -1.6360 -0.6363  3.5114
15428SOL     OW52120   3.711  10.422   8.031 -0.4657  0.3412  0.3380
15428SOL    HW152121   3.802  10.441   8.055 -0.5364 -1.4310  2.2653
15428SOL    HW252122   3.713  10.415   7.935  1.3641  0.6842  0.3100
15429SOL     OW52123   2.466   8.331   2.272 -0.0168  0.2720 -0.3015
15429SOL    HW152124   2.378   8.352   2.242 -0.9236 -2.4253  0.1938
15429SOL    HW252125   2.466   8.236   2.281  3.1327  0.1201 -0.8100
15430SOL     OW52126   6.388  10.511   6.891 -0.0577  0.1517 -0.1082
15430SOL    HW152127   6.357  10.420   6.885  0.9749 -0.2618  0.4635
15430SOL    HW252128   6.311  10.561   6.917 -0.4086 -0.7313  0.6315
15431SOL     OW52129   8.611  11.811   5.866  0.7252  0.8289 -0.0495
15431SOL    HW152130   8.600  11.790   5.773 -2.6167  2.3045 -0.0993
15431SOL    HW252131   8.548  11.755   5.910 -0.2494  2.6399  0.9305
15432SOL     OW52132   5.692   4.350   1.539  0.0270 -0.0674 -0.0208
15432SOL    HW152133   5.693   4.357   1.443  1.3827 -1.2406 -0.1290
15432SOL    HW252134   5.712   4.438   1.570 -0.5019  0.3390 -0.8065
15433SOL     OW52135   6.454  11.371   2.775  0.8050  1.0603 -0.1556
15433SOL    HW152136   6.404  11.402   2.850  0.1180  0.1215 -0.2150
15433SOL    HW252137   6.501  11.294   2.808  1.0598  1.0693 -0.4923
15434SOL     OW52138   1.269   7.675   0.154 -0.3630  0.0178 -0.3474
15434SOL    HW152139   1.355   7.717   0.159  0.6444 -2.0297  1.4536
15434SOL    HW252140   1.207   7.741   0.183  0.7908  1.0856 -0.2570
15435SOL     OW52141  10.789   4.880   1.613 -0.2311  0.6079  0.3392
15435SOL    HW152142  10.787   4.805   1.673 -1.2012  0.6508  0.3722
15435SOL    HW252143  10.701   4.884   1.577  0.3293  0.5736 -1.1125
15436SOL     OW52144   7.986   7.976   5.403 -0.0233 -0.0532  0.2447
15436SOL    HW152145   8.069   7.929   5.397 -0.1385 -0.1730 -0.4755
15436SOL    HW252146   7.922   7.909   5.430 -0.0966 -0.2149 -0.3123
15437SOL     OW52147   9.988   4.614  11.235 -0.5948  0.0549 -0.2668
15437SOL    HW152148  10.052   4.675  11.197 -1.0131  1.1124  0.6769
15437SOL    HW252149  10.022   4.527  11.213  0.6749  0.6053 -0.5792
15438SOL     OW52150  10.938   8.474  10.743 -0.1702  0.1190 -0.0078
15438SOL    HW152151  11.019   8.457  10.695 -0.6152 -1.5995 -0.2343
15438SOL    HW252152  10.962   8.469  10.835  0.0325 -0.1367 -0.0742
15439SOL     OW52153   4.662   5.334   3.703  0.0675 -0.1347  0.0224
15439SOL    HW152154   4.609   5.269   3.657  0.9942  0.1778 -1.5752
15439SOL    HW252155   4.619   5.417   3.687 -0.3603 -0.1786  0.9039
15440SOL     OW52156   1.898  11.597  11.640  0.4894  0.2091 -0.2764
15440SOL    HW152157   1.841  11.525  11.667 -0.6565  1.4659  0.8757
15440SOL    HW252158   1.963  11.604  11.710  2.1453 -1.2228 -1.5911
15441SOL     OW52159   8.394   9.676   9.445  0.3174  0.5651 -0.1286
15441SOL    HW152160   8.411   9.733   9.369  0.3234 -0.1895 -0.7032
15441SOL    HW252161   8.336   9.609   9.411  0.3780  0.1810  0.5280
15442SOL     OW52162   0.969   2.351   0.008  0.0454 -0.5664 -0.6784
15442SOL    HW152163   0.900   2.404  -0.033 -0.2860 -0.1398  0.4074
15442SOL    HW252164   0.925   2.306   0.080  0.5542 -1.5613 -0.9642
15443SOL     OW52165   4.934   4.508   4.216 -0.5548 -0.0727 -0.2141
15443SOL    HW152166   4.990   4.432   4.236 -1.0114 -0.2922  0.2383
15443SOL    HW252167   4.845   4.475   4.226 -0.8028  0.0834 -1.6121
15444SOL     OW52168   6.794   7.705   8.082  0.4176 -0.2945  0.4231
15444SOL    HW152169   6.708   7.727   8.118  1.0985 -0.1553  2.0687
15444SOL    HW252170   6.778   7.629   8.027 -1.1581  1.2557 -1.3856
15445SOL     OW52171   7.728   3.016   0.837  0.1201  0.4166  0.3993
15445SOL    HW152172   7.800   3.019   0.899  0.8444  1.3878 -0.4578
15445SOL    HW252173   7.669   2.950   0.872 -0.0058  1.6295  2.6664
15446SOL     OW52174   1.914   9.217   8.851  0.3700  0.7765  0.2012
15446SOL    HW152175   1.966   9.260   8.918  1.4006  0.0125 -0.0834
15446SOL    HW252176   1.868   9.288   8.807  1.5881  1.5387  0.1228
15447SOL     OW52177   6.159   1.670  10.528 -0.0300 -0.3429 -0.2661
15447SOL    HW152178   6.089   1.614  10.560  0.8287 -1.1040  0.3679
15447SOL    HW252179   6.151   1.668  10.433 -2.4504  1.7063 -0.1928
15448SOL     OW52180   6.333   6.349   5.196  0.0847 -0.4358 -0.3768
15448SOL    HW152181   6.265   6.402   5.238  0.4919 -0.2155  0.0235
15448SOL    HW252182   6.415   6.394   5.220  0.4301 -1.1911 -0.1175
15449SOL     OW52183   0.312   4.213   7.804 -0.1330  0.1175 -0.9190
15449SOL    HW152184   0.257   4.175   7.737 -1.0518 -0.8276  0.3322
15449SOL    HW252185   0.255   4.275   7.850 -0.6086 -1.7519  1.1706
15450SOL     OW52186   3.706   8.390   6.082  0.5738  0.0470  1.2074
15450SOL    HW152187   3.660   8.456   6.030 -2.1669  0.1568  3.5746
15450SOL    HW252188   3.696   8.309   6.032  0.9135  0.7311 -0.0117
15451SOL     OW52189   8.539   1.909   1.371 -0.2116  0.0290  0.2659
15451SOL    HW152190   8.475   1.973   1.403 -2.6823 -0.4562 -3.1338
15451SOL    HW252191   8.486   1.841   1.330  2.4630 -2.3491  0.4637
15452SOL     OW52192   7.256   2.950   3.120  0.2465 -0.3175 -0.2746
15452SOL    HW152193   7.295   2.988   3.200 -0.7263 -1.8774  0.9905
15452SOL    HW252194   7.286   2.859   3.120 -0.1243 -0.4494 -1.4705
15453SOL     OW52195   0.311   2.182   8.401 -0.0699  0.9994 -0.2061
15453SOL    HW152196   0.354   2.216   8.480  0.8652 -2.6516  1.0648
15453SOL    HW252197   0.367   2.109   8.374 -1.5913  0.7473 -2.9571
15454SOL     OW52198  11.999  11.645   1.323 -0.1198 -0.2797 -0.6673
15454SOL    HW152199  11.930  11.711   1.321  2.0756  2.1447 -2.3167
15454SOL    HW252200  12.014  11.623   1.231  2.5322  0.7656 -0.5735
15455SOL     OW52201   5.684   4.800   9.907  0.0845 -0.4432  0.4814
15455SOL    HW152202   5.590   4.816   9.913  0.0272 -0.0702 -0.9526
15455SOL    HW252203   5.695   4.710   9.937 -1.1849 -1.5670 -2.0656
15456SOL     OW52204   6.039   6.239   8.237 -0.0868 -0.2493  0.3859
15456SOL    HW152205   6.117   6.221   8.290 -0.0835 -0.6925  0.2368
15456SOL    HW252206   5.972   6.262   8.301  0.2073  0.2923  0.5035
15457SOL     OW52207  10.197   3.083   4.158 -0.0471 -0.0519 -0.5994
15457SOL    HW152208  10.148   3.069   4.239 -0.5435 -0.9520 -1.0421
15457SOL    HW252209  10.129   3.097   4.091  0.3573  0.8913 -0.8376
15458SOL     OW52210  10.987   9.781   2.889 -0.5447  0.3430  0.2057
15458SOL    HW152211  11.034   9.818   2.814 -2.3377  5.2699  1.1090
15458SOL    HW252212  11.050   9.782   2.961 -0.2430  0.6601 -0.0610
15459SOL     OW52213   9.636   2.425   6.440 -0.2594  0.4919 -0.3787
15459SOL    HW152214   9.648   2.389   6.352  1.5051 -0.4309  0.2066
15459SOL    HW252215   9.548   2.398   6.465 -1.1871  1.5779 -2.1861
15460SOL     OW52216   2.173   3.376   2.963  0.0171  0.2155  0.2836
15460SOL    HW152217   2.182   3.303   2.903 -1.6041  1.1370 -1.1665
15460SOL    HW252218   2.084   3.407   2.950  1.2386  3.7537 -0.7179
15461SOL     OW52219   0.493  11.856   9.793  0.1844 -0.1903 -0.1786
15461SOL    HW152220   0.530  11.860   9.882  1.2581  1.3257 -0.6590
15461SOL    HW252221   0.403  11.826   9.806  0.4167 -0.3081  1.3882
15462SOL     OW52222   7.139  11.729   6.247  0.1205 -0.1868 -1.0256
15462SOL    HW152223   7.113  11.773   6.166  0.1096 -0.0391 -0.9441
15462SOL    HW252224   7.136  11.799   6.313 -0.6877 -0.4870 -0.7362
15463SOL     OW52225   0.677   2.089  12.193 -0.1801  0.5073  1.2713
15463SOL    HW152226   0.621   2.165  12.206 -0.3676  0.4696  0.7306
15463SOL    HW252227   0.722   2.106  12.110  0.2027  0.2861  1.4262
15464SOL     OW52228   6.897   3.066   2.645  0.2892  0.1318  0.0542
15464SOL    HW152229   6.940   3.130   2.588 -0.1460 -0.1718 -0.6170
15464SOL    HW252230   6.838   3.018   2.588 -0.8378  0.4269  0.9315
15465SOL     OW52231  11.918   6.450   9.164 -0.2933  0.4171  0.2800
15465SOL    HW152232  11.918   6.501   9.083  0.2405 -0.0847 -0.0480
15465SOL    HW252233  11.912   6.359   9.135  2.1251  0.0736  0.6496
15466SOL     OW52234   7.135   8.467   7.203 -0.1101 -0.0448  0.1018
15466SOL    HW152235   7.087   8.390   7.173 -1.0569  0.3491  0.5823
15466SOL    HW252236   7.116   8.473   7.296  2.9255 -1.3367  0.9298
15467SOL     OW52237   3.017   4.097   4.677  0.7609 -0.5564 -0.3590
15467SOL    HW152238   3.058   4.133   4.599  0.6482 -1.2186 -0.7276
15467SOL    HW252239   3.048   4.154   4.748  2.3131 -1.0042 -0.6246
15468SOL     OW52240   6.803   3.924   1.222 -0.0693 -0.1373 -0.4622
15468SOL    HW152241   6.879   3.878   1.258 -0.2641 -0.4300 -0.4220
15468SOL    HW252242   6.815   3.917   1.127  0.0236 -0.0690 -0.4554
15469SOL     OW52243   6.397  10.346   2.235 -0.6028  0.0309 -0.1876
15469SOL    HW152244   6.369  10.324   2.146 -1.1586  0.3767 -0.0996
15469SOL    HW252245   6.436  10.433   2.227  0.6276 -0.5148 -0.3414
15470SOL     OW52246   2.780   4.737   9.069 -0.8398 -0.3226  0.0876
15470SOL    HW152247   2.828   4.785   9.001 -0.0942 -0.0950  0.7566
15470SOL    HW252248   2.845   4.679   9.108 -1.7773 -2.0485 -0.8272
15471SOL     OW52249   0.923   3.312   5.356 -0.2494 -0.1521  0.0136
15471SOL    HW152250   0.953   3.370   5.286 -3.0783  0.4796 -0.7774
15471SOL    HW252251   0.830   3.301   5.340 -0.4079 -2.4346  1.9878
15472SOL     OW52252   4.708   3.772  11.229 -0.0227  0.4644  0.6981
15472SOL    HW152253   4.718   3.729  11.314 -0.3276 -0.9807  0.0384
15472SOL    HW252254   4.730   3.704  11.165  1.4476  1.8862 -0.3856
15473SOL     OW52255   6.786   3.751   8.867 -0.0694 -0.2617 -0.1081
15473SOL    HW152256   6.715   3.687   8.864 -1.1916  0.9638 -0.7184
15473SOL    HW252257   6.841   3.729   8.792 -1.0112  0.0935 -0.9270
15474SOL     OW52258  11.861   4.283   4.983  0.2043 -0.6886 -0.6094
15474SOL    HW152259  11.948   4.280   5.022  0.3159 -0.1550 -0.8051
15474SOL    HW252260  11.876   4.278   4.889  0.3456  3.0249 -0.9469
15475SOL     OW52261   4.801   2.993   1.719 -0.2262 -0.2235  0.7340
15475SOL    HW152262   4.806   3.025   1.809 -1.4212  0.3759  0.6207
15475SOL    HW252263   4.726   3.041   1.682  0.4627 -0.2005 -0.6788
15476SOL     OW52264   9.374  11.384  10.307 -0.1899 -0.4266  0.4103
15476SOL    HW152265   9.451  11.432  10.276  1.2062 -2.1731  0.9799
15476SOL    HW252266   9.304  11.449  10.310  1.4236  1.3809  0.5047
15477SOL     OW52267   0.053   8.259   7.463  0.0699  0.5674  0.0723
15477SOL    HW152268   0.044   8.192   7.395  0.4601 -2.2346  2.5304
15477SOL    HW252269  -0.029   8.309   7.458  0.0493  0.4239 -2.3156
15478SOL     OW52270   9.708   3.166   8.227 -0.0866 -0.1706  0.4503
15478SOL    HW152271   9.643   3.099   8.205 -1.2852  0.8773  0.7106
15478SOL    HW252272   9.716   3.219   8.148 -1.5980  1.3277  1.2455
15479SOL     OW52273   8.907   0.078   0.851  0.4832 -0.1584 -0.2663
15479SOL    HW152274   8.919  -0.012   0.821 -0.1192  0.1483 -1.5195
15479SOL    HW252275   8.994   0.106   0.879  0.8751 -0.8127 -0.7959
15480SOL     OW52276   3.213   1.928   2.410 -0.3235 -0.0562  0.1907
15480SOL    HW152277   3.169   1.873   2.346  0.2067  0.3932 -0.5738
15480SOL    HW252278   3.300   1.945   2.372 -0.3743  1.0501  0.5367
15481SOL     OW52279  11.622   1.954  10.671  0.3464  0.3875  0.0392
15481SOL    HW152280  11.598   2.044  10.651 -0.2173 -0.0010 -1.1623
15481SOL    HW252281  11.549   1.920  10.721  1.4504  1.1560  2.3119
15482SOL     OW52282   6.363   9.621  11.308  0.7171 -0.3805  0.1443
15482SOL    HW152283   6.458   9.629  11.303  0.8716 -2.2903 -0.6079
15482SOL    HW252284   6.344   9.533  11.275 -1.5796  1.0967 -2.9745
15483SOL     OW52285   9.566   0.420   5.428  0.2543  0.2661  0.3872
15483SOL    HW152286   9.581   0.382   5.342  1.1344 -0.8169  1.0062
15483SOL    HW252287   9.570   0.515   5.413 -1.9153  0.2046 -1.1643
15484SOL     OW52288   0.157   2.538   7.997 -0.2468 -0.2765  0.1944
15484SOL    HW152289   0.215   2.470   8.032  0.2152  0.6831  1.3798
15484SOL    HW252290   0.212   2.617   7.993 -1.7954  1.1229  3.0211
15485SOL     OW52291  11.764  10.492   1.083 -0.0354 -0.2216 -0.1270
15485SOL    HW152292  11.813  10.526   1.008  0.2382 -0.5472 -0.0991
15485SOL    HW252293  11.735  10.406   1.055  1.5817 -1.0984  0.7610
15486SOL     OW52294   2.155   3.391   5.440  0.2928  0.0263 -0.2870
15486SOL    HW152295   2.089   3.332   5.404 -0.2238 -0.4496  1.3651
15486SOL    HW252296   2.107   3.446   5.502  1.2132  0.5691 -0.0375
15487SOL     OW52297  10.473   9.832   3.992  0.1412  0.2825  0.0927
15487SOL    HW152298  10.450   9.800   3.905 -0.4227  2.3573 -0.5905
15487SOL    HW252299  10.409   9.901   4.010  0.2719 -0.0584  2.1471
15488SOL     OW52300   7.874   9.445   1.550 -0.4863  0.4357 -0.4359
15488SOL    HW152301   7.965   9.466   1.573 -1.0856  2.3648  0.3783
15488SOL    HW252302   7.843   9.392   1.624  0.6528 -2.5372 -1.9067
15489SOL     OW52303   4.545   6.874   6.546  0.2862  0.0602  0.3870
15489SOL    HW152304   4.611   6.903   6.483 -0.0552  1.7033  0.7530
15489SOL    HW252305   4.590   6.809   6.600  1.5284  0.9404  0.4508
15490SOL     OW52306   5.722   7.033   9.983  0.3798 -0.3245  0.2508
15490SOL    HW152307   5.638   7.023  10.028 -0.0583 -0.0181 -0.4786
15490SOL    HW252308   5.758   6.945   9.979 -1.1921 -0.9428 -1.8428
15491SOL     OW52309   7.156   3.560   8.480 -0.2886 -0.1709  0.0300
15491SOL    HW152310   7.190   3.556   8.569 -0.6999 -1.3334  0.1628
15491SOL    HW252311   7.064   3.533   8.488  0.1096 -2.0244 -0.9193
15492SOL     OW52312   2.046   4.399   6.777 -0.4425 -0.2993 -0.9031
15492SOL    HW152313   1.998   4.473   6.816 -0.6889 -1.4799  1.1969
15492SOL    HW252314   2.130   4.436   6.751 -0.4218  0.6715  0.4375
15493SOL     OW52315   8.851   4.021   8.123 -0.4031 -0.1685  0.4001
15493SOL    HW152316   8.848   3.986   8.034 -0.0287 -0.7864  0.6267
15493SOL    HW252317   8.776   4.081   8.128 -1.7986 -1.8420  0.3817
15494SOL     OW52318   6.982   7.635   8.876  0.3543  0.1107  0.1990
15494SOL    HW152319   7.015   7.635   8.966  0.7677  0.9626  0.0555
15494SOL    HW252320   7.046   7.687   8.827  0.1579 -0.3857 -0.6029
15495SOL     OW52321  10.548   4.136   3.416  0.7598 -0.0548 -0.7058
15495SOL    HW152322  10.579   4.045   3.415  1.1228  0.0736 -1.1040
15495SOL    HW252323  10.457   4.129   3.446  0.8366 -0.5322 -0.5638
15496SOL     OW52324   1.044   0.316  10.998  0.2023 -0.0402  0.2901
15496SOL    HW152325   1.029   0.227  10.965 -1.4179 -0.7791  2.7110
15496SOL    HW252326   1.079   0.364  10.923 -1.3549 -2.0246 -1.8606
15497SOL     OW52327  10.989   3.043  11.534 -0.3611 -0.0839  0.0947
15497SOL    HW152328  10.903   3.086  11.524 -0.9373 -0.9278  1.2013
15497SOL    HW252329  11.035   3.063  11.452 -1.5070  0.6286 -0.4064
15498SOL     OW52330   8.907   2.821   2.300  0.2794  0.3545  1.1620
15498SOL    HW152331   8.973   2.773   2.250 -0.0987  0.7728  0.2349
15498SOL    HW252332   8.957   2.874   2.362  0.7845  0.1688  0.9142
15499SOL     OW52333   9.553  11.233   4.436  0.7421 -0.8690 -0.0578
15499SOL    HW152334   9.531  11.300   4.501  1.7580  1.1431 -1.6946
15499SOL    HW252335   9.562  11.152   4.487  0.8567  0.4925  2.1886
15500SOL     OW52336   6.019   3.783  10.811  0.7584  0.5902  0.0812
15500SOL    HW152337   5.975   3.781  10.896 -0.0331 -0.9988 -0.3199
15500SOL    HW252338   5.999   3.698  10.772  2.5814  0.5933 -0.9609
15501SOL     OW52339   3.600  10.692  11.550  0.0196 -0.0558  0.0411
15501SOL    HW152340   3.657  10.633  11.599 -0.7808  0.3342  1.4966
15501SOL    HW252341   3.556  10.744  11.617 -0.8024  0.7991 -1.1228
15502SOL     OW52342   3.658  11.865   1.925  0.0913  0.4027  0.0198
15502SOL    HW152343   3.732  11.851   1.865  1.6365 -0.2059  1.9450
15502SOL    HW252344   3.647  11.960   1.927  2.1489  0.6678  1.1405
15503SOL     OW52345   9.172   6.569   6.087 -0.0892 -0.6925 -0.2011
15503SOL    HW152346   9.249   6.515   6.098 -0.3814 -0.8248  1.3639
15503SOL    HW252347   9.117   6.549   6.163 -2.2891 -1.6046 -1.9068
15504SOL     OW52348   1.077  10.975   5.625  0.7770  0.4347  0.5072
15504SOL    HW152349   0.985  10.980   5.650  0.6714  2.4384 -0.1270
15504SOL    HW252350   1.078  10.909   5.555  0.0381 -0.4310  1.2759
15505SOL     OW52351   5.671   6.164   3.515  0.5053 -0.4143 -0.0896
15505SOL    HW152352   5.590   6.143   3.468  0.3107 -1.4809  0.6866
15505SOL    HW252353   5.643   6.181   3.605  1.0066  0.4515 -0.0887
15506SOL     OW52354  11.227   0.187   2.276  0.4896 -0.4935 -0.6511
15506SOL    HW152355  11.177   0.111   2.307 -0.5083  0.8940  1.3986
15506SOL    HW252356  11.161   0.244   2.235  0.8556  0.1493 -0.3646
15507SOL     OW52357   7.378   6.966   3.203 -0.4688  0.4048  0.1032
15507SOL    HW152358   7.295   7.014   3.199 -0.6136  0.3895  2.1636
15507SOL    HW252359   7.439   7.026   3.247  0.3384  0.0245 -0.4627
15508SOL     OW52360   2.840   5.130   9.163  0.4843 -0.9242  0.1377
15508SOL    HW152361   2.875   5.046   9.131  1.7777 -0.4806  0.3325
15508SOL    HW252362   2.915   5.173   9.203  0.1184  0.8316 -0.9734
15509SOL     OW52363   1.999  10.473   1.461 -0.4225 -0.6068  0.6790
15509SOL    HW152364   2.042  10.542   1.410 -2.9911 -1.1243 -2.5292
15509SOL    HW252365   1.964  10.519   1.538  0.0503  1.1622 -0.1157
15510SOL     OW52366   4.102   7.247   4.254  0.4374  0.0221  0.0637
15510SOL    HW152367   4.094   7.157   4.223 -3.5600 -0.5354  2.0609
15510SOL    HW252368   4.144   7.240   4.339  1.8028  0.3190 -0.5636
15511SOL     OW52369   3.257   1.926   7.312  0.2762  0.4564 -0.1882
15511SOL    HW152370   3.305   1.979   7.376  1.5308 -0.1567 -0.5783
15511SOL    HW252371   3.195   1.875   7.364  0.2403  1.0576  0.3638
15512SOL     OW52372   8.901   7.372   8.246 -0.1633  0.0876 -0.2304
15512SOL    HW152373   8.932   7.368   8.155  2.2098 -1.6010  0.5372
15512SOL    HW252374   8.908   7.464   8.269  1.0198  0.2936 -1.2512
15513SOL     OW52375   1.363   1.520   0.797 -0.3929  0.6692  0.1002
15513SOL    HW152376   1.392   1.487   0.712  0.3698 -0.9533  0.9465
15513SOL    HW252377   1.401   1.607   0.803 -0.3106  0.7393 -1.1252
15514SOL     OW52378   3.114   9.660   9.056 -0.1652  0.2192  0.1174
15514SOL    HW152379   3.097   9.747   9.093  1.3883  1.1841 -1.2821
15514SOL    HW252380   3.209   9.658   9.042 -0.4356 -0.7896 -2.0145
15515SOL     OW52381   1.721   6.118   6.295 -0.0489  0.1720 -0.1921
15515SOL    HW152382   1.786   6.124   6.225 -1.5021  2.6520 -1.4824
15515SOL    HW252383   1.768   6.145   6.373  1.5979 -2.6121 -0.0806
15516SOL     OW52384   1.902   5.517   2.098  0.1932  0.4161 -0.2916
15516SOL    HW152385   1.960   5.462   2.150  1.2651  3.7162  2.3391
15516SOL    HW252386   1.815   5.480   2.114  0.9243 -0.9975  0.6917
15517SOL     OW52387   0.399   0.925  12.162  0.3152 -0.2615  0.0904
15517SOL    HW152388   0.433   1.005  12.121 -1.2766  0.1579 -0.4804
15517SOL    HW252389   0.472   0.893  12.216  1.1165  1.3565  0.0340
15518SOL     OW52390  12.318   3.634   1.967  0.3873 -0.5171  0.0481
15518SOL    HW152391  12.235   3.681   1.974  1.7598  2.7744 -2.8889
15518SOL    HW252392  12.324   3.609   1.875  4.0654  2.6574 -0.8269
15519SOL     OW52393   0.912   1.457   5.927 -0.4845 -0.7515 -0.0449
15519SOL    HW152394   1.001   1.484   5.951 -0.4623 -1.3151  0.5249
15519SOL    HW252395   0.925   1.394   5.856 -0.5677  1.2142 -1.8960
15520SOL     OW52396  11.664   3.859   0.865  0.1368  0.1323 -0.0126
15520SOL    HW152397  11.757   3.869   0.881  0.3339  0.9924 -1.5028
15520SOL    HW252398  11.658   3.822   0.777 -0.9280 -0.3240  0.2263
15521SOL     OW52399   7.956   2.240  10.709 -0.3752 -0.1001 -0.3860
15521SOL    HW152400   7.925   2.170  10.766  0.6868 -0.0258  0.3183
15521SOL    HW252401   8.047   2.253  10.735 -0.8092  2.1876  0.1599
15522SOL     OW52402   3.987   9.698   8.391 -0.7861  0.2198  0.0916
15522SOL    HW152403   3.899   9.669   8.369 -0.8141  1.6205 -1.7761
15522SOL    HW252404   3.978   9.742   8.476 -2.0376  1.0565 -0.4612
15523SOL     OW52405   9.832   3.702   6.962  0.5940  0.0038 -0.3716
15523SOL    HW152406   9.774   3.756   6.909  0.7685 -0.1895 -0.7652
15523SOL    HW252407   9.777   3.669   7.033  0.2409 -0.1271 -0.7062
15524SOL     OW52408  10.563  10.204   4.123  0.2648  0.1778  0.1013
15524SOL    HW152409  10.531  10.163   4.042 -0.8089 -1.3560  1.2411
15524SOL    HW252410  10.527  10.150   4.193  0.9005  1.6521  1.6372
15525SOL     OW52411  11.887   5.173   1.223  0.5181  0.3976  0.0434
15525SOL    HW152412  11.802   5.193   1.183 -0.1891 -1.9360  0.2313
15525SOL    HW252413  11.873   5.189   1.316 -0.2230 -1.3595  0.2700
15526SOL     OW52414   0.312   0.532  10.188 -0.7320  0.3091 -0.0053
15526SOL    HW152415   0.286   0.446  10.156  0.6102 -0.1290  0.0410
15526SOL    HW252416   0.280   0.535  10.278  1.1553 -1.0596  0.7662
15527SOL     OW52417   7.041  10.515  10.727 -0.2065 -0.1074 -0.0198
15527SOL    HW152418   7.010  10.552  10.644 -1.1194 -0.6360  0.0719
15527SOL    HW252419   7.121  10.468  10.704  0.0963  0.5746 -0.4147
15528SOL     OW52420   2.964   8.098   8.259 -0.1516  0.5483 -0.1502
15528SOL    HW152421   2.947   8.154   8.183 -1.5554  0.5964  0.1639
15528SOL    HW252422   3.059   8.097   8.267  0.0999 -0.2539 -2.4841
15529SOL     OW52423   9.198  11.460  10.602  0.8429 -0.0335  0.3528
15529SOL    HW152424   9.170  11.540  10.557  0.8981  0.1335  0.6180
15529SOL    HW252425   9.144  11.456  10.680  1.0564 -0.0916  0.4972
15530SOL     OW52426   6.879  10.600   6.045  0.5310 -0.1112 -0.0389
15530SOL    HW152427   6.859  10.679   6.094 -1.8528 -1.4246  1.3291
15530SOL    HW252428   6.966  10.574   6.074 -0.5037 -0.4632  3.2003
15531SOL     OW52429   9.541   6.018   3.804  0.1138 -0.8351  0.4855
15531SOL    HW152430   9.451   6.020   3.837 -0.3123 -1.6406 -0.5520
15531SOL    HW252431   9.595   6.001   3.881 -0.7516 -1.7231  0.9165
15532SOL     OW52432   0.420   0.718   1.893 -0.5310  0.3741  0.3187
15532SOL    HW152433   0.391   0.646   1.948 -2.0550  0.5785 -0.1844
15532SOL    HW252434   0.516   0.716   1.899 -0.6141 -0.6836  1.5653
15533SOL     OW52435   1.328  12.262   3.099 -0.2267 -0.1173 -0.5274
15533SOL    HW152436   1.256  12.266   3.036  0.1278 -0.4712 -0.9758
15533SOL    HW252437   1.398  12.216   3.051  0.2794  0.1889 -0.0935
15534SOL     OW52438  11.539   2.370  11.111 -0.0497  0.9485 -0.4325
15534SOL    HW152439  11.594   2.294  11.089 -0.6849 -0.4875  2.4028
15534SOL    HW252440  11.599   2.434  11.148  0.1888  0.9282 -0.7783
15535SOL     OW52441   0.707   5.224   9.649 -0.1623  0.2235  0.4709
15535SOL    HW152442   0.759   5.181   9.716  0.9847 -0.9046 -1.0550
15535SOL    HW252443   0.733   5.181   9.567 -2.5323  0.5390 -0.5325
15536SOL     OW52444   3.482   1.463   9.559 -0.0650 -0.0865 -0.4119
15536SOL    HW152445   3.479   1.378   9.516 -0.1165 -0.0766 -0.4283
15536SOL    HW252446   3.502   1.443   9.650 -1.4003 -0.2093 -0.1281
15537SOL     OW52447   8.537  10.240   4.845 -0.1942  0.5217 -0.3273
15537SOL    HW152448   8.467  10.186   4.882  0.2605  0.2161  0.1059
15537SOL    HW252449   8.593  10.178   4.798 -1.1212  0.9841 -2.1565
15538SOL     OW52450  10.594   2.325   3.920  0.5228 -0.2755 -0.5710
15538SOL    HW152451  10.554   2.253   3.871  0.2006 -1.2067  0.9995
15538SOL    HW252452  10.685   2.325   3.891  0.4599 -1.1277 -0.8066
15539SOL     OW52453   1.145   1.550   6.704  0.1199 -0.0391 -0.0786
15539SOL    HW152454   1.215   1.614   6.714 -0.1057  0.2285 -0.1968
15539SOL    HW252455   1.075   1.581   6.762 -0.7629  0.9141 -1.5597
15540SOL     OW52456  12.090   8.775  10.910  0.1107 -0.4866 -0.2343
15540SOL    HW152457  12.015   8.820  10.872  1.5931  1.3993 -1.1007
15540SOL    HW252458  12.057   8.737  10.992 -2.0997 -1.0043 -1.2980
15541SOL     OW52459   6.640  10.452   0.416  0.9732 -0.0325  0.5847
15541SOL    HW152460   6.548  10.424   0.413  0.7065  0.8934 -1.7818
15541SOL    HW252461   6.645  10.509   0.493 -0.7934  0.9604  0.0210
15542SOL     OW52462   2.636  10.283  12.256 -0.1734  0.2040  0.0916
15542SOL    HW152463   2.548  10.254  12.279  0.5824 -1.2452  1.2800
15542SOL    HW252464   2.686  10.275  12.337  1.0489  1.1141 -0.5377
15543SOL     OW52465   0.039   6.630  11.883  0.5230  0.4262 -0.5473
15543SOL    HW152466   0.011   6.554  11.934 -0.7645  0.0423 -1.7592
15543SOL    HW252467  -0.024   6.635  11.811  1.1849  2.0503 -1.0566
15544SOL     OW52468   4.297   7.009   2.270 -0.3195 -0.3482 -0.9992
15544SOL    HW152469   4.220   6.953   2.275  0.1242 -0.9387 -0.6868
15544SOL    HW252470   4.322   7.023   2.361  0.1820 -0.4932 -1.1126
15545SOL     OW52471  10.783   8.254   9.121 -0.0931 -0.2995 -0.0856
15545SOL    HW152472  10.749   8.252   9.210  1.3990 -0.0366  0.5301
15545SOL    HW252473  10.844   8.181   9.117 -0.6238 -0.7047 -1.1124
15546SOL     OW52474   1.748  10.363   2.103 -0.8427  0.6777  0.2645
15546SOL    HW152475   1.712  10.289   2.053  1.5479 -0.1640 -0.3268
15546SOL    HW252476   1.737  10.337   2.195  3.1926 -2.3430  0.1954
15547SOL     OW52477  10.555   3.711  10.387  0.1376 -0.4439 -0.0461
15547SOL    HW152478  10.626   3.764  10.352 -0.8763  1.0692  0.1257
15547SOL    HW252479  10.596   3.627  10.407  1.2953 -0.5148 -2.4163
15548SOL     OW52480   9.523   3.959   1.134 -0.0829 -0.1546  0.4146
15548SOL    HW152481   9.556   3.897   1.069  1.1372  0.1404  0.7149
15548SOL    HW252482   9.470   3.906   1.193 -0.7159 -0.5268 -0.4804
15549SOL     OW52483   7.256   1.963   1.724  0.4533  0.2669  0.3211
15549SOL    HW152484   7.319   1.945   1.795  0.9323  1.5124  0.2258
15549SOL    HW252485   7.171   1.950   1.765  0.7308  0.7117  1.0706
15550SOL     OW52486   5.830   5.864  10.069 -0.1027  0.3559  0.0897
15550SOL    HW152487   5.892   5.927  10.034 -0.9749  0.7802 -0.7205
15550SOL    HW252488   5.782   5.913  10.136 -0.8714  0.6174 -0.6319
15551SOL     OW52489   0.703   2.384   6.115 -0.8467  0.2140  0.0119
15551SOL    HW152490   0.781   2.439   6.126  0.4425 -1.7862  1.7523
15551SOL    HW252491   0.733   2.311   6.060 -2.1531  0.5368 -1.1742
15552SOL     OW52492   8.759   9.192   0.313  0.2650 -0.1641  0.6273
15552SOL    HW152493   8.749   9.141   0.393  0.2244  0.7614  1.2239
15552SOL    HW252494   8.835   9.153   0.269  0.1882 -0.7805  1.0277
15553SOL     OW52495   4.141   8.220   2.272  0.0434 -0.3642  0.6006
15553SOL    HW152496   4.168   8.240   2.182 -0.6777 -0.3302  0.3843
15553SOL    HW252497   4.155   8.302   2.319 -1.0155  0.0738  0.1676
15554SOL     OW52498  11.766   9.769  10.738  0.9708 -0.4229 -0.2140
15554SOL    HW152499  11.761   9.801  10.828  0.1571 -1.6701  0.2082
15554SOL    HW252500  11.860   9.763  10.719  1.1428  0.2701  0.3813
15555SOL     OW52501   7.174   5.304   6.732 -0.0748 -0.1899  0.3737
15555SOL    HW152502   7.115   5.377   6.712 -1.0287 -1.2968 -1.0747
15555SOL    HW252503   7.150   5.236   6.669  1.2229 -1.5259  1.2577
15556SOL     OW52504   3.384   3.061   8.749  0.1193  0.1128  0.5994
15556SOL    HW152505   3.475   3.083   8.726 -0.1719 -0.4346 -1.1962
15556SOL    HW252506   3.384   2.966   8.757 -0.5376 -0.0157 -0.6732
15557SOL     OW52507  10.441   9.863  10.441 -0.5959 -0.1258 -0.0605
15557SOL    HW152508  10.514   9.836  10.385  0.1194  2.5670 -0.6040
15557SOL    HW252509  10.368   9.878  10.380 -0.4713  0.7119 -0.0161
15558SOL     OW52510   1.626   3.286   4.322  0.0763 -0.2740  0.1625
15558SOL    HW152511   1.667   3.359   4.368  0.6012 -0.0068 -0.7093
15558SOL    HW252512   1.698   3.225   4.304 -0.3663 -1.0546  0.9391
15559SOL     OW52513   1.944   7.532   4.963 -0.1275 -0.0574 -0.2143
15559SOL    HW152514   1.883   7.474   4.916  0.1392  0.0656 -0.7224
15559SOL    HW252515   2.028   7.520   4.918  0.4738 -0.9609  1.0904
15560SOL     OW52516   3.393   6.234   5.408  0.1703 -0.4048  0.1241
15560SOL    HW152517   3.384   6.330   5.412 -0.6526 -0.5281  2.3137
15560SOL    HW252518   3.418   6.208   5.497  1.1829 -2.1883 -0.6215
15561SOL     OW52519   5.998   8.164   4.835 -0.1604  0.7482  0.6322
15561SOL    HW152520   6.076   8.159   4.779 -0.7797 -1.1460 -0.1513
15561SOL    HW252521   5.925   8.157   4.774 -0.9422  1.5625  1.4459
15562SOL     OW52522   1.723   1.335  10.465 -0.4125  0.1481  0.4047
15562SOL    HW152523   1.800   1.354  10.410 -0.4675 -0.6587  0.0455
15562SOL    HW252524   1.671   1.274  10.414 -1.3749  0.7799  0.5947
15563SOL     OW52525   5.273   7.422  11.961  0.2572  0.1290 -0.2910
15563SOL    HW152526   5.334   7.452  12.028  0.8892 -0.2086 -0.6935
15563SOL    HW252527   5.311   7.339  11.930 -1.8130 -1.5227  1.3202
15564SOL     OW52528   1.644   6.490   1.302  0.2004 -0.2706  0.5598
15564SOL    HW152529   1.653   6.432   1.226 -0.0539 -0.1215  0.4149
15564SOL    HW252530   1.725   6.541   1.303 -1.0050  1.8903 -1.4288
15565SOL     OW52531   5.905   1.308   7.588 -0.1350  0.2870 -0.0242
15565SOL    HW152532   5.811   1.326   7.595 -0.4075 -0.4061 -1.4335
15565SOL    HW252533   5.934   1.363   7.515 -0.1728 -1.8716 -1.7853
15566SOL     OW52534   7.821   6.906   1.248  0.2104  1.0070 -0.3809
15566SOL    HW152535   7.736   6.949   1.249  0.4928  1.5737 -0.5196
15566SOL    HW252536   7.808   6.829   1.193  0.1263  1.8055 -1.5062
15567SOL     OW52537   4.206   9.720   8.872 -0.1449 -0.2071 -0.5379
15567SOL    HW152538   4.129   9.677   8.835 -0.1606 -0.0693 -0.6627
15567SOL    HW252539   4.179   9.810   8.888  0.0837 -0.0770 -0.8737
15568SOL     OW52540   8.233   8.538   0.363 -0.3336 -0.5576  0.1259
15568SOL    HW152541   8.264   8.616   0.318 -0.8704 -0.0570  0.6081
15568SOL    HW252542   8.275   8.465   0.317  0.9597  0.0522  0.2794
15569SOL     OW52543  11.100   7.378   1.895 -0.6652 -0.2062 -0.0930
15569SOL    HW152544  11.037   7.317   1.933 -0.5195 -0.6700 -0.5763
15569SOL    HW252545  11.169   7.386   1.961 -0.8629 -0.2703  0.1249
15570SOL     OW52546   5.188   9.018   3.579  0.4249 -0.2393 -0.1653
15570SOL    HW152547   5.145   9.095   3.614 -0.5738 -0.3512 -1.1144
15570SOL    HW252548   5.123   8.977   3.522  1.2166 -1.3307 -0.3225
15571SOL     OW52549   4.460   7.931   1.817  0.1446 -0.2890  0.6474
15571SOL    HW152550   4.405   7.973   1.884  0.2428  0.6779  0.1410
15571SOL    HW252551   4.426   7.965   1.734  0.9819 -0.3223  0.2860
15572SOL     OW52552   3.621   2.250  10.873 -0.0091 -0.3606 -0.3921
15572SOL    HW152553   3.552   2.242  10.939 -0.4105 -2.5477 -1.0056
15572SOL    HW252554   3.680   2.178  10.890  1.5107  0.7723 -0.6414
15573SOL     OW52555   6.899   0.050   8.014  0.1487  0.6035 -0.1039
15573SOL    HW152556   6.889   0.145   8.025 -0.6970  0.5399 -0.1867
15573SOL    HW252557   6.966   0.041   7.947  0.7956  1.1204  0.4478
15574SOL     OW52558   3.473   9.986   6.406  0.5176 -0.0598 -0.1930
15574SOL    HW152559   3.403   9.996   6.471  1.8307  1.4046  1.0902
15574SOL    HW252560   3.521   9.907   6.434  0.5976  0.1099  0.1537
15575SOL     OW52561   4.248   6.449   8.844 -0.6111  0.3206  0.3428
15575SOL    HW152562   4.168   6.454   8.895  0.2405  0.1785  1.7403
15575SOL    HW252563   4.228   6.387   8.774 -2.1181  1.2918 -0.1229
15576SOL     OW52564   5.384  10.102   7.412  0.2947 -0.2226 -0.3661
15576SOL    HW152565   5.308  10.125   7.359  1.1493  0.2692 -1.4430
15576SOL    HW252566   5.386  10.006   7.410 -0.0959 -0.2289 -0.6369
15577SOL     OW52567   8.058   6.799   1.291 -0.3215 -0.6854  0.2945
15577SOL    HW152568   7.986   6.862   1.299 -0.1580 -0.5706  0.9150
15577SOL    HW252569   8.019   6.715   1.317 -1.3711 -1.4986 -3.3813
15578SOL     OW52570   6.045   0.122   3.862  0.4747 -0.3245 -0.0556
15578SOL    HW152571   5.964   0.079   3.888 -0.0690  0.9876  0.5400
15578SOL    HW252572   6.028   0.215   3.878  1.7521  0.0654 -0.8683
15579SOL     OW52573   3.556   8.138   2.686 -0.3040  0.2834 -0.7023
15579SOL    HW152574   3.637   8.099   2.654  0.9767  2.8959 -0.8982
15579SOL    HW252575   3.500   8.141   2.608  0.1089  0.1558 -1.0136
15580SOL     OW52576   3.611   8.660   7.499 -0.3127  0.2707  0.4697
15580SOL    HW152577   3.548   8.698   7.560 -1.8146 -1.6822  0.2233
15580SOL    HW252578   3.601   8.712   7.419 -0.7374  0.7322  0.8136
15581SOL     OW52579   9.629   2.700  11.743  0.1206  0.6571 -0.3955
15581SOL    HW152580   9.571   2.625  11.762 -0.5219  1.2938  0.2409
15581SOL    HW252581   9.677   2.674  11.665  0.0380 -0.4997 -0.0884
15582SOL     OW52582   7.689   5.268   2.371  0.2835 -0.2626  0.0440
15582SOL    HW152583   7.655   5.308   2.291  0.1602 -0.9633 -0.2639
15582SOL    HW252584   7.611   5.240   2.419  0.3551  0.2276  0.4542
15583SOL     OW52585   7.395  11.256   4.925  0.7189 -0.1192  0.3066
15583SOL    HW152586   7.340  11.223   4.996 -1.3082  2.4186  0.0826
15583SOL    HW252587   7.460  11.312   4.969 -0.2521  1.0848  0.2897
15584SOL     OW52588   6.026   9.951   0.349 -0.0191 -0.8474 -0.0505
15584SOL    HW152589   6.108   9.941   0.300  0.9548 -0.6961  1.4901
15584SOL    HW252590   5.991  10.035   0.319  0.6210 -0.6971 -0.4088
15585SOL     OW52591   2.390   1.348   2.578 -0.1158  0.4664 -0.0325
15585SOL    HW152592   2.343   1.273   2.616 -0.1239  0.4269 -0.1214
15585SOL    HW252593   2.463   1.309   2.531  0.1426  0.5411  0.2990
15586SOL     OW52594  11.803   2.240   2.702  0.5285 -0.2401 -0.2396
15586SOL    HW152595  11.892   2.241   2.667  1.1609  0.4327  1.3111
15586SOL    HW252596  11.807   2.296   2.780 -0.8042 -1.7031  0.9277
15587SOL     OW52597   9.151   3.326   5.400  0.1051 -0.1139  0.0114
15587SOL    HW152598   9.069   3.370   5.419  0.1876  0.8223 -1.5685
15587SOL    HW252599   9.131   3.233   5.407 -1.2754  0.0835 -0.9668
15588SOL     OW52600   5.716   7.764  10.809 -0.1494 -0.0053  0.7312
15588SOL    HW152601   5.683   7.722  10.730 -0.3682 -3.6459  2.5360
15588SOL    HW252602   5.638   7.799  10.852 -0.7261 -1.9417  1.3702
15589SOL     OW52603   2.019   1.615   1.943 -0.2833 -0.6626 -0.7563
15589SOL    HW152604   2.109   1.598   1.913 -0.1630 -1.2749 -0.0775
15589SOL    HW252605   2.016   1.710   1.955  0.8549 -0.7953  0.9597
15590SOL     OW52606  11.705   6.426   8.750 -0.6621 -0.1249 -0.1325
15590SOL    HW152607  11.683   6.461   8.663  0.9977  0.2596 -0.4279
15590SOL    HW252608  11.683   6.333   8.745  0.2008 -0.2942 -1.2771
15591SOL     OW52609   0.608   3.605   4.827  0.2753 -0.1883 -0.7163
15591SOL    HW152610   0.673   3.664   4.791  1.8555 -1.9184 -0.8555
15591SOL    HW252611   0.657   3.549   4.888 -1.3170 -0.7545  0.1042
15592SOL     OW52612   1.154   4.020   0.452  0.4781  0.2539 -0.2524
15592SOL    HW152613   1.178   4.103   0.495  0.0912  0.3715 -0.2636
15592SOL    HW252614   1.238   3.976   0.438  0.7384  0.8960 -0.7559
15593SOL     OW52615   1.240   6.261  12.037 -0.5907  0.1824 -0.0557
15593SOL    HW152616   1.320   6.245  12.088 -0.2257 -0.6103 -0.8613
15593SOL    HW252617   1.172   6.215  12.086 -0.3119 -0.2643 -0.0805
15594SOL     OW52618   9.446   8.504   8.083 -0.2846  0.2389  0.2967
15594SOL    HW152619   9.373   8.443   8.093 -0.3080  0.3083  0.5711
15594SOL    HW252620   9.423   8.557   8.007  0.3508 -0.9466 -0.7440
15595SOL     OW52621  10.891   3.734   6.290  0.7225  0.3349 -0.5572
15595SOL    HW152622  10.855   3.687   6.365 -1.4105  1.1324 -1.0006
15595SOL    HW252623  10.867   3.681   6.214  0.7283  0.7439 -0.8515
15596SOL     OW52624   9.564   7.830   1.334  0.0556 -0.4367  0.0338
15596SOL    HW152625   9.602   7.902   1.384  0.5400  0.3081 -1.3466
15596SOL    HW252626   9.535   7.870   1.252  1.6522 -2.0325 -1.3934
15597SOL     OW52627   2.494  11.120   5.472 -0.3688  0.3194  0.2708
15597SOL    HW152628   2.581  11.119   5.512  1.3235 -0.7929 -3.1213
15597SOL    HW252629   2.469  11.028   5.465 -0.9550  0.5290 -0.5038
15598SOL     OW52630   5.967   2.440   5.778 -0.2454 -0.0836  0.2299
15598SOL    HW152631   6.057   2.441   5.813  0.1734 -1.4617 -0.7275
15598SOL    HW252632   5.912   2.450   5.855  0.6797 -1.9740  1.2200
15599SOL     OW52633  10.628   7.488  11.933  0.3147 -0.1380  0.0543
15599SOL    HW152634  10.564   7.460  11.999  1.2639 -0.0704  1.0245
15599SOL    HW252635  10.702   7.521  11.983  0.9819  0.1191 -1.0558
15600SOL     OW52636   7.124  10.421   5.387 -0.9587  0.2464 -0.6264
15600SOL    HW152637   7.088  10.332   5.385  0.7950 -0.6252  1.9334
15600SOL    HW252638   7.075  10.465   5.457  0.4127  0.1707  0.4230
15601SOL     OW52639   6.082  11.298  11.161  0.1603  0.3332 -0.0548
15601SOL    HW152640   6.127  11.286  11.244  0.0065 -1.2055 -0.1614
15601SOL    HW252641   6.143  11.348  11.107  2.0422 -2.1391 -0.3847
15602SOL     OW52642   1.582   0.686   4.843  0.5964 -0.4363 -0.4358
15602SOL    HW152643   1.594   0.733   4.925 -4.0032  0.0657  0.2066
15602SOL    HW252644   1.577   0.593   4.868 -3.4956 -0.1258  0.5121
15603SOL     OW52645   4.342   0.753  11.428  0.0600  0.1776  0.2020
15603SOL    HW152646   4.415   0.785  11.480 -1.1064  0.3196  1.8233
15603SOL    HW252647   4.381   0.730  11.343  1.6670  1.8307  0.4337
15604SOL     OW52648   6.448   7.354   9.646 -0.4850 -0.0748  0.4345
15604SOL    HW152649   6.460   7.409   9.569 -0.4363  0.9570  1.1540
15604SOL    HW252650   6.371   7.301   9.626 -0.4828  0.1957 -0.3085
15605SOL     OW52651   5.086   2.606   6.288 -0.3337 -0.2748  0.4431
15605SOL    HW152652   5.090   2.565   6.202 -0.5654 -0.0011  0.2972
15605SOL    HW252653   5.018   2.558   6.335  0.0700 -0.6804  0.6136
15606SOL     OW52654   8.159   8.344   1.613  0.0292  0.0660  0.2799
15606SOL    HW152655   8.092   8.289   1.573 -0.2028  0.8497 -0.4561
15606SOL    HW252656   8.209   8.285   1.669  0.5680 -1.2008 -1.4196
15607SOL     OW52657   4.876  12.274   5.378  0.4005 -0.2932 -0.0503
15607SOL    HW152658   4.912  12.318   5.301 -1.1043  0.2841 -0.4633
15607SOL    HW252659   4.917  12.188   5.378  2.4055  0.6280  0.0204
15608SOL     OW52660   3.029  11.868   2.567  0.0730  0.2051 -0.9336
15608SOL    HW152661   2.942  11.901   2.588 -0.9909 -2.3488 -0.8584
15608SOL    HW252662   3.032  11.868   2.471  0.3917  1.1848 -0.9316
15609SOL     OW52663   8.795  11.912   3.527  0.2490 -0.3958 -0.5484
15609SOL    HW152664   8.888  11.893   3.533  0.0779 -1.5509 -1.2389
15609SOL    HW252665   8.765  11.863   3.451 -0.7866  0.5593 -0.7791
15610SOL     OW52666   5.830   6.261   1.820  0.2083 -0.3643  0.6911
15610SOL    HW152667   5.897   6.257   1.888  0.4006  0.0274  0.5316
15610SOL    HW252668   5.747   6.268   1.867  0.3414 -0.0835  0.8843
15611SOL     OW52669  10.093   1.899   5.267 -0.1074 -0.4699  0.4429
15611SOL    HW152670  10.064   1.839   5.198 -0.2445 -0.5894  0.6023
15611SOL    HW252671  10.049   1.868   5.346  0.9719 -1.0677  0.8362
15612SOL     OW52672  10.566   9.018  10.019 -0.5805 -0.1793 -0.0043
15612SOL    HW152673  10.644   9.066   9.990 -2.0250  1.9677 -0.5687
15612SOL    HW252674  10.550   8.954   9.950  1.0116 -1.0689  0.4203
15613SOL     OW52675   3.062   1.318  10.431  0.4284  0.2893 -0.8756
15613SOL    HW152676   3.028   1.359  10.352  1.2885  0.3155 -1.2414
15613SOL    HW252677   3.157   1.327  10.424  0.4974  1.3972  0.7432
15614SOL     OW52678   7.722   0.259   7.260  0.4205  0.9054  0.3986
15614SOL    HW152679   7.628   0.260   7.277 -0.0904 -0.3349 -1.9237
15614SOL    HW252680   7.756   0.192   7.319 -0.4739  0.1174  0.0510
15615SOL     OW52681  11.088   2.607   0.662 -0.3034  0.1118  0.3436
15615SOL    HW152682  11.057   2.691   0.627 -2.5286  0.2105  2.3393
15615SOL    HW252683  11.054   2.542   0.600  1.1128  0.5818 -1.0042
15616SOL     OW52684   8.573   4.280   2.028  0.2384 -0.0750  0.1855
15616SOL    HW152685   8.627   4.359   2.024  2.3675 -1.3867  1.3186
15616SOL    HW252686   8.608   4.223   1.960  1.7928 -1.7497  2.2380
15617SOL     OW52687   3.164  11.664   4.440 -0.4983  0.3790 -0.2730
15617SOL    HW152688   3.242  11.662   4.385  0.1990  0.0989  0.6964
15617SOL    HW252689   3.091  11.674   4.378  0.4570  3.7625 -1.0671
15618SOL     OW52690   2.728   6.673   9.082  0.4168  0.6945 -0.0796
15618SOL    HW152691   2.710   6.717   9.165 -1.9920 -0.1443 -0.0806
15618SOL    HW252692   2.780   6.736   9.032 -0.1477  2.1897  1.1418
15619SOL     OW52693   6.658   0.933   6.136  0.0668 -0.2229 -0.3640
15619SOL    HW152694   6.656   0.963   6.045  0.3344  0.8835 -0.0268
15619SOL    HW252695   6.620   0.846   6.134  0.2119 -0.2714 -1.5616
15620SOL     OW52696   0.851   2.599   9.478  0.4963  0.0607  0.3339
15620SOL    HW152697   0.900   2.541   9.420  0.8218  0.7277 -0.0741
15620SOL    HW252698   0.832   2.546   9.556  1.6242 -0.3029  0.3754
15621SOL     OW52699   4.234   9.973   5.458 -0.1232 -0.4290 -0.0485
15621SOL    HW152700   4.212   9.886   5.423 -0.7031  0.2205 -1.3306
15621SOL    HW252701   4.276  10.018   5.386  1.5137 -0.1045  1.0424
15622SOL     OW52702   4.775   2.656   2.495 -0.1635 -0.0489  0.0789
15622SOL    HW152703   4.684   2.684   2.487 -0.1634 -0.2428 -0.5847
15622SOL    HW252704   4.781   2.621   2.584 -0.3781  1.2526  0.6343
15623SOL     OW52705   1.000  12.242   9.356 -0.2191 -0.6190 -0.5429
15623SOL    HW152706   0.924  12.277   9.403  0.9039  1.5157 -0.1450
15623SOL    HW252707   1.058  12.209   9.425  0.1689 -0.1589 -0.6410
15624SOL     OW52708   9.700   0.637   7.042  0.0744 -0.2888  0.0451
15624SOL    HW152709   9.638   0.608   6.975  0.4688 -0.2037 -0.3651
15624SOL    HW252710   9.671   0.725   7.066 -0.3640 -0.5122  0.3568
15625SOL     OW52711   2.666   7.473   8.427  0.3250 -0.0211  0.3368
15625SOL    HW152712   2.684   7.544   8.489 -0.4612  0.3480  0.1534
15625SOL    HW252713   2.575   7.448   8.446  1.1400 -2.2892  1.7182
15626SOL     OW52714   2.579   4.373   9.547 -0.2977  0.6337  0.1431
15626SOL    HW152715   2.607   4.313   9.479  1.8986  1.7916 -0.0636
15626SOL    HW252716   2.527   4.439   9.500 -1.7533 -0.4338  0.1974
15627SOL     OW52717   1.438   6.648   8.500 -0.4628 -0.0678  0.3846
15627SOL    HW152718   1.416   6.610   8.414  1.2142 -0.2813  0.0266
15627SOL    HW252719   1.466   6.737   8.480 -0.0702 -0.1154  0.7181
15628SOL     OW52720   3.391   9.593   4.501  0.0124 -0.3238 -0.1101
15628SOL    HW152721   3.454   9.624   4.436 -1.5292 -0.0757 -1.5615
15628SOL    HW252722   3.388   9.662   4.567  2.5920 -1.1723  1.0068
15629SOL     OW52723   5.746  10.192   0.073 -0.0502  0.4896 -0.3405
15629SOL    HW152724   5.705  10.227   0.152  1.5513  1.0179  0.3140
15629SOL    HW252725   5.696  10.230   0.001 -0.8067  0.9531  0.4048
15630SOL     OW52726   4.183   8.543   6.107 -0.2477 -0.2030  0.1567
15630SOL    HW152727   4.119   8.474   6.121  0.1922 -0.5835  0.2859
15630SOL    HW252728   4.205   8.575   6.194  1.2816 -1.4817  0.2809
15631SOL     OW52729   1.837  10.680   5.326  0.1090 -0.2186 -0.7157
15631SOL    HW152730   1.827  10.597   5.372  1.5630 -0.7231 -1.2290
15631SOL    HW252731   1.911  10.723   5.370 -1.6635  1.6354  0.6651
15632SOL     OW52732  11.597   4.068   8.620 -0.4650  1.2188  0.0438
15632SOL    HW152733  11.691   4.051   8.617 -0.6597 -0.6679  2.1501
15632SOL    HW252734  11.581   4.096   8.710 -2.1742 -0.5157  0.3378
15633SOL     OW52735   1.274   7.128   3.966  0.4014 -0.2329 -0.2539
15633SOL    HW152736   1.226   7.109   4.047  0.3754  0.0083 -0.2118
15633SOL    HW252737   1.359   7.085   3.978  0.6491  0.3557  0.1882
15634SOL     OW52738   3.666   6.313   5.509 -0.4654 -0.5029  0.1989
15634SOL    HW152739   3.746   6.310   5.561 -0.5091 -3.5892  0.2984
15634SOL    HW252740   3.601   6.267   5.563 -2.4366  2.0978  0.2236
15635SOL     OW52741  12.043   3.330  10.801  0.3029 -0.5710  0.3348
15635SOL    HW152742  12.047   3.320  10.706  2.5518  1.0668  0.1755
15635SOL    HW252743  12.120   3.283  10.834  0.7749  0.6658  1.1019
15636SOL     OW52744  11.101   2.932   9.743 -0.1082 -0.3568  0.6251
15636SOL    HW152745  11.138   2.890   9.821  0.5760 -0.2779  0.3417
15636SOL    HW252746  11.018   2.886   9.729  0.2169 -1.0251  0.8387
15637SOL     OW52747   3.124  11.422   8.556 -0.2791 -1.0083  0.1404
15637SOL    HW152748   3.039  11.465   8.559  0.0122 -0.4527  0.6747
15637SOL    HW252749   3.160  11.445   8.471  1.2820  2.6440  1.5557
15638SOL     OW52750   0.465   6.963   8.220 -0.0780 -0.2691 -0.1039
15638SOL    HW152751   0.515   6.934   8.296 -0.1225  1.5197  0.6731
15638SOL    HW252752   0.531   6.998   8.160 -0.2405  0.5982  0.2118
15639SOL     OW52753  12.192   8.907  10.123 -0.1227  0.0989  0.3530
15639SOL    HW152754  12.256   8.979  10.125  0.9990 -0.8430 -0.2187
15639SOL    HW252755  12.243   8.831  10.095 -1.5710 -0.6236 -0.4254
15640SOL     OW52756   7.293   8.308   8.841  0.2848  0.2143  0.0562
15640SOL    HW152757   7.199   8.298   8.856  0.1131  0.3798 -0.8545
15640SOL    HW252758   7.324   8.361   8.914  0.1278 -1.8738  1.7291
15641SOL     OW52759   8.842  11.820   5.266 -0.5261 -0.1789  0.0164
15641SOL    HW152760   8.873  11.849   5.180 -0.4093  1.0494  0.4537
15641SOL    HW252761   8.841  11.725   5.260  0.6193 -0.1539 -0.9521
15642SOL     OW52762   3.884   3.591   9.643 -0.1949  0.0116  0.6401
15642SOL    HW152763   3.847   3.531   9.579  2.2868 -0.4606 -0.4949
15642SOL    HW252764   3.896   3.673   9.596  2.3991 -0.5673  0.0854
15643SOL     OW52765   0.478   3.865   0.175 -0.2358  0.1593  0.3573
15643SOL    HW152766   0.478   3.930   0.245 -1.1148  1.0755 -0.4589
15643SOL    HW252767   0.544   3.896   0.113 -0.8067  0.4028 -0.1390
15644SOL     OW52768   0.319   0.074   1.327  0.1976  0.1310 -0.1687
15644SOL    HW152769   0.277   0.159   1.315 -1.8097 -0.7945 -0.1184
15644SOL    HW252770   0.261   0.012   1.283  1.2769 -1.2961  0.3387
15645SOL     OW52771   7.048   4.446   7.078 -0.2513  0.2833 -0.4973
15645SOL    HW152772   7.097   4.364   7.083  0.6809  0.8264 -0.6366
15645SOL    HW252773   6.987   4.441   7.152  0.9604  0.1990  0.5380
15646SOL     OW52774  12.293   5.022   8.363 -0.3582  0.0658 -0.1966
15646SOL    HW152775  12.321   4.978   8.443  0.2926  0.5365 -0.1631
15646SOL    HW252776  12.289   5.115   8.386  1.4729  0.4310 -1.1416
15647SOL     OW52777  10.633   6.416   4.634 -0.1027  0.2458 -0.2181
15647SOL    HW152778  10.692   6.345   4.608  0.4265  0.9493 -0.9992
15647SOL    HW252779  10.656   6.434   4.725  0.0674 -0.2818 -0.1510
15648SOL     OW52780  11.802   0.606   0.803  0.2993  0.4708  0.6422
15648SOL    HW152781  11.843   0.520   0.813 -0.6870  0.0699  1.3613
15648SOL    HW252782  11.868   0.667   0.837  1.4964  0.1538 -0.9676
15649SOL     OW52783   1.979   0.548   1.188  0.2498  0.2683  0.5142
15649SOL    HW152784   1.902   0.575   1.238 -0.2371 -0.6946  0.3185
15649SOL    HW252785   1.953   0.464   1.149  1.7935 -0.6477  1.3646
15650SOL     OW52786   6.926   7.078   1.356 -0.3154 -0.3362 -0.2949
15650SOL    HW152787   6.936   6.995   1.403 -0.1338  0.4951  1.1879
15650SOL    HW252788   6.857   7.125   1.404 -0.3938  0.3863 -1.0893
15651SOL     OW52789   7.895  10.031   3.323  0.4652 -0.0040  0.1932
15651SOL    HW152790   7.819  10.035   3.265  0.0271 -1.1332  0.6694
15651SOL    HW252791   7.877  10.098   3.390 -0.4453 -0.6985  0.6743
15652SOL     OW52792  10.740   5.284  12.214 -0.1376 -0.3328 -0.0772
15652SOL    HW152793  10.770   5.291  12.305 -0.6385 -0.3381  0.0939
15652SOL    HW252794  10.789   5.210  12.178 -1.3082 -1.5568  0.7625
15653SOL     OW52795   3.115   4.334   8.562 -0.4242 -0.0171 -0.1875
15653SOL    HW152796   3.127   4.369   8.650 -2.0901 -0.2757  0.1762
15653SOL    HW252797   3.028   4.365   8.536 -0.6029 -1.2414 -1.1168
15654SOL     OW52798   4.001  11.604   7.737  0.0867  0.0092  0.4253
15654SOL    HW152799   4.063  11.537   7.707 -0.3941 -0.8238  1.2346
15654SOL    HW252800   4.052  11.656   7.800  0.5235  0.5502 -0.3610
15655SOL     OW52801  12.288  10.566   7.396  0.8321  0.3788  0.4126
15655SOL    HW152802  12.281  10.496   7.331 -0.7579  1.3286 -0.4923
15655SOL    HW252803  12.314  10.643   7.347  2.1678  0.5545  1.3415
15656SOL     OW52804   4.576   2.578   4.438 -0.0248 -0.3303 -0.0957
15656SOL    HW152805   4.663   2.617   4.428  0.5280 -1.4645  0.2120
15656SOL    HW252806   4.560   2.532   4.355 -0.8772  0.8879 -0.6444
15657SOL     OW52807   0.581   9.229   8.753  0.0568 -0.1321 -0.3256
15657SOL    HW152808   0.662   9.180   8.738  0.2977 -0.1091  0.7888
15657SOL    HW252809   0.513   9.162   8.756  0.4483 -0.5343  1.6941
15658SOL     OW52810   6.155  12.104   1.884 -0.1788 -0.1120  0.0059
15658SOL    HW152811   6.174  12.186   1.930  0.3117  0.8759 -1.8663
15658SOL    HW252812   6.064  12.112   1.858  0.0589  0.1365 -0.7541
15659SOL     OW52813   5.439   9.544   3.761  0.0534 -0.7653 -0.6454
15659SOL    HW152814   5.495   9.583   3.828  0.0387 -2.0796  0.1746
15659SOL    HW252815   5.350   9.566   3.789  0.0958  0.4234 -1.3741
15660SOL     OW52816  11.096   2.731   6.095 -0.5899  0.6276  0.6641
15660SOL    HW152817  11.070   2.644   6.066  0.5946  0.9656 -1.6436
15660SOL    HW252818  11.061   2.738   6.184  0.4554 -2.7000  1.4724
15661SOL     OW52819   0.892  10.435   9.243  0.4204  0.1386  0.4853
15661SOL    HW152820   0.814  10.463   9.291 -1.2578 -0.7206 -1.5796
15661SOL    HW252821   0.958  10.422   9.311 -0.9466  1.7010  2.2401
15662SOL     OW52822  11.985   4.948   9.236 -0.1463 -0.4400  0.4659
15662SOL    HW152823  11.914   4.894   9.273  0.1989 -1.2215  0.0034
15662SOL    HW252824  12.061   4.891   9.236  0.3731  0.2442  0.5008
15663SOL     OW52825  11.127   6.926  11.943 -0.0415 -0.4178 -0.2612
15663SOL    HW152826  11.040   6.921  11.982  0.0488  0.5542  0.1087
15663SOL    HW252827  11.186   6.941  12.017  0.2145  0.7588 -0.6762
15664SOL     OW52828   4.243   6.937  10.687  0.4146  0.3166 -0.1183
15664SOL    HW152829   4.189   6.986  10.749  0.3952  0.3087 -0.1292
15664SOL    HW252830   4.209   6.847  10.691  0.9068  0.1493  0.4268
15665SOL     OW52831   3.924   7.512   8.633  0.5899  0.4374 -0.3153
15665SOL    HW152832   3.916   7.422   8.603  2.4268 -0.0898  0.6482
15665SOL    HW252833   3.975   7.556   8.566 -0.4014  0.8143 -0.8406
15666SOL     OW52834  11.701   3.894  10.076 -0.2856  0.2178  0.0127
15666SOL    HW152835  11.674   3.976  10.119 -0.5835  0.3302 -0.3877
15666SOL    HW252836  11.783   3.871  10.119 -2.2318 -1.5366  3.2016
15667SOL     OW52837   7.331   3.499   1.729  0.2077  0.4542  0.0037
15667SOL    HW152838   7.419   3.535   1.741  0.0211  0.5500  1.1869
15667SOL    HW252839   7.337   3.447   1.649  1.3848  0.3144  0.1650
15668SOL     OW52840   9.488   0.829   7.915  0.0177  0.4045  0.1801
15668SOL    HW152841   9.429   0.827   7.840  0.8261 -1.4798 -0.4745
15668SOL    HW252842   9.558   0.767   7.893  0.2505 -0.2701  2.4889
15669SOL     OW52843   2.024   6.072   6.134 -0.5313  0.2351  0.1020
15669SOL    HW152844   1.989   5.989   6.102  0.5335  0.3333 -1.4472
15669SOL    HW252845   1.983   6.138   6.078 -2.1471  0.9075  1.9665
15670SOL     OW52846   9.430   2.519   5.566  0.2466  0.8283  0.3154
15670SOL    HW152847   9.396   2.593   5.517  1.3203  0.9944 -0.2193
15670SOL    HW252848   9.411   2.443   5.511  0.0873  0.8280  0.3696
15671SOL     OW52849   2.920  11.922  10.806 -0.2721  0.0672  0.4364
15671SOL    HW152850   2.973  11.980  10.860  0.5321 -0.6166  0.3940
15671SOL    HW252851   2.855  11.979  10.766  1.5345  1.2531 -0.9422
15672SOL     OW52852   4.592   3.786   9.914 -0.0623 -0.3575 -0.0259
15672SOL    HW152853   4.652   3.834   9.972  0.0856 -0.5948  0.0177
15672SOL    HW252854   4.595   3.834   9.831  1.0768 -1.0238 -0.3935
15673SOL     OW52855   2.004   7.610   7.971  0.2809 -0.3589  0.6369
15673SOL    HW152856   2.031   7.669   8.042  2.7105  0.0235 -0.4886
15673SOL    HW252857   2.086   7.575   7.937 -0.7955 -0.6602 -1.8706
15674SOL     OW52858  11.355  10.270   7.261  0.0542 -0.1258 -0.4243
15674SOL    HW152859  11.387  10.180   7.261 -0.9339 -0.4793 -0.2715
15674SOL    HW252860  11.392  10.308   7.341 -0.1034 -0.5950 -0.1300
15675SOL     OW52861   9.048   6.861   8.261  0.2313 -0.6246 -0.4592
15675SOL    HW152862   9.058   6.932   8.198  2.1633 -1.0226 -0.6766
15675SOL    HW252863   9.121   6.802   8.243  1.5302 -0.2264  2.7855
15676SOL     OW52864   7.536   2.530   5.632 -0.3029 -0.1166 -0.0294
15676SOL    HW152865   7.518   2.583   5.709  0.2215  0.9290 -0.6140
15676SOL    HW252866   7.542   2.592   5.560  2.8451 -0.6170 -0.3514
15677SOL     OW52867   9.620  11.550   5.866  0.3194 -0.1142 -0.0757
15677SOL    HW152868   9.606  11.622   5.927  0.2199 -0.9063  0.8535
15677SOL    HW252869   9.686  11.584   5.805  0.4420  0.6847  0.4745
15678SOL     OW52870   0.671  11.356  10.426  0.2149 -0.2893 -0.8144
15678SOL    HW152871   0.765  11.376  10.423  0.3994 -0.6496  1.1134
15678SOL    HW252872   0.630  11.439  10.448  0.5111 -0.7917  2.1330
15679SOL     OW52873   9.920  10.165   4.210 -0.2983  0.1963  0.4648
15679SOL    HW152874   9.995  10.205   4.166 -1.7899  1.4368 -1.1293
15679SOL    HW252875   9.956  10.091   4.258  1.7672 -0.0672 -1.3402
15680SOL     OW52876   3.898   6.078   8.078  0.3895 -0.0256  0.1015
15680SOL    HW152877   3.943   6.073   8.162  0.5082 -0.5253  0.0146
15680SOL    HW252878   3.929   6.001   8.030  0.7310  0.5493 -0.6033
15681SOL     OW52879   4.630  12.228  10.209  0.0950  0.1757  0.7209
15681SOL    HW152880   4.631  12.318  10.177 -0.4921  0.3538  1.1771
15681SOL    HW252881   4.589  12.178  10.138  1.5420  0.0384 -0.0552
15682SOL     OW52882   1.227   3.740   8.898 -0.3385  0.0748 -0.2477
15682SOL    HW152883   1.156   3.722   8.836  0.2353  0.7930 -1.1353
15682SOL    HW252884   1.223   3.834   8.913  1.6070  0.4674 -1.8150
15683SOL     OW52885   6.758   5.926   8.795  0.1902  0.0684 -0.5454
15683SOL    HW152886   6.682   5.929   8.853  1.2696 -0.2932  0.9813
15683SOL    HW252887   6.744   5.997   8.733 -1.3964 -0.0222 -0.3370
15684SOL     OW52888   8.465   9.823   9.249 -0.2419 -0.3921 -0.3816
15684SOL    HW152889   8.477   9.740   9.201  0.4729 -0.4768 -0.0669
15684SOL    HW252890   8.552   9.863   9.249 -0.7053  0.6419 -1.0338
15685SOL     OW52891   4.228   4.607   6.362  0.5873  0.0171  0.1543
15685SOL    HW152892   4.252   4.653   6.281  1.6076  0.0277  0.4484
15685SOL    HW252893   4.299   4.626   6.422 -0.9462  1.4005  1.6456
15686SOL     OW52894   3.612  11.875  11.510  0.1454 -0.0645 -0.6563
15686SOL    HW152895   3.673  11.842  11.576 -0.7040 -1.1867 -0.3918
15686SOL    HW252896   3.595  11.965  11.536 -0.1335 -0.4666  0.6484
15687SOL     OW52897  10.784  10.707   6.427 -0.4742  0.7854 -0.2788
15687SOL    HW152898  10.796  10.710   6.332  0.2544  0.8835 -0.1876
15687SOL    HW252899  10.873  10.711   6.463 -0.8170  2.7197  0.4577
15688SOL     OW52900   2.708   0.336   4.202  0.6151 -0.5854  0.0319
15688SOL    HW152901   2.677   0.312   4.290 -0.9553  0.0162 -0.3326
15688SOL    HW252902   2.718   0.252   4.157  0.7334 -0.8582  0.5518
15689SOL     OW52903   5.182   0.571   2.714 -0.0122 -0.3150 -0.5017
15689SOL    HW152904   5.223   0.619   2.786  2.3704 -2.7040 -0.0942
15689SOL    HW252905   5.246   0.575   2.643 -1.2866 -0.0066 -1.6718
15690SOL     OW52906   4.116   8.756  10.377 -0.2016  0.1154 -0.0477
15690SOL    HW152907   4.141   8.759  10.284  2.8226  1.3422  0.7079
15690SOL    HW252908   4.122   8.846  10.407  0.0220 -0.4155  1.6200
15691SOL     OW52909   7.197   0.586   0.472 -0.2561  0.2355  0.1671
15691SOL    HW152910   7.220   0.555   0.384  0.0725 -0.8683  0.6191
15691SOL    HW252911   7.163   0.675   0.458  0.7557  0.4818 -0.9585
15692SOL     OW52912   2.569   6.360   2.322  0.4330  0.4076 -0.3895
15692SOL    HW152913   2.535   6.447   2.301 -1.1953 -0.1512 -0.2429
15692SOL    HW252914   2.490   6.306   2.333  1.3915 -0.9035  0.2941
15693SOL     OW52915   0.929   8.559   1.165 -0.1072  0.1702 -0.0378
15693SOL    HW152916   0.905   8.567   1.257 -2.4562 -2.6935 -0.2673
15693SOL    HW252917   1.008   8.504   1.166 -1.1890 -1.4659  0.2887
15694SOL     OW52918  11.349  11.956   9.594 -0.7447 -0.9275 -0.1611
15694SOL    HW152919  11.420  11.893   9.588 -1.0864 -1.3459  0.1216
15694SOL    HW252920  11.316  11.947   9.683 -0.9908 -0.5638 -0.2130
15695SOL     OW52921   0.521   2.006   3.088  0.2861  0.6066 -0.0480
15695SOL    HW152922   0.608   1.983   3.120 -0.1538  1.0519  1.5271
15695SOL    HW252923   0.485   1.923   3.057  0.7039  0.1447  0.6807
15696SOL     OW52924   6.512   0.176   4.898 -1.0025 -0.5978  0.4883
15696SOL    HW152925   6.521   0.081   4.906 -0.2631 -0.4290  1.8707
15696SOL    HW252926   6.466   0.203   4.977 -1.0886  0.2269  0.1695
15697SOL     OW52927   1.436  12.166   6.740 -0.0314  0.3085 -0.9660
15697SOL    HW152928   1.482  12.248   6.723  0.1009  0.4327 -0.0538
15697SOL    HW252929   1.503  12.107   6.774 -0.5282  0.5127  0.4361
15698SOL     OW52930   0.575   1.538   5.512  0.3351  0.3580 -0.4972
15698SOL    HW152931   0.652   1.542   5.455  0.7412 -1.8309 -0.2137
15698SOL    HW252932   0.611   1.528   5.600 -0.2541 -0.6956 -0.3590
15699SOL     OW52933   4.330   8.456   9.972 -0.0935  0.1134 -0.4514
15699SOL    HW152934   4.341   8.427   9.881 -0.8640  0.4606 -0.6680
15699SOL    HW252935   4.399   8.412  10.020  0.7067  0.3874 -1.3108
15700SOL     OW52936  10.851   7.444   4.166  0.0855  0.1351 -0.0307
15700SOL    HW152937  10.811   7.372   4.117 -0.9850 -1.1352  2.5055
15700SOL    HW252938  10.943   7.419   4.174  0.0177 -0.2362 -0.3605
15701SOL     OW52939   3.007  10.667   4.420  0.3911  0.0027 -0.5779
15701SOL    HW152940   2.931  10.723   4.438  1.0827  0.5693  0.6636
15701SOL    HW252941   3.006  10.603   4.491  1.4475  0.4103 -0.1914
15702SOL     OW52942   0.668   1.821   9.507  0.1162 -0.0772  0.6046
15702SOL    HW152943   0.675   1.770   9.588  0.2552 -1.9691 -0.5628
15702SOL    HW252944   0.595   1.783   9.460 -0.1250  1.1773 -0.0828
15703SOL     OW52945   2.538  10.591   2.679  0.1807 -0.6552  0.5720
15703SOL    HW152946   2.594  10.536   2.735  0.0560 -0.5655  0.7879
15703SOL    HW252947   2.487  10.643   2.741  1.0712  0.4986  0.3770
15704SOL     OW52948   6.258   2.018   5.115  0.1503  0.5985  0.0212
15704SOL    HW152949   6.197   2.042   5.046 -0.2241 -0.4679 -0.0433
15704SOL    HW252950   6.204   2.006   5.193 -0.1956 -2.7897 -0.5840
15705SOL     OW52951   0.224   5.601  11.281 -0.1713  0.1099 -0.1705
15705SOL    HW152952   0.242   5.518  11.325 -2.1144 -0.0260  0.4799
15705SOL    HW252953   0.151   5.582  11.222  0.2258  1.0618 -1.0064
15706SOL     OW52954   3.512   8.188   6.207 -0.0784  0.4330 -0.1481
15706SOL    HW152955   3.556   8.273   6.202 -0.7332  0.7176 -1.5105
15706SOL    HW252956   3.482   8.182   6.297  1.1190  1.0489  0.3198
15707SOL     OW52957   4.811   5.039   0.508  0.2748  0.1361 -0.4362
15707SOL    HW152958   4.795   5.066   0.418 -0.2344 -1.2927 -0.8090
15707SOL    HW252959   4.727   5.048   0.552 -0.0505 -1.2324 -0.7077
15708SOL     OW52960   4.688   4.390  10.813 -0.2336  0.1667  0.1687
15708SOL    HW152961   4.594   4.374  10.818 -0.0602 -0.7811  0.6812
15708SOL    HW252962   4.719   4.329  10.745 -0.0611  0.8729 -0.4025
15709SOL     OW52963  10.421   0.246   9.027  0.0255 -0.3192 -0.2339
15709SOL    HW152964  10.358   0.286   9.086  1.2307  3.1825 -1.0396
15709SOL    HW252965  10.494   0.221   9.083  0.0297  0.4393  0.1112
15710SOL     OW52966   2.444  10.952   9.975  0.3328 -1.1726  0.1608
15710SOL    HW152967   2.392  10.881   9.937 -1.5910  1.7267 -3.2898
15710SOL    HW252968   2.379  11.009  10.017  1.1264  0.5549 -0.8096
15711SOL     OW52969   0.117   0.349   1.259 -0.0160 -0.2639  0.6148
15711SOL    HW152970   0.112   0.440   1.230 -1.3358 -0.5994 -0.3112
15711SOL    HW252971   0.139   0.300   1.180 -1.3964 -0.9485  0.6277
15712SOL     OW52972   3.398   5.190   5.771  0.1334 -0.3702  0.5855
15712SOL    HW152973   3.359   5.262   5.819 -0.1172 -0.4167  0.4517
15712SOL    HW252974   3.324   5.140   5.736  0.3099 -0.3156  0.1207
15713SOL     OW52975   4.373  12.219   9.329 -0.3353  0.2186 -0.6792
15713SOL    HW152976   4.438  12.289   9.314 -1.0687  0.9829 -0.3882
15713SOL    HW252977   4.307  12.234   9.262 -3.2666  3.2028  2.4391
15714SOL     OW52978   5.829   0.392   3.527 -0.3083  0.0656 -0.1566
15714SOL    HW152979   5.879   0.312   3.512  0.1302 -0.0638  1.7694
15714SOL    HW252980   5.769   0.370   3.599 -0.4187  1.3518  0.1709
15715SOL     OW52981   9.691  11.430   6.584 -0.0079  0.0653 -0.6211
15715SOL    HW152982   9.772  11.477   6.569  0.1388  0.8395  2.1939
15715SOL    HW252983   9.703  11.347   6.537  0.8719  1.5793 -3.2642
15716SOL     OW52984  10.056   1.887   6.654  1.0280 -0.2262 -0.5752
15716SOL    HW152985  10.089   1.815   6.707  0.2416  0.0941  0.3861
15716SOL    HW252986  10.004   1.845   6.585  0.2254 -0.5868  0.2264
15717SOL     OW52987   8.282   1.918   0.888  0.1466  0.2129 -0.6715
15717SOL    HW152988   8.284   1.952   0.798 -1.5978 -0.6791 -1.0952
15717SOL    HW252989   8.264   1.996   0.942  0.8866  0.7039 -1.1109
15718SOL     OW52990   4.814   8.609   9.333 -0.0562 -0.4621 -0.3269
15718SOL    HW152991   4.842   8.529   9.377  1.4062 -0.6621 -1.5477
15718SOL    HW252992   4.819   8.677   9.401  0.0575 -1.1392  0.3567
15719SOL     OW52993   2.460  11.837   9.990 -0.2514 -0.3683  0.1973
15719SOL    HW152994   2.424  11.926   9.985  1.5870  0.4880  1.2741
15719SOL    HW252995   2.520  11.839  10.064  0.6500 -2.2199 -0.4126
15720SOL     OW52996   2.291   7.493   1.936  0.1958  0.1827  0.3026
15720SOL    HW152997   2.294   7.399   1.919  0.2634 -0.3887  3.0368
15720SOL    HW252998   2.370   7.510   1.988  0.3312  1.8188 -0.3841
15721SOL     OW52999   1.161  10.429   7.530 -0.0222  0.2714  0.2908
15721SOL    HW153000   1.181  10.433   7.624 -2.3146  2.8159  0.8096
15721SOL    HW253001   1.095  10.498   7.517 -2.4508 -2.3041 -2.5451
15722SOL     OW53002  11.571   7.087   6.216  0.0863  0.2523  0.0545
15722SOL    HW153003  11.550   7.159   6.274  2.4927  0.9560  0.1677
15722SOL    HW253004  11.593   7.128   6.133 -0.1317 -0.4916 -0.3865
15723SOL     OW53005  12.302   1.239   8.521  0.5137 -0.1676  0.0123
15723SOL    HW153006  12.256   1.155   8.519  2.5701 -1.3698  0.3632
15723SOL    HW253007  12.284   1.279   8.436  1.3775 -2.0797 -1.1448
15724SOL     OW53008   2.365   2.431   3.983 -0.1597 -0.2325 -0.4817
15724SOL    HW153009   2.352   2.513   4.031 -1.1060  0.1549 -1.3572
15724SOL    HW253010   2.392   2.368   4.050 -0.6587  0.4806  0.4210
15725SOL     OW53011  10.105   8.392   4.826 -0.4557 -0.5915 -0.0131
15725SOL    HW153012  10.184   8.345   4.854 -0.7896 -0.6884  0.7686
15725SOL    HW253013  10.034   8.330   4.841 -1.2182  0.9003  3.1932
15726SOL     OW53014   9.731  10.641   0.290  0.2194  0.6748 -0.5813
15726SOL    HW153015   9.824  10.623   0.304  0.4362  1.4866 -0.9461
15726SOL    HW253016   9.688  10.556   0.301  0.8610  0.5029  0.7491
15727SOL     OW53017  12.214   9.115   3.346  0.0203 -0.3720 -0.4021
15727SOL    HW153018  12.263   9.196   3.333  0.6556 -0.6281  0.3042
15727SOL    HW253019  12.216   9.072   3.261 -0.6175  0.5037 -0.8746
15728SOL     OW53020   5.662   3.396   3.901 -0.0553  0.5770 -0.3683
15728SOL    HW153021   5.676   3.301   3.908 -1.0014  0.0606 -3.7208
15728SOL    HW253022   5.569   3.408   3.921  0.4713  1.1750  2.0414
15729SOL     OW53023   2.624  12.152   1.210 -0.1760  0.2217 -0.0342
15729SOL    HW153024   2.693  12.092   1.240  0.6542  1.3007  0.2916
15729SOL    HW253025   2.582  12.106   1.137  1.4150 -0.1582 -0.7606
15730SOL     OW53026  11.955   6.774   2.030 -0.5844 -0.1394  0.2541
15730SOL    HW153027  11.946   6.679   2.018  0.5572 -0.1132 -1.0486
15730SOL    HW253028  12.023   6.783   2.097 -0.7317 -0.2353  0.4179
15731SOL     OW53029  10.958   9.364  12.129 -0.6767  0.3102 -0.5538
15731SOL    HW153030  11.005   9.426  12.072  2.4466 -1.4686 -0.1809
15731SOL    HW253031  10.974   9.397  12.218  0.2447 -0.4736 -0.4077
15732SOL     OW53032   3.129   1.980   3.462  0.0460 -0.0648 -0.3325
15732SOL    HW153033   3.131   2.068   3.498 -0.8660 -0.4099  0.6033
15732SOL    HW253034   3.042   1.972   3.423  0.0059 -0.6537 -0.1337
15733SOL     OW53035  11.364   1.023   8.915 -0.7444 -0.2703 -0.7886
15733SOL    HW153036  11.445   0.990   8.875  0.0700  1.3596 -0.5734
15733SOL    HW253037  11.314   1.058   8.842 -0.7850 -0.3464 -0.7971
15734SOL     OW53038   8.678  10.749   8.094 -0.4886 -0.6689 -0.2466
15734SOL    HW153039   8.663  10.831   8.140 -2.3887 -1.7021  1.0856
15734SOL    HW253040   8.694  10.685   8.163 -1.6144 -1.9114 -1.0871
15735SOL     OW53041  11.375   2.400   3.793 -0.3115  0.1619  0.4512
15735SOL    HW153042  11.289   2.426   3.761 -0.1800  0.6152  0.4593
15735SOL    HW253043  11.357   2.341   3.867 -0.6116  0.1912  0.4013
15736SOL     OW53044  10.803   6.696   0.994 -0.4891 -0.1318  0.2564
15736SOL    HW153045  10.839   6.651   0.918 -1.0517 -0.2084  0.0235
15736SOL    HW253046  10.729   6.641   1.021  0.0819 -0.4278  1.2372
15737SOL     OW53047   2.754  12.169  10.968 -0.3270  0.1253  0.6962
15737SOL    HW153048   2.835  12.121  10.986  0.2273  0.8305  0.1431
15737SOL    HW253049   2.771  12.215  10.886 -1.1975  0.4926  0.7115
15738SOL     OW53050   9.383   2.347   6.449 -0.1461  0.6293 -0.1974
15738SOL    HW153051   9.406   2.254   6.443  2.2572  1.1585 -0.1779
15738SOL    HW253052   9.304   2.355   6.394 -0.8134 -1.5043  0.3358
15739SOL     OW53053  11.473   7.826   6.275 -0.4566 -0.6865 -0.3839
15739SOL    HW153054  11.558   7.854   6.308 -1.0225  0.3713  0.2214
15739SOL    HW253055  11.430   7.784   6.350 -0.5903 -0.9502 -0.6047
15740SOL     OW53056   8.711   4.167  12.110  0.5584 -0.1670  0.5145
15740SOL    HW153057   8.731   4.188  12.201  1.3672  1.5130 -0.0179
15740SOL    HW253058   8.617   4.183  12.102  0.6254  0.4359  0.8700
15741SOL     OW53059   9.859   9.746   4.794  0.2833  0.0264 -0.1445
15741SOL    HW153060   9.845   9.651   4.796  0.4373  0.0126  0.8421
15741SOL    HW253061   9.952   9.755   4.769  1.4995 -0.2728  3.6737
15742SOL     OW53062   8.094   9.982   7.340  0.1815  0.1763 -0.2070
15742SOL    HW153063   8.132  10.049   7.283  0.6260  0.2611  0.1803
15742SOL    HW253064   8.077  10.027   7.422 -0.6259  0.0959 -0.3231
15743SOL     OW53065   3.929   0.911   1.683  0.0358 -0.2246 -0.7145
15743SOL    HW153066   3.883   0.846   1.630  0.4517 -0.3363 -0.9334
15743SOL    HW253067   3.877   0.916   1.764 -0.6852  0.0552 -1.1780
15744SOL     OW53068   9.961   5.044   3.735  0.3317  0.4619  0.5570
15744SOL    HW153069  10.042   5.092   3.750  0.1274  0.4571  1.7407
15744SOL    HW253070   9.903   5.107   3.692  0.9503  0.4586 -0.3132
15745SOL     OW53071   9.342   3.868   4.032  0.2908  0.3375  0.2404
15745SOL    HW153072   9.353   3.780   3.997  1.2153 -0.7990  3.0763
15745SOL    HW253073   9.308   3.855   4.121 -1.6676  2.9698  0.0137
15746SOL     OW53074   4.940  11.668  11.903  0.1450 -0.6387  0.5112
15746SOL    HW153075   4.850  11.695  11.886 -0.5843 -1.7115  2.3485
15746SOL    HW253076   4.987  11.750  11.919  0.0332  0.1014 -2.4030
15747SOL     OW53077   0.575   5.670  10.979  0.3491  0.0846 -0.1123
15747SOL    HW153078   0.566   5.723  10.900  0.6500  1.8380  0.9647
15747SOL    HW253079   0.526   5.718  11.046  1.6773 -0.3040  1.2109
15748SOL     OW53080   5.384   1.030   6.818 -0.8200  0.4133  0.3593
15748SOL    HW153081   5.411   1.097   6.881  2.1669  0.5247 -0.8886
15748SOL    HW253082   5.327   1.076   6.757 -2.1962  0.7478  1.8328
15749SOL     OW53083   8.372   6.039   7.819 -0.0587  0.2553  0.1741
15749SOL    HW153084   8.449   5.991   7.788 -0.6072 -1.7237  1.6499
15749SOL    HW253085   8.308   6.028   7.748 -0.3806 -1.8701  0.7094
15750SOL     OW53086   6.448   8.225   6.489 -0.5255 -0.6609  0.2326
15750SOL    HW153087   6.459   8.236   6.584 -1.5242  0.7430  0.2186
15750SOL    HW253088   6.473   8.310   6.452 -0.9940 -0.9045 -0.6755
15751SOL     OW53089  11.784   7.530   0.555  0.4127 -0.1765 -0.0674
15751SOL    HW153090  11.729   7.606   0.575 -1.9624 -1.9987  0.8324
15751SOL    HW253091  11.810   7.543   0.463 -1.5541  0.7927 -0.5381
15752SOL     OW53092   5.513   1.291  10.337 -0.5425 -0.2979  0.1540
15752SOL    HW153093   5.553   1.281  10.423  2.8226 -1.0181 -1.3646
15752SOL    HW253094   5.483   1.204  10.313 -0.3082 -0.3619  0.0893
15753SOL     OW53095  10.265   3.678  11.245 -0.1323 -0.0211  0.0869
15753SOL    HW153096  10.238   3.708  11.158  0.5991 -0.6699 -0.3799
15753SOL    HW253097  10.238   3.587  11.248  0.9212 -0.3473  0.0600
15754SOL     OW53098   6.383   0.217   3.053  0.8142  0.0306  0.3943
15754SOL    HW153099   6.322   0.248   2.986 -0.3384 -1.6945  0.5684
15754SOL    HW253100   6.440   0.156   3.007  1.0286  0.0163  0.6797
15755SOL     OW53101   2.064  11.805   2.829  0.3594  0.5552 -0.2621
15755SOL    HW153102   2.102  11.860   2.760 -0.4486  0.5235 -0.7430
15755SOL    HW253103   2.139  11.777   2.881  1.0102  0.4055 -1.2550
15756SOL     OW53104   6.781   0.730   7.238 -0.6444 -0.4549  0.1622
15756SOL    HW153105   6.840   0.717   7.313 -0.3223 -0.8893 -0.1602
15756SOL    HW253106   6.730   0.808   7.261  0.1413  0.0066  0.3961
15757SOL     OW53107  11.027   6.552   2.131  0.3742 -0.2042 -0.7138
15757SOL    HW153108  11.081   6.575   2.056  1.2419  0.4134  0.0774
15757SOL    HW253109  11.054   6.462   2.153 -0.0299 -0.4622 -1.2567
15758SOL     OW53110  11.632   9.963   5.872 -0.1229  0.9242 -0.4255
15758SOL    HW153111  11.663   9.916   5.795  0.9861  0.1940  0.4351
15758SOL    HW253112  11.710   9.972   5.927 -0.7733  1.9211  0.3676
15759SOL     OW53113   3.879   2.662   1.038 -0.2305 -0.1320  0.2332
15759SOL    HW153114   3.952   2.702   0.991 -1.2797  0.2701 -1.1010
15759SOL    HW253115   3.890   2.568   1.024  0.7437 -0.1821  1.1555
15760SOL     OW53116   7.360   7.088   3.579  0.0346  0.2157  0.1383
15760SOL    HW153117   7.421   7.084   3.505 -0.9430  0.3326 -0.7004
15760SOL    HW253118   7.410   7.132   3.648  1.3480 -0.9220 -0.0437
15761SOL     OW53119   4.488   1.140   3.274 -0.0814 -0.2576 -0.2119
15761SOL    HW153120   4.456   1.083   3.204 -0.7602  0.5368 -0.5702
15761SOL    HW253121   4.490   1.227   3.234  1.9547 -0.1707 -0.0023
15762SOL     OW53122   7.603   8.179   7.317 -0.5657  0.1431  0.2469
15762SOL    HW153123   7.627   8.114   7.384 -0.1595  0.5653  0.5129
15762SOL    HW253124   7.552   8.244   7.364  0.6420  1.0194  0.3921
15763SOL     OW53125   9.993   2.611   2.103 -0.3999 -0.0130 -0.3679
15763SOL    HW153126   9.925   2.547   2.126 -0.3234  0.0329 -0.0044
15763SOL    HW253127   9.992   2.614   2.008 -1.8792  1.0140 -0.3559
15764SOL     OW53128   0.487  11.344   0.405  0.4243 -0.3188  0.5197
15764SOL    HW153129   0.421  11.286   0.368 -0.5066  1.4726 -0.7841
15764SOL    HW253130   0.441  11.394   0.473  0.0443  1.7320 -1.1538
15765SOL     OW53131   6.829   1.143  11.321  0.2637  0.6861 -0.0864
15765SOL    HW153132   6.907   1.121  11.271 -0.0504  1.3880 -0.8950
15765SOL    HW253133   6.796   1.059  11.352  1.0394  0.3394 -0.1842
15766SOL     OW53134   6.036   5.099   9.426 -0.2250 -0.3143  0.8359
15766SOL    HW153135   6.008   5.054   9.506  1.4686 -0.3368  1.4700
15766SOL    HW253136   5.991   5.053   9.355 -0.3876 -1.4488  1.6428
15767SOL     OW53137   0.926   8.142  10.792  0.4681  0.2616 -0.6482
15767SOL    HW153138   1.003   8.090  10.772  0.7053  0.6312 -0.7132
15767SOL    HW253139   0.952   8.232  10.773  0.0609  0.4036 -0.5530
15768SOL     OW53140   7.294   0.443   8.688 -0.3102 -0.2865 -0.4991
15768SOL    HW153141   7.380   0.468   8.654  0.0421 -0.0347  0.5259
15768SOL    HW253142   7.231   0.486   8.630  0.2469 -0.7105 -1.4316
15769SOL     OW53143  12.207  12.237   9.872  0.1992  0.1119  0.3299
15769SOL    HW153144  12.287  12.289   9.871 -0.0402  0.5295 -1.6665
15769SOL    HW253145  12.237  12.147   9.858  0.3784  0.1494  0.4742
15770SOL     OW53146   2.602  10.118   3.499 -0.0450 -0.3078 -0.3220
15770SOL    HW153147   2.545  10.049   3.534  1.3762 -1.5202 -0.3045
15770SOL    HW253148   2.691  10.087   3.516  0.6526  1.4476 -0.5060
15771SOL     OW53149   4.653   0.729   0.141 -0.0556  0.4128 -0.1250
15771SOL    HW153150   4.661   0.684   0.057  0.2984 -3.1770  1.6614
15771SOL    HW253151   4.564   0.763   0.142 -0.6872 -1.1139 -1.2473
15772SOL     OW53152  11.144   9.284   6.049  0.4812  0.6779  0.2521
15772SOL    HW153153  11.220   9.295   6.107  0.5506  1.4257  0.0319
15772SOL    HW253154  11.068   9.295   6.107  0.5453  2.2040  0.0956
15773SOL     OW53155   9.478  10.248   1.843  0.2711  0.1974 -0.3241
15773SOL    HW153156   9.493  10.331   1.887  0.4391  0.8816 -1.6333
15773SOL    HW253157   9.385  10.247   1.821  0.4439  0.4670 -1.1137
15774SOL     OW53158  10.343  11.153   1.682 -0.0610  0.3556  0.0567
15774SOL    HW153159  10.424  11.196   1.708 -0.0272  0.0876  0.4080
15774SOL    HW253160  10.356  11.061   1.706  0.0252  0.0636 -1.0461
15775SOL     OW53161   7.110   7.873   2.663  0.0024 -0.0091  0.0823
15775SOL    HW153162   7.035   7.890   2.606  0.2008  1.2387  0.1551
15775SOL    HW253163   7.165   7.952   2.654  0.6550 -0.3383  1.0270
15776SOL     OW53164   1.527   6.055   6.992  0.0245 -0.2461 -0.2310
15776SOL    HW153165   1.432   6.065   6.990 -0.2005 -1.8900  0.4907
15776SOL    HW253166   1.542   5.983   7.053  1.8970  1.5857  1.6265
15777SOL     OW53167   7.441   7.842   4.028 -0.2280 -0.1183 -0.0549
15777SOL    HW153168   7.513   7.872   3.973  1.0255  0.1086  1.6270
15777SOL    HW253169   7.415   7.758   3.990  0.9307 -0.2096 -0.6839
15778SOL     OW53170   2.657   7.877   8.178  1.0482  0.9961  0.5417
15778SOL    HW153171   2.604   7.799   8.162  3.5699 -0.7747  0.2670
15778SOL    HW253172   2.648   7.930   8.099  0.4746  0.2605  0.1137
15779SOL     OW53173  11.225   9.289  11.149  0.3484  0.4359  0.1623
15779SOL    HW153174  11.280   9.367  11.146  1.1933  0.0820  3.1569
15779SOL    HW253175  11.196   9.283  11.239 -3.0370 -0.5531 -0.8411
15780SOL     OW53176   5.537   8.493   9.299  0.0811 -0.0964 -0.2753
15780SOL    HW153177   5.505   8.582   9.288 -1.5344 -0.5767  0.3195
15780SOL    HW253178   5.628   8.496   9.268 -0.3169  1.4721 -1.3831
15781SOL     OW53179   1.868   9.391   1.763 -0.1968  0.0295 -0.0714
15781SOL    HW153180   1.902   9.477   1.737  0.7455 -0.1826  0.4163
15781SOL    HW253181   1.783   9.385   1.719 -1.5458  2.3372  1.9354
15782SOL     OW53182  12.315  12.117   7.867  0.5396  0.3303  0.1724
15782SOL    HW153183  12.408  12.099   7.879  0.4530  0.8029  1.8988
15782SOL    HW253184  12.272  12.032   7.877  0.8533 -0.1533 -2.1351
15783SOL     OW53185   3.729   5.458   4.119  0.0898 -0.3534 -0.2167
15783SOL    HW153186   3.762   5.387   4.064  3.7220  0.6901  0.3340
15783SOL    HW253187   3.713   5.418   4.204  0.9160 -0.7844 -0.2516
15784SOL     OW53188   7.049   8.256   3.455 -0.0629  0.0986 -0.0585
15784SOL    HW153189   7.037   8.164   3.434 -0.1264  0.0533  0.1758
15784SOL    HW253190   7.143   8.271   3.449 -0.1198  0.2155 -0.9148
15785SOL     OW53191   8.599   8.097   5.080  0.3387  0.1844  0.2806
15785SOL    HW153192   8.582   8.093   4.986 -0.6635 -1.8637  0.4998
15785SOL    HW253193   8.530   8.153   5.116 -1.3175 -1.6685  0.1547
15786SOL     OW53194   2.127   1.735   9.386 -0.3545  0.1080  0.2448
15786SOL    HW153195   2.098   1.812   9.338  0.8022  1.4297  1.5576
15786SOL    HW253196   2.223   1.736   9.377  0.0277  0.9826  3.2826
15787SOL     OW53197   7.398  11.347   2.437  0.0237 -0.9133  0.1115
15787SOL    HW153198   7.346  11.396   2.501  0.1575 -2.6779  1.6842
15787SOL    HW253199   7.469  11.406   2.413 -0.3296 -0.0039  1.2120
15788SOL     OW53200   0.186   8.339   7.017  0.0913  0.6387 -0.5857
15788SOL    HW153201   0.153   8.355   6.929 -1.1984 -1.5734 -0.5596
15788SOL    HW253202   0.175   8.245   7.031  1.3847  0.7242  1.5041
15789SOL     OW53203   0.500   5.949   2.210 -0.3778 -0.3778  0.1637
15789SOL    HW153204   0.459   6.033   2.190  1.3629  0.4552 -0.1249
15789SOL    HW253205   0.576   5.945   2.152 -0.6919 -2.4052 -0.1807
15790SOL     OW53206   7.726  10.754   7.178 -0.1075  0.1963  0.2140
15790SOL    HW153207   7.651  10.721   7.228 -0.8391  0.1461 -0.8913
15790SOL    HW253208   7.735  10.845   7.206 -2.3725  1.0883 -1.6372
15791SOL     OW53209   8.920   8.254   8.784 -0.3530 -0.7690 -0.0914
15791SOL    HW153210   8.868   8.324   8.823  0.0131 -1.8228  2.4986
15791SOL    HW253211   8.943   8.197   8.858  2.1217 -1.8618 -1.5722
15792SOL     OW53212   9.714   7.904   8.368  0.5730 -0.4397 -0.1504
15792SOL    HW153213   9.798   7.951   8.362  0.7629 -0.4588  1.8076
15792SOL    HW253214   9.737   7.819   8.406 -0.2475 -0.7575 -0.3573
15793SOL     OW53215   7.394  12.074   2.928  0.0103  0.1879 -0.7279
15793SOL    HW153216   7.349  12.076   3.012 -2.3646  1.8409 -1.9070
15793SOL    HW253217   7.440  11.990   2.927 -1.5073 -0.7669  1.3919
15794SOL     OW53218   4.859  11.745   0.650 -0.0605  0.1044  0.4905
15794SOL    HW153219   4.882  11.799   0.726 -0.8761 -0.2174  0.9789
15794SOL    HW253220   4.918  11.670   0.655  2.7474  1.9767 -1.5054
15795SOL     OW53221   5.664   4.204   6.079 -0.6616  0.3369 -0.3696
15795SOL    HW153222   5.732   4.224   6.144 -0.8591 -2.2568  0.7770
15795SOL    HW253223   5.582   4.231   6.121 -0.5910  0.9082 -0.5895
15796SOL     OW53224   9.037  11.604   9.996  0.2155 -0.2922 -0.5877
15796SOL    HW153225   9.111  11.599   9.935  0.2770 -1.2607 -0.4517
15796SOL    HW253226   8.970  11.653   9.949  0.9304  0.5753 -0.7256
15797SOL     OW53227   3.545   3.808  12.038  0.0822 -0.6202 -0.1013
15797SOL    HW153228   3.472   3.788  12.097 -0.7527  1.1317 -0.4924
15797SOL    HW253229   3.504   3.843  11.959  1.3300  0.0519 -0.4773
15798SOL     OW53230   6.585  10.065   7.551  0.6819 -0.4426  0.0628
15798SOL    HW153231   6.510  10.044   7.495 -0.7750  1.5520  1.1575
15798SOL    HW253232   6.656  10.085   7.490  0.0577 -1.3928 -1.0070
15799SOL     OW53233  10.731  12.205   1.203  0.4624  0.0029 -0.3128
15799SOL    HW153234  10.698  12.131   1.152  0.0412 -0.0791  0.0716
15799SOL    HW253235  10.725  12.280   1.144  2.7307 -0.5835 -1.4058
15800SOL     OW53236   7.905   7.390   9.070  0.0947  0.3254 -0.2731
15800SOL    HW153237   7.959   7.331   9.121 -1.0892  0.7036  1.5282
15800SOL    HW253238   7.850   7.333   9.016 -0.4456 -0.2052  0.8192
15801SOL     OW53239   7.985  10.024   5.231 -0.4255 -0.5672 -0.5625
15801SOL    HW153240   7.893  10.020   5.257 -0.5091  0.7176 -0.6173
15801SOL    HW253241   7.987   9.988   5.143 -1.0337  0.2432 -0.9207
15802SOL     OW53242   9.477   6.096   6.318 -0.2225  0.0606  0.4027
15802SOL    HW153243   9.474   6.089   6.222 -0.7095 -1.6077  0.5192
15802SOL    HW253244   9.497   6.188   6.334 -1.0389  0.5687 -1.2833
15803SOL     OW53245   1.402   4.607   8.069  0.3322  0.2503  0.1219
15803SOL    HW153246   1.384   4.514   8.057 -0.1121  0.4119 -0.5327
15803SOL    HW253247   1.317   4.645   8.092  0.5934  0.4319  0.8140
15804SOL     OW53248   7.412   8.841   5.389 -0.3044  0.2472  0.4503
15804SOL    HW153249   7.406   8.782   5.314 -0.4883  0.1324  0.5521
15804SOL    HW253250   7.332   8.893   5.384  0.1422  0.9062  0.0185
15805SOL     OW53251   3.402  11.526   4.741 -0.1781  0.5712 -0.1096
15805SOL    HW153252   3.329  11.551   4.798 -0.3172  1.4142 -0.6451
15805SOL    HW253253   3.452  11.606   4.728  0.7096  0.0516  0.0482
15806SOL     OW53254   5.128   4.591   2.039  0.0434  0.1459  0.5239
15806SOL    HW153255   5.156   4.562   1.952 -0.1410 -1.4677  0.9788
15806SOL    HW253256   5.085   4.675   2.023 -1.4940 -0.8906 -1.1837
15807SOL     OW53257   5.622   9.872  10.397  0.0449 -0.1843 -0.7269
15807SOL    HW153258   5.589   9.954  10.434 -0.8561 -0.9997  0.3577
15807SOL    HW253259   5.699   9.852  10.450 -1.0977 -1.2192  0.6297
15808SOL     OW53260   2.330  10.162   3.847 -0.7269  0.1263 -0.3182
15808SOL    HW153261   2.383  10.192   3.773  0.7739 -0.4237  0.4876
15808SOL    HW253262   2.356  10.071   3.860 -2.0770 -0.2388 -0.0466
15809SOL     OW53263  11.462   8.076   0.393  0.9217  0.3079  0.3199
15809SOL    HW153264  11.464   8.030   0.309 -0.0979 -0.4717  0.6965
15809SOL    HW253265  11.494   8.164   0.373 -1.6745  0.9651 -1.4285
15810SOL     OW53266   5.310   6.703   5.622  1.0100 -0.0296 -0.5012
15810SOL    HW153267   5.240   6.759   5.586  0.3928 -0.2871  0.2704
15810SOL    HW253268   5.330   6.642   5.551 -0.6727 -0.9740 -0.2087
15811SOL     OW53269  10.408   5.830   1.980  0.0864  0.1863 -0.1811
15811SOL    HW153270  10.483   5.888   1.981 -0.6082  1.0955  0.1171
15811SOL    HW253271  10.348   5.868   1.916 -0.1888 -0.4513 -0.3142
15812SOL     OW53272   5.458   4.028   1.574  0.2274  0.2147 -0.2958
15812SOL    HW153273   5.509   4.099   1.613  0.3678  0.9749 -1.8031
15812SOL    HW253274   5.518   3.986   1.512 -0.0016 -0.9311  0.2239
15813SOL     OW53275  10.378   1.003   3.448 -0.3462  0.9444  0.1634
15813SOL    HW153276  10.396   0.987   3.540 -0.9208  0.6574  0.2335
15813SOL    HW253277  10.314   0.936   3.424  0.0959  0.7616 -0.5486
15814SOL     OW53278   3.716   9.039  12.151  0.4631 -0.6068  0.3817
15814SOL    HW153279   3.621   9.041  12.164  0.2734  0.6929 -0.9602
15814SOL    HW253280   3.748   8.979  12.218 -1.2151 -0.4266  1.3945
15815SOL     OW53281   9.445   6.816   0.517  0.0465 -0.4190 -0.4764
15815SOL    HW153282   9.355   6.849   0.522  0.1696 -0.1200 -0.1370
15815SOL    HW253283   9.499   6.895   0.526  0.3414 -0.4698 -1.7311
15816SOL     OW53284   1.006  11.007   6.880  0.1618  0.4301 -0.1761
15816SOL    HW153285   0.959  10.976   6.803 -1.9612  1.1712  0.7242
15816SOL    HW253286   0.959  10.969   6.954  1.4643  0.6243  0.7900
15817SOL     OW53287   0.705   4.242   7.154 -0.2983 -0.2978  0.7315
15817SOL    HW153288   0.687   4.241   7.248 -2.0070  0.5723  0.4387
15817SOL    HW253289   0.673   4.157   7.123  0.5728 -0.7243  0.9684
15818SOL     OW53290   6.124   3.263  10.738  0.1969  0.0938  0.5832
15818SOL    HW153291   6.136   3.169  10.723  0.0959  0.3455 -1.3015
15818SOL    HW253292   6.210   3.301  10.726  0.2260  0.2741  1.2921
15819SOL     OW53293   4.156   5.726   2.870  0.1969 -0.0243  0.1333
15819SOL    HW153294   4.115   5.643   2.895 -0.7358  0.5607  0.5876
15819SOL    HW253295   4.226   5.738   2.935  0.1189 -0.2886  0.2675
15820SOL     OW53296   6.219   4.975  10.737 -0.1225 -0.2830  0.5395
15820SOL    HW153297   6.267   4.924  10.671  3.2703  1.6925  1.2902
15820SOL    HW253298   6.154   5.023  10.686  0.7459 -0.6776 -1.0354
15821SOL     OW53299  10.906  11.091   6.636 -0.4298 -0.7206 -0.9932
15821SOL    HW153300  10.812  11.102   6.625 -0.2482  1.0656 -1.0366
15821SOL    HW253301  10.934  11.168   6.686  0.8148 -1.8877  0.2416
15822SOL     OW53302   2.033  11.630   4.283  0.3111 -0.0136 -0.2102
15822SOL    HW153303   2.123  11.653   4.260 -0.4444  0.8391 -2.6210
15822SOL    HW253304   2.030  11.635   4.378  2.9090 -0.5115 -0.0312
15823SOL     OW53305   7.759   6.611   3.401  0.2386  0.5249  0.7152
15823SOL    HW153306   7.681   6.662   3.420 -0.8154 -0.7276 -0.0861
15823SOL    HW253307   7.831   6.665   3.433 -0.8553  2.1955  0.4964
15824SOL     OW53308   3.055   0.418   2.444  0.3597 -0.0278 -0.1485
15824SOL    HW153309   3.131   0.458   2.487 -0.2484  0.4932  0.4713
15824SOL    HW253310   2.989   0.487   2.444  0.0920 -0.2599 -1.2745
15825SOL     OW53311   3.362   0.565   7.968 -0.4141  0.4154 -0.2129
15825SOL    HW153312   3.448   0.530   7.993 -0.2997  1.2304  0.5905
15825SOL    HW253313   3.303   0.490   7.975  0.0283  0.1128  0.4006
15826SOL     OW53314   0.539  11.483  10.961  0.6463 -0.1835  0.1300
15826SOL    HW153315   0.622  11.454  10.999  0.9346  1.4483  0.8188
15826SOL    HW253316   0.559  11.498  10.869  1.3434  0.9536  0.4505
15827SOL     OW53317   4.609   5.964   7.729 -0.9280 -0.0284  0.5090
15827SOL    HW153318   4.524   5.989   7.694 -0.6592  0.1369 -0.0312
15827SOL    HW253319   4.670   5.978   7.657 -0.4568 -0.2432  0.8601
15828SOL     OW53320   9.545   9.060   1.939  0.2718  0.3983 -0.1603
15828SOL    HW153321   9.530   9.021   2.026  0.1251 -0.4604 -0.5569
15828SOL    HW253322   9.537   9.154   1.953 -1.3795  0.2055  0.4724
15829SOL     OW53323   5.374   6.024   2.263  0.4151 -0.6544 -0.3071
15829SOL    HW153324   5.284   6.005   2.288 -0.6147  1.7923 -1.7737
15829SOL    HW253325   5.410   6.072   2.337  0.6357 -1.9010  0.4077
15830SOL     OW53326   1.514   2.275   5.263  0.0358 -0.0533 -0.2266
15830SOL    HW153327   1.513   2.298   5.355 -2.0251  0.1932 -0.2849
15830SOL    HW253328   1.564   2.193   5.260  1.5254  0.7617  0.8512
15831SOL     OW53329   4.061   0.205   9.538  0.1568 -0.1675  0.1039
15831SOL    HW153330   4.097   0.285   9.575 -0.9798 -0.0128  0.9227
15831SOL    HW253331   4.118   0.135   9.570  0.0603  0.1230  0.9300
15832SOL     OW53332   9.504   3.921   3.350 -0.4580 -0.0844 -0.2870
15832SOL    HW153333   9.411   3.931   3.329 -0.6607  0.8931  0.9190
15832SOL    HW253334   9.538   3.863   3.283 -1.8956 -0.2773 -0.8856
15833SOL     OW53335   1.038   2.715   8.158  0.0326 -0.0006  0.4292
15833SOL    HW153336   0.999   2.743   8.240 -0.0550 -1.1388  0.7896
15833SOL    HW253337   1.126   2.686   8.181  0.6233  1.2770 -0.1615
15834SOL     OW53338   4.775   1.290   1.098 -0.3916 -0.1320  0.5337
15834SOL    HW153339   4.744   1.368   1.143 -1.2855  0.0908 -0.4444
15834SOL    HW253340   4.797   1.229   1.169  0.7779  1.1402  1.3344
15835SOL     OW53341   9.825   0.216   0.803  0.6539  0.2339  1.0308
15835SOL    HW153342   9.800   0.125   0.820  1.0346 -0.2970 -0.9764
15835SOL    HW253343   9.764   0.245   0.735  2.5330  0.3969 -0.6726
15836SOL     OW53344   1.926   4.371  10.649 -0.1014  0.1526 -0.4616
15836SOL    HW153345   1.875   4.451  10.664 -0.8652 -0.5801  1.0707
15836SOL    HW253346   2.001   4.379  10.708 -0.5126 -0.5344  0.1664
15837SOL     OW53347   8.444   2.425   6.960  0.3896 -0.0539  0.1752
15837SOL    HW153348   8.356   2.403   6.928  0.5808 -0.8805  0.1903
15837SOL    HW253349   8.436   2.515   6.992 -0.6404 -0.3725  0.8654
15838SOL     OW53350   0.047   4.256  12.293  0.1361  0.4697 -0.4318
15838SOL    HW153351   0.032   4.325  12.228 -1.4417 -0.1840 -0.8031
15838SOL    HW253352  -0.040   4.232  12.324  0.7965  0.0742  1.2299
15839SOL     OW53353  11.179  10.186   0.471 -0.1158  0.3372 -0.1224
15839SOL    HW153354  11.133  10.206   0.553 -1.0738 -1.6573 -0.1130
15839SOL    HW253355  11.131  10.233   0.404 -1.8245 -1.1462 -0.0143
15840SOL     OW53356   8.636   7.532   4.089  0.6391 -0.1412  0.8799
15840SOL    HW153357   8.713   7.578   4.057 -0.4167  1.0474 -0.0839
15840SOL    HW253358   8.620   7.464   4.024  0.8268 -0.3337  1.0353
15841SOL     OW53359   6.714   7.853   6.255 -0.4754  0.0611 -0.5346
15841SOL    HW153360   6.699   7.768   6.297 -0.3784 -1.0855 -2.7169
15841SOL    HW253361   6.671   7.916   6.314 -1.1205 -1.5438  0.8060
15842SOL     OW53362   9.068   2.875   1.111 -0.2192 -0.2387 -0.2510
15842SOL    HW153363   9.018   2.932   1.169 -0.6256 -0.1712 -0.6641
15842SOL    HW253364   9.098   2.804   1.168 -0.9993 -0.4150 -0.0380
15843SOL     OW53365  10.543   7.843   4.872  0.4118 -0.0053  0.1529
15843SOL    HW153366  10.483   7.850   4.946 -2.1860 -2.8730 -1.4709
15843SOL    HW253367  10.574   7.753   4.875  1.9244  0.4366 -1.0960
15844SOL     OW53368   2.863   0.667   6.833  0.1578  0.8340 -0.5212
15844SOL    HW153369   2.772   0.656   6.807 -0.4138  0.2897  1.5784
15844SOL    HW253370   2.909   0.596   6.789 -0.4084  1.0691 -1.5344
15845SOL     OW53371   4.498  10.957   9.441  0.2917 -0.1838 -0.3774
15845SOL    HW153372   4.591  10.954   9.419  0.2094 -1.0860 -0.6424
15845SOL    HW253373   4.494  11.008   9.521  1.2145 -1.4594  0.5261
15846SOL     OW53374   9.102   8.819   5.562 -0.4162  0.4409  0.2426
15846SOL    HW153375   9.019   8.792   5.522  0.2553  0.2602 -1.0756
15846SOL    HW253376   9.108   8.768   5.643 -1.0115 -0.4555 -0.2661
15847SOL     OW53377   9.684   8.848   6.978  0.5650  0.0789 -0.0976
15847SOL    HW153378   9.701   8.802   7.060  0.9543  0.7038  0.1887
15847SOL    HW253379   9.618   8.914   7.000 -0.0072 -0.3551 -0.5048
15848SOL     OW53380   1.739   6.098   3.089  0.9678 -0.1670  0.2395
15848SOL    HW153381   1.822   6.128   3.052  0.1320  0.6928 -1.0655
15848SOL    HW253382   1.713   6.026   3.032  0.3431  0.2373  0.0011
15849SOL     OW53383   7.165   0.815   0.028  0.1427  0.4195  0.5616
15849SOL    HW153384   7.079   0.825   0.068  0.1679 -0.4821  0.8725
15849SOL    HW253385   7.197   0.904   0.017 -0.3729  0.7332  1.4601
15850SOL     OW53386   5.756   2.161   6.382  0.1439  0.2835  0.2979
15850SOL    HW153387   5.718   2.074   6.395 -0.5713  0.3485 -1.1620
15850SOL    HW253388   5.726   2.212   6.458  1.6247 -1.0431  1.8502
15851SOL     OW53389   9.299   6.882   3.669 -0.5113  0.5105 -0.2225
15851SOL    HW153390   9.373   6.892   3.609 -0.4778  0.4541 -0.1894
15851SOL    HW253391   9.278   6.972   3.695 -1.1080  0.6221 -1.0268
15852SOL     OW53392   7.276  11.851   5.760 -0.1301 -0.2196 -0.2249
15852SOL    HW153393   7.304  11.874   5.849 -1.0156  1.7844 -0.4235
15852SOL    HW253394   7.357  11.850   5.709  0.7328 -3.5199  0.9104
15853SOL     OW53395  11.977   4.001   0.726 -0.1578 -0.0395  0.1966
15853SOL    HW153396  11.907   4.065   0.711  1.8243  2.1120 -0.5212
15853SOL    HW253397  11.967   3.975   0.818 -0.9909  1.3950  0.5397
15854SOL     OW53398   9.342   0.716   4.010 -0.4695 -0.2370 -0.7065
15854SOL    HW153399   9.270   0.723   4.073  0.7858 -0.9224  0.8986
15854SOL    HW253400   9.323   0.782   3.944 -1.7869  0.6372  0.4733
15855SOL     OW53401   0.899   4.704   5.673  0.1342  0.4097 -0.2698
15855SOL    HW153402   0.884   4.689   5.766 -1.0403 -2.8379 -0.8501
15855SOL    HW253403   0.834   4.769   5.648 -3.3683 -2.5216  0.2914
15856SOL     OW53404   8.973   2.303  11.554 -0.2470  0.3606 -0.2648
15856SOL    HW153405   8.961   2.253  11.474  2.2362 -0.4044 -0.2357
15856SOL    HW253406   9.047   2.262  11.598  0.2005  2.4255  1.0809
15857SOL     OW53407   8.750   4.517   3.869  0.0922 -0.0521 -0.4147
15857SOL    HW153408   8.804   4.476   3.937  0.6277  0.4083 -0.5542
15857SOL    HW253409   8.801   4.592   3.840 -0.4275  0.1318 -0.8716
15858SOL     OW53410   2.007   9.150   3.451 -0.1736 -0.2714 -0.5504
15858SOL    HW153411   2.090   9.197   3.461 -1.1934  1.2923  1.3197
15858SOL    HW253412   2.030   9.058   3.454  1.6693  0.0805 -2.0372
15859SOL     OW53413   5.062   9.129   6.585  0.3903 -0.6756 -0.1900
15859SOL    HW153414   5.061   9.103   6.677  3.0740  0.6762  0.3247
15859SOL    HW253415   4.972   9.115   6.555 -0.6716 -0.7992  2.7228
15860SOL     OW53416  11.393   4.915  10.325  0.1873  0.2821 -0.5376
15860SOL    HW153417  11.354   5.001  10.339 -3.0768 -1.0433 -0.4743
15860SOL    HW253418  11.393   4.873  10.411  0.0776 -0.3851 -0.8513
15861SOL     OW53419  11.469   3.259  11.435 -0.2393  0.1160 -0.2642
15861SOL    HW153420  11.554   3.217  11.420 -0.7647 -0.7164 -1.0023
15861SOL    HW253421  11.451   3.242  11.528  0.0940 -0.3031 -0.2708
15862SOL     OW53422  10.194   1.048   2.767  0.4838  0.2326  0.0536
15862SOL    HW153423  10.114   1.095   2.793 -0.5248 -1.3789  0.0174
15862SOL    HW253424  10.162   0.963   2.735  2.4398 -2.6211  4.7352
15863SOL     OW53425   8.694  10.629   0.724 -0.4996  0.5768 -0.1608
15863SOL    HW153426   8.603  10.646   0.749 -0.5855 -0.7119  0.4504
15863SOL    HW253427   8.745  10.665   0.797 -0.6764 -1.4410  1.0400
15864SOL     OW53428   1.661   9.175   8.673  0.3959 -0.0191  0.1434
15864SOL    HW153429   1.680   9.267   8.652  0.9844 -0.5943 -2.1700
15864SOL    HW253430   1.745   9.140   8.700 -0.0342  0.3243  2.0266
15865SOL     OW53431   0.814   5.054   4.733  0.4696  0.2874 -1.1303
15865SOL    HW153432   0.753   5.102   4.676 -0.2220  0.4794 -0.2407
15865SOL    HW253433   0.793   5.084   4.821 -0.3400 -2.0083 -0.4800
15866SOL     OW53434  11.584   3.468   0.725 -0.4347  0.0612 -0.1187
15866SOL    HW153435  11.624   3.381   0.734 -1.3929 -0.3740  0.0994
15866SOL    HW253436  11.654   3.523   0.691  0.4383 -0.6003  0.5611
15867SOL     OW53437   0.367   5.471   3.003 -0.0144  0.1423 -0.4343
15867SOL    HW153438   0.359   5.377   3.022  0.2815  0.6482  2.7865
15867SOL    HW253439   0.292   5.490   2.947 -1.0847 -1.7294  0.2517
15868SOL     OW53440   8.184  11.854   2.169 -0.7031  0.3593 -0.2760
15868SOL    HW153441   8.206  11.779   2.116 -1.3384  0.6471 -0.9646
15868SOL    HW253442   8.183  11.928   2.108 -2.2783  0.5593 -0.0707
15869SOL     OW53443  10.142  12.165   4.326 -0.2682  0.4041 -0.0499
15869SOL    HW153444  10.124  12.126   4.240  1.4909  0.3883 -0.4572
15869SOL    HW253445  10.176  12.093   4.378  2.3287  1.1326 -0.5855
15870SOL     OW53446   0.235  10.914   4.680  0.4860 -0.1633 -0.5788
15870SOL    HW153447   0.189  10.998   4.686  0.1282 -0.3816 -0.2490
15870SOL    HW253448   0.328  10.939   4.675  0.3367  0.2760 -1.3317
15871SOL     OW53449   4.469   2.447   6.633  0.0806 -0.0473  0.0716
15871SOL    HW153450   4.399   2.382   6.626 -0.7312  0.7054  0.8738
15871SOL    HW253451   4.423   2.529   6.651  1.0871  0.7341 -0.7493
15872SOL     OW53452   8.336   5.884   0.531  0.3158 -0.2895 -0.0890
15872SOL    HW153453   8.306   5.873   0.622  0.0118 -0.4746 -0.2092
15872SOL    HW253454   8.273   5.833   0.479 -0.6297  1.3228 -0.5852
15873SOL     OW53455   8.304   7.812   4.781 -0.6074  0.1295 -0.2467
15873SOL    HW153456   8.338   7.771   4.861  2.0988  2.6910  0.1032
15873SOL    HW253457   8.294   7.740   4.719  1.2739 -1.4393  1.1300
15874SOL     OW53458   2.346   7.733   8.300  0.0763  0.0127  0.1843
15874SOL    HW153459   2.307   7.772   8.378  1.6008  1.1270  0.4418
15874SOL    HW253460   2.386   7.806   8.254  0.8686 -0.8965 -0.6293
15875SOL     OW53461   6.969  11.076   9.599 -0.4098  0.3296 -0.4005
15875SOL    HW153462   6.962  11.078   9.694  1.9299 -0.8404 -0.1341
15875SOL    HW253463   6.955  10.985   9.576 -1.6712  0.7226 -1.2896
15876SOL     OW53464   1.676   3.401   6.049 -0.2712 -0.3350  0.1001
15876SOL    HW153465   1.607   3.365   5.994 -0.3800  0.7214 -0.4885
15876SOL    HW253466   1.749   3.341   6.038 -0.3023 -0.1765 -1.1842
15877SOL     OW53467  11.627   1.506   7.425  0.2498  0.4461  0.2471
15877SOL    HW153468  11.620   1.431   7.483 -0.6029  1.2006  1.1480
15877SOL    HW253469  11.553   1.497   7.365  0.2137  0.5030  0.2831
15878SOL     OW53470   3.729   1.229   2.821  0.1882 -0.4124 -0.6245
15878SOL    HW153471   3.733   1.325   2.829 -0.2617 -0.4531  0.2883
15878SOL    HW253472   3.738   1.212   2.727 -1.3219  0.6273 -0.9988
15879SOL     OW53473   9.396   1.899   7.390 -0.4016  0.4238  0.0073
15879SOL    HW153474   9.318   1.843   7.386  0.5859 -1.0167  0.2264
15879SOL    HW253475   9.394   1.936   7.478  1.3382 -3.0026  1.6994
15880SOL     OW53476   0.158   3.068  12.282 -0.1679  0.1740 -0.5539
15880SOL    HW153477   0.067   3.046  12.265 -0.0179 -0.1573 -0.9487
15880SOL    HW253478   0.164   3.162  12.267 -0.2969  0.0801 -1.1892
15881SOL     OW53479   2.593   5.806  11.459 -0.0049 -0.1253  0.1517
15881SOL    HW153480   2.615   5.804  11.366  0.1743 -0.3233  0.1967
15881SOL    HW253481   2.644   5.734  11.497 -0.7217 -0.5852  0.2640
15882SOL     OW53482   0.345   9.750  11.384 -0.1684 -0.2369  0.0904
15882SOL    HW153483   0.371   9.703  11.305  1.1945 -0.1396  0.4396
15882SOL    HW253484   0.263   9.793  11.361 -0.0911 -0.6775 -1.0816
15883SOL     OW53485   6.287   1.562   2.992  1.0580 -0.1443  0.1511
15883SOL    HW153486   6.291   1.576   3.086  2.4230 -1.8114  0.4029
15883SOL    HW253487   6.341   1.631   2.955  2.2215 -0.6914  0.7826
15884SOL     OW53488  10.493   9.449   9.156  0.6869  0.4178  0.1860
15884SOL    HW153489  10.573   9.411   9.190  0.2745  0.5584  1.3423
15884SOL    HW253490  10.451   9.491   9.231 -0.0572  1.0789 -0.5633
15885SOL     OW53491   1.731  12.299   1.636  0.0037 -0.0047  0.4206
15885SOL    HW153492   1.810  12.291   1.583  0.0242 -0.6026  0.5313
15885SOL    HW253493   1.693  12.383   1.610  1.5675  1.1346  1.5736
15886SOL     OW53494   2.738   3.250   2.868  0.4421 -0.4646 -0.1060
15886SOL    HW153495   2.697   3.296   2.941  1.0761  1.9215 -1.1604
15886SOL    HW253496   2.832   3.252   2.887  0.7269  1.1940 -1.4550
15887SOL     OW53497   9.767   7.206   0.426 -0.5539 -0.1368  0.3467
15887SOL    HW153498   9.847   7.250   0.453  0.6875 -1.4506 -1.0476
15887SOL    HW253499   9.730   7.263   0.359 -0.3816  0.1039  0.4562
15888SOL     OW53500   0.351   0.725   7.570 -0.1653 -0.3093  0.7969
15888SOL    HW153501   0.360   0.778   7.491  1.4282  1.3728  2.0088
15888SOL    HW253502   0.440   0.695   7.589 -0.7983 -2.1184  1.0391
15889SOL     OW53503   6.641   6.027   7.806 -0.6073 -0.2534  0.0504
15889SOL    HW153504   6.722   6.013   7.855 -0.7271 -0.4359  0.1943
15889SOL    HW253505   6.664   6.007   7.715 -0.4174 -0.0316  0.0469
15890SOL     OW53506  10.374  10.135   2.537  0.1685  0.4003  0.1893
15890SOL    HW153507  10.311  10.202   2.561 -0.5214  0.0608 -0.6339
15890SOL    HW253508  10.402  10.159   2.448  0.5283  0.0461  0.2026
15891SOL     OW53509   7.130  11.307   6.626 -0.7135  0.1007  0.2902
15891SOL    HW153510   7.096  11.395   6.606  0.3458 -0.2680 -4.2399
15891SOL    HW253511   7.059  11.265   6.675 -3.4496  1.9440 -1.7464
15892SOL     OW53512   3.015  10.250   3.173  0.2408 -0.0022  0.1714
15892SOL    HW153513   3.037  10.182   3.109 -0.4860  0.9183 -1.0911
15892SOL    HW253514   2.925  10.275   3.152  0.5983  1.5611  0.4054
15893SOL     OW53515   2.346  11.300  10.257  0.1249 -0.0801  0.4632
15893SOL    HW153516   2.356  11.249  10.177  2.9819  1.6965 -0.4859
15893SOL    HW253517   2.363  11.238  10.328 -0.6207 -1.2899 -0.3925
15894SOL     OW53518   5.828   1.217  11.467 -0.5495 -0.0332  0.5925
15894SOL    HW153519   5.839   1.289  11.529  1.4163  1.7186 -1.5735
15894SOL    HW253520   5.758   1.246  11.409 -0.1093 -0.0652  0.0317
15895SOL     OW53521   6.367   9.129   0.815  0.1798 -0.4872 -0.0363
15895SOL    HW153522   6.289   9.180   0.838  0.1197 -1.3832  1.9723
15895SOL    HW253523   6.371   9.060   0.881  1.3495 -1.9215 -1.5219
15896SOL     OW53524  10.534   3.971   0.885  0.1701 -0.1347  0.2126
15896SOL    HW153525  10.549   3.908   0.956  2.0465 -0.0290 -0.0216
15896SOL    HW253526  10.463   4.026   0.916 -0.0296 -1.0053  1.3717
15897SOL     OW53527  11.101   9.592   8.876  0.4791  0.1458 -0.1328
15897SOL    HW153528  11.098   9.625   8.787  0.0213 -0.3708 -0.3177
15897SOL    HW253529  11.189   9.613   8.907  0.2329  1.4690 -0.2547
15898SOL     OW53530  11.342   8.732   3.381 -0.3388 -0.3257  0.7500
15898SOL    HW153531  11.415   8.673   3.365  0.8622  1.7484 -2.2896
15898SOL    HW253532  11.292   8.731   3.299 -1.7513  0.9396  1.5405
15899SOL     OW53533   0.775   9.047   3.594 -0.0837  0.2423 -0.0758
15899SOL    HW153534   0.760   9.072   3.503 -0.3657 -1.6623 -0.5892
15899SOL    HW253535   0.825   8.966   3.589 -1.5141 -0.7915  1.4196
15900SOL     OW53536   4.477   3.173   8.925  0.2675  0.5771 -0.7332
15900SOL    HW153537   4.516   3.152   8.841 -3.2386 -0.8883 -2.2175
15900SOL    HW253538   4.474   3.090   8.972  0.9683  1.1214  0.3215
15901SOL     OW53539   6.774   5.620   8.306  0.2528  0.1216 -0.3049
15901SOL    HW153540   6.771   5.527   8.281  0.0670 -0.1933  0.8409
15901SOL    HW253541   6.690   5.655   8.277 -1.5109 -1.0700  2.8566
15902SOL     OW53542   9.639   5.909   2.392 -0.1279  0.3054 -0.6460
15902SOL    HW153543   9.674   5.959   2.318 -1.0333  2.0629  0.0426
15902SOL    HW253544   9.696   5.932   2.466  0.5746 -1.1804 -0.6892
15903SOL     OW53545   7.555   1.455   3.732 -0.2710 -0.2709  0.0389
15903SOL    HW153546   7.627   1.429   3.788 -0.9351 -1.4658  0.3803
15903SOL    HW253547   7.524   1.538   3.768 -0.4934 -0.8670  1.2605
15904SOL     OW53548   9.784   9.067   5.161 -0.7070 -0.1223  0.1871
15904SOL    HW153549   9.691   9.078   5.140 -0.4920 -0.4198 -0.9870
15904SOL    HW253550   9.786   9.059   5.257 -1.7964  0.7548  0.3037
15905SOL     OW53551   6.866   6.409  10.698 -0.3938 -0.1236 -0.0652
15905SOL    HW153552   6.912   6.487  10.728  1.3066 -1.5761  1.3248
15905SOL    HW253553   6.807   6.441  10.630 -0.2864  2.4564  0.9328
15906SOL     OW53554   9.355   7.684   2.757 -0.0570 -0.1478  0.5218
15906SOL    HW153555   9.363   7.718   2.846 -1.7255  0.6480  0.4172
15906SOL    HW253556   9.346   7.590   2.768  3.5483 -0.5888  0.8952
15907SOL     OW53557  10.920   6.986   8.491  0.2607 -0.1194 -0.0903
15907SOL    HW153558  10.985   6.952   8.552 -0.2237  2.0578  1.7436
15907SOL    HW253559  10.896   7.072   8.525 -1.6705  0.2797 -2.1608
15908SOL     OW53560   5.353   9.610   9.558 -0.2463  0.1901  0.2265
15908SOL    HW153561   5.421   9.677   9.567 -0.9730  1.0609 -0.7060
15908SOL    HW253562   5.370   9.551   9.632  0.6291  1.1783  0.8587
15909SOL     OW53563   8.899   5.220   5.563  0.2539  0.6673  0.3047
15909SOL    HW153564   8.873   5.265   5.483  0.3760  0.7838  0.3311
15909SOL    HW253565   8.858   5.270   5.634 -1.5411 -0.5859  0.2180
15910SOL     OW53566   5.397   1.177   4.817 -0.4529 -0.2252 -0.3808
15910SOL    HW153567   5.450   1.110   4.773  2.9359  2.5883 -0.9998
15910SOL    HW253568   5.334   1.204   4.750 -0.6660 -1.4930 -0.7236
15911SOL     OW53569   5.095   9.177   1.806  0.2100  0.3309 -0.3689
15911SOL    HW153570   5.178   9.176   1.759 -0.1848  1.3944 -1.1337
15911SOL    HW253571   5.028   9.181   1.738 -0.5195 -1.1809  0.2153
15912SOL     OW53572   0.060  10.158   0.694  0.3881 -0.4610 -0.1476
15912SOL    HW153573   0.047  10.250   0.719  0.5991  0.1858 -2.2529
15912SOL    HW253574   0.014  10.108   0.762 -0.1545  1.2122  0.7737
15913SOL     OW53575  11.150   1.540   2.677  0.1225 -0.1733 -0.0906
15913SOL    HW153576  11.095   1.463   2.665  0.6279 -0.7636  1.2018
15913SOL    HW253577  11.097   1.599   2.731 -0.2506  0.3939 -1.0477
15914SOL     OW53578   2.147   7.783   6.189 -0.2058  0.2225 -0.3935
15914SOL    HW153579   2.120   7.871   6.164 -0.4186  0.1223 -0.5210
15914SOL    HW253580   2.238   7.776   6.159 -0.5215  0.0365 -1.3198
15915SOL     OW53581   7.572  11.618   5.823  0.0447 -0.6005  0.1635
15915SOL    HW153582   7.621  11.536   5.823  0.8217 -0.2168  2.6050
15915SOL    HW253583   7.508  11.608   5.893  1.2338  1.4193  1.6469
15916SOL     OW53584   2.284   0.713   0.509  0.6523  0.9271 -0.2572
15916SOL    HW153585   2.374   0.708   0.541  0.6637  0.4075 -0.3677
15916SOL    HW253586   2.231   0.682   0.582  0.7085 -0.6865 -0.8717
15917SOL     OW53587   0.281   2.244   0.665  0.5249 -0.3797  0.1592
15917SOL    HW153588   0.343   2.176   0.638 -0.8251 -1.9662  0.8774
15917SOL    HW253589   0.216   2.198   0.718 -0.0815  1.6129  1.2482
15918SOL     OW53590   3.444  11.346   7.583 -0.3121  0.5989  0.3394
15918SOL    HW153591   3.507  11.385   7.645  1.1471  1.0845 -1.3596
15918SOL    HW253592   3.489  11.270   7.548 -0.9755  0.5242 -0.3689
15919SOL     OW53593   6.381  11.316   0.950 -0.5758  0.1869  0.1541
15919SOL    HW153594   6.432  11.306   0.869 -0.6642 -0.8321  0.2080
15919SOL    HW253595   6.309  11.253   0.940 -0.8205  0.3526  0.8476
15920SOL     OW53596   0.783   0.994  10.733  0.0118 -0.2837  0.4808
15920SOL    HW153597   0.755   0.941  10.808  0.1204  2.3604  2.5339
15920SOL    HW253598   0.878   0.993  10.737  0.0105  0.6284  1.0026
15921SOL     OW53599  11.803   1.570  10.554  0.0843 -0.2751 -0.3140
15921SOL    HW153600  11.835   1.660  10.544 -0.9381 -0.1009 -2.8719
15921SOL    HW253601  11.874   1.516  10.521 -0.5597 -0.1379 -2.0384
15922SOL     OW53602   4.576   5.276   2.741  0.3153 -0.1439 -0.2293
15922SOL    HW153603   4.540   5.257   2.827 -0.6488 -0.3503 -0.6728
15922SOL    HW253604   4.514   5.239   2.679  0.6243  0.6309 -1.0354
15923SOL     OW53605   3.422   0.318  10.168 -0.2503 -0.4487  0.2454
15923SOL    HW153606   3.381   0.404  10.182 -0.5144 -0.4989 -0.2020
15923SOL    HW253607   3.511   0.329  10.200 -0.6575 -0.3958  1.4067
15924SOL     OW53608   6.039   7.080   0.248  0.3341  0.0076  0.1005
15924SOL    HW153609   6.081   7.003   0.210  3.2639  1.5387 -0.0643
15924SOL    HW253610   5.951   7.081   0.211  0.9557 -2.0511 -1.5902
15925SOL     OW53611   6.454   1.115   2.103 -0.3752  0.0297 -0.4448
15925SOL    HW153612   6.370   1.140   2.065  0.5891  0.8570 -2.1790
15925SOL    HW253613   6.447   1.139   2.195 -1.7478  0.8832 -0.7437
15926SOL     OW53614   0.371  10.798   8.583  0.4000  0.1194  0.1337
15926SOL    HW153615   0.341  10.885   8.609 -0.2228  0.0096 -0.1906
15926SOL    HW253616   0.292  10.754   8.552  0.6314 -0.7071  0.6924
15927SOL     OW53617   2.621   6.808  12.171  0.0741  0.3640  0.4933
15927SOL    HW153618   2.633   6.882  12.112 -0.2756  1.2305  1.4861
15927SOL    HW253619   2.604   6.847  12.256  2.5092 -0.8249  1.6350
15928SOL     OW53620   1.298   2.263   5.038 -0.3347  0.1997  0.3647
15928SOL    HW153621   1.386   2.252   5.075  0.1145  1.1278 -0.3494
15928SOL    HW253622   1.262   2.338   5.085 -0.7258 -0.1535  0.6265
15929SOL     OW53623   5.055  11.040  10.990  0.5667 -0.1289  0.0330
15929SOL    HW153624   5.130  11.098  10.978 -0.3515  0.8242 -1.4344
15929SOL    HW253625   4.983  11.098  11.011 -0.2149 -0.7986 -0.7249
15930SOL     OW53626   4.420   6.769   8.898 -0.2890 -0.1103 -0.2777
15930SOL    HW153627   4.340   6.731   8.860 -0.0056 -1.9370  0.7986
15930SOL    HW253628   4.465   6.808   8.824 -1.2321 -0.8198 -1.2764
15931SOL     OW53629  11.363   6.727   6.664  0.2017  0.0258  0.2560
15931SOL    HW153630  11.428   6.691   6.603 -0.5366 -2.3628  0.7648
15931SOL    HW253631  11.281   6.724   6.616 -0.9060 -4.3342  1.9597
15932SOL     OW53632   6.467   7.886   3.223  0.5315  0.1466  0.8342
15932SOL    HW153633   6.404   7.814   3.224  0.7437 -0.0697 -0.4554
15932SOL    HW253634   6.442   7.939   3.147  0.8120  1.0584  1.3526
15933SOL     OW53635   6.332   3.620   2.549  0.8136 -0.0923 -0.1182
15933SOL    HW153636   6.383   3.695   2.515  1.5239 -0.7581 -0.5606
15933SOL    HW253637   6.292   3.582   2.470 -0.3452  0.3769  0.2150
15934SOL     OW53638   9.430  12.222   1.216 -0.4149  0.2380 -0.2842
15934SOL    HW153639   9.365  12.203   1.148 -0.0119 -1.1406 -0.3275
15934SOL    HW253640   9.378  12.242   1.294 -0.9075 -0.2938 -0.4645
15935SOL     OW53641  11.114   2.160   9.384  0.2808 -0.0446 -0.2676
15935SOL    HW153642  11.106   2.065   9.392 -0.4196  0.0228 -0.1327
15935SOL    HW253643  11.040   2.185   9.328 -1.3122  0.7564  2.0430
15936SOL     OW53644   9.517   0.642   8.110  0.0246  0.3106 -0.1359
15936SOL    HW153645   9.466   0.628   8.190 -2.1953 -1.1585 -1.7109
15936SOL    HW253646   9.492   0.730   8.081 -0.7506  0.0542 -0.2727
15937SOL     OW53647   7.085   3.035   7.371  0.3469 -0.2583  0.3383
15937SOL    HW153648   7.013   3.010   7.430  0.9514 -1.3425  0.6475
15937SOL    HW253649   7.079   2.973   7.299  1.1805 -0.5950  0.5465
15938SOL     OW53650   1.970   5.933  11.999 -0.4515 -0.3459  0.1517
15938SOL    HW153651   1.950   5.840  12.005 -0.7710 -0.3344 -0.6072
15938SOL    HW253652   1.915   5.965  11.927  0.2647  0.2566 -0.1380
15939SOL     OW53653   1.511  12.115   1.608  0.3506 -0.2740 -0.3583
15939SOL    HW153654   1.583  12.178   1.611  0.5139 -0.4601 -0.3429
15939SOL    HW253655   1.441  12.156   1.658  0.3578  0.0197 -0.5875
15940SOL     OW53656   8.931   6.511   7.149  0.2216 -0.0482  0.1852
15940SOL    HW153657   8.936   6.430   7.098  0.0413 -2.2601  3.3275
15940SOL    HW253658   8.847   6.550   7.126  0.2745 -0.7883 -1.3556
15941SOL     OW53659   4.547   9.637   6.091 -0.6085  0.2280 -0.5596
15941SOL    HW153660   4.567   9.549   6.061  0.3832  0.0843  0.4824
15941SOL    HW253661   4.452   9.636   6.108 -0.6573 -0.5303 -0.8750
15942SOL     OW53662  11.315   9.962   5.907 -0.1096  0.6907  0.3070
15942SOL    HW153663  11.409   9.944   5.901 -0.4548 -1.4925  0.7421
15942SOL    HW253664  11.282   9.897   5.968 -1.9533  1.3450  0.0666
15943SOL     OW53665  11.197   9.589   9.221  0.8556 -0.3385  0.5896
15943SOL    HW153666  11.264   9.582   9.152 -0.4168 -0.0514 -0.7235
15943SOL    HW253667  11.185   9.683   9.233  1.4373 -0.3787  1.6085
15944SOL     OW53668   1.673  10.263  11.818 -0.3667 -0.1804  0.1836
15944SOL    HW153669   1.674  10.171  11.845  0.2193 -0.4550 -0.6982
15944SOL    HW253670   1.755  10.274  11.768 -1.0622  0.4485 -0.8607
15945SOL     OW53671   5.886  12.193   4.487  0.0695  0.5136 -0.0615
15945SOL    HW153672   5.976  12.163   4.478  0.2481  0.5745  1.2253
15945SOL    HW253673   5.862  12.225   4.400  0.7852 -0.8374 -0.7842
15946SOL     OW53674   6.411   4.942   8.237 -0.0898  0.3717  0.0391
15946SOL    HW153675   6.466   4.900   8.171 -1.3545 -1.1633 -0.1182
15946SOL    HW253676   6.466   4.947   8.315  1.0950  1.2843 -0.8229
15947SOL     OW53677   7.390   3.210   2.161  0.3060  0.3013 -0.1042
15947SOL    HW153678   7.404   3.218   2.256  0.1434  2.1158 -0.2096
15947SOL    HW253679   7.477   3.225   2.123  0.8662 -2.5973 -0.2223
15948SOL     OW53680  11.858   9.625   2.662  0.0947  0.0246 -0.1862
15948SOL    HW153681  11.919   9.568   2.616  2.0418  0.2991  1.8927
15948SOL    HW253682  11.913   9.688   2.708 -1.8901  2.4056 -0.7993
15949SOL     OW53683   3.084   6.380   0.779  0.3671  0.0998 -0.3110
15949SOL    HW153684   3.057   6.394   0.870  1.1064  1.7045 -0.3133
15949SOL    HW253685   3.135   6.458   0.757 -1.3979  0.6879 -2.7318
15950SOL     OW53686  10.753   4.939   2.327 -0.1866  0.1107  0.1504
15950SOL    HW153687  10.730   5.018   2.277 -0.4892 -0.1247 -0.0815
15950SOL    HW253688  10.848   4.933   2.317 -0.3571 -0.5609 -1.3464
15951SOL     OW53689   0.384  10.158   2.082 -0.1679 -0.3073  0.2378
15951SOL    HW153690   0.312  10.186   2.139 -0.6957 -0.7076 -0.2216
15951SOL    HW253691   0.383  10.221   2.010 -0.6696 -0.8600 -0.2494
15952SOL     OW53692   9.522   7.910   4.470  0.0318 -0.0104 -0.0662
15952SOL    HW153693   9.466   7.954   4.406  1.2318 -0.0123 -1.1696
15952SOL    HW253694   9.481   7.825   4.485 -0.3287  0.0410 -0.7590
15953SOL     OW53695  11.340   8.362   2.075 -0.7740  0.7150 -0.1603
15953SOL    HW153696  11.310   8.272   2.061  0.9615  0.4857 -3.2295
15953SOL    HW253697  11.418   8.353   2.130 -1.2144  0.4808  0.4400
15954SOL     OW53698   3.219  12.275   6.792 -0.1009  0.1379 -0.0433
15954SOL    HW153699   3.249  12.356   6.751  2.7135 -0.9156 -0.2850
15954SOL    HW253700   3.136  12.256   6.749 -0.7648  2.7476 -0.1149
15955SOL     OW53701  11.349   6.152   0.112  0.1401  0.7700  0.4614
15955SOL    HW153702  11.289   6.225   0.098  1.2220  1.3144 -1.9614
15955SOL    HW253703  11.296   6.074   0.097 -0.5586  1.1327  1.0194
15956SOL     OW53704   3.632   7.449  10.412  0.2067 -0.7689 -0.0390
15956SOL    HW153705   3.567   7.382  10.393  3.2461 -3.7670 -0.9277
15956SOL    HW253706   3.613   7.477  10.502 -1.9126 -1.8875 -0.0880
15957SOL     OW53707   1.526  10.004   6.661 -0.2955 -0.1750 -0.3797
15957SOL    HW153708   1.592   9.949   6.704 -0.9641  0.8256  2.1258
15957SOL    HW253709   1.575  10.054   6.597  0.8782 -1.3727 -0.4697
15958SOL     OW53710   1.252   4.730  10.820  0.0405 -0.2997 -0.1449
15958SOL    HW153711   1.217   4.642  10.811  1.0145 -0.6280 -0.9508
15958SOL    HW253712   1.292   4.749  10.735  0.2638  0.7289  0.1715
15959SOL     OW53713   4.142   0.755   8.278  0.7268 -0.2084 -0.8125
15959SOL    HW153714   4.184   0.688   8.224 -0.2192  0.2318 -2.1513
15959SOL    HW253715   4.060   0.774   8.233  0.5021  1.1130  0.1049
15960SOL     OW53716  11.105   2.761   8.428  0.2228  0.6958 -0.1660
15960SOL    HW153717  11.077   2.670   8.425 -1.6682  1.0965  1.8539
15960SOL    HW253718  11.087   2.795   8.341 -0.5406 -0.4878 -0.4938
15961SOL     OW53719   2.900  11.889   9.516 -0.3534 -0.3783  0.4041
15961SOL    HW153720   2.824  11.838   9.491  0.6480 -1.2681 -0.9253
15961SOL    HW253721   2.919  11.944   9.440 -0.7398  1.2153  1.3939
15962SOL     OW53722   1.477   4.246  10.405 -0.4247  0.0753 -0.1412
15962SOL    HW153723   1.469   4.263  10.311 -0.9866 -0.5447 -0.2159
15962SOL    HW253724   1.465   4.332  10.446 -2.7735 -0.0024 -0.5190
15963SOL     OW53725   5.402   0.669  10.466  0.4070 -0.0477  0.6432
15963SOL    HW153726   5.338   0.697  10.400 -0.8665 -2.6719  0.6425
15963SOL    HW253727   5.393   0.734  10.536 -0.4863  0.9983 -0.3882
15964SOL     OW53728   6.493   0.802   2.624 -0.5524 -0.2786  0.3963
15964SOL    HW153729   6.454   0.715   2.629 -1.0636 -0.1314 -0.7386
15964SOL    HW253730   6.473   0.841   2.710 -0.5045 -1.1852  0.8362
15965SOL     OW53731   5.072  10.921   7.406  0.1011  0.2425 -0.3015
15965SOL    HW153732   5.002  10.879   7.355 -1.3158 -0.0459  1.7292
15965SOL    HW253733   5.122  10.848   7.442  1.3622  0.4490 -1.5358
15966SOL     OW53734  11.625  12.243   3.653  0.5373  0.0542 -0.1081
15966SOL    HW153735  11.662  12.279   3.573 -0.6411  0.9304 -0.2947
15966SOL    HW253736  11.537  12.215   3.628  0.0773  0.5218  0.9149
15967SOL     OW53737   7.147   4.078  11.235 -0.1605  0.6010 -0.1250
15967SOL    HW153738   7.111   4.165  11.250 -0.2208  0.4066  0.9345
15967SOL    HW253739   7.214   4.090  11.168 -0.1996  1.4513 -0.0107
15968SOL     OW53740   5.696   1.552   2.146 -1.0399  0.1310 -0.4010
15968SOL    HW153741   5.725   1.488   2.211 -1.0111 -0.1572 -0.6927
15968SOL    HW253742   5.756   1.539   2.072 -0.0529  1.5316  0.1085
15969SOL     OW53743   8.280   1.410  10.553  0.1796  0.4912  0.6631
15969SOL    HW153744   8.288   1.395  10.648 -1.7508 -1.3004  0.5907
15969SOL    HW253745   8.220   1.484  10.546 -0.5020 -0.0452  0.8246
15970SOL     OW53746  11.815   5.976  11.225  1.0863  0.0329 -0.4920
15970SOL    HW153747  11.762   5.913  11.273  1.4392  1.0883  1.3503
15970SOL    HW253748  11.819   5.941  11.136  0.7140 -2.1709  0.3149
15971SOL     OW53749   5.331   1.318   5.648 -0.3933  0.4700  0.4216
15971SOL    HW153750   5.338   1.322   5.743 -3.0542 -0.6969  0.7570
15971SOL    HW253751   5.249   1.364   5.628 -1.1412 -1.3233 -1.0132
15972SOL     OW53752   8.414   6.669   0.497 -0.1820 -0.0041 -0.0106
15972SOL    HW153753   8.373   6.602   0.441 -2.5916  0.4299  1.1007
15972SOL    HW253754   8.417   6.747   0.442 -0.1560 -0.2495 -0.3627
15973SOL     OW53755  10.266   1.385   7.768  0.3165 -0.4659 -0.0958
15973SOL    HW153756  10.192   1.342   7.811  1.4729 -1.8053  0.6062
15973SOL    HW253757  10.234   1.405   7.680 -0.7536 -1.3863  0.0592
15974SOL     OW53758  10.083  10.259   6.256 -0.3887  0.6179 -0.2119
15974SOL    HW153759  10.100  10.166   6.266 -0.3680  0.7950  1.8350
15974SOL    HW253760  10.012  10.278   6.318 -1.2579  1.7536 -1.4762
15975SOL     OW53761   9.368   1.125   3.530  0.5084  0.0366  0.0533
15975SOL    HW153762   9.280   1.160   3.543  0.9821  1.5029 -0.5438
15975SOL    HW253763   9.373   1.109   3.435  1.1086  0.5986 -0.0117
15976SOL     OW53764  10.318  10.530   9.792 -0.6165 -0.4796 -0.4776
15976SOL    HW153765  10.253  10.475   9.747 -1.8225  1.5191 -1.3190
15976SOL    HW253766  10.365  10.575   9.722 -0.3160  0.2760  0.1893
15977SOL     OW53767   3.052   0.888   4.346 -0.4539  0.6397  0.3171
15977SOL    HW153768   3.093   0.867   4.262  1.3028  1.4659  0.9373
15977SOL    HW253769   2.973   0.833   4.348  1.0762 -1.7642 -0.5269
15978SOL     OW53770   4.001   1.425  11.683  0.3133  0.2669 -0.3279
15978SOL    HW153771   3.927   1.439  11.625 -0.6981 -0.8365  0.6375
15978SOL    HW253772   4.022   1.511  11.717  0.4235  0.8065 -1.7096
15979SOL     OW53773  11.684   1.474   3.808 -0.2494 -0.1036  0.3785
15979SOL    HW153774  11.702   1.564   3.835 -3.0263  0.8961 -0.7506
15979SOL    HW253775  11.622   1.441   3.873  0.1481 -0.9603  0.3445
15980SOL     OW53776   1.413   1.229   5.123  0.1997 -0.1517  0.2418
15980SOL    HW153777   1.426   1.219   5.028 -1.9582  0.9869 -0.2407
15980SOL    HW253778   1.431   1.321   5.140  1.5183 -0.5506  1.1657
15981SOL     OW53779   7.474   1.318   3.344  0.3093  0.2849  0.4078
15981SOL    HW153780   7.505   1.273   3.423 -1.1507 -1.0523  0.2721
15981SOL    HW253781   7.388   1.352   3.369  0.4082  0.9989 -0.2143
15982SOL     OW53782   7.049   8.212  12.185 -0.9122  0.3011 -0.3810
15982SOL    HW153783   6.974   8.161  12.217 -0.6522 -0.0809 -0.3657
15982SOL    HW253784   7.062   8.180  12.096 -1.1202  0.7752 -0.5833
15983SOL     OW53785   6.031   2.309   7.808  0.6058  0.1535  0.1135
15983SOL    HW153786   5.977   2.339   7.736  0.7673  0.1042 -0.0292
15983SOL    HW253787   6.054   2.219   7.785  1.7140  0.5497 -0.3987
15984SOL     OW53788   4.284   6.357   5.627  0.2736  0.0399  0.0980
15984SOL    HW153789   4.251   6.301   5.556 -0.5119  1.7754 -0.9675
15984SOL    HW253790   4.250   6.316   5.707  0.9818 -1.8337 -0.4946
15985SOL     OW53791   9.250   2.270   0.683  0.2539  0.2831  0.6297
15985SOL    HW153792   9.265   2.364   0.669  2.6442 -0.2850 -1.3254
15985SOL    HW253793   9.180   2.248   0.622  2.3305  0.1763 -1.9208
15986SOL     OW53794  12.242   1.523  11.514  0.0933 -0.0909 -0.3565
15986SOL    HW153795  12.209   1.451  11.568 -1.2445 -0.8322 -2.0669
15986SOL    HW253796  12.298   1.574  11.573 -2.1355 -0.2027  2.0112
15987SOL     OW53797   9.606   5.760   5.987  0.5020 -0.2697  0.2962
15987SOL    HW153798   9.605   5.830   5.922 -1.4657 -0.8870 -0.4173
15987SOL    HW253799   9.617   5.805   6.070 -2.9171  1.2825  0.1041
15988SOL     OW53800   3.389   3.681  11.227  0.2802 -0.2984 -0.7441
15988SOL    HW153801   3.344   3.602  11.255  0.1070 -0.9669 -2.7536
15988SOL    HW253802   3.319   3.740  11.201  0.4583  0.0484 -0.4483
15989SOL     OW53803   6.132   6.943   6.717 -0.1720 -0.3554 -0.1491
15989SOL    HW153804   6.168   6.859   6.746  0.6011 -0.4715 -1.4019
15989SOL    HW253805   6.121   6.933   6.623 -2.4392  0.0935  0.0126
15990SOL     OW53806   1.584   4.324   7.183 -0.7298 -0.3809  0.3047
15990SOL    HW153807   1.548   4.398   7.232  0.4970 -0.8288  1.9605
15990SOL    HW253808   1.668   4.305   7.225  1.0082 -0.0444 -2.7395
15991SOL     OW53809   4.795   8.562   1.909  0.0054  0.1987  0.0334
15991SOL    HW153810   4.720   8.533   1.856 -0.3051  2.3729 -0.8023
15991SOL    HW253811   4.872   8.540   1.855 -0.2890  2.0153 -1.2208
15992SOL     OW53812   6.626   3.685   0.856  0.3317  0.1511 -0.0791
15992SOL    HW153813   6.545   3.703   0.903  0.6428 -0.1239  0.5677
15992SOL    HW253814   6.644   3.593   0.873  1.2277  0.4161  0.4850
15993SOL     OW53815   4.122   5.739   8.667 -0.0442  0.3120  0.1603
15993SOL    HW153816   4.203   5.781   8.637 -0.7551  1.0678 -0.7879
15993SOL    HW253817   4.098   5.679   8.597 -0.9529  1.0180 -0.1613
15994SOL     OW53818  10.193   0.594  11.030  0.2614  0.0019  0.1352
15994SOL    HW153819  10.194   0.687  11.051 -0.6445 -0.2472  1.3811
15994SOL    HW253820  10.271   0.580  10.976  0.4178  1.4648 -0.0453
15995SOL     OW53821   0.245   8.435   0.034 -0.1425 -0.0882 -0.3377
15995SOL    HW153822   0.209   8.432   0.123  2.2088 -1.8435  0.6818
15995SOL    HW253823   0.169   8.424  -0.023 -1.9573  2.7365  1.3039
15996SOL     OW53824   3.998  10.518   1.551  0.0834 -0.1497 -0.0681
15996SOL    HW153825   3.995  10.599   1.501  0.4224 -0.9287 -1.3971
15996SOL    HW253826   3.946  10.456   1.500 -1.3801 -0.4172  1.6420
15997SOL     OW53827   2.577   4.928   1.413  0.3318 -0.3268 -0.7330
15997SOL    HW153828   2.565   4.917   1.319 -0.8230  0.3805 -0.6847
15997SOL    HW253829   2.634   4.855   1.439  0.4320 -0.6872 -1.9191
15998SOL     OW53830  10.899   0.158  10.744 -0.1132  0.2903  0.8544
15998SOL    HW153831  10.947   0.125  10.667 -0.1121 -0.3738  1.1369
15998SOL    HW253832  10.810   0.124  10.733 -0.1454  0.3011  1.0898
15999SOL     OW53833   5.835   9.967   3.094  0.2982  0.0883 -0.6533
15999SOL    HW153834   5.750  10.007   3.079  1.0037  1.3514 -1.5576
15999SOL    HW253835   5.898  10.036   3.072  1.5566 -0.8587 -0.1693
16000SOL     OW53836   2.429   3.120   7.924 -0.0080 -0.3136  0.2527
16000SOL    HW153837   2.435   3.064   8.001 -0.2452 -2.6988 -1.3277
16000SOL    HW253838   2.368   3.189   7.948  0.4405 -0.6043  2.3813
16001SOL     OW53839   6.943   7.867  11.501 -0.3990  0.4860 -0.7532
16001SOL    HW153840   6.955   7.842  11.593 -0.8095  0.5308 -0.6860
16001SOL    HW253841   6.849   7.885  11.493  0.0390  3.1287 -0.5176
16002SOL     OW53842   4.833   4.104   4.041  0.0947  0.4593  0.1572
16002SOL    HW153843   4.880   4.058   4.110 -2.7228 -2.4842  0.3601
16002SOL    HW253844   4.897   4.112   3.970  1.7916 -0.4525  1.5093
16003SOL     OW53845   2.991   7.885   8.714 -0.0869  0.9055  0.0433
16003SOL    HW153846   3.010   7.874   8.620  0.1986  1.5666  0.0182
16003SOL    HW253847   2.950   7.971   8.719 -1.0014  0.4577  0.4027
16004SOL     OW53848   3.103   8.163   8.982 -0.0461 -0.0206  0.3442
16004SOL    HW153849   3.146   8.223   9.044  1.2506 -1.2219  0.6502
16004SOL    HW253850   3.174   8.110   8.946 -1.0701 -0.8963 -0.4681
16005SOL     OW53851   7.331   8.448   1.559  0.3476  0.2616  0.1456
16005SOL    HW153852   7.316   8.525   1.504  0.5428 -2.4068 -4.1089
16005SOL    HW253853   7.426   8.436   1.560  0.4127  0.5823  1.7484
16006SOL     OW53854   4.610   1.270   7.152  0.3630  0.3447  0.2164
16006SOL    HW153855   4.542   1.208   7.125  0.8769 -0.7500  1.3835
16006SOL    HW253856   4.692   1.222   7.143  0.5835 -0.2233  3.8390
16007SOL     OW53857   3.178   5.739   7.032  0.0896  0.0515 -0.1443
16007SOL    HW153858   3.261   5.750   7.078 -0.0262  0.2470  0.0216
16007SOL    HW253859   3.153   5.648   7.047  0.6891 -0.2480 -0.8944
16008SOL     OW53860   2.959   5.278   5.178  0.2794 -0.3994 -0.1863
16008SOL    HW153861   2.967   5.219   5.104  3.1628 -2.0919  1.3252
16008SOL    HW253862   2.977   5.365   5.142  0.1089 -0.9635 -1.6963
16009SOL     OW53863   2.374   4.325   4.129  0.3225 -0.2527  0.2370
16009SOL    HW153864   2.432   4.308   4.056  0.9607 -1.1970  0.9368
16009SOL    HW253865   2.286   4.310   4.095  0.5134  0.6081 -0.6695
16010SOL     OW53866   2.631  11.670   5.105  0.3917 -0.2018  0.2815
16010SOL    HW153867   2.603  11.682   5.196 -0.3940 -1.7350  0.2754
16010SOL    HW253868   2.715  11.625   5.112  0.0179 -0.9205  0.2633
16011SOL     OW53869   9.372   0.244   5.545  0.4649 -0.0224  0.0256
16011SOL    HW153870   9.282   0.257   5.516  0.3590 -0.4319  0.1690
16011SOL    HW253871   9.421   0.315   5.503  0.3590 -0.7433 -1.3767
16012SOL     OW53872  11.684   5.063   2.931  0.5069 -0.4633  0.3939
16012SOL    HW153873  11.643   5.080   3.016 -0.6886 -2.2832  0.2317
16012SOL    HW253874  11.704   5.150   2.897  1.8142  0.3152  2.8683
16013SOL     OW53875   8.051  11.644  10.889 -0.1103  0.6790 -0.7533
16013SOL    HW153876   8.120  11.711  10.890  0.5093  0.0659 -1.2313
16013SOL    HW253877   8.099  11.561  10.897 -0.6541  0.1389 -2.5734
16014SOL     OW53878   3.238  10.646   4.288  0.3201  0.1394 -0.2233
16014SOL    HW153879   3.295  10.591   4.342  0.8388  0.5601 -0.3310
16014SOL    HW253880   3.152  10.641   4.330  0.6616  0.2708  0.5078
16015SOL     OW53881   0.759   6.872   4.854 -0.1212 -0.4087 -0.2416
16015SOL    HW153882   0.817   6.947   4.845 -1.2381  0.5998  0.6105
16015SOL    HW253883   0.766   6.847   4.947 -1.0643 -0.2410 -0.1151
16016SOL     OW53884   7.704   2.457   1.850 -0.3860  0.2513  0.2016
16016SOL    HW153885   7.660   2.439   1.933 -0.3765  1.3712  0.4619
16016SOL    HW253886   7.719   2.551   1.851 -3.0011  0.8355 -2.3525
16017SOL     OW53887   6.527   7.734   9.892  0.4247  0.1765 -0.0533
16017SOL    HW153888   6.539   7.703   9.982 -0.4012  0.4922  0.1736
16017SOL    HW253889   6.585   7.809   9.885  1.6041 -0.7209 -0.2571
16018SOL     OW53890   0.686   4.778   4.318 -0.0686 -0.1946  0.5292
16018SOL    HW153891   0.760   4.806   4.372 -1.1429  0.9018  1.4852
16018SOL    HW253892   0.723   4.768   4.230  1.1685  0.5267  0.9484
16019SOL     OW53893   4.673   6.954  10.602 -0.0067  0.3798  0.0682
16019SOL    HW153894   4.624   6.956  10.520 -1.1432 -1.7037  0.6136
16019SOL    HW253895   4.697   6.862  10.613  1.3367  0.8405  1.4042
16020SOL     OW53896   7.537   2.480   9.304  0.2045  0.1463 -0.5017
16020SOL    HW153897   7.499   2.409   9.253  0.1773  1.0759 -1.8276
16020SOL    HW253898   7.544   2.553   9.242  0.6377  1.1622  0.7038
16021SOL     OW53899   5.850   5.582   6.450  0.1742  0.0249 -0.0830
16021SOL    HW153900   5.911   5.509   6.440 -0.7109 -1.1591  2.2311
16021SOL    HW253901   5.817   5.573   6.539 -0.9872  2.5089 -0.1790
16022SOL     OW53902   7.685   1.409   2.213 -0.5791  0.7806  0.1764
16022SOL    HW153903   7.657   1.498   2.190  1.1262  0.9075 -1.6184
16022SOL    HW253904   7.770   1.399   2.172 -0.0433 -1.1917  1.6181
16023SOL     OW53905   2.551   7.781   5.403  0.0302  0.4362 -0.2264
16023SOL    HW153906   2.467   7.735   5.404  0.6344 -0.7440  0.8501
16023SOL    HW253907   2.614   7.714   5.431  0.8609  2.1047  2.2204
16024SOL     OW53908   6.146   7.827   0.744  0.0514  0.1948  0.0661
16024SOL    HW153909   6.134   7.833   0.839  1.4783 -1.0022  0.3645
16024SOL    HW253910   6.061   7.851   0.707 -0.8378 -0.3376  1.6747
16025SOL     OW53911  12.233   5.083   1.282  0.1786  0.0120 -0.4489
16025SOL    HW153912  12.275   5.151   1.334  0.1225  0.7211 -1.3103
16025SOL    HW253913  12.141   5.111   1.275  0.3686  0.4142 -1.6643
16026SOL     OW53914   1.132   0.521   0.829  0.3246 -0.2939  0.0665
16026SOL    HW153915   1.109   0.612   0.849  2.1512  0.0805  0.5982
16026SOL    HW253916   1.137   0.518   0.734  0.6075  0.2563  0.0620
16027SOL     OW53917   7.006   8.031   7.315  0.1579  0.4111 -0.1375
16027SOL    HW153918   7.031   7.944   7.344 -0.5024  0.2790  0.0621
16027SOL    HW253919   7.067   8.052   7.245 -1.2837 -1.2848 -1.9914
16028SOL     OW53920  10.100  11.979   6.881 -0.9163 -0.4577 -0.4936
16028SOL    HW153921  10.032  12.009   6.941 -1.3143  0.1861 -1.2382
16028SOL    HW253922  10.175  12.035   6.900 -0.6827 -0.9622  0.1164
16029SOL     OW53923   4.865   0.014   0.766  0.6303  0.7872 -0.4038
16029SOL    HW153924   4.907  -0.054   0.819  0.0279  0.4354 -0.3756
16029SOL    HW253925   4.851  -0.027   0.681 -2.0879 -0.0224  0.3589
16030SOL     OW53926   7.331  12.035   5.972  0.0041  0.0530 -0.5355
16030SOL    HW153927   7.258  12.061   6.028 -0.2454 -0.0961 -0.7881
16030SOL    HW253928   7.341  12.107   5.910 -0.8207 -0.5235 -1.3653
16031SOL     OW53929   6.669   6.989   2.303  0.0053  0.0119 -0.2922
16031SOL    HW153930   6.657   7.079   2.273  1.6753  0.2112 -0.4671
16031SOL    HW253931   6.750   6.991   2.354  0.2158 -1.4283 -0.5086
16032SOL     OW53932  10.281   5.299   7.980  0.1267  0.3922  0.3032
16032SOL    HW153933  10.242   5.214   8.002  0.4022  0.5522  1.4592
16032SOL    HW253934  10.346   5.278   7.913  0.5287 -0.3945  0.9136
16033SOL     OW53935   2.032   4.724   2.771 -0.0522 -0.3407  0.8683
16033SOL    HW153936   2.030   4.659   2.701  1.5883  1.0708 -0.5564
16033SOL    HW253937   2.121   4.759   2.770 -1.1075  2.6129  0.9035
16034SOL     OW53938   3.505   4.760   9.044  0.0085 -0.0497  0.0865
16034SOL    HW153939   3.572   4.804   9.096 -0.4240 -0.3782  0.9437
16034SOL    HW253940   3.502   4.671   9.079 -0.6020 -0.1480 -0.2010
16035SOL     OW53941   2.028  11.110   4.977 -0.3390 -0.2047  0.1022
16035SOL    HW153942   2.012  11.032   5.030  1.9739 -0.9886 -0.2421
16035SOL    HW253943   2.119  11.101   4.948  0.8903  3.8104  2.0429
16036SOL     OW53944  11.194   7.977   9.355  0.6134 -0.0354  0.2536
16036SOL    HW153945  11.189   8.059   9.404  0.3810 -0.1870  0.4830
16036SOL    HW253946  11.282   7.944   9.372  0.7471  0.2242  0.0684
16037SOL     OW53947   0.580   0.418   5.123 -0.2009 -0.5749 -0.0043
16037SOL    HW153948   0.485   0.407   5.122 -0.6031  2.1316 -1.5101
16037SOL    HW253949   0.615   0.338   5.085 -1.8967 -1.3823  0.0718
16038SOL     OW53950   6.431   2.926   7.046 -0.2086  0.4382 -0.4781
16038SOL    HW153951   6.356   2.872   7.022 -0.8642  0.1663  2.0067
16038SOL    HW253952   6.398   3.016   7.045  0.5034  0.7699 -3.1317
16039SOL     OW53953   2.171  10.910   2.334 -0.3629  0.2648 -0.2691
16039SOL    HW153954   2.184  10.819   2.361 -1.4318  0.1426 -0.1133
16039SOL    HW253955   2.259  10.942   2.315  0.0140 -0.8531 -0.4968
16040SOL     OW53956   8.212   0.088   6.065 -0.3689  0.1508  0.2061
16040SOL    HW153957   8.255   0.052   5.988  1.5033 -0.9460  1.6891
16040SOL    HW253958   8.200   0.181   6.045  2.0462  0.3482 -0.6015
16041SOL     OW53959   3.166   8.132   9.939 -0.3743 -0.4135 -0.0518
16041SOL    HW153960   3.229   8.201   9.960  0.1815 -1.0579  0.4453
16041SOL    HW253961   3.170   8.072  10.014 -1.2897 -0.6740 -0.1965
16042SOL     OW53962   3.344  12.321  11.930  0.3016 -0.7141 -0.2643
16042SOL    HW153963   3.308  12.371  12.003 -1.2935 -0.4656 -1.1824
16042SOL    HW253964   3.289  12.344  11.855  1.7338 -1.1447 -1.5156
16043SOL     OW53965   7.889   6.121   3.486  0.0244 -0.0066 -0.2815
16043SOL    HW153966   7.881   6.207   3.446  0.2059 -0.5062 -1.4215
16043SOL    HW253967   7.870   6.136   3.579  0.2013  1.2749 -0.4373
16044SOL     OW53968  10.650  11.568   2.138 -0.4635 -0.2360  0.0701
16044SOL    HW153969  10.694  11.626   2.201  0.6214  0.5932 -1.3804
16044SOL    HW253970  10.654  11.616   2.055 -0.6106 -1.8898 -0.9318
16045SOL     OW53971   4.039  11.145  12.314  0.2019  0.4302  0.2387
16045SOL    HW153972   3.974  11.207  12.282  0.6215 -0.7540 -3.3797
16045SOL    HW253973   4.108  11.199  12.352 -0.6574  2.0044 -0.3769
16046SOL     OW53974   1.624   6.726   7.996  0.0070 -0.0415 -0.3681
16046SOL    HW153975   1.652   6.801   7.943 -0.6312  1.5028  1.3589
16046SOL    HW253976   1.652   6.748   8.085 -1.2210 -1.3191  0.3785
16047SOL     OW53977   2.244   7.145   3.072  0.1133  0.4114  0.5643
16047SOL    HW153978   2.260   7.066   3.125 -1.9908  0.4077  1.3217
16047SOL    HW253979   2.252   7.115   2.981 -4.1517 -1.8014  0.6234
16048SOL     OW53980   7.837   0.945   4.256 -0.3584  0.1817  0.8576
16048SOL    HW153981   7.796   0.928   4.340 -0.3961  1.0111  1.0193
16048SOL    HW253982   7.858   0.859   4.221 -1.8614 -0.2550  0.9607
16049SOL     OW53983   4.239  12.171   7.031  0.0460 -0.2563 -0.5912
16049SOL    HW153984   4.150  12.155   6.998 -0.3042  1.4936 -0.5998
16049SOL    HW253985   4.237  12.141   7.121 -1.0654  1.1943 -0.0936
16050SOL     OW53986   0.851   3.953   8.831  0.2466  0.5155  0.1204
16050SOL    HW153987   0.776   3.985   8.881  1.2176  0.3207  1.7634
16050SOL    HW253988   0.836   3.986   8.742 -2.6718 -1.0259 -0.0775
16051SOL     OW53989   7.399   1.928   6.367  0.1265 -0.0219 -0.1788
16051SOL    HW153990   7.451   1.999   6.329 -1.9829  0.1448 -3.0113
16051SOL    HW253991   7.464   1.869   6.406  1.9959  3.0424  1.7839
16052SOL     OW53992   7.639   1.697   6.313  0.0261 -0.2638 -0.0638
16052SOL    HW153993   7.637   1.765   6.244 -0.0943 -1.1206 -0.9284
16052SOL    HW253994   7.731   1.672   6.319  0.2372  0.7246  1.0253
16053SOL     OW53995   0.138   9.245   9.236 -0.1433 -0.2567  0.2726
16053SOL    HW153996   0.216   9.274   9.283  0.7668 -0.6412 -0.9486
16053SOL    HW253997   0.070   9.309   9.260  0.3905 -0.2025  1.7432
16054SOL     OW53998   2.817  10.565   9.809  0.2292 -0.0658 -0.4417
16054SOL    HW153999   2.912  10.555   9.809  0.0581 -2.2528  0.2335
16054SOL    HW254000   2.800  10.632   9.743  2.3215  1.9086  0.8775
16055SOL     OW54001   4.035   1.040   6.035 -0.0245 -0.6051 -0.2116
16055SOL    HW154002   3.991   1.126   6.040  0.4961 -0.3925  1.2103
16055SOL    HW254003   4.118   1.053   6.080  0.0623 -1.8683  0.0266
16056SOL     OW54004   1.303   5.143   3.865  0.4794 -0.2257  0.5000
16056SOL    HW154005   1.323   5.227   3.906 -0.3972  1.0140 -1.4436
16056SOL    HW254006   1.291   5.164   3.772 -1.9124 -2.1110  0.2690
16057SOL     OW54007   9.685   2.950  12.186 -0.3328  0.3778 -0.5558
16057SOL    HW154008   9.652   3.029  12.229 -0.7209  0.5037 -1.0726
16057SOL    HW254009   9.694   2.976  12.094 -0.0544 -0.0550 -0.6508
16058SOL     OW54010   1.529   7.407   9.481 -0.2957 -0.3545  0.2998
16058SOL    HW154011   1.612   7.363   9.503 -0.5080 -1.8813 -1.5974
16058SOL    HW254012   1.544   7.498   9.505  1.8923 -0.6136  0.2073
16059SOL     OW54013   1.170   9.326   6.712  0.6655 -0.2926 -0.1263
16059SOL    HW154014   1.089   9.312   6.664  1.0852 -0.1862 -0.8938
16059SOL    HW254015   1.211   9.401   6.668  1.5032 -0.7794 -0.2077
16060SOL     OW54016  11.684  11.832   9.384  0.6758  0.0566 -0.4062
16060SOL    HW154017  11.680  11.889   9.307  1.5045  0.0371 -0.4779
16060SOL    HW254018  11.746  11.763   9.360  1.1894  0.2212  0.3794
16061SOL     OW54019   8.235   8.865   0.647 -0.3708  0.4708  0.1370
16061SOL    HW154020   8.164   8.857   0.583  0.1535  0.9598 -0.5197
16061SOL    HW254021   8.269   8.776   0.656 -1.7581  0.0067  1.3027
16062SOL     OW54022  10.703   9.712   3.781 -0.0331  0.4979  0.1559
16062SOL    HW154023  10.748   9.670   3.708 -0.9406 -0.7809  0.3056
16062SOL    HW254024  10.644   9.775   3.739 -1.6522 -1.2824 -0.3445
16063SOL     OW54025   7.734   8.779   8.146  0.5488  0.4650  0.2601
16063SOL    HW154026   7.701   8.843   8.210 -3.0763  0.2885 -1.2448
16063SOL    HW254027   7.791   8.830   8.089  1.6466  1.2020  1.9168
16064SOL     OW54028   2.606  10.346  11.075  0.1326 -0.2403 -0.3815
16064SOL    HW154029   2.610  10.356  11.170 -1.9280 -0.3175 -0.2267
16064SOL    HW254030   2.650  10.263  11.057  2.2259  0.6709  0.2377
16065SOL     OW54031  11.503   0.441   9.457  0.3616  0.0858  0.9246
16065SOL    HW154032  11.540   0.410   9.540 -0.9121 -1.3536  0.9982
16065SOL    HW254033  11.411   0.417   9.462 -0.1326  1.5976 -0.1803
16066SOL     OW54034   2.053   9.488   5.948  0.3737  0.2108  0.2080
16066SOL    HW154035   2.114   9.465   5.878 -1.0463  0.4572 -1.1608
16066SOL    HW254036   2.052   9.411   6.005 -0.0388 -0.8963 -1.2303
16067SOL     OW54037   9.549   7.985  11.272  0.1413 -0.7970  0.0205
16067SOL    HW154038   9.578   8.014  11.358 -1.3151 -0.8417  0.5625
16067SOL    HW254039   9.504   8.062  11.235  1.8148 -0.3616 -1.2642
16068SOL     OW54040   4.977  12.322   3.076  0.0687  0.4967 -0.2279
16068SOL    HW154041   5.038  12.370   3.021  0.6716  0.0392  0.0219
16068SOL    HW254042   4.994  12.230   3.055  1.5662  0.1836  1.9343
16069SOL     OW54043   0.289   6.250   7.499  0.2772 -0.0704  0.6163
16069SOL    HW154044   0.345   6.174   7.478  2.2774  1.3540  0.5040
16069SOL    HW254045   0.330   6.290   7.576  0.3162  1.8729 -0.3547
16070SOL     OW54046   2.245   5.154   6.818  0.6613  0.1849  0.2394
16070SOL    HW154047   2.238   5.073   6.767  2.1546  1.1957 -1.7193
16070SOL    HW254048   2.333   5.151   6.855  0.7410  0.8959  0.1203
16071SOL     OW54049   7.840   3.722   2.653  0.1302 -0.2147  0.0382
16071SOL    HW154050   7.879   3.635   2.660  2.6710  0.9294  1.7241
16071SOL    HW254051   7.899   3.771   2.596  0.0291  0.9817  0.9045
16072SOL     OW54052   8.245   4.260  11.442 -0.5659  0.7539  0.4485
16072SOL    HW154053   8.165   4.245  11.391  0.6466 -2.3521 -0.7646
16072SOL    HW254054   8.271   4.349  11.419 -3.0823  1.4772  0.0798
16073SOL     OW54055   9.944   9.687   4.344  0.5134  0.4074  0.6540
16073SOL    HW154056   9.883   9.707   4.415  1.5405  0.1351  1.6481
16073SOL    HW254057   9.892   9.635   4.282 -0.2811  0.2484  1.4314
16074SOL     OW54058   7.721   0.640   0.109  0.0657  0.0301 -0.2049
16074SOL    HW154059   7.689   0.555   0.142 -0.5030 -0.7616 -2.5990
16074SOL    HW254060   7.799   0.618   0.059  0.7261  1.1517  0.2979
16075SOL     OW54061   8.227   5.000   3.031 -0.3618  0.1572 -0.5901
16075SOL    HW154062   8.286   5.032   2.962  1.8363 -2.3348  0.0039
16075SOL    HW254063   8.151   4.968   2.983  0.9733 -1.2164 -1.9143
16076SOL     OW54064   7.930   7.620   8.148 -0.0432  0.1523 -0.5819
16076SOL    HW154065   8.001   7.663   8.196 -1.4701  0.0854  1.7537
16076SOL    HW254066   7.934   7.659   8.061  0.9196  2.4559  0.3912
16077SOL     OW54067  12.002  10.419  11.326 -0.1214  0.5749  0.2531
16077SOL    HW154068  12.091  10.456  11.327 -0.6936  2.0997 -0.8623
16077SOL    HW254069  11.992  10.379  11.412  2.9279 -2.9533 -0.7540
16078SOL     OW54070   0.995   0.528   3.320  0.2451  0.1243 -0.1866
16078SOL    HW154071   1.040   0.445   3.332 -0.8334 -0.2507  1.5860
16078SOL    HW254072   1.047   0.591   3.369 -0.8939 -0.2453  1.5755
16079SOL     OW54073  11.979   4.187  10.024  0.4836 -0.1629 -0.3579
16079SOL    HW154074  11.976   4.107   9.972 -1.6313 -1.3325  1.3601
16079SOL    HW254075  11.921   4.248   9.978 -0.2691 -0.6962 -0.1365
16080SOL     OW54076  11.839   9.951   0.766 -0.7537  0.2571  0.1983
16080SOL    HW154077  11.834   9.869   0.816 -1.3704 -0.2745 -0.6998
16080SOL    HW254078  11.793   9.931   0.684 -0.7429  1.4505 -0.1082
16081SOL     OW54079   1.325   2.418   7.773  0.8163  0.0971 -0.1071
16081SOL    HW154080   1.240   2.455   7.797  0.3845 -0.5652 -0.5837
16081SOL    HW254081   1.319   2.403   7.679  2.2934  2.1382 -0.6020
16082SOL     OW54082  12.144   2.940  10.325  0.3112 -0.2269 -0.6089
16082SOL    HW154083  12.234   2.939  10.293  0.0133 -0.8710 -1.4615
16082SOL    HW254084  12.104   3.014  10.281  0.5354  0.3293  0.1110
16083SOL     OW54085   1.657   5.624   0.509  0.4460 -0.1249 -0.7532
16083SOL    HW154086   1.565   5.605   0.527  0.9597 -2.4364 -0.2698
16083SOL    HW254087   1.672   5.710   0.548 -0.9471 -0.7358  1.2865
16084SOL     OW54088   2.147  10.112   2.308  0.4647  0.9286  0.1435
16084SOL    HW154089   2.166  10.164   2.386 -2.1037 -0.3788  1.7734
16084SOL    HW254090   2.090  10.041   2.339  0.8105 -0.7185 -2.6193
16085SOL     OW54091  11.181   3.372   9.922  0.3485  0.0814 -0.3551
16085SOL    HW154092  11.257   3.324   9.955 -1.3502 -3.1467 -0.7235
16085SOL    HW254093  11.135   3.402  10.000  1.5534  1.4462 -0.1227
16086SOL     OW54094   6.384   8.359   3.177 -0.5240  0.6742 -0.0910
16086SOL    HW154095   6.442   8.303   3.124 -0.5339  1.6896 -1.2277
16086SOL    HW254096   6.431   8.442   3.184 -0.7290  0.7026  1.1493
16087SOL     OW54097   9.901   3.443   7.220 -0.2484  0.3972  0.0753
16087SOL    HW154098   9.849   3.387   7.163  0.1490  1.7215 -1.7005
16087SOL    HW254099   9.975   3.470   7.165  1.9671 -0.8433  2.2712
16088SOL     OW54100   3.625   3.920   7.262 -0.0940  0.9324 -0.1573
16088SOL    HW154101   3.557   3.905   7.197 -1.8967  0.2746  1.7475
16088SOL    HW254102   3.598   3.999   7.309  1.1279  1.3601 -0.1151
16089SOL     OW54103   0.300   3.683   3.798 -0.1308  0.1226 -0.0442
16089SOL    HW154104   0.223   3.626   3.797 -2.0873  2.4574  2.1805
16089SOL    HW254105   0.301   3.723   3.711 -1.2624 -0.1859 -0.2238
16090SOL     OW54106   4.582   9.923   9.447  0.0570  0.4772  0.6772
16090SOL    HW154107   4.501   9.896   9.403  1.6954 -0.8867 -1.6930
16090SOL    HW254108   4.604  10.007   9.405  0.1177  0.6245  1.0022
16091SOL     OW54109   0.173   3.538   9.828 -0.3680  0.0916  0.2317
16091SOL    HW154110   0.254   3.541   9.778 -0.8764  0.2871 -0.5963
16091SOL    HW254111   0.108   3.577   9.770 -0.9108  0.6153  1.1605
16092SOL     OW54112   0.062   4.764   5.752 -0.1075  0.1078 -0.3678
16092SOL    HW154113   0.001   4.702   5.792  0.3631 -0.2176 -0.1401
16092SOL    HW254114   0.095   4.718   5.674 -1.0187  0.7349 -1.1535
16093SOL     OW54115  10.228   3.768   7.186 -0.2025 -0.1616 -0.1280
16093SOL    HW154116  10.300   3.789   7.127  1.0729 -0.9750  1.0606
16093SOL    HW254117  10.162   3.835   7.169 -0.1588 -0.7037 -2.8455
16094SOL     OW54118  10.880  11.215   1.182 -0.1285  0.0210 -0.2662
16094SOL    HW154119  10.851  11.272   1.112 -1.8361 -0.6917 -0.1891
16094SOL    HW254120  10.865  11.265   1.262  0.0366  0.1165 -0.2940
16095SOL     OW54121   4.147   1.876   7.852  0.5612 -0.2236  0.4470
16095SOL    HW154122   4.120   1.826   7.776 -0.8099 -1.0105  1.4202
16095SOL    HW254123   4.243   1.874   7.850  0.5796 -3.1707  0.6119
16096SOL     OW54124   4.504   6.000   1.014  0.3736 -0.0786  0.1525
16096SOL    HW154125   4.411   6.024   1.015  0.3291 -0.1561 -0.7375
16096SOL    HW254126   4.542   6.055   0.945  1.1052  0.3419  0.8786
16097SOL     OW54127   6.359   1.312  10.583  0.3286  0.1713 -0.4329
16097SOL    HW154128   6.281   1.262  10.560  0.5319 -0.2378 -0.2358
16097SOL    HW254129   6.335   1.403  10.565 -0.6286  0.1875  0.7814
16098SOL     OW54130   7.847   7.243   6.474 -0.1578 -0.0313 -0.3729
16098SOL    HW154131   7.835   7.159   6.430  0.2209  0.2917 -1.1174
16098SOL    HW254132   7.772   7.250   6.533  0.8461 -1.7895  1.2198
16099SOL     OW54133   5.589   1.704  11.153  0.0164  0.2172 -0.0920
16099SOL    HW154134   5.658   1.740  11.098 -1.1498  1.9158 -0.5185
16099SOL    HW254135   5.635   1.672  11.231  1.4084  0.1358 -0.9140
16100SOL     OW54136  10.031   3.768   0.529  0.0875  0.3456  0.0869
16100SOL    HW154137   9.991   3.681   0.531  0.0952  0.3480  1.4283
16100SOL    HW254138   9.966   3.824   0.486  0.8889 -0.6588 -2.6429
16101SOL     OW54139   5.476   9.881  11.196 -0.2338  0.1872  0.3166
16101SOL    HW154140   5.520   9.796  11.183 -0.3221  0.3761 -1.5165
16101SOL    HW254141   5.542   9.936  11.237  1.3210  0.4325 -2.2998
16102SOL     OW54142  10.193   2.216   3.885 -0.5060 -0.9813  0.0496
16102SOL    HW154143  10.225   2.165   3.959 -0.2314 -0.5524  0.2299
16102SOL    HW254144  10.129   2.158   3.842 -0.2098 -1.4696  0.2540
16103SOL     OW54145   8.037   0.735   2.208 -0.3696  0.8645  0.3252
16103SOL    HW154146   7.996   0.813   2.170 -0.1586  0.8570  0.0822
16103SOL    HW254147   7.964   0.688   2.249 -0.8036  0.2664 -1.0763
16104SOL     OW54148   8.732   0.015  12.247 -0.0642 -0.3177 -0.0067
16104SOL    HW154149   8.637   0.020  12.259 -0.1127  0.2331 -0.5876
16104SOL    HW254150   8.765  -0.007  12.334 -0.5205  2.2286  0.8994
16105SOL     OW54151   6.667   8.738   9.059 -0.3528  0.0544 -0.7007
16105SOL    HW154152   6.598   8.683   9.096  0.4507 -1.1738 -0.9810
16105SOL    HW254153   6.646   8.741   8.965  0.3757 -0.9664 -0.9156
16106SOL     OW54154   6.734   1.232   4.086  0.1372 -0.4371  0.1517
16106SOL    HW154155   6.811   1.208   4.138 -0.2165  0.5688  1.1659
16106SOL    HW254156   6.659   1.202   4.138 -0.2119 -3.3318 -1.7743
16107SOL     OW54157   6.797   5.306   6.906 -0.1775 -0.0461 -0.3954
16107SOL    HW154158   6.721   5.345   6.949 -0.7553 -0.4477 -1.0338
16107SOL    HW254159   6.847   5.266   6.978  0.4167  1.7866  0.2785
16108SOL     OW54160   6.235  11.429  10.025 -0.1430  0.3636 -0.0558
16108SOL    HW154161   6.311  11.467   9.980  0.8749 -1.1395  0.3237
16108SOL    HW254162   6.272  11.386  10.102 -1.3418 -0.6593 -0.0220
16109SOL     OW54163   8.239   5.986   6.457 -0.1519 -0.0467  0.1415
16109SOL    HW154164   8.311   5.940   6.501  0.1616  0.8429  0.5839
16109SOL    HW254165   8.281   6.061   6.414 -0.6352 -0.2250 -0.6549
16110SOL     OW54166   7.549   4.350  12.171 -0.8073 -0.3615 -0.5261
16110SOL    HW154167   7.579   4.440  12.184 -1.5247 -0.2069  0.1284
16110SOL    HW254168   7.629   4.298  12.169 -0.2209  0.4854 -2.8587
16111SOL     OW54169   9.513   1.043   1.831  0.7895 -0.1695 -0.0066
16111SOL    HW154170   9.562   1.124   1.817  1.0221 -0.6727 -2.4262
16111SOL    HW254171   9.505   1.004   1.744 -1.5647 -1.4770  0.7144
16112SOL     OW54172   8.040   2.167   6.539  0.2947  0.0289 -0.4576
16112SOL    HW154173   8.100   2.092   6.530  0.4974  0.0200  0.7087
16112SOL    HW254174   7.979   2.140   6.608 -1.3786 -0.1465 -1.9445
16113SOL     OW54175  10.416   8.218   0.170  0.0919  0.4512  0.1139
16113SOL    HW154176  10.450   8.301   0.204 -0.7208  0.4599  0.9280
16113SOL    HW254177  10.487   8.155   0.186  0.3307  0.7808  0.3839
16114SOL     OW54178   6.467   9.793   3.861  0.1449  0.1382  0.4033
16114SOL    HW154179   6.460   9.886   3.880  1.2706  0.2375  0.3830
16114SOL    HW254180   6.385   9.755   3.895  0.6569  0.7816  2.4828
16115SOL     OW54181   3.065   8.933  10.806 -0.6541 -0.0652  0.2704
16115SOL    HW154182   3.073   8.842  10.778 -0.4942 -0.7394  2.3554
16115SOL    HW254183   3.135   8.979  10.759 -0.1712 -1.1875 -0.1356
16116SOL     OW54184   4.734   1.625  10.282  0.0166  0.4698 -0.0951
16116SOL    HW154185   4.723   1.531  10.291 -3.0087  0.7425  0.3200
16116SOL    HW254186   4.697   1.646  10.196 -2.7942  1.5400  1.2104
16117SOL     OW54187   4.772   7.511   5.750 -0.4231 -0.9450 -0.6030
16117SOL    HW154188   4.746   7.518   5.841 -1.1701 -2.1078 -0.7116
16117SOL    HW254189   4.813   7.425   5.743  0.6384 -0.4167 -1.1319
16118SOL     OW54190   6.692  11.394   3.523  0.4292  0.2913 -0.7132
16118SOL    HW154191   6.715  11.352   3.606  2.0889 -2.0488 -2.2338
16118SOL    HW254192   6.615  11.347   3.492  0.3208  0.5928 -0.9133
16119SOL     OW54193  11.909   9.042  11.790  0.1979 -0.6086 -0.5681
16119SOL    HW154194  11.929   9.105  11.860 -0.6891  0.1420 -0.9703
16119SOL    HW254195  11.995   9.021  11.752  0.5833 -0.2390  0.0724
16120SOL     OW54196   3.138  10.117   8.128  0.0300  0.5445 -0.4331
16120SOL    HW154197   3.229  10.100   8.104  0.3139 -0.0250  0.9547
16120SOL    HW254198   3.130  10.212   8.129  0.3830  0.5917 -1.3476
16121SOL     OW54199   2.714   5.565   7.631 -0.6014 -0.0939 -0.2254
16121SOL    HW154200   2.799   5.534   7.600 -0.9757  0.7177 -2.1931
16121SOL    HW254201   2.664   5.486   7.649  0.5307 -0.5782  0.9161
16122SOL     OW54202   1.812   9.098   7.161  0.1758  0.0655  0.3835
16122SOL    HW154203   1.784   9.070   7.248 -0.6301 -2.6213 -0.6648
16122SOL    HW254204   1.771   9.036   7.101  2.5621  0.4146 -1.7628
16123SOL     OW54205   1.346   5.329   7.712 -0.0989  0.4647  0.2309
16123SOL    HW154206   1.323   5.317   7.620 -3.1468  0.6251  0.8646
16123SOL    HW254207   1.404   5.255   7.732 -2.5586 -1.9815 -0.9119
16124SOL     OW54208   2.831   4.469  10.440  0.4470  0.5718 -0.0577
16124SOL    HW154209   2.915   4.429  10.458  0.0914  0.3134  1.1383
16124SOL    HW254210   2.833   4.490  10.347  1.3526 -0.5409 -0.3053
16125SOL     OW54211   8.793   1.794   4.751 -0.3659 -0.1206 -0.3351
16125SOL    HW154212   8.751   1.852   4.687 -1.3686 -0.0306  0.3777
16125SOL    HW254213   8.745   1.810   4.832  0.9073 -0.2077  0.4516
16126SOL     OW54214  11.942   1.168  11.278 -0.2269  0.5343 -0.2167
16126SOL    HW154215  12.011   1.219  11.320 -0.5745  1.3936 -0.6659
16126SOL    HW254216  11.975   1.148  11.191  0.3740 -1.0086  0.3241
16127SOL     OW54217   4.644   0.419  11.171 -0.1228 -0.1814  0.4379
16127SOL    HW154218   4.680   0.507  11.167  1.4282 -0.7737  0.7261
16127SOL    HW254219   4.694   0.376  11.240 -0.6292 -1.3896  0.0747
16128SOL     OW54220   7.719  10.353   9.068 -0.1712 -0.6108 -0.4126
16128SOL    HW154221   7.675  10.438   9.064  0.6874 -0.1456 -0.3072
16128SOL    HW254222   7.731  10.337   9.162 -0.5245 -0.9573 -0.4246
16129SOL     OW54223   9.337   7.284   1.401 -0.5511 -0.3303 -0.1113
16129SOL    HW154224   9.424   7.273   1.440 -0.1147 -1.1463 -1.2465
16129SOL    HW254225   9.352   7.341   1.326 -1.3574  1.1135  0.7837
16130SOL     OW54226  10.467   3.106   4.457 -0.2853 -0.2655 -0.0519
16130SOL    HW154227  10.439   3.142   4.542 -1.2224  0.2226 -0.5573
16130SOL    HW254228  10.562   3.118   4.457 -0.3570  0.3992  0.6277
16131SOL     OW54229   2.998   6.674   1.174  0.4275 -0.1385  0.4870
16131SOL    HW154230   2.990   6.632   1.260  1.8875 -0.3639  0.5508
16131SOL    HW254231   2.922   6.731   1.168 -2.1287 -3.2659  0.0924
16132SOL     OW54232   2.858   8.774   7.474  0.1722 -0.6901  0.3166
16132SOL    HW154233   2.850   8.760   7.568  0.5483 -2.1201  0.1622
16132SOL    HW254234   2.943   8.817   7.464 -0.1380  0.0241  0.6641
16133SOL     OW54235   1.901   7.395   0.353  0.8858 -0.5846 -0.2535
16133SOL    HW154236   1.889   7.308   0.316 -1.1499 -0.7579  0.7125
16133SOL    HW254237   1.813   7.433   0.357  1.3499  0.4627  1.8254
16134SOL     OW54238   8.114  10.253   2.416  0.3552  0.0900  0.3919
16134SOL    HW154239   8.187  10.314   2.412  0.3873  0.1488  1.5422
16134SOL    HW254240   8.122  10.211   2.502 -0.9758  0.1345  0.5638
16135SOL     OW54241   7.285   3.172   8.003 -0.2975  0.0420  0.0937
16135SOL    HW154242   7.346   3.127   8.060  1.6369  1.3457 -0.8335
16135SOL    HW254243   7.312   3.264   8.006 -2.6016  0.7886  0.0810
16136SOL     OW54244   3.051   9.052   1.070  0.2172 -0.0564  0.0256
16136SOL    HW154245   2.962   9.061   1.104 -0.3769 -2.3281 -0.7700
16136SOL    HW254246   3.060   9.126   1.009  0.3561  2.4904  2.8707
16137SOL     OW54247   1.827  11.836   7.375 -0.6128 -0.1548  0.3148
16137SOL    HW154248   1.920  11.816   7.361 -1.2433 -3.7749  0.3345
16137SOL    HW254249   1.783  11.805   7.296 -1.9635 -0.2307  1.0589
16138SOL     OW54250   4.277  11.946   3.221  0.2405  0.4721  0.2272
16138SOL    HW154251   4.324  11.934   3.139 -0.2919 -0.5168  0.0407
16138SOL    HW254252   4.246  11.858   3.244 -1.0004  0.9914  0.6403
16139SOL     OW54253   9.881   5.329   7.147 -0.1978  0.4048  0.6315
16139SOL    HW154254   9.855   5.244   7.112  1.2297 -0.2318  1.0659
16139SOL    HW254255   9.838   5.392   7.089 -1.5955 -0.5811  0.5359
16140SOL     OW54256  11.142   6.914   1.295 -0.5284 -0.2040 -0.0154
16140SOL    HW154257  11.229   6.875   1.286 -0.3901 -0.8864  3.0524
16140SOL    HW254258  11.156   7.007   1.279  1.0308 -0.1435  1.3709
16141SOL     OW54259  10.842   7.023   3.427  0.1990  0.2815 -0.2359
16141SOL    HW154260  10.817   6.948   3.480  1.5034 -1.1099 -1.5014
16141SOL    HW254261  10.767   7.037   3.369  0.1250 -0.3158 -0.2821
16142SOL     OW54262  11.077   7.321   0.179 -0.7375 -0.9184 -0.5500
16142SOL    HW154263  10.983   7.301   0.184 -1.2230  1.2898  0.1129
16142SOL    HW254264  11.081   7.408   0.140  0.7293  0.9321  3.2601
16143SOL     OW54265   8.722   0.665   5.715 -0.6716  0.3299  0.9314
16143SOL    HW154266   8.721   0.609   5.637 -2.7044 -1.9879  2.5103
16143SOL    HW254267   8.762   0.612   5.783  0.0079  1.8938  1.8178
16144SOL     OW54268   0.552  12.222   1.045 -0.5643  0.3049 -0.2295
16144SOL    HW154269   0.567  12.296   1.103 -1.5044  1.3499 -1.2685
16144SOL    HW254270   0.469  12.184   1.077 -1.4605  1.3101 -1.2615
16145SOL     OW54271   5.475  11.317   8.541  0.0266 -0.1526  0.0560
16145SOL    HW154272   5.392  11.296   8.498 -1.2866 -1.0635  2.8527
16145SOL    HW254273   5.450  11.368   8.618  2.2906  1.4541 -0.1499
16146SOL     OW54274   1.781   1.574   0.330 -0.3092 -0.3868  0.1361
16146SOL    HW154275   1.827   1.658   0.334 -1.6351  0.3371  1.0128
16146SOL    HW254276   1.743   1.563   0.417 -0.6379 -1.6251 -0.1379
16147SOL     OW54277   0.399  11.184   6.772  0.0507 -0.3263  0.1069
16147SOL    HW154278   0.494  11.170   6.772  0.1347  0.1987 -0.3154
16147SOL    HW254279   0.379  11.209   6.681 -0.3395  0.5478  0.4210
16148SOL     OW54280   7.166   8.593   0.015 -0.5910  0.3681 -0.2595
16148SOL    HW154281   7.175   8.501   0.042 -0.1193  0.6019  0.3956
16148SOL    HW254282   7.092   8.626   0.066 -0.7134  0.3739 -0.4399
16149SOL     OW54283   5.477   2.110   5.515 -0.3073  0.0714 -0.6151
16149SOL    HW154284   5.448   2.021   5.532 -1.3943  0.8375  1.9144
16149SOL    HW254285   5.426   2.137   5.438  1.6691 -2.1310 -2.8599
16150SOL     OW54286  10.005   5.482   4.058 -0.0513 -0.0962 -0.6514
16150SOL    HW154287  10.036   5.435   4.135 -1.3981  0.0361  0.0230
16150SOL    HW254288  10.020   5.423   3.985  0.1017 -0.7513 -0.1002
16151SOL     OW54289   7.850  12.010   0.546  0.2120 -0.5264  0.0610
16151SOL    HW154290   7.873  11.926   0.586  0.4166 -0.3530  0.3029
16151SOL    HW254291   7.933  12.055   0.535  0.0729 -0.2418  0.1771
16152SOL     OW54292   1.648   1.987   6.988 -0.2266 -0.6678  0.2910
16152SOL    HW154293   1.615   1.902   6.959 -0.0474 -0.7373  0.2881
16152SOL    HW254294   1.607   2.049   6.928 -0.8100 -0.6939  0.6575
16153SOL     OW54295  10.590   3.254  10.958  0.0617  0.6879  0.0940
16153SOL    HW154296  10.543   3.335  10.938  1.1549  1.7108  1.4861
16153SOL    HW254297  10.561   3.230  11.046  0.9892  0.5019  0.3603
16154SOL     OW54298   3.228   8.386   4.670 -0.4276 -0.4967 -0.6400
16154SOL    HW154299   3.152   8.444   4.665  0.5414  1.3322  2.6669
16154SOL    HW254300   3.203   8.320   4.735 -0.1957 -1.7322 -1.7494
16155SOL     OW54301   0.660   8.712   9.748 -0.0519  0.6725 -0.5222
16155SOL    HW154302   0.603   8.699   9.672  0.6821  0.7692 -1.0964
16155SOL    HW254303   0.621   8.658   9.817 -2.4800  2.8577 -0.0258
16156SOL     OW54304   5.873   7.576   6.451  0.5787  0.5917 -0.6433
16156SOL    HW154305   5.940   7.616   6.396 -0.1247  1.0617 -1.1833
16156SOL    HW254306   5.826   7.650   6.490 -0.1445  0.2965 -0.9196
16157SOL     OW54307   1.326   2.348  10.468 -0.3771 -0.2424  0.5084
16157SOL    HW154308   1.264   2.358  10.540 -1.8228 -1.6084 -0.4774
16157SOL    HW254309   1.383   2.277  10.495 -0.1611  0.0384  0.7962
16158SOL     OW54310   4.444  12.064   8.583 -0.1155  0.1639 -0.1906
16158SOL    HW154311   4.362  12.040   8.625 -0.1941  0.5594 -0.1102
16158SOL    HW254312   4.423  12.068   8.489  0.2425 -1.4677 -0.3687
16159SOL     OW54313  11.103   8.479   1.234 -0.5034 -0.2769  0.4709
16159SOL    HW154314  11.179   8.521   1.194 -1.5553  0.1508 -1.2024
16159SOL    HW254315  11.086   8.530   1.313  0.6210 -0.0523  0.5836
16160SOL     OW54316   7.577   0.115   1.943 -0.0201  0.4088  0.1180
16160SOL    HW154317   7.535   0.124   1.858 -1.9099  0.3452  0.9795
16160SOL    HW254318   7.511   0.071   1.997  0.5212  1.7935  2.0095
16161SOL     OW54319   9.389   3.282   2.190 -0.4082  0.2864  0.4519
16161SOL    HW154320   9.470   3.271   2.239 -1.9616 -1.7330  2.8208
16161SOL    HW254321   9.346   3.357   2.229 -0.6200  0.0610  0.6576
16162SOL     OW54322   0.731  10.516   4.769 -0.2215  0.9464  0.8041
16162SOL    HW154323   0.662  10.517   4.835  0.6671 -0.4658  1.8254
16162SOL    HW254324   0.684  10.506   4.686 -1.2673 -0.3007  1.4960
16163SOL     OW54325   3.622   5.032   1.198 -0.0936  0.2615  0.4005
16163SOL    HW154326   3.601   4.943   1.224  0.2137  0.6693  2.1729
16163SOL    HW254327   3.539   5.079   1.202  0.3041  0.9119  3.3479
16164SOL     OW54328   3.434  11.926   1.765  0.0169 -0.9899 -0.2350
16164SOL    HW154329   3.497  11.994   1.788 -0.2551 -0.8548  0.1202
16164SOL    HW254330   3.470  11.886   1.686  0.9660 -1.4495  0.4031
16165SOL     OW54331   4.846   1.450   4.278  0.0588  0.0538  0.2652
16165SOL    HW154332   4.874   1.465   4.368 -0.1204 -3.3562  1.0180
16165SOL    HW254333   4.752   1.434   4.284 -0.1229  0.6872 -0.6740
16166SOL     OW54334  12.036  12.059   9.117 -0.1027  0.0155 -0.3516
16166SOL    HW154335  11.965  12.107   9.160  1.6315  0.8247  1.8014
16166SOL    HW254336  12.088  12.127   9.073  0.3631 -0.3430 -0.3580
16167SOL     OW54337   4.315   9.056   8.950 -0.2720  0.3907  0.3432
16167SOL    HW154338   4.233   9.022   8.985 -0.2741  0.4148  0.3615
16167SOL    HW254339   4.302   9.151   8.946 -1.1169  0.2594 -1.8135
16168SOL     OW54340   2.633   7.669   4.264  0.1964  0.0152 -0.3229
16168SOL    HW154341   2.607   7.721   4.189  2.4073  2.6785  0.6039
16168SOL    HW254342   2.551   7.643   4.306 -1.0089  1.9777 -1.3706
16169SOL     OW54343   8.013   0.716   7.454  0.3593  0.1080 -0.1019
16169SOL    HW154344   7.954   0.644   7.477 -0.6091  1.3359  1.4899
16169SOL    HW254345   8.101   0.683   7.474  0.0873 -1.2063 -1.0089
16170SOL     OW54346   5.254   0.574   3.970  0.5675 -0.8698  0.0988
16170SOL    HW154347   5.270   0.642   3.905 -0.6392 -1.0126 -0.3703
16170SOL    HW254348   5.315   0.504   3.949  0.5541 -0.6875 -0.5419
16171SOL     OW54349   7.025   1.967   3.761  0.0012 -0.3362 -0.4010
16171SOL    HW154350   6.958   1.982   3.695 -0.7838 -2.5635 -0.2183
16171SOL    HW254351   7.107   1.989   3.718 -0.5363 -1.3335 -2.0243
16172SOL     OW54352   4.564   7.633   4.694  0.0872  0.0922 -0.3165
16172SOL    HW154353   4.516   7.625   4.612 -1.8277  2.1102  0.5140
16172SOL    HW254354   4.503   7.602   4.761  0.7448  0.6495  0.5632
16173SOL     OW54355   9.018   2.430   5.120 -0.1471 -0.3445 -0.1943
16173SOL    HW154356   9.021   2.496   5.189  1.3863 -0.1526 -0.4183
16173SOL    HW254357   9.052   2.474   5.043 -0.4712 -0.9868 -0.7149
16174SOL     OW54358  11.414  11.905  12.193 -0.7431  0.7749 -0.7291
16174SOL    HW154359  11.423  11.998  12.172  0.9607  0.7383 -0.3036
16174SOL    HW254360  11.322  11.885  12.175 -0.8269  2.2105 -2.1130
16175SOL     OW54361   4.347   3.750  10.693 -0.2577 -0.0024 -0.3309
16175SOL    HW154362   4.262   3.708  10.681 -0.7206  0.7657  0.1989
16175SOL    HW254363   4.327   3.844  10.697  0.4208  0.0963  1.4491
16176SOL     OW54364   3.967   5.988  11.269 -0.3335 -0.0385 -0.6850
16176SOL    HW154365   4.041   6.012  11.324  0.1296  1.9193 -2.0459
16176SOL    HW254366   3.982   5.897  11.247  0.8311 -0.1145  0.3308
16177SOL     OW54367  12.085   2.220   1.206 -0.1302  0.2483  0.0511
16177SOL    HW154368  12.105   2.166   1.282  0.6253 -0.3959 -0.5763
16177SOL    HW254369  12.110   2.308   1.232  2.1592 -0.2742 -0.1272
16178SOL     OW54370   0.183   3.701   0.822  0.6225  0.0979  0.1349
16178SOL    HW154371   0.109   3.645   0.797 -0.4504  2.4155 -2.3780
16178SOL    HW254372   0.156   3.739   0.906 -0.9586  0.6579 -0.5863
16179SOL     OW54373   3.324   5.966  10.842  0.3422  0.7778 -0.0875
16179SOL    HW154374   3.310   6.047  10.892  0.5232  0.8394 -0.1369
16179SOL    HW254375   3.302   5.896  10.903  3.4224  0.7061  1.1165
16180SOL     OW54376   1.718   6.329   2.178  0.5507 -0.3293  0.2435
16180SOL    HW154377   1.704   6.389   2.252  0.2238  0.1840 -0.2263
16180SOL    HW254378   1.647   6.266   2.184  0.2151  0.0236  0.0727
16181SOL     OW54379  10.958   4.370   6.242  0.2847  0.0792  0.1452
16181SOL    HW154380  10.953   4.450   6.293  2.9899  0.2571  0.2538
16181SOL    HW254381  10.951   4.299   6.306  1.7997  0.2893  0.5671
16182SOL     OW54382  10.950   9.368   8.831 -0.0303 -0.1649 -0.6399
16182SOL    HW154383  11.020   9.431   8.814  0.3603 -0.6957 -1.0318
16182SOL    HW254384  10.995   9.290   8.863 -0.3760 -0.7137 -1.4441
16183SOL     OW54385   7.159   6.244   4.779  0.3814 -0.1635  0.3534
16183SOL    HW154386   7.183   6.225   4.870 -0.6978  2.4533  1.2946
16183SOL    HW254387   7.082   6.191   4.762  1.1386 -1.3802  0.6093
16184SOL     OW54388   4.198  12.144   4.409  0.1887 -0.5713  0.0660
16184SOL    HW154389   4.109  12.160   4.441 -0.2656  1.9277 -2.0846
16184SOL    HW254390   4.253  12.152   4.487 -1.1466  2.0772  0.8476
16185SOL     OW54391  10.223  11.984   1.832 -0.0504  0.5816  0.2237
16185SOL    HW154392  10.286  11.945   1.893 -1.6399  0.0611  1.6467
16185SOL    HW254393  10.186  12.057   1.881 -0.7760  0.6674 -0.4412
16186SOL     OW54394   0.343   9.164  10.675 -0.6194 -0.7692  0.3150
16186SOL    HW154395   0.361   9.182  10.583  1.9029 -0.9018  0.7270
16186SOL    HW254396   0.297   9.243  10.706 -0.1382 -0.0801 -0.6825
16187SOL     OW54397  11.713   4.060   7.244  0.7519 -0.0432  0.1913
16187SOL    HW154398  11.629   4.074   7.287 -0.0959  0.1373 -1.4490
16187SOL    HW254399  11.718   4.129   7.178  1.0602 -1.4679 -1.3451
16188SOL     OW54400   3.805   2.880  11.018  0.0234 -0.6578  0.1869
16188SOL    HW154401   3.876   2.828  11.056  2.0050  2.5608  1.3554
16188SOL    HW254402   3.746   2.898  11.091 -0.4721 -0.9593 -0.1327
16189SOL     OW54403  10.717   0.160   1.061 -0.3864  0.3476 -0.0505
16189SOL    HW154404  10.716   0.255   1.053 -3.1099  0.3571 -0.8679
16189SOL    HW254405  10.798   0.132   1.017  0.4005  2.2520  0.1150
16190SOL     OW54406   1.495   1.761   9.809 -0.2576 -0.1671 -0.3309
16190SOL    HW154407   1.405   1.737   9.832 -0.0872 -1.2451 -0.7547
16190SOL    HW254408   1.526   1.813   9.884 -1.2849  0.3740 -0.2644
16191SOL     OW54409   4.676   7.986   7.510 -0.2569 -0.4744 -0.0429
16191SOL    HW154410   4.621   7.920   7.552 -1.2852  1.4026  1.7235
16191SOL    HW254411   4.761   7.978   7.553 -0.8142  0.3019  1.2549
16192SOL     OW54412  10.172  10.598   5.092  0.5513  0.4754  0.2499
16192SOL    HW154413  10.265  10.597   5.069  0.4776  1.8713 -0.2095
16192SOL    HW254414  10.141  10.685   5.065 -0.9277 -0.0214  0.2367
16193SOL     OW54415  11.085   4.148   0.258 -0.3731  0.0107 -0.1896
16193SOL    HW154416  11.102   4.175   0.168  1.5218  1.3255  0.5057
16193SOL    HW254417  11.042   4.223   0.299 -1.2877 -0.6011  0.0339
16194SOL     OW54418   2.699   8.424   0.905  0.3202 -0.0804 -0.0501
16194SOL    HW154419   2.607   8.425   0.880  0.3617 -0.2961 -0.2109
16194SOL    HW254420   2.697   8.410   1.000  0.1811  0.1870 -0.0124
16195SOL     OW54421  10.937  10.268  10.082  0.4692 -0.2276  0.1965
16195SOL    HW154422  10.851  10.303  10.104  0.0506 -1.1436  0.0712
16195SOL    HW254423  10.956  10.303   9.995 -0.3037 -0.9354 -0.2755
16196SOL     OW54424   1.994   6.064   3.008 -0.1196 -0.2376  0.2895
16196SOL    HW154425   2.016   6.003   3.078  0.9501 -0.0270  0.1645
16196SOL    HW254426   2.024   6.021   2.927  1.0770  0.6071  0.2456
16197SOL     OW54427   9.413   3.828   2.616 -0.0361 -0.0239  0.0199
16197SOL    HW154428   9.346   3.774   2.574  0.6849  0.4878 -1.8522
16197SOL    HW254429   9.480   3.766   2.643 -0.0615 -0.2577 -0.4477
16198SOL     OW54430   8.779   1.617   1.307 -0.1169 -0.1946 -0.5761
16198SOL    HW154431   8.838   1.691   1.308  0.2639 -0.4272 -2.3657
16198SOL    HW254432   8.703   1.647   1.256 -0.9364 -0.3594  0.4982
16199SOL     OW54433   9.530   8.197   7.758  0.1636  0.4288  0.0052
16199SOL    HW154434   9.585   8.259   7.805 -0.4132  1.1380 -0.2282
16199SOL    HW254435   9.445   8.203   7.801 -0.1268  0.4317 -0.5536
16200SOL     OW54436   5.385   9.292   4.959  0.3301 -0.1865  0.2709
16200SOL    HW154437   5.428   9.300   5.044 -0.0422 -0.8056  0.5227
16200SOL    HW254438   5.333   9.372   4.950  2.8401  1.4751 -0.8151
16201SOL     OW54439  10.493   2.544   9.248  0.0282 -0.0700  0.1668
16201SOL    HW154440  10.422   2.548   9.184  0.4730  0.4251 -0.3035
16201SOL    HW254441  10.554   2.480   9.213 -0.5209 -1.0350  0.9312
16202SOL     OW54442   1.188   3.624   0.226  0.1334 -0.3151 -0.1151
16202SOL    HW154443   1.139   3.657   0.301  0.9727  0.2318  0.2144
16202SOL    HW254444   1.234   3.547   0.259  2.0435  1.0175  0.5371
16203SOL     OW54445   3.557   0.114   4.333 -0.2267  0.0709  0.1432
16203SOL    HW154446   3.624   0.046   4.328 -1.0026 -0.6920 -0.4231
16203SOL    HW254447   3.605   0.196   4.339  0.7396 -0.5136  0.5605
16204SOL     OW54448   5.166   9.249   1.353  0.0005  0.3978  0.3923
16204SOL    HW154449   5.196   9.184   1.416 -2.3140 -0.4568  0.6826
16204SOL    HW254450   5.080   9.219   1.325 -0.1593  2.1356 -1.2316
16205SOL     OW54451   3.377   9.362   4.688  0.2894  0.1923  0.4939
16205SOL    HW154452   3.376   9.444   4.640  0.5784 -0.5301 -0.8004
16205SOL    HW254453   3.363   9.295   4.621  1.2117 -0.8881  1.3478
16206SOL     OW54454   9.214   0.263   4.737  0.1512 -0.4241  0.3725
16206SOL    HW154455   9.218   0.357   4.754 -0.5572 -0.6087  1.5912
16206SOL    HW254456   9.248   0.255   4.647 -0.5079  1.0624 -0.0493
16207SOL     OW54457   5.627   3.222   6.216  0.5761  0.6076 -0.1797
16207SOL    HW154458   5.594   3.293   6.161 -0.5441  1.0572  1.0200
16207SOL    HW254459   5.722   3.230   6.212  0.4820  1.6165 -0.7607
16208SOL     OW54460  12.154  10.576   2.476 -0.4979  0.0566 -0.0009
16208SOL    HW154461  12.136  10.542   2.563  0.1784 -2.8468 -0.8877
16208SOL    HW254462  12.155  10.498   2.419 -2.6518  1.9168 -2.9502
16209SOL     OW54463   5.408   4.959   5.688  0.4519  1.5652 -0.2601
16209SOL    HW154464   5.433   5.050   5.705 -3.2051  2.7617 -0.4316
16209SOL    HW254465   5.366   4.931   5.769  0.6593  0.3441 -0.5683
16210SOL     OW54466   0.413   6.666   5.663  0.3471 -0.0160 -0.0390
16210SOL    HW154467   0.411   6.742   5.720 -0.2872 -1.2164  1.6367
16210SOL    HW254468   0.480   6.609   5.702 -1.7466 -1.9186  1.0451
16211SOL     OW54469   6.643  11.867   7.949  0.3637  0.3605 -0.4191
16211SOL    HW154470   6.580  11.843   7.882  0.0706  0.1947 -0.0841
16211SOL    HW254471   6.590  11.889   8.026  0.6183  1.8278 -0.6193
16212SOL     OW54472   6.779   5.307   0.104  0.1166  0.4571 -0.2927
16212SOL    HW154473   6.709   5.252   0.138  0.8069  0.5152  1.3011
16212SOL    HW254474   6.739   5.393   0.092 -0.0455  0.5306  0.7587
16213SOL     OW54475  11.240   9.310   8.745 -0.4264 -0.5366 -0.1368
16213SOL    HW154476  11.249   9.214   8.748 -0.7841 -0.6664 -2.0963
16213SOL    HW254477  11.163   9.325   8.691  0.1394  0.8667 -0.5997
16214SOL     OW54478   4.417  10.897  11.933 -0.3250 -0.3429 -0.3895
16214SOL    HW154479   4.351  10.963  11.954 -0.2636 -0.2402 -0.5219
16214SOL    HW254480   4.486  10.910  11.997  0.9645  1.5081 -2.0360
16215SOL     OW54481   3.572   4.029   9.520  0.9285 -0.4588  0.0308
16215SOL    HW154482   3.612   4.061   9.439  0.4052 -0.5056 -0.2522
16215SOL    HW254483   3.616   4.078   9.589  0.8978  0.0862 -0.3265
16216SOL     OW54484   9.953   9.059  12.126 -0.1050 -0.0232  0.4645
16216SOL    HW154485   9.963   9.140  12.076 -2.3265 -0.6112 -1.1123
16216SOL    HW254486   9.980   9.082  12.215  0.4080  2.1195 -0.1814
16217SOL     OW54487   6.561  10.705   1.219 -0.1554 -0.2623  0.1865
16217SOL    HW154488   6.475  10.714   1.259 -0.4502 -2.6517  0.2409
16217SOL    HW254489   6.622  10.735   1.286 -0.8820  0.8096  0.3987
16218SOL     OW54490   2.721  11.544   8.786 -0.0457  0.4046 -0.2705
16218SOL    HW154491   2.716  11.457   8.746 -0.7604  1.3872 -2.5085
16218SOL    HW254492   2.804  11.544   8.835 -0.0182 -1.4938 -0.2540
16219SOL     OW54493   0.343  10.240  10.191 -0.4525 -0.1269 -0.7921
16219SOL    HW154494   0.287  10.318  10.197 -0.7795 -0.4829  2.5525
16219SOL    HW254495   0.283  10.170  10.166 -0.4756  0.3633 -2.1781
16220SOL     OW54496   7.331   4.901   4.932  0.6026  0.0119  0.8458
16220SOL    HW154497   7.322   4.814   4.893 -0.2825  0.3213  0.3170
16220SOL    HW254498   7.272   4.956   4.880  1.5711  1.0498  0.8123
16221SOL     OW54499   0.599   2.516   9.357  0.0601 -0.6097 -0.3992
16221SOL    HW154500   0.619   2.523   9.264 -0.6993  3.3373 -0.4584
16221SOL    HW254501   0.682   2.538   9.401  0.3496 -2.2084 -0.0872
16222SOL     OW54502   6.693  11.157   2.543  0.0889 -0.1721 -0.1762
16222SOL    HW154503   6.640  11.153   2.623  1.2341  0.4618  0.6555
16222SOL    HW254504   6.657  11.089   2.486 -0.5534 -0.8568  1.0121
16223SOL     OW54505   9.568   5.665   6.869  0.1872 -0.6552 -0.0626
16223SOL    HW154506   9.584   5.752   6.907 -0.6481 -0.8995  0.9056
16223SOL    HW254507   9.558   5.681   6.775  0.0805  0.2886  0.0976
16224SOL     OW54508  12.118   5.863   2.193 -0.2017  0.1289  0.3219
16224SOL    HW154509  12.102   5.813   2.273 -0.2910  0.8256  0.7546
16224SOL    HW254510  12.129   5.953   2.224  1.2992  0.1816 -0.2785
16225SOL     OW54511  10.892   0.338   3.842  0.3126 -0.2549 -0.0769
16225SOL    HW154512  10.910   0.245   3.853 -0.6275 -0.4991 -0.5443
16225SOL    HW254513  10.920   0.378   3.925  2.1630 -0.7059 -0.4309
16226SOL     OW54514   0.815   2.374   6.655 -0.0568 -0.4941 -0.2703
16226SOL    HW154515   0.748   2.369   6.586 -1.2764  0.8917  0.7438
16226SOL    HW254516   0.776   2.328   6.730  0.2161  0.1138  0.2536
16227SOL     OW54517   1.481   5.671   4.254  0.0671 -0.1594 -0.1134
16227SOL    HW154518   1.416   5.695   4.188 -2.0638 -1.4955  1.3564
16227SOL    HW254519   1.485   5.576   4.250  0.7432 -0.1879  0.8917
16228SOL     OW54520   0.752   6.234   5.515 -0.0032 -0.7350 -0.0529
16228SOL    HW154521   0.797   6.275   5.589 -0.8512  1.1160 -0.4910
16228SOL    HW254522   0.674   6.194   5.553 -1.0766  1.2582 -0.0482
16229SOL     OW54523  11.455   3.828   8.019 -0.6041 -0.2969  0.6839
16229SOL    HW154524  11.495   3.914   8.009 -0.6038 -0.4537 -1.0399
16229SOL    HW254525  11.528   3.767   8.016 -0.6236 -0.3857  1.6952
16230SOL     OW54526   3.752   7.734   2.497  0.3493  0.7675  0.2638
16230SOL    HW154527   3.692   7.720   2.423  0.2798  2.2000  0.0105
16230SOL    HW254528   3.839   7.728   2.458  0.3739 -0.5225  0.4799
16231SOL     OW54529   8.151   0.032  11.085 -0.1678  0.1895  0.0671
16231SOL    HW154530   8.097   0.105  11.054  0.3105  0.7435  0.5189
16231SOL    HW254531   8.205   0.008  11.009 -3.3569 -2.6765 -1.5918
16232SOL     OW54532   8.058   2.577  10.056  0.2661 -0.0606 -0.0611
16232SOL    HW154533   8.068   2.658  10.007  2.5831 -1.2043 -1.6562
16232SOL    HW254534   8.004   2.601  10.132 -0.9483  2.4295 -1.5882
16233SOL     OW54535   5.145   2.818   0.132  0.3100  0.0311  0.0343
16233SOL    HW154536   5.130   2.906   0.097 -1.6625 -0.5546 -0.7551
16233SOL    HW254537   5.196   2.832   0.212 -0.5792  1.9604  0.3227
16234SOL     OW54538   6.358   9.942   7.106  0.3558  0.3669 -0.0679
16234SOL    HW154539   6.282   9.900   7.066 -0.0063  0.6418  0.3381
16234SOL    HW254540   6.397   9.993   7.035  1.4031 -1.4313 -0.8734
16235SOL     OW54541   6.001   0.284   0.501  0.1148 -0.1353 -0.0381
16235SOL    HW154542   6.062   0.269   0.574  0.0379 -1.9780 -0.2930
16235SOL    HW254543   6.016   0.210   0.442 -0.3835  0.9056 -1.5175
16236SOL     OW54544   8.231   3.110   9.127  0.2611 -0.0606 -0.2256
16236SOL    HW154545   8.216   3.074   9.215  1.5750 -1.2833 -0.4573
16236SOL    HW254546   8.198   3.199   9.131 -0.4399 -0.3595  1.2694
16237SOL     OW54547  10.306   4.437  10.951 -0.0196  0.0624  0.2640
16237SOL    HW154548  10.297   4.359  10.897 -1.2433 -0.3584  1.0605
16237SOL    HW254549  10.240   4.428  11.019 -1.3024  2.5506 -0.5360
16238SOL     OW54550  12.245   1.047   4.845  0.7021  0.5405  0.1072
16238SOL    HW154551  12.215   1.046   4.936  0.1065  3.4392  0.0526
16238SOL    HW254552  12.181   0.995   4.797 -0.6793  1.4220  0.9451
16239SOL     OW54553   0.512   5.238   0.763  0.3873  0.3367 -0.5459
16239SOL    HW154554   0.499   5.291   0.684  0.1133 -0.7307 -1.2400
16239SOL    HW254555   0.443   5.172   0.759  0.5376  0.1065  0.4584
16240SOL     OW54556   7.042   3.725   1.110  0.4936 -0.1150 -0.6687
16240SOL    HW154557   7.134   3.747   1.100  0.2426  1.4604  0.0736
16240SOL    HW254558   7.002   3.752   1.027  0.7820 -1.4623 -1.2717
16241SOL     OW54559  11.751  12.188   7.284  0.4221  0.6231  0.1349
16241SOL    HW154560  11.668  12.189   7.237  2.1338 -1.6850 -3.3805
16241SOL    HW254561  11.737  12.127   7.357 -0.5142 -1.4377 -1.6568
16242SOL     OW54562   5.381   0.355   2.993  0.0540 -0.0490  0.7967
16242SOL    HW154563   5.423   0.335   3.076  0.9071 -2.3254 -0.1143
16242SOL    HW254564   5.410   0.444   2.973  0.8532  0.0700  2.3218
16243SOL     OW54565   1.471   5.895   7.870  0.1943  0.4691 -0.0957
16243SOL    HW154566   1.519   5.873   7.791 -1.0133  1.8927 -1.2858
16243SOL    HW254567   1.464   5.991   7.869 -0.6666  0.4572  1.2345
16244SOL     OW54568   1.273  10.128   6.697 -0.2299 -0.7000  0.2613
16244SOL    HW154569   1.364  10.097   6.700  0.2591  0.6837  2.8965
16244SOL    HW254570   1.269  10.184   6.620  1.7539  0.7478  1.1151
16245SOL     OW54571  11.891  12.068  11.098  0.1062 -0.1821  0.1211
16245SOL    HW154572  11.931  11.992  11.055 -0.2754 -0.6717  0.6122
16245SOL    HW254573  11.964  12.128  11.114  0.0913  0.5779 -2.3089
16246SOL     OW54574   5.874  12.227   2.808 -0.1834 -1.1085 -0.9376
16246SOL    HW154575   5.855  12.221   2.902 -2.2864 -0.0629 -1.2367
16246SOL    HW254576   5.957  12.274   2.804  0.9616 -2.8732  0.4038
16247SOL     OW54577   3.946   9.150   1.449  0.2565  0.6357  0.7830
16247SOL    HW154578   3.912   9.206   1.519  1.4156  0.3426  1.6266
16247SOL    HW254579   3.952   9.063   1.489 -1.7496 -0.2171 -0.5775
16248SOL     OW54580   8.913   0.328  11.973  1.1383  0.1384 -0.1475
16248SOL    HW154581   8.921   0.417  12.008 -0.4005 -0.2172  1.2368
16248SOL    HW254582   8.823   0.303  11.993  1.7130 -1.9451  0.0118
16249SOL     OW54583   2.156   2.470   3.411  0.3566 -0.3494  0.1209
16249SOL    HW154584   2.151   2.378   3.437 -1.0511  0.3181  2.5454
16249SOL    HW254585   2.171   2.517   3.493  1.9287  1.5677 -1.1713
16250SOL     OW54586   6.065   8.625   9.760  0.1835 -0.7040  0.0633
16250SOL    HW154587   6.101   8.637   9.848  0.6125 -1.0168 -0.0652
16250SOL    HW254588   5.991   8.685   9.756  0.8883  0.1996  0.2185
16251SOL     OW54589   8.217   5.038   0.601 -0.2322 -0.8730 -0.2877
16251SOL    HW154590   8.256   4.960   0.562  2.5434  0.0568  0.4285
16251SOL    HW254591   8.285   5.072   0.660 -1.2807  2.1665 -0.6712
16252SOL     OW54592  11.923   0.876   2.463 -0.5642 -0.0311  0.2670
16252SOL    HW154593  11.995   0.877   2.527  1.0675  2.3252 -1.4184
16252SOL    HW254594  11.901   0.783   2.453  3.6499 -1.1657 -0.5156
16253SOL     OW54595   6.922   6.328   3.955 -0.0692 -0.3518  0.0603
16253SOL    HW154596   6.941   6.247   3.908 -1.6896 -0.7915  0.1058
16253SOL    HW254597   6.878   6.300   4.036  0.4855  0.5160  0.6864
16254SOL     OW54598   6.490   8.496   8.525 -0.1013  0.3408 -0.1256
16254SOL    HW154599   6.401   8.504   8.491 -0.4997  2.8050  1.2590
16254SOL    HW254600   6.544   8.546   8.464  0.4322 -1.2969 -1.0625
16255SOL     OW54601  10.655   7.993   2.063 -0.3523  0.2149  0.1108
16255SOL    HW154602  10.739   8.001   2.107  0.2896  0.1898 -1.0677
16255SOL    HW254603  10.673   7.939   1.986 -0.9421  2.0843 -1.4187
16256SOL     OW54604   9.187   7.465   7.374  0.2454 -0.2534 -0.0764
16256SOL    HW154605   9.101   7.454   7.416 -0.0624  1.4059 -0.2064
16256SOL    HW254606   9.194   7.390   7.315 -0.3879 -1.3037  1.1153
16257SOL     OW54607   3.803  12.127   3.698 -0.4924 -0.0472 -0.2167
16257SOL    HW154608   3.784  12.035   3.677 -2.9096  0.6839 -1.4868
16257SOL    HW254609   3.864  12.121   3.772 -2.1513 -2.6895  1.1126
16258SOL     OW54610   6.996   6.232   8.844 -0.0094  0.1166  0.3162
16258SOL    HW154611   6.904   6.218   8.866  0.0454 -0.8686 -0.0649
16258SOL    HW254612   7.019   6.158   8.789  0.8215  0.7314 -0.1769
16259SOL     OW54613   5.646   4.259   5.805 -0.5272 -0.3001 -0.4919
16259SOL    HW154614   5.662   4.234   5.896  0.0175 -1.6821 -0.9482
16259SOL    HW254615   5.666   4.353   5.803 -0.9264 -0.1591  0.8857
16260SOL     OW54616   6.612   9.486   8.686 -0.2144 -0.4784  0.0167
16260SOL    HW154617   6.679   9.421   8.666 -0.8269 -0.9005 -0.7225
16260SOL    HW254618   6.591   9.472   8.778  0.6664 -0.3736  0.2428
16261SOL     OW54619   2.652   4.589   0.733  0.1465 -0.2811 -0.5235
16261SOL    HW154620   2.713   4.645   0.780 -0.7112 -2.7622  4.1182
16261SOL    HW254621   2.704   4.512   0.710  0.0887  0.1245 -2.1353
16262SOL     OW54622   3.502  10.092   9.840  0.9034 -0.4555 -0.5138
16262SOL    HW154623   3.484  10.103   9.934  0.9374  0.5408 -0.6137
16262SOL    HW254624   3.476  10.001   9.821  0.9381 -0.6827  0.4643
16263SOL     OW54625   0.096   7.648   3.039 -0.2590  0.0216  0.3886
16263SOL    HW154626   0.091   7.573   3.099 -1.5580  1.0435  1.6271
16263SOL    HW254627   0.156   7.620   2.970 -2.2367 -2.9646 -0.3186
16264SOL     OW54628   7.424   2.879  11.572  0.0886 -0.3176 -0.7169
16264SOL    HW154629   7.346   2.862  11.626 -0.2695  1.3783 -0.6502
16264SOL    HW254630   7.493   2.897  11.636  0.0166  0.2630 -0.8004
16265SOL     OW54631  10.426   4.244   1.621 -0.2228 -0.3132 -0.3752
16265SOL    HW154632  10.490   4.192   1.668  1.1433  0.4590 -1.2829
16265SOL    HW254633  10.412   4.197   1.539 -1.3778 -0.8417  0.1113
16266SOL     OW54634   1.214  11.719   0.139  0.8166  0.4344  0.1277
16266SOL    HW154635   1.282  11.785   0.141 -0.1321  1.4240  1.8681
16266SOL    HW254636   1.208  11.693   0.047  2.7345  1.1141 -0.2317
16267SOL     OW54637   6.173   3.538   1.167 -0.1896 -0.1596 -1.1933
16267SOL    HW154638   6.153   3.616   1.116  0.6098  1.6728  1.1116
16267SOL    HW254639   6.268   3.528   1.158  0.2248  1.1594  1.0990
16268SOL     OW54640   1.399   9.813   7.170 -0.1905 -0.5553 -0.6226
16268SOL    HW154641   1.458   9.787   7.241 -1.1853 -0.5271  0.2223
16268SOL    HW254642   1.412   9.908   7.162  1.3136 -0.8157 -1.7783
16269SOL     OW54643   3.413  12.296  11.597  0.3285  0.0412  0.0554
16269SOL    HW154644   3.384  12.226  11.655  2.1547 -0.1229  0.8606
16269SOL    HW254645   3.351  12.368  11.613 -1.2449 -1.1715 -0.3972
16270SOL     OW54646  11.380   9.501   7.457 -0.0994 -0.1628 -0.3328
16270SOL    HW154647  11.309   9.523   7.398 -0.4504 -0.5888 -0.0802
16270SOL    HW254648  11.459   9.532   7.413 -0.6892  3.8393  1.0596
16271SOL     OW54649   7.663   5.375   7.726  0.1302 -0.1175  0.1810
16271SOL    HW154650   7.620   5.351   7.643  1.0356 -0.6951 -0.1285
16271SOL    HW254651   7.605   5.441   7.764 -1.0227 -0.8383 -0.2483
16272SOL     OW54652  10.943   3.324   3.953 -0.4065  0.6668  0.1082
16272SOL    HW154653  10.892   3.320   4.034 -1.5338  1.9303 -0.4991
16272SOL    HW254654  10.892   3.380   3.896  0.1013 -0.6164 -1.6905
16273SOL     OW54655  11.994   8.590   0.635  0.1852  0.4110 -0.3322
16273SOL    HW154656  11.916   8.617   0.587 -0.7785 -0.6241  0.6116
16273SOL    HW254657  11.973   8.606   0.727  1.7260  1.6576 -0.1531
16274SOL     OW54658   8.966   7.997   0.066  0.5717 -0.1746  0.3143
16274SOL    HW154659   8.871   8.001   0.077  0.3692 -0.5137 -1.1022
16274SOL    HW254660   9.001   8.038   0.145 -0.7757  1.1982  0.2429
16275SOL     OW54661   9.040  12.167   0.028 -0.2016  0.0162 -0.2713
16275SOL    HW154662   9.121  12.216   0.043  0.6311 -1.6215  0.8786
16275SOL    HW254663   9.008  12.200  -0.056  0.9336  1.6569 -0.1127
16276SOL     OW54664  11.793  12.021   9.532 -0.5577  0.2792 -0.1025
16276SOL    HW154665  11.753  11.961   9.469 -1.4084  0.9386 -0.2027
16276SOL    HW254666  11.826  11.964   9.602  1.4011 -0.5678 -1.6238
16277SOL     OW54667   3.331   0.572   2.972 -0.1433 -0.0688  0.3046
16277SOL    HW154668   3.367   0.505   3.030 -1.2689 -2.1243 -1.2411
16277SOL    HW254669   3.403   0.634   2.960  1.2290 -1.4269  1.1556
16278SOL     OW54670   5.560   5.135   1.457  0.7122 -0.2212 -0.0036
16278SOL    HW154671   5.504   5.103   1.528 -0.5198  1.2349 -0.2492
16278SOL    HW254672   5.615   5.061   1.435 -1.9794 -2.2089 -0.6049
16279SOL     OW54673   1.454   9.011   5.858 -0.1238 -0.4689 -1.1174
16279SOL    HW154674   1.492   9.016   5.945 -0.0358 -0.6308 -1.1467
16279SOL    HW254675   1.527   8.991   5.800 -0.0811  0.2097 -1.3092
16280SOL     OW54676   8.789   0.640  11.898 -0.0447 -0.1356 -0.7962
16280SOL    HW154677   8.810   0.668  11.987 -1.8882 -0.6593 -0.1607
16280SOL    HW254678   8.694   0.650  11.891 -0.2499 -2.3041 -1.9137
16281SOL     OW54679   3.963   4.499   3.485 -0.3438 -1.0246  0.0639
16281SOL    HW154680   3.886   4.552   3.505 -2.3294 -3.0239 -1.6794
16281SOL    HW254681   3.965   4.495   3.389  2.2210 -0.7112  0.0556
16282SOL     OW54682  10.818   1.517  10.156 -0.7318 -0.0537 -0.0865
16282SOL    HW154683  10.817   1.585  10.224 -1.3288 -0.3338  0.1922
16282SOL    HW254684  10.863   1.443  10.198  1.0674  0.5630 -0.8078
16283SOL     OW54685  11.422   8.516   1.828 -0.1261  0.4383 -0.5266
16283SOL    HW154686  11.421   8.454   1.900 -0.6905  1.1088  0.0580
16283SOL    HW254687  11.330   8.536   1.811  0.0534  2.1033  0.1906
16284SOL     OW54688   4.782  11.629  12.282  0.2438  0.5590  0.4546
16284SOL    HW154689   4.774  11.683  12.361 -0.7765  0.2311  0.6038
16284SOL    HW254690   4.702  11.575  12.283  0.7542 -0.2299 -0.2190
16285SOL     OW54691   8.133  10.580   6.412 -0.4522 -0.7575 -0.4398
16285SOL    HW154692   8.222  10.552   6.435 -0.2557 -0.4502 -0.8283
16285SOL    HW254693   8.083  10.569   6.493  0.5191  1.5553  0.5696
16286SOL     OW54694   3.482   3.165   4.175  0.0410 -0.4605  0.1921
16286SOL    HW154695   3.551   3.100   4.191  2.6176  1.7215 -1.2659
16286SOL    HW254696   3.518   3.247   4.207 -2.3907  0.6343  0.3705
16287SOL     OW54697   3.007   0.964   1.581 -0.2083 -0.0621 -0.3044
16287SOL    HW154698   2.915   0.986   1.598  0.0829  1.6349 -0.6935
16287SOL    HW254699   3.008   0.870   1.568 -1.5736 -0.4163  1.7581
16288SOL     OW54700  10.631   9.428   9.392 -0.1417  0.0163  0.9125
16288SOL    HW154701  10.665   9.352   9.439 -2.5115 -1.9773 -0.3935
16288SOL    HW254702  10.549   9.448   9.436 -0.9275  0.0024 -0.5060
16289SOL     OW54703  10.684   2.696   2.626 -0.2168  0.0401  0.3278
16289SOL    HW154704  10.757   2.698   2.564 -0.1331  0.2863  0.4322
16289SOL    HW254705  10.636   2.617   2.604 -0.2290  0.1633 -0.0989
16290SOL     OW54706   3.700  10.068  11.165 -0.2898 -0.5724  0.4628
16290SOL    HW154707   3.717  10.045  11.074  1.1327  1.4202  0.1352
16290SOL    HW254708   3.607  10.051  11.178 -1.1839  1.5542 -2.2073
16291SOL     OW54709   3.543   4.921   5.184 -0.7206 -0.5449 -0.4537
16291SOL    HW154710   3.560   4.839   5.137  0.7175 -0.4477 -0.1527
16291SOL    HW254711   3.630   4.955   5.205 -1.3146 -0.1128  1.4859
16292SOL     OW54712   3.045  11.248   3.468 -0.3364 -0.0103  0.3177
16292SOL    HW154713   3.049  11.305   3.545  1.4523  0.2411  0.0893
16292SOL    HW254714   3.020  11.306   3.396 -1.1088 -0.0621  0.5375
16293SOL     OW54715   4.442   1.247   5.712  0.5188 -0.0733  0.1915
16293SOL    HW154716   4.395   1.164   5.700  1.0537 -0.0100 -4.3193
16293SOL    HW254717   4.514   1.226   5.772 -0.9357 -2.0819  1.3483
16294SOL     OW54718  10.346  11.424   2.717  0.3372  0.1936  0.0818
16294SOL    HW154719  10.360  11.501   2.661 -1.6447  0.1613 -0.5405
16294SOL    HW254720  10.298  11.458   2.793 -0.4520 -0.3775 -0.1421
16295SOL     OW54721   6.633  10.923  12.302 -0.1552  0.4897  0.0919
16295SOL    HW154722   6.655  10.950  12.391  1.0755  0.1214 -0.0715
16295SOL    HW254723   6.605  10.832  12.311 -0.8565  0.7147  0.2035
16296SOL     OW54724  10.041   8.006  10.563  0.2715 -0.0927 -0.8488
16296SOL    HW154725   9.953   8.028  10.593  0.3486 -0.8941  0.0384
16296SOL    HW254726  10.028   7.960  10.480 -0.1646 -0.3737 -0.6272
16297SOL     OW54727  11.397  11.259   3.231 -0.0603  0.0092 -0.0049
16297SOL    HW154728  11.363  11.188   3.286  1.2669 -1.5519 -1.0737
16297SOL    HW254729  11.423  11.215   3.150 -1.8196  2.2069 -1.8656
16298SOL     OW54730  11.719  10.749   3.266  0.4310 -0.4325 -0.3563
16298SOL    HW154731  11.736  10.841   3.247 -0.9420 -0.0050  0.4060
16298SOL    HW254732  11.792  10.722   3.321 -0.8930  1.2192  2.3981
16299SOL     OW54733   9.541   1.524   9.911 -0.4126  0.5944 -0.0760
16299SOL    HW154734   9.465   1.579   9.930 -1.5748 -1.0071  0.0736
16299SOL    HW254735   9.588   1.518   9.994 -1.6930 -0.7243  0.5783
16300SOL     OW54736   6.097   9.065   4.159  0.8364 -0.2745  0.2512
16300SOL    HW154737   6.140   9.133   4.210 -0.2896  0.0874  0.7232
16300SOL    HW254738   6.159   8.991   4.160  1.8922  0.5847  0.0501
16301SOL     OW54739   5.711  10.439   0.733 -0.2165  0.1672 -0.0829
16301SOL    HW154740   5.806  10.449   0.734 -0.3503  2.1770 -1.3288
16301SOL    HW254741   5.679  10.518   0.776 -1.3377  0.5090 -1.4845
16302SOL     OW54742   6.048   9.667   1.572 -0.2037  0.1709  0.4505
16302SOL    HW154743   6.025   9.625   1.488 -0.2506  0.2849  0.4067
16302SOL    HW254744   5.978   9.729   1.588 -0.1725  0.1801  0.5547
16303SOL     OW54745  10.024   4.122   1.766 -0.6262  0.7263 -0.3652
16303SOL    HW154746  10.106   4.170   1.778 -0.4706  0.6132 -0.9544
16303SOL    HW254747  10.037   4.041   1.815 -0.2674  0.5781 -0.6948
16304SOL     OW54748   4.904   4.340   3.382  0.2381 -0.1681 -0.4262
16304SOL    HW154749   4.854   4.408   3.337  1.2200  0.9142  0.0978
16304SOL    HW254750   4.954   4.297   3.313  1.2958  1.1065 -0.4768
16305SOL     OW54751   3.102  10.947   9.908  0.5011 -0.0002  0.1316
16305SOL    HW154752   3.160  10.921   9.979  0.2264 -1.4188 -0.1445
16305SOL    HW254753   3.083  11.039   9.926  1.8185  0.1483  0.9183
16306SOL     OW54754   2.169   3.144   7.084  0.4783 -0.2485  0.3361
16306SOL    HW154755   2.209   3.068   7.043  0.9371  0.4019 -0.4490
16306SOL    HW254756   2.130   3.193   7.012  0.4931  0.4352  0.7779
16307SOL     OW54757   5.703   5.021   7.290  0.1632 -0.4009 -0.0980
16307SOL    HW154758   5.757   4.959   7.241  0.7028  1.9036 -2.6403
16307SOL    HW254759   5.617   5.017   7.249  0.4345  1.0869 -0.8676
16308SOL     OW54760   3.029  12.088   9.293  0.1244  0.5731  0.3240
16308SOL    HW154761   2.933  12.091   9.301  0.0226 -0.9218  0.0610
16308SOL    HW254762   3.046  12.001   9.257  1.6617  0.3769  1.4703
16309SOL     OW54763  11.056   0.521   5.553 -0.2866 -0.0024 -0.4887
16309SOL    HW154764  11.122   0.566   5.605  0.2724 -1.2906 -0.0354
16309SOL    HW254765  11.028   0.585   5.488 -1.9907  2.1661  2.1408
16310SOL     OW54766  10.841  10.552   9.365 -0.2124  0.3104  0.4029
16310SOL    HW154767  10.860  10.593   9.281 -1.1291 -0.4540 -0.1958
16310SOL    HW254768  10.785  10.616   9.410 -0.0027  0.5721  0.2947
16311SOL     OW54769  11.968   9.258   3.403  0.0422  0.0692 -0.3450
16311SOL    HW154770  12.015   9.180   3.432  0.0730 -0.5440 -1.9795
16311SOL    HW254771  11.974   9.318   3.478  0.8369 -1.1177  0.5839
16312SOL     OW54772   3.495   8.075   1.326  0.1202  0.0628  0.5975
16312SOL    HW154773   3.548   8.113   1.255 -1.1959 -1.1783 -1.1362
16312SOL    HW254774   3.408   8.065   1.288 -1.1432  0.9954  3.0159
16313SOL     OW54775   6.464   3.517  12.047 -0.2065 -0.1527  0.2713
16313SOL    HW154776   6.523   3.447  12.018 -1.3966 -0.9071 -0.4082
16313SOL    HW254777   6.502   3.547  12.130  1.7848  0.2279 -0.7380
16314SOL     OW54778  10.664   4.111   2.663  0.1688  0.4788  0.2749
16314SOL    HW154779  10.666   4.157   2.580  2.2923  0.7235  0.3935
16314SOL    HW254780  10.740   4.052   2.659 -1.4830 -1.8379  0.7934
16315SOL     OW54781   7.876   7.389   3.093  0.5106 -0.6429 -0.1331
16315SOL    HW154782   7.871   7.483   3.110 -0.4012 -0.2162 -2.4557
16315SOL    HW254783   7.852   7.380   3.001 -1.8676 -3.3908  0.6237
16316SOL     OW54784  11.542   4.801   0.691  0.0533  0.6107  0.3243
16316SOL    HW154785  11.618   4.858   0.704 -0.3657  1.2891 -0.1335
16316SOL    HW254786  11.544   4.780   0.598 -0.0518  0.2341  0.4058
16317SOL     OW54787   5.055   6.832   1.924  0.1926  0.4986  0.3482
16317SOL    HW154788   5.021   6.860   2.009 -0.6910  0.6756 -0.0472
16317SOL    HW254789   5.144   6.802   1.942  0.1808  0.9744  1.2506
16318SOL     OW54790   8.642   3.065   3.599  0.2447  0.0234  0.2456
16318SOL    HW154791   8.681   3.149   3.624  2.1776 -0.7905  0.1183
16318SOL    HW254792   8.666   3.054   3.507  0.3257 -0.8275  0.3604
16319SOL     OW54793   9.300   9.209  12.218  0.1870 -0.1021  0.1394
16319SOL    HW154794   9.344   9.184  12.136  0.5111 -0.3824  0.3968
16319SOL    HW254795   9.260   9.128  12.248 -0.0847  0.0427  0.1663
16320SOL     OW54796   0.606   3.062   6.615 -0.4719  0.2529  0.0455
16320SOL    HW154797   0.545   3.007   6.665  1.5650 -0.7028  1.6192
16320SOL    HW254798   0.692   3.026   6.634  0.6033  1.3599 -2.3707
16321SOL     OW54799   9.445   3.198   3.055  0.3749  0.3603 -0.5518
16321SOL    HW154800   9.515   3.246   3.099 -1.2161  2.6276 -0.3348
16321SOL    HW254801   9.449   3.227   2.964  0.1465 -0.0542 -0.6998
16322SOL     OW54802   1.835  11.519  10.008 -0.5930 -0.2184  0.5541
16322SOL    HW154803   1.763  11.537   9.947 -1.4427  0.0512  1.5994
16322SOL    HW254804   1.892  11.595  10.001 -1.1664  0.2406  0.7540
16323SOL     OW54805   9.473   1.287   6.058  0.1752  0.1389 -0.8797
16323SOL    HW154806   9.495   1.196   6.036 -1.0771 -0.0366 -1.5361
16323SOL    HW254807   9.548   1.338   6.028  0.9075 -0.6759 -0.4731
16324SOL     OW54808   2.305  10.715  10.889 -0.0524  0.2257 -0.2013
16324SOL    HW154809   2.296  10.786  10.952 -1.1920 -1.6444  1.9118
16324SOL    HW254810   2.325  10.638  10.943 -0.1496 -1.2964 -2.2273
16325SOL     OW54811  10.740   5.360   6.050 -0.1287 -0.0482  0.1182
16325SOL    HW154812  10.667   5.397   6.000 -0.9318 -2.1951 -0.3862
16325SOL    HW254813  10.728   5.266   6.044  1.1666 -0.4301  2.3164
16326SOL     OW54814   1.020   1.047   2.306 -0.5273 -0.2519  0.9959
16326SOL    HW154815   0.956   0.976   2.309 -3.1003  1.8191 -0.2307
16326SOL    HW254816   1.082   1.027   2.376 -2.8019 -2.1591  2.6391
16327SOL     OW54817   7.639   6.157   8.129 -0.0151  0.3654  0.1015
16327SOL    HW154818   7.602   6.085   8.179  0.7195  0.4387  0.7774
16327SOL    HW254819   7.600   6.236   8.168 -1.0216  0.3345 -0.8104
16328SOL     OW54820   2.733   1.540   4.177 -0.0534  0.1406  0.7258
16328SOL    HW154821   2.741   1.552   4.272 -1.8584  2.2050  0.7118
16328SOL    HW254822   2.655   1.485   4.167  1.2767 -1.7812  0.4251
16329SOL     OW54823  10.506   1.930   1.301  0.0449  0.1428  0.6648
16329SOL    HW154824  10.540   1.842   1.289 -0.7354 -0.3570  1.9616
16329SOL    HW254825  10.436   1.937   1.235  2.7393  1.3371 -2.3257
16330SOL     OW54826   6.486   4.965   2.792  0.7339  0.2564 -0.2748
16330SOL    HW154827   6.579   4.982   2.777  0.7322  0.6059  0.0878
16330SOL    HW254828   6.441   5.022   2.730  0.7541  0.5071 -0.0615
16331SOL     OW54829   0.242   1.230   2.448 -0.2208  0.1824  0.4706
16331SOL    HW154830   0.186   1.156   2.470 -1.8545  0.6999 -1.6054
16331SOL    HW254831   0.186   1.307   2.458  0.4037  0.8201 -0.7160
16332SOL     OW54832   8.281  10.361   7.733 -0.3928  0.3741  0.0750
16332SOL    HW154833   8.332  10.418   7.790 -0.2511  1.8238 -1.4119
16332SOL    HW254834   8.218  10.420   7.691  1.0534 -0.0731 -3.0332
16333SOL     OW54835   1.403   0.362   2.415 -0.1756 -0.0154  0.4266
16333SOL    HW154836   1.349   0.308   2.357 -2.0276  2.3693 -0.2566
16333SOL    HW254837   1.356   0.362   2.498 -0.0570  0.3408  0.4958
16334SOL     OW54838   1.500   6.047   8.720 -0.0794 -0.0717  0.2338
16334SOL    HW154839   1.567   6.054   8.653 -1.2863 -0.0877 -1.0233
16334SOL    HW254840   1.538   5.989   8.786  1.2873  0.2698 -0.2342
16335SOL     OW54841   9.768   3.459   1.299  0.0870 -0.0773 -0.0436
16335SOL    HW154842   9.772   3.383   1.356  0.1086  0.3803  0.5791
16335SOL    HW254843   9.847   3.454   1.246  0.7974  0.2334  0.9473
16336SOL     OW54844  11.838  11.632   2.196  0.1080  0.4431 -0.0269
16336SOL    HW154845  11.907  11.592   2.249  0.6040  1.0968 -0.1562
16336SOL    HW254846  11.878  11.643   2.109 -0.6140 -0.3946 -0.4710
16337SOL     OW54847   0.678  10.685  10.538 -0.8512  0.5596  0.2989
16337SOL    HW154848   0.673  10.685  10.634  0.7768  1.1590  0.4194
16337SOL    HW254849   0.736  10.612  10.517 -1.4458  0.2342 -0.2682
16338SOL     OW54850   4.618   0.143  10.076  0.1460  0.1847  0.1541
16338SOL    HW154851   4.635   0.208  10.144  1.4214  0.6342 -0.5630
16338SOL    HW254852   4.680   0.165  10.006 -1.5380  0.1138 -1.4214
16339SOL     OW54853   0.758   9.776   9.241 -0.3198  0.1165  0.1819
16339SOL    HW154854   0.701   9.740   9.310  0.2073 -2.1566 -0.4605
16339SOL    HW254855   0.746   9.715   9.168  0.5667  1.4101 -1.0793
16340SOL     OW54856   4.607   0.090   0.148 -0.0231 -0.0671 -0.3482
16340SOL    HW154857   4.640   0.075   0.059  0.1936  1.2542 -0.5121
16340SOL    HW254858   4.626   0.182   0.165  2.8540 -0.9562  2.2444
16341SOL     OW54859   0.173   6.588   5.578 -0.2923  0.0341 -0.0709
16341SOL    HW154860   0.159   6.656   5.512  1.2080  0.5897  0.1379
16341SOL    HW254861   0.260   6.607   5.614 -0.9051 -0.4835  1.7978
16342SOL     OW54862   9.757   4.418   3.261  0.6585 -0.4976  0.1945
16342SOL    HW154863   9.704   4.460   3.194  0.0208 -1.5254  0.0469
16342SOL    HW254864   9.738   4.325   3.253 -0.3078 -0.5772  2.5087
16343SOL     OW54865  12.174  11.011   3.804  0.4967 -0.4585  0.0523
16343SOL    HW154866  12.087  11.031   3.770  0.1303  0.0582  1.2197
16343SOL    HW254867  12.225  10.985   3.727 -0.4327  0.1120 -0.7797
16344SOL     OW54868   9.177   7.762   1.299 -0.5460 -0.1411  0.5453
16344SOL    HW154869   9.137   7.817   1.232  0.0833 -0.5881 -0.2087
16344SOL    HW254870   9.180   7.675   1.260  1.3253 -0.0938  0.4881
16345SOL     OW54871  11.686  10.894   0.825 -0.1641 -0.4603 -0.4785
16345SOL    HW154872  11.762  10.853   0.867 -0.0597 -0.4018 -0.6085
16345SOL    HW254873  11.629  10.821   0.802 -0.4749 -0.4562  0.2559
16346SOL     OW54874   8.213   9.111   8.270 -0.1473  0.7534  0.3529
16346SOL    HW154875   8.306   9.096   8.286 -0.2203  0.6193  0.6695
16346SOL    HW254876   8.169   9.037   8.313 -0.3082 -0.0895 -1.1963
16347SOL     OW54877   3.408   6.478   8.802  0.1795 -0.3368 -0.9236
16347SOL    HW154878   3.329   6.457   8.853  0.5774 -1.5762 -0.7743
16347SOL    HW254879   3.380   6.546   8.742 -0.3829  0.9909  0.7539
16348SOL     OW54880   8.017   6.494  11.012 -0.2151  0.1771 -0.5264
16348SOL    HW154881   8.102   6.473  10.974 -0.0235 -0.3247  0.1843
16348SOL    HW254882   8.002   6.427  11.078 -0.5571  1.0301  0.2830
16349SOL     OW54883  10.934   6.111   4.151  0.3672 -0.4502 -1.2320
16349SOL    HW154884  10.878   6.186   4.131 -1.5416 -1.5645 -0.3617
16349SOL    HW254885  10.902   6.041   4.094 -0.2225 -1.5434  0.3634
16350SOL     OW54886  10.945  11.675  11.648  0.3531  0.3262  0.3592
16350SOL    HW154887  11.010  11.677  11.719 -0.5667 -0.1718  1.2395
16350SOL    HW254888  10.880  11.740  11.673  0.3365  0.5943 -0.3591
16351SOL     OW54889   2.715   3.653   2.859  0.0313 -0.0787 -0.2704
16351SOL    HW154890   2.642   3.621   2.912 -1.1774 -0.2621 -1.9900
16351SOL    HW254891   2.681   3.656   2.770  1.8544  0.7097 -0.9842
16352SOL     OW54892   6.128  10.536   8.492 -0.5908  0.0284 -0.4979
16352SOL    HW154893   6.220  10.517   8.509 -0.7555 -0.1020  0.3074
16352SOL    HW254894   6.086  10.450   8.491 -1.3528  0.1654  3.2082
16353SOL     OW54895   0.464   7.602   9.862 -0.5895 -0.2439  0.0382
16353SOL    HW154896   0.492   7.603   9.771 -1.2980  1.8545 -0.2130
16353SOL    HW254897   0.369   7.591   9.858 -0.5609 -0.6953  0.5475
16354SOL     OW54898  12.194   3.387   5.983  0.2685 -0.5061 -0.3245
16354SOL    HW154899  12.171   3.477   6.004 -0.5529 -0.5710 -0.9063
16354SOL    HW254900  12.133   3.334   6.035  0.6197 -0.7329 -0.1348
16355SOL     OW54901   4.198   3.939   5.837 -0.1451  0.1697  0.0520
16355SOL    HW154902   4.218   3.937   5.743  1.7414 -0.3063  0.4211
16355SOL    HW254903   4.130   4.005   5.845 -0.6212 -0.0490 -1.7007
16356SOL     OW54904   9.417   2.455   8.473 -0.2901  0.0316  0.0452
16356SOL    HW154905   9.389   2.388   8.411 -1.2757  1.4368 -1.1076
16356SOL    HW254906   9.355   2.447   8.546 -1.3155  0.5617 -0.7286
16357SOL     OW54907   2.467   4.902   2.340  0.7231 -0.4719  0.2027
16357SOL    HW154908   2.371   4.899   2.330  0.7995 -0.7926 -0.5102
16357SOL    HW254909   2.496   4.816   2.308  1.3218 -0.0330 -0.4382
16358SOL     OW54910   8.668   2.010  11.880  0.2870  0.2178 -0.4646
16358SOL    HW154911   8.753   2.030  11.919  0.2423  1.8988 -1.1263
16358SOL    HW254912   8.682   1.931  11.829  1.1745 -0.1336  0.3004
16359SOL     OW54913   3.925   5.989   3.806 -0.4959  0.1970  0.7671
16359SOL    HW154914   3.836   6.020   3.792 -1.1365 -2.3209 -1.5883
16359SOL    HW254915   3.976   6.032   3.737 -0.4853 -0.4750  0.3468
16360SOL     OW54916   4.502   4.908   8.817 -0.0231 -0.0777  0.0863
16360SOL    HW154917   4.460   4.971   8.759 -1.0546 -0.7899  0.0424
16360SOL    HW254918   4.568   4.866   8.762  2.1939  2.3754  0.6525
16361SOL     OW54919   8.539   1.546   5.096  0.4110 -0.1059  0.5142
16361SOL    HW154920   8.504   1.458   5.114  0.7055 -0.3954 -0.2877
16361SOL    HW254921   8.633   1.532   5.085  0.2677  0.0617 -1.1333
16362SOL     OW54922   2.948   2.095   2.649 -0.4760 -0.6723  0.2015
16362SOL    HW154923   3.016   2.043   2.607  0.2934  1.2967 -1.1303
16362SOL    HW254924   2.930   2.050   2.732  0.8508 -2.4449 -0.4347
16363SOL     OW54925   2.206   4.438   5.143  0.1795  0.1819 -0.2752
16363SOL    HW154926   2.161   4.495   5.205 -0.0613 -0.4409  0.1315
16363SOL    HW254927   2.201   4.351   5.182  2.5590  0.2138  0.2455
16364SOL     OW54928   0.203   1.314   0.902  0.4931  0.3306  0.3571
16364SOL    HW154929   0.181   1.389   0.958  1.2956  1.2011 -0.4551
16364SOL    HW254930   0.297   1.321   0.889  0.1818  0.9275 -2.1373
16365SOL     OW54931   6.762   5.570   0.268  0.4086  0.0398 -0.0077
16365SOL    HW154932   6.791   5.618   0.346  1.4882 -1.2417  0.4174
16365SOL    HW254933   6.692   5.513   0.301  0.1165  0.2790 -0.2110
16366SOL     OW54934   3.966   9.622   3.181  0.4993 -0.2046 -0.3388
16366SOL    HW154935   3.916   9.541   3.181 -0.1205  0.1281  1.8009
16366SOL    HW254936   3.991   9.634   3.089 -1.3540 -1.5790 -1.0924
16367SOL     OW54937   0.408   4.729   4.160  0.2167  0.4835 -0.6826
16367SOL    HW154938   0.481   4.675   4.191 -0.2902  0.2012  0.0460
16367SOL    HW254939   0.390   4.789   4.233  0.0731  0.9174 -1.0690
16368SOL     OW54940   1.003   4.603   3.131  0.0178  0.0143 -0.4691
16368SOL    HW154941   0.938   4.565   3.072  0.8946 -1.1503 -0.7284
16368SOL    HW254942   1.084   4.556   3.111  0.9027  1.2913 -0.0248
16369SOL     OW54943   8.571   0.950   5.218 -0.4164 -0.5285  0.0638
16369SOL    HW154944   8.476   0.957   5.228 -0.1089  1.1152  2.9808
16369SOL    HW254945   8.599   0.896   5.293  0.9409 -1.4320 -1.0397
16370SOL     OW54946   7.424  11.257   1.140  0.1493 -1.0283 -0.2154
16370SOL    HW154947   7.330  11.268   1.126  0.1104  1.6518  1.4622
16370SOL    HW254948   7.463  11.277   1.054 -0.6633  3.0225  0.1522
16371SOL     OW54949  12.006   4.372   0.909 -0.7530  0.5597  0.2652
16371SOL    HW154950  12.069   4.346   0.842  0.0668 -1.5125  1.7440
16371SOL    HW254951  12.053   4.438   0.961 -0.5030  0.4184  0.2216
16372SOL     OW54952   4.281   6.481   4.960 -0.4100 -0.9821 -0.1966
16372SOL    HW154953   4.248   6.569   4.979 -0.9803 -1.4333  1.0757
16372SOL    HW254954   4.291   6.478   4.865 -1.3182  0.1265 -0.3432
16373SOL     OW54955   0.053   2.422   8.615 -0.0524  0.0380 -0.4104
16373SOL    HW154956   0.040   2.515   8.630 -1.8035 -0.0431 -1.1028
16373SOL    HW254957   0.119   2.417   8.546  1.3247  0.6768  0.8148
16374SOL     OW54958  10.503   8.702   8.098 -0.0802  0.0904 -0.5780
16374SOL    HW154959  10.500   8.724   8.191 -2.2467 -0.3416 -0.4847
16374SOL    HW254960  10.587   8.657   8.087 -0.4210 -1.2013  1.5042
16375SOL     OW54961   2.517   7.651   6.728 -0.0755  0.1268 -0.0242
16375SOL    HW154962   2.511   7.688   6.816 -1.0111  2.0948 -0.8318
16375SOL    HW254963   2.611   7.638   6.713  0.2974  2.0068  0.4433
16376SOL     OW54964   0.342   7.019   0.034  0.1354 -0.4898 -0.1260
16376SOL    HW154965   0.407   6.996   0.101  3.0275  0.9812 -2.1581
16376SOL    HW254966   0.346   7.115   0.030 -0.3782 -0.5113 -1.9271
16377SOL     OW54967   9.278   9.868   0.198 -0.4468 -0.1357 -0.4279
16377SOL    HW154968   9.283   9.807   0.124 -0.8558 -0.0876 -0.4977
16377SOL    HW254969   9.287   9.812   0.276  2.6393  0.0813 -0.5291
16378SOL     OW54970   2.939   5.672   6.478  0.0778 -0.4483  0.1758
16378SOL    HW154971   2.911   5.640   6.564  1.1375 -0.5100  0.5137
16378SOL    HW254972   2.978   5.757   6.496  1.6850 -1.1223 -0.0035
16379SOL     OW54973   9.012   3.043   4.177 -0.1348  0.2547 -1.0889
16379SOL    HW154974   9.013   3.128   4.134 -0.1709  0.8898  0.1273
16379SOL    HW254975   8.947   2.992   4.129 -1.4327  1.5075 -0.7184
16380SOL     OW54976   0.344   5.828   0.254  0.0321  0.2738  0.2267
16380SOL    HW154977   0.378   5.747   0.214  2.2056  1.5036 -0.5994
16380SOL    HW254978   0.368   5.821   0.346 -1.4913 -0.8199  0.5809
16381SOL     OW54979   7.434   0.473   8.434 -0.7908 -0.6230  0.5714
16381SOL    HW154980   7.415   0.388   8.394 -1.6168 -0.6773  1.0598
16381SOL    HW254981   7.365   0.531   8.403  0.6759  0.3558 -1.1157
16382SOL     OW54982   8.832  10.957   7.777 -0.2082  0.0535  0.4360
16382SOL    HW154983   8.821  10.918   7.863  0.9282  0.1297  0.6327
16382SOL    HW254984   8.889  10.896   7.730 -1.5957 -0.4790 -0.6140
16383SOL     OW54985   1.313   4.235   4.344 -0.5593  0.4038  0.4048
16383SOL    HW154986   1.376   4.274   4.404 -1.1679 -0.7287  1.8565
16383SOL    HW254987   1.262   4.175   4.398 -0.6668 -1.2442 -1.3932
16384SOL     OW54988   7.307   7.903  10.344  0.9117  0.5664  0.2549
16384SOL    HW154989   7.374   7.841  10.313  0.5022 -0.1286  0.7419
16384SOL    HW254990   7.293   7.962  10.270  1.0466 -0.1462 -0.3463
16385SOL     OW54991   5.811   8.699   8.371 -0.6957  0.3560  0.3583
16385SOL    HW154992   5.728   8.678   8.330 -0.4022  1.1716 -0.6813
16385SOL    HW254993   5.790   8.767   8.435 -0.5247  2.2534 -1.5041
16386SOL     OW54994   0.981  11.098   7.273  0.1483 -0.2754  0.1394
16386SOL    HW154995   1.029  11.021   7.303  0.2985  0.1710  1.0828
16386SOL    HW254996   0.890  11.070   7.267  0.4100 -0.9482 -1.0321
16387SOL     OW54997   8.836   1.950   2.066  0.2010 -0.1046 -0.2984
16387SOL    HW154998   8.909   1.909   2.021  0.8862  0.3560  0.3682
16387SOL    HW254999   8.845   2.044   2.046  0.4856  0.1009  0.7244
16388SOL     OW55000   0.373  11.867   0.410 -0.2247 -0.2551  0.1106
16388SOL    HW155001   0.385  11.839   0.320  3.5609  1.5666 -0.1399
16388SOL    HW255002   0.352  11.961   0.404  2.9209  0.6320  0.9919
16389SOL     OW55003   0.508  11.793  11.812  0.1086 -0.3902  0.2157
16389SOL    HW155004   0.481  11.782  11.721  1.2458 -0.9785 -0.0619
16389SOL    HW255005   0.433  11.764  11.863 -0.6085  0.1155 -0.5257
16390SOL     OW55006   0.027  10.969   3.608 -0.0333 -0.7950  0.1141
16390SOL    HW155007   0.104  11.009   3.569  1.5801 -0.8869  2.9237
16390SOL    HW255008  -0.039  10.970   3.539  0.3426  5.0625 -0.6471
16391SOL     OW55009   6.553   4.521   5.849  0.5186  0.0466  0.2897
16391SOL    HW155010   6.469   4.536   5.806  1.3701  1.5711 -0.9442
16391SOL    HW255011   6.534   4.457   5.917 -1.3763 -0.6113 -0.7880
16392SOL     OW55012   3.749   9.785   3.937 -0.0099 -0.2421 -0.1539
16392SOL    HW155013   3.782   9.715   3.995  1.8774  0.0988 -0.7322
16392SOL    HW255014   3.826   9.841   3.923 -1.1796  1.2710 -0.6941
16393SOL     OW55015   2.339   9.773   8.891 -0.2558 -0.1282 -0.1620
16393SOL    HW155016   2.329   9.808   8.979 -1.9842  0.6402 -0.6178
16393SOL    HW255017   2.385   9.841   8.842  0.6956 -0.5516  0.1117
16394SOL     OW55018   1.405   2.395  10.830  0.1549  0.2268 -0.3239
16394SOL    HW155019   1.484   2.366  10.784 -0.8498 -1.0026 -1.3353
16394SOL    HW255020   1.399   2.336  10.906  0.9747  1.2740  0.5993
16395SOL     OW55021   9.063  11.614   2.384 -0.5077 -0.8551  0.0389
16395SOL    HW155022   8.989  11.630   2.325 -2.7620 -0.2670  2.8125
16395SOL    HW255023   9.092  11.701   2.410  0.8184 -1.0982 -0.5410
16396SOL     OW55024  11.654   9.289   0.460  0.2059 -0.4244 -0.2666
16396SOL    HW155025  11.646   9.195   0.444  0.8628 -0.2809 -1.5698
16396SOL    HW255026  11.668   9.327   0.374 -0.8909  0.9824  0.1330
16397SOL     OW55027   3.954   0.140   5.407 -0.2040  0.5084  0.5062
16397SOL    HW155028   4.001   0.057   5.410  0.9452  1.1231  0.0663
16397SOL    HW255029   3.885   0.125   5.342  1.1801  0.4602 -1.0258
16398SOL     OW55030   5.112  11.224   3.997  0.0381 -0.0007  0.4187
16398SOL    HW155031   5.167  11.244   4.072 -0.3947 -0.3375  0.8325
16398SOL    HW255032   5.164  11.162   3.945  1.0729  1.5549 -0.4947
16399SOL     OW55033   2.958   2.374   9.863  0.2751 -0.1961  0.0819
16399SOL    HW155034   2.889   2.353   9.801 -0.1332 -0.5871  0.6523
16399SOL    HW255035   3.018   2.430   9.815 -0.3733  0.0436 -0.4646
16400SOL     OW55036   3.591   7.432   0.953 -0.2617  0.3839 -0.1491
16400SOL    HW155037   3.530   7.358   0.957  0.3306 -0.2076 -1.4415
16400SOL    HW255038   3.630   7.426   0.866  2.7380 -0.1465  1.0926
16401SOL     OW55039  11.016   6.802   0.440 -0.0578 -0.0429  0.3297
16401SOL    HW155040  10.936   6.800   0.388 -0.8544  1.5262  1.4315
16401SOL    HW255041  11.005   6.732   0.505 -0.4030 -0.0272  0.2870
16402SOL     OW55042   2.655   5.397  12.029  0.9275 -0.6300  0.7450
16402SOL    HW155043   2.605   5.332  12.079 -2.8773  2.7015  1.7929
16402SOL    HW255044   2.719   5.431  12.091  1.4752 -1.7866  0.8462
16403SOL     OW55045   8.966   6.723   4.323 -0.5298  0.2317 -0.4489
16403SOL    HW155046   9.049   6.714   4.276 -0.7087 -0.6300 -0.6114
16403SOL    HW255047   8.932   6.808   4.295  0.9275  1.2318  0.6390
16404SOL     OW55048   5.893   0.596   0.120  0.0894 -0.6063 -0.6641
16404SOL    HW155049   5.866   0.562   0.034  0.3276 -1.1147 -0.5412
16404SOL    HW255050   5.942   0.676   0.100  1.2105 -1.3712 -1.0949
16405SOL     OW55051   4.248   8.626   7.533  0.3722  0.6911  0.6658
16405SOL    HW155052   4.249   8.712   7.489  1.6102  0.6945  0.6546
16405SOL    HW255053   4.291   8.642   7.617  0.0338  0.2056  0.9339
16406SOL     OW55054   7.171   2.430   8.716 -0.0763  0.8076 -0.2514
16406SOL    HW155055   7.205   2.375   8.646 -4.0344 -1.2436 -0.8309
16406SOL    HW255056   7.185   2.379   8.796  0.1734  0.9941 -0.1731
16407SOL     OW55057   6.906  11.119   6.180  0.0974  0.0742  0.3666
16407SOL    HW155058   6.906  11.143   6.273 -2.2227 -0.9067  0.7121
16407SOL    HW255059   6.882  11.200   6.134  2.2266  0.8172  0.4648
16408SOL     OW55060   5.689   6.764   5.184  0.4169  0.3455  0.4763
16408SOL    HW155061   5.765   6.809   5.220  0.3771  0.7052  0.1151
16408SOL    HW255062   5.708   6.755   5.091 -0.0763  0.6353  0.3424
16409SOL     OW55063  12.302   5.649   1.136 -0.0807  0.6083  0.0315
16409SOL    HW155064  12.346   5.565   1.144 -0.9511 -0.0542 -1.6322
16409SOL    HW255065  12.319   5.677   1.046 -2.6916  0.4744 -0.5932
16410SOL     OW55066   5.968   1.248   9.245  0.2564 -0.2716 -0.0064
16410SOL    HW155067   5.906   1.187   9.284  1.1720 -0.5762  1.0164
16410SOL    HW255068   5.913   1.316   9.205 -0.7377 -0.9109  0.2451
16411SOL     OW55069   8.966   8.362   7.351  0.2441 -0.8029 -0.6981
16411SOL    HW155070   8.964   8.368   7.447  1.2824  0.2560 -0.7076
16411SOL    HW255071   9.005   8.276   7.333 -0.5994 -1.3007 -0.1934
16412SOL     OW55072   6.621   6.261   9.617  0.3129 -0.0069  0.4058
16412SOL    HW155073   6.638   6.176   9.577  0.0318 -0.2248  0.7427
16412SOL    HW255074   6.558   6.243   9.686 -1.0815  0.7404 -0.6333
16413SOL     OW55075   4.853   0.505   2.179 -0.3293 -0.1058 -0.0084
16413SOL    HW155076   4.758   0.495   2.184 -0.4270  0.6789 -0.2569
16413SOL    HW255077   4.873   0.578   2.237  0.0901 -0.1087 -0.1463
16414SOL     OW55078  11.241   3.734   9.445  0.2380 -0.1894 -0.0937
16414SOL    HW155079  11.334   3.757   9.440  0.1089  0.1848 -0.8163
16414SOL    HW255080  11.241   3.647   9.485  1.1204 -1.5532 -2.7887
16415SOL     OW55081   6.655   5.643   9.982  0.5085  0.4285  0.3501
16415SOL    HW155082   6.601   5.612  10.054  0.1326 -1.3967 -0.6567
16415SOL    HW255083   6.657   5.570   9.920  2.5138  1.1806 -0.5516
16416SOL     OW55084   8.798  11.451   0.072 -0.4257  0.6768 -0.0987
16416SOL    HW155085   8.766  11.531   0.031 -1.0374  0.6305  0.2793
16416SOL    HW255086   8.856  11.412   0.006  1.8904  2.6662  0.6022
16417SOL     OW55087   3.542   7.681  10.046 -0.4878  0.2655 -0.1077
16417SOL    HW155088   3.537   7.775  10.032 -0.9608  0.4170  0.9477
16417SOL    HW255089   3.451   7.655  10.063 -0.3607 -0.3799 -0.3905
16418SOL     OW55090   4.826   1.700   5.296  0.0793  0.0671 -0.0428
16418SOL    HW155091   4.856   1.701   5.205  1.8724 -3.7399  0.3214
16418SOL    HW255092   4.751   1.640   5.296  0.5688 -0.5780  1.0469
16419SOL     OW55093   9.176   7.126   8.994 -0.2860 -0.4363  0.0300
16419SOL    HW155094   9.221   7.210   9.003 -3.9318  1.6126  1.5936
16419SOL    HW255095   9.156   7.118   8.901  0.9853 -0.0965 -0.2806
16420SOL     OW55096   8.014   2.772  11.281  0.3379 -0.1086  0.3311
16420SOL    HW155097   7.958   2.816  11.217  0.5328 -1.7531 -1.0139
16420SOL    HW255098   8.098   2.818  11.275  0.5013 -0.5526 -0.9561
16421SOL     OW55099   2.899   9.220  12.092 -0.3436  0.3552 -0.3184
16421SOL    HW155100   2.846   9.277  12.147 -0.0272 -0.2085  0.5956
16421SOL    HW255101   2.888   9.132  12.130  0.5435  0.0920 -0.6351
16422SOL     OW55102   2.611   1.249   8.259  0.1188  0.1924  0.3083
16422SOL    HW155103   2.559   1.273   8.182  1.9571  0.3666 -0.9551
16422SOL    HW255104   2.656   1.169   8.232  1.0675  0.4552  1.0701
16423SOL     OW55105   8.493   0.106  11.063 -0.1547 -0.7436 -0.0596
16423SOL    HW155106   8.584   0.133  11.051  0.9791 -2.8057  2.6961
16423SOL    HW255107   8.452   0.179  11.108  1.9712 -1.8782  4.3308
16424SOL     OW55108   0.175   5.848   2.410  0.2090  0.0843  0.3041
16424SOL    HW155109   0.199   5.761   2.379  1.2227  0.0035  1.2305
16424SOL    HW255110   0.259   5.888   2.435 -0.4581  0.3689  2.2546
16425SOL     OW55111  10.174   4.338   6.205 -0.2272 -0.6426 -0.1206
16425SOL    HW155112  10.234   4.269   6.177 -0.3688 -1.3689  1.2972
16425SOL    HW255113  10.221   4.383   6.275 -0.2131  0.6014 -0.9044
16426SOL     OW55114   4.680  11.297   0.920 -1.1966  0.3864 -1.0396
16426SOL    HW155115   4.672  11.366   0.854 -0.3399 -1.1431 -2.8488
16426SOL    HW255116   4.590  11.267   0.935 -1.5856  1.9063 -0.1585
16427SOL     OW55117   3.279   5.456   8.239 -0.2696 -0.3668  0.1546
16427SOL    HW155118   3.210   5.509   8.200  1.0498  1.2097 -0.1034
16427SOL    HW255119   3.285   5.379   8.183  0.9000  1.3620 -2.2506
16428SOL     OW55120   1.460   0.627  11.157  0.1157  0.1504 -0.3595
16428SOL    HW155121   1.502   0.706  11.191 -0.2490  0.6652 -1.0805
16428SOL    HW255122   1.521   0.594  11.091  0.0762  0.0599 -0.3515
16429SOL     OW55123   2.098   6.867   9.256 -0.1953  0.3885 -0.5005
16429SOL    HW155124   2.126   6.830   9.172 -0.1360 -0.1124 -0.2624
16429SOL    HW255125   2.115   6.798   9.320  0.0369  0.8758 -0.0262
16430SOL     OW55126   3.011   8.961   9.333  0.0830  0.2368  0.2884
16430SOL    HW155127   2.959   9.014   9.272 -0.0805 -0.9047 -0.5934
16430SOL    HW255128   3.083   9.019   9.359 -0.1476  0.9349 -0.5702
16431SOL     OW55129  10.299   3.794  10.379 -0.1930  0.0924 -0.0871
16431SOL    HW155130  10.260   3.719  10.425  0.6171 -1.1007 -1.2748
16431SOL    HW255131  10.393   3.783  10.391  0.0112  0.0691 -1.5071
16432SOL     OW55132  11.193   4.367   8.375 -0.0313  0.1565 -0.0525
16432SOL    HW155133  11.207   4.286   8.423  1.5973  0.7963  0.6130
16432SOL    HW255134  11.270   4.376   8.319 -0.8278  0.5784 -1.1302
16433SOL     OW55135   9.371   7.223   0.906 -0.3481  0.0379 -0.3726
16433SOL    HW155136   9.365   7.249   0.814  0.1461 -1.0544 -0.7352
16433SOL    HW255137   9.309   7.280   0.951 -0.1079  1.0466 -1.2793
16434SOL     OW55138  11.303   9.151   2.963  0.3867 -0.3350  0.0101
16434SOL    HW155139  11.282   9.125   2.873 -0.9374 -0.2304  0.2727
16434SOL    HW255140  11.396   9.176   2.959  0.6329 -1.2973 -1.0985
16435SOL     OW55141   6.485   1.240   4.214  0.2324 -0.6746  0.3869
16435SOL    HW155142   6.442   1.221   4.297 -1.3598 -1.3179 -0.5366
16435SOL    HW255143   6.413   1.252   4.152  1.3652  0.8740 -0.6865
16436SOL     OW55144  11.874  10.142   1.550  0.0443 -0.1247 -0.5337
16436SOL    HW155145  11.815  10.086   1.600  0.1893  0.3448  0.1726
16436SOL    HW255146  11.960  10.102   1.560  0.3504  0.8507  0.9422
16437SOL     OW55147   3.417   8.936   1.045  0.1037 -0.0454  0.1653
16437SOL    HW155148   3.340   8.890   1.015 -0.4904  0.1543  1.3200
16437SOL    HW255149   3.431   9.006   0.981  0.0552 -0.8245 -0.7011
16438SOL     OW55150   9.344   9.552   0.650  0.5623 -0.3156  0.3621
16438SOL    HW155151   9.258   9.568   0.688  0.8615 -0.5053  1.1606
16438SOL    HW255152   9.383   9.485   0.707  0.9549 -0.7655 -0.4207
16439SOL     OW55153   8.460  11.158   3.391 -0.0981 -0.2272 -0.3748
16439SOL    HW155154   8.488  11.249   3.401  2.3338 -0.3334 -4.0924
16439SOL    HW255155   8.373  11.165   3.350 -0.7248  0.3119  0.9724
16440SOL     OW55156   8.953   3.318   4.878 -0.2198 -0.3953  0.2229
16440SOL    HW155157   8.910   3.329   4.793 -1.4590 -1.2603  0.7150
16440SOL    HW255158   8.960   3.407   4.913 -2.0723 -0.2488  0.3221
16441SOL     OW55159  11.228   5.591   1.072  0.0949 -0.3111  0.6198
16441SOL    HW155160  11.277   5.546   1.142  0.4864 -1.6496 -0.4776
16441SOL    HW255161  11.144   5.546   1.068  0.7052 -1.3846 -0.8790
16442SOL     OW55162   2.587   7.543   7.709  0.1437  0.5467  0.3495
16442SOL    HW155163   2.578   7.606   7.780  1.7257  1.1195  0.0838
16442SOL    HW255164   2.670   7.499   7.726 -0.3107 -0.5544 -0.1933
16443SOL     OW55165   7.397   5.230   4.742  0.4250  0.3940 -0.0110
16443SOL    HW155166   7.366   5.259   4.828 -3.0876 -1.3927 -0.5042
16443SOL    HW255167   7.465   5.166   4.761  0.9232  1.2927  1.3584
16444SOL     OW55168   4.258   6.861   3.064 -0.0366  0.5613  0.8141
16444SOL    HW155169   4.264   6.954   3.085  0.3941  0.2947  1.9162
16444SOL    HW255170   4.165   6.840   3.077 -0.3693  1.0819 -0.5723
16445SOL     OW55171   2.898   5.538  11.771  0.1493  0.0453  0.4352
16445SOL    HW155172   2.988   5.521  11.799  1.4392  2.4672 -1.7842
16445SOL    HW255173   2.869   5.612  11.825 -1.1856 -1.6365  2.1808
16446SOL     OW55174  11.983   8.086   2.779  0.3731 -0.0885  0.1504
16446SOL    HW155175  11.985   8.160   2.839  0.8274  1.3716 -1.5744
16446SOL    HW255176  12.044   8.023   2.817  2.5724  1.8104  0.0553
16447SOL     OW55177   2.823   6.892  11.699  0.2096 -0.4991 -0.2052
16447SOL    HW155178   2.837   6.969  11.755 -0.6987  0.9227 -1.8460
16447SOL    HW255179   2.788   6.826  11.759  0.8818  0.3900  1.2385
16448SOL     OW55180   1.237   3.228   4.199 -0.5294  0.0748  0.3266
16448SOL    HW155181   1.172   3.271   4.143  0.1629  1.0000  0.2132
16448SOL    HW255182   1.218   3.135   4.190  0.1546  0.1103 -2.2266
16449SOL     OW55183   0.041   0.509   3.776  0.6722 -0.4064 -0.7674
16449SOL    HW155184  -0.041   0.463   3.793  0.2310  0.7878  0.4686
16449SOL    HW255185   0.033   0.538   3.685 -0.1919 -0.4690 -0.7203
16450SOL     OW55186   4.841   6.066   6.391  0.1067 -0.1164  0.5741
16450SOL    HW155187   4.912   6.015   6.353  0.4685  1.4651 -0.9911
16450SOL    HW255188   4.865   6.157   6.375 -2.7888  0.4763 -1.1402
16451SOL     OW55189  12.121  11.177  10.399 -0.3801 -0.2503 -0.1748
16451SOL    HW155190  12.043  11.130  10.425  1.1945 -1.7331  2.2515
16451SOL    HW255191  12.089  11.262  10.368 -2.9712 -1.2170 -0.3663
16452SOL     OW55192   6.382   2.167   4.853  0.1403  0.1231 -0.5246
16452SOL    HW155193   6.382   2.200   4.943  1.7228  2.5036 -1.3113
16452SOL    HW255194   6.289   2.149   4.835 -0.1276 -1.2368  1.7984
16453SOL     OW55195   8.067   9.143   6.507  0.2379  0.1538  0.3067
16453SOL    HW155196   8.038   9.056   6.478  1.3619 -0.3128  0.5059
16453SOL    HW255197   8.019   9.158   6.589  0.3934 -0.5142  0.5335
16454SOL     OW55198  10.610   2.201  10.117  0.1784 -0.0798 -0.3548
16454SOL    HW155199  10.693   2.174  10.157  0.3864 -2.2340 -2.0419
16454SOL    HW255200  10.564   2.119  10.099 -2.7344  1.0592  1.1916
16455SOL     OW55201  12.265   1.321   0.603 -0.4335 -0.3911  0.5063
16455SOL    HW155202  12.218   1.312   0.521  0.4939 -0.2672 -0.0633
16455SOL    HW255203  12.262   1.415   0.622 -2.9838 -0.7002  2.0829
16456SOL     OW55204   0.829  10.883   6.720  0.2979 -0.3716 -1.0300
16456SOL    HW155205   0.820  10.831   6.641  1.8958 -2.5282  0.0885
16456SOL    HW255206   0.773  10.840   6.784 -0.2786  0.8034 -0.7088
16457SOL     OW55207   7.960   1.939  11.492 -0.6983  0.0404  0.6270
16457SOL    HW155208   7.995   1.948  11.403 -0.8646 -0.5320  0.4988
16457SOL    HW255209   7.886   1.879  11.482 -1.1449  0.5156  1.0438
16458SOL     OW55210   6.482   5.107   7.609 -0.1204 -0.1358 -0.2510
16458SOL    HW155211   6.568   5.139   7.634  0.5402 -2.6006  0.9598
16458SOL    HW255212   6.423   5.180   7.626  1.5456  1.1949  0.0847
16459SOL     OW55213   3.974   4.564   8.684  0.1970  0.0091  0.1393
16459SOL    HW155214   3.934   4.650   8.666 -0.2796 -0.5925 -1.9490
16459SOL    HW255215   4.044   4.583   8.746 -0.4729  1.7739  0.4245
16460SOL     OW55216   2.718   1.747  12.100 -0.1701 -0.0404  0.1478
16460SOL    HW155217   2.794   1.804  12.085  1.6009 -2.3573 -0.3209
16460SOL    HW255218   2.713   1.739  12.195  0.0729  0.2716  0.1901
16461SOL     OW55219   0.428   5.092   4.943  0.0157 -0.0317 -0.2155
16461SOL    HW155220   0.439   5.005   4.905  1.1479  0.4674 -1.0904
16461SOL    HW255221   0.378   5.141   4.877  1.7200  0.7450 -1.0055
16462SOL     OW55222   0.012   5.461  11.064 -0.4989  0.6611  0.3808
16462SOL    HW155223  -0.078   5.466  11.031 -0.3464 -0.4476 -0.2752
16462SOL    HW255224   0.054   5.398  11.005  1.0080  1.9805 -0.0041
16463SOL     OW55225   7.157  11.795  12.072 -0.2733 -0.0759  0.4823
16463SOL    HW155226   7.170  11.706  12.037 -1.6232  0.2855 -1.0555
16463SOL    HW255227   7.221  11.802  12.143 -1.1150 -2.8252  1.6847
16464SOL     OW55228   6.025   9.586   8.914 -0.3826 -0.3110 -0.4793
16464SOL    HW155229   6.116   9.602   8.890 -0.6371 -0.2697 -1.4254
16464SOL    HW255230   6.002   9.659   8.972  0.2782 -0.5072  0.0409
16465SOL     OW55231   7.976  11.315   3.060  0.2032 -0.3186 -1.0051
16465SOL    HW155232   7.913  11.341   3.127  0.5344  0.3594 -0.9465
16465SOL    HW255233   7.949  11.227   3.034 -0.9855  0.0964 -1.2301
16466SOL     OW55234   2.011  10.220   8.288  0.0857 -0.4151  0.4613
16466SOL    HW155235   1.993  10.133   8.323 -0.4971 -0.2088  0.6761
16466SOL    HW255236   1.969  10.280   8.348 -2.2594 -0.1000 -1.3494
16467SOL     OW55237   9.816   8.507   7.767 -0.0328  0.1483 -0.4960
16467SOL    HW155238   9.750   8.571   7.741 -2.5125 -2.8561 -2.3826
16467SOL    HW255239   9.768   8.442   7.818  1.6825 -1.5912 -0.9526
16468SOL     OW55240   5.246   2.876   2.714  0.0199 -0.1700  0.3835
16468SOL    HW155241   5.334   2.870   2.750 -0.1578  0.0294  0.8550
16468SOL    HW255242   5.246   2.814   2.640  0.8132  0.4721 -0.1713
16469SOL     OW55243   3.937   9.290   0.476  0.0975 -0.2576  0.3024
16469SOL    HW155244   3.949   9.337   0.559 -0.2553 -0.9719  0.7689
16469SOL    HW255245   3.929   9.198   0.502  4.1428 -1.1329 -0.7767
16470SOL     OW55246   3.879  10.060   0.086  0.0812 -0.0606 -0.9189
16470SOL    HW155247   3.876   9.964   0.083  5.1648 -0.4951 -0.8672
16470SOL    HW255248   3.875  10.087  -0.006  0.1733 -0.5022 -1.0543
16471SOL     OW55249   4.331   4.142   2.568  0.6095 -0.4864  0.1887
16471SOL    HW155250   4.402   4.147   2.504 -0.7067  2.2756 -1.2070
16471SOL    HW255251   4.256   4.109   2.517 -0.8133  2.9967 -0.2110
16472SOL     OW55252   9.688  12.235   1.292  0.6349  0.2888  0.1451
16472SOL    HW155253   9.608  12.273   1.255  1.4330  2.3689  0.3862
16472SOL    HW255254   9.746  12.224   1.216  0.7669  0.5082  0.2152
16473SOL     OW55255   2.582   5.256   7.409 -0.5124  0.2688  0.3641
16473SOL    HW155256   2.638   5.275   7.484 -0.2897  0.3455  0.1794
16473SOL    HW255257   2.563   5.163   7.415  0.5439  0.0132 -0.1949
16474SOL     OW55258   5.033   2.793  12.204  0.0853  0.2859  0.2299
16474SOL    HW155259   5.040   2.778  12.299  0.4458  1.5148  0.4071
16474SOL    HW255260   5.100   2.858  12.185 -0.5348  0.6638 -0.7332
16475SOL     OW55261   0.840  12.219  11.603  0.2579  0.4491 -0.0279
16475SOL    HW155262   0.905  12.148  11.607  0.8522  0.8576 -1.8583
16475SOL    HW255263   0.849  12.256  11.515 -1.1178  1.8033  0.3559
16476SOL     OW55264  10.162   4.464   4.319 -0.1009  0.1208 -0.1658
16476SOL    HW155265  10.245   4.419   4.300 -1.5108 -1.9936 -1.7697
16476SOL    HW255266  10.128   4.419   4.396 -0.6238 -0.3172 -0.6437
16477SOL     OW55267   1.500   3.730   2.057 -0.4558  0.2121 -0.0571
16477SOL    HW155268   1.431   3.708   2.119  0.2267 -0.3875  0.5091
16477SOL    HW255269   1.523   3.821   2.078 -0.7099  0.2401  0.0964
16478SOL     OW55270   2.847  11.208   0.647  0.1188  0.0995  0.5293
16478SOL    HW155271   2.909  11.258   0.699 -1.7145  1.9404  1.0484
16478SOL    HW255272   2.823  11.267   0.575  0.5234 -1.3863 -0.9030
16479SOL     OW55273   3.590   9.763   1.238 -0.5596  0.0908 -0.0037
16479SOL    HW155274   3.615   9.845   1.281  1.5812 -0.0519 -0.8804
16479SOL    HW255275   3.525   9.725   1.297 -1.4016  2.2546  0.5707
16480SOL     OW55276  11.304  12.045   7.501 -0.3136 -0.2469 -0.0657
16480SOL    HW155277  11.333  11.956   7.480 -0.3564 -0.9844  2.5966
16480SOL    HW255278  11.362  12.073   7.572 -1.0958  1.3837 -0.0165
16481SOL     OW55279   3.204   6.944   1.420 -0.3155  0.7098  0.3418
16481SOL    HW155280   3.220   6.917   1.510 -0.1029 -2.0856 -0.4470
16481SOL    HW255281   3.109   6.952   1.414 -0.6237 -2.1011  0.1456
16482SOL     OW55282   9.776   6.173  10.921  0.7714  0.0128  0.2720
16482SOL    HW155283   9.831   6.098  10.895 -0.0927 -0.3045 -0.7402
16482SOL    HW255284   9.719   6.138  10.989 -0.1692 -0.5063 -0.7449
16483SOL     OW55285   2.497   4.122   7.053  0.3546  0.2730 -0.1859
16483SOL    HW155286   2.505   4.027   7.060  1.6520  0.4022  0.4461
16483SOL    HW255287   2.577   4.149   7.006 -0.4479  0.9768 -1.2016
16484SOL     OW55288   2.310   7.095  10.885  0.7702  0.0056 -0.2598
16484SOL    HW155289   2.373   7.022  10.881 -0.9767 -1.6521  0.7811
16484SOL    HW255290   2.332   7.141  10.966 -1.8731 -3.1831  2.5558
16485SOL     OW55291   5.702  10.556   4.253 -0.3691 -0.3467  0.4895
16485SOL    HW155292   5.776  10.576   4.311 -0.9645  0.0443  1.1272
16485SOL    HW255293   5.680  10.639   4.212 -0.7293 -0.3737  0.6285
16486SOL     OW55294   4.624   7.067   2.460  0.3927  0.9147  0.4454
16486SOL    HW155295   4.534   7.092   2.480  0.1607  1.8850 -1.6046
16486SOL    HW255296   4.668   7.150   2.441  1.1352  0.2836 -0.7119
16487SOL     OW55297  12.140   4.330   3.838 -0.1528 -0.2458 -0.0689
16487SOL    HW155298  12.050   4.363   3.844 -0.8331 -2.1627  1.3802
16487SOL    HW255299  12.148   4.298   3.748 -1.1917 -0.7334 -0.0003
16488SOL     OW55300   5.068   1.371   6.119 -0.0745 -0.5636 -0.2910
16488SOL    HW155301   5.083   1.296   6.176 -1.2517  1.0453  2.3229
16488SOL    HW255302   5.149   1.422   6.124  0.0586 -0.7337 -0.6273
16489SOL     OW55303  10.246  12.257   3.764  0.1128  0.0112  0.3308
16489SOL    HW155304  10.244  12.337   3.712 -0.2469  0.2874  0.7621
16489SOL    HW255305  10.197  12.193   3.712  2.3411 -0.6217 -1.1010
16490SOL     OW55306   7.540  11.952   8.441  0.0399  0.3487  0.4263
16490SOL    HW155307   7.522  12.039   8.477 -1.1849  0.0115  0.6616
16490SOL    HW255308   7.623  11.963   8.393  0.0271  1.5802  0.6505
16491SOL     OW55309  11.337   3.745   4.240  0.2128  0.0659 -0.1010
16491SOL    HW155310  11.377   3.825   4.275 -0.2383  1.2300 -2.0799
16491SOL    HW255311  11.260   3.776   4.193 -0.4543 -1.6528 -0.2134
16492SOL     OW55312  11.134   9.513  11.980 -0.2825 -0.3017  0.3628
16492SOL    HW155313  11.202   9.578  11.999 -1.1452  0.2073  1.9246
16492SOL    HW255314  11.119   9.520  11.886  0.3143  1.1005  0.3468
16493SOL     OW55315   1.717   0.030  10.673 -0.1512  0.4107  0.0865
16493SOL    HW155316   1.737  -0.001  10.761  0.0969  1.6985  0.5028
16493SOL    HW255317   1.779  -0.015  10.616  0.1068  0.0543  0.6468
16494SOL     OW55318   2.805   1.235   3.436 -0.2880  0.2755  0.5375
16494SOL    HW155319   2.839   1.155   3.475  2.1624  1.2586  0.6108
16494SOL    HW255320   2.764   1.206   3.355  0.4697 -1.0864  0.5980
16495SOL     OW55321   7.835   2.539   5.647  0.0118 -0.1596 -0.3978
16495SOL    HW155322   7.774   2.593   5.697 -0.1728  0.6667 -1.5039
16495SOL    HW255323   7.879   2.599   5.588  2.3739 -0.6189  0.7626
16496SOL     OW55324   0.023   4.632  10.517  0.0787  0.0934  0.4880
16496SOL    HW155325   0.087   4.594  10.457 -1.5594 -1.8038 -0.1566
16496SOL    HW255326   0.022   4.572  10.592 -0.8124  0.1821  0.5614
16497SOL     OW55327   9.788   4.100  12.034 -0.9215  0.0286 -0.1895
16497SOL    HW155328   9.818   4.021  12.079 -2.0415 -0.6878 -0.6457
16497SOL    HW255329   9.723   4.139  12.093 -0.5971  0.4391 -0.1022
16498SOL     OW55330   0.493   4.403  10.771 -0.0401  0.3491  0.2697
16498SOL    HW155331   0.421   4.427  10.829 -1.2865  0.4304 -1.2549
16498SOL    HW255332   0.526   4.487  10.738 -1.0393  0.2456 -1.0902
16499SOL     OW55333  12.322   3.787  11.420 -0.0765  0.1206 -0.2303
16499SOL    HW155334  12.240   3.744  11.442 -0.2672  0.1009 -0.9549
16499SOL    HW255335  12.345   3.753  11.334 -1.1062  2.6427 -1.6283
16500SOL     OW55336   0.220   7.548  10.777 -0.4248  0.0776  0.1380
16500SOL    HW155337   0.136   7.524  10.815 -0.1004  0.4230  1.1210
16500SOL    HW255338   0.198   7.603  10.702 -1.0859 -0.5679 -0.1494
16501SOL     OW55339   1.708  10.837   8.555 -0.5228  0.2233 -0.1322
16501SOL    HW155340   1.699  10.919   8.507 -1.0931  0.5889  0.5653
16501SOL    HW255341   1.683  10.859   8.645  0.8491 -0.3574  0.4204
16502SOL     OW55342   1.762  11.852   2.667 -0.1365 -0.0303  0.2233
16502SOL    HW155343   1.679  11.892   2.693 -0.0829  0.5765 -0.4769
16502SOL    HW255344   1.764  11.863   2.572  1.9843  2.4510  0.4600
16503SOL     OW55345   7.818   1.110   1.061 -0.3443 -0.3320 -0.8834
16503SOL    HW155346   7.813   1.194   1.015 -0.2362 -0.3959 -1.0151
16503SOL    HW255347   7.732   1.071   1.049 -0.8970  0.4090  0.4496
16504SOL     OW55348  11.771   7.861   4.405 -0.6204  0.3045 -0.3383
16504SOL    HW155349  11.694   7.862   4.348  0.1960 -0.4606 -1.5194
16504SOL    HW255350  11.741   7.821   4.486 -1.9574  1.9491  0.0294
16505SOL     OW55351   0.209   9.509   3.114 -1.0460  0.4672  0.1116
16505SOL    HW155352   0.167   9.425   3.133 -1.9091  1.0758  0.9782
16505SOL    HW255353   0.245   9.537   3.199 -1.3650  1.2995 -0.0204
16506SOL     OW55354   1.085   8.453   0.912  0.1823  0.1009 -0.1011
16506SOL    HW155355   1.126   8.510   0.847 -0.8877 -0.4923 -1.3679
16506SOL    HW255356   1.032   8.511   0.966 -3.1262  0.1929 -3.0812
16507SOL     OW55357   2.215   8.213   5.484 -0.3255  0.2205 -0.3999
16507SOL    HW155358   2.208   8.123   5.454  0.1277  0.4304 -1.2040
16507SOL    HW255359   2.306   8.222   5.511  0.0342  0.8081 -1.6978
16508SOL     OW55360   0.515   0.086   4.046  0.1250 -0.2848  0.0515
16508SOL    HW155361   0.594   0.138   4.062  0.6171 -1.0310  0.0871
16508SOL    HW255362   0.541   0.023   3.979 -0.8211  0.2961 -0.9012
16509SOL     OW55363   7.630   6.188   1.586 -0.3836 -0.1840 -0.3792
16509SOL    HW155364   7.603   6.262   1.640 -1.4053  0.0883 -1.2247
16509SOL    HW255365   7.627   6.221   1.496  0.8213 -0.7604 -0.6654
16510SOL     OW55366   7.315   1.024   2.823  0.0147  0.5782  0.1278
16510SOL    HW155367   7.328   0.956   2.889  2.5517  0.3585 -0.4888
16510SOL    HW255368   7.361   1.100   2.857  1.9088  0.2712 -1.5718
16511SOL     OW55369  11.461   1.140   7.034 -0.4165  0.3535 -0.3251
16511SOL    HW155370  11.546   1.178   7.056 -0.9253  0.6864  1.2308
16511SOL    HW255371  11.427   1.197   6.965  0.5309  0.3203 -0.8424
16512SOL     OW55372   4.458   9.852   3.960 -0.3796  0.0274 -0.1180
16512SOL    HW155373   4.424   9.925   4.011 -0.7360  0.4947 -0.9976
16512SOL    HW255374   4.503   9.893   3.886  0.5360 -0.6268  0.0614
16513SOL     OW55375   9.158   3.271   6.640 -0.2437  0.3437  0.0854
16513SOL    HW155376   9.221   3.209   6.678  0.5832  0.5623 -0.8708
16513SOL    HW255377   9.080   3.219   6.622  0.4946 -0.4906 -0.8450
16514SOL     OW55378   6.763   7.342   7.121 -0.1638  0.8415  0.4482
16514SOL    HW155379   6.707   7.399   7.068 -1.0575  0.6632  1.1942
16514SOL    HW255380   6.822   7.402   7.166  2.4061  0.9260 -2.6273
16515SOL     OW55381  11.009   9.597   5.095 -0.4922 -0.2960  0.2235
16515SOL    HW155382  11.081   9.621   5.153 -0.8618 -0.4798  0.7609
16515SOL    HW255383  11.049   9.594   5.008  0.2863 -0.9848  0.5927
16516SOL     OW55384   2.931  10.609  11.004 -0.1505  0.1225 -0.4568
16516SOL    HW155385   2.840  10.607  10.974 -0.1513 -0.7197 -0.4148
16516SOL    HW255386   2.934  10.681  11.067 -0.4572  1.0509 -1.4850
16517SOL     OW55387   2.614   4.025   8.326  0.5585  0.0343 -0.2538
16517SOL    HW155388   2.621   3.953   8.263  1.2098  0.9328 -1.2331
16517SOL    HW255389   2.524   4.021   8.357  0.3864 -0.7700 -0.8272
16518SOL     OW55390   8.462   3.135   1.009 -0.4718  0.0594  0.1705
16518SOL    HW155391   8.372   3.103   1.020 -0.3158 -0.3067  0.4088
16518SOL    HW255392   8.474   3.138   0.915 -0.3508 -1.0087  0.1378
16519SOL     OW55393   5.771  11.286   8.223 -0.0614  0.1232 -0.5773
16519SOL    HW155394   5.693  11.329   8.189  0.3940  2.1422  0.7195
16519SOL    HW255395   5.757  11.282   8.318  0.1547 -2.2244 -0.5967
16520SOL     OW55396   0.815  12.125   5.203 -0.5393  0.0509  0.1423
16520SOL    HW155397   0.731  12.137   5.158  0.1088  1.3051 -0.8215
16520SOL    HW255398   0.792  12.101   5.292 -1.9068 -0.2821 -0.2782
16521SOL     OW55399  11.785  10.261   3.562 -0.6151 -0.2246 -0.5570
16521SOL    HW155400  11.703  10.213   3.577 -0.1671 -0.4723  1.3382
16521SOL    HW255401  11.832  10.209   3.497 -1.3930 -0.7994 -0.6686
16522SOL     OW55402   0.785   8.014   0.453  0.1340  0.4820  0.2647
16522SOL    HW155403   0.755   8.053   0.371 -1.0883 -0.5828  0.1816
16522SOL    HW255404   0.877   8.042   0.460 -0.2183  1.9946 -0.5907
16523SOL     OW55405   4.418   5.469   3.136  0.2687  0.3025  0.0409
16523SOL    HW155406   4.408   5.555   3.094  1.4595  0.8525  0.8206
16523SOL    HW255407   4.417   5.489   3.230 -0.2299 -0.6437  0.2412
16524SOL     OW55408   8.005   2.274   3.894 -0.3395  1.1707  0.1017
16524SOL    HW155409   8.090   2.283   3.937 -1.2367  0.8184  2.0257
16524SOL    HW255410   7.987   2.360   3.857  0.3216  1.5740  0.7025
16525SOL     OW55411   2.694   6.751   4.290 -0.0723  0.1357 -0.0432
16525SOL    HW155412   2.783   6.724   4.267  0.0359  0.6082 -0.1935
16525SOL    HW255413   2.642   6.731   4.212 -0.1519 -0.4081  0.1515
16526SOL     OW55414   3.051   9.554   2.153  0.1732  0.0654 -0.0329
16526SOL    HW155415   3.017   9.515   2.072 -0.7150  2.0636 -0.6878
16526SOL    HW255416   2.997   9.631   2.166  1.2252  0.5468  1.7347
16527SOL     OW55417   4.396   7.284  11.965 -0.2523 -0.1128  0.4415
16527SOL    HW155418   4.425   7.369  11.998  1.8776 -0.8223  0.5300
16527SOL    HW255419   4.474   7.246  11.925 -1.1888 -1.9799  0.2931
16528SOL     OW55420   1.555   5.698  11.321 -0.1984 -0.0077  0.4309
16528SOL    HW155421   1.601   5.706  11.405  1.8545 -1.4188 -0.4705
16528SOL    HW255422   1.483   5.638  11.340  0.2899 -0.3820  1.1835
16529SOL     OW55423   8.058   3.072   0.238 -0.0923  0.4598 -0.7597
16529SOL    HW155424   8.101   2.989   0.256  0.9638  1.3049  0.8543
16529SOL    HW255425   8.113   3.114   0.171  1.9857  1.7155  1.5862
16530SOL     OW55426   0.962   0.203   8.393  0.5723 -0.6906 -0.0750
16530SOL    HW155427   0.894   0.224   8.329  0.9778 -0.8828 -0.5828
16530SOL    HW255428   0.963   0.277   8.453 -1.9455 -1.8799  1.5673
16531SOL     OW55429   3.458  11.019   4.230 -0.2457  0.0899  0.1654
16531SOL    HW155430   3.525  10.958   4.259 -0.5659 -0.5626 -0.4619
16531SOL    HW255431   3.375  10.972   4.242 -0.4809  0.3195 -0.5150
16532SOL     OW55432  10.711   8.123   4.641  0.4125  0.4360  0.5575
16532SOL    HW155433  10.763   8.145   4.564 -2.0896 -1.2297 -1.7700
16532SOL    HW255434  10.714   8.027   4.645 -1.2419  0.3776  1.2179
16533SOL     OW55435   5.058   2.397   8.183 -0.8611 -0.1347 -0.2015
16533SOL    HW155436   5.053   2.416   8.277 -0.4395  2.3878 -0.5979
16533SOL    HW255437   5.041   2.482   8.142  0.3992 -0.8738 -2.3728
16534SOL     OW55438   3.621   4.956   2.866  0.1549 -0.3266  0.1630
16534SOL    HW155439   3.528   4.934   2.873  0.0495  0.3536  1.1245
16534SOL    HW255440   3.638   4.954   2.772 -1.6004  2.3558 -0.3581
16535SOL     OW55441  10.068   0.964   3.542  0.1888  0.2438 -0.1519
16535SOL    HW155442  10.121   0.903   3.490 -1.3390  0.8606 -2.5911
16535SOL    HW255443  10.090   0.943   3.633  1.6228 -2.1732 -0.9615
16536SOL     OW55444   9.193   3.007   5.398  0.7616 -0.7268  0.7070
16536SOL    HW155445   9.184   3.036   5.489 -0.2243 -3.3799  1.5406
16536SOL    HW255446   9.287   2.995   5.385  0.8719 -0.7843  1.5263
16537SOL     OW55447  11.353   8.663   9.075 -0.3062  0.4064  0.2946
16537SOL    HW155448  11.433   8.627   9.114 -0.5582  0.0383  0.4818
16537SOL    HW255449  11.381   8.745   9.035 -0.1345  1.0693  1.7062
16538SOL     OW55450   4.618   9.080   2.704  0.2530  0.5409  0.2567
16538SOL    HW155451   4.538   9.124   2.733  0.8770  1.6137  0.3994
16538SOL    HW255452   4.644   9.025   2.778 -0.8680 -0.6094 -0.1473
16539SOL     OW55453   1.554   2.797   2.932  0.7706  0.3286 -0.0062
16539SOL    HW155454   1.588   2.886   2.922 -0.1529  0.6620 -0.2432
16539SOL    HW255455   1.623   2.750   2.980 -0.1987  2.0558  3.3271
16540SOL     OW55456  10.467  11.204  10.056 -0.4506  0.6404 -0.3777
16540SOL    HW155457  10.392  11.262  10.074 -0.6033 -0.0442  1.3987
16540SOL    HW255458  10.483  11.159  10.139  1.0426 -0.2847 -1.1238
16541SOL     OW55459  10.111   4.716   2.304  0.7619  0.4996 -0.1389
16541SOL    HW155460  10.195   4.679   2.274 -0.2964 -1.5014 -0.7817
16541SOL    HW255461  10.045   4.662   2.261 -0.8635  1.0678  1.5605
16542SOL     OW55462   3.622   8.415  11.033  0.1847 -0.0386 -0.2177
16542SOL    HW155463   3.712   8.384  11.040  0.1042 -0.3863 -0.6347
16542SOL    HW255464   3.612   8.478  11.103  0.5624 -0.4784  0.2378
16543SOL     OW55465   6.868  12.192   5.557  0.4771  0.2372  0.0282
16543SOL    HW155466   6.867  12.100   5.584 -0.5541  0.4907  0.9150
16543SOL    HW255467   6.776  12.216   5.552  0.7365  1.2064 -0.2953
16544SOL     OW55468   9.421   3.281   1.293 -0.3250 -0.1194 -0.8061
16544SOL    HW155469   9.456   3.296   1.205 -2.5277  0.8143 -1.5864
16544SOL    HW255470   9.335   3.242   1.278 -1.6636  1.9793  0.8260
16545SOL     OW55471  10.407   9.479   8.024 -0.2165  0.4759 -0.3541
16545SOL    HW155472  10.454   9.437   8.096  1.9443  0.4552 -1.6733
16545SOL    HW255473  10.342   9.414   7.996 -0.8161  0.3348  1.2742
16546SOL     OW55474   3.966   6.434   7.364 -0.4453 -0.3262  0.1614
16546SOL    HW155475   4.045   6.483   7.387 -1.2349  0.5507  1.1417
16546SOL    HW255476   3.954   6.450   7.271 -0.0622  0.4418  0.2370
16547SOL     OW55477  10.616   4.416  12.070  0.0334  0.1693 -0.2293
16547SOL    HW155478  10.678   4.426  12.142 -0.4058  1.9943 -0.0627
16547SOL    HW255479  10.536   4.385  12.112 -0.5821  2.3246  0.3107
16548SOL     OW55480   7.187  10.158   7.239 -0.7133 -0.0922  0.0600
16548SOL    HW155481   7.173  10.171   7.145  1.8127 -0.1895 -0.3972
16548SOL    HW255482   7.107  10.115   7.269 -1.2034 -0.9350 -2.2402
16549SOL     OW55483   9.052   9.199   9.506  0.3995 -0.1511  0.2066
16549SOL    HW155484   9.070   9.286   9.471  1.4035 -0.1453  0.6957
16549SOL    HW255485   9.011   9.215   9.591  0.3187 -0.1563  0.1684
16550SOL     OW55486   9.015   8.709   0.184 -0.0918  0.1473  0.2516
16550SOL    HW155487   9.110   8.703   0.172 -0.1098  0.4040 -0.0172
16550SOL    HW255488   8.992   8.797   0.154 -0.2906  0.4038  1.1362
16551SOL     OW55489   7.640   9.282   0.702 -0.1543  0.0223 -0.1251
16551SOL    HW155490   7.613   9.209   0.647 -0.6003  0.5087 -0.5604
16551SOL    HW255491   7.736   9.280   0.700 -0.1663 -0.1367 -0.6896
16552SOL     OW55492   5.104   1.716   2.546 -0.4869  0.1741 -0.4618
16552SOL    HW155493   5.023   1.766   2.535  0.0044  0.9423 -0.7279
16552SOL    HW255494   5.157   1.740   2.469  0.3510  0.4036  0.1692
16553SOL     OW55495   2.319   9.256   0.835  0.5360  0.1864  0.3846
16553SOL    HW155496   2.288   9.286   0.920  0.4033 -0.7011  0.6597
16553SOL    HW255497   2.343   9.164   0.849  0.2763 -0.0446 -0.5865
16554SOL     OW55498   4.936   4.924   5.390  0.3316 -0.1039 -0.1854
16554SOL    HW155499   4.926   5.002   5.335 -0.7735  0.1234  0.3047
16554SOL    HW255500   4.849   4.910   5.427  0.8342 -0.8110  0.7611
16555SOL     OW55501   5.076   3.173   3.451 -0.1448 -0.2592  0.1970
16555SOL    HW155502   5.039   3.253   3.487 -0.3841 -0.6586  0.8587
16555SOL    HW255503   5.028   3.103   3.494 -0.3797 -0.7577 -0.8488
16556SOL     OW55504   3.568  10.883   5.783  0.3051  0.2219 -0.3457
16556SOL    HW155505   3.641  10.897   5.843  0.3032 -0.2756 -0.2239
16556SOL    HW255506   3.606  10.895   5.696  0.4760  0.2172 -0.2726
16557SOL     OW55507   5.025  10.879  10.418  0.3963  0.1223 -0.1528
16557SOL    HW155508   5.105  10.846  10.459  0.0007 -1.7047 -0.7332
16557SOL    HW255509   4.956  10.823  10.455 -0.1028 -0.8835 -2.4537
16558SOL     OW55510  11.503   5.437   6.527  0.0388  0.5284  0.2663
16558SOL    HW155511  11.415   5.448   6.562 -0.1731  0.0171 -0.0817
16558SOL    HW255512  11.554   5.403   6.601 -0.2624  0.0241  0.2541
16559SOL     OW55513   8.032   2.122   2.849 -0.2075  0.0649 -0.8226
16559SOL    HW155514   8.002   2.042   2.806  1.2626 -0.7862 -0.3382
16559SOL    HW255515   8.014   2.107   2.941 -0.7143  0.6703 -0.8205
16560SOL     OW55516   3.545  12.193  10.968 -0.4199  0.5490  0.5888
16560SOL    HW155517   3.564  12.168  10.877 -0.8216  1.4639  0.2341
16560SOL    HW255518   3.546  12.289  10.966 -2.3699  0.6220  1.1111
16561SOL     OW55519  12.135   5.507   3.608 -0.6534 -0.0446 -0.0347
16561SOL    HW155520  12.212   5.515   3.664 -0.6266  2.1220 -0.2920
16561SOL    HW255521  12.097   5.595   3.606 -1.4345 -0.3538 -2.2989
16562SOL     OW55522  10.910   6.091   6.504 -0.5863  0.4425  0.2984
16562SOL    HW155523  10.965   6.012   6.501 -0.9320  0.2058 -0.1024
16562SOL    HW255524  10.951   6.147   6.569 -0.5827 -0.2558  0.9052
16563SOL     OW55525   3.656   5.632   0.096 -0.2571  0.1887  0.1900
16563SOL    HW155526   3.626   5.722   0.087 -0.5393  0.0577 -0.2243
16563SOL    HW255527   3.608   5.598   0.171 -0.2759  0.3333  0.2439
16564SOL     OW55528   7.846  10.813  10.318 -0.4959 -0.0734  0.1938
16564SOL    HW155529   7.768  10.806  10.263  0.3975 -1.3956 -0.9711
16564SOL    HW255530   7.896  10.884  10.279 -0.2530 -0.4585 -0.2016
16565SOL     OW55531   1.599   9.238  12.278 -0.0832  0.3330  0.3668
16565SOL    HW155532   1.683   9.263  12.238  0.0991  1.2610  1.2616
16565SOL    HW255533   1.543   9.315  12.265 -1.0084 -0.4922 -0.7185
16566SOL     OW55534   9.878   9.383   6.821  0.0893 -0.2369 -0.1133
16566SOL    HW155535   9.814   9.429   6.876  0.5435  0.3605 -0.0638
16566SOL    HW255536   9.933   9.335   6.884  0.8078  0.7004  0.0033
16567SOL     OW55537   6.392   5.133  11.244 -0.2967  0.2222  0.1234
16567SOL    HW155538   6.389   5.042  11.217 -0.8745  0.0602  0.6858
16567SOL    HW255539   6.483   5.149  11.268 -0.2392 -0.2798  0.2474
16568SOL     OW55540   1.454   9.628   8.922  0.1468 -0.5237  0.0156
16568SOL    HW155541   1.432   9.716   8.892 -0.7731 -0.4295  0.9053
16568SOL    HW255542   1.369   9.589   8.945  0.7658 -0.6384  2.2717
16569SOL     OW55543   5.784   5.737   9.548 -0.1508 -0.3145 -0.0052
16569SOL    HW155544   5.799   5.772   9.460  0.1143 -1.2669 -0.3521
16569SOL    HW255545   5.693   5.706   9.546 -0.1353 -0.3625  0.0497
16570SOL     OW55546   3.244   9.683   1.910 -0.0797 -0.4202 -0.5485
16570SOL    HW155547   3.270   9.716   1.997  0.7888 -1.0611 -0.5489
16570SOL    HW255548   3.225   9.762   1.859  1.6878  0.0977 -0.4704
16571SOL     OW55549   1.131  11.248   3.680 -0.0391 -0.4658 -0.0920
16571SOL    HW155550   1.214  11.232   3.725  0.3686  0.1460 -0.6113
16571SOL    HW255551   1.070  11.185   3.719  0.8993 -1.5741 -0.3595
16572SOL     OW55552   2.061   1.776   3.796  0.0510 -0.3162  0.1962
16572SOL    HW155553   2.104   1.842   3.742  1.3622 -2.2849 -1.3380
16572SOL    HW255554   2.106   1.780   3.880  1.5311 -0.5735 -0.5461
16573SOL     OW55555   3.348   5.808   5.337 -0.1983  0.0545 -0.6253
16573SOL    HW155556   3.302   5.887   5.308  0.2101  0.5345 -0.0081
16573SOL    HW255557   3.423   5.801   5.279  0.0911  0.4638 -0.3066
16574SOL     OW55558   7.811   5.741   4.739  0.2910  0.0355 -0.0945
16574SOL    HW155559   7.721   5.770   4.725  0.7827  1.8461  0.3539
16574SOL    HW255560   7.820   5.665   4.681 -2.2446 -1.7645  1.6099
16575SOL     OW55561   8.735   1.680   3.241 -0.6598 -0.4521  0.0055
16575SOL    HW155562   8.644   1.710   3.243  0.2882  2.7410  0.7530
16575SOL    HW255563   8.771   1.719   3.161  0.3209 -0.7457  0.2975
16576SOL     OW55564   9.571  12.115  12.158 -0.2533 -0.6032 -0.4312
16576SOL    HW155565   9.602  12.098  12.069 -0.1111  1.1661 -0.7662
16576SOL    HW255566   9.628  12.064  12.214  0.0153 -1.3098 -1.3267
16577SOL     OW55567   5.077   3.062   7.887  0.0134  0.9115  0.0726
16577SOL    HW155568   5.096   3.079   7.979  1.5084  2.0782 -0.4211
16577SOL    HW255569   4.981   3.067   7.881 -0.3252 -1.3853  1.9384
16578SOL     OW55570   1.966   5.432   0.618 -0.2301 -0.4200 -0.4622
16578SOL    HW155571   2.000   5.351   0.580 -0.4469  0.0078 -1.6109
16578SOL    HW255572   1.874   5.435   0.592 -0.3265  0.0005 -0.0931
16579SOL     OW55573   1.401   6.732   5.043 -0.5607 -0.2644  0.2573
16579SOL    HW155574   1.404   6.639   5.063 -0.9540 -0.2926  0.1955
16579SOL    HW255575   1.401   6.737   4.947  0.2681 -0.1679  0.2556
16580SOL     OW55576   0.345   0.169  11.537  0.3950 -0.7608  0.1690
16580SOL    HW155577   0.407   0.114  11.489 -0.6902  0.0403 -2.3129
16580SOL    HW255578   0.260   0.124  11.526  0.0565 -0.3427  1.0247
16581SOL     OW55579   7.737   0.323   9.913 -0.0693 -0.4193 -0.5930
16581SOL    HW155580   7.773   0.411   9.898 -1.2444  0.1098 -0.4495
16581SOL    HW255581   7.801   0.281   9.970 -1.0660  1.5541  2.2113
16582SOL     OW55582   3.134   7.392   2.330 -0.1774 -0.0039 -0.1562
16582SOL    HW155583   3.091   7.464   2.377  0.5073 -0.0723  0.5983
16582SOL    HW255584   3.216   7.429   2.300 -0.1785 -0.2437 -0.4530
16583SOL     OW55585   5.310  10.220   0.300  0.7352  0.1550  0.2837
16583SOL    HW155586   5.297  10.302   0.348  1.9201  0.8215 -0.4802
16583SOL    HW255587   5.249  10.159   0.340  1.5307  0.7205  2.4952
16584SOL     OW55588   3.146   6.235   3.422 -0.2232 -0.4055  0.1884
16584SOL    HW155589   3.228   6.202   3.460 -0.3520 -0.7277  0.1861
16584SOL    HW255590   3.094   6.157   3.406 -0.3065 -0.2457 -0.3386
16585SOL     OW55591   1.731  10.109   5.863 -0.3578 -0.7495  0.1825
16585SOL    HW155592   1.708  10.022   5.896 -3.4568 -0.3040 -0.5619
16585SOL    HW255593   1.694  10.170   5.927  2.1067  0.1340  0.9029
16586SOL     OW55594   6.923  10.056   2.775  0.7474 -0.3732 -0.2888
16586SOL    HW155595   6.974  10.004   2.837 -0.3709 -0.7776  0.3212
16586SOL    HW255596   6.932  10.146   2.805 -0.6845 -0.6668  1.1788
16587SOL     OW55597   0.843   2.407  12.012  0.3445  0.2950 -0.2787
16587SOL    HW155598   0.875   2.371  11.929  1.8449 -1.3169  0.9257
16587SOL    HW255599   0.788   2.338  12.049 -0.4695  1.0751 -0.0175
16588SOL     OW55600  12.240   1.894   0.955 -0.1317 -0.1433 -0.3098
16588SOL    HW155601  12.217   1.983   0.983 -0.7743 -0.4729  0.2466
16588SOL    HW255602  12.258   1.902   0.861 -2.6820  0.1389 -0.8395
16589SOL     OW55603   8.717  10.497   7.266 -0.0963 -0.0262 -0.4333
16589SOL    HW155604   8.677  10.542   7.340  1.5708  0.5532  0.1813
16589SOL    HW255605   8.715  10.405   7.289 -0.9534  0.0062 -0.3702
16590SOL     OW55606   0.239   5.537   7.665 -0.1359  0.0294 -0.5041
16590SOL    HW155607   0.297   5.462   7.652 -0.0629  0.3063 -1.9658
16590SOL    HW255608   0.227   5.542   7.760  1.0784 -0.8936 -0.2756
16591SOL     OW55609   6.095  11.013   7.331 -0.3851  0.0720 -0.1312
16591SOL    HW155610   6.015  10.994   7.380  0.7961 -1.3984  1.3374
16591SOL    HW255611   6.088  10.959   7.252 -0.4129 -0.8122  0.4668
16592SOL     OW55612   1.403   2.596   1.655  0.1016 -0.0624 -0.1582
16592SOL    HW155613   1.394   2.515   1.706  0.4629 -0.5579 -0.8597
16592SOL    HW255614   1.497   2.615   1.657  0.3437 -0.8862 -1.8021
16593SOL     OW55615  10.626   8.060   3.526  0.6586  0.2765 -0.2567
16593SOL    HW155616  10.644   7.980   3.477 -0.0033  0.9774 -1.7087
16593SOL    HW255617  10.706   8.113   3.515  0.9257  0.0102  0.3389
16594SOL     OW55618   1.788   1.315   2.863 -0.3683  0.1439  0.1285
16594SOL    HW155619   1.859   1.281   2.808 -0.5859  0.3622 -0.2975
16594SOL    HW255620   1.829   1.330   2.948  0.1429  0.4509 -0.1651
16595SOL     OW55621  10.294   1.084   9.725 -0.2135 -0.1859  0.3845
16595SOL    HW155622  10.336   1.151   9.779  1.8854 -1.1857  0.1185
16595SOL    HW255623  10.368   1.033   9.689 -1.2733  1.1489 -4.4407
16596SOL     OW55624  10.527   1.055  11.737 -0.3576 -0.0265  0.3834
16596SOL    HW155625  10.569   1.053  11.823 -0.7785 -0.5680  0.5823
16596SOL    HW255626  10.579   0.995  11.683 -0.1618  0.2259  0.2911
16597SOL     OW55627   3.815   0.315   8.228 -0.0388 -0.1342 -0.1476
16597SOL    HW155628   3.857   0.231   8.212  0.9984  0.7165 -2.2004
16597SOL    HW255629   3.882   0.368   8.270 -0.2157  0.1189 -0.1797
16598SOL     OW55630   1.014  12.269   3.617  0.3221 -0.2249 -0.2861
16598SOL    HW155631   0.925  12.234   3.623  0.0831  0.4111 -0.0617
16598SOL    HW255632   1.048  12.263   3.706 -0.4462  1.9711  0.2054
16599SOL     OW55633   6.250   1.966   8.573 -0.0721  0.4698 -0.0133
16599SOL    HW155634   6.227   1.882   8.532  1.1782 -0.2904  0.7903
16599SOL    HW255635   6.216   2.032   8.513  0.7275 -0.6124 -1.7039
16600SOL     OW55636   1.897   5.903   7.387  0.0740  0.0943 -0.7560
16600SOL    HW155637   1.927   5.838   7.323 -0.2201 -1.3760  0.5407
16600SOL    HW255638   1.972   5.914   7.446 -0.6779 -0.9198  0.4270
16601SOL     OW55639   0.225   8.371   4.509  0.1371  0.4353 -0.2787
16601SOL    HW155640   0.301   8.322   4.541 -1.0899 -0.2304  1.8267
16601SOL    HW255641   0.188   8.315   4.441  2.5242  1.6351 -2.7108
16602SOL     OW55642   0.941   1.652   7.137  0.4872 -0.8370  0.5292
16602SOL    HW155643   0.995   1.712   7.188 -1.3655  0.8852  0.5969
16602SOL    HW255644   0.884   1.611   7.202 -1.4275  0.8710  0.0390
16603SOL     OW55645   5.927   5.375   5.783 -0.4176 -0.4228 -0.0764
16603SOL    HW155646   5.954   5.283   5.780 -1.4310 -0.8205  1.7229
16603SOL    HW255647   5.894   5.393   5.695 -1.3206 -2.1534 -0.1308
16604SOL     OW55648   8.717   4.359   0.788  0.1644 -0.2580 -0.5781
16604SOL    HW155649   8.680   4.273   0.804  2.0435 -0.7294  1.7345
16604SOL    HW255650   8.739   4.393   0.875  1.6235  1.5511 -1.5733
16605SOL     OW55651   2.144  10.216  12.155  0.2845 -0.2738  0.5509
16605SOL    HW155652   2.218  10.182  12.205 -0.4139 -0.4962  1.4601
16605SOL    HW255653   2.108  10.140  12.110  0.3794 -0.2314  0.4002
16606SOL     OW55654   0.357   6.228  11.664  0.0749 -0.4541 -0.6692
16606SOL    HW155655   0.266   6.201  11.653  0.2939 -1.1407 -0.8796
16606SOL    HW255656   0.365   6.309  11.614 -0.6833  0.2115  0.2362
16607SOL     OW55657   3.036  11.179   6.785  0.3417  0.3227  0.2902
16607SOL    HW155658   3.026  11.218   6.872  0.2451  1.2416 -0.1206
16607SOL    HW255659   2.964  11.116   6.779 -0.5473  1.3103  0.3293
16608SOL     OW55660  10.486   8.887   9.264  0.8946  0.1110  0.3219
16608SOL    HW155661  10.436   8.969   9.270  0.9705  0.0895  1.5187
16608SOL    HW255662  10.429   8.828   9.216 -0.2068  0.1349  1.5354
16609SOL     OW55663  11.828   2.166   1.541 -0.4312  0.8735 -0.1689
16609SOL    HW155664  11.918   2.198   1.539  0.2185 -0.7418 -3.3017
16609SOL    HW255665  11.832   2.079   1.502 -3.1109 -0.1039  1.4574
16610SOL     OW55666   6.518   2.558   9.225 -0.5732  0.6930  0.0762
16610SOL    HW155667   6.499   2.602   9.308 -0.9280 -0.9125  0.8924
16610SOL    HW255668   6.477   2.472   9.234  0.7238 -0.0904 -1.1482
16611SOL     OW55669  11.061   6.183   1.849  0.0295  0.0142 -0.0909
16611SOL    HW155670  10.976   6.223   1.833 -0.7874 -1.0093  1.4879
16611SOL    HW255671  11.086   6.147   1.764 -0.2877  1.7749 -0.9780
16612SOL     OW55672   8.932   6.259   0.218 -0.4146 -0.0047  0.2707
16612SOL    HW155673   8.946   6.348   0.250  1.1398  0.3151 -1.1271
16612SOL    HW255674   8.967   6.203   0.287  0.6617  0.5617  0.1982
16613SOL     OW55675   8.135   9.097   2.275  0.1767  0.2080 -0.3408
16613SOL    HW155676   8.159   9.103   2.367 -1.8193 -0.6788  0.2877
16613SOL    HW255677   8.212   9.131   2.228  1.2257  0.6997  1.6186
16614SOL     OW55678   5.883   8.890   6.664  0.2707  0.0006 -0.5066
16614SOL    HW155679   5.905   8.961   6.604  0.1165 -0.3944 -1.0445
16614SOL    HW255680   5.881   8.812   6.608  1.1232 -0.5389  0.1934
16615SOL     OW55681  10.218   3.855   6.266  0.4442  0.0875 -0.4177
16615SOL    HW155682  10.221   3.932   6.322 -0.5471 -0.3187  0.2221
16615SOL    HW255683  10.278   3.875   6.194  1.7040  0.6496  0.7399
16616SOL     OW55684   1.606   2.490   7.839  0.0194 -0.3883  0.3154
16616SOL    HW155685   1.629   2.582   7.824  0.2220 -0.0164  2.6465
16616SOL    HW255686   1.515   2.483   7.810  0.7935 -0.2200 -2.5542
16617SOL     OW55687   1.463   0.205   2.752 -0.1006 -0.1214  0.6187
16617SOL    HW155688   1.380   0.206   2.801 -1.1871 -0.5955 -1.1434
16617SOL    HW255689   1.450   0.138   2.685  0.5144  1.9998 -1.7152
16618SOL     OW55690   0.466   4.667   1.513  0.1058  0.6833 -0.4815
16618SOL    HW155691   0.546   4.714   1.489  0.3524  0.1015 -0.8207
16618SOL    HW255692   0.465   4.669   1.608  0.2521  1.1416 -0.4863
16619SOL     OW55693   8.225   9.920   8.694  0.0076  0.7164  0.3569
16619SOL    HW155694   8.287   9.907   8.766  0.2967  1.4601  0.2478
16619SOL    HW255695   8.275   9.968   8.628  0.3231 -1.4196 -1.1037
16620SOL     OW55696   0.574   7.298  11.501 -0.0596  0.3937 -0.2251
16620SOL    HW155697   0.611   7.210  11.492 -2.8834 -0.8819 -0.1928
16620SOL    HW255698   0.578   7.315  11.595 -2.3949 -1.1349  0.2250
16621SOL     OW55699   7.133   4.609   2.919 -0.2418  0.5293 -0.4249
16621SOL    HW155700   7.113   4.681   2.859 -0.8100  1.3537  0.7174
16621SOL    HW255701   7.050   4.590   2.962  0.0679 -0.3164 -0.1889
16622SOL     OW55702  11.407  10.795   3.021 -0.3841  0.5863 -0.3901
16622SOL    HW155703  11.471  10.761   2.959 -0.5754  0.4993 -0.5432
16622SOL    HW255704  11.400  10.727   3.088  0.2669  0.9457  0.0498
16623SOL     OW55705   0.686   9.634   4.257 -0.2182  0.2274 -0.1032
16623SOL    HW155706   0.636   9.561   4.293  1.3325 -0.6497  0.3921
16623SOL    HW255707   0.735   9.596   4.184  1.4626  0.4558  0.8516
16624SOL     OW55708   2.937   9.346   0.084 -0.1586 -0.1318 -0.6941
16624SOL    HW155709   2.969   9.323   0.171 -1.0853 -0.7416 -0.4975
16624SOL    HW255710   2.954   9.440   0.076 -1.2109  0.2063  0.6596
16625SOL     OW55711   9.970   2.502   6.048 -0.2226 -0.0039  0.1037
16625SOL    HW155712   9.942   2.412   6.063 -1.7717  0.6619  1.5282
16625SOL    HW255713   9.889   2.548   6.025  0.0113  1.5627  2.1742
16626SOL     OW55714   8.839   7.533   3.378 -0.0741 -0.3481  0.1786
16626SOL    HW155715   8.872   7.474   3.447 -0.5947  0.4384  1.1310
16626SOL    HW255716   8.753   7.561   3.410  0.2402  1.0731 -0.1642
16627SOL     OW55717   9.885   3.917   3.974 -0.4987  0.2396  0.1061
16627SOL    HW155718   9.935   3.845   3.936 -0.1223  0.0374  0.9473
16627SOL    HW255719   9.841   3.959   3.900 -0.0515 -0.3389 -0.4909
16628SOL     OW55720   7.801  10.515   1.773  0.6627  0.0765 -0.2581
16628SOL    HW155721   7.729  10.481   1.720 -0.4821 -0.8259  1.7445
16628SOL    HW255722   7.867  10.544   1.709 -1.0767  0.0960 -2.1360
16629SOL     OW55723   6.062   2.208   2.752  0.5101  0.1448 -1.2260
16629SOL    HW155724   6.092   2.241   2.667 -1.0872  0.7178 -1.5962
16629SOL    HW255725   5.982   2.159   2.732 -0.1142  0.6209  0.0004
16630SOL     OW55726   1.862   6.494   0.224 -0.5984  0.0283 -0.1743
16630SOL    HW155727   1.880   6.485   0.131  0.6736 -1.0370  0.1458
16630SOL    HW255728   1.794   6.429   0.242 -0.0888 -0.5069 -0.1660
16631SOL     OW55729   9.470   0.656   1.090  0.3324  0.6799  0.0965
16631SOL    HW155730   9.449   0.681   1.180  1.1230 -0.5571  0.6587
16631SOL    HW255731   9.396   0.602   1.063  0.3235  0.6438  0.1902
16632SOL     OW55732   5.178  11.330   4.942 -0.0532 -0.1343 -0.6452
16632SOL    HW155733   5.139  11.371   5.020 -1.2385 -0.2543 -1.1495
16632SOL    HW255734   5.262  11.375   4.931 -0.1259  0.2922  0.3532
16633SOL     OW55735  11.852   5.346   0.090 -0.2203 -0.3859 -0.1412
16633SOL    HW155736  11.789   5.418   0.091  1.5981  1.3158  1.4489
16633SOL    HW255737  11.891   5.349   0.003 -0.7589  0.0020 -0.3745
16634SOL     OW55738   2.874   7.000   9.748 -0.3065 -0.0591 -0.4191
16634SOL    HW155739   2.788   7.040   9.739 -0.3602 -0.0357  0.1470
16634SOL    HW255740   2.915   7.010   9.662 -0.7617  0.1805 -0.6086
16635SOL     OW55741   4.696   8.178  12.135  0.7558  0.0881  0.6626
16635SOL    HW155742   4.678   8.173  12.229  1.4773 -1.6805  0.7362
16635SOL    HW255743   4.611   8.167  12.094  0.7139 -1.4177  1.0981
16636SOL     OW55744   6.924  10.236   2.450  0.2279  0.6761  0.1375
16636SOL    HW155745   6.836  10.219   2.484 -0.3708  0.0404 -1.6006
16636SOL    HW255746   6.917  10.322   2.408  0.0664  0.1052 -1.0506
16637SOL     OW55747  10.572   1.741   5.425 -0.1514 -0.5114 -0.0767
16637SOL    HW155748  10.603   1.828   5.453  1.5468 -1.0906 -0.0010
16637SOL    HW255749  10.477   1.750   5.421 -0.0364  1.3220  0.0281
16638SOL     OW55750   2.003  10.862   1.687  1.1150 -0.4036 -0.2271
16638SOL    HW155751   1.917  10.824   1.709  0.2097 -0.6666 -3.6858
16638SOL    HW255752   2.028  10.910   1.766 -1.5971 -1.3453  1.3716
16639SOL     OW55753   9.944   1.073  11.154  0.0953 -0.2428  0.0745
16639SOL    HW155754   9.931   1.140  11.087 -0.4103  0.6906  1.0616
16639SOL    HW255755   9.870   1.085  11.214  1.2119 -0.1970  1.4774
16640SOL     OW55756  10.870   9.825   0.614 -0.4919 -0.2445  0.1556
16640SOL    HW155757  10.946   9.853   0.563 -0.1758  1.2692  1.3612
16640SOL    HW255758  10.850   9.900   0.670 -1.0396 -1.6836  2.0012
16641SOL     OW55759   0.330  10.455   2.487  0.1592  0.4507 -0.0674
16641SOL    HW155760   0.260  10.502   2.531 -0.3408 -0.3288 -0.0212
16641SOL    HW255761   0.290  10.420   2.408  0.1534 -1.0752  0.5906
16642SOL     OW55762   3.750   8.077   2.018 -0.2552  0.3723  0.0892
16642SOL    HW155763   3.788   8.059   1.931 -0.7983  1.1219 -0.3138
16642SOL    HW255764   3.823   8.067   2.078  0.1632 -0.0171 -0.4664
16643SOL     OW55765   3.819   6.797   3.849 -0.6324 -0.1279  0.0209
16643SOL    HW155766   3.817   6.801   3.753 -1.0604  0.7531  0.0483
16643SOL    HW255767   3.727   6.809   3.875 -0.7746 -2.0336  0.5162
16644SOL     OW55768   8.735   3.363  10.526  0.2377  0.3271  0.4484
16644SOL    HW155769   8.674   3.403  10.463  1.7513  0.6656 -0.8557
16644SOL    HW255770   8.770   3.436  10.575 -1.2657  0.0297  2.0793
16645SOL     OW55771   6.923   6.522   8.808  0.0764  0.3134 -0.2630
16645SOL    HW155772   6.968   6.441   8.832  1.0857  0.9528  0.0295
16645SOL    HW255773   6.948   6.585   8.875 -0.7999  0.8476 -0.4215
16646SOL     OW55774   7.447   6.693  11.335 -0.1357 -0.2350 -0.2326
16646SOL    HW155775   7.366   6.662  11.376  1.3916 -1.3886  2.1368
16646SOL    HW255776   7.479   6.618  11.285  0.0774 -0.2016 -0.1477
16647SOL     OW55777   8.809   6.284   3.925 -0.2371  0.1455 -0.0722
16647SOL    HW155778   8.744   6.215   3.938 -0.4008 -0.3776 -2.9382
16647SOL    HW255779   8.893   6.239   3.931 -0.3129 -0.1274 -0.8940
16648SOL     OW55780   0.264   5.292   8.089  0.2067  0.1840 -0.2551
16648SOL    HW155781   0.256   5.253   8.002  0.3622 -0.7222  0.1365
16648SOL    HW255782   0.264   5.218   8.150  0.6198  0.7777  0.4907
16649SOL     OW55783   8.709   6.903   1.956  0.1767 -0.1267 -0.0339
16649SOL    HW155784   8.686   6.970   2.021 -2.2953  0.2296 -1.1541
16649SOL    HW255785   8.668   6.823   1.989  0.2836 -0.3073 -0.3464
16650SOL     OW55786   4.255   6.944   6.898 -0.2424 -0.2050 -0.6475
16650SOL    HW155787   4.182   6.886   6.879 -0.3120  0.0316 -1.1245
16650SOL    HW255788   4.236   6.980   6.985 -0.7682 -0.0302 -0.8325
16651SOL     OW55789  11.298   2.795  11.012 -0.0180  0.0340  0.2290
16651SOL    HW155790  11.327   2.741  10.938 -0.4886 -1.7071  1.2507
16651SOL    HW255791  11.332   2.750  11.089 -0.5033  1.1782  1.1328
16652SOL     OW55792   1.810   0.380  10.260  0.4416  0.0035 -0.1347
16652SOL    HW155793   1.840   0.327  10.334  0.5275 -0.6809 -0.6438
16652SOL    HW255794   1.731   0.337  10.230 -1.1264  1.7964  1.1851
16653SOL     OW55795   0.443   4.749   8.274 -0.3652  0.2145  0.7321
16653SOL    HW155796   0.519   4.695   8.294 -1.4001 -1.4679  0.2850
16653SOL    HW255797   0.421   4.791   8.357  2.1877  2.3443  0.4773
16654SOL     OW55798   8.390   1.732   4.370  0.0442  0.0883 -0.0889
16654SOL    HW155799   8.405   1.751   4.463  1.8225  0.6650 -0.4451
16654SOL    HW255800   8.307   1.774   4.350  0.3901  1.3010  0.8936
16655SOL     OW55801   6.515   2.444   4.505 -0.0848 -0.6526  0.0443
16655SOL    HW155802   6.514   2.506   4.578 -0.0881  0.4670 -0.8793
16655SOL    HW255803   6.539   2.360   4.545 -1.0012 -0.2714  1.4750
16656SOL     OW55804   4.335   4.894   3.480  0.0182 -0.5468 -0.1323
16656SOL    HW155805   4.402   4.832   3.451  1.2524  0.8989 -0.5331
16656SOL    HW255806   4.252   4.850   3.464  0.8395 -1.9706 -0.6440
16657SOL     OW55807  10.220  11.955   8.131 -0.2773 -0.1280  0.6294
16657SOL    HW155808  10.198  11.866   8.104  2.5742 -0.4832 -0.9534
16657SOL    HW255809  10.272  11.944   8.211 -0.4796  0.1707  0.8044
16658SOL     OW55810   9.578   9.384   9.546 -0.3859 -0.3959  0.0425
16658SOL    HW155811   9.608   9.472   9.564 -1.0505 -0.1988  0.2334
16658SOL    HW255812   9.645   9.346   9.490 -0.3845  0.4298 -0.5221
16659SOL     OW55813   2.357   1.494  11.744 -0.1918  0.1431  0.1842
16659SOL    HW155814   2.404   1.501  11.827  0.7616  0.2157 -0.3430
16659SOL    HW255815   2.323   1.405  11.743  0.8019 -0.2448  0.1422
16660SOL     OW55816   6.621   3.713   1.252 -0.3929 -0.4430  0.5428
16660SOL    HW155817   6.537   3.761   1.253 -0.0908  0.0913  0.7752
16660SOL    HW255818   6.687   3.781   1.261  0.1737 -0.6724 -1.4176
16661SOL     OW55819   8.222  10.150   1.914 -0.1995 -0.7924 -0.0562
16661SOL    HW155820   8.196  10.161   2.005  0.2619  0.1130 -0.0201
16661SOL    HW255821   8.180  10.068   1.886 -0.0821 -1.2455  1.0530
16662SOL     OW55822  10.605   6.804   7.642 -0.9800 -0.1063  0.0834
16662SOL    HW155823  10.665   6.801   7.568 -0.9562  1.1196  0.0325
16662SOL    HW255824  10.518   6.814   7.603 -0.9991  0.2170  0.1996
16663SOL     OW55825   0.161   7.981   2.669  0.2070  0.0593  0.2350
16663SOL    HW155826   0.077   8.009   2.633  1.8550  1.5922 -2.9328
16663SOL    HW255827   0.176   7.894   2.633  1.6992  1.4565 -2.9092
16664SOL     OW55828   1.525   6.282   1.562 -0.1723 -0.0499 -0.2665
16664SOL    HW155829   1.528   6.378   1.559  0.2225  0.0366  1.5314
16664SOL    HW255830   1.584   6.259   1.634  0.3082 -1.7049 -1.1472
16665SOL     OW55831   4.084   8.640   2.914 -0.1492  0.4998 -0.7025
16665SOL    HW155832   4.070   8.734   2.928 -0.3237  0.5266 -1.0524
16665SOL    HW255833   4.123   8.610   2.996  1.3819  1.1740 -1.1318
16666SOL     OW55834   9.425   7.610   1.127  0.7472  0.0004 -0.9311
16666SOL    HW155835   9.342   7.564   1.143  0.3938  1.1625  0.9604
16666SOL    HW255836   9.399   7.700   1.108  1.5730  0.4828  0.1366
16667SOL     OW55837   7.692   6.756  10.860 -0.3157 -0.0892 -0.3989
16667SOL    HW155838   7.664   6.703  10.785 -1.5895  1.3124 -0.9792
16667SOL    HW255839   7.770   6.801  10.830 -0.6545  0.2420 -0.7969
16668SOL     OW55840   2.421   8.457   0.765 -0.5657  0.0460  0.1981
16668SOL    HW155841   2.442   8.368   0.736 -1.2430 -1.3127  3.5195
16668SOL    HW255842   2.338   8.449   0.811  0.3054  1.9989  2.2891
16669SOL     OW55843   2.038   7.993   0.103 -0.1202  0.6345 -0.1056
16669SOL    HW155844   2.002   8.064   0.051 -1.2280  2.1080  2.4818
16669SOL    HW255845   1.966   7.931   0.113 -0.0165  0.5220 -0.0426
16670SOL     OW55846   7.196   7.704   8.734  0.3270  0.5645 -0.2805
16670SOL    HW155847   7.263   7.699   8.665  1.1491  2.1508  0.3402
16670SOL    HW255848   7.201   7.794   8.765  0.5419 -0.2899  2.4191
16671SOL     OW55849   3.750  12.090  12.045 -0.0325  0.3653 -0.4816
16671SOL    HW155850   3.756  12.133  12.131  0.6360 -0.7143  0.0193
16671SOL    HW255851   3.720  12.160  11.987  1.7677  1.7420  0.1493
16672SOL     OW55852  11.681   7.395   4.637  0.0382 -0.2250  0.0691
16672SOL    HW155853  11.659   7.465   4.699  0.2752 -0.4673  0.4308
16672SOL    HW255854  11.689   7.440   4.553  1.7785  0.4602  0.5548
16673SOL     OW55855   5.741   9.821   7.546 -0.0085  1.5330 -0.3434
16673SOL    HW155856   5.784   9.814   7.631  0.7024  0.2479 -0.7699
16673SOL    HW255857   5.655   9.781   7.559  0.8859 -0.6383 -0.6967
16674SOL     OW55858   8.205  10.015   5.792 -0.0630  0.5149 -0.0551
16674SOL    HW155859   8.286  10.013   5.843  2.1352 -1.3164 -3.2397
16674SOL    HW255860   8.202  10.103   5.755  1.6503  0.0768 -1.4038
16675SOL     OW55861   6.985   5.567   6.683  0.3462  0.3255 -0.0889
16675SOL    HW155862   6.967   5.643   6.629  1.6643 -0.1818 -1.2806
16675SOL    HW255863   6.903   5.552   6.731 -0.0655  2.2178 -0.1353
16676SOL     OW55864   0.650  11.677   2.649  0.0334 -1.0075  0.2481
16676SOL    HW155865   0.731  11.631   2.668  0.0909 -0.8180  0.4803
16676SOL    HW255866   0.590  11.610   2.618  0.6622 -0.9478 -1.1314
16677SOL     OW55867   5.440   6.616   8.922 -0.4328 -0.0110  0.1777
16677SOL    HW155868   5.411   6.601   8.832 -0.2111  0.8947 -0.0516
16677SOL    HW255869   5.535   6.625   8.916  0.0351 -3.1026  0.9442
16678SOL     OW55870   5.076   3.434  10.121  0.1020  0.1793  0.1911
16678SOL    HW155871   5.144   3.501  10.118  0.5712 -0.1937  1.4612
16678SOL    HW255872   5.025   3.455  10.199  0.2906 -0.9434  0.6467
16679SOL     OW55873   4.690   3.810   7.177  0.2279 -0.4452  0.0305
16679SOL    HW155874   4.671   3.741   7.114  0.3159 -1.1362  0.7453
16679SOL    HW255875   4.767   3.779   7.224 -0.5748 -0.5424  1.3314
16680SOL     OW55876   0.974   1.745   9.588 -0.8457  0.2217  0.1575
16680SOL    HW155877   0.958   1.832   9.551  1.1031  0.4834 -0.1323
16680SOL    HW255878   0.890   1.721   9.628 -1.1385  2.6744  1.2070
16681SOL     OW55879   7.416   2.918   5.031 -0.1228 -0.3370 -0.1640
16681SOL    HW155880   7.347   2.899   5.094  0.6754 -0.5138  0.6691
16681SOL    HW255881   7.369   2.937   4.949 -1.2657  1.4249  0.8277
16682SOL     OW55882  10.722   4.269   6.128 -0.0564 -0.5027  0.0457
16682SOL    HW155883  10.802   4.296   6.172  0.8031 -0.8127 -1.2804
16682SOL    HW255884  10.707   4.337   6.062 -0.4880 -0.8166 -0.1846
16683SOL     OW55885   5.596  10.231   3.605 -0.2692 -0.1634 -0.1536
16683SOL    HW155886   5.584  10.139   3.584  0.7022 -1.2245  3.3004
16683SOL    HW255887   5.515  10.274   3.577 -0.5838 -1.9324 -2.1726
16684SOL     OW55888   0.622  11.465   6.877 -0.2793 -0.0308  0.1937
16684SOL    HW155889   0.635  11.558   6.897  0.5031  0.1338 -0.9740
16684SOL    HW255890   0.535  11.445   6.910 -1.2191  1.6008 -1.1475
16685SOL     OW55891   4.503   8.519   3.593  0.1732 -0.0600  0.4630
16685SOL    HW155892   4.566   8.591   3.600  1.2177 -0.9468  0.3302
16685SOL    HW255893   4.422   8.556   3.628  0.5463  1.3415 -0.0655
16686SOL     OW55894   6.773   6.176   2.700 -0.3737 -0.0908 -0.2601
16686SOL    HW155895   6.720   6.119   2.757 -0.8498  0.2615 -0.3439
16686SOL    HW255896   6.760   6.140   2.612 -1.1486  0.4871 -0.3950
16687SOL     OW55897   3.184   9.998   5.392  0.1379 -0.3544  0.0375
16687SOL    HW155898   3.207  10.071   5.449  1.0430  0.3414 -1.1915
16687SOL    HW255899   3.171  10.037   5.306 -1.4593 -1.3554 -0.2094
16688SOL     OW55900   1.992   5.944   9.866  0.6550 -0.0645  0.5982
16688SOL    HW155901   2.044   6.025   9.871 -0.3049  0.5565  0.7686
16688SOL    HW255902   2.031   5.895   9.794 -0.1295  1.5617 -1.0067
16689SOL     OW55903  11.639  10.341   8.609  0.4585  0.2130 -0.0033
16689SOL    HW155904  11.718  10.300   8.576  0.5871 -0.5567  1.2014
16689SOL    HW255905  11.667  10.392   8.685 -0.3527 -1.1482  1.2716
16690SOL     OW55906  11.696   8.987   6.101  0.5710 -0.2698  0.1541
16690SOL    HW155907  11.778   9.025   6.070  0.1483  1.2695  0.8287
16690SOL    HW255908  11.634   9.002   6.029  0.1824  1.1924  0.7511
16691SOL     OW55909   7.328  10.621   5.374  0.6132 -0.2451  0.6151
16691SOL    HW155910   7.329  10.614   5.470  1.8110 -0.1645  0.6356
16691SOL    HW255911   7.246  10.580   5.348 -0.3440  0.8633  1.7471
16692SOL     OW55912   3.085   9.622   3.363  0.0981  0.0412  0.0277
16692SOL    HW155913   3.177   9.619   3.334  0.5343  0.1779  1.3380
16692SOL    HW255914   3.084   9.574   3.446 -1.0489 -0.0532 -0.0253
16693SOL     OW55915   3.337   7.929   0.395  0.1364  0.1787  0.5628
16693SOL    HW155916   3.352   7.836   0.377 -0.9720  0.2101 -0.7221
16693SOL    HW255917   3.421   7.970   0.377  0.4096 -0.4733  0.3088
16694SOL     OW55918   4.132   3.746   3.591 -0.2352  0.5351 -0.2293
16694SOL    HW155919   4.073   3.756   3.516 -0.6632 -1.1740 -0.1734
16694SOL    HW255920   4.111   3.659   3.626  1.6189  0.2932  0.4039
16695SOL     OW55921   6.756  10.364   7.521  0.4265 -0.0402  0.2571
16695SOL    HW155922   6.669  10.406   7.520  1.2094  1.7826  1.9329
16695SOL    HW255923   6.761  10.322   7.606  2.2972  2.5677  1.5584
16696SOL     OW55924   7.380  12.076   0.079 -0.1889 -0.1711 -0.0599
16696SOL    HW155925   7.366  12.011   0.010  1.8427 -0.1501 -0.5484
16696SOL    HW255926   7.396  12.024   0.158  0.3887 -0.2634 -0.2315
16697SOL     OW55927  11.915   9.417  10.041  0.4406 -0.1842  0.3305
16697SOL    HW155928  11.927   9.449  10.130  1.2003  2.3170 -0.5869
16697SOL    HW255929  11.822   9.432  10.023  0.5278  0.3777  0.3308
16698SOL     OW55930   3.437   9.523   5.523  0.0328  0.1350  0.1142
16698SOL    HW155931   3.435   9.461   5.450  0.3015  0.7968 -0.4552
16698SOL    HW255932   3.441   9.467   5.601 -1.6740 -0.6144 -0.2840
16699SOL     OW55933   3.715  10.992   6.136 -0.5011 -0.2865 -0.4944
16699SOL    HW155934   3.778  11.013   6.067 -0.2929  1.7189  0.2354
16699SOL    HW255935   3.767  10.947   6.202  0.4840  2.1721  0.5260
16700SOL     OW55936   6.354   8.592   0.473  0.4834  0.0609  0.1096
16700SOL    HW155937   6.398   8.533   0.411 -0.9683  0.6247 -1.5719
16700SOL    HW255938   6.384   8.679   0.448 -0.1928  0.3004  0.0984
16701SOL     OW55939   5.321   8.929   4.572  0.8273  0.3636  0.0816
16701SOL    HW155940   5.296   8.838   4.587 -0.4877  0.5282 -0.8944
16701SOL    HW255941   5.325   8.968   4.659  0.5982 -0.4418  0.4557
16702SOL     OW55942   0.147   7.642   0.668  0.1614  0.0175  0.8206
16702SOL    HW155943   0.158   7.736   0.683 -1.5308 -0.0825  3.3599
16702SOL    HW255944   0.200   7.600   0.735 -0.3233 -0.7884  0.7135
16703SOL     OW55945  11.564   3.942   2.381  0.2641 -0.2340  0.3783
16703SOL    HW155946  11.619   3.988   2.444  1.2378  0.6556 -1.0509
16703SOL    HW255947  11.600   3.967   2.296 -1.8219 -0.3248 -0.5800
16704SOL     OW55948   5.749  11.212   8.485 -0.8950  0.0496  0.4109
16704SOL    HW155949   5.770  11.201   8.578  0.6768 -0.8693 -0.0112
16704SOL    HW255950   5.655  11.232   8.483 -1.0051 -0.1717  2.1741
16705SOL     OW55951   2.381   0.598   4.043 -0.0311  0.7910 -0.8763
16705SOL    HW155952   2.477   0.600   4.052 -0.1051 -0.6598  0.7090
16705SOL    HW255953   2.349   0.644   4.120 -0.6370  0.6654 -1.0481
16706SOL     OW55954  10.011   9.355  10.799 -0.3592 -0.1717 -0.4399
16706SOL    HW155955  10.038   9.439  10.834  1.9598  0.0223 -2.3808
16706SOL    HW255956  10.037   9.291  10.865 -0.9214  0.5131  0.4569
16707SOL     OW55957   2.412  11.665   6.716 -0.2750 -0.5151  0.4265
16707SOL    HW155958   2.450  11.645   6.801 -0.1734 -1.7842  0.1018
16707SOL    HW255959   2.393  11.580   6.677  2.6748 -0.1688 -2.2049
16708SOL     OW55960   0.965  10.350   8.998 -0.1842 -0.1846 -0.0912
16708SOL    HW155961   1.058  10.373   9.006 -0.3438  0.2183  0.7643
16708SOL    HW255962   0.928  10.370   9.084 -1.0504 -0.4276 -0.3933
16709SOL     OW55963   6.773   5.911  11.965 -0.1379  0.2883 -0.6216
16709SOL    HW155964   6.699   5.860  11.932 -0.2036 -0.1645  0.1903
16709SOL    HW255965   6.816   5.946  11.887 -2.2042  2.0133 -1.0925
16710SOL     OW55966   3.968  10.123   8.207 -0.1973  0.4950 -0.6442
16710SOL    HW155967   3.878  10.151   8.223 -0.0524  1.9572 -2.1643
16710SOL    HW255968   4.020  10.202   8.219  0.7179 -0.0132 -1.1943
16711SOL     OW55969   0.520   3.379   1.476 -0.0188  0.0968  0.2076
16711SOL    HW155970   0.480   3.293   1.495 -0.1982  0.5998  2.4427
16711SOL    HW255971   0.585   3.390   1.545  0.4965  1.4750 -0.4754
16712SOL     OW55972   5.179   9.051   8.016 -0.0920 -0.4398 -0.1120
16712SOL    HW155973   5.120   8.982   8.046  0.7482 -1.1061  0.0517
16712SOL    HW255974   5.153   9.067   7.925 -0.1121 -1.1911 -0.2474
16713SOL     OW55975   4.336  10.095   9.707  0.4369  0.1202 -0.0862
16713SOL    HW155976   4.327  10.172   9.651  2.0417  0.9063  0.6691
16713SOL    HW255977   4.403  10.042   9.665 -0.1569 -0.5239 -0.2309
16714SOL     OW55978   4.497   6.078   6.163  0.1847 -0.9033  0.4708
16714SOL    HW155979   4.489   6.150   6.226  0.4687 -1.2913  0.9530
16714SOL    HW255980   4.530   6.005   6.214  1.8948 -0.8105 -0.4075
16715SOL     OW55981   1.634   2.818   8.979 -0.0500  0.1830  0.7913
16715SOL    HW155982   1.700   2.754   8.955 -0.4077 -0.3213  1.1441
16715SOL    HW255983   1.672   2.865   9.053 -0.0233 -0.0077  0.8999
16716SOL     OW55984   9.982   9.477   5.432 -0.1503 -0.2543 -0.4385
16716SOL    HW155985   9.986   9.389   5.470 -0.5006  0.2074  0.7002
16716SOL    HW255986   9.926   9.526   5.491 -0.2434  0.6534 -1.2569
16717SOL     OW55987   2.998   3.410   8.064  0.2583 -0.1780  0.3054
16717SOL    HW155988   3.026   3.455   7.984  0.8910  0.0161  0.6332
16717SOL    HW255989   2.903   3.413   8.061  0.2235 -1.3468 -1.1250
16718SOL     OW55990   2.678   7.739   6.119  0.0281 -0.8476 -0.2977
16718SOL    HW155991   2.714   7.715   6.034  2.8939 -1.0844  0.8418
16718SOL    HW255992   2.707   7.669   6.178 -2.2898 -0.9502  0.8238
16719SOL     OW55993   7.130   3.710   4.387  0.2208 -0.9554  0.5852
16719SOL    HW155994   7.217   3.672   4.397  0.1102 -1.2549  0.4155
16719SOL    HW255995   7.071   3.635   4.385  0.0354 -0.8017 -0.1250
16720SOL     OW55996   8.530   1.009   9.610 -0.1931  0.5774  0.1522
16720SOL    HW155997   8.482   0.936   9.572  0.6673  0.0461  0.0668
16720SOL    HW255998   8.528   0.993   9.705 -1.0511  1.1058  0.2345
16721SOL     OW55999   7.586   5.927   5.943  0.1769  0.2048  0.9588
16721SOL    HW156000   7.607   5.897   6.032  1.1743  1.0365  1.0256
16721SOL    HW256001   7.529   6.002   5.956 -1.8256 -1.2173  0.8048
16722SOL     OW56002   5.035   6.335   5.591  0.2056 -0.1564  0.4533
16722SOL    HW156003   4.956   6.296   5.630 -0.6746  1.7493  0.6963
16722SOL    HW256004   5.007   6.366   5.505  0.9943 -0.4677  0.0772
16723SOL     OW56005  11.015   2.640   6.353 -0.7047  0.0024 -0.5807
16723SOL    HW156006  10.939   2.648   6.410 -0.4165 -0.4958 -0.1083
16723SOL    HW256007  11.044   2.549   6.366  0.0754  0.2426 -0.6110
16724SOL     OW56008   1.675   1.077   1.041  0.1411  0.0120 -0.0871
16724SOL    HW156009   1.646   1.034   1.122  0.7169  0.4251  0.3440
16724SOL    HW256010   1.688   1.005   0.979  3.4044 -0.8017  1.3035
16725SOL     OW56011  10.643  12.040   0.977 -0.4606  0.7255 -0.1852
16725SOL    HW156012  10.607  12.028   0.889  1.2227  0.8884 -0.9248
16725SOL    HW256013  10.725  11.991   0.977  0.8065  2.7314  0.4715
16726SOL     OW56014  11.998   1.815   9.860  0.1516 -0.1289 -0.4203
16726SOL    HW156015  12.031   1.734   9.899 -1.7343 -0.2156  1.1633
16726SOL    HW256016  11.915   1.831   9.905 -0.5150  1.6116 -2.1286
16727SOL     OW56017   0.411   7.233   8.000  0.5127  0.0703  0.4240
16727SOL    HW156018   0.369   7.254   8.084 -0.5724 -0.1490 -0.0507
16727SOL    HW256019   0.482   7.297   7.993 -2.0752  3.1520 -0.5448
16728SOL     OW56020  11.843   9.478   2.227  0.2878 -0.4928  0.6317
16728SOL    HW156021  11.914   9.507   2.170  0.2008 -0.8219  0.3573
16728SOL    HW256022  11.768   9.531   2.202  0.2655 -0.5950  0.4830
16729SOL     OW56023   8.972   1.469  11.960 -0.2762 -0.0140 -0.2847
16729SOL    HW156024   8.892   1.451  12.009 -1.4231  0.5008 -1.9221
16729SOL    HW256025   8.973   1.404  11.890  1.3664 -0.7650  0.3838
16730SOL     OW56026  11.067   7.530   3.908  0.0851 -0.3514  0.8512
16730SOL    HW156027  11.143   7.538   3.850 -0.1948  1.9771  0.7351
16730SOL    HW256028  11.105   7.512   3.994  0.6133 -1.4650  0.4116
16731SOL     OW56029  11.316   0.844   0.333  0.3409 -0.6478  0.0189
16731SOL    HW156030  11.397   0.809   0.295  0.8553  0.3801  0.1483
16731SOL    HW256031  11.318   0.937   0.311 -1.3035 -0.7810 -0.8524
16732SOL     OW56032  10.332  11.824  10.940 -0.0973  0.7111 -0.0400
16732SOL    HW156033  10.318  11.751  10.880  2.0799 -1.4535  1.9007
16732SOL    HW256034  10.378  11.889  10.888  0.2021 -0.3586 -1.1676
16733SOL     OW56035  11.832   3.498   9.701  0.5044 -0.1794 -0.1454
16733SOL    HW156036  11.786   3.435   9.757 -0.4183 -0.5081 -1.2466
16733SOL    HW256037  11.877   3.445   9.636  0.8224  0.2397 -0.2710
16734SOL     OW56038  11.765   9.163   7.596 -0.8414  0.4654 -0.0213
16734SOL    HW156039  11.830   9.141   7.662  0.0243 -0.4287 -1.1369
16734SOL    HW256040  11.757   9.259   7.601  0.7046  0.6159  0.0107
16735SOL     OW56041   3.023   4.389  11.214 -0.1364 -0.3226 -0.2442
16735SOL    HW156042   3.037   4.442  11.136 -1.1390  0.8102  0.3290
16735SOL    HW256043   3.103   4.336  11.220  1.4404  1.9165 -0.2039
16736SOL     OW56044   5.491   7.569   7.964 -0.3027  0.3192 -0.2659
16736SOL    HW156045   5.424   7.637   7.963 -0.0197  0.5960 -0.3298
16736SOL    HW256046   5.533   7.577   8.050  0.1187  0.6041 -0.4974
16737SOL     OW56047   8.455   2.758   2.314 -0.2060 -0.3417  0.1726
16737SOL    HW156048   8.397   2.682   2.314 -0.7550 -0.0090  2.9913
16737SOL    HW256049   8.543   2.720   2.312 -0.4772 -1.0249  0.6991
16738SOL     OW56050  10.962   1.884   9.176 -0.1690  0.6913 -0.7971
16738SOL    HW156051  11.053   1.879   9.148 -0.3131 -1.2457 -1.0445
16738SOL    HW256052  10.911   1.872   9.096 -0.6264  0.1448 -0.4300
16739SOL     OW56053   2.088   7.299   5.377 -0.0617  0.1205 -0.0307
16739SOL    HW156054   2.009   7.338   5.341  0.3915  1.5979  0.4943
16739SOL    HW256055   2.134   7.264   5.301 -1.1911 -0.7403 -0.3412
16740SOL     OW56056   5.780   2.257  10.018 -0.3609  0.4504 -0.7691
16740SOL    HW156057   5.714   2.218   9.959 -0.7356  1.4257 -1.0165
16740SOL    HW256058   5.778   2.350   9.996  0.7983  0.5516 -0.4601
16741SOL     OW56059   8.073   1.029   1.112 -0.0722 -0.1650  0.6479
16741SOL    HW156060   8.062   0.946   1.065  0.3404  0.3023 -0.3005
16741SOL    HW256061   7.988   1.073   1.102  0.4361  0.5383 -0.9067
16742SOL     OW56062  11.532  10.403   4.241 -0.3302 -0.3818  0.3146
16742SOL    HW156063  11.570  10.458   4.173  0.1986  0.0958  0.9871
16742SOL    HW256064  11.567  10.438   4.323 -2.0899 -0.0222  0.9579
16743SOL     OW56065   7.573   1.913   3.197 -0.3346  0.6741 -0.3527
16743SOL    HW156066   7.661   1.933   3.230 -0.1254 -0.1299 -0.3945
16743SOL    HW256067   7.588   1.884   3.107 -0.3126 -2.0158  0.4267
16744SOL     OW56068   0.010   0.608   2.854 -0.7368  0.6440 -0.0893
16744SOL    HW156069   0.087   0.633   2.905 -0.4524 -0.2873 -0.0441
16744SOL    HW256070   0.025   0.646   2.768  0.4588 -0.6720 -0.5001
16745SOL     OW56071   7.849   4.204  10.777 -0.5927 -0.3384 -0.1393
16745SOL    HW156072   7.862   4.260  10.701 -1.3586  0.8738  0.5788
16745SOL    HW256073   7.915   4.233  10.840 -0.4420 -0.8289 -0.0643
16746SOL     OW56074  10.810   1.499   1.704 -0.2932 -0.1053 -0.2365
16746SOL    HW156075  10.762   1.509   1.622 -0.1767 -1.6387 -0.5326
16746SOL    HW256076  10.836   1.406   1.705  1.3355  0.3211  0.6364
16747SOL     OW56077  11.798   4.878   4.502 -0.1725 -0.1521 -0.1593
16747SOL    HW156078  11.887   4.851   4.476  0.3283  0.1433  1.1700
16747SOL    HW256079  11.812   4.942   4.572 -1.4477 -0.8663  0.7935
16748SOL     OW56080   6.789   4.818   1.905 -0.2690 -0.6600 -0.0501
16748SOL    HW156081   6.801   4.725   1.925  1.4272 -0.2912  0.8174
16748SOL    HW256082   6.714   4.845   1.960 -0.9268 -1.5453 -0.4945
16749SOL     OW56083  11.575   9.098   6.931  0.2749  0.0922  0.0111
16749SOL    HW156084  11.491   9.128   6.898  0.1067 -0.8959 -0.5018
16749SOL    HW256085  11.555   9.060   7.017  0.3222  0.5369  0.2186
16750SOL     OW56086   0.379   1.392  10.034  0.1618 -0.3268  0.0568
16750SOL    HW156087   0.440   1.463  10.054 -1.6638  1.1688  0.6414
16750SOL    HW256088   0.336   1.374  10.118 -2.2221  0.7217 -0.8554
16751SOL     OW56089   7.940   7.146   0.117  0.1773 -0.2322 -0.5198
16751SOL    HW156090   7.908   7.090   0.046  1.5962 -0.6475 -0.8634
16751SOL    HW256091   8.034   7.131   0.118  0.2296  0.0724  1.2115
16752SOL     OW56092  11.640   7.846   9.027  0.6490 -0.3537  0.3072
16752SOL    HW156093  11.570   7.865   8.964 -0.3127  1.0347  1.7274
16752SOL    HW256094  11.613   7.764   9.069 -0.2550  0.2685  0.9742
16753SOL     OW56095   0.679  10.246  11.641 -0.8361 -0.3687 -0.1845
16753SOL    HW156096   0.632  10.329  11.639  1.1037  0.8366  1.1723
16753SOL    HW256097   0.719  10.239  11.554 -0.5164  0.4192 -0.1048
16754SOL     OW56098   0.270   1.388   9.777 -0.1062  0.3176 -0.7123
16754SOL    HW156099   0.182   1.427   9.782 -0.2405 -0.0945  0.6412
16754SOL    HW256100   0.304   1.395   9.867  0.5614 -1.0853 -0.8337
16755SOL     OW56101   2.543   4.880   3.244  0.2195  0.3114 -0.2798
16755SOL    HW156102   2.625   4.881   3.195 -1.3419  1.8629 -3.1139
16755SOL    HW256103   2.564   4.923   3.327  2.4715 -0.3689 -0.4253
16756SOL     OW56104   8.226   9.297   6.989  0.0162 -0.0269  0.6139
16756SOL    HW156105   8.258   9.353   7.060  1.2290 -1.2981  1.1150
16756SOL    HW256106   8.166   9.353   6.940 -0.0917  1.1903  2.0523
16757SOL     OW56107   6.767   0.670   3.815 -0.1820  0.0053  0.5282
16757SOL    HW156108   6.790   0.601   3.752 -0.2468  0.7859 -0.3798
16757SOL    HW256109   6.677   0.693   3.792 -0.1704  0.3640  0.8546
16758SOL     OW56110  10.764   5.787   3.184  0.2495  0.3456  0.3387
16758SOL    HW156111  10.779   5.710   3.239  0.5931 -0.7076 -1.1608
16758SOL    HW256112  10.670   5.787   3.168  0.1334  0.7212  1.0044
16759SOL     OW56113   6.965   9.542   4.262  0.1708  0.4636 -0.2179
16759SOL    HW156114   6.996   9.619   4.310  1.0336 -0.1753  0.2830
16759SOL    HW256115   6.928   9.577   4.181 -1.3668  1.5864  0.9144
16760SOL     OW56116   6.876   4.872   8.787  0.4108  0.4768 -0.2004
16760SOL    HW156117   6.908   4.946   8.839  2.1708  0.1998 -0.8307
16760SOL    HW256118   6.843   4.810   8.852  0.7909  0.9597  0.4674
16761SOL     OW56119   4.153   3.871   2.631 -0.2278  0.5010  0.1182
16761SOL    HW156120   4.236   3.844   2.672 -0.9749  0.3518  1.6130
16761SOL    HW256121   4.113   3.928   2.697 -0.6172  1.8418 -1.2351
16762SOL     OW56122   7.523   2.369  10.225  0.0813  0.0872  0.1761
16762SOL    HW156123   7.471   2.375  10.145  0.2780  0.6042  0.0826
16762SOL    HW256124   7.465   2.404  10.294 -0.1177 -0.4331  0.2799
16763SOL     OW56125   9.497   2.202   3.971  0.0639  0.1597 -0.4414
16763SOL    HW156126   9.553   2.255   3.914  0.3539  0.9888  0.5793
16763SOL    HW256127   9.549   2.188   4.050 -0.4537 -0.6798 -0.2363
16764SOL     OW56128   9.557  10.803   6.506 -0.2656 -0.1367  0.5408
16764SOL    HW156129   9.472  10.847   6.506 -1.3380 -2.0706 -0.6990
16764SOL    HW256130   9.614  10.861   6.454 -0.7795  1.1901  1.4027
16765SOL     OW56131   3.800   2.691  10.330 -0.1463 -0.1190 -0.0949
16765SOL    HW156132   3.717   2.644  10.334  0.0664 -0.4433  0.6785
16765SOL    HW256133   3.808   2.733  10.415  0.4652 -0.0522 -0.1785
16766SOL     OW56134   6.954  10.346   0.538  0.0435  0.2781  0.6395
16766SOL    HW156135   7.032  10.401   0.544  0.1998 -0.0371  1.5406
16766SOL    HW256136   6.893  10.383   0.602 -0.0736 -0.2409  0.8347
16767SOL     OW56137   3.106  10.800   2.377  0.4028 -0.0429  0.4364
16767SOL    HW156138   3.075  10.852   2.302 -0.4868  1.3948  1.7455
16767SOL    HW256139   3.028  10.756   2.410  0.5160  0.3738  1.2946
16768SOL     OW56140   3.841   8.457   4.228 -0.2609  0.4283 -0.3436
16768SOL    HW156141   3.844   8.457   4.132  0.3195  1.0357 -0.3296
16768SOL    HW256142   3.906   8.393   4.254 -0.6359  0.0390 -0.3574
16769SOL     OW56143   0.272   7.804   8.023  0.3535 -0.0384  0.1269
16769SOL    HW156144   0.300   7.844   8.105  1.9523 -0.6576 -0.0675
16769SOL    HW256145   0.260   7.711   8.044  0.0386 -0.0714 -0.1774
16770SOL     OW56146   8.674  10.036   8.636 -0.0560 -0.3795  0.6875
16770SOL    HW156147   8.710  10.121   8.664 -0.3834 -0.1802  0.5162
16770SOL    HW256148   8.715  10.019   8.551  1.2417 -1.1759  1.4465
16771SOL     OW56149   3.595   7.886   8.689 -0.2217  0.9779 -0.5634
16771SOL    HW156150   3.690   7.882   8.704 -0.3747  0.7605  0.4387
16771SOL    HW256151   3.557   7.876   8.776 -1.1453  2.6965 -0.7377
16772SOL     OW56152   8.931  10.348   5.712  0.1177  0.4318 -0.2904
16772SOL    HW156153   8.931  10.303   5.796 -0.9621  2.9445  1.1717
16772SOL    HW256154   9.008  10.406   5.716 -0.7502  1.6289 -0.3703
16773SOL     OW56155  11.372   4.637   2.079 -0.1742  0.2009 -0.6591
16773SOL    HW156156  11.296   4.695   2.071 -1.0067 -0.7336  0.1506
16773SOL    HW256157  11.380   4.621   2.173  0.1746 -0.8120 -0.8468
16774SOL     OW56158   2.087   2.503   1.031  0.4660 -0.3439  0.0506
16774SOL    HW156159   2.018   2.486   0.967  0.7809 -1.7669  0.0617
16774SOL    HW256160   2.129   2.583   1.001 -0.7858  0.2078 -0.2984
16775SOL     OW56161   6.871   6.477   8.307 -0.3659  0.7584  0.2292
16775SOL    HW156162   6.862   6.570   8.328  0.1800  0.3429  2.6014
16775SOL    HW256163   6.965   6.461   8.310 -0.2861  0.5126 -2.1988
16776SOL     OW56164  10.514  12.073   3.659 -0.0194  0.3203  0.4175
16776SOL    HW156165  10.419  12.066   3.657  0.0221 -0.1559  0.1532
16776SOL    HW256166  10.542  12.003   3.718  0.1267  0.9014  1.0504
16777SOL     OW56167   5.890   4.018   3.513  0.5357 -0.4075 -0.3379
16777SOL    HW156168   5.806   4.063   3.500  0.2600 -1.0579 -0.9160
16777SOL    HW256169   5.865   3.929   3.539  1.0663 -0.3168  0.5425
16778SOL     OW56170   1.166   3.993   7.093  0.4076  0.6846  0.2923
16778SOL    HW156171   1.212   3.977   7.011  2.0943 -1.6771  1.5785
16778SOL    HW256172   1.082   3.949   7.083  1.3088 -1.1389  0.4073
16779SOL     OW56173   7.325   0.780   3.771  0.2158 -0.0130 -0.4600
16779SOL    HW156174   7.299   0.688   3.782 -0.0295 -0.0735 -1.3962
16779SOL    HW256175   7.420   0.780   3.780  0.2497 -0.4238 -0.7845
16780SOL     OW56176   1.453   7.619   5.622  0.4643 -0.2288 -0.3852
16780SOL    HW156177   1.378   7.672   5.595  0.5008 -2.0939 -5.0422
16780SOL    HW256178   1.416   7.532   5.637  1.2867 -0.4449  0.4639
16781SOL     OW56179   9.042   4.835   6.533  0.2617  0.3016 -0.3201
16781SOL    HW156180   9.058   4.910   6.590  1.4847 -2.0093  2.6741
16781SOL    HW256181   9.104   4.846   6.461  1.1295  1.6393  0.5854
16782SOL     OW56182  10.996   0.697   3.302 -0.4660 -0.0352 -0.0516
16782SOL    HW156183  10.912   0.674   3.262 -0.1621 -0.2250 -0.5943
16782SOL    HW256184  11.056   0.628   3.273  0.5685  1.6139 -2.0200
16783SOL     OW56185   0.609  10.529   0.792 -0.1059 -0.4722 -1.0400
16783SOL    HW156186   0.551  10.566   0.726  0.7437  0.0281 -1.5304
16783SOL    HW256187   0.691  10.576   0.780  0.1208 -0.5121  0.2532
16784SOL     OW56188   5.375   2.460   5.719 -0.3924  0.2419  0.6482
16784SOL    HW156189   5.441   2.493   5.780  1.2222  0.0715 -0.9428
16784SOL    HW256190   5.391   2.365   5.716  1.1452  0.4924 -1.7435
16785SOL     OW56191   8.882   9.564   6.600 -0.3336  0.7689  0.2781
16785SOL    HW156192   8.849   9.524   6.519  2.6216 -1.7460  0.1552
16785SOL    HW256193   8.924   9.644   6.571 -1.4193  1.1621 -0.2835
16786SOL     OW56194  12.288   4.023   0.661  0.4577 -0.0621 -0.4172
16786SOL    HW156195  12.217   4.084   0.677  1.2132  0.6920  0.1747
16786SOL    HW256196  12.246   3.946   0.623 -0.5859  0.5886 -0.6131
16787SOL     OW56197  10.595   8.971   8.769  0.1325 -0.0944 -0.0098
16787SOL    HW156198  10.581   9.063   8.745 -0.0671 -0.3164 -0.7592
16787SOL    HW256199  10.507   8.936   8.782  0.2518  0.3789  2.5212
16788SOL     OW56200   3.921   1.050   1.289 -0.1833  0.1624 -0.0263
16788SOL    HW156201   4.012   1.077   1.306  0.1433  0.0696 -1.5056
16788SOL    HW256202   3.919   0.957   1.311  0.1029  0.1441 -0.0672
16789SOL     OW56203   1.973  11.152   7.659  0.3714 -0.2891  0.1216
16789SOL    HW156204   2.055  11.169   7.707 -0.2544  1.9838  0.5229
16789SOL    HW256205   1.938  11.073   7.698  1.8989 -0.7625  0.6112
16790SOL     OW56206   5.059   3.526   7.019  0.4515 -0.1690  0.1542
16790SOL    HW156207   4.977   3.574   7.007  0.7538  0.2259 -0.3952
16790SOL    HW256208   5.122   3.594   7.044  0.9878 -0.1962 -1.0728
16791SOL     OW56209   5.848   5.149   7.995  0.5160  0.3361 -0.0085
16791SOL    HW156210   5.848   5.204   7.916 -2.2447 -1.9238 -1.7974
16791SOL    HW256211   5.757   5.152   8.026  0.6587 -1.8401  0.7686
16792SOL     OW56212  10.436   8.945   7.237  0.2815  0.2405  0.1744
16792SOL    HW156213  10.487   8.955   7.157 -0.5827  1.0657 -0.3025
16792SOL    HW256214  10.353   8.906   7.208 -0.1727  0.8591  0.6022
16793SOL     OW56215   7.891   6.157   6.653  0.3308 -0.3164 -0.5425
16793SOL    HW156216   7.983   6.167   6.677  0.9137 -1.3330 -2.1632
16793SOL    HW256217   7.884   6.067   6.622 -1.6258 -0.7980  1.1246
16794SOL     OW56218   0.003   5.488   8.244  0.1534  0.3898  0.0231
16794SOL    HW156219   0.042   5.482   8.156  0.6102  0.5346  0.2095
16794SOL    HW256220  -0.070   5.549   8.234 -0.0080  0.1410 -0.3267
16795SOL     OW56221   8.462   4.845   3.143  0.3422 -0.2032 -0.0424
16795SOL    HW156222   8.373   4.880   3.155  0.0583 -1.6725  3.6953
16795SOL    HW256223   8.515   4.892   3.207  1.9852 -0.3866 -1.2073
16796SOL     OW56224  12.031   6.775   8.970 -0.1918  0.2410 -0.4881
16796SOL    HW156225  11.976   6.697   8.977 -1.4157  0.7710 -3.1713
16796SOL    HW256226  12.121   6.741   8.972 -0.6820 -1.1898 -1.1957
16797SOL     OW56227   2.627   4.574  10.837 -0.0176  0.0366 -0.0791
16797SOL    HW156228   2.604   4.497  10.888 -0.8375 -0.4477 -1.1446
16797SOL    HW256229   2.551   4.590  10.782 -0.0865  1.9539  0.5003
16798SOL     OW56230   1.895   2.705  11.470 -0.3832 -0.2251 -0.2589
16798SOL    HW156231   1.816   2.656  11.495 -0.4986  1.0664  2.1514
16798SOL    HW256232   1.967   2.657  11.510  0.0090 -0.8756 -1.6780
16799SOL     OW56233  11.402   0.441   8.329 -0.5067 -0.0637  0.3402
16799SOL    HW156234  11.387   0.473   8.417 -0.4474 -0.7486  0.6027
16799SOL    HW256235  11.491   0.470   8.308 -1.4390  2.3808 -0.5139
16800SOL     OW56236   4.349   8.153   7.699 -0.3535 -0.4428 -0.6393
16800SOL    HW156237   4.434   8.196   7.692 -0.6930  0.2777 -0.4779
16800SOL    HW256238   4.325   8.131   7.609 -0.4501  0.2669 -0.7932
16801SOL     OW56239   5.401   0.873   7.886 -0.2712 -0.1368 -0.2089
16801SOL    HW156240   5.329   0.832   7.933 -1.4371  0.8992 -1.0253
16801SOL    HW256241   5.445   0.927   7.951 -1.1477  0.3640 -0.0208
16802SOL     OW56242   5.998   3.122   0.004  0.0647  0.1963 -0.0205
16802SOL    HW156243   5.988   3.048  -0.056  1.9416  0.9610 -1.3866
16802SOL    HW256244   5.939   3.189  -0.029 -0.5328 -0.1533  0.3267
16803SOL     OW56245   3.072   1.461   9.652  0.2238  0.2188  0.2604
16803SOL    HW156246   3.026   1.489   9.573  0.8058  1.2939  0.2737
16803SOL    HW256247   3.163   1.451   9.623  0.5339  1.1138  0.8926
16804SOL     OW56248  12.124   6.974   1.028 -0.3024  0.6270 -0.1760
16804SOL    HW156249  12.111   6.968   0.934 -0.7939 -0.1840 -0.0735
16804SOL    HW256250  12.110   7.066   1.049 -0.6395  0.7316 -0.8368
16805SOL     OW56251   3.264   5.433   1.759  0.0952  0.5455 -0.0175
16805SOL    HW156252   3.269   5.457   1.667  2.3583 -0.2632 -0.1846
16805SOL    HW256253   3.351   5.455   1.794 -0.0526 -0.9603  1.4258
16806SOL     OW56254   5.063  11.881  10.084  0.0417  0.1220 -0.4128
16806SOL    HW156255   5.054  11.786  10.080  0.1081  0.1202 -0.5286
16806SOL    HW256256   5.096  11.899  10.172  1.0492 -0.0468 -0.7500
16807SOL     OW56257   4.806   9.030   8.304  0.3625  0.7602  0.0786
16807SOL    HW156258   4.786   8.947   8.259 -0.8056  0.7349  0.6146
16807SOL    HW256259   4.768   9.019   8.391 -1.2504  2.4683 -0.3547
16808SOL     OW56260   2.950   7.200   6.300 -0.1445 -0.8458  0.4711
16808SOL    HW156261   2.877   7.170   6.246 -0.6312  0.1170  0.5834
16808SOL    HW256262   2.975   7.123   6.352 -1.5068 -1.0020  0.9214
16809SOL     OW56263   5.430   4.609  11.204  0.4295  0.3663 -0.1936
16809SOL    HW156264   5.497   4.543  11.222  0.6901  0.7922  0.4304
16809SOL    HW256265   5.402   4.591  11.114  1.0215 -0.1298 -0.2847
16810SOL     OW56266  11.702   3.343   4.930 -0.0411 -0.1064 -0.2431
16810SOL    HW156267  11.645   3.367   4.857  1.1852  0.4915 -1.0266
16810SOL    HW256268  11.787   3.379   4.907  0.9508 -1.9362  0.3552
16811SOL     OW56269   0.204   1.827  11.290  1.0343 -0.1940 -0.4290
16811SOL    HW156270   0.165   1.829  11.202 -0.4227  0.2218  0.2095
16811SOL    HW256271   0.204   1.919  11.318 -0.5676 -0.5567  0.8757
16812SOL     OW56272   0.345  11.991   9.099 -0.5138  0.5452 -0.5411
16812SOL    HW156273   0.370  11.925   9.164 -1.7572  0.8343  0.2545
16812SOL    HW256274   0.330  12.070   9.151 -0.8978  0.9494 -1.2683
16813SOL     OW56275   0.814   0.789  11.278 -0.2716  0.2535 -0.0856
16813SOL    HW156276   0.801   0.706  11.233  0.5665  0.2685 -0.3621
16813SOL    HW256277   0.812   0.767  11.371  1.9014 -0.4125 -0.1498
16814SOL     OW56278   8.978   4.606   7.072  0.0302  0.2910  0.2257
16814SOL    HW156279   8.992   4.684   7.018 -0.1091  1.2184  1.4713
16814SOL    HW256280   9.042   4.615   7.143  1.4527 -1.8140 -0.6867
16815SOL     OW56281   3.407   0.016   8.403  0.1791 -0.9838  0.5586
16815SOL    HW156282   3.403   0.007   8.498  1.5138 -2.7110  0.4983
16815SOL    HW256283   3.372  -0.067   8.370  1.0826 -1.0012 -0.4152
16816SOL     OW56284   6.473   5.256   1.568 -0.0576 -0.1319 -0.0233
16816SOL    HW156285   6.524   5.327   1.607  1.5676  0.1091 -2.4053
16816SOL    HW256286   6.393   5.298   1.538  0.4594  0.5416 -0.5183
16817SOL     OW56287   9.072  11.820  11.684  0.0133  0.3208  0.5873
16817SOL    HW156288   9.134  11.763  11.638  0.8259  0.4924  1.4288
16817SOL    HW256289   9.005  11.760  11.717 -0.4144  0.1643 -0.5479
16818SOL     OW56290   2.161   0.817   1.285 -0.4965  0.1017  0.4033
16818SOL    HW156291   2.256   0.824   1.293 -0.4752 -0.3644  0.6006
16818SOL    HW256292   2.134   0.768   1.362 -0.9064  0.2934  0.3821
16819SOL     OW56293   1.422   0.253  11.469  0.6378 -0.3448 -0.4224
16819SOL    HW156294   1.450   0.241  11.379 -0.8711  2.7430 -1.4090
16819SOL    HW256295   1.333   0.219  11.471  1.5853 -3.1568  0.8110
16820SOL     OW56296   5.998   5.112   9.819 -0.0400 -0.3206  0.1291
16820SOL    HW156297   6.048   5.165   9.757  0.3995 -0.9959 -0.1095
16820SOL    HW256298   5.950   5.050   9.763 -2.0815  1.0435  0.2632
16821SOL     OW56299   0.537   7.471   9.628 -0.3006 -0.1015 -0.0227
16821SOL    HW156300   0.527   7.378   9.610 -1.2266 -0.1036  0.4594
16821SOL    HW256301   0.512   7.515   9.547  0.2174 -0.2661 -0.2760
16822SOL     OW56302   3.305   9.562   0.867  0.8556  0.8796 -0.4935
16822SOL    HW156303   3.299   9.500   0.794  1.2787  1.0998 -0.7180
16822SOL    HW256304   3.225   9.546   0.918  0.8789  0.2681 -0.6379
16823SOL     OW56305   2.955   6.756  11.969  0.4809 -0.2265  0.1374
16823SOL    HW156306   2.891   6.728  11.903 -0.1419  2.4391 -0.5196
16823SOL    HW256307   2.939   6.699  12.044 -2.7806  0.3606  0.0345
16824SOL     OW56308   3.774  10.144   9.264  0.2588 -0.5239 -0.1820
16824SOL    HW156309   3.855  10.116   9.223 -0.6585 -0.4812 -2.1228
16824SOL    HW256310   3.800  10.216   9.322  1.7587 -1.3451  0.2155
16825SOL     OW56311   4.251   4.526   5.737  0.0172  0.1276  0.7321
16825SOL    HW156312   4.206   4.580   5.672  1.6049  0.8852  0.1974
16825SOL    HW256313   4.199   4.446   5.742 -1.2641  0.8805  0.0343
16826SOL     OW56314   5.711   5.173  10.803 -0.6411 -0.2188  0.4510
16826SOL    HW156315   5.799   5.154  10.770 -0.0292 -0.5395  2.1647
16826SOL    HW256316   5.683   5.250  10.753  0.2135 -0.6942 -0.7948
16827SOL     OW56317   8.205   8.907   8.592  0.3540  0.8720 -0.1420
16827SOL    HW156318   8.262   8.832   8.612 -0.2051  1.0632  2.6732
16827SOL    HW256319   8.263   8.983   8.600  0.0321  0.9871  1.6272
16828SOL     OW56320   4.156   2.181  10.417 -0.0061  0.7956 -0.0245
16828SOL    HW156321   4.252   2.180  10.411  0.1105  2.9461  0.5812
16828SOL    HW256322   4.138   2.200  10.509 -1.0706 -0.6652  0.1066
16829SOL     OW56323   1.650   2.275   6.502  0.5020  0.2192 -0.2661
16829SOL    HW156324   1.652   2.258   6.408 -1.6795 -0.1361 -0.3019
16829SOL    HW256325   1.633   2.190   6.542  2.2121  0.2193  0.5581
16830SOL     OW56326   1.309   0.269   7.258 -0.0179 -0.0675  0.3726
16830SOL    HW156327   1.254   0.283   7.335  1.1021  1.6024  0.9275
16830SOL    HW256328   1.340   0.179   7.267 -1.6903 -0.6539  0.6493
16831SOL     OW56329  11.909   5.374   6.132 -0.2554 -0.4150 -0.1313
16831SOL    HW156330  11.968   5.363   6.057 -1.2053 -1.5458 -0.7316
16831SOL    HW256331  11.940   5.310   6.196  0.9600  0.9841  0.7577
16832SOL     OW56332   3.208   5.568  10.167 -0.5874 -0.2496  0.3755
16832SOL    HW156333   3.126   5.593  10.125 -1.6975  0.2953  2.7365
16832SOL    HW256334   3.183   5.535  10.253  1.5929 -1.0886  0.7679
16833SOL     OW56335   1.890   4.103   2.497  0.0616 -0.5726  0.1787
16833SOL    HW156336   1.828   4.052   2.549  1.2410  0.7614  3.1262
16833SOL    HW256337   1.864   4.194   2.511  0.7390 -0.1347 -1.2328
16834SOL     OW56338   8.473   5.209   7.931  0.4420 -0.2831  0.6029
16834SOL    HW156339   8.536   5.269   7.971  0.5306  0.1786 -0.2071
16834SOL    HW256340   8.527   5.141   7.891  0.4688  0.3565 -0.4862
16835SOL     OW56341  11.168  11.028   9.617  0.0265  0.3718 -0.2394
16835SOL    HW156342  11.210  11.108   9.586 -0.5649  0.0086 -2.0729
16835SOL    HW256343  11.238  10.963   9.618 -0.2754 -0.1028 -2.7970
16836SOL     OW56344   8.081   1.755  11.649  0.0365 -0.1523 -0.0900
16836SOL    HW156345   8.054   1.814  11.579  1.0582  0.4703  0.0103
16836SOL    HW256346   8.059   1.803  11.730  0.9119  0.1326 -0.0080
16837SOL     OW56347   6.678   2.121   0.838  0.5088  0.0929  0.7845
16837SOL    HW156348   6.698   2.213   0.853 -1.1942  0.8560 -1.1432
16837SOL    HW256349   6.709   2.104   0.749 -0.8934 -0.6201  0.4009
16838SOL     OW56350  10.495   1.046  12.122 -0.6301  0.6369  0.4695
16838SOL    HW156351  10.423   1.000  12.165 -2.9197  1.7868 -1.8269
16838SOL    HW256352  10.492   1.134  12.159 -0.5489  0.7481  0.2110
16839SOL     OW56353   5.950   6.437  10.732 -0.1029  0.2995 -0.4108
16839SOL    HW156354   6.030   6.456  10.683 -0.5055 -1.4320 -1.8453
16839SOL    HW256355   5.885   6.497  10.697  0.4346  1.4774  0.5232
16840SOL     OW56356   2.926   6.938   4.080 -0.1438  0.1723  0.0470
16840SOL    HW156357   2.998   6.935   4.016  0.5205 -2.8210  0.7847
16840SOL    HW256358   2.930   7.027   4.116  2.1344  0.6284 -1.1245
16841SOL     OW56359   6.748   4.510   2.217  0.0548  0.7131 -0.5483
16841SOL    HW156360   6.688   4.499   2.290  1.4256 -1.4001  0.3517
16841SOL    HW256361   6.779   4.600   2.224 -1.2766  1.1312  0.3032
16842SOL     OW56362   0.024   1.471   5.759  0.1688  0.0587 -0.4798
16842SOL    HW156363   0.065   1.399   5.808  1.6062  1.3312  0.2953
16842SOL    HW256364   0.010   1.539   5.825 -0.0334  0.9310 -1.4119
16843SOL     OW56365   0.497   2.379   8.894  0.7905 -0.4888  0.0884
16843SOL    HW156366   0.570   2.439   8.906  0.3802  0.1009 -0.2872
16843SOL    HW256367   0.509   2.312   8.961  0.0708  1.1940  1.9978
16844SOL     OW56368   0.425   0.178   0.701 -0.7416 -0.4294  0.5963
16844SOL    HW156369   0.360   0.115   0.732 -1.0652  0.5307  1.9979
16844SOL    HW256370   0.472   0.205   0.780  0.7540 -0.4112 -0.2600
16845SOL     OW56371   9.576  11.956   3.720  0.3222  0.3905 -0.2167
16845SOL    HW156372   9.512  12.025   3.702 -0.5379 -1.0532 -3.4131
16845SOL    HW256373   9.532  11.896   3.780 -1.5014 -0.6401 -2.4534
16846SOL     OW56374   8.351   8.336   0.750 -0.0410  0.2062  0.5316
16846SOL    HW156375   8.379   8.288   0.672  0.4737 -0.4720  1.1326
16846SOL    HW256376   8.379   8.283   0.824  0.3433  1.3226  1.2171
16847SOL     OW56377  11.212   1.081   5.150  1.4645 -0.0148  0.6191
16847SOL    HW156378  11.274   1.094   5.078  0.2935  1.0037 -0.2422
16847SOL    HW256379  11.200   0.986   5.154  1.0959 -0.0607 -0.9498
16848SOL     OW56380  11.732   5.391   7.655 -0.0573 -0.6042  0.5195
16848SOL    HW156381  11.774   5.368   7.738  0.0135 -0.4817  0.5188
16848SOL    HW256382  11.720   5.308   7.610  4.0225 -0.4664 -1.3585
16849SOL     OW56383  11.324   1.776  11.678  0.5822  0.5702 -0.6025
16849SOL    HW156384  11.415   1.772  11.649  0.4391 -0.7633 -0.9697
16849SOL    HW256385  11.288   1.690  11.655 -0.3258  0.4671  0.9933
16850SOL     OW56386   0.740   0.233   5.006  0.1417  0.3314  0.8615
16850SOL    HW156387   0.785   0.247   4.923 -1.9295  0.8288 -0.2663
16850SOL    HW256388   0.718   0.140   5.006  0.1903  0.3202  0.8678
16851SOL     OW56389   0.530   0.049  11.301  0.0005  0.0180  0.1900
16851SOL    HW156390   0.607   0.102  11.321  0.5264 -0.5178 -0.3871
16851SOL    HW256391   0.456   0.110  11.307  0.3645  0.3662  1.5381
16852SOL     OW56392   8.867   2.415   0.440 -0.2271  0.3483 -0.1783
16852SOL    HW156393   8.783   2.450   0.469  0.3135  1.4024  0.1619
16852SOL    HW256394   8.854   2.397   0.347 -0.5594  1.3674 -0.3399
16853SOL     OW56395   1.366  11.827   0.812  0.0108 -0.2223  0.3866
16853SOL    HW156396   1.434  11.817   0.879 -0.4939 -0.3556  0.8745
16853SOL    HW256397   1.304  11.756   0.829 -0.4959  0.1773  0.2276
16854SOL     OW56398  10.487   1.863  11.091  0.2031  0.1959 -0.1453
16854SOL    HW156399  10.425   1.814  11.144  0.9125 -0.4775  0.0814
16854SOL    HW256400  10.534   1.919  11.154 -0.9302  1.5551 -0.4611
16855SOL     OW56401   2.107   9.959   3.798  0.4063 -0.3426  0.1913
16855SOL    HW156402   2.174  10.027   3.798 -0.1246  0.3209 -2.7659
16855SOL    HW256403   2.145   9.887   3.748 -0.0735 -1.1048  0.8925
16856SOL     OW56404   5.839   0.059  11.911 -0.6318 -0.1859  0.5780
16856SOL    HW156405   5.802   0.054  11.999 -0.3482  0.3677  0.7305
16856SOL    HW256406   5.823  -0.028  11.873 -2.4826  0.1788  0.4641
16857SOL     OW56407  10.808   7.387   0.069  0.3608  0.0861  0.2338
16857SOL    HW156408  10.747   7.326   0.027  1.3808 -0.7980 -0.0106
16857SOL    HW256409  10.827   7.453   0.002 -2.3322  1.9341  1.1326
16858SOL     OW56410   6.455   0.623  11.508 -0.0330 -0.2332  0.0135
16858SOL    HW156411   6.469   0.532  11.533 -0.6123 -0.6081 -0.9481
16858SOL    HW256412   6.518   0.638  11.437 -0.9422 -0.3527 -0.8359
16859SOL     OW56413   3.063   2.548   2.365 -0.3277  0.2996  0.0924
16859SOL    HW156414   3.053   2.454   2.381  0.0809  0.2131 -0.1248
16859SOL    HW256415   2.979   2.576   2.328 -0.0092 -0.2629 -1.1282
16860SOL     OW56416  10.354   5.163   7.697  0.2346  0.3719  0.7233
16860SOL    HW156417  10.306   5.123   7.624  2.6505 -1.7598  0.1631
16860SOL    HW256418  10.331   5.110   7.773  0.6387  0.1918  0.7220
16861SOL     OW56419   0.643   8.603   0.661 -0.7039  0.0452  0.3127
16861SOL    HW156420   0.565   8.649   0.691 -1.0757  0.7449 -1.5899
16861SOL    HW256421   0.613   8.551   0.587  0.8085  1.3278 -1.3075
16862SOL     OW56422  11.227   2.799   2.751  0.1469  0.1981  0.3514
16862SOL    HW156423  11.137   2.819   2.728 -0.0081 -0.6449  0.1975
16862SOL    HW256424  11.273   2.791   2.668 -0.1229 -1.5176  0.3305
16863SOL     OW56425   5.961  11.173  11.978  0.3989  0.5004  0.0404
16863SOL    HW156426   5.905  11.209  11.910 -1.9556 -2.0388  0.4492
16863SOL    HW256427   6.000  11.095  11.937 -0.5376 -0.6892  1.3449
16864SOL     OW56428   3.917   3.853   0.414 -0.0293  0.0082 -0.0935
16864SOL    HW156429   3.892   3.913   0.344  0.1597 -0.1113 -0.2649
16864SOL    HW256430   4.011   3.865   0.424 -0.2757  1.1036  1.1604
16865SOL     OW56431  11.350   6.115  12.128 -0.1211  0.6492  0.3308
16865SOL    HW156432  11.313   6.096  12.042  1.4665  0.0481 -0.2502
16865SOL    HW256433  11.291   6.181  12.165 -1.7928 -0.3185 -0.4887
16866SOL     OW56434   0.251   2.727  11.898  0.0860 -0.3423 -0.0563
16866SOL    HW156435   0.333   2.768  11.927  0.7420 -1.0823 -0.8122
16866SOL    HW256436   0.278   2.661  11.834 -1.0132 -1.3350  0.4582
16867SOL     OW56437  11.708   8.640  12.088  0.0361  0.0132 -0.0706
16867SOL    HW156438  11.622   8.643  12.046  0.2742  0.3691 -0.5337
16867SOL    HW256439  11.691   8.669  12.178 -0.1900  0.9455 -0.3988
16868SOL     OW56440   8.134   8.833   1.055  0.9052  0.2393  0.2682
16868SOL    HW156441   8.204   8.847   0.991 -0.4061  2.3110 -0.8233
16868SOL    HW256442   8.075   8.770   1.012  2.4898 -2.3168  1.6071
16869SOL     OW56443   0.395   2.261  10.058 -0.4425 -0.2476 -0.4003
16869SOL    HW156444   0.450   2.338  10.069  0.1261 -0.3084 -2.4080
16869SOL    HW256445   0.407   2.210  10.138  0.0821  1.1733  0.4443
16870SOL     OW56446   7.503   9.621  12.196  0.1227  0.4407 -0.1858
16870SOL    HW156447   7.505   9.716  12.181  0.0133  1.1702  3.3812
16870SOL    HW256448   7.548   9.610  12.280  2.5147 -3.0506 -1.7052
16871SOL     OW56449   8.310  10.134   9.448 -0.0947 -0.3395  0.1925
16871SOL    HW156450   8.389  10.083   9.430  0.5233  0.9396 -0.9180
16871SOL    HW256451   8.238  10.075   9.425  0.5983 -0.7293 -1.0914
16872SOL     OW56452  11.290   5.563   7.107 -0.2958 -0.0944 -0.0178
16872SOL    HW156453  11.210   5.511   7.120  0.0721 -0.5687  0.3718
16872SOL    HW256454  11.356   5.500   7.080  0.8595 -0.3548  2.9766
16873SOL     OW56455   7.282   4.081   0.182 -0.0787  0.5873 -0.3297
16873SOL    HW156456   7.289   3.986   0.172  0.6299  0.4376  1.2827
16873SOL    HW256457   7.294   4.116   0.093 -1.9803 -0.8693 -1.2256
16874SOL     OW56458   0.789   3.701   7.606  0.4406  0.2078  0.1516
16874SOL    HW156459   0.774   3.633   7.540  1.6311 -0.7601  0.8367
16874SOL    HW256460   0.843   3.766   7.561 -0.6576  0.7128 -0.4924
16875SOL     OW56461   4.488   1.607   1.346 -0.2738 -0.3357 -0.0092
16875SOL    HW156462   4.434   1.680   1.316  0.3726 -0.0450 -0.5208
16875SOL    HW256463   4.577   1.631   1.318 -0.0903 -1.4562 -0.4517
16876SOL     OW56464  10.161   9.744   1.381 -0.2025 -0.3155  0.6329
16876SOL    HW156465  10.199   9.683   1.318 -1.1140  0.5471 -0.8161
16876SOL    HW256466  10.073   9.711   1.397 -0.7339  0.6003 -0.2267
16877SOL     OW56467   4.167   3.481   2.782 -0.5495  0.0675  0.0089
16877SOL    HW156468   4.230   3.549   2.757 -1.3453  0.5302 -0.8230
16877SOL    HW256469   4.220   3.404   2.800  0.2759  0.5400 -0.3350
16878SOL     OW56470   7.969   6.703   1.563 -0.7851 -0.0739  0.0662
16878SOL    HW156471   8.014   6.784   1.589 -1.2438 -0.0187  0.7270
16878SOL    HW256472   7.878   6.730   1.551 -1.0538 -0.6050  0.8771
16879SOL     OW56473   4.371   9.799   0.594  0.0695  0.3656  0.3107
16879SOL    HW156474   4.304   9.867   0.585 -0.4196 -0.2641 -0.9349
16879SOL    HW256475   4.332   9.734   0.652 -2.0326 -1.8495 -3.2326
16880SOL     OW56476  10.103  10.776   8.381 -0.3402  0.2514  0.3662
16880SOL    HW156477  10.193  10.796   8.354 -0.1559 -1.2847 -0.2298
16880SOL    HW256478  10.049  10.834   8.328  0.2668  0.9194  0.4540
16881SOL     OW56479   7.512  10.263   1.962 -0.0968 -0.0640 -0.0927
16881SOL    HW156480   7.448  10.328   1.934  0.4828  0.0907 -1.1110
16881SOL    HW256481   7.553  10.232   1.881  1.7901  0.5291  0.5680
16882SOL     OW56482   0.813   1.797  10.153 -0.1381 -0.2936  0.1914
16882SOL    HW156483   0.852   1.821  10.237  0.6975  0.7409 -0.4729
16882SOL    HW256484   0.759   1.873  10.130 -0.9881 -0.8944  0.1487
16883SOL     OW56485   0.242   1.231   3.189  0.0543  0.4341  0.2660
16883SOL    HW156486   0.234   1.136   3.199  0.5360  0.4488  0.9090
16883SOL    HW256487   0.152   1.262   3.182 -0.1506 -0.0002  0.8067
16884SOL     OW56488   7.805  10.225   3.486 -0.0767  0.1360 -0.1678
16884SOL    HW156489   7.875  10.218   3.551  1.2928 -0.9757 -1.6928
16884SOL    HW256490   7.725  10.234   3.538  0.8754 -1.4093  1.6818
16885SOL     OW56491   4.838   1.270   8.185 -0.4396 -0.4896  0.5594
16885SOL    HW156492   4.753   1.315   8.190  0.4228  1.2717  0.2543
16885SOL    HW256493   4.869   1.288   8.097  0.0199 -1.5769  0.4975
16886SOL     OW56494   6.927   1.531   0.814  0.1315 -0.5653 -0.0593
16886SOL    HW156495   6.833   1.541   0.804  0.1250 -0.7833 -0.2492
16886SOL    HW256496   6.940   1.510   0.906 -0.0604 -1.0849 -0.1440
16887SOL     OW56497  10.592   7.463   1.539 -0.1719 -0.3215  0.1314
16887SOL    HW156498  10.683   7.489   1.541 -0.2522 -0.0562  1.0529
16887SOL    HW256499  10.585   7.403   1.465  0.2803  1.2629 -1.2229
16888SOL     OW56500   5.119   6.305  11.729 -0.7381 -0.1803  0.8288
16888SOL    HW156501   5.201   6.326  11.684 -0.6719 -1.5434  0.2451
16888SOL    HW256502   5.066   6.384  11.721  0.4291  0.6433  1.0241
16889SOL     OW56503   4.741   5.724   4.762  0.0391  0.2013  0.0951
16889SOL    HW156504   4.720   5.646   4.710  0.5031 -0.2328  0.5417
16889SOL    HW256505   4.822   5.701   4.807 -0.7401  0.2707  1.5965
16890SOL     OW56506  10.651   9.424   6.188  0.1139  0.0252  0.3193
16890SOL    HW156507  10.712   9.353   6.168 -0.2706 -0.2492  0.0991
16890SOL    HW256508  10.630   9.463   6.103  0.0360  0.1585  0.3985
16891SOL     OW56509   7.201  11.356   9.511 -0.1595  0.7638  0.2579
16891SOL    HW156510   7.216  11.262   9.524 -0.9093  0.7940  1.5605
16891SOL    HW256511   7.106  11.363   9.501 -0.0165  1.2877 -0.8458
16892SOL     OW56512   9.769  11.454   3.645  0.2520 -0.4391 -0.5413
16892SOL    HW156513   9.759  11.385   3.710 -0.1022 -0.1151 -0.2416
16892SOL    HW256514   9.685  11.456   3.599 -0.6174  1.3306  1.0094
16893SOL     OW56515   8.833   9.316   8.179 -0.1659 -0.2040  0.2781
16893SOL    HW156516   8.808   9.406   8.155  1.0638 -0.2636 -1.4376
16893SOL    HW256517   8.845   9.319   8.274  2.1605  2.1251  0.0278
16894SOL     OW56518   5.486   6.376   3.032  0.4302  0.4893 -0.1478
16894SOL    HW156519   5.413   6.329   3.071 -0.5058  1.6431 -0.4466
16894SOL    HW256520   5.469   6.372   2.938  2.0687 -1.3053 -0.4192
16895SOL     OW56521   1.186   4.577   4.106  0.3578 -0.0581  0.3863
16895SOL    HW156522   1.204   4.625   4.025 -0.9453  2.7785  1.6316
16895SOL    HW256523   1.204   4.485   4.084  3.4161  0.9387 -2.0536
16896SOL     OW56524   2.811   3.970   4.558 -0.5855  0.2087  0.5725
16896SOL    HW156525   2.791   3.883   4.591 -0.7254  0.1937  0.4484
16896SOL    HW256526   2.893   3.994   4.602  0.1797 -0.5398 -0.3880
16897SOL     OW56527   3.358  10.800   2.113  0.3434  0.8554  0.0636
16897SOL    HW156528   3.330  10.891   2.104  0.2424  0.6928 -1.7016
16897SOL    HW256529   3.298  10.751   2.057  1.0946 -0.1491  0.1094
16898SOL     OW56530   1.652   9.727  11.833  0.2994 -0.7478 -0.3341
16898SOL    HW156531   1.657   9.634  11.812  2.2681 -0.4146 -1.6921
16898SOL    HW256532   1.651   9.771  11.748 -0.6928  0.4829  0.2796
16899SOL     OW56533   3.962   6.850   9.371 -0.2620  0.2707  0.9127
16899SOL    HW156534   3.960   6.843   9.467 -0.0505  1.4331  1.0185
16899SOL    HW256535   4.019   6.925   9.354 -0.0862 -0.0878 -0.1423
16900SOL     OW56536  12.067   9.914  10.933  0.0589  0.4972  0.3550
16900SOL    HW156537  12.105   9.972  10.999 -2.2693  0.2888  1.9851
16900SOL    HW256538  12.034   9.839  10.983 -2.0857  0.4825 -0.9536
16901SOL     OW56539   8.661   1.059  11.842  0.2276  0.6349  0.2203
16901SOL    HW156540   8.647   1.139  11.792 -1.8537  0.1219 -0.1249
16901SOL    HW256541   8.725   1.009  11.790  0.3030  1.3604 -0.4064
16902SOL     OW56542   2.596   3.839   3.534  0.0566 -0.1524 -0.3275
16902SOL    HW156543   2.533   3.779   3.573  1.5705 -1.3218  0.4313
16902SOL    HW256544   2.551   3.923   3.533 -0.3982 -0.1486  3.3904
16903SOL     OW56545   8.376   7.488   4.786  0.0114 -0.2022  0.9263
16903SOL    HW156546   8.360   7.539   4.706 -1.5083  0.9559  1.9127
16903SOL    HW256547   8.440   7.423   4.760 -1.9633 -1.2519 -1.8378
16904SOL     OW56548   7.326   3.765   1.105 -0.4913 -0.5090  0.2526
16904SOL    HW156549   7.398   3.705   1.121  0.7534  1.3735  2.1799
16904SOL    HW256550   7.367   3.843   1.067 -1.7164  0.0706  0.0617
16905SOL     OW56551   9.927   1.703   8.764 -0.1678  0.1089  0.3398
16905SOL    HW156552   9.865   1.753   8.819  0.3265 -1.8846  2.8955
16905SOL    HW256553   9.886   1.617   8.755  1.8892 -1.0860  1.6470
16906SOL     OW56554   0.697   4.865  11.091 -0.3709 -0.3099  0.2747
16906SOL    HW156555   0.618   4.817  11.066 -0.2896 -0.9448  1.1665
16906SOL    HW256556   0.665   4.943  11.136 -0.5182  0.8444 -1.7141
16907SOL     OW56557  11.762   3.435  12.319  0.1216 -0.5315  0.0044
16907SOL    HW156558  11.839   3.419  12.372  0.7392 -0.7179 -0.9276
16907SOL    HW256559  11.698   3.371  12.349  0.6509 -1.0026  0.1362
16908SOL     OW56560   6.798   9.034   8.792  0.3466 -0.7400  0.2961
16908SOL    HW156561   6.780   8.951   8.748  0.3133 -1.0216  0.8288
16908SOL    HW256562   6.842   9.088   8.726  0.2411 -1.1323 -0.0935
16909SOL     OW56563   6.207   6.184  11.609 -0.1536 -0.2353  0.1461
16909SOL    HW156564   6.122   6.227  11.620  0.6460  1.1207  1.4585
16909SOL    HW256565   6.270   6.256  11.606  1.0938 -1.2467  0.8317
16910SOL     OW56566   5.684  12.329  12.132 -0.2301 -0.1440 -0.5682
16910SOL    HW156567   5.600  12.373  12.146 -0.8204 -1.2780 -0.4319
16910SOL    HW256568   5.718  12.313  12.220 -1.2216 -2.1696 -0.5080
16911SOL     OW56569   2.012   1.402   6.021 -0.2539 -0.2740  0.6368
16911SOL    HW156570   2.022   1.390   5.927 -1.8021 -0.0961  0.4410
16911SOL    HW256571   2.102   1.416   6.053  0.4457 -1.6825 -0.6024
16912SOL     OW56572   6.489   9.815   4.999  0.4283  0.6969  0.4619
16912SOL    HW156573   6.412   9.767   5.030  1.2155  0.0479  1.4898
16912SOL    HW256574   6.492   9.798   4.905 -0.9411  1.1171  0.3275
16913SOL     OW56575   8.196   4.670   0.202 -0.3088 -0.2240  0.7146
16913SOL    HW156576   8.101   4.655   0.207 -0.5702  0.3526 -1.5048
16913SOL    HW256577   8.232   4.582   0.189 -0.7175 -0.2917 -0.0732
16914SOL     OW56578   9.256   8.998   5.894 -0.5423 -0.2852  0.2162
16914SOL    HW156579   9.221   8.928   5.949  1.5592 -0.4341  1.4639
16914SOL    HW256580   9.264   9.073   5.953 -0.7754  0.3904 -0.5888
16915SOL     OW56581   8.403  10.771   2.174  0.2893 -0.0884  0.0646
16915SOL    HW156582   8.351  10.760   2.095  0.7427 -0.7064 -0.1537
16915SOL    HW256583   8.350  10.827   2.231 -1.2880 -1.8865  0.4576
16916SOL     OW56584   7.879   3.821   5.952 -0.5739 -0.3127  0.5639
16916SOL    HW156585   7.894   3.732   5.983 -0.5332 -0.0289  1.3625
16916SOL    HW256586   7.843   3.868   6.027 -1.5871  0.0819 -0.1466
16917SOL     OW56587   9.311   2.186   7.154 -0.3063 -0.6311 -0.5823
16917SOL    HW156588   9.405   2.171   7.144 -0.2247 -0.3122 -0.3144
16917SOL    HW256589   9.298   2.194   7.249 -0.9101 -2.6263 -0.4498
16918SOL     OW56590   9.374   1.650   5.672  0.7898  0.4686  0.2600
16918SOL    HW156591   9.388   1.573   5.727  2.0934  0.4665 -0.0335
16918SOL    HW256592   9.294   1.631   5.623  1.5449 -1.0785 -0.4231
16919SOL     OW56593   4.846   1.064   2.342  0.4700  0.5354 -0.6027
16919SOL    HW156594   4.778   1.069   2.274  1.1147 -0.9391 -1.4029
16919SOL    HW256595   4.923   1.103   2.302  0.8112 -0.1962 -0.6713
16920SOL     OW56596   4.314   3.547   5.054 -0.0296 -0.4201 -0.2853
16920SOL    HW156597   4.256   3.617   5.085  1.5336  0.1654  1.4714
16920SOL    HW256598   4.274   3.467   5.088  0.7945  0.0836  2.0827
16921SOL     OW56599   8.915  10.884   6.164  0.4370  0.0048 -0.3215
16921SOL    HW156600   8.827  10.887   6.200  0.0096 -3.4945 -0.6975
16921SOL    HW256601   8.907  10.923   6.077 -1.1666 -1.5645 -0.9423
16922SOL     OW56602   2.125   0.623   9.027 -0.1053 -0.3727  0.3691
16922SOL    HW156603   2.079   0.618   8.943  0.9594 -0.4620 -0.2208
16922SOL    HW256604   2.143   0.716   9.039  0.7527 -0.4691 -0.0767
16923SOL     OW56605   7.941  10.227   0.908 -0.0163  0.0932  0.5073
16923SOL    HW156606   8.017  10.211   0.964  0.1165 -0.0017  0.3028
16923SOL    HW256607   7.874  10.168   0.942  0.1101 -0.0711  0.4763
16924SOL     OW56608   6.417   9.035  10.451 -0.4079 -0.1773 -0.2921
16924SOL    HW156609   6.491   8.980  10.475 -0.3555  0.1132  0.2207
16924SOL    HW256610   6.456   9.112  10.410 -0.5303 -1.3180 -2.8086
16925SOL     OW56611   7.661   4.768   6.611  0.1657 -0.1484  0.3661
16925SOL    HW156612   7.593   4.751   6.677 -0.3190  2.0833  0.5239
16925SOL    HW256613   7.617   4.754   6.527  0.2463 -1.1371  0.4752
16926SOL     OW56614   9.755   7.960  11.038  0.2722  0.1374 -0.8862
16926SOL    HW156615   9.744   7.898  11.111 -2.2801 -1.2200 -2.2686
16926SOL    HW256616   9.736   8.046  11.076 -2.4046 -0.6996 -0.1377
16927SOL     OW56617   5.064   1.711   9.348 -0.4236 -0.1344  0.1461
16927SOL    HW156618   5.151   1.675   9.333  0.6804  1.2080  2.6881
16927SOL    HW256619   5.079   1.790   9.400 -2.9335  2.1247 -2.1730
16928SOL     OW56620   5.450   0.119   9.197 -0.0224 -0.7927 -0.3390
16928SOL    HW156621   5.391   0.049   9.225 -1.6053 -0.2645 -2.1671
16928SOL    HW256622   5.460   0.106   9.103  2.0654 -0.2713 -0.2439
16929SOL     OW56623   2.892   2.966   3.417 -0.0275 -0.2028  0.4046
16929SOL    HW156624   2.920   3.058   3.428 -0.4603 -0.1702  1.2772
16929SOL    HW256625   2.973   2.920   3.395  0.0820  0.4955 -0.7588
16930SOL     OW56626   9.307   6.794   5.895  0.4882 -0.0243  0.2735
16930SOL    HW156627   9.211   6.804   5.892  0.3856 -1.0069 -1.4555
16930SOL    HW256628   9.338   6.845   5.820  1.2661 -0.2980  0.4048
16931SOL     OW56629   0.131   3.830  10.583 -0.2044 -0.0320  0.4407
16931SOL    HW156630   0.157   3.749  10.538 -1.8595 -0.7902  0.7848
16931SOL    HW256631   0.043   3.812  10.617 -1.0140  2.2267 -0.2674
16932SOL     OW56632  10.338  10.733   1.113 -0.7322 -0.2663 -0.6649
16932SOL    HW156633  10.295  10.705   1.194  0.4229  0.8356  0.3710
16932SOL    HW256634  10.266  10.752   1.053 -1.6708  0.3315  0.6023
16933SOL     OW56635   8.474   1.433   2.638 -0.4424  0.8124 -0.2560
16933SOL    HW156636   8.470   1.438   2.543  0.9135 -0.3871 -0.4055
16933SOL    HW256637   8.488   1.524   2.666 -0.2940  1.1060 -1.2366
16934SOL     OW56638  12.253   8.374   3.104 -0.4125 -0.1348 -0.1091
16934SOL    HW156639  12.289   8.295   3.063 -0.1982 -0.6764  1.0532
16934SOL    HW256640  12.314   8.444   3.080  1.4363 -1.0121  1.6875
16935SOL     OW56641   0.145   0.576   6.212 -0.7872 -0.2487  0.4735
16935SOL    HW156642   0.108   0.647   6.161 -1.4239 -0.6970  0.2901
16935SOL    HW256643   0.094   0.575   6.293  0.6348  0.8690  1.4241
16936SOL     OW56644   5.754   2.217   6.114 -0.3557  0.0418  0.0097
16936SOL    HW156645   5.665   2.190   6.091 -0.4589 -0.2702  0.7347
16936SOL    HW256646   5.757   2.210   6.210  0.8664 -1.3200 -0.0912
16937SOL     OW56647   2.049   6.940  12.329  0.1424  0.1627 -0.1902
16937SOL    HW156648   2.141   6.924  12.308 -0.4031 -0.6721 -2.1634
16937SOL    HW256649   2.031   7.027  12.294  0.0004  0.0373 -0.4261
16938SOL     OW56650   8.983   9.110  12.012 -0.0185  0.1491 -0.0971
16938SOL    HW156651   8.998   9.083  12.102  1.9136 -1.4068 -0.7899
16938SOL    HW256652   8.889   9.099  11.998 -0.3802  0.5978  1.7366
16939SOL     OW56653   5.619   3.484   9.732  0.3199 -0.4056 -0.1691
16939SOL    HW156654   5.684   3.417   9.710  1.2496  0.3803  0.1173
16939SOL    HW256655   5.638   3.557   9.673 -0.9956 -0.5429 -0.8154
16940SOL     OW56656   8.419   9.202  10.620  1.0399 -0.2856 -0.3440
16940SOL    HW156657   8.420   9.298  10.626 -0.9533 -0.2476  0.4244
16940SOL    HW256658   8.382   9.184  10.534  0.5563 -0.3172 -0.1386
16941SOL     OW56659   2.359  11.631  10.901 -0.3064 -0.2685  0.3289
16941SOL    HW156660   2.294  11.568  10.931  0.1699 -3.0369 -3.5742
16941SOL    HW256661   2.443  11.586  10.912  0.4098  1.0342  0.3766
16942SOL     OW56662   0.411   1.290   4.450  0.2725 -0.0286 -0.1984
16942SOL    HW156663   0.417   1.373   4.402 -1.8261 -0.2599 -1.0005
16942SOL    HW256664   0.333   1.301   4.505  1.1595 -0.7361  1.2552
16943SOL     OW56665   7.236   8.523  10.526  0.1216 -0.1275  0.2404
16943SOL    HW156666   7.309   8.560  10.576  0.6958  0.4552 -0.9820
16943SOL    HW256667   7.236   8.430  10.550  1.2491 -0.1269  0.3023
16944SOL     OW56668  11.879   2.585  10.814 -0.7323  0.2302  0.6521
16944SOL    HW156669  11.858   2.493  10.795 -0.7647  0.2279  0.7007
16944SOL    HW256670  11.802   2.634  10.787 -0.4509  0.3168 -0.0135
16945SOL     OW56671   7.232   9.704   7.233  0.3878 -0.4273 -0.1121
16945SOL    HW156672   7.250   9.627   7.178  0.8426 -0.2523 -0.2125
16945SOL    HW256673   7.274   9.777   7.187 -0.7924  0.0467 -0.4783
16946SOL     OW56674  10.624   4.174   6.504 -0.2585 -0.0188 -0.3929
16946SOL    HW156675  10.588   4.094   6.544  0.0188 -0.6878 -1.4326
16946SOL    HW256676  10.548   4.219   6.467 -0.2589 -0.5319 -1.0385
16947SOL     OW56677   8.961  10.218  10.423  0.4442  0.5777 -0.4028
16947SOL    HW156678   8.914  10.144  10.385  0.7010 -0.0605  0.4730
16947SOL    HW256679   8.973  10.280  10.351  3.4418 -1.7940 -2.1465
16948SOL     OW56680   7.685   9.517   7.653  0.3776 -0.3495 -0.4720
16948SOL    HW156681   7.643   9.590   7.699 -0.8175  0.6889 -3.0337
16948SOL    HW256682   7.644   9.439   7.689 -1.7626  0.5107 -0.9190
16949SOL     OW56683   2.640  12.274   8.923 -0.4161  0.3324 -0.1163
16949SOL    HW156684   2.597  12.346   8.878 -1.0583  0.0105 -0.0206
16949SOL    HW256685   2.640  12.300   9.015  0.5023  0.7896 -0.2333
16950SOL     OW56686   0.737   1.743   0.460  0.7777  0.0917 -0.0674
16950SOL    HW156687   0.722   1.807   0.530 -2.6876 -0.2735 -0.3073
16950SOL    HW256688   0.784   1.793   0.393 -2.1206  2.6523 -0.4055
16951SOL     OW56689   8.662   6.126   0.274  0.6682  0.2082  0.2856
16951SOL    HW156690   8.710   6.205   0.249  1.7518 -0.3992  0.3702
16951SOL    HW256691   8.704   6.097   0.355  0.7470 -0.8194 -0.0970
16952SOL     OW56692   3.151   0.820   4.119  0.0762 -0.1942  0.0481
16952SOL    HW156693   3.168   0.865   4.037  1.4477  1.0209  0.9397
16952SOL    HW256694   3.196   0.736   4.111 -0.5471 -0.4589 -0.7552
16953SOL     OW56695   2.004  11.162   7.080 -0.5701  0.3244 -0.0419
16953SOL    HW156696   2.007  11.094   7.147 -0.2635  0.4077  0.0280
16953SOL    HW256697   2.013  11.244   7.128 -2.2544  0.5154  0.0293
16954SOL     OW56698   0.093   6.035   8.635  0.0290 -0.4344 -0.1451
16954SOL    HW156699   0.020   6.096   8.642  0.2874 -0.2221  0.8864
16954SOL    HW256700   0.128   6.050   8.547  0.2635  1.1331  0.1761
16955SOL     OW56701   0.305  11.989  12.088  0.0619  0.3060 -0.1830
16955SOL    HW156702   0.327  11.955  12.001  1.6665  0.5224  0.1078
16955SOL    HW256703   0.233  11.933  12.118  2.3223 -2.6798  0.1275
16956SOL     OW56704   5.634   3.795   7.268  0.2757 -0.0320  0.0753
16956SOL    HW156705   5.717   3.837   7.291 -0.2526  1.5960 -0.9053
16956SOL    HW256706   5.618   3.734   7.341  3.6901 -2.5324 -1.0190
16957SOL     OW56707   0.336   9.003  10.062  0.2084  0.4093 -0.0078
16957SOL    HW156708   0.401   8.980   9.996  0.1160  2.1275 -0.7396
16957SOL    HW256709   0.252   8.991  10.018  0.1661  3.6509 -1.0542
16958SOL     OW56710   3.906   5.566   0.661  0.3843  0.0884 -0.3134
16958SOL    HW156711   3.893   5.490   0.604  0.0051  0.5994 -0.9184
16958SOL    HW256712   3.893   5.642   0.604 -0.0248  0.6121  0.4534
16959SOL     OW56713  10.834   0.340   9.185  0.1546 -0.2605  0.2109
16959SOL    HW156714  10.823   0.245   9.181 -1.6181 -0.0518 -1.2977
16959SOL    HW256715  10.777   0.368   9.257 -0.1697 -0.2456 -0.0505
16960SOL     OW56716  10.550   2.917   0.379  0.9649  0.3562 -0.0918
16960SOL    HW156717  10.584   3.006   0.377  2.6365 -0.2407 -2.2296
16960SOL    HW256718  10.498   2.909   0.298  0.6416 -0.5405  0.1945
16961SOL     OW56719  11.205   9.835   3.338 -0.0860  0.1391 -0.3308
16961SOL    HW156720  11.270   9.904   3.331 -1.8345  1.8780 -0.2201
16961SOL    HW256721  11.237   9.779   3.409  0.0053  2.4713  1.5912
16962SOL     OW56722   4.965   2.348   9.811 -0.9743 -0.1049  0.0021
16962SOL    HW156723   5.002   2.433   9.834  0.4800 -0.7659  0.2415
16962SOL    HW256724   5.037   2.287   9.823 -1.7669 -1.2715 -0.9291
16963SOL     OW56725   0.958   1.536   4.504 -0.2725 -0.3441 -0.6183
16963SOL    HW156726   0.893   1.510   4.570  0.2092 -1.1130 -0.4359
16963SOL    HW256727   0.973   1.456   4.452  0.7514 -0.2745 -0.4586
16964SOL     OW56728   6.305   1.886   3.189 -0.0791  0.5402 -0.1132
16964SOL    HW156729   6.293   1.797   3.220  0.6551  1.0614  1.8514
16964SOL    HW256730   6.344   1.877   3.102  2.0128 -1.0713  0.9182
16965SOL     OW56731   9.404   4.453   7.392 -0.0196 -0.6528 -0.2285
16965SOL    HW156732   9.415   4.461   7.487  0.2671 -1.3102 -0.2034
16965SOL    HW256733   9.330   4.393   7.381  1.0322 -1.9320 -0.4208
16966SOL     OW56734   4.011   0.638   4.506  0.2029  0.3021  0.2750
16966SOL    HW156735   4.048   0.550   4.510  1.3014  0.7228 -0.2391
16966SOL    HW256736   3.927   0.630   4.550  0.2490 -1.0197  0.1792
16967SOL     OW56737   5.011   1.525  11.964  0.5680  0.1014 -0.4659
16967SOL    HW156738   4.936   1.561  12.011  0.8214 -0.2193  0.1988
16967SOL    HW256739   5.004   1.562  11.876 -0.4401 -0.0380 -0.4547
16968SOL     OW56740   0.653   2.125   6.491  0.2640 -0.5527  0.0623
16968SOL    HW156741   0.581   2.095   6.546 -0.2576  2.7676  1.4275
16968SOL    HW256742   0.732   2.089   6.532 -0.3482 -0.7733  1.0792
16969SOL     OW56743   6.554   4.942   8.454  0.5623  0.1761  0.4137
16969SOL    HW156744   6.550   4.970   8.545  1.0819 -1.1236  0.8636
16969SOL    HW256745   6.582   4.851   8.458  1.2016  0.2675 -1.0750
16970SOL     OW56746   7.898   0.446   1.567 -0.5054  0.5128 -0.1285
16970SOL    HW156747   7.968   0.460   1.630 -0.7610  0.2882  0.2072
16970SOL    HW256748   7.818   0.452   1.618 -0.6735 -3.4460  0.3865
16971SOL     OW56749   8.439   4.381  11.168 -0.0333  0.2054  0.4725
16971SOL    HW156750   8.479   4.437  11.234  0.1196 -0.9222  1.3777
16971SOL    HW256751   8.494   4.303  11.166 -0.6998 -0.2614 -0.1582
16972SOL     OW56752   3.517   1.368   5.576  0.0221 -0.8523 -0.2144
16972SOL    HW156753   3.611   1.373   5.589 -0.2374  0.5007  1.4742
16972SOL    HW256754   3.494   1.450   5.533 -0.1914 -2.0074 -2.4785
16973SOL     OW56755   4.643   8.518   9.894 -0.8859  0.2707  0.5337
16973SOL    HW156756   4.619   8.438   9.847 -1.3416  1.2848 -1.0635
16973SOL    HW256757   4.573   8.580   9.872  0.3665  1.6371  0.2552
16974SOL     OW56758   5.965   5.799   5.715 -0.5838  0.3445  0.4684
16974SOL    HW156759   6.047   5.766   5.679 -1.5786 -1.2234 -0.4876
16974SOL    HW256760   5.900   5.779   5.647 -1.7996  1.2840  1.3275
16975SOL     OW56761   1.024   8.660   8.082  0.7617 -0.0137  0.0207
16975SOL    HW156762   1.075   8.607   8.020  0.3635  0.3435 -0.6186
16975SOL    HW256763   1.014   8.744   8.038  0.9331  0.4211  0.8059
16976SOL     OW56764   9.170   7.977   1.477 -0.1022  0.3512 -0.1056
16976SOL    HW156765   9.173   7.926   1.397  2.0988  1.1125 -0.5752
16976SOL    HW256766   9.155   8.067   1.448  0.6868  0.6295  0.3146
16977SOL     OW56767   4.973   9.415   8.240  0.1323  0.9693  0.2146
16977SOL    HW156768   4.947   9.371   8.321 -0.7223  2.8481  1.0006
16977SOL    HW256769   4.937   9.359   8.171  0.8264 -0.6335  1.0983
16978SOL     OW56770   1.528   6.464   4.350 -0.0298 -0.1279  0.4106
16978SOL    HW156771   1.586   6.390   4.364 -0.2626 -0.2379  0.7966
16978SOL    HW256772   1.536   6.483   4.257  1.0804  0.2335  0.5636
16979SOL     OW56773   6.388   8.328  10.252  0.7459  0.2075 -0.0692
16979SOL    HW156774   6.481   8.352  10.255  0.9682 -0.0428 -2.5892
16979SOL    HW256775   6.378   8.261  10.321  1.6536  2.4092  2.3501
16980SOL     OW56776   7.105  10.263   3.877 -0.3696 -0.0190 -0.3505
16980SOL    HW156777   7.108  10.346   3.830  0.3309  0.3993  0.4014
16980SOL    HW256778   7.070  10.286   3.964  2.4444  0.0282  0.8644
16981SOL     OW56779   2.877   2.998   4.564  0.1686 -0.3990  0.0511
16981SOL    HW156780   2.918   3.038   4.487  1.2597  1.1858  1.3752
16981SOL    HW256781   2.789   3.035   4.567 -0.2384 -1.2347 -0.9490
16982SOL     OW56782  10.473   4.584   2.441  0.1158 -0.3301 -0.2076
16982SOL    HW156783  10.446   4.648   2.506  1.8942  0.8797 -0.6043
16982SOL    HW256784  10.404   4.588   2.374 -1.3723 -1.0974  1.1995
16983SOL     OW56785   8.884   4.422   2.449  0.7071 -0.5229 -0.0030
16983SOL    HW156786   8.911   4.408   2.540 -0.1458  0.7721  0.4716
16983SOL    HW256787   8.800   4.467   2.455  1.2940  0.8443 -1.4207
16984SOL     OW56788   5.239  10.830   1.568 -0.7439 -0.3773 -0.0249
16984SOL    HW156789   5.278  10.760   1.515 -1.9301 -0.9578 -0.1573
16984SOL    HW256790   5.262  10.808   1.658  0.5279  0.1368 -0.1974
16985SOL     OW56791   4.258   1.204  10.834  0.2118  0.0715  0.3947
16985SOL    HW156792   4.199   1.277  10.852  1.3048  1.8592 -2.6082
16985SOL    HW256793   4.203   1.126  10.843 -2.1642  1.5425 -0.5901
16986SOL     OW56794   8.183   5.193   6.138  0.7206 -0.4225  0.0988
16986SOL    HW156795   8.232   5.159   6.063  0.9550 -0.0130  0.0643
16986SOL    HW256796   8.196   5.288   6.134  0.5979 -0.3845  0.5607
16987SOL     OW56797   9.238   2.889  11.947 -0.3145 -0.0420  0.3435
16987SOL    HW156798   9.316   2.858  11.993 -0.4069 -1.3967 -0.3570
16987SOL    HW256799   9.199   2.810  11.910 -2.9151  0.3600  1.9767
16988SOL     OW56800   2.130   6.486   7.146 -0.2896 -0.3684  0.8207
16988SOL    HW156801   2.040   6.517   7.145 -0.3726 -0.1801 -3.7262
16988SOL    HW256802   2.174   6.537   7.077  2.7226 -2.0178  1.3481
16989SOL     OW56803   2.619  10.583   3.162  0.2688 -0.5587 -0.6680
16989SOL    HW156804   2.604  10.587   3.257 -0.8556  1.0705 -0.8785
16989SOL    HW256805   2.598  10.493   3.139  3.7899 -2.0115  1.0712
16990SOL     OW56806   1.919  11.221   5.757  0.1005 -0.1390 -0.3648
16990SOL    HW156807   1.871  11.193   5.679  1.1714 -0.9521 -0.7636
16990SOL    HW256808   2.007  11.185   5.744 -0.2384 -2.1700  2.2142
16991SOL     OW56809   7.437   1.163   4.512 -0.2599  0.1850 -0.5747
16991SOL    HW156810   7.457   1.164   4.418  4.2863 -2.4675  0.0426
16991SOL    HW256811   7.499   1.225   4.550 -2.3920  1.6326  0.7824
16992SOL     OW56812   4.461   4.665  11.512  0.2889  0.2828  0.1812
16992SOL    HW156813   4.478   4.757  11.491 -2.6397  1.3890  2.0272
16992SOL    HW256814   4.538   4.637  11.562  1.1639  1.7538 -0.2817
16993SOL     OW56815   2.190   4.585  11.913 -0.2272  0.2683 -0.3233
16993SOL    HW156816   2.179   4.621  12.001 -1.1838  0.4044 -0.4893
16993SOL    HW256817   2.284   4.592  11.896  0.0540 -0.2647  0.8961
16994SOL     OW56818  11.571   6.118   4.919  0.0362  0.3816  0.0643
16994SOL    HW156819  11.629   6.059   4.966 -0.5813  0.3026  0.7467
16994SOL    HW256820  11.514   6.061   4.868  0.1180  0.4293 -0.0811
16995SOL     OW56821   8.101   7.694  11.893  0.3373 -0.5015  0.0764
16995SOL    HW156822   8.097   7.784  11.926  1.2871 -0.1334 -0.7574
16995SOL    HW256823   8.189   7.686  11.855 -0.3171 -1.2311 -1.3823
16996SOL     OW56824   5.180   0.329   9.389  0.4248  0.0894  0.2115
16996SOL    HW156825   5.186   0.235   9.408  0.0366  0.2022  0.9000
16996SOL    HW256826   5.088   0.345   9.372  0.3376  0.5152  1.0249
16997SOL     OW56827  11.558  11.917   1.522 -0.1509  0.1983 -0.3671
16997SOL    HW156828  11.632  11.966   1.558 -1.5043  1.2372  1.1519
16997SOL    HW256829  11.557  11.835   1.571  0.1400  0.0869 -0.5507
16998SOL     OW56830   6.193  10.420   5.212  0.0588  0.1193 -0.8304
16998SOL    HW156831   6.256  10.493   5.211  0.3510 -0.0203  1.5381
16998SOL    HW256832   6.115  10.458   5.252 -0.9373 -0.0649 -2.5415
16999SOL     OW56833   5.685   7.478   9.537  0.1708  0.6140  0.8276
16999SOL    HW156834   5.592   7.498   9.536  0.2048  0.7781 -0.2053
16999SOL    HW256835   5.719   7.523   9.614 -0.6398  0.3597  1.3392
17000SOL     OW56836   4.378   4.609   3.618  0.2971 -0.0819 -0.0492
17000SOL    HW156837   4.401   4.602   3.526 -2.2463 -0.1476 -0.7649
17000SOL    HW256838   4.368   4.518   3.648  0.3394 -0.0505  0.0616
17001SOL     OW56839   3.847   6.307   2.073 -0.3097 -0.2101  0.3366
17001SOL    HW156840   3.864   6.219   2.038 -0.4300 -1.2714  2.7531
17001SOL    HW256841   3.755   6.323   2.053  0.0631  0.0324 -1.3781
17002SOL     OW56842   8.941  10.425  11.194  0.6114 -0.3218  0.1156
17002SOL    HW156843   8.987  10.412  11.111 -0.8330 -0.1355 -0.7498
17002SOL    HW256844   8.946  10.339  11.237 -0.7362 -1.1764 -1.2998
17003SOL     OW56845   4.855  10.383   0.078  0.4950  0.0409  0.2115
17003SOL    HW156846   4.829  10.441   0.006  1.1359  0.3807  0.2388
17003SOL    HW256847   4.795  10.404   0.149  1.3459  1.4356  0.5727
17004SOL     OW56848   7.920   0.139  11.448 -0.3771 -0.0889 -0.5154
17004SOL    HW156849   7.928   0.080  11.522 -0.5889  0.7064  0.1639
17004SOL    HW256850   8.004   0.187  11.446 -1.0473  1.2029  0.4001
17005SOL     OW56851  10.703   1.326   0.219  0.4039  0.1896 -0.6107
17005SOL    HW156852  10.616   1.287   0.229  0.1358  0.8064 -0.4859
17005SOL    HW256853  10.730   1.303   0.130  0.1198 -0.0069 -0.6464
17006SOL     OW56854   5.597  10.868   8.549  0.0027 -0.0733  0.3373
17006SOL    HW156855   5.563  10.864   8.639  0.0609 -1.6470  0.3167
17006SOL    HW256856   5.691  10.853   8.559 -0.0409 -0.5929 -0.0108
17007SOL     OW56857   8.616   1.531   6.728  0.5941  0.0850  0.1828
17007SOL    HW156858   8.671   1.575   6.664 -2.9619  0.9813 -2.6073
17007SOL    HW256859   8.566   1.601   6.770  0.1534 -0.7963  1.1913
17008SOL     OW56860   0.600   4.911   2.079 -0.6244 -0.4478  0.1464
17008SOL    HW156861   0.678   4.963   2.097 -0.0642 -1.1474 -0.2635
17008SOL    HW256862   0.557   4.957   2.006 -0.1683 -0.5172 -0.1679
17009SOL     OW56863   0.189   5.128   3.817 -0.3518 -0.6601 -0.0328
17009SOL    HW156864   0.159   5.044   3.781  0.2893 -0.1639 -1.8241
17009SOL    HW256865   0.245   5.165   3.749 -0.4814  1.1576  0.7833
17010SOL     OW56866   5.331   6.552  11.355  0.2561 -0.0821 -0.2879
17010SOL    HW156867   5.426   6.563  11.351  0.1727  0.5487 -0.7669
17010SOL    HW256868   5.303   6.557  11.263 -0.2055 -0.6032 -0.1801
17011SOL     OW56869   5.146   4.559   3.423 -0.0589  0.3906  0.1904
17011SOL    HW156870   5.174   4.490   3.364 -2.4261  1.2769 -2.1997
17011SOL    HW256871   5.219   4.570   3.484  2.6023 -0.6425 -2.5306
17012SOL     OW56872   1.047   1.699  10.648 -0.6826  0.0337 -0.6126
17012SOL    HW156873   1.103   1.680  10.573  1.4383 -0.3853  0.9871
17012SOL    HW256874   1.102   1.751  10.707 -2.2310  0.2485  0.7101
17013SOL     OW56875   4.538  10.520   3.907 -0.2241  0.0879  0.2785
17013SOL    HW156876   4.490  10.459   3.851  0.5471  0.9151 -1.3780
17013SOL    HW256877   4.630  10.504   3.886  0.0026  1.7651 -0.2174
17014SOL     OW56878   8.556   8.651   5.569 -0.2185 -0.3516 -0.0562
17014SOL    HW156879   8.631   8.664   5.628  1.1615 -3.5373 -0.8659
17014SOL    HW256880   8.514   8.737   5.564  1.8708  0.9686  2.4603
17015SOL     OW56881   1.559   3.226   5.192  0.0473  0.3890 -0.1416
17015SOL    HW156882   1.509   3.207   5.271 -1.8734 -1.7026 -1.7388
17015SOL    HW256883   1.596   3.313   5.208 -0.9889  0.4192  2.6564
17016SOL     OW56884   9.479   0.240  12.190  0.2429  0.2774  0.2058
17016SOL    HW156885   9.435   0.239  12.275  2.0545  0.5314  1.2027
17016SOL    HW256886   9.448   0.161  12.146 -2.2648  1.1796  0.2414
17017SOL     OW56887   0.067   7.499  11.416  0.2752  0.2593  0.2650
17017SOL    HW156888   0.072   7.568  11.350  0.0925  1.6055  1.5984
17017SOL    HW256889   0.125   7.528  11.486 -2.3254  0.7933  2.3690
17018SOL     OW56890   1.118   2.540   7.886  0.1232 -0.0996 -0.3803
17018SOL    HW156891   1.131   2.593   7.965  2.5175  2.1555 -2.1407
17018SOL    HW256892   1.026   2.554   7.863 -0.5654 -0.6269  1.7959
17019SOL     OW56893  10.380   4.991  12.140 -1.0632  0.1289 -0.1301
17019SOL    HW156894  10.345   5.050  12.073 -0.8668  0.3131 -0.0723
17019SOL    HW256895  10.364   4.903  12.106  2.5283  0.1210 -2.3126
17020SOL     OW56896   6.146   4.606   6.823 -0.1861  0.1389  0.5704
17020SOL    HW156897   6.070   4.640   6.869 -0.0545  1.0654  0.1236
17020SOL    HW256898   6.200   4.683   6.806 -0.4995 -0.0748 -1.6336
17021SOL     OW56899  10.916  10.061   0.320 -0.2618 -0.3121  0.2768
17021SOL    HW156900  10.857  10.109   0.378 -1.0904 -0.6916 -0.2263
17021SOL    HW256901  10.859  10.032   0.248  0.1744 -2.1657  0.6273
17022SOL     OW56902   9.479   4.691   3.835 -0.3934 -0.0162  0.0694
17022SOL    HW156903   9.397   4.642   3.829  0.3474 -1.2213 -0.5916
17022SOL    HW256904   9.545   4.630   3.804  0.7451  0.9855  0.4740
17023SOL     OW56905   8.884  11.998  11.257 -0.6283 -1.0398 -0.0423
17023SOL    HW156906   8.794  11.994  11.292 -0.0468 -0.2947  1.6595
17023SOL    HW256907   8.891  11.922  11.200 -2.7447 -0.4153 -1.2484
17024SOL     OW56908   7.450   3.448   2.662  0.0186  0.6599  0.5765
17024SOL    HW156909   7.463   3.408   2.748  2.0093  0.8731  0.4223
17024SOL    HW256910   7.355   3.454   2.652 -0.2580  0.8215  2.8503
17025SOL     OW56911  12.106   5.064   5.942  0.7300 -0.4608 -0.5433
17025SOL    HW156912  12.153   5.052   5.859  1.0921  0.4741 -0.4860
17025SOL    HW256913  12.117   5.157   5.962  1.0513 -0.7793  0.8096
17026SOL     OW56914  11.892   8.471   0.164  0.1408  0.2373 -0.3176
17026SOL    HW156915  11.952   8.406   0.127  1.8411  1.3204  0.4176
17026SOL    HW256916  11.848   8.426   0.236  0.2924 -0.4897 -0.6724
17027SOL     OW56917   2.405   9.858  12.002 -0.3714 -0.2444 -0.2911
17027SOL    HW156918   2.385   9.840  11.910 -0.1797  0.9997 -0.6004
17027SOL    HW256919   2.425   9.952  12.004  0.1770 -0.3671  0.9265
17028SOL     OW56920   5.634   4.653   8.702  0.2916  0.0041 -0.2511
17028SOL    HW156921   5.658   4.706   8.627  3.1494 -2.0290 -0.9562
17028SOL    HW256922   5.617   4.566   8.666  1.2125 -0.8951  1.3482
17029SOL     OW56923   1.415   3.323   5.945  1.1699  0.4581  0.2459
17029SOL    HW156924   1.388   3.401   5.896  0.1269 -0.1254 -0.1414
17029SOL    HW256925   1.359   3.324   6.023  1.2544  0.1741  0.3092
17030SOL     OW56926   9.556   5.058   5.490  0.1695 -0.2765  0.6058
17030SOL    HW156927   9.541   5.145   5.453 -1.6911 -0.4669  0.7883
17030SOL    HW256928   9.648   5.039   5.472  1.2494  2.5847  2.4120
17031SOL     OW56929   8.899   9.070   6.390 -0.1526  0.1904  0.3234
17031SOL    HW156930   8.953   9.026   6.456 -0.7086  1.0432  1.3823
17031SOL    HW256931   8.829   9.110   6.440 -0.5809  0.8896 -0.8057
17032SOL     OW56932   1.551   9.270   4.176  0.1077  0.0302  0.1774
17032SOL    HW156933   1.554   9.225   4.091  2.1503 -0.5523  0.5051
17032SOL    HW256934   1.625   9.330   4.173  0.6508 -0.5054  1.8167
17033SOL     OW56935   1.761   3.784   8.324 -0.0724 -0.2570 -0.1422
17033SOL    HW156936   1.686   3.825   8.369  0.3192 -0.3386  0.5892
17033SOL    HW256937   1.829   3.851   8.326 -0.2044 -0.0891 -1.0378
17034SOL     OW56938   5.318   3.030   4.710  0.5166  0.6276 -0.0346
17034SOL    HW156939   5.408   3.051   4.687  1.8186 -2.3116  1.7762
17034SOL    HW256940   5.316   2.935   4.716 -2.3380  0.6583  1.4585
17035SOL     OW56941   3.525   5.523   4.614  0.1623  0.0837 -0.4390
17035SOL    HW156942   3.619   5.515   4.626 -0.1357 -1.2192  1.5380
17035SOL    HW256943   3.513   5.525   4.519  2.1403 -0.0962 -0.7333
17036SOL     OW56944   8.648  10.366   9.800 -0.2883  0.2545 -0.0267
17036SOL    HW156945   8.662  10.449   9.753 -3.5173  1.7061  1.3069
17036SOL    HW256946   8.692  10.379   9.884 -0.1583  0.3085 -0.1026
17037SOL     OW56947   2.666  12.088   6.413  0.1487  0.2646 -0.5084
17037SOL    HW156948   2.600  12.149   6.447  0.1190 -0.2182  0.3395
17037SOL    HW256949   2.666  12.103   6.319 -1.1363  0.3169 -0.5249
17038SOL     OW56950   8.737   1.831   5.556 -0.3441  0.5267 -0.0583
17038SOL    HW156951   8.701   1.781   5.482 -2.0246  0.2060  0.9147
17038SOL    HW256952   8.831   1.833   5.540 -0.4303 -1.3191 -1.1329
17039SOL     OW56953   6.946   9.021   5.972 -0.8900  0.0447  0.0940
17039SOL    HW156954   7.012   8.952   5.982  0.1240  0.9073 -0.4839
17039SOL    HW256955   6.927   9.049   6.062 -2.1672 -1.7199  0.4416
17040SOL     OW56956   6.963  11.093   1.668 -0.2886 -0.4349  0.0547
17040SOL    HW156957   7.013  11.170   1.642 -0.5593  0.4845  2.0998
17040SOL    HW256958   6.873  11.113   1.643 -0.6000  0.5817  1.8108
17041SOL     OW56959  12.271  10.253  10.865 -0.0978  0.7476  0.5396
17041SOL    HW156960  12.360  10.252  10.900  0.5989  1.1383 -1.1088
17041SOL    HW256961  12.215  10.263  10.941  1.2453  0.1387  1.6571
17042SOL     OW56962   3.377  11.556   0.164 -0.0313 -0.4228 -0.3246
17042SOL    HW156963   3.410  11.582   0.078  0.6435 -0.1882 -0.0032
17042SOL    HW256964   3.419  11.616   0.225 -2.8200  1.4350 -0.0454
17043SOL     OW56965   5.701   2.354   9.496 -0.4464 -0.3294 -0.0675
17043SOL    HW156966   5.737   2.265   9.499  1.6475  0.4468 -0.8022
17043SOL    HW256967   5.756   2.405   9.556 -1.2191  0.6160 -0.1396
17044SOL     OW56968  12.246   3.083   1.876  0.0619 -0.0677 -0.0845
17044SOL    HW156969  12.305   3.110   1.806  0.1970  2.3000  0.8659
17044SOL    HW256970  12.303   3.059   1.949 -0.1282 -0.3000 -0.0074
17045SOL     OW56971   3.585   9.772   2.976 -0.0351  0.4956 -0.3394
17045SOL    HW156972   3.579   9.760   2.881 -0.5600  1.2175 -0.4047
17045SOL    HW256973   3.575   9.684   3.012 -1.0389  0.3592 -0.9102
17046SOL     OW56974   6.267   0.736   4.970 -0.3764  0.2734  0.0283
17046SOL    HW156975   6.317   0.740   4.888  0.6271  0.9405  0.6443
17046SOL    HW256976   6.271   0.644   4.995  3.5166  0.7101  1.7543
17047SOL     OW56977   6.440  10.994   6.470  0.1667 -0.0375 -0.2097
17047SOL    HW156978   6.419  11.039   6.552 -2.2089 -1.3507 -0.0035
17047SOL    HW256979   6.525  10.953   6.487 -0.0718  0.0678  1.4883
17048SOL     OW56980   3.671   4.014   4.981  0.1108  0.3458  0.0334
17048SOL    HW156981   3.751   4.010   5.034  0.8305  1.5895 -0.9072
17048SOL    HW256982   3.701   4.037   4.893 -1.3029  1.2923 -0.2388
17049SOL     OW56983   8.530  10.682  12.252  0.0206  0.2605  0.2724
17049SOL    HW156984   8.489  10.732  12.322  0.7934 -0.2660  1.1289
17049SOL    HW256985   8.556  10.600  12.293  2.0184  0.6125 -0.1743
17050SOL     OW56986   5.449   4.258   0.094 -0.3546  0.2752 -0.1657
17050SOL    HW156987   5.466   4.341   0.050  1.5043  1.0550  1.8122
17050SOL    HW256988   5.354   4.248   0.092 -0.4560  1.0200 -2.8442
17051SOL     OW56989  11.560   7.911   7.663 -0.4680  0.2270 -0.0316
17051SOL    HW156990  11.596   7.955   7.586  0.0106  0.8124  0.5127
17051SOL    HW256991  11.494   7.972   7.696  0.4629  0.7346  0.9477
17052SOL     OW56992   6.167   7.226   5.807  0.0816  0.0332 -0.0477
17052SOL    HW156993   6.220   7.306   5.798  1.2854 -0.5703  1.1751
17052SOL    HW256994   6.137   7.228   5.898  1.4689 -1.6448  0.5103
17053SOL     OW56995   5.785   7.378   2.540  0.1585  0.5698 -0.6410
17053SOL    HW156996   5.705   7.416   2.576 -1.2112 -1.4612 -1.3645
17053SOL    HW256997   5.760   7.348   2.452  1.5339 -0.6043 -0.6700
17054SOL     OW56998   7.869   8.382   6.958  0.0260 -0.1098  0.4093
17054SOL    HW156999   7.846   8.459   7.010 -1.8504  0.7496 -1.5463
17054SOL    HW257000   7.797   8.320   6.974 -1.4069  0.7390 -2.1209
17055SOL     OW57001  10.462   6.646   0.466 -0.0547  0.3643 -0.0135
17055SOL    HW157002  10.442   6.557   0.436 -1.6302  0.1783  1.4190
17055SOL    HW257003  10.405   6.702   0.415  0.2976  0.4662 -0.2960
17056SOL     OW57004  10.606  10.240   3.478 -0.1947  0.0493 -0.4451
17056SOL    HW157005  10.551  10.210   3.406  0.7553  0.2649 -1.2880
17056SOL    HW257006  10.552  10.304   3.524 -1.1873 -0.8302 -0.3435
17057SOL     OW57007  10.579   7.362   3.470 -0.9105  0.3428  0.1815
17057SOL    HW157008  10.673   7.365   3.449 -0.6781 -0.9235  0.9227
17057SOL    HW257009  10.577   7.354   3.566 -1.7883  0.5381  0.1818
17058SOL     OW57010   2.646   6.245   8.576  0.2506 -0.0813 -0.1266
17058SOL    HW157011   2.701   6.213   8.504 -0.2702  0.2940 -0.6978
17058SOL    HW257012   2.708   6.289   8.635  0.6222  0.0199 -0.5840
17059SOL     OW57013  10.973   3.418   4.483 -0.1144 -0.1963 -0.2195
17059SOL    HW157014  11.019   3.458   4.557  0.5024  1.0086 -1.2332
17059SOL    HW257015  10.956   3.328   4.512  1.3976 -0.1763  0.8217
17060SOL     OW57016   1.320   6.170   9.132 -0.7530  0.1404 -0.6726
17060SOL    HW157017   1.369   6.235   9.082  0.4510  0.6831  1.1354
17060SOL    HW257018   1.378   6.094   9.136 -1.2566 -0.2690 -0.9253
17061SOL     OW57019  10.566   9.199  11.093  0.2363 -0.3264  0.1129
17061SOL    HW157020  10.638   9.170  11.037  0.2062 -0.0429 -0.0759
17061SOL    HW257021  10.606   9.208  11.180  0.8408  1.4112 -0.3085
17062SOL     OW57022   2.901   8.160   8.770 -0.0871 -0.5848  0.1909
17062SOL    HW157023   2.955   8.161   8.849 -0.6281  0.5853  0.5595
17062SOL    HW257024   2.827   8.103   8.792 -0.4000 -0.0102  0.6535
17063SOL     OW57025   3.104   7.554   7.285 -0.5543  0.2971  0.1961
17063SOL    HW157026   3.077   7.486   7.224 -1.5197  0.7250  0.1287
17063SOL    HW257027   3.090   7.636   7.238 -0.1188  0.5700  0.5407
17064SOL     OW57028   8.108   8.028   9.559  0.2713 -0.0974  0.4162
17064SOL    HW157029   8.139   8.095   9.621  1.1354  0.4963 -0.6181
17064SOL    HW257030   8.106   8.073   9.474 -1.4646 -0.7282  0.0790
17065SOL     OW57031   8.311   9.191   4.226  0.2764 -0.3056 -0.9275
17065SOL    HW157032   8.229   9.213   4.182 -0.3192 -1.0828 -0.2164
17065SOL    HW257033   8.340   9.274   4.265 -0.2650 -0.0721 -1.0077
17066SOL     OW57034  11.762  10.421   8.852  0.7308  0.0538  0.4812
17066SOL    HW157035  11.740  10.343   8.902  1.1266  0.7434  1.7695
17066SOL    HW257036  11.766  10.491   8.917  1.3583  0.9621 -0.5002
17067SOL     OW57037   6.896   7.520   2.669  0.0780 -0.1971  0.0868
17067SOL    HW157038   6.801   7.517   2.681 -0.0402  0.9367 -0.4245
17067SOL    HW257039   6.929   7.558   2.751  0.0510 -0.1981  0.0982
17068SOL     OW57040   0.995   3.663   4.422 -0.4730 -0.0659 -0.1341
17068SOL    HW157041   1.019   3.740   4.370  0.5265  0.4351  0.9961
17068SOL    HW257042   0.993   3.591   4.360 -0.0126  0.6292 -0.9804
17069SOL     OW57043   9.250   2.111   3.943  0.1151 -0.4427  0.9600
17069SOL    HW157044   9.250   2.026   3.987 -1.1395 -0.2153  1.4492
17069SOL    HW257045   9.333   2.151   3.968  0.2642 -1.1162  1.5708
17070SOL     OW57046   4.200  11.523  11.785 -0.6751  0.5214 -0.4212
17070SOL    HW157047   4.149  11.556  11.859 -1.2036 -1.2361  0.0483
17070SOL    HW257048   4.267  11.591  11.770 -0.3109  0.7664  1.9108
17071SOL     OW57049  12.055   2.435   8.684 -0.0367 -0.0788 -0.1648
17071SOL    HW157050  12.079   2.526   8.698  0.7104 -0.2704 -0.1893
17071SOL    HW257051  11.972   2.425   8.732  1.2252 -0.0910  2.1473
17072SOL     OW57052   0.899   2.162   1.923  0.0688 -0.2243  0.1232
17072SOL    HW157053   0.915   2.074   1.887 -0.2986 -0.3030  0.1407
17072SOL    HW257054   0.954   2.220   1.871 -0.4004 -0.3463 -0.5320
17073SOL     OW57055   6.340  12.235   9.638 -0.8390  0.1306  0.1279
17073SOL    HW157056   6.255  12.275   9.620 -1.1221 -1.0107 -1.1727
17073SOL    HW257057   6.354  12.174   9.567  0.2762 -1.0147  1.2735
17074SOL     OW57058   5.885  11.225   2.736  0.1095 -0.1043  0.0677
17074SOL    HW157059   5.824  11.166   2.692 -0.8703 -0.9688  2.4237
17074SOL    HW257060   5.866  11.214   2.829  3.6584 -0.1282  0.8931
17075SOL     OW57061   1.199   6.084   4.338  0.1637 -0.2962 -0.9801
17075SOL    HW157062   1.239   6.134   4.267  1.2857 -1.6671 -1.3443
17075SOL    HW257063   1.270   6.069   4.400 -0.2632 -1.0666 -0.6651
17076SOL     OW57064   9.329   9.474   3.724 -0.1728 -0.1506  0.2533
17076SOL    HW157065   9.289   9.436   3.646  2.3787  0.5468 -1.5419
17076SOL    HW257066   9.391   9.538   3.690 -0.1575  1.4508  2.9640
17077SOL     OW57067   6.382  12.157  11.061  0.2886 -0.1223 -0.1119
17077SOL    HW157068   6.456  12.153  11.000  0.8221  0.3320  0.4888
17077SOL    HW257069   6.309  12.188  11.008  0.8837  0.8362 -0.4184
17078SOL     OW57070   0.666   0.732   7.612  0.8462 -0.0596  0.1446
17078SOL    HW157071   0.754   0.759   7.636  0.9122 -0.2641  0.1288
17078SOL    HW257072   0.678   0.658   7.552  0.6505 -1.2587  1.5238
17079SOL     OW57073   7.656  11.003   8.076  0.2329 -0.4683  0.0341
17079SOL    HW157074   7.622  10.944   8.143  1.5633 -0.8187  0.4263
17079SOL    HW257075   7.653  11.090   8.116 -0.2211 -0.4845  0.0439
17080SOL     OW57076   0.630   6.802   7.218  0.5050  0.5727 -0.0863
17080SOL    HW157077   0.560   6.737   7.224  0.5881  0.4549 -0.4256
17080SOL    HW257078   0.617   6.845   7.134  1.0705  0.2920 -0.3211
17081SOL     OW57079   4.227   3.611   2.193  0.2176 -0.1150 -0.0293
17081SOL    HW157080   4.294   3.605   2.125  0.3779  2.6830 -0.2299
17081SOL    HW257081   4.270   3.658   2.265 -0.4534 -1.5609  1.3770
17082SOL     OW57082  11.638   3.819   2.755 -0.3109 -0.6203  0.5360
17082SOL    HW157083  11.647   3.741   2.699 -0.1123  0.0429 -0.3708
17082SOL    HW257084  11.625   3.783   2.843  0.7838 -1.6799  0.2967
17083SOL     OW57085   3.760   2.898  10.039 -0.1664  0.4879 -0.1827
17083SOL    HW157086   3.747   2.991  10.055 -1.6120  0.3100 -0.1789
17083SOL    HW257087   3.801   2.894   9.953  1.6089  1.1747  0.5838
17084SOL     OW57088   8.528   7.861   5.782  0.2527 -0.1034  0.4013
17084SOL    HW157089   8.500   7.894   5.867 -2.1866 -0.8528 -0.0407
17084SOL    HW257090   8.604   7.806   5.801  0.5086  0.7253  1.9053
17085SOL     OW57091   4.769   3.519   1.592 -0.4520  0.1241 -0.4844
17085SOL    HW157092   4.732   3.486   1.510  1.7113 -1.8641 -0.7462
17085SOL    HW257093   4.858   3.544   1.569 -0.7804  2.6075  0.6164
17086SOL     OW57094   5.251  10.162   7.662  0.1096  0.0378 -0.2980
17086SOL    HW157095   5.280  10.249   7.691  2.2383 -1.3028  1.9287
17086SOL    HW257096   5.309  10.141   7.589  2.2263 -0.9584  1.5601
17087SOL     OW57097   7.064   3.445   4.432  0.0694  0.2371  0.1022
17087SOL    HW157098   6.991   3.412   4.484 -0.6716  1.3637 -0.2036
17087SOL    HW257099   7.133   3.380   4.444 -1.3752 -1.5093 -0.5709
17088SOL     OW57100   0.185   1.060   9.190 -0.0933 -0.5968 -0.8919
17088SOL    HW157101   0.176   1.026   9.279  2.1690 -1.2654 -0.8514
17088SOL    HW257102   0.102   1.104   9.173 -1.4041 -2.2527  0.7434
17089SOL     OW57103   4.117  10.917   5.284  0.0702 -0.3077  0.2199
17089SOL    HW157104   4.125  10.863   5.205 -0.1091 -0.3459  0.2280
17089SOL    HW257105   4.140  10.858   5.356  1.0582 -0.0481  0.1274
17090SOL     OW57106   3.704   9.761   5.699  0.1920  0.5118 -0.2459
17090SOL    HW157107   3.652   9.786   5.622 -1.1159 -0.7321  0.1793
17090SOL    HW257108   3.662   9.807   5.772  1.5248  1.8119 -0.2591
17091SOL     OW57109   0.171   1.484   3.351 -0.2253 -0.0228  0.2669
17091SOL    HW157110   0.126   1.411   3.395  0.2144 -0.1370  0.5303
17091SOL    HW257111   0.221   1.526   3.421  0.1367  0.0588 -0.0439
17092SOL     OW57112   8.759   9.087   7.767 -0.4821  0.1523  0.3060
17092SOL    HW157113   8.715   9.005   7.746 -0.0008 -0.2273  0.7482
17092SOL    HW257114   8.688   9.149   7.786 -0.8610  0.0080 -0.6126
17093SOL     OW57115   4.757   9.744  10.100 -0.3597  0.6114 -0.1807
17093SOL    HW157116   4.662   9.748  10.100 -0.5014 -1.4353 -0.9791
17093SOL    HW257117   4.779   9.698  10.180 -0.0285  1.0942  0.0118
17094SOL     OW57118   1.097   8.282   1.732  0.3990  0.3516 -0.2884
17094SOL    HW157119   1.130   8.209   1.680  0.2489 -0.3533  0.5716
17094SOL    HW257120   1.099   8.357   1.673  1.0761 -0.2330 -1.0259
17095SOL     OW57121   8.724   1.905   7.596 -0.2052 -0.0179 -0.1895
17095SOL    HW157122   8.816   1.931   7.591  0.1189 -1.0959 -0.0930
17095SOL    HW257123   8.681   1.956   7.527 -0.1844  2.8898  1.7625
17096SOL     OW57124   9.341   1.143   2.050  0.0423 -0.7752  0.1741
17096SOL    HW157125   9.424   1.106   2.022 -0.1929  0.0590 -1.7981
17096SOL    HW257126   9.283   1.133   1.974 -0.9070  0.8776  0.6243
17097SOL     OW57127   3.607   6.474   0.569 -0.5241  0.3128 -0.0781
17097SOL    HW157128   3.613   6.416   0.645  0.0684 -0.5066 -0.7369
17097SOL    HW257129   3.514   6.480   0.550 -0.7324  0.9828  1.0499
17098SOL     OW57130   7.952   4.511   8.065 -0.8049  0.1655 -0.0786
17098SOL    HW157131   7.901   4.589   8.089 -0.4422  0.4868 -0.3294
17098SOL    HW257132   7.907   4.438   8.107 -1.3696  0.4682 -0.1524
17099SOL     OW57133  10.565   6.151   7.920 -0.2953 -0.2285  0.0024
17099SOL    HW157134  10.648   6.155   7.969 -1.5919  2.0745  2.2817
17099SOL    HW257135  10.574   6.219   7.853 -0.0083 -0.6734 -0.4224
17100SOL     OW57136  11.476   9.612  11.419 -0.0836  0.3840  0.1975
17100SOL    HW157137  11.446   9.572  11.337 -1.0976 -0.4324  0.9446
17100SOL    HW257138  11.549   9.556  11.446  0.2045  0.6109 -0.0994
17101SOL     OW57139   4.153   9.123   5.337  0.2194 -0.1000 -0.5252
17101SOL    HW157140   4.165   9.028   5.330 -0.4039 -0.2562  0.3961
17101SOL    HW257141   4.173   9.156   5.249 -0.0660 -1.1405 -0.9984
17102SOL     OW57142   0.956   6.881   1.838  0.1909 -0.6739  0.0068
17102SOL    HW157143   0.865   6.853   1.844 -0.1793  0.3312 -0.6801
17102SOL    HW257144   0.977   6.874   1.745  0.4686  0.1236  0.0012
17103SOL     OW57145   4.005   8.979   7.062 -0.0966  0.2342 -0.1067
17103SOL    HW157146   3.989   9.021   6.978 -2.8223  0.1056  0.2531
17103SOL    HW257147   3.966   9.039   7.126 -2.2315 -1.7417  0.5959
17104SOL     OW57148   3.255   0.365   7.760 -0.5043 -0.0003  0.2316
17104SOL    HW157149   3.245   0.439   7.700 -1.5928 -1.5999 -1.6538
17104SOL    HW257150   3.183   0.375   7.823 -1.5071 -0.1977 -0.8628
17105SOL     OW57151   8.740   3.877  11.589  0.3046  0.6218  0.7846
17105SOL    HW157152   8.699   3.853  11.672  0.6509 -0.1147  0.7481
17105SOL    HW257153   8.672   3.860  11.523  0.4207  0.0976  0.7983
17106SOL     OW57154   0.957   5.441  11.395 -0.1370  0.2649 -0.5024
17106SOL    HW157155   0.913   5.526  11.406 -1.5052 -0.4243 -0.5122
17106SOL    HW257156   1.010   5.453  11.316  1.7805  1.9410  0.9352
17107SOL     OW57157   6.449   5.664  10.171 -0.4763 -0.4820 -0.4690
17107SOL    HW157158   6.409   5.674  10.085 -1.1270  2.1809  0.0472
17107SOL    HW257159   6.405   5.729  10.225  0.7000 -1.3162  1.6045
17108SOL     OW57160   2.117   4.066   6.142 -0.3541  0.0381 -0.1892
17108SOL    HW157161   2.085   4.155   6.128 -0.8780 -0.2217 -0.6983
17108SOL    HW257162   2.101   4.021   6.059  0.9150 -0.2385 -0.3032
17109SOL     OW57163   5.137   8.544   3.713 -0.8891  0.2202  0.2719
17109SOL    HW157164   5.062   8.502   3.753  0.5633 -2.8716  0.0405
17109SOL    HW257165   5.212   8.519   3.767  0.3972  0.4230 -1.3037
17110SOL     OW57166   5.223   3.591  10.447  0.4881  0.2518  0.3949
17110SOL    HW157167   5.236   3.603  10.353  0.2178 -1.3198  0.1237
17110SOL    HW257168   5.135   3.625  10.464  0.7031  0.9312  0.1743
17111SOL     OW57169   5.081   5.913   9.766 -0.4972  0.2076  0.4303
17111SOL    HW157170   5.091   5.914   9.671  3.0674 -1.7470  0.6107
17111SOL    HW257171   5.112   5.999   9.794  0.2810  0.1220 -0.1241
17112SOL     OW57172   1.074   9.728  11.015  0.4361  0.7871 -0.4760
17112SOL    HW157173   1.101   9.788  11.085  1.3303 -0.1785  0.0495
17112SOL    HW257174   1.129   9.650  11.028 -1.2908 -0.5117 -0.5784
17113SOL     OW57175   4.512   8.519  12.193  0.8212 -0.0771 -0.0683
17113SOL    HW157176   4.588   8.577  12.185  0.9136 -0.3280 -1.1649
17113SOL    HW257177   4.448   8.570  12.243  1.6561  0.1849  0.7578
17114SOL     OW57178   1.454  12.025  11.214 -0.2769  0.3945 -0.2267
17114SOL    HW157179   1.390  12.079  11.168 -1.7479 -0.4514  0.7531
17114SOL    HW257180   1.417  12.013  11.301  0.2741 -1.7510 -0.2424
17115SOL     OW57181   7.890   5.904   5.322  0.1189  0.1194  0.0291
17115SOL    HW157182   7.932   5.986   5.295  0.5855  0.5150  1.8430
17115SOL    HW257183   7.896   5.847   5.245  2.9010  0.5787 -0.1673
17116SOL     OW57184   7.186   2.216  11.315  0.2894  0.1799 -0.5402
17116SOL    HW157185   7.096   2.187  11.307  0.7839 -2.0026  1.1306
17116SOL    HW257186   7.205   2.213  11.409  2.3204 -0.1499 -0.9102
17117SOL     OW57187  11.098  10.953   0.242  0.4756 -0.1359 -0.0574
17117SOL    HW157188  11.191  10.937   0.255  0.6393  1.0695  0.3931
17117SOL    HW257189  11.073  10.894   0.171  1.5814 -0.4569 -0.1980
17118SOL     OW57190   9.493  10.079   0.194 -0.1905 -0.1373  0.4113
17118SOL    HW157191   9.436  10.154   0.180 -0.6081 -0.1845  1.7189
17118SOL    HW257192   9.433  10.005   0.207  0.2034 -0.4968  0.2442
17119SOL     OW57193   9.162   3.395   4.454  0.6374 -0.2490 -0.3203
17119SOL    HW157194   9.219   3.461   4.493 -0.2929  0.3243  0.1044
17119SOL    HW257195   9.168   3.410   4.360  0.5027  0.3980 -0.2318
17120SOL     OW57196   1.988   5.619   4.701  0.4460  0.4994  0.2017
17120SOL    HW157197   1.975   5.583   4.789  0.7304  2.5927  1.1747
17120SOL    HW257198   1.995   5.542   4.644 -2.0416 -0.9042  1.6209
17121SOL     OW57199   5.861   3.954  10.118  0.5397 -0.4940 -0.5377
17121SOL    HW157200   5.811   3.946  10.198  0.0316  0.0085 -0.7991
17121SOL    HW257201   5.868   4.049  10.103  2.6781 -0.4656  0.1821
17122SOL     OW57202  10.695  11.003  11.373 -0.4571  0.6019  0.2337
17122SOL    HW157203  10.681  10.920  11.328 -1.6522  0.0702  1.4964
17122SOL    HW257204  10.731  10.979  11.459  2.7220  1.6432 -0.6630
17123SOL     OW57205   6.961   1.435   1.858 -0.0132  0.6944 -0.1047
17123SOL    HW157206   6.994   1.349   1.885 -0.7378 -0.5066 -2.7447
17123SOL    HW257207   7.039   1.489   1.847  0.4108  0.6796  2.2951
17124SOL     OW57208   7.387   5.090   6.699  0.4729 -0.4168  0.1469
17124SOL    HW157209   7.395   5.019   6.635 -1.0638 -2.8627  2.4458
17124SOL    HW257210   7.294   5.113   6.699  0.5558 -0.0252  1.0444
17125SOL     OW57211   0.892   2.871   1.095 -0.0674 -0.5875  0.4101
17125SOL    HW157212   0.928   2.794   1.140  0.4711 -0.2061  0.6446
17125SOL    HW257213   0.926   2.945   1.144 -0.3576 -0.1894  0.0145
17126SOL     OW57214  10.801   3.314   3.447  0.5411  0.7277 -0.0217
17126SOL    HW157215  10.776   3.251   3.514  0.2314  0.2381 -0.5895
17126SOL    HW257216  10.877   3.274   3.405  0.2515  0.6586 -0.4833
17127SOL     OW57217   1.143   0.910   5.435  0.0702 -1.3128 -0.0585
17127SOL    HW157218   1.097   0.831   5.406  0.3911 -1.2929 -0.6387
17127SOL    HW257219   1.187   0.942   5.357 -0.2635 -0.4043  0.1150
17128SOL     OW57220   7.703   6.539   4.245  0.1192 -0.3609  0.1389
17128SOL    HW157221   7.672   6.513   4.332  1.4351 -0.2126  0.6803
17128SOL    HW257222   7.730   6.630   4.256  2.0606 -0.8918  0.0950
17129SOL     OW57223   0.737   7.784   6.399 -0.3171  0.2382  0.2145
17129SOL    HW157224   0.707   7.791   6.490 -0.5050  1.2509  0.0799
17129SOL    HW257225   0.821   7.829   6.398 -0.0023 -0.3372  0.0165
17130SOL     OW57226  10.615   9.063  11.545 -0.2484 -0.1975 -0.4525
17130SOL    HW157227  10.661   8.987  11.581 -0.5078 -0.1380  0.0170
17130SOL    HW257228  10.555   9.090  11.615 -3.0888 -1.9850 -1.9962
17131SOL     OW57229   9.732  11.393   4.740  1.1341 -0.2361  0.1770
17131SOL    HW157230   9.743  11.303   4.771  1.1246 -0.1919  0.3086
17131SOL    HW257231   9.665  11.430   4.797 -0.1692 -0.6909 -0.9961
17132SOL     OW57232   5.520  12.048   3.381 -0.0662  0.2208 -0.3065
17132SOL    HW157233   5.431  12.041   3.416 -0.2513  0.7027 -0.6750
17132SOL    HW257234   5.523  12.133   3.337  0.4234 -0.0079 -0.7362
17133SOL     OW57235   5.763   9.809   4.980  0.2428 -0.4915  0.1039
17133SOL    HW157236   5.752   9.778   5.070  2.0258 -1.7221 -0.0581
17133SOL    HW257237   5.718   9.743   4.926  0.3530 -0.4918  0.0119
17134SOL     OW57238  10.529   2.160   8.563  0.6214 -0.2593  0.6588
17134SOL    HW157239  10.557   2.077   8.601  0.2910 -0.2355  0.9524
17134SOL    HW257240  10.441   2.143   8.530  0.5476 -0.0207  0.7319
17135SOL     OW57241   8.384   3.319   5.596 -0.2118 -0.4041 -0.2759
17135SOL    HW157242   8.334   3.394   5.628  0.3381 -0.0932 -0.1134
17135SOL    HW257243   8.461   3.316   5.654  0.7694  0.1314 -1.4962
17136SOL     OW57244   5.215  10.497   7.188  0.3591 -0.2910  0.4558
17136SOL    HW157245   5.128  10.466   7.210  0.0230 -2.0739 -2.7546
17136SOL    HW257246   5.204  10.590   7.170 -0.7754 -0.3916  0.5790
17137SOL     OW57247   8.479   0.863  11.665 -0.3318 -0.2589  0.6199
17137SOL    HW157248   8.492   0.889  11.573  0.8709 -0.5611  0.6926
17137SOL    HW257249   8.525   0.931  11.715 -0.1208 -0.6432  0.9502
17138SOL     OW57250  10.746  10.103   7.235  0.9197  0.6328 -0.3194
17138SOL    HW157251  10.818  10.094   7.172  1.2288  0.9800 -0.0209
17138SOL    HW257252  10.690  10.027   7.218  1.6781  0.0112 -0.1476
17139SOL     OW57253   0.389   4.589   8.053 -0.1694 -0.1958  0.2117
17139SOL    HW157254   0.391   4.500   8.089 -0.3948  0.6415  2.4839
17139SOL    HW257255   0.368   4.645   8.129  0.0572  1.8050 -1.1241
17140SOL     OW57256   8.473   2.126   8.579 -0.8694 -0.3477 -0.0350
17140SOL    HW157257   8.478   2.128   8.483 -3.2808  0.6018 -0.2034
17140SOL    HW257258   8.486   2.034   8.602 -0.6804 -0.6490 -1.2884
17141SOL     OW57259   7.785  11.713  11.207 -0.2887 -0.3327 -0.1978
17141SOL    HW157260   7.729  11.755  11.140  0.0033  1.1152  0.4188
17141SOL    HW257261   7.848  11.781  11.230  0.9895 -1.5437 -0.0023
17142SOL     OW57262   0.879  12.063   2.774  0.0823  0.2342  0.4059
17142SOL    HW157263   0.874  12.034   2.682 -0.3657 -0.0337  0.5126
17142SOL    HW257264   0.857  12.156   2.771  1.8494  0.6840  0.0165
17143SOL     OW57265   6.478  11.914   9.587 -0.3918 -0.6010  0.5501
17143SOL    HW157266   6.499  11.832   9.542 -0.0483  0.6012 -1.6438
17143SOL    HW257267   6.559  11.938   9.631  0.9201  0.5551 -2.2315
17144SOL     OW57268   9.928   2.246   6.050  0.2816 -0.7484  0.2799
17144SOL    HW157269   9.873   2.251   5.972  1.2977  0.7253 -0.4030
17144SOL    HW257270  10.013   2.218   6.017  0.3069 -1.6838  1.1118
17145SOL     OW57271   2.779   7.454   5.742 -0.7996  0.5854  0.0952
17145SOL    HW157272   2.779   7.486   5.652 -1.0310  0.5524  0.0836
17145SOL    HW257273   2.788   7.359   5.734 -0.6992  0.5935  0.1110
17146SOL     OW57274   1.698  11.413   7.074 -0.2622 -0.4825 -0.2813
17146SOL    HW157275   1.736  11.413   6.987  1.1448  0.1798  0.2953
17146SOL    HW257276   1.628  11.348   7.070  1.0469 -1.8926 -1.3667
17147SOL     OW57277   8.094   4.800   1.395 -0.1539 -0.0474  0.2468
17147SOL    HW157278   8.146   4.877   1.373 -0.1129 -0.3379 -0.7089
17147SOL    HW257279   8.015   4.835   1.437  0.5138  0.4234  1.1372
17148SOL     OW57280   4.263  12.143   2.876  0.2525  0.6438 -0.1412
17148SOL    HW157281   4.283  12.147   2.782 -0.4103  0.2973 -0.3038
17148SOL    HW257282   4.185  12.198   2.885 -1.6603 -1.8754 -0.3623
17149SOL     OW57283   2.346  11.753   3.438  0.3150  0.2728  0.1947
17149SOL    HW157284   2.340  11.662   3.467  0.4668  0.8096  2.0395
17149SOL    HW257285   2.256  11.776   3.412 -0.3193  0.3649  2.2983
17150SOL     OW57286   5.773   6.482   7.191  0.3648  0.0358  0.3275
17150SOL    HW157287   5.784   6.508   7.100 -1.1518  2.3916  0.7212
17150SOL    HW257288   5.705   6.414   7.188  2.2142 -1.8726 -0.4648
17151SOL     OW57289   5.385   5.993   3.586  0.2346  1.1731  0.4278
17151SOL    HW157290   5.333   5.913   3.592  0.8016  0.8112  0.6590
17151SOL    HW257291   5.402   6.002   3.492  0.4743  0.8127  0.4316
17152SOL     OW57292   7.255   8.874   4.307 -0.2737 -0.4572  1.1888
17152SOL    HW157293   7.342   8.895   4.341  0.0431  0.3783 -0.0613
17152SOL    HW257294   7.272   8.826   4.226 -0.8343  2.4856 -0.8513
17153SOL     OW57295  12.079  11.997  11.484 -0.4179  0.3967 -0.6105
17153SOL    HW157296  12.065  11.916  11.532  0.1654  0.5216 -0.2254
17153SOL    HW257297  12.076  11.970  11.392  2.2806 -0.5452 -0.5091
17154SOL     OW57298   4.424   7.078   8.401 -0.0283 -0.2885 -0.4570
17154SOL    HW157299   4.379   7.079   8.317  2.1687 -0.4337 -1.6997
17154SOL    HW257300   4.354   7.089   8.466 -1.7806 -0.2285 -2.2724
17155SOL     OW57301   6.974   0.861   9.722  0.2702 -0.2281 -0.9797
17155SOL    HW157302   6.940   0.854   9.812  1.6820  0.7405 -0.3221
17155SOL    HW257303   7.043   0.795   9.717  0.8841  0.4012 -0.9937
17156SOL     OW57304   4.979   4.565  10.477 -0.0480  0.3575 -0.0078
17156SOL    HW157305   4.929   4.629  10.529 -0.5587 -0.3290  0.3721
17156SOL    HW257306   5.024   4.618  10.411  2.3038  1.5493  2.3455
17157SOL     OW57307   9.601  10.970   4.102  0.0185  0.4834  0.3572
17157SOL    HW157308   9.586  10.957   4.009  1.6452  1.4726 -0.0675
17157SOL    HW257309   9.529  11.028   4.130 -0.1608  0.6299 -0.3971
17158SOL     OW57310  11.392   5.632  11.866  0.2858  0.3448  0.0099
17158SOL    HW157311  11.486   5.653  11.861  0.1991  0.5737 -0.6993
17158SOL    HW257312  11.348   5.714  11.845 -0.1479  1.0847  3.2615
17159SOL     OW57313   9.398   5.373   1.397  0.1361  0.2042  0.4776
17159SOL    HW157314   9.459   5.441   1.370 -0.2812 -0.0936 -1.3594
17159SOL    HW257315   9.437   5.291   1.365 -0.1732 -0.2274  1.1855
17160SOL     OW57316   1.561  11.491   8.914 -0.0813  0.1030 -0.3705
17160SOL    HW157317   1.647  11.475   8.877  0.0522  0.6076 -0.2892
17160SOL    HW257318   1.534  11.575   8.877 -1.4798 -1.0430 -2.1082
17161SOL     OW57319   6.098  12.158  11.521 -0.0812 -0.1429  0.1660
17161SOL    HW157320   6.124  12.192  11.436 -0.7540  1.4934  0.5849
17161SOL    HW257321   6.158  12.084  11.536 -0.4979 -1.0247 -2.0629
17162SOL     OW57322   5.122   4.427   4.789  0.1395  0.0914 -0.0168
17162SOL    HW157323   5.055   4.387   4.845 -2.6634 -0.0880 -3.1782
17162SOL    HW257324   5.129   4.517   4.821 -0.8170 -0.1797  1.0224
17163SOL     OW57325  12.092  12.113   8.824  0.0321 -0.3633  0.6910
17163SOL    HW157326  12.101  12.039   8.884  0.5304 -1.2280 -0.4171
17163SOL    HW257327  12.181  12.146   8.811 -0.0395 -0.3373  0.2371
17164SOL     OW57328   6.382   7.808   7.351 -0.2496 -0.4316 -0.2659
17164SOL    HW157329   6.302   7.757   7.336  0.5003 -2.1723  1.3081
17164SOL    HW257330   6.452   7.744   7.345  0.8981  0.7692  0.0051
17165SOL     OW57331   8.712   0.627   1.122 -0.5487  0.0392  0.5161
17165SOL    HW157332   8.765   0.649   1.198 -1.7009  0.1386  1.3190
17165SOL    HW257333   8.769   0.644   1.047  1.8748 -3.3353  1.3490
17166SOL     OW57334   9.957   3.092   4.045 -0.1983 -0.2684  0.0264
17166SOL    HW157335   9.930   3.149   3.974 -2.1221 -0.0672  0.8661
17166SOL    HW257336   9.939   3.003   4.013  2.1730 -0.4602 -1.0175
17167SOL     OW57337   1.014   7.843  12.197 -0.3983  0.0111  0.1544
17167SOL    HW157338   0.945   7.786  12.163  0.6084 -0.5118 -1.1332
17167SOL    HW257339   0.970   7.927  12.214 -1.2248 -0.0805 -1.3393
17168SOL     OW57340  11.497   2.960  11.301  0.5165  0.3879  0.2013
17168SOL    HW157341  11.416   2.962  11.353 -0.9109 -0.6205 -1.8686
17168SOL    HW257342  11.562   3.002  11.358 -1.3239  0.8384  2.1246
17169SOL     OW57343  10.745   7.704   0.368  0.3366  0.3549 -0.1775
17169SOL    HW157344  10.840   7.714   0.380  0.3633  0.0962 -0.1649
17169SOL    HW257345  10.717   7.653   0.444  0.4218 -0.8417 -0.9236
17170SOL     OW57346   7.880   4.300   4.768 -0.5910  0.8764 -0.4777
17170SOL    HW157347   7.862   4.338   4.682 -0.5246  1.8166 -0.0939
17170SOL    HW257348   7.816   4.230   4.777 -0.6121  0.7851 -1.2822
17171SOL     OW57349   0.782   3.705   9.962  0.2760 -0.0090 -0.5928
17171SOL    HW157350   0.806   3.625   9.915  1.1420 -1.2402  1.7910
17171SOL    HW257351   0.864   3.737   9.998 -0.6065 -0.4652  2.0109
17172SOL     OW57352   5.517   9.142  12.282  0.4423  0.2834 -0.1240
17172SOL    HW157353   5.435   9.189  12.270  0.3157 -0.2073 -1.3958
17172SOL    HW257354   5.494   9.050  12.268  1.3534  0.2232 -1.4156
17173SOL     OW57355  11.948   6.131   3.488  0.7346  0.2080  0.1702
17173SOL    HW157356  11.865   6.084   3.497 -0.4675  1.9613 -1.1590
17173SOL    HW257357  11.994   6.114   3.570 -0.8444 -0.9621  0.8602
17174SOL     OW57358  11.985   7.267   6.553 -0.3476  0.0135  0.0128
17174SOL    HW157359  12.052   7.199   6.567  0.4471  0.7979  0.1105
17174SOL    HW257360  12.017   7.342   6.603 -1.3251  0.4013  0.0777
17175SOL     OW57361  10.771   3.016   8.318 -0.1737  0.0354 -0.0954
17175SOL    HW157362  10.749   2.924   8.332  0.7172 -0.7122 -2.9233
17175SOL    HW257363  10.754   3.058   8.403 -1.8633 -2.4440  0.9111
17176SOL     OW57364  12.191   4.361   5.625 -0.0419  0.1428  0.0851
17176SOL    HW157365  12.270   4.316   5.655  1.0584  2.0657  0.2298
17176SOL    HW257366  12.164   4.313   5.547  0.2559 -1.5752  0.9952
17177SOL     OW57367   7.419   9.755   2.336  0.9418 -0.3600  0.2565
17177SOL    HW157368   7.382   9.772   2.249  1.1028 -0.3430  0.1902
17177SOL    HW257369   7.343   9.748   2.394  0.7726 -1.6132 -0.0890
17178SOL     OW57370   5.042   7.634   6.084 -0.5625 -0.2191 -0.5757
17178SOL    HW157371   4.978   7.694   6.122 -0.4346 -0.0310 -0.6528
17178SOL    HW257372   5.110   7.625   6.151 -0.8464 -0.7044 -0.3493
17179SOL     OW57373   5.107  12.111   4.590 -0.5268 -0.2079 -0.3004
17179SOL    HW157374   5.021  12.147   4.613 -0.8835 -1.2930  0.1113
17179SOL    HW257375   5.162  12.189   4.577 -1.0917  0.5017  1.2241
17180SOL     OW57376   6.106   4.133   4.520 -0.0495 -0.3469  0.6577
17180SOL    HW157377   6.083   4.222   4.492 -0.6548 -0.6693  0.0935
17180SOL    HW257378   6.025   4.099   4.559 -0.0590 -0.9305  0.1343
17181SOL     OW57379   6.067   1.737   6.775 -0.2184  0.1444  0.1536
17181SOL    HW157380   6.144   1.794   6.767  1.6364 -2.0333  1.4026
17181SOL    HW257381   6.064   1.690   6.692  0.2923 -0.3133  0.3863
17182SOL     OW57382   5.695   4.996   5.353 -0.0592  0.1698 -0.2348
17182SOL    HW157383   5.743   4.926   5.309  0.2800 -0.2939  0.8242
17182SOL    HW257384   5.681   4.963   5.442 -0.7065  1.0720  0.0164
17183SOL     OW57385   4.037  10.942   7.671 -0.4715  0.3858  0.1599
17183SOL    HW157386   4.115  10.891   7.692  0.1805  1.5659  0.7258
17183SOL    HW257387   3.966  10.878   7.670  0.5170 -0.7470 -0.5533
17184SOL     OW57388   8.941   3.090  11.367 -0.6760 -0.2619 -0.0652
17184SOL    HW157389   8.929   3.127  11.454  2.1057  0.5077  0.0696
17184SOL    HW257390   8.959   2.997  11.383  0.7019  0.0511  0.2760
17185SOL     OW57391   5.654   8.074   3.485  0.1222 -0.0008  0.6023
17185SOL    HW157392   5.684   8.126   3.560  0.8957 -1.3684  1.2878
17185SOL    HW257393   5.711   8.101   3.413 -0.2745  0.9394  0.6190
17186SOL     OW57394   2.627   9.290   9.284  0.5862  0.0064 -0.0724
17186SOL    HW157395   2.561   9.324   9.222  1.0654  0.3273 -0.4152
17186SOL    HW257396   2.580   9.224   9.334 -0.2361  0.8052  0.2489
17187SOL     OW57397   4.642   2.955   5.389 -0.3673  0.5387  0.0758
17187SOL    HW157398   4.576   2.921   5.329  0.7774 -0.2003 -0.8093
17187SOL    HW257399   4.595   2.969   5.471 -1.1027 -2.5613  0.3048
17188SOL     OW57400   1.523   5.941   6.413 -0.7367 -0.8716 -0.5705
17188SOL    HW157401   1.539   5.846   6.414  0.5951 -0.6702 -0.0883
17188SOL    HW257402   1.562   5.971   6.330 -0.9278 -0.7163 -0.6036
17189SOL     OW57403   5.528  11.516  11.640 -0.1430 -0.9613 -0.2795
17189SOL    HW157404   5.494  11.604  11.625  2.3418 -0.0256 -0.9521
17189SOL    HW257405   5.486  11.487  11.721 -0.8693  0.9027  0.0656
17190SOL     OW57406   8.567   4.497  10.889 -0.3634 -0.3573 -0.2181
17190SOL    HW157407   8.635   4.539  10.942 -0.2931  0.4997 -0.9529
17190SOL    HW257408   8.565   4.549  10.808 -2.0409 -0.2345 -0.1197
17191SOL     OW57409   9.497   7.345   2.107  0.3647 -0.2406  0.0639
17191SOL    HW157410   9.451   7.420   2.143 -0.9375 -0.0160 -1.9195
17191SOL    HW257411   9.571   7.382   2.059 -0.0796 -0.2315 -0.6252
17192SOL     OW57412   5.093  10.137   4.376 -0.2846 -0.6250 -0.2183
17192SOL    HW157413   5.005  10.139   4.415  0.4505  0.0082  1.5373
17192SOL    HW257414   5.117  10.229   4.366  0.8248 -0.7593  0.9454
17193SOL     OW57415  11.298  10.383   9.462  0.8918 -0.4264 -0.0400
17193SOL    HW157416  11.325  10.297   9.430  0.2583  0.0749 -2.0896
17193SOL    HW257417  11.203  10.386   9.447  1.0097  0.8723 -0.6441
17194SOL     OW57418   3.135  10.955   3.324 -0.0318  0.4795  0.1668
17194SOL    HW157419   3.134  11.051   3.326 -3.0717  0.5850 -0.7010
17194SOL    HW257420   3.048  10.931   3.290  0.4331 -2.5987  0.8435
17195SOL     OW57421   7.696   3.440   6.806 -0.3617 -0.3661  0.5326
17195SOL    HW157422   7.733   3.352   6.799 -1.3823 -0.8112  0.5782
17195SOL    HW257423   7.665   3.460   6.717  2.3261  1.1078 -0.1904
17196SOL     OW57424   5.792   1.617   4.162  0.3029 -0.0695  0.6189
17196SOL    HW157425   5.747   1.566   4.095 -0.6396  0.6057  0.7212
17196SOL    HW257426   5.783   1.566   4.242  0.6351 -0.4412  0.4185
17197SOL     OW57427   5.458   6.508   5.948  0.1737  0.2346  0.0071
17197SOL    HW157428   5.374   6.550   5.932 -0.0351  0.0803  0.7107
17197SOL    HW257429   5.522   6.570   5.912 -0.2643 -0.0353 -1.3242
17198SOL     OW57430   3.641   6.312   6.154  0.4816  0.1608 -0.2898
17198SOL    HW157431   3.558   6.276   6.184 -0.2609  1.0224 -1.2438
17198SOL    HW257432   3.663   6.379   6.219  1.1383 -0.9823  0.6991
17199SOL     OW57433   8.063   2.186   0.930  0.0927  0.3611  0.2724
17199SOL    HW157434   8.073   2.184   0.835  0.7893  2.8702  0.2209
17199SOL    HW257435   8.021   2.271   0.947 -1.9397 -0.9032  2.0841
17200SOL     OW57436   9.902   4.251   6.603  0.1641  0.3375  0.0219
17200SOL    HW157437   9.918   4.229   6.512 -2.1204 -1.0197 -0.1313
17200SOL    HW257438   9.908   4.168   6.650  0.1807  0.8344  0.9380
17201SOL     OW57439   8.006   7.454   4.542 -0.7220  0.2800  0.1894
17201SOL    HW157440   8.054   7.377   4.571 -0.2694  1.3311  2.4117
17201SOL    HW257441   8.061   7.491   4.473  0.1825 -0.1533  0.6576
17202SOL     OW57442   9.351  11.083  11.397  0.3323 -0.2239  0.2375
17202SOL    HW157443   9.445  11.096  11.414  0.4294  2.5656 -1.6994
17202SOL    HW257444   9.308  11.112  11.478  1.0540 -1.7988  1.2562
17203SOL     OW57445   8.466   1.902   8.136 -0.0510 -0.0483 -0.2300
17203SOL    HW157446   8.494   1.951   8.058 -0.6347  1.7668  0.6267
17203SOL    HW257447   8.420   1.826   8.101  0.6445  0.1498 -1.6543
17204SOL     OW57448   5.605   4.374  11.269  0.4273 -0.8761 -0.4787
17204SOL    HW157449   5.695   4.347  11.252 -0.0514 -2.0438 -1.3621
17204SOL    HW257450   5.552   4.315  11.214 -0.8414  0.1149 -0.3625
17205SOL     OW57451   2.248  10.423   4.957  0.1460 -0.1587  0.3769
17205SOL    HW157452   2.195  10.424   5.037 -0.7560 -1.1567 -0.1835
17205SOL    HW257453   2.273  10.515   4.944 -2.3710  0.5497  0.0782
17206SOL     OW57454   3.223  12.080   8.248 -0.3638  0.3673  0.1882
17206SOL    HW157455   3.205  12.011   8.184  1.4210  1.8059 -2.0152
17206SOL    HW257456   3.318  12.090   8.247 -0.5163  2.4456  0.8659
17207SOL     OW57457   4.534   5.925   4.544 -0.4408  0.0899  0.2535
17207SOL    HW157458   4.610   5.870   4.523 -0.2689 -0.2192  1.6222
17207SOL    HW257459   4.497   5.948   4.458  0.9163 -0.1373 -0.4154
17208SOL     OW57460  10.614   1.431  11.906 -0.2422 -0.3119  0.2351
17208SOL    HW157461  10.624   1.350  11.956 -0.8023  0.3010  1.3973
17208SOL    HW257462  10.544   1.479  11.952  0.9415  1.3965  0.3686
17209SOL     OW57463  12.044   4.962  10.804  0.0689  0.1754  0.4273
17209SOL    HW157464  11.975   4.926  10.860 -2.9293  1.2330 -2.2895
17209SOL    HW257465  12.045   4.905  10.727  1.9748  0.4578  0.2033
17210SOL     OW57466  11.471   1.324   4.614  0.6340  0.0806  0.7237
17210SOL    HW157467  11.544   1.368   4.658 -0.7015  1.8659  1.2567
17210SOL    HW257468  11.399   1.329   4.677 -0.3638 -0.3714 -0.3519
17211SOL     OW57469   2.770   4.200   9.375 -0.7110 -0.1596  0.1335
17211SOL    HW157470   2.723   4.228   9.296 -1.8601 -0.2025  0.7850
17211SOL    HW257471   2.813   4.279   9.407 -1.2642  0.1329  0.1566
17212SOL     OW57472   6.909   6.716  10.422  0.3475  0.0795 -0.2819
17212SOL    HW157473   6.939   6.628  10.403 -0.5416 -0.0001 -1.4570
17212SOL    HW257474   6.821   6.705  10.459  0.4421  0.4543  0.0747
17213SOL     OW57475   2.956   6.088   5.990  0.2430 -0.0872 -0.1909
17213SOL    HW157476   3.020   6.035   6.037 -1.2528 -0.5946  1.3722
17213SOL    HW257477   2.871   6.052   6.015 -0.6974  0.5986 -2.1578
17214SOL     OW57478   4.831  11.176   7.814  0.3050  0.8816  0.5821
17214SOL    HW157479   4.925  11.160   7.820  0.1584  0.5530  2.5641
17214SOL    HW257480   4.799  11.112   7.750  1.3409  0.6301  0.3058
17215SOL     OW57481   4.750   8.677   3.657  0.1647  0.6080 -0.5489
17215SOL    HW157482   4.826   8.655   3.604  0.4089  0.7966 -0.2769
17215SOL    HW257483   4.786   8.708   3.740 -0.0543  3.7834 -1.5076
17216SOL     OW57484   2.546   3.247   8.862  0.0437 -0.1759 -0.7795
17216SOL    HW157485   2.579   3.323   8.910 -0.0487 -0.5086 -0.1681
17216SOL    HW257486   2.549   3.273   8.770 -2.8461  1.7628 -0.4697
17217SOL     OW57487   1.229  11.948  10.431 -0.6680 -0.0753  0.4577
17217SOL    HW157488   1.234  11.985  10.519 -1.3057  2.5056 -0.4988
17217SOL    HW257489   1.264  12.016  10.374 -0.1453 -1.7306 -1.3172
17218SOL     OW57490  10.423   8.132   8.529 -0.0229  0.0264 -0.4452
17218SOL    HW157491  10.420   8.185   8.609 -0.3882 -2.7650  1.5331
17218SOL    HW257492  10.515   8.104   8.522 -0.0200  0.1492 -0.9669
17219SOL     OW57493   4.231   8.572   0.886  0.1683  0.4262  0.1564
17219SOL    HW157494   4.203   8.525   0.965 -0.8416 -0.7357 -0.8492
17219SOL    HW257495   4.210   8.512   0.814 -0.8091  2.2737 -1.1708
17220SOL     OW57496   4.267   6.267   9.396 -0.1727 -0.5059  0.1296
17220SOL    HW157497   4.226   6.336   9.344 -2.2296 -1.5913  0.2322
17220SOL    HW257498   4.200   6.240   9.458  1.1077 -1.5572  1.1318
17221SOL     OW57499   0.795   3.957   0.640  0.3153  0.4462 -0.1474
17221SOL    HW157500   0.751   3.874   0.658  0.3580  0.2750 -0.8343
17221SOL    HW257501   0.887   3.941   0.664  0.7383 -0.3365 -2.1007
17222SOL     OW57502   1.150   4.880   2.270 -0.2952 -0.0849 -0.0548
17222SOL    HW157503   1.141   4.812   2.336  0.6048 -0.4233 -0.2698
17222SOL    HW257504   1.210   4.843   2.205 -3.4588 -0.9911 -2.6942
17223SOL     OW57505   5.773   7.154   9.011 -0.4242 -0.1652  0.2040
17223SOL    HW157506   5.769   7.122   9.102  0.0643 -1.4219 -0.1862
17223SOL    HW257507   5.813   7.081   8.963  0.5985  1.0154 -0.7832
17224SOL     OW57508   8.163   8.204  11.392  0.0488  0.4238 -0.1546
17224SOL    HW157509   8.093   8.257  11.354 -1.3203 -1.7949 -0.9903
17224SOL    HW257510   8.224   8.189  11.320 -1.2059 -1.6265 -0.8908
17225SOL     OW57511  12.263   6.602   9.001  0.1353 -0.3214 -0.1056
17225SOL    HW157512  12.357   6.584   8.993  0.0694 -0.2297 -1.3243
17225SOL    HW257513  12.239   6.566   9.087  1.1922 -0.7443  0.0319
17226SOL     OW57514  12.250  11.345   3.074  0.2219 -0.0683 -0.4927
17226SOL    HW157515  12.340  11.329   3.103  0.2848  0.2826 -0.4915
17226SOL    HW257516  12.259  11.399   2.995 -0.0290  1.1576  0.2947
17227SOL     OW57517   6.371   9.624   0.373 -0.0746 -0.1148 -0.3937
17227SOL    HW157518   6.305   9.684   0.337  0.4774  0.3878 -0.5696
17227SOL    HW257519   6.319   9.552   0.410 -0.7179  0.1816 -0.6953
17228SOL     OW57520   5.801   2.637   1.154  0.1506 -0.4382 -0.1133
17228SOL    HW157521   5.893   2.663   1.148  0.2738 -0.7360  0.4761
17228SOL    HW257522   5.794   2.593   1.238 -1.0518  1.7151  0.9966
17229SOL     OW57523   5.315   2.466   1.283  0.2708  0.3356 -0.6932
17229SOL    HW157524   5.342   2.511   1.364  0.4081 -1.1571  0.1293
17229SOL    HW257525   5.264   2.532   1.235  0.6201  1.4205  0.3617
17230SOL     OW57526  11.317   4.027   7.459  0.3589  0.2728  0.2452
17230SOL    HW157527  11.264   4.090   7.508 -1.0342  0.0672 -0.9065
17230SOL    HW257528  11.252   3.973   7.412  1.5781 -0.6041 -0.4930
17231SOL     OW57529  12.174   8.081   8.284  0.4075  0.2402 -0.3089
17231SOL    HW157530  12.260   8.122   8.279 -0.3360  1.8047 -0.9123
17231SOL    HW257531  12.115   8.143   8.241 -1.2794 -0.0982  1.3881
17232SOL     OW57532   7.810  10.539   0.978 -0.3705 -0.4909 -0.6645
17232SOL    HW157533   7.759  10.559   0.899 -1.0278 -1.1004 -0.3993
17232SOL    HW257534   7.797  10.446   0.993 -0.2915 -0.3746  0.1937
17233SOL     OW57535  12.327  12.303  10.355  0.0442  0.1523  0.0257
17233SOL    HW157536  12.290  12.240  10.293 -1.1623  0.7252  0.1172
17233SOL    HW257537  12.414  12.323  10.320 -0.5910  0.4297 -1.4754
17234SOL     OW57538   9.741   2.119   2.894 -0.6897 -0.2904 -0.3664
17234SOL    HW157539   9.714   2.092   2.982  0.4585  0.9836  0.4159
17234SOL    HW257540   9.664   2.163   2.859 -0.2315  2.0032  1.2726
17235SOL     OW57541   2.935   3.986   9.373  0.1936 -0.7095  0.4572
17235SOL    HW157542   2.920   3.928   9.298  0.8942 -0.0526 -0.2071
17235SOL    HW257543   2.876   4.060   9.357  0.3948 -0.5355  0.5180
17236SOL     OW57544   3.256   9.891  11.070 -0.0150  0.3239  0.0697
17236SOL    HW157545   3.301   9.936  11.142 -1.1074  1.4709  0.0641
17236SOL    HW257546   3.226   9.961  11.013 -1.3042 -0.4441 -0.2279
17237SOL     OW57547  11.157   9.579   7.327  0.2069  0.1439 -0.1107
17237SOL    HW157548  11.077   9.552   7.282  0.9190  0.0552 -1.3836
17237SOL    HW257549  11.129   9.648   7.387 -0.6487  0.9945 -1.4304
17238SOL     OW57550   2.315   8.697  12.106 -0.2680 -0.2638  0.0806
17238SOL    HW157551   2.304   8.771  12.047 -0.1648  0.9965  1.5723
17238SOL    HW257552   2.379   8.640  12.063  0.0698  0.7801 -0.8335
17239SOL     OW57553   1.653  12.054   5.065 -0.0247  0.0774  0.0159
17239SOL    HW157554   1.632  12.030   4.975 -4.3725  0.0674  0.8241
17239SOL    HW257555   1.651  12.149   5.066 -2.7070  0.0892  0.4800
17240SOL     OW57556   5.814  11.905   4.444 -0.1911 -0.2094 -0.2104
17240SOL    HW157557   5.845  11.984   4.489  0.0156 -0.7776  0.6799
17240SOL    HW257558   5.875  11.837   4.471 -0.3667 -0.6722 -0.9731
17241SOL     OW57559  11.272   9.932   1.777  0.0353  0.0363 -0.1696
17241SOL    HW157560  11.262   9.836   1.775 -1.9961  0.0061  3.4589
17241SOL    HW257561  11.366   9.946   1.770  0.5979 -2.4150  1.2647
17242SOL     OW57562   9.546   7.076   0.559  0.0919  0.2812  0.4892
17242SOL    HW157563   9.479   7.139   0.534 -0.2327 -0.4354 -0.4843
17242SOL    HW257564   9.627   7.111   0.521  0.1158  0.6649  0.8811
17243SOL     OW57565   7.687   8.372   9.337  0.1232 -0.7349  0.3601
17243SOL    HW157566   7.756   8.381   9.271 -0.1474  1.1797  0.2815
17243SOL    HW257567   7.734   8.357   9.419  0.7666  1.6524  0.5034
17244SOL     OW57568   3.672   9.711   7.041  0.3449  0.7941  0.4558
17244SOL    HW157569   3.737   9.640   7.042  0.7725  1.1785  1.2367
17244SOL    HW257570   3.662   9.736   7.133 -0.9395  0.7295  0.3477
17245SOL     OW57571   2.572   1.263   4.555  0.4493  0.2631  0.0396
17245SOL    HW157572   2.573   1.345   4.605 -1.2276 -0.0963  0.7187
17245SOL    HW257573   2.645   1.272   4.493  0.6359  2.0326  0.4668
17246SOL     OW57574   8.613   9.428   9.209 -0.1974  0.0002 -0.1183
17246SOL    HW157575   8.655   9.512   9.189 -0.2638  0.1419  0.3085
17246SOL    HW257576   8.521   9.441   9.185  0.2378 -0.7818 -2.4124
17247SOL     OW57577   9.314   2.522   3.888  0.0825  0.1070 -0.5190
17247SOL    HW157578   9.307   2.570   3.971  2.1742  2.2204 -1.4516
17247SOL    HW257579   9.343   2.588   3.825 -2.2619 -1.2320 -3.1966
17248SOL     OW57580   7.067   1.737   6.346 -0.1118  1.1630  0.1982
17248SOL    HW157581   7.052   1.781   6.263 -1.2630 -1.5107 -1.1527
17248SOL    HW257582   7.159   1.710   6.343 -0.0302  1.4579  0.0130
17249SOL     OW57583   5.920   3.870   0.350 -0.2136  0.3190  0.1885
17249SOL    HW157584   5.864   3.860   0.274 -1.9647  2.3206  1.0950
17249SOL    HW257585   5.986   3.935   0.324  0.5433 -0.6105 -0.2682
17250SOL     OW57586  10.263   0.479   6.431  0.0988 -0.2218 -0.1183
17250SOL    HW157587  10.238   0.408   6.371  0.5424  0.6726 -1.4050
17250SOL    HW257588  10.232   0.449   6.517  1.6346 -2.6798 -0.3063
17251SOL     OW57589   3.653   1.869   4.125 -0.2295 -0.2822 -0.5026
17251SOL    HW157590   3.558   1.876   4.119 -0.2886 -0.7991 -0.2018
17251SOL    HW257591   3.674   1.786   4.082  0.0167 -0.5038  0.0366
17252SOL     OW57592  11.511   7.908   5.180  0.2540  0.3410  0.3158
17252SOL    HW157593  11.586   7.859   5.146  0.5540  1.3371 -0.5144
17252SOL    HW257594  11.508   7.885   5.272  0.6682 -0.8697  0.0497
17253SOL     OW57595  11.047   6.434   3.992 -0.0562  0.6804  0.0680
17253SOL    HW157596  11.104   6.444   4.068  0.4207 -1.9614  0.1416
17253SOL    HW257597  10.994   6.514   3.991  1.9266  2.1206  1.4178
17254SOL     OW57598   2.623   4.604   9.845  0.0923 -0.2323 -0.1607
17254SOL    HW157599   2.685   4.532   9.832 -1.5592 -1.3221 -2.8163
17254SOL    HW257600   2.678   4.676   9.877  2.4589 -1.5799 -0.8916
17255SOL     OW57601   4.012   7.016   0.330 -0.1212  0.2888  0.4136
17255SOL    HW157602   4.048   7.037   0.244 -0.7279  0.1209  0.1192
17255SOL    HW257603   4.038   6.925   0.345  0.0811  0.3538  0.4597
17256SOL     OW57604   7.214   1.998   1.328  0.1069 -0.5648  0.1772
17256SOL    HW157605   7.177   2.075   1.371  1.3780 -0.7083  1.6424
17256SOL    HW257606   7.194   2.010   1.236  1.0365  2.0184  0.2202
17257SOL     OW57607   8.530   0.528   2.862 -0.1840 -0.4689  0.2341
17257SOL    HW157608   8.527   0.472   2.939 -1.3025  0.6864  1.0677
17257SOL    HW257609   8.440   0.561   2.852  0.5267  1.5665  0.0916
17258SOL     OW57610   0.886   1.679  11.584  0.3855  0.2284 -0.0009
17258SOL    HW157611   0.910   1.748  11.646 -1.0052  1.3893 -0.6892
17258SOL    HW257612   0.919   1.598  11.624  1.9547  1.2606  0.8817
17259SOL     OW57613   1.954   2.026   4.273 -0.9101 -0.0609  0.0271
17259SOL    HW157614   1.977   1.958   4.337  0.6759  0.9057  0.5498
17259SOL    HW257615   1.925   1.977   4.196  0.5617 -1.3896  0.2440
17260SOL     OW57616   2.254   8.188  10.056  0.2255  0.2756 -0.1114
17260SOL    HW157617   2.162   8.205  10.034  0.1098 -0.8733 -0.5600
17260SOL    HW257618   2.302   8.256  10.009 -0.2603 -0.2370 -1.4087
17261SOL     OW57619   7.343  11.027   5.894 -0.7273  0.0408 -0.4156
17261SOL    HW157620   7.370  11.117   5.908 -0.7755 -0.3566  3.1430
17261SOL    HW257621   7.250  11.025   5.917 -0.6301 -0.9617 -0.0257
17262SOL     OW57622   3.273   9.274   5.089 -0.6034 -0.2867  0.2183
17262SOL    HW157623   3.344   9.214   5.066 -1.2695 -0.1655 -2.3758
17262SOL    HW257624   3.233   9.298   5.006 -1.6317  2.2396  1.3249
17263SOL     OW57625   7.145   6.255   6.868  0.7936  0.0606  0.0871
17263SOL    HW157626   7.209   6.283   6.933 -0.0059  1.0557  0.4680
17263SOL    HW257627   7.099   6.336   6.843  0.4175 -0.4598 -0.9734
17264SOL     OW57628  10.605   6.951   6.691 -0.7182  0.1248 -0.0365
17264SOL    HW157629  10.539   6.932   6.758 -0.9330 -1.0347 -0.5537
17264SOL    HW257630  10.682   6.899   6.717 -0.4465  0.4806 -0.1234
17265SOL     OW57631   3.432   7.556   5.958  0.0309 -0.5383 -0.1140
17265SOL    HW157632   3.432   7.601   6.043  0.2351 -0.4158 -0.1799
17265SOL    HW257633   3.351   7.585   5.916 -0.3203 -0.9760  0.2384
17266SOL     OW57634   6.504   4.087   8.705 -0.5487  0.0375 -0.2156
17266SOL    HW157635   6.595   4.115   8.707 -0.7080  0.6560  2.5949
17266SOL    HW257636   6.461   4.148   8.645  0.7346  0.1717 -1.0233
17267SOL     OW57637   2.376   2.599  11.495 -0.0458 -0.4928  0.9884
17267SOL    HW157638   2.399   2.684  11.459 -1.1348  0.2090  1.9125
17267SOL    HW257639   2.281   2.600  11.503 -0.2783 -2.5251 -0.7397
17268SOL     OW57640   3.598   5.020  10.256  0.3665 -0.2524  0.1415
17268SOL    HW157641   3.598   5.099  10.310 -1.8083 -0.2180  0.1532
17268SOL    HW257642   3.680   5.026  10.206 -0.0530  2.3780 -0.3988
17269SOL     OW57643   4.917   6.763   8.690  0.0613  0.0614 -0.2942
17269SOL    HW157644   4.882   6.730   8.607  0.6491 -0.2225 -0.4325
17269SOL    HW257645   4.874   6.710   8.757 -0.3516  0.2330 -0.4194
17270SOL     OW57646   1.920   9.686  11.336 -0.6836 -0.7295  0.1859
17270SOL    HW157647   1.994   9.640  11.298  1.8122  1.1461  2.4044
17270SOL    HW257648   1.903   9.758  11.275 -1.1571 -1.5164 -0.6417
17271SOL     OW57649   0.786   0.419  10.046 -0.2447 -0.4404  0.3905
17271SOL    HW157650   0.798   0.357  10.118 -0.2004 -1.5506 -0.5509
17271SOL    HW257651   0.872   0.459  10.034 -0.1847 -0.4552  0.7602
17272SOL     OW57652  11.941   7.580   4.561  0.3600 -0.0211  0.3433
17272SOL    HW157653  11.896   7.656   4.599  1.4762 -0.5334  2.8628
17272SOL    HW257654  11.873   7.536   4.509 -0.9612  1.3688  0.8094
17273SOL     OW57655   7.272   9.042   0.527 -0.1159  0.1267 -0.0491
17273SOL    HW157656   7.250   9.026   0.618 -0.3186 -0.5637 -0.2118
17273SOL    HW257657   7.207   9.105   0.497  0.1826  0.6402  0.3858
17274SOL     OW57658   5.081   3.163   7.385 -0.5449 -0.2065 -0.1118
17274SOL    HW157659   5.025   3.087   7.371 -0.4371 -0.4619  0.7520
17274SOL    HW257660   5.169   3.127   7.389 -0.3373  0.1566 -1.1654
17275SOL     OW57661   1.041   7.549   1.574 -0.0296 -0.5229 -0.2203
17275SOL    HW157662   1.041   7.480   1.508  1.5333 -1.6772  0.9030
17275SOL    HW257663   1.100   7.616   1.540 -0.6325 -0.2651 -0.7801
17276SOL     OW57664   6.375   4.364   2.657  0.2935 -0.4565 -0.2045
17276SOL    HW157665   6.387   4.405   2.572 -0.6633 -1.5606 -0.9017
17276SOL    HW257666   6.284   4.335   2.657 -0.1193  0.7008  1.7365
17277SOL     OW57667   2.847   7.518   9.488 -0.4740 -0.0190  0.1293
17277SOL    HW157668   2.859   7.431   9.526 -0.7804 -0.8511 -1.6026
17277SOL    HW257669   2.936   7.550   9.475 -0.3598 -0.0896  0.6809
17278SOL     OW57670  10.313   0.558   6.786  0.2779  0.2706 -0.2728
17278SOL    HW157671  10.378   0.519   6.728  1.5969  0.6811  0.8516
17278SOL    HW257672  10.344   0.536   6.874 -0.5309  1.3601  0.3124
17279SOL     OW57673   6.124  11.156   5.268  0.0371  0.9722  0.2683
17279SOL    HW157674   6.113  11.117   5.181  2.1435 -2.8456  1.5041
17279SOL    HW257675   6.208  11.202   5.262  0.4208  0.2955  0.3986
17280SOL     OW57676   6.506   4.350   9.945  0.0998 -0.1290  0.1867
17280SOL    HW157677   6.437   4.303   9.899 -0.1587  0.7768 -0.3804
17280SOL    HW257678   6.502   4.316  10.035  0.2938 -1.5687 -0.3202
17281SOL     OW57679   1.407  11.782  11.669  0.0042  0.6705  0.8980
17281SOL    HW157680   1.383  11.730  11.592  0.3250  1.2592  0.3899
17281SOL    HW257681   1.454  11.857  11.633  2.1831 -0.1822  1.8089
17282SOL     OW57682  11.318   4.525   3.240 -0.3294 -0.5736 -0.0501
17282SOL    HW157683  11.367   4.456   3.193  0.3777 -0.4071  0.4247
17282SOL    HW257684  11.293   4.587   3.171  0.8232 -0.2592 -0.2053
17283SOL     OW57685   8.127   5.271   7.980 -0.2289  0.2099  0.4740
17283SOL    HW157686   8.155   5.261   7.889 -0.5204 -1.5295  0.5468
17283SOL    HW257687   8.073   5.350   7.980 -0.0447  0.3526 -0.8209
17284SOL     OW57688   0.703   5.547   0.323 -0.1973  0.1932  0.0865
17284SOL    HW157689   0.626   5.568   0.269 -0.8789  1.3916  1.4635
17284SOL    HW257690   0.777   5.581   0.273 -0.4582 -1.3704 -1.4780
17285SOL     OW57691   9.449   7.739   7.563  0.2796 -0.3896  0.2405
17285SOL    HW157692   9.489   7.758   7.478  0.8005 -0.5802  0.4388
17285SOL    HW257693   9.401   7.818   7.585 -3.0695 -1.5864 -1.9755
17286SOL     OW57694   7.823  12.087   3.157  0.4085 -0.1631  0.2488
17286SOL    HW157695   7.796  12.074   3.066  0.2942  0.9028  0.1080
17286SOL    HW257696   7.749  12.131   3.197  0.7763  0.1021  0.6453
17287SOL     OW57697  11.089  10.239   7.015  0.3711  0.5295  0.2139
17287SOL    HW157698  11.183  10.236   6.997  0.3255  0.0788  0.0428
17287SOL    HW257699  11.051  10.283   6.938  0.5527  1.6775  0.7558
17288SOL     OW57700   4.033  10.204   0.573 -0.3383 -0.0789  0.1603
17288SOL    HW157701   4.016  10.297   0.588 -0.2297 -0.0962  0.4009
17288SOL    HW257702   4.059  10.198   0.481 -0.7162  0.0750  0.0443
17289SOL     OW57703   1.727  12.051   4.523  0.1852 -0.2240  0.3191
17289SOL    HW157704   1.802  12.000   4.495  0.1119  0.2583 -0.8251
17289SOL    HW257705   1.764  12.127   4.568  0.5905  1.2717 -2.2813
17290SOL     OW57706   9.481  11.954   6.949 -0.0357  0.0886  0.1280
17290SOL    HW157707   9.518  11.993   6.870  1.8502 -0.9500  0.4314
17290SOL    HW257708   9.517  12.006   7.021  0.5168 -0.6668  0.4128
17291SOL     OW57709   7.695   8.716   7.736  0.1946  0.0996  0.2811
17291SOL    HW157710   7.662   8.803   7.761  0.3849  0.0874  0.5721
17291SOL    HW257711   7.775   8.705   7.786 -0.1664 -0.5153  0.7332
17292SOL     OW57712   9.624   2.415  11.418 -0.1748 -0.5093  0.5414
17292SOL    HW157713   9.598   2.486  11.476  1.5181 -0.7942  1.7055
17292SOL    HW257714   9.556   2.414  11.350 -1.0808  1.1733  1.3568
17293SOL     OW57715   6.757   2.638   0.279 -0.0551 -0.2556 -0.2664
17293SOL    HW157716   6.809   2.719   0.272  1.1213 -0.7449  1.9220
17293SOL    HW257717   6.717   2.643   0.365 -1.1769 -1.3523 -0.6962
17294SOL     OW57718   8.408  10.017   2.143 -0.1186 -0.2011  0.1552
17294SOL    HW157719   8.439  10.108   2.134 -2.3162  0.5664 -0.2397
17294SOL    HW257720   8.423   9.979   2.057 -1.2718  0.5265 -0.3961
17295SOL     OW57721   1.892   5.825   8.539  0.2979  0.1987 -0.3493
17295SOL    HW157722   1.881   5.781   8.624 -0.0249 -0.1061 -0.5499
17295SOL    HW257723   1.821   5.889   8.536  0.5449  0.4878 -0.2223
17296SOL     OW57724   0.478   9.432  10.617 -0.0816 -0.3087 -0.3158
17296SOL    HW157725   0.429   9.501  10.661  0.4588 -2.2544  3.8355
17296SOL    HW257726   0.563   9.471  10.598  0.3090  0.1929  2.1929
17297SOL     OW57727   2.672   5.421   5.467 -0.4468 -0.2268 -0.1133
17297SOL    HW157728   2.723   5.361   5.522  0.7829 -0.2559 -1.2223
17297SOL    HW257729   2.738   5.469   5.418 -1.4944 -0.3989 -1.7530
17298SOL     OW57730   9.061   8.661  11.824 -0.0982  0.2910 -0.5053
17298SOL    HW157731   9.041   8.663  11.918 -0.0673  3.0752 -0.4758
17298SOL    HW257732   8.980   8.633  11.783 -0.9467  1.5489  0.2351
17299SOL     OW57733   3.004   9.353   9.979  0.0926  0.8413 -0.0440
17299SOL    HW157734   3.004   9.260  10.005 -0.9386  0.5882 -0.8907
17299SOL    HW257735   3.047   9.353   9.893 -0.8060  0.9938 -0.5062
17300SOL     OW57736   4.709   1.610   1.209  0.3243  0.2018 -0.4635
17300SOL    HW157737   4.709   1.670   1.134  2.2952  1.3282  0.3516
17300SOL    HW257738   4.771   1.650   1.271  0.7113 -2.0258  0.6708
17301SOL     OW57739   9.063   9.568   1.776 -0.1647 -0.1867  1.3889
17301SOL    HW157740   9.135   9.629   1.793  0.7875 -0.1588 -2.0382
17301SOL    HW257741   9.103   9.482   1.777 -0.9543 -0.6060  3.2787
17302SOL     OW57742   1.133   3.910   2.131 -0.0020  0.0912 -0.1445
17302SOL    HW157743   1.048   3.880   2.100  0.1774 -1.2991  0.6362
17302SOL    HW257744   1.188   3.832   2.131  1.5343  1.1067 -1.3895
17303SOL     OW57745   9.196   1.893   1.587 -0.1372  0.0863 -0.6821
17303SOL    HW157746   9.101   1.901   1.590 -0.2716 -0.7939 -1.6319
17303SOL    HW257747   9.229   1.983   1.591 -0.9619  0.3534  0.4248
17304SOL     OW57748   3.004  10.607   0.840  0.4007  0.0873  0.1713
17304SOL    HW157749   3.080  10.559   0.871 -0.9854 -0.3467  3.2921
17304SOL    HW257750   2.929  10.557   0.873 -1.1651  2.2665  0.1440
17305SOL     OW57751   0.874  11.696   0.900  0.6090  0.0141 -0.2420
17305SOL    HW157752   0.810  11.638   0.941  0.9882  0.3906  0.9261
17305SOL    HW257753   0.823  11.748   0.838  0.3859 -2.0642 -1.9112
17306SOL     OW57754  12.161   1.686   2.357  1.0582 -0.2841 -0.0924
17306SOL    HW157755  12.082   1.632   2.354  0.5860  0.1867  2.2817
17306SOL    HW257756  12.163   1.729   2.271  0.6033 -2.7809 -1.4643
17307SOL     OW57757   4.115   7.573  11.389 -0.0145  0.2176 -0.1963
17307SOL    HW157758   4.157   7.590  11.473 -0.4168  0.4157 -0.0354
17307SOL    HW257759   4.027   7.545  11.411  0.0083 -0.1310 -0.5389
17308SOL     OW57760   3.596   4.547   2.126 -0.6204 -0.8603  0.2517
17308SOL    HW157761   3.574   4.467   2.079 -1.7658 -0.7881  0.6441
17308SOL    HW257762   3.618   4.518   2.215  0.2139 -0.8521  0.0633
17309SOL     OW57763   0.023   4.553   7.376  0.1216  0.1646  0.0937
17309SOL    HW157764   0.064   4.595   7.451 -1.5317  0.7397  0.7325
17309SOL    HW257765  -0.020   4.625   7.329 -2.3618 -0.6573  0.9415
17310SOL     OW57766   7.881   5.675   7.458  0.2815 -0.1029 -0.4890
17310SOL    HW157767   7.829   5.719   7.525 -0.0530 -0.2854 -0.6222
17310SOL    HW257768   7.907   5.592   7.499  1.0135  0.2703 -0.1965
17311SOL     OW57769   1.903   6.640   0.589 -0.0202  0.2967  0.2366
17311SOL    HW157770   1.887   6.686   0.671  1.4895  0.3430  0.5422
17311SOL    HW257771   1.960   6.698   0.540  2.4912 -1.4297  0.8981
17312SOL     OW57772  10.400   6.393   6.542  0.4553  1.0626  0.4435
17312SOL    HW157773  10.392   6.488   6.543 -0.1151  1.0159  1.5319
17312SOL    HW257774  10.494   6.377   6.537  0.5088  1.6371 -3.1657
17313SOL     OW57775  10.999  11.918   9.127  0.8051 -0.0706 -0.2783
17313SOL    HW157776  10.960  11.873   9.202  1.2899  1.1607  0.7535
17313SOL    HW257777  11.011  12.008   9.157  2.0655  0.1804 -1.4467
17314SOL     OW57778   6.708   9.225   7.488 -0.6315  0.4555  0.0924
17314SOL    HW157779   6.777   9.166   7.458  0.4334  1.2196  0.9447
17314SOL    HW257780   6.709   9.297   7.426 -1.7962 -0.2829 -0.8324
17315SOL     OW57781   3.240   8.346   2.731 -0.6714 -0.6251 -0.2827
17315SOL    HW157782   3.168   8.409   2.742 -0.1901 -0.1870  0.4528
17315SOL    HW257783   3.319   8.400   2.736 -0.2802 -1.1109 -1.0404
17316SOL     OW57784   0.619   0.296  10.758 -0.3092 -0.4716  0.0957
17316SOL    HW157785   0.706   0.324  10.731 -0.9149 -0.3210 -1.8694
17316SOL    HW257786   0.618   0.307  10.853  1.6878 -0.1842  0.1164
17317SOL     OW57787   3.335   2.215  11.022 -0.6758 -0.0584  0.3532
17317SOL    HW157788   3.373   2.131  11.047 -0.2203  0.0216 -0.0508
17317SOL    HW257789   3.299   2.250  11.103  0.5332  0.0849  0.8464
17318SOL     OW57790   5.070   6.002   8.173  0.1529 -0.3894 -0.6716
17318SOL    HW157791   5.074   6.094   8.200  1.0631 -0.1435 -1.5964
17318SOL    HW257792   4.979   5.977   8.187 -0.0022  0.5100  0.0412
17319SOL     OW57793   5.693  11.977   1.326 -0.0504  0.0847 -0.2703
17319SOL    HW157794   5.626  12.041   1.302  1.0071  1.5042  0.4052
17319SOL    HW257795   5.649  11.920   1.389 -0.7280  0.7923 -0.0803
17320SOL     OW57796   7.387  10.391   3.039  0.2243  0.9071 -0.2562
17320SOL    HW157797   7.444  10.463   3.011  0.4469  1.0203  0.4752
17320SOL    HW257798   7.396  10.325   2.969 -0.1627  1.6752 -1.0470
17321SOL     OW57799   0.242   8.772  10.367  0.8942  0.0409 -0.1414
17321SOL    HW157800   0.317   8.829  10.348  0.7492  0.1507 -0.3838
17321SOL    HW257801   0.269   8.723  10.445  0.2964  1.7777  1.2274
17322SOL     OW57802  11.701  11.653   2.648  0.0558  0.6390  0.4503
17322SOL    HW157803  11.759  11.592   2.694 -0.9767  1.1802  2.6304
17322SOL    HW257804  11.613  11.615   2.660 -0.2368  0.6586 -1.4026
17323SOL     OW57805   2.648   3.156  11.506 -1.0243 -0.4141  0.0808
17323SOL    HW157806   2.721   3.217  11.492 -0.7292 -0.6061  0.7869
17323SOL    HW257807   2.685   3.084  11.556 -1.4873 -0.9666 -0.3486
17324SOL     OW57808   6.667   4.720   7.380  0.2358 -0.1588  0.4647
17324SOL    HW157809   6.697   4.711   7.471 -0.0143 -3.2746  0.3554
17324SOL    HW257810   6.584   4.672   7.377 -0.3142  0.8102 -1.2019
17325SOL     OW57811   1.670  10.970   9.400  0.1708  0.5231  0.3251
17325SOL    HW157812   1.757  10.947   9.368  0.7592  2.5291  0.3581
17325SOL    HW257813   1.620  10.989   9.320  0.1557  0.6160  0.3556
17326SOL     OW57814   6.311   4.963   0.511 -0.0950  0.2031  0.8701
17326SOL    HW157815   6.388   5.013   0.539 -1.1911  1.5776  1.5498
17326SOL    HW257816   6.249   4.971   0.583 -1.3627  0.2011 -0.1838
17327SOL     OW57817   4.175   1.888   0.001  0.1610  0.2061  0.0578
17327SOL    HW157818   4.233   1.927  -0.065  1.1510 -3.3778 -1.4264
17327SOL    HW257819   4.234   1.860   0.071 -0.2046 -0.5123  0.0862
17328SOL     OW57820   0.098   1.100  11.200  0.2848 -0.0713  0.2142
17328SOL    HW157821   0.052   1.125  11.280  0.4131  0.1851  0.2068
17328SOL    HW257822   0.067   1.011  11.182 -0.9464  0.4529 -0.3279
17329SOL     OW57823   9.912  11.365   9.075 -0.1713  0.0634 -0.1801
17329SOL    HW157824   9.825  11.365   9.115  0.1826 -1.1544  0.6301
17329SOL    HW257825   9.960  11.435   9.120 -0.4551  0.1473 -0.0103
17330SOL     OW57826   6.174  12.131   4.211  0.2372  0.3744 -0.2741
17330SOL    HW157827   6.113  12.112   4.139 -0.3074  1.6236 -0.1674
17330SOL    HW257828   6.258  12.099   4.180  0.2746  2.0257 -2.0202
17331SOL     OW57829   1.730   9.863   6.779 -0.3370  0.3797  0.0212
17331SOL    HW157830   1.813   9.904   6.757 -0.1430 -0.2463 -0.4460
17331SOL    HW257831   1.725   9.868   6.874 -0.1877  1.2191 -0.0085
17332SOL     OW57832   2.098  12.313   4.650  0.1858 -0.1972  0.3392
17332SOL    HW157833   2.178  12.270   4.619 -0.8713 -2.6805  0.7685
17332SOL    HW257834   2.072  12.261   4.726 -1.7927  0.6019  0.2600
17333SOL     OW57835   1.047   9.417   6.994 -0.1466 -0.4894 -0.6681
17333SOL    HW157836   1.035   9.512   6.992  1.1922 -0.3185 -1.7922
17333SOL    HW257837   0.975   9.386   7.049  0.5686  1.3415  1.4826
17334SOL     OW57838  10.398   1.295  12.160  0.2232  0.1062 -0.1281
17334SOL    HW157839  10.325   1.314  12.219 -0.0588 -0.5233 -0.2699
17334SOL    HW257840  10.411   1.377  12.112 -1.1025 -0.0871 -0.8645
17335SOL     OW57841   6.356   8.233   1.990  0.2120 -0.4965  0.2562
17335SOL    HW157842   6.280   8.175   1.982  0.3578 -0.7240  0.5027
17335SOL    HW257843   6.320   8.321   1.982 -0.3512 -0.5096  2.2032
17336SOL     OW57844   1.634   0.944   8.852  0.1740  0.6822  0.0896
17336SOL    HW157845   1.608   0.878   8.916 -0.4194  2.8293  2.2433
17336SOL    HW257846   1.553   0.989   8.829  0.8522  2.4281  0.8772
17337SOL     OW57847   5.694  10.350   8.380  0.0751 -0.1820  0.4679
17337SOL    HW157848   5.683  10.426   8.437 -2.1138 -1.2652  1.5831
17337SOL    HW257849   5.727  10.281   8.437  1.4705 -0.2852 -0.4142
17338SOL     OW57850   0.146   7.228   1.643  0.4063  0.3318 -0.1021
17338SOL    HW157851   0.225   7.227   1.696  0.1182  0.2841  0.3341
17338SOL    HW257852   0.107   7.142   1.656  0.1368  0.4546 -0.0886
17339SOL     OW57853   5.600   2.800  11.745  0.0392 -0.1810  0.2626
17339SOL    HW157854   5.587   2.819  11.652  0.8951 -0.0501  0.1662
17339SOL    HW257855   5.690   2.826  11.762 -0.4778  0.9716  1.4179
17340SOL     OW57856   9.881  10.720   2.487 -0.5522 -0.4011  0.2426
17340SOL    HW157857   9.893  10.815   2.483  0.5339 -0.5248  0.3659
17340SOL    HW257858   9.799  10.709   2.534 -1.3239  0.5019 -0.8247
17341SOL     OW57859   4.747   1.870  10.423  0.1834  0.6234 -0.1830
17341SOL    HW157860   4.835   1.886  10.455 -0.0596 -1.2389  1.6554
17341SOL    HW257861   4.747   1.778  10.396 -0.9445  0.8604 -1.1233
17342SOL     OW57862   7.972   0.750   1.477 -0.0283  0.0377  0.2477
17342SOL    HW157863   7.917   0.701   1.416  0.4784 -2.0161  1.3351
17342SOL    HW257864   8.034   0.684   1.511  1.4260  1.7045  0.9665
17343SOL     OW57865   0.876   6.097   3.855  0.7026 -0.6584 -0.1797
17343SOL    HW157866   0.799   6.052   3.820  1.7114 -0.9440 -2.1827
17343SOL    HW257867   0.841   6.179   3.891 -0.4477 -0.3211 -1.9434
17344SOL     OW57868   2.386   3.729   6.572  0.1478 -0.0266  0.3606
17344SOL    HW157869   2.479   3.731   6.595  0.5513 -1.0136 -1.0692
17344SOL    HW257870   2.361   3.637   6.580 -1.3141  0.5085  2.8546
17345SOL     OW57871   6.032   0.183  11.156  0.0405 -0.2100 -0.9101
17345SOL    HW157872   5.994   0.141  11.080 -0.4078 -0.3942 -0.5885
17345SOL    HW257873   6.024   0.277  11.138  0.3715 -0.2524 -1.2968
17346SOL     OW57874   1.520   9.984   2.281  0.4835  0.2539  0.4525
17346SOL    HW157875   1.515   9.908   2.223  0.2412  0.2934  0.4193
17346SOL    HW257876   1.429  10.001   2.305  0.5398  0.5258  0.4698
17347SOL     OW57877   3.269   5.868  11.942 -0.1078 -0.0696  0.5414
17347SOL    HW157878   3.335   5.859  11.872  0.9389  1.0897  1.3337
17347SOL    HW257879   3.210   5.794  11.928  0.2604 -0.0729 -1.3585
17348SOL     OW57880  12.176   7.075   4.608  0.1737  0.4440  0.1501
17348SOL    HW157881  12.212   6.988   4.628  2.5944  0.6959 -2.4384
17348SOL    HW257882  12.233   7.136   4.655  0.6128  0.6903 -0.6635
17349SOL     OW57883   7.148   7.468   7.043  0.2003  0.5660 -0.7024
17349SOL    HW157884   7.078   7.482   7.107 -1.2980 -0.4744 -2.0431
17349SOL    HW257885   7.224   7.513   7.081  0.3943 -2.5651  3.3964
17350SOL     OW57886   6.546  12.009   9.938  0.0851  0.0092  0.2802
17350SOL    HW157887   6.540  11.967  10.024 -1.6848 -0.2137  0.0742
17350SOL    HW257888   6.456  12.009   9.904  0.6084  0.8603 -1.2126
17351SOL     OW57889   5.226  10.742   5.368  0.1645  0.4093  0.3608
17351SOL    HW157890   5.314  10.729   5.334  0.5850  0.5790  1.3589
17351SOL    HW257891   5.213  10.837   5.367  0.1032  0.4026  0.4885
17352SOL     OW57892   6.594   8.727  11.369 -0.0322  0.4144 -0.3082
17352SOL    HW157893   6.668   8.724  11.429  0.8412  2.5775 -1.1896
17352SOL    HW257894   6.536   8.657  11.400  2.3426 -1.3996  0.3829
17353SOL     OW57895   1.158   2.209   8.971 -0.4022 -0.3406  0.2285
17353SOL    HW157896   1.191   2.127   8.935  0.6210  0.3912 -0.5937
17353SOL    HW257897   1.190   2.211   9.061 -0.2921 -0.7610  0.2000
17354SOL     OW57898   0.518   3.924   5.637  0.6606  0.1712  0.5105
17354SOL    HW157899   0.612   3.930   5.623  0.3564  1.7643 -1.2657
17354SOL    HW257900   0.481   3.921   5.549 -1.1716  4.5001  0.9129
17355SOL     OW57901   7.329  11.504   2.139 -0.4685 -0.6487  0.0023
17355SOL    HW157902   7.343  11.485   2.046 -1.1499 -0.0173 -0.2405
17355SOL    HW257903   7.358  11.594   2.150  1.6315 -1.3851  0.8865
17356SOL     OW57904   8.585  11.328   4.424  0.2264 -0.2136 -0.1747
17356SOL    HW157905   8.537  11.337   4.342 -1.9748  1.3434  1.1578
17356SOL    HW257906   8.552  11.247   4.462 -1.2493  0.7150  0.6117
17357SOL     OW57907   9.592   6.996   6.651 -0.1149  0.1888 -0.0091
17357SOL    HW157908   9.634   6.939   6.588  0.0782 -1.5441  1.5860
17357SOL    HW257909   9.535   7.052   6.599  0.8859 -0.3756 -1.7929
17358SOL     OW57910   6.955   4.328   5.262  0.3643  0.1192  0.5996
17358SOL    HW157911   6.983   4.299   5.349  2.8391 -0.9416 -0.4656
17358SOL    HW257912   6.896   4.258   5.232  1.3341 -0.7019  0.5425
17359SOL     OW57913   5.169   4.092   7.485 -0.0196 -0.1762 -0.3634
17359SOL    HW157914   5.097   4.031   7.501  0.5925 -1.0413 -0.8049
17359SOL    HW257915   5.248   4.040   7.500  0.5184  0.6551 -0.2430
17360SOL     OW57916   5.386   2.108  12.329  0.2392 -0.3568  0.0101
17360SOL    HW157917   5.353   2.023  12.360  1.2282 -0.8508 -0.2486
17360SOL    HW257918   5.342   2.172  12.385 -1.4111 -0.9376 -0.5427
17361SOL     OW57919  10.007   9.087   1.454 -0.5863  0.0222 -0.2630
17361SOL    HW157920  10.086   9.080   1.507 -2.0255  1.8514  2.3059
17361SOL    HW257921   9.952   9.014   1.482 -2.1344  2.0401  2.3863
17362SOL     OW57922   5.308   8.162   5.618  0.2720 -0.6143  0.0039
17362SOL    HW157923   5.238   8.209   5.664 -0.6167 -1.9362  0.0675
17362SOL    HW257924   5.262   8.107   5.555  1.2972 -1.1468 -0.3007
17363SOL     OW57925   8.688  11.271   5.690  0.4006 -0.7098 -0.2291
17363SOL    HW157926   8.664  11.210   5.620 -0.0380  0.4132 -1.1024
17363SOL    HW257927   8.716  11.350   5.644  2.1178 -0.6411  0.8484
17364SOL     OW57928   0.559   6.739  12.068  0.5158  0.0061 -0.7072
17364SOL    HW157929   0.558   6.828  12.034  0.5026  0.2237 -0.1396
17364SOL    HW257930   0.613   6.690  12.005 -1.0163 -0.0130 -2.0857
17365SOL     OW57931   5.272   6.880   2.840  0.3361 -0.1150 -0.2175
17365SOL    HW157932   5.181   6.856   2.855 -0.1374  1.7859  0.1296
17365SOL    HW257933   5.299   6.827   2.765 -1.0267 -0.7347 -0.2850
17366SOL     OW57934  12.008   8.125  11.245 -0.0005  0.1479 -0.0488
17366SOL    HW157935  12.085   8.131  11.302  0.3907  1.0856 -0.6485
17366SOL    HW257936  11.934   8.135  11.304  0.4234  3.4912  0.1314
17367SOL     OW57937   6.196   2.318  11.278  0.0700 -0.3671  0.1380
17367SOL    HW157938   6.160   2.394  11.324 -0.2602  0.5821 -1.6018
17367SOL    HW257939   6.171   2.243  11.333 -0.3196  0.6917  1.4653
17368SOL     OW57940  12.193   7.414   8.531  0.2615 -0.0325  0.1682
17368SOL    HW157941  12.212   7.487   8.472  1.0597 -0.5231 -0.2068
17368SOL    HW257942  12.279   7.381   8.557 -0.0825 -0.2022  1.1447
17369SOL     OW57943   5.665   9.511   5.395 -0.2645 -0.0941  0.1112
17369SOL    HW157944   5.650   9.438   5.455  0.2984 -0.4176 -0.1443
17369SOL    HW257945   5.755   9.502   5.366  0.2247  1.4230  1.0402
17370SOL     OW57946   1.828   5.433   3.098 -0.0745 -0.2299  0.1084
17370SOL    HW157947   1.899   5.472   3.149 -0.8364  2.0370 -0.4335
17370SOL    HW257948   1.872   5.370   3.040  1.6281  1.5337 -0.6360
17371SOL     OW57949  11.913   2.117   2.297 -0.0113 -0.3371 -0.4711
17371SOL    HW157950  11.962   2.191   2.261 -1.4275  0.9078  0.0048
17371SOL    HW257951  11.963   2.089   2.373  0.7502 -0.1168 -0.8879
17372SOL     OW57952   5.773   2.486   3.061 -0.9789  0.0085  0.0753
17372SOL    HW157953   5.714   2.481   3.136 -0.6454 -0.6430  0.2985
17372SOL    HW257954   5.807   2.397   3.051  0.5404  0.5196  0.4257
17373SOL     OW57955   4.905   0.297   7.997 -0.6011  0.1543  0.0110
17373SOL    HW157956   4.942   0.336   7.918  1.3815 -0.2227  0.7099
17373SOL    HW257957   4.911   0.202   7.981  1.2609  0.0418  1.2162
17374SOL     OW57958   9.375   1.437   2.364  0.0527  0.1398 -0.1231
17374SOL    HW157959   9.469   1.452   2.365  0.4110 -1.8826  0.7510
17374SOL    HW257960   9.352   1.423   2.456 -1.0133  0.0957 -0.3840
17375SOL     OW57961   7.229   7.151   2.507 -0.3399  0.0882  0.2143
17375SOL    HW157962   7.254   7.206   2.432  0.6883  0.8892  1.1066
17375SOL    HW257963   7.236   7.209   2.583 -1.7858 -0.5880  0.9013
17376SOL     OW57964   5.475   9.530   4.352  0.7205  0.6905 -0.2362
17376SOL    HW157965   5.501   9.600   4.412 -0.4066  0.4366  0.5653
17376SOL    HW257966   5.413   9.571   4.292  0.4346  0.5042 -0.0715
17377SOL     OW57967   1.433   7.195   5.321 -0.6845  0.6408  0.0177
17377SOL    HW157968   1.451   7.118   5.267 -0.5331  0.5296  0.2260
17377SOL    HW257969   1.340   7.212   5.308 -0.6866  0.5068 -0.1400
17378SOL     OW57970   1.199   4.674  11.536  0.2034 -0.2001 -0.0406
17378SOL    HW157971   1.214   4.705  11.626  1.0642 -1.1285  0.1518
17378SOL    HW257972   1.246   4.591  11.531 -2.1926 -1.6238 -0.4751
17379SOL     OW57973   4.961   2.450   1.522  0.0613 -0.2230 -0.0932
17379SOL    HW157974   5.040   2.472   1.571 -0.5890 -0.8794  1.3005
17379SOL    HW257975   4.934   2.533   1.482  0.4794  0.3966  0.8755
17380SOL     OW57976  11.498   1.264  12.274 -0.4422 -0.0300 -0.3358
17380SOL    HW157977  11.442   1.305  12.208  0.2377  1.0137 -0.2856
17380SOL    HW257978  11.481   1.312  12.355 -0.0056 -0.1668 -0.1557
17381SOL     OW57979   7.633   7.996   6.963  0.4865  0.5985  0.2910
17381SOL    HW157980   7.711   8.012   6.909  0.6571  0.7880  0.5922
17381SOL    HW257981   7.649   7.910   7.001  1.3981  1.3861  1.7805
17382SOL     OW57982   7.055   8.143  11.458 -0.5438  0.4077 -0.1598
17382SOL    HW157983   7.048   8.053  11.426 -0.9116  0.4806 -0.2969
17382SOL    HW257984   7.146   8.169  11.440  0.0199 -0.4474  1.2897
17383SOL     OW57985   2.316  11.734   2.984 -0.0596  0.3078 -0.2601
17383SOL    HW157986   2.346  11.700   3.069 -1.9690 -1.3384 -0.1637
17383SOL    HW257987   2.356  11.677   2.919  1.2895  1.4829 -0.5203
17384SOL     OW57988   9.682   5.486   5.631 -0.0798  0.2915  0.0332
17384SOL    HW157989   9.710   5.401   5.597 -0.2625  0.9013 -1.7356
17384SOL    HW257990   9.593   5.498   5.596  1.4617  3.0665 -3.5620
17385SOL     OW57991   4.646   5.120  10.174 -0.2612  0.3906  0.2454
17385SOL    HW157992   4.557   5.145  10.200 -1.0638 -2.2619  0.3576
17385SOL    HW257993   4.650   5.138  10.080 -0.3231  2.0425  0.5398
17386SOL     OW57994   2.167   6.519   0.704  0.2670  0.8443 -0.4985
17386SOL    HW157995   2.086   6.555   0.667 -0.3049  0.5774  0.4476
17386SOL    HW257996   2.179   6.567   0.786 -0.7862 -1.3300  1.0625
17387SOL     OW57997   1.980   1.579   2.583 -0.4288  0.1846  0.8715
17387SOL    HW157998   1.886   1.597   2.589 -0.2728  0.8571  1.5025
17387SOL    HW257999   2.003   1.545   2.669 -0.2277 -0.7170  0.4735
17388SOL     OW58000   4.901  10.219   3.421  0.2382 -0.4496  0.2950
17388SOL    HW158001   4.837  10.288   3.438 -0.6775 -0.9315 -1.0434
17388SOL    HW258002   4.960  10.258   3.355  0.9842 -0.2241  1.0757
17389SOL     OW58003   1.218   6.776   5.724 -0.1599  0.1933 -0.0492
17389SOL    HW158004   1.214   6.688   5.761  0.4937 -0.6155 -1.7720
17389SOL    HW258005   1.153   6.776   5.654  1.4154  0.2873 -1.5780
17390SOL     OW58006   4.050   4.079   7.614  0.1635 -0.6127  0.1521
17390SOL    HW158007   4.020   4.095   7.703 -0.3488  0.6489 -0.2322
17390SOL    HW258008   4.006   3.997   7.589  1.3874 -1.7384  1.5091
17391SOL     OW58009  10.923  11.427   9.923  0.1514 -0.3900  0.4207
17391SOL    HW158010  10.895  11.429   9.831  0.0749 -0.3687  0.4440
17391SOL    HW258011  11.007  11.382   9.922  0.7422  0.6904  0.1866
17392SOL     OW58012   0.556   2.250   9.418 -0.6165 -0.1005 -0.6155
17392SOL    HW158013   0.564   2.247   9.514  0.6985  0.2033 -0.7024
17392SOL    HW258014   0.558   2.343   9.396 -1.2040 -0.1559 -0.9259
17393SOL     OW58015   0.833   8.438   2.838  0.3245 -0.0485  0.2259
17393SOL    HW158016   0.868   8.388   2.912  1.4381  0.6033  0.1445
17393SOL    HW258017   0.746   8.466   2.867 -0.1763 -1.6929  0.4206
17394SOL     OW58018   1.220   4.311   7.106 -0.0506  0.4123  0.3376
17394SOL    HW158019   1.269   4.265   7.175 -3.1158  0.3028  2.6797
17394SOL    HW258020   1.233   4.258   7.028  2.1211 -0.4836  1.2014
17395SOL     OW58021   5.907   3.834   1.855 -0.6532 -0.3050  0.2685
17395SOL    HW158022   5.968   3.762   1.839 -0.5335 -0.4624  1.3480
17395SOL    HW258023   5.918   3.892   1.780 -0.7953 -1.4387 -0.6563
17396SOL     OW58024   5.597   5.159   8.039 -0.8245 -0.3003  0.3549
17396SOL    HW158025   5.587   5.249   8.069  0.8412  0.5132 -1.3112
17396SOL    HW258026   5.508   5.130   8.019 -1.5762  0.3472  2.4810
17397SOL     OW58027   6.057   6.059  11.841  0.0399  0.3621 -0.5170
17397SOL    HW158028   6.001   5.990  11.804 -0.5293  0.9754 -0.8195
17397SOL    HW258029   6.047   6.133  11.781  1.1469  0.5046 -0.5445
17398SOL     OW58030   4.436   2.044   7.460 -0.5530 -0.1315 -0.1191
17398SOL    HW158031   4.351   2.020   7.497 -0.3255 -0.9894 -0.1393
17398SOL    HW258032   4.496   2.041   7.535 -1.0379  3.4768  0.5793
17399SOL     OW58033   0.729   5.775   5.772  0.1418  0.0098 -0.4148
17399SOL    HW158034   0.719   5.833   5.696  0.2066  1.0014  0.3082
17399SOL    HW258035   0.656   5.714   5.766 -0.4709  0.7554 -0.7040
17400SOL     OW58036   6.605   9.945   8.988 -0.0120  0.5185 -0.4226
17400SOL    HW158037   6.589   9.851   8.995  0.2441  0.5843  1.9012
17400SOL    HW258038   6.648   9.969   9.070 -2.2280  3.0550  0.1723
17401SOL     OW58039   9.401   1.928   2.173  0.5237  0.0953  0.6510
17401SOL    HW158040   9.443   1.851   2.135 -0.3827  0.3295 -0.9309
17401SOL    HW258041   9.329   1.892   2.225 -1.1492 -0.1468 -1.6755
17402SOL     OW58042   1.936   4.514  11.343  0.1534 -0.0784 -0.2594
17402SOL    HW158043   1.981   4.597  11.358 -0.6311  0.4293 -0.6200
17402SOL    HW258044   1.995   4.447  11.377  2.0335  0.3924 -2.3483
17403SOL     OW58045   3.609   1.845   3.424 -0.1447  0.2087 -0.0617
17403SOL    HW158046   3.533   1.814   3.475  0.6528 -2.5275 -0.3649
17403SOL    HW258047   3.594   1.811   3.336  2.1601 -1.9156  0.2555
17404SOL     OW58048  10.069   9.472   5.825 -0.1415 -0.0505  0.6067
17404SOL    HW158049  10.000   9.406   5.816  0.6502 -0.7627 -0.6146
17404SOL    HW258050  10.036   9.547   5.775  0.0794 -0.5070 -0.2568
17405SOL     OW58051   4.112   1.220   1.507  0.1802 -0.8809 -0.1736
17405SOL    HW158052   4.167   1.185   1.577  0.0091  0.1558  0.4968
17405SOL    HW258053   4.169   1.221   1.430  1.9296  2.3155  0.9898
17406SOL     OW58054   8.795   9.603   0.974 -0.2140  0.0969 -0.1882
17406SOL    HW158055   8.742   9.525   0.986 -0.2660  0.0896 -0.4727
17406SOL    HW258056   8.827   9.597   0.884 -0.6368  0.6656 -0.3785
17407SOL     OW58057   3.737   9.281   9.983  0.2898 -0.2539  0.1893
17407SOL    HW158058   3.742   9.344   9.912 -1.1731 -0.1352  0.1448
17407SOL    HW258059   3.670   9.316  10.041 -1.1218 -2.0811 -0.2169
17408SOL     OW58060   0.610   2.452   9.863 -0.3883 -0.4559 -0.0617
17408SOL    HW158061   0.623   2.469   9.956 -0.5047  1.5478 -0.3695
17408SOL    HW258062   0.522   2.486   9.844 -0.0950 -0.2044 -1.0448
17409SOL     OW58063   6.307  11.025   8.443 -0.5303  0.0325 -0.2687
17409SOL    HW158064   6.380  11.050   8.498 -0.6157 -1.7265  0.6994
17409SOL    HW258065   6.234  11.080   8.473  0.1715  1.2888 -0.7744
17410SOL     OW58066   8.580   9.693   4.712 -0.3831  0.1979 -0.5345
17410SOL    HW158067   8.669   9.702   4.677  0.0050 -1.8530 -0.2296
17410SOL    HW258068   8.528   9.669   4.636 -0.8046  1.7915 -0.7902
17411SOL     OW58069   6.490   9.096   1.839  0.0502 -0.1407  0.1701
17411SOL    HW158070   6.490   9.070   1.931  0.4617 -2.3299 -0.3943
17411SOL    HW258071   6.553   9.038   1.797 -0.2140  0.7207 -1.5421
17412SOL     OW58072   1.674   9.546  12.083 -0.3657 -0.6462 -0.1236
17412SOL    HW158073   1.616   9.564  12.157 -0.4535 -0.3350 -0.2670
17412SOL    HW258074   1.647   9.608  12.016  2.3933  1.9726  0.9694
17413SOL     OW58075   3.863  11.343  12.226  0.2650  0.1228  0.1431
17413SOL    HW158076   3.918  11.387  12.160 -1.1523  0.8394 -0.6098
17413SOL    HW258077   3.797  11.408  12.248 -2.0370 -1.6624 -1.1427
17414SOL     OW58078   7.806  10.934   6.014 -0.0318  0.1177 -0.0784
17414SOL    HW158079   7.737  10.914   5.951  0.9144  1.0215 -1.4724
17414SOL    HW258080   7.789  10.876   6.088  0.3918 -3.1531 -2.3147
17415SOL     OW58081   5.960   7.786   5.082 -0.2156 -0.0073  0.3369
17415SOL    HW158082   6.054   7.803   5.084 -0.5814  4.1703 -2.8406
17415SOL    HW258083   5.949   7.714   5.020  0.8632  0.3760 -0.3206
17416SOL     OW58084   9.052   3.421  10.110 -0.1409  0.0242 -0.7392
17416SOL    HW158085   9.015   3.333  10.113 -0.0230 -0.0997 -2.1951
17416SOL    HW258086   8.987   3.474  10.064  0.3709  0.3794 -1.0706
17417SOL     OW58087   3.618   9.770   4.550  0.1808 -0.1211  0.1169
17417SOL    HW158088   3.564   9.777   4.471  0.6438 -1.1417 -0.3160
17417SOL    HW258089   3.663   9.855   4.556 -1.4784  0.7773  0.5309
17418SOL     OW58090   9.180   3.287   1.811  0.1420 -0.1533 -0.5695
17418SOL    HW158091   9.225   3.370   1.794  0.6656 -0.1285  0.8141
17418SOL    HW258092   9.120   3.277   1.738  0.0519  1.4723 -0.7489
17419SOL     OW58093   7.198  12.175   2.760 -0.2767  0.6714 -0.0642
17419SOL    HW158094   7.270  12.128   2.802 -0.1956  0.3286 -0.5833
17419SOL    HW258095   7.120  12.147   2.809 -0.0737  0.9828  0.4465
17420SOL     OW58096   7.246   2.677   7.539 -0.5713  0.2083  0.2645
17420SOL    HW158097   7.273   2.743   7.604  1.2653 -1.3862  1.1982
17420SOL    HW258098   7.302   2.694   7.464 -1.6425  1.0680 -0.3811
17421SOL     OW58099   1.838   8.675   1.856  0.3061 -0.2700 -1.0813
17421SOL    HW158100   1.745   8.662   1.839  0.2439 -1.9366  0.3164
17421SOL    HW258101   1.856   8.763   1.824 -1.0133 -1.0474 -4.3004
17422SOL     OW58102  10.727  10.234   2.365  0.0429 -0.0533 -0.1252
17422SOL    HW158103  10.809  10.187   2.382  0.4386  0.3714 -0.7922
17422SOL    HW258104  10.744  10.323   2.397 -0.3489 -0.1065  0.2285
17423SOL     OW58105   3.885   3.620  10.863  0.3805  0.3330  0.2918
17423SOL    HW158106   3.868   3.694  10.805 -0.4348 -0.2275 -0.2012
17423SOL    HW258107   3.810   3.618  10.922 -0.1099 -0.6902 -0.3360
17424SOL     OW58108   4.736   6.884   4.740 -0.3167 -0.4050 -0.1183
17424SOL    HW158109   4.702   6.836   4.816 -0.9411  1.6290  0.9608
17424SOL    HW258110   4.820   6.842   4.720 -0.8537 -1.9400  0.7283
17425SOL     OW58111   1.658  11.528   8.185 -0.1322 -0.3402  0.1213
17425SOL    HW158112   1.571  11.561   8.206 -1.1415 -1.8725 -1.4317
17425SOL    HW258113   1.681  11.472   8.259  1.0560  2.5558  2.1594
17426SOL     OW58114   1.664  11.011  11.383 -0.8098 -0.3943 -0.1394
17426SOL    HW158115   1.759  11.002  11.393 -0.8748 -2.2033 -0.8319
17426SOL    HW258116   1.653  11.057  11.300 -0.5395 -0.5017 -0.2377
17427SOL     OW58117   9.743   4.559   2.776  0.3097  0.3546 -0.8319
17427SOL    HW158118   9.795   4.505   2.836  1.7281  0.4326 -1.9404
17427SOL    HW258119   9.767   4.649   2.799 -2.0079  0.6160  0.9765
17428SOL     OW58120   4.852   9.485  12.229  0.0923 -0.8887 -0.8402
17428SOL    HW158121   4.921   9.510  12.167  0.7590 -1.8792 -0.5148
17428SOL    HW258122   4.829   9.568  12.272 -0.3317 -0.1926 -2.3300
17429SOL     OW58123   5.780   8.745   5.259  0.2466 -0.0584 -0.2606
17429SOL    HW158124   5.688   8.737   5.281  0.3319  0.7295  0.4617
17429SOL    HW258125   5.823   8.768   5.341  1.1010 -0.4797 -0.5686
17430SOL     OW58126  12.050  10.633  10.085  1.0116  0.1413  0.3763
17430SOL    HW158127  11.984  10.672  10.143 -0.2279  0.2822 -1.0572
17430SOL    HW258128  12.067  10.701  10.019  2.2352 -0.0862  0.4400
17431SOL     OW58129  11.308   8.873   1.013  0.0735 -0.0828 -0.2165
17431SOL    HW158130  11.262   8.849   0.932 -0.9841  1.4104 -0.0848
17431SOL    HW258131  11.400   8.875   0.988 -0.1437 -0.6107 -1.1280
17432SOL     OW58132   4.680   3.150   5.995  0.0958  0.5947 -0.2608
17432SOL    HW158133   4.642   3.230   6.032 -0.5080  1.1783 -2.0174
17432SOL    HW258134   4.732   3.181   5.921  1.5265 -0.4922  0.2396
17433SOL     OW58135   8.298   4.278   2.069 -0.1603  0.9459 -0.5827
17433SOL    HW158136   8.394   4.276   2.077 -0.1980 -3.4006  1.9531
17433SOL    HW258137   8.268   4.325   2.146 -0.0347  0.1184 -0.0155
17434SOL     OW58138   7.197   7.049   1.818  0.3922 -0.2127 -0.0567
17434SOL    HW158139   7.106   7.060   1.790  0.6439 -0.4805 -1.0361
17434SOL    HW258140   7.211   7.118   1.883 -0.0194  0.9084 -1.1156
17435SOL     OW58141   1.769   9.370   2.286 -0.0320  0.4403  0.1970
17435SOL    HW158142   1.821   9.392   2.363  0.0550 -3.2310  1.4081
17435SOL    HW258143   1.689   9.421   2.296  0.1925  0.4603  2.4975
17436SOL     OW58144   9.187   3.588   6.571  0.1014 -0.3946  0.3627
17436SOL    HW158145   9.097   3.609   6.594 -0.2881 -0.3868 -1.0717
17436SOL    HW258146   9.197   3.496   6.594 -0.0848 -0.2603  1.0220
17437SOL     OW58147   0.982   0.890   9.500  0.4967 -0.3638  0.3147
17437SOL    HW158148   0.900   0.892   9.450  1.0905  0.2475 -0.6749
17437SOL    HW258149   0.966   0.827   9.571  0.2122 -2.6359 -1.6581
17438SOL     OW58150  11.295  10.936   4.058 -0.0289 -0.7238  0.5794
17438SOL    HW158151  11.238  10.869   4.020  1.0530 -0.6502 -1.2601
17438SOL    HW258152  11.327  10.986   3.984  1.1240  0.3095  1.7182
17439SOL     OW58153   6.251   6.849   8.175  0.6821  0.3202  0.5858
17439SOL    HW158154   6.338   6.887   8.188  0.2130  1.0507  1.8892
17439SOL    HW258155   6.263   6.755   8.190  1.5207  0.1922 -0.8031
17440SOL     OW58156  11.535   5.548   7.593  0.4118  0.6168 -0.0983
17440SOL    HW158157  11.606   5.493   7.625  0.7897  0.1931 -1.5676
17440SOL    HW258158  11.455   5.499   7.613  0.6666  0.1361 -0.2575
17441SOL     OW58159   6.283   1.723   7.807  0.4005 -0.4481  0.5533
17441SOL    HW158160   6.250   1.704   7.719 -2.5311  0.4342  1.3435
17441SOL    HW258161   6.378   1.723   7.797  0.2722  2.7565 -3.3838
17442SOL     OW58162   4.741   1.864   1.093 -0.2070  0.2909 -0.7344
17442SOL    HW158163   4.816   1.922   1.081  0.4032 -0.2886  0.1998
17442SOL    HW258164   4.702   1.858   1.005 -1.2414  3.3314 -0.6082
17443SOL     OW58165   1.644   5.201   3.043  0.2846  0.1775  0.0860
17443SOL    HW158166   1.627   5.111   3.017 -1.6511 -0.1333  2.1268
17443SOL    HW258167   1.665   5.246   2.961 -0.1274 -1.7904 -1.1779
17444SOL     OW58168  11.464   9.026   1.453 -0.2672 -0.0375 -0.3694
17444SOL    HW158169  11.470   8.995   1.544 -0.8816  0.4004 -0.1758
17444SOL    HW258170  11.521   8.966   1.404 -0.3099 -0.5788  0.2256
17445SOL     OW58171  10.941   4.453   2.738  0.1745 -0.5911  0.3223
17445SOL    HW158172  11.033   4.426   2.736  0.5890  0.6635 -2.3699
17445SOL    HW258173  10.906   4.426   2.653 -1.6779 -0.1696  0.9034
17446SOL     OW58174   0.461  11.726   6.111 -0.1953  0.4893 -0.4531
17446SOL    HW158175   0.477  11.767   6.196  1.5263 -1.2136  0.1041
17446SOL    HW258176   0.373  11.690   6.118 -0.5115  1.3530  0.1683
17447SOL     OW58177   9.886   3.692   3.540  0.5438 -0.2042  0.0851
17447SOL    HW158178   9.934   3.763   3.583  1.0416 -0.2904 -0.3271
17447SOL    HW258179   9.795   3.708   3.563  0.4624  1.3976 -1.1746
17448SOL     OW58180   7.693   3.505   5.938 -1.0937 -0.9545 -0.1021
17448SOL    HW158181   7.769   3.482   5.885 -0.8389 -1.2861  0.3911
17448SOL    HW258182   7.711   3.465   6.023 -0.3889  1.4257  0.9761
17449SOL     OW58183   6.638   2.685   3.415 -0.5094 -0.5655 -0.1520
17449SOL    HW158184   6.685   2.732   3.484 -1.0424 -0.3589  0.0776
17449SOL    HW258185   6.675   2.596   3.418 -2.3097 -1.3655  2.2424
17450SOL     OW58186   4.856   5.633  11.212 -0.0265  0.6705 -0.3276
17450SOL    HW158187   4.910   5.712  11.204 -0.5849  1.0768 -0.1490
17450SOL    HW258188   4.918   5.561  11.199  0.4682  1.1365 -0.6407
17451SOL     OW58189   6.475  12.119   1.324  0.2731 -0.1841 -0.3949
17451SOL    HW158190   6.516  12.084   1.403  1.1441  2.9563  0.6945
17451SOL    HW258191   6.403  12.058   1.306  1.6518 -2.4608  1.2204
17452SOL     OW58192  12.136   2.829   1.857 -0.2541 -0.3068  0.2586
17452SOL    HW158193  12.224   2.805   1.886 -0.0135 -0.4500 -0.5650
17452SOL    HW258194  12.134   2.924   1.863  0.0138 -0.2923  0.1237
17453SOL     OW58195   0.694   7.184   8.190  0.3429  0.6705  0.3892
17453SOL    HW158196   0.674   7.274   8.164 -0.5455  0.2375 -0.4781
17453SOL    HW258197   0.734   7.193   8.277  0.1539  1.8851  0.3751
17454SOL     OW58198  10.823  11.684   4.269  0.1680  0.7092 -0.6272
17454SOL    HW158199  10.760  11.705   4.200  1.2080  2.3804 -1.1260
17454SOL    HW258200  10.861  11.601   4.241 -1.1108  0.1440 -0.7983
17455SOL     OW58201   0.860   2.498   2.069 -0.2410  0.4321  0.0245
17455SOL    HW158202   0.877   2.454   2.152 -0.5448  3.6454  1.9528
17455SOL    HW258203   0.781   2.455   2.036 -0.2741 -0.7598  1.5284
17456SOL     OW58204  12.018   3.782   8.715 -0.1661 -0.0667  0.2521
17456SOL    HW158205  12.068   3.712   8.671 -0.4646 -0.9352  1.2386
17456SOL    HW258206  12.004   3.748   8.804 -5.2315 -1.3658 -0.7349
17457SOL     OW58207   5.881   8.575  10.964  0.5235  0.3474 -0.3388
17457SOL    HW158208   5.946   8.610  10.904  0.0063  0.1319 -1.0425
17457SOL    HW258209   5.861   8.488  10.929 -1.4523  1.0938 -1.2193
17458SOL     OW58210   7.237   3.860   2.432  0.2652 -0.0423 -0.2909
17458SOL    HW158211   7.264   3.866   2.524 -0.7956 -1.9491  0.1893
17458SOL    HW258212   7.283   3.784   2.398  0.0618  0.2041 -1.1428
17459SOL     OW58213  12.140   1.982  12.319  0.3066  0.0957 -0.2508
17459SOL    HW158214  12.107   1.929  12.391  0.1496  2.0068  1.1417
17459SOL    HW258215  12.100   2.068  12.332  0.7164  0.6504 -2.3049
17460SOL     OW58216   1.937   3.618   7.943 -0.1057  0.8827  0.1763
17460SOL    HW158217   1.935   3.528   7.975  0.1324  0.2280 -1.5336
17460SOL    HW258218   1.855   3.657   7.973 -0.3485  0.0186  0.6602
17461SOL     OW58219   8.890   3.984   2.136 -0.1079  0.1503 -0.3560
17461SOL    HW158220   8.900   4.073   2.171 -0.9601 -0.0383  0.4073
17461SOL    HW258221   8.872   3.930   2.213  2.7242 -1.1152 -0.4749
17462SOL     OW58222   1.850  11.625   2.936  0.6983 -0.0690 -0.1681
17462SOL    HW158223   1.769  11.611   2.985 -1.4853 -4.0323 -4.2005
17462SOL    HW258224   1.916  11.575   2.985 -0.0000  0.5260  1.4595
17463SOL     OW58225   0.291   1.260   5.321 -0.1351 -0.1968  0.0983
17463SOL    HW158226   0.379   1.252   5.358 -0.5174 -1.2177  0.8491
17463SOL    HW258227   0.305   1.279   5.228  0.8548  1.0721  0.4834
17464SOL     OW58228   2.426   1.828   7.182 -0.1935 -0.0847 -0.1829
17464SOL    HW158229   2.366   1.895   7.148  1.0140  0.4371 -1.3831
17464SOL    HW258230   2.421   1.757   7.119  1.2809  0.4542 -0.9693
17465SOL     OW58231   7.490   4.747   5.769  0.0905 -0.2485  0.0969
17465SOL    HW158232   7.548   4.790   5.705  0.9763  1.0695  1.6994
17465SOL    HW258233   7.403   4.777   5.745  0.5546  1.4172  0.3431
17466SOL     OW58234   3.829   0.864   4.864 -0.5819 -0.0484 -0.0922
17466SOL    HW158235   3.736   0.875   4.884 -0.4010  0.6035  0.4314
17466SOL    HW258236   3.862   0.953   4.853 -0.3396 -0.3204 -1.8670
17467SOL     OW58237  11.735   0.120   1.878  0.0194 -0.8184  0.1090
17467SOL    HW158238  11.672   0.121   1.805 -0.6824 -0.5608  0.7041
17467SOL    HW258239  11.810   0.071   1.844 -0.6585 -1.4723 -0.4855
17468SOL     OW58240   8.354  10.835   8.261 -0.2420  0.3943  0.2985
17468SOL    HW158241   8.358  10.752   8.309 -0.6197  1.6027  2.5663
17468SOL    HW258242   8.346  10.901   8.329 -0.0915  2.3096 -1.4537
17469SOL     OW58243   1.682   8.251  11.053  0.5341 -0.6702  0.5033
17469SOL    HW158244   1.725   8.331  11.023  0.4111 -1.3063 -1.5512
17469SOL    HW258245   1.619   8.280  11.119  1.0840  0.8001  0.4138
17470SOL     OW58246   0.198   2.120  11.293 -0.6712  0.4641 -0.4058
17470SOL    HW158247   0.247   2.164  11.224  0.0301 -0.7738 -0.7406
17470SOL    HW258248   0.107   2.140  11.275 -0.3923  1.5741 -0.6644
17471SOL     OW58249   5.191   4.588   8.968  0.5553  0.2703  0.1398
17471SOL    HW158250   5.281   4.592   8.934  0.9766 -1.6420  0.9009
17471SOL    HW258251   5.143   4.539   8.901  0.5873 -0.5096  0.6735
17472SOL     OW58252   9.007  12.322   9.039 -0.2791  0.2016 -0.4478
17472SOL    HW158253   8.969  12.343   9.125  1.9306 -0.9876  0.9120
17472SOL    HW258254   9.015  12.407   8.995 -0.9220  0.9078  0.7441
17473SOL     OW58255   4.276   5.011  10.196 -0.3340 -0.0842 -0.1071
17473SOL    HW158256   4.324   4.931  10.216 -0.2382 -0.5828 -2.1302
17473SOL    HW258257   4.201   5.009  10.256 -0.0422 -1.4045  0.2431
17474SOL     OW58258   8.675   9.106  10.655 -0.1587 -0.0539 -0.0036
17474SOL    HW158259   8.625   9.128  10.734  0.4940  1.6690 -0.0351
17474SOL    HW258260   8.610   9.108  10.585 -0.7959 -1.8541  0.4828
17475SOL     OW58261   7.766   8.707  11.831  0.1629 -0.3328  0.1477
17475SOL    HW158262   7.671   8.701  11.818 -0.1714  1.6981  1.2551
17475SOL    HW258263   7.802   8.699  11.743 -1.4535  4.4812 -1.2891
17476SOL     OW58264   1.311   4.888   8.565 -0.3545 -0.2373  0.0732
17476SOL    HW158265   1.275   4.938   8.492 -1.5263  2.0471  2.0517
17476SOL    HW258266   1.345   4.808   8.526 -1.8854  0.3932 -2.7922
17477SOL     OW58267   8.987   0.250   6.095  0.2507 -0.0877 -1.1850
17477SOL    HW158268   8.958   0.337   6.123 -1.2766 -0.9239 -0.0242
17477SOL    HW258269   9.044   0.219   6.165 -2.6618 -1.7084  0.7136
17478SOL     OW58270   4.985   2.187   5.906 -0.5888  0.1589  0.3712
17478SOL    HW158271   4.987   2.121   5.975 -0.9861  0.9178  1.1235
17478SOL    HW258272   4.998   2.137   5.825 -0.3985 -0.7763  0.9616
17479SOL     OW58273   7.610   5.581   1.873  0.5231 -0.2121 -0.1333
17479SOL    HW158274   7.559   5.555   1.797 -1.3328  0.4847  0.7933
17479SOL    HW258275   7.698   5.598   1.840 -0.7641  2.4157 -2.6162
17480SOL     OW58276   5.274   5.930   5.021 -0.1999 -0.2255  0.3834
17480SOL    HW158277   5.233   5.891   5.098  1.6863 -0.6162  1.2517
17480SOL    HW258278   5.251   6.023   5.026  0.3352 -0.1407  1.7687
17481SOL     OW58279   7.662   4.870   5.162 -0.2796  0.2339 -0.4165
17481SOL    HW158280   7.628   4.812   5.230  0.9810 -0.1576 -0.0882
17481SOL    HW258281   7.757   4.855   5.163 -0.0106  1.7170 -0.8579
17482SOL     OW58282   2.216   9.168  12.215 -0.3649  0.1675  1.1687
17482SOL    HW158283   2.308   9.143  12.227  0.3366  2.6519  1.5532
17482SOL    HW258284   2.187   9.117  12.140  1.3201 -0.6993  1.0491
17483SOL     OW58285   1.126   4.846   9.473  0.0213 -0.0969  0.3001
17483SOL    HW158286   1.142   4.848   9.568  1.9193  1.8491  0.0051
17483SOL    HW258287   1.110   4.937   9.449 -2.0038 -0.7281 -1.0864
17484SOL     OW58288   6.911   1.936   5.263 -0.3919  0.3758  0.1155
17484SOL    HW158289   6.876   1.899   5.183  0.6115  0.7934 -0.5431
17484SOL    HW258290   6.886   2.029   5.259 -0.4406  0.3725  0.3420
17485SOL     OW58291   4.918   7.033  11.997 -0.0857  0.1496 -0.1102
17485SOL    HW158292   4.934   7.127  12.009 -3.4863  1.2068 -2.4142
17485SOL    HW258293   4.883   7.004  12.081 -0.7399  1.4311  0.0884
17486SOL     OW58294   1.161   7.502  10.178  0.1750  0.1316  0.0760
17486SOL    HW158295   1.242   7.510  10.228 -0.5624  2.3292  1.0350
17486SOL    HW258296   1.103   7.568  10.216 -2.0083 -1.2491 -0.7161
17487SOL     OW58297   2.055   8.018   7.382 -0.8658 -0.1428  0.5342
17487SOL    HW158298   2.058   7.922   7.390  0.5960 -0.0364  1.8675
17487SOL    HW258299   2.104   8.049   7.458 -0.3574  1.6399 -0.4706
17488SOL     OW58300   3.114  12.064   0.217  0.2040 -0.1621 -0.3355
17488SOL    HW158301   3.184  12.090   0.277  0.8290 -0.2436 -1.0144
17488SOL    HW258302   3.109  11.969   0.227  0.2357 -0.1643 -0.3400
17489SOL     OW58303   4.435   4.870   1.532 -0.0364 -0.0655  0.4619
17489SOL    HW158304   4.380   4.837   1.603 -0.7362  0.0199 -0.0299
17489SOL    HW258305   4.378   4.927   1.481  0.8565  1.0410  0.6627
17490SOL     OW58306   6.580   6.751   2.372  0.5138 -0.0439 -0.1160
17490SOL    HW158307   6.655   6.708   2.331  0.1714  0.5276 -1.3894
17490SOL    HW258308   6.583   6.841   2.340  0.4872  0.5786  1.4989
17491SOL     OW58309  11.970   2.852  10.693 -0.4952  0.0925 -0.0175
17491SOL    HW158310  11.899   2.834  10.755  0.3906 -0.2003  0.9453
17491SOL    HW258311  11.966   2.947  10.679 -0.2818  0.2732  1.0473
17492SOL     OW58312   8.539   5.887   6.846 -0.1201 -0.2484  0.6209
17492SOL    HW158313   8.501   5.915   6.929  1.0385 -0.1425  1.1254
17492SOL    HW258314   8.632   5.906   6.854 -0.1838  1.1644 -1.2688
17493SOL     OW58315   9.065   7.132   1.310  0.0243  0.4007  0.3058
17493SOL    HW158316   9.142   7.089   1.273  0.1643  0.6334  0.3222
17493SOL    HW258317   8.999   7.064   1.313  0.1929  0.2291  0.1761
17494SOL     OW58318   2.103   1.490   4.488  0.9165 -0.5603 -0.3057
17494SOL    HW158319   2.087   1.547   4.563  2.0160 -0.8937  0.2095
17494SOL    HW258320   2.081   1.402   4.519  0.8958 -0.6403 -0.5389
17495SOL     OW58321   2.340   3.674   2.164  0.2466 -0.0263 -0.1640
17495SOL    HW158322   2.415   3.732   2.157 -0.0381  0.6523  1.7348
17495SOL    HW258323   2.266   3.733   2.180  0.0412 -0.8702  2.3943
17496SOL     OW58324   1.306  12.292  10.524 -0.6116  0.0703  0.0812
17496SOL    HW158325   1.302  12.201  10.555  0.9061 -0.3706 -0.9076
17496SOL    HW258326   1.397  12.318  10.539 -0.4640  0.6614 -1.6600
17497SOL     OW58327   3.208  11.751   1.715  0.1325  0.3393 -0.2229
17497SOL    HW158328   3.280  11.805   1.685  0.9767 -0.4613  0.3190
17497SOL    HW258329   3.136  11.770   1.654  0.8312  1.0473 -0.8395
17498SOL     OW58330   3.456  10.187   2.943 -0.3814  0.2369 -0.0691
17498SOL    HW158331   3.431  10.231   2.862 -0.3299 -1.3420 -0.9785
17498SOL    HW258332   3.380  10.134   2.966  0.9755 -2.4977 -1.3794
17499SOL     OW58333  10.094  12.293  12.188 -0.6431  0.1466 -0.4176
17499SOL    HW158334  10.117  12.202  12.208  2.9603  1.0226  0.2352
17499SOL    HW258335  10.146  12.314  12.111  0.0635  2.1243  0.5229
17500SOL     OW58336   1.460  10.345   2.808  0.1245 -0.5481 -0.0471
17500SOL    HW158337   1.497  10.341   2.896 -0.3060  1.2326  0.2462
17500SOL    HW258338   1.366  10.334   2.821  0.2697 -2.9550 -0.5852
17501SOL     OW58339  11.627  10.703   4.842 -0.6519 -0.0660 -0.0126
17501SOL    HW158340  11.569  10.692   4.917 -0.1996 -0.1894  0.3194
17501SOL    HW258341  11.567  10.714   4.767 -1.1293  1.4081  0.5454
17502SOL     OW58342   8.937   0.965  11.342 -0.2133  0.4465  0.0551
17502SOL    HW158343   9.019   0.931  11.305  0.2507  1.8628 -0.2838
17502SOL    HW258344   8.881   0.889  11.350  1.1742 -0.5830  0.3767
17503SOL     OW58345   5.020  10.951   1.406 -0.3507 -0.0331  0.2177
17503SOL    HW158346   5.089  10.887   1.426  0.9805  1.0485 -0.6584
17503SOL    HW258347   5.028  10.965   1.312 -0.0920  1.9418  0.4897
17504SOL     OW58348  12.027   8.034  12.207 -0.4123 -0.2461 -0.1259
17504SOL    HW158349  12.110   7.988  12.219 -1.1789 -1.7157 -0.1781
17504SOL    HW258350  12.041   8.092  12.133  0.2455 -1.3350 -0.8853
17505SOL     OW58351   2.311   1.978   4.379 -0.5049 -0.0209 -0.0349
17505SOL    HW158352   2.366   1.947   4.306  1.8596  1.2924  1.0741
17505SOL    HW258353   2.281   2.065   4.351 -0.5800 -0.0069  0.0910
17506SOL     OW58354   8.157   9.299  10.945  0.1732 -0.3438 -0.1469
17506SOL    HW158355   8.215   9.235  10.903  2.6822 -0.2581  2.8084
17506SOL    HW258356   8.149   9.269  11.035 -2.4888  1.0473  0.1907
17507SOL     OW58357   2.269   2.913   3.591  0.5183  0.8059 -0.4704
17507SOL    HW158358   2.216   2.949   3.521 -2.1803  0.6502  1.3235
17507SOL    HW258359   2.219   2.932   3.671  2.0777 -1.3482  1.1466
17508SOL     OW58360   9.565   8.354  11.290 -0.0649 -0.5212  0.0577
17508SOL    HW158361   9.501   8.289  11.263 -1.7333  0.6747  0.9705
17508SOL    HW258362   9.513   8.427  11.324  1.7684  0.6825  0.4422
17509SOL     OW58363   8.555   5.516   1.104  0.0354 -0.4242  0.1589
17509SOL    HW158364   8.624   5.453   1.126  3.0777  1.3925 -3.0015
17509SOL    HW258365   8.581   5.596   1.149 -2.1719 -0.5615  1.8250
17510SOL     OW58366   0.852   4.160  11.491 -0.0013 -0.1475  0.3868
17510SOL    HW158367   0.857   4.120  11.577  1.0540 -1.8541 -0.4147
17510SOL    HW258368   0.916   4.232  11.494  1.2726 -1.2504  0.5440
17511SOL     OW58369   3.672   0.672   9.796  0.4511 -0.3878 -0.6243
17511SOL    HW158370   3.597   0.731   9.794  1.7552  1.4595  1.0684
17511SOL    HW258371   3.641   0.592   9.754 -1.4179  1.4392 -3.0086
17512SOL     OW58372   3.240   5.161   5.139 -0.0898 -0.5852 -0.4006
17512SOL    HW158373   3.180   5.161   5.064 -1.0166  1.8397  0.2521
17512SOL    HW258374   3.190   5.120   5.210 -0.2138 -0.4627 -0.4159
17513SOL     OW58375   8.200  12.274   2.330  0.2036 -0.1288 -0.1707
17513SOL    HW158376   8.151  12.316   2.259  3.4174 -0.3187 -2.7615
17513SOL    HW258377   8.251  12.345   2.369  0.5482 -0.4940  0.0487
17514SOL     OW58378   1.531  11.166  10.355 -0.1646  0.5603  0.4693
17514SOL    HW158379   1.443  11.204  10.352 -0.2460  0.3938  0.7546
17514SOL    HW258380   1.583  11.221  10.296 -0.8795 -0.4290 -1.1440
17515SOL     OW58381   8.371   6.177   0.227  0.3399 -0.2045 -0.3007
17515SOL    HW158382   8.462   6.155   0.243 -0.0386 -1.4770  0.2123
17515SOL    HW258383   8.324   6.094   0.234 -1.0138  0.5954  0.6491
17516SOL     OW58384   9.114   2.236   1.440 -0.4308  0.0114 -0.3250
17516SOL    HW158385   9.177   2.302   1.466  0.0811 -0.2642 -0.8448
17516SOL    HW258386   9.062   2.220   1.519 -0.2966  0.7248 -0.0800
17517SOL     OW58387   4.733   7.307   2.193 -0.2347  0.0754  0.4025
17517SOL    HW158388   4.680   7.381   2.161 -0.0392  0.3651  0.7462
17517SOL    HW258389   4.712   7.301   2.286 -0.2245 -0.2835  0.3810
17518SOL     OW58390   3.985   4.285  11.594  0.5093  0.0816  0.2741
17518SOL    HW158391   4.017   4.348  11.659 -0.0729 -0.4367  1.0771
17518SOL    HW258392   4.057   4.223  11.583  0.6234  0.1932  0.3866
17519SOL     OW58393   6.802  10.740  11.047  0.2319 -0.0985  0.4791
17519SOL    HW158394   6.814  10.715  11.139  0.6932  1.5681  0.8971
17519SOL    HW258395   6.843  10.669  10.997  1.0830 -0.4014  1.5861
17520SOL     OW58396   5.001   6.998   4.064  0.6757 -0.2797 -0.1449
17520SOL    HW158397   4.914   7.033   4.046  0.3571 -1.2459 -0.5351
17520SOL    HW258398   5.061   7.063   4.027  0.1520  0.7127  0.6976
17521SOL     OW58399   6.388   3.495   2.877 -0.1624 -0.1633 -0.0797
17521SOL    HW158400   6.296   3.481   2.901 -0.2217 -1.8389 -1.0569
17521SOL    HW258401   6.386   3.571   2.819 -1.0821 -0.6905 -0.7727
17522SOL     OW58402   6.198   7.587  10.037  0.0613 -0.5433  0.7903
17522SOL    HW158403   6.246   7.628   9.965 -1.7390  0.7157  0.2223
17522SOL    HW258404   6.163   7.507  10.000 -0.1736 -0.3101  0.5020
17523SOL     OW58405   2.212   3.476  10.596 -0.0878 -0.3354  0.1002
17523SOL    HW158406   2.243   3.539  10.661  0.3232 -2.5114  2.1418
17523SOL    HW258407   2.122   3.456  10.624 -0.3619 -0.3860 -0.7812
17524SOL     OW58408   5.290   2.500   5.106 -0.2175 -0.0261 -0.5165
17524SOL    HW158409   5.299   2.582   5.154  0.1928 -1.6297  2.3866
17524SOL    HW258410   5.352   2.508   5.034 -0.2311  2.2011 -0.3542
17525SOL     OW58411   9.299  11.001   9.232 -0.2459  0.0921  0.0210
17525SOL    HW158412   9.331  10.924   9.280  0.1123  0.6315  0.6577
17525SOL    HW258413   9.218  10.971   9.190 -0.1769 -0.5964  0.3663
17526SOL     OW58414   9.331   3.962   4.770  0.1184  0.0877 -0.1997
17526SOL    HW158415   9.418   3.955   4.809 -0.6733 -1.8917  1.3788
17526SOL    HW258416   9.327   3.888   4.709 -0.4698  0.1245 -0.2086
17527SOL     OW58417   4.809   6.437   3.369  0.5711 -1.0146  0.0272
17527SOL    HW158418   4.886   6.381   3.377  0.5366 -1.0869 -0.1316
17527SOL    HW258419   4.758   6.396   3.298  1.8690  0.7409 -2.0416
17528SOL     OW58420   1.655   2.978   6.499 -0.1464 -0.3293 -0.2395
17528SOL    HW158421   1.601   3.047   6.461  1.0956 -0.0195 -1.5500
17528SOL    HW258422   1.652   2.907   6.435  0.7711 -0.3995 -0.2295
17529SOL     OW58423   2.695   7.728   5.123  0.3354  0.5197 -0.1178
17529SOL    HW158424   2.651   7.724   5.208 -0.3012  0.4612 -0.4497
17529SOL    HW258425   2.637   7.681   5.063  1.1051 -0.0242 -0.4504
17530SOL     OW58426   7.100   4.543   7.600  0.6339 -0.7104  0.1870
17530SOL    HW158427   7.108   4.570   7.509  1.5508 -1.7668 -0.0726
17530SOL    HW258428   7.158   4.603   7.648  1.5903 -1.2949 -0.1989
17531SOL     OW58429   1.788  11.362   3.270 -0.2325  0.1495 -0.2941
17531SOL    HW158430   1.775  11.324   3.183 -1.0148  0.8001 -0.4771
17531SOL    HW258431   1.700  11.370   3.306  0.1166 -0.6207  0.7991
17532SOL     OW58432  11.329   9.269  10.140  0.5384 -0.1428  0.2267
17532SOL    HW158433  11.408   9.257  10.089  0.5551 -1.2093  0.4925
17532SOL    HW258434  11.355   9.328  10.211  0.8750  0.1833 -0.1635
17533SOL     OW58435   7.889   9.850   9.197 -0.0430  0.6240 -0.2071
17533SOL    HW158436   7.897   9.766   9.154  0.2415 -0.3946  1.7105
17533SOL    HW258437   7.954   9.848   9.267 -1.4801  1.5553  1.2328
17534SOL     OW58438   6.475   8.691   2.670  0.9146  0.1173  0.2019
17534SOL    HW158439   6.450   8.783   2.661 -0.4462 -0.3028 -0.6868
17534SOL    HW258440   6.419   8.645   2.607  1.0887 -1.3948  1.1046
17535SOL     OW58441  10.234   2.103   6.478 -0.1337 -0.4042 -0.7681
17535SOL    HW158442  10.178   2.087   6.554  0.6705  0.8207  0.1190
17535SOL    HW258443  10.172   2.112   6.405 -1.2845  2.3005  0.4180
17536SOL     OW58444   9.697  11.474   2.369 -0.3952 -0.5634  0.3626
17536SOL    HW158445   9.621  11.419   2.385 -1.8383  0.8703 -1.1743
17536SOL    HW258446   9.745  11.430   2.299  0.7510 -1.9198  1.9153
17537SOL     OW58447   7.391   9.779   7.464  0.1740 -0.4246  0.6124
17537SOL    HW158448   7.318   9.773   7.526  1.0125  1.6736  1.9110
17537SOL    HW258449   7.351   9.762   7.379 -1.0734 -3.0896  1.6118
17538SOL     OW58450   1.089   1.559   1.280  0.4475 -0.1207 -0.5685
17538SOL    HW158451   1.176   1.576   1.243  1.3530 -0.4434  1.3271
17538SOL    HW258452   1.106   1.521   1.366 -1.5856 -1.1339 -0.5547
17539SOL     OW58453   0.931   6.167   4.357  0.2349  0.4574  0.5258
17539SOL    HW158454   1.026   6.162   4.370  0.2053  0.8687  0.9222
17539SOL    HW258455   0.916   6.253   4.318 -0.1764  1.3248  2.4758
17540SOL     OW58456   8.194   5.245   3.327  0.4519  0.1471  0.7880
17540SOL    HW158457   8.172   5.320   3.382 -1.2852  0.2682 -0.0087
17540SOL    HW258458   8.110   5.219   3.288  1.6754  0.5683 -2.4038
17541SOL     OW58459   1.394   0.326   1.444 -0.0243 -0.0229 -0.0858
17541SOL    HW158460   1.479   0.360   1.471 -0.0212  1.0885 -1.4189
17541SOL    HW258461   1.351   0.301   1.526  1.3754 -0.1413  0.6387
17542SOL     OW58462   5.021   4.541  12.166  0.4731  0.5966 -0.1370
17542SOL    HW158463   4.934   4.550  12.206  0.4855  0.4665 -0.0803
17542SOL    HW258464   5.023   4.607  12.098 -0.0630 -0.0730 -0.8227
17543SOL     OW58465   9.872   0.318  11.106  0.0070  0.4878 -0.2624
17543SOL    HW158466   9.936   0.342  11.038 -0.4977  0.1512 -0.8669
17543SOL    HW258467   9.818   0.396  11.117  0.4272  0.7248  0.1468
17544SOL     OW58468   9.974   3.872   3.337 -0.3779 -0.0165  0.3917
17544SOL    HW158469  10.039   3.808   3.367  0.4454  1.4012  1.7565
17544SOL    HW258470   9.908   3.872   3.406 -1.1024 -0.3747 -0.2849
17545SOL     OW58471   8.713   8.339   4.068 -0.3854  0.0889  0.1796
17545SOL    HW158472   8.700   8.272   4.001  0.5321 -0.4285  0.4964
17545SOL    HW258473   8.711   8.292   4.151  0.6074  0.3923  0.3891
17546SOL     OW58474  11.854   7.893  11.578 -0.1477 -0.2273 -0.6098
17546SOL    HW158475  11.761   7.909  11.561  0.3799  0.2197 -3.5393
17546SOL    HW258476  11.878   7.960  11.642 -1.3970  1.0061 -1.3692
17547SOL     OW58477   2.647   0.722   2.610 -0.4488 -0.6452 -0.4854
17547SOL    HW158478   2.739   0.707   2.633 -0.6698 -2.9466 -0.9537
17547SOL    HW258479   2.600   0.648   2.648 -2.0981  0.3387 -0.5227
17548SOL     OW58480   7.874   1.313  10.711 -0.6009  0.1936 -0.0135
17548SOL    HW158481   7.946   1.357  10.666 -0.5666 -1.0600 -1.2525
17548SOL    HW258482   7.823   1.274  10.641 -1.3116 -0.6950  0.9752
17549SOL     OW58483   8.704  10.811   0.215 -0.2367  0.1258  0.1262
17549SOL    HW158484   8.715  10.736   0.274 -1.6120  0.0925  0.3817
17549SOL    HW258485   8.781  10.809   0.158 -1.6124 -3.3787 -1.9286
17550SOL     OW58486  11.210   6.894   8.331 -0.2877 -0.0351  0.3524
17550SOL    HW158487  11.274   6.935   8.389 -0.6397  0.4502  0.3986
17550SOL    HW258488  11.132   6.882   8.385 -0.3071 -0.4339  0.2393
17551SOL     OW58489  10.860   2.034   2.146  0.0279  0.1020  0.3066
17551SOL    HW158490  10.825   1.958   2.191 -0.5702 -0.3553 -0.8893
17551SOL    HW258491  10.798   2.052   2.075 -0.1015  2.0029  0.8468
17552SOL     OW58492   2.972  11.239   1.761  0.0433 -0.0473  0.1378
17552SOL    HW158493   3.018  11.227   1.843 -0.0404 -1.3104  0.0215
17552SOL    HW258494   2.959  11.333   1.754  1.6690  0.2419  0.6745
17553SOL     OW58495   4.007   9.729   2.911 -0.1227 -0.3749 -0.0775
17553SOL    HW158496   4.068   9.738   2.838 -0.6519  0.4123 -0.4484
17553SOL    HW258497   4.034   9.797   2.973  0.0237 -0.7196  0.2394
17554SOL     OW58498   3.957  10.726  12.253 -0.6646  0.5396  0.1030
17554SOL    HW158499   3.948  10.809  12.206 -3.0725  0.0303 -0.4982
17554SOL    HW258500   3.997  10.667  12.190 -0.8641  0.7150 -0.1937
17555SOL     OW58501   9.140   3.680  10.284  0.1071  0.4023 -0.1358
17555SOL    HW158502   9.090   3.704  10.206 -2.2696  1.4255  1.5836
17555SOL    HW258503   9.222   3.729  10.276  0.2839 -0.1550 -2.3290
17556SOL     OW58504   5.155   8.814   8.309 -0.3225  0.3864  0.0492
17556SOL    HW158505   5.089   8.796   8.243  0.1774  2.0175 -0.9651
17556SOL    HW258506   5.126   8.766   8.386 -2.1578  0.2676 -0.6665
17557SOL     OW58507   2.000  10.392   0.396  0.0983  0.5186  0.3041
17557SOL    HW158508   2.054  10.314   0.385  0.8516  0.9045  1.1612
17557SOL    HW258509   1.912  10.364   0.372  0.3505 -0.6164  0.6667
17558SOL     OW58510   7.768   1.559   7.312  0.0920  0.0619  0.0171
17558SOL    HW158511   7.858   1.538   7.286  0.3916  0.9433  0.3040
17558SOL    HW258512   7.770   1.653   7.333 -0.3717 -0.3756  2.2463
17559SOL     OW58513   2.575   9.765   1.197  0.4215 -1.1140  0.1545
17559SOL    HW158514   2.624   9.847   1.208 -2.0053  0.2686  1.7381
17559SOL    HW258515   2.567   9.754   1.102  2.3547 -0.5320 -0.1086
17560SOL     OW58516  10.481   1.275   0.722  0.0363  0.4394  0.8992
17560SOL    HW158517  10.441   1.262   0.808 -2.0393 -1.8177 -0.2678
17560SOL    HW258518  10.534   1.197   0.708 -0.7027  0.1293 -0.3530
17561SOL     OW58519   9.474   1.764   1.059 -0.3428  0.1671  0.5383
17561SOL    HW158520   9.455   1.693   1.121 -0.4559  0.2999  0.6553
17561SOL    HW258521   9.499   1.838   1.114 -1.1697  0.5111  0.4707
17562SOL     OW58522   6.996  11.096   9.870 -0.1012  0.6312 -0.7790
17562SOL    HW158523   6.930  11.145   9.918  1.0222  1.4133  0.0253
17562SOL    HW258524   7.075  11.104   9.923  1.9280  3.6018 -3.7843
17563SOL     OW58525  10.051   5.684  11.871  0.4970 -0.0397 -0.1665
17563SOL    HW158526  10.047   5.590  11.885 -0.7450 -0.1512 -1.0769
17563SOL    HW258527  10.141   5.701  11.843  0.6251 -1.0018 -0.3705
17564SOL     OW58528  11.217  10.939   7.297  0.3573 -0.3144  0.5131
17564SOL    HW158529  11.236  10.886   7.374 -0.2414 -0.7333  0.3810
17564SOL    HW258530  11.136  10.901   7.261 -1.0614  1.7125  1.3627
17565SOL     OW58531   4.098  12.092   9.853 -0.4148  0.4533  0.4670
17565SOL    HW158532   4.022  12.063   9.903 -0.9489 -1.7419 -1.4585
17565SOL    HW258533   4.062  12.123   9.770  0.7689 -1.9604 -1.0704
17566SOL     OW58534   0.656  11.058   2.773 -0.3470 -0.4232 -0.2240
17566SOL    HW158535   0.705  11.023   2.848  2.3824  2.1816 -0.5791
17566SOL    HW258536   0.589  11.113   2.812 -0.6309 -1.1114  0.2847
17567SOL     OW58537   8.263  11.510   7.345 -0.7356  0.1560 -0.1341
17567SOL    HW158538   8.326  11.561   7.294 -1.0976 -0.1910 -0.9471
17567SOL    HW258539   8.178  11.533   7.307 -0.7744 -2.5345 -1.8638
17568SOL     OW58540   0.104   3.723   5.658 -0.4149  0.2374 -0.5438
17568SOL    HW158541   0.065   3.640   5.685 -1.1033  0.3446 -1.1886
17568SOL    HW258542   0.191   3.722   5.697 -0.0160 -1.2615 -1.3952
17569SOL     OW58543   9.327   2.024  11.430 -0.1355 -0.0014  0.5511
17569SOL    HW158544   9.372   2.102  11.461 -0.0974  0.7265 -1.2374
17569SOL    HW258545   9.394   1.975  11.382 -0.7935  0.2422 -0.6559
17570SOL     OW58546   0.598   2.127   0.403 -0.6983  0.0624 -0.1611
17570SOL    HW158547   0.593   2.209   0.452 -0.1696  0.2531 -0.4289
17570SOL    HW258548   0.549   2.065   0.457 -1.0238  0.5248  0.0895
17571SOL     OW58549   6.929   6.659   9.955 -0.7991 -0.0144  0.4153
17571SOL    HW158550   6.919   6.686  10.046 -1.1394  0.1900  0.3189
17571SOL    HW258551   6.842   6.632   9.928 -0.0403 -4.0582  1.3695
17572SOL     OW58552   3.992   3.724   6.997  0.0235 -0.6599  0.2532
17572SOL    HW158553   3.983   3.797   6.936  0.2103  0.1530  1.1790
17572SOL    HW258554   4.027   3.653   6.944 -0.4385 -0.1717 -0.7271
17573SOL     OW58555   7.252   0.246   4.057  0.1757  0.3816 -0.3963
17573SOL    HW158556   7.271   0.157   4.088  0.7902 -0.0322 -1.8624
17573SOL    HW258557   7.209   0.233   3.972 -1.1867  1.4704  0.0918
17574SOL     OW58558   2.797   9.805   8.571  0.1650  0.1744  0.0677
17574SOL    HW158559   2.727   9.809   8.506  0.2791  0.2838 -0.0500
17574SOL    HW258560   2.818   9.897   8.589  0.1385  0.1444  0.2533
17575SOL     OW58561   1.085   2.354   1.825 -0.1328  0.0428 -0.0719
17575SOL    HW158562   1.122   2.430   1.870  1.5915 -0.3698 -0.7339
17575SOL    HW258563   1.004   2.387   1.785 -0.9818  0.7567  2.0956
17576SOL     OW58564   8.299   0.859  11.370 -0.0066 -0.1260  0.1609
17576SOL    HW158565   8.298   0.783  11.429 -1.0180  1.0617  1.7466
17576SOL    HW258566   8.389   0.890  11.373  0.6371 -1.7029 -1.1612
17577SOL     OW58567   1.280   9.274   7.135 -0.6585  0.0336 -0.5743
17577SOL    HW158568   1.334   9.350   7.152 -0.5071 -0.2861  0.4040
17577SOL    HW258569   1.328   9.200   7.173 -0.2839 -0.7434 -2.4235
17578SOL     OW58570   5.792   6.181   7.111  0.0809  0.1268  0.0136
17578SOL    HW158571   5.819   6.121   7.180  0.2952  0.0933 -0.1013
17578SOL    HW258572   5.707   6.214   7.141  0.8172  1.2104  1.0031
17579SOL     OW58573   8.235   1.189  10.391 -0.2207  0.5712  0.0242
17579SOL    HW158574   8.257   1.269  10.439  2.1159  1.8228 -2.8354
17579SOL    HW258575   8.313   1.134  10.400 -1.0672 -0.6175  0.3663
17580SOL     OW58576   7.121   7.578   6.199  0.1786  0.4680 -0.4749
17580SOL    HW158577   7.107   7.636   6.124  0.1121 -0.4593 -1.2017
17580SOL    HW258578   7.035   7.542   6.218  0.1178  1.0375  0.3328
17581SOL     OW58579   1.823  10.728   0.197 -0.3895 -0.3194  0.5097
17581SOL    HW158580   1.823  10.638   0.164  0.8652 -0.2912  0.3802
17581SOL    HW258581   1.744  10.734   0.250 -0.9362 -1.2414 -0.1717
17582SOL     OW58582   0.381   6.348   9.105 -0.0815  0.5972 -0.1634
17582SOL    HW158583   0.369   6.413   9.174  2.2491 -1.3853  2.3405
17582SOL    HW258584   0.352   6.392   9.025 -2.4846  3.1987  1.9378
17583SOL     OW58585   5.401  10.764   8.138  0.2558  0.6089 -0.1918
17583SOL    HW158586   5.431  10.723   8.057 -1.3202  1.7801 -1.4446
17583SOL    HW258587   5.445  10.849   8.140 -1.9174  1.8436 -1.4359
17584SOL     OW58588  11.086  11.389   2.518 -0.3398  0.2031  0.2573
17584SOL    HW158589  11.077  11.484   2.516  1.8915  0.4868  0.3801
17584SOL    HW258590  11.027  11.357   2.450  1.6883  2.0005 -2.5509
17585SOL     OW58591   9.478   1.122   5.559  0.6513  0.5119  0.1407
17585SOL    HW158592   9.439   1.130   5.471  1.6834 -0.3834 -0.4192
17585SOL    HW258593   9.403   1.106   5.616 -0.1472  2.0177 -0.4208
17586SOL     OW58594   4.506   1.213  10.243 -0.1292  0.3299 -0.3037
17586SOL    HW158595   4.532   1.239  10.154 -3.2125 -0.8908 -1.6932
17586SOL    HW258596   4.415   1.240  10.250  0.4624  1.9146  3.2270
17587SOL     OW58597   7.994   8.627   0.958 -0.3576 -0.3159  0.4311
17587SOL    HW158598   7.903   8.603   0.976 -0.5253 -1.0741 -1.2338
17587SOL    HW258599   8.018   8.575   0.881  0.9120  1.1669 -0.2426
17588SOL     OW58600   5.093   7.257   1.301 -0.2514  0.0244  0.0380
17588SOL    HW158601   5.029   7.327   1.315 -0.8519 -0.6328  0.6554
17588SOL    HW258602   5.149   7.289   1.230  1.0307  2.1743  1.9114
17589SOL     OW58603   5.008   0.287   4.718 -0.0005 -0.4705  0.5028
17589SOL    HW158604   4.983   0.203   4.758  0.3073 -1.3577 -1.0799
17589SOL    HW258605   4.945   0.299   4.647 -1.2852  1.6687  1.8700
17590SOL     OW58606  12.297   0.480   1.799  0.3521 -0.1846 -0.0265
17590SOL    HW158607  12.220   0.519   1.756 -0.6135 -2.3886 -0.4182
17590SOL    HW258608  12.339   0.429   1.731  2.0368  0.7216  0.2797
17591SOL     OW58609   1.370  10.794  11.537 -0.0383 -0.0480 -0.4990
17591SOL    HW158610   1.463  10.795  11.560 -0.0915 -0.5319 -0.2576
17591SOL    HW258611   1.368  10.807  11.442  0.2887 -0.3630 -0.5487
17592SOL     OW58612  12.085   4.192   3.325 -0.2811  0.0455  0.1024
17592SOL    HW158613  12.020   4.135   3.284  1.6641 -1.2596 -1.3676
17592SOL    HW258614  12.105   4.258   3.259 -1.0447  1.2495  1.0457
17593SOL     OW58615   7.000   1.594   0.029  0.2424  0.2803 -0.1354
17593SOL    HW158616   7.055   1.662   0.069 -0.1844  0.5397  0.0198
17593SOL    HW258617   6.974   1.538   0.102  0.5140  0.0049 -0.2489
17594SOL     OW58618   1.562   9.958  12.138  0.1052 -0.5101 -0.6194
17594SOL    HW158619   1.518  10.008  12.206 -0.6302  0.7894 -1.9923
17594SOL    HW258620   1.630   9.909  12.184  0.1498  0.9381  0.9405
17595SOL     OW58621   1.504   9.143   0.965 -0.5577 -0.6331  0.1688
17595SOL    HW158622   1.559   9.221   0.971 -2.1869  0.4985  1.5566
17595SOL    HW258623   1.464   9.149   0.879 -0.0788 -0.3588 -0.0398
17596SOL     OW58624   6.946   6.572   2.437  0.7566 -0.1354  0.8944
17596SOL    HW158625   7.028   6.604   2.475  0.7321 -0.1549  0.9635
17596SOL    HW258626   6.903   6.524   2.508  0.7547 -0.2520  0.8136
17597SOL     OW58627   9.214   4.996   5.844  0.1452 -0.1842  0.3351
17597SOL    HW158628   9.295   4.958   5.809  0.9657  1.0080  0.8673
17597SOL    HW258629   9.209   5.083   5.804 -2.2058 -1.1135 -1.6237
17598SOL     OW58630   9.913   6.048   6.180  0.2975  1.2829  0.6205
17598SOL    HW158631   9.887   5.963   6.215  1.8332  1.1687  1.5628
17598SOL    HW258632   9.999   6.033   6.141  0.6260  2.4320  0.8752
17599SOL     OW58633   6.333   9.136   9.768 -0.7436  0.0162  0.6188
17599SOL    HW158634   6.397   9.095   9.826 -1.0944 -0.5715  0.6016
17599SOL    HW258635   6.251   9.092   9.789 -0.4996 -1.8164 -1.8334
17600SOL     OW58636   8.721   8.677   5.094  0.2209 -0.1609  0.0629
17600SOL    HW158637   8.716   8.744   5.162 -1.2783  2.0532 -2.0394
17600SOL    HW258638   8.810   8.683   5.060 -0.0601  1.2237 -0.4762
17601SOL     OW58639   1.357   9.017   2.672  0.7032 -0.4334 -0.2023
17601SOL    HW158640   1.420   8.980   2.610  0.3169 -1.2026 -0.1437
17601SOL    HW258641   1.333   9.101   2.633  0.6097 -0.8178 -1.0061
17602SOL     OW58642   6.230   5.528   0.780 -0.4463 -0.0590 -0.3254
17602SOL    HW158643   6.220   5.595   0.848  0.5082  2.2443 -2.3275
17602SOL    HW258644   6.162   5.464   0.801  0.1601  0.2099  3.0912
17603SOL     OW58645   1.643   3.229  10.428  0.0480 -0.3356  0.2309
17603SOL    HW158646   1.722   3.279  10.404 -0.7379  1.2451  0.8065
17603SOL    HW258647   1.660   3.200  10.517  0.6291 -1.4023 -0.2049
17604SOL     OW58648   9.806   5.736   7.091 -0.0478  0.3743 -1.1365
17604SOL    HW158649   9.816   5.723   7.186 -0.1779  0.6370 -1.0841
17604SOL    HW258650   9.797   5.648   7.055 -0.8837  0.3109 -0.8024
17605SOL     OW58651   1.705   2.179   3.935  0.5118 -0.0778 -0.1469
17605SOL    HW158652   1.716   2.252   3.875 -1.0582 -0.9610 -1.6042
17605SOL    HW258653   1.793   2.159   3.966  1.2277  1.0596 -1.3638
17606SOL     OW58654   3.188   6.680   9.722  0.0614  0.3198  0.2415
17606SOL    HW158655   3.159   6.592   9.747  0.2661 -0.5827 -2.3664
17606SOL    HW258656   3.135   6.739   9.775  2.2252 -1.2478  4.6046
17607SOL     OW58657   6.339   9.352   3.382  0.0450 -0.4753  0.1810
17607SOL    HW158658   6.257   9.369   3.429  0.7746  3.4055  0.3701
17607SOL    HW258659   6.313   9.301   3.306 -2.3887 -0.3185  0.8368
17608SOL     OW58660   5.803   4.936   0.853 -0.3172  0.3668  0.0058
17608SOL    HW158661   5.863   4.943   0.779  0.5648 -1.8376  0.4304
17608SOL    HW258662   5.774   4.845   0.852 -1.0146  0.5312  1.8085
17609SOL     OW58663   3.725  10.431   2.056 -0.2047  0.2831  0.1957
17609SOL    HW158664   3.710  10.432   2.150 -1.2703 -0.6966  0.0646
17609SOL    HW258665   3.819  10.415   2.046 -0.1613 -0.0328  1.0877
17610SOL     OW58666   1.652   1.234   3.897  0.2250 -0.5820 -0.2535
17610SOL    HW158667   1.605   1.314   3.920  2.0519  0.7328 -0.8665
17610SOL    HW258668   1.717   1.223   3.966  0.2507 -1.3457 -0.3822
17611SOL     OW58669   3.163   2.501   8.784 -0.5440  0.2361  0.1332
17611SOL    HW158670   3.193   2.483   8.873 -1.1026 -1.5765 -0.0103
17611SOL    HW258671   3.242   2.524   8.736  0.0533 -0.7409  0.6342
17612SOL     OW58672   0.554   0.181  10.529  0.3071 -0.1697  0.0924
17612SOL    HW158673   0.587   0.258  10.482  1.4643 -0.9817 -0.4640
17612SOL    HW258674   0.557   0.206  10.621  0.0351  0.6879 -0.1252
17613SOL     OW58675  11.044   2.058   9.893  0.0956 -0.4732  0.3068
17613SOL    HW158676  11.137   2.044   9.876 -0.1348 -1.6889 -0.0110
17613SOL    HW258677  10.999   1.997   9.835 -0.9195  0.3890  0.1666
17614SOL     OW58678   9.516  11.468   9.420 -0.0697 -0.1820 -0.0158
17614SOL    HW158679   9.455  11.536   9.394  0.2215  0.3876  0.7520
17614SOL    HW258680   9.513  11.404   9.349  1.7909  1.9953 -2.2550
17615SOL     OW58681   6.593  10.749   8.830 -0.4090  0.3406  0.1463
17615SOL    HW158682   6.595  10.807   8.906  2.1829  0.8386 -0.1992
17615SOL    HW258683   6.554  10.668   8.862  1.8083  0.0716  2.4457
17616SOL     OW58684   7.131   9.606   2.269  0.0348 -0.1174 -0.0187
17616SOL    HW158685   7.091   9.541   2.327 -0.9245  0.5852  0.1180
17616SOL    HW258686   7.070   9.679   2.269  1.6391  1.2929  0.7655
17617SOL     OW58687   7.879   5.264   7.784 -0.1366  0.4593 -0.2865
17617SOL    HW158688   7.857   5.194   7.846  2.2845  0.6905  0.9506
17617SOL    HW258689   7.794   5.300   7.759 -1.3004 -0.4316  1.9984
17618SOL     OW58690   6.070   6.521   6.619 -0.6743 -0.5089  0.0344
17618SOL    HW158691   6.025   6.446   6.657 -0.7059 -0.8087 -0.5748
17618SOL    HW258692   6.010   6.553   6.551 -0.3888 -0.3235 -0.1334
17619SOL     OW58693   9.090   9.323   2.156 -0.1702  0.1020 -0.2612
17619SOL    HW158694   9.008   9.370   2.165  0.2645  1.2034 -1.6756
17619SOL    HW258695   9.113   9.297   2.245 -0.7963  1.9424  0.4834
17620SOL     OW58696   0.410   8.035   4.356  0.1810  0.5707 -0.2003
17620SOL    HW158697   0.339   8.081   4.311 -0.1416  0.7531  0.4757
17620SOL    HW258698   0.466   8.002   4.286 -0.2388  0.9589 -0.7272
17621SOL     OW58699   0.253   5.558   4.330 -0.1701  0.9605 -0.3545
17621SOL    HW158700   0.298   5.476   4.347 -0.5779  0.2859 -2.3070
17621SOL    HW258701   0.286   5.618   4.397  0.0323 -0.8024  1.1982
17622SOL     OW58702   6.603   9.163   3.966  0.4610 -0.1669  0.5181
17622SOL    HW158703   6.643   9.250   3.965  0.9451 -0.3776 -0.9241
17622SOL    HW258704   6.524   9.172   3.913  1.9579 -1.1806 -2.1086
17623SOL     OW58705  10.833   6.807   8.312  0.1828 -0.2682 -0.0193
17623SOL    HW158706  10.875   6.862   8.379  1.2933 -0.8829 -0.1931
17623SOL    HW258707  10.794   6.870   8.251  0.9348  0.3326  0.1040
17624SOL     OW58708   6.254   0.356   1.580  0.6082  0.0770 -0.3716
17624SOL    HW158709   6.325   0.299   1.550  0.6598 -0.6756  1.1044
17624SOL    HW258710   6.195   0.298   1.628  1.4371  1.4541  2.5225
17625SOL     OW58711   8.960   4.843   7.330  0.3571 -0.2435  0.6719
17625SOL    HW158712   8.955   4.893   7.411  0.8150 -0.4460  0.8252
17625SOL    HW258713   9.044   4.798   7.334  0.4159 -0.2017  0.0523
17626SOL     OW58714   4.933   5.841   8.731  0.1790  0.5338  0.0151
17626SOL    HW158715   4.936   5.837   8.636 -0.0790  3.2674 -0.1995
17626SOL    HW258716   5.022   5.820   8.759  0.6621  1.1850 -0.9646
17627SOL     OW58717   9.637  12.283   9.021 -0.5202 -0.3177  0.3682
17627SOL    HW158718   9.690  12.362   9.005 -0.6586  0.2344  2.3069
17627SOL    HW258719   9.548  12.316   9.029 -0.8906 -0.9816 -0.9150
17628SOL     OW58720   1.775   2.551   2.408  0.3080 -0.1180 -1.0606
17628SOL    HW158721   1.851   2.577   2.460 -0.5866 -0.0685  0.2770
17628SOL    HW258722   1.719   2.629   2.408  0.2258 -0.1669 -2.0007
17629SOL     OW58723  10.743   5.235   7.030 -0.6065 -0.4593  0.0505
17629SOL    HW158724  10.744   5.308   7.093 -1.3580  0.3115 -0.8075
17629SOL    HW258725  10.736   5.157   7.084  1.4476 -0.0084  1.0733
17630SOL     OW58726   3.972   5.280  10.884 -0.4440 -0.2125 -0.0421
17630SOL    HW158727   4.050   5.234  10.916 -1.0234 -0.3468  1.2345
17630SOL    HW258728   3.901   5.248  10.940 -1.3074  0.3568 -0.7927
17631SOL     OW58729   5.356   7.851  11.552  0.0469 -0.2139 -0.5876
17631SOL    HW158730   5.364   7.919  11.484 -1.3089  1.0551  0.4461
17631SOL    HW258731   5.435   7.863  11.606  1.2711 -1.4079 -2.0285
17632SOL     OW58732   1.865   2.208  10.853  0.6588 -0.0786  0.4205
17632SOL    HW158733   1.915   2.137  10.894 -0.2450 -0.3845  1.0149
17632SOL    HW258734   1.774   2.189  10.875  0.2620  0.3944 -0.7720
17633SOL     OW58735   4.562  11.656   7.523 -0.2252 -0.0052  0.1912
17633SOL    HW158736   4.646  11.661   7.477  0.5558  0.2181  1.5914
17633SOL    HW258737   4.581  11.605   7.602 -1.2392  0.6673  0.8837
17634SOL     OW58738   4.173   3.022  11.240  0.2247 -0.2902  0.4274
17634SOL    HW158739   4.182   3.104  11.289  0.6989 -0.6488  0.9386
17634SOL    HW258740   4.185   2.953  11.305  0.3533 -0.7719 -0.1018
17635SOL     OW58741   3.465  10.892   8.857  0.5610  0.3762  0.8726
17635SOL    HW158742   3.501  10.861   8.940  1.1401 -0.5761  0.2885
17635SOL    HW258743   3.372  10.868   8.860  0.1701  1.8643  1.9289
17636SOL     OW58744   7.331   4.649   4.782 -0.7296  0.0750  0.7592
17636SOL    HW158745   7.355   4.577   4.840  1.7469  0.7530  0.6811
17636SOL    HW258746   7.349   4.617   4.694 -0.5131  0.4698  0.6556
17637SOL     OW58747   4.558  10.440   5.155  0.0810 -0.0850 -0.0656
17637SOL    HW158748   4.622  10.489   5.206  1.2396 -1.2996 -0.2944
17637SOL    HW258749   4.487  10.422   5.217  0.6017  0.0748  0.5930
17638SOL     OW58750   6.669   2.437   3.903  0.3230  0.0971  0.1794
17638SOL    HW158751   6.645   2.490   3.827 -1.5469  2.2303  2.0678
17638SOL    HW258752   6.645   2.492   3.978  0.8129 -2.4234  2.3277
17639SOL     OW58753   3.542   2.633   3.668 -0.0489  0.3021 -0.0027
17639SOL    HW158754   3.501   2.599   3.588 -0.1775 -0.1382  0.2464
17639SOL    HW258755   3.477   2.691   3.706  0.3090  1.1340 -0.6219
17640SOL     OW58756   5.669  12.013   1.822  0.4760 -0.2895  0.1178
17640SOL    HW158757   5.765  12.009   1.822  0.5398  0.7164 -0.8520
17640SOL    HW258758   5.647  12.039   1.733 -0.7357 -1.0360  0.1894
17641SOL     OW58759   8.205   9.654  11.664 -0.1577  0.1998 -0.2099
17641SOL    HW158760   8.212   9.636  11.758 -0.0059  0.0983 -0.2405
17641SOL    HW258761   8.235   9.744  11.654  0.9879 -0.1769 -0.3156
17642SOL     OW58762   0.775   6.759   9.884 -0.1710 -0.2636  0.1476
17642SOL    HW158763   0.789   6.664   9.890  0.3300 -0.1159  1.6681
17642SOL    HW258764   0.680   6.770   9.883 -0.3095 -0.6815  2.8388
17643SOL     OW58765   6.356   0.197   7.935  0.2759  0.2899  0.5977
17643SOL    HW158766   6.448   0.214   7.915  0.6073 -2.5747 -0.7755
17643SOL    HW258767   6.311   0.209   7.851 -0.8173  2.3147  1.3784
17644SOL     OW58768   3.154   5.139  10.238  0.1248  0.1909 -0.1058
17644SOL    HW158769   3.201   5.163  10.158 -1.6894 -0.1906 -1.3658
17644SOL    HW258770   3.103   5.061  10.213  0.4552 -0.6944  1.8033
17645SOL     OW58771   0.970   6.247  11.782  0.4553  0.5794 -0.0856
17645SOL    HW158772   0.887   6.291  11.799 -0.2134 -1.1468  1.4248
17645SOL    HW258773   0.950   6.154  11.785  2.2223  0.1087 -1.0175
17646SOL     OW58774  10.567   1.697   7.955  0.4235  0.3031  0.2409
17646SOL    HW158775  10.584   1.691   8.049 -0.0852  0.5847  0.3537
17646SOL    HW258776  10.586   1.788   7.933 -1.3610  0.7816  0.4731
17647SOL     OW58777   8.964   2.248  12.101 -0.1141  0.1265  0.4160
17647SOL    HW158778   8.919   2.163  12.097 -1.0443  0.6283 -0.1096
17647SOL    HW258779   8.994   2.254  12.192  0.6719 -1.1145  0.2564
17648SOL     OW58780   1.078   7.923   8.433 -0.0178 -0.3348  0.2762
17648SOL    HW158781   1.101   7.975   8.510 -0.6337  0.2167  0.0960
17648SOL    HW258782   1.163   7.900   8.394  0.2783  0.0358  0.6865
17649SOL     OW58783   9.224   4.669  11.734  0.2893 -0.0871 -0.0289
17649SOL    HW158784   9.311   4.677  11.694  0.1508  0.1755 -0.2803
17649SOL    HW258785   9.223   4.582  11.773  0.1196 -0.6697 -1.3150
17650SOL     OW58786   8.817   1.937   4.506  0.1079 -0.2255  0.7411
17650SOL    HW158787   8.880   1.885   4.455 -0.1699  0.1771 -0.0375
17650SOL    HW258788   8.829   2.026   4.474 -0.2166  0.0034  1.2515
17651SOL     OW58789   8.730   9.605  10.908  0.4113  0.2553  0.5281
17651SOL    HW158790   8.809   9.554  10.889  0.4882  0.5323  0.0835
17651SOL    HW258791   8.660   9.540  10.910  0.7979 -0.1573  2.0614
17652SOL     OW58792   7.836   6.758   8.082  0.2063 -0.5403 -0.3663
17652SOL    HW158793   7.792   6.703   8.017  0.7321 -1.3994 -0.0090
17652SOL    HW258794   7.893   6.698   8.129  2.2204  0.6296 -1.2042
17653SOL     OW58795  11.415   1.003   7.766  0.2894 -0.4017 -0.4764
17653SOL    HW158796  11.392   0.913   7.740 -1.1117 -0.1547 -0.1723
17653SOL    HW258797  11.457   0.993   7.851 -2.2091 -0.6254  0.8299
17654SOL     OW58798   2.294   8.651   0.046 -0.5247 -0.2650 -0.0726
17654SOL    HW158799   2.299   8.679  -0.045  0.1672 -0.2418 -0.0324
17654SOL    HW258800   2.261   8.561   0.041 -1.4114  0.0545 -0.2776
17655SOL     OW58801   0.566   2.586   2.402  0.0808 -0.1978 -0.0955
17655SOL    HW158802   0.525   2.574   2.316  1.4862 -1.9392 -0.5990
17655SOL    HW258803   0.498   2.565   2.465 -0.4751 -0.6658 -0.8384
17656SOL     OW58804   0.464   4.630  11.161  0.5135 -0.2956 -0.2422
17656SOL    HW158805   0.534   4.583  11.116  1.0082  1.2370 -1.1305
17656SOL    HW258806   0.388   4.622  11.103 -0.1619 -2.1209  0.8094
17657SOL     OW58807  12.226   1.085  11.395  0.3039 -0.2654 -0.5812
17657SOL    HW158808  12.225   1.181  11.395  1.7801 -0.2002 -1.6106
17657SOL    HW258809  12.231   1.061  11.487 -0.2413  0.6396 -0.3021
17658SOL     OW58810   4.563   9.611   7.962  0.3687 -0.0033 -0.6346
17658SOL    HW158811   4.533   9.698   7.936  1.3870  0.2768 -0.9062
17658SOL    HW258812   4.483   9.561   7.977 -0.2225  0.7202 -1.3492
17659SOL     OW58813   9.656  11.663   0.554  0.3091  0.0119  0.7891
17659SOL    HW158814   9.742  11.704   0.562  0.2263  0.9949 -2.1673
17659SOL    HW258815   9.603  11.727   0.506 -1.0400 -1.9285 -0.4501
17660SOL     OW58816   0.462  10.307   0.433 -0.2441 -0.0641 -0.2467
17660SOL    HW158817   0.465  10.218   0.398 -0.1717  0.1754 -0.8546
17660SOL    HW258818   0.531  10.354   0.386 -0.9691  0.5867 -0.7034
17661SOL     OW58819  10.465   3.712   6.781 -0.5569  0.0833  0.0635
17661SOL    HW158820  10.373   3.687   6.771 -0.7541  0.0691  1.7449
17661SOL    HW258821  10.469   3.761   6.863  1.0826 -0.6669  0.4802
17662SOL     OW58822   9.038  11.028   8.384  0.0834  0.6480 -1.4133
17662SOL    HW158823   9.044  10.983   8.300  1.0989  1.6796 -1.9281
17662SOL    HW258824   9.129  11.038   8.412 -0.2287  0.7110 -0.4132
17663SOL     OW58825  11.678   3.134   6.243 -0.1567  0.4351  0.3674
17663SOL    HW158826  11.653   3.136   6.150 -0.3223  0.0256  0.3996
17663SOL    HW258827  11.663   3.043   6.269 -2.2822  1.0054  1.3737
17664SOL     OW58828   7.438   0.456   1.891  0.3902 -0.0698 -0.6833
17664SOL    HW158829   7.394   0.413   1.818  0.3160  0.0050 -0.6838
17664SOL    HW258830   7.367   0.499   1.939  0.6064  1.2740 -1.5044
17665SOL     OW58831   1.318   3.390   1.186  0.7201 -0.0837  0.1926
17665SOL    HW158832   1.396   3.445   1.184  0.6302  0.0389 -0.0679
17665SOL    HW258833   1.347   3.305   1.153  0.7304 -0.0197  0.0365
17666SOL     OW58834   3.527   1.002   3.286 -0.3123 -0.1230  0.0705
17666SOL    HW158835   3.584   0.972   3.215  1.0910 -0.7434  1.4160
17666SOL    HW258836   3.520   1.097   3.272  0.5283 -0.1343 -0.4985
17667SOL     OW58837  10.102   9.070   0.724  0.2098 -0.1694  0.1050
17667SOL    HW158838  10.171   9.010   0.753  1.1065  0.6193 -0.3391
17667SOL    HW258839  10.126   9.154   0.764 -1.2057 -0.1593  0.9875
17668SOL     OW58840   2.074   6.238   1.791  0.2129 -0.0342  0.3093
17668SOL    HW158841   2.133   6.171   1.755  1.2091  1.2021 -0.4686
17668SOL    HW258842   2.089   6.236   1.885  2.1281  0.7420  0.0834
17669SOL     OW58843  10.848   0.574   6.905 -0.1270  0.3640 -0.2306
17669SOL    HW158844  10.820   0.647   6.849 -0.0075 -0.0451 -0.8231
17669SOL    HW258845  10.940   0.561   6.883 -0.5832 -1.1327 -1.4439
17670SOL     OW58846   8.247   7.346   2.889 -0.3087 -0.0953 -0.1466
17670SOL    HW158847   8.214   7.436   2.889 -0.8418 -0.2493 -2.4524
17670SOL    HW258848   8.282   7.333   2.801  0.5610 -1.8913  0.4177
17671SOL     OW58849   3.367   5.800  11.277  0.3237 -0.0624  0.4358
17671SOL    HW158850   3.308   5.796  11.352  0.6913  3.7364  1.1442
17671SOL    HW258851   3.431   5.731  11.293  0.3065  0.5068  3.6107
17672SOL     OW58852   8.669  12.005   2.831  0.3239 -0.1166 -0.7715
17672SOL    HW158853   8.585  11.959   2.831 -0.0791  0.6132 -0.8735
17672SOL    HW258854   8.646  12.097   2.824  1.1507  0.0633 -1.2114
17673SOL     OW58855   7.917  10.892   3.292  0.1937 -0.3243  0.0095
17673SOL    HW158856   7.912  10.917   3.200 -2.2230 -1.2019 -0.1819
17673SOL    HW258857   7.970  10.813   3.292  1.8707  0.7471 -0.3160
17674SOL     OW58858   5.906  10.097   6.539 -0.2270  0.6424 -0.0244
17674SOL    HW158859   5.970  10.167   6.550 -0.8777  1.1012  1.0053
17674SOL    HW258860   5.959  10.017   6.531  0.6636  1.4095 -3.8171
17675SOL     OW58861   6.115   8.661  11.280  0.3461  0.2253  0.3867
17675SOL    HW158862   6.073   8.576  11.267 -0.6826  0.7878 -0.0720
17675SOL    HW258863   6.178   8.668  11.209  0.1447  0.0164  0.1875
17676SOL     OW58864   0.618   2.353  12.194 -0.3236  0.1068  0.2420
17676SOL    HW158865   0.666   2.436  12.198  0.3234 -0.2953  2.5575
17676SOL    HW258866   0.526   2.379  12.190 -0.1150  0.9674  0.6136
17677SOL     OW58867   0.506   5.488   0.885 -0.4344 -0.9715  0.0632
17677SOL    HW158868   0.599   5.481   0.906 -0.2143 -2.2727 -1.1612
17677SOL    HW258869   0.480   5.398   0.861 -1.6885 -0.4017 -0.8507
17678SOL     OW58870   3.323   6.394  11.870  0.3448  0.0998  0.2998
17678SOL    HW158871   3.247   6.407  11.813  1.5049 -0.5315 -1.4650
17678SOL    HW258872   3.356   6.483  11.887 -0.6220  0.3582  0.8764
17679SOL     OW58873   3.037   1.438   7.627  0.0282 -0.1797 -0.7782
17679SOL    HW158874   3.082   1.509   7.581  1.7311 -0.2149  0.7424
17679SOL    HW258875   2.945   1.466   7.631  0.4778  1.4075 -1.1741
17680SOL     OW58876   1.629   9.984   8.998 -0.0057 -0.4269 -0.0023
17680SOL    HW158877   1.611  10.049   9.065  1.5314 -0.3310  0.3635
17680SOL    HW258878   1.559   9.994   8.934 -1.4222 -0.4259  1.4943
17681SOL     OW58879   8.778   5.614   5.360  0.3106  0.2644 -0.0273
17681SOL    HW158880   8.748   5.526   5.385  0.2902  0.1287 -0.5202
17681SOL    HW258881   8.713   5.673   5.397 -1.0235 -0.0683 -1.7440
17682SOL     OW58882   9.052   9.765   8.148  0.7412  0.5972 -0.5920
17682SOL    HW158883   9.032   9.686   8.198  0.4868  1.6731  1.1055
17682SOL    HW258884   9.141   9.750   8.114  1.8791  0.6666  2.1026
17683SOL     OW58885   3.996   9.166   4.463  0.1722 -0.1452 -0.3570
17683SOL    HW158886   4.015   9.092   4.406 -0.0829 -0.4501 -0.0536
17683SOL    HW258887   4.070   9.170   4.523 -0.3957 -0.9274  0.4114
17684SOL     OW58888   8.066   7.645  10.441  0.4257  0.5483 -0.1097
17684SOL    HW158889   8.100   7.666  10.528 -2.0893 -0.3043  1.1841
17684SOL    HW258890   7.987   7.699  10.433 -0.7818 -1.2445 -0.7557
17685SOL     OW58891   4.011   9.343  10.466 -0.1315 -0.2087  0.1671
17685SOL    HW158892   3.965   9.295  10.535 -0.0768 -2.0901 -1.0257
17685SOL    HW258893   3.969   9.314  10.385  1.4479  0.0002 -0.7652
17686SOL     OW58894   7.275   0.300   0.699 -0.0539 -0.4658 -0.6538
17686SOL    HW158895   7.304   0.283   0.610  1.9743 -0.0590 -0.1070
17686SOL    HW258896   7.268   0.213   0.739  0.2380 -0.5823 -0.8543
17687SOL     OW58897   4.606   0.270   7.879  0.5743  0.0624  0.0922
17687SOL    HW158898   4.693   0.272   7.918  1.0760 -0.8799 -0.9289
17687SOL    HW258899   4.569   0.356   7.899  1.2451  0.0427  1.5953
17688SOL     OW58900   9.718   0.967   6.618  0.2043 -0.2997 -0.6940
17688SOL    HW158901   9.722   0.965   6.714  0.5863 -2.7998 -0.6957
17688SOL    HW258902   9.639   0.916   6.597 -0.0359  0.4697 -1.7148
17689SOL     OW58903   7.228   1.444   8.319 -0.2299  0.3551  0.1818
17689SOL    HW158904   7.273   1.529   8.312 -1.6404  1.0507 -1.1951
17689SOL    HW258905   7.299   1.379   8.314  0.8243  1.4303  0.5549
17690SOL     OW58906   3.527  10.561   0.552  0.2204 -0.1852  0.3859
17690SOL    HW158907   3.506  10.535   0.463 -0.9060  1.0595  0.2531
17690SOL    HW258908   3.471  10.505   0.607 -2.1386  1.7348  0.1062
17691SOL     OW58909  12.057   9.715   1.801  0.3065  0.4027  0.0252
17691SOL    HW158910  12.112   9.777   1.753  0.1229  0.6516  0.1293
17691SOL    HW258911  12.049   9.639   1.744  0.6329  0.4289 -0.0544
17692SOL     OW58912   2.904   1.470   9.084 -0.3179 -0.3759 -1.1328
17692SOL    HW158913   2.825   1.424   9.058 -1.6500  0.4892  1.0694
17692SOL    HW258914   2.888   1.561   9.062  0.3057 -0.2656 -1.1619
17693SOL     OW58915   2.538   2.722   9.004  0.2069 -0.3744 -0.3174
17693SOL    HW158916   2.582   2.653   8.954 -1.9362 -0.1968 -2.6574
17693SOL    HW258917   2.608   2.779   9.034  2.0592 -3.2805  1.4338
17694SOL     OW58918   4.153   1.769   2.859  0.3831  0.1184  0.6990
17694SOL    HW158919   4.142   1.743   2.767  1.0826  0.7454  0.4261
17694SOL    HW258920   4.209   1.846   2.855  1.4089 -0.5471  1.7316
17695SOL     OW58921   2.012   6.379   4.779  0.0278  0.4462 -0.1182
17695SOL    HW158922   2.012   6.416   4.867 -1.1956  1.8758 -0.6663
17695SOL    HW258923   2.103   6.389   4.749  0.6021 -0.6389  1.1768
17696SOL     OW58924   2.773   7.054   5.179 -0.2419 -0.3132  0.2820
17696SOL    HW158925   2.740   7.011   5.100 -1.1112 -0.5951  0.7936
17696SOL    HW258926   2.863   7.021   5.187 -0.5417 -1.2180  0.0749
17697SOL     OW58927   8.045   0.320  11.183  0.3843  0.1988  0.2372
17697SOL    HW158928   7.949   0.321  11.182  0.3259  0.4077  2.1466
17697SOL    HW258929   8.068   0.335  11.274  2.2865  1.6699 -0.4143
17698SOL     OW58930   0.865   6.759   1.518 -0.1674  0.0413  0.7255
17698SOL    HW158931   0.813   6.835   1.542  0.9919  2.0068 -2.4392
17698SOL    HW258932   0.801   6.688   1.509 -1.6332  1.2486  1.2408
17699SOL     OW58933   1.845   4.541   6.926  0.0083  1.1859 -0.8046
17699SOL    HW158934   1.751   4.524   6.924  0.1816 -0.1938  0.8338
17699SOL    HW258935   1.869   4.535   7.019  1.9625 -0.0121 -1.3281
17700SOL     OW58936  10.195   7.066   6.734  0.4899  0.4985  0.2033
17700SOL    HW158937  10.162   7.154   6.750 -0.3163  0.5959 -1.6868
17700SOL    HW258938  10.116   7.012   6.724  0.9279  0.0011 -0.7453
17701SOL     OW58939   2.896   8.437   1.339  0.1112 -0.0262 -0.1584
17701SOL    HW158940   2.958   8.403   1.274  2.1288  2.7128  0.1180
17701SOL    HW258941   2.887   8.367   1.403  2.1042 -0.9638 -0.8247
17702SOL     OW58942   4.054   5.981   1.546  0.1662  0.4174  0.2217
17702SOL    HW158943   3.982   6.017   1.598 -2.2138 -2.6708 -0.6317
17702SOL    HW258944   4.042   6.020   1.459 -0.5795 -0.1670  0.0549
17703SOL     OW58945   6.839   6.641   1.492 -0.5157  0.4979 -0.2965
17703SOL    HW158946   6.885   6.724   1.505  1.8857 -0.6935 -0.5853
17703SOL    HW258947   6.821   6.609   1.580 -1.7904  1.4535 -0.1826
17704SOL     OW58948   3.816   4.104  10.712  0.0933 -0.0639  0.0990
17704SOL    HW158949   3.784   4.165  10.646  0.4233 -0.2749 -0.2557
17704SOL    HW258950   3.852   4.160  10.781  2.4017  0.1682 -1.1893
17705SOL     OW58951   3.088   4.217   3.485  0.0547  0.5549  0.5216
17705SOL    HW158952   2.995   4.194   3.482 -0.4185  2.4111 -1.2701
17705SOL    HW258953   3.116   4.194   3.573 -1.6164 -1.7477  0.5256
17706SOL     OW58954   5.068   5.952   1.333  0.3897 -0.2149  0.3834
17706SOL    HW158955   5.030   5.940   1.246  1.1031 -0.5746  0.1118
17706SOL    HW258956   5.132   5.881   1.341 -0.1440 -0.5807  1.4694
17707SOL     OW58957  11.408   0.457   4.493  0.5013 -0.2360  0.0243
17707SOL    HW158958  11.464   0.417   4.559  0.9497 -0.6551 -0.5939
17707SOL    HW258959  11.378   0.383   4.439  0.7126  0.1621 -0.6574
17708SOL     OW58960   7.693   9.757   2.334 -0.1939  0.3237  0.1319
17708SOL    HW158961   7.602   9.733   2.353  0.1191 -1.2939 -0.2497
17708SOL    HW258962   7.738   9.673   2.323  0.8761  1.1047 -1.9222
17709SOL     OW58963  11.066   6.989   6.541  0.6516  0.2804  0.6822
17709SOL    HW158964  11.003   6.995   6.468  2.9846  1.5948 -1.3833
17709SOL    HW258965  11.115   6.909   6.523  2.8636  1.8571 -0.7155
17710SOL     OW58966   0.447  10.660  10.747 -0.0547  0.9459 -0.1831
17710SOL    HW158967   0.492  10.732  10.791  0.0776  0.8458 -0.1510
17710SOL    HW258968   0.361  10.656  10.787  0.5817 -0.1329  1.1702
17711SOL     OW58969   2.525   5.342   3.251 -0.1118  0.2103  1.1445
17711SOL    HW158970   2.564   5.283   3.186 -2.9066  1.1407 -1.6125
17711SOL    HW258971   2.600   5.389   3.287  1.7837 -1.9318  0.2626
17712SOL     OW58972  11.969   8.968   7.454  0.1227 -0.1187 -0.2268
17712SOL    HW158973  11.934   8.992   7.368 -0.3640 -0.4401 -0.1191
17712SOL    HW258974  11.893   8.941   7.505  0.5746 -1.2529 -0.1294
17713SOL     OW58975   4.265   0.835   9.496  0.4785 -0.1895  0.0092
17713SOL    HW158976   4.223   0.921   9.490  0.1501 -0.3579 -0.1342
17713SOL    HW258977   4.263   0.814   9.589 -0.2272 -0.4229 -0.0478
17714SOL     OW58978   1.744   3.313  11.122  0.0562  0.0596  0.6350
17714SOL    HW158979   1.694   3.360  11.055  0.0484 -1.0151 -0.1379
17714SOL    HW258980   1.763   3.228  11.082  0.1516 -0.5616  1.9594
17715SOL     OW58981   7.686   7.488   6.426 -0.5712  0.1983  0.2562
17715SOL    HW158982   7.747   7.468   6.355 -0.2847  0.3626  0.4513
17715SOL    HW258983   7.625   7.551   6.388 -0.0318  0.7872  0.3334
17716SOL     OW58984   3.293   4.954   9.539 -0.1483 -0.1869  0.7619
17716SOL    HW158985   3.378   4.996   9.535  0.0420 -0.6607 -2.5059
17716SOL    HW258986   3.257   4.981   9.624  2.3804  1.6178  1.3785
17717SOL     OW58987   4.982   4.066   0.948  0.1862  0.0688  0.0334
17717SOL    HW158988   5.041   4.010   0.897 -0.1863 -1.2829  1.0223
17717SOL    HW258989   5.025   4.151   0.951  0.9216 -0.2354 -1.2578
17718SOL     OW58990   1.480   0.866   2.221  0.4026 -0.0321 -0.9619
17718SOL    HW158991   1.397   0.836   2.184 -0.7470  1.0736  0.5655
17718SOL    HW258992   1.512   0.791   2.272 -1.4995  0.5924  1.3165
17719SOL     OW58993   1.843   5.470  10.345 -0.0175  0.5117  0.6380
17719SOL    HW158994   1.826   5.521  10.423  1.8006  1.1394  0.6856
17719SOL    HW258995   1.927   5.504  10.312  1.4299 -2.5732  0.8064
17720SOL     OW58996   7.501   0.036   0.974 -0.0687  0.3941 -0.2428
17720SOL    HW158997   7.477   0.128   0.983 -2.2960 -0.2409  1.6657
17720SOL    HW258998   7.538   0.013   1.059  2.4489 -0.0476 -1.3758
17721SOL     OW58999   5.841   0.568   6.215  0.0470  0.1132  0.2896
17721SOL    HW159000   5.753   0.603   6.230 -0.2467 -0.4358 -0.0920
17721SOL    HW259001   5.875   0.620   6.142 -0.7489 -0.9628 -0.9006
17722SOL     OW59002   6.509  11.511   1.166  0.1632  0.2984  0.1796
17722SOL    HW159003   6.512  11.421   1.198  0.7853  0.7541  1.4886
17722SOL    HW259004   6.495  11.503   1.072 -0.8609 -1.1299  0.4350
17723SOL     OW59005   6.741  10.534   2.695 -0.8318 -0.1489  0.7548
17723SOL    HW159006   6.725  10.557   2.787 -1.2522  1.2184  0.3757
17723SOL    HW259007   6.821  10.583   2.673 -1.5462  0.7089  0.0079
17724SOL     OW59008   2.427   8.403  11.235  0.0424  0.2410  1.1656
17724SOL    HW159009   2.521   8.385  11.238 -0.0476 -0.5041  0.2225
17724SOL    HW259010   2.419   8.475  11.172 -0.2535 -2.0348 -1.6283
17725SOL     OW59011   8.765   7.113   3.880  0.1995  0.2381  0.5325
17725SOL    HW159012   8.818   7.086   3.805  0.2272 -1.3561  1.0752
17725SOL    HW259013   8.802   7.064   3.954 -1.1387  0.1638  1.1848
17726SOL     OW59014   1.757   3.830   4.874  0.4817 -0.1609 -0.4526
17726SOL    HW159015   1.723   3.910   4.835 -1.8920 -1.4565 -1.2795
17726SOL    HW259016   1.802   3.785   4.803 -3.1577 -2.1456 -1.7464
17727SOL     OW59017   6.399   6.776   3.061 -0.2592 -0.2565  0.5316
17727SOL    HW159018   6.435   6.733   2.984  1.8047  0.3050  1.1084
17727SOL    HW259019   6.467   6.838   3.088 -2.8168  3.0866  0.0533
17728SOL     OW59020  11.253   4.700   7.415  0.0307  0.5813  0.3826
17728SOL    HW159021  11.211   4.775   7.458 -2.7034 -1.7108  2.0212
17728SOL    HW259022  11.215   4.699   7.327 -1.8667 -0.2520  1.1701
17729SOL     OW59023  12.200   1.120   1.766 -0.0202  0.0080  0.0391
17729SOL    HW159024  12.108   1.143   1.780  0.2379  2.6466 -1.8465
17729SOL    HW259025  12.231   1.092   1.852 -2.2624  0.2327  0.9928
17730SOL     OW59026   9.419   0.910   0.971 -0.4092  0.4346  0.1331
17730SOL    HW159027   9.426   0.823   1.010  0.9240  0.5647  0.2286
17730SOL    HW259028   9.479   0.964   1.023 -0.5648  1.2072 -0.4796
17731SOL     OW59029   3.343   2.410   0.925 -0.1357  0.3299 -0.3506
17731SOL    HW159030   3.425   2.399   0.974  0.4057  1.1390 -1.0455
17731SOL    HW259031   3.277   2.426   0.992  0.2965 -0.2034  0.2159
17732SOL     OW59032  12.234  10.120   5.161 -0.1664 -0.5902  0.0006
17732SOL    HW159033  12.239  10.167   5.244 -0.5345  0.3806 -0.4983
17732SOL    HW259034  12.320  10.081   5.149 -0.5984 -2.1544  1.6169
17733SOL     OW59035   8.558   3.256  11.602 -0.4676  0.3542 -1.0523
17733SOL    HW159036   8.555   3.342  11.561 -1.4256  0.9258  0.1556
17733SOL    HW259037   8.478   3.251  11.655 -0.3036 -1.1683 -0.8915
17734SOL     OW59038   3.523   1.470   8.932 -0.0009 -0.2089  0.3934
17734SOL    HW159039   3.532   1.561   8.960  2.2437 -0.7167  1.6220
17734SOL    HW259040   3.568   1.467   8.847  0.9668 -0.3549  0.8912
17735SOL     OW59041   8.799  10.898   4.170 -0.6961 -0.3789 -0.2181
17735SOL    HW159042   8.894  10.884   4.162 -0.5085 -0.9867  2.1087
17735SOL    HW259043   8.761  10.851   4.097  0.7222 -1.8083 -0.0971
17736SOL     OW59044   1.850   3.267   9.027  0.4045 -0.2653  0.0351
17736SOL    HW159045   1.841   3.330   9.099  1.4937 -0.8869  0.7324
17736SOL    HW259046   1.886   3.318   8.955 -0.0077  0.1992  0.1507
17737SOL     OW59047   6.091   4.450   0.489 -0.9161 -0.1586  0.2019
17737SOL    HW159048   6.167   4.495   0.527  0.3306 -0.9209 -1.3091
17737SOL    HW259049   6.017   4.486   0.537  0.2174  1.9180  0.5381
17738SOL     OW59050   2.389  10.753   2.827 -0.0182 -0.0044 -0.8427
17738SOL    HW159051   2.449  10.810   2.875  0.5081 -2.1904  1.2224
17738SOL    HW259052   2.302  10.782   2.855  0.2269 -0.0109 -0.0492
17739SOL     OW59053   2.696   9.579   0.225  0.0492 -0.5401 -0.1879
17739SOL    HW159054   2.702   9.549   0.316 -1.2051  2.1398  0.8907
17739SOL    HW259055   2.602   9.590   0.210  0.3316  0.5914 -1.2472
17740SOL     OW59056   0.653  12.280   2.579  0.1170  0.2210  0.0001
17740SOL    HW159057   0.577  12.338   2.581  0.2474  0.4323 -0.7814
17740SOL    HW259058   0.710  12.312   2.649 -0.7354 -0.2726  0.9548
17741SOL     OW59059   0.517   1.083   0.998  0.2270  0.8175  0.4054
17741SOL    HW159060   0.481   1.125   0.920  1.4443 -1.8225 -1.7458
17741SOL    HW259061   0.448   1.091   1.064 -2.0438  0.6979 -1.8149
17742SOL     OW59062   1.140   3.970   5.400 -0.0359  0.3763  0.2042
17742SOL    HW159063   1.083   3.897   5.424 -0.3451 -0.6999 -3.2217
17742SOL    HW259064   1.094   4.014   5.329  0.8881  3.0270  1.1415
17743SOL     OW59065   3.566   1.512  10.600  0.7366  0.1329 -0.6885
17743SOL    HW159066   3.494   1.495  10.660  1.2025  0.1833 -0.1063
17743SOL    HW259067   3.641   1.467  10.640  1.8454  2.8329  0.4981
17744SOL     OW59068   8.162   4.322   7.513  0.1651 -0.0077  0.1097
17744SOL    HW159069   8.233   4.328   7.450 -1.4321  2.0716 -1.6376
17744SOL    HW259070   8.191   4.377   7.586  0.6536  0.2505 -0.2713
17745SOL     OW59071   3.077   2.533   9.657  0.1059  0.5593 -0.1180
17745SOL    HW159072   3.143   2.600   9.673  1.0376 -0.2554 -0.4110
17745SOL    HW259073   3.030   2.562   9.579  0.3962  0.9430 -0.1484
17746SOL     OW59074   5.091  10.798  11.932 -0.5013 -0.4967 -0.2621
17746SOL    HW159075   5.180  10.769  11.912 -0.2294  1.0179 -1.4581
17746SOL    HW259076   5.097  10.835  12.020  0.4197  0.9273 -0.8960
17747SOL     OW59077  11.257   7.260   3.738  0.4263  1.0330 -0.3331
17747SOL    HW159078  11.271   7.354   3.728  0.7327  1.1716  1.2106
17747SOL    HW259079  11.322   7.233   3.803  0.1336 -0.1995 -0.5288
17748SOL     OW59080   6.786   2.100   0.580 -0.1077 -1.0584 -0.1053
17748SOL    HW159081   6.833   2.134   0.504  0.8506 -0.9910  0.5038
17748SOL    HW259082   6.835   2.022   0.607 -0.2236 -0.8831  0.6567
17749SOL     OW59083   2.549   4.088   4.627 -0.0468 -0.0952 -1.0477
17749SOL    HW159084   2.638   4.066   4.655 -0.6578 -2.3198 -0.7128
17749SOL    HW259085   2.561   4.154   4.559  1.8699 -0.5360 -1.1800
17750SOL     OW59086   2.625   2.633  11.911 -0.0294 -0.0772 -0.2887
17750SOL    HW159087   2.697   2.599  11.965  0.9730  1.0304 -0.8765
17750SOL    HW259088   2.646   2.603  11.823 -0.7265 -0.4232 -0.3365
17751SOL     OW59089  11.865   7.198   6.313 -0.5970  0.1632  0.6217
17751SOL    HW159090  11.902   7.206   6.401  0.1002  0.0095  0.3468
17751SOL    HW259091  11.800   7.268   6.308  2.4690  3.2174 -0.2968
17752SOL     OW59092   6.592   4.622   4.052 -0.5191 -0.7257 -0.4961
17752SOL    HW159093   6.639   4.564   3.993 -0.1096 -0.0771 -0.8208
17752SOL    HW259094   6.660   4.671   4.098 -0.8621  0.0762 -0.8215
17753SOL     OW59095   5.878   2.396   0.593 -0.6289 -0.2667 -0.7062
17753SOL    HW159096   5.885   2.303   0.612 -0.7439 -0.1642 -0.1718
17753SOL    HW259097   5.855   2.437   0.676 -0.6643  0.2302 -0.9550
17754SOL     OW59098   7.206   3.044   5.759  0.1791  0.0565 -0.0825
17754SOL    HW159099   7.300   3.062   5.755 -0.2208  2.2123 -2.1236
17754SOL    HW259100   7.187   3.033   5.852  2.1423  1.6265  0.5752
17755SOL     OW59101   8.053  10.476   8.884 -0.4504  0.3126  0.6160
17755SOL    HW159102   8.062  10.517   8.970 -1.3454 -0.5169  1.1233
17755SOL    HW259103   7.960  10.455   8.877 -0.6049  1.3643 -1.0319
17756SOL     OW59104   1.084   8.711   1.698  0.2759  0.1660  1.1763
17756SOL    HW159105   1.136   8.789   1.677  0.9161 -0.0627  1.8922
17756SOL    HW259106   1.128   8.672   1.773  0.7183 -1.6040  0.0638
17757SOL     OW59107   2.724   0.240   3.804  0.3082 -0.4538 -0.4703
17757SOL    HW159108   2.708   0.189   3.883  1.5020  0.2706  0.2590
17757SOL    HW259109   2.819   0.235   3.791  0.1870 -0.1804 -1.6094
17758SOL     OW59110   2.018   6.608   9.439  0.6489 -0.5385 -0.1580
17758SOL    HW159111   1.963   6.546   9.392  0.7919  0.2572 -1.4295
17758SOL    HW259112   1.957   6.671   9.476  0.5710 -0.8632  0.2714
17759SOL     OW59113   7.134   1.343  10.574 -0.2824 -0.0885  0.6411
17759SOL    HW159114   7.094   1.414  10.524  0.4077  0.5390  0.9448
17759SOL    HW259115   7.087   1.342  10.657  0.4886  0.8299  1.1049
17760SOL     OW59116   1.960   5.001   5.872 -0.2572  0.5002  0.1033
17760SOL    HW159117   1.891   4.967   5.815  1.2159  1.3088 -2.3623
17760SOL    HW259118   1.916   5.064   5.928 -1.7111  0.1208 -0.5496
17761SOL     OW59119   7.939   4.859  11.114  0.0212 -0.2410 -0.5540
17761SOL    HW159120   7.912   4.934  11.167 -0.3918 -0.5397 -0.3328
17761SOL    HW259121   7.859   4.832  11.069 -0.0901 -1.2224  0.2053
17762SOL     OW59122   7.326   3.403   5.601 -0.0600 -0.3209  0.2621
17762SOL    HW159123   7.235   3.418   5.574 -0.1126 -0.6317  0.2601
17762SOL    HW259124   7.376   3.472   5.557 -0.2880 -0.1875  0.2134
17763SOL     OW59125   5.917  10.451   9.407  0.3029  0.1925  0.1398
17763SOL    HW159126   5.922  10.545   9.425  0.4375  0.0716  0.7908
17763SOL    HW259127   5.932  10.443   9.313 -1.6129  0.9749 -0.2684
17764SOL     OW59128   1.132   6.952  10.729 -0.0481  0.4358  0.7214
17764SOL    HW159129   1.126   6.939  10.634 -0.5706 -1.0308  0.9307
17764SOL    HW259130   1.132   7.047  10.740 -1.2190  0.6356 -0.6685
17765SOL     OW59131  10.361  11.587   8.718 -0.5292 -0.3874  0.7203
17765SOL    HW159132  10.319  11.524   8.777 -1.9754  1.1641  1.4240
17765SOL    HW259133  10.389  11.658   8.774 -0.9588  0.6387 -0.3218
17766SOL     OW59134   3.232  10.003   5.013  0.2381 -0.4614  0.2590
17766SOL    HW159135   3.206  10.058   5.087 -0.3472  1.1529 -1.1052
17766SOL    HW259136   3.313  10.043   4.981  0.0402 -0.6504 -0.4890
17767SOL     OW59137  11.536   6.875   9.290  0.5737  0.4715  0.5653
17767SOL    HW159138  11.579   6.945   9.240  1.2582  0.0472  0.5398
17767SOL    HW259139  11.454   6.858   9.243  0.7856  0.6969  0.1033
17768SOL     OW59140   9.186   5.402   5.866  0.4953 -0.2090 -0.0876
17768SOL    HW159141   9.169   5.321   5.817  3.1859 -1.9862  1.6920
17768SOL    HW259142   9.237   5.456   5.806 -0.7730 -0.0542 -1.0651
17769SOL     OW59143   7.301   6.348   2.048 -0.0996 -0.1319  0.3092
17769SOL    HW159144   7.280   6.281   2.113  1.7222 -0.6643  0.4125
17769SOL    HW259145   7.310   6.429   2.099 -1.8403  0.1418  0.2456
17770SOL     OW59146   2.748   1.556   3.243  0.9010 -0.1180  0.3187
17770SOL    HW159147   2.706   1.581   3.160 -0.7614  0.1082  1.1894
17770SOL    HW259148   2.703   1.476   3.269 -0.1021  0.9453  2.0328
17771SOL     OW59149   8.117   4.853   2.393 -0.3049 -0.0419  0.3526
17771SOL    HW159150   8.063   4.775   2.381  1.8086 -1.7555  1.3877
17771SOL    HW259151   8.131   4.859   2.487 -0.3313  1.5654  0.2866
17772SOL     OW59152   1.754   4.129   3.141 -0.4747 -0.0971  0.1246
17772SOL    HW159153   1.815   4.056   3.154  0.6309  0.3156 -2.1219
17772SOL    HW259154   1.705   4.105   3.062  0.7475  2.0022 -1.4031
17773SOL     OW59155   9.009   3.766   3.425 -0.2637 -0.2260  0.2793
17773SOL    HW159156   9.000   3.757   3.520  1.1063 -0.9193  0.3807
17773SOL    HW259157   9.004   3.860   3.409 -1.1586 -0.1460  0.9497
17774SOL     OW59158   4.149  11.832   9.161 -0.6488 -0.3211  0.2806
17774SOL    HW159159   4.114  11.778   9.090 -0.5659  0.4787 -0.3769
17774SOL    HW259160   4.244  11.823   9.153 -0.5725  1.0311 -0.7428
17775SOL     OW59161   9.754  10.438   3.420  0.3815  0.2540  0.1953
17775SOL    HW159162   9.707  10.516   3.452 -0.5716 -0.7606  1.3958
17775SOL    HW259163   9.684  10.377   3.396  1.1047 -0.6408  0.3310
17776SOL     OW59164   6.746  10.732   7.700  1.0615 -0.2052 -0.1075
17776SOL    HW159165   6.699  10.667   7.752 -0.3373  1.6459  1.0553
17776SOL    HW259166   6.679  10.773   7.646  1.5131  1.5768  0.6102
17777SOL     OW59167   2.439  10.344  10.457  0.4239 -0.3908 -0.2494
17777SOL    HW159168   2.513  10.310  10.407 -0.2499 -1.2088 -0.7263
17777SOL    HW259169   2.413  10.271  10.513 -1.9303 -1.2783 -2.2849
17778SOL     OW59170   4.040   3.793   1.633 -0.0619 -0.3736 -0.2373
17778SOL    HW159171   3.985   3.820   1.706 -0.6508  1.0463 -1.1566
17778SOL    HW259172   4.119   3.846   1.641  0.0539 -0.5249 -0.3803
17779SOL     OW59173   5.852   4.077   0.815 -0.9345  0.3934  0.0485
17779SOL    HW159174   5.779   4.047   0.869 -1.3173 -0.3965 -0.8816
17779SOL    HW259175   5.913   4.116   0.877 -2.4456  1.7169  0.7708
17780SOL     OW59176   8.197   1.463   4.009 -0.6424  0.4345 -0.3488
17780SOL    HW159177   8.223   1.386   3.959  0.9814  0.7626 -0.0767
17780SOL    HW259178   8.102   1.458   4.015 -0.6032 -1.2262 -0.8407
17781SOL     OW59179   9.709   0.904  11.571  0.1889  0.2113  0.0136
17781SOL    HW159180   9.617   0.931  11.582  0.3396  0.7382  0.0148
17781SOL    HW259181   9.706   0.837  11.504 -0.4586 -1.3308  1.5082
17782SOL     OW59182  10.542   4.619  10.872 -0.0527 -0.3481 -0.5263
17782SOL    HW159183  10.457   4.579  10.889 -0.4226  0.7447  0.2973
17782SOL    HW259184  10.523   4.710  10.852  0.7554 -0.5660 -2.6459
17783SOL     OW59185   9.853   5.479   0.558  0.3233  0.6807 -0.2317
17783SOL    HW159186   9.920   5.546   0.547  0.5364  0.7219  1.1558
17783SOL    HW259187   9.795   5.491   0.483  0.2839  2.5164  0.0451
17784SOL     OW59188  11.784   2.705   5.341  0.9472 -0.6622 -0.1110
17784SOL    HW159189  11.779   2.623   5.390  2.5417 -0.1817  0.9190
17784SOL    HW259190  11.799   2.772   5.407  1.7850  0.1929 -1.1211
17785SOL     OW59191  11.765   8.203   6.303  0.4453 -0.0847  0.4110
17785SOL    HW159192  11.725   8.193   6.217 -1.3951  1.0264  1.0762
17785SOL    HW259193  11.700   8.251   6.355  2.2523  0.9198  1.8856
17786SOL     OW59194   3.732   5.346   2.183  0.3248  0.3581  0.3352
17786SOL    HW159195   3.728   5.406   2.257  0.2303 -0.4283  0.9778
17786SOL    HW259196   3.803   5.380   2.129 -0.2985  1.5505  0.2302
17787SOL     OW59197   4.469   9.383   0.128 -0.2292  0.4730 -0.1757
17787SOL    HW159198   4.498   9.465   0.089  2.6503 -1.0759 -1.5651
17787SOL    HW259199   4.376   9.397   0.147 -0.3491  3.3096 -2.2915
17788SOL     OW59200   5.408   8.510   4.866  0.3949  0.2802 -0.5248
17788SOL    HW159201   5.423   8.557   4.948 -1.1456  0.6697 -0.4301
17788SOL    HW259202   5.380   8.422   4.894 -0.7532  0.6056 -0.5819
17789SOL     OW59203  11.383   5.481   0.837 -0.1102 -0.6878  0.4302
17789SOL    HW159204  11.363   5.539   0.910  0.6019 -0.2780  0.3061
17789SOL    HW259205  11.298   5.447   0.809 -0.4090 -0.7338  1.3482
17790SOL     OW59206   2.508   5.894   2.348  0.0000 -0.3308 -0.3149
17790SOL    HW159207   2.447   5.968   2.349 -0.2776 -0.5602 -0.3848
17790SOL    HW259208   2.591   5.932   2.378  0.5790  0.6283 -2.9049
17791SOL     OW59209  11.302   0.634   9.111  0.1752  0.2626  0.2080
17791SOL    HW159210  11.340   0.611   9.026 -1.6182 -1.0714 -0.2949
17791SOL    HW259211  11.211   0.604   9.106  0.1111 -0.1847  2.7361
17792SOL     OW59212   3.805  10.617   0.454 -0.2306 -0.4089 -0.2137
17792SOL    HW159213   3.789  10.569   0.373  0.4827  0.7561 -1.0763
17792SOL    HW259214   3.722  10.662   0.471 -0.6169 -1.2366  0.1143
17793SOL     OW59215   1.815  11.357   7.531  0.1642  0.1967 -0.8081
17793SOL    HW159216   1.868  11.421   7.578  0.3522 -0.5276 -0.0214
17793SOL    HW259217   1.862  11.274   7.541 -1.6114 -0.6883  0.8031
17794SOL     OW59218   8.498   6.299   4.809  0.3465 -0.5190 -0.7087
17794SOL    HW159219   8.460   6.383   4.783  2.6135  0.5193 -0.9444
17794SOL    HW259220   8.566   6.282   4.744  1.1638 -1.6159  0.3719
17795SOL     OW59221   3.390   2.969  11.215  0.3104 -0.7066 -1.0229
17795SOL    HW159222   3.456   2.999  11.278 -1.5313  0.4575  0.4850
17795SOL    HW259223   3.368   2.881  11.244  1.9924 -1.5939 -2.2738
17796SOL     OW59224   0.916   0.736   4.981  0.4552  0.1960  0.3807
17796SOL    HW159225   0.841   0.686   4.947 -0.1399  2.3546 -1.7171
17796SOL    HW259226   0.979   0.669   5.008 -1.7025 -1.6840  1.0647
17797SOL     OW59227   7.349   6.849   1.021 -0.3934  0.5298 -0.0661
17797SOL    HW159228   7.260   6.886   1.016 -0.4788  0.2814 -0.4079
17797SOL    HW259229   7.359   6.801   0.939  0.7365  2.0652 -0.8845
17798SOL     OW59230   1.109   1.135   9.726 -0.0275 -0.1462 -0.3807
17798SOL    HW159231   1.136   1.222   9.753  0.9552 -0.3398 -0.6704
17798SOL    HW259232   1.191   1.092   9.700 -0.6135 -0.8237 -1.1668
17799SOL     OW59233   9.274   4.595   0.738  0.3711 -0.1405  0.1446
17799SOL    HW159234   9.269   4.521   0.677  0.2832  0.8836 -1.1389
17799SOL    HW259235   9.362   4.630   0.726  0.1754  0.3902  0.2315
17800SOL     OW59236  11.900  12.054   8.432  0.4108  0.0984 -0.4051
17800SOL    HW159237  11.857  11.980   8.475 -0.4319  1.3605  0.9928
17800SOL    HW259238  11.987  12.058   8.472 -1.0324  2.5288  2.9774
17801SOL     OW59239   7.104   2.422   0.163  0.5072  0.5044  0.4736
17801SOL    HW159240   7.064   2.501   0.125 -0.9054 -0.4433 -0.0730
17801SOL    HW259241   7.042   2.352   0.146  1.1293 -0.5187  2.0822
17802SOL     OW59242  11.584   8.985   2.774  0.0972  0.0106  0.5808
17802SOL    HW159243  11.607   8.960   2.685  0.8214 -1.2772  1.0889
17802SOL    HW259244  11.516   9.051   2.765 -0.5217 -0.7896 -0.9197
17803SOL     OW59245   6.705   0.787   3.411  0.0674 -0.4191 -0.2631
17803SOL    HW159246   6.704   0.764   3.318  1.9142  0.9382 -0.6741
17803SOL    HW259247   6.785   0.748   3.445  0.5928  0.9961  0.1911
17804SOL     OW59248   5.698   5.054   4.366  0.4456  0.5095  0.1943
17804SOL    HW159249   5.767   5.038   4.430  1.5025 -0.6139 -1.1841
17804SOL    HW259250   5.668   4.967   4.340 -2.4229  0.9372  1.6691
17805SOL     OW59251  11.358  12.225   4.665 -0.3529 -0.4127 -0.2781
17805SOL    HW159252  11.332  12.263   4.749 -0.9336 -0.3746 -0.4681
17805SOL    HW259253  11.424  12.160   4.687  0.8012  0.8121  0.0483
17806SOL     OW59254   9.543   8.080   4.787 -0.4266 -0.2787 -0.1159
17806SOL    HW159255   9.588   8.076   4.703  0.0633 -0.9878  0.1771
17806SOL    HW259256   9.538   8.173   4.807 -0.0339 -0.1368 -0.6570
17807SOL     OW59257   8.957   9.545   7.947  0.5641 -0.0641  0.4238
17807SOL    HW159258   8.917   9.466   7.911  2.2128 -0.5847 -0.3638
17807SOL    HW259259   8.883   9.600   7.972 -0.6485 -0.7920 -1.3415
17808SOL     OW59260   6.671   4.142  11.407 -0.3421  0.4534 -0.0390
17808SOL    HW159261   6.699   4.057  11.374 -1.3116 -0.0175  0.3355
17808SOL    HW259262   6.619   4.122  11.485 -0.2919  1.4080  0.2524
17809SOL     OW59263   1.937   9.682   3.157  0.6329  0.0059 -0.7637
17809SOL    HW159264   1.897   9.744   3.218  4.7055  0.4651  1.8897
17809SOL    HW259265   1.988   9.737   3.097  1.3284 -0.5962 -0.7424
17810SOL     OW59266   2.404   4.585   3.191  0.2101 -0.0632  0.5783
17810SOL    HW159267   2.438   4.573   3.280  0.0095 -1.7527  0.4555
17810SOL    HW259268   2.429   4.674   3.168  2.7070 -0.4966  1.3023
17811SOL     OW59269   2.614  10.506   4.409 -0.5034 -0.0867  0.8032
17811SOL    HW159270   2.581  10.590   4.376 -2.2562 -0.8942  0.3738
17811SOL    HW259271   2.624  10.452   4.330  2.7176  0.3155  0.7934
17812SOL     OW59272   7.432   4.854   0.548 -0.6347  0.2472  0.0361
17812SOL    HW159273   7.397   4.940   0.570  0.2535  0.5005  0.4937
17812SOL    HW259274   7.404   4.797   0.620 -0.9608  0.2132 -0.1134
17813SOL     OW59275  10.241   4.519   3.880  0.0650  0.7431  0.0664
17813SOL    HW159276  10.231   4.470   3.962 -0.5649  0.9628  0.1247
17813SOL    HW259277  10.202   4.604   3.898 -1.0429  0.4323 -0.7841
17814SOL     OW59278   1.469   0.493   0.072  0.0037 -0.1308  0.3323
17814SOL    HW159279   1.392   0.496   0.014  0.9947 -0.0405 -1.0384
17814SOL    HW259280   1.475   0.582   0.108 -0.6723 -0.2078  0.6515
17815SOL     OW59281   0.647   3.404   6.863  0.1658 -0.2022  0.1499
17815SOL    HW159282   0.606   3.365   6.786 -0.3591  2.0705 -0.7844
17815SOL    HW259283   0.716   3.342   6.887  0.5616 -0.8251 -2.3279
17816SOL     OW59284  10.525   4.681   7.286  0.2321 -0.2587  0.0394
17816SOL    HW159285  10.501   4.591   7.308  0.8429 -0.3413  0.4011
17816SOL    HW259286  10.620   4.684   7.299  0.1885  0.4959  0.2465
17817SOL     OW59287   7.884   8.360   9.167 -0.2310  0.4044 -0.4995
17817SOL    HW159288   7.946   8.413   9.117  0.3340  0.0625 -0.1735
17817SOL    HW259289   7.879   8.278   9.119  1.4546 -0.5024  0.7464
17818SOL     OW59290  10.989   2.782  11.137  0.1801  0.1542  0.8944
17818SOL    HW159291  10.999   2.809  11.228  0.8866  0.2258  0.8017
17818SOL    HW259292  11.078   2.784  11.101  0.1631 -1.6375  0.6879
17819SOL     OW59293  11.114   0.631  11.715 -0.1361 -0.1913  0.6420
17819SOL    HW159294  11.040   0.580  11.747  0.0228 -0.5440  0.4514
17819SOL    HW259295  11.093   0.721  11.739  0.3522 -0.5209  2.4758
17820SOL     OW59296  10.283   4.217   5.064 -0.3933 -0.0162  0.4835
17820SOL    HW159297  10.353   4.245   5.005 -0.2301  0.7228  1.0129
17820SOL    HW259298  10.241   4.143   5.019  1.1510 -0.9182  0.4699
17821SOL     OW59299   5.033   0.873   9.383 -0.0010  0.0313 -0.1915
17821SOL    HW159300   4.962   0.937   9.380  1.5879  2.0502  2.2253
17821SOL    HW259301   5.092   0.900   9.312  0.3068  0.8306  0.3579
17822SOL     OW59302   9.241  10.349   4.737 -0.4215  0.5760  0.3467
17822SOL    HW159303   9.221  10.314   4.824  1.0671  2.3715  1.5057
17822SOL    HW259304   9.330  10.319   4.720 -0.9380 -0.3207 -0.9098
17823SOL     OW59305   9.808   1.289  11.042 -0.3750 -0.3248 -0.3529
17823SOL    HW159306   9.734   1.228  11.035 -2.6918  2.0259  1.7857
17823SOL    HW259307   9.772   1.373  11.015  1.8548  0.7214 -0.2418
17824SOL     OW59308   9.522   8.138   3.562 -0.3268 -0.6047 -0.3926
17824SOL    HW159309   9.480   8.208   3.512 -1.5358  0.1245  1.5275
17824SOL    HW259310   9.450   8.085   3.595  0.2922 -0.2929  1.6244
17825SOL     OW59311   0.887   5.002   7.696 -0.5031 -0.9868 -0.2327
17825SOL    HW159312   0.825   4.979   7.766 -0.7257 -1.0461 -0.4484
17825SOL    HW259313   0.939   5.073   7.733 -0.0926 -1.5408  0.2802
17826SOL     OW59314   8.614   5.908   7.803 -0.2132  0.7901 -0.6006
17826SOL    HW159315   8.638   5.913   7.710 -0.2217 -0.6164 -0.7099
17826SOL    HW259316   8.691   5.871   7.846 -0.0844  1.7671  0.0259
17827SOL     OW59317   8.216   8.197   7.699 -0.0800  0.1904 -0.6594
17827SOL    HW159318   8.185   8.187   7.608 -0.1317  1.3414 -0.7804
17827SOL    HW259319   8.261   8.281   7.700  0.8444 -0.2917  0.1453
17828SOL     OW59320  10.277   8.331   3.314  0.0261 -0.5597 -0.0086
17828SOL    HW159321  10.338   8.330   3.387 -0.1139 -0.5715  0.1077
17828SOL    HW259322  10.254   8.423   3.303  0.2179 -0.5298 -0.1813
17829SOL     OW59323   7.131   1.912   5.721  0.5494 -0.2359 -0.0563
17829SOL    HW159324   7.080   1.844   5.766 -1.2810  1.9608  1.3817
17829SOL    HW259325   7.080   1.932   5.643  0.3907  0.3748  0.2008
17830SOL     OW59326   0.819   9.579  10.228  0.5074  0.8388 -0.1373
17830SOL    HW159327   0.909   9.586  10.196  0.0717  3.3152 -1.0522
17830SOL    HW259328   0.800   9.664  10.267 -1.7953  0.8277 -1.0452
17831SOL     OW59329   0.561   9.308   8.361 -0.4744 -0.9661 -0.6889
17831SOL    HW159330   0.589   9.372   8.427  0.2772 -2.3565  0.3820
17831SOL    HW259331   0.482   9.346   8.323 -0.4701  0.2494  0.4501
17832SOL     OW59332   5.713  11.657   4.984 -0.7649 -0.2013 -0.6026
17832SOL    HW159333   5.662  11.714   4.927  0.1385 -1.1905 -2.4666
17832SOL    HW259334   5.801  11.658   4.947 -0.4030 -1.7155  0.1513
17833SOL     OW59335   9.920  10.756   2.105  0.5536  0.1106 -0.4598
17833SOL    HW159336   9.892  10.679   2.155 -1.1247 -0.2807 -1.9204
17833SOL    HW259337   9.885  10.830   2.154  0.1406 -0.1863 -0.3037
17834SOL     OW59338  11.165   4.708   7.930 -0.6282  0.0213 -0.3017
17834SOL    HW159339  11.091   4.767   7.938 -0.8421 -0.1886 -0.7296
17834SOL    HW259340  11.158   4.671   7.842 -0.4148 -0.5314 -0.0908
17835SOL     OW59341   3.405   9.690   2.464 -0.0147  0.5440 -0.5038
17835SOL    HW159342   3.350   9.677   2.387  0.6369 -1.4003 -0.7108
17835SOL    HW259343   3.347   9.676   2.538 -0.1414  0.0533 -0.6923
17836SOL     OW59344   8.028   1.933   9.080  0.5148  0.2804 -0.3806
17836SOL    HW159345   7.936   1.914   9.063  0.0411  0.6584  1.4978
17836SOL    HW259346   8.046   2.012   9.029 -0.2200  0.2547 -0.6935
17837SOL     OW59347   4.633   8.432   4.941 -0.0858 -0.0237  0.1238
17837SOL    HW159348   4.622   8.499   4.875 -1.8549 -0.7403 -0.3466
17837SOL    HW259349   4.705   8.378   4.908 -0.7177 -0.1737 -1.0642
17838SOL     OW59350   8.213   5.606   1.879  0.3841 -0.5817  0.1629
17838SOL    HW159351   8.274   5.543   1.841 -0.4008 -0.3554 -1.5699
17838SOL    HW259352   8.156   5.631   1.806 -0.5561  0.6609  1.2772
17839SOL     OW59353   4.997   9.255   4.955  0.4761  0.1477 -0.0021
17839SOL    HW159354   4.987   9.168   4.915 -3.2666  0.0360  0.7321
17839SOL    HW259355   4.952   9.314   4.895 -0.8981  0.7796  1.5599
17840SOL     OW59356   1.136   4.201  12.161  0.7794  0.1509  0.0666
17840SOL    HW159357   1.181   4.118  12.144  0.9325  0.3916 -0.7562
17840SOL    HW259358   1.166   4.226  12.248  1.1267 -0.4055  0.1175
17841SOL     OW59359   5.919   0.953  12.167 -0.0280 -0.3836  0.3251
17841SOL    HW159360   5.860   0.932  12.239 -0.5381  0.9010  0.3046
17841SOL    HW259361   5.863   0.991  12.100  0.8505  1.3303  0.5074
17842SOL     OW59362   4.210   6.703   1.961 -0.2073  0.1045 -0.3284
17842SOL    HW159363   4.121   6.691   1.993 -0.9490  0.0373 -2.2836
17842SOL    HW259364   4.251   6.617   1.970  0.2414  0.4796  2.0231
17843SOL     OW59365   2.931   0.686   5.261 -0.1653  0.1446 -0.6499
17843SOL    HW159366   3.013   0.689   5.310  0.3184  0.7133 -1.4544
17843SOL    HW259367   2.901   0.595   5.270 -0.5486  0.4371  1.3680
17844SOL     OW59368   7.779   8.522   8.188 -0.4367 -0.0482  0.2775
17844SOL    HW159369   7.711   8.515   8.121  0.8987  0.9370 -1.2337
17844SOL    HW259370   7.787   8.616   8.204  1.0761 -0.0857 -0.1167
17845SOL     OW59371   2.000   0.512   1.666  0.1394 -0.0777  0.6176
17845SOL    HW159372   1.928   0.551   1.716 -0.7057 -0.0822 -0.5504
17845SOL    HW259373   2.053   0.468   1.732  0.3335  1.8175  1.8119
17846SOL     OW59374   1.836   4.122   0.017 -0.2647 -0.1324  0.4338
17846SOL    HW159375   1.846   4.051  -0.047  1.1567  0.8598 -0.5140
17846SOL    HW259376   1.831   4.077   0.101 -1.3314 -1.4347 -0.2791
17847SOL     OW59377  11.667   2.298   6.723  0.0790  0.2608  0.2933
17847SOL    HW159378  11.581   2.339   6.734  0.2973  1.5208 -2.1054
17847SOL    HW259379  11.651   2.221   6.669  0.4303  0.4823 -0.1357
17848SOL     OW59380   3.390   8.892   9.782 -0.3455 -0.2396 -0.1663
17848SOL    HW159381   3.347   8.889   9.696 -1.2697 -1.5714  0.3089
17848SOL    HW259382   3.344   8.962   9.828 -1.3235 -0.9252 -0.0483
17849SOL     OW59383   7.463  11.641  11.926 -0.2720  0.2949  0.3501
17849SOL    HW159384   7.465  11.731  11.959  0.0772  0.9894 -1.4242
17849SOL    HW259385   7.451  11.651  11.831  0.1003 -1.5214  0.0815
17850SOL     OW59386   1.071   9.552  10.099 -0.4575 -0.0278  0.3679
17850SOL    HW159387   1.108   9.521  10.181  0.5678  0.8900  0.2807
17850SOL    HW259388   1.108   9.495  10.032 -0.8640 -0.4294  0.4817
17851SOL     OW59389   1.809  11.550   6.309  0.5122  0.2919 -0.3631
17851SOL    HW159390   1.734  11.532   6.252 -0.2415 -0.6774  0.8758
17851SOL    HW259391   1.876  11.489   6.280  0.4968  0.5093 -0.8691
17852SOL     OW59392  11.208   7.458   4.681 -0.5593 -0.3355 -0.3058
17852SOL    HW159393  11.236   7.435   4.593  0.0680  0.8206 -0.4325
17852SOL    HW259394  11.255   7.539   4.701 -1.7055  0.1508  0.5701
17853SOL     OW59395   7.244   3.153   3.901  0.2561  0.5051 -0.0882
17853SOL    HW159396   7.161   3.135   3.856  0.5699  0.3232 -0.6114
17853SOL    HW259397   7.246   3.248   3.910  0.0223  0.5168 -0.1419
17854SOL     OW59398   2.567   8.631   5.161 -0.3261 -0.4053 -0.0953
17854SOL    HW159399   2.511   8.574   5.108 -2.4050  0.5058  0.9895
17854SOL    HW259400   2.590   8.703   5.102 -0.6089 -0.6195 -0.4745
17855SOL     OW59401   7.904  10.064   9.018 -0.1033  0.1038  0.2325
17855SOL    HW159402   7.977  10.113   9.055 -0.3364  0.3466  0.3703
17855SOL    HW259403   7.888   9.994   9.081  0.6586 -0.5522 -0.2862
17856SOL     OW59404  10.210   4.758   5.547 -0.8702 -0.1506  0.3227
17856SOL    HW159405  10.299   4.745   5.514 -2.0123 -3.8457 -1.8456
17856SOL    HW259406  10.222   4.799   5.633  2.8018  0.6387 -0.3976
17857SOL     OW59407   6.232   4.672   3.593  0.4110 -0.5674 -0.0857
17857SOL    HW159408   6.303   4.734   3.574  0.4728 -1.1244 -1.7646
17857SOL    HW259409   6.274   4.604   3.645  0.6473  0.0924  0.6176
17858SOL     OW59410   4.057   1.214   9.695 -0.2566 -0.4350 -0.2492
17858SOL    HW159411   4.080   1.295   9.739 -1.2906  0.5118 -1.3826
17858SOL    HW259412   4.126   1.152   9.721  2.2611  1.5843 -1.6623
17859SOL     OW59413   0.837   4.065   1.718 -0.0051  0.2389  0.3869
17859SOL    HW159414   0.870   4.143   1.761 -2.5446  2.1344 -0.8312
17859SOL    HW259415   0.795   4.097   1.638 -0.1430 -2.5151 -0.7688
17860SOL     OW59416   9.033  10.260   8.989  1.1204 -0.2951 -0.2094
17860SOL    HW159417   9.046  10.354   8.979 -1.5872  0.1392 -0.5389
17860SOL    HW259418   9.050  10.243   9.082  2.1213  0.4125 -0.2547
17861SOL     OW59419   7.895   1.068   9.907  0.3497 -0.0008 -0.0345
17861SOL    HW159420   7.954   1.072   9.831  0.3123  0.5854 -0.0364
17861SOL    HW259421   7.810   1.044   9.870  0.4632 -0.3061 -0.1009
17862SOL     OW59422  10.455   8.292   8.783 -0.2640  0.6416  0.5584
17862SOL    HW159423  10.386   8.348   8.819 -0.9788 -0.1332  0.4149
17862SOL    HW259424  10.535   8.344   8.793 -0.9585  1.8738  0.0452
17863SOL     OW59425   3.448   3.000  10.182 -0.1397 -0.2289 -0.2927
17863SOL    HW159426   3.491   3.055  10.116  0.3434 -0.5673 -0.2693
17863SOL    HW259427   3.507   3.003  10.257 -0.9493  0.5894  0.3334
17864SOL     OW59428   7.856   6.182   2.144 -0.1148  0.1644 -0.7262
17864SOL    HW159429   7.774   6.172   2.191 -0.3100 -2.1628 -1.4117
17864SOL    HW259430   7.831   6.217   2.058 -0.5374 -1.1685 -1.1806
17865SOL     OW59431   8.051  10.453   9.827 -0.0331  0.3140  0.5633
17865SOL    HW159432   7.962  10.421   9.839 -0.4632  0.8981 -0.8212
17865SOL    HW259433   8.102  10.376   9.803 -0.2919  0.0722  0.7943
17866SOL     OW59434   3.889   0.328  12.123 -0.3234 -0.4943  0.1387
17866SOL    HW159435   3.860   0.399  12.067  1.4687  2.7169  2.9197
17866SOL    HW259436   3.825   0.325  12.194  1.5645  1.1157  2.0412
17867SOL     OW59437   0.011   0.926   1.281 -0.5609  0.1574  0.0264
17867SOL    HW159438  -0.038   0.870   1.342 -2.4596  1.7430  0.0721
17867SOL    HW259439   0.042   0.866   1.213 -2.4992 -0.9918  0.0834
17868SOL     OW59440   3.865   8.306   7.798 -0.0337 -0.1442  0.2811
17868SOL    HW159441   3.880   8.400   7.811 -2.0164  0.1352  0.9145
17868SOL    HW259442   3.849   8.296   7.705 -0.2228  0.2217  0.2747
17869SOL     OW59443   1.113   1.103  12.225 -0.3803 -0.1562  0.4222
17869SOL    HW159444   1.168   1.057  12.288 -0.4333  1.7758  1.9497
17869SOL    HW259445   1.171   1.123  12.152  0.1821 -0.6616  0.7213
17870SOL     OW59446   9.506   5.656   8.528  0.4858 -0.3821 -0.4841
17870SOL    HW159447   9.464   5.594   8.587 -0.5683  0.3031 -0.4742
17870SOL    HW259448   9.448   5.660   8.452 -0.1502  1.4678  0.0284
17871SOL     OW59449   5.778   7.860   1.487 -0.5420  0.0548 -0.1211
17871SOL    HW159450   5.735   7.910   1.417 -0.0693  0.6836  0.0353
17871SOL    HW259451   5.860   7.830   1.448 -0.3999  0.1793  0.0854
17872SOL     OW59452   6.190   4.598   9.235  0.2913 -0.1531 -0.8389
17872SOL    HW159453   6.276   4.594   9.277 -0.1018  0.0170  0.0092
17872SOL    HW259454   6.176   4.510   9.200  0.7102 -0.2458 -0.7704
17873SOL     OW59455  10.174   4.545   1.393 -0.0461 -0.3613  0.2715
17873SOL    HW159456  10.146   4.469   1.342  1.8342 -2.1519  1.7169
17873SOL    HW259457  10.194   4.509   1.480  2.9201  1.3537  0.4348
17874SOL     OW59458   7.749   7.339   3.344 -0.2399 -0.2067 -0.7399
17874SOL    HW159459   7.793   7.349   3.260  0.0936  0.4801 -0.4932
17874SOL    HW259460   7.816   7.304   3.402 -0.3789 -0.3709 -0.6765
17875SOL     OW59461   0.778  10.755   6.185  0.4320  0.1928  0.5225
17875SOL    HW159462   0.698  10.725   6.229  1.2214 -1.2259  1.0658
17875SOL    HW259463   0.767  10.727   6.094 -0.4170  1.5251  0.1959
17876SOL     OW59464   0.083   0.630  11.350  0.1385 -0.1661 -0.2044
17876SOL    HW159465   0.154   0.596  11.295 -0.8710 -1.8868 -0.5295
17876SOL    HW259466   0.121   0.636  11.437  1.4270  1.4811 -0.8301
17877SOL     OW59467   6.055  10.797   4.679 -0.1545 -0.7731 -0.2905
17877SOL    HW159468   6.058  10.746   4.760 -2.1371 -1.1075 -0.3624
17877SOL    HW259469   6.083  10.736   4.611  1.8121 -0.4039  0.1336
17878SOL     OW59470   6.617   2.624   4.080 -0.2004 -0.5047  0.0044
17878SOL    HW159471   6.677   2.609   4.153  0.0507  0.2319 -0.0420
17878SOL    HW259472   6.535   2.650   4.120 -0.4999 -1.5164  0.0684
17879SOL     OW59473   3.918   6.370   5.629  0.5071  0.2924  0.0604
17879SOL    HW159474   3.969   6.311   5.684 -3.0526 -2.6120  0.5691
17879SOL    HW259475   3.855   6.410   5.689 -1.5569 -0.7240 -1.3164
17880SOL     OW59476   9.073   3.789   0.600  0.2327  0.1379  0.1453
17880SOL    HW159477   9.166   3.799   0.578 -0.1639  3.4521 -0.5064
17880SOL    HW259478   9.073   3.743   0.684  2.3802 -0.9778 -0.3884
17881SOL     OW59479   4.713   5.772   8.218  0.2110 -0.5234  0.1342
17881SOL    HW159480   4.776   5.700   8.230 -0.7078 -1.0635  1.9354
17881SOL    HW259481   4.724   5.797   8.126  3.0071 -0.6335  0.3532
17882SOL     OW59482   7.586   1.851   6.089  0.6070 -0.4925  0.0106
17882SOL    HW159483   7.561   1.770   6.044 -2.5232  0.4670 -0.1651
17882SOL    HW259484   7.645   1.895   6.029  4.5281 -3.6265  1.1245
17883SOL     OW59485   1.214  12.101   6.596 -0.4830 -0.2959  0.2071
17883SOL    HW159486   1.200  12.179   6.541 -1.4802 -0.2230  0.5378
17883SOL    HW259487   1.268  12.132   6.669 -0.5632  0.0041  0.1401
17884SOL     OW59488   9.947   5.808  10.649 -0.5886  0.6041 -0.7104
17884SOL    HW159489  10.043   5.807  10.649 -0.4351  0.6019  2.8372
17884SOL    HW259490   9.922   5.721  10.621  0.5530  0.0564 -0.1093
17885SOL     OW59491   3.246   5.686   6.196 -0.3178 -0.1423  0.0630
17885SOL    HW159492   3.324   5.630   6.201 -0.1083 -0.1408 -2.3002
17885SOL    HW259493   3.175   5.629   6.227  0.2370 -0.9780 -0.1504
17886SOL     OW59494  11.244   0.843  10.163  0.3379  0.1980  0.2669
17886SOL    HW159495  11.150   0.857  10.177  0.5314 -0.1599  2.2141
17886SOL    HW259496  11.260   0.754  10.195  1.2906  0.1153 -0.3948
17887SOL     OW59497  11.719   7.294   0.327 -0.7697  0.1345 -0.0223
17887SOL    HW159498  11.765   7.328   0.403 -0.8660 -0.3141  0.2400
17887SOL    HW259499  11.789   7.262   0.270 -0.5266  2.4996 -1.1715
17888SOL     OW59500   9.080   0.551   6.142 -0.2597 -0.1063  0.0258
17888SOL    HW159501   9.156   0.590   6.098  0.4779  0.1183  1.4347
17888SOL    HW259502   9.053   0.617   6.206 -0.4001 -0.9848  0.8919
17889SOL     OW59503   2.787  10.481   0.928  0.4704 -0.5002  0.7683
17889SOL    HW159504   2.800  10.421   1.002  1.8684  1.2290  2.0062
17889SOL    HW259505   2.711  10.533   0.953  0.3085 -0.5948  0.4817
17890SOL     OW59506   2.491   4.459   4.325 -0.0746  0.4576  0.0403
17890SOL    HW159507   2.464   4.407   4.249  1.3020  0.6261 -0.5908
17890SOL    HW259508   2.483   4.550   4.296  0.6459  0.5191  0.0061
17891SOL     OW59509  10.981   9.609   1.131  0.7240  0.3640  0.8775
17891SOL    HW159510  11.018   9.588   1.045  2.7168  0.4100  1.6770
17891SOL    HW259511  10.888   9.622   1.114  1.0794  0.4916 -1.2961
17892SOL     OW59512   0.577   2.670   7.620  0.5621 -0.1290 -0.3720
17892SOL    HW159513   0.648   2.607   7.625  0.2274 -0.4162  1.0680
17892SOL    HW259514   0.563   2.699   7.710 -1.0927 -0.0306 -0.6195
17893SOL     OW59515   2.119   9.722   0.999  0.3377  0.0410  0.2317
17893SOL    HW159516   2.142   9.766   1.081  0.6357 -0.2687  0.3186
17893SOL    HW259517   2.027   9.745   0.984 -0.1970 -1.1694  1.4729
17894SOL     OW59518   2.484   2.888   9.965  0.5619  0.1833 -0.4592
17894SOL    HW159519   2.557   2.831   9.944  2.0411  0.7773  2.5617
17894SOL    HW259520   2.408   2.830   9.967  1.4779 -1.0708 -0.6039
17895SOL     OW59521   3.860   2.606   1.775  0.1491 -0.1128  0.5138
17895SOL    HW159522   3.937   2.639   1.729  0.4676 -0.3748  0.8550
17895SOL    HW259523   3.895   2.566   1.854 -0.5075  1.6949  1.7870
17896SOL     OW59524   8.024   4.925  11.485 -0.1109  0.6706 -0.3935
17896SOL    HW159525   7.954   4.954  11.427 -1.4253  1.0272  1.2918
17896SOL    HW259526   8.016   4.980  11.563  2.1434  0.8146 -0.1788
17897SOL     OW59527   6.903   7.993   3.512 -0.0777  0.3366 -0.3337
17897SOL    HW159528   6.858   7.924   3.562 -1.1688  0.7685 -0.6784
17897SOL    HW259529   6.852   8.072   3.529 -1.0705  0.3406 -2.7830
17898SOL     OW59530   6.237  10.285   9.571 -0.0001  0.4689  0.2883
17898SOL    HW159531   6.151  10.257   9.602  0.2002 -1.4096 -0.7021
17898SOL    HW259532   6.258  10.362   9.624 -2.0916  0.7120  0.8310
17899SOL     OW59533   3.211   1.710   4.860 -0.2062 -0.0318  0.3995
17899SOL    HW159534   3.164   1.627   4.854 -0.5649  0.2554 -2.3386
17899SOL    HW259535   3.142   1.776   4.866 -0.0579  0.2056 -0.3833
17900SOL     OW59536   0.280  10.753   4.022 -0.3642 -0.4288  0.5898
17900SOL    HW159537   0.301  10.791   4.107 -0.7860  0.3057  0.3676
17900SOL    HW259538   0.263  10.828   3.965  2.1847 -0.7686 -0.7672
17901SOL     OW59539  11.085  10.408   0.322 -0.2137 -0.1895  0.5721
17901SOL    HW159540  11.036  10.483   0.356 -1.9017 -0.9421 -0.0910
17901SOL    HW259541  11.071  10.410   0.228 -0.0853 -1.2049  0.5166
17902SOL     OW59542  11.249  10.416   3.203 -0.3786 -0.2582  0.3517
17902SOL    HW159543  11.298  10.498   3.212 -0.4027 -0.3009  0.9017
17902SOL    HW259544  11.265  10.369   3.285 -0.2803 -0.8534 -0.0004
17903SOL     OW59545   7.357  11.861  12.252  0.5923 -0.1709 -0.2248
17903SOL    HW159546   7.387  11.854  12.161  2.0058  0.1354  0.1903
17903SOL    HW259547   7.435  11.845  12.304 -0.0162  0.4994  0.9345
17904SOL     OW59548   5.337   5.007   8.228  0.3338 -0.0442  0.7104
17904SOL    HW159549   5.304   4.982   8.142 -2.4266 -0.5021  1.8020
17904SOL    HW259550   5.423   5.044   8.210  1.3287 -3.1329 -1.8550
17905SOL     OW59551   1.068   6.726   5.128  0.0340  0.5426 -0.4785
17905SOL    HW159552   1.099   6.725   5.037 -1.6531 -1.6854 -1.1234
17905SOL    HW259553   1.140   6.688   5.178  1.4266  2.8032 -0.6434
17906SOL     OW59554  11.664  10.447  12.330  0.1794  0.4143  0.0798
17906SOL    HW159555  11.692  10.385  12.262 -1.7588  2.0002 -2.3380
17906SOL    HW259556  11.578  10.416  12.356 -0.4034  1.5171 -0.4694
17907SOL     OW59557   8.746   5.986   8.602 -0.3005  0.3379  0.0751
17907SOL    HW159558   8.709   5.899   8.594  0.6991 -0.0681 -0.2884
17907SOL    HW259559   8.691   6.041   8.546 -1.6549  0.2005  1.2110
17908SOL     OW59560   5.516   6.906   0.878 -0.4353 -0.0541  0.2685
17908SOL    HW159561   5.505   6.890   0.784 -1.1469  0.5996  0.2288
17908SOL    HW259562   5.598   6.863   0.900 -1.7973 -3.0541  0.0023
17909SOL     OW59563   1.041   6.439   6.592  0.3883  0.2259 -0.3269
17909SOL    HW159564   0.984   6.481   6.657  1.4331 -0.7650  1.3224
17909SOL    HW259565   1.008   6.350   6.586  0.7941  0.0874 -0.5307
17910SOL     OW59566   0.762   2.023   4.218 -0.2034 -0.4330 -0.3137
17910SOL    HW159567   0.770   1.963   4.292 -1.5820  0.2185  0.4020
17910SOL    HW259568   0.673   2.058   4.225  0.3883  1.3324 -0.9685
17911SOL     OW59569   4.618   4.590   4.403 -0.4221 -0.2448  0.2451
17911SOL    HW159570   4.625   4.529   4.329  0.4111 -0.1369  0.2160
17911SOL    HW259571   4.708   4.598   4.435 -0.6624  0.2901  0.8050
17912SOL     OW59572  10.648   9.941   5.993 -0.3242  0.5772  0.3409
17912SOL    HW159573  10.585   9.960   5.923  1.0753  1.4687 -0.7180
17912SOL    HW259574  10.687  10.026   6.013  0.8252 -0.0287  0.7090
17913SOL     OW59575  10.196   2.715   3.068  0.1994 -0.0329  0.0416
17913SOL    HW159576  10.267   2.708   3.004  0.7365 -0.2373  0.6399
17913SOL    HW259577  10.119   2.680   3.023  0.1876  1.2867 -1.0295
17914SOL     OW59578   9.792   0.432  10.207  0.1484  0.7348  1.0142
17914SOL    HW159579   9.884   0.461  10.209  0.7321 -0.9633  0.7345
17914SOL    HW259580   9.781   0.395  10.120 -1.0676  1.6211  0.7651
17915SOL     OW59581   8.528   6.221  11.940  0.3596  0.1078  0.1310
17915SOL    HW159582   8.555   6.299  11.988  0.7086 -0.6202  1.1585
17915SOL    HW259583   8.459   6.182  11.994 -0.6989  0.3654 -1.0015
17916SOL     OW59584  10.733  10.187   6.111 -0.0084 -0.1571  0.1823
17916SOL    HW159585  10.766  10.251   6.049  0.9966 -1.4964 -0.7339
17916SOL    HW259586  10.654  10.227   6.148 -0.4122  0.8448 -1.6420
17917SOL     OW59587   3.174  11.912   4.591 -0.4539 -0.6926 -0.0146
17917SOL    HW159588   3.130  11.829   4.605  0.0949 -1.3041 -1.7178
17917SOL    HW259589   3.207  11.908   4.501  0.4638  0.9520  0.1942
17918SOL     OW59590   1.867   8.475   4.877  0.3084 -0.5235 -0.0262
17918SOL    HW159591   1.794   8.481   4.814 -0.1066 -2.9380  0.1310
17918SOL    HW259592   1.937   8.526   4.837 -1.0960  0.9272 -0.7288
17919SOL     OW59593   1.292  11.447   4.631 -0.9532  0.4671  0.2700
17919SOL    HW159594   1.360  11.401   4.581 -2.3787 -1.7945  0.2739
17919SOL    HW259595   1.301  11.412   4.720 -1.0466  1.4313  0.6617
17920SOL     OW59596   1.706   6.655   5.012 -0.0547  0.4012  0.1044
17920SOL    HW159597   1.688   6.694   4.926  0.5426 -0.3965 -0.4042
17920SOL    HW259598   1.623   6.616   5.038  0.5386 -2.4434 -1.7901
17921SOL     OW59599   6.059   8.245   1.526 -0.7912 -0.0005  0.3258
17921SOL    HW159600   5.979   8.229   1.477 -0.0547 -0.1261 -0.8629
17921SOL    HW259601   6.092   8.158   1.549 -0.9028  0.0478  0.6818
17922SOL     OW59602   8.807   6.523   4.037  0.2002  0.9169 -0.5480
17922SOL    HW159603   8.734   6.536   4.097  0.2301  0.3382 -0.3770
17922SOL    HW259604   8.789   6.437   3.997  1.8798 -0.2653  1.0825
17923SOL     OW59605   1.243   5.193  11.406 -0.1013  0.1231  0.2673
17923SOL    HW159606   1.166   5.240  11.438 -0.7426 -0.5924 -0.1983
17923SOL    HW259607   1.317   5.242  11.442 -0.7551  1.0596  0.3965
17924SOL     OW59608  11.610   7.047   9.580 -0.1668  0.5665 -0.1288
17924SOL    HW159609  11.605   6.956   9.550 -0.2247  0.3108  0.6413
17924SOL    HW259610  11.611   7.098   9.499  2.6450 -0.2043 -0.6681
17925SOL     OW59611   4.338  11.067   9.253  0.8682 -0.5545  0.0354
17925SOL    HW159612   4.301  11.140   9.203  0.0316 -0.2457  1.0549
17925SOL    HW259613   4.405  11.107   9.308  0.3158 -0.5168  0.6940
17926SOL     OW59614  12.319   7.039   8.370  0.3549  0.1540  0.0278
17926SOL    HW159615  12.251   7.050   8.303  0.2536 -0.8451 -0.0419
17926SOL    HW259616  12.394   7.005   8.323  0.3138 -0.4685  0.4078
17927SOL     OW59617   6.748   5.741  10.890  0.3115 -0.1153  0.3744
17927SOL    HW159618   6.769   5.649  10.905 -1.3861 -0.2384  2.4116
17927SOL    HW259619   6.653   5.745  10.888  0.3419  1.4114 -1.2839
17928SOL     OW59620   7.446   3.445   5.856  0.4789  0.2418  0.0583
17928SOL    HW159621   7.426   3.403   5.772 -1.1060  0.6888  0.1777
17928SOL    HW259622   7.537   3.474   5.847  0.4282  0.0468 -1.4058
17929SOL     OW59623   2.627   8.047  11.178  0.3758 -0.4051 -0.1114
17929SOL    HW159624   2.706   7.994  11.169  1.0452  0.5967 -0.2369
17929SOL    HW259625   2.652   8.120  11.234 -0.1013  0.5927 -1.1510
17930SOL     OW59626   7.683   5.634   1.005 -0.3122  0.1409 -0.4268
17930SOL    HW159627   7.716   5.583   0.931  0.6913 -0.0353  0.1199
17930SOL    HW259628   7.684   5.725   0.974 -0.9216 -0.0414 -0.9854
17931SOL     OW59629   9.437   9.995   1.823  0.4451  0.4866  0.1749
17931SOL    HW159630   9.464  10.086   1.836  1.3351  0.2873 -0.1867
17931SOL    HW259631   9.513   9.953   1.782  0.6660 -0.7999  1.7870
17932SOL     OW59632   7.570   7.215   1.620  0.3348 -0.1222  0.5898
17932SOL    HW159633   7.542   7.124   1.631  0.2379 -0.0738  0.7387
17932SOL    HW259634   7.657   7.220   1.660  1.2934 -0.6742 -1.3108
17933SOL     OW59635   5.181  10.449   3.038 -0.3751  0.3218 -0.1285
17933SOL    HW159636   5.202  10.541   3.052 -1.6501  0.3156  2.1564
17933SOL    HW259637   5.132  10.448   2.956 -0.0896  1.6176 -0.3407
17934SOL     OW59638   0.322   8.021   2.076  0.2392  0.4646  0.5179
17934SOL    HW159639   0.248   8.065   2.116 -0.0045 -0.4277  1.0722
17934SOL    HW259640   0.390   8.088   2.070 -0.7813  1.4560 -0.5457
17935SOL     OW59641   9.314   9.072  11.517 -0.1637 -0.0628 -1.0996
17935SOL    HW159642   9.350   9.088  11.604  1.7241  0.3792 -1.9204
17935SOL    HW259643   9.225   9.041  11.534 -0.1941  0.9498  0.9380
17936SOL     OW59644   2.212   3.852   1.583  0.1812  0.2672 -0.0100
17936SOL    HW159645   2.277   3.857   1.653  0.2519  0.6534 -0.0988
17936SOL    HW259646   2.263   3.840   1.503  0.0396 -1.6225  0.1389
17937SOL     OW59647   3.867   7.625   6.430 -0.0100 -0.1368 -0.3980
17937SOL    HW159648   3.808   7.624   6.506 -0.7492  1.1448 -0.9263
17937SOL    HW259649   3.952   7.600   6.466 -0.1180  1.4183  1.0903
17938SOL     OW59650   3.101   7.399   8.043 -0.3970 -0.8351  0.1554
17938SOL    HW159651   3.147   7.338   7.985  0.0838 -0.4328  0.1082
17938SOL    HW259652   3.031   7.346   8.082 -1.5609 -0.7987 -1.7629
17939SOL     OW59653   4.934   0.826   3.984 -0.1430 -0.1986  0.2510
17939SOL    HW159654   4.968   0.792   4.067 -0.2281  1.0593  0.8176
17939SOL    HW259655   5.000   0.802   3.919  0.9348  0.5650  1.0277
17940SOL     OW59656   9.615   6.539   4.817  0.4918 -0.1996 -0.5109
17940SOL    HW159657   9.598   6.619   4.767  3.2848 -0.1776 -1.6437
17940SOL    HW259658   9.634   6.472   4.750 -0.3028 -1.4248  0.4460
17941SOL     OW59659   1.987   3.140   4.479 -0.0572 -0.5752  0.0432
17941SOL    HW159660   2.005   3.056   4.436  0.1357 -0.7618  0.4852
17941SOL    HW259661   1.905   3.169   4.438  0.5409 -0.3454 -1.0436
17942SOL     OW59662   2.659  11.662  11.626 -0.2397 -0.5693  0.3772
17942SOL    HW159663   2.571  11.685  11.597  1.0553  0.7000 -3.0403
17942SOL    HW259664   2.683  11.734  11.684 -0.5563  0.5104 -0.7730
17943SOL     OW59665   5.022   3.190   2.961  0.2675  0.2088 -0.1364
17943SOL    HW159666   5.087   3.259   2.956 -0.6537  1.0524 -0.8567
17943SOL    HW259667   5.011   3.160   2.870 -0.7089  0.4346 -0.1049
17944SOL     OW59668  11.784   3.952   6.508 -0.3737  0.0971 -0.7573
17944SOL    HW159669  11.791   3.958   6.604  0.7069 -1.5333 -0.6834
17944SOL    HW259670  11.856   4.006   6.476  1.1443 -1.6825 -0.5175
17945SOL     OW59671  10.757   1.795  10.532 -0.2210 -0.7624 -0.1468
17945SOL    HW159672  10.680   1.844  10.505 -0.6963 -0.4812  1.5995
17945SOL    HW259673  10.791   1.756  10.451 -0.1331  1.9479 -1.5297
17946SOL     OW59674   1.866  10.604   9.305  0.6486 -0.3222 -0.3550
17946SOL    HW159675   1.814  10.559   9.372 -0.5188  0.7204 -0.5316
17946SOL    HW259676   1.860  10.547   9.228 -0.3274 -0.1820 -0.4007
17947SOL     OW59677   5.529   1.340   4.448  0.1693  0.2676 -0.0160
17947SOL    HW159678   5.505   1.353   4.539 -1.4827 -1.1785 -0.1914
17947SOL    HW259679   5.556   1.248   4.442 -0.3258  0.1683 -1.0772
17948SOL     OW59680   8.869  11.062   8.065 -0.1674 -0.1099  0.6329
17948SOL    HW159681   8.797  11.019   8.111 -0.7070  0.7060  0.5647
17948SOL    HW259682   8.888  11.140   8.118  0.3796 -0.0891  0.4174
17949SOL     OW59683   6.853   8.410  10.625  0.6237  0.8146  0.0500
17949SOL    HW159684   6.914   8.373  10.561  0.4725  0.9732 -0.1834
17949SOL    HW259685   6.777   8.352  10.623  1.2194 -0.0532  1.1641
17950SOL     OW59686   3.618   7.315   8.281  0.1752 -0.5527  0.5840
17950SOL    HW159687   3.553   7.273   8.224 -2.0184  0.4293  2.2462
17950SOL    HW259688   3.670   7.368   8.222 -0.8939 -0.9236 -0.7522
17951SOL     OW59689   4.638   0.864   3.457  0.3081 -0.0379  0.4935
17951SOL    HW159690   4.731   0.876   3.476  0.5345 -0.7856 -0.0912
17951SOL    HW259691   4.629   0.886   3.364 -0.6399  2.7758  1.1321
17952SOL     OW59692   0.240   9.450   0.866 -0.2442  0.4698  0.0632
17952SOL    HW159693   0.182   9.485   0.799 -2.1248  1.1079  1.9027
17952SOL    HW259694   0.321   9.500   0.857 -1.2870  2.1805 -0.2479
17953SOL     OW59695   2.407   1.635   2.604  0.2460 -0.4304  0.5637
17953SOL    HW159696   2.394   1.540   2.616  0.4516 -0.3404  1.6055
17953SOL    HW259697   2.474   1.641   2.536  0.0199 -1.0336  0.2800
17954SOL     OW59698   0.287   5.052   9.215 -0.7834  0.4354  0.4300
17954SOL    HW159699   0.323   5.140   9.197 -1.9151  0.8632  0.1780
17954SOL    HW259700   0.275   5.014   9.128  1.1544 -0.6144  0.5561
17955SOL     OW59701   4.033   6.102   6.851  0.3144  0.2502  0.4318
17955SOL    HW159702   3.939   6.097   6.834  0.3690 -1.4635  0.4206
17955SOL    HW259703   4.052   6.026   6.907  1.4113  1.5428  1.9095
17956SOL     OW59704   9.886   2.832   3.987 -0.8086 -0.3231  0.7592
17956SOL    HW159705   9.900   2.830   3.893 -1.0634 -0.3775  0.7221
17956SOL    HW259706   9.951   2.771   4.023 -0.9868 -0.6193  0.5833
17957SOL     OW59707  11.188   5.677   4.300  0.1812 -0.3678  0.5549
17957SOL    HW159708  11.161   5.768   4.316  0.1223 -0.0267 -1.2761
17957SOL    HW259709  11.121   5.624   4.344 -1.0483  0.4822 -0.2196
17958SOL     OW59710   8.950   5.261   5.264  0.5452 -0.1254  0.2013
17958SOL    HW159711   8.932   5.336   5.208  0.3989  0.7425  1.3685
17958SOL    HW259712   8.864   5.219   5.276  0.1181  1.0702  1.6549
17959SOL     OW59713   5.652   2.978   3.586  0.1579 -0.2666 -0.1689
17959SOL    HW159714   5.612   2.939   3.508  1.1136  1.2067 -1.4540
17959SOL    HW259715   5.726   3.029   3.552 -0.5459  1.9991  1.4696
17960SOL     OW59716   3.379   9.257  11.565  0.0614 -0.3167 -0.0384
17960SOL    HW159717   3.352   9.313  11.638  1.6799  2.2516 -1.2670
17960SOL    HW259718   3.456   9.210  11.599  1.1845  1.3255 -0.2093
17961SOL     OW59719   2.423  10.455   7.058 -0.2411 -0.1406  0.7000
17961SOL    HW159720   2.430  10.386   6.991  0.2963 -0.6882  1.3028
17961SOL    HW259721   2.431  10.408   7.141  1.9057  0.8305  1.1022
17962SOL     OW59722   1.830  11.605   2.083  0.0907  0.3609 -0.5238
17962SOL    HW159723   1.896  11.658   2.127 -0.3787 -0.1080  0.8125
17962SOL    HW259724   1.876  11.563   2.011  1.3274 -0.1882  0.5602
17963SOL     OW59725   8.715   6.933   9.433 -0.0944 -0.1550  0.1351
17963SOL    HW159726   8.790   6.989   9.413  0.0439 -1.1094 -2.3641
17963SOL    HW259727   8.639   6.983   9.402 -0.1804 -0.4497 -0.1304
17964SOL     OW59728  11.890   1.341   7.331 -0.6789 -0.1983  0.0256
17964SOL    HW159729  11.900   1.317   7.423 -3.1595 -0.4087  0.2927
17964SOL    HW259730  11.854   1.429   7.332 -0.2807 -0.0168 -0.7686
17965SOL     OW59731   4.437   0.927   7.087  1.0290 -0.3933  0.4454
17965SOL    HW159732   4.469   0.925   7.177  0.5460 -0.0334  0.6319
17965SOL    HW259733   4.389   1.010   7.081  2.4052  0.3574 -0.6158
17966SOL     OW59734   1.938   2.533   6.317  0.2874 -0.3072  0.2472
17966SOL    HW159735   1.968   2.446   6.291  0.1622 -0.6627  1.2471
17966SOL    HW259736   1.974   2.592   6.251 -1.5513 -1.3363 -1.8206
17967SOL     OW59737   6.122   7.309   4.828 -0.4995 -0.4585  0.0679
17967SOL    HW159738   6.143   7.339   4.740  0.2194 -1.5364 -0.1508
17967SOL    HW259739   6.043   7.255   4.817 -0.2169 -0.8666  0.0251
17968SOL     OW59740   5.180   3.370   1.240  0.3263 -0.1924  0.1146
17968SOL    HW159741   5.187   3.443   1.301  1.2880  0.9172 -1.2572
17968SOL    HW259742   5.099   3.387   1.191  0.6551  0.0822 -0.3432
17969SOL     OW59743   3.271   2.864  10.467 -0.3497  0.1734 -0.8955
17969SOL    HW159744   3.352   2.895  10.507 -0.5332  0.1132 -0.4771
17969SOL    HW259745   3.298   2.833  10.380  0.4014 -1.4951 -0.1206
17970SOL     OW59746   8.035   5.904   4.705 -0.2703  0.0602  0.4713
17970SOL    HW159747   7.964   5.841   4.710  0.9026 -1.3083  0.4500
17970SOL    HW259748   8.063   5.902   4.613 -0.8516  1.3785  0.2290
17971SOL     OW59749   7.599  11.814  10.046 -0.1336 -0.0801 -0.0846
17971SOL    HW159750   7.638  11.744  10.098  1.5504  0.1452 -0.9885
17971SOL    HW259751   7.516  11.777  10.015 -0.2290 -0.9189  1.1025
17972SOL     OW59752  10.869   3.294  12.263 -0.5671 -0.1562  0.1016
17972SOL    HW159753  10.846   3.244  12.185 -1.0982  0.6641 -0.2768
17972SOL    HW259754  10.787   3.303  12.311 -0.0985 -1.4016  1.2262
17973SOL     OW59755   4.425   8.379   1.452 -0.6122  0.2135  0.3735
17973SOL    HW159756   4.507   8.427   1.450 -0.7144  0.4259  1.0054
17973SOL    HW259757   4.434   8.313   1.383  1.2731 -1.7060  2.3165
17974SOL     OW59758   7.132  11.177   8.056  0.1378  0.0544 -0.5980
17974SOL    HW159759   7.133  11.270   8.079 -2.6491 -0.2071  1.0550
17974SOL    HW259760   7.074  11.172   7.980  1.1891 -0.2554 -1.4049
17975SOL     OW59761  10.404   4.706   0.941 -0.2844 -0.7569 -0.1603
17975SOL    HW159762  10.437   4.710   1.031  0.5707 -1.2083 -0.4475
17975SOL    HW259763  10.445   4.781   0.898  1.2021 -1.8791 -0.7760
17976SOL     OW59764   6.129   6.679   7.719 -0.4095  0.0064 -0.6533
17976SOL    HW159765   6.105   6.595   7.680  0.7082 -0.4174 -0.4673
17976SOL    HW259766   6.181   6.656   7.796  0.2888  0.8683 -0.8500
17977SOL     OW59767   0.475   3.681   0.762  0.1379  0.1139  0.1000
17977SOL    HW159768   0.529   3.729   0.699  1.8963 -1.4782  0.3202
17977SOL    HW259769   0.396   3.734   0.769  0.5677  1.2154 -2.1751
17978SOL     OW59770   9.756   8.510   0.403  0.1261 -0.5215 -0.2925
17978SOL    HW159771   9.752   8.435   0.462  0.4070 -0.3272 -0.0226
17978SOL    HW259772   9.742   8.474   0.316 -0.1425 -0.8326 -0.1209
17979SOL     OW59773  10.507   2.104  11.680 -0.2032 -0.3753  1.0371
17979SOL    HW159774  10.599   2.097  11.706  0.0496 -1.5525 -0.0644
17979SOL    HW259775  10.474   2.180  11.728  1.3891  0.1809  1.3085
17980SOL     OW59776   6.271   1.398   7.309  0.2433 -0.3189  0.0819
17980SOL    HW159777   6.246   1.428   7.396  1.7365  0.7885  0.1590
17980SOL    HW259778   6.242   1.306   7.307  0.2275 -0.3930  1.7597
17981SOL     OW59779   7.840   0.630  10.842  0.3929 -0.0980 -0.1073
17981SOL    HW159780   7.746   0.644  10.831  0.4393  1.0866  0.7835
17981SOL    HW259781   7.880   0.703  10.795  0.8520 -0.2354  0.0733
17982SOL     OW59782  10.601   6.138   5.187  0.1355 -0.1762 -0.4159
17982SOL    HW159783  10.596   6.052   5.228  0.1851 -0.4246 -0.9192
17982SOL    HW259784  10.510   6.168   5.183  0.0475 -0.4815 -0.8027
17983SOL     OW59785   3.399   9.611   1.380  0.2990 -0.4008 -0.2216
17983SOL    HW159786   3.326   9.622   1.319  0.8945  0.0626 -0.8799
17983SOL    HW259787   3.367   9.646   1.463 -0.1165  0.1397 -0.5998
17984SOL     OW59788   8.365   8.636   6.978  0.2243 -0.2234  0.0082
17984SOL    HW159789   8.388   8.708   6.919 -0.5400  1.4001  1.5782
17984SOL    HW259790   8.409   8.659   7.060 -1.1481 -0.8126  0.9442
17985SOL     OW59791   2.435   5.539   9.531  0.5550 -0.4941  0.3258
17985SOL    HW159792   2.509   5.482   9.511  1.0999  0.2701  0.1254
17985SOL    HW259793   2.366   5.512   9.470  2.1307  1.7226 -2.6724
17986SOL     OW59794   6.711   6.758   6.187 -0.2120  0.0556  0.2465
17986SOL    HW159795   6.762   6.739   6.108 -0.1368  0.4818  0.1924
17986SOL    HW259796   6.777   6.775   6.254 -0.2861  1.0071  0.0787
17987SOL     OW59797  12.007   5.896   4.255 -0.9682  0.1586  0.0017
17987SOL    HW159798  11.950   5.821   4.242  0.9982 -1.5858  0.8649
17987SOL    HW259799  11.967   5.944   4.328 -2.0088 -0.3052 -0.2471
17988SOL     OW59800   7.442   9.611   5.276 -0.1361  0.1026 -0.3841
17988SOL    HW159801   7.355   9.607   5.315 -1.0443 -1.7915 -2.4368
17988SOL    HW259802   7.446   9.698   5.236 -1.3534 -0.0322 -0.8351
17989SOL     OW59803   5.682   8.828  11.565  0.0525  0.2677 -0.5547
17989SOL    HW159804   5.677   8.769  11.640 -1.8472  0.0188 -0.8164
17989SOL    HW259805   5.640   8.779  11.494 -0.1298  1.3225 -1.1965
17990SOL     OW59806   8.977   2.347   2.636 -0.0182  0.7854 -0.3212
17990SOL    HW159807   9.061   2.334   2.679 -0.5083  0.8475  0.6748
17990SOL    HW259808   8.999   2.388   2.552  0.8588  2.2406  0.5765
17991SOL     OW59809  10.702   8.311  10.971 -0.4153  0.1085  0.0503
17991SOL    HW159810  10.712   8.386  10.913 -0.8280 -0.0173 -0.1842
17991SOL    HW259811  10.608   8.301  10.982 -0.3636 -0.3936  0.0559
17992SOL     OW59812   7.959  12.173   6.901 -0.2948  0.4362 -0.1197
17992SOL    HW159813   8.054  12.187   6.905  0.3845 -3.0312 -0.7620
17992SOL    HW259814   7.936  12.198   6.811 -0.2919  2.3383  0.3530
17993SOL     OW59815  11.178   6.544   7.033  0.0940 -0.2605 -0.0206
17993SOL    HW159816  11.210   6.474   7.091 -0.2115  0.3785  0.9378
17993SOL    HW259817  11.257   6.586   7.001  0.2930  1.0424  2.0078
17994SOL     OW59818   9.400  10.106   1.244  0.1222  0.1728 -0.2171
17994SOL    HW159819   9.324  10.048   1.252 -0.5894  1.0229 -0.6765
17994SOL    HW259820   9.432  10.114   1.334 -1.1599  0.8852  0.2093
17995SOL     OW59821   4.455   6.047   6.577 -0.6550 -0.1064 -0.7694
17995SOL    HW159822   4.443   6.140   6.593 -1.7736 -0.5739  1.5693
17995SOL    HW259823   4.397   6.027   6.503  0.0217  1.1144 -1.6544
17996SOL     OW59824   9.575   3.201  10.964 -0.5032  0.5009 -0.0777
17996SOL    HW159825   9.599   3.281  10.917  1.1121 -0.3844 -0.8298
17996SOL    HW259826   9.620   3.131  10.917 -2.0037 -0.8971  0.4714
17997SOL     OW59827   1.653   1.643   4.491 -0.1765  0.1427 -0.2267
17997SOL    HW159828   1.589   1.596   4.438  0.7726 -1.9391  0.3913
17997SOL    HW259829   1.729   1.653   4.434 -0.1324  0.3206 -0.1374
17998SOL     OW59830   5.049   9.245  11.947  0.3096 -0.3145 -0.2389
17998SOL    HW159831   4.970   9.216  11.993  0.5438 -1.1725 -0.3634
17998SOL    HW259832   5.016   9.295  11.873 -0.0889  0.3740  0.3910
17999SOL     OW59833   6.621   6.101   8.242  0.0318  0.1745 -0.3678
17999SOL    HW159834   6.699   6.150   8.214 -0.8957  1.1904 -1.2749
17999SOL    HW259835   6.556   6.118   8.173 -0.6784 -1.4881 -0.1554
18000SOL     OW59836   7.733   2.582   0.586  0.0986  0.1208  0.0055
18000SOL    HW159837   7.683   2.535   0.653 -1.2518  1.8565  0.2855
18000SOL    HW259838   7.670   2.642   0.546  1.1461 -0.0464 -2.0605
18001SOL     OW59839   8.133   0.196   1.677 -0.1439 -0.4397 -0.4386
18001SOL    HW159840   8.129   0.112   1.722  0.1872  1.0693  2.6370
18001SOL    HW259841   8.212   0.238   1.711 -0.8371  1.5391 -1.1185
18002SOL     OW59842   1.976   5.035  10.128 -0.0836 -0.8393  0.2532
18002SOL    HW159843   1.950   5.127  10.124  1.5308 -0.3564 -0.0064
18002SOL    HW259844   2.027   5.027  10.208  2.0223 -0.8382 -1.0155
18003SOL     OW59845   3.941   3.008   6.177  0.3546 -0.2409  0.1064
18003SOL    HW159846   3.904   2.926   6.209  2.6220 -1.1297  0.6735
18003SOL    HW259847   4.033   2.987   6.162  0.7922  1.9924 -0.5789
18004SOL     OW59848   7.878   2.649   6.261  0.3097  0.0877  0.0839
18004SOL    HW159849   7.847   2.563   6.232  2.1817 -0.4968 -0.2874
18004SOL    HW259850   7.876   2.644   6.357  1.0094 -0.6268  0.0760
18005SOL     OW59851  12.037  10.899  10.264 -0.6676 -0.2725 -0.3063
18005SOL    HW159852  12.123  10.916  10.303 -0.4515 -0.3782 -0.7215
18005SOL    HW259853  12.050  10.917  10.170 -0.5674 -2.2084 -0.6948
18006SOL     OW59854   6.649   9.257   6.401  0.3554  0.1245 -0.4574
18006SOL    HW159855   6.687   9.184   6.449  1.0356  0.4787 -0.4363
18006SOL    HW259856   6.617   9.317   6.469  1.1787  0.5534 -0.4345
18007SOL     OW59857   7.684   3.216  11.274 -0.7226 -0.0675 -0.1205
18007SOL    HW159858   7.615   3.151  11.256 -0.9780  0.2012 -0.1117
18007SOL    HW259859   7.696   3.211  11.369 -2.2323  1.3757  0.2010
18008SOL     OW59860   3.126   4.475  11.914 -0.3096  0.6452 -0.0846
18008SOL    HW159861   3.212   4.470  11.873  0.5303  1.0813  1.5227
18008SOL    HW259862   3.144   4.467  12.008 -2.1695 -0.6740  0.2067
18009SOL     OW59863   2.400   4.581   9.694  0.2017  0.2728 -0.0532
18009SOL    HW159864   2.420   4.495   9.656  0.9402  0.6503 -0.5199
18009SOL    HW259865   2.478   4.604   9.743 -0.2390  0.4005  0.5942
18010SOL     OW59866  12.083   0.719  12.137  0.2571 -0.1242 -0.6551
18010SOL    HW159867  12.124   0.653  12.082  2.3137  0.9276 -0.4770
18010SOL    HW259868  12.044   0.781  12.074  3.7162  1.7907 -1.1936
18011SOL     OW59869   3.868   4.380   1.186 -0.2789  0.4946  0.2864
18011SOL    HW159870   3.963   4.370   1.200 -0.1015  1.7251  0.1070
18011SOL    HW259871   3.854   4.354   1.095  0.2096  2.0496 -0.2659
18012SOL     OW59872   2.649   7.237   6.295  0.4755 -0.0652 -0.0780
18012SOL    HW159873   2.658   7.267   6.205 -1.2239  0.2767 -0.1675
18012SOL    HW259874   2.570   7.281   6.327  0.4049 -1.0767  1.2030
18013SOL     OW59875  11.380   6.061   2.673 -0.4915 -0.1737 -0.1230
18013SOL    HW159876  11.353   5.970   2.688  1.7883 -0.7516  1.0180
18013SOL    HW259877  11.298   6.110   2.671 -1.6896 -1.8991  1.8510
18014SOL     OW59878   7.865   2.164   9.609 -0.5846  0.7474  0.0805
18014SOL    HW159879   7.781   2.172   9.563 -1.3797  2.3757  1.7249
18014SOL    HW259880   7.897   2.077   9.584 -1.5597  1.0260 -2.4876
18015SOL     OW59881   2.197   6.097   8.808  0.5142  0.1281  0.1545
18015SOL    HW159882   2.120   6.146   8.836  0.3902 -0.5316  1.0153
18015SOL    HW259883   2.224   6.138   8.726  0.8185  2.0504  1.1767
18016SOL     OW59884   4.923   1.512   4.511 -0.0569 -0.2465 -0.2798
18016SOL    HW159885   4.892   1.573   4.578  0.6011  0.0020 -0.1938
18016SOL    HW259886   5.017   1.527   4.507 -0.2016  0.4014 -1.9121
18017SOL     OW59887   0.470  10.579   3.970  0.3039 -0.2969  0.6805
18017SOL    HW159888   0.419  10.651   4.007  0.0973 -0.3302  0.4701
18017SOL    HW259889   0.406  10.527   3.921  0.6829  0.1322 -0.2925
18018SOL     OW59890   8.180  11.123   1.149 -0.1141  0.2423 -0.3490
18018SOL    HW159891   8.268  11.146   1.181 -0.3437  1.2086 -0.3809
18018SOL    HW259892   8.156  11.046   1.201  0.0005  1.0741  1.0028
18019SOL     OW59893   5.878   2.382   5.081  0.0051  0.1088  0.3230
18019SOL    HW159894   5.788   2.414   5.078  0.0219  0.2048 -3.2412
18019SOL    HW259895   5.873   2.292   5.048  1.2227  0.1748 -0.0941
18020SOL     OW59896  12.215   8.909   6.757 -0.4513  0.1865 -0.1169
18020SOL    HW159897  12.309   8.894   6.748 -0.4680  0.3037 -0.5297
18020SOL    HW259898  12.174   8.837   6.709 -0.5706  0.1511  0.0392
18021SOL     OW59899  10.199   2.475   5.668  0.0086  0.8772  0.7265
18021SOL    HW159900  10.118   2.428   5.684 -0.3840  1.5283  0.7083
18021SOL    HW259901  10.183   2.563   5.702  0.8552  0.9016  1.0989
18022SOL     OW59902   6.926   9.701   5.879 -0.0194  0.1446  0.0182
18022SOL    HW159903   6.920   9.608   5.901  0.6840 -0.0717 -0.6762
18022SOL    HW259904   6.881   9.709   5.795  1.1600  0.1659 -0.6277
18023SOL     OW59905   0.033   7.388   2.877  0.4107  0.6006 -0.3508
18023SOL    HW159906   0.060   7.393   2.969  0.6809 -0.1983 -0.3769
18023SOL    HW259907   0.093   7.323   2.838  0.3748  1.0162 -1.1167
18024SOL     OW59908   5.966   4.138   7.203  0.3493 -0.5377  0.6577
18024SOL    HW159909   5.960   4.045   7.225  0.3535 -0.3290  1.6034
18024SOL    HW259910   6.030   4.142   7.132 -0.6251 -1.3845 -0.3023
18025SOL     OW59911  12.127   8.341  10.989 -0.8112  0.2427 -0.0747
18025SOL    HW159912  12.167   8.361  11.073  0.1529 -0.3174 -0.3747
18025SOL    HW259913  12.131   8.423  10.940 -2.4071  0.8744  0.8015
18026SOL     OW59914  11.451   9.927   0.340  0.4450 -0.1196  0.0697
18026SOL    HW159915  11.461  10.003   0.396 -2.2048 -0.4067  1.1078
18026SOL    HW259916  11.477   9.852   0.394  0.9206 -0.1517 -0.1947
18027SOL     OW59917   1.733  12.017   2.416 -0.3211  0.9817 -0.2068
18027SOL    HW159918   1.711  12.049   2.329 -0.5368  0.1378 -0.4689
18027SOL    HW259919   1.651  11.982   2.451 -0.3862  1.8849  0.5965
18028SOL     OW59920  11.872  11.874   9.022  0.2573  0.0563 -0.1943
18028SOL    HW159921  11.803  11.941   9.020 -0.2406 -0.4575 -1.1617
18028SOL    HW259922  11.940  11.911   9.078  0.1280  1.5014 -0.9503
18029SOL     OW59923   1.053   3.443  10.076  0.1412  0.0846 -1.1580
18029SOL    HW159924   1.022   3.415  10.162 -0.5436 -1.2717 -1.8253
18029SOL    HW259925   1.137   3.397  10.065  0.8924  1.2824 -0.6925
18030SOL     OW59926   2.004   6.147   7.559  0.1928  0.5006 -0.3443
18030SOL    HW159927   2.052   6.067   7.542 -1.1049 -0.4816  0.4433
18030SOL    HW259928   2.066   6.204   7.605  1.3175  0.2311 -1.4794
18031SOL     OW59929   9.811   9.059   0.650  0.2720  0.2168  0.2927
18031SOL    HW159930   9.903   9.034   0.662  0.4099 -0.4249 -1.7808
18031SOL    HW259931   9.811   9.154   0.653  1.1897  0.2664 -0.7775
18032SOL     OW59932   7.454   9.694   1.290  0.2816  0.3426  0.6315
18032SOL    HW159933   7.465   9.600   1.277 -1.3686  0.2884 -0.6750
18032SOL    HW259934   7.543   9.726   1.306  1.4141 -0.9473 -2.4009
18033SOL     OW59935   0.846   6.680  11.561 -0.3227 -0.1892  0.1934
18033SOL    HW159936   0.850   6.593  11.522 -0.9859 -0.3584  0.4885
18033SOL    HW259937   0.755   6.690  11.588  0.3507 -0.7041  3.0741
18034SOL     OW59938  11.315  12.268   2.721 -0.1424  0.0534  0.2676
18034SOL    HW159939  11.305  12.182   2.681 -2.1460  0.4198 -0.1218
18034SOL    HW259940  11.226  12.301   2.730  0.5952  2.3318 -0.1289
18035SOL     OW59941   6.465   5.832   1.781 -0.2091  0.0139 -0.4824
18035SOL    HW159942   6.419   5.808   1.701 -0.9615 -1.5728  0.3842
18035SOL    HW259943   6.395   5.845   1.846  0.4613 -0.4058  0.3424
18036SOL     OW59944  10.371   0.668   2.740  0.0897 -0.0952 -0.1443
18036SOL    HW159945  10.320   0.679   2.820  1.0555 -0.7864  0.5852
18036SOL    HW259946  10.461   0.689   2.765  0.5889 -1.3567 -0.7485
18037SOL     OW59947   3.479  10.083   1.222 -0.8391  0.0331  0.5308
18037SOL    HW159948   3.555  10.087   1.280 -1.3426  1.2122  1.1386
18037SOL    HW259949   3.407  10.057   1.279 -1.3548  1.2865  0.4720
18038SOL     OW59950  10.045   8.428   5.746 -0.2539  0.0060  0.1572
18038SOL    HW159951  10.086   8.440   5.832 -1.2428  1.3510  0.4714
18038SOL    HW259952  10.005   8.513   5.727 -1.7501 -0.8696 -0.7390
18039SOL     OW59953  11.569   2.310  11.426  0.1248 -0.0943 -0.0213
18039SOL    HW159954  11.575   2.233  11.483  0.6607 -0.6958 -0.8620
18039SOL    HW259955  11.647   2.305  11.370  0.8993  1.8229  0.8039
18040SOL     OW59956   3.975   2.729  10.655 -0.0183  0.6758 -0.5141
18040SOL    HW159957   4.045   2.725  10.721 -0.4736 -1.6966 -0.0660
18040SOL    HW259958   4.006   2.792  10.590  2.7800 -0.5856 -0.5417
18041SOL     OW59959   5.172   3.502   3.734 -0.5067 -0.3034 -0.1741
18041SOL    HW159960   5.142   3.450   3.808  0.2780  0.8996  1.0278
18041SOL    HW259961   5.238   3.447   3.692 -0.1593 -0.5612  0.6884
18042SOL     OW59962  11.066   5.678   4.891  0.1577 -0.2874  0.0255
18042SOL    HW159963  10.994   5.676   4.828 -0.1877  0.7084  0.3715
18042SOL    HW259964  11.052   5.600   4.946  0.2975 -0.9992 -0.9198
18043SOL     OW59965   7.513  11.530   1.224 -0.3063 -0.3897  0.2596
18043SOL    HW159966   7.447  11.461   1.219  0.1174 -0.8435  0.8961
18043SOL    HW259967   7.596  11.486   1.213 -0.0916  0.1842 -0.5157
18044SOL     OW59968   7.118  11.949   5.567 -0.2732  0.3732  0.0419
18044SOL    HW159969   7.172  11.922   5.641  0.3115 -1.5221 -1.0112
18044SOL    HW259970   7.148  12.037   5.546  3.2860 -0.9466 -1.1538
18045SOL     OW59971  11.607   0.453   1.696  0.4669  0.2772  0.2483
18045SOL    HW159972  11.676   0.519   1.695 -0.0695  0.8424  0.1907
18045SOL    HW259973  11.590   0.438   1.788  1.7524 -1.0312  0.3138
18046SOL     OW59974   0.192   0.048   5.945 -0.3875 -0.6404  0.6852
18046SOL    HW159975   0.120   0.005   5.899  0.4997 -0.8665 -0.5586
18046SOL    HW259976   0.186   0.140   5.919  0.5115 -0.8850 -0.4722
18047SOL     OW59977   0.615   8.217  12.160  0.2660  0.1571  0.0806
18047SOL    HW159978   0.558   8.262  12.098  0.6757  0.1733 -0.2900
18047SOL    HW259979   0.599   8.260  12.244 -0.7934 -0.3093  0.1313
18048SOL     OW59980  10.205   4.032   2.990 -0.2326  0.4503 -0.2152
18048SOL    HW159981  10.260   4.108   2.970  0.1061  0.3443  0.3192
18048SOL    HW259982  10.236   3.964   2.930  0.9587  0.0527  0.8105
18049SOL     OW59983   9.391  11.120   4.247  0.4136  0.4547 -0.2927
18049SOL    HW159984   9.323  11.082   4.302 -1.3794  0.6909 -2.2188
18049SOL    HW259985   9.448  11.167   4.308 -0.6223 -0.5100  1.4868
18050SOL     OW59986   1.513   5.339  11.413 -0.2548 -0.4533  0.0130
18050SOL    HW159987   1.570   5.355  11.489 -2.3253  0.2692  1.5150
18050SOL    HW259988   1.521   5.419  11.361 -0.4539 -0.0375  0.6053
18051SOL     OW59989   8.458   1.025   0.782 -0.5563  0.3198 -0.0526
18051SOL    HW159990   8.491   1.024   0.692 -0.5900  2.2929 -0.1444
18051SOL    HW259991   8.468   0.935   0.812  2.2005  0.1865 -1.0488
18052SOL     OW59992   6.555  10.350   6.662 -0.1068  0.4422 -0.5525
18052SOL    HW159993   6.512  10.294   6.726 -1.1109  1.6631 -0.1074
18052SOL    HW259994   6.512  10.435   6.672  0.6340  1.0139 -1.9336
18053SOL     OW59995  11.240   1.030   3.556  0.5267  0.1103 -0.0914
18053SOL    HW159996  11.268   0.963   3.493 -2.2524  0.7814 -2.2498
18053SOL    HW259997  11.315   1.088   3.565  1.3086 -0.4834 -2.2098
18054SOL     OW59998   7.873   6.085   0.775  0.2420  0.9780  0.3987
18054SOL    HW159999   7.934   6.154   0.750  1.1451  0.3898  0.9073
18054SOL    HW260000   7.910   6.006   0.736  0.4092  0.4376  1.6095
18055SOL     OW60001   9.720   2.294  10.737 -0.4202 -0.0351  0.3683
18055SOL    HW160002   9.721   2.326  10.827  0.9347 -1.2080  0.8194
18055SOL    HW260003   9.685   2.367  10.686 -2.3250  0.2500  1.9618
18056SOL     OW60004   7.063   7.417  12.012  0.0984  0.7869  0.2498
18056SOL    HW160005   7.059   7.321  12.012 -1.8640  0.8406  0.2070
18056SOL    HW260006   7.126   7.439  11.944 -1.6242 -0.4271 -1.8271
18057SOL     OW60007   0.801  11.463   3.667  0.8077  0.2696 -0.1345
18057SOL    HW160008   0.799  11.473   3.572 -2.8809  3.1242 -0.0013
18057SOL    HW260009   0.722  11.412   3.687  0.8891  0.6971  1.4225
18058SOL     OW60010   4.477   2.696   8.047  0.3590  0.3564  0.0429
18058SOL    HW160011   4.558   2.649   8.027 -0.0959 -1.2152  1.5977
18058SOL    HW260012   4.408   2.643   8.007 -0.0996  0.0797  1.1666
18059SOL     OW60013   2.428   2.395   1.127 -0.7840  0.5841 -0.1612
18059SOL    HW160014   2.443   2.488   1.112 -0.8019  0.4126 -1.3073
18059SOL    HW260015   2.416   2.388   1.222 -1.1828  1.8004 -0.1045
18060SOL     OW60016   5.563   3.484  11.058  0.1989  0.1001 -0.1551
18060SOL    HW160017   5.478   3.447  11.081  0.8018 -1.1712  0.1013
18060SOL    HW260018   5.604   3.503  11.143  0.1642  0.7365 -0.2778
18061SOL     OW60019   6.741   2.348   6.088 -0.3365 -0.6737 -0.2350
18061SOL    HW160020   6.658   2.307   6.113  0.0271 -0.4575  1.4801
18061SOL    HW260021   6.806   2.279   6.098  0.1622  0.0378  1.8870
18062SOL     OW60022   6.618   2.409  11.994 -0.0889  0.0425  0.6282
18062SOL    HW160023   6.650   2.342  12.056  1.0287  0.1019  0.1343
18062SOL    HW260024   6.584   2.358  11.921  0.7766 -0.0019  0.2451
18063SOL     OW60025  10.952   8.415   2.238 -0.0526  0.3132  0.0727
18063SOL    HW160026  10.904   8.473   2.298 -0.1588  0.2977  0.0047
18063SOL    HW260027  10.977   8.340   2.292  1.2916  1.0392  0.5075
18064SOL     OW60028   4.135   3.860   9.274  0.2696 -0.3082  0.0320
18064SOL    HW160029   4.196   3.792   9.300 -1.2210 -1.8017 -0.2136
18064SOL    HW260030   4.072   3.816   9.218  0.2819  1.6770 -1.6627
18065SOL     OW60031   1.127   6.855   3.372  0.3239 -0.5161 -0.7656
18065SOL    HW160032   1.163   6.821   3.454 -0.1230 -0.7121 -0.6449
18065SOL    HW260033   1.096   6.777   3.325 -0.6533 -0.2897 -0.5154
18066SOL     OW60034  11.747   3.308   0.364  0.3578 -0.1433  0.3515
18066SOL    HW160035  11.766   3.398   0.389 -1.7967  0.6731 -0.6994
18066SOL    HW260036  11.653   3.298   0.382 -0.3092 -0.9471 -2.9660
18067SOL     OW60037   7.161   3.238   8.882 -0.2362  0.2084 -0.3207
18067SOL    HW160038   7.147   3.169   8.817 -1.6784 -0.6632  0.8422
18067SOL    HW260039   7.111   3.210   8.958  1.9835  0.8285  1.4705
18068SOL     OW60040   6.958   2.335   4.353  0.1304 -0.2786 -0.5068
18068SOL    HW160041   7.044   2.365   4.383 -0.3405  0.4957  0.1330
18068SOL    HW260042   6.968   2.240   4.343  0.6294 -0.4302  1.0886
18069SOL     OW60043   7.493   2.571   0.124  0.1044  0.1418 -0.7785
18069SOL    HW160044   7.488   2.555   0.218  1.8061  0.0627 -0.6602
18069SOL    HW260045   7.420   2.629   0.105 -2.4228 -2.5737 -0.0715
18070SOL     OW60046   0.413  11.359   9.122 -0.0466 -0.3278  0.1546
18070SOL    HW160047   0.408  11.265   9.135  0.7561 -0.4965 -0.5918
18070SOL    HW260048   0.329  11.383   9.084  1.2339 -1.5539 -4.0226
18071SOL     OW60049   0.401   7.752   2.172 -0.0497 -0.3787 -0.3133
18071SOL    HW160050   0.384   7.846   2.166  0.3506 -0.3397 -1.0139
18071SOL    HW260051   0.314   7.712   2.168 -0.2958 -0.0176  0.9513
18072SOL     OW60052   8.702   2.188   6.542  0.5126 -0.1911 -0.1687
18072SOL    HW160053   8.797   2.198   6.549  0.7923 -2.7600  0.3946
18072SOL    HW260054   8.685   2.174   6.449  0.7308 -0.2280 -0.2017
18073SOL     OW60055   1.428  11.834   2.825  0.5732  0.0554 -0.3938
18073SOL    HW160056   1.335  11.831   2.846  0.2524 -0.2412 -1.7728
18073SOL    HW260057   1.451  11.742   2.809  0.5530  0.3513 -2.2674
18074SOL     OW60058   0.861  12.313  11.341  0.1664 -0.3029  0.2193
18074SOL    HW160059   0.845  12.384  11.403  4.2480 -0.1549  1.4081
18074SOL    HW260060   0.840  12.350  11.255 -1.4128  0.9646  1.1038
18075SOL     OW60061   0.224   4.830   2.622  0.2422 -0.2190  0.1215
18075SOL    HW160062   0.283   4.893   2.665 -2.0168  1.8244  0.4267
18075SOL    HW260063   0.280   4.785   2.558  2.9970 -1.1360  2.8852
18076SOL     OW60064   8.623   3.061   2.645 -0.2691 -0.3549 -0.1814
18076SOL    HW160065   8.620   2.970   2.614 -1.5239 -0.0506 -1.0245
18076SOL    HW260066   8.664   3.055   2.731  0.7937 -1.5624 -0.7180
18077SOL     OW60067  11.975   4.112   7.648 -0.0880  0.2690  0.3566
18077SOL    HW160068  11.924   4.161   7.583  0.6507  0.7224  0.1045
18077SOL    HW260069  12.026   4.179   7.694  0.4178 -0.1879  0.4755
18078SOL     OW60070   3.325  10.409  11.005 -0.0668  0.2614  0.5880
18078SOL    HW160071   3.419  10.406  11.025 -0.3182  0.3285  1.9072
18078SOL    HW260072   3.289  10.333  11.051 -0.7849  0.7474  0.8453
18079SOL     OW60073   8.682   5.881   4.527  0.0625  0.2266 -0.4753
18079SOL    HW160074   8.677   5.977   4.530  1.8396  0.4030 -1.6067
18079SOL    HW260075   8.665   5.853   4.617  4.0949  1.9487  1.0758
18080SOL     OW60076   7.147   3.310  10.530  0.2916 -0.3054  0.1225
18080SOL    HW160077   7.186   3.397  10.518 -0.3627 -0.2023 -1.5522
18080SOL    HW260078   7.156   3.293  10.623 -0.7998  2.1980  0.7886
18081SOL     OW60079   3.928  12.223  11.433  0.0661 -0.2980 -0.1882
18081SOL    HW160080   3.903  12.190  11.519  0.5898  2.2247  1.0187
18081SOL    HW260081   3.882  12.307  11.425  1.1925  0.2275 -1.7229
18082SOL     OW60082   7.240   6.845  11.907 -0.1512 -0.3672  0.3350
18082SOL    HW160083   7.273   6.757  11.889  2.2170  0.1445  1.6486
18082SOL    HW260084   7.319   6.898  11.917 -1.5039  1.7784  0.2278
18083SOL     OW60085   6.539   2.156   5.166  0.6248 -0.2229  0.4269
18083SOL    HW160086   6.520   2.231   5.109 -0.7559  0.0226  1.1663
18083SOL    HW260087   6.463   2.099   5.155  0.5888 -0.4168  1.6243
18084SOL     OW60088  12.125   1.196   5.422 -0.2150  0.0868 -0.2105
18084SOL    HW160089  12.163   1.230   5.341 -1.0283 -0.0606 -0.6656
18084SOL    HW260090  12.039   1.161   5.396  0.2678 -1.6437  0.3724
18085SOL     OW60091   3.038   3.821   2.603 -0.0690  0.1551 -0.0539
18085SOL    HW160092   3.078   3.855   2.683  1.2523  0.4007 -0.7811
18085SOL    HW260093   2.979   3.752   2.633  2.3215 -1.5935  1.0264
18086SOL     OW60094   9.045  11.196   0.097  0.2580 -0.1000  0.6598
18086SOL    HW160095   9.049  11.260   0.026  0.6010 -0.6398  0.1862
18086SOL    HW260096   9.094  11.237   0.168  0.2168  0.2893  0.4693
18087SOL     OW60097  11.496   3.690  11.065 -0.4135  0.6106 -0.0493
18087SOL    HW160098  11.496   3.767  11.007 -1.1740 -0.3676 -1.4118
18087SOL    HW260099  11.412   3.694  11.110 -0.8906  0.0409 -0.8798
18088SOL     OW60100  10.933   5.197  11.018 -0.8066 -0.0750 -0.2853
18088SOL    HW160101  10.843   5.176  10.995 -1.6299  3.1837 -0.5055
18088SOL    HW260102  10.962   5.258  10.950  0.9961  0.2000  0.6633
18089SOL     OW60103   1.108   7.045   1.401 -0.5519  0.2627 -0.4925
18089SOL    HW160104   1.183   7.074   1.348 -0.9810 -0.8260 -1.7556
18089SOL    HW260105   1.038   7.032   1.337 -0.9655 -1.5021  0.2672
18090SOL     OW60106   5.111  10.078   4.955 -0.0294  0.2500  0.6360
18090SOL    HW160107   5.203  10.091   4.978  0.3043  0.5044 -0.7870
18090SOL    HW260108   5.086  10.157   4.908 -1.0233  0.2233  1.0754
18091SOL     OW60109   1.754   7.350   1.878  0.0159  0.2333  0.3400
18091SOL    HW160110   1.746   7.265   1.835 -1.2967 -0.7552  2.3816
18091SOL    HW260111   1.664   7.375   1.899  0.5540  0.7452  2.2657
18092SOL     OW60112   8.691   8.246   1.812  0.6572  0.1511 -0.3892
18092SOL    HW160113   8.783   8.242   1.784  0.6403 -1.5336 -0.3266
18092SOL    HW260114   8.692   8.212   1.901 -0.2351 -1.9264 -1.0915
18093SOL     OW60115   2.072  11.553   3.113  0.0777  0.3478  0.3837
18093SOL    HW160116   2.118  11.612   3.173  0.8593 -0.4980  0.6242
18093SOL    HW260117   2.066  11.470   3.161  0.5918 -0.3008 -0.6575
18094SOL     OW60118   3.314   5.716   3.992 -0.1461  0.4275 -0.5783
18094SOL    HW160119   3.257   5.684   3.922 -0.1783 -0.7286 -0.0411
18094SOL    HW260120   3.403   5.705   3.958  0.0543 -3.2003  0.6731
18095SOL     OW60121   6.637  11.200   7.577  0.3965 -0.1672  0.4467
18095SOL    HW160122   6.703  11.135   7.552  1.0712 -0.1692  2.1152
18095SOL    HW260123   6.569  11.150   7.620  0.0277  0.0246  0.0908
18096SOL     OW60124   5.138   8.082  11.592 -0.3531 -0.4105  0.6297
18096SOL    HW160125   5.226   8.053  11.565 -0.7837 -0.2236 -1.1331
18096SOL    HW260126   5.140   8.079  11.687  1.5400 -0.4970  0.6309
18097SOL     OW60127   2.842   3.807   3.069  0.7800 -0.0848 -0.3465
18097SOL    HW160128   2.877   3.884   3.025  1.0485  0.6933  1.1600
18097SOL    HW260129   2.794   3.760   3.001  0.9210  1.2118 -1.3739
18098SOL     OW60130   3.269   4.901   6.051 -0.2245 -0.4020 -0.3326
18098SOL    HW160131   3.355   4.881   6.016  0.8622  1.1059  1.3130
18098SOL    HW260132   3.270   4.865   6.140 -1.1653 -0.0746 -0.1736
18099SOL     OW60133   1.650   4.215  11.208 -0.5331  0.1623 -0.5160
18099SOL    HW160134   1.706   4.267  11.150 -0.5510 -1.6962 -2.3239
18099SOL    HW260135   1.709   4.148  11.244 -1.3344 -1.1780 -1.6252
18100SOL     OW60136   6.074  12.281   7.098 -0.5520  0.1212 -0.0704
18100SOL    HW160137   6.096  12.308   7.187  0.6564 -1.9415  0.3384
18100SOL    HW260138   5.983  12.306   7.086 -0.9366 -0.1569  2.0094
18101SOL     OW60139   7.886   5.849   6.589 -0.0431 -0.1911  0.1153
18101SOL    HW160140   7.821   5.796   6.544  1.1348  0.0697 -2.0155
18101SOL    HW260141   7.875   5.828   6.682 -3.2098 -0.0589 -0.1301
18102SOL     OW60142   8.907   5.037   7.117  0.3447 -0.2000 -0.1997
18102SOL    HW160143   8.862   5.118   7.141  1.4200  0.6161 -0.8422
18102SOL    HW260144   8.939   5.002   7.200 -0.1145  0.0260  0.0815
18103SOL     OW60145   1.775   6.168   1.956  0.2098  0.3194  0.0648
18103SOL    HW160146   1.747   6.222   2.031  0.5199  1.7341 -0.8038
18103SOL    HW260147   1.823   6.096   1.996 -0.2811  0.6312  1.2832
18104SOL     OW60148   4.275  10.338   6.692 -0.4946 -0.1247 -0.0253
18104SOL    HW160149   4.200  10.308   6.744 -0.9272  0.0168 -0.5649
18104SOL    HW260150   4.296  10.264   6.635  0.7844 -0.7585  1.2051
18105SOL     OW60151   1.693   0.135   4.039  0.3793  0.2518 -0.0263
18105SOL    HW160152   1.634   0.208   4.053  1.1830  0.7507  0.8274
18105SOL    HW260153   1.697   0.126   3.943  2.2908  3.0286 -0.3167
18106SOL     OW60154   5.909   8.464  12.121 -0.5478  0.6110  0.2017
18106SOL    HW160155   5.986   8.520  12.114  1.4264 -1.9779 -0.6448
18106SOL    HW260156   5.878   8.455  12.030  0.3461 -1.0785  0.0165
18107SOL     OW60157  10.639   7.164  10.187 -0.1625 -0.1051  0.9983
18107SOL    HW160158  10.594   7.233  10.138 -0.7875 -1.7902 -0.9206
18107SOL    HW260159  10.732   7.182  10.171 -0.3385 -0.2996 -0.4217
18108SOL     OW60160   2.302   7.075   8.642  0.4017  0.4335 -0.0106
18108SOL    HW160161   2.257   7.001   8.600 -1.5375  1.5306  0.0135
18108SOL    HW260162   2.232   7.135   8.666  1.6462  0.9311  2.7363
18109SOL     OW60163   9.092   1.261   6.626  0.0804 -0.1147  0.2362
18109SOL    HW160164   9.002   1.248   6.656  0.6499 -1.8507  1.3415
18109SOL    HW260165   9.147   1.227   6.697  1.5801 -0.6699 -1.1165
18110SOL     OW60166  12.287  11.018   7.697  0.4076  0.6046 -0.7984
18110SOL    HW160167  12.304  10.925   7.712  1.2822  0.8476 -0.2332
18110SOL    HW260168  12.220  11.041   7.762  0.1617  0.3635 -0.9658
18111SOL     OW60169   4.956  11.880   0.381  0.4301  0.1879  0.4889
18111SOL    HW160170   5.020  11.882   0.452  0.3877  1.2680  0.5151
18111SOL    HW260171   4.968  11.795   0.340 -0.6811 -1.1937  2.8226
18112SOL     OW60172   7.356   6.527   4.248  0.0164 -0.7295  0.2459
18112SOL    HW160173   7.297   6.465   4.205  0.0729 -0.2740 -0.4878
18112SOL    HW260174   7.384   6.586   4.179  1.2122 -0.8306  0.6247
18113SOL     OW60175   5.022   8.455   3.986  0.6601 -0.2653 -0.5220
18113SOL    HW160176   4.957   8.386   3.970  0.4015 -0.2132  0.2318
18113SOL    HW260177   5.084   8.414   4.047 -0.1433  0.5355  0.8631
18114SOL     OW60178   7.605   1.697   9.533  0.4674  0.0113 -0.1303
18114SOL    HW160179   7.580   1.698   9.625  0.8920 -0.9969  0.0220
18114SOL    HW260180   7.553   1.765   9.492 -0.0944  0.1324  0.7668
18115SOL     OW60181   2.501   3.460   8.372 -0.2173 -1.3598  0.0729
18115SOL    HW160182   2.589   3.484   8.341 -0.4426  0.1745  0.5605
18115SOL    HW260183   2.446   3.534   8.347 -1.2767 -2.0763  0.2437
18116SOL     OW60184  10.099   1.852   5.798  0.3701 -0.2261 -0.0419
18116SOL    HW160185  10.107   1.769   5.752  0.8687 -0.5521  0.6147
18116SOL    HW260186  10.086   1.828   5.890  0.1688  0.4174  0.1066
18117SOL     OW60187   1.478   6.917   5.227  0.2729  0.4797 -0.7972
18117SOL    HW160188   1.568   6.941   5.207  0.1302  1.5013 -0.2847
18117SOL    HW260189   1.445   6.878   5.146  0.6708  1.6192 -1.5344
18118SOL     OW60190  11.919  10.980  11.699 -0.3026 -0.5105 -0.1552
18118SOL    HW160191  11.864  11.025  11.635 -0.3513  0.3048  0.4352
18118SOL    HW260192  11.958  10.908  11.651  0.5963  0.7774 -1.4407
18119SOL     OW60193  12.227   0.276  10.115  0.3012 -0.2937 -0.2882
18119SOL    HW160194  12.312   0.249  10.150 -0.4943  0.2987  2.3152
18119SOL    HW260195  12.249   0.338  10.046  1.9981 -2.8763 -2.2687
18120SOL     OW60196   2.799   0.008   1.098 -0.4689  0.0182  0.0518
18120SOL    HW160197   2.740   0.052   1.036 -0.5776 -1.4016 -0.8895
18120SOL    HW260198   2.742  -0.050   1.148 -0.0331 -0.6599 -0.2168
18121SOL     OW60199  10.956   5.422   1.973  0.3695 -0.2082  0.2968
18121SOL    HW160200  10.920   5.403   1.886 -0.3746 -2.2680  0.9959
18121SOL    HW260201  11.007   5.343   1.995 -0.0761 -0.0394  2.0307
18122SOL     OW60202   7.396   3.715  10.655  0.1878 -0.5637 -0.5737
18122SOL    HW160203   7.386   3.792  10.710  0.0484 -1.0294  0.0653
18122SOL    HW260204   7.489   3.693  10.661  0.1559 -0.6666 -0.4503
18123SOL     OW60205   0.084   0.092   9.906  0.6169 -0.3400 -0.4465
18123SOL    HW160206   0.085   0.181   9.871 -1.8821  0.5016  1.3099
18123SOL    HW260207   0.166   0.084   9.954  0.1613  1.7501  0.8494
18124SOL     OW60208  12.124   4.090   4.741 -0.1796 -0.4812  0.1973
18124SOL    HW160209  12.090   4.043   4.817 -2.6111  0.4564 -0.2109
18124SOL    HW260210  12.203   4.134   4.772 -0.2361 -1.3927  1.7241
18125SOL     OW60211   0.050   6.101   6.035  0.3165  0.2048 -0.4630
18125SOL    HW160212  -0.006   6.178   6.025  1.0441  0.5869 -1.8177
18125SOL    HW260213   0.117   6.129   6.098 -0.0134  0.3125 -0.1502
18126SOL     OW60214   6.468   1.181  10.220 -0.7300 -0.1720 -0.1048
18126SOL    HW160215   6.539   1.120  10.240 -0.8393 -1.1721 -2.5062
18126SOL    HW260216   6.501   1.266  10.250  0.7667 -0.8824  0.3562
18127SOL     OW60217   4.332   6.431   7.755  0.2102  0.5289  0.3597
18127SOL    HW160218   4.410   6.463   7.708  0.0554 -1.2900 -1.2883
18127SOL    HW260219   4.271   6.505   7.753  1.0772  1.2604 -0.2888
18128SOL     OW60220   3.125   3.364   1.619 -0.1715  0.0747 -0.0957
18128SOL    HW160221   3.050   3.414   1.651 -0.3120  0.5987 -1.2005
18128SOL    HW260222   3.199   3.397   1.670 -0.4604  0.5306  0.0408
18129SOL     OW60223   2.725   8.740   9.325  0.1396 -0.0845  0.3392
18129SOL    HW160224   2.791   8.673   9.315 -0.9821 -1.2503  0.4979
18129SOL    HW260225   2.674   8.736   9.244 -0.5714 -0.1471  0.7789
18130SOL     OW60226   5.248  10.811   6.867  0.6260  0.6768  0.6489
18130SOL    HW160227   5.313  10.755   6.824 -2.8547 -1.6312 -2.2596
18130SOL    HW260228   5.223  10.762   6.945 -0.1799 -0.3569 -0.2240
18131SOL     OW60229   3.818   7.627   3.948 -0.0525  0.4756 -0.2687
18131SOL    HW160230   3.913   7.627   3.954 -0.0756  1.6847  0.4821
18131SOL    HW260231   3.788   7.580   4.027 -0.0891  0.0148 -0.5506
18132SOL     OW60232   0.957   5.520   3.144 -0.2266 -0.1425  0.0937
18132SOL    HW160233   0.916   5.573   3.212 -1.5956 -1.3040  0.2434
18132SOL    HW260234   0.886   5.504   3.081  0.2005 -1.5265 -0.0817
18133SOL     OW60235   4.136   6.074   5.082 -0.1155  0.0725 -0.5837
18133SOL    HW160236   4.052   6.114   5.108 -0.0233  0.2436 -0.5458
18133SOL    HW260237   4.130   6.068   4.987 -0.5709 -0.8169 -0.5106
18134SOL     OW60238   9.981   2.058   4.466  0.2674 -0.4230 -0.3795
18134SOL    HW160239  10.062   2.009   4.481  0.2306 -0.3935 -0.0732
18134SOL    HW260240   9.963   2.048   4.373 -0.0057 -1.4065 -0.2272
18135SOL     OW60241   1.032   5.849   9.718  0.0513  0.1924 -0.5339
18135SOL    HW160242   0.967   5.879   9.655  1.3249  0.3109 -1.8494
18135SOL    HW260243   1.112   5.896   9.694  0.5520  0.3348  1.2752
18136SOL     OW60244  11.004   4.963   2.787 -0.1144 -0.0520  0.2422
18136SOL    HW160245  10.954   5.025   2.841  0.9577  1.3999 -0.3688
18136SOL    HW260246  10.946   4.888   2.777 -1.6948  1.0811  0.5322
18137SOL     OW60247   0.084   5.218   7.864 -0.8334 -0.2907  0.0306
18137SOL    HW160248   0.083   5.127   7.892 -1.3369 -0.8609 -1.7047
18137SOL    HW260249  -0.008   5.239   7.846 -0.6318  0.2642 -0.4186
18138SOL     OW60250   1.339   4.696   2.136 -0.2577  0.2169 -0.5831
18138SOL    HW160251   1.424   4.737   2.122 -0.5772  0.2773 -2.6383
18138SOL    HW260252   1.317   4.657   2.052 -1.0860 -2.1029  0.6259
18139SOL     OW60253   4.489   3.532   8.821 -0.0692 -0.3609  0.6549
18139SOL    HW160254   4.565   3.492   8.861  0.1425  0.5385  1.1920
18139SOL    HW260255   4.446   3.579   8.893  0.1393  1.0256 -0.0812
18140SOL     OW60256   6.220   1.594   8.121  0.3682  0.6796 -0.3180
18140SOL    HW160257   6.177   1.596   8.035  2.3015  2.7366 -1.3342
18140SOL    HW260258   6.166   1.650   8.176 -0.0836  0.5208 -0.5921
18141SOL     OW60259   2.958   0.485   0.883 -0.2714  0.0376 -0.0255
18141SOL    HW160260   3.053   0.472   0.884 -0.0979  1.2097  0.5070
18141SOL    HW260261   2.947   0.579   0.870 -1.3634 -0.0480  0.2038
18142SOL     OW60262  10.813   3.328  10.372  0.4816  0.4007  0.0368
18142SOL    HW160263  10.903   3.322  10.404  0.5872 -1.3157 -0.4452
18142SOL    HW260264  10.808   3.261  10.304 -1.1599  0.4599  0.0605
18143SOL     OW60265   4.314  11.085   7.432 -0.1604 -0.5816  0.3693
18143SOL    HW160266   4.232  11.069   7.385 -0.2579 -1.8579  0.9417
18143SOL    HW260267   4.374  11.115   7.363 -0.3790 -2.1512 -0.5542
18144SOL     OW60268   3.822   8.338   0.915  0.2135  0.5446  0.6534
18144SOL    HW160269   3.764   8.322   0.840  3.3829 -1.9474 -1.5842
18144SOL    HW260270   3.831   8.433   0.919 -1.2451  0.8196 -1.1843
18145SOL     OW60271   1.978   5.017   9.418  0.1336  0.1686 -0.0807
18145SOL    HW160272   2.022   5.006   9.502 -0.9560  0.9469  0.6104
18145SOL    HW260273   1.975   4.929   9.380 -2.2854 -0.8485  2.1890
18146SOL     OW60274   6.796   3.553   3.414 -0.3206 -0.0864 -0.1231
18146SOL    HW160275   6.851   3.478   3.395  1.4776  0.6087  1.9032
18146SOL    HW260276   6.775   3.590   3.328  2.2234 -0.5132 -1.0132
18147SOL     OW60277   0.324   3.515   1.331  0.2473 -0.3357 -0.2572
18147SOL    HW160278   0.317   3.607   1.308 -0.0559 -0.3632 -0.2685
18147SOL    HW260279   0.387   3.513   1.404 -0.3629 -0.0372  0.2814
18148SOL     OW60280   1.762  11.203   7.935  0.7843 -0.6311 -0.0358
18148SOL    HW160281   1.708  11.279   7.913 -2.1252 -1.5183  3.0204
18148SOL    HW260282   1.850  11.227   7.908 -0.6330  2.0738 -2.9474
18149SOL     OW60283   8.047  11.447   4.662 -0.3190  0.1428  0.2281
18149SOL    HW160284   8.074  11.444   4.754  0.4253  2.4233  0.1412
18149SOL    HW260285   8.077  11.363   4.626  3.1018  0.8049  1.1458
18150SOL     OW60286   0.849   9.598   8.116 -0.3583  0.8169 -0.2306
18150SOL    HW160287   0.903   9.658   8.168  1.2327  1.2490 -2.2463
18150SOL    HW260288   0.808   9.540   8.181 -0.0148  2.5104  1.6087
18151SOL     OW60289   9.818   0.571  10.853 -0.3236 -0.0383  0.2904
18151SOL    HW160290   9.770   0.507  10.801 -1.1756  0.4274  0.4977
18151SOL    HW260291   9.862   0.627  10.789 -1.7156  0.8043  0.0558
18152SOL     OW60292   7.121  10.568   5.150  0.1261 -0.0687 -0.2381
18152SOL    HW160293   7.168  10.519   5.083  1.0822  0.0018  0.3752
18152SOL    HW260294   7.122  10.511   5.227 -1.6664 -0.4963 -0.4837
18153SOL     OW60295  11.321  10.306   4.096  0.2356 -0.0185  0.3557
18153SOL    HW160296  11.317  10.333   4.004  0.2313 -1.6863 -0.1660
18153SOL    HW260297  11.396  10.355   4.132 -0.9250  2.1082  0.0141
18154SOL     OW60298   6.781   2.684   7.410  0.5945 -0.0112 -0.1443
18154SOL    HW160299   6.794   2.747   7.339 -1.2338 -0.3080 -0.8097
18154SOL    HW260300   6.710   2.721   7.462 -0.5885 -1.5275 -0.6082
18155SOL     OW60301   1.172   3.372  11.299 -0.4080  0.1221  0.5520
18155SOL    HW160302   1.254   3.329  11.325  0.7233  0.8661 -1.4624
18155SOL    HW260303   1.173   3.455  11.346 -1.6743 -1.1832  3.0188
18156SOL     OW60304  10.930   8.944   4.999 -0.1005  0.3467 -0.6225
18156SOL    HW160305  10.993   8.881   5.033 -1.4224  0.2211  1.8361
18156SOL    HW260306  10.982   9.022   4.979  1.3851 -1.0792 -2.6286
18157SOL     OW60307   9.679  10.689   4.968 -0.3134 -0.3930  0.0529
18157SOL    HW160308   9.661  10.624   5.036 -2.4173  0.4567  0.3849
18157SOL    HW260309   9.724  10.640   4.899 -2.5582 -2.4586 -0.0939
18158SOL     OW60310   9.444   9.334   0.508  0.2413 -0.1208  0.3046
18158SOL    HW160311   9.440   9.320   0.603  0.0513  0.4734  0.3850
18158SOL    HW260312   9.411   9.423   0.495 -1.2595 -0.7524 -0.4702
18159SOL     OW60313  11.671   7.029   4.151  0.1839  0.2234 -0.0931
18159SOL    HW160314  11.689   7.021   4.057 -0.4474  0.6799 -0.2585
18159SOL    HW260315  11.577   7.010   4.159  0.1816  0.4382  0.4132
18160SOL     OW60316   2.426  10.579   5.138 -0.2858 -0.2061  0.0167
18160SOL    HW160317   2.493  10.635   5.177  0.3592 -0.9487 -0.0090
18160SOL    HW260318   2.425  10.604   5.045  0.0028 -0.2497  0.0030
18161SOL     OW60319   5.527   5.800   0.725  0.0105 -0.1414 -0.4290
18161SOL    HW160320   5.546   5.881   0.677 -1.3096  0.6968  0.4268
18161SOL    HW260321   5.608   5.749   0.717  0.5034  0.7975 -1.8798
18162SOL     OW60322   9.589   1.804   6.854  0.6274 -0.4599  0.0922
18162SOL    HW160323   9.559   1.868   6.919  2.4781 -0.7490  1.2960
18162SOL    HW260324   9.616   1.856   6.779  1.1256  0.0977  0.6501
18163SOL     OW60325   5.656   5.899   6.160  0.1348  0.1846 -0.2766
18163SOL    HW160326   5.714   5.886   6.085  1.7558 -3.3850  1.3533
18163SOL    HW260327   5.716   5.913   6.234 -1.2717  0.4015  0.8584
18164SOL     OW60328  11.431  11.525   2.108  0.1421 -0.2389 -0.4608
18164SOL    HW160329  11.342  11.541   2.140 -1.0160 -2.5337 -2.2679
18164SOL    HW260330  11.421  11.512   2.014  1.9448 -3.1184 -0.3712
18165SOL     OW60331   6.250   6.528   3.952 -0.6469 -0.5174  0.3714
18165SOL    HW160332   6.215   6.463   4.013 -2.3495  0.0609  0.0712
18165SOL    HW260333   6.320   6.572   4.001 -2.0253  0.0007  1.9807
18166SOL     OW60334   4.115  11.056   2.206 -0.0052  0.4842  0.0087
18166SOL    HW160335   4.084  11.128   2.152 -0.8075 -0.3760 -0.7257
18166SOL    HW260336   4.208  11.048   2.185  0.6837  2.7469  1.8349
18167SOL     OW60337   8.908  11.662   9.221 -0.9903 -0.3677  0.0374
18167SOL    HW160338   8.837  11.722   9.243 -0.0512  0.7700  0.1081
18167SOL    HW260339   8.961  11.657   9.301  0.3377  0.7603 -0.7204
18168SOL     OW60340  12.226   8.893   0.859  0.1508  0.3838 -0.2745
18168SOL    HW160341  12.190   8.861   0.776 -0.3417 -0.7323  0.3580
18168SOL    HW260342  12.250   8.814   0.907  0.7663  1.0359  0.5104
18169SOL     OW60343   8.952  11.167  10.418  0.1792  0.2180 -0.8586
18169SOL    HW160344   8.889  11.235  10.440  0.2123 -0.7940  2.9951
18169SOL    HW260345   9.033  11.195  10.461 -0.8072 -3.8735  4.8848
18170SOL     OW60346   2.396   0.623   3.098  0.6169 -0.7544  0.4272
18170SOL    HW160347   2.360   0.559   3.158  0.2827  0.5741  1.6996
18170SOL    HW260348   2.460   0.672   3.150  2.5958 -1.5375 -1.1443
18171SOL     OW60349   1.655  11.422   4.672  0.0334 -0.3110 -0.0500
18171SOL    HW160350   1.636  11.331   4.692  1.8650 -0.9069 -0.8199
18171SOL    HW260351   1.687  11.421   4.582  1.3346  0.9079  0.3632
18172SOL     OW60352   6.271   0.234   0.943 -0.0818  0.0439 -0.1692
18172SOL    HW160353   6.348   0.178   0.942  0.7309  1.0816  1.2785
18172SOL    HW260354   6.292   0.304   1.004 -2.5690 -0.1976  1.1125
18173SOL     OW60355   2.613   6.925   5.725 -0.3336  0.1940  0.3761
18173SOL    HW160356   2.653   6.951   5.642  0.9156 -0.5952  0.7079
18173SOL    HW260357   2.580   6.837   5.709 -2.9174  1.1803 -0.1877
18174SOL     OW60358   8.018  11.804  10.555  0.2320 -0.3833  0.5902
18174SOL    HW160359   7.967  11.880  10.583  0.0526 -0.5912  0.8346
18174SOL    HW260360   7.996  11.735  10.619 -1.8694 -1.5643 -1.2738
18175SOL     OW60361   6.930   5.772   4.534  0.2984  0.9441  0.1607
18175SOL    HW160362   6.938   5.864   4.556  2.2706  0.7965  0.2230
18175SOL    HW260363   7.018   5.745   4.510 -0.4417 -0.6686 -0.9307
18176SOL     OW60364   6.113  11.443   8.141  0.1256 -0.5785 -0.6474
18176SOL    HW160365   6.064  11.463   8.221  0.2083 -0.1425 -0.7042
18176SOL    HW260366   6.113  11.347   8.136 -1.2821 -0.5750 -1.0024
18177SOL     OW60367   4.549   8.469   2.984  0.4956 -0.3134 -0.3454
18177SOL    HW160368   4.593   8.513   2.911  2.9011 -2.3460 -0.2423
18177SOL    HW260369   4.611   8.402   3.012 -2.1290 -2.4084  0.8205
18178SOL     OW60370  10.881   9.584   7.727 -0.2228 -0.0662  0.4970
18178SOL    HW160371  10.843   9.502   7.761  1.1749 -1.0519 -0.2229
18178SOL    HW260372  10.966   9.558   7.692 -0.5300  1.3604 -1.4491
18179SOL     OW60373  10.635  11.130   6.277  0.8578  0.0190 -0.3513
18179SOL    HW160374  10.650  11.202   6.216  1.2728  0.1620 -0.0830
18179SOL    HW260375  10.550  11.095   6.252 -0.8129  2.5008  1.3648
18180SOL     OW60376   4.303   9.902   1.903  0.1002  0.7140 -0.2211
18180SOL    HW160377   4.269   9.888   1.991  0.1287 -1.7305 -0.5252
18180SOL    HW260378   4.226   9.920   1.850 -0.2693 -0.5178 -0.1385
18181SOL     OW60379   7.431   2.919   1.869  0.4249  0.0884 -0.6478
18181SOL    HW160380   7.460   2.843   1.919  0.4657  0.4711 -0.0806
18181SOL    HW260381   7.498   2.986   1.885  0.3512  0.2642 -1.0794
18182SOL     OW60382  11.663   1.705   5.602 -0.5078 -0.0710 -0.6062
18182SOL    HW160383  11.671   1.685   5.508 -0.4515  0.7920 -0.7904
18182SOL    HW260384  11.700   1.793   5.611  0.3604 -0.5237  0.3944
18183SOL     OW60385   6.235   6.359   0.687 -0.0848 -0.5305  0.2601
18183SOL    HW160386   6.275   6.414   0.755  0.9404 -0.8801 -0.0433
18183SOL    HW260387   6.251   6.269   0.716 -0.1662 -0.6774 -0.1441
18184SOL     OW60388   1.719   1.714   2.646 -0.4511 -0.3247 -0.0635
18184SOL    HW160389   1.682   1.706   2.559 -1.4954 -0.2571  0.3534
18184SOL    HW260390   1.706   1.806   2.670  1.2277  0.0484 -0.4156
18185SOL     OW60391  11.325  10.109  12.194  0.6247 -0.4927 -0.0589
18185SOL    HW160392  11.299  10.075  12.279 -0.5601  1.7715  0.5625
18185SOL    HW260393  11.278  10.055  12.131 -0.0606 -0.9332  0.8078
18186SOL     OW60394   7.244  12.312   4.153  0.1054  0.2135 -0.4766
18186SOL    HW160395   7.198  12.259   4.088 -0.6770 -0.3419  0.4809
18186SOL    HW260396   7.307  12.252   4.193 -1.3218 -0.2901  1.1559
18187SOL     OW60397   8.747   6.771   0.819  0.3049  0.1656  0.3198
18187SOL    HW160398   8.744   6.676   0.829  1.1671  0.1736  0.7776
18187SOL    HW260399   8.807   6.786   0.746 -0.2922  0.3422 -0.1361
18188SOL     OW60400  10.421   1.101   6.397  0.1392  0.2234  0.6669
18188SOL    HW160401  10.516   1.110   6.388  0.1318 -0.8483 -0.9142
18188SOL    HW260402  10.391   1.076   6.310 -1.7061  1.3002  0.9439
18189SOL     OW60403   9.267   0.176   2.942 -0.0599  0.1821  0.2755
18189SOL    HW160404   9.211   0.135   2.876  0.5413  0.0245 -0.1415
18189SOL    HW260405   9.315   0.103   2.982 -1.3755  0.1054  1.8363
18190SOL     OW60406   5.611   5.739  11.738 -0.3457  0.2421 -0.2935
18190SOL    HW160407   5.528   5.746  11.690 -0.2637  0.3590 -0.4181
18190SOL    HW260408   5.593   5.782  11.822 -1.2253 -2.0570  0.7675
18191SOL     OW60409   8.826  11.550   5.250  0.4488 -0.1074  0.1608
18191SOL    HW160410   8.918  11.529   5.236  0.6936 -1.4076  2.8974
18191SOL    HW260411   8.778  11.480   5.205  0.6937  0.9651 -1.8784
18192SOL     OW60412   0.126   5.618   0.138  0.1348 -0.5255  0.0680
18192SOL    HW160413   0.098   5.695   0.087  1.6989 -0.3099 -0.5270
18192SOL    HW260414   0.116   5.545   0.077  0.0505 -0.5733  0.1400
18193SOL     OW60415   4.477   5.986   9.358  0.1427  0.3339 -0.2840
18193SOL    HW160416   4.420   5.968   9.432 -1.5510 -1.0768 -1.8496
18193SOL    HW260417   4.545   6.044   9.393  0.1433 -1.2719  2.6564
18194SOL     OW60418   1.143   8.425   6.335  0.4581 -0.1635 -0.3298
18194SOL    HW160419   1.144   8.518   6.315 -1.4542 -0.4741 -2.2124
18194SOL    HW260420   1.206   8.386   6.274  1.4552 -0.1186  0.6353
18195SOL     OW60421   4.901  10.474   2.305 -0.1471  0.1131 -0.2606
18195SOL    HW160422   4.962  10.436   2.242  0.8440  0.3146  0.5452
18195SOL    HW260423   4.915  10.568   2.299 -0.8229  0.2052 -0.4936
18196SOL     OW60424  12.276   9.422   7.397  0.5189  0.2542 -0.5010
18196SOL    HW160425  12.239   9.337   7.422  1.3909  0.0491  0.1524
18196SOL    HW260426  12.215   9.456   7.332 -1.1417  0.1957  0.9250
18197SOL     OW60427   6.850   9.786   8.379  0.2679 -0.2197 -0.0526
18197SOL    HW160428   6.795   9.764   8.454  0.7510  1.7980  0.9785
18197SOL    HW260429   6.803   9.856   8.335  1.5583  0.9691  0.3692
18198SOL     OW60430   6.873   0.816   8.966 -0.1079  0.4182  0.3256
18198SOL    HW160431   6.810   0.747   8.987  1.8185 -1.4784  0.2632
18198SOL    HW260432   6.905   0.846   9.051  0.3373 -0.0794  0.3454
18199SOL     OW60433   2.493   0.276   5.665  0.1168  0.2319  0.4668
18199SOL    HW160434   2.432   0.203   5.675  0.7977 -0.3320  0.5581
18199SOL    HW260435   2.507   0.283   5.571 -0.2720  0.5258  0.4258
18200SOL     OW60436   1.525   8.448   0.327 -0.1893 -0.0237 -0.2523
18200SOL    HW160437   1.531   8.480   0.237  0.1562 -0.0220 -0.2311
18200SOL    HW260438   1.437   8.412   0.334 -0.8424  1.5237 -0.0795
18201SOL     OW60439   0.504   0.904   1.690 -0.2553  0.1325  0.2235
18201SOL    HW160440   0.437   0.850   1.733 -1.6216  1.3746 -0.2524
18201SOL    HW260441   0.481   0.993   1.715  2.3477  0.5130  1.5390
18202SOL     OW60442   7.074   8.866  11.946  0.1842  0.0521 -0.0981
18202SOL    HW160443   7.040   8.781  11.974 -0.0163  0.2355  0.2225
18202SOL    HW260444   7.010   8.898  11.881  0.1866  0.0191 -0.1159
18203SOL     OW60445   4.937   1.906   3.142  0.1432  0.5921 -0.1493
18203SOL    HW160446   5.009   1.854   3.108 -0.7199  0.8812 -2.5716
18203SOL    HW260447   4.975   1.991   3.161  0.5848  0.5181 -0.6969
18204SOL     OW60448   6.451  12.035   5.544  0.2118  0.3631 -0.0114
18204SOL    HW160449   6.438  11.968   5.477  0.2342 -1.4370  1.7006
18204SOL    HW260450   6.387  12.103   5.523 -2.1061 -1.6872  0.0059
18205SOL     OW60451   7.751   2.091   5.437 -0.0239 -0.1240 -0.1828
18205SOL    HW160452   7.721   2.124   5.521  0.5128 -0.3294  0.0936
18205SOL    HW260453   7.786   2.168   5.391  1.7119 -0.3574  0.6687
18206SOL     OW60454   9.431   0.983  11.796 -0.3811  0.7929 -0.3158
18206SOL    HW160455   9.430   1.078  11.784 -1.5515  0.8843  0.2869
18206SOL    HW260456   9.521   0.963  11.820 -0.0025  1.6795 -0.9358
18207SOL     OW60457   4.661   6.907   2.085 -0.1837  0.4847  0.1659
18207SOL    HW160458   4.571   6.913   2.051  0.5210  0.2919 -1.8426
18207SOL    HW260459   4.703   6.987   2.055  0.3653  0.5433  1.0449
18208SOL     OW60460   0.110   8.153  11.945 -0.4523 -0.2211 -1.0089
18208SOL    HW160461   0.084   8.072  11.990  0.6355  0.0394  0.1545
18208SOL    HW260462   0.028   8.197  11.924 -1.0319 -1.1681 -0.7855
18209SOL     OW60463   8.741   9.299   4.035 -0.0374  0.2477  0.6100
18209SOL    HW160464   8.777   9.376   4.078  0.4193 -0.3051  1.2563
18209SOL    HW260465   8.814   9.264   3.983  0.2452 -0.6079  1.5442
18210SOL     OW60466   8.971   8.770   7.028  0.2260 -0.2699 -0.4833
18210SOL    HW160467   8.936   8.681   7.029 -0.4388 -0.0355  1.0350
18210SOL    HW260468   9.060   8.761   6.994  0.0366 -1.4508 -0.7118
18211SOL     OW60469   6.550   8.742   0.365 -0.2719 -0.7603  0.0115
18211SOL    HW160470   6.624   8.685   0.386 -0.5122 -1.5909 -1.2531
18211SOL    HW260471   6.554   8.751   0.269 -0.4059  1.1477  0.1387
18212SOL     OW60472   8.087   5.498   3.411 -0.1386  0.2813 -0.3635
18212SOL    HW160473   8.109   5.517   3.502  0.3800 -2.5877  0.2071
18212SOL    HW260474   7.999   5.534   3.400 -0.1504  0.8131  1.2215
18213SOL     OW60475   7.805   2.489   0.322 -0.5751  0.2358  0.7118
18213SOL    HW160476   7.771   2.523   0.405 -1.3994 -1.3729  1.0866
18213SOL    HW260477   7.735   2.432   0.289 -1.1424  2.3145 -2.1328
18214SOL     OW60478   2.029   8.893   4.651 -0.4416  0.3354  0.4592
18214SOL    HW160479   2.096   8.833   4.683 -1.1022 -1.1902 -0.8547
18214SOL    HW260480   1.967   8.901   4.724  1.1874  1.9398  1.7688
18215SOL     OW60481   3.358  11.493   2.630  0.5311 -0.7406 -0.4378
18215SOL    HW160482   3.450  11.509   2.650  0.8390 -1.5232 -1.1863
18215SOL    HW260483   3.325  11.446   2.707  0.7907 -0.5855 -0.2298
18216SOL     OW60484   8.205   1.139   6.962  0.4155  0.1202  0.4544
18216SOL    HW160485   8.283   1.156   7.015 -0.0896  1.9020  0.7149
18216SOL    HW260486   8.161   1.067   7.006  0.9904  0.2943  1.3349
18217SOL     OW60487   2.457   5.146   0.950 -0.1593 -0.7114  0.6747
18217SOL    HW160488   2.525   5.159   1.016  0.3625 -1.1565  0.2283
18217SOL    HW260489   2.502   5.109   0.875 -0.6985  0.1098 -0.0688
18218SOL     OW60490   4.329   1.825   0.912 -0.1752  0.0103 -0.0522
18218SOL    HW160491   4.303   1.880   0.986  0.8627 -0.7797  0.9439
18218SOL    HW260492   4.339   1.886   0.839 -1.4448  0.7784  0.3926
18219SOL     OW60493   0.375  11.202   5.997  0.0608 -0.1707  0.3139
18219SOL    HW160494   0.450  11.222   5.941 -0.8192  1.6427 -0.3029
18219SOL    HW260495   0.300  11.238   5.949 -0.9155  0.0631  1.9462
18220SOL     OW60496   6.575  10.218   6.034  0.0719  0.5396 -0.3669
18220SOL    HW160497   6.568  10.303   6.077 -1.4000  0.0785  0.3397
18220SOL    HW260498   6.486  10.185   6.030  0.3708 -0.1947 -2.2691
18221SOL     OW60499   6.673   8.255   0.520 -0.3849 -0.0202 -0.1464
18221SOL    HW160500   6.656   8.243   0.614  0.4542  0.4002  0.0678
18221SOL    HW260501   6.762   8.221   0.508  0.9344  3.0794 -0.0881
18222SOL     OW60502  10.062   4.279  11.947 -0.0038 -0.2200  0.2400
18222SOL    HW160503  10.006   4.272  12.025 -1.2561 -1.0275 -0.6771
18222SOL    HW260504  10.065   4.190  11.913 -1.6787  0.4944 -2.0613
18223SOL     OW60505   6.979  11.844   5.967  0.5698  0.3321 -0.6281
18223SOL    HW160506   6.886  11.851   5.986  0.5202 -1.8006  0.2265
18223SOL    HW260507   7.008  11.934   5.952 -1.4373  1.1185 -0.0484
18224SOL     OW60508   5.098  11.235   5.316  0.0413  0.0469  0.4250
18224SOL    HW160509   5.114  11.259   5.407 -1.6370  1.5528  0.3902
18224SOL    HW260510   5.092  11.320   5.271  1.5915 -0.6783 -1.2529
18225SOL     OW60511   8.576   5.740   3.361 -0.3276  0.2332 -0.1724
18225SOL    HW160512   8.573   5.704   3.449 -1.1168 -0.2043 -0.3636
18225SOL    HW260513   8.665   5.772   3.350  0.7020 -2.4151 -0.2853
18226SOL     OW60514  11.157   7.795  11.340  0.2725 -0.4133  0.3545
18226SOL    HW160515  11.078   7.749  11.313  1.7814 -2.3171 -1.2198
18226SOL    HW260516  11.161   7.873  11.284 -0.7823  0.0222  0.8819
18227SOL     OW60517   7.830   1.012   6.503  0.1718  0.1021 -0.4256
18227SOL    HW160518   7.854   1.034   6.593  0.2821  0.9370 -0.6453
18227SOL    HW260519   7.890   1.064   6.449 -0.9173  0.8340 -0.9728
18228SOL     OW60520   1.543   7.041   2.439  0.1920 -0.1211 -0.3891
18228SOL    HW160521   1.543   6.987   2.518 -1.7926  1.1490  0.5683
18228SOL    HW260522   1.531   7.130   2.471 -1.8415  0.3209 -2.1331
18229SOL     OW60523   6.033   2.650   8.256  0.0534 -0.2323 -0.2504
18229SOL    HW160524   5.969   2.619   8.191  1.0202 -0.0537 -1.3187
18229SOL    HW260525   6.118   2.632   8.216  0.6629  0.7329  0.5709
18230SOL     OW60526   5.182   1.334   9.793 -0.5541  0.1413 -0.3914
18230SOL    HW160527   5.125   1.367   9.724 -2.9133  0.4836  1.5560
18230SOL    HW260528   5.182   1.239   9.781 -3.3500 -0.0959  0.7216
18231SOL     OW60529   0.869   1.118   2.764 -0.2254  0.9451  0.3136
18231SOL    HW160530   0.887   1.207   2.795  0.9262  1.1457 -0.8488
18231SOL    HW260531   0.867   1.126   2.669 -0.0101 -0.2961  0.1899
18232SOL     OW60532   4.053   0.737  11.701  0.1665  0.2375  0.1276
18232SOL    HW160533   4.145   0.712  11.700  0.0897 -0.0136 -0.9254
18232SOL    HW260534   4.008   0.664  11.659 -0.5701  0.1896  0.9587
18233SOL     OW60535   8.701   6.778   1.708 -0.1469 -0.3796  0.1550
18233SOL    HW160536   8.724   6.766   1.615 -1.3429  1.5385 -0.4449
18233SOL    HW260537   8.608   6.756   1.712 -0.7914  2.1217  0.2886
18234SOL     OW60538   0.564   9.923   8.656 -0.8711  0.1608 -0.2784
18234SOL    HW160539   0.505   9.939   8.729 -1.5161 -1.0136 -0.5207
18234SOL    HW260540   0.642   9.975   8.677 -0.9104 -0.3829  1.3971
18235SOL     OW60541   8.383   8.299  12.194 -0.2435  0.1759  0.1946
18235SOL    HW160542   8.296   8.268  12.222  0.1794 -0.2152  1.1277
18235SOL    HW260543   8.392   8.385  12.235 -0.3670  0.4066 -0.2627
18236SOL     OW60544   9.483   0.824   6.641  0.4284 -0.0636 -0.1319
18236SOL    HW160545   9.408   0.793   6.590 -0.3432  0.4463  0.6515
18236SOL    HW260546   9.470   0.919   6.648  1.1526  0.0335  0.0176
18237SOL     OW60547   2.664   4.551   4.683 -0.2422 -0.0860 -0.0802
18237SOL    HW160548   2.594   4.598   4.637 -0.7403 -1.4503 -0.7619
18237SOL    HW260549   2.626   4.532   4.769 -0.0430  0.7070  0.1969
18238SOL     OW60550   3.100   3.088   2.122  0.3838  0.4238 -0.5679
18238SOL    HW160551   3.051   3.055   2.197  0.2335  1.4809 -0.1885
18238SOL    HW260552   3.123   3.009   2.072 -1.7160 -0.1056 -0.7839
18239SOL     OW60553   4.791   9.497   3.030 -0.0005  0.3654  0.5827
18239SOL    HW160554   4.882   9.477   3.008 -0.2270 -0.2245  0.1330
18239SOL    HW260555   4.796   9.559   3.103  0.7525 -0.1171  0.9492
18240SOL     OW60556   7.096   0.353   6.355  0.3447  0.0797 -0.2440
18240SOL    HW160557   7.104   0.444   6.326 -0.1735 -0.0866 -0.9199
18240SOL    HW260558   7.169   0.341   6.417  0.1452  1.0799  0.2047
18241SOL     OW60559   9.810   8.490   4.294  0.8511 -0.8405  0.0509
18241SOL    HW160560   9.784   8.571   4.337  1.4193  0.1300 -1.3626
18241SOL    HW260561   9.739   8.472   4.231  1.4829 -0.5519 -0.7602
18242SOL     OW60562   7.574   6.722   6.451  0.4398 -0.1458 -0.0271
18242SOL    HW160563   7.563   6.627   6.448 -2.4908  0.0753  0.7079
18242SOL    HW260564   7.508   6.755   6.391 -1.0970  1.4845  2.4172
18243SOL     OW60565   2.593   2.906  11.865  0.2830 -0.6201  0.0665
18243SOL    HW160566   2.666   2.915  11.803  0.8360 -3.4838  0.1850
18243SOL    HW260567   2.600   2.817  11.898 -1.8492 -0.1762  1.9678
18244SOL     OW60568   4.443   5.473   4.514 -0.3610  0.7645  0.6690
18244SOL    HW160569   4.408   5.504   4.598 -2.1305  1.5910 -0.3140
18244SOL    HW260570   4.369   5.427   4.474  1.3289 -2.3359  0.8258
18245SOL     OW60571  11.418   7.206   7.216 -0.5988  0.8452  0.5823
18245SOL    HW160572  11.382   7.193   7.303 -1.1035  0.6517  0.3453
18245SOL    HW260573  11.346   7.244   7.165 -0.6048  0.0873  0.0032
18246SOL     OW60574   9.729  11.222   3.798  0.0386  0.0600 -0.3049
18246SOL    HW160575   9.808  11.254   3.841  0.0791  2.5923 -2.0566
18246SOL    HW260576   9.754  11.135   3.765  1.2542 -0.2314  1.2694
18247SOL     OW60577   3.201   8.624   2.501 -0.5690 -0.2351 -0.1045
18247SOL    HW160578   3.167   8.705   2.539 -1.9600 -1.1998  0.7885
18247SOL    HW260579   3.168   8.624   2.411  0.4570  0.7440 -0.5084
18248SOL     OW60580   3.914   0.955   5.186 -0.1169 -0.2528 -0.3305
18248SOL    HW160581   3.888   1.029   5.241 -0.2637  0.6555 -1.5675
18248SOL    HW260582   3.999   0.981   5.150 -0.6710 -0.1706 -1.6447
18249SOL     OW60583   0.513   0.961   7.669 -0.0609  0.4505  0.1859
18249SOL    HW160584   0.472   0.928   7.749 -0.0759 -0.0107 -0.0105
18249SOL    HW260585   0.566   0.888   7.637 -0.4479  0.4598 -0.4927
18250SOL     OW60586   9.539   0.376   4.737 -0.2339 -0.4107  0.0211
18250SOL    HW160587   9.625   0.379   4.694 -0.3183  1.4398 -0.1094
18250SOL    HW260588   9.546   0.440   4.808 -1.2944 -0.7469  0.4405
18251SOL     OW60589   5.700  11.986   4.201 -0.1929  0.5297  0.3130
18251SOL    HW160590   5.714  12.080   4.210  2.9887  0.3192 -0.8782
18251SOL    HW260591   5.738  11.947   4.280 -1.3994  0.1955  0.7550
18252SOL     OW60592   0.217   2.899   7.054  0.6044 -0.1190 -0.0387
18252SOL    HW160593   0.250   2.985   7.026  1.3806 -0.3164  0.2444
18252SOL    HW260594   0.281   2.869   7.118  0.4688 -1.0172 -0.3155
18253SOL     OW60595   6.109   7.613   4.724  0.1218 -0.4566 -0.5278
18253SOL    HW160596   6.020   7.609   4.758  0.0916  1.1371 -0.3670
18253SOL    HW260597   6.126   7.524   4.692 -0.4538 -1.6067  2.0586
18254SOL     OW60598   0.905   6.932   1.229  0.5333 -0.5499  0.2852
18254SOL    HW160599   0.902   6.920   1.134  0.5437 -0.1720  0.2351
18254SOL    HW260600   0.814   6.939   1.256  0.5294  3.0140 -0.1941
18255SOL     OW60601   5.903   6.925   1.224 -0.5380 -0.6304 -0.3212
18255SOL    HW160602   5.937   6.835   1.227 -0.2091 -0.4722  1.4001
18255SOL    HW260603   5.978   6.977   1.196  0.6731 -0.3532  2.9762
18256SOL     OW60604  11.487   3.254   5.362  0.5018  0.3649 -0.0173
18256SOL    HW160605  11.516   3.314   5.294  0.6458  0.7782  0.3985
18256SOL    HW260606  11.551   3.183   5.361 -0.4177 -0.4955 -1.4225
18257SOL     OW60607   3.741  10.598   9.593 -0.7426  0.3595 -0.0567
18257SOL    HW160608   3.691  10.539   9.537 -0.5049  0.8073 -0.7453
18257SOL    HW260609   3.717  10.572   9.682 -1.8188  0.2480 -0.3680
18258SOL     OW60610   1.737   3.984   6.910 -0.2113 -0.1391  0.3105
18258SOL    HW160611   1.685   4.063   6.926 -2.1597 -1.3608  0.2291
18258SOL    HW260612   1.791   4.006   6.834  0.7101  1.7406  1.4170
18259SOL     OW60613   5.519   4.498  12.233 -0.7038  0.0816  0.4878
18259SOL    HW160614   5.551   4.526  12.147 -1.3470 -1.5549 -0.3383
18259SOL    HW260615   5.423   4.498  12.224 -0.7585 -1.6207  0.6292
18260SOL     OW60616   7.409  10.865   5.633  0.2311  0.2147 -0.0800
18260SOL    HW160617   7.402  10.887   5.725 -0.7933 -0.0145 -0.0900
18260SOL    HW260618   7.392  10.770   5.630  1.5797 -0.0497 -0.3682
18261SOL     OW60619  10.505  11.036   2.241 -0.1811  0.3459 -0.7889
18261SOL    HW160620  10.464  10.951   2.255 -1.7463  0.7592 -2.5797
18261SOL    HW260621  10.599  11.017   2.241 -0.4421 -1.1359  0.1601
18262SOL     OW60622  10.595   5.287   4.921  0.2545  0.0245  0.0332
18262SOL    HW160623  10.586   5.355   4.988 -1.5732 -0.4535  0.3164
18262SOL    HW260624  10.607   5.207   4.971 -0.8325 -0.2949 -0.2004
18263SOL     OW60625  12.053   7.834  11.173  0.1228  0.2241  0.0528
18263SOL    HW160626  12.053   7.930  11.166  1.1837  0.4656  2.5035
18263SOL    HW260627  11.975   7.814  11.224 -1.0890 -0.4378 -1.9426
18264SOL     OW60628  11.102  10.153   3.435 -0.8859 -0.3442 -0.1859
18264SOL    HW160629  11.197  10.169   3.437 -0.9315 -0.1218  0.6659
18264SOL    HW260630  11.081  10.147   3.342 -0.7173  3.7785 -0.6727
18265SOL     OW60631   2.741   1.691  10.309 -0.0616 -0.1549  0.4548
18265SOL    HW160632   2.695   1.774  10.300  0.2233  0.1794  1.8289
18265SOL    HW260633   2.811   1.709  10.373 -0.4017 -1.5907  1.2762
18266SOL     OW60634   5.996   6.473  11.959 -0.2074 -0.2253 -0.3543
18266SOL    HW160635   5.976   6.428  11.877 -2.0763 -0.3209  0.1057
18266SOL    HW260636   6.086   6.447  11.979 -0.0220 -0.9142 -1.9063
18267SOL     OW60637   4.590  11.260   9.886  0.0373  0.1235  0.3881
18267SOL    HW160638   4.517  11.281   9.829  0.1392  1.6726  0.7710
18267SOL    HW260639   4.668  11.274   9.832  0.0949 -1.8864 -0.1359
18268SOL     OW60640   7.130   1.533   4.634  0.4546  0.0333 -0.0648
18268SOL    HW160641   7.070   1.591   4.587  0.7223  0.5524  0.2230
18268SOL    HW260642   7.134   1.569   4.722  0.4831 -0.5382  0.1706
18269SOL     OW60643  11.111   4.541   6.499  0.2479  0.0033 -0.0288
18269SOL    HW160644  11.170   4.466   6.491 -0.8181 -0.9584  0.7399
18269SOL    HW260645  11.057   4.521   6.575 -1.7132  0.3786 -1.2360
18270SOL     OW60646   5.802   9.770   6.275 -0.0313  0.2771  0.0401
18270SOL    HW160647   5.759   9.714   6.339  0.4587 -0.4726 -0.2761
18270SOL    HW260648   5.732   9.798   6.216 -0.3906  0.5349  0.5858
18271SOL     OW60649   1.460   9.687   9.216 -0.2099 -0.0002 -0.0600
18271SOL    HW160650   1.382   9.635   9.234 -1.1507  0.4061 -2.5998
18271SOL    HW260651   1.527   9.621   9.195 -0.4994 -0.2910 -0.0903
18272SOL     OW60652   9.457   8.969   2.840  0.4235 -0.6428 -0.2942
18272SOL    HW160653   9.435   8.961   2.747  0.3344 -0.4513 -0.2899
18272SOL    HW260654   9.476   9.062   2.852  1.8806 -0.9003 -0.4364
18273SOL     OW60655   1.173   7.208  12.323  0.2764  0.0467 -0.3677
18273SOL    HW160656   1.091   7.184  12.279  0.1522  0.1291 -0.1868
18273SOL    HW260657   1.183   7.143  12.392 -0.2036  0.6448  0.2969
18274SOL     OW60658   6.304  11.260   4.614  0.0766 -0.1522 -0.4631
18274SOL    HW160659   6.262  11.175   4.601 -1.2612  0.5076 -0.6669
18274SOL    HW260660   6.374  11.243   4.677 -0.6978 -1.2519  0.1375
18275SOL     OW60661   1.479  11.796   3.947 -0.8275 -0.3596  0.0785
18275SOL    HW160662   1.492  11.715   3.996  0.7625 -1.6618 -2.3134
18275SOL    HW260663   1.554  11.850   3.969 -0.3301 -0.7743 -0.5768
18276SOL     OW60664   1.274   8.890  10.099  0.3252 -0.2035  0.2437
18276SOL    HW160665   1.360   8.872  10.138 -0.5768 -0.0005  2.4798
18276SOL    HW260666   1.216   8.827  10.140 -0.8443  0.5700 -0.1865
18277SOL     OW60667   0.173  10.389  10.575 -0.0040 -0.2688  0.7619
18277SOL    HW160668   0.265  10.415  10.574 -0.0920  0.1137  1.7044
18277SOL    HW260669   0.126  10.469  10.601 -0.6885 -0.2169 -0.5421
18278SOL     OW60670   5.510  10.041  11.851  0.0607 -0.1032  0.0376
18278SOL    HW160671   5.527  10.047  11.945  0.6758  1.3322 -0.1319
18278SOL    HW260672   5.423  10.003  11.844  1.2325 -3.2434  1.0830
18279SOL     OW60673   1.458   5.230   2.449 -0.6970 -0.5023 -0.1105
18279SOL    HW160674   1.506   5.206   2.528 -0.5165 -0.8559 -0.3238
18279SOL    HW260675   1.461   5.326   2.447 -0.5319 -0.4991  0.2041
18280SOL     OW60676  10.474   3.684   6.311 -0.2468  0.0527  0.3498
18280SOL    HW160677  10.499   3.774   6.331 -0.0513 -0.1723  1.1297
18280SOL    HW260678  10.522   3.630   6.374  0.2737 -0.6691 -0.6281
18281SOL     OW60679   2.412   8.890   6.644  0.0604  0.1545 -0.6130
18281SOL    HW160680   2.428   8.905   6.551  1.6854 -1.9117 -0.7523
18281SOL    HW260681   2.340   8.827   6.646  1.0710 -1.0463 -0.5980
18282SOL     OW60682  11.351   9.741   9.560 -0.0680 -0.9006  0.2379
18282SOL    HW160683  11.334   9.830   9.528 -0.3371 -1.6304 -1.8208
18282SOL    HW260684  11.272   9.718   9.610 -0.5002 -0.4020 -0.2003
18283SOL     OW60685  11.452   1.486   7.833  0.4377 -0.2656 -0.3894
18283SOL    HW160686  11.383   1.527   7.781 -0.3864 -1.4223 -0.2623
18283SOL    HW260687  11.417   1.400   7.856  1.3560 -0.3389  0.8921
18284SOL     OW60688   8.636   6.691   5.175 -0.1238 -0.4313 -0.3619
18284SOL    HW160689   8.655   6.642   5.095  1.8092 -0.4497  0.0602
18284SOL    HW260690   8.639   6.626   5.245  0.3102 -0.0787 -0.0447
18285SOL     OW60691   9.467  10.873   7.992 -0.4282 -0.4450  0.3778
18285SOL    HW160692   9.537  10.827   7.946 -0.3893  0.2707 -0.2914
18285SOL    HW260693   9.398  10.808   8.001 -0.1848 -0.7785 -0.1195
18286SOL     OW60694   5.115   1.553   8.765 -0.3250 -0.1124  0.4493
18286SOL    HW160695   5.109   1.636   8.717 -0.3507 -1.3721 -1.8741
18286SOL    HW260696   5.042   1.555   8.827  0.1450  1.9005  1.0097
18287SOL     OW60697   5.038   8.347   4.512 -0.4835  0.5023  0.3185
18287SOL    HW160698   5.106   8.350   4.444 -0.1748 -0.7872  0.5325
18287SOL    HW260699   4.981   8.420   4.492 -0.3266  0.2378 -1.2624
18288SOL     OW60700  12.312   9.626   4.594  0.1041  0.1317  0.2358
18288SOL    HW160701  12.324   9.598   4.503 -0.5617  0.7394 -0.0466
18288SOL    HW260702  12.247   9.696   4.590 -1.2802 -0.9915  1.3467
18289SOL     OW60703   3.481   6.316   4.952  0.1243 -0.3616 -0.0953
18289SOL    HW160704   3.522   6.276   4.875  0.8579  1.0268 -0.4429
18289SOL    HW260705   3.543   6.300   5.023 -0.9205 -2.3721  0.4611
18290SOL     OW60706   6.059  11.594   8.366  0.3489 -0.7747 -0.3979
18290SOL    HW160707   6.102  11.654   8.426  1.0385 -1.2506 -0.4030
18290SOL    HW260708   6.002  11.649   8.312 -1.6444 -0.5179  1.8104
18291SOL     OW60709   3.256   8.722   1.889  0.6083 -0.6657 -0.2792
18291SOL    HW160710   3.246   8.627   1.877  0.0835 -0.6290 -0.1221
18291SOL    HW260711   3.194   8.761   1.827  1.0593 -0.4167 -0.5807
18292SOL     OW60712   7.927   7.909   0.688  0.3971 -0.7086 -0.0491
18292SOL    HW160713   7.969   7.878   0.608 -0.1532  1.3391 -1.1982
18292SOL    HW260714   7.840   7.939   0.660  1.2544  2.8825  0.6256
18293SOL     OW60715   5.079   6.047   9.527  0.6383 -0.4473 -0.3012
18293SOL    HW160716   5.081   6.134   9.489  2.0831 -0.2579  0.1254
18293SOL    HW260717   5.010   6.001   9.480  0.3708  0.6916 -1.0526
18294SOL     OW60718   7.587   2.383   9.545 -0.1141  0.0812  0.2462
18294SOL    HW160719   7.589   2.396   9.451  1.0533  0.4225  0.2976
18294SOL    HW260720   7.590   2.471   9.582  1.3234 -0.0805  0.5857
18295SOL     OW60721   7.848  11.116   2.949 -0.3561 -0.2742  0.5780
18295SOL    HW160722   7.780  11.119   2.882  1.4809  1.1431 -1.3446
18295SOL    HW260723   7.897  11.036   2.931  1.8921  1.4660 -1.7676
18296SOL     OW60724   0.804  12.151   8.359 -0.3437 -0.0639 -0.0770
18296SOL    HW160725   0.771  12.069   8.396 -1.3602  0.1865 -0.3776
18296SOL    HW260726   0.837  12.200   8.434 -0.1475 -0.5591  0.1633
18297SOL     OW60727   7.690   1.931   5.191 -0.1038  0.1210 -0.2635
18297SOL    HW160728   7.640   1.991   5.136 -1.9459  0.4568  1.6702
18297SOL    HW260729   7.727   1.987   5.260 -2.6415 -0.9473  2.1313
18298SOL     OW60730   1.651   8.650   8.743  0.5708 -0.0597 -0.2248
18298SOL    HW160731   1.610   8.686   8.822  1.7942  0.2684  0.2912
18298SOL    HW260732   1.637   8.717   8.676 -2.9409 -1.5296 -1.1367
18299SOL     OW60733  11.261   7.720   1.051  0.3768 -0.3592 -0.5085
18299SOL    HW160734  11.267   7.671   0.968  0.7128 -1.3026  0.0496
18299SOL    HW260735  11.353   7.735   1.075  0.2914 -0.6438  0.0020
18300SOL     OW60736  10.953   4.141   6.941 -0.7158 -0.1042 -0.1633
18300SOL    HW160737  11.031   4.116   6.992 -1.2445  0.6416  1.0667
18300SOL    HW260738  10.946   4.074   6.873  0.8774 -0.2996 -0.1776
18301SOL     OW60739   7.912  10.096   1.752 -0.4294  0.1900  0.2641
18301SOL    HW160740   7.959  10.112   1.670 -0.2290 -0.9198  0.1372
18301SOL    HW260741   7.958  10.148   1.817  0.2992 -0.0085 -0.0747
18302SOL     OW60742   9.282   9.137   6.906 -0.1706 -0.2619  0.2191
18302SOL    HW160743   9.204   9.102   6.862 -0.3359  0.8472 -0.4024
18302SOL    HW260744   9.247   9.184   6.982 -0.0171 -0.6489  0.5352
18303SOL     OW60745  11.527  10.742  11.411  0.0991  0.2878  0.1355
18303SOL    HW160746  11.529  10.828  11.371 -2.4679  0.2166 -0.3604
18303SOL    HW260747  11.514  10.682  11.338  1.5764 -0.5302  0.5050
18304SOL     OW60748   8.840   9.080  12.290 -0.0651  0.7820 -0.7891
18304SOL    HW160749   8.888   9.123  12.361 -0.5718  0.1762 -0.0512
18304SOL    HW260750   8.774   9.144  12.263 -0.1263  0.8687 -0.4378
18305SOL     OW60751   2.958   6.029   7.199  0.3376  0.3912 -0.0361
18305SOL    HW160752   3.028   6.009   7.136 -0.6268 -0.2453 -0.9469
18305SOL    HW260753   2.914   6.106   7.163  0.5750  0.8079  0.5500
18306SOL     OW60754   7.484   2.767   4.072 -0.4425  0.4929 -0.1623
18306SOL    HW160755   7.490   2.789   3.979 -0.9781  1.6446  0.0535
18306SOL    HW260756   7.393   2.738   4.084  0.1629 -1.6215 -0.3731
18307SOL     OW60757   1.752   1.492   7.687  0.6817  0.2882 -0.3517
18307SOL    HW160758   1.816   1.504   7.617 -0.2752 -0.7951 -1.4679
18307SOL    HW260759   1.710   1.409   7.667 -0.8590  0.8085  0.5124
18308SOL     OW60760   3.681  10.374   7.773  0.4647 -0.0019 -0.5236
18308SOL    HW160761   3.709  10.291   7.735 -2.0057 -1.0373 -0.3157
18308SOL    HW260762   3.628  10.416   7.705  0.6805  0.8269 -0.2015
18309SOL     OW60763   7.976  11.636  10.312  0.1137  0.4419  0.0441
18309SOL    HW160764   7.966  11.712  10.368  0.3735  1.2930 -1.0293
18309SOL    HW260765   8.057  11.595  10.340  0.1564  0.7613  0.3937
18310SOL     OW60766   4.208  10.854   9.159  0.2681  0.0474 -0.0500
18310SOL    HW160767   4.195  10.948   9.164 -0.3855 -0.0542  0.3261
18310SOL    HW260768   4.133  10.822   9.109 -1.7986 -0.6888  3.1823
18311SOL     OW60769  10.689   2.536  11.081 -0.1143 -0.5285  0.0943
18311SOL    HW160770  10.729   2.530  11.168 -0.4738 -0.6076  0.2564
18311SOL    HW260771  10.759   2.509  11.021 -0.3939 -2.2360  0.4936
18312SOL     OW60772   7.624   4.031   5.788 -0.2417  0.7412  0.0794
18312SOL    HW160773   7.594   4.073   5.869  1.5662  1.1328  0.6026
18312SOL    HW260774   7.554   3.971   5.764 -1.4041  1.6091  1.1941
18313SOL     OW60775   1.810   8.149   1.310  0.1786 -0.2318 -0.4161
18313SOL    HW160776   1.720   8.148   1.279  0.3738  0.7427 -1.0718
18313SOL    HW260777   1.837   8.241   1.302  0.9043 -0.3189  0.7271
18314SOL     OW60778   8.651   3.263   7.116  0.8848 -0.0667 -0.6918
18314SOL    HW160779   8.738   3.257   7.156  1.7565 -0.3811 -2.5121
18314SOL    HW260780   8.641   3.356   7.094  1.5081 -0.2720 -1.9563
18315SOL     OW60781   6.638   6.666   3.879  0.6845 -0.1501  0.0290
18315SOL    HW160782   6.573   6.705   3.820  1.3103  0.1424 -0.4810
18315SOL    HW260783   6.589   6.601   3.929 -0.0716  0.2910 -0.1154
18316SOL     OW60784   8.030   9.294   4.527 -0.1624  0.3010  0.1057
18316SOL    HW160785   7.952   9.290   4.471  0.1027 -0.6475 -0.2107
18316SOL    HW260786   8.081   9.217   4.502 -1.0011 -1.3452  3.0494
18317SOL     OW60787   3.263  12.130   1.739  0.0156  0.4286  0.2046
18317SOL    HW160788   3.311  12.054   1.770 -1.8450 -0.1677  1.8140
18317SOL    HW260789   3.240  12.109   1.648  0.8360 -0.2284  0.1407
18318SOL     OW60790   1.310  10.674   1.013  0.0308 -0.0224 -0.3258
18318SOL    HW160791   1.401  10.657   1.036 -0.1089 -0.5039 -0.1284
18318SOL    HW260792   1.298  10.767   1.032  1.2875  0.7976 -3.0245
18319SOL     OW60793   4.792   2.135   5.507 -0.3245 -0.7108 -0.0829
18319SOL    HW160794   4.848   2.062   5.482 -0.7127 -0.5268 -1.5610
18319SOL    HW260795   4.852   2.205   5.531  0.1324 -0.3897 -2.0085
18320SOL     OW60796   4.202  10.910   1.858  0.0285 -0.3044  0.2486
18320SOL    HW160797   4.199  10.889   1.765  1.9627 -0.8494  0.2550
18320SOL    HW260798   4.127  10.865   1.896 -0.0708 -1.1150 -0.8675
18321SOL     OW60799   5.802   6.511   6.935  0.3198 -0.3802  0.1740
18321SOL    HW160800   5.785   6.484   6.844  0.8194  2.6951 -0.9515
18321SOL    HW260801   5.898   6.513   6.941  0.2879 -0.4888  0.7738
18322SOL     OW60802   2.989   1.812   9.856 -0.3749 -0.0760  0.8735
18322SOL    HW160803   2.932   1.735   9.855 -0.1433 -0.2512  1.0914
18322SOL    HW260804   3.073   1.780   9.888  0.2179 -0.0743 -0.5975
18323SOL     OW60805  10.301   7.790   3.475 -0.6460 -0.4067 -0.3002
18323SOL    HW160806  10.208   7.770   3.487 -0.9847  0.4864 -1.2861
18323SOL    HW260807  10.317   7.865   3.533 -0.2701 -1.2155  0.6616
18324SOL     OW60808   2.316   5.511   3.273 -0.2295 -0.2978  0.4079
18324SOL    HW160809   2.377   5.437   3.277 -0.2223 -0.2439  2.0257
18324SOL    HW260810   2.371   5.588   3.272 -0.1960 -0.2526 -2.4971
18325SOL     OW60811  11.670   4.393   2.407 -0.3389  0.6448  0.1550
18325SOL    HW160812  11.750   4.420   2.452  0.2546  0.9642 -1.0419
18325SOL    HW260813  11.645   4.311   2.449  1.3997 -0.1926 -0.3398
18326SOL     OW60814   3.648   5.590   6.681  0.3263  0.4594 -0.0310
18326SOL    HW160815   3.600   5.669   6.657  0.4369  0.4300 -0.3450
18326SOL    HW260816   3.700   5.616   6.757 -0.0619  0.5346  0.2152
18327SOL     OW60817   4.873   1.673   0.409 -0.7439 -0.8319 -0.3333
18327SOL    HW160818   4.810   1.616   0.452 -0.3390 -0.7258  0.4295
18327SOL    HW260819   4.863   1.655   0.316 -1.9884 -0.7133 -0.2365
18328SOL     OW60820   9.136   0.838   0.028  0.6720  0.6966 -0.2536
18328SOL    HW160821   9.091   0.754   0.042 -0.6597  1.2088 -1.2840
18328SOL    HW260822   9.195   0.821  -0.045 -0.4637  0.9481 -1.2501
18329SOL     OW60823   1.117   3.848  10.921 -0.0803  0.1419  0.1546
18329SOL    HW160824   1.188   3.783  10.920 -0.4418 -0.3109  1.4942
18329SOL    HW260825   1.094   3.857  11.014 -0.6410  1.5421 -0.0946
18330SOL     OW60826   5.360   4.132   5.257 -0.2519 -0.3630 -0.4668
18330SOL    HW160827   5.445   4.099   5.285 -0.5685 -0.0367  0.9413
18330SOL    HW260828   5.328   4.184   5.331 -1.5439 -0.2334 -1.0784
18331SOL     OW60829   3.991   3.733   2.204  0.3158  0.1209 -0.4388
18331SOL    HW160830   4.067   3.682   2.177  0.6221  0.0451  0.5246
18331SOL    HW260831   3.991   3.727   2.300  0.9774  2.8027 -0.1925
18332SOL     OW60832   2.317   6.475   5.901  0.1254 -0.2719  0.2243
18332SOL    HW160833   2.295   6.385   5.876  1.0459 -0.3480 -0.3810
18332SOL    HW260834   2.409   6.485   5.873 -0.2570  1.1649 -0.6236
18333SOL     OW60835   2.704   0.248   8.819 -0.1321  0.4296 -0.5756
18333SOL    HW160836   2.721   0.258   8.725  2.2926 -0.4733 -0.3083
18333SOL    HW260837   2.610   0.235   8.825 -0.5084  1.6589 -2.7630
18334SOL     OW60838   7.347   9.994   3.584 -0.6539 -0.5247  0.0370
18334SOL    HW160839   7.323   9.904   3.561  0.4083 -0.4712 -1.4129
18334SOL    HW260840   7.442   9.992   3.593 -0.7749  0.1117  1.7263
18335SOL     OW60841  11.172   5.116   3.290  0.1295 -0.7018 -0.2803
18335SOL    HW160842  11.247   5.060   3.312  0.2385 -0.0222  1.2479
18335SOL    HW260843  11.097   5.072   3.330  0.1278 -0.0868  0.4182
18336SOL     OW60844   5.820   8.155   5.795 -0.4487  0.1648  0.2391
18336SOL    HW160845   5.843   8.166   5.703 -1.3130  1.1724  0.1236
18336SOL    HW260846   5.724   8.152   5.796 -0.4381 -2.6653  0.8256
18337SOL     OW60847   4.673   8.782   9.675  0.0669 -0.3688  0.3621
18337SOL    HW160848   4.600   8.838   9.648 -1.3337  0.2235  4.7078
18337SOL    HW260849   4.647   8.695   9.646 -2.8257 -0.2964  2.3220
18338SOL     OW60850   9.248   3.759  11.323  0.0911 -0.0220  0.7692
18338SOL    HW160851   9.182   3.739  11.390 -0.9146  0.3036 -0.0838
18338SOL    HW260852   9.208   3.728  11.241  0.7581  0.7068  0.1570
18339SOL     OW60853   1.287   5.777   0.943 -0.5216 -0.6123 -0.5033
18339SOL    HW160854   1.326   5.700   0.902  1.8488 -0.0911  0.6179
18339SOL    HW260855   1.343   5.795   1.019 -4.4420 -1.3563  2.9364
18340SOL     OW60856  11.131   8.282   0.190  0.1412 -0.3104 -0.2312
18340SOL    HW160857  11.153   8.345   0.120  1.1710 -0.0825  0.2869
18340SOL    HW260858  11.063   8.327   0.241 -0.8548 -0.6044 -1.2449
18341SOL     OW60859   1.300   2.894   3.544  0.6357  0.1444  0.2280
18341SOL    HW160860   1.275   2.854   3.627 -0.4199 -1.1014 -0.6454
18341SOL    HW260861   1.375   2.843   3.513  1.2732  0.8496  0.5775
18342SOL     OW60862   4.582   0.053   9.343  0.0637 -0.4992  0.8038
18342SOL    HW160863   4.658   0.070   9.287 -0.4432  0.8945  0.5033
18342SOL    HW260864   4.608   0.090   9.428 -0.7224  1.1296  0.3730
18343SOL     OW60865  10.413   8.104   2.103  0.1619  0.3488 -0.5143
18343SOL    HW160866  10.417   8.111   2.198  0.0654  2.0096 -0.6055
18343SOL    HW260867  10.499   8.068   2.078  1.3909  2.7084  0.0280
18344SOL     OW60868  12.214   6.439   7.683  0.0285 -0.7982 -0.4412
18344SOL    HW160869  12.286   6.491   7.719 -1.6670  2.4064 -1.2243
18344SOL    HW260870  12.155   6.424   7.757  0.3908 -1.3886 -0.2693
18345SOL     OW60871   5.255   6.965   3.529 -0.3356 -0.6114 -0.1946
18345SOL    HW160872   5.333   6.925   3.569 -1.0083 -0.4303  1.3383
18345SOL    HW260873   5.196   6.891   3.514 -1.0385 -0.4080  1.3994
18346SOL     OW60874   2.065   8.567   6.161 -0.5821 -0.2097  0.4872
18346SOL    HW160875   2.108   8.482   6.172  0.5153  0.3635  0.8299
18346SOL    HW260876   2.020   8.582   6.244  0.9961  0.4702  1.2766
18347SOL     OW60877  11.686  10.520   0.317 -0.6634  0.4165 -0.1014
18347SOL    HW160878  11.682  10.595   0.376 -0.6659  0.8470 -0.6441
18347SOL    HW260879  11.688  10.558   0.230 -2.6023 -0.2474 -0.4788
18348SOL     OW60880   5.264   5.585   7.271  0.2811  0.3197 -0.0068
18348SOL    HW160881   5.262   5.680   7.268  0.5420  0.3336  0.1800
18348SOL    HW260882   5.192   5.557   7.215 -0.6402  0.6334  0.9856
18349SOL     OW60883   1.378  10.527   0.700  0.1737  0.5768  0.1354
18349SOL    HW160884   1.374  10.467   0.626  1.1157  0.0336  0.5112
18349SOL    HW260885   1.471  10.531   0.723 -0.1783  0.1147  1.7875
18350SOL     OW60886   5.619   0.455   4.879 -0.0055 -0.0514  0.5962
18350SOL    HW160887   5.592   0.522   4.817  1.9238  1.6557  1.4507
18350SOL    HW260888   5.702   0.423   4.844 -0.3233 -1.1592  0.8240
18351SOL     OW60889   2.904   0.468   6.317 -0.0971  0.6677  0.2168
18351SOL    HW160890   2.914   0.393   6.259  1.4866  0.9728  0.0333
18351SOL    HW260891   2.842   0.439   6.384 -2.0984  0.3653 -1.6623
18352SOL     OW60892   9.646   1.262   4.633  0.4060  0.0600  0.2070
18352SOL    HW160893   9.628   1.202   4.561  0.2423  2.1434 -1.5879
18352SOL    HW260894   9.595   1.227   4.706 -2.0827 -0.3589 -1.6114
18353SOL     OW60895   8.534  10.277   9.009 -0.1937  0.0495  0.1246
18353SOL    HW160896   8.447  10.250   8.980 -0.3393  1.2123 -0.5781
18353SOL    HW260897   8.527  10.287   9.103 -0.9613  0.5931  0.0157
18354SOL     OW60898   5.785   5.968   2.383  0.1522  0.0838  0.0605
18354SOL    HW160899   5.705   5.970   2.436  0.8199  1.8661  1.0974
18354SOL    HW260900   5.814   5.877   2.387 -0.7647 -0.1870  1.3356
18355SOL     OW60901   3.470   8.132   7.219 -0.4181  0.0411 -0.2507
18355SOL    HW160902   3.407   8.194   7.255 -0.1145  0.4103 -0.3502
18355SOL    HW260903   3.496   8.170   7.135 -0.5117 -0.4076 -0.4902
18356SOL     OW60904   2.132  10.846   2.857 -0.3049  0.0995 -0.4162
18356SOL    HW160905   2.057  10.845   2.797 -0.9522  0.6992  0.3573
18356SOL    HW260906   2.093  10.846   2.944  0.6202 -0.4841  0.0108
18357SOL     OW60907   2.098  11.449   2.834 -0.5009 -0.0771  0.0596
18357SOL    HW160908   2.104  11.483   2.924  1.0354  0.6638 -0.2923
18357SOL    HW260909   2.097  11.354   2.845 -1.5820  0.0102  0.9074
18358SOL     OW60910   4.298  11.442   0.949  0.2832  0.7608  0.0816
18358SOL    HW160911   4.352  11.363   0.958  0.6690  1.1456  1.3263
18358SOL    HW260912   4.361  11.514   0.946 -0.1242  1.1341  0.4271
18359SOL     OW60913   6.450  10.718  10.205  0.0115  0.2623 -0.2722
18359SOL    HW160914   6.409  10.653  10.262 -0.5832  1.4283  0.6683
18359SOL    HW260915   6.390  10.724  10.130 -0.6412  0.6799  0.2692
18360SOL     OW60916   6.759   4.491   3.861  0.3152  0.1905 -0.7439
18360SOL    HW160917   6.725   4.535   3.783 -0.7751 -0.7442 -0.8036
18360SOL    HW260918   6.747   4.398   3.844  1.1460 -0.0786  0.0585
18361SOL     OW60919  11.404   1.434   7.270 -1.1400 -0.3804  0.0554
18361SOL    HW160920  11.332   1.481   7.229 -0.7696  0.5442  0.4412
18361SOL    HW260921  11.368   1.400   7.352 -1.3811 -0.6979 -0.1792
18362SOL     OW60922   6.813   4.477   8.298  0.2513 -0.4708 -0.3555
18362SOL    HW160923   6.787   4.413   8.232  0.4974  2.0059 -3.0618
18362SOL    HW260924   6.898   4.509   8.268  0.1613  1.0793  0.9152
18363SOL     OW60925  11.104  12.026  11.656 -0.2837  0.0584 -0.3837
18363SOL    HW160926  11.170  11.984  11.711 -0.0617 -0.3384 -0.9400
18363SOL    HW260927  11.104  12.118  11.684 -0.7750 -0.3018  0.8449
18364SOL     OW60928   9.537   2.172   7.875 -0.3035  0.0388 -0.3254
18364SOL    HW160929   9.590   2.227   7.817 -0.4451  1.0288  0.4492
18364SOL    HW260930   9.465   2.228   7.902 -1.5664 -1.1811 -1.0625
18365SOL     OW60931   1.316   1.776   7.165  0.6033  0.2149 -0.2221
18365SOL    HW160932   1.338   1.814   7.250  0.7965 -0.2482 -0.0587
18365SOL    HW260933   1.221   1.766   7.168  0.8071 -2.4074  1.1140
18366SOL     OW60934   8.262   0.511   8.210 -0.3674 -0.3279 -0.0722
18366SOL    HW160935   8.195   0.482   8.272 -0.2752 -0.7882 -0.1884
18366SOL    HW260936   8.302   0.431   8.178 -0.3357 -0.0858 -0.6473
18367SOL     OW60937   5.379   2.066   8.817  0.0743  0.8415 -0.0049
18367SOL    HW160938   5.415   2.087   8.731  0.6757  0.1358  0.0559
18367SOL    HW260939   5.414   2.134   8.875  2.3273 -0.4328  0.2746
18368SOL     OW60940   7.131   0.314   6.813 -0.2322 -0.3267 -0.0959
18368SOL    HW160941   7.037   0.307   6.801 -0.6564 -1.7183  2.9836
18368SOL    HW260942   7.143   0.396   6.861  0.0628 -0.3240 -0.1728
18369SOL     OW60943   8.790   4.759   6.306  0.1954 -0.1189  0.1374
18369SOL    HW160944   8.820   4.669   6.320  1.7517  0.4675  0.8457
18369SOL    HW260945   8.752   4.785   6.390 -0.4812 -0.1911 -0.1440
18370SOL     OW60946  10.657   3.649   6.552 -0.2533  0.3332  0.2027
18370SOL    HW160947  10.672   3.560   6.586  0.2108 -0.7473 -2.5805
18370SOL    HW260948  10.623   3.698   6.627 -2.7075 -2.7698  1.3468
18371SOL     OW60949  11.545   9.261   9.974  0.1213  0.2655  0.1266
18371SOL    HW160950  11.596   9.197   9.924 -0.4343 -0.7709  0.8541
18371SOL    HW260951  11.590   9.345   9.959  1.8441 -0.5466  0.4926
18372SOL     OW60952   8.253   1.548   4.763  0.0415  0.0482 -0.6980
18372SOL    HW160953   8.223   1.603   4.835  1.8430 -1.7953  1.6708
18372SOL    HW260954   8.346   1.571   4.753 -0.3593  0.8512 -3.0848
18373SOL     OW60955   5.859  10.420   7.951  0.0249 -0.2725  0.1609
18373SOL    HW160956   5.881  10.366   8.028  3.4956 -0.3728 -0.7640
18373SOL    HW260957   5.823  10.501   7.988 -1.9129 -1.7128  1.6813
18374SOL     OW60958   6.825   3.769   2.454 -0.5578  0.1863  0.2450
18374SOL    HW160959   6.781   3.794   2.535 -0.4085 -0.3154  0.4888
18374SOL    HW260960   6.859   3.851   2.418 -1.1060  0.4851  0.4022
18375SOL     OW60961   7.356   7.129   5.544  0.1945  0.3630  0.2154
18375SOL    HW160962   7.357   7.098   5.454  0.2025  1.2958 -0.1229
18375SOL    HW260963   7.264   7.148   5.562  0.2325  0.4844  0.2867
18376SOL     OW60964   1.897   7.100   0.609 -0.6335 -0.1703  0.7100
18376SOL    HW160965   1.916   7.062   0.695 -0.9283  0.3097  0.9863
18376SOL    HW260966   1.901   7.194   0.622  2.1971 -0.0272 -0.4199
18377SOL     OW60967   6.054   4.885   1.412  0.0635 -0.0327 -0.3431
18377SOL    HW160968   6.067   4.870   1.319 -0.3105  0.1108 -0.4207
18377SOL    HW260969   6.106   4.963   1.432  1.8005 -1.2366  0.0060
18378SOL     OW60970   3.759   1.823   3.113  0.0292  0.3338  0.2215
18378SOL    HW160971   3.669   1.809   3.142 -0.2451 -0.3761 -0.8911
18378SOL    HW260972   3.812   1.810   3.191 -0.6581 -1.7049  0.4145
18379SOL     OW60973   4.513   9.468   9.545  0.2584 -0.3235 -0.3502
18379SOL    HW160974   4.575   9.413   9.497  1.7171  0.3299  0.6893
18379SOL    HW260975   4.561   9.549   9.560 -0.3352 -0.3142  1.7186
18380SOL     OW60976   7.639   5.121   7.885 -0.7049  0.4990  0.3333
18380SOL    HW160977   7.600   5.047   7.840  2.2915 -0.8484 -0.2838
18380SOL    HW260978   7.641   5.191   7.819 -1.5119  0.4214  0.2186
18381SOL     OW60979   5.191   7.980   7.651  0.2584 -0.2126 -1.3130
18381SOL    HW160980   5.248   7.919   7.606  1.5998 -0.6733  0.8567
18381SOL    HW260981   5.245   8.016   7.722 -2.2982 -1.4226  1.5167
18382SOL     OW60982  11.294   9.135   9.411 -0.0819  0.2630  0.0860
18382SOL    HW160983  11.352   9.180   9.471 -0.0321 -1.4293  1.3729
18382SOL    HW260984  11.334   9.147   9.325  0.8169  1.1967  0.6158
18383SOL     OW60985   8.682   4.108   5.728  0.2263 -0.4598 -0.0296
18383SOL    HW160986   8.764   4.118   5.679 -0.3501  0.3159 -0.8466
18383SOL    HW260987   8.693   4.166   5.804 -0.3868  1.3058 -1.2354
18384SOL     OW60988   5.530   6.538   7.355  0.1621 -0.1173  0.1498
18384SOL    HW160989   5.574   6.493   7.284 -0.6505  1.2068 -1.2343
18384SOL    HW260990   5.567   6.626   7.356 -2.7613  1.2913 -1.5383
18385SOL     OW60991   2.200   3.835   9.940 -0.1364  0.0900 -0.5676
18385SOL    HW160992   2.138   3.853  10.011 -0.0440 -1.0800 -0.1726
18385SOL    HW260993   2.219   3.921   9.903 -0.3279  0.7143  0.7070
18386SOL     OW60994   3.036   1.913   2.166 -0.2472  0.3391 -0.2103
18386SOL    HW160995   3.073   1.869   2.090  0.5127  1.1303 -0.3175
18386SOL    HW260996   2.980   1.982   2.129 -0.1554  0.4983 -0.0560
18387SOL     OW60997   4.640   2.763  11.289 -0.2495  0.3653  0.1454
18387SOL    HW160998   4.732   2.752  11.262 -1.0555 -2.5976 -1.8759
18387SOL    HW260999   4.596   2.794  11.210 -1.2899 -0.2180  0.4858
18388SOL     OW61000   3.454  10.337   8.732  0.2168 -0.2359  0.5218
18388SOL    HW161001   3.495  10.373   8.653  0.7188 -2.1522 -0.1491
18388SOL    HW261002   3.526  10.293   8.778 -0.7657 -2.6583 -0.0786
18389SOL     OW61003   9.233  12.113   9.232 -0.2040 -0.7988 -0.2214
18389SOL    HW161004   9.222  12.136   9.140  0.1713  0.4463  0.0201
18389SOL    HW261005   9.149  12.074   9.257 -0.1721 -1.5290 -1.1759
18390SOL     OW61006   1.921   2.702   5.219  0.0117 -0.6509  0.8205
18390SOL    HW161007   1.951   2.615   5.244  1.6793 -0.3102  0.1378
18390SOL    HW261008   1.885   2.740   5.299  2.4282 -0.7034  1.9858
18391SOL     OW61009   5.328   5.155  10.068 -0.2357  0.6696  0.5690
18391SOL    HW161010   5.336   5.076  10.015 -0.4915  1.1065 -0.1302
18391SOL    HW261011   5.413   5.165  10.110 -0.2193 -0.0015  0.6959
18392SOL     OW61012   2.303   1.077   2.384 -0.1639 -0.1844  0.8875
18392SOL    HW161013   2.357   1.001   2.406  3.1524  1.5098 -0.7015
18392SOL    HW261014   2.310   1.084   2.288 -2.8915  0.4439  0.6516
18393SOL     OW61015   4.759   1.295   2.055  0.3828 -0.2746  0.2715
18393SOL    HW161016   4.708   1.232   2.105 -0.6815 -0.4732 -1.0198
18393SOL    HW261017   4.710   1.377   2.064  0.3960 -0.2232 -0.1294
18394SOL     OW61018  11.131   9.286   2.329  0.0214 -0.1701 -0.3963
18394SOL    HW161019  11.187   9.240   2.392  0.7362 -2.1707 -2.3719
18394SOL    HW261020  11.042   9.264   2.355  0.3302 -1.7526 -0.6142
18395SOL     OW61021   3.952   4.561   4.393  0.2727 -0.0006  0.0373
18395SOL    HW161022   4.043   4.532   4.384 -0.2487 -1.9828  0.6516
18395SOL    HW261023   3.924   4.579   4.303  1.3705  1.0831 -0.1245
18396SOL     OW61024   3.998   0.513   2.613 -0.2073  0.4688 -0.4436
18396SOL    HW161025   3.975   0.567   2.689 -0.7098  1.6149 -1.3721
18396SOL    HW261026   3.965   0.426   2.635  0.5971  0.5007  1.0868
18397SOL     OW61027   5.107   2.508   4.867 -0.0191 -0.4308 -0.7446
18397SOL    HW161028   5.042   2.479   4.931 -2.0783 -1.3391 -3.0537
18397SOL    HW261029   5.192   2.493   4.909 -1.2532 -1.5826  1.4731
18398SOL     OW61030   3.215  11.708   5.100 -0.4661 -0.1113 -0.2312
18398SOL    HW161031   3.187  11.673   5.016  1.1978 -2.2199  0.0131
18398SOL    HW261032   3.265  11.637   5.140  0.9831  1.7356  1.4176
18399SOL     OW61033   0.052  10.856   4.248  0.3196  0.3707 -0.1233
18399SOL    HW161034   0.055  10.829   4.340  1.2078 -1.8364 -0.7311
18399SOL    HW261035   0.132  10.908   4.235  0.2167  0.6453  0.3148
18400SOL     OW61036  10.112   1.981  11.028  0.0771  0.2658  0.7948
18400SOL    HW161037  10.094   1.952  11.117 -1.0812  2.3062  1.3149
18400SOL    HW261038  10.177   2.050  11.038  2.1493 -1.4184 -0.2965
18401SOL     OW61039   7.865  12.171   5.529  0.0110 -0.3459  0.5283
18401SOL    HW161040   7.822  12.134   5.606  0.6145 -0.1673  0.9602
18401SOL    HW261041   7.915  12.246   5.563 -0.3271  0.2008 -0.1588
18402SOL     OW61042   9.063   2.277  10.828 -0.4218 -0.1692  0.1047
18402SOL    HW161043   9.074   2.231  10.911  1.5534  1.4308  0.8132
18402SOL    HW261044   9.010   2.353  10.849 -2.0746 -1.0436 -0.6783
18403SOL     OW61045  10.031   8.093  12.173  0.0151 -0.0844  0.0217
18403SOL    HW161046  10.045   8.171  12.226 -0.9276  0.1967 -0.1296
18403SOL    HW261047   9.997   8.126  12.090  0.7182 -0.5765 -0.4750
18404SOL     OW61048  11.133   7.772   5.451 -0.2593  0.0784  0.2395
18404SOL    HW161049  11.219   7.735   5.471 -1.1505 -1.9441  0.5973
18404SOL    HW261050  11.113   7.738   5.363 -0.8167  0.2610  0.2926
18405SOL     OW61051   7.913  11.083   2.232  0.2707  0.0196 -0.1333
18405SOL    HW161052   7.858  11.161   2.241 -1.3043 -0.6332 -2.9276
18405SOL    HW261053   7.869  11.017   2.286 -0.9862 -0.1120 -1.2577
18406SOL     OW61054  11.194   5.895   0.143  0.5090 -0.4318  0.1418
18406SOL    HW161055  11.126   5.833   0.171  0.4728 -0.5477 -0.1938
18406SOL    HW261056  11.267   5.839   0.115  0.7511 -0.3075  0.5190
18407SOL     OW61057   8.525   1.179   0.313 -0.1888  0.2032  0.0614
18407SOL    HW161058   8.571   1.146   0.236  0.0628 -0.6021  0.5464
18407SOL    HW261059   8.552   1.270   0.320 -0.3920  0.3548 -0.9308
18408SOL     OW61060   4.492   8.267   1.956  0.6428 -0.1354  0.1449
18408SOL    HW161061   4.402   8.300   1.963  0.3922 -1.0428  1.9363
18408SOL    HW261062   4.494   8.219   1.873 -0.5652 -0.1915  0.1290
18409SOL     OW61063  11.596   6.804   8.579  0.0559  0.1546 -0.3728
18409SOL    HW161064  11.681   6.836   8.548 -0.6980  0.7964 -1.9168
18409SOL    HW261065  11.534   6.872   8.552 -0.8532  0.0933  1.4524
18410SOL     OW61066  12.050   5.177   2.747 -0.2041  0.0687 -0.0548
18410SOL    HW161067  11.999   5.243   2.793 -0.1674  0.4326 -0.5234
18410SOL    HW261068  11.994   5.151   2.674  0.5295  0.9715 -0.9787
18411SOL     OW61069   1.721  11.432  12.225  0.1213  0.1855 -0.0734
18411SOL    HW161070   1.744  11.344  12.253  0.2671  0.6496  1.3588
18411SOL    HW261071   1.806  11.475  12.209  0.0515  0.0738 -0.7696
18412SOL     OW61072   9.106   0.091   2.681 -0.6818  0.2786  0.1959
18412SOL    HW161073   9.091   0.143   2.603  1.0058  0.8209  0.1842
18412SOL    HW261074   9.019   0.073   2.716 -1.4418  0.3366 -1.5860
18413SOL     OW61075   3.112   8.805   8.439  0.3982  0.9736  0.4311
18413SOL    HW161076   3.065   8.752   8.374 -0.4964  0.5770  1.3781
18413SOL    HW261077   3.053   8.810   8.514  1.9547  0.2858  1.7578
18414SOL     OW61078   0.773  11.137   1.341 -0.0550  0.5274 -0.0803
18414SOL    HW161079   0.705  11.084   1.383  0.5798 -0.3096 -0.0904
18414SOL    HW261080   0.806  11.193   1.411 -1.0789  1.2875 -0.1881
18415SOL     OW61081   9.799   5.082   2.408  0.1630 -0.6265  0.5764
18415SOL    HW161082   9.711   5.121   2.407  1.0319  1.4569 -0.3957
18415SOL    HW261083   9.803   5.036   2.492 -0.7728  1.9434  2.1724
18416SOL     OW61084   0.010  10.046   3.811  0.0406 -0.1349 -0.0900
18416SOL    HW161085  -0.039  10.128   3.802  0.3754  0.1006  0.2239
18416SOL    HW261086  -0.058   9.979   3.813 -0.3218  0.2401  0.9608
18417SOL     OW61087   5.813  10.000   2.665 -0.2110 -0.2898  0.5465
18417SOL    HW161088   5.901   9.963   2.653 -0.5914 -1.9615  2.4682
18417SOL    HW261089   5.792  10.038   2.579  1.4292 -1.9369 -0.6900
18418SOL     OW61090   5.057   6.204   6.232  0.3662 -0.2922  0.4866
18418SOL    HW161091   5.119   6.135   6.257  1.7664  0.0605 -1.7595
18418SOL    HW261092   4.999   6.163   6.168  0.7480  0.3808 -0.3150
18419SOL     OW61093  11.742   0.925   0.725 -0.1337  0.2481 -0.1193
18419SOL    HW161094  11.781   0.915   0.812 -0.0764 -1.5013 -0.3104
18419SOL    HW261095  11.812   0.899   0.665 -1.0198 -1.2882 -0.5366
18420SOL     OW61096   7.959   9.474   0.240 -0.0585 -0.3502  0.3269
18420SOL    HW161097   7.889   9.437   0.294 -0.5046 -0.5852 -0.3914
18420SOL    HW261098   7.952   9.568   0.253  0.0746 -0.4209  0.9543
18421SOL     OW61099   5.153   1.003   0.673 -0.3564 -0.2890 -0.7243
18421SOL    HW161100   5.191   0.958   0.748  1.0225  1.4184 -0.3411
18421SOL    HW261101   5.093   1.068   0.711  0.7040  0.9091 -1.0275
18422SOL     OW61102  10.345   4.202  10.811  0.1365 -0.0153 -0.1697
18422SOL    HW161103  10.430   4.215  10.769  0.7909 -1.7718  0.5360
18422SOL    HW261104  10.291   4.161  10.743  0.2463 -0.1066 -0.2007
18423SOL     OW61105   5.172   7.008  12.255  0.3265 -0.2257  0.3792
18423SOL    HW161106   5.170   6.947  12.182  0.2739 -1.0977  1.0865
18423SOL    HW261107   5.233   6.969  12.318 -1.3656 -0.7050  1.8023
18424SOL     OW61108   6.646   7.513   9.316 -0.5477 -0.1337  0.3066
18424SOL    HW161109   6.679   7.595   9.353 -1.0650  0.4934 -0.5769
18424SOL    HW261110   6.704   7.495   9.242 -2.8834  1.7454 -2.1684
18425SOL     OW61111  11.248   4.304   2.048 -0.7427 -0.1454 -0.1720
18425SOL    HW161112  11.223   4.236   2.111  1.1784 -1.1408 -0.3961
18425SOL    HW261113  11.339   4.325   2.071 -0.0157 -0.4495 -2.5134
18426SOL     OW61114   1.760   1.834   6.303  0.4850 -0.5217 -0.3435
18426SOL    HW161115   1.811   1.767   6.257  2.1035  0.5441 -0.1897
18426SOL    HW261116   1.692   1.785   6.348  1.9827 -2.1612  0.2747
18427SOL     OW61117   4.695   2.524   2.097  0.3046 -0.2448  0.4275
18427SOL    HW161118   4.636   2.450   2.111 -1.6893  1.0339 -0.7957
18427SOL    HW261119   4.748   2.498   2.021 -1.3933  0.1215 -0.9300
18428SOL     OW61120   5.082   9.816   1.609  0.1926 -0.5424 -0.1091
18428SOL    HW161121   5.150   9.752   1.586 -0.3377 -1.3269  0.4688
18428SOL    HW261122   5.117   9.861   1.686  1.1240  0.7681 -1.2508
18429SOL     OW61123   2.396   7.398   9.926 -0.0274 -0.0763 -0.3194
18429SOL    HW161124   2.490   7.406   9.941  0.0327 -1.9240  0.6481
18429SOL    HW261125   2.368   7.485   9.898  2.0222  0.4114 -1.0037
18430SOL     OW61126   1.814   3.943   5.127 -0.0834 -0.7767  0.4238
18430SOL    HW161127   1.719   3.933   5.125 -0.2344  0.1606  1.5998
18430SOL    HW261128   1.845   3.889   5.054 -1.6662  0.8959 -1.6147
18431SOL     OW61129   7.297   6.322   8.504  0.0640 -0.3753 -0.2121
18431SOL    HW161130   7.278   6.360   8.590 -0.4358  1.3440 -1.0327
18431SOL    HW261131   7.241   6.244   8.500  0.2042 -0.5731  1.0526
18432SOL     OW61132   1.895   3.912   9.871 -0.8014  0.5496 -0.4123
18432SOL    HW161133   1.955   3.929   9.799  1.0297  0.5401  1.0441
18432SOL    HW261134   1.833   3.985   9.868  1.4509  2.5932  0.1838
18433SOL     OW61135   1.057   1.867   4.286  0.5112  0.4772 -0.1920
18433SOL    HW161136   0.966   1.848   4.311  0.0760 -2.5624 -3.3648
18433SOL    HW261137   1.108   1.837   4.361 -0.9949 -0.1526  0.6386
18434SOL     OW61138   0.251   0.654   7.934 -0.1148 -0.0220  0.3341
18434SOL    HW161139   0.331   0.660   7.882 -0.4794  1.3804 -0.0948
18434SOL    HW261140   0.276   0.600   8.009  1.4717  1.0711  0.6475
18435SOL     OW61141   9.800   4.864   2.257  0.5042 -0.8097  0.4696
18435SOL    HW161142   9.710   4.872   2.289  0.4336 -0.6686  0.2411
18435SOL    HW261143   9.843   4.943   2.289  0.4186 -0.6396  0.1743
18436SOL     OW61144   7.108   5.823   6.055 -0.1127 -0.1306 -0.3538
18436SOL    HW161145   7.083   5.874   5.978 -0.2489  1.4249  0.6834
18436SOL    HW261146   7.069   5.870   6.129  2.6455  0.2221  0.9802
18437SOL     OW61147   3.501   4.397  12.073  0.1117  0.1778  0.1248
18437SOL    HW161148   3.594   4.380  12.059 -0.2898 -1.4112 -0.9625
18437SOL    HW261149   3.497   4.449  12.153  1.9023 -0.0793  0.4163
18438SOL     OW61150   2.485   2.776  10.716 -0.1774  0.3958 -0.1103
18438SOL    HW161151   2.572   2.755  10.685 -0.0164 -0.4691  0.8805
18438SOL    HW261152   2.431   2.781  10.637  0.3349 -1.1239 -0.5839
18439SOL     OW61153   7.633  11.289  11.288 -0.1776  0.4566  0.2865
18439SOL    HW161154   7.557  11.242  11.253 -0.0719 -1.0015  1.9433
18439SOL    HW261155   7.595  11.357  11.344 -0.2729 -0.0213  0.8047
18440SOL     OW61156  11.949   9.270   6.236 -0.2366  0.3586  1.0533
18440SOL    HW161157  12.000   9.334   6.187 -0.7703 -0.3440 -0.4854
18440SOL    HW261158  11.862   9.274   6.197 -1.0415  0.6531  2.7972
18441SOL     OW61159  10.711   5.737  11.976  0.3194 -0.1526 -0.0689
18441SOL    HW161160  10.787   5.780  11.938 -0.9790  1.3899 -1.0975
18441SOL    HW261161  10.671   5.804  12.033 -0.3685 -0.8445  0.2854
18442SOL     OW61162   8.549   8.211   1.595 -0.0378  0.7633  0.0845
18442SOL    HW161163   8.597   8.230   1.676  1.1501 -1.3414 -0.0681
18442SOL    HW261164   8.464   8.180   1.625  0.7159 -0.8932  0.6276
18443SOL     OW61165   5.121  11.483   2.424 -0.3947  0.3034 -0.2012
18443SOL    HW161166   5.028  11.503   2.411  0.4095  4.2896 -1.1402
18443SOL    HW261167   5.148  11.542   2.495  1.7228  0.4549 -1.0686
18444SOL     OW61168   6.785   0.077  10.175  0.5479  0.3987  0.8435
18444SOL    HW161169   6.781   0.009  10.108  1.7098 -1.0652  2.1876
18444SOL    HW261170   6.717   0.053  10.238  2.2251 -0.7136  2.3237
18445SOL     OW61171   2.052   3.595   8.979  0.2443 -0.5578  0.0467
18445SOL    HW161172   2.050   3.512   8.930 -0.2460 -0.3353 -0.3149
18445SOL    HW261173   2.023   3.661   8.916 -2.6871 -0.5678  1.1925
18446SOL     OW61174   5.234   7.977   0.566 -0.1572 -0.2178  0.5495
18446SOL    HW161175   5.273   8.001   0.650 -2.1787 -0.1281  1.5279
18446SOL    HW261176   5.249   7.883   0.558 -0.8139 -0.4171  1.5171
18447SOL     OW61177   4.964   4.238   3.051 -0.0462  0.1709  0.1203
18447SOL    HW161178   4.987   4.172   2.986  0.9720 -1.4821  2.0131
18447SOL    HW261179   4.878   4.269   3.025 -0.0855 -1.1357 -1.4506
18448SOL     OW61180   9.721   1.038   0.177 -0.3022 -0.0802 -0.0467
18448SOL    HW161181   9.727   0.944   0.191  1.1916  0.2416  1.7508
18448SOL    HW261182   9.642   1.065   0.225 -0.8550 -0.4079 -0.7445
18449SOL     OW61183   7.808   1.348   3.826  0.1920 -0.2836 -0.2427
18449SOL    HW161184   7.807   1.262   3.784  0.5593 -0.1123 -0.6072
18449SOL    HW261185   7.877   1.397   3.781  0.3335  0.0347  0.3037
18450SOL     OW61186   6.166   6.183  10.142 -0.4502 -0.1921  0.1892
18450SOL    HW161187   6.195   6.116  10.081 -0.7638  0.3305 -0.5436
18450SOL    HW261188   6.246   6.214  10.185 -0.2859 -0.8935  0.3903
18451SOL     OW61189   5.628   7.185   8.631  0.0970  0.3486  0.5932
18451SOL    HW161190   5.551   7.128   8.643 -1.4138  1.9667 -0.7750
18451SOL    HW261191   5.618   7.253   8.697  0.1742  0.7335  0.2116
18452SOL     OW61192  10.168   0.391   6.161  0.3058  0.5948 -0.3767
18452SOL    HW161193  10.087   0.424   6.200 -0.8919 -1.0386 -1.3533
18452SOL    HW261194  10.163   0.418   6.070  0.3920 -0.3052 -0.6572
18453SOL     OW61195   0.345   2.938   5.843  0.1192 -0.6211  0.1468
18453SOL    HW161196   0.410   2.970   5.782 -0.2912 -1.3752 -0.7075
18453SOL    HW261197   0.332   2.846   5.818 -1.6326 -0.3502 -0.0430
18454SOL     OW61198   0.684   8.309   8.400 -0.3622 -0.3255 -0.2171
18454SOL    HW161199   0.720   8.323   8.313 -0.9924  2.7384 -0.1069
18454SOL    HW261200   0.760   8.301   8.457  0.0646 -1.0505 -0.8771
18455SOL     OW61201   3.745  11.422   4.881 -0.1154  0.0069  0.3272
18455SOL    HW161202   3.752  11.516   4.896  1.0230  0.3945 -2.0824
18455SOL    HW261203   3.816  11.384   4.931  1.1062  0.7653 -0.7652
18456SOL     OW61204   8.265   4.196   7.163 -0.3373 -0.4566 -0.0791
18456SOL    HW161205   8.351   4.237   7.161 -0.2804 -0.5754 -0.1258
18456SOL    HW261206   8.270   4.126   7.097 -0.0499 -1.2920  0.8117
18457SOL     OW61207   5.389   8.151   6.308 -0.1758  0.3653  0.4659
18457SOL    HW161208   5.443   8.199   6.245  1.0802 -0.6443  0.7245
18457SOL    HW261209   5.327   8.102   6.255  0.6800 -0.2460 -0.0087
18458SOL     OW61210   0.414  10.747  11.949 -0.3325 -0.0904 -0.3596
18458SOL    HW161211   0.369  10.811  11.894 -0.9530 -0.3406 -0.1601
18458SOL    HW261212   0.466  10.800  12.009 -0.1330  0.1992 -0.7831
18459SOL     OW61213   4.451  11.633  10.488  0.2262  0.1054 -0.4066
18459SOL    HW161214   4.520  11.694  10.458 -0.1818  0.1187 -1.3480
18459SOL    HW261215   4.499  11.566  10.538  1.1427 -0.6878 -2.2546
18460SOL     OW61216   1.201  10.549   2.118 -0.1898  0.7848 -0.4548
18460SOL    HW161217   1.279  10.599   2.144  0.6525  0.2995 -1.9339
18460SOL    HW261218   1.128  10.610   2.130  0.6349  1.8600 -0.7961
18461SOL     OW61219   9.119   1.578   8.532  0.1734 -0.1468 -0.5512
18461SOL    HW161220   9.031   1.597   8.501 -0.0910 -0.3064  0.0743
18461SOL    HW261221   9.140   1.651   8.591  0.9777  0.5640 -1.6941
18462SOL     OW61222  11.663   5.320   6.726 -0.0778  0.6695 -0.1275
18462SOL    HW161223  11.681   5.350   6.815  1.4328 -0.6689  0.0661
18462SOL    HW261224  11.750   5.309   6.686 -0.5116 -2.5591 -0.4347
18463SOL     OW61225   8.160   5.452   0.842  0.1447 -0.5799  0.6137
18463SOL    HW161226   8.255   5.444   0.829 -0.1016 -0.9242 -1.2385
18463SOL    HW261227   8.128   5.361   0.838 -0.3948 -0.3678 -0.0380
18464SOL     OW61228   6.444   3.823   2.863 -0.3168  0.1695  0.8422
18464SOL    HW161229   6.411   3.897   2.812 -0.1242  0.1845  0.7374
18464SOL    HW261230   6.500   3.775   2.803 -0.3753 -0.0172  0.9348
18465SOL     OW61231   6.061   5.289  10.033 -0.4178  0.8223 -0.2421
18465SOL    HW161232   6.041   5.361   9.974 -0.7518  0.1513 -0.9639
18465SOL    HW261233   6.049   5.210   9.980 -1.8253  0.1476  1.0006
18466SOL     OW61234   9.879   6.396   6.916  0.4037 -0.2539 -0.4760
18466SOL    HW161235   9.889   6.478   6.964 -0.3960 -0.4384  0.0192
18466SOL    HW261236   9.880   6.328   6.984  1.7515 -0.7207 -0.9364
18467SOL     OW61237  10.599  11.237   2.767  0.0410  0.9129 -0.1285
18467SOL    HW161238  10.655  11.313   2.784 -0.7237  2.0789 -2.3481
18467SOL    HW261239  10.514  11.275   2.746 -0.8070 -0.6752  0.2827
18468SOL     OW61240   0.395  11.114   9.857 -0.7625 -0.2696  0.0180
18468SOL    HW161241   0.416  11.059   9.933 -1.8323  3.1220  3.0367
18468SOL    HW261242   0.302  11.101   9.843 -1.5184  2.0567  2.1245
18469SOL     OW61243   4.311   7.674   2.312  0.1260  0.3958 -0.0219
18469SOL    HW161244   4.325   7.618   2.387 -0.3373  2.6662  1.8812
18469SOL    HW261245   4.367   7.750   2.328 -0.0238  0.9803 -1.9598
18470SOL     OW61246   6.734   7.053  11.179  0.0462  0.3867  0.6323
18470SOL    HW161247   6.757   7.138  11.217  0.4968 -0.1518  1.6042
18470SOL    HW261248   6.711   6.998  11.254  1.3891 -0.8398  0.2055
18471SOL     OW61249   5.574  11.857  11.051 -0.7712 -0.6244 -0.7424
18471SOL    HW161250   5.519  11.885  11.124 -0.6437  0.0633 -0.9099
18471SOL    HW261251   5.601  11.938  11.008  2.8185 -0.6569  1.0890
18472SOL     OW61252   3.746   2.534   0.031 -0.0335  0.0161  0.5698
18472SOL    HW161253   3.753   2.445  -0.004 -0.4021 -0.0840  0.7514
18472SOL    HW261254   3.652   2.552   0.035  0.0519  0.8589 -0.5757
18473SOL     OW61255   2.639  11.049   2.455 -0.2008  0.0504  0.0156
18473SOL    HW161256   2.626  11.033   2.361 -1.6067  0.6094  0.0964
18473SOL    HW261257   2.609  10.968   2.497  0.0072 -0.0297  0.0097
18474SOL     OW61258   4.711  10.491  12.197 -0.1208  0.7187 -0.0461
18474SOL    HW161259   4.664  10.560  12.152  0.3911  0.8075 -0.4571
18474SOL    HW261260   4.759  10.445  12.128  1.8683  1.7783  0.5495
18475SOL     OW61261   4.805   3.052   8.973 -0.0261  0.2255 -0.0980
18475SOL    HW161262   4.726   3.061   9.026  0.7771  0.3048  1.1314
18475SOL    HW261263   4.846   2.971   9.003  2.5474  2.2308  2.4416
18476SOL     OW61264   3.193   6.735   3.255  0.3039  0.7416  0.1959
18476SOL    HW161265   3.239   6.653   3.275 -0.6780  0.6191  2.1989
18476SOL    HW261266   3.254   6.804   3.284 -0.1222  0.6147  1.4542
18477SOL     OW61267   7.582  12.072   2.126 -0.0142 -0.6209  0.0372
18477SOL    HW161268   7.615  11.984   2.109  0.6237 -0.4531  0.3621
18477SOL    HW261269   7.641  12.107   2.192  0.1074  0.2794 -0.5347
18478SOL     OW61270   9.579   5.154   6.171 -0.3233 -0.2531 -0.0967
18478SOL    HW161271   9.491   5.190   6.169 -0.3108 -0.2471 -0.6429
18478SOL    HW261272   9.570   5.070   6.217 -0.4349  0.2049  0.7431
18479SOL     OW61273   3.634  11.396   0.307  0.4878 -0.6134 -0.2326
18479SOL    HW161274   3.668  11.434   0.388 -0.3704 -1.3993  0.5156
18479SOL    HW261275   3.586  11.318   0.335 -0.8310 -0.2540 -1.3853
18480SOL     OW61276   5.876   9.478   1.988  0.1377  0.0881 -0.1476
18480SOL    HW161277   5.796   9.528   1.999  0.0071 -0.0891 -0.2812
18480SOL    HW261278   5.947   9.542   1.997  0.3108 -0.4019  5.1100
18481SOL     OW61279   8.091   0.837   5.612 -0.1815 -0.2765  0.1362
18481SOL    HW161280   8.006   0.805   5.581 -1.2626  0.9688  1.6657
18481SOL    HW261281   8.101   0.799   5.699 -0.7002  1.9909  1.2851
18482SOL     OW61282   8.301   5.509   2.771 -0.6818  0.0531 -0.1911
18482SOL    HW161283   8.377   5.518   2.829  0.5409  1.1641 -1.8575
18482SOL    HW261284   8.227   5.542   2.822  0.5451  2.0655  0.3922
18483SOL     OW61285   1.966   2.723   0.663 -0.0467 -0.5521  0.1874
18483SOL    HW161286   1.941   2.675   0.585 -2.5402  1.7255 -0.5892
18483SOL    HW261287   1.906   2.691   0.731 -1.1714  0.7241 -0.1368
18484SOL     OW61288   2.252  10.332   6.093 -0.6988 -0.5616 -0.3231
18484SOL    HW161289   2.167  10.334   6.051 -1.7476  1.7741  1.6723
18484SOL    HW261290   2.241  10.383   6.173  1.4804 -3.6386  2.2046
18485SOL     OW61291  12.323   1.770   4.484 -0.6395  0.6072  0.7069
18485SOL    HW161292  12.317   1.862   4.510  0.3770  0.7057  0.6432
18485SOL    HW261293  12.358   1.725   4.561  2.4351  0.9090 -0.3655
18486SOL     OW61294   9.379  11.624  10.043  0.1162 -0.3437  0.1474
18486SOL    HW161295   9.465  11.647  10.007 -0.0984  1.5602  0.7478
18486SOL    HW261296   9.390  11.633  10.138 -0.6945 -0.3272  0.2442
18487SOL     OW61297   8.098   7.887   3.103  0.1319  0.1431 -0.2224
18487SOL    HW161298   8.097   7.957   3.168  0.0974 -0.1261  0.0714
18487SOL    HW261299   8.183   7.844   3.116 -0.0645 -0.1980 -0.0401
18488SOL     OW61300  10.240   3.157   4.919 -0.0433  0.0660 -0.1851
18488SOL    HW161301  10.182   3.121   4.987  1.1053 -0.7697  0.4097
18488SOL    HW261302  10.184   3.210   4.864 -1.1957  0.0031  0.8894
18489SOL     OW61303  10.214   7.497   3.406 -0.0431 -0.7999 -0.0748
18489SOL    HW161304  10.291   7.485   3.351  1.0941 -1.1308  1.5268
18489SOL    HW261305  10.174   7.410   3.412  1.9535 -1.6556  2.5640
18490SOL     OW61306  10.765   7.579   3.003 -1.2648  0.5588 -0.5691
18490SOL    HW161307  10.747   7.627   3.084  0.5375 -1.0827  0.9278
18490SOL    HW261308  10.861   7.577   2.997 -1.2683 -1.7757 -1.1627
18491SOL     OW61309   7.264   7.806   3.627  0.3221  0.0786  0.1910
18491SOL    HW161310   7.300   7.870   3.566  0.4770  0.3061  0.5189
18491SOL    HW261311   7.324   7.732   3.623  0.9467  0.5366  0.8873
18492SOL     OW61312  11.845   1.500  11.639  0.6302 -0.5124  0.1977
18492SOL    HW161313  11.925   1.449  11.650  1.0132 -0.1079 -0.6381
18492SOL    HW261314  11.826   1.495  11.546  1.2069  1.6254 -0.0895
18493SOL     OW61315   8.455   4.498  12.238  0.1211  0.5693  0.0318
18493SOL    HW161316   8.365   4.474  12.261 -1.0448  2.0050 -2.6290
18493SOL    HW261317   8.508   4.426  12.273 -1.8636  0.2169  2.6723
18494SOL     OW61318   9.892   7.108   2.841 -0.3497  0.1608 -0.2943
18494SOL    HW161319   9.858   7.019   2.852 -0.3109  0.2105  0.2286
18494SOL    HW261320   9.816   7.159   2.813 -0.2865 -0.1134 -0.9947
18495SOL     OW61321   6.133   5.430   1.347 -0.2852  0.5025 -0.1629
18495SOL    HW161322   6.171   5.345   1.369  0.2221  0.0636 -2.3964
18495SOL    HW261323   6.038   5.414   1.344 -0.1045 -0.6392 -2.6146
18496SOL     OW61324   6.694   6.898   9.226 -0.2686 -0.3576  0.0097
18496SOL    HW161325   6.704   6.976   9.171  0.4800 -0.8536 -0.5735
18496SOL    HW261326   6.771   6.898   9.282 -0.1363 -0.8154 -0.1702
18497SOL     OW61327   8.688   2.858   0.159  0.5250 -0.9242 -0.2142
18497SOL    HW161328   8.593   2.856   0.144  0.0629  0.9666  1.8710
18497SOL    HW261329   8.725   2.879   0.074 -1.0691 -0.2741 -0.7934
18498SOL     OW61330   7.189   0.665   5.596 -0.4736  0.6261  0.3145
18498SOL    HW161331   7.158   0.653   5.506  0.7484  0.2862 -0.0758
18498SOL    HW261332   7.122   0.623   5.650 -0.0889 -1.2548 -0.5880
18499SOL     OW61333   0.067   4.703  11.328  0.3457 -0.8370 -0.0647
18499SOL    HW161334   0.002   4.765  11.360  0.5674 -0.1966 -0.8100
18499SOL    HW261335   0.143   4.756  11.307  0.6474 -1.3960 -0.4330
18500SOL     OW61336   3.963   7.455   1.426 -0.4553  0.1657 -0.3884
18500SOL    HW161337   3.981   7.409   1.508 -0.4412 -2.1696 -1.6439
18500SOL    HW261338   4.028   7.526   1.425 -0.3658  0.1740  1.5290
18501SOL     OW61339   2.989   5.243   7.167  0.1864  0.1088 -0.2258
18501SOL    HW161340   2.924   5.243   7.097 -1.0082  0.4036  0.8539
18501SOL    HW261341   3.063   5.194   7.130 -0.9197 -0.8847 -1.2227
18502SOL     OW61342  10.880   7.684   2.562 -0.5225  0.2163  0.3810
18502SOL    HW161343  10.902   7.683   2.469  0.1449  0.6358  0.5332
18502SOL    HW261344  10.802   7.629   2.568  0.1963 -0.9140 -0.2395
18503SOL     OW61345  11.658   4.294  10.580  0.1805  0.3456  0.2961
18503SOL    HW161346  11.632   4.362  10.642  0.3361 -0.6602  1.5022
18503SOL    HW261347  11.739   4.258  10.616 -1.2665 -2.2858  1.1980
18504SOL     OW61348   4.217   5.612   9.010 -0.1371 -0.0822 -0.2188
18504SOL    HW161349   4.154   5.683   8.997 -1.3898 -1.1055  0.1597
18504SOL    HW261350   4.290   5.634   8.951 -1.6026  0.2315 -2.0053
18505SOL     OW61351   6.154  10.094  10.301 -0.2898 -0.0678 -0.4506
18505SOL    HW161352   6.220  10.153  10.264 -0.8877  0.1109 -1.2474
18505SOL    HW261353   6.096  10.074  10.228  0.6378 -2.7334 -0.5844
18506SOL     OW61354   6.669   5.875   5.381  0.1416 -0.3852  0.2044
18506SOL    HW161355   6.668   5.872   5.477 -1.5422  0.0873  0.2289
18506SOL    HW261356   6.605   5.942   5.359 -0.1860 -1.1621 -1.2798
18507SOL     OW61357  12.142   0.915  11.161 -0.0016 -0.0941 -0.3635
18507SOL    HW161358  12.166   0.971  11.236 -0.1941 -0.7660  0.2087
18507SOL    HW261359  12.224   0.875  11.134 -0.1831 -1.1304  0.5557
18508SOL     OW61360   7.678   0.033   3.477 -0.7323 -0.4560  0.4088
18508SOL    HW161361   7.773   0.046   3.480 -0.6240 -1.3324  2.0344
18508SOL    HW261362   7.641   0.115   3.509 -0.3728 -1.0494  2.5160
18509SOL     OW61363  11.076   2.032   1.881  0.2296  0.6045 -0.3952
18509SOL    HW161364  11.007   2.055   1.942  1.3277  1.5777  0.5446
18509SOL    HW261365  11.047   1.951   1.839 -1.1179  0.6087  0.5032
18510SOL     OW61366   6.277   3.213   5.613  0.1089 -0.1943  0.0767
18510SOL    HW161367   6.368   3.223   5.641  0.7797 -1.3495 -1.5150
18510SOL    HW261368   6.235   3.295   5.638  1.9572  1.0017 -0.4987
18511SOL     OW61369   9.565  10.417   0.340  0.2515 -0.4647 -0.2504
18511SOL    HW161370   9.618  10.340   0.320  0.4270 -0.2629 -0.5607
18511SOL    HW261371   9.572  10.427   0.435  2.8908  1.0872 -0.5302
18512SOL     OW61372   4.494   5.600   0.466  0.5055  0.0404 -0.0578
18512SOL    HW161373   4.417   5.647   0.434  1.2928  1.0632 -0.5118
18512SOL    HW261374   4.463   5.551   0.543 -0.7111 -0.0190 -0.5639
18513SOL     OW61375  12.202   1.574   8.679  0.2420  0.2213 -0.0613
18513SOL    HW161376  12.180   1.656   8.636  0.6982 -0.2383 -1.2063
18513SOL    HW261377  12.289   1.589   8.716 -0.0491  0.5354  0.5182
18514SOL     OW61378  11.606  12.171   1.930  0.1104 -0.4418  0.0797
18514SOL    HW161379  11.632  12.165   1.839  0.1292  0.9475 -0.0269
18514SOL    HW261380  11.511  12.160   1.929  0.1572 -0.8432 -0.0552
18515SOL     OW61381   7.595   5.948   7.396  0.5438 -0.5950  0.1901
18515SOL    HW161382   7.601   6.042   7.378  0.9210 -0.5065  0.7344
18515SOL    HW261383   7.686   5.918   7.399  0.5121 -0.6088  1.8058
18516SOL     OW61384  11.592   1.071   8.631 -0.2067 -0.0607  0.3626
18516SOL    HW161385  11.509   1.073   8.583  0.1449 -2.9780 -0.5929
18516SOL    HW261386  11.656   1.104   8.568 -0.2671 -0.3252  0.1623
18517SOL     OW61387   3.683  11.832   6.553  0.0491  0.3041 -0.0827
18517SOL    HW161388   3.739  11.823   6.630 -1.3342 -1.6822  0.7943
18517SOL    HW261389   3.597  11.854   6.589 -0.6051 -0.5948 -1.0511
18518SOL     OW61390   8.690   8.880   2.586  0.1500 -0.6173 -0.4023
18518SOL    HW161391   8.779   8.883   2.622 -0.1453 -0.6353  0.3549
18518SOL    HW261392   8.703   8.867   2.492  0.9671  0.2964 -0.4302
18519SOL     OW61393   8.311   6.749   9.367  0.1244 -0.3828  0.0854
18519SOL    HW161394   8.361   6.746   9.286 -0.0319 -0.7635  0.0021
18519SOL    HW261395   8.365   6.702   9.431  0.5942  0.5601  0.4003
18520SOL     OW61396   7.996   4.392   1.095 -0.2467  0.5935 -0.6060
18520SOL    HW161397   7.939   4.316   1.079 -0.4256  0.7500 -0.7290
18520SOL    HW261398   8.063   4.360   1.154 -0.5027  0.4205 -0.4050
18521SOL     OW61399   6.844   6.229   8.163 -0.4729 -0.3074  0.0283
18521SOL    HW161400   6.905   6.249   8.091 -1.3147  1.4831 -0.2494
18521SOL    HW261401   6.838   6.311   8.212 -0.9888 -1.1076  1.3328
18522SOL     OW61402   1.173  10.124  10.839 -0.2652 -0.1186  0.0094
18522SOL    HW161403   1.084  10.115  10.806 -0.1885  0.4811 -0.3730
18522SOL    HW261404   1.222  10.166  10.768  0.4789 -1.0116 -0.0288
18523SOL     OW61405  10.538   1.379   4.507  0.2154  0.0188  0.3852
18523SOL    HW161406  10.587   1.369   4.426  0.3489  0.5739  0.3957
18523SOL    HW261407  10.605   1.379   4.576  0.0119 -1.9271  0.6391
18524SOL     OW61408  11.860   5.513   2.261  0.0402 -0.4219  0.3059
18524SOL    HW161409  11.878   5.599   2.223 -0.2743 -0.6074 -0.2613
18524SOL    HW261410  11.880   5.524   2.354  0.4629  0.1317  0.1558
18525SOL     OW61411   1.127   3.537   1.978  0.3859 -0.2348 -0.2326
18525SOL    HW161412   1.143   3.446   1.954  0.1375 -0.3032 -0.1487
18525SOL    HW261413   1.081   3.573   1.902  1.0390 -0.0065 -0.5239
18526SOL     OW61414   4.010   9.645  11.725 -0.0140 -0.2673 -0.2507
18526SOL    HW161415   3.935   9.654  11.783  0.3289  2.7289 -0.1008
18526SOL    HW261416   4.082   9.619  11.782 -0.3952 -0.6166  0.0745
18527SOL     OW61417   7.969   1.966   2.545 -0.5156 -0.6626  0.3497
18527SOL    HW161418   7.895   1.965   2.484 -0.1808 -0.4079 -0.0634
18527SOL    HW261419   7.968   1.878   2.584 -0.3757 -1.0343 -0.4598
18528SOL     OW61420  10.539   2.571   3.762 -0.0666  0.7887 -0.4246
18528SOL    HW161421  10.556   2.497   3.821  0.8754  1.0120 -0.4002
18528SOL    HW261422  10.514   2.530   3.679 -0.4338  0.4614 -0.1592
18529SOL     OW61423   1.978   2.314   8.066 -0.1572  0.5366 -0.5420
18529SOL    HW161424   1.908   2.355   8.117  0.4708  0.1610  0.6711
18529SOL    HW261425   1.932   2.261   8.001 -0.9709  2.4495 -1.5784
18530SOL     OW61426   5.106  10.467   1.454 -0.2949 -0.2421 -0.7797
18530SOL    HW161427   5.150  10.497   1.534 -0.5725  1.0386 -1.0977
18530SOL    HW261428   5.025  10.427   1.485 -1.2017  1.7256 -0.4993
18531SOL     OW61429   2.140   3.655   4.745 -0.0701 -0.3156  0.0075
18531SOL    HW161430   2.191   3.606   4.809 -1.0944 -1.7761 -0.2398
18531SOL    HW261431   2.053   3.664   4.784  0.0263  1.1323 -0.0603
18532SOL     OW61432  11.814  12.286   7.569  0.2346  0.0406  0.4522
18532SOL    HW161433  11.783  12.309   7.657 -0.3405 -0.3324  0.3528
18532SOL    HW261434  11.765  12.343   7.510 -0.3589 -0.6390  0.2840
18533SOL     OW61435   5.360   8.064   9.725  0.2466 -0.9454 -0.5552
18533SOL    HW161436   5.389   8.129   9.789  0.2859  0.2138 -1.6966
18533SOL    HW261437   5.383   7.980   9.764  1.8143 -0.2176  0.1874
18534SOL     OW61438  10.306   8.468   9.372  0.7207 -0.3037  0.0822
18534SOL    HW161439  10.353   8.439   9.294  0.7113  0.3841 -0.1869
18534SOL    HW261440  10.347   8.551   9.396  0.1089 -0.0439  0.2569
18535SOL     OW61441   1.237   0.595   9.699 -0.1021  0.3532 -0.3126
18535SOL    HW161442   1.146   0.625   9.706 -0.7068 -1.5782  0.8074
18535SOL    HW261443   1.289   0.674   9.714 -1.5914  1.0201  1.8050
18536SOL     OW61444   6.801  12.198   1.436  0.3535  0.1039 -0.3079
18536SOL    HW161445   6.723  12.178   1.384  0.7438  0.2056 -0.9462
18536SOL    HW261446   6.788  12.288   1.464 -0.8505 -0.6058  1.5732
18537SOL     OW61447   3.975   9.932   3.594 -0.6759  0.4567 -0.2544
18537SOL    HW161448   3.933   9.945   3.509  2.1079 -1.4963 -2.1131
18537SOL    HW261449   3.986   9.837   3.601  0.6599  0.6821  1.4864
18538SOL     OW61450   1.666  11.586   9.792 -0.1154  0.7018 -0.4775
18538SOL    HW161451   1.715  11.554   9.717  0.1342 -0.4586  0.1569
18538SOL    HW261452   1.575  11.565   9.771  0.1537 -1.9307  0.5582
18539SOL     OW61453   2.151  10.176   0.745 -0.0746  0.1869 -0.1336
18539SOL    HW161454   2.244  10.155   0.735  0.1265  1.4164 -1.1189
18539SOL    HW261455   2.107  10.092   0.735  0.9088 -0.3914  0.1806
18540SOL     OW61456   8.704   1.478   2.918 -0.2241 -0.2769 -0.3696
18540SOL    HW161457   8.725   1.501   2.827 -0.3227  0.3888 -0.2281
18540SOL    HW261458   8.690   1.383   2.916  0.5581 -0.3857 -0.8921
18541SOL     OW61459   0.099  12.088   0.293 -0.0340 -0.2647 -0.0451
18541SOL    HW161460   0.192  12.088   0.316 -0.1212 -0.3225  0.3161
18541SOL    HW261461   0.097  12.106   0.199  0.2980  0.7740  0.1393
18542SOL     OW61462   8.071  10.733   6.009 -0.2004 -0.1729 -0.2260
18542SOL    HW161463   8.057  10.667   6.077  0.8971  1.0821  1.2945
18542SOL    HW261464   7.995  10.791   6.016  0.0764  0.1461  0.1764
18543SOL     OW61465   7.529   3.780  11.886  0.1454  0.0367  0.4232
18543SOL    HW161466   7.593   3.788  11.956 -0.1767  0.3701  0.6859
18543SOL    HW261467   7.495   3.691  11.894  1.9337 -0.8242 -0.9150
18544SOL     OW61468   3.482   7.358  11.933  0.5667  0.3610  0.0724
18544SOL    HW161469   3.479   7.311  11.850  1.0385  0.3507  0.0609
18544SOL    HW261470   3.483   7.289  11.999  1.7868  0.3340  0.0435
18545SOL     OW61471  10.202  10.510   6.282  0.4521  0.0598 -0.1372
18545SOL    HW161472  10.179  10.420   6.261  1.4237 -1.6908  4.7888
18545SOL    HW261473  10.123  10.547   6.321  0.0749  1.4530 -2.0804
18546SOL     OW61474   3.613  10.439   4.304  0.8518  0.4996 -0.1216
18546SOL    HW161475   3.627  10.462   4.395 -0.5719  1.8483 -0.2083
18546SOL    HW261476   3.535  10.488   4.278 -1.8389 -3.5076 -0.6722
18547SOL     OW61477  11.560  11.476  10.848  0.1819 -0.1711  0.7215
18547SOL    HW161478  11.625  11.453  10.782 -0.4883 -0.5727  0.1817
18547SOL    HW261479  11.601  11.545  10.900  0.9709 -0.3116  0.2945
18548SOL     OW61480  10.181   1.281   5.236  0.0066  0.2837 -0.4038
18548SOL    HW161481  10.276   1.272   5.226  0.1056  0.5664  0.2379
18548SOL    HW261482  10.157   1.352   5.177 -0.3174 -1.9007 -3.0897
18549SOL     OW61483  10.567   8.120   3.850 -0.1608 -0.0017  0.3709
18549SOL    HW161484  10.596   8.127   3.759 -1.2876  0.2261  0.0193
18549SOL    HW261485  10.508   8.194   3.862 -1.2619 -0.9344  0.8101
18550SOL     OW61486   7.834   3.648   2.002  0.2220 -0.1367  0.1633
18550SOL    HW161487   7.897   3.585   2.036 -0.0136 -0.7495 -0.5041
18550SOL    HW261488   7.779   3.670   2.076  0.9356  0.0616  0.6474
18551SOL     OW61489   3.870   7.303   9.470  0.2236 -0.3369  0.1122
18551SOL    HW161490   3.830   7.221   9.442  1.6529 -0.6476 -1.1704
18551SOL    HW261491   3.858   7.305   9.565  0.7812 -2.3672  0.2578
18552SOL     OW61492  11.633   8.938   6.379 -0.0221 -0.8394  0.4368
18552SOL    HW161493  11.645   8.955   6.286  0.8666  1.3767  0.8904
18552SOL    HW261494  11.719   8.954   6.418 -0.9189  0.7702  1.9359
18553SOL     OW61495   9.623   8.829   8.026 -0.2677  0.0258  0.0444
18553SOL    HW161496   9.541   8.877   8.012 -0.4669 -0.5023 -0.6196
18553SOL    HW261497   9.602   8.766   8.095  0.5035  2.0961  2.3640
18554SOL     OW61498  11.366   1.967   9.490  0.1800 -0.0521  0.0466
18554SOL    HW161499  11.419   1.903   9.536  0.8426 -0.3767 -1.1373
18554SOL    HW261500  11.380   1.948   9.397  1.8210  2.8802 -0.4303
18555SOL     OW61501  10.643  11.692   8.596  0.5774 -0.7548 -0.0412
18555SOL    HW161502  10.726  11.738   8.607 -0.3763  0.6864  1.6364
18555SOL    HW261503  10.583  11.737   8.655 -1.8950 -0.5966 -2.5250
18556SOL     OW61504   6.722   1.310   6.299 -0.2805 -0.2124  0.9775
18556SOL    HW161505   6.664   1.319   6.374 -0.7510 -0.3648  0.6366
18556SOL    HW261506   6.776   1.389   6.301 -1.6442  0.7880  0.3433
18557SOL     OW61507   4.474   0.265   8.909 -0.1557 -0.2294  0.4890
18557SOL    HW161508   4.464   0.186   8.858 -0.6301 -0.3843  0.8191
18557SOL    HW261509   4.454   0.239   8.999 -2.2797  0.6841  0.3244
18558SOL     OW61510   3.746   6.699  10.749 -0.0781  0.2979  0.1164
18558SOL    HW161511   3.794   6.628  10.707  1.7402  1.7686 -0.4671
18558SOL    HW261512   3.802   6.776  10.736 -1.4601  1.6340  1.6126
18559SOL     OW61513   1.690   1.821   8.594 -0.0031 -0.0915  0.5057
18559SOL    HW161514   1.632   1.896   8.586  0.0193 -0.2474 -1.7836
18559SOL    HW261515   1.656   1.771   8.668 -0.7665  1.5067  1.2695
18560SOL     OW61516  10.083  11.456   5.993 -0.2297 -0.1512  0.3469
18560SOL    HW161517  10.133  11.381   6.026 -0.8270 -1.2947 -1.1828
18560SOL    HW261518  10.071  11.436   5.900 -0.4346  1.8593 -0.0909
18561SOL     OW61519   1.425   4.640   2.440 -0.0724  0.3884  0.3186
18561SOL    HW161520   1.379   4.619   2.359  0.8818 -1.1178  0.1242
18561SOL    HW261521   1.437   4.556   2.484  2.5711  0.6554  0.2722
18562SOL     OW61522  10.874   5.130   7.439  0.0592  0.6230 -0.6533
18562SOL    HW161523  10.806   5.137   7.506 -0.3252  1.7999 -1.1437
18562SOL    HW261524  10.836   5.074   7.371 -0.2221  0.8644 -0.6938
18563SOL     OW61525  10.636  11.168   4.301 -0.3363 -0.3769 -0.2979
18563SOL    HW161526  10.705  11.103   4.308 -1.4654 -1.5647  0.0864
18563SOL    HW261527  10.583  11.139   4.226 -0.4839  0.4652 -0.5340
18564SOL     OW61528  11.261   2.297   5.571  0.0862  0.5465  0.0125
18564SOL    HW161529  11.167   2.290   5.559 -0.0393  1.1094  0.6246
18564SOL    HW261530  11.295   2.316   5.484 -0.1869 -1.2198 -0.5193
18565SOL     OW61531   0.048  10.846   9.851 -0.4267  0.2620  0.9007
18565SOL    HW161532   0.005  10.767   9.817 -1.7356  1.6108 -0.7339
18565SOL    HW261533   0.125  10.813   9.897 -1.6845 -2.0631  1.4948
18566SOL     OW61534  11.984   7.863   4.650  0.3013  0.3853 -0.7862
18566SOL    HW161535  11.888   7.858   4.645  0.2975 -0.4681  0.0197
18566SOL    HW261536  12.012   7.853   4.559 -0.3271 -0.7598 -0.8773
18567SOL     OW61537   3.721   2.097   5.045  0.4646 -0.5314  0.8075
18567SOL    HW161538   3.720   2.149   4.964  0.3261 -1.1069  0.4353
18567SOL    HW261539   3.637   2.117   5.086  0.3021 -0.6444  0.5396
18568SOL     OW61540   8.126   9.510   1.588  0.0667  0.0946  0.1515
18568SOL    HW161541   8.166   9.575   1.645 -0.2002  0.1645  0.2636
18568SOL    HW261542   8.180   9.432   1.598  0.2797  0.2425  0.1566
18569SOL     OW61543  10.098   4.916   4.893  0.0453 -0.7751 -0.1339
18569SOL    HW161544  10.123   4.827   4.918 -0.4042 -0.5932  0.9978
18569SOL    HW261545  10.066   4.907   4.803  0.2519 -1.7147 -0.1237
18570SOL     OW61546   1.254  10.647   2.825 -0.4729 -0.5312 -0.0410
18570SOL    HW161547   1.349  10.654   2.826 -0.4971  3.3601 -2.5030
18570SOL    HW261548   1.232  10.626   2.734 -1.9626 -0.3271  0.2398
18571SOL     OW61549  10.235  12.320   8.656 -0.1263  1.0109 -0.9095
18571SOL    HW161550  10.237  12.226   8.673  0.1930  0.9413 -1.3432
18571SOL    HW261551  10.304  12.356   8.712 -1.0659  1.1488  0.2086
18572SOL     OW61552  12.230   9.026   0.237  0.2607  0.1277 -0.9378
18572SOL    HW161553  12.168   8.953   0.248 -0.2598  0.8181  1.1308
18572SOL    HW261554  12.304   9.003   0.293  0.8153  0.4671 -1.5177
18573SOL     OW61555   6.266   6.205   5.816  0.3721  0.2545  0.2622
18573SOL    HW161556   6.236   6.116   5.834  0.8742 -0.0661 -0.4728
18573SOL    HW261557   6.269   6.247   5.903 -0.5624 -0.2141  0.5314
18574SOL     OW61558   5.940   6.743  11.613  0.5091 -0.2555  0.4840
18574SOL    HW161559   6.005   6.813  11.624 -0.2259  0.7924 -1.3802
18574SOL    HW261560   5.855   6.788  11.622 -0.0450 -1.5938  2.8560
18575SOL     OW61561   4.413   8.361   3.384 -0.3796  0.9946  0.0237
18575SOL    HW161562   4.323   8.337   3.405 -0.4848  0.0524 -1.3742
18575SOL    HW261563   4.431   8.437   3.439 -1.9689  1.1047  0.4362
18576SOL     OW61564  11.045   8.962   0.577 -0.3689  0.0906  0.1000
18576SOL    HW161565  11.066   8.881   0.531 -0.5057 -0.6244  1.2505
18576SOL    HW261566  10.959   8.988   0.544  0.5531  0.9202 -1.7849
18577SOL     OW61567   5.503   3.665   7.467  0.0342 -0.1658 -0.0746
18577SOL    HW161568   5.462   3.640   7.384 -1.0456  0.3227  0.2880
18577SOL    HW261569   5.440   3.639   7.534  0.0105  1.1815  0.4649
18578SOL     OW61570   9.040  10.765  10.827 -0.0467  0.2841  0.0779
18578SOL    HW161571   8.966  10.825  10.837  0.3045  0.6378  0.6472
18578SOL    HW261572   9.047  10.722  10.913  1.2330  1.2375  0.4766
18579SOL     OW61573   5.294   3.498   8.304 -0.0312 -0.0516 -0.1302
18579SOL    HW161574   5.271   3.510   8.396 -0.6834 -1.6267 -0.0526
18579SOL    HW261575   5.254   3.414   8.280 -1.1241  0.9994 -2.2667
18580SOL     OW61576   5.551   3.806   5.874 -0.1209  0.0547 -0.6408
18580SOL    HW161577   5.548   3.849   5.959  0.6726 -0.9043 -0.1092
18580SOL    HW261578   5.638   3.828   5.839 -0.9632  1.6051 -1.8448
18581SOL     OW61579   5.851   0.790   1.417  0.1768 -0.1249 -0.3455
18581SOL    HW161580   5.902   0.709   1.413  1.2063  0.5333 -1.0737
18581SOL    HW261581   5.881   0.832   1.498 -1.5567 -1.2041  0.9191
18582SOL     OW61582   2.737   1.281   9.530  0.3328 -0.1721  0.3494
18582SOL    HW161583   2.784   1.357   9.494  0.7838  0.5460  2.3331
18582SOL    HW261584   2.779   1.205   9.489  0.8935  0.5744 -0.5168
18583SOL     OW61585   0.712   7.225   1.663  0.2191 -0.4647  0.5634
18583SOL    HW161586   0.666   7.210   1.745 -0.0533 -1.7071  0.2059
18583SOL    HW261587   0.739   7.317   1.667 -1.3989  0.0167  1.2262
18584SOL     OW61588  12.105   5.271   6.819  0.0887  0.3644 -0.1992
18584SOL    HW161589  12.141   5.183   6.831  1.3351  0.8432 -0.2920
18584SOL    HW261590  12.182   5.327   6.807 -0.6574  1.5411  0.3110
18585SOL     OW61591  11.432   4.365  11.230  0.4910  0.0475  0.3480
18585SOL    HW161592  11.390   4.332  11.151  1.2029 -1.0746  0.4267
18585SOL    HW261593  11.450   4.287  11.282  0.2229  0.7491  1.5313
18586SOL     OW61594   6.787   9.165   9.036  0.0936 -0.4865 -0.0474
18586SOL    HW161595   6.795   9.117   8.954  0.3410 -0.5947  0.0369
18586SOL    HW261596   6.806   9.256   9.014  0.2479 -0.5301 -0.0935
18587SOL     OW61597   9.445   4.121   2.394  0.3881 -0.2249 -0.2190
18587SOL    HW161598   9.518   4.060   2.404 -0.5012 -1.4924 -1.0602
18587SOL    HW261599   9.372   4.066   2.364 -0.5078  1.2336 -0.8305
18588SOL     OW61600   0.612   8.478   2.091 -0.3401 -0.5874 -0.2136
18588SOL    HW161601   0.691   8.497   2.041  0.5838 -3.7090 -0.1985
18588SOL    HW261602   0.620   8.532   2.170  0.2428  1.3489 -1.5392
18589SOL     OW61603   6.722   6.759  10.903  0.3466  0.1356 -0.1237
18589SOL    HW161604   6.692   6.850  10.909 -0.2140 -0.0241 -0.3746
18589SOL    HW261605   6.676   6.724  10.827 -0.6583 -0.8011  0.8726
18590SOL     OW61606   3.582   8.254   9.078  0.4051  0.1591 -0.0055
18590SOL    HW161607   3.673   8.227   9.069  0.3497  0.1926 -0.7479
18590SOL    HW261608   3.576   8.290   9.166  1.0992  0.1288  0.0585
18591SOL     OW61609   3.984   3.036   1.727 -0.2402 -0.3167 -0.0575
18591SOL    HW161610   4.043   3.050   1.653  0.3961 -1.3269  0.2316
18591SOL    HW261611   3.926   2.965   1.698  0.1681 -0.8829  0.4862
18592SOL     OW61612   6.087   1.800   8.277  0.1070  0.4109  0.4009
18592SOL    HW161613   6.119   1.767   8.361 -0.3376  1.3915  0.9772
18592SOL    HW261614   6.013   1.856   8.301  0.8632  1.8451 -0.5281
18593SOL     OW61615   3.063  10.683   9.781 -0.5043 -0.3491 -0.0036
18593SOL    HW161616   3.065  10.705   9.688  0.4693 -2.3058 -0.5086
18593SOL    HW261617   3.120  10.748   9.822  0.6379 -0.6105 -1.0900
18594SOL     OW61618   2.724   2.479  11.698  0.6604  0.5432 -0.1022
18594SOL    HW161619   2.807   2.431  11.707  0.7079  0.6142 -0.1584
18594SOL    HW261620   2.733   2.526  11.615 -0.3098 -1.1563 -1.2173
18595SOL     OW61621  10.358   9.157   0.208 -0.5235  0.2563  0.4520
18595SOL    HW161622  10.416   9.233   0.199  0.0472 -0.1264  0.8381
18595SOL    HW261623  10.282   9.190   0.256  0.1739  0.3618  1.5169
18596SOL     OW61624  11.567   2.568   4.277  0.2191 -0.1633 -0.0486
18596SOL    HW161625  11.510   2.506   4.232 -0.0190 -0.7883  1.0576
18596SOL    HW261626  11.518   2.650   4.278  0.6843  0.1827 -1.8360
18597SOL     OW61627  12.272   3.865   1.351 -0.4917  0.3988 -0.1548
18597SOL    HW161628  12.317   3.948   1.368 -0.4624  0.7495 -1.7232
18597SOL    HW261629  12.179   3.886   1.356 -0.4863  0.3523  0.1682
18598SOL     OW61630  11.146   2.547   0.116  0.1571 -0.3254  0.0450
18598SOL    HW161631  11.210   2.491   0.073  0.1284  0.1178 -0.5947
18598SOL    HW261632  11.146   2.627   0.063  0.6958  0.5472  1.3106
18599SOL     OW61633   7.093   8.534   3.627  0.3630  0.7060 -0.2540
18599SOL    HW161634   7.170   8.478   3.618 -0.1025  0.2136 -1.2750
18599SOL    HW261635   7.023   8.475   3.655 -0.5151  0.4016 -2.7938
18600SOL     OW61636   6.826  11.335   0.518  0.3177 -0.1079  0.4141
18600SOL    HW161637   6.767  11.371   0.452  0.6306 -2.0831 -1.0357
18600SOL    HW261638   6.910  11.327   0.473  0.7377 -0.7700  1.2957
18601SOL     OW61639   1.685   2.852   6.927 -0.1008  0.6260 -0.0937
18601SOL    HW161640   1.639   2.849   6.843  2.0111  0.9099 -1.3147
18601SOL    HW261641   1.687   2.761   6.956 -1.6678  0.6415  0.1660
18602SOL     OW61642   0.692   8.914  11.740  0.7424  0.2163 -0.1761
18602SOL    HW161643   0.781   8.879  11.732 -0.0352 -2.1082  0.4988
18602SOL    HW261644   0.705   9.006  11.762  2.9813 -0.0510 -0.0689
18603SOL     OW61645   3.592   1.282   6.287  0.2655  0.3826  0.1764
18603SOL    HW161646   3.609   1.320   6.201 -0.1708 -1.4841 -0.7843
18603SOL    HW261647   3.630   1.195   6.283 -0.1850  0.0731  1.7255
18604SOL     OW61648   8.198  11.702   6.625 -0.0360  0.6576 -0.5987
18604SOL    HW161649   8.261  11.657   6.569  0.7662  0.3973  0.4773
18604SOL    HW261650   8.120  11.713   6.570 -0.6360 -2.8763 -0.6730
18605SOL     OW61651   1.376   8.523   4.067 -0.0094 -0.0443  0.5242
18605SOL    HW161652   1.338   8.463   4.131 -1.1596 -0.1486 -0.2339
18605SOL    HW261653   1.430   8.468   4.011  0.3615 -0.0764  0.9071
18606SOL     OW61654   3.772   3.950   2.953 -0.8982 -0.7534  0.8024
18606SOL    HW161655   3.734   3.988   2.874 -1.4156 -0.4936  1.1714
18606SOL    HW261656   3.697   3.932   3.010 -0.5043 -0.5486  1.4039
18607SOL     OW61657   9.288   3.133   0.015  0.2827  0.8710 -0.1062
18607SOL    HW161658   9.275   3.055   0.070  1.8207  0.6055 -0.0611
18607SOL    HW261659   9.371   3.170   0.046  1.7204  0.1864 -2.7931
18608SOL     OW61660   0.938   1.791   8.750  0.6367 -0.3798  0.2758
18608SOL    HW161661   0.968   1.843   8.824  0.5822  0.5293 -0.3295
18608SOL    HW261662   0.858   1.835   8.721 -0.3576 -1.7593  0.7841
18609SOL     OW61663   9.209   7.684   5.463 -0.0423 -0.6799  0.1899
18609SOL    HW161664   9.124   7.723   5.442 -0.7643 -1.6087  1.2673
18609SOL    HW261665   9.250   7.669   5.378 -0.5637  0.6030 -0.3176
18610SOL     OW61666   9.369   8.189  11.222 -0.3102 -0.6233 -0.0745
18610SOL    HW161667   9.318   8.267  11.246  1.0087 -0.1898  1.5124
18610SOL    HW261668   9.352   8.177  11.129 -0.6584  1.4925 -0.3309
18611SOL     OW61669   4.633   3.379   9.552 -0.5071  0.2219 -0.0359
18611SOL    HW161670   4.722   3.365   9.520 -0.7908  1.0483 -1.2795
18611SOL    HW261671   4.626   3.324   9.630  1.2863  0.6147  0.4525
18612SOL     OW61672   9.588   4.657  10.185 -0.2134 -0.2355  0.5274
18612SOL    HW161673   9.625   4.665  10.273 -1.5495  2.1157  0.9373
18612SOL    HW261674   9.593   4.563  10.167  2.0173 -0.5560  2.2195
18613SOL     OW61675   8.034  10.567  10.330 -0.0886 -0.1162  0.1488
18613SOL    HW161676   7.954  10.618  10.322  1.3752  2.1131 -1.6054
18613SOL    HW261677   8.018  10.488  10.278 -1.4511 -0.1777  0.6315
18614SOL     OW61678   7.928   7.447   4.153  0.5158  0.2539  0.4791
18614SOL    HW161679   7.998   7.460   4.089  0.6136  1.5437  0.8053
18614SOL    HW261680   7.866   7.518   4.134 -1.2640 -1.4823 -0.4931
18615SOL     OW61681   5.908   9.271   7.741  0.1439  0.3018 -0.1724
18615SOL    HW161682   5.979   9.219   7.779 -0.7210 -0.6519  0.1917
18615SOL    HW261683   5.847   9.206   7.706 -1.9357  0.9419  2.0377
18616SOL     OW61684   7.420  10.818   0.425  0.3706  0.1145  0.1590
18616SOL    HW161685   7.434  10.729   0.458 -0.0842  0.5106  1.4592
18616SOL    HW261686   7.490  10.870   0.464 -0.9024  0.8373  1.5574
18617SOL     OW61687   2.844   2.594   5.917 -0.5257  0.1576 -0.4172
18617SOL    HW161688   2.858   2.675   5.867 -1.9565 -0.1348 -1.3295
18617SOL    HW261689   2.801   2.535   5.856 -2.7810 -0.0512  1.2687
18618SOL     OW61690   7.445   4.345   2.745 -0.2056 -0.4586 -0.3914
18618SOL    HW161691   7.359   4.306   2.760 -0.7630  0.4146 -1.2176
18618SOL    HW261692   7.439   4.432   2.785  0.3327 -0.4461 -0.3389
18619SOL     OW61693   7.327  10.358   9.648 -0.1303  0.2997 -0.0907
18619SOL    HW161694   7.270  10.433   9.665  1.2878  1.0184  1.8222
18619SOL    HW261695   7.279  10.306   9.582 -1.1128  2.8760 -1.5547
18620SOL     OW61696   2.705   8.425   0.497  0.1356 -0.3049  0.0276
18620SOL    HW161697   2.726   8.493   0.561  1.5388  0.8782 -1.5936
18620SOL    HW261698   2.641   8.465   0.438 -0.8236 -1.2299  0.4036
18621SOL     OW61699   9.639   0.575   4.917  0.3206  0.4734 -0.7288
18621SOL    HW161700   9.718   0.587   4.969  0.5487  0.7554 -1.1319
18621SOL    HW261701   9.640   0.648   4.855  0.7509 -0.5708 -1.9980
18622SOL     OW61702   6.070   0.590   1.416  0.0008 -0.1858  0.0977
18622SOL    HW161703   6.062   0.514   1.359 -2.0432 -0.5712  0.8114
18622SOL    HW261704   6.087   0.553   1.503 -0.3102  0.1910  0.3249
18623SOL     OW61705   8.980   0.602   0.065 -0.0124 -0.0969 -0.4497
18623SOL    HW161706   8.950   0.627   0.152 -1.2892 -0.3427 -0.7946
18623SOL    HW261707   8.936   0.520   0.046  0.8550 -0.4508 -1.0298
18624SOL     OW61708  10.844   3.550  10.722 -0.4775 -0.3617 -0.1107
18624SOL    HW161709  10.787   3.550  10.645  0.6168  0.8654 -0.9677
18624SOL    HW261710  10.824   3.632  10.766 -0.1607 -0.4432  0.1859
18625SOL     OW61711   8.950   8.101   3.932  0.1445 -0.3339  0.7024
18625SOL    HW161712   8.860   8.100   3.898 -0.2831 -1.8536  1.8003
18625SOL    HW261713   8.960   8.018   3.977  2.2941 -0.4115  0.2006
18626SOL     OW61714   8.484   1.766  10.529  0.1812 -0.0743 -0.2539
18626SOL    HW161715   8.542   1.842  10.526  1.6626 -1.1212  0.9045
18626SOL    HW261716   8.490   1.734  10.619 -1.9786 -0.4127 -0.1801
18627SOL     OW61717   5.601  11.115   0.029 -0.2380  0.7176 -0.1351
18627SOL    HW161718   5.651  11.178   0.081  2.0827 -1.8883  1.0566
18627SOL    HW261719   5.647  11.110  -0.054 -0.0509  0.2303 -0.0112
18628SOL     OW61720   5.288   8.091  10.238  0.1014 -0.0084  0.0191
18628SOL    HW161721   5.228   8.165  10.229 -0.1723 -0.3486 -1.0661
18628SOL    HW261722   5.365   8.116  10.186  1.2490  0.7312  1.9528
18629SOL     OW61723  10.267   1.003   9.394 -0.6156 -0.1024  0.3760
18629SOL    HW161724  10.172   1.009   9.385 -1.0364 -3.0405  1.6377
18629SOL    HW261725  10.287   1.053   9.473 -0.9789  1.1398 -0.2999
18630SOL     OW61726   1.277   1.278   7.037 -0.0594  0.5084  0.1950
18630SOL    HW161727   1.190   1.315   7.052 -0.2474  0.3509 -0.4711
18630SOL    HW261728   1.295   1.225   7.115 -1.0521 -0.3886 -0.1577
18631SOL     OW61729   5.964   0.212   7.606  0.5569  0.0012  0.4941
18631SOL    HW161730   5.926   0.252   7.684 -1.5180 -1.4099  0.2696
18631SOL    HW261731   5.913   0.133   7.591  2.9176 -1.4486 -0.5265
18632SOL     OW61732   6.577   0.490   9.991  0.2319 -0.7968 -0.2685
18632SOL    HW161733   6.600   0.398   9.982  1.3372 -0.5248 -0.3462
18632SOL    HW261734   6.654   0.531  10.031 -0.1896  0.1147 -0.3571
18633SOL     OW61735  11.122   5.450   1.704  0.4307  0.3091  0.1263
18633SOL    HW161736  11.066   5.487   1.636  0.4840 -2.3579 -1.5260
18633SOL    HW261737  11.164   5.525   1.746 -1.2624  2.1431 -1.3369
18634SOL     OW61738  10.627   8.207   5.805 -0.3149 -0.3328  0.3079
18634SOL    HW161739  10.659   8.197   5.716  0.7175  1.3878  0.4431
18634SOL    HW261740  10.603   8.118   5.832 -2.2257 -0.6996 -2.2132
18635SOL     OW61741   4.236   9.101  10.481 -0.1436 -0.5002  0.2882
18635SOL    HW161742   4.164   9.077  10.423  0.1405 -0.8433  0.0673
18635SOL    HW261743   4.196   9.108  10.567 -0.7440  0.9013 -0.0766
18636SOL     OW61744   0.598   2.904   1.612 -0.0799  0.1797  0.6419
18636SOL    HW161745   0.593   2.954   1.530 -0.6547 -0.2665  0.3979
18636SOL    HW261746   0.527   2.840   1.605 -0.0087  0.0115  1.4068
18637SOL     OW61747  11.331  11.011   4.703 -0.3419  0.2519  0.0301
18637SOL    HW161748  11.417  10.996   4.663 -0.8136 -1.5363 -0.4448
18637SOL    HW261749  11.350  11.034   4.794  0.6427 -0.4629  0.0217
18638SOL     OW61750   3.455   7.357   5.167  0.2062 -0.0137 -0.8194
18638SOL    HW161751   3.448   7.411   5.089 -0.8061  1.6979  0.3824
18638SOL    HW261752   3.547   7.361   5.191  0.3479  0.2268 -1.3966
18639SOL     OW61753   7.057   6.271   1.590  0.1357 -0.5258 -0.2424
18639SOL    HW161754   7.116   6.204   1.625  0.2070 -1.1480 -1.4690
18639SOL    HW261755   7.038   6.328   1.664  2.0381 -0.4787  0.2664
18640SOL     OW61756   5.098   4.624   9.856 -0.1439  0.0226  0.6669
18640SOL    HW161757   5.068   4.590   9.772 -1.8306  0.2568  1.1430
18640SOL    HW261758   5.140   4.549   9.898  0.1484 -0.2625 -0.1120
18641SOL     OW61759   0.866  10.728   7.215  0.2486  0.1284 -0.0776
18641SOL    HW161760   0.961  10.742   7.225  0.3534 -0.3482 -0.3776
18641SOL    HW261761   0.830  10.816   7.204  0.5411  0.3965  0.9303
18642SOL     OW61762   2.194   0.761  10.614  0.2378  0.0011  0.0458
18642SOL    HW161763   2.242   0.827  10.565 -0.3712  0.3927 -0.0319
18642SOL    HW261764   2.176   0.692  10.551  0.0200  0.2064 -0.1144
18643SOL     OW61765   2.859   4.072   5.440  0.0590  0.1478  0.4110
18643SOL    HW161766   2.936   4.071   5.496  0.7927  2.0979 -0.4794
18643SOL    HW261767   2.893   4.056   5.352 -0.8146 -0.7979  0.2165
18644SOL     OW61768   9.541  10.204   7.132 -0.1452  0.0528 -0.1084
18644SOL    HW161769   9.539  10.141   7.060  0.4966  1.5835 -1.5143
18644SOL    HW261770   9.464  10.183   7.184 -1.6217  0.0083 -2.1913
18645SOL     OW61771   4.133   3.067   9.321 -0.4125 -0.2837  0.5365
18645SOL    HW161772   4.216   3.049   9.365 -0.9964  0.6992  2.1257
18645SOL    HW261773   4.138   3.159   9.297 -0.4574 -0.5917 -0.7308
18646SOL     OW61774   5.297   1.771   2.361  0.3327  0.3708  0.1245
18646SOL    HW161775   5.299   1.759   2.266 -0.7533  0.0743  0.1280
18646SOL    HW261776   5.382   1.809   2.382  0.2382  1.3039 -1.0824
18647SOL     OW61777  10.120   3.002   1.266 -0.1698  0.2610  0.0563
18647SOL    HW161778  10.195   2.951   1.298 -0.1902  0.6914  0.7998
18647SOL    HW261779  10.080   3.039   1.344 -1.5094 -0.4184 -0.2703
18648SOL     OW61780   5.385   4.160   8.474 -0.0407  0.9398  0.2287
18648SOL    HW161781   5.347   4.167   8.387  1.2823  2.9957 -0.2378
18648SOL    HW261782   5.399   4.250   8.502 -0.3028  0.3273  2.5361
18649SOL     OW61783   5.082   2.761   5.245 -0.5642 -0.2110  0.5354
18649SOL    HW161784   5.066   2.797   5.157 -1.0776 -0.6941  0.4256
18649SOL    HW261785   5.009   2.793   5.297  0.2916  0.9654  1.0757
18650SOL     OW61786  10.542  10.235   1.195 -0.2415 -0.0545 -0.0822
18650SOL    HW161787  10.458  10.235   1.240 -0.4782 -0.0141 -0.5178
18650SOL    HW261788  10.532  10.301   1.126 -0.2058 -0.7745 -0.7887
18651SOL     OW61789   8.345   7.805   6.004  0.3578  0.0599  0.1777
18651SOL    HW161790   8.286   7.871   6.040 -0.2055 -0.8532  0.9909
18651SOL    HW261791   8.423   7.810   6.060  1.8654  2.4232 -1.9011
18652SOL     OW61792   2.381   5.157   7.163 -0.4423  0.2418  0.2929
18652SOL    HW161793   2.406   5.181   7.074 -2.3626 -0.7808 -0.5942
18652SOL    HW261794   2.355   5.239   7.204 -1.2285  0.5031 -0.6994
18653SOL     OW61795   9.449   1.605   0.065 -0.3780  0.5787  0.4284
18653SOL    HW161796   9.485   1.656  -0.008  1.8804 -0.7047  0.5411
18653SOL    HW261797   9.379   1.554   0.025  1.3131 -0.6834 -1.1234
18654SOL     OW61798   3.655  10.169   4.345  0.4563 -0.2573  0.4020
18654SOL    HW161799   3.614  10.141   4.263  1.7547  0.2673 -0.4536
18654SOL    HW261800   3.635  10.262   4.352  0.3410 -0.3028  0.6937
18655SOL     OW61801   4.807   2.232   2.465  0.0603 -0.5076  0.3782
18655SOL    HW161802   4.872   2.187   2.410 -0.4604 -0.4535 -0.2930
18655SOL    HW261803   4.723   2.210   2.426 -0.2635  0.2757  0.6162
18656SOL     OW61804   1.801  11.794   7.674  0.2892  0.6047  0.6060
18656SOL    HW161805   1.784  11.805   7.580  1.3757 -2.4345 -0.0817
18656SOL    HW261806   1.719  11.818   7.717 -0.8559  0.2632 -1.2821
18657SOL     OW61807   6.437   0.236   7.285 -0.6555  0.1602  0.0534
18657SOL    HW161808   6.530   0.214   7.279 -0.8304 -0.9564  1.1037
18657SOL    HW261809   6.436   0.324   7.321  0.0101 -0.8923  2.9307
18658SOL     OW61810   8.162   7.071   8.913  0.2186  0.2289  0.1567
18658SOL    HW161811   8.191   7.060   9.003  0.4453 -0.6327 -0.0208
18658SOL    HW261812   8.184   6.989   8.869  2.4019  1.4635 -1.3112
18659SOL     OW61813   6.358   8.057  11.486  0.1140 -0.2522  0.5579
18659SOL    HW161814   6.408   8.135  11.510  0.4158 -0.7177  1.5034
18659SOL    HW261815   6.390   8.035  11.398 -0.7517  1.2871 -0.1950
18660SOL     OW61816   6.789   9.655   7.681  0.9618 -0.5476  0.2121
18660SOL    HW161817   6.739   9.574   7.681  0.5531 -0.3066  0.9598
18660SOL    HW261818   6.876   9.630   7.711  0.6247 -0.6006  1.1904
18661SOL     OW61819   8.376   5.731   1.405 -0.6659  0.0854  0.4568
18661SOL    HW161820   8.456   5.709   1.452 -0.1045 -0.5342 -0.7327
18661SOL    HW261821   8.327   5.648   1.402 -0.3649 -0.0678 -0.6356
18662SOL     OW61822   7.388   8.298   3.037  0.0906 -0.0354 -0.3246
18662SOL    HW161823   7.371   8.380   3.083 -1.1259 -1.3183  1.6362
18662SOL    HW261824   7.433   8.325   2.956  0.8065  2.4285  0.8053
18663SOL     OW61825   0.543   9.908   1.073 -0.6783  0.1300  0.2244
18663SOL    HW161826   0.619   9.890   1.128  1.1791  1.6404 -1.6656
18663SOL    HW261827   0.580   9.941   0.991 -3.4328  3.0634 -0.0297
18664SOL     OW61828   3.952  11.983   4.139  0.0264  0.0890 -0.1488
18664SOL    HW161829   3.980  11.902   4.096 -1.8459  0.2155 -1.6901
18664SOL    HW261830   3.973  12.052   4.077  2.1991  0.9690  1.4082
18665SOL     OW61831   7.292  11.980   7.909 -0.1629 -0.7918 -0.0377
18665SOL    HW161832   7.283  11.993   7.814  1.5455 -0.1876 -0.1475
18665SOL    HW261833   7.350  11.904   7.918  1.6995  0.6162  0.4513
18666SOL     OW61834   7.101   5.516   5.523 -0.3729  0.5840  0.0159
18666SOL    HW161835   7.177   5.559   5.560 -0.9367  0.9269  0.8071
18666SOL    HW261836   7.069   5.577   5.456 -0.7043  1.0389  0.5832
18667SOL     OW61837   8.850   0.196   9.770  0.1585 -0.5980  0.0115
18667SOL    HW161838   8.851   0.275   9.825  1.0258 -1.3812  1.1704
18667SOL    HW261839   8.901   0.132   9.820  1.8971 -1.0478 -2.1646
18668SOL     OW61840   8.163   0.408  10.339 -0.3085 -0.2096 -0.2407
18668SOL    HW161841   8.145   0.476  10.274  0.1945  0.1440 -0.0092
18668SOL    HW261842   8.233   0.355  10.299  0.0219  0.0256  0.0206
18669SOL     OW61843   6.577   9.874   5.248  0.0711 -0.3158 -0.3306
18669SOL    HW161844   6.553   9.856   5.157  0.5825 -1.3024 -0.2848
18669SOL    HW261845   6.500   9.849   5.298  0.0619 -0.4935 -0.4320
18670SOL     OW61846   5.230   4.713   5.547 -0.2774  0.2458  0.3224
18670SOL    HW161847   5.150   4.766   5.543  1.0199  2.2506 -0.8607
18670SOL    HW261848   5.284   4.756   5.614 -0.4241 -1.5210  1.6382
18671SOL     OW61849   9.633  12.252   7.796 -0.4591  0.0676 -0.2592
18671SOL    HW161850   9.667  12.319   7.737 -1.2719  0.5729 -0.1642
18671SOL    HW261851   9.695  12.249   7.868 -0.2501  0.4852 -0.4237
18672SOL     OW61852   6.617   7.240   2.192  0.3015 -0.2665 -0.2429
18672SOL    HW161853   6.541   7.227   2.135 -1.1845  1.7649  1.1134
18672SOL    HW261854   6.626   7.336   2.198  1.8945 -0.4539  1.0222
18673SOL     OW61855   5.842   9.680  10.535 -0.7816 -0.1399 -0.6803
18673SOL    HW161856   5.878   9.612  10.478  0.1650 -0.7012  0.5320
18673SOL    HW261857   5.914   9.743  10.545  0.2841 -1.6478  2.3759
18674SOL     OW61858   5.670  12.281   3.655  0.3283  0.2734  0.5382
18674SOL    HW161859   5.655  12.373   3.636 -2.2711 -0.5616 -2.3097
18674SOL    HW261860   5.756  12.261   3.616 -0.0133  1.0623 -0.6417
18675SOL     OW61861   9.625  12.129   8.755 -0.0224  0.1646 -0.0193
18675SOL    HW161862   9.604  12.181   8.833 -0.7587 -1.1638  0.7137
18675SOL    HW261863   9.711  12.159   8.728  0.1880  0.7622  1.2410
18676SOL     OW61864   5.245   2.458   7.905 -0.1692  0.5246 -0.4526
18676SOL    HW161865   5.319   2.397   7.909 -1.3958 -0.9518  0.9662
18676SOL    HW261866   5.273   2.525   7.842  1.6286 -0.9677 -1.3550
18677SOL     OW61867   0.222   8.472   6.169  0.2521 -0.4932  0.1875
18677SOL    HW161868   0.150   8.417   6.137  0.8763 -0.8925 -0.5592
18677SOL    HW261869   0.257   8.513   6.090  1.1695 -0.6879  0.4899
18678SOL     OW61870  10.607   7.427   2.859  0.0301 -0.1296 -0.5211
18678SOL    HW161871  10.653   7.396   2.781  0.8074 -1.9574  0.5939
18678SOL    HW261872  10.673   7.476   2.908  0.2012 -0.9464  0.0728
18679SOL     OW61873   0.214  12.328   6.620 -0.1643  0.0348  0.0681
18679SOL    HW161874   0.281  12.270   6.585  0.4662  1.5287 -1.3645
18679SOL    HW261875   0.250  12.416   6.608 -1.6286  0.8067  0.9513
18680SOL     OW61876   7.706   3.994   5.105 -0.3895  0.1464  0.1875
18680SOL    HW161877   7.695   4.044   5.024 -1.2927 -0.9599 -0.3957
18680SOL    HW261878   7.640   4.030   5.164 -0.5046  0.1758  0.0429
18681SOL     OW61879  10.593   5.469   2.862  0.3795  0.4484  0.3192
18681SOL    HW161880  10.602   5.488   2.768 -1.1018 -2.1786 -0.4572
18681SOL    HW261881  10.510   5.510   2.887 -0.4153 -0.8154 -0.1567
18682SOL     OW61882   8.406   7.658   5.356 -0.5848 -0.3559  0.3681
18682SOL    HW161883   8.324   7.684   5.314 -0.4384  0.0727  0.3459
18682SOL    HW261884   8.378   7.615   5.437 -0.8173  0.4811  0.7440
18683SOL     OW61885   0.948  10.972   4.068 -0.0376 -0.4529 -0.4771
18683SOL    HW161886   0.893  10.958   4.146  1.3695 -2.1475  0.2704
18683SOL    HW261887   0.980  10.885   4.046 -0.2286  0.0270 -2.8726
18684SOL     OW61888   8.264   6.895   8.454 -0.1127 -0.1883 -0.5107
18684SOL    HW161889   8.195   6.957   8.432 -0.3721  0.0268  0.8423
18684SOL    HW261890   8.339   6.949   8.479 -0.0136 -0.4262 -0.2894
18685SOL     OW61891   7.584   2.069   3.758  0.1931 -0.0466  0.4289
18685SOL    HW161892   7.562   2.033   3.672  0.7754 -0.4050  0.4226
18685SOL    HW261893   7.635   2.000   3.800 -1.6427 -0.6278  1.8093
18686SOL     OW61894  11.821  12.148   7.916 -0.2128 -0.0643  0.0140
18686SOL    HW161895  11.878  12.090   7.864 -1.6933 -1.5365 -0.0524
18686SOL    HW261896  11.850  12.134   8.006 -0.1224 -0.4190 -0.0652
18687SOL     OW61897   2.282   7.368   7.017  0.2664  0.2223 -0.2744
18687SOL    HW161898   2.213   7.393   7.079  0.0410  2.2315 -1.2256
18687SOL    HW261899   2.244   7.387   6.931  0.9303 -1.5436 -1.0071
18688SOL     OW61900   5.700  12.015   7.890 -0.3192 -0.0211 -0.0712
18688SOL    HW161901   5.719  11.946   7.954  0.1665 -0.2867 -0.4966
18688SOL    HW261902   5.637  12.072   7.934  0.2959  0.0105  0.7849
18689SOL     OW61903   0.468   6.312   5.145 -0.6763  0.4664 -0.1736
18689SOL    HW161904   0.516   6.342   5.223 -1.2262  1.1580 -0.0920
18689SOL    HW261905   0.458   6.391   5.092  0.7590 -0.2056 -1.5431
18690SOL     OW61906  11.937  11.261  12.084  0.0501  0.3419  0.4688
18690SOL    HW161907  12.020  11.250  12.039  1.1699  2.7455  1.7564
18690SOL    HW261908  11.872  11.269  12.014  0.9812 -0.7834 -0.5675
18691SOL     OW61909   5.400   0.128   8.665  0.4398  0.4098  0.2614
18691SOL    HW161910   5.382   0.205   8.611 -0.3107 -0.7993 -1.2890
18691SOL    HW261911   5.358   0.055   8.618 -0.7667 -0.6301  2.7489
18692SOL     OW61912   8.175   5.942   7.624  0.1957 -0.0712  0.6411
18692SOL    HW161913   8.180   5.891   7.544 -0.0932  0.3807  0.3320
18692SOL    HW261914   8.099   5.907   7.670 -0.0804  0.1619  0.3682
18693SOL     OW61915   9.489   0.206   3.258 -0.1588  0.6818  0.4150
18693SOL    HW161916   9.403   0.238   3.232 -0.4418 -0.5114 -0.1785
18693SOL    HW261917   9.550   0.254   3.202 -0.6404 -0.4612 -1.1539
18694SOL     OW61918   0.016   0.725   2.607 -0.5717  0.0508  0.3438
18694SOL    HW161919   0.098   0.774   2.613 -0.0214 -0.9436  1.3216
18694SOL    HW261920  -0.031   0.767   2.535  1.6492 -0.6150 -1.6319
18695SOL     OW61921   4.245   6.628   5.601  0.3280 -0.6560  0.2542
18695SOL    HW161922   4.258   6.533   5.609  1.8880 -0.5719 -0.7454
18695SOL    HW261923   4.155   6.638   5.569  0.5031 -1.8631 -0.6735
18696SOL     OW61924   3.409  10.103  11.213 -0.1580  0.3295  0.2029
18696SOL    HW161925   3.320  10.089  11.246 -0.8302  0.1254 -1.5762
18696SOL    HW261926   3.420  10.198  11.214 -0.8347  0.4293 -0.5931
18697SOL     OW61927   5.846   4.531   1.938 -0.2412 -0.2637 -0.2735
18697SOL    HW161928   5.860   4.438   1.921  0.3569 -0.8283  2.6942
18697SOL    HW261929   5.764   4.534   1.987 -0.3167  0.7889 -0.4559
18698SOL     OW61930   0.935   8.581  11.785 -0.2352  0.8728  0.6380
18698SOL    HW161931   0.969   8.666  11.758  1.2041  1.1386  2.9759
18698SOL    HW261932   0.946   8.524  11.709  1.1124  2.1557 -0.1647
18699SOL     OW61933   4.260   7.145   3.083 -0.1491  0.2523 -0.0638
18699SOL    HW161934   4.232   7.227   3.124 -0.0865  0.3818 -0.2730
18699SOL    HW261935   4.320   7.173   3.013 -0.8971  0.0930 -0.7889
18700SOL     OW61936   7.993  10.248   7.960  0.1398  0.0115 -0.0739
18700SOL    HW161937   8.007  10.342   7.975 -1.4825  0.1873  0.5102
18700SOL    HW261938   7.899  10.240   7.945  0.5122 -1.2956 -2.0155
18701SOL     OW61939  10.678   2.346   4.878 -0.6536 -0.0579 -0.0436
18701SOL    HW161940  10.773   2.350   4.881 -0.5555 -0.6056 -1.3499
18701SOL    HW261941  10.655   2.271   4.933 -0.1536 -1.2049 -1.3374
18702SOL     OW61942   3.034   6.621   7.212 -0.0167 -0.4372 -0.6093
18702SOL    HW161943   3.024   6.685   7.282 -1.4455  0.7146 -1.7833
18702SOL    HW261944   3.128   6.617   7.196  0.4233 -1.2677  1.7878
18703SOL     OW61945   3.191   8.280   9.644 -0.1566  0.2510  0.5270
18703SOL    HW161946   3.214   8.188   9.628  1.2567  0.8069 -0.9347
18703SOL    HW261947   3.272   8.319   9.676 -0.5854  1.1033  0.5972
18704SOL     OW61948   1.478   7.447   2.043 -0.0318 -0.3569 -0.2803
18704SOL    HW161949   1.531   7.423   2.119  1.4055 -0.0189 -1.1211
18704SOL    HW261950   1.396   7.478   2.079  0.5941 -0.2581  1.1303
18705SOL     OW61951   7.727   1.485   3.153 -0.2567  0.4649  0.1172
18705SOL    HW161952   7.781   1.444   3.220  0.6202  0.3502 -0.6381
18705SOL    HW261953   7.653   1.523   3.201  0.6177  0.8475  1.1986
18706SOL     OW61954   4.046   5.110  11.407 -0.0368  0.0980  0.2640
18706SOL    HW161955   4.027   5.033  11.462 -1.8857  0.2978 -0.0156
18706SOL    HW261956   4.078   5.073  11.324  1.2497 -0.2574  0.8900
18707SOL     OW61957  10.769   4.700   7.469 -0.0647 -0.2099 -0.0589
18707SOL    HW161958  10.682   4.728   7.498 -0.3488 -0.3904 -0.7178
18707SOL    HW261959  10.792   4.628   7.528  0.0025  0.3692  0.6465
18708SOL     OW61960   8.759  11.066   4.673 -0.8607 -0.9713 -0.5857
18708SOL    HW161961   8.833  11.116   4.706 -1.6920  1.0080 -1.5362
18708SOL    HW261962   8.785  11.039   4.584 -1.2515 -0.2821 -0.9171
18709SOL     OW61963   2.040  11.692   7.196 -0.1164  0.2372  0.1679
18709SOL    HW161964   2.090  11.742   7.131  0.8500 -0.6790  0.1640
18709SOL    HW261965   2.091  11.700   7.277 -0.6895  0.4043  0.5137
18710SOL     OW61966   7.997   8.884   9.570 -0.0627  0.2188  0.1160
18710SOL    HW161967   7.940   8.931   9.631  0.3841  1.3903 -0.3556
18710SOL    HW261968   8.012   8.945   9.498  0.8019 -0.5213 -0.3557
18711SOL     OW61969   1.570   2.339   7.226  0.1629  0.0164  0.0188
18711SOL    HW161970   1.500   2.347   7.160 -0.2917 -2.2603  0.1582
18711SOL    HW261971   1.651   2.354   7.177 -0.2699  0.1585 -0.6716
18712SOL     OW61972  10.188   1.873  11.993  0.1774  0.4253  0.2586
18712SOL    HW161973  10.159   1.929  12.065 -2.3582  0.5964 -0.7943
18712SOL    HW261974  10.202   1.787  12.033 -1.3566  0.4807  0.9703
18713SOL     OW61975   4.985   1.256   7.708 -0.4374 -0.1141  0.0882
18713SOL    HW161976   5.044   1.199   7.658 -0.1275  1.1911 -1.1113
18713SOL    HW261977   4.898   1.219   7.693 -0.4148  0.4812 -1.8631
18714SOL     OW61978   4.014   7.572  12.185 -0.5726 -0.2696 -0.2492
18714SOL    HW161979   3.947   7.640  12.185 -0.2754  0.1020  2.3848
18714SOL    HW261980   3.975   7.500  12.234  1.6638  0.8806  3.6076
18715SOL     OW61981  10.388  11.763   9.615 -0.0477  0.3065  0.6565
18715SOL    HW161982  10.483  11.760   9.623 -0.0275 -1.0935  0.3003
18715SOL    HW261983  10.372  11.810   9.533  0.3476  0.2750  0.5601
18716SOL     OW61984   5.965   3.185   6.020  0.9760  0.1924  0.6482
18716SOL    HW161985   6.022   3.156   6.091  1.2123 -0.7160  0.1165
18716SOL    HW261986   5.970   3.280   6.021 -0.3705  0.3004  2.9381
18717SOL     OW61987   8.656  10.514   3.977 -0.0609  0.3406 -0.4602
18717SOL    HW161988   8.642  10.603   3.945 -0.4266  0.7302  0.7324
18717SOL    HW261989   8.656  10.522   4.072 -1.1008 -1.0727 -0.3050
18718SOL     OW61990   5.742   9.671   3.734 -0.2148 -0.2094 -0.2604
18718SOL    HW161991   5.788   9.754   3.747 -1.4547  0.2526  1.6024
18718SOL    HW261992   5.804   9.604   3.762 -0.1649  0.3108  0.9157
18719SOL     OW61993  12.140   4.339   0.229  0.1783  0.4851  0.0175
18719SOL    HW161994  12.227   4.372   0.251 -0.1096  1.6611 -0.5225
18719SOL    HW261995  12.080   4.390   0.284 -0.3528  1.6621 -1.5874
18720SOL     OW61996   4.615   6.046  11.029  0.1691 -0.6775  0.1932
18720SOL    HW161997   4.586   6.006  10.948  1.5643 -0.0641 -0.6495
18720SOL    HW261998   4.706   6.018  11.038 -0.5078 -2.4531  2.6674
18721SOL     OW61999   3.570   0.826   7.791 -0.0297  0.3485 -0.1384
18721SOL    HW162000   3.476   0.814   7.805 -0.0177 -0.4626 -0.6671
18721SOL    HW262001   3.592   0.905   7.839 -0.2531 -1.4765  3.2681
18722SOL     OW62002  10.905   2.364   1.602  0.2097 -0.5787  0.1500
18722SOL    HW162003  10.826   2.365   1.656  0.6819 -0.8089  0.8574
18722SOL    HW262004  10.964   2.425   1.645  1.2452 -2.0623  0.9171
18723SOL     OW62005   4.236   1.114   1.722 -0.2836  0.1945 -0.2151
18723SOL    HW162006   4.288   1.122   1.801 -2.3544 -0.3282  1.3070
18723SOL    HW262007   4.167   1.051   1.745 -1.2610  0.4183 -2.2645
18724SOL     OW62008   0.916   4.421   5.273  0.5605 -0.3396  1.0742
18724SOL    HW162009   0.961   4.497   5.234 -1.3525  0.4072  0.2101
18724SOL    HW262010   0.875   4.456   5.352  0.4142 -0.6900  1.1517
18725SOL     OW62011   9.865   7.278   5.531  0.1091  0.3765 -0.1665
18725SOL    HW162012   9.809   7.327   5.471 -0.3724 -1.2635 -1.1277
18725SOL    HW262013   9.954   7.297   5.502 -0.1184 -0.3411 -1.3912
18726SOL     OW62014   8.165  12.154   1.322 -0.1263 -0.0072 -0.2415
18726SOL    HW162015   8.241  12.204   1.293 -2.1465  1.6807 -3.1962
18726SOL    HW262016   8.144  12.097   1.248  0.9978 -4.2051  2.3263
18727SOL     OW62017   3.123   1.882   3.884 -0.3362  0.6019  0.1769
18727SOL    HW162018   3.071   1.819   3.836  0.5337 -0.0975  0.1127
18727SOL    HW262019   3.075   1.896   3.966 -0.2801 -0.5780  0.4337
18728SOL     OW62020   9.751   8.039   0.923 -0.3809 -0.1219  0.3308
18728SOL    HW162021   9.690   8.112   0.927 -0.8627 -0.5487  0.8671
18728SOL    HW262022   9.816   8.059   0.991 -1.0192 -0.6263  1.1166
18729SOL     OW62023   0.268   8.237   8.039 -0.3822  0.1090 -0.4874
18729SOL    HW162024   0.251   8.320   8.084 -1.1504 -0.2290 -0.1428
18729SOL    HW262025   0.231   8.249   7.952  0.6529  0.5795 -0.8844
18730SOL     OW62026  11.262   5.394   3.281  0.2381 -0.5344 -0.8153
18730SOL    HW162027  11.206   5.315   3.281 -0.7298  0.1026 -2.5714
18730SOL    HW262028  11.233   5.444   3.205  2.1430  0.6257 -0.8346
18731SOL     OW62029   5.080  10.328  12.072 -0.4106 -0.0713 -0.1340
18731SOL    HW162030   5.116  10.249  12.031  1.0500  1.5041 -2.0800
18731SOL    HW262031   5.130  10.337  12.153 -0.4695 -0.9967  0.0266
18732SOL     OW62032   6.687   8.895   6.000  0.2434  0.5387 -0.1541
18732SOL    HW162033   6.758   8.954   6.023 -0.2058  1.2229 -0.4653
18732SOL    HW262034   6.649   8.868   6.084  1.8360 -1.0841  0.0886
18733SOL     OW62035   9.253  10.984   2.818 -0.6072 -0.0351  0.1308
18733SOL    HW162036   9.274  11.050   2.752 -1.6579  0.5728  0.3842
18733SOL    HW262037   9.165  11.007   2.848 -1.0588 -1.6633  0.1129
18734SOL     OW62038   7.732   8.397   8.410 -0.7761 -0.7894 -0.0723
18734SOL    HW162039   7.752   8.450   8.333 -0.9022  2.0953  1.6932
18734SOL    HW262040   7.801   8.420   8.473 -0.7052 -2.9861  0.7281
18735SOL     OW62041   0.821   1.052   0.854 -0.5201  0.7469  0.1112
18735SOL    HW162042   0.876   1.083   0.926  1.5656 -0.1624 -1.0184
18735SOL    HW262043   0.763   0.987   0.894  0.1452  0.7377  1.0849
18736SOL     OW62044   9.127   1.402   9.556  0.3609 -0.1309 -0.3557
18736SOL    HW162045   9.060   1.463   9.524  0.2476 -0.1862 -0.2286
18736SOL    HW262046   9.190   1.458   9.602 -1.3579 -0.3463  2.5630
18737SOL     OW62047   7.840   4.911   0.956 -0.5816  0.0496  0.1973
18737SOL    HW162048   7.749   4.886   0.939 -0.6521 -0.1082  0.7641
18737SOL    HW262049   7.879   4.832   0.993 -0.1862  0.0889 -0.1360
18738SOL     OW62050   2.033   5.446   4.255 -0.7211 -0.2750 -0.0456
18738SOL    HW162051   2.059   5.509   4.323  0.7816 -1.5538  0.6327
18738SOL    HW262052   1.984   5.378   4.302 -1.6827 -0.0161 -0.6482
18739SOL     OW62053   1.549   6.770  12.034  0.1874 -0.5221  0.2203
18739SOL    HW162054   1.556   6.822  12.114 -0.0169 -0.6628  0.3316
18739SOL    HW262055   1.564   6.680  12.063 -1.0888 -0.7272  0.3147
18740SOL     OW62056  11.346   6.982   4.434 -0.2213 -0.0795  0.0389
18740SOL    HW162057  11.385   6.983   4.522  0.3399  1.0895 -0.2127
18740SOL    HW262058  11.262   7.028   4.445  0.8876  2.1859 -0.4707
18741SOL     OW62059   2.340   8.576   9.081  0.2371  0.1281  0.2609
18741SOL    HW162060   2.283   8.603   9.153  1.4277  1.6655  0.6683
18741SOL    HW262061   2.308   8.625   9.005  1.6008  1.8062  0.7186
18742SOL     OW62062   6.766   5.589  11.206 -0.8642  0.1866  0.0953
18742SOL    HW162063   6.753   5.596  11.300 -1.7282  0.2334 -0.0223
18742SOL    HW262064   6.832   5.655  11.186  0.1652 -0.5849  0.8224
18743SOL     OW62065   2.819  12.084   3.039 -0.1063  0.3102  0.1564
18743SOL    HW162066   2.829  12.004   3.090 -0.6994 -0.1248 -0.3929
18743SOL    HW262067   2.782  12.055   2.955 -1.0348  1.2334  0.2289
18744SOL     OW62068   5.290   2.756   4.742 -0.2911 -0.1760 -0.1149
18744SOL    HW162069   5.203   2.716   4.743 -1.2725  1.8271 -0.9190
18744SOL    HW262070   5.347   2.689   4.780 -1.9998 -1.9135 -0.4431
18745SOL     OW62071   3.188   1.570  10.334 -0.3094  0.3351  0.2490
18745SOL    HW162072   3.231   1.487  10.356 -0.9078 -0.4050 -1.2292
18745SOL    HW262073   3.249   1.638  10.363  1.4192 -0.6635 -0.9007
18746SOL     OW62074   2.071   4.834  12.039  0.5030  0.0275 -0.4958
18746SOL    HW162075   2.021   4.879  12.107  0.9144  0.3077 -0.3771
18746SOL    HW262076   2.050   4.880  11.958  0.1460 -0.1979 -0.5304
18747SOL     OW62077   8.131   6.551   4.601 -0.5458 -0.3391 -0.1411
18747SOL    HW162078   8.039   6.545   4.575 -0.1404 -1.0620 -1.4716
18747SOL    HW262079   8.141   6.485   4.669 -0.4127 -2.1517 -1.8527
18748SOL     OW62080   8.703  10.711   7.452 -0.6590  0.0833 -0.5518
18748SOL    HW162081   8.771  10.704   7.385 -0.4428  0.1124 -0.3412
18748SOL    HW262082   8.621  10.719   7.404 -0.4509  0.7009 -0.8093
18749SOL     OW62083   2.223   5.849   5.784  0.0759 -0.0538  0.4882
18749SOL    HW162084   2.246   5.786   5.852  0.5362 -0.6197 -0.1698
18749SOL    HW262085   2.304   5.898   5.767 -0.5284  1.4578  1.7184
18750SOL     OW62086  10.420   6.701   0.730 -0.0526 -0.1182  0.3458
18750SOL    HW162087  10.326   6.707   0.745  0.0669  0.4110  0.9203
18750SOL    HW262088  10.428   6.686   0.636 -0.6980  0.3155  0.2104
18751SOL     OW62089   6.862   0.246   1.763  0.1035  0.6102  0.3827
18751SOL    HW162090   6.800   0.265   1.834  0.1260 -0.4566  0.7156
18751SOL    HW262091   6.946   0.235   1.808  0.4200  1.3966  0.0076
18752SOL     OW62092   6.510   7.739  10.243 -0.1294 -0.5834  0.3503
18752SOL    HW162093   6.540   7.667  10.187  0.2754  0.3747 -0.6899
18752SOL    HW262094   6.504   7.700  10.330  0.8511 -1.6775 -0.0466
18753SOL     OW62095   2.152   5.932   7.493 -0.2272  0.7039  0.0266
18753SOL    HW162096   2.184   5.911   7.581 -0.2639 -3.0167 -0.6758
18753SOL    HW262097   2.231   5.940   7.440 -0.2370  2.0407  0.1830
18754SOL     OW62098  10.207   6.114   0.579  0.7035 -0.5651 -0.0366
18754SOL    HW162099  10.258   6.035   0.563  0.3160 -0.7114 -0.5466
18754SOL    HW262100  10.135   6.110   0.517 -0.6994 -1.0264  1.5592
18755SOL     OW62101   3.342   5.003   3.957  0.1534  0.3873 -0.7764
18755SOL    HW162102   3.270   5.065   3.946  0.8063  1.2367 -0.3892
18755SOL    HW262103   3.353   4.994   4.051 -1.1073 -1.7645 -0.7537
18756SOL     OW62104   5.373   1.804   6.288  0.0963  0.2002  0.1667
18756SOL    HW162105   5.337   1.812   6.376 -0.3639  1.7916 -0.1262
18756SOL    HW262106   5.467   1.815   6.299 -0.0678  1.5720  0.3545
18757SOL     OW62107   8.411   8.182  11.232  0.6696 -0.0078  0.1913
18757SOL    HW162108   8.491   8.134  11.251  2.5330  2.1545 -1.6659
18757SOL    HW262109   8.440   8.263  11.191 -2.4502  1.3085  0.2705
18758SOL     OW62110   9.644   0.907   4.697 -0.2028  0.0514  0.2426
18758SOL    HW162111   9.578   0.973   4.717 -0.6166 -0.5763  1.0467
18758SOL    HW262112   9.722   0.936   4.744 -0.4228 -0.0851  0.7028
18759SOL     OW62113   3.010   5.782   7.629  0.3055  0.1052 -0.2539
18759SOL    HW162114   2.953   5.855   7.656 -1.2520 -1.0359 -0.3165
18759SOL    HW262115   3.077   5.823   7.574 -1.6550  1.2722 -1.9004
18760SOL     OW62116   0.851   8.567   6.779  0.2161 -0.8072  0.2912
18760SOL    HW162117   0.833   8.515   6.857  0.2706 -0.3998  0.5765
18760SOL    HW262118   0.873   8.654   6.812 -0.1843 -0.5129 -0.1920
18761SOL     OW62119   9.221   2.928   4.400  0.2591 -0.3487  0.5313
18761SOL    HW162120   9.140   2.970   4.370  0.1163 -0.2395  1.0543
18761SOL    HW262121   9.191   2.846   4.440  0.6787 -1.9405 -2.1498
18762SOL     OW62122  11.427   7.150  10.898  0.7468 -0.3273 -0.4858
18762SOL    HW162123  11.426   7.112  10.985 -1.1227  0.0857 -0.2842
18762SOL    HW262124  11.352   7.111  10.853  0.6672  0.7248 -1.3293
18763SOL     OW62125   0.742   1.761   9.050 -0.4099 -0.4792 -0.0812
18763SOL    HW162126   0.782   1.776   8.964 -0.1012 -1.6279 -0.1550
18763SOL    HW262127   0.653   1.733   9.030 -0.0952 -1.5127 -0.0685
18764SOL     OW62128   4.094   2.513   6.053 -0.4303 -0.3934 -0.1478
18764SOL    HW162129   4.016   2.462   6.073 -0.3905 -0.2481  0.3863
18764SOL    HW262130   4.087   2.532   5.959 -0.3500 -1.5478 -0.4021
18765SOL     OW62131   0.368   7.329   0.568  0.0636  0.2196  0.0085
18765SOL    HW162132   0.437   7.268   0.593 -0.9238 -0.9985 -0.1572
18765SOL    HW262133   0.409   7.388   0.504  1.2744  0.3186  0.8374
18766SOL     OW62134   0.445   9.566   5.347  0.5398 -0.5569 -0.2353
18766SOL    HW162135   0.473   9.487   5.394  0.5005 -1.4446 -1.6156
18766SOL    HW262136   0.452   9.541   5.254 -2.3233  0.0189 -0.6943
18767SOL     OW62137   7.389   9.179   5.768  0.2016  0.1322  0.1971
18767SOL    HW162138   7.468   9.229   5.790  1.4837 -0.8486 -1.8481
18767SOL    HW262139   7.363   9.214   5.683 -0.6651 -0.6366  0.1398
18768SOL     OW62140   9.216  11.355   1.702  0.3651 -0.2069  0.4324
18768SOL    HW162141   9.144  11.305   1.663 -1.1173  2.3127 -0.3036
18768SOL    HW262142   9.270  11.381   1.627  1.1661 -0.7213  0.8173
18769SOL     OW62143   9.536   9.717   4.826  0.0883 -0.3812  0.0235
18769SOL    HW162144   9.621   9.686   4.795 -1.3615 -2.8598 -1.7938
18769SOL    HW262145   9.507   9.650   4.887 -0.8393  0.1507  0.1782
18770SOL     OW62146   8.886   3.492   4.034 -0.0078 -0.1658  0.2991
18770SOL    HW162147   8.905   3.417   4.090 -1.3732 -0.4327  0.4473
18770SOL    HW262148   8.914   3.568   4.084 -0.4906 -0.4554  1.0237
18771SOL     OW62149   1.357   8.162   2.739 -0.1561  0.2242  0.1049
18771SOL    HW162150   1.432   8.140   2.794 -0.7098 -0.2416  0.6888
18771SOL    HW262151   1.338   8.081   2.691  0.0392  0.4961 -0.4510
18772SOL     OW62152   6.163   8.633   3.973 -0.0884 -0.4103  0.0969
18772SOL    HW162153   6.073   8.622   3.940 -1.1913  0.8094  2.4750
18772SOL    HW262154   6.184   8.549   4.012 -1.0522 -0.0792  1.3864
18773SOL     OW62155   0.899   1.726   8.421  0.0052 -0.1414 -0.1923
18773SOL    HW162156   0.904   1.811   8.463 -0.9396  0.3742 -1.0961
18773SOL    HW262157   0.990   1.705   8.398 -0.0583  2.7069 -3.9737
18774SOL     OW62158  10.614   1.603   7.022  0.1609  0.3889 -0.0749
18774SOL    HW162159  10.606   1.698   7.014 -0.4174  0.2735 -1.0796
18774SOL    HW262160  10.708   1.586   7.022  0.3198  1.0416  1.4989
18775SOL     OW62161   0.643   5.976   6.079 -0.1816  0.2953 -0.2563
18775SOL    HW162162   0.688   5.921   6.143  1.1880  1.0161 -0.5444
18775SOL    HW262163   0.594   6.039   6.132 -1.0048 -0.5837  0.0636
18776SOL     OW62164   4.821  10.635   2.674  0.0731 -0.0873 -0.4787
18776SOL    HW162165   4.810  10.729   2.688  1.9581  0.1065  0.0392
18776SOL    HW262166   4.859  10.628   2.586 -0.4535 -0.3944 -0.6821
18777SOL     OW62167   6.904  11.403  11.911 -0.0614  0.1549 -0.4515
18777SOL    HW162168   6.992  11.371  11.894 -0.9776 -2.8883 -0.0419
18777SOL    HW262169   6.903  11.425  12.004 -0.0379 -0.9659 -0.1798
18778SOL     OW62170   5.326  11.006   6.508  0.2037  0.4657  0.1762
18778SOL    HW162171   5.326  11.056   6.427  3.1122 -1.2692 -1.0860
18778SOL    HW262172   5.247  10.952   6.504  1.3339 -1.1816 -2.6993
18779SOL     OW62173   0.497   9.449   4.316  0.1855  0.2189 -0.3476
18779SOL    HW162174   0.417   9.474   4.363  0.1255 -0.3700 -0.1318
18779SOL    HW262175   0.468   9.432   4.226  0.2194  0.8685 -0.4872
18780SOL     OW62176  11.968   8.831   3.503  0.1225  0.1802  0.0349
18780SOL    HW162177  12.009   8.918   3.501  1.2576 -0.3157  0.7227
18780SOL    HW262178  11.948   8.817   3.596 -1.6626  0.4037 -0.2749
18781SOL     OW62179   9.605   7.267   8.894  0.0015 -0.3210  0.2211
18781SOL    HW162180   9.583   7.319   8.816  0.5471 -0.3820  0.0220
18781SOL    HW262181   9.523   7.259   8.941  0.2488  2.4459  1.3137
18782SOL     OW62182   8.455  10.183   1.772 -0.4721 -0.3783  0.1973
18782SOL    HW162183   8.366  10.195   1.805 -1.1430 -0.8471 -1.3498
18782SOL    HW262184   8.454  10.225   1.686  1.9561  3.1916  1.6609
18783SOL     OW62185   1.956   0.839   9.179 -0.4969 -0.1073  0.1898
18783SOL    HW162186   1.894   0.894   9.130  0.8985  1.3196 -0.0686
18783SOL    HW262187   2.040   0.851   9.133  0.1472 -1.3592  0.9889
18784SOL     OW62188   1.638   3.461   7.724 -0.7789 -0.1476  0.7795
18784SOL    HW162189   1.672   3.535   7.673  0.6341 -0.9009  0.5878
18784SOL    HW262190   1.605   3.400   7.658 -2.0985  0.3576  0.9441
18785SOL     OW62191  11.750   6.355   7.417 -0.5753  0.0696 -0.4887
18785SOL    HW162192  11.732   6.316   7.332 -0.1573  1.6481 -1.3369
18785SOL    HW262193  11.816   6.298   7.456 -1.3088 -1.0841 -0.8909
18786SOL     OW62194   6.618   4.287   9.027 -0.5637 -0.1021  0.0020
18786SOL    HW162195   6.532   4.309   8.991 -0.5041  0.0088 -0.0733
18786SOL    HW262196   6.626   4.193   9.015 -0.6938 -0.1185  0.0487
18787SOL     OW62197   1.097   7.991   4.887  0.4904 -0.4660 -0.1841
18787SOL    HW162198   1.178   7.944   4.867  0.5954 -0.1812 -0.4318
18787SOL    HW262199   1.109   8.078   4.849  0.3555 -0.1909  0.3918
18788SOL     OW62200  10.368   8.494   0.564  0.0566 -1.0111 -0.0967
18788SOL    HW162201  10.285   8.535   0.541  0.9569 -0.1834 -2.0825
18788SOL    HW262202  10.368   8.492   0.660 -0.7011  2.3019  0.0936
18789SOL     OW62203   0.189   1.255  10.512 -0.0700  0.3671  0.0061
18789SOL    HW162204   0.111   1.206  10.487  0.3437 -0.0384 -0.5211
18789SOL    HW262205   0.156   1.329  10.563 -0.6480 -0.8690  1.4993
18790SOL     OW62206   9.640  10.113   9.312 -0.1426 -0.2253 -0.1798
18790SOL    HW162207   9.658  10.112   9.406  1.4607 -0.7141 -0.4482
18790SOL    HW262208   9.673  10.197   9.282  1.9659 -1.1632 -0.6967
18791SOL     OW62209   8.863   6.032   4.071 -0.3745 -0.0611  0.3225
18791SOL    HW162210   8.803   5.958   4.059 -0.7558  0.3843 -0.5907
18791SOL    HW262211   8.869   6.043   4.166 -1.0148 -0.6997  0.4429
18792SOL     OW62212   1.262   5.762   0.313 -0.8671 -0.0403 -0.0219
18792SOL    HW162213   1.320   5.706   0.364 -1.3071 -0.7570 -0.3012
18792SOL    HW262214   1.309   5.775   0.230 -1.5652 -1.5082 -0.6707
18793SOL     OW62215  11.263   7.639   9.574 -0.1223  0.1419  0.2573
18793SOL    HW162216  11.249   7.547   9.552  0.7654  0.3359 -1.2692
18793SOL    HW262217  11.176   7.678   9.573 -0.4522 -0.5789  0.4139
18794SOL     OW62218   6.153   2.440  10.159  0.5327  0.4443 -0.3746
18794SOL    HW162219   6.214   2.440  10.233  0.8854 -2.1243 -0.5874
18794SOL    HW262220   6.207   2.465  10.084  1.1826 -1.0267 -0.4264
18795SOL     OW62221  12.259   8.731   9.514  0.3942 -0.3321 -0.1901
18795SOL    HW162222  12.211   8.767   9.589 -2.4656 -0.7086 -1.7037
18795SOL    HW262223  12.319   8.666   9.552 -0.4569 -0.0175  1.7980
18796SOL     OW62224   7.678  12.153  11.085 -0.6222  0.3400  0.4160
18796SOL    HW162225   7.592  12.180  11.052 -2.2116 -2.1555  2.1804
18796SOL    HW262226   7.684  12.194  11.171 -1.2606 -1.4564  1.3759
18797SOL     OW62227  10.604   5.483   3.488  0.4323  0.3724 -0.4488
18797SOL    HW162228  10.609   5.437   3.404  1.3822 -0.3605 -0.0100
18797SOL    HW262229  10.549   5.559   3.470  0.6751  0.2650 -1.7602
18798SOL     OW62230   3.690   0.498  11.987 -0.1251  0.5626 -0.2661
18798SOL    HW162231   3.630   0.524  12.057 -1.3519 -1.1148 -0.6263
18798SOL    HW262232   3.728   0.580  11.956 -1.3349  1.5684  0.7907
18799SOL     OW62233   0.020   6.758   4.404  0.3797 -0.1033  0.4926
18799SOL    HW162234  -0.008   6.667   4.410  0.9957 -0.3907 -0.6296
18799SOL    HW262235  -0.057   6.806   4.374 -0.0524 -0.1761  1.4514
18800SOL     OW62236   2.915   6.822   3.398  0.1372  0.3927  0.2397
18800SOL    HW162237   3.004   6.786   3.393  0.2960  0.6057  1.3366
18800SOL    HW262238   2.864   6.755   3.444  0.2290  1.1583  1.4908
18801SOL     OW62239  10.653   1.417   7.596 -0.2122 -0.5433 -0.1823
18801SOL    HW162240  10.637   1.442   7.687 -0.6485 -1.4086 -0.0163
18801SOL    HW262241  10.748   1.409   7.590 -0.2371 -1.3957  0.4489
18802SOL     OW62242   6.807  10.419   6.574 -0.2177  0.0073 -0.8815
18802SOL    HW162243   6.836  10.506   6.602  1.3762 -0.3921 -1.2393
18802SOL    HW262244   6.725  10.406   6.622  0.6224  0.8049  0.8953
18803SOL     OW62245   8.071   0.824   9.447 -1.0353 -0.2834 -0.1308
18803SOL    HW162246   7.976   0.825   9.445 -1.1182  1.1361  1.8240
18803SOL    HW262247   8.097   0.915   9.434  0.0294 -0.5452  0.0277
18804SOL     OW62248   0.305   3.594  11.503  0.5463 -0.0955  0.2608
18804SOL    HW162249   0.391   3.586  11.461  0.2952  0.9784 -0.5061
18804SOL    HW262250   0.254   3.523  11.465  0.4576  0.5951 -0.9819
18805SOL     OW62251   7.538   7.275   3.726  0.1551 -0.3770  0.2400
18805SOL    HW162252   7.504   7.299   3.813 -1.1297  0.2446 -0.4063
18805SOL    HW262253   7.628   7.307   3.726 -0.2155  0.7162  0.9187
18806SOL     OW62254   9.736   3.211   7.485  0.3421 -0.3859 -0.4315
18806SOL    HW162255   9.655   3.165   7.463  0.3158 -0.4751 -0.1520
18806SOL    HW262256   9.774   3.159   7.556 -0.6266  1.0467  1.2328
18807SOL     OW62257   4.546   3.314   2.421 -1.2690  0.1731 -0.3847
18807SOL    HW162258   4.536   3.386   2.358 -0.1618 -0.4537 -1.3208
18807SOL    HW262259   4.494   3.341   2.497 -3.2042  0.6646 -1.7970
18808SOL     OW62260   3.293  10.298   4.732  0.4884 -0.1131 -0.0399
18808SOL    HW162261   3.351  10.254   4.795 -0.6570  1.2964  2.1327
18808SOL    HW262262   3.207  10.257   4.747  0.5512 -1.1348 -2.1579
18809SOL     OW62263   2.958   6.558  10.794 -0.4622 -0.2339  0.2195
18809SOL    HW162264   3.016   6.489  10.763 -2.4180 -0.7988 -2.6161
18809SOL    HW262265   2.876   6.513  10.815 -1.3902  1.0258 -0.5319
18810SOL     OW62266   4.235   2.417   4.799  0.0926  0.3477  0.0452
18810SOL    HW162267   4.255   2.331   4.837 -0.8748  0.6853  1.3786
18810SOL    HW262268   4.284   2.418   4.717 -1.0711 -2.0957 -0.7757
18811SOL     OW62269   5.124  11.639   8.562 -0.4137  0.0113  0.2115
18811SOL    HW162270   5.073  11.604   8.635  0.0163 -1.8007 -0.3047
18811SOL    HW262271   5.075  11.613   8.484 -0.8903  1.9591 -0.1696
18812SOL     OW62272   2.741   1.104   6.580  0.2125 -0.0965 -0.2275
18812SOL    HW162273   2.798   1.035   6.614  1.5656  1.4773  0.8714
18812SOL    HW262274   2.713   1.073   6.494  0.2535 -2.2714  0.4910
18813SOL     OW62275  11.910   7.747   8.925  0.2062  0.0288  0.1834
18813SOL    HW162276  11.839   7.799   8.964  0.3359 -0.6390  1.3735
18813SOL    HW262277  11.962   7.811   8.877 -1.0171  0.5842 -0.4595
18814SOL     OW62278   4.433   4.389   4.736 -0.5132  0.3019  0.3834
18814SOL    HW162279   4.475   4.469   4.767  1.1631 -0.8703  1.3446
18814SOL    HW262280   4.453   4.386   4.643 -0.0559  0.7175  0.4638
18815SOL     OW62281   6.224   8.108   0.093 -0.4496  0.5245  0.3568
18815SOL    HW162282   6.223   8.183   0.153 -1.5306  1.1230 -0.3763
18815SOL    HW262283   6.175   8.138   0.016 -0.7292 -0.8766 -0.0340
18816SOL     OW62284  11.206   9.947   8.093  0.6533  0.1388  0.2618
18816SOL    HW162285  11.225   9.995   8.174  0.8032 -1.6851  1.3500
18816SOL    HW262286  11.113   9.963   8.077  1.0154  2.0180 -0.2934
18817SOL     OW62287   0.945   7.723   2.787  0.2076  0.4372 -0.1440
18817SOL    HW162288   0.980   7.782   2.719  1.4056 -1.2694 -1.0934
18817SOL    HW262289   0.851   7.720   2.770  0.3778  0.6721 -1.2259
18818SOL     OW62290   5.231  11.901   8.456 -0.6299 -0.1432  0.0471
18818SOL    HW162291   5.193  11.949   8.530  0.2729  1.5891 -0.5616
18818SOL    HW262292   5.203  11.810   8.469 -4.1830  0.8364  0.1013
18819SOL     OW62293   0.770  10.943   0.917  0.0292 -0.5939  0.2790
18819SOL    HW162294   0.752  11.016   0.977 -2.0167  0.0232 -0.9671
18819SOL    HW262295   0.815  10.878   0.971  1.3781  1.3191  1.5833
18820SOL     OW62296   1.623  11.329   4.971  0.2667  0.1475  0.1110
18820SOL    HW162297   1.629  11.233   4.976 -0.0153 -0.3558 -4.3659
18820SOL    HW262298   1.700  11.360   5.018  0.8307 -2.3183  1.0031
18821SOL     OW62299  11.354   8.345   7.171 -0.4095 -0.3912  0.3629
18821SOL    HW162300  11.327   8.427   7.129  0.2697  0.5362  1.6773
18821SOL    HW262301  11.436   8.323   7.127 -0.4353 -0.1993  0.2133
18822SOL     OW62302   2.004   7.854   0.398  0.2820  0.2073 -0.2861
18822SOL    HW162303   1.927   7.842   0.344  0.5955 -2.1326 -0.3203
18822SOL    HW262304   1.977   7.825   0.485  0.6245  1.1366  0.1487
18823SOL     OW62305   5.308   0.718   8.129  0.4864 -0.1389  0.1506
18823SOL    HW162306   5.380   0.743   8.186  1.1852  0.2283 -0.8684
18823SOL    HW262307   5.230   0.757   8.171  0.8863 -0.4147  1.1734
18824SOL     OW62308   0.768   4.820   3.744 -0.5476 -0.1045  0.9096
18824SOL    HW162309   0.713   4.866   3.681  0.5535  0.8931  0.6429
18824SOL    HW262310   0.752   4.864   3.827  0.5761  0.8768  0.6368
18825SOL     OW62311  10.841   6.888   5.091 -0.2994 -0.5759  0.2514
18825SOL    HW162312  10.832   6.941   5.012  0.9016 -0.0143  0.4625
18825SOL    HW262313  10.920   6.836   5.076 -0.6723 -1.2614  0.6352
18826SOL     OW62314   8.669   7.453   0.444 -0.2668  0.2277  0.6610
18826SOL    HW162315   8.737   7.461   0.510 -0.2006  1.2353  0.4890
18826SOL    HW262316   8.716   7.434   0.363 -0.2894 -0.2733  0.7636
18827SOL     OW62317   8.068   8.590   2.236 -0.3228 -0.1515 -0.3961
18827SOL    HW162318   8.038   8.681   2.245 -1.0519 -0.3255 -0.9432
18827SOL    HW262319   8.124   8.591   2.159 -0.4580 -0.1965 -0.4948
18828SOL     OW62320   5.026   0.285   8.894 -0.4046 -0.1410 -0.1371
18828SOL    HW162321   4.934   0.297   8.870 -0.4098  1.2641  0.4489
18828SOL    HW262322   5.073   0.283   8.811 -0.8015  0.8526 -0.3956
18829SOL     OW62323   4.350  10.142   2.623  0.0099 -0.5994 -0.2455
18829SOL    HW162324   4.397  10.224   2.641  0.2337 -0.6074 -0.7854
18829SOL    HW262325   4.301  10.125   2.703 -0.6745  0.4886 -0.4127
18830SOL     OW62326   1.125   8.263   6.554 -0.0995  0.2577 -0.1772
18830SOL    HW162327   1.104   8.309   6.473 -0.7483 -1.0296 -0.7772
18830SOL    HW262328   1.143   8.332   6.618 -0.7494  1.3124 -1.1076
18831SOL     OW62329   8.961   1.988   7.448 -0.3389 -0.1574  0.1402
18831SOL    HW162330   8.958   2.070   7.398 -1.4711 -1.1133 -1.4363
18831SOL    HW262331   8.946   1.920   7.383  1.5342 -1.7226  1.2713
18832SOL     OW62332   4.659   4.587   1.267 -0.0069  0.3396 -0.2459
18832SOL    HW162333   4.698   4.668   1.300 -0.1235  0.4236 -0.3140
18832SOL    HW262334   4.594   4.616   1.203 -0.9465  0.2591  0.6505
18833SOL     OW62335  12.223   6.309   6.100  0.1367 -0.4112 -0.1493
18833SOL    HW162336  12.253   6.384   6.151 -1.3652  0.5854 -0.6368
18833SOL    HW262337  12.160   6.265   6.157 -2.0191  1.0590 -1.2513
18834SOL     OW62338   2.889   1.678   7.703 -0.4796 -0.1623  0.0906
18834SOL    HW162339   2.936   1.681   7.786 -0.9693  0.3364  0.3643
18834SOL    HW262340   2.902   1.765   7.666 -0.9943 -0.0879  0.0723
18835SOL     OW62341   1.248   3.658  11.836  0.0624  0.1238 -0.0427
18835SOL    HW162342   1.161   3.662  11.797  0.5313 -0.6221 -1.2359
18835SOL    HW262343   1.306   3.696  11.769  0.8926 -1.1441 -0.0751
18836SOL     OW62344  11.692  10.201   5.579 -0.0231  0.1379 -0.0098
18836SOL    HW162345  11.724  10.118   5.545  0.5294  0.9629 -1.5996
18836SOL    HW262346  11.769  10.257   5.584 -0.6480  1.1083 -0.6892
18837SOL     OW62347   0.847   7.957   6.938  0.0681  0.0904  0.0524
18837SOL    HW162348   0.882   8.039   6.903 -0.4531  0.3220  0.0680
18837SOL    HW262349   0.913   7.928   7.002  1.4926 -0.8221 -1.7445
18838SOL     OW62350   8.382   1.665  11.958 -0.0789 -0.3040  0.1049
18838SOL    HW162351   8.307   1.617  11.920 -0.1220 -0.0507 -0.1351
18838SOL    HW262352   8.342   1.737  12.005  0.0853  1.6948 -2.5763
18839SOL     OW62353  11.722  10.860   1.261 -0.0584 -0.0581 -0.3291
18839SOL    HW162354  11.681  10.907   1.188  0.5499 -0.7243 -1.1057
18839SOL    HW262355  11.684  10.773   1.258  1.6003 -0.7940 -1.2604
18840SOL     OW62356   8.282   6.388   7.993 -0.0872  0.2418 -0.3459
18840SOL    HW162357   8.207   6.395   8.051  0.0351 -1.3621  0.0307
18840SOL    HW262358   8.246   6.404   7.905 -0.7531  0.0860 -0.1052
18841SOL     OW62359   7.926  10.570   3.385 -0.2839 -0.2004 -0.1013
18841SOL    HW162360   7.855  10.618   3.426 -0.7644 -0.8992 -0.1011
18841SOL    HW262361   7.883  10.511   3.323  0.3256 -0.3029 -0.4432
18842SOL     OW62362  11.387   7.366   6.762  0.0197  0.6360  0.2493
18842SOL    HW162363  11.348   7.309   6.696  0.2929  2.0880 -1.2383
18842SOL    HW262364  11.328   7.441   6.767  0.4234  0.9110  1.0746
18843SOL     OW62365  11.383   1.968   8.133  0.5421 -1.3703  0.5788
18843SOL    HW162366  11.425   2.049   8.161  2.1026 -2.6628  2.2526
18843SOL    HW262367  11.383   1.972   8.038  0.2167  0.7423  0.6272
18844SOL     OW62368   2.509   1.874   9.545  0.1164 -0.7597  0.6902
18844SOL    HW162369   2.516   1.949   9.486  2.7523 -0.2831  1.4865
18844SOL    HW262370   2.448   1.815   9.500 -1.0450  1.2478 -0.5703
18845SOL     OW62371   4.543   2.676   9.468 -0.0812 -0.3882 -0.1591
18845SOL    HW162372   4.523   2.619   9.542 -0.6591 -1.3056 -0.9852
18845SOL    HW262373   4.637   2.694   9.476 -0.5980  1.8129  2.3115
18846SOL     OW62374   1.946   2.877   4.027 -0.5931  0.4986  0.0210
18846SOL    HW162375   1.933   2.803   4.087 -2.6693  0.4004 -0.4700
18846SOL    HW262376   1.862   2.924   4.029 -0.4372  0.9512 -2.1903
18847SOL     OW62377   1.177   4.903   8.930  0.6399 -0.0392 -0.6803
18847SOL    HW162378   1.195   4.826   8.876  0.6141 -0.4440 -0.1218
18847SOL    HW262379   1.168   4.868   9.019  1.9951  0.7717 -0.1981
18848SOL     OW62380   2.305   8.069  12.104  0.7129 -0.0973 -0.4700
18848SOL    HW162381   2.387   8.110  12.080  0.8141  0.0243  0.0695
18848SOL    HW262382   2.328   8.008  12.174 -0.0244  1.8315  1.5807
18849SOL     OW62383   6.879   3.194   1.292  0.2255 -0.0686  0.2789
18849SOL    HW162384   6.941   3.190   1.366 -0.1337 -1.2716  0.5380
18849SOL    HW262385   6.917   3.137   1.225  0.8074  1.4183 -0.6946
18850SOL     OW62386   8.298   1.436   3.286  0.4952  0.0174 -0.0437
18850SOL    HW162387   8.354   1.498   3.241 -1.8644  1.0621 -1.7693
18850SOL    HW262388   8.333   1.350   3.261  1.4693  0.6213 -0.8469
18851SOL     OW62389   1.312   9.786   2.175 -0.2807 -0.0779 -0.0502
18851SOL    HW162390   1.263   9.714   2.136 -1.6213  0.6533  0.2413
18851SOL    HW262391   1.276   9.795   2.263  1.0358 -0.1168  0.5214
18852SOL     OW62392   3.909  10.774   5.101 -0.4137  0.0438  0.4298
18852SOL    HW162393   3.973  10.762   5.031  0.8128  1.6188  1.2059
18852SOL    HW262394   3.896  10.869   5.104 -2.1155 -0.1750  0.9161
18853SOL     OW62395  10.083   1.881   8.586  0.0476  0.0115 -0.4187
18853SOL    HW162396  10.036   1.826   8.649  0.8135 -1.0283 -0.7331
18853SOL    HW262397  10.151   1.923   8.638 -0.4975  0.6451 -0.1925
18854SOL     OW62398  12.125   3.895   3.914  0.2869  0.0600 -0.3899
18854SOL    HW162399  12.071   3.948   3.856  0.7664  0.6689 -0.2892
18854SOL    HW262400  12.119   3.939   3.999 -0.6332 -0.9721  0.1164
18855SOL     OW62401   4.602   6.943   5.380  0.7122 -0.4340  0.3472
18855SOL    HW162402   4.646   7.025   5.403  3.6411 -2.0312  0.8699
18855SOL    HW262403   4.547   6.923   5.456  0.5798  0.6139  0.5460
18856SOL     OW62404   6.447   3.604   3.240 -0.0217 -1.0222 -0.1486
18856SOL    HW162405   6.519   3.557   3.200  0.6641 -0.2488  0.1529
18856SOL    HW262406   6.421   3.549   3.315  0.7183 -0.9612  0.1600
18857SOL     OW62407  11.870   7.250   3.806  0.4600  0.0288  0.0558
18857SOL    HW162408  11.884   7.269   3.899  1.6720 -0.6001  0.0253
18857SOL    HW262409  11.941   7.297   3.762 -0.1778  0.4234 -0.5809
18858SOL     OW62410   0.580  11.146   8.572 -0.3253  0.2960  0.4419
18858SOL    HW162411   0.491  11.179   8.562 -0.0622  1.1413  0.8198
18858SOL    HW262412   0.582  11.066   8.519 -0.8428  1.1264 -0.8721
18859SOL     OW62413   4.663   3.873   3.847 -0.2833 -0.0510 -0.0690
18859SOL    HW162414   4.626   3.820   3.777 -1.8416 -0.1037  0.7313
18859SOL    HW262415   4.587   3.902   3.898  0.6391  1.6458  0.4387
18860SOL     OW62416   8.665   1.262   7.731 -0.1573 -0.2197  0.5688
18860SOL    HW162417   8.623   1.193   7.681  0.4830  0.1182 -0.4602
18860SOL    HW262418   8.659   1.233   7.822 -1.0672 -0.9859  0.2801
18861SOL     OW62419  11.321   8.579   0.806  0.1117 -0.5152 -0.4019
18861SOL    HW162420  11.398   8.535   0.771 -0.0111  0.1450 -1.5271
18861SOL    HW262421  11.248   8.542   0.756 -0.0389  0.6341 -1.0586
18862SOL     OW62422   0.899   0.278   5.519  0.5390 -0.8199 -0.2016
18862SOL    HW162423   0.806   0.269   5.539  0.3234  1.8719  0.3472
18862SOL    HW262424   0.943   0.233   5.591 -0.3262 -0.4089  0.6099
18863SOL     OW62425   1.796   2.642   9.857  0.2501  0.3587 -0.0771
18863SOL    HW162426   1.759   2.591   9.785 -0.3667  1.4847 -0.5931
18863SOL    HW262427   1.747   2.614   9.934 -0.4376  0.5255 -0.4452
18864SOL     OW62428   7.343   3.694   7.878 -0.1108 -0.0473  0.7827
18864SOL    HW162429   7.350   3.627   7.810  0.2242  0.3718  0.4007
18864SOL    HW262430   7.265   3.743   7.854 -0.8263 -0.7844  1.5115
18865SOL     OW62431   0.445   7.056  10.806 -0.0679 -0.2446  0.1960
18865SOL    HW162432   0.469   7.136  10.759 -0.5220 -1.0672 -1.5050
18865SOL    HW262433   0.369   7.022  10.760  0.6741 -2.1578  0.2895
18866SOL     OW62434   8.230   3.959   8.844  0.0702 -0.3122 -0.3532
18866SOL    HW162435   8.217   3.892   8.911 -1.2598 -0.9792 -1.2408
18866SOL    HW262436   8.264   4.035   8.893  0.3527 -1.1791  0.8604
18867SOL     OW62437   0.028   6.018   2.275 -0.2480 -0.1873  0.3505
18867SOL    HW162438   0.062   5.940   2.318  0.8136  0.3379  0.4897
18867SOL    HW262439  -0.001   6.074   2.347 -0.4289 -0.1901  0.2804
18868SOL     OW62440   5.167   6.337   1.164  0.4809  0.0440  0.2256
18868SOL    HW162441   5.162   6.407   1.099 -0.8688  0.6208  0.9279
18868SOL    HW262442   5.091   6.282   1.146 -0.2693  0.5565  1.6792
18869SOL     OW62443  11.953   0.564   3.590 -0.2890 -0.5681  0.2470
18869SOL    HW162444  11.871   0.556   3.541 -0.6380 -2.3830  1.0691
18869SOL    HW262445  11.997   0.639   3.550 -2.3143  0.4280 -0.2430
18870SOL     OW62446   0.004   4.884   0.882 -0.0798 -0.3172  0.7906
18870SOL    HW162447   0.053   4.820   0.933  1.6815 -0.1299 -0.5684
18870SOL    HW262448   0.002   4.963   0.936  1.1703 -0.3219  0.8588
18871SOL     OW62449   7.597   2.243   8.718  0.3364 -0.6534 -0.0061
18871SOL    HW162450   7.508   2.235   8.752  0.4059  1.9709  1.0769
18871SOL    HW262451   7.653   2.212   8.789  0.3260 -2.1408 -0.6220
18872SOL     OW62452  10.825  10.564  10.575 -0.1432 -0.4627 -0.0540
18872SOL    HW162453  10.877  10.565  10.655  0.3213 -0.2165 -0.3520
18872SOL    HW262454  10.796  10.474  10.566  2.0919 -1.1289 -1.0669
18873SOL     OW62455   9.530   9.371  11.509  0.1871 -0.5469 -0.0086
18873SOL    HW162456   9.584   9.447  11.487  3.1579 -1.7791  2.2260
18873SOL    HW262457   9.548   9.308  11.439  1.5567 -0.8628  0.6006
18874SOL     OW62458   7.336   2.762   0.062  0.2663  0.0881  0.5909
18874SOL    HW162459   7.257   2.803   0.097 -0.8359 -1.1864 -0.3313
18874SOL    HW262460   7.367   2.824  -0.004 -2.5981 -1.3239 -2.3491
18875SOL     OW62461   8.772   0.519   7.324  0.6778  0.6970 -0.1556
18875SOL    HW162462   8.697   0.569   7.358 -0.1800  0.0655 -1.0396
18875SOL    HW262463   8.781   0.446   7.384  1.0005  1.1228  0.3171
18876SOL     OW62464   3.490  12.240   1.597  0.5125 -0.0750 -0.3496
18876SOL    HW162465   3.510  12.331   1.616  1.2401 -0.5830  1.4600
18876SOL    HW262466   3.418  12.218   1.656  1.3560 -1.0938  0.3195
18877SOL     OW62467  11.943   8.814   6.209  0.1612 -0.2381  0.4728
18877SOL    HW162468  11.912   8.747   6.271 -1.0450 -0.1630 -0.0131
18877SOL    HW262469  11.917   8.897   6.248  2.0623  0.0056  1.2954
18878SOL     OW62470  12.177   7.323   0.199  0.5254  0.1726 -0.1369
18878SOL    HW162471  12.270   7.303   0.204  0.5660  0.4666  0.4176
18878SOL    HW262472  12.159   7.374   0.278 -0.5056 -1.5186  0.7875
18879SOL     OW62473   2.645   1.917   3.157 -0.1032  0.2117 -0.3012
18879SOL    HW162474   2.595   1.837   3.143 -0.4416  0.0059  1.7899
18879SOL    HW262475   2.583   1.988   3.142 -0.0209  0.0914 -1.3106
18880SOL     OW62476   3.787   8.309   8.241 -0.1262 -0.0050  0.2438
18880SOL    HW162477   3.852   8.335   8.176  0.1560  1.1409  0.9410
18880SOL    HW262478   3.772   8.389   8.292 -2.2654 -0.1661 -0.0398
18881SOL     OW62479  10.136   3.393   8.571  0.4462  0.5942  0.2180
18881SOL    HW162480  10.185   3.466   8.608  1.8237 -0.2807  0.1836
18881SOL    HW262481  10.044   3.421   8.576  0.7460  1.3688  2.3448
18882SOL     OW62482  12.069   9.496   1.608 -0.5807  0.5589  0.2564
18882SOL    HW162483  12.121   9.421   1.636  0.4986  1.0663 -0.3359
18882SOL    HW262484  11.999   9.458   1.555  0.8443  0.0532 -1.3329
18883SOL     OW62485   4.578  10.959   4.097  0.1758 -0.2622  0.0613
18883SOL    HW162486   4.528  10.879   4.083 -0.1376 -0.3543  1.5790
18883SOL    HW262487   4.518  11.030   4.072  0.3390 -0.4645 -0.9574
18884SOL     OW62488   9.046   8.728   3.178  1.0093  0.3838 -0.0418
18884SOL    HW162489   9.033   8.727   3.083 -1.3882  0.8877  0.2161
18884SOL    HW262490   9.072   8.818   3.197  1.4610  0.2920 -0.2147
18885SOL     OW62491   9.754   9.754   4.516 -0.1810  0.0022  0.3275
18885SOL    HW162492   9.776   9.719   4.602 -0.7929 -0.9274  0.1258
18885SOL    HW262493   9.659   9.743   4.508  0.1977 -3.2726 -1.7934
18886SOL     OW62494   7.954   2.088   2.252  0.3909 -0.5365 -0.0249
18886SOL    HW162495   8.046   2.097   2.276  0.3544  1.0008 -0.3967
18886SOL    HW262496   7.938   2.158   2.189 -1.1870 -0.4060  0.4805
18887SOL     OW62497  11.085   2.531  11.947  0.2653  0.6134 -0.6711
18887SOL    HW162498  11.075   2.463  11.880 -0.8109 -1.5659  1.5550
18887SOL    HW262499  11.166   2.576  11.922  0.0494 -0.2471 -3.2558
18888SOL     OW62500   4.772   5.207  11.846 -0.0365  0.3626 -0.0924
18888SOL    HW162501   4.728   5.161  11.918 -1.4336 -0.1667 -1.2538
18888SOL    HW262502   4.860   5.169  11.845 -1.4512 -3.3795 -1.7946
18889SOL     OW62503   7.170  11.242   0.155  0.5950 -0.3775 -0.2637
18889SOL    HW162504   7.162  11.184   0.080  0.4301  0.0786 -0.6087
18889SOL    HW262505   7.258  11.280   0.148 -0.7875  2.9244 -2.7138
18890SOL     OW62506   6.951   3.264   6.000  0.2305  0.3359 -0.3519
18890SOL    HW162507   7.023   3.324   5.980  1.2657 -0.0015  2.0107
18890SOL    HW262508   6.899   3.311   6.066  0.0003 -0.5921  0.1390
18891SOL     OW62509   6.581   0.002   9.751 -0.0660 -0.0539 -0.1817
18891SOL    HW162510   6.516  -0.053   9.706  0.5478 -0.0592 -1.0898
18891SOL    HW262511   6.542   0.089   9.750 -0.3356 -0.1731 -0.1772
18892SOL     OW62512   8.992   8.182   2.038  0.2142 -0.2004 -0.2879
18892SOL    HW162513   9.047   8.260   2.035 -2.0756  1.4961 -0.6922
18892SOL    HW262514   8.986   8.154   1.946 -1.1180  0.7903 -0.5263
18893SOL     OW62515   1.915  11.050   9.661 -0.5170 -0.1423  0.2313
18893SOL    HW162516   1.888  11.037   9.752 -0.5012 -0.7704  0.1507
18893SOL    HW262517   1.922  10.961   9.625 -0.0982  0.0815 -0.2566
18894SOL     OW62518   1.799  12.288   4.674  0.2311  0.0414 -0.4542
18894SOL    HW162519   1.864  12.254   4.736 -1.1657 -1.5563  0.2136
18894SOL    HW262520   1.758  12.361   4.721  0.0925 -0.3138 -0.0128
18895SOL     OW62521   8.868   2.925   8.795  0.0296  0.4824 -0.1015
18895SOL    HW162522   8.839   3.010   8.826  0.3356  0.7495 -0.5429
18895SOL    HW262523   8.872   2.934   8.700  1.9475  0.5983 -0.0500
18896SOL     OW62524   3.238   0.097   3.565  0.1778  0.2483 -0.0431
18896SOL    HW162525   3.151   0.101   3.525 -0.2348  2.4820  0.9212
18896SOL    HW262526   3.233   0.025   3.628 -1.6607  1.5539  1.4042
18897SOL     OW62527  12.150  10.715  11.950 -0.0219  0.7643 -0.1736
18897SOL    HW162528  12.196  10.782  11.899  0.1469  0.8546  0.0966
18897SOL    HW262529  12.218  10.649  11.969  0.0167  0.9379  0.2953
18898SOL     OW62530   7.772   9.263  10.707  0.3320 -0.6425 -0.1070
18898SOL    HW162531   7.831   9.215  10.649 -0.8802 -0.6082 -1.4132
18898SOL    HW262532   7.702   9.201  10.727  1.3879 -1.1189  2.4871
18899SOL     OW62533   6.301   3.880   5.634 -0.1794  0.2622  0.5425
18899SOL    HW162534   6.221   3.931   5.646  0.0725  1.5352 -2.2079
18899SOL    HW262535   6.362   3.915   5.699 -0.6825  2.0551  0.1027
18900SOL     OW62536   1.972   5.315   7.281 -0.0172  0.7043  0.4553
18900SOL    HW162537   1.896   5.263   7.257  1.0319 -0.1373 -1.2632
18900SOL    HW262538   1.995   5.364   7.201  1.5717  0.4877  0.7370
18901SOL     OW62539   8.433   8.666   1.622 -0.5872  0.1354  0.1167
18901SOL    HW162540   8.391   8.724   1.559 -0.4511 -1.0432 -1.1313
18901SOL    HW262541   8.421   8.578   1.585 -0.8283 -0.6590  1.9443
18902SOL     OW62542   0.042  11.204   6.453 -0.2372 -0.8345 -0.1317
18902SOL    HW162543   0.080  11.251   6.379 -1.0239 -0.7535 -0.4935
18902SOL    HW262544   0.047  11.266   6.526 -0.3628 -0.5479 -0.3639
18903SOL     OW62545  11.496   6.481   2.896  0.3197 -0.5140 -0.1652
18903SOL    HW162546  11.585   6.511   2.914  0.2306  0.9435 -1.9034
18903SOL    HW262547  11.498   6.387   2.917  2.3441 -0.5793 -0.4113
18904SOL     OW62548  11.148   1.774  10.953 -0.1918  0.7635 -0.1396
18904SOL    HW162549  11.133   1.727  11.035  0.7847 -0.8479 -0.8573
18904SOL    HW262550  11.094   1.728  10.888  0.7678  0.6135 -0.8499
18905SOL     OW62551  10.308   7.935   1.888 -0.8056 -0.1729  0.7419
18905SOL    HW162552  10.320   7.977   1.803  0.9135  0.8983  1.4764
18905SOL    HW262553  10.296   8.007   1.949 -1.2706 -0.9080  1.5472
18906SOL     OW62554  11.172   5.858   1.201 -0.4366  0.2112 -0.2187
18906SOL    HW162555  11.083   5.851   1.166 -0.5506  1.3703 -0.1969
18906SOL    HW262556  11.227   5.812   1.138 -1.1642 -1.5439  0.3425
18907SOL     OW62557   8.541   9.337   6.655 -0.2075  0.3642  0.2565
18907SOL    HW162558   8.506   9.414   6.611 -1.5528 -0.0668  0.5370
18907SOL    HW262559   8.473   9.270   6.645  0.0805 -0.1888  1.7355
18908SOL     OW62560  10.882   8.744   3.387 -0.2547  0.0244 -0.0880
18908SOL    HW162561  10.824   8.820   3.391 -0.9626 -0.5252  0.4241
18908SOL    HW262562  10.871   8.701   3.472  0.4583 -0.4196 -0.2119
18909SOL     OW62563   7.327   4.012   4.800  0.6320 -0.1993 -0.0110
18909SOL    HW162564   7.278   3.934   4.773 -0.3432  1.0719 -2.2564
18909SOL    HW262565   7.263   4.083   4.795  1.5374  0.8230  1.7868
18910SOL     OW62566   7.575   1.153   1.313  0.6533 -0.3406 -0.2289
18910SOL    HW162567   7.552   1.062   1.333  0.9259  0.0443  2.0991
18910SOL    HW262568   7.668   1.160   1.338  0.3356  0.8398  0.7209
18911SOL     OW62569   4.430   7.246  10.435  0.2778  0.3333 -0.0934
18911SOL    HW162570   4.378   7.194  10.373  0.5248 -1.7123  1.2915
18911SOL    HW262571   4.371   7.263  10.508  0.1683  2.1932 -0.5807
18912SOL     OW62572   1.138  11.521   8.269 -0.4059 -0.1557 -0.4510
18912SOL    HW162573   1.090  11.577   8.329  1.0800 -0.6461  1.2938
18912SOL    HW262574   1.113  11.432   8.292 -1.3712 -0.3293 -1.9905
18913SOL     OW62575  10.448   8.251   9.479 -0.0008 -0.0350 -0.0488
18913SOL    HW162576  10.373   8.302   9.451 -0.3908 -0.2948  0.5091
18913SOL    HW262577  10.419   8.207   9.559  0.2608 -1.2559 -0.6022
18914SOL     OW62578   1.745   4.572   2.484  0.6201 -0.2190  0.1045
18914SOL    HW162579   1.677   4.620   2.530  0.4867  0.9642 -1.2265
18914SOL    HW262580   1.720   4.578   2.392  2.3980  0.0774 -0.4009
18915SOL     OW62581   4.751   4.758   2.899 -0.2014 -0.1047 -0.2511
18915SOL    HW162582   4.824   4.808   2.933  0.4257 -1.5558  0.6360
18915SOL    HW262583   4.787   4.709   2.825 -0.7731  0.6228 -1.0334
18916SOL     OW62584   9.680   4.502   6.130 -0.0170 -0.3396 -0.3986
18916SOL    HW162585   9.762   4.453   6.138 -0.5066 -1.0469  0.5179
18916SOL    HW262586   9.702   4.576   6.074  2.4089  1.9983  3.2194
18917SOL     OW62587   3.245   7.297   0.199 -0.0513 -0.1296 -0.3093
18917SOL    HW162588   3.310   7.274   0.266  0.0477  1.4515  0.1694
18917SOL    HW262589   3.174   7.338   0.247 -0.4579  0.0763 -1.0675
18918SOL     OW62590   6.700   0.407   5.466  0.2467 -1.0162 -0.1217
18918SOL    HW162591   6.676   0.387   5.557 -0.2654  1.1379  0.2744
18918SOL    HW262592   6.770   0.345   5.446  1.5579 -0.4794  2.3317
18919SOL     OW62593   3.891   4.797   8.568  0.2952 -0.2462 -0.5588
18919SOL    HW162594   3.968   4.751   8.534  1.8261  1.8719 -0.1895
18919SOL    HW262595   3.876   4.867   8.505  0.3711  0.9787  0.7378
18920SOL     OW62596   7.656   1.564   0.152  0.0106 -0.6761  0.0421
18920SOL    HW162597   7.687   1.585   0.064  1.4082  0.0760  0.6621
18920SOL    HW262598   7.603   1.640   0.178 -0.1569 -0.7646 -0.0429
18921SOL     OW62599   8.248   4.609   6.228 -0.2020  0.1864  0.3076
18921SOL    HW162600   8.342   4.589   6.222  0.0623  0.9337  1.6056
18921SOL    HW262601   8.239   4.696   6.190 -0.3974  0.0470  0.0341
18922SOL     OW62602   1.867   5.203   3.641 -0.5176  0.7076 -0.1709
18922SOL    HW162603   1.772   5.190   3.649 -0.6873  2.5303  1.9149
18922SOL    HW262604   1.899   5.197   3.731  1.5067 -0.6417 -0.9171
18923SOL     OW62605   6.176   1.413  11.740  0.1455  0.4282 -0.8015
18923SOL    HW162606   6.183   1.360  11.660  0.9977  1.4753 -1.4562
18923SOL    HW262607   6.161   1.502  11.708  2.1276  1.1505  0.1031
18924SOL     OW62608  11.543   3.990   8.244 -0.1039  0.3939  0.6497
18924SOL    HW162609  11.601   3.918   8.218 -0.8777  0.2077 -0.6556
18924SOL    HW262610  11.481   3.949   8.304  1.4246  0.7251  2.5384
18925SOL     OW62611   5.468   1.072  10.874  0.1189 -0.7434  0.3206
18925SOL    HW162612   5.525   1.025  10.935 -0.5822  1.5356  2.9398
18925SOL    HW262613   5.381   1.035  10.889  0.0701 -0.7200  0.0996
18926SOL     OW62614   9.682   3.205   2.134  0.1851 -0.6664 -0.2143
18926SOL    HW162615   9.658   3.149   2.208 -1.5124 -0.4102 -0.5393
18926SOL    HW262616   9.774   3.185   2.118  0.0025 -2.3072  0.6053
18927SOL     OW62617   2.767   6.632  11.801 -0.0414 -0.2598  0.7038
18927SOL    HW162618   2.703   6.611  11.733  0.1691 -0.4077  0.5502
18927SOL    HW262619   2.797   6.546  11.832  1.6227 -0.2214 -0.6738
18928SOL     OW62620  11.206   6.056   6.385  0.2172  0.8744 -0.4556
18928SOL    HW162621  11.175   6.146   6.387  2.1306  1.5478  0.3648
18928SOL    HW262622  11.300   6.062   6.370  0.5290 -0.9384  0.4392
18929SOL     OW62623   8.481   6.847  12.006  0.0352  0.3248 -0.3236
18929SOL    HW162624   8.537   6.898  11.947  0.6345 -1.2598 -1.1969
18929SOL    HW262625   8.485   6.893  12.089 -0.8379  2.6625 -1.4866
18930SOL     OW62626   8.682   1.958   6.834 -0.0879 -0.0932  0.9372
18930SOL    HW162627   8.687   2.054   6.841  0.6354 -0.1187  0.9053
18930SOL    HW262628   8.656   1.941   6.744 -0.6436  0.0780  1.0617
18931SOL     OW62629   5.419  10.365   1.370 -0.1167 -0.1234 -0.0995
18931SOL    HW162630   5.391  10.328   1.454  0.6414 -0.6055 -0.0422
18931SOL    HW262631   5.468  10.294   1.328  0.3804  0.4416 -0.4995
18932SOL     OW62632   5.938   0.665  12.199  0.3057  0.2269 -0.0863
18932SOL    HW162633   5.906   0.644  12.111  1.5644  0.3681 -0.6080
18932SOL    HW262634   5.940   0.760  12.202 -0.2220  0.2237  0.2787
18933SOL     OW62635   8.993   6.971   3.400 -0.1156 -0.2262 -0.5137
18933SOL    HW162636   9.022   7.062   3.403  0.3863 -0.4096  1.3306
18933SOL    HW262637   9.074   6.921   3.392 -0.2710 -0.5676  0.0237
18934SOL     OW62638   2.578   0.077   7.912  0.3010 -0.4136 -0.0366
18934SOL    HW162639   2.530   0.044   7.988 -0.6018 -3.2471 -1.7143
18934SOL    HW262640   2.669   0.052   7.929  0.5269  0.9268  1.0222
18935SOL     OW62641   5.846  10.752   1.000  0.0420  0.0362  0.0750
18935SOL    HW162642   5.782  10.705   1.054 -1.5982 -0.0150 -1.8243
18935SOL    HW262643   5.917  10.689   0.987  0.0825 -0.2410  1.4078
18936SOL     OW62644  10.241   4.078   6.818 -0.3451  0.1504  0.0548
18936SOL    HW162645  10.328   4.117   6.809 -0.1531 -0.3859 -0.4394
18936SOL    HW262646  10.188   4.147   6.857  0.8557 -0.2438  2.6035
18937SOL     OW62647   0.316   2.088   9.427  0.0330 -0.4844 -0.0732
18937SOL    HW162648   0.406   2.120   9.419 -0.3100  0.6405  0.4105
18937SOL    HW262649   0.324   2.008   9.480  0.7725 -0.5540 -0.2719
18938SOL     OW62650  11.787  11.110   6.325  0.4147  0.2911 -0.4121
18938SOL    HW162651  11.830  11.026   6.343 -1.5931 -0.6652  0.1944
18938SOL    HW262652  11.803  11.126   6.232 -0.8885 -1.8499 -1.0829
18939SOL     OW62653   8.966   1.212  11.855  0.0000  0.1495  0.1850
18939SOL    HW162654   8.998   1.186  11.768 -1.3485 -0.1204 -0.2551
18939SOL    HW262655   8.873   1.230  11.842 -0.7520 -1.9676  1.9855
18940SOL     OW62656   5.994   7.236   2.672  0.0373  0.2716 -0.0582
18940SOL    HW162657   5.937   7.270   2.604  0.1278 -0.8081 -0.6955
18940SOL    HW262658   5.966   7.280   2.752 -1.5632 -0.1097 -0.3898
18941SOL     OW62659   1.112   2.128  10.529 -0.1547  0.0987 -0.5588
18941SOL    HW162660   1.046   2.101  10.593  0.3481 -0.1555 -0.1463
18941SOL    HW262661   1.159   2.200  10.571  0.8903 -0.7812 -0.1997
18942SOL     OW62662  10.429   9.680  11.257  0.0100 -0.2183 -0.1342
18942SOL    HW162663  10.408   9.643  11.171 -1.4265  0.4232 -0.0920
18942SOL    HW262664  10.400   9.613  11.319 -0.2583 -0.0920 -0.1219
18943SOL     OW62665   9.005   9.588   3.396 -0.3486  0.2724  0.0436
18943SOL    HW162666   9.029   9.561   3.307 -0.1706 -0.8223  0.4071
18943SOL    HW262667   8.917   9.553   3.408  0.3369 -1.2328  0.9451
18944SOL     OW62668   1.512   7.276   9.888 -0.5866  0.1702 -0.7528
18944SOL    HW162669   1.452   7.346   9.862 -0.7774 -0.2046 -1.3483
18944SOL    HW262670   1.460   7.196   9.882 -1.1957  0.1931  2.6103
18945SOL     OW62671   6.611   0.480   9.585  0.0851  0.4917  0.5626
18945SOL    HW162672   6.626   0.444   9.498  1.4850  0.6654  0.7115
18945SOL    HW262673   6.684   0.540   9.600  0.5789 -0.4658  2.3336
18946SOL     OW62674   3.275   7.893   7.179 -0.4196 -0.4197  0.3292
18946SOL    HW162675   3.328   7.870   7.103 -2.2247 -1.9166 -0.5434
18946SOL    HW262676   3.339   7.919   7.245  1.1916  1.2413 -1.7380
18947SOL     OW62677  10.235   4.181   0.012  0.4533 -0.2124 -0.3616
18947SOL    HW162678  10.318   4.135  -0.004  1.0552  0.8039 -0.2395
18947SOL    HW262679  10.228   4.187   0.107  0.3148 -0.1599 -0.3745
18948SOL     OW62680  11.451   0.144   6.265 -0.7482 -0.2090  0.1162
18948SOL    HW162681  11.371   0.154   6.214 -0.6855  0.3372  0.1198
18948SOL    HW262682  11.461   0.228   6.310  0.7933  0.4115 -1.2901
18949SOL     OW62683   0.859   5.374   2.386  0.0685 -0.2005 -0.0355
18949SOL    HW162684   0.883   5.284   2.367  1.0438  0.3349 -1.5059
18949SOL    HW262685   0.903   5.426   2.319 -1.6282  1.2612 -0.0968
18950SOL     OW62686  11.361   2.356  11.643  0.5630 -0.4724 -0.2090
18950SOL    HW162687  11.432   2.297  11.617  0.5452 -0.5919  0.0096
18950SOL    HW262688  11.313   2.308  11.711 -0.5724 -0.9590 -1.3218
18951SOL     OW62689   5.447   9.930   4.778 -0.3313  0.4456 -0.0619
18951SOL    HW162690   5.387   9.989   4.733  0.7007 -0.5509 -2.9409
18951SOL    HW262691   5.533   9.949   4.740  0.0981 -2.6452 -0.9061
18952SOL     OW62692   2.466   7.391   5.297  0.3376 -0.2560  0.6115
18952SOL    HW162693   2.400   7.325   5.275  0.5614 -0.9485  1.8920
18952SOL    HW262694   2.416   7.472   5.308  0.0292 -0.2406 -0.7569
18953SOL     OW62695   0.753  12.028   2.511  0.1186  0.0408 -1.0353
18953SOL    HW162696   0.712  12.106   2.547 -1.5291 -1.9059  1.6206
18953SOL    HW262697   0.680  11.976   2.477  0.7527 -1.7742  0.2593
18954SOL     OW62698   3.796  11.403   6.079 -0.3262  0.8837  0.1440
18954SOL    HW162699   3.725  11.467   6.074 -1.5050 -0.4854 -2.3589
18954SOL    HW262700   3.805  11.371   5.989  0.6723 -1.9727  1.1752
18955SOL     OW62701   6.283   4.992   0.956 -0.1488 -0.2417 -0.3935
18955SOL    HW162702   6.252   4.902   0.959  1.2473 -0.7682 -0.8256
18955SOL    HW262703   6.339   5.002   1.033  2.2211 -0.7870 -1.9101
18956SOL     OW62704  10.965   1.089   2.105 -0.1401  0.2657  0.2744
18956SOL    HW162705  11.035   1.121   2.048  0.0001 -1.1127 -0.3685
18956SOL    HW262706  10.933   1.010   2.062 -0.8116 -0.1737  1.5261
18957SOL     OW62707   4.031   1.148   7.004 -0.0281 -0.2107 -0.1929
18957SOL    HW162708   3.953   1.154   6.949 -0.7453 -0.0223  0.8294
18957SOL    HW262709   4.070   1.064   6.981 -0.7124 -0.4532 -0.4836
18958SOL     OW62710   2.683   2.302   1.761  0.2436 -0.2089 -0.0263
18958SOL    HW162711   2.655   2.229   1.706 -0.6136 -0.6773  0.9864
18958SOL    HW262712   2.778   2.291   1.769  0.0016 -1.8781  0.9875
18959SOL     OW62713   9.384   0.540   2.134  0.1059 -0.3445 -0.1258
18959SOL    HW162714   9.352   0.519   2.222  1.2718 -0.4442  0.3014
18959SOL    HW262715   9.401   0.455   2.094  0.5107 -0.2859 -0.0814
18960SOL     OW62716  11.986   0.834   6.640 -0.0022 -0.1665 -0.3325
18960SOL    HW162717  12.071   0.809   6.675 -0.0523 -1.3609 -1.0061
18960SOL    HW262718  11.923   0.806   6.707 -0.0818 -2.2499 -1.1947
18961SOL     OW62719   4.881   3.012   1.305  0.0707  0.1911 -0.5221
18961SOL    HW162720   4.867   3.094   1.258 -0.3762  0.3157 -0.1861
18961SOL    HW262721   4.974   3.011   1.325 -0.0250  0.9262  0.0248
18962SOL     OW62722   8.122   7.044  11.842 -0.0378  0.6725  0.1473
18962SOL    HW162723   8.118   7.020  11.935  0.0503 -1.6967 -0.3833
18962SOL    HW262724   8.210   7.081  11.831  0.0775  0.6691  0.9459
18963SOL     OW62725  11.349   2.966   6.261 -0.0553 -0.7616 -0.9777
18963SOL    HW162726  11.344   2.912   6.182  2.1439  0.0510 -1.7363
18963SOL    HW262727  11.323   3.053   6.231  0.3401 -0.5465 -0.6929
18964SOL     OW62728  11.038   3.123   4.205  1.0614  0.2314 -1.0177
18964SOL    HW162729  11.114   3.161   4.249  0.4219 -0.1372  0.4943
18964SOL    HW262730  10.972   3.192   4.206  0.2194 -0.5271  0.8805
18965SOL     OW62731   5.517   2.014   5.821  0.1947 -0.0013  0.1617
18965SOL    HW162732   5.546   2.019   5.730  0.4023 -0.5746  0.1945
18965SOL    HW262733   5.566   1.940   5.858 -0.6235 -0.3971  0.4683
18966SOL     OW62734  12.062  10.366   6.452 -0.5355 -0.4551 -0.2879
18966SOL    HW162735  12.153  10.337   6.464 -0.9413 -2.0914 -0.8073
18966SOL    HW262736  12.063  10.411   6.367 -0.2252 -0.5662 -0.3463
18967SOL     OW62737   5.514   6.150   2.494 -0.6961 -0.1856  0.0805
18967SOL    HW162738   5.541   6.236   2.463 -2.5198  0.5724  0.5062
18967SOL    HW262739   5.532   6.152   2.588  1.1957 -1.0717 -0.2106
18968SOL     OW62740   0.056   5.054   9.030 -0.2256 -0.5070 -0.3981
18968SOL    HW162741   0.081   5.136   8.987  0.1691 -0.2205  0.3663
18968SOL    HW262742   0.021   5.081   9.115  2.5041 -1.2457  1.0852
18969SOL     OW62743   5.968   9.059   0.194 -0.3185 -0.3664  0.1688
18969SOL    HW162744   6.048   9.058   0.141 -0.7174 -2.1042 -0.4793
18969SOL    HW262745   5.918   9.132   0.160  1.2265  1.1631  1.0058
18970SOL     OW62746   2.063   3.341   4.668 -0.3585  0.3178  0.5383
18970SOL    HW162747   2.013   3.301   4.597 -1.4351  2.6379 -0.0733
18970SOL    HW262748   1.997   3.379   4.726  0.6137  2.0356  0.5778
18971SOL     OW62749   6.651   7.589   3.827 -0.4042 -0.2289  0.5278
18971SOL    HW162750   6.709   7.513   3.828  1.1314  0.8925  1.8394
18971SOL    HW262751   6.587   7.572   3.896  0.3772 -0.0288  1.3154
18972SOL     OW62752   7.254   2.583   1.874  0.0254 -0.5299 -0.5449
18972SOL    HW162753   7.248   2.491   1.899  0.5374 -0.0363  1.6528
18972SOL    HW262754   7.305   2.624   1.945 -1.7109  1.7685 -0.5080
18973SOL     OW62755   1.523   8.156   4.519 -0.2698 -0.1707 -0.0170
18973SOL    HW162756   1.492   8.103   4.446  0.0183  0.3485 -0.5233
18973SOL    HW262757   1.476   8.121   4.595 -0.0295 -1.1948 -0.3179
18974SOL     OW62758  11.844  11.389   8.421 -0.7748  0.5851  0.2845
18974SOL    HW162759  11.892  11.443   8.484  0.8790  0.0425 -0.4360
18974SOL    HW262760  11.905  11.379   8.348 -1.0729 -2.0808  0.3086
18975SOL     OW62761   8.432  11.660   7.083  0.4248 -0.4281 -0.3464
18975SOL    HW162762   8.526  11.679   7.085  0.8333 -2.2505  0.5177
18975SOL    HW262763   8.397  11.714   7.013  1.4744  2.9269  1.5162
18976SOL     OW62764   7.945   8.667   1.597  0.5565  0.0796  0.1066
18976SOL    HW162765   7.883   8.734   1.626  2.6401  2.9574 -1.4380
18976SOL    HW262766   7.907   8.634   1.515 -0.5853 -0.8139  0.9728
18977SOL     OW62767   4.539   7.656   5.292 -0.0214  0.6204 -0.1632
18977SOL    HW162768   4.617   7.628   5.244 -0.4133 -1.8838  0.5210
18977SOL    HW262769   4.559   7.635   5.384 -1.8328 -1.1117 -0.0900
18978SOL     OW62770   2.877  10.435   9.382  0.4837 -0.3919  0.3791
18978SOL    HW162771   2.899  10.507   9.323 -1.7290 -0.7211 -0.9933
18978SOL    HW262772   2.791  10.460   9.417  0.3007 -1.7256  0.9093
18979SOL     OW62773   9.415   7.730   4.689 -0.4558 -0.0012 -0.1793
18979SOL    HW162774   9.369   7.809   4.716  0.1238 -0.0308  0.9586
18979SOL    HW262775   9.354   7.685   4.630 -0.2300  1.9955 -2.0611
18980SOL     OW62776  10.348   6.080   6.743 -0.6151 -0.4139  0.9179
18980SOL    HW162777  10.357   6.170   6.773 -0.7620 -0.2609  0.5088
18980SOL    HW262778  10.396   6.028   6.808  0.4315  0.0657  0.5385
18981SOL     OW62779  11.133   7.103   0.364  0.0352  0.0638 -0.0323
18981SOL    HW162780  11.075   7.114   0.439 -2.3741 -0.8244 -1.6276
18981SOL    HW262781  11.117   7.181   0.310  1.3667  0.4566  0.1064
18982SOL     OW62782   9.784   8.663   1.104 -0.0569 -0.4172 -0.1780
18982SOL    HW162783   9.859   8.690   1.050  1.3120 -0.6504  1.5248
18982SOL    HW262784   9.719   8.732   1.090  0.7965  0.2361 -1.0546
18983SOL     OW62785  11.816   2.671   9.632 -0.0431  0.8613  1.2074
18983SOL    HW162786  11.837   2.661   9.725  2.1424 -1.6491  0.5544
18983SOL    HW262787  11.892   2.636   9.586 -1.5010  1.0505 -1.5492
18984SOL     OW62788   0.057  10.107   1.904  0.1542  0.1309 -0.1434
18984SOL    HW162789   0.072  10.064   1.989 -0.5435 -0.5278 -0.3401
18984SOL    HW262790   0.137  10.089   1.854  0.9748  1.3348  0.6801
18985SOL     OW62791   1.354   4.698   3.341  0.2911  0.1564  0.2572
18985SOL    HW162792   1.407   4.768   3.379 -0.8707  1.9225 -1.2131
18985SOL    HW262793   1.407   4.664   3.270  0.3213  0.4562  0.1340
18986SOL     OW62794  10.589   9.406   8.237 -0.0295  0.3491  0.0028
18986SOL    HW162795  10.608   9.467   8.308 -0.3152  0.2350  0.1816
18986SOL    HW262796  10.671   9.361   8.221 -0.3421 -0.7697  1.3622
18987SOL     OW62797   8.281   9.809   5.417  0.2808  0.1643 -0.2541
18987SOL    HW162798   8.367   9.806   5.460 -0.4303 -2.0625  1.2017
18987SOL    HW262799   8.293   9.764   5.334  0.4642 -0.4165  0.0862
18988SOL     OW62800   9.969  10.095   2.983  0.8037 -0.0157  0.4259
18988SOL    HW162801   9.989  10.185   3.009 -0.8608  0.5307 -0.0870
18988SOL    HW262802   9.892  10.071   3.035  0.1599 -0.4978 -0.7057
18989SOL     OW62803   0.705  12.296   5.917 -0.0435  0.0246 -0.5285
18989SOL    HW162804   0.762  12.327   5.987  0.4746 -1.2008 -0.3914
18989SOL    HW262805   0.741  12.336   5.838 -0.2393  0.8954 -0.1854
18990SOL     OW62806   8.189   8.957   4.214  0.4561  0.7324  0.0594
18990SOL    HW162807   8.184   8.914   4.128  0.1171  2.6017 -0.8970
18990SOL    HW262808   8.247   9.032   4.201  1.7481  0.1296  1.9169
18991SOL     OW62809   4.058   1.901   0.525 -0.0370  0.3396 -0.2661
18991SOL    HW162810   4.103   1.915   0.441 -1.4705 -2.0791 -1.5511
18991SOL    HW262811   3.969   1.932   0.510 -0.6754 -1.3130 -0.1400
18992SOL     OW62812   4.736   2.419  10.494 -0.0535 -0.3411  0.4043
18992SOL    HW162813   4.800   2.403  10.563  0.2203 -0.7938  0.0582
18992SOL    HW262814   4.705   2.331  10.470 -0.3861 -0.1636  0.1842
18993SOL     OW62815   9.055   5.214   1.486 -0.2730  0.0540  0.1898
18993SOL    HW162816   9.014   5.291   1.526 -0.9016 -0.1570 -0.0287
18993SOL    HW262817   9.099   5.169   1.558  1.8968  1.7113 -0.0012
18994SOL     OW62818   4.405   6.037   0.242  0.6549  0.1626  0.2579
18994SOL    HW162819   4.496   6.015   0.262  0.1768 -1.0055  1.3257
18994SOL    HW262820   4.408   6.077   0.155  1.9234 -2.1314 -0.8637
18995SOL     OW62821   0.616   1.406   8.045  0.0949  0.5226 -0.1878
18995SOL    HW162822   0.670   1.467   8.094  1.4030 -1.6141  1.1719
18995SOL    HW262823   0.660   1.397   7.960  0.2155  1.0145 -0.1778
18996SOL     OW62824   0.919  10.866   5.256 -0.2456 -0.3556 -0.0795
18996SOL    HW162825   0.825  10.846   5.248  0.0587 -1.5884 -0.8390
18996SOL    HW262826   0.959  10.784   5.284  0.7548 -0.1833 -0.9341
18997SOL     OW62827   1.277   3.794   5.869 -0.1739  0.3192  0.6212
18997SOL    HW162828   1.269   3.861   5.801  0.4643 -1.5898 -1.4673
18997SOL    HW262829   1.328   3.836   5.938  1.7436  1.5186 -1.3640
18998SOL     OW62830   2.522   1.050   7.439 -0.5896 -0.6088 -0.2139
18998SOL    HW162831   2.547   0.983   7.375  2.8202  0.7521 -0.5366
18998SOL    HW262832   2.455   1.102   7.395  0.9564 -0.3028 -2.3723
18999SOL     OW62833   1.609   9.895   2.599  0.3000  0.0474  0.2803
18999SOL    HW162834   1.570   9.942   2.673 -0.0402 -1.0432  0.8068
18999SOL    HW262835   1.591   9.952   2.523  0.4876  1.0859  0.9882
19000SOL     OW62836   9.923   5.107   4.850  0.2003 -0.0475  0.1219
19000SOL    HW162837   9.991   5.072   4.908  0.6647  0.2167 -0.2544
19000SOL    HW262838   9.966   5.114   4.765 -1.3881 -3.7812 -1.2299
19001SOL     OW62839  10.102   6.065   5.631 -0.3772  0.2643  0.2467
19001SOL    HW162840  10.038   6.100   5.570  2.2060  0.9674 -2.3246
19001SOL    HW262841  10.097   5.970   5.619 -1.1451  0.2891  0.3332
19002SOL     OW62842   5.066   3.537   5.485  0.0177  0.1724 -0.4949
19002SOL    HW162843   4.976   3.541   5.454 -0.2089  0.0266  0.1319
19002SOL    HW262844   5.106   3.618   5.453 -0.2266  0.0665 -1.0895
19003SOL     OW62845   7.005   0.810   7.972 -0.0504  0.3562 -0.3737
19003SOL    HW162846   6.969   0.807   8.061  2.3274 -0.6610  0.6345
19003SOL    HW262847   6.940   0.859   7.922 -1.5327  0.8613  1.8769
19004SOL     OW62848   4.464   1.110   9.207  0.1236  0.2991 -0.2880
19004SOL    HW162849   4.428   1.023   9.226  0.7341 -0.4212 -2.1889
19004SOL    HW262850   4.505   1.138   9.289  2.8487 -2.6866 -0.4442
19005SOL     OW62851   1.112   7.676   4.811 -0.1441  0.7279 -0.2910
19005SOL    HW162852   1.173   7.708   4.878  0.3027  0.6696 -0.6700
19005SOL    HW262853   1.083   7.755   4.765 -0.4105  0.7623 -0.0737
19006SOL     OW62854   8.373   4.031   1.929 -0.8360  0.4971  0.5896
19006SOL    HW162855   8.412   4.053   1.844 -2.6611  0.4631 -0.3012
19006SOL    HW262856   8.337   4.114   1.960 -0.8941  0.3368  0.9549
19007SOL     OW62857   7.990   8.715   3.482 -0.0377 -0.1524 -0.7234
19007SOL    HW162858   7.951   8.788   3.434  0.3384  0.2458 -0.4234
19007SOL    HW262859   8.053   8.755   3.541 -0.7596 -0.6044  0.3802
19008SOL     OW62860   3.024   5.510   3.464 -0.0136 -0.0227  0.2415
19008SOL    HW162861   3.012   5.585   3.523  0.8982 -0.3924  0.9129
19008SOL    HW262862   2.996   5.543   3.379  0.4289  1.1129  0.5067
19009SOL     OW62863   3.783   7.605   3.555  1.1153  0.5185 -0.2056
19009SOL    HW162864   3.740   7.629   3.473 -1.0619 -0.7446  0.4809
19009SOL    HW262865   3.759   7.675   3.616  0.2835 -0.0146  0.0899
19010SOL     OW62866   1.297   3.438   7.546 -0.0485  0.2932  0.2412
19010SOL    HW162867   1.211   3.424   7.508 -0.0029  0.2646  0.1500
19010SOL    HW262868   1.357   3.390   7.489  0.1272  0.9680 -0.1572
19011SOL     OW62869   7.665   1.783   1.932  0.5692  0.3416 -0.1459
19011SOL    HW162870   7.731   1.849   1.954 -1.0974  1.9061  0.4006
19011SOL    HW262871   7.612   1.824   1.864 -1.7261  0.4920  1.5909
19012SOL     OW62872   7.397   4.842   2.470 -0.8734 -0.1603  0.1607
19012SOL    HW162873   7.471   4.893   2.502 -0.9100  0.3693 -0.5556
19012SOL    HW262874   7.381   4.877   2.382  0.3160 -2.7027 -1.1596
19013SOL     OW62875  10.082  11.324   4.762 -0.1188  0.1507 -0.6221
19013SOL    HW162876  10.082  11.231   4.782 -1.1714  0.2400 -0.1843
19013SOL    HW262877  10.119  11.329   4.674  0.2901 -0.6407 -0.5058
19014SOL     OW62878   0.786  12.323   5.637 -0.1369  0.2185  0.2723
19014SOL    HW162879   0.705  12.320   5.586 -0.1496 -1.4418  0.3491
19014SOL    HW262880   0.806  12.232   5.655  1.8103  0.5902  0.1798
19015SOL     OW62881   0.496   0.981   9.261  0.2191  0.3081  0.0233
19015SOL    HW162882   0.425   1.040   9.286  1.5176  1.6542  0.6846
19015SOL    HW262883   0.460   0.932   9.187 -1.4450  0.8277  0.4275
19016SOL     OW62884   8.270   2.583   5.683  0.2153 -0.0149  0.1398
19016SOL    HW162885   8.354   2.597   5.639 -0.5195 -1.5540 -1.9316
19016SOL    HW262886   8.292   2.570   5.775  2.1589  0.3109 -0.2494
19017SOL     OW62887   8.818   2.606   5.663 -0.2285 -0.4756  0.3628
19017SOL    HW162888   8.826   2.553   5.742  1.0262 -0.1507  0.4686
19017SOL    HW262889   8.907   2.612   5.629 -0.4323  1.0712  0.0410
19018SOL     OW62890  11.010   1.907  10.398  0.0424 -0.0684  0.1382
19018SOL    HW162891  11.081   1.890  10.460  0.7261  1.0167 -0.3213
19018SOL    HW262892  11.010   1.831  10.339 -0.0402 -0.6825  0.9085
19019SOL     OW62893   7.834  11.483   2.834 -0.2116  0.4771 -0.0471
19019SOL    HW162894   7.780  11.412   2.870  2.9139 -1.6117  0.8840
19019SOL    HW262895   7.889  11.441   2.769  0.5647  2.4520 -0.7285
19020SOL     OW62896   6.216   8.838   3.784 -0.2664 -0.2103 -0.3317
19020SOL    HW162897   6.283   8.794   3.732 -0.2904  0.3241 -0.8232
19020SOL    HW262898   6.204   8.782   3.861  0.5231 -0.4638 -0.3903
19021SOL     OW62899   5.076   4.688  11.930  0.0434 -0.0485 -0.6174
19021SOL    HW162900   5.051   4.627  11.860 -0.3694  1.1706 -1.5741
19021SOL    HW262901   5.133   4.751  11.886 -0.1763  0.6999  0.1626
19022SOL     OW62902   4.900   6.183   2.138 -0.2616  0.2053  0.4326
19022SOL    HW162903   4.903   6.122   2.212  0.9917  0.5431  0.6851
19022SOL    HW262904   4.868   6.265   2.176  0.8977  0.5322  0.7313
19023SOL     OW62905   2.345   9.124   4.151  0.4503  0.1030  0.4611
19023SOL    HW162906   2.431   9.085   4.133  0.0121 -0.6780  0.0025
19023SOL    HW262907   2.295   9.109   4.071 -0.8049 -1.3700  1.4439
19024SOL     OW62908  10.239   9.860   0.222  0.1322 -0.6882  0.0883
19024SOL    HW162909  10.227   9.845   0.316  0.8808 -0.2277  0.2695
19024SOL    HW262910  10.163   9.820   0.181 -0.4406 -0.4839  0.9329
19025SOL     OW62911   7.675   4.880   3.885 -0.0069 -0.0814 -0.2083
19025SOL    HW162912   7.763   4.889   3.849  0.1317 -1.4665 -0.2479
19025SOL    HW262913   7.684   4.904   3.977 -0.0731  2.0255 -0.6956
19026SOL     OW62914   3.072   0.418   1.843  0.1113  0.7108 -0.1244
19026SOL    HW162915   3.009   0.390   1.777  0.5275 -1.0449  0.1740
19026SOL    HW262916   3.143   0.460   1.794  0.1439 -0.0588 -0.7413
19027SOL     OW62917  10.762   4.586   0.820  0.6841  0.2514  0.4869
19027SOL    HW162918  10.823   4.630   0.761  0.1115  0.6909  0.2215
19027SOL    HW262919  10.746   4.648   0.890  1.2317 -0.2070  1.0370
19028SOL     OW62920   2.663   5.676   7.895 -0.1219 -0.3272  0.7435
19028SOL    HW162921   2.679   5.615   7.966 -2.9230 -0.4375  1.4214
19028SOL    HW262922   2.690   5.630   7.816  1.6498 -0.7767  1.5672
19029SOL     OW62923  11.130   9.966   7.708  0.0579 -0.0683  0.7090
19029SOL    HW162924  11.178  10.042   7.674 -1.0437  0.4481  0.2372
19029SOL    HW262925  11.039   9.996   7.714 -0.3511 -1.2598  0.7875
19030SOL     OW62926  10.114   5.323   1.363 -0.3900 -0.0725 -0.2802
19030SOL    HW162927  10.100   5.231   1.385  1.4194 -0.0899  1.0144
19030SOL    HW262928  10.181   5.352   1.424  0.0127  1.7699 -1.5244
19031SOL     OW62929   7.369   2.574   4.813  0.2132  0.2245 -0.2753
19031SOL    HW162930   7.275   2.562   4.806  0.5558 -2.2213 -1.8700
19031SOL    HW262931   7.389   2.644   4.751 -0.4122 -0.1481 -0.9090
19032SOL     OW62932  11.117   0.886   9.478  0.2462 -0.6055  0.5521
19032SOL    HW162933  11.184   0.947   9.509  0.5568 -0.3360 -0.6284
19032SOL    HW262934  11.167   0.808   9.454  0.0406 -0.6875  0.3995
19033SOL     OW62935   2.636   8.741   7.094 -0.1410 -0.6351 -0.5725
19033SOL    HW162936   2.642   8.830   7.058  1.7215  0.2207  1.6101
19033SOL    HW262937   2.662   8.684   7.021 -2.0489  0.4769 -2.2336
19034SOL     OW62938   6.421   1.190   6.647 -0.6232  0.2638 -0.2198
19034SOL    HW162939   6.481   1.117   6.664  0.5890  1.1222 -0.7202
19034SOL    HW262940   6.395   1.179   6.556 -0.9253  0.1231 -0.1192
19035SOL     OW62941  10.220   5.525   0.286 -0.0385 -0.6927  0.1837
19035SOL    HW162942  10.226   5.612   0.246 -1.0241 -0.5238  0.3788
19035SOL    HW262943  10.308   5.489   0.279  0.7657  0.8912  1.3532
19036SOL     OW62944   1.200   1.329  11.229  0.0532 -0.0968 -0.8078
19036SOL    HW162945   1.270   1.339  11.164  0.1856 -1.7503 -0.9827
19036SOL    HW262946   1.243   1.290  11.305 -0.4881 -0.1405 -0.5162
19037SOL     OW62947  10.830   3.027   8.023  0.3089 -0.5502  0.1972
19037SOL    HW162948  10.783   3.030   8.106 -0.9908 -0.2175 -0.5184
19037SOL    HW262949  10.818   3.113   7.984 -0.1532 -1.0737 -0.8763
19038SOL     OW62950   7.342   1.798   4.493  0.1716 -0.5725 -0.0847
19038SOL    HW162951   7.305   1.712   4.473  0.3382 -0.7264  0.2532
19038SOL    HW262952   7.273   1.860   4.472  0.5220 -0.6744 -1.6880
19039SOL     OW62953   2.847   2.763   6.979  0.5254 -0.6645  0.1620
19039SOL    HW162954   2.807   2.804   7.055 -3.5371  1.8428 -2.9239
19039SOL    HW262955   2.929   2.810   6.966  0.1738  0.4139  1.6636
19040SOL     OW62956   6.250   7.625   5.000  0.8934  0.2811  0.6805
19040SOL    HW162957   6.206   7.601   5.082  0.6510  0.4936  0.6123
19040SOL    HW262958   6.192   7.593   4.931  0.0809  1.8615  0.5704
19041SOL     OW62959   2.172   1.668   8.446  0.2509  0.6247  0.1153
19041SOL    HW162960   2.237   1.731   8.475  1.2523 -0.9744  1.5019
19041SOL    HW262961   2.112   1.719   8.392  1.1587  2.6865  0.9510
19042SOL     OW62962   6.231   4.191  10.335  0.1974 -0.2835  0.7655
19042SOL    HW162963   6.173   4.116  10.352  0.6872 -0.4436  1.7899
19042SOL    HW262964   6.172   4.262  10.312 -0.2149 -1.5113 -2.5580
19043SOL     OW62965   4.962   7.289   1.667  0.2504  0.1225 -0.2321
19043SOL    HW162966   4.958   7.223   1.737  0.6766  0.9407  0.5735
19043SOL    HW262967   4.871   7.315   1.655  0.1989  0.1648  0.2091
19044SOL     OW62968   4.569  12.297  11.099  0.1875 -0.3126  0.0948
19044SOL    HW162969   4.636  12.276  11.164  0.5301  0.2239 -0.0806
19044SOL    HW262970   4.584  12.236  11.028 -1.1008 -1.9049  1.1050
19045SOL     OW62971   4.745   5.522   2.989  0.5137  0.2885 -0.3504
19045SOL    HW162972   4.797   5.525   3.070 -2.6162 -0.1083  1.8578
19045SOL    HW262973   4.680   5.453   3.005 -1.6818  1.7701 -2.2167
19046SOL     OW62974   0.032  11.471   2.860  0.0980  0.8796  0.3496
19046SOL    HW162975   0.128  11.463   2.866  0.1671  1.5923  0.2396
19046SOL    HW262976   0.007  11.406   2.795  0.5702  1.0587 -0.0199
19047SOL     OW62977   9.004   1.223   1.613 -0.0026  0.1297 -0.2880
19047SOL    HW162978   8.912   1.249   1.612 -0.1170 -0.2463  0.0385
19047SOL    HW262979   9.052   1.304   1.593 -0.4957 -0.2222 -3.2582
19048SOL     OW62980   0.606   3.319  10.530  0.2365  0.1758  0.2550
19048SOL    HW162981   0.655   3.258  10.585  1.3676  0.2102 -0.6890
19048SOL    HW262982   0.577   3.266  10.455 -2.1621 -0.1227  1.2838
19049SOL     OW62983   1.639  12.229   0.797  0.5671  0.1023 -0.5429
19049SOL    HW162984   1.711  12.292   0.800  0.5757  0.0919 -0.5260
19049SOL    HW262985   1.613  12.226   0.705  0.6403  0.0489 -0.5630
19050SOL     OW62986   6.738   8.768   2.577  0.0188  0.4966  0.5898
19050SOL    HW162987   6.709   8.843   2.525  1.5742  3.4681  3.6183
19050SOL    HW262988   6.668   8.756   2.642  0.7331  0.7677  1.4269
19051SOL     OW62989   0.821   9.961   8.886 -0.0674 -0.0246  0.1991
19051SOL    HW162990   0.817  10.056   8.891 -0.4307 -0.0484  0.3687
19051SOL    HW262991   0.861   9.943   8.800 -2.2994  0.2383 -0.9588
19052SOL     OW62992   5.356   0.047   0.199  0.2272  0.3583 -0.3329
19052SOL    HW162993   5.438   0.036   0.247  0.3646  0.1584 -0.6078
19052SOL    HW262994   5.327  -0.043   0.182 -0.3215  0.4264  0.2235
19053SOL     OW62995   9.086   2.831  11.138 -0.2146  0.0000  0.1630
19053SOL    HW162996   9.100   2.739  11.115 -0.5038 -0.5695  2.1057
19053SOL    HW262997   9.062   2.830  11.231  0.1240  2.0660  0.3354
19054SOL     OW62998  11.128  10.191  10.288 -0.3397 -0.6203 -0.4546
19054SOL    HW162999  11.171  10.267  10.326 -0.0946 -1.0968  0.2409
19054SOL    HW263000  11.077  10.226  10.215 -0.7243  0.3051  0.2358
19055SOL     OW63001   3.105   1.664   0.769 -0.3496 -0.0519 -0.4916
19055SOL    HW163002   3.017   1.639   0.798 -0.0902 -1.3323 -0.7494
19055SOL    HW263003   3.114   1.755   0.796 -0.6920 -0.7149  2.0858
19056SOL     OW63004   5.630   9.991  10.824  0.1643 -0.4415 -0.0608
19056SOL    HW163005   5.583  10.050  10.882  0.4958  0.6115 -0.8257
19056SOL    HW263006   5.563   9.931  10.792 -0.2668 -0.2122  0.3904
19057SOL     OW63007  10.288   0.968   0.760 -0.3267 -0.1698  0.4289
19057SOL    HW163008  10.352   0.991   0.828  0.5545  0.5778 -0.6147
19057SOL    HW263009  10.329   0.897   0.711 -0.0454  0.6369 -0.5496
19058SOL     OW63010   1.572   7.678  10.044 -0.6563 -0.1430 -0.2329
19058SOL    HW163011   1.592   7.770  10.064  0.3654 -0.7749  1.9392
19058SOL    HW263012   1.559   7.677   9.949 -1.6047  2.3907 -0.2209
19059SOL     OW63013   7.215   8.389  10.181  0.1141  0.1214 -0.5266
19059SOL    HW163014   7.297   8.373  10.228  1.0338 -0.4316 -2.2207
19059SOL    HW263015   7.236   8.368  10.090 -1.5198  1.3702 -1.2360
19060SOL     OW63016   0.517  10.466   9.089  0.5832 -0.3927  0.5151
19060SOL    HW163017   0.574  10.411   9.035  0.0811 -1.4777  1.0547
19060SOL    HW263018   0.431  10.426   9.082  0.0718  0.6994  0.4358
19061SOL     OW63019   7.448   0.961  11.105 -0.4877  0.2179  0.4032
19061SOL    HW163020   7.372   0.917  11.067  0.0524  0.8980 -1.5867
19061SOL    HW263021   7.522   0.906  11.081 -0.0220  1.1722 -0.4190
19062SOL     OW63022   8.666   6.227   7.691 -0.7475  0.1878 -0.5600
19062SOL    HW163023   8.733   6.257   7.631  0.2387 -1.9049 -0.6067
19062SOL    HW263024   8.645   6.139   7.661 -2.2408  0.1339  0.5218
19063SOL     OW63025  12.105  10.766   9.602 -1.0505 -0.1265 -0.1978
19063SOL    HW163026  12.164  10.699   9.636 -1.1095  0.1661  0.5023
19063SOL    HW263027  12.162  10.838   9.578 -0.9148 -0.6670 -1.6033
19064SOL     OW63028   3.336   4.926   8.581  0.3009  0.5420 -0.9146
19064SOL    HW163029   3.427   4.897   8.592  0.4319  1.1528 -0.3179
19064SOL    HW263030   3.284   4.865   8.633  0.4118  0.4442 -0.9191
19065SOL     OW63031   6.811   1.669  12.181 -0.3420 -0.9088 -0.5733
19065SOL    HW163032   6.881   1.663  12.247 -0.1183 -0.2636 -0.7369
19065SOL    HW263033   6.730   1.665  12.231 -0.1944 -1.8273 -0.3943
19066SOL     OW63034  12.117   3.197   9.205 -0.0588 -0.4945  0.2573
19066SOL    HW163035  12.205   3.167   9.224 -0.3514 -0.3361  1.9859
19066SOL    HW263036  12.084   3.135   9.140  0.4181 -2.1460  1.5354
19067SOL     OW63037   1.277  11.020   4.705 -0.4101  0.6823  0.1950
19067SOL    HW163038   1.368  11.043   4.726 -0.5973 -0.1197  2.1915
19067SOL    HW263039   1.273  11.021   4.610  2.4701 -1.9765 -0.1361
19068SOL     OW63040   1.553   5.165   9.380  0.0880 -0.3174  0.7734
19068SOL    HW163041   1.626   5.171   9.318 -0.1822 -0.8844  0.3886
19068SOL    HW263042   1.539   5.255   9.409  1.5858 -0.3280  1.6223
19069SOL     OW63043   4.108  10.711   4.567  0.4307  0.6668  0.2278
19069SOL    HW163044   4.102  10.637   4.628  1.3905  1.0875  0.8584
19069SOL    HW263045   4.200  10.737   4.570  0.1874  1.6298 -0.2999
19070SOL     OW63046   8.486   7.441   3.680  0.8003  0.2538  0.6296
19070SOL    HW163047   8.536   7.443   3.761  0.0609  2.6500  1.1180
19070SOL    HW263048   8.523   7.369   3.630  0.8852 -1.6795  3.3063
19071SOL     OW63049   8.489   9.648   9.065 -0.4800  0.3794 -0.1782
19071SOL    HW163050   8.411   9.620   9.016 -1.7389 -0.1180  1.9757
19071SOL    HW263051   8.562   9.603   9.021 -1.6483 -0.7428 -1.0443
19072SOL     OW63052   3.417   4.405  10.932  0.1352 -0.2200 -0.6428
19072SOL    HW163053   3.366   4.470  10.980 -0.4346 -0.0649 -1.4453
19072SOL    HW263054   3.506   4.412  10.968 -0.2568 -0.0420  0.3079
19073SOL     OW63055   0.808   6.429   0.163 -0.1422 -0.0868 -0.4851
19073SOL    HW163056   0.866   6.504   0.158 -1.3367  0.8919 -0.0468
19073SOL    HW263057   0.798   6.399   0.073  0.6964 -0.0150 -0.6062
19074SOL     OW63058   1.316   9.217  10.668 -0.5064  0.2316 -0.2668
19074SOL    HW163059   1.378   9.272  10.620  0.7362 -1.9467 -1.2588
19074SOL    HW263060   1.280   9.158  10.602 -3.4846  1.1758  0.3275
19075SOL     OW63061   5.056   1.459   1.145  0.3179 -0.1073 -0.4382
19075SOL    HW163062   4.982   1.456   1.205 -0.7971 -0.9950 -1.8125
19075SOL    HW263063   5.067   1.369   1.116  2.1962 -0.0652  0.0105
19076SOL     OW63064  10.629  10.449   4.042  0.4087 -0.1702 -0.2536
19076SOL    HW163065  10.586  10.375   4.084 -0.8670 -0.7204 -2.3587
19076SOL    HW263066  10.701  10.410   3.993  0.1120  0.0525 -0.8763
19077SOL     OW63067   6.851   2.958   4.920  0.0479 -0.2421 -0.2264
19077SOL    HW163068   6.909   3.018   4.967  0.0508  0.8981 -1.6485
19077SOL    HW263069   6.769   2.960   4.970  0.5238 -0.2315  0.5777
19078SOL     OW63070  10.238   2.184   8.175  0.1613 -0.6973 -0.4800
19078SOL    HW163071  10.249   2.177   8.270 -0.7292 -1.3538 -0.4046
19078SOL    HW263072  10.156   2.137   8.157 -1.4960  2.2360 -1.1725
19079SOL     OW63073   4.401   1.432  10.084  0.4089  0.1467 -0.2496
19079SOL    HW163074   4.457   1.403  10.011  0.1614  1.1911 -0.8748
19079SOL    HW263075   4.328   1.370  10.084  0.4790  0.0580 -0.8145
19080SOL     OW63076   3.762  11.406  10.707  0.1861  0.4738  0.0588
19080SOL    HW163077   3.695  11.373  10.767 -0.7345  2.0903 -0.0368
19080SOL    HW263078   3.717  11.414  10.623  1.1157 -0.5068 -0.5694
19081SOL     OW63079   1.511   3.706   3.145  0.0145 -0.0620 -0.1241
19081SOL    HW163080   1.587   3.648   3.154  0.7801  0.7636 -1.1517
19081SOL    HW263081   1.488   3.702   3.052 -2.1479 -1.4348  0.3729
19082SOL     OW63082   1.764   0.956   9.447  0.2456 -0.2201 -0.1443
19082SOL    HW163083   1.751   0.863   9.426 -2.1591  0.0632 -0.1578
19082SOL    HW263084   1.786   0.956   9.540 -0.0267 -0.7917 -0.0722
19083SOL     OW63085   3.373   2.763   7.521 -0.0759  0.4850 -0.5452
19083SOL    HW163086   3.355   2.788   7.612  0.9123  1.8302 -0.6881
19083SOL    HW263087   3.359   2.844   7.471 -0.3042 -0.1631 -1.5637
19084SOL     OW63088   5.279   5.937  11.882 -0.2992 -0.1234 -0.3373
19084SOL    HW163089   5.322   5.920  11.798 -0.7583  2.8166 -1.2592
19084SOL    HW263090   5.301   6.028  11.903 -0.9353 -0.4841  2.3179
19085SOL     OW63091  10.843   1.823   7.090  0.3753 -0.7105  0.4069
19085SOL    HW163092  10.868   1.847   7.001 -1.1017 -0.2552  0.0966
19085SOL    HW263093  10.888   1.740   7.105  2.8136  0.4792  0.2559
19086SOL     OW63094   2.204   4.281  11.219 -0.0996 -0.0836 -0.0159
19086SOL    HW163095   2.170   4.284  11.308  2.1815 -0.2365  0.9325
19086SOL    HW263096   2.257   4.360  11.212 -0.0413 -0.2118 -1.1611
19087SOL     OW63097   4.475   5.460   0.019 -0.0644 -0.5591 -0.2134
19087SOL    HW163098   4.509   5.409   0.092 -0.3600 -1.0275 -0.3993
19087SOL    HW263099   4.404   5.512   0.058  0.3312 -0.1844  0.0058
19088SOL     OW63100   7.357   4.813   5.338  0.1492 -0.3075 -0.1223
19088SOL    HW163101   7.268   4.818   5.303  0.2694 -0.2305 -0.4226
19088SOL    HW263102   7.404   4.883   5.293  0.6812 -1.1368 -0.9042
19089SOL     OW63103   1.802   1.229   6.117  0.2394  0.2843 -0.1628
19089SOL    HW163104   1.864   1.290   6.076 -0.6782  0.2524 -1.6713
19089SOL    HW263105   1.841   1.143   6.104  0.6630  0.3902  0.3644
19090SOL     OW63106   1.177   3.067   7.332  0.2385  0.0130  0.1587
19090SOL    HW163107   1.169   3.011   7.255  1.0716  0.1634 -0.0545
19090SOL    HW263108   1.221   3.145   7.299 -0.2458  0.4785  0.6063
19091SOL     OW63109   0.760   4.183   6.265  0.5779 -0.2388 -0.4932
19091SOL    HW163110   0.691   4.147   6.208  1.2106 -0.3634 -1.1878
19091SOL    HW263111   0.831   4.120   6.260  0.5426 -0.3954  0.6746
19092SOL     OW63112   0.932   5.707   7.600  0.4155 -0.3909 -0.2204
19092SOL    HW163113   0.941   5.622   7.644  0.6048 -0.7402 -0.9249
19092SOL    HW263114   0.959   5.771   7.667  1.4861 -0.9712 -0.0752
19093SOL     OW63115   7.933   1.703   6.515 -0.1294  0.2870 -0.1297
19093SOL    HW163116   7.926   1.672   6.425 -1.8486  0.1968  0.0027
19093SOL    HW263117   7.897   1.792   6.512 -1.0389 -0.0439  0.6118
19094SOL     OW63118   2.523   1.829  11.898 -0.4666 -0.6128 -0.2507
19094SOL    HW163119   2.578   1.812  11.822 -0.0750  0.6884 -0.2940
19094SOL    HW263120   2.571   1.791  11.971  1.7132  2.3711  0.0605
19095SOL     OW63121   5.327   7.813  10.543 -0.0882  0.1116 -0.0787
19095SOL    HW163122   5.369   7.817  10.629  0.8167 -1.2643 -0.4260
19095SOL    HW263123   5.399   7.799  10.481 -1.0204 -3.0919 -0.6083
19096SOL     OW63124  11.558   0.068  11.215  0.3810  0.3986  0.3035
19096SOL    HW163125  11.472   0.033  11.235  0.3213  0.8191  0.8176
19096SOL    HW263126  11.552   0.099  11.124  0.3137 -0.5209 -0.0093
19097SOL     OW63127   7.033   6.234   7.565  0.2209 -0.7076  0.2294
19097SOL    HW163128   6.960   6.178   7.539 -0.0806 -0.9672  1.5603
19097SOL    HW263129   7.021   6.314   7.514  0.6996 -1.8404 -1.7393
19098SOL     OW63130  11.835   4.154   1.712 -0.0915 -0.0644 -0.6916
19098SOL    HW163131  11.811   4.204   1.790  2.1939  1.6209 -0.9809
19098SOL    HW263132  11.842   4.219   1.642  0.4350 -1.1770 -1.7182
19099SOL     OW63133   5.315  11.329   2.550 -0.3651  0.3065  0.2965
19099SOL    HW163134   5.337  11.397   2.614  0.4687  0.6995 -0.3762
19099SOL    HW263135   5.265  11.374   2.483  1.0535  0.5296 -0.6708
19100SOL     OW63136   7.205   9.089   8.279  0.0174 -0.0942  0.6100
19100SOL    HW163137   7.116   9.098   8.313  0.4357 -1.1286  2.1041
19100SOL    HW263138   7.232   9.178   8.257 -0.6738  0.5138  2.1067
19101SOL     OW63139   2.733  11.362   9.074  0.0432 -0.4616  0.2827
19101SOL    HW163140   2.815  11.313   9.076 -0.4148 -1.2524  0.1143
19101SOL    HW263141   2.675  11.310   9.018  0.1526  1.2705 -1.5435
19102SOL     OW63142  12.037   5.738   1.440 -0.6239 -0.3922  0.4828
19102SOL    HW163143  12.000   5.764   1.524 -0.4492  1.9331 -0.1010
19102SOL    HW263144  12.132   5.743   1.453 -0.5995  0.3949  0.0426
19103SOL     OW63145  10.236   6.471   2.556 -0.4588  0.1159  0.4150
19103SOL    HW163146  10.270   6.556   2.583  1.3655 -0.9843  1.7781
19103SOL    HW263147  10.204   6.485   2.466 -1.7141  2.5752  1.1591
19104SOL     OW63148   2.436   6.135   3.940  0.8977  0.2351  0.1288
19104SOL    HW163149   2.404   6.085   3.865  0.5903  1.7353 -0.7942
19104SOL    HW263150   2.357   6.174   3.978  1.1689  0.3823  0.5451
19105SOL     OW63151   7.871   0.378  10.324  0.3944  0.3987  0.4047
19105SOL    HW163152   7.853   0.437  10.397  0.7385 -0.1979  0.9794
19105SOL    HW263153   7.966   0.379  10.314  0.2889  1.3176 -0.7602
19106SOL     OW63154   1.444   3.078   0.827  0.3842  0.5161  0.2750
19106SOL    HW163155   1.431   2.983   0.826  2.4602  0.1845 -0.0134
19106SOL    HW263156   1.459   3.101   0.736 -0.2512  1.1641  0.3274
19107SOL     OW63157   0.875   1.581  11.929  0.1999 -1.0536  0.2332
19107SOL    HW163158   0.929   1.656  11.904 -0.3846 -0.1531  1.5416
19107SOL    HW263159   0.931   1.505  11.912  0.8007 -0.3478 -1.1493
19108SOL     OW63160   2.541   2.534   5.791  0.0065 -0.0283  0.4138
19108SOL    HW163161   2.537   2.452   5.840 -0.6416  0.8215  1.8471
19108SOL    HW263162   2.452   2.546   5.758  0.1597 -0.0076 -0.0035
19109SOL     OW63163   5.503  10.448   9.984  0.5463 -0.3641  0.1427
19109SOL    HW163164   5.511  10.381   9.916 -0.6604 -0.5070  0.1331
19109SOL    HW263165   5.425  10.498   9.961  0.5026  0.0154  1.0535
19110SOL     OW63166  10.216  10.722   7.632 -0.1714 -0.0650 -0.4146
19110SOL    HW163167  10.295  10.677   7.602  0.4462  1.4736 -1.1450
19110SOL    HW263168  10.163  10.733   7.553 -1.2351 -1.2193  0.0913
19111SOL     OW63169   4.766   9.199   2.488  0.3162 -0.3273 -0.1037
19111SOL    HW163170   4.714   9.161   2.559 -0.7202  1.7933  0.3524
19111SOL    HW263171   4.703   9.218   2.420  1.3902 -2.9675 -2.0217
19112SOL     OW63172  10.508   5.611   9.105 -0.5323 -0.3541 -0.0663
19112SOL    HW163173  10.473   5.527   9.077 -1.2044 -0.3354  0.6759
19112SOL    HW263174  10.521   5.660   9.024 -2.3235 -0.3434 -0.3805
19113SOL     OW63175   0.477   9.483   4.693  0.7213 -0.7463  0.0801
19113SOL    HW163176   0.420   9.410   4.672  0.3063 -0.2696 -0.4696
19113SOL    HW263177   0.418   9.555   4.717  1.0333  0.0245 -1.3653
19114SOL     OW63178   1.631  11.201  11.179 -0.0638  0.2374 -0.6158
19114SOL    HW163179   1.574  11.240  11.112  0.6805  1.8371 -0.3551
19114SOL    HW263180   1.606  11.246  11.260 -0.0745 -0.7768 -0.0461
19115SOL     OW63181   1.332  11.266   1.421  0.0789  0.3943  0.0405
19115SOL    HW163182   1.374  11.188   1.385 -0.0965  0.3822 -0.1389
19115SOL    HW263183   1.275  11.233   1.490  1.1266  0.5063  0.9826
19116SOL     OW63184   4.306   0.013  11.090 -0.3056 -0.1956  0.0286
19116SOL    HW163185   4.398   0.003  11.115 -0.4703 -0.8040  0.4375
19116SOL    HW263186   4.300   0.101  11.053  0.0832  0.5680  1.6788
19117SOL     OW63187   2.186   9.040   2.371  0.4733  0.1125 -0.2051
19117SOL    HW163188   2.119   9.022   2.304  0.5770  0.0342 -0.2888
19117SOL    HW263189   2.262   8.988   2.343  0.8334  0.8078 -0.5330
19118SOL     OW63190   1.678   7.206  11.740 -0.6115  0.3816  0.2582
19118SOL    HW163191   1.656   7.294  11.772 -2.7669 -0.1523  0.3619
19118SOL    HW263192   1.689   7.153  11.818  3.7752  1.0863  0.3751
19119SOL     OW63193   4.128   4.487   4.873 -0.1359 -0.1578  0.1295
19119SOL    HW163194   4.192   4.417   4.883 -0.6380 -0.3227  3.3321
19119SOL    HW263195   4.049   4.454   4.917 -1.5058  1.1354 -1.2302
19120SOL     OW63196   9.058  10.029   0.319 -0.4350 -0.7393 -0.3424
19120SOL    HW163197   9.049   9.978   0.399  0.9175  0.4961  0.6241
19120SOL    HW263198   9.113   9.975   0.262 -1.2102 -1.5145 -0.3761
19121SOL     OW63199   2.899  10.417   9.032 -0.3956  0.3625 -0.0281
19121SOL    HW163200   2.841  10.476   8.985  0.0294 -0.6704 -1.9652
19121SOL    HW263201   2.962  10.388   8.966 -0.5226 -2.1418  0.8394
19122SOL     OW63202   2.256  11.397   5.540  0.7219 -0.0281  0.6572
19122SOL    HW163203   2.341  11.389   5.582 -0.0430  1.0545  2.5207
19122SOL    HW263204   2.243  11.491   5.528 -1.7992  0.2740  4.1274
19123SOL     OW63205   7.444   2.221   2.811  0.5914  0.1450 -0.0039
19123SOL    HW163206   7.371   2.160   2.804  0.0960  0.6234  0.7584
19123SOL    HW263207   7.402   2.308   2.807  1.1799  0.4261 -0.1473
19124SOL     OW63208   5.214   2.856  11.143 -0.1925  0.4844 -0.7649
19124SOL    HW163209   5.240   2.947  11.133  1.9176 -0.1289 -1.3189
19124SOL    HW263210   5.276   2.820  11.206 -0.3492 -0.8261 -1.3274
19125SOL     OW63211   6.179   9.045   8.611 -0.4359  0.3252  0.4891
19125SOL    HW163212   6.149   9.116   8.554  0.8448  1.1757  0.8244
19125SOL    HW263213   6.127   9.055   8.691 -0.5538  0.6259  0.3773
19126SOL     OW63214   4.845   7.811   1.442 -0.4227 -0.4053 -0.0103
19126SOL    HW163215   4.915   7.847   1.388  0.1476 -0.4806  0.6659
19126SOL    HW263216   4.876   7.820   1.532 -1.3402 -0.3133  0.3139
19127SOL     OW63217   7.580  12.101   6.871  0.1977  0.5411 -0.7615
19127SOL    HW163218   7.491  12.109   6.906 -0.2550 -0.7485 -1.5384
19127SOL    HW263219   7.635  12.146   6.935 -1.0795  2.0131 -0.6359
19128SOL     OW63220   6.219   5.851  11.044  0.6043  0.2705 -0.4356
19128SOL    HW163221   6.124   5.838  11.047  0.5152  1.0215  0.2036
19128SOL    HW263222   6.231   5.944  11.062  1.5333 -0.1015  1.0642
19129SOL     OW63223   5.574   7.623   1.068  0.0399  0.0319 -0.2672
19129SOL    HW163224   5.498   7.680   1.052 -1.4355 -1.5187  0.8727
19129SOL    HW263225   5.563   7.593   1.158  1.3607 -1.1832 -0.4822
19130SOL     OW63226   7.138  11.264  10.472  0.1742  0.3749 -0.3752
19130SOL    HW163227   7.090  11.272  10.390  1.4331  0.0398 -1.1751
19130SOL    HW263228   7.088  11.318  10.534 -0.5970  0.9370 -1.4450
19131SOL     OW63229  11.932  11.017  11.002 -0.6923  0.3775 -0.2044
19131SOL    HW163230  12.022  11.002  10.974 -1.0695 -1.7759 -0.4152
19131SOL    HW263231  11.914  10.947  11.065 -2.2225  0.7355 -0.2006
19132SOL     OW63232   6.142   5.376   4.391 -0.2194 -0.0957 -0.1106
19132SOL    HW163233   6.145   5.438   4.319  2.1714 -1.3181 -1.1968
19132SOL    HW263234   6.093   5.301   4.356  0.6202 -0.5395 -0.3514
19133SOL     OW63235   9.510   2.021  11.826  0.1976 -0.5005  0.1148
19133SOL    HW163236   9.504   2.101  11.773 -0.7265 -0.4868  0.2264
19133SOL    HW263237   9.440   2.030  11.891  1.4444 -0.4341  1.4805
19134SOL     OW63238   9.028   5.598   8.219  0.0574 -0.0439  0.3643
19134SOL    HW163239   9.029   5.665   8.151 -0.1224  1.0834  1.4192
19134SOL    HW263240   8.958   5.538   8.194 -0.0838  0.4234 -0.3820
19135SOL     OW63241   7.325   3.947  12.209  0.1468 -0.2694 -0.2840
19135SOL    HW163242   7.416   3.946  12.240 -0.0030 -2.8487  0.3023
19135SOL    HW263243   7.317   3.867  12.156 -1.6094  0.2532 -0.8676
19136SOL     OW63244  11.499   6.191   1.660 -0.0151  0.2321 -0.4281
19136SOL    HW163245  11.552   6.134   1.715  1.5561  0.8587 -1.2143
19136SOL    HW263246  11.448   6.132   1.606  1.5098 -0.4667 -1.1656
19137SOL     OW63247   3.163   3.611  10.139 -0.5707 -0.1291 -0.6698
19137SOL    HW163248   3.069   3.610  10.125 -0.7778 -1.9237  0.5579
19137SOL    HW263249   3.178   3.545  10.207  1.5098  0.4914 -0.4597
19138SOL     OW63250   6.789   0.233   3.915  0.2214  1.1662 -0.3691
19138SOL    HW163251   6.868   0.274   3.881  1.0733 -0.9327 -1.0892
19138SOL    HW263252   6.725   0.242   3.845  0.8349  0.0838 -1.0873
19139SOL     OW63253   1.297  10.559   6.127  0.0042 -0.0234 -0.1983
19139SOL    HW163254   1.219  10.560   6.183 -0.6699  1.5445 -1.1156
19139SOL    HW263255   1.368  10.533   6.187 -0.5868  2.0976  1.5652
19140SOL     OW63256  10.248   9.443   6.782  0.1961  0.4131  0.1212
19140SOL    HW163257  10.318   9.402   6.831 -0.9798  0.1325  1.6388
19140SOL    HW263258  10.171   9.387   6.797  0.0119 -0.3869 -3.0523
19141SOL     OW63259   6.612   9.630   2.772  0.6260 -0.1341  0.1337
19141SOL    HW163260   6.606   9.725   2.772 -0.6851 -0.1993  0.1190
19141SOL    HW263261   6.522   9.600   2.759  1.0375 -1.3772 -0.0157
19142SOL     OW63262   3.799   5.826  11.505  0.3821  0.9518 -0.2839
19142SOL    HW163263   3.847   5.744  11.519 -0.0194  0.7962  0.2221
19142SOL    HW263264   3.856   5.893  11.542  0.2664  0.7788  0.2224
19143SOL     OW63265   4.616   8.893   6.692 -0.4792  0.1643 -0.4096
19143SOL    HW163266   4.526   8.865   6.672 -0.0961 -1.1872 -0.3807
19143SOL    HW263267   4.619   8.897   6.788 -0.8471  1.4421 -0.4433
19144SOL     OW63268  12.140   2.718   7.754 -0.2184  0.0170 -0.1978
19144SOL    HW163269  12.090   2.637   7.744  0.2443 -0.5229  1.5923
19144SOL    HW263270  12.126   2.744   7.845 -0.2468  1.8940 -0.6956
19145SOL     OW63271   4.600   0.764   2.702 -0.4264 -0.0774 -0.7906
19145SOL    HW163272   4.639   0.679   2.725 -2.1777 -1.4666 -2.6511
19145SOL    HW263273   4.506   0.748   2.701 -0.8984  2.2680  0.0914
19146SOL     OW63274   5.593   7.605   0.764 -0.2149  0.3969  0.3554
19146SOL    HW163275   5.630   7.652   0.839 -0.0955  1.3812 -0.3044
19146SOL    HW263276   5.666   7.552   0.730 -0.0612  0.5379  0.4678
19147SOL     OW63277   8.340   5.676   5.389  0.1028  0.0717  0.5603
19147SOL    HW163278   8.282   5.715   5.454  1.7556  2.1586  0.8942
19147SOL    HW263279   8.306   5.706   5.305  0.9830  1.7987  0.7848
19148SOL     OW63280   3.469   5.755   3.296  0.4909 -0.4570 -0.4456
19148SOL    HW163281   3.487   5.662   3.309 -1.0895 -0.8693 -1.0441
19148SOL    HW263282   3.375   5.764   3.311  0.3152  0.7499 -2.0297
19149SOL     OW63283   1.321   0.313   3.923  0.4032 -0.1620  0.0708
19149SOL    HW163284   1.239   0.266   3.938  1.2833 -1.0536  2.5036
19149SOL    HW263285   1.378   0.249   3.881  0.3498 -0.0160 -0.2270
19150SOL     OW63286  10.266   0.844  10.470 -0.0468 -0.1323  0.0497
19150SOL    HW163287  10.246   0.932  10.504 -2.4065  0.5041 -2.5224
19150SOL    HW263288  10.242   0.849  10.377  1.2459 -3.0914 -0.5552
19151SOL     OW63289   6.671   3.844   5.069  0.2106  0.2575 -0.4197
19151SOL    HW163290   6.670   3.932   5.031 -0.4874 -0.2893 -1.7380
19151SOL    HW263291   6.756   3.808   5.045 -0.1272  0.0087 -1.2957
19152SOL     OW63292  11.697   8.593   3.029  0.2981  0.1283  0.0472
19152SOL    HW163293  11.722   8.645   3.105  0.4176  0.3460 -0.1392
19152SOL    HW263294  11.759   8.520   3.028 -0.0413 -0.1656  0.4656
19153SOL     OW63295   2.221   2.764   7.788 -0.0585  0.0498  0.5413
19153SOL    HW163296   2.159   2.781   7.859  0.4424 -0.5247  1.1330
19153SOL    HW263297   2.306   2.786   7.825  0.0613  1.2584 -0.4131
19154SOL     OW63298  10.621   5.501   7.728 -0.1136 -0.2966 -0.1286
19154SOL    HW163299  10.605   5.464   7.815 -0.5807 -0.0675 -0.1126
19154SOL    HW263300  10.709   5.538   7.733  0.2348 -1.1071 -0.0439
19155SOL     OW63301  10.732  10.232   6.856 -0.1020 -0.2577  0.3464
19155SOL    HW163302  10.715  10.161   6.919 -3.0911  0.0140 -0.0102
19155SOL    HW263303  10.676  10.304   6.886  1.4557  1.3036 -0.3781
19156SOL     OW63304   3.537   4.807   3.782 -0.1451 -0.5337 -0.6319
19156SOL    HW163305   3.461   4.844   3.827 -2.2568 -0.9613 -3.5928
19156SOL    HW263306   3.570   4.880   3.729  1.9635 -0.1954  1.0026
19157SOL     OW63307   1.583   3.495   1.308 -0.6400 -0.4111 -0.6003
19157SOL    HW163308   1.660   3.547   1.286 -0.6625 -0.5885 -1.1062
19157SOL    HW263309   1.612   3.404   1.302 -0.4072 -0.4709  0.9840
19158SOL     OW63310  10.460   8.800   6.042 -0.2937  0.3091  0.0210
19158SOL    HW163311  10.366   8.797   6.028 -0.1122  0.8378 -1.5688
19158SOL    HW263312  10.482   8.718   6.085 -1.3164 -0.4032 -0.7850
19159SOL     OW63313  10.975   2.046  11.503 -0.1908  0.2779 -0.4446
19159SOL    HW163314  11.067   2.058  11.478  0.2108 -1.3496  0.1501
19159SOL    HW263315  10.950   1.963  11.463 -0.5719 -0.6433  1.5708
19160SOL     OW63316  12.251   3.593   0.521  0.0731 -0.1018  0.3952
19160SOL    HW163317  12.341   3.625   0.529 -0.0692  0.7407 -1.0616
19160SOL    HW263318  12.198   3.666   0.553 -0.1034 -0.5184  1.0553
19161SOL     OW63319   6.833   8.820   3.564 -0.6989 -0.2148  0.6558
19161SOL    HW163320   6.832   8.764   3.486  0.7812  0.5396  0.0380
19161SOL    HW263321   6.783   8.897   3.539 -1.2114 -0.4793  0.8657
19162SOL     OW63322   1.664   1.205   9.342 -0.0308  0.3709  0.2382
19162SOL    HW163323   1.735   1.267   9.329 -0.3551  0.9041  0.9995
19162SOL    HW263324   1.706   1.128   9.381  0.6358 -0.5219 -2.0680
19163SOL     OW63325   9.147  11.879   8.930  0.0846 -0.0130 -0.2186
19163SOL    HW163326   9.176  11.970   8.944 -2.2422  0.8934 -0.7356
19163SOL    HW263327   9.114  11.879   8.840 -1.3812 -0.9340  0.2920
19164SOL     OW63328  11.739   3.157   9.356  0.3162  0.3380 -0.0870
19164SOL    HW163329  11.738   3.210   9.436  0.4223  1.5115 -0.8463
19164SOL    HW263330  11.687   3.207   9.293  0.4814 -0.4244 -0.8548
19165SOL     OW63331  11.671   8.833   1.394 -0.5729 -0.3015 -0.5012
19165SOL    HW163332  11.599   8.772   1.409  0.1506 -1.2879 -0.8984
19165SOL    HW263333  11.728   8.788   1.331  0.0688  0.7172 -0.6744
19166SOL     OW63334   9.532   4.769   3.013  0.3281  0.3252 -0.0259
19166SOL    HW163335   9.501   4.838   3.072  1.3860  2.2025 -1.5684
19166SOL    HW263336   9.510   4.801   2.926 -1.0544 -2.3045 -0.7559
19167SOL     OW63337   5.844   9.926   7.163  0.2895 -0.1979 -0.3401
19167SOL    HW163338   5.753   9.945   7.141 -0.1848 -0.8164  0.9905
19167SOL    HW263339   5.851   9.831   7.155  0.6427 -0.2218  0.1815
19168SOL     OW63340   2.719   0.871   4.040 -0.5517  0.1701  0.1481
19168SOL    HW163341   2.668   0.937   4.087 -1.3798  0.5512 -1.2295
19168SOL    HW263342   2.689   0.788   4.077 -0.2038  0.5083  1.2164
19169SOL     OW63343   5.469   2.512   6.936  0.2120 -0.2735 -0.4001
19169SOL    HW163344   5.518   2.524   6.854 -0.9632  1.2402 -0.9459
19169SOL    HW263345   5.405   2.444   6.916  0.2233 -0.2263 -0.6041
19170SOL     OW63346   7.380   6.975  10.618 -0.6029  0.0134 -0.2256
19170SOL    HW163347   7.417   6.969  10.706 -0.7335 -0.8369 -0.2167
19170SOL    HW263348   7.343   7.063  10.612 -0.9030 -0.0460  0.6952
19171SOL     OW63349   8.168   2.725   0.888 -0.4265 -0.4757  0.2762
19171SOL    HW163350   8.080   2.738   0.854 -0.1188  1.1599  0.0152
19171SOL    HW263351   8.155   2.705   0.981 -1.0683  0.1465  0.3266
19172SOL     OW63352   8.146  11.445   0.023  0.3468  0.2198 -0.0183
19172SOL    HW163353   8.068  11.499   0.011 -0.6789 -1.2130 -0.0313
19172SOL    HW263354   8.168  11.456   0.116 -1.0153 -0.7920  0.4716
19173SOL     OW63355   0.309   9.293   7.891 -0.2109 -0.1921 -0.5229
19173SOL    HW163356   0.249   9.358   7.929 -0.3835  0.0021 -1.1018
19173SOL    HW263357   0.271   9.275   7.805 -0.1471 -1.0456 -0.3764
19174SOL     OW63358   0.811   3.718   5.314  0.1688 -0.5894 -0.2407
19174SOL    HW163359   0.759   3.675   5.382 -1.0514 -1.1725 -1.4882
19174SOL    HW263360   0.748   3.773   5.266  0.6489 -1.3471 -1.8104
19175SOL     OW63361   8.882   9.917   3.073 -0.2990  0.2818 -0.5861
19175SOL    HW163362   8.962   9.880   3.036 -0.2959  2.3181 -2.9158
19175SOL    HW263363   8.819   9.845   3.071  1.2116 -1.1588  0.6177
19176SOL     OW63364   9.822   5.103  10.884 -0.1866  0.8856 -0.8033
19176SOL    HW163365   9.769   5.053  10.947  1.5013  0.3825  0.3114
19176SOL    HW263366   9.848   5.038  10.819 -1.5645  1.3117 -1.8224
19177SOL     OW63367   5.862   0.405   4.751  0.7199  0.1530  0.1277
19177SOL    HW163368   5.842   0.335   4.688  0.3105  0.5623 -0.2010
19177SOL    HW263369   5.932   0.368   4.806  0.3408 -0.6046  0.1128
19178SOL     OW63370  11.433   5.740   0.353  0.1083  0.1217  0.4587
19178SOL    HW163371  11.426   5.745   0.258  0.1314 -0.9735  0.3796
19178SOL    HW263372  11.484   5.817   0.378  0.7898 -0.0025 -0.4966
19179SOL     OW63373   2.713   7.495   9.175 -0.2504  0.4394 -0.7413
19179SOL    HW163374   2.797   7.456   9.154 -1.8922 -4.1998  0.1935
19179SOL    HW263375   2.727   7.539   9.259  1.2643 -0.1616 -0.6500
19180SOL     OW63376   4.475   5.560  10.452 -0.0354 -0.2511  0.3719
19180SOL    HW163377   4.566   5.547  10.478 -0.7798 -1.5329  2.5913
19180SOL    HW263378   4.437   5.610  10.523 -1.1341  0.1070 -0.4431
19181SOL     OW63379   6.713   0.084   4.266  0.4186  0.3711  0.4637
19181SOL    HW163380   6.703   0.116   4.356  1.8184 -2.7288  1.8680
19181SOL    HW263381   6.623   0.078   4.233 -0.1410  1.3953  1.6913
19182SOL     OW63382  10.415   9.294   9.947 -0.4652  0.1157  0.3181
19182SOL    HW163383  10.320   9.278   9.951 -0.2539 -2.1297 -1.9003
19182SOL    HW263384  10.426   9.352   9.872  0.0367 -0.9849 -0.4733
19183SOL     OW63385   4.334  12.186   4.641 -0.6528 -0.1706  0.5415
19183SOL    HW163386   4.400  12.241   4.600 -0.6416 -1.1117 -0.8140
19183SOL    HW263387   4.328  12.217   4.731 -0.3588  1.7338 -0.0542
19184SOL     OW63388   0.314  10.805   2.325 -0.1321  0.3974  0.3630
19184SOL    HW163389   0.309  10.823   2.419 -0.7948  2.0470  0.0483
19184SOL    HW263390   0.408  10.804   2.306  0.0203 -0.2845  1.0816
19185SOL     OW63391   6.038   5.915   9.720 -0.7999  0.1298  0.6569
19185SOL    HW163392   5.980   5.988   9.698  2.3167  2.2118 -1.3750
19185SOL    HW263393   6.048   5.867   9.638  1.1680  0.5192  0.6215
19186SOL     OW63394   6.514   1.434   7.179  0.1865 -0.2056 -0.4169
19186SOL    HW163395   6.441   1.408   7.235 -0.3100  1.8788  0.0090
19186SOL    HW263396   6.592   1.417   7.231 -0.1788  0.1263  0.2536
19187SOL     OW63397   6.736   9.744   8.664 -0.1711  0.1121  0.2744
19187SOL    HW163398   6.666   9.680   8.676  0.3157 -0.3454  0.7458
19187SOL    HW263399   6.693   9.829   8.671 -0.8128 -0.1627 -0.2919
19188SOL     OW63400   3.993  11.375   8.781  0.6395  0.3676  0.1014
19188SOL    HW163401   3.926  11.392   8.848 -0.7993  0.5622 -1.3290
19188SOL    HW263402   3.957  11.414   8.701  2.6299  0.7653 -0.6564
19189SOL     OW63403   4.502  10.496   9.713 -0.1172 -0.0239 -0.0896
19189SOL    HW163404   4.563  10.569   9.697 -0.6039  0.3902 -0.1009
19189SOL    HW263405   4.417  10.530   9.683 -0.8748  0.3620  2.2885
19190SOL     OW63406   0.815   8.092   9.842  0.3624  0.1518 -0.1916
19190SOL    HW163407   0.748   8.148   9.881  0.0680 -0.2095 -0.1806
19190SOL    HW263408   0.896   8.143   9.852  0.1753  0.3801  0.2294
19191SOL     OW63409   1.706   9.725   9.035 -0.5300  0.3881 -0.5711
19191SOL    HW163410   1.693   9.820   9.037 -1.1349  0.3137  2.3689
19191SOL    HW263411   1.622   9.689   9.006 -0.4034  0.7213 -1.3648
19192SOL     OW63412   5.366   5.144   2.966  0.1194  0.4067 -0.1093
19192SOL    HW163413   5.323   5.082   2.906  0.4785  0.2948 -0.2534
19192SOL    HW263414   5.452   5.160   2.926  0.1566  0.7440  0.1007
19193SOL     OW63415   9.654   4.190   5.279  0.6790  0.0766  0.5990
19193SOL    HW163416   9.570   4.233   5.259  0.4042 -0.6366  0.1584
19193SOL    HW263417   9.631   4.097   5.285  1.7323 -0.3638 -1.3577
19194SOL     OW63418   8.312   0.505   2.161 -0.0443  0.0876  0.7030
19194SOL    HW163419   8.405   0.486   2.176  0.1967  0.1994 -0.5850
19194SOL    HW263420   8.310   0.598   2.138 -0.1566 -0.4407 -1.6498
19195SOL     OW63421   5.320   8.680   8.012  0.1258 -0.3884  0.2807
19195SOL    HW163422   5.347   8.745   8.078 -1.1222 -1.1476  1.5900
19195SOL    HW263423   5.226   8.695   8.002  0.1853 -0.7390 -0.8410
19196SOL     OW63424   1.513   5.567  11.790 -0.1989 -0.0370 -0.0804
19196SOL    HW163425   1.538   5.657  11.809 -0.1290 -0.2499  0.8750
19196SOL    HW263426   1.441   5.575  11.728  0.8994  0.6272 -1.3209
19197SOL     OW63427   4.786   0.791   2.270  0.1889 -0.5890 -0.3327
19197SOL    HW163428   4.854   0.743   2.317  0.0436  1.5193  2.2720
19197SOL    HW263429   4.803   0.883   2.290 -2.9320  0.0780 -0.2314
19198SOL     OW63430   6.727   7.622   5.650  0.4243 -0.2389  0.1903
19198SOL    HW163431   6.789   7.688   5.619  2.0757 -0.9249  1.8344
19198SOL    HW263432   6.666   7.670   5.705 -1.0064  0.5630 -2.0009
19199SOL     OW63433   2.096   0.799   7.177 -0.0278  0.1797 -1.0443
19199SOL    HW163434   2.046   0.754   7.246 -1.3196 -0.1655 -2.1705
19199SOL    HW263435   2.104   0.889   7.208  0.1837 -0.1658 -0.0434
19200SOL     OW63436   7.625   9.067  10.010 -0.7760  0.1191  0.0353
19200SOL    HW163437   7.680   9.059  10.088  0.7339 -0.3724 -1.0347
19200SOL    HW263438   7.623   8.979   9.973 -1.4081  0.3611 -0.5211
19201SOL     OW63439  11.835  11.883   7.750  0.0086 -0.0977 -0.3262
19201SOL    HW163440  11.815  11.811   7.689 -1.6078  1.3144 -1.5822
19201SOL    HW263441  11.752  11.899   7.795  0.8309 -0.1810  1.2871
19202SOL     OW63442   1.534   7.715   7.244  0.0744 -0.2864 -0.5537
19202SOL    HW163443   1.619   7.676   7.221 -1.0778 -1.2862 -3.5473
19202SOL    HW263444   1.529   7.794   7.191 -1.8488 -1.5518 -2.3775
19203SOL     OW63445  12.156   5.222   7.830  0.1970  0.3729  0.1628
19203SOL    HW163446  12.079   5.200   7.882  1.2130  0.3457  1.6999
19203SOL    HW263447  12.124   5.286   7.766 -0.9839  0.7499  1.1073
19204SOL     OW63448  10.059   5.408   6.455  0.5029 -0.3309 -0.1738
19204SOL    HW163449  10.013   5.349   6.396 -1.1249  0.9725 -0.2697
19204SOL    HW263450  10.002   5.484   6.462  3.3277  2.0923 -1.5115
19205SOL     OW63451   1.421  10.141   5.204  0.3130  0.2945 -0.5031
19205SOL    HW163452   1.420  10.146   5.300 -0.9204  0.9676 -0.5246
19205SOL    HW263453   1.366  10.215   5.176  0.1972 -0.2326 -1.7095
19206SOL     OW63454  11.656   1.548   0.175  0.0723  0.4270 -0.1155
19206SOL    HW163455  11.636   1.587   0.260  0.5399 -0.4287  0.4020
19206SOL    HW263456  11.593   1.475   0.168  0.4450  0.1150 -0.2218
19207SOL     OW63457   2.404   5.017   9.057  0.4080  0.4206 -0.4986
19207SOL    HW163458   2.328   5.039   9.004  0.5618  1.1754 -0.4165
19207SOL    HW263459   2.423   4.926   9.034 -0.9789 -0.0356  0.0564
19208SOL     OW63460  10.950   1.210   2.343 -0.0742 -0.6808 -0.2146
19208SOL    HW163461  10.937   1.184   2.252 -0.9061 -2.0973  0.2741
19208SOL    HW263462  10.877   1.169   2.391  0.0492  0.4553  1.0215
19209SOL     OW63463  10.891   8.393  12.011 -0.5550 -0.0893  0.3087
19209SOL    HW163464  10.835   8.322  11.978  0.3432 -0.6061 -0.1499
19209SOL    HW263465  10.926   8.360  12.093  1.5351 -1.1164 -0.9030
19210SOL     OW63466  10.433   3.487   1.719  0.6059  0.3676 -0.0078
19210SOL    HW163467  10.490   3.511   1.646  0.9568  0.8975  0.4290
19210SOL    HW263468  10.450   3.554   1.786 -1.8114  1.6175 -0.4991
19211SOL     OW63469   2.268   1.544   1.789 -0.1533  0.3846  0.2483
19211SOL    HW163470   2.211   1.538   1.713  0.8712  0.4486 -0.5425
19211SOL    HW263471   2.346   1.589   1.757  1.2126 -1.4914  0.7857
19212SOL     OW63472   0.932   3.239   8.493  0.3730 -0.2467 -0.0050
19212SOL    HW163473   0.845   3.270   8.517  1.0085  0.7887  1.0295
19212SOL    HW263474   0.934   3.243   8.398 -0.1719  1.2279  0.0331
19213SOL     OW63475   0.621   1.576   4.492  0.2234  0.0487 -0.1392
19213SOL    HW163476   0.649   1.487   4.512 -1.9179 -0.7227 -0.3166
19213SOL    HW263477   0.557   1.566   4.421 -1.3567  1.5130  0.9770
19214SOL     OW63478   0.448   0.876   1.253  0.3428 -0.4522 -0.1449
19214SOL    HW163479   0.387   0.933   1.207  0.5877  1.3177  1.5505
19214SOL    HW263480   0.397   0.799   1.276 -1.0806  0.6681  0.6004
19215SOL     OW63481  11.387   3.687  10.515 -0.3640  0.2317  0.5745
19215SOL    HW163482  11.307   3.713  10.470 -0.4463  0.2658  0.7400
19215SOL    HW263483  11.444   3.653  10.446 -0.0237  1.3998  0.2574
19216SOL     OW63484  10.603   9.108  12.168 -0.3152  0.4137  0.1221
19216SOL    HW163485  10.512   9.079  12.158 -0.2183 -0.4748  1.5669
19216SOL    HW263486  10.614   9.174  12.099 -1.3355 -1.1002 -1.5851
19217SOL     OW63487   5.848   1.389  11.696  0.2679 -0.1063 -0.3245
19217SOL    HW163488   5.862   1.458  11.760  1.1340 -0.5400 -0.0300
19217SOL    HW263489   5.784   1.331  11.736  0.8943 -0.4386  0.2046
19218SOL     OW63490   2.446  11.831  11.083 -0.6796  0.1652  0.3544
19218SOL    HW163491   2.515  11.874  11.033 -1.2029 -0.7515 -1.2100
19218SOL    HW263492   2.418  11.758  11.029 -0.1411 -1.9404  2.7161
19219SOL     OW63493   6.117   6.734  11.952 -0.2798  0.0045  0.0426
19219SOL    HW163494   6.034   6.687  11.952  0.5182 -1.5037  1.7705
19219SOL    HW263495   6.156   6.714  11.867 -1.8435  1.1095 -0.9776
19220SOL     OW63496   8.264   0.821   3.040  0.1643 -0.0022  0.1964
19220SOL    HW163497   8.323   0.763   3.088 -0.0865  0.1448  0.6909
19220SOL    HW263498   8.320   0.866   2.977  0.7242  0.6615  1.1390
19221SOL     OW63499  11.571  10.720   3.565 -0.2540 -0.1389 -0.2594
19221SOL    HW163500  11.515  10.753   3.494 -0.7766 -1.4058 -0.4610
19221SOL    HW263501  11.638  10.669   3.521 -0.7175 -1.1321  0.1541
19222SOL     OW63502   1.908   1.931   4.928  0.1198 -0.1564 -0.0662
19222SOL    HW163503   2.003   1.940   4.917  0.3173 -2.7638 -1.0507
19222SOL    HW263504   1.899   1.865   4.997 -0.9378 -0.9384 -0.9306
19223SOL     OW63505   2.717   1.826   8.361  0.0360 -0.2695  0.0455
19223SOL    HW163506   2.650   1.817   8.429  2.5773 -3.9040  2.4401
19223SOL    HW263507   2.711   1.746   8.310  1.5886  0.0001 -0.6336
19224SOL     OW63508   0.567   8.176   2.721 -0.6183 -0.0103  0.4481
19224SOL    HW163509   0.499   8.130   2.671 -0.8806  0.7265  0.1112
19224SOL    HW263510   0.635   8.110   2.734  0.5960  0.3350 -3.0247
19225SOL     OW63511   7.146  12.091   4.027 -0.0866 -0.5873  0.0030
19225SOL    HW163512   7.198  12.012   4.044  0.3049 -0.2467  0.4298
19225SOL    HW263513   7.143  12.097   3.931  1.8220  0.1116 -0.0682
19226SOL     OW63514   7.525   0.904   0.518 -0.2461  0.3980  0.2546
19226SOL    HW163515   7.468   0.961   0.569 -1.7327 -0.5185 -0.3080
19226SOL    HW263516   7.481   0.896   0.433  1.5253  0.8727 -0.7394
19227SOL     OW63517   9.071   9.250   5.176 -0.3687  0.6296  0.3592
19227SOL    HW163518   9.020   9.170   5.194  0.1750  0.6930  2.4064
19227SOL    HW263519   9.060   9.303   5.254  0.6044  1.8748 -0.3209
19228SOL     OW63520   7.655   8.768  11.302  0.1310  0.3436  0.2511
19228SOL    HW163521   7.645   8.863  11.305  1.1299  0.4402  0.6738
19228SOL    HW263522   7.594   8.736  11.369  1.0773  0.8094  1.3727
19229SOL     OW63523   4.415   8.783   7.190 -0.1009  0.4664  0.3898
19229SOL    HW163524   4.427   8.807   7.282 -1.2685 -1.3777  1.0712
19229SOL    HW263525   4.486   8.720   7.173 -1.1534 -0.8462  0.7064
19230SOL     OW63526   2.078   8.484   2.941  0.0333 -0.0704 -0.1164
19230SOL    HW163527   2.066   8.577   2.924  0.2826  0.2306  1.1888
19230SOL    HW263528   2.137   8.454   2.872 -1.0334  0.4390 -1.2861
19231SOL     OW63529   7.944   2.450   9.496  0.4606  0.6906  0.8374
19231SOL    HW163530   7.925   2.357   9.504 -0.3246  0.6045 -1.2650
19231SOL    HW263531   7.902   2.490   9.571 -0.7581 -0.4653  0.8083
19232SOL     OW63532  11.185   0.788   8.912 -0.2852 -0.0103  0.5619
19232SOL    HW163533  11.200   0.752   8.824 -1.0905  0.9173  0.0247
19232SOL    HW263534  11.270   0.821   8.939  0.0297 -0.5400  0.2509
19233SOL     OW63535   6.490   0.566   3.406  0.0265  0.5910  0.4446
19233SOL    HW163536   6.485   0.609   3.491 -0.7981 -3.2966  2.6121
19233SOL    HW263537   6.544   0.488   3.422 -0.8942 -0.7648 -2.3514
19234SOL     OW63538   5.217  10.804  10.939  0.0196 -0.7101 -0.8053
19234SOL    HW163539   5.134  10.788  10.895 -0.3089  0.2665 -0.5657
19234SOL    HW263540   5.197  10.873  11.003  0.9783 -0.5827 -0.6358
19235SOL     OW63541   8.187  11.489  10.130  0.2079 -0.8266  0.4767
19235SOL    HW163542   8.232  11.555  10.182 -0.6828 -0.4059  0.7400
19235SOL    HW263543   8.134  11.539  10.068  0.2954 -1.3091  0.0071
19236SOL     OW63544   8.328   9.739  10.736 -0.3496 -0.2282  0.2180
19236SOL    HW163545   8.392   9.806  10.759 -0.5573 -0.2198  0.7821
19236SOL    HW263546   8.379   9.672  10.690 -0.3580  0.8742 -1.4427
19237SOL     OW63547   5.140   6.190  10.430 -0.1009  0.1138 -0.1778
19237SOL    HW163548   5.076   6.261  10.434  0.3112  0.4530  0.7215
19237SOL    HW263549   5.120   6.135  10.505  0.3813 -0.0290 -0.1498
19238SOL     OW63550   7.055   2.792   9.374  0.3955  0.1547  0.2102
19238SOL    HW163551   7.095   2.705   9.373  0.4813  0.0978 -3.1921
19238SOL    HW263552   7.129   2.853   9.380  0.6328 -0.0288 -0.6205
19239SOL     OW63553  10.556  10.419   9.712 -0.2263 -0.8194  0.1182
19239SOL    HW163554  10.595  10.466   9.786 -1.9526  0.7266  0.1094
19239SOL    HW263555  10.471  10.389   9.745 -0.5974 -0.9608 -0.9401
19240SOL     OW63556   4.323   9.856   9.337 -0.0135 -0.5117 -0.2708
19240SOL    HW163557   4.299   9.795   9.268 -0.8197 -0.8246  0.2595
19240SOL    HW263558   4.241   9.871   9.385  0.6983 -1.0604  1.1945
19241SOL     OW63559   8.903   6.916  12.048  0.6653 -0.6174 -0.4706
19241SOL    HW163560   8.840   6.971  12.094  0.5228 -1.1969  0.0374
19241SOL    HW263561   8.985   6.929  12.095  0.9840  0.2531 -1.2224
19242SOL     OW63562   5.696   9.911  10.117 -1.2227 -0.3949 -0.1276
19242SOL    HW163563   5.676   9.998  10.151 -0.1106  0.1694 -0.8510
19242SOL    HW263564   5.648   9.851  10.174 -2.9121  0.7350 -0.2951
19243SOL     OW63565   1.355   1.806   3.720 -0.2355  0.0742 -0.2491
19243SOL    HW163566   1.383   1.830   3.808  1.1513  0.0851 -0.6538
19243SOL    HW263567   1.437   1.797   3.671 -0.9853  0.3580 -1.6130
19244SOL     OW63568   3.462   3.751   9.854  0.0474  0.4031 -0.1125
19244SOL    HW163569   3.388   3.810   9.865  0.0307  0.1239  1.5090
19244SOL    HW263570   3.436   3.671   9.899  2.1759  1.0878  2.6025
19245SOL     OW63571   1.432   8.631   9.523 -0.1716 -0.2838  0.5412
19245SOL    HW163572   1.413   8.545   9.486  2.2000 -0.9326  0.6934
19245SOL    HW263573   1.347   8.663   9.553 -1.4295 -1.7267 -1.2329
19246SOL     OW63574   7.594   3.634   7.983  0.2153 -0.5895 -0.0428
19246SOL    HW163575   7.641   3.706   7.941  0.8339 -1.7224 -1.3792
19246SOL    HW263576   7.502   3.650   7.960  0.1591  0.5279  0.8745
19247SOL     OW63577  10.936   7.633   6.565 -0.0265  0.3101 -0.0533
19247SOL    HW163578  10.840   7.634   6.569 -0.0147  1.9747  1.3222
19247SOL    HW263579  10.964   7.613   6.655  0.8999  0.6963 -0.2418
19248SOL     OW63580   9.723   7.775   0.818 -0.0704  0.7736  0.3129
19248SOL    HW163581   9.704   7.869   0.825 -0.7223  0.7919 -1.3688
19248SOL    HW263582   9.754   7.751   0.906  0.8717  2.7117  0.5676
19249SOL     OW63583   3.459   3.906   0.939  0.1877 -0.1195 -0.2541
19249SOL    HW163584   3.475   4.000   0.936 -1.2361  0.2135  1.1419
19249SOL    HW263585   3.466   3.877   0.848 -1.4968  1.7529 -1.0573
19250SOL     OW63586   9.640   8.367   7.936  0.1772 -0.4090 -0.2258
19250SOL    HW163587   9.586   8.417   7.997  1.2510  0.7164 -0.1597
19250SOL    HW263588   9.704   8.322   7.991  1.1983  0.6685 -0.5085
19251SOL     OW63589   2.029   9.383   6.994  0.4239 -0.2020 -0.7987
19251SOL    HW163590   2.084   9.433   7.054  3.0188 -1.7123 -1.7487
19251SOL    HW263591   2.041   9.426   6.909 -0.5040 -0.1093 -0.8947
19252SOL     OW63592   7.315   3.911   6.048  0.4640 -0.1281 -0.2696
19252SOL    HW163593   7.350   3.958   5.972  0.4365 -2.5608 -1.9418
19252SOL    HW263594   7.332   3.818   6.027 -1.8552 -1.0469  1.5210
19253SOL     OW63595   9.711   1.802   8.094  0.1960  0.1476 -0.1331
19253SOL    HW163596   9.783   1.859   8.122  0.3187  0.7036 -1.5033
19253SOL    HW263597   9.664   1.853   8.029 -0.8887 -0.5827  0.0515
19254SOL     OW63598   6.750   5.246   0.430 -0.2126  0.1373  0.0354
19254SOL    HW163599   6.726   5.334   0.458 -0.2587  1.2425 -3.0611
19254SOL    HW263600   6.845   5.247   0.423 -0.2289  0.0336 -0.2268
19255SOL     OW63601   3.239   7.433   5.311 -1.1125  0.1281  0.0462
19255SOL    HW163602   3.318   7.397   5.271  0.2263  3.8015 -1.1120
19255SOL    HW263603   3.168   7.405   5.254 -0.2019 -0.7526 -0.6997
19256SOL     OW63604   5.719   0.664   6.979  0.3676 -0.5069 -0.4101
19256SOL    HW163605   5.631   0.695   6.962  0.5788  0.1030 -0.4072
19256SOL    HW263606   5.776   0.728   6.936  0.8367 -0.2703  0.5317
19257SOL     OW63607   0.697  10.835  11.638 -0.2006 -0.2129  0.0448
19257SOL    HW163608   0.691  10.835  11.734 -0.9850 -0.3920  0.0046
19257SOL    HW263609   0.676  10.926  11.614  1.1548  0.1290  0.0925
19258SOL     OW63610   8.098   0.457   2.345  0.2225 -0.1796  0.2056
19258SOL    HW163611   8.045   0.402   2.287 -0.8633  0.8449  0.2013
19258SOL    HW263612   8.179   0.473   2.296  0.2112 -1.0841 -0.1302
19259SOL     OW63613   6.846  10.077   9.980 -1.0009  0.4350  0.0690
19259SOL    HW163614   6.772  10.020   9.961  0.2664 -1.1605 -0.2681
19259SOL    HW263615   6.903  10.070   9.904  0.1848  0.4943  0.9148
19260SOL     OW63616   0.894   3.989   4.939 -0.4946  0.6449  0.2099
19260SOL    HW163617   0.950   4.054   4.896 -0.0932  0.1788  0.0316
19260SOL    HW263618   0.875   3.925   4.870 -0.8551  0.5468  0.3985
19261SOL     OW63619   6.507   6.211   4.729  0.1285 -0.3667  0.2555
19261SOL    HW163620   6.495   6.196   4.823  2.2270  0.7142  0.7441
19261SOL    HW263621   6.418   6.216   4.695 -0.7708  1.2963  2.5407
19262SOL     OW63622   4.447   7.983   5.985  0.1236  0.2997  0.2316
19262SOL    HW163623   4.513   7.916   5.968  0.6367  0.8802 -0.1069
19262SOL    HW263624   4.475   8.025   6.066 -0.2675  0.0273  0.5124
19263SOL     OW63625   5.371   6.892   9.852 -0.1095 -0.2389 -0.3338
19263SOL    HW163626   5.313   6.826   9.815  0.4365 -0.9230  0.0003
19263SOL    HW263627   5.454   6.879   9.805 -0.8535  2.3590 -2.6122
19264SOL     OW63628  12.031  11.937   6.436 -0.6415 -0.4598  0.0242
19264SOL    HW163629  12.048  12.031   6.445 -2.4919 -0.0126 -0.7096
19264SOL    HW263630  12.014  11.908   6.526  3.0295 -0.8507  0.7553
19265SOL     OW63631   3.036   9.267   1.762  0.0328 -0.0239  0.3128
19265SOL    HW163632   2.971   9.305   1.821 -0.4787 -0.6141  0.1487
19265SOL    HW263633   3.096   9.339   1.742 -0.6682  0.5718  0.3324
19266SOL     OW63634   4.792   6.050  12.202  0.1834 -0.0576  0.3235
19266SOL    HW163635   4.707   6.020  12.234 -0.1583  3.1920  3.0577
19266SOL    HW263636   4.855   5.990  12.243 -0.6390 -0.2637  1.3277
19267SOL     OW63637  11.874   7.276   0.867 -0.2995 -0.5057 -0.5931
19267SOL    HW163638  11.913   7.189   0.874 -1.1854 -0.9711 -1.1834
19267SOL    HW263639  11.780   7.260   0.859 -0.5176  0.5287 -0.3091
19268SOL     OW63640   9.115   8.210   2.687 -0.1171  0.5597  0.3328
19268SOL    HW163641   9.165   8.136   2.652 -1.2191 -0.3151  0.5170
19268SOL    HW263642   9.084   8.256   2.609  0.4205  0.7201  0.2119
19269SOL     OW63643   9.263  10.713   2.405 -0.0743  0.3181 -0.4217
19269SOL    HW163644   9.262  10.793   2.456 -1.0636  1.0733 -1.5584
19269SOL    HW263645   9.355  10.686   2.404 -0.1475 -0.4339  2.7039
19270SOL     OW63646   2.106  10.183   9.484  0.2126  0.6350  0.2554
19270SOL    HW163647   2.165  10.110   9.499 -0.8707 -0.5919 -1.1309
19270SOL    HW263648   2.161  10.251   9.446  0.7779 -0.4069 -0.8373
19271SOL     OW63649   9.667   2.454   6.775 -0.3907  0.4362 -0.2080
19271SOL    HW163650   9.679   2.384   6.838  0.8806  1.4583  0.7332
19271SOL    HW263651   9.640   2.410   6.694 -0.6595 -1.0147  0.6488
19272SOL     OW63652   4.513   1.808   7.739 -0.4060  0.0804  0.1880
19272SOL    HW163653   4.467   1.784   7.659 -0.9076  1.3279  0.0807
19272SOL    HW263654   4.553   1.893   7.719  2.6510 -1.2469 -0.0141
19273SOL     OW63655   5.599   1.564   7.155 -0.8123 -0.4853  0.6326
19273SOL    HW163656   5.507   1.542   7.140 -1.2175  1.2964  0.3877
19273SOL    HW263657   5.624   1.618   7.080  0.9652 -2.2883 -0.1916
19274SOL     OW63658  10.719  11.682   8.971  0.5412  0.3033  0.0808
19274SOL    HW163659  10.782  11.610   8.967  1.6421  1.2689 -1.6239
19274SOL    HW263660  10.773  11.760   8.959 -0.8439  1.2538 -0.0950
19275SOL     OW63661   4.403   5.127   6.866 -0.0080 -0.0081 -0.1157
19275SOL    HW163662   4.373   5.199   6.922  0.5673  0.6067 -0.5744
19275SOL    HW263663   4.335   5.119   6.799  0.7096  1.2562 -1.0449
19276SOL     OW63664   7.839   0.163   5.405 -0.3880  0.4400  0.1380
19276SOL    HW163665   7.790   0.140   5.326  1.0408 -0.0024 -0.6482
19276SOL    HW263666   7.849   0.258   5.400 -0.6647  0.4649  0.0109
19277SOL     OW63667   8.768   8.170  11.694  0.2927  0.1859 -0.1388
19277SOL    HW163668   8.765   8.143  11.602 -0.8526 -0.6898  0.1342
19277SOL    HW263669   8.678   8.194  11.714  0.2147 -1.0731  1.1615
19278SOL     OW63670   8.945   0.544   2.400  0.3222  0.0502 -0.6208
19278SOL    HW163671   9.010   0.585   2.343  1.3883 -0.4555  0.1911
19278SOL    HW263672   8.899   0.481   2.344  1.4103 -0.5035 -0.9145
19279SOL     OW63673   9.136   3.303   7.388 -0.1943 -0.3404 -0.2226
19279SOL    HW163674   9.116   3.220   7.345  0.6090 -0.8169  0.2917
19279SOL    HW263675   9.140   3.281   7.481  0.8878  0.0894 -0.1564
19280SOL     OW63676   1.810   3.152   5.069  0.3388  0.1785  0.4149
19280SOL    HW163677   1.828   3.174   4.977  2.5053 -0.0232  0.7323
19280SOL    HW263678   1.718   3.174   5.081  0.0898  0.5665 -1.6993
19281SOL     OW63679   1.619   7.154   2.756  0.4808 -0.1651  0.0825
19281SOL    HW163680   1.588   7.225   2.811  0.9523  0.0599  0.0560
19281SOL    HW263681   1.645   7.085   2.817 -2.6558 -1.5147  0.1192
19282SOL     OW63682   8.166   3.518   6.815 -0.5217  0.4408  0.4541
19282SOL    HW163683   8.136   3.596   6.861 -1.1551  1.0883 -1.0060
19282SOL    HW263684   8.248   3.544   6.774 -0.2383  0.0383  0.7607
19283SOL     OW63685   4.451  10.428  11.781 -0.2515 -0.1294 -0.3775
19283SOL    HW163686   4.387  10.413  11.711 -0.1009 -0.9132 -0.3548
19283SOL    HW263687   4.534  10.396  11.744  0.4357  2.0703 -0.9187
19284SOL     OW63688   1.007  12.050   6.047  0.0726  0.1263  0.3750
19284SOL    HW163689   0.983  12.019   6.135 -1.9882  0.2691 -0.0932
19284SOL    HW263690   0.981  11.978   5.989 -0.0426  0.6872 -0.2700
19285SOL     OW63691  10.085  12.331   4.806  0.3498  0.1687  0.5137
19285SOL    HW163692  10.152  12.263   4.797  0.1728  0.0315  0.2249
19285SOL    HW263693  10.018  12.292   4.862 -0.9751 -0.8617 -1.6310
19286SOL     OW63694   6.147   0.285   6.740  0.0364 -0.6686  0.1070
19286SOL    HW163695   6.146   0.359   6.680 -0.1577  0.4280  1.3922
19286SOL    HW263696   6.078   0.227   6.709  1.1215 -1.0380 -1.7500
19287SOL     OW63697   6.282   2.246   8.700  0.1574  0.6517  0.2210
19287SOL    HW163698   6.371   2.238   8.734  0.2265 -0.1989 -0.1271
19287SOL    HW263699   6.277   2.180   8.630 -0.8632  0.4261  0.4886
19288SOL     OW63700   6.757   8.925   8.382 -0.2322 -0.4292 -0.0667
19288SOL    HW163701   6.668   8.922   8.345  0.0038 -1.0422 -0.6029
19288SOL    HW263702   6.757   9.003   8.437 -1.3447 -0.8542  0.5662
19289SOL     OW63703   3.536   4.438   0.620 -0.4837 -0.2154  0.5147
19289SOL    HW163704   3.530   4.529   0.589 -1.6769 -0.3457  0.3407
19289SOL    HW263705   3.546   4.445   0.715  1.7628  0.1422  0.3196
19290SOL     OW63706  10.911   4.123   1.276 -0.2006  0.3218  0.2523
19290SOL    HW163707  10.823   4.096   1.301  0.3110 -0.4884  1.2615
19290SOL    HW263708  10.907   4.132   1.181 -0.6664 -2.5693 -0.1103
19291SOL     OW63709   0.292  10.905   8.944  0.1353 -0.0343  0.0318
19291SOL    HW163710   0.254  10.936   8.861  1.2364 -1.4641 -1.0544
19291SOL    HW263711   0.222  10.856   8.986 -0.8986  1.8815  0.6936
19292SOL     OW63712   4.518   2.977  12.244  0.6169 -0.1322 -0.1094
19292SOL    HW163713   4.589   2.913  12.249 -0.5214 -1.3932  0.3190
19292SOL    HW263714   4.554   3.055  12.287  1.3541 -1.1205  1.1336
19293SOL     OW63715   3.821   1.748   9.014 -0.0647  0.6923  0.6305
19293SOL    HW163716   3.896   1.801   8.987 -1.6327  3.1404  0.6411
19293SOL    HW263717   3.798   1.698   8.936 -0.6696  2.8459 -0.6652
19294SOL     OW63718   1.720  11.515   3.914  0.5640  0.1077  0.2086
19294SOL    HW163719   1.645  11.552   3.961 -0.7586 -1.0895 -0.8646
19294SOL    HW263720   1.772  11.590   3.888 -0.7925  1.0518  0.1213
19295SOL     OW63721   2.469   2.442   8.915  0.5427  0.1231 -0.2351
19295SOL    HW163722   2.497   2.478   8.831 -0.3335  1.3268 -0.0359
19295SOL    HW263723   2.376   2.423   8.903  0.5264 -0.1570  0.3154
19296SOL     OW63724   2.191  10.249   4.755  0.0907 -0.5204 -0.1416
19296SOL    HW163725   2.226  10.163   4.778 -0.2438 -0.2229  1.5870
19296SOL    HW263726   2.217  10.306   4.827 -1.7789  0.2702 -0.0395
19297SOL     OW63727   7.413   9.404   6.709  0.8646  0.6272 -0.5834
19297SOL    HW163728   7.436   9.347   6.636 -0.9060 -0.8804 -0.0506
19297SOL    HW263729   7.486   9.395   6.770  0.6729 -1.0704 -0.5464
19298SOL     OW63730  11.632  10.106   4.178  0.1837  0.1872  0.4719
19298SOL    HW163731  11.626  10.199   4.202 -2.1298  0.1626  0.2284
19298SOL    HW263732  11.669  10.064   4.256  2.5928  1.4267  0.1022
19299SOL     OW63733   4.242   7.443   9.567 -0.1927 -0.3261  0.0327
19299SOL    HW163734   4.163   7.488   9.598 -0.4584 -0.5443 -0.3182
19299SOL    HW263735   4.265   7.489   9.486 -0.1631 -0.4851 -0.0494
19300SOL     OW63736   1.994   2.337   2.327 -0.1167 -0.1293  0.2788
19300SOL    HW163737   1.960   2.421   2.358  1.5813  0.5239  0.4536
19300SOL    HW263738   2.054   2.361   2.256 -0.0916 -1.2460 -0.0843
19301SOL     OW63739  12.114   2.504  12.106 -0.1723 -0.4953 -0.5568
19301SOL    HW163740  12.136   2.507  12.199  1.7427  0.4269 -1.0042
19301SOL    HW263741  12.198   2.495  12.062 -0.8484  1.0934 -2.2928
19302SOL     OW63742   5.357   6.281   0.282 -0.3309  0.2966  0.4391
19302SOL    HW163743   5.332   6.308   0.193  1.2036 -0.6371 -0.3318
19302SOL    HW263744   5.284   6.227   0.312 -0.8632  0.6095 -0.2663
19303SOL     OW63745   8.494  12.262   2.407 -0.1726  0.0386  0.0436
19303SOL    HW163746   8.435  12.208   2.356  0.1148 -0.8037  0.5784
19303SOL    HW263747   8.469  12.352   2.387 -0.7813 -0.2971 -0.7142
19304SOL     OW63748   6.830   6.366   0.311 -0.9146 -0.0606  0.0863
19304SOL    HW163749   6.749   6.386   0.265 -2.3872 -2.1645  1.5860
19304SOL    HW263750   6.894   6.348   0.242 -1.5611  2.0320 -1.1272
19305SOL     OW63751  11.527   6.178   7.246  0.1754  0.1372 -0.6141
19305SOL    HW163752  11.534   6.083   7.233 -1.7694 -0.0155 -0.7715
19305SOL    HW263753  11.498   6.188   7.336  0.2122  0.5783 -0.6502
19306SOL     OW63754   0.554  10.265   1.080  0.5693 -0.0937  0.0707
19306SOL    HW163755   0.479  10.291   1.134  0.3878 -0.5911  0.0619
19306SOL    HW263756   0.619  10.234   1.143  0.5761 -0.1382  0.0415
19307SOL     OW63757   5.238   8.363   5.902  0.0572  0.7391  0.0529
19307SOL    HW163758   5.158   8.321   5.870 -0.4034  0.9432  0.9234
19307SOL    HW263759   5.208   8.424   5.969  1.1802 -1.2433  2.4851
19308SOL     OW63760   1.131   5.056  11.726 -0.0730  0.2211 -0.5643
19308SOL    HW163761   1.056   5.007  11.761  0.7953 -0.0012  1.0705
19308SOL    HW263762   1.092   5.134  11.687 -1.1894 -0.0755 -0.0928
19309SOL     OW63763   9.421   0.669   0.417 -0.4927  0.1192 -0.2390
19309SOL    HW163764   9.364   0.598   0.388  1.9852 -1.6910 -1.0462
19309SOL    HW263765   9.393   0.744   0.365 -4.1081  0.2563  1.6187
19310SOL     OW63766  12.171   5.117   1.801 -0.3989 -0.3282 -0.5164
19310SOL    HW163767  12.082   5.081   1.801 -0.2910 -0.6276 -1.2577
19310SOL    HW263768  12.228   5.040   1.806 -0.1744 -0.2758 -1.7511
19311SOL     OW63769   9.069   7.008   2.020 -0.4004  0.1647 -0.1261
19311SOL    HW163770   9.146   7.063   2.030  0.4814 -0.9711 -0.4420
19311SOL    HW263771   9.098   6.936   1.964 -1.4901 -0.6626  0.3366
19312SOL     OW63772   9.763   4.246   2.012  0.3481  0.2400  0.3478
19312SOL    HW163773   9.728   4.254   2.100 -2.6418 -0.0302 -0.7060
19312SOL    HW263774   9.813   4.164   2.012  1.5067  0.8937  2.0605
19313SOL     OW63775   3.146   8.448   1.889  0.0669  0.3546 -0.6210
19313SOL    HW163776   3.089   8.432   1.814 -0.0246  1.0628 -0.7075
19313SOL    HW263777   3.113   8.389   1.957  0.9885 -1.2965 -1.5379
19314SOL     OW63778   3.115   1.459   6.876  0.8207 -0.0817 -0.1131
19314SOL    HW163779   3.203   1.452   6.840  0.8828  0.6903 -0.1272
19314SOL    HW263780   3.059   1.417   6.811  1.3877 -2.5429  0.8721
19315SOL     OW63781   2.944   1.366   6.660 -0.0114 -0.3534 -0.1759
19315SOL    HW163782   2.851   1.359   6.682  0.0083  1.0974  0.4699
19315SOL    HW263783   2.953   1.318   6.578 -1.6268  0.6782 -1.0004
19316SOL     OW63784   0.588   5.844   1.630 -0.8385  0.0274 -0.4496
19316SOL    HW163785   0.557   5.932   1.651 -2.6337 -0.5484 -0.4849
19316SOL    HW263786   0.681   5.855   1.610 -1.5985  2.4262 -3.4858
19317SOL     OW63787   4.712  10.634   9.001  0.3588  0.0501 -0.8609
19317SOL    HW163788   4.757  10.639   8.917 -0.2338  0.4084 -1.1680
19317SOL    HW263789   4.646  10.565   8.989 -0.7920  1.1788 -1.2290
19318SOL     OW63790   6.746   9.281   3.494  0.5152  0.2487 -0.5976
19318SOL    HW163791   6.750   9.229   3.414  0.5554  0.4482 -0.7251
19318SOL    HW263792   6.695   9.359   3.470 -0.2959 -0.1367 -0.1787
19319SOL     OW63793   7.819  10.829   4.699 -0.4288 -0.3596  0.4967
19319SOL    HW163794   7.750  10.785   4.650 -0.9470  0.9084  0.0244
19319SOL    HW263795   7.897  10.820   4.643 -1.0468  1.2005 -0.7196
19320SOL     OW63796   0.814   8.105   4.545 -0.1808 -0.1644 -0.5045
19320SOL    HW163797   0.905   8.100   4.518 -0.4531 -2.5129 -1.2571
19320SOL    HW263798   0.766   8.128   4.465 -0.2233  2.2324  0.1243
19321SOL     OW63799   7.250   9.949   4.504 -0.6220 -0.3676 -0.0825
19321SOL    HW163800   7.239  10.030   4.456  1.6741  0.5939  0.8453
19321SOL    HW263801   7.218   9.968   4.592  0.6684 -0.1537  0.3656
19322SOL     OW63802   4.834   8.875  10.720  0.0528  0.3298  0.2736
19322SOL    HW163803   4.753   8.837  10.688  0.9571 -0.2872 -1.4016
19322SOL    HW263804   4.876   8.912  10.642  1.0805  1.2085  1.2101
19323SOL     OW63805   9.861   6.998   3.379  0.0476  0.2339 -0.0756
19323SOL    HW163806   9.898   6.924   3.427 -0.6211 -0.0167  0.0570
19323SOL    HW263807   9.839   7.062   3.447 -1.7893 -0.5051  0.0785
19324SOL     OW63808   1.148   6.724   8.880  0.1627 -0.0128  0.5187
19324SOL    HW163809   1.180   6.751   8.794  0.2360 -0.3112  0.4513
19324SOL    HW263810   1.070   6.671   8.861 -0.9456  1.4700  0.7133
19325SOL     OW63811   2.700   6.342   2.089 -0.1142  0.1352 -0.5706
19325SOL    HW163812   2.619   6.321   2.042 -1.0181  1.6393  0.2374
19325SOL    HW263813   2.674   6.350   2.181  1.2094 -0.5738 -0.1003
19326SOL     OW63814   7.422   9.410   0.412  0.7489 -0.1183  0.4018
19326SOL    HW163815   7.394   9.472   0.479  1.4934  2.7544 -1.7335
19326SOL    HW263816   7.342   9.387   0.365  0.7068  0.6603  0.0918
19327SOL     OW63817   5.806   7.957  11.893 -1.0356 -0.0902 -0.0036
19327SOL    HW163818   5.846   7.910  11.820 -0.4542  0.4386 -0.0374
19327SOL    HW263819   5.831   7.906  11.970  0.3064  0.5926  0.0457
19328SOL     OW63820   5.548  11.652   0.755 -0.1974  0.4210  0.4909
19328SOL    HW163821   5.521  11.664   0.664  0.2651  0.6822  0.3840
19328SOL    HW263822   5.565  11.558   0.763 -1.3332  0.2055  0.6233
19329SOL     OW63823   4.816  11.801   3.303  0.8023 -0.0817  0.3899
19329SOL    HW163824   4.842  11.890   3.327  0.1734  0.1644  0.1841
19329SOL    HW263825   4.737  11.812   3.250  1.9380 -0.6342 -1.5151
19330SOL     OW63826   3.355   8.588   9.214  0.6562 -1.0787  0.4452
19330SOL    HW163827   3.364   8.648   9.288  3.3909  1.4066 -1.6665
19330SOL    HW263828   3.416   8.516   9.234  1.5913 -0.2834  0.5424
19331SOL     OW63829   7.084   7.155   5.639 -0.7907 -0.3320 -0.1051
19331SOL    HW163830   7.032   7.099   5.581 -1.3747  0.4529 -0.3566
19331SOL    HW263831   7.100   7.101   5.716 -0.3918 -1.2316 -0.7971
19332SOL     OW63832   7.042   3.769   0.671  0.0114  0.2550 -0.2558
19332SOL    HW163833   7.018   3.860   0.652 -0.7313  0.1142 -0.0166
19332SOL    HW263834   6.962   3.719   0.656  0.1286 -0.2211  0.6449
19333SOL     OW63835   2.431   9.816   6.708 -0.0202 -0.0999  0.3478
19333SOL    HW163836   2.391   9.747   6.762 -0.7061  0.1201  0.1281
19333SOL    HW263837   2.433   9.779   6.620 -0.8915  0.3692  0.1297
19334SOL     OW63838   2.265   5.464  11.090  0.0413  0.3919  0.3790
19334SOL    HW163839   2.254   5.542  11.035  1.6191 -0.0772 -0.6715
19334SOL    HW263840   2.209   5.398  11.050  1.5030 -0.0771 -1.0204
19335SOL     OW63841   4.669   4.619   5.377  0.2782 -0.2496  0.1485
19335SOL    HW163842   4.661   4.673   5.297  2.5228  1.3435  0.9020
19335SOL    HW263843   4.587   4.634   5.423  0.0262  0.9579 -0.6250
19336SOL     OW63844   1.223   1.274   0.983  0.8723 -0.2952  0.0474
19336SOL    HW163845   1.248   1.230   1.064  0.1615 -0.4025  0.2085
19336SOL    HW263846   1.185   1.204   0.929 -0.5437  0.1619  0.4214
19337SOL     OW63847   2.401   8.138   1.327  0.1470  0.0467 -1.3304
19337SOL    HW163848   2.433   8.049   1.313  0.1765 -0.3701  1.0088
19337SOL    HW263849   2.469   8.194   1.292  2.6699 -0.8374  1.6839
19338SOL     OW63850   1.651  11.731   9.468  0.2191  0.1106 -0.0999
19338SOL    HW163851   1.693  11.673   9.405  1.5248  0.9330 -0.0280
19338SOL    HW263852   1.558  11.709   9.463  0.6879 -2.0909  0.0653
19339SOL     OW63853   9.533   3.040   0.974 -0.1612 -0.0389  0.3075
19339SOL    HW163854   9.480   2.964   0.950 -0.1555 -0.0485  0.3254
19339SOL    HW263855   9.570   3.070   0.891 -0.2354 -0.0022  0.2875
19340SOL     OW63856   5.851   9.907   3.766  0.0364 -0.4341  0.0252
19340SOL    HW163857   5.892   9.936   3.684 -0.4301 -0.6196 -0.2813
19340SOL    HW263858   5.790   9.976   3.788  0.0224 -0.4748  0.1118
19341SOL     OW63859   8.277   9.660   6.891 -0.0055 -0.0159 -0.7553
19341SOL    HW163860   8.361   9.681   6.851  0.8390 -2.4148 -0.4331
19341SOL    HW263861   8.278   9.705   6.976  0.4508  0.8698 -1.2259
19342SOL     OW63862   8.791   6.410   3.670 -0.6178  0.0559 -0.0770
19342SOL    HW163863   8.711   6.383   3.625  0.1262 -4.4392  0.8935
19342SOL    HW263864   8.790   6.364   3.754  2.3691  0.9080  0.5821
19343SOL     OW63865   6.840   6.122   6.036  0.7203 -0.0138 -0.1865
19343SOL    HW163866   6.889   6.143   6.116 -0.2146 -0.5066  0.5306
19343SOL    HW263867   6.871   6.187   5.972  2.0816 -0.1213  0.3238
19344SOL     OW63868   0.974   2.094   2.760  0.2093  0.3338 -0.0589
19344SOL    HW163869   1.029   2.173   2.762  0.4823  0.1796 -1.0476
19344SOL    HW263870   1.022   2.033   2.704 -0.4876 -0.1788 -0.1049
19345SOL     OW63871   1.960   9.867   7.973 -0.0568 -0.5904  0.3983
19345SOL    HW163872   2.048   9.892   7.946 -0.9540  2.3404 -0.0644
19345SOL    HW263873   1.907   9.946   7.964 -2.4360 -1.8301  2.1402
19346SOL     OW63874  10.758   2.533   7.081  0.0622 -0.2640 -0.3848
19346SOL    HW163875  10.772   2.584   7.161 -0.9084  0.4560 -0.6481
19346SOL    HW263876  10.702   2.589   7.027  0.1720 -1.0138 -1.3025
19347SOL     OW63877   5.876   4.842   3.755  0.3521 -0.1814  0.0058
19347SOL    HW163878   5.904   4.811   3.669  0.4940 -0.4629  0.1544
19347SOL    HW263879   5.950   4.825   3.812 -0.0727 -0.8113  0.3712
19348SOL     OW63880   1.467   3.400   7.011 -0.3156  0.9075  0.3030
19348SOL    HW163881   1.439   3.410   6.920  0.9283  2.0717  0.0191
19348SOL    HW263882   1.531   3.329   7.008 -0.7970  0.4600  0.4073
19349SOL     OW63883   9.066   1.461   7.584  0.0641  0.4502  0.4300
19349SOL    HW163884   9.087   1.551   7.560  0.5583 -0.1306 -1.4612
19349SOL    HW263885   9.148   1.426   7.619  0.6560 -0.0282 -1.3446
19350SOL     OW63886   5.764   5.930   6.632  0.2732 -0.2585  0.0847
19350SOL    HW163887   5.771   5.916   6.538  0.9698  1.3990 -0.1460
19350SOL    HW263888   5.739   6.022   6.641 -3.2201 -1.1723  1.4623
19351SOL     OW63889   9.078  10.652   6.129  0.0029 -0.3000 -0.5084
19351SOL    HW163890   9.031  10.735   6.125 -1.5510 -1.1679 -2.6337
19351SOL    HW263891   9.023  10.597   6.185 -0.6763 -0.7980 -1.6250
19352SOL     OW63892   8.295   4.121   4.104 -0.1256 -0.3911 -0.3203
19352SOL    HW163893   8.207   4.094   4.077 -0.6549  2.6014 -2.0749
19352SOL    HW263894   8.354   4.066   4.052 -0.9718 -1.2810 -0.3638
19353SOL     OW63895   3.116   4.749   7.887 -0.4591 -0.4831 -0.3853
19353SOL    HW163896   3.126   4.692   7.964 -0.7580 -2.0463 -1.4547
19353SOL    HW263897   3.142   4.836   7.918 -0.1435 -1.1543  1.3585
19354SOL     OW63898   0.907  10.150   5.398 -0.4785 -0.0718  0.5547
19354SOL    HW163899   0.905  10.057   5.377 -1.4781 -0.0930  0.7105
19354SOL    HW263900   0.972  10.158   5.468  0.2943 -0.5071 -0.0980
19355SOL     OW63901  10.225   5.281   2.019 -0.2184  0.1281 -0.7619
19355SOL    HW163902  10.192   5.298   2.107 -0.1949 -0.8052 -0.5659
19355SOL    HW263903  10.158   5.317   1.960 -0.8160 -0.3250 -0.3637
19356SOL     OW63904   2.623  10.352   4.195  0.0650 -0.2255  0.5241
19356SOL    HW163905   2.716  10.361   4.173  0.3234  0.1794  1.6556
19356SOL    HW263906   2.583  10.312   4.118  0.9346  0.8248 -0.5108
19357SOL     OW63907   9.242   6.900   4.348 -0.1329  0.2705  0.0532
19357SOL    HW163908   9.220   6.891   4.255  0.5760 -0.2599 -0.0714
19357SOL    HW263909   9.338   6.906   4.349 -0.1016 -0.2653  0.7899
19358SOL     OW63910   5.634   0.563   0.671  0.3826 -0.4853  0.3113
19358SOL    HW163911   5.593   0.638   0.627  0.8276 -0.3882  0.0609
19358SOL    HW263912   5.717   0.550   0.625 -0.0268 -1.6067 -0.1549
19359SOL     OW63913   2.505   3.951   2.627 -0.5098 -0.2693  0.3426
19359SOL    HW163914   2.576   3.891   2.603 -0.4765 -0.3268  0.5751
19359SOL    HW263915   2.506   3.951   2.723 -0.8652 -0.3167  0.3454
19360SOL     OW63916  11.976   3.898  11.881  0.1322  0.3067  0.4266
19360SOL    HW163917  11.906   3.923  11.941 -0.0289  1.6359 -0.2890
19360SOL    HW263918  11.931   3.860  11.806 -0.0355  2.9273 -0.9127
19361SOL     OW63919   3.628   5.244   5.336 -0.5496 -0.2694  0.0937
19361SOL    HW163920   3.719   5.268   5.320 -0.6436 -0.5431 -0.9198
19361SOL    HW263921   3.590   5.234   5.248 -1.9639  1.3419  0.4712
19362SOL     OW63922   0.263   4.945   7.556 -0.3327  0.1199 -0.0174
19362SOL    HW163923   0.188   4.982   7.602  0.7594  1.4151  0.7735
19362SOL    HW263924   0.317   5.020   7.532  0.8558 -0.7927 -0.3198
19363SOL     OW63925   6.697   2.686  10.329 -0.2421 -0.3918  0.3381
19363SOL    HW163926   6.673   2.736  10.407 -0.9752  1.8561 -1.2222
19363SOL    HW263927   6.666   2.740  10.256  3.5270 -0.5892 -1.6493
19364SOL     OW63928   5.927   9.109  12.209 -0.2794 -0.8978  0.0981
19364SOL    HW163929   5.897   9.127  12.298 -2.3968 -0.1773 -0.7155
19364SOL    HW263930   5.862   9.050  12.172  0.8366 -1.5993 -0.8456
19365SOL     OW63931   4.588   7.927   1.371  0.0116 -0.1717 -0.1656
19365SOL    HW163932   4.660   7.986   1.394  0.9885 -1.5751  0.5398
19365SOL    HW263933   4.632   7.851   1.332 -1.0526 -1.1977  0.5794
19366SOL     OW63934  10.599   4.353  10.831 -0.0583  0.4515 -0.4592
19366SOL    HW163935  10.580   4.446  10.821 -3.1091  0.1877  1.6152
19366SOL    HW263936  10.602   4.339  10.926  0.4471 -1.5748 -0.7197
19367SOL     OW63937   7.424   7.121   8.976 -0.1363  0.1856 -0.2948
19367SOL    HW163938   7.487   7.185   8.943 -0.1256  0.3239 -0.0095
19367SOL    HW263939   7.475   7.062   9.031 -0.2912  0.4281  0.1139
19368SOL     OW63940  11.222   5.456   5.801 -0.8405 -0.2866  0.8933
19368SOL    HW163941  11.194   5.486   5.715  1.0811  1.1130  0.6953
19368SOL    HW263942  11.225   5.361   5.794  1.0778 -0.1275 -1.2129
19369SOL     OW63943   9.619   5.930   1.861  0.0559 -0.4913 -0.3424
19369SOL    HW163944   9.621   5.836   1.842 -0.8728 -0.3618 -1.1802
19369SOL    HW263945   9.547   5.963   1.808  1.1779  0.9197 -1.0662
19370SOL     OW63946   9.327   3.688   1.846 -0.3400  0.9282  0.4102
19370SOL    HW163947   9.282   3.677   1.762 -0.6460 -0.3841  0.7338
19370SOL    HW263948   9.406   3.634   1.838  0.4744  2.0772  0.3853
19371SOL     OW63949   5.756   7.435   5.743 -0.3055 -0.2986 -0.0878
19371SOL    HW163950   5.729   7.394   5.824 -1.4463  1.2379  0.3625
19371SOL    HW263951   5.833   7.487   5.767 -1.0058  0.6385  0.1708
19372SOL     OW63952   7.608   3.526   4.650  0.0689  0.1639  0.3849
19372SOL    HW163953   7.627   3.494   4.739  1.7458 -3.4845 -1.0661
19372SOL    HW263954   7.547   3.461   4.615 -1.4375  2.1613 -0.8429
19373SOL     OW63955   3.746   5.505   7.066  0.6493  0.0190 -0.0388
19373SOL    HW163956   3.734   5.435   7.001  0.0272  0.1445 -0.0653
19373SOL    HW263957   3.733   5.462   7.150  0.4461  0.0681 -0.0457
19374SOL     OW63958   3.995   5.407   7.270  0.1624  0.4937 -0.0518
19374SOL    HW163959   4.044   5.478   7.228 -0.6285  0.6549 -0.7372
19374SOL    HW263960   4.010   5.331   7.213 -0.3692  0.5435 -0.2641
19375SOL     OW63961   1.231   4.507   3.496  0.3540 -0.1555 -0.4276
19375SOL    HW163962   1.282   4.580   3.460 -0.6905  1.5519  1.3398
19375SOL    HW263963   1.143   4.520   3.460 -0.2335  0.4536  1.1790
19376SOL     OW63964  12.302   7.296   4.748  0.5227  0.0331 -0.3260
19376SOL    HW163965  12.360   7.366   4.777  2.5436  0.0315 -3.8242
19376SOL    HW263966  12.352   7.215   4.762  0.2593 -0.2377 -0.9029
19377SOL     OW63967   4.009   6.050  10.806  0.3547  0.3082  0.2154
19377SOL    HW163968   4.064   6.028  10.881  0.3384 -1.1573 -0.1613
19377SOL    HW263969   3.923   6.069  10.844  0.6327  0.7113  0.6511
19378SOL     OW63970  11.658   0.384   0.170  0.2665  0.7921  0.2421
19378SOL    HW163971  11.586   0.441   0.196 -0.3149  0.5988 -0.8687
19378SOL    HW263972  11.683   0.338   0.250 -3.1458 -1.7320  0.1094
19379SOL     OW63973   8.808   8.047  10.770  0.0501  0.4107  0.0094
19379SOL    HW163974   8.897   8.034  10.738 -0.0761  0.2964 -0.2999
19379SOL    HW263975   8.756   7.982  10.722 -0.0685 -0.0767  0.7856
19380SOL     OW63976   4.826   3.806   0.978  0.6290 -0.1362 -0.5947
19380SOL    HW163977   4.846   3.898   0.960  0.8780  0.0441  0.4903
19380SOL    HW263978   4.881   3.784   1.053 -0.6694 -0.6600  0.2484
19381SOL     OW63979   8.660   9.883   5.720  0.4298  0.3258  0.0372
19381SOL    HW163980   8.684   9.966   5.761  0.3620  0.1800  0.3763
19381SOL    HW263981   8.670   9.818   5.789 -0.2391  0.1563 -0.0190
19382SOL     OW63982   5.751  10.110   9.693 -0.0399 -0.5470 -0.0567
19382SOL    HW163983   5.749  10.025   9.738 -0.8923  0.1448  1.2868
19382SOL    HW263984   5.772  10.173   9.762 -2.2419  0.6663 -0.4112
19383SOL     OW63985   7.530   4.246   8.544 -0.3011  0.0385 -0.2510
19383SOL    HW163986   7.562   4.264   8.633 -1.1627  2.1371 -0.3014
19383SOL    HW263987   7.603   4.201   8.501  0.6423  0.1981  1.1101
19384SOL     OW63988  10.069  10.160   1.263  0.0657 -0.1099 -0.0303
19384SOL    HW163989  10.051  10.183   1.355 -0.4845  1.1128 -0.4165
19384SOL    HW263990  10.017  10.081   1.248  0.0078 -0.2146  0.6539
19385SOL     OW63991   3.101   1.481   7.149  0.1611  0.1771 -0.2830
19385SOL    HW163992   3.177   1.436   7.185  0.4204 -1.7593 -2.9449
19385SOL    HW263993   3.106   1.464   7.055 -0.9901  4.0026 -1.2096
19386SOL     OW63994  10.199   8.988   2.369  0.0093  0.1933 -0.0101
19386SOL    HW163995  10.238   8.907   2.337  1.4081  0.9818 -0.3983
19386SOL    HW263996  10.149   8.962   2.446  2.3398 -0.7550  1.3001
19387SOL     OW63997   2.559   2.894   7.140 -0.1613  0.1967  0.2647
19387SOL    HW163998   2.488   2.906   7.203 -1.0746 -2.1050 -0.2059
19387SOL    HW263999   2.524   2.831   7.077  1.4896  0.7940 -1.3351
19388SOL     OW64000   4.533  11.281   3.208 -0.3155 -0.9832 -0.1572
19388SOL    HW164001   4.526  11.341   3.133 -0.7512 -0.0958  0.5733
19388SOL    HW264002   4.579  11.332   3.275 -0.1411 -1.6860  0.2702
19389SOL     OW64003   2.521   4.509  12.004 -0.9899 -0.0963  0.3113
19389SOL    HW164004   2.577   4.549  12.071  1.4889 -0.6290 -1.3050
19389SOL    HW264005   2.461   4.453  12.053  0.0839  0.2551  2.1280
19390SOL     OW64006   0.704   7.497   6.443  0.8279 -0.6070 -0.2175
19390SOL    HW164007   0.750   7.571   6.404  0.2497 -0.0321  0.1852
19390SOL    HW264008   0.738   7.493   6.533  0.7739 -0.7650 -0.2037
19391SOL     OW64009  10.734   5.328   0.781  0.2578  0.1920  0.0685
19391SOL    HW164010  10.789   5.406   0.771  0.7019 -0.1776 -0.4222
19391SOL    HW264011  10.663   5.341   0.719 -0.5287  0.9264  1.0871
19392SOL     OW64012   3.109   8.478  11.811 -0.6672  0.3445 -0.0226
19392SOL    HW164013   3.165   8.400  11.806 -0.8834  0.2086 -0.3474
19392SOL    HW264014   3.058   8.476  11.730 -1.1980  0.4232  0.3053
19393SOL     OW64015   9.663  10.845  11.064  0.4956  0.5003 -1.0344
19393SOL    HW164016   9.634  10.904  10.995  1.5826  0.3775 -1.6139
19393SOL    HW264017   9.746  10.882  11.095  0.7322 -0.2237 -0.7821
19394SOL     OW64018   9.200   5.982   8.439  0.4038  0.8150  0.7115
19394SOL    HW164019   9.288   6.016   8.458  0.0281  1.7505  0.8287
19394SOL    HW264020   9.171   6.032   8.363  0.6721 -0.7565 -0.4793
19395SOL     OW64021   3.907  11.121   3.790 -0.6009 -1.0923  0.1416
19395SOL    HW164022   3.872  11.163   3.711  1.2938 -0.1731 -0.2685
19395SOL    HW264023   3.919  11.193   3.852  1.4821 -1.1777 -0.1065
19396SOL     OW64024   2.754   6.633   2.189 -0.2717  0.2515  0.6054
19396SOL    HW164025   2.688   6.609   2.123 -0.2020  2.0624 -0.1726
19396SOL    HW264026   2.797   6.550   2.210 -2.4521 -0.9282  0.8022
19397SOL     OW64027  11.075   0.675   0.707  0.3541  0.5099  0.2456
19397SOL    HW164028  11.008   0.693   0.772  1.0134  0.5709  0.9214
19397SOL    HW264029  11.036   0.610   0.649  0.2517 -0.6068  1.5308
19398SOL     OW64030  11.970  11.592  11.913 -0.1574  0.0290  0.0471
19398SOL    HW164031  12.032  11.597  11.986 -0.8126  0.8269  0.5755
19398SOL    HW264032  11.979  11.677  11.868 -0.7427  0.0889  0.0317
19399SOL     OW64033   3.780   8.207   1.155 -1.6215  0.8421 -0.0652
19399SOL    HW164034   3.809   8.247   1.073 -1.1410  1.5678  0.4359
19399SOL    HW264035   3.721   8.272   1.194 -0.5567  1.2548  0.9333
19400SOL     OW64036   9.173   6.748   1.289 -0.2437  0.0855  0.9463
19400SOL    HW164037   9.165   6.729   1.382  1.4997 -0.9332  0.9399
19400SOL    HW264038   9.268   6.753   1.273 -0.4896 -0.0586 -0.8091
19401SOL     OW64039  11.116   5.248   4.593  0.8232 -0.4723 -0.1332
19401SOL    HW164040  11.196   5.259   4.643  1.0528 -2.3383 -0.0256
19401SOL    HW264041  11.139   5.186   4.523 -0.2324 -0.1750 -0.7693
19402SOL     OW64042   5.277   5.403  12.060 -0.3289 -0.0628  0.0412
19402SOL    HW164043   5.371   5.392  12.044 -0.1977  0.8893  0.0536
19402SOL    HW264044   5.262   5.496  12.045 -1.4420 -0.3623 -0.7873
19403SOL     OW64045   7.703   2.861   5.665  1.0667 -0.2535  0.2392
19403SOL    HW164046   7.688   2.872   5.758 -0.5259 -1.9204  0.2218
19403SOL    HW264047   7.767   2.930   5.643 -0.4057  1.8229  2.0330
19404SOL     OW64048   8.635   0.360   0.846 -0.2024 -0.1399 -0.9054
19404SOL    HW164049   8.620   0.266   0.830  1.8973 -0.7973  0.5979
19404SOL    HW264050   8.568   0.383   0.911  0.4910 -1.1240  0.1940
19405SOL     OW64051   0.035   8.028   8.725  0.0364  0.0464 -0.1480
19405SOL    HW164052   0.083   7.947   8.708 -1.3138 -0.5026 -1.5918
19405SOL    HW264053  -0.017   8.009   8.803 -0.3415 -0.5267 -0.5335
19406SOL     OW64054   8.758   0.678  11.282 -0.0798 -0.2345  0.3017
19406SOL    HW164055   8.686   0.675  11.220 -0.0876  0.7699  0.2432
19406SOL    HW264056   8.720   0.649  11.365 -0.6222  0.5328  0.3318
19407SOL     OW64057   8.474   7.755   8.407  0.2840 -0.3055 -0.0926
19407SOL    HW164058   8.533   7.821   8.371 -1.0476  1.2282  0.4062
19407SOL    HW264059   8.465   7.779   8.500 -1.2065 -0.3841 -0.1835
19408SOL     OW64060   2.682  10.661   1.451  0.3479  0.6077 -0.9451
19408SOL    HW164061   2.680  10.734   1.388  0.0113 -0.7934 -2.6450
19408SOL    HW264062   2.739  10.596   1.410  1.5353  0.3261  1.0541
19409SOL     OW64063   7.435   6.554   1.588 -0.1428  0.2076 -0.6019
19409SOL    HW164064   7.455   6.496   1.515  0.8560  0.1440 -0.2991
19409SOL    HW264065   7.399   6.496   1.655  0.3295  0.0204 -0.5058
19410SOL     OW64066   1.481   3.285   1.895 -0.0457 -0.2857 -0.1336
19410SOL    HW164067   1.528   3.222   1.949  0.2263  0.7048  0.8154
19410SOL    HW264068   1.518   3.370   1.920 -0.0650  0.2209 -1.7221
19411SOL     OW64069   3.767   4.725  11.467 -0.5759 -0.2631 -0.1897
19411SOL    HW164070   3.687   4.728  11.414 -1.1715  0.4638  0.7294
19411SOL    HW264071   3.744   4.671  11.542 -0.2354  0.0218  0.1236
19412SOL     OW64072   4.248   5.582  11.257  0.0634 -0.1010 -0.3266
19412SOL    HW164073   4.244   5.489  11.279 -1.8780  0.0775  0.2798
19412SOL    HW264074   4.335   5.610  11.284  0.5910 -1.6891 -0.3134
19413SOL     OW64075   9.320   4.443   9.662  0.1824  0.8624  0.1101
19413SOL    HW164076   9.343   4.535   9.672  1.1808  0.4855  1.6167
19413SOL    HW264077   9.241   4.432   9.715  0.6208  0.6506  0.7224
19414SOL     OW64078  11.417   0.612   3.510  0.3727  0.2205  0.4581
19414SOL    HW164079  11.414   0.540   3.446 -2.0469  1.3083 -0.8095
19414SOL    HW264080  11.351   0.588   3.575  1.0978  0.2871  1.2266
19415SOL     OW64081  11.200   2.540   5.145 -0.0216 -0.5430 -0.3968
19415SOL    HW164082  11.254   2.502   5.075 -0.0592 -2.0964  0.3819
19415SOL    HW264083  11.183   2.630   5.116  1.7425 -0.4808 -1.3626
19416SOL     OW64084   5.399   4.892   3.170 -0.0535  0.3110 -0.4680
19416SOL    HW164085   5.356   4.915   3.252  2.1412  0.2655  0.7553
19416SOL    HW264086   5.364   4.955   3.106 -0.2689  1.6864  0.9607
19417SOL     OW64087   6.898   9.705   3.586 -0.0354 -0.0267  0.5668
19417SOL    HW164088   6.887   9.733   3.677 -0.4060 -1.0508  0.8555
19417SOL    HW264089   6.809   9.700   3.552  0.1692  2.8306 -0.6858
19418SOL     OW64090  12.100   9.515  11.853 -0.1682  0.0799 -0.1657
19418SOL    HW164091  12.173   9.467  11.815  0.3369  0.9915 -0.3927
19418SOL    HW264092  12.095   9.484  11.943 -0.1407 -0.7103 -0.4307
19419SOL     OW64093   1.820   4.783   9.856  0.3481 -0.2733  0.3375
19419SOL    HW164094   1.909   4.807   9.881  1.3108 -1.5965 -1.6334
19419SOL    HW264095   1.795   4.847   9.790 -0.1605  0.0392  0.8195
19420SOL     OW64096   5.402   8.447   7.450 -0.5317 -0.0984  0.4298
19420SOL    HW164097   5.406   8.372   7.390  0.5402 -0.1912  0.5844
19420SOL    HW264098   5.354   8.415   7.526 -1.0239 -0.2931  0.0403
19421SOL     OW64099   2.753   8.760  12.302 -0.2075  0.1947  0.0647
19421SOL    HW164100   2.772   8.673  12.338 -2.2479 -0.6514 -0.7984
19421SOL    HW264101   2.724   8.812  12.378  1.1018  0.2063  0.5967
19422SOL     OW64102   5.136   0.016  11.891 -0.6227  0.4334  0.3406
19422SOL    HW164103   5.067   0.044  11.831 -0.6544  3.1619  1.5377
19422SOL    HW264104   5.210   0.073  11.871  0.3826 -0.6120  0.9338
19423SOL     OW64105   2.128   8.486   2.533  0.5158 -0.0448 -0.6075
19423SOL    HW164106   2.166   8.518   2.451 -0.4810 -1.0650 -1.4962
19423SOL    HW264107   2.037   8.516   2.530  0.5615  0.2226  0.3152
19424SOL     OW64108   7.550   9.840   9.700 -0.1219 -0.2013  0.8248
19424SOL    HW164109   7.501   9.886   9.632 -1.0682 -0.4039  1.3489
19424SOL    HW264110   7.487   9.829   9.772  0.2394 -1.8097  0.9307
19425SOL     OW64111  11.613   9.837   3.246 -0.0210  0.4437 -0.4364
19425SOL    HW164112  11.585   9.746   3.239  1.6892 -0.5677  3.4407
19425SOL    HW264113  11.705   9.837   3.220  0.2731  0.8213  0.5545
19426SOL     OW64114   7.937   8.930   8.103  0.1851 -0.0523 -0.5260
19426SOL    HW164115   7.943   9.026   8.101 -1.5629  0.1954  1.7061
19426SOL    HW264116   7.995   8.904   8.175  1.2894 -0.7967 -1.6454
19427SOL     OW64117   7.062   6.264   4.453  0.1908  0.2850 -0.2256
19427SOL    HW164118   7.093   6.297   4.369 -0.2164 -1.3818 -1.0676
19427SOL    HW264119   6.974   6.299   4.462 -0.0916 -0.2168 -0.9283
19428SOL     OW64120   4.451   4.599   2.502  0.0607  0.0904  0.2871
19428SOL    HW164121   4.452   4.692   2.482  2.7744 -0.0394 -0.5960
19428SOL    HW264122   4.363   4.570   2.479 -0.7631  2.3550  0.3515
19429SOL     OW64123   6.755   5.859   8.067  0.2166 -0.1940 -0.4742
19429SOL    HW164124   6.709   5.909   8.134  0.7223  1.2822 -1.1650
19429SOL    HW264125   6.729   5.768   8.081 -1.4713  0.3715  0.2672
19430SOL     OW64126   7.095   5.368   4.405  0.0107 -0.2193 -0.0072
19430SOL    HW164127   7.100   5.427   4.330 -2.6121  0.6782  0.4213
19430SOL    HW264128   7.066   5.423   4.477  1.6489 -1.2423  1.5074
19431SOL     OW64129   5.644   4.869   3.925 -0.3230 -0.0089  0.2852
19431SOL    HW164130   5.708   4.862   3.854 -0.5927 -1.8540  0.1775
19431SOL    HW264131   5.675   4.943   3.977  1.2610 -0.1498 -0.3905
19432SOL     OW64132   7.525  10.742   4.520 -0.1363  0.0051 -0.1510
19432SOL    HW164133   7.517  10.832   4.489 -1.4936 -0.1041 -0.1815
19432SOL    HW264134   7.437  10.719   4.549  0.7372 -0.4494  2.3234
19433SOL     OW64135   6.556   9.598   8.401  0.1416 -0.0888  0.3762
19433SOL    HW164136   6.603   9.549   8.332  0.4333  0.9124 -0.1632
19433SOL    HW264137   6.594   9.565   8.483 -0.9747 -2.0919  0.1525
19434SOL     OW64138   1.973   2.082   3.939 -0.4296 -0.4952  0.0359
19434SOL    HW164139   2.010   2.130   3.866  1.4574 -0.8708  0.6839
19434SOL    HW264140   2.015   2.120   4.017 -0.2126 -1.9712  0.6843
19435SOL     OW64141   4.606   8.254   3.595 -0.1901  0.2590  0.4922
19435SOL    HW164142   4.684   8.273   3.544 -0.3054  1.3445  0.7040
19435SOL    HW264143   4.551   8.331   3.585 -0.2098  0.5175  2.2609
19436SOL     OW64144   6.110   8.618   6.784  0.3360  0.4854 -0.2974
19436SOL    HW164145   6.120   8.701   6.830  1.2905 -0.3616  1.1060
19436SOL    HW264146   6.040   8.633   6.721 -1.3309  1.5897  1.7200
19437SOL     OW64147   9.820   5.721   4.030 -0.5460  0.0463 -0.0572
19437SOL    HW164148   9.824   5.714   4.125 -2.3394 -1.0231 -0.0135
19437SOL    HW264149   9.889   5.663   3.999 -0.3199 -0.0319  0.5706
19438SOL     OW64150  10.345   1.321   4.167  0.2692  0.0342 -0.3005
19438SOL    HW164151  10.418   1.297   4.109  1.6630  1.2857  0.8780
19438SOL    HW264152  10.333   1.243   4.222  1.2271  0.0672 -0.0165
19439SOL     OW64153   2.541  10.493   9.271  0.6728  0.3343 -0.3536
19439SOL    HW164154   2.580  10.492   9.359 -0.3330  1.6418  0.1584
19439SOL    HW264155   2.609  10.528   9.214  1.0923  0.1767  0.0493
19440SOL     OW64156   5.073   4.833   6.813  0.1489  0.1424 -0.1208
19440SOL    HW164157   5.085   4.751   6.765  0.9234  0.3036 -0.2155
19440SOL    HW264158   5.079   4.808   6.905  0.2930  0.0743 -0.1478
19441SOL     OW64159   0.634  10.141   5.903  0.1165  0.4462 -0.5101
19441SOL    HW164160   0.563  10.182   5.853  0.1106 -0.1920 -1.0422
19441SOL    HW264161   0.589  10.087   5.968  0.1210  1.5931  0.4891
19442SOL     OW64162   0.976   8.517  12.107  0.0915 -0.2081 -0.6565
19442SOL    HW164163   1.017   8.466  12.037 -2.5266 -0.7395 -1.9126
19442SOL    HW264164   0.893   8.547  12.070 -0.6315  0.9347  1.6717
19443SOL     OW64165   3.996  10.992  10.717  0.4335 -0.2563  0.1218
19443SOL    HW164166   4.019  11.019  10.628 -1.2979  0.1329 -0.2315
19443SOL    HW264167   3.989  10.897  10.712 -2.7819 -0.0672 -1.0174
19444SOL     OW64168  10.717   5.159   8.390 -0.3386  0.1124 -0.2051
19444SOL    HW164169  10.675   5.232   8.436 -0.3394 -0.6034  0.9604
19444SOL    HW264170  10.673   5.157   8.305 -2.4511 -0.3568  0.8225
19445SOL     OW64171  10.728   7.518   1.946 -0.0751 -0.0774 -0.2895
19445SOL    HW164172  10.656   7.573   1.976 -0.8014 -2.0186  1.7552
19445SOL    HW264173  10.688   7.433   1.927  1.6664 -1.2780  1.1098
19446SOL     OW64174   1.198  10.239   4.856  0.4323 -0.1440  0.1169
19446SOL    HW164175   1.191  10.143   4.854 -0.2226 -0.0898 -1.8416
19446SOL    HW264176   1.117  10.269   4.815  1.4326  1.2104 -0.9227
19447SOL     OW64177   8.955   0.790   2.074  0.3046 -0.0515  0.2529
19447SOL    HW164178   8.996   0.705   2.059 -3.2531 -1.5469 -2.2431
19447SOL    HW264179   8.949   0.797   2.169  2.4174 -1.5958  0.5968
19448SOL     OW64180   7.005   2.346   1.778 -0.0740 -0.1539 -0.4700
19448SOL    HW164181   6.939   2.289   1.741  0.0840 -1.6388  1.3996
19448SOL    HW264182   7.071   2.356   1.709 -1.3293 -0.1419 -1.6906
19449SOL     OW64183   7.219  10.524   8.433 -0.2059 -0.2670 -0.3340
19449SOL    HW164184   7.284  10.536   8.363  1.3649 -0.1984  1.0640
19449SOL    HW264185   7.229  10.602   8.488 -2.2369  0.2454 -0.6274
19450SOL     OW64186  11.392  10.870   9.634  0.0289  0.0301  0.5402
19450SOL    HW164187  11.426  10.832   9.716 -1.5813  1.2213  1.8108
19450SOL    HW264188  11.464  10.925   9.602  1.1651 -1.4522  0.3993
19451SOL     OW64189   0.361   3.424   3.209  0.3220 -0.5363  0.2736
19451SOL    HW164190   0.414   3.363   3.157  0.5064 -1.3802  1.4119
19451SOL    HW264191   0.425   3.476   3.258  0.1333 -0.3733  0.3480
19452SOL     OW64192   8.699   1.747   0.589  0.0152  0.0959 -0.2553
19452SOL    HW164193   8.624   1.688   0.581  0.4510 -0.6508  0.9742
19452SOL    HW264194   8.739   1.747   0.502 -0.0648 -1.3263 -0.3070
19453SOL     OW64195   4.952   3.034   5.993 -0.1993  0.0011 -0.3275
19453SOL    HW164196   5.004   3.012   6.071  0.2926 -0.0523 -0.6678
19453SOL    HW264197   4.867   3.061   6.028 -0.2805 -0.8751  0.1875
19454SOL     OW64198   8.558   7.993   2.369 -0.3511 -0.3373 -0.9886
19454SOL    HW164199   8.562   7.903   2.402 -0.0659  0.4647  1.3865
19454SOL    HW264200   8.645   8.028   2.386 -0.4930  0.4436 -1.8057
19455SOL     OW64201   6.096  10.744  11.763 -0.3045  0.6635 -0.1945
19455SOL    HW164202   6.052  10.734  11.678 -1.0110  0.2128  0.2108
19455SOL    HW264203   6.132  10.832  11.761 -0.7998  0.8630 -0.7464
19456SOL     OW64204   8.798   6.555  11.599  0.4088 -0.4168 -0.4526
19456SOL    HW164205   8.883   6.534  11.638  0.3422  0.0010 -0.0788
19456SOL    HW264206   8.812   6.638  11.553 -0.3911  0.9612  1.6646
19457SOL     OW64207   3.073   5.085   4.574 -0.4482 -0.1788 -0.5734
19457SOL    HW164208   3.015   5.161   4.586  0.4394  0.2052  1.7643
19457SOL    HW264209   3.125   5.108   4.497 -1.0802  1.0016 -0.6836
19458SOL     OW64210   5.675   8.774   9.976 -0.3697  0.7220 -0.7307
19458SOL    HW164211   5.705   8.692   9.936 -1.8489 -0.5909  0.6802
19458SOL    HW264212   5.603   8.803   9.920 -0.7319  0.3103 -0.4813
19459SOL     OW64213   0.250   1.212   8.239  0.4098  0.0372 -0.5725
19459SOL    HW164214   0.341   1.198   8.265 -0.4097  0.7835  3.3369
19459SOL    HW264215   0.228   1.299   8.271 -2.0139 -0.6180 -0.2097
19460SOL     OW64216   2.114   3.026  10.990 -0.4567  0.5854 -0.7755
19460SOL    HW164217   2.150   2.950  10.944 -1.2135 -1.5077  1.7965
19460SOL    HW264218   2.182   3.051  11.052 -1.2185  0.1818  0.2651
19461SOL     OW64219  10.790   2.956   2.171 -0.5655 -0.2219  0.5310
19461SOL    HW164220  10.719   2.997   2.123  1.9845  1.0275 -2.5776
19461SOL    HW264221  10.801   2.870   2.130  1.4055  0.7148 -1.1242
19462SOL     OW64222   6.050   9.541   1.328  0.4504 -0.1352 -0.1465
19462SOL    HW164223   6.023   9.562   1.239  3.1899  1.4721 -0.7265
19462SOL    HW264224   6.111   9.467   1.317  0.8030  0.0764  0.3666
19463SOL     OW64225   7.638   1.627   4.991 -0.0806 -0.0180  0.5442
19463SOL    HW164226   7.654   1.710   5.036 -1.2015 -0.3524  1.5934
19463SOL    HW264227   7.683   1.637   4.907  2.7074  0.3659  1.9490
19464SOL     OW64228   0.882   5.482   9.014  0.2462  0.1199 -0.0518
19464SOL    HW164229   0.940   5.489   8.938  0.4945 -0.1260  0.1128
19464SOL    HW264230   0.868   5.572   9.042  1.0594  0.1445  0.2907
19465SOL     OW64231   4.468  11.328   9.389 -0.3276 -0.0910 -0.5265
19465SOL    HW164232   4.429  11.392   9.330 -0.1082 -0.3515 -0.9543
19465SOL    HW264233   4.433  11.351   9.475 -0.1979  0.6479 -0.6609
19466SOL     OW64234   2.391   9.880   7.344  0.7109 -0.7687  0.1766
19466SOL    HW164235   2.465   9.859   7.400  0.4431  0.9795  1.2332
19466SOL    HW264236   2.430   9.891   7.257  1.5137 -0.9511  0.5027
19467SOL     OW64237   4.292   8.378   2.890 -0.1677 -0.6287 -0.0758
19467SOL    HW164238   4.357   8.317   2.855  1.2885  1.8043 -1.9612
19467SOL    HW264239   4.339   8.429   2.956 -0.6105  0.0939 -0.2996
19468SOL     OW64240  10.277  12.084  10.684  0.0283  0.3631 -0.0404
19468SOL    HW164241  10.183  12.074  10.694 -0.0267 -0.0637 -0.8792
19468SOL    HW264242  10.292  12.178  10.681 -0.6415  0.4496 -2.0761
19469SOL     OW64243   9.123   4.504   5.690 -0.0731  0.1218 -0.3864
19469SOL    HW164244   9.172   4.582   5.663  0.5324  0.1953  0.8785
19469SOL    HW264245   9.121   4.450   5.611  2.6841 -0.2006 -0.3575
19470SOL     OW64246   0.595   1.550   0.377  0.4046  0.1745 -0.1844
19470SOL    HW164247   0.642   1.617   0.426  0.4947  0.8034 -1.1010
19470SOL    HW264248   0.516   1.595   0.346  0.6327 -0.0336 -1.0942
19471SOL     OW64249   6.788   8.395   7.342 -0.3071 -0.2547  0.4750
19471SOL    HW164250   6.880   8.397   7.368 -0.2946 -1.7278  0.6333
19471SOL    HW264251   6.740   8.415   7.423 -0.1564 -0.5598  0.6392
19472SOL     OW64252   3.322  10.018   8.755  0.2667 -0.3482 -0.1002
19472SOL    HW164253   3.312  10.109   8.782  0.2112 -0.3943  0.0339
19472SOL    HW264254   3.315  10.021   8.659  0.3982 -0.1940 -0.1070
19473SOL     OW64255   4.119   0.032   5.785 -0.1962  0.1050  0.6518
19473SOL    HW164256   4.045   0.067   5.736  0.9744 -0.4184 -1.6302
19473SOL    HW264257   4.190   0.095   5.769  0.4283 -0.4920  1.0415
19474SOL     OW64258  12.191   9.436  10.969  0.1392  0.1109  0.0072
19474SOL    HW164259  12.214   9.516  10.922  0.9703  0.7406  1.4333
19474SOL    HW264260  12.177   9.371  10.900 -2.3786  1.8751 -1.3373
19475SOL     OW64261   0.094   0.759  11.770  0.6535 -0.6357 -0.1227
19475SOL    HW164262   0.157   0.721  11.709  0.7125 -1.6490  0.5434
19475SOL    HW264263   0.144   0.772  11.851 -0.2017 -2.5551  0.8047
19476SOL     OW64264   1.823   0.622   5.586 -0.1992  0.1630 -0.0260
19476SOL    HW164265   1.899   0.574   5.619 -0.4504 -0.1581  0.0809
19476SOL    HW264266   1.861   0.700   5.546 -0.0243  2.3028  3.8488
19477SOL     OW64267  11.470   3.097   5.726 -0.3176  0.4071  0.0547
19477SOL    HW164268  11.491   3.186   5.698  0.8570  0.3167  0.5714
19477SOL    HW264269  11.477   3.044   5.647  2.4981  0.2307  0.3126
19478SOL     OW64270   1.432   8.855   1.448  0.1509  0.2937 -0.1301
19478SOL    HW164271   1.453   8.882   1.358 -0.6073 -0.9768 -0.7177
19478SOL    HW264272   1.512   8.874   1.497  0.7688  0.5278 -1.1823
19479SOL     OW64273   4.227   2.000   5.545 -0.0921  0.1446  0.3644
19479SOL    HW164274   4.303   2.058   5.539  0.1622 -0.0187  1.6229
19479SOL    HW264275   4.259   1.923   5.593 -1.9307  1.8671  5.0058
19480SOL     OW64276   6.771   4.306   6.726  0.1015  0.2912  0.2071
19480SOL    HW164277   6.713   4.381   6.738  0.9061  1.1039 -0.8608
19480SOL    HW264278   6.712   4.230   6.727 -0.9807  1.0868 -0.7461
19481SOL     OW64279   9.857   3.707   2.196 -0.7913  0.0298  0.0745
19481SOL    HW164280   9.824   3.653   2.125 -0.7220 -3.2899  2.3302
19481SOL    HW264281   9.801   3.686   2.271 -0.2608  2.6116  1.3249
19482SOL     OW64282  10.703   1.594  10.911 -0.5747  0.5450  0.4400
19482SOL    HW164283  10.666   1.576  10.997 -1.8708 -0.5460 -0.3110
19482SOL    HW264284  10.682   1.686  10.894  0.0533  0.8859  1.4411
19483SOL     OW64285   0.738   0.659   7.911  0.8490  0.0743  0.0112
19483SOL    HW164286   0.755   0.566   7.893  0.3513 -0.2402  1.0439
19483SOL    HW264287   0.787   0.706   7.844  0.8817 -0.9434 -0.7133
19484SOL     OW64288   6.725   3.192  11.053 -0.0891  0.1169  0.6234
19484SOL    HW164289   6.738   3.186  11.147 -1.6109  0.6736  0.8980
19484SOL    HW264290   6.650   3.135  11.035  0.9339 -0.9654 -0.4612
19485SOL     OW64291   1.526  10.330   3.775 -0.4053 -1.0066  0.0707
19485SOL    HW164292   1.524  10.275   3.697 -0.8232  1.5981 -1.9014
19485SOL    HW264293   1.447  10.383   3.769  1.8699  2.6790 -0.5346
19486SOL     OW64294   5.744   2.838   1.499  0.5653  0.1877 -0.4505
19486SOL    HW164295   5.827   2.882   1.482  0.8312 -0.9153 -2.3253
19486SOL    HW264296   5.768   2.756   1.542  0.3258  0.4863  0.2608
19487SOL     OW64297  12.024   2.494   1.809  0.1679 -0.1457  0.1662
19487SOL    HW164298  12.064   2.559   1.751 -0.3977 -0.4509 -0.5801
19487SOL    HW264299  11.935   2.527   1.822 -0.0402 -0.6363 -0.0075
19488SOL     OW64300   6.779   4.953   9.101  0.2253  0.5361  0.0648
19488SOL    HW164301   6.724   4.959   9.179 -0.6668 -0.1721 -0.4954
19488SOL    HW264302   6.784   4.859   9.083  0.6281  0.6792 -0.5860
19489SOL     OW64303  11.647  11.944   7.918 -0.3126  0.5141 -0.0106
19489SOL    HW164304  11.562  11.975   7.951 -0.4753  0.3188 -0.2394
19489SOL    HW264305  11.699  12.024   7.909 -0.9499  0.8295 -1.2283
19490SOL     OW64306  10.132   2.546   1.233 -0.1826 -0.1601 -0.0947
19490SOL    HW164307  10.154   2.577   1.321  1.8024 -1.8678  0.0761
19490SOL    HW264308  10.154   2.620   1.176  1.3032 -0.0547  0.5809
19491SOL     OW64309   3.197   0.032   9.497 -0.0588  0.2819 -0.1231
19491SOL    HW164310   3.186   0.073   9.411 -1.3939  0.1361 -0.0469
19491SOL    HW264311   3.119  -0.023   9.507 -0.7537  1.5246  1.8346
19492SOL     OW64312   5.336   0.326   2.218 -0.0341 -0.0166  0.3925
19492SOL    HW164313   5.367   0.280   2.296  1.2652 -1.8706 -1.0961
19492SOL    HW264314   5.293   0.257   2.166  1.4283  0.5176 -1.6583
19493SOL     OW64315   4.226   8.982   5.716  0.1768  0.5221 -0.1920
19493SOL    HW164316   4.151   8.944   5.671  0.5033  0.2109 -0.4748
19493SOL    HW264317   4.270   8.908   5.757  0.5358  0.6539 -0.3327
19494SOL     OW64318   0.606   7.926   9.408 -0.1112 -0.6631 -0.2515
19494SOL    HW164319   0.673   7.924   9.476 -0.5966  0.3772  0.2659
19494SOL    HW264320   0.539   7.864   9.438 -0.1275 -0.5165  0.0132
19495SOL     OW64321   1.825   4.398   1.311  0.0359  0.1243 -0.3973
19495SOL    HW164322   1.881   4.431   1.382 -0.2808 -0.3367  0.0721
19495SOL    HW264323   1.800   4.310   1.339 -0.1294 -0.0422 -1.0652
19496SOL     OW64324   4.327   1.918   1.390  0.0260  0.5327 -0.8964
19496SOL    HW164325   4.251   1.871   1.355  2.0774 -2.7758 -1.3394
19496SOL    HW264326   4.379   1.941   1.313  0.2400  1.4052 -0.5063
19497SOL     OW64327  11.139  10.355   8.506 -0.1848 -0.1170 -0.4658
19497SOL    HW164328  11.163  10.297   8.578 -1.5706  1.1830  1.1423
19497SOL    HW264329  11.052  10.326   8.479  0.7445 -1.2563 -2.3918
19498SOL     OW64330   2.323  10.421   5.647 -0.1567  0.0921  0.3220
19498SOL    HW164331   2.266  10.385   5.715 -1.2290  1.0898 -0.0022
19498SOL    HW264332   2.263  10.468   5.589  0.9776  0.9399 -0.2006
19499SOL     OW64333   9.165   5.556   7.354 -0.2999  0.0087 -0.3895
19499SOL    HW164334   9.144   5.578   7.445 -1.6437  0.0989 -0.6969
19499SOL    HW264335   9.172   5.460   7.355  1.0071  0.0869  0.0477
19500SOL     OW64336   8.802  10.974   5.932 -1.1455  0.0380 -0.2791
19500SOL    HW164337   8.822  10.967   5.839  1.0656  1.7534 -0.0184
19500SOL    HW264338   8.779  11.067   5.944  0.2253  0.2382  1.1179
19501SOL     OW64339   0.183   0.984   5.000 -0.5143  0.4615  0.5153
19501SOL    HW164340   0.142   1.022   4.922 -0.6270  1.7615  1.1850
19501SOL    HW264341   0.140   0.899   5.010 -1.2944  0.7497 -0.2047
19502SOL     OW64342   8.405   2.062   1.691  0.1654  0.0055 -0.3133
19502SOL    HW164343   8.381   2.087   1.602  0.3249  1.2361 -0.0187
19502SOL    HW264344   8.325   2.023   1.727 -0.5335  1.3574 -0.3303
19503SOL     OW64345   7.471   9.425  10.970  0.6194  0.2286  0.3006
19503SOL    HW164346   7.444   9.368  10.898  1.6102 -1.7473  1.4229
19503SOL    HW264347   7.392   9.433  11.025 -0.2169  1.9520 -1.0375
19504SOL     OW64348   7.265   2.738   2.872  0.1175  0.4943 -0.1774
19504SOL    HW164349   7.348   2.776   2.901 -0.0445  1.9888 -1.5295
19504SOL    HW264350   7.230   2.802   2.810 -2.7650  0.6254  1.4216
19505SOL     OW64351  12.019   8.036   6.120 -0.0986 -0.3616 -0.6110
19505SOL    HW164352  12.113   8.051   6.109  0.0300 -1.7846 -1.7198
19505SOL    HW264353  11.977   8.098   6.061  0.1972 -0.5795 -1.0531
19506SOL     OW64354   4.193   8.714   4.057  0.3085  0.6851  0.0962
19506SOL    HW164355   4.175   8.787   4.116  0.8921  0.8904  0.0273
19506SOL    HW264356   4.263   8.746   4.000 -0.5892  0.6851 -1.0490
19507SOL     OW64357   0.253   2.391   4.268  0.2018  0.2898 -0.4628
19507SOL    HW164358   0.224   2.373   4.357  1.5592  2.2638  0.4444
19507SOL    HW264359   0.321   2.458   4.278 -0.9818  2.0417 -3.1097
19508SOL     OW64360   6.133   1.540   5.455 -0.7180  0.6284  0.3530
19508SOL    HW164361   6.099   1.590   5.528  0.6605  1.1091  0.7042
19508SOL    HW264362   6.114   1.449   5.476 -1.7500  0.8770  0.5229
19509SOL     OW64363   8.939   2.718   7.348 -0.1073 -0.3807 -0.4788
19509SOL    HW164364   8.931   2.813   7.353  1.8041 -0.2507  3.0360
19509SOL    HW264365   8.851   2.686   7.369  0.0186  0.7358  2.2131
19510SOL     OW64366   4.309   1.840  10.971  0.1836  0.0691 -0.4071
19510SOL    HW164367   4.323   1.886  10.888  0.6302 -0.0750 -0.4152
19510SOL    HW264368   4.332   1.903  11.038 -2.0893  0.8731 -0.3025
19511SOL     OW64369   4.149  10.967   6.506 -0.2890 -0.3199  0.3003
19511SOL    HW164370   4.209  10.962   6.431  0.3439  0.6547  0.7227
19511SOL    HW264371   4.117  11.057   6.505 -2.5756 -1.0670 -0.5141
19512SOL     OW64372   2.437  10.117   6.059 -0.7861 -0.0625 -0.5101
19512SOL    HW164373   2.500  10.169   6.009 -0.4953 -0.1276 -0.2145
19512SOL    HW264374   2.360  10.174   6.067 -1.0156 -0.2198 -1.4257
19513SOL     OW64375   9.723   2.991  10.887  0.0556  0.2814 -0.3070
19513SOL    HW164376   9.807   2.977  10.933  0.6911 -0.4770 -1.6487
19513SOL    HW264377   9.658   2.955  10.947  0.5706  1.5977  1.1199
19514SOL     OW64378   9.768   6.024   3.409 -0.0396 -0.3188  0.1350
19514SOL    HW164379   9.789   6.035   3.317 -1.1603 -1.1517 -0.2428
19514SOL    HW264380   9.782   6.111   3.447  0.7802 -0.0548 -0.7356
19515SOL     OW64381   5.975   8.296   7.307 -0.5802 -0.0653  0.4747
19515SOL    HW164382   6.042   8.364   7.313 -1.5519  0.9879 -0.2185
19515SOL    HW264383   5.970   8.275   7.214 -0.7482 -0.6186  0.6040
19516SOL     OW64384   9.162   4.027   3.518  0.0851  0.1053  0.4408
19516SOL    HW164385   9.183   4.089   3.448 -0.5701 -0.5409 -0.3612
19516SOL    HW264386   9.098   4.072   3.572  0.6556  0.6421  0.6711
19517SOL     OW64387   3.218   0.347   1.326 -0.7465 -0.4119  0.1400
19517SOL    HW164388   3.259   0.287   1.388 -1.5043 -0.3692  0.7022
19517SOL    HW264389   3.282   0.357   1.256  0.0377 -0.6333  0.8096
19518SOL     OW64390   8.265   9.683   2.593  0.4884  0.1687 -0.3744
19518SOL    HW164391   8.292   9.600   2.631 -0.1881 -0.1158 -0.5098
19518SOL    HW264392   8.209   9.660   2.519  1.8755  0.7074 -1.6590
19519SOL     OW64393   0.617   9.619   8.366  0.0377  0.0833 -0.4790
19519SOL    HW164394   0.568   9.659   8.294  0.4059  0.5498 -0.4774
19519SOL    HW264395   0.552   9.602   8.433 -0.1425  0.5933 -0.5199
19520SOL     OW64396   9.738   1.652   8.361 -0.1002  0.7581  0.8329
19520SOL    HW164397   9.811   1.689   8.410  1.4930 -1.2587  0.1554
19520SOL    HW264398   9.765   1.657   8.269 -0.4666 -0.6357  0.6235
19521SOL     OW64399   2.286  11.999   9.369  0.0189  0.2590  0.1746
19521SOL    HW164400   2.316  12.051   9.444 -0.3798 -0.7907  1.0928
19521SOL    HW264401   2.193  11.985   9.386  0.0509 -0.4819 -0.2236
19522SOL     OW64402   5.519   8.491  11.207 -0.8589  0.3086  0.4142
19522SOL    HW164403   5.496   8.565  11.150  1.7987  0.5485 -0.4862
19522SOL    HW264404   5.591   8.524  11.261 -0.1324 -1.3670  0.5313
19523SOL     OW64405   7.623   6.181   4.711 -0.1706 -0.2592  0.5054
19523SOL    HW164406   7.674   6.181   4.630  1.2464  2.8962  1.2618
19523SOL    HW264407   7.532   6.177   4.682  0.3494 -0.6877 -1.1567
19524SOL     OW64408  10.575  11.727   1.674 -0.2319 -0.2641 -0.1329
19524SOL    HW164409  10.643  11.735   1.607  0.1865 -0.7148  0.2207
19524SOL    HW264410  10.493  11.726   1.626 -0.0700  1.5024 -0.4879
19525SOL     OW64411   2.639   2.057  12.161 -0.0869  0.2803  0.0783
19525SOL    HW164412   2.624   2.128  12.098 -0.9721 -0.2948 -0.3737
19525SOL    HW264413   2.702   2.000  12.118 -1.0562 -0.3684 -0.5135
19526SOL     OW64414   2.376  11.965   8.699  0.0551  0.2833 -0.4925
19526SOL    HW164415   2.439  11.894   8.707 -0.0596 -0.2059 -3.0205
19526SOL    HW264416   2.423  12.034   8.652 -0.0210  1.7050  1.4030
19527SOL     OW64417   7.000   7.267   5.007 -0.5892  0.3967  0.2827
19527SOL    HW164418   6.956   7.352   5.010 -0.4008  0.6820 -2.2478
19527SOL    HW264419   7.090   7.286   5.032 -0.5067  1.0234 -0.4361
19528SOL     OW64420   9.764   2.292   0.688  0.1614  0.0718 -0.4060
19528SOL    HW164421   9.781   2.225   0.753  2.4490 -1.9517 -2.8440
19528SOL    HW264422   9.824   2.363   0.709  0.8137 -0.5233 -0.2616
19529SOL     OW64423   6.590  11.796   2.732 -0.1151 -0.6143  0.2105
19529SOL    HW164424   6.559  11.833   2.649 -0.9584  2.2730  1.6866
19529SOL    HW264425   6.521  11.735   2.758 -0.2031 -0.9746 -0.8160
19530SOL     OW64426  12.094   4.568   1.811 -0.0335 -0.5267 -0.5337
19530SOL    HW164427  12.161   4.513   1.772  0.1356  0.5470 -1.8574
19530SOL    HW264428  12.102   4.554   1.905  2.2647 -0.2116 -0.6295
19531SOL     OW64429  10.700   0.144   8.736  0.1630 -0.0925  0.2596
19531SOL    HW164430  10.661   0.203   8.672  0.7696 -0.4720 -0.4726
19531SOL    HW264431  10.770   0.100   8.689 -0.7567 -1.9793  0.5670
19532SOL     OW64432   9.682  11.253  12.270  0.0000 -0.0107 -0.1330
19532SOL    HW164433   9.702  11.246  12.364  0.8462  0.8475 -0.2376
19532SOL    HW264434   9.758  11.299  12.233 -0.7925  0.5628 -1.0681
19533SOL     OW64435   6.610   6.276   0.501 -0.5460 -0.1855 -0.3187
19533SOL    HW164436   6.691   6.320   0.476 -1.0303  1.2892  0.5964
19533SOL    HW264437   6.638   6.198   0.549  0.3345  0.3587  0.0666
19534SOL     OW64438   1.394   4.376   5.008  0.3251  0.1730 -0.0034
19534SOL    HW164439   1.426   4.406   5.094  0.9461  0.1866 -0.2339
19534SOL    HW264440   1.306   4.343   5.026 -0.3658  2.0355  0.2840
19535SOL     OW64441   1.095  10.958   8.724  0.2765  0.1747  0.3135
19535SOL    HW164442   1.103  10.881   8.667  1.5565 -0.4783  1.3393
19535SOL    HW264443   1.082  10.922   8.812 -1.0167  1.1635  0.5639
19536SOL     OW64444  11.718   0.690   1.377 -0.0421  0.2724  0.1214
19536SOL    HW164445  11.765   0.674   1.295 -2.7736  0.7593 -1.6533
19536SOL    HW264446  11.671   0.609   1.394 -0.4625  0.5940  0.5185
19537SOL     OW64447   1.362  10.130   0.099  0.3164 -0.1007 -0.6906
19537SOL    HW164448   1.321  10.133   0.012  0.1032 -2.3020 -0.7357
19537SOL    HW264449   1.376  10.037   0.115 -1.7031  0.0012  2.5870
19538SOL     OW64450  12.175   1.636  10.984 -0.8516 -0.2547  0.4742
19538SOL    HW164451  12.122   1.562  10.955 -0.1039 -0.3636 -0.6726
19538SOL    HW264452  12.256   1.597  11.016  0.1115  0.1058 -1.4076
19539SOL     OW64453   0.293  11.194  12.053 -0.0352  0.1988  0.2689
19539SOL    HW164454   0.276  11.168  12.144 -3.0414  1.2046  0.0924
19539SOL    HW264455   0.286  11.112  12.003 -0.5454 -0.0314  0.7076
19540SOL     OW64456   2.754   2.543   8.962  0.3180 -0.4262 -0.1171
19540SOL    HW164457   2.764   2.532   9.057  1.5386  0.4078 -0.1215
19540SOL    HW264458   2.691   2.476   8.937  1.1179 -1.6739  1.0554
19541SOL     OW64459   8.423  11.834  10.989 -0.1695 -0.8148 -0.5553
19541SOL    HW164460   8.359  11.849  11.059 -0.9566 -3.2270 -0.6593
19541SOL    HW264461   8.376  11.857  10.909 -0.2250 -0.6995 -0.4902
19542SOL     OW64462   5.606   5.299  11.544  0.0661 -0.0734 -0.0602
19542SOL    HW164463   5.590   5.207  11.564 -2.0886  0.5964  1.7546
19542SOL    HW264464   5.702   5.308  11.546  0.3182 -2.2620 -0.4011
19543SOL     OW64465   7.863   2.080   6.763 -0.6528  0.2280  0.4242
19543SOL    HW164466   7.817   2.142   6.819 -0.6468  1.0304 -0.4329
19543SOL    HW264467   7.932   2.044   6.818 -0.2356  1.4774  0.7485
19544SOL     OW64468   2.504   5.057   5.090  0.1429  0.1476 -0.0344
19544SOL    HW164469   2.598   5.035   5.090  0.1326 -0.0979  1.8812
19544SOL    HW264470   2.502   5.148   5.119 -0.1796  0.4656 -1.0315
19545SOL     OW64471   5.555   8.488  10.504  0.3325 -0.1890 -0.0801
19545SOL    HW164472   5.595   8.569  10.535  2.6097 -2.2912  3.0799
19545SOL    HW264473   5.628   8.437  10.469 -0.9461 -1.1374 -1.5082
19546SOL     OW64474  11.477  11.011  10.770  0.4575  0.5402  0.4433
19546SOL    HW164475  11.490  10.933  10.716  1.5967  1.4470 -0.6455
19546SOL    HW264476  11.393  11.046  10.742  0.0548 -0.1457  0.7639
19547SOL     OW64477   2.465  10.302   3.663  0.1550 -0.0677 -0.0642
19547SOL    HW164478   2.541  10.351   3.694  0.6466 -0.3262 -0.8568
19547SOL    HW264479   2.501  10.238   3.601 -0.5583 -0.9653  0.4231
19548SOL     OW64480   8.445  10.030  10.505  0.1222 -0.0998 -0.1390
19548SOL    HW164481   8.436   9.996  10.416  0.1918 -1.5474  0.3708
19548SOL    HW264482   8.499  10.108  10.497  0.2490 -0.3037 -1.3463
19549SOL     OW64483   0.256   8.748   1.876  0.0110  0.0590 -0.0146
19549SOL    HW164484   0.252   8.766   1.970 -0.3663 -1.3818  0.2709
19549SOL    HW264485   0.328   8.687   1.867 -0.0971  0.0211 -0.6373
19550SOL     OW64486   9.777   8.330  11.713  0.1135  0.3371 -0.6457
19550SOL    HW164487   9.729   8.409  11.739 -0.8344 -0.3121 -0.3675
19550SOL    HW264488   9.709   8.263  11.703  1.1005 -1.1062  1.5267
19551SOL     OW64489  11.938   7.453  12.184 -0.1373 -0.4971 -0.3200
19551SOL    HW164490  11.984   7.370  12.180  1.1966  0.1915  0.2817
19551SOL    HW264491  11.929   7.480  12.092 -0.7070 -1.3455 -0.5267
19552SOL     OW64492  10.965   3.332   5.236  0.1574  0.2372 -0.5377
19552SOL    HW164493  11.000   3.420   5.249  1.7219 -0.3378 -0.6371
19552SOL    HW264494  11.032   3.274   5.271  0.0321 -0.9769 -2.1900
19553SOL     OW64495   0.279  10.880   5.399  0.1511 -0.5574  0.1057
19553SOL    HW164496   0.236  10.835   5.327  0.0673 -0.5081  0.1252
19553SOL    HW264497   0.362  10.910   5.362  0.1221 -0.5598  0.0382
19554SOL     OW64498   9.411   1.663   3.121 -0.3894  0.2451  0.2716
19554SOL    HW164499   9.486   1.721   3.133 -0.8935  0.5177  2.7304
19554SOL    HW264500   9.337   1.722   3.108 -0.8998  0.2727  2.7549
19555SOL     OW64501   3.151   5.362   4.712  0.3140 -0.0376  0.6027
19555SOL    HW164502   3.106   5.327   4.789 -1.5213  0.1008 -0.3304
19555SOL    HW264503   3.219   5.297   4.693  0.9562  0.0441  2.4335
19556SOL     OW64504   6.141   1.126   9.013  0.3673 -0.5680 -0.0942
19556SOL    HW164505   6.218   1.171   8.981  0.1938 -0.6261 -0.5995
19556SOL    HW264506   6.117   1.172   9.094 -0.3912  0.8917 -1.1114
19557SOL     OW64507   7.717   3.188   1.398  0.3986 -0.0711  0.2264
19557SOL    HW164508   7.700   3.154   1.486 -0.3771  0.1566  0.1645
19557SOL    HW264509   7.813   3.194   1.394  0.4490 -0.1665  1.0186
19558SOL     OW64510   5.182   7.946   3.440  0.0003  0.0513  0.0819
19558SOL    HW164511   5.106   7.993   3.406 -0.7175 -1.0266  0.1213
19558SOL    HW264512   5.249   7.955   3.372 -1.0252 -1.1056 -1.1382
19559SOL     OW64513   8.039   1.367  12.103 -0.0899 -0.1494 -0.4773
19559SOL    HW164514   8.042   1.274  12.124 -1.2930 -0.5887 -2.0522
19559SOL    HW264515   7.986   1.406  12.173  1.3153 -0.4377  0.7821
19560SOL     OW64516   0.752  11.358  11.032 -0.7112 -0.1628  0.3906
19560SOL    HW164517   0.745  11.296  11.105  0.2139  0.6218  1.1751
19560SOL    HW264518   0.841  11.393  11.039 -2.0156  3.3708  1.8019
19561SOL     OW64519   3.133  10.534   7.428 -0.0044  0.3585  0.3397
19561SOL    HW164520   3.040  10.551   7.418 -0.2521 -0.9548  0.2302
19561SOL    HW264521   3.148  10.530   7.522 -0.2639 -0.3704  0.3607
19562SOL     OW64522   6.773   8.266   8.493 -0.4479  0.8070  0.0347
19562SOL    HW164523   6.796   8.261   8.586  1.2275  1.2943 -0.3197
19562SOL    HW264524   6.777   8.359   8.472  1.4547  0.5435 -1.0149
19563SOL     OW64525  11.026   5.465   1.428 -0.4144 -0.5536 -0.0447
19563SOL    HW164526  11.007   5.382   1.472 -1.2254 -0.8345 -0.8715
19563SOL    HW264527  10.969   5.464   1.350  0.7695  0.0304 -0.9580
19564SOL     OW64528   0.537   3.447   3.702 -0.7325 -0.2562  0.2060
19564SOL    HW164529   0.560   3.450   3.795 -1.6280 -1.7695  0.5183
19564SOL    HW264530   0.562   3.533   3.668  1.1372 -0.2410  1.4668
19565SOL     OW64531   7.649  11.758   7.828 -0.0953  0.3110 -0.0945
19565SOL    HW164532   7.671  11.674   7.788  1.0292  0.8413 -0.6436
19565SOL    HW264533   7.557  11.773   7.805  0.1379 -0.0442 -1.2989
19566SOL     OW64534   2.861   9.730   5.684 -0.1746 -0.0998 -0.1202
19566SOL    HW164535   2.806   9.784   5.740  0.0656  0.8479 -0.7735
19566SOL    HW264536   2.830   9.640   5.699  1.5638 -0.2819  3.5007
19567SOL     OW64537   8.373   2.082   5.648  0.1188  0.1081  0.2907
19567SOL    HW164538   8.312   2.089   5.574 -0.8117  0.3876  1.0690
19567SOL    HW264539   8.397   2.172   5.667  0.0881  0.0615  0.5493
19568SOL     OW64540   5.614   6.160   6.648 -0.3269 -0.0963  0.2185
19568SOL    HW164541   5.533   6.113   6.669 -0.4410  0.7063  1.7741
19568SOL    HW264542   5.585   6.245   6.617 -0.1041  0.2011  0.7988
19569SOL     OW64543   9.481   9.109   9.565  0.0513 -0.1065 -0.0729
19569SOL    HW164544   9.531   9.144   9.639 -0.6941 -1.8871  1.3386
19569SOL    HW264545   9.540   9.119   9.490  1.3173  0.6207  0.9691
19570SOL     OW64546   9.086   0.553   2.076  1.1241  0.2857 -0.4986
19570SOL    HW164547   9.126   0.466   2.073  0.5554 -0.0710  1.1384
19570SOL    HW264548   9.120   0.593   2.156 -0.3161  0.6990 -0.0504
19571SOL     OW64549  10.576   3.536  11.259 -0.1148 -0.1408  0.2583
19571SOL    HW164550  10.574   3.628  11.285  1.4140 -0.6246  2.3401
19571SOL    HW264551  10.577   3.539  11.164  1.9045  2.1184  0.2241
19572SOL     OW64552  10.702   1.684   0.723  0.4611 -0.0406  0.1283
19572SOL    HW164553  10.643   1.620   0.683 -1.5479  1.3373  0.7145
19572SOL    HW264554  10.696   1.761   0.665  0.3834  0.6853  1.0822
19573SOL     OW64555   3.456  11.597   1.285  0.8330 -0.1947 -0.2852
19573SOL    HW164556   3.523  11.643   1.336  0.1244  0.0582  0.4570
19573SOL    HW264557   3.422  11.530   1.344  0.7436 -0.6131 -0.8055
19574SOL     OW64558   5.998   9.609   5.039  0.0819 -0.1648 -0.2565
19574SOL    HW164559   5.929   9.670   5.014  0.4393 -0.3473 -1.7754
19574SOL    HW264560   5.990   9.537   4.977  0.6750 -0.9207  0.5163
19575SOL     OW64561   5.445   8.316   0.164  0.1338  0.6905  0.0435
19575SOL    HW164562   5.503   8.391   0.149 -1.2278  2.2171  1.9002
19575SOL    HW264563   5.492   8.262   0.228  1.3491 -0.3902 -1.6839
19576SOL     OW64564   7.743   4.566   3.881  0.3845  0.2745 -0.1855
19576SOL    HW164565   7.806   4.530   3.943 -1.0733 -0.0991  1.1477
19576SOL    HW264566   7.746   4.660   3.895  0.0220  0.1875  0.5293
19577SOL     OW64567   6.832   7.012   5.854 -0.2874 -0.2281 -0.2724
19577SOL    HW164568   6.861   7.055   5.773 -3.8480  0.9463 -1.1147
19577SOL    HW264569   6.848   7.077   5.922  0.9861 -0.4761 -0.3139
19578SOL     OW64570  10.940   0.524   4.723  0.4136 -0.3573  0.7192
19578SOL    HW164571  10.869   0.588   4.732 -0.6199 -1.0647 -1.5440
19578SOL    HW264572  10.898   0.439   4.741  0.3914 -0.8691 -1.4266
19579SOL     OW64573  10.253   0.598   0.386  0.3240  0.1966  0.5501
19579SOL    HW164574  10.157   0.594   0.392  0.4014 -0.1880  1.7966
19579SOL    HW264575  10.269   0.647   0.305 -0.9409  1.2800  0.9040
19580SOL     OW64576   9.635   5.761   6.275  0.1174  0.2206  0.1221
19580SOL    HW164577   9.662   5.674   6.305 -0.2078  0.5962  1.5411
19580SOL    HW264578   9.539   5.757   6.271  0.1180  0.4157 -0.1466
19581SOL     OW64579   8.366   0.250   1.192  0.6555 -0.2698 -0.2446
19581SOL    HW164580   8.323   0.304   1.258 -2.0764 -1.3620 -0.9817
19581SOL    HW264581   8.407   0.313   1.132  0.5731  0.8313  0.8201
19582SOL     OW64582   1.127   5.512   7.342 -0.3105  0.1064 -0.4503
19582SOL    HW164583   1.104   5.586   7.286  0.1911  0.1859 -0.5641
19582SOL    HW264584   1.047   5.459   7.348 -0.4142  0.1773 -1.1227
19583SOL     OW64585   1.997   2.246   1.532 -0.0382  0.4234 -0.1944
19583SOL    HW164586   1.937   2.172   1.529  0.4271  0.0064  0.6822
19583SOL    HW264587   1.992   2.283   1.444  1.6327 -2.1559 -1.4876
19584SOL     OW64588  12.064   0.968   1.212  0.1274  0.5518  0.1133
19584SOL    HW164589  12.101   0.899   1.267  0.0436 -0.1180 -0.6511
19584SOL    HW264590  12.013   1.022   1.272 -0.5872 -0.5979  0.5701
19585SOL     OW64591  10.440   6.699  10.825  0.2385  0.2492  0.1203
19585SOL    HW164592  10.396   6.784  10.829 -1.1478 -0.3957 -0.7035
19585SOL    HW264593  10.377   6.641  10.782  2.2294 -0.5223 -1.9714
19586SOL     OW64594   1.191  12.051   4.483  0.5585  0.0561 -0.3704
19586SOL    HW164595   1.260  12.063   4.418  0.7570  1.0813  0.0063
19586SOL    HW264596   1.235  12.012   4.558  0.6178  0.1732 -0.3436
19587SOL     OW64597   3.528  12.215   9.786 -0.1324  0.1823  0.1315
19587SOL    HW164598   3.623  12.224   9.779 -0.1209 -0.7941 -1.4226
19587SOL    HW264599   3.495  12.304   9.793  1.0545  0.5369  4.4538
19588SOL     OW64600   3.419   3.437   4.179  0.6596 -0.5515  0.5241
19588SOL    HW164601   3.399   3.524   4.214 -0.3310 -0.9210  0.9037
19588SOL    HW264602   3.370   3.377   4.234 -1.0520 -1.1464 -1.5034
19589SOL     OW64603   1.206   6.473   6.308  0.3393  0.2275 -0.1057
19589SOL    HW164604   1.186   6.561   6.340 -1.3516 -0.3028  0.4343
19589SOL    HW264605   1.252   6.430   6.380  0.1535  0.3154  0.0651
19590SOL     OW64606  12.187   5.751  10.727  0.5683 -0.1284  0.0928
19590SOL    HW164607  12.156   5.735  10.638  1.2300 -1.3124  0.0515
19590SOL    HW264608  12.109   5.742  10.781  0.4676 -1.2257 -0.1964
19591SOL     OW64609   5.517   0.491  12.252 -0.2660 -0.6675  0.8898
19591SOL    HW164610   5.431   0.489  12.209  0.9190 -1.1952 -1.5830
19591SOL    HW264611   5.517   0.414  12.309 -1.3349 -0.8020  0.7315
19592SOL     OW64612  12.258   0.914  11.641  0.4825  0.1384 -0.2585
19592SOL    HW164613  12.335   0.862  11.663  1.2851 -0.2476 -3.4414
19592SOL    HW264614  12.186   0.872  11.687  1.5101 -2.2490 -0.6872
19593SOL     OW64615   8.312   2.845   2.818 -0.3454 -0.0842  0.3289
19593SOL    HW164616   8.377   2.850   2.748 -1.5579  1.9807 -0.7586
19593SOL    HW264617   8.289   2.753   2.824 -0.1349 -0.3204 -1.9427
19594SOL     OW64618   0.419   8.952  10.304  0.4683  0.2568  0.1079
19594SOL    HW164619   0.389   8.965  10.214 -3.2973 -2.7978  0.6290
19594SOL    HW264620   0.420   9.039  10.343 -2.4975  1.2393 -1.7060
19595SOL     OW64621  11.913   2.214   8.424  0.0617 -0.2295  0.6435
19595SOL    HW164622  11.835   2.233   8.476 -0.3534 -0.4485  0.1088
19595SOL    HW264623  11.880   2.162   8.351  0.7813 -0.7384  0.6752
19596SOL     OW64624  11.820  10.750   8.380  0.0950  0.0459  0.0584
19596SOL    HW164625  11.774  10.758   8.464  0.0617  3.4153 -0.1193
19596SOL    HW264626  11.905  10.793   8.396  0.0654  0.7824 -1.5927
19597SOL     OW64627   5.404  12.247   3.120 -0.2472  0.1304 -0.1873
19597SOL    HW164628   5.338  12.179   3.133 -1.2655  1.3917  1.7447
19597SOL    HW264629   5.385  12.282   3.033  0.8887 -2.5636 -1.6480
19598SOL     OW64630   8.191   5.790   7.408  0.1147 -0.3801  0.3161
19598SOL    HW164631   8.241   5.797   7.327  1.1047  0.9243  1.0082
19598SOL    HW264632   8.230   5.714   7.453 -0.5363 -1.2005 -0.4650
19599SOL     OW64633   6.525   4.142   4.732 -0.1167 -0.1149  0.0098
19599SOL    HW164634   6.444   4.129   4.781 -0.2170  1.2901  0.2595
19599SOL    HW264635   6.508   4.100   4.647 -0.7079 -0.7362  0.4242
19600SOL     OW64636  11.373   1.434  10.241 -0.3250  0.0317  0.1576
19600SOL    HW164637  11.327   1.359  10.278 -0.9229 -0.7243 -1.9751
19600SOL    HW264638  11.463   1.405  10.230 -0.0948  0.3327  1.1540
19601SOL     OW64639   1.726   8.187   5.218  0.0680 -0.1755 -0.0094
19601SOL    HW164640   1.637   8.167   5.188 -0.0626  0.6701 -0.2273
19601SOL    HW264641   1.776   8.108   5.200 -0.5592 -0.5274 -0.2439
19602SOL     OW64642   3.447   8.944   7.055  0.3504  0.0351 -0.5468
19602SOL    HW164643   3.466   8.917   6.966  1.3473  0.3754 -0.4614
19602SOL    HW264644   3.524   8.995   7.081  0.6645 -1.1089  0.9389
19603SOL     OW64645   3.167   6.522  10.542  0.0792 -0.4930 -0.5220
19603SOL    HW164646   3.201   6.480  10.462 -1.1301 -1.7624 -0.4078
19603SOL    HW264647   3.155   6.449  10.603  0.2532  0.3728  0.5680
19604SOL     OW64648   9.796   1.809   5.277  0.0253  1.2365 -0.1628
19604SOL    HW164649   9.841   1.753   5.340  0.2391 -1.1825 -2.3173
19604SOL    HW264650   9.711   1.826   5.316  0.3595  0.3094  1.0313
19605SOL     OW64651  10.052   6.066   6.824  0.4811  0.0621 -0.1843
19605SOL    HW164652  10.105   6.078   6.903 -0.5914 -0.6971  0.6821
19605SOL    HW264653   9.980   6.010   6.852 -0.3705  0.4495 -1.5179
19606SOL     OW64654  11.131   3.395   8.399  0.4996  0.2386 -0.0534
19606SOL    HW164655  11.115   3.447   8.320  1.0332 -2.2650 -1.9570
19606SOL    HW264656  11.044   3.381   8.437  0.3374  2.3541  0.4867
19607SOL     OW64657   5.038  10.504   0.236  0.3161  0.4465 -0.7555
19607SOL    HW164658   5.022  10.442   0.307  2.8669  0.0875 -0.3834
19607SOL    HW264659   4.975  10.481   0.169 -0.9175 -0.4328  0.6389
19608SOL     OW64660   5.438   8.437   9.713  0.1844 -0.0979  0.2945
19608SOL    HW164661   5.456   8.409   9.623 -0.2969  1.9767 -0.5253
19608SOL    HW264662   5.363   8.384   9.740  0.7981 -1.2749 -0.2360
19609SOL     OW64663   0.480   4.254  11.103  0.3359 -0.0370  0.0981
19609SOL    HW164664   0.529   4.205  11.037  0.6591  1.1284 -0.5573
19609SOL    HW264665   0.545   4.313  11.142 -0.4485  1.2970 -0.5462
19610SOL     OW64666   4.353  11.321   9.748 -0.1756  0.7504  0.3618
19610SOL    HW164667   4.305  11.371   9.814  0.0400  0.2172  0.9287
19610SOL    HW264668   4.379  11.387   9.683 -1.4154  1.1003  0.1828
19611SOL     OW64669   5.851   9.625   8.290 -0.0812 -0.0630  0.0368
19611SOL    HW164670   5.894   9.539   8.291 -0.2344 -0.1402  0.0003
19611SOL    HW264671   5.760   9.606   8.270 -0.5455 -0.0781  1.9864
19612SOL     OW64672   9.086   0.644   5.776 -0.3243  0.2011  0.4514
19612SOL    HW164673   9.104   0.599   5.859 -1.1350 -1.3715 -0.1753
19612SOL    HW264674   9.020   0.589   5.733  0.9548  0.3092 -1.7799
19613SOL     OW64675   0.713   6.650  11.869 -0.4763 -0.3702  0.1575
19613SOL    HW164676   0.678   6.561  11.863 -0.6006 -0.3576  0.6188
19613SOL    HW264677   0.670   6.698  11.799  0.9283 -1.0980 -1.2629
19614SOL     OW64678  11.383   8.640   6.033 -0.3932  0.2674  0.5067
19614SOL    HW164679  11.463   8.662   6.081  0.7518  1.6369 -1.8526
19614SOL    HW264680  11.392   8.685   5.949 -2.2676 -1.9841 -1.0311
19615SOL     OW64681   7.948   9.758   7.324 -0.4269  0.3448 -0.1031
19615SOL    HW164682   7.998   9.837   7.305  0.4438 -0.4597 -1.3219
19615SOL    HW264683   7.931   9.719   7.238 -0.1953 -1.1818  0.5081
19616SOL     OW64684   2.210   0.447  12.226  0.1012  0.0316  0.1122
19616SOL    HW164685   2.156   0.369  12.213 -0.0712  0.0076  0.9068
19616SOL    HW264686   2.148   0.520  12.223  0.2962  0.1714 -0.8834
19617SOL     OW64687  11.686  11.817   6.880  0.1314  0.3861  0.1329
19617SOL    HW164688  11.656  11.726   6.880  1.0339  0.0543  2.0379
19617SOL    HW264689  11.683  11.843   6.787 -0.6375 -1.3945 -0.3804
19618SOL     OW64690  12.257   3.618   7.750 -0.1714  0.0152  0.4338
19618SOL    HW164691  12.223   3.532   7.723  0.2076  0.1322 -0.4776
19618SOL    HW264692  12.278   3.662   7.667  0.3808  0.6815  0.9151
19619SOL     OW64693   0.319   1.474   1.693  0.6197  0.9373 -0.0678
19619SOL    HW164694   0.240   1.430   1.661  0.6138  0.3339  0.7432
19619SOL    HW264695   0.382   1.403   1.708  1.0894  1.3478 -0.0696
19620SOL     OW64696   6.228   0.108   3.251 -0.4879 -0.1335 -0.1737
19620SOL    HW164697   6.293   0.151   3.195 -0.6590  0.3660  0.0081
19620SOL    HW264698   6.265   0.112   3.339 -0.6683 -0.0224 -0.1002
19621SOL     OW64699   3.620   2.104   3.322  0.1205 -0.4924  0.0021
19621SOL    HW164700   3.610   2.024   3.375 -2.2332 -0.1386  0.1560
19621SOL    HW264701   3.531   2.130   3.299  0.9787  0.3498 -2.7351
19622SOL     OW64702  11.749   5.401   5.046 -0.0410  0.5981 -0.4222
19622SOL    HW164703  11.776   5.310   5.033 -1.1428  0.2553 -0.3885
19622SOL    HW264704  11.811   5.452   4.993 -0.5090 -0.3086 -1.9043
19623SOL     OW64705   1.196   4.982   4.964  0.0389  0.2441  0.2942
19623SOL    HW164706   1.280   5.025   4.976  0.3085 -0.0105 -0.5737
19623SOL    HW264707   1.210   4.923   4.890 -0.5882 -0.6201  0.8383
19624SOL     OW64708   0.684   6.734   4.302  0.2912 -0.3808 -0.5310
19624SOL    HW164709   0.632   6.775   4.233  1.1863  1.6773 -0.0571
19624SOL    HW264710   0.749   6.801   4.326 -0.2786 -0.7969  2.6074
19625SOL     OW64711   0.663   0.611   1.879  0.0905 -0.0208 -0.1211
19625SOL    HW164712   0.695   0.579   1.795 -1.8921  0.2362 -1.0332
19625SOL    HW264713   0.661   0.534   1.936  2.3075 -0.0271  0.0334
19626SOL     OW64714   3.681   5.810   4.348 -0.7506  0.5131 -0.2754
19626SOL    HW164715   3.733   5.747   4.399 -0.6613  1.4751  0.8722
19626SOL    HW264716   3.699   5.788   4.257 -0.3828 -0.8354  0.0975
19627SOL     OW64717   1.640   7.551   5.165 -0.0978  0.1228 -0.4234
19627SOL    HW164718   1.582   7.540   5.241  1.8975 -0.7385  1.0639
19627SOL    HW264719   1.619   7.476   5.109 -0.2505 -0.3275  0.2163
19628SOL     OW64720   1.729   1.605   5.034  0.8507 -0.5421  0.8390
19628SOL    HW164721   1.786   1.584   4.961  0.7785 -0.3919  0.7390
19628SOL    HW264722   1.756   1.693   5.061 -1.9458  1.3058 -1.7725
19629SOL     OW64723   3.729   3.673   6.987  0.2949  0.7037  0.4027
19629SOL    HW164724   3.823   3.680   7.003  0.3122 -0.5952  0.9625
19629SOL    HW264725   3.713   3.732   6.914  1.1465  2.6763  1.7376
19630SOL     OW64726   7.723   2.956   6.971  0.2743  0.3223 -0.1273
19630SOL    HW164727   7.731   2.957   7.067 -3.6258 -0.1309  0.3909
19630SOL    HW264728   7.723   2.863   6.948  1.3781  0.4345 -0.6426
19631SOL     OW64729   6.088   1.542   5.012  0.5556  0.3828 -0.3194
19631SOL    HW164730   6.129   1.456   5.019  0.6986  0.5672  1.7014
19631SOL    HW264731   6.049   1.543   4.925 -0.7025 -2.2976  0.1215
19632SOL     OW64732  11.694   3.543   8.856  0.2161  0.0639 -0.0853
19632SOL    HW164733  11.643   3.551   8.775 -2.9494  1.6380  1.8775
19632SOL    HW264734  11.653   3.471   8.903  1.6467 -0.4568  0.4037
19633SOL     OW64735   1.997   4.697   8.373  0.4098 -0.0734  0.4498
19633SOL    HW164736   2.001   4.628   8.306 -4.0057 -0.3073  0.1044
19633SOL    HW264737   1.986   4.649   8.456 -2.7219 -0.0052  0.2042
19634SOL     OW64738   4.270   3.436   7.424  0.0375 -0.0900 -0.4294
19634SOL    HW164739   4.325   3.507   7.389 -0.8982 -0.0647 -1.9418
19634SOL    HW264740   4.290   3.361   7.367  1.3544 -1.2340  1.4276
19635SOL     OW64741   2.057   4.029   2.039 -0.0107 -0.0419  0.1685
19635SOL    HW164742   2.006   4.103   2.072  0.2591  0.3359 -0.2489
19635SOL    HW264743   2.107   4.065   1.966 -0.1373 -0.7262 -0.2630
19636SOL     OW64744   9.664   2.055   5.859  0.2705  0.2299 -0.1785
19636SOL    HW164745   9.579   2.021   5.884  0.9763 -0.2279  1.7958
19636SOL    HW264746   9.711   1.980   5.823  0.1460  0.2741 -0.4333
19637SOL     OW64747   0.256   9.394  11.878  0.1063 -0.0294  0.1146
19637SOL    HW164748   0.180   9.347  11.913 -0.3697 -0.4028 -1.3288
19637SOL    HW264749   0.302   9.426  11.955 -0.9541 -0.6864  1.0592
19638SOL     OW64750   4.551   0.087  12.138  0.3219 -0.3770 -0.1693
19638SOL    HW164751   4.591   0.027  12.202 -0.1425  0.5569  1.0281
19638SOL    HW264752   4.460   0.058  12.132 -0.5607  1.5855  2.2320
19639SOL     OW64753   6.873   0.966  11.018  0.7634 -0.0711 -0.4652
19639SOL    HW164754   6.856   0.901  10.950 -0.6467 -0.4944  0.2533
19639SOL    HW264755   6.799   1.027  11.013  0.6119 -0.1372  0.7145
19640SOL     OW64756   8.072   9.243   4.111  0.2218 -0.4276 -0.8041
19640SOL    HW164757   8.043   9.332   4.130  0.0949 -0.8601  1.3150
19640SOL    HW264758   8.005   9.187   4.150  0.6907 -1.4541 -1.4246
19641SOL     OW64759   1.742   7.438   9.916  0.2712  0.1445 -0.3430
19641SOL    HW164760   1.664   7.382   9.921  0.2889  0.2349  1.6067
19641SOL    HW264761   1.788   7.423   9.999  0.8249  2.2657 -0.2103
19642SOL     OW64762  10.352   7.660   3.724 -0.3686  0.2628 -0.4603
19642SOL    HW164763  10.343   7.743   3.772  1.2593 -0.3014  0.9306
19642SOL    HW264764  10.375   7.687   3.635  2.9743  1.3858  0.6058
19643SOL     OW64765   7.795   8.601   7.089  0.1317  0.4033  0.3696
19643SOL    HW164766   7.784   8.608   7.184 -0.0651  1.0053  0.3107
19643SOL    HW264767   7.742   8.673   7.054 -0.1109 -0.0532 -0.2183
19644SOL     OW64768   7.085   7.421  10.935  0.0659 -0.1298  0.7229
19644SOL    HW164769   7.166   7.420  10.986  0.1631  1.5081  0.6775
19644SOL    HW264770   7.015   7.406  10.999  0.3282 -0.3962  0.9475
19645SOL     OW64771   7.966   6.740   3.545 -0.3218  0.0654  0.3061
19645SOL    HW164772   8.001   6.704   3.626 -0.1622  0.5455  0.4569
19645SOL    HW264773   8.044   6.764   3.494 -0.3983  1.3546  0.7386
19646SOL     OW64774   2.352   4.567   2.461  0.0252 -0.1219  0.6661
19646SOL    HW164775   2.423   4.503   2.448  0.2843 -0.0849  1.7927
19646SOL    HW264776   2.281   4.535   2.405  1.3530  0.5728 -1.5354
19647SOL     OW64777   6.353   6.847   0.915  0.2797  0.3736 -0.3037
19647SOL    HW164778   6.424   6.856   0.978  0.8548  1.9410 -1.1207
19647SOL    HW264779   6.317   6.935   0.906 -1.4225 -0.2780 -0.3380
19648SOL     OW64780  12.024  11.930   0.741  0.0077  0.5115  0.0346
19648SOL    HW164781  12.116  11.929   0.715 -0.0946 -1.1163 -0.4173
19648SOL    HW264782  11.976  11.927   0.658 -0.3508 -2.2860  0.2247
19649SOL     OW64783   7.147  12.250   1.286  0.2084  0.3035 -0.1314
19649SOL    HW164784   7.085  12.209   1.346  1.4360  0.8378  1.5605
19649SOL    HW264785   7.093  12.305   1.229 -0.9123  0.3243  0.9308
19650SOL     OW64786   0.189   4.593   1.477 -0.3774 -0.3347 -0.3722
19650SOL    HW164787   0.215   4.609   1.568  0.6069  1.2504 -0.8772
19650SOL    HW264788   0.265   4.621   1.426 -1.3183 -0.1612 -1.7292
19651SOL     OW64789   3.566   4.981   3.537  0.2868 -0.3251  0.1375
19651SOL    HW164790   3.519   5.045   3.483  0.2652 -0.6307 -0.2067
19651SOL    HW264791   3.583   4.907   3.478 -0.4734 -1.0178  0.7745
19652SOL     OW64792   8.899   6.449   1.251 -0.0217 -0.0594  0.1968
19652SOL    HW164793   8.992   6.468   1.238  0.5817 -1.6077  1.7892
19652SOL    HW264794   8.897   6.357   1.278 -1.6286  0.7940  3.5251
19653SOL     OW64795   3.230  10.445   2.210 -0.4559  0.0879 -0.5794
19653SOL    HW164796   3.305  10.472   2.157 -0.3956  1.3748  0.1185
19653SOL    HW264797   3.154  10.483   2.166 -0.6555 -0.6729 -0.9238
19654SOL     OW64798   8.407   3.150   6.253 -0.3634 -0.3912 -0.3509
19654SOL    HW164799   8.404   3.239   6.289  1.0546 -0.4957  0.0551
19654SOL    HW264800   8.342   3.101   6.304  0.3067 -0.0845  0.8210
19655SOL     OW64801   9.769   5.800   0.367 -0.2667 -0.7546 -0.2690
19655SOL    HW164802   9.774   5.707   0.346  2.6549 -0.4155 -1.5471
19655SOL    HW264803   9.859   5.826   0.384 -0.6107  2.3790 -2.4820
19656SOL     OW64804   0.928   0.696   4.482 -0.1741 -0.3706  1.1265
19656SOL    HW164805   0.949   0.676   4.391 -0.3447  1.3819  0.6660
19656SOL    HW264806   0.949   0.616   4.530  2.4018 -0.4882 -0.0616
19657SOL     OW64807   4.616   9.957   9.129  0.0121 -0.6717  0.2491
19657SOL    HW164808   4.561   9.981   9.055 -1.2092 -0.1218  1.2852
19657SOL    HW264809   4.623  10.037   9.181  0.8999 -1.0258  0.7004
19658SOL     OW64810   3.057   8.891  12.120  0.4939  0.2657  0.6240
19658SOL    HW164811   3.011   8.917  12.200 -1.1772  0.5159 -0.3763
19658SOL    HW264812   3.118   8.824  12.149 -0.6943 -0.2870  1.9950
19659SOL     OW64813   6.820   6.948   8.912 -0.0450  0.0491 -0.1972
19659SOL    HW164814   6.838   6.972   8.821 -1.1003 -0.2255 -0.4904
19659SOL    HW264815   6.793   7.030   8.953 -0.4125  0.0166 -0.3630
19660SOL     OW64816   3.105   9.873   8.297 -0.0495 -0.2324 -0.0308
19660SOL    HW164817   3.177   9.845   8.240 -0.9178  0.5115 -1.5608
19660SOL    HW264818   3.086   9.963   8.270 -0.5932  0.0850  1.3518
19661SOL     OW64819   9.567  10.298  11.215 -0.1053  0.2063 -0.1499
19661SOL    HW164820   9.529  10.385  11.204 -0.2401  0.4686  1.9133
19661SOL    HW264821   9.635  10.310  11.282  1.7903 -0.7756 -1.8067
19662SOL     OW64822   0.339  12.218   3.512 -0.0087 -0.0029 -0.4108
19662SOL    HW164823   0.316  12.286   3.449 -0.3566  0.0873 -0.1873
19662SOL    HW264824   0.299  12.246   3.595 -0.6520 -0.7577 -0.4461
19663SOL     OW64825   7.449   3.608   0.126 -0.0252 -0.2109 -0.4622
19663SOL    HW164826   7.432   3.549   0.199 -1.6560 -0.4362 -0.9789
19663SOL    HW264827   7.543   3.601   0.111  0.2740 -0.5061  1.2988
19664SOL     OW64828   2.102   4.033   8.644  0.1208  0.0791 -0.3235
19664SOL    HW164829   2.055   4.030   8.561 -0.7367  3.6635 -0.1253
19664SOL    HW264830   2.128   4.125   8.654  1.5294 -0.5161  2.6695
19665SOL     OW64831   4.183  11.538   2.075  0.5154 -0.0834  0.1979
19665SOL    HW164832   4.115  11.505   2.017  0.7423 -0.5783  0.2048
19665SOL    HW264833   4.187  11.632   2.058 -0.2054 -0.0444  0.2413
19666SOL     OW64834   0.577   5.410  12.118 -0.5650 -0.2435  0.1835
19666SOL    HW164835   0.561   5.385  12.028  2.3347  0.3374 -0.5938
19666SOL    HW264836   0.527   5.491  12.130 -0.8938 -0.2779 -0.9195
19667SOL     OW64837   2.961   2.888   5.061  0.9244  0.3707 -0.1751
19667SOL    HW164838   2.905   2.958   5.094  0.1821  0.2181 -1.0656
19667SOL    HW264839   2.988   2.840   5.140 -2.3190 -1.1272  0.1763
19668SOL     OW64840   0.381   9.201   9.726 -0.4531 -0.1764  0.6124
19668SOL    HW164841   0.432   9.120   9.724 -0.5548 -0.2387 -0.7838
19668SOL    HW264842   0.444   9.270   9.707 -0.9436 -0.3516 -2.2078
19669SOL     OW64843   3.938  10.559  11.560  0.1015  0.6252 -0.1007
19669SOL    HW164844   3.976  10.647  11.562 -0.2922  0.7829  0.8020
19669SOL    HW264845   3.867  10.562  11.623  0.4697 -0.5317  0.3957
19670SOL     OW64846  11.618   6.690   7.159 -0.1998 -0.6385 -0.0954
19670SOL    HW164847  11.560   6.748   7.109  1.3075  1.2830  0.2665
19670SOL    HW264848  11.620   6.729   7.247  1.5341 -0.7080 -0.0797
19671SOL     OW64849   8.043   9.856   6.588  0.0007 -0.1380  0.2006
19671SOL    HW164850   8.055   9.948   6.609  1.5357 -0.2761  0.0480
19671SOL    HW264851   8.000   9.857   6.502  0.9229  0.4509 -0.2679
19672SOL     OW64852   8.298   2.385   6.687  0.5703 -0.1541 -0.4476
19672SOL    HW164853   8.381   2.400   6.643  2.7559 -2.0845  2.6440
19672SOL    HW264854   8.257   2.313   6.638  2.0220 -1.0146 -0.4401
19673SOL     OW64855   4.639   6.741   4.944 -0.2784 -0.6181 -0.2641
19673SOL    HW164856   4.614   6.677   5.010  1.5064  0.3920  1.5174
19673SOL    HW264857   4.610   6.825   4.980  0.0937 -0.1158 -1.1009
19674SOL     OW64858   9.466   0.291   1.065  0.1003 -0.1169 -0.0007
19674SOL    HW164859   9.523   0.214   1.071  0.6654  0.3333  0.4228
19674SOL    HW264860   9.461   0.309   0.971  0.5281 -0.2560 -0.0512
19675SOL     OW64861   7.499   2.218   3.480 -0.4536  0.2382 -0.4643
19675SOL    HW164862   7.537   2.229   3.392 -1.6324  1.0535 -0.9043
19675SOL    HW264863   7.467   2.128   3.481  0.1088  0.0305 -0.6434
19676SOL     OW64864   3.754   5.039   8.597  0.3229  0.2344 -0.0999
19676SOL    HW164865   3.689   4.969   8.611  0.2892 -0.3360 -2.7449
19676SOL    HW264866   3.707   5.119   8.620 -0.1470 -0.4380  1.4463
19677SOL     OW64867   4.544   5.928  12.313 -0.1880 -0.5625 -0.1487
19677SOL    HW164868   4.602   5.862  12.351 -0.6634 -0.8488  0.0812
19677SOL    HW264869   4.463   5.881  12.294  0.3727 -0.6916 -2.4869
19678SOL     OW64870   5.557   6.958   2.455  0.0289 -0.3334  0.4310
19678SOL    HW164871   5.584   6.886   2.398  1.7625 -0.0692  0.8614
19678SOL    HW264872   5.634   6.976   2.509 -0.7685  1.0479  1.1643
19679SOL     OW64873   8.398   1.211   3.485 -0.2783 -0.4510 -0.2733
19679SOL    HW164874   8.419   1.215   3.392 -1.4558  0.2542 -0.5317
19679SOL    HW264875   8.460   1.271   3.526 -0.3371 -0.0704 -0.7291
19680SOL     OW64876  10.977   6.689   1.356  0.5517  0.0907 -0.3201
19680SOL    HW164877  11.009   6.775   1.330  0.9709  1.1202  3.1368
19680SOL    HW264878  10.890   6.705   1.394  0.9567 -0.8244  1.0872
19681SOL     OW64879   7.812   5.878   1.395  0.4436  0.5044  0.3191
19681SOL    HW164880   7.906   5.878   1.410  0.6321 -0.0412 -0.7374
19681SOL    HW264881   7.798   5.807   1.332 -0.5938  0.9713  0.0008
19682SOL     OW64882   6.068   5.990   8.116 -0.3782 -0.8631 -0.0319
19682SOL    HW164883   6.069   5.943   8.199  0.5395 -1.7071 -0.5051
19682SOL    HW264884   6.025   6.073   8.136 -0.8487 -1.3649  1.1079
19683SOL     OW64885   4.777  11.365   6.995  0.0718  0.0212 -0.2766
19683SOL    HW164886   4.722  11.377   6.918  1.4731  0.5516 -1.2239
19683SOL    HW264887   4.724  11.310   7.053 -0.7965 -0.8678 -1.8325
19684SOL     OW64888   9.650   4.256   7.695 -0.1906  0.0199  0.1773
19684SOL    HW164889   9.673   4.164   7.708  0.9755  0.4737  1.6731
19684SOL    HW264890   9.722   4.292   7.644 -1.9339 -0.4124 -2.8632
19685SOL     OW64891   2.365   9.990   1.441 -0.6998 -0.3504 -0.1732
19685SOL    HW164892   2.342  10.076   1.408 -0.8679 -0.3893 -0.1555
19685SOL    HW264893   2.461   9.988   1.438 -0.7325 -0.5872 -1.2368
19686SOL     OW64894   5.554   8.256   6.952 -0.1338  0.3669 -0.0237
19686SOL    HW164895   5.473   8.206   6.963  1.5305 -2.1169  2.0675
19686SOL    HW264896   5.586   8.270   7.041  1.7317  1.3524 -0.7898
19687SOL     OW64897   1.139   1.197   5.517  0.3587 -0.3503  0.0775
19687SOL    HW164898   1.108   1.236   5.435 -0.9053  0.6258  0.9787
19687SOL    HW264899   1.126   1.103   5.505  1.1277 -0.3095 -1.2074
19688SOL     OW64900   3.712   0.280   0.449 -0.3868 -0.1590  0.2886
19688SOL    HW164901   3.716   0.366   0.491 -2.3146 -0.8385  1.9924
19688SOL    HW264902   3.626   0.246   0.472 -0.8182 -1.4102 -2.7212
19689SOL     OW64903   1.903   0.775   7.815  0.3379 -0.0072 -0.0683
19689SOL    HW164904   1.955   0.847   7.852 -0.1717  0.3020  0.0600
19689SOL    HW264905   1.898   0.710   7.886 -2.6743  1.6092  1.3983
19690SOL     OW64906  12.315   0.221  11.959  0.6310  0.5008  0.5977
19690SOL    HW164907  12.231   0.261  11.940  0.8671  1.4719  1.5198
19690SOL    HW264908  12.377   0.268  11.903  0.7697  0.7914  0.9915
19691SOL     OW64909   8.744   5.138   8.239 -0.1027 -0.4088  0.2711
19691SOL    HW164910   8.725   5.045   8.226 -0.8641 -0.2391  0.1399
19691SOL    HW264911   8.662   5.175   8.273 -1.0801  0.9650 -3.1829
19692SOL     OW64912   8.246  12.024   5.762 -0.0381  0.0081 -0.4164
19692SOL    HW164913   8.306  12.096   5.745 -0.2414 -0.1080 -1.7398
19692SOL    HW264914   8.159  12.062   5.750 -0.1511 -0.4281 -1.0414
19693SOL     OW64915   6.241  10.345   0.869  0.3036  0.3943  0.6184
19693SOL    HW164916   6.236  10.257   0.908 -0.4596 -0.8978 -2.0963
19693SOL    HW264917   6.326  10.347   0.825  0.6503  1.3286  1.3222
19694SOL     OW64918   3.850   6.820   2.214 -0.0489 -0.3905 -0.2842
19694SOL    HW164919   3.781   6.754   2.225  0.8853 -1.7962 -2.1709
19694SOL    HW264920   3.930   6.775   2.242  0.2984  0.8355  0.8035
19695SOL     OW64921   4.196   2.764   7.160  0.7656 -0.0358 -0.0010
19695SOL    HW164922   4.173   2.796   7.247  0.5955  0.6577 -0.2875
19695SOL    HW264923   4.235   2.678   7.174 -1.6030 -1.1072  0.5767
19696SOL     OW64924   4.589   2.100   3.495 -0.0963 -0.4937 -0.3008
19696SOL    HW164925   4.619   2.041   3.426 -1.3931 -1.0258 -0.4324
19696SOL    HW264926   4.517   2.148   3.455 -0.4482 -0.3515  0.4966
19697SOL     OW64927   1.366   5.000   3.355 -0.4350 -0.0461 -0.1878
19697SOL    HW164928   1.438   4.968   3.302  0.3915  1.5073 -0.0602
19697SOL    HW264929   1.296   5.018   3.292 -0.2437 -0.3020 -0.4748
19698SOL     OW64930   8.338   6.213   8.461  0.2461  0.6567 -0.3137
19698SOL    HW164931   8.263   6.223   8.403 -0.1463  2.0148  0.3868
19698SOL    HW264932   8.322   6.130   8.507 -0.5346  0.6595 -0.5695
19699SOL     OW64933   2.237   2.718  11.141 -0.3339 -0.7528 -0.6380
19699SOL    HW164934   2.146   2.695  11.161 -0.7644  1.2093 -0.1085
19699SOL    HW264935   2.234   2.752  11.052 -0.5993  1.4743  0.1610
19700SOL     OW64936  11.939   6.212   9.063 -0.3536  0.0632 -0.3517
19700SOL    HW164937  11.900   6.129   9.036  0.9880 -0.6532 -0.2107
19700SOL    HW264938  11.993   6.189   9.138  1.5817  0.6513 -1.4873
19701SOL     OW64939   4.414   6.318   6.606 -1.1525  0.3641 -0.6171
19701SOL    HW164940   4.325   6.334   6.638 -0.9904 -0.9637  0.6006
19701SOL    HW264941   4.471   6.338   6.680 -0.5447 -0.1099 -0.9451
19702SOL     OW64942   5.957   1.458   9.780  0.3999  0.1051  0.5123
19702SOL    HW164943   5.889   1.451   9.713  1.6875  0.2269 -0.8554
19702SOL    HW264944   5.911   1.445   9.863 -1.1747 -0.4188 -0.4134
19703SOL     OW64945   8.957  11.757   5.764 -0.1389  0.7282 -0.4519
19703SOL    HW164946   8.930  11.827   5.824  2.0483  0.3745  1.0508
19703SOL    HW264947   8.911  11.777   5.683 -1.9273  2.1801  0.8216
19704SOL     OW64948   3.702  10.677   1.553  0.2514  0.3669  0.6952
19704SOL    HW164949   3.744  10.734   1.618 -0.9998  1.7275  0.3680
19704SOL    HW264950   3.610  10.703   1.555  0.0252 -0.2209 -0.9514
19705SOL     OW64951   0.236   3.727   0.096 -0.3357  0.0062 -0.4810
19705SOL    HW164952   0.269   3.692   0.013  0.0692 -0.6964 -0.0467
19705SOL    HW264953   0.315   3.752   0.144 -0.3745 -1.8214  0.6317
19706SOL     OW64954  11.733  10.037   6.926 -0.1668 -0.0909  0.8071
19706SOL    HW164955  11.644  10.010   6.904  0.2652  0.6247 -2.1703
19706SOL    HW264956  11.789   9.970   6.888  0.6224  0.2538  1.3290
19707SOL     OW64957   4.303  10.592   5.745 -0.7145  0.3810  0.8534
19707SOL    HW164958   4.215  10.576   5.710 -1.0786  0.3395  1.7421
19707SOL    HW264959   4.343  10.505   5.748 -0.2221  0.5392 -0.5929
19708SOL     OW64960   5.902  11.457   2.580  0.0621  0.1590 -0.2168
19708SOL    HW164961   5.824  11.414   2.545 -0.1642 -0.9992  1.6304
19708SOL    HW264962   5.950  11.388   2.626  1.2589  1.2446  0.2407
19709SOL     OW64963   4.676   7.954   5.001  0.5511  0.9088 -0.2590
19709SOL    HW164964   4.653   8.036   5.045  0.6489  1.2702 -0.8643
19709SOL    HW264965   4.604   7.894   5.021  0.4457  1.1611  0.1287
19710SOL     OW64966   0.575   9.901   4.340  0.5835 -0.9370  0.1729
19710SOL    HW164967   0.605   9.824   4.292 -0.1005 -0.9776 -0.1983
19710SOL    HW264968   0.518   9.947   4.279  2.4201  0.8643 -0.2862
19711SOL     OW64969  11.424   3.245  10.055 -0.3796 -0.2782  0.1280
19711SOL    HW164970  11.406   3.203  10.139 -0.5850 -0.1316  0.1565
19711SOL    HW264971  11.492   3.309  10.074 -1.1538  0.4813  0.3914
19712SOL     OW64972   7.398   9.351  10.727 -0.2320 -0.1587  0.0824
19712SOL    HW164973   7.406   9.256  10.735  1.4633  0.1174  2.5828
19712SOL    HW264974   7.391   9.366  10.633  1.8056 -2.5964 -0.5666
19713SOL     OW64975   6.581   3.822   9.957  0.0938  0.5742  0.1326
19713SOL    HW164976   6.639   3.763   9.909 -0.0545 -0.0994  0.7704
19713SOL    HW264977   6.634   3.898   9.977  0.4004  0.4929 -0.3497
19714SOL     OW64978   9.565   6.244   2.433 -0.4433 -0.4432 -0.1696
19714SOL    HW164979   9.507   6.217   2.361 -0.9359  0.4484 -0.1213
19714SOL    HW264980   9.653   6.234   2.397 -0.6670 -0.5723 -0.6970
19715SOL     OW64981   7.386   7.623   3.895 -0.2010 -0.2673 -0.2001
19715SOL    HW164982   7.384   7.530   3.918  0.5333 -0.3099 -0.2891
19715SOL    HW264983   7.413   7.625   3.803 -0.5354  0.0209 -0.2936
19716SOL     OW64984   9.974   2.590   3.638 -0.5225  0.0841 -0.3262
19716SOL    HW164985   9.976   2.516   3.698  0.8643  0.3053 -0.0615
19716SOL    HW264986   9.884   2.593   3.605 -1.2289 -0.2129  1.5001
19717SOL     OW64987   5.879   2.633   1.603  0.4118  0.4759 -0.2861
19717SOL    HW164988   5.937   2.585   1.545 -0.6381 -1.7655  0.4028
19717SOL    HW264989   5.933   2.653   1.680  0.5313 -0.8700  0.0035
19718SOL     OW64990   4.735   6.275   7.535  0.9493  1.1208  0.3105
19718SOL    HW164991   4.766   6.185   7.550 -0.2124  1.0632  2.9074
19718SOL    HW264992   4.789   6.307   7.463  0.1075 -2.2652 -2.0500
19719SOL     OW64993   0.274   3.811   7.285 -0.8339 -0.2939  0.2806
19719SOL    HW164994   0.202   3.873   7.273 -0.2061  0.5013  0.5911
19719SOL    HW264995   0.245   3.755   7.357  0.4182  2.4559  3.1507
19720SOL     OW64996  11.727   2.734   4.121 -0.4214 -0.1826  0.5129
19720SOL    HW164997  11.660   2.677   4.158  0.9628 -1.3447  1.3213
19720SOL    HW264998  11.806   2.681   4.120  0.3898  0.9757 -0.9186
19721SOL     OW64999   9.692   9.205   3.414 -0.1310 -0.0991  0.3908
19721SOL    HW165000   9.621   9.146   3.440 -0.4086 -0.2256 -0.6029
19721SOL    HW265001   9.692   9.202   3.319 -0.7211  2.1526  0.2599
19722SOL     OW65002   5.462   6.530  10.077  0.2075 -0.0705 -0.2258
19722SOL    HW165003   5.458   6.560   9.986 -0.9694 -0.9901 -0.5021
19722SOL    HW265004   5.378   6.487  10.092 -0.2713  1.4525  1.8195
19723SOL     OW65005   8.126   7.718   0.112 -0.4988  0.2452  0.2404
19723SOL    HW165006   8.149   7.754   0.026  0.2517 -0.7927 -0.0061
19723SOL    HW265007   8.031   7.728   0.117 -0.6502 -0.3758 -1.0332
19724SOL     OW65008   9.647   8.744   2.053 -0.0436 -0.7034 -0.1833
19724SOL    HW165009   9.742   8.752   2.062 -0.0192 -0.2262 -0.8202
19724SOL    HW265010   9.635   8.670   1.994 -0.0721 -0.8028 -0.0533
19725SOL     OW65011   8.470   3.323   2.203  0.1617 -0.6568  0.2938
19725SOL    HW165012   8.491   3.237   2.240  0.5899 -0.9481 -0.5897
19725SOL    HW265013   8.542   3.342   2.143  0.1767  0.4235  0.6306
19726SOL     OW65014   3.075   9.549   4.167 -0.3887  0.2753 -0.1131
19726SOL    HW165015   3.152   9.493   4.178 -1.1577 -1.2327 -1.9238
19726SOL    HW265016   3.061   9.587   4.254  0.6226 -1.7592  1.0135
19727SOL     OW65017  11.733   7.490   1.288 -0.3259 -0.3094 -0.7043
19727SOL    HW165018  11.789   7.562   1.318 -0.7500 -0.5890  0.8520
19727SOL    HW265019  11.644   7.518   1.311 -0.4566 -1.5005  0.3606
19728SOL     OW65020   8.150   2.349   2.265  0.5846 -0.2565  0.2657
19728SOL    HW165021   8.198   2.273   2.233  1.2973 -0.0606  0.8284
19728SOL    HW265022   8.136   2.332   2.358  0.1400 -0.0101  0.2483
19729SOL     OW65023   7.878   1.105   3.703  0.0771  0.2462  0.4307
19729SOL    HW165024   7.968   1.071   3.702 -0.4377 -1.1899 -0.7727
19729SOL    HW265025   7.829   1.039   3.752 -0.6320  0.0715 -0.4870
19730SOL     OW65026  11.802   6.002   5.038 -0.2706 -0.0579  0.5764
19730SOL    HW165027  11.868   6.068   5.059  0.1475 -0.0477 -0.6746
19730SOL    HW265028  11.846   5.942   4.978 -1.9660  1.2092 -2.1147
19731SOL     OW65029   6.911   1.742   0.493  0.0504  0.5123 -0.5186
19731SOL    HW165030   6.886   1.740   0.585 -1.8023 -1.1176 -0.9759
19731SOL    HW265031   6.932   1.651   0.472 -2.2683  0.2897 -2.3056
19732SOL     OW65032   8.333   5.989   9.463  0.5686  0.0753  0.3254
19732SOL    HW165033   8.425   6.002   9.488  0.1944 -1.4315  2.8206
19732SOL    HW265034   8.284   6.004   9.544 -1.2329 -0.9185 -0.5124
19733SOL     OW65035   7.396   8.836   9.146 -0.3773 -0.1616 -0.2712
19733SOL    HW165036   7.345   8.773   9.197  0.0893 -0.0121  0.4049
19733SOL    HW265037   7.427   8.899   9.212 -0.2268  0.3520 -0.8289
19734SOL     OW65038  11.608   6.116  12.091 -0.1295  0.2462 -0.5123
19734SOL    HW165039  11.515   6.116  12.114 -0.2414  2.5365 -0.7452
19734SOL    HW265040  11.610   6.079  12.002 -0.2722 -3.6620  0.9157
19735SOL     OW65041   6.409   8.607   1.418  0.2861 -0.0519  0.0779
19735SOL    HW165042   6.414   8.629   1.325 -0.5046  0.6153  0.1855
19735SOL    HW265043   6.500   8.604   1.446  0.5105  0.4436 -0.5616
19736SOL     OW65044   9.508   3.141  11.247 -0.1232 -0.5398 -0.4925
19736SOL    HW165045   9.585   3.106  11.291  0.1022  0.1754 -0.2926
19736SOL    HW265046   9.526   3.132  11.154 -0.4435 -1.7278 -0.4490
19737SOL     OW65047  11.241   9.542   4.440 -0.2248 -0.8343 -0.2972
19737SOL    HW165048  11.243   9.616   4.379 -0.0058 -0.5398  0.0592
19737SOL    HW265049  11.330   9.536   4.473 -0.3938 -0.8371  0.1696
19738SOL     OW65050   6.969   6.831  11.948 -0.4929 -0.2719 -0.2756
19738SOL    HW165051   6.961   6.738  11.927  0.0088 -0.6534  1.0870
19738SOL    HW265052   7.061   6.851  11.931 -0.6190 -0.0005 -0.6417
19739SOL     OW65053   9.417   7.820   8.409 -0.2962 -0.2738  0.2523
19739SOL    HW165054   9.386   7.908   8.430  0.1184 -0.2040  0.5729
19739SOL    HW265055   9.482   7.834   8.339 -0.5953 -0.3737 -0.0501
19740SOL     OW65056   3.840  11.243   0.186  0.3168 -0.4495 -0.1425
19740SOL    HW165057   3.851  11.277   0.097 -1.2201 -0.8275 -0.4991
19740SOL    HW265058   3.757  11.279   0.215  0.6922 -0.5339  1.0683
19741SOL     OW65059   1.052  10.036   3.380  0.3578 -0.6558 -0.3366
19741SOL    HW165060   1.071  10.107   3.443  0.9737 -1.6965  0.6928
19741SOL    HW265061   0.959  10.045   3.361  0.3939  0.3352 -0.1025
19742SOL     OW65062   0.356   1.942   4.617 -0.2553  0.1770  0.0393
19742SOL    HW165063   0.367   1.874   4.683  0.3673  0.6054  0.3898
19742SOL    HW265064   0.446   1.967   4.594 -0.4728  1.1952  0.2539
19743SOL     OW65065  10.099   1.762   7.264 -0.0125  0.6593  0.6300
19743SOL    HW165066  10.173   1.805   7.221 -0.7221  0.3191 -0.9841
19743SOL    HW265067  10.073   1.692   7.204 -0.6853 -0.2041  1.8820
19744SOL     OW65068   4.874   0.451  11.577 -0.2770 -0.7832 -0.6189
19744SOL    HW165069   4.869   0.546  11.564  2.4016 -0.6543 -1.4786
19744SOL    HW265070   4.837   0.437  11.664 -0.3139  1.1178 -0.2695
19745SOL     OW65071  12.264  10.468  10.030  0.1196 -0.6530  0.0347
19745SOL    HW165072  12.346  10.484  10.077  0.2863  0.9372 -0.7311
19745SOL    HW265073  12.203  10.534  10.064  0.1637  0.3590 -1.7058
19746SOL     OW65074   1.266   9.727   0.611 -0.2438  0.2216 -0.0439
19746SOL    HW165075   1.280   9.769   0.526  1.4962 -0.9683 -0.3855
19746SOL    HW265076   1.175   9.748   0.633 -0.3479  1.6015 -1.5964
19747SOL     OW65077   2.219   4.032  10.282 -0.5276  0.1610  0.5447
19747SOL    HW165078   2.142   4.054  10.334 -1.5669 -1.7083 -0.0945
19747SOL    HW265079   2.266   3.968  10.335  0.8359  1.5349  1.0805
19748SOL     OW65080   3.154   6.299   5.994  0.4822  0.0213 -0.3006
19748SOL    HW165081   3.168   6.254   5.911 -1.1420 -0.5142 -0.3340
19748SOL    HW265082   3.062   6.280   6.016  0.3640  1.5943  0.7377
19749SOL     OW65083   0.922  10.565  11.717  0.5736  0.5740  0.2535
19749SOL    HW165084   0.982  10.630  11.680  1.9497 -0.9348 -0.3082
19749SOL    HW265085   0.873  10.532  11.642 -1.7405  2.4373  0.8190
19750SOL     OW65086   4.850  10.011   8.623  0.2722 -0.3238 -0.1102
19750SOL    HW165087   4.840   9.957   8.545 -0.2887 -1.3096  0.6222
19750SOL    HW265088   4.889   9.953   8.688 -0.1595  0.1939  0.6371
19751SOL     OW65089  12.031   5.325   7.562  0.0869 -0.3779 -0.2073
19751SOL    HW165090  11.936   5.315   7.566  0.2865 -2.0850  1.6274
19751SOL    HW265091  12.063   5.243   7.525  0.8307  0.7500 -2.2593
19752SOL     OW65092   0.562   0.234   6.496 -0.0391  0.0527  0.0938
19752SOL    HW165093   0.610   0.271   6.570  0.3356 -0.4450  0.1056
19752SOL    HW265094   0.483   0.286   6.491 -0.0686  0.0992  0.8483
19753SOL     OW65095   4.703  11.518   0.729 -0.7477 -0.2234  0.1498
19753SOL    HW165096   4.737  11.460   0.662 -1.0824  0.5087 -0.6814
19753SOL    HW265097   4.754  11.599   0.719 -1.1261  0.0566  0.4459
19754SOL     OW65098   8.363  11.383   0.494 -0.2128  0.3627 -0.5841
19754SOL    HW165099   8.390  11.295   0.470  0.9042  0.9293 -1.4803
19754SOL    HW265100   8.433  11.440   0.462 -1.1094  1.6169 -0.4171
19755SOL     OW65101   6.773   8.346  11.616 -0.8932 -0.5371  0.1456
19755SOL    HW165102   6.807   8.390  11.538  0.6314 -1.6650  0.1344
19755SOL    HW265103   6.792   8.407  11.688 -0.3461 -0.4091 -0.0996
19756SOL     OW65104   0.614   4.595  12.045 -0.0054  0.1477 -0.7337
19756SOL    HW165105   0.687   4.618  12.103  0.6940  0.2389 -1.6358
19756SOL    HW265106   0.642   4.623  11.959 -0.1689 -1.7860 -1.4755
19757SOL     OW65107   7.413   8.936   4.940  0.2213 -0.6623  0.1698
19757SOL    HW165108   7.460   9.015   4.914  0.9347 -1.1511 -0.0549
19757SOL    HW265109   7.336   8.968   4.988 -0.0922  0.1969 -0.8791
19758SOL     OW65110   6.770   9.718   2.023  0.0157  0.3293  0.8929
19758SOL    HW165111   6.787   9.743   2.113  4.5328  0.2054  0.2885
19758SOL    HW265112   6.806   9.630   2.015 -0.1607  0.3882 -1.0241
19759SOL     OW65113   9.495   1.792   8.256  0.3762  0.8449  0.3661
19759SOL    HW165114   9.430   1.737   8.299 -0.4932  2.3590  1.0875
19759SOL    HW265115   9.577   1.746   8.268 -0.5821 -1.3395 -0.9341
19760SOL     OW65116  11.672   1.018   7.596  0.2752  0.5428  0.0736
19760SOL    HW165117  11.617   0.993   7.670  0.2746  0.8729  0.1853
19760SOL    HW265118  11.721   0.939   7.574  1.8267  0.9642  1.7689
19761SOL     OW65119   0.596  12.188   0.615 -0.4017 -0.0065  0.6734
19761SOL    HW165120   0.655  12.224   0.681  1.8768  0.0810 -1.2818
19761SOL    HW265121   0.538  12.261   0.592  1.6728  1.3747 -0.4976
19762SOL     OW65122   8.478   5.263  11.150 -0.3408  0.2558  0.3274
19762SOL    HW165123   8.424   5.262  11.229  0.4852 -2.1774  0.9408
19762SOL    HW265124   8.528   5.182  11.154  1.7926  1.3829 -1.3072
19763SOL     OW65125   2.921  11.065   7.320  0.2741  0.7083 -0.3122
19763SOL    HW165126   3.009  11.027   7.320 -0.3233 -0.7307  0.1484
19763SOL    HW265127   2.934  11.156   7.294  1.9603  0.6655  0.2966
19764SOL     OW65128   6.426   2.361  10.685  0.5164  0.6968  0.3170
19764SOL    HW165129   6.374   2.289  10.647 -1.5329  2.6848 -0.9081
19764SOL    HW265130   6.368   2.399  10.751  1.3912  1.4898  0.6358
19765SOL     OW65131   6.644   6.813   0.705 -1.0074  0.2634 -0.1156
19765SOL    HW165132   6.578   6.866   0.663 -1.6316  0.1033  0.6334
19765SOL    HW265133   6.667   6.862   0.784 -2.3257 -1.0076  1.1217
19766SOL     OW65134   0.972   0.306   9.121 -0.2508 -0.0649  0.0709
19766SOL    HW165135   0.927   0.378   9.164 -0.9286  0.4084 -1.3829
19766SOL    HW265136   1.003   0.250   9.193 -1.7527  0.4366  1.1435
19767SOL     OW65137   4.397   7.058   0.493  0.2813 -0.2929  0.3371
19767SOL    HW165138   4.303   7.052   0.504  0.3430  0.0348  1.1050
19767SOL    HW265139   4.412   7.150   0.467  0.3528 -0.4634 -0.2531
19768SOL     OW65140   8.233   3.820   5.031  0.5669  0.4060 -0.0606
19768SOL    HW165141   8.218   3.894   5.090  0.7850  1.6500 -1.5213
19768SOL    HW265142   8.246   3.860   4.945  1.0727 -1.3181 -0.8180
19769SOL     OW65143   0.502  12.248   2.072 -0.0731 -0.0798  0.5562
19769SOL    HW165144   0.417  12.291   2.083 -1.0951 -1.5141 -1.0427
19769SOL    HW265145   0.485  12.157   2.097  0.2955 -0.9361 -1.9886
19770SOL     OW65146   3.899   0.261   2.644 -0.4644 -0.2050 -0.7082
19770SOL    HW165147   3.823   0.272   2.701  0.6109 -1.9599  1.1949
19770SOL    HW265148   3.897   0.168   2.620  1.6139 -0.5534  0.2789
19771SOL     OW65149   0.699   8.106   7.167  0.3300 -0.2611 -0.2886
19771SOL    HW165150   0.722   8.160   7.243 -0.1387 -1.4617  0.7493
19771SOL    HW265151   0.766   8.037   7.167  0.3344 -0.2613 -0.9862
19772SOL     OW65152   5.722   4.774   8.929  0.3677 -0.0217 -0.2974
19772SOL    HW165153   5.684   4.700   8.976  0.2615 -0.4250 -0.9974
19772SOL    HW265154   5.705   4.755   8.837 -1.4326  1.8573 -0.4177
19773SOL     OW65155   4.478   6.902  11.163 -0.0587  0.1203 -0.1105
19773SOL    HW165156   4.396   6.918  11.210 -0.4484 -0.0121 -0.7156
19773SOL    HW265157   4.502   6.813  11.187  0.5507  0.5740  0.9939
19774SOL     OW65158   7.520   7.086   2.945  0.0439  0.0403 -0.0506
19774SOL    HW165159   7.576   7.009   2.946  0.8797  0.5963 -1.4327
19774SOL    HW265160   7.447   7.062   2.888 -0.3787 -0.1646  0.5632
19775SOL     OW65161   8.567   4.571   7.579  0.0053  0.1130 -0.1825
19775SOL    HW165162   8.543   4.664   7.589 -0.8731  0.1073 -1.8279
19775SOL    HW265163   8.662   4.571   7.576  0.0786  0.7782  1.2864
19776SOL     OW65164   7.942   7.540   0.486  0.3448 -0.1043 -0.4723
19776SOL    HW165165   7.932   7.509   0.576 -0.1957  0.9249 -0.1659
19776SOL    HW265166   7.886   7.482   0.434 -0.6974  0.3812  0.0999
19777SOL     OW65167   1.179   3.385   1.420  0.0619 -0.0189  0.0429
19777SOL    HW165168   1.215   3.408   1.334  0.6290  1.4355  0.6436
19777SOL    HW265169   1.256   3.375   1.476 -0.3028 -0.9919  0.3903
19778SOL     OW65170   9.494   0.192   8.125  0.6838 -0.4094 -0.1534
19778SOL    HW165171   9.426   0.223   8.066  1.3529 -0.7753 -1.1539
19778SOL    HW265172   9.448   0.165   8.204 -0.5640 -2.2353 -1.4178
19779SOL     OW65173   6.480   2.755   5.089  0.2364 -0.1609 -0.5680
19779SOL    HW165174   6.538   2.830   5.102 -0.3680  0.5393 -1.6670
19779SOL    HW265175   6.525   2.682   5.130  2.5861  0.0348 -2.5727
19780SOL     OW65176   1.464   1.513   4.356 -0.0029 -0.3900  0.5519
19780SOL    HW165177   1.445   1.566   4.279  0.0879  1.7954  1.9342
19780SOL    HW265178   1.389   1.526   4.414  1.0912  0.1806  1.9039
19781SOL     OW65179   9.589   7.199  12.154 -0.3614  0.4129  0.0679
19781SOL    HW165180   9.641   7.217  12.076  2.2482  2.9526  2.1584
19781SOL    HW265181   9.642   7.138  12.205  0.2248  2.2527  1.7837
19782SOL     OW65182   4.771   0.474  12.285  0.9542  0.0989 -0.4374
19782SOL    HW165183   4.825   0.527  12.226 -0.8022  0.7861 -1.4894
19782SOL    HW265184   4.709   0.430  12.227  0.1701 -0.4008  0.7584
19783SOL     OW65185  10.889   6.844   6.366 -0.0609  0.0069  0.5652
19783SOL    HW165186  10.893   6.876   6.276  1.3513 -0.6240  0.3844
19783SOL    HW265187  10.811   6.887   6.403 -1.4480 -0.7635 -1.3212
19784SOL     OW65188   6.772  10.516  11.524 -0.1394  0.4415  0.1169
19784SOL    HW165189   6.677  10.526  11.533  0.0998  0.7865  4.9618
19784SOL    HW265190   6.788  10.422  11.538  0.2901  0.2541 -1.3961
19785SOL     OW65191   3.323   6.615   0.675 -0.0859 -0.5948  0.1036
19785SOL    HW165192   3.387   6.638   0.744 -1.1360  0.3137  0.8048
19785SOL    HW265193   3.248   6.671   0.692 -1.2613 -1.9303 -0.4578
19786SOL     OW65194  10.875   8.021   0.515  0.0518  0.2182 -0.0202
19786SOL    HW165195  10.939   8.058   0.577 -0.5793 -0.9866  1.3957
19786SOL    HW265196  10.904   8.053   0.430  2.3609 -0.0067  0.6081
19787SOL     OW65197   3.642  10.556   1.138 -0.4132 -0.5835 -0.4512
19787SOL    HW165198   3.548  10.542   1.126 -0.8742  1.3109  0.6716
19787SOL    HW265199   3.663  10.630   1.082 -0.1543  0.6311  1.1735
19788SOL     OW65200   8.433  11.046  11.816  0.0039  0.3279  0.1701
19788SOL    HW165201   8.455  11.023  11.906  1.1125  1.3010  0.1794
19788SOL    HW265202   8.362  10.987  11.792  1.4009 -1.7341  0.8048
19789SOL     OW65203   0.582   6.673   3.216  0.4836 -0.2080  0.6188
19789SOL    HW165204   0.664   6.721   3.207  0.5699 -0.1948  1.4088
19789SOL    HW265205   0.515   6.741   3.217  0.7268  0.1332  3.6405
19790SOL     OW65206   3.114   2.043  11.314 -0.6493 -0.9951  0.0124
19790SOL    HW165207   3.204   2.065  11.288 -0.0676 -1.7115  1.3297
19790SOL    HW265208   3.065   2.124  11.303  0.6843  0.0619  1.4999
19791SOL     OW65209   7.472  11.406   6.670  0.0692  0.1464  0.1504
19791SOL    HW165210   7.435  11.407   6.582 -0.7672 -1.3182  0.4506
19791SOL    HW265211   7.402  11.439   6.726 -0.4954 -1.7208  0.6037
19792SOL     OW65212  10.965   9.959   9.601  0.3106 -0.0378 -0.3770
19792SOL    HW165213  10.924   9.904   9.667  0.9014  1.4584  1.2940
19792SOL    HW265214  10.891   9.988   9.546 -0.4914  0.3467  0.8702
19793SOL     OW65215  11.757   8.381  10.010  0.5225  0.6582 -0.0074
19793SOL    HW165216  11.838   8.375  10.061  1.1857  1.3466 -0.9328
19793SOL    HW265217  11.694   8.327  10.058  0.6773  2.3706  2.2901
19794SOL     OW65218   2.173  10.424   8.494  0.4755  1.1076  0.8640
19794SOL    HW165219   2.143  10.498   8.546 -2.8275 -0.2037  1.0708
19794SOL    HW265220   2.217  10.366   8.556  0.2986  1.4708  1.3289
19795SOL     OW65221   2.962   1.181   6.959  0.1698 -0.6733  0.3067
19795SOL    HW165222   2.868   1.185   6.941 -0.2799 -1.0974  2.2741
19795SOL    HW265223   2.967   1.169   7.054  2.1665 -2.5231  0.0454
19796SOL     OW65224   8.116   7.069   6.548 -0.2091  0.1706  0.0890
19796SOL    HW165225   8.163   7.153   6.554 -0.3606  0.2649 -0.0440
19796SOL    HW265226   8.034   7.091   6.503 -1.1045  0.3124  1.7239
19797SOL     OW65227   0.372   3.687  10.321  0.6750  0.1049  0.0168
19797SOL    HW165228   0.443   3.721  10.268 -0.3073  1.1628 -0.6617
19797SOL    HW265229   0.292   3.716  10.277 -0.1793 -0.2508  1.2585
19798SOL     OW65230   3.185   5.328   9.826  0.3065 -0.2198 -0.8617
19798SOL    HW165231   3.112   5.379   9.859  0.9065  0.0656  0.0557
19798SOL    HW265232   3.261   5.385   9.837  0.4127  0.4221 -3.9272
19799SOL     OW65233   5.884   0.649   8.618  0.4808  0.3607  0.5043
19799SOL    HW165234   5.873   0.588   8.546 -0.9335 -0.4375  1.3409
19799SOL    HW265235   5.930   0.599   8.685 -0.5732  0.2048  1.1452
19800SOL     OW65236   2.341  12.068  12.004  1.1369  0.5221 -0.4979
19800SOL    HW165237   2.416  12.099  12.054  1.8512 -1.8122  0.0140
19800SOL    HW265238   2.378  12.004  11.943 -0.0672  1.4697 -2.3176
19801SOL     OW65239   0.822   7.007   9.310 -0.0184  0.4962 -0.1287
19801SOL    HW165240   0.820   7.033   9.402  0.4210  1.5438 -0.3993
19801SOL    HW265241   0.742   6.956   9.298  0.2006 -0.1202  0.9592
19802SOL     OW65242   7.530  12.137   5.035 -0.8129 -0.1781 -0.2434
19802SOL    HW165243   7.517  12.078   5.109 -3.2221  0.9864  0.3561
19802SOL    HW265244   7.565  12.217   5.074 -1.2130  0.1158 -0.4736
19803SOL     OW65245  11.994   3.136   3.495 -0.7133 -0.3974  0.2764
19803SOL    HW165246  11.931   3.119   3.566  0.3873 -1.2762  1.0707
19803SOL    HW265247  12.072   3.169   3.540  0.0359 -1.0621 -0.5246
19804SOL     OW65248   2.596   4.192  12.105 -0.2967 -0.1187 -0.5651
19804SOL    HW165249   2.561   4.232  12.026 -2.1707  0.4634  0.4963
19804SOL    HW265250   2.538   4.117  12.121  0.6600 -0.8151 -0.2598
19805SOL     OW65251   1.358  11.307   5.343  0.0260  0.1372 -0.1824
19805SOL    HW165252   1.307  11.271   5.416  0.0939 -1.5373 -0.9210
19805SOL    HW265253   1.315  11.273   5.265  0.1010  1.7220 -0.9556
19806SOL     OW65254   5.717   2.886   2.493 -0.1430  0.2872 -0.4131
19806SOL    HW165255   5.707   2.792   2.504 -0.9875  0.4968  0.8629
19806SOL    HW265256   5.633   2.916   2.459 -0.8383  0.8850  1.6771
19807SOL     OW65257   6.422   6.813  11.849 -0.0826  0.0127  0.4083
19807SOL    HW165258   6.514   6.836  11.835 -0.8888  2.5062 -1.6600
19807SOL    HW265259   6.394   6.867  11.923 -0.2526  0.5406 -0.0288
19808SOL     OW65260   7.925   6.907  10.736 -0.2678  0.2077 -0.1684
19808SOL    HW165261   7.943   6.962  10.812 -1.9849  0.1793  0.2958
19808SOL    HW265262   7.994   6.840  10.739  0.7878  1.2686  0.2779
19809SOL     OW65263  10.480   7.217  10.650  0.1880 -0.0453  0.1497
19809SOL    HW165264  10.454   7.307  10.670 -0.0016 -0.1591  0.4249
19809SOL    HW265265  10.553   7.199  10.709  0.6382  0.1428 -0.3502
19810SOL     OW65266  11.672   6.784   5.684 -0.3770  0.1037  0.0607
19810SOL    HW165267  11.643   6.755   5.598  0.2551  1.7618 -0.7611
19810SOL    HW265268  11.722   6.710   5.719  1.3756  0.1978 -2.0218
19811SOL     OW65269   9.602   3.034   2.828  0.1117  0.6850  0.0524
19811SOL    HW165270   9.667   3.038   2.897  1.2404 -0.3651 -0.9018
19811SOL    HW265271   9.562   3.121   2.827  0.4919  0.8978  1.5974
19812SOL     OW65272   0.604   9.911   8.386 -0.0449  0.2271 -0.4370
19812SOL    HW165273   0.566   9.925   8.473 -0.3164 -0.2620 -0.4674
19812SOL    HW265274   0.585   9.819   8.367  1.9468 -0.3041 -0.0762
19813SOL     OW65275   8.212   9.450   6.091 -0.0673  0.2635 -0.3859
19813SOL    HW165276   8.162   9.377   6.127 -2.5895 -0.9235 -5.4224
19813SOL    HW265277   8.160   9.527   6.112  1.1994  0.4075  2.6186
19814SOL     OW65278   3.089   2.117   5.293 -0.2814 -0.0646  0.0788
19814SOL    HW165279   3.147   2.048   5.326 -1.6284 -0.6263  1.3626
19814SOL    HW265280   3.001   2.079   5.297 -0.8489  1.0277 -1.1328
19815SOL     OW65281   7.396   6.437   5.000  0.8045  0.3279  0.8054
19815SOL    HW165282   7.383   6.344   5.016  1.2041  0.1458  0.1026
19815SOL    HW265283   7.309   6.471   4.979  0.9117 -0.2291 -0.6336
19816SOL     OW65284   8.506   6.397   1.379 -0.0428  0.5091 -0.1415
19816SOL    HW165285   8.593   6.437   1.376  0.1902  0.0085 -0.0204
19816SOL    HW265286   8.485   6.376   1.288  1.1516 -1.9340  0.0888
19817SOL     OW65287  10.507  11.679  11.166  0.1239 -0.6599 -0.2527
19817SOL    HW165288  10.442  11.746  11.146 -0.0211 -0.4408  0.8924
19817SOL    HW265289  10.567  11.681  11.092  1.7975  2.7360  0.9743
19818SOL     OW65290   3.584   2.834  10.850 -0.3074 -0.2226  0.3498
19818SOL    HW165291   3.550   2.757  10.894  0.5158 -2.4223 -2.5140
19818SOL    HW265292   3.672   2.846  10.886 -0.7815 -0.0503  1.4587
19819SOL     OW65293   2.991   9.473   8.850 -0.0720  0.0377  1.1207
19819SOL    HW165294   2.942   9.554   8.866  0.1852  1.2768 -3.1139
19819SOL    HW265295   3.080   9.494   8.878 -0.3966  0.5301  1.8133
19820SOL     OW65296   7.494   9.496   2.671  0.1238  0.2541 -1.1457
19820SOL    HW165297   7.582   9.516   2.639  0.4919 -0.0812 -0.3577
19820SOL    HW265298   7.508   9.435   2.744 -0.5260  2.9851  1.4328
19821SOL     OW65299   3.087   9.542   1.020  0.3279  0.0198 -0.2424
19821SOL    HW165300   3.023   9.610   1.043  0.4904  0.6244 -1.4375
19821SOL    HW265301   3.132   9.522   1.102 -1.9431 -1.0659  0.8417
19822SOL     OW65302  10.448   0.051   1.313 -0.1360 -0.4550  0.1560
19822SOL    HW165303  10.439   0.104   1.392  0.8422 -0.0727  0.0292
19822SOL    HW265304  10.504  -0.021   1.339 -1.8833 -1.7601  0.4645
19823SOL     OW65305   5.913  11.201   9.356  0.3020  0.3103 -0.0490
19823SOL    HW165306   5.894  11.111   9.330 -0.2694  0.3620  0.1892
19823SOL    HW265307   5.835  11.250   9.332  0.6523  0.7626 -0.2664
19824SOL     OW65308   3.750   1.732   4.651 -0.1347 -0.9797 -0.4782
19824SOL    HW165309   3.752   1.797   4.721  0.7635 -0.2484 -1.1416
19824SOL    HW265310   3.664   1.692   4.658 -0.9448  0.6635 -0.3709
19825SOL     OW65311   2.144  10.632   0.368  0.5688  0.6232 -0.2236
19825SOL    HW165312   2.066  10.577   0.373  0.8272  0.1980 -0.7837
19825SOL    HW265313   2.217  10.572   0.380  0.8417  0.8891 -0.5400
19826SOL     OW65314   2.395   8.481   5.513  0.2868 -0.4345  0.2271
19826SOL    HW165315   2.346   8.484   5.596  1.0757 -0.5020  0.7068
19826SOL    HW265316   2.329   8.500   5.446  0.1261  2.4862  1.0792
19827SOL     OW65317   5.760  11.693  10.954 -0.0335 -0.2341 -0.0991
19827SOL    HW165318   5.839  11.736  10.924 -0.3259 -0.9521 -2.0274
19827SOL    HW265319   5.713  11.760  11.004  2.5552 -0.2870  2.7424
19828SOL     OW65320  10.863   1.904   8.116 -0.5955  0.0046 -0.4253
19828SOL    HW165321  10.844   1.861   8.200 -2.1966  1.0367 -0.2012
19828SOL    HW265322  10.913   1.840   8.066 -0.5673 -1.0498  0.9066
19829SOL     OW65323   3.190   7.882   2.467 -0.2238 -0.3613 -0.2871
19829SOL    HW165324   3.201   7.838   2.383  0.5141  0.7683 -0.7962
19829SOL    HW265325   3.149   7.966   2.446 -0.7800 -0.3961  0.5796
19830SOL     OW65326   4.731   7.519   4.325 -0.2350  0.3521  0.5310
19830SOL    HW165327   4.704   7.611   4.317 -1.5989 -0.0173  0.6023
19830SOL    HW265328   4.737   7.505   4.420  0.2148  0.4312  0.5148
19831SOL     OW65329   4.311   6.713   6.493 -0.6455 -0.1308 -0.3459
19831SOL    HW165330   4.234   6.687   6.544  1.6786  1.1806  4.3123
19831SOL    HW265331   4.351   6.784   6.543  2.4109  0.8624 -3.7453
19832SOL     OW65332   1.739   3.156   1.521  0.4701 -0.4681 -0.0503
19832SOL    HW165333   1.692   3.092   1.574  0.7402 -0.7224 -0.1099
19832SOL    HW265334   1.816   3.179   1.573  0.3851 -0.2098 -0.0390
19833SOL     OW65335   5.177   6.058   1.584  0.0360 -0.0728 -0.0653
19833SOL    HW165336   5.180   6.039   1.490 -0.3261  0.4774 -0.1948
19833SOL    HW265337   5.202   5.976   1.626  1.4373  0.0116 -0.6656
19834SOL     OW65338   8.052  11.490   5.838 -0.3128 -0.0171 -0.0231
19834SOL    HW165339   8.146  11.485   5.854 -0.5194  0.4328  1.4489
19834SOL    HW265340   8.017  11.532   5.916 -1.9095 -1.4206  0.0525
19835SOL     OW65341   9.038   8.607   8.826 -0.2104 -0.6570 -0.0156
19835SOL    HW165342   9.052   8.665   8.751  0.4405  0.1287  0.6961
19835SOL    HW265343   8.984   8.658   8.887 -0.5935 -1.2260  0.1389
19836SOL     OW65344   0.532  10.902  11.291 -0.0233 -0.1543  0.2417
19836SOL    HW165345   0.607  10.912  11.233  1.2084 -1.8156  1.4732
19836SOL    HW265346   0.456  10.903  11.232  1.0636 -0.1522 -1.2014
19837SOL     OW65347  10.050   4.398   3.290 -0.2197  0.4068  0.6282
19837SOL    HW165348  10.059   4.303   3.284 -0.1473  0.3288  1.7333
19837SOL    HW265349   9.958   4.412   3.315  0.2583  0.4835  2.5437
19838SOL     OW65350   9.737   3.839   3.157 -0.2007  0.0973  0.5431
19838SOL    HW165351   9.792   3.768   3.122 -2.5422 -2.0284  0.8783
19838SOL    HW265352   9.783   3.866   3.237  1.0647 -0.5961  0.0922
19839SOL     OW65353   7.455   6.354   3.411  0.2823  0.0625  0.2277
19839SOL    HW165354   7.384   6.393   3.360  0.6923 -0.7069 -0.9744
19839SOL    HW265355   7.478   6.421   3.475 -0.7163  0.7907 -0.1461
19840SOL     OW65356   1.846   3.551   8.440  0.0832 -0.3496  0.1272
19840SOL    HW165357   1.784   3.494   8.395  0.5052  0.2871 -1.3112
19840SOL    HW265358   1.818   3.639   8.418  0.7679 -0.0347  0.4833
19841SOL     OW65359   3.144   6.128   7.747 -0.2971 -0.2837 -0.2475
19841SOL    HW165360   3.075   6.061   7.748 -1.6922  1.0981 -0.3377
19841SOL    HW265361   3.097   6.211   7.756  1.2900  0.7808 -1.2925
19842SOL     OW65362   4.749   0.920   4.790  0.2447 -0.1713  0.1270
19842SOL    HW165363   4.705   0.981   4.850  0.6390 -0.1957  0.4429
19842SOL    HW265364   4.679   0.862   4.760  0.5309 -2.4128  3.2672
19843SOL     OW65365   9.451  11.187   6.205  0.3897  0.1286 -0.1172
19843SOL    HW165366   9.438  11.110   6.148  2.1892 -0.5039  0.2520
19843SOL    HW265367   9.493  11.252   6.148 -1.6674  1.1194 -0.5885
19844SOL     OW65368   2.833   6.858   8.086 -0.2650 -0.5734 -0.2424
19844SOL    HW165369   2.812   6.850   8.179  1.0064 -0.5473  0.0647
19844SOL    HW265370   2.750   6.879   8.044 -0.7311  0.0916  0.9721
19845SOL     OW65371   2.077  10.709  11.381  0.4141 -0.4465  0.3989
19845SOL    HW165372   2.077  10.761  11.301  0.7397  0.2978  0.8701
19845SOL    HW265373   2.116  10.625  11.355  0.5130 -0.2163 -0.2223
19846SOL     OW65374  10.397   5.852  12.287 -0.1004  0.0193  0.0661
19846SOL    HW165375  10.425   5.823  12.201  0.1102 -1.0930  0.4868
19846SOL    HW265376  10.307   5.882  12.275 -1.5658 -3.8232  0.1292
19847SOL     OW65377   2.186   4.473   2.276 -0.5553  0.2877  0.2181
19847SOL    HW165378   2.110   4.439   2.229 -0.7761  1.1473 -0.0601
19847SOL    HW265379   2.240   4.515   2.209  1.0834 -1.8199  0.0992
19848SOL     OW65380   1.469   5.969   7.574 -0.0408 -0.1748 -0.0048
19848SOL    HW165381   1.453   5.878   7.598  1.7739 -0.3145  0.7987
19848SOL    HW265382   1.382   6.009   7.572 -0.6527 -0.9907  3.5628
19849SOL     OW65383   2.592   9.184  10.599  0.0127  0.4646  0.1436
19849SOL    HW165384   2.648   9.259  10.618  1.5172 -0.7288  0.6005
19849SOL    HW265385   2.515   9.222  10.557  1.6889  2.0822 -1.6799
19850SOL     OW65386   0.301   8.199  11.754  0.2790 -0.3526 -0.3321
19850SOL    HW165387   0.260   8.176  11.837 -1.1278 -1.2605 -1.2523
19850SOL    HW265388   0.251   8.275  11.723  1.2778  0.4596 -0.0310
19851SOL     OW65389   0.919   5.506   5.471  0.4837 -0.5378  0.1014
19851SOL    HW165390   0.893   5.416   5.450 -1.8486  0.1600 -0.2620
19851SOL    HW265391   0.917   5.509   5.567 -0.0268 -0.7216  0.1002
19852SOL     OW65392   4.783   7.962   8.938 -0.0212 -0.1705  0.0506
19852SOL    HW165393   4.708   7.909   8.910 -0.1762 -0.3557  0.7960
19852SOL    HW265394   4.859   7.906   8.920 -0.2222 -0.9084  1.3632
19853SOL     OW65395   6.291   4.321  12.059  0.1594 -0.2637  0.0085
19853SOL    HW165396   6.315   4.411  12.035 -1.8488  0.5484  0.8002
19853SOL    HW265397   6.305   4.270  11.979  1.4540  0.6954 -0.4210
19854SOL     OW65398   2.694   3.109   7.998 -0.4639  0.0831  0.2924
19854SOL    HW165399   2.599   3.118   7.986 -0.6182 -1.5793  0.0403
19854SOL    HW265400   2.703   3.045   8.069  0.4644 -0.2256 -0.0970
19855SOL     OW65401  11.896   1.913   7.762 -0.4252 -0.1347 -0.3920
19855SOL    HW165402  11.853   1.879   7.683  2.0149 -2.7491 -0.7606
19855SOL    HW265403  11.941   1.992   7.733 -3.0897  1.4774 -0.4636
19856SOL     OW65404   1.924   0.533   0.030  0.0379  0.4463 -0.3792
19856SOL    HW165405   1.868   0.455   0.026 -0.2200  0.6877 -1.9255
19856SOL    HW265406   1.979   0.518   0.107 -0.3870 -1.0063 -0.3162
19857SOL     OW65407   0.940   3.351   7.624 -0.1445 -0.5099 -0.4023
19857SOL    HW165408   0.844   3.348   7.618 -0.1092 -0.4076 -1.0888
19857SOL    HW265409   0.964   3.434   7.583  0.1908 -0.1511  0.5003
19858SOL     OW65410   1.179   5.488   0.369  0.2680 -0.1917 -0.1872
19858SOL    HW165411   1.143   5.535   0.445  0.4571 -0.1891 -0.0981
19858SOL    HW265412   1.142   5.533   0.293  0.7604  0.3534 -0.1060
19859SOL     OW65413   3.290   8.590   0.207 -0.8372  0.3903 -0.0695
19859SOL    HW165414   3.308   8.556   0.294 -1.7011  1.1274  0.4109
19859SOL    HW265415   3.260   8.514   0.157 -1.0923  0.1164  0.4984
19860SOL     OW65416   5.053   1.735  10.412 -0.2235  0.0179  0.4599
19860SOL    HW165417   5.112   1.729  10.486  0.0268 -2.1285  0.1642
19860SOL    HW265418   5.027   1.644  10.395 -1.4787  0.6210 -1.1033
19861SOL     OW65419  10.852   2.123  10.220 -0.5131  0.1087 -0.0905
19861SOL    HW165420  10.907   2.138  10.143  0.3566  1.9629  0.8192
19861SOL    HW265421  10.889   2.045  10.262  0.0488  0.0600 -0.6658
19862SOL     OW65422   3.890   2.106  11.777 -0.1632  0.1561 -0.4811
19862SOL    HW165423   3.914   2.055  11.854  0.6579 -0.4529 -1.1247
19862SOL    HW265424   3.796   2.090  11.766 -0.0563 -0.6454 -0.2642
19863SOL     OW65425   1.152   6.587   7.155  0.2035 -0.0045 -0.2970
19863SOL    HW165426   1.106   6.538   7.087 -0.4762  0.0222  0.1271
19863SOL    HW265427   1.167   6.523   7.224  3.3294 -0.7374 -1.5317
19864SOL     OW65428   3.855   6.117   3.015 -0.1133  0.2601  0.5427
19864SOL    HW165429   3.907   6.076   2.946  0.1332  2.4533 -0.6712
19864SOL    HW265430   3.815   6.044   3.062  1.2624 -1.3632 -0.7002
19865SOL     OW65431   9.552   3.715  11.292 -0.2726  0.1827 -0.3771
19865SOL    HW165432   9.514   3.802  11.277  0.5861  0.7581  0.6233
19865SOL    HW265433   9.537   3.698  11.385 -1.6185 -1.3593 -0.8254
19866SOL     OW65434   6.609   3.392   0.896  0.1819 -0.3571 -0.9101
19866SOL    HW165435   6.528   3.355   0.863  0.4025  0.0360 -1.9265
19866SOL    HW265436   6.660   3.316   0.924  0.3795 -0.8149 -2.4084
19867SOL     OW65437  11.807   2.317  10.804 -0.1023  0.1660 -0.1215
19867SOL    HW165438  11.866   2.242  10.791  1.4866  1.3038  0.1595
19867SOL    HW265439  11.740   2.284  10.863  0.4108 -1.1239 -0.2245
19868SOL     OW65440   7.161   3.310   6.604 -0.0888  0.3208  0.6714
19868SOL    HW165441   7.234   3.277   6.551 -0.1820  1.9053 -0.5291
19868SOL    HW265442   7.089   3.248   6.586 -0.3936  1.2705 -1.8574
19869SOL     OW65443   0.759  10.865   3.808  0.4234 -0.1095 -0.0974
19869SOL    HW165444   0.829  10.801   3.796  0.1853 -0.4925  0.5109
19869SOL    HW265445   0.723  10.879   3.720  0.0595 -1.2939 -0.1548
19870SOL     OW65446   9.943   5.670   3.063  0.2908 -0.3828 -0.1029
19870SOL    HW165447   9.860   5.669   3.111  0.4457 -2.5410  0.2283
19870SOL    HW265448   9.924   5.622   2.983  0.7003  1.0082 -1.0692
19871SOL     OW65449   1.655   7.639  10.429  0.1478  0.4122 -0.0291
19871SOL    HW165450   1.705   7.574  10.381 -0.0413  0.6314 -0.5342
19871SOL    HW265451   1.682   7.629  10.520  1.9613  1.2880 -0.4333
19872SOL     OW65452  11.425   8.837   6.725  0.3663 -0.7482  0.1956
19872SOL    HW165453  11.520   8.838   6.727  0.3802  1.7171  1.3570
19872SOL    HW265454  11.403   8.820   6.634  1.9374  0.0755 -0.3710
19873SOL     OW65455   8.270  10.942  11.371  0.0980 -0.2699 -0.3495
19873SOL    HW165456   8.357  10.908  11.389  0.9626  2.1541  0.3989
19873SOL    HW265457   8.250  10.911  11.283  2.5087  0.6025 -1.2875
19874SOL     OW65458   3.757   8.053   9.912 -0.1473 -0.6895 -0.0822
19874SOL    HW165459   3.798   7.985   9.857  1.4887  0.4566 -0.3663
19874SOL    HW265460   3.803   8.046   9.996  0.0312  0.0362 -0.1131
19875SOL     OW65461   7.625   7.849   8.418  0.5423 -0.4832 -0.1592
19875SOL    HW165462   7.660   7.825   8.332 -1.0289  0.5840 -1.1396
19875SOL    HW265463   7.606   7.943   8.411 -0.3044 -0.5321  1.1086
19876SOL     OW65464   8.549   7.538   7.243  0.0352  0.7742  0.0187
19876SOL    HW165465   8.483   7.473   7.267  2.6789 -1.9442  0.5562
19876SOL    HW265466   8.550   7.599   7.316 -1.0416  0.1968  0.5438
19877SOL     OW65467  10.530   6.829   1.972  0.0987  0.4362  0.0005
19877SOL    HW165468  10.551   6.739   1.947 -0.9689  0.5421 -1.3575
19877SOL    HW265469  10.458   6.820   2.034 -1.3171  0.3820 -1.5745
19878SOL     OW65470   7.567  11.448   7.201 -0.5375  0.0332 -1.0617
19878SOL    HW165471   7.558  11.500   7.120  0.7070  2.7630  0.4155
19878SOL    HW265472   7.650  11.476   7.238 -0.4321 -2.1673  0.5480
19879SOL     OW65473   0.817   7.196   5.774 -0.1897  0.3867 -0.4102
19879SOL    HW165474   0.728   7.160   5.766 -0.1854  0.1538  0.5134
19879SOL    HW265475   0.871   7.136   5.723 -0.5034  0.3065 -0.6569
19880SOL     OW65476   5.288  12.255   9.312  0.4838 -0.5208 -0.1471
19880SOL    HW165477   5.348  12.229   9.382 -0.1733  0.7436  0.9333
19880SOL    HW265478   5.203  12.222   9.341  0.2565 -0.2733 -0.5277
19881SOL     OW65479   4.011   1.188  11.791 -0.2944 -0.0575  0.0733
19881SOL    HW165480   4.017   1.274  11.749  0.3010 -0.2756 -0.3043
19881SOL    HW265481   3.951   1.201  11.865 -2.8591 -0.0486 -1.8542
19882SOL     OW65482   4.506   3.710   7.941 -0.4523 -0.6488  0.3424
19882SOL    HW165483   4.593   3.674   7.924 -0.6796 -0.0277 -2.6472
19882SOL    HW265484   4.465   3.716   7.855 -3.1175 -0.0139  1.5557
19883SOL     OW65485   8.348  10.521   0.519 -0.3768  0.0017 -0.0786
19883SOL    HW165486   8.305  10.582   0.459  0.2950  0.3457 -0.2215
19883SOL    HW265487   8.406  10.469   0.463 -1.0953 -0.9224  0.0100
19884SOL     OW65488  10.275   0.721   9.951  0.1519 -0.4149  0.2135
19884SOL    HW165489  10.191   0.682   9.976 -1.1065  3.1481  2.2997
19884SOL    HW265490  10.263   0.747   9.859 -0.0152 -2.1309 -0.2926
19885SOL     OW65491  11.773   9.348   0.088  0.5324 -0.1944  0.0239
19885SOL    HW165492  11.845   9.384   0.139 -0.4657  0.5789  0.9226
19885SOL    HW265493  11.702   9.411   0.100 -0.2924 -0.9445 -0.8429
19886SOL     OW65494   3.220   0.290   6.194  0.2416  0.3634 -0.3672
19886SOL    HW165495   3.131   0.260   6.175  0.6509  0.0094 -1.8650
19886SOL    HW265496   3.209   0.359   6.260 -1.1816  0.6725 -0.8966
19887SOL     OW65497   0.071  11.983  10.921 -0.0190 -0.2992 -0.3430
19887SOL    HW165498   0.015  11.910  10.947  1.4411 -0.6872  2.0597
19887SOL    HW265499   0.027  12.060  10.956  0.2230 -0.4453  0.2969
19888SOL     OW65500  10.749   3.500  10.181  0.4861 -0.2962 -0.2786
19888SOL    HW165501  10.761   3.454  10.264 -0.5616 -0.4920 -0.2131
19888SOL    HW265502  10.659   3.479  10.155  0.1925  1.1788 -0.5770
19889SOL     OW65503   6.641   8.895  10.485  0.1350  0.6626 -0.2818
19889SOL    HW165504   6.653   8.817  10.539 -1.9828  1.0238  0.8098
19889SOL    HW265505   6.699   8.882  10.410  0.8644 -1.2798  0.5564
19890SOL     OW65506   4.364   3.240   2.917  0.3015 -0.2749 -0.1045
19890SOL    HW165507   4.271   3.218   2.908  0.2379 -0.0737  0.0393
19890SOL    HW265508   4.396   3.249   2.827  0.4875 -1.5775 -0.1905
19891SOL     OW65509  10.512   4.758   7.577  0.3839 -0.6650 -0.5221
19891SOL    HW165510  10.433   4.738   7.528 -0.0600 -0.5151  0.1105
19891SOL    HW265511  10.498   4.719   7.663  0.0588  1.1358  0.3099
19892SOL     OW65512  11.011   7.192   2.676 -0.1392 -0.0260  0.6174
19892SOL    HW165513  11.027   7.198   2.770  1.7648  1.6744  0.2516
19892SOL    HW265514  11.057   7.267   2.638 -1.5189 -0.1894 -1.6180
19893SOL     OW65515   8.812   1.434  10.808 -0.4128  0.3451  0.0788
19893SOL    HW165516   8.830   1.480  10.726  1.7455 -0.5408 -0.0261
19893SOL    HW265517   8.831   1.342  10.788  1.2688  0.2659  1.8197
19894SOL     OW65518   6.362   3.410   9.863  0.5045 -0.0644 -0.2811
19894SOL    HW165519   6.374   3.441   9.953 -2.4955 -1.5781  0.7652
19894SOL    HW265520   6.402   3.323   9.862 -1.9187 -1.2833  0.5582
19895SOL     OW65521   5.351   0.399   9.155  0.5549  0.1098  0.5880
19895SOL    HW165522   5.273   0.436   9.197  0.4487  0.3975  0.1378
19895SOL    HW265523   5.347   0.306   9.176  1.5518  0.5019  2.9016
19896SOL     OW65524   0.140   0.337   2.774  0.4825  0.2567 -0.5748
19896SOL    HW165525   0.096   0.418   2.749  0.4959 -0.1154 -1.8873
19896SOL    HW265526   0.148   0.288   2.692  1.5182 -0.5674 -0.0009
19897SOL     OW65527  11.402  11.288   1.045  0.3227 -0.6148 -0.2495
19897SOL    HW165528  11.316  11.288   1.086  0.0829 -1.6336 -0.7254
19897SOL    HW265529  11.457  11.339   1.105 -0.5329 -0.1954  0.1990
19898SOL     OW65530   6.287  10.268   7.146 -0.2534 -0.1403  0.1518
19898SOL    HW165531   6.376  10.274   7.180  0.2928 -0.6664 -1.1307
19898SOL    HW265532   6.245  10.202   7.201  0.0903  0.2100  0.8515
19899SOL     OW65533  12.136   3.889   7.561 -0.3278 -0.4648 -0.5858
19899SOL    HW165534  12.086   3.885   7.479 -0.1609 -1.0496 -0.6670
19899SOL    HW265535  12.114   3.974   7.598  1.4530  0.8791 -2.4182
19900SOL     OW65536   7.741   5.545   4.352 -0.5097 -0.4962 -0.4269
19900SOL    HW165537   7.693   5.627   4.339 -1.9510 -1.4788 -1.5925
19900SOL    HW265538   7.781   5.554   4.439 -1.4009  1.0508 -0.1408
19901SOL     OW65539  10.620   4.110   4.472  0.1042 -0.1387  0.3881
19901SOL    HW165540  10.670   4.191   4.481  1.3226 -0.8219  0.0242
19901SOL    HW265541  10.557   4.129   4.402  0.7926  0.3146 -0.1264
19902SOL     OW65542   7.091   9.905   5.575 -0.2057 -0.5061  0.1952
19902SOL    HW165543   7.098   9.815   5.608 -0.4515 -0.9221 -0.8455
19902SOL    HW265544   7.038   9.951   5.640  0.4640 -0.9392  1.0666
19903SOL     OW65545   3.466   7.454   9.421 -0.5182  0.2982  0.3103
19903SOL    HW165546   3.436   7.388   9.359  1.8566 -0.0464 -0.5749
19903SOL    HW265547   3.473   7.406   9.504 -1.2250  0.1037  0.2651
19904SOL     OW65548   4.875  10.812   7.249  1.1716 -0.0520 -0.0635
19904SOL    HW165549   4.843  10.778   7.166  2.8503 -1.2481 -0.2730
19904SOL    HW265550   4.844  10.903   7.251 -1.1817 -0.7709 -0.7099
19905SOL     OW65551   1.287   1.762  11.705  0.2174 -0.1399 -0.3588
19905SOL    HW165552   1.296   1.709  11.784  1.7397  0.0112 -0.3981
19905SOL    HW265553   1.197   1.795  11.708  0.1582 -0.3829  1.1458
19906SOL     OW65554   1.686   5.143  10.261  0.4457 -0.6014 -0.1954
19906SOL    HW165555   1.723   5.223  10.298  1.5813 -0.1732 -2.1516
19906SOL    HW265556   1.644   5.171  10.179 -0.2948 -1.8155 -0.2609
19907SOL     OW65557   5.260   0.500   7.949 -0.4713 -0.5480 -0.6696
19907SOL    HW165558   5.235   0.573   8.005 -2.3814 -1.8570  0.3035
19907SOL    HW265559   5.352   0.484   7.970 -0.4304  0.6286  0.1651
19908SOL     OW65560  12.045   0.404   4.373  0.2617 -0.4573  0.3407
19908SOL    HW165561  12.092   0.346   4.313 -3.1202 -1.2053 -1.8430
19908SOL    HW265562  11.998   0.465   4.316 -0.4984  0.9996  2.3990
19909SOL     OW65563   2.040   3.654   0.473 -0.0624  0.3341 -0.1464
19909SOL    HW165564   2.063   3.707   0.550 -1.2433  1.6000 -0.6334
19909SOL    HW265565   1.978   3.590   0.506  1.7548 -1.1514  0.5523
19910SOL     OW65566   0.213   3.631   0.390  0.0212  0.0053 -0.4005
19910SOL    HW165567   0.225   3.673   0.475 -2.6038 -1.1961  0.6776
19910SOL    HW265568   0.197   3.703   0.329  0.4287  0.8013  0.4128
19911SOL     OW65569   7.174   3.404   0.184  0.2183  0.2299 -0.1320
19911SOL    HW165570   7.262   3.369   0.175  0.6835  0.9701  1.1667
19911SOL    HW265571   7.153   3.392   0.277 -0.8299  0.5612 -0.3115
19912SOL     OW65572  10.512   1.154   2.286 -0.1828  0.2407 -0.1755
19912SOL    HW165573  10.433   1.208   2.290  0.2484  1.0422 -1.6327
19912SOL    HW265574  10.482   1.071   2.250 -0.4855  0.2840 -0.0279
19913SOL     OW65575  10.099   0.033   7.253 -0.1071  0.8877  0.0117
19913SOL    HW165576  10.050   0.050   7.333 -0.9635 -0.6504 -0.1369
19913SOL    HW265577  10.098   0.117   7.206  0.8994  1.9734  1.8160
19914SOL     OW65578   7.193  10.605   1.629  0.3385 -0.0363 -0.3515
19914SOL    HW165579   7.175  10.614   1.723 -0.0129  0.9507 -0.4978
19914SOL    HW265580   7.271  10.658   1.614  1.0601 -1.0928 -0.4341
19915SOL     OW65581   8.667  10.422   6.368  0.0830 -0.4221  0.3512
19915SOL    HW165582   8.707  10.389   6.449  3.3106  0.1285 -0.8793
19915SOL    HW265583   8.690  10.515   6.367 -0.6442 -0.2412 -0.8235
19916SOL     OW65584   2.141   9.005   3.726  0.4052 -0.5901 -0.4664
19916SOL    HW165585   2.126   8.966   3.640 -2.6089 -0.8860  0.0774
19916SOL    HW265586   2.071   8.969   3.781  0.8504  1.3398  1.5057
19917SOL     OW65587   7.466   8.754   4.750  0.4146  0.3621  0.0345
19917SOL    HW165588   7.376   8.735   4.726  0.3558 -0.0356  0.5391
19917SOL    HW265589   7.460   8.812   4.825  0.5802  0.4610 -0.0265
19918SOL     OW65590   4.973  10.637   9.378  0.7926 -0.0183 -0.1983
19918SOL    HW165591   4.965  10.669   9.288  2.3664 -1.5290 -0.9425
19918SOL    HW265592   4.892  10.588   9.393  0.9297 -0.5783 -1.1725
19919SOL     OW65593  10.121   2.881   1.806 -0.2247  0.5815  0.4078
19919SOL    HW165594  10.071   2.962   1.812  0.6208  1.1417 -0.0118
19919SOL    HW265595  10.054   2.812   1.810 -0.9569  1.2854  0.7125
19920SOL     OW65596   5.894   2.935   0.863  0.0830 -0.2402 -0.1939
19920SOL    HW165597   5.891   2.841   0.849  1.2717 -0.3012 -0.1249
19920SOL    HW265598   5.805   2.958   0.892  0.2740 -1.6446  1.7042
19921SOL     OW65599   2.382   9.526   6.731  0.2861  0.1179 -0.1054
19921SOL    HW165600   2.307   9.493   6.682  0.5779  0.5091 -0.8310
19921SOL    HW265601   2.399   9.458   6.797  0.5910 -1.0016 -1.2824
19922SOL     OW65602   8.297   2.550   8.729 -0.5029 -0.2514  0.0535
19922SOL    HW165603   8.230   2.618   8.720 -0.0049  0.1437 -0.7394
19922SOL    HW265604   8.257   2.472   8.690  0.0107  0.3499 -1.7598
19923SOL     OW65605  10.977  11.089  11.297  0.2979  0.2421 -0.0442
19923SOL    HW165606  10.928  11.007  11.299  0.4021  0.0715 -2.1323
19923SOL    HW265607  11.069  11.062  11.296  0.4990  0.5324  2.6966
19924SOL     OW65608   5.195   3.223   8.262 -0.9695  0.3853  0.4435
19924SOL    HW165609   5.135   3.219   8.337  0.2779  0.9292  1.5102
19924SOL    HW265610   5.225   3.133   8.251 -0.6666  0.4099  1.0210
19925SOL     OW65611   9.024   9.020   3.160  0.0175  0.0369  0.3239
19925SOL    HW165612   9.073   9.026   3.078  0.3588  1.7320  0.6209
19925SOL    HW265613   9.039   9.104   3.203 -2.9159  0.5431  0.5574
19926SOL     OW65614  11.269  11.429   8.883 -0.6914  0.1360  0.0355
19926SOL    HW165615  11.255  11.497   8.949  0.7516 -0.4093  0.9658
19926SOL    HW265616  11.203  11.363   8.901 -1.3260  0.7293 -0.0958
19927SOL     OW65617   2.640   3.777  12.243 -0.0014  0.3717 -0.8263
19927SOL    HW165618   2.658   3.683  12.235  1.4627  0.7194 -2.2742
19927SOL    HW265619   2.726   3.817  12.251 -0.5869  1.6367 -0.6102
19928SOL     OW65620   1.730   3.013   7.556  0.3247 -0.2050  0.4835
19928SOL    HW165621   1.674   3.074   7.510  0.7705 -0.8256 -0.9491
19928SOL    HW265622   1.814   3.018   7.511  0.4961 -1.5443  0.5911
19929SOL     OW65623  10.739   1.413   4.708 -0.1595  0.1268  0.0124
19929SOL    HW165624  10.692   1.441   4.787 -0.5639 -1.1540  0.2590
19929SOL    HW265625  10.830   1.405   4.736  0.3791  3.0634 -0.5829
19930SOL     OW65626   8.788   5.780   2.310 -0.2745 -0.3000  0.1019
19930SOL    HW165627   8.717   5.835   2.277 -0.9506 -0.9556  0.4373
19930SOL    HW265628   8.764   5.691   2.285  1.1349 -0.4051 -1.0021
19931SOL     OW65629   3.252   0.985   7.522 -0.0093  0.3419 -0.3138
19931SOL    HW165630   3.240   0.933   7.443 -2.0472 -1.0020  0.7793
19931SOL    HW265631   3.176   1.044   7.524 -2.2922 -2.3204  2.4475
19932SOL     OW65632  11.098   7.035   1.828  0.1693  0.5996  0.2118
19932SOL    HW165633  11.034   6.972   1.795  0.5242 -1.0362  2.4065
19932SOL    HW265634  11.045   7.110   1.856 -0.5382  0.2520 -0.1702
19933SOL     OW65635   7.828   8.447   4.845 -0.1489 -0.3405 -0.3995
19933SOL    HW165636   7.734   8.437   4.835 -0.4499  0.0800  1.6113
19933SOL    HW265637   7.855   8.499   4.770 -1.7044  0.4817 -0.4212
19934SOL     OW65638  11.374   3.169   6.712 -0.1107 -0.0556  0.3667
19934SOL    HW165639  11.416   3.139   6.631 -0.6951  0.5365 -0.1669
19934SOL    HW265640  11.359   3.090   6.763 -0.6218 -0.5455 -0.5275
19935SOL     OW65641   0.126   5.524  11.845 -0.2952 -0.0287  0.3231
19935SOL    HW165642   0.059   5.592  11.851  0.3514  0.6241  0.1632
19935SOL    HW265643   0.076   5.443  11.835 -1.0635  0.4429  0.2554
19936SOL     OW65644   2.081   1.106   8.882 -0.1672  0.1600 -0.2802
19936SOL    HW165645   2.042   1.157   8.953 -0.2722 -1.0880  0.5970
19936SOL    HW265646   2.007   1.056   8.846  0.0357  0.1980 -0.7497
19937SOL     OW65647  11.557   6.381  12.176  0.1445  0.5945 -0.1916
19937SOL    HW165648  11.564   6.411  12.085  0.0436  0.0005 -0.4028
19937SOL    HW265649  11.569   6.286  12.170 -0.8767  0.4241  0.2936
19938SOL     OW65650   7.633   5.397   2.703  0.2714  0.6301  0.1099
19938SOL    HW165651   7.559   5.352   2.662  0.1143  0.3925  0.6450
19938SOL    HW265652   7.700   5.329   2.712  0.3238  0.6936  0.2037
19939SOL     OW65653   3.146  10.565  11.727 -0.1231 -0.2565 -0.4318
19939SOL    HW165654   3.125  10.606  11.811  0.1671 -1.1484  0.0936
19939SOL    HW265655   3.068  10.578  11.673 -0.5929 -0.3005  0.2280
19940SOL     OW65656   2.978  12.088   6.394  0.1898 -0.6802 -0.2166
19940SOL    HW165657   3.013  12.042   6.469 -0.7262 -0.0631  0.6189
19940SOL    HW265658   2.909  12.031   6.360 -0.6982 -0.1164  0.5974
19941SOL     OW65659   2.219   0.573   6.197 -0.0275 -0.1426 -0.0069
19941SOL    HW165660   2.310   0.572   6.227 -0.0791  2.0266  0.3924
19941SOL    HW265661   2.167   0.559   6.276 -0.0748 -1.5304 -0.2571
19942SOL     OW65662   4.786   1.052  12.288 -0.4241 -0.1215  0.1928
19942SOL    HW165663   4.721   1.055  12.359 -0.6718 -2.6785  0.1647
19942SOL    HW265664   4.752   1.111  12.222 -1.6014  0.2406  1.0814
19943SOL     OW65665  11.256   1.906   9.065  0.2565  0.0854 -0.3235
19943SOL    HW165666  11.315   1.855   9.120 -0.2671 -1.4879 -1.1755
19943SOL    HW265667  11.228   1.846   8.996 -0.3467  1.5395 -1.4128
19944SOL     OW65668   5.658   1.613   9.661  0.1062 -0.5650 -0.4004
19944SOL    HW165669   5.635   1.668   9.736  0.2251  0.1201 -0.8588
19944SOL    HW265670   5.675   1.675   9.591 -1.1943 -1.2327 -1.3424
19945SOL     OW65671   1.116   1.899   2.591 -0.1316 -0.2478  0.2357
19945SOL    HW165672   1.162   1.957   2.530  0.2776 -0.4560  0.3393
19945SOL    HW265673   1.181   1.833   2.614 -0.7601 -1.0596 -0.2867
19946SOL     OW65674   1.587   9.231   1.435 -0.8754 -0.2611  0.0830
19946SOL    HW165675   1.681   9.216   1.441 -1.0158 -0.7936  1.1829
19946SOL    HW265676   1.560   9.183   1.356 -0.3574 -0.7916  0.2247
19947SOL     OW65677   9.583   8.398   0.186  0.4508 -0.4861 -0.0350
19947SOL    HW165678   9.595   8.327   0.123  0.0491 -0.3935 -0.2142
19947SOL    HW265679   9.518   8.365   0.247  1.6221 -1.0072  0.9753
19948SOL     OW65680   5.830   6.616   1.588  0.3167  0.6841 -0.6409
19948SOL    HW165681   5.901   6.556   1.612  1.6418  1.1626 -3.0453
19948SOL    HW265682   5.777   6.566   1.525 -0.1602  1.1134 -0.5816
19949SOL     OW65683   2.073   8.439   7.422 -0.7699 -0.2613  0.3937
19949SOL    HW165684   2.060   8.533   7.434 -0.1813  0.0868 -1.4787
19949SOL    HW265685   2.040   8.400   7.504 -2.6126  1.4108  0.5290
19950SOL     OW65686   1.515   9.061   1.230  0.0497  0.2336  0.4620
19950SOL    HW165687   1.600   9.019   1.219 -0.8552 -1.5473 -0.0742
19950SOL    HW265688   1.491   9.092   1.142 -0.1908  0.0488  0.4605
19951SOL     OW65689   0.967   6.942   2.560  0.2311 -0.2693  0.4698
19951SOL    HW165690   1.062   6.934   2.552  0.3583  1.8874 -1.0410
19951SOL    HW265691   0.955   7.009   2.627 -0.2017  0.1154  0.0091
19952SOL     OW65692   8.974   9.934   4.892  0.1515  0.4515  0.8525
19952SOL    HW165693   8.944   9.994   4.961  1.8890  1.0704  1.1347
19952SOL    HW265694   9.066   9.957   4.880  0.2688 -0.6886 -0.6218
19953SOL     OW65695  10.648   8.095   5.505 -0.1265  0.4642 -0.3049
19953SOL    HW165696  10.553   8.083   5.508  0.0246 -0.7041  1.9653
19953SOL    HW265697  10.669   8.093   5.411 -2.1865 -0.5783 -0.8215
19954SOL     OW65698  10.254   4.676   9.200 -0.2665  0.1614 -0.2096
19954SOL    HW165699  10.164   4.696   9.176  0.2941  0.9705 -1.8502
19954SOL    HW265700  10.267   4.585   9.172 -0.2427  0.4323 -1.1179
19955SOL     OW65701   6.378   4.835   7.134 -0.5313 -0.1832 -0.4027
19955SOL    HW165702   6.423   4.897   7.191 -2.4854  0.6937  0.2635
19955SOL    HW265703   6.329   4.890   7.073 -2.6371 -1.0111  0.4627
19956SOL     OW65704   9.763   5.482   6.938  0.2760 -0.5572  0.0619
19956SOL    HW165705   9.753   5.411   6.875  0.2959 -1.6001  1.1755
19956SOL    HW265706   9.684   5.535   6.928  0.6339 -0.2624 -1.3374
19957SOL     OW65707   7.648   5.797  11.787  0.4102 -0.4007 -0.3202
19957SOL    HW165708   7.637   5.854  11.711  0.7369 -0.7660 -0.6454
19957SOL    HW265709   7.694   5.852  11.851 -2.0724  0.7529  0.6127
19958SOL     OW65710  10.644  10.111   0.739 -0.5783  0.1090  0.0513
19958SOL    HW165711  10.561  10.157   0.724 -1.3551 -0.6555  1.7221
19958SOL    HW265712  10.638  10.079   0.829  0.6652 -1.7299 -0.4545
19959SOL     OW65713  12.177   3.738  10.603 -0.4944 -0.0048 -0.3496
19959SOL    HW165714  12.088   3.774  10.597 -0.8599 -0.9210 -0.6640
19959SOL    HW265715  12.175   3.684  10.682  0.2183  1.0825  0.4473
19960SOL     OW65716   1.834  11.009  11.727 -0.4214 -0.5701 -0.3574
19960SOL    HW165717   1.850  10.932  11.782 -1.2983 -0.6864 -0.2483
19960SOL    HW265718   1.801  11.075  11.788  1.8415  0.4712 -0.1494
19961SOL     OW65719   1.299   3.654   4.743  0.0608  0.1030  0.0517
19961SOL    HW165720   1.334   3.565   4.731 -1.3699 -0.4791 -0.0217
19961SOL    HW265721   1.265   3.654   4.833 -2.4201 -0.3789 -0.8046
19962SOL     OW65722   1.308   0.842  10.195  0.2498  0.2122 -0.2696
19962SOL    HW165723   1.375   0.774  10.192 -0.3959 -0.4145 -0.9690
19962SOL    HW265724   1.355   0.921  10.222  1.2267 -0.2515 -0.5653
19963SOL     OW65725  10.358  10.914   3.268 -0.2716 -0.1198  0.1008
19963SOL    HW165726  10.388  10.847   3.329 -0.2717  0.8523  1.1977
19963SOL    HW265727  10.354  10.870   3.183 -0.0568 -1.4367  0.7600
19964SOL     OW65728   0.249  11.073   3.489  0.3198 -0.2326  0.2522
19964SOL    HW165729   0.310  11.061   3.562  1.1833 -0.4474 -0.4844
19964SOL    HW265730   0.232  11.167   3.488 -0.6700 -0.3769  1.4822
19965SOL     OW65731   4.546   5.764   6.142  0.4646  0.3461 -0.1875
19965SOL    HW165732   4.548   5.774   6.047  2.1806  1.3076 -0.0820
19965SOL    HW265733   4.463   5.803   6.169 -1.4113 -2.4111 -1.4755
19966SOL     OW65734   3.194   0.923   0.318 -0.1653  0.0066 -0.2510
19966SOL    HW165735   3.266   0.868   0.286 -0.5879 -0.1980 -0.8755
19966SOL    HW265736   3.129   0.861   0.351 -0.2864  0.1636 -0.1938
19967SOL     OW65737   0.162   4.407   3.445 -0.0910  0.3079 -0.4418
19967SOL    HW165738   0.213   4.370   3.517 -1.5934 -1.6025 -0.2750
19967SOL    HW265739   0.072   4.412   3.479 -0.4748  1.3388 -1.5176
19968SOL     OW65740   3.192   8.124   4.848 -0.1160  0.1109 -0.4971
19968SOL    HW165741   3.275   8.126   4.799  0.3172 -2.8760 -0.1035
19968SOL    HW265742   3.153   8.040   4.825 -1.7058  0.2339  1.4810
19969SOL     OW65743   0.213   2.262   9.650 -0.2374 -0.3000  0.2507
19969SOL    HW165744   0.254   2.208   9.717 -0.0795  1.1589  1.3909
19969SOL    HW265745   0.216   2.209   9.570  1.4472 -1.2666  0.9217
19970SOL     OW65746   6.251   1.009  11.641 -0.2454  0.3756 -0.0582
19970SOL    HW165747   6.232   0.998  11.548 -1.3932 -0.4746  0.2615
19970SOL    HW265748   6.344   1.033  11.643  0.0186 -0.4040 -1.3685
19971SOL     OW65749   2.005   8.155   5.731  1.2940 -0.5523  0.9159
19971SOL    HW165750   1.958   8.209   5.794  1.2043 -0.8060  1.0685
19971SOL    HW265751   1.936   8.113   5.679  1.3693 -0.2502  0.5690
19972SOL     OW65752   5.188   7.651   4.804 -0.3709  0.7642  0.0949
19972SOL    HW165753   5.131   7.574   4.803 -0.7742  1.0350 -1.7859
19972SOL    HW265754   5.255   7.632   4.738 -0.2673  1.8803 -0.1427
19973SOL     OW65755   1.957   0.209   2.881  0.1710  0.2287 -0.2550
19973SOL    HW165756   1.925   0.213   2.791 -0.8610  1.1137  0.1260
19973SOL    HW265757   1.943   0.118   2.907 -1.3541  0.4077 -0.3624
19974SOL     OW65758   7.334   5.448   2.502  0.0415  0.4726 -0.2292
19974SOL    HW165759   7.280   5.416   2.574 -1.5049 -2.0720 -2.2752
19974SOL    HW265760   7.400   5.379   2.490  1.4339  1.7520 -0.1181
19975SOL     OW65761   9.313  10.847   5.868  0.1307  0.2366 -0.5435
19975SOL    HW165762   9.369  10.899   5.925 -1.1990  0.7268  0.3686
19975SOL    HW265763   9.327  10.884   5.781 -0.9432  2.3467  0.1034
19976SOL     OW65764   1.887   0.743  11.374  0.0058 -0.0432 -0.0590
19976SOL    HW165765   1.815   0.765  11.434  0.0142  0.9556 -0.3968
19976SOL    HW265766   1.932   0.670  11.416  0.4105  1.0437  1.5164
19977SOL     OW65767  10.742   1.697   2.611  0.5475  0.4790 -0.3830
19977SOL    HW165768  10.655   1.658   2.618  0.9772 -0.8594 -1.7968
19977SOL    HW265769  10.727   1.791   2.606 -0.8241  0.2553 -0.6843
19978SOL     OW65770   0.554   1.492   1.390 -0.8605 -0.4836  0.1999
19978SOL    HW165771   0.603   1.492   1.472 -0.0880  0.7307 -0.2358
19978SOL    HW265772   0.550   1.585   1.365  0.7319 -0.9866 -2.1808
19979SOL     OW65773   6.579   2.534   5.276  0.4360  0.6794  0.3926
19979SOL    HW165774   6.591   2.594   5.349 -0.6327  1.4445 -0.0246
19979SOL    HW265775   6.509   2.475   5.304  0.5981  0.4450  0.3086
19980SOL     OW65776   2.340   0.361   2.116 -0.2281  0.3189 -0.5393
19980SOL    HW165777   2.421   0.408   2.134  0.5538 -1.1713 -0.0576
19980SOL    HW265778   2.350   0.277   2.160 -1.8541 -0.0710 -0.8454
19981SOL     OW65779   4.484   4.259   6.964  0.5671  0.8120  0.2666
19981SOL    HW165780   4.403   4.290   6.925 -0.9523 -2.4280  0.4645
19981SOL    HW265781   4.541   4.239   6.889 -0.5147 -0.8636 -0.1763
19982SOL     OW65782   6.379   1.508  10.900 -0.5978  0.4650  0.3332
19982SOL    HW165783   6.382   1.573  10.830  0.4412  2.2346  1.9250
19982SOL    HW265784   6.470   1.479  10.910 -1.1086 -1.7343 -0.7062
19983SOL     OW65785  12.190   6.213   1.146  0.3576  0.2551 -0.0876
19983SOL    HW165786  12.174   6.301   1.179  0.1293 -0.0026  0.5037
19983SOL    HW265787  12.276   6.218   1.105  0.7600  0.5411  0.7504
19984SOL     OW65788  11.301   9.681   0.078  0.3278  0.2585 -0.7321
19984SOL    HW165789  11.360   9.657   0.150 -0.9694  1.1710  0.7054
19984SOL    HW265790  11.342   9.644  -0.000  2.2777  0.0375  0.3365
19985SOL     OW65791  10.904   1.969   7.321  0.1223  0.1110  0.4386
19985SOL    HW165792  10.875   1.905   7.386 -1.7121  0.2129 -0.2264
19985SOL    HW265793  10.910   1.920   7.239  1.5368  0.1893  0.4611
19986SOL     OW65794   9.983   9.827   8.622 -0.4955 -0.5364 -0.1779
19986SOL    HW165795  10.005   9.912   8.660 -0.5784 -0.8544  0.6003
19986SOL    HW265796  10.000   9.765   8.692  0.9495 -1.3373 -1.1810
19987SOL     OW65797  11.223   3.156   6.981  0.7132  0.3723 -0.2600
19987SOL    HW165798  11.149   3.202   7.021  0.9859  0.1613  0.5003
19987SOL    HW265799  11.232   3.196   6.895  0.7955  1.6012  0.2854
19988SOL     OW65800   9.732   9.209   2.794  0.4089 -0.1143 -0.1699
19988SOL    HW165801   9.772   9.122   2.797 -1.4563 -1.0448 -0.6184
19988SOL    HW265802   9.805   9.269   2.777  2.0050 -1.3519  1.9232
19989SOL     OW65803   1.595  10.580   2.026 -0.5294  0.2734  0.0135
19989SOL    HW165804   1.635  10.502   2.064  1.3465  0.9715 -0.4504
19989SOL    HW265805   1.667  10.628   1.987 -1.4888  2.7279  1.0889
19990SOL     OW65806   3.944  11.461   3.722  0.0652 -0.9247 -0.2795
19990SOL    HW165807   3.861  11.432   3.683 -2.0552  0.8729  2.4718
19990SOL    HW265808   3.971  11.535   3.668  0.3094 -1.9421 -1.6074
19991SOL     OW65809  11.061  12.046   3.825  0.3298  0.1088  0.0250
19991SOL    HW165810  11.114  12.119   3.794  1.9944 -0.3027  1.6891
19991SOL    HW265811  11.008  12.083   3.896 -0.0942  0.0705 -0.2705
19992SOL     OW65812   7.123   0.350   5.552 -0.0753 -0.2776  0.0777
19992SOL    HW165813   7.065   0.301   5.495  0.5688 -1.2887  0.2737
19992SOL    HW265814   7.064   0.405   5.604 -0.8737 -1.3365  0.3319
19993SOL     OW65815   1.252  11.386   8.544 -0.2665 -0.0078 -0.1118
19993SOL    HW165816   1.255  11.475   8.580  0.3466 -0.1930  0.3210
19993SOL    HW265817   1.343  11.367   8.521 -0.2619 -0.8062  0.5251
19994SOL     OW65818   2.961  10.523   2.843 -1.1884 -0.1341 -0.0121
19994SOL    HW165819   2.933  10.605   2.803 -1.6502  0.3738  1.2925
19994SOL    HW265820   2.958  10.540   2.937 -0.2457 -1.3149  0.2584
19995SOL     OW65821  10.625  10.444   5.165  0.1621 -0.1070 -0.2464
19995SOL    HW165822  10.552  10.392   5.197  0.4804 -1.3224 -1.4292
19995SOL    HW265823  10.688  10.446   5.237 -0.6183  0.1798  0.4431
19996SOL     OW65824   5.181   4.186   1.264  0.0734  0.2457 -0.0512
19996SOL    HW165825   5.116   4.180   1.194 -1.4537  0.8042  1.2556
19996SOL    HW265826   5.135   4.157   1.343  1.6008  0.0587  0.8178
19997SOL     OW65827   4.141   6.097   8.916 -0.3364  0.2209 -0.4686
19997SOL    HW165828   4.180   6.149   8.846  0.3052  1.4458  0.7367
19997SOL    HW265829   4.196   6.115   8.992 -1.4954 -0.4065  0.5604
19998SOL     OW65830   8.570  11.249   9.657  0.7183 -0.5172 -0.2660
19998SOL    HW165831   8.484  11.212   9.675  0.5151 -0.3543 -0.8820
19998SOL    HW265832   8.632  11.184   9.691  0.3573  0.0437  1.5382
19999SOL     OW65833   0.628   1.986   6.218 -0.1072 -0.0348 -0.0223
19999SOL    HW165834   0.596   1.896   6.225  0.2389 -0.0626  1.6458
19999SOL    HW265835   0.635   2.016   6.309  0.1287  1.5588 -0.5347
20000SOL     OW65836   6.708  11.544   2.988 -0.1946 -0.2411  0.2831
20000SOL    HW165837   6.632  11.486   2.996  0.7422 -1.6045 -0.3031
20000SOL    HW265838   6.748  11.545   3.075 -1.1352  0.9048  0.7380
20001SOL     OW65839   6.296  11.745   4.338  0.3407 -0.4262  0.0886
20001SOL    HW165840   6.341  11.670   4.376  0.4658  0.1701  1.1581
20001SOL    HW265841   6.229  11.707   4.281  0.8718 -1.3321  0.0533
20002SOL     OW65842   7.836  11.994   7.744 -0.2380  0.0989 -0.3171
20002SOL    HW165843   7.798  11.910   7.768 -1.1596  0.1870 -1.3476
20002SOL    HW265844   7.852  12.039   7.827 -0.3964 -0.7973  0.2098
20003SOL     OW65845  11.185   2.177   1.171 -0.1072  0.1382 -0.5711
20003SOL    HW165846  11.111   2.124   1.201 -2.1470  2.5851 -1.0311
20003SOL    HW265847  11.239   2.188   1.250 -0.7430 -0.8026  0.0218
20004SOL     OW65848   4.634   0.218   4.792  0.1286 -0.0161  0.1730
20004SOL    HW165849   4.688   0.148   4.756  0.9832 -0.3612  2.0142
20004SOL    HW265850   4.546   0.200   4.758  0.3132 -2.0337  0.6529
20005SOL     OW65851   2.532   1.153   6.729  0.1438  0.4407  0.0413
20005SOL    HW165852   2.550   1.127   6.819  0.0682  1.6142  0.4181
20005SOL    HW265853   2.608   1.123   6.680  0.4241  0.2321  0.5875
20006SOL     OW65854   9.345   1.589   0.475 -0.5360  0.1027 -0.2114
20006SOL    HW165855   9.439   1.587   0.457 -0.2418  0.8945  1.1596
20006SOL    HW265856   9.308   1.634   0.399  0.3158  0.7344 -0.2689
20007SOL     OW65857   2.777  11.597   0.478  0.6806  0.5698 -0.3592
20007SOL    HW165858   2.766  11.573   0.386 -0.3113  2.1778 -0.6995
20007SOL    HW265859   2.834  11.674   0.476  1.1153  0.2850  0.4352
20008SOL     OW65860   2.190   5.022   0.414  0.2101 -0.1082 -0.8012
20008SOL    HW165861   2.254   4.961   0.452  0.4083 -0.3738 -1.5287
20008SOL    HW265862   2.167   5.080   0.485  0.2907 -0.8201 -0.1777
20009SOL     OW65863   2.195   8.270   8.609  0.0778  0.0053  0.2650
20009SOL    HW165864   2.263   8.334   8.633  0.3702 -0.7820  1.5993
20009SOL    HW265865   2.119   8.296   8.660 -0.1370 -0.0890 -0.0040
20010SOL     OW65866   6.117   9.695   2.704  0.3758  0.4495 -0.3519
20010SOL    HW165867   6.108   9.747   2.624 -2.4714 -1.9391 -1.7791
20010SOL    HW265868   6.027   9.674   2.729  1.2591 -0.3583  2.5334
20011SOL     OW65869   7.082   9.643   8.387 -0.1659 -0.0037  0.9653
20011SOL    HW165870   6.995   9.672   8.361 -0.1083 -1.3330 -0.9394
20011SOL    HW265871   7.114   9.712   8.444 -1.4380  1.8295 -0.4079
20012SOL     OW65872   1.876   3.665  10.229  0.0438 -0.2100  0.7619
20012SOL    HW165873   1.896   3.673  10.322 -2.5219 -0.8870  1.4516
20012SOL    HW265874   1.831   3.746  10.207 -0.9442 -0.7951  0.5878
20013SOL     OW65875   8.233   4.977   5.389  0.4368  0.1654 -0.7941
20013SOL    HW165876   8.280   4.977   5.306 -1.4879  2.1812 -2.0150
20013SOL    HW265877   8.285   5.033   5.446  0.5840  0.7161 -1.4511
20014SOL     OW65878  11.092   1.035   2.614  0.0744  0.1897 -0.1893
20014SOL    HW165879  11.115   1.004   2.526 -0.2801  0.7613 -0.4888
20014SOL    HW265880  11.020   0.979   2.641 -0.1073  0.2960 -0.4460
20015SOL     OW65881  10.842   5.003   1.018 -0.1107  0.4562 -0.6185
20015SOL    HW165882  10.887   4.921   1.039  1.5611  1.2135 -1.0469
20015SOL    HW265883  10.807   4.989   0.930 -2.0463 -0.6551  0.2800
20016SOL     OW65884  10.063  10.399   0.010 -0.1211  0.2280  0.0947
20016SOL    HW165885  10.076  10.307   0.032 -2.6055  0.0693  1.3689
20016SOL    HW265886  10.106  10.447   0.081  0.2301  0.0099  0.0286
20017SOL     OW65887   8.562  11.658   2.056  0.3659  0.1971  0.6149
20017SOL    HW165888   8.511  11.684   2.133 -0.1112  1.0707  0.0182
20017SOL    HW265889   8.539  11.723   1.989  0.6585 -0.6310 -0.3087
20018SOL     OW65890   4.059   7.590  10.627 -0.0605 -0.2170 -0.2639
20018SOL    HW165891   4.117   7.656  10.666 -1.5792  1.3982 -0.6197
20018SOL    HW265892   4.042   7.624  10.539 -1.8424 -0.4384 -0.0243
20019SOL     OW65893   5.006   9.008   4.860 -0.0823 -0.1073  0.5428
20019SOL    HW165894   5.004   8.952   4.783  1.1403  1.7876 -0.9622
20019SOL    HW265895   4.940   8.970   4.919 -1.0850 -1.6070 -1.4232
20020SOL     OW65896   9.483   2.677   3.293 -0.6293  0.5812 -0.1713
20020SOL    HW165897   9.543   2.724   3.235  0.9905  0.9469  1.6857
20020SOL    HW265898   9.449   2.745   3.353 -1.8798  0.1432 -0.3616
20021SOL     OW65899   5.173   4.766   2.591  0.3129 -1.0030 -0.4796
20021SOL    HW165900   5.238   4.707   2.552  0.5991 -0.1932 -1.2619
20021SOL    HW265901   5.160   4.834   2.525 -1.7584 -1.4403 -0.5770
20022SOL     OW65902   2.560   4.694   1.832 -0.4309  0.3758  0.0516
20022SOL    HW165903   2.469   4.666   1.825 -0.2194 -0.6905  1.2081
20022SOL    HW265904   2.561   4.782   1.795 -1.7139  0.0012 -0.9700
20023SOL     OW65905   2.602   2.829   4.728  0.0081 -0.4568 -0.2450
20023SOL    HW165906   2.688   2.840   4.769  0.4001  0.8847 -1.3550
20023SOL    HW265907   2.620   2.818   4.635 -1.0263  0.2880 -0.5601
20024SOL     OW65908   3.613  12.239   4.771 -0.1339  0.0300 -0.1397
20024SOL    HW165909   3.611  12.315   4.713  1.5712  0.1100 -0.1335
20024SOL    HW265910   3.580  12.272   4.854  0.2209  0.6677 -0.2471
20025SOL     OW65911   8.594   4.549   0.187 -0.1951  0.0089  0.1739
20025SOL    HW165912   8.629   4.499   0.261  0.0695 -0.9275 -0.5697
20025SOL    HW265913   8.500   4.529   0.186 -0.7288  2.0303  1.7840
20026SOL     OW65914   0.828   9.741   3.451  0.1107 -0.1873  0.4182
20026SOL    HW165915   0.747   9.712   3.410  0.7115  0.6972 -1.5076
20026SOL    HW265916   0.823   9.708   3.541 -2.8573  0.8395  0.7019
20027SOL     OW65917   5.773  10.705   2.148 -0.3739  0.2677 -0.5846
20027SOL    HW165918   5.811  10.787   2.115 -0.1070  0.4323  0.1235
20027SOL    HW265919   5.847  10.658   2.185 -0.6078 -0.0958 -0.5779
20028SOL     OW65920   2.285   3.912   1.070 -0.4403 -0.0701  0.5040
20028SOL    HW165921   2.273   4.007   1.058  2.1113  0.3194  0.3505
20028SOL    HW265922   2.198   3.875   1.056 -1.2692  2.1212 -0.8053
20029SOL     OW65923  10.749   1.597   5.901  0.0605 -0.0613  0.2445
20029SOL    HW165924  10.778   1.507   5.889 -1.5534 -1.0609  3.0547
20029SOL    HW265925  10.674   1.606   5.843 -0.7142 -1.0579  1.0683
20030SOL     OW65926   5.004   0.672   7.594 -0.4517 -0.3157 -0.7374
20030SOL    HW165927   4.910   0.689   7.585 -0.3898  1.4920  1.2104
20030SOL    HW265928   5.010   0.608   7.664 -0.2484 -0.8155 -1.2106
20031SOL     OW65929   1.616   9.702   9.678  0.1987 -0.2386  0.0266
20031SOL    HW165930   1.522   9.694   9.662  0.1351 -0.8163  0.6329
20031SOL    HW265931   1.646   9.612   9.691  0.6496  0.0181  0.8469
20032SOL     OW65932   6.886   6.913   9.476 -0.0257 -0.1262  0.6762
20032SOL    HW165933   6.827   6.842   9.502 -1.8626  1.2156  0.4109
20032SOL    HW265934   6.974   6.877   9.488 -0.8765 -2.3654  0.7193
20033SOL     OW65935   1.818   0.050  12.141  0.1922 -0.1156  0.2020
20033SOL    HW165936   1.739  -0.001  12.161 -0.8095  0.6060 -1.6305
20033SOL    HW265937   1.852   0.011  12.060  0.3859  1.0056 -0.2840
20034SOL     OW65938  11.658   5.813   8.995 -0.2437  0.6495 -0.8342
20034SOL    HW165939  11.753   5.827   8.996 -0.2979  1.0342 -0.8648
20034SOL    HW265940  11.630   5.832   9.084  0.2238 -3.3255  0.3518
20035SOL     OW65941   0.527   7.671   0.884 -0.6672 -0.0464  0.0718
20035SOL    HW165942   0.462   7.600   0.877  0.1604 -0.7735 -0.4294
20035SOL    HW265943   0.611   7.628   0.869 -0.2255  1.2357 -1.3302
20036SOL     OW65944  11.547   6.224   2.951  0.3139 -0.1940 -0.2948
20036SOL    HW165945  11.598   6.183   2.881 -1.6194 -1.3757 -1.0933
20036SOL    HW265946  11.611   6.242   3.020  2.1835  0.4955 -2.1154
20037SOL     OW65947  11.321   4.070  10.813  0.4486  0.3308  0.1428
20037SOL    HW165948  11.354   4.100  10.728 -1.2904  0.8233 -0.4020
20037SOL    HW265949  11.239   4.026  10.793 -0.7191  1.6921  1.6855
20038SOL     OW65950  11.042   2.378   4.471  0.3630 -0.0344  0.1992
20038SOL    HW165951  10.948   2.394   4.466  0.8122  2.8258 -0.4083
20038SOL    HW265952  11.069   2.361   4.381  0.2618 -2.6684  0.5611
20039SOL     OW65953   5.453  10.619   3.913 -0.0537  0.0317 -0.0888
20039SOL    HW165954   5.378  10.563   3.928  1.0623 -1.8009 -1.0081
20039SOL    HW265955   5.522  10.583   3.970  0.6716  0.4822 -0.6611
20040SOL     OW65956   0.680   6.398   4.543  0.4867 -0.1915 -0.0750
20040SOL    HW165957   0.641   6.372   4.460  0.2058  2.7386 -0.9841
20040SOL    HW265958   0.637   6.343   4.609 -0.1482 -1.7459 -1.7055
20041SOL     OW65959   9.280  10.656   7.656 -0.1962  0.2247  0.5295
20041SOL    HW165960   9.321  10.646   7.570  0.8917 -0.1468  1.0624
20041SOL    HW265961   9.193  10.690   7.638  0.1544  0.5186 -0.6988
20042SOL     OW65962  10.897   8.758   9.435 -0.0477  0.2106 -0.0674
20042SOL    HW165963  10.992   8.756   9.432 -0.0596 -1.5998 -0.1954
20042SOL    HW265964  10.872   8.815   9.362  0.9168  1.1750  0.3220
20043SOL     OW65965  10.303   7.043   0.945 -0.4499 -0.4084  0.5929
20043SOL    HW165966  10.389   7.010   0.918  0.2036 -0.2183  2.3317
20043SOL    HW265967  10.240   6.988   0.898  0.6135 -0.8296 -0.3804
20044SOL     OW65968   7.251   9.332   1.867 -0.3595 -0.1250  0.4261
20044SOL    HW165969   7.234   9.413   1.915  1.9373  0.2959  0.6276
20044SOL    HW265970   7.331   9.350   1.816 -0.3217 -1.9594 -0.2467
20045SOL     OW65971  11.144   1.125   8.802  0.0175 -0.1171 -0.1497
20045SOL    HW165972  11.128   1.216   8.827  1.1662  0.0741 -0.0714
20045SOL    HW265973  11.065   1.079   8.830 -0.3476  0.7565  0.3151
20046SOL     OW65974   0.467   6.259   7.983  0.0985 -0.1918  0.1589
20046SOL    HW165975   0.428   6.301   8.059 -0.6609 -0.7383  0.0840
20046SOL    HW265976   0.561   6.259   8.001 -0.1669 -1.6116  1.7698
20047SOL     OW65977   2.150   2.335   8.423  0.3539 -0.1253  0.0535
20047SOL    HW165978   2.057   2.353   8.407  0.0414 -1.3134  0.4345
20047SOL    HW265979   2.165   2.249   8.383  1.1848 -0.1301  0.3527
20048SOL     OW65980   1.577   0.101   6.606  0.3867  0.0916  0.3018
20048SOL    HW165981   1.535   0.145   6.532 -0.2909 -0.5058  0.3261
20048SOL    HW265982   1.558   0.158   6.681 -2.8551 -1.5087  0.8628
20049SOL     OW65983   6.218   4.977   8.511 -0.5851 -0.1502  0.1947
20049SOL    HW165984   6.285   5.036   8.478 -0.0965 -0.2307  1.0266
20049SOL    HW265985   6.243   4.891   8.476  0.5336 -0.4269  1.5966
20050SOL     OW65986   8.791   5.578   5.918  0.4215  0.1956  0.4374
20050SOL    HW165987   8.779   5.486   5.896  1.1034  0.1564  0.2187
20050SOL    HW265988   8.830   5.617   5.840 -0.0461  0.7110  0.4585
20051SOL     OW65989  11.240   1.654   8.919  0.5002  0.1182 -0.2891
20051SOL    HW165990  11.190   1.587   8.873  1.7611  0.0897 -1.7153
20051SOL    HW265991  11.315   1.671   8.862  1.7781  0.6152  1.4387
20052SOL     OW65992  10.152  11.408   4.216  0.0139  0.3262  0.2130
20052SOL    HW165993  10.194  11.437   4.298  1.0928 -2.0568  0.5783
20052SOL    HW265994  10.213  11.435   4.147  0.0763  0.5839  0.3670
20053SOL     OW65995   6.220   2.149   3.598  0.7170 -0.0297  0.3681
20053SOL    HW165996   6.198   2.116   3.685 -0.7842  0.0444  0.0492
20053SOL    HW265997   6.271   2.078   3.558 -0.9935 -1.3048  0.3156
20054SOL     OW65998   4.895   7.241   0.922 -0.5033 -0.0302 -0.2039
20054SOL    HW165999   4.964   7.218   0.860 -0.7712  0.8815 -0.8605
20054SOL    HW266000   4.823   7.272   0.868 -0.1643  2.2962  0.5735
20055SOL     OW66001   3.860   1.632   5.092 -0.6114  0.6967  0.2997
20055SOL    HW166002   3.897   1.578   5.023  2.9708  0.1827  2.3996
20055SOL    HW266003   3.834   1.570   5.161 -0.8668  1.3887  0.8434
20056SOL     OW66004   6.308   1.244  11.170  0.2485  0.0405 -0.2435
20056SOL    HW166005   6.226   1.291  11.187 -0.8703 -1.1324 -2.1090
20056SOL    HW266006   6.288   1.153  11.193  0.7642 -0.3863 -1.4159
20057SOL     OW66007  10.432   2.382   1.039  0.4254 -0.0092  0.2313
20057SOL    HW166008  10.503   2.319   1.041  0.2422 -0.2088  0.5563
20057SOL    HW266009  10.390   2.374   1.125 -1.0483 -1.1041 -0.5471
20058SOL     OW66010   5.193   2.170   3.563  0.0639 -0.7157  0.6790
20058SOL    HW166011   5.183   2.211   3.649  0.0462  1.2988 -0.2354
20058SOL    HW266012   5.112   2.192   3.516  0.0468 -1.8314  0.1390
20059SOL     OW66013   1.100   1.497   5.542 -0.7868 -0.3708  0.0455
20059SOL    HW166014   1.122   1.581   5.582 -0.1615 -0.8850  0.8130
20059SOL    HW266015   1.182   1.468   5.501 -1.3637  0.0658 -1.5289
20060SOL     OW66016   2.722   4.721   7.923 -0.1186  0.1232  0.2218
20060SOL    HW166017   2.750   4.774   7.848 -1.6410  1.3794  0.5035
20060SOL    HW266018   2.675   4.781   7.980  1.8246 -0.5424  2.7427
20061SOL     OW66019   2.901   4.141   1.851  0.2098 -0.1107 -0.4860
20061SOL    HW166020   2.854   4.093   1.919 -2.8326  0.4437 -1.9960
20061SOL    HW266021   2.922   4.226   1.890 -3.2916  0.9839 -0.6683
20062SOL     OW66022   6.749   2.489   2.466 -0.2486  0.4020  0.5240
20062SOL    HW166023   6.678   2.535   2.511  0.7192 -0.3065  2.9576
20062SOL    HW266024   6.707   2.410   2.431 -1.0673  1.0495  0.0043
20063SOL     OW66025  11.238  11.675   4.782 -0.7886 -0.7349  0.2567
20063SOL    HW166026  11.280  11.601   4.738 -2.5430 -1.8441  0.3611
20063SOL    HW266027  11.252  11.660   4.875 -0.1080 -0.2765  0.2318
20064SOL     OW66028   0.078  10.391   6.275 -0.0258 -0.1161 -0.1001
20064SOL    HW166029   0.105  10.480   6.296  1.5687 -0.5148 -0.3182
20064SOL    HW266030   0.009  10.401   6.210 -0.7056  0.9620  0.7411
20065SOL     OW66031   1.800  11.473   5.512  0.8443 -0.1672  0.4479
20065SOL    HW166032   1.738  11.538   5.544  0.1743 -0.1583 -0.7884
20065SOL    HW266033   1.845  11.516   5.439  2.1805 -0.2438  1.1969
20066SOL     OW66034   8.739   2.773   6.740  0.2946 -0.4682 -0.1901
20066SOL    HW166035   8.795   2.849   6.758  0.1934 -0.1908 -0.9891
20066SOL    HW266036   8.661   2.788   6.794 -0.1838  0.5478 -1.1078
20067SOL     OW66037   1.351   0.034   7.883  0.4958 -0.3716  0.6928
20067SOL    HW166038   1.291   0.107   7.874 -0.8539 -1.4070  0.9380
20067SOL    HW266039   1.332  -0.022   7.807  0.6649 -1.0426  1.1353
20068SOL     OW66040   8.951   7.919   3.308  0.5810 -0.5902  0.0442
20068SOL    HW166041   9.000   7.837   3.320  1.4252 -0.4245 -1.8568
20068SOL    HW266042   8.983   7.977   3.377  2.0231 -0.9782 -0.2619
20069SOL     OW66043   4.134  10.191   7.292  0.5794  0.6431  0.0205
20069SOL    HW166044   4.158  10.283   7.278 -0.4322  0.7172 -1.4095
20069SOL    HW266045   4.039  10.188   7.277  0.4443 -0.4755  0.9530
20070SOL     OW66046   2.368   5.300   5.642  0.1698  0.1758 -0.3148
20070SOL    HW166047   2.379   5.383   5.596 -1.1854  0.7962  0.4099
20070SOL    HW266048   2.450   5.286   5.688  1.6441 -0.5369 -2.9486
20071SOL     OW66049   9.264   3.035  10.832  0.4906 -0.3202 -0.2898
20071SOL    HW166050   9.218   3.042  10.915 -1.1954 -1.0622 -1.1110
20071SOL    HW266051   9.270   3.125  10.800  0.8335 -0.0719  0.4479
20072SOL     OW66052   6.251   5.785   2.973 -0.2567  0.4298  0.0006
20072SOL    HW166053   6.186   5.817   3.035  1.2165  1.9131  0.8639
20072SOL    HW266054   6.233   5.833   2.892  0.7003  2.0578  0.7082
20073SOL     OW66055   9.712   3.281   4.497 -0.5404 -0.4095  0.1200
20073SOL    HW166056   9.764   3.302   4.419 -0.7482  1.2387  0.3978
20073SOL    HW266057   9.655   3.209   4.469 -0.2455 -0.1927 -1.0969
20074SOL     OW66058   2.238   0.975   7.725  0.3037 -0.0878 -0.4722
20074SOL    HW166059   2.165   0.921   7.755 -0.5464  0.9633 -0.5703
20074SOL    HW266060   2.296   0.915   7.679 -0.5072 -0.9440 -0.3970
20075SOL     OW66061   3.831   4.135   6.731  0.2711  0.1052 -0.4075
20075SOL    HW166062   3.785   4.219   6.726 -1.4754 -0.8328 -0.8061
20075SOL    HW266063   3.845   4.122   6.825 -1.1108 -0.0014 -0.1976
20076SOL     OW66064   7.385   1.665   5.381  0.5590 -0.8716 -0.3474
20076SOL    HW166065   7.291   1.650   5.369  0.6679 -0.8683 -1.2874
20076SOL    HW266066   7.408   1.613   5.458 -0.1549 -1.0966 -0.2763
20077SOL     OW66067   7.122   3.509   9.506  0.0219  0.0535 -0.4365
20077SOL    HW166068   7.121   3.554   9.421 -2.2332 -1.1917 -1.1661
20077SOL    HW266069   7.172   3.429   9.491  1.9545  1.0940  0.2015
20078SOL     OW66070   3.413   2.902   6.687  0.1685  0.5676 -0.0179
20078SOL    HW166071   3.406   2.899   6.592  1.1073 -0.4898 -0.0787
20078SOL    HW266072   3.325   2.881   6.719  0.2459 -0.8787 -0.6715
20079SOL     OW66073   6.489   0.277   9.710  0.4153  0.2198  0.2447
20079SOL    HW166074   6.546   0.352   9.690 -0.1270  0.7448  0.6666
20079SOL    HW266075   6.461   0.291   9.800  1.7606 -1.4395  0.9731
20080SOL     OW66076   5.217   0.898   8.752  0.1087  0.5320  0.1455
20080SOL    HW166077   5.312   0.885   8.757  0.0579  0.4578  0.9913
20080SOL    HW266078   5.202   0.983   8.792 -0.3835 -0.3633  1.9422
20081SOL     OW66079  12.023   6.846   8.215  0.2469 -0.0893  0.4220
20081SOL    HW166080  12.109   6.806   8.227  0.3919  0.0407 -0.1781
20081SOL    HW266081  12.038   6.939   8.228  0.2888 -0.0140 -0.1704
20082SOL     OW66082   1.817   9.540   6.510 -0.1847 -0.0641  0.8960
20082SOL    HW166083   1.832   9.446   6.526  2.6303  0.3194  0.9975
20082SOL    HW266084   1.742   9.561   6.565 -1.0968 -2.3018  0.6378
20083SOL     OW66085   5.452   0.004   2.520  0.0159 -0.2245  0.1250
20083SOL    HW166086   5.398   0.083   2.524  0.5060  0.0845  0.8321
20083SOL    HW266087   5.401  -0.057   2.467 -2.1175 -0.8008  2.6574
20084SOL     OW66088   3.082   4.076   0.017 -0.5529  0.0404  0.3217
20084SOL    HW166089   3.006   4.114   0.062  0.6338 -0.3643  2.8339
20084SOL    HW266090   3.157   4.108   0.066  0.6990 -2.2710  0.0332
20085SOL     OW66091  10.544   9.800  10.937  0.4681 -0.1603  0.1421
20085SOL    HW166092  10.542   9.706  10.923 -2.2240  0.2386 -3.4884
20085SOL    HW266093  10.634   9.825  10.916  1.0805 -1.8197  0.6386
20086SOL     OW66094   1.271   1.532  11.549  0.4280 -0.3894 -0.6450
20086SOL    HW166095   1.340   1.516  11.484  2.5706  0.5036  1.2998
20086SOL    HW266096   1.288   1.620  11.582 -1.2430 -0.4123  0.3994
20087SOL     OW66097   6.675   4.131   1.660 -0.0760  0.0653 -0.3687
20087SOL    HW166098   6.644   4.077   1.587  0.4043  1.9306 -2.0349
20087SOL    HW266099   6.770   4.124   1.656  0.0243  1.3789 -0.9470
20088SOL     OW66100   5.335   4.249  11.876 -0.5178 -0.1941 -0.1986
20088SOL    HW166101   5.265   4.282  11.819  0.1145  1.0812 -0.2729
20088SOL    HW266102   5.415   4.287  11.839  0.2650 -1.8482 -0.2717
20089SOL     OW66103   4.246   7.396   1.478 -0.3608 -0.5100  0.1991
20089SOL    HW166104   4.239   7.491   1.469  0.0240 -0.5510 -0.5192
20089SOL    HW266105   4.222   7.379   1.569 -2.1348  0.1089 -0.1130
20090SOL     OW66106   1.268  10.113   4.601  0.3297  0.1126  0.1284
20090SOL    HW166107   1.327  10.188   4.609  1.5473 -0.4383 -2.6268
20090SOL    HW266108   1.259  10.099   4.506 -0.1057 -3.0190  0.5176
20091SOL     OW66109   9.679   7.695   2.496 -0.1014 -0.3800  0.2647
20091SOL    HW166110   9.725   7.623   2.540  0.8655 -0.8021 -1.3635
20091SOL    HW266111   9.723   7.704   2.412 -1.3791  0.9331 -0.3072
20092SOL     OW66112   6.136  10.393   0.039  0.7115  0.3093  0.0216
20092SOL    HW166113   6.219  10.440   0.043  0.7559  0.2572 -0.2430
20092SOL    HW266114   6.083  10.443  -0.023  1.0868 -0.4856 -0.9781
20093SOL     OW66115   4.957   9.567   5.080 -0.2555  0.0755  0.4594
20093SOL    HW166116   4.965   9.659   5.105 -0.3834  0.3539 -0.4952
20093SOL    HW266117   5.044   9.545   5.045 -1.0370  0.7216 -2.1239
20094SOL     OW66118   1.307  11.304  10.428  0.5583  0.4775  0.0821
20094SOL    HW166119   1.370  11.347  10.485  1.8411 -2.0746  0.7640
20094SOL    HW266120   1.244  11.263  10.487  0.1240  0.3376 -0.4649
20095SOL     OW66121   7.201  11.467   3.954 -0.1849 -0.0437  0.6928
20095SOL    HW166122   7.190  11.510   4.039  0.2222 -1.6425  1.6024
20095SOL    HW266123   7.113  11.437   3.931 -0.0306 -1.1566  1.4527
20096SOL     OW66124   0.476   6.104   1.064  0.2836  0.3931 -0.2282
20096SOL    HW166125   0.459   6.046   0.990 -0.1010  0.6304 -0.3267
20096SOL    HW266126   0.541   6.166   1.032  0.2055  0.4222 -0.3315
20097SOL     OW66127   5.760   0.445  10.110  0.1253  0.3117  0.3201
20097SOL    HW166128   5.844   0.426  10.150  1.3611  2.8994 -0.8240
20097SOL    HW266129   5.704   0.472  10.183  0.6577 -0.2249  0.9395
20098SOL     OW66130   6.030   3.916   6.448  0.3592 -0.1039  0.0369
20098SOL    HW166131   6.093   3.847   6.426 -0.1484 -0.1201 -1.4701
20098SOL    HW266132   5.960   3.905   6.384 -1.1921 -0.0653  1.6502
20099SOL     OW66133  10.795   7.562   5.258 -0.0979  0.3055 -0.5598
20099SOL    HW166134  10.748   7.479   5.248  1.8619 -1.4665  3.0359
20099SOL    HW266135  10.747   7.610   5.325  1.6656 -0.5006  1.4209
20100SOL     OW66136   9.060   4.552   6.660  0.1652 -0.0055  0.1923
20100SOL    HW166137   9.049   4.638   6.619 -1.2331 -1.3566 -2.5054
20100SOL    HW266138   9.136   4.563   6.717  0.4512  2.8298 -0.5601
20101SOL     OW66139  11.374  10.244  10.594  0.2422 -0.4076 -0.0337
20101SOL    HW166140  11.330  10.305  10.535  1.7295  0.4958 -0.2450
20101SOL    HW266141  11.374  10.287  10.679  0.7537 -0.3783 -0.0468
20102SOL     OW66142   8.778   4.895  12.071  0.3291  0.2471 -0.1969
20102SOL    HW166143   8.796   4.837  11.997  2.6550  1.0462 -0.3518
20102SOL    HW266144   8.686   4.880  12.092  0.4545 -2.4093 -1.1514
20103SOL     OW66145   6.910   3.411   8.466  0.1100 -0.3237 -0.1421
20103SOL    HW166146   6.954   3.388   8.384 -1.1452  2.3905 -1.7050
20103SOL    HW266147   6.817   3.419   8.442 -0.2648  0.7463  1.4830
20104SOL     OW66148   6.513  10.069   4.892 -0.3184 -0.0984 -0.2944
20104SOL    HW166149   6.418  10.079   4.890 -0.3711 -0.5679 -0.3202
20104SOL    HW266150   6.528   9.987   4.940  0.0996  0.2816  0.2386
20105SOL     OW66151  11.234   0.322   1.134  0.3625  0.7103 -0.5223
20105SOL    HW166152  11.174   0.262   1.089 -0.0064 -0.4586  1.4329
20105SOL    HW266153  11.321   0.298   1.101  0.1305 -0.2939 -0.4334
20106SOL     OW66154   7.369   2.621   9.917 -0.0837  0.2198  1.1203
20106SOL    HW166155   7.396   2.530   9.909  0.3440  0.4027  0.3439
20106SOL    HW266156   7.435   2.662   9.973 -1.3384 -0.3561  3.1302
20107SOL     OW66157   4.964   6.790  10.911 -0.0772 -0.5018 -0.2889
20107SOL    HW166158   4.873   6.765  10.892 -0.1761 -1.3863  1.1453
20107SOL    HW266159   4.956   6.861  10.975  0.2306 -1.0874  0.4106
20108SOL     OW66160   8.266   1.768   9.032  0.3113 -0.1240  0.1238
20108SOL    HW166161   8.312   1.829   8.974 -0.4988  0.2837 -0.1052
20108SOL    HW266162   8.200   1.822   9.075 -0.4665 -0.8583 -0.1362
20109SOL     OW66163   7.727   3.327   2.790  0.4293  0.0842 -0.2066
20109SOL    HW166164   7.652   3.330   2.850  0.5454 -0.7493 -0.0067
20109SOL    HW266165   7.753   3.418   2.779 -0.3105  0.3387  0.1122
20110SOL     OW66166   2.931   1.150   5.376 -0.3153  0.3572 -0.2371
20110SOL    HW166167   2.908   1.137   5.468 -0.6610  0.9368 -0.2328
20110SOL    HW266168   2.906   1.241   5.358  0.4231  0.4750 -0.7063
20111SOL     OW66169   3.652   8.633   3.423  0.6519 -0.5941  0.3158
20111SOL    HW166170   3.721   8.691   3.391 -0.7843 -0.1292 -2.1879
20111SOL    HW266171   3.608   8.683   3.491  2.0715 -0.4874  1.1975
20112SOL     OW66172   3.328   4.808   6.293  0.1285 -0.1920  0.1057
20112SOL    HW166173   3.382   4.729   6.302  0.3240 -0.1805 -0.9232
20112SOL    HW266174   3.280   4.813   6.376  1.6033 -0.2699  1.0078
20113SOL     OW66175   5.584   8.905  11.269 -0.3279 -0.0931  0.1848
20113SOL    HW166176   5.631   8.891  11.187 -1.1189 -1.4613 -0.0668
20113SOL    HW266177   5.642   8.868  11.336 -0.3381 -0.3303  0.0647
20114SOL     OW66178   5.531   5.710   7.406 -0.0008  0.0096 -0.3232
20114SOL    HW166179   5.606   5.717   7.465 -1.5405  0.7125  1.6620
20114SOL    HW266180   5.521   5.616   7.391  0.5370 -0.1654  0.3689
20115SOL     OW66181   6.329  10.983   6.744  0.6169 -0.1907 -0.1230
20115SOL    HW166182   6.254  10.929   6.770 -0.0857  0.3572 -0.9462
20115SOL    HW266183   6.290  11.062   6.708  1.6361  0.9928  1.2662
20116SOL     OW66184   7.261   4.349   6.595  0.1489  0.0787  0.1855
20116SOL    HW166185   7.231   4.261   6.573 -0.0390 -0.3148  1.8792
20116SOL    HW266186   7.357   4.341   6.599  0.3040  0.5094 -1.8227
20117SOL     OW66187  10.040   2.412  11.673 -0.1485 -0.1754 -0.4755
20117SOL    HW166188  10.130   2.442  11.672 -0.1999  0.0093  0.1673
20117SOL    HW266189  10.027   2.377  11.761 -1.0060  0.7426 -0.2210
20118SOL     OW66190   6.705  11.210   8.492  0.2772  0.0741 -0.3199
20118SOL    HW166191   6.690  11.179   8.403  1.3340 -0.6959 -0.2610
20118SOL    HW266192   6.798  11.234   8.493  0.1717  0.4766  0.4500
20119SOL     OW66193   1.486   4.782   9.708 -0.2943  0.4852  0.2055
20119SOL    HW166194   1.507   4.783   9.615  0.2444 -1.3140  0.2772
20119SOL    HW266195   1.486   4.875   9.733 -1.1869  1.0706 -1.7132
20120SOL     OW66196   6.804   5.329  10.650 -0.0367  0.2029 -0.1051
20120SOL    HW166197   6.812   5.299  10.740 -0.3072 -0.3466 -0.2555
20120SOL    HW266198   6.832   5.254  10.598  1.9298  1.1237 -0.4580
20121SOL     OW66199   9.804   7.763  11.228 -0.2330 -0.1646 -1.0509
20121SOL    HW166200   9.898   7.782  11.223 -0.1992  0.1812  0.5065
20121SOL    HW266201   9.791   7.725  11.315 -1.1769 -2.4077 -2.1126
20122SOL     OW66202   7.851  11.920   4.365  0.1590 -0.4032 -0.6737
20122SOL    HW166203   7.922  11.964   4.410 -0.2633 -0.6503  0.2655
20122SOL    HW266204   7.804  11.873   4.434 -0.5740 -0.7080 -1.3554
20123SOL     OW66205   4.744   3.128   2.552 -0.0424 -0.2796 -0.2791
20123SOL    HW166206   4.681   3.180   2.502 -0.6326  0.9406  1.6214
20123SOL    HW266207   4.702   3.043   2.564 -0.1420 -0.3837 -1.3047
20124SOL     OW66208  10.367   4.449   6.706  0.3937 -0.8010  0.2536
20124SOL    HW166209  10.404   4.537   6.708 -0.6364 -0.3177 -0.5252
20124SOL    HW266210  10.410   4.407   6.631 -1.0052 -0.0141 -1.0763
20125SOL     OW66211   0.406   8.657   6.358  0.0099 -0.2751 -0.2202
20125SOL    HW166212   0.443   8.704   6.284 -0.4400  0.1595 -0.1745
20125SOL    HW266213   0.317   8.691   6.366 -0.7501 -1.9742 -0.9288
20126SOL     OW66214   0.080   4.531   4.272  0.2641 -0.1903  0.5207
20126SOL    HW166215   0.029   4.612   4.259 -1.2500 -0.9595  1.3715
20126SOL    HW266216   0.122   4.544   4.357 -2.3985 -1.4271  2.1540
20127SOL     OW66217  10.074  11.084   7.585  1.1406 -0.2497 -0.1814
20127SOL    HW166218   9.985  11.121   7.591  0.6342 -1.4139 -0.2076
20127SOL    HW266219  10.090  11.075   7.491  1.0865 -0.5026 -0.1662
20128SOL     OW66220  11.375  11.384   1.768 -0.0941  0.2107 -0.0007
20128SOL    HW166221  11.323  11.336   1.832  0.2281  1.5780  1.3376
20128SOL    HW266222  11.450  11.327   1.750 -0.7718 -0.6756 -0.0382
20129SOL     OW66223   5.397  11.432   2.789  0.2087  0.5289  0.3445
20129SOL    HW166224   5.404  11.349   2.835 -0.0522  0.8377  0.9501
20129SOL    HW266225   5.410  11.499   2.857 -0.8431  1.0005  0.1071
20130SOL     OW66226   4.393   1.744   4.531  0.6386 -0.0859 -0.1714
20130SOL    HW166227   4.364   1.801   4.602  1.0652 -1.6246  1.3059
20130SOL    HW266228   4.426   1.665   4.575  0.0658 -1.4946 -2.1012
20131SOL     OW66229   5.387  11.108   0.385 -0.5535  0.5385 -0.4006
20131SOL    HW166230   5.304  11.065   0.407 -1.2682  2.1070  0.1389
20131SOL    HW266231   5.385  11.115   0.290 -0.5487 -0.3438 -0.4774
20132SOL     OW66232  10.757   9.182   0.180 -0.3882 -0.1730 -0.4646
20132SOL    HW166233  10.693   9.216   0.117 -0.4118 -0.9614 -0.8710
20132SOL    HW266234  10.839   9.177   0.132 -0.6598 -1.8648 -0.7845
20133SOL     OW66235   1.882   4.916  10.669  0.1011  0.4379 -0.5082
20133SOL    HW166236   1.802   4.868  10.649  0.5615 -0.4065 -0.3617
20133SOL    HW266237   1.952   4.852  10.657  0.7598  1.1772 -0.6770
20134SOL     OW66238   1.638   1.620   6.463 -0.2165  0.0416 -0.0027
20134SOL    HW166239   1.586   1.580   6.532 -0.9551  1.3895  0.2614
20134SOL    HW266240   1.587   1.607   6.383  0.3439 -0.9736 -0.2149
20135SOL     OW66241  11.989   6.542   2.811 -0.2841 -0.5924 -0.4044
20135SOL    HW166242  11.976   6.469   2.872  1.7995  0.5035  1.4799
20135SOL    HW266243  11.982   6.621   2.865 -1.3776  0.6289 -2.1809
20136SOL     OW66244   8.681   3.508   3.176  0.4538 -0.1923  0.0686
20136SOL    HW166245   8.654   3.436   3.119 -0.7365  0.6956 -0.5350
20136SOL    HW266246   8.615   3.575   3.162  0.4671  0.2900  2.0680
20137SOL     OW66247   0.186   5.645  10.926 -0.5755  0.4200 -0.2237
20137SOL    HW166248   0.258   5.582  10.919 -0.3715  0.6395 -0.0853
20137SOL    HW266249   0.116   5.595  10.968 -0.9743 -0.1937 -1.5552
20138SOL     OW66250   8.682   7.043   2.394  0.1220  0.9047 -0.8153
20138SOL    HW166251   8.695   7.060   2.300  1.5237  2.7983 -0.3413
20138SOL    HW266252   8.685   6.948   2.402 -0.2880  0.6888 -2.7083
20139SOL     OW66253   2.363   1.836  10.463  0.2881  0.4575 -0.1571
20139SOL    HW166254   2.357   1.755  10.412  1.2016  0.0243  0.4166
20139SOL    HW266255   2.357   1.808  10.554  0.3740  1.0633  0.0384
20140SOL     OW66256  10.428   7.710   1.934 -0.2832  0.4496 -0.5027
20140SOL    HW166257  10.393   7.800   1.933  0.1722  0.6339 -1.5945
20140SOL    HW266258  10.431   7.685   1.842 -0.2575 -0.6439 -0.2151
20141SOL     OW66259   0.159   9.263   2.396 -0.1280  0.2608  0.4548
20141SOL    HW166260   0.231   9.239   2.338 -1.0619 -1.7856  0.0522
20141SOL    HW266261   0.115   9.335   2.351 -0.2323 -0.6277 -0.9152
20142SOL     OW66262   4.740   8.841   8.128  0.8726  0.2709 -0.4252
20142SOL    HW166263   4.700   8.757   8.146  2.7011 -0.1688  2.1508
20142SOL    HW266264   4.738   8.849   8.032 -2.1117 -1.2000 -0.5745
20143SOL     OW66265   1.752  10.720   7.214  0.1157 -0.3660  0.3198
20143SOL    HW166266   1.706  10.719   7.130  0.1737 -1.2348  0.2853
20143SOL    HW266267   1.703  10.781   7.269 -0.6774 -0.7799  0.0709
20144SOL     OW66268   6.112   5.455  11.464  0.2825  0.1418 -0.5484
20144SOL    HW166269   6.188   5.505  11.494  0.4742 -1.0598  1.0847
20144SOL    HW266270   6.150   5.372  11.432 -0.2992 -0.2921 -0.1194
20145SOL     OW66271   1.649   1.526   1.910 -0.2424 -0.0115  0.8275
20145SOL    HW166272   1.684   1.538   1.822 -1.4697 -2.4288 -0.0554
20145SOL    HW266273   1.698   1.452   1.946 -0.1482  0.5838  1.9928
20146SOL     OW66274  10.265  10.415   4.245  0.0089 -0.3300 -0.1243
20146SOL    HW166275  10.208  10.412   4.322 -2.4025 -0.2961 -1.8047
20146SOL    HW266276  10.353  10.431   4.281 -1.0794  0.1518  2.5582
20147SOL     OW66277   7.861   7.722   4.394 -0.2192 -0.0239 -0.0078
20147SOL    HW166278   7.792   7.687   4.450  0.0278 -2.1824 -0.9330
20147SOL    HW266279   7.830   7.703   4.305 -0.1123  2.3523 -0.6068
20148SOL     OW66280   5.585   5.728   0.401  0.3160  0.9493 -0.1315
20148SOL    HW166281   5.636   5.748   0.480  1.6741  2.6217 -1.3531
20148SOL    HW266282   5.540   5.810   0.380 -1.2863  0.0705 -0.2447
20149SOL     OW66283   6.020   0.697   7.749  1.0581 -0.5504  0.3999
20149SOL    HW166284   5.929   0.712   7.724  1.1932  1.5928  0.9907
20149SOL    HW266285   6.032   0.747   7.829  3.0980  0.3937 -0.4149
20150SOL     OW66286   1.504   0.542   5.917  0.4451  0.0299 -0.4443
20150SOL    HW166287   1.563   0.617   5.921  0.3455  0.1151 -0.5612
20150SOL    HW266288   1.417   0.580   5.905  0.4568 -0.1231 -1.0186
20151SOL     OW66289   5.516  10.095  10.542  0.1327  0.3075  0.1004
20151SOL    HW166290   5.424  10.086  10.518  0.3254  0.1443 -0.6292
20151SOL    HW266291   5.522  10.181  10.583 -0.2105  0.6720 -0.5822
20152SOL     OW66292   6.831   7.179   9.411 -0.7114 -0.9002 -0.7005
20152SOL    HW166293   6.790   7.229   9.482 -2.1129 -1.8035 -0.8290
20152SOL    HW266294   6.852   7.094   9.450  0.6467 -0.6186 -0.7742
20153SOL     OW66295   1.788  10.791   4.360  0.0641 -0.1482 -0.0445
20153SOL    HW166296   1.726  10.753   4.422 -0.6404  0.4199 -0.3954
20153SOL    HW266297   1.802  10.722   4.295  0.0924 -0.4105  0.2380
20154SOL     OW66298   9.077   9.716   3.686 -0.1630  0.2898  0.4663
20154SOL    HW166299   9.056   9.633   3.728 -1.8318  0.1939 -0.5018
20154SOL    HW266300   9.113   9.692   3.601  0.3149  0.5603  0.5817
20155SOL     OW66301   5.350   9.707   9.032  0.2141 -0.4222 -0.2071
20155SOL    HW166302   5.255   9.697   9.031  0.2668 -1.2370  0.9248
20155SOL    HW266303   5.384   9.617   9.038  1.0896 -0.1923 -1.2958
20156SOL     OW66304   2.866   1.488   8.451 -0.4700  0.0532  0.3116
20156SOL    HW166305   2.847   1.406   8.406 -0.7208 -0.3188  1.0613
20156SOL    HW266306   2.957   1.479   8.479 -0.2982  0.3062 -0.1713
20157SOL     OW66307   4.771  11.420   9.713  0.1759 -0.1029 -0.0040
20157SOL    HW166308   4.866  11.408   9.711  0.3201  1.0480 -0.3883
20157SOL    HW266309   4.751  11.474   9.637 -0.9932 -1.5991 -0.8170
20158SOL     OW66310   5.713   4.213   0.082 -0.2323  0.1291  0.0303
20158SOL    HW166311   5.775   4.286   0.075 -0.1610  0.5025  3.0896
20158SOL    HW266312   5.631   4.253   0.109 -1.3801 -0.5639 -2.2277
20159SOL     OW66313   5.304   9.455   7.465  0.1672 -0.4008  0.7994
20159SOL    HW166314   5.213   9.435   7.444  0.2628  0.0582 -0.1040
20159SOL    HW266315   5.353   9.379   7.435 -0.1169 -1.7623  3.4809
20160SOL     OW66316   3.545  12.160   0.581  0.5384  0.0067 -0.4604
20160SOL    HW166317   3.631  12.123   0.602  0.6064  0.7867  0.7546
20160SOL    HW266318   3.563  12.252   0.561  0.1062 -0.0708 -1.2362
20161SOL     OW66319   4.084  10.321   2.021  0.3672  0.4924 -0.1332
20161SOL    HW166320   4.073  10.320   2.116  1.3360  1.8212  0.0313
20161SOL    HW266321   4.160  10.265   2.005 -0.8777 -1.2219 -0.3485
20162SOL     OW66322   5.971   8.974   2.053 -0.4908 -0.4323  0.1719
20162SOL    HW166323   5.957   9.045   2.115  0.9756  0.2548 -0.2470
20162SOL    HW266324   6.044   9.003   1.998 -0.6120 -1.7650 -0.7538
20163SOL     OW66325   5.362   2.268   9.458  0.1122  0.2462  0.4829
20163SOL    HW166326   5.286   2.219   9.426  1.2412 -0.9227 -0.4618
20163SOL    HW266327   5.326   2.322   9.530 -1.0909 -2.3813  1.9997
20164SOL     OW66328   1.927   4.561   9.100  0.2292  0.0742  0.1645
20164SOL    HW166329   1.865   4.593   9.035  1.1740 -0.7704 -1.1849
20164SOL    HW266330   2.002   4.531   9.050  1.1041 -0.3664  1.6640
20165SOL     OW66331   0.961  11.409  10.365  0.0073 -0.4365  0.3927
20165SOL    HW166332   0.971  11.504  10.366  0.3580 -0.4515 -0.4628
20165SOL    HW266333   1.050  11.375  10.360 -0.0940 -0.8320  1.0565
20166SOL     OW66334   7.267   0.342   6.581  0.5663 -0.5769  0.4318
20166SOL    HW166335   7.287   0.436   6.588 -2.7847  0.4754 -1.6090
20166SOL    HW266336   7.246   0.316   6.671 -0.7595  1.3169  0.7391
20167SOL     OW66337  10.901   3.987   0.951  0.2169 -0.1226 -0.2816
20167SOL    HW166338  10.950   4.068   0.956  0.2584 -0.1926  0.7271
20167SOL    HW266339  10.821   4.009   0.903  0.6868  0.2693 -0.8788
20168SOL     OW66340   8.507   1.447  10.390  0.3660  0.2785  0.8140
20168SOL    HW166341   8.444   1.454  10.317  1.1392 -0.5829  0.0304
20168SOL    HW266342   8.453   1.454  10.468 -0.8688 -1.3073  0.1648
20169SOL     OW66343   9.475   3.270  11.538  0.2707 -0.1807  0.6377
20169SOL    HW166344   9.529   3.342  11.571  1.6456  0.1248 -1.9763
20169SOL    HW266345   9.505   3.258  11.447 -4.7899  0.7194 -1.4547
20170SOL     OW66346   3.323   7.623   8.219 -0.7464  0.0434 -0.3725
20170SOL    HW166347   3.254   7.599   8.281 -0.6932  0.9456  0.0502
20170SOL    HW266348   3.358   7.539   8.188  0.5769 -0.4994  2.2918
20171SOL     OW66349   2.885   1.949   0.164  0.7016  0.1977 -0.1949
20171SOL    HW166350   2.965   1.934   0.213  0.2276  0.3123  0.6391
20171SOL    HW266351   2.881   1.878   0.101  1.3454  0.0697 -0.0937
20172SOL     OW66352   5.224  11.835   9.468  0.4292  0.4492 -0.2213
20172SOL    HW166353   5.293  11.843   9.534 -0.7540  0.7114  1.0321
20172SOL    HW266354   5.252  11.895   9.398  1.8670 -0.0743 -0.1416
20173SOL     OW66355   1.786   2.650  10.710  0.3904  0.1939 -0.5477
20173SOL    HW166356   1.815   2.685  10.794  0.5890 -1.2728  0.0251
20173SOL    HW266357   1.749   2.725  10.664 -1.2945  0.7270  1.5211
20174SOL     OW66358   0.669   8.532   3.301  0.5553  0.1415  0.2909
20174SOL    HW166359   0.703   8.474   3.369  0.5222 -1.3908 -0.9255
20174SOL    HW266360   0.612   8.593   3.347 -0.4202 -1.6181  1.5145
20175SOL     OW66361  10.083   5.161   6.945  0.0775 -0.1208  0.1009
20175SOL    HW166362  10.069   5.124   6.857  1.6163 -1.9339  0.5626
20175SOL    HW266363  10.173   5.193   6.943 -0.1202  0.4889  0.8138
20176SOL     OW66364   9.609   4.845   1.565  0.0891  0.1610  0.1288
20176SOL    HW166365   9.642   4.756   1.552  0.0536  0.3370 -1.3522
20176SOL    HW266366   9.572   4.870   1.480  0.5268  1.7611  0.3620
20177SOL     OW66367   7.024   5.248   0.031  0.1167  0.1974 -0.1371
20177SOL    HW166368   6.933   5.234   0.058 -0.0237 -0.4136 -0.8780
20177SOL    HW266369   7.065   5.161   0.040  1.1080  0.8075  1.8666
20178SOL     OW66370   8.301   0.947   4.273  0.5418  0.2403  0.0781
20178SOL    HW166371   8.332   0.928   4.362 -1.4862 -1.0095  0.5971
20178SOL    HW266372   8.380   0.954   4.220  1.7616  0.0638  1.7976
20179SOL     OW66373   5.124   9.157   4.539 -0.0072  0.3676 -0.0781
20179SOL    HW166374   5.182   9.083   4.520 -0.4120  0.1918 -0.6536
20179SOL    HW266375   5.182   9.223   4.578  0.2427 -0.4857  1.0712
20180SOL     OW66376   7.215   7.179   3.249 -0.2014 -1.0495 -0.2666
20180SOL    HW166377   7.182   7.209   3.334 -0.0514 -0.7901 -0.2994
20180SOL    HW266378   7.302   7.217   3.243  0.5477 -2.5751  0.2892
20181SOL     OW66379   1.524   4.362  11.779  0.5169 -0.0016  0.2525
20181SOL    HW166380   1.504   4.317  11.861  1.4150  0.0046  0.4839
20181SOL    HW266381   1.605   4.409  11.796  0.8272 -0.1637 -0.7036
20182SOL     OW66382   5.450   9.318   2.456  0.1509  0.2739  0.0189
20182SOL    HW166383   5.437   9.225   2.437 -2.8354  0.2094  1.7404
20182SOL    HW266384   5.367   9.360   2.431  0.4808  2.0274  1.5968
20183SOL     OW66385   1.361   5.699  10.266 -0.5372  0.4468  0.0614
20183SOL    HW166386   1.456   5.701  10.277 -0.3488  0.6509 -1.3821
20183SOL    HW266387   1.343   5.608  10.241 -0.7250  0.4262  0.2683
20184SOL     OW66388   3.142   2.846   6.923 -0.7459 -0.5485 -0.2658
20184SOL    HW166389   3.164   2.935   6.951  0.9833 -0.4474 -1.7493
20184SOL    HW266390   3.149   2.794   7.003 -0.3804  0.4212  0.3645
20185SOL     OW66391   6.347   0.071   6.625  0.3071  0.4245  0.1847
20185SOL    HW166392   6.392   0.153   6.647  0.3166  0.6375 -0.6111
20185SOL    HW266393   6.267   0.072   6.677  0.6023  0.6416  0.6445
20186SOL     OW66394   1.754   4.100   2.033 -0.5190 -0.1408  0.1570
20186SOL    HW166395   1.746   4.074   1.941  1.0718  0.6891 -0.2435
20186SOL    HW266396   1.671   4.072   2.072 -0.7480 -1.6130 -1.2444
20187SOL     OW66397   2.693   0.418   7.213  0.2277 -0.1153 -0.7212
20187SOL    HW166398   2.781   0.442   7.185  0.3259  0.0998 -0.2383
20187SOL    HW266399   2.702   0.331   7.252  0.3430  0.1657 -0.1087
20188SOL     OW66400   3.483   7.871   8.299 -0.0499  0.0995 -0.4251
20188SOL    HW166401   3.445   7.785   8.280 -1.0374  0.7648 -1.6572
20188SOL    HW266402   3.471   7.882   8.394 -0.3636 -0.9107 -0.3342
20189SOL     OW66403   9.547  10.168   6.744  0.1959  0.7056 -0.3170
20189SOL    HW166404   9.475  10.173   6.807 -0.4898 -1.1812 -0.8854
20189SOL    HW266405   9.505  10.151   6.660  1.1773  1.9279 -1.0922
20190SOL     OW66406   1.945   2.025   1.757 -0.7573  0.7851  0.1388
20190SOL    HW166407   1.977   1.992   1.674 -1.5648  0.4750 -0.0517
20190SOL    HW266408   2.002   2.100   1.777 -0.3825  0.6798 -0.5434
20191SOL     OW66409   9.518   2.766   6.839  0.2636 -0.0511  0.3746
20191SOL    HW166410   9.598   2.816   6.822  0.2294  0.5711  1.8618
20191SOL    HW266411   9.548   2.689   6.888  0.0869 -0.4764 -0.1781
20192SOL     OW66412   4.708   0.794  12.196 -0.2365  0.3479 -0.3895
20192SOL    HW166413   4.735   0.846  12.272 -0.6037 -1.2644  0.8965
20192SOL    HW266414   4.690   0.859  12.128  1.0208  1.7921  0.5819
20193SOL     OW66415   3.516   7.671   7.202  0.6486 -0.4057 -0.2336
20193SOL    HW166416   3.471   7.616   7.266 -0.0946  0.0408 -0.3635
20193SOL    HW266417   3.516   7.758   7.241 -0.7176  0.0953 -1.2594
20194SOL     OW66418   8.565   5.032   6.995  0.0502  0.6450  0.3824
20194SOL    HW166419   8.523   5.045   6.910 -1.6847 -1.1090  0.8965
20194SOL    HW266420   8.511   4.965   7.038  2.7475 -0.8870  1.5911
20195SOL     OW66421   3.398   1.239   3.561 -0.1438  0.1198 -0.0120
20195SOL    HW166422   3.351   1.311   3.602  1.4840  0.1406  2.0283
20195SOL    HW266423   3.370   1.161   3.609 -0.4322 -0.3374 -0.8963
20196SOL     OW66424   4.118  11.359   4.770  0.1976  0.0770 -0.2171
20196SOL    HW166425   4.196  11.345   4.717  0.6381  1.4237  0.0405
20196SOL    HW266426   4.045  11.345   4.709  0.5991 -1.3106 -0.4277
20197SOL     OW66427   2.065   8.694   7.470  0.4970  0.4663 -0.1522
20197SOL    HW166428   2.054   8.771   7.414 -1.1253 -0.3745 -1.0623
20197SOL    HW266429   2.040   8.725   7.558  3.0763  1.7962  0.1923
20198SOL     OW66430   8.455  12.253   9.808 -0.1761  0.3847  0.0523
20198SOL    HW166431   8.478  12.191   9.877  0.7071  1.0023  0.3317
20198SOL    HW266432   8.478  12.338   9.844 -1.0420  0.8478 -0.4677
20199SOL     OW66433   0.689   5.601   3.811 -0.0536 -0.2232  0.0166
20199SOL    HW166434   0.679   5.520   3.760 -0.0829  0.7606 -1.5976
20199SOL    HW266435   0.604   5.613   3.853  0.0622 -1.2063  0.5758
20200SOL     OW66436   6.838   6.395   4.504  0.3737 -0.0406 -0.1169
20200SOL    HW166437   6.795   6.424   4.423 -1.8983  1.8243  1.6140
20200SOL    HW266438   6.822   6.466   4.566  2.4204 -1.2007  1.8854
20201SOL     OW66439   9.124   8.983   1.964  0.2332  0.2213 -1.0477
20201SOL    HW166440   9.170   8.991   2.048 -0.0489 -0.5045 -0.8115
20201SOL    HW266441   9.182   9.024   1.901  0.8553  0.0094 -0.6308
20202SOL     OW66442   9.622   8.231  10.164  0.0366  0.6955 -0.7600
20202SOL    HW166443   9.564   8.161  10.195 -0.6271  0.9636 -1.3658
20202SOL    HW266444   9.637   8.286  10.240  2.7641 -1.5125  0.5006
20203SOL     OW66445   9.259   2.797   6.765 -0.4711 -0.0698  0.5236
20203SOL    HW166446   9.227   2.722   6.815  1.2655 -0.4334  1.1526
20203SOL    HW266447   9.352   2.802   6.786  0.2624  0.0367 -2.3297
20204SOL     OW66448   3.193   9.447   9.777 -0.4593 -0.2892  0.2266
20204SOL    HW166449   3.206   9.397   9.696  2.4826  0.9112 -0.1802
20204SOL    HW266450   3.118   9.503   9.760 -1.2937 -1.6471 -0.7808
20205SOL     OW66451   9.507   0.869  10.159 -0.3669  0.2754  0.1318
20205SOL    HW166452   9.509   0.832  10.071  0.0043  2.3417 -0.7724
20205SOL    HW266453   9.599   0.883  10.182 -0.5220  2.1602 -0.2623
20206SOL     OW66454   5.576   9.259   7.736 -0.9624  0.1917 -0.6414
20206SOL    HW166455   5.507   9.192   7.732 -2.1785  1.2576  1.1037
20206SOL    HW266456   5.538   9.330   7.788  1.2758  1.0671 -0.0737
20207SOL     OW66457   0.792  10.631   3.938  0.1495  0.2029 -0.8779
20207SOL    HW166458   0.792  10.634   4.034 -1.7854  1.7616 -0.8485
20207SOL    HW266459   0.735  10.704   3.912  1.0492  0.1439 -3.2427
20208SOL     OW66460  11.539   9.920   8.324 -0.2872 -0.4141 -0.5375
20208SOL    HW166461  11.486   9.969   8.388  0.8568  0.5952 -0.3231
20208SOL    HW266462  11.629   9.932   8.354  0.1824 -0.8208 -1.7495
20209SOL     OW66463   8.670  10.072  11.836  0.0885 -0.4710  0.6031
20209SOL    HW166464   8.631  10.158  11.824 -0.8227 -0.9914 -0.3903
20209SOL    HW266465   8.752  10.075  11.787  0.2518 -0.0619  0.8944
20210SOL     OW66466   9.066   3.114   5.626  0.2975  0.1160 -0.2324
20210SOL    HW166467   9.109   3.125   5.711  0.1665 -1.1518  0.0159
20210SOL    HW266468   8.992   3.056   5.644 -0.3330  0.6514 -1.0359
20211SOL     OW66469   4.469   6.090  10.755  0.2916 -0.1269  0.0934
20211SOL    HW166470   4.393   6.147  10.746 -0.6536 -1.3794 -0.0335
20211SOL    HW266471   4.543   6.144  10.726 -0.4862  1.2206  0.5640
20212SOL     OW66472   9.353   4.486   8.255  0.2745  0.1927  0.4095
20212SOL    HW166473   9.347   4.396   8.287  1.2842 -0.1836 -0.4192
20212SOL    HW266474   9.414   4.529   8.316  0.6373  0.0219  0.1669
20213SOL     OW66475  10.109   7.133   3.900  0.0163 -0.1764  0.2145
20213SOL    HW166476  10.164   7.061   3.932 -0.0241 -0.3047 -0.0105
20213SOL    HW266477  10.106   7.121   3.805 -0.6095 -0.3169  0.2482
20214SOL     OW66478   8.730  11.665   7.166 -0.0964 -0.1844  0.2799
20214SOL    HW166479   8.747  11.572   7.150  1.7254 -0.4644  3.1044
20214SOL    HW266480   8.775  11.710   7.095 -2.7305 -1.3758 -2.3571
20215SOL     OW66481   1.622   6.797   6.855  0.3605 -0.2686  0.0096
20215SOL    HW166482   1.576   6.881   6.866  0.0361 -0.5326  0.7835
20215SOL    HW266483   1.677   6.790   6.933  1.1135 -0.3337 -0.5240
20216SOL     OW66484   3.735  11.759   3.128  0.0087  0.3010  0.6533
20216SOL    HW166485   3.702  11.767   3.039 -1.4101 -0.6232  1.0676
20216SOL    HW266486   3.809  11.820   3.132  1.7795 -1.4696 -1.9097
20217SOL     OW66487   3.591   0.944   1.159  0.0304 -0.0941 -0.0652
20217SOL    HW166488   3.632   1.001   1.223  0.1863  0.9602 -1.0784
20217SOL    HW266489   3.523   0.999   1.118 -0.3715 -0.8880 -0.4869
20218SOL     OW66490  11.375   5.637   1.738  0.6899  0.2022  0.0554
20218SOL    HW166491  11.349   5.727   1.760 -2.5683 -0.5830 -0.0061
20218SOL    HW266492  11.422   5.646   1.655 -2.7345  1.7055 -1.9777
20219SOL     OW66493   3.624   2.115   7.934  0.8526 -0.5665  0.0340
20219SOL    HW166494   3.671   2.184   7.980  0.2016  0.2056 -0.4169
20219SOL    HW266495   3.568   2.162   7.872  0.0105 -1.4748  0.0726
20220SOL     OW66496   6.341   6.035   1.279 -0.5502  0.3575  0.8366
20220SOL    HW166497   6.334   5.980   1.201 -2.3152  0.0834  1.1297
20220SOL    HW266498   6.435   6.039   1.298 -0.2277 -0.9363 -0.3258
20221SOL     OW66499   7.682   3.066  11.537 -0.2957 -0.3431  0.1793
20221SOL    HW166500   7.729   2.983  11.543 -2.3750 -1.5085  1.7372
20221SOL    HW266501   7.682   3.100  11.627 -1.2635  0.2584 -0.0334
20222SOL     OW66502  10.156   0.155   2.304 -0.3849  0.0931 -0.0280
20222SOL    HW166503  10.200   0.076   2.332  0.5786 -0.2690 -2.3201
20222SOL    HW266504  10.227   0.216   2.283 -0.9983  0.3355 -1.5269
20223SOL     OW66505   4.542   8.417  11.299 -0.0272  0.2260  0.4334
20223SOL    HW166506   4.469   8.416  11.236  0.4945 -1.7167 -0.2120
20223SOL    HW266507   4.610   8.468  11.255 -0.1763  0.0884  0.0340
20224SOL     OW66508   5.454  12.251   4.838 -0.0470 -0.3268  0.6117
20224SOL    HW166509   5.531  12.230   4.785 -0.9060 -1.6636 -0.1844
20224SOL    HW266510   5.486  12.309   4.906  1.6811 -0.9369  0.3585
20225SOL     OW66511  10.631   7.005   3.993 -0.2995  0.0919  0.1255
20225SOL    HW166512  10.587   6.977   4.073  0.0852  0.8959  0.6261
20225SOL    HW266513  10.692   6.934   3.973 -2.5792 -1.6354 -1.2564
20226SOL     OW66514   0.815   5.918  10.793 -0.3813 -0.4848 -0.3193
20226SOL    HW166515   0.729   5.876  10.785 -0.5860 -0.1708  0.2093
20226SOL    HW266516   0.875   5.857  10.750 -0.3576 -2.2625  2.0368
20227SOL     OW66517   7.398   7.569   9.738  0.9828 -0.1649 -0.0269
20227SOL    HW166518   7.443   7.521   9.668 -3.3075 -1.1409 -2.5019
20227SOL    HW266519   7.359   7.645   9.694 -0.4732  0.1348  1.6494
20228SOL     OW66520   0.671   5.673   9.931  0.4379 -0.1699  0.7650
20228SOL    HW166521   0.664   5.587   9.891 -1.6938  0.4129 -0.2611
20228SOL    HW266522   0.725   5.659  10.009  2.2700 -1.8973 -0.6963
20229SOL     OW66523   0.325  10.289   9.240  0.5204 -0.4482 -0.2507
20229SOL    HW166524   0.357  10.223   9.303  0.7122  1.7525  2.1282
20229SOL    HW266525   0.253  10.332   9.285 -0.8824 -0.2726 -2.5383
20230SOL     OW66526   0.483   1.970   8.926 -0.4815  0.9013 -0.0613
20230SOL    HW166527   0.482   1.875   8.931 -1.2576  0.7503 -2.1518
20230SOL    HW266528   0.391   1.995   8.920 -0.2883  1.8009  0.4839
20231SOL     OW66529   2.649   1.047  10.957 -0.5191  0.4278 -0.7146
20231SOL    HW166530   2.685   1.061  10.869 -0.8246 -0.3490 -0.9724
20231SOL    HW266531   2.705   1.100  11.014  1.4242 -1.1714 -1.0173
20232SOL     OW66532   2.860   0.807  10.332 -0.0647  0.8329  0.0725
20232SOL    HW166533   2.811   0.859  10.397 -2.1646 -0.7283 -0.1512
20232SOL    HW266534   2.919   0.870  10.291 -2.1141  2.9620  0.1707
20233SOL     OW66535   4.578   9.295   4.894  0.0092  0.1216  0.5751
20233SOL    HW166536   4.668   9.273   4.920  0.1812  2.1100  1.8969
20233SOL    HW266537   4.578   9.286   4.799  1.2775 -1.0269  0.6561
20234SOL     OW66538   2.411   3.584   8.018 -0.2432  0.2260  0.0187
20234SOL    HW166539   2.470   3.610   7.948  1.2218  0.3642  1.2508
20234SOL    HW266540   2.335   3.642   8.010  0.6414  1.3347 -0.4352
20235SOL     OW66541   0.647   9.834  12.007 -0.7940 -0.3312  0.4143
20235SOL    HW166542   0.669   9.842  11.914  0.5352 -1.3597  0.5979
20235SOL    HW266543   0.597   9.753  12.013  1.6846 -1.9656  0.9101
20236SOL     OW66544   5.798  12.262   4.242  0.6045 -0.2721  0.0903
20236SOL    HW166545   5.854  12.333   4.211  0.2087 -0.0699 -0.1653
20236SOL    HW266546   5.709  12.292   4.224  0.3859 -0.3257  1.0803
20237SOL     OW66547   0.724   4.003   9.918  0.1361  0.5417  0.4224
20237SOL    HW166548   0.728   3.910   9.895  0.3614  0.8697 -0.9290
20237SOL    HW266549   0.805   4.018   9.967  0.8007  0.3380 -0.5916
20238SOL     OW66550   6.700   0.681   4.144  0.3674  0.0549 -0.2724
20238SOL    HW166551   6.766   0.629   4.096  0.1664  0.4232 -0.9652
20238SOL    HW266552   6.616   0.644   4.115  0.2330  0.5562 -0.5329
20239SOL     OW66553   5.278   2.791   6.423 -0.0891  0.3473  0.2714
20239SOL    HW166554   5.240   2.772   6.509  2.6891 -0.3253  1.4584
20239SOL    HW266555   5.214   2.757   6.360 -0.5815 -2.5381  2.1383
20240SOL     OW66556   6.942  11.569   2.085  0.2715 -0.0224 -0.3960
20240SOL    HW166557   6.896  11.577   2.168 -1.2373  0.0074 -1.1959
20240SOL    HW266558   6.887  11.511   2.032 -0.0007  1.7154 -2.1539
20241SOL     OW66559  11.720   3.373  11.737  0.4884 -0.2948 -0.1233
20241SOL    HW166560  11.685   3.337  11.819  0.6364  0.7835  0.4306
20241SOL    HW266561  11.653   3.351  11.672 -0.0600 -0.3842  0.4539
20242SOL     OW66562   1.193   8.698   4.420 -0.2596  0.3931 -0.0475
20242SOL    HW166563   1.250   8.752   4.366 -0.1645  1.1543  0.7957
20242SOL    HW266564   1.164   8.756   4.491  1.3758 -1.1251  1.9819
20243SOL     OW66565   1.935   0.393   9.138  0.3410 -0.0713 -0.1299
20243SOL    HW166566   1.889   0.458   9.085  3.1508  1.9698 -0.2693
20243SOL    HW266567   1.967   0.442   9.214  1.9241 -1.4460  0.1479
20244SOL     OW66568   9.364   1.753  10.644  0.7273  0.2290  0.1497
20244SOL    HW166569   9.436   1.750  10.580  0.1637  0.0123 -0.4917
20244SOL    HW266570   9.401   1.797  10.720  1.6493 -0.2041 -0.0320
20245SOL     OW66571   5.270   1.645   9.583  0.1596 -0.4773  0.7071
20245SOL    HW166572   5.192   1.590   9.574  0.7628 -1.2315 -0.1053
20245SOL    HW266573   5.333   1.590   9.630  0.1162  0.2204  1.5942
20246SOL     OW66574   9.624   7.712   3.688 -0.3668 -0.8099 -0.1353
20246SOL    HW166575   9.678   7.790   3.706  1.1187 -1.6913 -0.6114
20246SOL    HW266576   9.637   7.695   3.595 -2.1497 -0.5884 -0.4533
20247SOL     OW66577  11.286   7.192   0.065  0.1716  0.1780 -0.9362
20247SOL    HW166578  11.330   7.181   0.149  0.0306 -1.9174 -1.0861
20247SOL    HW266579  11.218   7.257   0.082  0.8680  0.6187  0.2805
20248SOL     OW66580   0.448  11.078   0.058 -0.4057 -0.7870 -0.1010
20248SOL    HW166581   0.425  11.084   0.151 -1.9477  0.2703 -0.4928
20248SOL    HW266582   0.543  11.082   0.056 -0.3605 -0.4800  1.4201
20249SOL     OW66583   0.166   8.004   8.186 -0.3127 -0.2902  0.5682
20249SOL    HW166584   0.143   8.039   8.272  2.4304 -0.6629  1.5573
20249SOL    HW266585   0.222   8.071   8.147  0.9018 -1.3901  0.3592
20250SOL     OW66586   8.348   1.720   1.065  0.4634 -0.0166  0.8345
20250SOL    HW166587   8.280   1.724   1.132 -1.5817 -1.4597 -1.0226
20250SOL    HW266588   8.329   1.794   1.007  0.8309 -0.0951  0.6089
20251SOL     OW66589   6.509   1.326   7.544  0.8094 -0.2085 -0.0506
20251SOL    HW166590   6.420   1.291   7.554  0.8889 -0.6120 -0.7064
20251SOL    HW266591   6.496   1.421   7.536  0.5391 -0.1431  1.0360
20252SOL     OW66592   1.053   3.753   9.721 -0.2362  0.0941  0.1166
20252SOL    HW166593   1.028   3.795   9.804 -1.3527 -0.9895  0.3625
20252SOL    HW266594   1.135   3.795   9.696 -0.0245  0.6327  1.6348
20253SOL     OW66595   5.962   3.687   4.185  0.2711  0.2803  0.2066
20253SOL    HW166596   5.951   3.782   4.184 -1.2065  0.1349 -0.1458
20253SOL    HW266597   5.960   3.664   4.278  0.2457  0.5534  0.2735
20254SOL     OW66598   5.477   3.441  11.560 -0.3229  0.1186  0.3750
20254SOL    HW166599   5.490   3.365  11.616  0.5996 -0.9147 -1.1610
20254SOL    HW266600   5.546   3.502  11.585  1.3714 -1.1610 -0.8818
20255SOL     OW66601   3.436   2.669   6.969 -0.0122 -0.2690  0.5144
20255SOL    HW166602   3.496   2.597   6.990  0.3622 -0.5875 -1.4849
20255SOL    HW266603   3.445   2.729   7.043  2.8609 -0.2621  0.2880
20256SOL     OW66604  11.301   2.722   7.577 -0.4134 -0.1383  0.2063
20256SOL    HW166605  11.275   2.652   7.636 -2.6985  0.0820 -0.4724
20256SOL    HW266606  11.337   2.790   7.634 -1.9436 -0.2066  1.3001
20257SOL     OW66607   4.942   5.203   1.930  0.9354 -0.2307 -0.2540
20257SOL    HW166608   4.998   5.140   1.885  4.1478  1.2159  1.3710
20257SOL    HW266609   4.928   5.166   2.017 -0.4071 -0.4116 -0.5332
20258SOL     OW66610   5.448   8.635   6.565  0.2071 -0.4770 -0.0992
20258SOL    HW166611   5.500   8.590   6.630  1.0090 -1.4691 -1.3805
20258SOL    HW266612   5.386   8.569   6.533  1.0353 -0.5713 -1.6081
20259SOL     OW66613   1.208  10.135   4.332 -0.3132  0.3229 -0.0853
20259SOL    HW166614   1.118  10.113   4.309 -0.0973  0.1335 -0.7845
20259SOL    HW266615   1.216  10.229   4.314 -0.0496  0.1120 -1.1666
20260SOL     OW66616  11.130  11.172  10.058 -0.3831  0.5081  0.5605
20260SOL    HW166617  11.199  11.106  10.053 -0.1425  0.8729 -2.0682
20260SOL    HW266618  11.049  11.121  10.061 -0.1833  0.0215 -1.0893
20261SOL     OW66619   5.114  10.226   7.029  0.1474  0.0054 -0.0071
20261SOL    HW166620   5.206  10.201   7.026  0.4152  1.0228 -0.6855
20261SOL    HW266621   5.068  10.153   6.988  0.7368 -0.1587 -0.3917
20262SOL     OW66622   1.982  10.749  10.767  0.3186  0.2830  0.1339
20262SOL    HW166623   2.030  10.811  10.822 -1.2345  1.2444  0.4460
20262SOL    HW266624   1.954  10.679  10.826  1.8641 -0.6507 -0.1760
20263SOL     OW66625   2.158   0.981  11.861 -0.0605  0.0632 -0.0370
20263SOL    HW166626   2.167   1.012  11.950  0.1181 -1.9430  0.6960
20263SOL    HW266627   2.207   0.899  11.858 -0.8936 -0.4361 -1.6916
20264SOL     OW66628   7.409  10.148  10.933  0.2255 -0.2136  0.2155
20264SOL    HW166629   7.459  10.211  10.985  1.0459  0.4985 -1.3583
20264SOL    HW266630   7.473  10.082  10.908  0.4289  0.6663 -1.7550
20265SOL     OW66631   4.807  11.748   6.918 -0.5549  0.3173  0.1679
20265SOL    HW166632   4.760  11.682   6.968  0.0774  0.2284  0.6482
20265SOL    HW266633   4.776  11.831   6.953 -0.5877  0.2637  0.2656
20266SOL     OW66634   5.190  12.012   4.974 -0.3181 -0.8632  0.4742
20266SOL    HW166635   5.220  12.014   5.065 -1.6173  1.1981  0.9237
20266SOL    HW266636   5.196  12.103   4.945 -0.6653 -1.3639 -1.2661
20267SOL     OW66637   1.266   6.499   2.256  0.1710 -0.3901  0.2266
20267SOL    HW166638   1.323   6.513   2.181 -0.9624  1.9429 -0.2945
20267SOL    HW266639   1.230   6.412   2.244 -2.6465  1.0628 -3.9418
20268SOL     OW66640   5.174  11.558   7.621  0.2431  0.2822 -0.4175
20268SOL    HW166641   5.133  11.528   7.702  0.6548 -0.5851 -0.5207
20268SOL    HW266642   5.108  11.544   7.554  0.7236 -1.2911 -0.6155
20269SOL     OW66643   3.545   3.906   3.069  0.4118  0.6332  0.2906
20269SOL    HW166644   3.462   3.916   3.023  1.4008  1.9381 -1.3172
20269SOL    HW266645   3.531   3.947   3.154 -1.2754 -1.3004  1.0200
20270SOL     OW66646   5.558   0.533   0.927 -0.4728  0.2895  0.1337
20270SOL    HW166647   5.642   0.536   0.973 -0.3468  0.2065 -0.0945
20270SOL    HW266648   5.579   0.558   0.837 -0.8213  1.0968  0.2637
20271SOL     OW66649   9.359  10.668   6.102  0.4182  0.1741 -0.1705
20271SOL    HW166650   9.378  10.719   6.024  0.2120  1.1948  0.4158
20271SOL    HW266651   9.266  10.686   6.120  0.8661  1.2975  1.2192
20272SOL     OW66652   7.679  10.367   7.002 -0.7908  0.1266 -0.5399
20272SOL    HW166653   7.612  10.334   7.061 -0.4790 -1.0390 -0.7964
20272SOL    HW266654   7.733  10.290   6.981  0.0790  0.8432 -1.0502
20273SOL     OW66655  11.746   9.920   4.336  0.3099 -0.3299 -0.2387
20273SOL    HW166656  11.727   9.836   4.293  0.3223 -0.8746  0.7811
20273SOL    HW266657  11.838   9.913   4.363  0.7184  0.5710 -1.3541
20274SOL     OW66658  11.404   1.357   5.791 -0.3164  0.5167 -0.1214
20274SOL    HW166659  11.393   1.273   5.747  2.7052  0.3789 -0.8233
20274SOL    HW266660  11.393   1.422   5.722  0.2726  0.5235 -0.2130
20275SOL     OW66661   8.052   7.481   5.556 -0.1223 -0.0650 -0.2875
20275SOL    HW166662   8.120   7.449   5.496 -1.0475  0.7794 -1.8345
20275SOL    HW266663   7.970   7.447   5.519 -0.6463 -0.3721  1.0909
20276SOL     OW66664  10.933   0.503   8.669  0.1262 -0.1132 -0.1770
20276SOL    HW166665  10.877   0.476   8.742  1.9663 -1.7413  0.7224
20276SOL    HW266666  10.872   0.514   8.596 -1.5072 -0.7494  1.0119
20277SOL     OW66667   5.024   0.025  10.437  0.0644 -0.0826  0.2434
20277SOL    HW166668   5.062   0.092  10.381 -0.4038 -0.3953 -0.4559
20277SOL    HW266669   4.984  -0.038  10.377  0.7830 -1.1792  0.8633
20278SOL     OW66670   8.878   9.283   6.187 -0.3793 -0.2766  0.5926
20278SOL    HW166671   8.871   9.190   6.209  0.2335 -0.1244  1.5138
20278SOL    HW266672   8.908   9.284   6.097  2.1983 -1.0237  1.3731
20279SOL     OW66673   7.004   8.010   0.181 -0.0370  0.0693  0.2897
20279SOL    HW166674   7.093   8.040   0.201  0.4496 -1.7002  1.0077
20279SOL    HW266675   6.979   7.958   0.258 -1.1034 -0.6829 -0.5371
20280SOL     OW66676  11.574   5.876   7.134  0.1633 -0.4911 -0.4408
20280SOL    HW166677  11.666   5.884   7.162  0.0778 -1.2706  0.1046
20280SOL    HW266678  11.573   5.909   7.044  0.6995  0.8660  0.0150
20281SOL     OW66679  11.710   8.567   7.395 -0.2880 -0.1673 -0.1330
20281SOL    HW166680  11.656   8.489   7.402 -0.3171 -0.0200  1.5909
20281SOL    HW266681  11.703   8.610   7.480 -0.2127  1.6881 -1.0087
20282SOL     OW66682  12.062   4.783   8.669  0.1124  0.1887 -0.1911
20282SOL    HW166683  12.050   4.828   8.753  0.7171 -0.8638  0.4808
20282SOL    HW266684  12.154   4.798   8.646  0.3905 -0.8689  0.1623
20283SOL     OW66685   4.012   6.593  11.396  0.0342  0.2078 -0.4731
20283SOL    HW166686   3.926   6.550  11.401  0.3401 -0.2766  0.9588
20283SOL    HW266687   3.999   6.678  11.437  0.8210 -0.9052  2.2945
20284SOL     OW66688  12.287   9.533   5.447  0.2995  0.1875 -0.8056
20284SOL    HW166689  12.246   9.478   5.513  1.6543 -0.2944 -0.3415
20284SOL    HW266690  12.324   9.472   5.384  0.6013  0.5929 -1.0293
20285SOL     OW66691   3.011   6.902  11.120  0.6313 -0.0360 -0.1434
20285SOL    HW166692   2.939   6.864  11.069  1.5435 -0.7093 -0.9560
20285SOL    HW266693   3.082   6.915  11.056  1.4204  0.1268  0.7476
20286SOL     OW66694  10.381   2.942   5.138 -0.4402  0.3514 -0.1080
20286SOL    HW166695  10.454   2.917   5.081 -1.4174  0.9510 -1.6975
20286SOL    HW266696  10.308   2.888   5.108 -1.1334  1.1317  0.1483
20287SOL     OW66697   4.589   4.024   8.597 -0.3887  0.1597  0.3258
20287SOL    HW166698   4.621   4.095   8.540  1.3600 -0.8926 -0.1076
20287SOL    HW266699   4.617   3.944   8.552 -0.7998 -0.7565  1.6569
20288SOL     OW66700   7.335   1.248   5.500 -0.2075 -0.4614 -0.1405
20288SOL    HW166701   7.360   1.250   5.408  0.1728 -0.1158 -0.0326
20288SOL    HW266702   7.365   1.332   5.535 -1.6050  0.0177 -0.0250
20289SOL     OW66703   4.496   2.653   0.066  0.1752 -0.2247 -0.0022
20289SOL    HW166704   4.411   2.651   0.022  0.5927  0.0988 -0.8372
20289SOL    HW266705   4.497   2.736   0.113  0.6968  0.5711 -1.3712
20290SOL     OW66706   2.946   4.171   0.746 -0.2648 -0.4975 -0.0013
20290SOL    HW166707   2.978   4.114   0.676  0.4744  0.1785 -0.2201
20290SOL    HW266708   2.939   4.113   0.822  1.0107 -0.7820 -0.0757
20291SOL     OW66709   7.270   5.844   0.792 -0.6757  0.3384  0.2362
20291SOL    HW166710   7.198   5.852   0.855 -0.7896 -0.1142  0.1641
20291SOL    HW266711   7.332   5.784   0.833 -0.7938 -0.0323 -0.1183
20292SOL     OW66712   1.455   3.861  10.742 -0.0203 -0.2083  0.7711
20292SOL    HW166713   1.388   3.838  10.806 -0.2991 -2.4333 -0.2359
20292SOL    HW266714   1.418   3.936  10.695 -1.1314 -0.4302  1.2529
20293SOL     OW66715   7.660   7.568   0.737  0.3168 -0.1049 -0.3901
20293SOL    HW166716   7.645   7.632   0.668 -0.8355 -1.4098 -1.4045
20293SOL    HW266717   7.694   7.491   0.692  0.2950 -0.7152  0.6019
20294SOL     OW66718   9.291   1.112   4.139 -0.0951  0.0159  0.2392
20294SOL    HW166719   9.286   1.158   4.222  0.3031  0.1754  0.1730
20294SOL    HW266720   9.383   1.087   4.129  0.0181  0.6649 -0.5072
20295SOL     OW66721   1.883   1.106  10.426  0.2172  0.3667 -0.7945
20295SOL    HW166722   1.943   1.163  10.475  0.6442 -1.1275  0.4995
20295SOL    HW266723   1.940   1.043  10.382 -0.3204 -1.2940  0.7244
20296SOL     OW66724   2.250   7.584   2.687 -0.3842 -0.3467  0.2646
20296SOL    HW166725   2.208   7.628   2.761  1.3173  0.0789  1.0304
20296SOL    HW266726   2.192   7.602   2.613 -2.4589 -1.3129  1.5721
20297SOL     OW66727  12.065   6.125   2.269 -1.1299 -0.5295  0.1031
20297SOL    HW166728  11.974   6.155   2.267 -0.2598  2.3650 -1.4497
20297SOL    HW266729  12.101   6.149   2.184  1.3381 -0.7764  0.9835
20298SOL     OW66730   7.145   7.727   5.475  0.3015  0.0340  0.6094
20298SOL    HW166731   7.074   7.748   5.536  0.2781  3.2564 -0.3326
20298SOL    HW266732   7.104   7.731   5.388  1.0464 -0.9935  0.1957
20299SOL     OW66733  11.383   8.695  11.205  0.2809  0.1786 -0.0643
20299SOL    HW166734  11.329   8.737  11.137  0.0158 -0.2565 -0.1244
20299SOL    HW266735  11.331   8.704  11.284 -1.4432 -3.0933 -0.6713
20300SOL     OW66736   1.090   3.464   8.542  0.2695  0.5183  0.3821
20300SOL    HW166737   1.044   3.380   8.552  0.8473  0.0554 -0.7737
20300SOL    HW266738   1.042   3.510   8.473 -0.0916  1.1994  1.0589
20301SOL     OW66739   5.176   6.832   8.716  0.3304 -0.2972 -0.0210
20301SOL    HW166740   5.196   6.856   8.807  0.8327 -1.6756  0.2610
20301SOL    HW266741   5.084   6.806   8.717 -0.3114  1.7729 -0.3923
20302SOL     OW66742   2.277   6.996  12.165  0.0057  0.0045 -0.1681
20302SOL    HW166743   2.356   7.047  12.149  0.6157 -0.9872 -0.4239
20302SOL    HW266744   2.242   6.979  12.078  0.0293 -0.3414 -0.1120
20303SOL     OW66745   4.931   7.033  10.599 -0.0325 -0.4989  0.2454
20303SOL    HW166746   4.842   7.009  10.625 -0.3276  0.2226 -0.0991
20303SOL    HW266747   4.960   6.959  10.544 -0.9643 -0.0649 -0.8675
20304SOL     OW66748   2.995   2.337   2.144 -0.4197  0.4321  0.4156
20304SOL    HW166749   2.945   2.345   2.226 -2.0589 -1.3778 -0.3297
20304SOL    HW266750   2.950   2.268   2.096  1.6190  0.1859 -1.2364
20305SOL     OW66751   5.258   1.115   4.578 -0.1710 -0.0412 -0.2124
20305SOL    HW166752   5.225   1.176   4.511  0.5177 -2.4087 -2.9285
20305SOL    HW266753   5.192   1.045   4.581  0.6872 -0.8597  0.2238
20306SOL     OW66754  11.308   0.220  10.514 -0.2439  0.4693 -0.5376
20306SOL    HW166755  11.366   0.153  10.477  0.6801  0.9859 -0.0696
20306SOL    HW266756  11.329   0.221  10.607 -0.4498  1.2046 -0.4923
20307SOL     OW66757   9.294  11.054   1.667 -0.4882  0.2957 -0.0297
20307SOL    HW166758   9.222  11.044   1.730 -0.2103  1.0536  0.4190
20307SOL    HW266759   9.250  11.067   1.583 -0.8765  0.2989  0.1707
20308SOL     OW66760   9.872   3.813  10.941  0.1352 -0.2298 -0.0016
20308SOL    HW166761   9.846   3.731  10.898 -0.9468 -0.7873  1.6310
20308SOL    HW266762   9.802   3.831  11.004  1.4054  0.8143  1.1809
20309SOL     OW66763  10.962   6.926   6.096 -0.3563 -0.7874 -0.5653
20309SOL    HW166764  10.979   6.887   6.010  1.9966 -0.3299 -0.3747
20309SOL    HW266765  11.002   7.013   6.090 -0.9127 -0.4256  0.7170
20310SOL     OW66766   7.573   3.617   1.727  0.0502  0.4205 -0.1026
20310SOL    HW166767   7.650   3.570   1.758 -0.0097  0.7049  0.4819
20310SOL    HW266768   7.573   3.699   1.776 -0.4239  0.5769 -0.3580
20311SOL     OW66769  11.259   8.994   9.870 -0.3791  0.4408 -0.2417
20311SOL    HW166770  11.325   8.931   9.839 -0.9294  0.2948 -1.1349
20311SOL    HW266771  11.293   9.079   9.845 -0.4575  0.3756 -0.5703
20312SOL     OW66772   8.894  10.247   8.414 -0.4047  0.2830 -0.5655
20312SOL    HW166773   8.938  10.227   8.331  0.1723 -0.4113 -0.1147
20312SOL    HW266774   8.804  10.219   8.401  0.0595 -1.4270 -0.4340
20313SOL     OW66775  10.645   0.456   3.476 -0.3400 -0.4138  0.0603
20313SOL    HW166776  10.632   0.471   3.383 -1.3176 -0.8329  0.1155
20313SOL    HW266777  10.674   0.540   3.511  1.2839 -0.5750 -0.8174
20314SOL     OW66778   3.663   2.789   1.989 -0.6852  0.1868 -0.2544
20314SOL    HW166779   3.610   2.798   2.068  0.2551  1.0513  0.2971
20314SOL    HW266780   3.634   2.706   1.951 -1.8079  0.2122  0.4870
20315SOL     OW66781   8.340   3.142   2.607 -0.2448 -0.0700  0.0439
20315SOL    HW166782   8.297   3.059   2.591  0.8325 -0.6936  0.2689
20315SOL    HW266783   8.431   3.119   2.626  0.3529  1.2222 -1.0336
20316SOL     OW66784   7.966   2.831   5.959 -0.0476  0.1025 -0.3021
20316SOL    HW166785   8.006   2.794   5.880  2.7231  0.7263  0.6882
20316SOL    HW266786   7.979   2.764   6.026 -0.7044  0.3279  0.0545
20317SOL     OW66787  11.836   0.179   4.103  0.2463 -0.3571  0.6473
20317SOL    HW166788  11.788   0.103   4.135  0.9001 -0.1034  2.4089
20317SOL    HW266789  11.878   0.150   4.023 -0.7848 -1.3522  0.4566
20318SOL     OW66790   7.374   4.413   7.512 -0.2364 -0.1983  0.0996
20318SOL    HW166791   7.301   4.415   7.574 -0.2469  0.1856  0.0772
20318SOL    HW266792   7.371   4.325   7.474 -0.6128 -0.2222  0.1835
20319SOL     OW66793   2.202  10.941   3.274  0.3533  0.5554 -0.2129
20319SOL    HW166794   2.297  10.954   3.278  0.1211  2.6723 -0.1107
20319SOL    HW266795   2.170  10.982   3.354 -0.8118  2.0655 -1.3966
20320SOL     OW66796   1.077   8.069   4.281 -0.3343  0.4749  0.7251
20320SOL    HW166797   0.992   8.025   4.270 -0.6464  0.4449  2.8228
20320SOL    HW266798   1.093   8.111   4.197 -1.1461 -1.7049 -0.5980
20321SOL     OW66799   2.372   1.672   4.714  0.0464 -0.1337 -0.6182
20321SOL    HW166800   2.313   1.721   4.771  0.6229 -0.3977  0.2338
20321SOL    HW266801   2.405   1.737   4.652  0.7895  0.5884  0.4908
20322SOL     OW66802  11.508   8.580  11.505 -0.2283  0.2220 -0.0159
20322SOL    HW166803  11.449   8.569  11.430 -2.3951  0.8433  1.4798
20322SOL    HW266804  11.566   8.652  11.480  0.2199 -0.6868 -1.7099
20323SOL     OW66805   5.555   7.792   7.212 -0.7263 -0.1987 -0.1557
20323SOL    HW166806   5.629   7.741   7.179  1.8817  1.7455  2.2122
20323SOL    HW266807   5.571   7.799   7.306 -2.8594  2.0090  0.1312
20324SOL     OW66808   4.145   8.753   0.673 -0.2281  0.2482  0.6251
20324SOL    HW166809   4.186   8.764   0.759 -1.5702 -1.8548  1.6098
20324SOL    HW266810   4.080   8.683   0.686 -0.9391  0.3395 -1.9444
20325SOL     OW66811   6.231   3.091   2.251  0.0721  0.1692  0.5205
20325SOL    HW166812   6.299   3.158   2.247  0.3951 -0.2319 -1.0779
20325SOL    HW266813   6.276   3.013   2.284  0.6345 -0.3516 -1.3921
20326SOL     OW66814   0.333   2.847   3.399 -0.4175 -0.3525 -0.2154
20326SOL    HW166815   0.418   2.808   3.418 -0.1506  0.6825  0.7934
20326SOL    HW266816   0.289   2.783   3.342  1.7879 -0.0061 -2.4680
20327SOL     OW66817   4.205   6.316   5.290  0.5813 -0.0462 -0.0784
20327SOL    HW166818   4.282   6.282   5.244  0.7610 -0.7902  0.7456
20327SOL    HW266819   4.165   6.239   5.330 -1.5781  0.0372 -1.8604
20328SOL     OW66820   2.618   3.478   6.286 -0.0109  0.0832 -0.1090
20328SOL    HW166821   2.576   3.564   6.280  0.5473  0.4845  1.2847
20328SOL    HW266822   2.583   3.440   6.367  2.0338  0.2920  0.9237
20329SOL     OW66823   8.832   4.660   5.295  0.4339  0.1541 -0.2273
20329SOL    HW166824   8.767   4.712   5.341  1.1989 -0.1929  1.3171
20329SOL    HW266825   8.916   4.690   5.331  1.0843 -0.0246 -1.5290
20330SOL     OW66826  10.011   1.885   5.529  0.2862 -0.6049  0.0995
20330SOL    HW166827  10.043   1.906   5.617  1.2770 -1.7685  0.0334
20330SOL    HW266828  10.006   1.790   5.528  0.4013 -0.6070 -1.1494
20331SOL     OW66829   2.361   9.153   6.410 -0.8200 -0.0311 -0.1246
20331SOL    HW166830   2.395   9.107   6.333 -2.0125 -2.1614  0.5590
20331SOL    HW266831   2.436   9.160   6.469  0.0555  1.4385 -1.3422
20332SOL     OW66832   8.209   0.693   2.511  0.1257  0.6475  0.1208
20332SOL    HW166833   8.140   0.636   2.476  0.4606  0.1055  0.3333
20332SOL    HW266834   8.280   0.687   2.447  1.2006 -1.2481  1.3912
20333SOL     OW66835   3.095   5.982  11.150 -0.5717  0.2792  0.0194
20333SOL    HW166836   3.110   6.042  11.076  0.2001 -0.5434 -0.5092
20333SOL    HW266837   3.177   5.934  11.158 -1.8926 -2.3237 -1.0373
20334SOL     OW66838   0.201   1.822   6.733  0.1952  0.3761 -0.1378
20334SOL    HW166839   0.256   1.744   6.721  0.7826  0.4970  1.4889
20334SOL    HW266840   0.235   1.864   6.812 -0.0484  2.3729 -1.0341
20335SOL     OW66841   6.819  11.459   6.363 -0.2998  0.3262  0.0440
20335SOL    HW166842   6.853  11.494   6.280  0.5249 -0.4313  0.0444
20335SOL    HW266843   6.859  11.372   6.371  0.3333  0.7299  1.6548
20336SOL     OW66844  12.112   0.738  10.939 -0.0233  0.1842  0.3986
20336SOL    HW166845  12.107   0.780  11.025  1.1832  0.1096  0.5295
20336SOL    HW266846  12.165   0.659  10.955  0.0774  0.0903 -0.3851
20337SOL     OW66847  11.526   5.284  11.829 -0.1932 -1.0274 -0.4619
20337SOL    HW166848  11.609   5.298  11.782 -0.2554 -1.1366 -0.6043
20337SOL    HW266849  11.551   5.285  11.921 -0.4877  2.1993 -0.3007
20338SOL     OW66850   8.879  11.713   1.319 -0.0213 -0.0035 -0.2321
20338SOL    HW166851   8.830  11.696   1.399  1.4264 -0.9664  0.4894
20338SOL    HW266852   8.965  11.742   1.349  0.5346 -0.3426 -1.4379
20339SOL     OW66853   2.753   5.035   4.609  0.2502  0.0414  0.1530
20339SOL    HW166854   2.808   4.964   4.642 -0.7823 -1.3680 -1.0660
20339SOL    HW266855   2.745   5.018   4.515 -0.9364  1.1433  0.0309
20340SOL     OW66856   1.072   0.505  10.058 -0.3600  0.1709  0.2836
20340SOL    HW166857   1.071   0.556  10.139  1.0568 -0.5417  0.7942
20340SOL    HW266858   1.149   0.536  10.010 -0.1832 -0.6193  0.0367
20341SOL     OW66859   3.925   8.278   9.244  0.0989 -0.8280 -0.5520
20341SOL    HW166860   3.843   8.245   9.281  1.0799 -1.7505  0.9220
20341SOL    HW266861   3.898   8.347   9.183 -1.8288 -1.8822 -0.9924
20342SOL     OW66862  11.638   4.848   4.033  0.4399 -0.2460  0.0974
20342SOL    HW166863  11.672   4.934   4.057  0.0226 -0.4378  1.4833
20342SOL    HW266864  11.714   4.797   4.008  0.6094  0.7503 -1.4997
20343SOL     OW66865   9.653   4.027   5.055  0.1794 -0.4519  0.2677
20343SOL    HW166866   9.600   4.104   5.079  0.7289 -0.5181  1.8378
20343SOL    HW266867   9.634   3.963   5.124  0.9889 -1.1091 -0.1115
20344SOL     OW66868   4.699   5.836   2.587 -0.0122 -0.2948 -0.6690
20344SOL    HW166869   4.643   5.774   2.634 -2.2967 -0.1110 -2.9320
20344SOL    HW266870   4.788   5.810   2.611 -0.9602 -2.3072  1.0359
20345SOL     OW66871   3.900   8.153   7.550  0.0884 -0.8706  0.3587
20345SOL    HW166872   3.937   8.240   7.534 -3.9036  1.2096  1.0067
20345SOL    HW266873   3.841   8.138   7.476 -0.4221 -2.3157  1.0113
20346SOL     OW66874   1.067   3.067  10.213 -0.0999  0.4126 -0.4214
20346SOL    HW166875   1.087   3.126  10.140 -0.7646  2.7115  1.1314
20346SOL    HW266876   0.973   3.080  10.229 -1.0199 -3.2632 -1.7538
20347SOL     OW66877   4.387  11.083   5.451 -0.5096  0.1249  0.1912
20347SOL    HW166878   4.444  11.143   5.500  1.4986 -2.0252  0.6594
20347SOL    HW266879   4.426  11.079   5.364  0.7521 -2.1224  0.7970
20348SOL     OW66880   3.321   7.370   1.497  0.3702  0.2507  0.7725
20348SOL    HW166881   3.377   7.436   1.456  1.5179 -1.1597  0.0050
20348SOL    HW266882   3.365   7.348   1.579 -0.0152  0.4318  1.0314
20349SOL     OW66883  11.734   6.465  11.484  0.5381  0.5386 -0.4403
20349SOL    HW166884  11.686   6.482  11.403  1.5360 -1.2790 -1.4855
20349SOL    HW266885  11.710   6.376  11.509  0.4301  0.9772  1.1741
20350SOL     OW66886   2.079  10.533   6.696 -0.3787 -0.2006 -0.0866
20350SOL    HW166887   2.008  10.594   6.717 -1.1669 -1.5347  1.3186
20350SOL    HW266888   2.103  10.494   6.781  0.4390 -1.4691 -0.8699
20351SOL     OW66889   7.703   0.267   6.271  0.7563  0.5521 -0.2053
20351SOL    HW166890   7.745   0.257   6.356 -0.8466  1.0635  0.7014
20351SOL    HW266891   7.748   0.204   6.214  1.6024 -0.0869  1.1139
20352SOL     OW66892   3.036  10.277   0.294 -0.1496 -0.3368  0.0290
20352SOL    HW166893   3.009  10.186   0.306 -0.0951 -0.3094  0.3649
20352SOL    HW266894   3.032  10.315   0.381  1.2963 -0.4287  0.1685
20353SOL     OW66895   1.353  11.006   0.474 -0.4718  0.1502  0.3749
20353SOL    HW166896   1.412  10.971   0.541 -0.0065 -1.0753 -0.6234
20353SOL    HW266897   1.269  11.015   0.518 -0.0671 -0.2129  1.2402
20354SOL     OW66898   4.367   2.072   6.429  0.3854  0.2245 -0.2837
20354SOL    HW166899   4.406   1.992   6.394 -0.0208  0.1724 -0.6249
20354SOL    HW266900   4.351   2.126   6.352 -1.7707 -0.4304 -0.3662
20355SOL     OW66901   8.694  10.116   1.021 -0.2964 -0.6828 -0.0962
20355SOL    HW166902   8.691  10.102   1.115 -0.7581  0.3185  0.0512
20355SOL    HW266903   8.627  10.058   0.986 -1.7847  0.6469  0.4390
20356SOL     OW66904  10.944   2.652  11.702  0.3165  0.2567  0.3017
20356SOL    HW166905  11.010   2.595  11.661 -0.0385  1.3605 -1.9755
20356SOL    HW266906  10.878   2.664  11.634 -0.2302  2.3547  1.1415
20357SOL     OW66907   7.539   7.604  12.041 -0.1425 -0.2156  0.2388
20357SOL    HW166908   7.580   7.572  12.121  0.2545  0.5758  0.3671
20357SOL    HW266909   7.457   7.644  12.069  0.7111  1.4759  0.5069
20358SOL     OW66910  12.140   5.557  11.264 -0.1152 -0.0167  0.5740
20358SOL    HW166911  12.135   5.648  11.294  0.1444  0.6624 -1.3090
20358SOL    HW266912  12.212   5.557  11.201 -0.4718 -1.4229  0.1404
20359SOL     OW66913   5.487   7.202   3.563 -0.6442  0.1352  0.0070
20359SOL    HW166914   5.413   7.199   3.625 -1.5947 -0.4670 -1.1171
20359SOL    HW266915   5.447   7.221   3.479  0.2637 -1.8804 -0.9424
20360SOL     OW66916  11.055   5.435   7.141 -0.0115  0.4547 -0.7164
20360SOL    HW166917  11.035   5.439   7.047  0.3675  2.7222 -0.7522
20360SOL    HW266918  10.970   5.428   7.184 -0.4614  2.6464 -1.1448
20361SOL     OW66919   0.867   7.300   7.086 -0.1729 -0.1700  0.3705
20361SOL    HW166920   0.950   7.328   7.047  0.6415 -0.7286  1.6248
20361SOL    HW266921   0.864   7.344   7.171 -0.4330 -1.2902  0.9707
20362SOL     OW66922   1.092  11.031   2.803 -0.0684  0.9735 -0.7252
20362SOL    HW166923   1.014  11.082   2.781 -0.8448  1.2819  2.3420
20362SOL    HW266924   1.060  10.959   2.857  1.5093 -0.5257 -1.6520
20363SOL     OW66925   3.423   1.115  11.202  0.1505 -0.1322  0.3236
20363SOL    HW166926   3.393   1.045  11.259  1.9463 -0.7079  0.6236
20363SOL    HW266927   3.503   1.148  11.244 -0.2433  1.5994 -0.1971
20364SOL     OW66928   9.662   3.678   2.703  0.7848  0.4189 -0.4098
20364SOL    HW166929   9.630   3.592   2.675  0.7722  0.2287  0.1604
20364SOL    HW266930   9.735   3.658   2.762  0.7779  0.7971 -0.2701
20365SOL     OW66931   0.553   5.230  10.357 -0.5548  0.5700  0.4834
20365SOL    HW166932   0.604   5.310  10.363 -1.5782  1.6226 -2.6860
20365SOL    HW266933   0.597   5.178  10.291 -1.9559  0.2307 -0.2311
20366SOL     OW66934   7.990  10.108   4.228  0.6452  0.2399 -0.6738
20366SOL    HW166935   7.998  10.171   4.300  1.5513  0.2724 -0.7941
20366SOL    HW266936   7.955  10.159   4.155 -0.9954  0.0488 -0.0653
20367SOL     OW66937   9.588   3.220   6.369  0.0817  0.0373  0.4563
20367SOL    HW166938   9.610   3.127   6.362  3.9445  0.8925 -3.6562
20367SOL    HW266939   9.507   3.230   6.319 -1.2381 -1.1552  2.2169
20368SOL     OW66940  11.445   7.593   3.339 -0.5957  0.3379 -0.3253
20368SOL    HW166941  11.364   7.550   3.313 -2.6731  1.5127  3.5354
20368SOL    HW266942  11.495   7.525   3.385  2.2063 -1.1998 -4.9588
20369SOL     OW66943   2.568   9.540  11.956  0.5644 -0.0326 -0.1845
20369SOL    HW166944   2.598   9.607  12.018  1.3639 -1.2786  0.8304
20369SOL    HW266945   2.485   9.509  11.994  0.2593  0.2654 -0.5881
20370SOL     OW66946   1.575   9.220  11.724 -0.0769  0.0517 -0.1185
20370SOL    HW166947   1.509   9.249  11.661  1.2857  1.9542 -0.7866
20370SOL    HW266948   1.616   9.144  11.683 -0.9940 -0.3705 -0.2736
20371SOL     OW66949  11.042   1.216  10.941 -0.2469  0.0263 -0.7507
20371SOL    HW166950  11.075   1.277  11.007 -0.0027 -3.3063  2.5649
20371SOL    HW266951  10.957   1.188  10.975  0.5185 -2.8859 -0.9184
20372SOL     OW66952   5.170   1.942   6.732 -0.8386  0.6728 -0.2478
20372SOL    HW166953   5.124   1.858   6.731  0.4628 -0.0822  0.8843
20372SOL    HW266954   5.170   1.969   6.824 -1.9997  2.3828 -0.6986
20373SOL     OW66955   9.342   5.130   9.022  0.2054  0.1531 -0.1525
20373SOL    HW166956   9.298   5.074   9.085  1.5769  0.2855  0.9598
20373SOL    HW266957   9.300   5.109   8.938 -1.9519  0.2913  0.8264
20374SOL     OW66958   6.991   4.001   8.915  0.0738  0.0175 -0.2759
20374SOL    HW166959   7.032   3.929   8.866  0.9132 -0.1755  0.6679
20374SOL    HW266960   6.958   3.960   8.995 -0.4594  0.4841 -0.2530
20375SOL     OW66961   4.332   6.838   4.691 -0.7458  0.7260  0.1980
20375SOL    HW166962   4.261   6.778   4.669 -0.9302  0.9169  0.2652
20375SOL    HW266963   4.322   6.853   4.785  0.0867 -0.1480  0.4415
20376SOL     OW66964  10.652   1.126   5.566 -0.0950 -0.0156 -0.2466
20376SOL    HW166965  10.630   1.101   5.477 -0.2551  0.6750 -0.4051
20376SOL    HW266966  10.568   1.143   5.608 -0.0848 -1.3481  0.3495
20377SOL     OW66967   3.988   0.803   3.764  0.0212 -0.1939  0.2250
20377SOL    HW166968   4.082   0.806   3.746 -0.1807  2.3433 -0.8744
20377SOL    HW266969   3.982   0.776   3.855  1.8899  0.3890  0.5653
20378SOL     OW66970   7.711   8.167   4.894  0.4679 -0.4058 -0.3060
20378SOL    HW166971   7.785   8.225   4.907 -0.0313  0.9253 -2.8074
20378SOL    HW266972   7.640   8.224   4.863 -1.0855 -1.8793  0.3115
20379SOL     OW66973  11.766   7.409   6.848  0.8440  0.4898 -0.0833
20379SOL    HW166974  11.743   7.372   6.763  1.4013  1.8762 -0.8704
20379SOL    HW266975  11.685   7.405   6.899  1.3736 -4.1028  0.8536
20380SOL     OW66976   8.818   0.484   9.511  0.4005 -0.0253  0.3086
20380SOL    HW166977   8.789   0.575   9.508  0.1206 -0.0971  0.6627
20380SOL    HW266978   8.827   0.465   9.605 -1.5896 -0.9833  0.3687
20381SOL     OW66979   2.951   8.082   6.757  0.3495 -0.0973 -0.1544
20381SOL    HW166980   2.874   8.126   6.721 -1.1431 -2.5724 -0.2254
20381SOL    HW266981   2.955   8.110   6.848 -0.0377  0.7991 -0.4063
20382SOL     OW66982   5.038   5.144   3.650  0.5744 -0.1912  0.1940
20382SOL    HW166983   5.130   5.120   3.650  0.6209 -0.0348  0.7100
20382SOL    HW266984   5.024   5.186   3.735  0.0522 -0.1263  0.0823
20383SOL     OW66985  10.274  12.084   0.176  0.0782 -0.3575  0.4111
20383SOL    HW166986  10.208  12.116   0.114  0.5005 -0.6830 -0.2088
20383SOL    HW266987  10.352  12.137   0.158  0.3344 -0.7472  0.3670
20384SOL     OW66988   9.934   3.258   0.412  0.1719  0.4235  0.1269
20384SOL    HW166989   9.882   3.262   0.331  0.3319 -1.8433 -0.1510
20384SOL    HW266990  10.015   3.303   0.390 -0.0989  0.5075 -0.7421
20385SOL     OW66991   0.541   6.943   2.002  0.6356 -0.0800  0.1628
20385SOL    HW166992   0.537   6.848   1.994 -0.7657 -0.1144  0.9009
20385SOL    HW266993   0.571   6.958   2.092  1.8873  0.2009 -0.2838
20386SOL     OW66994  11.945   4.798  11.015 -0.1971  0.5636  0.1699
20386SOL    HW166995  12.037   4.801  11.040  0.2718  0.2758 -1.4216
20386SOL    HW266996  11.900   4.765  11.093  1.3424 -1.4983  0.2555
20387SOL     OW66997   2.069   4.739   4.526  0.1236  0.3333 -0.5718
20387SOL    HW166998   1.987   4.693   4.544  0.6334  0.2873  1.9847
20387SOL    HW266999   2.138   4.678   4.550  0.8207  1.8118  1.5140
20388SOL     OW67000   8.654  12.291  11.450  0.5293 -0.0351 -0.4194
20388SOL    HW167001   8.576  12.342  11.429  0.9164  0.3239 -1.0102
20388SOL    HW267002   8.677  12.247  11.369  0.2156 -1.1543  0.0778
20389SOL     OW67003   0.528   2.552   2.748  0.2808 -0.6216  0.4096
20389SOL    HW167004   0.545   2.471   2.701  0.6914 -0.5082  0.3599
20389SOL    HW267005   0.448   2.586   2.708  1.7480  0.5678 -1.7319
20390SOL     OW67006   9.385   3.441   6.269 -0.1238  0.2936 -0.5827
20390SOL    HW167007   9.308   3.384   6.272 -1.2690  1.8150  0.8822
20390SOL    HW267008   9.374   3.492   6.189  1.0460 -1.5968 -2.0498
20391SOL     OW67009   7.891   2.748  10.166  0.2729  0.5408  0.0504
20391SOL    HW167010   7.850   2.824  10.125  0.3484  0.5970  0.0797
20391SOL    HW267011   7.817   2.691  10.190 -0.0338  1.8198  2.5227
20392SOL     OW67012   6.643   4.651   1.224 -0.2187 -0.4288  0.2568
20392SOL    HW167013   6.571   4.607   1.179 -0.8809  0.9967 -0.1592
20392SOL    HW267014   6.601   4.695   1.298 -0.4613  3.0305 -1.7145
20393SOL     OW67015   0.262   2.007   1.016  0.7981 -0.2533  0.2663
20393SOL    HW167016   0.282   2.052   1.098 -2.1469  2.2073 -0.1573
20393SOL    HW267017   0.205   1.935   1.042 -0.4170  0.7278  0.4740
20394SOL     OW67018  10.595  12.220  11.388  0.6549 -0.0487  0.0879
20394SOL    HW167019  10.666  12.282  11.370  1.0850 -0.5356  0.0772
20394SOL    HW267020  10.630  12.135  11.360 -0.8696  0.0352 -2.3112
20395SOL     OW67021   7.214   4.143   7.420  0.1986  0.1535 -0.6889
20395SOL    HW167022   7.156   4.180   7.353  0.6139 -0.4365 -1.3874
20395SOL    HW267023   7.157   4.087   7.473  0.0301 -0.0161 -1.0491
20396SOL     OW67024   0.437   2.890   6.315  0.0842 -0.2760 -0.0034
20396SOL    HW167025   0.389   2.946   6.377 -1.8601 -2.1412  0.2700
20396SOL    HW267026   0.519   2.937   6.299 -0.5476  1.5921  1.8478
20397SOL     OW67027   1.066   3.120   0.587 -0.2400  0.3062  0.4835
20397SOL    HW167028   1.138   3.064   0.556  0.2700 -0.6526  3.1390
20397SOL    HW267029   1.063   3.105   0.681 -4.5656 -0.4558  0.4490
20398SOL     OW67030   1.753  10.685   1.508 -0.1331 -0.2084 -0.0243
20398SOL    HW167031   1.729  10.777   1.499 -1.6782 -0.7759 -2.8583
20398SOL    HW267032   1.686  10.648   1.565 -0.4716  0.1005 -0.2181
20399SOL     OW67033   3.449  10.527   1.913 -0.2377 -1.0890  0.2464
20399SOL    HW167034   3.492  10.445   1.936 -0.4948 -1.5233 -0.7570
20399SOL    HW267035   3.359  10.502   1.890 -1.0463 -0.2162  2.2041
20400SOL     OW67036   7.425   8.645   2.276  0.1055  1.0961 -0.0879
20400SOL    HW167037   7.360   8.707   2.243 -0.8592  1.2847  2.0347
20400SOL    HW267038   7.383   8.604   2.351  2.1806  0.6680  0.9033
20401SOL     OW67039   3.324  11.579   3.866 -0.4786  0.1482  0.3047
20401SOL    HW167040   3.334  11.534   3.950 -0.5745 -0.2455  0.1097
20401SOL    HW267041   3.379  11.529   3.806  0.8055  1.3362  0.4614
20402SOL     OW67042   9.633   9.112   5.708  0.3035  0.1714 -0.4766
20402SOL    HW167043   9.645   9.137   5.617 -0.2607  0.7421 -0.3994
20402SOL    HW267044   9.557   9.162   5.737  1.9930  2.0444  1.0721
20403SOL     OW67045   4.829   0.467   9.137  0.0203  0.3777 -0.4422
20403SOL    HW167046   4.801   0.505   9.221  1.6496  0.6442  0.0084
20403SOL    HW267047   4.817   0.373   9.148  0.6699  0.3690  0.2831
20404SOL     OW67048   8.562   4.197   6.705 -0.3512 -0.2526  0.0693
20404SOL    HW167049   8.469   4.191   6.729 -0.1824  1.2757  1.2856
20404SOL    HW267050   8.608   4.186   6.789  0.5697 -0.7750 -0.4926
20405SOL     OW67051   1.094  12.299   2.981  0.2416  0.1431 -0.4946
20405SOL    HW167052   1.015  12.351   2.995  0.7551  1.2714 -1.5951
20405SOL    HW267053   1.062  12.215   2.946 -0.4808  0.4280 -0.5410
20406SOL     OW67054   8.756   5.095   9.941 -0.5566 -0.4029  0.4963
20406SOL    HW167055   8.734   5.061  10.027 -0.4468 -2.0899 -0.1180
20406SOL    HW267056   8.849   5.117   9.947 -0.4785 -0.7925  0.7136
20407SOL     OW67057   3.085   9.038  10.329  0.3560  0.2308  0.0602
20407SOL    HW167058   3.077   8.944  10.339  1.6682 -0.0013 -0.8999
20407SOL    HW267059   3.072   9.054  10.236  1.6065  0.8259 -0.0258
20408SOL     OW67060   1.514   0.863   5.759  0.2351  0.6407 -0.0354
20408SOL    HW167061   1.563   0.867   5.677 -0.2314 -0.3977 -0.3787
20408SOL    HW267062   1.443   0.801   5.742  0.1185  0.4263  1.1464
20409SOL     OW67063   5.970   8.452  11.195  0.0612  0.4943  0.0002
20409SOL    HW167064   5.937   8.513  11.129 -0.4081  0.5376  0.2731
20409SOL    HW267065   5.949   8.365  11.159  2.1658  0.4030 -1.1609
20410SOL     OW67066   2.954  11.317   5.350 -0.0098 -0.0583 -0.0413
20410SOL    HW167067   2.878  11.263   5.330  1.9643 -3.1034  0.1179
20410SOL    HW267068   2.991  11.338   5.264 -0.1675  0.1662 -0.0575
20411SOL     OW67069   0.497  11.606   4.923  0.2675  0.5272 -0.1655
20411SOL    HW167070   0.451  11.572   5.000  0.0769  0.8673 -0.1291
20411SOL    HW267071   0.428  11.621   4.858  0.3669  0.7249 -0.2261
20412SOL     OW67072   2.044   5.308   4.930 -0.8086 -0.3425  0.0414
20412SOL    HW167073   2.071   5.249   4.860 -1.8780 -0.5952 -0.1761
20412SOL    HW267074   1.998   5.252   4.992 -2.6625  0.3896 -0.6231
20413SOL     OW67075   3.732   3.398   0.748  0.2711  0.3255 -0.1558
20413SOL    HW167076   3.757   3.320   0.798  2.0949  0.8388 -0.1991
20413SOL    HW267077   3.709   3.463   0.814 -1.4918 -0.2779 -0.1233
20414SOL     OW67078  12.305   8.297   5.640  0.4001  0.0534 -0.0891
20414SOL    HW167079  12.377   8.319   5.582  0.7086 -0.9500 -0.0945
20414SOL    HW267080  12.227   8.327   5.593  0.7175  0.0779 -0.6115
20415SOL     OW67081   0.570  11.604   4.019  0.1304  0.2128 -0.2549
20415SOL    HW167082   0.578  11.510   4.006  1.3788  0.3787 -0.8572
20415SOL    HW267083   0.478  11.623   4.003 -0.3192 -1.0206  0.7294
20416SOL     OW67084   0.467  11.212   7.911  0.1126  0.1007  0.5457
20416SOL    HW167085   0.494  11.233   7.822 -1.0857 -0.1560  0.1104
20416SOL    HW267086   0.429  11.124   7.905  0.0255  0.0782  1.3054
20417SOL     OW67087   8.152   2.003   1.685  0.2345  0.7600  0.2031
20417SOL    HW167088   8.176   2.010   1.593  1.0731  1.6416  0.4690
20417SOL    HW267089   8.070   2.050   1.693 -2.3294 -3.0508 -0.8982
20418SOL     OW67090   6.903  10.026   3.621 -0.3205  0.3506 -0.1069
20418SOL    HW167091   6.861   9.942   3.604 -1.4095  1.2586 -2.3561
20418SOL    HW267092   6.834  10.080   3.661  0.2143  0.3369  0.8457
20419SOL     OW67093   6.150   7.594   9.565  0.2123  0.0601 -0.4765
20419SOL    HW167094   6.216   7.617   9.630  0.5566 -0.3214 -0.6875
20419SOL    HW267095   6.152   7.666   9.501 -0.0067  0.3495 -0.1588
20420SOL     OW67096   1.754   0.463  12.060 -0.4110 -0.5586 -0.2343
20420SOL    HW167097   1.672   0.512  12.059 -0.3807 -0.3731  1.7565
20420SOL    HW267098   1.758   0.426  12.148  2.2334  0.4659  0.1645
20421SOL     OW67099   0.634   6.072  11.320 -0.0549 -0.0269  0.3516
20421SOL    HW167100   0.577   6.108  11.251  1.2894  0.7523 -0.3995
20421SOL    HW267101   0.723   6.090  11.289  0.5994 -0.2391  2.0014
20422SOL     OW67102   3.076   4.644   6.156 -0.7590  0.1929  0.1690
20422SOL    HW167103   3.059   4.695   6.236 -1.2527 -0.8867  0.7755
20422SOL    HW267104   2.995   4.652   6.106 -0.4466  0.8763 -0.2451
20423SOL     OW67105   3.059   4.590   8.317  0.1284 -0.2211 -0.0517
20423SOL    HW167106   3.068   4.574   8.411  1.1626  0.1932 -0.0628
20423SOL    HW267107   3.035   4.682   8.310 -0.8143 -0.4611 -0.1782
20424SOL     OW67108   9.331   5.556   3.481  0.0344  1.1692  0.2897
20424SOL    HW167109   9.425   5.565   3.498  0.0091  1.2861  0.3667
20424SOL    HW267110   9.322   5.470   3.439  0.3578  1.7463 -1.0343
20425SOL     OW67111   6.935  12.058   8.786  0.5761 -0.0632  0.0512
20425SOL    HW167112   6.985  12.125   8.832  0.0496 -0.3086  1.0124
20425SOL    HW267113   6.843  12.085   8.797  0.4465 -0.0064 -1.0509
20426SOL     OW67114   7.690   2.061  12.161  0.4676  0.0791 -0.5193
20426SOL    HW167115   7.603   2.088  12.131 -0.0590 -1.3179 -0.3011
20426SOL    HW267116   7.689   2.078  12.255 -0.5158 -2.2058 -0.0418
20427SOL     OW67117   9.764   3.071   1.195 -0.2430  0.1644 -0.2079
20427SOL    HW167118   9.737   3.144   1.251 -1.1915  2.2431 -3.1356
20427SOL    HW267119   9.684   3.044   1.150  0.2369 -2.2619  0.2688
20428SOL     OW67120   8.351   7.194  11.426  0.1049 -0.1886 -0.1052
20428SOL    HW167121   8.443   7.196  11.402  0.0116 -0.1565 -0.4701
20428SOL    HW267122   8.331   7.101  11.438  0.0178 -0.2490 -0.6935
20429SOL     OW67123   6.046   8.255   9.415 -0.1236  0.7832 -0.2837
20429SOL    HW167124   6.116   8.312   9.445  1.5981 -0.2570 -2.0442
20429SOL    HW267125   6.083   8.167   9.421 -0.4226  0.3515 -3.1404
20430SOL     OW67126   6.206   1.115  10.082 -0.0827  0.1290 -0.4340
20430SOL    HW167127   6.212   1.041  10.022 -1.4209 -1.3884  1.2047
20430SOL    HW267128   6.295   1.129  10.113 -0.1700 -2.6014  1.2674
20431SOL     OW67129   0.002   2.309   7.193  0.2265 -0.1538  0.0453
20431SOL    HW167130   0.093   2.332   7.176  0.4602 -0.9393  0.1899
20431SOL    HW267131  -0.034   2.289   7.106  0.5180 -0.9855  0.1137
20432SOL     OW67132   2.485  10.593   5.463 -0.4294  0.2234 -0.1353
20432SOL    HW167133   2.466  10.565   5.373  3.1649 -0.3889 -0.8859
20432SOL    HW267134   2.451  10.522   5.518 -1.1494 -0.2426 -1.1492
20433SOL     OW67135   8.935   2.274   1.247  0.1135 -0.0081  0.0679
20433SOL    HW167136   8.961   2.197   1.196  0.3012  0.4853 -0.5907
20433SOL    HW267137   8.994   2.274   1.322 -0.7335 -1.2363  0.7851
20434SOL     OW67138   3.352  10.187   1.572 -0.3808  0.5446 -0.7941
20434SOL    HW167139   3.416  10.258   1.578  0.7371 -0.3911 -1.1057
20434SOL    HW267140   3.291  10.202   1.644  0.0138  1.6414 -0.6805
20435SOL     OW67141   4.687   9.250   9.445  0.2021  0.8089  0.3012
20435SOL    HW167142   4.757   9.222   9.386  0.4803  0.3641  0.8380
20435SOL    HW267143   4.726   9.246   9.533 -0.1446  1.6569  0.5025
20436SOL     OW67144  12.310   9.248   7.952 -0.5368  0.1960  0.0140
20436SOL    HW167145  12.249   9.243   7.879  0.0632  2.7320 -0.7834
20436SOL    HW267146  12.261   9.293   8.021 -0.1823  0.4729  0.0880
20437SOL     OW67147   4.513   2.595  11.447  0.0805 -0.7537 -0.1074
20437SOL    HW167148   4.589   2.542  11.473 -0.2149 -0.2664  1.9129
20437SOL    HW267149   4.547   2.653  11.378  0.8966 -2.1759 -0.9545
20438SOL     OW67150   7.494  10.336   3.296 -0.9567 -0.3389  0.6381
20438SOL    HW167151   7.413  10.306   3.338 -0.9425  1.5273  2.1381
20438SOL    HW267152   7.465  10.367   3.210 -1.6506 -0.6763  0.7424
20439SOL     OW67153   7.251   2.003   5.047 -0.4998  0.4416  0.0499
20439SOL    HW167154   7.250   1.960   5.133 -0.7337  0.7658  0.2094
20439SOL    HW267155   7.205   2.085   5.061  0.3070  0.9416 -0.1505
20440SOL     OW67156   3.903  11.974   1.113 -0.3082  0.3585  0.5276
20440SOL    HW167157   3.809  11.976   1.099 -0.4247 -1.6302  0.6373
20440SOL    HW267158   3.941  12.001   1.029 -0.9912  0.0858  0.1203
20441SOL     OW67159  12.319   6.175   8.393  0.2778 -0.0324  0.1889
20441SOL    HW167160  12.257   6.231   8.347 -0.4133  0.7168  1.9176
20441SOL    HW267161  12.388   6.234   8.423 -0.5714  0.0185  2.2190
20442SOL     OW67162  11.622   1.856   5.950  0.0873  1.3852  0.6418
20442SOL    HW167163  11.583   1.868   5.864  0.9318 -0.6451 -0.0836
20442SOL    HW267164  11.703   1.906   5.947  1.0447 -0.1377 -0.4725
20443SOL     OW67165   3.370   8.922  11.753 -0.8925  0.1388 -0.4335
20443SOL    HW167166   3.288   8.971  11.760 -0.2166  1.2351  0.2738
20443SOL    HW267167   3.370   8.865  11.831 -0.5761  0.8090  0.0659
20444SOL     OW67168   6.760  11.268   9.189  0.1351 -0.1628  0.1169
20444SOL    HW167169   6.844  11.264   9.144  0.0199 -0.6912 -0.0610
20444SOL    HW267170   6.696  11.249   9.121 -0.2355  1.4672 -0.0323
20445SOL     OW67171   4.451   3.979  10.414 -0.0289 -0.0406  0.3600
20445SOL    HW167172   4.491   4.065  10.427 -0.1451 -0.2512  2.4818
20445SOL    HW267173   4.361   3.999  10.388 -0.2955  0.5219  1.6288
20446SOL     OW67174   0.263   3.116  11.335  0.3410  0.2497 -0.8259
20446SOL    HW167175   0.189   3.066  11.302 -0.4756  0.6469  0.3123
20446SOL    HW267176   0.310   3.145  11.257 -0.2279 -0.7111 -1.5436
20447SOL     OW67177   9.027   3.749   2.702 -0.2022  0.3778 -0.0572
20447SOL    HW167178   8.969   3.703   2.763  0.3697 -1.7747 -1.0323
20447SOL    HW267179   9.107   3.696   2.700  0.7395  1.7619 -0.8318
20448SOL     OW67180   2.368   6.142   1.105 -0.0356  0.0111 -0.1983
20448SOL    HW167181   2.299   6.182   1.159 -0.0439  0.2141 -0.3581
20448SOL    HW267182   2.321   6.077   1.052  0.2207 -1.3738  1.2175
20449SOL     OW67183   6.649   5.676   5.923  0.1084  0.3310 -0.4518
20449SOL    HW167184   6.673   5.726   6.001  0.5749  0.5606 -0.7399
20449SOL    HW267185   6.557   5.698   5.907 -0.5864 -1.1947  1.1534
20450SOL     OW67186   0.991   4.276  10.746 -0.0826 -0.1025  0.0504
20450SOL    HW167187   1.004   4.203  10.805 -0.4946  1.3620  2.0632
20450SOL    HW267188   0.910   4.256  10.700  0.8548 -1.8182 -0.9581
20451SOL     OW67189   5.907  10.868   1.935 -0.1250  0.0880  0.6781
20451SOL    HW167190   5.999  10.891   1.950 -0.0578  0.3501 -0.0977
20451SOL    HW267191   5.863  10.953   1.925 -0.0116 -0.0511 -1.4315
20452SOL     OW67192   9.103  10.925   7.087  0.4745  0.1797 -0.1251
20452SOL    HW167193   9.146  11.010   7.084  1.3185 -0.1995  0.7780
20452SOL    HW267194   9.040  10.928   7.016  0.1013  1.7674  0.2327
20453SOL     OW67195   4.504   8.787   0.315 -0.3278  0.4460 -0.6117
20453SOL    HW167196   4.411   8.800   0.296 -0.2532  0.1878 -1.1915
20453SOL    HW267197   4.508   8.772   0.410 -1.0017 -0.5677 -0.7304
20454SOL     OW67198   6.729  11.420   7.452  0.0071  0.0800 -0.2966
20454SOL    HW167199   6.753  11.369   7.375 -0.8656 -1.3490  0.3471
20454SOL    HW267200   6.712  11.356   7.521  0.9243  1.3203  1.1686
20455SOL     OW67201   0.835   5.480   6.787  0.2225 -0.1229 -0.0117
20455SOL    HW167202   0.786   5.531   6.723  0.8523 -0.2855 -0.6467
20455SOL    HW267203   0.927   5.493   6.762  0.4625 -0.4395  0.6766
20456SOL     OW67204   5.818   5.197   3.294 -0.6487  0.1737  0.0212
20456SOL    HW167205   5.802   5.289   3.273  0.3500  0.1773 -0.7861
20456SOL    HW267206   5.840   5.156   3.210 -2.0833 -1.0379  0.1796
20457SOL     OW67207   1.038   4.246   5.509 -0.2465 -0.1484  0.1914
20457SOL    HW167208   0.986   4.172   5.477  0.4367 -1.1212  1.2117
20457SOL    HW267209   1.031   4.312   5.441 -0.1081 -1.5235 -1.2224
20458SOL     OW67210   4.773   7.301  11.035  0.2215 -0.1358  0.2953
20458SOL    HW167211   4.866   7.281  11.047  0.3204  0.2429  0.1777
20458SOL    HW267212   4.745   7.243  10.964  0.7187  0.7423 -0.6465
20459SOL     OW67213   0.214   2.204   0.357 -0.1301 -0.1133  0.1727
20459SOL    HW167214   0.179   2.246   0.436  0.3817  0.9664 -0.1486
20459SOL    HW267215   0.138   2.195   0.299 -0.2708  0.3225  0.2807
20460SOL     OW67216   7.328   5.008  11.503 -0.7155  0.0953  0.4877
20460SOL    HW167217   7.285   5.059  11.434  0.8133  0.6677 -0.0664
20460SOL    HW267218   7.299   4.918  11.488 -0.6495  0.2649 -0.6976
20461SOL     OW67219  11.875   8.435   5.376 -0.4936  0.0207  0.2115
20461SOL    HW167220  11.834   8.498   5.317 -0.3958  0.5955  0.7518
20461SOL    HW267221  11.961   8.472   5.395 -1.3707  1.0743  2.5813
20462SOL     OW67222   8.441  10.704   9.437 -0.2918  0.4133 -0.0039
20462SOL    HW167223   8.401  10.700   9.350 -1.4130  1.7773  0.4144
20462SOL    HW267224   8.535  10.702   9.421 -0.4764 -0.6377 -1.1518
20463SOL     OW67225   8.683   4.996   5.460 -0.0204  0.1177  0.0807
20463SOL    HW167226   8.651   4.908   5.477 -1.8671  0.9426  1.0731
20463SOL    HW267227   8.728   4.988   5.375  0.0783 -1.7942  0.2541
20464SOL     OW67228   2.420   7.768   3.292  0.1793  0.1140 -0.5755
20464SOL    HW167229   2.448   7.837   3.232 -2.0291 -0.0421 -1.8972
20464SOL    HW267230   2.464   7.689   3.261  1.1656  0.5299 -0.2779
20465SOL     OW67231   0.124   1.968   4.207  0.1237 -0.0644 -0.8023
20465SOL    HW167232   0.195   1.947   4.267 -0.0105 -0.5584 -0.8151
20465SOL    HW267233   0.078   2.040   4.250 -0.4332 -0.9155  0.0707
20466SOL     OW67234  10.313   1.057   2.060  0.4032  0.3709  0.3226
20466SOL    HW167235  10.290   0.977   2.012 -0.2588 -0.9165  2.6317
20466SOL    HW267236  10.391   1.090   2.016  1.9555 -2.7339  0.5124
20467SOL     OW67237   3.548  11.741   7.672 -0.0356  0.1936 -0.3282
20467SOL    HW167238   3.511  11.757   7.585 -0.6504  0.6598  0.0158
20467SOL    HW267239   3.632  11.787   7.671  0.3250 -0.4481 -0.9342
20468SOL     OW67240  11.545   2.167   3.747 -0.3142  0.0388 -0.9102
20468SOL    HW167241  11.538   2.158   3.652  0.6447  0.8958 -1.0797
20468SOL    HW267242  11.524   2.259   3.764 -2.1952 -0.5046 -0.0881
20469SOL     OW67243   5.059   4.466   8.536 -0.5504  0.2204  0.2882
20469SOL    HW167244   5.111   4.545   8.519  0.7134 -0.8085 -0.8309
20469SOL    HW267245   5.039   4.430   8.450  0.3894 -1.6001  0.7669
20470SOL     OW67246  10.565  10.050   4.716  0.1716  0.0817  0.3560
20470SOL    HW167247  10.550  10.114   4.646  0.9231  1.4320  1.3976
20470SOL    HW267248  10.558   9.965   4.672 -2.7199  0.7622 -0.7244
20471SOL     OW67249   1.264   7.857   2.763 -0.2037 -0.5210  0.8483
20471SOL    HW167250   1.270   7.810   2.680  0.2151  1.5273 -0.3568
20471SOL    HW267251   1.311   7.802   2.826  0.0863 -1.7733 -0.4285
20472SOL     OW67252   2.089   7.384  10.505 -0.8492  0.5448  0.4040
20472SOL    HW167253   2.081   7.457  10.565 -0.8817  0.5184  0.4322
20472SOL    HW267254   2.155   7.411  10.441 -0.0098  0.1345  1.0859
20473SOL     OW67255  11.704   3.999   2.143 -0.2666  0.7081  0.3901
20473SOL    HW167256  11.763   3.925   2.131  0.1809  1.3306 -1.5207
20473SOL    HW267257  11.761   4.076   2.140 -0.8939  1.2071  0.9427
20474SOL     OW67258   3.551   0.842   0.402  0.3380 -0.3907  0.2747
20474SOL    HW167259   3.643   0.867   0.408  0.2721 -0.3313  1.1750
20474SOL    HW267260   3.552   0.746   0.409  0.3561 -0.4147 -0.0543
20475SOL     OW67261   9.966   7.737   3.897 -0.2502  0.0433  0.3621
20475SOL    HW167262   9.895   7.792   3.930  0.4205  1.4213 -0.3903
20475SOL    HW267263   9.990   7.777   3.813 -1.2002 -2.7091 -1.3381
20476SOL     OW67264   4.488   3.384   2.699  0.3994 -0.1523  0.1943
20476SOL    HW167265   4.501   3.478   2.708  2.5185 -0.3512 -0.4119
20476SOL    HW267266   4.563   3.345   2.743 -0.3603 -1.5746  0.2857
20477SOL     OW67267   0.093  11.855  10.467  0.2115 -0.4346 -0.6705
20477SOL    HW167268   0.062  11.941  10.440  0.1355 -0.1326  0.3467
20477SOL    HW267269   0.178  11.846  10.424  0.4171  0.3296 -0.4426
20478SOL     OW67270   3.942  11.830   9.649 -0.2955  0.3243 -0.0619
20478SOL    HW167271   3.977  11.790   9.569 -3.0491 -2.2047 -0.1568
20478SOL    HW267272   3.851  11.852   9.627 -1.1843 -0.5940  2.3708
20479SOL     OW67273  10.746  11.465  11.044  0.5987  0.0252 -0.0989
20479SOL    HW167274  10.840  11.471  11.025  0.5499 -2.2314 -1.5466
20479SOL    HW267275  10.741  11.426  11.131  1.0495 -0.5749 -0.3340
20480SOL     OW67276   9.335  11.739   6.542  0.5205  0.5326  0.1193
20480SOL    HW167277   9.380  11.773   6.464  0.2358 -0.2632 -0.3987
20480SOL    HW267278   9.396  11.755   6.614  1.5443 -0.3439 -0.5421
20481SOL     OW67279  10.653   7.949   7.023 -0.2878  0.0102  0.4674
20481SOL    HW167280  10.568   7.990   7.039 -1.0781 -0.9070 -1.1719
20481SOL    HW267281  10.701   8.013   6.971 -0.5068 -0.0367  0.2036
20482SOL     OW67282   5.906   9.058   3.973 -0.0491 -0.5980 -0.4963
20482SOL    HW167283   5.955   9.026   3.898  0.5940  0.9928 -0.8018
20482SOL    HW267284   5.968   9.054   4.046 -0.6591 -2.1010 -0.0206
20483SOL     OW67285   7.114   0.005   1.746 -0.5773 -0.7177  0.0797
20483SOL    HW167286   7.099  -0.051   1.670  1.4484 -1.4735  0.1620
20483SOL    HW267287   7.146  -0.055   1.814  0.8274  0.3980  0.4427
20484SOL     OW67288   6.395   7.005  12.070 -0.3876  0.0932  0.5838
20484SOL    HW167289   6.389   7.084  12.125  0.1394 -1.3264  2.8278
20484SOL    HW267290   6.471   6.958  12.104 -0.9599 -1.6042 -0.3715
20485SOL     OW67291   9.277   7.731   7.273 -0.1536  0.2581  0.2838
20485SOL    HW167292   9.263   7.669   7.344 -0.5402 -0.2048 -0.1955
20485SOL    HW267293   9.192   7.773   7.260  0.4800  2.1473  1.7489
20486SOL     OW67294   3.239   6.852  11.590  0.4369  0.0511 -0.2714
20486SOL    HW167295   3.243   6.756  11.587 -0.6660 -0.0079 -0.0767
20486SOL    HW267296   3.150   6.873  11.564  0.3113  0.9690  0.8545
20487SOL     OW67297  10.003   3.232   0.789  0.1898 -0.2100 -0.0123
20487SOL    HW167298  10.038   3.173   0.857  1.2551 -0.2044 -0.5218
20487SOL    HW267299  10.048   3.315   0.804 -0.8893  0.3155  0.3540
20488SOL     OW67300   9.724   0.315  11.901 -0.1839 -0.1620  0.4978
20488SOL    HW167301   9.781   0.389  11.923 -0.8050  0.2657  0.7177
20488SOL    HW267302   9.641   0.336  11.944 -0.4098 -0.9214  0.4357
20489SOL     OW67303   3.228   3.248   9.954 -0.1065  0.2461  0.0116
20489SOL    HW167304   3.135   3.231   9.939  0.0054  1.0907 -1.7493
20489SOL    HW267305   3.241   3.222  10.046 -1.7135 -1.3701 -0.1390
20490SOL     OW67306   9.038   2.322   8.065 -0.4227  0.3768  0.0001
20490SOL    HW167307   8.964   2.348   8.119 -0.4055  0.6976 -0.1317
20490SOL    HW267308   9.001   2.262   8.001 -0.6549  0.8902 -0.3547
20491SOL     OW67309  11.426   9.968   7.262  0.0646  0.1071  0.4107
20491SOL    HW167310  11.436   9.945   7.355 -2.1830 -2.6155  0.1118
20491SOL    HW267311  11.409   9.884   7.219  0.6994  1.3481 -2.4576
20492SOL     OW67312   1.240   5.862   8.631  0.0763 -0.2151 -0.1098
20492SOL    HW167313   1.203   5.911   8.558 -0.4622  0.1746  0.4165
20492SOL    HW267314   1.333   5.853   8.609  0.0024  0.2657 -0.6373
20493SOL     OW67315  10.899  11.043   3.997 -0.2551  0.3385 -0.5271
20493SOL    HW167316  10.975  11.052   4.055  0.1872 -0.8426 -0.9075
20493SOL    HW267317  10.847  10.973   4.036 -0.4366  0.1759 -1.0521
20494SOL     OW67318  10.995   5.583   3.402 -0.1978 -0.6126  0.8433
20494SOL    HW167319  11.078   5.557   3.442 -1.0205 -1.5091  2.0558
20494SOL    HW267320  10.999   5.678   3.397 -0.1045 -0.4269  3.3109
20495SOL     OW67321   7.091  10.658   4.734 -0.4399 -0.2801 -0.1670
20495SOL    HW167322   7.025  10.590   4.748 -1.5257  0.5166 -1.2044
20495SOL    HW267323   7.050  10.738   4.766  1.5918 -0.3140  3.0202
20496SOL     OW67324   8.892  11.740   9.811  0.6731  0.5648 -0.3360
20496SOL    HW167325   8.959  11.784   9.758 -0.2143  0.1491 -1.8526
20496SOL    HW267326   8.833  11.811   9.837 -0.2706  0.4630 -2.0431
20497SOL     OW67327   4.287   1.650   2.019 -0.5929  0.4366 -0.5559
20497SOL    HW167328   4.250   1.656   1.931 -2.7059  0.1934  0.2552
20497SOL    HW267329   4.318   1.559   2.026  0.0526  0.5977 -1.1973
20498SOL     OW67330   3.008   5.033   7.576  0.0743  0.2325  0.0100
20498SOL    HW167331   3.100   5.019   7.598  0.4883  3.1991  0.6991
20498SOL    HW267332   3.010   5.090   7.499 -1.1039  1.4728  0.8367
20499SOL     OW67333   7.250   5.457   2.779  0.1333 -0.4958 -0.6932
20499SOL    HW167334   7.293   5.537   2.749 -0.7193  0.0986 -0.3752
20499SOL    HW267335   7.213   5.481   2.864  1.6668 -1.8609  0.4255
20500SOL     OW67336   7.185   8.893   7.957  0.6358 -0.7473  0.1588
20500SOL    HW167337   7.263   8.913   8.010  1.0484 -1.0465 -0.3296
20500SOL    HW267338   7.112   8.927   8.009  1.1779  0.5062  0.1360
20501SOL     OW67339   1.228   8.315   3.848 -0.4574 -0.2448 -0.2455
20501SOL    HW167340   1.304   8.372   3.833  0.1045 -1.0908 -0.6770
20501SOL    HW267341   1.168   8.337   3.777  0.2477 -0.9778 -1.0990
20502SOL     OW67342   9.786   4.509   1.663 -0.5608 -0.0967  0.7095
20502SOL    HW167343   9.825   4.426   1.638 -0.2518  0.1660  0.3073
20502SOL    HW267344   9.731   4.534   1.588  1.6968  1.5347 -0.5214
20503SOL     OW67345   4.905   5.455   7.835  0.1992 -0.4985  0.0408
20503SOL    HW167346   4.916   5.423   7.746 -1.7550 -0.7013 -0.1765
20503SOL    HW267347   4.893   5.550   7.826 -0.6971 -0.6069 -0.0064
20504SOL     OW67348   9.189   5.067   3.265  0.0517 -0.3182  0.6097
20504SOL    HW167349   9.118   5.009   3.238 -1.2567  0.8046  1.4869
20504SOL    HW267350   9.192   5.059   3.360  1.5920 -0.8564  0.5406
20505SOL     OW67351   8.329   9.820   7.119  0.2014  0.0920  0.7897
20505SOL    HW167352   8.314   9.908   7.085  0.6700 -0.3379 -0.6060
20505SOL    HW267353   8.424   9.812   7.125  0.1487 -0.1491  1.3956
20506SOL     OW67354  11.536  10.489   3.788 -0.3184  0.0340  0.4172
20506SOL    HW167355  11.501  10.426   3.725 -0.3406  2.0553 -1.7496
20506SOL    HW267356  11.554  10.568   3.735  1.5839  1.1820  2.5861
20507SOL     OW67357   5.596  11.579   9.745  0.1982 -0.1016 -0.1586
20507SOL    HW167358   5.655  11.578   9.820 -0.8562 -0.0005  0.7013
20507SOL    HW267359   5.512  11.610   9.780 -0.5538 -0.8699 -1.1898
20508SOL     OW67360   6.488   1.273   1.730  0.2839  0.2698 -0.3407
20508SOL    HW167361   6.429   1.339   1.692  1.2318  0.0206 -2.3875
20508SOL    HW267362   6.540   1.321   1.794 -1.2078  0.7801  0.5330
20509SOL     OW67363  10.093  11.900   2.312  0.0016 -0.1357  0.2016
20509SOL    HW167364  10.067  11.875   2.401 -1.0428  0.5527  0.1054
20509SOL    HW267365  10.012  11.898   2.262  0.3194  0.9754 -0.3879
20510SOL     OW67366   8.717  10.670  11.160  0.6901 -0.1437 -0.1171
20510SOL    HW167367   8.712  10.676  11.065  1.9512  0.9482 -0.1353
20510SOL    HW267368   8.635  10.709  11.192 -0.4322 -1.8729 -0.7517
20511SOL     OW67369   4.522   7.581  10.220  0.2916  0.0758 -0.3510
20511SOL    HW167370   4.553   7.646  10.156  2.5323 -1.6516 -1.1524
20511SOL    HW267371   4.590   7.514  10.221 -0.8022 -1.1290  2.1861
20512SOL     OW67372   0.015   9.274   1.440  0.1199 -0.8022 -0.2792
20512SOL    HW167373   0.010   9.289   1.346  1.5198 -3.2707 -0.8329
20512SOL    HW267374  -0.054   9.209   1.457 -0.0834 -0.4182  0.3980
20513SOL     OW67375  12.177   8.087   6.734  0.5841  0.5608 -0.2916
20513SOL    HW167376  12.139   8.081   6.822 -1.7922 -1.9544 -1.3285
20513SOL    HW267377  12.193   8.180   6.721 -1.4874  1.3186  1.8410
20514SOL     OW67378   9.166   7.154   0.313  0.0348 -0.0175  0.4012
20514SOL    HW167379   9.087   7.139   0.260  0.0409 -0.3236  0.4750
20514SOL    HW267380   9.228   7.193   0.252  0.3031 -1.0754 -0.0298
20515SOL     OW67381   0.718   0.326   5.883 -0.4434 -0.2013 -0.1718
20515SOL    HW167382   0.733   0.398   5.821  0.4972  1.0238  1.3799
20515SOL    HW267383   0.669   0.367   5.955  0.1034 -1.0952  0.7369
20516SOL     OW67384   2.323   5.672  11.568 -0.4083  0.4563 -0.1913
20516SOL    HW167385   2.243   5.712  11.602 -0.5574  0.2038 -0.2365
20516SOL    HW267386   2.379   5.662  11.645 -1.1831 -1.1506  0.2265
20517SOL     OW67387   9.103   0.179   4.975 -0.4294 -0.4269 -0.0653
20517SOL    HW167388   9.080   0.271   4.990  1.5859 -0.1270  1.7573
20517SOL    HW267389   9.132   0.176   4.884 -2.6334  0.2206 -0.8347
20518SOL     OW67390   3.239   5.244   4.397  0.2189  0.7392 -0.3896
20518SOL    HW167391   3.197   5.328   4.376 -1.2530  0.5697  1.5730
20518SOL    HW267392   3.288   5.261   4.477 -0.5903 -0.3865  0.3745
20519SOL     OW67393   5.618  12.139   1.559 -0.7293 -0.2021  0.2439
20519SOL    HW167394   5.656  12.221   1.527  1.9537 -1.7564 -0.8693
20519SOL    HW267395   5.548  12.120   1.497 -1.3544  1.1775  0.4819
20520SOL     OW67396   7.929  10.130   9.541 -0.0113  0.0088 -0.2700
20520SOL    HW167397   7.840  10.109   9.513  0.5943 -1.3771 -1.2389
20520SOL    HW267398   7.942  10.079   9.620 -0.0230  0.1073 -0.2041
20521SOL     OW67399  10.389   6.746  11.516 -0.2485 -0.2520 -0.0062
20521SOL    HW167400  10.469   6.748  11.462  0.4642  0.8569  1.0282
20521SOL    HW267401  10.364   6.838  11.525 -1.1141 -0.5213  0.4607
20522SOL     OW67402   9.290   3.509   7.941 -0.6741 -0.0588  0.3546
20522SOL    HW167403   9.258   3.493   8.030  0.1916  0.0736  0.7063
20522SOL    HW267404   9.298   3.422   7.902 -2.5064 -0.0363 -0.1393
20523SOL     OW67405   0.806   8.552  10.578  0.2749 -0.3827  0.1204
20523SOL    HW167406   0.838   8.628  10.626 -0.8284 -0.8551  1.6964
20523SOL    HW267407   0.845   8.477  10.623  1.0468 -0.7927 -1.1753
20524SOL     OW67408   0.829  12.136   6.930  0.5265  0.5388 -0.1037
20524SOL    HW167409   0.874  12.212   6.894 -0.0088  0.3190 -1.2910
20524SOL    HW267410   0.781  12.099   6.856  0.6179 -0.8503  0.4959
20525SOL     OW67411   5.454   7.149   0.634  0.0497  0.0476 -0.1074
20525SOL    HW167412   5.368   7.139   0.675 -1.3195  1.4015 -2.4065
20525SOL    HW267413   5.468   7.067   0.586 -1.1645  0.7243 -1.7007
20526SOL     OW67414   1.779   2.609   0.855 -0.1134 -0.6921 -0.4184
20526SOL    HW167415   1.833   2.530   0.861  1.6669  0.5729  2.1206
20526SOL    HW267416   1.703   2.591   0.910 -1.2130 -1.6165 -2.1482
20527SOL     OW67417   0.696  11.941  10.580 -0.9478  0.4720 -0.3353
20527SOL    HW167418   0.732  12.029  10.592 -2.9329  1.5948 -1.8667
20527SOL    HW267419   0.764  11.882  10.613  1.1931  2.4943 -0.8547
20528SOL     OW67420   1.971   5.750   0.716  0.3911 -0.0013  0.2567
20528SOL    HW167421   1.903   5.699   0.761 -0.4302 -3.1532 -3.8814
20528SOL    HW267422   2.041   5.687   0.701  0.7034  0.8592 -2.4236
20529SOL     OW67423   2.875   9.599   5.410  0.3429  0.2597  0.4522
20529SOL    HW167424   2.877   9.675   5.353  0.7554 -0.5113 -0.5940
20529SOL    HW267425   2.857   9.634   5.497  2.9585  1.8204  0.4683
20530SOL     OW67426   9.397   7.323   3.825 -0.7193 -0.4133  0.0758
20530SOL    HW167427   9.420   7.378   3.750  1.0476 -0.2877  0.6805
20530SOL    HW267428   9.374   7.384   3.894 -0.9157 -0.4932  0.0815
20531SOL     OW67429  11.289   6.812   7.710  0.2238 -0.1491  0.4058
20531SOL    HW167430  11.279   6.907   7.701 -2.5786 -0.4563 -0.8583
20531SOL    HW267431  11.333   6.784   7.630 -2.2332 -0.2067 -1.0296
20532SOL     OW67432   4.850  10.454   4.320  0.4108  0.5574  0.3603
20532SOL    HW167433   4.800  10.512   4.262 -0.2705 -2.8243 -2.7198
20532SOL    HW267434   4.910  10.407   4.263  0.6639 -2.0915  2.5848
20533SOL     OW67435   8.329  11.367   9.036 -0.6201 -0.6569 -0.1799
20533SOL    HW167436   8.407  11.329   8.997 -1.0356 -2.7817  0.9188
20533SOL    HW267437   8.339  11.352   9.130 -1.0173  1.6909  0.3044
20534SOL     OW67438   0.026   4.905  11.865  0.0171 -0.0756 -0.4332
20534SOL    HW167439  -0.037   4.834  11.874  0.7584 -0.7476 -0.4594
20534SOL    HW267440   0.073   4.907  11.948 -0.2725  0.6592 -0.2780
20535SOL     OW67441   5.513   4.499  10.711  0.0031 -0.0595  0.7355
20535SOL    HW167442   5.555   4.413  10.707  3.0007  1.3054 -2.3481
20535SOL    HW267443   5.455   4.501  10.635  1.1069  1.0911 -0.1130
20536SOL     OW67444  10.404  11.355   9.787 -0.1086  0.7520 -0.0096
20536SOL    HW167445  10.325  11.398   9.752 -0.7724  0.2765  0.8764
20536SOL    HW267446  10.397  11.366   9.882  1.5223  1.7597  0.0265
20537SOL     OW67447   7.881   7.875   9.626  0.6016  0.0671  0.1560
20537SOL    HW167448   7.808   7.937   9.615  1.6338  1.7170  1.9531
20537SOL    HW267449   7.959   7.927   9.607  1.4653 -0.8568  1.0844
20538SOL     OW67450   9.269   9.209   6.594 -0.1084  0.2730 -0.5677
20538SOL    HW167451   9.199   9.268   6.566  1.1590  1.6765 -0.8870
20538SOL    HW267452   9.223   9.130   6.624 -1.8094  1.1173 -0.8318
20539SOL     OW67453  10.792   2.384   8.005  0.2091  0.1058 -0.1703
20539SOL    HW167454  10.847   2.307   8.015  1.7712  1.1485 -0.3850
20539SOL    HW267455  10.708   2.359   8.044 -0.1985 -2.5502 -2.4412
20540SOL     OW67456   2.257   3.908   0.060  0.1317 -0.1725  0.2350
20540SOL    HW167457   2.267   3.869   0.146 -1.1730  0.7272  0.8276
20540SOL    HW267458   2.174   3.872   0.027 -0.1059  0.5722 -0.0151
20541SOL     OW67459   7.315  10.389   7.019 -0.4976  0.3471 -0.2119
20541SOL    HW167460   7.323  10.346   6.934  0.3790 -1.0661  0.5364
20541SOL    HW267461   7.224  10.373   7.045 -0.1375 -1.3780  0.1584
20542SOL     OW67462  11.136   0.964  11.057  0.0358 -0.1279  0.2542
20542SOL    HW167463  11.153   1.041  11.004 -0.7938 -0.3670 -0.3858
20542SOL    HW267464  11.201   0.968  11.127 -0.5116  1.5868  0.7173
20543SOL     OW67465   4.061  11.213   7.557  0.2680  0.0467  0.5026
20543SOL    HW167466   4.095  11.242   7.472  1.9878  0.9560  1.4571
20543SOL    HW267467   4.065  11.117   7.553  1.5916  0.0990  0.0130
20544SOL     OW67468   8.037  12.289  10.684  0.2222  0.4297  0.0898
20544SOL    HW167469   8.005  12.292  10.774  2.8319  1.3074  1.0864
20544SOL    HW267470   8.098  12.363  10.678 -0.6931  1.0831 -2.7754
20545SOL     OW67471   3.064   1.163   7.621 -0.4354 -0.0711 -0.3560
20545SOL    HW167472   3.049   1.257   7.605 -1.9345 -0.3186 -0.4812
20545SOL    HW267473   2.980   1.130   7.653  0.3201 -1.2100  0.5093
20546SOL     OW67474   5.506   1.069   9.282 -0.9765  0.8619 -0.2409
20546SOL    HW167475   5.558   1.146   9.302  2.1964 -1.0684 -0.4419
20546SOL    HW267476   5.549   0.998   9.328 -3.0394 -1.0377 -1.0535
20547SOL     OW67477  11.560  11.823   8.700 -0.1607  0.1493 -0.0057
20547SOL    HW167478  11.554  11.856   8.790  1.0293 -2.1436  0.9859
20547SOL    HW267479  11.471  11.798   8.677 -0.4608  0.6778  0.5597
20548SOL     OW67480   9.770   0.288   9.976 -0.1035  0.0128  0.1086
20548SOL    HW167481   9.817   0.354   9.925 -0.7440  0.3544 -0.0610
20548SOL    HW267482   9.698   0.260   9.918 -0.2924 -0.2669  0.4755
20549SOL     OW67483   8.128   2.041  11.275 -0.2183 -0.4671 -0.3872
20549SOL    HW167484   8.137   2.063  11.182 -2.1170 -1.7837 -0.9321
20549SOL    HW267485   8.118   2.126  11.318  3.7923  0.4706 -0.8504
20550SOL     OW67486   1.058   2.399   1.217  0.6879  0.0536 -0.4262
20550SOL    HW167487   1.110   2.407   1.296  1.8759 -0.9372 -1.0770
20550SOL    HW267488   0.977   2.356   1.245  1.3606 -0.8645  0.1457
20551SOL     OW67489   0.036  12.089   6.523  0.2486 -0.2879 -0.5744
20551SOL    HW167490   0.048  12.167   6.469  0.2786 -0.9101 -1.4966
20551SOL    HW267491   0.054  12.016   6.464  2.7454 -0.9890  0.8852
20552SOL     OW67492   0.662   8.370   5.368 -0.3670 -0.6497  0.2302
20552SOL    HW167493   0.722   8.434   5.328 -0.8666  0.6312  1.4186
20552SOL    HW267494   0.712   8.289   5.370  1.8242  0.6243  2.1905
20553SOL     OW67495   5.791   4.658   9.379  0.2028  0.0147  0.2393
20553SOL    HW167496   5.766   4.575   9.338  1.0499 -0.2934  0.3322
20553SOL    HW267497   5.813   4.715   9.306 -0.2701  0.1296  0.1811
20554SOL     OW67498   1.806  12.207   4.069 -0.2080  0.5233 -0.2551
20554SOL    HW167499   1.881  12.191   4.012 -1.2620  0.5376 -1.7013
20554SOL    HW267500   1.807  12.301   4.085  0.2732  0.4734  0.0385
20555SOL     OW67501   8.110   0.105   5.332  0.3398  0.0406 -0.3648
20555SOL    HW167502   8.016   0.105   5.345  0.5413  0.1280  1.3856
20555SOL    HW267503   8.129   0.190   5.293 -0.5520 -1.0352 -3.4493
20556SOL     OW67504   4.012   0.364   4.595  0.1901 -0.1119  0.0451
20556SOL    HW167505   3.922   0.342   4.572 -0.0239  0.4551  0.3232
20556SOL    HW267506   4.059   0.281   4.590 -0.2696 -0.3470 -0.4627
20557SOL     OW67507   9.246   9.864  10.676  0.1780  0.6518 -0.5167
20557SOL    HW167508   9.307   9.836  10.744  0.8167 -0.7021 -1.5944
20557SOL    HW267509   9.195   9.786  10.655 -0.4562  1.2134 -1.1360
20558SOL     OW67510   5.735  10.789   5.890 -0.5666  0.4017  0.3538
20558SOL    HW167511   5.751  10.820   5.801 -0.8536 -0.5761 -0.0515
20558SOL    HW267512   5.736  10.868   5.944 -2.8568  1.3309 -0.8394
20559SOL     OW67513   7.469   1.266  11.476  0.7246  0.1200 -0.4733
20559SOL    HW167514   7.539   1.239  11.418  0.7501  3.1517 -2.0873
20559SOL    HW267515   7.389   1.241  11.431  0.7605 -0.2804 -0.3135
20560SOL     OW67516   0.488   4.855   5.281 -0.3801  0.3395 -0.3891
20560SOL    HW167517   0.515   4.764   5.269 -1.7129 -0.0507 -0.6780
20560SOL    HW267518   0.428   4.872   5.208 -0.8096  1.1756  0.1371
20561SOL     OW67519   1.664   6.693   0.351  0.0872  0.0752  0.0368
20561SOL    HW167520   1.712   6.764   0.307 -1.0949  0.4773 -0.6378
20561SOL    HW267521   1.725   6.661   0.417  0.3835  2.2905  0.9403
20562SOL     OW67522   9.170  11.662   5.256  0.3716  0.7271  0.2632
20562SOL    HW167523   9.154  11.748   5.218 -0.0352  0.8471  0.6836
20562SOL    HW267524   9.238  11.623   5.201  0.1325  1.0766 -0.2879
20563SOL     OW67525   1.285   7.297   4.976 -0.5006 -0.3638 -0.5477
20563SOL    HW167526   1.239   7.323   5.056 -1.2921 -0.2502 -1.0310
20563SOL    HW267527   1.217   7.261   4.920 -0.4379  1.9675 -2.2247
20564SOL     OW67528   8.288   9.804   0.674  0.0706 -0.4584 -0.4153
20564SOL    HW167529   8.198   9.837   0.672 -0.2470 -1.2439  0.5428
20564SOL    HW267530   8.332   9.852   0.604 -1.3447 -0.8206 -1.5913
20565SOL     OW67531   3.912   5.250   3.716 -0.0728  0.1756 -0.5422
20565SOL    HW167532   3.870   5.194   3.650 -0.2795  1.9947 -2.0609
20565SOL    HW267533   4.006   5.236   3.703 -0.1233  0.1825 -0.9320
20566SOL     OW67534   9.703   3.776   7.942 -0.3401 -0.4730 -0.0778
20566SOL    HW167535   9.704   3.688   7.980  1.2990 -0.2524  0.4429
20566SOL    HW267536   9.624   3.777   7.887 -0.8443 -1.9742  0.5624
20567SOL     OW67537   8.463   1.008   2.937  0.1314  0.2789 -0.6688
20567SOL    HW167538   8.462   1.063   2.858  0.7156  0.3500 -0.6295
20567SOL    HW267539   8.553   0.974   2.942  0.0719  0.1939 -0.0894
20568SOL     OW67540   0.386  11.666   4.662 -0.0811 -0.0027 -0.3964
20568SOL    HW167541   0.474  11.705   4.652 -0.7025  1.1867 -1.6674
20568SOL    HW267542   0.327  11.736   4.633 -1.6472  0.1788  2.8659
20569SOL     OW67543   3.715   7.375  11.218 -0.0612  0.2050  0.3879
20569SOL    HW167544   3.655   7.322  11.271  0.2982 -0.3053  0.2987
20569SOL    HW267545   3.664   7.397  11.140 -0.1486 -0.1952  0.3296
20570SOL     OW67546  10.033  11.124   2.329 -0.1938 -0.0825 -0.5957
20570SOL    HW167547   9.958  11.084   2.285  0.6769 -3.5493  0.7079
20570SOL    HW267548  10.047  11.206   2.282 -3.0212 -0.6203 -2.6956
20571SOL     OW67549  11.476   4.333   0.537 -0.1526  0.1837 -0.1459
20571SOL    HW167550  11.481   4.279   0.616 -2.0110 -0.2941 -0.3201
20571SOL    HW267551  11.406   4.293   0.485  0.0634  1.3546 -1.3868
20572SOL     OW67552   0.525   7.472  10.118 -0.1497 -0.3846  0.7176
20572SOL    HW167553   0.608   7.502  10.081 -1.2685  0.7671 -0.9842
20572SOL    HW267554   0.461   7.486  10.048 -1.5724 -2.5092  1.4980
20573SOL     OW67555   4.711   6.701  10.825 -0.2718  0.1963 -0.9741
20573SOL    HW167556   4.670   6.622  10.860  0.0330  0.5258  0.1355
20573SOL    HW267557   4.638   6.762  10.813 -0.0398  1.1627  2.0041
20574SOL     OW67558   0.053  11.202   0.684  0.3624 -0.6507  0.0094
20574SOL    HW167559  -0.002  11.127   0.659 -0.1428 -0.0269 -0.8114
20574SOL    HW267560   0.138  11.163   0.704  0.1413 -1.4363 -0.5174
20575SOL     OW67561   0.360   4.188   9.770 -0.2181  0.5803  0.3687
20575SOL    HW167562   0.441   4.225   9.806 -1.5111  2.6196  1.3577
20575SOL    HW267563   0.323   4.136   9.842  0.2659 -0.5056 -0.1441
20576SOL     OW67564   4.241   8.490   7.298 -0.4853 -0.4906 -0.2379
20576SOL    HW167565   4.216   8.526   7.384  1.5382  0.1716  0.1346
20576SOL    HW267566   4.219   8.559   7.236 -1.9069 -0.9473 -0.2595
20577SOL     OW67567   3.859  11.551   7.972  0.0662 -0.7488 -0.0548
20577SOL    HW167568   3.910  11.540   7.892  0.5708 -1.2983  0.3385
20577SOL    HW267569   3.859  11.646   7.988  0.6134 -0.7103 -0.2826
20578SOL     OW67570   5.505   4.478   4.418  0.2076 -0.1283 -0.1366
20578SOL    HW167571   5.443   4.552   4.414 -0.4023 -0.6873 -2.1452
20578SOL    HW267572   5.541   4.483   4.506  0.4136  2.7603 -0.2634
20579SOL     OW67573   1.977   2.892   5.033  0.0791  0.3260 -0.5661
20579SOL    HW167574   1.943   2.823   5.090  0.3390  0.7769  0.1413
20579SOL    HW267575   1.920   2.967   5.049  0.2555  0.5045 -0.7741
20580SOL     OW67576  10.906   9.499   2.248 -0.1666  0.2207  0.1044
20580SOL    HW167577  10.953   9.442   2.309  0.5773 -0.7588 -1.3249
20580SOL    HW267578  10.880   9.442   2.177 -1.9462  1.1336 -0.0392
20581SOL     OW67579   8.540   3.733  10.825 -0.1755  0.1858  0.6323
20581SOL    HW167580   8.502   3.821  10.823 -0.1560  0.3010  3.0073
20581SOL    HW267581   8.466   3.675  10.809 -0.3464  0.5921 -0.0854
20582SOL     OW67582   4.531   2.966   4.998 -0.5944  0.6510  0.3384
20582SOL    HW167583   4.450   2.973   4.948  0.4793 -2.7527 -2.2063
20582SOL    HW267584   4.600   2.971   4.932  1.1017 -0.3047  1.9536
20583SOL     OW67585  11.645   2.171   4.469 -0.5259 -0.3360  0.2029
20583SOL    HW167586  11.598   2.174   4.386  1.5542  2.3009 -1.0055
20583SOL    HW267587  11.731   2.136   4.447  0.2749  0.9732  1.0818
20584SOL     OW67588   8.025   4.175   3.546  0.1636 -0.1776  0.2479
20584SOL    HW167589   8.047   4.096   3.497 -0.2905  0.5942 -1.2843
20584SOL    HW267590   8.100   4.190   3.604  1.7904  0.0803 -1.8128
20585SOL     OW67591   9.515   6.265   3.217 -0.3858  0.2351  0.2895
20585SOL    HW167592   9.545   6.197   3.156 -0.3567 -0.6400  1.2674
20585SOL    HW267593   9.576   6.338   3.203  0.4051 -0.4314  0.1696
20586SOL     OW67594   2.111   8.578   0.598 -0.7931  0.2293  0.3600
20586SOL    HW167595   2.097   8.483   0.599  0.7781 -0.0850 -1.4157
20586SOL    HW267596   2.042   8.612   0.541 -0.9125  0.0627  0.4046
20587SOL     OW67597   0.417   1.977   0.568 -0.7628  0.3120  0.0137
20587SOL    HW167598   0.370   1.897   0.546 -2.3035  0.9646  0.7643
20587SOL    HW267599   0.503   1.947   0.598 -1.2013 -1.0307 -0.0159
20588SOL     OW67600   6.220   9.990   2.366 -0.2635 -0.3277  0.3821
20588SOL    HW167601   6.256  10.028   2.286 -0.5973  0.5462  0.6391
20588SOL    HW267602   6.291   9.995   2.430  0.3344 -1.9422 -0.1229
20589SOL     OW67603   7.738   7.400   4.555 -0.0574  0.0226 -0.0472
20589SOL    HW167604   7.829   7.426   4.544  0.2189 -0.6074  0.6802
20589SOL    HW267605   7.739   7.304   4.551 -1.0545  0.0327 -2.6963
20590SOL     OW67606   0.714   1.955   2.204 -0.1398 -0.1975 -0.2880
20590SOL    HW167607   0.640   1.965   2.265 -0.9307 -0.9815 -1.0834
20590SOL    HW267608   0.673   1.927   2.122  0.8216  1.4798 -1.3954
20591SOL     OW67609   2.505  10.944   9.607 -0.1618  0.0835 -0.2599
20591SOL    HW167610   2.544  11.028   9.583  2.0052 -1.0047 -0.7941
20591SOL    HW267611   2.521  10.887   9.532 -0.7112 -1.1016  0.4787
20592SOL     OW67612  11.784   4.552   3.389 -0.2045  0.2986 -0.3092
20592SOL    HW167613  11.714   4.606   3.425  0.2940  1.2048 -0.6587
20592SOL    HW267614  11.844   4.615   3.349  0.7331 -0.4720 -0.1392
20593SOL     OW67615  10.991   0.723   5.382  0.3862 -0.1762  0.0589
20593SOL    HW167616  10.909   0.705   5.337  0.2147  0.2215  0.2145
20593SOL    HW267617  11.046   0.764   5.315  0.1880  0.2647  0.1640
20594SOL     OW67618   6.869   2.017  11.659  0.6339 -0.1231  0.0602
20594SOL    HW167619   6.957   2.055  11.657 -0.3797  2.3864 -0.7095
20594SOL    HW267620   6.832   2.046  11.743  0.2066 -0.3585 -0.0451
20595SOL     OW67621   9.159   8.446   5.467  0.2290 -0.0487 -0.3669
20595SOL    HW167622   9.103   8.417   5.394 -1.5331  2.3669 -0.1127
20595SOL    HW267623   9.126   8.398   5.543 -3.7559  3.2702  0.3876
20596SOL     OW67624   1.456   3.805   8.189  0.0708 -0.0166  0.0369
20596SOL    HW167625   1.364   3.806   8.216  0.3590  0.2061  1.0905
20596SOL    HW267626   1.468   3.888   8.142  0.2906  1.1911  2.0639
20597SOL     OW67627   1.924   9.210   0.462  0.6700  0.2377 -0.0308
20597SOL    HW167628   1.997   9.233   0.519 -0.7046 -2.1937  2.9873
20597SOL    HW267629   1.866   9.286   0.467  1.1270  0.5526  0.8481
20598SOL     OW67630   0.122  11.355   7.264 -0.0058  0.1473 -0.0825
20598SOL    HW167631   0.048  11.415   7.256  1.0106  1.5504  0.7167
20598SOL    HW267632   0.084  11.276   7.305 -1.1412  0.6625 -0.1032
20599SOL     OW67633   0.035  11.078  10.339 -0.8788 -0.7737  0.5952
20599SOL    HW167634  -0.046  11.121  10.367 -0.5049 -0.1329  0.6895
20599SOL    HW267635   0.101  11.107  10.402 -0.4573 -0.8801  0.2024
20600SOL     OW67636   8.514   9.728   7.903 -0.1053  0.1053 -0.4143
20600SOL    HW167637   8.456   9.714   7.978 -1.1624  0.1790 -1.1852
20600SOL    HW267638   8.454   9.738   7.828  0.9446 -1.1394 -1.4666
20601SOL     OW67639   7.799   2.208   4.845 -0.2096  0.6222  0.0997
20601SOL    HW167640   7.781   2.130   4.793  0.8666  1.6725 -1.9978
20601SOL    HW267641   7.799   2.279   4.781 -0.6269  2.2672  1.8647
20602SOL     OW67642   4.678   3.236   7.247  0.2585  0.0590 -0.4727
20602SOL    HW167643   4.700   3.168   7.311 -0.6609  0.4715  0.3031
20602SOL    HW267644   4.758   3.247   7.195  0.7993 -0.7629  0.1621
20603SOL     OW67645   7.027   6.282   0.662 -0.3134 -0.3308  0.0502
20603SOL    HW167646   7.048   6.370   0.632  0.4068 -0.1261  1.0988
20603SOL    HW267647   7.111   6.245   0.689 -0.4407 -1.7041 -1.2400
20604SOL     OW67648  12.044   3.828   8.343  0.3566 -0.3299  0.1759
20604SOL    HW167649  12.090   3.867   8.269 -3.0369  0.0848 -1.9482
20604SOL    HW267650  12.044   3.896   8.410  0.4712  0.6811 -0.8134
20605SOL     OW67651   4.448   0.331   6.082 -0.4981 -0.5877  0.1846
20605SOL    HW167652   4.467   0.418   6.048  2.1785 -1.5071 -0.9279
20605SOL    HW267653   4.503   0.323   6.159 -2.1726 -0.6495  1.4163
20606SOL     OW67654   0.312   1.532  10.967 -0.3533 -0.8080 -0.2380
20606SOL    HW167655   0.316   1.627  10.956  0.7337 -0.8896 -0.6763
20606SOL    HW267656   0.398   1.508  11.003 -0.9605 -1.5210  0.8100
20607SOL     OW67657   2.462   7.977   8.926 -0.1808  1.1156 -0.1672
20607SOL    HW167658   2.395   7.950   8.864 -0.5518 -1.1312  1.1075
20607SOL    HW267659   2.414   8.015   9.000 -0.0082  0.3068  0.3698
20608SOL     OW67660   9.798   2.869   0.121 -0.0654  0.6737  0.4998
20608SOL    HW167661   9.822   2.866   0.028  0.8635 -1.9080  0.7567
20608SOL    HW267662   9.804   2.778   0.151  0.0486  1.4826  3.2129
20609SOL     OW67663   8.765  11.940   6.185 -0.2722  0.6707  0.4648
20609SOL    HW167664   8.702  11.977   6.124  0.8756  2.8179  0.4619
20609SOL    HW267665   8.843  11.924   6.133  0.1065  0.7196  1.0041
20610SOL     OW67666   2.431   2.683   1.112  0.2011  0.3514  0.3625
20610SOL    HW167667   2.524   2.702   1.106  0.0687  0.7766 -0.3637
20610SOL    HW267668   2.392   2.762   1.150  0.2027 -0.0412  1.2187
20611SOL     OW67669   7.521   8.874   3.836 -0.2927 -0.1511 -0.3796
20611SOL    HW167670   7.500   8.786   3.869 -0.2945  0.4914  1.4018
20611SOL    HW267671   7.454   8.930   3.874  0.0517  0.7200 -1.0378
20612SOL     OW67672   5.800   9.118   2.548  0.1310 -0.2267 -0.6847
20612SOL    HW167673   5.875   9.067   2.518 -1.0863 -1.1216 -2.4108
20612SOL    HW267674   5.725   9.059   2.538 -0.9535  1.0053 -0.1201
20613SOL     OW67675   5.275   0.169   8.200 -0.0713 -0.3489 -0.1156
20613SOL    HW167676   5.278   0.143   8.108 -1.5480 -2.5351  0.3722
20613SOL    HW267677   5.266   0.265   8.198 -0.0346 -0.3460 -2.2131
20614SOL     OW67678   0.634   7.559   9.369  0.0677  0.3323  0.4896
20614SOL    HW167679   0.680   7.475   9.370  2.9973  1.7184 -1.5389
20614SOL    HW267680   0.553   7.542   9.322  0.6924 -1.3128 -0.0738
20615SOL     OW67681   6.535  10.769   5.406  0.4600  0.4642 -0.1961
20615SOL    HW167682   6.443  10.795   5.416  0.2844 -0.8961  2.2901
20615SOL    HW267683   6.574  10.786   5.491  2.2150 -0.1900 -0.8339
20616SOL     OW67684   4.713  11.551   8.103  0.0359 -0.4591 -0.0907
20616SOL    HW167685   4.724  11.635   8.059 -0.8123 -0.3151 -0.0415
20616SOL    HW267686   4.768  11.491   8.053 -2.3236 -0.7257 -2.5874
20617SOL     OW67687   1.868   4.258   7.274 -0.3106  0.3300  0.6810
20617SOL    HW167688   1.893   4.246   7.183  2.0740  0.8467  1.2063
20617SOL    HW267689   1.833   4.173   7.301 -2.3403  0.5461 -1.0208
20618SOL     OW67690  11.082   9.190   6.606  0.3564  0.7817  0.1613
20618SOL    HW167691  11.136   9.268   6.615  0.0909  0.9492  0.3164
20618SOL    HW267692  10.994   9.223   6.592  0.4053  0.5072 -0.8207
20619SOL     OW67693   0.485   9.388   7.682  0.3909  0.3382 -0.1256
20619SOL    HW167694   0.548   9.318   7.663  0.3288  0.1173  0.4526
20619SOL    HW267695   0.438   9.358   7.760 -1.9338 -0.4899 -1.7481
20620SOL     OW67696   1.484  11.984   1.347  0.4446  0.0387  0.3243
20620SOL    HW167697   1.477  12.009   1.439  1.7484 -0.0155  0.4639
20620SOL    HW267698   1.524  11.897   1.348  0.8447  0.2055 -0.2968
20621SOL     OW67699   7.372   2.950   9.222  0.5164  0.0309 -0.7532
20621SOL    HW167700   7.306   2.916   9.162 -0.9764  1.6791 -0.1580
20621SOL    HW267701   7.422   3.013   9.171  0.8687 -0.3771 -0.9090
20622SOL     OW67702   8.761  10.382   2.021 -0.2933  0.4614  0.1664
20622SOL    HW167703   8.742  10.311   1.959  1.8523  0.0251 -0.0701
20622SOL    HW267704   8.787  10.337   2.101 -0.2222  0.9856  0.4395
20623SOL     OW67705   2.268   7.341   2.415  0.1766 -0.1549 -0.3005
20623SOL    HW167706   2.187   7.308   2.375 -0.4565 -0.1522  0.9353
20623SOL    HW267707   2.260   7.319   2.508  2.5695 -2.1335 -0.4297
20624SOL     OW67708   1.944   3.014   9.312 -0.2717 -0.0867  0.5375
20624SOL    HW167709   1.879   3.011   9.242 -1.2951 -0.0350  1.4568
20624SOL    HW267710   1.971   3.106   9.315 -0.7656  0.0613  0.6669
20625SOL     OW67711   6.765   0.794   4.822  0.9046 -0.1414 -0.3300
20625SOL    HW167712   6.846   0.827   4.862 -0.6114  0.7774  2.2134
20625SOL    HW267713   6.759   0.703   4.852  0.8146 -0.0981 -0.2169
20626SOL     OW67714   0.684   0.741   3.772 -0.3100  0.2176  0.1552
20626SOL    HW167715   0.638   0.659   3.789 -2.2072  1.1712 -0.1519
20626SOL    HW267716   0.732   0.725   3.691 -0.9389 -0.4764 -0.0915
20627SOL     OW67717   1.247   2.946  11.340  0.1578 -0.4156 -0.6682
20627SOL    HW167718   1.279   3.033  11.362 -2.5237  0.4795  0.1865
20627SOL    HW267719   1.200   2.957  11.257  0.6654 -1.2917 -1.0875
20628SOL     OW67720   0.222   0.839   9.889 -0.7942  0.3488  0.6334
20628SOL    HW167721   0.267   0.754   9.884 -1.4019  0.0794 -0.3611
20628SOL    HW267722   0.289   0.903   9.864 -0.2604  0.2062  1.6372
20629SOL     OW67723   5.958   6.775  11.274  0.8283  0.1013  0.2528
20629SOL    HW167724   5.962   6.857  11.225  2.1749 -0.2606 -0.3068
20629SOL    HW267725   6.012   6.791  11.352  0.0682  0.1396  0.7749
20630SOL     OW67726   2.328   4.881   3.063 -0.1845 -0.5606 -0.3369
20630SOL    HW167727   2.402   4.896   3.122 -0.0896 -2.2989  0.0303
20630SOL    HW267728   2.333   4.953   3.000  0.5025  0.5988  0.9649
20631SOL     OW67729  10.723  10.478   8.373  0.0670 -0.1137  0.0299
20631SOL    HW167730  10.757  10.449   8.288  0.7579  1.6474 -0.3423
20631SOL    HW267731  10.738  10.572   8.374  0.1523 -0.0972  2.1517
20632SOL     OW67732   7.591   2.634   7.607 -0.4432 -0.4584 -0.0732
20632SOL    HW167733   7.623   2.561   7.553 -0.5462 -0.3305 -0.3077
20632SOL    HW267734   7.561   2.592   7.688  0.2923 -0.5782  0.1378
20633SOL     OW67735   1.932   0.349   3.944 -0.1727 -0.5967 -0.3098
20633SOL    HW167736   1.932   0.304   4.029 -0.2632 -1.2755 -0.6613
20633SOL    HW267737   1.839   0.353   3.920 -0.0219 -1.9903 -1.1918
20634SOL     OW67738   5.653  11.952   6.950 -0.1550  0.1575  0.2266
20634SOL    HW167739   5.575  11.972   6.898 -0.6821 -2.4687 -0.1662
20634SOL    HW267740   5.711  12.027   6.937 -2.0607  1.5760 -0.5420
20635SOL     OW67741   0.208   1.885  10.482 -0.2850  0.1762 -0.1804
20635SOL    HW167742   0.267   1.836  10.539  1.1205  1.3050 -0.6071
20635SOL    HW267743   0.154   1.818  10.440 -0.7016 -0.7493  1.7193
20636SOL     OW67744  11.413   0.393   7.043 -0.3324 -0.5489  0.3464
20636SOL    HW167745  11.417   0.340   6.964  1.9729 -0.1619  0.1486
20636SOL    HW267746  11.466   0.346   7.107 -1.5674 -0.4887  1.4783
20637SOL     OW67747   9.538  12.226   5.069 -0.2204  0.0455  0.1076
20637SOL    HW167748   9.571  12.246   5.157 -0.5583 -1.3636  0.5834
20637SOL    HW267749   9.467  12.289   5.056 -0.0098  0.4291  0.7295
20638SOL     OW67750   8.196  10.136   1.027 -0.7477  0.4103 -0.2749
20638SOL    HW167751   8.248  10.060   1.003 -2.2276 -0.2689 -1.5389
20638SOL    HW267752   8.260  10.206   1.041  1.0078 -1.6985  4.2930
20639SOL     OW67753   2.644   1.382   7.869 -0.3130  0.1662  0.2787
20639SOL    HW167754   2.645   1.326   7.791  2.2670 -0.0396  0.3800
20639SOL    HW267755   2.579   1.341   7.927 -2.5736  0.5201 -1.7996
20640SOL     OW67756   9.103   3.568   8.839  0.1022 -0.5941 -0.1660
20640SOL    HW167757   9.164   3.535   8.774 -0.4048  0.0431 -0.9967
20640SOL    HW267758   9.149   3.561   8.922  1.4642  0.2485 -0.8179
20641SOL     OW67759   7.624   0.587   4.868  0.4724  0.0597  0.5272
20641SOL    HW167760   7.700   0.644   4.878  0.1997  0.4246  0.5497
20641SOL    HW267761   7.583   0.617   4.787  0.0074  0.2809  0.8384
20642SOL     OW67762   2.709   0.729   6.428  0.6101  0.1723 -0.3457
20642SOL    HW167763   2.702   0.634   6.441 -1.9297 -0.2399 -3.4828
20642SOL    HW267764   2.640   0.766   6.482  0.5935  0.0652 -0.2927
20643SOL     OW67765   0.866   7.274   4.337  0.1208 -0.2885 -0.1943
20643SOL    HW167766   0.882   7.300   4.427 -0.2985  0.5257 -0.3451
20643SOL    HW267767   0.947   7.298   4.291  1.3236 -2.9175  0.3716
20644SOL     OW67768  10.511   5.498   9.346  0.6614 -0.3548  0.2152
20644SOL    HW167769  10.549   5.555   9.413 -0.0955 -1.1144  1.3259
20644SOL    HW267770  10.494   5.557   9.272  0.1458  0.8263  1.2303
20645SOL     OW67771  11.255   7.776   2.678 -0.0211 -0.2550  0.0364
20645SOL    HW167772  11.181   7.827   2.647 -0.2785 -0.0775  0.9242
20645SOL    HW267773  11.284   7.726   2.601  0.1061  1.0557 -0.8002
20646SOL     OW67774  10.227   7.917   5.716 -0.1613  0.0371 -0.2340
20646SOL    HW167775  10.176   7.837   5.733 -2.9691  1.2780 -2.0093
20646SOL    HW267776  10.175   7.987   5.755  0.9584  1.2636 -0.8761
20647SOL     OW67777  11.043  11.723  10.485 -0.0443  0.7555 -0.6415
20647SOL    HW167778  10.993  11.757  10.411  0.1238  1.0311 -0.6319
20647SOL    HW267779  11.070  11.635  10.458  1.8354  1.6207 -1.8083
20648SOL     OW67780   6.237   3.113  11.310  0.6370  0.1578 -0.2427
20648SOL    HW167781   6.313   3.168  11.332  1.6134 -1.1030 -0.3286
20648SOL    HW267782   6.169   3.175  11.286  1.8612  1.3258 -0.8641
20649SOL     OW67783   1.515  10.105   8.027 -0.2440  0.2582  0.2818
20649SOL    HW167784   1.562  10.187   8.042  0.2285  0.1750 -0.6583
20649SOL    HW267785   1.577  10.037   8.054  0.2988  0.1391 -1.1748
20650SOL     OW67786   4.897   6.383   9.357 -0.2480  0.0675 -0.0824
20650SOL    HW167787   4.822   6.382   9.297 -0.9762  0.7423  0.7957
20650SOL    HW267788   4.894   6.469   9.398  0.0139 -0.5266  1.2082
20651SOL     OW67789   7.828  11.461  11.058  0.2260  0.3645  0.1115
20651SOL    HW167790   7.918  11.429  11.051  0.1673  0.3292 -0.4610
20651SOL    HW267791   7.823  11.499  11.146  0.1940 -1.5648  1.0118
20652SOL     OW67792   3.412   3.380   8.807 -0.1074  0.4006  0.1030
20652SOL    HW167793   3.333   3.432   8.795  0.3445  1.2292  0.6138
20652SOL    HW267794   3.412   3.319   8.734 -0.2940  1.5926 -0.9324
20653SOL     OW67795   3.306   5.470   4.175 -0.3995  0.2479  0.1875
20653SOL    HW167796   3.222   5.512   4.157  0.1064  1.0813 -0.2540
20653SOL    HW267797   3.349   5.464   4.089 -0.1695 -0.5395  0.3462
20654SOL     OW67798   5.915   5.356   7.818 -0.3247  0.3909 -0.0047
20654SOL    HW167799   5.995   5.406   7.832  0.8732 -1.0104 -1.4757
20654SOL    HW267800   5.864   5.409   7.755 -0.5185  1.2006  0.8063
20655SOL     OW67801  11.034   7.359   9.669 -0.1590  0.4790 -0.2206
20655SOL    HW167802  10.997   7.271   9.669 -0.0926  0.4511 -0.3843
20655SOL    HW267803  10.985   7.405   9.600  0.2455  0.3849 -0.5785
20656SOL     OW67804   1.009   7.255   9.317 -0.1538  0.2390 -0.5255
20656SOL    HW167805   0.998   7.188   9.250  0.9949 -0.8809  0.3713
20656SOL    HW267806   1.084   7.307   9.287  1.0308 -0.8950  0.3328
20657SOL     OW67807   7.547   7.326   1.966 -0.4751 -0.0712  0.3139
20657SOL    HW167808   7.581   7.246   1.928  0.5472  0.6595 -0.3572
20657SOL    HW267809   7.463   7.341   1.922  0.8808  1.0019 -2.0679
20658SOL     OW67810   3.924   6.139   0.594  0.5770 -0.9940 -0.5276
20658SOL    HW167811   3.862   6.132   0.521 -1.1849 -3.1378  1.0082
20658SOL    HW267812   3.989   6.071   0.576  0.1529 -1.5101 -0.1759
20659SOL     OW67813   5.238  10.183   3.431 -0.0392 -0.0455  0.2453
20659SOL    HW167814   5.208  10.252   3.371 -0.3252 -0.6516 -0.3302
20659SOL    HW267815   5.254  10.228   3.514 -0.5064  0.6607 -0.0377
20660SOL     OW67816   5.106   5.748   1.617 -0.5251  0.0401  0.1230
20660SOL    HW167817   5.052   5.818   1.652  0.1875 -0.3341  2.1346
20660SOL    HW267818   5.058   5.668   1.638  0.3772 -0.2475  1.2625
20661SOL     OW67819   8.074   7.938   6.451  0.9819  0.0542  0.0477
20661SOL    HW167820   8.165   7.948   6.478  1.4367 -0.2950 -1.2914
20661SOL    HW267821   8.033   8.023   6.469  1.5777  0.2221  0.6158
20662SOL     OW67822   5.581   2.278   2.173 -0.0485  0.1297  0.0933
20662SOL    HW167823   5.624   2.193   2.162 -0.6551 -0.1868  0.0954
20662SOL    HW267824   5.632   2.322   2.241  1.5324  0.6221 -1.3469
20663SOL     OW67825   2.568   9.542  10.758  0.2399 -0.0921 -0.1905
20663SOL    HW167826   2.610   9.462  10.792 -2.4121 -1.1126  0.9640
20663SOL    HW267827   2.487   9.511  10.717 -0.1567  1.9017 -1.0102
20664SOL     OW67828  11.926   4.076   2.707 -0.0828 -0.2717  0.1766
20664SOL    HW167829  11.912   4.158   2.754 -2.7529 -0.5855  0.1106
20664SOL    HW267830  11.945   4.011   2.775  2.0337  0.3553  0.2275
20665SOL     OW67831   3.102   7.347  11.597  0.1119  0.1776 -0.1653
20665SOL    HW167832   3.055   7.277  11.551 -0.9809  0.5583  0.3441
20665SOL    HW267833   3.149   7.301  11.667 -0.0732 -0.1226 -0.2340
20666SOL     OW67834   3.328   8.732   8.603 -0.0351 -0.7030  0.0105
20666SOL    HW167835   3.260   8.757   8.541  1.0085 -2.8881 -2.1544
20666SOL    HW267836   3.287   8.664   8.657 -0.4886  0.2049  0.8603
20667SOL     OW67837   2.303   4.897   5.287  0.2235  0.7412 -0.0421
20667SOL    HW167838   2.240   4.952   5.335  1.1611  1.9165 -0.0977
20667SOL    HW267839   2.381   4.952   5.281  0.7109 -0.0782 -1.3879
20668SOL     OW67840   0.461   2.668  11.314  0.6157 -0.1744 -0.1488
20668SOL    HW167841   0.421   2.659  11.227 -0.6309 -0.7217  0.4646
20668SOL    HW267842   0.462   2.763  11.329  0.1363 -0.1150 -0.4504
20669SOL     OW67843   6.958   6.224   3.296 -0.7828  0.2819  0.0363
20669SOL    HW167844   7.033   6.172   3.268 -0.9733  0.6576 -1.2554
20669SOL    HW267845   6.975   6.243   3.388  0.2751 -0.3637 -0.0089
20670SOL     OW67846   3.291   4.259  12.318 -0.3723 -0.7885 -0.3336
20670SOL    HW167847   3.296   4.169  12.284  0.6913 -0.7206 -0.3865
20670SOL    HW267848   3.365   4.265  12.379 -1.2953 -0.3984  0.7810
20671SOL     OW67849   4.585   0.029   3.372  0.1382  0.1634  0.3163
20671SOL    HW167850   4.628   0.031   3.286 -0.6770 -0.3749 -0.1231
20671SOL    HW267851   4.653   0.057   3.433  0.9536 -0.1291 -0.4162
20672SOL     OW67852   0.797   7.454   3.648  0.3421 -0.4848  0.4328
20672SOL    HW167853   0.867   7.518   3.647 -1.3016  1.3986 -0.1078
20672SOL    HW267854   0.733   7.488   3.710 -1.2857 -0.7418 -1.0111
20673SOL     OW67855   7.231   1.094  10.860 -0.1255  0.1165  0.1333
20673SOL    HW167856   7.312   1.085  10.809 -1.3894 -2.7133 -1.5922
20673SOL    HW267857   7.237   1.025  10.926 -0.6243  0.6811  0.7767
20674SOL     OW67858   1.451   7.604   8.406  0.0939 -0.2746 -0.3825
20674SOL    HW167859   1.419   7.649   8.327 -0.1350 -0.8508 -0.6228
20674SOL    HW267860   1.545   7.597   8.393  0.2038  0.5795 -0.1107
20675SOL     OW67861   8.759   7.723   2.235  0.3640  0.2220 -0.1677
20675SOL    HW167862   8.779   7.817   2.237  1.8939 -0.0471 -0.9342
20675SOL    HW267863   8.808   7.687   2.309 -0.6995  0.0822  0.4925
20676SOL     OW67864  11.060  10.381  12.045 -0.0516  0.3687 -0.6041
20676SOL    HW167865  11.024  10.447  11.986 -0.2865  0.5019 -0.3127
20676SOL    HW267866  10.994  10.312  12.047 -1.0345  1.2826  1.1157
20677SOL     OW67867   9.984   5.710   3.383  0.1164  0.2287  0.1697
20677SOL    HW167868   9.923   5.669   3.321  0.6250  0.9606 -0.8566
20677SOL    HW267869  10.056   5.741   3.328  0.3644  1.3313  1.0735
20678SOL     OW67870   4.335   3.983   9.990  0.3029  0.0330  0.5715
20678SOL    HW167871   4.401   4.052   9.999  1.1678 -0.5765 -0.7084
20678SOL    HW267872   4.387   3.902   9.983 -0.5547 -0.4245 -0.8346
20679SOL     OW67873   0.708   9.245  10.298  0.6496 -0.2880  0.0261
20679SOL    HW167874   0.692   9.294  10.218  0.2163  0.8132  0.7589
20679SOL    HW267875   0.792   9.277  10.330  1.2514 -1.3629 -0.4318
20680SOL     OW67876   0.928   3.037   7.530 -0.0059  0.8205 -0.4714
20680SOL    HW167877   1.015   3.053   7.494  0.9399 -1.5831  0.5432
20680SOL    HW267878   0.942   3.032   7.625 -1.2681  0.4796 -0.2768
20681SOL     OW67879   4.817   4.319   5.967  0.3524 -0.3568  0.3959
20681SOL    HW167880   4.785   4.229   5.961 -0.5495 -0.1685  1.8933
20681SOL    HW267881   4.901   4.311   6.011  1.2753 -0.6244 -1.3317
20682SOL     OW67882   8.909   0.116   5.600 -0.5755 -0.7510 -0.4008
20682SOL    HW167883   8.902   0.147   5.690 -2.9448 -0.8425 -0.4869
20682SOL    HW267884   8.959   0.034   5.606 -2.3470 -1.8041  1.1757
20683SOL     OW67885   1.783  10.457   7.203  0.3747 -0.0785  0.4291
20683SOL    HW167886   1.694  10.453   7.170  0.0099  1.2508  1.1702
20683SOL    HW267887   1.794  10.548   7.230  1.7941 -0.3397  0.7968
20684SOL     OW67888   8.880   7.988   6.530 -0.0960 -0.2170 -0.0828
20684SOL    HW167889   8.887   8.083   6.529 -1.6801 -0.0113  1.4518
20684SOL    HW267890   8.969   7.957   6.516  0.6206  1.5116  0.3400
20685SOL     OW67891   9.913   7.516   0.941 -0.0815 -0.1419 -0.0988
20685SOL    HW167892   9.857   7.470   0.878 -0.1749  0.9156 -0.8177
20685SOL    HW267893   9.862   7.592   0.968 -0.0773 -0.6272  1.3553
20686SOL     OW67894   3.935   7.934   4.158 -0.0101 -0.2879 -0.1229
20686SOL    HW167895   3.847   7.961   4.183 -0.5005 -1.1050 -0.9152
20686SOL    HW267896   3.931   7.920   4.064  1.1695  0.3628 -0.2913
20687SOL     OW67897   8.508   1.663  11.147 -0.3204  0.1574  0.1790
20687SOL    HW167898   8.442   1.599  11.173  0.2841 -0.9361 -0.9046
20687SOL    HW267899   8.553   1.623  11.072  0.3338  1.6785 -0.2830
20688SOL     OW67900   1.369  10.624   5.733  0.3506 -0.1167  0.2807
20688SOL    HW167901   1.326  10.608   5.817 -0.5856  0.1816 -0.1285
20688SOL    HW267902   1.454  10.661   5.756  0.8819 -1.7927  1.1332
20689SOL     OW67903  11.250   0.996   8.561 -0.3224 -0.3273  0.0605
20689SOL    HW167904  11.157   1.003   8.539 -0.7097 -0.5915  1.4824
20689SOL    HW267905  11.256   0.919   8.617  0.4530  0.6014  1.3326
20690SOL     OW67906   1.465   7.522  10.253  0.4143 -0.2639 -0.2462
20690SOL    HW167907   1.491   7.594  10.194  0.8932 -0.5519 -0.3927
20690SOL    HW267908   1.508   7.543  10.336 -0.8796  0.5439  0.2383
20691SOL     OW67909   9.419   7.085   2.263 -0.5860  0.4723 -0.0231
20691SOL    HW167910   9.415   7.149   2.191  4.2722  0.0913 -0.9569
20691SOL    HW267911   9.355   7.018   2.240 -2.4453  2.6047 -1.4763
20692SOL     OW67912   4.133   9.096   3.117  0.4497  0.2473  0.3566
20692SOL    HW167913   4.096   9.154   3.184 -0.1388  0.5130 -0.1821
20692SOL    HW267914   4.150   9.153   3.042  0.9901 -0.0656  0.2348
20693SOL     OW67915   1.414   9.152  10.002 -0.2838 -0.3670 -0.0659
20693SOL    HW167916   1.340   9.098  10.028  0.8387 -1.1969  1.5903
20693SOL    HW267917   1.472   9.093   9.953 -0.6752  0.2819 -1.3778
20694SOL     OW67918   2.948   1.250   9.767 -0.2391 -0.2269  0.3689
20694SOL    HW167919   2.996   1.171   9.742 -0.5829  0.2442 -1.9900
20694SOL    HW267920   3.008   1.322   9.749 -0.8991  0.2035 -0.1954
20695SOL     OW67921   5.797   9.827   0.523 -1.0491 -0.3603 -0.1440
20695SOL    HW167922   5.870   9.842   0.464 -1.4770 -1.9889 -1.1292
20695SOL    HW267923   5.724   9.802   0.467 -2.3181  0.9045  0.8418
20696SOL     OW67924   7.840   8.176   4.212 -1.0292  0.7412 -0.4538
20696SOL    HW167925   7.890   8.145   4.288  0.4849  0.9809 -1.3135
20696SOL    HW267926   7.822   8.097   4.161  2.2507  1.0244 -2.3025
20697SOL     OW67927   0.812   9.328   2.777  0.4158 -0.5886  0.2102
20697SOL    HW167928   0.718   9.336   2.758  1.0569  0.0353 -3.4160
20697SOL    HW267929   0.825   9.235   2.795 -1.2063 -0.3077  3.5287
20698SOL     OW67930   4.830   5.322  12.178 -0.5093 -0.2410 -0.0319
20698SOL    HW167931   4.833   5.406  12.133 -0.4957  0.4668  1.2578
20698SOL    HW267932   4.911   5.320  12.230 -0.7523 -0.8365  0.3243
20699SOL     OW67933  11.977   4.301   2.865 -0.0619 -0.0006 -0.2940
20699SOL    HW167934  12.040   4.291   2.937 -1.9316 -0.4639  1.3533
20699SOL    HW267935  11.951   4.393   2.869 -0.0463  0.0135 -0.4989
20700SOL     OW67936   9.006   6.559   3.828 -0.1219  0.0051 -0.4407
20700SOL    HW167937   8.954   6.564   3.908  1.5314  0.1832  0.6681
20700SOL    HW267938   9.097   6.562   3.858  0.5432  0.0442 -2.3288
20701SOL     OW67939   0.702   7.567   2.385 -0.0702 -0.2337  0.1522
20701SOL    HW167940   0.754   7.519   2.449  0.4722 -1.1955 -0.9728
20701SOL    HW267941   0.720   7.524   2.301 -0.7025  1.0183 -0.6720
20702SOL     OW67942   4.706   4.390   1.037 -0.0508 -0.2532  0.1355
20702SOL    HW167943   4.720   4.459   1.101  1.2686  0.0745 -0.4727
20702SOL    HW267944   4.724   4.431   0.953 -2.6454 -0.4366 -0.5686
20703SOL     OW67945   4.798   2.498   0.534  0.1115  0.2276 -0.1689
20703SOL    HW167946   4.891   2.495   0.510  0.4521  0.3994  1.0771
20703SOL    HW267947   4.755   2.443   0.469  1.2435 -0.7890 -0.0911
20704SOL     OW67948  12.072   0.810   9.398 -0.3992  0.3687  0.1950
20704SOL    HW167949  12.004   0.870   9.428  0.9201  1.3669  1.2902
20704SOL    HW267950  12.125   0.793   9.475  1.5608  0.9311 -0.9459
20705SOL     OW67951   8.111  10.175   9.841 -0.3107 -0.3421 -0.2125
20705SOL    HW167952   8.145  10.175   9.752 -2.6004 -1.9784 -1.1812
20705SOL    HW267953   8.134  10.089   9.876  1.4223  0.6374  1.1988
20706SOL     OW67954   6.063   0.609   0.794  0.2608 -0.1849 -0.3586
20706SOL    HW167955   5.997   0.664   0.836 -0.9548 -2.1121  0.4091
20706SOL    HW267956   6.144   0.659   0.801 -0.4472  0.7682  1.8704
20707SOL     OW67957  11.442   6.095  11.790 -0.6661  0.2398 -0.2843
20707SOL    HW167958  11.422   6.188  11.802 -1.6407  0.2709 -1.8921
20707SOL    HW267959  11.525   6.094  11.744  0.7151  0.2025  2.0244
20708SOL     OW67960   1.134   6.212   4.019  0.1949 -0.6567  0.0424
20708SOL    HW167961   1.067   6.248   4.077  1.1764  1.9771 -0.3252
20708SOL    HW267962   1.208   6.191   4.076  0.8378  1.1223 -0.0758
20709SOL     OW67963  11.320   6.044   4.398 -0.6635  0.6248  0.3076
20709SOL    HW167964  11.253   5.977   4.383  0.7981 -0.9919  0.6923
20709SOL    HW267965  11.307   6.072   4.488  0.5531 -1.3633  1.1550
20710SOL     OW67966   0.571   0.300  11.063  0.0397  0.2635 -0.0941
20710SOL    HW167967   0.520   0.359  11.119 -0.6729 -0.2024 -0.2263
20710SOL    HW267968   0.638   0.263  11.121 -0.6497 -0.1623  0.4523
20711SOL     OW67969   1.180   9.812  10.502  0.2891 -0.2563  0.2785
20711SOL    HW167970   1.184   9.826  10.596 -0.2039 -0.0869  0.2747
20711SOL    HW267971   1.184   9.900  10.464  0.9940 -0.3483  0.1173
20712SOL     OW67972   3.432  11.561   5.760 -0.0450 -0.0950  0.2410
20712SOL    HW167973   3.477  11.522   5.685  0.8692  0.3938  0.5182
20712SOL    HW267974   3.455  11.505   5.833  0.6318  0.4877  0.4934
20713SOL     OW67975   9.435   3.809   1.356 -0.7235 -0.5033 -0.1455
20713SOL    HW167976   9.400   3.720   1.360 -1.9433 -0.0195  0.9398
20713SOL    HW267977   9.447   3.834   1.448  1.3618 -0.1820 -0.4672
20714SOL     OW67978  11.810   8.061   6.762  0.1150  0.4643 -0.0443
20714SOL    HW167979  11.845   8.139   6.720 -1.9295  1.3784 -0.1765
20714SOL    HW267980  11.825   7.991   6.698  2.8793  0.4723  0.4958
20715SOL     OW67981   5.552   6.733   0.197  0.1517  0.1371 -0.2315
20715SOL    HW167982   5.610   6.755   0.270  1.9145 -0.2393 -1.4357
20715SOL    HW267983   5.465   6.724   0.236  1.0365 -0.0651  1.8024
20716SOL     OW67984   3.845   9.827   4.935  0.1752 -0.4520  0.0880
20716SOL    HW167985   3.832   9.766   4.863  1.3288  2.5114 -2.8953
20716SOL    HW267986   3.929   9.801   4.974  0.6634 -0.8075 -1.1510
20717SOL     OW67987   1.171   0.637   1.575  0.0346  0.2337 -0.2078
20717SOL    HW167988   1.128   0.560   1.613  1.0672 -1.0026 -1.4322
20717SOL    HW267989   1.243   0.656   1.635  0.4957 -0.5211 -0.4999
20718SOL     OW67990   5.609   2.703   1.005  0.0971 -0.0233  0.2137
20718SOL    HW167991   5.685   2.670   1.054  0.1699 -0.0839  0.0604
20718SOL    HW267992   5.570   2.625   0.966  0.6892  0.1362 -0.7443
20719SOL     OW67993   4.977   3.012   3.231 -0.7850  0.1928  0.2216
20719SOL    HW167994   5.041   3.033   3.299  0.4841 -0.0390 -0.8699
20719SOL    HW267995   4.995   3.074   3.161  0.5308 -2.0269 -1.5053
20720SOL     OW67996   7.410   6.091   8.314  0.0780 -0.2164  0.4452
20720SOL    HW167997   7.452   6.008   8.336  0.1178 -0.0210  1.1561
20720SOL    HW267998   7.322   6.084   8.350 -0.2537 -0.3390 -0.3891
20721SOL     OW67999   0.829   5.928   8.389 -0.2090 -0.1264  0.1759
20721SOL    HW168000   0.768   5.937   8.316  0.8323 -2.3871 -1.0993
20721SOL    HW268001   0.837   6.016   8.425 -0.3019  1.2180 -2.8220
20722SOL     OW68002   8.849   4.753   2.596 -0.6790  0.1837 -0.3921
20722SOL    HW168003   8.806   4.673   2.627  0.6557 -0.0410  1.0081
20722SOL    HW268004   8.860   4.806   2.675 -0.8448  1.4148 -1.1827
20723SOL     OW68005   0.337   9.043   0.570  0.1936  0.1889  0.9255
20723SOL    HW168006   0.260   9.101   0.566  0.7974  0.9678  0.0628
20723SOL    HW268007   0.326   8.995   0.652 -1.1175  0.4127  0.9163
20724SOL     OW68008   3.164   7.788   2.746 -0.0532  0.0571 -0.6384
20724SOL    HW168009   3.155   7.820   2.656  0.0711  0.4398 -0.5183
20724SOL    HW268010   3.140   7.863   2.801 -2.1245 -0.7663 -0.3340
20725SOL     OW68011   0.744  11.320   7.932  0.4750 -0.1945 -0.0430
20725SOL    HW168012   0.703  11.406   7.934  0.2553 -0.3020  0.8521
20725SOL    HW268013   0.814  11.325   7.998  0.7199 -0.5761 -0.2681
20726SOL     OW68014  10.590   2.737   5.823  0.2558  0.0198 -0.2133
20726SOL    HW168015  10.639   2.662   5.791  1.4347  0.2094  1.0098
20726SOL    HW268016  10.568   2.787   5.745  0.2165 -1.1390 -0.9617
20727SOL     OW68017   3.854   7.670   7.276  0.0709 -0.4479 -0.3628
20727SOL    HW168018   3.806   7.692   7.196 -2.4896  0.2741  1.2442
20727SOL    HW268019   3.910   7.746   7.291 -1.1988  0.5008 -0.2423
20728SOL     OW68020  11.303  10.165   7.652  0.1038  0.2586  0.5527
20728SOL    HW168021  11.269  10.155   7.563 -0.7929  0.4806  0.8631
20728SOL    HW268022  11.363  10.240   7.646  0.9048 -0.4071 -0.0895
20729SOL     OW68023   9.406   1.006   5.235 -0.9271 -0.0964 -0.2779
20729SOL    HW168024   9.466   0.952   5.184 -1.0312 -0.8207  0.3394
20729SOL    HW268025   9.369   0.946   5.300 -2.1239  0.3963 -0.4790
20730SOL     OW68026   9.570   3.016   2.293 -0.5621  0.2201 -0.5742
20730SOL    HW168027   9.490   2.964   2.279 -1.1388  0.4458  1.4615
20730SOL    HW268028   9.566   3.039   2.386  0.9958  1.7480 -0.8541
20731SOL     OW68029   7.548   2.337   0.566 -0.0263 -0.5583 -0.2466
20731SOL    HW168030   7.522   2.369   0.652 -0.0308  0.2612 -0.5495
20731SOL    HW268031   7.530   2.409   0.506 -0.9820 -1.4666 -1.1048
20732SOL     OW68032   2.272   3.466   6.586 -0.1001  0.4922  0.0621
20732SOL    HW168033   2.248   3.431   6.672 -0.0922 -0.0276 -0.1415
20732SOL    HW268034   2.273   3.389   6.528  0.6979  0.7074 -0.2250
20733SOL     OW68035   4.840   2.666   1.413  0.2059 -0.2031 -0.4653
20733SOL    HW168036   4.841   2.761   1.407 -1.2922 -0.1775 -0.6946
20733SOL    HW268037   4.822   2.637   1.323 -1.6498 -0.5957 -0.0014
20734SOL     OW68038   1.627   9.470   9.219  0.2537  0.4044  1.0816
20734SOL    HW168039   1.651   9.385   9.256 -1.5083 -0.0223  1.3540
20734SOL    HW268040   1.623   9.454   9.125 -3.1677 -0.8045  1.2679
20735SOL     OW68041  12.167  11.669   6.754  0.7032 -0.3073 -0.1410
20735SOL    HW168042  12.098  11.733   6.736  0.5737 -0.4411 -0.1242
20735SOL    HW268043  12.120  11.587   6.768  0.9644 -0.7449 -1.6839
20736SOL     OW68044   7.286   1.006   1.017  1.0210  0.3880  0.4623
20736SOL    HW168045   7.382   1.004   1.009  0.9328 -0.2151 -0.6423
20736SOL    HW268046   7.260   0.914   1.022  0.5001  0.5529  0.9579
20737SOL     OW68047   7.726  10.918   9.418 -0.1378  0.1250 -0.2182
20737SOL    HW168048   7.760  10.878   9.498 -0.2158 -0.4850 -0.4845
20737SOL    HW268049   7.734  11.012   9.433 -0.8476  0.0376  0.8152
20738SOL     OW68050   8.057   5.245  11.611  0.2583  0.0286  0.7994
20738SOL    HW168051   8.074   5.185  11.684 -1.1619 -1.6881 -0.1902
20738SOL    HW268052   8.006   5.316  11.650 -1.3819 -1.3808  1.3656
20739SOL     OW68053   1.185   6.603  11.216  0.1786  0.3187  0.2176
20739SOL    HW168054   1.133   6.528  11.187 -0.1577  1.3725 -2.1445
20739SOL    HW268055   1.134   6.679  11.190  0.7147  1.4183  2.1791
20740SOL     OW68056   3.088   8.272   7.355  0.6587 -0.1033  0.5169
20740SOL    HW168057   3.002   8.309   7.377  0.8924  0.8094 -0.0644
20740SOL    HW268058   3.089   8.187   7.400 -0.8389 -0.4622 -0.0436
20741SOL     OW68059   4.663   9.042   4.162  0.1396  0.1204  0.0714
20741SOL    HW168060   4.671   8.952   4.129  1.8237  0.0284  0.6494
20741SOL    HW268061   4.742   9.086   4.130 -1.0101  1.6211 -0.8201
20742SOL     OW68062   5.297   7.415   2.821  0.1993  0.1426 -0.3571
20742SOL    HW168063   5.363   7.476   2.788  3.4069 -1.7208  1.9943
20742SOL    HW268064   5.260   7.460   2.898  0.1859  0.4030 -0.5136
20743SOL     OW68065   3.592   6.979  11.256 -0.3916 -0.4662  0.1954
20743SOL    HW168066   3.524   7.044  11.236  0.2565  0.5079  1.0495
20743SOL    HW268067   3.568   6.945  11.342  1.0352  1.0704  1.2623
20744SOL     OW68068   7.629   5.520   9.742  0.1981 -0.3387 -0.0590
20744SOL    HW168069   7.684   5.469   9.801  1.3247  0.9271  0.0313
20744SOL    HW268070   7.615   5.464   9.666  1.8276 -0.6000 -0.1870
20745SOL     OW68071  11.053   6.558   5.413  0.0739  0.0215 -0.4319
20745SOL    HW168072  10.968   6.581   5.376  0.9492  1.1820 -1.8635
20745SOL    HW268073  11.117   6.602   5.356  1.5782  0.6056  1.5807
20746SOL     OW68074   5.669   4.629   4.098 -0.3144  0.3255  0.0056
20746SOL    HW168075   5.646   4.710   4.052  0.1346 -0.1545 -1.1002
20746SOL    HW268076   5.636   4.559   4.042 -1.1535 -0.2687  1.2036
20747SOL     OW68077   6.831   7.613  10.634  0.1857 -0.0473 -0.1094
20747SOL    HW168078   6.921   7.629  10.608 -0.1190 -0.4674 -1.5247
20747SOL    HW268079   6.784   7.693  10.609 -0.1904 -0.6211 -1.3421
20748SOL     OW68080   2.163   7.694   5.731  0.1966 -0.0760  0.0680
20748SOL    HW168081   2.093   7.727   5.675 -0.5579 -1.3043  0.2312
20748SOL    HW268082   2.237   7.679   5.671  0.0750  0.5206 -0.2370
20749SOL     OW68083   6.881  11.321   2.424  0.1678  0.2788  0.2308
20749SOL    HW168084   6.833  11.282   2.497  0.9665 -0.2366  0.4896
20749SOL    HW268085   6.848  11.275   2.346  0.6392 -0.4818  0.4668
20750SOL     OW68086   3.845   8.774   5.812  0.2248  0.5181 -0.3831
20750SOL    HW168087   3.921   8.730   5.774  0.8709  0.8415  0.5025
20750SOL    HW268088   3.882   8.841   5.868 -0.7249  0.7496 -0.0168
20751SOL     OW68089  11.178  12.023  10.131  0.2460 -0.9769  0.0031
20751SOL    HW168090  11.210  11.959  10.069  0.0887 -2.3306  1.2750
20751SOL    HW268091  11.255  12.049  10.181 -0.0391 -1.8024  0.9029
20752SOL     OW68092   2.663   9.446  11.460 -0.1895 -0.5598 -0.2221
20752SOL    HW168093   2.610   9.366  11.452 -0.9358 -0.5437  2.9726
20752SOL    HW268094   2.687   9.449  11.552  1.2273  2.0770 -0.5839
20753SOL     OW68095  11.843   7.862   8.628 -0.4853  0.1298 -0.0401
20753SOL    HW168096  11.875   7.923   8.695  0.2202 -0.7068  0.4093
20753SOL    HW268097  11.915   7.857   8.565 -1.3165  1.2481 -1.1161
20754SOL     OW68098   4.852   1.439  11.038 -0.3613  0.0446  0.8759
20754SOL    HW168099   4.938   1.477  11.020 -1.5076  2.2080 -0.3955
20754SOL    HW268100   4.822   1.407  10.953 -1.4297  0.6808  0.9988
20755SOL     OW68101   2.846   8.338   6.480 -0.3567 -0.4726  0.2701
20755SOL    HW168102   2.808   8.276   6.543 -1.3038 -0.9964 -0.7844
20755SOL    HW268103   2.806   8.315   6.397 -0.7390  1.5653 -0.1585
20756SOL     OW68104   4.185   8.513   1.422 -0.1227  0.0485  1.0408
20756SOL    HW168105   4.193   8.605   1.397  0.6036 -0.7100 -1.7929
20756SOL    HW268106   4.274   8.479   1.419 -0.2871 -0.6592  2.7342
20757SOL     OW68107   7.038   0.146   4.743  0.1979 -0.1153  0.3734
20757SOL    HW168108   7.117   0.144   4.688  0.7113 -1.7329  1.1275
20757SOL    HW268109   7.060   0.206   4.814  0.1828  0.5914 -0.2035
20758SOL     OW68110   1.699   7.806  12.178  0.0654 -0.0705 -0.3041
20758SOL    HW168111   1.716   7.883  12.124  3.2436 -1.5542 -1.6904
20758SOL    HW268112   1.606   7.787  12.166 -0.3196  2.3025 -1.5893
20759SOL     OW68113   6.409   9.978   2.957  0.1988 -0.0181 -0.2875
20759SOL    HW168114   6.364   9.896   2.936  0.4998 -0.7675  1.7227
20759SOL    HW268115   6.450   9.962   3.042  3.2526  1.0416 -1.3931
20760SOL     OW68116   4.570  11.182   4.974 -0.3595  0.1751 -0.0805
20760SOL    HW168117   4.618  11.145   4.901 -0.6976 -1.2343  0.3722
20760SOL    HW268118   4.615  11.263   4.995 -0.2278  0.5661 -1.7973
20761SOL     OW68119   1.174  10.235   7.306 -0.5295 -0.1360  0.6461
20761SOL    HW168120   1.176  10.315   7.358 -2.7661 -0.8019  1.8657
20761SOL    HW268121   1.224  10.171   7.358  0.9822  0.3337 -0.1761
20762SOL     OW68122   5.954  11.055   7.769  0.5413 -0.5034 -0.3337
20762SOL    HW168123   5.970  11.016   7.855  0.3982  0.3353  0.0857
20762SOL    HW268124   6.007  11.134   7.769  3.6010 -2.3539 -2.5011
20763SOL     OW68125  11.267   7.834   4.267 -0.1654 -0.1014 -0.1105
20763SOL    HW168126  11.277   7.892   4.343 -0.6522  0.3304 -0.3713
20763SOL    HW268127  11.207   7.766   4.296  0.7389 -0.7316  0.3353
20764SOL     OW68128  10.712   0.477   2.388  0.6042 -0.4835 -0.0589
20764SOL    HW168129  10.791   0.503   2.341 -0.7514  2.3487 -0.9589
20764SOL    HW268130  10.654   0.443   2.319 -0.0275  0.2295  0.1094
20765SOL     OW68131   1.947   8.644  11.211  0.6167  0.0831 -0.0908
20765SOL    HW168132   1.977   8.585  11.280  1.5644  1.6848  0.9333
20765SOL    HW268133   2.027   8.677  11.170  0.1808  1.4456  0.0804
20766SOL     OW68134   6.329  10.962   9.545 -0.1312  0.1164 -0.2683
20766SOL    HW168135   6.304  10.893   9.484  2.3711 -0.5867 -0.6111
20766SOL    HW268136   6.305  11.043   9.502 -1.9273 -0.4593 -0.4340
20767SOL     OW68137   1.484   2.036  10.213 -0.1626 -0.4386 -0.1404
20767SOL    HW168138   1.422   2.108  10.205 -0.4545 -0.3452  2.2792
20767SOL    HW268139   1.466   1.998  10.299  1.6712 -1.8218 -0.3080
20768SOL     OW68140   1.238   0.776   3.828 -0.0112  0.2529  0.6578
20768SOL    HW168141   1.281   0.760   3.744 -0.1863  1.6221  0.2911
20768SOL    HW268142   1.292   0.729   3.892  0.5301 -0.2052 -0.1216
20769SOL     OW68143   5.507   0.587   3.727  0.0604 -0.1323 -0.0553
20769SOL    HW168144   5.472   0.658   3.781 -2.0201 -2.1906  1.5200
20769SOL    HW268145   5.506   0.511   3.785  2.3988 -1.4593 -1.5990
20770SOL     OW68146   3.634   5.223   3.161  0.1809 -0.8255  0.2941
20770SOL    HW168147   3.660   5.316   3.162 -0.2261 -0.7017  1.7902
20770SOL    HW268148   3.700   5.181   3.107 -0.1076  0.4644 -1.1256
20771SOL     OW68149   8.072   8.485   4.180  0.1501 -0.2828 -0.3557
20771SOL    HW168150   8.081   8.549   4.109 -0.9465 -1.3857 -1.5515
20771SOL    HW268151   8.082   8.400   4.137 -2.6893 -1.0984  0.3471
20772SOL     OW68152   4.104   4.685   8.427  0.1136 -0.4351  0.0031
20772SOL    HW168153   4.126   4.598   8.393  0.8123 -0.2595 -0.0196
20772SOL    HW268154   4.125   4.745   8.354 -0.1513 -0.2278  0.0950
20773SOL     OW68155   5.435   7.294   5.322  0.0191 -0.3705  0.4497
20773SOL    HW168156   5.341   7.280   5.327 -0.0616  0.3544  1.1429
20773SOL    HW268157   5.464   7.297   5.413  0.6927 -0.4610  0.2451
20774SOL     OW68158  10.518   3.804  11.285 -0.1020  1.0161  0.8651
20774SOL    HW168159  10.438   3.752  11.274  0.6649  0.0002 -0.0402
20774SOL    HW268160  10.492   3.876  11.344 -1.6896  0.7493  0.5206
20775SOL     OW68161   1.629  10.865  11.613 -0.3149  0.2973  0.3878
20775SOL    HW168162   1.642  10.898  11.524 -2.2073  0.7973  0.2313
20775SOL    HW268163   1.692  10.913  11.666 -0.1513  1.0841 -0.4857
20776SOL     OW68164  11.113  10.183   0.139  0.3127 -0.3167 -0.3046
20776SOL    HW168165  11.177  10.113   0.132  1.2823  0.2257  2.0978
20776SOL    HW268166  11.051  10.153   0.206 -1.1297 -0.2076 -1.5321
20777SOL     OW68167   2.544   0.209  11.176  0.7767  0.1140 -0.1468
20777SOL    HW168168   2.541   0.134  11.236  1.2168  0.9133  0.9080
20777SOL    HW268169   2.625   0.196  11.127 -0.1780 -1.1776 -1.4600
20778SOL     OW68170  11.628  11.473   9.769  0.1619 -0.5316 -0.6185
20778SOL    HW168171  11.601  11.498   9.681 -1.5271  1.4619  0.3758
20778SOL    HW268172  11.560  11.411   9.798 -0.1388 -0.0177 -0.2010
20779SOL     OW68173  11.683   1.415   4.828  0.4898  0.2710 -0.1420
20779SOL    HW168174  11.687   1.509   4.846  0.5341  0.1330  0.6350
20779SOL    HW268175  11.640   1.378   4.906 -0.4050 -0.2418 -0.8586
20780SOL     OW68176   0.800   8.453  11.307 -0.0634  0.2332 -0.5002
20780SOL    HW168177   0.796   8.462  11.211  1.5710 -0.6072 -0.6881
20780SOL    HW268178   0.806   8.358  11.322  3.3448  0.4355  0.1673
20781SOL     OW68179   8.333   2.948   7.684 -0.8740 -0.5515  0.1643
20781SOL    HW168180   8.267   3.017   7.676 -0.2820  0.2407  1.7537
20781SOL    HW268181   8.322   2.915   7.773  1.0228 -0.2250  0.5559
20782SOL     OW68182   8.700  11.128  10.715 -0.7491 -0.1364  0.1201
20782SOL    HW168183   8.650  11.081  10.648 -0.6909 -1.2913  0.8579
20782SOL    HW268184   8.696  11.220  10.687 -1.8938 -0.4065 -0.7126
20783SOL     OW68185   8.572   7.956   8.803 -0.1388 -0.1195 -0.3625
20783SOL    HW168186   8.552   7.890   8.869 -1.7338 -0.9918 -1.6316
20783SOL    HW268187   8.530   8.036   8.835  1.2815  0.1680  0.8848
20784SOL     OW68188   4.736   5.221   7.942 -0.2194 -0.4455  0.2718
20784SOL    HW168189   4.661   5.246   7.888  0.3819 -2.0344 -1.3947
20784SOL    HW268190   4.802   5.288   7.922 -1.1773  1.0463  1.8601
20785SOL     OW68191   5.411   1.141   0.940 -0.0180 -0.1585 -0.4201
20785SOL    HW168192   5.354   1.134   1.016 -0.0337 -1.9576 -0.5629
20785SOL    HW268193   5.496   1.109   0.971  0.1618 -0.2168 -0.9650
20786SOL     OW68194   1.217  11.736   4.120  0.6026  0.9122  0.3524
20786SOL    HW168195   1.195  11.659   4.068  1.3356  1.8069 -1.3907
20786SOL    HW268196   1.307  11.722   4.148  0.4694  0.7779  0.7118
20787SOL     OW68197  11.600  11.662   5.100  0.2888  0.5636  0.0054
20787SOL    HW168198  11.631  11.681   5.011  0.2380  1.1226  0.0999
20787SOL    HW268199  11.639  11.578   5.122  0.7791  0.6996 -0.3281
20788SOL     OW68200   4.810   7.896   4.520 -0.1590  0.0570 -0.3235
20788SOL    HW168201   4.815   7.807   4.553  0.2360 -0.1565 -0.9331
20788SOL    HW268202   4.717   7.913   4.507 -0.3215  0.1632  0.9174
20789SOL     OW68203  12.179   2.404   9.022 -0.2769 -0.0539  0.2683
20789SOL    HW168204  12.230   2.484   9.025  1.3462 -1.0279 -0.0624
20789SOL    HW268205  12.244   2.334   9.029 -1.5323 -1.3568 -0.5705
20790SOL     OW68206   3.119   0.144   9.767 -0.1611  0.3924 -0.1568
20790SOL    HW168207   3.066   0.068   9.789 -0.6659  1.0078  0.8054
20790SOL    HW268208   3.168   0.117   9.689  0.3180 -1.2161  0.6544
20791SOL     OW68209  11.409   8.984   3.532 -0.9753 -0.0369 -0.1490
20791SOL    HW168210  11.491   8.965   3.576 -1.0458  0.5325  0.2314
20791SOL    HW268211  11.402   8.916   3.464 -0.1377 -0.0084 -0.2657
20792SOL     OW68212   8.579   2.031   4.646 -0.1606  0.5965 -0.8397
20792SOL    HW168213   8.629   2.052   4.724  1.1174 -0.3658 -1.3754
20792SOL    HW268214   8.621   2.081   4.576  0.9766 -1.2355 -1.5477
20793SOL     OW68215   9.404   0.363   6.973  0.3475 -0.1651  0.1509
20793SOL    HW168216   9.322   0.359   7.021  0.2584 -0.3014 -0.0135
20793SOL    HW268217   9.405   0.451   6.934 -0.5332 -0.7563 -1.2784
20794SOL     OW68218   0.412   8.458   2.613 -0.0856 -0.0904 -0.5708
20794SOL    HW168219   0.491   8.465   2.560  1.8196 -1.3957  1.8832
20794SOL    HW268220   0.393   8.364   2.615 -0.1293 -0.0694  0.9823
20795SOL     OW68221   2.472   5.697   8.699 -0.2007  0.1522 -0.1027
20795SOL    HW168222   2.419   5.658   8.769  2.6420 -0.0055  2.1717
20795SOL    HW268223   2.537   5.631   8.679  1.0004  1.4224 -0.5614
20796SOL     OW68224   5.768   2.469   1.388 -0.3610 -0.0311 -0.2163
20796SOL    HW168225   5.710   2.507   1.454 -0.1995 -0.4455  0.1703
20796SOL    HW268226   5.836   2.424   1.439 -0.2873 -0.4381 -0.6649
20797SOL     OW68227   6.621   8.406   2.562 -0.0120 -0.0697 -0.6290
20797SOL    HW168228   6.698   8.460   2.580  0.5559 -0.8959 -0.5279
20797SOL    HW268229   6.656   8.319   2.546 -0.9897 -0.6353  0.1862
20798SOL     OW68230   1.435   9.137   7.309 -0.3744  0.2902 -0.0257
20798SOL    HW168231   1.434   9.042   7.297 -2.4673 -0.3947  3.9851
20798SOL    HW268232   1.526   9.157   7.332 -0.1728 -0.9743  0.3631
20799SOL     OW68233   1.158   6.790   7.871  0.1746 -0.1794 -0.3719
20799SOL    HW168234   1.147   6.826   7.783 -1.6544 -0.3872 -0.2771
20799SOL    HW268235   1.153   6.695   7.858 -2.5539 -0.1865  0.1551
20800SOL     OW68236  11.284   3.593  10.773 -0.1086  0.2167 -0.4984
20800SOL    HW168237  11.323   3.647  10.704 -0.8311  0.3121 -0.8436
20800SOL    HW268238  11.218   3.540  10.727 -0.1899 -0.1395  0.0240
20801SOL     OW68239   6.335   7.450  11.706  0.3599 -0.3459  0.4153
20801SOL    HW168240   6.295   7.504  11.774  0.4632 -0.9198  0.9434
20801SOL    HW268241   6.301   7.362  11.722 -2.2170  0.0313 -2.2751
20802SOL     OW68242   0.599   4.651   6.395 -0.0196 -0.4022 -0.0745
20802SOL    HW168243   0.659   4.610   6.333 -0.4859 -0.0973 -0.7402
20802SOL    HW268244   0.622   4.744   6.392  0.3429 -0.4605  0.6530
20803SOL     OW68245   6.365  10.884   0.247 -0.0377 -0.4196 -0.2220
20803SOL    HW168246   6.306  10.936   0.193 -0.4616 -1.2333 -0.5421
20803SOL    HW268247   6.448  10.886   0.200 -0.6430 -1.9041 -1.4137
20804SOL     OW68248   2.134   4.591  10.799  0.2774  0.2107  0.3209
20804SOL    HW168249   2.048   4.579  10.840 -0.3282 -0.7251 -1.1224
20804SOL    HW268250   2.116   4.645  10.722  0.7699 -0.8677 -0.5795
20805SOL     OW68251   6.379  12.023   4.009  0.4261  0.0016  0.0217
20805SOL    HW168252   6.441  12.057   3.944  0.0949  1.0787  0.2548
20805SOL    HW268253   6.431  11.966   4.065  1.3021  1.1573  0.4251
20806SOL     OW68254   5.623  11.585   8.528  0.2727  0.4631  0.1592
20806SOL    HW168255   5.715  11.576   8.554 -0.5200  0.6749  3.4688
20806SOL    HW268256   5.593  11.495   8.517  0.2315  0.2262  1.8922
20807SOL     OW68257   9.690   3.075   1.674 -0.2704 -0.0938  0.0405
20807SOL    HW168258   9.716   2.986   1.699  1.5326  0.3351 -0.2001
20807SOL    HW268259   9.623   3.099   1.739 -0.9439 -1.6778 -0.0108
20808SOL     OW68260   1.819   1.165   3.654 -0.1520  0.1769  0.1006
20808SOL    HW168261   1.754   1.172   3.724 -1.0117  2.7960 -0.8572
20808SOL    HW268262   1.848   1.074   3.658 -1.8586 -0.3607  2.3375
20809SOL     OW68263   2.806   5.278   3.978  0.1475 -0.6945  0.2142
20809SOL    HW168264   2.848   5.241   4.056  0.5482 -1.6139 -0.4273
20809SOL    HW268265   2.746   5.211   3.949  0.6994 -0.7555 -0.8254
20810SOL     OW68266   1.646   5.783  11.883 -0.1560 -0.5078  0.4676
20810SOL    HW168267   1.609   5.832  11.956  0.8647 -1.5801  1.7509
20810SOL    HW268268   1.690   5.850  11.829 -0.3506  0.2160  1.1873
20811SOL     OW68269   0.638   5.390   1.491  0.6232 -0.0274 -0.5654
20811SOL    HW168270   0.716   5.446   1.494  1.5678 -1.2840 -0.6795
20811SOL    HW268271   0.646   5.333   1.568 -0.6258  0.3765 -0.1210
20812SOL     OW68272   7.864   6.686   1.858  0.0794 -0.0643 -0.2024
20812SOL    HW168273   7.897   6.600   1.832  0.6980 -0.1624  0.8439
20812SOL    HW268274   7.793   6.705   1.796  2.0663  0.1457 -2.5329
20813SOL     OW68275  10.339   1.004   3.915  0.5570 -0.0885 -0.2228
20813SOL    HW168276  10.361   1.090   3.882 -0.6112  0.2936 -0.0431
20813SOL    HW268277  10.261   0.978   3.867  0.0192 -0.3897  0.7746
20814SOL     OW68278  10.482   8.510   7.272 -0.1571  0.5196  0.0937
20814SOL    HW168279  10.473   8.484   7.363  1.0858 -0.8783 -0.1505
20814SOL    HW268280  10.394   8.539   7.247 -0.3276  1.7596  1.9548
20815SOL     OW68281   8.410   6.113   5.254 -0.1390 -0.1816 -0.4206
20815SOL    HW168282   8.502   6.119   5.229 -0.0180 -0.8051 -0.1392
20815SOL    HW268283   8.366   6.078   5.177  0.0296 -0.8896 -0.1998
20816SOL     OW68284   0.172   8.734   7.789  0.3697 -0.4409 -0.1227
20816SOL    HW168285   0.200   8.824   7.808 -2.2267  0.4066  0.0788
20816SOL    HW268286   0.222   8.710   7.711  0.8072  1.3668 -0.4508
20817SOL     OW68287   8.301   5.482  11.795  0.3187 -0.9672 -0.1979
20817SOL    HW168288   8.240   5.410  11.809 -0.2057 -0.7162 -1.1671
20817SOL    HW268289   8.287   5.539  11.871 -0.8658 -0.7628 -0.5517
20818SOL     OW68290   2.669   6.000   6.021  0.0259 -0.0626  0.0735
20818SOL    HW168291   2.606   6.057   5.978  1.1115  0.5570 -0.7621
20818SOL    HW268292   2.665   5.918   5.972 -0.6620 -0.2911  0.5040
20819SOL     OW68293  11.931   3.621   7.692 -0.3326  0.3750  0.7894
20819SOL    HW168294  11.958   3.712   7.677 -1.8530  0.7218 -0.0474
20819SOL    HW268295  11.836   3.626   7.700 -0.3725 -1.0716  1.3721
20820SOL     OW68296   1.264   8.793   5.739 -0.0568  0.2145  0.1619
20820SOL    HW168297   1.324   8.854   5.781  2.0792 -1.3564 -0.4223
20820SOL    HW268298   1.235   8.735   5.809 -2.9481  2.3496  0.9507
20821SOL     OW68299   9.879  11.694   3.778 -0.0479 -0.0382  0.2194
20821SOL    HW168300   9.950  11.656   3.829 -0.7345  1.2908  2.3270
20821SOL    HW268301   9.800  11.651   3.812 -0.4054 -0.2079 -0.8081
20822SOL     OW68302   0.496  10.337   8.840  0.2094  0.1107  0.3866
20822SOL    HW168303   0.500  10.383   8.756  0.4640  0.5252  0.6175
20822SOL    HW268304   0.408  10.302   8.844  0.2895 -0.1620 -0.1828
20823SOL     OW68305   2.857   6.488   1.851 -0.3030  0.1063  0.6475
20823SOL    HW168306   2.806   6.410   1.874  0.5982 -0.3386  1.2094
20823SOL    HW268307   2.937   6.480   1.903  0.7559  0.3072 -0.8783
20824SOL     OW68308   0.500   1.988   2.354  0.0435  0.5502 -0.4605
20824SOL    HW168309   0.465   2.037   2.427 -1.5288 -0.6884 -0.3377
20824SOL    HW268310   0.445   1.910   2.348  1.0929 -0.1319 -2.0018
20825SOL     OW68311   0.260   2.278   2.976 -0.0856  0.3256  0.9397
20825SOL    HW168312   0.223   2.190   2.971  1.9996 -0.5516 -0.5162
20825SOL    HW268313   0.341   2.267   3.026  0.3178  1.3567  0.5301
20826SOL     OW68314   9.680   7.288   3.905  0.5559 -0.5853 -0.4309
20826SOL    HW168315   9.590   7.289   3.872  0.6073 -0.4838 -0.5703
20826SOL    HW268316   9.695   7.377   3.937 -0.3176 -1.2768  2.1285
20827SOL     OW68317  11.248   3.673   3.384 -0.0591 -0.4449 -0.1298
20827SOL    HW168318  11.186   3.641   3.319 -1.5722 -0.3910  1.2247
20827SOL    HW268319  11.270   3.597   3.437 -2.2777  0.2471  1.9781
20828SOL     OW68320   2.348   8.165   7.630 -0.1633  0.0769  0.0712
20828SOL    HW168321   2.366   8.149   7.537  1.2671 -1.0579  0.5074
20828SOL    HW268322   2.358   8.259   7.640 -1.6440  0.4027 -1.1713
20829SOL     OW68323   0.595   3.580   0.228 -0.0428  0.3286  0.0336
20829SOL    HW168324   0.683   3.583   0.264  0.2105 -1.3715 -0.3329
20829SOL    HW268325   0.561   3.669   0.239  1.7041  1.0190  0.1482
20830SOL     OW68326   1.563   9.346   3.303  0.2575  0.1019 -0.0857
20830SOL    HW168327   1.608   9.313   3.381 -0.0004 -1.0509 -0.4049
20830SOL    HW268328   1.633   9.355   3.238  0.6320  1.9073  0.4850
20831SOL     OW68329   2.912  10.137   9.777 -0.3341 -0.5988  0.1455
20831SOL    HW168330   2.920  10.171   9.688 -2.0647 -1.2997 -0.3201
20831SOL    HW268331   2.998  10.102   9.797 -0.5964 -3.0805 -2.3969
20832SOL     OW68332   3.187   0.558   5.975 -0.1867 -0.2444 -0.0378
20832SOL    HW168333   3.235   0.590   5.899  3.2123  2.0717  2.7462
20832SOL    HW268334   3.212   0.465   5.982  1.3154  0.0896 -0.5266
20833SOL     OW68335   6.364   7.033   2.354 -0.1028 -0.2717  0.2817
20833SOL    HW168336   6.295   7.061   2.414  0.8605  0.0803  1.2470
20833SOL    HW268337   6.387   7.113   2.306  0.1251 -0.2253  0.4665
20834SOL     OW68338   2.811   0.278   6.560 -0.6328 -0.2773 -0.2608
20834SOL    HW168339   2.829   0.188   6.535 -1.4817 -0.4427 -0.3034
20834SOL    HW268340   2.723   0.276   6.596 -1.8867  0.9976 -2.9230
20835SOL     OW68341   6.640   2.632   8.211  0.1866  0.2193 -0.3258
20835SOL    HW168342   6.639   2.608   8.118 -1.5782  0.8437 -0.4986
20835SOL    HW268343   6.549   2.654   8.231  0.9023  2.1773  1.0184
20836SOL     OW68344   1.360   9.809   6.536 -0.6208  0.0221 -0.1696
20836SOL    HW168345   1.316   9.890   6.509 -1.1737 -0.2166 -0.0189
20836SOL    HW268346   1.424   9.836   6.601 -0.9679  0.3117  0.0527
20837SOL     OW68347   4.607   5.606   3.407 -0.1665 -0.1470  0.4071
20837SOL    HW168348   4.685   5.632   3.359 -0.4887 -1.3888 -0.8663
20837SOL    HW268349   4.629   5.620   3.499  0.3520  2.6193 -0.0601
20838SOL     OW68350   9.547   3.929  11.664  0.4648  0.2052 -0.6249
20838SOL    HW168351   9.546   3.996  11.595 -1.3653 -2.3966 -3.3920
20838SOL    HW268352   9.482   3.959  11.728  0.1951  1.3950 -1.4278
20839SOL     OW68353   6.655   6.520  11.737  0.1747  0.2866  0.3919
20839SOL    HW168354   6.573   6.516  11.785 -1.0344  0.7568 -1.4972
20839SOL    HW268355   6.665   6.432  11.700 -0.2020  0.5925 -0.4622
20840SOL     OW68356   8.529   0.719   4.990  0.4345  0.3672  0.1449
20840SOL    HW168357   8.571   0.699   4.907  2.3941  1.7446  0.7239
20840SOL    HW268358   8.536   0.637   5.040  2.1131  0.4198  0.0592
20841SOL     OW68359   1.006  10.020   2.694  0.0824 -0.0300  0.1786
20841SOL    HW168360   1.069  10.044   2.626  1.3660 -1.5408  0.7519
20841SOL    HW268361   1.042   9.939   2.731 -0.1068  1.1803  3.2329
20842SOL     OW68362   0.228   0.624  12.024  0.1212 -0.0190  0.0534
20842SOL    HW168363   0.206   0.552  11.965  1.1543 -0.8976  0.7022
20842SOL    HW268364   0.305   0.664  11.985 -0.3061  0.6032 -0.1756
20843SOL     OW68365   3.649  12.018  10.371  0.5850  0.5742 -0.4475
20843SOL    HW168366   3.627  12.093  10.316 -1.2052 -1.2295 -2.3756
20843SOL    HW268367   3.727  12.045  10.418 -0.5674  4.0132 -0.2288
20844SOL     OW68368  10.763   1.151  10.980  0.0877  0.5834  0.0282
20844SOL    HW168369  10.735   1.210  10.911 -1.4805 -1.5395 -1.2762
20844SOL    HW268370  10.690   1.148  11.041 -0.7019 -1.3430 -0.9105
20845SOL     OW68371  10.352   3.155  11.707  0.0141  0.6071  0.0185
20845SOL    HW168372  10.323   3.246  11.699 -0.9794  0.4241  1.1776
20845SOL    HW268373  10.273   3.103  11.690  0.6965 -0.0727 -1.1791
20846SOL     OW68374   2.698   2.164   7.481 -0.3064 -0.5394  0.2713
20846SOL    HW168375   2.776   2.167   7.425 -0.3491  0.4826  0.2561
20846SOL    HW268376   2.625   2.182   7.422 -0.2724  1.4611  0.7841
20847SOL     OW68377   8.321   4.735   5.463 -0.2295  0.2649 -0.4089
20847SOL    HW168378   8.337   4.669   5.396 -0.1531 -0.6353  0.4810
20847SOL    HW268379   8.286   4.810   5.415 -1.0800 -0.7020 -1.3332
20848SOL     OW68380   5.306  10.460   0.122  0.5296  0.2014  0.3347
20848SOL    HW168381   5.347  10.387   0.169  0.5764 -2.5917 -3.5823
20848SOL    HW268382   5.234  10.487   0.179  1.3693 -1.9367  2.6158
20849SOL     OW68383  10.863   9.303   7.508 -0.3632 -0.4602  0.4342
20849SOL    HW168384  10.931   9.286   7.573 -1.4412 -3.5083  0.9395
20849SOL    HW268385  10.906   9.286   7.424  0.2986  0.7231  0.5219
20850SOL     OW68386   2.720   8.038   8.411 -0.4467  0.1010  0.4637
20850SOL    HW168387   2.787   8.094   8.372  0.2498  0.0251  1.5276
20850SOL    HW268388   2.688   7.984   8.338 -0.4988  1.2452 -0.3828
20851SOL     OW68389   9.978   1.035   2.321 -0.0983 -0.1038  0.8067
20851SOL    HW168390   9.985   1.078   2.406 -1.8893  1.5255  0.2014
20851SOL    HW268391   9.884   1.025   2.307  0.1933 -1.1513 -0.5986
20852SOL     OW68392   0.577   1.514   9.408  0.1260 -0.3269  0.9512
20852SOL    HW168393   0.544   1.440   9.357  0.7108  0.2463 -0.3235
20852SOL    HW268394   0.571   1.486   9.499 -0.8385 -1.4471  0.5601
20853SOL     OW68395   0.669   6.581   1.368  0.0586 -0.0386 -0.0732
20853SOL    HW168396   0.620   6.629   1.435 -0.3260 -0.1178 -0.2989
20853SOL    HW268397   0.606   6.520   1.330  0.2857 -0.0239 -0.4851
20854SOL     OW68398   6.480  11.338   4.251  0.1412 -0.0866 -0.5950
20854SOL    HW168399   6.432  11.411   4.289  2.0997  1.0349 -0.1780
20854SOL    HW268400   6.412  11.272   4.233 -1.1870  0.1392  2.8585
20855SOL     OW68401   5.336  12.106   7.071  0.0532 -0.5085  0.4135
20855SOL    HW168402   5.408  12.123   7.010  0.3857  2.1440  1.3938
20855SOL    HW268403   5.258  12.133   7.023 -0.0534 -1.3483  0.1046
20856SOL     OW68404   3.450   6.475   1.355  0.2787  0.3008  0.4522
20856SOL    HW168405   3.384   6.424   1.403 -1.3621  1.0586 -0.8735
20856SOL    HW268406   3.533   6.432   1.374 -0.7922 -1.6503  0.9663
20857SOL     OW68407   7.199   0.804   4.740  0.0930  0.2176 -0.0514
20857SOL    HW168408   7.200   0.898   4.727 -1.0536  0.0478 -1.7269
20857SOL    HW268409   7.154   0.769   4.663 -1.5968 -1.5293  1.5958
20858SOL     OW68410   9.810   9.051   4.889 -0.1225 -0.3808 -0.0539
20858SOL    HW168411   9.789   9.138   4.855  1.4942 -0.0424 -0.2659
20858SOL    HW268412   9.830   9.065   4.981 -0.5989 -0.6527  0.0913
20859SOL     OW68413  10.390   2.206   2.240  0.5180  0.3804 -0.0937
20859SOL    HW168414  10.384   2.131   2.180  0.1053 -0.2986  0.7718
20859SOL    HW268415  10.382   2.282   2.183 -2.1929 -0.2496 -0.7159
20860SOL     OW68416   0.982  11.725   0.291  0.0150 -0.2325 -0.4080
20860SOL    HW168417   1.074  11.730   0.264 -0.0056  0.4966 -0.3623
20860SOL    HW268418   0.982  11.666   0.366  0.3840 -0.5707 -0.6692
20861SOL     OW68419   7.735  11.780   8.116  0.3238 -0.4543  0.0456
20861SOL    HW168420   7.825  11.747   8.115 -0.2891 -2.2718 -0.6627
20861SOL    HW268421   7.710  11.787   8.024  0.2256  1.5969  0.1835
20862SOL     OW68422   0.974  11.569   6.592  0.2189  0.0579  0.7518
20862SOL    HW168423   0.950  11.509   6.521  0.5939  0.5128  0.2305
20862SOL    HW268424   0.897  11.623   6.606  0.8933  1.5622 -0.9622
20863SOL     OW68425   9.035   0.654   4.129  0.2303  0.0603 -0.0709
20863SOL    HW168426   9.024   0.743   4.095  1.6509  1.0665  1.8666
20863SOL    HW268427   9.001   0.598   4.060 -1.4041  2.1239 -1.0716
20864SOL     OW68428   8.129   6.159   2.387  0.1679 -0.9527  0.0018
20864SOL    HW168429   8.221   6.157   2.362 -0.2637 -0.2487 -1.8013
20864SOL    HW268430   8.081   6.146   2.305 -1.3457 -0.7386  0.8061
20865SOL     OW68431   5.967   3.367   7.582  0.1466  0.0496  0.1113
20865SOL    HW168432   5.986   3.428   7.654  0.8877 -0.2849  0.2090
20865SOL    HW268433   5.879   3.334   7.601 -0.4063  1.3342 -0.1238
20866SOL     OW68434   0.556   2.902   8.173 -0.6164  0.0122 -0.0796
20866SOL    HW168435   0.546   2.813   8.207 -1.5170  0.2140  0.2055
20866SOL    HW268436   0.650   2.911   8.158  0.3288  0.6824  4.6207
20867SOL     OW68437  11.558   1.500   1.352  0.1526 -0.5330  0.1806
20867SOL    HW168438  11.538   1.440   1.280  1.1206 -0.2268 -0.3496
20867SOL    HW268439  11.476   1.548   1.366 -0.7462 -2.1809  0.8299
20868SOL     OW68440  12.158   2.830   3.282  0.5881 -0.2490  0.2840
20868SOL    HW168441  12.214   2.864   3.352  1.6459  3.2316 -1.9614
20868SOL    HW268442  12.215   2.830   3.205 -1.6936  0.6782 -1.5058
20869SOL     OW68443   1.523   6.238   8.920 -0.3326 -0.2998  0.3423
20869SOL    HW168444   1.583   6.308   8.896  0.8727 -1.0706  0.9716
20869SOL    HW268445   1.501   6.195   8.838  2.1183 -1.6533  0.3133
20870SOL     OW68446  10.159   6.107   4.963 -0.5103  0.6085  0.0076
20870SOL    HW168447  10.064   6.110   4.974 -0.7974  0.0019 -1.9336
20870SOL    HW268448  10.186   6.199   4.966 -1.2502  0.8387 -0.1103
20871SOL     OW68449   4.318   6.056   5.687  0.4535 -0.6643 -0.2713
20871SOL    HW168450   4.271   6.099   5.758  0.4158 -0.0278 -0.6744
20871SOL    HW268451   4.268   5.976   5.669 -0.2646 -0.1813 -0.4446
20872SOL     OW68452   3.970  12.008   8.234 -0.0772  0.1763  0.4060
20872SOL    HW168453   3.950  11.954   8.158  1.5226 -0.0563  0.1076
20872SOL    HW268454   3.909  12.082   8.229 -0.7707 -0.4424 -0.4361
20873SOL     OW68455   4.818   0.005   6.513 -0.2064  0.1499  0.3683
20873SOL    HW168456   4.891   0.052   6.472  0.0227 -2.2276 -2.2684
20873SOL    HW268457   4.740   0.056   6.488  0.2985  1.0828  0.6598
20874SOL     OW68458   2.641   0.445  12.160  0.5722  0.1964  0.1168
20874SOL    HW168459   2.631   0.363  12.207 -2.1901 -0.1839 -0.9230
20874SOL    HW268460   2.666   0.419  12.071  2.7457  0.7356  0.5061
20875SOL     OW68461   5.866   1.528   5.639 -0.5411 -0.1114 -0.2562
20875SOL    HW168462   5.805   1.455   5.633 -1.5001  0.6650 -0.3134
20875SOL    HW268463   5.936   1.498   5.697 -0.6208 -1.2600 -0.7395
20876SOL     OW68464  10.083   5.603   9.182 -0.0859 -0.2918 -0.0400
20876SOL    HW168465  10.008   5.560   9.140 -1.4549  0.8577  1.1432
20876SOL    HW268466  10.085   5.567   9.270  0.5155 -0.0300  0.0546
20877SOL     OW68467   1.528   4.551   6.509  0.3217  0.1412 -0.4760
20877SOL    HW168468   1.485   4.597   6.580 -1.4903 -0.7945 -0.9001
20877SOL    HW268469   1.534   4.615   6.438  2.1981  1.0979  0.4536
20878SOL     OW68470   2.234   3.224   2.734 -0.4322  0.1364  0.5031
20878SOL    HW168471   2.263   3.142   2.694 -0.1617  0.4437  0.0621
20878SOL    HW268472   2.220   3.283   2.660 -3.5861 -0.4094  0.5468
20879SOL     OW68473   4.590   5.901  10.188 -0.2574 -0.0756 -0.5522
20879SOL    HW168474   4.566   5.957  10.262 -2.6823 -2.0878  0.3297
20879SOL    HW268475   4.677   5.869  10.210  0.8973  2.6803 -0.7471
20880SOL     OW68476  11.134   6.510   6.725  0.1401  0.3692 -0.1310
20880SOL    HW168477  11.204   6.532   6.664  1.5063  0.7796  1.5188
20880SOL    HW268478  11.162   6.547   6.808 -0.5836 -2.0770  1.2815
20881SOL     OW68479   5.831  11.871   2.119 -0.1725  1.0573 -0.2720
20881SOL    HW168480   5.849  11.863   2.212 -3.8321  0.9881  0.5612
20881SOL    HW268481   5.915  11.895   2.080  2.1902 -1.8763  2.5485
20882SOL     OW68482   0.769   8.122   0.194  0.2871  0.1512  0.0217
20882SOL    HW168483   0.814   8.105   0.111  2.6331 -0.2882  1.2828
20882SOL    HW268484   0.835   8.166   0.248 -0.4203 -1.5062  2.3926
20883SOL     OW68485  10.497   6.900  12.258  0.0238  0.0614  0.0877
20883SOL    HW168486  10.584   6.923  12.291 -0.3108  0.9153  0.4051
20883SOL    HW268487  10.511   6.821  12.206  0.6285 -1.0964  1.9331
20884SOL     OW68488   7.120   8.693   9.236 -0.3941  0.2916  0.5936
20884SOL    HW168489   7.123   8.640   9.315 -1.4777 -1.9732 -0.7796
20884SOL    HW268490   7.091   8.779   9.265  0.4078 -0.1284  2.7788
20885SOL     OW68491   7.585   9.237   5.112  0.2121  0.5430 -0.4655
20885SOL    HW168492   7.544   9.158   5.147  0.1029 -0.1393 -2.0260
20885SOL    HW268493   7.616   9.285   5.189  1.6230 -1.7365  0.4736
20886SOL     OW68494   3.689   5.751   0.395  0.1856  0.4366  0.7377
20886SOL    HW168495   3.642   5.795   0.325  0.2535 -1.1093 -0.3152
20886SOL    HW268496   3.662   5.797   0.475 -0.9550  1.3398 -0.1435
20887SOL     OW68497   7.616  11.662   9.335 -0.4644 -0.3999  0.1963
20887SOL    HW168498   7.554  11.592   9.359 -0.1684 -0.9232 -0.5253
20887SOL    HW268499   7.702  11.627   9.359 -0.1072 -1.1420 -1.9723
20888SOL     OW68500   4.194   7.609   8.528 -0.5662 -0.0830 -0.0773
20888SOL    HW168501   4.201   7.559   8.609 -1.2771  1.5744  1.0759
20888SOL    HW268502   4.277   7.658   8.523 -0.7581  0.2472 -0.0445
20889SOL     OW68503   4.939  10.540   7.266  0.4780 -0.7910  0.7394
20889SOL    HW168504   4.906  10.630   7.257 -1.0103 -1.2146  1.6099
20889SOL    HW268505   4.884  10.489   7.207  0.5041 -1.3036  1.1533
20890SOL     OW68506  10.174   0.690   4.233  0.4481  0.4220  0.4872
20890SOL    HW168507  10.088   0.664   4.199 -0.4573  2.7486  0.8188
20890SOL    HW268508  10.233   0.621   4.205 -1.7443 -1.9717  1.3856
20891SOL     OW68509   2.577   3.513   4.920  0.0396  0.7242 -0.6059
20891SOL    HW168510   2.499   3.529   4.973  0.2721  0.6228 -0.2281
20891SOL    HW268511   2.638   3.581   4.949  0.5724 -0.0240  0.0750
20892SOL     OW68512   1.314   0.102   3.303  0.0295  0.4258 -0.0464
20892SOL    HW168513   1.354   0.057   3.378 -1.4246 -1.4346 -0.3158
20892SOL    HW268514   1.347   0.055   3.227  0.6050  1.5942 -0.5472
20893SOL     OW68515   6.898   9.749   5.171  0.0842 -0.0001 -0.0318
20893SOL    HW168516   6.985   9.738   5.209 -0.2935 -3.4366  0.2383
20893SOL    HW268517   6.908   9.819   5.107  2.8791  0.1813  0.4684
20894SOL     OW68518   1.243   8.039   0.924 -0.2064 -0.1982 -0.3398
20894SOL    HW168519   1.295   8.021   0.846 -2.3563 -2.7550 -1.3384
20894SOL    HW268520   1.153   8.022   0.897 -1.1493 -0.0210  2.4007
20895SOL     OW68521   8.449   0.688   9.997  0.0182  0.3529  0.8494
20895SOL    HW168522   8.392   0.613   9.982  1.4133 -1.0224  2.0794
20895SOL    HW268523   8.389   0.763  10.000 -1.6224 -0.9161  1.3505
20896SOL     OW68524   4.016   2.139   5.158  0.4385 -0.2291 -0.4886
20896SOL    HW168525   3.938   2.168   5.111  0.7890  0.4414 -0.6661
20896SOL    HW268526   3.992   2.053   5.193 -0.2810 -0.1524 -0.7734
20897SOL     OW68527   9.391   2.798   8.680 -0.0389 -0.0581 -0.0411
20897SOL    HW168528   9.394   2.806   8.584 -1.2992  0.7017 -0.0408
20897SOL    HW268529   9.298   2.795   8.700  0.2092  0.2202  1.2096
20898SOL     OW68530   7.077   4.430   8.225 -0.0402 -0.4571 -0.1006
20898SOL    HW168531   7.166   4.393   8.223 -0.2132 -1.1131  1.7913
20898SOL    HW268532   7.025   4.367   8.176  0.3787 -0.6053 -0.3657
20899SOL     OW68533  10.847   3.960   0.490 -0.5577  0.5431  0.5583
20899SOL    HW168534  10.837   3.924   0.402 -0.4880  0.1909  0.6966
20899SOL    HW268535  10.775   3.923   0.540  0.8502 -1.3075  1.3251
20900SOL     OW68536   6.399   7.598   1.526 -0.3646 -0.1868 -0.1957
20900SOL    HW168537   6.332   7.592   1.459 -1.9838 -0.7476  1.4014
20900SOL    HW268538   6.478   7.626   1.479 -1.8535  1.1829 -2.0075
20901SOL     OW68539   3.231   7.325   1.107  0.3365  0.2649  0.1139
20901SOL    HW168540   3.266   7.308   1.019 -2.5861 -0.7400 -0.9874
20901SOL    HW268541   3.266   7.255   1.161 -0.1514 -0.9037 -1.0145
20902SOL     OW68542   4.014  11.932   2.606 -0.5398 -0.3397 -0.0051
20902SOL    HW168543   3.985  12.016   2.640  0.6682  0.7040 -1.4597
20902SOL    HW268544   3.938  11.896   2.560 -1.1769 -0.2528  0.9670
20903SOL     OW68545  11.596   8.544  11.036  0.2561 -0.0578 -0.5431
20903SOL    HW168546  11.541   8.603  11.088  0.3391  1.6273 -2.2491
20903SOL    HW268547  11.677   8.593  11.021  0.1878 -0.4140 -2.3377
20904SOL     OW68548   6.077   3.068   4.876 -0.0321 -0.4954  0.3316
20904SOL    HW168549   6.095   3.148   4.828  0.1257 -1.2935 -0.9895
20904SOL    HW268550   6.044   3.098   4.961  0.6281  0.9513  0.1085
20905SOL     OW68551   2.432  10.745   6.603 -0.2133  0.5119  0.6334
20905SOL    HW168552   2.471  10.659   6.594  1.5024  1.4092 -1.4203
20905SOL    HW268553   2.383  10.741   6.685  0.5924 -2.0767  1.0747
20906SOL     OW68554   1.983   5.992   7.905 -0.3402  0.5812 -0.3968
20906SOL    HW168555   1.984   5.936   7.827 -1.3358  1.3644 -1.0030
20906SOL    HW268556   2.028   5.941   7.972  0.5825 -0.0956 -1.4955
20907SOL     OW68557   0.063   2.008   3.376  0.1622  0.0896  0.3643
20907SOL    HW168558   0.122   2.026   3.449  0.6439 -1.3547  0.3672
20907SOL    HW268559   0.117   1.963   3.312 -0.7171 -0.4255 -0.0416
20908SOL     OW68560  10.846   3.345   1.565 -0.1607 -0.1038  0.2662
20908SOL    HW168561  10.773   3.407   1.563 -2.3732 -2.5464 -0.1360
20908SOL    HW268562  10.870   3.333   1.473  1.1790  1.0781  0.4272
20909SOL     OW68563   8.833   7.330   5.613 -0.3153 -0.4799  0.2020
20909SOL    HW168564   8.822   7.419   5.647 -1.4519 -1.1706  1.7867
20909SOL    HW268565   8.745   7.291   5.620 -0.2079 -1.2530 -1.9524
20910SOL     OW68566   5.548   3.817   3.517  0.1577  0.2622 -0.0564
20910SOL    HW168567   5.585   3.851   3.436  2.8551  2.2404  1.7884
20910SOL    HW268568   5.468   3.868   3.530 -1.1513 -1.1363 -2.0904
20911SOL     OW68569  11.365   7.657   1.839  0.2329  0.6875 -1.0149
20911SOL    HW168570  11.353   7.713   1.916  0.4228  1.5689 -1.6092
20911SOL    HW268571  11.307   7.694   1.773 -0.5340 -0.5483 -1.0623
20912SOL     OW68572   6.059   7.757   6.964  0.4486 -0.8217 -0.3657
20912SOL    HW168573   6.143   7.787   7.000  0.5378 -1.3769 -0.0854
20912SOL    HW268574   6.054   7.665   6.992 -1.0313 -0.3451  1.0461
20913SOL     OW68575   1.663   0.964   6.205  0.0543 -0.0964  0.1863
20913SOL    HW168576   1.749   0.929   6.230  0.4203  0.0763 -0.8110
20913SOL    HW268577   1.607   0.942   6.279  0.3323 -2.5236 -0.2224
20914SOL     OW68578   4.974   2.809   2.415  0.2139  0.7108 -0.1161
20914SOL    HW168579   4.926   2.891   2.410 -1.4403 -0.2647 -1.8343
20914SOL    HW268580   4.910   2.746   2.448  1.0306 -0.1471 -0.1349
20915SOL     OW68581   3.595  10.625   4.515  0.3932  0.6894  0.1297
20915SOL    HW168582   3.645  10.597   4.591  2.9054  0.9207 -1.3223
20915SOL    HW268583   3.503  10.615   4.541  1.1571 -1.5327  2.2956
20916SOL     OW68584  10.329   9.552  11.476 -0.6988  0.0783 -0.2354
20916SOL    HW168585  10.289   9.611  11.540  0.8131  1.4953 -0.5211
20916SOL    HW268586  10.282   9.469  11.486 -2.9971  1.3545  0.0806
20917SOL     OW68587   1.025   2.284   3.874 -0.2486 -0.1529 -0.1186
20917SOL    HW168588   0.982   2.202   3.850 -0.5946 -0.0917  0.2807
20917SOL    HW268589   1.012   2.341   3.798 -1.8888  0.2548  0.4398
20918SOL     OW68590  11.174   2.229   1.716  0.0900 -0.3237 -0.4975
20918SOL    HW168591  11.131   2.210   1.632 -0.6378  1.2583 -0.5244
20918SOL    HW268592  11.120   2.185   1.781 -0.4026 -0.0591 -0.7199
20919SOL     OW68593   4.969   4.894   2.947 -0.1370 -0.3867 -0.0518
20919SOL    HW168594   5.029   4.883   3.022 -0.1925 -0.5007 -0.0247
20919SOL    HW268595   5.026   4.885   2.870  0.0364  0.3546 -0.0246
20920SOL     OW68596   7.274  11.916   4.646 -0.0794 -0.0591 -0.2232
20920SOL    HW168597   7.308  11.977   4.711 -0.5424  0.0985 -0.1220
20920SOL    HW268598   7.234  11.972   4.579  1.8117 -0.1383 -1.4942
20921SOL     OW68599  10.214  10.388   8.431 -0.6904  0.7041  0.7548
20921SOL    HW168600  10.303  10.417   8.415 -1.1950  1.9353  0.0708
20921SOL    HW268601  10.173  10.458   8.481 -0.6575 -0.8370  3.1050
20922SOL     OW68602   7.128   2.872   4.425  0.5040 -0.3742 -0.1261
20922SOL    HW168603   7.138   2.912   4.339  2.2513 -1.9672 -0.7308
20922SOL    HW268604   7.165   2.936   4.486  1.7659 -0.3606 -0.8842
20923SOL     OW68605   6.490  10.464   2.843  0.1679 -0.3926 -0.0124
20923SOL    HW168606   6.549  10.518   2.896  0.8198  0.6778 -1.7379
20923SOL    HW268607   6.404  10.479   2.881  0.3542  1.7573 -0.3069
20924SOL     OW68608   5.146   5.597   9.199  0.1658 -0.4083  0.7391
20924SOL    HW168609   5.068   5.548   9.176  0.9241 -1.0202 -0.6363
20924SOL    HW268610   5.113   5.680   9.234 -1.0996 -0.4638 -0.2571
20925SOL     OW68611  10.420  12.317  11.841  0.8785  0.8032  1.0700
20925SOL    HW168612  10.475  12.241  11.860  0.7160  0.6286  0.8294
20925SOL    HW268613  10.399  12.310  11.748 -0.5415  0.2117  1.4045
20926SOL     OW68614   7.629  11.454  12.306 -0.2050  0.6867 -0.0060
20926SOL    HW168615   7.666  11.466  12.218 -0.3100  0.2087 -0.1184
20926SOL    HW268616   7.704  11.462  12.364 -0.0406  0.4573 -0.1816
20927SOL     OW68617   0.233  10.942   3.845 -0.3941  0.0227 -0.4051
20927SOL    HW168618   0.186  10.904   3.771  1.0467 -0.9115 -0.8762
20927SOL    HW268619   0.314  10.976   3.807  0.0883  0.0826  0.6412
20928SOL     OW68620  10.694   3.141   9.508 -0.3690 -0.4815 -0.3437
20928SOL    HW168621  10.681   3.198   9.433  0.4210  0.7235  0.3994
20928SOL    HW268622  10.623   3.077   9.503 -0.3927 -0.3508 -2.0301
20929SOL     OW68623   2.630   4.200   0.795  1.1813  0.3724  0.2648
20929SOL    HW168624   2.684   4.126   0.825  2.9768  1.3561 -0.3927
20929SOL    HW268625   2.598   4.173   0.710  2.5942  0.6612 -0.3916
20930SOL     OW68626  11.954   8.960   1.123 -0.1481  0.1101 -0.5015
20930SOL    HW168627  11.933   9.052   1.134 -1.5325 -0.1180 -1.0081
20930SOL    HW268628  12.050   8.957   1.119  0.0336  1.2901  1.4475
20931SOL     OW68629   5.703   9.362   0.497  0.9013  0.1251 -0.2064
20931SOL    HW168630   5.702   9.266   0.488 -1.6454  0.2334 -2.0197
20931SOL    HW268631   5.617   9.390   0.467  1.8731  3.0820 -0.5497
20932SOL     OW68632   4.113   7.560   7.575  0.3243 -0.2099  0.1533
20932SOL    HW168633   4.019   7.567   7.561  0.6849  1.5301 -1.9202
20932SOL    HW268634   4.130   7.619   7.649 -0.0480  0.8485 -0.5733
20933SOL     OW68635   1.265   0.432   2.993  0.5884 -0.1293  0.4654
20933SOL    HW168636   1.340   0.417   3.050  1.6867 -0.0993 -0.9246
20933SOL    HW268637   1.261   0.354   2.938  0.2144  0.3202 -0.1509
20934SOL     OW68638   5.828   6.417  12.170  0.3967 -0.0320 -0.3565
20934SOL    HW168639   5.843   6.493  12.225  0.4682  0.5988 -1.2313
20934SOL    HW268640   5.896   6.422  12.103  1.4530 -1.7568  0.4932
20935SOL     OW68641  10.871   7.690   5.960 -0.0423 -0.1032 -0.2518
20935SOL    HW168642  10.828   7.612   5.926 -1.0814  0.1951  0.3288
20935SOL    HW268643  10.820   7.713   6.038  1.6586 -0.1875  0.9223
20936SOL     OW68644   4.230   9.450   7.798 -0.2206 -0.0811  0.8120
20936SOL    HW168645   4.140   9.427   7.819 -0.8763  1.7244  0.1374
20936SOL    HW268646   4.242   9.419   7.708 -0.5393  0.6518  0.5121
20937SOL     OW68647   8.731   2.466   3.409  0.6236 -0.6418 -0.4904
20937SOL    HW168648   8.748   2.392   3.467 -2.0604 -0.7925  0.2340
20937SOL    HW268649   8.694   2.427   3.330  0.7657 -0.1883 -0.7814
20938SOL     OW68650   0.364   4.359   7.067 -0.0168 -0.0621 -0.1287
20938SOL    HW168651   0.363   4.424   7.137  0.9458  0.5050 -0.6291
20938SOL    HW268652   0.314   4.285   7.103 -3.0466  1.7144 -0.3200
20939SOL     OW68653   0.122   6.027   7.720 -0.4808  0.1998  0.6697
20939SOL    HW168654   0.114   5.941   7.763 -2.3165  0.2554  0.5362
20939SOL    HW268655   0.059   6.023   7.648 -1.2748  1.9646  1.2124
20940SOL     OW68656   2.699   5.429   0.443  0.1798  0.5300 -0.2860
20940SOL    HW168657   2.699   5.401   0.351  0.1142 -0.4594  0.0057
20940SOL    HW268658   2.680   5.523   0.439 -0.0910  0.4478 -1.2676
20941SOL     OW68659   7.628  12.019   2.486 -0.1902 -0.9685  0.4845
20941SOL    HW168660   7.658  12.072   2.412 -1.3222 -0.9675  0.0004
20941SOL    HW268661   7.708  11.991   2.529  0.4953 -0.9015 -0.6933
20942SOL     OW68662   9.963   0.910   4.925 -0.4529 -0.4443  0.3241
20942SOL    HW168663   9.936   1.002   4.931  1.6208  0.2485 -0.1256
20942SOL    HW268664   9.995   0.901   4.836  0.4423 -1.2840  0.7210
20943SOL     OW68665   3.412   4.102  11.180 -0.4370  0.1571  0.2152
20943SOL    HW168666   3.507   4.106  11.178 -0.3418 -1.4149 -0.0419
20943SOL    HW268667   3.386   4.108  11.088 -0.8646  3.9119  0.4076
20944SOL     OW68668   8.823   9.914   8.390 -0.8066  0.4370  0.2721
20944SOL    HW168669   8.902   9.922   8.443  0.8686 -1.0360 -1.8081
20944SOL    HW268670   8.847   9.954   8.306 -2.2385 -0.1380 -0.4435
20945SOL     OW68671   6.726   3.836  11.342 -0.3187 -0.0913  0.5425
20945SOL    HW168672   6.749   3.744  11.343 -0.0874 -0.0381  0.1856
20945SOL    HW268673   6.731   3.863  11.434  2.4791  0.2678  0.3643
20946SOL     OW68674   5.031   5.935   5.165 -0.1315  0.3938 -0.1542
20946SOL    HW168675   5.013   5.953   5.257 -1.3307  1.1268 -0.5012
20946SOL    HW268676   5.003   6.014   5.119  0.7220  0.1546 -1.1290
20947SOL     OW68677   5.528   0.291   3.233  0.3157 -0.5023  0.6748
20947SOL    HW168678   5.608   0.341   3.221 -0.5225  0.3588 -2.1118
20947SOL    HW268679   5.552   0.201   3.210  0.6793 -0.4315  0.7729
20948SOL     OW68680   1.346   7.224   9.556 -0.1286 -0.0922 -0.1160
20948SOL    HW168681   1.395   7.305   9.546 -0.2265 -0.0364 -0.1464
20948SOL    HW268682   1.257   7.252   9.577 -0.5834 -0.1308 -1.8350
20949SOL     OW68683   2.262   3.891   4.649  0.4491  0.0072 -0.3554
20949SOL    HW168684   2.347   3.865   4.683  1.1587  1.0688 -1.2447
20949SOL    HW268685   2.211   3.810   4.647  1.8014 -0.8591 -0.8701
20950SOL     OW68686   2.834   1.776  11.418  0.2290 -0.2455  0.1283
20950SOL    HW168687   2.884   1.759  11.338 -1.9233  0.0914 -1.4052
20950SOL    HW268688   2.796   1.863  11.404 -1.0829 -0.6482  0.9885
20951SOL     OW68689   7.852   0.062   7.402  0.3646  0.2329 -0.2871
20951SOL    HW168690   7.851  -0.030   7.426  1.4875  0.0075 -1.0637
20951SOL    HW268691   7.851   0.109   7.486 -0.3891 -0.4646  0.1048
20952SOL     OW68692  12.149   2.904   2.534  0.0116  0.4812 -0.1119
20952SOL    HW168693  12.103   2.899   2.618 -0.1705  1.9551 -0.0988
20952SOL    HW268694  12.230   2.951   2.554  1.2642 -1.4724 -0.2711
20953SOL     OW68695   6.281   1.890   4.247 -0.3288  0.0961  0.2238
20953SOL    HW168696   6.244   1.974   4.276 -0.9456 -0.7161  1.8962
20953SOL    HW268697   6.376   1.905   4.248 -0.4626  1.2514 -1.0961
20954SOL     OW68698   8.480   6.481  11.624 -0.3379 -0.4958  0.1678
20954SOL    HW168699   8.568   6.443  11.621  0.8546  1.8801  1.8287
20954SOL    HW268700   8.433   6.428  11.689 -0.3131 -2.0281 -1.0149
20955SOL     OW68701   1.372   3.182   5.687 -0.4941 -0.0519  0.4755
20955SOL    HW168702   1.372   3.224   5.773 -0.1830  1.2539 -0.1223
20955SOL    HW268703   1.430   3.106   5.697 -0.2126  0.2670  1.3423
20956SOL     OW68704  11.447   0.076   4.360  0.3061  0.0469  0.5239
20956SOL    HW168705  11.409  -0.006   4.394  0.2461 -0.1583 -0.0286
20956SOL    HW268706  11.491   0.050   4.279 -2.9323  1.1321 -1.8173
20957SOL     OW68707   7.206  10.545   8.802  0.3731 -0.1527 -0.2360
20957SOL    HW168708   7.195  10.629   8.758 -1.0584 -0.3799 -0.3535
20957SOL    HW268709   7.298  10.544   8.830  0.7615  0.8660 -1.4082
20958SOL     OW68710   1.973   6.452  12.314 -0.1487 -0.0293  0.4046
20958SOL    HW168711   2.055   6.468  12.268 -0.2189 -1.4504 -0.2588
20958SOL    HW268712   1.906   6.491  12.258 -0.0212  0.2746  0.4616
20959SOL     OW68713   0.565   7.738  11.298  0.3508 -0.0767  0.5135
20959SOL    HW168714   0.485   7.689  11.281  1.2871 -2.0411  1.4461
20959SOL    HW268715   0.551   7.779  11.383  0.1920 -0.1101  0.5022
20960SOL     OW68716   2.361   7.986   8.136 -0.0208  0.7354 -0.3455
20960SOL    HW168717   2.357   8.011   8.044  1.9299  0.1432 -0.6365
20960SOL    HW268718   2.350   8.069   8.184 -1.7912  0.9502 -1.0419
20961SOL     OW68719   2.531   3.886  10.178 -0.1462 -0.2665  0.2140
20961SOL    HW168720   2.584   3.807  10.184  0.1119 -0.3599 -2.2958
20961SOL    HW268721   2.489   3.893  10.264  1.6418 -1.7902  1.3033
20962SOL     OW68722   4.229   7.829   5.882 -0.4570 -0.5082 -0.3071
20962SOL    HW168723   4.275   7.747   5.900 -0.0743 -0.1805  0.2562
20962SOL    HW268724   4.273   7.894   5.937 -0.6326  0.1178 -0.8851
20963SOL     OW68725   0.531   2.146   4.331  0.2264 -0.1317  0.5129
20963SOL    HW168726   0.578   2.197   4.396  3.8869 -1.0023 -1.2327
20963SOL    HW268727   0.496   2.211   4.270  0.4002  0.4915  1.0625
20964SOL     OW68728   5.396   3.426   6.101  0.3431  0.2258 -0.0946
20964SOL    HW168729   5.388   3.385   6.187  0.1666  0.5080  0.0222
20964SOL    HW268730   5.366   3.359   6.039 -0.9885  0.5505  0.1740
20965SOL     OW68731   0.296   2.506   0.517 -0.0538  0.0060 -0.1625
20965SOL    HW168732   0.285   2.435   0.580 -0.9927  0.4130  0.1574
20965SOL    HW268733   0.270   2.469   0.433 -2.2718  0.4175  0.2764
20966SOL     OW68734   4.750  11.269  11.197 -0.0492  0.3486 -0.6262
20966SOL    HW168735   4.665  11.241  11.163  0.2886 -1.1527 -0.2995
20966SOL    HW268736   4.745  11.251  11.291  0.8086 -0.2683 -0.6883
20967SOL     OW68737   3.462   3.474   7.933 -0.3949 -0.7548  0.3372
20967SOL    HW168738   3.468   3.380   7.945  1.5505 -0.5194  1.6007
20967SOL    HW268739   3.535   3.496   7.876  0.1203  0.1667  1.3162
20968SOL     OW68740  10.911   0.959   9.890  0.1924  0.0999  0.2512
20968SOL    HW168741  10.994   1.006   9.899 -0.2984  0.9057  0.7054
20968SOL    HW268742  10.927   0.874   9.930  0.9497  0.0565 -0.1276
20969SOL     OW68743   9.757   1.601   3.067 -0.1633 -0.0557 -0.6043
20969SOL    HW168744   9.810   1.654   3.009  0.8464  1.2009  1.3508
20969SOL    HW268745   9.706   1.664   3.118 -2.0687 -1.1660 -1.0521
20970SOL     OW68746   7.235   9.016   4.687  0.6200  0.3033  0.2193
20970SOL    HW168747   7.236   8.923   4.666  0.0433  0.2474  0.4285
20970SOL    HW268748   7.260   9.020   4.780  0.1690  0.3147  0.3443
20971SOL     OW68749  10.867   5.287   3.740 -0.3837  0.7919 -0.9321
20971SOL    HW168750  10.857   5.373   3.699  0.2834  0.7910 -1.1165
20971SOL    HW268751  10.810   5.230   3.689 -0.1842  0.9570 -1.3462
20972SOL     OW68752   3.132   9.627  12.008 -0.4867 -0.0336 -0.0571
20972SOL    HW168753   3.050   9.648  12.052 -0.6481 -0.9258  0.0781
20972SOL    HW268754   3.144   9.533  12.021  1.1757  0.2803  0.9552
20973SOL     OW68755   8.233   7.263   8.398 -0.8098 -0.3462 -0.0601
20973SOL    HW168756   8.161   7.201   8.402 -1.1579  0.0463 -0.2413
20973SOL    HW268757   8.239   7.287   8.306 -0.5497 -0.2545 -0.0209
20974SOL     OW68758   7.149   7.239   2.016  0.4093 -0.3151  0.6970
20974SOL    HW168759   7.134   7.303   2.086 -1.3096  1.6634 -1.3245
20974SOL    HW268760   7.204   7.285   1.952 -0.6038 -0.9205 -0.6584
20975SOL     OW68761   0.410   3.090   8.501 -0.1562  0.0271 -0.1965
20975SOL    HW168762   0.366   3.041   8.571 -2.3612  0.1290 -1.4193
20975SOL    HW268763   0.378   3.049   8.421  1.3842  0.6908 -1.1762
20976SOL     OW68764   8.073   5.356   1.164  0.1146  0.0520  0.3123
20976SOL    HW168765   8.154   5.404   1.177  0.2717 -0.4272  1.1571
20976SOL    HW268766   8.054   5.316   1.249 -1.0622  0.2451  0.1615
20977SOL     OW68767   5.073   7.249  10.526 -0.4615 -0.4644  0.2903
20977SOL    HW168768   5.024   7.167  10.531  0.8953 -1.2313  2.5688
20977SOL    HW268769   5.049   7.296  10.606  1.4795 -0.2969  0.8287
20978SOL     OW68770   7.567   0.754  11.985 -0.3913 -0.1207  0.1845
20978SOL    HW168771   7.628   0.686  11.956 -1.1286 -0.8816  0.3689
20978SOL    HW268772   7.504   0.763  11.913 -0.4639  0.1597  0.2801
20979SOL     OW68773   9.726   5.504   4.192 -0.3135 -0.5626 -0.0815
20979SOL    HW168774   9.811   5.505   4.147 -1.1655  0.3508 -1.7801
20979SOL    HW268775   9.739   5.445   4.266  1.9891  0.0652  0.1118
20980SOL     OW68776   8.519  11.415   3.394  0.5494  0.2182  0.0219
20980SOL    HW168777   8.610  11.425   3.367  0.8691  0.7256  1.2082
20980SOL    HW268778   8.472  11.482   3.344  0.8235 -0.0632 -0.6122
20981SOL     OW68779  10.436   9.607   6.011 -0.6570  0.1196  0.3060
20981SOL    HW168780  10.370   9.538   6.018 -0.5249  0.0731  1.1825
20981SOL    HW268781  10.492   9.579   5.937  0.2042 -1.4230  1.4743
20982SOL     OW68782  11.571  10.121   6.413  0.1384  0.5852 -0.2108
20982SOL    HW168783  11.538  10.210   6.411 -3.5022 -0.5892  0.7034
20982SOL    HW268784  11.552  10.085   6.326  0.9513  0.4670 -0.3501
20983SOL     OW68785  11.911  10.199   5.373 -0.0553 -0.1352  0.2692
20983SOL    HW168786  11.882  10.122   5.423 -1.5290  1.4689  2.0365
20983SOL    HW268787  12.004  10.206   5.391  0.0308 -1.3068  0.3531
20984SOL     OW68788   2.879  10.741   6.722 -0.1363 -0.4501  0.4882
20984SOL    HW168789   2.868  10.690   6.642 -0.4984 -0.9348  0.8409
20984SOL    HW268790   2.829  10.693   6.788 -0.3763  0.2922  0.8568
20985SOL     OW68791   1.064  11.238  10.557 -0.4772 -0.0457 -0.2964
20985SOL    HW168792   0.989  11.184  10.532 -1.3022  0.1879  1.4494
20985SOL    HW268793   1.032  11.290  10.631  1.6075 -0.4840  1.0189
20986SOL     OW68794   4.471   8.033   6.257 -0.1516  0.3665 -0.3916
20986SOL    HW168795   4.407   8.104   6.261  0.3283  0.8236 -0.6603
20986SOL    HW268796   4.523   8.044   6.336 -1.3183 -0.9137  0.6051
20987SOL     OW68797   1.730  11.306   2.985  0.1407 -0.0773 -0.4711
20987SOL    HW168798   1.769  11.390   2.961  2.5674 -1.2628 -0.9711
20987SOL    HW268799   1.743  11.250   2.908 -0.2539 -1.2868  0.3059
20988SOL     OW68800   1.549   5.286   8.421 -0.5300  0.3275  0.8079
20988SOL    HW168801   1.475   5.347   8.411 -2.8156 -2.2284  1.0426
20988SOL    HW268802   1.604   5.303   8.344 -1.7202  1.8384  0.2324
20989SOL     OW68803   5.233   8.593   5.461 -0.2490 -0.0900 -0.0795
20989SOL    HW168804   5.229   8.595   5.556 -2.1154 -1.3822 -0.0978
20989SOL    HW268805   5.267   8.506   5.440  0.5692  0.3413 -0.6146
20990SOL     OW68806   3.681   7.191   9.691  0.3840 -0.0644  0.0458
20990SOL    HW168807   3.660   7.203   9.783 -0.7385 -3.4316  0.3702
20990SOL    HW268808   3.630   7.114   9.664  2.3934 -0.6000 -2.7641
20991SOL     OW68809   3.722   6.525   6.724  0.3171  0.2523 -0.2567
20991SOL    HW168810   3.814   6.553   6.719  0.4826 -0.3632 -0.9106
20991SOL    HW268811   3.695   6.517   6.633 -0.3953  0.4254 -0.0645
20992SOL     OW68812   5.400   4.722  11.812 -0.2973 -0.3145 -0.4347
20992SOL    HW168813   5.449   4.661  11.756  1.6500  1.4646 -0.8118
20992SOL    HW268814   5.442   4.714  11.898 -0.1044  0.3726 -0.4600
20993SOL     OW68815  11.939   6.571   0.572 -0.1995  0.0412  0.1855
20993SOL    HW168816  11.862   6.558   0.517 -1.2794 -0.1615  1.6943
20993SOL    HW268817  12.001   6.504   0.543 -0.3716  0.5113 -1.3683
20994SOL     OW68818  11.969  10.692  12.148  0.1659 -0.3813 -0.1394
20994SOL    HW168819  12.025  10.692  12.071 -0.0268  2.1733 -0.3868
20994SOL    HW268820  11.880  10.700  12.114  0.0681  0.6408  0.2999
20995SOL     OW68821   8.514  10.978   1.767 -0.5182 -0.1090  0.4652
20995SOL    HW168822   8.461  10.953   1.692 -2.5669 -1.3213  2.1992
20995SOL    HW268823   8.594  10.925   1.758 -0.0935  0.7639 -1.4934
20996SOL     OW68824   3.275   8.619   9.643 -0.3101  0.2031  0.2580
20996SOL    HW168825   3.228   8.636   9.724  0.2195  0.7025  0.4645
20996SOL    HW268826   3.244   8.687   9.582 -1.3382 -0.6748 -0.2368
20997SOL     OW68827   2.718   8.523   1.163 -0.2620  0.4653  0.4581
20997SOL    HW168828   2.684   8.610   1.143 -0.1523  0.6522  1.0563
20997SOL    HW268829   2.755   8.532   1.251  2.0504  0.4980 -0.4422
20998SOL     OW68830   0.435  10.694   0.092  0.2043  0.0003  0.3847
20998SOL    HW168831   0.481  10.618   0.057  1.6074  1.9373 -2.3634
20998SOL    HW268832   0.358  10.704   0.035  0.9926  1.5913 -0.4708
20999SOL     OW68833   0.490   5.080  10.048  0.0117 -0.3370  0.3760
20999SOL    HW168834   0.578   5.109  10.070 -0.2538 -0.5302  1.7805
20999SOL    HW268835   0.502   5.024   9.971  1.3971 -1.9771  1.6948
21000SOL     OW68836   2.202   8.980   0.503  0.0379  0.0572 -0.0824
21000SOL    HW168837   2.169   8.975   0.413 -1.2751 -2.0086  0.4368
21000SOL    HW268838   2.289   8.942   0.499  0.9860  2.1618 -0.8353
21001SOL     OW68839  12.050   7.816   1.744 -0.2484 -0.1272  0.2429
21001SOL    HW168840  12.012   7.824   1.656 -0.4062  1.2863  0.4222
21001SOL    HW268841  12.138   7.853   1.735  0.2707 -1.2749  0.3751
21002SOL     OW68842   9.604   3.025   3.941 -0.0368  0.5555 -0.0126
21002SOL    HW168843   9.658   2.946   3.943  0.0393  0.5672  2.5232
21002SOL    HW268844   9.537   3.008   3.875  0.0890 -1.5700  0.3550
21003SOL     OW68845   5.309   4.147   9.002 -0.3527  0.6400 -0.2320
21003SOL    HW168846   5.293   4.203   9.078 -0.0354  0.7586 -0.2503
21003SOL    HW268847   5.238   4.082   9.004 -2.0377  2.3425 -1.4701
21004SOL     OW68848   8.445   6.522   0.751  0.3444 -0.0794  0.0214
21004SOL    HW168849   8.482   6.541   0.664 -0.5674  0.6855 -0.2137
21004SOL    HW268850   8.390   6.597   0.771 -1.4311 -1.3583  0.1769
21005SOL     OW68851  12.223   0.102   5.584 -0.6436 -0.4699 -0.5467
21005SOL    HW168852  12.182   0.147   5.659 -1.7965 -0.9895 -0.8469
21005SOL    HW268853  12.310   0.078   5.616  0.2853  2.4849 -0.5560
21006SOL     OW68854   1.727   0.866   0.162  0.0457  0.2425  0.3681
21006SOL    HW168855   1.763   0.954   0.150  0.0889  0.2716  0.7078
21006SOL    HW268856   1.770   0.832   0.240 -0.9229  0.4230  1.0036
21007SOL     OW68857   5.461   1.271   6.965 -0.2216  0.5795 -0.0691
21007SOL    HW168858   5.530   1.331   6.995 -0.4232  0.8682 -0.1814
21007SOL    HW268859   5.382   1.304   7.007 -0.4611  0.8254 -0.7164
21008SOL     OW68860   5.799   8.591   0.229 -0.4251  0.4648 -0.3346
21008SOL    HW168861   5.832   8.513   0.184  0.5431 -0.4362  1.7836
21008SOL    HW268862   5.820   8.663   0.170  2.7191 -0.4078 -0.4572
21009SOL     OW68863   1.277   8.332   3.438 -0.0157  0.2802  0.2574
21009SOL    HW168864   1.232   8.248   3.431  0.1076  0.2141  0.2422
21009SOL    HW268865   1.261   8.375   3.355  0.4772 -0.0100  0.0069
21010SOL     OW68866   6.648   8.204   0.193  0.7714  0.5202 -0.4026
21010SOL    HW168867   6.591   8.172   0.263  1.5196 -1.0715 -0.4921
21010SOL    HW268868   6.693   8.127   0.160  0.0174  1.0925 -3.0835
21011SOL     OW68869   0.913   9.417   5.529  0.2178 -0.0464 -0.0869
21011SOL    HW168870   0.842   9.440   5.588 -1.5160 -2.6949 -0.9384
21011SOL    HW268871   0.880   9.438   5.442  0.9694 -0.1595 -0.4113
21012SOL     OW68872   8.288   6.905  11.443 -0.0925  0.4659  0.8417
21012SOL    HW168873   8.353   6.860  11.496 -0.1248 -0.3948  0.1732
21012SOL    HW268874   8.209   6.851  11.451 -0.3686  0.8418  0.6848
21013SOL     OW68875  11.893   0.297   2.386 -0.4090  0.4975  0.5883
21013SOL    HW168876  11.927   0.220   2.340 -0.3340  1.5120 -1.1094
21013SOL    HW268877  11.804   0.272   2.410 -0.0947 -0.4323  0.8615
21014SOL     OW68878   4.854   6.281   3.087 -0.1850  0.1908  0.3407
21014SOL    HW168879   4.794   6.266   3.160  0.5451  0.3605  0.9877
21014SOL    HW268880   4.799   6.320   3.019 -1.2252 -1.4049  0.1889
21015SOL     OW68881   9.216  11.890   0.502 -0.0922 -0.0981  0.0572
21015SOL    HW168882   9.242  11.966   0.450  3.3345 -1.8680 -1.1618
21015SOL    HW268883   9.283  11.882   0.569  0.1316 -2.4058 -0.3403
21016SOL     OW68884   7.825  11.460   9.418 -0.5293  0.0970  0.6299
21016SOL    HW168885   7.914  11.429   9.428 -1.0465 -1.6072  0.1889
21016SOL    HW268886   7.801  11.493   9.505  1.2866  2.8682  0.2085
21017SOL     OW68887   8.278   1.480   3.534 -0.3089  0.2158  0.0335
21017SOL    HW168888   8.259   1.470   3.441 -1.7622 -1.7959  0.4753
21017SOL    HW268889   8.370   1.455   3.543 -0.2516  0.0911 -0.8149
21018SOL     OW68890   4.566   9.316   2.319 -0.2671 -0.0389  0.3075
21018SOL    HW168891   4.505   9.368   2.266 -0.5168  0.1543  0.7752
21018SOL    HW268892   4.533   9.226   2.312  1.2413 -0.5156 -2.0499
21019SOL     OW68893   5.942   9.092   2.857  0.1323  0.3486  0.5337
21019SOL    HW168894   5.891   9.106   2.777 -0.6120 -1.8440  0.5443
21019SOL    HW268895   6.005   9.024   2.833  0.8331  0.6544  1.4510
21020SOL     OW68896   2.793  10.840   4.472 -0.2909  0.3755 -0.1505
21020SOL    HW168897   2.737  10.846   4.394 -0.6604  0.0971  0.0927
21020SOL    HW268898   2.733  10.828   4.545  0.1294 -1.3794 -0.0428
21021SOL     OW68899   2.573   0.134   0.267  0.1055  0.3497  0.2038
21021SOL    HW168900   2.549   0.128   0.360 -0.2824 -1.8830  0.0155
21021SOL    HW268901   2.669   0.139   0.268  0.1039  0.3325  0.7246
21022SOL     OW68902   4.607   3.958   5.295  0.3223 -0.4488 -0.2703
21022SOL    HW168903   4.593   3.871   5.258 -2.6936 -1.1279  2.0811
21022SOL    HW268904   4.611   3.944   5.390  1.5270  1.8123  0.0833
21023SOL     OW68905   6.586   5.892  10.496 -0.4996 -0.2438  0.4716
21023SOL    HW168906   6.545   5.962  10.546 -0.0445  1.4221 -1.3686
21023SOL    HW268907   6.526   5.818  10.505 -2.1615  1.0638  0.6603
21024SOL     OW68908   4.882   6.606  10.146  0.2468  0.1173  0.8431
21024SOL    HW168909   4.915   6.691  10.176 -1.3466  1.6020 -1.3222
21024SOL    HW268910   4.789   6.621  10.129  0.5465 -1.1238 -2.6131
21025SOL     OW68911   4.545   6.266   9.421  0.3449 -0.1322  0.5207
21025SOL    HW168912   4.576   6.286   9.333  0.5647  0.2099  0.6708
21025SOL    HW268913   4.450   6.276   9.416  0.3612 -0.0688  0.3316
21026SOL     OW68914   9.737   0.102   6.285  0.0408  0.7346 -0.6211
21026SOL    HW168915   9.723   0.126   6.194  1.4960  0.2329 -1.0012
21026SOL    HW268916   9.664   0.142   6.332 -0.5832  1.2185 -1.9650
21027SOL     OW68917   7.797   6.148   2.866 -0.5627  0.1024 -0.1258
21027SOL    HW168918   7.745   6.090   2.810 -3.0630  1.7137  0.3484
21027SOL    HW268919   7.876   6.166   2.815 -0.4378 -2.3996 -0.9423
21028SOL     OW68920  11.668   3.066  10.251  0.0090 -0.0970  0.1301
21028SOL    HW168921  11.673   3.059  10.156  0.6850  0.5315  0.1083
21028SOL    HW268922  11.754   3.099  10.277 -0.3991  0.3891  0.8934
21029SOL     OW68923   6.800   7.175   5.189  0.0825  0.3637 -0.3962
21029SOL    HW168924   6.870   7.157   5.127 -0.1173  0.6550 -0.7114
21029SOL    HW268925   6.735   7.224   5.138 -0.1691  0.4376 -0.0076
21030SOL     OW68926   2.374   1.876   4.916 -0.0426 -0.9125 -0.5126
21030SOL    HW168927   2.464   1.908   4.906  0.4134 -1.9905 -0.0051
21030SOL    HW268928   2.323   1.953   4.940  0.4222  0.0586 -2.4005
21031SOL     OW68929   7.602   6.277   5.692  0.2436 -1.0285 -0.2333
21031SOL    HW168930   7.577   6.278   5.600 -2.3637  0.3087  0.4001
21031SOL    HW268931   7.635   6.365   5.710  0.7687 -1.2879  0.1110
21032SOL     OW68932   2.839   3.017   3.702 -0.2424 -0.6320 -0.2491
21032SOL    HW168933   2.897   3.090   3.725 -0.7974 -0.2478 -0.0555
21032SOL    HW268934   2.833   3.021   3.607  0.3328 -0.8999 -0.3053
21033SOL     OW68935   1.380   3.403   4.410 -0.3583 -0.0373  0.4709
21033SOL    HW168936   1.338   3.421   4.325  0.0513 -0.9346  0.0617
21033SOL    HW268937   1.443   3.333   4.391 -0.0245 -0.0173  1.4549
21034SOL     OW68938  11.108   7.970   7.075  0.4462  0.3308 -0.3611
21034SOL    HW168939  11.129   8.001   6.987  1.0675  0.0436 -0.3111
21034SOL    HW268940  11.175   8.008   7.131  2.0346 -2.1406 -0.4669
21035SOL     OW68941   6.387   4.878  11.155  1.0706 -0.1158 -0.1431
21035SOL    HW168942   6.377   4.806  11.093  2.1780  0.7093 -1.3316
21035SOL    HW268943   6.470   4.860  11.200  1.4795  0.5188 -0.6213
21036SOL     OW68944   0.109   4.137   6.931  0.4006 -0.4117  0.6945
21036SOL    HW168945   0.075   4.225   6.945 -0.2721 -0.6999  0.9196
21036SOL    HW268946   0.035   4.087   6.898  1.0762 -0.6125 -0.6132
21037SOL     OW68947   8.570   0.840   2.104  0.2745  0.5730 -0.4751
21037SOL    HW168948   8.599   0.753   2.130  1.1924  1.0329  0.1130
21037SOL    HW268949   8.637   0.870   2.042 -0.1624  0.7670 -0.8575
21038SOL     OW68950  10.623   4.988   2.563  0.1031  0.3396 -0.5683
21038SOL    HW168951  10.665   4.959   2.482  0.4904  0.3078 -0.3548
21038SOL    HW268952  10.564   5.059   2.536  1.0579  1.0867 -0.7144
21039SOL     OW68953   7.857   4.721  10.065  0.3670 -0.1569  0.5105
21039SOL    HW168954   7.830   4.647  10.010 -0.7152  0.1317  0.6294
21039SOL    HW268955   7.921   4.683  10.126  1.0734 -0.6199 -0.4953
21040SOL     OW68956   9.355  10.360   3.660  0.3869  0.1710 -0.6241
21040SOL    HW168957   9.320  10.273   3.676 -1.0069  0.6533 -0.8528
21040SOL    HW268958   9.321  10.413   3.732  1.6400  0.4409 -0.1999
21041SOL     OW68959   7.356  10.818  11.253 -0.2566 -0.0430  0.1340
21041SOL    HW168960   7.382  10.854  11.338  0.3967  0.8135 -0.4092
21041SOL    HW268961   7.416  10.859  11.190 -0.7488 -0.6353 -0.7482
21042SOL     OW68962   7.545   7.662   1.452 -0.2886  0.8126 -0.1255
21042SOL    HW168963   7.611   7.718   1.493 -0.0846  1.8037 -1.7292
21042SOL    HW268964   7.590   7.580   1.435  0.5289  1.4371 -1.0912
21043SOL     OW68965   6.319   9.125   3.827 -0.4537 -0.2097 -0.1962
21043SOL    HW168966   6.320   9.030   3.815  0.2862 -0.3301  0.6758
21043SOL    HW268967   6.379   9.158   3.760  0.0074 -0.4590  0.0798
21044SOL     OW68968   9.383   0.017  12.075 -0.3784 -0.1870 -0.3548
21044SOL    HW168969   9.425  -0.057  12.032  1.4442 -0.9828  2.5247
21044SOL    HW268970   9.299  -0.017  12.105 -1.3039  0.1476 -2.3931
21045SOL     OW68971   3.647   7.457   7.938 -0.4265  0.0844 -0.5598
21045SOL    HW168972   3.706   7.485   7.867  0.2668 -0.2666 -0.1389
21045SOL    HW268973   3.696   7.475   8.018 -0.3082 -1.4723 -0.2415
21046SOL     OW68974   1.247   4.240   8.275  0.3305 -0.3437  0.3544
21046SOL    HW168975   1.218   4.312   8.330  0.9781 -0.5919  1.0444
21046SOL    HW268976   1.200   4.163   8.309 -1.0743 -0.1328 -0.9668
21047SOL     OW68977   1.700   8.246   0.423  0.2801  0.1312 -0.0977
21047SOL    HW168978   1.636   8.318   0.420  0.2441  0.1296  0.5934
21047SOL    HW268979   1.778   8.281   0.379  0.4680  0.8040  0.7574
21048SOL     OW68980  11.654  11.423   9.031  0.2831  0.1591  0.0407
21048SOL    HW168981  11.711  11.489   8.992  1.6208 -0.3172  1.0989
21048SOL    HW268982  11.588  11.473   9.079  0.5615  0.7351 -0.1719
21049SOL     OW68983   6.314   9.914   6.076 -0.1301  1.0945 -0.2116
21049SOL    HW168984   6.341   9.994   6.032 -2.6091  2.1791  0.0802
21049SOL    HW268985   6.228   9.934   6.113  0.1348 -1.0046  1.7976
21050SOL     OW68986  10.501   0.629   4.192 -0.3168 -0.1719  0.0658
21050SOL    HW168987  10.567   0.559   4.198 -0.9519 -0.9035 -1.1961
21050SOL    HW268988  10.531   0.695   4.255  2.1299 -0.0582 -1.0923
21051SOL     OW68989  10.085   0.884   1.556 -0.1527 -0.1371  0.0930
21051SOL    HW168990  10.052   0.914   1.471  0.3063  0.9213  0.2743
21051SOL    HW268991  10.174   0.853   1.538 -0.2139 -0.3219  0.1091
21052SOL     OW68992   3.907   7.549   2.097  0.2921 -0.3760  0.2944
21052SOL    HW168993   3.997   7.578   2.081  0.1746 -1.0851 -1.9626
21052SOL    HW268994   3.916   7.467   2.145  0.8999 -0.8788 -0.6534
21053SOL     OW68995   8.562   7.524   3.424 -0.8275  0.0554 -0.1733
21053SOL    HW168996   8.559   7.456   3.357 -1.3454 -0.8674  0.7499
21053SOL    HW268997   8.558   7.476   3.507 -1.2724  1.2124  0.5026
21054SOL     OW68998   3.647   9.197   4.615 -0.0824 -0.0159  0.0254
21054SOL    HW168999   3.615   9.217   4.703 -0.1152 -0.9325  0.2269
21054SOL    HW269000   3.568   9.198   4.561 -0.1068  0.2206  0.0641
21055SOL     OW69001   9.714   4.586   3.748 -0.2002 -0.6328 -1.0140
21055SOL    HW169002   9.796   4.635   3.756 -1.3309  1.0930  0.7527
21055SOL    HW269003   9.707   4.568   3.654  1.4266  0.5538 -1.4140
21056SOL     OW69004  10.179   4.365   6.888 -0.2513 -1.5303 -0.1209
21056SOL    HW169005  10.254   4.393   6.837 -1.1520  0.5246 -0.4041
21056SOL    HW269006  10.197   4.397   6.977 -0.9068 -0.8005 -0.2487
21057SOL     OW69007   7.812  10.516   0.131 -0.0180  0.4051 -0.8007
21057SOL    HW169008   7.717  10.518   0.134 -0.0977 -1.6140  2.1685
21057SOL    HW269009   7.839  10.589   0.187  0.1317  0.3124 -0.7494
21058SOL     OW69010   0.288   3.580   9.170  0.0506 -0.4747 -0.4159
21058SOL    HW169011   0.347   3.582   9.245  0.2318  0.6003 -0.5695
21058SOL    HW269012   0.201   3.582   9.208  0.1377 -0.5393 -0.2126
21059SOL     OW69013   2.112   9.885   2.524 -0.1546  0.4331 -0.6942
21059SOL    HW169014   2.028   9.928   2.541 -0.0971  0.8933 -1.5089
21059SOL    HW269015   2.167   9.911   2.598 -0.1126  1.8276 -1.1765
21060SOL     OW69016   1.361   5.332   9.755  0.2511 -0.6216  0.2662
21060SOL    HW169017   1.311   5.354   9.676  1.2066  0.8160  0.0113
21060SOL    HW269018   1.297   5.339   9.826 -0.0633  0.6447 -0.1089
21061SOL     OW69019   0.322   3.814   9.006  0.0235 -0.3787  0.0017
21061SOL    HW169020   0.320   3.733   9.057  3.1618 -0.3842  0.2644
21061SOL    HW269021   0.331   3.884   9.072  1.4856 -0.1842 -0.3773
21062SOL     OW69022   8.268   1.317   6.176  0.4060  0.2723  0.5313
21062SOL    HW169023   8.193   1.266   6.145  0.0392  0.8082  0.5241
21062SOL    HW269024   8.269   1.394   6.120 -1.7017  2.4760  3.2465
21063SOL     OW69025   6.993   6.778   4.149 -0.1544  0.4574  0.7649
21063SOL    HW169026   6.992   6.764   4.243 -2.4037 -1.2890  0.5944
21063SOL    HW269027   7.037   6.700   4.114 -0.6311  0.3706  0.3418
21064SOL     OW69028   2.368  12.171   9.562  0.4685 -0.1875  0.1858
21064SOL    HW169029   2.294  12.211   9.607  0.3840 -0.2403  0.0926
21064SOL    HW269030   2.407  12.242   9.511  0.6253 -0.1036  0.4211
21065SOL     OW69031  10.339  10.097   8.639  0.0544  0.1694 -0.0459
21065SOL    HW169032  10.425  10.111   8.600  0.1950 -1.3715 -0.3302
21065SOL    HW269033  10.359  10.065   8.728 -0.2306  0.0222 -0.0360
21066SOL     OW69034   3.832   5.513   0.357 -0.1623 -0.3373  0.0008
21066SOL    HW169035   3.763   5.578   0.349 -0.6118 -0.7419  0.5308
21066SOL    HW269036   3.786   5.429   0.364  0.3850 -0.6236  0.2579
21067SOL     OW69037  10.666   0.413   4.131  0.4189  0.8076  0.0773
21067SOL    HW169038  10.745   0.412   4.184 -0.4562 -0.0873  1.4262
21067SOL    HW269039  10.660   0.324   4.095 -0.0445  0.8269  0.0955
21068SOL     OW69040   1.960  12.298   1.502 -0.2126 -0.1518 -1.1246
21068SOL    HW169041   2.028  12.263   1.560  0.5459  0.7670 -1.4117
21068SOL    HW269042   1.976  12.393   1.503 -1.5031  0.0797 -1.2032
21069SOL     OW69043   9.811  10.258  10.354  0.0754 -0.0710  0.3237
21069SOL    HW169044   9.722  10.290  10.336  0.4413  0.8822  0.1736
21069SOL    HW269045   9.858  10.334  10.388  1.0085 -0.3984 -0.1901
21070SOL     OW69046   5.510   2.540   5.344 -0.1980 -0.2055 -0.4342
21070SOL    HW169047   5.474   2.625   5.319 -1.3784 -1.2764 -2.5815
21070SOL    HW269048   5.559   2.558   5.425  0.0423  2.5902 -1.1042
21071SOL     OW69049   0.768  10.919   5.660 -0.2186 -0.0381 -0.3219
21071SOL    HW169050   0.796  10.903   5.750 -2.3982  1.4576  0.7157
21071SOL    HW269051   0.693  10.862   5.648 -1.2995  1.3455 -0.3793
21072SOL     OW69052  10.203  10.872  12.048  0.4655 -0.1377 -0.0399
21072SOL    HW169053  10.176  10.925  12.122  1.3927 -0.1129  0.2895
21072SOL    HW269054  10.136  10.803  12.041  0.1158  0.1465  0.5049
21073SOL     OW69055   5.999   5.217   4.217  0.5541  0.0165 -0.6250
21073SOL    HW169056   6.065   5.233   4.150  0.3259 -1.0976 -1.1392
21073SOL    HW269057   5.933   5.285   4.202  2.2793  2.1475  0.9013
21074SOL     OW69058   1.606   8.507   6.352  0.0741  0.2531  0.2926
21074SOL    HW169059   1.520   8.544   6.373  1.0893  2.7832  0.3623
21074SOL    HW269060   1.587   8.436   6.291 -1.9572  2.3494 -1.7211
21075SOL     OW69061   4.892   7.422   1.355  0.6245  0.1129 -0.2336
21075SOL    HW169062   4.828   7.360   1.389  1.0271  0.8347  2.0088
21075SOL    HW269063   4.843   7.503   1.344  0.9679  0.4788  0.8195
21076SOL     OW69064   6.235   5.334   9.029  0.0439  0.1438 -0.1308
21076SOL    HW169065   6.165   5.283   8.989 -0.1175  0.9096 -0.8520
21076SOL    HW269066   6.208   5.344   9.120  0.2582 -1.3482  0.1181
21077SOL     OW69067   2.256   3.179   4.483 -0.4004  0.2844  1.1549
21077SOL    HW169068   2.285   3.088   4.492  1.5320  0.6675 -0.4024
21077SOL    HW269069   2.162   3.177   4.504 -0.5065 -2.1423  0.7165
21078SOL     OW69070  11.945   3.699  10.356 -0.0117  0.1922 -0.4690
21078SOL    HW169071  12.006   3.667  10.289  2.4469  0.6285  1.3933
21078SOL    HW269072  11.914   3.620  10.400 -1.6712 -0.0999 -2.0362
21079SOL     OW69073   9.622   8.520   1.883 -0.1784 -0.4889 -0.1412
21079SOL    HW169074   9.549   8.463   1.861  0.2227 -0.6828 -1.0429
21079SOL    HW269075   9.694   8.487   1.829  0.2123  0.5018 -0.2400
21080SOL     OW69076   2.246   9.294  11.242  0.0186 -0.2005  0.7600
21080SOL    HW169077   2.298   9.314  11.164 -0.5672 -0.0642  0.3931
21080SOL    HW269078   2.226   9.380  11.280 -0.5057 -0.2036  0.5111
21081SOL     OW69079   9.943   7.588   1.792  0.5471  0.0594  0.1888
21081SOL    HW169080   9.900   7.615   1.711  0.0313 -0.9456  0.1133
21081SOL    HW269081   9.953   7.669   1.842 -0.4800  0.4835 -0.2561
21082SOL     OW69082   5.347  10.832   5.124  0.1378 -0.7438  0.4267
21082SOL    HW169083   5.339  10.927   5.132  0.0179 -0.8764  2.2966
21082SOL    HW269084   5.269  10.805   5.076 -1.5576 -0.1829  2.7019
21083SOL     OW69085  12.180  10.586   4.656 -0.3366  0.0247 -0.6634
21083SOL    HW169086  12.177  10.674   4.694 -1.4676 -1.2365  2.6023
21083SOL    HW269087  12.158  10.598   4.564  1.4860  3.3012 -0.8195
21084SOL     OW69088   7.327   4.059   5.828  0.2699 -0.3697  0.0573
21084SOL    HW169089   7.278   4.140   5.841  1.1837  0.0000  1.4710
21084SOL    HW269090   7.297   4.026   5.744  0.4248  1.8119 -0.9201
21085SOL     OW69091   0.844   4.051   0.019  0.2214  0.2232  0.1256
21085SOL    HW169092   0.867   4.081   0.107 -0.4008 -1.4976  0.9156
21085SOL    HW269093   0.750   4.064   0.012  0.1597 -0.2600 -0.0280
21086SOL     OW69094   8.714  10.799   1.699  0.3653 -0.0987 -0.0040
21086SOL    HW169095   8.716  10.800   1.604  2.1202 -1.9375 -0.0489
21086SOL    HW269096   8.677  10.714   1.722 -3.3279  1.6030  1.0715
21087SOL     OW69097   5.843  10.483   6.686  0.6545  0.6065 -0.0866
21087SOL    HW169098   5.922  10.433   6.664 -0.4172 -0.4232 -1.7578
21087SOL    HW269099   5.859  10.514   6.775  1.2023 -3.0373  1.2246
21088SOL     OW69100   7.322   4.903   1.849  0.0731 -0.0310  0.1750
21088SOL    HW169101   7.334   4.971   1.916 -0.5960 -0.4098  0.6874
21088SOL    HW269102   7.229   4.908   1.827  0.0007 -0.8489  0.2841
21089SOL     OW69103   2.904  11.954   6.970 -0.0494 -0.1991 -0.2575
21089SOL    HW169104   2.820  11.996   6.951 -0.3187 -0.3984  0.4617
21089SOL    HW269105   2.949  12.014   7.029  0.1609 -0.2657 -0.3473
21090SOL     OW69106   5.305   8.480   2.832  0.1416 -0.0239  0.3465
21090SOL    HW169107   5.390   8.515   2.805 -0.3349  0.3356 -0.7432
21090SOL    HW269108   5.320   8.386   2.842  0.9151  0.1745  1.2119
21091SOL     OW69109   9.935  10.707   3.544  0.0168  0.1154  0.2710
21091SOL    HW169110   9.871  10.724   3.475  0.5096 -2.4761 -0.9510
21091SOL    HW269111   9.883  10.690   3.622 -0.5585  2.8094  0.5555
21092SOL     OW69112   6.270  10.482   1.134  0.5303  0.1298  0.2899
21092SOL    HW169113   6.212  10.412   1.164  0.4464  0.5094  1.0306
21092SOL    HW269114   6.281  10.465   1.040 -1.7173  0.7145 -0.1427
21093SOL     OW69115   6.812  10.498   8.696  0.5073  0.0694 -0.2961
21093SOL    HW169116   6.818  10.590   8.670  0.4170  0.0612 -0.3436
21093SOL    HW269117   6.828  10.499   8.791 -1.3772  0.3641  0.0612
21094SOL     OW69118   4.727   7.774   9.161  0.5762  0.0253 -0.1489
21094SOL    HW169119   4.803   7.735   9.117  0.5690 -0.8185  0.5456
21094SOL    HW269120   4.705   7.851   9.108 -0.3193 -1.6929 -2.3993
21095SOL     OW69121   5.905  10.123   1.262 -0.2919  0.2100  0.3222
21095SOL    HW169122   5.912  10.161   1.174  0.9922  1.1105  0.7822
21095SOL    HW269123   5.990  10.140   1.302 -1.2592  0.9489  2.1853
21096SOL     OW69124   3.209  11.253   8.914  0.0216  0.0168 -0.0720
21096SOL    HW169125   3.233  11.334   8.869  1.9408 -0.5413 -0.1752
21096SOL    HW269126   3.293  11.217   8.942 -0.6854 -2.4331 -0.8924
21097SOL     OW69127  11.472   5.473  11.490  0.3840 -0.0790 -0.2289
21097SOL    HW169128  11.429   5.547  11.449  1.5393  0.5827 -0.2830
21097SOL    HW269129  11.422   5.397  11.461  0.1809  0.5280 -1.5173
21098SOL     OW69130  11.069  11.910  10.824 -0.0008  0.1466  0.1031
21098SOL    HW169131  11.077  12.005  10.827 -0.2807  0.1911 -0.4174
21098SOL    HW269132  10.994  11.891  10.881  0.3218  0.1984  0.5491
21099SOL     OW69133   9.279   2.468   7.266  0.0548 -0.6776 -0.1866
21099SOL    HW169134   9.213   2.457   7.335  0.4198 -2.3091 -0.0635
21099SOL    HW269135   9.299   2.379   7.237  3.1086 -0.3700  0.6447
21100SOL     OW69136   8.886   3.524  11.095  0.3474 -0.5337 -0.2000
21100SOL    HW169137   8.938   3.460  11.046  2.0272  1.2826 -0.9319
21100SOL    HW269138   8.883   3.490  11.184  2.3489 -1.0186 -0.2665
21101SOL     OW69139   1.772   2.711  10.243 -0.1365 -0.2918 -0.0814
21101SOL    HW169140   1.716   2.728  10.168  1.3527  0.2804 -1.1266
21101SOL    HW269141   1.861   2.713  10.207  0.6193 -0.0911  1.6757
21102SOL     OW69142   5.897   5.713   2.321 -0.2005 -0.7125 -0.0406
21102SOL    HW169143   5.955   5.735   2.247  2.1402  2.2457  2.4149
21102SOL    HW269144   5.953   5.662   2.380 -0.5289  0.7856  1.6416
21103SOL     OW69145   8.207   8.677  11.822  0.6347 -0.4416 -0.0609
21103SOL    HW169146   8.232   8.594  11.861 -0.5791 -0.9159 -0.2526
21103SOL    HW269147   8.211   8.663  11.728  2.7878  0.4664 -0.1527
21104SOL     OW69148   3.389   5.564   4.995 -0.1801 -0.3170  0.1850
21104SOL    HW169149   3.320   5.525   5.048 -0.1452 -0.9460 -0.2214
21104SOL    HW269150   3.352   5.568   4.907 -0.1659  0.5375  0.2129
21105SOL     OW69151   7.537  10.836  10.797 -0.1046  0.2169  0.1700
21105SOL    HW169152   7.542  10.868  10.888  0.9872  0.0936  0.1668
21105SOL    HW269153   7.628  10.833  10.768 -0.5309  1.8936 -1.5164
21106SOL     OW69154  10.869  11.973   6.434 -0.3495 -0.0805  0.4096
21106SOL    HW169155  10.895  11.885   6.408 -0.5262  0.2431 -0.9618
21106SOL    HW269156  10.880  12.026   6.354 -0.3840  1.1086  1.1593
21107SOL     OW69157   3.942   4.236   4.958  0.2317  0.0308  0.1289
21107SOL    HW169158   3.979   4.169   5.015 -1.1320 -0.4281  0.5235
21107SOL    HW269159   3.888   4.187   4.896 -0.5420  0.7298  0.2303
21108SOL     OW69160   8.198   0.611   0.067 -0.5753 -0.2714  0.3820
21108SOL    HW169161   8.265   0.568   0.121  0.7518 -0.3467 -1.2356
21108SOL    HW269162   8.215   0.705   0.080 -0.5669 -0.2821  0.4512
21109SOL     OW69163   3.264   3.512   1.111  0.5399  0.3944 -0.3394
21109SOL    HW169164   3.214   3.504   1.192  0.1313  2.0777 -0.3812
21109SOL    HW269165   3.327   3.440   1.114 -0.3263 -0.3422  0.8446
21110SOL     OW69166  10.810   9.771   2.075  0.0733 -0.4557 -0.5658
21110SOL    HW169167  10.845   9.723   2.001 -0.4023 -0.5174 -0.7581
21110SOL    HW269168  10.715   9.762   2.067 -0.0143  0.2312 -0.4130
21111SOL     OW69169   1.782   8.053   5.608  0.3439  0.3390 -0.0446
21111SOL    HW169170   1.719   8.032   5.540  0.7161 -0.7091 -0.0839
21111SOL    HW269171   1.731   8.048   5.689 -0.5530  3.4128 -0.3117
21112SOL     OW69172   0.810   9.860   8.055 -0.1785  0.6772 -0.2737
21112SOL    HW169173   0.829   9.766   8.052 -0.4241  0.6458 -1.0838
21112SOL    HW269174   0.813   9.888   7.964  1.8223  1.8473  0.0947
21113SOL     OW69175   7.824   0.965   1.515  0.0849 -0.2430  0.1238
21113SOL    HW169176   7.894   0.908   1.485 -0.1268  0.1760 -1.2258
21113SOL    HW269177   7.838   1.048   1.468 -2.1806 -0.6423 -1.4364
21114SOL     OW69178   2.394   9.336  11.015 -0.1609 -0.3665  0.0502
21114SOL    HW169179   2.486   9.331  10.990  0.0654  2.2983  0.1154
21114SOL    HW269180   2.347   9.307  10.937  0.6928 -1.9965  0.0971
21115SOL     OW69181   0.180   7.691   1.766  0.6225 -0.4656 -0.0784
21115SOL    HW169182   0.197   7.626   1.698  0.4156 -0.9915  0.3691
21115SOL    HW269183   0.191   7.644   1.848 -0.5724 -0.2135  0.2420
21116SOL     OW69184   2.641   1.303  11.678  0.2405  0.3272 -0.1091
21116SOL    HW169185   2.673   1.292  11.588 -3.5139  1.6844 -1.8618
21116SOL    HW269186   2.622   1.215  11.708 -0.6590 -0.0490 -1.6581
21117SOL     OW69187  10.949   2.045   1.188  0.1669  0.4227 -0.0580
21117SOL    HW169188  10.906   2.062   1.272 -1.8305 -1.1353 -0.6901
21117SOL    HW269189  10.898   1.974   1.149  2.4172 -0.4758 -1.5920
21118SOL     OW69190  11.227   3.131   1.737  0.0208 -0.3468 -0.0017
21118SOL    HW169191  11.185   3.090   1.813 -0.0682  0.1151  0.2029
21118SOL    HW269192  11.191   3.219   1.736 -0.0254 -0.3743 -0.6276
21119SOL     OW69193   8.563   1.925   2.862 -0.2308 -0.1940  0.1492
21119SOL    HW169194   8.577   1.929   2.767 -0.1388  0.0141  0.1709
21119SOL    HW269195   8.611   2.000   2.896 -2.1737  1.1002  0.1429
21120SOL     OW69196  12.130  10.118   3.530  0.2540  0.3471 -0.0370
21120SOL    HW169197  12.165  10.030   3.548  1.0387  0.8126  0.8188
21120SOL    HW269198  12.206  10.168   3.500 -0.5494  0.2589 -2.4384
21121SOL     OW69199   1.063   6.352  11.147  0.2844 -0.2309  0.7541
21121SOL    HW169200   1.022   6.391  11.070  0.1661  1.6407  1.7096
21121SOL    HW269201   1.108   6.275  11.113  1.2748  1.1998 -1.4221
21122SOL     OW69202   6.531  11.575  11.165 -0.3490  0.4746 -0.3972
21122SOL    HW169203   6.546  11.563  11.071  0.3701  0.0096 -0.2322
21122SOL    HW269204   6.567  11.661  11.185  0.4622  0.1310 -0.3535
21123SOL     OW69205   6.722   8.605   6.240  0.3302  0.2251  0.1765
21123SOL    HW169206   6.663   8.679   6.255  0.7539  1.1170 -2.1356
21123SOL    HW269207   6.809   8.644   6.238  0.8059 -0.7293  1.2486
21124SOL     OW69208   2.004   4.062   9.479  0.2476 -0.4370  0.3545
21124SOL    HW169209   2.055   4.139   9.454  0.4671 -0.5072  0.5821
21124SOL    HW269210   1.914   4.082   9.453  0.6260 -0.9286 -1.5008
21125SOL     OW69211   3.015   6.604   8.815 -0.4060 -0.2952  0.1024
21125SOL    HW169212   3.002   6.676   8.877 -1.1415 -0.8943  0.6655
21125SOL    HW269213   3.073   6.543   8.860 -1.4233 -1.0194  0.4663
21126SOL     OW69214   8.085  10.907   1.287  0.1819  0.1903  0.3853
21126SOL    HW169215   8.066  10.850   1.361  0.5355 -0.3836  0.0450
21126SOL    HW269216   8.067  10.853   1.210  2.6796 -0.2384  0.0274
21127SOL     OW69217   3.214   5.771   0.866  0.6136  0.2529 -0.3774
21127SOL    HW169218   3.138   5.815   0.828  1.4020  0.1618 -2.1755
21127SOL    HW269219   3.280   5.840   0.875  0.8286  0.0402 -0.3116
21128SOL     OW69220   6.937   3.758   5.099 -0.4167  0.8066  0.3812
21128SOL    HW169221   6.988   3.833   5.068 -0.6006  1.9445  2.6025
21128SOL    HW269222   7.000   3.703   5.145 -0.5567  0.3719  0.0588
21129SOL     OW69223  11.800  11.536   0.685 -0.4181  0.2307  0.6596
21129SOL    HW169224  11.790  11.543   0.590  1.3276  1.8075  0.5466
21129SOL    HW269225  11.893  11.550   0.700 -0.3759 -1.5575  2.5088
21130SOL     OW69226   6.969   0.093   6.497  0.1994  0.1059 -0.0856
21130SOL    HW169227   6.876   0.111   6.481 -0.0189 -2.1709 -1.8973
21130SOL    HW269228   7.009   0.180   6.505 -1.6074  1.2706 -2.3428
21131SOL     OW69229   8.635   0.360  12.150 -0.0111  0.7994  0.1265
21131SOL    HW169230   8.624   0.453  12.133 -1.1399  0.6756  0.0555
21131SOL    HW269231   8.549   0.331  12.182  0.5375 -0.0664  0.8630
21132SOL     OW69232   2.287   0.870   6.949  0.6214 -0.2762  0.0726
21132SOL    HW169233   2.255   0.836   6.865 -1.0159  0.3353  0.4187
21132SOL    HW269234   2.233   0.826   7.015  1.4429 -0.2539  0.7776
21133SOL     OW69235   7.181   5.634   1.309  0.3464  0.0186 -0.1009
21133SOL    HW169236   7.086   5.647   1.315  0.1994 -1.2604  0.7960
21133SOL    HW269237   7.213   5.710   1.259 -1.0254  0.9401  0.3681
21134SOL     OW69238   0.903   1.150   6.877  0.0766  0.3674 -0.2346
21134SOL    HW169239   0.933   1.060   6.889 -1.2218  0.0367  0.7118
21134SOL    HW269240   0.939   1.198   6.951  0.1880  0.4711 -0.3558
21135SOL     OW69241   7.938  12.101  11.058  0.7823 -0.0762  0.1670
21135SOL    HW169242   7.992  12.177  11.037 -0.1903  0.5229 -0.2330
21135SOL    HW269243   7.848  12.134  11.057  0.3316 -1.2551 -0.1226
21136SOL     OW69244  10.252   9.904   7.388  0.6231  0.3532 -0.1490
21136SOL    HW169245  10.241   9.913   7.293 -1.8960  1.0210  0.1305
21136SOL    HW269246  10.178   9.850   7.416  1.8083 -0.5782  1.3632
21137SOL     OW69247   2.046   1.735   7.564  0.2164  0.1600 -0.4396
21137SOL    HW169248   2.009   1.787   7.634  0.5052 -1.0049  0.6096
21137SOL    HW269249   2.121   1.787   7.533 -0.1296  0.8484 -0.1500
21138SOL     OW69250  10.584  12.310   4.862 -0.0249 -0.4114 -0.2170
21138SOL    HW169251  10.649  12.246   4.892  1.5382  1.1712 -0.0593
21138SOL    HW269252  10.627  12.356   4.790 -0.3535  1.6859  0.8538
21139SOL     OW69253   0.850   4.679  10.142  0.9792 -0.0694  0.6058
21139SOL    HW169254   0.823   4.746  10.205 -1.8131  1.1069 -1.5983
21139SOL    HW269255   0.915   4.723  10.087  1.3511 -0.1817  0.9499
21140SOL     OW69256   8.843  10.287  10.893  0.0120 -0.5459  0.1874
21140SOL    HW169257   8.837  10.202  10.937 -1.3322 -0.5886 -0.0534
21140SOL    HW269258   8.937  10.306  10.891  0.3656 -2.1742 -0.0468
21141SOL     OW69259  10.756  11.180  10.181 -0.2086 -0.4518  0.4506
21141SOL    HW169260  10.809  11.259  10.192 -1.7364  0.4244  1.9244
21141SOL    HW269261  10.702  11.198  10.104  0.6136 -0.7778 -0.2199
21142SOL     OW69262   2.753  12.103   9.314  0.0323  1.1401 -0.0239
21142SOL    HW169263   2.756  12.161   9.390 -1.1028 -0.9484  1.7392
21142SOL    HW269264   2.669  12.058   9.322  0.0490  0.5772 -2.3494
21143SOL     OW69265   0.757  10.373   8.625  0.0032 -0.1754  0.0490
21143SOL    HW169266   0.673  10.388   8.583  0.8027 -0.5969 -1.7896
21143SOL    HW269267   0.754  10.426   8.705 -0.6849  2.6761 -1.7215
21144SOL     OW69268   1.124   2.782   0.590 -0.4963  0.1368 -0.0038
21144SOL    HW169269   1.172   2.702   0.570 -0.6929  0.0013  0.0641
21144SOL    HW269270   1.065   2.793   0.515 -1.6863 -0.7150  0.7664
21145SOL     OW69271   3.829   1.656   0.001 -0.1571 -0.5158 -0.2625
21145SOL    HW169272   3.880   1.701  -0.067  1.9717 -0.8992  0.9737
21145SOL    HW269273   3.867   1.568   0.005 -2.3120 -1.5290 -0.6269
21146SOL     OW69274  10.868   5.863   7.044 -0.0247  0.1334 -1.0317
21146SOL    HW169275  10.787   5.881   7.091 -0.1040 -0.5123 -0.9146
21146SOL    HW269276  10.880   5.938   6.987  0.3209  1.1668  0.3396
21147SOL     OW69277   6.613   3.745   8.267 -0.0502 -0.0516  0.0279
21147SOL    HW169278   6.568   3.776   8.188 -2.1250 -1.8311  0.4188
21147SOL    HW269279   6.620   3.823   8.322  0.3771  0.9727 -1.4118
21148SOL     OW69280   2.581   5.467   2.913  0.0621 -0.1193 -0.9460
21148SOL    HW169281   2.652   5.525   2.941 -0.7575  0.1572  0.7280
21148SOL    HW269282   2.536   5.515   2.844 -0.5994  1.2974  0.4095
21149SOL     OW69283  10.062  11.265   1.745  0.3902 -0.5482  0.2759
21149SOL    HW169284  10.156  11.255   1.731  0.4878 -0.9982  1.1521
21149SOL    HW269285  10.032  11.178   1.769 -0.2276 -0.3807  0.1271
21150SOL     OW69286   6.190   6.366  10.566  0.5512  0.6668 -0.0965
21150SOL    HW169287   6.172   6.292  10.624 -2.2836  1.3448  0.0129
21150SOL    HW269288   6.216   6.436  10.625  2.1627  0.1259 -0.1097
21151SOL     OW69289   3.258  10.667  12.147 -0.6263  0.4034  0.4944
21151SOL    HW169290   3.310  10.598  12.105  1.2951  2.4142 -0.6122
21151SOL    HW269291   3.299  10.680  12.232 -0.1784  1.0221  0.1912
21152SOL     OW69292   4.741   2.384  12.016 -0.3084 -0.4452 -0.2919
21152SOL    HW169293   4.833   2.357  12.017  0.8665  3.0735 -0.3663
21152SOL    HW269294   4.732   2.439  12.094 -2.9649 -2.1946  0.7909
21153SOL     OW69295   5.155   9.916   9.897 -0.4450 -0.2416  0.4776
21153SOL    HW169296   5.091   9.986   9.904  0.1418  0.2186  1.5164
21153SOL    HW269297   5.103   9.835   9.897 -1.1383  0.1751 -1.0288
21154SOL     OW69298   5.582  11.705   6.857 -0.7110 -1.0149  0.3663
21154SOL    HW169299   5.581  11.793   6.894 -0.6444 -1.7137  2.1409
21154SOL    HW269300   5.662  11.665   6.893 -0.8069 -1.8391 -0.3057
21155SOL     OW69301   8.846  11.073  11.728 -0.5251 -0.1227 -0.2136
21155SOL    HW169302   8.900  11.059  11.806 -0.7659 -0.5045 -0.1107
21155SOL    HW269303   8.831  11.167  11.726 -0.8766 -0.1512  0.4559
21156SOL     OW69304  10.121  10.572   4.793 -0.1425  0.3372 -0.2623
21156SOL    HW169305  10.203  10.521   4.790 -0.2656  0.1103  0.1122
21156SOL    HW269306  10.137  10.646   4.735 -0.3880 -0.7649 -1.8107
21157SOL     OW69307   6.097  11.277  11.704 -0.0014  0.3133  1.5183
21157SOL    HW169308   6.107  11.358  11.653 -2.2184 -0.5721 -0.4960
21157SOL    HW269309   6.027  11.295  11.766 -1.8120 -0.5361 -0.1849
21158SOL     OW69310   3.981   8.274   9.839  0.1090  0.9427 -0.2483
21158SOL    HW169311   4.005   8.237   9.753 -0.7181  1.4362 -0.7110
21158SOL    HW269312   4.029   8.356   9.845 -0.1034  1.0810 -0.4059
21159SOL     OW69313   4.218  10.886   3.937  0.1185 -0.3756  0.5024
21159SOL    HW169314   4.170  10.958   3.978  0.7086  0.2147  0.1806
21159SOL    HW269315   4.158  10.853   3.870 -0.0810 -0.0428  0.5102
21160SOL     OW69316   8.378   0.045   7.604 -0.3888  0.7909 -0.0949
21160SOL    HW169317   8.352   0.038   7.512  1.2445  0.9981 -0.5968
21160SOL    HW269318   8.378  -0.045   7.636 -0.7546  0.6978 -0.3520
21161SOL     OW69319   9.199  11.985  12.087  0.4683 -0.0825  0.4189
21161SOL    HW169320   9.203  12.001  12.182 -0.1668 -1.0431  0.6171
21161SOL    HW269321   9.203  12.072  12.048  2.6854  0.2396  1.2476
21162SOL     OW69322   9.407   0.810   2.179 -0.0614 -0.2951  0.7233
21162SOL    HW169323   9.403   0.715   2.165 -1.1345 -0.1767  0.0571
21162SOL    HW269324   9.319   0.841   2.155  0.9650  1.1617 -1.5377
21163SOL     OW69325   0.107   7.542   6.324  0.0011  0.0185  0.0134
21163SOL    HW169326   0.170   7.566   6.256  0.3202  0.3850  0.4275
21163SOL    HW269327   0.028   7.592   6.302  0.9000  2.1375  1.2890
21164SOL     OW69328   1.046  10.572   1.076  0.3753 -0.2150  0.2272
21164SOL    HW169329   1.078  10.603   0.991  1.3044  1.1201  1.0447
21164SOL    HW269330   1.104  10.611   1.140 -0.9405 -0.3759  1.5698
21165SOL     OW69331   1.657  10.971   8.784  0.0219 -0.5260 -0.3980
21165SOL    HW169332   1.648  10.941   8.875  1.6679  1.7897  0.6430
21165SOL    HW269333   1.592  11.040   8.775  1.5987  1.1153  0.0095
21166SOL     OW69334   0.981   2.918  11.880 -0.3799 -0.4647  0.8868
21166SOL    HW169335   1.021   2.904  11.966 -0.4963 -0.6174  0.9161
21166SOL    HW269336   0.973   3.013  11.873  1.1906 -0.3486  0.3345
21167SOL     OW69337   5.369   4.667   2.418  0.1691  0.2768  0.0960
21167SOL    HW169338   5.402   4.578   2.407 -0.9457 -0.2118  0.5062
21167SOL    HW269339   5.370   4.704   2.330  0.7140 -0.1168 -0.0667
21168SOL     OW69340   5.668   1.595   4.867  0.6363 -0.5728  0.5786
21168SOL    HW169341   5.694   1.646   4.944  1.9534  1.4978 -1.1051
21168SOL    HW269342   5.597   1.644   4.828  1.3714 -0.4319 -0.6376
21169SOL     OW69343   6.892   7.367  11.133 -0.0089 -0.7172  0.3283
21169SOL    HW169344   6.865   7.452  11.168  2.0286 -0.3504  1.1511
21169SOL    HW269345   6.854   7.303  11.194  1.1751 -0.2114  1.6520
21170SOL     OW69346   0.959   2.835   8.387  0.2195 -0.1012 -0.7183
21170SOL    HW169347   1.000   2.792   8.462  1.3211 -0.6641 -1.6064
21170SOL    HW269348   0.867   2.842   8.410 -0.0915 -3.1256 -0.5638
21171SOL     OW69349  10.586  11.113   1.957  0.0347  0.0962 -0.7900
21171SOL    HW169350  10.609  11.026   1.923 -0.6424 -0.4349  0.0701
21171SOL    HW269351  10.506  11.099   2.007 -0.6893  1.4312 -1.5321
21172SOL     OW69352   4.222   8.193   4.387  0.6600  0.0880  0.0169
21172SOL    HW169353   4.186   8.281   4.395 -0.6580 -0.4284 -0.0332
21172SOL    HW269354   4.181   8.142   4.457  0.8669 -0.6543 -0.3816
21173SOL     OW69355   8.352   0.430   3.295  0.0556  0.2894  0.0083
21173SOL    HW169356   8.345   0.463   3.206 -0.9734  0.3308  0.0966
21173SOL    HW269357   8.352   0.508   3.350  0.7518  0.2666  0.0460
21174SOL     OW69358   2.610   4.979   0.800 -0.3768  0.6118  0.4872
21174SOL    HW169359   2.691   4.959   0.753 -1.3677  2.1079 -2.0285
21174SOL    HW269360   2.540   4.948   0.743 -1.6502  1.9936  1.2196
21175SOL     OW69361   8.173   3.059   3.127  0.3457 -0.6242 -0.1892
21175SOL    HW169362   8.211   3.126   3.184  0.4491 -0.8391 -0.0030
21175SOL    HW269363   8.152   3.105   3.046 -0.0765 -0.2452  0.1267
21176SOL     OW69364  10.897   0.905   4.550 -0.0160  0.8779 -0.1376
21176SOL    HW169365  10.984   0.905   4.589  0.7541 -1.8213 -1.6222
21176SOL    HW269366  10.872   0.998   4.548  2.9759  1.8112 -0.0376
21177SOL     OW69367   0.773   4.880   6.887 -0.1404  0.3825 -0.4939
21177SOL    HW169368   0.794   4.787   6.892  0.1646  0.4679 -0.2117
21177SOL    HW269369   0.813   4.918   6.965 -0.8516  0.6356 -0.2445
21178SOL     OW69370   3.698   7.992   2.937 -0.3837  0.1987  0.6716
21178SOL    HW169371   3.683   7.951   2.852  2.2610  2.3825 -0.9917
21178SOL    HW269372   3.686   7.921   3.000 -1.7607 -1.6576 -1.5176
21179SOL     OW69373   2.231   4.894   1.036 -0.2719  0.4674  0.1037
21179SOL    HW169374   2.262   4.806   1.016  2.9957  0.9959  1.9450
21179SOL    HW269375   2.228   4.939   0.952 -0.5310 -0.9863 -0.6837
21180SOL     OW69376   8.626  10.432  10.959 -0.3626 -0.6997  0.1862
21180SOL    HW169377   8.709  10.385  10.953  0.6109  1.0274 -0.8721
21180SOL    HW269378   8.647  10.520  10.928 -2.2337  0.2622  1.5117
21181SOL     OW69379   1.461   3.826   8.477 -0.4097  0.4646 -0.1234
21181SOL    HW169380   1.449   3.816   8.382  0.7896 -0.5096 -0.2066
21181SOL    HW269381   1.388   3.778   8.515 -0.5043  0.2409 -0.5709
21182SOL     OW69382   7.504   3.719   9.002 -0.3471  0.5067  0.3415
21182SOL    HW169383   7.417   3.740   8.968  0.0582  0.4537 -0.7849
21182SOL    HW269384   7.517   3.780   9.074 -0.0733  2.7404 -1.4740
21183SOL     OW69385  11.768   4.173   0.684 -0.4420 -0.2524  0.3092
21183SOL    HW169386  11.729   4.205   0.603 -0.3968  0.5500  0.5919
21183SOL    HW269387  11.701   4.190   0.751  0.0070  0.2701  0.6423
21184SOL     OW69388  10.295   6.801   8.938 -0.1021 -0.0383  0.2958
21184SOL    HW169389  10.324   6.712   8.923  1.8538  0.4789  0.7347
21184SOL    HW269390  10.257   6.800   9.026 -3.4555 -1.1414 -0.9925
21185SOL     OW69391   1.902   3.815   1.947 -0.0126  0.4585  0.1790
21185SOL    HW169392   1.949   3.776   1.874 -0.3360 -1.1012  0.7661
21185SOL    HW269393   1.937   3.904   1.953 -0.6258  0.9757 -2.4411
21186SOL     OW69394   5.908   1.476   1.991 -0.0312  0.0026  0.0658
21186SOL    HW169395   5.988   1.442   2.032  0.0128 -0.2871 -0.2538
21186SOL    HW269396   5.939   1.522   1.913 -0.1212  0.4850  0.3114
21187SOL     OW69397   8.216   9.268   3.806  0.1905 -0.1602  0.1894
21187SOL    HW169398   8.244   9.323   3.879 -0.6644 -0.7000  0.9478
21187SOL    HW269399   8.296   9.228   3.773  0.6931  0.7436  0.2761
21188SOL     OW69400   3.231   0.484   5.517  0.3076  0.1562 -0.1177
21188SOL    HW169401   3.141   0.459   5.539  0.2011  1.2492  0.8123
21188SOL    HW269402   3.224   0.520   5.428  0.4535 -2.8158 -1.4310
21189SOL     OW69403  10.791   4.910  12.133 -0.1564  0.2736 -0.1304
21189SOL    HW169404  10.840   4.864  12.064  0.2498  0.9940 -0.3336
21189SOL    HW269405  10.711   4.859  12.144  0.7035 -1.0269  0.3133
21190SOL     OW69406   7.260   0.710   7.614  0.4984  0.4280  0.7226
21190SOL    HW169407   7.208   0.789   7.600 -0.8526 -0.6702 -0.8772
21190SOL    HW269408   7.348   0.743   7.633 -0.5914  2.3268  2.9620
21191SOL     OW69409   0.957   0.682   8.251 -0.2348  0.5301 -0.5340
21191SOL    HW169410   1.037   0.716   8.292 -0.0522 -0.2127 -0.2691
21191SOL    HW269411   0.887   0.738   8.284  0.1169  0.9074 -0.4219
21192SOL     OW69412   5.742   2.530   5.541 -0.0532  0.4110 -0.5212
21192SOL    HW169413   5.780   2.587   5.608 -1.2984  1.3525 -0.5877
21192SOL    HW269414   5.706   2.456   5.590 -1.4058  1.3405 -0.0596
21193SOL     OW69415   6.239  10.455   2.940 -0.4443  0.0967  0.2291
21193SOL    HW169416   6.202  10.494   3.019  0.8841  0.7486  0.5529
21193SOL    HW269417   6.169  10.398   2.907 -1.2731  0.3401  1.4800
21194SOL     OW69418   5.999   0.863   0.247  0.0852 -0.3905 -0.4498
21194SOL    HW169419   5.996   0.849   0.341 -1.7486  3.3731  0.2026
21194SOL    HW269420   5.923   0.916   0.227  2.5858  2.5875 -3.3136
21195SOL     OW69421   9.236   4.484   9.053 -0.0724 -0.2352 -0.2129
21195SOL    HW169422   9.187   4.555   9.010  0.2386  0.3739  0.4163
21195SOL    HW269423   9.222   4.408   8.997  1.8037  0.9169 -2.4130
21196SOL     OW69424  10.592   6.235  12.331 -0.3504  0.1915 -0.1259
21196SOL    HW169425  10.599   6.160  12.391  0.1039 -0.7806 -1.3424
21196SOL    HW269426  10.629   6.308  12.380 -1.5649 -0.1785  1.3977
21197SOL     OW69427   2.919   8.374   0.296 -0.3062  0.1897  0.3943
21197SOL    HW169428   2.840   8.411   0.334 -0.0484  0.9836  0.1843
21197SOL    HW269429   2.919   8.282   0.323 -1.5000  0.0796  0.0655
21198SOL     OW69430   8.420   9.827   4.892  0.2327 -0.0510 -0.1943
21198SOL    HW169431   8.478   9.761   4.855 -0.0436 -1.4550  1.7553
21198SOL    HW269432   8.331   9.797   4.872  0.0956 -0.4914  0.9901
21199SOL     OW69433   1.696   4.241   4.104 -0.1552  0.3543 -0.4856
21199SOL    HW169434   1.662   4.160   4.142 -0.6737  0.9460  0.3637
21199SOL    HW269435   1.669   4.238   4.013 -3.1417  1.0797  0.2590
21200SOL     OW69436   2.366   6.641   2.548 -0.3426 -0.1364  0.1872
21200SOL    HW169437   2.408   6.654   2.463  1.0955  1.7390  1.1032
21200SOL    HW269438   2.419   6.573   2.590 -1.5071 -1.6174 -0.6328
21201SOL     OW69439   2.005   1.917   3.254  0.1879 -0.0532  0.3094
21201SOL    HW169440   2.082   1.970   3.277  0.1536  0.8584 -1.5100
21201SOL    HW269441   1.941   1.936   3.323  1.4102 -0.5135  1.6310
21202SOL     OW69442   8.379   9.665   8.122 -0.0923 -0.1208  0.0441
21202SOL    HW169443   8.312   9.609   8.084  1.0461 -2.5853  1.4807
21202SOL    HW269444   8.343   9.694   8.205 -0.2657  0.5137 -0.2392
21203SOL     OW69445   6.593  10.403  11.909 -0.2869  0.4323 -0.4091
21203SOL    HW169446   6.583  10.347  11.832 -0.3245 -1.9515  1.2116
21203SOL    HW269447   6.557  10.351  11.981  2.6947  1.1478  1.7778
21204SOL     OW69448   4.796  11.131   5.354 -0.2789 -0.1759 -0.3682
21204SOL    HW169449   4.880  11.139   5.309 -0.1038  0.6034  0.0721
21204SOL    HW269450   4.816  11.081   5.433 -0.4517 -0.9390 -0.7949
21205SOL     OW69451  11.564   6.324   2.575 -0.4150 -0.0782  0.5012
21205SOL    HW169452  11.525   6.284   2.497 -0.5965  1.6052 -0.3177
21205SOL    HW269453  11.492   6.328   2.638 -1.4102  2.1625 -0.6744
21206SOL     OW69454   8.678   5.147   3.980 -1.0921  0.1976 -0.1065
21206SOL    HW169455   8.763   5.167   4.020 -1.4092  1.8273 -0.1829
21206SOL    HW269456   8.657   5.059   4.012  0.2961  0.0498  0.4728
21207SOL     OW69457   9.534   5.143   2.470 -0.4573 -0.5809 -0.1158
21207SOL    HW169458   9.453   5.146   2.521  1.4850  2.2605  3.3129
21207SOL    HW269459   9.556   5.050   2.462 -3.6802 -1.3902 -0.7498
21208SOL     OW69460  11.488   3.076  12.188  0.1965  0.7984 -0.3914
21208SOL    HW169461  11.405   3.054  12.230  0.0747  2.5924  0.4293
21208SOL    HW269462  11.509   3.164  12.221  1.7641  0.9320 -1.5924
21209SOL     OW69463   5.095   4.669   7.949  0.0608  0.2890  0.8454
21209SOL    HW169464   5.067   4.605   7.884  1.2484  1.8210 -1.3364
21209SOL    HW269465   5.123   4.617   8.024  0.1841 -1.6937 -0.4970
21210SOL     OW69466   4.652   4.981  12.148 -0.0378  0.4558  0.4772
21210SOL    HW169467   4.641   5.072  12.176  3.2237  1.1721 -0.1932
21210SOL    HW269468   4.617   4.979  12.058 -0.9455  0.7974  0.8156
21211SOL     OW69469   5.079   1.475  11.572  0.4761  0.1300  0.4161
21211SOL    HW169470   5.110   1.565  11.563  0.0339  0.2141 -0.3691
21211SOL    HW269471   4.998   1.472  11.521 -1.0496  0.0113  2.7077
21212SOL     OW69472   2.999   3.442   5.887  0.2230 -0.7769  0.3689
21212SOL    HW169473   2.987   3.390   5.808  1.3831 -1.0169  0.3284
21212SOL    HW269474   3.041   3.523   5.856  0.5584 -0.8166  0.7133
21213SOL     OW69475   5.615   8.037   8.474 -0.3377 -0.3517 -0.4565
21213SOL    HW169476   5.666   8.117   8.457 -0.5791  0.6562  2.9022
21213SOL    HW269477   5.530   8.055   8.435 -1.2922  2.3369  2.4915
21214SOL     OW69478   1.083   3.879   9.403  0.1108 -0.7457  0.9176
21214SOL    HW169479   1.012   3.916   9.454 -0.3401 -1.9730  1.2000
21214SOL    HW269480   1.160   3.888   9.459  0.1211  0.1800  0.7850
21215SOL     OW69481  11.990  11.093   9.509 -0.3590  0.0941 -0.5350
21215SOL    HW169482  11.926  11.162   9.526 -1.9336 -0.9631 -1.8707
21215SOL    HW269483  11.944  11.030   9.454  0.6471 -2.5732  1.4573
21216SOL     OW69484   0.972   9.002   5.163 -0.3271  0.0933 -0.0298
21216SOL    HW169485   0.917   8.947   5.108 -1.3558  3.3626 -2.5584
21216SOL    HW269486   0.911   9.044   5.223 -0.2576  1.6971 -1.0416
21217SOL     OW69487   3.315   3.454   1.780  0.7902 -0.3467 -0.0845
21217SOL    HW169488   3.366   3.396   1.836  0.9431  1.3619  1.6485
21217SOL    HW269489   3.379   3.516   1.746  0.7891 -1.6226 -2.6546
21218SOL     OW69490   9.360   7.212   4.619  0.5894  0.2833 -0.0050
21218SOL    HW169491   9.271   7.206   4.654  0.9984  4.7184  2.5237
21218SOL    HW269492   9.414   7.169   4.685  0.6952  2.3377  1.3276
21219SOL     OW69493   1.841  11.190   2.774  0.4972 -0.4367 -0.4946
21219SOL    HW169494   1.833  11.096   2.757  1.4053 -0.9044  1.3843
21219SOL    HW269495   1.935  11.205   2.786  0.4347  0.8580 -1.3678
21220SOL     OW69496   4.425   8.328   6.943 -0.3384  0.8881 -0.0390
21220SOL    HW169497   4.494   8.365   6.887 -1.1709 -0.5032 -2.1141
21220SOL    HW269498   4.344   8.363   6.908 -0.7972  1.6334  1.6896
21221SOL     OW69499   8.326   1.324  10.796 -0.7988  0.4573  0.4091
21221SOL    HW169500   8.402   1.378  10.815  0.6116 -1.3424  0.1066
21221SOL    HW269501   8.280   1.317  10.879  1.9097 -2.1823  1.8564
21222SOL     OW69502   6.269   6.663   6.250  0.4159 -0.0128  0.5376
21222SOL    HW169503   6.310   6.740   6.211  0.8561  1.2512  3.3212
21222SOL    HW269504   6.342   6.610   6.282  0.0378 -0.3059  0.9290
21223SOL     OW69505   1.897   0.356   0.377 -0.0155 -0.6066  0.2214
21223SOL    HW169506   1.963   0.327   0.315 -1.6329  0.7592 -2.2999
21223SOL    HW269507   1.892   0.451   0.364 -1.8719 -0.5664  0.9299
21224SOL     OW69508   8.944  10.343   7.133 -0.0699  0.1271  0.2887
21224SOL    HW169509   9.012  10.385   7.187  0.2865 -1.3520  1.0330
21224SOL    HW269510   8.895  10.416   7.096  1.7394  1.2444 -0.0234
21225SOL     OW69511   0.778  12.215   3.730 -0.2048  0.0876 -0.1082
21225SOL    HW169512   0.816  12.176   3.809 -0.4512  0.9625  0.4646
21225SOL    HW269513   0.709  12.153   3.703  0.6310 -0.7789 -0.3083
21226SOL     OW69514   6.853   6.723   7.710  0.1253  0.6735 -0.4565
21226SOL    HW169515   6.880   6.788   7.774 -0.2189  0.3918 -0.0156
21226SOL    HW269516   6.917   6.653   7.717 -0.3557  0.2882  0.1432
21227SOL     OW69517   5.593  12.142   6.556  0.3785 -0.3231 -0.2746
21227SOL    HW169518   5.618  12.060   6.514 -0.1333 -1.0983  0.8751
21227SOL    HW269519   5.529  12.181   6.496  0.0511 -1.1424 -0.4732
21228SOL     OW69520   3.356  11.990   4.118 -0.1998  0.6902  0.5200
21228SOL    HW169521   3.306  12.050   4.174  1.0191  2.5944 -0.2941
21228SOL    HW269522   3.351  12.029   4.031 -0.9696 -1.5074 -0.4758
21229SOL     OW69523  10.760  10.363  12.230  0.0733  0.3762  0.3655
21229SOL    HW169524  10.723  10.332  12.313  2.2550  0.7586  1.5488
21229SOL    HW269525  10.745  10.290  12.170  0.3659 -0.8241  1.6808
21230SOL     OW69526  10.893   3.191  12.005 -0.1960  0.0470 -0.2074
21230SOL    HW169527  10.874   3.280  11.974 -0.6569 -0.2562 -0.8415
21230SOL    HW269528  10.925   3.146  11.927 -2.0859 -0.9450 -0.4782
21231SOL     OW69529   7.704   3.919   6.189 -0.0518 -0.4621 -0.0722
21231SOL    HW169530   7.767   3.931   6.261 -1.7723 -0.2178  1.4647
21231SOL    HW269531   7.645   3.994   6.196  0.1444 -0.0397 -2.2380
21232SOL     OW69532  11.657   7.386   6.283  0.5008 -0.5105 -0.0864
21232SOL    HW169533  11.565   7.391   6.309 -0.2992 -0.6461 -2.6192
21232SOL    HW269534  11.671   7.465   6.230  1.4620 -1.1204 -0.7789
21233SOL     OW69535   8.171  11.084   1.531 -0.2318  0.9375 -0.2231
21233SOL    HW169536   8.156  11.175   1.503 -1.0961  0.5515 -1.0863
21233SOL    HW269537   8.103  11.034   1.486 -0.6933  0.0492  1.3880
21234SOL     OW69538   0.398   1.877   8.209 -0.1032  0.0376 -0.0731
21234SOL    HW169539   0.377   1.955   8.156 -0.6457  1.2422  1.8094
21234SOL    HW269540   0.474   1.904   8.261  0.3824 -1.1009 -0.1689
21235SOL     OW69541  10.419   2.139   7.779  0.0546  0.4510 -0.2372
21235SOL    HW169542  10.428   2.147   7.874  2.3177  0.2514 -0.3901
21235SOL    HW269543  10.431   2.229   7.746  0.2633  0.3651 -0.3968
21236SOL     OW69544   3.549   4.988   8.809  0.1065 -0.3750  0.0363
21236SOL    HW169545   3.501   5.051   8.863 -0.1778  0.6128 -1.3386
21236SOL    HW269546   3.513   4.903   8.835 -1.0745  0.1945  0.3502
21237SOL     OW69547   4.286   0.251  10.485  1.1084 -0.1760  0.0399
21237SOL    HW169548   4.343   0.210  10.420  0.5032 -0.0732 -0.5611
21237SOL    HW269549   4.247   0.178  10.533  1.7002 -0.2482  0.4277
21238SOL     OW69550   1.941   8.825   7.673  0.0376  0.0002  0.7086
21238SOL    HW169551   1.856   8.784   7.659 -0.2639  1.1083 -1.0435
21238SOL    HW269552   1.967   8.799   7.761 -0.5653 -3.1030  0.0698
21239SOL     OW69553   0.787   0.185   4.135  0.0913 -0.1361  0.3901
21239SOL    HW169554   0.785   0.252   4.066 -0.7961 -0.0973  0.4381
21239SOL    HW269555   0.768   0.234   4.216  1.4675 -0.1219  0.7289
21240SOL     OW69556   2.302   9.381   9.222 -0.7645  0.0701 -0.0110
21240SOL    HW169557   2.269   9.402   9.309  0.6083  1.7237  0.1595
21240SOL    HW269558   2.255   9.301   9.197 -0.8768 -0.6784  2.3904
21241SOL     OW69559   9.479  11.497   3.583  0.7169  0.1457  0.1738
21241SOL    HW169560   9.442  11.513   3.670  1.6424 -0.2838  0.6576
21241SOL    HW269561   9.416  11.437   3.541  0.5311 -0.0650  0.7426
21242SOL     OW69562   1.058   2.273   9.478  0.3672 -0.2339 -0.2002
21242SOL    HW169563   1.124   2.206   9.462  2.2148  1.2795  0.7038
21242SOL    HW269564   1.006   2.239   9.551  1.8204 -0.3398  0.8254
21243SOL     OW69565   5.362  11.898  11.913 -0.4590 -0.1894  0.4853
21243SOL    HW169566   5.360  11.808  11.881 -0.2687 -0.9765  2.4835
21243SOL    HW269567   5.417  11.894  11.992 -0.1636  1.7553  0.4403
21244SOL     OW69568  11.529   6.138  11.136 -0.0918  0.0328  0.1501
21244SOL    HW169569  11.540   6.095  11.221 -0.6352 -2.4012 -0.9080
21244SOL    HW269570  11.586   6.088  11.077 -0.1163  1.3488 -1.0245
21245SOL     OW69571  11.684   7.667   9.911  0.0772  0.2011  0.4174
21245SOL    HW169572  11.603   7.631   9.874 -0.5126  0.8103  1.1093
21245SOL    HW269573  11.680   7.647  10.004  1.2571 -0.7467  0.2945
21246SOL     OW69574  10.031   1.567   1.866  0.3174  0.0469 -0.1932
21246SOL    HW169575  10.004   1.533   1.951  0.9541 -0.8946 -0.3422
21246SOL    HW269576  10.012   1.660   1.869 -0.5695 -0.1530  0.6159
21247SOL     OW69577   5.658   0.587   8.287 -0.5554 -0.2840 -0.0642
21247SOL    HW169578   5.710   0.529   8.342 -1.3015 -1.9289 -1.0206
21247SOL    HW269579   5.657   0.544   8.201 -1.6443  0.8405 -0.6495
21248SOL     OW69580   3.649   9.960   6.038  1.0357 -0.0669  0.1505
21248SOL    HW169581   3.591   9.977   5.964 -0.4286 -2.7082  0.5309
21248SOL    HW269582   3.640  10.036   6.094 -1.1815  0.1457 -0.4013
21249SOL     OW69583   6.847  12.072   3.738  0.1704 -0.2779 -0.2533
21249SOL    HW169584   6.824  12.049   3.648  1.0125 -0.9434 -0.3099
21249SOL    HW269585   6.883  11.991   3.775 -0.8286 -0.2186  0.9100
21250SOL     OW69586   3.817   8.747  10.066 -0.5686  0.0623  0.0059
21250SOL    HW169587   3.731   8.788  10.061  0.4950  2.3882 -1.0372
21250SOL    HW269588   3.824   8.716  10.156 -1.2877  2.7587  1.0795
21251SOL     OW69589   8.834   9.496  11.268 -0.1984 -0.1209 -0.0155
21251SOL    HW169590   8.779   9.568  11.238  0.1868  0.2046  0.0421
21251SOL    HW269591   8.841   9.510  11.363 -0.7764 -0.6942  0.1131
21252SOL     OW69592   6.012   7.982   1.544  0.0389 -0.7781 -0.3269
21252SOL    HW169593   6.026   7.930   1.623  1.0639  1.1665  0.8582
21252SOL    HW269594   5.917   7.993   1.538 -0.0163  0.4273  1.6697
21253SOL     OW69595   4.322  10.627   6.160  0.7403  0.2997 -0.7361
21253SOL    HW169596   4.417  10.621   6.148  1.5398  1.8968  3.2620
21253SOL    HW269597   4.304  10.568   6.234 -1.3130  0.3609 -1.1423
21254SOL     OW69598   5.984   1.885   7.630 -0.3284  0.0914  0.3824
21254SOL    HW169599   5.938   1.889   7.714 -1.2155  2.3972 -0.1175
21254SOL    HW269600   5.917   1.861   7.566  0.3590 -1.7327  0.2878
21255SOL     OW69601   0.431   7.875   2.988 -0.0793 -0.3317 -0.4528
21255SOL    HW169602   0.522   7.873   2.958 -0.3219  0.1332 -1.2648
21255SOL    HW269603   0.386   7.814   2.930 -0.0959 -1.4195  0.6723
21256SOL     OW69604   5.166   6.825   2.377 -0.1699  0.6622 -0.2530
21256SOL    HW169605   5.186   6.876   2.298 -2.8442  1.2043 -0.6778
21256SOL    HW269606   5.224   6.748   2.371  1.2533  1.7652 -1.5613
21257SOL     OW69607   3.834   4.258   0.415  0.4034 -0.5069 -0.7538
21257SOL    HW169608   3.748   4.274   0.454  1.1548 -1.2968  1.3556
21257SOL    HW269609   3.862   4.344   0.384 -0.5021  0.0420 -0.0992
21258SOL     OW69610   6.936   4.141   7.287 -0.0808  0.2460 -0.1319
21258SOL    HW169611   6.899   4.229   7.277 -1.2015 -0.2724 -0.7183
21258SOL    HW269612   6.910   4.114   7.375 -0.8046  0.0437 -0.3942
21259SOL     OW69613   0.579   2.157   5.345 -0.4863 -0.2507 -0.0907
21259SOL    HW169614   0.564   2.237   5.296 -0.1958  0.0806  0.3553
21259SOL    HW269615   0.554   2.179   5.435  0.0984 -0.4966  0.1360
21260SOL     OW69616   0.045   3.718   1.099  0.0028 -0.2883 -1.0051
21260SOL    HW169617  -0.045   3.734   1.125  0.1329 -0.8192 -0.2274
21260SOL    HW269618   0.059   3.625   1.114  1.0765  0.0288  0.1564
21261SOL     OW69619   3.998   2.413   4.918 -0.0416 -0.1461  0.6662
21261SOL    HW169620   4.083   2.427   4.877 -0.7626  2.2722 -0.1575
21261SOL    HW269621   3.947   2.364   4.854 -0.0280  0.5646  0.0963
21262SOL     OW69622   7.001   6.559  11.971 -0.0627 -0.2432  0.5839
21262SOL    HW169623   6.940   6.572  12.043 -0.0137  0.5509  0.4831
21262SOL    HW269624   7.008   6.463  11.963  0.7943 -0.3619  2.3327
21263SOL     OW69625   0.144   0.392   3.328  0.2065 -0.4297  0.6170
21263SOL    HW169626   0.137   0.303   3.293  0.2019  0.4813 -1.9166
21263SOL    HW269627   0.083   0.444   3.276  0.3929  1.1389  1.8514
21264SOL     OW69628   4.527   5.024  11.909 -0.1682  0.6666 -0.4201
21264SOL    HW169629   4.500   5.111  11.879 -0.8033  1.1057  1.3006
21264SOL    HW269630   4.452   4.968  11.891  0.5235  0.2629 -2.2382
21265SOL     OW69631  10.464   2.411   7.705 -0.2614  0.2028  0.3276
21265SOL    HW169632  10.410   2.432   7.780 -1.8579  0.7725 -0.9306
21265SOL    HW269633  10.432   2.467   7.635  1.7969  0.3859 -0.5663
21266SOL     OW69634   2.246   0.217   1.388 -0.0866 -0.1295  0.3723
21266SOL    HW169635   2.264   0.302   1.347 -3.0683 -0.5082 -2.0558
21266SOL    HW269636   2.291   0.154   1.331  0.8738 -0.3181  1.3130
21267SOL     OW69637   1.464  11.796   6.503  0.0499 -0.1133 -0.1528
21267SOL    HW169638   1.409  11.795   6.425 -0.4823  1.5099  0.1664
21267SOL    HW269639   1.502  11.884   6.504  1.5905 -0.7537  0.3779
21268SOL     OW69640   0.993   0.261   2.764 -0.3389  0.0924 -0.0104
21268SOL    HW169641   0.976   0.303   2.848 -0.9489 -1.1693  0.5295
21268SOL    HW269642   0.910   0.269   2.716 -0.7924 -1.3135  0.4880
21269SOL     OW69643   1.710   9.967   8.164 -0.4367 -0.0901  0.4361
21269SOL    HW169644   1.732   9.876   8.145 -0.2732 -0.0962  0.6517
21269SOL    HW269645   1.791  10.005   8.197 -0.2081  0.4311 -0.7040
21270SOL     OW69646   9.759   5.409   1.621  0.2268  0.1561 -0.1025
21270SOL    HW169647   9.749   5.323   1.582 -0.0250  0.4791 -0.7769
21270SOL    HW269648   9.809   5.459   1.557 -3.0153  1.7004 -1.6923
21271SOL     OW69649   7.038  10.411  11.775  0.5698 -0.1308 -0.1308
21271SOL    HW169650   7.032  10.498  11.736 -2.5543  0.1533  0.7025
21271SOL    HW269651   7.070  10.428  11.864 -0.1844  0.2143  0.0844
21272SOL     OW69652   6.508   2.830   1.264  0.3267 -0.5038  0.5389
21272SOL    HW169653   6.540   2.792   1.346  0.6095 -0.3086  0.5199
21272SOL    HW269654   6.420   2.861   1.285  0.4147 -0.4137  0.7823
21273SOL     OW69655   0.887   0.483   3.665 -0.2558  0.2360  0.4476
21273SOL    HW169656   0.958   0.543   3.689  0.9917 -0.1387 -1.9794
21273SOL    HW269657   0.926   0.396   3.671 -0.5101  0.0174 -0.7874
21274SOL     OW69658   7.395   4.724   7.056 -0.4649 -0.2049  0.3989
21274SOL    HW169659   7.449   4.784   7.106 -0.0163  0.7523 -1.1480
21274SOL    HW269660   7.426   4.637   7.081  0.3752  0.2696  1.0564
21275SOL     OW69661   1.409  11.565   8.278 -0.1999  0.3135 -0.0324
21275SOL    HW169662   1.315  11.557   8.260 -0.0651 -0.5969 -0.3966
21275SOL    HW269663   1.426  11.496   8.342  0.4983 -0.5246 -1.0909
21276SOL     OW69664  12.264   9.543   5.915 -0.0230 -0.0251  0.0640
21276SOL    HW169665  12.196   9.522   5.851  0.5243 -0.2891 -0.4404
21276SOL    HW269666  12.334   9.583   5.863  0.8035 -1.0531  0.3626
21277SOL     OW69667   6.882   8.730   7.751 -0.2527  0.4814 -0.5670
21277SOL    HW169668   6.906   8.716   7.660 -2.3852 -0.0763 -1.0976
21277SOL    HW269669   6.873   8.641   7.787  0.4102  0.6938  0.1738
21278SOL     OW69670   5.126   0.383  10.146 -0.1947  0.0666  0.2177
21278SOL    HW169671   5.176   0.410  10.068  0.7744 -1.0401  0.4297
21278SOL    HW269672   5.086   0.464  10.177 -0.7100  0.5169 -1.4967
21279SOL     OW69673   1.024   0.700   5.283  0.3066 -0.4690  0.2690
21279SOL    HW169674   0.949   0.644   5.262 -0.8126  1.3286 -0.7666
21279SOL    HW269675   1.088   0.680   5.214  0.2202 -0.9819  0.3308
21280SOL     OW69676   6.532   7.826   1.740 -0.0407 -0.7153 -0.3600
21280SOL    HW169677   6.547   7.905   1.791 -0.8244  0.7958 -2.3518
21280SOL    HW269678   6.562   7.848   1.652 -1.6470 -2.1074 -1.3159
21281SOL     OW69679   7.949   1.714   2.626 -0.0288  0.2163 -0.2879
21281SOL    HW169680   7.859   1.706   2.657  0.2050 -1.4991  0.0184
21281SOL    HW269681   7.964   1.637   2.571  2.0809 -1.1187  1.9259
21282SOL     OW69682   8.885   1.516  10.175  0.2405  0.6540 -0.1045
21282SOL    HW169683   8.824   1.569  10.124  1.2520  2.3824  0.3992
21282SOL    HW269684   8.833   1.485  10.250 -0.4724  0.5370 -0.6299
21283SOL     OW69685   6.913   0.372   8.744  0.0545 -0.1195  0.0746
21283SOL    HW169686   6.975   0.417   8.686 -0.0951  1.3238  0.9949
21283SOL    HW269687   6.919   0.280   8.718  1.4274  0.2105 -0.9059
21284SOL     OW69688  10.772  11.464  11.722 -0.1532  0.3255 -0.1434
21284SOL    HW169689  10.779  11.533  11.656  1.4370 -0.8439 -1.2665
21284SOL    HW269690  10.720  11.504  11.792 -1.0242  1.9538 -1.6279
21285SOL     OW69691   3.844   6.392   1.421 -0.2419  0.2459  0.1425
21285SOL    HW169692   3.920   6.378   1.478 -1.4690 -2.0136  1.3867
21285SOL    HW269693   3.833   6.487   1.419  1.3411  0.5181  1.6469
21286SOL     OW69694   1.115   6.474   0.775  0.6569  0.2946 -0.7892
21286SOL    HW169695   1.210   6.471   0.789  0.5257 -0.8901 -0.0040
21286SOL    HW269696   1.092   6.386   0.747 -0.3854  0.1737  0.3632
21287SOL     OW69697   0.818   1.306   3.926 -0.8095 -0.0148 -0.0693
21287SOL    HW169698   0.776   1.344   4.003  0.1210 -2.2626  1.6620
21287SOL    HW269699   0.764   1.230   3.904 -1.1747  0.6999 -1.8245
21288SOL     OW69700   0.609   6.466   8.721 -0.7918 -0.9497 -0.3408
21288SOL    HW169701   0.703   6.465   8.740  0.1261  1.1668 -3.8671
21288SOL    HW269702   0.583   6.557   8.733 -2.3296 -1.4036  0.0243
21289SOL     OW69703   4.327   5.870  11.793 -0.6612 -0.6125 -0.1795
21289SOL    HW169704   4.295   5.860  11.703 -1.0066 -1.6417  0.0441
21289SOL    HW269705   4.249   5.893  11.844 -0.4247  0.2100 -0.1624
21290SOL     OW69706   6.844  10.560   4.102  0.0385 -0.1651  0.2520
21290SOL    HW169707   6.900  10.538   4.176  0.1143 -0.4765  0.1042
21290SOL    HW269708   6.898  10.616   4.047  0.0706 -0.1451  0.3043
21291SOL     OW69709  11.448   8.507   5.574  0.1103 -0.0466  0.5462
21291SOL    HW169710  11.368   8.483   5.527 -0.3621  1.8457  0.2839
21291SOL    HW269711  11.492   8.424   5.592 -1.1817 -1.0185 -0.6067
21292SOL     OW69712  10.064   9.998  11.988  0.2000  0.2377  0.1954
21292SOL    HW169713  10.049  10.051  11.910 -0.2378 -2.6078 -1.8075
21292SOL    HW269714  10.001  10.030  12.052 -0.7256  1.4586 -1.2683
21293SOL     OW69715   2.078   2.479   4.278  0.2363 -0.4393  0.0913
21293SOL    HW169716   2.086   2.389   4.249 -0.6664 -0.1808 -1.0375
21293SOL    HW269717   2.083   2.474   4.374 -1.3043 -1.8783  0.1533
21294SOL     OW69718   2.832   1.073   7.712 -0.3915  0.0411  0.3599
21294SOL    HW169719   2.863   1.033   7.793 -1.5129  1.3517  1.4994
21294SOL    HW269720   2.781   1.005   7.669 -0.1381 -0.5390  0.9626
21295SOL     OW69721  10.744  11.837   6.839 -0.3230  0.3665  0.2795
21295SOL    HW169722  10.764  11.931   6.841 -1.5973  0.6623  0.0823
21295SOL    HW269723  10.649  11.833   6.850 -0.2845 -0.9098  0.2611
21296SOL     OW69724   4.322   0.227   0.996  0.0457 -0.3262  0.1469
21296SOL    HW169725   4.299   0.303   1.049  0.7952  0.7762 -1.0287
21296SOL    HW269726   4.414   0.242   0.972 -0.1157 -1.0430 -1.0008
21297SOL     OW69727   8.445   5.854   8.414  0.1573  0.0239 -0.0220
21297SOL    HW169728   8.394   5.899   8.347  0.0918 -1.7375 -1.1967
21297SOL    HW269729   8.391   5.780   8.441  0.6163  0.1268  1.2758
21298SOL     OW69730   6.977   9.214   6.474 -0.3056 -0.4890  0.6070
21298SOL    HW169731   6.990   9.309   6.474  2.2651 -0.7478 -0.9934
21298SOL    HW269732   7.020   9.183   6.553 -1.6644 -0.3164  1.4444
21299SOL     OW69733  11.413   9.552   1.564  0.1752  0.2232  0.5075
21299SOL    HW169734  11.416   9.458   1.581 -0.5927 -0.1823 -1.2941
21299SOL    HW269735  11.504   9.577   1.550  0.2199 -0.7659 -1.2751
21300SOL     OW69736   4.521   2.323   7.429  0.5351 -0.3846  0.0017
21300SOL    HW169737   4.511   2.262   7.502  0.0742  0.3416  0.5580
21300SOL    HW269738   4.574   2.394   7.465 -2.1391  1.4549  0.5870
21301SOL     OW69739   7.605   2.210   7.942  0.2220 -0.0884 -0.4021
21301SOL    HW169740   7.567   2.290   7.907  0.0388 -0.0089 -0.0340
21301SOL    HW269741   7.699   2.226   7.944  0.2363 -0.1171 -0.9054
21302SOL     OW69742  11.065   0.291   3.048  0.0339  0.6565 -0.2018
21302SOL    HW169743  11.046   0.203   3.082 -2.3004  0.1545 -2.4694
21302SOL    HW269744  11.148   0.281   3.003 -0.2287 -0.4267 -0.4834
21303SOL     OW69745   3.810   6.991   3.098  0.0043  0.6112 -0.1410
21303SOL    HW169746   3.742   7.046   3.059  0.1587  0.8695 -0.0479
21303SOL    HW269747   3.791   6.992   3.192 -0.0067  0.4838 -0.1410
21304SOL     OW69748   0.141   0.864   6.682 -0.0160 -0.2656  0.2028
21304SOL    HW169749   0.050   0.884   6.659 -0.2894 -0.2497  1.2240
21304SOL    HW269750   0.189   0.942   6.655  0.1842 -1.3016 -2.8293
21305SOL     OW69751   5.758   4.716   6.689 -0.2021  0.7371 -0.7397
21305SOL    HW169752   5.796   4.734   6.603 -1.3268  0.8785 -1.2227
21305SOL    HW269753   5.778   4.793   6.742 -0.5239  1.1630 -1.2357
21306SOL     OW69754   1.809   0.826  11.976  0.6323  0.2971  0.4432
21306SOL    HW169755   1.714   0.812  11.978  0.7272 -0.3511  0.5088
21306SOL    HW269756   1.840   0.793  12.061  0.8066  1.3304  0.7909
21307SOL     OW69757  11.296   8.405   6.546 -0.0986  0.3500 -0.1132
21307SOL    HW169758  11.301   8.328   6.489 -1.1822  1.1312 -1.3172
21307SOL    HW269759  11.356   8.385   6.618 -0.5516 -1.7345 -0.2439
21308SOL     OW69760   5.346  10.895  10.227 -0.1200  0.6094 -0.1740
21308SOL    HW169761   5.361  10.801  10.235 -0.2140  0.7552  2.8124
21308SOL    HW269762   5.253  10.903  10.207 -0.9074  0.0261  2.7913
21309SOL     OW69763   8.299   9.917   9.687  0.1841  0.2844  0.4384
21309SOL    HW169764   8.367   9.982   9.668 -0.6665  1.0732  0.0420
21309SOL    HW269765   8.347   9.834   9.692  1.0960  0.7363 -0.4096
21310SOL     OW69766   3.901   3.436  10.393  0.1597 -0.2870  0.3571
21310SOL    HW169767   3.940   3.358  10.433 -1.5537 -1.7195 -0.6030
21310SOL    HW269768   3.939   3.441  10.306  0.9317  0.5071  0.7250
21311SOL     OW69769   7.178  11.715   1.866  0.0322 -0.3047 -0.3070
21311SOL    HW169770   7.250  11.770   1.833 -0.7710 -0.5115 -2.6218
21311SOL    HW269771   7.190  11.713   1.961  3.0797 -0.3739 -0.6209
21312SOL     OW69772  10.398  11.022   5.819  0.0593  0.0442 -0.0227
21312SOL    HW169773  10.444  11.024   5.736  1.9978 -0.2364  0.9871
21312SOL    HW269774  10.410  11.110   5.856 -0.5224  0.0744  0.1042
21313SOL     OW69775   0.701  12.053   0.415 -0.6192  0.2517 -0.1988
21313SOL    HW169776   0.698  12.121   0.348  2.5396  0.5985 -0.1338
21313SOL    HW269777   0.657  12.092   0.491  0.9727  2.2374 -0.2142
21314SOL     OW69778   5.560  11.490  10.641  0.9090  0.2011 -0.0761
21314SOL    HW169779   5.608  11.488  10.558  1.6072 -3.2704  0.2304
21314SOL    HW269780   5.628  11.484  10.708  0.2364 -0.4161  0.5691
21315SOL     OW69781   7.636  10.675   1.169  0.1763  0.0333 -0.1690
21315SOL    HW169782   7.694  10.631   1.107 -0.1879  1.2593 -1.4376
21315SOL    HW269783   7.688  10.749   1.201 -0.2262  0.4064 -0.3587
21316SOL     OW69784   2.934   7.876   5.720  0.2239 -0.0789  0.0681
21316SOL    HW169785   2.896   7.923   5.794  0.8881 -0.0918  0.4258
21316SOL    HW269786   2.909   7.927   5.643  0.0895  0.2982  0.3610
21317SOL     OW69787   2.394   9.190   5.950 -0.6709  0.0139 -0.4858
21317SOL    HW169788   2.308   9.201   5.910  0.4328  3.3546 -2.4152
21317SOL    HW269789   2.450   9.161   5.878  0.4317  1.2466 -0.1603
21318SOL     OW69790   2.383   7.412   4.619  0.1964 -0.0195 -0.6515
21318SOL    HW169791   2.322   7.411   4.545  1.3311  0.3622 -1.6248
21318SOL    HW269792   2.453   7.352   4.592  0.9798  0.6845 -0.2017
21319SOL     OW69793   6.750  12.002   9.194  0.3449  0.1716 -0.9762
21319SOL    HW169794   6.711  12.085   9.219  0.7281  0.6220 -1.8518
21319SOL    HW269795   6.842  12.008   9.222  0.0976 -0.4327  0.0316
21320SOL     OW69796  10.804   3.297   4.192 -0.0532  0.0732 -0.2294
21320SOL    HW169797  10.752   3.220   4.216 -0.3621 -0.8051 -3.3362
21320SOL    HW269798  10.739   3.366   4.176 -0.1551 -0.3602 -1.8357
21321SOL     OW69799   8.665   0.963   5.818  0.1133 -0.1006 -0.0561
21321SOL    HW169800   8.653   0.869   5.802 -1.5652  0.2366 -1.0887
21321SOL    HW269801   8.658   0.972   5.913  0.5085 -1.0389  0.0756
21322SOL     OW69802  11.291   2.058  11.421  0.3663 -0.3369 -0.5282
21322SOL    HW169803  11.288   2.145  11.381 -1.8925 -0.8911 -1.7486
21322SOL    HW269804  11.369   2.017  11.383  1.1003  0.9208 -0.4282
21323SOL     OW69805   2.568   9.504  10.058 -0.0843 -0.0269  0.1694
21323SOL    HW169806   2.488   9.469  10.020  0.1021  1.2103 -1.4358
21323SOL    HW269807   2.635   9.488   9.991  0.3328  1.8537  0.0919
21324SOL     OW69808   0.834   6.171   6.327 -0.0436 -0.2744  0.0289
21324SOL    HW169809   0.802   6.261   6.319 -1.0362 -0.6746 -0.8285
21324SOL    HW269810   0.849   6.143   6.236  0.8213 -0.7920  0.3146
21325SOL     OW69811   4.529   7.514   2.212 -0.2813 -0.2574 -0.3391
21325SOL    HW169812   4.477   7.434   2.202  0.5705 -0.8696 -0.0181
21325SOL    HW269813   4.466   7.580   2.241 -0.9556 -0.8792 -0.3522
21326SOL     OW69814   4.057   6.838  11.534  0.4170 -0.3239 -0.5643
21326SOL    HW169815   4.028   6.868  11.620  1.4329  0.6953 -0.5452
21326SOL    HW269816   4.128   6.898  11.511 -0.5516  0.1370 -2.6050
21327SOL     OW69817   4.929   0.846   2.054 -0.2828  0.0112 -0.3375
21327SOL    HW169818   4.876   0.840   2.133  1.1221 -2.6979  0.5505
21327SOL    HW269819   4.867   0.834   1.982 -1.2213 -0.3827  0.5200
21328SOL     OW69820   3.328   1.350  11.110  0.4014 -0.4696  0.6460
21328SOL    HW169821   3.327   1.385  11.199  2.5547 -1.8810  1.3323
21328SOL    HW269822   3.334   1.255  11.122 -0.3883 -0.7777 -1.0506
21329SOL     OW69823   4.737   8.585  11.205 -1.0268 -0.0692  0.0346
21329SOL    HW169824   4.800   8.604  11.275 -0.4570  0.4220 -0.5956
21329SOL    HW269825   4.777   8.622  11.126 -2.0355  0.1073 -0.4147
21330SOL     OW69826  11.415   8.532   4.460  0.6396 -0.0552 -0.0569
21330SOL    HW169827  11.376   8.510   4.375  1.9522  0.3159 -0.7792
21330SOL    HW269828  11.507   8.548   4.441  1.1161 -0.6524  1.5670
21331SOL     OW69829   0.071   4.268   8.993 -0.3871  0.0019 -0.0357
21331SOL    HW169830   0.102   4.260   9.083 -1.6369 -1.0248  0.3300
21331SOL    HW269831  -0.021   4.242   8.997 -0.7713  1.0084 -1.4238
21332SOL     OW69832  12.249   5.014   5.730  0.1160 -0.3871  0.4240
21332SOL    HW169833  12.306   5.079   5.688 -1.3331 -0.6186 -2.1343
21332SOL    HW269834  12.308   4.944   5.757  1.3020  0.4501  0.0897
21333SOL     OW69835   0.132   6.112   1.820 -0.0932  0.3057 -0.0064
21333SOL    HW169836   0.082   6.194   1.826 -0.8039 -0.1626  0.7558
21333SOL    HW269837   0.103   6.061   1.896 -0.3196 -1.0107 -0.9374
21334SOL     OW69838   2.551   2.602   2.925 -0.2486 -0.2803 -0.7233
21334SOL    HW169839   2.556   2.641   3.012 -0.0098 -0.1710 -0.7879
21334SOL    HW269840   2.640   2.572   2.906 -0.5265 -1.3435 -0.4466
21335SOL     OW69841   4.666   9.963   2.811 -0.0352  0.6053 -0.4814
21335SOL    HW169842   4.577   9.981   2.842 -0.4528 -1.3662 -0.3548
21335SOL    HW269843   4.664   9.985   2.718 -0.4236  1.2748 -0.3248
21336SOL     OW69844   9.372  10.425   0.889 -0.2772  0.2010  0.1276
21336SOL    HW169845   9.401  10.338   0.918 -0.8244 -0.3928 -1.0538
21336SOL    HW269846   9.398  10.429   0.797 -1.7394  0.6301 -0.2817
21337SOL     OW69847   8.560   7.329   7.615 -0.0532  0.4420 -0.4010
21337SOL    HW169848   8.525   7.418   7.612 -1.0055  0.2717  2.6625
21337SOL    HW269849   8.485   7.275   7.640  0.8583 -1.0096 -0.6794
21338SOL     OW69850   5.176   9.715   2.959 -0.0070 -0.0316 -0.6639
21338SOL    HW169851   5.085   9.689   2.978  0.4268 -1.0476  0.1441
21338SOL    HW269852   5.172   9.757   2.873 -0.9176 -1.9379 -1.5948
21339SOL     OW69853   1.127   5.043   7.321 -0.3630  0.2617 -0.2830
21339SOL    HW169854   1.109   4.992   7.400  0.3110  0.2264 -0.1450
21339SOL    HW269855   1.210   5.007   7.288 -1.0001 -0.2158 -1.4155
21340SOL     OW69856   7.667   9.497  10.663 -0.0488  0.2925 -0.2670
21340SOL    HW169857   7.602   9.461  10.603 -0.9020  1.2371  0.0541
21340SOL    HW269858   7.712   9.421  10.699 -0.0406 -0.3185 -1.5156
21341SOL     OW69859   0.414   7.841   4.606 -0.2521 -0.5271  0.4349
21341SOL    HW169860   0.402   7.871   4.516 -0.8824 -0.9653  0.3697
21341SOL    HW269861   0.489   7.892   4.638 -0.5461  0.2338 -0.0624
21342SOL     OW69862   3.892   8.618   0.679 -0.5322  0.1988  0.0976
21342SOL    HW169863   3.859   8.612   0.769  1.3243 -0.9045  0.7623
21342SOL    HW269864   3.881   8.529   0.644 -1.1493  0.5976 -0.7508
21343SOL     OW69865  11.501   6.282   6.401  0.2299  0.1696 -0.6079
21343SOL    HW169866  11.516   6.248   6.489  2.6240  0.4183 -0.8601
21343SOL    HW269867  11.506   6.205   6.344  0.3194  0.2342 -0.6873
21344SOL     OW69868   5.949  12.234   5.187  0.2513 -0.4143  0.0940
21344SOL    HW169869   6.042  12.227   5.167 -0.2475 -0.4046 -2.7134
21344SOL    HW269870   5.914  12.147   5.166 -0.6579  0.1818 -0.9689
21345SOL     OW69871   0.102   4.281  10.063  0.4631  0.1109 -0.1341
21345SOL    HW169872   0.025   4.265  10.118  0.8821  0.5921  0.6108
21345SOL    HW269873   0.176   4.281  10.124  0.8447  1.5290 -0.5506
21346SOL     OW69874   7.339   8.817  10.206  0.2197 -0.1502 -0.1129
21346SOL    HW169875   7.256   8.770  10.213 -0.6207  0.9147 -2.0097
21346SOL    HW269876   7.391   8.764  10.145 -0.1675  0.5600 -1.0944
21347SOL     OW69877  10.448   3.147   1.309 -0.2203 -0.4210 -0.0244
21347SOL    HW169878  10.460   3.172   1.217 -1.4919  1.9205  0.3751
21347SOL    HW269879  10.405   3.062   1.305  0.0989 -0.5381 -1.5885
21348SOL     OW69880   7.963   7.057  11.595 -0.4325  0.4815  0.2736
21348SOL    HW169881   7.918   6.974  11.581 -1.6043  1.2941 -1.0892
21348SOL    HW269882   8.000   7.050  11.683 -0.3148 -1.5428  0.1074
21349SOL     OW69883  10.164   1.750  12.264  0.1025  0.2891  0.6117
21349SOL    HW169884  10.106   1.824  12.248  0.5236  0.6954  0.9188
21349SOL    HW269885  10.202   1.768  12.350  0.7522  0.0802  0.3742
21350SOL     OW69886   0.420   2.440   7.053  0.2733 -0.4213  0.0141
21350SOL    HW169887   0.397   2.387   7.130 -1.1748 -0.5274 -0.4551
21350SOL    HW269888   0.489   2.498   7.084  0.8898 -1.5941  0.9365
21351SOL     OW69889   1.950   7.792   1.650 -0.1795 -0.2976  0.1476
21351SOL    HW169890   1.881   7.810   1.714 -0.2557 -0.2241  0.0442
21351SOL    HW269891   1.940   7.698   1.631 -0.6164 -0.1589 -0.2989
21352SOL     OW69892   6.237   4.736   8.421  0.4215  0.1977  0.1752
21352SOL    HW169893   6.171   4.712   8.486  0.1980  1.4770  0.4327
21352SOL    HW269894   6.274   4.652   8.393 -1.4392 -0.5798 -0.1254
21353SOL     OW69895  11.144   5.364  11.680  0.0394  0.2931  0.3914
21353SOL    HW169896  11.201   5.387  11.753  1.6059  0.3550 -0.7927
21353SOL    HW269897  11.098   5.285  11.709  1.7962 -0.6003  0.8792
21354SOL     OW69898   7.658   8.694   0.817  0.2988 -0.3781  0.2055
21354SOL    HW169899   7.697   8.610   0.791  1.4158 -0.1083  0.9903
21354SOL    HW269900   7.600   8.716   0.743  1.8236 -0.6522 -1.1288
21355SOL     OW69901   9.239   7.052   5.105 -0.0343 -0.4386 -0.2997
21355SOL    HW169902   9.323   7.007   5.093 -1.2216 -2.4321 -1.7415
21355SOL    HW269903   9.262   7.132   5.153  2.9395 -0.0504 -2.0784
21356SOL     OW69904   7.475   3.348  10.817 -0.4167 -0.0920 -0.1097
21356SOL    HW169905   7.485   3.400  10.896  0.3909  0.3971 -0.5291
21356SOL    HW269906   7.424   3.272  10.845 -1.6903  0.9459  0.4943
21357SOL     OW69907  10.523   4.858   6.070  0.0006 -0.1396  0.2559
21357SOL    HW169908  10.479   4.777   6.045  0.1388 -0.7622  1.8489
21357SOL    HW269909  10.461   4.901   6.129  0.3035  0.4647  0.1359
21358SOL     OW69910   0.184   7.900   9.831  0.0633 -0.2777  0.1034
21358SOL    HW169911   0.139   7.856   9.758 -1.0704 -0.1969  0.7316
21358SOL    HW269912   0.153   7.991   9.826 -0.7896 -0.4887  1.2604
21359SOL     OW69913  11.911   2.234   1.932 -0.2574 -0.5783 -0.0235
21359SOL    HW169914  11.899   2.318   1.888 -0.3875 -0.6441 -0.1130
21359SOL    HW269915  11.909   2.256   2.025  1.6244 -0.2024 -0.0298
21360SOL     OW69916   4.686   2.441  11.031 -0.1681 -0.3394  0.0337
21360SOL    HW169917   4.676   2.351  11.002 -1.9191 -0.4003  0.6806
21360SOL    HW269918   4.600   2.464  11.067  0.7340  1.0305  1.4341
21361SOL     OW69919   6.879   9.015  10.217  0.0612 -0.3164 -0.3594
21361SOL    HW169920   6.942   8.951  10.250  1.4536  0.2564 -1.8304
21361SOL    HW269921   6.872   9.080  10.287  0.1798 -0.9891  0.2969
21362SOL     OW69922   8.985   8.482   5.268 -0.3131  0.3416 -0.0106
21362SOL    HW169923   8.910   8.425   5.288 -1.5215  1.5623 -0.9196
21362SOL    HW269924   8.979   8.553   5.331  0.6003  0.0184  0.4587
21363SOL     OW69925   8.533   8.562   6.403 -0.5040  0.2529  0.0304
21363SOL    HW169926   8.484   8.517   6.472 -0.3569 -1.7691 -1.0994
21363SOL    HW269927   8.600   8.613   6.449 -0.9201 -0.4056  1.3965
21364SOL     OW69928   6.556   9.362   6.678 -0.3155 -0.1673  0.3725
21364SOL    HW169929   6.622   9.340   6.743 -0.2298 -0.7794  0.0888
21364SOL    HW269930   6.507   9.434   6.716 -0.5033 -0.7615  1.2695
21365SOL     OW69931   1.426   4.534   0.605  0.7830  0.2727 -0.3334
21365SOL    HW169932   1.356   4.598   0.609 -0.1327 -0.7261  0.1492
21365SOL    HW269933   1.473   4.543   0.688  1.3166  1.0191 -0.7045
21366SOL     OW69934   2.639   5.799   3.122 -0.1508  0.3153  0.3029
21366SOL    HW169935   2.643   5.895   3.129  2.0634  0.2044  1.3560
21366SOL    HW269936   2.611   5.783   3.032 -1.0497  1.9343  0.2525
21367SOL     OW69937   4.481   3.026  11.485  0.7609  0.3546  0.0923
21367SOL    HW169938   4.411   3.042  11.549  0.4148  0.2328 -0.2486
21367SOL    HW269939   4.474   2.933  11.465 -0.9434  0.8802 -2.1684
21368SOL     OW69940   7.725   7.976   4.419 -0.3797  0.7090  0.2384
21368SOL    HW169941   7.772   7.893   4.418  0.0211  0.9110  1.3144
21368SOL    HW269942   7.665   7.971   4.344 -0.3647 -0.5425  0.3022
21369SOL     OW69943   1.959   0.191   4.217 -0.3416 -0.0706  0.1203
21369SOL    HW169944   1.871   0.181   4.181 -0.6043  0.3817  0.6224
21369SOL    HW269945   1.961   0.131   4.292  0.0407 -0.6484 -0.3432
21370SOL     OW69946  10.525   5.019   5.053  0.5095  0.5429 -0.2877
21370SOL    HW169947  10.530   5.077   5.130 -0.1626  0.5140 -0.2143
21370SOL    HW269948  10.440   5.040   5.014 -0.2780 -1.2012  0.3850
21371SOL     OW69949   4.543   6.099  11.734 -0.2005 -0.2041 -0.2667
21371SOL    HW169950   4.578   6.187  11.746 -0.0181 -0.1098 -1.3403
21371SOL    HW269951   4.546   6.059  11.821  1.1231  0.3262 -0.0499
21372SOL     OW69952   5.617   2.443   7.702  0.3666 -0.6228 -0.2231
21372SOL    HW169953   5.692   2.394   7.666  0.1116 -0.6693 -0.7016
21372SOL    HW269954   5.562   2.461   7.626  0.8218  1.0617 -0.1839
21373SOL     OW69955   6.370   3.126  12.014 -0.3013 -0.0525 -0.3324
21373SOL    HW169956   6.349   3.056  12.076 -2.5735 -0.2250 -1.2037
21373SOL    HW269957   6.300   3.190  12.025  0.5582  1.0578 -1.0747
21374SOL     OW69958   0.698   3.822  11.757 -0.0585  0.0900  0.6531
21374SOL    HW169959   0.666   3.798  11.670  2.0519  1.2780 -0.5181
21374SOL    HW269960   0.636   3.888  11.788 -0.3415  0.2932 -0.3168
21375SOL     OW69961  10.203   8.736   2.844 -0.6790 -0.3047  0.2042
21375SOL    HW169962  10.265   8.796   2.886 -1.3499  0.1018  0.6376
21375SOL    HW269963  10.132   8.728   2.908  0.0866 -2.8015  0.8597
21376SOL     OW69964   8.223  10.819   5.799 -0.2135  0.0751 -0.0242
21376SOL    HW169965   8.178  10.785   5.876 -0.2285  1.3799  0.5703
21376SOL    HW269966   8.179  10.901   5.780  1.4491  1.0440  0.1582
21377SOL     OW69967   0.040   1.887   9.341 -0.3795 -0.1853 -0.0883
21377SOL    HW169968   0.067   1.872   9.251 -0.5742 -0.8462 -0.0424
21377SOL    HW269969  -0.055   1.899   9.336 -0.2635  0.8121 -0.0905
21378SOL     OW69970  10.439  10.102  10.242 -0.4950  0.1911  0.2073
21378SOL    HW169971  10.401  10.139  10.321 -1.6939  0.8568 -0.6397
21378SOL    HW269972  10.533  10.102  10.257 -0.7304 -0.2427  1.8452
21379SOL     OW69973   9.605   4.247   3.668 -0.3276 -0.1388  0.0611
21379SOL    HW169974   9.586   4.265   3.760 -1.7921  0.5331 -0.3336
21379SOL    HW269975   9.618   4.334   3.629  1.3083 -0.4624 -0.1988
21380SOL     OW69976   4.491   0.823   4.763  0.8969 -0.1443 -0.3336
21380SOL    HW169977   4.430   0.836   4.835 -0.0588  0.6466 -1.2450
21380SOL    HW269978   4.468   0.738   4.727  0.0394  0.3174 -0.9151
21381SOL     OW69979   9.272   5.440   1.662 -0.7868  0.2374  0.2117
21381SOL    HW169980   9.326   5.376   1.709 -1.1021  0.5609  1.0280
21381SOL    HW269981   9.283   5.416   1.569 -1.8416 -1.7742  0.5343
21382SOL     OW69982   5.950   0.156   5.275  0.1080 -0.3273 -0.3380
21382SOL    HW169983   5.930   0.078   5.223 -1.2949  0.3531 -0.8663
21382SOL    HW269984   5.984   0.121   5.358  2.2211 -1.4387 -1.5804
21383SOL     OW69985   7.606   5.142   0.732  0.2180 -0.3692 -0.2161
21383SOL    HW169986   7.609   5.048   0.748  0.4768 -0.3186  0.0425
21383SOL    HW269987   7.611   5.181   0.819  3.6748 -0.0400 -0.4194
21384SOL     OW69988   0.396   1.170  11.652 -0.2336 -0.0967 -0.4369
21384SOL    HW169989   0.337   1.244  11.639  0.0489  0.0128 -1.1071
21384SOL    HW269990   0.403   1.162  11.747 -0.9474  0.1911 -0.3501
21385SOL     OW69991  11.400   8.078  11.946 -0.3646 -0.0418  0.0285
21385SOL    HW169992  11.387   8.171  11.967 -0.1420  0.0610 -0.2871
21385SOL    HW269993  11.487   8.075  11.906  1.0171 -0.8158  2.8034
21386SOL     OW69994   9.407   6.546   3.144 -0.0694 -0.3343 -0.0596
21386SOL    HW169995   9.498   6.523   3.160 -0.1947 -0.5509  0.3705
21386SOL    HW269996   9.410   6.622   3.086  0.3736 -0.6560 -0.4676
21387SOL     OW69997   0.606  11.298   0.793 -0.3459 -0.4276  0.4658
21387SOL    HW169998   0.683  11.314   0.848 -2.3776  0.9397  3.1297
21387SOL    HW269999   0.577  11.210   0.818 -1.1011  0.0792  1.4324
21388SOL     OW70000   0.455   4.084   7.583  0.7276  0.6062 -0.8206
21388SOL    HW170001   0.486   4.088   7.674  1.9811 -1.1074 -1.1157
21388SOL    HW270002   0.364   4.055   7.590  1.2393 -0.9670 -0.1104
21389SOL     OW70003   1.458   1.427   0.554 -0.1799  0.2059  0.0629
21389SOL    HW170004   1.482   1.408   0.463 -1.3427 -0.2057 -0.1655
21389SOL    HW270005   1.454   1.342   0.596  0.0466  0.3754  0.4322
21390SOL     OW70006   3.229   3.779   6.673 -0.5970  0.1189 -0.0699
21390SOL    HW170007   3.197   3.696   6.707 -1.1791  0.6488  0.6826
21390SOL    HW270008   3.150   3.827   6.647 -0.3163  0.7759  0.2773
21391SOL     OW70009  10.156   8.284   6.961 -0.5008 -0.4458 -0.4260
21391SOL    HW170010  10.250   8.298   6.961 -0.4608 -0.4335 -2.3917
21391SOL    HW270011  10.141   8.216   7.026  0.5144  1.3620  1.8463
21392SOL     OW70012   9.084   5.907   3.507  0.0512  0.9765  0.6516
21392SOL    HW170013   9.080   5.839   3.440  1.6299  0.6440  0.8702
21392SOL    HW270014   9.139   5.870   3.576 -2.1907  0.9641  2.5681
21393SOL     OW70015   7.702   5.172  12.204  0.1855 -0.1482  0.1870
21393SOL    HW170016   7.677   5.254  12.247 -1.3249 -1.6764  2.4849
21393SOL    HW270017   7.619   5.137  12.170  0.6200 -1.1741  0.1357
21394SOL     OW70018   2.268   8.361   5.759 -0.3859  0.3637  0.4386
21394SOL    HW170019   2.259   8.276   5.717 -1.5720 -0.5215  2.3587
21394SOL    HW270020   2.178   8.393   5.769 -0.0732  0.9851  1.3970
21395SOL     OW70021   4.747   9.242   8.125  0.6234 -0.0835  0.2313
21395SOL    HW170022   4.753   9.164   8.180  0.0709  0.7155  1.4654
21395SOL    HW270023   4.700   9.306   8.179  0.5954  0.9307 -0.9524
21396SOL     OW70024   2.099  11.991   5.015  0.1442 -0.3374  0.2481
21396SOL    HW170025   2.173  11.997   5.075 -0.4040  0.3946  0.8687
21396SOL    HW270026   2.038  12.058   5.045 -0.9267 -1.1542 -0.0318
21397SOL     OW70027   3.898   8.599   2.550 -0.3164  0.3340 -0.0976
21397SOL    HW170028   3.987   8.628   2.570 -0.5136  0.3043  0.8876
21397SOL    HW270029   3.869   8.554   2.629 -0.5176 -1.3700 -1.0938
21398SOL     OW70030   7.906  10.760  11.324 -0.1840 -0.2308 -0.4524
21398SOL    HW170031   7.872  10.848  11.310  1.1936  0.4030 -0.0114
21398SOL    HW270032   7.828  10.707  11.343 -1.0196  0.9110 -0.5700
21399SOL     OW70033   7.637   0.517   7.311 -0.3419  0.2750 -0.4419
21399SOL    HW170034   7.694   0.446   7.282 -1.5665 -0.4270 -1.2072
21399SOL    HW270035   7.591   0.481   7.387  0.0679  0.7743  0.0570
21400SOL     OW70036  10.435  11.490  10.329 -0.2155 -0.0001  0.0901
21400SOL    HW170037  10.418  11.408  10.374  0.1929  0.1162  0.4754
21400SOL    HW270038  10.396  11.480  10.243 -0.4436 -0.4771  0.2498
21401SOL     OW70039  11.411   2.222   6.725  0.1476  0.4268  0.1616
21401SOL    HW170040  11.472   2.159   6.762  0.6733  0.9640  0.2205
21401SOL    HW270041  11.363   2.173   6.659 -0.0591 -0.2621  0.8112
21402SOL     OW70042   6.690   7.257   7.732  0.0932  0.3590 -0.6514
21402SOL    HW170043   6.624   7.288   7.795 -0.1280  0.9207 -1.1492
21402SOL    HW270044   6.756   7.213   7.786 -0.7545 -0.3408 -0.1607
21403SOL     OW70045   6.664   8.560   1.497  0.0935 -0.0308  0.0547
21403SOL    HW170046   6.724   8.520   1.435 -0.6949 -1.5916  0.2600
21403SOL    HW270047   6.690   8.652   1.500  1.9366 -0.5082 -0.4517
21404SOL     OW70048   3.145   6.887   8.865 -0.2660 -0.1802  0.4408
21404SOL    HW170049   3.176   6.852   8.781 -1.8093  0.9489 -0.6702
21404SOL    HW270050   3.220   6.935   8.900  0.0398  0.4216 -0.9477
21405SOL     OW70051   9.929   2.027   2.729  0.0273 -0.1856 -0.2762
21405SOL    HW170052   9.979   2.068   2.799  0.4984 -1.5029  0.1865
21405SOL    HW270053   9.841   2.016   2.766  0.2862 -0.9146  0.1286
21406SOL     OW70054   4.483   9.478   5.241 -0.2915 -0.0439 -0.1927
21406SOL    HW170055   4.399   9.523   5.234 -0.3528 -0.3181 -1.6210
21406SOL    HW270056   4.539   9.521   5.176  1.0272  0.8347  1.4691
21407SOL     OW70057  10.849   4.752   3.580  0.4577 -0.0535 -0.0866
21407SOL    HW170058  10.767   4.801   3.569  0.3372 -0.4680 -1.1419
21407SOL    HW270059  10.838   4.675   3.525  1.1077 -0.6989  0.6649
21408SOL     OW70060   4.847  11.999   4.308 -0.3775  0.2137 -0.0862
21408SOL    HW170061   4.891  12.001   4.223 -0.3482  0.0240 -0.0744
21408SOL    HW270062   4.842  11.906   4.331  0.0096  0.2861  0.3212
21409SOL     OW70063  11.089   7.025   3.635  0.3477 -0.0935  0.0475
21409SOL    HW170064  11.155   7.093   3.647  0.5098 -0.0236 -1.1402
21409SOL    HW270065  11.048   7.016   3.721  0.0202  1.8116  0.1288
21410SOL     OW70066   2.700   9.950  10.720  0.3342  0.1714  0.0171
21410SOL    HW170067   2.613   9.968  10.756  0.3918  0.0824  0.2013
21410SOL    HW270068   2.715  10.020  10.657 -0.1063 -0.1266 -0.4321
21411SOL     OW70069   9.068   7.016   2.307 -0.1772 -0.5991  0.0294
21411SOL    HW170070   9.036   7.035   2.219 -2.4825 -2.9281  0.2502
21411SOL    HW270071   9.141   6.955   2.293  0.8041  0.6211 -0.2991
21412SOL     OW70072   7.861   0.925   3.907  0.1190  0.4655 -0.1427
21412SOL    HW170073   7.852   0.851   3.968  2.7546  1.1770  1.2689
21412SOL    HW270074   7.820   0.999   3.953  0.1382  0.5319 -0.2314
21413SOL     OW70075   7.199  11.400  10.866 -1.0136 -0.4725 -0.1735
21413SOL    HW170076   7.205  11.305  10.877  0.9694 -0.3348  0.3779
21413SOL    HW270077   7.288  11.427  10.847 -1.7458  1.1753 -1.4692
21414SOL     OW70078   6.320   2.512   7.201  0.3615 -0.1294  0.0766
21414SOL    HW170079   6.228   2.499   7.225  0.8224 -0.7423  1.6525
21414SOL    HW270080   6.350   2.581   7.259  1.5176 -1.6441  1.3860
21415SOL     OW70081   2.237   7.474   7.953  0.0140 -0.0099  0.5364
21415SOL    HW170082   2.245   7.417   7.876 -0.2624 -0.9433  1.1737
21415SOL    HW270083   2.327   7.503   7.970 -0.0825  1.2212 -0.8503
21416SOL     OW70084   8.866  10.955  10.230  0.5006 -0.7631  0.3258
21416SOL    HW170085   8.885  11.019  10.299 -1.3543  0.1744  0.0332
21416SOL    HW270086   8.812  11.003  10.167  1.5242 -1.8120 -1.4275
21417SOL     OW70087   1.840   3.857   3.141 -0.2618 -0.0631 -0.1651
21417SOL    HW170088   1.801   3.821   3.062 -0.2017 -0.1258 -0.1660
21417SOL    HW270089   1.897   3.787   3.174  0.5777  0.3617 -0.6764
21418SOL     OW70090   3.535   7.016   4.383 -0.1703 -0.0353 -0.6445
21418SOL    HW170091   3.624   7.050   4.391 -0.5838  0.9497 -0.1232
21418SOL    HW270092   3.546   6.921   4.390  0.7583  0.1168  0.3602
21419SOL     OW70093  11.015   2.432   7.174 -0.4820  0.3939 -0.0943
21419SOL    HW170094  10.954   2.373   7.130 -2.5517  3.1594 -1.2097
21419SOL    HW270095  11.094   2.430   7.119 -1.3392  0.2985 -1.3638
21420SOL     OW70096  12.080   6.125   3.750 -0.5079  0.6450  0.0528
21420SOL    HW170097  12.088   6.074   3.831  2.5956  0.1132 -0.4546
21420SOL    HW270098  12.147   6.193   3.757 -0.7793  1.1573 -1.6756
21421SOL     OW70099   8.214   2.118   7.153 -0.7994 -0.1109  0.5400
21421SOL    HW170100   8.196   2.137   7.061  0.6167 -0.8333  0.0867
21421SOL    HW270101   8.137   2.152   7.200 -0.8134  1.7534 -0.7221
21422SOL     OW70102   7.876   9.924   3.741 -0.6540  0.2573  0.0961
21422SOL    HW170103   7.845   9.875   3.665  0.4373 -0.2497 -0.0374
21422SOL    HW270104   7.971   9.931   3.728 -0.0897 -1.6598  2.4150
21423SOL     OW70105   2.866   3.355   6.255 -0.2650 -0.3107 -0.6197
21423SOL    HW170106   2.942   3.411   6.243 -1.2990  1.1044 -0.8740
21423SOL    HW270107   2.791   3.413   6.242 -1.4133 -1.3350  0.9540
21424SOL     OW70108  10.167   1.554   0.517 -0.4886  0.4865 -0.4755
21424SOL    HW170109  10.224   1.519   0.449  0.2971  0.7092  0.0553
21424SOL    HW270110  10.132   1.477   0.562  0.0385  0.3598 -0.2813
21425SOL     OW70111   7.778   8.231   2.899  0.2899  0.3095 -0.1250
21425SOL    HW170112   7.785   8.169   2.826 -0.6166 -0.1619  0.1692
21425SOL    HW270113   7.858   8.284   2.894  1.1157 -0.9306 -0.3391
21426SOL     OW70114   5.502   7.063   5.521 -0.2619 -0.7031 -0.2594
21426SOL    HW170115   5.475   7.039   5.610 -0.6540  1.2113  0.1719
21426SOL    HW270116   5.543   7.148   5.530 -0.2750 -0.4875 -1.9265
21427SOL     OW70117   8.946   1.034   4.303 -0.5698 -0.3598  0.6612
21427SOL    HW170118   8.983   0.990   4.226 -1.6189 -0.3193  0.1044
21427SOL    HW270119   8.897   1.108   4.266 -0.4785  0.0937  1.4338
21428SOL     OW70120   1.832  11.458   4.194  0.7096  0.1997 -0.3747
21428SOL    HW170121   1.906  11.508   4.158  2.0128 -2.1043 -1.0937
21428SOL    HW270122   1.798  11.409   4.119  2.1934 -3.1667  0.9605
21429SOL     OW70123   1.584   2.568  10.961  0.4085 -0.6627 -0.0105
21429SOL    HW170124   1.646   2.607  10.900  1.0213 -1.0614  0.3413
21429SOL    HW270125   1.526   2.515  10.907  1.0973 -1.2052 -0.2337
21430SOL     OW70126   1.376   9.092   8.018 -0.1493 -0.1341  0.0261
21430SOL    HW170127   1.376   9.120   7.926  0.2266 -0.5907 -0.1156
21430SOL    HW270128   1.439   9.151   8.061  0.5924 -0.7059 -0.2587
21431SOL     OW70129   1.037   0.942   8.385  0.1953 -0.1594  0.0950
21431SOL    HW170130   1.066   0.977   8.469 -0.2062 -0.0954  0.2086
21431SOL    HW270131   0.943   0.960   8.382  0.2531  0.0829 -0.4865
21432SOL     OW70132   2.553   7.653   8.802 -0.3196  0.2829 -0.3797
21432SOL    HW170133   2.617   7.689   8.741  1.8769 -1.7055  0.5816
21432SOL    HW270134   2.493   7.603   8.748  0.6974 -0.2154 -1.0715
21433SOL     OW70135   1.780  10.915  10.705 -0.1233  0.0209  0.2657
21433SOL    HW170136   1.770  10.941  10.797  0.9829  0.0804  0.3870
21433SOL    HW270137   1.852  10.851  10.707 -1.5995 -1.7403 -0.2585
21434SOL     OW70138   7.685   6.167   6.085 -0.0387  0.3733 -0.0300
21434SOL    HW170139   7.688   6.151   6.179  1.1552 -3.4027 -0.5497
21434SOL    HW270140   7.761   6.120   6.050 -0.1664  2.0577 -2.8709
21435SOL     OW70141   7.861   3.101   4.707 -0.2039 -0.3829  0.4885
21435SOL    HW170142   7.834   3.090   4.798  1.2512 -2.4822  0.7472
21435SOL    HW270143   7.956   3.114   4.711 -0.1397 -0.3421 -0.7265
21436SOL     OW70144   0.044   8.750  10.019  0.3476 -0.4929  0.0642
21436SOL    HW170145   0.071   8.662   9.992 -1.6157 -1.6523  1.6168
21436SOL    HW270146   0.060   8.805   9.942  1.4136 -2.2269 -1.0142
21437SOL     OW70147   2.090   4.352   6.111 -0.4534  0.0124  0.0922
21437SOL    HW170148   2.050   4.439   6.100 -1.5830 -0.7022 -1.9565
21437SOL    HW270149   2.020   4.299   6.151 -0.9859 -0.7684 -1.7819
21438SOL     OW70150   6.801   8.474   3.645  0.2715 -0.5320  0.4371
21438SOL    HW170151   6.805   8.567   3.625  1.7322 -0.8409 -0.8957
21438SOL    HW270152   6.713   8.447   3.619 -0.3219  0.5416  1.2707
21439SOL     OW70153   3.942   6.959   1.591  0.6426  0.2594  0.0383
21439SOL    HW170154   4.019   6.983   1.643  1.2485 -1.3698 -0.0395
21439SOL    HW270155   3.913   6.876   1.629  0.7261 -0.6656 -1.7907
21440SOL     OW70156   4.666   4.358   0.668 -0.2167  0.3100 -0.0365
21440SOL    HW170157   4.580   4.398   0.664 -0.0380  0.8020  0.8032
21440SOL    HW270158   4.721   4.423   0.711  0.5234 -0.0791 -0.3772
21441SOL     OW70159   0.861   1.479   0.528  0.1078 -0.2662  0.1231
21441SOL    HW170160   0.928   1.521   0.474 -0.4173  0.2276 -0.1591
21441SOL    HW270161   0.810   1.552   0.564  1.4129 -0.4706  2.5996
21442SOL     OW70162   4.542   5.341   0.264  0.0562  0.2729 -0.0088
21442SOL    HW170163   4.597   5.270   0.298 -0.0888 -0.0689 -0.4846
21442SOL    HW270164   4.479   5.357   0.334  0.3646  0.2401  0.2834
21443SOL     OW70165   4.998  11.784   1.654  0.2988  1.2627 -0.2731
21443SOL    HW170166   5.045  11.865   1.675  2.1506  0.3693 -0.8237
21443SOL    HW270167   4.947  11.806   1.576 -0.1561  2.2180  0.2700
21444SOL     OW70168   1.296   9.385   5.976 -0.1648 -0.4635 -0.1657
21444SOL    HW170169   1.270   9.470   6.011 -0.6170  0.0108 -1.5588
21444SOL    HW270170   1.219   9.355   5.928  0.7497 -0.5876 -1.6044
21445SOL     OW70171   3.856  10.242   3.498 -0.1698 -0.3110  0.5554
21445SOL    HW170172   3.815  10.326   3.522  0.5743 -0.2500  1.7116
21445SOL    HW270173   3.788  10.177   3.514 -0.4371 -0.0241  0.6042
21446SOL     OW70174   5.237   9.770  11.166  0.2182 -0.6959  0.6199
21446SOL    HW170175   5.314   9.823  11.189 -1.2775  1.5966  0.6441
21446SOL    HW270176   5.176   9.833  11.127 -1.7140 -2.4101  0.7403
21447SOL     OW70177   6.896   8.215   1.532  0.1733  0.4429 -0.3055
21447SOL    HW170178   6.867   8.195   1.621  0.8099 -0.5864 -0.3124
21447SOL    HW270179   6.934   8.133   1.500  0.6240  1.0025 -1.2577
21448SOL     OW70180   9.854  11.695  12.123 -0.6134  0.1497  0.1123
21448SOL    HW170181   9.887  11.609  12.096 -0.8000 -0.2928  1.2460
21448SOL    HW270182   9.761  11.693  12.100 -0.7876 -0.2531  0.8212
21449SOL     OW70183   6.287   1.524   5.921 -0.2353  0.4816  0.7202
21449SOL    HW170184   6.199   1.498   5.894 -0.6511  0.7269  1.7909
21449SOL    HW270185   6.300   1.610   5.880  0.2466 -0.3516 -0.9491
21450SOL     OW70186   4.278   9.098   9.677 -0.0441 -0.2098 -0.0216
21450SOL    HW170187   4.357   9.152   9.673 -0.1551 -0.0208  0.3506
21450SOL    HW270188   4.207   9.159   9.656 -0.1955 -0.1553  0.6317
21451SOL     OW70189   9.631   9.015  11.881  0.2397  0.0038  0.2743
21451SOL    HW170190   9.713   8.968  11.893  0.5668  0.6974  0.7502
21451SOL    HW270191   9.628   9.033  11.787  2.5882  3.4272  0.6703
21452SOL     OW70192   9.316   7.094   3.904 -0.4434 -0.2238 -0.0690
21452SOL    HW170193   9.302   7.108   3.997  1.2722 -2.9956  0.7271
21452SOL    HW270194   9.356   7.175   3.872 -0.1958  0.4187  1.7988
21453SOL     OW70195   1.530  10.670   2.803 -0.0882 -0.0364 -0.8694
21453SOL    HW170196   1.621  10.654   2.831 -0.4762 -0.0832  0.4329
21453SOL    HW270197   1.520  10.615   2.726  0.8877 -0.3302 -0.8125
21454SOL     OW70198   4.261   9.206   3.642 -0.4519  0.0546 -0.1454
21454SOL    HW170199   4.292   9.225   3.553 -0.4000  0.2735 -0.0811
21454SOL    HW270200   4.220   9.287   3.671  2.7145  1.2630  1.3842
21455SOL     OW70201   3.109   3.393   4.992  0.0068  1.1711  0.2328
21455SOL    HW170202   3.098   3.417   5.084  1.3151 -0.8712  1.0074
21455SOL    HW270203   3.120   3.298   4.994 -1.8605  0.7938 -2.2578
21456SOL     OW70204   1.377   5.875   9.751  0.1299 -0.0247 -0.3377
21456SOL    HW170205   1.472   5.883   9.759 -0.0015 -0.3114  3.3354
21456SOL    HW270206   1.350   5.954   9.704  2.0443  0.9021  0.0119
21457SOL     OW70207  11.313   8.131   9.727 -0.0078 -0.2264 -0.0582
21457SOL    HW170208  11.379   8.062   9.731  0.2324  0.0606  1.2517
21457SOL    HW270209  11.249   8.107   9.794 -0.8852 -0.1403 -0.8569
21458SOL     OW70210   1.408   4.459   9.520  0.1335 -0.5311  0.3909
21458SOL    HW170211   1.332   4.468   9.463 -1.4125  1.5587  2.5547
21458SOL    HW270212   1.473   4.519   9.483 -0.3502 -0.2119  0.0429
21459SOL     OW70213   2.496   8.074   9.310 -0.6051  0.5753  0.3325
21459SOL    HW170214   2.527   7.986   9.288 -0.0465  1.0761 -1.0344
21459SOL    HW270215   2.557   8.105   9.377 -0.8129 -0.0748  0.8318
21460SOL     OW70216   9.972  10.142   5.013  0.1199  0.0366  0.1407
21460SOL    HW170217   9.884  10.111   4.990 -0.4746  0.1809  2.0605
21460SOL    HW270218   9.957  10.231   5.046  1.0226  0.1342  0.2897
21461SOL     OW70219  12.016   7.162   4.416  0.5140  0.1680  0.3921
21461SOL    HW170220  12.069   7.125   4.487  0.2164 -1.6720 -0.2919
21461SOL    HW270221  12.067   7.144   4.337 -1.0756 -1.7521 -0.2937
21462SOL     OW70222   3.919  12.116   4.515  0.2969 -0.6127 -0.2304
21462SOL    HW170223   3.932  12.115   4.610 -0.3999 -1.9750 -0.1226
21462SOL    HW270224   3.843  12.059   4.501  0.3657 -0.3875 -1.5969
21463SOL     OW70225   7.676   3.832   5.476 -0.2699 -0.2474 -0.2876
21463SOL    HW170226   7.696   3.925   5.464  0.8512 -0.3510  0.5607
21463SOL    HW270227   7.731   3.806   5.550 -1.1299 -1.4109 -0.0466
21464SOL     OW70228   2.577   5.902  10.526 -0.2640  0.4954 -0.0850
21464SOL    HW170229   2.604   5.827  10.578 -0.6867 -0.1501 -0.7820
21464SOL    HW270230   2.657   5.951  10.509  0.0334  0.1155  0.2380
21465SOL     OW70231  11.936  10.619  10.671  0.3132  0.1856 -0.5293
21465SOL    HW170232  11.921  10.712  10.689 -1.1121  0.1352 -1.3188
21465SOL    HW270233  11.938  10.613  10.576 -2.3704 -0.9358 -0.6053
21466SOL     OW70234   7.967   0.390   0.243 -0.0686 -0.3082  0.1341
21466SOL    HW170235   7.873   0.388   0.224  0.0090  1.1059 -0.4830
21466SOL    HW270236   7.979   0.323   0.311 -1.3029 -1.4058 -0.6876
21467SOL     OW70237   0.054   4.072   1.779  0.1883  0.0606 -0.2209
21467SOL    HW170238   0.042   4.007   1.710 -0.8540 -0.5558  0.5104
21467SOL    HW270239   0.149   4.083   1.784  0.6721 -3.3463  1.3175
21468SOL     OW70240   5.924   5.513   9.513  0.3181 -0.8437  0.1666
21468SOL    HW170241   5.852   5.462   9.473  0.7702 -0.3020 -1.4204
21468SOL    HW270242   5.887   5.600   9.525  0.3975 -0.8265  0.2794
21469SOL     OW70243   0.971   9.897  11.801  0.3049  0.6570  0.1816
21469SOL    HW170244   0.979   9.826  11.737 -0.3729  1.5873 -0.9757
21469SOL    HW270245   0.884   9.933  11.786  0.6745  1.8064  0.6694
21470SOL     OW70246  12.123   3.624  10.152  0.1722  0.3488 -0.3895
21470SOL    HW170247  12.189   3.685  10.184 -0.3200  0.6701  0.0399
21470SOL    HW270248  12.055   3.679  10.113 -0.8562  0.1876  1.0801
21471SOL     OW70249  11.381   5.615   3.347  0.4529  0.2134  0.3474
21471SOL    HW170250  11.443   5.586   3.280 -0.6756 -0.5301 -0.4073
21471SOL    HW270251  11.319   5.543   3.355 -0.0925  0.7692  1.3881
21472SOL     OW70252   3.140   2.289   8.610 -0.8847  0.0243  0.1278
21472SOL    HW170253   3.080   2.339   8.554 -0.3238  0.0258 -0.4842
21472SOL    HW270254   3.170   2.352   8.675 -3.5538 -0.5906  2.1153
21473SOL     OW70255   6.008  11.389   1.489 -0.0852 -0.1097  1.0759
21473SOL    HW170256   5.986  11.465   1.435  0.8706 -1.2233 -0.9890
21473SOL    HW270257   5.935  11.329   1.476  0.4173 -0.6125  0.5661
21474SOL     OW70258   0.051   6.059  12.134 -0.3824 -0.4929 -0.3342
21474SOL    HW170259   0.083   6.010  12.059 -0.5353 -1.4852  0.2371
21474SOL    HW270260   0.130   6.095  12.175 -0.2582 -0.3895 -0.6592
21475SOL     OW70261   9.600   5.380   8.395  0.3885  0.1543  0.4570
21475SOL    HW170262   9.572   5.469   8.416  1.5584  0.0957  2.5402
21475SOL    HW270263   9.656   5.355   8.468  3.4637 -0.7993 -1.9959
21476SOL     OW70264   5.894   8.598   6.594 -0.1331  0.8927  0.0597
21476SOL    HW170265   5.877   8.505   6.604  0.0370  0.8281 -0.2512
21476SOL    HW270266   5.896   8.613   6.499 -1.9905  1.5531  0.0751
21477SOL     OW70267   7.365   9.230   2.788  0.3751  0.3317 -0.4127
21477SOL    HW170268   7.394   9.149   2.747  1.9689  0.2038  0.8624
21477SOL    HW270269   7.442   9.263   2.834 -0.8783  1.2619  1.1628
21478SOL     OW70270   5.817   4.888  11.414 -0.3586 -0.7456 -0.2972
21478SOL    HW170271   5.849   4.887  11.324 -0.3445  1.8950 -0.4111
21478SOL    HW270272   5.735   4.938  11.409 -0.1364 -0.1899  1.2172
21479SOL     OW70273   0.216  11.572  10.571 -0.3271 -0.0515  0.8197
21479SOL    HW170274   0.238  11.525  10.651  0.8095  1.1604  1.2496
21479SOL    HW270275   0.143  11.629  10.596  0.2861  0.6143  1.1068
21480SOL     OW70276   5.848   6.526  11.242  0.3858  0.3127 -0.3956
21480SOL    HW170277   5.872   6.618  11.251  1.6111 -0.0304  0.0042
21480SOL    HW270278   5.868   6.505  11.151 -1.3168  0.8024 -0.9334
21481SOL     OW70279   4.456   8.319   5.442  0.6243  0.3405  0.0719
21481SOL    HW170280   4.437   8.226   5.452  1.7579  0.2168  1.2489
21481SOL    HW270281   4.548   8.323   5.417  0.3891  1.1306 -0.7641
21482SOL     OW70282   9.793   6.579   2.155  0.0813 -0.1945 -0.7916
21482SOL    HW170283   9.846   6.649   2.192 -0.0558 -0.5997  0.2039
21482SOL    HW270284   9.792   6.597   2.061 -0.7971  1.7273 -0.4651
21483SOL     OW70285   4.467  11.558   9.593 -0.3943  0.8314  0.2396
21483SOL    HW170286   4.560  11.547   9.576 -0.1133  0.9434  1.5727
21483SOL    HW270287   4.463  11.611   9.672 -1.5697  0.1655  0.6612
21484SOL     OW70288   6.258   1.901   6.145  0.4550 -0.1599 -0.0114
21484SOL    HW170289   6.249   1.811   6.176 -1.2127  0.2641  0.8868
21484SOL    HW270290   6.176   1.943   6.171  0.2049  1.0301 -2.4789
21485SOL     OW70291  11.564   5.842  11.366  0.0208 -0.8697  0.2525
21485SOL    HW170292  11.603   5.774  11.312  1.7463  0.2199  0.0217
21485SOL    HW270293  11.583   5.815  11.456  2.9959  0.4129  0.1537
21486SOL     OW70294   7.043   2.815   7.216  0.5377  0.0998 -0.4172
21486SOL    HW170295   7.071   2.781   7.131  3.1789  3.3629 -1.1094
21486SOL    HW270296   7.079   2.754   7.280 -0.3150 -1.6736 -1.5690
21487SOL     OW70297   6.129   2.381   2.946  0.1605 -0.2319 -0.5219
21487SOL    HW170298   6.084   2.334   2.876 -4.4864  0.9664  1.2646
21487SOL    HW270299   6.123   2.322   3.022  1.4178  0.1196 -0.1200
21488SOL     OW70300   6.665   7.592   9.705 -0.5564 -0.6271  0.6724
21488SOL    HW170301   6.726   7.622   9.773  0.3857 -0.8221 -0.0489
21488SOL    HW270302   6.579   7.594   9.746 -0.0636 -0.3023  1.7193
21489SOL     OW70303   4.771   0.279   6.915 -0.6393  0.4216 -0.4490
21489SOL    HW170304   4.761   0.369   6.946 -2.4235 -0.1200  0.6793
21489SOL    HW270305   4.860   0.256   6.939 -0.9468  1.0888  1.5078
21490SOL     OW70306   7.023   8.357   8.648  0.6140 -0.1740  0.6274
21490SOL    HW170307   7.089   8.421   8.622  0.4660  0.2490  1.2568
21490SOL    HW270308   6.976   8.400   8.720 -0.3190 -0.4777  0.2156
21491SOL     OW70309   0.370   1.571   7.302  0.1572  0.7952  0.0496
21491SOL    HW170310   0.283   1.550   7.335 -0.1200  1.4396 -0.2834
21491SOL    HW270311   0.412   1.485   7.292 -0.5330  0.4670 -0.0806
21492SOL     OW70312  11.907  10.455   3.299  0.7896 -0.1283 -0.3122
21492SOL    HW170313  11.980  10.510   3.329  1.5687 -0.9875 -0.5877
21492SOL    HW270314  11.939  10.365   3.310  0.5786 -0.5063 -2.4008
21493SOL     OW70315   5.584  12.113   0.814  0.5154  0.3325 -0.2726
21493SOL    HW170316   5.669  12.151   0.836 -0.2382  1.8038  0.2023
21493SOL    HW270317   5.538  12.182   0.766 -0.3997 -0.4578 -0.5651
21494SOL     OW70318   7.655   1.127   4.008  0.5994  0.2620 -0.3023
21494SOL    HW170319   7.610   1.145   4.091  0.8577 -2.1510  0.4345
21494SOL    HW270320   7.679   1.214   3.975 -0.1588  1.3429  1.7762
21495SOL     OW70321  11.118   5.961   3.853  0.2126 -0.1812  0.2859
21495SOL    HW170322  11.179   5.897   3.816  1.0983  0.2029  1.0358
21495SOL    HW270323  11.153   6.046   3.827 -0.2444  0.0353  0.3669
21496SOL     OW70324   8.710   8.690   1.686 -0.0356  0.0015 -0.0578
21496SOL    HW170325   8.618   8.711   1.673 -0.2730 -0.0411  1.4220
21496SOL    HW270326   8.714   8.652   1.774  1.5232  0.8723  0.2834
21497SOL     OW70327   9.945  10.612   8.225 -0.0626  0.5773 -0.1748
21497SOL    HW170328  10.011  10.681   8.236 -0.9210  1.7032 -1.7338
21497SOL    HW270329   9.997  10.531   8.217  1.0128  1.1546  0.7138
21498SOL     OW70330   2.720  10.232   9.215  0.3743  0.1199  0.2779
21498SOL    HW170331   2.769  10.298   9.165 -0.4410 -0.1390 -0.9105
21498SOL    HW270332   2.717  10.267   9.304  1.8567  0.6058  0.1708
21499SOL     OW70333   8.177  12.242   4.905  0.0660 -0.0142  0.0123
21499SOL    HW170334   8.246  12.255   4.969  0.1553  0.6035 -0.1958
21499SOL    HW270335   8.100  12.285   4.943 -0.2015 -0.6986  0.2433
21500SOL     OW70336  10.824   0.934   8.648  0.1577  0.0402 -0.3478
21500SOL    HW170337  10.801   0.931   8.555  2.8649  1.8436 -1.2002
21500SOL    HW270338  10.771   1.005   8.684 -1.1234 -0.8620 -0.3853
21501SOL     OW70339  11.325  10.651   4.747  0.2695  0.1136 -0.3586
21501SOL    HW170340  11.345  10.700   4.667  0.1689  2.8202  1.1211
21501SOL    HW270341  11.244  10.604   4.728  0.3101  0.6148 -1.8796
21502SOL     OW70342  11.484   0.862   8.279  0.0038  0.0049 -0.3912
21502SOL    HW170343  11.418   0.795   8.260 -2.0652  1.5762  0.8339
21502SOL    HW270344  11.497   0.856   8.374  2.5249 -0.9929 -0.7301
21503SOL     OW70345   0.029  10.709   8.499  0.5726 -0.1475 -0.3632
21503SOL    HW170346   0.072  10.772   8.442  2.1459 -0.7981  0.0511
21503SOL    HW270347   0.075  10.627   8.484 -1.3701 -1.2182 -0.8177
21504SOL     OW70348   3.850   6.548   9.578  0.0984 -0.6252  0.1799
21504SOL    HW170349   3.780   6.608   9.554 -0.8137 -2.1487 -1.1255
21504SOL    HW270350   3.860   6.560   9.673 -1.5771 -0.0378  0.3096
21505SOL     OW70351   2.289   4.408   1.668 -0.2653  0.4615  0.1761
21505SOL    HW170352   2.252   4.488   1.706 -0.3179 -0.2768  1.7719
21505SOL    HW270353   2.383   4.426   1.661 -0.3382  0.8246  0.0926
21506SOL     OW70354   8.628  11.678   6.331  0.1346 -0.0054  0.4463
21506SOL    HW170355   8.654  11.602   6.279  1.1253  0.4910  0.1838
21506SOL    HW270356   8.586  11.737   6.269 -0.3159 -0.1911  0.5771
21507SOL     OW70357   3.695   9.743  11.594  0.2951  0.4713 -0.1225
21507SOL    HW170358   3.616   9.761  11.542  0.3708  0.5751 -0.2009
21507SOL    HW270359   3.695   9.648  11.604 -1.0609  0.6095  1.7875
21508SOL     OW70360   8.971   2.732   9.566  0.6709  0.2938  0.1898
21508SOL    HW170361   9.025   2.770   9.635  0.7983  0.6024 -0.0706
21508SOL    HW270362   9.016   2.758   9.485  1.2900 -1.2327  0.0235
21509SOL     OW70363  11.454   5.749   8.850 -0.6397  0.2928  0.6155
21509SOL    HW170364  11.437   5.659   8.876 -1.7402  0.4250  0.4137
21509SOL    HW270365  11.526   5.777   8.906 -0.5743 -0.5731  0.9794
21510SOL     OW70366   7.379  11.936   2.461  0.0163  0.0721 -0.1797
21510SOL    HW170367   7.472  11.954   2.480 -0.4659 -0.3043  3.1678
21510SOL    HW270368   7.335  12.020   2.478 -0.5309 -0.4440  1.0985
21511SOL     OW70369   5.386   8.765  11.737 -0.6357  0.0526 -0.1311
21511SOL    HW170370   5.351   8.706  11.804  1.1181 -1.2003 -0.2188
21511SOL    HW270371   5.339   8.847  11.749 -0.4814 -0.1752  2.5419
21512SOL     OW70372   2.009   7.152   9.841 -0.0142  0.1683 -0.0937
21512SOL    HW170373   2.055   7.223   9.887  1.1126 -1.3037  1.1636
21512SOL    HW270374   1.940   7.126   9.902  0.4871 -0.7567  0.0854
21513SOL     OW70375   4.862   2.803   3.486 -0.1482  0.0945  0.1283
21513SOL    HW170376   4.777   2.759   3.491 -0.0287 -0.1816 -0.2056
21513SOL    HW270377   4.863   2.841   3.399  0.1230 -0.0102  0.0865
21514SOL     OW70378   8.861   3.668   9.890 -0.1852  0.1902 -0.2422
21514SOL    HW170379   8.772   3.659   9.922 -0.0876  0.6530  0.1744
21514SOL    HW270380   8.897   3.580   9.891  0.4240  0.3927  2.7041
21515SOL     OW70381   5.871   7.859   0.693 -0.6635  0.3229 -0.6809
21515SOL    HW170382   5.859   7.768   0.668  0.0595  0.0411 -0.0601
21515SOL    HW270383   5.799   7.878   0.753 -1.6070  0.5884 -1.8606
21516SOL     OW70384   3.697  10.114   8.887 -0.3087 -0.2816  0.1226
21516SOL    HW170385   3.784  10.094   8.921  0.1620  0.7934 -0.4286
21516SOL    HW270386   3.687  10.057   8.811  0.2092  0.1346 -0.2542
21517SOL     OW70387   6.132   9.604   5.998 -0.0567  0.0495  0.3577
21517SOL    HW170388   6.225   9.581   5.996 -0.0936 -0.0680 -1.5169
21517SOL    HW270389   6.118   9.636   6.087  2.2362  2.0049  0.1246
21518SOL     OW70390   3.960   6.312  12.313  0.1176 -0.2804 -0.0651
21518SOL    HW170391   3.922   6.398  12.327  0.7073 -0.1576  0.8593
21518SOL    HW270392   3.892   6.250  12.340 -0.1592 -0.0960 -0.3465
21519SOL     OW70393   4.060   7.715  10.366  0.0473  0.1128 -0.2366
21519SOL    HW170394   4.141   7.666  10.353  0.8089  1.5542 -1.1630
21519SOL    HW270395   4.088   7.806  10.375 -1.4481  0.6054 -0.2647
21520SOL     OW70396  11.101   5.077   0.383  0.1218  0.7025  0.0906
21520SOL    HW170397  11.105   5.097   0.290  2.1546 -0.9585 -0.2800
21520SOL    HW270398  11.173   5.127   0.421  0.9840 -0.6221  0.2688
21521SOL     OW70399   6.175   4.407  11.655  0.0825 -0.1727  0.1876
21521SOL    HW170400   6.230   4.456  11.594 -0.2395  0.1720  0.1645
21521SOL    HW270401   6.124   4.348  11.599 -0.3020  0.2301  0.0988
21522SOL     OW70402   4.734   5.140   1.178 -0.1243  0.6881 -0.1659
21522SOL    HW170403   4.729   5.230   1.145  0.5886  0.3231 -1.3472
21522SOL    HW270404   4.653   5.127   1.226  0.2668  2.3397  1.0246
21523SOL     OW70405  12.016   4.260   3.580 -0.1917  0.4880  0.5961
21523SOL    HW170406  12.050   4.221   3.499 -0.3980  0.9488  0.2803
21523SOL    HW270407  11.923   4.273   3.563 -0.0160  1.6434  0.4805
21524SOL     OW70408   6.126  12.318   2.788  0.7230 -0.4012  0.1454
21524SOL    HW170409   6.148  12.261   2.714  2.1073 -0.5059  0.6031
21524SOL    HW270410   6.196  12.302   2.852 -0.2484 -0.0416  1.3266
21525SOL     OW70411  11.724   0.201   2.123  0.0752 -0.3617  0.3288
21525SOL    HW170412  11.711   0.158   2.038 -1.9433 -0.5815  0.6836
21525SOL    HW270413  11.813   0.177   2.149  1.2334  0.7557 -2.2670
21526SOL     OW70414   3.464   2.101  10.199  0.1406  0.2546  0.0546
21526SOL    HW170415   3.488   2.152  10.122 -0.2693  0.6592  0.1880
21526SOL    HW270416   3.370   2.115  10.209  0.1157 -0.1221  0.3904
21527SOL     OW70417   0.216   3.633   5.166  0.1730  0.2159  0.3287
21527SOL    HW170418   0.155   3.699   5.133  0.7978  1.4449  1.5256
21527SOL    HW270419   0.170   3.593   5.240 -0.1131 -0.5722 -0.2561
21528SOL     OW70420   9.616   1.729   4.209 -0.2325  0.7779  0.8634
21528SOL    HW170421   9.645   1.684   4.129  0.0558  0.3915  1.1842
21528SOL    HW270422   9.628   1.665   4.279 -2.0493  0.5292  0.9963
21529SOL     OW70423   8.556   1.931   6.587  0.1223 -0.6915  0.4592
21529SOL    HW170424   8.571   1.995   6.518  1.7836 -0.0141  1.4149
21529SOL    HW270425   8.537   1.850   6.540 -0.0190  0.0347 -0.7759
21530SOL     OW70426   8.380   1.031   1.776 -0.0204  0.1960 -0.0961
21530SOL    HW170427   8.315   0.970   1.740 -0.7384  0.7174  0.2945
21530SOL    HW270428   8.339   1.065   1.855 -0.5582  2.7769 -1.3867
21531SOL     OW70429   6.533   3.540  12.320 -0.5222 -0.0054 -0.4649
21531SOL    HW170430   6.464   3.473  12.327 -1.4703  1.0019  0.2059
21531SOL    HW270431   6.498   3.615  12.367  1.5501  0.1748  0.9045
21532SOL     OW70432  10.054  10.584   8.569  0.5703 -0.4701  0.0829
21532SOL    HW170433   9.965  10.549   8.571 -0.6993  2.4716  1.9740
21532SOL    HW270434  10.049  10.657   8.507  1.6134 -0.1599  0.3423
21533SOL     OW70435   9.981  10.291   5.368 -0.1779  0.3898 -1.1303
21533SOL    HW170436   9.927  10.223   5.329 -0.3676  0.2276 -0.6009
21533SOL    HW270437   9.931  10.319   5.446  0.9624 -0.4741 -0.0499
21534SOL     OW70438  10.759   9.890   1.736  0.6522 -0.1841 -0.3374
21534SOL    HW170439  10.698   9.894   1.662 -2.3178  0.8660  1.9620
21534SOL    HW270440  10.772   9.981   1.762 -1.7435 -0.5515  2.7993
21535SOL     OW70441   8.895   8.085   4.341  0.5989 -0.0294 -0.3080
21535SOL    HW170442   8.982   8.113   4.312  0.0992  0.7404 -1.1183
21535SOL    HW270443   8.871   8.016   4.280  0.6085 -0.1877 -0.1324
21536SOL     OW70444   6.296   1.429   1.494  0.9445  0.0604 -0.1210
21536SOL    HW170445   6.203   1.411   1.507  1.6426 -3.2877  1.1179
21536SOL    HW270446   6.315   1.394   1.406  1.4088 -1.2524  0.4787
21537SOL     OW70447   5.375   0.858  10.011 -0.1663 -0.3713  0.0334
21537SOL    HW170448   5.389   0.951   9.995  0.8384 -0.0719  2.3187
21537SOL    HW270449   5.381   0.818   9.924  0.7141  1.5248 -0.8405
21538SOL     OW70450   5.150   4.125   3.989  0.1621 -0.1303 -0.0724
21538SOL    HW170451   5.126   4.149   3.899  0.4693  0.1387 -0.0846
21538SOL    HW270452   5.212   4.053   3.978  0.0826 -0.1995 -0.0698
21539SOL     OW70453   2.270   0.225   8.467  0.0116 -0.0597  0.2746
21539SOL    HW170454   2.225   0.191   8.545 -0.8142 -0.3163 -0.2995
21539SOL    HW270455   2.251   0.161   8.399 -0.9596  1.1473 -0.6436
21540SOL     OW70456  10.423   7.084   7.123 -0.1295 -0.6776  0.3031
21540SOL    HW170457  10.391   7.020   7.059  0.1355 -2.1675  1.5879
21540SOL    HW270458  10.358   7.082   7.194 -0.8975  1.6072 -0.2669
21541SOL     OW70459   3.762   0.762   1.521 -0.0473 -0.0123  0.3745
21541SOL    HW170460   3.832   0.774   1.457  0.4659 -2.9143  0.2512
21541SOL    HW270461   3.683   0.793   1.477  0.7432  0.8860 -0.4549
21542SOL     OW70462   9.606  10.375   8.345  0.3163 -0.0803 -1.0690
21542SOL    HW170463   9.549  10.302   8.368  1.4521 -0.3548  1.2029
21542SOL    HW270464   9.694  10.343   8.363  0.8647  1.7089 -0.3555
21543SOL     OW70465   3.486  11.132   6.163  0.0266 -0.0566  0.3398
21543SOL    HW170466   3.572  11.090   6.160  0.6796  1.1118  1.6912
21543SOL    HW270467   3.471  11.162   6.073 -0.4703 -3.0667 -0.6840
21544SOL     OW70468   4.430   5.050   0.089 -0.0785 -0.3045  0.0328
21544SOL    HW170469   4.460   5.106   0.017  0.9673  1.1321  1.4923
21544SOL    HW270470   4.472   4.966   0.075  1.2981  0.4143 -0.2508
21545SOL     OW70471  10.066   0.507   8.772 -0.0691 -0.3082 -0.2834
21545SOL    HW170472  10.023   0.453   8.706 -0.2365 -0.8640  0.2726
21545SOL    HW270473  10.143   0.543   8.727  0.1907 -1.2138 -0.5859
21546SOL     OW70474   2.289  11.213   2.010  0.2584 -0.5476  0.4123
21546SOL    HW170475   2.312  11.206   2.103 -0.4464 -0.2605  0.6152
21546SOL    HW270476   2.212  11.269   2.008 -0.7184 -1.8439 -0.1825
21547SOL     OW70477   1.592  11.793   8.799  0.0468  0.3366  0.3902
21547SOL    HW170478   1.587  11.842   8.881 -0.4837  0.0480  0.5324
21547SOL    HW270479   1.524  11.831   8.744 -0.3453 -0.2201  0.4899
21548SOL     OW70480   9.415   8.980   3.652  0.1705  0.8666 -0.2826
21548SOL    HW170481   9.511   8.983   3.658  0.1337  2.4225 -0.2173
21548SOL    HW270482   9.394   9.028   3.572 -0.6072  1.7281  0.4141
21549SOL     OW70483  10.586   1.920   8.725  0.4895 -0.1420  0.2360
21549SOL    HW170484  10.570   1.853   8.792 -0.9326  0.1761  0.2371
21549SOL    HW270485  10.636   1.988   8.770 -0.8025  0.2603  1.1025
21550SOL     OW70486   7.281  11.094  10.627  0.1991 -0.5913  0.0555
21550SOL    HW170487   7.373  11.097  10.601 -0.0052 -1.7484 -0.9273
21550SOL    HW270488   7.238  11.155  10.568  0.1634 -1.0099 -0.3600
21551SOL     OW70489   2.657   5.815   1.669  0.5697 -0.3331  0.9281
21551SOL    HW170490   2.574   5.809   1.716  1.3560  1.7295  2.7995
21551SOL    HW270491   2.717   5.760   1.720  0.9072  0.1270  1.0349
21552SOL     OW70492   0.102   4.418   2.944 -0.2574 -0.4661 -0.7506
21552SOL    HW170493   0.098   4.488   2.880 -0.0359 -1.1065 -1.4791
21552SOL    HW270494   0.129   4.461   3.025  0.8108  0.1441 -1.4079
21553SOL     OW70495   9.965   3.639  10.528  0.5842 -0.1776  0.5306
21553SOL    HW170496   9.924   3.658  10.613  0.8313 -2.4194  1.2032
21553SOL    HW270497  10.059   3.653  10.544  0.7427 -1.5671  0.9643
21554SOL     OW70498   9.937   5.170   2.722  0.0836 -0.4618 -0.5400
21554SOL    HW170499   9.984   5.088   2.740  0.3457  0.1254  1.7867
21554SOL    HW270500   9.899   5.194   2.807 -1.6663  0.8075 -1.6390
21555SOL     OW70501   0.104  12.008   7.090  0.2768  0.2032  0.3991
21555SOL    HW170502   0.108  12.075   7.022 -0.1946 -0.2460 -0.0799
21555SOL    HW270503   0.036  12.039   7.150  0.7469  0.6377  0.7072
21556SOL     OW70504  10.210   8.086  11.048 -0.2818 -0.4169 -0.5026
21556SOL    HW170505  10.305   8.081  11.042 -0.2595 -0.2830 -0.2657
21556SOL    HW270506  10.191   8.080  11.141 -0.3604  1.8940 -0.3140
21557SOL     OW70507   7.016   3.935   2.288 -0.1919 -0.2967 -0.0136
21557SOL    HW170508   7.003   3.891   2.205 -0.6463 -1.1219  0.4809
21557SOL    HW270509   7.091   3.890   2.328 -0.8184 -0.8203  0.6064
21558SOL     OW70510  11.507   4.784   4.864 -0.3152 -0.3410 -0.0008
21558SOL    HW170511  11.431   4.779   4.922 -1.7839 -0.3956 -1.8318
21558SOL    HW270512  11.540   4.694   4.860 -0.0260 -0.2889  0.9237
21559SOL     OW70513   6.378  11.043  12.097  0.1049  0.2279 -0.1253
21559SOL    HW170514   6.402  10.975  12.160 -0.5382  0.7857  0.7352
21559SOL    HW270515   6.462  11.077  12.065  0.4319 -0.6289 -0.2089
21560SOL     OW70516  11.971   5.608   0.872  0.3876 -0.0181  0.0942
21560SOL    HW170517  12.016   5.690   0.855 -1.4897  0.8898 -0.7818
21560SOL    HW270518  11.985   5.591   0.965 -0.8280  2.3871  0.7912
21561SOL     OW70519   4.208   1.937   8.470  0.6006  0.3174  0.1811
21561SOL    HW170520   4.132   1.882   8.484  1.1658 -1.1673 -2.0590
21561SOL    HW270521   4.281   1.888   8.507  0.8105  0.5501  0.0840
21562SOL     OW70522   4.508  11.155  10.588 -0.6331  0.6496  0.3235
21562SOL    HW170523   4.479  11.067  10.614  0.0755 -0.0658 -1.1797
21562SOL    HW270524   4.590  11.168  10.637  0.3863 -0.4454 -1.0001
21563SOL     OW70525   9.859   6.663   5.168 -0.5691  0.1629  0.0378
21563SOL    HW170526   9.894   6.743   5.128  1.1175  0.6153  2.1781
21563SOL    HW270527   9.936   6.608   5.183 -1.4907 -1.1345  0.1551
21564SOL     OW70528  11.446   8.650   0.446  0.1754  0.3262  0.0447
21564SOL    HW170529  11.500   8.707   0.391  0.3786 -1.2587 -1.4532
21564SOL    HW270530  11.399   8.595   0.385 -0.5787 -0.6377  1.4392
21565SOL     OW70531   0.625   1.933   3.334  0.2755  0.2301 -0.5046
21565SOL    HW170532   0.672   1.868   3.281  0.5976 -0.4608  0.5893
21565SOL    HW270533   0.587   1.882   3.405 -0.5864  1.0658 -0.3464
21566SOL     OW70534   3.736   1.720   6.923 -0.5937 -0.1941  0.3297
21566SOL    HW170535   3.711   1.672   6.845 -2.6731 -0.2935  0.9984
21566SOL    HW270536   3.690   1.804   6.915  0.9506  0.7011  0.4051
21567SOL     OW70537   8.540  11.449   5.357 -0.1982  0.2445  0.0332
21567SOL    HW170538   8.464  11.506   5.359 -1.2562 -1.0743 -0.6800
21567SOL    HW270539   8.504  11.362   5.339  1.4399 -0.4837  0.1084
21568SOL     OW70540   2.433   9.006   0.931  0.2327 -0.7019  0.3886
21568SOL    HW170541   2.480   8.958   0.999 -0.4243 -0.2550  1.1716
21568SOL    HW270542   2.370   8.944   0.896 -0.0773 -0.6504  0.8504
21569SOL     OW70543  10.099   0.286   0.839 -0.6239  0.1739  0.0877
21569SOL    HW170544  10.104   0.378   0.863 -1.1554  0.5413 -1.1188
21569SOL    HW270545  10.005   0.267   0.833 -0.5288  0.0024 -1.2205
21570SOL     OW70546   5.349   1.301   3.797 -0.3140 -0.5591 -0.2953
21570SOL    HW170547   5.380   1.306   3.887  0.0865  0.0643 -0.4559
21570SOL    HW270548   5.254   1.290   3.804 -0.2603 -0.7169  0.1988
21571SOL     OW70549   0.047  11.196  10.662 -0.0160 -0.4542 -0.1677
21571SOL    HW170550  -0.006  11.276  10.659  0.6489  0.0837  1.3050
21571SOL    HW270551   0.122  11.216  10.607  0.4323  0.1826  0.6469
21572SOL     OW70552  10.675   2.472   2.310  0.0354  0.3370  0.1796
21572SOL    HW170553  10.703   2.413   2.381 -2.0048  0.3247  1.0480
21572SOL    HW270554  10.748   2.471   2.248  1.4864 -0.4198  1.8097
21573SOL     OW70555   0.355   7.590   7.035 -0.2116  0.3563  0.6615
21573SOL    HW170556   0.421   7.532   7.074  0.1336  0.2496 -0.0692
21573SOL    HW270557   0.397   7.676   7.034 -0.0577  0.2816  0.1638
21574SOL     OW70558   2.009   1.515   2.312 -0.8347  0.2012 -0.3102
21574SOL    HW170559   1.934   1.502   2.255 -1.1367  0.6061 -0.0101
21574SOL    HW270560   1.971   1.533   2.399 -0.3821 -0.7126  0.0899
21575SOL     OW70561   9.979  11.439   8.827 -0.0663 -0.0005 -0.4907
21575SOL    HW170562  10.073  11.430   8.814  0.1261  1.0709  0.0574
21575SOL    HW270563   9.965  11.417   8.919 -0.4637 -0.8476 -0.7407
21576SOL     OW70564   6.859   3.655   1.403  0.1976 -0.0864  0.1230
21576SOL    HW170565   6.836   3.622   1.490 -0.7715  0.0676 -0.0628
21576SOL    HW270566   6.779   3.644   1.351  0.8420 -0.4383 -0.8292
21577SOL     OW70567   2.076   9.842   7.348 -0.4050  0.1464 -0.1060
21577SOL    HW170568   2.123   9.923   7.369 -0.1414 -0.1044  0.2833
21577SOL    HW270569   2.115   9.776   7.406 -0.1768 -0.3995 -0.8749
21578SOL     OW70570   5.220   5.805   2.824  0.8724  0.5887  0.0944
21578SOL    HW170571   5.297   5.780   2.874  1.4533 -1.0623 -1.4952
21578SOL    HW270572   5.190   5.723   2.784 -1.6494  1.1941  0.5330
21579SOL     OW70573   8.733   8.751   9.579  0.0772 -0.1870 -0.4826
21579SOL    HW170574   8.823   8.719   9.570  0.9053  1.7167  0.6389
21579SOL    HW270575   8.733   8.835   9.534 -0.4538  1.0240  1.6964
21580SOL     OW70576   6.164   2.535   6.004  0.1034 -0.5481  0.3909
21580SOL    HW170577   6.153   2.534   6.099 -1.6531  0.6648  0.2480
21580SOL    HW270578   6.141   2.624   5.978  0.8046 -0.7796 -1.1532
21581SOL     OW70579   1.901   6.868  10.277 -0.0607  0.0515 -0.5178
21581SOL    HW170580   1.855   6.820  10.346 -0.9345 -0.3675 -1.3694
21581SOL    HW270581   1.941   6.942  10.322  1.4011 -1.4842  0.8665
21582SOL     OW70582   1.335   7.130   9.270  0.6309 -0.8369  0.0294
21582SOL    HW170583   1.345   7.218   9.234  1.6463 -1.1152 -0.3813
21582SOL    HW270584   1.313   7.145   9.362 -3.6081 -0.0617 -0.8777
21583SOL     OW70585   6.459   5.918   2.684 -0.1715  0.2728 -0.3546
21583SOL    HW170586   6.509   5.930   2.765  0.3363 -3.1791  0.0255
21583SOL    HW270587   6.371   5.947   2.705 -0.9280 -3.4920  2.7367
21584SOL     OW70588   1.481  10.307  10.425 -0.0483 -0.1873  0.0245
21584SOL    HW170589   1.528  10.334  10.347  1.6106 -1.4832  0.5146
21584SOL    HW270590   1.445  10.388  10.461  1.4718  0.8032 -0.6160
21585SOL     OW70591  10.429  12.314   8.459  0.2089 -0.1560 -0.4834
21585SOL    HW170592  10.407  12.267   8.378 -0.0871  1.5053 -1.4110
21585SOL    HW270593  10.362  12.288   8.521  0.5654 -1.6331 -0.6845
21586SOL     OW70594   8.283   2.402   1.268 -0.0360 -0.3442 -0.3951
21586SOL    HW170595   8.355   2.413   1.207  0.1093 -0.1444 -0.1877
21586SOL    HW270596   8.272   2.307   1.276  0.7241 -0.3888  0.1813
21587SOL     OW70597   2.894  10.642   7.305  0.1573  0.6524 -0.1786
21587SOL    HW170598   2.852  10.570   7.257  2.9967 -1.6306  0.4345
21587SOL    HW270599   2.908  10.710   7.239 -2.2074  0.5596 -0.8854
21588SOL     OW70600   7.193   0.110  11.270  0.2290  0.1325 -0.1915
21588SOL    HW170601   7.113   0.057  11.266  1.0457 -1.3768  1.7580
21588SOL    HW270602   7.164   0.193  11.309 -0.3658 -0.5741  0.9464
21589SOL     OW70603   1.009  10.519  11.045  0.1018 -0.3652  0.1105
21589SOL    HW170604   1.009  10.549  11.136  0.6384  0.4096 -0.1305
21589SOL    HW270605   1.097  10.484  11.032 -0.4558 -1.9393  0.3298
21590SOL     OW70606  10.280   0.732   7.677  0.1376  0.1170 -0.5679
21590SOL    HW170607  10.224   0.723   7.754 -1.9276  0.0189 -2.0096
21590SOL    HW270608  10.311   0.823   7.681 -0.3449  0.2630  0.1195
21591SOL     OW70609  11.876   8.192   3.573  0.3958 -0.0506 -0.3705
21591SOL    HW170610  11.955   8.237   3.603  1.2857 -1.1903 -0.9425
21591SOL    HW270611  11.905   8.103   3.554 -1.0218 -0.4719 -0.6375
21592SOL     OW70612   2.505   9.067  10.294 -0.2250 -0.2228 -0.7992
21592SOL    HW170613   2.476   9.158  10.284  2.1236  0.6662 -0.2919
21592SOL    HW270614   2.499   9.051  10.388 -0.9171 -0.7109 -0.9240
21593SOL     OW70615   5.770   0.336   7.855 -0.4543  0.6618 -0.1037
21593SOL    HW170616   5.818   0.339   7.938  1.4154 -0.3662 -1.0990
21593SOL    HW270617   5.730   0.249   7.854 -1.1517  0.9666  0.0352
21594SOL     OW70618   3.008   6.235  12.074  0.9386  0.2359  0.3391
21594SOL    HW170619   3.010   6.182  11.994 -0.2792 -0.2036  0.5651
21594SOL    HW270620   2.916   6.261  12.082  1.1711  0.8165  1.2453
21595SOL     OW70621   9.761  12.065  11.503  0.2111  0.2215 -0.3640
21595SOL    HW170622   9.736  12.140  11.557 -0.3621  0.3348 -0.7766
21595SOL    HW270623   9.842  12.032  11.543 -1.2423 -0.9638  1.8123
21596SOL     OW70624   9.985  11.528   6.994  0.4393 -0.4156 -0.1024
21596SOL    HW170625   9.994  11.571   6.909  0.1813  2.0977  1.0523
21596SOL    HW270626   9.899  11.487   6.991 -0.5914  1.6357 -0.2812
21597SOL     OW70627   9.175   7.309   9.710 -0.2657  0.2077  0.5109
21597SOL    HW170628   9.171   7.219   9.677  0.1161  0.6924 -0.9309
21597SOL    HW270629   9.108   7.312   9.778 -1.6208 -0.6796 -0.7069
21598SOL     OW70630   6.117   4.858   5.290 -0.1470  0.3971  0.4118
21598SOL    HW170631   6.050   4.790   5.277 -1.1026  1.2387  0.8473
21598SOL    HW270632   6.197   4.818   5.257 -0.4541 -1.3854  1.6528
21599SOL     OW70633  11.131  10.939   1.434 -0.4780  0.3097  0.1171
21599SOL    HW170634  11.073  10.958   1.360  0.9176  2.0278 -0.6150
21599SOL    HW270635  11.146  10.845   1.429 -0.3954  0.3809 -1.8431
21600SOL     OW70636  12.128  11.407   5.548  0.7247  0.5301 -0.2695
21600SOL    HW170637  12.037  11.376   5.544  0.7181  0.5199 -0.0708
21600SOL    HW270638  12.179  11.331   5.521  0.6913  0.4278 -0.0528
21601SOL     OW70639   8.254  10.927   0.578 -0.1809 -0.2410  0.4491
21601SOL    HW170640   8.195  10.998   0.551 -2.0685 -1.8566  0.0332
21601SOL    HW270641   8.229  10.853   0.521  3.6915 -0.5016 -1.2008
21602SOL     OW70642   5.584   9.177   3.922  0.5372 -0.1590 -0.1283
21602SOL    HW170643   5.675   9.190   3.894 -0.1254  2.2056 -1.5045
21602SOL    HW270644   5.543   9.132   3.849  0.1425  0.7678 -0.5022
21603SOL     OW70645   6.608   8.054   5.748  0.2004  0.9062 -0.1378
21603SOL    HW170646   6.576   8.139   5.779  0.5232  0.4813  1.4277
21603SOL    HW270647   6.654   8.017   5.824 -0.2652 -0.8375 -0.6849
21604SOL     OW70648   5.332   3.520   7.273  0.6930  0.9558 -0.3755
21604SOL    HW170649   5.242   3.550   7.280  0.1966 -0.5679  0.2686
21604SOL    HW270650   5.346   3.507   7.179 -0.3588 -0.4228 -0.3775
21605SOL     OW70651   3.388  10.688  11.750  0.4052 -0.1241 -0.5974
21605SOL    HW170652   3.422  10.637  11.824  1.3153 -0.1548 -1.0216
21605SOL    HW270653   3.309  10.641  11.724 -1.1262  1.0293  1.6335
21606SOL     OW70654   6.754   6.468   6.035  0.3329  0.0100 -0.0881
21606SOL    HW170655   6.780   6.387   5.993  3.3995 -0.3252  2.1269
21606SOL    HW270656   6.780   6.537   5.973 -1.9158 -0.5683 -1.7924
21607SOL     OW70657   9.120   9.381  11.597 -0.6549  0.3493 -0.2588
21607SOL    HW170658   9.117   9.333  11.679 -0.8746  2.4071  0.9884
21607SOL    HW270659   9.186   9.448  11.611 -0.2416  0.3503 -2.0045
21608SOL     OW70660  11.036  10.269   3.698 -0.1026 -0.0038  0.3879
21608SOL    HW170661  11.003  10.287   3.787 -0.8991  0.8822 -0.0629
21608SOL    HW270662  10.988  10.331   3.643 -0.4196 -1.2774 -0.8142
21609SOL     OW70663   3.419   8.957  12.196 -0.0675 -0.1394 -0.3787
21609SOL    HW170664   3.361   8.890  12.231 -0.0006 -1.4516 -2.5397
21609SOL    HW270665   3.365   9.035  12.187 -1.1007 -0.9003 -0.9298
21610SOL     OW70666   3.608  12.022   5.052  0.3347  0.1234 -0.0571
21610SOL    HW170667   3.604  12.115   5.074 -0.0856 -0.1199  0.9878
21610SOL    HW270668   3.519  12.001   5.023  0.1643 -0.1536  0.6401
21611SOL     OW70669  10.479   8.042   8.024  0.2138  0.7684  0.0508
21611SOL    HW170670  10.446   8.090   8.099 -1.9183 -0.5436  0.0290
21611SOL    HW270671  10.484   8.107   7.954 -1.8062  1.1751  0.2361
21612SOL     OW70672   8.205   4.408   6.640  0.4994 -0.0909 -0.4769
21612SOL    HW170673   8.269   4.454   6.586  0.9702  1.3379  1.2123
21612SOL    HW270674   8.126   4.462   6.635  0.2891 -0.3812 -0.3446
21613SOL     OW70675  11.116   6.234   3.808  0.0070  0.0713  0.0112
21613SOL    HW170676  11.050   6.236   3.739  0.0046 -0.3803  0.0033
21613SOL    HW270677  11.094   6.309   3.864 -1.1586 -0.6822  0.6095
21614SOL     OW70678   1.018  11.548   5.307 -0.4160 -0.4288 -0.3034
21614SOL    HW170679   1.030  11.616   5.241  0.1241 -0.9479 -0.7439
21614SOL    HW270680   1.100  11.548   5.356 -0.5181 -0.5892 -0.1310
21615SOL     OW70681   8.195  11.203   3.262 -0.6858 -0.5401  0.0205
21615SOL    HW170682   8.124  11.257   3.229 -2.2478 -1.5461  1.5548
21615SOL    HW270683   8.162  11.166   3.344  1.5122 -1.2705  0.6674
21616SOL     OW70684   4.637  10.752   9.772 -0.4231  0.5447 -0.7457
21616SOL    HW170685   4.702  10.795   9.828 -0.4150 -1.2311  0.7168
21616SOL    HW270686   4.554  10.761   9.820 -0.5659 -0.3024 -0.8151
21617SOL     OW70687   0.576  12.155   3.036  0.3199  0.8900  0.2184
21617SOL    HW170688   0.649  12.114   3.082  0.6583 -0.2662 -1.2794
21617SOL    HW270689   0.503  12.093   3.045  0.5252  0.4135 -1.1424
21618SOL     OW70690   0.192   9.934  10.835  0.2195  0.1508  0.2628
21618SOL    HW170691   0.248  10.002  10.796 -0.1931 -0.1487 -0.8936
21618SOL    HW270692   0.174   9.965  10.924 -0.5683  1.9258 -0.4807
21619SOL     OW70693   6.148  11.665   5.318 -0.1513  0.2460 -0.4252
21619SOL    HW170694   6.059  11.652   5.352 -0.7427  4.6260  0.2888
21619SOL    HW270695   6.204  11.662   5.396  0.1139 -0.6705 -0.6366
21620SOL     OW70696   1.182  12.204  11.649 -0.1244 -0.1374 -0.8521
21620SOL    HW170697   1.208  12.283  11.697 -2.3170  0.1787 -0.0674
21620SOL    HW270698   1.177  12.232  11.558  0.4806  0.2509 -0.7736
21621SOL     OW70699  10.387  12.262  10.085 -0.3211 -0.1792  0.8556
21621SOL    HW170700  10.313  12.269  10.146  0.1737 -1.3909  1.6233
21621SOL    HW270701  10.439  12.189  10.118  1.9084  1.4067  1.0753
21622SOL     OW70702   7.020   2.032  11.091  0.0090 -0.1829  0.1741
21622SOL    HW170703   6.970   1.960  11.130  0.1339 -0.4331 -0.1198
21622SOL    HW270704   7.107   2.026  11.130  0.2757 -0.7251 -0.4782
21623SOL     OW70705   1.673   6.901   5.598 -0.2741 -0.2890  0.9509
21623SOL    HW170706   1.656   6.836   5.666 -0.9410  0.6438  1.7058
21623SOL    HW270707   1.655   6.985   5.640 -0.4923  0.3255 -0.3087
21624SOL     OW70708  10.463   9.665  11.967 -0.0763  0.3738 -0.4849
21624SOL    HW170709  10.384   9.719  11.969  0.0058  0.5655 -1.5268
21624SOL    HW270710  10.515   9.702  11.896  0.1734 -0.7997 -0.9508
21625SOL     OW70711   1.402   3.092   3.845  0.1706  1.0601  0.4251
21625SOL    HW170712   1.327   3.119   3.792 -0.3038  1.0476  1.0832
21625SOL    HW270713   1.389   2.999   3.862  2.1501  0.1164 -2.4062
21626SOL     OW70714   7.174   2.793   6.953  0.2663 -0.4381  0.3139
21626SOL    HW170715   7.089   2.792   6.910 -1.9483 -0.9267  4.2477
21626SOL    HW270716   7.200   2.701   6.957  0.3882 -0.4106  0.1433
21627SOL     OW70717   2.641  11.702   9.347  0.4556  0.0909 -0.0480
21627SOL    HW170718   2.598  11.651   9.279  0.1627  0.6496 -0.2863
21627SOL    HW270719   2.634  11.792   9.318  1.0568  0.2619  0.3237
21628SOL     OW70720   8.071   5.920   9.849  0.1954  0.0961  0.3373
21628SOL    HW170721   8.115   5.853   9.901  1.7876  1.3623  0.6961
21628SOL    HW270722   7.982   5.924   9.885  1.3295  1.1425  3.2351
21629SOL     OW70723   7.071   5.088   6.616  0.4901 -0.4870  0.0526
21629SOL    HW170724   7.068   5.000   6.655 -0.0940 -0.9477 -0.9960
21629SOL    HW270725   7.033   5.077   6.529  0.3032  0.8358 -0.0516
21630SOL     OW70726   4.642   6.353   2.899  0.0710 -0.1774  0.6938
21630SOL    HW170727   4.614   6.262   2.883  0.5773 -0.6610  2.4010
21630SOL    HW270728   4.565   6.395   2.936 -0.1747  0.1215 -0.1315
21631SOL     OW70729  11.136   8.695   3.538 -0.2304 -0.0931 -0.1371
21631SOL    HW170730  11.096   8.743   3.466  1.2097  1.4869  0.0575
21631SOL    HW270731  11.229   8.715   3.532  0.2806 -2.0204  0.6307
21632SOL     OW70732  12.154   2.143   0.556  0.5756  0.4096  0.0917
21632SOL    HW170733  12.167   2.215   0.619  0.1784  0.5079  0.0660
21632SOL    HW270734  12.124   2.187   0.476 -1.4859  0.0878  0.6268
21633SOL     OW70735   7.247   0.576   2.042  0.2557 -0.0918 -0.1888
21633SOL    HW170736   7.224   0.535   2.125 -1.1101 -1.6323 -1.2725
21633SOL    HW270737   7.190   0.652   2.036  0.4521  0.0989  0.3304
21634SOL     OW70738   0.060   4.951   5.448  0.2067 -0.3893 -0.3391
21634SOL    HW170739   0.008   4.927   5.371 -0.3941 -0.4655  0.0845
21634SOL    HW270740   0.046   5.045   5.458 -1.5071 -0.7345  0.9598
21635SOL     OW70741   7.282   3.951  11.903 -0.5887 -0.0880 -0.1323
21635SOL    HW170742   7.231   4.017  11.951  0.7303 -0.0111  1.2285
21635SOL    HW270743   7.372   3.982  11.909  0.1810 -2.4162  1.2900
21636SOL     OW70744   3.635  10.488   8.594 -0.0731 -0.4424 -0.3141
21636SOL    HW170745   3.721  10.452   8.576  0.4734  0.0689  1.1454
21636SOL    HW270746   3.648  10.545   8.670 -1.6910 -0.3782 -0.0487
21637SOL     OW70747   0.884   4.310  12.086 -0.0150  0.1985 -0.1772
21637SOL    HW170748   0.969   4.266  12.098  0.4315  0.3630 -2.3100
21637SOL    HW270749   0.881   4.376  12.155  1.5076  0.0321  0.0808
21638SOL     OW70750   2.214   7.822   6.649  0.0264 -0.8091  0.5746
21638SOL    HW170751   2.148   7.769   6.605 -0.1855 -1.2054  1.3532
21638SOL    HW270752   2.172   7.852   6.729 -0.0780  1.0670 -0.1245
21639SOL     OW70753   5.381   3.988  10.062 -0.1553  0.0187 -0.3211
21639SOL    HW170754   5.352   3.936   9.988 -2.2177  0.3573  0.1934
21639SOL    HW270755   5.390   3.925  10.134 -0.4670  0.0348 -0.2670
21640SOL     OW70756   6.252   4.567   5.354  0.0720  0.1974  0.4193
21640SOL    HW170757   6.168   4.521   5.350 -1.3942  2.6100  1.5628
21640SOL    HW270758   6.283   4.554   5.443 -1.5612  3.2343  1.5519
21641SOL     OW70759  10.584   4.134   0.269 -0.2461 -0.0032  0.4671
21641SOL    HW170760  10.632   4.111   0.189  0.2762  1.6880  0.2443
21641SOL    HW270761  10.638   4.103   0.341 -0.1019 -0.4159  0.1816
21642SOL     OW70762   2.986   1.901   5.856  0.1752  0.4797 -0.0833
21642SOL    HW170763   3.015   1.900   5.764  1.0668  0.3843  0.1944
21642SOL    HW270764   3.057   1.945   5.903  0.1902 -0.3671  0.7189
21643SOL     OW70765   5.831   2.139   2.022  0.1910 -0.3827 -0.7930
21643SOL    HW170766   5.759   2.077   2.036 -1.1060  1.4082  1.0395
21643SOL    HW270767   5.805   2.188   1.944  0.0599 -0.5665 -0.8672
21644SOL     OW70768   8.571  11.034   4.865 -0.2141 -0.1964  0.0642
21644SOL    HW170769   8.613  10.986   4.936  0.4138 -1.5187 -1.1600
21644SOL    HW270770   8.633  11.030   4.792 -0.7398  1.3338 -0.5134
21645SOL     OW70771   0.463   1.616   8.290  0.4614  0.0084 -0.2537
21645SOL    HW170772   0.411   1.692   8.264  0.6471  0.3528  0.3551
21645SOL    HW270773   0.534   1.613   8.226  0.1666  0.0312 -0.5896
21646SOL     OW70774   9.228   8.050   2.136  0.0603 -0.1984  0.0926
21646SOL    HW170775   9.141   8.083   2.116 -0.2559 -0.6550  0.6856
21646SOL    HW270776   9.215   7.990   2.209  1.0960  1.0737  1.4013
21647SOL     OW70777   1.827   4.585   4.567 -0.1314 -0.2581 -0.7126
21647SOL    HW170778   1.795   4.664   4.611  1.0963  0.0009 -0.2613
21647SOL    HW270779   1.841   4.522   4.637  1.5607  0.0657 -0.7134
21648SOL     OW70780   7.367   1.654   1.067 -0.1562 -0.0989 -0.9393
21648SOL    HW170781   7.305   1.589   1.101  0.5304 -0.3406 -0.1294
21648SOL    HW270782   7.311   1.723   1.031 -0.9088 -0.2463 -0.1026
21649SOL     OW70783   3.468   5.854   5.618  0.1659  0.4069 -0.0292
21649SOL    HW170784   3.409   5.852   5.543  0.9234 -0.0725 -0.6209
21649SOL    HW270785   3.556   5.851   5.581  0.5588  0.3482  0.8690
21650SOL     OW70786   6.876   8.784   5.082  0.1774  0.2200 -0.1507
21650SOL    HW170787   6.880   8.855   5.146 -0.7752 -2.5037  3.2359
21650SOL    HW270788   6.788   8.788   5.047 -0.7206 -0.5929  1.8485
21651SOL     OW70789   5.760   5.531   1.004 -0.8173  0.4133 -0.2949
21651SOL    HW170790   5.692   5.464   1.016  0.7226 -1.2929 -0.7326
21651SOL    HW270791   5.802   5.538   1.090  0.1182 -0.4600 -0.6603
21652SOL     OW70792   4.685  11.257   7.510 -0.7199 -0.4091  0.0496
21652SOL    HW170793   4.629  11.252   7.587  0.8703 -0.3417  1.2453
21652SOL    HW270794   4.769  11.221   7.538 -0.0313 -0.1972 -1.5982
21653SOL     OW70795  11.126   9.026   3.536  0.3984  0.1955  0.6664
21653SOL    HW170796  11.103   8.941   3.497  0.6468  1.0871 -1.6191
21653SOL    HW270797  11.220   9.023   3.547  0.4717  0.3150  0.1340
21654SOL     OW70798   6.508   8.105  12.057 -0.2022 -0.2738 -0.1797
21654SOL    HW170799   6.475   8.184  12.100 -1.6150 -0.1463 -1.4192
21654SOL    HW270800   6.449   8.035  12.086 -1.3545 -0.1344 -2.0476
21655SOL     OW70801   0.343   0.599   2.765 -0.2647  0.3694 -0.7643
21655SOL    HW170802   0.339   0.638   2.852 -1.4402 -0.0206 -0.6256
21655SOL    HW270803   0.324   0.672   2.705 -0.4436  0.4357 -0.6279
21656SOL     OW70804   4.239   1.366  12.032 -0.7634 -0.5577  0.4232
21656SOL    HW170805   4.256   1.371  11.938  0.2063  0.9752  0.6365
21656SOL    HW270806   4.158   1.416  12.044 -0.9643 -0.8727  0.3990
21657SOL     OW70807   8.169   6.033   6.069 -0.6561 -0.1854  0.0289
21657SOL    HW170808   8.237   5.995   6.013 -1.7917  1.8349 -2.9128
21657SOL    HW270809   8.218   6.086   6.132  0.5789 -0.6637 -0.4795
21658SOL     OW70810  10.822   9.948   8.358  0.5032 -0.5414  0.3898
21658SOL    HW170811  10.755   9.903   8.409  0.9985 -1.7641  0.0042
21658SOL    HW270812  10.773  10.009   8.302 -0.0128  1.3893  2.7764
21659SOL     OW70813   2.952   6.596   8.537 -0.1182  0.4383 -0.4071
21659SOL    HW170814   2.983   6.595   8.627  1.9026 -0.6438 -1.0542
21659SOL    HW270815   2.958   6.688   8.510  2.9440  0.2763 -0.5647
21660SOL     OW70816  11.123   2.284   3.389  0.0581  0.1494 -0.6186
21660SOL    HW170817  11.159   2.312   3.474  1.6259 -1.9329 -0.5214
21660SOL    HW270818  11.194   2.300   3.327 -0.0648 -0.8972 -1.0369
21661SOL     OW70819   4.553   4.144   2.402  0.0925  0.1243  0.2614
21661SOL    HW170820   4.608   4.090   2.345  1.3958  0.0658  1.5095
21661SOL    HW270821   4.504   4.200   2.342  1.4986  0.1575 -0.9188
21662SOL     OW70822   5.382   8.980   8.641  0.6164  0.5066  0.1776
21662SOL    HW170823   5.321   9.002   8.571 -0.7952 -0.3850  1.0648
21662SOL    HW270824   5.327   8.968   8.718  1.9354 -0.2163  1.0534
21663SOL     OW70825   0.085   2.482  10.550  0.1819  0.2354  0.3534
21663SOL    HW170826   0.032   2.445  10.620 -0.2660 -1.3929 -0.7969
21663SOL    HW270827   0.042   2.454  10.469  1.2507  1.2063 -0.6035
21664SOL     OW70828   9.247   9.866   5.459  0.5519  0.3981  0.0732
21664SOL    HW170829   9.277   9.945   5.504 -0.8260  0.7488  0.4305
21664SOL    HW270830   9.205   9.899   5.379  3.6496 -0.2492 -2.0037
21665SOL     OW70831   8.311  10.918   9.540  0.1086  0.1515  0.4533
21665SOL    HW170832   8.342  10.836   9.502  0.1277 -0.0583  0.9097
21665SOL    HW270833   8.344  10.917   9.630 -0.7072  0.1996  0.7614
21666SOL     OW70834   6.339   2.385   5.367 -0.0974  0.0470  0.4180
21666SOL    HW170835   6.296   2.431   5.440 -1.2544  1.9392 -1.3416
21666SOL    HW270836   6.273   2.325   5.334  0.8993 -1.8846  1.7202
21667SOL     OW70837   5.121   2.567   9.360  0.1382 -1.0022 -0.0445
21667SOL    HW170838   5.161   2.559   9.273  0.7337 -2.3208  0.3199
21667SOL    HW270839   5.195   2.564   9.421 -0.2771 -0.1285  0.5130
21668SOL     OW70840   6.134  12.092   3.763 -0.8230 -0.2957  0.5654
21668SOL    HW170841   6.153  12.135   3.680  0.4173  0.6661  1.3093
21668SOL    HW270842   6.191  12.016   3.765 -2.4244 -1.5897 -0.3846
21669SOL     OW70843   1.193   2.735  10.115 -0.1274 -0.4659  1.0315
21669SOL    HW170844   1.249   2.657  10.122  0.5965 -0.1083 -0.3007
21669SOL    HW270845   1.119   2.706  10.061  1.0467  0.1766 -1.0379
21670SOL     OW70846   8.379   4.708   8.488 -0.4014 -0.0461  0.0704
21670SOL    HW170847   8.314   4.638   8.491  0.3567 -0.7288  1.1161
21670SOL    HW270848   8.327   4.788   8.486 -1.2862 -0.5769  0.9424
21671SOL     OW70849  12.164   2.692   8.728  0.3052 -0.1226 -0.1911
21671SOL    HW170850  12.106   2.765   8.705  1.4083  0.4654 -1.2492
21671SOL    HW270851  12.218   2.726   8.800  0.7004  0.0612 -0.5676
21672SOL     OW70852   9.888   1.095   8.645  0.3399  0.0588 -0.1846
21672SOL    HW170853   9.853   1.121   8.560 -0.8021  0.5645  0.4153
21672SOL    HW270854   9.963   1.153   8.659  1.2929 -0.8309 -1.3513
21673SOL     OW70855   1.954   4.522   8.160 -0.6409 -0.4340 -0.6354
21673SOL    HW170856   2.028   4.463   8.177  1.6974  1.7566 -2.4222
21673SOL    HW270857   1.953   4.532   8.065 -1.5023  1.7091 -0.4534
21674SOL     OW70858   1.507   8.677   6.097  0.1181  0.5655 -0.7712
21674SOL    HW170859   1.564   8.606   6.127  1.2480  2.2422  1.2201
21674SOL    HW270860   1.537   8.696   6.008  0.8560 -0.3546 -0.7314
21675SOL     OW70861   3.867  11.444   8.524 -0.4274 -0.1808 -0.1878
21675SOL    HW170862   3.792  11.386   8.531 -1.1223  0.3406 -2.5650
21675SOL    HW270863   3.832  11.524   8.485  0.9485  0.9863  0.8339
21676SOL     OW70864   9.197   4.230   7.481  0.3884 -0.1311 -0.8984
21676SOL    HW170865   9.121   4.281   7.454  0.4401 -0.7435 -2.2457
21676SOL    HW270866   9.175   4.140   7.458  1.3002 -0.3982 -0.7764
21677SOL     OW70867   1.272   8.492  10.834  0.2573 -0.4220  0.6123
21677SOL    HW170868   1.336   8.548  10.790 -0.4767  2.0491  2.4721
21677SOL    HW270869   1.324   8.435  10.890  1.0157 -1.5472 -1.1628
21678SOL     OW70870   5.818   9.844   1.554  0.6453  0.0287  0.0971
21678SOL    HW170871   5.845   9.916   1.611 -0.0909  1.0058 -0.7395
21678SOL    HW270872   5.828   9.879   1.465  0.3313 -0.9274 -0.3250
21679SOL     OW70873   9.783   4.833   2.868  0.5760  0.0288  0.3051
21679SOL    HW170874   9.730   4.862   2.942 -0.2366 -0.5604 -0.0321
21679SOL    HW270875   9.873   4.859   2.891  0.1916  0.7518  1.0275
21680SOL     OW70876   8.493   3.567   2.306 -0.1900  0.2117  0.5863
21680SOL    HW170877   8.497   3.473   2.293  0.3896  0.5058 -1.6896
21680SOL    HW270878   8.413   3.594   2.261  0.8310  1.0603 -0.7737
21681SOL     OW70879   7.560   5.526   4.994 -0.0356 -0.1759 -0.0140
21681SOL    HW170880   7.577   5.620   4.994  0.8385 -0.3291 -0.3104
21681SOL    HW270881   7.645   5.486   5.012 -0.1147 -0.9624 -1.2797
21682SOL     OW70882   6.136   9.198   4.670  0.0291 -0.1081 -0.4139
21682SOL    HW170883   6.182   9.227   4.748 -1.6404 -1.6979  1.2874
21682SOL    HW270884   6.113   9.107   4.689  0.2498 -0.8112 -3.1252
21683SOL     OW70885   1.854   2.643   5.959 -0.0190  0.4800  0.0623
21683SOL    HW170886   1.789   2.643   5.888  2.4777 -0.2309 -2.4327
21683SOL    HW270887   1.836   2.562   6.007 -0.8403  0.1965 -0.6853
21684SOL     OW70888   6.122  11.172   9.887 -0.0246  0.1999 -0.2069
21684SOL    HW170889   6.083  11.130   9.964  0.6561 -0.6799 -0.3218
21684SOL    HW270890   6.146  11.260   9.917 -1.2914  0.4575  0.0986
21685SOL     OW70891   2.123  12.161   1.059 -0.3032  0.4381  0.0297
21685SOL    HW170892   2.189  12.170   0.990 -0.1559  0.9522  0.2385
21685SOL    HW270893   2.080  12.078   1.039  0.3920  0.1040 -0.1208
21686SOL     OW70894   7.340   4.157  11.624  0.0378 -0.6420  0.1529
21686SOL    HW170895   7.335   4.151  11.529 -0.9456 -0.8109  0.2030
21686SOL    HW270896   7.420   4.207  11.641  0.2393 -0.6425 -0.7548
21687SOL     OW70897  10.474   0.211   5.462 -0.0906  0.0708  0.5499
21687SOL    HW170898  10.507   0.122   5.450 -1.1272 -0.0432 -2.0003
21687SOL    HW270899  10.529   0.265   5.406 -0.1552  0.8929  1.2622
21688SOL     OW70900   6.451   0.111   9.978  0.3837 -0.2401 -0.4312
21688SOL    HW170901   6.488   0.062   9.904 -1.8695 -0.8659 -1.2245
21688SOL    HW270902   6.469   0.057  10.055  0.5849 -0.8048 -0.8718
21689SOL     OW70903   3.478   6.627   0.224  0.1225 -0.4647 -0.0747
21689SOL    HW170904   3.497   6.605   0.132  0.4911 -1.1153  0.1529
21689SOL    HW270905   3.534   6.703   0.241 -1.4057  0.9242 -0.9627
21690SOL     OW70906   1.880   1.496  11.366 -0.1473  0.2782 -0.2670
21690SOL    HW170907   1.932   1.499  11.446 -0.4144 -2.2881  0.1109
21690SOL    HW270908   1.936   1.448  11.304 -2.1802 -3.4448  0.4456
21691SOL     OW70909   3.549   1.612   6.737  0.5875 -0.0611  0.0655
21691SOL    HW170910   3.475   1.659   6.698  0.7742 -0.3865 -0.6983
21691SOL    HW270911   3.511   1.534   6.777  0.2693  0.7267  1.3684
21692SOL     OW70912   4.444   8.126   2.217  0.2146 -0.0051 -0.1925
21692SOL    HW170913   4.365   8.104   2.167 -1.6799  1.3405  1.9714
21692SOL    HW270914   4.480   8.202   2.173 -2.6530  2.5414  1.4486
21693SOL     OW70915  11.649   5.261   1.119 -0.2007  0.7156  0.1855
21693SOL    HW170916  11.577   5.272   1.181 -2.9686 -1.1869 -2.4219
21693SOL    HW270917  11.663   5.349   1.084 -1.1033  1.1590  0.8834
21694SOL     OW70918   0.267  10.724  10.971  0.3059  0.0432  0.3558
21694SOL    HW170919   0.252  10.810  11.009 -0.2288  0.2127 -0.2266
21694SOL    HW270920   0.180  10.688  10.957  0.5201 -0.4490  0.2739
21695SOL     OW70921   4.184   1.398   9.850 -0.2541 -0.6950 -0.0232
21695SOL    HW170922   4.268   1.368   9.815  0.5234  0.3999  0.8095
21695SOL    HW270923   4.202   1.487   9.882 -1.3565 -0.9652  1.4503
21696SOL     OW70924   5.439   2.201   7.044  0.0646  0.5217 -0.3706
21696SOL    HW170925   5.362   2.245   7.007 -1.0908 -2.2264 -1.5321
21696SOL    HW270926   5.422   2.198   7.138 -0.3030  1.5977 -0.3848
21697SOL     OW70927   9.098   9.989  11.101 -0.2158  0.1750  0.1369
21697SOL    HW170928   9.132   9.904  11.128 -0.2874  0.1182  0.0485
21697SOL    HW270929   9.161  10.020  11.036 -1.0366 -0.5315 -1.0340
21698SOL     OW70930   9.436  11.052   3.525  0.7740  0.2097 -0.6076
21698SOL    HW170931   9.506  11.111   3.498  1.0382 -0.2440 -0.9408
21698SOL    HW270932   9.477  10.966   3.528  1.0583  0.3552  2.4097
21699SOL     OW70933   6.729   2.401   1.321  0.4437  0.4440  0.2582
21699SOL    HW170934   6.742   2.318   1.276  0.1341  0.3081  0.4162
21699SOL    HW270935   6.689   2.377   1.405  0.3690  0.7475  0.3106
21700SOL     OW70936   7.033   7.992   0.673 -0.2226 -0.4474 -0.1337
21700SOL    HW170937   7.109   8.041   0.643 -0.9022  0.9956  0.3955
21700SOL    HW270938   7.068   7.927   0.733  0.5183  0.9169  0.9737
21701SOL     OW70939   1.213   7.928   7.299  0.0737 -0.1113 -0.4820
21701SOL    HW170940   1.256   7.892   7.376 -0.9166  1.3770  0.8286
21701SOL    HW270941   1.277   7.989   7.262 -0.4260  1.2820  0.8372
21702SOL     OW70942   3.986   6.778   7.414 -0.2171 -0.5265 -0.0563
21702SOL    HW170943   3.903   6.767   7.368  0.9428  1.4112 -2.9016
21702SOL    HW270944   4.050   6.796   7.344  2.2537 -0.1094  2.1527
21703SOL     OW70945   7.765   6.632  11.729 -0.6940 -0.2931  0.0395
21703SOL    HW170946   7.850   6.675  11.736 -1.0917  0.8271 -1.5013
21703SOL    HW270947   7.723   6.645  11.814  0.8326 -1.3023  0.9986
21704SOL     OW70948  11.780  10.297  12.121 -0.4117 -0.1504  0.5757
21704SOL    HW170949  11.797  10.300  12.027 -0.1359 -0.1936  0.6248
21704SOL    HW270950  11.768  10.203  12.140 -0.7158 -0.1213  0.5411
21705SOL     OW70951   1.956   9.490   1.137  0.2896 -0.4791  0.0790
21705SOL    HW170952   1.977   9.523   1.050 -0.6435 -0.2845 -0.0821
21705SOL    HW270953   1.929   9.399   1.122 -0.7763 -0.1647  0.0350
21706SOL     OW70954   3.843   6.554  12.120  0.2185  0.2227 -0.4202
21706SOL    HW170955   3.852   6.565  12.215  0.0809  0.3713 -0.4245
21706SOL    HW270956   3.749   6.545  12.105  0.2640 -0.1472 -0.5066
21707SOL     OW70957   7.041   8.083   4.189  0.2910 -0.0161 -0.1657
21707SOL    HW170958   6.985   8.055   4.261  0.4088  1.9782  0.7737
21707SOL    HW270959   7.120   8.029   4.198  0.1141 -0.1114  0.9086
21708SOL     OW70960   0.838   0.300   1.047  0.4538 -0.3439 -0.2094
21708SOL    HW170961   0.789   0.336   1.122 -0.6324 -0.4599 -0.8416
21708SOL    HW270962   0.926   0.335   1.058 -0.4350  2.3269 -0.5998
21709SOL     OW70963   1.206   8.121   9.326  0.1122  0.5918 -0.0169
21709SOL    HW170964   1.137   8.056   9.317 -0.5535  1.4295 -1.2818
21709SOL    HW270965   1.287   8.069   9.332 -0.5451 -0.3782  0.7523
21710SOL     OW70966   2.626   9.342   2.443 -0.1064 -0.4222  0.2356
21710SOL    HW170967   2.543   9.301   2.418 -0.7734 -0.9161  2.8934
21710SOL    HW270968   2.636   9.416   2.383 -1.0303 -1.9413 -1.9322
21711SOL     OW70969   8.861   2.958   6.901  0.6485 -0.5443  0.3065
21711SOL    HW170970   8.782   2.982   6.949  0.6453 -0.0696  0.0643
21711SOL    HW270971   8.907   2.897   6.960  2.0657  2.1503  2.2104
21712SOL     OW70972   9.324   2.676   7.107 -0.2978 -0.0676  0.0769
21712SOL    HW170973   9.266   2.678   7.030 -2.3378  0.4735  1.5390
21712SOL    HW270974   9.305   2.591   7.148 -0.8922  0.5671  1.1481
21713SOL     OW70975  10.373   7.517   5.961 -0.0368 -0.1204 -0.0351
21713SOL    HW170976  10.427   7.553   5.891  0.9608 -1.4719 -0.0041
21713SOL    HW270977  10.308   7.462   5.916  0.4965 -0.8508  0.0651
21714SOL     OW70978   4.212   7.055  11.495  0.5183 -0.6665 -0.1554
21714SOL    HW170979   4.184   7.145  11.513 -0.2555 -1.1557  1.2153
21714SOL    HW270980   4.305   7.054  11.520  0.9354  0.1242 -1.6121
21715SOL     OW70981   7.216   1.375   6.693  0.0834  0.5042 -0.0640
21715SOL    HW170982   7.125   1.389   6.720 -0.5919  0.0820 -1.9139
21715SOL    HW270983   7.249   1.463   6.673  0.1027  0.6610  0.6331
21716SOL     OW70984   2.301   1.009  10.491 -0.5737  0.7852  0.2139
21716SOL    HW170985   2.296   1.072  10.562  1.0936  1.9481 -0.6360
21716SOL    HW270986   2.387   1.022  10.452 -1.6593  0.7105 -2.4584
21717SOL     OW70987   8.811   0.857   5.123 -0.0290 -0.0537 -0.6610
21717SOL    HW170988   8.727   0.884   5.161  0.9101  1.4607  0.4211
21717SOL    HW270989   8.842   0.788   5.180  0.4009  0.8005  0.1678
21718SOL     OW70990   0.314   7.241   4.022  0.2858  0.1014  0.6458
21718SOL    HW170991   0.285   7.291   3.946 -1.2196 -0.1759  0.9974
21718SOL    HW270992   0.407   7.260   4.029 -0.2327  3.0911  0.9346
21719SOL     OW70993   0.108  11.837   3.497  0.0293 -0.4659 -0.0487
21719SOL    HW170994   0.127  11.896   3.424 -2.9942 -1.2237 -1.5948
21719SOL    HW270995   0.024  11.867   3.531  0.1104 -1.7778  1.4086
21720SOL     OW70996   4.219   9.070   1.392 -0.6042 -0.1529  0.2032
21720SOL    HW170997   4.210   9.113   1.477 -1.1995 -1.6549  0.9503
21720SOL    HW270998   4.129   9.055   1.363 -0.4184 -0.8168 -0.0490
21721SOL     OW70999   0.915   2.380   5.250 -0.3322 -0.3502 -1.0136
21721SOL    HW171000   0.987   2.388   5.312 -0.6622 -1.2098 -0.5027
21721SOL    HW271001   0.837   2.401   5.301 -0.6449 -1.4217 -1.0094
21722SOL     OW71002  10.348  11.881   8.362 -0.4228 -0.1306  0.0033
21722SOL    HW171003  10.364  11.787   8.361 -0.8825 -0.3155  2.7555
21722SOL    HW271004  10.268  11.891   8.413  0.5876  1.8426  1.3264
21723SOL     OW71005   2.047   8.821   6.065  0.4254 -0.1079 -0.0208
21723SOL    HW171006   2.055   8.738   6.112 -0.8195  0.4560  1.2684
21723SOL    HW271007   1.986   8.872   6.117  0.5006  1.3098 -1.2509
21724SOL     OW71008  11.236  11.592   0.777  0.4744 -0.3543 -0.7398
21724SOL    HW171009  11.319  11.545   0.779  0.7028  0.0385 -0.8886
21724SOL    HW271010  11.173  11.529   0.742  0.0412 -1.6833  2.0786
21725SOL     OW71011   9.688   9.075  10.415 -0.8411  0.3236 -0.2300
21725SOL    HW171012   9.744   9.118  10.479 -0.3271 -0.4984 -0.1053
21725SOL    HW271013   9.746   9.013  10.370 -2.2463 -3.0170  2.1506
21726SOL     OW71014   2.022   8.782   2.492 -0.1112  0.1982  0.2603
21726SOL    HW171015   2.098   8.811   2.543  0.7383  3.0355 -2.2816
21726SOL    HW271016   2.059   8.753   2.408 -1.7060 -0.2060 -0.3406
21727SOL     OW71017   9.205   4.713   7.282  0.8669  1.0082  0.1254
21727SOL    HW171018   9.228   4.678   7.368 -0.2179  0.9152  0.3907
21727SOL    HW271019   9.289   4.739   7.244  1.6701 -1.2242  0.1995
21728SOL     OW71020  11.594   5.795  10.432  0.1515  0.0095  0.3624
21728SOL    HW171021  11.538   5.735  10.481  1.6407 -0.7796  1.1884
21728SOL    HW271022  11.680   5.752  10.432  0.7878  1.2117 -0.7690
21729SOL     OW71023   3.343   3.519   5.570 -0.0259 -0.3248 -0.2394
21729SOL    HW171024   3.357   3.427   5.548 -1.9831 -0.9024  0.6926
21729SOL    HW271025   3.395   3.534   5.649 -0.0014 -0.7386 -0.1764
21730SOL     OW71026   7.567   6.318   0.024 -0.2408  0.4661  0.0633
21730SOL    HW171027   7.610   6.237   0.052 -0.9557 -0.0526 -0.2958
21730SOL    HW271028   7.475   6.293   0.012 -0.5801  1.4623  0.4770
21731SOL     OW71029   8.565   8.176   1.281 -0.0164  0.2644  0.1510
21731SOL    HW171030   8.593   8.244   1.343 -0.7582 -0.3702  1.2134
21731SOL    HW271031   8.482   8.144   1.317 -0.2841 -0.3664 -0.9939
21732SOL     OW71032   8.986   2.710  10.513 -0.1339  0.1094 -0.0202
21732SOL    HW171033   9.042   2.788  10.508 -0.8411  0.7763  1.5854
21732SOL    HW271034   9.048   2.637  10.513  0.4975  0.5737 -2.4997
21733SOL     OW71035   2.302   5.945   6.072  0.4812  0.2153 -0.3153
21733SOL    HW171036   2.234   6.005   6.104 -0.1866 -0.5229 -0.3287
21733SOL    HW271037   2.381   5.999   6.069 -0.1475  1.1528 -0.5262
21734SOL     OW71038   4.262   6.285   2.226 -0.1569  0.2925 -0.1431
21734SOL    HW171039   4.245   6.360   2.170 -0.7876 -1.0739 -1.8635
21734SOL    HW271040   4.357   6.282   2.235 -0.1238  1.2048 -0.1629
21735SOL     OW71041   9.632  10.338   7.987  0.3239  0.2479 -0.0878
21735SOL    HW171042   9.668  10.426   7.998 -0.8358  0.7508 -0.1373
21735SOL    HW271043   9.576  10.325   8.064  0.3056 -0.3530 -0.1962
21736SOL     OW71044   3.951   7.999   4.865  0.6883 -0.2610  0.0226
21736SOL    HW171045   4.030   7.945   4.868  0.8968  0.0460  0.0271
21736SOL    HW271046   3.884   7.945   4.907  1.1896 -0.0291  1.1640
21737SOL     OW71047   8.444   7.641   0.506 -0.4755  0.1425  0.2638
21737SOL    HW171048   8.523   7.600   0.470 -0.9539 -1.1961  0.6596
21737SOL    HW271049   8.449   7.732   0.477  1.2282  0.1083  0.3184
21738SOL     OW71050   5.585   8.504   8.580 -1.1531  0.4696 -0.4619
21738SOL    HW171051   5.498   8.542   8.589 -1.0172  0.8958 -0.9218
21738SOL    HW271052   5.594   8.447   8.657 -1.5310  1.0242  0.0055
21739SOL     OW71053   2.966   9.708   1.703 -0.5658  0.5545  0.3101
21739SOL    HW171054   2.950   9.684   1.794 -0.1780 -5.8026 -0.8168
21739SOL    HW271055   2.878   9.717   1.665 -0.8074 -0.1009  0.6996
21740SOL     OW71056  10.935  11.443   4.216  0.0083 -0.0336  0.1314
21740SOL    HW171057  11.022  11.419   4.184 -0.0956 -0.5365  0.2119
21740SOL    HW271058  10.924  11.390   4.295 -0.0463  0.6277  0.5742
21741SOL     OW71059  10.343   7.047  12.086 -0.4804  0.2146 -0.1578
21741SOL    HW171060  10.285   6.982  12.045  0.7632 -0.7377 -0.4792
21741SOL    HW271061  10.391   6.997  12.153  0.5096  0.7987 -0.4138
21742SOL     OW71062   7.678   7.807   1.641 -0.2462  0.2433 -0.5835
21742SOL    HW171063   7.770   7.821   1.666 -0.5518  2.9796 -0.7347
21742SOL    HW271064   7.634   7.784   1.722  0.5144 -1.0328 -0.4968
21743SOL     OW71065   3.449   2.553   0.669  0.4868 -0.5471  0.3967
21743SOL    HW171066   3.519   2.611   0.696 -0.3301 -0.1702  1.7624
21743SOL    HW271067   3.418   2.512   0.749 -2.1323  0.7386  0.1624
21744SOL     OW71068   3.782   6.755   4.991 -0.1191  0.3237  0.2507
21744SOL    HW171069   3.774   6.686   5.057  1.9188  1.2030  1.5143
21744SOL    HW271070   3.777   6.836   5.041 -1.9456  1.1580 -1.1466
21745SOL     OW71071   5.450   1.161   0.648  0.3605 -0.3003  0.5087
21745SOL    HW171072   5.544   1.150   0.660  0.5832 -2.1692 -2.0871
21745SOL    HW271073   5.412   1.143   0.734  2.3402  0.4526  1.5865
21746SOL     OW71074   8.759  10.203   2.321  0.3507 -0.0428 -0.5639
21746SOL    HW171075   8.763  10.129   2.261 -1.0956  0.3699 -1.2254
21746SOL    HW271076   8.844  10.203   2.365  1.0184 -1.0535 -1.7718
21747SOL     OW71077   0.221   6.152   7.959 -0.4014  0.4531 -0.0043
21747SOL    HW171078   0.305   6.171   7.917  0.5638 -1.5247  0.8699
21747SOL    HW271079   0.172   6.102   7.894 -0.2996  0.3653 -0.0145
21748SOL     OW71080   5.194   5.104  12.041 -0.3793 -0.3142  0.4728
21748SOL    HW171081   5.135   5.043  12.086 -0.1789  0.0936  1.3115
21748SOL    HW271082   5.169   5.190  12.075  0.8608 -0.1551  1.0484
21749SOL     OW71083   0.860  10.191   3.798 -0.4001  0.0857 -0.5789
21749SOL    HW171084   0.915  10.171   3.874 -1.0721  0.7907  0.1101
21749SOL    HW271085   0.828  10.106   3.769 -1.8611 -0.0660  1.2611
21750SOL     OW71086   2.074   6.940  11.935  0.1238  0.5988  0.3777
21750SOL    HW171087   2.139   6.871  11.926  1.5280  1.9063  0.1293
21750SOL    HW271088   2.008   6.920  11.869  0.4982 -0.4938  0.3241
21751SOL     OW71089   8.327   2.461   8.252 -0.1819  0.0854  0.7202
21751SOL    HW171090   8.297   2.387   8.199  0.7771  0.6540 -0.6720
21751SOL    HW271091   8.260   2.470   8.320  0.6303 -3.2838  2.1923
21752SOL     OW71092   4.753   6.247   6.761 -0.0089 -0.2523  0.4798
21752SOL    HW171093   4.821   6.255   6.695 -0.4509  0.0806  0.0623
21752SOL    HW271094   4.747   6.153   6.779  1.5275 -0.1844  1.5436
21753SOL     OW71095   2.430   9.401   0.300 -0.0871 -0.0052 -0.0616
21753SOL    HW171096   2.345   9.374   0.336  0.5190 -0.9245  0.7306
21753SOL    HW271097   2.479   9.433   0.376 -0.5431  2.8528 -0.8622
21754SOL     OW71098   8.267  10.101   7.108  0.1696 -0.2587 -0.1100
21754SOL    HW171099   8.262  10.155   7.029  1.2803  0.4954  0.3074
21754SOL    HW271100   8.355  10.117   7.142  0.3963 -2.0724  0.2377
21755SOL     OW71101  10.360   5.562   3.008 -0.0740 -0.3274  0.2854
21755SOL    HW171102  10.303   5.621   3.057  1.4554  1.7311 -0.2661
21755SOL    HW271103  10.303   5.522   2.942 -1.0610  1.0167  0.2921
21756SOL     OW71104   4.919   5.309   5.535  0.2981 -0.4867 -0.3711
21756SOL    HW171105   4.967   5.318   5.617 -1.0817 -1.1112  0.5418
21756SOL    HW271106   4.840   5.259   5.558 -1.3913  1.4576 -1.5479
21757SOL     OW71107   0.801   4.458   0.148 -0.4122  0.3675 -0.4961
21757SOL    HW171108   0.799   4.380   0.204 -2.6505  1.3107  0.8655
21757SOL    HW271109   0.724   4.449   0.092 -1.1448  1.9033  0.1983
21758SOL     OW71110   3.886   5.439   6.158 -0.1466  0.4354 -0.5066
21758SOL    HW171111   3.841   5.488   6.227 -0.1048 -0.5525  0.2360
21758SOL    HW271112   3.823   5.435   6.086 -1.0065 -0.3449  0.2644
21759SOL     OW71113   4.981   3.472   3.258  0.4449 -0.0045 -0.2094
21759SOL    HW171114   4.942   3.385   3.251  0.3744 -0.1562  1.6822
21759SOL    HW271115   4.994   3.485   3.352  0.9995  1.7941 -0.5047
21760SOL     OW71116   7.693  11.518   7.674 -0.0527  0.2998 -0.0617
21760SOL    HW171117   7.770  11.544   7.624  0.3071 -1.7273 -0.6777
21760SOL    HW271118   7.728  11.475   7.752 -0.6148  2.0708  1.2322
21761SOL     OW71119   2.333   4.927   6.673 -0.5714  0.4368 -0.2111
21761SOL    HW171120   2.316   4.834   6.690  0.1958 -0.2616 -2.9013
21761SOL    HW271121   2.291   4.945   6.589  0.0812  2.3014 -0.1941
21762SOL     OW71122   8.537   4.100  11.221  0.0155  0.0315 -0.5279
21762SOL    HW171123   8.609   4.054  11.179  0.4527 -0.1941  0.4470
21762SOL    HW271124   8.460   4.046  11.202  0.6879 -1.8685  1.6173
21763SOL     OW71125  10.937   6.821   4.630 -0.0239  0.2086 -0.2554
21763SOL    HW171126  10.999   6.868   4.686 -2.0727  2.0702  0.6073
21763SOL    HW271127  10.983   6.809   4.547  2.4204 -0.9373  1.1646
21764SOL     OW71128   4.255   0.410   7.524  0.1666  0.2524 -0.1032
21764SOL    HW171129   4.168   0.449   7.532 -0.4742 -1.3694  1.4271
21764SOL    HW271130   4.313   0.471   7.570 -0.3362  0.7815 -0.1613
21765SOL     OW71131   7.625   1.933  11.081  0.0271  0.7505 -0.1189
21765SOL    HW171132   7.651   1.872  11.150  0.4706  1.0568 -0.0105
21765SOL    HW271133   7.560   1.886  11.031  0.6148  0.0528 -0.2425
21766SOL     OW71134   6.140   1.207   0.715 -0.3514  0.6482 -0.0737
21766SOL    HW171135   6.224   1.234   0.679 -1.1543  1.3887 -1.4731
21766SOL    HW271136   6.129   1.261   0.793  0.3379  0.7372 -0.0330
21767SOL     OW71137   3.768  11.042  10.194 -0.0618 -0.4291  0.6642
21767SOL    HW171138   3.855  11.007  10.173 -0.0324  0.2381 -0.4777
21767SOL    HW271139   3.781  11.093  10.273  0.3555 -1.2037  1.1042
21768SOL     OW71140   9.697  11.727   9.711  0.4920 -0.0070 -0.4741
21768SOL    HW171141   9.681  11.685   9.626 -1.4680 -1.9269  0.7332
21768SOL    HW271142   9.768  11.675   9.750  0.4295 -0.0194 -0.3758
21769SOL     OW71143   8.712   2.541   7.381 -0.3209  0.3631  0.3462
21769SOL    HW171144   8.645   2.526   7.447 -0.8493  0.8358 -0.0812
21769SOL    HW271145   8.675   2.607   7.322  0.5973  0.7852  0.2204
21770SOL     OW71146   0.530   5.884   7.948 -0.0803 -0.2312 -0.3495
21770SOL    HW171147   0.479   5.901   7.869  0.0450  1.1822 -0.1452
21770SOL    HW271148   0.490   5.806   7.986 -0.7687 -0.3445 -1.2762
21771SOL     OW71149  10.465   8.717   4.065 -0.1309  0.2437  0.1800
21771SOL    HW171150  10.422   8.803   4.073 -1.9942 -0.5576 -0.5289
21771SOL    HW271151  10.430   8.681   3.984 -0.3347 -1.6956  1.0834
21772SOL     OW71152   4.813   4.031   3.661 -0.2810 -0.0058  0.0758
21772SOL    HW171153   4.783   3.965   3.723 -2.6003 -0.0302 -0.9418
21772SOL    HW271154   4.784   3.998   3.576  1.3041  0.8434 -0.8412
21773SOL     OW71155   1.062   5.731   8.342  0.4387  0.2211 -0.0301
21773SOL    HW171156   1.017   5.778   8.412 -1.1109 -1.3343  0.0773
21773SOL    HW271157   1.081   5.797   8.276 -2.9921  0.8195 -0.5693
21774SOL     OW71158   2.756   7.038   4.386  0.5476 -0.1238  0.0106
21774SOL    HW171159   2.800   7.027   4.470  1.8872 -0.8074 -0.7369
21774SOL    HW271160   2.773   6.956   4.340 -0.2545  0.1985 -0.8858
21775SOL     OW71161  11.362  11.750  10.859 -0.3212 -0.7148  0.2967
21775SOL    HW171162  11.453  11.725  10.879 -0.1613 -0.6375 -0.2988
21775SOL    HW271163  11.366  11.845  10.847 -0.5921 -0.6368  0.8205
21776SOL     OW71164   7.040   7.039  11.333  0.4018 -0.1489  0.5448
21776SOL    HW171165   7.003   6.977  11.395 -1.5509  1.6856  1.3019
21776SOL    HW271166   7.079   7.108  11.387  0.5186  0.4404 -0.2706
21777SOL     OW71167   0.690   0.123   3.788  0.2463  0.3308 -0.0041
21777SOL    HW171168   0.731   0.038   3.774 -0.2599 -0.2252  1.5949
21777SOL    HW271169   0.728   0.181   3.722 -0.1286 -1.3598 -1.7725
21778SOL     OW71170   0.449   3.693   7.838  0.1117 -0.2758  0.6154
21778SOL    HW171171   0.472   3.600   7.834 -0.4954 -0.4019 -1.9628
21778SOL    HW271172   0.532   3.738   7.856  0.5891 -1.2504  0.9222
21779SOL     OW71173   0.321   2.848  12.315  0.2744  0.3302  0.2043
21779SOL    HW171174   0.257   2.919  12.324  0.3638  0.3353  0.8229
21779SOL    HW271175   0.345   2.850  12.222 -0.1186  0.7663  0.1042
21780SOL     OW71176   6.897   5.605   5.738  0.3392  0.3296 -0.1204
21780SOL    HW171177   6.883   5.636   5.827  1.6799 -0.7526  0.4863
21780SOL    HW271178   6.811   5.571   5.711 -0.5714  2.3550  0.0185
21781SOL     OW71179   7.813   7.761   6.809  0.0601 -0.0402 -0.2934
21781SOL    HW171180   7.823   7.721   6.895 -0.4865  1.9117  0.7218
21781SOL    HW271181   7.764   7.696   6.758 -1.6258 -0.3193  1.5732
21782SOL     OW71182  10.755   4.194   2.924 -0.4454  0.3936 -0.5422
21782SOL    HW171183  10.727   4.285   2.939  2.0747  1.1801 -0.0721
21782SOL    HW271184  10.735   4.178   2.832 -4.1558  0.0804  0.1354
21783SOL     OW71185   9.449   0.623   9.315  0.2919 -0.0710 -0.4147
21783SOL    HW171186   9.434   0.557   9.382  0.2326  0.5008  0.1500
21783SOL    HW271187   9.414   0.585   9.234 -0.0370 -0.5859 -0.0335
21784SOL     OW71188   4.894  10.188   3.841  0.1727 -0.2747  0.3688
21784SOL    HW171189   4.967  10.245   3.816 -1.9638  1.3278 -3.0189
21784SOL    HW271190   4.935  10.103   3.858  2.9006  0.7281 -0.5711
21785SOL     OW71191   4.115   6.081   1.285 -0.1274  0.0277 -0.7167
21785SOL    HW171192   4.093   6.145   1.217  0.2535 -1.5800 -2.4573
21785SOL    HW271193   4.144   6.133   1.360  0.7836  1.8540 -2.2690
21786SOL     OW71194   7.297  12.096   1.083 -0.4567 -0.1005 -0.4253
21786SOL    HW171195   7.324  12.142   1.162 -1.2347 -2.0867  1.0617
21786SOL    HW271196   7.336  12.009   1.090 -0.6150 -0.3683 -2.2097
21787SOL     OW71197   5.346  10.081   0.006  0.0363 -0.3267 -0.5851
21787SOL    HW171198   5.279  10.107   0.069  0.4227  0.1721 -0.3680
21787SOL    HW271199   5.371  10.163  -0.037  0.1946 -0.5769 -0.9726
21788SOL     OW71200   7.310  12.163  11.641 -0.2221 -0.1658 -0.1326
21788SOL    HW171201   7.334  12.255  11.645 -2.1233  0.3776 -0.1956
21788SOL    HW271202   7.227  12.162  11.594 -0.0188 -1.9717 -0.5336
21789SOL     OW71203   0.077   8.707   4.256 -0.1396 -0.5226  0.1692
21789SOL    HW171204   0.053   8.665   4.173 -5.0658  2.1784 -0.1780
21789SOL    HW271205   0.049   8.645   4.323  0.3383 -1.1772 -0.2317
21790SOL     OW71206   2.119   4.044   6.785 -0.2522  0.3422  0.4489
21790SOL    HW171207   2.026   4.063   6.773 -0.3706  0.1769  1.0845
21790SOL    HW271208   2.164   4.125   6.759 -0.5543  0.3410 -0.0866
21791SOL     OW71209   3.506   5.001   6.367  0.5601 -0.2964  0.1172
21791SOL    HW171210   3.438   4.942   6.337 -1.1331  1.6275 -0.0372
21791SOL    HW271211   3.570   5.002   6.296  0.3522 -1.4944 -0.1037
21792SOL     OW71212   8.731   1.198   7.425 -0.1452 -0.4336 -0.2221
21792SOL    HW171213   8.822   1.222   7.445 -0.5434  0.7445  0.2112
21792SOL    HW271214   8.725   1.204   7.330  0.0297  0.2354 -0.1954
21793SOL     OW71215   2.605   2.738   3.181 -0.1833  0.4686  0.0471
21793SOL    HW171216   2.643   2.776   3.261 -0.9039  1.1712  0.0633
21793SOL    HW271217   2.521   2.783   3.171 -1.7633 -2.0674  0.8482
21794SOL     OW71218   8.748   2.071   4.855  0.0227 -0.5152 -0.1677
21794SOL    HW171219   8.811   2.065   4.927 -1.8012  1.1874  1.6661
21794SOL    HW271220   8.727   2.164   4.849 -1.1062 -0.8433 -1.8351
21795SOL     OW71221   8.355   9.129   7.441 -0.1864 -0.1425 -0.1319
21795SOL    HW171222   8.323   9.178   7.518 -1.8938  0.5077 -1.2021
21795SOL    HW271223   8.339   9.188   7.367  0.1404 -1.3033 -1.1546
21796SOL     OW71224   2.115   5.438  10.063  0.2674 -0.8714  0.4484
21796SOL    HW171225   2.148   5.421   9.975  0.0078 -0.4074  0.2613
21796SOL    HW271226   2.135   5.530  10.079 -0.8881 -0.5896  0.3427
21797SOL     OW71227   4.779   1.673  12.046 -0.0089 -0.1108 -0.1292
21797SOL    HW171228   4.730   1.591  12.041  0.4152 -0.3078 -1.2373
21797SOL    HW271229   4.739   1.730  11.980  1.5335 -0.4430 -1.3991
21798SOL     OW71230   0.693   2.323   3.692 -0.2225  0.4641  0.3938
21798SOL    HW171231   0.780   2.289   3.672 -0.0428  0.0908  1.7030
21798SOL    HW271232   0.632   2.260   3.654  0.1026 -1.1896  2.4331
21799SOL     OW71233   4.688  12.069   2.229 -0.1418 -0.5128  0.0778
21799SOL    HW171234   4.701  12.131   2.158 -0.0323 -0.2006  0.3712
21799SOL    HW271235   4.603  12.029   2.211 -0.7212  0.5108  0.4830
21800SOL     OW71236   5.388   9.447   8.978  0.0091  0.3076 -1.0347
21800SOL    HW171237   5.413   9.385   8.911 -0.3550  0.9190 -1.7465
21800SOL    HW271238   5.308   9.488   8.946 -1.4068 -0.8921  0.7391
21801SOL     OW71239  11.822   9.681   0.726 -0.4329  0.2134  0.0357
21801SOL    HW171240  11.807   9.591   0.697  0.5224  0.6998 -2.0866
21801SOL    HW271241  11.820   9.733   0.646  1.2659  1.7868  0.9419
21802SOL     OW71242   8.214  12.116   3.729  0.4949  0.2378  0.1311
21802SOL    HW171243   8.131  12.106   3.684 -0.3402 -0.1775  1.6953
21802SOL    HW271244   8.264  12.037   3.707 -0.7021 -0.9520  1.5002
21803SOL     OW71245   5.329   7.135   0.179 -0.3874 -0.1650 -0.8150
21803SOL    HW171246   5.387   7.206   0.206  0.0749 -0.8350 -0.0192
21803SOL    HW271247   5.247   7.153   0.225 -1.3163  1.5361 -2.9779
21804SOL     OW71248   4.332  12.051  12.125 -0.0436  0.0075 -0.0664
21804SOL    HW171249   4.412  12.074  12.077  1.9268 -0.8821  2.5613
21804SOL    HW271250   4.307  12.131  12.171  1.0343 -0.3985  1.2960
21805SOL     OW71251   8.101   8.206   9.351 -0.4170 -0.4053  0.4316
21805SOL    HW171252   8.012   8.199   9.316  0.4998  1.9036 -2.7915
21805SOL    HW271253   8.122   8.299   9.346  2.0444 -0.8181  1.5525
21806SOL     OW71254   0.184  10.728  12.297  0.5156 -0.3117  0.0497
21806SOL    HW171255   0.128  10.692  12.365 -0.2962 -0.9436 -0.9266
21806SOL    HW271256   0.141  10.809  12.270  1.0059  0.1067  0.4921
21807SOL     OW71257  11.326   2.400  10.975  0.1938 -0.0225  0.7461
21807SOL    HW171258  11.333   2.494  10.990 -0.2448 -0.0080  0.8640
21807SOL    HW271259  11.395   2.361  11.030  0.6360  0.2557  0.3928
21808SOL     OW71260   8.588   0.111   2.612 -0.1240  0.3124 -0.6727
21808SOL    HW171261   8.670   0.139   2.572  0.7582 -0.7294  0.3197
21808SOL    HW271262   8.556   0.041   2.556 -0.2463  0.6100 -0.9731
21809SOL     OW71263   9.314   0.784  10.958 -0.2585 -0.3449 -0.1062
21809SOL    HW171264   9.397   0.738  10.965  0.2289  0.5669  0.2377
21809SOL    HW271265   9.280   0.760  10.872  0.2213 -0.9349 -0.1407
21810SOL     OW71266   2.300  11.399   2.310  0.2929 -0.2300  0.2838
21810SOL    HW171267   2.349  11.480   2.323 -1.3244  0.8208  0.0812
21810SOL    HW271268   2.223  11.426   2.259 -0.5874 -1.7879  0.7461
21811SOL     OW71269  10.597   0.410   0.118 -0.4140 -0.3355 -0.1990
21811SOL    HW171270  10.515   0.435   0.075  0.0430  0.5388 -0.5732
21811SOL    HW271271  10.657   0.482   0.100 -0.4529  0.5496  2.6371
21812SOL     OW71272   1.595  12.039   0.226  0.0855 -0.3179  0.0498
21812SOL    HW171273   1.648  12.119   0.226 -0.9408  0.4517  2.2050
21812SOL    HW271274   1.657  11.968   0.239  0.8399  0.2933 -0.1551
21813SOL     OW71275  12.106  11.931   7.816 -0.4831  0.3269  0.2769
21813SOL    HW171276  12.014  11.917   7.838 -0.7884  0.8331 -0.6291
21813SOL    HW271277  12.104  11.982   7.736  0.5936 -0.3272 -0.1910
21814SOL     OW71278   2.171   9.583   1.952  0.1513  0.1705 -0.1842
21814SOL    HW171279   2.203   9.670   1.977  2.4900 -0.5686 -0.3397
21814SOL    HW271280   2.143   9.543   2.034  0.6702  0.4805  0.1529
21815SOL     OW71281   4.305  11.922   4.138 -0.5881 -0.3272 -0.2975
21815SOL    HW171282   4.222  11.970   4.137 -0.1223  0.5012 -0.1554
21815SOL    HW271283   4.302  11.873   4.220 -0.7616  0.0376 -0.0775
21816SOL     OW71284   1.508  11.223   0.075  0.0898  0.0625  0.7422
21816SOL    HW171285   1.552  11.140   0.095  1.2851  0.8396  1.4991
21816SOL    HW271286   1.501  11.266   0.160  1.9141  1.8682  0.0604
21817SOL     OW71287   2.884   8.584   5.327  0.0957  0.2561  0.0102
21817SOL    HW171288   2.800   8.550   5.298  0.5034 -0.2278 -0.6474
21817SOL    HW271289   2.944   8.510   5.317  0.2850  0.0766  2.0584
21818SOL     OW71290  10.560   6.315   5.883 -0.2886 -0.9078 -0.2675
21818SOL    HW171291  10.567   6.321   5.788 -1.5420 -0.0798 -0.3433
21818SOL    HW271292  10.634   6.261   5.910  0.9120  0.0241 -1.5710
21819SOL     OW71293   2.651   6.873   4.702 -0.4931  0.6732  0.0184
21819SOL    HW171294   2.599   6.928   4.643  0.4670  0.7328 -0.7969
21819SOL    HW271295   2.682   6.801   4.646  1.8100  1.6049  0.0083
21820SOL     OW71296   8.316   7.506   8.456  0.1107 -0.2448 -0.3659
21820SOL    HW171297   8.247   7.553   8.503  1.3133 -1.2605  2.6261
21820SOL    HW271298   8.279   7.421   8.435 -0.0671 -0.1830 -0.2981
21821SOL     OW71299   2.655   4.256   4.419  0.3537 -0.0270  0.3225
21821SOL    HW171300   2.726   4.244   4.356  0.8428  1.1824  0.6253
21821SOL    HW271301   2.605   4.331   4.385 -0.0116 -0.0441  0.8096
21822SOL     OW71302   6.413   3.056   5.390 -0.0823  0.1632 -0.0993
21822SOL    HW171303   6.393   3.135   5.440  0.6531 -0.2271  0.8447
21822SOL    HW271304   6.505   3.065   5.366  0.1283 -0.5822  0.3793
21823SOL     OW71305  11.494   0.536   3.171  0.2997 -0.4523  0.0664
21823SOL    HW171306  11.510   0.449   3.136 -0.8635 -0.6846  0.0842
21823SOL    HW271307  11.497   0.593   3.094 -0.3232 -0.7052 -0.1544
21824SOL     OW71308   8.233  11.705   8.967 -0.0751  0.2273  0.3403
21824SOL    HW171309   8.318  11.662   8.977 -0.7333 -1.1903  0.1634
21824SOL    HW271310   8.169  11.636   8.985 -1.2024  0.7529 -1.3999
21825SOL     OW71311  11.322   1.081   9.513  0.1475 -0.3395  0.3621
21825SOL    HW171312  11.410   1.102   9.543 -0.0226  1.3073 -0.1730
21825SOL    HW271313  11.264   1.120   9.579 -0.1815  0.4088 -0.3477
21826SOL     OW71314   7.084   6.765   1.858 -0.0199 -0.0888 -0.0901
21826SOL    HW171315   7.162   6.819   1.847 -0.0324 -0.1809 -0.6404
21826SOL    HW271316   7.032   6.812   1.923  0.3420  0.1433  0.0369
21827SOL     OW71317   6.540  10.886   5.070 -0.2839 -0.2049  0.1633
21827SOL    HW171318   6.633  10.878   5.089  0.3943 -0.3000 -2.7036
21827SOL    HW271319   6.504  10.933   5.145  2.4709  1.8094  0.3779
21828SOL     OW71320   4.117   4.644   5.541 -0.4343 -0.2300 -0.3633
21828SOL    HW171321   4.068   4.582   5.486 -0.0577 -0.6048 -0.2727
21828SOL    HW271322   4.107   4.728   5.495 -1.2651 -0.2731 -0.2836
21829SOL     OW71323  11.604   9.177   3.799  0.1263  0.4371 -0.1931
21829SOL    HW171324  11.598   9.226   3.717  2.8022  0.3986 -0.4961
21829SOL    HW271325  11.652   9.234   3.858  1.7335 -1.0427  0.0266
21830SOL     OW71326   6.154   8.915   6.867  0.4127 -0.5901  0.1783
21830SOL    HW171327   6.241   8.895   6.901  1.3710 -1.4102 -2.5328
21830SOL    HW271328   6.165   8.996   6.818 -0.0939 -1.1680 -0.9366
21831SOL     OW71329   9.809   4.715   7.708  0.4695 -0.1824  0.0343
21831SOL    HW171330   9.879   4.773   7.737 -1.4814  2.1288  0.4990
21831SOL    HW271331   9.749   4.710   7.782 -0.7527 -0.5809 -0.9401
21832SOL     OW71332   6.075   9.774   2.378  0.2746  0.3381  0.5013
21832SOL    HW171333   6.128   9.854   2.378  0.4735  0.2127  0.1877
21832SOL    HW271334   5.989   9.802   2.346  0.4779  0.3501 -0.0573
21833SOL     OW71335  10.960  12.034   0.639 -0.1052 -0.0448 -0.3198
21833SOL    HW171336  11.027  12.087   0.597  0.0883  0.3302  0.4314
21833SOL    HW271337  10.951  12.072   0.727 -1.5530  0.1457 -0.5188
21834SOL     OW71338  11.148   0.211   1.831 -0.0098  0.4464  0.4453
21834SOL    HW171339  11.179   0.285   1.779  1.3613  0.2026  0.8859
21834SOL    HW271340  11.225   0.178   1.876 -0.8425 -0.4387  1.2931
21835SOL     OW71341   6.574   9.491   3.405  0.0346  0.6799 -0.0067
21835SOL    HW171342   6.492   9.443   3.416 -0.2012  1.2067  0.5974
21835SOL    HW271343   6.580   9.546   3.483  1.9904 -0.8743  1.0379
21836SOL     OW71344   4.668   1.877  11.549  0.1154 -0.0258  0.7606
21836SOL    HW171345   4.732   1.946  11.567 -0.6022  0.6606  0.7531
21836SOL    HW271346   4.701   1.833  11.471 -0.0699  1.1253  0.0241
21837SOL     OW71347   2.461   9.595   1.398 -0.2148  0.2801  0.2398
21837SOL    HW171348   2.544   9.625   1.435 -0.1302  0.7527 -0.3285
21837SOL    HW271349   2.454   9.639   1.313 -0.0665 -1.3251 -0.6405
21838SOL     OW71350   0.477   7.427   3.519  0.2080  0.1155  0.6097
21838SOL    HW171351   0.451   7.482   3.445 -0.8788 -1.2652 -0.0991
21838SOL    HW271352   0.453   7.478   3.597 -2.0252  0.1530 -0.0293
21839SOL     OW71353   9.533  11.393   0.422  0.4692 -0.6738 -0.1097
21839SOL    HW171354   9.593  11.391   0.496  0.7201 -0.0731 -0.2888
21839SOL    HW271355   9.475  11.467   0.440  2.0917  1.0957 -1.6742
21840SOL     OW71356   0.408   2.809   7.212  0.0020  0.0338  0.8662
21840SOL    HW171357   0.499   2.818   7.241  0.3559  0.0390 -0.1933
21840SOL    HW271358   0.361   2.777   7.289  1.3187 -2.1123  0.8703
21841SOL     OW71359   8.821  10.979   7.393  0.3487 -0.8295  0.2851
21841SOL    HW171360   8.749  11.015   7.341 -0.0202 -1.0797  0.6199
21841SOL    HW271361   8.872  10.927   7.331 -1.0064 -2.4890  0.4893
21842SOL     OW71362   7.781   9.000  10.284 -0.0774  0.2468 -0.0237
21842SOL    HW171363   7.753   9.083  10.322  0.3981 -0.0359  0.9636
21842SOL    HW271364   7.832   8.958  10.353  0.9193 -0.2253 -1.0216
21843SOL     OW71365   0.285   1.849   5.315 -0.0677 -0.2717 -1.1820
21843SOL    HW171366   0.343   1.859   5.240 -0.0495  0.8783 -1.0345
21843SOL    HW271367   0.316   1.770   5.359  1.9064  0.7255 -0.6695
21844SOL     OW71368   2.398   9.479   6.348  0.3136  0.0132 -0.3342
21844SOL    HW171369   2.314   9.453   6.313  0.1379 -0.0619  0.1317
21844SOL    HW271370   2.413   9.419   6.422  0.6109  0.2522 -0.1974
21845SOL     OW71371   6.473   1.121  10.745 -0.3709  0.0112 -0.1782
21845SOL    HW171372   6.433   1.194  10.697  0.4576  0.7700  0.2580
21845SOL    HW271373   6.413   1.104  10.817  0.0636  1.1327  0.4680
21846SOL     OW71374   0.135  11.827  11.297 -0.3039  0.3428  0.4403
21846SOL    HW171375   0.159  11.857  11.385 -2.4216  2.6729  0.3487
21846SOL    HW271376   0.203  11.862  11.240  0.3831 -0.0714  0.9856
21847SOL     OW71377   3.433  11.221   0.128 -0.1242 -0.4079 -0.4479
21847SOL    HW171378   3.438  11.279   0.052 -0.6679 -0.1260 -0.2691
21847SOL    HW271379   3.383  11.145   0.097 -2.8833  0.9536  0.3867
21848SOL     OW71380   3.000   7.397   7.078 -0.5173  0.5755 -0.4668
21848SOL    HW171381   2.994   7.302   7.067 -0.4075  0.7487 -2.4835
21848SOL    HW271382   2.911   7.424   7.099 -0.6384  0.0795 -0.3271
21849SOL     OW71383   5.698   1.610   6.848  0.0883  0.0077 -0.7046
21849SOL    HW171384   5.707   1.526   6.894 -2.0044  1.8419  3.6933
21849SOL    HW271385   5.605   1.614   6.826  0.4167  0.6922 -2.0131
21850SOL     OW71386   6.271  11.236   4.108  0.4199  0.2898 -0.6384
21850SOL    HW171387   6.233  11.250   4.195  0.4772 -0.4641 -0.4908
21850SOL    HW271388   6.201  11.264   4.047  0.3845  0.8268 -0.3618
21851SOL     OW71389   3.141   0.164   5.363  0.0172 -0.0285 -0.0885
21851SOL    HW171390   3.064   0.123   5.402  0.1048 -0.2405 -0.1358
21851SOL    HW271391   3.111   0.195   5.277  0.2147 -0.9204 -0.4896
21852SOL     OW71392  10.162   3.702   4.795 -0.5375  0.1689 -0.3631
21852SOL    HW171393  10.095   3.768   4.781 -0.6914 -0.3298 -2.2638
21852SOL    HW271394  10.163   3.688   4.890 -2.0824  1.2291 -0.1583
21853SOL     OW71395   4.591  11.108   4.370  0.2821 -0.0450  0.7345
21853SOL    HW171396   4.596  11.201   4.349 -2.9739  0.5371  1.9067
21853SOL    HW271397   4.548  11.069   4.295 -0.4231 -0.1514  1.1824
21854SOL     OW71398   4.948   4.900   8.592  0.1470 -0.2400 -0.1535
21854SOL    HW171399   5.032   4.872   8.628  0.7256  1.5605 -0.0240
21854SOL    HW271400   4.970   4.955   8.518 -0.9314  0.0227 -0.3029
21855SOL     OW71401   7.195   1.468   3.387 -0.3075 -0.3748  0.1790
21855SOL    HW171402   7.199   1.446   3.480  0.2858 -0.5032  0.1293
21855SOL    HW271403   7.164   1.559   3.385 -1.1706 -0.6552  0.4546
21856SOL     OW71404   7.513   8.109   2.482  0.4469  0.0679  0.9875
21856SOL    HW171405   7.538   8.107   2.390 -1.6801  1.1319  0.3197
21856SOL    HW271406   7.562   8.183   2.519 -2.3281  2.9738 -0.6011
21857SOL     OW71407   6.986   3.522   3.806 -0.1004  0.4254  0.7074
21857SOL    HW171408   6.977   3.437   3.763  3.0600 -0.4088  1.4775
21857SOL    HW271409   6.970   3.585   3.736 -2.0423 -0.7265  0.0105
21858SOL     OW71410   7.042   9.854   6.327  0.4660 -0.0076  0.3025
21858SOL    HW171411   7.084   9.937   6.302 -1.6161  0.8626 -0.5160
21858SOL    HW271412   7.070   9.839   6.417  1.6667  1.0672  0.1330
21859SOL     OW71413   5.113   6.797   7.442 -0.5613 -0.3455 -0.3157
21859SOL    HW171414   5.197   6.757   7.460 -0.3005  0.0329 -0.6696
21859SOL    HW271415   5.096   6.853   7.518 -0.1204  0.1782 -0.5954
21860SOL     OW71416   0.317   6.718   9.859 -0.5880  0.1613  0.5522
21860SOL    HW171417   0.319   6.676   9.773 -5.2274  0.1425  0.1768
21860SOL    HW271418   0.304   6.646   9.921 -2.9939  0.4868  0.5161
21861SOL     OW71419   3.030   8.699   6.611  0.2724 -0.5854 -0.6460
21861SOL    HW171420   2.977   8.762   6.562 -0.4061 -1.5375 -1.1750
21861SOL    HW271421   3.006   8.713   6.702 -0.2265 -0.4004 -0.8045
21862SOL     OW71422   4.696  11.849   9.650 -0.0907  0.4671 -0.4239
21862SOL    HW171423   4.734  11.887   9.729  0.7828  0.6485 -0.9155
21862SOL    HW271424   4.624  11.908   9.627  1.3968  2.0430 -1.3223
21863SOL     OW71425   5.758   1.002   2.896 -0.7365  0.2561  0.0472
21863SOL    HW171426   5.725   1.041   2.977  1.0346  0.2876  0.8049
21863SOL    HW271427   5.843   1.045   2.882 -1.1389  0.4921 -2.0149
21864SOL     OW71428  10.777   9.094   0.446 -0.1991 -0.0808 -0.2617
21864SOL    HW171429  10.787   9.099   0.351  1.7724  1.0399 -0.0654
21864SOL    HW271430  10.751   9.182   0.473  2.6891  0.6778  0.4648
21865SOL     OW71431   7.798   2.987   9.973  0.4057  0.4045  0.2786
21865SOL    HW171432   7.893   3.002   9.979  0.2555  0.9714  1.3250
21865SOL    HW271433   7.759   3.053  10.030 -0.6108 -0.0453  0.1280
21866SOL     OW71434   2.987   5.752   5.846  0.5528 -0.4484  0.0653
21866SOL    HW171435   2.940   5.674   5.816 -0.8213  0.6505 -0.7881
21866SOL    HW271436   2.962   5.820   5.784 -0.4402  1.3480  2.2975
21867SOL     OW71437   8.745   1.362  12.032  0.2823 -0.5526 -0.2002
21867SOL    HW171438   8.680   1.319  12.088 -0.0041  0.0330 -0.0804
21867SOL    HW271439   8.701   1.372  11.947  0.6787 -1.3420 -0.5097
21868SOL     OW71440  11.317  11.624   8.363 -0.5921  0.2484 -0.1866
21868SOL    HW171441  11.257  11.585   8.427 -0.6145  1.8740  0.8540
21868SOL    HW271442  11.399  11.576   8.374 -0.4484  0.8111  1.4551
21869SOL     OW71443   8.094   9.983   6.928  0.2432 -0.0200  0.0915
21869SOL    HW171444   8.162   9.998   6.863 -0.2779  1.3389 -0.1737
21869SOL    HW271445   8.142   9.977   7.011  0.6418  1.9659  0.0486
21870SOL     OW71446   5.077   4.983   8.344  1.2097  0.6737 -0.0559
21870SOL    HW171447   5.166   5.016   8.333  0.9213  1.6192  0.3151
21870SOL    HW271448   5.030   5.015   8.266  0.8544  1.4295  0.4519
21871SOL     OW71449   7.140  10.585   6.840 -0.0284 -0.0798 -0.0633
21871SOL    HW171450   7.139  10.534   6.921  0.4098  1.0760  0.6906
21871SOL    HW271451   7.066  10.550   6.789 -1.7042  0.6302  1.7554
21872SOL     OW71452   4.918  11.098   3.016  0.3641  0.2498  0.0629
21872SOL    HW171453   4.847  11.143   2.971  1.7918  0.5764 -2.0257
21872SOL    HW271454   4.876  11.050   3.088 -2.1240 -0.7258 -1.9203
21873SOL     OW71455   8.448   6.695   1.623  0.2006  0.4060  1.0031
21873SOL    HW171456   8.420   6.727   1.537 -0.8354  0.8467  1.4920
21873SOL    HW271457   8.369   6.656   1.660  1.2288 -2.1415  0.7254
21874SOL     OW71458   4.891   9.695   6.287 -0.6100 -0.8009 -0.2223
21874SOL    HW171459   4.923   9.763   6.347 -0.0240 -0.9933 -0.3025
21874SOL    HW271460   4.797   9.711   6.279 -0.1262  1.5930 -2.2408
21875SOL     OW71461   7.267   4.365   5.769  0.0356  0.1145 -0.5419
21875SOL    HW171462   7.178   4.392   5.794  0.3623  0.3333  0.4246
21875SOL    HW271463   7.324   4.411   5.830  0.7705 -0.6510 -0.6293
21876SOL     OW71464   7.548   4.614   2.416  0.4744 -0.3922  0.4878
21876SOL    HW171465   7.482   4.549   2.389  0.2409  0.2254 -0.4492
21876SOL    HW271466   7.497   4.689   2.445  0.7552  0.3259 -0.8264
21877SOL     OW71467   2.015   3.607   0.045  0.3611  0.0231  0.0521
21877SOL    HW171468   2.027   3.693   0.007 -0.7590  0.8285  1.3950
21877SOL    HW271469   2.102   3.568   0.048  0.7884  0.8743 -1.1001
21878SOL     OW71470   1.541   4.199   7.536  0.2924  0.2400 -0.2394
21878SOL    HW171471   1.455   4.194   7.495 -1.3607 -3.6687  2.9550
21878SOL    HW271472   1.602   4.169   7.469 -1.7729 -2.7229 -0.9810
21879SOL     OW71473   4.335   2.151   6.113 -0.5814  0.2856  0.1352
21879SOL    HW171474   4.289   2.131   6.031 -0.6503  2.4414 -0.4078
21879SOL    HW271475   4.417   2.103   6.107 -1.4011 -1.1209 -0.2965
21880SOL     OW71476   1.499   7.048  11.304 -0.3748  0.0311 -0.2208
21880SOL    HW171477   1.538   7.042  11.391 -0.5617  0.1703 -0.1259
21880SOL    HW271478   1.490   7.142  11.289  2.5507  0.1931 -1.6976
21881SOL     OW71479   3.366   2.929   1.460  0.0636  0.2574  0.2225
21881SOL    HW171480   3.423   2.955   1.388  1.0173 -1.0295  0.4686
21881SOL    HW271481   3.311   3.006   1.477 -0.2086  0.5698 -1.8691
21882SOL     OW71482   2.934   2.586   4.696 -0.2158 -0.6622  0.7293
21882SOL    HW171483   2.916   2.670   4.738 -0.0855 -0.0870 -0.3269
21882SOL    HW271484   2.950   2.608   4.604  0.6961 -1.7493  0.6113
21883SOL     OW71485   4.617   8.516   8.519 -0.1083 -0.3359  0.1509
21883SOL    HW171486   4.524   8.537   8.528 -0.0421 -0.0522  0.1756
21883SOL    HW271487   4.661   8.578   8.576  0.0359 -1.0700  0.8572
21884SOL     OW71488   4.035   4.317   9.728 -0.0031 -0.2612  0.9112
21884SOL    HW171489   3.944   4.317   9.756 -0.3819 -0.0361 -0.2549
21884SOL    HW271490   4.037   4.262   9.650  0.9416 -0.5959  1.1494
21885SOL     OW71491   2.045  10.459   3.022  0.0384 -0.0401  0.8610
21885SOL    HW171492   1.991  10.486   3.096  0.5045 -1.0723  1.6119
21885SOL    HW271493   1.986  10.406   2.968 -0.2561  0.5711  0.5770
21886SOL     OW71494   4.341   0.654  10.367  0.2435  0.0028  0.2667
21886SOL    HW171495   4.302   0.682  10.450 -1.5900 -1.1470 -0.1690
21886SOL    HW271496   4.267   0.638  10.309  1.3759 -1.5937 -0.8303
21887SOL     OW71497  12.317   5.355  10.765  0.0075  0.3242  0.4364
21887SOL    HW171498  12.365   5.284  10.808 -1.0044 -0.3745  0.4442
21887SOL    HW271499  12.225   5.331  10.775 -0.2918  0.4085 -1.6843
21888SOL     OW71500   4.021   6.671   7.005 -0.0779 -0.1986 -0.3871
21888SOL    HW171501   4.005   6.680   6.911  0.6646  1.7266 -0.3907
21888SOL    HW271502   3.934   6.668   7.044 -0.5122  2.7008 -0.9150
21889SOL     OW71503   3.827   1.731   3.923  0.0960 -0.3459 -0.1247
21889SOL    HW171504   3.891   1.802   3.920 -0.8870  1.0258  4.0597
21889SOL    HW271505   3.865   1.666   3.982 -1.8222  0.0507  1.6876
21890SOL     OW71506   1.822  11.287  11.642  0.6673  0.0402  0.5501
21890SOL    HW171507   1.790  11.199  11.625 -0.6686  0.4643  0.7399
21890SOL    HW271508   1.878  11.307  11.566 -1.1115 -0.0090 -0.8486
21891SOL     OW71509   7.776  12.078  11.652 -0.3151  0.1868  0.3036
21891SOL    HW171510   7.854  12.026  11.632 -0.7943 -0.3567 -0.2137
21891SOL    HW271511   7.703  12.022  11.624 -0.8245  1.3413 -0.7147
21892SOL     OW71512  10.525   0.972   9.587 -0.0230  0.1549  0.0425
21892SOL    HW171513  10.534   1.067   9.593 -1.6543  0.3588 -0.2298
21892SOL    HW271514  10.575   0.948   9.510 -1.1666  1.0768 -1.0334
21893SOL     OW71515   0.051  11.304   0.379 -0.2501 -0.3353 -0.2718
21893SOL    HW171516  -0.041  11.322   0.363 -0.1679 -0.6737 -1.1350
21893SOL    HW271517   0.068  11.345   0.464 -0.5993  1.8434 -1.1831
21894SOL     OW71518   6.143   5.135  10.482  0.2714  0.3565 -0.8452
21894SOL    HW171519   6.136   5.221  10.523 -0.6063 -0.5318  0.9730
21894SOL    HW271520   6.158   5.154  10.389 -0.1442  2.4574 -0.5277
21895SOL     OW71521   4.054   2.578   7.567  0.1547 -0.0194  0.1103
21895SOL    HW171522   3.978   2.561   7.622  1.3350 -0.4458  1.6902
21895SOL    HW271523   4.042   2.520   7.491 -1.7614  0.9664 -0.3905
21896SOL     OW71524   1.547   8.970   2.863 -0.7172  0.5095  0.1852
21896SOL    HW171525   1.613   9.032   2.834 -0.3856  0.5008  0.9129
21896SOL    HW271526   1.471   8.987   2.806  0.1121  0.0766 -1.0915
21897SOL     OW71527   6.188   5.179  11.765 -0.5419 -0.0549 -0.5933
21897SOL    HW171528   6.277   5.204  11.789  0.7506 -0.9996 -3.8107
21897SOL    HW271529   6.133   5.252  11.795  1.6205  1.6441 -0.5266
21898SOL     OW71530   3.996   4.380   6.448 -0.4921 -0.7039 -0.6978
21898SOL    HW171531   3.969   4.468   6.474  0.4909 -0.2270 -1.2413
21898SOL    HW271532   4.030   4.391   6.359 -0.3571 -1.6355 -0.7674
21899SOL     OW71533   7.875   4.411  10.288 -0.1337 -0.4152  0.8923
21899SOL    HW171534   7.869   4.395  10.382 -0.2686 -1.6189  0.6979
21899SOL    HW271535   7.787   4.439  10.263 -0.0598  0.0464  1.1454
21900SOL     OW71536   1.293   8.633   1.379 -0.2832 -0.0368  0.3216
21900SOL    HW171537   1.203   8.661   1.396 -0.7915  0.2797 -2.4360
21900SOL    HW271538   1.347   8.701   1.418 -1.2413  0.1519  1.3712
21901SOL     OW71539   5.013   0.890  11.673 -0.0693  0.5725  0.1400
21901SOL    HW171540   4.959   0.851  11.603  0.6152  1.3147 -0.8363
21901SOL    HW271541   5.095   0.841  11.669  0.0678  0.7927  0.2420
21902SOL     OW71542   7.357   3.922   1.752 -0.0461 -0.0570 -0.3199
21902SOL    HW171543   7.281   3.883   1.709  0.6310 -1.3964 -0.3599
21902SOL    HW271544   7.369   4.007   1.708 -1.3944  0.0928 -0.4276
21903SOL     OW71545  12.097   4.449  12.255 -0.2042  0.0073  0.5432
21903SOL    HW171546  12.185   4.462  12.220 -1.0536  0.4007 -1.5824
21903SOL    HW271547  12.093   4.356  12.277  0.6383 -0.0708  0.3918
21904SOL     OW71548   0.398   7.710   3.550 -0.5664 -0.1454  0.3954
21904SOL    HW171549   0.488   7.737   3.532  0.5695 -3.8529 -0.3391
21904SOL    HW271550   0.344   7.767   3.494  1.0409  3.2685  2.0440
21905SOL     OW71551   4.060   6.977   2.680  0.4966  0.0357  0.0746
21905SOL    HW171552   4.050   6.912   2.610 -0.9113  2.2482 -1.9640
21905SOL    HW271553   3.981   7.030   2.675  1.5377  1.8870  1.6545
21906SOL     OW71554   5.196   3.343   2.837 -0.2742 -0.0162 -0.0074
21906SOL    HW171555   5.260   3.310   2.774 -0.9611  1.7761 -1.7352
21906SOL    HW271556   5.244   3.409   2.887 -0.4760  0.5844 -0.5971
21907SOL     OW71557   8.674   1.556   9.668  0.0471 -0.1291  0.4434
21907SOL    HW171558   8.649   1.577   9.758 -0.4071 -0.0856  0.3055
21907SOL    HW271559   8.768   1.578   9.664 -0.1969  1.0210  0.5612
21908SOL     OW71560  12.035   4.763   3.851  0.4180 -0.0038  0.3005
21908SOL    HW171561  11.996   4.742   3.936  0.2115  0.0737  0.2270
21908SOL    HW271562  12.012   4.689   3.795  0.3363  0.0623  0.2452
21909SOL     OW71563  11.900  10.797   2.225  0.4387 -0.0389  0.5450
21909SOL    HW171564  11.909  10.710   2.263 -2.0208 -0.7632 -0.3285
21909SOL    HW271565  11.975  10.806   2.166 -0.2720 -2.4179 -0.8343
21910SOL     OW71566   1.346   4.815   1.390 -0.2892 -0.2086 -0.3810
21910SOL    HW171567   1.379   4.902   1.370 -0.5817 -0.4931 -2.1950
21910SOL    HW271568   1.255   4.828   1.416 -0.5738 -0.0375 -1.4349
21911SOL     OW71569   2.907   4.589   3.105 -0.0861  0.3920 -0.2861
21911SOL    HW171570   2.826   4.552   3.071  0.3214 -2.8450  1.8389
21911SOL    HW271571   2.933   4.530   3.176  2.5732  2.9741  1.1306
21912SOL     OW71572   5.912   9.042  11.484  0.0533 -0.3394 -0.2080
21912SOL    HW171573   5.988   9.000  11.524  1.9469  3.1172  0.2237
21912SOL    HW271574   5.848   9.049  11.556  0.1828 -1.3357  0.0140
21913SOL     OW71575   9.651   7.441   1.557 -0.0223  0.1928 -0.6567
21913SOL    HW171576   9.620   7.440   1.467 -1.5753  0.2670 -0.1525
21913SOL    HW271577   9.688   7.528   1.569  0.2104  0.1749 -1.2219
21914SOL     OW71578   2.017   4.756  11.397  0.1223  0.1394  0.5864
21914SOL    HW171579   2.090   4.775  11.338  1.0976  0.9313  1.9631
21914SOL    HW271580   1.947   4.815  11.368  0.8295  1.0347  0.6392
21915SOL     OW71581   1.420   0.902   7.415 -0.5110  0.0171  0.9826
21915SOL    HW171582   1.364   0.826   7.402  0.5764 -0.4502 -1.5633
21915SOL    HW271583   1.372   0.974   7.374 -0.8715  0.4202  2.0802
21916SOL     OW71584  11.351   8.435   2.466  0.0443  0.0144  0.1369
21916SOL    HW171585  11.403   8.481   2.532  1.2867  2.0710 -2.1121
21916SOL    HW271586  11.415   8.384   2.416 -0.7962 -1.0767  0.1302
21917SOL     OW71587   5.193   7.056  11.635 -0.2463 -0.1370  0.2742
21917SOL    HW171588   5.210   7.086  11.546 -0.7630 -1.7088 -0.3941
21917SOL    HW271589   5.280   7.050  11.675  0.0031  0.4478 -0.1705
21918SOL     OW71590   4.415   7.994  10.622  0.5964  0.0615 -0.3326
21918SOL    HW171591   4.385   8.066  10.678  0.6222  0.0652 -0.3230
21918SOL    HW271592   4.504   8.019  10.596 -0.2902  1.2777 -2.4260
21919SOL     OW71593   4.059   8.042  10.655  0.5564  0.1829 -0.4522
21919SOL    HW171594   3.969   8.015  10.635  0.3709  0.6513 -0.2730
21919SOL    HW271595   4.058   8.137  10.644  0.4256  0.4924  1.7830
21920SOL     OW71596   1.258   5.085   9.125 -0.4602  0.2965 -0.2860
21920SOL    HW171597   1.188   5.125   9.072  0.0359  2.0258  0.3059
21920SOL    HW271598   1.312   5.159   9.153  0.8437 -0.8750  0.3982
21921SOL     OW71599   3.592   0.235  12.008 -0.0704  0.5378 -0.4336
21921SOL    HW171600   3.585   0.219  11.914 -1.3339  0.2189 -0.2994
21921SOL    HW271601   3.622   0.325  12.014 -1.3309  1.0402 -1.1587
21922SOL     OW71602  11.262   2.925  10.013 -0.3984 -0.2894  0.6302
21922SOL    HW171603  11.180   2.936  10.061 -0.7376 -2.5373  0.6901
21922SOL    HW271604  11.314   3.002  10.035 -2.0050  0.5700  1.5836
21923SOL     OW71605   2.438   2.380  11.301 -0.3809  0.4881 -0.3393
21923SOL    HW171606   2.439   2.461  11.352 -0.9681  1.1296 -1.3295
21923SOL    HW271607   2.374   2.395  11.232  0.6102 -0.2381 -1.4667
21924SOL     OW71608   7.566  11.859  11.391  0.3899  0.5228  0.2618
21924SOL    HW171609   7.605  11.774  11.369 -0.7833 -0.0974  0.4601
21924SOL    HW271610   7.535  11.848  11.481 -3.5199 -0.3766 -0.9839
21925SOL     OW71611   1.574   6.862   8.346 -0.3138 -0.6370  0.1010
21925SOL    HW171612   1.657   6.893   8.310 -1.3129  3.5230  0.8770
21925SOL    HW271613   1.512   6.872   8.273 -0.3729 -3.1443 -0.2874
21926SOL     OW71614   5.881   1.695  10.574 -0.4438 -0.2625 -0.1648
21926SOL    HW171615   5.915   1.768  10.522 -0.3878  0.3073  0.6360
21926SOL    HW271616   5.880   1.729  10.664  1.2413 -1.8049  0.5051
21927SOL     OW71617  10.678   7.212   2.665  0.0039  0.1625 -0.3167
21927SOL    HW171618  10.712   7.259   2.589 -1.5353  1.8401 -0.0387
21927SOL    HW271619  10.754   7.200   2.722  0.8828  0.2206 -1.4386
21928SOL     OW71620  10.946   2.680   7.263 -0.0596 -0.1946  0.1014
21928SOL    HW171621  10.986   2.594   7.250  0.9929  0.4042 -0.7636
21928SOL    HW271622  10.959   2.725   7.180 -0.2034  0.9545  0.6863
21929SOL     OW71623   5.457   0.013  10.937 -0.0762  1.0173  0.2705
21929SOL    HW171624   5.431  -0.027  11.020 -0.4362  1.7012  0.4932
21929SOL    HW271625   5.478   0.104  10.960  1.2494  0.8399 -0.1281
21930SOL     OW71626   8.309   2.581   3.886  0.2462  0.3264  0.1950
21930SOL    HW171627   8.275   2.670   3.879  0.9527  0.6547  0.8037
21930SOL    HW271628   8.348   2.577   3.973  2.2692  0.1591 -0.6736
21931SOL     OW71629   0.704   8.610   7.554  0.5580  0.1042 -0.2043
21931SOL    HW171630   0.726   8.641   7.643  0.2038  2.4862 -0.8776
21931SOL    HW271631   0.620   8.565   7.565  0.6994  0.0279  0.7184
21932SOL     OW71632   5.462   1.503  10.604 -0.1012 -0.0642  0.3407
21932SOL    HW171633   5.520   1.549  10.665 -0.5252  0.9591 -0.0022
21932SOL    HW271634   5.512   1.426  10.577  1.3972  1.1105 -0.4528
21933SOL     OW71635   5.217   0.190   0.960  0.1009  0.1790  0.5044
21933SOL    HW171636   5.242   0.274   0.920 -0.2573  0.0722  0.0429
21933SOL    HW271637   5.197   0.212   1.051  0.9629  0.4229  0.6457
21934SOL     OW71638   6.951  11.669   0.470 -0.2119 -0.0421  0.1102
21934SOL    HW171639   7.030  11.643   0.517 -0.2512 -0.0579  0.1669
21934SOL    HW271640   6.911  11.586   0.443 -0.6463 -0.0683  0.7950
21935SOL     OW71641   1.265  11.011   3.480 -0.3361  0.6467 -0.2107
21935SOL    HW171642   1.325  10.948   3.441  0.3981  1.5430 -0.5696
21935SOL    HW271643   1.189  11.011   3.422 -0.1563  0.4094 -0.4477
21936SOL     OW71644   3.341   8.814   7.874  0.0377 -0.6007  0.2986
21936SOL    HW171645   3.382   8.838   7.957 -0.9408  0.9676  0.3730
21936SOL    HW271646   3.312   8.724   7.887 -0.8940 -0.0937  2.0163
21937SOL     OW71647  10.294   6.364   5.852  0.5442  0.4033 -0.2842
21937SOL    HW171648  10.301   6.346   5.758 -0.9347 -1.1014 -0.1341
21937SOL    HW271649  10.383   6.352   5.885  0.5339 -2.2635 -0.9941
21938SOL     OW71650   5.212   7.502  11.539  0.1793 -0.0628  0.2904
21938SOL    HW171651   5.298   7.473  11.506  0.1921  0.9462 -0.5903
21938SOL    HW271652   5.153   7.430  11.517  0.0897  0.7309 -2.4342
21939SOL     OW71653   0.291   8.729  11.825 -0.0723 -0.1135 -0.0966
21939SOL    HW171654   0.309   8.820  11.847  0.2077 -0.2524  0.2521
21939SOL    HW271655   0.317   8.721  11.734 -1.6149  0.5706 -0.6295
21940SOL     OW71656   7.159  10.524   0.504 -0.3089 -0.4166  0.5164
21940SOL    HW171657   7.153  10.547   0.597 -2.3903  0.0392  0.3223
21940SOL    HW271658   7.146  10.607   0.458 -0.9533 -0.8884 -0.1731
21941SOL     OW71659   2.936   9.104   7.075  0.5621  0.0666 -0.1518
21941SOL    HW171660   2.911   9.168   7.009  0.6966 -0.9156 -1.1703
21941SOL    HW271661   3.012   9.144   7.119  0.7758  0.5085 -0.9074
21942SOL     OW71662   4.100   2.013   4.898 -0.3285  0.0727  0.1999
21942SOL    HW171663   4.091   1.976   4.985  0.9659 -0.6224  0.0565
21942SOL    HW271664   4.012   2.005   4.860  0.0671 -4.1648 -0.3104
21943SOL     OW71665  11.469   5.695   0.672  0.6585  0.7093  0.1467
21943SOL    HW171666  11.551   5.725   0.710  0.3306 -0.4264  1.8646
21943SOL    HW271667  11.452   5.611   0.714 -0.2832 -0.1601 -1.8117
21944SOL     OW71668   5.215   3.971  12.212 -0.2211  0.4331  0.0953
21944SOL    HW171669   5.139   3.919  12.236  1.1784 -1.4535  0.7399
21944SOL    HW271670   5.247   3.931  12.131 -1.5379  3.0957 -1.9208
21945SOL     OW71671  10.701   0.729   4.671  0.1984  0.1593  0.1281
21945SOL    HW171672  10.767   0.783   4.628 -1.0090  1.3290 -0.3125
21945SOL    HW271673  10.658   0.788   4.733 -2.1103  0.1880 -1.3704
21946SOL     OW71674  12.207   4.332  10.421 -0.1481 -0.1410 -0.5639
21946SOL    HW171675  12.278   4.357  10.480  0.0792  0.3875 -1.0555
21946SOL    HW271676  12.127   4.356  10.467  0.0322  0.3293 -0.4906
21947SOL     OW71677  10.178   8.328   0.119  0.4807  0.3707 -0.3995
21947SOL    HW171678  10.199   8.378   0.040  2.0161  2.3838  1.1791
21947SOL    HW271679  10.256   8.275   0.135  0.5881  0.7162  0.2725
21948SOL     OW71680   6.079  11.000  10.831  0.1179  0.4117  0.8957
21948SOL    HW171681   6.035  10.991  10.916 -1.2078 -1.0029  0.1078
21948SOL    HW271682   6.023  11.059  10.781  1.6024  2.3469  1.3890
21949SOL     OW71683   1.382   3.934   3.256  0.0323 -0.2736 -0.0175
21949SOL    HW171684   1.440   3.882   3.201 -0.9704  0.3312 -1.6939
21949SOL    HW271685   1.320   3.974   3.196 -1.0470  0.5151  1.5414
21950SOL     OW71686  10.753   7.345   4.765 -0.5366 -0.1831  0.4189
21950SOL    HW171687  10.670   7.359   4.719 -0.3367  2.0625  0.6488
21950SOL    HW271688  10.808   7.418   4.738  0.5730 -0.3654  2.0431
21951SOL     OW71689   8.012   4.929   2.853 -0.2378  0.2171  0.5582
21951SOL    HW171690   8.001   4.936   2.758 -0.4588 -0.8887  0.4933
21951SOL    HW271691   7.972   4.845   2.876  0.6385  0.0385  1.5078
21952SOL     OW71692  11.206   9.035   8.750 -0.0015 -0.3364  0.4841
21952SOL    HW171693  11.272   8.989   8.697 -0.3099 -0.7426  0.4537
21952SOL    HW271694  11.235   9.023   8.840 -0.6353 -1.4633  0.5436
21953SOL     OW71695   8.212   0.216   3.385  0.5528  0.3811 -0.4661
21953SOL    HW171696   8.272   0.289   3.377  1.0949  0.0237  0.2686
21953SOL    HW271697   8.264   0.139   3.362  0.1005  0.1692 -0.8141
21954SOL     OW71698   3.684   2.014   6.756 -0.5214  0.2439  0.7740
21954SOL    HW171699   3.691   2.083   6.690 -0.0437 -0.0735  0.4929
21954SOL    HW271700   3.634   1.945   6.713 -0.9309  0.3806  1.0289
21955SOL     OW71701   6.804  11.836  12.209  0.8710  0.3547  0.3340
21955SOL    HW171702   6.745  11.909  12.192  0.1696 -0.4381 -0.7583
21955SOL    HW271703   6.892  11.876  12.206  0.4469  1.4758  1.6566
21956SOL     OW71704   2.686   5.760   6.409 -0.0025  0.5054 -0.4903
21956SOL    HW171705   2.642   5.710   6.341 -2.5411 -0.2033  1.5056
21956SOL    HW271706   2.766   5.712   6.428 -0.9175 -1.1544 -0.7084
21957SOL     OW71707   8.387   9.515  12.121  0.7341 -0.2133  0.2293
21957SOL    HW171708   8.479   9.525  12.148  0.1278  0.8302  2.0688
21957SOL    HW271709   8.379   9.423  12.099  2.4106 -0.1738 -0.7115
21958SOL     OW71710   1.685   1.972  11.420 -0.3781  0.2574 -0.0572
21958SOL    HW171711   1.602   2.018  11.415 -0.5714 -0.0208  0.4793
21958SOL    HW271712   1.674   1.910  11.492 -0.8429 -2.0781 -2.0235
21959SOL     OW71713   6.019   0.927   1.235  0.4579 -0.4312  0.2487
21959SOL    HW171714   6.106   0.887   1.236  0.9200  0.5356  0.4706
21959SOL    HW271715   5.971   0.882   1.305  1.1929 -0.1173  0.9791
21960SOL     OW71716   1.509   4.659   0.106 -0.1208 -0.5323 -0.3528
21960SOL    HW171717   1.571   4.616   0.046  0.5228 -0.9276  0.5787
21960SOL    HW271718   1.556   4.664   0.189 -0.6556  0.8474 -0.1073
21961SOL     OW71719   5.708  10.258   0.534  0.1305  1.4914  0.0372
21961SOL    HW171720   5.751  10.192   0.588  2.1522  2.4479 -0.3178
21961SOL    HW271721   5.670  10.319   0.597  0.2419  1.2273  0.3625
21962SOL     OW71722   9.159   1.622   1.180 -0.6263 -0.3502  0.0260
21962SOL    HW171723   9.208   1.593   1.102 -0.5634 -0.6182  0.1622
21962SOL    HW271724   9.084   1.670   1.145 -0.9563 -1.0298 -0.2246
21963SOL     OW71725   7.239   4.831   5.667  0.1223  0.0375  0.3013
21963SOL    HW171726   7.251   4.766   5.598 -1.7046 -1.1143  0.9849
21963SOL    HW271727   7.205   4.908   5.621  0.3686 -0.1825 -0.2667
21964SOL     OW71728   9.042   3.191   5.104 -0.0776  0.4380  0.6532
21964SOL    HW171729   9.008   3.225   5.021  0.5249  0.2012  0.2964
21964SOL    HW271730   9.113   3.251   5.127  1.4542 -0.9028 -0.3396
21965SOL     OW71731   1.288   4.121   8.959  0.7493  0.5955  0.1483
21965SOL    HW171732   1.248   4.054   9.014 -0.0643  0.3618 -0.7023
21965SOL    HW271733   1.382   4.108   8.971  0.5925  0.0440  0.8760
21966SOL     OW71734  11.819   4.603   1.977  0.0348  0.5988  0.2165
21966SOL    HW171735  11.889   4.622   2.039  0.8340 -0.5231 -0.3100
21966SOL    HW271736  11.767   4.684   1.973  2.0857  1.9520 -0.4381
21967SOL     OW71737   7.913   4.513   2.808 -0.2654  0.0306 -0.5332
21967SOL    HW171738   7.884   4.600   2.834 -0.6336 -0.0397 -0.7006
21967SOL    HW271739   7.837   4.457   2.822  0.5994 -0.7245  1.7595
21968SOL     OW71740   1.997   4.383  10.174  0.2707 -0.1487 -0.2559
21968SOL    HW171741   2.078   4.433  10.172 -0.0118  0.3572  0.6658
21968SOL    HW271742   2.019   4.300  10.131  1.9572 -1.0544  2.1761
21969SOL     OW71743   5.439   0.140   7.155  0.6482 -0.5791 -0.3084
21969SOL    HW171744   5.393   0.222   7.134 -1.7641 -2.3675 -2.6448
21969SOL    HW271745   5.527   0.153   7.119  1.1426  1.7816  1.4703
21970SOL     OW71746   7.377   5.549   9.834  0.1337 -0.2259  0.2787
21970SOL    HW171747   7.472   5.540   9.823  0.2859  1.6025 -0.2998
21970SOL    HW271748   7.361   5.644   9.829 -1.7572 -0.5143  0.0377
21971SOL     OW71749   6.447   0.272   6.771 -0.5899 -0.0903 -0.3910
21971SOL    HW171750   6.517   0.276   6.705  0.7138 -1.2012  0.8542
21971SOL    HW271751   6.415   0.362   6.778  1.8891  0.8109  0.2123
21972SOL     OW71752   7.338   1.994   0.010  0.1031  0.2672 -0.2386
21972SOL    HW171753   7.251   2.035   0.011  0.1313  0.3536 -1.1910
21972SOL    HW271754   7.394   2.059  -0.033  0.4339 -0.2157 -0.5335
21973SOL     OW71755   6.087   5.125   7.880  0.2115 -0.2477 -0.2480
21973SOL    HW171756   6.050   5.144   7.794 -0.4453  1.0514  0.2778
21973SOL    HW271757   6.013   5.135   7.940  1.0959  1.0275  0.6890
21974SOL     OW71758  10.195   0.656   1.378  0.1146  0.2238  0.2885
21974SOL    HW171759  10.200   0.569   1.419 -0.2759  0.8652  1.7668
21974SOL    HW271760  10.102   0.679   1.382 -0.3926 -0.7050 -3.2705
21975SOL     OW71761   7.695   7.000   2.058 -0.3224  0.3214  0.2682
21975SOL    HW171762   7.610   6.965   2.085 -0.1729 -1.2360 -1.1398
21975SOL    HW271763   7.693   6.996   1.962  2.0842 -1.7265  0.2269
21976SOL     OW71764   2.388   8.193   1.584  0.4078  0.4943  0.3911
21976SOL    HW171765   2.317   8.257   1.585  0.6375  0.8109 -1.0436
21976SOL    HW271766   2.399   8.170   1.491  1.5534 -0.2386  0.6807
21977SOL     OW71767  10.543   5.576  11.849 -0.4117  0.0063  0.0883
21977SOL    HW171768  10.592   5.647  11.889 -0.0382  0.7785 -1.6622
21977SOL    HW271769  10.586   5.496  11.880 -0.4968  0.5408  1.6342
21978SOL     OW71770  10.890   9.225   0.825 -0.7155  0.2749  0.8421
21978SOL    HW171771  10.880   9.148   0.769  1.0063 -0.5236  1.5606
21978SOL    HW271772  10.819   9.283   0.798 -0.8324 -0.6887 -1.1427
21979SOL     OW71773   5.121   7.080   4.793  0.1920 -0.7128  0.3060
21979SOL    HW171774   5.125   7.069   4.888 -0.6461  1.4283  0.6394
21979SOL    HW271775   5.210   7.060   4.762  0.6682 -0.7004  1.6212
21980SOL     OW71776   1.344   9.359   9.396 -0.0496  0.0392  0.0291
21980SOL    HW171777   1.282   9.320   9.334  0.1523 -0.5965  0.2230
21980SOL    HW271778   1.360   9.447   9.362 -1.6619  0.5121  0.3909
21981SOL     OW71779   4.467   9.738  10.106 -0.2917 -0.1083 -0.2486
21981SOL    HW171780   4.487   9.647  10.127  2.4937  1.1800  3.5856
21981SOL    HW271781   4.389   9.758  10.158 -0.8231 -0.1827 -0.9881
21982SOL     OW71782   5.738   9.609   7.910 -0.0358  0.1607 -0.3721
21982SOL    HW171783   5.653   9.579   7.944 -0.5364  1.4374 -0.4288
21982SOL    HW271784   5.735   9.589   7.817 -0.9496  1.5777 -0.6841
21983SOL     OW71785   6.257   1.503   2.003 -0.0398 -0.4403 -0.0927
21983SOL    HW171786   6.213   1.419   2.012 -1.6824  0.3566 -0.4551
21983SOL    HW271787   6.291   1.503   1.913 -1.1806 -0.1968 -0.5332
21984SOL     OW71788   2.050   4.845   4.286 -0.4471  0.8426  0.2617
21984SOL    HW171789   2.041   4.830   4.380  1.5798  1.5428  0.6138
21984SOL    HW271790   2.139   4.879   4.275 -1.1805  2.3579 -1.7152
21985SOL     OW71791   3.907   3.465  11.913 -0.4235  0.0816 -0.3261
21985SOL    HW171792   3.855   3.389  11.942  0.4027 -0.2506  0.3229
21985SOL    HW271793   3.881   3.536  11.971 -0.8972  0.1893 -0.6665
21986SOL     OW71794   3.316   2.089   9.911  0.4702  0.0023  0.5103
21986SOL    HW171795   3.278   2.106   9.997  2.8273  0.9343  1.4375
21986SOL    HW271796   3.244   2.105   9.850 -0.7610  1.2212  2.1792
21987SOL     OW71797   0.188   6.508   1.887 -0.1605  0.4572 -0.6740
21987SOL    HW171798   0.245   6.540   1.818  0.2780  0.9349 -0.0961
21987SOL    HW271799   0.110   6.563   1.882  0.2298  1.0574 -0.2423
21988SOL     OW71800   6.141  11.388  11.426  0.2336 -0.0726  0.3615
21988SOL    HW171801   6.104  11.475  11.438  1.5225  0.5575 -0.1572
21988SOL    HW271802   6.234  11.397  11.444  0.3163 -1.4459  0.7680
21989SOL     OW71803   9.940  11.929  11.983  0.1026 -0.4810 -0.1262
21989SOL    HW171804   9.942  11.839  12.016  0.7116 -0.3158  0.3063
21989SOL    HW271805   9.847  11.951  11.979 -0.0106 -0.2055  2.3863
21990SOL     OW71806  11.668   8.337   3.968  0.4855  0.2356 -0.3458
21990SOL    HW171807  11.624   8.422   3.967 -0.3787 -0.1830  0.7937
21990SOL    HW271808  11.597   8.273   3.964  1.1195 -0.4518 -0.9818
21991SOL     OW71809   8.956   6.258   6.231 -0.0204 -0.4667 -0.3004
21991SOL    HW171810   8.881   6.210   6.266 -0.3558  0.9329  1.0347
21991SOL    HW271811   8.928   6.350   6.229  0.4288 -0.3037 -3.2102
21992SOL     OW71812   1.045   9.871   8.997  0.3189 -0.0462  0.1268
21992SOL    HW171813   1.027   9.825   9.079  1.6566  0.6037  0.8075
21992SOL    HW271814   0.961   9.870   8.951 -0.6839  0.2388  1.8350
21993SOL     OW71815   6.989   4.263   8.046  0.4503 -0.4413  0.2405
21993SOL    HW171816   7.055   4.312   7.996  0.2594  0.4268  0.8067
21993SOL    HW271817   6.982   4.179   8.001  0.3062  0.2950 -1.1555
21994SOL     OW71818   0.411   7.018  10.255 -0.1397  0.1561 -0.0297
21994SOL    HW171819   0.390   7.023  10.162  3.1320  1.9683 -0.8251
21994SOL    HW271820   0.378   7.100  10.292  1.2153  0.8418 -0.2897
21995SOL     OW71821   0.412   6.351   2.322  0.6409  0.9834  0.0447
21995SOL    HW171822   0.499   6.318   2.301  0.0631 -0.5169 -0.0955
21995SOL    HW271823   0.368   6.361   2.237  0.3364  0.7446  0.1712
21996SOL     OW71824  10.768   9.133   6.928  0.0211  0.4436 -0.2604
21996SOL    HW171825  10.675   9.125   6.951  0.2424  0.1817  0.6217
21996SOL    HW271826  10.769   9.159   6.836 -0.9288  0.8795 -0.1541
21997SOL     OW71827   3.443   3.422   2.999  0.6046  0.0154 -0.4822
21997SOL    HW171828   3.457   3.502   3.050 -1.6667 -0.6585  1.3763
21997SOL    HW271829   3.517   3.419   2.938  1.6304  2.6486  0.4887
21998SOL     OW71830   5.285   0.292  11.009  0.6399 -0.1501  0.4469
21998SOL    HW171831   5.301   0.248  11.092 -0.4009  1.0766  1.3314
21998SOL    HW271832   5.210   0.245  10.971  0.2808  0.0964  0.8361
21999SOL     OW71833   5.483   9.745   6.725 -0.0182 -0.0815  0.1788
21999SOL    HW171834   5.548   9.811   6.702 -1.4832  0.6908 -2.1311
21999SOL    HW271835   5.503   9.671   6.668 -2.0109  0.7721 -1.7857
22000SOL     OW71836  12.113   5.740   1.929  0.0566  0.2323 -0.2902
22000SOL    HW171837  12.204   5.720   1.906 -0.3477 -0.0436 -1.7331
22000SOL    HW271838  12.118   5.771   2.020  1.9539  2.8312 -1.1592
22001SOL     OW71839   7.488   9.121  11.971  0.2062 -0.0618  0.1848
22001SOL    HW171840   7.514   9.172  12.048 -1.5523 -0.9337  1.4375
22001SOL    HW271841   7.430   9.179  11.922 -0.7634 -0.3932  0.9239
22002SOL     OW71842   2.198  11.549  10.107  0.3352 -0.4676 -0.8967
22002SOL    HW171843   2.129  11.616  10.107  0.3843 -0.3885  0.5457
22002SOL    HW271844   2.235  11.554  10.019  1.0165  2.1111 -0.5488
22003SOL     OW71845   0.743   5.431   7.159  0.1639  0.1111  0.3455
22003SOL    HW171846   0.819   5.401   7.108 -0.6192 -1.2723 -0.0726
22003SOL    HW271847   0.726   5.519   7.126 -0.7002 -0.9399 -2.3552
22004SOL     OW71848   2.674   0.520   7.647 -0.4551 -0.7032  0.5993
22004SOL    HW171849   2.702   0.447   7.702  2.6258 -0.9020 -1.0225
22004SOL    HW271850   2.643   0.478   7.566 -1.5154 -0.2868  0.7773
22005SOL     OW71851   2.028   2.834   7.981 -0.6861 -0.2400 -0.2596
22005SOL    HW171852   2.012   2.917   7.937  2.0495  0.8047  0.5418
22005SOL    HW271853   1.986   2.844   8.066 -1.5003 -0.2302 -0.6510
22006SOL     OW71854   0.652   4.628  10.713 -0.6586 -0.2622 -0.2346
22006SOL    HW171855   0.663   4.723  10.717 -1.9719  0.0534 -2.2426
22006SOL    HW271856   0.737   4.592  10.738 -0.9862  1.2750  3.7465
22007SOL     OW71857   1.330   1.762  11.188 -0.1409  0.1263 -0.1833
22007SOL    HW171858   1.255   1.704  11.174  0.2379 -0.7571  1.1775
22007SOL    HW271859   1.341   1.764  11.283  1.4241  0.4075 -0.3394
22008SOL     OW71860   3.833   5.969  12.141  0.1964  0.4983 -0.2688
22008SOL    HW171861   3.902   5.935  12.197 -1.9519 -2.4668  0.8776
22008SOL    HW271862   3.808   6.052  12.181  1.6603  0.5902  0.5181
22009SOL     OW71863  11.171   4.862   6.924 -0.2521 -0.3394  0.0415
22009SOL    HW171864  11.114   4.916   6.869  1.1233 -0.2409 -1.3368
22009SOL    HW271865  11.257   4.902   6.918  0.4740 -1.7709  0.2653
22010SOL     OW71866   6.549   9.207   3.668 -0.9973 -0.0353 -0.3201
22010SOL    HW171867   6.597   9.244   3.594 -1.3752 -1.9009 -1.5889
22010SOL    HW271868   6.562   9.112   3.659 -3.3286 -0.4844  0.3950
22011SOL     OW71869  11.927   9.140  12.305 -0.2969 -0.1914  0.0632
22011SOL    HW171870  12.016   9.177  12.301  0.0934 -1.0033  0.9413
22011SOL    HW271871  11.871   9.216  12.317  0.2890  0.3203 -0.3475
22012SOL     OW71872   2.102   3.812   5.048 -0.1452 -0.0036 -0.0877
22012SOL    HW171873   2.111   3.756   5.125  0.6446  0.5096  0.2007
22012SOL    HW271874   2.180   3.867   5.049 -1.7762  2.4362  0.6991
22013SOL     OW71875   4.796   4.408   8.705  0.6745 -0.0345  0.6432
22013SOL    HW171876   4.822   4.320   8.731  0.1238 -0.4738 -0.2550
22013SOL    HW271877   4.871   4.442   8.656  0.9002  0.0221  1.0188
22014SOL     OW71878   8.069   9.019   9.125 -0.3949 -0.0864  0.0148
22014SOL    HW171879   8.092   8.973   9.044 -1.3053 -1.0168  0.2651
22014SOL    HW271880   7.993   9.073   9.102  0.4929  1.1151 -0.2039
22015SOL     OW71881   1.483   6.663   5.679  0.2333  0.0924 -0.7293
22015SOL    HW171882   1.501   6.588   5.737  0.4483 -0.4410 -1.4740
22015SOL    HW271883   1.408   6.707   5.720 -0.0245 -0.6475 -0.3829
22016SOL     OW71884  10.803   1.135   2.870  0.2370  0.4314  0.4155
22016SOL    HW171885  10.719   1.139   2.825  0.4423 -0.8479 -0.1513
22016SOL    HW271886  10.781   1.120   2.962 -0.1728  2.3957  0.6700
22017SOL     OW71887   6.978   6.039   4.570  0.0930 -0.0594  0.0508
22017SOL    HW171888   6.895   6.082   4.593  0.4992  0.3488  0.7836
22017SOL    HW271889   7.016   6.095   4.502 -0.0887 -0.0857 -0.0739
22018SOL     OW71890   4.084   3.201   2.952  0.0435 -0.1083  0.3118
22018SOL    HW171891   4.047   3.285   2.923 -0.6579 -0.9930 -1.5269
22018SOL    HW271892   4.040   3.183   3.035 -0.9627  0.6137 -0.0418
22019SOL     OW71893   5.324   3.092   3.301  0.2348 -0.2140  0.3738
22019SOL    HW171894   5.307   3.001   3.326  1.1786 -1.0558 -1.8168
22019SOL    HW271895   5.269   3.143   3.360  0.9339 -2.0907  2.7820
22020SOL     OW71896   3.802   7.071  10.977  0.7898 -0.1291  0.2938
22020SOL    HW171897   3.853   7.087  11.056 -0.6553  1.5394  0.9809
22020SOL    HW271898   3.751   6.992  10.997  0.2233  0.4360  1.1993
22021SOL     OW71899   9.673   5.773   3.465  0.2191 -0.2794  0.0586
22021SOL    HW171900   9.712   5.860   3.454  2.0885 -0.9819  0.7005
22021SOL    HW271901   9.579   5.787   3.453  0.5593  1.6659 -0.7248
22022SOL     OW71902   2.583   0.086  11.962  0.0623  0.2396 -0.3379
22022SOL    HW171903   2.582   0.039  12.045  0.5098 -1.5895 -1.3127
22022SOL    HW271904   2.496   0.124  11.954 -0.6447 -1.2453  0.0672
22023SOL     OW71905  10.103   9.157   6.495 -0.2948  0.0282 -0.4389
22023SOL    HW171906  10.090   9.241   6.540 -0.3685  1.0303 -2.2238
22023SOL    HW271907  10.197   9.154   6.477 -0.5061  0.4748 -1.7067
22024SOL     OW71908   8.687   1.163  11.468 -0.7203 -0.5960  0.4568
22024SOL    HW171909   8.652   1.250  11.486  1.6095  0.1601  1.7271
22024SOL    HW271910   8.760   1.179  11.407 -0.7136 -1.7406  0.1458
22025SOL     OW71911   9.083   8.341   5.049  0.3719  0.5483 -0.4459
22025SOL    HW171912   9.052   8.259   5.087 -2.3606  1.3878 -0.6562
22025SOL    HW271913   9.087   8.402   5.122  4.7912 -0.2224  0.2063
22026SOL     OW71914   6.955   5.522   4.633  1.0255 -0.1799  0.0080
22026SOL    HW171915   6.950   5.612   4.600 -0.2055  0.3212  1.4340
22026SOL    HW271916   6.903   5.523   4.714 -0.3173 -2.5136 -0.7080
22027SOL     OW71917  10.876   6.123  11.604  0.5957  0.3270  0.0635
22027SOL    HW171918  10.831   6.208  11.601  1.9869  1.0672 -0.9514
22027SOL    HW271919  10.838   6.079  11.680 -1.5610  1.0476 -0.5014
22028SOL     OW71920   1.258   6.360   7.323  0.4749  0.5066 -0.1134
22028SOL    HW171921   1.194   6.290   7.310  0.1768  0.8640 -0.6132
22028SOL    HW271922   1.342   6.320   7.299  0.2713  0.3905 -0.6544
22029SOL     OW71923   0.024   3.162   5.215 -0.0245 -0.5143 -0.2232
22029SOL    HW171924   0.078   3.098   5.170 -0.6887 -0.7942 -0.6268
22029SOL    HW271925  -0.033   3.198   5.147 -0.7222 -0.6133  0.2959
22030SOL     OW71926   0.212   4.847   8.888  0.1357  1.0006 -0.1387
22030SOL    HW171927   0.172   4.863   8.803  0.8636  1.9408 -0.3276
22030SOL    HW271928   0.160   4.899   8.949  0.3005  1.2224 -0.1870
22031SOL     OW71929   6.992   3.862   8.277 -0.6964 -0.4222  0.0201
22031SOL    HW171930   6.999   3.805   8.201 -0.7390 -2.8480  1.6929
22031SOL    HW271931   6.947   3.809   8.343  0.5309  1.0257  2.1795
22032SOL     OW71932  10.830   6.825   2.616 -0.2599  0.5864  0.0902
22032SOL    HW171933  10.897   6.870   2.564 -0.3041  1.3566  0.6828
22032SOL    HW271934  10.879   6.781   2.686 -0.3732  1.1623  0.5328
22033SOL     OW71935   8.912   1.132   6.278  0.2895  0.2318 -0.1105
22033SOL    HW171936   8.818   1.145   6.292  0.1518 -0.0840 -0.7261
22033SOL    HW271937   8.917   1.065   6.210  0.9637  0.1768 -0.0078
22034SOL     OW71938   8.908   7.102   1.785 -0.2047  0.1995  0.2003
22034SOL    HW171939   8.933   7.160   1.858  2.1096 -0.4366 -0.0061
22034SOL    HW271940   8.977   7.116   1.720 -1.8885  0.2827 -1.6483
22035SOL     OW71941  11.829  10.815   9.657 -0.4076 -0.2287  0.1290
22035SOL    HW171942  11.922  10.793   9.662 -0.3150  0.2270  0.5635
22035SOL    HW271943  11.805  10.797   9.566  0.2739  0.2808 -0.1628
22036SOL     OW71944   8.416   9.856   8.851  0.7431 -0.0555  0.6963
22036SOL    HW171945   8.484   9.901   8.901  0.4412 -1.3870  2.4072
22036SOL    HW271946   8.397   9.777   8.902 -0.4812 -0.8722 -0.9187
22037SOL     OW71947   6.116   1.518   8.753  0.6772  0.0702  0.2954
22037SOL    HW171948   6.045   1.459   8.728  1.7456 -1.2630  0.2195
22037SOL    HW271949   6.095   1.545   8.842  0.3857 -0.8258  0.5131
22038SOL     OW71950   8.780   2.860   0.798  0.2417  0.0108  0.4382
22038SOL    HW171951   8.874   2.841   0.801 -0.0896 -2.7187 -2.0167
22038SOL    HW271952   8.741   2.795   0.856 -0.2499 -0.1422 -0.0608
22039SOL     OW71953   5.780   2.948   6.990 -0.2823  0.8368 -0.0194
22039SOL    HW171954   5.841   2.967   6.919 -0.4388  0.1351 -0.3434
22039SOL    HW271955   5.739   2.865   6.966 -0.9456  1.0103  0.4808
22040SOL     OW71956   0.094   0.584   1.097 -0.1941  0.1674  0.1507
22040SOL    HW171957   0.124   0.528   1.026  0.8971 -0.3739  1.0080
22040SOL    HW271958   0.088   0.671   1.058 -1.0326 -0.3560 -0.9565
22041SOL     OW71959   2.528   7.914  12.054 -0.1188 -0.0284  0.8615
22041SOL    HW171960   2.511   7.844  12.117  1.2141  0.7891  2.1676
22041SOL    HW271961   2.442   7.929  12.013 -0.7541 -1.4016  1.5820
22042SOL     OW71962  11.902   9.903   4.036 -0.4161 -0.2650 -0.7227
22042SOL    HW171963  11.934   9.966   4.101  0.0402  0.8611 -2.0117
22042SOL    HW271964  11.807   9.918   4.034 -0.4727 -0.5169 -0.1035
22043SOL     OW71965   6.674   5.906   3.163  0.1193  0.4702 -0.2065
22043SOL    HW171966   6.580   5.893   3.150  0.4855 -1.0165 -1.7164
22043SOL    HW271967   6.708   5.923   3.075  1.3880  0.0094  0.1715
22044SOL     OW71968   6.701   5.895   6.103  0.5323 -0.3186 -0.7483
22044SOL    HW171969   6.695   5.912   6.196 -2.2443 -1.5808 -0.5964
22044SOL    HW271970   6.672   5.976   6.061  0.2064 -0.2834 -0.4564
22045SOL     OW71971   6.511   3.037   3.222  0.0553 -0.4127  0.0980
22045SOL    HW171972   6.432   3.091   3.226  0.0662 -0.4227  0.4943
22045SOL    HW271973   6.480   2.949   3.243 -0.1040 -0.7266 -1.3338
22046SOL     OW71974   5.233   4.908   0.467 -0.6802 -0.0975 -0.0539
22046SOL    HW171975   5.176   4.885   0.394 -1.2604 -0.6229  0.5557
22046SOL    HW271976   5.182   4.886   0.545  1.1288 -2.6638  0.5424
22047SOL     OW71977   7.698   8.174   8.657 -0.5321  0.0611  0.5484
22047SOL    HW171978   7.749   8.094   8.648  0.4882  0.7116  0.3403
22047SOL    HW271979   7.761   8.239   8.689 -1.4117  0.7035  1.0089
22048SOL     OW71980   3.187  11.223   9.425  0.1732  0.4444 -0.1143
22048SOL    HW171981   3.186  11.288   9.496  1.0111 -0.3564  0.6611
22048SOL    HW271982   3.190  11.275   9.345 -0.3680  1.3671  0.4405
22049SOL     OW71983  11.249   1.771   3.684  0.6790  0.0077  0.1942
22049SOL    HW171984  11.224   1.692   3.732  0.4786 -0.2924 -0.3936
22049SOL    HW271985  11.192   1.771   3.607  1.1171  0.3894 -0.1326
22050SOL     OW71986   2.563   3.059   1.443 -0.1195 -0.0279  0.1614
22050SOL    HW171987   2.519   2.975   1.454 -0.4807  0.3027  1.3851
22050SOL    HW271988   2.649   3.046   1.485 -0.0513  0.1110  0.0650
22051SOL     OW71989  11.687   2.363   7.095  0.1758 -0.0013  0.2083
22051SOL    HW171990  11.712   2.413   7.173  0.3831  1.0907 -0.5418
22051SOL    HW271991  11.760   2.303   7.081  0.5653  0.4384  0.3252
22052SOL     OW71992  12.278   8.825   3.656  0.3516 -0.0767 -0.5511
22052SOL    HW171993  12.333   8.822   3.734  0.5653 -0.2384 -0.7052
22052SOL    HW271994  12.215   8.895   3.673  1.6456  1.2757 -1.0534
22053SOL     OW71995  10.185   4.429   7.556  0.2278  0.1457 -0.1533
22053SOL    HW171996  10.180   4.351   7.612 -0.3441  0.5982  0.4440
22053SOL    HW271997  10.095   4.444   7.528  0.0564  1.4900  1.0116
22054SOL     OW71998  12.175  10.074   1.014 -0.3447  0.4790 -0.5841
22054SOL    HW171999  12.090  10.083   1.057 -0.7088  0.1218 -1.2111
22054SOL    HW272000  12.159  10.015   0.940 -0.1849  2.4521 -2.3154
22055SOL     OW72001   4.830   7.045   6.352 -0.2560 -0.2767 -0.1540
22055SOL    HW172002   4.822   7.107   6.424 -1.3732 -1.1599  0.5136
22055SOL    HW272003   4.879   7.092   6.285  0.9345  0.5150  1.2274
22056SOL     OW72004   0.041   4.229   4.788  0.1830 -0.1478  0.5596
22056SOL    HW172005   0.081   4.194   4.708 -0.8180 -0.3036  0.1087
22056SOL    HW272006   0.080   4.178   4.858 -0.0019 -1.0221  0.0417
22057SOL     OW72007  10.759   0.057   3.130  0.2504  0.5935  0.0448
22057SOL    HW172008  10.853   0.042   3.131  0.1240 -0.7463 -2.0218
22057SOL    HW272009  10.737   0.081   3.220  2.1445 -1.7164  1.2266
22058SOL     OW72010   4.353   0.109   0.219  0.3325 -0.0101  0.3100
22058SOL    HW172011   4.309   0.025   0.210 -0.4719  0.2323  1.6856
22058SOL    HW272012   4.442   0.094   0.187 -0.1170 -1.0801 -0.4817
22059SOL     OW72013  10.250   9.080   9.008 -0.7744 -0.1379 -0.1767
22059SOL    HW172014  10.191   9.024   8.958 -0.0459 -0.2863 -0.8928
22059SOL    HW272015  10.315   9.109   8.944 -0.2056  0.2062  0.5475
22060SOL     OW72016   6.757   8.046   0.975  0.9818  0.2741  0.0107
22060SOL    HW172017   6.761   7.968   1.030 -0.4390 -0.2998 -0.6507
22060SOL    HW272018   6.680   8.093   1.006  0.1586 -0.0540 -1.4606
22061SOL     OW72019  11.878   7.909   8.167 -0.9314 -0.0747 -0.5663
22061SOL    HW172020  11.822   7.888   8.092 -0.0990 -1.1912 -0.9103
22061SOL    HW272021  11.872   8.004   8.176 -0.2647  0.2364 -2.7175
22062SOL     OW72022   2.700  11.569   9.794 -0.2154 -0.2543 -0.0050
22062SOL    HW172023   2.700  11.524   9.710  1.3147  0.2953 -0.3302
22062SOL    HW272024   2.665  11.505   9.856  0.9509 -1.5653 -0.6376
22063SOL     OW72025   4.654   6.245   8.888 -0.0940 -0.4514 -0.2712
22063SOL    HW172026   4.677   6.305   8.817 -0.5820 -0.3169 -0.3203
22063SOL    HW272027   4.567   6.273   8.916 -0.3249 -1.1337 -0.2889
22064SOL     OW72028   1.057   9.399  11.954 -0.8735 -0.1397  0.1368
22064SOL    HW172029   1.004   9.478  11.953 -0.5694  0.1370  2.0237
22064SOL    HW272030   1.033   9.355  12.035 -0.7453 -1.7946 -0.6734
22065SOL     OW72031   8.102   5.128   3.648 -0.1426 -0.5099  0.1181
22065SOL    HW172032   8.093   5.042   3.608  0.8643 -0.8592  0.5997
22065SOL    HW272033   8.013   5.155   3.668 -0.9706  0.6315 -4.1619
22066SOL     OW72034  11.922   9.661   3.014 -0.1658  0.3185 -0.1541
22066SOL    HW172035  11.933   9.604   2.938  2.3830  0.8490 -0.2654
22066SOL    HW272036  11.945   9.607   3.089 -2.2172 -0.0641  0.2643
22067SOL     OW72037   1.884  11.501   8.023  0.4226  0.4695  0.3527
22067SOL    HW172038   1.814  11.490   8.087  0.3358 -0.8095  0.0567
22067SOL    HW272039   1.838  11.507   7.939  0.6209  0.5919  0.2529
22068SOL     OW72040   3.332  11.870   1.101 -1.0092 -0.0370  0.2349
22068SOL    HW172041   3.325  11.807   1.172 -0.9265 -1.0798 -0.6564
22068SOL    HW272042   3.382  11.825   1.033 -1.3092  0.8361 -0.5932
22069SOL     OW72043   8.630   5.330  10.915 -0.5135  0.3561 -0.3706
22069SOL    HW172044   8.686   5.407  10.913 -0.9399  0.9291  3.0153
22069SOL    HW272045   8.597   5.327  11.005 -1.6244 -3.0069 -0.7481
22070SOL     OW72046   6.354   4.328   0.570 -0.4043  0.0238 -0.0572
22070SOL    HW172047   6.415   4.383   0.619 -0.1821 -0.2309 -0.0500
22070SOL    HW272048   6.307   4.279   0.636  0.4639 -0.9269 -0.1225
22071SOL     OW72049   6.717   3.364   4.415  0.3385 -0.4061 -0.0888
22071SOL    HW172050   6.737   3.412   4.335  0.2416 -1.3125 -0.6680
22071SOL    HW272051   6.621   3.365   4.420  0.3625  1.5826  1.2384
22072SOL     OW72052   5.999   7.769   1.761 -0.4435 -0.3477 -0.7940
22072SOL    HW172053   6.080   7.723   1.781 -0.8128 -0.4871  0.5042
22072SOL    HW272054   5.932   7.700   1.762 -1.1097  0.2095  1.8573
22073SOL     OW72055   4.202   7.835   4.144  0.4688  0.0028  0.8996
22073SOL    HW172056   4.236   7.888   4.072  0.2745 -0.7958  0.2058
22073SOL    HW272057   4.109   7.855   4.148 -0.4044 -2.8579 -1.7309
22074SOL     OW72058  10.391  12.053   1.378 -0.1208  0.3662  0.3165
22074SOL    HW172059  10.323  12.111   1.342 -0.3427 -0.4922 -0.6832
22074SOL    HW272060  10.344  11.973   1.402  0.3555  0.2095  0.7392
22075SOL     OW72061   7.514   1.490   9.731 -0.1034  0.0099  0.0537
22075SOL    HW172062   7.451   1.469   9.800  0.9575  0.0273  1.0645
22075SOL    HW272063   7.506   1.418   9.668  0.2994 -1.0751  1.1982
22076SOL     OW72064   6.902   6.181  11.221  0.2370  0.1518  0.2764
22076SOL    HW172065   6.874   6.092  11.202  0.4351 -0.0466  0.8765
22076SOL    HW272066   6.993   6.172  11.251  0.7203  0.7086 -0.9699
22077SOL     OW72067   3.688   1.334   3.850 -0.0946  0.0986 -0.2454
22077SOL    HW172068   3.693   1.398   3.779  0.8849 -0.4066 -0.6460
22077SOL    HW272069   3.685   1.249   3.807  0.3725 -0.2049  0.3050
22078SOL     OW72070  10.545   4.639   1.431  0.2884 -0.1682 -0.0655
22078SOL    HW172071  10.509   4.654   1.519  1.0354 -1.3269  0.4586
22078SOL    HW272072  10.478   4.588   1.386  0.0297  0.1738 -0.0705
22079SOL     OW72073   5.253   9.934  12.128 -0.0139  0.0740  0.3186
22079SOL    HW172074   5.159   9.955  12.129  0.1801  1.2866 -1.3290
22079SOL    HW272075   5.290   9.985  12.200 -0.3811  1.1379 -0.2156
22080SOL     OW72076   8.768   0.105   6.013 -0.5114  0.7097 -0.6796
22080SOL    HW172077   8.843   0.147   6.054 -1.6944  1.9499  0.3061
22080SOL    HW272078   8.693   0.132   6.066 -1.7739  0.2352 -2.1442
22081SOL     OW72079   3.127   6.953   3.874 -0.7374  0.1579  0.1676
22081SOL    HW172080   3.065   6.907   3.817 -1.1859  1.6375 -0.5753
22081SOL    HW272081   3.110   7.046   3.859  1.2715  0.6161  0.3560
22082SOL     OW72082  11.975   7.637   7.192  0.3094  0.3754  0.7601
22082SOL    HW172083  12.009   7.647   7.103  1.0455  2.7351  1.2421
22082SOL    HW272084  12.030   7.569   7.231  0.4244 -0.1963 -0.3649
22083SOL     OW72085  10.463   2.679   7.857 -0.2839  0.0086  0.0505
22083SOL    HW172086  10.457   2.677   7.761  0.5803  0.3046 -0.0115
22083SOL    HW272087  10.435   2.767   7.881 -1.4021 -0.3524  0.1494
22084SOL     OW72088   0.811   7.276   8.442  0.0902  0.1106  0.4493
22084SOL    HW172089   0.762   7.357   8.429  0.3449  0.2467  0.3212
22084SOL    HW272090   0.820   7.269   8.537  0.2572  0.3528  0.4550
22085SOL     OW72091  11.723   3.896   3.651  0.2018  0.7234  0.1473
22085SOL    HW172092  11.668   3.818   3.641  2.2788 -0.6729 -1.1066
22085SOL    HW272093  11.757   3.890   3.741  1.1697 -0.4435 -0.2654
22086SOL     OW72094   3.016   2.722   8.563 -0.5520 -0.1552  0.2466
22086SOL    HW172095   3.087   2.763   8.612 -0.7920  0.3302  0.1986
22086SOL    HW272096   3.059   2.668   8.498 -0.1837 -2.6996  2.4583
22087SOL     OW72097   3.380   5.180   7.533  0.4625 -0.4079  0.1674
22087SOL    HW172098   3.372   5.101   7.480 -0.4978 -1.6730  2.0937
22087SOL    HW272099   3.300   5.229   7.514  0.1562 -0.8181  0.3893
22088SOL     OW72100   9.880  10.961   6.966 -0.2831 -0.1588  0.0438
22088SOL    HW172101   9.938  11.037   6.977  0.3677 -0.3138 -1.8715
22088SOL    HW272102   9.820  10.987   6.896  0.2174 -1.5228 -0.9283
22089SOL     OW72103  10.661  11.259   5.279  0.2319  0.3076  0.0267
22089SOL    HW172104  10.667  11.268   5.184  2.1710 -1.2613 -0.0895
22089SOL    HW272105  10.710  11.178   5.298 -0.8289  0.1189  2.2853
22090SOL     OW72106   8.244   4.968  11.246  0.5222 -0.2381 -0.7452
22090SOL    HW172107   8.333   5.003  11.258  0.0421  0.2879  1.7357
22090SOL    HW272108   8.188   5.024  11.300 -1.0151 -1.8152 -0.6172
22091SOL     OW72109   0.599   0.405   4.160 -0.1937  0.3637 -0.5083
22091SOL    HW172110   0.575   0.498   4.160  1.0420  0.7029 -1.2361
22091SOL    HW272111   0.630   0.388   4.249  0.8257  1.0017 -0.7307
22092SOL     OW72112  12.254   4.700   0.125 -0.0489 -0.7585  0.4273
22092SOL    HW172113  12.313   4.630   0.152  1.8067  0.5668 -0.0561
22092SOL    HW272114  12.251   4.694   0.029  0.4615  0.0843  0.3540
22093SOL     OW72115   8.074   6.635   4.132 -0.1657 -0.1956  0.4724
22093SOL    HW172116   8.167   6.627   4.113 -0.4093 -0.0622 -0.9153
22093SOL    HW272117   8.066   6.714   4.186  0.3662  0.7543 -0.7947
22094SOL     OW72118  10.879   3.962   2.609 -0.1557  0.4724 -0.1734
22094SOL    HW172119  10.902   3.896   2.544 -0.4116  0.4396 -0.2323
22094SOL    HW272120  10.911   3.926   2.692 -2.3264 -0.8276  0.1670
22095SOL     OW72121   4.816   9.397   1.093 -0.0998  0.3192 -0.0085
22095SOL    HW172122   4.791   9.438   1.010  1.7932  1.1195 -0.2263
22095SOL    HW272123   4.895   9.347   1.073  0.6085  0.8259  1.3968
22096SOL     OW72124   8.877   6.697   6.007 -0.0227  0.2824 -0.0161
22096SOL    HW172125   8.807   6.699   5.942 -1.1460 -2.6079  0.9664
22096SOL    HW272126   8.948   6.648   5.965 -0.4330 -0.8735  0.6085
22097SOL     OW72127  11.827   9.640   4.051 -0.3446  0.0814 -0.5829
22097SOL    HW172128  11.898   9.703   4.068 -0.8185  0.2391  0.9986
22097SOL    HW272129  11.807   9.652   3.958  2.0856 -0.4003 -1.2586
22098SOL     OW72130   2.903   4.039   6.318  0.0542 -0.1359 -0.6330
22098SOL    HW172131   2.917   4.125   6.356  0.0454 -0.5354  0.3076
22098SOL    HW272132   2.836   4.052   6.251 -1.6436  0.1936  1.0702
22099SOL     OW72133   9.296   4.949   7.686  0.3965  0.7672  0.3780
22099SOL    HW172134   9.329   4.884   7.623 -0.2484 -0.9026  1.6705
22099SOL    HW272135   9.203   4.958   7.663  0.0350 -0.2333  1.3391
22100SOL     OW72136   6.590   3.098  10.345 -0.7756 -0.4303  0.7808
22100SOL    HW172137   6.495   3.092  10.338 -0.7937  1.1355 -2.1587
22100SOL    HW272138   6.623   3.036  10.280  0.1537  0.1094  0.7174
22101SOL     OW72139  11.917   2.042  10.323  0.5313 -0.0343  0.2574
22101SOL    HW172140  11.831   2.078  10.347  0.7675 -0.0255  1.1136
22101SOL    HW272141  11.956   2.109  10.267 -0.0170 -0.0366 -0.1342
22102SOL     OW72142   0.094   0.854   1.021  0.6060  0.4768  0.3313
22102SOL    HW172143   0.147   0.899   0.956 -1.2124  1.5317 -0.5022
22102SOL    HW272144   0.004   0.883   1.003 -0.2909 -1.3303  1.5717
22103SOL     OW72145  10.057   4.073   5.296  0.4535  0.1665  0.1609
22103SOL    HW172146  10.009   4.074   5.379  1.4398 -1.4061  0.7915
22103SOL    HW272147  10.130   4.133   5.310 -0.6666  1.7300 -0.4283
22104SOL     OW72148  11.747   8.457   9.435 -0.2844  0.0304 -0.2367
22104SOL    HW172149  11.704   8.531   9.392  0.1129 -0.0772 -0.8260
22104SOL    HW272150  11.791   8.495   9.511 -1.4593  0.1331  0.4147
22105SOL     OW72151   9.807   0.225   6.061  0.4967 -0.3830  0.4932
22105SOL    HW172152   9.753   0.208   5.984  0.1878  0.5278  0.5005
22105SOL    HW272153   9.856   0.144   6.075  0.3034 -0.6677 -0.4595
22106SOL     OW72154   5.618   6.507   3.626  0.0422 -0.3832  0.0262
22106SOL    HW172155   5.593   6.476   3.539 -2.1298 -2.4405  1.2667
22106SOL    HW272156   5.677   6.439   3.659  1.4044  0.7314 -0.0604
22107SOL     OW72157   8.826  11.359   3.392  0.4554  0.4894 -0.1249
22107SOL    HW172158   8.820  11.266   3.412  0.8020  0.3072 -0.8533
22107SOL    HW272159   8.808  11.402   3.476 -0.3559 -0.2119  0.0821
22108SOL     OW72160   9.299   3.735   2.947  0.2895  0.2556  0.0236
22108SOL    HW172161   9.301   3.827   2.919 -1.5741  0.8824  1.6797
22108SOL    HW272162   9.278   3.686   2.867 -0.5660  1.4733 -0.5315
22109SOL     OW72163   8.331   2.668   4.513 -0.6120 -0.5119  0.2449
22109SOL    HW172164   8.243   2.654   4.477 -0.8959  0.9877  0.2871
22109SOL    HW272165   8.334   2.612   4.590 -1.9337  0.1869  0.8456
22110SOL     OW72166  10.594   8.696   7.754 -0.1119 -0.2951  0.5207
22110SOL    HW172167  10.534   8.724   7.822  0.8373 -0.6068  1.5047
22110SOL    HW272168  10.555   8.730   7.673 -1.3817 -0.1373  1.1712
22111SOL     OW72169   9.651  11.961  11.918  0.0229 -0.1868 -0.0197
22111SOL    HW172170   9.635  12.042  11.869 -0.6533 -1.2714 -1.6860
22111SOL    HW272171   9.565  11.919  11.922  0.8040 -2.0543 -1.5314
22112SOL     OW72172   0.563   8.860   7.216  0.6432 -0.0792 -0.0173
22112SOL    HW172173   0.502   8.789   7.234  0.2438  0.5687  1.2965
22112SOL    HW272174   0.643   8.816   7.189 -0.2550 -0.9604 -1.4256
22113SOL     OW72175  10.952   3.201  10.691  0.0554  0.1926  0.4106
22113SOL    HW172176  10.940   3.152  10.609 -0.4225  1.0301 -0.0342
22113SOL    HW272177  10.971   3.133  10.756 -0.3460 -0.5631 -0.2318
22114SOL     OW72178   5.440   7.503  11.362  0.3499  0.1390 -0.0416
22114SOL    HW172179   5.530   7.479  11.341  0.3088  0.5221 -0.6733
22114SOL    HW272180   5.386   7.448  11.305  0.2167  0.7022 -0.4586
22115SOL     OW72181   7.460   3.116   6.837 -0.0037 -0.5703 -0.1065
22115SOL    HW172182   7.436   3.083   6.750  1.2056 -0.2014 -0.6027
22115SOL    HW272183   7.526   3.054   6.869 -1.3462 -1.4177  1.1130
22116SOL     OW72184   9.873  10.893  12.278 -0.2758  0.2555 -0.1204
22116SOL    HW172185   9.780  10.899  12.256  0.0333  1.7467 -1.1909
22116SOL    HW272186   9.876  10.904  12.372 -1.2681 -1.2524  0.1334
22117SOL     OW72187   3.944   3.441   6.550  0.0011  0.5544 -0.3512
22117SOL    HW172188   3.869   3.460   6.606  0.0646  1.5451 -0.5815
22117SOL    HW272189   3.912   3.456   6.461  0.5204  1.2056 -0.4395
22118SOL     OW72190   5.342   7.247   7.555  0.2148 -0.4517 -0.2898
22118SOL    HW172191   5.306   7.319   7.502  0.1629 -0.7531 -0.6666
22118SOL    HW272192   5.436   7.263   7.556  0.1297  0.0610  0.2850
22119SOL     OW72193  11.462   3.472   2.783 -0.8142  0.5072  0.1904
22119SOL    HW172194  11.459   3.419   2.863  1.5367 -1.4421 -0.8707
22119SOL    HW272195  11.385   3.445   2.733  0.0682 -1.6300 -0.1034
22120SOL     OW72196   3.634   7.521   0.093 -0.5843  0.0629  0.1139
22120SOL    HW172197   3.599   7.489   0.177 -1.8779 -0.0222 -0.4376
22120SOL    HW272198   3.712   7.467   0.078 -1.6557 -1.5663  0.1249
22121SOL     OW72199   5.460   2.208   3.412 -0.6311  0.1477 -0.1574
22121SOL    HW172200   5.367   2.187   3.419 -0.5304  0.0551  0.9984
22121SOL    HW272201   5.503   2.124   3.404 -0.6242  0.1829 -0.5180
22122SOL     OW72202   0.325   7.465   8.644 -0.4049 -0.5063  0.6223
22122SOL    HW172203   0.294   7.537   8.699  0.1452  1.7065 -1.7972
22122SOL    HW272204   0.247   7.415   8.623 -0.7531 -0.8828  2.6248
22123SOL     OW72205  10.969   6.298   5.232 -0.4601 -0.3355 -0.0313
22123SOL    HW172206  10.945   6.244   5.156  1.5377 -0.4922 -0.6075
22123SOL    HW272207  10.978   6.235   5.304  1.9563 -0.8775 -0.7229
22124SOL     OW72208  10.811  10.223   0.562 -0.3049  0.3934  0.1148
22124SOL    HW172209  10.782  10.222   0.653 -1.0236 -0.3328 -0.1023
22124SOL    HW272210  10.906  10.233   0.567 -0.4108  1.1460  0.9121
22125SOL     OW72211  11.935   0.772   3.188  0.8692  0.2909  0.0753
22125SOL    HW172212  11.850   0.739   3.157  0.0876  1.1959  1.1393
22125SOL    HW272213  11.983   0.694   3.215  1.2145 -0.4438 -2.4431
22126SOL     OW72214   2.517   2.391   0.599 -0.6346 -0.0455  0.0018
22126SOL    HW172215   2.490   2.432   0.517 -1.6323  0.4024  0.5324
22126SOL    HW272216   2.589   2.332   0.574 -0.9725  0.0165 -1.1968
22127SOL     OW72217   2.856   0.304   9.031 -0.0393 -0.4321  0.4845
22127SOL    HW172218   2.803   0.246   8.976  1.1108 -0.9064 -0.1632
22127SOL    HW272219   2.812   0.304   9.116 -1.2083 -0.5988 -0.1013
22128SOL     OW72220  11.506  11.886   1.200 -0.5618 -0.1395  0.1270
22128SOL    HW172221  11.462  11.865   1.118 -0.2184 -2.0695  0.4031
22128SOL    HW272222  11.438  11.877   1.267 -0.6889  0.8167  0.1392
22129SOL     OW72223   0.658   6.248  11.019  0.7584 -1.0604 -0.0485
22129SOL    HW172224   0.722   6.225  10.952 -0.8021  0.0852 -2.0309
22129SOL    HW272225   0.582   6.194  10.998 -0.0115 -0.1433  0.3427
22130SOL     OW72226   3.283  11.962  10.220 -0.2138 -0.3500  0.1962
22130SOL    HW172227   3.191  11.947  10.198  0.2076 -1.5315 -0.9135
22130SOL    HW272228   3.327  11.965  10.135  0.8974 -0.6643  0.7449
22131SOL     OW72229   9.909   3.392   7.830  0.1359  0.0827  0.6189
22131SOL    HW172230   9.910   3.463   7.766  0.1058  0.2767  0.8328
22131SOL    HW272231  10.001   3.378   7.851  0.1818 -0.3323  0.1454
22132SOL     OW72232  11.286   0.684   8.234 -0.1051  0.0004 -0.1153
22132SOL    HW172233  11.205   0.697   8.184 -0.9777 -0.5218  1.1053
22132SOL    HW272234  11.296   0.589   8.238  1.6785  0.0438 -1.9088
22133SOL     OW72235   5.726   6.478  10.448 -0.5454  0.0891 -0.5664
22133SOL    HW172236   5.822   6.474  10.449 -0.5794 -2.2421 -0.4028
22133SOL    HW272237   5.704   6.551  10.507  1.1136 -0.0008  0.2204
22134SOL     OW72238   1.334   6.824   9.203 -0.1668  0.4820  0.2377
22134SOL    HW172239   1.297   6.882   9.270 -0.1043  0.1905  0.5241
22134SOL    HW272240   1.422   6.858   9.188  0.0768  0.1283  0.8142
22135SOL     OW72241   5.648   4.795   5.040 -0.4896  0.4374  0.3102
22135SOL    HW172242   5.573   4.839   5.080 -0.3852  0.7658  0.1504
22135SOL    HW272243   5.640   4.813   4.946 -1.6347 -1.6849 -0.0503
22136SOL     OW72244   9.736  12.290   8.094  0.2046  0.3008 -0.2739
22136SOL    HW172245   9.719  12.198   8.114 -1.8262  0.5654 -0.5732
22136SOL    HW272246   9.809  12.314   8.151  0.3288 -1.3085  0.2878
22137SOL     OW72247   3.359   6.628   8.574  0.2283  0.4247  0.2380
22137SOL    HW172248   3.437   6.657   8.527  0.5994  1.9723  1.6742
22137SOL    HW272249   3.307   6.581   8.510  1.6641  0.6401 -1.1323
22138SOL     OW72250   3.139   6.422   8.973 -0.2659  0.2042  0.3256
22138SOL    HW172251   3.177   6.428   9.060 -2.0452  0.5851  1.1311
22138SOL    HW272252   3.122   6.329   8.960  0.8116  0.0400 -0.0133
22139SOL     OW72253   8.604   8.921   8.933  0.2882 -0.1400  0.3263
22139SOL    HW172254   8.665   8.863   8.978 -0.4881 -0.4829  0.9696
22139SOL    HW272255   8.658   8.991   8.898  0.8346  0.6435  2.5825
22140SOL     OW72256   8.698   1.641   9.074  0.2364 -0.1961 -0.0420
22140SOL    HW172257   8.742   1.720   9.043 -0.0253 -0.4564 -1.1182
22140SOL    HW272258   8.705   1.579   9.001 -0.7678 -0.6811  0.2548
22141SOL     OW72259   0.393  12.313  10.399 -0.4077 -0.9184 -0.4133
22141SOL    HW172260   0.412  12.375  10.470 -0.8522  0.3852 -1.3810
22141SOL    HW272261   0.381  12.229  10.443 -1.3068 -0.0389  1.1367
22142SOL     OW72262   0.112   4.961   7.931  0.3708  0.0650  0.3242
22142SOL    HW172263   0.150   4.915   8.005 -0.4445 -0.8597  0.1826
22142SOL    HW272264   0.062   4.895   7.883 -3.0789  1.5088  1.5647
22143SOL     OW72265   3.490   5.480   9.256  0.0060  0.2005 -0.0823
22143SOL    HW172266   3.486   5.574   9.269 -1.0565 -0.0494  1.6991
22143SOL    HW272267   3.401   5.449   9.274  0.7122 -1.3256  1.0130
22144SOL     OW72268   4.112   5.558   4.096 -0.3583  0.1208  0.3337
22144SOL    HW172269   4.048   5.496   4.132  1.6263 -1.5551  1.1906
22144SOL    HW272270   4.059   5.630   4.061 -2.7173 -1.5141  0.3210
22145SOL     OW72271   2.961   0.269  10.802  0.0200  0.1282  0.0948
22145SOL    HW172272   3.006   0.345  10.840  0.1976  1.2414 -2.1617
22145SOL    HW272273   2.967   0.283  10.708  0.6841 -3.0931 -0.4561
22146SOL     OW72274   5.179   6.605   4.658  0.2613 -0.2819 -0.1012
22146SOL    HW172275   5.261   6.571   4.621  1.0279 -0.7477  1.9224
22146SOL    HW272276   5.110   6.558   4.610  1.2361 -2.0394  0.1350
22147SOL     OW72277   3.021  12.316   8.609  0.1594 -0.1642 -0.3475
22147SOL    HW172278   2.977  12.265   8.540  2.2962 -1.1562 -1.0443
22147SOL    HW272279   2.962  12.308   8.685 -2.0110  0.5519 -1.8490
22148SOL     OW72280   3.045   6.824   5.325 -0.3563 -0.2015  0.0946
22148SOL    HW172281   3.083   6.886   5.264  2.4928 -1.5221  0.3574
22148SOL    HW272282   3.017   6.750   5.271 -0.6052 -0.1015  0.0887
22149SOL     OW72283   0.769   5.438   0.870  0.0089 -0.0565  0.1157
22149SOL    HW172284   0.764   5.353   0.827 -0.0929  0.3589 -0.7054
22149SOL    HW272285   0.821   5.492   0.811  1.2296  0.0859  1.2599
22150SOL     OW72286  12.330   8.584   2.111  0.3921  0.1581  0.4539
22150SOL    HW172287  12.322   8.586   2.015  1.2159 -0.3692  0.3692
22150SOL    HW272288  12.281   8.506   2.138  1.2375 -0.4281  0.3381
22151SOL     OW72289   5.065  10.322   5.283  0.3637  0.5772 -0.2774
22151SOL    HW172290   5.133  10.321   5.351 -0.6253 -1.6627  0.7917
22151SOL    HW272291   5.004  10.253   5.310 -1.7398  1.7313 -1.8047
22152SOL     OW72292   8.742   2.021   0.866  0.3608  0.0521 -0.7981
22152SOL    HW172293   8.692   2.028   0.947  0.8461  1.7515 -0.6055
22152SOL    HW272294   8.761   1.928   0.857  0.6552 -0.1301  1.2692
22153SOL     OW72295   8.703   0.197   7.202  0.1286  0.5368 -0.1748
22153SOL    HW172296   8.796   0.220   7.201  0.4871 -0.8659 -0.5588
22153SOL    HW272297   8.687   0.169   7.293  0.4593 -0.6263 -0.4587
22154SOL     OW72298   8.755   7.802   5.632 -0.0772  0.6840  0.1130
22154SOL    HW172299   8.736   7.711   5.654  0.9957  0.5770  0.6949
22154SOL    HW272300   8.709   7.817   5.550 -0.3370 -0.3581  0.0526
22155SOL     OW72301   8.965   1.132   7.056 -0.5448 -0.3058 -0.4760
22155SOL    HW172302   9.022   1.188   7.003 -0.3791  0.9488  0.9682
22155SOL    HW272303   8.989   1.043   7.031  2.5092  0.1453  0.4659
22156SOL     OW72304   9.986   2.220   0.114 -0.1805  0.5229 -0.5812
22156SOL    HW172305  10.024   2.289   0.168  2.0265 -0.1977 -1.1236
22156SOL    HW272306   9.989   2.254   0.025  1.1290 -0.2904 -0.8845
22157SOL     OW72307  11.341   8.591   7.553 -0.0004 -0.2163 -0.5369
22157SOL    HW172308  11.365   8.519   7.495 -1.1924  1.9531 -3.9969
22157SOL    HW272309  11.246   8.597   7.546  0.1095  1.9090 -0.6642
22158SOL     OW72310   9.374   4.619   8.601  0.0104 -0.1252  0.0950
22158SOL    HW172311   9.393   4.662   8.685 -1.4451  0.2951  0.2555
22158SOL    HW272312   9.422   4.670   8.536 -0.6831  1.0043  0.4352
22159SOL     OW72313   9.513   2.752   2.908  0.0286  0.1463  0.6311
22159SOL    HW172314   9.458   2.822   2.873 -0.9168  0.3862  2.4626
22159SOL    HW272315   9.540   2.784   2.994  1.6156 -0.7235  0.4929
22160SOL     OW72316   7.831   0.075   8.940  0.4702  0.5958 -0.1727
22160SOL    HW172317   7.914   0.120   8.925  1.1550  0.2639  2.1374
22160SOL    HW272318   7.854  -0.018   8.941 -0.0616  0.4610 -0.2296
22161SOL     OW72319   2.941  11.234   8.237 -0.2619 -0.0154  0.0812
22161SOL    HW172320   2.993  11.311   8.261 -0.3382  0.5248 -1.4362
22161SOL    HW272321   2.886  11.218   8.314  0.2012  1.0488  0.6569
22162SOL     OW72322   1.286   8.328   3.124 -0.1566  0.2368 -0.4296
22162SOL    HW172323   1.255   8.403   3.074 -2.0868  1.3676  2.2137
22162SOL    HW272324   1.242   8.253   3.085  0.8481  0.5451 -2.3209
22163SOL     OW72325   1.098   4.850   6.827  0.1228 -0.1844 -0.1334
22163SOL    HW172326   1.111   4.758   6.850  0.8966 -0.1343 -0.3601
22163SOL    HW272327   1.152   4.898   6.890  0.6069  0.0575 -0.7277
22164SOL     OW72328   3.164   5.875   2.361  0.5531 -0.0659 -0.1920
22164SOL    HW172329   3.190   5.797   2.314 -0.0781  0.1198 -0.8677
22164SOL    HW272330   3.148   5.845   2.451  0.3748 -0.7009 -0.4325
22165SOL     OW72331   3.140   1.645   8.358  0.0503  0.2861  1.0420
22165SOL    HW172332   3.198   1.721   8.361 -0.3231  0.6498 -0.2141
22165SOL    HW272333   3.083   1.656   8.435 -1.4857  2.5621 -0.2736
22166SOL     OW72334   0.019   3.546   1.690  0.4455  0.0227  0.3066
22166SOL    HW172335   0.029   3.633   1.651 -1.3453 -0.1830 -0.7067
22166SOL    HW272336  -0.036   3.498   1.628  2.2111 -2.1935  0.3457
22167SOL     OW72337   2.358   4.238   1.032 -0.1219 -0.0360  0.0698
22167SOL    HW172338   2.418   4.250   0.959  0.0631  0.4074  0.2897
22167SOL    HW272339   2.408   4.188   1.097 -0.3361 -0.5623 -0.1628
22168SOL     OW72340   6.523  12.234   5.785 -0.3054  0.0426  0.6572
22168SOL    HW172341   6.543  12.285   5.707 -0.5010  0.9554  1.1799
22168SOL    HW272342   6.472  12.160   5.753 -1.9857  1.3692  0.0800
22169SOL     OW72343  10.749   4.870   0.656  0.1426  0.0786  0.2272
22169SOL    HW172344  10.808   4.794   0.653  1.0617  0.7095  1.6068
22169SOL    HW272345  10.805   4.944   0.632 -0.7199  0.3725 -0.9740
22170SOL     OW72346   5.105   1.932   2.021  0.0643  0.1171 -0.6364
22170SOL    HW172347   5.150   1.996   1.964  1.1396 -0.5150 -0.5352
22170SOL    HW272348   5.169   1.861   2.031  0.3910  0.6973  2.2923
22171SOL     OW72349  11.935  10.064  11.670  0.5265  0.1490  0.1259
22171SOL    HW172350  12.025  10.098  11.676  0.4715  0.0882  2.0611
22171SOL    HW272351  11.929  10.025  11.583  2.0395  1.0886 -0.4288
22172SOL     OW72352   6.135   8.871   6.435  0.3165  0.1163  0.3548
22172SOL    HW172353   6.117   8.902   6.524  0.5494 -0.5812  0.6458
22172SOL    HW272354   6.053   8.832   6.406 -0.8427  3.2080 -0.9930
22173SOL     OW72355   0.109   4.387  11.328  0.2189 -0.2134 -0.2446
22173SOL    HW172356   0.157   4.352  11.253  1.0929 -1.2169  0.7567
22173SOL    HW272357   0.109   4.316  11.392  0.0087  0.8343  0.9551
22174SOL     OW72358   4.390   5.557  11.774 -0.6336 -0.0800  0.9358
22174SOL    HW172359   4.400   5.652  11.773 -2.2937  0.1248  0.8447
22174SOL    HW272360   4.412   5.529  11.685  0.0528  0.1914  1.0200
22175SOL     OW72361   1.043  10.949   0.288  0.4746  0.2119  0.0592
22175SOL    HW172362   1.021  10.863   0.254 -0.7895  0.9807 -1.1749
22175SOL    HW272363   1.129  10.969   0.250  0.2249 -0.0112 -0.6367
22176SOL     OW72364   1.515  12.062   6.495 -0.1040 -0.2548  0.1442
22176SOL    HW172365   1.446  12.062   6.428 -0.6274  0.4901  0.6544
22176SOL    HW272366   1.468  12.079   6.577  0.9239  3.5003  0.1611
22177SOL     OW72367   9.521   8.644  12.083  0.6666 -0.0892  0.3676
22177SOL    HW172368   9.587   8.622  12.018 -0.9215  1.1996 -1.8154
22177SOL    HW272369   9.479   8.723  12.050 -1.8751 -0.7605  1.6757
22178SOL     OW72370   1.649   1.416   2.247 -0.2302 -0.1264  0.2838
22178SOL    HW172371   1.583   1.411   2.178  1.1192  0.4634 -1.1423
22178SOL    HW272372   1.656   1.510   2.266 -0.7586 -0.3033  1.4337
22179SOL     OW72373   7.032   2.229   6.857  0.2353 -0.2771 -0.5657
22179SOL    HW172374   6.982   2.278   6.922  1.7189 -0.1642  0.5576
22179SOL    HW272375   7.110   2.282   6.842  1.8655 -2.1582  0.6300
22180SOL     OW72376   8.546   4.170   4.885  0.3434 -0.1288 -0.0507
22180SOL    HW172377   8.504   4.159   4.800 -0.5461  0.9255  0.2299
22180SOL    HW272378   8.473   4.183   4.946  0.9714 -0.7319  0.8562
22181SOL     OW72379  12.077   8.285   7.178  0.0725  0.6020 -0.1317
22181SOL    HW172380  12.038   8.299   7.265 -0.3170  2.3751 -0.5518
22181SOL    HW272381  12.156   8.234   7.195 -1.1430 -1.0047  1.0030
22182SOL     OW72382   3.643   8.519   1.716  0.5398  0.5732  0.1781
22182SOL    HW172383   3.678   8.456   1.779 -0.6349  0.0940  0.3665
22182SOL    HW272384   3.713   8.584   1.707  1.0382  0.2447  1.3955
22183SOL     OW72385   4.998   9.492   3.524 -0.2052  0.0339 -0.3659
22183SOL    HW172386   4.923   9.437   3.504 -0.1596 -0.0425 -0.3256
22183SOL    HW272387   4.962   9.580   3.536 -0.2175  0.1167 -0.9527
22184SOL     OW72388   9.828   3.302   0.143 -0.5011 -0.4155  0.0721
22184SOL    HW172389   9.894   3.277   0.079 -0.7409 -0.3175 -0.2110
22184SOL    HW272390   9.781   3.376   0.104  0.2081  0.5108  0.9057
22185SOL     OW72391   8.063  11.641   5.533 -0.3539  1.2015 -0.6735
22185SOL    HW172392   8.056  11.663   5.440 -2.2561 -0.1760 -0.9213
22185SOL    HW272393   8.069  11.546   5.534  0.2551  1.2403  0.6050
22186SOL     OW72394  10.863   3.860   9.932 -0.0694  0.0502 -0.0610
22186SOL    HW172395  10.917   3.803   9.988  0.2993  0.2603 -0.2025
22186SOL    HW272396  10.838   3.933   9.989  1.6045  1.0721 -0.5905
22187SOL     OW72397   6.532  12.298   0.171  0.5571  0.6513 -0.3970
22187SOL    HW172398   6.566  12.382   0.202 -0.7394  1.1781 -0.3754
22187SOL    HW272399   6.530  12.243   0.249 -0.6597  1.2976  0.0436
22188SOL     OW72400  10.213   7.473   7.311 -0.0457  0.1621  0.4694
22188SOL    HW172401  10.139   7.420   7.280 -0.9745  1.0224  1.1450
22188SOL    HW272402  10.270   7.480   7.234 -0.3591 -0.9997  0.0984
22189SOL     OW72403  11.299   8.324  10.900  0.1495 -0.0447  0.2720
22189SOL    HW172404  11.314   8.353  10.990  2.3601 -0.7441  0.1987
22189SOL    HW272405  11.216   8.277  10.903  0.2784 -0.2336  2.0113
22190SOL     OW72406  11.097   6.738   0.713  0.6875 -0.4238  0.1898
22190SOL    HW172407  11.035   6.666   0.727 -1.2701  0.6212 -2.4228
22190SOL    HW272408  11.150   6.710   0.638  0.6397  0.4043 -0.1619
22191SOL     OW72409   2.339   4.273  10.894 -0.9165 -0.6169 -0.1062
22191SOL    HW172410   2.273   4.204  10.903 -0.4386 -1.0660  0.0529
22191SOL    HW272411   2.348   4.286  10.800 -3.4843  1.6861 -0.1632
22192SOL     OW72412   4.901   7.784   1.131 -0.2464  0.1948 -0.2147
22192SOL    HW172413   4.845   7.738   1.193 -2.2015  2.7763  0.1160
22192SOL    HW272414   4.990   7.773   1.165 -0.8041 -1.7892  0.7436
22193SOL     OW72415   9.291   9.445   4.829  0.2915  0.5584  0.5499
22193SOL    HW172416   9.213   9.414   4.875 -0.0375 -2.3954 -1.7180
22193SOL    HW272417   9.364   9.402   4.875  0.0508 -1.4179 -0.7890
22194SOL     OW72418   4.996   2.210  11.178  0.3420  0.3716 -0.0205
22194SOL    HW172419   5.020   2.302  11.169 -0.7522  0.4881 -2.6176
22194SOL    HW272420   5.077   2.162  11.157  0.5625  0.7314  0.0045
22195SOL     OW72421   7.798   0.787   6.981  0.4148 -0.3603 -0.2773
22195SOL    HW172422   7.889   0.780   6.953  1.4891 -0.1685  2.8216
22195SOL    HW272423   7.779   0.881   6.978  0.7293 -0.2788  0.1588
22196SOL     OW72424   6.450   7.869  10.909 -0.1848 -0.1999  0.1688
22196SOL    HW172425   6.406   7.883  10.993  1.0643 -0.5438  0.9018
22196SOL    HW272426   6.417   7.784  10.879 -0.6135 -0.0918  0.3293
22197SOL     OW72427   0.296   1.438   0.051  0.4215  0.2023 -0.4288
22197SOL    HW172428   0.205   1.457   0.073  0.5175  1.0987 -0.7827
22197SOL    HW272429   0.335   1.523   0.035  1.1787 -0.2171 -0.8566
22198SOL     OW72430   8.523  10.525  10.066  0.4222  0.1480 -0.4613
22198SOL    HW172431   8.492  10.467   9.997  1.7563 -2.0780  0.6987
22198SOL    HW272432   8.452  10.529  10.129  0.5963 -0.9241 -0.1753
22199SOL     OW72433  12.131   8.000  11.893  0.2546 -0.2282  0.5288
22199SOL    HW172434  12.117   8.090  11.922  0.6019 -0.7818  2.6037
22199SOL    HW272435  12.055   7.979  11.838 -0.9547  0.6255  1.8245
22200SOL     OW72436   4.537   8.025   4.349  0.3433 -0.2284 -0.3349
22200SOL    HW172437   4.487   8.087   4.297 -0.9758 -1.7628 -0.9684
22200SOL    HW272438   4.518   8.048   4.440  0.9066  1.0674 -0.5202
22201SOL     OW72439   3.700   1.718   8.430  0.1501 -0.0359  0.1758
22201SOL    HW172440   3.715   1.626   8.453  0.1018  0.0183  0.4318
22201SOL    HW272441   3.664   1.715   8.341  3.3341 -0.0605 -1.2310
22202SOL     OW72442   5.573   5.949   9.356 -0.3530 -0.4486 -0.1687
22202SOL    HW172443   5.599   5.990   9.439  0.3426 -0.8613 -0.1787
22202SOL    HW272444   5.652   5.904   9.326 -0.3429  0.4047 -1.4860
22203SOL     OW72445   6.759   4.554  11.303 -0.2131  0.2792  0.5757
22203SOL    HW172446   6.730   4.493  11.236  1.1714 -1.4555  1.4925
22203SOL    HW272447   6.715   4.525  11.383 -1.0822  1.7289  0.6746
22204SOL     OW72448   5.339   2.440   8.854 -0.1993 -0.2228 -0.9396
22204SOL    HW172449   5.378   2.399   8.931 -1.8052  0.6283  0.3892
22204SOL    HW272450   5.411   2.444   8.790  1.2577 -0.7176  0.5961
22205SOL     OW72451   9.142   5.199   8.308 -0.0531 -0.1141 -0.0610
22205SOL    HW172452   9.108   5.123   8.355 -0.1306  0.5188  0.9448
22205SOL    HW272453   9.075   5.266   8.318  0.3388  0.3198 -0.2819
22206SOL     OW72454   6.835   8.527   2.148  0.4741  0.2517 -0.7537
22206SOL    HW172455   6.878   8.602   2.190 -1.0335  0.8146 -0.1408
22206SOL    HW272456   6.746   8.527   2.185  0.0340 -1.0285 -1.7606
22207SOL     OW72457   8.363   0.845   4.811 -0.2202  0.0371 -0.3100
22207SOL    HW172458   8.396   0.841   4.901 -4.2394  2.5895  1.5249
22207SOL    HW272459   8.333   0.756   4.792 -0.4048 -0.2755  1.3492
22208SOL     OW72460   9.812   1.224   8.115  0.2704  0.0215 -0.6146
22208SOL    HW172461   9.760   1.305   8.118  0.0426 -0.1443  0.0709
22208SOL    HW272462   9.751   1.157   8.084  0.4623  0.1064 -1.1946
22209SOL     OW72463   9.790   2.094   4.671 -0.4001  0.0591  0.2367
22209SOL    HW172464   9.844   2.133   4.740  0.2260 -1.7004  0.7784
22209SOL    HW272465   9.850   2.084   4.597 -0.8684  1.1968 -0.3154
22210SOL     OW72466   5.132  12.255   6.960  0.1998  0.0589 -0.0585
22210SOL    HW172467   5.085  12.305   6.893 -0.4744  0.3603  0.6211
22210SOL    HW272468   5.105  12.295   7.043  1.9100  0.4406  0.3548
22211SOL     OW72469   3.073   4.658   0.628 -0.3776 -0.2672  0.0068
22211SOL    HW172470   3.017   4.582   0.646 -1.0879  0.5650  1.4847
22211SOL    HW272471   3.160   4.631   0.655 -0.7845 -0.2962  1.3640
22212SOL     OW72472   1.512   1.836   9.235  0.0628 -0.1442 -0.3030
22212SOL    HW172473   1.459   1.757   9.219  1.2608 -1.5762  2.1065
22212SOL    HW272474   1.459   1.888   9.295 -0.0463  0.0729 -0.5904
22213SOL     OW72475   8.312  11.896   3.409  0.0612 -0.0860 -0.6497
22213SOL    HW172476   8.362  11.878   3.330 -0.6469  1.3862 -1.4796
22213SOL    HW272477   8.279  11.811   3.437  0.9283 -0.7249 -1.5022
22214SOL     OW72478   7.140   8.224   6.288 -0.4902 -0.1984 -0.0786
22214SOL    HW172479   7.157   8.205   6.380 -0.4077  1.2041  0.2266
22214SOL    HW272480   7.074   8.294   6.289  0.7709  1.0765 -1.0048
22215SOL     OW72481   4.824   3.646   4.843  0.0408 -0.1764  0.5178
22215SOL    HW172482   4.793   3.565   4.804  1.4368 -1.2002  1.4625
22215SOL    HW272483   4.770   3.657   4.922 -1.3606  0.8013 -0.5231
22216SOL     OW72484   5.174  12.226  11.361  0.2746  0.6521  0.4658
22216SOL    HW172485   5.090  12.248  11.403  0.6327  1.5011  0.7725
22216SOL    HW272486   5.208  12.311  11.331  1.5503  0.4822  1.3482
22217SOL     OW72487   0.376   4.411   6.799 -0.2260 -0.2342  0.0965
22217SOL    HW172488   0.470   4.424   6.784  0.3805 -3.0076  1.0395
22217SOL    HW272489   0.368   4.398   6.893 -1.8464  1.6116  0.2721
22218SOL     OW72490   3.153  11.170   5.467 -0.4937 -0.3359 -0.3665
22218SOL    HW172491   3.068  11.214   5.474 -1.3206 -2.0544  0.8575
22218SOL    HW272492   3.140  11.102   5.401 -0.0518 -0.5705 -0.2168
22219SOL     OW72493   3.923   6.430   7.666 -0.1377 -0.2655 -0.0740
22219SOL    HW172494   3.940   6.399   7.577 -0.6167 -0.4020 -0.1208
22219SOL    HW272495   4.006   6.469   7.694 -0.1769  0.3711 -0.8204
22220SOL     OW72496   0.640   1.845  11.782  0.2692 -0.6242 -0.0216
22220SOL    HW172497   0.621   1.751  11.781 -0.6495 -0.4528  0.2611
22220SOL    HW272498   0.729   1.851  11.817  0.7835 -1.4464 -1.1201
22221SOL     OW72499   9.364   2.535   2.085 -0.2548  0.0646 -0.3613
22221SOL    HW172500   9.400   2.473   2.148 -0.0752  1.1896  0.6659
22221SOL    HW272501   9.440   2.585   2.054 -0.6703  1.3674  0.6252
22222SOL     OW72502   3.009   3.916   6.624 -0.0775 -0.0774 -0.5170
22222SOL    HW172503   2.981   3.908   6.533  0.9421  1.5712 -1.0116
22222SOL    HW272504   3.016   4.010   6.639 -0.2263 -0.3234  1.2774
22223SOL     OW72505   3.854   2.966   5.105  0.6560  0.4101  0.0277
22223SOL    HW172506   3.797   2.891   5.122  2.0312 -0.8735 -0.7862
22223SOL    HW272507   3.822   3.001   5.021  0.7732 -0.0296 -0.2042
22224SOL     OW72508   4.806  11.501   4.429 -0.0877 -0.5130  0.0924
22224SOL    HW172509   4.898  11.511   4.407  0.1366 -1.9662  0.2461
22224SOL    HW272510   4.784  11.580   4.479  0.9936 -0.0369 -0.1495
22225SOL     OW72511   2.058  10.073   2.941 -0.1513  0.0833 -0.2138
22225SOL    HW172512   2.095  10.124   3.013  0.2480  0.2624 -0.5423
22225SOL    HW272513   1.977  10.036   2.977  0.4444 -0.4712  0.5696
22226SOL     OW72514   1.634   1.282   7.584 -0.7662  0.6465 -0.2250
22226SOL    HW172515   1.612   1.344   7.516 -1.6798  0.9268  0.3085
22226SOL    HW272516   1.619   1.196   7.545  0.2041  0.7548 -0.8618
22227SOL     OW72517   2.169  12.180   5.824 -0.3523 -0.7793 -0.1648
22227SOL    HW172518   2.210  12.100   5.856 -0.2846 -0.2067  1.2560
22227SOL    HW272519   2.078  12.173   5.853 -0.2313 -0.1345  0.3953
22228SOL     OW72520   7.572  11.113   9.094 -0.6895  0.4198 -0.4324
22228SOL    HW172521   7.633  11.040   9.097 -1.6162 -0.3397  0.6369
22228SOL    HW272522   7.621  11.187   9.130 -0.9454 -0.6452  2.3871
22229SOL     OW72523   0.901   8.999   1.393 -0.6323 -0.2486  0.4689
22229SOL    HW172524   0.841   8.963   1.328 -0.3797 -2.2085  1.2630
22229SOL    HW272525   0.946   9.070   1.347 -0.9524 -1.1207 -1.2674
22230SOL     OW72526   5.445   1.702   4.227  0.2602  0.1038  0.0277
22230SOL    HW172527   5.474   1.770   4.166  0.4077 -0.3000 -0.3578
22230SOL    HW272528   5.399   1.638   4.172  0.1695 -0.1323  0.3753
22231SOL     OW72529  10.149   9.100   0.422 -0.6337  0.3503  0.2867
22231SOL    HW172530  10.131   9.133   0.510  0.0323 -1.2868  1.0937
22231SOL    HW272531  10.212   9.029   0.436 -1.8369 -1.1208 -1.3219
22232SOL     OW72532   4.235   3.389   7.034 -0.2549 -0.0043  0.2833
22232SOL    HW172533   4.318   3.360   6.996 -0.5747  1.2616 -1.5406
22232SOL    HW272534   4.239   3.485   7.031 -2.2849  0.1147 -1.1865
22233SOL     OW72535   1.148   2.223   1.034  0.2799 -0.1370 -0.5707
22233SOL    HW172536   1.212   2.208   1.104  0.3685 -0.2678 -0.6794
22233SOL    HW272537   1.086   2.285   1.072  0.1231 -0.4853 -0.2523
22234SOL     OW72538   2.266   3.502   3.378  0.1072 -0.2408 -0.3356
22234SOL    HW172539   2.215   3.581   3.394 -0.7131 -0.6961 -0.6569
22234SOL    HW272540   2.357   3.533   3.372  0.0146  0.4401  1.2636
22235SOL     OW72541   9.298   1.418   3.166 -0.3812  0.1752 -0.2892
22235SOL    HW172542   9.354   1.493   3.145 -1.5040  0.7118 -1.5426
22235SOL    HW272543   9.230   1.455   3.223 -0.2033 -0.1769  0.1504
22236SOL     OW72544   5.941   4.859   1.855 -0.2318  0.2950 -0.0960
22236SOL    HW172545   5.988   4.815   1.785 -0.8880 -0.3277 -0.1637
22236SOL    HW272546   5.855   4.878   1.818  0.3086  2.4486 -0.3527
22237SOL     OW72547   4.901   2.116   9.499  0.2877 -0.2912  0.2094
22237SOL    HW172548   4.870   2.117   9.589  0.9059  1.3488  0.4479
22237SOL    HW272549   4.830   2.155   9.448  0.5189  0.1540  0.2213
22238SOL     OW72550   9.920   4.445   2.951  0.2182  0.0189  0.4844
22238SOL    HW172551   9.908   4.357   2.987 -2.3829  0.2159  0.3116
22238SOL    HW272552   9.936   4.500   3.028  1.9543 -0.5638  0.5861
22239SOL     OW72553   5.296   4.807   7.785 -0.0867  0.4417 -0.2261
22239SOL    HW172554   5.343   4.731   7.751 -1.9682 -0.9011  0.0404
22239SOL    HW272555   5.215   4.771   7.822 -0.5463  2.4636  0.8712
22240SOL     OW72556  11.852   4.784   3.108 -0.0838 -0.4370  0.1979
22240SOL    HW172557  11.837   4.718   3.041 -1.3970  1.7550 -1.8599
22240SOL    HW272558  11.921   4.840   3.072 -1.8772  1.6787 -0.1553
22241SOL     OW72559   0.171   9.624   8.695 -0.7153 -0.4099  0.0006
22241SOL    HW172560   0.168   9.684   8.771 -4.6158  0.3689 -0.5501
22241SOL    HW272561   0.193   9.539   8.733  1.8776  0.7096  1.2704
22242SOL     OW72562   1.668   9.516  10.396  0.5868 -0.2883  0.1063
22242SOL    HW172563   1.689   9.425  10.417  2.3238  0.6308  2.9088
22242SOL    HW272564   1.699   9.528  10.307  1.8081 -2.0322  0.2527
22243SOL     OW72565  11.962   8.921   5.438 -0.4227 -0.8403 -0.7052
22243SOL    HW172566  11.919   8.978   5.502  1.2488 -0.4487  0.1158
22243SOL    HW272567  11.966   8.836   5.481  2.4314 -0.1473  0.6301
22244SOL     OW72568   5.313   3.840  11.082  0.1468 -0.2606  0.2051
22244SOL    HW172569   5.256   3.763  11.093 -1.3002  0.9910  2.2451
22244SOL    HW272570   5.389   3.821  11.136  0.5083 -0.8793 -0.5086
22245SOL     OW72571   9.136   2.628   6.573  0.3937 -0.1843  0.3863
22245SOL    HW172572   9.053   2.612   6.618 -0.4752  0.7962 -0.7720
22245SOL    HW272573   9.200   2.577   6.622 -1.0447 -1.7492  0.7479
22246SOL     OW72574   0.391   1.458  11.936  0.3119  0.3231 -0.2014
22246SOL    HW172575   0.352   1.434  11.852 -0.9785 -0.9334  0.7059
22246SOL    HW272576   0.484   1.469  11.917 -0.1858  1.7211 -2.1125
22247SOL     OW72577  11.775  11.237  11.851 -0.0555 -0.5334  0.1984
22247SOL    HW172578  11.775  11.267  11.760 -1.8557  0.8325  0.5824
22247SOL    HW272579  11.772  11.142  11.845 -0.4994 -0.4567 -1.1801
22248SOL     OW72580   4.856   3.131   8.466  0.1302  0.0608  0.2858
22248SOL    HW172581   4.805   3.051   8.481  2.0994 -1.7286 -1.7950
22248SOL    HW272582   4.840   3.153   8.374  2.4180 -0.1137 -0.2157
22249SOL     OW72583   3.433   2.133   5.126  0.2542 -0.0166  0.1927
22249SOL    HW172584   3.382   2.084   5.190  0.7171 -0.6530  0.0940
22249SOL    HW272585   3.384   2.124   5.044 -0.3161  0.7624  0.4387
22250SOL     OW72586   1.034   8.670  10.919 -0.6480 -0.0674 -0.1549
22250SOL    HW172587   1.116   8.651  10.873  0.2829  1.9947  0.5538
22250SOL    HW272588   1.049   8.642  11.009 -1.0513 -0.4695 -0.2073
22251SOL     OW72589   3.679   3.140   8.337  0.2707  0.0463 -0.5028
22251SOL    HW172590   3.647   3.231   8.337  0.9500  0.3615  2.0357
22251SOL    HW272591   3.764   3.145   8.291  0.2834  0.6767 -0.4249
22252SOL     OW72592  11.568   3.203   7.942 -0.0212 -0.0483 -0.1375
22252SOL    HW172593  11.548   3.114   7.968  0.7023 -0.9105 -2.3505
22252SOL    HW272594  11.507   3.223   7.871  1.4081  0.2752 -1.3395
22253SOL     OW72595   1.046   8.395   3.662 -0.4098 -0.5038 -0.1290
22253SOL    HW172596   1.018   8.438   3.581  1.0935 -1.6157 -1.3000
22253SOL    HW272597   0.966   8.359   3.699 -1.2626  0.8189 -0.6180
22254SOL     OW72598   5.036   3.793   8.463 -0.3797 -0.6457  0.0303
22254SOL    HW172599   4.990   3.710   8.450  1.1363 -1.6162  0.5280
22254SOL    HW272600   5.118   3.768   8.507 -1.0030  1.3772  2.6116
22255SOL     OW72601   8.097  10.426   5.862 -0.0366 -0.0533  0.0948
22255SOL    HW172602   8.184  10.426   5.823  0.0552 -2.8914  0.0898
22255SOL    HW272603   8.113  10.442   5.955  0.4687 -0.2060  0.0394
22256SOL     OW72604   1.003   9.677   6.723  0.1315 -0.8655 -0.0736
22256SOL    HW172605   0.948   9.599   6.723 -1.0256 -0.0775 -0.2700
22256SOL    HW272606   1.053   9.671   6.642 -1.7560 -0.2127 -1.3484
22257SOL     OW72607   9.654  10.358   2.705 -0.0445  0.2998  0.0024
22257SOL    HW172608   9.673  10.452   2.710  0.9322  0.0889  0.5761
22257SOL    HW272609   9.660  10.328   2.796  2.5807 -0.8423 -0.4621
22258SOL     OW72610   2.820   6.843   1.978  0.1410 -0.4822  0.5102
22258SOL    HW172611   2.912   6.821   1.964  0.4095  0.8079  0.1221
22258SOL    HW272612   2.787   6.771   2.032  1.0391 -1.6139 -0.3860
22259SOL     OW72613   4.091  11.722   2.751 -0.0569  0.1841 -0.9275
22259SOL    HW172614   4.077  11.795   2.690  0.1619  1.0018 -0.0186
22259SOL    HW272615   4.083  11.643   2.696 -2.0511  0.8045 -1.6046
22260SOL     OW72616   5.501   2.047  11.024 -0.4185  0.1571  0.0098
22260SOL    HW172617   5.502   2.039  11.119  0.0212  0.7324  0.0612
22260SOL    HW272618   5.558   2.122  11.006  0.4469 -0.6550 -0.7678
22261SOL     OW72619  12.233   9.157   6.105 -0.1186  0.3818 -0.3309
22261SOL    HW172620  12.313   9.137   6.153  1.5732  2.9014 -1.9037
22261SOL    HW272621  12.199   9.237   6.146 -1.2483 -0.0347 -0.3975
22262SOL     OW72622  10.521   8.466   2.548  0.4661 -0.1574 -0.5220
22262SOL    HW172623  10.530   8.410   2.471  0.7527 -0.5078 -0.2420
22262SOL    HW272624  10.577   8.424   2.614  0.0142 -0.0168 -0.0408
22263SOL     OW72625   6.314  11.752  10.019  0.0339  0.1241  0.3492
22263SOL    HW172626   6.377  11.692   9.980  1.7625  1.8644  0.3135
22263SOL    HW272627   6.301  11.821   9.954 -1.2554  0.2614  0.7107
22264SOL     OW72628   8.124   8.957   7.898  0.2922  0.0164 -0.1449
22264SOL    HW172629   8.126   9.048   7.869  2.2176  0.7724  2.0270
22264SOL    HW272630   8.054   8.954   7.963  0.3932  0.0325 -0.0339
22265SOL     OW72631   0.582  11.575  12.049 -0.1337  0.0420  0.1136
22265SOL    HW172632   0.525  11.509  12.010 -1.5187  1.4181 -0.2722
22265SOL    HW272633   0.660  11.526  12.077 -2.2027 -2.2541  2.3643
22266SOL     OW72634   3.372   4.336   9.528  0.4710  0.1358 -0.6245
22266SOL    HW172635   3.427   4.406   9.495  1.4230 -0.2404  0.1335
22266SOL    HW272636   3.398   4.324   9.619 -0.3044 -0.5875 -0.4761
22267SOL     OW72637   0.691   1.456   1.911  0.5528 -0.1782 -0.0205
22267SOL    HW172638   0.626   1.524   1.895 -0.1278 -1.1707 -1.7494
22267SOL    HW272639   0.763   1.501   1.956  0.6448  1.9775 -2.1265
22268SOL     OW72640   0.833   0.863   2.231  0.6908 -0.0269  0.5452
22268SOL    HW172641   0.741   0.869   2.256  0.7356 -2.3994  1.5471
22268SOL    HW272642   0.831   0.862   2.135 -0.3788 -0.4670  0.5515
22269SOL     OW72643   2.077   7.756   5.387 -0.3960  0.0759 -0.6597
22269SOL    HW172644   2.028   7.781   5.466 -0.4846 -0.1675 -0.6357
22269SOL    HW272645   2.012   7.711   5.332 -0.3501  0.2998 -0.8979
22270SOL     OW72646  10.727   2.274  11.274 -0.4301  0.1082 -0.9519
22270SOL    HW172647  10.796   2.219  11.236  1.6061  0.6275  1.6353
22270SOL    HW272648  10.769   2.358  11.289 -0.4845 -0.4237  3.4789
22271SOL     OW72649   4.777   3.758   3.205 -0.3582 -0.7845 -0.2055
22271SOL    HW172650   4.798   3.720   3.290  1.3569  1.2873  0.3784
22271SOL    HW272651   4.856   3.747   3.153 -0.4552  0.3154 -0.6172
22272SOL     OW72652   3.539   9.773   7.295 -0.4851 -0.3403 -0.0080
22272SOL    HW172653   3.619   9.821   7.321  0.5954 -1.2884 -1.4501
22272SOL    HW272654   3.537   9.697   7.353 -1.2481  0.4960  1.1045
22273SOL     OW72655   6.144   7.315   4.109 -0.2341  0.1059  0.0996
22273SOL    HW172656   6.216   7.377   4.095 -0.7042  1.0610  1.6338
22273SOL    HW272657   6.186   7.236   4.143  0.1683  0.3690  0.2201
22274SOL     OW72658  10.442   6.563   8.918  0.1747 -0.4914 -0.2468
22274SOL    HW172659  10.523   6.520   8.947  0.9931  1.0953 -0.0825
22274SOL    HW272660  10.444   6.554   8.822  0.4148 -0.7039 -0.2231
22275SOL     OW72661   4.502  11.045   5.802 -0.4200 -0.2941 -0.3282
22275SOL    HW172662   4.502  11.095   5.720 -0.6833  1.6362  0.7817
22275SOL    HW272663   4.559  11.095   5.860 -1.8039 -0.4820  1.2842
22276SOL     OW72664   5.591   9.742   1.668 -0.0733  0.4454 -0.3210
22276SOL    HW172665   5.521   9.797   1.633 -0.7256 -1.0438 -1.4823
22276SOL    HW272666   5.672   9.786   1.644 -0.5634  0.6039 -1.7349
22277SOL     OW72667  11.451   1.502   8.092 -0.2421  0.4774 -0.3020
22277SOL    HW172668  11.532   1.523   8.139  0.2141 -0.7628 -0.4949
22277SOL    HW272669  11.479   1.496   8.000 -0.9298  1.8700 -0.6371
22278SOL     OW72670   4.981   0.671   2.395 -0.2795  0.4651  0.1985
22278SOL    HW172671   5.052   0.608   2.380 -1.3978 -0.5964 -0.9037
22278SOL    HW272672   5.000   0.708   2.481  2.4468  1.3853 -0.6841
22279SOL     OW72673   2.703   1.007  12.146  0.5057 -0.0770 -0.0767
22279SOL    HW172674   2.703   1.101  12.160 -0.0732  0.1975 -1.7038
22279SOL    HW272675   2.633   0.974  12.202  0.7990  0.4151  0.6006
22280SOL     OW72676   4.600   1.395   8.250 -0.3426  0.5965 -0.0482
22280SOL    HW172677   4.608   1.456   8.323  0.6322  2.9147 -1.9628
22280SOL    HW272678   4.554   1.445   8.182 -1.3126 -1.5023 -1.0346
22281SOL     OW72679   9.126   5.304   2.997  0.3116 -0.5447  1.1109
22281SOL    HW172680   9.050   5.342   2.952 -0.0270 -0.2110  1.9436
22281SOL    HW272681   9.099   5.215   3.018  0.4714 -0.7028  0.6706
22282SOL     OW72682   0.564   4.234   7.387 -0.3295  0.0381 -0.0791
22282SOL    HW172683   0.534   4.162   7.442 -0.2127  0.1673  0.1565
22282SOL    HW272684   0.620   4.287   7.445  0.1583 -0.0711 -0.4430
22283SOL     OW72685  11.587   2.292   1.596  0.2388 -0.3728  0.0313
22283SOL    HW172686  11.674   2.256   1.578  0.4780  0.1229  0.1563
22283SOL    HW272687  11.543   2.225   1.648  0.7959 -0.3441  0.5458
22284SOL     OW72688   6.876   8.867   3.816 -0.8379 -0.3554 -0.2029
22284SOL    HW172689   6.966   8.840   3.834 -0.9330 -1.0656 -0.7384
22284SOL    HW272690   6.862   8.844   3.724 -1.2534  0.6550 -0.4071
22285SOL     OW72691  11.242   3.095   9.598 -0.1053 -0.0337  0.0361
22285SOL    HW172692  11.201   3.045   9.668 -0.2731  0.3936  0.2410
22285SOL    HW272693  11.170   3.132   9.548  0.0029 -0.5843 -0.5539
22286SOL     OW72694   5.781   7.331   4.319  0.2544  0.2229 -0.4835
22286SOL    HW172695   5.823   7.393   4.379 -0.5850  1.7888 -1.4442
22286SOL    HW272696   5.816   7.246   4.345  0.7182  0.9529  1.5345
22287SOL     OW72697   5.022   6.939   3.303  0.0063  0.7817 -0.0278
22287SOL    HW172698   5.047   6.883   3.376 -1.3159  0.0177 -0.1217
22287SOL    HW272699   5.078   6.911   3.231 -0.9483 -0.7805 -0.2070
22288SOL     OW72700   7.606   9.148   7.431  0.1399  0.4605 -0.0085
22288SOL    HW172701   7.629   9.104   7.349  0.3455  2.9759 -1.4015
22288SOL    HW272702   7.687   9.149   7.482  0.3763  0.0802 -0.3733
22289SOL     OW72703   8.684   3.939   3.265 -0.2982 -0.3384 -0.1327
22289SOL    HW172704   8.779   3.947   3.255 -0.2065  0.9307  1.3538
22289SOL    HW272705   8.649   4.018   3.223 -0.5560  0.0232  0.7347
22290SOL     OW72706   6.841   7.300   0.899 -0.4386 -0.0350  0.2924
22290SOL    HW172707   6.907   7.275   0.963 -0.0727  0.0909 -0.0356
22290SOL    HW272708   6.883   7.288   0.814 -0.9956 -0.4242  0.0605
22291SOL     OW72709   8.606  10.391   4.357 -0.6480  0.1101 -0.6165
22291SOL    HW172710   8.596  10.484   4.378  0.1998  0.2294 -0.7362
22291SOL    HW272711   8.680  10.362   4.410 -0.0138 -0.1605 -1.6450
22292SOL     OW72712   5.470   8.038   5.126 -0.8365  0.1615 -0.0545
22292SOL    HW172713   5.489   8.019   5.034 -2.4056  1.6606 -0.7471
22292SOL    HW272714   5.537   7.991   5.175 -0.9062 -1.9901 -1.8753
22293SOL     OW72715   4.054  12.282   2.307  0.1537 -0.0673 -0.2013
22293SOL    HW172716   4.148  12.270   2.290  0.5885  2.4443  0.0183
22293SOL    HW272717   4.011  12.233   2.237  1.5896 -1.6450 -0.0513
22294SOL     OW72718   9.849   4.616   2.193  0.2276 -0.1944 -0.0640
22294SOL    HW172719   9.819   4.705   2.209  0.0355 -0.4342  0.9516
22294SOL    HW272720   9.828   4.600   2.101  0.1635  0.7641 -0.2249
22295SOL     OW72721  12.226  11.092  12.041 -0.1321  0.4994 -0.2379
22295SOL    HW172722  12.190  11.124  11.959  2.6490  1.2587 -1.2848
22295SOL    HW272723  12.268  11.169  12.081  0.6949 -0.3745  0.6476
22296SOL     OW72724   6.927   2.230   8.590  0.0949 -0.0366  0.1212
22296SOL    HW172725   6.836   2.254   8.572  0.6367  1.6700 -0.6001
22296SOL    HW272726   6.922   2.159   8.654 -1.7246  0.3590  0.4526
22297SOL     OW72727  12.148   5.859   2.801  0.7766  0.4257 -0.3374
22297SOL    HW172728  12.188   5.910   2.871 -0.2637 -0.0029  0.6102
22297SOL    HW272729  12.201   5.878   2.723  2.4511  0.2786  0.7233
22298SOL     OW72730   1.233   0.510  10.900 -0.6585 -0.3022 -0.8931
22298SOL    HW172731   1.197   0.597  10.913  0.7330 -0.0447  1.9243
22298SOL    HW272732   1.318   0.525  10.859  0.3628 -0.1147  1.1762
22299SOL     OW72733   6.518   1.974   5.561 -0.2096  0.1884 -0.7835
22299SOL    HW172734   6.473   1.891   5.547  0.1853 -0.2300  0.3271
22299SOL    HW272735   6.456   2.026   5.613  0.0872  0.0532 -0.2794
22300SOL     OW72736  10.488   4.579   8.578  0.0407 -0.7821 -0.1025
22300SOL    HW172737  10.493   4.486   8.554  1.6606 -0.9326  0.6384
22300SOL    HW272738  10.408   4.611   8.536 -1.0443 -2.7125  0.3765
22301SOL     OW72739  10.828   3.491   8.722 -0.0495 -0.3340  0.5364
22301SOL    HW172740  10.741   3.528   8.706  0.8432  1.1747 -1.0145
22301SOL    HW272741  10.844   3.508   8.815  0.0356  2.6718  0.0644
22302SOL     OW72742   0.210   6.864   3.511 -0.3135  0.2350 -0.0348
22302SOL    HW172743   0.299   6.856   3.478 -0.1501 -2.6738  0.8339
22302SOL    HW272744   0.202   6.955   3.538  2.5688  0.4665  0.2871
22303SOL     OW72745  11.361  10.555  11.609 -0.3694 -0.2723 -0.3035
22303SOL    HW172746  11.426  10.511  11.664 -1.4632 -2.6013 -0.7909
22303SOL    HW272747  11.413  10.609  11.549  0.9163  0.9863  1.8171
22304SOL     OW72748   5.727   2.712   0.559 -0.3418  0.5548 -0.0928
22304SOL    HW172749   5.788   2.691   0.488 -1.2812 -4.1701  0.1413
22304SOL    HW272750   5.768   2.676   0.638 -2.7386 -1.8327  0.2261
22305SOL     OW72751   8.954  10.184  12.115  0.1347  0.3277 -0.2609
22305SOL    HW172752   8.934  10.190  12.209 -2.1386  1.6506 -0.7560
22305SOL    HW272753   8.974  10.274  12.089  2.5977 -0.2962 -0.7450
22306SOL     OW72754   2.289   1.997  10.988 -0.0313  0.0049 -0.0678
22306SOL    HW172755   2.369   1.978  11.038  1.2894  2.1903 -1.1829
22306SOL    HW272756   2.320   2.045  10.912 -2.3963  0.3930 -0.8528
22307SOL     OW72757  11.838   5.738   0.084  0.7184  0.0820  0.3357
22307SOL    HW172758  11.787   5.817   0.069  0.8413  0.0922 -0.0423
22307SOL    HW272759  11.819   5.714   0.174 -0.8858 -0.6007 -0.1698
22308SOL     OW72760   8.921   4.312  12.008 -0.5609  0.4039 -0.4029
22308SOL    HW172761   8.857   4.242  11.995  0.5156 -0.7986  0.4854
22308SOL    HW272762   8.911   4.339  12.099  0.7387 -0.4159  0.0162
22309SOL     OW72763   0.243   4.014   6.032 -0.1412 -0.3106 -0.7452
22309SOL    HW172764   0.209   4.089   6.080 -1.5465 -0.3103 -1.7096
22309SOL    HW272765   0.252   4.044   5.942 -0.6434 -1.2701 -1.1298
22310SOL     OW72766   2.288   0.887   0.289 -0.0856 -0.1231  0.1885
22310SOL    HW172767   2.345   0.957   0.321  0.8906 -0.5890 -0.4999
22310SOL    HW272768   2.271   0.834   0.367 -2.2349  1.7754  1.1046
22311SOL     OW72769   6.518  10.043   3.933 -0.4400 -0.3680 -0.4109
22311SOL    HW172770   6.581  10.024   4.002 -1.0881 -0.3851  0.1915
22311SOL    HW272771   6.435  10.057   3.979 -0.5480  1.2881 -1.0446
22312SOL     OW72772   3.184   8.391   9.154 -0.4561  0.1114  0.3749
22312SOL    HW172773   3.098   8.391   9.197 -0.3853 -0.4102  0.5261
22312SOL    HW272774   3.227   8.469   9.187 -1.1337  0.7545 -0.2381
22313SOL     OW72775  11.281   9.697   3.584 -0.1758 -0.3346 -0.2752
22313SOL    HW172776  11.245   9.695   3.672  2.0668 -0.6145  0.7089
22313SOL    HW272777  11.333   9.617   3.577  1.0902  0.5113 -1.1952
22314SOL     OW72778   6.199   1.336   2.305 -0.3464  0.3925 -0.4970
22314SOL    HW172779   6.167   1.311   2.218 -1.6241  0.6537 -0.1123
22314SOL    HW272780   6.194   1.255   2.356  1.0236  0.0755 -0.8149
22315SOL     OW72781   7.355   5.232   9.060 -0.3466 -0.3002 -0.0424
22315SOL    HW172782   7.444   5.267   9.062 -0.1639 -0.7327 -0.4030
22315SOL    HW272783   7.361   5.149   9.108 -0.7982  0.1866  0.9006
22316SOL     OW72784  10.438  11.686   0.367  0.0525 -0.5810  0.2814
22316SOL    HW172785  10.429  11.622   0.297  0.6793 -0.8282  0.4203
22316SOL    HW272786  10.372  11.752   0.348  1.6221  0.4979 -1.7511
22317SOL     OW72787   0.543   0.928   0.681  0.0083  0.4072  0.5611
22317SOL    HW172788   0.622   0.949   0.631 -0.4653 -0.3202 -0.5193
22317SOL    HW272789   0.575   0.877   0.756  0.4818 -0.9199 -0.5007
22318SOL     OW72790   3.105   4.264   5.394  0.0013  0.9377  0.0771
22318SOL    HW172791   3.014   4.289   5.410 -1.0764 -2.2485 -0.1886
22318SOL    HW272792   3.124   4.297   5.306 -1.3197  0.7758 -0.3039
22319SOL     OW72793   0.367   0.681   9.306  0.8337  0.8293 -0.3496
22319SOL    HW172794   0.404   0.617   9.246 -0.0027  0.9498 -1.0053
22319SOL    HW272795   0.285   0.708   9.265  0.5869  1.4227  0.5107
22320SOL     OW72796   7.393   0.554   0.720 -0.0954 -0.2299  0.6530
22320SOL    HW172797   7.344   0.482   0.759  1.9991 -3.2342 -1.7568
22320SOL    HW272798   7.352   0.567   0.634  1.0786 -0.3403  0.0506
22321SOL     OW72799  11.581   6.596   3.328  0.0042 -0.5406 -0.1728
22321SOL    HW172800  11.525   6.626   3.399 -1.4292 -1.9765 -0.6442
22321SOL    HW272801  11.551   6.507   3.308 -0.2150  0.0695 -3.0879
22322SOL     OW72802   7.854  11.562   5.332 -0.2027  0.3761 -0.4116
22322SOL    HW172803   7.772  11.532   5.372 -0.2650  0.9602 -0.0917
22322SOL    HW272804   7.868  11.502   5.259 -0.9983  0.3652 -0.5646
22323SOL     OW72805   9.667   6.483   3.179  0.0892 -0.4765 -0.6065
22323SOL    HW172806   9.719   6.481   3.099  0.4263 -2.4885 -0.3867
22323SOL    HW272807   9.731   6.466   3.249 -0.4406 -0.2407 -0.0615
22324SOL     OW72808   5.108   5.938   9.126 -0.0788  0.8949 -0.1023
22324SOL    HW172809   5.178   5.923   9.062  1.0380  0.8590  1.0899
22324SOL    HW272810   5.150   5.989   9.196 -1.0780  0.3309  0.9356
22325SOL     OW72811   4.786  11.240   8.768 -0.0197 -0.9428  0.1715
22325SOL    HW172812   4.774  11.334   8.753 -1.3465 -1.2050 -0.5579
22325SOL    HW272813   4.745  11.224   8.853  0.5047 -0.8129  0.4520
22326SOL     OW72814   6.408   8.988   3.281  0.0841  0.1239 -0.1266
22326SOL    HW172815   6.469   8.971   3.209 -0.2527 -1.3909 -0.0796
22326SOL    HW272816   6.343   9.048   3.244  0.9812  0.8893 -0.4964
22327SOL     OW72817   1.650   6.611  10.465  0.9469 -0.7177  0.5481
22327SOL    HW172818   1.586   6.679  10.443  1.8206 -0.8277 -2.9634
22327SOL    HW272819   1.722   6.658  10.506  0.9498  0.3227 -0.5883
22328SOL     OW72820   5.663   2.738   7.701  0.1548 -0.0762 -0.1920
22328SOL    HW172821   5.642   2.649   7.676 -0.0062  0.1723 -0.9859
22328SOL    HW272822   5.737   2.762   7.644  2.1120 -0.6610  1.9765
22329SOL     OW72823   5.906   3.963   4.599  0.4944 -0.5496  0.2478
22329SOL    HW172824   5.930   3.871   4.611 -1.0584 -1.1765 -1.0622
22329SOL    HW272825   5.825   3.974   4.650  0.7631  0.1447  0.5385
22330SOL     OW72826   7.686   8.242   7.048  0.4505  0.3339 -0.3643
22330SOL    HW172827   7.656   8.165   7.001  1.7334  0.8860 -2.2127
22330SOL    HW272828   7.672   8.221   7.141  0.4982 -1.9803 -0.8203
22331SOL     OW72829   8.319   3.577  11.548  0.1790 -0.6577  0.5722
22331SOL    HW172830   8.325   3.491  11.507 -0.9579 -0.5990  0.2629
22331SOL    HW272831   8.401   3.586  11.597  0.7522 -1.4857 -0.2146
22332SOL     OW72832   6.892   0.368   7.035  0.6229 -0.1379  0.6840
22332SOL    HW172833   6.878   0.294   6.975  3.3659  1.4466 -2.2574
22332SOL    HW272834   6.955   0.336   7.099 -0.3534 -1.1159  1.1795
22333SOL     OW72835  10.603   3.513   7.795  0.0002 -0.3704 -0.0665
22333SOL    HW172836  10.692   3.527   7.828  0.0665 -1.0956  0.0910
22333SOL    HW272837  10.560   3.463   7.864 -0.6635  0.3286  0.0376
22334SOL     OW72838   7.662   2.539   8.141 -0.0740  0.1293 -0.0573
22334SOL    HW172839   7.590   2.602   8.144 -0.7338 -0.6301  0.6803
22334SOL    HW272840   7.714   2.558   8.219  1.7489  2.0296 -1.6494
22335SOL     OW72841   1.819   3.240   4.789 -0.2453 -0.1330 -0.3110
22335SOL    HW172842   1.786   3.165   4.740 -0.2274 -2.0661  2.4087
22335SOL    HW272843   1.742   3.294   4.805 -0.9505 -1.3561  0.5845
22336SOL     OW72844   9.676   8.950  12.156 -0.4235  0.4564  0.3523
22336SOL    HW172845   9.769   8.970  12.147 -0.1672 -0.4577  0.8652
22336SOL    HW272846   9.636   8.985  12.075  0.6085 -0.5711 -0.6374
22337SOL     OW72847   8.076   0.685   6.146  0.7438 -0.0863  0.5261
22337SOL    HW172848   8.026   0.756   6.185  0.8295  0.2102  0.0983
22337SOL    HW272849   8.041   0.606   6.187  0.1149  0.1379  0.4338
22338SOL     OW72850   8.247  12.128   7.113  0.1097  0.1325 -0.5494
22338SOL    HW172851   8.306  12.053   7.127  0.6292  0.6331  0.0241
22338SOL    HW272852   8.162  12.097   7.144  0.6013  0.1936  0.9552
22339SOL     OW72853   4.095   1.196   6.364 -0.0891 -0.0055  0.1660
22339SOL    HW172854   4.135   1.134   6.304 -2.2301  1.0248 -2.5274
22339SOL    HW272855   4.161   1.264   6.376  0.2813 -0.0792 -1.3001
22340SOL     OW72856   5.315  11.935   0.063  0.0762  0.1687  0.1091
22340SOL    HW172857   5.306  11.985   0.144  0.1011 -1.2905  1.0441
22340SOL    HW272858   5.378  11.866   0.085  0.0366 -0.2827 -1.1469
22341SOL     OW72859  11.004  11.813  11.215 -0.8554 -0.6916  0.1234
22341SOL    HW172860  11.072  11.779  11.157  0.0187  0.6286  0.3437
22341SOL    HW272861  10.925  11.816  11.160  0.1400  1.3615 -1.3488
22342SOL     OW72862   9.182   8.946   7.367  0.1182 -0.0874 -0.1377
22342SOL    HW172863   9.251   9.012   7.367 -1.7734  2.0177 -0.4835
22342SOL    HW272864   9.199   8.893   7.289  1.2454  0.4990 -0.2993
22343SOL     OW72865   9.362   8.576   2.163  0.7765 -0.5627  0.6135
22343SOL    HW172866   9.333   8.635   2.093 -0.2643  0.1597  1.6066
22343SOL    HW272867   9.457   8.580   2.161  0.7455  1.5623  0.9362
22344SOL     OW72868  11.604   4.283  12.091 -0.3846  0.5698 -0.1633
22344SOL    HW172869  11.690   4.324  12.079 -0.1054  0.4626  1.3309
22344SOL    HW272870  11.620   4.211  12.151 -1.0696 -1.1598 -1.9293
22345SOL     OW72871   0.601   1.628  11.565 -0.4352 -0.3094 -1.0017
22345SOL    HW172872   0.571   1.544  11.530 -0.4620 -1.0315  0.6411
22345SOL    HW272873   0.696   1.622  11.565 -0.4288 -1.3136  1.1612
22346SOL     OW72874  12.029   1.133  11.003  0.2858 -0.1112  0.4888
22346SOL    HW172875  12.078   1.058  11.038 -2.0651 -0.9987  2.1638
22346SOL    HW272876  12.014   1.110  10.911  0.6899 -1.1076  0.6534
22347SOL     OW72877   2.897  12.281   9.832 -0.4443  0.2809  0.3253
22347SOL    HW172878   2.936  12.240   9.755 -2.7558  1.1144 -1.4185
22347SOL    HW272879   2.869  12.208   9.887  0.3347 -0.3524 -0.0947
22348SOL     OW72880   2.541   8.844   8.775 -0.2104 -0.0832  0.0730
22348SOL    HW172881   2.571   8.897   8.701  0.1155 -1.6744 -0.9754
22348SOL    HW272882   2.526   8.757   8.738 -1.2222 -0.6178  1.6421
22349SOL     OW72883   1.448  10.144   8.785  0.1573 -0.3774  0.0212
22349SOL    HW172884   1.436  10.050   8.773 -2.2714 -0.0947 -0.3235
22349SOL    HW272885   1.519  10.168   8.726 -1.4800 -1.4751 -2.5485
22350SOL     OW72886  11.027   6.639  11.641  0.1239  0.0706  0.6898
22350SOL    HW172887  11.040   6.610  11.551 -0.4898 -1.5054  1.0645
22350SOL    HW272888  11.104   6.693  11.660  1.0536 -0.8372 -0.2909
22351SOL     OW72889   7.850   6.856   0.762  0.0080  0.0660  0.0925
22351SOL    HW172890   7.938   6.850   0.725  0.1688 -0.5498  0.5622
22351SOL    HW272891   7.839   6.775   0.812 -0.2703  0.7700  1.2308
22352SOL     OW72892   8.671   0.565   1.651 -0.4684  0.2967 -0.1017
22352SOL    HW172893   8.642   0.654   1.669 -1.2120 -0.3125  2.0022
22352SOL    HW272894   8.760   0.561   1.686 -0.2174  0.3424 -0.7107
22353SOL     OW72895  10.430   9.516   3.204 -0.0097  0.0016 -0.0982
22353SOL    HW172896  10.450   9.482   3.291  0.6311 -0.3154 -0.3669
22353SOL    HW272897  10.510   9.562   3.178 -0.4799  0.7827 -0.1930
22354SOL     OW72898  10.536   5.492   8.015 -0.1737  0.2890  0.2487
22354SOL    HW172899  10.530   5.587   8.026 -1.4506  0.3732 -0.8633
22354SOL    HW272900  10.446   5.462   8.027  0.5979 -1.1684  3.4197
22355SOL     OW72901   3.983   1.235   0.616  0.2566 -0.0174  0.4539
22355SOL    HW172902   3.965   1.197   0.702  2.4705  0.6158  1.2737
22355SOL    HW272903   3.927   1.313   0.612 -0.3630 -0.4199  1.0017
22356SOL     OW72904  11.311   1.440   9.662 -0.1974  0.2252  0.7359
22356SOL    HW172905  11.370   1.381   9.709  0.3083  0.2717  0.1641
22356SOL    HW272906  11.364   1.477   9.591 -1.7734 -2.6588 -2.2766
22357SOL     OW72907   1.930   6.765   5.918  0.1090  0.0601  0.2263
22357SOL    HW172908   1.970   6.755   6.005 -2.3564  1.2506  1.6099
22357SOL    HW272909   1.890   6.851   5.920 -1.9934 -0.8086 -1.1981
22358SOL     OW72910   4.731   4.710   9.026  0.3805  0.6252  0.1238
22358SOL    HW172911   4.658   4.771   9.038 -0.2957 -0.1306 -0.0443
22358SOL    HW272912   4.718   4.644   9.093 -1.6179 -1.9122 -2.5225
22359SOL     OW72913   5.897   2.914   4.481 -0.1598 -0.4149 -0.1072
22359SOL    HW172914   5.833   2.931   4.411  0.9035 -0.3876 -1.0951
22359SOL    HW272915   5.843   2.905   4.560 -1.5932 -2.4621 -1.2286
22360SOL     OW72916   0.847   8.337   9.638 -0.0170 -0.5889 -0.1442
22360SOL    HW172917   0.839   8.322   9.732  1.0925  1.4086  0.3251
22360SOL    HW272918   0.757   8.335   9.605 -0.6144  0.5464  1.3160
22361SOL     OW72919   3.278   1.756   7.868 -0.3730  0.4519 -0.2971
22361SOL    HW172920   3.282   1.851   7.872 -1.5557  0.4904  2.2655
22361SOL    HW272921   3.198   1.733   7.915 -0.2376 -1.8010 -1.0417
22362SOL     OW72922   1.424   2.987   8.326  0.2151 -0.3354 -0.1452
22362SOL    HW172923   1.432   2.894   8.346  0.0632 -0.5878 -1.1787
22362SOL    HW272924   1.495   3.029   8.375 -0.0694 -0.9126  0.7856
22363SOL     OW72925  11.718  12.039   5.108  0.5898 -0.8052 -0.0021
22363SOL    HW172926  11.792  12.040   5.169  0.3119 -1.0927  0.3444
22363SOL    HW272927  11.743  11.975   5.041  0.3049 -1.5201  0.5611
22364SOL     OW72928   6.923  11.483   1.638 -0.3554 -0.0468 -0.0585
22364SOL    HW172929   6.893  11.511   1.551 -1.9567 -1.3876  0.0121
22364SOL    HW272930   6.900  11.556   1.696  1.4934  1.2326 -0.8335
22365SOL     OW72931  10.604   8.189  11.649  0.1696  0.6047  0.4109
22365SOL    HW172932  10.578   8.101  11.675  0.5961  0.9357  2.0622
22365SOL    HW272933  10.528   8.222  11.600  0.1987 -0.8296 -0.6623
22366SOL     OW72934   8.020   1.458   7.237 -0.1788 -0.2365  0.1252
22366SOL    HW172935   8.086   1.502   7.183  2.4788 -1.1409  2.4134
22366SOL    HW272936   8.054   1.369   7.249 -1.1029 -0.3547  2.4309
22367SOL     OW72937   7.392   0.603  10.454  1.2566  0.0478  0.1967
22367SOL    HW172938   7.459   0.548  10.494  1.2345 -0.7518 -0.8224
22367SOL    HW272939   7.422   0.617  10.364  1.3286  1.8501  0.4560
22368SOL     OW72940   0.738   5.738   2.699 -0.2066 -0.3536  0.7675
22368SOL    HW172941   0.771   5.782   2.621  1.3413 -0.3344  1.3927
22368SOL    HW272942   0.727   5.647   2.672  0.1102 -0.3047  0.4640
22369SOL     OW72943  10.134   4.839   3.584 -0.1235  0.0150  0.6960
22369SOL    HW172944  10.142   4.792   3.501  1.1363 -0.5316  1.1052
22369SOL    HW272945  10.110   4.928   3.560 -0.0296 -0.2077 -0.2397
22370SOL     OW72946   2.719   2.743   9.891 -0.2796  0.1425 -0.5426
22370SOL    HW172947   2.676   2.683   9.830 -0.5953  1.6495 -1.8577
22370SOL    HW272948   2.731   2.691   9.970 -1.8364 -1.2204 -1.1380
22371SOL     OW72949   4.681  10.568   9.387  0.1543  0.3815 -0.3240
22371SOL    HW172950   4.596  10.587   9.347 -0.3889 -0.0004  0.6202
22371SOL    HW272951   4.712  10.652   9.420 -0.4017  0.3237  0.3542
22372SOL     OW72952   2.180   4.826   1.294 -0.1505  0.0350 -0.2753
22372SOL    HW172953   2.088   4.810   1.274 -0.1931 -0.0521 -0.0150
22372SOL    HW272954   2.226   4.813   1.211 -0.3491 -0.1074 -0.3629
22373SOL     OW72955   7.484   1.082   0.238  0.2505  0.1585 -0.4624
22373SOL    HW172956   7.417   1.103   0.173 -1.0958  0.4477  0.9465
22373SOL    HW272957   7.510   0.993   0.218 -0.8404 -0.0903 -0.8328
22374SOL     OW72958   9.307   2.765   7.348  0.3824 -0.1944 -0.3362
22374SOL    HW172959   9.324   2.765   7.254  0.7854 -2.2566 -0.3155
22374SOL    HW272960   9.272   2.677   7.366 -3.0457  1.2655  0.8990
22375SOL     OW72961   4.576   8.909   6.951 -0.0917  0.1224  0.4890
22375SOL    HW172962   4.617   8.968   7.015  0.6041 -0.5321  0.6596
22375SOL    HW272963   4.491   8.887   6.989  0.2132 -0.0624  1.0753
22376SOL     OW72964   6.613   0.945   7.327  0.1432  0.1185  0.4839
22376SOL    HW172965   6.669   1.007   7.374 -1.3880  1.9872 -0.0316
22376SOL    HW272966   6.573   0.893   7.396  2.7093 -1.5339  0.8534
22377SOL     OW72967   1.241   7.643   1.775  0.1719 -0.3587  0.1524
22377SOL    HW172968   1.193   7.722   1.799  0.6506 -0.0826  0.2142
22377SOL    HW272969   1.173   7.580   1.752 -0.3200 -0.6344  2.1795
22378SOL     OW72970   0.334   2.814   4.477 -0.1732  0.3024  0.3866
22378SOL    HW172971   0.428   2.801   4.471  0.1713  2.5605 -0.2558
22378SOL    HW272972   0.306   2.828   4.387 -0.9863  0.4728  0.6555
22379SOL     OW72973   3.300   6.073   7.983 -0.3038  0.3274  0.1115
22379SOL    HW172974   3.250   6.113   7.912  0.2405 -0.3871 -0.6969
22379SOL    HW272975   3.389   6.105   7.970  0.3712 -1.8279 -1.1603
22380SOL     OW72976   0.765   1.046   3.149  0.0855 -0.1262  0.5728
22380SOL    HW172977   0.856   1.018   3.159  0.9719  2.2848 -0.0504
22380SOL    HW272978   0.758   1.124   3.203 -1.4296  0.1255  0.0632
22381SOL     OW72979   0.265   1.202   0.201 -0.4850 -0.3436  0.7309
22381SOL    HW172980   0.286   1.279   0.149 -2.0483 -0.2325  0.2154
22381SOL    HW272981   0.171   1.188   0.187 -0.3507 -2.0106  1.2527
22382SOL     OW72982  12.173   2.885   2.173  0.2846 -0.3515  0.3109
22382SOL    HW172983  12.175   2.809   2.231 -1.9460  0.8854  2.1357
22382SOL    HW272984  12.266   2.906   2.160  0.9270 -2.5226  0.8718
22383SOL     OW72985   7.347  11.707  11.670  0.0439  0.3235 -0.3460
22383SOL    HW172986   7.261  11.715  11.713 -0.3435 -0.2127 -0.9994
22383SOL    HW272987   7.326  11.696  11.577  0.7646 -1.5055 -0.3215
22384SOL     OW72988   3.963   8.029  12.084 -0.1049 -0.7054 -0.2763
22384SOL    HW172989   3.956   8.099  12.149 -0.9172 -0.4217 -0.6597
22384SOL    HW272990   3.873   8.010  12.058  0.1432 -1.5058 -0.5933
22385SOL     OW72991  10.327   9.414   2.759  0.3792  0.1941  0.0464
22385SOL    HW172992  10.298   9.469   2.832 -1.3217 -1.1143  0.4457
22385SOL    HW272993  10.301   9.463   2.681  0.8296  0.9195  0.3417
22386SOL     OW72994   1.244   2.521   7.307 -0.6860  0.1424 -0.0698
22386SOL    HW172995   1.244   2.598   7.251  0.6279  1.1552  1.2255
22386SOL    HW272996   1.296   2.547   7.383 -0.9059 -1.7570  0.7934
22387SOL     OW72997   5.758   4.724  11.615  0.2845 -0.3326 -0.6989
22387SOL    HW172998   5.833   4.669  11.638  1.0613  1.4378  1.3161
22387SOL    HW272999   5.789   4.777  11.541  0.7417 -0.1654 -0.3892
22388SOL     OW73000  12.301   5.575   4.354 -0.0721 -0.0919 -0.2939
22388SOL    HW173001  12.396   5.586   4.349 -0.0777  0.2203  0.2144
22388SOL    HW273002  12.283   5.559   4.446 -0.4566 -0.7265 -0.4730
22389SOL     OW73003  11.494   5.968   3.169 -0.0752  0.4214 -0.3623
22389SOL    HW173004  11.462   5.913   3.097 -1.1726  0.2631  0.2318
22389SOL    HW273005  11.562   6.023   3.128 -1.3034  0.9796 -1.7396
22390SOL     OW73006   0.349  12.314   8.573 -0.0994  0.0877 -0.1398
22390SOL    HW173007   0.422  12.323   8.512  0.1922 -0.2234  0.1564
22390SOL    HW273008   0.369  12.376   8.643 -0.0017 -0.1562  0.0513
22391SOL     OW73009  10.616   0.777  11.058  0.2023 -0.3944  0.2211
22391SOL    HW173010  10.709   0.799  11.049  0.1760 -0.8334 -1.4099
22391SOL    HW273011  10.615   0.699  11.113  0.6800  0.3913  1.3913
22392SOL     OW73012   2.101   6.543   6.063  0.0902 -0.7664  0.4955
22392SOL    HW173013   2.182   6.518   6.019  0.7413 -0.4787  1.4981
22392SOL    HW273014   2.078   6.465   6.115 -0.1361 -0.7573  0.4073
22393SOL     OW73015   9.929   1.180   2.564  0.2079  0.1670  0.2655
22393SOL    HW173016   9.931   1.145   2.653 -1.7650  0.5407  0.5054
22393SOL    HW273017   9.904   1.271   2.574 -1.8224 -0.2241 -0.7280
22394SOL     OW73018   5.043   7.489   0.421  0.2734 -0.3375  0.1782
22394SOL    HW173019   5.024   7.466   0.512 -1.0558 -1.4720 -0.3467
22394SOL    HW273020   4.962   7.527   0.389  1.1178  1.2396 -0.2195
22395SOL     OW73021   5.629   9.593  11.997  0.5549 -0.3196  0.4233
22395SOL    HW173022   5.553   9.652  11.995 -0.0272 -1.0703 -0.2538
22395SOL    HW273023   5.606   9.522  11.937  1.5683 -0.8460  0.6335
22396SOL     OW73024   3.683  10.334  11.620 -0.6795  0.3850  0.2432
22396SOL    HW173025   3.760  10.366  11.572 -1.0710  0.6380 -0.2155
22396SOL    HW273026   3.608  10.361  11.567 -1.0669 -0.2799  0.4492
22397SOL     OW73027   1.713  11.756   7.134 -1.1433  0.0666  0.1547
22397SOL    HW173028   1.714  11.689   7.066 -0.0411  2.1927 -2.0795
22397SOL    HW273029   1.773  11.824   7.102 -0.8934  1.3733  3.0868
22398SOL     OW73030   6.795   1.826   7.473  0.5885  0.2490  0.6882
22398SOL    HW173031   6.811   1.848   7.565 -2.5177 -0.4595  1.5066
22398SOL    HW273032   6.774   1.910   7.432  1.1074  0.4381  0.7920
22399SOL     OW73033   5.911  10.872  11.920  0.1158 -0.1252  0.3642
22399SOL    HW173034   5.982  10.847  11.861 -1.3246  0.7287 -1.8733
22399SOL    HW273035   5.845  10.803  11.907 -0.4618  0.3933  0.5304
22400SOL     OW73036  10.032   7.322   0.453 -0.2844 -0.0138 -0.4480
22400SOL    HW173037  10.032   7.236   0.412 -3.5258  0.4293 -1.6420
22400SOL    HW273038  10.102   7.318   0.518 -0.4903 -3.6221 -0.2781
22401SOL     OW73039   6.168   2.834   4.772  0.0129 -0.0643 -0.0918
22401SOL    HW173040   6.153   2.921   4.810 -0.4995 -0.4267  0.5485
22401SOL    HW273041   6.080   2.803   4.750  0.1938 -0.4398 -0.2762
22402SOL     OW73042  10.722   2.732   8.388 -0.3526  0.2296 -0.1377
22402SOL    HW173043  10.738   2.685   8.306 -0.7075 -0.7194  0.3164
22402SOL    HW273044  10.756   2.673   8.456 -0.6853  0.6981  0.4436
22403SOL     OW73045  10.834   3.410   1.930  0.4528 -0.3868 -0.6892
22403SOL    HW173046  10.801   3.392   2.018  3.0872 -2.0181  0.0872
22403SOL    HW273047  10.799   3.338   1.876  1.2990 -1.1429 -0.2525
22404SOL     OW73048   7.475   8.287   9.491 -0.0623 -0.4444 -0.6069
22404SOL    HW173049   7.462   8.364   9.548 -0.4457 -1.7385  1.1438
22404SOL    HW273050   7.535   8.318   9.423 -0.8098  1.6206 -0.4237
22405SOL     OW73051   7.261  11.897   1.479  0.1194  0.3452  0.5072
22405SOL    HW173052   7.301  11.813   1.457 -1.2887 -0.6135  1.4254
22405SOL    HW273053   7.300  11.921   1.563 -2.0384 -1.2560  2.0853
22406SOL     OW73054   2.184   2.202   1.074  0.2098 -0.1933  0.7425
22406SOL    HW173055   2.154   2.204   1.165 -0.1918  2.0287  0.6280
22406SOL    HW273056   2.172   2.292   1.043  1.2960 -0.6585 -1.2071
22407SOL     OW73057  11.202   7.456   4.960  0.7166  0.0570 -0.1211
22407SOL    HW173058  11.200   7.450   4.865  0.2245  2.5752 -0.3465
22407SOL    HW273059  11.124   7.408   4.989  1.5333 -1.7806 -0.8617
22408SOL     OW73060   8.123   8.115   1.017  0.0388  0.2542 -0.0224
22408SOL    HW173061   8.094   8.128   0.926 -0.0946 -0.8622 -0.1507
22408SOL    HW273062   8.159   8.027   1.018 -0.0152  0.2371  1.0292
22409SOL     OW73063  10.197   8.870   9.315 -0.0376 -0.3575 -0.1158
22409SOL    HW173064  10.219   8.808   9.245 -1.2538 -0.2465 -0.6295
22409SOL    HW273065  10.129   8.925   9.277  2.0235  2.3219 -0.2024
22410SOL     OW73066   8.688   2.290   3.202 -0.4782  0.6071 -0.1753
22410SOL    HW173067   8.782   2.275   3.197 -0.3485  1.5949 -1.5329
22410SOL    HW273068   8.671   2.359   3.136 -2.1285  0.4953  0.0745
22411SOL     OW73069   3.492   0.616  12.132  0.1476  0.2102 -0.2086
22411SOL    HW173070   3.539   0.637  12.213 -0.8365  0.3355  0.3423
22411SOL    HW273071   3.437   0.541  12.155  1.2254 -0.9615 -1.2723
22412SOL     OW73072   0.697   6.191   1.335 -0.8055  0.5933 -0.0091
22412SOL    HW173073   0.621   6.156   1.382 -2.0554  2.8882 -0.1803
22412SOL    HW273074   0.670   6.189   1.243  0.9842 -2.3225 -0.5959
22413SOL     OW73075   3.576   1.649   3.858 -0.2482  0.1781 -0.3100
22413SOL    HW173076   3.523   1.695   3.923 -0.7382 -0.2916 -0.3722
22413SOL    HW273077   3.666   1.662   3.887 -0.3278  1.6973 -0.6580
22414SOL     OW73078   8.935   7.073   6.311  0.1028  0.0172 -0.1845
22414SOL    HW173079   8.925   7.136   6.382 -1.5873  0.4533 -0.7820
22414SOL    HW273080   8.885   6.996   6.340 -0.4098  0.1151 -0.7968
22415SOL     OW73081   5.071  10.726   0.511  0.4763 -0.5626  0.0199
22415SOL    HW173082   5.157  10.758   0.539  1.2298 -2.8790  0.5971
22415SOL    HW273083   5.089  10.640   0.472 -1.7481 -1.9965  1.9211
22416SOL     OW73084   1.558  11.374   4.283 -0.2380 -0.1007  0.4375
22416SOL    HW173085   1.650  11.393   4.303  0.0814  0.4675 -1.4214
22416SOL    HW273086   1.558  11.281   4.261 -0.1550 -0.1423  0.6073
22417SOL     OW73087   7.106   4.683   8.166  0.1493  0.0387 -0.4913
22417SOL    HW173088   7.025   4.732   8.180  0.5532  0.0356  2.4394
22417SOL    HW273089   7.083   4.592   8.185  0.8549  0.0775  0.6579
22418SOL     OW73090   6.712   6.156   8.632  0.0865  0.0985 -0.1639
22418SOL    HW173091   6.736   6.248   8.621 -1.2335  0.5629  0.6723
22418SOL    HW273092   6.617   6.156   8.628  0.0494 -1.1546  0.4868
22419SOL     OW73093   1.792   5.002   6.427  0.1250 -0.6527 -0.4949
22419SOL    HW173094   1.717   5.059   6.447 -0.2365 -0.7217 -1.6105
22419SOL    HW273095   1.781   4.979   6.335  1.2733 -1.0466 -0.5454
22420SOL     OW73096   7.765   5.852   4.279 -0.4873 -0.2588 -0.0434
22420SOL    HW173097   7.824   5.844   4.203  0.0519  0.6543  0.2664
22420SOL    HW273098   7.812   5.908   4.340 -2.4523  2.0951 -0.5488
22421SOL     OW73099   7.244   6.829   6.690 -0.1685 -0.0626 -0.1291
22421SOL    HW173100   7.177   6.857   6.752  0.1530  2.7784 -0.9071
22421SOL    HW273101   7.233   6.887   6.614  0.6678 -2.1308 -1.9647
22422SOL     OW73102   0.081  12.027   2.912  0.1030  0.2406 -0.1984
22422SOL    HW173103   0.099  11.978   2.831  1.6143 -0.4422  0.5059
22422SOL    HW273104   0.110  11.968   2.982  0.3244  1.4537  0.7602
22423SOL     OW73105  10.618   2.915   1.786  0.2754  0.5599 -0.3257
22423SOL    HW173106  10.532   2.917   1.827  0.5333  0.3352  0.2337
22423SOL    HW273107  10.609   2.968   1.707 -0.0757  1.4466  0.3001
22424SOL     OW73108   8.829   2.481   9.559 -0.1521  0.3802  0.1146
22424SOL    HW173109   8.887   2.553   9.584 -0.9797  0.3970  2.1543
22424SOL    HW273110   8.866   2.405   9.603  0.2087 -0.2900 -1.3146
22425SOL     OW73111   4.609   8.276   4.639 -0.3951 -0.3640 -0.4074
22425SOL    HW173112   4.587   8.183   4.636 -0.1314 -0.4288 -0.3272
22425SOL    HW273113   4.692   8.280   4.687  0.0644 -0.1770 -1.2000
22426SOL     OW73114  11.895   8.840   9.900 -0.1137  0.2219 -0.1363
22426SOL    HW173115  11.950   8.801   9.968 -0.5243  0.7493  0.5107
22426SOL    HW273116  11.807   8.808   9.919 -0.7269  2.4973  1.2725
22427SOL     OW73117  11.838   5.178   7.181 -0.1781 -0.6825  0.0534
22427SOL    HW173118  11.846   5.104   7.121 -1.4569 -0.7962  0.0068
22427SOL    HW273119  11.752   5.216   7.163  0.2556  0.5263  0.4149
22428SOL     OW73120   9.507   0.279   3.540  0.1518  0.2987  0.3149
22428SOL    HW173121   9.468   0.247   3.458  1.8619  1.4281 -1.0089
22428SOL    HW273122   9.432   0.307   3.592 -0.9459  0.4660 -1.2648
22429SOL     OW73123   8.476   5.341   7.646 -0.3660 -0.1381  0.1132
22429SOL    HW173124   8.568   5.366   7.651 -0.3443  0.0103 -0.8578
22429SOL    HW273125   8.450   5.327   7.737  0.6202 -0.2065  0.3983
22430SOL     OW73126   6.022   9.602   6.283 -0.4717 -0.3391 -0.1753
22430SOL    HW173127   5.931   9.616   6.259  0.2446  1.2314 -2.3519
22430SOL    HW273128   6.034   9.507   6.276 -1.9575 -0.5789  0.2860
22431SOL     OW73129  11.757   0.916   3.748  0.1431 -0.2623  0.7649
22431SOL    HW173130  11.723   0.836   3.708 -0.0334  0.3306 -0.2922
22431SOL    HW273131  11.697   0.933   3.821 -0.1502 -0.7854  0.6510
22432SOL     OW73132   9.406   5.975   1.123 -0.0246  0.1185 -0.1523
22432SOL    HW173133   9.339   6.011   1.181  0.2665  0.3935  0.0194
22432SOL    HW273134   9.412   5.883   1.147  0.0898  0.2289  0.2530
22433SOL     OW73135  11.369   1.648   6.306 -0.1772 -0.1811  0.2675
22433SOL    HW173136  11.361   1.701   6.227  1.4992  1.4308  1.1245
22433SOL    HW273137  11.311   1.690   6.370  1.0596  0.5854  0.9106
22434SOL     OW73138   0.180  10.005   1.366 -0.0516  0.1125 -0.3249
22434SOL    HW173139   0.162  10.038   1.278  1.2319 -0.8344 -0.9741
22434SOL    HW273140   0.096  10.010   1.411 -0.2303  2.8777 -0.8160
22435SOL     OW73141  10.773  11.664   3.611  0.1360  0.8221  0.2222
22435SOL    HW173142  10.758  11.752   3.578 -1.5906  0.5323  0.1779
22435SOL    HW273143  10.751  11.669   3.704 -1.7666  0.0468 -0.1476
22436SOL     OW73144   7.675   5.689   5.786 -0.3026 -0.2916  0.2141
22436SOL    HW173145   7.648   5.771   5.829 -1.1747  0.5047 -1.7272
22436SOL    HW273146   7.740   5.717   5.722 -0.9771 -1.0158 -0.8207
22437SOL     OW73147   7.032   7.448   7.921  0.8250  0.4508  0.3374
22437SOL    HW173148   6.954   7.429   7.973  0.8008  0.4868  0.3149
22437SOL    HW273149   6.999   7.468   7.834  1.0169 -1.6752 -0.2563
22438SOL     OW73150   5.842   0.763   8.966 -0.5430  0.1124  0.3295
22438SOL    HW173151   5.779   0.832   8.985 -1.0722  0.5550 -2.5246
22438SOL    HW273152   5.818   0.691   9.025 -2.0013  1.2189  1.1483
22439SOL     OW73153  11.308  10.510   7.132  0.4296  0.4925  0.6681
22439SOL    HW173154  11.281  10.434   7.184  0.4404  0.1915  0.2362
22439SOL    HW273155  11.403  10.508   7.133  0.4326  0.2069  0.2410
22440SOL     OW73156   3.868   6.360   9.984 -0.4322 -0.2996  0.3394
22440SOL    HW173157   3.882   6.331  10.074  1.2552  0.4330  0.3328
22440SOL    HW273158   3.801   6.428   9.991  1.0410  1.1183  1.3214
22441SOL     OW73159   3.017  10.947   8.526 -0.1881  0.3612 -0.0097
22441SOL    HW173160   3.106  10.956   8.491 -1.2540  2.4431 -2.5534
22441SOL    HW273161   3.027  10.961   8.620  2.1881  0.3174 -0.1839
22442SOL     OW73162   3.652   2.697   5.104 -0.3339  0.0109  0.2704
22442SOL    HW173163   3.713   2.684   5.032 -0.0676  1.1356  0.2616
22442SOL    HW273164   3.578   2.743   5.065 -0.5749 -0.1483  0.5377
22443SOL     OW73165   3.751   6.526   5.767 -0.4398  0.3148 -0.5040
22443SOL    HW173166   3.669   6.573   5.761 -0.9370 -0.4620  0.0233
22443SOL    HW273167   3.727   6.438   5.795  0.7293  0.6269  1.7293
22444SOL     OW73168   2.453  10.238   6.761 -0.6551 -0.4854 -0.0726
22444SOL    HW173169   2.406  10.309   6.719 -1.1949 -0.8588 -0.1116
22444SOL    HW273170   2.536  10.232   6.714 -0.9218 -0.3751 -0.5585
22445SOL     OW73171   7.089   4.838   6.716 -0.1950  0.1252 -0.9278
22445SOL    HW173172   7.152   4.767   6.710  0.4008  0.6382 -0.7993
22445SOL    HW273173   7.076   4.851   6.810 -1.0913 -0.4903 -0.9486
22446SOL     OW73174  11.007  10.849   3.498 -0.1384  0.3473  0.3461
22446SOL    HW173175  11.046  10.863   3.412 -1.2849 -1.8368 -0.5999
22446SOL    HW273176  11.041  10.921   3.552  0.6783  1.7255 -1.8780
22447SOL     OW73177   5.914   7.158   8.719 -0.6898 -0.0053  0.1291
22447SOL    HW173178   5.842   7.130   8.663 -0.2352  1.0932 -1.0552
22447SOL    HW273179   5.929   7.249   8.695  0.6284 -0.0027  0.8539
22448SOL     OW73180   2.056   9.698   6.567 -0.1981  0.2928  0.3518
22448SOL    HW173181   1.996   9.771   6.550 -0.8267 -0.2825  0.0771
22448SOL    HW273182   2.001   9.620   6.565  0.6449 -0.3095 -0.5422
22449SOL     OW73183   2.214   2.417   7.982  0.2244 -0.1990 -0.6180
22449SOL    HW173184   2.211   2.490   8.044  2.2441  0.4579 -1.2054
22449SOL    HW273185   2.153   2.352   8.017 -0.2452  1.0109  0.9003
22450SOL     OW73186   4.451  10.065   6.407  0.1480 -0.0497  0.1810
22450SOL    HW173187   4.362  10.032   6.415 -0.1756  0.8136  0.3071
22450SOL    HW273188   4.452  10.113   6.324  0.4422  0.1051  0.2702
22451SOL     OW73189   5.548   4.476  11.752 -0.2312  0.2145 -0.1438
22451SOL    HW173190   5.600   4.397  11.766  1.6916  1.5003  0.3224
22451SOL    HW273191   5.536   4.481  11.657 -0.3750 -0.6296 -0.1741
22452SOL     OW73192   8.193   1.478  11.861 -0.0700  0.1069 -0.0086
22452SOL    HW173193   8.199   1.425  11.940  0.4562 -0.6957 -0.5667
22452SOL    HW273194   8.127   1.434  11.807 -0.9544  1.0512  0.2644
22453SOL     OW73195   1.422  11.125   1.692  0.2844  0.1238  0.2558
22453SOL    HW173196   1.374  11.046   1.668  0.8535 -0.2619  0.3717
22453SOL    HW273197   1.356  11.194   1.694 -0.2083 -0.3425  0.1152
22454SOL     OW73198  10.070   7.045   0.379 -0.2147  0.5655 -0.2141
22454SOL    HW173199  10.122   6.977   0.422 -1.8736 -0.3512  0.4286
22454SOL    HW273200   9.985   7.004   0.365 -1.4454  2.6858  0.6558
22455SOL     OW73201   8.756   9.969   0.538 -0.1014  0.2159 -0.6624
22455SOL    HW173202   8.739  10.060   0.516  0.5931  0.4479 -0.2771
22455SOL    HW273203   8.767   9.925   0.453  1.7940  0.9433 -0.8370
22456SOL     OW73204   9.833   5.330   8.542  0.3607  0.3707 -0.0923
22456SOL    HW173205   9.905   5.305   8.600  0.5580  0.7795 -0.1560
22456SOL    HW273206   9.849   5.423   8.523  0.8279  0.0182 -1.5579
22457SOL     OW73207  12.025  12.045   2.007 -0.1299 -0.3640  0.2245
22457SOL    HW173208  12.051  12.103   1.935 -3.8175  1.4033  0.0566
22457SOL    HW273209  11.956  11.990   1.970  0.1038 -1.6700  1.6341
22458SOL     OW73210  12.042   8.851   8.822  0.5300 -0.0317  0.1212
22458SOL    HW173211  12.058   8.869   8.915 -1.2015 -2.2547  0.9580
22458SOL    HW273212  12.119   8.802   8.793  1.6774  1.7810 -0.0405
22459SOL     OW73213   6.177   2.076   7.647 -0.3627  0.4968  0.2316
22459SOL    HW173214   6.106   2.015   7.668  0.7670 -0.9648 -0.0432
22459SOL    HW273215   6.176   2.082   7.551  0.1508  0.1326  0.2006
22460SOL     OW73216   7.869   8.246   1.015 -0.2303 -0.6318 -0.0022
22460SOL    HW173217   7.804   8.181   0.987  0.8764 -1.8623  0.2118
22460SOL    HW273218   7.942   8.195   1.047 -0.0335  0.7366  1.9121
22461SOL     OW73219   6.870  11.174   6.453 -0.3647 -0.2426  0.2067
22461SOL    HW173220   6.906  11.214   6.532  0.7872  0.4645 -0.6498
22461SOL    HW273221   6.880  11.079   6.467  0.6129 -0.0961  0.5570
22462SOL     OW73222   0.850   4.921  11.729 -0.4942  0.6192  0.1059
22462SOL    HW173223   0.773   4.972  11.752 -2.1382 -2.5099  2.1474
22462SOL    HW273224   0.879   4.881  11.811  0.0971 -2.4031 -1.4279
22463SOL     OW73225  11.536   0.311   5.016 -0.0547  0.0729 -0.1491
22463SOL    HW173226  11.613   0.266   4.982 -0.5216 -0.3209 -0.6982
22463SOL    HW273227  11.473   0.312   4.944 -0.6768  0.1393  0.3724
22464SOL     OW73228   9.151   2.446   5.772  0.1168 -0.3982  0.0280
22464SOL    HW173229   9.213   2.406   5.711 -0.5660 -1.0402 -0.2673
22464SOL    HW273230   9.154   2.539   5.751 -1.6735 -0.8098 -2.5255
22465SOL     OW73231  11.536   9.660   1.124 -0.1339 -0.0016  0.7535
22465SOL    HW173232  11.556   9.747   1.159 -0.9656  0.6050 -0.2259
22465SOL    HW273233  11.479   9.677   1.049  2.0852 -1.2019 -1.3253
22466SOL     OW73234   6.163  10.935   3.249  0.0190  0.1933  0.0807
22466SOL    HW173235   6.238  10.988   3.277  0.8863  0.4155 -2.4347
22466SOL    HW273236   6.109  10.994   3.197 -2.1944  0.1344  2.1160
22467SOL     OW73237   4.433   1.493  11.382  0.3924 -0.3818  0.1308
22467SOL    HW173238   4.343   1.462  11.386  0.8729 -1.9132 -0.0976
22467SOL    HW273239   4.472   1.444  11.310  1.6982 -0.5645  0.9235
22468SOL     OW73240   7.257  10.957   4.104  0.2160  0.3283  0.0505
22468SOL    HW173241   7.306  10.893   4.155  0.8658  1.4609  0.8922
22468SOL    HW273242   7.324  11.003   4.053  0.2769  2.7513  2.1530
22469SOL     OW73243   3.286   2.607   0.210 -0.0428 -0.2141 -0.2718
22469SOL    HW173244   3.300   2.596   0.116 -0.8123  1.7960 -0.6864
22469SOL    HW273245   3.197   2.642   0.217  0.6452  1.4637  1.0027
22470SOL     OW73246   8.161  10.374   8.296  0.2911  0.4297 -0.2682
22470SOL    HW173247   8.129  10.287   8.273  1.5422 -0.4714  1.2344
22470SOL    HW273248   8.211  10.361   8.376  0.6947  2.5119 -0.1228
22471SOL     OW73249   0.589   0.994   7.947 -0.7773  0.1701  0.1506
22471SOL    HW173250   0.495   0.990   7.963 -0.8031  0.0821 -0.0179
22471SOL    HW273251   0.601   1.073   7.894 -0.9148 -0.4731 -0.8710
22472SOL     OW73252   9.880  11.622   5.690  0.2238  0.1054  0.3649
22472SOL    HW173253   9.935  11.544   5.698  0.2672  0.1770  0.7661
22472SOL    HW273254   9.923  11.674   5.622  0.5033  0.0407  0.4927
22473SOL     OW73255   2.549  11.850   6.058 -0.6657 -0.6309 -0.0581
22473SOL    HW173256   2.589  11.886   5.979 -1.9618  1.6389  0.2445
22473SOL    HW273257   2.617  11.794   6.096  2.0037  2.3643  0.0084
22474SOL     OW73258   7.409   4.595   2.881 -0.1212 -0.6858  0.0688
22474SOL    HW173259   7.316   4.594   2.906 -0.1862  2.1706  0.2744
22474SOL    HW273260   7.456   4.591   2.964 -0.0799 -0.9383  0.0342
22475SOL     OW73261   0.179   9.859   0.731  0.3079 -0.0483 -0.5373
22475SOL    HW173262   0.184   9.866   0.826 -0.8298  0.6576 -0.5022
22475SOL    HW273263   0.247   9.918   0.699 -0.9156  1.6549 -0.1384
22476SOL     OW73264   3.297   6.750   3.795  0.1282 -0.6413 -0.4496
22476SOL    HW173265   3.280   6.661   3.828 -0.4846 -0.0042  1.0107
22476SOL    HW273266   3.224   6.802   3.827  1.8598  0.9774  1.1148
22477SOL     OW73267   6.271   2.199   9.736  0.5635 -0.5470  0.0674
22477SOL    HW173268   6.364   2.212   9.721  0.3383 -1.1127 -2.2859
22477SOL    HW273269   6.264   2.108   9.768  0.8451 -0.3010  0.8458
22478SOL     OW73270   8.862  11.536   1.547  0.1824  0.0207  0.5366
22478SOL    HW173271   8.884  11.485   1.469  0.2330  0.1565  0.4621
22478SOL    HW273272   8.794  11.484   1.591 -0.2288  0.1992  0.1227
22479SOL     OW73273   1.077  10.936   8.297 -0.4681 -0.4816 -0.4615
22479SOL    HW173274   0.999  10.951   8.350  1.1676  0.3960  1.8311
22479SOL    HW273275   1.127  11.017   8.303  1.8194 -1.8610  0.2688
22480SOL     OW73276  11.643   5.031   0.990  0.4573  0.6223  0.3950
22480SOL    HW173277  11.647   5.119   1.028  1.1089  1.4071 -1.3629
22480SOL    HW273278  11.726   5.022   0.943 -0.4297 -0.1394 -1.0878
22481SOL     OW73279   2.111  10.389  10.276 -0.3013 -0.4225  0.1085
22481SOL    HW173280   2.053  10.317  10.303 -1.9752  0.5045 -0.8173
22481SOL    HW273281   2.199  10.355  10.289 -1.0392 -2.1392  0.9951
22482SOL     OW73282   0.571  11.332  10.059 -0.0021 -0.0848  0.2122
22482SOL    HW173283   0.629  11.283  10.117  2.4423  0.6406 -1.4824
22482SOL    HW273284   0.502  11.269  10.036 -0.9013 -0.4911  3.5274
22483SOL     OW73285   0.391   1.800  11.648 -0.2290  0.1264 -0.1601
22483SOL    HW173286   0.458   1.753  11.599  0.3582  0.0681  0.6732
22483SOL    HW273287   0.438   1.836  11.724 -0.8875  1.1156 -0.1972
22484SOL     OW73288   3.872   0.226   5.965 -0.3424  0.8151 -0.2743
22484SOL    HW173289   3.809   0.246   6.035 -0.4452 -0.2018 -0.0679
22484SOL    HW273290   3.823   0.175   5.902  0.7492 -1.8828  0.9183
22485SOL     OW73291   2.666   4.341   6.136  0.0007  0.1055  0.5046
22485SOL    HW173292   2.704   4.377   6.216  0.1185 -0.1926  0.5844
22485SOL    HW273293   2.572   4.356   6.146  0.1216  1.2909  0.0856
22486SOL     OW73294  10.719  12.295   7.671 -0.0400  0.1266  0.0812
22486SOL    HW173295  10.800  12.291   7.619  0.4667  2.2087  0.5959
22486SOL    HW273296  10.658  12.345   7.617 -0.4161  0.0117  0.3935
22487SOL     OW73297   4.146   3.267   3.355  0.1480  0.6914 -0.1134
22487SOL    HW173298   4.111   3.213   3.426  0.5903 -0.3919 -0.6970
22487SOL    HW273299   4.226   3.221   3.328  0.5128  1.6311 -0.6446
22488SOL     OW73300   8.380   8.362   7.458  0.6113  0.2136 -0.2328
22488SOL    HW173301   8.302   8.377   7.405  0.0161  2.3575  1.1429
22488SOL    HW273302   8.451   8.355   7.394 -0.5245 -0.8073 -1.4523
22489SOL     OW73303   6.629   1.372   6.610 -0.0329  0.3617  0.3810
22489SOL    HW173304   6.545   1.330   6.628 -1.3703  0.7560 -3.9449
22489SOL    HW273305   6.610   1.466   6.610  0.9070  0.5686  1.2723
22490SOL     OW73306  11.497   6.502   4.373 -0.4839  0.3521 -0.1929
22490SOL    HW173307  11.493   6.424   4.318  0.6301 -0.1926  0.4723
22490SOL    HW273308  11.429   6.560   4.337 -0.1987 -0.2230 -1.7566
22491SOL     OW73309  10.488   6.045   6.035  0.0151 -0.0807 -0.1137
22491SOL    HW173310  10.464   6.097   6.112  0.1737 -0.3868  0.1471
22491SOL    HW273311  10.470   6.102   5.960 -2.3762 -0.5931 -0.0025
22492SOL     OW73312   3.419  10.316   0.643  0.0902 -0.2557 -0.2455
22492SOL    HW173313   3.332  10.296   0.678  0.5300  0.7437  1.5567
22492SOL    HW273314   3.475  10.245   0.674  0.3099  0.1746  0.3585
22493SOL     OW73315  11.716   0.130   8.858 -0.2486 -0.0175 -0.4844
22493SOL    HW173316  11.667   0.172   8.929  1.0306  0.7107  0.0167
22493SOL    HW273317  11.793   0.094   8.902  0.4359  0.2270 -1.4649
22494SOL     OW73318   5.540   4.228   7.182  0.1390  0.4660 -0.2546
22494SOL    HW173319   5.570   4.292   7.117 -0.7428  1.3568  0.1802
22494SOL    HW273320   5.470   4.180   7.138  1.5485 -1.0136 -0.9690
22495SOL     OW73321   0.870   9.472  10.733  0.4991  0.4027 -0.3806
22495SOL    HW173322   0.951   9.483  10.682  0.7147  0.4660 -0.0234
22495SOL    HW273323   0.888   9.397  10.789 -0.9006 -1.8552 -2.7149
22496SOL     OW73324   5.378   3.798  12.059  0.2549 -0.0547 -0.2533
22496SOL    HW173325   5.420   3.789  12.144 -1.8103  1.1215  1.0099
22496SOL    HW273326   5.346   3.711  12.038  1.8977 -0.6270 -0.4971
22497SOL     OW73327   9.093   7.890   7.824  0.5491  0.1405  0.3484
22497SOL    HW173328   9.089   7.842   7.742 -1.3111  1.3004 -0.2788
22497SOL    HW273329   9.114   7.824   7.890  2.2964 -0.7676 -1.0359
22498SOL     OW73330   4.817   9.583  10.320 -0.5103  0.8079  0.1559
22498SOL    HW173331   4.890   9.531  10.354 -0.2047  1.5397  0.6669
22498SOL    HW273332   4.742   9.557  10.374 -0.2863  1.1209  0.6304
22499SOL     OW73333   2.501   7.895   1.648 -0.1561  0.1808  0.1303
22499SOL    HW173334   2.425   7.951   1.638 -0.3474  0.0718  0.8858
22499SOL    HW273335   2.499   7.868   1.740  1.1574  0.7146  0.3421
22500SOL     OW73336  12.292   0.148   9.216 -0.0162  0.0593  0.3259
22500SOL    HW173337  12.270   0.056   9.227  1.5595 -0.6510 -1.7606
22500SOL    HW273338  12.324   0.176   9.302  1.1632 -1.8465  0.5637
22501SOL     OW73339   1.368   3.389  11.662  0.1431  0.1129  0.0494
22501SOL    HW173340   1.455   3.352  11.677 -0.6788 -1.9481  0.0365
22501SOL    HW273341   1.315   3.357  11.735 -1.0807 -0.4268 -1.0243
22502SOL     OW73342   7.923   3.764   6.494 -0.0110  0.3712 -0.1149
22502SOL    HW173343   7.903   3.673   6.517  2.5990  0.2809  2.3140
22502SOL    HW273344   7.856   3.815   6.540 -0.2997 -0.2347  0.1512
22503SOL     OW73345   8.871   9.903   3.507 -0.0729 -0.2879 -0.1969
22503SOL    HW173346   8.912   9.829   3.550  0.2335 -0.9179 -1.5447
22503SOL    HW273347   8.782   9.905   3.543  0.7908  0.5460  2.0644
22504SOL     OW73348   5.895   0.794   4.278  0.1084 -0.3699 -0.5071
22504SOL    HW173349   5.943   0.860   4.227  0.8653  0.0498  0.7113
22504SOL    HW273350   5.937   0.795   4.364 -1.0589 -1.1534  0.0938
22505SOL     OW73351   7.515   6.294   4.223  0.1706  0.1602  0.1965
22505SOL    HW173352   7.475   6.380   4.230 -0.3078 -0.1790  2.1218
22505SOL    HW273353   7.605   6.311   4.196  0.4474  1.3665  1.7591
22506SOL     OW73354   6.853   9.458   6.562  0.3499  0.2237 -0.1880
22506SOL    HW173355   6.849   9.534   6.621 -1.5549  0.1710 -0.1889
22506SOL    HW273356   6.827   9.493   6.477  0.1304 -0.2999 -0.3381
22507SOL     OW73357   6.403   8.220   3.446 -0.0645  0.0858 -0.2264
22507SOL    HW173358   6.377   8.223   3.354 -1.4502 -2.7085 -0.0457
22507SOL    HW273359   6.320   8.214   3.493  0.6708  0.0225  1.0895
22508SOL     OW73360   0.751  10.204  10.552  0.0823 -0.2731  0.4766
22508SOL    HW173361   0.676  10.152  10.524  0.6429 -1.2010  0.6644
22508SOL    HW273362   0.808  10.206  10.476  0.4054 -0.5822  0.7059
22509SOL     OW73363   5.109   0.139   1.845  0.4722  0.1932 -0.4985
22509SOL    HW173364   5.076   0.068   1.900  0.1144  0.7345 -0.0104
22509SOL    HW273365   5.173   0.184   1.900 -0.6666  1.4020 -0.1182
22510SOL     OW73366   9.202   1.831   9.182 -0.0597  0.3842 -0.0216
22510SOL    HW173367   9.252   1.752   9.159 -0.7032 -0.2432  0.6678
22510SOL    HW273368   9.181   1.820   9.275 -1.6416  0.5235 -0.3337
22511SOL     OW73369   7.708   6.985   9.004  0.0350 -0.4254  0.0929
22511SOL    HW173370   7.649   6.954   9.072 -1.7768  2.1627 -0.1209
22511SOL    HW273371   7.687   6.932   8.927 -1.3347 -0.2517  0.3165
22512SOL     OW73372   6.102   5.230   5.232 -0.0084 -0.9060 -0.6200
22512SOL    HW173373   6.016   5.190   5.244 -1.8528  2.8526  0.5335
22512SOL    HW273374   6.148   5.215   5.314 -0.9931 -0.0541  0.1124
22513SOL     OW73375   5.881   7.777  11.710 -0.0320  0.2646 -0.0175
22513SOL    HW173376   5.968   7.784  11.749 -0.0069  1.2702 -0.2205
22513SOL    HW273377   5.896   7.784  11.616 -0.2912 -0.0306 -0.0838
22514SOL     OW73378   8.996   5.038   0.942  0.3650  0.0100  0.0488
22514SOL    HW173379   9.000   5.128   0.911 -0.8885 -0.2116 -0.8466
22514SOL    HW273380   8.913   5.033   0.990 -1.4427 -1.4885 -2.9114
22515SOL     OW73381   5.415   1.413   9.703 -0.3514  0.4349 -0.1875
22515SOL    HW173382   5.335   1.370   9.735 -0.6986  0.0817 -1.4454
22515SOL    HW273383   5.473   1.416   9.779 -0.7614 -1.2409  0.2383
22516SOL     OW73384   0.228   2.726  11.449 -0.3359 -0.0352 -0.3741
22516SOL    HW173385   0.283   2.648  11.444 -0.3767 -0.1372  0.6141
22516SOL    HW273386   0.153   2.706  11.393  0.3365 -0.1194 -1.2797
22517SOL     OW73387   6.846   4.045   0.793 -0.4830 -0.2537  0.2343
22517SOL    HW173388   6.763   4.054   0.746 -0.6246  1.2332  0.7081
22517SOL    HW273389   6.911   4.034   0.723 -0.8865  0.2582 -0.2347
22518SOL     OW73390   5.678   6.447   1.429 -0.3576  0.1555  0.0495
22518SOL    HW173391   5.686   6.365   1.479 -0.1153 -0.4156 -0.8997
22518SOL    HW273392   5.628   6.423   1.351  0.4783  0.7080 -0.6776
22519SOL     OW73393   1.194   2.282   0.229 -0.2319  0.2349  0.3349
22519SOL    HW173394   1.196   2.245   0.141 -0.2003 -0.9705  0.8269
22519SOL    HW273395   1.165   2.373   0.216 -0.1897  0.0870 -0.9108
22520SOL     OW73396   8.346   4.892   7.125  0.1037 -0.4260  0.3288
22520SOL    HW173397   8.288   4.854   7.191 -0.4363 -0.1752  0.0120
22520SOL    HW273398   8.286   4.936   7.064  0.5501 -1.1060 -0.6150
22521SOL     OW73399  11.159   8.176   5.993 -0.7533 -0.4067  0.1354
22521SOL    HW173400  11.225   8.241   6.017 -3.6649  2.6415  0.6521
22521SOL    HW273401  11.161   8.112   6.064  0.5460  0.4716  0.9407
22522SOL     OW73402   7.463   0.869   2.177 -0.0895 -0.0276 -0.3014
22522SOL    HW173403   7.519   0.947   2.187 -0.1267 -0.0251 -0.1051
22522SOL    HW273404   7.490   0.812   2.249 -1.1680  0.4797  0.5261
22523SOL     OW73405   4.727   9.175  10.576  0.9329 -0.1662  0.2700
22523SOL    HW173406   4.821   9.165  10.591  1.0230  0.5424  0.1981
22523SOL    HW273407   4.686   9.111  10.635  1.4349 -0.1182  0.6751
22524SOL     OW73408   5.511  10.939   6.732 -0.3667  0.0338 -0.5172
22524SOL    HW173409   5.555  11.023   6.721  0.1523 -0.4279 -2.3027
22524SOL    HW273410   5.444  10.938   6.664  0.1980 -1.3380 -1.0988
22525SOL     OW73411   5.035   2.661  10.311 -0.9969  0.5267  0.2720
22525SOL    HW173412   4.952   2.614  10.302 -1.0105  0.0646  2.2935
22525SOL    HW273413   5.093   2.599  10.355 -0.3432  1.6462  1.0459
22526SOL     OW73414   3.381  10.653   0.879  0.3838  0.2396  0.2029
22526SOL    HW173415   3.352  10.730   0.830 -0.2074 -1.5105 -2.4029
22526SOL    HW273416   3.476  10.652   0.870  0.3179  0.1971 -0.5790
22527SOL     OW73417  11.772   8.526   8.770  0.1245 -0.3538  0.4767
22527SOL    HW173418  11.700   8.492   8.823  0.7679 -0.6052  1.2091
22527SOL    HW273419  11.847   8.527   8.829  0.6513  0.2053 -0.1842
22528SOL     OW73420   7.128  10.766   0.385  0.2767 -0.0611 -0.0007
22528SOL    HW173421   7.186  10.822   0.437 -0.8466  0.6201  0.5536
22528SOL    HW273422   7.076  10.827   0.332 -0.6676 -0.5915  0.2896
22529SOL     OW73423   7.595   3.842   8.269 -0.4480 -0.0982 -0.5518
22529SOL    HW173424   7.615   3.750   8.287 -0.1223  0.0049 -0.3846
22529SOL    HW273425   7.504   3.841   8.237 -1.2223 -0.2423  1.4972
22530SOL     OW73426   1.070   3.477   8.124  0.1570  0.7739  0.2135
22530SOL    HW173427   0.999   3.466   8.061 -0.5987  2.0716  0.8061
22530SOL    HW273428   1.148   3.444   8.079 -1.0781 -2.5561  0.2255
22531SOL     OW73429   1.003   0.635   2.193  0.3681  0.1544 -0.1749
22531SOL    HW173430   0.951   0.560   2.224 -2.1957  0.5941 -2.9564
22531SOL    HW273431   0.947   0.711   2.210  0.0777  0.6845 -3.0043
22532SOL     OW73432   0.800   4.749   7.211  0.1881  0.4390 -0.0954
22532SOL    HW173433   0.759   4.819   7.262 -1.2180  0.9457 -1.8087
22532SOL    HW273434   0.875   4.790   7.169  0.6567  0.3259  0.6185
22533SOL     OW73435  11.071  12.093   4.285  0.3825 -0.2665 -0.2985
22533SOL    HW173436  11.086  12.121   4.375  1.7989 -1.3112 -0.1751
22533SOL    HW273437  10.983  12.057   4.285 -0.0021  0.6293  0.4215
22534SOL     OW73438  12.275   4.340   0.783 -0.1810  1.2540 -0.4792
22534SOL    HW173439  12.304   4.426   0.751  0.5530  1.3753  0.4657
22534SOL    HW273440  12.293   4.280   0.711 -1.4882  2.0113 -1.4874
22535SOL     OW73441   0.809   7.796   8.456 -0.6232 -0.0580  0.2484
22535SOL    HW173442   0.889   7.848   8.456 -0.1172 -0.7928  1.2083
22535SOL    HW273443   0.740   7.857   8.430 -0.0051  0.9988  1.0055
22536SOL     OW73444  10.273  10.734   8.682 -0.2819  0.1948 -0.9159
22536SOL    HW173445  10.184  10.705   8.659 -2.3166  3.5720  1.7323
22536SOL    HW273446  10.281  10.821   8.644  1.2676  0.5874  0.2175
22537SOL     OW73447   2.088  11.146   2.891  0.1697  0.4346 -0.0781
22537SOL    HW173448   2.129  11.195   2.962 -0.6357  1.7088 -0.4584
22537SOL    HW273449   2.161  11.101   2.848  0.8983  1.0493  0.4871
22538SOL     OW73450  10.929   4.384   0.329 -0.2328  0.0319 -0.5106
22538SOL    HW173451  10.886   4.353   0.249 -0.1526 -0.0950 -0.5051
22538SOL    HW273452  10.869   4.360   0.399  0.1146 -0.6801 -0.4449
22539SOL     OW73453  10.736   0.906   8.055 -0.5547  0.0899  0.4793
22539SOL    HW173454  10.780   0.958   7.988 -0.3308 -2.0617 -1.1277
22539SOL    HW273455  10.776   0.936   8.137  4.8318 -2.2602 -0.8343
22540SOL     OW73456   9.548   8.971   0.050 -0.0949  0.1838  0.0711
22540SOL    HW173457   9.622   9.031   0.058  0.9760 -1.1964  1.2400
22540SOL    HW273458   9.575   8.910  -0.019 -0.3233 -0.0846  0.2175
22541SOL     OW73459   0.704   1.944   5.240 -0.0594 -0.6616  0.0599
22541SOL    HW173460   0.639   2.004   5.276  0.8431 -0.8896  2.2619
22541SOL    HW273461   0.784   1.996   5.234  0.0201 -0.8762 -0.8497
22542SOL     OW73462   5.485   0.043   6.741 -0.1062  0.3244  0.0749
22542SOL    HW173463   5.580   0.038   6.753 -0.0075  0.9986 -0.3721
22542SOL    HW273464   5.451  -0.033   6.788  0.4889  1.1950  2.0450
22543SOL     OW73465   2.292   8.307   7.337  0.2250  0.2547  0.1349
22543SOL    HW173466   2.327   8.352   7.260  0.3903 -0.8742 -0.4686
22543SOL    HW273467   2.210   8.352   7.355  0.4133  0.8401 -0.4143
22544SOL     OW73468   1.816   8.858   2.956  0.0789 -0.1514  0.3785
22544SOL    HW173469   1.736   8.884   3.001  0.9158  1.0064  1.2765
22544SOL    HW273470   1.820   8.915   2.880 -0.4320 -0.8872 -0.2130
22545SOL     OW73471   4.158   1.960   7.436  0.5519  0.3270 -0.9223
22545SOL    HW173472   4.095   1.940   7.505 -0.0642 -0.2245 -1.6282
22545SOL    HW273473   4.110   1.947   7.355  1.8711 -1.1915 -1.5056
22546SOL     OW73474   1.944   4.741   1.630  0.6811 -0.0413  0.1088
22546SOL    HW173475   2.036   4.764   1.619  0.4968  1.0995  0.7041
22546SOL    HW273476   1.904   4.758   1.544  0.8265  0.5600  0.1533
22547SOL     OW73477   5.076   3.623   4.166  0.5239  0.2322  0.1035
22547SOL    HW173478   5.013   3.560   4.129  3.0632 -1.7701 -1.1234
22547SOL    HW273479   5.070   3.699   4.109 -1.3548  0.4797  0.5495
22548SOL     OW73480   8.171   3.631   7.735 -0.1214 -0.1547  0.3313
22548SOL    HW173481   8.262   3.644   7.763 -0.2254 -0.8056  0.9967
22548SOL    HW273482   8.124   3.704   7.775 -0.1836 -0.8062  1.5095
22549SOL     OW73483   5.842  12.031   8.907  0.0939 -0.0819  0.1637
22549SOL    HW173484   5.802  12.018   8.821  1.3416  1.8758 -0.7838
22549SOL    HW273485   5.841  12.126   8.920  1.2362 -0.2395  1.6594
22550SOL     OW73486   7.052   0.096   6.221  0.1371 -0.3747  0.1351
22550SOL    HW173487   7.016   0.059   6.302 -2.2148  0.8636 -0.2719
22550SOL    HW273488   7.069   0.188   6.242  0.1925 -0.2195 -0.5606
22551SOL     OW73489   9.143   3.793   1.099 -0.1201 -0.1014  0.1562
22551SOL    HW173490   9.227   3.775   1.057 -0.0146 -0.2902  0.4416
22551SOL    HW273491   9.079   3.794   1.028  0.6374  4.1289 -0.7435
22552SOL     OW73492   2.173   4.311   9.627  0.5802 -0.6652  1.2034
22552SOL    HW173493   2.113   4.340   9.558  2.2670 -1.4945 -0.7147
22552SOL    HW273494   2.143   4.357   9.705 -0.3078  1.7709 -0.4554
22553SOL     OW73495   9.564  11.551  10.839 -0.2325  0.2012  0.2208
22553SOL    HW173496   9.485  11.524  10.886 -1.6034  3.1929 -0.1184
22553SOL    HW273497   9.630  11.562  10.908 -0.7142 -0.3706  0.7792
22554SOL     OW73498   6.082   9.290  11.866 -0.3342  0.3548 -0.0374
22554SOL    HW173499   6.114   9.378  11.886 -0.8334  0.2231  1.5128
22554SOL    HW273500   6.128   9.265  11.786 -0.4664  2.1639 -0.7204
22555SOL     OW73501   1.027   1.007   3.191  0.3076 -0.0404 -0.0133
22555SOL    HW173502   1.053   1.073   3.255  1.2501 -2.3755  2.1614
22555SOL    HW273503   1.097   1.008   3.126 -0.5148  2.1543 -0.9507
22556SOL     OW73504   7.484  10.538   2.700 -0.2032  0.6156  0.5549
22556SOL    HW173505   7.511  10.449   2.722 -1.5904 -0.8329 -2.8731
22556SOL    HW273506   7.562  10.591   2.716  0.7496 -1.2189  2.4467
22557SOL     OW73507   9.562  11.506  12.192  0.5711 -0.0988  0.4705
22557SOL    HW173508   9.598  11.419  12.210  1.7833  0.3710  0.3747
22557SOL    HW273509   9.598  11.530  12.107 -1.3489 -0.3168 -0.4575
22558SOL     OW73510   0.179  11.319   3.454  0.1719 -0.7146 -0.3206
22558SOL    HW173511   0.225  11.352   3.377  0.2065 -1.5967 -0.6897
22558SOL    HW273512   0.136  11.395   3.491  0.5829 -0.1855 -0.9166
22559SOL     OW73513   1.167   7.352   2.289  0.0155  0.1349 -0.5249
22559SOL    HW173514   1.225   7.314   2.355 -1.1646 -0.1638  0.3724
22559SOL    HW273515   1.116   7.277   2.256  0.8504  0.2042 -2.0983
22560SOL     OW73516   2.180   3.128   9.726 -0.1240 -0.3026  0.7226
22560SOL    HW173517   2.094   3.117   9.684 -0.1144 -2.3438  1.1133
22560SOL    HW273518   2.169   3.202   9.785 -1.5010 -0.2831  0.4695
22561SOL     OW73519   1.718   5.399   6.296 -1.0332 -0.5871 -0.2997
22561SOL    HW173520   1.729   5.407   6.201  1.3065  1.3052  0.0379
22561SOL    HW273521   1.647   5.460   6.317 -0.6338  0.0411 -0.7157
22562SOL     OW73522   6.679   2.053   7.085 -0.2648 -0.1194  0.3188
22562SOL    HW173523   6.663   2.105   7.163 -0.5504 -1.3237  1.0810
22562SOL    HW273524   6.593   2.020   7.060 -0.1396  0.0581 -0.3728
22563SOL     OW73525   5.483   2.342   4.585  0.1807  0.2708  0.0697
22563SOL    HW173526   5.401   2.299   4.559  1.1076 -0.6428 -1.4964
22563SOL    HW273527   5.511   2.296   4.663 -1.7559  1.8925  1.8630
22564SOL     OW73528   7.947   6.459   1.455  0.8635  0.6409  0.3174
22564SOL    HW173529   7.960   6.549   1.484  1.3826  0.4377  0.7528
22564SOL    HW273530   8.017   6.444   1.391 -0.0137  0.9486 -0.7352
22565SOL     OW73531   4.116   9.135   9.265 -0.2018 -0.7526  0.3539
22565SOL    HW173532   4.134   9.064   9.327  0.6526  0.6978  1.8451
22565SOL    HW273533   4.202   9.169   9.242 -0.6046 -0.1092 -0.2212
22566SOL     OW73534   2.662   9.826   1.729 -0.3520  0.4401  0.3311
22566SOL    HW173535   2.601   9.835   1.802  1.9789 -2.2653  2.8903
22566SOL    HW273536   2.724   9.899   1.741 -1.1512  1.2367 -0.2759
22567SOL     OW73537  10.304   9.356   1.951 -0.5922  0.2953 -0.4029
22567SOL    HW173538  10.345   9.270   1.960  0.3789  0.8043  0.1229
22567SOL    HW273539  10.278   9.380   2.039 -1.3394  0.3236 -0.6218
22568SOL     OW73540   5.718   8.340   4.338  0.0251 -0.0139  0.6187
22568SOL    HW173541   5.781   8.411   4.328 -1.5888  1.4615  0.2363
22568SOL    HW273542   5.672   8.360   4.420 -0.3491 -0.7047  0.5888
22569SOL     OW73543   4.208   3.466  12.118 -0.5617 -0.3356  0.3550
22569SOL    HW173544   4.280   3.423  12.165 -0.4928 -1.0252 -0.3481
22569SOL    HW273545   4.145   3.396  12.101  0.0353 -0.4427 -1.7432
22570SOL     OW73546   1.248   6.786   8.631  0.3349  0.5053 -0.1536
22570SOL    HW173547   1.193   6.810   8.557  0.1172  2.8490  0.6688
22570SOL    HW273548   1.324   6.745   8.592 -0.2633  0.6881 -1.5948
22571SOL     OW73549   2.634   9.609   1.998  0.6113  0.4422 -0.0534
22571SOL    HW173550   2.572   9.568   2.057  1.2915 -1.1711 -0.4171
22571SOL    HW273551   2.590   9.690   1.970 -1.0504 -0.3250  0.1977
22572SOL     OW73552   7.843   1.597   1.827 -0.5297  0.3836 -0.0702
22572SOL    HW173553   7.785   1.666   1.859 -0.9467  0.1843 -0.3920
22572SOL    HW273554   7.920   1.644   1.794 -1.3275  0.7885 -1.4049
22573SOL     OW73555   2.705   7.373   3.402  0.0400  0.1919  0.0018
22573SOL    HW173556   2.788   7.339   3.437 -0.2070  0.4663  0.8894
22573SOL    HW273557   2.698   7.460   3.440 -1.4817 -0.4770  1.3718
22574SOL     OW73558   9.125   1.467   1.591  0.4119 -0.1273 -0.0521
22574SOL    HW173559   9.145   1.484   1.499 -0.6689  0.9093 -0.1105
22574SOL    HW273560   9.035   1.496   1.602  0.2751 -0.9683  1.1577
22575SOL     OW73561   4.241   0.529   4.990  0.1751 -0.1106 -0.0194
22575SOL    HW173562   4.171   0.493   5.043 -0.2691 -0.5949 -0.9046
22575SOL    HW273563   4.203   0.540   4.903  0.5370  1.7853  0.0229
22576SOL     OW73564   9.216   5.914   1.550 -0.5263 -0.4080 -0.4222
22576SOL    HW173565   9.134   5.864   1.547 -1.3552  0.7309  1.4837
22576SOL    HW273566   9.199   5.991   1.497  0.5261 -1.7062 -2.8040
22577SOL     OW73567   7.995   0.941   1.817  0.1411  0.1848 -0.6828
22577SOL    HW173568   7.964   1.011   1.759  3.8468  2.3455 -0.3270
22577SOL    HW273569   8.069   0.902   1.770  1.4644  0.0936  1.3731
22578SOL     OW73570  11.869   1.137   9.179  0.0943 -0.1302  0.0613
22578SOL    HW173571  11.837   1.217   9.136  0.3546 -0.3658 -0.5699
22578SOL    HW273572  11.905   1.168   9.262 -1.0231  0.2446  0.4280
22579SOL     OW73573   4.906  11.740  10.948 -0.4144 -0.0937 -0.1602
22579SOL    HW173574   4.873  11.735  10.858  0.4648 -0.8706 -0.4581
22579SOL    HW273575   5.000  11.727  10.939 -0.2707  0.1815  0.8507
22580SOL     OW73576  11.108   6.953   5.259 -0.5461  0.0886 -0.1596
22580SOL    HW173577  11.146   6.887   5.201 -1.4120  0.5772 -1.3224
22580SOL    HW273578  11.152   6.940   5.343  0.6600 -0.7004 -0.8956
22581SOL     OW73579   0.524   6.075   7.382 -0.4745 -0.2722 -0.0079
22581SOL    HW173580   0.572   6.042   7.458 -0.4080  0.4026  0.2498
22581SOL    HW273581   0.576   6.151   7.352 -0.2816 -0.7640 -0.9652
22582SOL     OW73582   4.798  10.348   1.927 -0.3239  0.3797  0.3632
22582SOL    HW173583   4.727  10.403   1.894 -0.5677  0.6689  1.3317
22582SOL    HW273584   4.824  10.390   2.009  0.7236  0.0674  0.1996
22583SOL     OW73585   5.848   3.458  11.898 -0.4798  0.1578 -0.1271
22583SOL    HW173586   5.871   3.370  11.927 -0.3325  0.2613  0.0677
22583SOL    HW273587   5.765   3.476  11.942  0.5643  0.9844  1.6218
22584SOL     OW73588   8.808   0.893   0.320 -0.4662  0.5520  0.2047
22584SOL    HW173589   8.762   0.819   0.359  1.3915 -0.0858  1.3423
22584SOL    HW273590   8.792   0.885   0.226  0.3333 -1.8335  0.1981
22585SOL     OW73591   5.107   0.707   7.138  0.4184 -0.2165  0.3635
22585SOL    HW173592   5.028   0.665   7.170  0.0796  0.0352 -0.1386
22585SOL    HW273593   5.108   0.691   7.044  0.3262  0.8109  0.1743
22586SOL     OW73594   3.545   3.454   9.313 -0.3840 -0.0515 -0.6042
22586SOL    HW173595   3.530   3.548   9.325 -0.5677 -0.2206  0.5179
22586SOL    HW273596   3.544   3.443   9.218 -0.4945  1.0594 -0.7518
22587SOL     OW73597   4.449  10.743  11.188  0.3832  0.0970  0.4087
22587SOL    HW173598   4.411  10.656  11.198  0.3061  0.1506  0.5919
22587SOL    HW273599   4.427  10.788  11.270  1.5997 -0.1593  0.9158
22588SOL     OW73600   7.827   1.197  11.848 -0.2466  0.0178  0.6181
22588SOL    HW173601   7.831   1.170  11.939  1.5455 -0.2060  0.5169
22588SOL    HW273602   7.769   1.134  11.806 -0.6574 -0.1957  1.4947
22589SOL     OW73603   4.469   7.620  11.178 -0.4294  0.0556  0.1014
22589SOL    HW173604   4.377   7.642  11.193  0.3222  2.8725  1.2899
22589SOL    HW273605   4.486   7.648  11.088 -0.2195  1.8893  0.6585
22590SOL     OW73606   0.468   6.889   7.007  0.5278  0.5272  0.3736
22590SOL    HW173607   0.387   6.839   6.993  1.2938 -1.0589  1.2910
22590SOL    HW273608   0.497   6.912   6.918 -0.3593  0.1600 -0.0208
22591SOL     OW73609   6.751   7.609   4.838  0.4726 -0.6530  0.0446
22591SOL    HW173610   6.673   7.664   4.849 -1.1416 -3.1255  2.1771
22591SOL    HW273611   6.780   7.592   4.928  2.1678 -1.5966 -0.6431
22592SOL     OW73612   1.117   7.124   5.651 -0.2874 -0.0197  0.1378
22592SOL    HW173613   1.121   7.149   5.743 -0.8079  0.1841  0.1048
22592SOL    HW273614   1.209   7.121   5.623 -0.1911  1.4833  0.2392
22593SOL     OW73615   7.974   3.075   1.430 -0.6310 -0.0695 -0.0671
22593SOL    HW173616   8.050   3.074   1.489 -0.6821 -2.4069  0.0800
22593SOL    HW273617   7.987   2.998   1.374 -1.0072  1.5898 -2.6159
22594SOL     OW73618   2.317   1.363   1.362 -0.3636 -0.1702  0.2258
22594SOL    HW173619   2.294   1.281   1.317  1.2131 -0.2549 -0.5164
22594SOL    HW273620   2.371   1.335   1.437  0.2841  0.1686 -0.0998
22595SOL     OW73621  10.279   4.147   3.452  0.1564 -0.9219  0.5628
22595SOL    HW173622  10.248   4.227   3.495  0.5937 -0.9016  0.8569
22595SOL    HW273623  10.207   4.119   3.397  0.5930  0.6208 -0.8774
22596SOL     OW73624   3.721   8.821   5.542 -0.1520 -0.4778 -0.3269
22596SOL    HW173625   3.764   8.805   5.626 -0.9726 -2.4302 -0.2261
22596SOL    HW273626   3.787   8.798   5.476  0.3638  0.6946 -0.2535
22597SOL     OW73627  10.276   1.820   3.799 -0.5053 -0.2903  0.0433
22597SOL    HW173628  10.230   1.826   3.882 -0.3240 -0.4767  0.1592
22597SOL    HW273629  10.366   1.845   3.820 -0.4436 -0.4024 -0.0841
22598SOL     OW73630   4.646  11.474  10.619  0.2787  0.0103  0.1975
22598SOL    HW173631   4.659  11.411  10.690 -0.2069 -0.9098 -0.5051
22598SOL    HW273632   4.678  11.428  10.541 -0.1060  0.6300 -0.3295
22599SOL     OW73633  11.426   8.345   1.159  0.1880 -0.0891  0.1392
22599SOL    HW173634  11.382   8.335   1.075  0.7913 -0.7897 -0.1059
22599SOL    HW273635  11.423   8.439   1.176  0.8098  0.1822 -1.0985
22600SOL     OW73636   3.027   9.156   2.351  0.6188  0.5650 -0.2044
22600SOL    HW173637   3.029   9.102   2.272  0.6374  0.7617 -0.3388
22600SOL    HW273638   3.006   9.095   2.421 -1.6109  0.7211 -0.6469
22601SOL     OW73639  12.274   7.694   4.689  0.1586  0.0368  0.3885
22601SOL    HW173640  12.366   7.720   4.691  0.2052 -0.1031  0.0786
22601SOL    HW273641  12.245   7.712   4.600  0.1251 -0.7323  0.2406
22602SOL     OW73642   6.841   8.993   5.253  0.7203 -0.3071 -0.1676
22602SOL    HW173643   6.880   8.945   5.327 -0.1912 -1.4917 -0.4187
22602SOL    HW273644   6.878   9.081   5.260  0.5963 -0.3488  1.7686
22603SOL     OW73645   3.131   8.565   5.711  0.4502  0.3598  0.2011
22603SOL    HW173646   3.135   8.497   5.779  1.1706  0.3767  0.1753
22603SOL    HW273647   3.046   8.551   5.669  1.1765 -1.4631 -0.7757
22604SOL     OW73648   3.764   3.305   3.851 -0.1342 -0.3050  0.1214
22604SOL    HW173649   3.686   3.250   3.864 -0.3724 -0.0166 -0.0666
22604SOL    HW273650   3.731   3.383   3.807 -0.0135  0.5667  1.5097
22605SOL     OW73651   4.716  11.019   6.334  0.3634 -0.3267 -0.0204
22605SOL    HW173652   4.756  10.956   6.274  0.8665 -1.5448  1.5545
22605SOL    HW273653   4.721  11.103   6.287 -0.6398 -1.4625 -2.2983
22606SOL     OW73654  11.169   6.900   8.643 -0.1790  0.1501  0.2985
22606SOL    HW173655  11.154   6.830   8.707  1.8841 -0.3634  0.2913
22606SOL    HW273656  11.239   6.953   8.682  1.2568 -0.2840 -1.5834
22607SOL     OW73657  12.128   9.944   9.078 -0.4642 -0.0796  0.3712
22607SOL    HW173658  12.177   9.862   9.084 -1.5995 -0.7534  0.9851
22607SOL    HW273659  12.147   9.978   8.991 -0.5921 -1.4201 -0.2095
22608SOL     OW73660   7.959  11.944   6.129 -0.0226  0.2812  0.2681
22608SOL    HW173661   7.945  12.036   6.103 -1.2024  0.3141  0.9372
22608SOL    HW273662   7.870  11.909   6.140  0.4258 -0.7578  0.6743
22609SOL     OW73663   0.560  12.088   6.130  0.0373 -0.3173  0.1913
22609SOL    HW173664   0.616  12.114   6.056 -1.4816 -1.0647 -1.2805
22609SOL    HW273665   0.472  12.087   6.094 -0.7143 -1.0408  1.9560
22610SOL     OW73666  11.281   6.646   7.954 -0.0057 -0.3009  0.4404
22610SOL    HW173667  11.224   6.705   8.004 -0.7143  0.4332 -1.1868
22610SOL    HW273668  11.323   6.702   7.889 -1.5425 -1.7110 -1.8871
22611SOL     OW73669   8.282   3.670  11.008  0.3460 -0.3508 -0.0692
22611SOL    HW173670   8.197   3.684  10.968  1.2293  1.5225 -1.4134
22611SOL    HW273671   8.318   3.594  10.962 -0.1543 -0.4858 -0.2394
22612SOL     OW73672   2.452   1.217   9.083  0.4478  0.1791 -0.1225
22612SOL    HW173673   2.483   1.143   9.136 -0.2519 -0.1743 -0.1980
22612SOL    HW273674   2.381   1.255   9.135 -0.6455 -0.5382 -1.0723
22613SOL     OW73675   1.138   2.766  10.953  1.0340  0.1849  0.0970
22613SOL    HW173676   1.199   2.718  10.897 -0.0861 -0.9512 -0.1885
22613SOL    HW273677   1.060   2.780  10.899  1.1373  1.9269  0.3418
22614SOL     OW73678   5.145   6.946   5.849 -0.2571 -0.0081  0.2066
22614SOL    HW173679   5.068   6.902   5.812 -0.3899 -0.6700  1.2295
22614SOL    HW273680   5.213   6.879   5.850  0.5694  0.7442 -1.2932
22615SOL     OW73681   7.605   7.557   8.964 -0.5584  0.5534 -0.4827
22615SOL    HW173682   7.632   7.525   8.877  0.5852  0.9954 -0.3129
22615SOL    HW273683   7.673   7.524   9.023 -2.1825 -1.1631  0.5597
22616SOL     OW73684   5.714   5.321   2.186  0.1852 -0.4842  0.9252
22616SOL    HW173685   5.706   5.412   2.156 -0.3662 -1.3117 -1.7269
22616SOL    HW273686   5.636   5.306   2.239 -1.4466 -0.2905 -1.3053
22617SOL     OW73687   6.195   9.127   8.265  0.8246 -0.4287  1.0054
22617SOL    HW173688   6.255   9.137   8.191  0.8904  0.7037  1.1887
22617SOL    HW273689   6.177   9.034   8.269 -0.3261 -0.3664 -1.3291
22618SOL     OW73690   0.707   6.086   5.844  0.2565  0.2307 -0.1126
22618SOL    HW173691   0.685   6.010   5.899 -1.6406 -0.0536 -1.1846
22618SOL    HW273692   0.622   6.124   5.821  0.9469  0.3483 -2.8011
22619SOL     OW73693   2.872   3.527   3.231  0.5985  0.0946 -0.5640
22619SOL    HW173694   2.796   3.468   3.228  0.1457  0.6856 -0.8109
22619SOL    HW273695   2.902   3.531   3.140  0.2837  0.6823 -0.6470
22620SOL     OW73696   1.456   2.622   2.172 -0.1984  0.0798 -0.2096
22620SOL    HW173697   1.384   2.679   2.196 -0.5880 -1.2783  2.2499
22620SOL    HW273698   1.414   2.542   2.140  0.2620 -0.0169 -0.5884
22621SOL     OW73699   7.768   3.063   8.166  0.4261  0.6603  0.6245
22621SOL    HW173700   7.771   2.998   8.236  0.3128 -0.9214 -0.7778
22621SOL    HW273701   7.854   3.059   8.126  0.1495  0.7703  0.0100
22622SOL     OW73702  10.184   1.355   1.214  0.0818  0.2136 -0.1608
22622SOL    HW173703  10.095   1.386   1.192  0.5240  1.0590 -0.8381
22622SOL    HW273704  10.171   1.267   1.249 -1.0307  0.3298 -0.2427
22623SOL     OW73705  11.024   3.760   6.887  0.3506 -0.3294  0.1693
22623SOL    HW173706  10.968   3.796   6.955  0.3134  0.7703 -0.4202
22623SOL    HW273707  11.110   3.799   6.902  1.2427 -2.6043  1.5424
22624SOL     OW73708   3.788   0.969   1.929 -0.0595  0.3527 -0.0180
22624SOL    HW173709   3.767   0.889   1.978 -0.6944  0.4955 -0.0490
22624SOL    HW273710   3.716   1.028   1.948 -1.7936 -0.5085 -3.2252
22625SOL     OW73711   1.040  11.897   1.292 -0.1455  0.1512 -0.0281
22625SOL    HW173712   0.994  11.903   1.375  1.1155 -0.6621  0.7763
22625SOL    HW273713   1.050  11.987   1.263 -1.3355  0.3897  0.2681
22626SOL     OW73714   2.472   8.913   1.388  0.2332  0.2933  0.0910
22626SOL    HW173715   2.402   8.978   1.395 -1.0741 -1.2630  4.3086
22626SOL    HW273716   2.548   8.956   1.426 -0.0851  0.0481  1.0186
22627SOL     OW73717   1.797   7.659   9.749  0.6077 -0.4875 -0.4732
22627SOL    HW173718   1.762   7.593   9.809 -1.9916  0.1196 -1.1892
22627SOL    HW273719   1.867   7.615   9.703  1.5073 -1.5170  1.7442
22628SOL     OW73720   9.085   9.590   5.991 -0.2693 -0.2494  0.5252
22628SOL    HW173721   9.025   9.649   6.038  0.2630  0.5456  0.2238
22628SOL    HW273722   9.027   9.534   5.939 -0.7421  0.8620 -0.1780
22629SOL     OW73723   8.104   6.606   3.737 -0.4208 -0.2864 -0.2734
22629SOL    HW173724   8.194   6.579   3.715 -0.3140 -0.2995  0.1721
22629SOL    HW273725   8.054   6.525   3.737 -0.6176 -0.1892 -1.3440
22630SOL     OW73726   2.367  10.201   3.406 -0.1990 -0.1839 -0.5656
22630SOL    HW173727   2.347  10.292   3.429 -1.0695 -0.2850 -0.9060
22630SOL    HW273728   2.462  10.201   3.394 -0.2361  0.7884 -1.0110
22631SOL     OW73729  10.622   9.736   9.688  0.2144 -0.5711  0.0207
22631SOL    HW173730  10.687   9.782   9.742 -0.5904 -0.7623  1.1788
22631SOL    HW273731  10.557   9.804   9.667  0.0956 -0.6926 -0.0016
22632SOL     OW73732  10.323  11.894   3.551  0.4055  0.1452  0.7748
22632SOL    HW173733  10.381  11.823   3.526  1.2430  0.8619  0.6292
22632SOL    HW273734  10.294  11.932   3.468 -0.7872 -0.5900  0.8279
22633SOL     OW73735  10.900   1.491   7.031  0.3752  0.9422  0.4418
22633SOL    HW173736  10.916   1.397   7.041 -1.1429  0.5555 -0.4693
22633SOL    HW273737  10.939   1.530   7.109  2.5860 -0.2247  0.0093
22634SOL     OW73738   9.939   8.081   1.107  0.2565  0.4443  0.3387
22634SOL    HW173739   9.985   8.032   1.040 -1.2282 -1.2995  0.5198
22634SOL    HW273740   9.977   8.051   1.190 -1.3520 -1.2859  0.5117
22635SOL     OW73741   9.805  11.414   8.367  0.1415  0.2384 -0.5009
22635SOL    HW173742   9.841  11.361   8.296  0.9630  0.8562 -0.5549
22635SOL    HW273743   9.844  11.378   8.447 -2.0255 -1.5261 -0.1373
22636SOL     OW73744   8.775   7.862  11.719 -0.2327 -0.6062 -0.4377
22636SOL    HW173745   8.689   7.897  11.697 -0.7055 -1.0986  0.5614
22636SOL    HW273746   8.807   7.919  11.789  0.7299  0.2161 -1.5082
22637SOL     OW73747   7.307   3.836   9.480 -0.3995  0.2532  0.2087
22637SOL    HW173748   7.259   3.787   9.414 -1.2178 -0.8011  1.5328
22637SOL    HW273749   7.395   3.798   9.478 -0.1462  0.8641 -0.8879
22638SOL     OW73750   4.808  12.183   9.863  0.5978  0.6702 -0.0578
22638SOL    HW173751   4.847  12.229   9.789  0.6934  1.3272  0.3964
22638SOL    HW273752   4.861  12.208   9.939  0.7870 -0.3506  0.1742
22639SOL     OW73753   6.982   8.882   2.767  0.1864 -0.0888 -0.1570
22639SOL    HW173754   6.999   8.948   2.700 -0.9648 -0.5166 -0.8843
22639SOL    HW273755   7.068   8.865   2.806  0.8184  0.3900 -1.3059
22640SOL     OW73756   5.920  11.139   4.822 -0.2660 -0.3023  0.1632
22640SOL    HW173757   5.892  11.084   4.749 -1.0726  0.7100 -0.3143
22640SOL    HW273758   5.946  11.222   4.781  1.8346 -0.5872  0.7586
22641SOL     OW73759   2.698   1.261   5.596 -0.1964  0.0187 -0.0488
22641SOL    HW173760   2.769   1.226   5.650  0.0018 -0.0369 -0.3476
22641SOL    HW273761   2.741   1.320   5.534 -0.3917 -0.1402 -0.3368
22642SOL     OW73762  10.823   7.970   5.853  0.3341  0.9716  0.5623
22642SOL    HW173763  10.869   7.937   5.776  2.3111 -1.3230  2.5551
22642SOL    HW273764  10.772   7.895   5.884 -2.1903  2.4868  0.3465
22643SOL     OW73765   5.239   2.149   1.824 -0.1199 -0.2295 -0.3713
22643SOL    HW173766   5.279   2.235   1.808  0.2363  0.0593  1.7780
22643SOL    HW273767   5.156   2.169   1.867  0.2064 -0.9582  0.6252
22644SOL     OW73768   2.800   7.467   8.176 -0.4145  0.1536  0.8622
22644SOL    HW173769   2.785   7.373   8.180 -0.9033  0.2690  2.1592
22644SOL    HW273770   2.764   7.501   8.258  0.1978  1.4084  0.6412
22645SOL     OW73771   7.561   4.281   3.430  0.4557 -0.0673 -0.1441
22645SOL    HW173772   7.609   4.245   3.505  0.4307 -1.8810 -0.9389
22645SOL    HW273773   7.470   4.257   3.447  0.4308 -0.3555 -0.6619
22646SOL     OW73774   5.389   3.168  11.753  0.8084  0.3443 -0.2462
22646SOL    HW173775   5.318   3.223  11.720  0.8906  0.3190 -0.4655
22646SOL    HW273776   5.413   3.112  11.679  1.5421  0.8488 -0.3895
22647SOL     OW73777   5.320   7.144  11.401 -0.0154 -0.0287  0.6316
22647SOL    HW173778   5.264   7.214  11.366  1.1354  0.3361 -0.5398
22647SOL    HW273779   5.325   7.080  11.330  1.4773  0.2039  0.5011
22648SOL     OW73780   8.647   6.253   6.892  0.6037  0.2685 -0.0495
22648SOL    HW173781   8.594   6.182   6.929  0.1046 -0.2051 -1.5841
22648SOL    HW273782   8.610   6.333   6.931  0.1041 -0.2045  0.4669
22649SOL     OW73783   5.713   1.673   1.115  0.6820  0.2993 -0.6686
22649SOL    HW173784   5.643   1.638   1.061  0.9725 -0.9200 -0.2748
22649SOL    HW273785   5.761   1.596   1.146  3.3986  1.1221 -2.4939
22650SOL     OW73786   3.682   0.858   3.450  0.2543  0.3240 -0.5921
22650SOL    HW173787   3.632   0.925   3.403  0.0168 -0.6362 -1.7636
22650SOL    HW273788   3.628   0.779   3.442  0.3799  0.0353  1.0265
22651SOL     OW73789   6.001   8.524   5.382  0.3135  0.3941  0.7522
22651SOL    HW173790   5.954   8.498   5.462 -1.2294  1.3515  0.2020
22651SOL    HW273791   6.024   8.616   5.397  1.9035  0.0033  0.9229
22652SOL     OW73792   4.233   1.471   5.711 -0.3738  0.0595  0.1947
22652SOL    HW173793   4.309   1.413   5.718 -0.0382  0.4753  0.0394
22652SOL    HW273794   4.194   1.450   5.626  0.5427  0.9989 -0.4897
22653SOL     OW73795   1.763   7.819  11.199  0.1301  0.2992  0.0110
22653SOL    HW173796   1.764   7.902  11.248  0.9170  0.3526 -0.0708
22653SOL    HW273797   1.716   7.839  11.118  0.7449  0.8104 -0.2305
22654SOL     OW73798   5.563   0.395   2.546 -0.7795  0.0956  0.1438
22654SOL    HW173799   5.579   0.383   2.639 -0.8047 -2.3444 -0.1023
22654SOL    HW273800   5.587   0.486   2.529  1.6848 -0.0942  2.0419
22655SOL     OW73801   0.983  12.268   8.914 -0.4793 -0.7177  0.4405
22655SOL    HW173802   1.060  12.247   8.965 -0.9495 -1.6339  0.7934
22655SOL    HW273803   1.017  12.307   8.833  0.2962 -0.0448  1.0786
22656SOL     OW73804  11.170   6.957   4.722 -0.0915  0.2370 -0.4315
22656SOL    HW173805  11.158   7.047   4.691 -0.8922 -0.1422 -1.2905
22656SOL    HW273806  11.260   6.935   4.698  0.7059  1.3572  1.3203
22657SOL     OW73807   4.671   4.725   9.459 -0.1319 -0.0416  0.1579
22657SOL    HW173808   4.678   4.632   9.437 -0.1572 -0.1198  0.4743
22657SOL    HW273809   4.578   4.746   9.450 -0.0742  0.0431 -0.2638
22658SOL     OW73810   8.673   9.233  10.329  0.4112 -0.6319  0.4687
22658SOL    HW173811   8.686   9.138  10.325  0.9523 -0.5914  1.1132
22658SOL    HW273812   8.759   9.270  10.310  0.8184 -0.3211  2.6586
22659SOL     OW73813   7.497   3.884   6.407 -0.0864 -0.3238 -0.3063
22659SOL    HW173814   7.569   3.941   6.436 -0.6901  2.0301 -2.9831
22659SOL    HW273815   7.541   3.808   6.369  0.7753 -1.2690  2.3316
22660SOL     OW73816   0.630   9.743   5.478  0.6635  0.9207 -0.6737
22660SOL    HW173817   0.637   9.695   5.561  0.7228  1.7101 -0.2199
22660SOL    HW273818   0.564   9.695   5.428 -0.8297  1.5676  0.6101
22661SOL     OW73819   1.525   3.628   7.151 -0.3980 -0.8722 -0.3015
22661SOL    HW173820   1.482   3.552   7.112  0.8581 -0.6965 -2.1961
22661SOL    HW273821   1.617   3.619   7.126 -0.0247  0.7017  0.3686
22662SOL     OW73822   7.279   6.910   7.856 -0.6300  0.3610 -0.6049
22662SOL    HW173823   7.334   6.834   7.871 -0.1267 -0.0182 -3.8143
22662SOL    HW273824   7.339   6.985   7.857 -0.4852  0.2589 -1.3389
22663SOL     OW73825   0.018   6.763  10.583  0.8149 -0.3321  0.0324
22663SOL    HW173826   0.029   6.755  10.488 -1.2866 -0.6414 -0.2564
22663SOL    HW273827   0.007   6.672  10.613 -1.5972 -0.1259  0.0350
22664SOL     OW73828   5.642   2.273   4.361 -0.0860  0.5995  0.1122
22664SOL    HW173829   5.589   2.323   4.423 -0.1287 -1.4046  1.7587
22664SOL    HW273830   5.719   2.329   4.346 -0.0382  1.1171  2.0230
22665SOL     OW73831   0.316  10.966  11.133 -0.0329 -0.3405  0.2250
22665SOL    HW173832   0.293  11.004  11.217 -1.3321  0.3760 -0.4200
22665SOL    HW273833   0.305  11.038  11.070  2.7672 -0.3151 -0.3508
22666SOL     OW73834   0.481   7.416  11.278 -0.3809  0.6544 -0.1831
22666SOL    HW173835   0.512   7.371  11.357 -0.3448  0.3491 -0.3729
22666SOL    HW273836   0.387   7.398  11.275 -0.3012  0.2840 -0.4615
22667SOL     OW73837   5.905   9.561   6.758 -0.4629  0.0427  0.1223
22667SOL    HW173838   5.838   9.519   6.704 -0.2704 -0.1579  0.0370
22667SOL    HW273839   5.944   9.627   6.702  0.2809 -0.6978 -0.2597
22668SOL     OW73840   0.435   5.326   1.782 -0.1643 -0.5171  0.0626
22668SOL    HW173841   0.391   5.262   1.725  1.1578 -0.5007 -1.0453
22668SOL    HW273842   0.528   5.303   1.777 -0.0097 -0.6156  2.4071
22669SOL     OW73843   0.551   6.582   3.553 -0.5735 -0.4184  0.0216
22669SOL    HW173844   0.526   6.531   3.631 -0.8519  0.0937  0.2703
22669SOL    HW273845   0.534   6.673   3.577 -3.5137 -0.4005 -1.6669
22670SOL     OW73846  10.467  10.157   9.434 -0.2425  0.2319  0.1746
22670SOL    HW173847  10.464  10.149   9.339 -1.2524  2.6048 -0.0621
22670SOL    HW273848  10.489  10.249   9.450  1.8144 -0.4972  2.2831
22671SOL     OW73849  10.615   9.977   7.839  0.1719  0.0635 -0.3889
22671SOL    HW173850  10.624  10.001   7.931  0.8425  1.0144 -0.6910
22671SOL    HW273851  10.615   9.881   7.839 -0.6325  0.0456  0.6618
22672SOL     OW73852   3.724   7.624   6.690 -0.3643  0.0889  0.0599
22672SOL    HW173853   3.750   7.532   6.693 -0.4187  0.1017  1.6475
22672SOL    HW273854   3.631   7.622   6.666 -0.6500 -0.3411  1.1694
22673SOL     OW73855   5.581   5.006   6.667 -0.4658  0.2457 -0.7081
22673SOL    HW173856   5.596   5.063   6.591 -0.6679  0.8025 -0.3435
22673SOL    HW273857   5.487   4.989   6.665 -0.4283  0.0455 -0.7316
22674SOL     OW73858   5.258   0.769  10.248  0.0700 -0.4764  0.6813
22674SOL    HW173859   5.297   0.810  10.171  0.1413  1.0635  1.5038
22674SOL    HW273860   5.184   0.719  10.213  0.5433 -0.4149 -0.4584
22675SOL     OW73861   7.235   0.361   5.210  0.6889 -0.3223 -0.4353
22675SOL    HW173862   7.297   0.431   5.230  1.3310 -0.8066 -0.6997
22675SOL    HW273863   7.241   0.302   5.285  4.2816 -2.9839 -2.5063
22676SOL     OW73864   9.077   1.181   5.850 -0.4998 -0.4361 -0.2532
22676SOL    HW173865   9.008   1.169   5.785  0.5007  0.2001 -1.4800
22676SOL    HW273866   9.039   1.242   5.914 -1.5717 -1.2386 -0.0866
22677SOL     OW73867  10.908   2.595   3.770 -0.3166 -0.9889 -0.2773
22677SOL    HW173868  10.855   2.633   3.700  1.6335  0.3062 -1.1304
22677SOL    HW273869  10.890   2.651   3.846 -1.4994 -1.6596 -0.0318
22678SOL     OW73870  11.517   0.270   3.077  0.0193 -0.9326  0.1842
22678SOL    HW173871  11.555   0.296   2.993 -0.7663  0.9585  0.3782
22678SOL    HW273872  11.554   0.183   3.093  1.1346 -0.8324 -1.5210
22679SOL     OW73873   2.661  11.884  10.649  0.0305 -0.2691  0.0086
22679SOL    HW173874   2.685  11.795  10.625 -1.9284 -0.5544 -1.1570
22679SOL    HW273875   2.639  11.927  10.566 -1.5982  0.4632  0.7678
22680SOL     OW73876   2.337   5.611  10.785 -0.1190  0.0537  0.0631
22680SOL    HW173877   2.422   5.647  10.808 -0.3429 -0.4456  1.7694
22680SOL    HW273878   2.347   5.516  10.792 -1.5372  0.0191  3.3390
22681SOL     OW73879   2.330   9.744   6.461  0.2821 -0.4890  0.0611
22681SOL    HW173880   2.242   9.731   6.497 -1.0440  1.9778 -1.9508
22681SOL    HW273881   2.350   9.663   6.415 -1.5221 -0.6317 -0.5214
22682SOL     OW73882  10.526   9.376   0.282  0.0582  0.3772  0.6148
22682SOL    HW173883  10.574   9.333   0.352  0.9715  1.1488  0.4917
22682SOL    HW273884  10.593   9.422   0.232 -0.5093 -0.5639 -1.0761
22683SOL     OW73885   5.061   4.810   1.598 -0.4240 -0.1122 -0.0355
22683SOL    HW173886   5.026   4.898   1.607  0.7797  0.3149  0.7204
22683SOL    HW273887   5.090   4.787   1.687  2.1024 -0.0201 -0.7606
22684SOL     OW73888   7.790  11.976   8.311 -0.6432 -0.9376 -0.2574
22684SOL    HW173889   7.782  11.909   8.243  0.7765 -1.6484  0.2515
22684SOL    HW273890   7.823  12.053   8.265 -0.8711 -1.0359 -0.5885
22685SOL     OW73891  10.980   1.031   1.419  0.0437  0.3961 -0.3702
22685SOL    HW173892  11.054   0.987   1.377 -0.9395 -2.7172  0.8833
22685SOL    HW273893  10.914   1.038   1.350 -0.0942 -0.9369 -0.3840
22686SOL     OW73894  10.678  11.802   8.209 -0.0975 -0.3887 -0.0812
22686SOL    HW173895  10.768  11.808   8.179 -0.1811  1.3832 -0.0797
22686SOL    HW273896  10.631  11.869   8.160 -1.3365 -0.9976  0.2202
22687SOL     OW73897   5.944   6.848   9.177  0.5104 -0.3157 -0.7031
22687SOL    HW173898   6.013   6.888   9.231 -0.1635  0.0272 -0.0851
22687SOL    HW273899   5.958   6.885   9.090 -1.6784  3.4498  0.3428
22688SOL     OW73900   0.410   7.942   4.076  0.1600 -0.0495 -0.4079
22688SOL    HW173901   0.317   7.918   4.080  0.1416 -0.2162 -1.4886
22688SOL    HW273902   0.416   8.002   4.001  0.4319  2.3663  1.4269
22689SOL     OW73903   4.931   1.928   5.430 -0.1898 -0.0646 -0.1035
22689SOL    HW173904   4.884   1.855   5.391  0.7510 -0.1292 -1.1653
22689SOL    HW273905   5.024   1.907   5.417  0.1498  0.2922  1.4975
22690SOL     OW73906   8.771   8.558   0.157 -0.1082 -0.1809  0.3546
22690SOL    HW173907   8.724   8.641   0.173 -0.2120  0.1565 -1.4723
22690SOL    HW273908   8.861   8.585   0.140 -0.2298 -0.3844 -0.6648
22691SOL     OW73909   5.193   5.073   4.249  0.0163 -0.6191 -0.0588
22691SOL    HW173910   5.191   5.055   4.155  0.9616 -2.5113  0.2384
22691SOL    HW273911   5.238   5.157   4.257 -0.6648 -0.1132 -1.3243
22692SOL     OW73912   2.295   0.485  11.565  0.3354  0.4366 -0.3376
22692SOL    HW173913   2.304   0.579  11.551  1.1930  0.2454 -1.1604
22692SOL    HW273914   2.375   0.460  11.613  0.1562  0.1118 -0.2014
22693SOL     OW73915   9.171   4.556   4.361 -0.6002  0.1624  0.5045
22693SOL    HW173916   9.128   4.613   4.297 -0.3203 -1.4546 -1.2164
22693SOL    HW273917   9.256   4.598   4.376 -0.5683  0.4454 -0.3857
22694SOL     OW73918   0.873   4.745   0.783 -0.1241  0.2501  0.1240
22694SOL    HW173919   0.806   4.719   0.720 -0.6201 -1.1867  1.2119
22694SOL    HW273920   0.826   4.758   0.865  0.4674  2.3560  0.2025
22695SOL     OW73921  11.323   1.328   3.802 -0.3372 -0.4531 -0.1165
22695SOL    HW173922  11.245   1.379   3.783  0.2084  0.2208 -0.5760
22695SOL    HW273923  11.305   1.288   3.887 -1.5345 -1.0070 -0.5978
22696SOL     OW73924   2.536   3.647   9.122 -0.2524 -0.1022 -0.3970
22696SOL    HW173925   2.480   3.664   9.047  1.7948  0.7358 -1.8325
22696SOL    HW273926   2.562   3.734   9.154 -0.6032 -0.4531  0.9200
22697SOL     OW73927  10.643   8.269   0.715  0.2992  0.0242  0.0079
22697SOL    HW173928  10.551   8.292   0.704  0.3042 -0.6949 -1.7909
22697SOL    HW273929  10.645   8.173   0.711  0.8364 -0.1737  2.7911
22698SOL     OW73930   5.655   4.705   1.287 -0.6589 -0.0457 -0.2803
22698SOL    HW173931   5.593   4.687   1.358 -1.6705  0.1785 -1.0804
22698SOL    HW273932   5.705   4.780   1.317 -1.9041  0.8101 -0.2862
22699SOL     OW73933   8.726  12.122   7.644 -0.2320  0.1119  0.1530
22699SOL    HW173934   8.763  12.150   7.728  0.1985  1.6834 -0.5243
22699SOL    HW273935   8.631  12.127   7.658 -0.1647  0.4479  0.5336
22700SOL     OW73936  10.957   4.196   3.127  0.4270 -0.2068  0.1760
22700SOL    HW173937  10.888   4.228   3.185 -1.9144 -2.4686 -1.1723
22700SOL    HW273938  10.923   4.208   3.039  2.1741 -0.5440 -0.5872
22701SOL     OW73939   8.515   3.806   4.596 -0.0936 -0.4091  0.0722
22701SOL    HW173940   8.609   3.790   4.600 -0.0774 -0.7294 -1.1995
22701SOL    HW273941   8.475   3.724   4.626  0.0313 -1.5424 -2.6114
22702SOL     OW73942   7.393   4.316   3.790 -0.2657  0.0901  0.0724
22702SOL    HW173943   7.426   4.404   3.771 -0.0985  0.1967  0.8389
22702SOL    HW273944   7.447   4.258   3.735 -0.3087  0.4483 -0.3569
22703SOL     OW73945   0.811   6.146   6.883  0.6391 -0.0269 -0.2344
22703SOL    HW173946   0.820   6.157   6.788 -1.0867 -0.4349 -0.4908
22703SOL    HW273947   0.763   6.223   6.912  0.5114 -0.2555  0.1774
22704SOL     OW73948  11.612   1.093   1.927 -0.5993 -0.0449  0.0043
22704SOL    HW173949  11.577   1.005   1.920 -0.0204 -0.2128 -1.0262
22704SOL    HW273950  11.563   1.144   1.862  1.3775 -0.4224 -1.9212
22705SOL     OW73951   4.714   9.125   5.809  0.0213  0.1389  0.3474
22705SOL    HW173952   4.640   9.158   5.758 -0.4395 -2.7228 -1.1093
22705SOL    HW273953   4.790   9.139   5.752 -0.4361 -2.6830 -1.1529
22706SOL     OW73954   3.699   8.903   6.280 -0.3386 -0.3679 -0.1240
22706SOL    HW173955   3.793   8.919   6.288 -0.4235 -0.1708  0.5569
22706SOL    HW273956   3.679   8.919   6.188  0.1124  0.6366 -0.0652
22707SOL     OW73957  12.145   6.849   2.190 -0.3088 -0.1226 -0.2164
22707SOL    HW173958  12.240   6.866   2.192 -0.5217  1.1808  1.4733
22707SOL    HW273959  12.122   6.833   2.282 -1.7674 -0.2256 -0.5793
22708SOL     OW73960   0.297   6.295   8.444  0.0344  0.0399  0.0506
22708SOL    HW173961   0.364   6.315   8.510  1.9789 -0.0352 -1.7852
22708SOL    HW273962   0.264   6.209   8.469  1.6419 -0.5617  0.2575
22709SOL     OW73963   1.874   4.564   0.423  0.3004 -0.3977 -0.1922
22709SOL    HW173964   1.871   4.642   0.478 -0.1299  1.0638 -2.1602
22709SOL    HW273965   1.958   4.571   0.377 -0.3184 -0.3550 -1.3522
22710SOL     OW73966  10.358   4.468   0.148 -0.2273 -0.4297 -0.0619
22710SOL    HW173967  10.285   4.481   0.208  1.2537 -1.2862  2.0496
22710SOL    HW273968  10.431   4.442   0.204  1.7298  0.3748 -2.0658
22711SOL     OW73969   5.776  10.216   2.823 -0.2644  0.3014  0.1303
22711SOL    HW173970   5.703  10.191   2.880 -3.8893  1.4726 -3.4704
22711SOL    HW273971   5.799  10.134   2.778 -0.5890  0.2441  0.0625
22712SOL     OW73972   0.462   9.845   5.717 -0.5120  0.8990 -0.1339
22712SOL    HW173973   0.531   9.790   5.754  0.0558  1.7923  0.1639
22712SOL    HW273974   0.409   9.871   5.793 -0.5034  1.1427 -0.2112
22713SOL     OW73975  10.044   0.130   1.524 -0.3209 -0.7576  0.0700
22713SOL    HW173976   9.987   0.207   1.517  0.5118 -0.0774  0.5195
22713SOL    HW273977   9.984   0.056   1.522 -1.2057 -0.0730  0.2632
22714SOL     OW73978  12.007   4.925   6.156  0.2391  0.0500  0.2158
22714SOL    HW173979  11.985   4.985   6.228 -2.2048 -0.0034 -0.4063
22714SOL    HW273980  12.046   4.981   6.089  1.9046  0.2052  1.2373
22715SOL     OW73981   3.906   2.398   1.463  0.4569 -0.2447 -0.0790
22715SOL    HW173982   3.876   2.361   1.380 -0.1705  0.0294  0.0164
22715SOL    HW273983   3.829   2.392   1.520  0.9072 -0.5100  0.5119
22716SOL     OW73984   2.700   1.026   0.507  0.1341  0.4416 -0.5734
22716SOL    HW173985   2.780   1.026   0.453  0.0617  0.0327 -0.6881
22716SOL    HW273986   2.729   1.056   0.593 -0.5220  5.8481 -1.8835
22717SOL     OW73987   0.716  10.602   3.530 -0.3721  0.1670  0.6440
22717SOL    HW173988   0.647  10.571   3.471 -1.5503  0.8649  1.6036
22717SOL    HW273989   0.704  10.551   3.610 -0.3993  0.9538  1.1555
22718SOL     OW73990   9.418  10.868  11.172  0.4357 -0.3040 -0.1108
22718SOL    HW173991   9.418  10.855  11.267  1.7715 -0.0361 -0.0450
22718SOL    HW273992   9.507  10.845  11.145  0.3625  0.5613 -1.1691
22719SOL     OW73993   9.189  10.779   1.019  0.3036 -0.3241 -0.2688
22719SOL    HW173994   9.230  10.698   0.989 -1.1131 -1.0618 -0.3201
22719SOL    HW273995   9.166  10.762   1.110 -0.7378 -0.3065 -0.5148
22720SOL     OW73996   8.001  12.004   0.839  0.3545 -0.2972  0.2416
22720SOL    HW173997   7.920  11.953   0.828 -0.6973  1.5338 -1.0161
22720SOL    HW273998   7.971  12.091   0.866  1.5968  1.2905 -2.9978
22721SOL     OW73999   1.258  10.211   3.735  0.6672  0.3997  0.1836
22721SOL    HW174000   1.261  10.288   3.792 -2.1368  0.5269  0.3002
22721SOL    HW274001   1.178  10.223   3.684  2.0937 -0.6472 -2.4915
22722SOL     OW74002   4.625   8.540   9.546  0.1431 -0.2193 -0.2508
22722SOL    HW174003   4.583   8.569   9.466  1.6314  1.6755 -0.4188
22722SOL    HW274004   4.669   8.458   9.523  0.0438 -0.0107 -1.1888
22723SOL     OW74005   0.483   1.180   8.395  0.5551  0.1948 -0.3281
22723SOL    HW174006   0.536   1.252   8.427  0.8527 -0.4573  0.7253
22723SOL    HW274007   0.452   1.136   8.475 -0.1159 -0.4740 -0.9383
22724SOL     OW74008   9.005   1.221   8.187  0.2139  0.1176 -0.6947
22724SOL    HW174009   9.023   1.315   8.199 -0.4775  0.0869  0.8155
22724SOL    HW274010   9.079   1.178   8.230 -1.4573  0.0090  2.3542
22725SOL     OW74011   1.667   9.096  11.964 -0.0564  0.1125  0.3188
22725SOL    HW174012   1.690   9.174  12.015 -0.9315  0.9439 -0.5192
22725SOL    HW274013   1.622   9.131  11.887  1.9373 -1.0393 -1.4824
22726SOL     OW74014   1.182   5.676  10.999 -0.3736 -0.3480 -0.3646
22726SOL    HW174015   1.148   5.620  10.930  0.6265  0.1226 -1.2661
22726SOL    HW274016   1.276   5.680  10.983 -0.1446 -0.1142  0.9428
22727SOL     OW74017   1.702   2.998   9.162 -0.0140  0.5247  0.5834
22727SOL    HW174018   1.719   3.086   9.127 -2.4475  1.6745  2.0402
22727SOL    HW274019   1.628   3.010   9.222  1.2974 -2.0465  2.9461
22728SOL     OW74020   5.805   6.956   8.501 -0.6670  0.2882 -0.6999
22728SOL    HW174021   5.900   6.943   8.502 -0.5323  1.1724  0.4158
22728SOL    HW274022   5.793   7.038   8.454 -0.7156  1.0975  0.6720
22729SOL     OW74023  11.972   1.779  11.115 -0.2396  0.4219 -0.4228
22729SOL    HW174024  12.006   1.778  11.204 -1.9122 -1.7082  0.2956
22729SOL    HW274025  12.035   1.728  11.064  0.4442  1.1877 -0.3535
22730SOL     OW74026   2.563  10.081   0.469 -0.3269 -0.0097 -0.4056
22730SOL    HW174027   2.582  10.000   0.422 -1.1567 -0.2697 -0.3148
22730SOL    HW274028   2.646  10.108   0.507  0.0172 -0.6528 -0.7000
22731SOL     OW74029   9.944   2.063   2.231  0.2486  0.2082  0.1923
22731SOL    HW174030   9.952   2.068   2.136 -0.0739 -1.2175  0.0780
22731SOL    HW274031   9.859   2.102   2.250 -0.0787 -0.3214 -0.1859
22732SOL     OW74032   8.169   7.889   1.517  0.2496  0.4198 -0.1286
22732SOL    HW174033   8.200   7.870   1.606  0.8392  3.0587  0.3068
22732SOL    HW274034   8.200   7.816   1.464  0.1676 -1.0493  1.7646
22733SOL     OW74035   3.277   5.788   5.872  0.4675 -0.3364 -0.1120
22733SOL    HW174036   3.184   5.789   5.895  0.7133  0.5264  0.9402
22733SOL    HW274037   3.279   5.764   5.779 -0.8533  0.3940 -0.3473
22734SOL     OW74038   3.617  10.998   2.522  0.7661 -0.5408 -0.1205
22734SOL    HW174039   3.568  10.939   2.578 -1.4055 -0.1197 -1.4473
22734SOL    HW274040   3.596  11.085   2.555  1.8901 -0.3810  0.2270
22735SOL     OW74041   2.538  10.837   4.340 -0.7675  0.1870 -0.1930
22735SOL    HW174042   2.444  10.855   4.330 -1.0496 -1.9705 -2.3729
22735SOL    HW274043   2.575  10.855   4.253  0.8460  0.8468  0.5910
22736SOL     OW74044   7.494   5.865   4.339  0.1501  0.5448  0.3013
22736SOL    HW174045   7.466   5.775   4.326 -0.7950  0.8162  0.3442
22736SOL    HW274046   7.589   5.861   4.341  0.1175 -0.4498  0.3091
22737SOL     OW74047   0.572   0.026   8.918 -0.0679 -0.3116 -0.1014
22737SOL    HW174048   0.655   0.060   8.952  0.3068 -0.2150 -1.0709
22737SOL    HW274049   0.597  -0.028   8.843 -0.7952 -1.3189  0.3532
22738SOL     OW74050  11.161  11.116   1.633 -0.0824 -0.6011  0.0541
22738SOL    HW174051  11.069  11.101   1.653  0.0510 -1.6075 -0.0221
22738SOL    HW274052  11.178  11.062   1.556  0.5301 -0.2906 -0.0322
22739SOL     OW74053   3.042   4.310   7.206 -0.2957 -0.0953 -0.1380
22739SOL    HW174054   3.018   4.333   7.117 -2.0860 -0.4847  0.2073
22739SOL    HW274055   3.093   4.385   7.237  1.0660 -0.3129 -1.7293
22740SOL     OW74056  11.200   6.127   5.950 -0.5247 -0.1639  0.2991
22740SOL    HW174057  11.168   6.043   5.983  0.9270 -0.5376  0.8474
22740SOL    HW274058  11.257   6.160   6.020  0.7172  0.1750 -0.8347
22741SOL     OW74059   6.095   0.605   4.071 -0.1918 -0.4415  0.3531
22741SOL    HW174060   6.111   0.601   4.165  0.0515 -0.7654  0.3033
22741SOL    HW274061   6.181   0.626   4.033 -0.0431 -1.3583  0.1354
22742SOL     OW74062   2.461   8.114  11.735  0.0924  0.3275  0.1127
22742SOL    HW174063   2.510   8.142  11.657 -0.2681 -0.1194 -0.2807
22742SOL    HW274064   2.497   8.166  11.806 -0.5623  1.8065 -0.5987
22743SOL     OW74065   5.159   5.201   0.843 -0.5961  0.0706  0.3348
22743SOL    HW174066   5.190   5.181   0.932 -0.3212 -1.7526 -0.1236
22743SOL    HW274067   5.196   5.287   0.824 -0.7710  0.5691  2.0244
22744SOL     OW74068   4.217  11.769   1.004  0.1954  0.2024 -0.1875
22744SOL    HW174069   4.197  11.846   1.057  1.9182  1.2765 -1.0294
22744SOL    HW274070   4.312  11.760   1.010  0.0743 -1.6162 -0.4563
22745SOL     OW74071   9.980   3.916   4.792 -0.8476 -0.1631  0.2362
22745SOL    HW174072  10.024   3.985   4.742 -0.2552 -0.2076  0.6752
22745SOL    HW274073   9.959   3.957   4.876 -0.9625 -0.3647  0.3071
22746SOL     OW74074   9.250   9.643   5.791 -0.1831 -0.3560 -0.2192
22746SOL    HW174075   9.199   9.643   5.872  3.3173 -0.3380  2.2014
22746SOL    HW274076   9.229   9.727   5.750 -1.2350  0.1450  1.2341
22747SOL     OW74077   6.850   0.968   6.620 -0.3869 -0.1745 -0.0285
22747SOL    HW174078   6.942   0.993   6.622 -0.1933 -0.8647  1.0116
22747SOL    HW274079   6.820   0.988   6.532  0.6394  0.4818 -0.2351
22748SOL     OW74080   3.706   5.353  10.148  0.4212 -0.3937  0.2454
22748SOL    HW174081   3.754   5.273  10.126  0.2249 -0.5146  0.2518
22748SOL    HW274082   3.672   5.337  10.236  0.0304 -0.4751  0.0852
22749SOL     OW74083   2.543  11.429   5.616  0.1458  0.0234  0.1478
22749SOL    HW174084   2.582  11.434   5.529 -1.4291  0.5209 -0.5472
22749SOL    HW274085   2.595  11.362   5.661  1.9638  0.8392 -0.6269
22750SOL     OW74086  10.221   5.320   0.879  0.1267 -0.6362  0.1081
22750SOL    HW174087  10.146   5.300   0.822 -0.4041 -2.7558  1.4255
22750SOL    HW274088  10.184   5.328   0.966  0.9160  2.6817  0.2726
22751SOL     OW74089   2.762   7.693   5.866  0.3145 -0.0431  0.2484
22751SOL    HW174090   2.773   7.604   5.831  1.6512 -1.2223  3.3049
22751SOL    HW274091   2.851   7.728   5.871  0.1064  0.3538  1.5907
22752SOL     OW74092   5.277  10.458   2.122  0.4858  0.4555 -0.1500
22752SOL    HW174093   5.251  10.375   2.084 -1.1764  0.4534  0.8594
22752SOL    HW274094   5.202  10.516   2.108  1.2277  1.5048  0.0156
22753SOL     OW74095  11.421  11.853  11.494  0.1414 -0.5748  0.3119
22753SOL    HW174096  11.486  11.919  11.472 -0.6627  0.1208 -0.0333
22753SOL    HW274097  11.339  11.888  11.459 -0.4468 -1.3514  0.8879
22754SOL     OW74098   4.097  11.810   7.946  0.0860 -0.9066  0.8899
22754SOL    HW174099   4.157  11.865   7.996 -0.5884 -0.4756  1.2401
22754SOL    HW274100   4.010  11.839   7.973 -0.3120 -0.2165 -1.0013
22755SOL     OW74101   4.931  11.295  10.988  0.0648 -0.4837  0.8161
22755SOL    HW174102   4.875  11.288  11.065 -0.6866 -0.6429  0.2705
22755SOL    HW274103   4.995  11.362  11.011  0.4834 -1.2405  1.9507
22756SOL     OW74104   2.892   2.529   6.664 -0.5956 -0.0001  0.1452
22756SOL    HW174105   2.913   2.522   6.758  2.3082 -0.0404 -0.4149
22756SOL    HW274106   2.856   2.617   6.655 -1.5632 -0.2387  1.3979
22757SOL     OW74107   4.818   9.648   3.272 -0.0594  0.3894 -0.2409
22757SOL    HW174108   4.851   9.721   3.220 -0.1186  1.0698  0.6646
22757SOL    HW274109   4.812   9.682   3.361 -1.4552 -0.2897 -0.0530
22758SOL     OW74110   5.844  11.191   9.760 -0.1354  0.5883  0.0880
22758SOL    HW174111   5.830  11.281   9.790  3.2578  0.6843  1.9117
22758SOL    HW274112   5.885  11.147   9.835  2.8211 -1.0520 -2.2474
22759SOL     OW74113   0.760   9.963   3.669  0.4592 -0.4451  0.1712
22759SOL    HW174114   0.825   9.925   3.610 -0.7349 -1.1515 -0.7162
22759SOL    HW274115   0.686   9.986   3.613 -0.2721 -0.1267  1.2343
22760SOL     OW74116  11.086   3.338   5.964 -0.8503  0.0106  0.2535
22760SOL    HW174117  11.021   3.309   6.027 -0.6535  1.6136  1.2525
22760SOL    HW274118  11.050   3.313   5.879 -1.5865 -1.3055  0.9190
22761SOL     OW74119   6.577  12.225   4.709  0.3559  0.7577 -0.0275
22761SOL    HW174120   6.520  12.224   4.633  1.3376 -0.0422 -0.7659
22761SOL    HW274121   6.666  12.228   4.674  0.9042 -1.1988  1.0145
22762SOL     OW74122   2.511   0.916   2.948  0.0264  0.5048 -0.5058
22762SOL    HW174123   2.452   0.945   3.018 -0.0881 -2.4111  0.7528
22762SOL    HW274124   2.455   0.906   2.872 -0.2268  1.8502 -0.5233
22763SOL     OW74125   4.951  10.838   1.929 -0.1961 -0.6978 -0.1416
22763SOL    HW174126   5.002  10.918   1.941  1.1789 -1.6634  0.7155
22763SOL    HW274127   4.918  10.844   1.839 -1.6902  1.6579  0.4753
22764SOL     OW74128   3.026  12.131   7.149  0.2965 -0.1934  0.5624
22764SOL    HW174129   2.963  12.196   7.180 -1.9613 -1.4484 -1.0596
22764SOL    HW274130   3.110  12.177   7.148 -0.9800  2.3113  0.5896
22765SOL     OW74131   9.757  12.034   1.627 -0.1790 -0.4672  0.5132
22765SOL    HW174132   9.827  11.984   1.667  0.4813  1.9241  2.5896
22765SOL    HW274133   9.704  12.065   1.701 -1.4689  0.5604 -0.7769
22766SOL     OW74134  10.207   4.885   3.311  0.1622 -0.0311 -0.0209
22766SOL    HW174135  10.210   4.789   3.309  1.3313 -0.0202  0.7253
22766SOL    HW274136  10.297   4.912   3.295 -0.2011  0.9592 -0.4461
22767SOL     OW74137   9.236   8.795   7.139  0.0629 -0.0897  0.2062
22767SOL    HW174138   9.301   8.861   7.116 -0.0338  0.4588  1.4729
22767SOL    HW274139   9.287   8.716   7.158  0.2765  0.0492  0.2030
22768SOL     OW74140   5.791   2.580  11.849 -0.4638  0.2291 -0.4904
22768SOL    HW174141   5.780   2.552  11.940  0.8117  3.0537  0.6318
22768SOL    HW274142   5.717   2.637  11.831 -0.7245 -0.3282 -1.2774
22769SOL     OW74143   3.189   9.220   9.117 -0.3932  0.5173 -0.3839
22769SOL    HW174144   3.139   9.215   9.035 -1.6780 -1.5060  0.4492
22769SOL    HW274145   3.222   9.131   9.130  0.2210  0.9358  1.0478
22770SOL     OW74146   7.782  10.272   4.819  0.7187  0.4837 -0.3498
22770SOL    HW174147   7.748  10.222   4.893 -0.3993  0.9884 -0.5110
22770SOL    HW274148   7.820  10.206   4.761 -0.3805 -0.1497 -0.3743
22771SOL     OW74149  10.817   5.415   7.266  0.0659 -0.1536  0.3008
22771SOL    HW174150  10.830   5.362   7.345 -1.4118 -1.5998 -0.3825
22771SOL    HW274151  10.756   5.484   7.292 -0.4322 -0.6399  0.4271
22772SOL     OW74152  10.611   7.810   6.067  0.6350  0.1045  0.1681
22772SOL    HW174153  10.552   7.858   6.009  2.1961 -1.3852 -2.8755
22772SOL    HW274154  10.556   7.743   6.108  0.0409 -1.2565 -2.5902
22773SOL     OW74155   0.544   0.357   0.072  0.0199 -0.0947  0.0159
22773SOL    HW174156   0.509   0.357   0.162  3.3468 -2.2166  1.5124
22773SOL    HW274157   0.541   0.265   0.046 -2.0598  0.6289 -2.6897
22774SOL     OW74158   3.309   2.125   0.031 -0.1995  0.7501 -0.7386
22774SOL    HW174159   3.379   2.064   0.056 -0.9064 -0.1587 -0.9442
22774SOL    HW274160   3.286   2.171   0.112  1.0691  1.5366 -0.7914
22775SOL     OW74161   7.530   1.982   0.548 -0.2403 -0.4701  0.2531
22775SOL    HW174162   7.540   2.052   0.612 -0.8067  1.4642 -1.6618
22775SOL    HW274163   7.438   1.987   0.521 -0.1684 -1.6429 -0.2587
22776SOL     OW74164  10.582   7.556   0.832  0.1936  0.1396 -0.1227
22776SOL    HW174165  10.583   7.469   0.872 -1.6524  0.0023 -0.3284
22776SOL    HW274166  10.586   7.616   0.906 -1.4849 -0.1235  0.2152
22777SOL     OW74167   3.003   6.183   8.633 -0.4350  0.5860  0.4946
22777SOL    HW174168   2.955   6.125   8.574  0.0409  1.1668 -0.4785
22777SOL    HW274169   3.077   6.215   8.582 -0.2425  1.4341  1.2654
22778SOL     OW74170   0.723   1.075   8.320  0.3980 -0.0770 -0.4011
22778SOL    HW174171   0.640   1.118   8.336  0.8870  1.2637 -1.3297
22778SOL    HW274172   0.788   1.145   8.324  1.1056 -0.4625 -3.0946
22779SOL     OW74173   8.366   0.033   8.197 -0.1183  0.3779  0.1064
22779SOL    HW174174   8.344   0.058   8.287  1.4612 -1.7906  1.1991
22779SOL    HW274175   8.304  -0.036   8.175 -1.5595  1.9826 -1.1788
22780SOL     OW74176   8.273  10.970   0.250 -0.0994  0.9409  0.1454
22780SOL    HW174177   8.199  10.986   0.191  0.3156  0.6999 -0.4548
22780SOL    HW274178   8.349  10.964   0.192  0.5029  1.8767  0.8121
22781SOL     OW74179  11.678  10.710   1.718  0.1402 -0.9403 -0.8686
22781SOL    HW174180  11.653  10.664   1.637  0.4071 -0.2948 -1.3205
22781SOL    HW274181  11.602  10.766   1.737  0.8534  0.3876 -1.7761
22782SOL     OW74182   5.354   2.304   5.337  0.2559 -0.3465 -0.2252
22782SOL    HW174183   5.293   2.324   5.266  0.0146 -0.1664  0.0330
22782SOL    HW274184   5.387   2.389   5.365 -0.4429 -0.3253  0.5771
22783SOL     OW74185  10.875   6.845  12.095 -0.5115 -0.0878  0.3409
22783SOL    HW174186  10.905   6.754  12.100 -2.3658 -0.7798 -0.1850
22783SOL    HW274187  10.800   6.842  12.036 -2.8766  1.1090  3.0608
22784SOL     OW74188   6.183  10.319   4.959 -0.2807  0.2461 -0.1296
22784SOL    HW174189   6.268  10.345   4.924 -0.6722 -0.8851 -2.0389
22784SOL    HW274190   6.184  10.349   5.050  1.9654  0.6641 -0.2532
22785SOL     OW74191  10.207   7.338   5.831 -0.4660  0.7264  0.2897
22785SOL    HW174192  10.126   7.376   5.863 -0.5239  0.7270  0.1426
22785SOL    HW274193  10.186   7.246   5.814 -0.4022  0.6961  0.3743
22786SOL     OW74194  11.542   5.275  12.114 -0.0764  0.0594 -0.4112
22786SOL    HW174195  11.486   5.343  12.153 -0.5979 -0.1227 -0.8286
22786SOL    HW274196  11.571   5.223  12.188 -0.3704  0.2250 -0.1753
22787SOL     OW74197   6.654   0.975   4.985  0.1661  0.4331 -0.7557
22787SOL    HW174198   6.685   0.905   4.929  2.2994  0.4727  0.2571
22787SOL    HW274199   6.727   1.038   4.987 -0.1324  0.7807  1.4256
22788SOL     OW74200   9.035   1.253   4.802 -0.0477 -0.5800 -0.7332
22788SOL    HW174201   9.004   1.200   4.875  2.9338 -1.0031  0.3690
22788SOL    HW274202   9.032   1.343   4.834  2.2346 -0.8468  0.4144
22789SOL     OW74203   2.698   2.728   5.675 -0.2354  0.1750  0.2228
22789SOL    HW174204   2.679   2.782   5.751 -0.6181  1.6122 -0.8538
22789SOL    HW274205   2.660   2.643   5.696  0.2791  0.3261  1.9122
22790SOL     OW74206   8.025  10.717   5.194  0.0718 -0.0883  0.0680
22790SOL    HW174207   8.109  10.740   5.234  0.6621 -2.2990  0.2344
22790SOL    HW274208   8.002  10.792   5.140  2.6091  0.2256 -0.6949
22791SOL     OW74209   1.205   5.426   3.617 -0.3426  0.0224 -0.8766
22791SOL    HW174210   1.299   5.429   3.633 -0.3943  2.4568 -0.6597
22791SOL    HW274211   1.188   5.498   3.556 -2.2488  0.7496  0.4124
22792SOL     OW74212   3.653   2.613   1.205 -0.1557  0.6099 -0.2930
22792SOL    HW174213   3.712   2.574   1.140 -2.1683 -0.3996 -1.6392
22792SOL    HW274214   3.594   2.541   1.229 -0.9246  1.6019  0.8686
22793SOL     OW74215   3.616   4.448   0.250  0.3364 -0.2224  0.0701
22793SOL    HW174216   3.555   4.507   0.294  0.5481 -0.1534  0.2750
22793SOL    HW274217   3.702   4.487   0.264  0.2196  1.1068 -2.4517
22794SOL     OW74218   6.959   5.584   8.943  0.5356 -0.5261 -0.0580
22794SOL    HW174219   7.044   5.562   8.982  1.2712 -0.1466 -1.3975
22794SOL    HW274220   6.973   5.670   8.903 -0.2808 -0.7872 -0.9051
22795SOL     OW74221   2.793   5.768  11.937  0.1041 -0.5202 -0.0898
22795SOL    HW174222   2.847   5.758  12.015 -0.1305 -0.7806  0.0404
22795SOL    HW274223   2.704   5.772  11.970  0.0291 -0.2996 -0.3207
22796SOL     OW74224   0.852   1.995   9.414 -0.0406 -0.2595 -0.3617
22796SOL    HW174225   0.868   2.047   9.493  2.2360 -1.0138 -0.2575
22796SOL    HW274226   0.774   1.944   9.435  0.2217 -0.0751  1.2065
22797SOL     OW74227  11.038   7.638  10.822  0.8090 -0.2786  0.0215
22797SOL    HW174228  11.095   7.561  10.822 -0.7185 -1.4751  0.6006
22797SOL    HW274229  11.064   7.687  10.901  2.9098  0.7460 -1.2206
22798SOL     OW74230  12.111   0.729  11.447 -0.7090 -0.5598 -0.2774
22798SOL    HW174231  12.167   0.805  11.466 -0.5064 -0.2475 -2.0010
22798SOL    HW274232  12.027   0.767  11.422 -0.6696 -0.9004 -0.9478
22799SOL     OW74233  11.244  11.549  12.032  0.7463  0.3505 -0.5061
22799SOL    HW174234  11.205  11.622  12.081  1.0498  1.7516 -2.2437
22799SOL    HW274235  11.169  11.504  11.993  0.4851 -0.8899  1.2740
22800SOL     OW74236   2.476   1.868   4.580 -0.0454 -0.2941  0.4246
22800SOL    HW174237   2.554   1.923   4.569  0.1431 -0.3982  1.1867
22800SOL    HW274238   2.421   1.890   4.504 -0.3325  1.5455  1.1068
22801SOL     OW74239   9.576   5.836   0.913  0.3712  0.1951  0.2670
22801SOL    HW174240   9.569   5.820   1.007 -0.0494  1.2888  0.4417
22801SOL    HW274241   9.580   5.931   0.905  1.7790  0.0892 -0.7478
22802SOL     OW74242   1.999   2.114   0.413 -0.2891  0.2528  0.6494
22802SOL    HW174243   1.952   2.197   0.417  1.1484  1.0400  2.4490
22802SOL    HW274244   2.002   2.083   0.503  3.4588  0.8063  0.8821
22803SOL     OW74245   4.542   4.927   7.668  0.4766 -0.0241  0.0300
22803SOL    HW174246   4.532   4.844   7.715 -0.7463  0.5988  0.9394
22803SOL    HW274247   4.464   4.933   7.612 -0.8335  1.6459  1.8807
22804SOL     OW74248   5.414   0.252  10.534  0.5015  0.1547 -0.6002
22804SOL    HW174249   5.474   0.178  10.540  1.1745  0.3643 -3.4855
22804SOL    HW274250   5.329   0.216  10.560  1.4052 -0.7121  1.3301
22805SOL     OW74251   9.836  10.051  10.162 -0.4719  0.6419 -0.4855
22805SOL    HW174252   9.772   9.988  10.194 -0.1713  0.0349 -1.0584
22805SOL    HW274253   9.830  10.125  10.222 -0.9454  0.1349  0.0928
22806SOL     OW74254   7.182   1.620   6.041 -0.7848  0.7323 -0.5098
22806SOL    HW174255   7.186   1.525   6.040  1.2477  0.7600 -2.6878
22806SOL    HW274256   7.234   1.646   6.117 -1.2436  0.1393  0.0180
22807SOL     OW74257   2.103   4.957   8.453  0.2909 -0.3186 -0.0958
22807SOL    HW174258   2.138   4.986   8.369  1.6746 -2.4354 -0.3387
22807SOL    HW274259   2.036   4.892   8.429  0.5979 -0.8309  0.4209
22808SOL     OW74260   1.042   9.624   2.420 -0.0476  0.1521 -0.9244
22808SOL    HW174261   1.066   9.532   2.428 -1.1795 -0.2162 -1.6171
22808SOL    HW274262   1.125   9.671   2.426  0.8120 -1.0333 -2.7478
22809SOL     OW74263   4.160   4.859   5.187  0.2478 -0.1151 -0.3644
22809SOL    HW174264   4.163   4.766   5.209 -1.7183 -0.0791  0.2588
22809SOL    HW274265   4.173   4.861   5.093  0.8206 -0.9670 -0.3203
22810SOL     OW74266   6.115   2.368  11.797 -0.5130  0.4133 -0.0715
22810SOL    HW174267   6.198   2.365  11.844 -0.2175  0.5597 -0.5696
22810SOL    HW274268   6.106   2.460  11.772  0.6635 -0.0607 -2.5743
22811SOL     OW74269   5.342   2.760   8.779 -0.0417 -0.2783  0.5461
22811SOL    HW174270   5.273   2.707   8.818 -0.8210  1.2415  1.3290
22811SOL    HW274271   5.311   2.779   8.691  0.2181 -1.0367  0.2795
22812SOL     OW74272   1.742   3.015   2.947 -1.1087  0.2182 -0.5196
22812SOL    HW174273   1.726   3.016   2.853 -1.9760  1.2494 -0.3848
22812SOL    HW274274   1.767   3.105   2.968  0.7870 -0.3845 -0.0100
22813SOL     OW74275   2.609   6.836  11.476  0.0734 -0.0143 -0.5383
22813SOL    HW174276   2.664   6.771  11.432  0.3719 -0.5813  0.6277
22813SOL    HW274277   2.622   6.819  11.569 -0.8892  0.8583 -0.2270
22814SOL     OW74278   5.162   0.333  11.341 -0.5462 -0.3864  0.3453
22814SOL    HW174279   5.159   0.394  11.267  0.7032 -0.1793  0.4442
22814SOL    HW274280   5.085   0.277  11.329 -1.3874  0.8259 -0.0733
22815SOL     OW74281   9.924  12.092   5.913 -0.3264 -0.2367 -0.0311
22815SOL    HW174282   9.891  12.029   5.849 -0.9577 -1.0181  1.0508
22815SOL    HW274283   9.998  12.048   5.955  1.8002  1.2296 -1.9332
22816SOL     OW74284   8.848   0.418   2.833 -0.2079 -0.1656 -0.3166
22816SOL    HW174285   8.791   0.494   2.826  0.1933  0.2693  0.8850
22816SOL    HW274286   8.887   0.409   2.746 -0.9045  0.4866 -0.7030
22817SOL     OW74287   6.579   0.155   9.463 -0.1410  0.6205 -0.0800
22817SOL    HW174288   6.514   0.108   9.411 -0.2823  0.7487 -0.0220
22817SOL    HW274289   6.529   0.193   9.536 -0.1768  1.5366 -0.5673
22818SOL     OW74290   8.222   1.795   1.315  0.4281  0.7912  0.5528
22818SOL    HW174291   8.187   1.748   1.391 -1.4776 -0.2253 -0.8659
22818SOL    HW274292   8.236   1.885   1.346  0.9712  0.0901  2.4305
22819SOL     OW74293   3.408   5.848   3.697 -0.3942 -0.0773 -0.4033
22819SOL    HW174294   3.384   5.755   3.688 -0.0037 -0.2320  0.0829
22819SOL    HW274295   3.472   5.849   3.768 -0.1142  0.5203 -0.6554
22820SOL     OW74296   1.530   8.819   2.521  0.0888  0.3507  0.2274
22820SOL    HW174297   1.586   8.765   2.465  0.5722 -0.2414  1.2465
22820SOL    HW274298   1.576   8.904   2.526  0.2340  0.2845  0.0297
22821SOL     OW74299   4.478   6.876   4.443 -0.4472 -0.4825  0.3057
22821SOL    HW174300   4.490   6.797   4.391  0.7077  0.2899 -0.6545
22821SOL    HW274301   4.386   6.900   4.430 -0.3303 -0.6267 -0.9384
22822SOL     OW74302  10.356   9.081   1.997  0.6273 -0.2931  0.5773
22822SOL    HW174303  10.427   9.018   2.012  0.8552 -0.1159  0.2546
22822SOL    HW274304  10.281   9.043   2.042 -0.1251 -2.4195 -2.1693
22823SOL     OW74305   7.076   7.697  10.550 -0.4933  0.0484 -0.1276
22823SOL    HW174306   7.118   7.768  10.598  0.7657 -0.3710 -0.5637
22823SOL    HW274307   7.142   7.628  10.547 -0.6421 -0.0441 -2.2075
22824SOL     OW74308   5.137   4.679   4.928 -0.2055 -0.3145 -0.6849
22824SOL    HW174309   5.114   4.765   4.894  0.6741  1.0628  1.9093
22824SOL    HW274310   5.096   4.675   5.014  2.6467 -0.9373  0.7707
22825SOL     OW74311   1.241   2.024   8.634 -0.3091  0.5776 -0.3081
22825SOL    HW174312   1.186   2.063   8.566  1.8189 -0.1176 -2.5690
22825SOL    HW274313   1.215   1.932   8.637  0.6732  0.2487 -1.3779
22826SOL     OW74314   0.473   5.262   9.375 -0.5567 -0.5583 -0.7755
22826SOL    HW174315   0.561   5.229   9.357  0.0881  1.8718 -2.6146
22826SOL    HW274316   0.441   5.293   9.290 -2.0176  1.2341  0.3497
22827SOL     OW74317   0.820   5.139  12.273 -0.0429  0.8710 -0.3644
22827SOL    HW174318   0.888   5.159  12.207  1.1079  0.6987  0.7326
22827SOL    HW274319   0.869   5.129  12.355 -1.5249  1.8308  0.6744
22828SOL     OW74320   0.251   6.208   0.667 -0.1433 -0.3088  0.0338
22828SOL    HW174321   0.282   6.118   0.663  1.3843  0.1996 -0.0310
22828SOL    HW274322   0.224   6.229   0.578  1.8027  0.0526 -0.5158
22829SOL     OW74323   1.865   9.787   9.716  0.5626  0.1419 -0.0396
22829SOL    HW174324   1.775   9.755   9.707  1.0157 -1.3505  0.5252
22829SOL    HW274325   1.911   9.749   9.641  0.9188  0.2290  0.1369
22830SOL     OW74326   9.133   9.085   7.931 -0.5924 -0.3650  0.5839
22830SOL    HW174327   9.084   9.096   7.850 -1.0396  1.1252  1.0329
22830SOL    HW274328   9.102   9.155   7.988 -0.0124 -1.1590  1.9124
22831SOL     OW74329   7.668   0.320   3.890 -0.0868 -0.1947  0.3321
22831SOL    HW174330   7.691   0.234   3.924  0.2091 -0.0135  0.5981
22831SOL    HW274331   7.648   0.305   3.797  1.1351 -0.3551  0.0830
22832SOL     OW74332   5.429   9.382  11.118  0.1252  0.1128  0.1952
22832SOL    HW174333   5.401   9.292  11.101 -0.4387  0.5479 -1.3709
22832SOL    HW274334   5.500   9.373  11.182  0.1568 -1.4429 -0.0077
22833SOL     OW74335  11.525  10.971  11.290 -0.0838  0.0782 -0.0834
22833SOL    HW174336  11.494  11.007  11.208 -0.2017  2.4720  0.9455
22833SOL    HW274337  11.475  11.016  11.358  1.7484  0.0343  1.4017
22834SOL     OW74338   1.983   4.106  12.082 -0.4441  0.0870 -0.7257
22834SOL    HW174339   1.918   4.173  12.104 -1.7202 -1.0014 -1.0459
22834SOL    HW274340   1.961   4.079  11.993  0.1993 -0.5807 -0.6966
22835SOL     OW74341   8.704   7.357  12.203  0.2066  0.2246 -0.0795
22835SOL    HW174342   8.733   7.271  12.171  1.6123  0.8533 -0.5812
22835SOL    HW274343   8.784   7.410  12.206 -0.7466  1.7530 -0.4936
22836SOL     OW74344   5.316   9.302   3.759 -0.3003 -0.5446 -0.2766
22836SOL    HW174345   5.362   9.227   3.721 -2.8019 -1.1346 -2.5093
22836SOL    HW274346   5.375   9.376   3.748  1.0000 -1.6421 -0.9074
22837SOL     OW74347   9.875  11.039   9.678  0.1241 -0.2181 -0.1300
22837SOL    HW174348   9.931  10.995   9.742  0.3704  0.4068  0.0915
22837SOL    HW274349   9.815  11.092   9.731  0.7115  0.7564 -0.4256
22838SOL     OW74350   0.170   5.994   8.983 -0.1839 -0.2485  0.5074
22838SOL    HW174351   0.084   5.963   8.958 -0.5141 -0.9553  2.3574
22838SOL    HW274352   0.164   6.089   8.978 -1.3017 -0.2642  1.2871
22839SOL     OW74353   8.625   9.536   0.582  0.1811 -0.0658  0.1370
22839SOL    HW174354   8.579   9.575   0.656 -0.4058 -0.1087 -0.1950
22839SOL    HW274355   8.575   9.456   0.562 -0.7260  0.8286 -1.3893
22840SOL     OW74356   0.396   4.620   3.019 -0.3701 -0.2405 -0.6814
22840SOL    HW174357   0.320   4.644   2.966  0.4010 -1.0599 -2.2398
22840SOL    HW274358   0.363   4.618   3.109 -2.0890 -0.2303 -1.2679
22841SOL     OW74359   7.801   4.855   1.651 -0.4277 -0.0458  0.3736
22841SOL    HW174360   7.823   4.761   1.656 -0.9367 -0.1570  0.5306
22841SOL    HW274361   7.720   4.858   1.601  1.1197  0.5468 -2.3639
22842SOL     OW74362   4.542   7.381   8.785 -0.8244  0.2701  0.1309
22842SOL    HW174363   4.570   7.347   8.870 -0.3109 -0.9713 -0.5183
22842SOL    HW274364   4.616   7.436   8.756 -0.9660  0.6288  0.4354
22843SOL     OW74365   6.426   5.794   7.532 -0.0740 -0.0868  0.1304
22843SOL    HW174366   6.422   5.706   7.496  0.0416  0.3539 -0.9890
22843SOL    HW274367   6.337   5.811   7.564 -0.5503  0.0287 -1.2168
22844SOL     OW74368  10.211   9.888   1.807  0.3565  0.0007 -0.4456
22844SOL    HW174369  10.282   9.950   1.815 -0.4887  1.0303 -0.7178
22844SOL    HW274370  10.141   9.924   1.862 -0.6624  0.0758 -1.7540
22845SOL     OW74371   0.083   7.899   3.152  0.0293  0.3802 -0.0357
22845SOL    HW174372   0.080   7.815   3.107  2.2422  1.0527 -1.5822
22845SOL    HW274373   0.097   7.876   3.244 -1.2564 -0.9384 -0.1241
22846SOL     OW74374  11.030  11.069   5.643 -0.2596  0.0299  0.1605
22846SOL    HW174375  11.120  11.101   5.645  0.1502 -0.9665  2.6922
22846SOL    HW274376  11.029  11.005   5.572  0.3090  1.7867 -1.5102
22847SOL     OW74377   4.635   9.156   0.043  0.2172 -0.0406  0.1142
22847SOL    HW174378   4.724   9.124   0.060 -0.3991 -2.7430 -1.0840
22847SOL    HW274379   4.636   9.247   0.072  2.7883 -0.5457  2.0299
22848SOL     OW74380  10.933   0.544   2.825  0.2937 -0.1425 -0.6135
22848SOL    HW174381  10.982   0.625   2.808 -0.5022  0.3399 -0.6580
22848SOL    HW274382  10.972   0.480   2.765  1.5894 -0.0639  0.1106
22849SOL     OW74383   9.814   6.498   2.440 -0.2400  0.6974 -0.0478
22849SOL    HW174384   9.831   6.574   2.496 -0.5320  0.9795 -0.3313
22849SOL    HW274385   9.802   6.536   2.353 -0.6376  0.3519 -0.1462
22850SOL     OW74386   8.418   5.033   2.514 -0.5987  0.2968 -0.0215
22850SOL    HW174387   8.441   5.079   2.433  1.8712  1.8431  1.4446
22850SOL    HW274388   8.441   4.942   2.496  0.7998  0.7700 -0.8070
22851SOL     OW74389   8.593   0.737   0.325  0.4614  0.0529  0.5332
22851SOL    HW174390   8.498   0.751   0.327  0.1670 -1.6295  2.2227
22851SOL    HW274391   8.606   0.677   0.251  0.5469  1.9188 -1.0368
22852SOL     OW74392  10.440   8.446  12.033  0.1496 -0.8114  0.0839
22852SOL    HW174393  10.417   8.446  11.940  2.2064 -0.9456 -0.4588
22852SOL    HW274394  10.486   8.528  12.046 -0.5314 -0.5772  1.1260
22853SOL     OW74395  11.091   1.202   3.205 -0.0837  0.6686  0.0250
22853SOL    HW174396  11.127   1.257   3.274  0.6264  0.2421  0.0066
22853SOL    HW274397  11.161   1.197   3.139 -0.0128 -0.5068  0.1729
22854SOL     OW74398   1.098   5.469   6.726 -0.0750 -1.0480 -0.4753
22854SOL    HW174399   1.109   5.557   6.692 -1.6736 -0.5000  0.3817
22854SOL    HW274400   1.100   5.413   6.648 -1.1297 -0.0621 -1.2379
22855SOL     OW74401   5.995   3.217  10.393 -0.2060 -0.5934 -0.2688
22855SOL    HW174402   5.933   3.169  10.449 -1.1711 -0.7678 -1.4314
22855SOL    HW274403   6.079   3.174  10.407 -0.8086 -1.8359 -0.3495
22856SOL     OW74404  11.804   8.569   7.136  0.1227 -0.3750 -0.2698
22856SOL    HW174405  11.770   8.577   7.225 -1.6493  1.4331 -1.0467
22856SOL    HW274406  11.847   8.653   7.119 -2.3444  0.6171 -2.1583
22857SOL     OW74407   4.899  12.005  10.642 -0.3537 -0.3706 -0.1699
22857SOL    HW174408   4.940  11.920  10.625  2.4172  0.7938  0.2485
22857SOL    HW274409   4.965  12.069  10.617 -0.8699  1.6214  3.0332
22858SOL     OW74410   2.606   6.634   8.064 -0.8118  0.3239 -0.1382
22858SOL    HW174411   2.568   6.713   8.102  1.7355  2.4763 -1.6645
22858SOL    HW274412   2.596   6.645   7.970 -0.9032 -1.5063 -0.3790
22859SOL     OW74413   6.010  10.585   8.249 -0.0558 -0.3330  0.3444
22859SOL    HW174414   6.039  10.571   8.339 -0.1576 -2.4286  0.0878
22859SOL    HW274415   6.091  10.602   8.201  0.1780 -0.7581  0.5760
22860SOL     OW74416   7.110   1.988   2.219  0.0320 -0.2601  0.1462
22860SOL    HW174417   7.052   1.918   2.189  0.8241 -0.9375  0.1620
22860SOL    HW274418   7.198   1.953   2.206  0.5779  1.7319 -2.4214
22861SOL     OW74419   5.702   3.523   1.179 -0.2568  0.8030 -0.3423
22861SOL    HW174420   5.780   3.518   1.233 -0.7418  0.8251  0.3790
22861SOL    HW274421   5.629   3.522   1.242 -0.8234  1.1189 -0.9770
22862SOL     OW74422   3.335   3.903   4.008  0.6107 -0.3027 -0.0762
22862SOL    HW174423   3.377   3.928   3.926 -1.0420  0.3336 -0.7732
22862SOL    HW274424   3.332   3.984   4.059 -1.8527  0.3130 -1.0315
22863SOL     OW74425   9.604  12.263   5.469 -0.1119  0.1406  0.2946
22863SOL    HW174426   9.689  12.222   5.452 -1.5423 -2.6665 -0.8054
22863SOL    HW274427   9.607  12.345   5.420  1.0200 -1.2187 -2.1021
22864SOL     OW74428   2.397   2.816   4.290  0.4652 -0.5687  0.0450
22864SOL    HW174429   2.392   2.814   4.386  3.5946  0.4534  0.3512
22864SOL    HW274430   2.397   2.909   4.268 -0.8635 -0.7974 -1.0432
22865SOL     OW74431   3.014   7.780   7.100  0.2187 -0.0887  0.0916
22865SOL    HW174432   3.067   7.860   7.107 -1.5101  1.2265 -1.1926
22865SOL    HW274433   2.965   7.790   7.019 -1.2265 -1.7527  0.6957
22866SOL     OW74434  12.079   7.893   3.323 -0.2221  0.1369 -0.0777
22866SOL    HW174435  12.099   7.852   3.239  0.2771  0.1503  0.0293
22866SOL    HW274436  12.116   7.981   3.316  0.4747 -0.1071  0.4196
22867SOL     OW74437   7.411   1.641   0.765 -0.1261 -0.1907 -0.7155
22867SOL    HW174438   7.321   1.673   0.770  0.0662  0.3866 -0.8054
22867SOL    HW274439   7.433   1.617   0.855  0.4343  1.9917 -0.2077
22868SOL     OW74440   3.658   1.154   4.143  0.0155  0.3906 -0.1782
22868SOL    HW174441   3.577   1.202   4.129 -0.0899  0.5456  0.8942
22868SOL    HW274442   3.709   1.210   4.202  0.0165 -0.6601  0.8528
22869SOL     OW74443   1.688   7.163   5.175 -0.2287 -0.1791  0.5338
22869SOL    HW174444   1.635   7.201   5.105  2.5078 -1.2471 -2.3269
22869SOL    HW274445   1.704   7.236   5.235 -1.3377  1.2079 -0.7666
22870SOL     OW74446   6.282   5.767   4.446  0.4126 -0.1556  0.3198
22870SOL    HW174447   6.260   5.810   4.528 -1.5717  0.9977 -0.7649
22870SOL    HW274448   6.363   5.810   4.417  1.1638 -0.6088  1.6233
22871SOL     OW74449   5.262   2.400   3.782  0.2435  0.2928 -0.3406
22871SOL    HW174450   5.204   2.460   3.736 -0.4160 -0.5052 -0.5808
22871SOL    HW274451   5.350   2.425   3.754 -0.1534 -2.3295 -5.0042
22872SOL     OW74452  10.370   4.382   5.665 -0.2690  0.5474  0.1048
22872SOL    HW174453  10.295   4.388   5.606 -0.9783 -0.7789  0.8004
22872SOL    HW274454  10.330   4.379   5.753  0.1686 -4.1118  0.4065
22873SOL     OW74455   7.789  10.311   6.046 -0.2030  0.2641  0.0887
22873SOL    HW174456   7.860  10.270   6.094  1.2150  1.0855 -1.2484
22873SOL    HW274457   7.812  10.302   5.954 -0.7751  2.3242 -0.3198
22874SOL     OW74458   9.454   3.741   7.794 -0.0348  0.1078 -0.1383
22874SOL    HW174459   9.451   3.660   7.744  0.1418 -0.1466  0.2569
22874SOL    HW274460   9.396   3.801   7.747 -1.7254 -0.8557  0.6419
22875SOL     OW74461   8.643  10.107   6.516  0.0424  0.4624 -0.3697
22875SOL    HW174462   8.548  10.108   6.500  0.0966  2.4524 -0.7753
22875SOL    HW274463   8.661  10.190   6.561  1.5093 -0.1949  0.3156
22876SOL     OW74464   3.791   5.709   7.715 -0.1578  0.1552  0.0352
22876SOL    HW174465   3.832   5.792   7.692  0.3490 -0.3656 -1.0044
22876SOL    HW274466   3.724   5.732   7.779  1.1867  1.1296  1.1356
22877SOL     OW74467   6.290   4.826   6.802  0.1945  0.1064  0.3093
22877SOL    HW174468   6.385   4.838   6.796  0.2009 -0.5873 -2.1695
22877SOL    HW274469   6.264   4.879   6.877  2.3707  1.4295  0.2209
22878SOL     OW74470  11.560  10.109   3.666  0.1724  0.1717 -0.4267
22878SOL    HW174471  11.556  10.113   3.761  0.1076 -0.6360 -0.3907
22878SOL    HW274472  11.510  10.031   3.643  0.8401 -0.0775 -1.0771
22879SOL     OW74473  10.753   8.749   8.680 -0.3341 -0.5773  0.2084
22879SOL    HW174474  10.845   8.744   8.706  0.8231  2.2356 -2.6773
22879SOL    HW274475  10.725   8.837   8.706 -0.9117  0.0833 -2.3367
22880SOL     OW74476   5.446   3.965   7.512 -0.0419  0.6410  0.5217
22880SOL    HW174477   5.464   3.874   7.538  0.0774  0.5246  0.0436
22880SOL    HW274478   5.531   4.007   7.512 -0.0983  0.7545  0.7491
22881SOL     OW74479   8.963   6.960   5.334 -0.2692  0.1566 -0.4845
22881SOL    HW174480   8.922   7.033   5.379  0.3395  0.3002 -0.1518
22881SOL    HW274481   9.056   6.967   5.356  0.0544  0.2557 -1.7766
22882SOL     OW74482   0.617   8.510  10.385 -0.0142  0.0457  0.1109
22882SOL    HW174483   0.674   8.493  10.460  1.6346  1.4017 -0.7622
22882SOL    HW274484   0.614   8.606  10.378 -1.9203 -0.0098 -0.2604
22883SOL     OW74485   9.431   1.526  10.904 -0.2801  0.2442 -0.4044
22883SOL    HW174486   9.379   1.513  10.824 -0.3782 -1.1222 -0.1515
22883SOL    HW274487   9.369   1.511  10.975  0.0884  0.2167 -0.0862
22884SOL     OW74488   1.773   8.890   3.295 -0.4473 -0.4972 -0.0487
22884SOL    HW174489   1.815   8.805   3.281  0.8413  0.0068  0.5705
22884SOL    HW274490   1.751   8.891   3.388 -0.0424  0.0126  0.0493
22885SOL     OW74491   4.382   8.824   8.796  0.0614 -0.8178  0.1559
22885SOL    HW174492   4.374   8.905   8.845 -0.7567 -1.3894  1.0183
22885SOL    HW274493   4.401   8.851   8.707  2.6922  0.2337  0.9434
22886SOL     OW74494   5.154  11.307   1.759 -0.5196 -0.3995 -0.1423
22886SOL    HW174495   5.112  11.380   1.713 -0.3838  0.7093  1.4291
22886SOL    HW274496   5.123  11.314   1.849  1.8346 -0.4377  0.7314
22887SOL     OW74497   6.085   5.944   2.474 -0.1182  0.4668 -0.1863
22887SOL    HW174498   6.144   5.948   2.399 -0.5473 -2.7322 -0.8535
22887SOL    HW274499   6.010   5.997   2.448  1.1830  2.2075 -0.5400
22888SOL     OW74500   8.268  11.042  12.136 -0.0770 -0.0749  0.0326
22888SOL    HW174501   8.246  11.107  12.070 -0.6915  0.0174  0.3236
22888SOL    HW274502   8.298  11.092  12.211  0.0880 -0.1567  0.0217
22889SOL     OW74503   1.262   4.133   2.178  0.2960 -0.5277 -0.0135
22889SOL    HW174504   1.197   4.185   2.225  0.1289 -1.4298  0.7998
22889SOL    HW274505   1.218   4.050   2.158  0.4763 -0.2981 -1.4920
22890SOL     OW74506   4.946   1.199   9.428  0.1690 -0.8737 -0.1733
22890SOL    HW174507   5.036   1.183   9.400  0.4075 -0.1542  0.1439
22890SOL    HW274508   4.916   1.272   9.375 -0.0044 -0.6947  0.1617
22891SOL     OW74509   5.955  11.631  11.797 -0.5171 -0.3300  0.1119
22891SOL    HW174510   5.931  11.623  11.890 -1.7885  1.4362 -0.0362
22891SOL    HW274511   5.891  11.690  11.760  1.5365  1.1450 -1.3047
22892SOL     OW74512   1.974   9.047   2.815  0.2699 -0.0396  0.0541
22892SOL    HW174513   2.020   9.100   2.750 -1.5414  1.7893  0.1480
22892SOL    HW274514   1.992   9.090   2.898 -1.1702  0.4702  0.1444
22893SOL     OW74515  10.336   1.880   3.524 -0.3086  0.6016 -0.3757
22893SOL    HW174516  10.300   1.861   3.611 -2.3844  0.7871 -1.1378
22893SOL    HW274517  10.284   1.953   3.492  1.3084  1.4138 -1.2748
22894SOL     OW74518   0.028  12.304   3.034  0.2364  0.3085  0.7030
22894SOL    HW174519   0.083  12.377   3.007 -1.4401  1.3817 -0.0153
22894SOL    HW274520   0.061  12.229   2.984  0.6038  1.0760 -0.2315
22895SOL     OW74521   3.419   5.318  11.162 -0.2242  0.3113  0.1922
22895SOL    HW174522   3.410   5.358  11.075  1.4953  1.7623  0.6097
22895SOL    HW274523   3.334   5.329  11.203 -0.1961  2.4263 -0.2216
22896SOL     OW74524   8.085   7.112   2.895 -0.0002 -0.7413  0.3779
22896SOL    HW174525   8.154   7.052   2.869  2.1802  2.0480 -0.7075
22896SOL    HW274526   8.103   7.193   2.848 -2.9651  0.7401  1.4951
22897SOL     OW74527   6.056   9.937   6.230  0.1052 -0.0703 -0.5877
22897SOL    HW174528   5.978   9.883   6.244  0.9939 -1.3322 -0.3486
22897SOL    HW274529   6.091   9.950   6.318  0.7193 -0.3632 -0.7881
22898SOL     OW74530   7.407  10.504   7.233  0.1329 -0.0160 -0.6255
22898SOL    HW174531   7.365  10.464   7.157 -2.6019 -0.3755  0.9184
22898SOL    HW274532   7.399  10.438   7.302  1.4935  0.7250  0.2865
22899SOL     OW74533   3.825   5.336  11.174 -0.1003  0.0916  0.4335
22899SOL    HW174534   3.772   5.270  11.129 -1.3690 -0.1917  2.2282
22899SOL    HW274535   3.852   5.397  11.105  1.5300 -2.4964 -1.3773
22900SOL     OW74536   5.493   7.809  10.306  0.0885 -0.0679 -0.1182
22900SOL    HW174537   5.525   7.892  10.342  0.9648 -0.7830  0.8186
22900SOL    HW274538   5.559   7.784  10.242 -0.7182  0.4659 -1.1836
22901SOL     OW74539   1.310   2.683   8.776 -0.3314  0.1910 -0.0518
22901SOL    HW174540   1.281   2.609   8.828 -0.8491  0.4837  0.0747
22901SOL    HW274541   1.296   2.759   8.832 -0.3201  0.4428 -0.3880
22902SOL     OW74542   8.515   1.295   0.022  0.4263 -0.0030 -0.0079
22902SOL    HW174543   8.423   1.315   0.042 -0.0933 -0.8845 -1.2886
22902SOL    HW274544   8.553   1.379  -0.002 -0.3304  0.2326 -0.4356
22903SOL     OW74545   0.589   5.184   2.277  0.2085 -0.5978 -0.0776
22903SOL    HW174546   0.579   5.278   2.290 -0.4783 -0.4038 -1.6443
22903SOL    HW274547   0.662   5.176   2.215  1.4615 -1.2364  1.4242
22904SOL     OW74548   7.545   7.384   2.859  0.0351 -0.0314  0.2542
22904SOL    HW174549   7.565   7.291   2.847 -0.3677  0.0094 -0.9049
22904SOL    HW274550   7.572   7.425   2.777 -2.5016  0.3928 -0.4589
22905SOL     OW74551   0.313   0.350   5.921 -0.7569 -1.2085 -0.3572
22905SOL    HW174552   0.234   0.335   5.973  0.0651 -1.8508  0.7495
22905SOL    HW274553   0.374   0.391   5.982 -0.0138 -1.3227 -1.0124
22906SOL     OW74554   0.521   1.268   0.451  0.0769 -0.0828 -0.0638
22906SOL    HW174555   0.573   1.346   0.430 -0.3019  0.3744  0.6648
22906SOL    HW274556   0.433   1.301   0.464 -0.2360 -0.7421 -0.4488
22907SOL     OW74557   7.986   0.868   5.120  0.6267  0.1362 -0.3562
22907SOL    HW174558   7.906   0.918   5.133 -0.3504 -1.2685 -0.6567
22907SOL    HW274559   8.046   0.928   5.075 -0.9168  0.6638 -1.8121
22908SOL     OW74560  12.251   2.963   4.963  0.0171  0.2784  0.2630
22908SOL    HW174561  12.203   2.921   5.035 -0.3436 -2.3897 -1.3941
22908SOL    HW274562  12.343   2.951   4.986 -0.0974 -0.4787  0.3700
22909SOL     OW74563   1.036  10.260   6.815  0.2092 -0.4634 -0.1679
22909SOL    HW174564   1.018  10.338   6.763  2.9376  0.9183  0.7958
22909SOL    HW274565   1.083  10.202   6.756  1.5942  0.2860  0.1730
22910SOL     OW74566   6.081   8.372   1.773  0.3301 -0.2320  0.9247
22910SOL    HW174567   6.007   8.357   1.832 -0.1812  0.2722  0.4297
22910SOL    HW274568   6.074   8.303   1.707 -0.1244  0.2431  0.4721
22911SOL     OW74569  10.809  10.082   3.591 -0.2245  0.2063  1.1180
22911SOL    HW174570  10.773   9.994   3.605 -1.1280  0.6344  1.5163
22911SOL    HW274571  10.739  10.130   3.549  0.2864  0.7329  0.8613
22912SOL     OW74572   7.514   6.945   6.624  0.2106 -0.2851  0.0506
22912SOL    HW174573   7.567   6.878   6.582  0.3048  0.9113 -1.8709
22912SOL    HW274574   7.424   6.913   6.617  0.3300 -0.6021 -0.0359
22913SOL     OW74575  11.865   3.256   5.144 -0.1962 -0.2644 -0.6838
22913SOL    HW174576  11.795   3.296   5.094 -0.6861  0.5341  0.5844
22913SOL    HW274577  11.888   3.322   5.210 -0.2102 -1.5811  0.7036
22914SOL     OW74578   2.214  12.192   6.868 -0.7127  0.5729  0.0876
22914SOL    HW174579   2.147  12.225   6.807 -1.0270  0.3619  0.3172
22914SOL    HW274580   2.237  12.106   6.833 -1.5199  0.0799  0.7454
22915SOL     OW74581   3.688   9.278   2.917 -0.8153  0.8195 -0.0238
22915SOL    HW174582   3.779   9.249   2.916 -0.5212  1.7260 -0.2778
22915SOL    HW274583   3.643   9.214   2.972  0.0416  0.5526  0.3764
22916SOL     OW74584   3.165   3.973   4.397  0.2117  0.7698 -0.2062
22916SOL    HW174585   3.136   3.901   4.453 -0.6525  1.3787  0.1458
22916SOL    HW274586   3.252   3.994   4.430  0.8062 -0.6062 -0.8111
22917SOL     OW74587  11.225   5.796   3.192 -0.0212 -0.3431  0.0587
22917SOL    HW174588  11.279   5.798   3.271 -0.2842  0.4008  0.2274
22917SOL    HW274589  11.135   5.786   3.224 -0.1161 -0.1809 -0.1531
22918SOL     OW74590   3.477  10.280   5.481  0.4598  0.0010 -0.5519
22918SOL    HW174591   3.523  10.228   5.416  1.3840 -1.1955  0.9735
22918SOL    HW274592   3.391  10.296   5.443  0.7818 -1.1284 -1.8199
22919SOL     OW74593  10.317  10.210  10.467  0.0707 -0.3600 -0.3154
22919SOL    HW174594  10.371  10.256  10.532 -1.9252  1.8509 -0.1072
22919SOL    HW274595  10.257  10.157  10.519 -1.0371  0.8432 -0.3157
22920SOL     OW74596   6.489   3.291   7.037  0.7624 -0.3043  0.2730
22920SOL    HW174597   6.418   3.239   7.073  1.2005 -1.1170 -0.0014
22920SOL    HW274598   6.560   3.282   7.101  1.1884 -0.9011 -0.2671
22921SOL     OW74599   2.380   1.608  10.320 -0.1614 -0.0644 -0.1724
22921SOL    HW174600   2.296   1.564  10.312  0.4439 -1.5872  1.2215
22921SOL    HW274601   2.443   1.538  10.335  1.0488  1.1744  0.8818
22922SOL     OW74602   7.640  11.223   7.060  0.2448  0.4515  0.0844
22922SOL    HW174603   7.685  11.163   7.120 -2.0999 -0.6355  0.8779
22922SOL    HW274604   7.632  11.304   7.109 -0.6633 -0.0808  0.8559
22923SOL     OW74605   5.827   2.070  11.065 -0.3059 -0.3909 -0.1147
22923SOL    HW174606   5.762   2.027  11.010  0.2437 -1.6711  0.2211
22923SOL    HW274607   5.798   2.162  11.068 -0.4824 -0.3040 -2.3574
22924SOL     OW74608   9.533   4.039   1.767  0.5596 -0.2789 -0.2900
22924SOL    HW174609   9.614   4.091   1.769  0.2557  0.1920  0.0032
22924SOL    HW274610   9.467   4.096   1.807  0.7569 -1.8205  2.4032
22925SOL     OW74611   0.227   4.550  10.356  0.1495  0.5242 -0.4670
22925SOL    HW174612   0.282   4.608  10.409 -0.1868  1.7696 -1.4339
22925SOL    HW274613   0.234   4.585  10.267 -1.0843 -0.1533 -0.8519
22926SOL     OW74614   5.902   1.914   7.864 -0.3803 -0.2421 -0.1427
22926SOL    HW174615   5.871   1.849   7.928 -1.4946 -0.0739 -0.4813
22926SOL    HW274616   5.870   1.998   7.898 -1.0144 -0.1559 -0.9264
22927SOL     OW74617   4.912   6.711   2.430  0.6507  0.5700  0.2119
22927SOL    HW174618   4.986   6.771   2.440  0.1269  1.2412  0.0865
22927SOL    HW274619   4.877   6.700   2.519 -0.1669  1.6312  0.0354
22928SOL     OW74620   6.839   9.577   2.607 -0.2382  0.8344  0.3001
22928SOL    HW174621   6.873   9.667   2.603 -1.3882  1.2617 -1.1462
22928SOL    HW274622   6.766   9.582   2.669  1.3416  0.2415  2.3014
22929SOL     OW74623   3.173   6.916   6.183  0.2087 -0.0892 -0.0013
22929SOL    HW174624   3.250   6.943   6.134  0.7458  0.1735  0.9486
22929SOL    HW274625   3.113   6.879   6.118  0.9539  0.1139 -0.8069
22930SOL     OW74626   8.725   7.570   8.485 -0.1502 -0.2240  0.2403
22930SOL    HW174627   8.812   7.607   8.494  0.0299 -0.4347 -0.5035
22930SOL    HW274628   8.700   7.543   8.573  0.3243  0.3003  0.5378
22931SOL     OW74629   5.976  10.520   3.399  0.5373 -0.1412  0.4665
22931SOL    HW174630   5.945  10.610   3.386  1.0706  0.1301  1.0563
22931SOL    HW274631   5.896  10.468   3.407  0.1735 -0.0264 -1.7622
22932SOL     OW74632   7.838   4.751   3.228 -0.5764 -0.2185  0.1835
22932SOL    HW174633   7.783   4.685   3.271  2.3128 -2.4465  0.8405
22932SOL    HW274634   7.845   4.822   3.291 -1.6915 -0.4380  0.5774
22933SOL     OW74635   8.054  11.760   8.381  0.1739 -0.2843 -0.7962
22933SOL    HW174636   8.115  11.690   8.406 -0.7128 -0.7554  0.1302
22933SOL    HW274637   7.994  11.719   8.320  0.0891 -0.1371 -0.8114
22934SOL     OW74638   1.600  11.294   1.018  0.3326 -0.3477  0.4555
22934SOL    HW174639   1.541  11.259   1.085 -0.2392  0.8074  0.5823
22934SOL    HW274640   1.684  11.251   1.036 -0.4379 -2.0236  0.2678
22935SOL     OW74641   1.498   7.675   1.896 -0.1983 -0.4603  0.0674
22935SOL    HW174642   1.417   7.660   1.847 -0.8111 -1.6792  1.3687
22935SOL    HW274643   1.517   7.591   1.938  3.2576 -1.0280 -2.2401
22936SOL     OW74644   7.620   9.825   7.325  0.0228 -0.2861  0.2651
22936SOL    HW174645   7.539   9.804   7.371 -0.3877  1.0727  0.2102
22936SOL    HW274646   7.678   9.859   7.393  0.4565 -0.9770  0.2522
22937SOL     OW74647   6.507   3.862  12.139  0.3082  0.3022 -0.4999
22937SOL    HW174648   6.582   3.894  12.188  1.0910  0.1903 -1.5859
22937SOL    HW274649   6.511   3.909  12.055 -0.5579 -0.0599 -0.7642
22938SOL     OW74650   9.820   6.482   6.297 -0.0750  0.5166  0.3980
22938SOL    HW174651   9.734   6.519   6.315 -0.2215  0.2652  0.2305
22938SOL    HW274652   9.851   6.530   6.220  0.0506  0.7919  0.6219
22939SOL     OW74653   5.585   5.547   9.171 -0.5045 -0.0241  0.2291
22939SOL    HW174654   5.550   5.471   9.218  1.0748 -0.1062  1.3541
22939SOL    HW274655   5.676   5.523   9.152 -0.7315  0.5336 -1.7841
22940SOL     OW74656   2.727   2.674   5.024 -0.4137 -0.9453  0.2099
22940SOL    HW174657   2.774   2.726   4.959 -1.3737 -1.2958 -0.7878
22940SOL    HW274658   2.744   2.719   5.107  0.1913 -0.0424 -0.3851
22941SOL     OW74659   6.507   1.618   7.595 -0.2356 -0.0434 -0.1933
22941SOL    HW174660   6.540   1.689   7.651  1.7610 -1.1144  0.0932
22941SOL    HW274661   6.490   1.660   7.510  0.9800  0.7914 -0.0520
22942SOL     OW74662   6.213  12.246   1.120  0.0856 -0.0199  0.7384
22942SOL    HW174663   6.207  12.259   1.025  1.1676  1.4636  0.8323
22942SOL    HW274664   6.240  12.155   1.130 -1.2432 -0.5626 -0.3093
22943SOL     OW74665   5.885   7.990   4.520 -0.5991  0.1974 -0.6369
22943SOL    HW174666   5.891   8.064   4.580  0.2498 -0.7519  0.4937
22943SOL    HW274667   5.823   8.019   4.452 -2.7745  0.7867  1.4701
22944SOL     OW74668   7.633  10.618   5.488 -0.5425  0.1295  0.7082
22944SOL    HW174669   7.725  10.643   5.503 -0.9756  2.1445  0.3161
22944SOL    HW274670   7.592  10.627   5.574 -0.7790  1.2199  0.4938
22945SOL     OW74671  11.914   7.121   5.924 -0.2923 -0.2570 -0.0445
22945SOL    HW174672  11.886   7.123   5.832 -0.1750 -0.5905 -0.0907
22945SOL    HW274673  12.006   7.095   5.920 -0.4261 -0.7753  0.1953
22946SOL     OW74674   6.017   1.052   2.930 -0.0539 -0.2256  0.1999
22946SOL    HW174675   6.081   1.043   3.001  0.7749 -1.3072 -0.6474
22946SOL    HW274676   5.984   1.141   2.940  1.8387  0.5088  0.4794
22947SOL     OW74677   6.775   9.520  11.474 -0.4099  0.0258 -0.7289
22947SOL    HW174678   6.866   9.546  11.479 -0.4661  0.0096  0.5707
22947SOL    HW274679   6.778   9.430  11.440  0.1448 -0.4370  0.5021
22948SOL     OW74680   5.940   4.863  11.143  0.1700  0.8489 -0.0771
22948SOL    HW174681   5.867   4.917  11.113  0.2502 -0.0078 -1.9735
22948SOL    HW274682   6.004   4.867  11.071  0.0595 -1.9248 -0.4404
22949SOL     OW74683  12.151   4.371  10.828 -0.3364  0.2408  0.0061
22949SOL    HW174684  12.137   4.278  10.808  0.4449 -0.0635  0.8201
22949SOL    HW274685  12.165   4.374  10.922  3.4829  0.6301 -0.4323
22950SOL     OW74686  12.236   2.936   4.703 -0.8078 -0.6307 -0.5622
22950SOL    HW174687  12.220   2.973   4.790  1.1139  1.2702 -0.9325
22950SOL    HW274688  12.300   2.866   4.718  1.4790  1.3017 -0.5778
22951SOL     OW74689   7.005   8.032  10.544  0.2345 -0.5102 -0.0372
22951SOL    HW174690   6.929   8.061  10.494  0.7634  1.5315  0.2515
22951SOL    HW274691   7.034   7.953  10.499 -3.2045 -2.6047  1.0577
22952SOL     OW74692   6.415   5.782   0.546 -0.2385  0.0411  0.1767
22952SOL    HW174693   6.440   5.750   0.459  1.0275 -0.5009  0.7213
22952SOL    HW274694   6.319   5.778   0.546 -0.2048 -1.1862 -0.7326
22953SOL     OW74695   5.854  10.670   6.905 -0.1782 -0.2318  0.0049
22953SOL    HW174696   5.829  10.606   6.972 -3.6807  0.5049 -0.4111
22953SOL    HW274697   5.801  10.747   6.925 -0.0841  0.6107 -2.6185
22954SOL     OW74698   5.024   3.567   5.105  0.5681  0.0904 -0.4798
22954SOL    HW174699   4.998   3.522   5.025 -1.2404 -0.8212  0.5754
22954SOL    HW274700   5.016   3.502   5.174  0.5759  1.2803  0.6931
22955SOL     OW74701  11.110  11.736   0.973 -0.1599  0.5816 -0.2852
22955SOL    HW174702  11.082  11.682   1.047 -1.1031  1.3553 -0.0608
22955SOL    HW274703  11.162  11.677   0.919  1.3880  0.2371  1.4671
22956SOL     OW74704   8.599   5.190   6.208 -0.1150 -0.0913 -0.3119
22956SOL    HW174705   8.575   5.223   6.295 -1.2873  0.2297 -0.7420
22956SOL    HW274706   8.549   5.108   6.199  1.1936 -0.9439 -0.0806
22957SOL     OW74707  11.518   0.060   1.212 -0.3795 -0.3744 -0.0115
22957SOL    HW174708  11.603   0.075   1.253 -0.7407 -0.8328  0.9216
22957SOL    HW274709  11.497   0.144   1.170  0.1119  0.0277  0.5231
22958SOL     OW74710   4.393  11.306   6.238 -0.5087 -0.3866  0.3251
22958SOL    HW174711   4.381  11.315   6.144  2.1468 -0.5004 -0.1009
22958SOL    HW274712   4.373  11.214   6.257 -1.1170 -0.3441 -0.0861
22959SOL     OW74713   1.209   0.805  10.526 -0.1604 -0.1495  0.1570
22959SOL    HW174714   1.126   0.795  10.478  0.1381 -2.0264 -0.0787
22959SOL    HW274715   1.246   0.886  10.493 -1.0586 -0.2218 -1.1211
22960SOL     OW74716   7.034  10.785   2.526  0.5767 -0.6210 -0.3526
22960SOL    HW174717   7.110  10.732   2.552  1.0528  0.8218  1.3224
22960SOL    HW274718   6.968  10.720   2.500  1.1747 -2.0715  1.5215
22961SOL     OW74719   4.974   9.945   6.447 -0.3581  0.1632  0.2479
22961SOL    HW174720   4.914  10.009   6.409  0.2764 -0.4830 -1.9722
22961SOL    HW274721   4.985   9.974   6.538 -1.6975  1.9817 -0.1123
22962SOL     OW74722   8.995   1.836   1.296  0.0727 -0.0865 -0.0553
22962SOL    HW174723   8.989   1.882   1.380 -0.4951  0.5824 -0.4522
22962SOL    HW274724   8.968   1.901   1.231  0.3503 -0.6470 -0.7407
22963SOL     OW74725  10.186   9.842   9.417 -0.3150 -0.1671 -0.0365
22963SOL    HW174726  10.116   9.809   9.473 -2.1273  1.7375 -0.9926
22963SOL    HW274727  10.140   9.878   9.341  1.8114  0.2504 -1.2065
22964SOL     OW74728   1.195   9.896   6.796 -0.0874  0.4596  0.4060
22964SOL    HW174729   1.203   9.978   6.748 -3.0537  1.8076  1.9507
22964SOL    HW274730   1.115   9.856   6.763  1.2247 -1.8457 -0.2312
22965SOL     OW74731  12.256   6.734   0.358 -0.6548  0.6277  0.0179
22965SOL    HW174732  12.295   6.815   0.393  1.7352  0.0137 -0.9908
22965SOL    HW274733  12.293   6.727   0.270 -2.0095 -0.8153 -0.4717
22966SOL     OW74734   8.793   9.723   7.500 -0.0059 -0.8873 -0.4304
22966SOL    HW174735   8.762   9.677   7.422  0.2222 -0.3661 -0.8388
22966SOL    HW274736   8.751   9.678   7.573  1.0387 -2.4397 -0.7302
22967SOL     OW74737   5.231   9.505   6.494 -0.1914 -0.4570 -0.6249
22967SOL    HW174738   5.217   9.450   6.417  0.5470 -0.3100 -0.8637
22967SOL    HW274739   5.147   9.550   6.505 -0.3515 -0.5814 -1.2576
22968SOL     OW74740   0.028   2.945   8.585 -0.2115  0.1257  0.1656
22968SOL    HW174741   0.053   2.880   8.519 -1.9043 -0.8667  0.4503
22968SOL    HW274742  -0.054   2.982   8.552 -2.1878 -1.8078  2.5680
22969SOL     OW74743   6.992   0.865   4.980  0.2949  0.5117  0.1037
22969SOL    HW174744   7.072   0.871   4.928  0.5262 -0.4037  0.3435
22969SOL    HW274745   6.980   0.954   5.014  0.1666  1.1193 -1.4346
22970SOL     OW74746   7.061   5.911   5.453  0.6174 -0.1742  0.0028
22970SOL    HW174747   7.127   5.978   5.471  2.4788 -1.2576 -2.2048
22970SOL    HW274748   7.061   5.856   5.531  3.3141 -0.8204 -0.3401
22971SOL     OW74749   0.857   9.621   2.143 -0.3073  0.3320  0.5100
22971SOL    HW174750   0.949   9.633   2.119 -0.6318 -1.4804 -2.0573
22971SOL    HW274751   0.859   9.567   2.222  0.8955 -1.7083 -0.8316
22972SOL     OW74752   9.703   8.197   2.192  0.4501 -1.0766 -0.5219
22972SOL    HW174753   9.784   8.226   2.233  0.5624 -0.5384 -1.0992
22972SOL    HW274754   9.714   8.220   2.100 -1.3742  1.3646 -0.2235
22973SOL     OW74755   5.733  11.700   0.024 -0.1604 -0.1277  0.0492
22973SOL    HW174756   5.809  11.758   0.022  0.7315 -1.2723 -1.3993
22973SOL    HW274757   5.662  11.755   0.057  1.3524  0.8697  1.8623
22974SOL     OW74758   5.837   3.657   5.048 -0.3003 -0.0210  0.1193
22974SOL    HW174759   5.849   3.632   5.139 -0.6884 -0.9870 -0.0919
22974SOL    HW274760   5.887   3.593   4.998 -1.6151 -0.6497 -0.4438
22975SOL     OW74761   5.025   8.812   6.585 -0.4865 -0.2266  0.3958
22975SOL    HW174762   5.036   8.756   6.661  1.2395 -0.8564 -0.2758
22975SOL    HW274763   5.079   8.889   6.603 -0.3570 -0.2122 -0.0239
22976SOL     OW74764   3.971   8.482  10.654 -0.9665  0.3603  0.3513
22976SOL    HW174765   3.890   8.510  10.611 -0.1609  1.9631 -0.2022
22976SOL    HW274766   3.949   8.479  10.747 -1.1989  2.7057  0.4360
22977SOL     OW74767   3.006  10.030   0.838  0.5873  0.6017 -0.5635
22977SOL    HW174768   2.995  10.045   0.932  0.2736  1.5625 -0.7386
22977SOL    HW274769   2.986   9.938   0.826  2.3764 -0.0001  0.5796
22978SOL     OW74770   7.581   2.217   5.112 -0.2351  0.5760  0.1448
22978SOL    HW174771   7.542   2.276   5.176 -0.1113  1.4258 -0.5378
22978SOL    HW274772   7.565   2.260   5.028  0.5685  0.0297 -0.2940
22979SOL     OW74773  11.182   0.459   8.587 -0.1549 -0.0402  0.0377
22979SOL    HW174774  11.156   0.465   8.679  0.9448  0.2946  0.3456
22979SOL    HW274775  11.100   0.463   8.539 -0.7750 -0.5055  1.0099
22980SOL     OW74776   9.434   2.365  12.251 -0.3011  0.4124 -0.2605
22980SOL    HW174777   9.397   2.341  12.335  3.2251 -2.5769  0.6957
22980SOL    HW274778   9.460   2.456  12.261 -0.7194  0.3677  1.5433
22981SOL     OW74779  11.210   7.332   7.044  0.3752  0.3992  0.0340
22981SOL    HW174780  11.145   7.262   7.043  0.1046  0.6443 -1.4939
22981SOL    HW274781  11.272   7.308   6.974  1.5955  0.4967  1.0363
22982SOL     OW74782   8.221   2.989   4.387 -0.0968  0.0616  0.2303
22982SOL    HW174783   8.138   3.011   4.428 -0.1191 -1.7214  1.2063
22982SOL    HW274784   8.197   2.948   4.304 -0.1149  1.1519 -0.3244
22983SOL     OW74785   6.262   5.537   5.169 -0.3368  0.6135  0.3145
22983SOL    HW174786   6.189   5.596   5.191  0.0834  0.8852  1.0061
22983SOL    HW274787   6.239   5.501   5.084 -1.9788 -0.3946  1.1305
22984SOL     OW74788   8.290   3.486   3.975  0.2434  0.2869 -0.0115
22984SOL    HW174789   8.341   3.543   3.918 -0.1111 -1.8562 -2.6805
22984SOL    HW274790   8.308   3.398   3.943 -2.7704 -0.7880  0.8963
22985SOL     OW74791   8.849   1.623   3.735 -0.4109  0.1216  0.8937
22985SOL    HW174792   8.811   1.698   3.780 -2.9371  0.0637 -0.9204
22985SOL    HW274793   8.877   1.657   3.650 -1.6504 -0.9502  0.0193
22986SOL     OW74794   5.403  11.839   7.614  0.1119  0.0300  0.4579
22986SOL    HW174795   5.344  11.779   7.569 -0.8849  1.0563  0.3468
22986SOL    HW274796   5.353  11.869   7.690  0.6296  0.6330  0.5681
22987SOL     OW74797   2.278   9.174   8.239  0.2409 -0.0408  0.3455
22987SOL    HW174798   2.250   9.085   8.218  0.7088  0.0710 -0.8407
22987SOL    HW274799   2.350   9.163   8.301 -1.6727 -0.3545  2.6276
22988SOL     OW74800   1.907   0.814   6.718  0.3889 -0.6746 -0.2583
22988SOL    HW174801   1.866   0.851   6.640 -0.7871 -2.1771 -0.4017
22988SOL    HW274802   1.875   0.869   6.790  0.9047  0.2708 -0.7408
22989SOL     OW74803   2.918   2.814   7.699  0.7329  0.2144  0.3092
22989SOL    HW174804   2.955   2.725   7.696 -0.0903 -0.1481  0.6274
22989SOL    HW274805   2.848   2.813   7.634 -2.2195 -0.7729  3.2229
22990SOL     OW74806   1.525   6.823   0.047  0.4085  0.4503  0.0064
22990SOL    HW174807   1.504   6.865   0.130  0.6680  2.1627 -0.7367
22990SOL    HW274808   1.476   6.741   0.048  1.6316 -0.3430  2.4932
22991SOL     OW74809   6.741   3.300  11.674  0.0220 -0.1814 -0.6554
22991SOL    HW174810   6.792   3.378  11.698 -0.2098  0.0916 -1.0406
22991SOL    HW274811   6.767   3.281  11.584  1.6255 -1.7937  0.0996
22992SOL     OW74812   1.321   2.060   4.336  0.2324 -0.5816  0.4460
22992SOL    HW174813   1.258   2.040   4.267  0.3323 -0.6374  0.3716
22992SOL    HW274814   1.380   2.125   4.298  0.8209 -1.2580  0.1752
22993SOL     OW74815   5.189  11.023   1.817  0.2767  0.0879 -0.0740
22993SOL    HW174816   5.134  11.078   1.761 -1.4341  1.1298  2.4403
22993SOL    HW274817   5.246  10.976   1.756 -2.5028 -0.0794 -2.8109
22994SOL     OW74818   5.373   0.705   2.620 -0.4735 -0.2826 -0.1177
22994SOL    HW174819   5.402   0.792   2.647 -0.4227  0.3416 -2.0548
22994SOL    HW274820   5.455   0.656   2.608 -0.5227 -1.0974  2.3212
22995SOL     OW74821   2.959   2.793   1.774 -0.1140 -0.1485 -0.3074
22995SOL    HW174822   2.924   2.713   1.814 -0.2580 -0.1047 -0.3470
22995SOL    HW274823   3.025   2.762   1.712  0.1286 -0.2160 -0.0156
22996SOL     OW74824  11.328  11.710   5.056  0.3938  0.0896  0.2229
22996SOL    HW174825  11.315  11.791   5.008  1.4177 -0.1897 -0.5653
22996SOL    HW274826  11.420  11.711   5.081 -0.0371  0.0688  1.9219
22997SOL     OW74827   8.533   6.871   0.920 -0.3344  0.2198 -0.1218
22997SOL    HW174828   8.472   6.840   0.854  0.8825  0.2420 -1.2951
22997SOL    HW274829   8.619   6.847   0.887  0.5184  2.6740  0.0825
22998SOL     OW74830   0.440  12.130   4.398  0.0460  0.2559  0.4738
22998SOL    HW174831   0.519  12.181   4.414 -0.2245  0.7309  0.3251
22998SOL    HW274832   0.368  12.191   4.415 -0.2798  0.0285 -0.0431
22999SOL     OW74833   8.968   6.621   9.671  0.5636  0.0273 -0.0625
22999SOL    HW174834   9.043   6.673   9.643  0.9666 -0.4940  0.0318
22999SOL    HW274835   9.006   6.540   9.706  0.0631  0.4168  1.4761
23000SOL     OW74836   0.892   2.253   8.033  0.0346 -0.4161  0.0245
23000SOL    HW174837   0.887   2.192   8.107  0.3521 -0.1873  0.2348
23000SOL    HW274838   0.985   2.260   8.013 -0.0419 -0.4058 -0.3415
23001SOL     OW74839   1.116   8.506   5.713  0.3984 -0.6681  0.2604
23001SOL    HW174840   1.105   8.563   5.636 -1.2519 -1.2494  0.0145
23001SOL    HW274841   1.193   8.453   5.693 -1.4251 -2.6305 -2.2615
23002SOL     OW74842   3.571   2.221   9.109 -0.0872  0.2726 -0.3760
23002SOL    HW174843   3.545   2.270   9.187  0.1871  0.2031 -0.2381
23002SOL    HW274844   3.492   2.173   9.084  0.2392 -0.9258  0.7758
23003SOL     OW74845   7.018   4.929   4.979 -0.5174  0.2676 -0.1602
23003SOL    HW174846   7.079   4.924   4.905 -0.1956 -0.8121  0.1542
23003SOL    HW274847   6.933   4.908   4.942 -0.4053  0.0370 -0.2897
23004SOL     OW74848   1.575   3.491  10.208  0.6756  0.4688  0.5521
23004SOL    HW174849   1.495   3.454  10.245  1.5313 -0.1987  1.8140
23004SOL    HW274850   1.564   3.585  10.218 -0.0666  0.3989  0.4594
23005SOL     OW74851   1.645   0.259   2.431 -0.4464  0.1122 -0.1169
23005SOL    HW174852   1.698   0.320   2.483 -0.5744  0.8639 -0.8375
23005SOL    HW274853   1.555   0.285   2.449 -0.5606 -0.6956  0.5424
23006SOL     OW74854   1.577   0.793   7.940  0.4553 -0.8191 -0.1057
23006SOL    HW174855   1.647   0.777   7.876  0.0412 -0.9404 -0.5364
23006SOL    HW274856   1.623   0.811   8.022  0.9786 -2.1956 -0.0744
23007SOL     OW74857   1.412   7.529   2.641  0.4124 -0.5831  0.2873
23007SOL    HW174858   1.385   7.590   2.572  1.9309  0.1968  0.3319
23007SOL    HW274859   1.330   7.504   2.684 -0.4330 -0.0506 -0.9393
23008SOL     OW74860   5.531  11.514   4.438 -0.8069  0.2530  0.1332
23008SOL    HW174861   5.540  11.597   4.486  2.4554  0.5609 -0.7824
23008SOL    HW274862   5.513  11.540   4.348 -1.2271 -0.0952  0.1146
23009SOL     OW74863   9.022  10.250   8.186  0.0863 -0.0287  0.2746
23009SOL    HW174864   9.111  10.217   8.176 -0.9069 -2.8743 -0.0061
23009SOL    HW274865   8.967  10.188   8.138 -2.0490  1.8622  0.0747
23010SOL     OW74866  11.281   7.259   6.142 -0.1733  0.0530 -0.0778
23010SOL    HW174867  11.344   7.215   6.085  0.0046 -2.0339  1.5897
23010SOL    HW274868  11.214   7.193   6.158 -0.2924  0.6149  1.9769
23011SOL     OW74869   9.085   2.521  11.238  0.2426 -0.1226 -0.1455
23011SOL    HW174870   9.112   2.437  11.275 -0.4158  0.0274  0.6934
23011SOL    HW274871   9.145   2.585  11.277  1.0357 -0.2314 -1.1229
23012SOL     OW74872  11.751   3.881   6.812 -0.1235 -0.4349 -0.2622
23012SOL    HW174873  11.703   3.798   6.809 -2.5915  0.9079 -1.5408
23012SOL    HW274874  11.683   3.948   6.804  1.9611  1.6405 -2.6808
23013SOL     OW74875   9.748  11.778  10.281  0.2874 -0.3081  0.0106
23013SOL    HW174876   9.744  11.799  10.374  0.1354  0.8317 -0.2415
23013SOL    HW274877   9.712  11.689  10.275  0.4903 -0.4750  1.0523
23014SOL     OW74878   3.282   3.638   9.502  0.4019  0.1861  0.3737
23014SOL    HW174879   3.331   3.707   9.457  1.0032 -0.5570 -0.1436
23014SOL    HW274880   3.347   3.597   9.560  0.3091 -0.5738 -0.0501
23015SOL     OW74881  11.889   7.700   5.785 -0.0364  0.5593 -0.1302
23015SOL    HW174882  11.981   7.722   5.797  0.1583 -0.2640 -0.0568
23015SOL    HW274883  11.847   7.783   5.762  0.5382  1.1473  0.8552
23016SOL     OW74884  10.046  10.665   9.062  0.3171 -0.9486  0.9826
23016SOL    HW174885  10.069  10.616   8.983 -0.5105 -0.6849  0.5699
23016SOL    HW274886  10.006  10.600   9.119 -1.6734 -0.6261  0.0568
23017SOL     OW74887   1.974   9.642   8.528  0.5248  0.2654  0.1569
23017SOL    HW174888   1.944   9.730   8.550  0.9989  0.0458  1.8105
23017SOL    HW274889   2.005   9.649   8.438 -0.7399  1.4428 -0.2146
23018SOL     OW74890   8.446   1.192   0.992 -0.0012  0.0012  0.0982
23018SOL    HW174891   8.414   1.270   0.947  2.0352  0.2903 -0.9654
23018SOL    HW274892   8.457   1.127   0.923  2.9531  0.3707  0.1080
23019SOL     OW74893   2.439   1.360   9.846 -0.8819  0.2338 -0.2007
23019SOL    HW174894   2.459   1.267   9.833  0.2199  0.3718  0.3654
23019SOL    HW274895   2.456   1.401   9.761 -0.4171  0.0669 -0.1910
23020SOL     OW74896   4.706   6.120   9.942  0.1398 -0.0306 -0.0098
23020SOL    HW174897   4.640   6.051   9.942  0.5063 -0.3888  0.3933
23020SOL    HW274898   4.697   6.162   9.856  0.4075 -1.0595 -0.5587
23021SOL     OW74899   5.524   5.111   3.781  0.1038 -0.0976  0.2024
23021SOL    HW174900   5.603   5.156   3.751  0.9522 -0.9571  1.0916
23021SOL    HW274901   5.545   5.018   3.775 -0.4491 -0.3292  1.4296
23022SOL     OW74902   2.211   2.257  11.645  0.0267  0.5660 -0.2740
23022SOL    HW174903   2.168   2.228  11.726 -3.2192  1.9946 -1.3430
23022SOL    HW274904   2.302   2.230  11.656 -0.5328 -0.4106  3.3035
23023SOL     OW74905   9.208   1.807  10.245 -0.0149  0.0234 -0.6883
23023SOL    HW174906   9.272   1.874  10.268  0.0692  0.0995 -1.1454
23023SOL    HW274907   9.123   1.847  10.265  0.1017 -0.9775  2.4140
23024SOL     OW74908   5.703   2.796   5.628  0.2685 -0.1189  0.0244
23024SOL    HW174909   5.745   2.870   5.673  0.5870 -0.7388  0.7592
23024SOL    HW274910   5.609   2.815   5.633  0.3371  0.1166  0.4246
23025SOL     OW74911   7.825   7.720   5.985  0.3163  0.4805 -0.5227
23025SOL    HW174912   7.860   7.697   5.899  0.0432  1.0855 -0.8081
23025SOL    HW274913   7.836   7.815   5.990 -0.2959  0.5377 -0.1801
23026SOL     OW74914   0.739   9.081   3.251  0.4431  0.6406  0.0851
23026SOL    HW174915   0.714   8.990   3.238 -0.2821  0.7777  0.4810
23026SOL    HW274916   0.783   9.106   3.169  0.3772  0.0311 -0.1376
23027SOL     OW74917   0.268   6.528   9.448 -0.3901 -0.2735  0.0289
23027SOL    HW174918   0.235   6.606   9.493 -1.1028 -0.5172 -0.0598
23027SOL    HW274919   0.192   6.471   9.440  0.2720 -1.2555  0.6616
23028SOL     OW74920   8.586   2.470   4.526 -0.2194 -0.4811 -0.4192
23028SOL    HW174921   8.542   2.525   4.590  0.3175 -0.4457 -0.0690
23028SOL    HW274922   8.584   2.521   4.445 -2.1229 -1.1089 -0.8076
23029SOL     OW74923   7.868   3.372  11.467 -0.1300 -0.1082 -0.5219
23029SOL    HW174924   7.784   3.417  11.469 -0.3273 -0.4708 -0.5210
23029SOL    HW274925   7.916   3.412  11.395  0.0598  0.7431  0.0680
23030SOL     OW74926   7.939  11.615  12.330  0.1561 -0.0209 -0.0969
23030SOL    HW174927   7.915  11.707  12.326 -1.8715 -0.4921 -0.0122
23030SOL    HW274928   7.947  11.588  12.238  1.9574  0.4777 -0.1257
23031SOL     OW74929   3.289  11.691  12.232 -1.1459  0.0272  0.1012
23031SOL    HW174930   3.311  11.779  12.202 -0.8000 -0.7908 -2.2420
23031SOL    HW274931   3.277  11.640  12.152 -1.2715 -2.0918  1.3809
23032SOL     OW74932   3.509   4.861   1.682  0.2932 -0.5417 -0.5358
23032SOL    HW174933   3.480   4.771   1.667  0.5997 -1.0363  1.5766
23032SOL    HW274934   3.563   4.857   1.761  0.9067  1.3963 -0.7811
23033SOL     OW74935   0.292   2.333   7.264 -0.1244 -0.2698 -0.4423
23033SOL    HW174936   0.244   2.394   7.320 -0.9587 -1.8929  0.7145
23033SOL    HW274937   0.354   2.290   7.323  0.4500 -0.5372 -1.2248
23034SOL     OW74938   5.653   7.878   7.475 -0.2164 -0.4024 -0.9187
23034SOL    HW174939   5.719   7.947   7.474 -0.4946 -0.1342 -0.8252
23034SOL    HW274940   5.651   7.847   7.565 -1.9017  1.2264 -0.3314
23035SOL     OW74941   8.743   2.328   1.481 -0.5003 -0.5055 -0.0311
23035SOL    HW174942   8.811   2.340   1.415 -0.9263  0.3559 -0.3319
23035SOL    HW274943   8.677   2.394   1.460 -0.8664 -0.5273  0.9740
23036SOL     OW74944   0.233   6.541  12.243 -0.2251 -0.2969  0.3162
23036SOL    HW174945   0.308   6.521  12.187 -0.9134 -3.5418  0.3418
23036SOL    HW274946   0.257   6.506  12.329 -0.5770  1.4431  1.1621
23037SOL     OW74947   8.838   3.227   8.788 -0.3039 -0.3081  0.0341
23037SOL    HW174948   8.893   3.256   8.715 -1.0212  1.2341  0.0804
23037SOL    HW274949   8.864   3.282   8.861 -2.4940  1.1102 -0.1790
23038SOL     OW74950   0.907  11.599   3.096 -0.1578 -0.0090 -0.0016
23038SOL    HW174951   0.871  11.685   3.073  0.4562  0.8867  2.1270
23038SOL    HW274952   0.997  11.617   3.123  0.0067 -1.3343  0.4041
23039SOL     OW74953   5.910   6.285   8.483 -0.1492  0.3438  0.6019
23039SOL    HW174954   5.865   6.317   8.561 -2.3228 -0.7828 -0.1064
23039SOL    HW274955   5.924   6.192   8.500 -0.4635  0.1323 -0.2503
23040SOL     OW74956   5.599   8.849   1.010  0.3419 -0.2950  0.1223
23040SOL    HW174957   5.690   8.819   1.000  0.2826 -0.5850  0.4760
23040SOL    HW274958   5.558   8.784   1.066 -0.3390 -0.6727 -0.7837
23041SOL     OW74959   2.324   9.281   2.343  0.0519  0.4270 -0.1961
23041SOL    HW174960   2.271   9.202   2.350 -0.5929  0.8894  0.3494
23041SOL    HW274961   2.316   9.323   2.429 -1.3427  2.1372 -1.0893
23042SOL     OW74962   7.384   6.760   7.117  0.2565  0.2888 -0.0166
23042SOL    HW174963   7.391   6.753   7.022  0.7892  1.6877 -0.1128
23042SOL    HW274964   7.474   6.773   7.147 -0.1268  2.3210  0.4009
23043SOL     OW74965   7.732   4.951   4.157  0.1058 -0.3405 -0.4605
23043SOL    HW174966   7.805   5.013   4.161 -0.1062 -0.1629  1.9982
23043SOL    HW274967   7.766   4.871   4.196 -1.0523 -0.1606  0.9947
23044SOL     OW74968   5.437   0.764   9.778  0.3765  0.3080  0.3274
23044SOL    HW174969   5.384   0.762   9.698 -0.1661 -0.1269  0.6886
23044SOL    HW274970   5.516   0.716   9.755  0.2250  0.1881  0.0453
23045SOL     OW74971   6.367   0.132  12.151 -0.0380 -0.5171 -0.4329
23045SOL    HW174972   6.387   0.207  12.208 -0.8304 -1.2773  0.8945
23045SOL    HW274973   6.302   0.165  12.089  0.6426  0.2506 -0.7672
23046SOL     OW74974   7.435   8.358   4.020 -0.4257 -0.7376  0.3185
23046SOL    HW174975   7.432   8.284   3.959  0.4819 -1.5448  1.2304
23046SOL    HW274976   7.461   8.320   4.104  1.4609  0.7854  0.4940
23047SOL     OW74977  10.276   2.590  11.373  0.2790  0.0794  0.2473
23047SOL    HW174978  10.260   2.623  11.285  1.8054 -0.4872 -0.2753
23047SOL    HW274979  10.334   2.514  11.361  1.1036  0.4115  1.7657
23048SOL     OW74980   8.615   5.001   1.119 -0.2069 -0.1658  0.1192
23048SOL    HW174981   8.547   4.978   1.055  1.7536 -1.1620 -1.7044
23048SOL    HW274982   8.643   5.089   1.093 -1.0817  0.4621  1.1899
23049SOL     OW74983   7.430  11.770   0.966 -0.5414  0.7689  0.2842
23049SOL    HW174984   7.518  11.737   0.979 -0.9496  0.6159  3.1838
23049SOL    HW274985   7.410  11.821   1.044 -3.3575  0.0117  0.1977
23050SOL     OW74986   8.988   1.373   9.787  0.1743  0.1400 -0.1127
23050SOL    HW174987   9.043   1.325   9.725  1.3221  0.4934  0.6111
23050SOL    HW274988   8.986   1.319   9.865  0.1804  0.5184  0.1509
23051SOL     OW74989   4.643   8.174  11.802 -0.4358 -0.1948 -0.0142
23051SOL    HW174990   4.620   8.240  11.868 -2.5617 -0.6468 -0.2280
23051SOL    HW274991   4.564   8.164  11.749  0.2310 -2.0259 -0.7621
23052SOL     OW74992   7.747   9.513   8.091  0.0552  0.2719  0.4239
23052SOL    HW174993   7.733   9.581   8.157 -1.2599  0.4585 -0.0022
23052SOL    HW274994   7.701   9.436   8.126 -1.1423  0.5301 -0.4781
23053SOL     OW74995   7.531  10.565   0.148  0.3894  0.1561  0.4308
23053SOL    HW174996   7.478  10.642   0.131  0.2377 -0.0342  0.0159
23053SOL    HW274997   7.482  10.515   0.213 -0.4672 -0.5227 -0.6865
23054SOL     OW74998  11.932   9.769   4.728  0.5339  0.6186  0.4317
23054SOL    HW174999  12.014   9.819   4.732  1.0424 -0.1586 -0.1417
23054SOL    HW275000  11.916   9.742   4.819  0.7768  0.9798  0.5848
23055SOL     OW75001   6.038   0.530   3.305 -0.0162 -0.2790  0.6725
23055SOL    HW175002   6.060   0.484   3.223  2.6899  0.4920  0.8868
23055SOL    HW275003   6.018   0.460   3.366 -2.1577 -0.8757 -0.6102
23056SOL     OW75004   9.872   8.212   8.549 -0.5148 -0.0379 -0.0511
23056SOL    HW175005   9.956   8.249   8.579 -1.3050  1.6150  0.2583
23056SOL    HW275006   9.896   8.131   8.504  1.2827  0.5894 -0.3035
23057SOL     OW75007   4.941   9.773   9.622 -0.5865 -0.1434 -0.1080
23057SOL    HW175008   4.934   9.857   9.668  0.4036  0.5755 -1.1812
23057SOL    HW275009   5.002   9.722   9.674 -1.4355 -0.3374  0.7220
23058SOL     OW75010   6.311  11.321  11.831  0.2916 -0.6328 -0.3047
23058SOL    HW175011   6.227  11.326  11.785 -0.5442  0.8504  1.2742
23058SOL    HW275012   6.376  11.347  11.765 -0.5620 -1.0503 -1.3372
23059SOL     OW75013  10.584  10.575   7.892  0.0773  0.0151  0.3326
23059SOL    HW175014  10.509  10.519   7.910 -1.2692  0.9577 -1.9876
23059SOL    HW275015  10.638  10.525   7.832 -0.5300  0.6844 -0.8034
23060SOL     OW75016   1.587   2.883  10.974 -0.6412  0.0530  0.4624
23060SOL    HW175017   1.595   2.826  11.051  2.5524 -0.3139 -0.0447
23060SOL    HW275018   1.652   2.951  10.987 -1.3394  1.0686 -1.0730
23061SOL     OW75019   5.111   6.010   2.979 -0.4071  0.0222 -0.2001
23061SOL    HW175020   5.149   5.950   2.915  1.0784 -1.1916  1.6940
23061SOL    HW275021   5.033   6.045   2.936  0.2364 -1.1037 -2.4450
23062SOL     OW75022   7.263   8.811   2.156 -0.2513 -0.0739 -0.0180
23062SOL    HW175023   7.309   8.892   2.132  0.7534 -1.0521 -1.5645
23062SOL    HW275024   7.222   8.781   2.075 -1.3807 -0.6567  0.7393
23063SOL     OW75025   5.507   7.861   3.563  0.1987  0.1882  0.2645
23063SOL    HW175026   5.555   7.940   3.537  1.8512 -0.4677  1.1772
23063SOL    HW275027   5.573   7.792   3.564 -1.2445 -1.2684 -0.6382
23064SOL     OW75028   7.226   3.788   2.858  0.0314  0.6470 -0.2630
23064SOL    HW175029   7.241   3.881   2.875  1.7404  0.2988  0.2853
23064SOL    HW275030   7.306   3.758   2.815 -0.0704 -0.7801  0.4710
23065SOL     OW75031  10.101  12.075   0.464  0.6155 -0.6054 -0.0711
23065SOL    HW175032  10.059  12.089   0.549 -2.1775 -1.1483 -1.2266
23065SOL    HW275033  10.165  12.146   0.457 -0.2926  0.4895  1.7703
23066SOL     OW75034   4.861   7.873   0.067 -0.3480 -0.0346 -0.0965
23066SOL    HW175035   4.809   7.873  -0.013  0.5507 -1.6805 -0.7438
23066SOL    HW275036   4.949   7.847   0.038  0.6120  1.7174  1.0889
23067SOL     OW75037   6.291  11.661  12.030  0.1312  0.4652 -0.2974
23067SOL    HW175038   6.258  11.575  12.053 -1.3137  0.8672 -0.7461
23067SOL    HW275039   6.271  11.716  12.106  0.6733  0.4971 -0.1753
23068SOL     OW75040   7.317   3.504   3.574 -0.2095 -0.0859  0.5588
23068SOL    HW175041   7.260   3.511   3.498 -0.1322 -0.4355  0.4688
23068SOL    HW275042   7.383   3.572   3.561  1.4331 -1.8915 -1.0719
23069SOL     OW75043   5.951   3.138  10.997  0.6964  0.5004  0.7378
23069SOL    HW175044   5.996   3.195  10.935 -0.7216 -0.2426 -1.1067
23069SOL    HW275045   6.003   3.058  10.998  0.6640  0.4703  0.3774
23070SOL     OW75046  12.213   3.600   4.236 -0.2207 -0.6728  0.3926
23070SOL    HW175047  12.290   3.599   4.293  0.2272 -0.0310 -0.1809
23070SOL    HW275048  12.138   3.592   4.296  0.1512  1.4514  1.2466
23071SOL     OW75049   1.368  12.071   1.969  0.1026 -0.7183 -0.3153
23071SOL    HW175050   1.403  11.982   1.975 -0.5686 -1.0450 -1.1081
23071SOL    HW275051   1.285  12.067   2.017 -0.7793 -0.9891 -1.8000
23072SOL     OW75052  12.076   3.187   2.091 -0.4045 -0.1952  0.0307
23072SOL    HW175053  12.144   3.185   2.158 -0.3898 -0.3018  0.0128
23072SOL    HW275054  12.116   3.143   2.015 -0.8740 -1.2536  0.3738
23073SOL     OW75055   2.296   6.926   1.917 -0.1589 -0.0325  0.3172
23073SOL    HW175056   2.327   6.846   1.876  1.6459  1.3335 -1.1414
23073SOL    HW275057   2.201   6.914   1.926 -0.0946 -1.7918 -1.0288
23074SOL     OW75058   6.912   0.793   0.591  0.5001  0.0735 -0.2033
23074SOL    HW175059   6.849   0.849   0.638  0.4313 -0.6605  0.5929
23074SOL    HW275060   6.993   0.802   0.641  0.7262  0.1301 -0.5778
23075SOL     OW75061   9.600  11.527   7.425  0.0958  0.2910 -0.0370
23075SOL    HW175062   9.541  11.553   7.354  0.6738  1.0012 -0.2760
23075SOL    HW275063   9.681  11.574   7.406  0.8846 -0.9983  0.0502
23076SOL     OW75064   0.826   0.970   4.452  0.5117  0.4888 -0.7404
23076SOL    HW175065   0.757   0.995   4.514  1.5303  0.1591  0.5831
23076SOL    HW275066   0.858   0.886   4.486  1.1566  0.3409 -1.6816
23077SOL     OW75067  10.063   3.736   1.311 -0.4081  0.0093 -0.0329
23077SOL    HW175068  10.029   3.718   1.399 -0.7415  1.2155  0.0972
23077SOL    HW275069   9.989   3.777   1.265  0.5340  1.7381 -0.0669
23078SOL     OW75070   1.327   0.555  11.795  0.2403 -0.2523  0.2608
23078SOL    HW175071   1.396   0.565  11.730  3.2396 -0.5084  3.0918
23078SOL    HW275072   1.325   0.461  11.813 -1.4031 -0.3361 -0.2574
23079SOL     OW75073   9.085  10.022   2.527  0.4527  0.8422  0.2433
23079SOL    HW175074   9.171   9.981   2.524  0.1809  0.2976 -0.3002
23079SOL    HW275075   9.077  10.069   2.444 -0.1782  0.0400 -0.1576
23080SOL     OW75076   3.220   0.373   4.665 -0.1564 -0.0075  0.0499
23080SOL    HW175077   3.151   0.345   4.726  0.4272  0.0657  0.7629
23080SOL    HW275078   3.216   0.309   4.594 -0.8613 -0.0894  0.1546
23081SOL     OW75079   8.395  10.056   8.532  0.5346  0.5547  0.4629
23081SOL    HW175080   8.485  10.039   8.558  0.1461 -1.8928  0.4480
23081SOL    HW275081   8.394  10.039   8.438  0.4784  2.8009 -0.0126
23082SOL     OW75082   7.949   2.147   4.555  0.0972  0.2148  0.1623
23082SOL    HW175083   7.959   2.063   4.510 -0.7685 -0.0384  0.4141
23082SOL    HW275084   8.016   2.146   4.623  0.4212 -0.0486 -0.1528
23083SOL     OW75085   6.059  10.367   2.553  0.0178  0.3722 -0.6934
23083SOL    HW175086   6.082  10.458   2.568  0.3135  0.1560  0.2224
23083SOL    HW275087   6.105  10.344   2.472 -0.7481  1.2693 -1.3968
23084SOL     OW75088   5.363   1.189   6.379  0.2329  0.3843 -0.1612
23084SOL    HW175089   5.335   1.098   6.385  1.0431  0.2183  1.6710
23084SOL    HW275090   5.288   1.240   6.409  0.8562  0.0954  2.0412
23085SOL     OW75091   1.315   7.808   5.023 -0.1685 -0.0797  0.3511
23085SOL    HW175092   1.378   7.825   5.093  0.9060  0.8942 -0.8216
23085SOL    HW275093   1.364   7.763   4.955 -0.6208  0.9849 -0.7253
23086SOL     OW75094   5.301  12.053   5.542  0.0861 -0.1085  0.2327
23086SOL    HW175095   5.329  12.134   5.499  1.0473 -0.0001  1.0379
23086SOL    HW275096   5.366  12.038   5.610  1.0298 -2.5603 -1.0802
23087SOL     OW75097   9.793   9.488   6.594  0.3899 -0.7011  0.4031
23087SOL    HW175098   9.698   9.476   6.601  0.1042  1.6926  1.8129
23087SOL    HW275099   9.826   9.460   6.679  0.8989 -1.1472  0.0574
23088SOL     OW75100   1.374   4.134   7.318 -0.7049  0.1720 -0.4292
23088SOL    HW175101   1.448   4.187   7.287  1.5958 -1.4517  1.8766
23088SOL    HW275102   1.389   4.047   7.280 -1.3874 -0.2043  0.1506
23089SOL     OW75103   4.087  10.167   0.297 -0.0105  0.7424  0.1146
23089SOL    HW175104   4.022  10.100   0.278 -0.1924  0.6038  1.1717
23089SOL    HW275105   4.151  10.159   0.226 -0.7617  0.4052 -0.5390
23090SOL     OW75106   0.761   0.833   9.325 -0.5938 -0.1545  0.2554
23090SOL    HW175107   0.707   0.904   9.290 -0.4357  1.4828  3.0098
23090SOL    HW275108   0.699   0.778   9.373 -0.6588 -1.8051 -1.5906
23091SOL     OW75109  11.901   0.613   1.999 -0.0533 -0.1239 -0.3199
23091SOL    HW175110  11.935   0.650   2.081  0.9745 -1.0293 -0.3154
23091SOL    HW275111  11.948   0.531   1.989 -0.7471 -0.4044 -1.4294
23092SOL     OW75112   9.358   3.713   6.916  0.0578 -0.9690 -0.1258
23092SOL    HW175113   9.363   3.776   6.844  0.3643  1.0084  1.5397
23092SOL    HW275114   9.267   3.715   6.944  0.4196  0.0739  1.0386
23093SOL     OW75115   4.584   0.745   8.900 -0.3167  0.1020 -0.6532
23093SOL    HW175116   4.589   0.676   8.834 -0.3418 -0.1913 -0.3509
23093SOL    HW275117   4.530   0.708   8.969 -0.3329  0.4269 -0.4898
23094SOL     OW75118  10.042   4.579   0.118 -0.4788  0.0313  0.3677
23094SOL    HW175119  10.058   4.507   0.057  2.7031 -1.4960  2.7301
23094SOL    HW275120  10.095   4.651   0.083 -0.0346 -0.2775  0.3929
23095SOL     OW75121   2.261   7.221   5.574  0.1849  0.2920 -0.0964
23095SOL    HW175122   2.208   7.270   5.511 -0.4036 -0.5431 -0.2835
23095SOL    HW275123   2.305   7.154   5.522 -1.6921 -1.5599  0.5583
23096SOL     OW75124   3.089   4.015  12.050  0.2959  0.2334  0.1527
23096SOL    HW175125   3.091   4.003  12.144  1.0254  0.6924  0.2028
23096SOL    HW275126   2.999   4.043  12.031 -0.1381 -0.8220  0.5728
23097SOL     OW75127   7.490   8.117   0.077 -0.0895 -0.6241  0.5262
23097SOL    HW175128   7.445   8.175   0.015  1.9514  1.5618  0.9145
23097SOL    HW275129   7.542   8.059   0.022  0.5780  0.3272  0.1142
23098SOL     OW75130   4.104   5.852   6.970 -0.0325 -0.4536  0.0188
23098SOL    HW175131   4.018   5.811   6.982 -0.2123  0.1139  0.7516
23098SOL    HW275132   4.155   5.821   7.045  0.4868 -0.9855 -0.5474
23099SOL     OW75133   7.410  11.732   7.737 -0.0145 -0.0534  0.4663
23099SOL    HW175134   7.414  11.640   7.761 -0.0722  0.3151  2.0086
23099SOL    HW275135   7.340  11.738   7.672 -3.1019 -0.4996  3.4793
23100SOL     OW75136   2.068   1.547   6.410  1.0350  0.5612 -0.3526
23100SOL    HW175137   2.139   1.492   6.378  0.0272  1.1149 -4.0124
23100SOL    HW275138   2.083   1.633   6.369 -0.3099  1.4541  0.9004
23101SOL     OW75139   6.201   9.410  10.705  0.4199  0.1272 -0.0220
23101SOL    HW175140   6.237   9.462  10.633  1.1078 -0.7778 -0.3480
23101SOL    HW275141   6.148   9.472  10.755  0.7206  0.9960 -0.7513
23102SOL     OW75142   2.902   3.230   9.442 -0.1054 -0.0346  0.7344
23102SOL    HW175143   2.969   3.278   9.492  2.1542 -2.2602  0.0548
23102SOL    HW275144   2.952   3.166   9.391 -2.7584 -1.4347 -0.2707
23103SOL     OW75145   6.600   5.673   5.200  0.2134  0.3650  0.7759
23103SOL    HW175146   6.619   5.737   5.268 -0.7945  1.9558 -0.3647
23103SOL    HW275147   6.678   5.672   5.145  0.3659  0.3339  0.9895
23104SOL     OW75148  12.045   5.449   4.343  0.6280 -0.0114  0.7357
23104SOL    HW175149  12.042   5.361   4.306 -0.7537  0.8573 -1.4403
23104SOL    HW275150  12.122   5.489   4.303 -0.2394  0.5742 -0.4021
23105SOL     OW75151  11.193   3.676   7.238 -0.1969 -0.6496  0.3805
23105SOL    HW175152  11.288   3.677   7.248  0.4245  1.6598 -3.8413
23105SOL    HW275153  11.174   3.591   7.198 -0.1653 -1.5172  2.0849
23106SOL     OW75154   7.060   2.737   3.073 -0.1408 -0.0073  0.0086
23106SOL    HW175155   7.138   2.748   3.020  0.2153  0.6297  0.6469
23106SOL    HW275156   6.996   2.798   3.035 -0.3136 -0.4758 -0.4675
23107SOL     OW75157   0.082   2.157   0.821 -0.5802 -0.1512 -0.2140
23107SOL    HW175158   0.012   2.199   0.870  0.6478  1.8856 -0.0608
23107SOL    HW275159   0.124   2.098   0.884  0.1505  1.4330  0.8413
23108SOL     OW75160   5.205   0.842   7.489 -0.3086 -0.6259 -0.2466
23108SOL    HW175161   5.133   0.780   7.502 -1.5986  0.3629 -2.1205
23108SOL    HW275162   5.267   0.794   7.434 -0.0678 -1.1109  0.4433
23109SOL     OW75163   8.519   0.936   4.111  0.2005 -0.2118  0.1657
23109SOL    HW175164   8.592   0.993   4.137 -0.3621  0.6326 -0.0315
23109SOL    HW275165   8.557   0.849   4.105  1.6153  0.4642 -1.6869
23110SOL     OW75166   1.202   0.006   6.415  0.4801  0.5194  0.0665
23110SOL    HW175167   1.267  -0.038   6.361 -0.8169 -1.1882 -0.1768
23110SOL    HW275168   1.128   0.022   6.356 -0.3303  0.0936  0.9358
23111SOL     OW75169  10.776   9.254   9.549  0.2533  0.0177 -0.4425
23111SOL    HW175170  10.759   9.256   9.644 -0.3237 -2.9931 -0.3751
23111SOL    HW275171  10.870   9.240   9.542 -0.0448 -2.6509 -0.1283
23112SOL     OW75172   3.698   8.272  10.709  0.8350 -0.4813 -0.4938
23112SOL    HW175173   3.645   8.197  10.736  3.4152 -2.4165 -0.4820
23112SOL    HW275174   3.770   8.275  10.771  1.3805  1.3736 -1.1541
23113SOL     OW75175   0.452   2.203   3.861 -0.4660 -0.4681 -0.5816
23113SOL    HW175176   0.414   2.254   3.790 -0.7856  0.5079  0.2527
23113SOL    HW275177   0.386   2.208   3.931  0.2196 -0.6443  0.0863
23114SOL     OW75178   8.636   9.728   8.342 -0.3906  0.3917  0.1075
23114SOL    HW175179   8.575   9.739   8.416 -0.2390  0.6552  0.1945
23114SOL    HW275180   8.703   9.794   8.357 -0.0136  0.0149  0.0749
23115SOL     OW75181   8.991   1.182   3.176 -0.5531 -0.1363 -0.6839
23115SOL    HW175182   8.957   1.266   3.205  1.3075  0.7750 -0.9744
23115SOL    HW275183   8.976   1.123   3.250  0.2846  1.0762  0.4920
23116SOL     OW75184   2.287   5.522   9.767  0.2093  0.1077 -0.5293
23116SOL    HW175185   2.331   5.528   9.683 -1.2339 -0.1284 -1.3445
23116SOL    HW275186   2.274   5.428   9.781 -1.1040  0.2091 -0.9197
23117SOL     OW75187   6.705   2.859   2.187 -0.3214  0.1453  0.0076
23117SOL    HW175188   6.724   2.923   2.256  2.1508 -1.6515  1.1242
23117SOL    HW275189   6.609   2.853   2.187 -0.5738  2.7283  0.8370
23118SOL     OW75190   3.603   7.974   4.831 -0.2130  0.7980  0.4887
23118SOL    HW175191   3.562   7.896   4.868 -0.9043  2.1834  2.8406
23118SOL    HW275192   3.665   7.940   4.767  0.1872 -1.7602  2.0882
23119SOL     OW75193   9.070  11.162   5.398 -0.3196  0.0124  0.1105
23119SOL    HW175194   9.109  11.238   5.354  0.1619  0.4805  1.3216
23119SOL    HW275195   9.067  11.186   5.490 -0.3938 -1.3544  0.4800
23120SOL     OW75196   4.541   5.544   1.094  0.2832 -0.5896  0.1654
23120SOL    HW175197   4.536   5.464   1.042  1.2190  0.4204 -1.5520
23120SOL    HW275198   4.455   5.550   1.136 -0.0920 -2.0344 -0.3340
23121SOL     OW75199  11.932   1.032   2.891  0.2259  0.4531 -0.7642
23121SOL    HW175200  12.026   1.048   2.898  0.9915 -3.0725 -0.8394
23121SOL    HW275201  11.904   1.015   2.980  0.3225 -1.0867 -0.9882
23122SOL     OW75202   5.598  10.997  11.906  0.4804 -0.1517  0.1815
23122SOL    HW175203   5.651  10.983  11.828  1.7748  1.3764  0.7466
23122SOL    HW275204   5.581  10.909  11.939  1.1737 -0.7521 -0.9808
23123SOL     OW75205   6.544   6.055   7.131 -0.2763 -0.1405  0.5638
23123SOL    HW175206   6.573   6.128   7.075 -2.2862  0.0369 -0.3203
23123SOL    HW275207   6.625   6.020   7.168  0.8485  1.8008  0.0999
23124SOL     OW75208   7.220   4.313  10.807 -0.5278 -0.1431  0.0112
23124SOL    HW175209   7.254   4.260  10.735 -2.2654  0.7463 -1.5550
23124SOL    HW275210   7.140   4.269  10.834 -1.1820  0.8264 -0.2838
23125SOL     OW75211  10.540   7.133   8.232 -0.0293  0.2479 -0.5855
23125SOL    HW175212  10.558   7.111   8.324  1.3957  1.2624 -0.5819
23125SOL    HW275213  10.583   7.064   8.182 -0.4817 -0.0950 -0.5104
23126SOL     OW75214   1.636   3.501   2.030 -0.2081  0.4965 -0.2724
23126SOL    HW175215   1.603   3.457   2.108 -1.4785  0.5552 -0.7564
23126SOL    HW275216   1.587   3.584   2.027 -0.6706  0.1911 -1.4881
23127SOL     OW75217   4.251   4.417   7.847  0.4639 -0.1690  0.0375
23127SOL    HW175218   4.276   4.327   7.826  0.8394  0.2017 -1.1919
23127SOL    HW275219   4.156   4.413   7.860  0.5134 -0.7874  0.2141
23128SOL     OW75220   3.144   9.157   5.521  0.4832  0.6527 -0.2430
23128SOL    HW175221   3.189   9.094   5.465 -1.2023  0.7216 -1.7664
23128SOL    HW275222   3.156   9.241   5.477  0.2529  0.9282  0.2183
23129SOL     OW75223   7.294   8.553   2.508 -0.1761 -0.1804  0.1147
23129SOL    HW175224   7.201   8.575   2.509 -0.1419  0.1108 -1.3889
23129SOL    HW275225   7.296   8.457   2.509 -0.5474 -0.2201 -1.3682
23130SOL     OW75226  11.496   0.701   5.241 -0.1030  0.0162  0.1418
23130SOL    HW175227  11.516   0.631   5.303  0.2049  2.2876  2.7999
23130SOL    HW275228  11.418   0.670   5.194  0.4447 -2.3603  0.6654
23131SOL     OW75229   0.880   3.338   5.650 -0.1516  0.6596  0.4598
23131SOL    HW175230   0.843   3.298   5.728 -2.3991  1.2902 -0.1858
23131SOL    HW275231   0.879   3.269   5.584 -1.6172  1.0347  0.0519
23132SOL     OW75232   9.312   7.437   5.638  0.1642  0.4301 -0.5850
23132SOL    HW175233   9.246   7.368   5.641  1.3618 -0.7751 -0.7181
23132SOL    HW275234   9.370   7.411   5.566  0.9617  1.2765 -0.2661
23133SOL     OW75235  10.615   1.731   5.068 -0.1059  0.2061 -0.4951
23133SOL    HW175236  10.567   1.763   4.991  0.9264  0.2893 -1.1318
23133SOL    HW275237  10.562   1.758   5.143  0.3242  2.8235 -1.0174
23134SOL     OW75238  11.186   0.516  10.699  0.9862 -0.0869  0.0842
23134SOL    HW175239  11.271   0.555  10.718  0.0095  1.2997  1.8772
23134SOL    HW275240  11.178   0.443  10.760  1.8129 -1.7407 -1.6761
23135SOL     OW75241   2.232   8.191  10.961 -0.6460  0.0574 -0.3318
23135SOL    HW175242   2.229   8.207  10.866  2.1577  1.7703 -0.2721
23135SOL    HW275243   2.319   8.222  10.987 -0.6883 -1.8779  2.5802
23136SOL     OW75244   8.498   6.727   9.134 -0.4075  0.0320  0.0145
23136SOL    HW175245   8.536   6.801   9.088  0.6303 -1.0631 -0.9454
23136SOL    HW275246   8.545   6.651   9.100 -0.8923 -0.9941  1.5436
23137SOL     OW75247   6.818   3.349   5.547 -0.1949  0.4479  0.3014
23137SOL    HW175248   6.883   3.281   5.526  0.5356  0.9248  0.9676
23137SOL    HW275249   6.854   3.393   5.624 -0.8458  1.3567  0.0965
23138SOL     OW75250   6.181   2.187   6.775  0.5844 -0.2155  0.1105
23138SOL    HW175251   6.148   2.111   6.824  0.2304  0.6794  1.3337
23138SOL    HW275252   6.238   2.151   6.708 -0.2160 -1.6071  0.1465
23139SOL     OW75253   3.187   8.599   7.997 -0.0110 -0.4235 -0.2663
23139SOL    HW175254   3.115   8.622   8.055  0.5502  1.1360 -0.1578
23139SOL    HW275255   3.185   8.503   7.994 -1.4097 -0.4487  0.5743
23140SOL     OW75256   7.510   6.256  10.382  0.1977 -0.5896 -0.1051
23140SOL    HW175257   7.553   6.199  10.318  0.8554  1.2667 -1.3827
23140SOL    HW275258   7.541   6.223  10.467  0.9636 -1.7941 -0.8161
23141SOL     OW75259  11.145  11.279   0.024  0.2662  0.1408  0.3460
23141SOL    HW175260  11.067  11.328  -0.003  0.0095 -0.7886 -0.6657
23141SOL    HW275261  11.219  11.332  -0.008  0.1429  1.4618  2.0374
23142SOL     OW75262   3.174   9.397   9.505  0.9068 -0.2770 -0.2348
23142SOL    HW175263   3.227   9.421   9.429  1.5378  0.7393  0.5088
23142SOL    HW275264   3.122   9.475   9.524 -0.6752 -1.1687 -0.7770
23143SOL     OW75265   4.470   9.860   0.220  0.3777  0.0275  0.2585
23143SOL    HW175266   4.539   9.862   0.153  0.7253 -1.3120  0.5347
23143SOL    HW275267   4.516   9.880   0.302 -0.0210  1.5237  0.1338
23144SOL     OW75268   8.829   1.529   6.941  0.5522 -0.3853  0.4787
23144SOL    HW175269   8.857   1.620   6.933 -0.3008 -0.0731  0.9086
23144SOL    HW275270   8.746   1.525   6.893 -0.4472 -0.4379  2.1346
23145SOL     OW75271   6.708   4.180  11.803  0.3244  0.0075  0.0029
23145SOL    HW175272   6.638   4.138  11.753  0.2865 -0.9066  0.7799
23145SOL    HW275273   6.789   4.154  11.759  0.2234  0.2081 -0.2969
23146SOL     OW75274   6.302   0.472   7.501 -0.4001  0.1520  0.6194
23146SOL    HW175275   6.240   0.545   7.494  0.1710  0.9642  3.1727
23146SOL    HW275276   6.386   0.509   7.473 -0.0550  0.5874  2.1769
23147SOL     OW75277  12.022  11.226   3.413 -0.0260 -0.0856  0.1012
23147SOL    HW175278  11.968  11.278   3.472  1.0518  0.8294  0.2923
23147SOL    HW275279  12.086  11.287   3.378 -0.8646 -0.4880 -2.3537
23148SOL     OW75280   2.133  11.533   3.812  1.2796 -0.3694  0.3536
23148SOL    HW175281   2.107  11.624   3.805 -2.0806 -0.8624  3.3398
23148SOL    HW275282   2.133  11.500   3.722 -1.4138  1.6791 -0.5225
23149SOL     OW75283   2.996   2.531   1.375 -0.4679 -0.0654 -0.1749
23149SOL    HW175284   2.990   2.467   1.446 -0.5573 -0.1124 -0.2247
23149SOL    HW275285   3.019   2.613   1.419  1.4609 -0.4888 -0.2851
23150SOL     OW75286   4.744   9.465   2.024  0.4445 -0.4600 -0.0302
23150SOL    HW175287   4.781   9.402   2.085  0.0288 -0.8783 -0.2004
23150SOL    HW275288   4.682   9.414   1.972 -0.1837  0.1648  0.0892
23151SOL     OW75289  12.054   1.014   4.389 -0.1196 -0.8493  0.2533
23151SOL    HW175290  11.975   1.021   4.336 -1.0663 -1.3921  1.5556
23151SOL    HW275291  12.027   1.040   4.477  1.2683 -0.5611  0.6206
23152SOL     OW75292   5.366   5.773   5.351  0.0688  0.6748  0.2251
23152SOL    HW175293   5.447   5.724   5.341 -1.0527 -1.1078 -0.6656
23152SOL    HW275294   5.388   5.846   5.409  1.8486 -0.7821  1.4598
23153SOL     OW75295   2.444  11.432   6.563  0.0494 -0.1800  0.0795
23153SOL    HW175296   2.415  11.342   6.552  1.4474 -0.6322 -0.0561
23153SOL    HW275297   2.536  11.431   6.539  0.0131  1.3580 -0.2418
23154SOL     OW75298   6.311   4.199   9.791  0.0019  0.7626 -0.0540
23154SOL    HW175299   6.240   4.261   9.772 -0.4148  0.5635  0.7802
23154SOL    HW275300   6.365   4.199   9.712  0.2238  2.4638  0.0597
23155SOL     OW75301  10.353  10.094   6.359  0.3196 -0.5749 -0.1587
23155SOL    HW175302  10.358  10.013   6.409 -0.1688  0.2992  1.4044
23155SOL    HW275303  10.331  10.067   6.270 -0.8263 -2.0825  0.5466
23156SOL     OW75304   4.036   3.213   7.961 -0.2326  0.1813 -0.3369
23156SOL    HW175305   4.078   3.141   7.915 -0.5029  0.0892 -0.4403
23156SOL    HW275306   4.064   3.291   7.913  0.1280  0.1538 -0.1732
23157SOL     OW75307  11.463   0.638   2.269 -0.6482 -0.6419 -0.7878
23157SOL    HW175308  11.526   0.572   2.300  1.7044  0.7729 -2.2397
23157SOL    HW275309  11.471   0.635   2.174 -0.7104  1.5238 -0.8912
23158SOL     OW75310   3.869   6.045   8.966 -0.2223  0.3726  0.3944
23158SOL    HW175311   3.955   6.039   8.924 -0.9691 -0.9408 -1.0547
23158SOL    HW275312   3.852   6.139   8.973 -0.1527  0.7008 -2.5768
23159SOL     OW75313  10.108   2.746   7.905  0.8031  0.1482  0.0415
23159SOL    HW175314  10.055   2.685   7.956 -2.4365  1.8303 -1.0593
23159SOL    HW275315  10.127   2.818   7.965 -0.5307  0.7821 -0.2657
23160SOL     OW75316  10.481   8.202   4.540  0.1324 -0.5360 -0.0208
23160SOL    HW175317  10.572   8.192   4.565  0.2213 -2.2406 -0.8964
23160SOL    HW275318  10.448   8.113   4.530 -1.2447  0.0394 -1.0725
23161SOL     OW75319   7.462   1.423   1.714 -0.3971 -0.0153 -0.3886
23161SOL    HW175320   7.416   1.487   1.768 -1.9673 -0.0250 -1.6557
23161SOL    HW275321   7.540   1.469   1.683 -0.4585  0.5935  0.3235
23162SOL     OW75322   2.341   0.182   4.747  0.1952 -0.0730  0.0382
23162SOL    HW175323   2.312   0.210   4.661 -0.9189  0.8807  0.6926
23162SOL    HW275324   2.330   0.087   4.747 -0.4857 -0.0008 -0.6295
23163SOL     OW75325   8.997   2.769   9.120 -0.2874  0.3593 -0.0334
23163SOL    HW175326   8.950   2.690   9.092 -1.3579  0.4773  1.3309
23163SOL    HW275327   8.929   2.828   9.152  0.6503  1.1935  0.4939
23164SOL     OW75328   3.043   9.658   0.739 -0.6005 -0.6689  0.0239
23164SOL    HW175329   3.068   9.750   0.742 -2.1285 -0.2332  0.0815
23164SOL    HW275330   3.067   9.623   0.825  1.1044 -0.6629 -0.4134
23165SOL     OW75331   3.706   5.782   5.532  0.4186 -0.2531  0.0938
23165SOL    HW175332   3.754   5.857   5.496  0.5126  0.7522  2.1696
23165SOL    HW275333   3.708   5.716   5.462  1.6940  1.0845 -1.2018
23166SOL     OW75334   4.377   8.271   9.762  0.4515 -0.2915  0.0651
23166SOL    HW175335   4.375   8.189   9.811  0.3462 -0.7445 -0.6827
23166SOL    HW275336   4.309   8.261   9.695  1.8997 -0.4739 -1.4230
23167SOL     OW75337  11.861   4.100   9.015  0.1288 -0.2787  0.0172
23167SOL    HW175338  11.900   4.045   9.082  3.2531  0.2759 -1.1899
23167SOL    HW275339  11.899   4.187   9.029 -1.7268  0.6768 -0.4787
23168SOL     OW75340  11.146   4.757   7.164 -0.0692  1.0417  0.5410
23168SOL    HW175341  11.162   4.664   7.148 -0.4227  0.8717  1.1219
23168SOL    HW275342  11.148   4.798   7.078  0.7290  0.5973  0.3418
23169SOL     OW75343  10.130   6.744   4.676  0.1243  0.4467 -0.5847
23169SOL    HW175344  10.146   6.817   4.735 -0.3842 -0.6873  1.0302
23169SOL    HW275345  10.116   6.785   4.590 -0.1625  2.2256  0.2615
23170SOL     OW75346  10.698   8.629   2.177 -0.6870 -0.7530 -0.0365
23170SOL    HW175347  10.752   8.591   2.246  0.7118  1.0880 -0.0347
23170SOL    HW275348  10.644   8.694   2.222  0.1885  0.4158 -0.6241
23171SOL     OW75349   7.890   3.679  11.690 -0.1535 -0.4125 -0.0555
23171SOL    HW175350   7.810   3.727  11.671 -1.0175  0.0041  3.8161
23171SOL    HW275351   7.860   3.589  11.707  0.6767 -1.0203 -1.6766
23172SOL     OW75352   7.699   0.377   0.195  0.0913  0.4570  0.1096
23172SOL    HW175353   7.650   0.360   0.275 -0.0757 -0.7757 -0.2244
23172SOL    HW275354   7.666   0.313   0.132  1.4669  0.1913 -0.3974
23173SOL     OW75355   3.037   5.008   5.931 -0.2472  0.1147  0.0901
23173SOL    HW175356   3.072   5.032   5.846 -2.1456  2.7169 -0.0582
23173SOL    HW275357   3.114   4.979   5.981  1.1103 -0.1048 -2.0121
23174SOL     OW75358   9.212  11.006   7.411  0.2935 -0.0139 -0.4331
23174SOL    HW175359   9.271  10.970   7.478  1.1061  1.5174 -0.2600
23174SOL    HW275360   9.257  11.085   7.381 -1.3589  0.8187 -0.8248
23175SOL     OW75361  12.258   9.461   8.124 -0.0142  0.1028  0.5334
23175SOL    HW175362  12.263   9.549   8.088  0.2292 -0.7392 -1.6388
23175SOL    HW275363  12.205   9.470   8.203 -1.0450  1.9888 -0.3136
23176SOL     OW75364   7.817  10.092   5.821 -0.5428  0.1202  0.1829
23176SOL    HW175365   7.849  10.064   5.735 -0.7329 -2.0787  0.7592
23176SOL    HW275366   7.735  10.138   5.802 -0.5859 -0.3463 -0.8314
23177SOL     OW75367   8.257   0.588   7.487 -0.3111  0.1002 -0.0049
23177SOL    HW175368   8.316   0.663   7.472 -1.4056  0.4463 -3.5188
23177SOL    HW275369   8.299   0.515   7.441 -2.2414  0.2547 -2.2091
23178SOL     OW75370   4.636   4.212   1.614 -0.1895 -0.7059  0.1246
23178SOL    HW175371   4.708   4.151   1.596  1.2551  0.5580  1.3513
23178SOL    HW275372   4.625   4.259   1.532  0.6741 -0.6390  0.0322
23179SOL     OW75373   9.122   2.421   5.444 -0.0656  0.5145 -0.2653
23179SOL    HW175374   9.097   2.507   5.478 -1.1226 -0.1491  0.6895
23179SOL    HW275375   9.039   2.381   5.417 -0.1513 -1.5999  2.6323
23180SOL     OW75376  11.541   5.530   3.133  0.4472 -0.0134 -0.6653
23180SOL    HW175377  11.593   5.590   3.081  1.5435 -1.7446 -1.6226
23180SOL    HW275378  11.601   5.496   3.199 -0.3260  0.3737  0.2767
23181SOL     OW75379   0.815  12.056   5.738 -0.3258 -0.3731 -0.2983
23181SOL    HW175380   0.889  12.003   5.766  0.0463 -0.9347 -2.1874
23181SOL    HW275381   0.750  12.046   5.808  0.5589 -1.5776  0.3898
23182SOL     OW75382  11.423  11.138   7.748  0.0943  0.3745 -0.1697
23182SOL    HW175383  11.371  11.140   7.828 -0.9659  0.4058 -0.8422
23182SOL    HW275384  11.412  11.225   7.710  3.1430  1.5019  1.1873
23183SOL     OW75385   2.968   3.030   2.354 -0.2393 -0.2031  0.4555
23183SOL    HW175386   2.883   3.019   2.397 -0.1394 -2.1412  0.2347
23183SOL    HW275387   3.019   2.953   2.381 -0.6180 -2.4196 -4.1600
23184SOL     OW75388  10.887   4.707   2.710  0.0883 -0.0837 -0.4361
23184SOL    HW175389  10.796   4.699   2.683 -0.8089 -0.3777  2.3933
23184SOL    HW275390  10.918   4.616   2.716  0.9272  0.0273 -2.2439
23185SOL     OW75391  11.712  10.755   2.957 -0.3383 -0.2313  0.2261
23185SOL    HW175392  11.757  10.676   2.987  1.9189  0.1838 -1.7912
23185SOL    HW275393  11.747  10.825   3.011 -1.3915 -0.3726  1.1418
23186SOL     OW75394   2.563  10.466   3.429 -0.0405 -0.6180  0.2078
23186SOL    HW175395   2.478  10.503   3.451  0.1865 -0.4393  0.8183
23186SOL    HW275396   2.616  10.480   3.508  1.5383  2.1578 -1.1824
23187SOL     OW75397   8.475   5.787   1.863 -0.1742 -0.1768  0.0834
23187SOL    HW175398   8.401   5.845   1.881  0.2053  0.0385  1.0011
23187SOL    HW275399   8.454   5.706   1.909  0.0332 -0.2045  0.1323
23188SOL     OW75400  11.621   4.721   3.500  0.0705 -0.8147 -0.3025
23188SOL    HW175401  11.594   4.771   3.577 -0.6665 -2.2518  0.3985
23188SOL    HW275402  11.630   4.788   3.431  0.0137  0.3972  0.8190
23189SOL     OW75403  11.614   8.268   8.631 -0.3409  0.0356  0.4650
23189SOL    HW175404  11.647   8.350   8.595  3.5942 -1.4598  0.1844
23189SOL    HW275405  11.558   8.294   8.704  0.8120  2.9692  0.4191
23190SOL     OW75406   7.657   1.926  10.074 -0.2220 -0.7249  0.5156
23190SOL    HW175407   7.675   1.976  10.154 -1.5869 -1.8257  1.5681
23190SOL    HW275408   7.599   1.982  10.024  1.6874  0.5499 -0.4032
23191SOL     OW75409   3.460   8.550   1.494  0.1879  0.3502 -0.7328
23191SOL    HW175410   3.534   8.513   1.544 -0.5368 -2.4809 -1.5652
23191SOL    HW275411   3.439   8.632   1.540  2.7969  0.4686  0.4727
23192SOL     OW75412   1.005   8.755   7.135 -0.0105 -0.6231  0.7114
23192SOL    HW175413   0.950   8.755   7.056 -0.0652 -3.1982  0.6781
23192SOL    HW275414   0.946   8.728   7.205  0.1506  1.2111  1.6269
23193SOL     OW75415   5.697   2.706  10.749 -0.1150  0.0599 -0.0115
23193SOL    HW175416   5.644   2.628  10.762 -0.8077  0.5474  0.1003
23193SOL    HW275417   5.758   2.707  10.823 -0.7344  0.1365  0.4995
23194SOL     OW75418   4.289   6.911   4.073 -0.5730  0.1285 -0.0043
23194SOL    HW175419   4.373   6.893   4.030 -0.5160 -0.9609  0.5339
23194SOL    HW275420   4.224   6.903   4.002 -0.5834 -2.5650  0.1977
23195SOL     OW75421   8.887   2.576   8.384  0.4656 -0.5109 -0.0172
23195SOL    HW175422   8.794   2.588   8.402  0.8267  2.3083  0.4163
23195SOL    HW275423   8.897   2.604   8.293  1.0491  0.2476  0.2761
23196SOL     OW75424   9.218   2.703   3.012 -0.3212 -0.2820  0.1884
23196SOL    HW175425   9.221   2.795   3.040  0.8583  0.3071 -1.7280
23196SOL    HW275426   9.310   2.676   3.010 -0.5644 -1.0752 -0.5905
23197SOL     OW75427  11.544   3.153   3.095 -0.5420  0.1571  0.2194
23197SOL    HW175428  11.562   3.160   3.188 -1.3327 -0.5581  0.4395
23197SOL    HW275429  11.624   3.115   3.057  0.0677  1.1528  0.4727
23198SOL     OW75430  11.264   8.334   4.999  0.0834 -0.9156  0.0365
23198SOL    HW175431  11.330   8.319   5.067 -0.6401  0.0423  0.9824
23198SOL    HW275432  11.250   8.248   4.959 -2.2891 -2.4988  3.7165
23199SOL     OW75433   8.045  11.617   7.250  0.3781  0.1416  0.0893
23199SOL    HW175434   8.065  11.668   7.172  0.3489  0.9247  0.5782
23199SOL    HW275435   7.961  11.651   7.280 -1.0262 -2.0423 -1.0746
23200SOL     OW75436   8.076   2.296   0.274 -0.1992 -1.0017  0.5049
23200SOL    HW175437   8.065   2.291   0.179  0.5641  2.7840  0.0616
23200SOL    HW275438   7.993   2.329   0.306  0.9305  2.2398  0.4389
23201SOL     OW75439  11.627  10.074   3.381 -0.2809 -0.6615 -0.9235
23201SOL    HW175440  11.592  10.056   3.468 -0.4612  0.2123 -0.8013
23201SOL    HW275441  11.660   9.990   3.350  1.2184 -0.7092  0.6332
23202SOL     OW75442  11.709   1.107   9.608  0.3492  0.2727 -0.1528
23202SOL    HW175443  11.640   1.161   9.568 -0.3029 -0.3243  0.1265
23202SOL    HW275444  11.661   1.051   9.670  0.9855 -0.6975 -0.5226
23203SOL     OW75445   1.159   0.922   4.174 -0.0493  0.2091 -0.0451
23203SOL    HW175446   1.220   0.962   4.236 -1.7449  0.1935  1.6977
23203SOL    HW275447   1.127   0.995   4.121  2.4017  0.0570 -1.9485
23204SOL     OW75448   9.603   1.544   1.285 -0.0855  0.0763 -0.3410
23204SOL    HW175449   9.573   1.488   1.213  0.4242 -0.3038 -0.2608
23204SOL    HW275450   9.669   1.492   1.330 -0.4529  0.2798  0.4565
23205SOL     OW75451   0.610   5.886   8.810 -0.9663  0.0951  0.2300
23205SOL    HW175452   0.677   5.954   8.809  1.0809 -1.8008  0.2469
23205SOL    HW275453   0.586   5.875   8.718  0.1972 -0.4905 -0.0299
23206SOL     OW75454   4.009  11.290   9.441 -0.6893 -0.2868  0.1616
23206SOL    HW175455   3.948  11.309   9.369 -1.6058 -1.4991  0.5761
23206SOL    HW275456   4.069  11.364   9.441 -2.1884  1.0054 -0.2289
23207SOL     OW75457  10.585  11.610   6.678 -0.4573 -0.4264 -0.4525
23207SOL    HW175458  10.569  11.590   6.585 -1.4625 -2.8052  0.1528
23207SOL    HW275459  10.530  11.687   6.695 -0.2425  0.0628 -1.8173
23208SOL     OW75460  11.609  10.647  11.922 -0.1170  0.0689  0.3454
23208SOL    HW175461  11.566  10.636  12.007 -1.1047 -1.2748 -0.2712
23208SOL    HW275462  11.577  10.573  11.870 -0.6854  1.6215 -1.6667
23209SOL     OW75463   1.989   6.827   9.645 -0.0275  0.7086  0.5024
23209SOL    HW175464   2.045   6.848   9.720 -0.4260  3.2163  0.1997
23209SOL    HW275465   2.004   6.899   9.584 -0.9868 -0.3994 -1.0999
23210SOL     OW75466   0.864   8.095   1.882  0.4967  0.6997 -0.0901
23210SOL    HW175467   0.879   8.077   1.790 -3.4665  0.2265 -0.8581
23210SOL    HW275468   0.912   8.176   1.900  1.5820  0.6561 -2.4835
23211SOL     OW75469   5.307   8.641   4.640  0.0917 -0.6556  0.5293
23211SOL    HW175470   5.307   8.574   4.572  0.3231 -0.6773  0.5507
23211SOL    HW275471   5.348   8.599   4.715 -0.7337 -0.8388  0.8887
23212SOL     OW75472   4.633   0.138   1.632 -0.0189  0.3595  0.0400
23212SOL    HW175473   4.657   0.057   1.587 -0.4696  0.2502 -0.0147
23212SOL    HW275474   4.646   0.119   1.725 -1.8248 -0.3973  0.1809
23213SOL     OW75475   7.126   0.759  11.472 -0.5068 -0.8221  0.2670
23213SOL    HW175476   7.101   0.809  11.550 -0.5244 -1.4570  0.6773
23213SOL    HW275477   7.214   0.728  11.490 -0.1534 -0.2109 -0.3616
23214SOL     OW75478   2.775   6.383   3.339 -0.0689 -0.1557 -0.3092
23214SOL    HW175479   2.843   6.379   3.271 -0.7673  0.9181 -1.0950
23214SOL    HW275480   2.768   6.293   3.371  1.3346 -0.3858 -0.5937
23215SOL     OW75481   1.117   4.651   2.451 -0.2708 -0.3035  0.5525
23215SOL    HW175482   1.023   4.640   2.468 -0.2055  0.3972  1.4188
23215SOL    HW275483   1.157   4.570   2.482 -0.4404 -0.0435  1.4688
23216SOL     OW75484   4.842  10.359   9.281 -0.0738  0.6447 -0.4246
23216SOL    HW175485   4.796  10.428   9.328  0.5232  1.0240 -0.3902
23216SOL    HW275486   4.903  10.405   9.224  0.0154  0.1555 -0.7305
23217SOL     OW75487   4.363   3.184   7.313 -0.8872  0.0989 -0.0754
23217SOL    HW175488   4.447   3.228   7.298 -1.5008  1.6922  0.8451
23217SOL    HW275489   4.350   3.129   7.236  1.6671 -1.3268  0.4349
23218SOL     OW75490   7.069  12.081   9.576  0.1354 -0.0920  0.0249
23218SOL    HW175491   7.150  12.095   9.626  0.2209  0.1992 -0.1865
23218SOL    HW275492   6.999  12.096   9.639  0.2359  0.7408 -0.0480
23219SOL     OW75493   0.530   1.657   2.063 -0.3004 -0.1984 -0.3854
23219SOL    HW175494   0.463   1.611   2.012 -2.2034  2.1882 -0.2517
23219SOL    HW275495   0.583   1.702   1.997 -0.6910  0.2380 -0.4101
23220SOL     OW75496   9.402  11.177   2.118  0.8051 -0.0616 -0.5205
23220SOL    HW175497   9.432  11.238   2.186  1.0146  0.0209 -0.6879
23220SOL    HW275498   9.323  11.137   2.155  0.6593  0.3206 -0.4130
23221SOL     OW75499   5.773   0.967   6.084 -0.0638 -0.4804 -0.0570
23221SOL    HW175500   5.688   0.924   6.085  0.8275 -2.3133  0.8960
23221SOL    HW275501   5.758   1.051   6.127 -1.1682 -1.2317  1.0923
23222SOL     OW75502   1.921   2.466   7.479  0.1526  0.3345 -0.4092
23222SOL    HW175503   1.960   2.398   7.534 -0.7417  1.7556  2.1700
23222SOL    HW275504   1.932   2.546   7.530 -2.0210  1.5328 -1.6954
23223SOL     OW75505  11.740   1.377   7.846  0.2583 -0.7125 -0.2172
23223SOL    HW175506  11.677   1.448   7.841  2.4874  1.5237  1.0746
23223SOL    HW275507  11.706   1.318   7.913 -1.2280 -0.4910 -0.7505
23224SOL     OW75508   3.448  10.250   3.422 -0.7460 -0.0064 -0.3753
23224SOL    HW175509   3.459  10.308   3.346  1.0737  0.8743  0.5174
23224SOL    HW275510   3.411  10.307   3.490 -1.2055 -0.5003 -0.2007
23225SOL     OW75511   3.470   7.570  11.751 -0.1885 -0.1143  0.0184
23225SOL    HW175512   3.376   7.584  11.747 -0.0953  0.2661 -1.2574
23225SOL    HW275513   3.482   7.508  11.823 -1.6258 -1.8910 -1.1853
23226SOL     OW75514   9.008   4.646   4.003  0.2069 -0.8242 -0.0768
23226SOL    HW175515   8.946   4.580   4.034  0.1064 -0.2603  0.9530
23226SOL    HW275516   9.033   4.695   4.082  0.9449 -0.1899 -0.6860
23227SOL     OW75517   4.766  11.684   1.039 -0.1387  0.0477  0.4490
23227SOL    HW175518   4.824  11.759   1.033 -0.6663  0.5815  1.7208
23227SOL    HW275519   4.820  11.615   1.078  0.0091  0.1308  0.3917
23228SOL     OW75520   3.188   4.394   0.614 -0.6340  0.0406 -0.8924
23228SOL    HW175521   3.259   4.330   0.607 -0.0930  0.5344 -0.1253
23228SOL    HW275522   3.113   4.352   0.572 -0.0567 -0.7418 -1.1669
23229SOL     OW75523   9.895  12.125  10.289 -0.4259 -0.0587  0.1190
23229SOL    HW175524   9.821  12.102  10.344 -0.4426  0.9662  0.5477
23229SOL    HW275525   9.856  12.159  10.209 -0.4206  0.3370  0.2835
23230SOL     OW75526   7.459   7.644   4.299  0.1637 -0.3396  0.5438
23230SOL    HW175527   7.373   7.676   4.326  0.0104 -1.0993  0.9970
23230SOL    HW275528   7.516   7.662   4.373  0.6885  1.2441 -0.2079
23231SOL     OW75529   1.512   6.465   7.813  0.3289  0.4099  0.0132
23231SOL    HW175530   1.558   6.546   7.836  0.2658  0.5729 -0.4252
23231SOL    HW275531   1.452   6.450   7.886 -1.1002  1.8481 -0.7888
23232SOL     OW75532   5.872   9.370   7.381  0.0958  0.3721  0.1615
23232SOL    HW175533   5.864   9.465   7.395 -1.4265  0.3958 -0.6939
23232SOL    HW275534   5.793   9.334   7.423 -1.7525 -0.0510 -3.3310
23233SOL     OW75535   8.688   9.995  10.091 -0.0236 -0.5864 -0.1508
23233SOL    HW175536   8.693  10.082  10.130 -3.4691 -0.6494  0.6985
23233SOL    HW275537   8.659  10.011  10.001 -0.9373 -0.8319  0.0895
23234SOL     OW75538   8.414   9.396   5.370 -0.4061 -0.5359  0.1870
23234SOL    HW175539   8.347   9.462   5.389 -1.1874 -1.3059  0.1677
23234SOL    HW275540   8.403   9.378   5.276  0.6152  0.1743 -0.0874
23235SOL     OW75541   4.286   3.920   2.181  0.0160  1.0484  0.3057
23235SOL    HW175542   4.358   3.977   2.154  0.5564  0.3295  0.2242
23235SOL    HW275543   4.316   3.878   2.261  0.2917 -0.3358 -0.4872
23236SOL     OW75544   1.773   1.905  11.784  0.0018 -0.0222 -0.4782
23236SOL    HW175545   1.857   1.892  11.739 -0.9899 -1.6940 -2.0094
23236SOL    HW275546   1.787   1.870  11.871  1.0121  0.1190 -0.5674
23237SOL     OW75547   2.324   1.160   7.338 -0.0501 -0.3437 -0.5498
23237SOL    HW175548   2.243   1.108   7.337 -0.5602  0.2641  1.8187
23237SOL    HW275549   2.295   1.249   7.356  1.0542  0.2257 -1.4640
23238SOL     OW75550   3.064   1.461   4.661 -0.0543 -0.4158 -0.4845
23238SOL    HW175551   2.981   1.504   4.680 -0.3685 -0.7750 -0.9986
23238SOL    HW275552   3.101   1.439   4.746  0.2662  1.1424 -0.1978
23239SOL     OW75553   0.444   4.087   4.192 -0.1642 -0.0662 -0.5043
23239SOL    HW175554   0.353   4.095   4.162 -1.5546 -1.4227  2.8393
23239SOL    HW275555   0.466   3.995   4.178 -0.4056 -0.4259  1.2262
23240SOL     OW75556   9.219   1.233   7.284  0.3729  0.0347 -0.4404
23240SOL    HW175557   9.235   1.298   7.216  2.0438  2.3656  1.9659
23240SOL    HW275558   9.306   1.201   7.308  0.0876  0.7174  1.7980
23241SOL     OW75559   8.787  11.357   4.708  0.1433  0.7436 -0.0614
23241SOL    HW175560   8.828  11.393   4.630 -0.6686  0.5833 -0.5668
23241SOL    HW275561   8.725  11.292   4.676 -0.9107  1.3688  0.6430
23242SOL     OW75562   5.409   5.678   9.011  0.2685  0.1117 -0.3731
23242SOL    HW175563   5.485   5.633   9.048 -0.0746 -0.1591  0.0108
23242SOL    HW275564   5.337   5.656   9.071  0.0618  1.0404 -0.2653
23243SOL     OW75565   3.189   7.073   9.729 -0.5837 -0.3279  0.3036
23243SOL    HW175566   3.109   7.044   9.685 -0.7141  0.6664 -0.1416
23243SOL    HW275567   3.212   7.000   9.787 -0.7930 -1.3779 -0.8926
23244SOL     OW75568   4.827   9.710   3.544  0.0540  0.4246 -0.0340
23244SOL    HW175569   4.859   9.800   3.535 -0.4520  0.8500  1.8251
23244SOL    HW275570   4.794   9.706   3.634  0.0737 -1.6351 -0.0681
23245SOL     OW75571   9.033   0.128   3.378 -0.0716  0.2813 -0.2628
23245SOL    HW175572   9.113   0.076   3.370 -0.2362 -0.0095 -0.0298
23245SOL    HW275573   9.013   0.126   3.472 -0.5884  0.0065 -0.3802
23246SOL     OW75574  11.533   1.583   1.034 -0.0643  0.2209  0.4102
23246SOL    HW175575  11.437   1.577   1.038 -0.0829 -0.3391 -0.6715
23246SOL    HW275576  11.552   1.618   0.947  0.6840  1.8754  1.1892
23247SOL     OW75577   8.367   4.498   5.341 -0.1711 -0.7232 -0.6862
23247SOL    HW175578   8.380   4.421   5.397  1.0639 -0.9018 -1.1780
23247SOL    HW275579   8.439   4.493   5.278  0.1815  1.0918 -0.4578
23248SOL     OW75580   5.475   2.348   1.103 -0.6063  0.2206 -0.1137
23248SOL    HW175581   5.476   2.398   1.021 -1.0415 -1.3618 -1.1373
23248SOL    HW275582   5.405   2.387   1.155  0.2622  1.8279 -0.0814
23249SOL     OW75583   3.013   3.501   3.464 -0.8505  0.5190  0.8708
23249SOL    HW175584   2.963   3.520   3.384 -0.5527  2.2545  1.0427
23249SOL    HW275585   3.090   3.558   3.457 -0.5419  0.2629  2.1262
23250SOL     OW75586   0.530   2.301   2.515 -0.3927  0.6137 -0.2369
23250SOL    HW175587   0.595   2.328   2.451 -0.9672 -1.3899 -1.7628
23250SOL    HW275588   0.576   2.241   2.573 -0.4661  0.5498 -0.2444
23251SOL     OW75589  11.262   0.857   7.279  0.1504 -0.4172 -0.2174
23251SOL    HW175590  11.292   0.946   7.262  0.1946 -0.5584 -0.9070
23251SOL    HW275591  11.233   0.859   7.370 -0.5459  0.5028 -0.4358
23252SOL     OW75592  11.517   7.204   9.167  0.3266  0.2229 -0.2122
23252SOL    HW175593  11.426   7.217   9.195  0.2621  0.5688 -0.5716
23252SOL    HW275594  11.514   7.210   9.071  0.6446 -0.3057 -0.2620
23253SOL     OW75595  11.777   0.225   4.402  0.4812  0.2648  0.3766
23253SOL    HW175596  11.771   0.191   4.313  0.1479  0.6965  0.2309
23253SOL    HW275597  11.866   0.258   4.410  0.5087  0.2323  0.2017
23254SOL     OW75598   2.132  10.980   4.733  0.1609  0.4061 -0.2816
23254SOL    HW175599   2.103  10.974   4.824 -0.8980  2.2387 -0.4389
23254SOL    HW275600   2.137  10.890   4.703 -1.1110 -0.1636  1.1106
23255SOL     OW75601   0.667   5.232   3.746  0.2484 -0.0498 -0.1690
23255SOL    HW175602   0.745   5.192   3.784 -0.2828 -0.8451  0.1254
23255SOL    HW275603   0.700   5.286   3.674  0.9633 -1.6369 -1.0967
23256SOL     OW75604   2.719  10.680  10.542 -0.7497 -0.0040  0.0638
23256SOL    HW175605   2.741  10.769  10.571 -0.2563 -0.2594  0.4897
23256SOL    HW275606   2.647  10.653  10.598 -1.0954  0.2375 -0.2630
23257SOL     OW75607  11.932   1.400   4.939 -0.1867 -0.5138  0.7891
23257SOL    HW175608  11.855   1.429   4.891 -0.3652 -0.2494  1.2279
23257SOL    HW275609  11.932   1.453   5.019  1.9862  1.5196 -0.4186
23258SOL     OW75610   1.651   6.165   5.309 -0.1937  0.1327  0.5078
23258SOL    HW175611   1.568   6.203   5.282  0.2464  0.3955 -0.5407
23258SOL    HW275612   1.634   6.071   5.314  0.2562 -0.3123 -3.2425
23259SOL     OW75613  11.162   8.626   8.581 -0.2509 -0.5173  0.2209
23259SOL    HW175614  11.244   8.591   8.616 -0.5859 -0.8298  0.7065
23259SOL    HW275615  11.189   8.677   8.504  0.4573 -0.1802  0.6724
23260SOL     OW75616   1.752   8.064   3.450 -0.2145 -0.3885  0.5426
23260SOL    HW175617   1.689   8.010   3.497  0.5814 -2.4990 -0.6763
23260SOL    HW275618   1.821   8.003   3.423  1.1515  1.3978 -0.2336
23261SOL     OW75619   4.657   2.895  11.726  0.0920  0.0701 -0.4321
23261SOL    HW175620   4.601   2.829  11.767 -1.1828  1.8187  0.8084
23261SOL    HW275621   4.599   2.970  11.714  1.8129  1.4262 -0.5231
23262SOL     OW75622   7.650   1.605   4.081  0.4846 -0.7640  0.1542
23262SOL    HW175623   7.675   1.531   4.136 -0.9277 -0.5350  1.1746
23262SOL    HW275624   7.557   1.619   4.101  0.6302  1.0621 -0.2464
23263SOL     OW75625  11.280  12.281   8.595  0.4228  0.3427  0.1321
23263SOL    HW175626  11.371  12.305   8.616 -0.0686  2.5427  0.0296
23263SOL    HW275627  11.231  12.363   8.607 -1.4671 -0.6776 -0.3164
23264SOL     OW75628   4.682   7.615  11.374  0.0999  0.6449  0.5103
23264SOL    HW175629   4.697   7.521  11.370 -0.3280  0.6120 -1.3238
23264SOL    HW275630   4.624   7.634  11.300 -1.4556  2.0849  1.9746
23265SOL     OW75631  11.096   9.105   7.044  0.3580  0.1212 -0.5476
23265SOL    HW175632  11.061   9.061   6.967  0.0317  0.7721 -0.7770
23265SOL    HW275633  11.146   9.037   7.090  1.5184  0.0131 -1.9187
23266SOL     OW75634   4.638   4.718   5.085  0.4001 -0.2897  0.1014
23266SOL    HW175635   4.700   4.688   5.019 -1.7720 -1.8062 -1.3423
23266SOL    HW275636   4.577   4.774   5.037  0.2322  0.6457  1.3597
23267SOL     OW75637   1.824   2.569   3.788 -0.3823  0.2118 -0.2100
23267SOL    HW175638   1.873   2.488   3.800  0.2093  0.3987 -1.2869
23267SOL    HW275639   1.878   2.623   3.731 -0.9868  1.1845  0.0928
23268SOL     OW75640  11.028   3.898   2.088 -0.2566 -0.1762 -0.7848
23268SOL    HW175641  11.116   3.860   2.083 -0.4162 -0.5200 -1.0100
23268SOL    HW275642  11.044   3.990   2.108  0.1249 -0.4157  0.0937
23269SOL     OW75643   2.365   8.938   9.407 -0.2321 -0.2214 -0.3185
23269SOL    HW175644   2.411   8.977   9.333  0.5454 -0.2920  0.1215
23269SOL    HW275645   2.358   8.845   9.385 -1.5686  0.0300 -1.0985
23270SOL     OW75646   3.400   5.724  12.192  0.7580  0.0250 -0.2489
23270SOL    HW175647   3.372   5.811  12.221  0.5444 -0.4185  0.9292
23270SOL    HW275648   3.494   5.733  12.175  1.0241  0.1564  1.2133
23271SOL     OW75649   8.240   9.434   2.747  0.1630 -0.0111 -0.3806
23271SOL    HW175650   8.273   9.346   2.766  1.1843  0.1839 -1.1172
23271SOL    HW275651   8.156   9.439   2.791 -0.6878 -1.9491 -1.6684
23272SOL     OW75652   0.807   7.532  10.061 -0.3063 -0.1109 -0.4671
23272SOL    HW175653   0.862   7.455  10.072 -0.4966 -0.1644  0.1171
23272SOL    HW275654   0.824   7.586  10.138 -1.0647 -0.1331 -0.2683
23273SOL     OW75655   8.290  11.722   5.277  0.4138  0.3802 -0.1201
23273SOL    HW175656   8.353  11.742   5.347 -0.3716  0.7739  0.4867
23273SOL    HW275657   8.250  11.807   5.257 -1.1496 -0.1216  0.7128
23274SOL     OW75658  11.791  10.291   6.828 -0.4970 -0.6138 -0.4788
23274SOL    HW175659  11.762  10.208   6.866  1.0148 -1.1221 -0.3853
23274SOL    HW275660  11.831  10.267   6.745  0.3999 -0.0506 -0.2251
23275SOL     OW75661   0.799   2.014   9.146 -0.9871 -0.1871  0.1501
23275SOL    HW175662   0.819   2.003   9.239  3.2434 -1.4063 -0.6544
23275SOL    HW275663   0.775   1.926   9.116 -0.7345 -0.1576 -0.1510
23276SOL     OW75664  11.688   2.504   3.616 -0.1672  0.1767  0.0847
23276SOL    HW175665  11.599   2.511   3.581 -0.0725 -0.6563 -0.3568
23276SOL    HW275666  11.739   2.467   3.543  0.1207 -1.2498  0.9617
23277SOL     OW75667   6.343   7.794   9.682  0.0425 -0.0424 -0.0417
23277SOL    HW175668   6.305   7.877   9.710  1.5220  0.6001  0.1906
23277SOL    HW275669   6.418   7.782   9.740  1.2715 -0.3055 -1.5965
23278SOL     OW75670   6.397   2.783   7.897 -0.2933  0.2047  0.5591
23278SOL    HW175671   6.429   2.849   7.837  2.4647 -0.5295  1.0654
23278SOL    HW275672   6.396   2.826   7.982  1.3058 -0.2507  0.8541
23279SOL     OW75673   4.384   2.870   3.531  0.5392 -0.3309  0.7595
23279SOL    HW175674   4.387   2.786   3.485 -2.5541 -0.8328  1.2619
23279SOL    HW275675   4.466   2.873   3.579  1.1114 -2.6847  0.0876
23280SOL     OW75676   1.228  10.572   4.823 -0.0261 -0.1239  0.2076
23280SOL    HW175677   1.146  10.555   4.869 -0.8117  1.3039 -0.6036
23280SOL    HW275678   1.283  10.615   4.888  0.3910 -1.7135  0.9700
23281SOL     OW75679   6.385   5.370   5.793 -0.3547  0.2851  0.6523
23281SOL    HW175680   6.381   5.444   5.733 -0.5705 -0.7860 -0.7249
23281SOL    HW275681   6.321   5.308   5.758  0.6755 -1.0490  1.0380
23282SOL     OW75682   5.368   4.477  10.963  0.6233 -0.1282  0.6683
23282SOL    HW175683   5.448   4.522  10.937 -0.1877  1.7630  1.2384
23282SOL    HW275684   5.347   4.418  10.890  2.2540 -0.3129  0.3242
23283SOL     OW75685   2.658   1.181   2.966 -0.1427  0.4145 -0.6702
23283SOL    HW175686   2.748   1.152   2.957 -0.7883 -2.2012  0.2598
23283SOL    HW275687   2.614   1.147   2.888 -0.3433  1.7148 -1.1460
23284SOL     OW75688  11.244   0.834   3.154  0.0492  0.2929  0.0329
23284SOL    HW175689  11.163   0.877   3.128  0.2984  0.6593 -0.1477
23284SOL    HW275690  11.248   0.845   3.249 -0.5196 -0.4465  0.1460
23285SOL     OW75691   8.489   3.793   7.998  0.1097 -0.0394  0.1124
23285SOL    HW175692   8.493   3.707   7.958  1.3301 -0.2775  0.6960
23285SOL    HW275693   8.548   3.787   8.073  0.3029  1.3381  0.0946
23286SOL     OW75694   2.755   2.930   5.515 -0.1479 -0.1599  0.4045
23286SOL    HW175695   2.844   2.959   5.535  0.4793 -1.9098  0.3256
23286SOL    HW275696   2.747   2.845   5.558 -0.6914 -1.4636 -2.0879
23287SOL     OW75697   4.253  12.237   5.417 -0.2858  0.2528  0.4240
23287SOL    HW175698   4.174  12.213   5.369  0.9679 -1.4624 -0.9212
23287SOL    HW275699   4.267  12.329   5.396 -2.4137  0.8760  1.4854
23288SOL     OW75700   2.423   3.913  11.728  0.7934  0.1000  0.3207
23288SOL    HW175701   2.426   4.005  11.702 -0.0181  0.5339  1.6234
23288SOL    HW275702   2.338   3.903  11.770  0.8797 -1.2494  0.2153
23289SOL     OW75703   7.876   5.614   1.690  0.7339  0.1907  0.3038
23289SOL    HW175704   7.900   5.698   1.651 -0.6584  0.0153 -1.0710
23289SOL    HW275705   7.883   5.551   1.618  0.8034 -0.7012  1.0611
23290SOL     OW75706   8.907   0.365  10.942  0.5381 -0.1612  0.1592
23290SOL    HW175707   9.000   0.348  10.929  0.4249 -0.0875 -0.8747
23290SOL    HW275708   8.864   0.321  10.868 -0.1370  0.7589 -0.0214
23291SOL     OW75709   2.982   1.897   1.386  0.7023 -0.2711  0.4705
23291SOL    HW175710   3.002   1.862   1.473  0.1804 -1.1410  0.2610
23291SOL    HW275711   3.055   1.955   1.366  0.8084 -0.0341  1.5036
23292SOL     OW75712  10.768   2.381   9.427 -0.3549 -0.3862 -0.5247
23292SOL    HW175713  10.826   2.455   9.444  0.4717 -0.3049 -3.1751
23292SOL    HW275714  10.812   2.307   9.469  0.4654  0.0961 -0.4987
23293SOL     OW75715   4.730   9.684  11.396  0.0509 -0.5078  0.0664
23293SOL    HW175716   4.674   9.634  11.335 -0.2270 -0.3998  0.2302
23293SOL    HW275717   4.818   9.652  11.378  0.1915  0.6376 -1.5109
23294SOL     OW75718   8.339   0.895   6.154  0.6390 -0.1687 -0.0366
23294SOL    HW175719   8.348   0.800   6.146 -1.4797 -0.5269  1.0618
23294SOL    HW275720   8.313   0.910   6.245 -0.2293  1.3391 -0.4852
23295SOL     OW75721  11.186   8.729   1.500  0.1702  0.1146 -0.5744
23295SOL    HW175722  11.224   8.789   1.564 -0.0639  0.2617 -0.5734
23295SOL    HW275723  11.202   8.642   1.536  1.4541  0.1183 -1.0821
23296SOL     OW75724   6.299  11.322   2.551  0.2667  0.1690  0.4127
23296SOL    HW175725   6.372  11.348   2.607  1.1151 -1.3301  0.0286
23296SOL    HW275726   6.318  11.363   2.467  1.0125 -0.7373  0.1307
23297SOL     OW75727   5.179   4.061  11.041  0.6002 -0.1976  0.5794
23297SOL    HW175728   5.105   4.040  10.984 -0.8706 -0.4628  2.4988
23297SOL    HW275729   5.233   3.981  11.040  2.0002  0.6285 -2.3197
23298SOL     OW75730   3.198   1.707  11.946 -0.3556 -0.5204 -0.0035
23298SOL    HW175731   3.133   1.774  11.925  0.4607  0.1115 -0.5856
23298SOL    HW275732   3.189   1.641  11.877  2.5387  1.7015 -2.7981
23299SOL     OW75733   3.350   8.137   5.977  0.1214 -0.1361  0.1477
23299SOL    HW175734   3.413   8.140   5.905  1.2441 -3.6563  0.8314
23299SOL    HW275735   3.401   8.160   6.055 -0.3616  0.5733  0.2727
23300SOL     OW75736   9.384   1.233  11.278  0.2096 -0.0196 -0.1727
23300SOL    HW175737   9.306   1.262  11.230  0.8912  1.7826 -0.2822
23300SOL    HW275738   9.349   1.178  11.348 -1.2527  1.2992  0.2029
23301SOL     OW75739   5.824   5.405   4.703 -0.1115 -0.0663  0.1795
23301SOL    HW175740   5.895   5.341   4.698 -0.0461 -0.0398  0.6552
23301SOL    HW275741   5.744   5.353   4.705  0.0031 -0.2578  2.3758
23302SOL     OW75742   3.891   3.781   3.853 -0.0357 -0.3791  0.1233
23302SOL    HW175743   3.876   3.729   3.774 -1.9161  0.4756 -0.1174
23302SOL    HW275744   3.889   3.872   3.823  2.4134 -0.0687  0.6715
23303SOL     OW75745   3.523   5.049   9.567  0.0515 -0.4857 -0.4686
23303SOL    HW175746   3.556   5.068   9.655 -0.0624 -1.1241 -0.2804
23303SOL    HW275747   3.568   5.111   9.510 -1.8200  1.7405  0.3547
23304SOL     OW75748   2.814   3.065   4.092 -0.2134  0.2041  0.5610
23304SOL    HW175749   2.730   3.105   4.116 -0.9156 -0.9887  0.1759
23304SOL    HW275750   2.790   2.993   4.034  0.8040 -1.9398  2.6505
23305SOL     OW75751   6.698   6.496   8.014 -0.4710 -0.0997 -0.5054
23305SOL    HW175752   6.780   6.533   8.044 -0.7509  1.0889 -1.1808
23305SOL    HW275753   6.709   6.485   7.920 -1.0092 -0.1355 -0.5669
23306SOL     OW75754  11.531   9.510   6.110 -0.1034 -0.3751  0.3079
23306SOL    HW175755  11.561   9.472   6.193  0.7164 -0.7541 -0.1424
23306SOL    HW275756  11.563   9.600   6.112  0.1227 -0.4531  0.3104
23307SOL     OW75757  11.240   9.010   6.031  0.2224 -0.5442  0.3838
23307SOL    HW175758  11.241   8.965   5.947  1.9636  1.6783 -0.8948
23307SOL    HW275759  11.169   9.074   6.024  0.1596 -0.5642  0.7688
23308SOL     OW75760   6.270   0.875   0.214  0.7242  0.1061 -0.6903
23308SOL    HW175761   6.273   0.965   0.181 -1.7622  1.2103  1.6763
23308SOL    HW275762   6.177   0.857   0.226  1.2761 -1.6785  1.5954
23309SOL     OW75763   2.085   3.397   8.493  0.4604  0.1292 -0.2463
23309SOL    HW175764   2.046   3.313   8.516  0.0995  0.4404  0.3073
23309SOL    HW275765   2.014   3.460   8.504  1.3216  0.8425  1.7474
23310SOL     OW75766  11.514   1.312   5.043 -0.0523 -0.1844 -0.0537
23310SOL    HW175767  11.453   1.381   5.016  0.7201  0.6830  0.3401
23310SOL    HW275768  11.472   1.230   5.016 -1.7007  0.3374  0.8361
23311SOL     OW75769   3.814  10.851   3.479  0.0768  0.6445 -0.0033
23311SOL    HW175770   3.779  10.937   3.456 -0.1455  0.9706  1.4666
23311SOL    HW275771   3.877  10.831   3.409  0.0398  1.9426 -0.4245
23312SOL     OW75772   4.181   7.130   3.433  0.0496  0.0426  0.0323
23312SOL    HW175773   4.142   7.148   3.518 -2.1783 -2.5392 -0.3332
23312SOL    HW275774   4.141   7.194   3.374 -0.1695  0.3360  0.4940
23313SOL     OW75775   0.290   4.377   3.677  0.4311 -0.2149 -0.0070
23313SOL    HW175776   0.242   4.344   3.752 -2.3844 -0.3232 -1.7267
23313SOL    HW275777   0.358   4.312   3.661  1.4869  0.1090  2.7036
23314SOL     OW75778   7.373   7.646   5.899  0.7524  0.1194  0.4158
23314SOL    HW175779   7.308   7.578   5.882 -0.3603  1.2212  0.1028
23314SOL    HW275780   7.455   7.598   5.914  0.8169 -1.1884 -3.2269
23315SOL     OW75781   3.550   0.759   8.195 -0.2111  0.3089  0.3243
23315SOL    HW175782   3.519   0.846   8.170 -0.8651 -0.1181 -0.4098
23315SOL    HW275783   3.528   0.703   8.120  1.8744 -0.1379 -0.0181
23316SOL     OW75784   0.056   6.878   1.080  0.6376  0.0079  0.2312
23316SOL    HW175785   0.096   6.926   1.008 -1.4948  1.0123 -0.3536
23316SOL    HW275786  -0.036   6.903   1.078  0.2316 -1.0214  2.4459
23317SOL     OW75787   7.311   7.273  12.266 -0.2693 -0.6116 -0.3773
23317SOL    HW175788   7.345   7.360  12.288 -1.1371 -0.2430 -0.4734
23317SOL    HW275789   7.387   7.215  12.272  0.3710  0.2003 -0.5768
23318SOL     OW75790   8.007  12.111   0.110 -0.0710 -0.0611  0.2016
23318SOL    HW175791   7.962  12.169   0.172 -2.2724 -0.3751 -1.0210
23318SOL    HW275792   8.041  12.169   0.043  0.4445  0.0792  0.5783
23319SOL     OW75793   4.184   3.295   8.668 -0.5352 -0.0971 -0.0541
23319SOL    HW175794   4.261   3.240   8.678  0.2038  0.5603 -1.8305
23319SOL    HW275795   4.120   3.240   8.624 -0.3591 -0.0291 -0.3971
23320SOL     OW75796   9.664   0.355   5.668  0.2140  0.0891  0.0885
23320SOL    HW175797   9.724   0.281   5.655 -0.4819 -0.7631  1.4349
23320SOL    HW275798   9.627   0.371   5.581  0.5318 -1.0169 -0.2719
23321SOL     OW75799   7.140   3.958  10.873  0.5113  0.5334  0.2325
23321SOL    HW175800   7.114   3.889  10.935  0.7010  0.0004 -0.2627
23321SOL    HW275801   7.235   3.947  10.863  0.8538  2.0145  1.4893
23322SOL     OW75802   6.348   8.561   0.988 -0.0822 -0.2013 -0.4959
23322SOL    HW175803   6.416   8.606   1.038  0.0331  1.5746 -2.1169
23322SOL    HW275804   6.387   8.549   0.901 -1.0056 -1.2904 -0.7838
23323SOL     OW75805   3.980   9.814   5.568 -0.7947 -0.0689 -0.1324
23323SOL    HW175806   3.974   9.784   5.477  0.2778 -0.0187 -0.2243
23323SOL    HW275807   3.901   9.779   5.609 -1.3145 -0.0689 -1.0850
23324SOL     OW75808   7.839   2.584   6.531 -0.0775  0.0495 -0.3657
23324SOL    HW175809   7.842   2.671   6.569 -0.5916  0.2086 -0.6687
23324SOL    HW275810   7.891   2.530   6.589 -2.4478 -0.1593  1.7256
23325SOL     OW75811   5.301   6.980   1.483 -0.1122 -0.2693  0.0464
23325SOL    HW175812   5.342   6.978   1.569  3.7423  2.6441 -1.4482
23325SOL    HW275813   5.323   6.895   1.444 -0.2187 -0.8322  1.1726
23326SOL     OW75814   0.540   1.132   0.115  0.0667 -0.6297  0.3724
23326SOL    HW175815   0.494   1.137   0.031 -1.5740 -1.8547  1.1448
23326SOL    HW275816   0.603   1.204   0.112 -0.0369 -0.5580 -1.8394
23327SOL     OW75817  12.130   8.592   1.618  0.3295  0.3588 -0.0643
23327SOL    HW175818  12.163   8.642   1.543  1.8023  0.4379  0.6158
23327SOL    HW275819  12.036   8.614   1.620  0.3903  0.8997 -1.4479
23328SOL     OW75820  11.985   4.977   2.970 -0.2487  0.5400 -0.1020
23328SOL    HW175821  12.058   5.037   2.984  1.7502 -1.4239 -1.2539
23328SOL    HW275822  11.917   5.031   2.930 -0.0966  2.7725  2.3614
23329SOL     OW75823   0.280  10.072   8.568 -0.5899 -0.3009 -0.0865
23329SOL    HW175824   0.366  10.039   8.595 -0.3578  0.4020  0.0316
23329SOL    HW275825   0.223  10.054   8.643 -0.8300 -1.8039 -0.5813
23330SOL     OW75826   6.859   9.616  10.020  0.0736  0.0360  0.0461
23330SOL    HW175827   6.788   9.644  10.078 -0.1942  0.6899 -0.5882
23330SOL    HW275828   6.927   9.584  10.080  0.2264  1.6661  0.8085
23331SOL     OW75829   1.354   7.113   7.358 -0.0549 -0.0280  0.3004
23331SOL    HW175830   1.282   7.060   7.322 -0.0485 -0.3291  0.7171
23331SOL    HW275831   1.312   7.194   7.386 -0.0762  0.1702 -0.2897
23332SOL     OW75832   9.073  11.017   0.958  0.8077  0.0570  0.5281
23332SOL    HW175833   8.985  11.023   0.996  1.3117  2.0959  1.5542
23332SOL    HW275834   9.113  10.943   1.003 -0.5347 -1.2576 -0.3517
23333SOL     OW75835   5.829   7.514   5.275 -0.0103 -0.7239 -0.3422
23333SOL    HW175836   5.832   7.444   5.339  0.1841 -0.3732  0.0377
23333SOL    HW275837   5.797   7.472   5.195  0.5080 -1.3335 -0.2396
23334SOL     OW75838   9.025   0.658   0.680  0.2128  0.3730 -0.3235
23334SOL    HW175839   8.963   0.662   0.752 -0.5977 -0.1992 -0.9639
23334SOL    HW275840   9.034   0.748   0.651  0.2883  0.5633  0.2769
23335SOL     OW75841   0.261   0.016   2.094 -0.6707 -0.3452 -0.0410
23335SOL    HW175842   0.204  -0.059   2.111 -0.9213 -0.1364  0.0373
23335SOL    HW275843   0.220   0.062   2.022 -1.5565  0.7719  1.1267
23336SOL     OW75844   2.309   7.058  10.075 -0.0095 -0.9994 -0.0611
23336SOL    HW175845   2.252   7.132  10.055 -0.5034 -1.3190  0.1495
23336SOL    HW275846   2.313   7.056  10.171 -0.8479 -1.8785 -0.0313
23337SOL     OW75847   4.747   3.720   4.285  0.0874 -0.1322  0.2154
23337SOL    HW175848   4.724   3.811   4.307  0.7372 -0.2006  1.2433
23337SOL    HW275849   4.750   3.719   4.190 -1.1641  0.6120  0.1410
23338SOL     OW75850   3.499   3.178   6.658  0.1836 -0.2424 -0.2553
23338SOL    HW175851   3.588   3.143   6.659  0.3766  0.2257 -0.8510
23338SOL    HW275852   3.443   3.100   6.662  0.6110 -0.5699 -0.5737
23339SOL     OW75853   7.520   1.078   8.398 -0.1386  0.4000 -0.5941
23339SOL    HW175854   7.458   1.012   8.429 -0.9688  0.5332 -1.8945
23339SOL    HW275855   7.567   1.105   8.477 -1.7866  0.3473  0.4668
23340SOL     OW75856   0.938   9.301  10.911 -0.0057  0.0407  0.0302
23340SOL    HW175857   0.860   9.245  10.920  0.9405 -1.0817  1.8813
23340SOL    HW275858   0.940   9.352  10.992 -0.5305  2.4707 -1.3829
23341SOL     OW75859   7.778  12.102   4.017 -0.7127 -0.0170 -0.1610
23341SOL    HW175860   7.766  12.176   3.957 -1.3001 -0.4366 -0.5723
23341SOL    HW275861   7.858  12.060   3.987 -0.2471  0.5803  0.2182
23342SOL     OW75862   6.000   4.194   9.434 -0.0446  0.0270  0.2360
23342SOL    HW175863   6.035   4.109   9.407 -2.7507 -1.1778  0.2226
23342SOL    HW275864   5.981   4.184   9.527 -1.1785  0.3196  0.0417
23343SOL     OW75865   1.454   5.924   9.252 -0.0591  0.7486  0.6220
23343SOL    HW175866   1.486   5.885   9.333  0.5588 -0.3048 -0.1003
23343SOL    HW275867   1.530   5.926   9.195 -0.6819  0.6380 -0.2347
23344SOL     OW75868  10.081   9.051   7.593 -0.2156 -0.2070 -0.6532
23344SOL    HW175869  10.126   9.052   7.509  2.0342 -1.3403  0.4563
23344SOL    HW275870  10.012   8.985   7.583 -0.0516 -0.2391 -1.6440
23345SOL     OW75871   1.300   0.764   2.623  0.3401 -0.0357  0.3843
23345SOL    HW175872   1.392   0.739   2.614  0.1040 -0.7163 -0.1268
23345SOL    HW275873   1.262   0.699   2.682  0.5173  1.0897  1.8017
23346SOL     OW75874   0.023  10.296   7.582  0.2166 -0.3196 -0.2460
23346SOL    HW175875   0.097  10.257   7.629 -0.5302  2.0549  3.2430
23346SOL    HW275876   0.062  10.345   7.510  1.7655 -1.2196 -0.0502
23347SOL     OW75877   2.829   9.133   7.384 -0.3970 -0.1281  0.0230
23347SOL    HW175878   2.856   9.047   7.415  1.8056  0.4073 -0.2894
23347SOL    HW275879   2.874   9.143   7.300  0.0841  1.6773  0.4630
23348SOL     OW75880   4.132   0.517   9.510 -0.1844  0.3178  0.2938
23348SOL    HW175881   4.174   0.479   9.587  1.0008 -0.0460 -0.5064
23348SOL    HW275882   4.048   0.550   9.542 -0.5221 -1.4500  1.3669
23349SOL     OW75883  12.276   6.837  10.934  0.3120  0.0357  0.1636
23349SOL    HW175884  12.237   6.908  10.986  0.6030  0.7765 -0.6018
23349SOL    HW275885  12.202   6.782  10.911  0.1851 -0.3519  1.4049
23350SOL     OW75886   5.728   3.550  11.658 -0.4974  0.3641  0.6783
23350SOL    HW175887   5.772   3.496  11.722 -0.8530 -0.4612  0.2439
23350SOL    HW275888   5.666   3.603  11.709 -1.1553 -0.6640  0.9728
23351SOL     OW75889   2.355  10.231   9.748  0.4014  0.3284 -0.3846
23351SOL    HW175890   2.332  10.186   9.666  0.8311 -2.6575  0.9932
23351SOL    HW275891   2.441  10.197   9.770  0.5343  1.4990  1.0480
23352SOL     OW75892  11.662   6.692   9.042  0.3537 -0.0915  0.6576
23352SOL    HW175893  11.592   6.659   9.098 -0.7835 -0.0983 -0.7061
23352SOL    HW275894  11.648   6.787   9.040 -0.4405 -0.2146 -0.6322
23353SOL     OW75895   3.657   7.445  10.086  0.7990 -0.9063 -0.3864
23353SOL    HW175896   3.745   7.463  10.118  1.1128 -0.5438 -1.3894
23353SOL    HW275897   3.618   7.531  10.071  0.5182 -1.0600 -0.5731
23354SOL     OW75898  11.529   2.723   5.193  0.1723 -0.1492 -0.1189
23354SOL    HW175899  11.533   2.744   5.099 -1.8085  2.2671  0.2277
23354SOL    HW275900  11.620   2.710   5.218  0.6742 -2.4563 -2.6333
23355SOL     OW75901   6.181   6.723   2.318 -0.4096 -0.2629 -0.5495
23355SOL    HW175902   6.143   6.810   2.309 -0.8153 -0.2693  0.8829
23355SOL    HW275903   6.123   6.666   2.269 -0.5722  0.1569 -0.8514
23356SOL     OW75904   8.665   8.410   0.324  0.2569 -0.3116 -0.6201
23356SOL    HW175905   8.644   8.477   0.389 -0.5465 -0.2817 -0.9030
23356SOL    HW275906   8.724   8.454   0.263  0.8473 -0.2773 -0.0453
23357SOL     OW75907   8.990  11.167   7.501 -1.2294  0.4029 -0.9563
23357SOL    HW175908   9.065  11.129   7.456 -0.4746  1.1536 -0.3674
23357SOL    HW275909   8.915  11.117   7.469 -0.7298  0.8812 -3.0204
23358SOL     OW75910   3.110  10.791   1.325 -0.7998 -0.0249 -0.0679
23358SOL    HW175911   3.117  10.777   1.230 -0.1124 -1.7479  0.1896
23358SOL    HW275912   3.016  10.802   1.341 -1.1483 -1.6234 -0.7676
23359SOL     OW75913   2.980   9.091   9.725  0.2161 -0.1778 -0.6220
23359SOL    HW175914   2.954   9.171   9.680  0.5954 -0.1966 -0.8770
23359SOL    HW275915   2.898   9.045   9.743 -0.1293  0.8644  0.6683
23360SOL     OW75916   5.983   7.551   5.759  0.3254  0.0349 -0.3140
23360SOL    HW175917   6.053   7.572   5.821 -0.7931  0.9786  0.6695
23360SOL    HW275918   5.966   7.633   5.714 -1.3759  0.3026  0.7466
23361SOL     OW75919   3.147   7.618   0.361  0.4308  0.0649 -0.3253
23361SOL    HW175920   3.100   7.535   0.371  0.2405  0.1299 -0.6699
23361SOL    HW275921   3.224   7.608   0.417  0.7639 -0.6106 -0.8793
23362SOL     OW75922   3.869   6.808   1.934  0.0864  0.5112 -0.2302
23362SOL    HW175923   3.864   6.848   2.020  0.6732  1.3068 -0.5493
23362SOL    HW275924   3.779   6.782   1.914  0.2921 -1.8687  1.5970
23363SOL     OW75925  10.852   8.650  11.629 -0.3467  0.3354  0.5578
23363SOL    HW175926  10.815   8.694  11.553 -0.5915 -1.2820 -0.2968
23363SOL    HW275927  10.794   8.674  11.701 -1.1100  0.5217 -0.1073
23364SOL     OW75928   6.529   3.368   5.590 -0.4204 -0.0730  0.2891
23364SOL    HW175929   6.622   3.346   5.591 -0.6541 -1.1751  1.7648
23364SOL    HW275930   6.526   3.462   5.610  0.3871  0.1359 -0.5127
23365SOL     OW75931   5.735   7.662   5.564 -0.0707 -1.1351  0.2653
23365SOL    HW175932   5.807   7.689   5.507  0.2958 -1.0583  0.7593
23365SOL    HW275933   5.754   7.571   5.586 -1.4819 -1.9582 -1.6729
23366SOL     OW75934   0.979   8.259   4.734 -0.0358 -0.1652  0.1001
23366SOL    HW175935   1.020   8.340   4.764  1.5709 -0.5036 -1.0541
23366SOL    HW275936   1.035   8.228   4.663 -1.8417 -1.1364 -0.9964
23367SOL     OW75937  11.895   6.248   1.142  0.5667  0.6428  0.0425
23367SOL    HW175938  11.802   6.226   1.133  0.9345 -1.1776  0.4130
23367SOL    HW275939  11.895   6.338   1.175 -1.0996  0.2342  1.2686
23368SOL     OW75940   3.220  11.323   1.913  0.5362 -0.4266 -0.1510
23368SOL    HW175941   3.210  11.382   1.987  0.8374  0.3161 -0.6909
23368SOL    HW275942   3.269  11.374   1.848  3.7180 -2.2429  0.5731
23369SOL     OW75943   2.653  12.081   9.624  0.3512  0.2377  0.7123
23369SOL    HW175944   2.590  12.153   9.635  1.1654  0.6492  3.4897
23369SOL    HW275945   2.601  12.002   9.638 -0.8842 -0.0248 -3.8490
23370SOL     OW75946   5.132  11.171   0.780  0.2133  0.7468  0.5286
23370SOL    HW175947   5.196  11.243   0.779 -0.0955  1.0203 -0.2606
23370SOL    HW275948   5.087  11.179   0.864 -0.5598  2.1400  0.0029
23371SOL     OW75949   9.832   7.437  11.778 -0.0575 -0.1784 -0.0416
23371SOL    HW175950   9.840   7.393  11.694  0.4336  0.2412 -0.2175
23371SOL    HW275951   9.876   7.521  11.766  0.5679 -0.3716  0.8243
23372SOL     OW75952   6.131   8.004   2.839  0.1291  0.1651 -0.0194
23372SOL    HW175953   6.177   7.925   2.812  0.3198  0.3605 -0.2779
23372SOL    HW275954   6.199   8.072   2.837 -0.0406  0.3406  0.1664
23373SOL     OW75955   1.403  12.042   7.177 -0.0974  0.1997  0.5494
23373SOL    HW175956   1.371  12.060   7.088 -0.1524  1.4760  0.8184
23373SOL    HW275957   1.330  11.997   7.219 -0.1788 -0.1518  0.0541
23374SOL     OW75958   3.579   8.670   9.638  0.3968  0.3557 -0.0854
23374SOL    HW175959   3.506   8.695   9.694 -1.2680 -2.3948 -0.8260
23374SOL    HW275960   3.551   8.691   9.549  0.4002 -0.8267 -0.3879
23375SOL     OW75961   8.140   6.909   1.683  0.1521  0.3796  0.3715
23375SOL    HW175962   8.206   6.954   1.630  0.6958  0.5874  1.2039
23375SOL    HW275963   8.106   6.977   1.742  0.5022 -0.1311  1.1853
23376SOL     OW75964   0.703  10.346   4.399 -0.0194  0.1125  0.9423
23376SOL    HW175965   0.679  10.362   4.308 -0.6109  0.0536  1.0848
23376SOL    HW275966   0.683  10.427   4.444  1.0739  0.4401  0.8780
23377SOL     OW75967   5.730   0.528   9.116  0.0666 -0.3403 -0.6193
23377SOL    HW175968   5.729   0.434   9.132 -1.8472 -0.1574  0.7219
23377SOL    HW275969   5.638   0.551   9.099 -0.0484  1.6929  2.0413
23378SOL     OW75970   5.423  10.601  10.242 -0.2573 -0.5514  0.2760
23378SOL    HW175971   5.462  10.596  10.329 -1.3504 -0.1616  0.8106
23378SOL    HW275972   5.451  10.521  10.198 -1.5101 -1.8993  1.7729
23379SOL     OW75973   4.731   3.673   1.292 -0.4831 -0.4304  0.0581
23379SOL    HW175974   4.660   3.737   1.282  0.3184  0.6463  1.0543
23379SOL    HW275975   4.811   3.724   1.281  0.1773 -1.7389 -1.6648
23380SOL     OW75976  11.045   4.032   1.763 -0.0101  0.5991  0.2952
23380SOL    HW175977  11.136   4.020   1.791 -0.1413 -0.4300  0.3260
23380SOL    HW275978  11.025   4.122   1.786  1.4964  1.3512 -1.1424
23381SOL     OW75979   7.081  10.480  12.039  0.3348  0.2134  0.0491
23381SOL    HW175980   7.081  10.473  12.134  0.9430  0.1266  0.0440
23381SOL    HW275981   6.999  10.524  12.018  0.0240 -0.1025  0.5864
23382SOL     OW75982   6.389   0.368   1.930 -0.2447  0.4146  0.0104
23382SOL    HW175983   6.434   0.292   1.966  0.9797  0.3416 -1.5968
23382SOL    HW275984   6.439   0.443   1.964  0.1244  0.3952 -0.4855
23383SOL     OW75985   3.528   8.321   4.851  0.0025  0.4598 -0.0728
23383SOL    HW175986   3.490   8.266   4.920  0.7789 -0.0047  0.0026
23383SOL    HW275987   3.507   8.275   4.770  2.2761 -1.0338  0.0947
23384SOL     OW75988  12.142   8.154   0.814 -0.3783  0.0422 -0.0616
23384SOL    HW175989  12.189   8.143   0.731 -0.5447  1.9011 -0.4540
23384SOL    HW275990  12.170   8.081   0.868  0.4326 -0.7017 -1.4475
23385SOL     OW75991   4.995   2.425   2.480 -0.2577  0.5410 -0.2043
23385SOL    HW175992   4.986   2.456   2.390 -1.8292  0.0625 -0.2366
23385SOL    HW275993   4.954   2.339   2.480  2.3401 -0.7849  0.3213
23386SOL     OW75994   2.416   1.318   5.012 -0.3915 -0.2623 -0.4752
23386SOL    HW175995   2.382   1.305   5.101 -0.2326  1.1229 -0.1888
23386SOL    HW275996   2.481   1.248   5.002  0.9005  0.6176  1.2073
23387SOL     OW75997   7.769  10.920   3.515 -0.7984  0.5810  0.1288
23387SOL    HW175998   7.826  10.911   3.439 -2.1398 -0.7033 -0.7633
23387SOL    HW275999   7.796  10.848   3.573  0.5650  1.8548  1.1568
23388SOL     OW76000  11.970   2.606   4.136  0.0030  0.8227 -0.1313
23388SOL    HW176001  12.055   2.648   4.149 -0.2503  1.5002 -0.5846
23388SOL    HW276002  11.961   2.547   4.211  0.2197  1.8591  0.7502
23389SOL     OW76003   6.714   2.917   6.541 -0.0251 -0.0581  0.2479
23389SOL    HW176004   6.670   2.886   6.462  1.6507 -0.9174 -0.3904
23389SOL    HW276005   6.707   2.844   6.603 -2.4503  1.0620  1.4461
23390SOL     OW76006   0.062   7.052   9.960 -0.5859 -0.1299  0.0715
23390SOL    HW176007  -0.033   7.043   9.945 -0.8220 -0.4770  1.6610
23390SOL    HW276008   0.086   6.974  10.008  0.0840  0.9771  1.5944
23391SOL     OW76009   4.065   3.438   3.701 -0.2592 -0.0148  0.1396
23391SOL    HW176010   4.161   3.443   3.691 -0.2405 -0.0864  0.2849
23391SOL    HW276011   4.051   3.360   3.755 -0.4231 -0.2551 -0.2426
23392SOL     OW76012   8.000   9.883  11.789  0.5645 -0.8039 -0.1743
23392SOL    HW176013   7.954   9.905  11.708 -0.7103 -0.0427  0.7158
23392SOL    HW276014   7.968   9.796  11.812  1.0127 -1.0668 -0.5470
23393SOL     OW76015  12.123   6.081   7.371  0.1092  0.2869 -0.4447
23393SOL    HW176016  12.171   6.006   7.405  0.9026  0.6213 -0.8023
23393SOL    HW276017  12.183   6.121   7.307 -2.1634 -1.7525 -4.2105
23394SOL     OW76018   6.859   1.104   3.244 -0.3119 -0.7580 -0.3781
23394SOL    HW176019   6.885   1.195   3.259 -0.2193 -0.7611 -0.5098
23394SOL    HW276020   6.767   1.100   3.271  0.0576 -0.9525  0.9001
23395SOL     OW76021   0.357   2.760   5.607 -0.0720 -0.2620 -0.4544
23395SOL    HW176022   0.395   2.845   5.588  0.4211 -0.6522 -1.2648
23395SOL    HW276023   0.429   2.698   5.594 -0.4344 -0.8098  0.0758
23396SOL     OW76024   9.652  10.193   5.641 -0.0361 -0.3507 -0.0758
23396SOL    HW176025   9.730  10.246   5.657  0.1005 -0.5767  0.0164
23396SOL    HW276026   9.618  10.173   5.728  1.4716 -2.7204  0.0623
23397SOL     OW76027  10.818   3.898   7.364  0.3373  0.4644  0.3249
23397SOL    HW176028  10.738   3.845   7.363  0.5466  0.1401 -0.1011
23397SOL    HW276029  10.800   3.969   7.425 -0.8026  1.1978 -0.8082
23398SOL     OW76030  11.010   5.237  11.314 -0.6971  0.4753  0.3596
23398SOL    HW176031  10.940   5.214  11.253 -1.9757  0.0344  1.9481
23398SOL    HW276032  10.998   5.177  11.388  1.3095  0.4580  0.7183
23399SOL     OW76033   5.658   8.946   5.052  0.0506  0.1359  0.5229
23399SOL    HW176034   5.668   8.877   5.118  2.0161 -0.8419 -0.7084
23399SOL    HW276035   5.609   8.904   4.981  3.1111 -0.8307 -1.1856
23400SOL     OW76036  10.007  11.903   5.101 -0.1651 -0.5981 -0.1941
23400SOL    HW176037   9.926  11.854   5.086  0.2921 -1.9707  1.4725
23400SOL    HW276038  10.070  11.864   5.040 -0.1722 -1.1526  0.1442
23401SOL     OW76039   8.922   1.461   3.206  0.0518 -0.0342 -0.3362
23401SOL    HW176040   8.836   1.500   3.221 -0.0252 -0.5736  0.6872
23401SOL    HW276041   8.972   1.530   3.162 -0.5099  0.7290  0.1931
23402SOL     OW76042  12.030  11.673   8.840  0.8161  0.4069 -0.0918
23402SOL    HW176043  11.982  11.753   8.857 -0.5535 -0.2658 -0.6585
23402SOL    HW276044  12.119  11.702   8.817  0.5789  1.6919  0.5544
23403SOL     OW76045   0.294   9.803   6.304 -0.7199 -0.5484  0.3235
23403SOL    HW176046   0.203   9.784   6.327 -1.0915  0.1045 -0.5784
23403SOL    HW276047   0.305   9.768   6.216 -0.5705  0.7525 -0.1956
23404SOL     OW76048   2.234   1.383   7.471  0.1186  0.3438  0.7657
23404SOL    HW176049   2.261   1.432   7.549  2.2716 -1.9669  1.5916
23404SOL    HW276050   2.258   1.439   7.398 -0.6516  1.9496  1.6697
23405SOL     OW76051   6.552   5.151   3.617 -0.1204 -0.4469  0.2728
23405SOL    HW176052   6.578   5.180   3.529  1.1225  2.2100  1.3896
23405SOL    HW276053   6.457   5.162   3.619 -0.4582 -2.5166 -1.3238
23406SOL     OW76054   4.343   2.217   8.960 -0.0217 -0.1776  0.7101
23406SOL    HW176055   4.373   2.306   8.976  0.0214 -0.2575  1.1076
23406SOL    HW276056   4.364   2.200   8.868 -1.4907  0.7764  0.1656
23407SOL     OW76057   5.271   1.781   8.069  0.1703 -0.2007 -0.0086
23407SOL    HW176058   5.220   1.718   8.120  1.0962  0.5118  1.9385
23407SOL    HW276059   5.248   1.764   7.978 -1.5680 -1.5806  0.6336
23408SOL     OW76060   8.131  10.346   7.311 -0.3743  0.1113  0.2056
23408SOL    HW176061   8.086  10.339   7.227 -2.1325 -1.4112  1.1900
23408SOL    HW276062   8.219  10.375   7.289 -0.5219 -1.0667 -2.2402
23409SOL     OW76063  10.717  11.649   9.289 -0.1629  0.3673  0.3821
23409SOL    HW176064  10.634  11.636   9.336 -0.7843  0.9756 -0.5313
23409SOL    HW276065  10.693  11.645   9.197  1.2297 -2.1078  0.0343
23410SOL     OW76066   9.383  11.389   1.896  0.0040 -0.0710  0.3934
23410SOL    HW176067   9.308  11.372   1.839 -1.0573 -1.1091  2.0184
23410SOL    HW276068   9.349  11.445   1.965  1.4765  1.8844 -0.3768
23411SOL     OW76069   4.034  11.616   6.595 -0.2018 -0.2442 -0.1581
23411SOL    HW176070   3.958  11.666   6.627 -1.3484 -2.2541  0.4207
23411SOL    HW276071   4.001  11.570   6.518  0.6060 -0.7476 -0.2089
23412SOL     OW76072   5.444   8.073   9.991 -0.0134 -0.1957  0.0070
23412SOL    HW176073   5.496   7.993   9.995 -0.7957 -0.7662 -0.8723
23412SOL    HW276074   5.354   8.043   9.995 -0.3518  0.5442 -1.4184
23413SOL     OW76075   1.226   3.206   9.328  0.9532 -0.0801  0.3244
23413SOL    HW176076   1.197   3.207   9.419 -1.9811 -0.7241 -0.4930
23413SOL    HW276077   1.240   3.298   9.306 -2.8679  0.6485  0.2476
23414SOL     OW76078   3.544   3.857   5.809  0.3668 -0.5295  0.0320
23414SOL    HW176079   3.448   3.861   5.801  0.1720  0.4558  2.0996
23414SOL    HW276080   3.576   3.875   5.721 -1.3491  0.6657 -0.4063
23415SOL     OW76081   9.087   9.444   0.389  0.4026 -0.2251  0.0694
23415SOL    HW176082   9.066   9.478   0.302  1.8301 -2.4676 -1.2593
23415SOL    HW276083   9.021   9.483   0.446 -0.4213  1.5621 -1.9374
23416SOL     OW76084   9.829  11.009   3.645  0.3645 -0.0736 -0.2428
23416SOL    HW176085   9.855  11.080   3.586  3.9633 -0.2792  0.8105
23416SOL    HW276086   9.880  10.934   3.615  1.0836 -0.5928  2.0649
23417SOL     OW76087   2.207   2.380   0.376  0.3072  0.5716  0.5488
23417SOL    HW176088   2.300   2.396   0.357  0.0555  0.9766 -0.3629
23417SOL    HW276089   2.160   2.429   0.309 -0.5276 -1.8784 -0.7595
23418SOL     OW76090  11.420   2.671   9.357  0.1890  0.4138 -0.1278
23418SOL    HW176091  11.378   2.690   9.441 -0.2655 -1.9570  0.2729
23418SOL    HW276092  11.510   2.649   9.379  0.2967  0.6000 -0.3734
23419SOL     OW76093   0.260  11.094   7.700 -0.5119 -0.3155 -0.1490
23419SOL    HW176094   0.169  11.084   7.672 -0.7385 -0.9395  0.7996
23419SOL    HW276095   0.268  11.038   7.776  0.6965 -0.3166 -0.2697
23420SOL     OW76096   9.081   1.799   9.843  0.2713  0.5492  0.2227
23420SOL    HW176097   9.129   1.877   9.815 -0.1921  1.0691  0.8367
23420SOL    HW276098   9.149   1.737   9.869  0.6760  0.3788 -1.1792
23421SOL     OW76099   2.413   7.124   4.636 -0.0381 -0.1162  0.1565
23421SOL    HW176100   2.462   7.178   4.574 -2.0168  3.3136  1.3073
23421SOL    HW276101   2.345   7.082   4.584  0.8833 -0.6646 -0.6144
23422SOL     OW76102   4.051  11.722   3.167  0.2482  0.3718 -0.3267
23422SOL    HW176103   4.083  11.777   3.096  0.7310 -1.0260 -1.2420
23422SOL    HW276104   4.024  11.641   3.124  1.1942 -0.7832  1.1360
23423SOL     OW76105   8.979   0.068   3.641  0.1619  0.1026 -0.3649
23423SOL    HW176106   8.892   0.108   3.635 -0.0300  0.2226  2.1121
23423SOL    HW276107   8.962  -0.025   3.656  0.5413 -0.2569 -1.9760
23424SOL     OW76108   0.203   0.195   1.042 -0.2941  0.3345 -0.4281
23424SOL    HW176109   0.154   0.123   1.001  0.3166 -0.3064 -0.0459
23424SOL    HW276110   0.208   0.261   0.973 -1.5509  0.3530 -0.5312
23425SOL     OW76111  11.219   8.101   4.886 -0.5418 -0.2990 -0.8852
23425SOL    HW176112  11.257   8.015   4.903 -1.3786 -0.5071  0.0367
23425SOL    HW276113  11.125   8.087   4.897 -0.5345  1.2586  1.7532
23426SOL     OW76114   9.059  10.873   9.726 -0.5589 -1.4293  0.0779
23426SOL    HW176115   9.066  10.959   9.769 -1.1873 -0.8620 -0.9138
23426SOL    HW276116   9.037  10.813   9.797 -0.0168 -0.7933  0.8063
23427SOL     OW76117   6.705  10.423   1.970 -0.4472  0.2692 -0.0045
23427SOL    HW176118   6.736  10.360   2.035 -1.5104  0.2151  0.4649
23427SOL    HW276119   6.715  10.378   1.886 -0.5201 -0.2588  0.2650
23428SOL     OW76120   6.548   3.434   6.421 -0.1702  0.1852  0.4947
23428SOL    HW176121   6.604   3.509   6.439 -1.7777  1.3018  1.1417
23428SOL    HW276122   6.521   3.446   6.330 -0.2217  0.2583  0.5192
23429SOL     OW76123   0.249   9.358   5.394 -0.4743 -0.4925  0.1602
23429SOL    HW176124   0.297   9.368   5.476  0.3805 -0.8827 -0.2764
23429SOL    HW276125   0.279   9.432   5.340 -0.8853 -0.3463  0.1303
23430SOL     OW76126   9.771   6.591   5.799  0.5456  0.3224 -0.6574
23430SOL    HW176127   9.831   6.663   5.818 -1.1688  1.3251  1.4230
23430SOL    HW276128   9.825   6.512   5.806  1.7050  1.1998  0.7424
23431SOL     OW76129   8.215   8.847  12.043  0.5979  0.1180  0.2207
23431SOL    HW176130   8.173   8.773  12.087  0.4019  0.7858  1.2032
23431SOL    HW276131   8.217   8.822  11.951 -2.4347  0.2079  0.0119
23432SOL     OW76132   8.610   4.374   6.515 -0.5074  0.6755  0.5432
23432SOL    HW176133   8.684   4.434   6.524  0.0876  0.2011 -0.9471
23432SOL    HW276134   8.616   4.317   6.591  1.4959 -0.2235 -0.2350
23433SOL     OW76135   7.247   3.361   8.321 -0.2723  0.0358 -0.1463
23433SOL    HW176136   7.313   3.386   8.256 -0.0543 -1.6063 -0.5867
23433SOL    HW276137   7.224   3.444   8.364 -0.3806  1.1617 -2.2487
23434SOL     OW76138   8.436   8.050   4.560  0.4116 -0.3423  0.1613
23434SOL    HW176139   8.530   8.046   4.541  0.8558  1.9767  1.5580
23434SOL    HW276140   8.425   7.999   4.640  0.7343  0.4591  0.7294
23435SOL     OW76141   1.794   5.549   4.148  0.3148  0.3112  1.0509
23435SOL    HW176142   1.781   5.579   4.238 -1.0540  0.1819  0.9148
23435SOL    HW276143   1.881   5.508   4.149  0.0602 -0.2483  2.4699
23436SOL     OW76144   7.191   4.422  11.990  0.4066  0.0283  0.1241
23436SOL    HW176145   7.206   4.423  11.896 -0.1748  0.9970  0.0217
23436SOL    HW276146   7.278   4.430  12.029  0.5441  1.2451 -0.3764
23437SOL     OW76147   7.508   2.608   8.856  0.0462 -0.2136  0.1973
23437SOL    HW176148   7.484   2.524   8.896 -1.1927 -0.8793 -1.7921
23437SOL    HW276149   7.521   2.667   8.930 -0.7414 -1.7257  1.6025
23438SOL     OW76150   6.628  10.407   1.177 -0.5043 -0.8553  0.0645
23438SOL    HW176151   6.569  10.482   1.168  0.2933 -0.4283 -2.7519
23438SOL    HW276152   6.571  10.331   1.181 -1.2733 -0.2975 -0.0989
23439SOL     OW76153   8.207   1.996   6.413 -0.1327 -0.2242 -0.0459
23439SOL    HW176154   8.194   1.932   6.343 -0.6032  0.0370 -0.2020
23439SOL    HW276155   8.271   1.955   6.472  0.6800 -0.2162 -0.9070
23440SOL     OW76156  11.276   9.055   2.410  0.0337 -0.4537 -0.2150
23440SOL    HW176157  11.304   9.050   2.319 -0.3434  0.4867 -0.3889
23440SOL    HW276158  11.232   8.971   2.426 -0.2771 -0.4528 -1.0251
23441SOL     OW76159   6.426  12.146   6.648 -0.1072  0.4231 -0.0403
23441SOL    HW176160   6.386  12.232   6.640  0.0024  0.5064  0.2631
23441SOL    HW276161   6.520  12.162   6.635  0.2616  0.7769  2.4644
23442SOL     OW76162   5.458   3.902   8.423 -0.0209 -0.0310  0.4053
23442SOL    HW176163   5.429   3.993   8.430  0.5627  0.1543  0.5026
23442SOL    HW276164   5.540   3.900   8.471 -0.1875 -0.6851  0.6622
23443SOL     OW76165   1.799  10.578   4.193  0.2657 -0.3011 -0.1238
23443SOL    HW176166   1.775  10.490   4.221  2.4663 -0.7611  0.4751
23443SOL    HW276167   1.859  10.565   4.120 -0.1295  0.7485 -0.6671
23444SOL     OW76168   5.653   8.944   3.232 -0.0419  0.0360  0.2518
23444SOL    HW176169   5.684   8.989   3.153  1.4538 -2.1788 -0.5468
23444SOL    HW276170   5.585   8.885   3.200 -0.0039 -0.2870  0.7596
23445SOL     OW76171   5.087   5.678  12.118  0.3164  0.2448  0.0287
23445SOL    HW176172   5.129   5.672  12.032  0.3479  1.2211 -0.0343
23445SOL    HW276173   5.042   5.763  12.117  1.6662  1.0358  1.5679
23446SOL     OW76174   7.543   4.285  10.935 -0.4217 -0.3378 -0.4847
23446SOL    HW176175   7.589   4.328  11.007 -0.9351 -0.0673 -0.3172
23446SOL    HW276176   7.586   4.200  10.926  0.0493 -0.1208 -0.2702
23447SOL     OW76177   0.838   4.646   6.751 -0.2353 -0.6599 -0.7798
23447SOL    HW176178   0.769   4.705   6.721 -0.2062  1.1403  2.2635
23447SOL    HW276179   0.887   4.625   6.672 -1.3518  1.9784 -2.3237
23448SOL     OW76180   5.050   9.480   6.288 -0.4460  0.1823  0.0999
23448SOL    HW176181   4.991   9.418   6.246  0.8665  0.0038 -1.5897
23448SOL    HW276182   5.001   9.563   6.289 -1.5246 -0.4320  0.7545
23449SOL     OW76183   1.823   5.916   4.659 -0.0362  0.5574  0.3145
23449SOL    HW176184   1.829   5.897   4.752 -0.0527 -1.2490 -0.0067
23449SOL    HW276185   1.913   5.905   4.626 -0.4228 -1.3412 -0.2606
23450SOL     OW76186   3.069  10.897   7.556  0.2708  0.3615  0.3804
23450SOL    HW176187   3.058  10.846   7.476 -0.6620  0.5188  0.3985
23450SOL    HW276188   3.157  10.875   7.587 -0.3501 -1.8287  0.7670
23451SOL     OW76189   4.092   4.980   4.890  0.4802  0.4374  0.2460
23451SOL    HW176190   4.179   5.015   4.875 -0.2908  2.0927 -0.6823
23451SOL    HW276191   4.034   5.056   4.884 -0.9768 -0.5237  1.4090
23452SOL     OW76192   6.720   3.039   3.714 -0.2785 -0.4062 -0.6064
23452SOL    HW176193   6.766   2.968   3.669 -0.0364 -0.1381 -0.7879
23452SOL    HW276194   6.696   3.003   3.799  0.6734 -0.4036 -0.3267
23453SOL     OW76195   4.699   2.572   0.781  0.2423  0.1612 -0.1306
23453SOL    HW176196   4.752   2.517   0.838 -0.5695 -1.9933 -1.3212
23453SOL    HW276197   4.727   2.547   0.692 -0.5146  1.3285 -0.7138
23454SOL     OW76198   8.416   3.945   5.694  0.3915 -0.0655  0.3580
23454SOL    HW176199   8.505   3.915   5.708  1.1448  0.5310 -2.4532
23454SOL    HW276200   8.420   4.040   5.701  0.1557  0.0151 -0.4667
23455SOL     OW76201   0.469   5.099   6.237 -0.3523 -0.0766 -0.3655
23455SOL    HW176202   0.385   5.056   6.216 -0.4804  0.9528 -2.1729
23455SOL    HW276203   0.524   5.028   6.270 -1.1672 -1.2707 -1.4592
23456SOL     OW76204   8.369   1.912  11.769 -0.0511  0.3665 -0.5501
23456SOL    HW176205   8.455   1.893  11.806 -0.8393  0.7646  1.6335
23456SOL    HW276206   8.360   1.852  11.695  0.6825 -2.2257  1.3593
23457SOL     OW76207   2.584   7.491   7.341 -0.0720 -0.5047  0.1378
23457SOL    HW176208   2.662   7.543   7.324 -0.3748  0.0785  0.4852
23457SOL    HW276209   2.615   7.417   7.393  0.1342  0.1711  1.0107
23458SOL     OW76210   8.547   7.905   3.500  0.4486  0.3641  0.4447
23458SOL    HW176211   8.516   7.817   3.523  0.2008  0.2687 -0.2330
23458SOL    HW276212   8.468   7.952   3.472  0.8842  0.0678 -1.4481
23459SOL     OW76213   6.902  11.559  10.287  0.1157  0.7723 -0.0835
23459SOL    HW176214   6.835  11.513  10.338  2.1709  0.3624  2.4820
23459SOL    HW276215   6.866  11.646  10.273 -1.2982  0.3069  0.4537
23460SOL     OW76216  11.540  10.705   6.632  0.3528 -0.4216  0.3285
23460SOL    HW176217  11.593  10.723   6.709  2.1441  1.1603 -1.1603
23460SOL    HW276218  11.461  10.758   6.644  0.6639 -0.0983  1.0225
23461SOL     OW76219   9.185   2.383   4.608 -0.0506 -0.0946 -0.3340
23461SOL    HW176220   9.225   2.350   4.688 -0.6917  0.6738  0.3156
23461SOL    HW276221   9.111   2.325   4.592  1.4856 -1.7749 -1.7655
23462SOL     OW76222  11.953   1.919   0.661 -0.0061  0.4507  0.2702
23462SOL    HW176223  11.935   2.005   0.697 -0.9335  0.2646  0.2821
23462SOL    HW276224  12.048   1.916   0.650 -0.0742  2.0387 -1.1470
23463SOL     OW76225   7.669   8.572   0.286  0.1315  0.2657 -0.3752
23463SOL    HW176226   7.676   8.662   0.317 -0.1203  0.4362 -0.8011
23463SOL    HW276227   7.664   8.519   0.365  0.8236  0.5796 -0.1126
23464SOL     OW76228   6.290   8.859   8.467 -0.1569 -0.4856  0.2194
23464SOL    HW176229   6.235   8.846   8.390 -0.0053  0.8602 -0.1398
23464SOL    HW276230   6.242   8.922   8.521  0.4640 -0.2155  0.4719
23465SOL     OW76231   3.667  10.202   3.112 -0.3743 -0.1018 -0.1879
23465SOL    HW176232   3.681  10.287   3.152 -0.0484 -0.5320  0.6376
23465SOL    HW276233   3.582  10.209   3.069 -0.7825  0.3443  0.6683
23466SOL     OW76234   5.098   0.148  10.872  0.3388 -0.1036 -0.8253
23466SOL    HW176235   5.031   0.151  10.803 -3.0357 -3.6135  1.8492
23466SOL    HW276236   5.141   0.064  10.860 -0.4155 -0.8444  1.2978
23467SOL     OW76237  10.414   7.526   2.137 -0.4416 -0.0847 -0.4345
23467SOL    HW176238  10.432   7.595   2.073  0.8150 -0.7693 -0.8269
23467SOL    HW276239  10.327   7.549   2.172 -0.6259  0.9465 -1.5133
23468SOL     OW76240   6.737   7.217   5.637 -0.2481  0.6000 -0.0055
23468SOL    HW176241   6.749   7.289   5.699  1.6817 -1.5280  2.3128
23468SOL    HW276242   6.658   7.172   5.667  1.8235 -1.6888  2.4982
23469SOL     OW76243   0.821   8.590   3.108 -0.0164  0.4808 -0.0428
23469SOL    HW176244   0.914   8.587   3.128  0.3630  4.2747 -0.4776
23469SOL    HW276245   0.779   8.546   3.182  1.9997  1.8769  2.0811
23470SOL     OW76246   6.359   1.528   1.740  0.4849  0.0042  0.1779
23470SOL    HW176247   6.384   1.620   1.736  2.5383 -0.3791  2.1325
23470SOL    HW276248   6.343   1.503   1.648 -1.0507  2.4776 -0.2963
23471SOL     OW76249   7.728   8.921   9.240  0.1005 -0.1241 -0.6686
23471SOL    HW176250   7.643   8.929   9.198 -0.0718 -1.2794 -0.5764
23471SOL    HW276251   7.764   9.010   9.240 -0.4956  0.1338 -1.9740
23472SOL     OW76252   8.011   2.125   1.238  0.1830 -0.4001  0.0359
23472SOL    HW176253   8.091   2.159   1.278 -0.1656 -1.5588  1.8492
23472SOL    HW276254   7.950   2.113   1.311 -0.7590 -1.9429 -0.9197
23473SOL     OW76255   9.797  10.942   8.739  0.3087 -0.5293 -0.4340
23473SOL    HW176256   9.742  10.940   8.818  0.9705 -0.3892  0.0387
23473SOL    HW276257   9.878  10.985   8.767  0.9846 -1.4533 -0.9180
23474SOL     OW76258   7.118   1.261   4.047  0.2463 -0.1396  0.0711
23474SOL    HW176259   7.061   1.276   3.972  0.9723  0.4870 -0.3681
23474SOL    HW276260   7.175   1.190   4.021  0.7159  0.2955 -0.1059
23475SOL     OW76261   7.931   2.980   1.802  0.0780 -0.5819 -0.3416
23475SOL    HW176262   8.006   2.923   1.786  0.8360 -0.1408  1.3254
23475SOL    HW276263   7.968   3.068   1.801 -0.5498 -0.3121 -0.1672
23476SOL     OW76264   9.311   5.869   2.240  0.5089 -0.1331 -0.2175
23476SOL    HW176265   9.217   5.886   2.231  0.1587 -1.1958  1.0649
23476SOL    HW276266   9.321   5.843   2.332  1.8713 -1.1909 -0.6447
23477SOL     OW76267   8.649   9.193   8.719  0.5388  0.1266 -0.2087
23477SOL    HW176268   8.694   9.259   8.666  1.3193 -0.2814 -0.0747
23477SOL    HW276269   8.708   9.177   8.792 -1.2531  1.9017  1.7440
23478SOL     OW76270   2.966  10.027  10.118  0.6697 -0.1580  0.0914
23478SOL    HW176271   2.987   9.977  10.039  0.5179  0.4468 -0.3379
23478SOL    HW276272   2.987  10.118  10.096 -1.0404  0.2757  0.1336
23479SOL     OW76273   0.207   3.233  10.582 -0.4011 -0.5230  0.4589
23479SOL    HW176274   0.188   3.143  10.609 -0.0885 -0.8729 -0.4546
23479SOL    HW276275   0.300   3.244  10.600  0.1368 -1.2056 -1.5991
23480SOL     OW76276   4.976   6.289   6.615  0.1280  1.0186  0.7856
23480SOL    HW176277   5.001   6.201   6.645  0.3715  0.5124 -0.7921
23480SOL    HW276278   5.047   6.345   6.645  1.4726  0.1654 -0.6133
23481SOL     OW76279   8.619  11.976  11.370  0.1029 -0.6802  0.4160
23481SOL    HW176280   8.548  12.035  11.346  0.4388  0.0037  1.0688
23481SOL    HW276281   8.604  11.956  11.462  0.3688 -1.0862  0.3742
23482SOL     OW76282  12.237   9.083   0.574  0.4475 -0.0010  0.3716
23482SOL    HW176283  12.183   9.005   0.564  2.7124 -1.8024  1.4271
23482SOL    HW276284  12.209   9.121   0.658 -1.1976  0.8511 -0.5110
23483SOL     OW76285  12.287   4.969  10.888 -0.2626 -0.1892  0.0721
23483SOL    HW176286  12.277   4.904  10.957 -1.1196 -0.0738  0.0720
23483SOL    HW276287  12.197   4.986  10.858 -0.0397  0.8270 -0.0741
23484SOL     OW76288   7.675   0.822  11.021  0.2567  0.1950  0.1122
23484SOL    HW176289   7.686   0.790  10.931 -1.7655 -1.1060  0.2694
23484SOL    HW276290   7.764   0.839  11.051  0.9705  1.0695 -2.2587
23485SOL     OW76291   2.768   9.400  10.591 -0.2266 -0.3947  0.1658
23485SOL    HW176292   2.805   9.488  10.594 -0.2107 -0.3385  4.8939
23485SOL    HW276293   2.842   9.345  10.563  0.4875  0.7696 -0.3278
23486SOL     OW76294   8.051   8.909  11.558 -0.3002 -0.5546  0.0180
23486SOL    HW176295   8.016   8.987  11.601 -3.2293 -1.4412 -0.5305
23486SOL    HW276296   8.092   8.942  11.478  0.4780  0.5982  0.8640
23487SOL     OW76297   8.540   0.411  10.698  0.3433 -0.1037 -0.1331
23487SOL    HW176298   8.462   0.462  10.676 -1.1322 -1.5193  1.5292
23487SOL    HW276299   8.586   0.464  10.762  1.4630  1.2868 -1.9962
23488SOL     OW76300   0.331   1.151   6.007 -0.0340  0.1634 -0.2244
23488SOL    HW176301   0.349   1.115   6.094  0.9179 -0.6106 -0.7155
23488SOL    HW276302   0.411   1.133   5.957 -1.5320 -1.8718 -2.0678
23489SOL     OW76303   1.763   4.527   9.898  0.2759  0.4305  0.0706
23489SOL    HW176304   1.702   4.505   9.827  1.4970  1.3751 -1.3308
23489SOL    HW276305   1.770   4.622   9.894  1.9440  0.3290  0.0907
23490SOL     OW76306   1.917  12.175   5.881 -0.6249  0.2953  0.3480
23490SOL    HW176307   1.893  12.182   5.789  0.5840 -2.6305 -0.3206
23490SOL    HW276308   1.835  12.156   5.927 -0.9613 -0.1671 -0.4303
23491SOL     OW76309   1.506   4.203   1.373 -0.3235  0.0495  0.0289
23491SOL    HW176310   1.588   4.197   1.422 -0.6856 -1.3582  0.5266
23491SOL    HW276311   1.443   4.155   1.427 -0.4332 -2.8452 -2.4086
23492SOL     OW76312  11.250   3.455   2.037  0.1246 -0.3338 -0.5600
23492SOL    HW176313  11.324   3.427   1.983 -0.2130  0.3620 -1.3974
23492SOL    HW276314  11.197   3.509   1.979  0.8040  2.1730  0.9858
23493SOL     OW76315   9.483   4.116   2.027 -0.3365  0.1048  0.0220
23493SOL    HW176316   9.487   4.029   2.067  0.7027 -0.6175 -1.5413
23493SOL    HW276317   9.573   4.149   2.032 -0.4847  0.5984 -0.4523
23494SOL     OW76318  11.845   3.679   3.354 -0.2575  0.4110 -0.0614
23494SOL    HW176319  11.763   3.729   3.355 -1.2129 -0.9902 -2.0397
23494SOL    HW276320  11.906   3.734   3.305 -1.1167 -0.0294 -1.6989
23495SOL     OW76321   3.185   5.125   3.173 -0.7288  0.1409  0.1570
23495SOL    HW176322   3.118   5.185   3.206  0.6774  1.1006  1.4599
23495SOL    HW276323   3.241   5.181   3.118  0.4530 -0.0125  1.1762
23496SOL     OW76324   0.398   0.375   0.283  0.2860  0.1453 -0.1485
23496SOL    HW176325   0.331   0.419   0.231  0.4044 -1.4830 -1.7758
23496SOL    HW276326   0.374   0.394   0.374 -0.2520  2.5972 -0.7349
23497SOL     OW76327   1.596   7.067   7.067 -0.6820  0.2246  0.3020
23497SOL    HW176328   1.591   7.033   7.156 -0.6398 -0.1337  0.1683
23497SOL    HW276329   1.524   7.024   7.021  1.3594 -2.3234 -0.7530
23498SOL     OW76330   7.272  10.326   5.629 -0.5417 -0.1662 -0.4917
23498SOL    HW176331   7.225  10.334   5.546  1.6664  0.3184 -1.7871
23498SOL    HW276332   7.309  10.238   5.626 -0.3754 -0.1098 -0.0588
23499SOL     OW76333   8.555   0.699   7.368 -0.2904  0.0220  0.6601
23499SOL    HW176334   8.512   0.784   7.381 -0.7096 -0.1651  0.5005
23499SOL    HW276335   8.523   0.668   7.283  1.4571  0.6494 -0.2686
23500SOL     OW76336   0.451   8.848   7.812  0.2359  0.1119 -0.4924
23500SOL    HW176337   0.441   8.795   7.891  0.2371 -0.0658 -0.6084
23500SOL    HW276338   0.530   8.899   7.826 -0.6448  1.3041  0.3131
23501SOL     OW76339   9.024   2.763   3.890 -0.2813  0.0371 -0.7728
23501SOL    HW176340   8.970   2.769   3.969 -0.1028 -2.5584 -0.3556
23501SOL    HW276341   9.105   2.809   3.913 -0.0343 -1.0630  0.8093
23502SOL     OW76342   4.124   5.281   5.148  0.6140  0.4317 -0.1174
23502SOL    HW176343   4.074   5.237   5.080  1.2093  2.1844 -1.7916
23502SOL    HW276344   4.214   5.251   5.135  0.7309  0.7828 -0.1377
23503SOL     OW76345   2.884   0.051   5.690 -0.0193 -0.2639 -0.3403
23503SOL    HW176346   2.855   0.096   5.769  0.5100 -0.5241  0.0104
23503SOL    HW276347   2.968   0.093   5.669 -0.4831  0.2798 -1.1682
23504SOL     OW76348   8.511   7.010   1.756 -0.3685 -0.5087 -0.5301
23504SOL    HW176349   8.433   7.044   1.712 -0.7920 -0.5954  0.1214
23504SOL    HW276350   8.476   6.945   1.818  0.2363 -0.6213 -0.2994
23505SOL     OW76351   7.339  11.278   4.543  0.2106 -0.7603 -0.4441
23505SOL    HW176352   7.339  11.330   4.462  0.6838 -0.3411 -0.1842
23505SOL    HW276353   7.253  11.293   4.581  0.2634 -0.3317 -0.4822
23506SOL     OW76354   0.165   0.839   3.513  0.6402 -0.6388  0.6912
23506SOL    HW176355   0.240   0.788   3.544  0.5708 -1.0361  0.2250
23506SOL    HW276356   0.165   0.918   3.567  1.9524 -0.1871  0.0711
23507SOL     OW76357   8.755   8.107  11.421  0.3452 -0.1223  0.4656
23507SOL    HW176358   8.678   8.057  11.395  1.5255 -3.0827  2.1159
23507SOL    HW276359   8.824   8.076  11.363  1.2115 -0.9048  1.8454
23508SOL     OW76360   1.320  11.876  10.116  0.1795 -0.6507 -0.1884
23508SOL    HW176361   1.236  11.858  10.158  0.7639 -0.0348  1.3118
23508SOL    HW276362   1.375  11.913  10.186  1.2585  0.2410 -1.4489
23509SOL     OW76363   6.135   3.782   2.728 -0.3032 -0.2032 -0.5014
23509SOL    HW176364   6.148   3.829   2.646 -1.6411  1.1280 -0.0131
23509SOL    HW276365   6.206   3.719   2.732  0.8263  0.9234 -1.8246
23510SOL     OW76366   1.902   4.205   1.802  0.2878  0.0673  0.3252
23510SOL    HW176367   1.843   4.132   1.783 -0.3439  0.1123  1.9376
23510SOL    HW276368   1.862   4.279   1.756  0.3603 -0.3679 -0.4655
23511SOL     OW76369   8.979   2.954   3.034 -0.2613 -0.1267  0.3883
23511SOL    HW176370   8.943   3.020   3.094 -0.6274  0.9825 -1.0077
23511SOL    HW276371   9.071   2.945   3.062 -0.9441 -1.2450  2.4584
23512SOL     OW76372   5.722  12.030   5.616  0.3249 -0.4681  0.1072
23512SOL    HW176373   5.762  11.978   5.546 -0.9268 -0.8076 -0.3808
23512SOL    HW276374   5.696  12.112   5.574 -1.9079 -1.3015 -0.2801
23513SOL     OW76375   6.977   5.030   8.387 -0.2354 -0.0729  0.1679
23513SOL    HW176376   7.060   5.056   8.347 -0.3081  1.8167  1.1061
23513SOL    HW276377   6.986   4.936   8.403  2.4430  0.3392  1.7774
23514SOL     OW76378   4.314   4.255   0.237 -0.3835  0.6728  0.0574
23514SOL    HW176379   4.235   4.210   0.207 -1.3533  0.6362  2.4466
23514SOL    HW276380   4.361   4.278   0.156 -0.5957 -3.1478 -1.3500
23515SOL     OW76381   5.107   5.510  11.788 -0.3914  0.4721  0.4515
23515SOL    HW176382   5.160   5.432  11.807 -0.0283  0.3274 -1.0644
23515SOL    HW276383   5.023   5.493  11.830 -0.7953 -1.3834 -0.9952
23516SOL     OW76384   0.545   5.446   4.991 -0.1216 -0.7150  0.3275
23516SOL    HW176385   0.604   5.502   5.041  1.5093  0.4401 -2.6665
23516SOL    HW276386   0.457   5.472   5.020  0.5513  3.2990 -0.6301
23517SOL     OW76387   5.924   4.491   7.323  0.1114 -0.0212 -0.4616
23517SOL    HW176388   5.972   4.487   7.240 -1.9028  0.9739 -1.7543
23517SOL    HW276389   5.854   4.427   7.313 -1.3206  1.4729 -0.3647
23518SOL     OW76390  11.595   3.829   5.113 -0.2906  0.2181  0.1926
23518SOL    HW176391  11.648   3.756   5.147 -0.3832  0.2265  0.3584
23518SOL    HW276392  11.505   3.805   5.136 -0.3735  0.1460 -0.1932
23519SOL     OW76393   4.357   8.804   3.288 -0.6176  0.0200 -0.2209
23519SOL    HW176394   4.425   8.817   3.354  1.0754 -0.5492 -1.7920
23519SOL    HW276395   4.280   8.848   3.325  0.7587  1.2750  1.3117
23520SOL     OW76396   6.253  10.729  12.266  0.2963  0.2647 -0.2793
23520SOL    HW176397   6.232  10.821  12.284 -1.0969 -0.1615  0.4788
23520SOL    HW276398   6.201  10.708  12.188  0.1413 -0.0231 -0.1014
23521SOL     OW76399   6.067   4.755   0.508 -0.1921  0.0760 -0.1163
23521SOL    HW176400   6.006   4.685   0.530  0.3477  0.0042  1.2620
23521SOL    HW276401   6.146   4.735   0.559  0.3854  1.0516 -0.5961
23522SOL     OW76402  11.390   7.502   0.658 -0.1552 -0.1973 -0.1517
23522SOL    HW176403  11.346   7.483   0.575  0.8998 -1.1661 -0.5059
23522SOL    HW276404  11.460   7.563   0.635  0.0342 -0.3377  0.0516
23523SOL     OW76405   4.382  10.036   1.032  0.1492 -0.1736  0.0748
23523SOL    HW176406   4.452   9.989   1.078 -0.8995 -0.6552  1.2250
23523SOL    HW276407   4.410  10.036   0.941  1.7250 -0.2265  0.5280
23524SOL     OW76408   4.273   8.480  10.520 -0.2718 -0.7196  0.0964
23524SOL    HW176409   4.186   8.489  10.479  0.0661 -0.2304 -0.5436
23524SOL    HW276410   4.258   8.499  10.612 -0.8439 -0.6105 -0.0117
23525SOL     OW76411   0.401  11.161   0.984  0.3262 -0.0864 -0.6251
23525SOL    HW176412   0.339  11.232   0.970  1.3556  0.6718 -1.5124
23525SOL    HW276413   0.404  11.149   1.079 -0.4622  0.4983 -0.5204
23526SOL     OW76414   5.031   4.158   5.739 -0.3701 -0.0895  0.1470
23526SOL    HW176415   4.994   4.245   5.754  0.1066  0.3513 -1.1449
23526SOL    HW276416   5.109   4.156   5.795  0.4248  0.8825 -0.8646
23527SOL     OW76417   7.416  11.874  10.467 -0.1412  0.3926  0.0356
23527SOL    HW176418   7.350  11.838  10.408  0.6954 -1.4727  0.1408
23527SOL    HW276419   7.407  11.822  10.547  1.5798 -0.0773 -0.0403
23528SOL     OW76420   0.752   5.374   9.305 -0.4584  0.5376 -0.0725
23528SOL    HW176421   0.747   5.469   9.302 -0.6388  0.5533  0.5948
23528SOL    HW276422   0.749   5.347   9.213 -2.8606  1.0568 -0.2035
23529SOL     OW76423   1.436   6.162   7.846 -0.5837 -0.0261  0.2823
23529SOL    HW176424   1.484   6.207   7.776 -1.2666  2.5598  1.3371
23529SOL    HW276425   1.345   6.161   7.816 -1.4842  3.9314  2.2075
23530SOL     OW76426   3.536   1.478   7.024  0.0568  0.3060 -0.2281
23530SOL    HW176427   3.467   1.459   6.961 -0.4219 -0.6788  0.5692
23530SOL    HW276428   3.490   1.510   7.101  0.4999 -0.2141  0.2580
23531SOL     OW76429  10.723   8.979   3.350 -0.1905  0.5608  0.2725
23531SOL    HW176430  10.807   9.014   3.321 -0.3429  1.5996  1.0191
23531SOL    HW276431  10.711   9.016   3.437 -0.6023 -0.9897  0.9086
23532SOL     OW76432   5.453   1.879   4.008  0.5920  0.2156  0.2390
23532SOL    HW176433   5.447   1.954   3.949 -3.1213  1.2253  1.6468
23532SOL    HW276434   5.363   1.862   4.035  1.4810 -3.6595  1.4434
23533SOL     OW76435   3.064   8.175  10.753  0.5016 -0.3816  0.1986
23533SOL    HW176436   3.058   8.211  10.841  0.7374  0.1857 -0.0143
23533SOL    HW276437   3.150   8.203  10.721  1.8916 -3.3306  0.9957
23534SOL     OW76438   1.493  11.157   6.258 -0.3256  0.5739  0.2158
23534SOL    HW176439   1.521  11.117   6.340 -0.3240 -0.3962 -0.2441
23534SOL    HW276440   1.564  11.217   6.236 -0.0171  0.3578  0.5900
23535SOL     OW76441   9.790   9.871   3.773 -0.7406 -0.7629  0.9333
23535SOL    HW176442   9.698   9.900   3.777 -0.1458  1.2896  0.6576
23535SOL    HW276443   9.836   9.929   3.833  0.7083 -0.3920 -0.4772
23536SOL     OW76444   0.549   4.311   9.025 -0.0903  0.2461 -0.6213
23536SOL    HW176445   0.518   4.359   8.948  0.9728  0.4178 -0.9630
23536SOL    HW276446   0.568   4.380   9.090  1.5458  0.3442 -1.1526
23537SOL     OW76447   6.049   7.772   1.002  0.3281 -0.5993  0.3328
23537SOL    HW176448   5.969   7.723   0.984 -0.7963  1.4195 -0.4807
23537SOL    HW276449   6.059   7.768   1.097 -0.0765 -1.8321  0.3399
23538SOL     OW76450   7.297  11.466  10.366  0.4213  0.1704 -0.3152
23538SOL    HW176451   7.250  11.392  10.404 -2.3069  2.0247  0.2273
23538SOL    HW276452   7.383  11.463  10.406 -0.4251 -1.3359  1.5359
23539SOL     OW76453   7.909   8.687  11.218 -0.4418  0.2917 -0.3772
23539SOL    HW176454   7.824   8.729  11.234 -0.6933 -1.0795  2.5156
23539SOL    HW276455   7.973   8.758  11.228 -1.0676  0.6800  1.1711
23540SOL     OW76456   0.400  12.011   0.838 -0.0500  0.2695 -0.7769
23540SOL    HW176457   0.383  12.050   0.924  1.1381 -0.5379 -0.1581
23540SOL    HW276458   0.466  12.068   0.798  0.2829 -0.0389 -0.6629
23541SOL     OW76459   3.119   9.613   6.410 -0.1837  0.3614  0.0877
23541SOL    HW176460   3.160   9.529   6.393 -0.4536  0.0329  0.9901
23541SOL    HW276461   3.136   9.629   6.503 -0.7316  0.9695  0.0887
23542SOL     OW76462  11.997   8.312  10.105 -0.5321 -0.6100 -0.2152
23542SOL    HW176463  11.966   8.222  10.097 -0.1066 -0.6581 -1.5093
23542SOL    HW276464  11.981   8.335  10.197 -1.0780 -1.8348  0.0118
23543SOL     OW76465   0.254   3.393   6.423  0.1023  0.0838  0.3393
23543SOL    HW176466   0.198   3.465   6.453 -2.1123 -1.8069  1.0102
23543SOL    HW276467   0.257   3.404   6.328  0.0282  1.2248  0.4539
23544SOL     OW76468   1.219   9.193   1.602 -0.7922  0.4365 -0.4353
23544SOL    HW176469   1.305   9.208   1.641 -0.9368  0.2929 -0.0542
23544SOL    HW276470   1.159   9.245   1.656 -0.9287  0.6131 -0.7577
23545SOL     OW76471  10.202  11.063   7.342 -0.1069  0.0081  0.3141
23545SOL    HW176472  10.146  11.045   7.267 -0.4046 -0.4129  0.6328
23545SOL    HW276473  10.273  10.999   7.337 -0.3619 -0.3016  0.6292
23546SOL     OW76474   5.855   4.602   0.623 -0.2074  0.1707 -0.6719
23546SOL    HW176475   5.811   4.626   0.704  0.9712 -1.7983  0.6592
23546SOL    HW276476   5.784   4.577   0.564 -1.0335 -1.0069  0.7245
23547SOL     OW76477   2.331   7.619   5.990  0.2958  0.1019 -0.6124
23547SOL    HW176478   2.387   7.695   6.006  0.0103  0.4829 -1.3492
23547SOL    HW276479   2.276   7.646   5.916 -0.6734 -0.3696 -0.0677
23548SOL     OW76480   4.629   6.355  11.762  0.3671  0.8087  0.6347
23548SOL    HW176481   4.717   6.322  11.780  0.3879  1.0788  1.0410
23548SOL    HW276482   4.637   6.450  11.769  0.5400  1.0105 -1.5782
23549SOL     OW76483   7.336   6.485   3.961  0.3697  0.4781 -0.2216
23549SOL    HW176484   7.355   6.391   3.958 -1.9140 -0.0147 -1.4529
23549SOL    HW276485   7.421   6.526   3.977  1.2528 -1.8285  1.4726
23550SOL     OW76486  11.727   0.568   8.590  0.3327 -0.2324 -0.0130
23550SOL    HW176487  11.808   0.614   8.610 -0.3470  0.1933  2.0652
23550SOL    HW276488  11.744   0.477   8.614  0.3090 -0.2242  0.0340
23551SOL     OW76489   3.244   6.178  10.091  0.2992  0.1546 -0.5822
23551SOL    HW176490   3.311   6.144  10.151  0.4343  0.5503 -0.5033
23551SOL    HW276491   3.292   6.198  10.011  0.0317 -0.8431 -1.0026
23552SOL     OW76492   7.240   7.490   0.163  0.3044  0.0997  0.5168
23552SOL    HW176493   7.192   7.569   0.190  1.2732  0.9943 -0.2902
23552SOL    HW276494   7.175   7.438   0.117 -0.2734  0.5811  0.7682
23553SOL     OW76495   5.512   5.031   8.465 -0.3664  0.0509 -0.6706
23553SOL    HW176496   5.567   5.098   8.425  0.4080  0.7461  1.3949
23553SOL    HW276497   5.423   5.066   8.458 -0.4782 -0.5391 -2.9883
23554SOL     OW76498  11.158   5.566  12.213 -0.8289 -0.0307 -0.5414
23554SOL    HW176499  11.205   5.645  12.184 -3.1558  2.1045  1.0813
23554SOL    HW276500  11.222   5.517  12.264  0.4399  1.2695 -0.8172
23555SOL     OW76501   5.409  10.404   4.556 -0.3487  0.4838  0.5049
23555SOL    HW176502   5.495  10.445   4.549  0.0697 -0.5639 -0.8118
23555SOL    HW276503   5.348  10.472   4.529  0.0963  1.0916  0.9925
23556SOL     OW76504  11.964  11.959  10.664 -0.3664 -0.1710 -0.2047
23556SOL    HW176505  12.023  11.897  10.620  0.5590  0.5973 -0.0936
23556SOL    HW276506  11.988  12.044  10.626  0.1769  0.4601  1.4688
23557SOL     OW76507   6.659  10.913   2.755 -0.3479  0.0008  0.4119
23557SOL    HW176508   6.750  10.885   2.761 -0.0909  0.7236  0.0177
23557SOL    HW276509   6.658  11.001   2.793 -1.0992 -0.4310  1.4605
23558SOL     OW76510   8.883   2.698   8.125 -0.5019  0.1363 -0.3831
23558SOL    HW176511   8.971   2.732   8.116 -0.6855  1.1688  1.2466
23558SOL    HW276512   8.830   2.774   8.147 -1.8402 -0.4474 -1.4345
23559SOL     OW76513   4.266   0.828   3.674  0.2769  0.4498  0.0985
23559SOL    HW176514   4.299   0.910   3.712 -0.0717  0.8730 -0.4980
23559SOL    HW276515   4.345   0.775   3.660  0.4024  0.1904  1.5830
23560SOL     OW76516   8.026   7.276   7.767 -0.5535 -0.2590  0.0610
23560SOL    HW176517   8.005   7.365   7.795 -0.3440 -0.0811 -0.3421
23560SOL    HW276518   7.970   7.261   7.691 -1.0766 -0.7191  0.5237
23561SOL     OW76519   7.733   8.152   6.544 -0.0164  0.6012  0.1222
23561SOL    HW176520   7.761   8.129   6.632 -1.3043  2.1007  0.9638
23561SOL    HW276521   7.641   8.126   6.540  0.1561  0.0969 -0.9627
23562SOL     OW76522   9.821   7.529   3.992  0.4789 -0.0306  0.0838
23562SOL    HW176523   9.885   7.475   4.039  1.9519 -0.5380 -2.3390
23562SOL    HW276524   9.872   7.605   3.962 -0.8848  1.2542  0.8899
23563SOL     OW76525   9.610   1.893  11.358  0.0886 -0.0475 -0.3991
23563SOL    HW176526   9.661   1.954  11.305  1.1873 -1.5617 -1.1570
23563SOL    HW276527   9.639   1.806  11.330 -1.7139 -0.9546  0.3374
23564SOL     OW76528   8.061   0.761   3.789 -0.3359 -0.2617 -0.2258
23564SOL    HW176529   7.986   0.808   3.823  0.4442  1.1940 -0.4465
23564SOL    HW276530   8.134   0.788   3.844  0.4225  0.0245 -1.3317
23565SOL     OW76531   2.658   9.823   9.291  0.3495  0.2209  0.3787
23565SOL    HW176532   2.609   9.746   9.319 -0.0042  0.6672  1.0169
23565SOL    HW276533   2.634   9.834   9.199 -0.1190 -0.0397  0.4667
23566SOL     OW76534   7.496  11.748   4.293  0.0938  0.0394 -0.4143
23566SOL    HW176535   7.541  11.833   4.288 -0.5834  0.6203  1.8581
23566SOL    HW276536   7.539  11.703   4.366  0.4825 -1.6529 -1.6360
23567SOL     OW76537   3.057  10.637  11.969 -0.1432  0.5479 -0.6130
23567SOL    HW176538   3.135  10.662  12.019  0.5390 -1.5172 -0.5838
23567SOL    HW276539   2.992  10.614  12.035 -0.0372  0.1367 -0.6497
23568SOL     OW76540   1.665   7.829   6.617 -0.5496  0.2179  0.0844
23568SOL    HW176541   1.575   7.802   6.596 -0.5315  0.5330 -0.4125
23568SOL    HW276542   1.694   7.878   6.540  0.0290  0.1712  0.2676
23569SOL     OW76543   3.948   2.341   9.275  0.0611  1.0323 -0.4022
23569SOL    HW176544   3.906   2.282   9.338  0.1203  1.4501  0.0326
23569SOL    HW276545   4.015   2.287   9.233  0.9738  1.1200  0.8908
23570SOL     OW76546   4.909  11.645   9.059  0.3767 -0.0112 -0.5808
23570SOL    HW176547   4.992  11.671   9.020  0.7417 -0.7133 -0.2857
23570SOL    HW276548   4.846  11.707   9.023  1.1931  1.1968  0.0023
23571SOL     OW76549   2.706   2.208   9.839 -0.0634  0.1632  0.1402
23571SOL    HW176550   2.770   2.147   9.876  1.3343 -0.9410 -3.6033
23571SOL    HW276551   2.624   2.158   9.838 -0.0344  0.0734  1.2673
23572SOL     OW76552   6.171   9.066   7.243 -0.4014 -0.6311 -0.7038
23572SOL    HW176553   6.265   9.069   7.224 -0.3420 -1.5138 -0.5868
23572SOL    HW276554   6.135   9.139   7.192  0.5863  0.9992  0.8318
23573SOL     OW76555   7.280   5.860   2.626  0.6761 -0.7991  0.4073
23573SOL    HW176556   7.188   5.838   2.611  0.5399  0.6259 -1.0338
23573SOL    HW276557   7.328   5.784   2.593  0.0521 -1.0595  0.0776
23574SOL     OW76558   9.815   6.727  12.154 -0.1737  0.3161  0.2741
23574SOL    HW176559   9.813   6.718  12.059 -0.9349 -0.4818  0.3561
23574SOL    HW276560   9.863   6.808  12.170 -0.6296  0.8094 -0.8127
23575SOL     OW76561   5.229   6.440   1.793  0.0177 -0.0410  0.3980
23575SOL    HW176562   5.150   6.448   1.739  1.3398  3.6304 -1.3031
23575SOL    HW276563   5.250   6.530   1.818  2.1035 -1.1852  3.2365
23576SOL     OW76564   1.314   5.212   5.361  0.1919 -0.3464 -0.5659
23576SOL    HW176565   1.280   5.123   5.373  0.9707 -0.3386  2.1633
23576SOL    HW276566   1.313   5.250   5.448  2.5740  1.3428 -1.1841
23577SOL     OW76567   9.696   0.772   0.221 -0.5043 -0.0133  0.2039
23577SOL    HW176568   9.644   0.706   0.174  0.2235 -0.1625 -0.4031
23577SOL    HW276569   9.708   0.736   0.308  1.1354 -1.3945 -0.5424
23578SOL     OW76570  11.051   2.492   5.949  0.3659 -0.3238  0.3625
23578SOL    HW176571  10.988   2.423   5.929  1.2081 -0.9975 -0.0189
23578SOL    HW276572  11.130   2.467   5.903  1.2470 -0.0364  1.6579
23579SOL     OW76573   4.349   3.715   9.314  0.4668  0.2749  0.8259
23579SOL    HW176574   4.358   3.794   9.367  0.6438 -0.1097  1.3886
23579SOL    HW276575   4.362   3.643   9.377  2.0944 -0.1877  0.0321
23580SOL     OW76576  10.289   9.911   7.717 -0.3237  0.2592  0.5506
23580SOL    HW176577  10.374   9.950   7.737  0.0709 -1.0397  1.5253
23580SOL    HW276578  10.308   9.844   7.651 -0.6725  0.2831  0.4200
23581SOL     OW76579   6.050   7.471   9.190  0.7736 -0.6914  0.0597
23581SOL    HW176580   6.133   7.465   9.142 -0.6071 -1.4420 -2.4022
23581SOL    HW276581   5.991   7.516   9.130 -0.6248 -0.1241  1.7835
23582SOL     OW76582   6.335   5.329   7.699 -0.1862  0.1465  0.6495
23582SOL    HW176583   6.244   5.344   7.674 -0.2304 -0.7120  0.2836
23582SOL    HW276584   6.349   5.387   7.775 -0.6255  1.3180 -0.1279
23583SOL     OW76585   8.558   1.438  10.924 -0.3161  0.3727  0.2815
23583SOL    HW176586   8.570   1.404  11.013  1.3619  1.3399  0.4735
23583SOL    HW276587   8.646   1.438  10.886 -1.0623 -0.4119 -1.5640
23584SOL     OW76588   0.261  10.412   9.816 -0.5217 -0.2775 -0.8746
23584SOL    HW176589   0.239  10.452   9.900  4.1226  1.8670 -0.3649
23584SOL    HW276590   0.276  10.320   9.836 -0.6841 -0.0416  0.3989
23585SOL     OW76591  12.329  10.545   0.531 -0.4292  0.1132 -0.2521
23585SOL    HW176592  12.405  10.515   0.482 -1.5153 -1.3890 -1.1076
23585SOL    HW276593  12.327  10.640   0.517  0.4622 -0.0153 -1.4135
23586SOL     OW76594  12.016   9.755   5.244 -0.2461  0.1108  0.1469
23586SOL    HW176595  11.988   9.841   5.213  0.0575 -1.0751 -4.0982
23586SOL    HW276596  12.090   9.773   5.301  0.9000  2.6811 -1.9536
23587SOL     OW76597   5.491   0.812  11.560 -0.3247  0.5706 -0.2981
23587SOL    HW176598   5.439   0.738  11.529  1.5902 -1.1885  0.4120
23587SOL    HW276599   5.429   0.867  11.607 -1.9261 -0.3102 -1.2941
23588SOL     OW76600   5.736   1.570  11.502 -0.5437 -0.2790 -0.4481
23588SOL    HW176601   5.752   1.534  11.589 -0.6611 -1.1255 -0.7691
23588SOL    HW276602   5.677   1.507  11.460  2.1236 -1.7127 -2.3290
23589SOL     OW76603   3.567   2.522   1.955  1.0198 -0.2478 -0.1378
23589SOL    HW176604   3.487   2.474   1.976  1.3571 -0.9458 -0.3732
23589SOL    HW276605   3.636   2.455   1.960  1.4976  0.2062 -0.5335
23590SOL     OW76606   3.232   4.056   1.138 -0.0530 -0.1515  0.2768
23590SOL    HW176607   3.240   3.984   1.075  0.6054  1.6897 -1.8918
23590SOL    HW276608   3.321   4.086   1.152 -0.4596  1.9477 -1.0838
23591SOL     OW76609   2.377  12.201   1.537  0.5051  0.3211 -0.3263
23591SOL    HW176610   2.381  12.283   1.487 -0.8744 -0.4392 -1.7816
23591SOL    HW276611   2.298  12.209   1.589 -1.0141 -0.9892 -2.2916
23592SOL     OW76612   2.016   7.011   8.859 -0.2366  0.2597  0.1476
23592SOL    HW176613   1.948   6.974   8.804 -0.3572 -1.2539  1.2553
23592SOL    HW276614   2.056   7.079   8.805 -1.8141  0.3581 -0.9565
23593SOL     OW76615   6.436   8.861   1.610 -0.2780  0.4124 -0.2131
23593SOL    HW176616   6.496   8.883   1.682  0.5845 -0.7977 -0.5377
23593SOL    HW276617   6.438   8.938   1.553 -0.8894  1.3499  0.9678
23594SOL     OW76618   3.345   4.562   6.129 -0.0105  0.4058  0.2762
23594SOL    HW176619   3.259   4.604   6.122 -0.3229 -0.3346 -0.4646
23594SOL    HW276620   3.338   4.505   6.205  0.3250  1.4457  1.1180
23595SOL     OW76621   9.253   6.844  11.386 -0.0882  0.2466  0.0468
23595SOL    HW176622   9.283   6.918  11.438 -0.4064  1.0688 -0.8880
23595SOL    HW276623   9.248   6.879  11.297 -0.3632 -0.8751 -0.3914
23596SOL     OW76624   7.433   5.620   2.102  0.7902 -0.1182  0.4409
23596SOL    HW176625   7.501   5.622   2.034  0.1263  2.6799 -0.2426
23596SOL    HW276626   7.367   5.561   2.067  0.7329  0.8191 -1.1106
23597SOL     OW76627  10.793   3.801   4.987 -0.1896  0.2610 -0.5487
23597SOL    HW176628  10.800   3.784   5.081 -0.5537  0.4246 -0.4905
23597SOL    HW276629  10.747   3.725   4.952  0.6585 -0.1792 -0.7224
23598SOL     OW76630   0.920   7.230  11.286 -0.1532  0.0739  0.0111
23598SOL    HW176631   0.999   7.243  11.233 -1.6678 -0.6163 -2.5821
23598SOL    HW276632   0.941   7.154  11.340  0.6284 -0.8288 -1.4590
23599SOL     OW76633   1.921  10.616   8.852 -0.1895  0.2543 -0.1374
23599SOL    HW176634   1.898  10.548   8.915  0.0084  1.0186  0.7950
23599SOL    HW276635   1.882  10.588   8.769 -0.4992 -0.7468  0.3423
23600SOL     OW76636   5.213   3.252   2.277 -0.0329  0.7036 -0.0011
23600SOL    HW176637   5.138   3.234   2.335 -0.7801  1.9533 -0.5306
23600SOL    HW276638   5.201   3.192   2.204  0.2234 -0.0212  0.5426
23601SOL     OW76639  10.120   8.933   4.812  0.8267 -0.0814  0.5427
23601SOL    HW176640  10.139   9.025   4.829 -1.1625  0.7771 -1.2959
23601SOL    HW276641  10.092   8.931   4.720 -0.4239 -2.2920  0.8876
23602SOL     OW76642   2.749   2.730   2.607 -0.1498 -0.1707 -0.0889
23602SOL    HW176643   2.675   2.749   2.664  1.1514  0.0937  1.6014
23602SOL    HW276644   2.781   2.815   2.579  0.1580 -0.2258  0.0815
23603SOL     OW76645   3.148  11.527   3.640 -0.1862  0.4257 -0.3326
23603SOL    HW176646   3.221  11.468   3.658 -0.9124  0.1019  1.8278
23603SOL    HW276647   3.150  11.591   3.711 -0.3314  2.1501 -1.7985
23604SOL     OW76648   3.844   6.839  11.237  0.0446  0.6477  0.2597
23604SOL    HW176649   3.763   6.869  11.195  1.1158 -0.7879 -3.1887
23604SOL    HW276650   3.883   6.919  11.273 -0.7863  2.1894 -2.0095
23605SOL     OW76651   2.487   6.970   9.884  0.0557  0.4445 -0.1979
23605SOL    HW176652   2.451   6.946   9.798 -1.4335 -0.6758  0.6676
23605SOL    HW276653   2.411   7.005   9.932  0.7861  0.7420  0.7642
23606SOL     OW76654   6.267   4.696   2.578  0.4377 -0.4472  0.0216
23606SOL    HW176655   6.209   4.659   2.512  1.9248 -0.4121 -1.3547
23606SOL    HW276656   6.230   4.665   2.662 -0.8135 -1.4536 -0.8586
23607SOL     OW76657   6.386   5.905   0.982  0.5777  0.6058 -0.3004
23607SOL    HW176658   6.476   5.871   0.987  1.1175  2.1103  2.0983
23607SOL    HW276659   6.395   5.989   0.937  0.2357  0.4069 -0.7423
23608SOL     OW76660  10.209   3.571  11.931  0.6593  0.5282  0.1332
23608SOL    HW176661  10.272   3.528  11.873  0.6904 -0.4692  0.8649
23608SOL    HW276662  10.257   3.585  12.012 -0.4584 -1.8496  1.3243
23609SOL     OW76663   5.166   7.686  11.862 -0.1422  0.3822 -0.1250
23609SOL    HW176664   5.192   7.609  11.912  1.1847 -0.0153 -1.3559
23609SOL    HW276665   5.138   7.749  11.928  0.5098 -0.5036  1.0363
23610SOL     OW76666   3.963   7.870   4.435  0.1894  0.0789 -0.3103
23610SOL    HW176667   4.054   7.840   4.439  1.0521  2.5120  0.7201
23610SOL    HW276668   3.961   7.928   4.359 -0.3851  0.3378 -0.1037
23611SOL     OW76669   9.693   7.683   1.113 -0.5155  0.3019 -0.2749
23611SOL    HW176670   9.715   7.738   1.188 -0.3815 -0.8512  0.5574
23611SOL    HW276671   9.599   7.666   1.122 -0.5903  0.5278 -0.6199
23612SOL     OW76672   3.831   9.711   7.655  0.3248  0.3484  0.6977
23612SOL    HW176673   3.924   9.696   7.674  0.4005 -0.2221 -0.0792
23612SOL    HW276674   3.812   9.795   7.697  1.2420  0.5690  0.7012
23613SOL     OW76675   1.266   6.519   6.702 -0.0878 -0.4774  0.0740
23613SOL    HW176676   1.193   6.477   6.657 -0.6562  2.4971 -1.9946
23613SOL    HW276677   1.344   6.490   6.654 -0.2996 -0.4399 -0.2892
23614SOL     OW76678   3.932   9.470   2.923 -0.0599  0.3904  0.4357
23614SOL    HW176679   3.942   9.562   2.902  2.7040  0.1959  0.5912
23614SOL    HW276680   3.943   9.425   2.840  0.2523  0.1232  0.6195
23615SOL     OW76681   5.823   6.925  10.596  0.0996 -0.3105  0.6705
23615SOL    HW176682   5.852   6.934  10.505 -0.4157 -0.2792  0.5052
23615SOL    HW276683   5.766   7.000  10.610 -0.4711 -0.7566  0.7641
23616SOL     OW76684   5.569  11.797   3.199 -0.3162 -0.3281 -0.5358
23616SOL    HW176685   5.531  11.867   3.252 -0.6696  1.1643 -2.6102
23616SOL    HW276686   5.641  11.840   3.152 -0.6847 -1.2829 -2.0230
23617SOL     OW76687   4.680   4.806   8.627  0.1634  0.0144 -0.0695
23617SOL    HW176688   4.734   4.739   8.585  0.3010 -0.5882  1.0220
23617SOL    HW276689   4.738   4.881   8.636  0.3795 -0.1311 -0.2228
23618SOL     OW76690   4.112  11.606   4.126 -0.0153  0.3957  0.1040
23618SOL    HW176691   4.065  11.686   4.103  1.2757  0.5758 -2.2025
23618SOL    HW276692   4.194  11.610   4.077  0.3280 -2.1062  0.2935
23619SOL     OW76693   6.831   4.307   1.036  0.7064  0.3647 -0.4429
23619SOL    HW176694   6.757   4.272   0.986  0.1691  0.9107 -0.0507
23619SOL    HW276695   6.894   4.334   0.969 -0.1113  1.3302 -0.8573
23620SOL     OW76696   8.821   6.752   3.610  0.1908  0.2875  0.1371
23620SOL    HW176697   8.775   6.824   3.652  0.0434 -0.4938  1.3546
23620SOL    HW276698   8.846   6.786   3.524  2.0412  2.5505  1.4626
23621SOL     OW76699  12.251   2.168  11.935 -0.2934  0.3154 -0.0703
23621SOL    HW176700  12.305   2.169  11.856  0.3155  1.1745  0.3518
23621SOL    HW276701  12.258   2.256  11.971 -1.7581  0.3757  0.1520
23622SOL     OW76702   6.025   8.921   9.086 -0.7684  0.3631  0.1436
23622SOL    HW176703   6.046   9.010   9.114 -2.7422  0.6919  0.6929
23622SOL    HW276704   6.026   8.925   8.990  1.1758  0.4294  0.1254
23623SOL     OW76705  11.059  12.188  10.794 -0.0736  0.2128 -0.3959
23623SOL    HW176706  11.085  12.237  10.717  2.8514  1.2424  1.0980
23623SOL    HW276707  11.033  12.254  10.858  1.1422 -0.3256  0.7010
23624SOL     OW76708   6.702   7.139   0.385 -0.3157 -0.3915  0.0532
23624SOL    HW176709   6.771   7.196   0.350  0.0740 -0.6691  0.3595
23624SOL    HW276710   6.668   7.186   0.460 -0.4678 -0.2500 -0.1033
23625SOL     OW76711   0.664  11.913   0.027  0.1500 -0.2983 -0.1806
23625SOL    HW176712   0.677  11.929  -0.067  1.6634 -0.2784  0.0102
23625SOL    HW276713   0.744  11.868   0.055 -0.6036 -0.9943  0.9549
23626SOL     OW76714  11.419   2.396   2.703  0.1918 -0.2307 -0.1538
23626SOL    HW176715  11.356   2.382   2.632 -1.7253  2.2902  0.9107
23626SOL    HW276716  11.460   2.480   2.683  0.5146 -0.0708  1.1001
23627SOL     OW76717   2.336   3.200   1.151 -0.8341 -0.1012 -0.2807
23627SOL    HW176718   2.429   3.193   1.175 -1.0764  0.4831  0.8781
23627SOL    HW276719   2.327   3.289   1.116 -1.0512  0.0022  0.0372
23628SOL     OW76720   5.891   2.878   1.941 -0.4043 -0.1849 -0.3481
23628SOL    HW176721   5.923   2.789   1.924 -2.1091 -0.9317  0.1904
23628SOL    HW276722   5.929   2.901   2.026  1.2009  0.2045 -1.1251
23629SOL     OW76723   4.466   5.853   6.732  0.1275 -0.8179  0.0582
23629SOL    HW176724   4.463   5.920   6.664  3.0565  0.0966  0.7168
23629SOL    HW276725   4.468   5.902   6.814 -3.4852 -1.8981  1.0067
23630SOL     OW76726   6.316   1.430  10.066  0.0484  0.0297  0.2841
23630SOL    HW176727   6.375   1.356  10.078 -0.1041 -0.3915 -1.3547
23630SOL    HW276728   6.267   1.410   9.986 -2.1624  0.4965  1.4475
23631SOL     OW76729   9.456   9.896   3.028 -0.1652  0.0634 -0.3766
23631SOL    HW176730   9.481   9.947   3.104  0.8378 -0.3235 -0.4240
23631SOL    HW276731   9.388   9.948   2.985 -2.1100 -0.5825  1.7632
23632SOL     OW76732   5.297   9.763   3.227 -0.0333  0.0966 -0.1685
23632SOL    HW176733   5.285   9.727   3.139 -0.5734  1.5871 -0.7363
23632SOL    HW276734   5.380   9.725   3.257 -0.6895 -1.8114 -0.5778
23633SOL     OW76735   9.262  10.088   4.144  0.1859 -0.5480  0.3993
23633SOL    HW176736   9.175  10.069   4.180 -0.6547 -0.7567 -1.5759
23633SOL    HW276737   9.298  10.002   4.122  1.0537 -0.4835  1.4737
23634SOL     OW76738   0.495   3.908   0.620  0.0843 -0.4612 -0.6397
23634SOL    HW176739   0.541   3.876   0.542 -0.8255 -2.4676 -0.3867
23634SOL    HW276740   0.405   3.923   0.590 -0.6115 -2.5295  0.2881
23635SOL     OW76741  11.290   7.318   7.723  0.2472  0.0131  0.2331
23635SOL    HW176742  11.368   7.371   7.742 -0.5499  1.7195 -0.9092
23635SOL    HW276743  11.219   7.366   7.765 -0.1149 -2.0856  2.1594
23636SOL     OW76744  11.405   0.498   6.669  0.0339  0.2331  0.5795
23636SOL    HW176745  11.375   0.552   6.743 -1.4770  0.3528 -0.0875
23636SOL    HW276746  11.405   0.557   6.594  0.2710 -0.2084  0.2257
23637SOL     OW76747   6.153   6.905   2.021 -0.4833 -0.3571 -0.0667
23637SOL    HW176748   6.144   6.963   1.946  2.2823 -0.2305 -0.4229
23637SOL    HW276749   6.122   6.957   2.095 -2.1422 -0.0630 -0.9272
23638SOL     OW76750   9.924   3.487   6.755  0.1014 -0.1094  0.3473
23638SOL    HW176751   9.874   3.471   6.675  0.4266  1.1571 -0.1253
23638SOL    HW276752   9.892   3.572   6.787 -0.7919 -1.0599  2.1575
23639SOL     OW76753   0.231   0.147   2.960 -0.1930  0.0731 -0.3711
23639SOL    HW176754   0.186   0.215   2.911 -1.7251 -0.4129  0.2884
23639SOL    HW276755   0.304   0.191   3.003  2.2816  0.2575 -4.2671
23640SOL     OW76756  10.082   4.419   7.918  0.1978 -0.5886 -0.6087
23640SOL    HW176757   9.988   4.418   7.897 -0.3305  2.5306  1.0444
23640SOL    HW276758  10.093   4.346   7.980 -0.8505 -1.7356 -1.7240
23641SOL     OW76759   8.394   6.565   2.420  0.0078  0.3015 -0.2779
23641SOL    HW176760   8.459   6.494   2.416  0.0103  0.3446 -1.1514
23641SOL    HW276761   8.317   6.524   2.460  0.6641  0.3363  1.0889
23642SOL     OW76762   1.121   5.590   2.022 -0.6140 -0.1889  0.1636
23642SOL    HW176763   1.090   5.608   1.933 -0.8339  0.0314  0.2825
23642SOL    HW276764   1.043   5.557   2.067 -0.5042 -0.2892  0.2770
23643SOL     OW76765   2.748   3.530   8.081 -0.1993 -0.2583  0.2329
23643SOL    HW176766   2.750   3.486   8.166  0.6334  0.6421  0.7078
23643SOL    HW276767   2.776   3.620   8.100 -1.6237  0.4312 -0.7376
23644SOL     OW76768   5.741   2.491  11.603 -0.4884  0.0429 -0.6485
23644SOL    HW176769   5.755   2.535  11.687 -0.0422  0.3937 -0.9008
23644SOL    HW276770   5.809   2.424  11.600 -1.8877 -1.4884  0.2610
23645SOL     OW76771   6.875   2.074   9.691  0.3146 -0.0852 -0.2264
23645SOL    HW176772   6.948   2.072   9.629  1.3995 -1.6056  1.0242
23645SOL    HW276773   6.912   2.112   9.771 -0.9963  1.6152 -0.3589
23646SOL     OW76774   4.147   9.312   8.366 -0.0303  0.0807  0.3826
23646SOL    HW176775   4.178   9.394   8.404 -0.8945  0.4468  0.3185
23646SOL    HW276776   4.211   9.292   8.298 -0.0645  0.9660  0.0736
23647SOL     OW76777   3.388   2.039   3.144 -0.7521 -0.0833 -0.0762
23647SOL    HW176778   3.398   1.944   3.144  0.5389  0.0236  0.2036
23647SOL    HW276779   3.305   2.055   3.188 -0.5047 -1.0460  0.7943
23648SOL     OW76780   9.024   1.988   8.676 -0.6330  0.3796 -0.0668
23648SOL    HW176781   8.957   2.036   8.627  0.2150  1.8539  0.1472
23648SOL    HW276782   9.012   2.017   8.766 -1.0871 -1.0265  0.3465
23649SOL     OW76783   2.144   0.732  12.145  0.0206 -0.1203 -0.2640
23649SOL    HW176784   2.057   0.720  12.182 -0.6658  0.4696 -1.6219
23649SOL    HW276785   2.156   0.826  12.140  0.1662 -0.1840 -1.3440
23650SOL     OW76786   8.146   0.680   5.847  0.4200  0.0428 -0.0070
23650SOL    HW176787   8.200   0.603   5.830  0.3069 -0.4162  1.5408
23650SOL    HW276788   8.097   0.657   5.926 -0.4081  1.3006 -0.1361
23651SOL     OW76789   4.862   0.143   0.257 -0.0014 -0.5247 -0.5502
23651SOL    HW176790   4.947   0.119   0.220 -1.0189  0.6679 -3.9720
23651SOL    HW276791   4.799   0.089   0.209 -1.4941  1.8033 -1.3723
23652SOL     OW76792   6.104   3.431   9.724 -0.0567 -0.1743  0.1542
23652SOL    HW176793   6.197   3.418   9.740  0.0650  0.1632 -0.2717
23652SOL    HW276794   6.061   3.367   9.781  0.4739 -1.3130 -0.6841
23653SOL     OW76795   8.180  10.233   2.850 -0.8660 -0.2248 -0.6515
23653SOL    HW176796   8.099  10.199   2.888 -0.1501  0.6419  1.8534
23653SOL    HW276797   8.164  10.326   2.839  0.4505  0.4138  2.0585
23654SOL     OW76798  11.704   0.027   3.433  0.1437 -0.0488 -0.4611
23654SOL    HW176799  11.650  -0.015   3.366  0.4195  2.3480 -2.3166
23654SOL    HW276800  11.772   0.073   3.383 -1.4922  4.5370  1.0920
23655SOL     OW76801   4.921   5.699   2.683 -0.3296 -0.3375  0.0147
23655SOL    HW176802   4.890   5.615   2.651  0.2053  0.2579 -2.1902
23655SOL    HW276803   5.009   5.708   2.646 -1.2050  2.1461 -1.7100
23656SOL     OW76804   4.124   5.904   8.088 -0.0955 -0.2532  0.0368
23656SOL    HW176805   4.153   5.860   8.008  0.7833  0.1913  0.1002
23656SOL    HW276806   4.137   5.840   8.157  2.4268  0.4980  0.3291
23657SOL     OW76807   9.315   5.397   2.715  0.2375 -0.0320  0.3274
23657SOL    HW176808   9.320   5.320   2.658 -0.7310 -2.7230  3.5418
23657SOL    HW276809   9.229   5.434   2.697 -0.5435 -1.5398  0.7427
23658SOL     OW76810   9.656   6.286   1.441  0.1336  0.2482 -0.0612
23658SOL    HW176811   9.716   6.334   1.499 -0.0095  0.0948  0.2200
23658SOL    HW276812   9.641   6.203   1.486 -0.3159  0.3010 -0.1115
23659SOL     OW76813   2.338   4.353  12.140 -0.3807  0.6949  0.2820
23659SOL    HW176814   2.297   4.267  12.152  0.5244  0.2736  0.4400
23659SOL    HW276815   2.265   4.414  12.142 -1.0119 -0.0402  0.4868
23660SOL     OW76816   8.880   1.046   1.335 -0.6808  0.1618  0.2042
23660SOL    HW176817   8.907   0.988   1.264 -1.3396  1.0750 -0.8130
23660SOL    HW276818   8.959   1.095   1.358 -0.1774 -0.9303  0.9114
23661SOL     OW76819   5.385   5.621   1.922 -0.5426 -0.0816  0.2470
23661SOL    HW176820   5.328   5.641   1.997 -0.1089  0.3728  0.4569
23661SOL    HW276821   5.340   5.549   1.877 -0.2522 -1.1516  1.5766
23662SOL     OW76822   6.568   1.127   3.522 -0.2407  0.1133  0.0002
23662SOL    HW176823   6.547   1.042   3.560  1.6381 -0.6436 -0.5391
23662SOL    HW276824   6.567   1.112   3.427  0.6111  0.5265 -0.0869
23663SOL     OW76825   0.943   6.467   7.385  0.3565  0.3610 -0.2871
23663SOL    HW176826   0.880   6.474   7.313  0.9559 -2.2755 -1.1945
23663SOL    HW276827   0.967   6.558   7.405 -1.2968  1.2703 -2.0844
23664SOL     OW76828   2.928   5.144   4.205 -0.2545  0.3360  0.3439
23664SOL    HW176829   2.916   5.049   4.200 -0.9007  0.3316  1.6307
23664SOL    HW276830   3.022   5.157   4.197 -0.2713 -0.2912 -1.2573
23665SOL     OW76831   9.973   1.874   4.253  0.5554  0.1464 -0.4133
23665SOL    HW176832  10.040   1.885   4.186  0.0999  0.1529 -0.8773
23665SOL    HW276833   9.994   1.790   4.295  0.8324  0.1343 -0.5744
23666SOL     OW76834   5.970   1.563   3.284 -0.2722  0.0439 -0.4264
23666SOL    HW176835   5.928   1.573   3.369  2.4761  0.9274  0.9464
23666SOL    HW276836   5.921   1.622   3.226 -2.6114 -1.0755  0.2815
23667SOL     OW76837   2.550   2.145   7.039 -0.6550  0.1031 -0.2094
23667SOL    HW176838   2.555   2.164   6.945  0.7335  0.9464  0.0045
23667SOL    HW276839   2.611   2.207   7.079  0.2063 -1.4872  1.0698
23668SOL     OW76840   8.852   9.360   5.377  0.0888 -0.1936  0.4626
23668SOL    HW176841   8.802   9.308   5.314  1.8760 -0.5071 -0.8006
23668SOL    HW276842   8.885   9.296   5.440 -0.6154 -0.0637  0.9734
23669SOL     OW76843   8.438  11.265   1.557  0.0829  0.0106  0.0833
23669SOL    HW176844   8.383  11.188   1.542  0.2506  0.2333 -1.9551
23669SOL    HW276845   8.467  11.291   1.470  1.3576  1.4262  0.8827
23670SOL     OW76846   2.487   8.372   8.932  0.4360  0.2029  0.0588
23670SOL    HW176847   2.440   8.429   8.993  3.9779  2.0283  1.3847
23670SOL    HW276848   2.558   8.336   8.984  1.2493 -1.4707 -2.0723
23671SOL     OW76849  10.862  10.776   9.006  0.2331 -0.2589  0.0021
23671SOL    HW176850  10.893  10.785   9.096  0.1275  0.3783 -0.0148
23671SOL    HW276851  10.819  10.860   8.987  2.6002  0.7109 -1.5456
23672SOL     OW76852   9.553   7.928   7.769 -0.7937  0.0432 -0.4421
23672SOL    HW176853   9.541   8.021   7.748  0.9239  0.4718  0.3149
23672SOL    HW276854   9.562   7.886   7.683  0.9601  0.9943 -0.7841
23673SOL     OW76855   7.191   7.343   3.539 -0.4144  0.4768 -0.1647
23673SOL    HW176856   7.136   7.266   3.527 -0.6291  0.8672 -1.8635
23673SOL    HW276857   7.277   7.308   3.563 -0.6199 -0.2636 -0.5078
23674SOL     OW76858  11.310   4.371  10.725 -0.3138  0.6197 -0.2807
23674SOL    HW176859  11.298   4.277  10.708  1.2239  0.0836  1.2712
23674SOL    HW276860  11.266   4.386  10.808  2.7431  0.2949  1.5466
23675SOL     OW76861   1.467   7.505   8.870  0.0820  0.2533 -0.2785
23675SOL    HW176862   1.395   7.447   8.892  0.5621 -0.1381  0.3138
23675SOL    HW276863   1.523   7.454   8.811  0.5928  0.0323  0.3778
23676SOL     OW76864   8.512   7.335   0.067  0.2728  0.3355 -0.3039
23676SOL    HW176865   8.563   7.351  -0.012 -0.5636  1.8571 -0.5831
23676SOL    HW276866   8.425   7.370   0.047  0.0057  0.6450  1.2353
23677SOL     OW76867  12.036   1.448   9.907 -0.2840  0.4563  0.0695
23677SOL    HW176868  11.966   1.480   9.964  0.7986  2.0280  0.6014
23677SOL    HW276869  12.115   1.491   9.940  0.6518  0.0947 -1.5820
23678SOL     OW76870   7.346  10.171   2.858 -0.1264 -0.2825 -0.1582
23678SOL    HW176871   7.278  10.131   2.803  0.1709  0.8235 -1.4159
23678SOL    HW276872   7.336  10.130   2.943 -1.8388 -0.7488 -0.5417
23679SOL     OW76873   8.155  10.077  11.306  0.6463 -0.3803  0.2129
23679SOL    HW176874   8.155  10.088  11.401 -1.1669 -1.4924  0.3917
23679SOL    HW276875   8.176   9.984  11.293  1.9544 -0.0018 -0.5510
23680SOL     OW76876   4.824   7.123   1.145 -0.2233 -0.0362 -0.0400
23680SOL    HW176877   4.840   7.172   1.064  0.1279  1.0999  0.6936
23680SOL    HW276878   4.858   7.179   1.214  2.5112 -2.3702  0.7129
23681SOL     OW76879   3.898   3.817   9.446 -0.0905 -0.2958  0.0676
23681SOL    HW176880   3.897   3.895   9.501 -0.1547  0.6926 -1.2795
23681SOL    HW276881   3.966   3.834   9.381  0.6541 -1.8425  0.3848
23682SOL     OW76882  11.948   3.594   5.004 -0.2109  0.3500 -0.0920
23682SOL    HW176883  11.983   3.680   4.982  0.6762 -0.0170 -0.1521
23682SOL    HW276884  11.959   3.542   4.925  0.3543 -0.1536  0.3058
23683SOL     OW76885   9.638   1.350   9.550 -0.1053  0.4727  0.1432
23683SOL    HW176886   9.700   1.314   9.614 -0.0583  0.6392  0.1914
23683SOL    HW276887   9.553   1.348   9.593 -0.0522  0.7083  0.2635
23684SOL     OW76888   3.157   4.045   0.617 -0.1092  0.3250 -0.1031
23684SOL    HW176889   3.210   3.966   0.621 -1.5345 -0.6165  1.7028
23684SOL    HW276890   3.186   4.097   0.692 -2.0938 -0.5125  1.3225
23685SOL     OW76891   4.595   6.935   0.826  0.0083 -0.1992  0.1897
23685SOL    HW176892   4.503   6.914   0.806 -0.1970 -0.0444  0.9382
23685SOL    HW276893   4.591   6.982   0.910  0.9169 -1.7625  1.1635
23686SOL     OW76894   9.906   1.375  10.623  0.0285  0.2644 -0.2553
23686SOL    HW176895   9.939   1.461  10.649 -0.3380  0.4632 -0.4465
23686SOL    HW276896   9.823   1.393  10.579  0.9892  0.0396 -2.2962
23687SOL     OW76897   3.016   6.273   1.604 -0.8171  0.2022  0.3520
23687SOL    HW176898   3.001   6.210   1.674  0.0371  1.5785  1.8417
23687SOL    HW276899   2.928   6.297   1.574 -1.1701 -0.9272  0.4283
23688SOL     OW76900   9.155   0.380   5.428 -0.3942 -0.0243  0.6916
23688SOL    HW176901   9.153   0.317   5.356  1.2353 -1.1134  1.5381
23688SOL    HW276902   9.150   0.466   5.385  1.0527 -0.6199 -0.7609
23689SOL     OW76903   0.837  11.612   3.964 -0.1920  0.5072  0.1181
23689SOL    HW176904   0.841  11.564   3.882  0.6332  1.3292 -0.3497
23689SOL    HW276905   0.748  11.598   3.996 -0.2355 -0.5935 -0.4346
23690SOL     OW76906   3.110   4.372   2.287  0.6807 -0.2986 -0.2969
23690SOL    HW176907   3.108   4.314   2.364  0.1637 -0.0267 -0.1005
23690SOL    HW276908   3.179   4.336   2.232  0.7263 -0.7878  0.0719
23691SOL     OW76909   3.267   6.255   4.029  0.5583  0.6331 -0.3653
23691SOL    HW176910   3.319   6.295   4.098  1.8529  1.7734 -1.9010
23691SOL    HW276911   3.322   6.185   3.994 -0.3333 -0.3407  0.1194
23692SOL     OW76912   9.415  11.830   7.401 -0.5633  0.1761 -0.3552
23692SOL    HW176913   9.452  11.788   7.479 -2.4707 -0.7528  0.1260
23692SOL    HW276914   9.390  11.756   7.345 -1.2962  0.7720 -0.8226
23693SOL     OW76915   4.121   8.467   3.938 -0.3609 -0.0946 -0.0697
23693SOL    HW176916   4.028   8.443   3.940 -0.6135  0.5462 -2.1420
23693SOL    HW276917   4.124   8.552   3.982 -1.3972  1.5523 -2.9106
23694SOL     OW76918  10.252   5.765   6.180 -0.1680 -0.1931 -0.0095
23694SOL    HW176919  10.238   5.851   6.141  1.0339  0.0194 -0.0072
23694SOL    HW276920  10.166   5.723   6.177 -0.7842  1.0331  0.0719
23695SOL     OW76921  10.413  11.039   2.626 -0.1506 -0.1243 -0.1914
23695SOL    HW176922  10.332  11.029   2.578 -0.4874 -1.7366  0.6354
23695SOL    HW276923  10.386  11.058   2.716  0.4296  0.8410 -0.2027
23696SOL     OW76924   3.331  11.828   2.007  0.0990  1.0099  0.1101
23696SOL    HW176925   3.353  11.858   1.919 -2.2767 -2.3338 -1.8301
23696SOL    HW276926   3.242  11.859   2.021 -0.2390 -0.0958  0.4951
23697SOL     OW76927   5.515   0.767   1.036  0.4945 -0.1599  0.5728
23697SOL    HW176928   5.438   0.728   1.076  0.3907 -1.1286 -0.5223
23697SOL    HW276929   5.543   0.704   0.970  0.4788  1.5011 -1.1122
23698SOL     OW76930   1.858   3.619   5.059  0.1349 -0.2905 -1.1993
23698SOL    HW176931   1.847   3.705   5.100 -0.2835 -0.0029 -1.9065
23698SOL    HW276932   1.861   3.637   4.965 -0.6891 -1.1189 -1.3946
23699SOL     OW76933   2.715   8.568   6.617 -0.1047 -0.3265  0.8976
23699SOL    HW176934   2.787   8.506   6.604  1.2710  1.5175 -0.6574
23699SOL    HW276935   2.643   8.533   6.564  1.1507  0.1203 -1.2059
23700SOL     OW76936   8.794   4.440   6.252 -0.4015  0.1028 -0.8629
23700SOL    HW176937   8.848   4.412   6.325  0.1694 -1.2176 -1.7539
23700SOL    HW276938   8.854   4.487   6.194  0.0509 -1.9267 -2.1739
23701SOL     OW76939   8.903   9.813   6.044 -0.5351 -0.0457 -0.3637
23701SOL    HW176940   8.820   9.768   6.031 -0.6386 -0.1108  0.4930
23701SOL    HW276941   8.886   9.878   6.112 -0.0118  0.2880 -0.5401
23702SOL     OW76942  10.870   8.312   1.371 -0.7899  0.2017  0.0013
23702SOL    HW176943  10.856   8.367   1.294  0.7193  0.4897 -0.0852
23702SOL    HW276944  10.953   8.269   1.356  0.2870  1.3564  2.0883
23703SOL     OW76945  10.693  10.696   4.957  0.1210  0.0892 -0.5790
23703SOL    HW176946  10.685  10.725   5.048 -1.5817  1.0878 -0.9930
23703SOL    HW276947  10.778  10.730   4.928  0.1031  0.8969  0.2701
23704SOL     OW76948   8.870   1.397   3.892 -0.0096  0.2966  0.0815
23704SOL    HW176949   8.901   1.434   3.975 -0.2234  1.4179 -0.3290
23704SOL    HW276950   8.872   1.470   3.830 -0.1738 -0.4465 -0.8240
23705SOL     OW76951   6.229   4.015   8.154  0.1206 -0.0453 -0.0434
23705SOL    HW176952   6.218   4.086   8.090 -1.3723  0.5923  0.8649
23705SOL    HW276953   6.303   3.964   8.120  0.1974  1.0015 -1.5852
23706SOL     OW76954   9.420   9.305   3.911  0.1969 -0.3976 -0.3268
23706SOL    HW176955   9.395   9.360   3.837  0.0964 -0.7092 -0.5257
23706SOL    HW276956   9.340   9.299   3.964 -0.0803 -1.1489 -0.8089
23707SOL     OW76957  10.631   2.754   5.262 -0.9195  0.0234  0.0739
23707SOL    HW176958  10.598   2.669   5.294 -1.4928  0.5449  0.8992
23707SOL    HW276959  10.607   2.816   5.330  0.6249  0.6565  0.0743
23708SOL     OW76960   5.055   1.142  10.377  0.1139 -0.1562 -0.0268
23708SOL    HW176961   5.000   1.153  10.455  0.9773  0.1054  0.5560
23708SOL    HW276962   5.024   1.210  10.317 -1.4319 -1.1792 -0.4512
23709SOL     OW76963   7.974   5.648   7.200 -0.3351 -0.2213  0.4645
23709SOL    HW176964   7.894   5.684   7.161  1.3563  1.7367 -1.4219
23709SOL    HW276965   7.967   5.670   7.293 -2.6510 -1.4973  0.6798
23710SOL     OW76966  10.664  10.958   9.907 -0.5424 -0.4328  0.5751
23710SOL    HW176967  10.650  11.039   9.859  0.8958  1.2489  2.7659
23710SOL    HW276968  10.750  10.927   9.879  0.6582  0.9807  2.4797
23711SOL     OW76969   4.381  12.112   6.787 -0.6009  0.6935  0.3703
23711SOL    HW176970   4.323  12.109   6.711 -0.0451 -1.5541 -0.0373
23711SOL    HW276971   4.324  12.134   6.860 -1.5352  0.7944 -0.3693
23712SOL     OW76972   7.537   0.329   6.739  0.0748  0.5874 -0.0389
23712SOL    HW176973   7.504   0.245   6.707  0.0387  0.5789  0.0221
23712SOL    HW276974   7.632   0.320   6.736  0.0778  0.7891 -0.6974
23713SOL     OW76975  11.792   7.558   7.366  0.9246  0.6406 -0.1830
23713SOL    HW176976  11.704   7.546   7.330  0.6904  0.1897  0.5129
23713SOL    HW276977  11.838   7.612   7.302  0.1001  0.9816 -0.4915
23714SOL     OW76978   2.823   3.393   7.439 -0.0868 -0.2214 -0.2931
23714SOL    HW176979   2.861   3.306   7.449  3.7457  1.2774 -0.2645
23714SOL    HW276980   2.788   3.414   7.526  2.8745 -0.2068  1.0364
23715SOL     OW76981   2.726   1.270   3.870 -0.0146  0.4924  0.1752
23715SOL    HW176982   2.633   1.275   3.890 -0.0290 -2.3641  1.3036
23715SOL    HW276983   2.738   1.330   3.796 -2.7714  0.7052 -0.2159
23716SOL     OW76984   7.889   9.354   8.405  0.2189 -0.4810 -0.9713
23716SOL    HW176985   7.897   9.258   8.410 -3.4988 -0.8570  1.3276
23716SOL    HW276986   7.954   9.386   8.468  0.3826 -1.5729 -0.5477
23717SOL     OW76987   3.150  11.541   6.923 -0.0336 -0.2781 -0.0676
23717SOL    HW176988   3.134  11.622   6.972  1.0855 -0.3606  0.4741
23717SOL    HW276989   3.218  11.564   6.859  0.9856 -0.9788  0.7154
23718SOL     OW76990   6.510   2.300   3.011  0.3221 -0.1554  0.0437
23718SOL    HW176991   6.573   2.307   2.939  0.0939 -1.1195 -0.2618
23718SOL    HW276992   6.460   2.382   3.007  0.3888 -0.1424 -0.8265
23719SOL     OW76993   0.549   0.970   6.794 -0.4258 -0.1441 -0.3347
23719SOL    HW176994   0.590   0.889   6.763  2.2058  0.9573 -0.0217
23719SOL    HW276995   0.531   1.020   6.714 -1.1851 -0.6177 -0.4715
23720SOL     OW76996   1.610   8.688   5.847 -0.0105  0.2383 -0.2451
23720SOL    HW176997   1.631   8.768   5.799  0.2890 -0.2558 -0.9639
23720SOL    HW276998   1.674   8.624   5.816 -0.0157 -0.1833  0.5925
23721SOL     OW76999   7.512  10.639   9.817  0.6021  0.2687  0.1231
23721SOL    HW177000   7.465  10.719   9.841  0.7410  0.3612  0.0870
23721SOL    HW277001   7.472  10.571   9.871 -0.2250  0.1733 -0.5827
23722SOL     OW77002  12.134  10.943   9.985 -0.0742  0.6446  0.5540
23722SOL    HW177003  12.215  10.933   9.935  0.8237 -1.8545  2.2879
23722SOL    HW277004  12.079  11.000   9.932  1.5284 -0.3308 -2.3514
23723SOL     OW77005   5.179   9.591   3.845  0.1136 -0.2789  0.0811
23723SOL    HW177006   5.090   9.600   3.812  0.0548 -0.5097  0.1743
23723SOL    HW277007   5.170   9.592   3.940  0.1788 -0.5847  0.0920
23724SOL     OW77008  11.470   7.935   9.327  0.4985  0.3803 -0.3319
23724SOL    HW177009  11.550   7.891   9.356  0.8478  0.4067 -1.2310
23724SOL    HW277010  11.500   8.016   9.287 -0.0533  0.8294  0.1495
23725SOL     OW77011   8.688   5.854   8.255  0.3523  0.1932  0.1876
23725SOL    HW177012   8.603   5.854   8.301  0.2124 -1.0336 -0.0358
23725SOL    HW277013   8.695   5.941   8.218 -0.9833  0.2172 -0.0704
23726SOL     OW77014   6.111   8.101   1.990 -0.3187 -0.2764  0.7116
23726SOL    HW177015   6.045   8.090   1.922 -1.2677  0.4895  1.4653
23726SOL    HW277016   6.060   8.120   2.069  0.8190  2.0544  0.9817
23727SOL     OW77017  10.691  11.486   5.442 -0.2582  0.1157  0.6838
23727SOL    HW177018  10.657  11.415   5.386 -0.4040 -0.2160  1.1872
23727SOL    HW277019  10.744  11.441   5.507  0.9823  0.6188  0.0374
23728SOL     OW77020   8.547   3.847   0.834 -0.2060  0.0231 -0.0008
23728SOL    HW177021   8.512   3.758   0.835 -0.7158  0.2131  0.6732
23728SOL    HW277022   8.469   3.903   0.841  0.1611  0.4922  0.3959
23729SOL     OW77023  12.211   7.121   3.266  0.0557 -0.1026  0.9250
23729SOL    HW177024  12.219   7.150   3.357  1.2278 -1.7952  1.4094
23729SOL    HW277025  12.245   7.031   3.266 -0.3726 -0.3175 -1.0979
23730SOL     OW77026   4.358   8.741   5.781 -0.0977  0.2381  0.7650
23730SOL    HW177027   4.388   8.766   5.693 -0.6585  0.3200  0.5937
23730SOL    HW277028   4.434   8.701   5.822  0.3693  0.8110  0.4791
23731SOL     OW77029   5.080   8.379   8.735 -0.2130  0.4612  0.0149
23731SOL    HW177030   5.065   8.471   8.756 -0.5043  0.2362  0.8604
23731SOL    HW277031   5.126   8.380   8.651  0.9239  1.4327  0.6147
23732SOL     OW77032   9.990   2.217   3.497 -0.1213  0.2115 -0.1165
23732SOL    HW177033   9.895   2.214   3.503 -0.3639 -1.1776 -2.9897
23732SOL    HW277034  10.017   2.125   3.492  1.3324  0.5875  0.2020
23733SOL     OW77035   0.584   9.064   1.208  0.3216  0.5370  0.2397
23733SOL    HW177036   0.651   9.059   1.140 -0.1312  0.4955 -0.2068
23733SOL    HW277037   0.561   9.157   1.212  0.8595  0.6558  0.8484
23734SOL     OW77038   8.955   0.469   8.018  0.6051  0.0775  0.2966
23734SOL    HW177039   8.878   0.512   7.983  2.2568  2.8855 -0.1929
23734SOL    HW277040   8.997   0.430   7.941  1.4453  1.6254 -0.0779
23735SOL     OW77041   9.445   7.638   7.829  1.3149  0.1714 -0.2809
23735SOL    HW177042   9.450   7.683   7.745  1.5540  0.1830 -0.2601
23735SOL    HW277043   9.515   7.573   7.827  1.1988  0.0408 -0.1671
23736SOL     OW77044   1.263   2.702   5.336 -0.0232  0.1170  0.2661
23736SOL    HW177045   1.287   2.735   5.423 -0.0525 -1.2701  0.8278
23736SOL    HW277046   1.178   2.740   5.319  0.6768  1.6882  0.1259
23737SOL     OW77047   7.035   6.422   3.126  0.6030 -0.1039  0.0574
23737SOL    HW177048   6.997   6.364   3.192 -0.0245  1.2325  0.9153
23737SOL    HW277049   6.961   6.473   3.094  0.8190 -0.9905 -2.0246
23738SOL     OW77050   1.233   5.486  10.140 -0.4229 -0.4419  0.3684
23738SOL    HW177051   1.234   5.527  10.053 -0.6648 -0.2187  0.4673
23738SOL    HW277052   1.143   5.497  10.170 -0.6009 -1.4254  0.2254
23739SOL     OW77053   9.051  11.201   4.231  0.0820  0.0442  0.1294
23739SOL    HW177054   9.099  11.200   4.314  1.0132 -1.3823 -0.3897
23739SOL    HW277055   9.037  11.294   4.212  2.0911  0.4970  0.6409
23740SOL     OW77056  11.852   1.544  11.326  0.2149 -0.0917  0.2603
23740SOL    HW177057  11.946   1.562  11.321  0.8158 -2.8734 -0.7508
23740SOL    HW277058  11.815   1.590  11.251  0.8806  0.4640  0.2611
23741SOL     OW77059   4.961  11.793   7.657  0.3461 -0.1047 -0.2304
23741SOL    HW177060   5.016  11.726   7.697 -0.3415 -0.0134  0.9075
23741SOL    HW277061   5.014  11.828   7.585 -0.2107 -3.6320 -2.6117
23742SOL     OW77062   8.109   1.665   4.570 -0.5911 -0.3294  0.1971
23742SOL    HW177063   8.163   1.630   4.641 -0.8072  1.2221  1.1748
23742SOL    HW277064   8.046   1.596   4.553  0.5717 -1.4453  0.2766
23743SOL     OW77065   4.006   5.755   0.317 -0.0861 -0.4192  0.3057
23743SOL    HW177066   3.926   5.709   0.341 -0.2637 -0.6516 -0.7014
23743SOL    HW277067   4.050   5.772   0.400 -1.0034 -0.6117  0.8354
23744SOL     OW77068  10.642   5.386   4.188 -0.4256 -0.2611  0.2675
23744SOL    HW177069  10.556   5.379   4.229  0.2806 -0.2707  1.8363
23744SOL    HW277070  10.624   5.385   4.094 -2.1943  0.4704  0.5432
23745SOL     OW77071   5.541   7.304  10.637  0.1864  0.1825 -0.1318
23745SOL    HW177072   5.624   7.297  10.685  1.0682  1.7346 -1.3673
23745SOL    HW277073   5.477   7.331  10.704 -0.5066 -5.0498  1.8914
23746SOL     OW77074   6.349  11.416   3.793 -0.0268 -0.6141 -0.0243
23746SOL    HW177075   6.312  11.356   3.728 -0.4139  0.7026 -1.0697
23746SOL    HW277076   6.293  11.493   3.788  0.9726  0.1814  0.6697
23747SOL     OW77077   4.087   1.449   3.779 -0.0915 -0.4391  0.1002
23747SOL    HW177078   4.032   1.498   3.718 -0.2254  0.0612  0.6088
23747SOL    HW277079   4.035   1.446   3.860  1.1771  1.2766  1.0607
23748SOL     OW77080   6.662   9.295   4.253 -0.0134  0.1707  0.0056
23748SOL    HW177081   6.738   9.266   4.304  0.8324  0.2326 -1.1603
23748SOL    HW277082   6.611   9.215   4.239  0.0085  0.0618  0.5208
23749SOL     OW77083   0.949   7.674  11.834 -0.1739 -0.5009 -0.5136
23749SOL    HW177084   1.002   7.677  11.754 -1.8363 -1.5429 -1.7061
23749SOL    HW277085   0.890   7.749  11.827  1.3015  0.9119  1.0186
23750SOL     OW77086   6.865  11.264   1.179  0.2040 -0.3566  0.1306
23750SOL    HW177087   6.940  11.213   1.209  0.3662  1.1183  2.4675
23750SOL    HW277088   6.903  11.344   1.143 -0.2275  0.5016  1.5365
23751SOL     OW77089   3.850   5.958   7.617  0.4896 -0.2681 -0.3396
23751SOL    HW177090   3.895   6.029   7.663 -0.6509  0.2063  0.1052
23751SOL    HW277091   3.778   6.003   7.571 -0.2153 -1.1248 -0.0971
23752SOL     OW77092   0.047  11.441   0.120  0.5520  0.3354  0.3885
23752SOL    HW177093   0.046  11.363   0.175  1.6044  0.9235  1.2639
23752SOL    HW277094   0.139  11.457   0.102  0.3142  1.0658 -0.2498
23753SOL     OW77095   4.016   9.196   3.373 -0.3579 -0.3095  0.3167
23753SOL    HW177096   3.970   9.275   3.404 -0.7867 -0.2180 -0.5239
23753SOL    HW277097   3.951   9.126   3.381 -0.4775 -0.2833 -0.3678
23754SOL     OW77098   9.621   9.404  11.207  0.1957  0.0425 -0.1485
23754SOL    HW177099   9.644   9.355  11.128  0.6391 -1.2808  0.7566
23754SOL    HW277100   9.702   9.410  11.257 -0.3447 -0.3751  0.8314
23755SOL     OW77101   7.697   3.410   5.547 -0.5424 -0.6733 -0.2497
23755SOL    HW177102   7.752   3.451   5.479  0.7352  0.6514  1.4782
23755SOL    HW277103   7.655   3.336   5.503  1.1035 -0.5466 -2.1784
23756SOL     OW77104  10.077   9.797   4.036  0.1258 -0.4153  0.2105
23756SOL    HW177105  10.012   9.838   4.093  0.1996 -0.0830  0.0555
23756SOL    HW277106  10.126   9.870   3.998  0.9425 -0.6739  0.7356
23757SOL     OW77107   1.676   3.726   6.526  0.2202  0.5562  0.2295
23757SOL    HW177108   1.769   3.734   6.550  0.2254  1.6264 -0.0751
23757SOL    HW277109   1.651   3.815   6.499 -1.0063  0.3732  0.7106
23758SOL     OW77110  10.068   5.315   0.646 -0.8080 -0.5279 -0.4862
23758SOL    HW177111   9.983   5.355   0.626 -0.7278 -0.0947  0.0050
23758SOL    HW277112  10.076   5.243   0.584 -1.9255 -1.1217  0.0360
23759SOL     OW77113   4.890   3.969   5.252 -0.7925 -0.0622  0.0399
23759SOL    HW177114   4.828   4.035   5.218 -1.6914 -1.3508 -0.9221
23759SOL    HW277115   4.875   3.970   5.346 -1.2717  0.6401 -0.0258
23760SOL     OW77116   0.630   9.411   2.304 -0.2154  0.3215  0.1081
23760SOL    HW177117   0.721   9.383   2.295  0.7807  2.3935  2.5061
23760SOL    HW277118   0.612   9.458   2.222  1.2025  0.6309 -0.0561
23761SOL     OW77119   3.893   4.600   0.815  0.2135  0.5267  0.4582
23761SOL    HW177120   3.860   4.512   0.830 -0.2250  0.3899 -1.1465
23761SOL    HW277121   3.862   4.651   0.890 -0.5988 -0.3930  0.7584
23762SOL     OW77122   4.033   8.864   6.703  0.4314  0.0301  0.1534
23762SOL    HW177123   4.041   8.820   6.618 -0.5786 -0.6623  0.4022
23762SOL    HW277124   3.939   8.871   6.718  0.5514  2.0800  0.2441
23763SOL     OW77125   0.124   5.043   0.497  0.6208  0.2236  0.3162
23763SOL    HW177126   0.040   5.001   0.474  1.3384 -0.5948 -0.9034
23763SOL    HW277127   0.103   5.136   0.505 -0.4010  0.0362 -0.0009
23764SOL     OW77128   9.855   3.056   3.240  0.0182  0.4889  0.6285
23764SOL    HW177129   9.850   3.099   3.154  0.0011 -1.7349 -0.5435
23764SOL    HW277130   9.764   3.049   3.269 -0.2736 -1.3181 -0.5655
23765SOL     OW77131   7.312   0.359   9.675 -0.3530  0.4383 -1.1121
23765SOL    HW177132   7.315   0.378   9.581 -0.2275  0.7442 -1.0493
23765SOL    HW277133   7.393   0.398   9.709  0.5858 -1.3738 -1.1821
23766SOL     OW77134   8.697   1.758   3.974 -0.0981  0.3113 -0.0739
23766SOL    HW177135   8.736   1.766   4.061 -0.9488  0.7399  0.2819
23766SOL    HW277136   8.749   1.817   3.918  0.2456  0.2832  0.2178
23767SOL     OW77137   7.404   5.844   8.005  0.0594  0.2057 -0.6518
23767SOL    HW177138   7.367   5.851   8.093  0.5144 -0.5881 -0.3901
23767SOL    HW277139   7.328   5.826   7.949 -0.2758  1.0459 -0.4775
23768SOL     OW77140   2.514   5.211   2.336  0.1296  0.5089 -0.3482
23768SOL    HW177141   2.444   5.147   2.350  0.8943 -0.5947 -1.3821
23768SOL    HW277142   2.468   5.291   2.309 -0.8021  0.2240  0.3314
23769SOL     OW77143   1.323   7.570  11.226  0.2803  0.3811  0.4294
23769SOL    HW177144   1.401   7.625  11.237 -0.8126  1.5459  3.2020
23769SOL    HW277145   1.293   7.552  11.315 -2.2951 -0.5178 -0.5170
23770SOL     OW77146   1.064   7.223   8.914 -0.5312  0.0953  0.3563
23770SOL    HW177147   0.985   7.218   8.967 -0.2544 -0.3010  0.7418
23770SOL    HW277148   1.123   7.159   8.954 -1.0361 -1.7385 -1.6796
23771SOL     OW77149   1.498   1.639   4.763 -0.7430 -0.2749 -0.3477
23771SOL    HW177150   1.518   1.632   4.670 -0.7575  0.7017 -0.4262
23771SOL    HW277151   1.580   1.666   4.804 -1.3823  1.9441 -0.4380
23772SOL     OW77152   5.698   8.520   4.059  0.0216 -0.1031 -0.1881
23772SOL    HW177153   5.651   8.563   4.130 -0.5896 -1.8122  0.5125
23772SOL    HW277154   5.630   8.470   4.012  0.5761  0.2187 -1.3766
23773SOL     OW77155   3.830   0.905  10.553 -0.7173  0.0802  0.1332
23773SOL    HW177156   3.793   0.951  10.628  0.0279 -1.9106  1.8243
23773SOL    HW277157   3.775   0.828  10.542 -0.6052  0.1549 -1.1836
23774SOL     OW77158   4.979   8.575   8.232 -0.0559  0.3454 -0.1982
23774SOL    HW177159   4.948   8.556   8.321  0.7591  0.2293  0.0674
23774SOL    HW277160   4.966   8.493   8.185 -0.7506  0.4871 -0.2733
23775SOL     OW77161  12.254   5.844   1.304 -0.2089 -0.2779 -0.4057
23775SOL    HW177162  12.172   5.881   1.269  0.7132  0.9786 -1.3390
23775SOL    HW277163  12.271   5.768   1.248  0.9794  1.4190 -2.5176
23776SOL     OW77164   1.076   1.820   7.311  0.2166  0.5023  0.0653
23776SOL    HW177165   1.061   1.773   7.393  0.8520 -1.0313 -0.6416
23776SOL    HW277166   1.102   1.908   7.337 -0.1332  0.2087  1.4817
23777SOL     OW77167   9.264   2.717  11.337 -0.5294  0.2087 -0.5825
23777SOL    HW177168   9.272   2.793  11.395 -0.3778 -1.0675  1.1445
23777SOL    HW277169   9.351   2.708  11.298 -0.0236 -0.0619  0.5429
23778SOL     OW77170   3.231   3.140   1.237  0.0398  0.3126 -0.5456
23778SOL    HW177171   3.319   3.128   1.202 -0.4876 -1.4025 -1.4232
23778SOL    HW277172   3.174   3.098   1.173 -1.2359 -0.3637  0.9564
23779SOL     OW77173   2.688   3.973   3.922 -0.2976  0.6479 -0.0485
23779SOL    HW177174   2.596   3.954   3.904  0.0025 -1.2859  0.3289
23779SOL    HW277175   2.694   3.974   4.017  0.3550 -0.7942 -0.0580
23780SOL     OW77176  10.140  10.100   5.512 -0.1132 -0.4966  0.0137
23780SOL    HW177177  10.218  10.155   5.518 -1.1083  1.1695 -1.4143
23780SOL    HW277178  10.081  10.149   5.455 -2.2516 -1.6594  1.1270
23781SOL     OW77179  10.975  11.622   3.181 -0.4175 -0.6641 -0.1007
23781SOL    HW177180  10.961  11.572   3.262  0.6544  0.9331  1.1315
23781SOL    HW277181  10.936  11.707   3.200  2.3646  0.7012 -0.1357
23782SOL     OW77182  11.339   5.893   1.875 -0.0232 -0.0391  0.4162
23782SOL    HW177183  11.267   5.928   1.927  0.3076  2.3089 -0.5924
23782SOL    HW277184  11.418   5.928   1.916  0.3638 -0.1627 -0.1973
23783SOL     OW77185  10.110  11.386   9.397  0.5018  0.3841  0.0516
23783SOL    HW177186  10.144  11.304   9.361 -0.7273  0.0950 -0.4823
23783SOL    HW277187  10.122  11.450   9.327 -1.2778 -0.0307 -0.6800
23784SOL     OW77188   9.252   5.122   4.744 -0.1236  0.0704 -0.5763
23784SOL    HW177189   9.261   5.056   4.676  2.6268 -0.6973  0.3818
23784SOL    HW277190   9.259   5.072   4.826  0.2094  1.3484  0.1964
23785SOL     OW77191   5.773  11.798  11.717  0.0172 -0.7407 -0.0577
23785SOL    HW177192   5.814  11.875  11.679  1.0311 -1.4036 -0.3529
23785SOL    HW277193   5.718  11.764  11.647 -1.9855  0.7725  0.6924
23786SOL     OW77194   9.410   1.123  10.042 -0.5032 -0.2654 -0.3796
23786SOL    HW177195   9.484   1.183  10.047 -0.3748 -0.3285 -1.3853
23786SOL    HW277196   9.437   1.048  10.095  0.0854 -0.2108 -0.5923
23787SOL     OW77197  10.346  11.183  10.781  0.7100 -0.2387  0.0164
23787SOL    HW177198  10.382  11.265  10.816 -2.6683  0.8676  1.2586
23787SOL    HW277199  10.308  11.138  10.856 -1.4123 -0.7408 -1.2614
23788SOL     OW77200   8.591   8.423   4.992 -0.0655  0.0178 -0.2250
23788SOL    HW177201   8.508   8.468   4.972 -0.6547 -0.8745  0.1731
23788SOL    HW277202   8.647   8.492   5.028 -0.6020  0.6483 -0.5699
23789SOL     OW77203   3.041   1.582   5.508 -0.5854 -0.1461  0.3658
23789SOL    HW177204   3.108   1.617   5.449 -1.0529 -0.2354 -0.2308
23789SOL    HW277205   3.081   1.586   5.595  0.7107 -1.4213 -0.1180
23790SOL     OW77206   4.278   1.349  10.581  0.2385 -0.3277 -0.3998
23790SOL    HW177207   4.317   1.290  10.646  0.0617  0.3094  0.3031
23790SOL    HW277208   4.188   1.318  10.571  0.0545 -0.0182  0.1938
23791SOL     OW77209   0.078   6.888   7.811  0.0089 -0.7121  0.1003
23791SOL    HW177210   0.120   6.865   7.729  1.0916  1.4645 -0.0298
23791SOL    HW277211  -0.016   6.892   7.791  0.4014  1.9826 -1.7136
23792SOL     OW77212   0.789   5.338   4.845 -0.3284  0.6321 -0.2315
23792SOL    HW177213   0.805   5.273   4.913 -1.1380  0.0187 -0.6210
23792SOL    HW277214   0.699   5.366   4.859 -0.8270 -0.2143 -1.6484
23793SOL     OW77215  12.191   8.363   0.007  0.0924 -0.4034  0.0573
23793SOL    HW177216  12.119   8.413  -0.033 -0.8461 -0.2011  1.9019
23793SOL    HW277217  12.262   8.368  -0.057 -0.3836  2.2655 -0.3989
23794SOL     OW77218   7.232   3.024   7.599  0.2525  0.4192 -0.1586
23794SOL    HW177219   7.264   3.112   7.615  0.8333  0.6054 -2.1875
23794SOL    HW277220   7.216   3.020   7.505  1.5539 -2.0578 -0.3641
23795SOL     OW77221   5.876   8.961   3.430 -0.2266  0.0369 -0.2720
23795SOL    HW177222   5.906   8.921   3.349 -1.1523 -0.7234 -0.2548
23795SOL    HW277223   5.945   8.939   3.494  0.6470  0.8899 -0.9003
23796SOL     OW77224   4.731   2.465   5.251 -0.0713  0.4090 -0.0263
23796SOL    HW177225   4.721   2.476   5.345  1.2255  0.3331  0.1386
23796SOL    HW277226   4.679   2.536   5.213  0.4721  1.2618  0.7772
23797SOL     OW77227   2.425  12.055   7.770  0.1947  0.0852  0.2784
23797SOL    HW177228   2.490  12.114   7.809  1.3028 -0.7164 -0.3027
23797SOL    HW277229   2.347  12.066   7.824  0.7586  1.2053  0.8878
23798SOL     OW77230   7.122  11.200   2.442  0.4660  0.6767 -0.4031
23798SOL    HW177231   7.124  11.109   2.415 -1.0121  0.5933 -0.2795
23798SOL    HW277232   7.031  11.217   2.465  0.8662  1.9611  0.3520
23799SOL     OW77233  10.108   3.181   3.774  0.4475 -0.9608  0.5263
23799SOL    HW177234  10.145   3.228   3.699 -1.3576  0.9316  0.7432
23799SOL    HW277235  10.162   3.102   3.781  0.5576 -1.3391 -2.8736
23800SOL     OW77236  12.099   1.901   9.360 -0.6769  0.6547 -0.5177
23800SOL    HW177237  12.019   1.888   9.308 -1.2005  1.1304  0.1468
23800SOL    HW277238  12.088   1.844   9.436 -0.3626  0.6896 -0.4439
23801SOL     OW77239   3.014  12.270   3.722  0.2753 -0.1319  0.2514
23801SOL    HW177240   2.997  12.248   3.814  1.0060  1.1101  0.7050
23801SOL    HW277241   2.957  12.345   3.705 -1.2879 -1.5389 -0.9049
23802SOL     OW77242   3.736  11.903   4.265 -0.4582 -0.1506 -0.1475
23802SOL    HW177243   3.780  11.834   4.315 -0.4883  0.6430  1.0452
23802SOL    HW277244   3.807  11.949   4.220 -0.2820 -0.1152  0.1610
23803SOL     OW77245  11.217   3.707   6.431  0.1845 -0.7905  0.1728
23803SOL    HW177246  11.213   3.803   6.428 -0.2571 -0.8088  0.0863
23803SOL    HW277247  11.263   3.682   6.351  1.5177 -0.5924  0.8556
23804SOL     OW77248  11.501   7.576   6.898  0.5090  0.1534  0.1104
23804SOL    HW177249  11.430   7.641   6.893 -1.0644 -1.4929  0.2907
23804SOL    HW277250  11.464   7.496   6.861  2.5658 -0.5604 -0.5655
23805SOL     OW77251  11.696   1.294   2.069  0.5830 -0.0219 -0.0650
23805SOL    HW177252  11.648   1.216   2.042 -0.0337 -0.3882  1.9216
23805SOL    HW277253  11.707   1.344   1.988 -1.3879 -0.8823 -0.9426
23806SOL     OW77254   2.733   3.548   3.709  0.1580  0.2202  0.3110
23806SOL    HW177255   2.766   3.638   3.707  1.3602 -0.2115  0.1807
23806SOL    HW277256   2.751   3.518   3.799 -0.8421  0.3109  0.5591
23807SOL     OW77257   9.924   8.168   2.572  0.1199 -0.3673 -0.1217
23807SOL    HW177258   9.947   8.079   2.601  0.5227  0.7009  3.2839
23807SOL    HW277259   9.829   8.174   2.587 -0.2798 -0.7631 -2.1980
23808SOL     OW77260   6.128   8.658   1.208 -0.1496 -0.2997  0.3277
23808SOL    HW177261   6.118   8.581   1.151 -0.9810 -0.4938  0.7227
23808SOL    HW277262   6.111   8.625   1.296 -2.1382  0.6441  0.3374
23809SOL     OW77263   1.190   4.491   9.343 -0.4859 -0.3615 -0.0712
23809SOL    HW177264   1.140   4.409   9.339 -0.4750 -0.3342 -2.8705
23809SOL    HW277265   1.138   4.552   9.291  1.5349  0.1829 -1.5658
23810SOL     OW77266   8.925   6.893   7.424  0.2953 -0.3230 -0.4756
23810SOL    HW177267   8.955   6.828   7.360 -0.2233  0.4134 -1.4877
23810SOL    HW277268   8.855   6.941   7.380  0.4334  0.7070  0.3720
23811SOL     OW77269  11.943   3.415   8.860 -0.4420 -0.3107  0.7422
23811SOL    HW177270  11.863   3.467   8.849  0.5175  0.9138 -0.8267
23811SOL    HW277271  11.914   3.324   8.852 -1.5156  0.1514 -1.0991
23812SOL     OW77272   3.715   9.963   9.506  0.4064  0.2464  0.2582
23812SOL    HW177273   3.726   9.999   9.418  0.5879 -1.7134 -0.5689
23812SOL    HW277274   3.773   9.887   9.508 -2.2812 -1.9531  0.7576
23813SOL     OW77275   9.165   3.946   8.261  0.4117  0.1695  0.2284
23813SOL    HW177276   9.096   3.927   8.197  0.3807 -0.1800  0.3639
23813SOL    HW277277   9.241   3.899   8.228  0.7859  1.1186 -0.2961
23814SOL     OW77278   7.750   6.320   1.931  0.3121  0.1963  0.0462
23814SOL    HW177279   7.730   6.394   1.988  0.2423 -0.1653  0.4958
23814SOL    HW277280   7.774   6.360   1.847 -1.0276  0.6927 -0.1325
23815SOL     OW77281   1.308   4.192   7.827 -0.1403  0.1423  0.2902
23815SOL    HW177282   1.235   4.132   7.823  0.9900 -1.4785  2.1661
23815SOL    HW277283   1.307   4.238   7.743 -2.2554 -1.0315 -0.3746
23816SOL     OW77284   1.379   8.213   1.870 -0.2833  0.4299  0.3130
23816SOL    HW177285   1.409   8.122   1.868  2.3845  1.0971  2.6564
23816SOL    HW277286   1.395   8.246   1.782  0.4772 -0.8862 -0.0633
23817SOL     OW77287   1.422   1.672   4.142  0.2067 -0.5146  0.3759
23817SOL    HW177288   1.340   1.715   4.118 -0.2781 -1.7770 -0.3218
23817SOL    HW277289   1.476   1.742   4.180 -0.7259  0.5948 -0.2821
23818SOL     OW77290   3.007   7.598  10.142 -0.0837 -0.2036  0.4518
23818SOL    HW177291   2.944   7.670  10.136  0.4860  0.2149 -0.7481
23818SOL    HW277292   2.987   7.543  10.066  2.1804  0.9393 -1.0868
23819SOL     OW77293   2.266   9.353  10.747 -0.4976  0.2068  0.3201
23819SOL    HW177294   2.321   9.408  10.690  0.1546 -1.2487 -0.5167
23819SOL    HW277295   2.195   9.324  10.690 -0.1750 -0.7767  0.4098
23820SOL     OW77296   1.858  11.043   3.104  0.3474 -0.4680  0.0617
23820SOL    HW177297   1.815  10.997   3.033 -0.6236  1.5860 -0.7732
23820SOL    HW277298   1.931  11.090   3.062 -0.8620  1.6052  0.1225
23821SOL     OW77299   2.874   5.296   6.431 -0.1097  0.1605  0.3195
23821SOL    HW177300   2.856   5.224   6.370  0.3997 -0.7691  1.2266
23821SOL    HW277301   2.964   5.281   6.460 -0.2603  0.7250  1.0984
23822SOL     OW77302   5.409   2.703   3.556 -0.3397 -0.7775  0.3934
23822SOL    HW177303   5.492   2.739   3.525 -0.4391 -1.2291 -0.4330
23822SOL    HW277304   5.433   2.625   3.606 -0.2013 -0.2596  1.1458
23823SOL     OW77305   3.616   0.615   5.496 -0.1544  0.0295  0.4647
23823SOL    HW177306   3.579   0.527   5.499 -0.3790  0.0607 -0.9268
23823SOL    HW277307   3.562   0.662   5.432  1.3201  0.5224 -0.4694
23824SOL     OW77308   9.012   2.959   8.501 -0.4076  0.0656 -0.9192
23824SOL    HW177309   9.084   3.000   8.549 -0.7190 -0.1885 -0.2093
23824SOL    HW277310   9.049   2.878   8.467 -0.3931 -0.1389 -0.4257
23825SOL     OW77311   9.702   2.019   3.804  0.5683  0.6631  0.0040
23825SOL    HW177312   9.664   1.946   3.756  1.3677  1.5104 -2.0022
23825SOL    HW277313   9.631   2.047   3.863 -0.1167 -0.9848  0.0291
23826SOL     OW77314   8.049   3.816   7.892  0.8398 -0.4735 -0.4607
23826SOL    HW177315   7.993   3.844   7.965  1.0896 -0.4186 -0.2851
23826SOL    HW277316   8.126   3.874   7.898  0.2286  0.5085 -1.6389
23827SOL     OW77317   9.355   9.909   6.453 -0.5409 -0.2814  0.3079
23827SOL    HW177318   9.388   9.883   6.539  0.3167  0.2881  0.1582
23827SOL    HW277319   9.432   9.937   6.404 -1.1936  0.8418 -0.1300
23828SOL     OW77320   8.402   8.885   4.681 -0.3441 -0.8679 -0.1441
23828SOL    HW177321   8.365   8.828   4.613  1.3764 -1.0611 -0.9582
23828SOL    HW277322   8.409   8.971   4.640 -0.8012 -0.5796  0.3489
23829SOL     OW77323   8.125   8.721   4.004  0.5104 -0.2376  0.0342
23829SOL    HW177324   8.031   8.711   3.993  0.0367  2.3704  0.8866
23829SOL    HW277325   8.162   8.713   3.916 -0.3194 -2.3800 -0.1710
23830SOL     OW77326  12.135  11.179   2.753 -0.1431  0.7221  0.1732
23830SOL    HW177327  12.193  11.233   2.700  1.2604 -1.1013 -0.2538
23830SOL    HW277328  12.194  11.128   2.808 -1.4767  0.6429  1.5992
23831SOL     OW77329  10.241   0.585   8.034  0.7570  0.1059  0.9348
23831SOL    HW177330  10.173   0.651   8.047  0.2446 -0.6336  2.1053
23831SOL    HW277331  10.315   0.617   8.085  1.4272  1.0449 -0.5477
23832SOL     OW77332   0.487   1.653   8.977 -0.2205  0.8030  0.1504
23832SOL    HW177333   0.503   1.627   8.886  0.4389  0.2639  0.4103
23832SOL    HW277334   0.450   1.575   9.018  1.5360  0.2881  0.8757
23833SOL     OW77335  11.421   5.028  11.008 -0.0963 -0.4281  0.1120
23833SOL    HW177336  11.398   5.010  10.917  1.9247  0.3943 -0.6086
23833SOL    HW277337  11.342   5.068  11.045 -1.3724 -1.9051 -0.8893
23834SOL     OW77338   3.478   9.402   7.628  1.0126 -0.0165  0.4162
23834SOL    HW177339   3.551   9.341   7.623  0.9045 -0.1076 -4.0300
23834SOL    HW277340   3.511   9.482   7.588 -1.3939 -0.4600 -2.9571
23835SOL     OW77341   3.425   2.747   1.212  0.0779 -0.1919  0.1142
23835SOL    HW177342   3.445   2.786   1.298  0.6824  0.3333 -0.2591
23835SOL    HW277343   3.508   2.710   1.183  0.4274  1.4878 -1.1871
23836SOL     OW77344   5.001   6.470   8.854 -0.2626 -0.0326  0.0447
23836SOL    HW177345   4.934   6.520   8.901 -0.9415 -0.1951 -0.7276
23836SOL    HW277346   5.005   6.386   8.901  0.3459  0.4536  0.8831
23837SOL     OW77347   7.231   8.746   4.618  0.0049 -0.2952  0.2437
23837SOL    HW177348   7.199   8.690   4.547 -0.3614  0.8609 -0.5377
23837SOL    HW277349   7.154   8.761   4.673 -0.0462 -0.0340  0.0988
23838SOL     OW77350   4.429  11.965   8.933  0.3039 -0.3556  0.2626
23838SOL    HW177351   4.386  11.916   9.003 -0.6517  0.3337  0.1861
23838SOL    HW277352   4.365  11.963   8.861  0.8317 -0.1557 -0.2166
23839SOL     OW77353   8.339   8.908   5.820  0.0175  0.2368 -0.2505
23839SOL    HW177354   8.332   8.915   5.725  0.7982 -0.2737 -0.3535
23839SOL    HW277355   8.268   8.849   5.845  0.2334 -0.1693 -0.5918
23840SOL     OW77356   0.083   2.988   2.591 -0.1822 -0.1236  0.4756
23840SOL    HW177357   0.077   3.083   2.596  0.2686 -0.1284  1.2831
23840SOL    HW277358   0.162   2.972   2.539  0.9087 -0.0359  2.0443
23841SOL     OW77359  11.060  10.418   6.795 -0.2710  0.4594  0.1455
23841SOL    HW177360  11.081  10.504   6.831  1.0275  0.9531 -1.6137
23841SOL    HW277361  11.145  10.382   6.768 -0.8815 -1.0120  0.0703
23842SOL     OW77362   7.742   9.591   4.880  0.0526 -0.0664  0.1438
23842SOL    HW177363   7.768   9.557   4.794  1.6011  1.7354 -0.1697
23842SOL    HW277364   7.651   9.618   4.869  0.2389  0.1560 -0.9551
23843SOL     OW77365   0.780  10.681   4.220  0.1043 -0.2231  0.3043
23843SOL    HW177366   0.703  10.738   4.216 -0.4628 -0.9546  0.4887
23843SOL    HW277367   0.817  10.697   4.306  0.7045  0.8093 -0.1288
23844SOL     OW77368  11.552   5.134  11.498 -0.3411  0.2303  0.0367
23844SOL    HW177369  11.458   5.153  11.494 -0.2070  0.7457 -1.0944
23844SOL    HW277370  11.583   5.144  11.408  0.4923 -1.6236  0.0556
23845SOL     OW77371   4.066   4.604   9.132  0.1518  0.0093  0.1832
23845SOL    HW177372   3.973   4.611   9.151  0.1230 -0.5756  0.2595
23845SOL    HW277373   4.108   4.657   9.199  0.0371 -1.8148  1.7810
23846SOL     OW77374   9.109  10.934   8.113  0.5719 -0.2835 -0.0250
23846SOL    HW177375   9.124  10.872   8.041 -1.8293 -3.3310  1.8215
23846SOL    HW277376   9.032  10.983   8.087 -0.6562 -1.7970  0.5788
23847SOL     OW77377   0.254   0.264   5.002  0.5362  0.0298 -0.3861
23847SOL    HW177378   0.263   0.351   5.039 -1.9329 -0.1801  0.9518
23847SOL    HW277379   0.190   0.221   5.058  2.4734 -3.0811 -0.2908
23848SOL     OW77380   0.951  10.797   3.609 -0.2470  0.2910 -0.2998
23848SOL    HW177381   1.003  10.778   3.531 -1.5673  1.4497 -1.5059
23848SOL    HW277382   0.863  10.768   3.586 -0.5464  0.0966  1.0105
23849SOL     OW77383   2.446   7.289   2.226  0.0483 -0.6500  0.3604
23849SOL    HW177384   2.464   7.378   2.194  2.2597 -0.5424  1.6875
23849SOL    HW277385   2.381   7.302   2.295  0.2113 -0.0727  0.4149
23850SOL     OW77386   7.296   4.746  11.394 -1.0115  0.3175 -0.9467
23850SOL    HW177387   7.291   4.650  11.403  1.3687  0.2458  0.5598
23850SOL    HW277388   7.326   4.759  11.304  2.6237 -0.7005 -0.0664
23851SOL     OW77389   8.078   7.295  11.020  0.5955  0.0338  0.1346
23851SOL    HW177390   8.102   7.360  10.954  3.2615 -0.6407  0.3367
23851SOL    HW277391   8.119   7.326  11.100  0.3240 -0.9543  0.6697
23852SOL     OW77392  11.010   8.987  11.363 -0.0073 -0.3574  0.1924
23852SOL    HW177393  11.103   8.974  11.380 -0.1358 -2.2334 -0.3393
23852SOL    HW277394  10.986   9.062  11.417  1.7038 -0.1281  0.6828
23853SOL     OW77395   9.080   7.724   3.764  0.6027 -0.3746 -0.7451
23853SOL    HW177396   9.169   7.699   3.737  0.2883 -2.8456  0.2327
23853SOL    HW277397   9.093   7.773   3.845  1.0691 -0.8010 -0.5599
23854SOL     OW77398  10.405   2.371   6.048  0.0219 -0.2902  0.2548
23854SOL    HW177399  10.369   2.455   6.018 -0.9955 -0.3313  1.2712
23854SOL    HW277400  10.329   2.324   6.084  0.3214 -2.1867 -1.4075
23855SOL     OW77401  10.297   6.023   3.708  0.6687  0.0146 -0.1028
23855SOL    HW177402  10.367   6.017   3.773 -1.0207  0.5846  1.8712
23855SOL    HW277403  10.225   5.972   3.745 -0.7851  1.3506 -0.9450
23856SOL     OW77404   0.232   7.716   6.142 -0.3988  0.1020 -0.9422
23856SOL    HW177405   0.183   7.773   6.201  2.4018  1.2570  0.4909
23856SOL    HW277406   0.264   7.775   6.074  0.4346 -0.2560 -0.8692
23857SOL     OW77407   6.721   2.777   1.735 -0.4389  0.3096  0.1720
23857SOL    HW177408   6.807   2.814   1.718 -0.2087 -0.1905  0.2405
23857SOL    HW277409   6.733   2.722   1.812 -0.5099 -0.8108 -0.5889
23858SOL     OW77410   8.290  10.960   4.653  0.1843  0.4602  0.2515
23858SOL    HW177411   8.226  10.977   4.723  0.5205 -0.6208  0.8523
23858SOL    HW277412   8.308  10.866   4.661  1.4073  0.6417 -0.2902
23859SOL     OW77413   9.197  10.981   4.401 -0.0352 -0.0662  0.2545
23859SOL    HW177414   9.146  10.900   4.401  1.2097 -0.8746 -0.1146
23859SOL    HW277415   9.139  11.046   4.443 -2.1563 -0.3957 -1.9667
23860SOL     OW77416  11.093  10.598   1.743 -0.2419  0.0932 -0.1034
23860SOL    HW177417  11.037  10.524   1.767  0.8912 -0.5414  0.6543
23860SOL    HW277418  11.086  10.659   1.816 -0.0071  0.0511 -0.0453
23861SOL     OW77419   4.147  11.357  10.241 -0.1717 -0.4418  0.1509
23861SOL    HW177420   4.157  11.444  10.279  1.5731 -1.4097  2.1229
23861SOL    HW277421   4.237  11.325  10.231 -0.7587 -1.8577 -0.9702
23862SOL     OW77422  12.167   4.024  12.082 -0.4800 -0.2952  0.3379
23862SOL    HW177423  12.114   4.047  12.006  0.9587  2.3710  0.0399
23862SOL    HW277424  12.235   4.091  12.086  1.9096 -2.5844  1.6820
23863SOL     OW77425   1.025   5.246   3.083  0.3500  0.0730  0.0188
23863SOL    HW177426   0.970   5.205   3.016 -0.8470  0.7158  0.5753
23863SOL    HW277427   0.988   5.333   3.094  1.0817  0.2907  0.8935
23864SOL     OW77428   4.349   6.710   8.009  0.2478 -0.3122  0.3439
23864SOL    HW177429   4.433   6.673   7.982  0.6356  0.6556  0.1734
23864SOL    HW277430   4.333   6.673   8.096 -0.4603 -2.5733 -0.6813
23865SOL     OW77431   5.083   1.308   3.864 -0.0492 -0.4707 -0.0429
23865SOL    HW177432   5.077   1.361   3.944  0.5584 -0.7893  0.2200
23865SOL    HW277433   5.001   1.258   3.862 -2.0439  2.5518 -1.8255
23866SOL     OW77434  10.346   8.699   9.137 -0.1652  0.2441 -0.0096
23866SOL    HW177435  10.432   8.655   9.137 -0.3990 -0.2419 -1.1161
23866SOL    HW277436  10.283   8.628   9.147 -0.4549  0.5914  0.6914
23867SOL     OW77437  11.921   3.383   4.766 -0.7564  0.3607  0.3210
23867SOL    HW177438  11.982   3.414   4.698 -0.4417  1.6205  1.1465
23867SOL    HW277439  11.894   3.296   4.736  0.2594  0.4187 -0.8407
23868SOL     OW77440   0.134   2.032   2.976 -0.1589 -0.3154  0.9819
23868SOL    HW177441   0.047   1.991   2.980 -0.4910  0.2166 -0.1001
23868SOL    HW277442   0.193   1.961   2.949 -1.0942  0.2028 -3.2467
23869SOL     OW77443   3.550   8.568   0.779  0.1683  0.2505  0.4660
23869SOL    HW177444   3.591   8.650   0.751 -2.2819  1.0313 -1.1313
23869SOL    HW277445   3.457   8.589   0.789 -1.0208 -2.7736 -2.3131
23870SOL     OW77446   4.292   7.825   6.574  0.3672  0.2927 -0.4656
23870SOL    HW177447   4.304   7.745   6.625 -2.0598  0.2847  0.2209
23870SOL    HW277448   4.320   7.895   6.632  0.1529  0.1052 -0.1354
23871SOL     OW77449   0.109   7.173  11.029  0.3051 -0.3769  0.0512
23871SOL    HW177450   0.166   7.106  10.991 -1.2718 -0.6782 -1.9184
23871SOL    HW277451   0.024   7.130  11.037 -0.9077  1.4928 -1.8048
23872SOL     OW77452  11.799   2.572   0.699 -0.4334  0.4329  0.3685
23872SOL    HW177453  11.848   2.495   0.729 -0.1136  0.2855 -0.4938
23872SOL    HW277454  11.737   2.590   0.770 -0.3796 -0.4989  0.6684
23873SOL     OW77455   5.084   9.093   5.178  0.6036 -0.3538 -0.1150
23873SOL    HW177456   5.090   9.008   5.135  0.0340 -0.8810  0.8226
23873SOL    HW277457   5.073   9.155   5.106  1.0238 -1.0698 -0.8068
23874SOL     OW77458   4.175   6.842   4.311 -0.0275 -0.4528  0.3444
23874SOL    HW177459   4.096   6.896   4.302 -0.5454 -1.3818 -1.0160
23874SOL    HW277460   4.228   6.863   4.234  0.6112 -0.5566  0.7466
23875SOL     OW77461   8.539  11.661   3.638  0.3842  0.1150  0.1026
23875SOL    HW177462   8.465  11.610   3.605  1.0815 -1.2061  0.5073
23875SOL    HW277463   8.616  11.609   3.615  1.3496  2.1360 -1.6070
23876SOL     OW77464   9.569   0.705   9.934 -0.9793  0.0490  0.1319
23876SOL    HW177465   9.643   0.650   9.908  0.0298  0.2530  2.3029
23876SOL    HW277466   9.534   0.739   9.852  0.2329 -1.4482 -1.0662
23877SOL     OW77467   2.429   2.915   6.393 -0.0073  0.1530 -0.1499
23877SOL    HW177468   2.478   2.993   6.368 -1.8699  1.2623 -0.5347
23877SOL    HW277469   2.394   2.935   6.480  0.1671 -0.5971  0.1021
23878SOL     OW77470   2.433   3.464   0.420  0.4300 -1.0096 -0.3680
23878SOL    HW177471   2.448   3.554   0.448  0.0332 -0.4796 -1.8070
23878SOL    HW277472   2.441   3.413   0.501 -0.3565  0.4158  0.6596
23879SOL     OW77473   5.484  12.172   9.483 -0.4934 -0.0011 -0.0652
23879SOL    HW177474   5.562  12.216   9.516  0.3439 -0.6139 -1.1457
23879SOL    HW277475   5.518  12.100   9.429 -1.8116 -0.7560  0.0700
23880SOL     OW77476   9.845   9.631   3.580  0.5501  0.7650 -0.1188
23880SOL    HW177477   9.796   9.695   3.632  0.6069  0.4853  0.2772
23880SOL    HW277478   9.921   9.679   3.549  0.1518  1.1359 -0.5374
23881SOL     OW77479   0.664   5.282   9.022  0.2604  0.0760  0.1044
23881SOL    HW177480   0.749   5.305   8.983 -0.3401  1.7291 -0.2781
23881SOL    HW277481   0.602   5.343   8.983 -0.4874  1.4908  3.2476
23882SOL     OW77482   9.022   7.265   1.082 -0.1173 -0.1481 -0.0993
23882SOL    HW177483   9.043   7.194   1.022 -2.6143 -2.0166  1.0811
23882SOL    HW277484   9.026   7.225   1.169  1.8227  2.0886  0.9671
23883SOL     OW77485   7.624   4.930   0.329  0.3132  0.4324 -0.2248
23883SOL    HW177486   7.548   4.965   0.283  0.5883  0.3525 -0.7435
23883SOL    HW277487   7.587   4.878   0.400 -0.1104  0.7474 -0.2102
23884SOL     OW77488   8.439   8.932  10.144  0.0895  0.0904  0.2172
23884SOL    HW177489   8.432   9.026  10.159 -1.6501  0.0920 -0.4617
23884SOL    HW277490   8.373   8.893  10.201 -1.1085 -0.4878 -1.5065
23885SOL     OW77491   0.305   4.306  10.234 -0.2752 -0.0111  0.1692
23885SOL    HW177492   0.396   4.327  10.213  0.6292 -2.6360  1.0181
23885SOL    HW277493   0.269   4.387  10.270  2.3421  0.6020  1.6524
23886SOL     OW77494   9.762   7.460   5.754 -0.0189 -0.2392  0.2534
23886SOL    HW177495   9.789   7.413   5.675  1.7883 -1.0285  1.2817
23886SOL    HW277496   9.758   7.552   5.727 -1.8692 -0.7198 -1.3392
23887SOL     OW77497   7.136   4.286   9.670 -0.4420 -0.0980  0.0364
23887SOL    HW177498   7.094   4.282   9.756  1.3557  1.1077  1.0357
23887SOL    HW277499   7.147   4.194   9.645 -1.9168 -0.4517  0.6051
23888SOL     OW77500   1.822   9.415   6.262 -0.3240 -0.1383 -0.4552
23888SOL    HW177501   1.901   9.364   6.281 -0.8923 -0.9195 -0.1293
23888SOL    HW277502   1.831   9.495   6.314 -0.4035 -0.8581  0.6974
23889SOL     OW77503  11.107   8.631   4.159 -1.1445 -0.2862 -0.2460
23889SOL    HW177504  11.081   8.579   4.235 -1.0445  0.3600  0.2443
23889SOL    HW277505  11.122   8.567   4.090 -1.1286 -0.8962  0.3097
23890SOL     OW77506  11.178   0.050  11.072 -0.4310  0.5987 -0.1304
23890SOL    HW177507  11.226   0.014  10.997  0.2453 -1.7185  1.2950
23890SOL    HW277508  11.134  -0.026  11.111 -0.8654  1.7311  1.7226
23891SOL     OW77509   4.322  10.313   1.367 -0.4210  0.2339  0.6050
23891SOL    HW177510   4.300  10.403   1.346  1.2317  0.5683  0.0992
23891SOL    HW277511   4.417  10.314   1.379 -0.3826 -1.4089  0.7053
23892SOL     OW77512   8.123  11.994   0.340  0.1732  0.2207 -0.3200
23892SOL    HW177513   8.090  12.012   0.253  0.4308  0.5375 -0.3532
23892SOL    HW277514   8.121  12.078   0.385 -2.8892 -0.4132  1.0205
23893SOL     OW77515   0.661   8.691   2.283 -0.9442  0.7321 -0.4674
23893SOL    HW177516   0.677   8.699   2.377 -0.9135 -0.5230 -0.3467
23893SOL    HW277517   0.594   8.757   2.264 -0.7350  1.1979  0.3731
23894SOL     OW77518   3.453  10.271   7.158 -0.0164 -0.3194  0.0076
23894SOL    HW177519   3.452  10.354   7.110 -0.2612 -0.2644  0.1080
23894SOL    HW277520   3.382  10.220   7.118 -0.9681  0.1488  1.0496
23895SOL     OW77521   1.097   0.876   0.543  0.2704 -1.2262 -0.6978
23895SOL    HW177522   1.007   0.896   0.520  0.2552  0.6013  0.7822
23895SOL    HW277523   1.147   0.896   0.463 -0.4741 -1.0728 -1.1318
23896SOL     OW77524   9.726   4.676   0.731 -0.1081 -0.7969 -0.3741
23896SOL    HW177525   9.772   4.677   0.647  0.5792  0.0730 -0.0126
23896SOL    HW277526   9.746   4.761   0.769  1.4165 -1.9632  1.6347
23897SOL     OW77527   3.117   0.032   8.203  0.1922 -0.0507 -0.2167
23897SOL    HW177528   3.142  -0.055   8.232 -1.5473  0.0138  1.7239
23897SOL    HW277529   3.156   0.091   8.267  0.9688  0.5838 -1.2463
23898SOL     OW77530   5.436   8.335  10.872  0.3343 -0.1417 -0.5507
23898SOL    HW177531   5.453   8.258  10.818  0.3517  0.2606 -1.1280
23898SOL    HW277532   5.433   8.302  10.961 -1.2483 -1.0552 -0.9192
23899SOL     OW77533   0.520   6.828   2.580  0.1700 -0.0586  0.1736
23899SOL    HW177534   0.425   6.841   2.584  0.3068  0.8614  0.5927
23899SOL    HW277535   0.557   6.911   2.609  1.1171 -0.1213 -0.7975
23900SOL     OW77536  11.150   5.174   6.711 -0.2875  0.1568 -0.1019
23900SOL    HW177537  11.104   5.226   6.646  0.1044  0.9414  0.2313
23900SOL    HW277538  11.243   5.183   6.688 -0.2710 -1.4030 -0.7674
23901SOL     OW77539  11.603   3.319  11.968  0.6669  0.3470  0.8796
23901SOL    HW177540  11.630   3.280  12.051 -0.5801  0.5690  1.4240
23901SOL    HW277541  11.514   3.350  11.985  0.7851  1.3622 -0.2240
23902SOL     OW77542   9.666   4.627   7.923  0.1045  0.0890  0.1642
23902SOL    HW177543   9.633   4.539   7.936  0.2860  0.0487  0.3482
23902SOL    HW277544   9.727   4.642   7.996 -0.6151  0.7012  0.6472
23903SOL     OW77545   8.236   0.680   7.052 -0.0710  0.3224  0.4370
23903SOL    HW177546   8.315   0.667   7.104 -0.2584  0.3162  0.7238
23903SOL    HW277547   8.181   0.605   7.074 -0.5866  0.8647  1.0356
23904SOL     OW77548   8.506   0.470   4.249 -0.0384 -0.5231 -0.2780
23904SOL    HW177549   8.575   0.410   4.222  0.6635 -0.8394  2.0513
23904SOL    HW277550   8.553   0.548   4.279 -0.8307  0.2115 -0.8997
23905SOL     OW77551   8.517   9.168   8.095 -0.3028  0.0478 -0.4664
23905SOL    HW177552   8.492   9.150   8.005  0.5537 -1.5490 -0.4177
23905SOL    HW277553   8.605   9.205   8.088 -0.4623  0.4601 -0.3125
23906SOL     OW77554  10.645   1.588   1.161 -0.4664  0.3065 -0.4279
23906SOL    HW177555  10.580   1.621   1.099 -1.8864  0.3489  1.0211
23906SOL    HW277556  10.617   1.499   1.180  0.3080  0.0885 -0.2919
23907SOL     OW77557   8.425   9.991  11.832 -0.1688 -0.6380  0.1559
23907SOL    HW177558   8.454   9.900  11.831  1.2712 -0.2270 -2.0665
23907SOL    HW277559   8.505  10.042  11.819 -1.1940  0.8438 -0.6609
23908SOL     OW77560   5.069   3.119   0.264  0.1351  0.2401 -0.2097
23908SOL    HW177561   5.067   3.167   0.181 -0.2381  0.9582  0.2143
23908SOL    HW277562   5.162   3.115   0.287  0.2591 -0.0918 -0.7220
23909SOL     OW77563   6.851  11.563   5.440 -0.3250 -0.5317 -0.5595
23909SOL    HW177564   6.771  11.560   5.491  0.6061 -0.0766  1.0118
23909SOL    HW277565   6.868  11.657   5.427  0.5088 -0.5737  0.0964
23910SOL     OW77566   8.517   7.226   2.896 -0.2862  0.3481 -0.2736
23910SOL    HW177567   8.558   7.206   2.812 -0.8012  2.4423 -1.0816
23910SOL    HW277568   8.427   7.247   2.874 -0.6075  0.2545  0.9108
23911SOL     OW77569   6.066   9.006   5.803  0.4416 -0.7692  0.0661
23911SOL    HW177570   6.141   8.951   5.829 -1.2707 -3.0505  0.4942
23911SOL    HW277571   6.076   9.086   5.855  2.9847 -0.6290 -0.4954
23912SOL     OW77572   0.807   2.964   4.325 -0.3151 -0.0129 -0.0629
23912SOL    HW177573   0.762   2.985   4.243 -0.2272 -1.2850 -0.4766
23912SOL    HW277574   0.859   2.886   4.304  1.0628  0.6391  0.7520
23913SOL     OW77575   2.592   3.329   8.615 -0.1586 -0.7412 -0.0410
23913SOL    HW177576   2.683   3.314   8.587  0.0446  0.0588  0.1881
23913SOL    HW277577   2.544   3.345   8.533  0.3716  1.2466 -0.0149
23914SOL     OW77578   8.709   5.541   2.201  0.0185  0.3137 -0.4026
23914SOL    HW177579   8.692   5.563   2.110 -0.1739  0.5930 -0.3018
23914SOL    HW277580   8.624   5.517   2.237 -0.0491  0.9714 -0.0967
23915SOL     OW77581   0.487   5.050   4.046 -0.4725 -0.0983 -0.3006
23915SOL    HW177582   0.422   4.999   3.997 -1.0156 -0.9414  1.2331
23915SOL    HW277583   0.472   5.026   4.138  1.0951  0.7570  0.2130
23916SOL     OW77584   4.784   8.191   4.860 -0.6774 -0.4375  0.3208
23916SOL    HW177585   4.877   8.169   4.863 -0.2009  1.3933  0.1518
23916SOL    HW277586   4.740   8.110   4.885  1.0125 -0.8968  2.0701
23917SOL     OW77587   6.436   8.507   6.448  0.3827 -0.2695 -0.1244
23917SOL    HW177588   6.477   8.570   6.390  2.0893 -1.0514  0.1619
23917SOL    HW277589   6.346   8.500   6.417  0.5223  1.2910 -0.9740
23918SOL     OW77590   9.370   9.703   0.008  0.2280 -0.1106 -0.3799
23918SOL    HW177591   9.370   9.704  -0.087 -1.6455 -1.4639 -0.4532
23918SOL    HW277592   9.378   9.611   0.032  1.9012  0.2930  0.8480
23919SOL     OW77593   5.662   0.692   4.131  0.4483 -0.1979 -0.1546
23919SOL    HW177594   5.726   0.727   4.192  1.9147 -0.8191 -1.2637
23919SOL    HW277595   5.706   0.617   4.090 -1.3069 -1.1852 -0.3439
23920SOL     OW77596  11.062   8.370   8.386  0.1143 -0.0945  0.3084
23920SOL    HW177597  11.155   8.388   8.403 -0.3333  2.0459  0.6858
23920SOL    HW277598  11.031   8.445   8.336 -1.3372 -0.9863 -0.2077
23921SOL     OW77599   1.490  10.377   3.106  0.0368  0.4490  0.5544
23921SOL    HW177600   1.526  10.292   3.132  0.4076  0.1975 -0.7152
23921SOL    HW277601   1.411  10.387   3.159 -2.0116 -2.3140 -1.6662
23922SOL     OW77602   9.866   7.171   7.047 -0.5632  0.1666  0.5705
23922SOL    HW177603   9.844   7.170   6.954 -0.4521 -1.2319  0.5428
23922SOL    HW277604   9.801   7.115   7.088 -0.9195  1.1777  1.4319
23923SOL     OW77605  11.174  10.564   0.866 -0.2113  0.3939 -0.2702
23923SOL    HW177606  11.114  10.638   0.859 -0.7135 -0.0236 -0.4539
23923SOL    HW277607  11.118  10.487   0.868 -0.0608  0.1198  4.5200
23924SOL     OW77608   0.642   3.353   2.856 -1.0556 -0.5167  0.4756
23924SOL    HW177609   0.600   3.318   2.777 -1.5249 -0.2409  0.5953
23924SOL    HW277610   0.593   3.313   2.928  0.2104 -1.7919  0.6551
23925SOL     OW77611   1.870   0.252   9.638  0.1218 -0.1961 -0.7915
23925SOL    HW177612   1.933   0.268   9.568  0.6820  1.3348  0.0188
23925SOL    HW277613   1.863   0.336   9.684  0.1887 -1.2837  1.3224
23926SOL     OW77614   3.321   2.433   4.030  0.0574 -0.4399  0.1236
23926SOL    HW177615   3.343   2.501   3.967 -0.4422  0.3670  0.8030
23926SOL    HW277616   3.364   2.354   3.996  0.9397  0.2810 -0.4837
23927SOL     OW77617   8.212   1.266   9.625 -0.5812 -0.0178 -0.1984
23927SOL    HW177618   8.165   1.338   9.668  1.2212  0.5608  0.9379
23927SOL    HW277619   8.217   1.198   9.693  2.0226  0.7813  0.5318
23928SOL     OW77620   0.534   9.904   3.200 -0.0434 -0.0013 -0.1262
23928SOL    HW177621   0.515   9.828   3.145 -1.7293  0.5303 -0.3304
23928SOL    HW277622   0.573   9.867   3.280 -4.0109 -1.5642  1.3526
23929SOL     OW77623   9.361   6.519   5.853 -0.9390 -0.5162  0.4280
23929SOL    HW177624   9.434   6.498   5.910 -0.2400  1.7402  0.4414
23929SOL    HW277625   9.332   6.606   5.881 -1.3606  0.1432 -1.8328
23930SOL     OW77626  11.838   4.394   3.159  0.3172  0.3761 -0.1701
23930SOL    HW177627  11.832   4.437   3.245  0.1925 -1.5017  0.8052
23930SOL    HW277628  11.806   4.305   3.174  1.2395 -0.3082 -1.9536
23931SOL     OW77629   1.583  10.559   9.016  0.4890 -0.0613  0.1754
23931SOL    HW177630   1.554  10.617   9.086 -1.3230  0.6376 -1.0929
23931SOL    HW277631   1.502  10.525   8.978  1.4731 -1.9209 -0.3671
23932SOL     OW77632   7.575   8.131   1.154  0.0886 -0.1319 -0.2113
23932SOL    HW177633   7.517   8.116   1.080 -0.1419  0.1422 -0.0844
23932SOL    HW277634   7.551   8.063   1.218  0.8050 -0.8613 -0.6875
23933SOL     OW77635   7.206   9.384   8.370  0.1653  0.1500 -0.1949
23933SOL    HW177636   7.188   9.373   8.464  0.2884  0.5625 -0.1195
23933SOL    HW277637   7.164   9.467   8.348  0.8417  0.4644 -0.3141
23934SOL     OW77638   3.334  11.396   1.515  0.1231 -0.3769  0.3733
23934SOL    HW177639   3.379  11.312   1.513 -0.2718 -0.5793 -1.1698
23934SOL    HW277640   3.356  11.433   1.601  0.7481 -1.7958  0.8539
23935SOL     OW77641   5.035  11.474  11.449  0.6601 -0.3235  0.4986
23935SOL    HW177642   4.984  11.547  11.482  1.3820  0.5119 -0.1733
23935SOL    HW277643   5.069  11.431  11.527 -1.5263 -1.2751  0.9894
23936SOL     OW77644   9.516   2.190  11.583 -0.6063  0.0111 -0.5441
23936SOL    HW177645   9.589   2.132  11.561 -0.7402 -0.1006 -0.6886
23936SOL    HW277646   9.552   2.278  11.570  0.3032  0.0573  1.7661
23937SOL     OW77647   8.704   9.241   8.413 -0.1829 -0.2606 -0.3215
23937SOL    HW177648   8.633   9.176   8.410 -0.6254  0.2674 -1.7790
23937SOL    HW277649   8.660   9.323   8.436 -0.0182  0.0252 -1.0197
23938SOL     OW77650   9.701   6.683   4.462  0.2095  0.3300 -0.0072
23938SOL    HW177651   9.672   6.771   4.487 -0.4527  0.0815  0.1218
23938SOL    HW277652   9.661   6.669   4.376  0.0605  0.0351  0.1091
23939SOL     OW77653   6.642   1.926   9.635 -0.0008  0.3239 -0.4902
23939SOL    HW177654   6.633   1.942   9.729  0.3937 -1.2562 -0.1465
23939SOL    HW277655   6.736   1.925   9.620 -0.0076 -1.0946 -0.5594
23940SOL     OW77656   5.448   7.359   1.514  0.0237  0.5235 -0.4667
23940SOL    HW177657   5.455   7.289   1.449  1.4534 -0.9848  1.1945
23940SOL    HW277658   5.365   7.342   1.559 -0.3225  0.7726 -1.0044
23941SOL     OW77659   7.904   1.282   8.469 -0.5607  0.1441 -0.1337
23941SOL    HW177660   7.947   1.334   8.536 -0.1264  0.3885 -0.6021
23941SOL    HW277661   7.973   1.226   8.434 -0.7199  0.2249 -0.5795
23942SOL     OW77662   0.534   5.015   1.839  1.0851  0.3616 -0.1947
23942SOL    HW177663   0.599   5.083   1.821 -0.2987  1.3030 -1.9472
23942SOL    HW277664   0.458   5.041   1.789 -0.3148 -1.2746  0.9684
23943SOL     OW77665  10.488   3.925   2.774  0.1262 -0.1428  0.6501
23943SOL    HW177666  10.544   4.002   2.785 -0.3529  0.5463 -1.3246
23943SOL    HW277667  10.490   3.906   2.680 -0.9984 -1.6110  0.8723
23944SOL     OW77668   3.576  10.327  11.135  0.1295  0.3693  0.5718
23944SOL    HW177669   3.615  10.251  11.178 -0.1659  0.0938  0.3555
23944SOL    HW277670   3.647  10.365  11.084  1.1585  2.0420  3.0268
23945SOL     OW77671   5.121   2.152   2.592  0.2968  0.5606  0.5683
23945SOL    HW177672   5.044   2.098   2.605  0.3329  0.3802  0.0321
23945SOL    HW277673   5.137   2.192   2.678 -1.1441  1.6183  0.3867
23946SOL     OW77674   2.112   0.331   6.649 -0.0698 -0.4158 -0.1320
23946SOL    HW177675   2.031   0.361   6.690 -0.0233 -0.2786 -0.1409
23946SOL    HW277676   2.100   0.350   6.556  0.1045 -0.0991 -0.0905
23947SOL     OW77677   3.343   8.926   2.513 -0.2583  0.6521 -0.6864
23947SOL    HW177678   3.368   8.928   2.606  0.5883  0.0235 -0.8871
23947SOL    HW277679   3.395   8.855   2.476 -2.3089 -0.6742 -1.1638
23948SOL     OW77680   1.811   8.522  11.003  0.4487 -0.3238  0.1755
23948SOL    HW177681   1.893   8.476  10.987  0.7035  0.2520 -0.1724
23948SOL    HW277682   1.822   8.564  11.088  1.3605  1.5747 -0.8346
23949SOL     OW77683  11.952   1.418   9.335  0.0686 -0.1350  0.0023
23949SOL    HW177684  12.030   1.426   9.280  0.6276 -0.6675  0.6982
23949SOL    HW277685  11.985   1.425   9.425 -0.4017 -2.3300  0.3935
23950SOL     OW77686  11.418   0.113   9.985  0.2200 -0.1664 -0.3411
23950SOL    HW177687  11.417   0.033   9.932  0.2010 -1.0061  0.8773
23950SOL    HW277688  11.465   0.088  10.065  0.3411  1.0907 -0.0040
23951SOL     OW77689  12.311   0.178  11.246 -0.1767  0.0408 -0.7586
23951SOL    HW177690  12.216   0.186  11.239 -0.2942 -0.9299 -0.3473
23951SOL    HW277691  12.330   0.206  11.336 -0.2040 -0.8589 -0.4673
23952SOL     OW77692   8.700   0.069   8.228 -0.6368 -0.0542 -0.8167
23952SOL    HW177693   8.760   0.139   8.203  0.5757 -0.6439  0.3343
23952SOL    HW277694   8.617   0.113   8.246  0.1199  1.1052 -0.0730
23953SOL     OW77695   7.289   6.187   0.021 -0.4919  0.0195 -0.0535
23953SOL    HW177696   7.303   6.096  -0.006 -1.8619 -0.2495  0.0537
23953SOL    HW277697   7.246   6.180   0.107  0.2359  0.7921  0.3857
23954SOL     OW77698   3.675   0.164   8.430 -0.7356  0.5309  0.4198
23954SOL    HW177699   3.586   0.141   8.403 -0.1170 -0.4023 -0.9776
23954SOL    HW277700   3.699   0.239   8.375 -0.4798  0.4438  0.4085
23955SOL     OW77701   3.991  12.111   3.283 -0.1367  1.2894  0.0055
23955SOL    HW177702   4.045  12.127   3.206  0.4686 -0.4596  0.0183
23955SOL    HW277703   3.905  12.147   3.260 -0.0360  0.5920 -1.6207
23956SOL     OW77704   7.035   3.099  11.348  0.6876  0.0468 -0.2358
23956SOL    HW177705   7.080   3.132  11.425 -0.1060 -1.3436  0.8724
23956SOL    HW277706   6.962   3.159  11.334 -0.8101 -1.1798  1.8092
23957SOL     OW77707   6.100   3.368  12.273 -0.5320  0.1138  1.1867
23957SOL    HW177708   6.078   3.328  12.189 -0.8864 -0.1593  1.4031
23957SOL    HW277709   6.095   3.462  12.257 -2.3605  0.0852  1.3218
23958SOL     OW77710   0.753   0.916   8.899 -0.0994 -0.1797 -0.2724
23958SOL    HW177711   0.711   0.873   8.974 -0.3091 -1.7146 -1.2195
23958SOL    HW277712   0.840   0.878   8.895 -0.3253 -0.6432 -1.1957
23959SOL     OW77713   8.305   9.752   0.256  0.1765  0.3810 -0.1282
23959SOL    HW177714   8.370   9.705   0.308 -1.2292  0.0021  1.3567
23959SOL    HW277715   8.273   9.687   0.193  0.4367  0.2361 -0.1079
23960SOL     OW77716   3.828  11.049   5.137  0.1301  0.0421  0.0582
23960SOL    HW177717   3.829  11.115   5.207 -2.9955  0.3110  0.0231
23960SOL    HW277718   3.847  11.098   5.057  0.4777  0.3848  0.3491
23961SOL     OW77719   4.295   4.179   6.174  0.4620  0.1452  0.3301
23961SOL    HW177720   4.345   4.250   6.133  0.5293  0.4203  0.8903
23961SOL    HW277721   4.351   4.149   6.246  0.1171  0.0012  0.5389
23962SOL     OW77722   3.687  10.356   9.019 -0.4421  0.1665  0.3135
23962SOL    HW177723   3.748  10.349   9.092  0.9531  0.4542 -0.7665
23962SOL    HW277724   3.696  10.273   8.972  0.3881  0.8539 -0.7841
23963SOL     OW77725   7.842   3.276   7.479 -0.1222 -0.4592 -0.3607
23963SOL    HW177726   7.896   3.343   7.522 -1.1930  0.9065 -1.0699
23963SOL    HW277727   7.856   3.290   7.386 -0.5653 -1.0568 -0.5200
23964SOL     OW77728   9.189   7.564   0.871  0.5033  0.4435  0.6814
23964SOL    HW177729   9.256   7.540   0.807 -1.0158 -0.2529 -0.7194
23964SOL    HW277730   9.140   7.635   0.830  0.2960  0.8761  1.6442
23965SOL     OW77731   1.499  11.328   8.451 -0.0712 -0.2523 -0.4255
23965SOL    HW177732   1.585  11.367   8.466 -0.3699  1.6980 -3.0372
23965SOL    HW277733   1.518  11.237   8.428  0.9663 -0.7019  1.8894
23966SOL     OW77734  11.447   3.905   0.587 -0.3027 -0.3817 -0.5722
23966SOL    HW177735  11.388   3.830   0.597  0.3513 -1.1266 -1.9367
23966SOL    HW277736  11.456   3.942   0.675 -0.8602 -1.7414  0.0744
23967SOL     OW77737   0.726   2.005   1.043 -0.1969  0.2891  0.0451
23967SOL    HW177738   0.654   1.959   0.998  0.7676  0.8156 -2.1707
23967SOL    HW277739   0.724   2.093   1.006  1.1462  0.5068  0.4663
23968SOL     OW77740  12.273   1.931   0.697  0.6313  0.1599 -0.1913
23968SOL    HW177741  12.300   2.022   0.691 -0.0756  0.3923  0.0595
23968SOL    HW277742  12.241   1.909   0.610 -0.1234  0.4617 -0.0023
23969SOL     OW77743   9.178   7.460   1.129  0.1699 -0.9872  0.3908
23969SOL    HW177744   9.124   7.382   1.121 -0.0696 -0.7027 -1.1694
23969SOL    HW277745   9.172   7.502   1.043  0.6083  0.5356  1.0633
23970SOL     OW77746   2.843   1.791   7.335  0.4593 -0.2335 -0.7447
23970SOL    HW177747   2.814   1.854   7.269  1.5840 -0.1724 -1.1917
23970SOL    HW277748   2.793   1.815   7.414  0.5806  0.9672 -1.0152
23971SOL     OW77749   1.538   0.673   7.093 -0.7594 -0.3965  0.0410
23971SOL    HW177750   1.600   0.743   7.114 -1.9188  0.4982  0.6219
23971SOL    HW277751   1.562   0.602   7.152 -1.4173  0.6158  1.5896
23972SOL     OW77752  12.292   7.004   0.390  0.0600 -0.8167 -0.1187
23972SOL    HW177753  12.320   7.087   0.352  1.2860 -1.4500 -0.6350
23972SOL    HW277754  12.253   7.029   0.474  0.1738  0.2999 -0.3784
23973SOL     OW77755  10.869   2.081  11.174 -0.0898 -0.2362  0.0292
23973SOL    HW177756  10.943   2.082  11.113  0.9181  2.0707  1.1590
23973SOL    HW277757  10.875   1.996  11.218  0.3073 -1.1401 -1.6860
23974SOL     OW77758   0.016   8.304   8.652  1.0377  0.1281  0.2074
23974SOL    HW177759  -0.079   8.316   8.657  1.0250  2.0665 -2.6837
23974SOL    HW277760   0.029   8.212   8.677 -1.7557 -0.5823 -0.5561
23975SOL     OW77761   4.544   7.201   5.778 -0.3216 -0.6392  0.1541
23975SOL    HW177762   4.460   7.242   5.797 -0.8381 -1.6397  0.0902
23975SOL    HW277763   4.599   7.223   5.853  0.0692  1.8184 -0.7686
23976SOL     OW77764  10.172  10.199   0.654 -0.1452 -0.1651 -0.6599
23976SOL    HW177765  10.196  10.112   0.621  1.6887  0.0944 -0.1389
23976SOL    HW277766  10.255  10.247   0.656 -1.1833  1.7653 -1.3728
23977SOL     OW77767   3.896   9.943   2.778  0.4486 -0.0536  0.3130
23977SOL    HW177768   3.935   9.893   2.850  0.2030 -0.4281  0.1866
23977SOL    HW277769   3.868  10.025   2.819  1.6853  0.3857  0.3452
23978SOL     OW77770   6.134   8.398   2.219 -0.1048  0.1035  0.1981
23978SOL    HW177771   6.167   8.310   2.233 -0.5546  0.0433  0.9451
23978SOL    HW277772   6.095   8.423   2.303 -0.0826  0.9689 -0.0345
23979SOL     OW77773  11.022   9.003   9.709 -0.9013 -0.1752 -0.3746
23979SOL    HW177774  11.109   8.967   9.727 -1.0774 -0.3109  0.2479
23979SOL    HW277775  10.980   9.008   9.796 -0.8575  1.5842 -0.4243
23980SOL     OW77776   8.852   0.704   1.346  0.2112  0.4058  0.6167
23980SOL    HW177777   8.825   0.743   1.429  0.3297  1.4828  0.1636
23980SOL    HW277778   8.881   0.778   1.292  1.3008 -0.3954  0.0478
23981SOL     OW77779   7.496   9.596  11.339  0.8462 -0.8336 -0.2259
23981SOL    HW177780   7.519   9.634  11.254  1.6384 -0.5764  0.0898
23981SOL    HW277781   7.400   9.593  11.339  0.6466  2.3173  0.2072
23982SOL     OW77782  11.226   1.518   1.916 -0.5977  0.3232 -0.1166
23982SOL    HW177783  11.134   1.505   1.890 -0.4468 -0.4895 -0.2756
23982SOL    HW277784  11.220   1.560   2.001 -1.1818 -1.9708  1.0653
23983SOL     OW77785   4.793   5.691   6.216 -0.3358 -0.2253 -0.0154
23983SOL    HW177786   4.827   5.640   6.143 -0.7599 -2.4903  1.2886
23983SOL    HW277787   4.699   5.699   6.198 -0.7078 -2.0135  0.9015
23984SOL     OW77788   6.190   5.302   6.897  0.6103 -0.1296 -0.3807
23984SOL    HW177789   6.215   5.376   6.953  0.2361  0.5661 -1.1059
23984SOL    HW277790   6.250   5.307   6.822  0.9354 -0.8911 -0.1791
23985SOL     OW77791   4.110   1.200   2.230 -0.3731 -0.2668  0.6134
23985SOL    HW177792   4.157   1.243   2.301 -0.4564  0.6069  0.1588
23985SOL    HW277793   4.070   1.272   2.181 -0.5996 -0.8733 -0.1159
23986SOL     OW77794   4.707   2.502   7.498 -0.3390  0.2507  0.3239
23986SOL    HW177795   4.780   2.450   7.466  0.2442  0.8224  0.7067
23986SOL    HW277796   4.747   2.566   7.558 -1.0440  1.0705 -0.0512
23987SOL     OW77797   7.550   5.931   6.775 -0.2455 -0.4710  0.1421
23987SOL    HW177798   7.480   5.876   6.812  0.2753 -1.1500  0.1368
23987SOL    HW277799   7.602   5.958   6.851  0.3814 -1.2410 -0.0010
23988SOL     OW77800   7.934   6.797   4.548 -0.2172  0.3115  0.9554
23988SOL    HW177801   7.846   6.825   4.570 -0.0101  3.5411 -1.4768
23988SOL    HW277802   7.989   6.832   4.618 -0.6484  0.3385  1.2801
23989SOL     OW77803   4.366   6.977   1.229 -0.2741  0.4314  0.0656
23989SOL    HW177804   4.345   7.038   1.299 -0.1281  0.7720 -0.1844
23989SOL    HW277805   4.295   6.912   1.231 -1.6275  1.8027 -1.0527
23990SOL     OW77806   3.733   8.993   9.123  0.3181  0.4079 -0.1492
23990SOL    HW177807   3.683   8.992   9.041 -0.9694  2.2147  0.5410
23990SOL    HW277808   3.708   8.912   9.168 -2.8129  1.6344  0.5598
23991SOL     OW77809   0.248   2.635   9.545 -0.5042 -0.6321 -0.2986
23991SOL    HW177810   0.186   2.700   9.577 -0.7392  0.4738 -2.7866
23991SOL    HW277811   0.194   2.565   9.509 -0.3058 -0.4004 -1.0614
23992SOL     OW77812  10.306  11.618   8.327 -0.3682  0.1068 -0.4377
23992SOL    HW177813  10.376  11.555   8.341 -1.1941 -0.9544 -0.8970
23992SOL    HW277814  10.248  11.575   8.263 -2.1107  0.3672  0.8999
23993SOL     OW77815   7.144   3.761   1.386 -0.0768 -0.0171  0.4591
23993SOL    HW177816   7.239   3.749   1.382 -0.0292  0.3000  0.5935
23993SOL    HW277817   7.128   3.787   1.476 -0.3231 -0.3184  0.5031
23994SOL     OW77818  11.655   2.661   8.684  0.2828  0.2833 -0.4144
23994SOL    HW177819  11.714   2.704   8.746  1.1356 -0.4711 -0.6727
23994SOL    HW277820  11.607   2.732   8.642  0.6833  0.8849  0.1251
23995SOL     OW77821   2.367   1.291   0.239  0.7518 -0.0622 -0.0498
23995SOL    HW177822   2.365   1.268   0.146 -0.1242 -1.0898  0.2097
23995SOL    HW277823   2.422   1.224   0.279  1.2010  0.4309  0.1696
23996SOL     OW77824  11.456   5.930   4.773  0.5618 -0.1108 -0.1859
23996SOL    HW177825  11.473   5.905   4.864 -1.0295  0.7544  0.3840
23996SOL    HW277826  11.425   5.849   4.732  1.2257 -0.4900  0.0285
23997SOL     OW77827  10.891   9.228   5.630  0.3231 -0.2087 -0.3522
23997SOL    HW177828  10.942   9.202   5.707  0.2608 -2.1033 -0.8993
23997SOL    HW277829  10.875   9.147   5.583  0.2353  0.8848 -2.3267
23998SOL     OW77830   5.054   7.259   9.119 -0.2810 -0.2866 -0.4506
23998SOL    HW177831   4.971   7.211   9.115 -0.6605  0.3875 -0.9308
23998SOL    HW277832   5.096   7.242   9.035  0.0349 -0.5558 -0.2417
23999SOL     OW77833   2.948   2.425  10.868 -0.6470 -0.1490  0.5056
23999SOL    HW177834   2.886   2.490  10.899  0.2125  1.0977 -0.3110
23999SOL    HW277835   3.024   2.435  10.925  0.6752  1.6999 -1.4463
24000SOL     OW77836  12.040   4.617   5.696 -0.1650  0.1107 -0.3231
24000SOL    HW177837  12.104   4.557   5.657 -0.9711 -0.8871 -0.1537
24000SOL    HW277838  12.045   4.696   5.642  0.1573 -0.5029 -1.2184
24001SOL     OW77839   0.164  11.679   6.653 -0.4505  0.2423  0.1587
24001SOL    HW177840   0.186  11.745   6.586 -0.8559 -1.1623 -1.4332
24001SOL    HW277841   0.231  11.612   6.643 -1.2416 -0.5794  0.3037
24002SOL     OW77842   3.867   7.611   2.847  0.1384  0.0839 -0.2498
24002SOL    HW177843   3.880   7.574   2.935  2.2324 -1.3365 -1.0592
24002SOL    HW277844   3.774   7.633   2.843 -0.0380  0.0199  2.2433
24003SOL     OW77845   6.987  10.072   8.598 -0.1721 -0.2046  0.1102
24003SOL    HW177846   6.980  10.164   8.573  0.2053 -0.8064 -2.4890
24003SOL    HW277847   6.898  10.048   8.626 -1.3538  0.0285 -2.9911
24004SOL     OW77848   8.058   9.272  12.025  0.2784  0.1001  0.3392
24004SOL    HW177849   8.004   9.245  12.100  1.8526  0.6058  1.7193
24004SOL    HW277850   8.007   9.341  11.982 -2.0332 -2.2146 -0.9326
24005SOL     OW77851   6.087   6.122   3.063 -0.4494 -0.4718  0.5450
24005SOL    HW177852   6.091   6.212   3.096 -0.3337 -0.6215  0.9376
24005SOL    HW277853   6.036   6.129   2.982  0.2863  0.0827  0.1143
24006SOL     OW77854  10.844  11.471   9.656  0.6748  0.0989 -0.3906
24006SOL    HW177855  10.917  11.529   9.634  0.0883  1.7340  1.6611
24006SOL    HW277856  10.766  11.527   9.651 -0.0995 -0.8892  0.2539
24007SOL     OW77857   4.672   6.326   4.371  0.0915 -0.1692  0.3650
24007SOL    HW177858   4.669   6.385   4.447  1.6773  3.2179 -1.9122
24007SOL    HW277859   4.585   6.334   4.332  0.0910  0.2140  0.4314
24008SOL     OW77860   1.927   2.420  12.022  0.4476 -0.2723  0.6114
24008SOL    HW177861   1.899   2.364  11.949  0.7971 -0.3296  0.5199
24008SOL    HW277862   2.016   2.445  12.000  0.4544 -0.0557  0.8830
24009SOL     OW77863   2.780  11.217   7.781 -0.2117  0.4616 -0.2410
24009SOL    HW177864   2.860  11.168   7.765 -0.6558 -0.1101 -0.7614
24009SOL    HW277865   2.769  11.273   7.705 -1.2425 -0.7795 -1.0648
24010SOL     OW77866   1.994   6.068   1.246 -0.2003 -0.7475 -0.3898
24010SOL    HW177867   2.019   6.119   1.169  0.4355  0.1465  0.3910
24010SOL    HW277868   2.062   6.086   1.311 -0.7503 -1.4418  0.4089
24011SOL     OW77869   8.074  11.052   2.566 -0.8183 -0.0429 -0.1129
24011SOL    HW177870   8.149  11.087   2.613 -0.8478  0.4939 -0.4592
24011SOL    HW277871   8.005  11.043   2.632 -0.3666 -0.8102  0.2645
24012SOL     OW77872   9.443   2.486   4.490 -0.0001  0.4973  0.3205
24012SOL    HW177873   9.366   2.430   4.498 -1.4859  2.2121 -1.1429
24012SOL    HW277874   9.502   2.438   4.432  0.8207 -1.5371  2.6624
24013SOL     OW77875   5.748   1.379   3.507 -0.8116  0.0184  0.7301
24013SOL    HW177876   5.765   1.470   3.532 -1.8761 -0.0226  1.6446
24013SOL    HW277877   5.701   1.342   3.581  0.8382 -1.7021  0.9790
24014SOL     OW77878   6.406  10.587  11.910 -0.0128 -0.4663  0.1902
24014SOL    HW177879   6.465  10.512  11.920  3.0692  1.8443  0.7529
24014SOL    HW277880   6.435  10.630  11.830  0.1164  1.5533  1.2627
24015SOL     OW77881   7.192   2.643   5.754 -0.0957 -0.2753 -0.2112
24015SOL    HW177882   7.203   2.710   5.687  0.7071  0.9102  1.0457
24015SOL    HW277883   7.275   2.643   5.803 -0.4687 -1.4508  0.4865
24016SOL     OW77884   5.260   2.860   7.601 -0.3039 -0.1313  0.1039
24016SOL    HW177885   5.214   2.780   7.576 -1.5640  0.8298 -0.7069
24016SOL    HW277886   5.281   2.903   7.518 -0.1248  0.6502  0.5459
24017SOL     OW77887   4.544   2.690   8.893  0.2636  0.5962  0.0651
24017SOL    HW177888   4.513   2.766   8.942 -0.4293  1.1393 -1.1448
24017SOL    HW277889   4.592   2.728   8.819  1.3658 -0.1977  0.3504
24018SOL     OW77890   1.862   7.004   1.692  0.4081  0.4102  0.0469
24018SOL    HW177891   1.781   7.049   1.717  1.1404  1.5387  0.4657
24018SOL    HW277892   1.875   6.938   1.760 -1.5751 -1.7286 -1.4517
24019SOL     OW77893  10.676   5.063   2.834 -0.1086 -0.1491 -0.6644
24019SOL    HW177894  10.696   5.067   2.740  1.3775  0.9218 -0.3308
24019SOL    HW277895  10.755   5.095   2.877 -1.7732  2.1748  0.8765
24020SOL     OW77896   9.746   3.675   1.524  0.0451  0.1923  0.6349
24020SOL    HW177897   9.738   3.608   1.456  1.1259  0.9497 -0.2737
24020SOL    HW277898   9.836   3.667   1.554  0.2085  1.2676  0.4624
24021SOL     OW77899   0.719   8.687   3.883  0.5507  0.0006 -0.1871
24021SOL    HW177900   0.766   8.736   3.816 -2.0376  2.3224 -0.5032
24021SOL    HW277901   0.726   8.742   3.961  1.5209 -1.5145  0.8417
24022SOL     OW77902   9.192  11.857   6.193 -0.3083  0.2408 -0.0815
24022SOL    HW177903   9.161  11.809   6.117  0.8365  3.0064 -2.4924
24022SOL    HW277904   9.281  11.825   6.208 -0.6404 -0.5154  0.3229
24023SOL     OW77905   2.633   7.152   1.256 -0.3155  0.4639  0.1586
24023SOL    HW177906   2.622   7.209   1.333 -1.8309 -0.6004  0.7880
24023SOL    HW277907   2.725   7.127   1.258  0.4281  2.9202 -0.1983
24024SOL     OW77908   5.742  11.471   8.839  0.4465  0.2164 -0.3898
24024SOL    HW177909   5.739  11.565   8.821  0.9883  0.6368  1.4532
24024SOL    HW277910   5.834  11.448   8.834  0.1699 -0.6037 -2.4228
24025SOL     OW77911   6.743   7.422  11.637 -0.4546  0.1333  0.5165
24025SOL    HW177912   6.747   7.474  11.718 -0.2160 -0.6231  1.0022
24025SOL    HW277913   6.796   7.344  11.656 -1.1408 -0.4880 -0.0445
24026SOL     OW77914   7.941   2.228   9.862  0.6558  0.7097 -0.2912
24026SOL    HW177915   7.918   2.200   9.774  0.1083 -1.2400  0.4127
24026SOL    HW277916   7.877   2.296   9.884 -0.2380  0.0428 -0.8011
24027SOL     OW77917  10.467   5.932   4.263 -0.2902  0.0196  0.0008
24027SOL    HW177918  10.506   6.009   4.222  2.3394 -0.1659  1.8964
24027SOL    HW277919  10.444   5.874   4.190  1.4647  0.9157 -1.3239
24028SOL     OW77920   3.390   7.740   6.944  0.0339  0.5177 -0.5654
24028SOL    HW177921   3.390   7.680   7.019  0.8683  0.7610 -0.3631
24028SOL    HW277922   3.325   7.703   6.884  0.1408 -0.2800 -0.2033
24029SOL     OW77923   4.974   8.404   4.962 -0.0423  0.1623 -0.4252
24029SOL    HW177924   5.035   8.343   4.921  0.0248  0.1019 -0.2364
24029SOL    HW277925   4.921   8.437   4.890 -0.6817 -0.8064 -0.4179
24030SOL     OW77926   4.375   9.824   6.602  0.6358  0.2195  0.8904
24030SOL    HW177927   4.442   9.891   6.597  1.2424 -0.4510 -1.0650
24030SOL    HW277928   4.408   9.753   6.547 -0.8286 -0.9012  1.3856
24031SOL     OW77929   4.340   8.571   8.492 -0.1367  0.1141 -0.1123
24031SOL    HW177930   4.251   8.544   8.513  0.3956 -0.9663  0.8782
24031SOL    HW277931   4.336   8.599   8.401 -2.0025  2.4568  0.5690
24032SOL     OW77932   8.889   3.691   7.572 -0.4105 -0.0339 -0.4866
24032SOL    HW177933   8.869   3.621   7.511  0.5621  1.4690 -2.6806
24032SOL    HW277934   8.837   3.766   7.542 -0.0847  0.7015  0.6839
24033SOL     OW77935   7.758   9.825   2.080  0.6936 -0.6656  0.0501
24033SOL    HW177936   7.785   9.916   2.069  0.0040 -0.5512 -0.8934
24033SOL    HW277937   7.724   9.820   2.169 -0.9640  0.4867 -0.4695
24034SOL     OW77938   3.405   7.618  10.844 -0.2054 -0.0423  0.0802
24034SOL    HW177939   3.352   7.646  10.919 -2.2176 -1.1058 -0.8783
24034SOL    HW277940   3.352   7.640  10.767  0.9834 -0.6812 -0.9614
24035SOL     OW77941   1.363  10.322   8.423 -0.0682  0.3114 -0.2838
24035SOL    HW177942   1.339  10.236   8.386  0.3703 -0.0200  0.1835
24035SOL    HW277943   1.401  10.369   8.349  1.0249 -0.4365 -0.2328
24036SOL     OW77944  10.981   0.884  10.201 -0.1158  0.7037 -0.1579
24036SOL    HW177945  10.990   0.961  10.256 -0.3587  0.2947  0.4663
24036SOL    HW277946  10.916   0.829  10.246 -0.4324  0.4251 -0.9217
24037SOL     OW77947   6.679   9.046   2.526 -0.2165 -0.0547  0.2584
24037SOL    HW177948   6.677   9.102   2.603 -1.7972 -0.8378  0.8385
24037SOL    HW277949   6.696   9.106   2.453 -0.9269  1.0521  0.9716
24038SOL     OW77950  12.207   8.063   2.602 -0.1773 -0.0723  0.0957
24038SOL    HW177951  12.195   8.148   2.560 -0.9257 -0.5602 -0.7174
24038SOL    HW277952  12.119   8.025   2.607  0.3191 -1.5300 -1.1789
24039SOL     OW77953   7.022  10.423   1.495 -0.3758 -0.2687  0.2167
24039SOL    HW177954   7.042  10.517   1.488  0.5513 -0.5926 -2.9230
24039SOL    HW277955   7.074  10.393   1.570 -0.8876  1.7092  1.4580
24040SOL     OW77956  10.802   6.244   2.369  0.1556  0.2817 -0.0253
24040SOL    HW177957  10.803   6.323   2.422 -1.5817  0.9018 -0.8465
24040SOL    HW277958  10.742   6.185   2.415  1.0656 -0.4016  0.3230
24041SOL     OW77959   7.414   0.227   8.314 -0.2187 -0.0100 -0.1302
24041SOL    HW177960   7.472   0.174   8.369  0.5853 -0.0993 -1.0371
24041SOL    HW277961   7.376   0.165   8.253 -0.0579  0.2927 -0.5438
24042SOL     OW77962   0.551  10.908   4.685  0.1197 -0.2977 -0.0278
24042SOL    HW177963   0.581  10.964   4.613 -1.0268  0.4447  0.0404
24042SOL    HW277964   0.632  10.874   4.724  0.7780 -0.5076 -1.4827
24043SOL     OW77965   4.500   5.763  11.981 -0.0415 -0.1012 -0.4661
24043SOL    HW177966   4.442   5.809  11.921 -0.8733  1.5622  1.4714
24043SOL    HW277967   4.452   5.760  12.064  3.2450  3.3299  1.9276
24044SOL     OW77968   3.157  10.112  10.918  0.3593  0.1487 -0.6906
24044SOL    HW177969   3.103  10.186  10.944  1.3385  1.2941 -1.7852
24044SOL    HW277970   3.097  10.055  10.869 -0.5544 -0.1515  0.7140
24045SOL     OW77971   3.186   5.161   6.177 -0.1494 -0.2814 -0.2055
24045SOL    HW177972   3.237   5.230   6.135 -0.1449 -1.0502 -1.4983
24045SOL    HW277973   3.229   5.080   6.151 -0.5333 -0.8223  0.7774
24046SOL     OW77974   8.164   2.348   1.852  0.1266  0.3808  0.4330
24046SOL    HW177975   8.221   2.419   1.881  1.6584 -0.0872 -1.2438
24046SOL    HW277976   8.171   2.349   1.757 -0.1136 -1.7903  0.3500
24047SOL     OW77977   3.734   6.814   9.993 -0.0320  0.4237 -0.6660
24047SOL    HW177978   3.666   6.796   9.928 -2.0750  0.8723  1.2325
24047SOL    HW277979   3.692   6.871  10.057  2.6315  1.9922 -0.1752
24048SOL     OW77980   0.780   5.004   9.086  0.6184  0.1532  0.5524
24048SOL    HW177981   0.783   5.099   9.077  2.4132  0.0987  0.3598
24048SOL    HW277982   0.740   4.973   9.005 -0.5814  0.7464  0.8829
24049SOL     OW77983  11.376   1.023   6.651  0.4990 -0.1783 -0.4720
24049SOL    HW177984  11.442   1.077   6.694  1.1820 -2.5267  1.6398
24049SOL    HW277985  11.360   1.066   6.567  1.7349  2.6541  0.6516
24050SOL     OW77986   4.942   5.799   9.355  0.1118  0.0826  0.1421
24050SOL    HW177987   4.867   5.740   9.351  0.9297 -0.9051 -1.6649
24050SOL    HW277988   4.986   5.776   9.437 -1.6914  0.9212  1.4085
24051SOL     OW77989   7.692   7.399   2.197  0.2559 -0.3775 -0.6972
24051SOL    HW177990   7.663   7.369   2.111 -1.0389  0.8652 -0.7364
24051SOL    HW277991   7.702   7.494   2.187 -1.5392  0.0514  0.9117
24052SOL     OW77992  10.090  11.036  10.625  0.1564 -0.0531 -0.8158
24052SOL    HW177993  10.108  11.115  10.675 -0.0920 -0.8470  0.6029
24052SOL    HW277994  10.154  11.036  10.554  1.2655  0.5679  0.1515
24053SOL     OW77995   1.501  11.107   6.772  0.0910  0.1766  0.1873
24053SOL    HW177996   1.505  11.050   6.849  0.3527  0.0423  0.0717
24053SOL    HW277997   1.412  11.144   6.775 -0.4686 -1.0963 -0.3698
24054SOL     OW77998   7.322  11.330   2.942 -0.6079 -0.4165 -0.2460
24054SOL    HW177999   7.404  11.303   2.900 -0.7272  0.3326 -0.9871
24054SOL    HW278000   7.258  11.329   2.871 -1.0183 -0.0267  0.1183
24055SOL     OW78001   9.647   3.907   4.521  0.0087  0.1544 -0.5448
24055SOL    HW178002   9.688   3.826   4.493  2.5353  1.2869 -0.4157
24055SOL    HW278003   9.632   3.896   4.615 -1.0187 -0.6462 -0.7799
24056SOL     OW78004   2.324  11.462   3.419 -0.2876  0.0819 -0.4730
24056SOL    HW178005   2.364  11.450   3.505 -0.5220 -1.5333 -0.5625
24056SOL    HW278006   2.261  11.391   3.411  0.2326 -0.2377 -2.2555
24057SOL     OW78007   9.745   6.763   3.124 -0.0773  0.3433 -0.4585
24057SOL    HW178008   9.714   6.834   3.181  1.6251  0.6815  0.1138
24057SOL    HW278009   9.713   6.683   3.165  2.4236  0.4489  2.0075
24058SOL     OW78010   0.758   8.377   4.600  0.7286  0.0576 -0.1681
24058SOL    HW178011   0.699   8.312   4.562 -1.9683  0.8739  2.2848
24058SOL    HW278012   0.818   8.325   4.654  0.4346 -0.6194 -0.4766
24059SOL     OW78013   1.035  10.373   0.752  0.0532  0.7862 -0.1384
24059SOL    HW178014   1.066  10.377   0.661  0.4927 -0.5214 -0.0674
24059SOL    HW278015   1.094  10.312   0.795  0.2805  1.9244  1.2283
24060SOL     OW78016   2.452  11.789   2.359  0.1524  0.1642 -0.7012
24060SOL    HW178017   2.362  11.820   2.367 -0.0534 -0.4570 -0.5841
24060SOL    HW278018   2.466  11.735   2.437  0.8299  0.7414 -0.4048
24061SOL     OW78019   6.632   7.850   7.124  0.2992 -0.1625 -1.3260
24061SOL    HW178020   6.617   7.780   7.187 -1.3004  1.5266  0.3113
24061SOL    HW278021   6.682   7.916   7.172 -1.8859  1.6452 -1.3920
24062SOL     OW78022  10.735   1.233   6.373  0.6441  0.1896  0.2715
24062SOL    HW178023  10.685   1.231   6.454 -2.0618 -0.2899 -1.2777
24062SOL    HW278024  10.809   1.174   6.389  0.3412  0.3167  2.4492
24063SOL     OW78025   8.184   2.321   3.470  0.2192 -0.2817  1.0004
24063SOL    HW178026   8.257   2.374   3.503 -0.0191  0.9228 -0.3151
24063SOL    HW278027   8.224   2.237   3.448  1.3981  0.5734 -0.3569
24064SOL     OW78028   6.340   0.494  10.318  0.4970 -0.1775  0.1790
24064SOL    HW178029   6.259   0.447  10.301  0.3325  0.4026 -0.7272
24064SOL    HW278030   6.407   0.425  10.319 -0.0776 -0.7610  1.7505
24065SOL     OW78031   1.898   2.021  10.520  0.3072 -0.4171 -0.1930
24065SOL    HW178032   1.832   2.002  10.587  0.5719  0.6928  0.3998
24065SOL    HW278033   1.904   1.940  10.470  0.0666 -1.2696  1.0914
24066SOL     OW78034   7.205   9.506  11.087 -0.0441  0.3078 -0.2331
24066SOL    HW178035   7.125   9.461  11.061  0.0113  1.2802 -2.3277
24066SOL    HW278036   7.197   9.593  11.048  2.9991 -0.2654 -2.5253
24067SOL     OW78037   1.813   2.028   9.700 -0.0521 -0.1709  0.3610
24067SOL    HW178038   1.808   1.939   9.735  0.6260 -0.9602 -1.4114
24067SOL    HW278039   1.872   2.021   9.625 -1.1890  1.4829 -0.7575
24068SOL     OW78040   7.375   1.578   6.541 -0.2276 -0.1222 -0.8561
24068SOL    HW178041   7.353   1.656   6.591 -0.1125 -1.0760  0.7386
24068SOL    HW278042   7.470   1.578   6.536 -0.2195 -0.2372 -0.7164
24069SOL     OW78043   6.690   0.188   6.517  0.2466  0.2004  0.3994
24069SOL    HW178044   6.660   0.116   6.461 -2.9014  1.5920  0.1081
24069SOL    HW278045   6.666   0.267   6.469  0.5666  1.4623  2.2153
24070SOL     OW78046   0.341   7.066   8.827  0.5546  0.3990  1.0138
24070SOL    HW178047   0.335   6.976   8.797  0.7263  0.6273  0.2721
24070SOL    HW278048   0.431   7.075   8.859  1.5282  1.1082 -1.6700
24071SOL     OW78049   5.113   8.238   7.575 -0.0991 -0.1037 -0.4657
24071SOL    HW178050   5.115   8.143   7.586  0.2622  0.0538  1.0449
24071SOL    HW278051   5.186   8.269   7.628  0.1630  0.9909 -1.4330
24072SOL     OW78052  10.962   2.738   1.706 -0.1801 -0.1495 -0.0534
24072SOL    HW178053  10.971   2.794   1.629 -0.4779 -0.3243 -0.2169
24072SOL    HW278054  10.870   2.714   1.708 -0.4141  0.7737  1.0120
24073SOL     OW78055   0.779   5.173   0.771 -0.2468 -0.4069  0.0412
24073SOL    HW178056   0.684   5.183   0.781 -0.5355 -0.0517 -2.5283
24073SOL    HW278057   0.793   5.079   0.762 -0.4192 -0.4119 -0.1667
24074SOL     OW78058   9.668   6.238   1.743 -0.3903 -0.5745 -0.2575
24074SOL    HW178059   9.735   6.170   1.741  2.1101  1.6604  0.7921
24074SOL    HW278060   9.635   6.236   1.832  0.0603 -0.1062 -0.0762
24075SOL     OW78061   5.770   5.049   4.074 -0.2321  0.0660  0.5267
24075SOL    HW178062   5.841   4.992   4.101 -0.2805  0.1787  0.9012
24075SOL    HW278063   5.727   5.075   4.156 -1.0574 -0.4529  0.2753
24076SOL     OW78064  10.184   3.882   5.142  0.2719 -0.2744  0.0924
24076SOL    HW178065  10.148   3.932   5.215 -0.5362 -0.8131  0.0875
24076SOL    HW278066  10.146   3.923   5.064  0.1853 -0.4383  0.0477
24077SOL     OW78067  11.222   8.009   3.400 -0.2529 -0.1306 -0.6664
24077SOL    HW178068  11.195   7.954   3.327 -0.4991 -1.0217  0.0865
24077SOL    HW278069  11.213   8.099   3.367  1.1006 -0.5170 -2.2528
24078SOL     OW78070   9.078   5.526   2.593 -0.0289 -0.1869 -0.2549
24078SOL    HW178071   8.993   5.565   2.571 -0.7096 -1.5494 -0.1627
24078SOL    HW278072   9.129   5.533   2.512  0.0930  1.3734 -0.0792
24079SOL     OW78073   5.416   8.307   5.137  0.4169 -0.3636  0.6316
24079SOL    HW178074   5.442   8.216   5.151 -2.0419 -1.2937 -0.2237
24079SOL    HW278075   5.354   8.325   5.208 -0.2183  0.1483 -0.0392
24080SOL     OW78076   5.532   5.102  11.883  0.1326 -0.0322  0.4385
24080SOL    HW178077   5.565   5.085  11.794  0.1562  0.0854  0.4245
24080SOL    HW278078   5.443   5.067  11.882 -0.0566  0.4520  0.2050
24081SOL     OW78079   2.852   5.395  12.235  0.0031  0.0828  0.2738
24081SOL    HW178080   2.924   5.341  12.204 -0.0128  0.8735 -1.1924
24081SOL    HW278081   2.807   5.340  12.300 -1.0184 -2.4061 -2.3203
24082SOL     OW78082   8.249   8.295   2.671  0.4251 -0.2476  0.8097
24082SOL    HW178083   8.323   8.264   2.619  2.0585  2.9241  0.9916
24082SOL    HW278084   8.198   8.348   2.610  0.4979  0.7558  1.5976
24083SOL     OW78085   9.874   9.599   2.743  0.4681  0.3547 -0.6360
24083SOL    HW178086   9.851   9.684   2.779  1.0959  0.0119  0.6115
24083SOL    HW278087   9.836   9.599   2.655 -0.7544  1.3639 -0.1296
24084SOL     OW78088   1.702  11.493   0.315 -0.1328 -0.1631  0.2946
24084SOL    HW178089   1.726  11.468   0.226  1.0678  1.6065  0.0630
24084SOL    HW278090   1.782  11.532   0.351 -1.1582  0.9425  1.4507
24085SOL     OW78091   8.894   6.023   7.114 -0.1310  0.1450 -0.2734
24085SOL    HW178092   8.851   6.080   7.177 -0.1271 -0.3765  0.2018
24085SOL    HW278093   8.886   5.935   7.150 -2.1176 -0.5014 -2.0665
24086SOL     OW78094   6.647  10.472   5.065  0.4546 -0.4202 -0.2637
24086SOL    HW178095   6.574  10.509   5.116 -1.2511 -0.8239 -2.2804
24086SOL    HW278096   6.648  10.380   5.089  1.0589 -0.2032  0.5925
24087SOL     OW78097   0.332  11.337   7.103 -0.4246 -0.5258  0.2345
24087SOL    HW178098   0.302  11.374   7.020  0.1426 -1.2115 -0.2929
24087SOL    HW278099   0.252  11.319   7.152 -0.8812 -1.7042 -0.8712
24088SOL     OW78100  10.438   3.787   7.830  0.1633 -0.2155 -0.2183
24088SOL    HW178101  10.453   3.739   7.912 -1.3703 -0.2552  0.0583
24088SOL    HW278102  10.470   3.727   7.762 -0.3252 -1.0011  0.2272
24089SOL     OW78103   6.810   3.837   0.969 -0.0687  0.7330 -0.2290
24089SOL    HW178104   6.756   3.764   0.937  1.3665  0.4708 -2.2119
24089SOL    HW278105   6.799   3.906   0.904 -0.4522  1.8893  1.0094
24090SOL     OW78106   8.306   7.889   5.607  0.4699  0.5735  0.9463
24090SOL    HW178107   8.318   7.957   5.540  1.5985 -0.3714  0.1468
24090SOL    HW278108   8.394   7.874   5.641  0.1383 -0.0813  1.5291
24091SOL     OW78109   7.856  10.355   2.379  0.4104  0.2774 -0.6571
24091SOL    HW178110   7.933  10.300   2.398  0.1247  0.2749  0.5473
24091SOL    HW278111   7.840  10.404   2.459 -1.2124 -0.1630 -0.6720
24092SOL     OW78112   0.358   8.357   2.042 -0.4018 -0.4644 -0.2540
24092SOL    HW178113   0.298   8.393   2.108 -1.2697  0.2238 -1.3612
24092SOL    HW278114   0.443   8.396   2.062 -1.2440  2.0869 -1.2158
24093SOL     OW78115   7.251   0.160   5.395 -0.1388 -0.0529  0.0066
24093SOL    HW178116   7.227   0.125   5.481  0.0654 -0.3826 -0.0696
24093SOL    HW278117   7.214   0.097   5.333  0.9945 -0.6280 -0.1127
24094SOL     OW78118   5.219   1.292  10.841  0.5738  0.4026  0.1493
24094SOL    HW178119   5.165   1.213  10.843  2.5168 -0.9882  2.1345
24094SOL    HW278120   5.269   1.284  10.760  1.2950 -0.8251  0.6925
24095SOL     OW78121   6.767   5.472   6.444  0.3156 -0.1526 -0.4360
24095SOL    HW178122   6.768   5.400   6.508  2.8009 -0.9074 -1.2120
24095SOL    HW278123   6.755   5.428   6.360  2.2065  0.2465 -0.9508
24096SOL     OW78124   2.642   1.493   8.604  0.1287 -0.2752  0.2699
24096SOL    HW178125   2.649   1.410   8.651  1.3943 -0.3875 -0.0691
24096SOL    HW278126   2.724   1.499   8.554  0.1339  1.2392  0.4074
24097SOL     OW78127   3.361   9.781   8.133 -0.1322 -0.1845  0.3137
24097SOL    HW178128   3.324   9.695   8.116  0.3059 -0.2764 -0.2288
24097SOL    HW278129   3.446   9.763   8.174 -1.1442  0.0342  2.6132
24098SOL     OW78130   5.371   7.157   9.729 -0.2209  0.3811 -0.1089
24098SOL    HW178131   5.396   7.110   9.649  0.8386 -0.0675  0.4782
24098SOL    HW278132   5.340   7.089   9.788 -0.9979  0.7140 -0.1154
24099SOL     OW78133  11.582  11.701   2.265 -0.0039 -0.4142  0.0800
24099SOL    HW178134  11.670  11.683   2.231  0.0618  2.4829 -1.5528
24099SOL    HW278135  11.528  11.629   2.231  1.5201 -1.7758  0.4096
24100SOL     OW78136   6.337   1.215   5.519 -0.3739 -0.1375 -0.3488
24100SOL    HW178137   6.405   1.281   5.504 -1.2528  0.9450  0.2480
24100SOL    HW278138   6.381   1.146   5.569  0.6121 -0.1038 -1.1516
24101SOL     OW78139  10.459   0.044   8.814  0.3102 -0.0024  0.5585
24101SOL    HW178140  10.436   0.120   8.868  0.9588 -1.9115  3.7553
24101SOL    HW278141  10.554   0.051   8.803  0.3994 -0.4626  1.0339
24102SOL     OW78142   4.910   0.829  11.355  0.6852  0.3471 -0.2871
24102SOL    HW178143   4.902   0.891  11.283 -0.2658  1.2244  0.5347
24102SOL    HW278144   5.004   0.823  11.371  0.8541  0.7192 -1.1050
24103SOL     OW78145   2.617   4.213   7.442 -0.4663 -0.0700 -0.5118
24103SOL    HW178146   2.604   4.226   7.536 -0.8618  1.6862 -0.7825
24103SOL    HW278147   2.670   4.287   7.414 -0.0784 -0.7475 -1.6377
24104SOL     OW78148  10.652   8.911   4.437 -0.1223 -0.0179  0.2145
24104SOL    HW178149  10.627   8.820   4.450  1.0616 -0.3068  0.5489
24104SOL    HW278150  10.637   8.952   4.522 -3.3264  0.8079 -0.6135
24105SOL     OW78151   3.589   0.428   6.777 -0.3041  0.2070 -0.9469
24105SOL    HW178152   3.658   0.396   6.718 -1.5963  0.2256 -2.5419
24105SOL    HW278153   3.629   0.502   6.822  1.0062 -0.3313 -1.1698
24106SOL     OW78154   9.272   2.745   8.975 -0.1181  0.0863  0.0755
24106SOL    HW178155   9.232   2.712   9.055  1.9108  0.3261  1.2512
24106SOL    HW278156   9.199   2.752   8.913 -1.6599 -0.5615  1.7261
24107SOL     OW78157   3.388   2.343   3.071 -0.0014 -0.4165  0.3776
24107SOL    HW178158   3.484   2.335   3.069  0.3447  1.9326  2.5408
24107SOL    HW278159   3.362   2.297   3.150 -0.7554 -1.2829 -0.3429
24108SOL     OW78160   3.472   5.904   4.717  0.1198 -0.1692 -0.2128
24108SOL    HW178161   3.453   5.891   4.624  0.9408 -0.3940 -0.3574
24108SOL    HW278162   3.401   5.858   4.762  0.7389 -1.6946 -0.7302
24109SOL     OW78163   3.101   8.337   6.619  0.3294  0.1023  0.6638
24109SOL    HW178164   3.030   8.344   6.555 -0.0462 -2.1621  0.7558
24109SOL    HW278165   3.082   8.257   6.668  2.3271  0.0565  1.4732
24110SOL     OW78166   8.270   4.077   3.191 -0.4597 -0.3982  0.1021
24110SOL    HW178167   8.339   4.118   3.244  0.0576  1.9364 -2.1895
24110SOL    HW278168   8.193   4.132   3.205 -1.2747 -1.6822  0.8825
24111SOL     OW78169   7.361   2.245   5.347 -0.2577  0.5092 -0.2804
24111SOL    HW178170   7.398   2.156   5.339 -1.0912  0.1814 -0.5815
24111SOL    HW278171   7.336   2.252   5.439  0.3984  0.6731 -0.1112
24112SOL     OW78172   9.700  11.121   7.768  0.3019 -0.2391  0.2581
24112SOL    HW178173   9.768  11.188   7.768 -1.1700  1.3960 -1.5252
24112SOL    HW278174   9.747  11.038   7.756  1.9560  0.9162 -2.0619
24113SOL     OW78175   6.037   0.320  10.732  0.7770 -0.2032 -0.0528
24113SOL    HW178176   6.036   0.358  10.644  0.5511 -0.2064 -0.0519
24113SOL    HW278177   6.065   0.393  10.789 -5.7584  2.2078  0.9409
24114SOL     OW78178   4.193   4.121   7.036 -0.3644  0.6206 -0.0477
24114SOL    HW178179   4.101   4.122   7.012 -0.3229 -2.6016 -0.8099
24114SOL    HW278180   4.238   4.096   6.955  1.0377  0.6815  0.6860
24115SOL     OW78181  11.693  11.048   1.531  0.7034  0.1789 -0.7861
24115SOL    HW178182  11.735  10.990   1.593 -1.9018 -2.6635 -1.4390
24115SOL    HW278183  11.682  10.995   1.452  1.3729  2.7670 -2.7712
24116SOL     OW78184   8.134  11.342   1.457 -0.0643 -0.7088 -0.1398
24116SOL    HW178185   8.185  11.423   1.462 -0.3475 -0.4813 -0.8457
24116SOL    HW278186   8.072  11.357   1.385 -2.5050 -0.2099  1.9252
24117SOL     OW78187   8.750   1.748   2.980 -0.6331  0.4938  0.3478
24117SOL    HW178188   8.677   1.792   2.938 -2.3875  0.1071  2.7998
24117SOL    HW278189   8.738   1.655   2.958 -1.4896  0.3054  1.5124
24118SOL     OW78190   7.101  11.572   6.519  0.2945 -0.0468 -0.2381
24118SOL    HW178191   7.009  11.567   6.491  0.0980 -0.5933  0.4746
24118SOL    HW278192   7.144  11.623   6.451 -0.4190 -0.2974 -0.8947
24119SOL     OW78193   6.850   0.986   7.768 -0.2630  0.0399  0.4207
24119SOL    HW178194   6.814   1.068   7.733 -0.7416 -0.6729 -0.8537
24119SOL    HW278195   6.785   0.920   7.744 -0.3875 -0.5879  2.3350
24120SOL     OW78196  10.888  10.079   7.702  0.0362 -0.2952 -0.1326
24120SOL    HW178197  10.866  10.167   7.671 -0.4179 -0.1747  0.5112
24120SOL    HW278198  10.841  10.020   7.643 -0.5900 -0.0752  0.1426
24121SOL     OW78199   6.348   7.953  12.245  1.1012  0.2507  0.1656
24121SOL    HW178200   6.310   7.986  12.326  0.4339 -1.0816  0.4108
24121SOL    HW278201   6.276   7.951  12.183  1.1577 -0.6017  0.1173
24122SOL     OW78202   7.774   0.169   8.649  0.2606  0.1268 -0.0846
24122SOL    HW178203   7.795   0.131   8.734 -0.7723  1.2273  0.6915
24122SOL    HW278204   7.808   0.258   8.654  1.1104 -0.1187 -1.2258
24123SOL     OW78205   7.126   9.514   9.284 -0.0566 -0.0974 -0.4309
24123SOL    HW178206   7.113   9.424   9.315  0.7052  0.0416  0.3105
24123SOL    HW278207   7.101   9.569   9.358 -0.9294  0.3392 -1.0203
24124SOL     OW78208  10.279   6.166  10.774 -0.0870  0.0741 -0.0357
24124SOL    HW178209  10.367   6.202  10.759  0.0836 -0.5977 -0.6649
24124SOL    HW278210  10.256   6.124  10.692 -0.4817 -0.8478  0.5369
24125SOL     OW78211   6.911   7.318   4.650 -0.2015  0.3476 -0.3711
24125SOL    HW178212   6.974   7.293   4.718 -0.2411  1.2054 -0.0171
24125SOL    HW278213   6.965   7.359   4.582 -0.2805  0.3217 -0.4498
24126SOL     OW78214   3.866  10.140   7.282  0.1368 -0.1505  0.3735
24126SOL    HW178215   3.776  10.171   7.289 -0.1076 -0.6795 -0.3845
24126SOL    HW278216   3.865  10.053   7.323  0.3532 -0.0627  0.5682
24127SOL     OW78217  12.330   2.758   0.103 -0.2749  0.8222 -0.8762
24127SOL    HW178218  12.310   2.827   0.040  1.5407  0.1629 -2.2890
24127SOL    HW278219  12.422   2.737   0.087 -0.1885 -0.4681  0.9619
24128SOL     OW78220   6.820   3.363  10.661  0.4077  0.0232  0.7177
24128SOL    HW178221   6.849   3.413  10.736 -2.8786 -1.6066  3.3193
24128SOL    HW278222   6.836   3.272  10.685 -1.3402 -0.5848 -0.2406
24129SOL     OW78223   1.233   8.217  11.780 -0.2695 -0.3703 -0.2138
24129SOL    HW178224   1.295   8.214  11.853 -1.0402  1.5481  0.5761
24129SOL    HW278225   1.268   8.284  11.721 -0.7573 -0.4233 -0.5696
24130SOL     OW78226   0.505  10.627   5.718 -0.1727 -0.9291  0.7251
24130SOL    HW178227   0.483  10.574   5.641  1.1184 -1.1694  0.5001
24130SOL    HW278228   0.475  10.715   5.696  0.5563 -0.9057 -0.2427
24131SOL     OW78229   4.551   9.253  10.366  0.0793 -0.4158  0.7107
24131SOL    HW178230   4.519   9.167  10.340  0.6818 -0.5455  0.3898
24131SOL    HW278231   4.603   9.236  10.445  2.6096 -0.7884 -0.9476
24132SOL     OW78232   3.929   5.916   6.258  0.2349 -0.5044  0.1159
24132SOL    HW178233   3.857   5.974   6.284 -2.0764 -2.5903 -1.1906
24132SOL    HW278234   3.933   5.851   6.327  0.3211 -0.8302 -0.1930
24133SOL     OW78235   2.777  12.205   3.457  0.2940 -0.2044 -0.1719
24133SOL    HW178236   2.788  12.110   3.458  1.8671 -0.0404 -0.4616
24133SOL    HW278237   2.863  12.239   3.435 -0.0508  1.3271  0.7271
24134SOL     OW78238   3.717   7.212  12.255 -0.1105  0.4884  0.2320
24134SOL    HW178239   3.660   7.203  12.331  0.0846  1.8814  0.5701
24134SOL    HW278240   3.762   7.127  12.248 -2.3176 -0.7077 -0.1631
24135SOL     OW78241   7.929   2.141   0.587 -0.2238  0.1164  0.1896
24135SOL    HW178242   7.859   2.183   0.637  1.0789  3.1765 -0.3285
24135SOL    HW278243   7.894   2.054   0.565 -3.7665  1.3865  0.1501
24136SOL     OW78244   9.599   5.557   1.357 -0.0461 -0.2750  0.1614
24136SOL    HW178245   9.667   5.573   1.423  0.7315  0.9715 -0.8941
24136SOL    HW278246   9.634   5.484   1.305  0.4043  0.2073 -0.2310
24137SOL     OW78247  11.466   1.326   5.417 -0.3208 -0.6202 -0.3498
24137SOL    HW178248  11.402   1.274   5.369 -0.7607 -0.7865  0.4054
24137SOL    HW278249  11.417   1.401   5.450  0.4603  0.7494 -2.0809
24138SOL     OW78250   1.956  10.540   3.921 -0.6976 -0.1136  0.0139
24138SOL    HW178251   1.972  10.450   3.894  0.9594 -0.1245  0.9001
24138SOL    HW278252   1.873  10.563   3.880 -1.2370 -2.0822 -0.0975
24139SOL     OW78253   9.546  10.352   3.196  0.1180 -0.0604 -0.2161
24139SOL    HW178254   9.541  10.447   3.195 -0.1574 -0.0585  0.5753
24139SOL    HW278255   9.455  10.323   3.193  0.2119 -0.3008 -0.6897
24140SOL     OW78256   2.356   1.566   5.932  0.0451 -0.3952 -0.1960
24140SOL    HW178257   2.360   1.489   5.876  2.2106 -0.7936  0.4285
24140SOL    HW278258   2.342   1.531   6.020 -1.5151  0.1248 -0.1915
24141SOL     OW78259   1.829  11.823   4.235  0.0084  0.8397 -0.7663
24141SOL    HW178260   1.769  11.783   4.298  0.6018  0.6597 -0.3089
24141SOL    HW278261   1.906  11.766   4.234 -0.3320  0.3377 -2.3260
24142SOL     OW78262   5.458   9.344   0.948  0.1705 -0.6301  0.0063
24142SOL    HW178263   5.485   9.389   1.028  0.2244 -1.6751  0.5891
24142SOL    HW278264   5.438   9.255   0.976 -1.2274 -0.6222 -0.9003
24143SOL     OW78265   0.613   6.338   6.345 -0.4746 -0.8154  0.5200
24143SOL    HW178266   0.665   6.414   6.372  2.5534 -3.1622  1.9038
24143SOL    HW278267   0.594   6.354   6.252 -0.6355  1.9162  0.9422
24144SOL     OW78268   6.357  11.435   8.271  0.1467  0.0713  0.0498
24144SOL    HW178269   6.278  11.459   8.221  0.2634 -0.8819 -0.6234
24144SOL    HW278270   6.369  11.342   8.253  0.6986 -0.0963  1.1867
24145SOL     OW78271   5.232   8.528   8.389  0.0068  0.4833 -0.0912
24145SOL    HW178272   5.147   8.563   8.363  0.0475 -0.1096 -1.0298
24145SOL    HW278273   5.265   8.483   8.312  0.7395 -0.1379  0.5651
24146SOL     OW78274   9.321   1.108   1.600 -0.7357 -0.3467  0.1753
24146SOL    HW178275   9.300   1.198   1.625 -0.3543 -0.1208 -0.3065
24146SOL    HW278276   9.406   1.114   1.557 -1.3978 -0.7136 -1.2433
24147SOL     OW78277   1.190   5.808  11.534  0.1181  0.3015  0.2112
24147SOL    HW178278   1.205   5.736  11.472 -0.5230  1.1222 -0.9155
24147SOL    HW278279   1.103   5.791  11.568 -0.9440  1.6659 -1.6583
24148SOL     OW78280   5.875   1.723   8.078 -0.4270 -0.0370 -0.4149
24148SOL    HW178281   5.925   1.763   8.149 -1.9963  0.3648  0.5067
24148SOL    HW278282   5.849   1.638   8.113  1.3570 -1.1824 -1.6933
24149SOL     OW78283   0.366   9.923   9.661 -0.3032  0.3227  0.9674
24149SOL    HW178284   0.320   9.890   9.584 -0.8119  0.4373  1.2139
24149SOL    HW278285   0.413  10.001   9.631  0.4001 -0.2609  0.5243
24150SOL     OW78286   5.829  10.287   9.905  0.2894  0.1598  0.0126
24150SOL    HW178287   5.793  10.376   9.911 -0.3776 -0.1405  0.6063
24150SOL    HW278288   5.795  10.242   9.982  0.9441 -0.5048 -0.0733
24151SOL     OW78289  10.070   8.165   6.582 -0.4988  0.2295 -0.2047
24151SOL    HW178290  10.004   8.097   6.568  1.1980 -1.3742 -0.8786
24151SOL    HW278291  10.120   8.135   6.658 -0.5676  1.4599  0.3548
24152SOL     OW78292   9.429   8.880  10.526 -0.2611  0.0061 -0.7797
24152SOL    HW178293   9.480   8.932  10.464  1.7192  0.5279  1.1605
24152SOL    HW278294   9.341   8.878  10.489  1.0114 -0.5090 -4.0384
24153SOL     OW78295   1.343   6.975  10.918 -0.5703 -0.4574  0.2008
24153SOL    HW178296   1.273   7.000  10.978  0.4658 -0.1497  1.3439
24153SOL    HW278297   1.299   6.934  10.844 -1.9407 -0.2973  0.9022
24154SOL     OW78298   4.465   5.674   9.466 -0.3297 -0.3635 -0.2251
24154SOL    HW178299   4.506   5.707   9.546 -0.8768 -2.0678  0.8147
24154SOL    HW278300   4.380   5.640   9.495 -1.1663  0.2616 -1.7937
24155SOL     OW78301   1.233  11.150   5.102  0.6852 -0.2687 -0.2170
24155SOL    HW178302   1.203  11.060   5.102  0.6756 -0.2791  0.5879
24155SOL    HW278303   1.155  11.202   5.124  1.2642 -0.3316  2.2906
24156SOL     OW78304   5.824  11.121   1.913  0.4214 -0.0104 -0.7086
24156SOL    HW178305   5.883  11.193   1.889  2.1422  0.5187  4.0538
24156SOL    HW278306   5.751  11.165   1.957  0.7233 -1.0305  0.8797
24157SOL     OW78307   7.521   3.122   9.831  0.0652  0.1512 -0.0396
24157SOL    HW178308   7.616   3.119   9.838  0.3596  1.1653 -2.4848
24157SOL    HW278309   7.504   3.154   9.742 -2.5665 -1.9077 -0.4192
24158SOL     OW78310   5.713   3.771   7.651  0.6305  0.3894 -0.2935
24158SOL    HW178311   5.672   3.832   7.712  0.7221  0.3026 -0.1454
24158SOL    HW278312   5.639   3.721   7.615  0.4140  1.4940 -1.4277
24159SOL     OW78313  10.944   8.937   7.274 -0.5964  0.6466 -0.4521
24159SOL    HW178314  11.025   8.946   7.324 -0.2338  1.6238 -1.1948
24159SOL    HW278315  10.874   8.957   7.337 -0.1950  0.9231 -0.0914
24160SOL     OW78316   7.029   5.374   2.310  0.7369  0.7359  0.3464
24160SOL    HW178317   7.024   5.432   2.386  0.7031  1.6169 -0.3141
24160SOL    HW278318   7.020   5.285   2.347 -0.4726  1.1950  1.2509
24161SOL     OW78319   6.736  10.043  10.668 -0.1944 -0.3804  0.4875
24161SOL    HW178320   6.771   9.973  10.723  0.3193 -0.8301 -0.3920
24161SOL    HW278321   6.780  10.122  10.698 -0.6200 -0.4565  1.3461
24162SOL     OW78322   9.950   4.416   0.513 -0.1563  0.1592  0.3848
24162SOL    HW178323   9.883   4.435   0.447 -0.6802  0.0592  0.8761
24162SOL    HW278324   9.940   4.322   0.530  1.3702 -0.2782 -0.8867
24163SOL     OW78325   7.200   9.676   6.027  0.6764 -0.6203 -0.0133
24163SOL    HW178326   7.161   9.593   6.054  0.7044 -0.4934  0.4363
24163SOL    HW278327   7.137   9.714   5.966  0.5119 -0.8235  0.0273
24164SOL     OW78328  12.052   4.828   2.587  0.1522 -0.0971 -0.0659
24164SOL    HW178329  12.056   4.800   2.679  0.7643 -0.0734 -0.0821
24164SOL    HW278330  11.988   4.900   2.587  0.3121  0.0478  0.3816
24165SOL     OW78331   7.734   8.828   0.335  0.1505  0.1354  0.0445
24165SOL    HW178332   7.780   8.857   0.256  2.3005 -2.5808  0.1719
24165SOL    HW278333   7.757   8.892   0.402  0.1081  1.2438 -0.9763
24166SOL     OW78334  11.418  11.521   0.257  0.6397  0.1828 -0.5042
24166SOL    HW178335  11.452  11.578   0.187 -0.7946  3.4271  1.2049
24166SOL    HW278336  11.324  11.516   0.240  0.6223 -1.0938 -0.1477
24167SOL     OW78337   3.255   2.270  12.127 -0.4253  0.3908 -0.1399
24167SOL    HW178338   3.161   2.279  12.108 -0.3647  2.5781  0.3157
24167SOL    HW278339   3.260   2.203  12.194 -1.2447 -2.6607 -2.8776
24168SOL     OW78340  11.626   6.082   5.244 -0.0171 -0.0140  0.4289
24168SOL    HW178341  11.689   6.150   5.267 -0.6169  1.0719 -0.9957
24168SOL    HW278342  11.676   6.016   5.197  0.9610 -1.6051  3.4632
24169SOL     OW78343   6.285   9.229   7.988 -0.6466  0.0921  0.9456
24169SOL    HW178344   6.228   9.302   8.013  2.1789  4.0783 -2.7443
24169SOL    HW278345   6.362   9.238   8.044  0.0063  0.4397  0.0095
24170SOL     OW78346   6.382   2.436  10.347 -0.6839  0.2353  0.7767
24170SOL    HW178347   6.380   2.513  10.403 -0.5069  0.9956 -0.2422
24170SOL    HW278348   6.465   2.441  10.301 -1.5571  0.5963 -0.8474
24171SOL     OW78349   5.217   2.040   9.131  0.1369 -0.2124 -0.7904
24171SOL    HW178350   5.310   2.027   9.149 -0.0825 -1.5049 -0.4609
24171SOL    HW278351   5.181   2.074   9.213  0.2933  0.1421 -0.8701
24172SOL     OW78352   5.517   6.291   9.745  0.0219  0.0956 -0.2231
24172SOL    HW178353   5.577   6.225   9.778  1.2841  1.0498 -0.5415
24172SOL    HW278354   5.460   6.244   9.684  1.7795 -0.4625 -1.5046
24173SOL     OW78355   3.606   3.871   5.385 -0.3695  0.0399  0.1139
24173SOL    HW178356   3.637   3.813   5.315  1.9847  0.2426  0.9114
24173SOL    HW278357   3.633   3.827   5.466 -0.5321  1.1725  0.7994
24174SOL     OW78358  12.321  11.349   5.154  0.0889  0.1229 -0.4154
24174SOL    HW178359  12.355  11.324   5.240 -1.5806 -1.2334 -0.0949
24174SOL    HW278360  12.349  11.278   5.096  0.9105  0.8578 -0.9435
24175SOL     OW78361   4.760  11.007   0.551  0.5286  0.2891 -0.2411
24175SOL    HW178362   4.672  10.981   0.579  1.0151  0.1454  1.2272
24175SOL    HW278363   4.817  10.938   0.582  1.2180  0.5617 -0.8691
24176SOL     OW78364  10.985   4.306   5.829  1.0764 -0.1483  0.0572
24176SOL    HW178365  11.013   4.360   5.903  0.7873  1.1907 -0.7827
24176SOL    HW278366  11.023   4.349   5.752 -1.6014  0.6063 -0.9331
24177SOL     OW78367   7.562   0.689   5.706 -0.0054 -0.2073  0.3691
24177SOL    HW178368   7.490   0.659   5.762  0.3234 -0.6151  0.5753
24177SOL    HW278369   7.611   0.610   5.685  0.7406  0.1427  0.7348
24178SOL     OW78370   0.433   9.679  11.640  0.1866  0.4637  0.1746
24178SOL    HW178371   0.405   9.712  11.555 -0.8155 -1.4280 -0.2748
24178SOL    HW278372   0.524   9.709  11.649  0.3752  0.5040 -1.6365
24179SOL     OW78373   7.853  10.713   0.294 -0.3024 -0.1380  0.4976
24179SOL    HW178374   7.809  10.797   0.299  0.2256  0.0991  1.4818
24179SOL    HW278375   7.849  10.678   0.384  0.7908 -0.4701  0.4361
24180SOL     OW78376   2.500   2.410  10.945 -0.3416 -0.3225 -0.5152
24180SOL    HW178377   2.494   2.363  10.861  1.5492 -0.2039 -0.7588
24180SOL    HW278378   2.491   2.502  10.922 -3.0932 -0.4028 -0.1444
24181SOL     OW78379   3.640   2.064  11.750  0.2647  0.4626  0.2273
24181SOL    HW178380   3.567   2.003  11.748 -1.2589  2.1656  0.9198
24181SOL    HW278381   3.600   2.149  11.766  2.4708  1.3771  1.4006
24182SOL     OW78382   8.904  10.460   8.661 -0.2883 -0.9643 -0.2166
24182SOL    HW178383   8.839  10.413   8.609 -1.0117  0.4721 -0.6665
24182SOL    HW278384   8.914  10.408   8.740 -0.3537 -2.3542 -1.0928
24183SOL     OW78385   2.404   7.668   9.567 -0.0863 -0.3644  0.1827
24183SOL    HW178386   2.474   7.731   9.550 -0.7721  0.4319  0.2188
24183SOL    HW278387   2.399   7.662   9.662 -0.8463  0.5052  0.2143
24184SOL     OW78388   4.425  11.742  12.040  0.1570 -0.2521 -0.4345
24184SOL    HW178389   4.330  11.738  12.057  0.2993  0.0305  0.5213
24184SOL    HW278390   4.437  11.692  11.959 -1.2919  2.7733 -2.7018
24185SOL     OW78391   3.266  10.027   8.482  0.1569  0.3451 -0.2456
24185SOL    HW178392   3.353  10.006   8.448  0.7385 -0.6330  1.6818
24185SOL    HW278393   3.207   9.969   8.435  0.9050 -0.8440  0.2377
24186SOL     OW78394   0.847   7.502   8.978 -0.3426 -0.1422  0.4300
24186SOL    HW178395   0.854   7.578   8.920 -1.3141  0.6041  1.2405
24186SOL    HW278396   0.929   7.501   9.027 -0.3045  0.3851  0.3842
24187SOL     OW78397  11.232   1.086   5.729  0.5899  0.0291 -0.2609
24187SOL    HW178398  11.254   1.067   5.820 -1.0295 -0.2333  0.1034
24187SOL    HW278399  11.272   1.015   5.679  0.1257 -0.7279  0.4194
24188SOL     OW78400   5.157   7.459   0.150 -0.1583 -0.3246  0.6369
24188SOL    HW178401   5.135   7.374   0.110 -1.7732 -0.3271  1.4685
24188SOL    HW278402   5.133   7.449   0.242  1.2413  0.4888  1.1213
24189SOL     OW78403  11.374   9.697   2.030 -0.6177 -0.0192 -0.6795
24189SOL    HW178404  11.362   9.618   1.977 -0.6957 -1.6121  1.5758
24189SOL    HW278405  11.298   9.698   2.089  1.0157 -0.1756  1.5517
24190SOL     OW78406   1.925  10.290   7.399 -0.5037  0.8115  0.5503
24190SOL    HW178407   2.015  10.323   7.401  0.9525 -1.8605 -4.1674
24190SOL    HW278408   1.879  10.349   7.339 -1.2277  0.7256  0.9987
24191SOL     OW78409  10.684   9.511   7.430  0.0759 -0.6355  0.3715
24191SOL    HW178410  10.718   9.576   7.368  1.2998  0.9467  2.5646
24191SOL    HW278411  10.762   9.467   7.464 -0.6596 -2.4322 -0.1434
24192SOL     OW78412   0.306   5.241   3.602  0.2291 -0.1920 -0.3887
24192SOL    HW178413   0.380   5.193   3.564  0.9043  1.0960 -0.7687
24192SOL    HW278414   0.250   5.262   3.527  0.4048  0.3862 -0.3639
24193SOL     OW78415  10.289   9.205   5.485 -0.3113  0.3006  0.0567
24193SOL    HW178416  10.375   9.171   5.460 -0.6064 -0.4740  0.0725
24193SOL    HW278417  10.309   9.286   5.533  0.3733  0.4649 -0.4766
24194SOL     OW78418   7.831   9.282   3.648 -0.1463 -0.1488  0.9542
24194SOL    HW178419   7.783   9.329   3.715  0.5175  0.4555  1.0103
24194SOL    HW278420   7.891   9.225   3.696  0.2490  0.2010  0.8762
24195SOL     OW78421   3.697   5.367   7.950  0.1299 -0.0106 -0.2163
24195SOL    HW178422   3.606   5.384   7.926  0.6485  0.4876 -1.9439
24195SOL    HW278423   3.707   5.273   7.938  0.1225  0.0926 -1.1021
24196SOL     OW78424  10.929   0.551   2.244  0.2185  0.3977 -0.0978
24196SOL    HW178425  10.920   0.563   2.150  0.4138 -1.9202 -0.4616
24196SOL    HW278426  11.016   0.586   2.265  0.0545  1.1898 -0.6916
24197SOL     OW78427   3.443   9.702   8.657 -0.2543 -0.2287  0.6816
24197SOL    HW178428   3.510   9.769   8.643 -0.3176 -0.4352 -0.7685
24197SOL    HW278429   3.462   9.668   8.745  2.5242 -1.2948 -0.2076
24198SOL     OW78430   2.378   9.479   7.121 -0.1787 -0.0449 -0.3281
24198SOL    HW178431   2.312   9.509   7.184 -1.0884 -3.4474  0.5555
24198SOL    HW278432   2.416   9.560   7.086 -2.8616  2.0416  1.1599
24199SOL     OW78433   0.810   6.838   0.958 -0.3631 -0.4659  0.0286
24199SOL    HW178434   0.739   6.808   0.901 -0.1336  0.2468 -0.6472
24199SOL    HW278435   0.871   6.764   0.961  0.3413 -0.0238 -1.8554
24200SOL     OW78436   9.917   1.518   4.716 -0.0694  0.0516  0.1768
24200SOL    HW178437   9.932   1.463   4.639 -1.7347  0.1026 -0.2246
24200SOL    HW278438  10.005   1.537   4.749  0.6612 -0.4954 -1.3375
24201SOL     OW78439   7.199   5.746  12.196 -0.1374  0.3029  0.3500
24201SOL    HW178440   7.147   5.824  12.176 -0.2102  0.3881  0.8507
24201SOL    HW278441   7.135   5.681  12.225 -0.1552 -0.1801 -0.7263
24202SOL     OW78442   6.818   7.986   6.747  0.0167  0.1353  0.2697
24202SOL    HW178443   6.764   7.999   6.824  0.0388  0.3564  0.2497
24202SOL    HW278444   6.768   8.025   6.675 -0.3091 -0.6630  0.0510
24203SOL     OW78445   8.362   0.449  11.072  0.0395  0.2664 -0.0377
24203SOL    HW178446   8.303   0.517  11.105 -0.4531  0.5504 -1.4371
24203SOL    HW278447   8.424   0.434  11.144 -1.1764  0.6131  1.1169
24204SOL     OW78448   6.028   5.084   3.484  0.2143 -0.4100 -0.4218
24204SOL    HW178449   6.108   5.043   3.451  0.6555 -0.4014  0.5934
24204SOL    HW278450   6.011   5.155   3.422  1.9288  0.6325  0.1984
24205SOL     OW78451   1.136   6.192   4.635 -0.3178 -0.2514  0.9780
24205SOL    HW178452   1.042   6.186   4.653  0.0366 -0.0702  3.0725
24205SOL    HW278453   1.175   6.216   4.718  1.4740  1.0419 -0.1623
24206SOL     OW78454   2.993   8.935   6.045  0.1415 -0.1839  0.0518
24206SOL    HW178455   3.078   8.971   6.019  0.2974 -0.7283 -0.2018
24206SOL    HW278456   3.014   8.873   6.115  0.0302 -0.8332 -0.4867
24207SOL     OW78457   3.477  12.139   5.322 -0.1874 -0.5761  0.4166
24207SOL    HW178458   3.459  12.196   5.247 -0.2109 -1.7100 -0.4638
24207SOL    HW278459   3.395  12.140   5.373 -0.8292 -1.2431 -0.5644
24208SOL     OW78460   1.756   1.797   1.509 -0.3088  0.3040  0.1225
24208SOL    HW178461   1.676   1.830   1.549 -0.5277  0.4126 -0.3987
24208SOL    HW278462   1.803   1.876   1.481 -0.6171  0.1973 -0.7143
24209SOL     OW78463   8.088   5.338   1.966  0.9659 -0.0365  0.6181
24209SOL    HW178464   8.073   5.396   1.891  0.0707  0.9095  1.4954
24209SOL    HW278465   8.008   5.285   1.971  1.6330 -1.1165  0.0358
24210SOL     OW78466   3.775   1.217   5.585 -0.1141 -0.0825 -0.1898
24210SOL    HW178467   3.702   1.156   5.579 -0.2134 -0.0651  0.7731
24210SOL    HW278468   3.839   1.173   5.640  0.5323 -0.0141 -0.8630
24211SOL     OW78469   1.112   1.412  12.076 -0.4976  0.0356  0.1551
24211SOL    HW178470   1.029   1.374  12.105  0.6449 -1.2203  2.0195
24211SOL    HW278471   1.137   1.472  12.147  1.6726 -2.0168  1.2523
24212SOL     OW78472  11.797   4.016   6.139  0.6073 -0.6342  0.2844
24212SOL    HW178473  11.864   4.037   6.204 -1.2889 -0.2805  2.2712
24212SOL    HW278474  11.798   3.921   6.133  1.9062 -0.5956 -0.4641
24213SOL     OW78475   6.566   3.391   2.662  0.0076  0.2434  0.1908
24213SOL    HW178476   6.588   3.322   2.724  0.4620 -0.0853 -0.3170
24213SOL    HW278477   6.472   3.384   2.650 -0.2647  1.0609  1.7028
24214SOL     OW78478   4.089  10.296   2.297  0.2634 -0.0908 -0.4950
24214SOL    HW178479   4.150  10.223   2.303  1.8635  1.1907 -0.5934
24214SOL    HW278480   4.091  10.336   2.384  0.2789  0.5036 -0.7625
24215SOL     OW78481  11.776  10.828   7.179 -0.0816 -0.6370  0.2190
24215SOL    HW178482  11.739  10.899   7.232 -0.7364 -1.0025  0.2644
24215SOL    HW278483  11.796  10.869   7.095 -1.5295 -0.6263 -0.1569
24216SOL     OW78484   3.681   9.888   7.803 -0.4496 -0.1989 -0.2957
24216SOL    HW178485   3.720   9.950   7.865 -0.5362 -1.4864  1.1195
24216SOL    HW278486   3.628   9.942   7.745 -0.2883  1.0862  0.7079
24217SOL     OW78487  11.492   9.468   3.958 -0.4872  0.5840  0.1709
24217SOL    HW178488  11.480   9.500   4.048  1.0025 -0.2877  0.7142
24217SOL    HW278489  11.454   9.380   3.959 -0.4492  0.5653 -0.0501
24218SOL     OW78490  11.299  10.961   9.313  0.1345 -0.1655 -0.2420
24218SOL    HW178491  11.382  10.926   9.281  0.5306 -0.0402  0.6219
24218SOL    HW278492  11.262  10.889   9.365 -0.2947 -0.2132 -0.6063
24219SOL     OW78493  11.393   5.756   2.987 -0.2995  0.4232 -0.1736
24219SOL    HW178494  11.409   5.675   3.035  1.4105 -0.2649 -1.7861
24219SOL    HW278495  11.325   5.801   3.038 -1.6870 -2.2218  0.5123
24220SOL     OW78496   6.035   0.824   1.679  0.0783 -1.1942 -0.0893
24220SOL    HW178497   6.057   0.904   1.727 -2.2083 -0.3352 -0.3345
24220SOL    HW278498   6.118   0.777   1.672  1.2709  0.5761  1.1136
24221SOL     OW78499   8.213  10.033   6.225 -0.3076  0.0496 -0.8315
24221SOL    HW178500   8.191  10.064   6.138  0.5933  0.4185 -0.9407
24221SOL    HW278501   8.305  10.009   6.220 -0.2836 -0.0719 -0.0253
24222SOL     OW78502  11.683  11.067   3.360 -0.0162 -0.2724  0.6531
24222SOL    HW178503  11.724  11.154   3.366 -0.6162  0.2006 -1.3762
24222SOL    HW278504  11.676  11.038   3.451  1.0035  1.4184  1.3268
24223SOL     OW78505   6.417   7.158   2.015  1.0410 -0.0507  0.1140
24223SOL    HW178506   6.410   7.071   2.054 -1.1320  0.0916  0.1404
24223SOL    HW278507   6.339   7.165   1.959  3.6127 -0.0051 -3.8530
24224SOL     OW78508   5.347   1.557   1.525  0.0372 -0.1689  0.2081
24224SOL    HW178509   5.438   1.561   1.494  0.6028  1.0421  1.8502
24224SOL    HW278510   5.319   1.467   1.507  1.5046 -0.5252 -0.4536
24225SOL     OW78511   3.255   6.440   5.034  0.0322 -1.1831 -0.6809
24225SOL    HW178512   3.269   6.520   4.982 -0.3466  0.0812  1.0649
24225SOL    HW278513   3.334   6.389   5.020  0.8822  0.1133 -0.8331
24226SOL     OW78514   7.983  10.357   9.408  0.2368  0.3350 -0.4982
24226SOL    HW178515   7.898  10.396   9.386 -0.0790 -1.3685 -2.5875
24226SOL    HW278516   7.961  10.272   9.447  0.9786  0.2866 -0.1732
24227SOL     OW78517   5.858   4.279   1.189 -0.2239  0.0061 -0.2901
24227SOL    HW178518   5.875   4.228   1.268 -1.6416  0.6647  0.4852
24227SOL    HW278519   5.906   4.233   1.120  1.4631 -0.3107  1.0109
24228SOL     OW78520  12.257   3.536  11.869  0.2250  0.0523  0.3931
24228SOL    HW178521  12.224   3.623  11.893 -0.3268 -0.0896  0.1795
24228SOL    HW278522  12.186   3.498  11.816  1.1105  0.0797 -0.8482
24229SOL     OW78523   0.562   1.307   5.379  0.2363 -0.1745  0.1766
24229SOL    HW178524   0.622   1.257   5.435  0.2351  1.1605  1.4302
24229SOL    HW278525   0.567   1.396   5.413 -0.8944  0.3834 -1.0469
24230SOL     OW78526   3.424   7.865   3.048 -0.2786  0.0709  0.2299
24230SOL    HW178527   3.436   7.798   2.980  1.0311  0.1987  0.3115
24230SOL    HW278528   3.430   7.948   3.001  1.0698  0.1687  0.5351
24231SOL     OW78529  11.683   6.790   3.133  0.7877 -0.8755 -0.5405
24231SOL    HW178530  11.625   6.864   3.123  1.5139 -0.0580  0.8816
24231SOL    HW278531  11.640   6.735   3.199  2.1206  0.3705  1.4993
24232SOL     OW78532   8.784   1.648   2.278 -0.2203  0.0194  0.3279
24232SOL    HW178533   8.862   1.599   2.250 -0.6424 -1.2324  1.2513
24232SOL    HW278534   8.714   1.615   2.221 -0.2674  0.4419  0.1412
24233SOL     OW78535  10.601   6.493   2.774 -0.1451 -0.2503  0.6581
24233SOL    HW178536  10.591   6.498   2.869  1.0342 -0.5967  0.8175
24233SOL    HW278537  10.650   6.572   2.751 -1.6936  0.5940  0.1238
24234SOL     OW78538   1.890   7.467  11.649 -0.5076  0.1406 -0.4943
24234SOL    HW178539   1.823   7.462  11.717 -0.5998  0.3581 -0.5675
24234SOL    HW278540   1.925   7.556  11.656  0.3872 -0.2499  0.1149
24235SOL     OW78541   5.727   5.100   1.080  0.0794  0.0155  0.2385
24235SOL    HW178542   5.663   5.049   1.130  2.1468 -0.7824  2.2504
24235SOL    HW278543   5.723   5.064   0.992 -1.0991 -1.0810  0.7104
24236SOL     OW78544   1.028  11.720  10.410 -0.1520 -0.3415 -0.3378
24236SOL    HW178545   0.947  11.754  10.372 -0.4723  1.3511  1.6312
24236SOL    HW278546   1.094  11.786  10.387  0.1719 -0.5843 -0.1079
24237SOL     OW78547   9.063  10.990   6.377  0.3289 -0.6857 -0.4146
24237SOL    HW178548   9.012  10.949   6.307 -2.1891 -1.4967  1.7250
24237SOL    HW278549   9.103  10.916   6.423 -1.2026 -0.5490  1.2387
24238SOL     OW78550  10.031   8.362   4.143 -0.2970 -0.0346 -0.3153
24238SOL    HW178551   9.968   8.403   4.202  0.9890  0.8719  0.4699
24238SOL    HW278552  10.040   8.424   4.071 -1.8187 -1.1107 -1.5031
24239SOL     OW78553   2.420   4.193   5.678  0.4595  0.1149 -0.0605
24239SOL    HW178554   2.442   4.258   5.745  1.3845 -0.5093  0.2476
24239SOL    HW278555   2.504   4.161   5.646  0.0833  1.0915 -2.2470
24240SOL     OW78556  10.023   9.566   2.339 -0.7335  0.5566 -0.2659
24240SOL    HW178557   9.969   9.489   2.320 -1.2335  0.8997 -0.2350
24240SOL    HW278558  10.083   9.572   2.265 -2.7984  2.0079 -1.9176
24241SOL     OW78559   3.754   4.425   6.143 -0.1894 -0.1249  0.1476
24241SOL    HW178560   3.738   4.518   6.158 -1.2520 -0.2795  0.0959
24241SOL    HW278561   3.849   4.415   6.147 -0.0701  0.9525  0.1884
24242SOL     OW78562   0.028   0.116   3.935  0.5965 -0.5797 -0.0849
24242SOL    HW178563   0.069   0.086   4.015  0.6585 -0.4610 -0.0727
24242SOL    HW278564   0.100   0.145   3.880  0.4695  0.3707  0.2437
24243SOL     OW78565   1.655   8.392   2.770 -0.1960  0.1386 -0.1912
24243SOL    HW178566   1.625   8.473   2.729  0.2526  1.2740  1.5840
24243SOL    HW278567   1.747   8.409   2.793 -0.3894 -0.4588  1.1530
24244SOL     OW78568  10.466   9.529   2.271 -0.4989 -0.0695 -0.0537
24244SOL    HW178569  10.538   9.590   2.281  0.4488 -1.3481  1.3838
24244SOL    HW278570  10.408   9.547   2.345  0.1652 -1.3305  0.8216
24245SOL     OW78571   4.181   4.748   4.591 -0.0637 -0.5675  0.2654
24245SOL    HW178572   4.192   4.666   4.542 -0.1059  0.2941 -1.2312
24245SOL    HW278573   4.249   4.806   4.556 -0.9440  0.5060  0.3020
24246SOL     OW78574   1.638   8.976   0.332  0.2858  0.1592  0.2280
24246SOL    HW178575   1.721   8.996   0.288  0.9258  0.5954  1.5471
24246SOL    HW278576   1.654   8.890   0.373 -0.9488 -1.1455 -1.8578
24247SOL     OW78577   9.832   5.049   3.369 -0.1060  0.4590  0.0482
24247SOL    HW178578   9.925   5.070   3.375  0.3023 -1.5392  3.3134
24247SOL    HW278579   9.796   5.076   3.454 -1.7489 -1.7712  0.1570
24248SOL     OW78580   8.756   8.983  10.327 -0.1314  0.0907  0.3357
24248SOL    HW178581   8.686   8.942  10.377  1.2313 -1.4385  1.0824
24248SOL    HW278582   8.815   8.911  10.304  0.6697  1.1669 -1.1734
24249SOL     OW78583  12.243  11.315   9.287 -0.4787 -0.2969 -0.1361
24249SOL    HW178584  12.301  11.240   9.272 -0.1609  0.2796 -2.0957
24249SOL    HW278585  12.175  11.307   9.220 -0.8447  0.7900  0.0830
24250SOL     OW78586   9.005   9.302   4.889 -0.2317  0.4591  0.1536
24250SOL    HW178587   9.000   9.305   4.985 -0.1989 -1.2645  0.2480
24250SOL    HW278588   8.944   9.233   4.864  0.2818  0.4032 -1.0166
24251SOL     OW78589   1.074   8.411   6.057 -0.7025 -0.7832 -0.7672
24251SOL    HW178590   0.981   8.398   6.078 -0.0370 -1.4936  2.2476
24251SOL    HW278591   1.113   8.324   6.064  0.4713 -0.2353 -0.2339
24252SOL     OW78592   4.827   1.642   7.831  0.0863 -0.9983  0.1150
24252SOL    HW178593   4.748   1.587   7.831  0.9044 -2.2385  1.3329
24252SOL    HW278594   4.840   1.664   7.924  1.3051 -0.9938 -0.0527
24253SOL     OW78595   0.001   7.412  10.925  0.2957 -0.5680 -0.1785
24253SOL    HW178596   0.020   7.331  10.973  0.4120 -0.1676  0.4555
24253SOL    HW278597  -0.061   7.385  10.857 -0.0729 -1.0942  0.3588
24254SOL     OW78598   5.483  11.402   0.315 -0.0428 -0.1992 -0.4572
24254SOL    HW178599   5.481  11.489   0.354  0.8130 -0.2358 -0.3201
24254SOL    HW278600   5.573  11.371   0.329 -0.4063 -1.2059 -0.2782
24255SOL     OW78601   3.709   4.756   3.042  0.2527 -0.8927  0.1175
24255SOL    HW178602   3.803   4.758   3.060  0.3565 -1.0579 -0.3855
24255SOL    HW278603   3.693   4.837   2.993 -0.0734 -0.3186  1.1344
24256SOL     OW78604   6.334   1.404   9.625 -0.3602 -0.2867  0.4543
24256SOL    HW178605   6.275   1.397   9.550  0.7664 -4.3183 -0.3060
24256SOL    HW278606   6.280   1.381   9.701 -0.2265 -2.4845 -0.0478
24257SOL     OW78607   8.831   2.157   0.067  0.5373 -0.2783 -0.0393
24257SOL    HW178608   8.823   2.096   0.141  0.5078 -0.8257 -0.4918
24257SOL    HW278609   8.774   2.120  -0.000  1.5685 -0.5060 -0.8138
24258SOL     OW78610   5.898   9.539   1.046  0.3981 -0.0316  0.1718
24258SOL    HW178611   5.851   9.460   1.019  1.7920 -1.0941  0.7443
24258SOL    HW278612   5.990   9.517   1.038  0.9033  2.4221 -2.1073
24259SOL     OW78613   2.241   6.787   2.752  0.0887 -0.1305  0.4984
24259SOL    HW178614   2.289   6.741   2.683  1.4115 -0.1643  1.4205
24259SOL    HW278615   2.172   6.834   2.705  0.8770 -0.2552 -0.8353
24260SOL     OW78616  11.670  12.304   3.135 -0.0181 -0.7806  0.5106
24260SOL    HW178617  11.723  12.356   3.074  0.6617 -2.0702 -0.0472
24260SOL    HW278618  11.587  12.290   3.089 -0.0033 -0.6297  0.4389
24261SOL     OW78619  11.585   1.752  10.052  0.0594  0.0051  0.5253
24261SOL    HW178620  11.594   1.808  10.129  2.4977  1.8482 -0.9587
24261SOL    HW278621  11.651   1.684  10.063 -0.2730 -0.3198  0.5305
24262SOL     OW78622   4.362   2.523   5.255 -0.9322 -0.0211  0.1709
24262SOL    HW178623   4.420   2.453   5.227  0.5628  1.7584 -1.4629
24262SOL    HW278624   4.274   2.488   5.244 -0.2387 -1.6373 -0.5170
24263SOL     OW78625   4.444  11.774   5.331 -0.1272  0.1107  0.4196
24263SOL    HW178626   4.466  11.861   5.297 -4.2830  1.0901 -0.2540
24263SOL    HW278627   4.436  11.786   5.426  3.3068 -0.6961  0.9733
24264SOL     OW78628   8.165   5.855   3.075 -0.4059  1.0811 -0.4063
24264SOL    HW178629   8.119   5.829   2.995 -2.0150  0.6796  0.6100
24264SOL    HW278630   8.206   5.774   3.106  1.6721  1.5769 -1.6831
24265SOL     OW78631   4.895  10.676  10.025  0.0478  0.0783  0.1936
24265SOL    HW178632   4.814  10.672  10.076 -0.3277  2.8561 -0.0102
24265SOL    HW278633   4.965  10.669  10.091 -0.3653 -0.8630  0.5455
24266SOL     OW78634   4.689   1.284   0.438 -0.3863 -0.3881 -0.1296
24266SOL    HW178635   4.649   1.207   0.479 -1.0172  0.4943  0.9656
24266SOL    HW278636   4.782   1.276   0.461 -0.1424 -1.6635 -1.4262
24267SOL     OW78637  10.058   3.820   4.501  0.3645  0.0417 -0.2163
24267SOL    HW178638  10.065   3.738   4.550  2.2859 -0.0100 -0.5380
24267SOL    HW278639   9.965   3.825   4.477 -1.0320  0.5976  4.2925
24268SOL     OW78640   6.566   4.431  12.315 -0.3429 -0.1851  0.5893
24268SOL    HW178641   6.550   4.338  12.299 -2.7826  0.3488 -0.6392
24268SOL    HW278642   6.480   4.466  12.341  0.8607  1.4445  2.7165
24269SOL     OW78643   8.457   1.125   5.018  0.2650  0.2588  0.4860
24269SOL    HW178644   8.432   1.071   5.094 -0.1332  0.4936  0.5281
24269SOL    HW278645   8.374   1.142   4.973  0.5097  0.0366 -0.0627
24270SOL     OW78646   3.510   0.226   9.546  0.1893 -0.1760  0.1928
24270SOL    HW178647   3.497   0.189   9.633 -0.5533 -0.2409  0.0604
24270SOL    HW278648   3.603   0.250   9.543  1.0911 -3.2454 -0.1718
24271SOL     OW78649   3.979   9.959   1.202  0.0468  0.1395 -0.1700
24271SOL    HW178650   4.054   9.941   1.260  0.1633 -0.5399 -0.5270
24271SOL    HW278651   3.965   9.877   1.155  0.2575  0.8283 -1.4632
24272SOL     OW78652   3.165   3.060   1.007 -0.3573  0.0552  0.7521
24272SOL    HW178653   3.139   3.114   0.933 -0.9740 -0.8768  0.2764
24272SOL    HW278654   3.134   2.972   0.986 -0.9943 -0.1450  2.3266
24273SOL     OW78655   1.954   8.872  12.151 -0.1542  0.1505  0.0552
24273SOL    HW178656   1.954   8.787  12.195  1.6696  0.5787  1.0047
24273SOL    HW278657   1.893   8.925  12.203 -0.3469 -0.2213  0.2155
24274SOL     OW78658   0.293   0.767   3.897  0.2034  0.1888 -0.0508
24274SOL    HW178659   0.300   0.819   3.977 -0.0717 -0.0533  0.1337
24274SOL    HW278660   0.306   0.677   3.926  0.0507  0.0953 -0.2717
24275SOL     OW78661   5.592   1.676  12.143 -0.0542 -0.0461  0.3166
24275SOL    HW178662   5.563   1.711  12.227 -0.3833 -1.2120  0.7217
24275SOL    HW278663   5.551   1.731  12.078 -1.2543 -0.1981  0.9165
24276SOL     OW78664   2.817   1.547   8.043 -0.0650 -0.2814  0.7630
24276SOL    HW178665   2.774   1.503   7.969  1.5235 -4.5528  2.0895
24276SOL    HW278666   2.749   1.549   8.111 -0.9836  2.0577 -0.1217
24277SOL     OW78667   9.783   4.163   4.552 -0.1804 -0.4097  0.1730
24277SOL    HW178668   9.731   4.232   4.593  0.2569 -1.4066  2.5516
24277SOL    HW278669   9.718   4.102   4.516 -0.5662  0.7119 -1.1239
24278SOL     OW78670   3.096   0.844   3.509  0.4507 -0.1782  0.0453
24278SOL    HW178671   3.151   0.774   3.474  2.2329  0.3756  1.5621
24278SOL    HW278672   3.049   0.804   3.581 -0.2095 -0.3328 -0.4604
24279SOL     OW78673   7.534   7.406   3.471  0.2403  0.0985  0.3187
24279SOL    HW178674   7.617   7.377   3.434 -0.2266  0.0954 -0.7820
24279SOL    HW278675   7.535   7.375   3.562  0.6628 -1.5112 -0.2007
24280SOL     OW78676   4.542   2.518   0.321 -0.0610  0.7483 -0.0096
24280SOL    HW178677   4.529   2.606   0.288 -2.1646  0.4271 -0.1637
24280SOL    HW278678   4.571   2.467   0.245  0.6042  1.1604 -0.0420
24281SOL     OW78679   2.169   8.460   1.397 -0.2904 -0.4578 -0.1018
24281SOL    HW178680   2.216   8.448   1.480  0.4148  1.8283 -0.1165
24281SOL    HW278681   2.192   8.548   1.369 -2.0106 -0.4962 -1.8141
24282SOL     OW78682   1.168   0.086  10.299 -0.2406 -0.4895 -0.0475
24282SOL    HW178683   1.218   0.072  10.380  0.4462  0.1775 -0.3554
24282SOL    HW278684   1.181   0.005  10.249 -1.8529 -1.5379  1.0939
24283SOL     OW78685   1.696   8.264  11.958 -0.1853 -0.7114  0.2672
24283SOL    HW178686   1.632   8.335  11.959  0.0375 -0.5053  1.7576
24283SOL    HW278687   1.717   8.252  11.865  1.6490  2.8544  0.0672
24284SOL     OW78688   3.805   7.738  12.176 -0.5157 -0.7817 -0.0887
24284SOL    HW178689   3.746   7.670  12.143 -0.0117 -0.4387 -1.8021
24284SOL    HW278690   3.796   7.810  12.114  0.9629 -0.3364  0.1659
24285SOL     OW78691  11.351   9.742   8.855 -0.4921  0.4125  0.0456
24285SOL    HW178692  11.347   9.831   8.892  0.0670 -0.0629  1.3201
24285SOL    HW278693  11.350   9.755   8.760 -0.4315  1.7806  0.2117
24286SOL     OW78694   8.214   6.027   1.805  0.4844 -0.2665 -0.3107
24286SOL    HW178695   8.274   6.100   1.792  1.5684 -1.1707 -0.4847
24286SOL    HW278696   8.128   6.069   1.812  1.1495  1.0713  0.2505
24287SOL     OW78697   9.303  10.188   6.888 -0.1590  0.4769 -0.0152
24287SOL    HW178698   9.237  10.147   6.831  0.1502  0.2091 -0.1808
24287SOL    HW278699   9.269  10.175   6.976  0.5939 -1.3508  0.0430
24288SOL     OW78700   8.267   9.261   1.642  0.0671 -0.2586  0.7274
24288SOL    HW178701   8.215   9.199   1.590 -2.1922  0.7357  1.6658
24288SOL    HW278702   8.278   9.218   1.726  1.5202 -0.8034  0.2772
24289SOL     OW78703   5.747   8.301   7.910 -0.1190 -0.1631 -0.7898
24289SOL    HW178704   5.734   8.206   7.913  2.6131 -0.5941 -0.5149
24289SOL    HW278705   5.839   8.313   7.931 -0.8456  2.7412  1.2365
24290SOL     OW78706  10.365  10.680   3.419 -0.0490 -0.1936  0.5765
24290SOL    HW178707  10.443  10.632   3.392 -0.0690  1.0160 -1.8772
24290SOL    HW278708  10.295  10.615   3.418  0.5209 -0.8200  0.6572
24291SOL     OW78709   7.449  11.261   8.588  0.3009 -0.3442 -0.1329
24291SOL    HW178710   7.449  11.347   8.545  0.8404  0.4314  1.3518
24291SOL    HW278711   7.539  11.248   8.617  0.0664 -1.1029  0.2836
24292SOL     OW78712   2.258   0.182   2.938  0.3908  0.1265  0.1699
24292SOL    HW178713   2.290   0.121   2.872 -1.8289 -0.5448 -0.3582
24292SOL    HW278714   2.163   0.178   2.931  0.1331  2.1554  1.5048
24293SOL     OW78715   9.896   3.372   2.251  0.2053  0.6736 -0.2750
24293SOL    HW178716   9.824   3.411   2.201 -0.0988 -0.8116 -1.0624
24293SOL    HW278717   9.855   3.343   2.333 -0.5600 -1.6878 -1.3993
24294SOL     OW78718   7.516   4.588   7.307 -0.4943 -0.1448  0.5877
24294SOL    HW178719   7.508   4.514   7.368  1.0213 -0.4722  0.4368
24294SOL    HW278720   7.611   4.598   7.294 -0.7460  0.6597 -0.8291
24295SOL     OW78721   3.181   3.897   8.178  0.2693 -0.0080  0.2419
24295SOL    HW178722   3.135   3.981   8.179  0.1312 -0.0059 -1.8273
24295SOL    HW278723   3.128   3.842   8.121  0.5353 -1.4272  1.3057
24296SOL     OW78724   5.074   3.671   9.798 -0.3222 -0.0545 -0.0385
24296SOL    HW178725   5.018   3.748   9.793 -0.4415 -0.1805 -0.6983
24296SOL    HW278726   5.092   3.647   9.707  0.4674 -0.2647  0.1607
24297SOL     OW78727   1.537   4.514   6.847 -0.1322  0.2318 -0.7087
24297SOL    HW178728   1.467   4.491   6.909  0.9271 -0.0994  0.4003
24297SOL    HW278729   1.548   4.609   6.858  0.7072  0.0256  0.3372
24298SOL     OW78730   9.427   8.413   5.522 -0.4699  0.2294  0.1160
24298SOL    HW178731   9.462   8.427   5.434  0.0929  0.0879  0.3129
24298SOL    HW278732   9.332   8.420   5.511 -0.4530 -0.4968 -0.6328
24299SOL     OW78733   9.885   6.222   4.932 -0.0798  0.6174  0.4470
24299SOL    HW178734   9.841   6.231   4.847 -0.1431  0.3995  0.4562
24299SOL    HW278735   9.925   6.308   4.948  0.8601  0.3449 -0.3158
24300SOL     OW78736   3.703   2.316   8.345  0.4075  0.4348  0.7993
24300SOL    HW178737   3.707   2.362   8.261 -0.1351  0.8081  0.9726
24300SOL    HW278738   3.701   2.385   8.410 -3.7439  0.3925  0.9663
24301SOL     OW78739   6.509  11.937  11.915  0.6610  0.0081 -0.0927
24301SOL    HW178740   6.442  12.002  11.932  3.0176  2.4923  0.3586
24301SOL    HW278741   6.514  11.931  11.820  2.4330  2.8854 -0.2786
24302SOL     OW78742   4.385  11.176   4.086  0.0946 -0.0795 -0.3576
24302SOL    HW178743   4.375  11.205   4.177  0.6364  0.8551 -0.5780
24302SOL    HW278744   4.296  11.156   4.057 -0.0628 -0.5514  0.4316
24303SOL     OW78745   3.471   5.286   7.290 -0.0010  0.0948  0.0113
24303SOL    HW178746   3.564   5.297   7.269  0.0177 -0.7207 -0.3858
24303SOL    HW278747   3.470   5.240   7.374 -0.0111 -1.3182 -0.7346
24304SOL     OW78748   1.866  11.956  11.699 -0.2376  0.3683  0.3838
24304SOL    HW178749   1.801  11.886  11.706 -0.7615  0.7543 -0.4550
24304SOL    HW278750   1.942  11.923  11.747 -1.2783  0.1979  1.9828
24305SOL     OW78751   1.321   8.954   9.241  0.6412 -0.1303 -0.1525
24305SOL    HW178752   1.245   8.933   9.295  1.3177  0.5356  1.1082
24305SOL    HW278753   1.358   8.869   9.218  0.4565 -0.4249  0.6215
24306SOL     OW78754  10.526   6.224   9.437  0.1864 -0.1360  0.8991
24306SOL    HW178755  10.587   6.197   9.506 -0.0361 -0.0554  1.1291
24306SOL    HW278756  10.440   6.213   9.476  0.0787  0.5935  0.8809
24307SOL     OW78757   4.108  12.048  11.968  0.6330 -0.0807 -0.7131
24307SOL    HW178758   4.166  12.028  12.041  1.4558  2.1920 -0.6772
24307SOL    HW278759   4.166  12.067  11.895 -0.0175  2.0668 -0.7296
24308SOL     OW78760   3.799  12.213   8.207  0.2426  0.0366 -0.0451
24308SOL    HW178761   3.841  12.279   8.262  0.0670  0.3152 -0.2396
24308SOL    HW278762   3.821  12.240   8.117  2.4955 -1.7081 -0.0887
24309SOL     OW78763   7.929   4.474   4.048  0.1690 -0.4242 -0.0026
24309SOL    HW178764   7.964   4.385   4.041  0.6534 -0.3310  1.0660
24309SOL    HW278765   7.958   4.505   4.134 -0.2702  0.6514 -0.2233
24310SOL     OW78766   9.787   8.526   5.529 -0.9341  0.5178  0.1969
24310SOL    HW178767   9.847   8.590   5.567 -0.8233  0.9706 -0.7017
24310SOL    HW278768   9.771   8.559   5.440 -4.0658  1.5430  1.0024
24311SOL     OW78769  11.950   1.058   7.811  0.2991  0.0553  0.3950
24311SOL    HW178770  11.938   1.146   7.776 -0.9803  0.0228  0.6987
24311SOL    HW278771  11.955   1.002   7.733 -0.5944  0.2147  0.2026
24312SOL     OW78772   1.610   4.773   4.103 -0.2417 -0.0145 -0.5331
24312SOL    HW178773   1.557   4.751   4.179  0.7973  1.2674  0.6061
24312SOL    HW278774   1.549   4.767   4.029 -1.6791  0.3090  0.5843
24313SOL     OW78775   3.752   9.339   0.989 -0.0691 -0.5936  0.0163
24313SOL    HW178776   3.798   9.304   1.065 -0.4081  0.2105  0.6040
24313SOL    HW278777   3.712   9.421   1.020  0.9511  0.4841 -1.4070
24314SOL     OW78778  11.831   8.185   8.184 -0.2539 -0.2628  0.4717
24314SOL    HW178779  11.846   8.273   8.220 -1.0531 -0.2965  0.9121
24314SOL    HW278780  11.736   8.173   8.189 -0.2126 -0.9174 -0.1529
24315SOL     OW78781   7.591   4.179   6.273  0.1073  0.5534  0.2014
24315SOL    HW178782   7.510   4.216   6.238 -1.2817 -1.2535  1.2928
24315SOL    HW278783   7.654   4.251   6.269 -0.7004  1.2597 -3.2372
24316SOL     OW78784   8.645   2.802   0.427  0.1667 -0.2877 -0.2026
24316SOL    HW178785   8.562   2.831   0.464  0.7547 -0.7126  1.5598
24316SOL    HW278786   8.666   2.867   0.360 -1.6277 -0.2439 -0.7506
24317SOL     OW78787   5.579   9.352   1.181  0.4756 -0.1923  0.2085
24317SOL    HW178788   5.495   9.369   1.223  0.2639 -0.0702 -0.2579
24317SOL    HW278789   5.635   9.425   1.208  1.1699 -1.4369  2.4036
24318SOL     OW78790   6.615   6.182   4.399  0.3927  0.2591  0.0280
24318SOL    HW178791   6.684   6.191   4.465 -0.1195  1.2188  0.4502
24318SOL    HW278792   6.553   6.251   4.420 -0.9035 -0.8307 -0.1136
24319SOL     OW78793   0.790   4.235   6.526  0.3983 -0.2375 -0.4600
24319SOL    HW178794   0.785   4.217   6.432  1.9420  0.9274 -0.8045
24319SOL    HW278795   0.699   4.244   6.553 -0.0645 -0.0169 -1.9582
24320SOL     OW78796   3.654  10.890   7.108 -0.0345  0.1772 -0.0336
24320SOL    HW178797   3.629  10.842   7.029 -2.3978  2.8364 -1.0859
24320SOL    HW278798   3.602  10.849   7.178  0.4976 -0.8725 -0.2375
24321SOL     OW78799   2.771   9.038   9.461 -0.2837 -0.2408 -0.0366
24321SOL    HW178800   2.776   9.026   9.556 -0.2825  0.8782  0.1167
24321SOL    HW278801   2.849   8.995   9.427  0.9100  1.2767  0.6778
24322SOL     OW78802   6.171   2.412   7.453  0.3241 -0.3547 -0.0887
24322SOL    HW178803   6.265   2.400   7.441  0.5117 -2.4122  2.5623
24322SOL    HW278804   6.131   2.353   7.389  0.7596  0.7049 -1.3891
24323SOL     OW78805  11.874   1.211   0.812 -0.3391 -0.1379  0.1678
24323SOL    HW178806  11.804   1.187   0.871 -0.1317 -0.1085  0.4259
24323SOL    HW278807  11.831   1.226   0.728 -0.6332 -0.1572  0.3166
24324SOL     OW78808   2.314   9.880   9.142  0.3721 -0.1645 -0.3864
24324SOL    HW178809   2.372   9.929   9.200  0.4493  0.0983 -0.6859
24324SOL    HW278810   2.256   9.832   9.201 -0.2702  0.9555 -0.0920
24325SOL     OW78811  11.294   5.288  11.433 -0.3929  0.4611  0.0786
24325SOL    HW178812  11.253   5.298  11.519  0.9156 -2.8397  1.2280
24325SOL    HW278813  11.221   5.264  11.375 -0.9764  0.5792  0.7442
24326SOL     OW78814   0.008   9.937   2.422 -0.4061  0.0710 -0.3073
24326SOL    HW178815   0.103   9.928   2.431 -0.3890  1.0154  0.6586
24326SOL    HW278816  -0.026   9.849   2.439  0.3509 -0.5473 -1.8420
24327SOL     OW78817  12.087   6.853  11.683 -0.1506  0.1585 -0.3950
24327SOL    HW178818  12.117   6.764  11.666 -1.0882 -0.3457  0.5455
24327SOL    HW278819  12.099   6.865  11.777 -1.2097  0.5775 -0.3038
24328SOL     OW78820   6.473   7.226   4.288 -0.2587  0.4944  0.1564
24328SOL    HW178821   6.553   7.212   4.236  0.8858 -0.8885  2.1383
24328SOL    HW278822   6.470   7.320   4.303 -0.6808  0.9528 -2.4093
24329SOL     OW78823  11.761  11.839   8.517 -0.0167  0.1403  0.4317
24329SOL    HW178824  11.690  11.853   8.581 -0.5318  1.6527 -0.4143
24329SOL    HW278825  11.717  11.799   8.442 -0.1782  1.7934 -0.4032
24330SOL     OW78826  10.222   1.031   0.087  0.5112 -0.1998  0.0329
24330SOL    HW178827  10.163   1.072   0.149  1.1421 -1.9109  1.8433
24330SOL    HW278828  10.174   1.030   0.004 -1.5357 -0.5591  1.1841
24331SOL     OW78829   7.257   2.036   7.458  0.4946 -0.2674  0.1956
24331SOL    HW178830   7.281   2.007   7.545  0.9698 -0.6565 -0.0611
24331SOL    HW278831   7.167   2.069   7.467  0.9242  0.7115  1.0463
24332SOL     OW78832   6.767  11.296   7.198  0.3350 -0.1104  0.3396
24332SOL    HW178833   6.717  11.219   7.225  0.0792  0.2510  0.9164
24332SOL    HW278834   6.858  11.267   7.194  0.1556 -0.6203 -0.1284
24333SOL     OW78835   6.172   0.445   6.500 -0.5376 -0.2533  0.1662
24333SOL    HW178836   6.143   0.358   6.474 -1.2672 -1.0360  3.1855
24333SOL    HW278837   6.097   0.502   6.480 -1.1301 -0.8387  0.6777
24334SOL     OW78838   7.680   9.661   6.731  0.6388 -0.0125 -0.4224
24334SOL    HW178839   7.746   9.697   6.791 -0.0697 -0.6392  0.7626
24334SOL    HW278840   7.600   9.657   6.783 -0.5794  1.4968 -2.0725
24335SOL     OW78841   4.488   1.288   5.107 -0.3232 -0.2522  0.0995
24335SOL    HW178842   4.396   1.297   5.081 -1.4386 -3.0279  2.4251
24335SOL    HW278843   4.503   1.361   5.167 -0.5392  0.9677 -1.2779
24336SOL     OW78844   9.928   8.494   8.193 -0.1200 -0.2643  0.0753
24336SOL    HW178845  10.005   8.469   8.243 -1.0733 -0.6710  1.3933
24336SOL    HW278846   9.917   8.588   8.211 -0.6941 -0.4948  0.9984
24337SOL     OW78847   1.208   0.959   9.210  0.5115  0.1370 -0.0128
24337SOL    HW178848   1.125   0.994   9.242  1.0438  1.7001 -0.2253
24337SOL    HW278849   1.233   0.893   9.274 -0.3356  0.4653  0.6729
24338SOL     OW78850   1.057  10.704   6.823 -0.2045  0.3196 -0.2315
24338SOL    HW178851   1.091  10.790   6.799 -0.4045  0.5152  0.1752
24338SOL    HW278852   0.963  10.711   6.806 -0.4151  0.5949  0.9763
24339SOL     OW78853  11.161   1.156   1.897 -0.4717  0.0648 -0.2658
24339SOL    HW178854  11.148   1.158   1.802  1.8317  0.5095 -0.6353
24339SOL    HW278855  11.202   1.071   1.914 -0.6523  0.0879  0.2927
24340SOL     OW78856   4.170   8.636   2.609  0.5054  0.4695 -0.1979
24340SOL    HW178857   4.245   8.665   2.556 -0.0238  0.1427 -1.1310
24340SOL    HW278858   4.210   8.598   2.687  1.3951 -1.0790 -1.3584
24341SOL     OW78859   1.648   5.423   0.709  0.5668  0.3393 -0.0550
24341SOL    HW178860   1.624   5.351   0.651  2.6721 -0.4095 -0.0604
24341SOL    HW278861   1.658   5.499   0.651  2.1588 -0.2890 -0.6537
24342SOL     OW78862   6.751   4.853  11.025 -0.1898  0.3478  0.6595
24342SOL    HW178863   6.713   4.846  11.113 -0.3712  1.5763  0.7063
24342SOL    HW278864   6.675   4.854  10.967 -0.2480  2.1857  0.7060
24343SOL     OW78865   4.182   3.683   9.794  0.5146 -0.7910  0.1394
24343SOL    HW178866   4.111   3.676   9.858  1.7414 -0.0807  1.6457
24343SOL    HW278867   4.219   3.595   9.788  1.0967 -0.6400  1.2812
24344SOL     OW78868   4.379   1.515   7.638  0.8385 -0.2541 -0.0937
24344SOL    HW178869   4.393   1.591   7.582 -0.6566  1.3548  1.5707
24344SOL    HW278870   4.465   1.472   7.643  1.6149  1.0605 -1.4035
24345SOL     OW78871   8.810   1.528   5.096  0.0890  0.5653 -0.1911
24345SOL    HW178872   8.875   1.538   5.026  1.5080 -2.3294  0.5663
24345SOL    HW278873   8.861   1.532   5.177 -0.4544 -2.2601  0.4068
24346SOL     OW78874   6.711   3.589   2.798 -0.7924  0.3777 -0.1611
24346SOL    HW178875   6.652   3.535   2.744 -1.2014  1.7269 -1.1232
24346SOL    HW278876   6.784   3.531   2.819 -1.2908 -0.6060 -1.0326
24347SOL     OW78877   4.448   7.135  11.624 -0.2659 -0.1969  0.2797
24347SOL    HW178878   4.441   7.215  11.572 -0.0482 -0.9854 -1.0052
24347SOL    HW278879   4.515   7.154  11.689 -0.4115  0.7528  0.1721
24348SOL     OW78880   3.255   5.536   5.682  0.1266  0.7592 -0.1581
24348SOL    HW178881   3.206   5.507   5.759 -0.0271  0.1584 -0.4791
24348SOL    HW278882   3.188   5.573   5.624  0.1388  0.4879 -0.3416
24349SOL     OW78883   1.800   5.653   8.755  0.1050  0.2402  0.2117
24349SOL    HW178884   1.779   5.597   8.830  1.8401  0.3321  0.8139
24349SOL    HW278885   1.820   5.592   8.684 -0.5490  0.1367  0.1163
24350SOL     OW78886  10.841   3.764   1.473  0.4264 -0.4214 -0.6673
24350SOL    HW178887  10.854   3.779   1.567  0.8813  1.9498 -1.0544
24350SOL    HW278888  10.875   3.676   1.459 -2.6090 -2.2065  1.9130
24351SOL     OW78889   6.147   6.628   8.467 -0.1121  0.2220 -0.7621
24351SOL    HW178890   6.127   6.722   8.462  0.9738  0.4803 -0.5548
24351SOL    HW278891   6.185   6.607   8.382  1.3823  0.4221 -0.1838
24352SOL     OW78892   4.141   6.841  12.072  0.2457  0.2510 -0.1014
24352SOL    HW178893   4.198   6.777  12.117 -1.3843 -0.7540  0.6111
24352SOL    HW278894   4.144   6.813  11.980  0.9361  0.2496 -0.0887
24353SOL     OW78895   7.634   1.378  12.173 -0.0212  0.4922  0.3302
24353SOL    HW178896   7.624   1.335  12.088 -1.5200  0.5750  0.4350
24353SOL    HW278897   7.655   1.306  12.234 -2.5759 -0.2054  0.5180
24354SOL     OW78898   8.139   7.196   4.552  0.2835 -0.3143 -0.3946
24354SOL    HW178899   8.228   7.203   4.517  0.9671 -1.6666  0.9732
24354SOL    HW278900   8.087   7.164   4.478  1.4219 -1.7938 -0.6032
24355SOL     OW78901   6.290   6.817  10.048 -0.3698 -0.3119  0.3153
24355SOL    HW178902   6.330   6.829  10.134 -1.3327 -0.7676  0.8409
24355SOL    HW278903   6.273   6.723  10.042  1.1192 -0.5404 -1.0475
24356SOL     OW78904   6.935  10.857   5.774  0.2612  0.2936 -0.3869
24356SOL    HW178905   6.995  10.784   5.788 -1.1883 -0.8508  0.0671
24356SOL    HW278906   6.950  10.884   5.683 -0.5561 -1.8796 -1.2218
24357SOL     OW78907   4.755   7.621  10.969 -0.1275  0.1806  0.5215
24357SOL    HW178908   4.796   7.656  10.889 -1.8396  3.6391  0.9708
24357SOL    HW278909   4.782   7.529  10.971  0.7005  0.1225 -3.5564
24358SOL     OW78910   0.236   9.311   5.929 -0.1839  0.6262 -0.0155
24358SOL    HW178911   0.193   9.290   6.012 -0.1482  1.5054  0.2337
24358SOL    HW278912   0.322   9.344   5.954  0.4434 -0.5841 -0.4860
24359SOL     OW78913   6.285   8.272   7.086 -0.3409  0.1406 -0.2227
24359SOL    HW178914   6.235   8.343   7.125 -0.4685  0.6280 -1.2461
24359SOL    HW278915   6.340   8.239   7.158 -0.2274  1.3111  0.2400
24360SOL     OW78916  10.487   6.643   4.548  0.0555 -0.2526  0.7890
24360SOL    HW178917  10.546   6.568   4.537  0.6934  0.4118 -0.4211
24360SOL    HW278918  10.540   6.709   4.593  0.0005  0.0723  0.3786
24361SOL     OW78919  11.787   1.113  10.367 -0.0044  0.0049 -0.1358
24361SOL    HW178920  11.758   1.163  10.443 -1.3396  0.4140 -0.8842
24361SOL    HW278921  11.764   1.022  10.388  0.6588 -0.0521  0.3999
24362SOL     OW78922   5.593   8.427   0.407 -0.2069 -0.2107 -0.1146
24362SOL    HW178923   5.637   8.504   0.444 -0.7341 -0.3477  0.8386
24362SOL    HW278924   5.660   8.385   0.354 -0.7386  2.6089 -3.3939
24363SOL     OW78925   1.154  11.659   6.204  0.3130 -0.0896  0.0556
24363SOL    HW178926   1.076  11.615   6.237 -0.1936  0.4423 -0.4075
24363SOL    HW278927   1.191  11.600   6.139  1.7621 -1.5135  2.0552
24364SOL     OW78928  11.389   3.762  11.838  0.9373 -0.0689 -0.3282
24364SOL    HW178929  11.345   3.843  11.815  0.4502 -0.2507 -0.0547
24364SOL    HW278930  11.317   3.700  11.856  1.2173 -1.2406 -2.8036
24365SOL     OW78931   3.668   7.406   3.285 -0.6640  0.0001 -0.4164
24365SOL    HW178932   3.751   7.383   3.327 -0.0067  0.8566 -1.2187
24365SOL    HW278933   3.637   7.481   3.334 -0.4012  0.3709 -0.8108
24366SOL     OW78934   3.685   9.319   2.087 -0.4704 -0.3413  0.2923
24366SOL    HW178935   3.621   9.389   2.074 -0.5782 -0.7379 -1.7391
24366SOL    HW278936   3.768   9.364   2.101 -0.6089  0.2197 -0.5890
24367SOL     OW78937   5.982   8.809   3.213 -0.3646  0.4356  0.5910
24367SOL    HW178938   6.035   8.747   3.263 -1.0674  0.0379  0.8559
24367SOL    HW278939   5.908   8.757   3.181 -0.8783  1.0939  0.6808
24368SOL     OW78940   5.741   2.325  11.212  0.5631 -0.3964 -0.4441
24368SOL    HW178941   5.652   2.359  11.203  0.2725 -1.1799 -0.6655
24368SOL    HW278942   5.797   2.399  11.190  0.0136  0.5914  1.2397
24369SOL     OW78943   1.264   0.990   3.023  0.4212 -0.3267  0.3480
24369SOL    HW178944   1.196   0.964   2.961 -0.7656  0.9121  1.0566
24369SOL    HW278945   1.321   1.049   2.974 -1.5493  2.1320  0.7834
24370SOL     OW78946   1.135   9.168   0.916 -0.1983  0.1430  0.0075
24370SOL    HW178947   1.148   9.101   0.983 -1.1792  2.1818  2.4430
24370SOL    HW278948   1.110   9.120   0.837  0.4134 -2.3756  1.2511
24371SOL     OW78949   3.713   9.692  12.140 -0.5515 -0.1196  0.1775
24371SOL    HW178950   3.778   9.648  12.195 -1.1486 -0.8604  0.3054
24371SOL    HW278951   3.629   9.658  12.170 -0.9613  0.3125 -0.4501
24372SOL     OW78952   2.936   2.613   1.113 -0.6030  0.7344  0.8046
24372SOL    HW178953   2.851   2.571   1.104 -0.0742 -0.0749 -0.7972
24372SOL    HW278954   2.946   2.627   1.207 -1.2471 -1.8773  1.3315
24373SOL     OW78955   6.976   8.711  11.333  0.5603 -0.1819  0.1378
24373SOL    HW178956   6.958   8.619  11.314  1.1388  0.0268 -1.6656
24373SOL    HW278957   7.069   8.714  11.353  0.4153 -0.0606  0.8253
24374SOL     OW78958   5.407  12.231   7.302 -0.2138  0.5263  0.0695
24374SOL    HW178959   5.419  12.319   7.268  2.3362  0.1444 -0.2385
24374SOL    HW278960   5.391  12.177   7.224 -0.9353  0.5793  0.1749
24375SOL     OW78961  10.890   9.076   9.991  0.3776  0.3498  0.5892
24375SOL    HW178962  10.873   8.995  10.040  1.4920  0.3379  0.9852
24375SOL    HW278963  10.979   9.101  10.016  0.6860  0.7746 -0.8459
24376SOL     OW78964   8.290   8.146   3.805 -0.0398  0.5991 -0.4144
24376SOL    HW178965   8.301   8.234   3.771  0.4075  0.5160 -0.5033
24376SOL    HW278966   8.373   8.102   3.784 -0.2097  0.1972 -0.2639
24377SOL     OW78967   6.871   6.736   8.065 -0.2248 -0.2445 -0.1027
24377SOL    HW178968   6.960   6.768   8.054 -0.4962  0.0762 -1.7446
24377SOL    HW278969   6.851   6.750   8.157  1.2359  0.1337  0.1841
24378SOL     OW78970   4.439   0.498   1.347  0.3785  0.0752 -0.1979
24378SOL    HW178971   4.530   0.523   1.368 -0.0439  0.0693  1.9316
24378SOL    HW278972   4.388   0.576   1.369 -0.4369 -0.9626  1.8808
24379SOL     OW78973  11.746   7.948   5.420 -0.1820  0.0296  0.2328
24379SOL    HW178974  11.675   8.007   5.393  1.1291  1.4476 -0.2562
24379SOL    HW278975  11.815   7.962   5.355  0.2745 -1.9054  0.2427
24380SOL     OW78976  11.938   7.591   0.339 -0.5301 -0.2907  0.6366
24380SOL    HW178977  11.942   7.600   0.243  1.3767  1.5704  0.8276
24380SOL    HW278978  12.029   7.589   0.367 -1.0474  0.3860  2.4994
24381SOL     OW78979   5.728   7.325   2.279 -0.2863  0.0913 -0.2768
24381SOL    HW178980   5.684   7.367   2.206 -2.2728  0.1011  0.8724
24381SOL    HW278981   5.774   7.251   2.239  0.2664  1.1919 -1.7809
24382SOL     OW78982   0.316   0.490   2.011 -0.3623 -0.3968 -0.1014
24382SOL    HW178983   0.302   0.441   2.092 -3.9715 -1.0875 -0.9706
24382SOL    HW278984   0.355   0.426   1.951  0.2043 -0.5338  0.3999
24383SOL     OW78985   1.178   4.334   1.628 -0.1388  0.2587  0.4740
24383SOL    HW178986   1.141   4.276   1.562 -1.4842 -0.8979  2.1727
24383SOL    HW278987   1.207   4.411   1.578 -1.4595 -0.3826 -1.4054
24384SOL     OW78988   2.485   3.815   4.795 -0.1239 -0.2869  0.6146
24384SOL    HW178989   2.560   3.773   4.752 -0.3949 -0.6022  0.4388
24384SOL    HW278990   2.524   3.878   4.856  0.2859 -0.5208  0.6001
24385SOL     OW78991   3.638   8.351   2.866 -0.4541  0.3858  0.0819
24385SOL    HW178992   3.611   8.301   2.788  0.2784  1.8740 -1.1928
24385SOL    HW278993   3.723   8.388   2.842  0.7748 -0.7349  2.3833
24386SOL     OW78994   9.824   2.774   8.916  0.1938 -0.2604 -0.0815
24386SOL    HW178995   9.887   2.770   8.988 -0.0420  1.4954  0.2564
24386SOL    HW278996   9.866   2.726   8.845  0.0575 -2.8584  1.4449
24387SOL     OW78997   7.402   6.170   7.364  0.1270  0.4595 -0.6488
24387SOL    HW178998   7.312   6.200   7.372  0.0004  0.5151 -2.0158
24387SOL    HW278999   7.455   6.250   7.373  0.0626  0.3955  0.3602
24388SOL     OW79000   1.087   8.510   4.867  0.1205  0.8895 -0.4264
24388SOL    HW179001   1.089   8.517   4.962  1.0438  0.3665 -0.3899
24388SOL    HW279002   1.030   8.581   4.838 -0.8332  0.5437  0.5604
24389SOL     OW79003   7.407   5.828   8.400  0.2686 -0.3663  0.5319
24389SOL    HW179004   7.406   5.755   8.462 -1.3205 -0.2368  0.7063
24389SOL    HW279005   7.335   5.808   8.339  0.6395  0.4239 -0.1817
24390SOL     OW79006   4.325  10.047  10.300 -0.3445  0.1356 -0.1358
24390SOL    HW179007   4.271  10.122  10.324 -0.2793  0.5432 -1.2167
24390SOL    HW279008   4.410  10.065  10.338 -1.1010 -0.8496  2.2082
24391SOL     OW79009  11.736   5.896   4.668  0.1334  0.2928  0.0176
24391SOL    HW179010  11.658   5.936   4.706  0.3331  0.6413  0.0671
24391SOL    HW279011  11.757   5.823   4.726 -1.4950 -1.2610 -1.2469
24392SOL     OW79012   9.078  10.364   1.657 -0.2751  0.1910 -0.2451
24392SOL    HW179013   9.020  10.428   1.700  0.5887 -0.3878  1.9381
24392SOL    HW279014   9.116  10.315   1.730  1.9615 -0.3222 -1.6844
24393SOL     OW79015   6.621   2.840   3.911  0.0040  0.4402 -0.2795
24393SOL    HW179016   6.531   2.843   3.878  0.0187  0.8263 -0.2909
24393SOL    HW279017   6.622   2.769   3.975 -0.3486  0.5447 -0.1590
24394SOL     OW79018   5.828   8.464   2.676  0.1103  0.3368  0.4428
24394SOL    HW179019   5.861   8.460   2.765 -1.3433  1.0952  1.0491
24394SOL    HW279020   5.805   8.373   2.655 -1.5035  0.4299  1.6476
24395SOL     OW79021  11.920  10.115   4.835 -0.3953 -0.0744 -0.3390
24395SOL    HW179022  11.870  10.194   4.856  0.0167 -0.1171  0.8947
24395SOL    HW279023  12.011  10.144   4.829 -0.3571 -0.2909 -0.8981
24396SOL     OW79024   6.173  10.706   9.667  0.4487  0.2148  0.3798
24396SOL    HW179025   6.227  10.781   9.692 -0.1352 -0.1854  3.1950
24396SOL    HW279026   6.105  10.702   9.734  0.1563 -2.5375  0.0374
24397SOL     OW79027   7.994   6.247   1.753  0.8744 -0.2144  0.6874
24397SOL    HW179028   7.993   6.247   1.657  2.3853 -2.0355  0.6125
24397SOL    HW279029   7.904   6.225   1.778  0.4452  0.3808 -0.3024
24398SOL     OW79030   7.094   3.473   0.424 -0.2906 -0.3819 -0.0025
24398SOL    HW179031   7.015   3.520   0.399  0.1669 -0.1062 -0.9938
24398SOL    HW279032   7.153   3.541   0.457 -0.1519 -0.4584 -0.0877
24399SOL     OW79033   0.123   3.556  10.496  0.5832  0.2390 -0.0108
24399SOL    HW179034   0.209   3.513  10.496  0.8326  0.6799 -1.6734
24399SOL    HW279035   0.073   3.510  10.428  0.0314  1.0019 -0.1310
24400SOL     OW79036   4.858   9.605   8.653 -0.0883  0.1561  0.0159
24400SOL    HW179037   4.900   9.519   8.643  0.5962  0.3197  1.2380
24400SOL    HW279038   4.879   9.631   8.743 -2.8401  0.2384  0.7280
24401SOL     OW79039   4.756   7.487   9.434  0.3515  0.3524 -0.1810
24401SOL    HW179040   4.819   7.444   9.376 -1.1067  1.0042 -2.3800
24401SOL    HW279041   4.679   7.502   9.378 -0.7479  1.9878  1.6670
24402SOL     OW79042   4.956   5.680   3.576 -0.9445  0.4478 -0.0637
24402SOL    HW179043   5.046   5.707   3.556 -0.1265 -0.7393  1.8066
24402SOL    HW279044   4.962   5.586   3.591 -2.5537  0.3203 -0.1043
24403SOL     OW79045   8.722  10.206   1.804 -0.0336  0.4396 -0.4370
24403SOL    HW179046   8.761  10.202   1.716  2.0568  1.8366  0.3573
24403SOL    HW279047   8.629  10.192   1.789  0.3929 -0.4443 -2.7581
24404SOL     OW79048   8.112   8.596  12.154 -0.1810  0.5005 -0.8128
24404SOL    HW179049   8.024   8.572  12.125 -0.7205  1.8583 -0.3855
24404SOL    HW279050   8.170   8.549  12.095 -1.2112  0.5375 -1.8987
24405SOL     OW79051   1.906   4.093   5.342 -0.3889 -0.2239  0.0912
24405SOL    HW179052   1.878   4.027   5.278  1.3927 -2.2755  1.2843
24405SOL    HW279053   1.959   4.154   5.291 -2.3479  0.5718 -1.1084
24406SOL     OW79054   3.005   8.283  11.189  0.3848  0.2179 -0.2211
24406SOL    HW179055   3.021   8.343  11.262  0.6780 -0.8864  0.6485
24406SOL    HW279056   3.092   8.263  11.154  0.4765 -1.1373  0.7010
24407SOL     OW79057   3.662   2.614   6.438  0.4612  0.2976 -0.1007
24407SOL    HW179058   3.605   2.586   6.510 -0.8171 -0.0995 -1.2408
24407SOL    HW279059   3.751   2.605   6.474 -0.0756 -1.2786  0.9585
24408SOL     OW79060  10.942   7.547  11.696  0.3785  0.3624  0.3015
24408SOL    HW179061  11.025   7.553  11.647  0.2769  1.3504  0.2209
24408SOL    HW279062  10.912   7.638  11.701 -1.4844 -0.1351 -1.0021
24409SOL     OW79063   9.069   7.845   5.002 -0.2875  0.4050 -0.4444
24409SOL    HW179064   9.091   7.916   5.062  0.7188  0.7703 -1.2077
24409SOL    HW279065   8.988   7.873   4.959 -0.4017  0.6555 -0.0643
24410SOL     OW79066   6.804  10.252   9.526  0.3800 -0.7677  0.0485
24410SOL    HW179067   6.890  10.244   9.567  0.6895 -0.2710 -0.4928
24410SOL    HW279068   6.822  10.280   9.436 -0.3482 -0.5347 -0.0345
24411SOL     OW79069   0.891  10.346   1.424 -0.1006  0.2418  0.0911
24411SOL    HW179070   0.817  10.387   1.469  0.2330  0.3288  0.5597
24411SOL    HW279071   0.942  10.419   1.389 -0.2752  0.1800 -0.3050
24412SOL     OW79072   0.900   0.010   6.743 -0.3178  0.0682 -0.1647
24412SOL    HW179073   0.980   0.020   6.692 -0.5958 -0.1989 -0.6580
24412SOL    HW279074   0.859   0.096   6.741 -2.0831 -0.6932 -3.3538
24413SOL     OW79075   0.098  10.985   5.765 -0.1307 -0.2262 -0.1132
24413SOL    HW179076   0.110  11.080   5.770 -0.2820 -0.0130 -2.4863
24413SOL    HW279077   0.008  10.971   5.794  0.0446  0.2975  0.7009
24414SOL     OW79078  11.943   7.523   3.042 -0.2119 -0.1450  0.0016
24414SOL    HW179079  11.849   7.524   3.025 -0.0852  0.6768 -0.7222
24414SOL    HW279080  11.981   7.476   2.968  0.0198  0.2859 -0.1607
24415SOL     OW79081   1.065  10.706   3.210  0.4778 -0.0038  0.7461
24415SOL    HW179082   1.015  10.768   3.263 -2.3895 -1.9973  0.6120
24415SOL    HW279083   1.061  10.741   3.121 -0.3699  0.0854  0.8129
24416SOL     OW79084  11.919  12.122   8.170  0.1767  0.4630 -0.8488
24416SOL    HW179085  11.956  12.210   8.169  3.6108 -0.8060  0.3275
24416SOL    HW279086  11.911  12.100   8.263  1.1932 -1.1074 -1.0995
24417SOL     OW79087  10.394  10.871   3.668 -0.1180  0.2671 -0.3637
24417SOL    HW179088  10.314  10.850   3.715  0.1386 -0.1289 -0.0955
24417SOL    HW279089  10.370  10.866   3.576 -0.8322  1.8714 -0.2952
24418SOL     OW79090   1.798  10.479   5.971 -0.8213  0.2050 -0.6939
24418SOL    HW179091   1.822  10.555   5.918 -1.0194  1.5140  0.9894
24418SOL    HW279092   1.880  10.431   5.982 -0.5285  0.5908 -1.1605
24419SOL     OW79093   0.528   0.670   4.195 -0.5271 -0.4325  0.1026
24419SOL    HW179094   0.493   0.745   4.146 -0.9808 -0.7103 -0.0022
24419SOL    HW279095   0.458   0.647   4.256  0.3285  0.4365  1.4891
24420SOL     OW79096  10.565   9.256   7.432  0.1433 -0.1022 -0.3018
24420SOL    HW179097  10.529   9.263   7.520 -1.8182  2.2884 -1.1894
24420SOL    HW279098  10.628   9.328   7.426 -0.8992  0.7621 -1.3050
24421SOL     OW79099   4.944   9.980   4.714 -0.3419 -0.0792 -0.0807
24421SOL    HW179100   4.952   9.885   4.719  1.3529  0.0204 -0.2154
24421SOL    HW279101   5.019  10.013   4.763 -0.0482  1.1630 -1.2958
24422SOL     OW79102   1.567   3.013   1.345 -0.4890  0.2226 -1.1808
24422SOL    HW179103   1.538   3.062   1.269  0.1180 -0.9950 -2.2303
24422SOL    HW279104   1.616   3.077   1.397 -1.1151  1.1256 -1.6764
24423SOL     OW79105  11.963   5.892   6.255  0.0840  0.1454  0.1151
24423SOL    HW179106  11.967   5.830   6.328  0.5159 -0.1917 -0.1875
24423SOL    HW279107  12.046   5.939   6.259 -0.8459  1.7745  1.2532
24424SOL     OW79108   3.023   7.759  11.953 -0.2890 -0.2561 -0.0639
24424SOL    HW179109   2.945   7.814  11.943  0.5438  1.4390  2.0114
24424SOL    HW279110   3.014   7.720  12.039 -0.3807 -2.7465 -1.1206
24425SOL     OW79111   9.358   0.587   8.404 -0.0081 -0.1014 -0.4696
24425SOL    HW179112   9.433   0.534   8.431  0.8564  1.7756  1.1021
24425SOL    HW279113   9.314   0.535   8.337  1.9930 -1.8123 -0.5488
24426SOL     OW79114   3.578   2.369   3.749 -0.3754 -0.3825 -0.1726
24426SOL    HW179115   3.570   2.462   3.731  0.9905 -0.3241 -0.6340
24426SOL    HW279116   3.492   2.332   3.728 -0.7236  0.6653 -0.6414
24427SOL     OW79117   1.054   6.436   8.607 -0.1300  0.1015 -0.2312
24427SOL    HW179118   1.114   6.444   8.532  0.6927 -0.4822  0.3555
24427SOL    HW279119   1.111   6.416   8.681 -1.0271 -0.1273  0.4029
24428SOL     OW79120   4.474   6.799   6.972 -0.1624 -0.0719  0.0609
24428SOL    HW179121   4.515   6.867   7.025 -0.7227 -0.5250  1.1340
24428SOL    HW279122   4.390   6.836   6.946  0.4856  0.4836 -1.2882
24429SOL     OW79123   3.410   2.311   6.769 -0.3800  0.8377  0.0879
24429SOL    HW179124   3.464   2.376   6.725 -0.6776  0.0932 -1.4679
24429SOL    HW279125   3.370   2.261   6.697 -1.2897 -0.1170  1.2172
24430SOL     OW79126   2.335   1.468   5.348 -0.3628 -0.2813 -0.3212
24430SOL    HW179127   2.326   1.373   5.354  0.4294 -0.2697  1.9014
24430SOL    HW279128   2.388   1.492   5.424  0.5573  1.8107 -1.5541
24431SOL     OW79129   0.356   8.259   7.407 -0.0215  0.0269 -0.0703
24431SOL    HW179130   0.355   8.336   7.464 -0.3367 -0.3500  0.4361
24431SOL    HW279131   0.277   8.211   7.431  0.5426 -0.8178  0.0966
24432SOL     OW79132   8.649   4.681   1.785 -0.4479  0.5730  0.1355
24432SOL    HW179133   8.641   4.776   1.774 -2.8070  0.2911 -1.2136
24432SOL    HW279134   8.559   4.650   1.792  0.3157 -1.4347  2.2277
24433SOL     OW79135   4.711  11.829  12.043 -0.2706  0.4197  0.5456
24433SOL    HW179136   4.745  11.807  12.130  0.5426  0.0072  0.1436
24433SOL    HW279137   4.623  11.792  12.041 -0.0402 -0.1697  0.9611
24434SOL     OW79138   0.958  10.376  10.802 -0.4616 -0.2675 -0.5766
24434SOL    HW179139   1.023  10.412  10.862 -0.7093 -0.8845  0.0824
24434SOL    HW279140   0.875  10.382  10.850 -1.0899  1.3975 -1.7656
24435SOL     OW79141   3.247  11.961  12.147 -0.0129 -0.2095  0.5300
24435SOL    HW179142   3.254  11.976  12.053 -2.3317  1.8712  0.5785
24435SOL    HW279143   3.288  12.039  12.186 -0.2633 -0.4107  1.2021
24436SOL     OW79144   3.272   6.029   9.343  0.1326  0.8523 -0.3140
24436SOL    HW179145   3.306   6.013   9.256  0.6895  1.2411 -0.1758
24436SOL    HW279146   3.342   6.002   9.402  0.0082  1.1814 -0.0096
24437SOL     OW79147   8.619   8.092   9.197 -0.0713  0.0203 -0.3099
24437SOL    HW179148   8.584   8.111   9.110  1.0184 -1.0077 -1.0065
24437SOL    HW279149   8.555   8.033   9.237 -1.2223  1.4935  0.1288
24438SOL     OW79150   1.757   2.775   7.842  0.0835  0.7811  0.2450
24438SOL    HW179151   1.699   2.808   7.774 -0.5255  1.3266  0.9963
24438SOL    HW279152   1.844   2.806   7.817  0.0839 -0.1678 -0.9696
24439SOL     OW79153   1.117   3.523   5.649 -0.4288  0.3705  0.6634
24439SOL    HW179154   1.046   3.459   5.660 -0.5319  0.8216  3.0085
24439SOL    HW279155   1.092   3.573   5.571 -1.9909 -0.3694  0.6547
24440SOL     OW79156   4.703   4.399   7.423 -0.3559  0.3980  0.0598
24440SOL    HW179157   4.611   4.387   7.399 -0.4046 -0.4576  0.6230
24440SOL    HW279158   4.732   4.312   7.451  0.5864  0.6891  0.0322
24441SOL     OW79159   5.520   5.224   1.793 -0.0947  0.1673  0.9218
24441SOL    HW179160   5.431   5.258   1.787 -0.8021 -1.7261 -0.5263
24441SOL    HW279161   5.562   5.252   1.712  0.1864 -0.0637  0.9876
24442SOL     OW79162   5.135   6.903   8.412  0.0913 -1.0459 -0.1601
24442SOL    HW179163   5.041   6.896   8.396 -0.0824  1.4900 -0.5442
24442SOL    HW279164   5.143   6.909   8.507  0.0047 -2.4579 -0.0402
24443SOL     OW79165   0.477   5.471   6.157  0.0274  0.4040  0.0289
24443SOL    HW179166   0.388   5.455   6.126 -0.2737 -0.2777  1.1971
24443SOL    HW279167   0.473   5.557   6.200  0.1941  0.8394 -0.7832
24444SOL     OW79168   5.130   4.136  10.346  0.2219  0.1404 -0.5337
24444SOL    HW179169   5.060   4.186  10.388 -1.0246 -0.4070 -1.8350
24444SOL    HW279170   5.196   4.124  10.414 -0.0167  2.3886  0.1900
24445SOL     OW79171   5.398   3.026   4.394 -0.2610 -0.1421 -0.4230
24445SOL    HW179172   5.455   3.103   4.397 -0.5263  0.0678 -0.6226
24445SOL    HW279173   5.314   3.060   4.361 -0.5547 -0.4099  0.0313
24446SOL     OW79174   5.036   0.487   7.804  0.2078  0.2830 -0.0716
24446SOL    HW179175   4.983   0.556   7.845  0.8434 -0.2793  1.7705
24446SOL    HW279176   5.126   0.506   7.831  0.5655 -0.4644 -0.7024
24447SOL     OW79177  10.110   3.843  10.727 -0.1380 -0.4831 -0.2810
24447SOL    HW179178  10.056   3.767  10.751 -1.9698  0.6982 -0.4415
24447SOL    HW279179  10.128   3.886  10.811  0.1609 -0.6271 -0.2721
24448SOL     OW79180   6.064   2.672   1.195  0.2511 -0.3076  0.0891
24448SOL    HW179181   6.137   2.734   1.192  0.1865 -0.2536 -0.9344
24448SOL    HW279182   6.075   2.620   1.115 -0.2237 -1.0044  0.4701
24449SOL     OW79183   0.367   5.149   6.908 -0.1081 -0.1791 -0.2991
24449SOL    HW179184   0.385   5.230   6.956  1.7707 -0.4383 -0.5160
24449SOL    HW279185   0.274   5.157   6.884 -0.1311  1.6348  0.1848
24450SOL     OW79186   5.023   8.710   4.665 -0.2294 -0.2935 -0.0895
24450SOL    HW179187   5.116   8.697   4.649 -0.4969 -0.8228 -1.3064
24450SOL    HW279188   4.984   8.717   4.578 -1.6174 -2.3645  0.2990
24451SOL     OW79189  11.093   2.174  11.025  0.1677 -0.0457  0.5112
24451SOL    HW179190  11.049   2.120  10.960 -1.3244  1.9219 -0.1787
24451SOL    HW279191  11.186   2.167  11.003 -0.2899  0.4840 -1.8007
24452SOL     OW79192   5.452  10.613  11.510 -0.1625 -0.6269 -0.2166
24452SOL    HW179193   5.500  10.541  11.468 -0.7531 -1.0774 -0.1343
24452SOL    HW279194   5.386  10.638  11.445 -1.0908 -1.3377  0.4353
24453SOL     OW79195   4.317   8.909   4.989 -0.4131  0.2659 -0.2500
24453SOL    HW179196   4.406   8.944   4.977  0.4009 -1.1445  1.2361
24453SOL    HW279197   4.267   8.944   4.915  1.2325  1.5549 -0.8150
24454SOL     OW79198  12.167   3.434   9.791 -0.2507  0.1918  0.1385
24454SOL    HW179199  12.078   3.451   9.762 -0.6302 -3.1897 -1.0850
24454SOL    HW279200  12.157   3.397   9.879 -0.0291 -0.1974 -0.0028
24455SOL     OW79201   6.816   4.961  10.762 -0.2757 -0.4207 -0.6661
24455SOL    HW179202   6.738   4.906  10.767  1.6218 -3.3841 -0.7156
24455SOL    HW279203   6.852   4.944  10.675  0.7175  0.3897 -0.4323
24456SOL     OW79204  11.262   0.271   4.344  0.0285  0.2188  0.3606
24456SOL    HW179205  11.199   0.242   4.410 -1.6406  0.2092 -1.1435
24456SOL    HW279206  11.330   0.204   4.344 -0.9631 -0.8149  0.7169
24457SOL     OW79207   4.696   0.498   4.488  0.3221 -0.6173 -0.2864
24457SOL    HW179208   4.659   0.525   4.404 -1.2411  0.5921  0.7503
24457SOL    HW279209   4.635   0.529   4.554  1.2975 -1.8843  1.3266
24458SOL     OW79210   5.492  11.992   4.924 -0.3702  0.1241  0.1726
24458SOL    HW179211   5.480  12.085   4.905 -0.4159  0.2326  0.6987
24458SOL    HW279212   5.509  11.989   5.018  0.5062 -0.3235  0.0118
24459SOL     OW79213   8.972   3.199   2.041 -0.4950  0.3418 -0.2266
24459SOL    HW179214   9.057   3.156   2.045 -0.4961  0.2784 -0.7971
24459SOL    HW279215   8.974   3.263   2.113 -0.5326 -0.6665  0.6901
24460SOL     OW79216   6.803   7.116   6.587  0.2590 -0.2486 -0.1639
24460SOL    HW179217   6.802   7.133   6.682  3.5410 -1.5991  0.2526
24460SOL    HW279218   6.849   7.033   6.579 -0.7855 -0.6493 -2.9612
24461SOL     OW79219   8.089   5.860   5.608  0.1397  0.8544 -0.1874
24461SOL    HW179220   8.005   5.888   5.571 -0.6201  0.4914  1.1763
24461SOL    HW279221   8.066   5.789   5.667  1.3867  0.9532  0.4459
24462SOL     OW79222   4.950   3.374   4.897 -0.6209 -0.2857 -0.3550
24462SOL    HW179223   5.035   3.332   4.886 -0.2253  0.2703  0.4639
24462SOL    HW279224   4.905   3.320   4.962 -1.7263 -1.7664 -2.2518
24463SOL     OW79225   5.630   9.148  10.647 -0.1510  0.3028 -0.0371
24463SOL    HW179226   5.606   9.218  10.586  0.8945  0.4224 -0.3363
24463SOL    HW279227   5.552   9.093  10.652 -1.2406  1.8630  0.7642
24464SOL     OW79228   1.161   7.207   4.475 -0.3198 -0.3343 -0.8373
24464SOL    HW179229   1.164   7.267   4.400 -0.2491  1.2208  0.3531
24464SOL    HW279230   1.139   7.263   4.549 -0.0902 -1.7813  0.3685
24465SOL     OW79231   3.764   0.368  10.134  1.1058 -0.3506  0.2084
24465SOL    HW179232   3.753   0.274  10.118 -0.8816 -0.1908  0.3892
24465SOL    HW279233   3.750   0.379  10.228  2.6412  0.0089  0.4394
24466SOL     OW79234   2.756   6.340   1.226 -0.3154  0.3434  0.0652
24466SOL    HW179235   2.772   6.245   1.218 -0.3531  0.4256 -1.2701
24466SOL    HW279236   2.663   6.350   1.208 -0.0357  0.7552 -1.2826
24467SOL     OW79237   3.417   4.484   4.563  0.1201 -0.0637  0.1482
24467SOL    HW179238   3.500   4.508   4.522  0.5860 -3.3879 -1.2521
24467SOL    HW279239   3.351   4.500   4.495  0.1866 -0.8644 -0.1214
24468SOL     OW79240  11.336   7.468   2.993  0.2156  0.5466 -0.4526
24468SOL    HW179241  11.359   7.558   2.970 -0.6843  0.7765 -0.4926
24468SOL    HW279242  11.290   7.475   3.076  1.8041 -0.0918  0.5250
24469SOL     OW79243   0.060   3.040   7.269  0.2912 -0.4709  0.1206
24469SOL    HW179244  -0.034   3.026   7.278  0.6199 -2.3120  1.1608
24469SOL    HW279245   0.089   2.970   7.210  1.1847 -0.7190  0.8342
24470SOL     OW79246   3.330   2.895   6.384 -0.1499 -0.1569 -0.2447
24470SOL    HW179247   3.272   2.833   6.340  0.0990 -1.4735  1.1964
24470SOL    HW279248   3.332   2.971   6.326 -1.9135 -0.7633 -1.1809
24471SOL     OW79249   3.759   6.916   6.624 -0.1173  0.0937 -0.0339
24471SOL    HW179250   3.677   6.870   6.609 -0.0905  0.6212 -2.1029
24471SOL    HW279251   3.733   7.006   6.644 -0.1031 -0.3670  2.4503
24472SOL     OW79252   6.662   1.686  11.150 -0.1694  0.1457 -0.0499
24472SOL    HW179253   6.729   1.741  11.191 -0.6355  0.2717  0.5649
24472SOL    HW279254   6.616   1.646  11.224  0.5262 -1.5227 -0.4944
24473SOL     OW79255   4.400   0.697   0.783 -0.2690 -0.2421  0.0689
24473SOL    HW179256   4.394   0.658   0.695 -3.0687 -2.2462  0.9994
24473SOL    HW279257   4.484   0.666   0.817  0.6544  0.1871 -1.7098
24474SOL     OW79258   8.670  12.015   4.475 -0.2977  0.1079  0.8359
24474SOL    HW179259   8.664  12.078   4.547  0.5259  2.5835 -1.1156
24474SOL    HW279260   8.600  12.041   4.415 -0.8329 -1.7675  0.5950
24475SOL     OW79261   2.200   6.102   1.408  0.6609  0.4890  0.0844
24475SOL    HW179262   2.239   6.015   1.396  1.1147  0.8381 -1.0815
24475SOL    HW279263   2.233   6.131   1.493  1.7796  0.1627 -0.2221
24476SOL     OW79264   0.953   8.844   3.502 -0.0470 -0.5199 -0.2712
24476SOL    HW179265   0.897   8.860   3.426 -1.7637 -0.4958  0.9286
24476SOL    HW279266   1.037   8.883   3.478 -0.2057 -1.4324 -2.5362
24477SOL     OW79267   2.708   7.380   0.705 -0.0199  0.3061 -0.2072
24477SOL    HW179268   2.769   7.310   0.685 -1.3957 -0.7314 -0.9817
24477SOL    HW279269   2.630   7.360   0.653 -1.5980  0.6967  1.8320
24478SOL     OW79270   1.531   0.178   1.797  0.0339 -0.5475  0.5929
24478SOL    HW179271   1.556   0.222   1.878 -2.4502 -0.0574  1.1694
24478SOL    HW279272   1.611   0.177   1.745  0.7792  2.5916  1.4920
24479SOL     OW79273   5.984   1.718   0.651 -0.1383  0.5889 -0.0614
24479SOL    HW179274   5.892   1.732   0.628 -0.5024 -1.6022 -0.1225
24479SOL    HW279275   5.989   1.742   0.744 -0.9326  0.1413  0.1070
24480SOL     OW79276   3.656   7.450   7.569 -0.4443 -0.4335 -0.0894
24480SOL    HW179277   3.675   7.367   7.526 -0.9252 -0.4670 -0.2422
24480SOL    HW279278   3.576   7.435   7.618  0.0488 -0.3654  0.7570
24481SOL     OW79279   6.916   4.894   3.604 -0.3925  0.5142 -0.2303
24481SOL    HW179280   6.924   4.849   3.520  0.1866 -0.4733  0.3421
24481SOL    HW279281   6.909   4.987   3.580  1.6792  0.4536 -1.3203
24482SOL     OW79282   5.062   0.838   8.302 -0.6023  0.4637  0.3297
24482SOL    HW179283   5.090   0.861   8.391 -2.5420  0.5300  0.9736
24482SOL    HW279284   5.036   0.921   8.263 -1.2652  0.2358  0.2760
24483SOL     OW79285   3.230   8.661   7.290  0.8246  0.5482  0.8079
24483SOL    HW179286   3.165   8.720   7.328  1.6829  1.7351  0.4762
24483SOL    HW279287   3.192   8.634   7.206 -0.4398 -0.9626  1.7896
24484SOL     OW79288   2.202  10.948   6.448 -0.8064 -0.5795  0.8293
24484SOL    HW179289   2.182  10.928   6.540  0.2952  0.0992  1.2413
24484SOL    HW279290   2.208  10.862   6.407  2.4439 -1.2301  2.2751
24485SOL     OW79291  10.427   3.856   3.237  0.5567 -0.7026  0.4488
24485SOL    HW179292  10.491   3.865   3.307  0.2940 -1.2123  0.7602
24485SOL    HW279293  10.476   3.873   3.157  0.7438  0.3980  0.7876
24486SOL     OW79294   7.368   9.902   1.605  0.6533  0.2202 -0.6714
24486SOL    HW179295   7.351   9.913   1.511  0.1830  0.4713 -0.5636
24486SOL    HW279296   7.443   9.843   1.609 -0.1859 -0.9257 -1.1876
24487SOL     OW79297   3.149   8.383   0.068  0.4669  0.0013 -0.8200
24487SOL    HW179298   3.089   8.349   0.134  1.6221  0.8060  0.7008
24487SOL    HW279299   3.148   8.317  -0.001 -0.9136 -0.7855 -0.0906
24488SOL     OW79300   5.561   9.681   6.434 -0.3952 -0.1997  0.3468
24488SOL    HW179301   5.554   9.601   6.486 -0.2618 -0.9220 -0.7262
24488SOL    HW279302   5.470   9.703   6.412 -0.4155 -0.1911  0.4381
24489SOL     OW79303   8.498   9.296   0.976  0.0746  0.1191 -0.0821
24489SOL    HW179304   8.417   9.284   0.927 -0.3721  0.0111  0.6604
24489SOL    HW279305   8.557   9.339   0.915 -1.2358  2.1626  0.0133
24490SOL     OW79306   1.625   1.018  10.892 -0.0810 -0.4790  0.3300
24490SOL    HW179307   1.629   1.080  10.965 -0.9080 -0.2260  0.1768
24490SOL    HW279308   1.698   1.042  10.835 -1.3776  1.5014 -0.6083
24491SOL     OW79309  11.674  11.950   7.129  0.2160 -0.0470  0.2974
24491SOL    HW179310  11.767  11.933   7.138  0.8605  2.3270 -0.9441
24491SOL    HW279311  11.652  11.919   7.041 -0.1147 -0.3847  0.4959
24492SOL     OW79312   8.924   3.357   2.255  0.1208  0.8002  0.1204
24492SOL    HW179313   8.885   3.328   2.338 -1.0916 -2.4427 -1.3814
24492SOL    HW279314   8.863   3.423   2.221 -0.5890  0.5117  0.8028
24493SOL     OW79315   2.164   2.908   1.155 -0.3772 -0.0219 -0.2310
24493SOL    HW179316   2.072   2.933   1.161 -0.5601 -0.8072  0.4208
24493SOL    HW279317   2.174   2.837   1.219  0.3132 -1.0203 -1.4006
24494SOL     OW79318   0.429   8.590   4.885  0.5291  0.2208  0.2793
24494SOL    HW179319   0.399   8.670   4.928 -0.1208 -0.5456  1.2988
24494SOL    HW279320   0.362   8.571   4.819  0.8718  0.7072 -0.2132
24495SOL     OW79321   6.076   5.883   3.201  0.2622  0.0630 -0.1010
24495SOL    HW179322   6.085   5.972   3.169 -4.7280  0.8225 -0.0971
24495SOL    HW279323   6.079   5.891   3.297 -1.0512  0.4115 -0.0776
24496SOL     OW79324   8.479   8.142   8.966 -0.4165  0.2065  0.1119
24496SOL    HW179325   8.493   8.225   8.919  0.7066 -0.4856 -0.8218
24496SOL    HW279326   8.384   8.138   8.979 -0.6643  0.8393 -1.3311
24497SOL     OW79327   4.929   0.832  10.832 -0.1554 -0.5240  0.2846
24497SOL    HW179328   4.939   0.770  10.905  1.3571  0.7927  1.2500
24497SOL    HW279329   4.994   0.805  10.768  1.3279  0.7185  1.2193
24498SOL     OW79330  12.304   1.469   7.706 -0.4244  0.3891  0.0179
24498SOL    HW179331  12.257   1.419   7.639 -0.0549  0.9463 -0.6656
24498SOL    HW279332  12.375   1.411   7.733 -0.3332  0.3209 -0.3663
24499SOL     OW79333   0.780   6.044   0.579 -0.2311 -0.0939 -0.2332
24499SOL    HW179334   0.847   5.977   0.573  1.4712  1.6098 -1.0447
24499SOL    HW279335   0.747   6.054   0.490  0.0519  0.6490 -0.2617
24500SOL     OW79336   5.323  10.381   7.790 -0.1290 -0.0030  0.2862
24500SOL    HW179337   5.316  10.346   7.879 -0.2721  0.2866  0.3906
24500SOL    HW279338   5.409  10.422   7.788  0.2183 -0.7362  0.0258
24501SOL     OW79339   3.021   3.250   2.861 -0.0910  0.4814 -0.1336
24501SOL    HW179340   3.099   3.305   2.871  0.8595 -0.7359 -0.6637
24501SOL    HW279341   3.028   3.215   2.772  0.5664 -2.3258  0.9309
24502SOL     OW79342   5.378   1.758   5.854 -0.5728 -0.5203  0.2281
24502SOL    HW179343   5.395   1.821   5.784 -1.5733  1.0609  1.3179
24502SOL    HW279344   5.458   1.705   5.859  0.0789  0.2760 -1.1181
24503SOL     OW79345   0.662   3.420   9.786  0.6267 -0.2534  0.1813
24503SOL    HW179346   0.750   3.456   9.801 -0.1763  1.8015  0.2026
24503SOL    HW279347   0.678   3.340   9.735  2.5992 -0.8526  1.5945
24504SOL     OW79348   0.563   7.868   6.653  0.6523  0.3187  0.4724
24504SOL    HW179349   0.530   7.942   6.704 -1.4304 -0.4033  0.2607
24504SOL    HW279350   0.500   7.798   6.669  0.7026 -0.3725 -1.9873
24505SOL     OW79351   0.368   6.511  10.022 -0.2078 -0.2814  0.1625
24505SOL    HW179352   0.418   6.530  10.101 -0.1825 -0.2457  0.1383
24505SOL    HW279353   0.378   6.417  10.009 -0.6765 -0.3770  0.5159
24506SOL     OW79354   8.049   9.702  12.299  0.0066  0.1908  0.3584
24506SOL    HW179355   7.970   9.648  12.300  1.4057 -2.0668 -0.7931
24506SOL    HW279356   8.037   9.762  12.226 -0.2391 -0.8833 -0.5209
24507SOL     OW79357  10.751   8.734   8.411  0.8197 -0.1891 -0.0842
24507SOL    HW179358  10.808   8.809   8.394 -1.0758  1.6161  1.0338
24507SOL    HW279359  10.758   8.721   8.506 -0.4628 -0.0579  0.0358
24508SOL     OW79360   2.987   5.397   8.344  0.0257  0.0428 -0.4884
24508SOL    HW179361   3.042   5.451   8.287  0.1095  0.2301 -0.2325
24508SOL    HW279362   2.941   5.459   8.400  1.2530 -0.1799  0.8382
24509SOL     OW79363  11.001   8.254  11.037  0.3573 -0.1919  0.5915
24509SOL    HW179364  10.989   8.192  10.965 -1.9601 -0.5832  1.2041
24509SOL    HW279365  10.922   8.243  11.090  1.1167  1.4468  2.1534
24510SOL     OW79366   1.246   2.365   9.925  0.5610  0.3698 -0.0863
24510SOL    HW179367   1.264   2.331   9.837  0.1905  0.1868 -0.0933
24510SOL    HW279368   1.294   2.447   9.929  1.2282 -0.0067 -0.1772
24511SOL     OW79369   5.768   7.742   4.559  0.3813 -0.0204  0.0328
24511SOL    HW179370   5.808   7.829   4.562 -2.5604  1.5264 -1.3766
24511SOL    HW279371   5.714   7.737   4.638  0.2041 -0.4085 -0.1110
24512SOL     OW79372   0.376   2.350   0.154 -0.0413  0.1298  0.3452
24512SOL    HW179373   0.416   2.265   0.175 -0.3369 -0.1217 -0.0867
24512SOL    HW279374   0.309   2.362   0.222  1.0341  0.7582  1.3318
24513SOL     OW79375   1.130   3.022   2.411  0.3003  0.2969 -0.1258
24513SOL    HW179376   1.139   2.973   2.329 -1.5368 -0.2044 -0.0765
24513SOL    HW279377   1.215   3.012   2.454  0.5133 -1.5506 -0.8518
24514SOL     OW79378   4.730   1.019   0.914 -0.4354 -0.7487  0.1396
24514SOL    HW179379   4.700   1.107   0.890  2.0148 -0.1642 -1.0869
24514SOL    HW279380   4.650   0.973   0.939 -2.0112  1.3201 -0.7588
24515SOL     OW79381   8.416   7.299   0.353  0.5918 -0.1633 -0.2106
24515SOL    HW179382   8.412   7.327   0.261 -1.8682  1.0821  0.1657
24515SOL    HW279383   8.490   7.348   0.390  0.7189  0.4335 -1.2186
24516SOL     OW79384   4.081   9.094   8.522  0.0123 -0.2320 -0.1565
24516SOL    HW179385   4.165   9.047   8.521  0.5628  0.7305 -0.8044
24516SOL    HW279386   4.100   9.177   8.479 -1.5377 -0.4034 -1.2258
24517SOL     OW79387   0.201   1.412   6.948  0.4072 -0.3460  0.2649
24517SOL    HW179388   0.155   1.344   6.900 -1.2556  1.1968 -0.4976
24517SOL    HW279389   0.217   1.374   7.034 -1.5771 -1.3113  0.2716
24518SOL     OW79390   2.266   9.134   7.237  0.2729 -0.1239  0.0831
24518SOL    HW179391   2.354   9.164   7.258 -0.1434  0.7386  0.6828
24518SOL    HW279392   2.209   9.204   7.269 -0.5367  0.2798 -2.0733
24519SOL     OW79393   4.957   9.744   4.218  0.1214  0.9605 -0.0010
24519SOL    HW179394   4.874   9.754   4.263 -1.8082  0.8914 -3.2447
24519SOL    HW279395   4.956   9.655   4.183  0.8635  1.4086 -1.2783
24520SOL     OW79396   7.941  11.034   6.420 -0.2921 -0.1506  0.1506
24520SOL    HW179397   7.941  10.946   6.459  1.0268 -0.1753  0.1340
24520SOL    HW279398   7.967  11.091   6.492 -0.9907  0.2183  0.1179
24521SOL     OW79399   6.273   4.073   4.835  0.2587  0.2997 -0.0381
24521SOL    HW179400   6.184   4.106   4.845  0.3804  0.2715  1.3539
24521SOL    HW279401   6.281   4.006   4.903  1.1697 -0.0766 -0.5048
24522SOL     OW79402  11.515   6.907  11.916  0.0413 -0.0090 -0.1824
24522SOL    HW179403  11.530   6.999  11.937  2.2113  0.8063 -4.3957
24522SOL    HW279404  11.579   6.860  11.969 -0.9272  0.8167  1.8306
24523SOL     OW79405   7.870   2.887   8.382  0.5053 -0.3016 -0.3218
24523SOL    HW179406   7.959   2.904   8.350  0.7365 -1.4861 -0.3565
24523SOL    HW279407   7.877   2.897   8.477 -0.1714  3.1663 -0.4830
24524SOL     OW79408  11.003   6.699   3.216 -0.4058  0.5052  0.2219
24524SOL    HW179409  11.089   6.658   3.227 -0.9381 -0.4368  1.0264
24524SOL    HW279410  10.976   6.722   3.305 -1.1602  0.4385  0.0143
24525SOL     OW79411   9.432  10.799   1.605 -0.1021 -0.2069  0.1015
24525SOL    HW179412   9.384  10.754   1.535 -0.4690  1.7568 -0.9840
24525SOL    HW279413   9.410  10.892   1.593  1.2527  0.3689  1.7329
24526SOL     OW79414   8.550   7.081   7.924 -0.5168  0.3208 -0.2230
24526SOL    HW179415   8.615   7.147   7.947 -0.2533  0.3474 -1.0393
24526SOL    HW279416   8.544   7.084   7.829 -1.7860  0.3853 -0.1592
24527SOL     OW79417   1.927   1.677   1.033 -0.0407  0.1553  0.5756
24527SOL    HW179418   1.894   1.675   1.123 -0.9521 -3.6805  0.3440
24527SOL    HW279419   1.874   1.612   0.988  1.8426  0.4180 -2.2175
24528SOL     OW79420   2.691   5.614   5.175  0.4513  0.1266 -0.4688
24528SOL    HW179421   2.752   5.666   5.228 -0.3444 -1.3159  2.0447
24528SOL    HW279422   2.747   5.552   5.129  1.1962  1.6318 -1.6990
24529SOL     OW79423  10.167   2.625   5.923  0.0657 -0.3225 -0.0115
24529SOL    HW179424  10.128   2.663   5.845 -0.4206  1.0458  0.8698
24529SOL    HW279425  10.096   2.576   5.964  0.3922 -1.2743 -0.5386
24530SOL     OW79426  10.752   9.926   1.265  0.3070  0.0727  0.0670
24530SOL    HW179427  10.847   9.920   1.271  0.3409 -0.6688 -0.9446
24530SOL    HW279428  10.731   9.890   1.178 -0.7634  1.6637 -0.3854
24531SOL     OW79429   2.042   7.359   9.481 -0.8234  0.1352  0.1607
24531SOL    HW179430   2.037   7.332   9.390 -2.2277  0.4182  0.1310
24531SOL    HW279431   2.090   7.442   9.480  1.2469 -1.0141 -0.0281
24532SOL     OW79432  10.619   2.103   9.758  0.4783 -0.8356 -0.1785
24532SOL    HW179433  10.552   2.141   9.815  2.2054  1.6732  0.3381
24532SOL    HW279434  10.652   2.028   9.808 -1.4381 -1.7318 -0.1677
24533SOL     OW79435   0.708  11.401   7.676  0.0747  0.5967 -0.1347
24533SOL    HW179436   0.614  11.414   7.679 -0.0680 -0.4343  1.4363
24533SOL    HW279437   0.732  11.377   7.766  1.4502 -1.5608 -0.9788
24534SOL     OW79438   5.982   6.124   6.436  0.1167 -0.3994  0.2000
24534SOL    HW179439   6.009   6.168   6.356 -0.7053 -3.0632 -1.6504
24534SOL    HW279440   6.020   6.178   6.506  0.2821  2.4103 -1.8785
24535SOL     OW79441   5.442   1.287   0.171  0.4805 -0.1553  0.2232
24535SOL    HW179442   5.433   1.191   0.165  0.4622 -0.1876  0.7236
24535SOL    HW279443   5.461   1.303   0.263 -1.5335  0.4787  0.5805
24536SOL     OW79444  11.376   4.593   5.882  0.6867 -0.2065 -0.0139
24536SOL    HW179445  11.458   4.640   5.867  0.8945 -0.7422 -0.6139
24536SOL    HW279446  11.360   4.547   5.800 -1.4683  1.7400 -0.7717
24537SOL     OW79447  11.803   6.932   6.830 -0.5849  0.5031 -0.4671
24537SOL    HW179448  11.832   6.952   6.919 -1.9095 -0.5867  0.2501
24537SOL    HW279449  11.877   6.956   6.774  0.0250  1.8527  0.8445
24538SOL     OW79450   1.642   1.689   8.334 -0.0628  0.2197 -0.3837
24538SOL    HW179451   1.548   1.706   8.322  0.1138  0.3113 -1.8568
24538SOL    HW279452   1.670   1.754   8.398 -1.0840 -0.0804  0.3988
24539SOL     OW79453   2.639   8.126  10.113  0.2940  0.4446 -0.3951
24539SOL    HW179454   2.671   8.212  10.087 -0.0052  1.0558  1.1546
24539SOL    HW279455   2.691   8.102  10.189  0.5064 -0.8577 -0.9169
24540SOL     OW79456   8.433   1.677   9.745  0.3324  0.3166 -0.2419
24540SOL    HW179457   8.435   1.641   9.834 -1.5537  1.9706  0.5245
24540SOL    HW279458   8.436   1.771   9.757  0.3760  0.5612 -1.9734
24541SOL     OW79459  11.564   5.152  11.221  0.3961  0.0357  0.0664
24541SOL    HW179460  11.514   5.233  11.228  1.5363  0.8177 -0.3930
24541SOL    HW279461  11.537   5.113  11.138 -0.9485 -0.6361  0.7950
24542SOL     OW79462   9.049   8.083   5.180 -0.6527 -0.3578 -0.2486
24542SOL    HW179463   8.967   8.048   5.214 -0.2736  0.3290  1.4385
24542SOL    HW279464   9.109   8.081   5.254  0.6155 -0.0622 -1.2338
24543SOL     OW79465  12.059   6.949   0.188 -0.0497  0.5748 -0.1280
24543SOL    HW179466  11.995   6.883   0.164 -0.1681  1.2144 -1.7421
24543SOL    HW279467  12.121   6.904   0.245 -0.4791 -0.7541 -0.6833
24544SOL     OW79468   4.023   4.321  12.236  0.5911  0.1817  0.3245
24544SOL    HW179469   3.933   4.353  12.247  0.3198 -0.1318 -0.7981
24544SOL    HW279470   4.077   4.399  12.243  0.0990  0.6109 -0.4580
24545SOL     OW79471  10.507  10.764  11.985  0.4143 -0.4283 -0.0874
24545SOL    HW179472  10.502  10.691  12.047 -0.6634 -0.7535 -0.5356
24545SOL    HW279473  10.576  10.820  12.019  1.4279 -1.7799  0.1351
24546SOL     OW79474   6.687  12.194   7.602  0.1653 -0.3137  0.3271
24546SOL    HW179475   6.683  12.170   7.694  0.5423 -1.9249 -0.0306
24546SOL    HW279476   6.614  12.254   7.588 -0.9211 -1.3674  1.3200
24547SOL     OW79477   1.710   9.609   3.850 -0.5889 -0.0622 -0.4616
24547SOL    HW179478   1.712   9.629   3.943 -1.5811 -0.9126 -0.2397
24547SOL    HW279479   1.653   9.676   3.812 -0.2777  0.2153 -0.4393
24548SOL     OW79480   3.542   2.312   5.939 -0.5489  0.1579  0.0930
24548SOL    HW179481   3.577   2.393   5.902  0.3429 -0.3800 -0.2914
24548SOL    HW279482   3.510   2.263   5.863 -1.0401  0.1275  0.3180
24549SOL     OW79483  11.947   3.928   7.342 -0.1699 -0.3565  0.7085
24549SOL    HW179484  11.922   4.021   7.341 -0.3187 -0.3755  1.6447
24549SOL    HW279485  11.871   3.883   7.379 -0.5774 -1.0215 -0.8623
24550SOL     OW79486   7.588   0.067   8.468  0.2429  0.1563 -0.4093
24550SOL    HW179487   7.539   0.002   8.518 -1.7842  0.1133 -2.3145
24550SOL    HW279488   7.659   0.094   8.527  2.2320 -4.8568 -0.0208
24551SOL     OW79489  10.482   8.653   6.682 -0.3999  0.3151 -0.3151
24551SOL    HW179490  10.541   8.600   6.629  0.0711 -0.2405  0.7327
24551SOL    HW279491  10.406   8.597   6.697  0.2982 -0.3031  1.1876
24552SOL     OW79492   0.057   8.625   3.985 -0.2783  0.1849  0.0744
24552SOL    HW179493   0.106   8.567   3.927  0.6134  0.0482  0.9440
24552SOL    HW279494   0.087   8.713   3.962 -0.1094  0.1486  0.1550
24553SOL     OW79495   4.302   7.339   2.240 -0.7074 -0.1430  0.1288
24553SOL    HW179496   4.242   7.353   2.313 -0.9734 -0.7800  0.0426
24553SOL    HW279497   4.314   7.244   2.237 -1.5045 -0.2225 -1.2853
24554SOL     OW79498  12.214   3.346   0.899  0.3896 -0.0870  0.0413
24554SOL    HW179499  12.138   3.299   0.932 -0.5865  0.4944 -1.2837
24554SOL    HW279500  12.204   3.343   0.804  2.2349 -0.3281 -0.1845
24555SOL     OW79501  11.811   5.324   2.873 -0.2112  0.3639  0.2701
24555SOL    HW179502  11.740   5.371   2.830  0.6016  2.4974  1.1228
24555SOL    HW279503  11.833   5.378   2.949  1.2088 -1.1026  0.9677
24556SOL     OW79504   9.666   0.386   9.639  0.1258  0.6107 -0.7207
24556SOL    HW179505   9.596   0.408   9.577  0.0118 -0.8067 -1.1398
24556SOL    HW279506   9.685   0.293   9.621 -0.1790  0.0386  1.6382
24557SOL     OW79507   1.703   5.541   2.443 -0.1354  0.0538 -0.0987
24557SOL    HW179508   1.695   5.586   2.359  0.7759  0.1352 -0.1519
24557SOL    HW279509   1.744   5.605   2.501 -1.8207  0.4236  0.7727
24558SOL     OW79510   0.742   1.903   1.301 -0.0464  0.4124 -0.0591
24558SOL    HW179511   0.817   1.963   1.308  1.2345 -1.0674 -0.6308
24558SOL    HW279512   0.724   1.900   1.207  0.6532 -0.9711 -0.1635
24559SOL     OW79513   0.291   1.437   0.487  0.1539 -0.1655 -0.4912
24559SOL    HW179514   0.330   1.489   0.416  0.1850  1.1851  0.4813
24559SOL    HW279515   0.306   1.489   0.566 -1.8733 -0.5256  0.1937
24560SOL     OW79516  11.201   0.313   8.930 -0.6618  0.0937  0.0706
24560SOL    HW179517  11.145   0.381   8.967 -1.0914 -1.1710  1.8947
24560SOL    HW279518  11.282   0.319   8.981 -1.3278 -1.8076  1.4281
24561SOL     OW79519   6.388   2.240   2.606  0.6771 -0.1427  0.2585
24561SOL    HW179520   6.410   2.209   2.693  0.6165 -0.3036  0.2161
24561SOL    HW279521   6.311   2.295   2.618  0.3562 -0.5839  0.2351
24562SOL     OW79522   4.920   7.091   0.476  0.1449  0.4084  0.1671
24562SOL    HW179523   4.852   7.136   0.425  0.2963  1.0742  0.5586
24562SOL    HW279524   4.894   6.999   0.472 -0.5881  0.6148  0.0138
24563SOL     OW79525   7.101   3.736  11.023  0.0032  0.2215  0.2747
24563SOL    HW179526   7.178   3.701  11.069  0.4698  0.8544 -0.0068
24563SOL    HW279527   7.027   3.705  11.075  0.1616 -3.4956 -1.3888
24564SOL     OW79528   4.783   3.796   8.991  0.3351 -0.5375 -0.3319
24564SOL    HW179529   4.855   3.786   8.930  1.1254  2.0995  0.0611
24564SOL    HW279530   4.726   3.862   8.951 -0.4658 -0.6334  0.6003
24565SOL     OW79531  11.916  10.131   7.125  0.4494  0.1250  0.2491
24565SOL    HW179532  11.960  10.045   7.131  2.1308  0.7609 -1.7598
24565SOL    HW279533  11.840  10.115   7.070  0.2632 -0.2332  0.5999
24566SOL     OW79534   3.240   7.918  11.210  0.2395 -0.3097  0.5365
24566SOL    HW179535   3.234   7.999  11.159 -1.2957 -0.3175  0.6432
24566SOL    HW279536   3.322   7.926  11.259  0.3766  0.9369  0.1488
24567SOL     OW79537  10.806   7.792  11.728  0.2802 -0.0919  0.1186
24567SOL    HW179538  10.730   7.846  11.709  0.7091  1.2033  1.8829
24567SOL    HW279539  10.880   7.844  11.695  0.5304 -0.6288 -0.1733
24568SOL     OW79540  12.213   7.107   1.429 -0.1510 -0.1731  0.0304
24568SOL    HW179541  12.136   7.163   1.440  0.0787  0.3248 -0.7919
24568SOL    HW279542  12.286   7.169   1.423  0.2760 -0.6291  0.5309
24569SOL     OW79543   5.833   0.515  11.939  0.4686 -0.1498 -0.0611
24569SOL    HW179544   5.819   0.422  11.955 -1.7007  0.0812 -0.3266
24569SOL    HW279545   5.756   0.542  11.888  0.9742  1.8197  0.1586
24570SOL     OW79546   2.958  10.311  10.960 -0.2941  0.2461  0.3955
24570SOL    HW179547   2.931  10.332  10.871  2.4188  0.2229 -0.5237
24570SOL    HW279548   2.946  10.394  11.008 -1.4729  0.3468 -0.0372
24571SOL     OW79549  12.080   6.659   6.146  0.6301 -0.4628  0.7399
24571SOL    HW179550  12.012   6.725   6.140  1.1525  0.0304  0.0668
24571SOL    HW279551  12.041   6.588   6.198 -1.4430 -1.5166 -2.0383
24572SOL     OW79552   4.225   4.347   6.618  0.1213 -0.5625  0.1465
24572SOL    HW179553   4.277   4.367   6.540  0.1400 -1.6794 -0.1343
24572SOL    HW279554   4.134   4.355   6.590  0.1225  0.4583  0.3948
24573SOL     OW79555  10.974  10.361   0.911  0.4130 -0.2764 -0.2671
24573SOL    HW179556  10.968  10.331   1.002  0.6817 -0.3067 -0.2614
24573SOL    HW279557  10.887  10.397   0.893 -0.2336 -1.9143 -0.5837
24574SOL     OW79558  12.302   8.439   9.673  0.3525  0.4564  0.4421
24574SOL    HW179559  12.323   8.441   9.767 -2.6482 -0.4992  1.2481
24574SOL    HW279560  12.211   8.470   9.669  1.6694  4.9584 -2.7304
24575SOL     OW79561   5.589  10.790   6.982 -0.6901  0.8108 -0.1224
24575SOL    HW179562   5.533  10.713   6.998 -0.1769  0.7351  1.4931
24575SOL    HW279563   5.550  10.832   6.906 -0.9877 -1.0472 -1.0638
24576SOL     OW79564   1.282   2.615   8.298 -0.2065  0.3093 -0.3962
24576SOL    HW179565   1.302   2.525   8.323 -1.5605 -0.0335 -0.4727
24576SOL    HW279566   1.333   2.669   8.359 -0.4282 -0.5033  0.5274
24577SOL     OW79567   6.047   8.860   8.808  0.2340  0.3862 -0.1741
24577SOL    HW179568   5.957   8.826   8.810  0.7170 -0.9612  1.1586
24577SOL    HW279569   6.091   8.806   8.741  0.2324  0.5156 -0.2786
24578SOL     OW79570   4.619   4.250   9.665  0.1238  0.7431 -0.1127
24578SOL    HW179571   4.676   4.180   9.696  2.3807  1.0218 -3.2909
24578SOL    HW279572   4.545   4.205   9.624  2.0297  0.0026 -3.0118
24579SOL     OW79573   3.336   5.676   6.805  0.7090  0.3044 -0.0549
24579SOL    HW179574   3.386   5.608   6.852  0.5083 -0.1742 -0.5272
24579SOL    HW279575   3.265   5.698   6.865 -0.4737 -1.4368 -0.7303
24580SOL     OW79576   6.894   7.228   4.272  0.2141 -0.3430 -0.1872
24580SOL    HW179577   6.868   7.269   4.354  1.0382  3.0778 -1.4625
24580SOL    HW279578   6.988   7.213   4.281 -0.0262 -1.7643  0.1468
24581SOL     OW79579   4.793  10.604   5.687 -0.0278  0.3071  0.1899
24581SOL    HW179580   4.705  10.588   5.652 -0.8134 -0.1254  2.2126
24581SOL    HW279581   4.797  10.699   5.700  0.3864  0.5095 -1.2802
24582SOL     OW79582   1.453   2.345  11.577 -0.2939 -0.3912  0.2526
24582SOL    HW179583   1.389   2.382  11.516  0.6179 -0.1484 -0.5821
24582SOL    HW279584   1.490   2.270  11.530  0.6495 -0.0101  0.3802
24583SOL     OW79585   4.484   1.033   4.546 -0.6173  0.4572 -0.0039
24583SOL    HW179586   4.496   0.972   4.619 -0.7244 -1.1506 -1.2816
24583SOL    HW279587   4.418   1.094   4.578  0.6095  0.9113  1.8937
24584SOL     OW79588   2.979   9.364   5.179 -0.1071 -0.3352 -0.4380
24584SOL    HW179589   3.022   9.369   5.264 -1.2803  1.8029  0.1060
24584SOL    HW279590   3.034   9.306   5.127  1.6051 -0.2850  1.2338
24585SOL     OW79591   6.160   9.470   1.060 -0.0387  0.0831  0.4004
24585SOL    HW179592   6.212   9.428   1.128 -0.3984 -0.5404  0.2968
24585SOL    HW279593   6.213   9.545   1.032  1.1989 -1.0106 -0.2925
24586SOL     OW79594   0.437   0.968   3.684  0.4138  0.1406  0.5202
24586SOL    HW179595   0.528   0.968   3.656 -0.3029 -1.1845 -2.1026
24586SOL    HW279596   0.413   0.876   3.691 -0.2019  0.4261  3.3108
24587SOL     OW79597   9.232   7.820  11.278 -0.1971  0.3075  0.5677
24587SOL    HW179598   9.318   7.794  11.311 -0.4855 -0.1808  0.9331
24587SOL    HW279599   9.251   7.857  11.191  0.2338 -1.0491  0.0583
24588SOL     OW79600   0.764   5.497  11.067 -0.1278 -0.5302  0.2015
24588SOL    HW179601   0.673   5.521  11.047 -0.1948  1.0937  2.0930
24588SOL    HW279602   0.801   5.576  11.107  1.9981 -1.3079 -0.1081
24589SOL     OW79603   3.780   7.808   1.238 -0.2675 -0.2283  0.4745
24589SOL    HW179604   3.791   7.714   1.232 -1.2979 -0.3516  0.2429
24589SOL    HW279605   3.696   7.819   1.284 -0.5092  0.5570 -0.1250
24590SOL     OW79606   6.283   3.537   2.289 -0.1082 -0.4417  0.4177
24590SOL    HW179607   6.269   3.557   2.197 -0.4737 -0.2377  0.5122
24590SOL    HW279608   6.330   3.454   2.289  0.4881 -0.1081  0.0392
24591SOL     OW79609   2.903   8.278   4.448  0.4725  0.4001  0.1375
24591SOL    HW179610   2.837   8.346   4.458 -0.7000 -0.7479  0.3978
24591SOL    HW279611   2.969   8.318   4.390 -0.3788  1.5959 -0.0588
24592SOL     OW79612   1.050   4.133   7.288  0.4589  0.1972 -0.1403
24592SOL    HW179613   0.959   4.101   7.288 -0.2960  2.2104  0.3195
24592SOL    HW279614   1.090   4.090   7.213 -0.9586 -0.5124 -0.5418
24593SOL     OW79615  11.593   2.332   6.120 -0.1544 -0.0855 -0.6633
24593SOL    HW179616  11.641   2.362   6.043 -2.8082  1.7323 -1.7899
24593SOL    HW279617  11.649   2.356   6.194  1.8246 -0.5660 -1.9308
24594SOL     OW79618  11.497   4.626   5.425  0.1369 -0.0755  0.6199
24594SOL    HW179619  11.556   4.555   5.397 -0.5372  0.0889 -1.4156
24594SOL    HW279620  11.473   4.670   5.343 -3.2621 -0.4983  1.2545
24595SOL     OW79621   4.418   9.996   2.928 -0.2896  0.2785  0.5027
24595SOL    HW179622   4.438  10.010   3.021  1.1493  1.5907  0.0430
24595SOL    HW279623   4.333  10.039   2.915  0.6072  2.2241  0.7414
24596SOL     OW79624   1.405   5.545   4.767 -0.1023 -0.6076  0.1058
24596SOL    HW179625   1.418   5.615   4.703 -1.1081  0.4125  0.9687
24596SOL    HW279626   1.490   5.536   4.810  0.0693 -0.0042 -0.0981
24597SOL     OW79627   3.216   6.863  10.144  0.0689 -0.5436 -0.5781
24597SOL    HW179628   3.166   6.800  10.197 -0.4985  1.7151  1.7966
24597SOL    HW279629   3.296   6.878  10.194 -0.5592  1.8107 -0.1991
24598SOL     OW79630   2.581  11.878   4.524 -0.8173 -0.0920 -0.0197
24598SOL    HW179631   2.568  11.917   4.611 -1.4610 -1.8548  0.7226
24598SOL    HW279632   2.618  11.792   4.542 -1.1680 -0.5700 -1.4925
24599SOL     OW79633   7.694   9.344   6.794 -0.0278 -0.0345 -0.2541
24599SOL    HW179634   7.735   9.359   6.879 -0.7071  1.0076 -0.1055
24599SOL    HW279635   7.740   9.402   6.734 -0.8620  0.6834 -0.2075
24600SOL     OW79636   0.086   6.910   6.743  0.0253 -0.3721 -0.4231
24600SOL    HW179637   0.114   6.850   6.812 -0.6059 -0.6258 -0.3861
24600SOL    HW279638   0.012   6.958   6.781  0.8131  0.7757 -0.2786
24601SOL     OW79639   2.631   4.189   2.204 -0.0891  0.1719 -0.0582
24601SOL    HW179640   2.695   4.169   2.272 -2.0915 -1.1284  1.6077
24601SOL    HW279641   2.649   4.126   2.134  0.6441  0.0674  0.2163
24602SOL     OW79642   0.840   0.610  10.890 -0.1725 -0.0296 -0.4505
24602SOL    HW179643   0.793   0.693  10.902  0.7576  0.6120 -1.1395
24602SOL    HW279644   0.929   0.628  10.920 -0.3748 -1.2816  0.9895
24603SOL     OW79645   6.732   0.698  12.173 -0.2867  0.1945 -0.0151
24603SOL    HW179646   6.731   0.685  12.268  0.7617  1.2088  0.1650
24603SOL    HW279647   6.819   0.734  12.155 -0.6511  0.4932 -1.2928
24604SOL     OW79648   8.781   8.946  11.767  0.1972  0.4846 -0.0772
24604SOL    HW179649   8.695   8.909  11.786 -0.1858  0.3272 -1.9687
24604SOL    HW279650   8.811   8.900  11.689  0.2734  3.1849 -1.7667
24605SOL     OW79651   0.265   4.037  12.105 -0.2040 -0.7140  0.2521
24605SOL    HW179652   0.298   3.948  12.091  1.1874 -0.5973  2.3607
24605SOL    HW279653   0.257   4.046  12.200 -1.1225  1.1492  0.0516
24606SOL     OW79654   9.007   2.033  11.778  0.3238  0.3153 -0.0092
24606SOL    HW179655   9.085   2.080  11.751  0.8650 -0.6830 -0.2570
24606SOL    HW279656   8.984   1.979  11.702 -0.1821  0.0748  0.3071
24607SOL     OW79657  12.160   9.260   7.725  0.4496  0.7426 -0.0567
24607SOL    HW179658  12.078   9.309   7.727 -0.8435 -1.2848 -0.4359
24607SOL    HW279659  12.169   9.230   7.634  2.2886  1.9486 -0.3288
24608SOL     OW79660   1.128   9.158   1.969 -0.0059 -0.0879  0.1826
24608SOL    HW179661   1.195   9.207   2.015  0.9437 -0.2873 -0.9428
24608SOL    HW279662   1.114   9.206   1.887 -1.6885  0.2928  0.6603
24609SOL     OW79663  11.232   4.274   0.038 -0.0025 -0.0883 -0.6283
24609SOL    HW179664  11.276   4.347   0.083  1.0626  0.0870 -1.8733
24609SOL    HW279665  11.240   4.296  -0.055 -1.5987 -0.7404 -0.9459
24610SOL     OW79666   0.784   0.443   2.489  0.2927  0.3739 -0.2242
24610SOL    HW179667   0.871   0.483   2.485  0.1989  0.4845 -1.5055
24610SOL    HW279668   0.750   0.470   2.575  1.4171  0.5267  0.1913
24611SOL     OW79669   9.671  10.423   1.590  0.2149 -0.0414  0.0761
24611SOL    HW179670   9.683  10.490   1.657 -0.4648 -1.0385  1.2389
24611SOL    HW279671   9.585  10.442   1.551  1.6929  2.1521 -2.4923
24612SOL     OW79672   4.827  10.352   7.873 -0.1813 -0.0495  0.1919
24612SOL    HW179673   4.874  10.315   7.798 -2.5885  1.0264 -1.9983
24612SOL    HW279674   4.882  10.425   7.902  1.4051 -1.2572  0.3361
24613SOL     OW79675   7.107  10.445   2.389  0.3318 -0.1803 -0.4701
24613SOL    HW179676   7.145  10.500   2.458 -0.4472 -1.2879  0.8713
24613SOL    HW279677   7.172  10.376   2.375 -0.3135 -0.9855  0.4585
24614SOL     OW79678   5.085   4.206   2.036 -0.2423  0.0053  0.0757
24614SOL    HW179679   5.154   4.246   2.088  0.1902 -0.9919  0.2868
24614SOL    HW279680   5.004   4.241   2.073  0.1362  1.7894 -0.6794
24615SOL     OW79681   2.004   7.263   1.974 -0.2844  0.4968  0.3811
24615SOL    HW179682   1.916   7.300   1.967 -0.8650 -0.9795 -0.8837
24615SOL    HW279683   1.991   7.178   2.017  0.4837  0.2103  0.0746
24616SOL     OW79684  11.790   6.287   5.813 -0.4631  0.0565  0.0095
24616SOL    HW179685  11.776   6.324   5.726  0.8577  1.9396  0.5431
24616SOL    HW279686  11.884   6.270   5.818 -0.2359  1.4803  1.5861
24617SOL     OW79687   6.052   4.156   5.388 -0.3428  0.5557 -0.1726
24617SOL    HW179688   6.041   4.251   5.394 -0.2012  0.6767 -1.4991
24617SOL    HW279689   6.113   4.143   5.315 -1.7367 -0.6231 -1.1735
24618SOL     OW79690   4.830   0.272   4.520 -0.1169  0.3732 -0.1433
24618SOL    HW179691   4.766   0.343   4.528  1.1462  1.4918  0.5421
24618SOL    HW279692   4.814   0.234   4.434 -1.1747  1.1435 -0.2977
24619SOL     OW79693   3.517   5.340   9.950  0.3270 -0.4731  0.2459
24619SOL    HW179694   3.579   5.341  10.023  0.5777 -2.2739  0.0971
24619SOL    HW279695   3.567   5.375   9.877  1.1964 -1.8287  0.1455
24620SOL     OW79696   4.022   4.659   7.982  0.1424  0.0948  0.1466
24620SOL    HW179697   3.927   4.666   7.974  0.0878  0.3995  0.9406
24620SOL    HW279698   4.035   4.608   8.062  0.6443 -0.0627 -0.0366
24621SOL     OW79699   2.163   8.466   5.345 -0.0296  0.0326 -0.3699
24621SOL    HW179700   2.182   8.374   5.364 -0.1598 -0.0222 -0.5096
24621SOL    HW279701   2.098   8.464   5.275 -1.3183  0.1971  0.7794
24622SOL     OW79702   1.866   9.630   8.847 -0.4583 -0.3531  0.1642
24622SOL    HW179703   1.811   9.689   8.898 -0.0256  1.3205 -1.1677
24622SOL    HW279704   1.947   9.680   8.832  0.2395 -1.5909 -0.3923
24623SOL     OW79705   0.517   1.841   0.929  0.6059  0.4026  1.5252
24623SOL    HW179706   0.428   1.845   0.893  0.3140  1.5263  2.3236
24623SOL    HW279707   0.530   1.749   0.951  0.6254 -0.2688 -0.9743
24624SOL     OW79708   1.592   4.928   9.479 -0.4050  0.4836 -0.3974
24624SOL    HW179709   1.586   5.002   9.418  0.7451 -0.7018 -2.0387
24624SOL    HW279710   1.666   4.950   9.535  0.3926  0.2862 -1.3443
24625SOL     OW79711   8.083   9.375  10.642 -0.5752 -0.4649  0.4086
24625SOL    HW179712   8.093   9.351  10.734  0.1286 -0.8374  0.2394
24625SOL    HW279713   8.048   9.296  10.600 -2.1201  0.1022  0.5761
24626SOL     OW79714   5.078   1.690   4.695 -0.0486 -0.3738 -0.1519
24626SOL    HW179715   5.087   1.785   4.699  0.1984 -0.4127  0.2662
24626SOL    HW279716   5.144   1.657   4.755 -0.4626 -0.7987  0.0750
24627SOL     OW79717   2.634   4.044   5.591 -0.0405 -0.2899 -0.2014
24627SOL    HW179718   2.623   3.950   5.607 -2.7483 -0.8855 -4.3086
24627SOL    HW279719   2.722   4.051   5.554 -0.0409 -1.3194 -0.4319
24628SOL     OW79720   5.159   1.729   5.493  0.5136  0.4782 -0.3242
24628SOL    HW179721   5.185   1.698   5.406 -0.4019 -0.1192 -0.3987
24628SOL    HW279722   5.092   1.667   5.521 -2.2420  2.9527 -0.9539
24629SOL     OW79723  11.679   8.878  11.764  0.1460  0.5908  0.0342
24629SOL    HW179724  11.620   8.842  11.830  1.1142 -2.2916 -0.5127
24629SOL    HW279725  11.727   8.947  11.809  0.3048 -0.8454  2.2061
24630SOL     OW79726  10.175   0.658   3.812 -0.3199  0.2707  0.1489
24630SOL    HW179727  10.214   0.602   3.878  0.9973  1.9161  0.8156
24630SOL    HW279728  10.213   0.628   3.729 -0.3348 -0.3938  0.3795
24631SOL     OW79729  10.453   2.914   2.753 -0.1905 -0.1745 -0.3575
24631SOL    HW179730  10.533   2.908   2.805  3.0900  2.4603 -4.4958
24631SOL    HW279731  10.427   3.006   2.758 -1.8493 -0.5804 -0.7222
24632SOL     OW79732   2.290   6.391   3.873  0.5289  0.0438 -0.2893
24632SOL    HW179733   2.216   6.451   3.872  1.2711  0.9875 -0.0469
24632SOL    HW279734   2.351   6.428   3.937  0.8192 -1.2080  0.1996
24633SOL     OW79735   7.219   1.929   5.994  0.4054 -0.2469 -0.1644
24633SOL    HW179736   7.261   2.015   6.004  1.1624 -0.4432 -1.4066
24633SOL    HW279737   7.210   1.919   5.899  0.0328 -1.4073 -0.0113
24634SOL     OW79738   0.211   4.459   8.812  0.2055 -0.6382  0.1391
24634SOL    HW179739   0.191   4.389   8.875 -0.7461  0.1564  0.7562
24634SOL    HW279740   0.127   4.479   8.771  0.4567  0.1523 -0.0170
24635SOL     OW79741  11.990  10.698  11.111  0.0992 -0.0778 -0.0447
24635SOL    HW179742  11.915  10.685  11.170  0.5067  0.2264  0.5513
24635SOL    HW279743  12.058  10.640  11.145  0.2371 -0.1252 -0.3988
24636SOL     OW79744   1.872   8.774   2.117 -0.0146  0.3774 -0.0756
24636SOL    HW179745   1.805   8.747   2.180 -0.0204 -0.6403 -0.4968
24636SOL    HW279746   1.869   8.706   2.049  1.6688  0.1418  0.0570
24637SOL     OW79747   2.279   4.347   0.619 -0.2452  0.0968 -0.3131
24637SOL    HW179748   2.185   4.365   0.627 -0.5062 -1.1922 -0.1612
24637SOL    HW279749   2.302   4.375   0.531 -0.5993  1.1078 -0.0946
24638SOL     OW79750  10.524  10.430   4.402 -0.3093 -0.1071  0.0544
24638SOL    HW179751  10.533  10.509   4.456 -0.0155  0.1897 -0.4268
24638SOL    HW279752  10.612  10.413   4.370 -0.3335 -0.7452  0.3025
24639SOL     OW79753   0.153  11.830   5.009  0.0721 -0.7094  0.5568
24639SOL    HW179754   0.222  11.893   4.990  1.7660 -2.8810 -1.0200
24639SOL    HW279755   0.074  11.883   5.017  1.6346  1.7247  0.8398
24640SOL     OW79756   9.003   2.006   5.291 -0.1835 -0.0125  0.2879
24640SOL    HW179757   8.987   2.050   5.207  0.4915 -0.9462 -0.3500
24640SOL    HW279758   9.082   1.954   5.276 -0.1482 -0.3127  1.4595
24641SOL     OW79759   7.109   0.820   2.735  0.0732 -0.8258 -0.3248
24641SOL    HW179760   7.176   0.888   2.740 -0.8833  0.2221 -1.2871
24641SOL    HW279761   7.058   0.842   2.657  0.2286 -3.0998 -1.1541
24642SOL     OW79762   1.904   6.271   5.982 -0.2241  0.4481 -0.1157
24642SOL    HW179763   1.929   6.293   5.892 -2.9715  1.2202 -0.8039
24642SOL    HW279764   1.834   6.333   6.002 -0.4070 -0.4283  2.1743
24643SOL     OW79765   6.179  10.373   9.915  0.9262 -0.2119  0.1024
24643SOL    HW179766   6.263  10.418   9.903  1.2469 -0.8362 -0.0340
24643SOL    HW279767   6.113  10.441   9.901  1.3167 -0.2608 -2.5710
24644SOL     OW79768   6.178   9.845   1.066  0.1411  0.7211 -0.7314
24644SOL    HW179769   6.086   9.834   1.041  0.1208  0.5748 -0.5969
24644SOL    HW279770   6.219   9.762   1.042  0.0771  0.5011 -0.0948
24645SOL     OW79771   4.488   7.316   0.390  0.3694  0.2336  0.2102
24645SOL    HW179772   4.475   7.376   0.316  1.9825  0.0397 -0.2681
24645SOL    HW279773   4.508   7.373   0.464 -1.4041  0.4391  0.5854
24646SOL     OW79774   4.190   4.608   2.112 -0.3130 -0.2620  0.5361
24646SOL    HW179775   4.237   4.672   2.166 -0.1322 -0.5011  0.6599
24646SOL    HW279776   4.236   4.609   2.028 -1.0261  0.6340  0.1408
24647SOL     OW79777  11.380   1.523   3.069  0.0877 -0.0299 -0.0047
24647SOL    HW179778  11.407   1.484   3.152  1.2413  0.7128 -0.0183
24647SOL    HW279779  11.402   1.456   3.004  0.3240 -0.1264  0.1708
24648SOL     OW79780   6.722  11.786  10.259 -0.2223 -0.7755 -0.3644
24648SOL    HW179781   6.732  11.802  10.353 -0.6208  1.5999 -0.6680
24648SOL    HW279782   6.631  11.808  10.240 -0.2706 -1.6529 -1.2480
24649SOL     OW79783   9.869  10.577   6.141 -0.5894  0.0055 -0.1636
24649SOL    HW179784   9.847  10.574   6.234 -3.3437 -1.3361 -0.7230
24649SOL    HW279785   9.929  10.651   6.132 -0.3556  0.2651  2.6228
24650SOL     OW79786   6.088   8.589   3.358 -0.0516  0.8796 -0.1096
24650SOL    HW179787   6.088   8.639   3.440  0.8848 -0.8189  0.9928
24650SOL    HW279788   6.039   8.510   3.379  2.2310 -0.7130 -0.3845
24651SOL     OW79789   7.532   7.845  10.566  0.0733  0.3343 -0.3112
24651SOL    HW179790   7.504   7.772  10.621  1.9306 -1.5606 -1.7211
24651SOL    HW279791   7.454   7.867  10.514 -0.4330 -0.8870 -0.1001
24652SOL     OW79792  10.158   5.997  12.314 -0.1396 -0.6246 -0.2366
24652SOL    HW179793  10.202   6.028  12.393  0.8733  0.3551 -1.1394
24652SOL    HW279794  10.103   6.071  12.287  0.5775 -0.4179 -1.1835
24653SOL     OW79795   6.018   7.402   5.517 -0.2294  0.0783  0.0795
24653SOL    HW179796   6.111   7.383   5.521  0.5442  3.0838 -0.9187
24653SOL    HW279797   6.002   7.458   5.594 -1.5204 -1.3335  0.8989
24654SOL     OW79798  11.898   2.572   5.060  0.0956 -0.6889 -0.2352
24654SOL    HW179799  11.825   2.634   5.053 -0.6101 -1.0534  2.6309
24654SOL    HW279800  11.969   2.613   5.009 -1.3852  0.7486 -1.2729
24655SOL     OW79801   1.886   0.668   3.350  0.3594  0.1024 -0.2196
24655SOL    HW179802   1.845   0.591   3.388 -2.5351  1.4392 -0.3281
24655SOL    HW279803   1.911   0.722   3.425  0.1078  0.1339 -0.1570
24656SOL     OW79804  10.284   0.266   7.122 -0.3880  0.3514 -0.5660
24656SOL    HW179805  10.373   0.289   7.096 -0.0948  0.4785  0.5120
24656SOL    HW279806  10.232   0.343   7.100 -0.4687 -0.1421 -2.2640
24657SOL     OW79807   2.795   4.384   7.344  0.2086 -0.0460 -0.7470
24657SOL    HW179808   2.852   4.389   7.420 -1.0938 -1.3789  0.3836
24657SOL    HW279809   2.849   4.344   7.276  1.2775  0.8279 -0.4338
24658SOL     OW79810  11.349  12.172   9.409 -0.1080  0.3241  0.0357
24658SOL    HW179811  11.332  12.152   9.501 -4.9709  1.8643 -0.1910
24658SOL    HW279812  11.311  12.099   9.360  0.1397  0.6832 -0.7222
24659SOL     OW79813   3.454   6.832   8.273  0.0464  0.7279  0.1289
24659SOL    HW179814   3.359   6.836   8.258  0.1700  0.3458 -0.8275
24659SOL    HW279815   3.487   6.781   8.200  0.8722 -0.0845  1.0505
24660SOL     OW79816   6.335  11.591   6.758  0.3694  0.5351 -0.6320
24660SOL    HW179817   6.383  11.670   6.785  0.6155  0.0675  0.3525
24660SOL    HW279818   6.276  11.621   6.689  1.8061  1.2130 -1.6321
24661SOL     OW79819   4.425   3.270   4.207  0.1185 -0.2681  0.2825
24661SOL    HW179820   4.381   3.331   4.266 -1.5011 -1.2486  0.1405
24661SOL    HW279821   4.383   3.285   4.122  0.2567 -1.0228  0.0780
24662SOL     OW79822   1.203   1.770   0.249  0.4321 -0.1798 -0.0208
24662SOL    HW179823   1.250   1.724   0.179  3.3264  1.9447  0.3681
24662SOL    HW279824   1.261   1.764   0.324 -1.6304 -0.4998  1.6379
24663SOL     OW79825   0.609   6.995   2.316  0.0144 -0.3066  0.3370
24663SOL    HW179826   0.576   6.910   2.347 -0.8677 -0.0812  0.0352
24663SOL    HW279827   0.704   6.989   2.327  0.0211 -1.5555 -0.2078
24664SOL     OW79828   4.990   6.804   4.737  0.2418  0.3130 -0.0064
24664SOL    HW179829   5.051   6.876   4.751  0.2666  0.2406  0.2779
24664SOL    HW279830   5.043   6.734   4.700 -0.0790  0.9541 -1.7720
24665SOL     OW79831   4.433   7.520   2.547 -0.5177  0.6528  0.0641
24665SOL    HW179832   4.377   7.511   2.623 -1.0164 -0.0639 -0.3712
24665SOL    HW279833   4.432   7.433   2.506  0.0756  0.9124 -0.5275
24666SOL     OW79834   1.746   4.641   8.892 -0.2150 -0.1239  0.4058
24666SOL    HW179835   1.774   4.729   8.916  1.5051  0.2779 -2.5529
24666SOL    HW279836   1.651   4.647   8.885 -0.1764  1.3273  0.7773
24667SOL     OW79837  11.779  10.444   7.938 -0.0110 -0.2809 -0.7471
24667SOL    HW179838  11.789  10.377   8.005 -1.5421 -0.6171 -0.8176
24667SOL    HW279839  11.804  10.525   7.981  1.7447 -0.8507 -0.6273
24668SOL     OW79840   3.179   7.405  10.943 -0.8881  0.0839  0.4369
24668SOL    HW179841   3.094   7.429  10.908 -0.8836 -1.1460 -0.5159
24668SOL    HW279842   3.204   7.477  11.000 -2.5916  0.4284  0.7801
24669SOL     OW79843   3.233   3.090   4.124  0.1696  0.6667  0.0313
24669SOL    HW179844   3.185   3.171   4.143  0.1830  0.5142  0.7506
24669SOL    HW279845   3.325   3.115   4.131  0.3080  1.3874 -3.0772
24670SOL     OW79846   4.637  10.287   1.413 -0.6637  0.2433 -0.5609
24670SOL    HW179847   4.628  10.334   1.330  0.1713  0.0770 -0.7573
24670SOL    HW279848   4.647  10.195   1.387  1.4980  0.3848 -0.4166
24671SOL     OW79849   1.591   0.934   5.082  0.0645  0.3347 -0.0822
24671SOL    HW179850   1.660   0.999   5.093  0.6683 -0.0099 -1.5965
24671SOL    HW279851   1.521   0.980   5.037 -0.3538  0.4554  0.6780
24672SOL     OW79852   1.411   4.559   4.812  0.3192  0.2995  0.5034
24672SOL    HW179853   1.407   4.502   4.890  1.2058 -2.7609 -1.4843
24672SOL    HW279854   1.337   4.531   4.759 -0.5660  2.7001  0.3547
24673SOL     OW79855  10.323   6.721   2.575  0.7015 -0.2726 -0.2774
24673SOL    HW179856  10.415   6.733   2.550  1.4786  2.5226  3.1061
24673SOL    HW279857  10.275   6.780   2.516  1.7051  1.5587  0.6362
24674SOL     OW79858   5.074   2.011   5.692 -0.7614 -0.4074  0.2521
24674SOL    HW179859   5.112   2.090   5.653  0.1943 -0.9296  0.1021
24674SOL    HW279860   5.035   1.964   5.618  1.2144 -1.4905 -0.1642
24675SOL     OW79861  11.547   6.743   0.719 -0.0097  0.0031 -0.4455
24675SOL    HW179862  11.534   6.654   0.753 -1.8596  0.4030 -0.0239
24675SOL    HW279863  11.596   6.788   0.788 -0.5922 -0.2035  0.1063
24676SOL     OW79864   2.002   9.766   0.022 -0.4207 -0.0644  0.0845
24676SOL    HW179865   2.054   9.725  -0.047 -1.3315 -2.3800  0.7111
24676SOL    HW279866   2.045   9.741   0.103 -0.1019  1.5748  0.4620
24677SOL     OW79867   4.817  10.576   8.754 -0.0531  0.4283  0.0250
24677SOL    HW179868   4.740  10.611   8.710 -0.3431  0.0330  0.2084
24677SOL    HW279869   4.791  10.489   8.783  0.6692  0.0381 -0.4566
24678SOL     OW79870   1.878   1.135  10.792 -0.3882  0.0701 -0.0417
24678SOL    HW179871   1.910   1.086  10.715 -0.1876  3.2052 -2.1366
24678SOL    HW279872   1.956   1.174  10.830 -0.7018 -0.0370  0.7309
24679SOL     OW79873  12.213   2.947   9.885 -0.2509  0.0338 -0.3779
24679SOL    HW179874  12.223   2.853   9.876 -1.0559 -0.2505  1.3179
24679SOL    HW279875  12.166   2.975   9.807  1.2586 -0.7180 -1.6074
24680SOL     OW79876  11.531   3.604   0.092  0.0462 -0.1961 -0.3409
24680SOL    HW179877  11.519   3.653   0.174  1.3778 -0.5655  0.0969
24680SOL    HW279878  11.452   3.623   0.041  0.5519  2.5396 -0.2596
24681SOL     OW79879   1.412   3.137   5.407 -0.4682  0.4575 -0.9332
24681SOL    HW179880   1.330   3.090   5.394  1.5023 -3.6485 -0.1219
24681SOL    HW279881   1.399   3.184   5.489 -2.5710  1.5197 -1.7850
24682SOL     OW79882   8.276  10.445  12.247 -0.1191  0.0948  0.3481
24682SOL    HW179883   8.238  10.502  12.313  0.9758  0.1503  0.9538
24682SOL    HW279884   8.210  10.378  12.231 -1.5970  1.6934 -0.6410
24683SOL     OW79885  10.793   2.576   7.578 -0.1528 -0.2714 -0.5973
24683SOL    HW179886  10.778   2.575   7.672  0.4448 -0.9756 -0.5013
24683SOL    HW279887  10.784   2.668   7.553 -2.4623 -0.3321 -0.2240
24684SOL     OW79888   7.090   3.988   6.710 -0.2237  0.3353 -0.9299
24684SOL    HW179889   7.152   3.979   6.782  1.0785  1.1549 -1.9162
24684SOL    HW279890   7.022   4.046   6.744  0.1868  0.4286 -0.2509
24685SOL     OW79891  10.241   8.450   7.901  0.0097 -0.0102  0.3273
24685SOL    HW179892  10.146   8.456   7.915 -0.2298 -0.1548 -1.0741
24685SOL    HW279893  10.260   8.520   7.839  1.0887  0.9813  1.7240
24686SOL     OW79894   1.976  12.225   5.149 -0.2726  0.1340 -0.0932
24686SOL    HW179895   1.901  12.227   5.208 -0.9248  0.1119 -0.9085
24686SOL    HW279896   2.037  12.289   5.186 -0.1825 -0.6701  1.2157
24687SOL     OW79897   2.709   1.719   6.975  0.1630  0.2306 -0.0751
24687SOL    HW179898   2.804   1.711   6.965  0.4023  2.5354 -0.2565
24687SOL    HW279899   2.678   1.739   6.887 -0.3983  0.3025  0.1375
24688SOL     OW79900   0.368   4.680   0.503 -0.2921  0.4056  0.0593
24688SOL    HW179901   0.318   4.695   0.422  1.6641  1.2492 -1.0658
24688SOL    HW279902   0.404   4.592   0.492 -0.3609  0.3598  0.2038
24689SOL     OW79903   8.580   7.225   6.588  0.3625  0.1162  0.3753
24689SOL    HW179904   8.590   7.158   6.521 -0.6585 -0.6821  0.9867
24689SOL    HW279905   8.500   7.272   6.564 -0.9636 -1.2438  1.8663
24690SOL     OW79906   1.914   6.347   3.798  0.8666 -0.0116 -0.6719
24690SOL    HW179907   1.898   6.381   3.710 -1.2401  0.4027 -0.1856
24690SOL    HW279908   1.972   6.412   3.839 -2.0452  2.4888 -0.1947
24691SOL     OW79909   3.893   2.590   6.556  0.1639  0.4902 -0.1882
24691SOL    HW179910   3.944   2.602   6.637 -0.4473  2.5378 -0.0434
24691SOL    HW279911   3.959   2.577   6.488  0.7287 -0.2112  0.4643
24692SOL     OW79912   8.187   9.618   6.536  0.1510 -0.0618  0.0077
24692SOL    HW179913   8.172   9.544   6.594  0.3724  0.5641  0.8761
24692SOL    HW279914   8.132   9.688   6.571  0.9104  0.5735 -0.0401
24693SOL     OW79915  12.177   3.253   5.000 -0.6080  0.1294  0.1078
24693SOL    HW179916  12.164   3.262   4.906  0.9516 -1.9567 -0.3841
24693SOL    HW279917  12.110   3.191   5.029  1.0207 -1.9567 -0.3539
24694SOL     OW79918   4.092   2.691   1.695 -0.6800  0.1395  0.7388
24694SOL    HW179919   4.126   2.760   1.639  1.9441 -2.6281 -1.4085
24694SOL    HW279920   4.128   2.710   1.781  2.8715 -0.2412 -0.5245
24695SOL     OW79921   5.379   4.876   3.985  0.0339 -0.3557  0.3983
24695SOL    HW179922   5.384   4.814   4.057 -0.9823 -1.9715 -0.8478
24695SOL    HW279923   5.467   4.878   3.949  0.3048 -0.3200  1.0504
24696SOL     OW79924   1.719   1.871   0.919  0.2226  0.2534 -0.2037
24696SOL    HW179925   1.796   1.818   0.942  1.1369  0.8797 -1.7010
24696SOL    HW279926   1.690   1.836   0.835 -0.6718  0.5455 -0.0252
24697SOL     OW79927  11.419   8.653  12.145 -0.4045 -0.2059 -0.0584
24697SOL    HW179928  11.436   8.560  12.157  0.0570 -0.2351 -0.8175
24697SOL    HW279929  11.436   8.692  12.230  0.2822 -0.7012  0.0417
24698SOL     OW79930   5.510   8.908   5.838  0.1575  0.0800  0.2475
24698SOL    HW179931   5.584   8.847   5.844  0.6036  0.5845 -0.0233
24698SOL    HW279932   5.529   8.974   5.904 -1.1940 -0.9683  1.7694
24699SOL     OW79933   4.060   5.725   6.452 -0.7177  0.2852  0.2283
24699SOL    HW179934   4.054   5.630   6.440  0.2096  0.3950 -1.4333
24699SOL    HW279935   4.072   5.736   6.546  1.9690 -1.4586  0.2054
24700SOL     OW79936   6.968   9.394  12.234  0.5221 -0.0610  0.0968
24700SOL    HW179937   7.034   9.395  12.164 -0.2793  1.0676 -0.6812
24700SOL    HW279938   6.888   9.365  12.191  0.0964  0.3310  0.6191
24701SOL     OW79939   3.900   2.406   5.350  0.1584 -0.2044 -0.1201
24701SOL    HW179940   3.833   2.400   5.283 -0.3240 -1.9777  0.4469
24701SOL    HW279941   3.931   2.316   5.361 -0.7116 -0.2651  2.9172
24702SOL     OW79942   9.192   3.103   8.689 -0.1059 -0.0065 -0.0408
24702SOL    HW179943   9.163   3.183   8.646 -2.6161 -0.0979  1.3034
24702SOL    HW279944   9.227   3.133   8.773  0.2416 -0.2141 -0.1107
24703SOL     OW79945  11.090  10.929   0.624 -0.3165 -0.4640 -0.1340
24703SOL    HW179946  11.042  11.007   0.653 -0.1288 -0.1593 -0.6247
24703SOL    HW279947  11.165  10.963   0.576 -1.0633 -0.9271 -1.7193
24704SOL     OW79948  11.916   9.232   2.298  0.2703 -0.0500  0.1505
24704SOL    HW179949  11.879   9.205   2.382  1.5320 -2.6477 -0.0080
24704SOL    HW279950  11.881   9.319   2.282 -0.0041  0.5343  3.3608
24705SOL     OW79951  12.331   6.174   4.974  0.6133 -0.3469  0.8078
24705SOL    HW179952  12.294   6.261   4.960 -0.8686 -0.8511  1.3408
24705SOL    HW279953  12.312   6.154   5.066  0.5518 -1.3839  0.5830
24706SOL     OW79954   9.319  10.714  12.088 -0.2649  0.0323  0.0671
24706SOL    HW179955   9.281  10.669  12.164 -2.2207  2.0032  0.3374
24706SOL    HW279956   9.406  10.674  12.079 -0.0447 -0.4911  3.1576
24707SOL     OW79957   1.495   1.291   1.215 -0.3548  0.3882  0.7158
24707SOL    HW179958   1.470   1.339   1.294 -0.2660 -0.2774  1.1550
24707SOL    HW279959   1.575   1.333   1.185  0.5450 -0.3977  1.9343
24708SOL     OW79960   7.293   3.220   9.665  0.3937 -0.0349  0.6463
24708SOL    HW179961   7.266   3.128   9.663  2.1282 -0.5685 -0.8988
24708SOL    HW279962   7.307   3.242   9.573  0.0803  1.7862  0.9967
24709SOL     OW79963  10.997  11.964   7.576  0.0071  0.3689 -0.3877
24709SOL    HW179964  10.973  12.045   7.531  0.4926  0.3699 -0.6569
24709SOL    HW279965  11.091  11.973   7.593 -0.0774  0.1599  0.2024
24710SOL     OW79966   1.118   9.156   7.310  0.6761 -0.7390 -0.0252
24710SOL    HW179967   1.149   9.077   7.265  1.6565 -0.6143  0.4198
24710SOL    HW279968   1.192   9.216   7.306 -0.0964  0.2087 -0.4509
24711SOL     OW79969   9.755   9.801   2.054  0.1884  0.0710  0.6245
24711SOL    HW179970   9.780   9.842   1.971 -1.3826 -0.2335 -0.0341
24711SOL    HW279971   9.826   9.740   2.073 -0.3458 -1.3727 -1.5901
24712SOL     OW79972   4.514   9.348   7.799 -0.4453  0.1793 -0.0755
24712SOL    HW179973   4.445   9.404   7.764 -1.0762 -0.0265  0.8016
24712SOL    HW279974   4.468   9.271   7.834  0.2482 -0.0978  0.2654
24713SOL     OW79975   0.205   3.853   0.562 -0.1305 -0.1771 -0.2524
24713SOL    HW179976   0.167   3.871   0.648  0.5595  0.5418 -0.0910
24713SOL    HW279977   0.160   3.913   0.503 -0.2481 -0.3236 -0.3142
24714SOL     OW79978  10.933   8.763  10.888 -0.0974 -0.1859  0.2470
24714SOL    HW179979  10.924   8.672  10.917  2.1457 -0.6361 -0.2726
24714SOL    HW279980  10.895   8.815  10.959 -0.1822 -1.4614  1.1765
24715SOL     OW79981  10.344   9.945   4.237 -0.3918  0.0532  0.0458
24715SOL    HW179982  10.269   9.922   4.292 -0.0201  0.4766  0.7393
24715SOL    HW279983  10.305   9.979   4.156 -0.9419 -0.1274  0.2297
24716SOL     OW79984   2.700  11.827   4.853  0.5718 -0.4129 -0.3574
24716SOL    HW179985   2.752  11.867   4.922  0.3589 -0.0946 -0.3800
24716SOL    HW279986   2.635  11.773   4.899 -1.4612  2.0437 -0.1672
24717SOL     OW79987   1.503   2.680   5.951 -0.5151 -0.0326  0.1134
24717SOL    HW179988   1.526   2.587   5.959  1.2801  0.1298 -1.9949
24717SOL    HW279989   1.566   2.725   6.006 -0.6536 -0.0057  0.2492
24718SOL     OW79990   1.518   0.605   3.411  0.7064 -0.4324 -0.0722
24718SOL    HW179991   1.532   0.698   3.432 -0.1165 -0.5228  0.9386
24718SOL    HW279992   1.493   0.606   3.318 -1.8420  0.6706  0.5340
24719SOL     OW79993   3.735   4.712  12.083  0.2499  0.1393 -0.5145
24719SOL    HW179994   3.662   4.726  12.143 -0.2051 -1.3187 -0.7035
24719SOL    HW279995   3.707   4.755  12.002  0.7290  1.8275  0.1589
24720SOL     OW79996   8.860   8.946   3.842  0.2432  0.3570  0.2838
24720SOL    HW179997   8.795   9.003   3.801  1.6029  2.5064  0.9560
24720SOL    HW279998   8.927   8.935   3.774  0.0577 -0.3658  0.2084
24721SOL     OW79999  10.607   7.041   3.263  0.5726 -0.0375 -0.1556
24721SOL    HW180000  10.597   7.101   3.190 -0.5274 -0.7950 -0.6396
24721SOL    HW280001  10.526   7.049   3.313  0.8182 -0.4212  0.3215
24722SOL     OW80002   6.928   7.025   1.798  0.4200  0.2523 -0.1202
24722SOL    HW180003   6.859   7.090   1.784 -0.5232 -0.8167 -0.5930
24722SOL    HW280004   6.899   6.975   1.874  2.1239  1.5994  1.5217
24723SOL     OW80005   4.188   5.582   2.408 -0.4426 -0.2839  0.1653
24723SOL    HW180006   4.257   5.567   2.344 -0.4964 -1.4556  0.3666
24723SOL    HW280007   4.108   5.586   2.356 -0.5215 -1.5262  0.1623
24724SOL     OW80008  11.138   2.180   2.353 -0.1325  0.6283 -0.6179
24724SOL    HW180009  11.152   2.092   2.318 -2.5956  0.4223 -1.3219
24724SOL    HW280010  11.200   2.235   2.305  0.7074 -0.5521 -0.9406
24725SOL     OW80011   0.144   2.842   6.774 -0.2128 -0.1915  0.2370
24725SOL    HW180012   0.141   2.903   6.848  1.6301 -0.2425  0.4181
24725SOL    HW280013   0.158   2.756   6.814  1.5311 -0.1280 -0.1402
24726SOL     OW80014   0.503   5.085   8.481  0.8102  0.5156  0.1695
24726SOL    HW180015   0.533   5.106   8.569  0.8156  0.7331  0.1148
24726SOL    HW280016   0.564   5.017   8.451  0.3167 -0.1511  0.6377
24727SOL     OW80017  12.199   4.098  10.160  0.1266  0.0376  0.2766
24727SOL    HW180018  12.265   4.081  10.227 -0.7400  1.1811  1.4817
24727SOL    HW280019  12.123   4.130  10.209 -0.4505  1.1541 -1.2636
24728SOL     OW80020   7.924  10.295  11.756  0.6085  0.0084  0.3408
24728SOL    HW180021   7.890  10.370  11.805  0.5234 -0.1610  0.5439
24728SOL    HW280022   7.846  10.254  11.719  0.6470 -0.0294  0.3027
24729SOL     OW80023   1.731   9.371   0.208  0.1238  0.6812 -0.4722
24729SOL    HW180024   1.789   9.432   0.161 -0.4014  1.4499 -0.1392
24729SOL    HW280025   1.719   9.298   0.147  2.2314  0.0105 -0.1851
24730SOL     OW80026  11.636   8.494   4.264 -0.9784 -0.4904 -0.7356
24730SOL    HW180027  11.557   8.536   4.229 -0.5082  1.7593  0.6376
24730SOL    HW280028  11.703   8.562   4.259 -0.1374 -1.0347  1.6395
24731SOL     OW80029   7.394   1.371   7.949 -0.1217 -0.5130  0.0228
24731SOL    HW180030   7.418   1.393   8.039 -0.7989 -4.9119  1.4977
24731SOL    HW280031   7.478   1.360   7.905  0.2354  0.3816  0.4452
24732SOL     OW80032  10.292   4.359   5.918 -0.0523 -0.1761  0.2900
24732SOL    HW180033  10.213   4.413   5.928 -0.4895 -0.7225 -0.1754
24732SOL    HW280034  10.292   4.301   5.994 -0.1341 -0.2207  0.2558
24733SOL     OW80035   2.025   8.890   8.421 -0.1137 -0.6819 -0.2473
24733SOL    HW180036   1.936   8.889   8.458  0.1104  2.0237  0.5642
24733SOL    HW280037   2.065   8.809   8.453 -1.7995 -1.2423  0.5808
24734SOL     OW80038  12.045  12.220  12.315  0.0826  0.1129  0.0849
24734SOL    HW180039  11.962  12.250  12.278 -1.3523 -1.9420  1.4081
24734SOL    HW280040  12.063  12.282  12.386 -1.6329 -0.7206  1.3265
24735SOL     OW80041   6.280   2.954   9.621 -0.3987  0.0853 -0.1228
24735SOL    HW180042   6.189   2.929   9.602 -0.4239 -0.6121  0.8496
24735SOL    HW280043   6.274   3.009   9.699  0.0617 -0.3711  0.2376
24736SOL     OW80044   4.817   8.538   5.937  0.0450  0.4196 -0.1807
24736SOL    HW180045   4.803   8.451   5.975 -1.0979  0.8883  0.5058
24736SOL    HW280046   4.891   8.573   5.986  0.3383 -0.0565 -0.2739
24737SOL     OW80047   5.523   6.018   1.485  0.7572 -0.1975 -0.6332
24737SOL    HW180048   5.449   6.046   1.432 -0.5462 -0.4023  0.9808
24737SOL    HW280049   5.576   5.964   1.427 -1.4067 -1.6849 -1.3493
24738SOL     OW80050  11.039  10.369   8.055  0.0809 -0.4063 -0.0466
24738SOL    HW180051  11.095  10.415   8.118 -0.0412 -0.3512  0.0227
24738SOL    HW280052  11.093  10.298   8.022 -0.0328 -0.7546  0.5126
24739SOL     OW80053   9.053   0.134   5.348  0.2151  0.2547  0.1604
24739SOL    HW180054   8.981   0.143   5.410  0.5924 -0.7397  0.7531
24739SOL    HW280055   9.108   0.064   5.383  0.0134 -0.9087 -1.6928
24740SOL     OW80056  11.199   1.926   3.286 -0.0201 -0.1793  0.1175
24740SOL    HW180057  11.268   1.992   3.278  0.0014 -0.3177 -0.9948
24740SOL    HW280058  11.215   1.865   3.214 -2.1560  0.5828 -1.0741
24741SOL     OW80059   1.464   0.313  11.842 -0.2247  0.4582  0.4335
24741SOL    HW180060   1.551   0.288  11.811 -0.2318 -0.0835  0.8423
24741SOL    HW280061   1.463   0.285  11.934 -1.0988 -0.2203  0.2210
24742SOL     OW80062   5.392   6.340   1.532 -0.4562  0.1020  0.2756
24742SOL    HW180063   5.346   6.351   1.616  0.3912  0.3568  0.7276
24742SOL    HW280064   5.464   6.404   1.536  1.5594 -2.0563  0.7684
24743SOL     OW80065   3.327   5.203   8.122  0.1649  0.2048 -0.2404
24743SOL    HW180066   3.341   5.181   8.214 -1.2671 -1.2665 -0.3443
24743SOL    HW280067   3.385   5.144   8.074  3.0666  2.8449 -0.2858
24744SOL     OW80068   4.648  11.097   6.785  0.4575 -0.0061 -0.1555
24744SOL    HW180069   4.591  11.129   6.716 -0.7787  0.3931  1.0251
24744SOL    HW280070   4.590  11.078   6.858  1.7816 -0.0374  0.9287
24745SOL     OW80071   6.772   8.523   4.028 -0.2380  0.2158  0.7513
24745SOL    HW180072   6.849   8.508   4.083  1.7350  1.4169 -1.4806
24745SOL    HW280073   6.747   8.435   3.999 -1.5033 -0.4890  3.5868
24746SOL     OW80074   9.586   5.770   3.007 -0.8533  0.2892  0.1692
24746SOL    HW180075   9.568   5.677   2.995 -0.0935  0.2323 -0.5816
24746SOL    HW280076   9.519   5.799   3.069 -0.7730 -0.8623  0.8202
24747SOL     OW80077   7.004   0.514   9.117  0.1874 -0.2795 -0.4098
24747SOL    HW180078   7.015   0.520   9.022 -0.0840  1.3243 -0.3670
24747SOL    HW280079   6.913   0.487   9.130  0.0159  0.1976 -0.6063
24748SOL     OW80080   8.669  11.887   1.418  0.3513  0.3289 -0.5407
24748SOL    HW180081   8.649  11.961   1.362  0.6842  0.6582 -0.2308
24748SOL    HW280082   8.754  11.908   1.458  0.1389  0.0927  0.0610
24749SOL     OW80083   5.774   6.032   3.147  0.2290 -0.0409  0.1265
24749SOL    HW180084   5.801   6.111   3.195 -1.5637  0.1387  0.8905
24749SOL    HW280085   5.810   5.960   3.198  1.3040  0.2274 -0.2099
24750SOL     OW80086  11.592   4.006   1.274  0.3321 -0.1753  0.0237
24750SOL    HW180087  11.504   4.043   1.269  0.3761 -0.2057 -1.2814
24750SOL    HW280088  11.633   4.052   1.347 -1.8713 -2.6323  3.0291
24751SOL     OW80089   6.012   4.664   8.597  0.7710 -0.5801 -0.9055
24751SOL    HW180090   6.058   4.687   8.677  0.6835 -1.7350 -0.4978
24751SOL    HW280091   5.944   4.730   8.588 -0.5421 -1.5407  1.1165
24752SOL     OW80092   1.854  12.258   1.036  0.5192 -0.1658  0.2320
24752SOL    HW180093   1.852  12.336   0.981  0.4281 -0.8984 -0.8262
24752SOL    HW280094   1.944  12.255   1.069  0.9775 -0.4668 -1.0015
24753SOL     OW80095  11.429   4.045   2.106 -0.1532 -0.0184  0.2650
24753SOL    HW180096  11.524   4.035   2.102 -0.0187  1.3527 -0.9889
24753SOL    HW280097  11.413   4.098   2.184  0.1735  0.2488  0.1515
24754SOL     OW80098  11.645   2.163   0.148 -0.1791  0.2243  0.4205
24754SOL    HW180099  11.600   2.136   0.229  0.3526  0.0185  0.6536
24754SOL    HW280100  11.617   2.099   0.083  0.7807 -0.7003  0.8835
24755SOL     OW80101   7.720  10.040   3.122 -0.4040 -0.4522 -0.4383
24755SOL    HW180102   7.663  10.117   3.117  0.2453 -0.0126 -1.5214
24755SOL    HW280103   7.676   9.974   3.070 -0.6561 -0.6202 -0.0195
24756SOL     OW80104  12.008   3.889   5.459 -0.7644  0.0060  0.1268
24756SOL    HW180105  11.914   3.873   5.454 -0.2159 -3.9911 -1.0171
24756SOL    HW280106  12.024   3.912   5.550 -2.6542 -1.1132  0.7898
24757SOL     OW80107   4.153   8.105  10.010 -0.1297  0.1066 -0.0222
24757SOL    HW180108   4.093   8.139   9.944  0.0695  0.3163 -0.0922
24757SOL    HW280109   4.168   8.178  10.070 -0.7587 -0.2381  0.5802
24758SOL     OW80110   9.122   5.029  11.965 -0.4362  0.3684 -0.1008
24758SOL    HW180111   9.179   5.104  11.982  0.4268 -0.1754 -0.5283
24758SOL    HW280112   9.124   5.019  11.869 -1.4410  0.4763 -0.1512
24759SOL     OW80113  10.232  10.511  10.317  0.3949  0.0782 -0.3293
24759SOL    HW180114  10.320  10.473  10.318  0.6035  0.5516  0.3466
24759SOL    HW280115  10.180  10.449  10.265  0.8995 -0.7265  0.0916
24760SOL     OW80116   2.166   7.958   3.150 -0.0906  0.1813 -0.0587
24760SOL    HW180117   2.224   7.898   3.103  0.0671  0.9405 -0.8612
24760SOL    HW280118   2.216   8.039   3.158  0.2931 -0.2161  2.3848
24761SOL     OW80119  12.245  11.077   3.152  0.0411  0.2532  0.3369
24761SOL    HW180120  12.181  11.145   3.133 -1.1615 -1.5498 -2.8859
24761SOL    HW280121  12.210  11.032   3.229 -0.7007  1.4332  0.7103
24762SOL     OW80122   3.676   8.560   0.310 -0.3343 -0.1886 -0.1458
24762SOL    HW180123   3.589   8.582   0.276 -0.5188 -2.2417 -1.1752
24762SOL    HW280124   3.720   8.644   0.319 -1.9334  0.7957 -0.9888
24763SOL     OW80125   8.187   3.181  10.454 -0.5430 -0.0657 -0.4995
24763SOL    HW180126   8.255   3.154  10.391 -1.0387  0.1314 -1.1318
24763SOL    HW280127   8.202   3.126  10.531  0.4690  0.1262 -0.5463
24764SOL     OW80128  10.686  10.261   7.926  0.6897 -0.0980 -0.2780
24764SOL    HW180129  10.751  10.275   7.857 -0.3711  0.6255 -1.1475
24764SOL    HW280130  10.700  10.334   7.987 -1.4129  2.0587 -2.1622
24765SOL     OW80131   2.332   4.375   9.301  0.7111  0.3308  0.1326
24765SOL    HW180132   2.261   4.409   9.355 -0.4450 -0.4483 -0.8430
24765SOL    HW280133   2.348   4.443   9.235 -1.0047 -0.5397 -1.2808
24766SOL     OW80134   3.827  12.059   2.324 -1.2277 -0.3470  0.4100
24766SOL    HW180135   3.792  12.066   2.413 -0.1699  1.8301  0.7059
24766SOL    HW280136   3.751  12.035   2.270 -1.7494 -2.3841  1.9498
24767SOL     OW80137  11.385   1.159   6.382 -0.4613 -0.4619 -0.1102
24767SOL    HW180138  11.382   1.194   6.293 -0.1355 -2.1812 -0.8371
24767SOL    HW280139  11.422   1.230   6.435 -0.3571  0.4700 -1.4009
24768SOL     OW80140   4.886   3.032   3.596  0.0788  0.2846 -0.2842
24768SOL    HW180141   4.802   3.070   3.572 -0.1238 -0.4939 -0.8472
24768SOL    HW280142   4.882   2.942   3.564  1.3742  0.4152 -0.8857
24769SOL     OW80143   0.948  11.485  10.036  0.2425  0.3530  0.4419
24769SOL    HW180144   0.984  11.402  10.005  0.1326  0.5799 -0.3056
24769SOL    HW280145   0.925  11.468  10.128  0.4055 -0.3805  0.3533
24770SOL     OW80146  10.484  11.132   7.935 -0.3531 -0.3915 -0.1788
24770SOL    HW180147  10.413  11.082   7.894  0.6441 -2.5220  0.5448
24770SOL    HW280148  10.455  11.223   7.930 -2.2827 -1.0104 -1.5421
24771SOL     OW80149   6.247   1.307   2.879 -0.3223 -0.1503  0.0524
24771SOL    HW180150   6.270   1.396   2.906 -1.0672 -0.3962  1.6101
24771SOL    HW280151   6.203   1.318   2.795 -0.6130  0.9690  0.3345
24772SOL     OW80152   1.310   2.280  12.265 -0.3094 -0.2784  0.3249
24772SOL    HW180153   1.402   2.255  12.273 -0.6057 -1.4015  0.3594
24772SOL    HW280154   1.280   2.239  12.184 -1.3067 -1.6998  1.3638
24773SOL     OW80155   7.651   3.278  10.256 -0.0771  0.2798  0.2334
24773SOL    HW180156   7.585   3.311  10.195 -0.6586  1.3568  1.4042
24773SOL    HW280157   7.614   3.295  10.343  2.0866  1.6868  0.9499
24774SOL     OW80158  11.821   7.726   1.887  0.1261 -0.5260  0.0205
24774SOL    HW180159  11.900   7.773   1.862 -0.4988  0.7255  0.3000
24774SOL    HW280160  11.849   7.668   1.958  0.9294 -0.6462 -0.3791
24775SOL     OW80161   1.403   9.559  10.219 -0.6701 -0.1016  0.3497
24775SOL    HW180162   1.455   9.622  10.269  0.3325 -1.3272  0.9121
24775SOL    HW280163   1.383   9.604  10.137  0.8016  0.6316  0.3517
24776SOL     OW80164   1.123   0.293   3.379  0.5942 -0.0930  0.1856
24776SOL    HW180165   1.181   0.341   3.438 -0.0768 -1.1708  1.7681
24776SOL    HW280166   1.172   0.213   3.359  0.4069 -0.1728  0.0507
24777SOL     OW80167   0.180   9.878   4.686  0.2122  0.2973 -0.0005
24777SOL    HW180168   0.273   9.855   4.679 -0.3309 -2.0849 -0.1948
24777SOL    HW280169   0.144   9.860   4.600 -0.5400  0.7702  0.2055
24778SOL     OW80170   0.865  10.073   0.398 -0.1123 -0.0554  0.0736
24778SOL    HW180171   0.951  10.114   0.406 -0.7671  1.0287  2.6582
24778SOL    HW280172   0.835  10.095   0.310  2.1611 -0.3598 -0.8357
24779SOL     OW80173   2.493   6.119   1.833  0.0840 -0.4375  0.0501
24779SOL    HW180174   2.508   6.108   1.927 -1.5860 -2.2980  0.1506
24779SOL    HW280175   2.572   6.086   1.792  0.6604  0.0127  0.7631
24780SOL     OW80176  10.423  10.676   9.559  0.6166  0.0595  0.5985
24780SOL    HW180177  10.365  10.749   9.536  1.2571  0.1848 -0.6911
24780SOL    HW280178  10.400  10.607   9.498  1.5479 -0.0294  0.3355
24781SOL     OW80179   0.476   6.754   2.844 -0.3794  0.3231  0.1258
24781SOL    HW180180   0.518   6.749   2.758 -0.5899 -1.0884  0.0694
24781SOL    HW280181   0.503   6.673   2.888 -0.9574  0.6289  1.0683
24782SOL     OW80182   6.483   5.595   1.242 -0.1489 -0.4163  0.1669
24782SOL    HW180183   6.407   5.651   1.259  0.2474  0.1528  0.1136
24782SOL    HW280184   6.545   5.616   1.312  1.4604  1.8747 -1.7286
24783SOL     OW80185   1.800   2.126   3.330  0.2391  0.3245  0.1251
24783SOL    HW180186   1.796   2.202   3.388  0.3327 -1.4492  2.6163
24783SOL    HW280187   1.710   2.093   3.327  0.2197  0.4469 -0.8400
24784SOL     OW80188   6.242   2.929   0.633 -0.3303 -0.0178 -0.4127
24784SOL    HW180189   6.226   2.962   0.721 -0.6783 -0.8033 -0.1697
24784SOL    HW280190   6.269   3.006   0.583  1.2027  0.1947  0.6905
24785SOL     OW80191   2.440   6.964   0.043  0.4664 -0.1214 -0.1464
24785SOL    HW180192   2.372   6.947  -0.023 -0.0710  1.1956  0.0461
24785SOL    HW280193   2.400   6.936   0.125 -0.2315  1.5387  0.1019
24786SOL     OW80194   0.093   2.648  10.801 -0.2383  0.6185  0.5177
24786SOL    HW180195   0.005   2.655  10.764 -0.0162  0.8802  0.0249
24786SOL    HW280196   0.132   2.572  10.757  0.0225  0.9228  0.2186
24787SOL     OW80197   5.891   6.216   1.380 -0.4790  0.0074  0.0925
24787SOL    HW180198   5.826   6.194   1.446  2.6066 -1.3265  2.9751
24787SOL    HW280199   5.956   6.268   1.426  3.0197 -2.8681 -1.0673
24788SOL     OW80200   6.544   5.716   8.187  0.4372  0.3533  0.7670
24788SOL    HW180201   6.490   5.727   8.108  0.2730 -1.6274  0.5555
24788SOL    HW280202   6.487   5.744   8.259  0.5104  1.9671  0.2407
24789SOL     OW80203   6.465   5.115  10.801  0.0295  0.1161  0.6155
24789SOL    HW180204   6.491   5.169  10.726 -1.3621 -1.4954 -1.1134
24789SOL    HW280205   6.376   5.087  10.781  0.0926 -1.4358  2.2562
24790SOL     OW80206   5.189   4.161  11.284  0.4858  0.4236 -0.4529
24790SOL    HW180207   5.160   4.102  11.214  1.5202 -1.2501  0.4699
24790SOL    HW280208   5.199   4.246  11.240  0.2733 -0.3731 -2.1512
24791SOL     OW80209   3.566   5.321   1.574 -0.4529 -0.4880 -0.3410
24791SOL    HW180210   3.626   5.253   1.542  1.5854  0.4707  1.2098
24791SOL    HW280211   3.524   5.281   1.650 -0.4205 -0.5450 -0.3526
24792SOL     OW80212   5.460   3.498  10.512  0.1661  0.2271  0.4599
24792SOL    HW180213   5.385   3.538  10.468  0.5571  2.0550  1.3636
24792SOL    HW280214   5.448   3.404  10.499 -1.9090  0.5131  0.0037
24793SOL     OW80215   5.645   9.996   4.598 -0.6133  0.5354  0.2822
24793SOL    HW180216   5.724   9.985   4.545  1.3499 -0.6821  3.2104
24793SOL    HW280217   5.645  10.089   4.622 -1.0149  0.8901 -0.9826
24794SOL     OW80218   6.085   3.653   1.745  0.3776 -0.5794 -0.4059
24794SOL    HW180219   6.070   3.582   1.807  0.0695 -1.0430 -0.9965
24794SOL    HW280220   6.128   3.611   1.670 -0.3993 -0.2855 -1.0353
24795SOL     OW80221   2.256   9.797  10.422 -0.8651 -0.5946 -0.8391
24795SOL    HW180222   2.175   9.843  10.401 -1.6951  0.3122  3.4341
24795SOL    HW280223   2.320   9.867  10.438 -1.1555 -0.9221  2.2198
24796SOL     OW80224   1.604  12.212   2.934 -0.0234 -0.3360  0.3754
24796SOL    HW180225   1.653  12.258   2.866  2.2363 -1.6359  1.0527
24796SOL    HW280226   1.517  12.199   2.896  0.6970  0.3745 -1.6141
24797SOL     OW80227   9.397   8.697  10.020 -0.4743  0.2497  0.0843
24797SOL    HW180228   9.493   8.692  10.020 -0.3187  2.1516  2.0326
24797SOL    HW280229   9.371   8.652  10.101 -0.9081  2.9240  1.5411
24798SOL     OW80230   7.016   3.257   4.770 -0.0725  0.0289 -0.3281
24798SOL    HW180231   7.105   3.278   4.798 -0.3040  2.4180 -1.1111
24798SOL    HW280232   6.960   3.293   4.839 -0.4629  0.6662 -0.9579
24799SOL     OW80233   5.739   6.234   0.579  0.5508  0.1228  0.3363
24799SOL    HW180234   5.720   6.299   0.647 -0.7420  0.5161 -0.3760
24799SOL    HW280235   5.833   6.241   0.565  0.6973  0.6422  1.4723
24800SOL     OW80236  11.624   3.628   3.620 -0.0191 -0.1888 -0.3027
24800SOL    HW180237  11.681   3.551   3.616  0.7447  0.3981 -1.8643
24800SOL    HW280238  11.554   3.609   3.557 -0.6826 -0.2325  0.4339
24801SOL     OW80239   9.832   0.517   7.515  0.3879  0.4672 -0.5364
24801SOL    HW180240   9.900   0.567   7.470  1.6660 -0.3748  0.3705
24801SOL    HW280241   9.869   0.429   7.523  0.5146  0.6837  2.5820
24802SOL     OW80242   8.459  10.768   7.334 -0.0728 -0.0314 -0.1909
24802SOL    HW180243   8.463  10.816   7.251  1.0061  2.1705  1.0566
24802SOL    HW280244   8.365  10.760   7.352 -0.4956 -2.8355 -2.7631
24803SOL     OW80245   4.539   6.008  10.439  0.2428  0.4793  0.6053
24803SOL    HW180246   4.586   5.973  10.515  1.3087 -2.2089 -1.1543
24803SOL    HW280247   4.447   6.006  10.464  0.6337  0.6003  2.1513
24804SOL     OW80248  10.084   1.340   1.585 -0.0452  0.7254  0.0242
24804SOL    HW180249  10.020   1.309   1.649 -0.5014  0.4330 -0.5702
24804SOL    HW280250  10.033   1.391   1.522  0.5355  1.8587  0.4216
24805SOL     OW80251   4.681   4.704  11.214  0.0769 -0.5972 -0.5793
24805SOL    HW180252   4.736   4.734  11.286  0.1698  0.3290 -1.0252
24805SOL    HW280253   4.661   4.612  11.236  1.8795 -1.0043 -0.4790
24806SOL     OW80254  10.548   3.126  11.899  0.9030  0.0097 -0.9391
24806SOL    HW180255  10.539   3.204  11.954 -0.5931 -1.3536  0.8755
24806SOL    HW280256  10.479   3.134  11.834 -1.3001 -1.1360  1.0962
24807SOL     OW80257   9.153   3.530   0.134 -0.2743  0.3400  0.9181
24807SOL    HW180258   9.087   3.491   0.076 -1.7928  1.6767  1.6590
24807SOL    HW280259   9.103   3.566   0.207  1.5250 -0.6328  2.7166
24808SOL     OW80260   2.531   3.560   0.902  0.2615 -0.0399  0.4791
24808SOL    HW180261   2.612   3.607   0.923 -0.4199  1.5126 -0.2083
24808SOL    HW280262   2.558   3.469   0.890  1.6742  0.1969  1.6171
24809SOL     OW80263   7.953   1.457   3.318  0.2783 -0.7105 -0.2870
24809SOL    HW180264   8.044   1.478   3.339  0.4852 -0.8302 -1.0458
24809SOL    HW280265   7.944   1.365   3.344  0.0349 -0.3807  0.8593
24810SOL     OW80266   3.592  11.798  10.202 -0.1285 -0.3085 -0.2104
24810SOL    HW180267   3.598  11.876  10.257 -2.4224  0.4443 -0.8920
24810SOL    HW280268   3.675  11.795  10.155  0.2712  1.3451  0.3290
24811SOL     OW80269   4.331   7.432   3.678  0.0078  0.3022  0.3851
24811SOL    HW180270   4.385   7.502   3.715 -1.1704  1.1585  0.5150
24811SOL    HW280271   4.392   7.381   3.625  1.1240  0.7446  1.1941
24812SOL     OW80272   2.952   3.193   9.910  0.6643 -0.3873  0.1745
24812SOL    HW180273   2.928   3.133   9.839 -0.0454  0.3206 -0.1877
24812SOL    HW280274   2.872   3.240   9.931  0.8414 -0.6506  1.5261
24813SOL     OW80275   9.875   0.951   9.703 -0.3585  0.6409  0.0578
24813SOL    HW180276   9.800   0.969   9.647 -0.5721  1.1840  0.5188
24813SOL    HW280277   9.847   0.877   9.757  0.3596 -0.8786 -1.5202
24814SOL     OW80278   3.949   8.191   8.594 -0.8741 -0.5076  0.7067
24814SOL    HW180279   3.857   8.193   8.570 -0.6721 -1.1397 -0.1753
24814SOL    HW280280   3.984   8.113   8.551  0.3042  0.2736  0.1723
24815SOL     OW80281   2.271   4.762   6.267  0.7217  0.6699  0.3090
24815SOL    HW180282   2.219   4.818   6.209  2.3231  0.7830 -1.0878
24815SOL    HW280283   2.214   4.746   6.342 -1.5763  0.3084 -1.3947
24816SOL     OW80284   0.828  10.049   5.720  0.1577  0.2842 -0.5483
24816SOL    HW180285   0.775  10.028   5.643 -0.8212 -0.5128  0.3029
24816SOL    HW280286   0.765  10.081   5.785  0.6852 -0.6755  0.4876
24817SOL     OW80287   9.115   6.908  12.254  0.3862 -0.0161 -0.5237
24817SOL    HW180288   9.131   6.882  12.344 -0.1519  0.3457 -0.3185
24817SOL    HW280289   9.202   6.915  12.214  0.5886 -1.1429 -0.3094
24818SOL     OW80290   6.166  10.618   3.189  0.5501  0.2676 -0.1033
24818SOL    HW180291   6.113  10.594   3.265  0.9335  0.1946  0.1437
24818SOL    HW280292   6.197  10.706   3.208  0.8192  0.1684 -0.0774
24819SOL     OW80293   3.524   9.290   3.514  0.4016 -0.0808 -0.4047
24819SOL    HW180294   3.429   9.283   3.511  0.2811  0.3065  1.4471
24819SOL    HW280295   3.544   9.370   3.464 -0.2410 -0.1072 -0.7127
24820SOL     OW80296   5.608   2.549  12.072  0.5801  0.3050 -0.0383
24820SOL    HW180297   5.518   2.551  12.039  0.1675 -0.5883  0.9315
24820SOL    HW280298   5.614   2.464  12.117  2.4846 -0.4830 -1.6402
24821SOL     OW80299  12.228   8.860   5.300  0.1286  0.4503  0.3013
24821SOL    HW180300  12.148   8.841   5.251  0.6462 -0.4991 -0.2135
24821SOL    HW280301  12.219   8.952   5.326 -0.1865  1.0021 -1.5715
24822SOL     OW80302   1.113   1.595   9.398  0.0478 -0.1623  0.4062
24822SOL    HW180303   1.094   1.641   9.480  2.2206  0.2319  0.7312
24822SOL    HW280304   1.026   1.573   9.363 -0.9502  0.5429  2.2894
24823SOL     OW80305   1.965   1.889   2.885  0.4448 -0.1098  0.2344
24823SOL    HW180306   1.923   1.950   2.945  0.7705  1.0271 -0.6557
24823SOL    HW280307   1.905   1.814   2.880 -0.2708  0.4106  0.8626
24824SOL     OW80308   4.092   2.902   2.198 -0.0095 -0.0185 -0.8036
24824SOL    HW180309   4.034   2.926   2.126 -0.9876  1.4432  0.3934
24824SOL    HW280310   4.165   2.963   2.191  0.0287 -0.0538 -0.7183
24825SOL     OW80311   2.880   5.688   6.979 -0.2534 -0.0418 -0.5216
24825SOL    HW180312   2.789   5.693   7.009  0.6749  0.6066  2.5545
24825SOL    HW280313   2.907   5.779   6.971  0.9432 -0.1274  1.6961
24826SOL     OW80314   5.435   6.569  12.082  0.4629 -0.5257 -0.1829
24826SOL    HW180315   5.493   6.622  12.137  2.1986 -1.8507 -0.6394
24826SOL    HW280316   5.441   6.610  11.995  0.3059 -0.3731 -0.1233
24827SOL     OW80317   5.324   2.399   2.071 -0.1015 -0.1306 -0.5075
24827SOL    HW180318   5.403   2.347   2.086 -0.7795 -1.1643 -0.4531
24827SOL    HW280319   5.263   2.369   2.138  0.1428  2.1871  0.8711
24828SOL     OW80320  12.286   0.802   3.370 -0.0256  0.3537 -0.0635
24828SOL    HW180321  12.365   0.826   3.417  0.1500 -2.5171  1.2913
24828SOL    HW280322  12.223   0.778   3.438 -0.1193 -2.8503 -1.1114
24829SOL     OW80323  10.197   3.987  12.117  0.3013 -0.9179 -0.1301
24829SOL    HW180324  10.267   4.034  12.163  0.1082 -0.1137 -0.6366
24829SOL    HW280325  10.226   3.985  12.026  0.1316 -1.4762 -0.1743
24830SOL     OW80326   9.773   2.350   9.472 -0.5387 -0.3598  0.3973
24830SOL    HW180327   9.688   2.307   9.483 -0.3035 -0.7388  0.7700
24830SOL    HW280328   9.784   2.403   9.552 -0.6299  0.0567  0.1392
24831SOL     OW80329  11.954   1.254   8.776 -0.1640 -0.1068  0.1804
24831SOL    HW180330  11.952   1.197   8.699  1.0791  0.9820 -0.7274
24831SOL    HW280331  11.996   1.202   8.844 -2.1407 -1.4176  0.4515
24832SOL     OW80332   7.469  12.248   8.889  0.0552 -0.4671 -0.2939
24832SOL    HW180333   7.487  12.332   8.931 -0.2812 -1.3028  1.5829
24832SOL    HW280334   7.422  12.197   8.954 -0.6755 -1.7651 -1.7639
24833SOL     OW80335   8.121   3.705  11.276 -0.1052 -0.3653 -0.6616
24833SOL    HW180336   8.151   3.710  11.185  1.8540 -0.7409 -0.0799
24833SOL    HW280337   8.175   3.768  11.323 -1.8878  0.6736  0.0978
24834SOL     OW80338   7.266  11.695   5.199  0.1473 -0.3269  0.7139
24834SOL    HW180339   7.220  11.632   5.144  0.5765 -1.5813  1.7326
24834SOL    HW280340   7.351  11.707   5.156 -0.5473  0.8933 -0.3935
24835SOL     OW80341   5.510   2.889   1.738  0.1520 -0.0905  0.0239
24835SOL    HW180342   5.574   2.836   1.691  0.5276  0.1117  0.2986
24835SOL    HW280343   5.507   2.972   1.690  0.1838 -0.0568  0.0799
24836SOL     OW80344  10.947   8.817   1.372  0.0043  0.2115 -0.8463
24836SOL    HW180345  10.891   8.847   1.444 -1.1385 -0.1825 -1.5470
24836SOL    HW280346  11.028   8.789   1.415 -0.5833  0.1635  0.2626
24837SOL     OW80347   6.005   8.474   7.844 -0.7131  0.3910 -0.1397
24837SOL    HW180348   5.987   8.488   7.937  1.0119  1.3289  0.1127
24837SOL    HW280349   5.992   8.381   7.831 -2.5435  0.4880  0.6413
24838SOL     OW80350  11.031   9.270   8.539 -0.1204 -0.0161 -0.1360
24838SOL    HW180351  11.016   9.218   8.460 -1.6584 -1.6541  1.1397
24838SOL    HW280352  10.997   9.357   8.518  1.0427  0.0817 -1.8003
24839SOL     OW80353   7.344  10.572   5.634  0.0119  0.0824 -0.1702
24839SOL    HW180354   7.412  10.557   5.700  0.7686 -0.7760 -1.1035
24839SOL    HW280355   7.304  10.486   5.621  0.3180  0.0937 -1.2833
24840SOL     OW80356   5.405   1.669   0.605 -0.3249  0.1510 -0.3082
24840SOL    HW180357   5.389   1.738   0.669  0.2197 -0.3426  0.3777
24840SOL    HW280358   5.345   1.599   0.629  0.4774 -0.3805  0.2211
24841SOL     OW80359   8.313   4.948   1.337  0.3142  0.1204  0.5465
24841SOL    HW180360   8.408   4.956   1.348  0.5456 -1.5199 -0.0500
24841SOL    HW280361   8.296   4.978   1.248  0.3323 -0.0193  0.4962
24842SOL     OW80362   9.456   5.100   1.282 -0.5206  0.1038 -0.0202
24842SOL    HW180363   9.376   5.095   1.230 -0.8373  0.0215  0.4658
24842SOL    HW280364   9.499   5.016   1.269  0.6162  0.9254 -2.0359
24843SOL     OW80365   7.180   9.433   6.592 -0.0148  0.8820 -0.7510
24843SOL    HW180366   7.207   9.446   6.501  0.0396  1.4832 -0.6531
24843SOL    HW280367   7.262   9.418   6.640 -0.1332 -0.7335 -0.9920
24844SOL     OW80368  10.030   5.704   8.841 -0.1169 -0.4746  0.1297
24844SOL    HW180369  10.126   5.702   8.832 -0.0157  0.4216  0.7837
24844SOL    HW280370  10.004   5.784   8.794 -0.5475 -0.7112 -0.0357
24845SOL     OW80371  11.686   3.458   3.250 -0.0925 -0.2104  0.3672
24845SOL    HW180372  11.686   3.544   3.294  2.1367  0.1526 -0.1885
24845SOL    HW280373  11.750   3.406   3.299  2.2093  0.0897 -2.0662
24846SOL     OW80374   6.659   6.150   3.823  0.0583 -0.0255  0.4892
24846SOL    HW180375   6.754   6.154   3.815  0.0181 -0.5037 -0.3492
24846SOL    HW280376   6.640   6.057   3.836 -0.2211  0.2014  1.9547
24847SOL     OW80377   5.236  11.490   1.424  0.3375  0.2532  0.0988
24847SOL    HW180378   5.176  11.500   1.498 -1.9400  3.1162 -1.9210
24847SOL    HW280379   5.205  11.413   1.377 -0.4618  0.5023  0.2082
24848SOL     OW80380   9.303   0.466   1.507  0.2060  0.2781 -0.2081
24848SOL    HW180381   9.226   0.498   1.459 -1.0225 -1.1307  0.7013
24848SOL    HW280382   9.369   0.451   1.439 -0.5994  0.7667 -1.1287
24849SOL     OW80383   8.973   9.128   3.659 -0.3633  0.3489 -0.6907
24849SOL    HW180384   9.060   9.120   3.698 -0.7465  2.4670  0.7269
24849SOL    HW280385   8.989   9.126   3.565  1.0897 -0.2069 -0.4649
24850SOL     OW80386   8.305  10.418  10.569  0.4862 -0.6352  0.3198
24850SOL    HW180387   8.352  10.396  10.649  0.3255 -0.9035  0.3427
24850SOL    HW280388   8.334  10.506  10.547  0.1393 -0.3464  0.9694
24851SOL     OW80389   5.331   3.796   1.537  0.0531 -0.1576  0.4337
24851SOL    HW180390   5.343   3.742   1.615  0.3923 -1.7864 -0.7068
24851SOL    HW280391   5.378   3.877   1.557 -1.1828  0.1249  2.5233
24852SOL     OW80392   4.651   1.832   4.682  0.1870  0.4348 -0.3033
24852SOL    HW180393   4.594   1.908   4.669  0.5491  0.2921 -3.5202
24852SOL    HW280394   4.593   1.765   4.717 -0.8575  1.2690 -0.3689
24853SOL     OW80395   4.720   5.840   0.791 -0.0448  0.6155 -0.3648
24853SOL    HW180396   4.732   5.816   0.882 -1.5399 -0.0980 -0.3243
24853SOL    HW280397   4.798   5.891   0.769  0.3966  0.6941  1.2592
24854SOL     OW80398   5.708   6.454   4.043 -0.0121  0.3138 -0.3648
24854SOL    HW180399   5.635   6.481   3.987 -0.0028 -2.3827 -1.8060
24854SOL    HW280400   5.682   6.369   4.078  1.8756 -0.1162  0.1353
24855SOL     OW80401   8.759   1.727   9.998  0.2338 -0.2724 -0.4278
24855SOL    HW180402   8.727   1.796  10.056 -0.7682 -1.5054  0.5322
24855SOL    HW280403   8.763   1.769   9.912 -2.4983  0.4236 -0.3240
24856SOL     OW80404   8.872   8.035  11.192  0.1614  0.8449 -0.0767
24856SOL    HW180405   8.938   8.101  11.171  0.6138  0.0755 -1.1805
24856SOL    HW280406   8.811   8.038  11.118 -0.1236  0.4218  0.1405
24857SOL     OW80407   2.738   5.236   5.989  0.0966 -0.0726 -0.3205
24857SOL    HW180408   2.815   5.278   6.028 -0.3884  0.8349 -0.3282
24857SOL    HW280409   2.741   5.146   6.022  0.9593  0.0483 -0.0381
24858SOL     OW80410   5.591   8.094  10.801  0.2073  0.2929 -0.2226
24858SOL    HW180411   5.521   8.029  10.800  0.2022  0.3004 -0.7804
24858SOL    HW280412   5.594   8.128  10.712  0.7012  0.5307 -0.1219
24859SOL     OW80413   0.407   0.059   4.914 -0.2359  0.0093 -0.4217
24859SOL    HW180414   0.337  -0.006   4.905 -0.7042  0.7341 -2.7270
24859SOL    HW280415   0.364   0.135   4.953 -0.3016 -0.1828 -0.1220
24860SOL     OW80416   7.803   1.615   1.335  0.0908 -0.3618  0.3564
24860SOL    HW180417   7.846   1.564   1.266 -0.2076 -0.0982 -0.0265
24860SOL    HW280418   7.788   1.701   1.296 -1.3776 -0.6387  0.2540
24861SOL     OW80419   0.028   7.805   6.978 -0.1881  0.0417  0.6889
24861SOL    HW180420   0.040   7.783   6.886  0.2045  0.1505  0.7159
24861SOL    HW280421  -0.064   7.783   6.995  0.0918 -1.2604  0.6296
24862SOL     OW80422   6.506   3.044   7.874  1.1085  0.0347  0.1003
24862SOL    HW180423   6.515   3.118   7.813 -0.0809  0.5105  0.4851
24862SOL    HW280424   6.562   3.068   7.948  0.4056  0.7729  0.4125
24863SOL     OW80425   9.999  10.201  10.931  0.2204  0.6107 -0.6248
24863SOL    HW180426  10.092  10.223  10.932  0.3025  0.2666 -0.6888
24863SOL    HW280427   9.964  10.241  11.010  0.2356  1.5508 -1.0811
24864SOL     OW80428  11.354   2.471  12.267  0.6359  0.6638  0.3567
24864SOL    HW180429  11.449   2.462  12.267  0.6602  0.6384  1.6314
24864SOL    HW280430  11.338   2.562  12.244  0.9840  0.7154  0.3225
24865SOL     OW80431   9.968   4.790   8.431  0.0316  0.2642  0.5325
24865SOL    HW180432  10.050   4.839   8.428  0.4828 -0.5242 -0.7644
24865SOL    HW280433   9.906   4.849   8.473  1.5944  0.3409  2.9378
24866SOL     OW80434   3.879   5.395  10.438  0.5653 -0.0965  0.4803
24866SOL    HW180435   3.788   5.380  10.415  0.6359 -0.5100  0.4588
24866SOL    HW280436   3.899   5.328  10.502  0.2543  1.2803  2.0868
24867SOL     OW80437   8.895   8.539   6.698 -0.1445  0.5104 -0.4796
24867SOL    HW180438   8.977   8.521   6.746  0.2775 -0.2305 -1.4411
24867SOL    HW280439   8.827   8.496   6.750  0.0737  1.1044  0.3121
24868SOL     OW80440   2.977  11.777   6.755 -0.2756 -0.2376 -0.0117
24868SOL    HW180441   2.956  11.842   6.822 -2.8300  1.3260 -2.1388
24868SOL    HW280442   2.930  11.698   6.782  0.5668 -0.3609  1.1513
24869SOL     OW80443   0.290  10.759   9.996  0.2947  0.2317  0.5042
24869SOL    HW180444   0.276  10.807  10.077 -1.6641  0.9086 -0.1719
24869SOL    HW280445   0.382  10.772   9.976  0.6859  0.5269  2.3021
24870SOL     OW80446   5.162   2.122   9.859  0.3317  0.4320 -0.1403
24870SOL    HW180447   5.221   2.128   9.934 -0.5197  0.7197  0.5149
24870SOL    HW280448   5.214   2.078   9.791  1.5393  1.3050  0.1773
24871SOL     OW80449   8.314  10.001   0.089 -0.0463  0.0453 -0.0103
24871SOL    HW180450   8.300   9.937   0.158  0.9512 -0.1551  0.0203
24871SOL    HW280451   8.362   9.954   0.021  0.0750  0.5738 -0.2998
24872SOL     OW80452   2.928   5.188  12.058  0.1368 -0.4084 -0.1835
24872SOL    HW180453   2.884   5.128  12.118 -0.6742  0.6984  0.3649
24872SOL    HW280454   2.856   5.234  12.014  0.7318  1.4312  0.7102
24873SOL     OW80455   4.916   2.899  10.314 -0.0700 -0.8441 -0.6183
24873SOL    HW180456   4.972   2.821  10.305 -0.2012 -1.0463  0.2853
24873SOL    HW280457   4.882   2.895  10.403  0.6572  0.7377 -0.2287
24874SOL     OW80458   4.713   6.641   0.909  0.0237 -0.0744 -0.2792
24874SOL    HW180459   4.657   6.567   0.887  0.6197 -0.6570  0.1175
24874SOL    HW280460   4.659   6.718   0.892 -1.0003 -0.6280  0.3740
24875SOL     OW80461   7.985   8.948  11.185  0.5246 -0.5423  0.0856
24875SOL    HW180462   8.034   9.014  11.233  1.5058 -1.2113  0.0186
24875SOL    HW280463   7.917   8.997  11.140  1.3151  0.4392 -0.0630
24876SOL     OW80464   8.703   3.255   4.358  0.0738 -0.5622 -0.5884
24876SOL    HW180465   8.755   3.335   4.355  1.1620 -1.1589  0.9047
24876SOL    HW280466   8.643   3.262   4.283 -0.3465  1.9368 -0.1084
24877SOL     OW80467   3.728   4.166   5.726 -0.3299  0.3699  0.2824
24877SOL    HW180468   3.676   4.105   5.672  0.5713 -0.6876  0.5662
24877SOL    HW280469   3.818   4.134   5.717  0.3757  2.4599 -0.5974
24878SOL     OW80470   9.774  10.540   8.920 -0.3945 -0.4996 -0.2514
24878SOL    HW180471   9.727  10.520   8.839 -1.7458  0.8198  0.1585
24878SOL    HW280472   9.862  10.505   8.906 -0.9374 -1.3567 -1.8046
24879SOL     OW80473   2.387   7.577   3.870 -0.6457 -0.2216 -0.1447
24879SOL    HW180474   2.460   7.637   3.859 -1.0568  0.1947 -0.6903
24879SOL    HW280475   2.350   7.567   3.782 -2.5928  1.3509  0.3963
24880SOL     OW80476   1.434   5.450   3.766 -0.7200 -0.3416 -0.0821
24880SOL    HW180477   1.411   5.415   3.852 -2.1038  0.3235 -0.1672
24880SOL    HW280478   1.516   5.497   3.781 -1.6270  0.9042  1.1872
24881SOL     OW80479   0.793   3.546   4.220 -0.1441  0.1437 -0.0552
24881SOL    HW180480   0.867   3.489   4.243  0.3129  0.1914 -1.3196
24881SOL    HW280481   0.765   3.584   4.304  0.9817 -0.2190  0.5098
24882SOL     OW80482   5.177   7.059  10.746 -0.1562  0.7322  0.4991
24882SOL    HW180483   5.111   7.069  10.677 -0.2431  1.0463  0.6228
24882SOL    HW280484   5.133   7.088  10.825 -0.2105 -0.1012  0.7760
24883SOL     OW80485   0.431   9.832   4.586  0.2729  0.1863 -0.0333
24883SOL    HW180486   0.495   9.804   4.652 -0.5656 -1.6027  0.0876
24883SOL    HW280487   0.484   9.847   4.507  1.1387  1.2427  0.7192
24884SOL     OW80488   7.027  12.172   3.183 -0.3258  0.0529 -0.0437
24884SOL    HW180489   7.105  12.222   3.207  0.4582 -0.6660 -1.0571
24884SOL    HW280490   6.996  12.213   3.103  0.2139 -0.9386 -0.7787
24885SOL     OW80491   7.384   5.328   5.012  0.6080 -0.5963 -0.0247
24885SOL    HW180492   7.458   5.388   5.024  1.2885 -1.2406 -0.8408
24885SOL    HW280493   7.312   5.369   5.059  0.8314  1.2528 -1.1963
24886SOL     OW80494   8.909   1.511   7.911  0.6382  0.5388 -0.4819
24886SOL    HW180495   8.962   1.458   7.852  1.2419 -0.0082  0.5264
24886SOL    HW280496   8.829   1.459   7.925 -0.3685  1.5202 -2.2781
24887SOL     OW80497   3.397   9.029   2.253 -0.1553 -0.3760 -0.4048
24887SOL    HW180498   3.338   9.004   2.181 -0.6663  1.5426 -0.7320
24887SOL    HW280499   3.352   9.001   2.332 -0.3079 -1.1721 -0.7685
24888SOL     OW80500   7.555   9.949   0.347 -0.0467  0.3660 -0.0453
24888SOL    HW180501   7.468   9.974   0.379 -1.0303 -2.3041 -0.3085
24888SOL    HW280502   7.568   9.861   0.383  1.3306 -0.4236 -2.2724
24889SOL     OW80503   5.906   5.233   6.901 -0.0692  0.5187  0.1460
24889SOL    HW180504   5.882   5.306   6.845  0.9551  0.7020 -0.0837
24889SOL    HW280505   5.998   5.249   6.922  0.3768 -1.0578 -0.4681
24890SOL     OW80506   2.256   3.768  12.046 -0.1641 -0.8385 -0.2452
24890SOL    HW180507   2.299   3.687  12.075  0.1609  0.2746  2.7069
24890SOL    HW280508   2.319   3.837  12.068 -1.5197  0.4351 -0.2418
24891SOL     OW80509   2.484   6.584   0.383 -0.0812 -0.7416 -0.2720
24891SOL    HW180510   2.402   6.626   0.410  0.6392  1.3154 -1.0679
24891SOL    HW280511   2.456   6.509   0.330 -1.5238  0.9890 -2.0954
24892SOL     OW80512   5.372   6.898   4.875  0.1988 -0.3098 -0.0294
24892SOL    HW180513   5.389   6.954   4.951  1.2130 -0.8913  0.2003
24892SOL    HW280514   5.398   6.952   4.800  0.2387 -0.1239  0.1157
24893SOL     OW80515  10.834   2.313  11.588 -0.3638 -0.3551 -0.0115
24893SOL    HW180516  10.873   2.237  11.545 -0.5603 -1.2181  1.2627
24893SOL    HW280517  10.759   2.336  11.534 -0.4469 -1.2349 -0.2890
24894SOL     OW80518   7.487   3.367  10.502 -0.2908 -0.4988 -0.1444
24894SOL    HW180519   7.437   3.296  10.541 -0.7151 -1.2584 -1.9486
24894SOL    HW280520   7.420   3.428  10.470 -0.0084 -0.4176 -0.5917
24895SOL     OW80521   2.323   7.189   8.007 -0.2044  0.1822  0.2509
24895SOL    HW180522   2.353   7.142   7.930 -1.8334 -1.3454  0.4812
24895SOL    HW280523   2.292   7.121   8.067  0.0325  1.3860  1.8351
24896SOL     OW80524   6.302   9.911   4.542  0.3375 -0.2268  0.4823
24896SOL    HW180525   6.397   9.923   4.545  0.2601  1.9570 -1.9913
24896SOL    HW280526   6.266   9.998   4.561 -1.3076 -1.3667  3.0953
24897SOL     OW80527   1.268   5.231  10.016 -0.4234 -0.2532  0.7133
24897SOL    HW180528   1.252   5.295  10.085  1.2430  0.6459  0.3105
24897SOL    HW280529   1.316   5.160  10.060  0.1427  0.0575  0.6000
24898SOL     OW80530  12.286   5.437   2.300  0.0163 -0.3202  0.4361
24898SOL    HW180531  12.220   5.445   2.231  0.7141  1.3827 -0.1032
24898SOL    HW280532  12.290   5.343   2.318 -0.4612 -0.7958 -1.5851
24899SOL     OW80533   3.291   8.192   3.308  0.1450  0.6673 -0.0755
24899SOL    HW180534   3.297   8.274   3.259 -0.5858  0.3429 -0.7295
24899SOL    HW280535   3.361   8.197   3.372 -0.0460  1.9057  0.0481
24900SOL     OW80536   3.167   7.151   8.645  0.6846  0.1325 -0.4141
24900SOL    HW180537   3.081   7.158   8.603  0.7149  0.8248 -0.3634
24900SOL    HW280538   3.193   7.060   8.630  0.3816  0.1794 -1.2848
24901SOL     OW80539   2.231   3.013   1.855  0.3210  0.5933  0.1851
24901SOL    HW180540   2.144   2.979   1.875  0.4595  0.7531  1.1244
24901SOL    HW280541   2.217   3.105   1.833  0.1378  0.3581 -0.6971
24902SOL     OW80542   6.342   3.907   3.408 -0.2965  0.0176  0.2995
24902SOL    HW180543   6.371   3.915   3.317  1.2494 -0.3499  0.7395
24902SOL    HW280544   6.249   3.884   3.401 -0.2455  0.1602 -1.1785
24903SOL     OW80545   4.253   6.105   2.845 -0.0671 -0.0967  0.4849
24903SOL    HW180546   4.227   6.187   2.887 -2.7341 -0.7886  0.3667
24903SOL    HW280547   4.282   6.132   2.757  1.2712  0.8990  1.2011
24904SOL     OW80548  11.916   4.029   6.961  0.5178 -0.5064 -0.2267
24904SOL    HW180549  11.876   4.074   7.035  0.5259 -1.4152  0.3325
24904SOL    HW280550  11.844   3.984   6.917  0.0793  1.8001 -2.1474
24905SOL     OW80551   9.825  10.507  11.613 -0.7983 -0.0623  0.5722
24905SOL    HW180552   9.872  10.576  11.660 -0.4828  0.1444 -0.0333
24905SOL    HW280553   9.758  10.477  11.675 -1.1642  1.0206  0.7171
24906SOL     OW80554   7.130   6.601   1.632  0.1954  0.1953 -0.2530
24906SOL    HW180555   7.076   6.665   1.679 -0.4816  0.5995 -1.5218
24906SOL    HW280556   7.147   6.532   1.696  1.7747  2.0619  1.4670
24907SOL     OW80557   6.399   4.103   3.959  0.1944  0.0974  0.0803
24907SOL    HW180558   6.346   4.109   3.880  1.5519  1.1977 -0.7915
24907SOL    HW280559   6.360   4.167   4.019 -0.3421 -0.1518  0.0022
24908SOL     OW80560   2.149   2.795   7.399  0.8560 -0.2716  0.1021
24908SOL    HW180561   2.142   2.718   7.344  1.2936 -0.6510  0.5738
24908SOL    HW280562   2.098   2.773   7.478  1.3000 -0.2323  0.4029
24909SOL     OW80563   7.657  10.439   8.144 -0.4373 -0.1542  0.2178
24909SOL    HW180564   7.715  10.406   8.212 -0.6659 -2.6267 -0.6887
24909SOL    HW280565   7.715  10.467   8.073 -0.2846  0.3815  0.5447
24910SOL     OW80566  10.769   7.853   3.779  0.1183 -0.0094  0.5840
24910SOL    HW180567  10.695   7.898   3.820 -1.5433  0.2511 -2.3856
24910SOL    HW280568  10.846   7.883   3.828 -1.3254  2.8936  1.3070
24911SOL     OW80569   2.795   2.822   1.510  0.1366 -0.9413  0.0692
24911SOL    HW180570   2.790   2.729   1.491 -2.0577 -0.9588  0.5243
24911SOL    HW280571   2.779   2.828   1.604  0.1600 -0.0903  0.0254
24912SOL     OW80572   0.150   4.702   6.507  0.0412  0.1818  0.2507
24912SOL    HW180573   0.202   4.761   6.562  1.2078 -0.3630 -0.2275
24912SOL    HW280574   0.081   4.758   6.471 -0.3937  0.6678  1.7897
24913SOL     OW80575   7.482   4.419  11.907 -0.6206  0.1408  0.5063
24913SOL    HW180576   7.513   4.378  11.987 -0.4857  2.0983  1.5076
24913SOL    HW280577   7.505   4.357  11.838 -0.2632 -1.3471  1.9038
24914SOL     OW80578   8.073   6.605   0.736  0.3641 -0.5119 -0.3828
24914SOL    HW180579   7.998   6.588   0.792  0.7537  0.5177  0.4923
24914SOL    HW280580   8.039   6.601   0.647 -0.5552 -0.8158 -0.0223
24915SOL     OW80581   2.019   9.432  11.942  0.3278  0.0803 -0.3762
24915SOL    HW180582   2.083   9.442  12.013  0.9612 -1.9321 -0.5907
24915SOL    HW280583   2.070   9.436  11.862 -0.3148  1.7846 -0.7464
24916SOL     OW80584   0.894   9.427   7.903  0.1782 -0.0759  0.0318
24916SOL    HW180585   0.843   9.363   7.952  0.1092 -0.8980 -1.0855
24916SOL    HW280586   0.901   9.503   7.963 -2.7747  0.3022  0.0418
24917SOL     OW80587   4.021   0.893   7.588 -0.2543 -0.4856 -0.3607
24917SOL    HW180588   4.046   0.923   7.501 -0.1688 -1.1602 -0.5792
24917SOL    HW280589   3.929   0.869   7.580  0.0998 -1.8561 -0.6503
24918SOL     OW80590   0.571   0.490   7.495 -0.2720  0.5589  0.4130
24918SOL    HW180591   0.520   0.454   7.568  0.5038  0.6182  0.9912
24918SOL    HW280592   0.656   0.447   7.501 -0.7299 -0.7173 -1.4843
24919SOL     OW80593  11.704   4.477   6.249 -0.0185  0.4747  0.4418
24919SOL    HW180594  11.779   4.536   6.246 -0.3243  0.8376 -0.6251
24919SOL    HW280595  11.728   4.404   6.191  0.4740 -0.6333  1.9607
24920SOL     OW80596  11.186  10.487   8.261 -0.1098 -0.1682 -0.0657
24920SOL    HW180597  11.200  10.445   8.345  0.8860 -1.9746 -1.0618
24920SOL    HW280598  11.123  10.557   8.279 -0.3632 -0.8710  2.0460
24921SOL     OW80599  12.292   9.873   6.087  0.4848 -0.3413 -0.5640
24921SOL    HW180600  12.250   9.931   6.024 -0.5214 -0.4460 -0.0142
24921SOL    HW280601  12.240   9.792   6.084  0.3602 -0.3181  0.4494
24922SOL     OW80602   1.889   3.757   9.292 -0.3240 -0.5137  0.2468
24922SOL    HW180603   1.798   3.761   9.322  0.2225  1.5680  1.9173
24922SOL    HW280604   1.885   3.788   9.201 -1.3312 -0.8038  0.1815
24923SOL     OW80605   1.708   9.220   2.738  0.0393 -0.4124  0.2318
24923SOL    HW180606   1.648   9.291   2.758  1.6607  0.8655  0.7398
24923SOL    HW280607   1.780   9.230   2.802  1.3314 -1.2025 -1.0381
24924SOL     OW80608   8.968   1.064   2.118  0.5453 -0.4077  0.0081
24924SOL    HW180609   8.984   0.976   2.083 -0.5066 -0.7327  0.2994
24924SOL    HW280610   9.022   1.122   2.065 -0.2331 -0.9995 -1.4793
24925SOL     OW80611  10.941  12.075   9.644  0.4089 -0.5462  0.4038
24925SOL    HW180612  10.990  12.142   9.692 -1.2691  0.9794  0.0753
24925SOL    HW280613  10.877  12.123   9.592  0.2799 -2.3148 -1.2128
24926SOL     OW80614   7.085   2.623   9.061  0.6523 -0.3585 -0.4705
24926SOL    HW180615   7.168   2.633   9.109 -0.5430  0.8199  1.5066
24926SOL    HW280616   7.027   2.580   9.124 -0.3383 -0.8825 -1.7140
24927SOL     OW80617   7.545   9.158   2.304 -0.0073  0.0987  0.0795
24927SOL    HW180618   7.529   9.080   2.358  0.1170 -0.6771 -0.9764
24927SOL    HW280619   7.491   9.226   2.344 -1.2767 -0.9199  0.1621
24928SOL     OW80620   5.325   9.663   1.114 -0.8193  0.0808 -0.1536
24928SOL    HW180621   5.298   9.733   1.055 -1.7103  0.5964  0.8091
24928SOL    HW280622   5.420   9.671   1.120 -0.8170  0.5885 -0.8063
24929SOL     OW80623   4.127   0.966  10.323  0.2265 -0.1359  0.5931
24929SOL    HW180624   4.037   0.990  10.299  0.4733 -0.8053 -1.2186
24929SOL    HW280625   4.126   0.961  10.418 -1.9815 -1.3214  0.5791
24930SOL     OW80626  10.072  11.742  11.581  0.0072  0.1554 -0.6283
24930SOL    HW180627  10.021  11.666  11.608 -2.0190  1.1978 -1.3143
24930SOL    HW280628  10.092  11.788  11.663  0.7439 -0.7971 -0.2654
24931SOL     OW80629   7.549   2.891   3.336 -0.1539  0.5370  0.0494
24931SOL    HW180630   7.527   2.844   3.416  0.7501  0.5325  0.2969
24931SOL    HW280631   7.495   2.970   3.339  0.1016  0.6916  0.8198
24932SOL     OW80632   1.731   2.886   3.405  0.3850  0.2132 -0.6016
24932SOL    HW180633   1.657   2.832   3.433  0.1786 -0.6928 -2.6553
24932SOL    HW280634   1.708   2.975   3.433 -1.2783 -0.1294 -0.7596
24933SOL     OW80635   8.811  11.282   8.214 -0.2901 -0.1732  0.4670
24933SOL    HW180636   8.814  11.278   8.310 -0.2085  1.4167  0.5530
24933SOL    HW280637   8.876  11.349   8.191  1.2897 -2.0342 -0.8536
24934SOL     OW80638   8.696   0.367  10.320 -0.0713 -0.1454  0.2961
24934SOL    HW180639   8.685   0.461  10.336 -2.6220 -0.4606  0.8168
24934SOL    HW280640   8.695   0.328  10.408 -0.9190 -0.8021  0.0048
24935SOL     OW80641   8.753   5.696   1.633 -0.5466 -0.0847  0.1437
24935SOL    HW180642   8.695   5.626   1.605  0.2864 -0.3447 -0.9766
24935SOL    HW280643   8.741   5.766   1.569 -1.2733  0.7839  1.1752
24936SOL     OW80644   7.698   4.449   0.786 -0.2049  0.0207 -0.4520
24936SOL    HW180645   7.665   4.476   0.871 -1.0239 -1.0593 -0.3998
24936SOL    HW280646   7.711   4.530   0.738  0.2859  0.6421  0.7001
24937SOL     OW80647   3.493   8.358   5.827  0.0526  0.1499 -0.1099
24937SOL    HW180648   3.526   8.448   5.833  2.1247 -0.3338 -2.7155
24937SOL    HW280649   3.568   8.303   5.847 -0.3295 -0.9864 -1.6001
24938SOL     OW80650   2.019   4.858   4.783  0.0303 -0.3463  0.0331
24938SOL    HW180651   1.991   4.776   4.824 -1.9763 -0.0663 -0.6610
24938SOL    HW280652   2.048   4.832   4.696 -1.6849 -0.2283 -0.6041
24939SOL     OW80653   2.565  10.533   7.315 -0.0012  0.2189  0.4193
24939SOL    HW180654   2.536  10.442   7.325  0.3689  0.1726  1.1249
24939SOL    HW280655   2.625  10.530   7.240 -0.5513  0.0227 -0.0261
24940SOL     OW80656  11.839   6.305   6.099 -0.1207 -0.2534  0.0459
24940SOL    HW180657  11.926   6.310   6.137 -0.5835  0.0314  1.1097
24940SOL    HW280658  11.853   6.274   6.010  0.8952 -2.6989  0.9553
24941SOL     OW80659   6.151   5.144   5.713 -0.2526 -0.3262 -0.0312
24941SOL    HW180660   6.143   5.079   5.643  2.8323 -0.7741 -0.0929
24941SOL    HW280661   6.198   5.098   5.783 -1.7618  0.6195  1.7005
24942SOL     OW80662   2.460   5.750   1.870 -0.0257  0.5905  0.8908
24942SOL    HW180663   2.524   5.724   1.936 -0.6934  2.2083  2.2443
24942SOL    HW280664   2.382   5.774   1.919 -0.7979  1.1664 -0.5415
24943SOL     OW80665  10.040   1.317   4.526  0.2439 -0.0692 -0.4884
24943SOL    HW180666  10.079   1.307   4.439  1.8885 -0.1661  0.2136
24943SOL    HW280667  10.097   1.265   4.584 -2.6186 -2.6981  0.2168
24944SOL     OW80668   8.338  10.776   8.766 -0.1567  0.6257  0.0778
24944SOL    HW180669   8.333  10.787   8.861  0.9860 -0.2364  0.2554
24944SOL    HW280670   8.389  10.696   8.754  0.0756  0.9587 -1.2786
24945SOL     OW80671   7.442   4.259   3.175 -0.8938 -0.3256  0.2493
24945SOL    HW180672   7.509   4.287   3.238 -0.1233 -0.1237 -0.6237
24945SOL    HW280673   7.431   4.336   3.118  1.4902 -1.7469 -2.4091
24946SOL     OW80674   6.312   2.723   7.594  0.5549 -0.0472 -0.7617
24946SOL    HW180675   6.234   2.778   7.579  0.8157  0.9432  1.1949
24946SOL    HW280676   6.297   2.684   7.680  2.8195  1.2685  0.3022
24947SOL     OW80677   4.213   0.247   1.287  0.3900  0.1879 -0.4112
24947SOL    HW180678   4.301   0.224   1.318  0.8038  1.1686 -0.7792
24947SOL    HW280679   4.229   0.305   1.212 -0.5824 -1.4276 -1.9306
24948SOL     OW80680   1.067   8.254  11.064 -1.1895  0.1656  0.3171
24948SOL    HW180681   0.973   8.254  11.048 -1.1485 -1.5365 -0.1319
24948SOL    HW280682   1.089   8.162  11.074  0.6263  0.4484 -0.7367
24949SOL     OW80683   1.577   6.998  10.221  0.0811 -0.3479 -0.4225
24949SOL    HW180684   1.639   7.053  10.269 -0.3539 -0.2863  0.0776
24949SOL    HW280685   1.505   7.057  10.199 -0.2967 -0.6665 -0.0589
24950SOL     OW80686   3.771   8.940   2.987  0.4904 -0.0649  0.0527
24950SOL    HW180687   3.700   8.976   3.039 -0.4061 -0.1011 -1.1046
24950SOL    HW280688   3.736   8.937   2.898  2.1518  0.4755 -0.6503
24951SOL     OW80689   0.205   8.664   1.409  0.2907 -0.8520  0.1909
24951SOL    HW180690   0.269   8.734   1.396  0.4798 -1.2529 -1.1859
24951SOL    HW280691   0.177   8.673   1.501  2.3591 -0.7077  0.8469
24952SOL     OW80692   0.041   8.972   6.470 -0.0471 -0.5483 -0.2193
24952SOL    HW180693   0.016   9.053   6.515 -0.0571 -0.4504 -0.3976
24952SOL    HW280694   0.093   8.923   6.534  0.8358  0.0604 -0.4491
24953SOL     OW80695  10.049   0.539   0.981  0.4251 -0.2778 -0.0424
24953SOL    HW180696  10.063   0.508   1.070  0.4106  1.6869  0.6984
24953SOL    HW280697   9.962   0.579   0.983  0.9813  1.0427 -0.5106
24954SOL     OW80698   9.051   9.364   0.693  0.0652 -0.8387  0.1133
24954SOL    HW180699   9.093   9.319   0.766 -1.5580 -1.0463  0.9547
24954SOL    HW280700   9.063   9.305   0.619  0.4358 -1.3257  0.5548
24955SOL     OW80701   8.220   4.521   2.589 -0.0324 -0.5138 -0.2393
24955SOL    HW180702   8.200   4.609   2.620  0.3812 -1.5518  3.4502
24955SOL    HW280703   8.135   4.479   2.579 -0.1804 -0.4616  0.6846
24956SOL     OW80704   4.784   9.181   6.376  0.2950 -0.3318  0.1543
24956SOL    HW180705   4.842   9.187   6.300  0.6122 -0.1477  0.4119
24956SOL    HW280706   4.726   9.108   6.356  0.2933 -0.2046 -0.3266
24957SOL     OW80707  11.421   7.375   5.799 -0.0347  0.0271 -0.5879
24957SOL    HW180708  11.386   7.434   5.866 -0.9735  0.3650 -1.3516
24957SOL    HW280709  11.384   7.289   5.821  0.5700 -0.0958 -0.0251
24958SOL     OW80710   9.982  11.062   5.864 -0.3190  0.2059  0.0891
24958SOL    HW180711  10.000  11.148   5.901 -0.9587 -0.2171  1.4095
24958SOL    HW280712  10.055  11.007   5.894  0.0291  0.2426 -0.6589
24959SOL     OW80713  10.630  11.426   4.798  0.4319 -0.2021 -0.2437
24959SOL    HW180714  10.555  11.480   4.774 -0.9784 -1.5331  0.9341
24959SOL    HW280715  10.652  11.378   4.718  0.0333  0.1849 -0.5879
24960SOL     OW80716   7.446   9.424   1.173 -0.3747  0.5134 -0.3345
24960SOL    HW180717   7.489   9.361   1.115 -1.4549  0.6908 -1.3580
24960SOL    HW280718   7.401   9.485   1.115  0.1072  1.8791  0.6492
24961SOL     OW80719   2.212  10.869  11.764  0.7735  0.8381  0.1426
24961SOL    HW180720   2.252  10.818  11.834 -0.9633  0.0037  0.5952
24961SOL    HW280721   2.166  10.940  11.810 -1.7073 -0.6152  0.0749
24962SOL     OW80722  10.009   4.196  11.690  0.3327  0.0845 -1.0817
24962SOL    HW180723   9.922   4.225  11.718  0.0625 -2.2089  0.7449
24962SOL    HW280724  10.065   4.273  11.700 -0.8094  0.7060  1.1537
24963SOL     OW80725   3.930   9.252  10.918 -0.4324 -0.3495  1.1101
24963SOL    HW180726   3.837   9.256  10.896  0.1973 -0.4722 -1.9036
24963SOL    HW280727   3.938   9.174  10.973 -2.1366 -0.0859  1.7969
24964SOL     OW80728   5.076   7.548   6.763  0.1422 -0.4312  0.1719
24964SOL    HW180729   5.068   7.625   6.820  1.1373 -0.6969  0.7001
24964SOL    HW280730   5.169   7.545   6.740 -0.2830 -0.1492 -1.7513
24965SOL     OW80731   0.888   8.671   8.495  0.3813 -0.7769  0.3943
24965SOL    HW180732   0.939   8.601   8.455  0.6188 -0.2311 -0.2878
24965SOL    HW280733   0.872   8.733   8.423  0.2070 -0.1199  0.9845
24966SOL     OW80734  11.031   6.617  12.124 -0.4872 -0.0738  0.1963
24966SOL    HW180735  11.123   6.629  12.145 -0.5723 -0.7313  0.9882
24966SOL    HW280736  11.031   6.560  12.047 -0.1979  1.7220 -1.2135
24967SOL     OW80737   4.876   8.416   8.517  0.3010 -0.3520  0.7058
24967SOL    HW180738   4.884   8.403   8.612 -0.8102 -1.3220  0.6961
24967SOL    HW280739   4.784   8.438   8.504  0.6096  0.5309 -0.0872
24968SOL     OW80740   6.486   8.393   0.346  0.2236 -0.4024  0.5196
24968SOL    HW180741   6.530   8.342   0.414 -0.0994 -1.7200 -0.2294
24968SOL    HW280742   6.556   8.420   0.287  0.4355  0.3096  1.0781
24969SOL     OW80743   7.470   8.344   7.475 -0.5251  0.6292 -0.4748
24969SOL    HW180744   7.533   8.346   7.547 -0.4995 -3.3229 -0.2170
24969SOL    HW280745   7.387   8.368   7.516  0.1241  2.3257 -0.0581
24970SOL     OW80746   2.572   9.330   0.765  0.5990  0.3594 -0.0078
24970SOL    HW180747   2.488   9.284   0.775  0.9003 -0.0453  0.7742
24970SOL    HW280748   2.547   9.421   0.752  0.0310  0.3844  1.0775
24971SOL     OW80749   6.768   6.547   9.122  0.1230  0.7095 -0.3683
24971SOL    HW180750   6.697   6.573   9.063 -0.4399  0.5758  0.2380
24971SOL    HW280751   6.845   6.594   9.089 -0.9472  3.7165  1.0201
24972SOL     OW80752  11.132   8.777   0.030  0.5869 -0.2831  0.2828
24972SOL    HW180753  11.110   8.759   0.121  4.6107 -3.8391  0.8840
24972SOL    HW280754  11.066   8.730  -0.021  0.2762 -1.2155  1.5125
24973SOL     OW80755   8.554   2.745   7.615 -0.2265  0.2192  0.2201
24973SOL    HW180756   8.602   2.755   7.697 -0.2435 -0.7288  0.3519
24973SOL    HW280757   8.466   2.779   7.633 -0.6878 -1.3104  1.0520
24974SOL     OW80758  11.764   1.170   1.125 -0.5565 -0.1356  0.4208
24974SOL    HW180759  11.704   1.187   1.053 -0.3817 -0.0319  0.2986
24974SOL    HW280760  11.747   1.079   1.150  1.7268 -1.3589 -1.9921
24975SOL     OW80761   7.373   7.748   0.059  0.2824 -0.3416  0.0045
24975SOL    HW180762   7.418   7.811   0.003  0.2668 -0.4116 -0.0869
24975SOL    HW280763   7.280   7.763   0.042  0.3007 -0.9817 -0.6670
24976SOL     OW80764   4.364   9.686   9.828 -0.4122 -0.1036  0.2765
24976SOL    HW180765   4.457   9.706   9.818 -0.5530  0.5402  0.2067
24976SOL    HW280766   4.362   9.596   9.861  0.3673  0.9506  3.5678
24977SOL     OW80767   1.573   2.425  11.960  0.3400  0.0413 -0.6338
24977SOL    HW180768   1.637   2.370  11.916  1.0957 -0.9138  1.5065
24977SOL    HW280769   1.491   2.377  11.954  1.0799 -1.7047  1.6111
24978SOL     OW80770   6.772  12.035  11.949 -0.3916  0.6201  0.0684
24978SOL    HW180771   6.766  12.088  11.869 -1.1348  0.6761  0.1582
24978SOL    HW280772   6.691  11.984  11.950  0.6758 -1.2186 -0.4917
24979SOL     OW80773   2.224   7.250   1.050  0.2222  0.4360  0.0615
24979SOL    HW180774   2.239   7.217   1.139 -0.8296 -1.2223 -0.3431
24979SOL    HW280775   2.210   7.344   1.062 -0.0197  0.2285  1.6600
24980SOL     OW80776  10.815   4.659   1.748 -0.5986  0.5185  0.4073
24980SOL    HW180777  10.903   4.632   1.776 -0.3096  0.6435 -0.3552
24980SOL    HW280778  10.758   4.634   1.821 -0.0352 -0.2097  0.6141
24981SOL     OW80779   1.191   2.454   2.577 -0.5376 -0.3456  0.2048
24981SOL    HW180780   1.191   2.454   2.673  1.2245  0.2196  0.2374
24981SOL    HW280781   1.143   2.534   2.554 -2.4385 -1.3173  0.5297
24982SOL     OW80782   8.847   9.556  11.548 -0.1323  0.0150  0.5778
24982SOL    HW180783   8.869   9.647  11.528 -1.5080  0.3716  0.5679
24982SOL    HW280784   8.924   9.522  11.594  1.8360  0.1176 -2.4091
24983SOL     OW80785  11.348   5.326   7.590  0.1503 -0.5037 -0.1707
24983SOL    HW180786  11.409   5.254   7.578  0.2721 -0.2749 -0.9816
24983SOL    HW280787  11.272   5.304   7.536  0.5444  0.3683 -1.1045
24984SOL     OW80788  10.554  10.138   3.828  0.3191  0.1677 -0.0619
24984SOL    HW180789  10.506  10.076   3.773  2.2946 -0.4815 -1.1326
24984SOL    HW280790  10.630  10.089   3.859  1.8980  1.9908 -0.8770
24985SOL     OW80791  10.178   7.067   6.343 -0.4297 -0.4545  0.4469
24985SOL    HW180792  10.112   7.108   6.288  0.3158  1.5482  0.9564
24985SOL    HW280793  10.259   7.071   6.292 -0.4146 -1.6598  0.3599
24986SOL     OW80794   1.048   8.031   7.516 -0.0475 -0.4687 -0.0668
24986SOL    HW180795   1.100   7.959   7.481  0.1435 -0.3150 -0.1062
24986SOL    HW280796   1.113   8.088   7.559 -0.4151 -1.3621  1.7810
24987SOL     OW80797   1.133   2.797  10.584 -0.0236 -0.2213 -0.0090
24987SOL    HW180798   1.058   2.825  10.532  0.3805  0.7726 -0.0811
24987SOL    HW280799   1.189   2.749  10.523 -0.8266 -1.3975  0.1643
24988SOL     OW80800   0.734   5.436   1.207 -0.0505 -0.4603 -0.0299
24988SOL    HW180801   0.672   5.444   1.134  0.1100 -1.0986 -0.2375
24988SOL    HW280802   0.691   5.376   1.268 -0.3545  0.3678  0.5892
24989SOL     OW80803   6.373   4.400   0.309  0.1665  0.5026  0.0198
24989SOL    HW180804   6.371   4.391   0.405  0.2204 -0.5609 -0.0719
24989SOL    HW280805   6.285   4.377   0.280  0.5094 -0.4481 -0.2838
24990SOL     OW80806   6.707  11.971   5.618  0.2652 -0.4569  0.5088
24990SOL    HW180807   6.616  11.998   5.606  0.1112 -1.3535 -0.5052
24990SOL    HW280808   6.703  11.896   5.677  0.5247  0.5495  1.8482
24991SOL     OW80809   0.900   2.709   7.129 -0.3653 -0.1177  0.1616
24991SOL    HW180810   0.914   2.700   7.223 -1.5907  0.5226  0.4232
24991SOL    HW280811   0.839   2.782   7.121 -0.1699 -0.0770 -1.1460
24992SOL     OW80812   7.286   3.841  10.159 -0.0823  0.0314 -0.0021
24992SOL    HW180813   7.327   3.759  10.187 -0.9408  0.2044  1.8971
24992SOL    HW280814   7.213   3.854  10.219 -0.9976  1.3551 -1.3181
24993SOL     OW80815   2.962   1.620  11.089  0.4147 -0.1165  0.2776
24993SOL    HW180816   3.004   1.706  11.100 -0.2033 -0.0338  2.4427
24993SOL    HW280817   2.872   1.640  11.064  0.2629 -0.1143  0.8091
24994SOL     OW80818  11.876   8.950  10.492  0.6004  0.1173 -0.4876
24994SOL    HW180819  11.901   9.003  10.417 -0.4355  0.2317 -0.7627
24994SOL    HW280820  11.782   8.937  10.483  0.1449  1.4761  1.6311
24995SOL     OW80821   3.063  10.799   3.587 -0.2397 -0.1885 -0.8194
24995SOL    HW180822   3.082  10.867   3.523  1.6909  0.8199  0.7403
24995SOL    HW280823   3.136  10.802   3.648 -2.3990 -0.4463  1.9889
24996SOL     OW80824   6.612   6.217   5.077 -0.3154 -0.0200  0.5703
24996SOL    HW180825   6.677   6.176   5.135  0.2572  0.9621  0.6399
24996SOL    HW280826   6.582   6.294   5.126 -1.6016 -0.4964  0.5715
24997SOL     OW80827   3.374   0.314   9.325  0.2577 -0.0882  0.6419
24997SOL    HW180828   3.420   0.276   9.400 -0.2956 -1.7644  0.1768
24997SOL    HW280829   3.288   0.338   9.358  1.0217  2.0259  1.2430
24998SOL     OW80830   7.794   5.442   6.632 -0.2922  0.0757  0.2793
24998SOL    HW180831   7.715   5.394   6.607 -1.2573  1.6748  0.1651
24998SOL    HW280832   7.770   5.485   6.715  0.8368 -0.2992  0.8161
24999SOL     OW80833   2.066   6.353   9.201 -0.5706 -0.8509 -0.1408
24999SOL    HW180834   1.991   6.405   9.231 -1.5387 -1.7986 -0.8476
24999SOL    HW280835   2.136   6.417   9.188 -1.3843  0.1181  0.1064
25000SOL     OW80836   7.383   6.533   8.955 -0.1743 -0.2011 -0.1771
25000SOL    HW180837   7.468   6.489   8.945 -0.6354 -0.8698 -1.4143
25000SOL    HW280838   7.322   6.478   8.906 -0.9812  1.2742 -0.8962
25001SOL     OW80839   9.539   0.083   0.368 -0.3387  0.2273  0.3537
25001SOL    HW180840   9.452   0.060   0.402 -0.1357 -0.5714  0.3444
25001SOL    HW280841   9.549   0.030   0.289 -1.8001  3.7558 -2.5165
25002SOL     OW80842  10.261  11.330   5.337 -0.0152 -0.1156  0.2400
25002SOL    HW180843  10.228  11.266   5.274  2.7580 -0.1888 -1.2996
25002SOL    HW280844  10.314  11.278   5.397  0.9981  0.5046 -0.1006
25003SOL     OW80845   9.104   9.975   9.054 -0.3411  0.1252  0.3274
25003SOL    HW180846   9.105  10.033   9.130 -0.4673  1.0839 -0.3923
25003SOL    HW280847   9.159   9.901   9.080 -1.4838 -0.2569  1.8729
25004SOL     OW80848   0.018   7.308   9.505 -0.5252 -0.3620  0.4272
25004SOL    HW180849   0.106   7.317   9.541 -0.3370 -0.9807  0.1220
25004SOL    HW280850   0.027   7.245   9.433 -1.4648 -1.5084  1.2721
25005SOL     OW80851   3.471   2.725   2.980  0.7027  0.4216 -0.3540
25005SOL    HW180852   3.444   2.807   2.939 -1.3390  1.1233  2.1672
25005SOL    HW280853   3.566   2.732   2.988  0.8677  1.3428 -2.5157
25006SOL     OW80854   8.128  10.849   3.645 -0.0657  0.3589  0.0652
25006SOL    HW180855   8.175  10.766   3.639 -0.1449  0.3520 -0.5339
25006SOL    HW280856   8.166  10.892   3.722 -0.4861 -0.5023  0.7624
25007SOL     OW80857   9.325  10.665   8.479 -0.0709  0.4942  0.1867
25007SOL    HW180858   9.315  10.725   8.405 -0.0647  1.7956  1.2109
25007SOL    HW280859   9.256  10.600   8.466  1.2621 -0.5797 -2.0996
25008SOL     OW80860  10.375  12.077   5.979 -0.1543  0.1427 -0.1640
25008SOL    HW180861  10.421  12.145   6.028 -1.2688  4.0013 -3.8770
25008SOL    HW280862  10.284  12.083   6.009 -0.1717 -0.0579 -0.1730
25009SOL     OW80863   7.193   9.048   0.245 -0.4982  0.2567 -0.4288
25009SOL    HW180864   7.269   9.044   0.186  0.0356  1.3190  0.1481
25009SOL    HW280865   7.167   9.140   0.243 -0.8376  0.1917  0.5285
25010SOL     OW80866   5.227   6.287   5.318  0.5255  0.2272  0.2949
25010SOL    HW180867   5.139   6.304   5.351  1.0613  1.2267  1.2957
25010SOL    HW280868   5.284   6.301   5.394  1.7300  1.7157 -0.8234
25011SOL     OW80869   6.566   5.451   9.082  0.6500  0.4854 -0.1782
25011SOL    HW180870   6.477   5.417   9.088 -0.5327  3.3097 -0.2926
25011SOL    HW280871   6.595   5.458   9.173  0.6674 -0.1893 -0.1289
25012SOL     OW80872   7.761   7.744  10.833 -0.6117 -0.2459  0.3345
25012SOL    HW180873   7.737   7.696  10.911 -0.2772 -0.7652  0.1239
25012SOL    HW280874   7.720   7.695  10.761 -0.6625  0.0509  0.1596
25013SOL     OW80875   5.363   6.166   9.558  0.1617 -0.0696  0.1655
25013SOL    HW180876   5.368   6.137   9.467 -0.3754  3.7095 -1.2921
25013SOL    HW280877   5.269   6.166   9.577  0.3025 -1.2394  0.8797
25014SOL     OW80878   6.128   4.192   7.964  0.3507  0.3619  0.0978
25014SOL    HW180879   6.067   4.131   7.925  1.1438  0.9071 -2.1181
25014SOL    HW280880   6.074   4.266   7.993 -0.2379  0.0140 -0.1074
25015SOL     OW80881   5.260   7.341  11.208  0.0148  0.2726  0.2590
25015SOL    HW180882   5.212   7.317  11.128 -1.6574  1.6106  0.7915
25015SOL    HW280883   5.352   7.330  11.185 -0.4519 -0.1073 -1.6162
25016SOL     OW80884   0.338   8.924  12.150 -0.3597  0.2190 -0.3717
25016SOL    HW180885   0.350   8.949  12.058 -0.2971  1.2149 -0.0986
25016SOL    HW280886   0.410   8.967  12.196 -0.0290 -0.7805  0.0695
25017SOL     OW80887   2.497   7.445   2.811  0.0881 -0.8663 -0.4698
25017SOL    HW180888   2.499   7.371   2.750  0.0249 -1.7689  0.5908
25017SOL    HW280889   2.413   7.436   2.855  1.3128 -2.0093  1.8363
25018SOL     OW80890  11.289   1.950  11.120  0.2002 -0.1938 -0.5397
25018SOL    HW180891  11.231   1.910  11.056  1.0855 -1.8028 -0.4088
25018SOL    HW280892  11.252   1.926  11.205  0.8651 -1.0042 -0.4590
25019SOL     OW80893   4.408  10.331   5.844 -0.1631  0.4925 -0.2218
25019SOL    HW180894   4.316  10.307   5.855 -0.4873  1.4900 -0.7112
25019SOL    HW280895   4.439  10.275   5.772 -0.7619  1.1306 -0.9825
25020SOL     OW80896   0.638   0.100   8.040 -0.0842 -0.3687  0.1582
25020SOL    HW180897   0.592   0.021   8.010 -0.3348 -0.1068 -0.1606
25020SOL    HW280898   0.729   0.086   8.014  0.0215 -0.8757  0.7618
25021SOL     OW80899   2.428  10.046   9.319  0.4626  0.5326 -0.2697
25021SOL    HW180900   2.513  10.046   9.274 -0.2868  1.8249 -1.7535
25021SOL    HW280901   2.399  10.137   9.315 -0.5471  0.2923  1.1171
25022SOL     OW80902  12.055  10.608   5.595 -0.1275 -0.3761  0.3888
25022SOL    HW180903  11.980  10.572   5.547 -2.9006  0.9782  3.3530
25022SOL    HW280904  12.110  10.532   5.614 -0.5933 -1.3981 -1.9384
25023SOL     OW80905   9.390   4.174   5.202  0.7113  0.2963  0.3499
25023SOL    HW180906   9.332   4.118   5.253 -0.2459  0.9519  0.0096
25023SOL    HW280907   9.356   4.170   5.113  0.6686  1.3455  0.3034
25024SOL     OW80908   0.110  10.424   0.168  0.1384 -0.2413 -0.4436
25024SOL    HW180909   0.091  10.374   0.088 -0.6842 -0.0221 -0.3949
25024SOL    HW280910   0.055  10.502   0.161  1.3184  0.6146 -0.4555
25025SOL     OW80911   3.210   7.253  11.235 -0.5527 -0.3243 -0.3672
25025SOL    HW180912   3.216   7.271  11.141 -0.6394 -1.4653 -0.6138
25025SOL    HW280913   3.208   7.157  11.240  0.1624 -0.2876  0.8441
25026SOL     OW80914   4.430   2.839   4.112  0.0297  0.4619 -0.1706
25026SOL    HW180915   4.395   2.902   4.175  0.9822  1.2491 -0.3979
25026SOL    HW280916   4.524   2.858   4.109 -0.1962  1.6791 -3.1535
25027SOL     OW80917  10.868   8.169  11.461 -0.2986  0.2868 -0.0434
25027SOL    HW180918  10.808   8.145  11.532  1.6582 -0.1407  1.5552
25027SOL    HW280919  10.819   8.151  11.381 -2.7370  1.1519  1.1637
25028SOL     OW80920   4.257   3.349   2.273  0.7597  0.0122  0.5270
25028SOL    HW180921   4.327   3.386   2.220 -0.9930 -0.8736 -2.7325
25028SOL    HW280922   4.180   3.403   2.254 -0.3291 -1.3505  0.8175
25029SOL     OW80923   9.712   3.349   0.719  0.4459 -0.5334  0.4876
25029SOL    HW180924   9.661   3.269   0.704 -2.4618  1.1897  0.3662
25029SOL    HW280925   9.797   3.331   0.678 -1.6716 -1.8667 -4.0548
25030SOL     OW80926   5.599   8.317   2.358  0.2055 -0.3651 -0.1080
25030SOL    HW180927   5.602   8.221   2.364 -0.2557 -0.3178  1.5125
25030SOL    HW280928   5.508   8.337   2.338 -0.2564 -0.2265  1.9223
25031SOL     OW80929  11.915   5.495   1.884 -0.2226  0.2722  0.3977
25031SOL    HW180930  11.961   5.544   1.952 -0.6872  0.9117  0.2628
25031SOL    HW280931  11.853   5.558   1.846  0.2395  0.0311 -0.8322
25032SOL     OW80932   2.620   8.594  10.549 -0.1761  0.2352  0.1819
25032SOL    HW180933   2.530   8.583  10.580 -0.1121  2.2280  1.2555
25032SOL    HW280934   2.674   8.581  10.626  0.2637  1.3617  0.0880
25033SOL     OW80935   1.393  11.791   6.876  0.6721 -0.3795  0.8035
25033SOL    HW180936   1.445  11.720   6.914 -0.4180 -1.4376  0.3425
25033SOL    HW280937   1.330  11.748   6.820 -1.6047  0.7627  2.3378
25034SOL     OW80938   4.591   4.883   4.777  0.0588 -0.4671  0.1012
25034SOL    HW180939   4.636   4.929   4.848 -0.8024  1.2627 -0.3979
25034SOL    HW280940   4.661   4.837   4.730  1.0926  0.8515  0.2785
25035SOL     OW80941   0.835   8.765   4.432 -0.2292  0.2823 -0.1966
25035SOL    HW180942   0.813   8.769   4.525 -1.2898  1.0509 -0.4585
25035SOL    HW280943   0.873   8.851   4.412  1.0142 -0.2567 -0.2487
25036SOL     OW80944  12.132   2.925   7.276  0.3335  0.1702  0.6190
25036SOL    HW180945  12.081   2.845   7.267 -3.3104  2.2692  0.8314
25036SOL    HW280946  12.132   2.943   7.370  1.9849 -0.0263  0.6872
25037SOL     OW80947  10.023   8.632   7.914  0.4610  0.4129  0.0014
25037SOL    HW180948   9.954   8.594   7.859 -0.1345  0.5262  0.6432
25037SOL    HW280949   9.989   8.623   8.003  0.3837  2.2517  0.1949
25038SOL     OW80950   6.449   7.467   0.683  0.2025 -0.0026 -0.3084
25038SOL    HW180951   6.459   7.531   0.613  0.6602 -0.7780 -0.9715
25038SOL    HW280952   6.391   7.400   0.645  0.1246 -0.2233  0.1980
25039SOL     OW80953   9.216   5.047   0.065  0.6933  0.2860 -0.6136
25039SOL    HW180954   9.142   5.021   0.011  1.0813 -1.5099 -0.3408
25039SOL    HW280955   9.177   5.073   0.149  0.3643 -0.8543 -0.3962
25040SOL     OW80956   6.559   5.139   0.114 -0.1917  0.3823  0.1923
25040SOL    HW180957   6.490   5.161   0.051  0.3801  1.0063 -0.2304
25040SOL    HW280958   6.516   5.142   0.199 -0.5461  1.3876 -0.0112
25041SOL     OW80959   0.495   5.473   4.732 -0.1462  0.0032 -0.0660
25041SOL    HW180960   0.414   5.522   4.739  0.0110  0.1827  0.6290
25041SOL    HW280961   0.524   5.461   4.823 -0.4611 -1.8547 -0.1627
25042SOL     OW80962   9.174  10.832   4.770  0.9007 -0.2354  0.2714
25042SOL    HW180963   9.241  10.859   4.707  0.2085  0.2237 -0.2819
25042SOL    HW280964   9.222  10.784   4.838  2.1577  2.0631  1.1155
25043SOL     OW80965   2.871   9.346  10.244 -0.1828 -0.4040 -0.4334
25043SOL    HW180966   2.900   9.343  10.152  0.7930 -0.6868 -0.1287
25043SOL    HW280967   2.940   9.395  10.288 -0.0312 -1.3354  0.3759
25044SOL     OW80968   7.058   5.210   6.074  0.4968  0.2234 -0.1677
25044SOL    HW180969   7.113   5.135   6.097 -0.9262 -0.2494  2.0634
25044SOL    HW280970   7.053   5.261   6.155 -0.2509  1.6214 -1.0645
25045SOL     OW80971   7.145   7.506   4.799 -0.0649  0.1602 -0.1080
25045SOL    HW180972   7.075   7.569   4.780 -0.4671 -0.6092 -1.2782
25045SOL    HW280973   7.204   7.553   4.858 -1.9832  0.5681  1.6279
25046SOL     OW80974   7.219   9.961   5.327  0.0861  0.1405 -0.2004
25046SOL    HW180975   7.165   9.967   5.406 -0.7455  0.8622 -0.7994
25046SOL    HW280976   7.237  10.053   5.304  0.6445 -0.0743 -0.6305
25047SOL     OW80977   2.905   4.170   5.190 -0.0413  0.3869  0.1597
25047SOL    HW180978   2.858   4.194   5.110 -0.1226  0.7359  0.3081
25047SOL    HW280979   2.996   4.161   5.163 -0.3216 -1.2359 -0.3247
25048SOL     OW80980   9.482  11.877   5.728 -0.7875  0.3041 -0.2287
25048SOL    HW180981   9.455  11.809   5.790 -0.3495  2.3808  2.4369
25048SOL    HW280982   9.528  11.830   5.659 -2.5282 -2.2983  0.2293
25049SOL     OW80983  10.988   2.633   0.340  0.0044  0.3234 -0.6695
25049SOL    HW180984  11.057   2.653   0.277  0.6064 -0.6959 -0.3677
25049SOL    HW280985  10.999   2.698   0.409  1.2388 -0.3422 -0.2073
25050SOL     OW80986   0.307   8.219  10.942 -0.4183 -0.5522  0.1908
25050SOL    HW180987   0.249   8.294  10.961 -0.1335 -0.3999  0.4597
25050SOL    HW280988   0.250   8.143  10.947 -0.6227 -0.3907  0.3317
25051SOL     OW80989   3.673  12.047   1.570  0.6286 -1.0190  0.4192
25051SOL    HW180990   3.605  12.112   1.584  0.5820 -0.9225 -0.2225
25051SOL    HW280991   3.746  12.097   1.533  0.3949 -1.4192 -0.5967
25052SOL     OW80992   6.364   0.089  10.710 -0.2124  0.3221  0.1986
25052SOL    HW180993   6.269   0.093  10.721 -0.4312  2.0266 -1.6869
25052SOL    HW280994   6.378   0.017  10.649 -0.1839 -0.4386  1.0744
25053SOL     OW80995   2.091   3.145   6.297  0.2006 -0.4699 -0.0022
25053SOL    HW180996   2.026   3.134   6.228  0.2456 -1.8740  0.1448
25053SOL    HW280997   2.099   3.058   6.336  0.6250  0.1574  1.3725
25054SOL     OW80998  11.488   3.388   8.238  0.1348  0.5034 -0.0175
25054SOL    HW180999  11.508   3.383   8.332  0.5451 -1.2891 -0.1719
25054SOL    HW281000  11.568   3.358   8.195 -1.2680 -2.4555 -0.7951
25055SOL     OW81001  10.989   1.971   4.457 -0.2598  0.6155  0.3815
25055SOL    HW181002  11.070   2.019   4.444 -0.0777  0.6422  1.5364
25055SOL    HW281003  11.012   1.879   4.440  0.5055  0.3639  2.5355
25056SOL     OW81004   0.367   6.302   1.896  0.4292 -0.1228  0.1590
25056SOL    HW181005   0.289   6.356   1.885  0.8270  0.5862  0.7519
25056SOL    HW281006   0.430   6.359   1.939  1.1720 -0.7861 -0.0227
25057SOL     OW81007  10.583   0.480   4.620 -0.1098 -0.0003 -0.9626
25057SOL    HW181008  10.597   0.572   4.643  0.5609 -0.0455 -1.1759
25057SOL    HW281009  10.670   0.448   4.596 -0.1703 -0.9349 -0.0228
25058SOL     OW81010   4.250   0.671   2.482  0.2323  0.4341 -0.4705
25058SOL    HW181011   4.165   0.655   2.524  0.2541  0.1201 -0.5439
25058SOL    HW281012   4.285   0.748   2.527  0.0267  0.4061 -0.2624
25059SOL     OW81013   4.162  10.763   5.478 -0.4038 -0.3777  0.4604
25059SOL    HW181014   4.241  10.796   5.521 -0.6471  0.1492  0.5148
25059SOL    HW281015   4.141  10.682   5.525 -0.5515  0.0831  1.2077
25060SOL     OW81016   5.205   5.035   2.087 -0.7550  0.3365 -0.0152
25060SOL    HW181017   5.243   5.123   2.083 -1.6509  0.6979 -1.0861
25060SOL    HW281018   5.263   4.982   2.031  0.2033  0.0563  1.2036
25061SOL     OW81019   2.873   5.000   6.190 -0.2350  0.1150 -0.7347
25061SOL    HW181020   2.943   5.055   6.154 -1.3400  2.3050  0.2761
25061SOL    HW281021   2.820   4.976   6.114  1.1884 -1.0275 -1.4207
25062SOL     OW81022   8.477   6.441   5.924 -0.1232  0.2625  0.4799
25062SOL    HW181023   8.393   6.416   5.885 -0.6028  1.9845  0.3245
25062SOL    HW281024   8.455   6.476   6.010  0.8307 -2.5357  1.9820
25063SOL     OW81025  12.309   3.459  10.270 -0.3989  0.4136 -0.5109
25063SOL    HW181026  12.376   3.484  10.205 -0.0088 -0.4018 -0.4334
25063SOL    HW281027  12.233   3.512  10.247 -0.0112  0.7063 -1.1584
25064SOL     OW81028  11.959   9.523  12.156 -0.0932 -0.4499  0.2170
25064SOL    HW181029  11.973   9.604  12.108  0.7762 -1.2154 -0.8786
25064SOL    HW281030  11.866   9.504  12.145 -0.1848  0.1060  0.0042
25065SOL     OW81031  10.355   9.498   4.377  0.1930 -0.2722  0.4492
25065SOL    HW181032  10.390   9.552   4.306 -0.1509  0.9196  1.1551
25065SOL    HW281033  10.431   9.449   4.409  0.5420 -0.1096 -0.1028
25066SOL     OW81034   9.657   9.456   6.987 -0.3303  0.4200  0.3148
25066SOL    HW181035   9.574   9.411   7.004 -0.1853  0.1623  0.3541
25066SOL    HW281036   9.645   9.543   7.025 -0.0208 -0.1336  1.7728
25067SOL     OW81037   9.858   2.422   5.069  0.0431  0.1609  0.1647
25067SOL    HW181038   9.794   2.390   5.133  0.9698  0.5103  1.2958
25067SOL    HW281039   9.805   2.450   4.995 -0.9663 -1.8377  0.0426
25068SOL     OW81040   4.456  11.045   3.637  0.2912  0.3593  0.0199
25068SOL    HW181041   4.545  11.071   3.658 -0.1484  0.9662  1.2225
25068SOL    HW281042   4.406  11.063   3.717 -0.9722  0.3440 -0.7363
25069SOL     OW81043   3.940   0.094   6.636  0.2745 -0.3627 -0.7719
25069SOL    HW181044   3.968   0.027   6.573 -0.8510 -0.3651 -1.2878
25069SOL    HW281045   3.896   0.045   6.706 -2.4576 -0.0873 -2.1653
25070SOL     OW81046   9.284   9.601   4.111 -0.4642 -0.2884 -0.2152
25070SOL    HW181047   9.330   9.591   4.027 -0.4707 -1.0589 -0.1305
25070SOL    HW281048   9.324   9.535   4.168 -0.6559  0.0433  0.3089
25071SOL     OW81049   8.023   3.789  12.208 -0.7070 -0.1632 -0.2846
25071SOL    HW181050   7.964   3.747  12.145 -1.1051  0.7531 -0.5480
25071SOL    HW281051   7.985   3.876  12.222 -0.3018 -0.1444  0.7860
25072SOL     OW81052  10.401  11.311   9.065 -0.6165  0.4499  0.3916
25072SOL    HW181053  10.469  11.292   9.000 -0.1825  0.8918  0.7038
25072SOL    HW281054  10.378  11.226   9.102  1.3578  0.4615  1.8428
25073SOL     OW81055   5.691   8.691   5.698 -0.1434 -0.2560 -0.5525
25073SOL    HW181056   5.619   8.702   5.636 -1.0809  1.7353  0.7798
25073SOL    HW281057   5.767   8.728   5.655 -0.8131  1.2241 -0.5230
25074SOL     OW81058  11.810   8.114   2.567 -0.5151  0.3487  0.9623
25074SOL    HW181059  11.729   8.074   2.600  0.1896 -1.5296  0.5334
25074SOL    HW281060  11.864   8.126   2.644  0.1984 -1.8437  0.8849
25075SOL     OW81061   3.119   2.707   7.167  0.1676  0.2605 -0.2122
25075SOL    HW181062   3.179   2.769   7.209  0.9955  1.1291 -2.5071
25075SOL    HW281063   3.040   2.711   7.220  0.3571  2.9726  0.0242
25076SOL     OW81064   0.590   0.991  10.220  0.1667  0.2682 -0.1278
25076SOL    HW181065   0.506   0.947  10.233  0.4388 -0.5096 -0.9257
25076SOL    HW281066   0.601   1.045  10.299 -0.7381 -0.1671  0.3121
25077SOL     OW81067   0.978   4.301  10.409  0.0729  0.1587  0.3824
25077SOL    HW181068   0.895   4.253  10.403 -1.1412  1.9811  1.5576
25077SOL    HW281069   1.037   4.242  10.456  0.0857 -1.8823 -1.9813
25078SOL     OW81070  11.160  10.212   5.278 -0.0092 -0.9049  0.5355
25078SOL    HW181071  11.141  10.125   5.313 -1.5644 -0.2441  1.4636
25078SOL    HW281072  11.090  10.268   5.313  0.9416  0.7251 -0.0308
25079SOL     OW81073   9.495   4.488   5.075  0.1106 -0.1772 -0.1188
25079SOL    HW181074   9.467   4.484   4.984 -0.2633 -0.5289  0.0083
25079SOL    HW281075   9.423   4.450   5.124  0.0247  0.6172  0.3888
25080SOL     OW81076   0.713   9.628   6.997 -0.3821 -0.2667  0.0518
25080SOL    HW181077   0.763   9.580   6.931  0.5554 -0.1729  0.6733
25080SOL    HW281078   0.722   9.720   6.973 -0.8199 -0.2922 -0.2149
25081SOL     OW81079   5.887   2.389   4.364 -0.0793 -0.3473  0.3691
25081SOL    HW181080   5.934   2.420   4.442  1.3949 -0.9859 -0.2233
25081SOL    HW281081   5.921   2.443   4.293 -1.5782  0.3806  0.1830
25082SOL     OW81082   6.771   3.195   0.969  0.0955 -0.8523 -0.6391
25082SOL    HW181083   6.744   3.121   1.024  0.6459 -0.0665  0.7229
25082SOL    HW281084   6.803   3.154   0.889 -0.9970 -2.0155 -0.5130
25083SOL     OW81085   9.090   6.374   4.407  0.4762  0.0495  0.3405
25083SOL    HW181086   9.035   6.407   4.478  0.9918 -0.6718  1.0931
25083SOL    HW281087   9.175   6.414   4.422  0.3888  0.4991 -0.3282
25084SOL     OW81088  10.219  11.796   4.909  0.6599  0.0612 -0.0835
25084SOL    HW181089  10.290  11.860   4.920  1.5594 -0.8192 -0.6523
25084SOL    HW281090  10.263  11.715   4.885 -0.6529 -0.0276 -2.4789
25085SOL     OW81091   7.229   4.355   9.120  0.3207 -0.0360 -0.5274
25085SOL    HW181092   7.174   4.330   9.046 -1.4570 -0.8745  0.9795
25085SOL    HW281093   7.188   4.434   9.155 -0.6319 -1.2309  1.2166
25086SOL     OW81094  11.643   0.081   6.079 -0.7250 -0.1471 -0.3560
25086SOL    HW181095  11.604   0.106   6.163  1.2889 -0.4401  0.7197
25086SOL    HW281096  11.619  -0.011   6.068  1.4539 -1.0277  1.4577
25087SOL     OW81097   7.240  11.990   3.145  0.0185  0.4137  0.6905
25087SOL    HW181098   7.179  12.056   3.180  0.9219  0.9050  1.3702
25087SOL    HW281099   7.189  11.909   3.145 -0.3658  0.6226  2.1536
25088SOL     OW81100   8.037  10.317  10.185 -0.6018 -0.1520 -0.9189
25088SOL    HW181101   8.063  10.242  10.239 -1.3752 -0.5733 -1.1156
25088SOL    HW281102   7.995  10.278  10.109  0.2495  0.4482 -1.7195
25089SOL     OW81103  12.135   0.006   4.341 -0.7742 -0.0174  0.1080
25089SOL    HW181104  12.087   0.061   4.279  0.7800  2.5421  1.0085
25089SOL    HW281105  12.181  -0.057   4.286 -0.9845  0.9132 -1.2070
25090SOL     OW81106  11.638   2.870   9.995  0.0650 -0.6252 -0.3739
25090SOL    HW181107  11.602   2.870   9.906 -2.5125  0.9150  0.5752
25090SOL    HW281108  11.633   2.778  10.022 -0.6853 -0.8544 -1.2286
25091SOL     OW81109   1.143   0.800   5.830  0.1152 -0.1642  0.4713
25091SOL    HW181110   1.164   0.837   5.915  0.4315  0.4872  0.1215
25091SOL    HW281111   1.089   0.867   5.787 -0.9087 -0.9163  0.5390
25092SOL     OW81112  11.282   6.302   3.598  0.6217 -0.0748  0.2484
25092SOL    HW181113  11.231   6.296   3.678  0.1762 -0.0067 -0.0262
25092SOL    HW281114  11.367   6.264   3.620  0.4483 -0.1956  0.7060
25093SOL     OW81115   5.090   8.261  11.053  0.8163  0.0436 -0.0438
25093SOL    HW181116   5.155   8.205  11.095  1.0813 -0.4194 -1.0584
25093SOL    HW281117   5.006   8.221  11.075  0.9634 -0.3214 -0.1435
25094SOL     OW81118   7.703   4.534   3.403 -0.0248 -0.4319  0.4516
25094SOL    HW181119   7.781   4.496   3.444 -0.3172 -2.2872 -0.6389
25094SOL    HW281120   7.649   4.459   3.379 -1.1077  0.7299 -0.8786
25095SOL     OW81121   3.009   7.906   1.660  0.1919  0.1622  0.8795
25095SOL    HW181122   2.925   7.894   1.615  0.7060  0.5881 -0.2316
25095SOL    HW281123   3.028   7.821   1.699  0.5986 -0.8218 -1.2877
25096SOL     OW81124  10.392   7.177   3.355 -0.0438  0.1381  0.1122
25096SOL    HW181125  10.304   7.203   3.380  0.0015 -0.5322  1.0288
25096SOL    HW281126  10.446   7.254   3.373 -0.4624  0.5941 -0.5851
25097SOL     OW81127  11.572  11.085   9.561  0.4922 -0.2151 -0.4876
25097SOL    HW181128  11.659  11.126   9.564  0.2056  0.3459  0.6265
25097SOL    HW281129  11.539  11.107   9.474  0.8761  0.8451 -0.3843
25098SOL     OW81130   3.546   9.377  10.180 -0.2920  0.0838  0.2316
25098SOL    HW181131   3.470   9.433  10.165  0.1845  0.7604  0.3338
25098SOL    HW281132   3.568   9.390  10.272 -1.6191 -2.0906  0.9637
25099SOL     OW81133  11.341   6.584   5.573 -0.4250 -0.0173 -0.2793
25099SOL    HW181134  11.282   6.534   5.516 -0.6802  0.9588 -0.8989
25099SOL    HW281135  11.387   6.518   5.625 -0.2385 -0.9213 -1.5704
25100SOL     OW81136  12.140   3.859  12.292 -0.8953  0.0803 -0.1238
25100SOL    HW181137  12.161   3.911  12.215 -0.0056  0.1223  0.1398
25100SOL    HW281138  12.058   3.898  12.325 -1.6914 -0.4049 -1.4452
25101SOL     OW81139  10.000  10.187   1.525 -0.6501  0.3784 -0.1058
25101SOL    HW181140  10.045  10.103   1.534 -0.8267  0.1502 -1.1939
25101SOL    HW281141   9.927  10.182   1.587  0.3669  0.4548  1.1295
25102SOL     OW81142   7.517   9.938  10.585  0.7168  0.4380 -0.0209
25102SOL    HW181143   7.449   9.912  10.523  0.1957  1.4384  0.1188
25102SOL    HW281144   7.590   9.878  10.566  0.0154 -0.2691 -0.5560
25103SOL     OW81145   3.103   0.950   9.978 -0.0243 -0.2604  0.2432
25103SOL    HW181146   3.122   1.006   9.903 -0.6897 -0.1296  0.1655
25103SOL    HW281147   3.153   0.870   9.962  2.2385  0.8820  1.1424
25104SOL     OW81148   8.219   1.090  12.252 -0.1292  0.9097 -0.1101
25104SOL    HW181149   8.125   1.073  12.260  0.1333 -0.5097  0.4033
25104SOL    HW281150   8.254   1.071  12.339  0.7348  0.5824 -0.5146
25105SOL     OW81151   6.973   1.315   1.134  0.0123 -0.0668 -0.0375
25105SOL    HW181152   6.943   1.293   1.045 -0.8587  0.7063  0.0476
25105SOL    HW281153   6.903   1.282   1.191 -0.3796  1.1577  0.2180
25106SOL     OW81154   4.887  11.354   3.879 -0.2501  0.0361 -0.1898
25106SOL    HW181155   4.938  11.288   3.925  1.5118 -0.1379 -2.2415
25106SOL    HW281156   4.819  11.380   3.942  1.9806 -0.1457  2.4973
25107SOL     OW81157  11.593   5.824   9.259 -0.1637  0.1073  0.0502
25107SOL    HW181158  11.606   5.891   9.326  0.5303  1.0459 -0.9706
25107SOL    HW281159  11.635   5.746   9.294  2.4471  1.2538 -0.2970
25108SOL     OW81160   3.262   3.004  12.179  0.9745  0.7354 -0.2342
25108SOL    HW181161   3.348   3.046  12.184  1.2535  0.2257 -0.7010
25108SOL    HW281162   3.268   2.944  12.105  0.5685 -0.1037  0.3921
25109SOL     OW81163  11.541   6.753   6.354  0.0730  0.0504 -0.2600
25109SOL    HW181164  11.587   6.732   6.435 -2.7943 -0.5376  1.3586
25109SOL    HW281165  11.530   6.848   6.357 -0.6399 -0.0405  0.4495
25110SOL     OW81166   8.617  10.571   1.737  0.0865 -0.1850 -0.2508
25110SOL    HW181167   8.521  10.562   1.737  0.1088 -1.0431  1.9441
25110SOL    HW281168   8.646  10.511   1.669 -0.8974 -0.6915 -0.2513
25111SOL     OW81169   4.578   5.180   3.299 -0.7168  0.1337 -0.0037
25111SOL    HW181170   4.537   5.240   3.361 -1.6303  2.4671 -2.6233
25111SOL    HW281171   4.657   5.226   3.270  0.2180 -1.3427  0.1101
25112SOL     OW81172   6.979   9.820   9.886 -0.3040  0.1585  0.2707
25112SOL    HW181173   6.928   9.752   9.930 -0.7487  0.1201 -0.2984
25112SOL    HW281174   7.063   9.821   9.933 -0.5636 -0.2735  0.7489
25113SOL     OW81175   1.690   2.851   0.932  0.3833  0.4874  0.5102
25113SOL    HW181176   1.594   2.856   0.925 -0.1125 -0.3880  4.2176
25113SOL    HW281177   1.712   2.763   0.902 -0.1356  0.3341  0.5683
25114SOL     OW81178   8.370   8.895   5.514  0.3359 -0.3222  0.0718
25114SOL    HW181179   8.407   8.979   5.486  0.5946 -0.4749 -0.0497
25114SOL    HW281180   8.305   8.875   5.447  0.2505 -0.2028  0.1183
25115SOL     OW81181   1.638   6.794  11.252  0.4700  0.2380  0.1723
25115SOL    HW181182   1.611   6.876  11.293 -1.7558 -0.7588  0.8422
25115SOL    HW281183   1.660   6.819  11.162  1.0398  1.7391  0.6914
25116SOL     OW81184   7.336   0.332   2.619 -0.0799  0.2524 -0.2492
25116SOL    HW181185   7.271   0.262   2.626  0.0617  0.2150  1.0525
25116SOL    HW281186   7.286   0.413   2.631 -0.1055  0.3286 -0.8262
25117SOL     OW81187   8.232   7.001   7.513 -0.1808  0.9948  0.6330
25117SOL    HW181188   8.146   6.967   7.537 -0.0605 -0.8653 -1.3052
25117SOL    HW281189   8.215   7.059   7.438  0.3847 -1.1279 -1.2412
25118SOL     OW81190   2.675   9.355   7.440 -0.1765 -0.0578 -0.5017
25118SOL    HW181191   2.720   9.406   7.507 -1.2625 -1.5324  1.4174
25118SOL    HW281192   2.725   9.274   7.433 -1.0069 -0.5938 -0.2874
25119SOL     OW81193   1.927   2.885   9.835  0.1210 -0.2241 -0.3037
25119SOL    HW181194   1.897   2.794   9.835  2.1210 -0.9575  0.6063
25119SOL    HW281195   1.984   2.892   9.758  1.9840 -0.5485  0.9690
25120SOL     OW81196   9.710   7.889  11.642  0.4811  0.1590 -0.0218
25120SOL    HW181197   9.769   7.815  11.652 -0.2676 -0.5840 -0.9337
25120SOL    HW281198   9.655   7.887  11.721  0.2291 -0.4761 -0.2130
25121SOL     OW81199  10.906   5.020   4.357 -0.1685 -0.0314  0.2909
25121SOL    HW181200  10.883   5.082   4.287  0.4017  1.3012  1.2433
25121SOL    HW281201  10.881   4.934   4.322 -2.4151  0.8621 -0.4710
25122SOL     OW81202   6.664   1.026   0.355  0.0759  0.3095  0.4306
25122SOL    HW181203   6.636   1.066   0.273  0.0707  1.8758  1.1642
25122SOL    HW281204   6.594   1.046   0.417 -0.4696 -1.8345  0.5794
25123SOL     OW81205   0.233   5.930   0.649 -0.5661  0.6089 -0.6806
25123SOL    HW181206   0.182   5.889   0.580 -1.3093  0.3848 -0.0101
25123SOL    HW281207   0.168   5.967   0.709  0.0658  0.9577 -0.1892
25124SOL     OW81208   8.743  11.742   7.421 -0.5524  0.0806  0.5819
25124SOL    HW181209   8.757  11.707   7.334  0.9753  1.1302  0.3705
25124SOL    HW281210   8.648  11.738   7.434 -0.8221  0.1033 -1.2085
25125SOL     OW81211   9.261  10.219   6.122 -0.1367 -0.0269 -0.4483
25125SOL    HW181212   9.273  10.135   6.078  0.5973 -0.7751  1.0736
25125SOL    HW281213   9.261  10.196   6.216 -1.8220  1.4386 -0.0454
25126SOL     OW81214   1.457   0.158   8.945 -0.2730  0.1357 -0.8686
25126SOL    HW181215   1.499   0.231   8.992 -0.1818  1.8946 -3.4429
25126SOL    HW281216   1.364   0.181   8.943 -0.7379 -1.4090  0.8579
25127SOL     OW81217   6.664   3.762   9.402  0.1959  0.0791 -0.8797
25127SOL    HW181218   6.636   3.675   9.432 -1.1299 -0.5416 -3.5270
25127SOL    HW281219   6.654   3.818   9.478 -1.6891 -1.5529  0.1883
25128SOL     OW81220   3.454   9.793  10.061  0.4700  0.5994 -0.3559
25128SOL    HW181221   3.513   9.757  10.126 -0.8525  0.1459  0.6395
25128SOL    HW281222   3.382   9.831  10.112 -1.9502 -2.0720 -1.4956
25129SOL     OW81223   1.065   4.635   7.386  0.1374 -0.3376 -0.4840
25129SOL    HW181224   1.095   4.646   7.476  0.9858 -1.8714 -0.5485
25129SOL    HW281225   1.039   4.723   7.359 -0.2425  0.1438  1.2779
25130SOL     OW81226   0.684   8.665  10.991  0.2156  0.0605 -0.1701
25130SOL    HW181227   0.778   8.677  10.980 -0.0175  2.1777 -0.3286
25130SOL    HW281228   0.650   8.662  10.902  0.0931 -0.4600 -0.1096
25131SOL     OW81229   9.412   4.758   7.537 -0.1370  0.1395 -0.2301
25131SOL    HW181230   9.502   4.790   7.524 -0.3640  0.3889 -1.3687
25131SOL    HW281231   9.422   4.668   7.566  0.5000 -0.4262 -2.0757
25132SOL     OW81232   4.968   0.157  11.249  0.0244  0.1072  0.3425
25132SOL    HW181233   4.899   0.152  11.315  0.1350  1.4466  0.5897
25132SOL    HW281234   4.922   0.182  11.168 -0.0304 -0.9419  0.0367
25133SOL     OW81235   5.152  11.505   5.524 -0.3681 -0.1022 -0.4377
25133SOL    HW181236   5.175  11.585   5.477  0.0260 -0.8197 -1.4908
25133SOL    HW281237   5.056  11.501   5.518 -0.4289  0.4912 -0.0225
25134SOL     OW81238   7.104   3.030   6.009 -0.0850  0.4048 -0.3222
25134SOL    HW181239   7.062   3.115   6.002 -2.4357 -0.5584  1.1778
25134SOL    HW281240   7.107   3.011   6.102  2.6063 -0.1932 -0.4299
25135SOL     OW81241   9.425   0.447   4.066  0.3612  0.6271 -0.5786
25135SOL    HW181242   9.397   0.539   4.057  0.0118  0.5372 -0.4560
25135SOL    HW281243   9.457   0.423   3.979  1.1694  1.0922 -0.4189
25136SOL     OW81244   8.168   7.842   8.425 -0.2652  0.0462 -0.1540
25136SOL    HW181245   8.139   7.762   8.468 -1.3533  1.8404  2.6978
25136SOL    HW281246   8.264   7.834   8.423 -0.2742 -0.8182  1.2508
25137SOL     OW81247   6.085   3.086   4.528 -0.4562 -0.1073  0.2722
25137SOL    HW181248   6.159   3.038   4.565  0.1424  0.2667 -0.3912
25137SOL    HW281249   6.020   3.019   4.508 -1.1399 -0.2340  2.7144
25138SOL     OW81250   3.906   8.912  12.311  0.1036 -0.7639  0.2638
25138SOL    HW181251   3.985   8.941  12.356  0.4991 -1.0948 -0.2099
25138SOL    HW281252   3.937   8.849  12.246 -0.2662  0.8472 -1.5567
25139SOL     OW81253  10.160   4.002   4.034  0.1087 -0.1540 -0.2595
25139SOL    HW181254  10.066   3.989   4.036  0.2418 -1.4426 -1.2280
25139SOL    HW281255  10.197   3.914   4.044  1.1569  0.0507 -1.9508
25140SOL     OW81256   0.464   2.601   1.238 -0.9111  0.4549  0.7883
25140SOL    HW181257   0.500   2.674   1.189 -1.7143 -0.0601 -0.6212
25140SOL    HW281258   0.433   2.639   1.320  0.2283  1.3761  0.8115
25141SOL     OW81259   6.227   2.082   3.860  0.4339  0.2287 -0.0452
25141SOL    HW181260   6.196   2.017   3.922 -0.5139  0.0974 -0.6466
25141SOL    HW281261   6.302   2.123   3.904 -0.2299  0.1583  1.1910
25142SOL     OW81262   0.303   1.291   5.049 -0.1276 -0.6251  0.5867
25142SOL    HW181263   0.211   1.302   5.028 -0.0006 -1.1577 -0.2828
25142SOL    HW281264   0.349   1.305   4.966  0.4187 -2.2981  0.5745
25143SOL     OW81265   9.831   9.059   2.129 -0.4638  0.2680  0.0089
25143SOL    HW181266   9.787   9.120   2.069  1.0859  0.8325 -0.5907
25143SOL    HW281267   9.924   9.075   2.116 -0.0197 -1.8334  0.2764
25144SOL     OW81268   7.141   8.582   4.406 -0.3639 -0.3301  0.3387
25144SOL    HW181269   7.183   8.496   4.407  0.1611 -0.0872  1.7349
25144SOL    HW281270   7.054   8.566   4.368 -0.0012 -1.3242 -0.1117
25145SOL     OW81271  12.031  12.153   2.762 -0.4159  0.2418  0.7604
25145SOL    HW181272  12.027  12.211   2.686  1.0094 -0.8871 -0.2341
25145SOL    HW281273  11.949  12.103   2.758 -1.1228  1.3615  0.9633
25146SOL     OW81274  11.866   8.102   4.725  0.0130 -0.0319  0.3353
25146SOL    HW181275  11.811   8.067   4.795 -1.5450  0.3996 -0.6030
25146SOL    HW281276  11.942   8.045   4.722 -0.9169 -1.3490  0.9786
25147SOL     OW81277   3.372   7.637   1.940 -0.0691  0.0644  0.0735
25147SOL    HW181278   3.282   7.653   1.912  0.0509  2.1513  0.6827
25147SOL    HW281279   3.396   7.716   1.990  2.1918 -0.3077 -0.3085
25148SOL     OW81280   9.857   8.495   6.234 -0.6001 -0.1324  0.5494
25148SOL    HW181281   9.806   8.546   6.297 -0.3727  0.0637  0.5774
25148SOL    HW281282   9.865   8.553   6.158 -0.0332  0.0135  0.7173
25149SOL     OW81283   8.941   4.891   6.902  0.2610  0.3126 -1.1524
25149SOL    HW181284   8.876   4.918   6.838 -1.8323  0.8232  1.0745
25149SOL    HW281285   8.928   4.949   6.977  2.0541 -0.7732  0.0968
25150SOL     OW81286   4.252   0.999   6.238  0.3776 -0.4770 -0.5405
25150SOL    HW181287   4.208   0.914   6.242 -0.9283  0.1945  2.3336
25150SOL    HW281288   4.319   0.995   6.306  1.4539  0.2455 -1.5161
25151SOL     OW81289   4.243   5.741   6.256 -0.3561  0.3688  0.1210
25151SOL    HW181290   4.185   5.716   6.328 -0.2609 -2.0343 -0.5603
25151SOL    HW281291   4.209   5.693   6.180  1.9318 -0.3726 -0.5058
25152SOL     OW81292   1.949   8.261   3.042  0.2700 -0.1148  0.0379
25152SOL    HW181293   1.973   8.326   2.976 -1.6264  1.9905  1.2907
25152SOL    HW281294   2.033   8.232   3.079  1.1702  2.5207  0.2484
25153SOL     OW81295   3.289   1.407   7.777  0.0251  0.1474 -0.2898
25153SOL    HW181296   3.218   1.351   7.744 -2.0004  1.2703  1.8419
25153SOL    HW281297   3.285   1.485   7.722 -1.4478  0.8141  0.6799
25154SOL     OW81298   8.727   7.533  11.845 -0.3250 -0.4052  0.0273
25154SOL    HW181299   8.688   7.446  11.849  1.0494 -1.1957 -1.8497
25154SOL    HW281300   8.685   7.582  11.915 -1.3119 -2.5049  0.9937
25155SOL     OW81301  10.659  10.915  10.696 -0.0236 -0.1456 -0.1603
25155SOL    HW181302  10.650  10.944  10.605  3.0997  0.4925 -0.3650
25155SOL    HW281303  10.659  10.997  10.746 -0.6233 -0.4324  0.3181
25156SOL     OW81304   3.722  12.263   5.350  0.3079 -0.3549 -0.0419
25156SOL    HW181305   3.646  12.207   5.367  0.1043 -0.2153 -0.4727
25156SOL    HW281306   3.696  12.315   5.274  1.3310 -1.2434 -1.0319
25157SOL     OW81307   0.059   3.230   8.931  0.4368  0.0103 -0.1745
25157SOL    HW181308   0.023   3.209   9.017  0.3423  2.5758  0.5125
25157SOL    HW281309  -0.017   3.250   8.876  0.5791  1.4146  0.0939
25158SOL     OW81310   8.901   6.972   4.220 -0.4514  0.2581  0.2177
25158SOL    HW181311   8.923   7.059   4.253  0.6878  0.3969 -0.8180
25158SOL    HW281312   8.809   6.960   4.241 -0.2726  1.1257  1.6359
25159SOL     OW81313   8.439   5.421   5.530  0.3806 -0.0719  0.5886
25159SOL    HW181314   8.418   5.483   5.600  0.9099  0.4318  0.3134
25159SOL    HW281315   8.438   5.474   5.450  0.1430 -0.5670  0.2566
25160SOL     OW81316   3.730   5.264  11.466 -0.3634  0.1336  0.0369
25160SOL    HW181317   3.818   5.293  11.444 -0.2427 -0.2199  0.0514
25160SOL    HW281318   3.718   5.184  11.415 -0.3477 -0.3025  0.7124
25161SOL     OW81319   6.093   1.186   0.268 -0.0977  0.1854  0.5448
25161SOL    HW181320   6.043   1.259   0.304  0.4156  0.4614  0.7034
25161SOL    HW281321   6.078   1.114   0.328 -0.8342  0.0752  0.2370
25162SOL     OW81322   8.636   0.044   1.906  0.3089 -0.0394  0.2951
25162SOL    HW181323   8.545   0.073   1.919  0.7287  1.1732  0.6331
25162SOL    HW281324   8.650   0.056   1.812 -0.5269 -2.2453 -0.1632
25163SOL     OW81325   3.843  11.288   6.619  0.0388  0.4681  0.5490
25163SOL    HW181326   3.808  11.200   6.605  0.1039  0.7093 -1.5341
25163SOL    HW281327   3.813  11.313   6.706 -0.2997 -1.4612  1.0175
25164SOL     OW81328  11.389  10.446   5.839  0.4130  0.5772 -0.2643
25164SOL    HW181329  11.357  10.527   5.878  0.1165  0.4522 -0.2461
25164SOL    HW281330  11.315  10.386   5.845  0.5150  0.4194 -0.6140
25165SOL     OW81331   6.304   6.652   4.288  0.6575  0.1743 -0.1851
25165SOL    HW181332   6.314   6.729   4.232 -2.0902  1.5933  1.0902
25165SOL    HW281333   6.322   6.685   4.376 -2.9153  0.1195  0.7060
25166SOL     OW81334  11.306   0.976   5.453 -0.2273  0.4412  0.4773
25166SOL    HW181335  11.366   0.994   5.381 -2.4595 -1.1553 -1.9465
25166SOL    HW281336  11.360   0.931   5.518  1.5074  0.4304 -0.9082
25167SOL     OW81337   5.878  11.375  10.648 -0.6144  0.2586  0.5250
25167SOL    HW181338   5.935  11.450  10.629  0.7323 -0.7778  0.3755
25167SOL    HW281339   5.900  11.350  10.738 -1.2743  0.2087  0.6824
25168SOL     OW81340   5.446   2.077   4.311 -0.2510  0.2099 -0.4472
25168SOL    HW181341   5.468   2.015   4.381 -0.6403  1.7230  1.0799
25168SOL    HW281342   5.518   2.139   4.309 -1.0207  1.1333 -0.2464
25169SOL     OW81343   2.060  11.159  10.310 -0.4677  0.0025  0.1277
25169SOL    HW181344   2.009  11.202  10.378  0.9159  1.4074  0.3418
25169SOL    HW281345   2.041  11.209  10.231  0.9972  0.9948  0.3406
25170SOL     OW81346   8.217   7.632   9.659 -0.0500 -0.5393 -1.2555
25170SOL    HW181347   8.255   7.555   9.701 -0.1628 -0.9102 -1.8101
25170SOL    HW281348   8.122   7.619   9.668 -0.0925 -0.9287 -2.1276
25171SOL     OW81349   0.866   4.195   6.919 -0.2350 -0.9321  0.0064
25171SOL    HW181350   0.793   4.137   6.897  0.0411 -1.5420  0.6588
25171SOL    HW281351   0.937   4.167   6.862 -0.2498 -0.9127 -0.0217
25172SOL     OW81352   0.232   7.348  12.200 -0.0406 -0.0572  0.7082
25172SOL    HW181353   0.278   7.414  12.253  0.8363  1.0298 -1.3045
25172SOL    HW281354   0.140   7.370  12.210  0.1989  1.0576  0.6169
25173SOL     OW81355   2.596   7.157  12.264  0.9151 -0.0253  0.2200
25173SOL    HW181356   2.532   7.227  12.282  0.8794  0.0253 -0.0985
25173SOL    HW281357   2.564   7.083  12.315  1.1022  0.2707  0.7739
25174SOL     OW81358   5.331   5.675  11.953  0.4371  0.2773 -0.0036
25174SOL    HW181359   5.344   5.695  12.046  0.3088 -1.9419  0.5397
25174SOL    HW281360   5.298   5.757  11.915 -0.1288  1.0511  2.0350
25175SOL     OW81361   6.875   2.329   4.742 -0.2826 -0.3086  0.6076
25175SOL    HW181362   6.814   2.359   4.674 -1.5396 -2.1070  0.8384
25175SOL    HW281363   6.832   2.353   4.824  0.7427  0.9487  0.8059
25176SOL     OW81364   5.167  11.706   1.261  0.1268 -0.3057 -0.6070
25176SOL    HW181365   5.218  11.714   1.181  0.7825  0.5025 -0.1198
25176SOL    HW281366   5.194  11.622   1.298  0.6950 -0.1328 -0.6313
25177SOL     OW81367   7.877   3.614   1.036  0.3916  0.5619  0.1084
25177SOL    HW181368   7.890   3.663   1.118 -2.6066  0.7525  0.6070
25177SOL    HW281369   7.810   3.663   0.989 -0.5730 -1.4499 -0.7615
25178SOL     OW81370   6.434   8.272   6.058 -0.3150 -0.2265 -0.0472
25178SOL    HW181371   6.390   8.341   6.008 -0.1420  0.1982  0.3786
25178SOL    HW281372   6.523   8.305   6.071 -0.3248 -0.3889  0.4350
25179SOL     OW81373   0.572   8.195  11.720 -0.1895 -0.0924 -0.4262
25179SOL    HW181374   0.478   8.188  11.738 -0.3932  1.7339 -0.5688
25179SOL    HW281375   0.583   8.285  11.689  1.2885 -0.9098 -2.4342
25180SOL     OW81376   3.402   5.201   6.525  0.0745 -0.0938  0.3314
25180SOL    HW181377   3.438   5.152   6.450 -2.1196  1.0558 -1.5974
25180SOL    HW281378   3.412   5.141   6.599  2.1303 -1.3840 -0.8756
25181SOL     OW81379   0.266   8.858   4.141  0.0687 -0.1955 -0.0191
25181SOL    HW181380   0.212   8.792   4.183  0.0220 -1.2863 -1.6910
25181SOL    HW281381   0.348   8.858   4.191 -0.5116 -0.3714  0.9493
25182SOL     OW81382   5.170  10.026  10.985  0.1164 -0.1955 -0.4009
25182SOL    HW181383   5.088  10.076  10.976 -0.3393 -0.9757 -0.6460
25182SOL    HW281384   5.189   9.996  10.896  1.2925  0.9156 -0.5673
25183SOL     OW81385   5.371   8.566   0.328 -0.1550  0.0229 -0.0246
25183SOL    HW181386   5.453   8.520   0.314  1.1582  2.0700  0.4910
25183SOL    HW281387   5.305   8.497   0.335  1.6244 -1.7131  0.3623
25184SOL     OW81388   5.544   1.032   8.088 -0.0417  0.5450 -0.0077
25184SOL    HW181389   5.465   1.028   8.142 -0.2957 -1.2448 -0.4378
25184SOL    HW281390   5.608   0.978   8.134  1.4215  2.9615  0.9827
25185SOL     OW81391   9.435   7.996  12.248  0.3322  0.1951 -0.2935
25185SOL    HW181392   9.496   8.056  12.291 -0.5516  1.3114 -0.5516
25185SOL    HW281393   9.479   7.910  12.252  0.9923  0.5756  1.3345
25186SOL     OW81394  10.941  11.363   4.786 -0.1095  0.0227 -0.8403
25186SOL    HW181395  10.971  11.399   4.870 -0.3532 -0.3669 -0.5825
25186SOL    HW281396  10.899  11.281   4.809  0.6533 -0.5545 -1.4404
25187SOL     OW81397   2.848   1.380   4.439 -0.3648  0.2749 -0.1274
25187SOL    HW181398   2.916   1.420   4.494 -0.5857  0.6894 -0.1561
25187SOL    HW281399   2.891   1.302   4.402  0.0917  0.5198 -0.1291
25188SOL     OW81400  11.007  11.558   8.736 -0.2622  0.8161  0.2567
25188SOL    HW181401  10.966  11.642   8.715 -0.3698  0.9049  0.8119
25188SOL    HW281402  10.937  11.507   8.777 -0.0474  0.6629  0.4362
25189SOL     OW81403  11.084   1.463   4.048 -0.1382 -0.2824  0.0893
25189SOL    HW181404  11.092   1.548   4.091 -0.8514 -0.4346  0.5401
25189SOL    HW281405  11.128   1.402   4.107 -0.1493 -0.3163  0.0623
25190SOL     OW81406   3.309   5.186  10.026 -0.0607  0.3062  0.4093
25190SOL    HW181407   3.395   5.214   9.997 -0.0680  0.5848  0.6512
25190SOL    HW281408   3.248   5.234   9.970 -0.0625 -1.7586 -1.5042
25191SOL     OW81409   1.268   0.658   6.082 -0.4280 -0.7502  0.5698
25191SOL    HW181410   1.214   0.588   6.119  0.1567 -1.3045  0.3836
25191SOL    HW281411   1.273   0.724   6.151 -1.1787 -0.7778  0.6596
25192SOL     OW81412   1.861   3.479   0.226 -0.1721  0.0169  0.1224
25192SOL    HW181413   1.910   3.546   0.179  2.1621 -2.7125 -1.7157
25192SOL    HW281414   1.927   3.438   0.284 -1.4625 -0.7830  1.0859
25193SOL     OW81415   1.619   4.247   6.917  0.6615  0.2016 -0.2046
25193SOL    HW181416   1.614   4.247   7.013  1.1157 -0.6794 -0.1681
25193SOL    HW281417   1.596   4.336   6.892  3.0950  1.2520  0.8693
25194SOL     OW81418   3.912   3.290  12.319 -0.0384 -0.0495 -0.1846
25194SOL    HW181419   3.854   3.216  12.338  2.3528 -0.9533  5.4742
25194SOL    HW281420   3.985   3.252  12.270  0.1014 -0.9960  0.7271
25195SOL     OW81421  11.505   5.113   7.483 -0.4515  0.4282 -0.0179
25195SOL    HW181422  11.463   5.087   7.401 -1.5691 -1.7361  1.1708
25195SOL    HW281423  11.599   5.110   7.464 -0.7027  0.1993 -1.2738
25196SOL     OW81424   8.990   0.950   0.495 -0.1903  0.0301 -0.2530
25196SOL    HW181425   9.054   1.008   0.455 -0.5383  0.5930 -0.0020
25196SOL    HW281426   8.927   0.931   0.426  0.0135 -0.1922 -0.3820
25197SOL     OW81427   2.743   0.080  10.092 -0.1859  0.2094 -0.1161
25197SOL    HW181428   2.735  -0.014  10.110  0.5652  0.4091  1.4073
25197SOL    HW281429   2.688   0.121  10.158  0.6196  0.8905  0.1482
25198SOL     OW81430   1.806   5.174   7.975  0.1362 -0.0402 -0.3589
25198SOL    HW181431   1.831   5.125   7.897 -0.5728 -0.5741 -0.2529
25198SOL    HW281432   1.890   5.193   8.018  0.5582  0.5800 -1.4241
25199SOL     OW81433  11.193  10.742  10.520  0.7663  0.4162 -0.2547
25199SOL    HW181434  11.201  10.752  10.425  0.0780 -2.1983 -0.6691
25199SOL    HW281435  11.270  10.692  10.546  0.4415  0.2393  0.3942
25200SOL     OW81436   4.778  11.434   0.274  0.5111  0.1229 -0.0582
25200SOL    HW181437   4.821  11.349   0.260  0.9657  0.1664  1.0141
25200SOL    HW281438   4.848  11.492   0.303  0.8544  1.7424 -3.6575
25201SOL     OW81439   1.036   4.743   1.874  0.1887 -0.6163 -0.0429
25201SOL    HW181440   1.001   4.832   1.882  1.0793 -0.1744 -0.8962
25201SOL    HW281441   1.008   4.714   1.787  1.8856 -0.2518 -0.7539
25202SOL     OW81442   3.379   8.874   9.088  0.0363  0.0535 -0.0196
25202SOL    HW181443   3.433   8.898   9.013  2.1313 -0.6014  1.2122
25202SOL    HW281444   3.433   8.813   9.139 -0.3050  2.1711  3.2301
25203SOL     OW81445   9.741   7.860   4.003 -0.3877 -0.2766 -0.3557
25203SOL    HW181446   9.762   7.898   4.088 -0.4218 -1.0105 -0.0163
25203SOL    HW281447   9.651   7.888   3.986 -0.4152 -0.2105 -0.1043
25204SOL     OW81448   0.361   3.629  11.962  0.3748  0.1031  0.2140
25204SOL    HW181449   0.336   3.567  11.893  1.8883  0.8042 -1.0313
25204SOL    HW281450   0.293   3.696  11.961 -0.9028 -1.1200  1.0941
25205SOL     OW81451   4.031  11.679   5.779 -0.3744  0.1508  0.5782
25205SOL    HW181452   3.951  11.630   5.797 -0.4802  0.0063 -0.2541
25205SOL    HW281453   4.001  11.763   5.744 -0.2057 -0.6871 -1.8149
25206SOL     OW81454   1.177   8.813   8.272  0.0015 -0.4802  0.7679
25206SOL    HW181455   1.147   8.902   8.251 -1.8352 -0.9864  1.0020
25206SOL    HW281456   1.123   8.756   8.217  1.0192 -1.4754  0.7644
25207SOL     OW81457   3.028  11.919   2.221  0.6579  0.3713  0.3646
25207SOL    HW181458   3.047  12.003   2.263  0.5831  0.0847  0.9872
25207SOL    HW281459   3.063  11.928   2.132  0.4698  1.1279  0.3639
25208SOL     OW81460   7.572   7.019  11.252  0.2662 -0.3003  0.0698
25208SOL    HW181461   7.532   6.932  11.264 -1.5827  0.3905 -0.7105
25208SOL    HW281462   7.658   7.001  11.214 -0.3781 -1.7755 -0.7700
25209SOL     OW81463   6.267   9.754   4.043  0.1614  0.8655 -0.3340
25209SOL    HW181464   6.288   9.782   4.132 -0.6566  1.3060 -0.2755
25209SOL    HW281465   6.187   9.800   4.021  1.4388  2.3947 -2.0960
25210SOL     OW81466   8.778   7.434  11.308  0.1352 -0.5583 -0.2063
25210SOL    HW181467   8.871   7.434  11.288 -0.0968 -0.3724 -1.3512
25210SOL    HW281468   8.751   7.526  11.298 -0.2388 -0.6677 -0.2202
25211SOL     OW81469   6.767   9.445   5.120  0.1975  0.0951  0.1676
25211SOL    HW181470   6.809   9.531   5.117  0.9345 -0.2480  0.3411
25211SOL    HW281471   6.778   9.417   5.211 -1.6238  0.5741  0.5804
25212SOL     OW81472   0.366   2.483   3.389  0.6324 -0.0452  0.3015
25212SOL    HW181473   0.375   2.414   3.324  0.3815 -1.6680  1.9130
25212SOL    HW281474   0.298   2.540   3.354 -0.2585 -1.4747 -0.3716
25213SOL     OW81475  10.329   5.717   1.607  0.2775 -0.3152 -0.1709
25213SOL    HW181476  10.259   5.738   1.669  0.6391  1.3488 -0.2932
25213SOL    HW281477  10.406   5.702   1.661  0.2027 -0.5330 -0.1248
25214SOL     OW81478  10.276   8.390  10.686  0.6760  0.3613 -0.9276
25214SOL    HW181479  10.348   8.330  10.667 -0.1591 -0.8527 -0.4344
25214SOL    HW281480  10.318   8.474  10.702  1.8383  0.1045 -2.3479
25215SOL     OW81481  11.486  10.932  10.422  0.4605  0.4268 -0.3634
25215SOL    HW181482  11.441  10.894  10.347  1.2055 -0.0567 -0.5758
25215SOL    HW281483  11.456  11.023  10.424  0.2621  0.3877 -1.1163
25216SOL     OW81484   9.017  10.771   5.593 -0.3972 -0.0089  0.1130
25216SOL    HW181485   8.939  10.717   5.580 -0.7357 -0.5203  3.3658
25216SOL    HW281486   9.062  10.731   5.667  2.6988  0.6584 -1.2581
25217SOL     OW81487   7.522   0.419   7.049  0.2882 -0.3990  0.2097
25217SOL    HW181488   7.490   0.471   7.123 -0.5655 -2.8557  1.6991
25217SOL    HW281489   7.514   0.477   6.974 -0.9236  1.4891  1.6983
25218SOL     OW81490   1.369   6.514   6.079 -0.1580  0.0570  0.2529
25218SOL    HW181491   1.299   6.512   6.144  0.6962 -1.7775  1.2125
25218SOL    HW281492   1.440   6.563   6.120  0.7170 -1.8550  1.1684
25219SOL     OW81493   1.795   6.056  12.249  1.0822 -0.6477 -0.3737
25219SOL    HW181494   1.721   6.112  12.225  1.4905  0.3982  0.7425
25219SOL    HW281495   1.833   6.030  12.165 -1.3623 -2.3904 -1.0365
25220SOL     OW81496   9.455   2.109   6.592  0.0265 -0.4683  0.1148
25220SOL    HW181497   9.536   2.059   6.603  0.3426  0.4408  2.4146
25220SOL    HW281498   9.405   2.092   6.672 -1.4927  0.0296 -0.6822
25221SOL     OW81499   0.058   7.554   5.551  0.2355  0.2889  0.1878
25221SOL    HW181500  -0.021   7.535   5.501  1.6965  2.0476 -3.0929
25221SOL    HW281501   0.122   7.489   5.522  0.4825 -0.1700  1.6655
25222SOL     OW81502   2.925   6.547   0.431 -0.4618  0.2169 -0.1194
25222SOL    HW181503   2.860   6.569   0.364 -0.5260  0.7023  0.1001
25222SOL    HW281504   2.987   6.490   0.386 -2.3390 -2.3297  0.2552
25223SOL     OW81505   0.768  10.109   3.099 -0.4310  0.1300 -0.1341
25223SOL    HW181506   0.802  10.043   3.039  0.6959 -0.8858  1.5332
25223SOL    HW281507   0.674  10.109   3.084 -0.1669  0.0749 -2.0196
25224SOL     OW81508   6.733   4.233   2.990 -0.5305  0.1852 -0.0291
25224SOL    HW181509   6.710   4.143   3.013 -0.0967  0.2119  0.5395
25224SOL    HW281510   6.713   4.240   2.897 -2.5602  0.1440  0.3629
25225SOL     OW81511   6.051   8.289  11.682 -0.5391 -0.2361 -0.2372
25225SOL    HW181512   6.007   8.211  11.647 -0.9406 -0.9241  1.6621
25225SOL    HW281513   6.130   8.255  11.725 -0.8464  0.3418  0.8309
25226SOL     OW81514   5.916   9.827   4.711 -0.3481  0.1330  0.2029
25226SOL    HW181515   5.924   9.889   4.784 -2.2345  2.1256 -1.1568
25226SOL    HW281516   5.828   9.790   4.720 -0.0344 -0.7469 -0.2322
25227SOL     OW81517  11.691   9.882   2.782 -0.3982 -0.5691  0.3374
25227SOL    HW181518  11.690   9.965   2.734  0.6853 -0.7578 -0.0346
25227SOL    HW281519  11.729   9.819   2.721  0.7862 -0.8611  1.3374
25228SOL     OW81520   2.659  10.399   1.150  0.4940  1.0319 -0.1653
25228SOL    HW181521   2.599  10.419   1.222  0.8645  3.2186 -0.3947
25228SOL    HW281522   2.602  10.380   1.076  0.0996  0.8037  0.1932
25229SOL     OW81523   7.062   5.311   4.843 -0.4275  0.1272  0.1489
25229SOL    HW181524   6.969   5.335   4.838 -1.1624 -2.2809  0.7388
25229SOL    HW281525   7.089   5.335   4.931 -1.3814 -1.7606  1.0236
25230SOL     OW81526   7.660   2.964   7.875  0.4197  0.2227 -0.0176
25230SOL    HW181527   7.577   2.925   7.850  0.6920 -0.6262  0.3783
25230SOL    HW281528   7.721   2.891   7.881  1.3075  0.8801 -0.7099
25231SOL     OW81529   4.383  12.302   2.072  0.1915  0.2347  0.3141
25231SOL    HW181530   4.377  12.393   2.044 -0.7868  0.0546 -0.0954
25231SOL    HW281531   4.361  12.252   1.993  0.1077 -0.3405  0.7017
25232SOL     OW81532   8.480  11.990   6.922 -0.0854  0.5014  0.4845
25232SOL    HW181533   8.507  11.999   7.014  0.4268  3.3315  0.1559
25232SOL    HW281534   8.552  12.028   6.872 -0.5751 -0.5257 -1.0807
25233SOL     OW81535   2.142   9.134   2.627 -0.4719  0.2883 -0.0118
25233SOL    HW181536   2.152   9.104   2.537 -1.0254  1.7295 -0.5832
25233SOL    HW281537   2.161   9.228   2.623  1.8055  0.0217  1.7822
25234SOL     OW81538   4.003   0.106   9.248 -0.3718  0.0694 -0.1262
25234SOL    HW181539   4.014   0.199   9.230  2.0244  0.2177  1.6431
25234SOL    HW281540   3.968   0.103   9.337 -1.4160 -0.7422 -0.5426
25235SOL     OW81541   7.243   8.852   7.198 -0.2882 -0.5371  0.1291
25235SOL    HW181542   7.252   8.768   7.244 -0.1307 -0.3700  0.4019
25235SOL    HW281543   7.299   8.912   7.247  1.1180 -0.7202 -1.1536
25236SOL     OW81544   2.550   4.263   5.078  0.0597  0.1411 -0.0290
25236SOL    HW181545   2.550   4.334   5.142 -0.8224  0.5984 -0.5081
25236SOL    HW281546   2.569   4.185   5.129  5.0165  1.0781 -0.0074
25237SOL     OW81547   3.337   5.420   2.389  0.2993 -0.5243 -0.2063
25237SOL    HW181548   3.294   5.341   2.423 -0.1332 -0.2309 -0.0657
25237SOL    HW281549   3.370   5.393   2.303 -2.7579  0.0028 -1.7054
25238SOL     OW81550   4.866   6.509   2.761 -0.1483  0.6183  0.3547
25238SOL    HW181551   4.921   6.454   2.705  0.3295  0.0812  1.3315
25238SOL    HW281552   4.928   6.550   2.821 -0.3929  2.8035 -0.7822
25239SOL     OW81553   3.207   9.739   5.067 -0.1185 -0.0276  0.5397
25239SOL    HW181554   3.257   9.711   5.143 -0.9098  0.0187  1.0947
25239SOL    HW281555   3.215   9.835   5.066 -3.3662  0.4665  3.0192
25240SOL     OW81556   9.295   6.028   4.821 -0.3366  0.1530  0.1029
25240SOL    HW181557   9.295   5.982   4.737  1.2796  1.5071 -0.6886
25240SOL    HW281558   9.228   6.095   4.812 -2.2791 -1.5487  1.0463
25241SOL     OW81559   5.707   3.224   7.606  0.3885  0.2075  0.4504
25241SOL    HW181560   5.688   3.142   7.653  0.5003  0.6924  1.3697
25241SOL    HW281561   5.715   3.289   7.676  3.6951  0.3942  0.0362
25242SOL     OW81562   4.708  10.065  12.064  0.0303  0.3270 -0.1312
25242SOL    HW181563   4.692   9.995  12.128  0.2629  1.0205  0.6979
25242SOL    HW281564   4.624  10.076  12.020 -0.6724  1.0625  1.3118
25243SOL     OW81565  10.306   5.145  11.780 -0.1930  0.4534 -0.2535
25243SOL    HW181566  10.364   5.174  11.709  0.3007  2.1155  0.7795
25243SOL    HW281567  10.272   5.061  11.749  2.0671 -0.1760 -1.2942
25244SOL     OW81568   0.523   7.355  12.162  0.1262  0.3620  0.3470
25244SOL    HW181569   0.432   7.357  12.191 -0.3618 -1.7536 -0.8493
25244SOL    HW281570   0.572   7.326  12.239 -0.0854  1.9265  1.1245
25245SOL     OW81571  11.667   1.358   5.824 -0.0626 -0.1429  0.0789
25245SOL    HW181572  11.708   1.431   5.870 -0.0087 -0.7411  0.9965
25245SOL    HW281573  11.573   1.373   5.834 -0.2674  2.2308 -3.5651
25246SOL     OW81574   5.556   6.031   0.596 -0.1258  0.9830  0.0559
25246SOL    HW181575   5.634   6.084   0.581  1.5182 -1.7252 -2.0960
25246SOL    HW281576   5.501   6.048   0.519  1.3353 -1.6827 -1.7338
25247SOL     OW81577  11.193  10.717   5.691 -0.2268  0.2231 -0.5186
25247SOL    HW181578  11.257  10.750   5.754  1.5528 -2.2691 -0.8485
25247SOL    HW281579  11.242  10.709   5.609 -0.4144 -3.1775 -0.4263
25248SOL     OW81580   4.833   2.124   2.039  0.4060 -0.6280  0.0865
25248SOL    HW181581   4.743   2.116   2.070  0.1542  1.6798  0.1523
25248SOL    HW281582   4.828   2.109   1.945 -0.2918  0.5902 -0.1033
25249SOL     OW81583   0.888   0.385  12.247  0.3282  0.5725 -0.1563
25249SOL    HW181584   0.833   0.336  12.187  0.2968 -0.3171  0.5753
25249SOL    HW281585   0.912   0.322  12.315  3.1785  0.5886 -1.0066
25250SOL     OW81586   2.376  11.130   8.818  0.8597 -0.2633  1.1807
25250SOL    HW181587   2.336  11.048   8.848  0.1742  0.0861  1.2451
25250SOL    HW281588   2.302  11.181   8.784  1.5678 -0.5008 -0.7860
25251SOL     OW81589   9.749  10.109  10.890 -0.0599  0.5655 -0.3476
25251SOL    HW181590   9.837  10.148  10.893 -0.4698  1.7660 -2.3888
25251SOL    HW281591   9.724  10.112  10.798 -1.7265 -1.0197 -0.0097
25252SOL     OW81592   3.138   0.394   3.289 -0.1902 -0.0897  0.5094
25252SOL    HW181593   3.073   0.442   3.238  0.7699  2.1825  1.2871
25252SOL    HW281594   3.097   0.380   3.374 -0.4641 -0.6555  0.2881
25253SOL     OW81595   8.423   6.425   4.010 -0.3246  0.0683  0.5108
25253SOL    HW181596   8.422   6.519   3.992  0.5059  0.0530  0.3128
25253SOL    HW281597   8.332   6.397   4.002 -0.9300  1.2217  2.5543
25254SOL     OW81598  11.930   3.870   1.487  0.3632  0.0902 -0.6215
25254SOL    HW181599  11.932   3.955   1.442  1.4166 -0.2942 -1.3445
25254SOL    HW281600  11.838   3.858   1.511 -0.1196  0.6222 -2.0735
25255SOL     OW81601   2.054  11.811   1.256  0.1756 -0.4262  0.3025
25255SOL    HW181602   2.018  11.896   1.280 -1.1811  0.3803 -3.7975
25255SOL    HW281603   2.133  11.832   1.206  0.1396 -1.5995 -0.2736
25256SOL     OW81604   7.736   2.625  10.493 -1.2483  0.1287 -0.2303
25256SOL    HW181605   7.733   2.698  10.554 -0.1435 -0.3122  0.3713
25256SOL    HW281606   7.802   2.566  10.529 -1.2139 -0.5674 -1.3806
25257SOL     OW81607   7.698   0.736   9.089  0.0537 -0.2267  0.8193
25257SOL    HW181608   7.643   0.770   9.019  2.4086  0.5864 -0.7086
25257SOL    HW281609   7.654   0.655   9.116 -2.0007  0.5034 -0.1116
25258SOL     OW81610   2.652  10.397   2.834 -0.3103  0.1548  0.1175
25258SOL    HW181611   2.746  10.386   2.851 -0.4756 -0.0572  0.9778
25258SOL    HW281612   2.611  10.375   2.918 -1.0282  1.9149  0.2492
25259SOL     OW81613   1.972   6.203   0.069  0.6686  0.2045 -0.3479
25259SOL    HW181614   1.966   6.296   0.051 -0.9525  0.4888  1.4034
25259SOL    HW281615   1.924   6.161  -0.002  2.0248  0.5970 -1.5490
25260SOL     OW81616  11.467   2.227  12.094  0.2979  0.5641  0.7263
25260SOL    HW181617  11.452   2.147  12.145 -0.0087 -0.0322 -0.2648
25260SOL    HW281618  11.491   2.293  12.159 -0.1206 -0.1609  1.6378
25261SOL     OW81619   7.165   2.964   4.841 -0.0747 -0.2937 -0.5634
25261SOL    HW181620   7.126   2.879   4.861  1.7871 -0.5827  2.3225
25261SOL    HW281621   7.114   3.027   4.890 -1.2897  0.3222 -2.4955
25262SOL     OW81622   0.170   9.152   9.558  0.0868 -0.2449  0.1706
25262SOL    HW181623   0.235   9.152   9.628 -1.5286 -1.7236  1.7601
25262SOL    HW281624   0.101   9.212   9.587 -0.6236 -0.9000 -0.1202
25263SOL     OW81625   8.092  10.776   8.044 -0.3603 -0.2146 -0.5872
25263SOL    HW181626   8.030  10.770   8.116  0.1881  0.3844 -0.0512
25263SOL    HW281627   8.178  10.770   8.086  0.0040  1.3759 -1.0223
25264SOL     OW81628   6.283  12.063  10.701  0.1454  0.5791  0.4077
25264SOL    HW181629   6.331  12.102  10.627  0.0632  2.0526  1.0883
25264SOL    HW281630   6.248  12.139  10.748  1.3955 -0.2483  2.7974
25265SOL     OW81631   7.524   4.867   3.220  0.3836 -0.6370  0.0614
25265SOL    HW181632   7.515   4.781   3.261 -1.0232 -1.7060 -2.2851
25265SOL    HW281633   7.556   4.848   3.132 -0.1213  1.2339 -0.5699
25266SOL     OW81634   9.773   8.279   3.317 -0.3172 -0.1653  0.2864
25266SOL    HW181635   9.812   8.362   3.290 -0.8691  0.2355  0.6872
25266SOL    HW281636   9.786   8.276   3.412  0.7739 -1.1156  0.1285
25267SOL     OW81637  10.029   1.031  12.197  0.0262 -0.2282 -0.2688
25267SOL    HW181638   9.955   1.091  12.210  0.1549 -0.4892  2.0170
25267SOL    HW281639  10.001   0.975  12.124 -1.0712  1.0973 -0.9073
25268SOL     OW81640  11.472   0.361  11.287 -0.0264  0.1286 -0.0330
25268SOL    HW181641  11.527   0.338  11.363  1.3418 -0.2765 -1.1002
25268SOL    HW281642  11.521   0.329  11.212 -0.2266  2.5370 -1.2919
25269SOL     OW81643   2.119   5.770   6.223  0.3528  0.1902  0.4100
25269SOL    HW181644   2.175   5.712   6.274 -0.4057 -1.2422 -0.3100
25269SOL    HW281645   2.180   5.820   6.169  1.0482  0.3421  1.3108
25270SOL     OW81646  10.945   5.546   2.203 -0.3751  0.5960 -0.0542
25270SOL    HW181647  10.879   5.615   2.196 -0.8089  0.2419  0.4429
25270SOL    HW281648  10.950   5.509   2.114 -0.9367  0.5492 -0.0707
25271SOL     OW81649   9.810  10.738   6.661  0.1314  0.0070  0.8762
25271SOL    HW181650   9.829  10.829   6.638 -0.1359 -0.5631 -2.0217
25271SOL    HW281651   9.729  10.718   6.614 -0.0879 -1.5969  1.8627
25272SOL     OW81652   9.346  12.087   6.614  0.7303 -0.0565 -0.5548
25272SOL    HW181653   9.293  12.133   6.549  0.0009 -1.7084 -1.1741
25272SOL    HW281654   9.417  12.048   6.563  0.1499 -1.3649 -0.4020
25273SOL     OW81655   6.163   3.076   3.904 -0.4977  0.8588 -0.2234
25273SOL    HW181656   6.114   2.994   3.909 -0.4744  0.7673 -1.2439
25273SOL    HW281657   6.211   3.080   3.987 -0.7000 -0.0273 -0.0466
25274SOL     OW81658   4.063   0.295   6.132 -0.0500 -0.3334  0.2314
25274SOL    HW181659   3.983   0.290   6.079  0.6611  0.1857 -0.9038
25274SOL    HW281660   4.040   0.248   6.213 -1.5099 -0.1707 -0.0587
25275SOL     OW81661   3.971   7.852   1.017 -0.4215 -0.0696 -0.6514
25275SOL    HW181662   3.952   7.945   1.030 -0.5333 -0.2051  0.1821
25275SOL    HW281663   3.886   7.809   1.024 -0.1680 -0.4102  0.6556
25276SOL     OW81664  11.341   6.774   3.674  0.3312  0.3325 -0.6985
25276SOL    HW181665  11.252   6.744   3.692  0.0005  1.6139 -0.0652
25276SOL    HW281666  11.394   6.735   3.743  0.6339 -1.9727 -2.1458
25277SOL     OW81667   0.938   3.560   1.242  0.7303  0.2619 -0.5481
25277SOL    HW181668   0.846   3.570   1.269  0.6901  0.0490 -0.6100
25277SOL    HW281669   0.988   3.603   1.312  0.6762 -0.9787  0.2799
25278SOL     OW81670   7.012   5.801   2.659  0.0562  0.4158 -0.4048
25278SOL    HW181671   7.022   5.799   2.754  0.5105  1.9571 -0.3867
25278SOL    HW281672   6.918   5.811   2.645 -0.0279  0.0261 -0.1218
25279SOL     OW81673   2.410  10.710   4.011  0.1480  0.0598  0.2592
25279SOL    HW181674   2.417  10.616   3.994  2.5631  0.2592 -0.1794
25279SOL    HW281675   2.319  10.732   3.989  0.1959 -1.7190 -2.0504
25280SOL     OW81676   6.360   4.653   4.688  0.2581 -0.1817  0.3508
25280SOL    HW181677   6.363   4.591   4.761  1.7624 -0.8950 -0.2872
25280SOL    HW281678   6.447   4.650   4.649 -0.2126  0.9278 -0.8807
25281SOL     OW81679   5.749   2.937   5.885  0.1045  0.5994 -0.0497
25281SOL    HW181680   5.839   2.970   5.890 -0.0532  1.1291 -0.5913
25281SOL    HW281681   5.696   3.016   5.870 -0.4109  0.2387 -0.1374
25282SOL     OW81682   8.305   1.822   9.372  0.1026  0.0690  0.9204
25282SOL    HW181683   8.370   1.771   9.324 -0.1453  0.1339  0.5191
25282SOL    HW281684   8.281   1.766   9.446 -0.5349 -0.6064  0.2094
25283SOL     OW81685   6.760   5.068   2.816  0.1546  0.0623  0.3505
25283SOL    HW181686   6.737   5.088   2.726  1.2929 -1.3289 -0.2764
25283SOL    HW281687   6.803   5.147   2.849  1.5567 -0.1134 -0.9818
25284SOL     OW81688   8.314   1.830  11.403  0.2194 -0.3660 -0.2924
25284SOL    HW181689   8.335   1.823  11.309  2.0601 -0.9685  0.1240
25284SOL    HW281690   8.272   1.916  11.411  0.4368 -0.1035 -1.5938
25285SOL     OW81691   2.110   1.675   3.428  0.2501  0.1291  0.5542
25285SOL    HW181692   2.154   1.749   3.470 -3.1061  1.5797  1.8720
25285SOL    HW281693   2.038   1.715   3.379 -1.4993 -2.2076  1.0475
25286SOL     OW81694   9.311   2.851   1.805  0.0381 -0.5591  0.2487
25286SOL    HW181695   9.377   2.836   1.737 -0.8281  0.5734 -0.8802
25286SOL    HW281696   9.358   2.897   1.874  0.0207  2.3726 -1.5339
25287SOL     OW81697  11.517   1.810   3.709  0.2322 -0.0275 -0.0686
25287SOL    HW181698  11.544   1.788   3.620 -0.7325 -0.7161 -0.2051
25287SOL    HW281699  11.422   1.825   3.703 -0.0635 -1.2196  1.0336
25288SOL     OW81700   6.262  11.855   7.135  0.7569 -0.0340 -0.4629
25288SOL    HW181701   6.241  11.771   7.093 -1.5871  1.9794 -3.8380
25288SOL    HW281702   6.354  11.870   7.113  0.2618 -0.2122 -2.9692
25289SOL     OW81703   7.878   1.411   0.003  0.4404  0.8499  0.5765
25289SOL    HW181704   7.792   1.407   0.044 -1.1948  0.5390 -2.6085
25289SOL    HW281705   7.902   1.504   0.005  0.3599  0.8550  2.0249
25290SOL     OW81706   5.396   8.871  10.640 -0.3960 -0.3009 -0.5049
25290SOL    HW181707   5.487   8.875  10.612 -0.0710  0.5416  0.6163
25290SOL    HW281708   5.347   8.914  10.569  0.2723  0.6946 -0.3841
25291SOL     OW81709  12.173   7.721  10.945  0.2234 -0.4965  0.1122
25291SOL    HW181710  12.138   7.640  10.907 -4.4980  1.0229  0.5744
25291SOL    HW281711  12.141   7.722  11.035  0.6421  1.6096  0.2985
25292SOL     OW81712  12.125   6.314   3.214 -0.2894  1.1140  0.2585
25292SOL    HW181713  12.054   6.303   3.151 -0.2470 -0.4760  0.4474
25292SOL    HW281714  12.100   6.391   3.265 -0.9326  1.6928 -0.8832
25293SOL     OW81715   5.267   5.617   4.707 -0.4352  0.8244 -0.0141
25293SOL    HW181716   5.244   5.574   4.624  0.0183 -0.7316  0.6202
25293SOL    HW281717   5.195   5.678   4.724 -1.5225 -0.2532 -0.5923
25294SOL     OW81718   4.633   9.802   2.171 -0.2322 -0.2841  0.9818
25294SOL    HW181719   4.584   9.828   2.250 -1.8429 -1.1483  0.3063
25294SOL    HW281720   4.566   9.792   2.103  1.2109  1.3017 -0.7753
25295SOL     OW81721   7.994   5.025  11.751 -0.6083 -0.7495  0.2138
25295SOL    HW181722   7.901   5.048  11.755 -0.4451 -0.1461  0.6370
25295SOL    HW281723   8.006   4.965  11.825 -0.0256  1.5829  2.1473
25296SOL     OW81724   8.989   0.912   2.348  0.3722 -0.4238  0.0020
25296SOL    HW181725   8.904   0.930   2.386  1.0567  0.3704  1.2392
25296SOL    HW281726   9.009   0.990   2.295  0.8937  0.0052  0.8062
25297SOL     OW81727   8.328   4.246   5.026 -0.6122  0.1092  0.3526
25297SOL    HW181728   8.268   4.240   4.952  1.8244  1.9674 -1.9665
25297SOL    HW281729   8.299   4.323   5.075 -1.0950  0.0100  0.2203
25298SOL     OW81730   2.784   9.409   9.024 -0.0631 -0.6003 -0.7411
25298SOL    HW181731   2.852   9.430   8.959  1.4755 -1.2920  0.5733
25298SOL    HW281732   2.757   9.320   9.000  2.4435 -1.9703  1.0301
25299SOL     OW81733   6.139   0.016   2.021 -0.5820  0.0247 -0.5723
25299SOL    HW181734   6.048   0.001   2.047 -0.3334 -2.8277 -1.0088
25299SOL    HW281735   6.134   0.087   1.957 -2.2954  0.9065  0.4817
25300SOL     OW81736   3.938   0.816   3.124  0.4231 -0.1774 -0.2485
25300SOL    HW181737   3.983   0.895   3.095 -0.4855  0.1097 -0.9215
25300SOL    HW281738   3.983   0.791   3.205 -0.2951  1.9272  0.8628
25301SOL     OW81739   4.495  10.529   2.129 -0.2758 -0.3755  0.0823
25301SOL    HW181740   4.406  10.546   2.159 -0.7186 -1.2652 -0.7043
25301SOL    HW281741   4.502  10.578   2.046  0.1714  0.1637  0.4263
25302SOL     OW81742   6.496  11.958   0.162 -0.4233  0.3008  0.1034
25302SOL    HW181743   6.551  12.011   0.104 -0.6514  1.0939  0.5928
25302SOL    HW281744   6.478  12.015   0.237 -1.3980 -0.1603  0.2390
25303SOL     OW81745   1.916   1.795   6.743 -0.4032 -0.4292  0.0211
25303SOL    HW181746   2.002   1.768   6.713 -0.7685 -1.7776  0.1374
25303SOL    HW281747   1.874   1.831   6.665  0.2666  0.2981 -0.0215
25304SOL     OW81748   6.031  11.466   6.503 -0.3487 -0.4963 -0.4011
25304SOL    HW181749   6.121  11.477   6.535 -0.6380  0.0431  0.2208
25304SOL    HW281750   6.032  11.506   6.416 -0.2385  0.4147  0.0140
25305SOL     OW81751   9.882  11.001   6.610  0.2476  0.3457  0.4579
25305SOL    HW181752   9.793  11.037   6.602  0.1944  0.3332  0.9739
25305SOL    HW281753   9.934  11.050   6.547 -0.3977 -0.5208 -0.7955
25306SOL     OW81754  10.134   3.646   4.255  0.4409 -0.0484 -0.5682
25306SOL    HW181755  10.085   3.564   4.256  0.1178  0.1429 -0.5831
25306SOL    HW281756  10.192   3.640   4.331 -0.7163  0.3770  0.3918
25307SOL     OW81757  10.822   2.749   3.986  0.6992  0.4567 -0.0200
25307SOL    HW181758  10.850   2.829   4.031 -0.8546 -0.1156  2.1151
25307SOL    HW281759  10.832   2.680   4.051 -2.3665 -0.3023 -0.2237
25308SOL     OW81760   8.115   2.788  11.827 -0.2959 -0.0872  0.1727
25308SOL    HW181761   8.193   2.777  11.773  0.7084 -1.5256  1.8468
25308SOL    HW281762   8.145   2.835  11.904 -1.5229  1.1106 -0.0314
25309SOL     OW81763   2.974   7.375   8.462 -0.3350 -0.8017 -0.4296
25309SOL    HW181764   2.908   7.324   8.415 -2.9333  2.0545 -0.1929
25309SOL    HW281765   2.942   7.379   8.552  0.8523 -0.3908 -0.0057
25310SOL     OW81766   0.956   2.677   1.258 -0.1804 -0.1778  0.3547
25310SOL    HW181767   1.009   2.598   1.248  0.2443  0.2803 -1.3965
25310SOL    HW281768   0.981   2.711   1.344 -0.7450 -2.1737  1.3698
25311SOL     OW81769   4.484   2.181   5.759 -0.2830 -0.3407  0.0132
25311SOL    HW181770   4.428   2.247   5.718 -1.1004 -0.6680  0.5666
25311SOL    HW281771   4.531   2.229   5.827 -1.0511 -0.3651  0.5719
25312SOL     OW81772   8.586   9.013   1.427 -0.5208  0.6341 -0.0890
25312SOL    HW181773   8.653   8.989   1.363  0.3969  2.7917 -0.0364
25312SOL    HW281774   8.526   8.938   1.428 -0.4853  0.4081 -3.3191
25313SOL     OW81775   1.967  11.180   6.808  0.1894  0.0602  0.2386
25313SOL    HW181776   1.899  11.248   6.808  1.1834  1.0782 -0.5856
25313SOL    HW281777   1.976  11.156   6.900 -0.5888  0.6204  0.4788
25314SOL     OW81778   4.287   0.503   1.672 -0.0391 -0.6612 -0.1088
25314SOL    HW181779   4.342   0.435   1.634  1.3216  0.4415 -0.1660
25314SOL    HW281780   4.201   0.461   1.683  0.8193 -2.4466  0.0809
25315SOL     OW81781   9.490  10.177   8.697  0.1266 -0.2022  0.1703
25315SOL    HW181782   9.429  10.149   8.766 -0.5462 -3.8453 -1.6170
25315SOL    HW281783   9.442  10.160   8.616  2.1751  0.5125 -1.2594
25316SOL     OW81784   9.865   0.299   2.860 -0.9096  0.3512  0.0968
25316SOL    HW181785   9.939   0.300   2.799 -1.3974 -1.8356 -0.6023
25316SOL    HW281786   9.871   0.384   2.905  1.9821  0.2822  0.0578
25317SOL     OW81787   9.798  11.852  10.543 -0.2748 -0.1150 -0.3251
25317SOL    HW181788   9.893  11.840  10.549 -0.3350 -0.8930 -0.8701
25317SOL    HW281789   9.785  11.945  10.560  0.3792 -0.3796  1.9951
25318SOL     OW81790   9.522   5.166   3.942  0.4912  0.5525  0.1984
25318SOL    HW181791   9.590   5.120   3.991  0.5713  0.5680  0.1009
25318SOL    HW281792   9.528   5.257   3.973 -2.1254 -0.0942  3.2603
25319SOL     OW81793   1.438   6.233   2.149  0.4374  0.1349 -0.4255
25319SOL    HW181794   1.412   6.214   2.239 -0.7245  1.7069 -0.3841
25319SOL    HW281795   1.424   6.150   2.103  0.5316 -0.5440  0.7225
25320SOL     OW81796   4.726   2.910   3.188  0.4058  0.4113  0.5347
25320SOL    HW181797   4.810   2.952   3.204  0.9457 -0.9682  1.5564
25320SOL    HW281798   4.674   2.976   3.142  1.7967  1.5346  0.5155
25321SOL     OW81799  11.227  11.186   7.539  0.4587  0.1394  0.7367
25321SOL    HW181800  11.202  11.225   7.455  0.3502  0.8742  1.1013
25321SOL    HW281801  11.294  11.121   7.516  2.5845  2.3005  0.3207
25322SOL     OW81802  10.953   9.256  11.312  0.0092  0.0870  0.0984
25322SOL    HW181803  10.948   9.328  11.249 -1.0110  0.7306  0.8760
25322SOL    HW281804  11.017   9.286  11.377 -1.0889  0.7231  0.9151
25323SOL     OW81805   5.814   8.103   7.478 -0.5286  0.4626  0.4553
25323SOL    HW181806   5.783   8.171   7.537  2.7179  1.3845  1.2982
25323SOL    HW281807   5.884   8.144   7.428  1.6273 -2.1908  1.0541
25324SOL     OW81808   9.308   5.094   8.096 -0.3250 -0.4828 -0.5436
25324SOL    HW181809   9.367   5.159   8.134 -0.1192 -0.5242 -0.7850
25324SOL    HW281810   9.232   5.093   8.154  0.1802 -0.8797  0.1241
25325SOL     OW81811   4.580   3.874   1.200 -0.1135  0.4318  0.4633
25325SOL    HW181812   4.619   3.952   1.161  1.3160 -0.1247  0.7359
25325SOL    HW281813   4.520   3.841   1.132  0.3896  0.9317 -0.2336
25326SOL     OW81814   8.297   7.595   8.122 -0.2826  0.1324 -0.2769
25326SOL    HW181815   8.361   7.591   8.193 -1.1936 -0.5940  0.5250
25326SOL    HW281816   8.291   7.688   8.100  0.3682  0.3087  0.2592
25327SOL     OW81817   5.568   7.425   5.145  0.1187 -0.0144  0.6215
25327SOL    HW181818   5.509   7.427   5.220  0.4223  0.6154  0.8488
25327SOL    HW281819   5.602   7.335   5.144 -0.6410 -0.3080  0.6372
25328SOL     OW81820   2.000   3.111   2.850 -0.3580  0.0718  0.4083
25328SOL    HW181821   1.944   3.109   2.773  1.6058 -1.6965 -1.1193
25328SOL    HW281822   2.088   3.126   2.815  0.6716 -1.3175  2.1963
25329SOL     OW81823   3.130   0.166   7.956 -0.5206 -0.4620  0.2226
25329SOL    HW181824   3.098   0.118   8.033 -1.9016 -0.4898 -0.3317
25329SOL    HW281825   3.206   0.214   7.988 -1.2064 -0.2741  1.6919
25330SOL     OW81826   2.629   3.610  10.183  0.2618 -0.6976 -0.3349
25330SOL    HW181827   2.628   3.517  10.203  2.0217 -0.7417 -0.2773
25330SOL    HW281828   2.542   3.628  10.146 -0.7046 -1.9899  1.1844
25331SOL     OW81829   5.232   2.278   2.303 -0.1745 -0.2240  0.3247
25331SOL    HW181830   5.226   2.183   2.291 -0.8331 -0.0560 -0.9012
25331SOL    HW281831   5.176   2.296   2.378 -1.2112 -0.6679 -0.3145
25332SOL     OW81832   1.839   1.690   3.171  0.4510 -0.2955  0.7045
25332SOL    HW181833   1.907   1.752   3.197  0.0847  0.0007  0.9683
25332SOL    HW281834   1.836   1.696   3.076 -0.3998  0.9848  0.7817
25333SOL     OW81835   7.268   2.046   3.076 -0.1122  0.0952  0.2059
25333SOL    HW181836   7.363   2.054   3.087 -0.3366  2.9179  0.8311
25333SOL    HW281837   7.251   2.082   2.989 -0.7926  2.3841  1.1967
25334SOL     OW81838   6.668   9.193   2.804  0.4917  0.9829 -0.0505
25334SOL    HW181839   6.584   9.196   2.757  0.2122  2.1795  0.4833
25334SOL    HW281840   6.652   9.243   2.884  1.1464 -0.4803  1.0333
25335SOL     OW81841   9.614   1.752   7.336  0.7490  0.3557  0.1683
25335SOL    HW181842   9.669   1.827   7.313 -0.6624  1.3032 -0.2717
25335SOL    HW281843   9.524   1.786   7.331  0.0366 -1.5057 -0.6198
25336SOL     OW81844  12.118   4.920   3.272  0.2222 -0.1763  0.4072
25336SOL    HW181845  12.159   4.904   3.357 -0.1200 -0.2722  0.5557
25336SOL    HW281846  12.036   4.870   3.275  0.7660 -1.1726 -0.4293
25337SOL     OW81847   6.459   9.831   9.404  0.7665 -0.4754  0.2720
25337SOL    HW181848   6.460   9.923   9.378  1.2148 -0.5872 -0.1186
25337SOL    HW281849   6.406   9.788   9.337  1.1840 -0.6204  0.0339
25338SOL     OW81850  10.642   4.034   5.035 -0.0011 -0.3840  0.1539
25338SOL    HW181851  10.705   3.973   4.998  1.5543  0.2282  1.6336
25338SOL    HW281852  10.568   3.979   5.061 -0.1059 -1.1283 -1.5828
25339SOL     OW81853   5.812   3.947   6.265  0.0477  0.6521 -0.3362
25339SOL    HW181854   5.756   3.909   6.197  2.2258 -1.2232 -1.2236
25339SOL    HW281855   5.845   4.029   6.227  0.5275  0.0684 -1.2145
25340SOL     OW81856   1.439   1.231   8.936  0.0288 -0.0301 -0.2345
25340SOL    HW181857   1.404   1.161   8.880 -1.1066  1.4738 -1.4791
25340SOL    HW281858   1.378   1.235   9.010  0.1482 -0.3955 -0.1115
25341SOL     OW81859   5.273  10.663   3.185  0.7297 -0.5061 -0.5383
25341SOL    HW181860   5.351  10.626   3.226 -1.9510 -2.5471  3.3158
25341SOL    HW281861   5.253  10.740   3.238 -0.4516 -0.6114 -0.8050
25342SOL     OW81862   1.027  11.844   0.602 -1.1119  0.1246  0.3547
25342SOL    HW181863   1.030  11.757   0.563  1.4119 -0.8422  2.4509
25342SOL    HW281864   0.937  11.854   0.633 -1.6348 -1.3759 -0.5849
25343SOL     OW81865   9.938   3.965   2.937  0.3313 -0.6498 -0.4520
25343SOL    HW181866  10.029   3.983   2.961 -0.6617  2.0445  1.8175
25343SOL    HW281867   9.937   3.872   2.913  3.7703 -0.5944 -1.3199
25344SOL     OW81868   2.557   7.566   3.214 -0.3160 -0.0071 -0.0361
25344SOL    HW181869   2.650   7.560   3.236  0.1319 -1.7683 -2.0341
25344SOL    HW281870   2.521   7.482   3.243 -0.9483  0.0580 -0.6128
25345SOL     OW81871   3.239   7.911   5.755  0.2405 -0.2931  0.0699
25345SOL    HW181872   3.257   8.001   5.729  0.8075 -0.4619 -0.1263
25345SOL    HW281873   3.143   7.905   5.754  0.2289 -0.1405 -1.4454
25346SOL     OW81874  10.604   6.916   2.741 -0.1855 -0.2782  0.1919
25346SOL    HW181875  10.638   6.898   2.828 -1.8597 -0.5151  0.8423
25346SOL    HW281876  10.671   6.883   2.681  0.7852 -0.5272  1.3736
25347SOL     OW81877  10.801   8.974   8.944  0.3085 -0.4841  0.0978
25347SOL    HW181878  10.858   9.000   8.871  1.3189 -1.3599  0.5516
25347SOL    HW281879  10.717   8.955   8.903  0.3427  0.7652 -0.6014
25348SOL     OW81880   7.467   4.871   0.083 -0.3061  0.2234  0.3246
25348SOL    HW181881   7.460   4.962   0.110 -0.3639  0.1344  0.6051
25348SOL    HW281882   7.379   4.835   0.092 -0.6163  0.5238 -1.1748
25349SOL     OW81883   3.380   4.981   4.267 -0.2928 -0.3807 -0.4626
25349SOL    HW181884   3.476   4.982   4.262 -0.1915 -0.8604  0.9897
25349SOL    HW281885   3.358   5.059   4.319 -0.5515 -1.1808  0.6834
25350SOL     OW81886   5.872   4.452   0.042  0.0942 -0.0070  0.5086
25350SOL    HW181887   5.931   4.471  -0.031  0.9692 -1.3639  0.8294
25350SOL    HW281888   5.815   4.528   0.047  0.1426  0.2034 -1.4633
25351SOL     OW81889  10.926   8.594   1.768  0.3753 -0.0865 -0.3387
25351SOL    HW181890  10.882   8.517   1.805 -0.6885  0.7521  0.1992
25351SOL    HW281891  10.911   8.664   1.832  0.5091  0.8055 -1.2500
25352SOL     OW81892   2.906   1.451  11.301 -0.4775  0.3663  0.0901
25352SOL    HW181893   2.895   1.524  11.240 -2.5207 -0.0343 -0.0888
25352SOL    HW281894   2.902   1.373  11.245 -1.5895  0.0242  0.6308
25353SOL     OW81895   3.270   5.140   8.737  0.4356  0.5013 -0.1132
25353SOL    HW181896   3.302   5.130   8.826 -0.2140  0.7412  0.1567
25353SOL    HW281897   3.311   5.069   8.688 -0.1182 -0.3535  0.6304
25354SOL     OW81898   9.794   8.709   8.446 -0.1978 -0.0606  0.4524
25354SOL    HW181899   9.743   8.628   8.440  0.1491 -0.2708  0.2956
25354SOL    HW281900   9.729   8.777   8.460 -0.8020  0.0011 -2.1250
25355SOL     OW81901   0.107   6.925   3.780  0.2078 -0.2809 -0.2305
25355SOL    HW181902   0.198   6.896   3.779 -0.2519 -1.8051 -0.1322
25355SOL    HW281903   0.067   6.876   3.852 -0.6882  0.3862 -0.2578
25356SOL     OW81904   0.081   5.857   7.402 -0.7288 -0.3244 -0.1857
25356SOL    HW181905   0.164   5.821   7.433 -0.2702  0.7967 -0.0647
25356SOL    HW281906   0.018   5.834   7.471 -0.2814 -0.2357  0.2646
25357SOL     OW81907   5.219   7.830  10.235 -0.0881  0.6475 -0.2836
25357SOL    HW181908   5.301   7.781  10.240  0.8504  1.9914 -1.3177
25357SOL    HW281909   5.246   7.922  10.238 -1.6166  1.1282 -0.1362
25358SOL     OW81910   8.340   6.153   6.232  0.1776  0.6334 -0.6226
25358SOL    HW181911   8.424   6.121   6.199  0.7715  0.0518  1.3657
25358SOL    HW281912   8.351   6.248   6.238  0.7545  0.5394 -0.1844
25359SOL     OW81913   9.119   7.217   3.710  0.0896 -0.3550  0.5877
25359SOL    HW181914   9.156   7.204   3.798  0.9650 -0.9586  0.1455
25359SOL    HW281915   9.195   7.235   3.655 -0.4214 -0.3038 -0.1128
25360SOL     OW81916   5.757   9.309   6.681 -0.1344 -0.4317  0.3174
25360SOL    HW181917   5.709   9.230   6.703  2.1149 -1.5951  1.3734
25360SOL    HW281918   5.791   9.294   6.593 -1.2158  0.1771 -0.2250
25361SOL     OW81919  11.214   2.738   4.018  0.5645  0.6420  0.6555
25361SOL    HW181920  11.244   2.776   3.935  0.4548  0.5032  0.5521
25361SOL    HW281921  11.173   2.655   3.993 -0.2495  1.0030  0.7473
25362SOL     OW81922   3.137   8.720   9.881  0.2461 -0.0347 -1.0591
25362SOL    HW181923   3.132   8.813   9.860  0.3466  0.1476 -0.2987
25362SOL    HW281924   3.187   8.716   9.963 -3.9310 -0.2628  1.8596
25363SOL     OW81925   2.758  11.697   3.865  0.7139 -0.7432 -0.1804
25363SOL    HW181926   2.806  11.712   3.784  0.9325  0.6997  0.1793
25363SOL    HW281927   2.799  11.756   3.928 -0.1567 -1.0429  0.6931
25364SOL     OW81928   7.371   4.799   7.359  0.4151 -0.3335  0.6358
25364SOL    HW181929   7.378   4.800   7.454  1.0448  0.3802  0.5892
25364SOL    HW281930   7.415   4.718   7.332  0.6202 -0.3148  0.9181
25365SOL     OW81931   2.226  11.649   1.415 -0.1334  0.3739  0.0310
25365SOL    HW181932   2.177  11.690   1.344  0.0175 -0.3064 -0.4704
25365SOL    HW281933   2.165  11.648   1.489 -0.5993  0.2588 -0.3530
25366SOL     OW81934   3.806   1.132   9.623 -0.1929  0.8742 -0.0519
25366SOL    HW181935   3.891   1.131   9.668 -0.3769 -1.0118  0.3664
25366SOL    HW281936   3.826   1.165   9.536  0.9456  0.7066  0.1207
25367SOL     OW81937   3.230   1.492   1.535  0.4043 -0.2261 -0.0984
25367SOL    HW181938   3.247   1.579   1.501  0.6495 -0.2271  0.0166
25367SOL    HW281939   3.197   1.442   1.460 -0.1026  0.0694 -0.0711
25368SOL     OW81940  10.722  10.668   4.472 -0.1975  0.0520 -0.0228
25368SOL    HW181941  10.760  10.588   4.434  0.0245  0.3723 -0.4865
25368SOL    HW281942  10.651  10.692   4.411 -1.0594 -0.4523  0.7511
25369SOL     OW81943   5.343   6.220  11.339  0.5974  0.3078  0.1283
25369SOL    HW181944   5.258   6.249  11.308  1.0054  1.3120 -0.0883
25369SOL    HW281945   5.336   6.222  11.434 -0.0605 -0.9875  0.1319
25370SOL     OW81946   1.687   4.064   7.352  0.0513 -0.3201 -0.4780
25370SOL    HW181947   1.686   3.992   7.415 -0.8048 -0.2416 -0.3946
25370SOL    HW281948   1.639   4.030   7.276 -1.6525  0.6355  0.1185
25371SOL     OW81949   2.040   6.231   3.393  0.1800  0.0695 -0.3668
25371SOL    HW181950   2.073   6.292   3.459 -1.3885 -0.7631  1.2679
25371SOL    HW281951   1.986   6.286   3.335 -0.9671  0.3425  0.9065
25372SOL     OW81952   6.472   3.270  11.393  0.0612  0.4398  0.2169
25372SOL    HW181953   6.568   3.275  11.396  0.0263  1.6267 -0.1158
25372SOL    HW281954   6.444   3.301  11.479 -0.0222  0.5297  0.1588
25373SOL     OW81955  10.202   6.147   7.545 -0.1757 -0.0124  0.0254
25373SOL    HW181956  10.206   6.065   7.496  2.4901  0.9650 -1.6167
25373SOL    HW281957  10.246   6.211   7.488  1.2172  1.6783  2.8069
25374SOL     OW81958   8.641   1.192   6.287  0.0648  0.0503  0.1067
25374SOL    HW181959   8.623   1.240   6.206  1.6570  3.2558  1.5016
25374SOL    HW281960   8.564   1.208   6.342  0.7973  1.4848  0.7461
25375SOL     OW81961   2.615   2.933  12.165  0.3376  0.5052  0.2140
25375SOL    HW181962   2.565   2.851  12.174  0.7490  0.2380  0.0885
25375SOL    HW281963   2.552   2.995  12.127 -0.2829  0.5453  1.2603
25376SOL     OW81964   3.408  10.593   0.276 -0.1182  0.2452  0.2431
25376SOL    HW181965   3.498  10.568   0.256  0.3223  1.9776 -0.1279
25376SOL    HW281966   3.355  10.518   0.248  1.1914 -0.7180  0.3027
25377SOL     OW81967  10.924   5.641   2.991  0.0626 -0.0170  0.3286
25377SOL    HW181968  10.898   5.724   3.030 -1.9822 -0.5881  0.2892
25377SOL    HW281969  10.896   5.648   2.900  0.6077 -0.4586  0.1203
25378SOL     OW81970   0.234  11.282  10.479 -0.0004  0.1305 -0.1223
25378SOL    HW181971   0.309  11.317  10.528  0.9925 -0.8759 -0.8691
25378SOL    HW281972   0.237  11.327  10.395  2.0517 -2.4578 -1.5900
25379SOL     OW81973   9.966   4.479   0.780 -0.1065  0.0330 -0.1511
25379SOL    HW181974  10.061   4.476   0.782 -0.0767  0.6999  0.0096
25379SOL    HW281975   9.943   4.477   0.687  0.1428  1.2664 -0.2632
25380SOL     OW81976   5.650   4.510   4.919 -0.0345  0.3958 -0.6804
25380SOL    HW181977   5.555   4.503   4.911 -0.2198  1.5216  0.3197
25380SOL    HW281978   5.666   4.602   4.940  1.0849 -0.2305  1.4614
25381SOL     OW81979  10.059   2.791   6.449  0.4189  0.1977 -0.1869
25381SOL    HW181980   9.971   2.755   6.458  0.6024 -0.3855 -0.5954
25381SOL    HW281981  10.050   2.884   6.470 -0.5282  0.4028 -1.3661
25382SOL     OW81982   7.002   8.605  12.030  0.0356  0.5304 -0.0338
25382SOL    HW181983   6.966   8.553  12.102 -0.9729 -2.6517 -2.6164
25382SOL    HW281984   7.077   8.554  11.999 -0.3877  1.0614 -2.0682
25383SOL     OW81985   5.815   3.889   9.138  0.2250  0.9561 -0.2867
25383SOL    HW181986   5.840   3.886   9.230 -1.2459  0.8954  0.1345
25383SOL    HW281987   5.879   3.833   9.093 -0.8362 -1.5049  1.1367
25384SOL     OW81988   4.214  11.538   8.798 -0.3231  0.0217  0.2503
25384SOL    HW181989   4.158  11.611   8.771 -0.3738  0.2675  1.0000
25384SOL    HW281990   4.167  11.460   8.769  0.1566  0.3018 -1.3618
25385SOL     OW81991   5.892   8.298  10.719  0.1654  0.0321  0.5610
25385SOL    HW181992   5.831   8.232  10.685 -0.8781  1.3402 -0.1861
25385SOL    HW281993   5.861   8.315  10.808 -0.1855  0.2355  0.4020
25386SOL     OW81994  12.185   3.374   1.558 -0.2845 -0.0920  0.3229
25386SOL    HW181995  12.128   3.443   1.524 -0.1022 -0.9332 -1.8859
25386SOL    HW281996  12.126   3.316   1.606 -1.2660 -0.6217 -1.4076
25387SOL     OW81997   4.709   3.126  12.036  0.2083 -0.2753 -0.0697
25387SOL    HW181998   4.714   3.098  12.127 -0.4699  1.3469  0.5021
25387SOL    HW281999   4.764   3.064  11.988  0.1397 -1.4724  1.3540
25388SOL     OW82000   1.336   2.860   5.585 -0.1733  0.2181 -0.2955
25388SOL    HW182001   1.281   2.810   5.647  0.2882 -0.1367 -0.1611
25388SOL    HW282002   1.414   2.882   5.636 -0.7378  1.8435 -0.0919
25389SOL     OW82003   5.621   4.200   2.316 -0.2009  0.3903 -0.4338
25389SOL    HW182004   5.700   4.147   2.323  0.2162  1.1776  1.5022
25389SOL    HW282005   5.616   4.225   2.223  2.0037  0.5886 -0.5344
25390SOL     OW82006   7.428   7.067  11.922 -0.2325  0.1191  0.3820
25390SOL    HW182007   7.449   7.060  11.829  0.6971  0.1244  0.5843
25390SOL    HW282008   7.428   7.161  11.940  2.3974  0.0869  0.9749
25391SOL     OW82009  11.712   3.543   8.403  0.0269  0.5800 -0.8964
25391SOL    HW182010  11.735   3.596   8.479 -0.5469  1.0713 -1.0572
25391SOL    HW282011  11.793   3.536   8.353  0.7850 -0.9470  0.4566
25392SOL     OW82012   4.406  10.858   7.554 -0.2055  0.6835 -0.1074
25392SOL    HW182013   4.388  10.951   7.537  1.8233  1.0521 -0.5506
25392SOL    HW282014   4.501  10.850   7.543 -0.2784 -1.3665  0.3772
25393SOL     OW82015  11.365   3.238   8.800 -0.2919 -0.3763 -0.4363
25393SOL    HW182016  11.337   3.221   8.710  1.0998  1.2014 -1.2194
25393SOL    HW282017  11.292   3.287   8.838 -0.3489  0.1097 -1.1399
25394SOL     OW82018   5.322  10.649  12.250 -0.0117  0.2266  0.1643
25394SOL    HW182019   5.312  10.598  12.331 -0.5392 -0.0040 -0.0441
25394SOL    HW282020   5.242  10.701  12.245  0.2501  0.6160  0.0555
25395SOL     OW82021   3.900   1.074   0.397  0.3227 -0.2659 -0.4959
25395SOL    HW182022   3.886   0.983   0.422  1.8513 -0.7781 -1.3941
25395SOL    HW282023   3.903   1.122   0.480 -3.0890 -0.5497 -0.0703
25396SOL     OW82024  10.712   4.214   8.314 -1.1198  0.1089 -0.0115
25396SOL    HW182025  10.711   4.308   8.297 -0.4932  0.4622  1.6834
25396SOL    HW282026  10.792   4.200   8.366 -3.3163 -0.6053  3.4677
25397SOL     OW82027   9.126   4.793   6.012  0.1281  0.1182  0.1733
25397SOL    HW182028   9.144   4.861   5.946  0.1688  0.1462  0.2133
25397SOL    HW282029   9.161   4.713   5.973  0.4640  0.1957  0.3072
25398SOL     OW82030   4.406  11.578   8.624  0.3896 -0.2737 -0.0875
25398SOL    HW182031   4.345  11.567   8.696 -0.4922 -0.1479 -0.7953
25398SOL    HW282032   4.369  11.526   8.552  0.4791  0.7254 -0.8905
25399SOL     OW82033   3.754   0.513   1.603  0.2034 -0.5484  0.1995
25399SOL    HW182034   3.770   0.605   1.581  1.1776 -0.9522 -0.8971
25399SOL    HW282035   3.667   0.495   1.567  0.1979 -0.1764  0.0210
25400SOL     OW82036  10.987  10.112   5.811 -0.0163 -0.8885 -0.3526
25400SOL    HW182037  10.901  10.109   5.770  0.6018 -1.0734 -1.6985
25400SOL    HW282038  10.991  10.034   5.866 -0.7613 -0.8004 -0.1761
25401SOL     OW82039   0.164  11.320   8.993  0.5925 -0.2014  0.2537
25401SOL    HW182040   0.121  11.243   9.031 -0.7354  1.0693  1.5105
25401SOL    HW282041   0.099  11.355   8.932  1.5607 -0.5871 -1.0116
25402SOL     OW82042  11.677  11.544   6.912 -0.1863  0.4280  0.1957
25402SOL    HW182043  11.708  11.542   7.003  1.2820 -0.7108 -0.2945
25402SOL    HW282044  11.705  11.460   6.876 -1.6828  0.4253 -1.0309
25403SOL     OW82045   2.323   5.638   1.073 -0.3151 -0.0037 -0.8643
25403SOL    HW182046   2.342   5.589   1.153  1.7563 -0.0068 -1.2864
25403SOL    HW282047   2.231   5.664   1.081 -0.4553 -0.9360  0.9916
25404SOL     OW82048  12.089   8.715   9.739  0.5687  0.0644 -0.2347
25404SOL    HW182049  12.027   8.765   9.792  1.2509 -0.5914  1.2452
25404SOL    HW282050  12.034   8.660   9.683 -0.2088  2.7862 -2.3091
25405SOL     OW82051   8.636   0.048   0.827 -0.3194  0.4282 -0.9124
25405SOL    HW182052   8.611   0.031   0.736  0.1160  1.2374 -1.1836
25405SOL    HW282053   8.728   0.071   0.823  0.2954 -1.6025 -0.0149
25406SOL     OW82054   3.123   1.970  12.229  0.3493  0.2273  0.0522
25406SOL    HW182055   3.200   2.012  12.268  1.8626  0.0159 -2.4899
25406SOL    HW282056   3.077   1.931  12.304  1.7262  1.8572  1.8588
25407SOL     OW82057  11.409  11.200   9.336  0.1743  0.1334 -0.4218
25407SOL    HW182058  11.375  11.112   9.320  0.3203 -0.6933  2.9685
25407SOL    HW282059  11.331  11.255   9.345 -0.0104 -0.1654 -0.1868
25408SOL     OW82060   7.867   7.147   0.801 -0.5327 -0.1104 -0.4764
25408SOL    HW182061   7.888   7.066   0.754  2.7936  0.5421 -0.3903
25408SOL    HW282062   7.934   7.152   0.870 -2.1119  1.5584  1.0295
25409SOL     OW82063   9.209   4.814   6.939  0.7562 -0.1913  0.6142
25409SOL    HW182064   9.242   4.878   7.002  0.3533 -1.1396  1.8324
25409SOL    HW282065   9.125   4.849   6.910  0.4127 -0.2839  1.4826
25410SOL     OW82066   7.575   6.035   3.661  0.0773 -0.1626  0.1685
25410SOL    HW182067   7.649   6.083   3.624 -0.7068 -0.6370 -2.1841
25410SOL    HW282068   7.568   5.957   3.606 -1.6576 -0.5377  0.8624
25411SOL     OW82069   1.676  10.524   6.833  0.3827 -0.3780  0.1437
25411SOL    HW182070   1.750  10.470   6.859  1.0744  0.2598 -0.4487
25411SOL    HW282071   1.600  10.467   6.845  1.0891 -1.5133 -0.5021
25412SOL     OW82072   7.628   8.795   4.509  0.2356  0.8255 -0.3549
25412SOL    HW182073   7.689   8.722   4.502 -0.0751  0.5581 -0.3170
25412SOL    HW282074   7.565   8.767   4.576  0.8031  1.6186  0.5402
25413SOL     OW82075   9.038   2.184   3.569  0.1131  0.0623  0.0444
25413SOL    HW182076   9.081   2.229   3.641  0.5509 -0.0613 -0.1377
25413SOL    HW282077   9.061   2.092   3.581 -0.5508 -0.0835  0.2568
25414SOL     OW82078   7.763  10.797  10.595 -0.1872  0.0131  0.0921
25414SOL    HW182079   7.804  10.817  10.511  1.0702  0.0248  0.6956
25414SOL    HW282080   7.685  10.746  10.572  0.7809 -1.0076 -1.0094
25415SOL     OW82081   1.237   7.763   5.598  0.6415  0.5610 -0.6695
25415SOL    HW182082   1.156   7.737   5.642 -0.0946 -0.8013 -2.7257
25415SOL    HW282083   1.271   7.834   5.653 -0.7362 -0.3317  1.4907
25416SOL     OW82084  12.020   9.891   7.090 -0.3696 -0.3574 -0.3564
25416SOL    HW182085  12.023   9.829   7.164 -1.6276  1.0537  0.9430
25416SOL    HW282086  12.100   9.872   7.041 -0.3882 -2.5687  0.3341
25417SOL     OW82087   7.598   4.947  11.579 -0.5816 -0.4331 -0.3649
25417SOL    HW182088   7.605   5.014  11.647 -1.6234 -0.2836 -0.3822
25417SOL    HW282089   7.508   4.955  11.547 -0.7728 -1.9297 -0.2712
25418SOL     OW82090   4.462   0.090  10.389 -0.1960 -0.2088 -0.8080
25418SOL    HW182091   4.512   0.046  10.321  0.4591 -1.8254  0.6397
25418SOL    HW282092   4.509   0.070  10.470 -0.8137  1.8441  0.1212
25419SOL     OW82093   6.979   5.989   0.978 -0.4581  0.1134 -0.0369
25419SOL    HW182094   6.936   6.016   0.896 -2.5337 -2.1978  0.1888
25419SOL    HW282095   7.005   5.898   0.962 -0.4609 -0.2106  1.6905
25420SOL     OW82096   8.749   5.522   6.208  0.3760 -0.0049 -0.0711
25420SOL    HW182097   8.813   5.585   6.241 -0.4922  0.9170 -0.0807
25420SOL    HW282098   8.780   5.501   6.120  0.8017  0.2226  0.0185
25421SOL     OW82099  11.617   8.084   7.991  0.0398 -0.4042 -0.2455
25421SOL    HW182100  11.620   8.068   8.085  1.3402  0.1484 -0.1792
25421SOL    HW282101  11.548   8.025   7.959 -0.1972 -0.8273  0.9962
25422SOL     OW82102   9.349   8.138   8.430  0.0050 -0.3825  0.7540
25422SOL    HW182103   9.430   8.133   8.481 -0.3843  0.3446  1.4526
25422SOL    HW282104   9.343   8.229   8.403  1.4666 -1.1548 -2.7532
25423SOL     OW82105   0.811   6.389   6.087 -0.0460 -0.1279  0.4230
25423SOL    HW182106   0.884   6.379   6.026 -0.6568 -0.9736 -0.1941
25423SOL    HW282107   0.851   6.422   6.167  0.9244 -0.0023 -0.0969
25424SOL     OW82108   8.530   1.143  10.160 -0.3351  0.4262 -0.6891
25424SOL    HW182109   8.471   1.208  10.121  1.9326  3.2655  0.2278
25424SOL    HW282110   8.590   1.121  10.089 -0.5365  0.0461 -0.7421
25425SOL     OW82111  12.291   4.928   7.408 -0.1228 -0.2154  0.2927
25425SOL    HW182112  12.373   4.954   7.365 -0.4738  0.5583  0.0645
25425SOL    HW282113  12.269   4.843   7.370  0.7498 -0.5979  0.6083
25426SOL     OW82114   2.484  12.322   5.930  0.6080  0.2354  0.4410
25426SOL    HW182115   2.465  12.256   5.997 -1.0593  0.9596  0.7313
25426SOL    HW282116   2.398  12.357   5.906  1.3407  1.3150 -0.7318
25427SOL     OW82117   0.268  10.090   7.725  0.2414 -0.0705  0.2419
25427SOL    HW182118   0.319  10.012   7.704 -0.8857 -1.2121  1.5035
25427SOL    HW282119   0.296  10.156   7.661  1.2185 -1.5040 -0.8631
25428SOL     OW82120   1.410   3.786   7.345  0.0174  0.3785  0.2483
25428SOL    HW182121   1.492   3.806   7.391  0.1325 -0.1933  0.3015
25428SOL    HW282122   1.431   3.711   7.289 -0.1855  0.9300 -0.5685
25429SOL     OW82123   6.820   8.152  10.971  0.6517  0.1797 -0.8753
25429SOL    HW182124   6.767   8.089  10.923  1.7469 -1.7651  0.2774
25429SOL    HW282125   6.893   8.172  10.913 -0.9120  2.3773 -2.2129
25430SOL     OW82126   7.461   6.542   5.513 -0.2023  0.1270  0.2159
25430SOL    HW182127   7.415   6.625   5.527 -0.6626 -0.1708  0.5157
25430SOL    HW282128   7.492   6.546   5.423 -0.9156  0.2928 -0.0273
25431SOL     OW82129   3.942   3.850  10.333  0.0909 -0.3414 -0.3128
25431SOL    HW182130   3.886   3.801  10.272 -0.2514 -0.4915  0.1142
25431SOL    HW282131   4.030   3.840  10.298  0.5071 -3.6836  1.2466
25432SOL     OW82132   6.648   3.492   8.220 -0.4398  0.1797 -0.0350
25432SOL    HW182133   6.708   3.490   8.145 -0.7115 -0.1846 -0.2444
25432SOL    HW282134   6.639   3.585   8.240 -0.1201  0.2633 -0.2559
25433SOL     OW82135   3.831   3.724   8.035  0.3625  0.2125  0.6556
25433SOL    HW182136   3.820   3.792   8.102 -1.0301  0.6982 -0.0317
25433SOL    HW282137   3.746   3.719   7.991  0.9699 -0.7483 -0.4728
25434SOL     OW82138   1.021   1.775   4.986 -0.9021  0.1970  0.0925
25434SOL    HW182139   1.028   1.869   5.006 -0.9853  0.0681  0.7803
25434SOL    HW282140   1.105   1.752   4.948 -0.4146  0.2933  1.0871
25435SOL     OW82141   1.174   0.652  11.505  0.0970 -0.0085  0.0681
25435SOL    HW182142   1.160   0.583  11.570 -1.5434 -0.9336 -1.2081
25435SOL    HW282143   1.258   0.631  11.466  0.1536 -0.5928  0.4937
25436SOL     OW82144   2.212  11.142   7.429  0.7101 -0.2892  0.0093
25436SOL    HW182145   2.268  11.098   7.365  0.5605 -0.5005  0.0212
25436SOL    HW282146   2.245  11.232   7.432  1.4478 -0.5681  0.4782
25437SOL     OW82147   2.089   6.349   2.700  0.0089 -0.1327 -0.7179
25437SOL    HW182148   2.096   6.434   2.658  1.3176 -0.5566 -1.4225
25437SOL    HW282149   2.166   6.343   2.756 -0.5465 -0.4943  0.0250
25438SOL     OW82150   7.048   3.899   8.648  0.1033  0.2914 -0.7484
25438SOL    HW182151   7.049   3.989   8.615 -1.6922  0.3902 -0.6408
25438SOL    HW282152   7.006   3.849   8.578 -0.7103 -0.0856 -0.0058
25439SOL     OW82153  11.893   1.304   6.766 -0.5965 -0.2395  0.2889
25439SOL    HW182154  11.941   1.338   6.842 -1.2473 -0.5667  0.8596
25439SOL    HW282155  11.883   1.211   6.784  1.4336 -0.8635 -1.4032
25440SOL     OW82156   2.780   9.290   2.662  0.5068  0.4148  0.0234
25440SOL    HW182157   2.724   9.296   2.585  0.7409  1.0665 -0.1057
25440SOL    HW282158   2.868   9.276   2.627  0.3266 -1.4904  0.2515
25441SOL     OW82159   0.571   6.140   0.732 -0.1056  0.1490 -0.1104
25441SOL    HW182160   0.661   6.122   0.705 -0.4177  0.3545 -1.3194
25441SOL    HW282161   0.535   6.054   0.754 -0.7004 -0.4746 -3.1057
25442SOL     OW82162  10.512   9.439   1.570  0.1076 -0.6815  0.0353
25442SOL    HW182163  10.569   9.392   1.509  0.5272  0.2620 -0.3215
25442SOL    HW282164  10.453   9.489   1.514 -0.6252 -1.1219  0.4073
25443SOL     OW82165   6.767   6.602   2.231  0.1414 -0.0646 -0.0020
25443SOL    HW182166   6.831   6.586   2.300 -0.2721  0.3481  0.4896
25443SOL    HW282167   6.804   6.675   2.181 -0.1431  0.4936  0.5674
25444SOL     OW82168   9.579   6.867   4.669  0.4394 -0.2241 -0.3328
25444SOL    HW182169   9.642   6.913   4.724  1.3457 -1.3806 -0.3718
25444SOL    HW282170   9.502   6.856   4.725  0.7423  0.0763  0.1463
25445SOL     OW82171   3.973   2.791   6.989 -0.1834 -0.0980  0.1797
25445SOL    HW182172   3.894   2.795   7.042 -0.3477 -0.6628 -0.0136
25445SOL    HW282173   4.040   2.756   7.048  0.4194  2.1040  0.8991
25446SOL     OW82174  11.576  11.093   2.404 -0.2795  0.6100  0.0793
25446SOL    HW182175  11.573  11.142   2.322 -1.8320  2.0465  0.9309
25446SOL    HW282176  11.603  11.157   2.469 -0.0304 -0.2630  0.8569
25447SOL     OW82177   4.116   3.492   7.854  0.2877  0.2213  0.5050
25447SOL    HW182178   4.149   3.486   7.764  1.3708 -1.3389  0.9734
25447SOL    HW282179   4.167   3.562   7.894  0.8332 -0.0657  0.3151
25448SOL     OW82180   7.014   9.913   6.814 -0.2168 -0.2558  0.1818
25448SOL    HW182181   7.033   9.819   6.814  0.9009 -0.0509  1.1799
25448SOL    HW282182   7.064   9.948   6.741  0.3679 -0.2566  0.5790
25449SOL     OW82183  11.281   2.062   3.566 -0.0679  0.3654  0.1399
25449SOL    HW182184  11.277   1.970   3.539  2.2264 -0.5499  2.5009
25449SOL    HW282185  11.226   2.066   3.644 -1.8472  1.5561 -1.1223
25450SOL     OW82186   8.945   2.960   0.379 -0.2676 -0.1420  0.0985
25450SOL    HW182187   9.006   3.033   0.370  0.1246 -0.6500 -1.6063
25450SOL    HW282188   8.997   2.882   0.361 -1.1546 -0.6670 -0.2796
25451SOL     OW82189   1.468  11.579   7.063  0.4132 -0.2865 -0.3540
25451SOL    HW182190   1.545  11.532   7.095  0.4814  1.0544  1.6421
25451SOL    HW282191   1.426  11.612   7.143 -1.7507 -0.2348 -1.4558
25452SOL     OW82192   6.584   9.891   4.483  0.6817  0.5029  0.3749
25452SOL    HW182193   6.542   9.822   4.431  0.3037  0.0147  1.2964
25452SOL    HW282194   6.632   9.843   4.551  0.2809  1.1464  1.1251
25453SOL     OW82195   8.263   4.768   0.466  0.0388  0.2590  0.3390
25453SOL    HW182196   8.352   4.799   0.452  0.1427 -0.1962 -0.0451
25453SOL    HW282197   8.227   4.759   0.378 -0.4897  0.7324  0.5020
25454SOL     OW82198  11.333   4.085   9.602  0.5156  0.7194 -0.1207
25454SOL    HW182199  11.421   4.109   9.632  0.4715 -0.1597  0.7715
25454SOL    HW282200  11.346   4.046   9.516  1.0311  0.3442  0.1234
25455SOL     OW82201  10.252   2.845   7.102  0.2044 -0.1580  0.3666
25455SOL    HW182202  10.275   2.811   7.016 -0.1930 -0.2227  0.2862
25455SOL    HW282203  10.226   2.768   7.153  1.2300 -0.2333  0.8072
25456SOL     OW82204   8.905   4.050  11.364  0.7367 -0.0748 -1.1732
25456SOL    HW182205   8.856   3.987  11.311  0.1894  1.3730 -2.4469
25456SOL    HW282206   8.988   4.061  11.317  1.3758 -0.7593 -0.2625
25457SOL     OW82207   3.387   8.382  12.090 -0.4719 -0.5341 -0.2225
25457SOL    HW182208   3.322   8.449  12.111  0.2700  0.0403  0.3097
25457SOL    HW282209   3.346   8.330  12.021 -1.0566  0.4936 -0.6858
25458SOL     OW82210  11.828   8.253   9.675 -0.0719  0.4856 -0.2501
25458SOL    HW182211  11.803   8.182   9.734 -1.2801  2.2992  1.5505
25458SOL    HW282212  11.749   8.307   9.667  1.2724  2.6027 -0.0905
25459SOL     OW82213   1.980   6.801   6.849 -0.6236 -0.1010 -0.2617
25459SOL    HW182214   1.987   6.750   6.768 -0.2139 -1.4201  0.5775
25459SOL    HW282215   2.070   6.828   6.867 -0.6451 -0.2270  0.0242
25460SOL     OW82216   2.367   7.607   2.333  0.2416  0.0536 -0.3416
25460SOL    HW182217   2.346   7.525   2.379  1.0747 -0.9308 -1.6653
25460SOL    HW282218   2.390   7.580   2.244  2.7258  1.4722 -0.2254
25461SOL     OW82219   3.864  12.307   3.477  0.1914 -0.1317 -0.6913
25461SOL    HW182220   3.804  12.282   3.407 -0.4354 -1.3709  0.2311
25461SOL    HW282221   3.840  12.250   3.550 -0.3730  2.3270  1.1429
25462SOL     OW82222   7.998   0.064   5.032  0.3570 -0.1580  0.5078
25462SOL    HW182223   7.918   0.116   5.040 -0.4127 -1.0995 -0.7456
25462SOL    HW282224   8.067   0.122   5.064 -0.5676  1.3337 -0.0813
25463SOL     OW82225  10.339   9.991   8.254 -0.8201 -0.4735  0.3247
25463SOL    HW182226  10.263  10.004   8.310 -3.0444 -1.7387 -2.1318
25463SOL    HW282227  10.370   9.903   8.275 -0.3901 -0.1950  0.8909
25464SOL     OW82228   2.836   8.941  10.668 -0.1308 -0.0256 -0.0446
25464SOL    HW182229   2.780   9.001  10.716 -1.5997 -1.0372 -0.4294
25464SOL    HW282230   2.920   8.943  10.715 -0.6592  1.0893  0.8802
25465SOL     OW82231   1.521   0.634   2.354 -0.2916  0.1301 -0.7174
25465SOL    HW182232   1.547   0.645   2.445  1.8963 -0.2796 -1.2319
25465SOL    HW282233   1.464   0.558   2.354  1.5586 -1.3367  0.0611
25466SOL     OW82234   4.001   5.192   7.100 -0.1486  0.1510 -0.0914
25466SOL    HW182235   4.007   5.100   7.126 -0.0282 -0.0153 -0.7061
25466SOL    HW282236   3.984   5.190   7.006  1.4995  0.7668 -0.4420
25467SOL     OW82237   4.541  10.753   5.846 -0.4348 -0.8154  0.3724
25467SOL    HW182238   4.559  10.823   5.783  1.1063 -2.2817 -0.8969
25467SOL    HW282239   4.466  10.707   5.809  0.1472 -1.3616 -0.1466
25468SOL     OW82240   0.782  10.644  10.783 -0.3400 -0.3169 -0.2458
25468SOL    HW182241   0.749  10.561  10.818 -0.9461  0.1160  0.2293
25468SOL    HW282242   0.820  10.689  10.859 -0.6134  0.1267 -0.3681
25469SOL     OW82243  10.212   0.904   7.908 -0.0134  0.2931  0.5819
25469SOL    HW182244  10.295   0.928   7.948  0.8141 -0.6001 -0.5291
25469SOL    HW282245  10.156   0.878   7.981  1.0035 -0.0234  1.2719
25470SOL     OW82246   5.661   0.137   1.654  0.2509  0.0082 -0.0571
25470SOL    HW182247   5.580   0.106   1.614 -0.4757  0.7468  0.8047
25470SOL    HW282248   5.644   0.228   1.676  1.4017  0.2429 -0.0672
25471SOL     OW82249   0.929   5.190   8.807 -0.2764  0.5684 -0.4439
25471SOL    HW182250   0.861   5.227   8.751 -1.2220 -1.8691 -1.0279
25471SOL    HW282251   0.994   5.156   8.745  0.0346  0.2786  0.0407
25472SOL     OW82252   4.360   7.786   7.359 -0.6288 -0.0978 -0.4356
25472SOL    HW182253   4.432   7.723   7.361 -0.0980  0.4891 -0.6379
25472SOL    HW282254   4.291   7.742   7.309 -0.8479 -1.1040  0.7263
25473SOL     OW82255  11.816   5.892   1.336  0.6278 -0.3086  0.6581
25473SOL    HW182256  11.902   5.871   1.301 -0.1810 -0.0980 -1.5688
25473SOL    HW282257  11.797   5.820   1.397  2.2063 -0.5215  0.9352
25474SOL     OW82258   8.449   6.067   4.648  0.2070  0.5899 -0.1036
25474SOL    HW182259   8.363   6.096   4.619 -1.0653 -1.1496  1.6679
25474SOL    HW282260   8.466   6.118   4.727  1.1309  1.3543 -0.7652
25475SOL     OW82261   4.362   8.860   3.922  0.1652  0.5550 -0.3595
25475SOL    HW182262   4.437   8.833   3.871  0.8995  1.6541  0.0932
25475SOL    HW282263   4.367   8.956   3.923 -0.5290  0.5986  0.7144
25476SOL     OW82264   7.014   9.506   7.767 -0.1801  0.2294  1.3034
25476SOL    HW182265   7.108   9.502   7.787 -0.0698  1.0738  0.9974
25476SOL    HW282266   6.989   9.415   7.752  0.8722  0.0996  0.1339
25477SOL     OW82267   2.265   0.310   7.488 -0.1016  0.2252  0.3281
25477SOL    HW182268   2.187   0.316   7.433 -0.3844  0.2147  0.7258
25477SOL    HW282269   2.316   0.389   7.467 -0.1683  0.1820 -0.0024
25478SOL     OW82270   3.559   5.001   8.268 -0.3958  0.3437  0.4294
25478SOL    HW182271   3.606   4.925   8.303  1.0813  0.3308 -1.4296
25478SOL    HW282272   3.549   4.983   8.175 -1.5570  1.6811  0.2555
25479SOL     OW82273   4.261   4.723   4.935  0.2742 -0.3643  0.0521
25479SOL    HW182274   4.212   4.793   4.892  0.2568 -0.6119 -0.3317
25479SOL    HW282275   4.220   4.642   4.904  0.4070 -0.5507  0.3602
25480SOL     OW82276  10.031   1.362   9.288 -0.1274 -0.4547 -0.2613
25480SOL    HW182277  10.037   1.345   9.194  2.1776  0.1466 -0.2917
25480SOL    HW282278   9.956   1.420   9.298  0.3063  0.4511 -1.9103
25481SOL     OW82279   0.359   9.273   6.917 -0.2780 -0.2017  0.3444
25481SOL    HW182280   0.418   9.306   6.984  0.3915 -1.5743  0.4767
25481SOL    HW282281   0.374   9.330   6.841  1.1291 -0.4157  0.4298
25482SOL     OW82282   0.505  11.924   2.427  0.1709  0.0333 -0.4871
25482SOL    HW182283   0.447  11.970   2.366  1.1841 -0.9625 -2.2987
25482SOL    HW282284   0.461  11.841   2.444  0.2364  0.0060 -0.4515
25483SOL     OW82285  11.417   7.380   5.534  0.1205  0.1361  0.2141
25483SOL    HW182286  11.483   7.323   5.494  0.2425  2.1586 -2.7252
25483SOL    HW282287  11.416   7.354   5.626  0.4616 -4.2588 -0.8092
25484SOL     OW82288   1.822   2.802   2.733 -0.2541 -0.0410 -0.2719
25484SOL    HW182289   1.847   2.773   2.821 -2.2130  2.1879  1.1514
25484SOL    HW282290   1.905   2.825   2.691  0.7055 -0.8617  1.0894
25485SOL     OW82291   1.056  10.959   1.839  0.3034  0.0611  0.7405
25485SOL    HW182292   1.007  11.038   1.818 -0.4123  0.0396  2.2637
25485SOL    HW282293   1.084  10.970   1.930  3.1832  0.0877 -0.0366
25486SOL     OW82294   4.696   9.169  10.911  0.3850 -0.6434  0.2268
25486SOL    HW182295   4.791   9.181  10.916  0.2962  0.0246  0.3593
25486SOL    HW282296   4.683   9.077  10.936  1.0026 -0.7730  0.0959
25487SOL     OW82297   6.407   1.426   6.353 -0.0679  0.2613  0.2494
25487SOL    HW182298   6.355   1.457   6.427 -1.4755 -1.1295 -0.1028
25487SOL    HW282299   6.485   1.482   6.354  0.0376  0.2068  2.8512
25488SOL     OW82300   3.558  11.498   6.514 -0.2273  0.8604  0.0997
25488SOL    HW182301   3.653  11.510   6.505 -0.2178 -0.3141 -2.0850
25488SOL    HW282302   3.531  11.461   6.430 -3.0047  3.2294 -0.2054
25489SOL     OW82303   2.234   4.342   7.290 -0.0321  0.3721 -0.0081
25489SOL    HW182304   2.238   4.428   7.249  0.9494  0.5903  0.5011
25489SOL    HW282305   2.202   4.283   7.221  0.2084  0.9795 -0.6431
25490SOL     OW82306   4.630  11.196  12.188 -0.2364  0.5583 -0.5061
25490SOL    HW182307   4.588  11.197  12.275  1.1093  0.3057  0.1655
25490SOL    HW282308   4.570  11.247  12.133 -0.5650  1.7098  0.8342
25491SOL     OW82309   9.919   4.337   5.520 -0.0282 -0.0959  0.3596
25491SOL    HW182310   9.882   4.340   5.431  4.9408  1.2106 -2.0086
25491SOL    HW282311   9.931   4.244   5.537 -1.0370 -0.3681 -0.2861
25492SOL     OW82312   0.294   8.068   8.643 -0.0283  0.2720  0.4181
25492SOL    HW182313   0.200   8.069   8.627  0.2106 -0.8423 -1.2806
25492SOL    HW282314   0.304   8.110   8.728 -2.1427 -0.4316  1.0785
25493SOL     OW82315   9.680   4.408   0.766  0.2402  0.0666 -0.2647
25493SOL    HW182316   9.766   4.367   0.771 -0.1789 -0.6801  2.6158
25493SOL    HW282317   9.696   4.500   0.787  0.1382 -0.5590  3.0225
25494SOL     OW82318   2.266   9.592   8.677 -0.1303 -0.9115  0.0195
25494SOL    HW182319   2.304   9.627   8.597  0.0068  0.4946  0.6775
25494SOL    HW282320   2.172   9.586   8.659 -0.0576 -0.9603 -0.3585
25495SOL     OW82321   8.268   0.308   6.928 -0.8170 -0.2085  0.0655
25495SOL    HW182322   8.223   0.224   6.936 -2.1760  0.1594 -2.5825
25495SOL    HW282323   8.200   0.373   6.944 -0.9819  0.3385 -2.3446
25496SOL     OW82324  11.311   0.275   2.636 -0.7065 -0.4288  0.0804
25496SOL    HW182325  11.378   0.211   2.613 -1.6409 -0.9679 -1.2441
25496SOL    HW282326  11.345   0.358   2.604 -2.5071 -1.2784 -4.9226
25497SOL     OW82327   1.529   1.536   8.046 -0.2413 -0.1140 -0.1595
25497SOL    HW182328   1.572   1.585   7.977 -1.3049  0.3070 -0.5352
25497SOL    HW282329   1.479   1.469   8.001  0.3496 -0.8902  0.2995
25498SOL     OW82330   6.458   3.458   8.001  0.1507 -0.4946 -0.1682
25498SOL    HW182331   6.498   3.458   8.088  1.3366 -0.3757 -0.6974
25498SOL    HW282332   6.463   3.549   7.973 -1.1324 -0.3444  0.0196
25499SOL     OW82333  10.848  10.694   4.029 -0.0681  1.1465 -0.3205
25499SOL    HW182334  10.791  10.733   4.095  0.8685 -2.3360  2.8584
25499SOL    HW282335  10.810  10.608   4.012  1.6475  0.6132 -1.7721
25500SOL     OW82336   2.218   6.007   6.349 -0.1108 -0.2415  0.0718
25500SOL    HW182337   2.158   5.939   6.380  1.8363 -1.5807  1.2023
25500SOL    HW282338   2.305   5.972   6.369  0.9999  2.5977  0.6768
25501SOL     OW82339   5.479   4.730   2.161  0.2565  0.0328  0.1614
25501SOL    HW182340   5.520   4.800   2.111  0.5587  0.5681  1.1170
25501SOL    HW282341   5.486   4.652   2.106  2.6146  0.0823  0.3177
25502SOL     OW82342   6.541   7.315   0.142 -0.0438 -0.6310  0.4844
25502SOL    HW182343   6.524   7.223   0.160  0.0025 -1.0329 -1.3747
25502SOL    HW282344   6.455   7.352   0.119 -0.0186 -0.2689  0.9521
25503SOL     OW82345   5.836   2.631   3.632  0.0762 -0.4637 -0.0429
25503SOL    HW182346   5.764   2.612   3.571  0.9092 -0.3668 -1.1036
25503SOL    HW282347   5.848   2.550   3.681  0.2767 -1.0130 -0.9786
25504SOL     OW82348   4.068   8.847   2.350 -0.3930 -0.0840  0.2701
25504SOL    HW182349   4.087   8.831   2.257 -1.7535  0.8438 -0.1991
25504SOL    HW282350   4.042   8.939   2.353  0.3716  0.1115  1.7223
25505SOL     OW82351  10.909  10.640   5.666  0.5977  0.1356  0.4005
25505SOL    HW182352  10.912  10.640   5.571 -1.0794  1.3940  0.2987
25505SOL    HW282353  10.993  10.676   5.693  1.9681 -2.1971 -0.4827
25506SOL     OW82354  12.077   2.185   7.196  0.4632 -0.3361  0.2363
25506SOL    HW182355  12.155   2.240   7.192  0.0428  0.2952  0.5198
25506SOL    HW282356  12.084   2.139   7.279 -0.8216  1.8343  1.6537
25507SOL     OW82357   8.900   2.857   7.744  0.0702 -0.1813 -0.0573
25507SOL    HW182358   8.995   2.845   7.744  0.0486 -0.3830  0.1212
25507SOL    HW282359   8.883   2.924   7.679  0.3802  0.2063  0.2588
25508SOL     OW82360   2.712   6.544   6.630  0.3165  0.0365  0.2443
25508SOL    HW182361   2.661   6.464   6.636  2.4295 -1.4158 -0.1595
25508SOL    HW282362   2.648   6.612   6.609 -1.3526 -1.7644 -0.7340
25509SOL     OW82363   0.580   5.932   9.272 -0.4470 -0.6033 -0.2127
25509SOL    HW182364   0.636   5.887   9.208  1.9438  0.7767  0.7786
25509SOL    HW282365   0.534   5.861   9.317  0.2993 -1.8005 -1.2591
25510SOL     OW82366   5.550   1.651   3.128 -0.1964  0.3828 -0.5336
25510SOL    HW182367   5.485   1.617   3.189  0.0626 -1.0376 -1.0083
25510SOL    HW282368   5.582   1.731   3.169 -1.9308  0.8921 -0.0969
25511SOL     OW82369   3.734   9.762   2.404  0.5422 -0.0273 -0.2692
25511SOL    HW182370   3.719   9.854   2.426 -2.6582 -1.1146  3.1592
25511SOL    HW282371   3.796   9.731   2.470  1.0306 -0.5522 -0.9557
25512SOL     OW82372  12.330   9.745   8.490  0.2036  0.3003  0.2803
25512SOL    HW182373  12.369   9.697   8.562 -0.5240  1.7044  1.6840
25512SOL    HW282374  12.390   9.818   8.474  0.5801 -0.2394 -0.8525
25513SOL     OW82375  10.503   0.876   9.998  0.2945  0.2438  0.4445
25513SOL    HW182376  10.548   0.858   9.915 -1.5781  1.6597 -0.9647
25513SOL    HW282377  10.416   0.839   9.986  0.8592 -2.2374  3.0304
25514SOL     OW82378  11.743   3.016   1.443  0.2578  0.0271  0.0653
25514SOL    HW182379  11.654   3.052   1.447  0.3292  0.3161 -0.8659
25514SOL    HW282380  11.761   3.005   1.350  0.3942 -2.0817  0.2851
25515SOL     OW82381   3.130   9.577   7.679  0.1021  0.1197 -0.2547
25515SOL    HW182382   3.040   9.546   7.663  0.1831 -0.9754  1.2029
25515SOL    HW282383   3.176   9.499   7.711  1.7711  0.4949 -1.5766
25516SOL     OW82384   3.676   2.429   5.200 -0.7727  0.0321 -0.1105
25516SOL    HW182385   3.662   2.520   5.173  0.0990  0.4721  0.8268
25516SOL    HW282386   3.665   2.378   5.120  0.0213  1.1134 -0.9419
25517SOL     OW82387   3.181   4.459  12.171  0.2956  0.1103  0.4693
25517SOL    HW182388   3.205   4.374  12.207  1.4432 -0.2422 -1.0263
25517SOL    HW282389   3.248   4.519  12.204  1.0370 -0.1119 -0.5573
25518SOL     OW82390   9.022  10.350  10.655  0.3672  0.0097  0.2847
25518SOL    HW182391   8.997  10.309  10.572  0.7800 -0.4938  0.4053
25518SOL    HW282392   8.984  10.438  10.650 -1.0476 -0.5699  0.2667
25519SOL     OW82393  10.679   8.038   1.264  0.4044  0.0285  0.0756
25519SOL    HW182394  10.733   8.083   1.199  0.0771  0.7520  0.3055
25519SOL    HW282395  10.609   7.996   1.213  0.5350  0.0278 -0.1030
25520SOL     OW82396  11.710   2.925   2.273  0.1533  0.1369 -0.8804
25520SOL    HW182397  11.785   2.903   2.218  2.0643 -2.6113  2.4438
25520SOL    HW282398  11.663   2.843   2.284 -2.0576  1.3251 -0.9818
25521SOL     OW82399   4.331   2.239   0.129 -0.1461  0.0632 -0.0352
25521SOL    HW182400   4.261   2.294   0.094  0.5591  1.1051  0.1404
25521SOL    HW282401   4.378   2.209   0.052 -2.0010 -2.4262 -0.3295
25522SOL     OW82402  10.587   7.397   2.313 -0.4242  0.3905 -0.1767
25522SOL    HW182403  10.523   7.447   2.261  0.5085  1.4587 -0.3207
25522SOL    HW282404  10.575   7.306   2.283 -1.5155  0.6395 -0.5628
25523SOL     OW82405   9.646   6.984   4.973  0.8146 -0.2443 -0.5166
25523SOL    HW182406   9.578   6.919   4.990 -2.2612  2.6249 -0.7903
25523SOL    HW282407   9.661   7.026   5.057  2.6911 -1.1314 -0.3636
25524SOL     OW82408   2.767   3.390   6.967  0.2185 -0.3085 -0.2998
25524SOL    HW182409   2.712   3.319   6.934 -0.9750  1.0219 -1.2697
25524SOL    HW282410   2.825   3.411   6.894 -0.3897  0.6468 -0.5143
25525SOL     OW82411   9.623   3.863   5.263 -0.0541 -0.5879  0.5898
25525SOL    HW182412   9.713   3.857   5.296  0.1324  2.1032  0.7674
25525SOL    HW282413   9.570   3.884   5.339 -0.3017  1.1737 -0.0308
25526SOL     OW82414   8.565   1.260   6.840 -0.3993  0.6207 -0.1014
25526SOL    HW182415   8.576   1.355   6.829 -0.6394  0.5776 -0.7640
25526SOL    HW282416   8.543   1.228   6.752  0.8789 -0.2206 -0.1339
25527SOL     OW82417   3.453   3.422   7.078  0.1765  0.4320 -0.3901
25527SOL    HW182418   3.489   3.412   6.990  0.5373  0.5124 -0.2508
25527SOL    HW282419   3.524   3.460   7.129 -0.4818  1.7052 -0.3912
25528SOL     OW82420   6.548   8.182  10.009  0.2193 -0.1645  0.2653
25528SOL    HW182421   6.456   8.166   9.989 -0.2261  0.7118  1.4996
25528SOL    HW282422   6.574   8.107  10.062  0.4443 -0.7677 -0.6595
25529SOL     OW82423  12.143   3.581   0.276  0.5077  0.2178 -0.2985
25529SOL    HW182424  12.176   3.601   0.363 -0.3399  0.5994 -0.0629
25529SOL    HW282425  12.223   3.566   0.224  1.0514 -3.4230  1.2516
25530SOL     OW82426   0.324   8.826   3.631 -0.3468  0.3436 -0.5956
25530SOL    HW182427   0.390   8.895   3.640  0.5481 -0.3251 -1.8128
25530SOL    HW282428   0.258   8.864   3.573 -0.0814  0.3259 -0.9077
25531SOL     OW82429   5.332   2.256   8.198  0.1143  0.6164 -0.0694
25531SOL    HW182430   5.304   2.165   8.210 -1.7883  1.4404  2.8737
25531SOL    HW282431   5.268   2.293   8.137 -0.2520  0.4293  0.1974
25532SOL     OW82432   2.254   5.974   5.387 -0.4065 -0.3478 -0.0286
25532SOL    HW182433   2.287   6.053   5.344 -3.1606  2.3818  2.3777
25532SOL    HW282434   2.320   5.955   5.455 -0.4123  0.8175  0.3248
25533SOL     OW82435   0.927   3.400  10.311 -0.4354 -0.1832  0.3023
25533SOL    HW182436   0.920   3.331  10.376 -1.5749 -0.4999 -0.1470
25533SOL    HW282437   0.838   3.412  10.277 -0.4185  1.9560  0.8416
25534SOL     OW82438   3.455   3.941   3.762 -0.0146 -0.3033 -0.4430
25534SOL    HW182439   3.365   3.938   3.729 -0.0542 -0.8676 -0.2947
25534SOL    HW282440   3.508   3.962   3.685 -0.2597 -0.1048 -0.5600
25535SOL     OW82441   3.528   7.869   5.626 -0.8250  0.0579  0.6561
25535SOL    HW182442   3.480   7.839   5.548 -0.6159 -0.4315  0.7107
25535SOL    HW282443   3.464   7.860   5.698 -0.2667 -1.8805  0.9610
25536SOL     OW82444   3.496  10.532   7.596  1.0424 -0.3172 -0.0282
25536SOL    HW182445   3.453  10.554   7.513  1.0153 -1.6301 -0.3889
25536SOL    HW282446   3.426  10.538   7.660  0.7212 -0.7264 -0.3354
25537SOL     OW82447  12.327  11.007   8.557 -0.0664 -0.7611 -0.4213
25537SOL    HW182448  12.233  10.992   8.547 -0.5694  1.7733 -0.3187
25537SOL    HW282449  12.364  10.983   8.472 -1.3331  1.2090 -1.6344
25538SOL     OW82450   9.699   0.187   8.881  0.5002 -0.2632  0.0556
25538SOL    HW182451   9.636   0.163   8.814  0.4799 -0.9134  0.2968
25538SOL    HW282452   9.781   0.200   8.833  0.3952 -0.3208 -0.1417
25539SOL     OW82453   6.125   2.567   0.961  0.0006  0.5047 -0.2791
25539SOL    HW182454   6.189   2.617   0.910  1.3258 -1.6231 -0.8294
25539SOL    HW282455   6.127   2.479   0.923 -2.0095 -0.0857  0.8300
25540SOL     OW82456   4.531   8.644   9.230 -0.1468  0.2901 -0.3373
25540SOL    HW182457   4.517   8.549   9.228  0.1759  0.2499 -0.7533
25540SOL    HW282458   4.626   8.655   9.233 -0.1999  0.5936  0.3354
25541SOL     OW82459   9.221   5.221   5.647 -0.4895 -0.1905 -0.1421
25541SOL    HW182460   9.279   5.297   5.650 -0.1633 -0.4724  1.5510
25541SOL    HW282461   9.205   5.207   5.554 -0.7052  2.0464 -0.4911
25542SOL     OW82462  10.705   7.915   4.215  0.7234  0.1840 -0.3487
25542SOL    HW182463  10.741   7.850   4.154  0.6899  0.4647 -0.6693
25542SOL    HW282464  10.616   7.931   4.184  1.0126  1.0100 -0.7847
25543SOL     OW82465  11.323   3.198   6.094 -0.2656 -0.2421 -0.4280
25543SOL    HW182466  11.350   3.202   6.003  0.2960  0.6721 -0.2351
25543SOL    HW282467  11.237   3.239   6.095 -1.2234 -2.1073 -0.8520
25544SOL     OW82468  12.331  12.226   8.741 -0.6034 -0.0631  0.5463
25544SOL    HW182469  12.369  12.225   8.654  0.3338 -1.7927  0.9364
25544SOL    HW282470  12.404  12.245   8.800 -1.3997  2.0973  0.9407
25545SOL     OW82471   2.979   7.454   9.159 -0.0518 -0.4464 -0.1573
25545SOL    HW182472   3.007   7.373   9.201 -0.6864 -0.0216  1.1555
25545SOL    HW282473   3.059   7.494   9.126  0.4006 -1.0841  0.1642
25546SOL     OW82474   8.588   2.093   5.988 -0.5610 -0.0930  0.1018
25546SOL    HW182475   8.640   2.019   6.019 -0.2352 -0.4114 -1.1496
25546SOL    HW282476   8.497   2.065   6.001 -0.4555  0.2640  1.8292
25547SOL     OW82477  12.241   4.507  11.093 -0.2161  0.4845 -0.5979
25547SOL    HW182478  12.199   4.429  11.128 -2.2377  2.6663  2.3114
25547SOL    HW282479  12.319   4.519  11.147 -1.8327  2.3052  1.5138
25548SOL     OW82480   2.557  11.835   9.746  0.0760 -1.2429  0.3235
25548SOL    HW182481   2.511  11.817   9.828  0.4306 -2.3771  0.2873
25548SOL    HW282482   2.571  11.749   9.707  3.2151 -1.0811  0.8536
25549SOL     OW82483   8.144  11.201   5.044 -0.5241  0.0735  0.0324
25549SOL    HW182484   8.135  11.133   5.111  0.0459 -0.6043 -0.5575
25549SOL    HW282485   8.158  11.282   5.094  0.6789 -0.5409  0.7356
25550SOL     OW82486   4.108   0.012   7.337  0.0499 -0.0118  0.0370
25550SOL    HW182487   4.179   0.077   7.334 -0.1537  0.2234  0.3303
25550SOL    HW282488   4.148  -0.065   7.378  0.3698 -0.1741 -0.5626
25551SOL     OW82489   2.243   3.507  11.147  0.1769 -0.1583 -0.0833
25551SOL    HW182490   2.318   3.535  11.095 -0.0481 -0.0459 -0.3529
25551SOL    HW282491   2.256   3.413  11.160  0.0130 -0.2744 -0.7199
25552SOL     OW82492   9.247   0.890   1.781 -0.9398 -0.7683  0.2081
25552SOL    HW182493   9.305   0.892   1.856 -0.2957 -3.1110 -0.1446
25552SOL    HW282494   9.300   0.922   1.708 -0.5428 -1.4577  0.1829
25553SOL     OW82495   2.108   4.525   5.582 -0.1621  0.1239  0.2756
25553SOL    HW182496   2.062   4.443   5.568 -1.0742  0.5704  0.5482
25553SOL    HW282497   2.159   4.511   5.662 -0.9096  0.0518  0.7585
25554SOL     OW82498  11.135   4.585   3.986  0.0166  0.5803  0.0351
25554SOL    HW182499  11.169   4.496   3.978 -2.6039 -0.4795 -0.3398
25554SOL    HW282500  11.141   4.621   3.897  0.9008  0.7293  0.1476
25555SOL     OW82501   3.187   7.044   7.156 -0.3323 -0.2023  0.1482
25555SOL    HW182502   3.265   7.012   7.111 -1.2925  0.7545 -2.4227
25555SOL    HW282503   3.210   7.132   7.185 -0.6339  0.3960 -1.3226
25556SOL     OW82504  10.499   4.244   4.923 -0.1179  0.1740  0.4899
25556SOL    HW182505  10.544   4.167   4.956 -2.0300 -1.9758 -1.5576
25556SOL    HW282506  10.486   4.227   4.830 -1.6059  2.4580  0.1961
25557SOL     OW82507   2.024   0.789   2.175  0.3473  0.1956 -0.7120
25557SOL    HW182508   2.092   0.822   2.234  1.0214 -1.3871 -0.5800
25557SOL    HW282509   2.071   0.740   2.108 -0.6083 -0.2242 -1.0938
25558SOL     OW82510   6.691   5.153  10.976 -0.0776  0.0174  0.6326
25558SOL    HW182511   6.646   5.204  11.044  0.4509  1.7984 -0.2928
25558SOL    HW282512   6.625   5.138  10.909  0.2648  1.3520 -0.0464
25559SOL     OW82513   3.665   7.204   7.075 -0.1531  0.0797  0.6232
25559SOL    HW182514   3.634   7.212   6.985  0.9947  1.1914  0.3052
25559SOL    HW282515   3.695   7.292   7.098 -0.9188 -0.0646  2.2846
25560SOL     OW82516   4.017  12.109   9.565  0.0562  0.2434 -0.1530
25560SOL    HW182517   4.028  12.023   9.605  0.6687  0.6483  0.5565
25560SOL    HW282518   4.013  12.091   9.471 -2.8576 -0.8574  0.0933
25561SOL     OW82519   1.222   2.545   9.158 -0.6052 -0.0268 -0.0035
25561SOL    HW182520   1.243   2.512   9.070 -0.4622  0.8101 -0.2910
25561SOL    HW282521   1.265   2.630   9.163  0.3551 -0.5499  1.3110
25562SOL     OW82522   1.390   1.153   8.300  0.2676  0.1228  0.1513
25562SOL    HW182523   1.367   1.140   8.208  0.3554 -2.0643  0.3959
25562SOL    HW282524   1.388   1.065   8.338  2.1734  0.7041  1.7833
25563SOL     OW82525   0.856   2.810   9.260 -0.2796  0.4405 -0.0479
25563SOL    HW182526   0.853   2.714   9.264  0.7501  0.4463  1.6567
25563SOL    HW282527   0.898   2.836   9.342 -0.1315  2.3413 -0.6896
25564SOL     OW82528   0.492   6.695   8.958 -0.0819 -0.1895  0.4394
25564SOL    HW182529   0.472   6.720   8.868  2.5105  0.9169  0.0553
25564SOL    HW282530   0.434   6.748   9.012  0.5494  1.5813 -0.5559
25565SOL     OW82531   7.350  11.593   6.987 -0.2080  0.3470  0.0955
25565SOL    HW182532   7.276  11.581   6.926 -0.2560  1.0833  0.0037
25565SOL    HW282533   7.311  11.584   7.074 -0.3506  0.4198  0.0403
25566SOL     OW82534   3.507   3.981  11.551 -0.1696  0.1097 -0.0082
25566SOL    HW182535   3.429   4.021  11.588  0.0422 -1.4341  2.3592
25566SOL    HW282536   3.578   4.043  11.571 -0.7246  1.5738 -2.2771
25567SOL     OW82537   2.973   7.317   3.501 -0.6716  0.5740 -0.0435
25567SOL    HW182538   3.031   7.391   3.483 -0.4208  0.7091  1.2372
25567SOL    HW282539   3.030   7.240   3.493 -0.5729  0.6290  0.1233
25568SOL     OW82540   2.322   4.634  11.003 -0.0968 -0.0109  0.4614
25568SOL    HW182541   2.261   4.596  10.939 -0.0595  0.2411  0.2770
25568SOL    HW282542   2.357   4.711  10.960  2.1846 -1.4238 -0.4160
25569SOL     OW82543   2.768   0.989   8.870  0.3241  0.1985 -0.2863
25569SOL    HW182544   2.833   1.032   8.814 -2.4138  0.6497 -3.3802
25569SOL    HW282545   2.689   1.041   8.859 -1.4144 -2.0479  0.8797
25570SOL     OW82546   1.162   5.282   7.977 -0.4632 -0.5751 -0.1658
25570SOL    HW182547   1.229   5.266   8.044 -0.8320 -0.7343  0.1771
25570SOL    HW282548   1.210   5.297   7.897  0.0596  1.3118  0.4595
25571SOL     OW82549   8.649  12.103   6.701 -0.3780  0.1989  0.0064
25571SOL    HW182550   8.740  12.105   6.672 -0.0660 -0.0112  0.9435
25571SOL    HW282551   8.600  12.079   6.623  0.4759 -0.7396 -0.2703
25572SOL     OW82552   2.695  11.818   8.949 -0.4818 -0.3292 -0.1923
25572SOL    HW182553   2.782  11.793   8.980 -0.0898  0.9192 -0.2289
25572SOL    HW282554   2.705  11.830   8.855 -0.9875 -1.3001 -0.3874
25573SOL     OW82555   0.863   9.138   5.411 -0.2269  0.1099 -0.1909
25573SOL    HW182556   0.834   9.064   5.464  0.5049 -0.5046 -0.6321
25573SOL    HW282557   0.930   9.181   5.464 -2.1185  1.7736  1.0085
25574SOL     OW82558   2.517   3.955   5.072  0.0050 -0.2224  0.4589
25574SOL    HW182559   2.581   3.887   5.050  0.7995  1.0286 -1.2569
25574SOL    HW282560   2.544   3.984   5.160  0.2364 -1.4184  0.8120
25575SOL     OW82561   3.109   8.904   7.537  0.1125  0.3079 -0.4224
25575SOL    HW182562   3.190   8.901   7.487 -0.5454 -0.8927 -1.4530
25575SOL    HW282563   3.114   8.987   7.586  0.8633  1.4411 -2.3097
25576SOL     OW82564   7.244   8.653   4.953  0.3910 -0.0291 -0.0677
25576SOL    HW182565   7.259   8.567   4.913 -0.3016  1.4528 -3.8897
25576SOL    HW282566   7.186   8.699   4.892 -0.8782  2.5395  2.7846
25577SOL     OW82567  11.070  10.521   4.061  0.2051 -0.1103 -0.6853
25577SOL    HW182568  11.160  10.523   4.027  0.9131 -0.4361  1.0624
25577SOL    HW282569  11.036  10.608   4.043  0.8051 -0.0214 -1.4913
25578SOL     OW82570   5.248   8.665   9.065 -0.1567  0.2175  0.2208
25578SOL    HW182571   5.158   8.632   9.075 -0.4611  0.3632 -1.7059
25578SOL    HW282572   5.290   8.602   9.007  1.5524 -0.7642  2.4013
25579SOL     OW82573  10.223   4.516  12.066  0.3499  0.3369 -0.6893
25579SOL    HW182574  10.290   4.473  12.119  0.4646  2.7580  1.3124
25579SOL    HW282575  10.180   4.444  12.018  2.4711 -1.5802  0.1014
25580SOL     OW82576   5.680   5.133  12.102  0.1293 -0.4062  0.4630
25580SOL    HW182577   5.637   5.126  12.017  0.0173  0.7075  0.4095
25580SOL    HW282578   5.658   5.052  12.147  1.9552 -2.0355 -1.3364
25581SOL     OW82579   2.500   9.973   7.112  0.2636  0.0272  0.6839
25581SOL    HW182580   2.473  10.061   7.085  0.4971 -0.0749  0.0920
25581SOL    HW282581   2.595   9.971   7.097  0.3347 -0.1684  1.1465
25582SOL     OW82582  10.873   8.857   4.119  0.6049  0.1492 -0.4330
25582SOL    HW182583  10.815   8.783   4.139  1.3208 -0.2806  0.0881
25582SOL    HW282584  10.828   8.933   4.156 -0.6524  0.1686 -1.8801
25583SOL     OW82585   1.159   5.976   2.032  0.1764  0.5720 -0.0454
25583SOL    HW182586   1.085   5.952   1.976 -0.7403  1.2879  0.8201
25583SOL    HW282587   1.175   5.898   2.085  0.3053  0.2788 -0.5110
25584SOL     OW82588   3.441   4.213   1.251 -0.1315 -0.3145 -0.5160
25584SOL    HW182589   3.528   4.199   1.289 -0.6058 -1.7645  0.1163
25584SOL    HW282590   3.384   4.225   1.326 -0.3687  1.5856 -0.9560
25585SOL     OW82591   0.256  12.201   7.240 -0.3698 -0.2732  0.1963
25585SOL    HW182592   0.176  12.199   7.187 -0.0896  0.0164 -0.2399
25585SOL    HW282593   0.326  12.185   7.177 -0.0601 -0.2395  0.5350
25586SOL     OW82594   0.887   7.538   6.037 -0.0221  0.4652 -0.4533
25586SOL    HW182595   0.964   7.483   6.021 -1.6291 -2.2903  0.6438
25586SOL    HW282596   0.917   7.601   6.102  1.4811 -0.1019 -0.5395
25587SOL     OW82597   1.485   2.791  11.234  0.3726 -0.4638 -0.5114
25587SOL    HW182598   1.426   2.855  11.273  0.6920 -0.4937  0.0391
25587SOL    HW282599   1.429   2.717  11.212  0.4938 -1.4565  2.1291
25588SOL     OW82600   9.597   4.905   1.937  0.5067 -0.2661 -0.0738
25588SOL    HW182601   9.585   4.981   1.994 -0.7403 -0.9022  0.5624
25588SOL    HW282602   9.593   4.830   1.997  1.4208 -0.8641 -0.7269
25589SOL     OW82603  11.210   3.316   4.334 -0.2009 -0.0104 -0.0637
25589SOL    HW182604  11.138   3.369   4.369  0.6918 -0.6443  3.0684
25589SOL    HW282605  11.269   3.379   4.294 -1.3614  0.7773 -0.6074
25590SOL     OW82606   3.842   3.309  10.978 -0.5759  0.1334 -0.4839
25590SOL    HW182607   3.799   3.226  10.996  1.4751 -1.5705 -2.7488
25590SOL    HW282608   3.798   3.372  11.036  0.7068 -3.1866  4.7442
25591SOL     OW82609   0.515   7.005   4.908 -0.1070 -0.2387 -0.2813
25591SOL    HW182610   0.501   6.977   4.999 -1.6439 -1.1973 -0.7637
25591SOL    HW282611   0.603   6.975   4.887 -0.4105 -1.6577  0.3442
25592SOL     OW82612   0.420  11.911   2.996  0.2618  0.3278 -0.3004
25592SOL    HW182613   0.451  11.891   2.908  0.6578 -2.6881  0.3994
25592SOL    HW282614   0.325  11.916   2.988  0.3574  1.4919 -1.0712
25593SOL     OW82615   4.048   6.931   3.933  0.7914 -0.6866  0.1888
25593SOL    HW182616   3.962   6.889   3.938 -0.0807  0.9059 -0.4691
25593SOL    HW282617   4.030   7.016   3.891  2.8975 -0.8938 -1.2733
25594SOL     OW82618   9.868   5.562   8.052 -0.2475 -0.2530  0.2110
25594SOL    HW182619   9.901   5.651   8.063 -0.2796 -0.0520 -1.0997
25594SOL    HW282620   9.909   5.532   7.971 -1.6768 -0.7453 -0.3642
25595SOL     OW82621   3.583   2.854  11.437 -0.0210 -0.2360  0.2153
25595SOL    HW182622   3.534   2.927  11.476 -0.6461 -1.4274  1.8316
25595SOL    HW282623   3.516   2.787  11.420  0.7995 -1.3393  1.0859
25596SOL     OW82624  11.092   2.967   7.622 -0.6823  0.0284  0.2627
25596SOL    HW182625  11.179   2.993   7.593  0.1578 -1.3328  1.4577
25596SOL    HW282626  11.044   2.948   7.541  0.4833 -0.2972 -0.3594
25597SOL     OW82627   6.304   1.006   3.371 -0.7126 -0.4915 -0.3728
25597SOL    HW182628   6.397   1.015   3.392 -0.2745  0.1594 -2.3556
25597SOL    HW282629   6.288   0.912   3.375 -0.2449 -0.5315  0.9800
25598SOL     OW82630   3.829   3.176   0.890 -0.2118 -0.0567  0.1049
25598SOL    HW182631   3.902   3.129   0.933 -0.6156 -1.3907 -0.6004
25598SOL    HW282632   3.751   3.132   0.923 -0.5660 -0.4336 -1.1948
25599SOL     OW82633  12.092   0.236   5.797  0.0351 -0.3402 -0.3563
25599SOL    HW182634  12.065   0.326   5.811 -2.9099 -0.9440 -1.3424
25599SOL    HW282635  12.138   0.211   5.877 -0.7770  1.4621  0.7319
25600SOL     OW82636  10.166   0.781   6.924  0.2803 -1.2558 -0.2816
25600SOL    HW182637  10.078   0.746   6.916  0.1420 -0.9931  0.0795
25600SOL    HW282638  10.216   0.736   6.856 -0.3560 -0.6981 -1.1363
25601SOL     OW82639   1.205  10.495   8.053 -0.0486 -0.0382 -0.0932
25601SOL    HW182640   1.160  10.552   8.115  2.2654  1.3529  0.4416
25601SOL    HW282641   1.183  10.407   8.081  0.9092  0.5180  2.8071
25602SOL     OW82642   6.137  11.576   2.648 -0.1856 -0.1030 -0.1550
25602SOL    HW182643   6.159  11.487   2.620  0.1465  0.5896 -2.2609
25602SOL    HW282644   6.042  11.579   2.644 -0.1663 -0.1717 -0.7052
25603SOL     OW82645  12.040   5.497  11.644 -0.1684  0.1274  0.0499
25603SOL    HW182646  11.964   5.491  11.586 -0.4840 -0.3342  0.4955
25603SOL    HW282647  12.094   5.421  11.621  0.3203  0.6197 -0.4739
25604SOL     OW82648   3.604   0.136   7.483 -0.0890  0.4473  0.1737
25604SOL    HW182649   3.559   0.211   7.444 -1.9924 -1.4763 -1.5875
25604SOL    HW282650   3.666   0.107   7.416  0.0187 -0.0568  0.4814
25605SOL     OW82651  11.428   6.338   3.985 -0.1268  0.1516  0.3411
25605SOL    HW182652  11.414   6.263   4.043 -0.8358  0.0517  0.0465
25605SOL    HW282653  11.350   6.392   3.997  0.2375  0.6868  0.3137
25606SOL     OW82654   9.211   3.923   7.145  0.1732  0.5193  0.8107
25606SOL    HW182655   9.260   3.847   7.113 -0.2363 -0.7174  2.8612
25606SOL    HW282656   9.199   3.979   7.069  1.2219 -1.0904 -0.6032
25607SOL     OW82657   7.155  11.841   9.465  0.0312  0.2349 -0.1300
25607SOL    HW182658   7.087  11.903   9.493  0.3400  0.5280 -0.0215
25607SOL    HW282659   7.234  11.895   9.458 -0.0544  0.1868 -1.6825
25608SOL     OW82660   3.995   0.520   1.341  0.2708 -0.1198  0.3751
25608SOL    HW182661   4.033   0.446   1.389 -0.1976  0.2410  1.3354
25608SOL    HW282662   4.021   0.506   1.250  1.1049 -0.8744  0.7195
25609SOL     OW82663   1.705   5.949  10.515  0.0873  0.4103 -0.1836
25609SOL    HW182664   1.682   6.013  10.448  0.5495  0.3975 -0.3576
25609SOL    HW282665   1.621   5.922  10.552 -0.1385  0.7957 -0.4032
25610SOL     OW82666   5.638   0.640   7.350  0.4446 -1.3046 -0.2583
25610SOL    HW182667   5.627   0.735   7.359  1.1210 -1.2907  0.4791
25610SOL    HW282668   5.733   0.627   7.347  0.3599 -1.9768 -0.1582
25611SOL     OW82669   5.371   7.339   4.962  0.2413 -0.3942 -0.2343
25611SOL    HW182670   5.292   7.378   4.999  0.4638 -1.7799  1.9196
25611SOL    HW282671   5.442   7.371   5.018  0.8672 -1.0019 -0.6610
25612SOL     OW82672   7.148   8.578   3.323 -0.1424 -0.6350 -0.3032
25612SOL    HW182673   7.119   8.540   3.240  0.0340 -0.8529 -0.2650
25612SOL    HW282674   7.107   8.665   3.325 -0.4921 -0.7957 -0.4175
25613SOL     OW82675  11.409   4.455   8.231  0.0206 -0.1162 -0.5278
25613SOL    HW182676  11.479   4.390   8.236  0.5071  0.4446  0.2565
25613SOL    HW282677  11.455   4.538   8.220 -0.5816  0.1369 -1.2143
25614SOL     OW82678  11.160   3.913   0.676 -0.5914  0.9309  0.4986
25614SOL    HW182679  11.085   3.856   0.689 -0.3054  0.6036  0.7446
25614SOL    HW282680  11.226   3.879   0.737 -0.1473  1.0286  0.0794
25615SOL     OW82681   4.887   7.296   8.017  0.0058 -0.3057  0.0066
25615SOL    HW182682   4.832   7.344   8.079  0.2371 -0.6494  0.4811
25615SOL    HW282683   4.908   7.360   7.949  0.3254  0.2734  0.6403
25616SOL     OW82684   1.149  11.849  11.284 -0.4792 -0.3015  0.6468
25616SOL    HW182685   1.165  11.892  11.368  0.1294  0.5412  0.1199
25616SOL    HW282686   1.053  11.841  11.279 -0.5019 -0.7692  1.6023
25617SOL     OW82687  10.793  12.220   1.454  0.0396  0.0096 -0.0664
25617SOL    HW182688  10.888  12.215   1.444  0.1402  0.9255  0.3411
25617SOL    HW282689  10.760  12.229   1.365  0.2733 -1.0220 -0.2718
25618SOL     OW82690   0.353   7.807   9.532 -0.6350 -0.2171  0.5749
25618SOL    HW182691   0.319   7.893   9.509  1.1499  0.7365  1.3132
25618SOL    HW282692   0.302   7.781   9.608 -0.3541  0.7736  1.1200
25619SOL     OW82693   6.037   7.847   0.329  0.1564 -0.0798  0.1425
25619SOL    HW182694   5.973   7.780   0.304 -0.5159  0.2947  0.8186
25619SOL    HW282695   5.991   7.900   0.394  2.0597 -1.4665  2.7877
25620SOL     OW82696   3.169   0.744   9.416 -0.1219 -0.1800 -1.4223
25620SOL    HW182697   3.175   0.725   9.510  0.4369  1.2006 -1.1501
25620SOL    HW282698   3.075   0.759   9.401 -0.3879 -1.6497 -1.3699
25621SOL     OW82699   0.633   2.454   4.874  0.0540  0.5410  0.2012
25621SOL    HW182700   0.727   2.455   4.891 -0.0593  2.6332  1.0509
25621SOL    HW282701   0.602   2.372   4.912  1.4679 -0.0454  0.1486
25622SOL     OW82702   1.379   3.025   0.143 -0.2157  0.0010 -0.7937
25622SOL    HW182703   1.459   3.053   0.100  1.1840  0.8609  2.1481
25622SOL    HW282704   1.318   3.098   0.132  0.5857  0.7761 -0.2413
25623SOL     OW82705  12.232   4.674   4.651  0.1543 -0.5308 -0.2573
25623SOL    HW182706  12.221   4.592   4.604  1.9747 -1.9622  1.6250
25623SOL    HW282707  12.293   4.653   4.721  2.2037  2.8726 -0.8055
25624SOL     OW82708   0.109   7.977   4.820  0.3835 -0.1655  0.2502
25624SOL    HW182709   0.074   8.010   4.737 -0.6066 -0.3743  0.5704
25624SOL    HW282710   0.178   8.039   4.843  0.1732  0.3120 -0.3635
25625SOL     OW82711   7.457   4.622   3.353  0.4883  0.3725  0.1920
25625SOL    HW182712   7.527   4.569   3.391  0.8782 -0.0030 -1.0108
25625SOL    HW282713   7.399   4.641   3.427  0.8241 -0.9630  0.8262
25626SOL     OW82714   7.278   0.633   2.548 -0.3759 -0.0100  0.2856
25626SOL    HW182715   7.234   0.708   2.588  0.2897  1.3835 -1.4295
25626SOL    HW282716   7.368   0.638   2.579 -0.2896  0.0238  0.0378
25627SOL     OW82717  10.719   1.033   7.671  0.2177  0.2773  0.3123
25627SOL    HW182718  10.630   1.068   7.669 -0.8279 -2.2210 -0.5004
25627SOL    HW282719  10.755   1.062   7.755 -1.5200  0.9552  0.8609
25628SOL     OW82720   9.954  11.625   9.852  0.3797  0.1871  0.1890
25628SOL    HW182721  10.023  11.677   9.811 -0.8876  1.1224 -0.8329
25628SOL    HW282722   9.911  11.685   9.912 -0.2256 -0.0705  0.0202
25629SOL     OW82723   7.250   1.787   3.124 -0.2064  0.0156  0.1340
25629SOL    HW182724   7.155   1.782   3.113 -0.2926 -1.2535  1.2510
25629SOL    HW282725   7.271   1.880   3.112 -2.0066  0.8901  2.7625
25630SOL     OW82726   9.417   8.569   7.237  0.0273  0.2406  0.1394
25630SOL    HW182727   9.465   8.627   7.295  0.3716 -0.8315  0.9668
25630SOL    HW282728   9.339   8.545   7.287  0.4722 -0.9260  0.2971
25631SOL     OW82729   1.965   6.905  11.549 -0.0459 -0.3708 -0.2021
25631SOL    HW182730   2.002   6.829  11.504  0.0673  0.0402 -0.8147
25631SOL    HW282731   1.901   6.868  11.610 -0.0715 -0.9473 -0.5706
25632SOL     OW82732  11.184  12.175   1.046 -0.1240  0.1612 -0.1206
25632SOL    HW182733  11.279  12.175   1.039 -0.0835 -0.1157  0.3891
25632SOL    HW282734  11.165  12.110   1.114 -0.6707  0.2860 -0.1513
25633SOL     OW82735   6.482   3.968   8.062 -0.2731 -0.1695 -0.2032
25633SOL    HW182736   6.570   3.995   8.088 -0.8448  0.7333  0.8744
25633SOL    HW282737   6.454   4.032   7.997 -0.6537  0.3589  0.4725
25634SOL     OW82738   5.823   8.598   7.703 -0.3249 -0.3124 -0.1393
25634SOL    HW182739   5.880   8.674   7.697 -1.0992  0.2692 -0.3017
25634SOL    HW282740   5.867   8.539   7.765  1.6588 -0.9774 -2.0511
25635SOL     OW82741  10.136   0.134   1.157 -0.3650 -0.1553  0.1227
25635SOL    HW182742  10.172   0.089   1.233 -0.0747 -1.1182 -0.5744
25635SOL    HW282743  10.187   0.101   1.083 -0.8130  0.5771 -0.5257
25636SOL     OW82744  10.862  10.689   8.014  0.0650  0.0898  0.0771
25636SOL    HW182745  10.947  10.650   7.998  0.7526  0.9762  1.4409
25636SOL    HW282746  10.822  10.694   7.927  0.1623 -3.0011 -0.2620
25637SOL     OW82747  11.594   9.760   5.659 -0.2794 -0.7816 -0.0497
25637SOL    HW182748  11.526   9.795   5.602  0.4772  0.6786 -0.0941
25637SOL    HW282749  11.633   9.687   5.609 -1.7080 -1.5749 -0.0599
25638SOL     OW82750  10.857  10.312   4.000 -0.3467  0.1924  0.0346
25638SOL    HW182751  10.939  10.360   4.014  0.8418 -1.1472 -1.9264
25638SOL    HW282752  10.860  10.240   4.064  0.2843 -0.1728 -0.4001
25639SOL     OW82753   1.444   5.495   6.150  0.1749 -0.1380  0.4591
25639SOL    HW182754   1.419   5.535   6.234 -0.9535 -0.6629  0.3941
25639SOL    HW282755   1.423   5.562   6.085  3.0268  1.1310  0.6908
25640SOL     OW82756   9.099   4.590   4.792  0.3373  0.1568 -0.8093
25640SOL    HW182757   9.057   4.598   4.706 -1.4782  0.3423  0.0477
25640SOL    HW282758   9.043   4.639   4.851  0.0977 -2.0554  0.9544
25641SOL     OW82759   9.062  10.568   4.722 -0.1953  0.6124  0.3187
25641SOL    HW182760   9.093  10.479   4.733 -1.1192  0.3711  1.0548
25641SOL    HW282761   9.129  10.623   4.763 -0.1274  0.1855  0.7793
25642SOL     OW82762   0.922   4.164   9.053 -0.3721  0.2722 -0.3165
25642SOL    HW182763   0.891   4.101   8.987  0.4162 -1.5053  0.9098
25642SOL    HW282764   0.885   4.132   9.135  0.0773  1.4253  0.3491
25643SOL     OW82765  11.928   7.771   2.810 -0.0216 -0.7139 -0.3759
25643SOL    HW182766  12.020   7.744   2.810  0.1300 -0.1942  0.4348
25643SOL    HW282767  11.930   7.863   2.785 -0.3531 -0.7845 -0.6738
25644SOL     OW82768  10.253   3.590  10.573  0.0320  0.2001  0.1499
25644SOL    HW182769  10.285   3.502  10.552  1.8506  0.2816  2.2562
25644SOL    HW282770  10.212   3.580  10.658 -0.1345  1.3152  0.2069
25645SOL     OW82771  12.042   5.067   4.350  0.6125  0.8430  0.2267
25645SOL    HW182772  12.071   5.045   4.439  0.5029 -0.3538 -0.0191
25645SOL    HW282773  12.123   5.094   4.306  1.4899 -2.3458 -0.4124
25646SOL     OW82774   6.427   4.564   1.118 -0.3934 -0.1575  0.2593
25646SOL    HW182775   6.348   4.587   1.069  0.4276  1.4389 -0.4218
25646SOL    HW282776   6.419   4.471   1.136 -1.8347 -0.2860 -0.8922
25647SOL     OW82777  11.130   2.216   0.145  0.2315 -0.0838  0.0972
25647SOL    HW182778  11.191   2.258   0.204  0.6733 -1.2682  0.5155
25647SOL    HW282779  11.129   2.271   0.067 -0.0177  1.2492  1.0095
25648SOL     OW82780  11.065   0.398   2.631  0.0198 -0.3108  0.8005
25648SOL    HW182781  11.009   0.348   2.571 -0.3032 -0.8934  1.5635
25648SOL    HW282782  11.137   0.338   2.650  0.2381 -0.0416  0.8187
25649SOL     OW82783   9.975   4.548   7.049  0.1160 -0.1357 -0.1701
25649SOL    HW182784   9.922   4.613   7.003 -0.1134 -0.2017 -0.0028
25649SOL    HW282785   9.987   4.477   6.985 -0.5727 -0.4255  0.0058
25650SOL     OW82786   9.521   1.260  11.695 -0.2027 -0.0502  0.1226
25650SOL    HW182787   9.581   1.286  11.626 -0.6917  1.3429  0.1934
25650SOL    HW282788   9.439   1.241  11.649  0.2243 -1.9193  0.0284
25651SOL     OW82789   5.243   3.441  10.783  0.3087 -0.1872  0.2306
25651SOL    HW182790   5.233   3.413  10.691 -0.7748  1.9114 -0.3540
25651SOL    HW282791   5.322   3.495  10.783  0.2359 -0.0794  0.5064
25652SOL     OW82792   2.658   1.607   3.482 -0.1434 -0.3191 -0.8138
25652SOL    HW182793   2.684   1.589   3.391 -1.7726 -0.7899 -1.2258
25652SOL    HW282794   2.585   1.669   3.473 -0.4193 -0.4946  0.1725
25653SOL     OW82795   0.710   3.209   8.011 -0.4963  0.3843  0.2680
25653SOL    HW182796   0.650   3.187   7.940  0.2314  0.8924 -0.5214
25653SOL    HW282797   0.741   3.124   8.044  0.7370  0.1403 -1.3993
25654SOL     OW82798   0.308   4.909   1.477  0.2062 -0.1399 -0.0705
25654SOL    HW182799   0.229   4.890   1.427  1.9107  0.1356 -3.1626
25654SOL    HW282800   0.344   4.822   1.499 -0.5503 -0.2681  0.6743
25655SOL     OW82801   8.005  11.341   7.309 -0.2974  0.2134  0.0284
25655SOL    HW182802   8.017  11.430   7.276  0.4830 -0.3034 -1.1103
25655SOL    HW282803   8.080  11.327   7.366  1.1954 -0.7185 -2.0632
25656SOL     OW82804  11.992   8.270   5.737  0.2274  0.5736 -0.0484
25656SOL    HW182805  12.054   8.342   5.723  1.4088 -0.3710  0.1493
25656SOL    HW282806  11.917   8.292   5.682  0.6473  1.8613 -0.1372
25657SOL     OW82807   3.170   4.092   6.043  0.5707 -0.1172  0.1487
25657SOL    HW182808   3.181   4.057   6.132  1.6899  0.4176  0.2300
25657SOL    HW282809   3.205   4.023   5.986 -2.7831 -1.7840 -0.1476
25658SOL     OW82810   1.050   5.236   0.424 -0.5143 -0.3923  0.1235
25658SOL    HW182811   1.109   5.306   0.399 -0.8192 -0.4377 -0.7660
25658SOL    HW282812   1.028   5.254   0.516  1.6790 -0.9616  0.8109
25659SOL     OW82813   3.632   2.789   5.686 -0.2182 -0.1778  0.7015
25659SOL    HW182814   3.642   2.790   5.591 -2.4763  0.9456  0.3992
25659SOL    HW282815   3.657   2.700   5.712  0.2639 -0.5619 -0.9678
25660SOL     OW82816   6.990   2.031   4.030 -0.1123 -0.7268 -0.7622
25660SOL    HW182817   6.979   2.125   4.019  1.8585 -0.2669  0.7435
25660SOL    HW282818   6.990   1.996   3.941  0.6390  0.8751 -1.4206
25661SOL     OW82819  10.396   9.163   9.231 -0.1377 -0.2221 -0.1835
25661SOL    HW182820  10.340   9.135   9.158 -0.3038 -1.7707  0.4982
25661SOL    HW282821  10.483   9.172   9.193 -0.5436  0.6464 -0.9244
25662SOL     OW82822  11.626   6.228   0.523  0.6429 -0.3183 -0.5689
25662SOL    HW182823  11.571   6.280   0.465  0.7055 -0.9073 -1.1742
25662SOL    HW282824  11.648   6.150   0.471 -2.7276 -3.0112  1.5256
25663SOL     OW82825   2.581   3.975  10.761 -0.0971  0.2471  0.2229
25663SOL    HW182826   2.593   4.023  10.843 -1.5587  0.3000  0.4283
25663SOL    HW282827   2.509   3.915  10.779 -0.1684 -0.0174 -0.9020
25664SOL     OW82828  11.421  10.275   2.636  0.4009  0.4330 -0.3028
25664SOL    HW182829  11.417  10.370   2.640  1.7918  0.4639  1.1383
25664SOL    HW282830  11.392  10.254   2.547  0.7638  2.2401 -0.8867
25665SOL     OW82831   2.521   8.242  12.062  0.5981 -0.3177 -0.1635
25665SOL    HW182832   2.470   8.323  12.060  0.7220 -0.2408 -0.2604
25665SOL    HW282833   2.610   8.270  12.083  0.2629 -0.6408  1.8731
25666SOL     OW82834  11.458   2.422  10.109 -0.0249  0.2109 -0.1450
25666SOL    HW182835  11.430   2.501  10.064  2.0460  1.0852 -0.0103
25666SOL    HW282836  11.551   2.415  10.091  0.0138 -1.7744  0.5155
25667SOL     OW82837  11.304  11.254   6.723  0.1638 -0.4079 -0.0908
25667SOL    HW182838  11.286  11.174   6.674  0.2604 -0.5925  0.1662
25667SOL    HW282839  11.341  11.314   6.659 -1.4384  0.0273 -0.6559
25668SOL     OW82840   8.951   9.782  11.319 -0.3415 -0.0392 -0.0705
25668SOL    HW182841   8.980   9.735  11.241 -0.8085  0.1224 -0.3410
25668SOL    HW282842   8.880   9.837  11.289 -0.1933  0.3994  0.3687
25669SOL     OW82843   8.293   6.679   6.819 -0.6640 -0.3855  0.1579
25669SOL    HW182844   8.201   6.665   6.843 -0.8740  1.4066  0.5352
25669SOL    HW282845   8.296   6.665   6.725 -1.7068  1.1909 -0.1430
25670SOL     OW82846   4.799   6.651   9.495  0.1802  0.3237 -0.2259
25670SOL    HW182847   4.817   6.702   9.575 -2.2026  0.8158  0.0761
25670SOL    HW282848   4.720   6.601   9.516  0.9624 -1.5391 -1.4405
25671SOL     OW82849   8.361   6.927   6.508  0.0774 -0.0944  0.5354
25671SOL    HW182850   8.414   6.973   6.443 -0.1844  0.0892  0.4539
25671SOL    HW282851   8.276   6.970   6.505 -0.9486 -2.0836 -1.2253
25672SOL     OW82852   9.219  12.239   3.939  0.3189 -0.3731  0.1106
25672SOL    HW182853   9.236  12.147   3.956 -1.2580 -0.9228 -0.9924
25672SOL    HW282854   9.186  12.241   3.849  1.2381  1.4019 -0.2412
25673SOL     OW82855  11.711   1.590  11.090  0.4835 -0.5194  0.0734
25673SOL    HW182856  11.671   1.509  11.058 -0.6806  0.6282 -1.5455
25673SOL    HW282857  11.749   1.631  11.013  2.2006 -0.0884  1.0789
25674SOL     OW82858   2.418  10.990   7.333 -0.6973 -0.1923 -0.0001
25674SOL    HW182859   2.457  10.972   7.418  0.4382  0.7187 -0.3000
25674SOL    HW282860   2.468  10.936   7.272 -0.0482  0.7941 -0.3571
25675SOL     OW82861   0.463  11.109   7.156  0.2643  0.8566 -0.0948
25675SOL    HW182862   0.452  11.203   7.171  0.4742  0.6975  1.1901
25675SOL    HW282863   0.392  11.086   7.096  0.1745  1.8223 -0.3771
25676SOL     OW82864  11.915   4.334   4.713  0.0818 -0.1149 -0.0107
25676SOL    HW182865  11.909   4.349   4.619  0.8217  0.9635  0.0969
25676SOL    HW282866  12.003   4.299   4.726  1.1883  2.6018  0.5714
25677SOL     OW82867   5.130   7.799  12.292  0.3331 -0.2807  0.4953
25677SOL    HW182868   5.086   7.716  12.274 -0.9840  0.4238  0.4175
25677SOL    HW282869   5.214   7.773  12.330 -0.4546 -1.6448  1.3858
25678SOL     OW82870   9.930   1.723  11.398  0.4812 -0.1161 -0.4985
25678SOL    HW182871   9.951   1.631  11.415 -0.4238 -0.2902 -0.2268
25678SOL    HW282872   9.840   1.721  11.366  0.4080  0.6883 -0.3677
25679SOL     OW82873   9.923   7.355   5.113 -0.3468 -0.7559  0.4684
25679SOL    HW182874   9.929   7.259   5.118 -1.6864 -0.8278  1.1251
25679SOL    HW282875   9.871   7.380   5.189 -1.5352  0.3311 -0.6434
25680SOL     OW82876   8.635   6.078   4.290 -0.1595  0.4384  0.4806
25680SOL    HW182877   8.730   6.087   4.299  0.1338  2.1190 -2.6876
25680SOL    HW282878   8.600   6.149   4.343  0.3998  0.4218  0.8901
25681SOL     OW82879  11.283  12.303   0.771  0.3711  0.0323  0.1005
25681SOL    HW182880  11.371  12.287   0.803  0.1612 -1.2324  0.0799
25681SOL    HW282881  11.226  12.281   0.845  0.0438  0.2145 -0.0939
25682SOL     OW82882  11.455   4.864   2.507  1.2723  0.7217  0.2805
25682SOL    HW182883  11.416   4.942   2.547 -1.1880  0.4896 -1.4597
25682SOL    HW282884  11.437   4.873   2.413 -0.8624 -2.7442  0.1491
25683SOL     OW82885   4.066  12.038  10.337 -0.2744 -0.0043  0.1486
25683SOL    HW182886   4.128  12.111  10.347 -0.4535 -0.0121  1.4882
25683SOL    HW282887   4.098  11.990  10.260  0.3237  1.0140 -0.2646
25684SOL     OW82888   2.836   8.610   2.071 -0.3850 -0.3934  0.0250
25684SOL    HW182889   2.839   8.594   1.977  2.3780  0.3326 -0.0801
25684SOL    HW282890   2.804   8.527   2.108 -0.7456 -0.9496 -1.4646
25685SOL     OW82891   1.733   9.072   4.365 -0.7563  0.0625  0.6461
25685SOL    HW182892   1.700   9.162   4.363 -2.2410 -0.4184  1.9507
25685SOL    HW282893   1.659   9.018   4.339 -0.1504 -0.8508  0.7585
25686SOL     OW82894   2.747   2.417   8.199 -0.7950 -0.8344 -0.1869
25686SOL    HW182895   2.666   2.377   8.168 -0.5363 -1.7280  0.2651
25686SOL    HW282896   2.756   2.386   8.289 -0.4806  0.0974  0.1145
25687SOL     OW82897   1.872   0.641  10.271  0.1759 -1.4910 -0.1638
25687SOL    HW182898   1.888   0.660  10.179 -1.0474 -1.2038 -0.3375
25687SOL    HW282899   1.840   0.551  10.273  0.8409 -1.7294  0.0653
25688SOL     OW82900   6.040   0.965   8.152 -0.2461 -0.1691 -0.6571
25688SOL    HW182901   6.034   0.890   8.211 -1.9490  0.9251  0.6369
25688SOL    HW282902   6.117   1.013   8.182 -0.6260 -0.0605  0.1584
25689SOL     OW82903   5.157   3.958   9.613  0.6599  0.9976 -0.2420
25689SOL    HW182904   5.108   3.877   9.601  1.6367  0.0120  1.8652
25689SOL    HW282905   5.126   3.993   9.696  1.3360  1.9882 -0.3822
25690SOL     OW82906   8.566   3.316   4.044  0.3222  0.6277 -0.4502
25690SOL    HW182907   8.500   3.251   4.069  1.2343 -0.9018 -1.8331
25690SOL    HW282908   8.647   3.266   4.032  0.7465  1.7385 -2.9493
25691SOL     OW82909  12.043  11.449   7.899  0.0316 -0.3300  0.5350
25691SOL    HW182910  12.082  11.528   7.861  1.2071 -1.0059  0.2754
25691SOL    HW282911  11.949  11.463   7.892  0.1957  1.6137  1.7068
25692SOL     OW82912  10.272   4.251   4.012 -0.2349  0.4782 -0.0325
25692SOL    HW182913  10.328   4.210   3.946 -0.9230  2.1710 -1.7522
25692SOL    HW282914  10.212   4.181   4.040  1.6244 -0.9269  0.6849
25693SOL     OW82915   4.184   3.605   8.267  0.0615  0.3236  0.2069
25693SOL    HW182916   4.198   3.639   8.178 -0.9741  0.3757  0.0528
25693SOL    HW282917   4.149   3.517   8.253 -0.8882  0.6397  0.5431
25694SOL     OW82918   3.440  11.154   7.266  0.2911  0.1393 -0.0229
25694SOL    HW182919   3.509  11.150   7.200  1.5014  1.8934  1.0448
25694SOL    HW282920   3.480  11.117   7.345 -0.5840 -0.4152  0.1779
25695SOL     OW82921   0.451   1.830  10.599 -0.7763 -0.3246  0.0370
25695SOL    HW182922   0.471   1.901  10.660 -1.2545 -0.1498 -0.0028
25695SOL    HW282923   0.512   1.842  10.527 -0.1390 -0.5930  0.5220
25696SOL     OW82924   4.689   7.508   6.019  0.0380 -0.6067 -0.0220
25696SOL    HW182925   4.686   7.563   6.097  1.3425 -0.7540  0.1595
25696SOL    HW282926   4.692   7.418   6.053 -0.6834 -0.7355 -0.2813
25697SOL     OW82927   0.966  10.014   4.266 -0.1760  0.0995 -0.4742
25697SOL    HW182928   0.954   9.919   4.259  0.7763 -0.0114 -0.8214
25697SOL    HW282929   0.930  10.037   4.352  0.8047 -0.7973  0.2045
25698SOL     OW82930   5.052   5.498   6.743  0.1255  0.1885 -0.4806
25698SOL    HW182931   5.096   5.540   6.669  0.4413 -1.6810 -1.4037
25698SOL    HW282932   4.960   5.496   6.718  0.2385 -0.4839 -0.8686
25699SOL     OW82933   2.446   4.051   3.415 -0.6082  0.0762 -0.1244
25699SOL    HW182934   2.497   4.130   3.393 -0.6701 -0.1969 -1.3098
25699SOL    HW282935   2.363   4.062   3.369  0.3479 -1.8492 -2.5720
25700SOL     OW82936  11.746  11.954  12.113  0.2096  0.7815  0.1139
25700SOL    HW182937  11.821  11.997  12.073 -1.1747  2.7942 -0.5059
25700SOL    HW282938  11.698  12.025  12.157 -0.8205 -0.5893  1.3355
25701SOL     OW82939   9.531   6.082   7.637  0.1093  0.1466 -0.3961
25701SOL    HW182940   9.496   6.036   7.561  0.7480  0.1984 -0.7300
25701SOL    HW282941   9.489   6.040   7.712 -0.0263 -0.3504 -0.7436
25702SOL     OW82942   0.293   6.745   0.341  0.0892  0.1217  0.7485
25702SOL    HW182943   0.308   6.791   0.423  1.0856 -1.4084  1.4749
25702SOL    HW282944   0.352   6.787   0.278 -2.3592  2.8882  0.0854
25703SOL     OW82945   9.816   8.237   1.943  0.2934 -0.1840  0.2131
25703SOL    HW182946   9.819   8.256   1.849  0.7501 -2.3246 -0.2548
25703SOL    HW282947   9.908   8.228   1.969  0.1596  0.1120  0.8149
25704SOL     OW82948   5.336   7.475   0.797  0.1591  0.0492  0.8361
25704SOL    HW182949   5.413   7.522   0.766  1.0470 -1.3772  0.7634
25704SOL    HW282950   5.363   7.438   0.881 -0.7769  0.3029  1.2626
25705SOL     OW82951   6.043  12.126   2.392  0.2239  0.0472 -0.4070
25705SOL    HW182952   6.106  12.094   2.328  2.6519 -0.9006  2.2251
25705SOL    HW282953   6.079  12.210   2.421  1.0183 -0.9887  1.8926
25706SOL     OW82954   4.296   8.391   4.843  0.2040  0.0668 -0.1175
25706SOL    HW182955   4.366   8.453   4.822 -0.4264  1.4824  1.6666
25706SOL    HW282956   4.232   8.444   4.891 -1.3248 -1.5529 -0.2874
25707SOL     OW82957   5.665   0.965   7.453 -0.5468  0.3013 -0.5587
25707SOL    HW182958   5.584   0.985   7.499 -1.1550  2.0742 -2.2817
25707SOL    HW282959   5.734   0.983   7.517 -1.4344  0.2596  0.4418
25708SOL     OW82960   1.576  10.573   6.080  0.0860  0.2713 -0.2669
25708SOL    HW182961   1.528  10.595   6.000 -0.0312  0.7287 -0.0748
25708SOL    HW282962   1.661  10.543   6.049 -0.0676  0.1482 -0.5760
25709SOL     OW82963   8.740   9.544   8.987  0.5859 -0.4837  0.4300
25709SOL    HW182964   8.698   9.498   8.915 -1.3395  0.0524  1.1340
25709SOL    HW282965   8.834   9.531   8.973  0.1911 -2.4698 -0.7580
25710SOL     OW82966   3.086  12.205   5.195  0.2809  0.0717 -0.0395
25710SOL    HW182967   3.002  12.232   5.232 -0.3294 -0.0202 -1.2979
25710SOL    HW282968   3.117  12.137   5.254 -1.6471 -1.5335 -0.7587
25711SOL     OW82969   7.988   4.808   8.440  0.1415  0.2787  0.0445
25711SOL    HW182970   8.010   4.794   8.348 -0.8336  2.5605 -0.6200
25711SOL    HW282971   7.923   4.741   8.460  0.1744 -0.0912 -1.0177
25712SOL     OW82972   4.771   4.715   9.720  0.3931  0.3164 -0.0970
25712SOL    HW182973   4.732   4.639   9.763  2.2186 -1.5286 -1.4880
25712SOL    HW282974   4.735   4.714   9.631 -1.0484  2.2866  0.4183
25713SOL     OW82975   2.710   5.891   6.626 -0.3848  0.1530 -0.7771
25713SOL    HW182976   2.718   5.835   6.548 -1.9920  0.6754 -1.3560
25713SOL    HW282977   2.625   5.868   6.663  0.3835 -0.1411  0.9055
25714SOL     OW82978  10.050   3.303   4.824  0.7168 -0.4015  1.0634
25714SOL    HW182979  10.001   3.338   4.750 -2.0805 -2.6721  1.6726
25714SOL    HW282980  10.044   3.371   4.891  0.2495  0.2356  0.3993
25715SOL     OW82981   9.760   1.692   0.956 -0.4286  0.3409 -0.1757
25715SOL    HW182982   9.790   1.603   0.940 -1.7703 -0.0871 -0.4138
25715SOL    HW282983   9.670   1.694   0.922 -0.9245  1.3717  1.1035
25716SOL     OW82984   8.981   3.159   3.266  0.4953  0.7663  0.1381
25716SOL    HW182985   9.062   3.175   3.218  0.2778 -1.6059 -1.1605
25716SOL    HW282986   8.989   3.214   3.345  2.4813  2.0158 -0.8388
25717SOL     OW82987   5.664   1.761  11.783 -0.4707 -0.5770 -0.0362
25717SOL    HW182988   5.614   1.699  11.729  2.1896 -0.0294 -3.4616
25717SOL    HW282989   5.749   1.719  11.796  0.2951  1.0161  0.3486
25718SOL     OW82990   3.672   5.242   8.315 -0.0366  1.1346  0.5041
25718SOL    HW182991   3.623   5.165   8.285  1.1435  0.6365 -0.2140
25718SOL    HW282992   3.605   5.301   8.348 -1.0084 -0.0555  0.7497
25719SOL     OW82993   7.631   4.186   4.443  0.0888 -0.3141  0.7525
25719SOL    HW182994   7.588   4.119   4.496 -0.1849 -1.1712 -0.4909
25719SOL    HW282995   7.620   4.156   4.353  0.4893  1.1135  0.1915
25720SOL     OW82996   1.230  11.729   7.932  0.2726  0.1100  0.0913
25720SOL    HW182997   1.250  11.648   7.885  0.0046  0.4194 -0.5688
25720SOL    HW282998   1.166  11.704   7.998 -1.0129  0.0567 -1.1346
25721SOL     OW82999   7.449   2.803   4.667  0.1712  0.0457  0.3184
25721SOL    HW183000   7.399   2.880   4.641  0.1013  0.2716  1.0995
25721SOL    HW283001   7.471   2.759   4.584 -1.3923 -0.1140 -0.0366
25722SOL     OW83002   1.538   1.123   0.130  0.0146 -0.0511 -0.1509
25722SOL    HW183003   1.630   1.112   0.106  0.5271  3.1229 -0.1200
25722SOL    HW283004   1.534   1.094   0.222  0.9634 -0.2407 -0.1570
25723SOL     OW83005   9.785   0.618   8.057  0.2811  0.0447  0.3545
25723SOL    HW183006   9.706   0.650   8.100  0.8075  0.0592  1.3448
25723SOL    HW283007   9.804   0.685   7.991 -0.5087  0.0535  0.1204
25724SOL     OW83008  11.394  11.182  10.440 -0.5677 -0.3722  0.9054
25724SOL    HW183009  11.335  11.224  10.377 -0.6838 -0.7743  0.7489
25724SOL    HW283010  11.423  11.254  10.496 -1.4696 -0.2192  1.1939
25725SOL     OW83011  10.131   2.241   2.361  0.4002  0.3017  0.4563
25725SOL    HW183012  10.075   2.193   2.300 -0.0451 -2.5645  2.9245
25725SOL    HW283013  10.216   2.245   2.318 -0.4790  0.5748 -1.3497
25726SOL     OW83014   3.487   8.758   2.341  0.2453  0.4371 -0.1304
25726SOL    HW183015   3.575   8.761   2.304  0.5602 -0.3632  0.5263
25726SOL    HW283016   3.431   8.795   2.273  1.1780  1.7487 -0.2340
25727SOL     OW83017   2.224  11.335   0.987  0.7282 -0.3454 -0.2081
25727SOL    HW183018   2.240  11.420   1.027 -0.8145 -0.4196  0.6420
25727SOL    HW283019   2.159  11.293   1.043 -1.5189 -0.4785 -2.7058
25728SOL     OW83020   0.256   5.577  11.576 -0.1822  0.1044  0.2918
25728SOL    HW183021   0.251   5.616  11.489 -0.2566  0.4285  0.4382
25728SOL    HW283022   0.166   5.579  11.608 -0.2950 -0.7840  0.0513
25729SOL     OW83023   0.498   9.836   2.891 -0.0212  0.3552  0.0415
25729SOL    HW183024   0.423   9.789   2.929 -0.2985  0.0430 -0.8557
25729SOL    HW283025   0.563   9.767   2.875  0.6977  0.7006  1.3253
25730SOL     OW83026   4.900   9.004   0.071 -0.2571  0.1483  0.0546
25730SOL    HW183027   4.962   9.073   0.094 -0.4524 -0.0454  1.2471
25730SOL    HW283028   4.954   8.935   0.033 -0.0549  0.9141 -1.0944
25731SOL     OW83029   8.182  11.984   1.090 -0.5472  0.0298 -0.1337
25731SOL    HW183030   8.135  11.906   1.061  0.2237 -1.6022  2.6041
25731SOL    HW283031   8.220  12.020   1.010 -1.0777 -2.2931 -1.5321
25732SOL     OW83032   2.186  10.683   3.616  0.5538 -0.4534 -0.2066
25732SOL    HW183033   2.188  10.715   3.706  1.1546  0.6029 -0.5882
25732SOL    HW283034   2.270  10.708   3.579  0.4456 -1.1726 -0.9743
25733SOL     OW83035   4.541   8.803  10.651 -0.3253 -0.2881 -0.4562
25733SOL    HW183036   4.468   8.778  10.594 -0.3961 -0.3693 -0.3299
25733SOL    HW283037   4.534   8.898  10.659  1.3286  0.1618 -2.8873
25734SOL     OW83038   9.526   6.924   4.416 -0.4953 -0.5506 -0.1871
25734SOL    HW183039   9.576   7.006   4.416 -1.1887 -0.1081 -0.7567
25734SOL    HW283040   9.527   6.895   4.507  2.5362 -1.6666 -0.4693
25735SOL     OW83041   2.578   3.878   8.113  0.2164 -0.2683 -0.2967
25735SOL    HW183042   2.638   3.838   8.050  1.5939  0.5914  0.4066
25735SOL    HW283043   2.517   3.928   8.058  1.5744  0.7173 -0.9928
25736SOL     OW83044   6.729   0.689   9.714 -0.2035 -0.1507  0.4976
25736SOL    HW183045   6.808   0.743   9.718  1.0056 -1.7108 -0.7067
25736SOL    HW283046   6.739   0.627   9.786 -0.4851 -0.1538  0.5345
25737SOL     OW83047   5.759   8.195   4.657  0.1582  0.3809  0.4505
25737SOL    HW183048   5.727   8.273   4.702  0.3328 -0.2719  1.7464
25737SOL    HW283049   5.681   8.154   4.620 -0.1507  0.2852  1.1996
25738SOL     OW83050   5.194   1.113  10.037 -0.4710 -0.3627  0.1709
25738SOL    HW183051   5.137   1.188  10.019 -1.0319 -1.0342 -0.9536
25738SOL    HW283052   5.215   1.078   9.950  2.3862  0.3701  0.4392
25739SOL     OW83053   0.234   5.091   3.204 -0.1529  0.3958 -0.4337
25739SOL    HW183054   0.325   5.122   3.200  0.5117 -1.5234 -0.7669
25739SOL    HW283055   0.206   5.085   3.113 -0.0056 -0.7266 -0.4100
25740SOL     OW83056   0.807   9.986   5.044  0.1877 -0.0559 -0.3076
25740SOL    HW183057   0.747  10.030   4.985 -0.0755  1.6640  1.1759
25740SOL    HW283058   0.755   9.966   5.122  0.8445 -1.1029 -0.1120
25741SOL     OW83059   4.751   3.004  11.404 -0.0199 -0.1735 -1.0188
25741SOL    HW183060   4.696   2.978  11.331 -0.2600 -2.9270  0.0228
25741SOL    HW283061   4.689   3.031  11.472  0.1051  0.2158 -1.0559
25742SOL     OW83062   8.047   5.513   6.968 -0.3548  0.2031  0.1622
25742SOL    HW183063   7.951   5.510   6.960 -0.5919 -0.4608  2.5675
25742SOL    HW283064   8.063   5.568   7.045  1.0773 -1.3334  1.0337
25743SOL     OW83065   5.974   0.125   8.454  0.2058 -0.4164  0.2389
25743SOL    HW183066   5.900   0.130   8.393 -0.4029 -1.9516  0.7974
25743SOL    HW283067   5.970   0.036   8.489  1.0613  0.1565  1.8798
25744SOL     OW83068  11.968  11.709   8.379  0.4563 -0.1191  0.4362
25744SOL    HW183069  11.881  11.739   8.405  0.2234 -0.2524 -0.1617
25744SOL    HW283070  11.962  11.699   8.284  1.2714  0.3561  0.3251
25745SOL     OW83071   4.862   6.858  11.804 -0.0237  0.8885 -0.0647
25745SOL    HW183072   4.873   6.923  11.735  0.8211  1.7336  0.8304
25745SOL    HW283073   4.861   6.909  11.885  0.3226 -0.1858  0.6413
25746SOL     OW83074   4.648  10.401   1.183  0.5010  0.2681 -0.3227
25746SOL    HW183075   4.602  10.374   1.104  1.8942  0.6797 -1.3078
25746SOL    HW283076   4.671  10.493   1.168  3.0939 -0.3386 -0.6538
25747SOL     OW83077   9.643   5.347   2.203 -0.6256 -0.3948  0.0083
25747SOL    HW183078   9.646   5.397   2.121  1.9420 -1.8547 -0.9067
25747SOL    HW283079   9.690   5.403   2.265  2.9360 -1.7653 -1.2091
25748SOL     OW83080   8.224   1.456   1.667 -0.0374  0.4919  0.5839
25748SOL    HW183081   8.202   1.522   1.601 -1.2405 -0.3594  0.0892
25748SOL    HW283082   8.305   1.417   1.636 -2.4528 -2.6246 -2.7204
25749SOL     OW83083   5.357  10.583   8.873 -0.0189  0.5625 -0.1330
25749SOL    HW183084   5.265  10.569   8.850 -0.0413  0.9184 -0.2678
25749SOL    HW283085   5.363  10.556   8.964 -0.0609 -0.3007 -0.3723
25750SOL     OW83086  10.240   1.776   2.598 -0.4712  0.1176  0.5077
25750SOL    HW183087  10.207   1.852   2.550 -1.1664 -1.0602 -0.9692
25750SOL    HW283088  10.313   1.743   2.545 -1.9834 -1.8909 -0.4487
25751SOL     OW83089   0.062   3.147   9.890  0.5868 -0.0999 -0.6206
25751SOL    HW183090   0.005   3.072   9.907 -1.3873  1.7347  1.5903
25751SOL    HW283091   0.147   3.121   9.925  0.6187 -2.1228 -2.0369
25752SOL     OW83092  11.611  12.169   6.701  0.0780  0.2635  0.7261
25752SOL    HW183093  11.599  12.248   6.754  0.7217  2.1173 -1.7069
25752SOL    HW283094  11.533  12.165   6.646  0.9537  0.3466 -0.5424
25753SOL     OW83095   6.857   5.786   9.904 -0.1827 -0.0576 -0.3743
25753SOL    HW183096   6.778   5.739   9.929 -1.9300  2.4046 -0.8434
25753SOL    HW283097   6.899   5.809   9.987 -1.4945  0.9677  0.0431
25754SOL     OW83098   5.282   8.937   0.461  0.9846  0.0826 -0.0317
25754SOL    HW183099   5.323   8.985   0.533  0.4247 -1.6128  1.4971
25754SOL    HW283100   5.282   8.846   0.490  0.1281 -0.5583 -1.9079
25755SOL     OW83101   6.980   8.304   7.082  0.1851 -0.3432  0.3562
25755SOL    HW183102   6.893   8.266   7.096 -0.2732  0.2271 -0.8182
25755SOL    HW283103   7.010   8.266   7.000  0.8751 -0.2134  0.5405
25756SOL     OW83104   9.986  10.817   5.735 -0.0061  0.0910  0.2317
25756SOL    HW183105   9.922  10.870   5.686  1.3934  0.8302 -0.8797
25756SOL    HW283106  10.011  10.872   5.809  0.6541  0.5804 -0.3357
25757SOL     OW83107   2.420   8.457   7.154 -0.1155 -0.0854 -0.5129
25757SOL    HW183108   2.384   8.539   7.121  0.7959 -0.0217 -1.4246
25757SOL    HW283109   2.508   8.480   7.185 -0.5348 -0.3774  0.9574
25758SOL     OW83110   3.193   6.274   7.414  0.6651 -0.5337  0.2359
25758SOL    HW183111   3.138   6.214   7.464 -0.7809 -0.1896 -0.8678
25758SOL    HW283112   3.230   6.220   7.344  0.0806 -0.3628 -0.2210
25759SOL     OW83113   7.236   9.606   9.683  0.7695 -0.0231  0.0491
25759SOL    HW183114   7.202   9.636   9.599  0.6392  2.1237  0.8059
25759SOL    HW283115   7.182   9.531   9.706  0.3269 -0.1858 -1.4172
25760SOL     OW83116   4.900  11.006   3.774  0.3188  0.2204  0.0828
25760SOL    HW183117   4.899  10.912   3.754 -2.1778  0.0119  0.7871
25760SOL    HW283118   4.988  11.035   3.750  0.6899 -1.9858 -1.5790
25761SOL     OW83119   3.501  10.066   4.143  0.5276 -0.1395  0.9539
25761SOL    HW183120   3.423  10.121   4.136 -0.6694 -1.3996  3.2629
25761SOL    HW283121   3.533  10.058   4.053 -0.2430  2.8131  0.3145
25762SOL     OW83122   6.806  10.260   6.385 -0.0664 -0.2423  0.4696
25762SOL    HW183123   6.813  10.289   6.476 -1.5735  2.3134 -0.1230
25762SOL    HW283124   6.864  10.318   6.336  0.9568 -1.7781 -0.2177
25763SOL     OW83125   0.015   5.898  11.441 -0.0535 -0.8361 -0.3509
25763SOL    HW183126  -0.074   5.921  11.415  0.8410 -0.4085 -3.4377
25763SOL    HW283127   0.010   5.806  11.464 -1.1484 -1.0591 -1.3617
25764SOL     OW83128   8.458   5.960   3.252  0.6513 -0.1539 -0.1480
25764SOL    HW183129   8.427   5.942   3.163 -0.6022  1.1296 -0.0206
25764SOL    HW283130   8.491   5.876   3.284 -0.8705 -1.1556 -1.0643
25765SOL     OW83131   2.160   2.701   1.957 -1.0148  0.1012  0.3043
25765SOL    HW183132   2.220   2.761   2.001 -1.3992  0.2325  0.6523
25765SOL    HW283133   2.204   2.681   1.874 -0.2594 -0.1903  0.7619
25766SOL     OW83134   2.467   2.199   7.301  0.1776  0.1597 -0.4025
25766SOL    HW183135   2.376   2.210   7.328 -0.2145 -1.0689 -1.1254
25766SOL    HW283136   2.464   2.202   7.206  0.2743 -3.3966 -0.6746
25767SOL     OW83137   8.312  10.269   3.679 -0.2216 -0.2749  0.0454
25767SOL    HW183138   8.298  10.274   3.774 -0.8080 -1.1499  0.0214
25767SOL    HW283139   8.382  10.332   3.662 -0.0752 -0.1334  1.0658
25768SOL     OW83140   3.785   9.952   3.064 -0.0943  0.0324  0.4132
25768SOL    HW183141   3.744  10.032   3.098  0.3156 -0.5426  2.3776
25768SOL    HW283142   3.714   9.908   3.017 -0.6995  0.8815  0.4945
25769SOL     OW83143   9.138   2.232   9.526 -0.2875  0.2464  0.2267
25769SOL    HW183144   9.088   2.282   9.591 -1.4957 -1.3333  0.5729
25769SOL    HW283145   9.225   2.272   9.527 -0.9035  1.6449  1.2352
25770SOL     OW83146   7.625   0.535   5.398  0.1697  0.7173 -0.7294
25770SOL    HW183147   7.548   0.592   5.391 -0.4169 -0.0699 -0.8054
25770SOL    HW283148   7.647   0.513   5.308  0.4401  0.8777 -0.7035
25771SOL     OW83149   9.177  10.384   5.420  0.3150 -0.2940 -0.5343
25771SOL    HW183150   9.226  10.404   5.500 -2.6054  2.6989  0.7751
25771SOL    HW283151   9.205  10.450   5.357  0.4299 -0.7639 -0.9859
25772SOL     OW83152   9.770   2.446  12.289 -0.2531 -0.0051  0.3385
25772SOL    HW183153   9.803   2.481  12.372 -1.3248  0.7931  0.4432
25772SOL    HW283154   9.757   2.353  12.305  1.8917 -0.3757  0.2950
25773SOL     OW83155   2.496   0.728   8.587  0.4233 -0.2620  0.3378
25773SOL    HW183156   2.575   0.742   8.639  0.3713  0.4374  0.2299
25773SOL    HW283157   2.516   0.650   8.535  2.2011  1.5184 -1.8539
25774SOL     OW83158  10.068   1.207  11.706  0.4688  0.2140  0.5543
25774SOL    HW183159  10.077   1.240  11.796  0.6443 -0.6427  0.8572
25774SOL    HW283160  10.157   1.186  11.679  0.1222 -3.1209  1.5889
25775SOL     OW83161   1.718   8.710  10.453 -0.0491  0.1402  0.2848
25775SOL    HW183162   1.633   8.741  10.482 -0.6588 -1.2074  0.0400
25775SOL    HW283163   1.762   8.681  10.534 -1.0168 -1.8945  0.1374
25776SOL     OW83164   1.499   6.506   4.079  0.3191  0.3302 -0.2993
25776SOL    HW183165   1.445   6.501   4.000  1.4887 -1.7834 -1.0232
25776SOL    HW283166   1.564   6.573   4.059  0.2338  0.2471 -0.8821
25777SOL     OW83167   1.580   6.495   6.328  0.4361 -0.4756  0.3077
25777SOL    HW183168   1.538   6.572   6.290 -0.6324 -1.2894 -0.2157
25777SOL    HW283169   1.659   6.482   6.275  1.9165  1.5771  1.8410
25778SOL     OW83170   0.767   5.744   9.023 -0.4758 -0.1202 -0.7042
25778SOL    HW183171   0.695   5.698   9.066 -1.6284  0.4740 -1.9265
25778SOL    HW283172   0.731   5.772   8.939  0.7220  1.4914 -0.7283
25779SOL     OW83173   1.332  11.668   8.904  0.0446 -0.9813 -0.2374
25779SOL    HW183174   1.354  11.678   8.997 -0.5199  0.4828 -0.2376
25779SOL    HW283175   1.255  11.612   8.904 -0.2195 -0.6228  0.2056
25780SOL     OW83176  10.250   5.050   7.469 -0.0949 -0.2866  0.4663
25780SOL    HW183177  10.182   4.984   7.483 -1.1244  0.7656  0.6269
25780SOL    HW283178  10.306   5.014   7.400 -1.1599 -0.9271 -0.0847
25781SOL     OW83179   1.745   5.325  12.327  0.1427  0.6356 -0.0830
25781SOL    HW183180   1.688   5.402  12.318 -1.1316 -0.2325  0.2919
25781SOL    HW283181   1.700   5.270  12.391  0.5821 -0.8328 -1.0051
25782SOL     OW83182   2.439   7.929   9.904 -0.1065  0.2119  0.1007
25782SOL    HW183183   2.428   7.942   9.999 -0.2404 -0.2635  0.1525
25782SOL    HW283184   2.533   7.925   9.891 -0.0955 -0.0908  0.2656
25783SOL     OW83185   1.218   2.846   2.219 -0.0278 -0.5094 -0.1822
25783SOL    HW183186   1.153   2.784   2.189  1.4846 -2.8805  1.1287
25783SOL    HW283187   1.245   2.893   2.140 -1.6076 -1.1219 -1.1236
25784SOL     OW83188   7.288   2.544  12.042  0.0148  0.5502 -0.1909
25784SOL    HW183189   7.325   2.632  12.040  0.6117  0.2974 -0.6072
25784SOL    HW283190   7.345   2.495  12.102 -0.4012  0.4865  0.1533
25785SOL     OW83191  11.182  11.594   2.215  0.2373 -0.0107  0.3640
25785SOL    HW183192  11.177  11.650   2.137  2.0039 -1.5279 -0.9361
25785SOL    HW283193  11.139  11.645   2.284 -4.1348  0.2298 -2.1861
25786SOL     OW83194   8.704   4.038   1.270  0.0210  0.0016 -0.2002
25786SOL    HW183195   8.747   4.062   1.188 -0.5386 -0.0164 -0.5011
25786SOL    HW283196   8.676   3.948   1.257 -0.7033  0.2291 -0.2625
25787SOL     OW83197   9.504   9.848   6.662 -0.0706  0.0715 -0.5564
25787SOL    HW183198   9.493   9.760   6.697 -0.9184  0.3884  0.0049
25787SOL    HW283199   9.587   9.878   6.700  0.5075 -0.6769 -1.1951
25788SOL     OW83200   0.223   1.289   5.593 -0.1436 -0.4681 -0.4112
25788SOL    HW183201   0.161   1.361   5.604 -0.7355 -0.9872 -0.2520
25788SOL    HW283202   0.221   1.270   5.499 -0.2995 -0.5422 -0.3936
25789SOL     OW83203   0.126   3.212   7.637  0.6080  0.0279  0.2445
25789SOL    HW183204   0.084   3.255   7.711 -0.5310  0.2404 -0.4998
25789SOL    HW283205   0.181   3.280   7.598  3.3733 -0.7792  2.4085
25790SOL     OW83206   3.765  10.846   7.955 -0.1994 -0.1292  0.7436
25790SOL    HW183207   3.827  10.915   7.931 -0.0072 -0.0676  1.3899
25790SOL    HW283208   3.779  10.778   7.889 -1.8054  1.2445 -1.1323
25791SOL     OW83209   7.589   2.989   1.587 -0.1708 -0.2755  0.1322
25791SOL    HW183210   7.618   2.898   1.599 -0.7333 -0.4199  0.4298
25791SOL    HW283211   7.579   3.022   1.676 -1.5363 -0.4317  0.0489
25792SOL     OW83212   8.477   5.072   6.759 -0.1083 -0.3731 -0.2532
25792SOL    HW183213   8.430   5.017   6.697 -0.8810 -0.1819  0.1542
25792SOL    HW283214   8.415   5.141   6.782  0.1933 -0.4035  0.6818
25793SOL     OW83215   7.631   2.238   2.998 -0.5639 -0.1917 -0.7817
25793SOL    HW183216   7.556   2.265   2.945  0.6291  1.2531 -1.8046
25793SOL    HW283217   7.701   2.224   2.935  0.4239 -0.1268  0.2812
25794SOL     OW83218   3.436   4.994  10.704 -0.0167 -0.0590 -0.0481
25794SOL    HW183219   3.386   5.038  10.773  0.9750  0.3896  0.3968
25794SOL    HW283220   3.411   5.040  10.624 -1.8544 -1.1491 -0.1750
25795SOL     OW83221   0.264   0.545   5.048  0.2807  0.1038  0.1021
25795SOL    HW183222   0.223   0.622   5.088  0.3396  1.6787 -2.5750
25795SOL    HW283223   0.357   0.557   5.063  0.2789  0.5290 -0.1797
25796SOL     OW83224   0.342   9.658   3.390  0.0067  0.3995 -0.2361
25796SOL    HW183225   0.357   9.738   3.439  0.5626  0.2086 -0.0940
25796SOL    HW283226   0.261   9.622   3.427  1.2346 -0.5488  1.6114
25797SOL     OW83227   6.876   4.686   0.517 -0.8692  0.1715 -0.1530
25797SOL    HW183228   6.797   4.739   0.519 -0.4885  0.8942 -2.1395
25797SOL    HW283229   6.880   4.652   0.428  1.3800  0.7095 -0.3203
25798SOL     OW83230   2.238  10.918   8.209 -0.4805 -0.5843 -0.1889
25798SOL    HW183231   2.201  10.897   8.123 -0.4566 -0.9703 -0.1059
25798SOL    HW283232   2.166  10.961   8.256 -0.9097 -1.5398  0.0543
25799SOL     OW83233   2.839   9.581   5.096  0.0502 -0.4824  0.3826
25799SOL    HW183234   2.873   9.504   5.142 -1.4056 -1.1505  0.3893
25799SOL    HW283235   2.911   9.609   5.040  0.1070 -2.8616 -0.8481
25800SOL     OW83236   2.000   0.258   1.502  0.6259  0.3538 -0.2985
25800SOL    HW183237   2.021   0.338   1.550  0.8811  0.1707 -0.1094
25800SOL    HW283238   2.082   0.232   1.460  0.4767  0.3480 -0.5950
25801SOL     OW83239   7.532   2.414   9.878  0.4737  0.5475  0.2880
25801SOL    HW183240   7.626   2.429   9.891  0.5467 -0.0857  0.5308
25801SOL    HW283241   7.524   2.319   9.870 -0.2247  0.5406  0.9575
25802SOL     OW83242   1.758  11.600   8.700  0.1895  0.6314  0.4537
25802SOL    HW183243   1.806  11.641   8.628 -0.9516  1.4073  0.0902
25802SOL    HW283244   1.705  11.672   8.735  0.9185  0.3326  2.2548
25803SOL     OW83245   4.843   7.776   4.878  0.4476  0.1572  0.0392
25803SOL    HW183246   4.803   7.832   4.944 -0.6024 -2.0959  1.4388
25803SOL    HW283247   4.774   7.764   4.812 -0.1119 -1.1518  0.8300
25804SOL     OW83248  10.440   5.685   2.522  0.3167 -0.7027 -0.4231
25804SOL    HW183249  10.494   5.759   2.492 -1.2881 -0.2476 -2.4289
25804SOL    HW283250  10.394   5.719   2.599  0.7456 -0.1457 -0.4014
25805SOL     OW83251  11.337   4.685   3.466 -0.3151 -0.0105 -0.2324
25805SOL    HW183252  11.428   4.667   3.493  0.5491  1.8131 -1.6997
25805SOL    HW283253  11.319   4.620   3.398  0.2477  0.1920 -0.5859
25806SOL     OW83254   2.444   0.997   1.815  0.2565 -0.5514  0.2276
25806SOL    HW183255   2.523   0.984   1.762 -0.3474 -1.5473 -0.4623
25806SOL    HW283256   2.375   1.015   1.751  0.0838  1.2644  0.8759
25807SOL     OW83257   1.884   9.210   1.126 -0.0709  0.1153  0.4113
25807SOL    HW183258   1.923   9.133   1.084 -1.1627  0.6732 -1.7867
25807SOL    HW283259   1.803   9.178   1.166 -0.1928  0.0020  0.0728
25808SOL     OW83260   1.426   2.309   3.070 -0.2430 -0.1176  0.4074
25808SOL    HW183261   1.503   2.355   3.102  0.1393 -0.9090  0.6475
25808SOL    HW283262   1.391   2.263   3.147 -1.1811  0.5408  0.3910
25809SOL     OW83263   1.370   0.007   2.603 -0.5932  0.3685 -0.3577
25809SOL    HW183264   1.337  -0.073   2.563  0.4386  0.3731 -1.2653
25809SOL    HW283265   1.441   0.035   2.546  1.4681 -0.0086  1.8721
25810SOL     OW83266   1.459  10.256  10.024 -0.9015  0.3858 -0.1750
25810SOL    HW183267   1.379  10.297   9.990 -1.8391  0.1421  1.6184
25810SOL    HW283268   1.506  10.328  10.067  0.2928  0.6992 -1.8966
25811SOL     OW83269  11.929  11.099   9.877  0.5597  0.1528 -0.4251
25811SOL    HW183270  11.840  11.065   9.872  0.7603 -0.5707  0.7365
25811SOL    HW283271  11.931  11.153   9.956  1.6343 -1.3742  0.6432
25812SOL     OW83272   4.910   7.818   2.643 -0.3123 -0.1366  0.2791
25812SOL    HW183273   4.914   7.726   2.615  0.1363  0.3031 -1.1633
25812SOL    HW283274   4.832   7.853   2.600 -0.7912  0.0426  1.2588
25813SOL     OW83275  10.177   2.425   7.965  0.5582  0.4735  0.3791
25813SOL    HW183276  10.090   2.462   7.985 -0.3377 -1.6077  0.5926
25813SOL    HW283277  10.232   2.453   8.038  0.2827  2.4044 -0.1052
25814SOL     OW83278   4.710   0.906   9.565 -0.5912 -0.3393 -0.2932
25814SOL    HW183279   4.640   0.969   9.583  1.8128  2.0206  1.3588
25814SOL    HW283280   4.731   0.920   9.472 -0.7211  0.6158 -0.1874
25815SOL     OW83281   8.978   8.396   7.616  0.5126 -0.0974  0.0704
25815SOL    HW183282   8.907   8.458   7.634  1.4603  0.3976  2.4488
25815SOL    HW283283   8.941   8.311   7.640 -0.0523 -0.2091 -1.0930
25816SOL     OW83284   7.764   8.302   1.476  0.4052  0.1334  0.2725
25816SOL    HW183285   7.837   8.274   1.421  0.5216  1.3870 -0.2520
25816SOL    HW283286   7.724   8.221   1.506  1.5124 -0.5744 -0.1003
25817SOL     OW83287   0.930   9.409   4.394 -0.2569  0.1189  0.2146
25817SOL    HW183288   0.974   9.337   4.439 -0.9113  0.1580  0.9394
25817SOL    HW283289   0.867   9.442   4.458 -0.3126  1.0151 -0.2838
25818SOL     OW83290   8.334   3.209  11.719  0.0633 -0.2009  0.5017
25818SOL    HW183291   8.262   3.244  11.770 -0.7696 -2.8884  1.3311
25818SOL    HW283292   8.298   3.132  11.676  1.8219 -0.2439 -1.0385
25819SOL     OW83293   0.222   1.787   2.520  0.2814  0.4680  1.2011
25819SOL    HW183294   0.143   1.840   2.515 -1.2401 -1.7815 -0.1786
25819SOL    HW283295   0.259   1.790   2.431 -1.1732 -2.5665  0.3697
25820SOL     OW83296   3.110   2.923   0.276 -0.3154 -0.6667  0.7682
25820SOL    HW183297   3.071   2.993   0.328 -1.0741  0.2314 -0.9303
25820SOL    HW283298   3.063   2.844   0.304 -0.6049 -0.2402  1.5311
25821SOL     OW83299  12.325  11.033   2.902 -0.2025 -0.6444  0.3594
25821SOL    HW183300  12.277  10.951   2.888  0.8921 -1.3234  0.3897
25821SOL    HW283301  12.317  11.050   2.995 -1.1605 -0.2358  0.2118
25822SOL     OW83302  11.705   1.302   6.527  0.3313 -0.2802 -0.0902
25822SOL    HW183303  11.626   1.347   6.497  0.6021 -0.7624 -1.6535
25822SOL    HW283304  11.752   1.366   6.579 -1.0691  0.0219  0.8415
25823SOL     OW83305  10.000   9.725   5.913 -0.2828 -0.0602 -0.5706
25823SOL    HW183306   9.977   9.647   5.964  1.7518 -0.3709 -0.0546
25823SOL    HW283307   9.944   9.794   5.949  0.5072 -0.4582  1.5898
25824SOL     OW83308   5.787   5.387   2.557  0.1339  0.0468 -0.0907
25824SOL    HW183309   5.836   5.456   2.511  1.5813 -0.9034 -0.0495
25824SOL    HW283310   5.812   5.399   2.649 -0.1940 -0.0655  0.0120
25825SOL     OW83311   7.010   3.640  12.149 -0.0021 -0.0089  0.4582
25825SOL    HW183312   6.949   3.590  12.203  0.4446 -0.1352  0.8583
25825SOL    HW283313   7.087   3.651  12.205  0.4346 -0.0599 -0.1229
25826SOL     OW83314  12.046   0.419   7.633  0.6043  0.3925 -0.2940
25826SOL    HW183315  12.115   0.361   7.602  0.3497  0.6424 -1.3802
25826SOL    HW283316  11.983   0.361   7.675  1.1449  0.0867  0.1098
25827SOL     OW83317  11.514   9.399   7.054  0.1023  0.1125  0.0849
25827SOL    HW183318  11.525   9.392   6.960  0.4891 -1.7498  0.2205
25827SOL    HW283319  11.421   9.383   7.069 -0.0634  0.9631 -0.0089
25828SOL     OW83320   2.238  12.112   7.929  0.0190 -0.1955  0.0700
25828SOL    HW183321   2.159  12.164   7.944 -0.5247 -0.9409 -0.1659
25828SOL    HW283322   2.219  12.028   7.971  1.0689 -0.0668  0.8629
25829SOL     OW83323   5.538   5.589   7.116  0.4137 -0.7595  0.2434
25829SOL    HW183324   5.456   5.585   7.067  0.7253  0.4287 -0.4081
25829SOL    HW283325   5.513   5.616   7.204  0.1773  0.4070 -0.1738
25830SOL     OW83326   3.593   2.989  10.411  0.6045  0.3527  0.4347
25830SOL    HW183327   3.583   3.084  10.402 -1.5808  0.1183 -0.3351
25830SOL    HW283328   3.649   2.978  10.488  1.0636  2.2608  0.4278
25831SOL     OW83329   5.607   1.700   0.388 -0.1305  0.1465  0.1145
25831SOL    HW183330   5.533   1.687   0.448  0.9115 -4.7864  0.7906
25831SOL    HW283331   5.673   1.744   0.440 -1.4691  1.8828  0.4268
25832SOL     OW83332  11.365   2.439  10.534  0.5169  0.0481 -0.0190
25832SOL    HW183333  11.311   2.518  10.527 -0.4543 -0.6394 -0.5935
25832SOL    HW283334  11.342   2.387  10.457  1.4435 -0.6150  0.1365
25833SOL     OW83335   5.025   4.508   1.198 -0.0303 -0.1712 -0.2468
25833SOL    HW183336   4.958   4.570   1.172 -1.6715 -1.1621  1.3786
25833SOL    HW283337   5.091   4.561   1.243  0.2205  0.7806 -1.6731
25834SOL     OW83338   0.855   2.261  10.162  0.5163 -0.0545  0.0164
25834SOL    HW183339   0.936   2.218  10.188  1.7783  1.4541 -1.2183
25834SOL    HW283340   0.854   2.343  10.212 -1.2968 -0.9284  1.5176
25835SOL     OW83341  12.125   0.891   2.667  0.1601  0.0331 -0.0420
25835SOL    HW183342  12.145   0.977   2.629 -1.1573 -0.0326 -0.9588
25835SOL    HW283343  12.176   0.888   2.747 -0.3009  1.9689  0.3774
25836SOL     OW83344   8.092   1.730   1.759 -0.5553 -0.0401 -0.3034
25836SOL    HW183345   8.098   1.825   1.755 -0.3383 -0.0417 -0.0747
25836SOL    HW283346   8.145   1.706   1.835 -1.0592 -0.3012 -0.0319
25837SOL     OW83347   0.946  11.577   8.765  0.6866  0.3713  0.1058
25837SOL    HW183348   1.011  11.549   8.830  0.3818  1.9895  1.1723
25837SOL    HW283349   0.973  11.665   8.740  0.0424  0.2785 -0.9868
25838SOL     OW83350   9.799   2.890  10.323  0.3910 -0.1384  0.2181
25838SOL    HW183351   9.833   2.979  10.334 -1.4221  0.3944  2.1935
25838SOL    HW283352   9.759   2.869  10.407  1.3789 -3.1457  0.0407
25839SOL     OW83353   0.987  11.834   8.683  0.0311  0.4171  0.5294
25839SOL    HW183354   0.928  11.902   8.716 -0.3417  0.7291 -0.6979
25839SOL    HW283355   1.067  11.881   8.660 -0.6724  0.7368 -1.5364
25840SOL     OW83356   6.996   8.436   6.306  0.6492 -0.4722  0.0617
25840SOL    HW183357   6.914   8.486   6.310  1.1860  0.5276 -1.0337
25840SOL    HW283358   7.057   8.483   6.362  1.2241  0.2604 -1.1528
25841SOL     OW83359   4.246   7.763   9.741  0.0738  0.1921  0.2642
25841SOL    HW183360   4.188   7.709   9.689  1.1200 -0.7731  0.0480
25841SOL    HW283361   4.253   7.717   9.825  1.3363 -0.2993 -0.0821
25842SOL     OW83362   4.268   4.085   8.023  0.1027 -0.1158  0.1159
25842SOL    HW183363   4.307   4.093   7.936  1.1058  1.6107  0.6642
25842SOL    HW283364   4.210   4.010   8.017  2.1219 -1.6602 -1.2990
25843SOL     OW83365   2.280   1.284  10.096  0.4452 -0.4583  0.2365
25843SOL    HW183366   2.333   1.317  10.023  0.1200  1.3658  0.7772
25843SOL    HW283367   2.314   1.196  10.112  2.3528  0.1168 -0.3448
25844SOL     OW83368   7.147   9.540   9.007  0.2645  0.4816 -0.3059
25844SOL    HW183369   7.079   9.472   9.002 -1.0579  1.7768 -0.5312
25844SOL    HW283370   7.157   9.557   9.100 -0.8425  1.3549 -0.3331
25845SOL     OW83371   6.337   4.063   0.436 -0.0643  0.0734  0.2472
25845SOL    HW183372   6.399   4.088   0.368 -1.1093 -0.3404 -0.8958
25845SOL    HW283373   6.310   4.145   0.477 -0.8319  0.5255 -1.1151
25846SOL     OW83374   9.814   2.593   2.444  0.2851  0.0275 -0.1977
25846SOL    HW183375   9.880   2.546   2.496  1.9499  0.4973 -1.7849
25846SOL    HW283376   9.857   2.675   2.419 -1.2368  0.7474 -0.5724
25847SOL     OW83377   7.491   2.214   4.154 -0.6115  0.3940  0.3438
25847SOL    HW183378   7.549   2.285   4.127  1.1157 -1.6546 -1.8138
25847SOL    HW283379   7.449   2.186   4.072 -1.8835 -0.5452  1.2881
25848SOL     OW83380  11.714   2.741   0.310  0.0747 -0.4724 -0.1642
25848SOL    HW183381  11.743   2.830   0.291  1.7436 -1.1512 -0.9602
25848SOL    HW283382  11.629   2.734   0.266  0.2830  0.4762 -0.7485
25849SOL     OW83383   3.309   6.650   3.543 -0.3335  0.2018 -0.1169
25849SOL    HW183384   3.241   6.583   3.541 -0.3621  0.1519  1.7014
25849SOL    HW283385   3.305   6.687   3.631 -0.1033  2.3946 -0.9685
25850SOL     OW83386   2.871  10.064   8.741 -0.2103 -0.1788 -0.4067
25850SOL    HW183387   2.937  10.010   8.785 -1.1400 -0.1095  1.1537
25850SOL    HW283388   2.913  10.092   8.660  1.8993  0.3390  0.7872
25851SOL     OW83389   6.558   3.373   6.784  0.0794  0.5073 -0.4310
25851SOL    HW183390   6.531   3.364   6.876 -0.8222  2.7996 -0.4280
25851SOL    HW283391   6.647   3.408   6.789 -0.2522  1.3683 -0.4063
25852SOL     OW83392   7.566  10.594   2.388  0.1106 -0.4160  0.4483
25852SOL    HW183393   7.597  10.599   2.478  0.0960  0.6969  0.4019
25852SOL    HW283394   7.548  10.501   2.374  0.7446 -0.6927  1.3747
25853SOL     OW83395  11.586   9.663   8.266 -0.2929  0.2889 -0.8357
25853SOL    HW183396  11.542   9.747   8.267 -1.6490 -0.4020  0.1761
25853SOL    HW283397  11.633   9.659   8.349  1.0350  0.6651 -1.5420
25854SOL     OW83398   3.089   4.502   2.903 -0.4244 -0.5566 -0.0041
25854SOL    HW183399   3.165   4.500   2.961 -0.4044  0.8038  0.0414
25854SOL    HW283400   3.013   4.506   2.961 -0.4831 -0.8281 -0.0602
25855SOL     OW83401   6.172   4.707   1.056 -0.1237 -0.2122 -0.0669
25855SOL    HW183402   6.103   4.760   1.093  0.6518 -0.2670  1.5422
25855SOL    HW283403   6.128   4.651   0.992 -1.2964  0.7766 -0.1569
25856SOL     OW83404   1.227  10.891   6.449  0.3542 -0.1456 -0.1155
25856SOL    HW183405   1.284  10.895   6.373 -0.6666 -0.1554 -0.8959
25856SOL    HW283406   1.197  10.800   6.452 -1.6108  0.4169 -1.2344
25857SOL     OW83407   9.552   1.205  11.065 -0.2301 -0.6537  0.3055
25857SOL    HW183408   9.487   1.227  11.132 -0.2523 -0.0956  0.1014
25857SOL    HW283409   9.499   1.172  10.991 -0.6773  3.1115 -1.2843
25858SOL     OW83410   7.036   5.379   5.099  0.5522  0.3232 -0.3462
25858SOL    HW183411   6.970   5.426   5.149 -0.5911  0.2177 -1.7010
25858SOL    HW283412   7.119   5.401   5.142 -0.0745  2.5495 -0.1876
25859SOL     OW83413   9.808   6.018   2.037  0.0127 -0.3750  0.4222
25859SOL    HW183414   9.743   5.990   1.973 -1.7845  0.5698  1.7184
25859SOL    HW283415   9.847   5.936   2.068 -0.9238 -1.0258 -0.0393
25860SOL     OW83416   2.447   3.199  11.708  0.5678 -0.3349  0.1188
25860SOL    HW183417   2.465   3.184  11.615  1.2957  1.2212 -0.0287
25860SOL    HW283418   2.464   3.115  11.750  1.6195 -0.6976 -0.9832
25861SOL     OW83419   4.933   0.909  10.151  0.0593  0.5423  0.6042
25861SOL    HW183420   5.013   0.944  10.191  0.9993 -3.4827  2.8151
25861SOL    HW283421   4.862   0.945  10.204  0.6536  1.6250  0.6915
25862SOL     OW83422   3.596   9.580   4.896 -0.0577 -0.3134 -0.0462
25862SOL    HW183423   3.669   9.622   4.850  0.2155 -0.8264 -0.0979
25862SOL    HW283424   3.575   9.504   4.842 -1.3871  0.4437 -0.6279
25863SOL     OW83425   5.624  11.117  10.877  0.3840 -0.0924 -0.3854
25863SOL    HW183426   5.609  11.067  10.957 -1.2986 -0.5100 -0.9075
25863SOL    HW283427   5.548  11.096  10.821  1.0550  0.8792 -1.7264
25864SOL     OW83428   3.232   0.625   7.061  0.1283  0.5481  0.6038
25864SOL    HW183429   3.257   0.613   7.152 -0.6505 -0.4337  0.7091
25864SOL    HW283430   3.151   0.676   7.065  0.0346  0.4113  0.4644
25865SOL     OW83431  11.170   4.234   3.667  0.0489  0.4960 -0.1587
25865SOL    HW183432  11.082   4.198   3.677 -0.2058  0.9386 -0.7993
25865SOL    HW283433  11.186   4.280   3.750 -0.7602  1.3355 -0.4491
25866SOL     OW83434   2.866   7.073   0.408  0.3955  1.0025  0.6623
25866SOL    HW183435   2.819   7.140   0.359  1.8728  1.4916 -0.1389
25866SOL    HW283436   2.807   6.997   0.407 -1.2526  2.1896  1.4676
25867SOL     OW83437   4.449   0.161   3.761 -0.3803 -0.2517  1.0394
25867SOL    HW183438   4.359   0.131   3.749 -0.2877 -0.2092  0.2220
25867SOL    HW283439   4.441   0.255   3.780 -0.5725 -0.4713  2.1384
25868SOL     OW83440   5.278   4.874   9.310 -0.2858  0.3386 -0.3007
25868SOL    HW183441   5.335   4.838   9.242 -0.3366  0.8339 -0.6079
25868SOL    HW283442   5.199   4.821   9.305  0.2936 -0.6343  0.4158
25869SOL     OW83443   4.371   3.303   1.583  0.4929  0.1568 -0.0920
25869SOL    HW183444   4.329   3.275   1.664  0.2834 -0.4606 -0.4056
25869SOL    HW283445   4.298   3.324   1.524  0.5253 -1.8876 -0.9833
25870SOL     OW83446   2.310  11.578   1.035 -0.1493 -0.0331  0.6125
25870SOL    HW183447   2.320  11.652   1.095 -0.8525  0.3821  0.2319
25870SOL    HW283448   2.382  11.586   0.974 -0.1237  0.2392  0.6767
25871SOL     OW83449   2.558  11.357   6.207  0.3758  0.0203 -0.0764
25871SOL    HW183450   2.625  11.292   6.228 -0.0969 -0.7804 -0.9794
25871SOL    HW283451   2.585  11.393   6.122  0.2852  0.5297  0.1082
25872SOL     OW83452   8.569   9.114  11.365  0.1457  0.1515  0.2200
25872SOL    HW183453   8.627   9.182  11.330  1.3146 -1.0975 -0.3522
25872SOL    HW283454   8.627   9.041  11.386 -0.7117  0.2129  3.2746
25873SOL     OW83455   1.292   2.055   5.595 -0.1692 -0.0847  0.1447
25873SOL    HW183456   1.260   1.966   5.579  1.0132 -0.3429 -0.9302
25873SOL    HW283457   1.288   2.098   5.509 -0.5277  0.8372  0.6107
25874SOL     OW83458   5.797   7.603  12.285  0.3629  0.8659  0.3279
25874SOL    HW183459   5.888   7.577  12.302  0.2225 -0.9636 -1.3577
25874SOL    HW283460   5.756   7.524  12.248 -0.6188  2.9435 -3.5825
25875SOL     OW83461   9.940  10.389   3.636  0.1025 -0.0488 -0.2420
25875SOL    HW183462   9.917  10.427   3.551 -2.2136  0.6259  0.6058
25875SOL    HW283463   9.856  10.371   3.678  1.1781 -1.1554  1.5939
25876SOL     OW83464   6.400   1.119  12.150 -0.0788 -0.2775 -0.2108
25876SOL    HW183465   6.357   1.038  12.178 -0.0593  0.4711  2.2220
25876SOL    HW283466   6.489   1.112  12.187 -0.0985  0.8575  0.0814
25877SOL     OW83467   1.889   7.620   4.633 -0.7120 -0.4847 -0.1908
25877SOL    HW183468   1.963   7.569   4.667 -0.9253 -1.9155 -1.7615
25877SOL    HW283469   1.922   7.710   4.626  1.2967 -1.2886 -1.9506
25878SOL     OW83470  11.679   6.396   3.578  0.4496 -0.0776 -0.3623
25878SOL    HW183471  11.627   6.361   3.651  0.5905 -0.0119 -0.2282
25878SOL    HW283472  11.627   6.468   3.543  0.2124 -0.3482 -0.5648
25879SOL     OW83473   9.205  10.102   5.724 -0.2956 -0.1098  0.2143
25879SOL    HW183474   9.154  10.033   5.768 -2.2533  1.3726  0.4111
25879SOL    HW283475   9.189  10.180   5.778  0.4726  0.8688 -0.9523
25880SOL     OW83476  10.964   2.984   6.028 -0.6167 -0.2830 -0.0482
25880SOL    HW183477  10.971   2.889   6.041  0.4416 -0.3840 -1.1799
25880SOL    HW283478  11.035   3.005   5.967 -1.8433  0.9873 -1.1025
25881SOL     OW83479   6.090   5.954   8.760  0.4190 -0.1851 -0.4133
25881SOL    HW183480   6.005   5.978   8.724  0.0308 -1.4549 -0.3863
25881SOL    HW283481   6.145   6.031   8.745 -0.7885  0.7422 -0.2120
25882SOL     OW83482   7.262   0.737   0.933  0.2930  0.5124 -0.1483
25882SOL    HW183483   7.340   0.685   0.914 -0.4052 -0.5314 -0.2121
25882SOL    HW283484   7.211   0.683   0.993  0.4962  2.0063  1.4382
25883SOL     OW83485  10.557  12.161   1.607 -0.1185 -0.2011  0.5858
25883SOL    HW183486  10.492  12.132   1.544  0.1723  1.1305 -0.3644
25883SOL    HW283487  10.637  12.170   1.557  0.2845  0.2147  1.2870
25884SOL     OW83488   3.334   7.271   9.248 -0.3879 -0.0332  0.0143
25884SOL    HW183489   3.380   7.187   9.258  0.2799  0.4539  1.1629
25884SOL    HW283490   3.278   7.257   9.172 -0.8643 -1.7757  0.6210
25885SOL     OW83491   7.541   9.320   1.831 -0.1480  0.3126  0.0821
25885SOL    HW183492   7.584   9.364   1.904  1.1283 -0.4634 -0.1763
25885SOL    HW283493   7.523   9.232   1.862  2.5557 -0.8351 -1.1895
25886SOL     OW83494  11.020   1.787   8.695 -0.0934  0.0455  0.0300
25886SOL    HW183495  10.973   1.706   8.674  0.4711 -0.6609  1.3779
25886SOL    HW283496  11.086   1.795   8.626  0.9820 -1.5971  0.8073
25887SOL     OW83497   3.572   6.601   1.119  0.0303 -0.1596  0.2218
25887SOL    HW183498   3.659   6.613   1.157  0.4383  2.4141 -1.2853
25887SOL    HW283499   3.513   6.608   1.193  0.9435  2.0408  0.8326
25888SOL     OW83500   8.920   5.094   1.270  0.2622  0.8469  0.0640
25888SOL    HW183501   8.953   5.148   1.342 -0.4170  0.8124  0.4093
25888SOL    HW283502   8.971   5.013   1.275 -1.4022 -0.1789  2.0571
25889SOL     OW83503   6.166   5.464   2.734  0.1215  0.5683  0.7812
25889SOL    HW183504   6.122   5.380   2.726  0.7263  0.3294 -0.2233
25889SOL    HW283505   6.162   5.485   2.827  0.8238 -1.0444  1.1992
25890SOL     OW83506   2.238   0.130   1.893  0.0561 -0.0702 -0.2421
25890SOL    HW183507   2.168   0.179   1.937  0.0439 -0.2286 -0.0840
25890SOL    HW283508   2.315   0.186   1.901  0.7941 -1.3056  2.5335
25891SOL     OW83509   0.488   6.689  12.331 -0.0644  0.4983 -0.0526
25891SOL    HW183510   0.437   6.761  12.369 -1.7684 -1.3162  1.3380
25891SOL    HW283511   0.493   6.710  12.238 -3.3188  0.9378 -0.2707
25892SOL     OW83512   4.588   8.477   1.743 -0.1089  0.1477 -0.4748
25892SOL    HW183513   4.599   8.509   1.654  1.6891  0.2646 -0.2351
25892SOL    HW283514   4.610   8.384   1.739 -1.2265 -0.1344 -0.3706
25893SOL     OW83515  11.005   1.094   0.323  0.1621  0.4148 -0.6764
25893SOL    HW183516  10.983   1.024   0.261  0.8673 -0.9046  0.5120
25893SOL    HW283517  11.042   1.049   0.399 -0.1872  2.0204  0.5106
25894SOL     OW83518   2.173   8.294   0.627  0.8093  0.0721  0.2024
25894SOL    HW183519   2.166   8.238   0.550  0.5374  2.1585 -1.3646
25894SOL    HW283520   2.257   8.271   0.666  0.4297 -1.8353  0.0022
25895SOL     OW83521   5.725   0.421  10.467  0.6045 -0.1315 -0.2695
25895SOL    HW183522   5.641   0.424  10.421  0.1335  1.7318  0.5928
25895SOL    HW283523   5.762   0.336  10.444 -1.6570 -1.1633 -0.4308
25896SOL     OW83524  11.452   1.976   5.418 -0.3394 -0.0514 -0.1472
25896SOL    HW183525  11.534   1.949   5.377 -0.0680  0.9593 -0.3076
25896SOL    HW283526  11.396   1.899   5.413 -0.0439 -0.2057 -1.7062
25897SOL     OW83527  11.891   5.925   8.099 -0.1479  0.1137  0.0448
25897SOL    HW183528  11.817   5.954   8.045  1.1860  0.6008 -1.5839
25897SOL    HW283529  11.875   5.831   8.112 -0.3274 -0.1124 -1.5394
25898SOL     OW83530   8.996   2.193   0.902  0.3880  0.3152  0.5273
25898SOL    HW183531   8.917   2.146   0.873 -0.2145  0.8774  1.2318
25898SOL    HW283532   9.059   2.179   0.831 -0.6733  0.6928 -0.5295
25899SOL     OW83533  12.051   8.078   6.967  0.4223  0.4035  0.4370
25899SOL    HW183534  11.957   8.061   6.961 -0.7708  3.8325  4.5754
25899SOL    HW283535  12.081   8.024   7.040  1.6116 -0.3042 -0.5394
25900SOL     OW83536   2.629   1.147   2.202  0.1138  0.1960 -0.0707
25900SOL    HW183537   2.545   1.105   2.182  0.8846 -1.4184 -0.0750
25900SOL    HW283538   2.620   1.236   2.168 -1.5568  0.0395 -0.1390
25901SOL     OW83539   5.026   6.460   9.977  0.0820  0.5794 -0.0988
25901SOL    HW183540   4.954   6.508  10.017  1.2440  1.9036  0.4609
25901SOL    HW283541   5.086   6.441  10.049  1.1436  1.0790 -0.8170
25902SOL     OW83542   1.479   1.447   1.428  0.0519 -0.6045  0.3388
25902SOL    HW183543   1.419   1.503   1.478 -0.1613 -0.4935 -0.0408
25902SOL    HW283544   1.546   1.421   1.492  0.6239  0.7615  0.3383
25903SOL     OW83545   5.378   8.095   1.773 -0.2554  0.5802  0.3892
25903SOL    HW183546   5.462   8.116   1.815  0.3122 -1.1335  0.1873
25903SOL    HW283547   5.349   8.014   1.816 -1.4911  0.8007  0.0020
25904SOL     OW83548   1.399   2.449   3.828 -0.1580 -0.1984  0.0041
25904SOL    HW183549   1.344   2.525   3.811  0.6862  0.0191 -2.0016
25904SOL    HW283550   1.422   2.416   3.741  3.1928 -0.0324  0.6894
25905SOL     OW83551   5.909  11.606   7.272 -0.4823 -0.0115 -0.1194
25905SOL    HW183552   5.974  11.560   7.325 -0.0587  1.2802  0.5226
25905SOL    HW283553   5.861  11.660   7.334 -1.1760  0.1827 -0.8118
25906SOL     OW83554  11.696   2.311   1.297  0.4913 -0.0850 -0.0970
25906SOL    HW183555  11.629   2.260   1.250  0.6526 -0.1242 -0.2847
25906SOL    HW283556  11.753   2.245   1.336 -0.7007 -0.0961  1.7174
25907SOL     OW83557   4.780   7.087   4.509 -0.4169 -0.4795 -0.0607
25907SOL    HW183558   4.848   7.138   4.553 -1.5134 -0.6321  1.9190
25907SOL    HW283559   4.765   7.133   4.426  1.1886  0.2660  0.0280
25908SOL     OW83560   8.110   6.652  11.232 -0.6338  0.0093 -0.3917
25908SOL    HW183561   8.130   6.592  11.304 -1.0239 -1.4137 -1.4270
25908SOL    HW283562   8.080   6.596  11.161  0.7772  1.2346 -2.0701
25909SOL     OW83563   7.937   4.179   1.423  0.4650  0.0422  0.1577
25909SOL    HW183564   8.013   4.233   1.442  0.1246  0.2412  1.0466
25909SOL    HW283565   7.972   4.093   1.402  0.9225 -0.0451  1.2106
25910SOL     OW83566   8.751   5.046   6.730  0.0735 -0.1570  0.4028
25910SOL    HW183567   8.660   5.033   6.757 -0.2900  1.5726  0.1175
25910SOL    HW283568   8.748   5.050   6.635 -0.1480  3.3934  0.4552
25911SOL     OW83569   3.255   4.116   1.873  0.1808  0.4043 -0.1237
25911SOL    HW183570   3.312   4.164   1.813  0.1136 -0.5720 -1.0135
25911SOL    HW283571   3.255   4.026   1.838 -1.0189  0.1446  0.4983
25912SOL     OW83572  11.109   1.567   6.794  0.8367 -0.4015 -0.0535
25912SOL    HW183573  11.202   1.582   6.774  0.7238  0.9336  0.3466
25912SOL    HW283574  11.085   1.640   6.851 -0.2837 -1.1380  0.4344
25913SOL     OW83575   8.801   2.976   3.817 -0.1916 -0.2780  0.7348
25913SOL    HW183576   8.822   2.904   3.757  1.4287  0.9032 -0.2014
25913SOL    HW283577   8.729   3.023   3.775 -0.2333 -0.4734  0.5886
25914SOL     OW83578   4.955   3.744   2.847  0.1452 -0.4089 -0.3349
25914SOL    HW183579   4.868   3.713   2.873 -0.4492 -0.0589 -1.8403
25914SOL    HW283580   5.008   3.733   2.926 -1.4586  0.1602  0.8818
25915SOL     OW83581   8.437   1.979  10.308  0.0072  0.2193 -0.6346
25915SOL    HW183582   8.377   2.054  10.305  0.2661  0.4405 -0.3639
25915SOL    HW283583   8.392   1.914  10.362  0.3184  0.6671  0.1819
25916SOL     OW83584  10.551   2.046   9.472 -0.1531  0.2776 -0.2012
25916SOL    HW183585  10.558   2.142   9.478 -1.4232  0.3041  1.9852
25916SOL    HW283586  10.514   2.020   9.557 -3.5329 -1.7867 -2.0933
25917SOL     OW83587   5.745   8.872   8.579 -0.2634  0.9772  0.2200
25917SOL    HW183588   5.661   8.912   8.603 -0.9249 -0.4053  0.3373
25917SOL    HW283589   5.788   8.938   8.524 -2.3332  0.9563 -1.5815
25918SOL     OW83590   7.635   1.966  11.456 -0.2025  0.0735  0.3524
25918SOL    HW183591   7.639   2.021  11.534 -0.7722 -0.9975  1.1649
25918SOL    HW283592   7.597   2.022  11.388 -0.2106  0.8551  0.9905
25919SOL     OW83593   6.367   8.593   4.524  0.6671  0.6276 -0.7256
25919SOL    HW183594   6.336   8.606   4.614  0.1682  0.9539 -0.9366
25919SOL    HW283595   6.441   8.534   4.532 -0.1100 -0.3143 -0.2074
25920SOL     OW83596   2.948   3.674  10.365 -0.1232  0.0606  0.1473
25920SOL    HW183597   2.923   3.692  10.274  1.0508 -0.7194 -0.3590
25920SOL    HW283598   2.945   3.579  10.373 -2.0216  0.1863  1.5048
25921SOL     OW83599   2.069   0.755   1.040 -0.2421  0.3409  0.0482
25921SOL    HW183600   2.045   0.677   1.090  0.9229 -0.1999 -0.2139
25921SOL    HW283601   2.115   0.810   1.102 -0.1774  0.3662 -0.0218
25922SOL     OW83602   6.801  11.737  11.001  0.2845  0.2544 -0.0361
25922SOL    HW183603   6.723  11.708  10.953 -1.0737  0.2462  2.0462
25922SOL    HW283604   6.855  11.658  11.008 -0.7052 -0.3921  0.6238
25923SOL     OW83605   0.280   8.553  10.535  0.1267 -0.1461  0.1351
25923SOL    HW183606   0.233   8.474  10.509 -0.9850  0.1075  1.2535
25923SOL    HW283607   0.336   8.525  10.608  1.1171 -0.2675 -0.6496
25924SOL     OW83608   1.708   3.159   9.722  0.2662  0.1389  0.3584
25924SOL    HW183609   1.731   3.082   9.671  1.8868  0.2439  0.8642
25924SOL    HW283610   1.775   3.163   9.791  0.7622  2.4735 -0.1610
25925SOL     OW83611   5.800   5.537   1.292  0.5022 -0.0834 -0.4244
25925SOL    HW183612   5.821   5.446   1.270  0.4044 -0.1398 -0.2853
25925SOL    HW283613   5.704   5.539   1.299  0.4609  0.1550 -0.9846
25926SOL     OW83614   1.954   2.888   5.993 -0.5512 -0.4818 -0.1684
25926SOL    HW183615   2.036   2.872   5.946  0.4481 -1.4125  1.7972
25926SOL    HW283616   1.915   2.801   6.003 -0.8299 -0.2755  0.5745
25927SOL     OW83617   4.873   8.861   6.893 -0.0135 -0.1655 -0.4383
25927SOL    HW183618   4.796   8.889   6.843 -0.1800  1.0390  0.4675
25927SOL    HW283619   4.838   8.829   6.976  0.3792 -0.6981 -0.4735
25928SOL     OW83620   7.240   6.787   2.385  0.1013  0.1229 -0.0224
25928SOL    HW183621   7.314   6.811   2.442  0.7137 -1.8050  0.0493
25928SOL    HW283622   7.163   6.800   2.440  0.1254  3.7098 -0.5799
25929SOL     OW83623   4.054   1.795   6.239 -0.3853  0.0153  0.1947
25929SOL    HW183624   4.135   1.746   6.249 -0.5008 -0.1513  0.3361
25929SOL    HW283625   4.002   1.771   6.316 -0.3498  0.5444  0.3862
25930SOL     OW83626   2.237   2.636  12.292 -0.4918  0.4054 -0.0488
25930SOL    HW183627   2.197   2.609  12.375  0.5710  1.0708  0.7111
25930SOL    HW283628   2.196   2.720  12.272 -1.7207 -0.3712 -0.9221
25931SOL     OW83629  10.372   6.317   4.573  0.3732 -0.0368 -0.1171
25931SOL    HW183630  10.421   6.237   4.592  1.1956  0.3504 -0.5450
25931SOL    HW283631  10.423   6.387   4.612 -2.3843  0.0383  3.9585
25932SOL     OW83632   2.719  11.617   4.490  0.0744 -0.3841  0.2285
25932SOL    HW183633   2.705  11.562   4.567  0.8066 -1.1287 -0.1453
25932SOL    HW283634   2.751  11.556   4.423  0.1546  0.3738 -0.4368
25933SOL     OW83635   3.353   5.329  11.799 -0.2376 -0.1187 -0.0875
25933SOL    HW183636   3.417   5.385  11.843 -0.6693 -0.4506  0.9733
25933SOL    HW283637   3.403   5.289  11.727  0.7905 -0.4426  0.7741
25934SOL     OW83638   7.592   7.600   7.963 -0.3567  0.0718 -0.3282
25934SOL    HW183639   7.667   7.598   8.023 -0.5415 -0.3214 -0.1036
25934SOL    HW283640   7.627   7.639   7.882 -0.0134  0.2637 -0.0897
25935SOL     OW83641   3.007   5.456   0.959  0.0542  0.6002 -0.2820
25935SOL    HW183642   3.019   5.480   1.051 -1.6192  0.7912 -0.0785
25935SOL    HW283643   2.937   5.391   0.960  0.6121 -0.0490 -1.3555
25936SOL     OW83644   3.535   5.313  10.830  0.1516  0.5488  0.2221
25936SOL    HW183645   3.592   5.346  10.899 -0.1586  2.5324 -0.4153
25936SOL    HW283646   3.446   5.339  10.857 -0.3603 -1.4114  0.5860
25937SOL     OW83647   4.257   8.744  11.192  0.3908 -0.8786  0.0244
25937SOL    HW183648   4.330   8.768  11.249 -0.5560 -0.3195  1.0400
25937SOL    HW283649   4.282   8.777  11.106  0.6907  0.6429  0.6549
25938SOL     OW83650   5.431   8.818   7.339 -0.0014 -1.0233 -0.1193
25938SOL    HW183651   5.504   8.796   7.396 -0.7890 -2.0507  0.5488
25938SOL    HW283652   5.467   8.814   7.251  1.8200  2.8190  0.2589
25939SOL     OW83653  10.792   1.877   3.269  0.2330 -0.3875  0.5507
25939SOL    HW183654  10.795   1.841   3.180 -2.9649  0.5017 -0.0568
25939SOL    HW283655  10.845   1.956   3.266 -0.7783  0.2870 -0.9845
25940SOL     OW83656   0.514   8.419   1.561 -0.2025 -0.2914  0.6099
25940SOL    HW183657   0.484   8.367   1.487 -0.3248 -0.5734  0.8565
25940SOL    HW283658   0.452   8.400   1.631  0.6992 -1.1020  1.2174
25941SOL     OW83659   1.079   3.472  12.330 -0.2630  0.3797  0.0920
25941SOL    HW183660   1.130   3.403  12.373 -0.3473  0.0537 -0.3173
25941SOL    HW283661   1.119   3.554  12.359 -0.3540  0.1683  0.8220
25942SOL     OW83662  11.941  10.047   1.885 -0.7652  0.2403 -0.0904
25942SOL    HW183663  11.910  10.080   1.969 -0.7410 -0.3880  0.1750
25942SOL    HW283664  11.892   9.965   1.873 -0.9154  0.4224 -0.7841
25943SOL     OW83665  10.376  10.861  12.265  0.1655  0.5286 -0.4295
25943SOL    HW183666  10.343  10.897  12.183 -1.8626 -0.7204 -0.2392
25943SOL    HW283667  10.371  10.933  12.327 -2.4991  0.4146 -0.3866
25944SOL     OW83668   7.730   8.866   7.502  0.4383 -0.0330 -0.3334
25944SOL    HW183669   7.767   8.797   7.558  0.7235 -0.0821 -0.5775
25944SOL    HW283670   7.805   8.900   7.454  0.1173 -0.3726 -1.0922
25945SOL     OW83671  11.834   3.925   4.927 -0.2616 -0.5858 -0.0122
25945SOL    HW183672  11.747   3.957   4.901 -0.4535 -2.0656 -1.2833
25945SOL    HW283673  11.820   3.887   5.013 -0.5642  0.4129  0.3999
25946SOL     OW83674   7.411  12.115   4.796  1.0276  0.0875  0.3751
25946SOL    HW183675   7.330  12.164   4.813 -0.1276 -2.0113  1.2982
25946SOL    HW283676   7.461  12.123   4.877  0.4883 -0.8379  0.8171
25947SOL     OW83677   6.518   9.073   4.214 -0.5363  0.0257 -0.4654
25947SOL    HW183678   6.497   8.980   4.201 -2.2351  0.3708 -0.4459
25947SOL    HW283679   6.541   9.105   4.127  0.2189 -0.4354 -0.4457
25948SOL     OW83680   9.293   2.086   1.973  0.5058 -0.4513  0.4504
25948SOL    HW183681   9.346   2.059   2.047  1.5050  0.4560  0.1011
25948SOL    HW283682   9.327   2.036   1.899 -0.5606 -1.4362  0.6069
25949SOL     OW83683   1.528  11.553   4.073  0.2716  0.3652  0.1051
25949SOL    HW183684   1.546  11.488   4.141 -0.9187  0.1447  0.2409
25949SOL    HW283685   1.440  11.531   4.041  0.6627  0.6746 -1.2739
25950SOL     OW83686   9.004   7.196  11.764  0.0054 -0.2524  0.8044
25950SOL    HW183687   9.042   7.111  11.743 -0.1180 -0.9032  2.9936
25950SOL    HW283688   8.958   7.222  11.685  1.2299 -1.5479 -0.3859
25951SOL     OW83689   0.817  11.854   9.048 -0.1277  0.6129 -0.3317
25951SOL    HW183690   0.726  11.883   9.059 -0.5378 -1.4542  2.8687
25951SOL    HW283691   0.869  11.932   9.064 -1.3037  1.3313  0.1161
25952SOL     OW83692   1.330  10.802   9.487 -0.5217 -0.3366 -0.0237
25952SOL    HW183693   1.255  10.854   9.515 -0.6397 -0.6737  0.3013
25952SOL    HW283694   1.298  10.712   9.485 -0.5953 -0.2975 -1.5671
25953SOL     OW83695   6.218   1.870   1.055  0.0626  0.0468 -0.1637
25953SOL    HW183696   6.138   1.842   1.010  0.3611 -0.9717 -0.0791
25953SOL    HW283697   6.187   1.901   1.141 -0.2184 -0.6168 -0.0204
25954SOL     OW83698  11.930   5.437   5.261  0.5395  0.8021  0.5073
25954SOL    HW183699  11.863   5.410   5.198  0.6048  1.3121  0.2184
25954SOL    HW283700  11.891   5.513   5.306  1.0330  1.2687  0.1486
25955SOL     OW83701   1.390   8.938   3.406 -0.1047 -0.7857  0.1783
25955SOL    HW183702   1.303   8.978   3.407 -0.4387 -1.5021  1.2084
25955SOL    HW283703   1.405   8.910   3.496  1.9299  0.8363  0.4016
25956SOL     OW83704  10.933  10.018   8.024 -0.3097  0.0454 -0.2557
25956SOL    HW183705  10.872  10.048   8.091 -0.8663 -1.3234 -0.1143
25956SOL    HW283706  10.885  10.029   7.942 -0.5174 -0.4197 -0.2026
25957SOL     OW83707   8.218  11.015  10.479  0.0300  0.3104 -0.1650
25957SOL    HW183708   8.222  11.006  10.384 -1.3427 -0.2439 -0.1846
25957SOL    HW283709   8.155  10.949  10.507 -0.0569  0.8867  1.0698
25958SOL     OW83710   0.885   8.558   9.139 -0.5733  0.8646 -0.1254
25958SOL    HW183711   0.815   8.511   9.094  0.1626  0.9356 -1.4011
25958SOL    HW283712   0.876   8.649   9.109 -1.0299  1.2406  1.1066
25959SOL     OW83713   5.613   8.326   8.335 -0.2170 -0.3735 -0.2728
25959SOL    HW183714   5.699   8.293   8.309 -0.1787  0.9628 -2.0494
25959SOL    HW283715   5.625   8.420   8.347 -1.1857 -0.3400  0.6534
25960SOL     OW83716  11.510   6.527   9.415  0.1280 -0.2835 -0.0087
25960SOL    HW183717  11.598   6.491   9.408  0.1311 -0.0373 -1.8616
25960SOL    HW283718  11.478   6.497   9.500  1.9111 -0.5472  0.6140
25961SOL     OW83719   6.304   1.479   2.547  0.0322 -0.3346 -0.0712
25961SOL    HW183720   6.360   1.406   2.573  0.8292  0.2536 -0.0827
25961SOL    HW283721   6.273   1.456   2.459  0.8903 -0.3291 -0.3899
25962SOL     OW83722  11.697   2.337   9.471  0.8162 -0.2473  0.0877
25962SOL    HW183723  11.631   2.284   9.426 -0.2706 -0.4052  1.7701
25962SOL    HW283724  11.701   2.300   9.559  1.6556  1.0853  0.6325
25963SOL     OW83725  11.090   2.769  12.292 -0.3519 -0.2233 -0.1814
25963SOL    HW183726  11.158   2.780  12.226 -0.5129  0.6386 -0.2225
25963SOL    HW283727  11.057   2.858  12.307 -0.9875 -0.5379  0.3447
25964SOL     OW83728  12.299   9.951   8.225  0.5747 -0.4064 -0.7943
25964SOL    HW183729  12.246  10.000   8.288  0.7129 -1.7845  0.4486
25964SOL    HW283730  12.249   9.955   8.144 -0.8814 -0.6921  0.0475
25965SOL     OW83731   2.390   3.964   2.351 -0.1622  0.1964  0.3765
25965SOL    HW183732   2.406   3.929   2.438 -1.2172 -1.3823 -0.0131
25965SOL    HW283733   2.335   4.041   2.365 -0.1026  0.1099  1.1192
25966SOL     OW83734   7.837   9.099   8.950  0.1352  0.1281  0.4152
25966SOL    HW183735   7.854   9.021   8.897  0.9224 -0.6875  1.7987
25966SOL    HW283736   7.743   9.095   8.969  0.0413 -0.1073 -0.1047
25967SOL     OW83737   5.389   2.758   7.859  0.2674  0.1607 -0.6798
25967SOL    HW183738   5.382   2.709   7.777 -0.1635 -0.6058 -0.2014
25967SOL    HW283739   5.311   2.814   7.860  0.9877  1.2157 -1.4362
25968SOL     OW83740   0.677   7.701   9.090  0.7955  0.0192  0.3098
25968SOL    HW183741   0.675   7.704   9.186  1.6722 -0.4681  0.3552
25968SOL    HW283742   0.699   7.611   9.069  0.6921  0.1441 -0.3477
25969SOL     OW83743   8.773  10.657   2.043 -0.3606 -0.5271 -0.6998
25969SOL    HW183744   8.823  10.684   2.120 -0.0514 -0.4592 -0.9276
25969SOL    HW283745   8.765  10.562   2.052 -1.7083 -0.3578  0.2643
25970SOL     OW83746   5.015   1.635   5.067 -0.1494 -0.3656  0.0527
25970SOL    HW183747   4.961   1.699   5.020  1.1845  0.9227  0.2046
25970SOL    HW283748   5.085   1.613   5.007 -0.4323 -1.4925  0.1163
25971SOL     OW83749   2.039   3.025  10.347  0.1206  0.4063  0.0452
25971SOL    HW183750   2.015   3.067  10.429 -0.0038  1.1060 -0.3451
25971SOL    HW283751   1.987   2.945  10.345 -1.8538  1.6241 -0.5484
25972SOL     OW83752   7.366   1.625   3.868  0.0630 -0.4530 -0.0099
25972SOL    HW183753   7.271   1.631   3.858 -0.1035  0.8599  1.7541
25972SOL    HW283754   7.381   1.649   3.959  2.1403 -0.0710 -0.4146
25973SOL     OW83755  12.108   3.001   0.514 -0.5491 -0.5336  0.0375
25973SOL    HW183756  12.086   3.093   0.502  1.3001 -0.1010 -0.2660
25973SOL    HW283757  12.043   2.954   0.462 -0.2129  0.7066 -1.5712
25974SOL     OW83758   4.235   9.160   6.159  0.1936  0.4095 -0.3718
25974SOL    HW183759   4.144   9.161   6.188 -0.3038 -0.3487 -1.7819
25974SOL    HW283760   4.265   9.250   6.170 -0.3914  0.4562  1.0523
25975SOL     OW83761   9.276   3.747   5.553  0.1277  0.0931  0.0778
25975SOL    HW183762   9.235   3.686   5.614 -0.1129  0.3587  0.1821
25975SOL    HW283763   9.359   3.704   5.529 -0.3239 -0.5673 -0.3367
25976SOL     OW83764  11.923  10.213   3.941 -0.1303 -0.2496  0.6666
25976SOL    HW183765  11.850  10.269   3.916 -0.2110 -0.8084 -0.4058
25976SOL    HW283766  11.953  10.248   4.025 -2.3138 -0.6667  1.6960
25977SOL     OW83767   0.335   7.844   5.894  0.5709 -0.2357 -0.1589
25977SOL    HW183768   0.371   7.933   5.901  0.2929 -0.2251  1.5732
25977SOL    HW283769   0.286   7.845   5.812  1.0585  1.0243 -0.4699
25978SOL     OW83770   7.554   8.954   7.856 -0.0031 -0.0940  0.3748
25978SOL    HW183771   7.503   8.984   7.931  0.9844  0.6846  0.7476
25978SOL    HW283772   7.645   8.969   7.881  0.3596 -0.2981 -0.7809
25979SOL     OW83773   4.240   4.720   3.124 -0.3219 -0.2747  0.1277
25979SOL    HW183774   4.288   4.802   3.112 -1.7178  0.5603 -0.0582
25979SOL    HW283775   4.281   4.659   3.064  0.1768  0.5517 -0.3917
25980SOL     OW83776   8.950   1.504   7.178  0.3159 -0.4005 -0.2808
25980SOL    HW183777   9.017   1.436   7.185 -0.4344 -1.3319 -1.6729
25980SOL    HW283778   8.903   1.483   7.097 -1.0231  0.7989  0.1469
25981SOL     OW83779   6.846   2.500   6.907  0.0143 -0.5826 -0.1316
25981SOL    HW183780   6.851   2.508   7.002  0.9831 -2.6229  0.0539
25981SOL    HW283781   6.779   2.434   6.891 -0.5527  0.1514 -0.9182
25982SOL     OW83782  10.382   2.890   1.300  0.1103  0.4970  0.3113
25982SOL    HW183783  10.347   2.806   1.331  0.2395 -0.1741 -1.3012
25982SOL    HW283784  10.436   2.868   1.225  1.1862  1.9094  0.6318
25983SOL     OW83785   2.730   5.285   0.169 -0.1976  0.6286  0.2975
25983SOL    HW183786   2.779   5.231   0.231  0.5259  2.0539  1.0293
25983SOL    HW283787   2.651   5.234   0.151 -0.8781  0.4835  3.0875
25984SOL     OW83788  10.865  11.602   1.145  0.2453  0.4496 -0.3032
25984SOL    HW183789  10.816  11.554   1.212 -0.9145 -0.0005 -1.4349
25984SOL    HW283790  10.856  11.548   1.066  1.3394  1.1089 -0.8976
25985SOL     OW83791   9.013   1.095  11.076  0.3727  0.1840 -0.1026
25985SOL    HW183792   9.029   1.003  11.095 -0.4026  0.0020 -0.2644
25985SOL    HW283793   9.084   1.121  11.018  0.0053 -0.6238 -0.9415
25986SOL     OW83794   4.757   6.603   5.384  0.2997  0.1837 -0.0553
25986SOL    HW183795   4.698   6.589   5.458  0.5707 -1.4588 -0.1107
25986SOL    HW283796   4.788   6.693   5.395 -0.6122  0.3842  1.1257
25987SOL     OW83797   0.575  11.118  10.547 -0.1703  0.4481  0.0817
25987SOL    HW183798   0.571  11.179  10.474  0.5978 -0.0548 -0.4000
25987SOL    HW283799   0.591  11.172  10.624  1.8427  0.7776 -0.5120
25988SOL     OW83800   2.056  11.017   1.940 -0.1375 -0.0578  0.3418
25988SOL    HW183801   2.057  11.045   2.032 -0.0199 -2.1582  1.0389
25988SOL    HW283802   2.143  10.979   1.926 -0.9246 -1.8644  0.1018
25989SOL     OW83803   3.046   5.578   4.189  0.0913 -0.0024  0.4256
25989SOL    HW183804   3.005   5.601   4.105 -0.0901 -3.0873 -0.4539
25989SOL    HW283805   3.006   5.638   4.252 -2.8405 -0.2132 -1.0508
25990SOL     OW83806  11.010   7.724   2.270  0.0538  0.5326 -0.1304
25990SOL    HW183807  10.985   7.695   2.182 -0.4387 -1.2039  0.5328
25990SOL    HW283808  11.075   7.659   2.298 -0.3413  0.6285  1.0533
25991SOL     OW83809   3.136   3.064   9.518 -0.4413  0.1206  0.5661
25991SOL    HW183810   3.211   3.110   9.555 -0.7195  0.9032  0.1681
25991SOL    HW283811   3.110   3.003   9.587  0.0942  0.3669  0.9973
25992SOL     OW83812   2.617   6.590   7.591 -0.2524 -0.8619  0.0800
25992SOL    HW183813   2.548   6.615   7.653 -1.7013  0.3589 -1.9079
25992SOL    HW283814   2.617   6.494   7.593 -2.8107 -0.9453 -0.6174
25993SOL     OW83815   6.055   9.871  10.547 -0.1263  0.7990  0.0144
25993SOL    HW183816   6.055   9.931  10.621 -0.4125  0.2746  0.4404
25993SOL    HW283817   6.064   9.928  10.470  2.5221  1.2248  0.5389
25994SOL     OW83818   0.455  10.263   2.654  0.0031  0.1560 -0.2480
25994SOL    HW183819   0.457  10.171   2.627  1.5674  0.2808 -0.6444
25994SOL    HW283820   0.399  10.305   2.589 -0.1169 -0.3874 -0.5071
25995SOL     OW83821   6.317   5.411  11.139 -0.3200  0.1450 -0.3253
25995SOL    HW183822   6.248   5.347  11.126 -0.5907  0.5578 -0.9740
25995SOL    HW283823   6.396   5.359  11.155 -0.9059 -0.3275  1.2126
25996SOL     OW83824   7.068  11.335   4.612 -0.1488  0.3734 -0.0183
25996SOL    HW183825   7.041  11.402   4.549  0.3100  0.1896 -0.4194
25996SOL    HW283826   6.995  11.273   4.614  0.6851 -0.7623 -1.9910
25997SOL     OW83827   6.463   2.246   0.624 -0.4037 -0.0125  0.2588
25997SOL    HW183828   6.408   2.176   0.657  0.8569 -0.6053  1.1795
25997SOL    HW283829   6.551   2.209   0.622  0.1863  1.3339  0.1467
25998SOL     OW83830   6.643   7.286  11.920 -0.0554 -0.5802  0.1752
25998SOL    HW183831   6.663   7.193  11.931 -0.7881 -0.7497  0.0985
25998SOL    HW283832   6.596   7.292  11.837 -2.1180 -0.4997  1.2634
25999SOL     OW83833  11.961   5.541   4.830  0.6274  0.1480 -0.7134
25999SOL    HW183834  11.937   5.504   4.745  4.8779 -0.4587 -1.8582
25999SOL    HW283835  11.993   5.466   4.880 -0.7675  0.6935  1.1092
26000SOL     OW83836   8.330   7.595   5.608  0.5207 -0.6661 -0.0603
26000SOL    HW183837   8.244   7.554   5.618 -0.2564  1.4088  3.4982
26000SOL    HW283838   8.313   7.689   5.617  3.1490 -0.1678  0.5403
26001SOL     OW83839   7.575   9.314   9.913  0.2571  0.2067  0.2698
26001SOL    HW183840   7.602   9.224   9.930 -1.3335 -0.1516  1.1480
26001SOL    HW283841   7.480   9.314   9.929  0.0328  1.7855 -0.8018
26002SOL     OW83842   1.953   4.911   7.087  0.5072  0.0089 -0.3114
26002SOL    HW183843   1.971   4.999   7.056  1.0220  0.5637  1.4628
26002SOL    HW283844   1.987   4.854   7.018  2.2116  1.1734 -0.4888
26003SOL     OW83845   6.687   7.171   4.102 -0.1727  0.7973  0.7637
26003SOL    HW183846   6.708   7.207   4.015  1.0739 -0.2342  0.6073
26003SOL    HW283847   6.766   7.186   4.154  0.8597 -2.5458  0.3852
26004SOL     OW83848  10.115  10.421   2.833  0.5613 -0.2739 -0.2498
26004SOL    HW183849  10.070  10.504   2.814  0.0875 -0.8717 -1.9144
26004SOL    HW283850  10.088  10.400   2.922 -0.6916  0.5269 -0.4055
26005SOL     OW83851   5.527   9.919   4.266  0.1083 -0.3507 -0.3254
26005SOL    HW183852   5.490   9.955   4.186 -2.2106  0.2222  0.9176
26005SOL    HW283853   5.494   9.976   4.336  3.0588 -0.0658  0.9898
26006SOL     OW83854   1.163   8.765  10.336  0.1419 -0.0931  0.0263
26006SOL    HW183855   1.182   8.676  10.364  1.1788  0.6721  1.9682
26006SOL    HW283856   1.068   8.767  10.323  0.2227 -1.7087 -1.0746
26007SOL     OW83857   9.022   0.212   7.211 -0.5532  0.2447 -0.3434
26007SOL    HW183858   9.117   0.200   7.207 -0.2897  1.6860  0.6682
26007SOL    HW283859   8.987   0.123   7.222  0.6635 -0.3140 -0.8209
26008SOL     OW83860   1.227   6.827   1.260  0.1542 -0.1328 -0.5484
26008SOL    HW183861   1.137   6.844   1.289  0.0167 -0.9022 -0.5014
26008SOL    HW283862   1.218   6.763   1.189  0.8153 -2.4047  1.3101
26009SOL     OW83863   6.054   6.568   4.361  0.1072 -0.2198 -0.5468
26009SOL    HW183864   6.109   6.607   4.294 -0.9724  0.9159 -0.8167
26009SOL    HW283865   6.114   6.548   4.433  1.3601 -1.8906 -1.9930
26010SOL     OW83866  11.685   6.950   3.911  0.1220 -0.0652 -0.3053
26010SOL    HW183867  11.615   6.889   3.935  0.9120 -0.1070  2.1800
26010SOL    HW283868  11.677   6.959   3.816 -0.4704 -3.4626 -0.7055
26011SOL     OW83869   1.880  10.790  11.862 -0.1919 -0.6318 -0.4955
26011SOL    HW183870   1.820  10.752  11.927  0.8815 -1.7929 -0.1396
26011SOL    HW283871   1.916  10.714  11.816  0.1257  0.1099 -1.5022
26012SOL     OW83872   6.142   2.966   9.983 -0.0340  0.1990  0.0789
26012SOL    HW183873   6.186   3.042  10.022  0.4375 -0.3715  0.6791
26012SOL    HW283874   6.081   3.004   9.920 -0.5854  1.1257  1.1380
26013SOL     OW83875   9.228  11.745  12.287  0.5156  0.5441  0.2392
26013SOL    HW183876   9.201  11.693  12.211  0.4601 -0.5609  0.9838
26013SOL    HW283877   9.149  11.792  12.313  0.3889  0.4928 -0.0458
26014SOL     OW83878   4.190   4.691   9.356 -0.0885 -0.5185  0.4822
26014SOL    HW183879   4.200   4.639   9.435 -0.2479 -1.3949 -0.0601
26014SOL    HW283880   4.130   4.762   9.381 -1.7739 -1.9377  0.6285
26015SOL     OW83881   8.632   3.344   1.098 -0.1122  0.1709 -0.2328
26015SOL    HW183882   8.586   3.270   1.059  0.1808 -0.3807  0.4258
26015SOL    HW283883   8.571   3.379   1.162  0.4949 -0.8598  0.9868
26016SOL     OW83884   6.496   6.333  11.281 -0.5514 -0.1042  0.3351
26016SOL    HW183885   6.525   6.242  11.283 -1.7196 -0.4894  2.1297
26016SOL    HW283886   6.486   6.353  11.188 -0.0983 -1.7476 -0.0990
26017SOL     OW83887   3.643   6.814   8.692 -0.4242  0.5764  0.4206
26017SOL    HW183888   3.590   6.894   8.697 -0.7713  0.4276 -0.6575
26017SOL    HW283889   3.725   6.843   8.651 -0.9301  0.2113 -0.8869
26018SOL     OW83890   9.583   6.691   2.284  0.0593  0.3132  0.3812
26018SOL    HW183891   9.630   6.755   2.338  0.2898  0.5869 -0.1422
26018SOL    HW283892   9.652   6.644   2.237 -0.1543  0.2015  0.1808
26019SOL     OW83893   6.230  12.003   1.288 -0.3509  0.0563  0.3300
26019SOL    HW183894   6.224  12.039   1.376 -0.1330 -0.1401  0.4281
26019SOL    HW283895   6.141  11.975   1.267 -0.7807  1.7444 -0.2304
26020SOL     OW83896   5.047   4.006   9.033 -0.1305  0.4143 -0.3603
26020SOL    HW183897   5.090   3.935   8.985 -0.6835  0.1436 -0.4667
26020SOL    HW283898   4.993   3.962   9.098  1.0047  0.7965  0.8730
26021SOL     OW83899   2.572   0.076   7.156 -0.2444 -0.0198  0.4759
26021SOL    HW183900   2.525   0.053   7.236 -0.5525 -1.1322 -0.0005
26021SOL    HW283901   2.510   0.058   7.085  0.9605 -1.8902 -0.1870
26022SOL     OW83902   0.602   6.169  11.563  0.0265  0.2612  1.0019
26022SOL    HW183903   0.588   6.122  11.481  1.5739 -0.5839  1.1695
26022SOL    HW283904   0.515   6.187  11.597 -0.6138 -0.7064 -0.0809
26023SOL     OW83905   9.070   6.817   6.247 -0.2627 -0.4354  0.1043
26023SOL    HW183906   9.084   6.865   6.165 -1.0719 -0.3227  0.0196
26023SOL    HW283907   8.999   6.756   6.227  0.1011 -0.9984  0.4902
26024SOL     OW83908   6.576   5.781  11.231 -0.3873 -0.0372  0.1800
26024SOL    HW183909   6.640   5.710  11.230 -0.8273 -0.4417  0.2861
26024SOL    HW283910   6.494   5.738  11.255 -0.5870  0.5677  0.5918
26025SOL     OW83911   0.144  11.961   9.480 -0.7693 -0.2826  0.0596
26025SOL    HW183912   0.201  11.941   9.406  0.8222  0.5794  1.0139
26025SOL    HW283913   0.059  11.981   9.439 -0.0573 -0.2428 -1.4867
26026SOL     OW83914  11.739   5.737   0.748  0.2816  0.3038 -0.3005
26026SOL    HW183915  11.720   5.816   0.797 -0.5317  0.2352 -0.4946
26026SOL    HW283916  11.814   5.698   0.793 -1.1816 -0.3993  1.6390
26027SOL     OW83917   6.676   2.168   5.408 -0.1272  0.3739  0.5528
26027SOL    HW183918   6.644   2.257   5.427 -0.6009  0.7456 -1.7585
26027SOL    HW283919   6.635   2.145   5.325  0.4283 -1.8187  0.8327
26028SOL     OW83920   6.650   1.226  12.049  0.0311 -0.0682  0.4230
26028SOL    HW183921   6.729   1.174  12.040  0.2041  0.4198 -1.0399
26028SOL    HW283922   6.669   1.285  12.122  2.0203  1.7147 -1.3991
26029SOL     OW83923   3.435   4.499   5.859  0.4315  0.0663 -0.2871
26029SOL    HW183924   3.398   4.523   5.944 -0.9414  0.5014 -0.9652
26029SOL    HW283925   3.473   4.412   5.872  0.0705  0.0477  0.7101
26030SOL     OW83926  10.647   6.649  10.243 -0.6624  0.1339 -0.2795
26030SOL    HW183927  10.700   6.590  10.297  1.6775  1.9077 -0.4939
26030SOL    HW283928  10.606   6.708  10.306  0.2508  0.7773 -0.2670
26031SOL     OW83929   6.008  11.818   9.870 -0.2083  0.0026 -0.0352
26031SOL    HW183930   6.078  11.876   9.838  0.0973  0.1509  0.8757
26031SOL    HW283931   5.930  11.846   9.821 -0.0969  1.2774  0.4631
26032SOL     OW83932   7.434   4.166   0.716  0.5912  0.4344 -0.1505
26032SOL    HW183933   7.498   4.197   0.652  0.7677 -0.5380 -0.4698
26032SOL    HW283934   7.447   4.071   0.718 -2.0516 -0.0558 -1.5563
26033SOL     OW83935   9.959   9.250  11.459 -0.5951  0.3732 -0.4592
26033SOL    HW183936   9.909   9.322  11.421 -0.8533  0.2001 -0.4565
26033SOL    HW283937   9.893   9.198  11.505 -0.2014  0.9110  0.7538
26034SOL     OW83938   8.057   0.318   9.475  0.6167 -0.4556 -0.5437
26034SOL    HW183939   8.011   0.234   9.482  0.3919 -0.2389  1.0342
26034SOL    HW283940   7.995   0.376   9.432 -0.9911  0.0405  2.2201
26035SOL     OW83941   3.382   1.718   8.575 -0.4377  0.0391  0.0272
26035SOL    HW183942   3.358   1.778   8.645 -2.7255  0.0561 -0.6989
26035SOL    HW283943   3.377   1.770   8.495 -0.2585 -0.5771 -0.3972
26036SOL     OW83944  11.569  12.303  10.169  0.8887  0.1851  0.3114
26036SOL    HW183945  11.655  12.261  10.175  0.4554 -0.5877  1.3039
26036SOL    HW283946  11.507  12.236  10.196 -0.0572  0.6873 -0.5316
26037SOL     OW83947   3.854   2.810   7.423  0.2935  0.7265 -0.1881
26037SOL    HW183948   3.807   2.787   7.503  1.0957 -0.6230 -0.0766
26037SOL    HW283949   3.832   2.902   7.407 -2.9755 -0.0133 -0.5720
26038SOL     OW83950   7.771   0.548   4.503 -0.3414  0.1447 -0.1248
26038SOL    HW183951   7.800   0.636   4.476  0.1836 -1.0902 -4.4835
26038SOL    HW283952   7.676   0.549   4.488 -0.2132 -0.2032 -1.0682
26039SOL     OW83953   6.693   1.537   1.111 -0.3241 -0.2352 -0.1931
26039SOL    HW183954   6.786   1.556   1.124 -0.5882 -0.0046  1.5953
26039SOL    HW283955   6.648   1.591   1.176 -1.5959 -1.6150  0.1278
26040SOL     OW83956   2.109  10.770  10.504  0.5639 -0.0378 -0.0754
26040SOL    HW183957   2.061  10.748  10.583  2.2868 -1.8883  0.5310
26040SOL    HW283958   2.177  10.703  10.497  0.7490  0.3048 -2.8885
26041SOL     OW83959   1.168   6.041   6.236 -0.3043  0.2029 -0.3066
26041SOL    HW183960   1.225   6.089   6.176 -0.3719 -2.5156 -2.7318
26041SOL    HW283961   1.079   6.059   6.205 -0.5302  0.8396  0.6591
26042SOL     OW83962   7.068   1.630   8.798  0.0435 -0.0121  0.4161
26042SOL    HW183963   7.147   1.662   8.754  0.5868 -2.6039 -0.6582
26042SOL    HW283964   6.996   1.676   8.754  0.8433  2.8373  1.8002
26043SOL     OW83965  10.370   7.015  11.542  1.0475 -0.3321 -0.9420
26043SOL    HW183966  10.423   7.031  11.464 -0.0897  0.9644 -1.4973
26043SOL    HW283967  10.425   7.045  11.615  1.2160  0.7159 -1.4781
26044SOL     OW83968   3.126   8.259   3.839  0.6942  0.1760  0.3821
26044SOL    HW183969   3.194   8.269   3.905  0.2044 -0.3817  0.9950
26044SOL    HW283970   3.045   8.248   3.890 -0.0179  1.8665 -0.3345
26045SOL     OW83971   7.233   1.840   4.186 -0.1969  0.3322 -0.6393
26045SOL    HW183972   7.174   1.883   4.248  2.0573  2.1593  0.4224
26045SOL    HW283973   7.217   1.884   4.103 -1.3225 -0.2150 -0.7259
26046SOL     OW83974   6.078  10.118  11.752  0.1638 -0.1542 -0.6559
26046SOL    HW183975   6.132  10.112  11.673 -0.1634 -0.4995 -0.8518
26046SOL    HW283976   5.989  10.131  11.720  0.0071 -0.4491 -0.3486
26047SOL     OW83977   4.713   3.761   1.850  0.2118 -0.1148 -0.5890
26047SOL    HW183978   4.791   3.808   1.879 -0.8500  0.7156  1.0444
26047SOL    HW283979   4.733   3.735   1.760  1.8951  1.0810 -0.6060
26048SOL     OW83980  11.808   2.399   8.842 -0.0296 -0.0639 -0.2178
26048SOL    HW183981  11.859   2.319   8.827 -0.1804 -0.0069 -1.0636
26048SOL    HW283982  11.732   2.370   8.893  0.2913 -0.3315  0.1144
26049SOL     OW83983  10.961   4.225   4.773 -0.0871  0.1047  0.4000
26049SOL    HW183984  10.950   4.130   4.769 -1.8315  0.2455  1.0652
26049SOL    HW283985  10.967   4.245   4.866  2.1295  0.5089  0.2249
26050SOL     OW83986   7.964  10.313   7.517  0.0375  0.4780 -0.1952
26050SOL    HW183987   7.901  10.385   7.521  0.9330  1.2871 -0.3735
26050SOL    HW283988   8.022  10.336   7.444  0.8344 -0.0144  0.2756
26051SOL     OW83989  10.627   1.086   5.251 -0.1218 -0.4478  0.3329
26051SOL    HW183990  10.661   1.070   5.163 -1.0989 -1.6461  0.1588
26051SOL    HW283991  10.705   1.107   5.303  0.3027  2.0625 -1.1474
26052SOL     OW83992   9.019   1.880   6.587 -0.0413  0.0145  0.1359
26052SOL    HW183993   8.996   1.805   6.641 -0.7945 -0.4901 -0.8571
26052SOL    HW283994   9.110   1.899   6.608  0.3265 -1.5321 -0.0138
26053SOL     OW83995   9.817   4.351  12.223  0.3073  0.4205 -0.0196
26053SOL    HW183996   9.760   4.290  12.177  0.2581 -0.4059  1.0999
26053SOL    HW283997   9.760   4.426  12.244  0.1261  0.4347 -0.5563
26054SOL     OW83998   1.265   5.038   5.986  0.3290 -0.4604  0.1746
26054SOL    HW183999   1.255   4.956   6.033 -1.9421  0.4321  1.3880
26054SOL    HW284000   1.209   5.100   6.033  0.6432  1.3646 -1.6940
26055SOL     OW84001   8.386   3.961   2.344  0.6131  0.0276 -0.3611
26055SOL    HW184002   8.365   4.043   2.387 -2.2377 -0.3728 -0.7372
26055SOL    HW284003   8.447   3.985   2.274 -0.3640  1.9025 -0.6415
26056SOL     OW84004   4.790   7.504   0.117  0.2502  0.1498 -0.0572
26056SOL    HW184005   4.826   7.564   0.182  0.9946 -1.1620  0.7716
26056SOL    HW284006   4.719   7.554   0.075  1.1873  1.7808  0.2180
26057SOL     OW84007   9.860   5.614   8.525 -0.1675 -0.0645  0.2851
26057SOL    HW184008   9.827   5.646   8.609 -2.1104  0.1364 -0.4965
26057SOL    HW284009   9.883   5.693   8.477  2.2685 -0.2132  1.0481
26058SOL     OW84010   1.574   5.307   7.401  0.1649  0.3929  0.3401
26058SOL    HW184011   1.581   5.278   7.492 -1.0959  0.3217  0.4266
26058SOL    HW284012   1.481   5.300   7.380  0.6212 -1.2841 -1.4969
26059SOL     OW84013   2.238   1.749   4.026  0.7001  0.4384 -0.0144
26059SOL    HW184014   2.310   1.693   3.996  0.7120 -0.5580  1.7040
26059SOL    HW284015   2.280   1.811   4.086  0.4552  1.4041 -0.8133
26060SOL     OW84016   1.838   2.810   5.457  0.2828  0.0133  0.1037
26060SOL    HW184017   1.746   2.838   5.457 -0.0086 -0.8691 -0.7116
26060SOL    HW284018   1.886   2.882   5.497 -1.0758 -0.5327  2.9564
26061SOL     OW84019  10.290   8.826  11.391 -0.0941 -0.4795 -0.5640
26061SOL    HW184020  10.316   8.905  11.343 -1.6796  1.1527  1.1130
26061SOL    HW284021  10.208   8.799  11.349 -0.6901  0.0765  0.2074
26062SOL     OW84022  11.052   8.892   9.135 -0.2917  0.0807 -0.2510
26062SOL    HW184023  11.085   8.923   9.050 -2.0507 -0.7734 -1.3112
26062SOL    HW284024  10.957   8.901   9.128 -0.4430  0.5420  1.8824
26063SOL     OW84025  11.014  10.695   4.502  0.0353  0.1177  0.3932
26063SOL    HW184026  10.919  10.704   4.491  0.0341  0.0044  0.3088
26063SOL    HW284027  11.038  10.767   4.560  0.1067  0.9708 -0.6857
26064SOL     OW84028   8.490   9.877   6.126 -0.0979  0.4919 -0.8880
26064SOL    HW184029   8.448   9.795   6.155 -0.7774  0.9542 -0.5420
26064SOL    HW284030   8.565   9.848   6.075  1.4803 -0.4031  1.7559
26065SOL     OW84031   0.919   2.693   9.979  0.4181 -0.2961  0.1951
26065SOL    HW184032   0.880   2.739   9.905 -0.2026 -0.1318  0.6182
26065SOL    HW284033   0.937   2.605   9.947 -3.2701 -1.4377  0.8549
26066SOL     OW84034  11.846   8.160   0.041 -0.7288 -0.0625 -0.3716
26066SOL    HW184035  11.883   8.141   0.127 -0.9294  1.6762  0.1368
26066SOL    HW284036  11.885   8.095  -0.017 -0.1395 -0.8995  0.9242
26067SOL     OW84037   9.972  10.918   1.286 -0.5809 -0.1175 -0.3089
26067SOL    HW184038  10.057  10.960   1.275 -0.9574  0.2661 -2.1463
26067SOL    HW284039   9.944  10.942   1.374  0.2629  1.5823 -0.4592
26068SOL     OW84040   2.393   6.198   4.926 -0.3966 -0.6280  0.0780
26068SOL    HW184041   2.380   6.184   4.832 -0.9639  0.4068 -0.0196
26068SOL    HW284042   2.488   6.195   4.938 -0.1901  0.9830 -0.8539
26069SOL     OW84043   4.761  11.176  11.476 -0.0628  0.4078 -0.4791
26069SOL    HW184044   4.703  11.229  11.530 -0.1387 -0.8317  0.7278
26069SOL    HW284045   4.833  11.152  11.535 -0.8684 -2.1946 -0.4121
26070SOL     OW84046   7.478   2.431   4.484  0.4126  0.1677  0.3236
26070SOL    HW184047   7.551   2.443   4.545  0.7782 -1.9434  0.3913
26070SOL    HW284048   7.499   2.486   4.409  1.5634  0.3679  0.7772
26071SOL     OW84049   3.552   8.387   7.515  0.2885 -0.2423 -0.1208
26071SOL    HW184050   3.471   8.402   7.466 -0.8037  1.2614  1.9770
26071SOL    HW284051   3.593   8.473   7.521 -0.1527 -0.1199  2.3474
26072SOL     OW84052   0.337   4.345   4.990 -0.4642  0.1003 -0.3355
26072SOL    HW184053   0.284   4.343   5.070  0.5981 -1.1449  0.3695
26072SOL    HW284054   0.409   4.285   5.008  0.8215  1.2371 -1.5359
26073SOL     OW84055  12.332   1.362   2.457  0.3892  0.3920  0.3337
26073SOL    HW184056  12.306   1.453   2.470 -0.0116  0.2048  0.8976
26073SOL    HW284057  12.279   1.313   2.520 -0.3800 -0.3808 -0.8548
26074SOL     OW84058   0.482   6.980   5.195 -0.1064  0.5662  0.0780
26074SOL    HW184059   0.552   6.947   5.252  1.3696  0.5237 -1.6680
26074SOL    HW284060   0.459   7.066   5.232 -0.7410 -0.3497  1.9610
26075SOL     OW84061   0.312   3.139   9.057  0.2663 -0.3793 -0.1830
26075SOL    HW184062   0.303   3.181   9.143 -0.0096 -2.5187  0.8960
26075SOL    HW284063   0.254   3.190   9.000 -3.3795 -1.6959  1.9872
26076SOL     OW84064   6.360   6.877   4.164  0.4611 -0.7454  0.7193
26076SOL    HW184065   6.405   6.922   4.092  2.1788 -1.0636  1.5509
26076SOL    HW284066   6.294   6.940   4.194  0.1747 -0.3469 -0.6787
26077SOL     OW84067   3.163   2.216   0.500 -0.0024  0.7844 -0.6374
26077SOL    HW184068   3.252   2.247   0.517  0.1819  0.7227 -1.4201
26077SOL    HW284069   3.159   2.209   0.404  0.0179 -1.7651 -0.5032
26078SOL     OW84070   4.746  11.683   6.086 -0.0159 -0.2217 -0.5039
26078SOL    HW184071   4.817  11.696   6.149 -1.6448 -0.1131  1.4280
26078SOL    HW284072   4.698  11.766   6.086  0.1041 -0.1213 -2.1438
26079SOL     OW84073   9.183   7.315   5.362  0.2377 -0.0452  0.5252
26079SOL    HW184074   9.229   7.389   5.324 -1.0557  0.6930  0.3286
26079SOL    HW284075   9.090   7.332   5.344 -0.0915 -1.7717  0.3530
26080SOL     OW84076   3.703   6.298   9.336 -0.3042 -0.2673 -0.0693
26080SOL    HW184077   3.728   6.368   9.276 -2.0441  1.6832  1.3335
26080SOL    HW284078   3.673   6.227   9.279  0.0766  0.6871 -1.5202
26081SOL     OW84079   4.044  10.137   4.912 -0.0887 -0.3258  0.4691
26081SOL    HW184080   4.036  10.116   4.819  0.0131 -0.4796  0.4939
26081SOL    HW284081   3.956  10.121   4.947  0.1808 -1.5439  0.6493
26082SOL     OW84082  10.962   1.673   4.339  0.0336 -0.0069 -0.0406
26082SOL    HW184083  11.038   1.691   4.283  0.6428 -0.5301  0.6051
26082SOL    HW284084  10.999   1.637   4.419 -0.8894 -0.0446  0.3833
26083SOL     OW84085   1.331   9.757   0.313 -0.7593  0.2717 -0.7583
26083SOL    HW184086   1.369   9.669   0.313  0.6941  0.8538 -1.9046
26083SOL    HW284087   1.254   9.749   0.258 -1.3117 -0.5270  0.0969
26084SOL     OW84088   8.103   8.185   3.318 -0.5470 -0.2867 -0.0939
26084SOL    HW184089   8.159   8.230   3.381  0.8430 -3.3612  1.0968
26084SOL    HW284090   8.023   8.164   3.366 -0.9359  0.3438 -0.4530
26085SOL     OW84091   6.925   2.551   9.887 -0.5936 -0.8127 -0.4382
26085SOL    HW184092   6.957   2.491   9.820 -0.8378 -2.1600  0.5933
26085SOL    HW284093   6.994   2.616   9.896 -1.0914  0.1132 -2.8125
26086SOL     OW84094   5.905  10.741   1.361  0.1781  0.4044  0.3649
26086SOL    HW184095   5.890  10.648   1.344  0.6049  0.6266 -1.4493
26086SOL    HW284096   5.823  10.784   1.337  1.0890  0.8261 -2.4208
26087SOL     OW84097  10.345  11.110   9.593 -0.2886 -0.1995 -0.1575
26087SOL    HW184098  10.396  11.067   9.524  1.1420  1.0842  0.0689
26087SOL    HW284099  10.382  11.198   9.599 -2.6617  0.8672 -0.0960
26088SOL     OW84100   0.093   2.013   4.650 -0.3857  0.3803 -0.1974
26088SOL    HW184101   0.188   2.018   4.639 -0.2882  0.2653  0.5145
26088SOL    HW284102   0.081   1.990   4.742 -1.1003 -0.0106 -0.3833
26089SOL     OW84103   0.914  10.773  12.056 -0.4260  0.3263 -0.1773
26089SOL    HW184104   0.866  10.695  12.029 -0.2858  0.0726  0.2988
26089SOL    HW284105   0.846  10.840  12.069 -0.7449 -0.2534  1.2687
26090SOL     OW84106   9.224   6.849   1.856 -0.0848 -0.4446  0.3133
26090SOL    HW184107   9.292   6.844   1.922 -0.0179 -0.4774  0.2426
26090SOL    HW284108   9.255   6.915   1.794 -2.1046  2.9090  2.5522
26091SOL     OW84109   5.722   3.090   1.389 -0.1358 -0.6975  0.6683
26091SOL    HW184110   5.717   3.012   1.445 -0.5989 -1.3645 -0.2824
26091SOL    HW284111   5.816   3.101   1.372 -0.0731 -1.0637  0.7718
26092SOL     OW84112   7.148   9.284   3.896  0.3989  0.0582  0.0544
26092SOL    HW184113   7.090   9.304   3.822  1.1391 -3.6364 -1.7381
26092SOL    HW284114   7.231   9.324   3.872  0.0123  0.9003  0.0814
26093SOL     OW84115   5.486   4.106  12.085  0.1797 -0.2563 -0.1688
26093SOL    HW184116   5.426   4.135  12.155  0.3984 -0.8614  0.2780
26093SOL    HW284117   5.456   4.154  12.007 -2.1447 -1.9337 -0.4346
26094SOL     OW84118   4.446   4.306   4.452 -0.1459  0.3598 -0.4219
26094SOL    HW184119   4.541   4.319   4.441  0.0017 -1.0359 -1.1520
26094SOL    HW284120   4.422   4.248   4.379 -0.9505 -1.8772  1.4790
26095SOL     OW84121   1.340   0.579  10.126 -0.1155 -0.7496 -0.5959
26095SOL    HW184122   1.342   0.495  10.171  1.6986 -0.5056 -0.1357
26095SOL    HW284123   1.416   0.577  10.068 -0.4381  0.3087 -1.0908
26096SOL     OW84124   1.597  11.083   6.504 -0.2958  0.3372  0.3492
26096SOL    HW184125   1.683  11.123   6.522  0.8712 -1.6420 -0.4982
26096SOL    HW284126   1.567  11.053   6.589  0.4735 -0.0943  0.4805
26097SOL     OW84127   5.146  11.666   2.609 -0.3040  0.5737  0.2681
26097SOL    HW184128   5.080  11.662   2.678 -0.6680 -0.5657 -0.1190
26097SOL    HW284129   5.113  11.732   2.548 -1.2624 -0.1949 -0.0761
26098SOL     OW84130   8.258   2.570   4.756 -0.5662  0.1868  0.2339
26098SOL    HW184131   8.223   2.489   4.719 -1.0158 -0.2603  1.5956
26098SOL    HW284132   8.194   2.595   4.823  1.1552 -0.0647  2.0318
26099SOL     OW84133   3.549   3.338   0.335  0.2330 -0.1769  0.3399
26099SOL    HW184134   3.586   3.424   0.315 -1.3926  1.1009  2.4508
26099SOL    HW284135   3.619   3.292   0.382  1.6232 -0.6442 -2.0238
26100SOL     OW84136   8.360   4.610  11.664  0.9871 -0.1003 -0.2372
26100SOL    HW184137   8.325   4.646  11.583  1.9614  0.6052 -0.3650
26100SOL    HW284138   8.283   4.592  11.718  0.4279  2.5761 -0.0026
26101SOL     OW84139   2.893   5.224   0.519 -0.4383 -0.2074  0.2152
26101SOL    HW184140   2.923   5.137   0.493  2.7678  0.8745 -0.1460
26101SOL    HW284141   2.924   5.281   0.449 -2.8531  1.2549  0.2272
26102SOL     OW84142   0.626   6.364   2.716 -0.4861  0.2848  0.4409
26102SOL    HW184143   0.629   6.439   2.657  0.0482 -0.9905 -1.2362
26102SOL    HW284144   0.718   6.339   2.727 -0.7411 -2.1204 -1.8054
26103SOL     OW84145   1.882   4.183   1.102 -0.1173  0.5231  0.2160
26103SOL    HW184146   1.853   4.270   1.129  0.3671  1.6815 -2.6966
26103SOL    HW284147   1.974   4.195   1.079  0.4336 -1.1919  1.3449
26104SOL     OW84148   2.794   1.775   2.561  0.2133 -0.2779  0.4954
26104SOL    HW184149   2.749   1.697   2.529 -0.9027 -0.0487  1.4730
26104SOL    HW284150   2.782   1.840   2.491 -2.6759  0.3962  1.5173
26105SOL     OW84151   3.297   1.762   3.060 -0.4357  0.1778 -0.1978
26105SOL    HW184152   3.207   1.793   3.054 -0.8012 -0.6469  0.7167
26105SOL    HW284153   3.307   1.703   2.985 -1.4684 -1.6452  1.0307
26106SOL     OW84154   0.972   7.642   5.219  0.2946 -0.6026  0.3455
26106SOL    HW184155   0.949   7.726   5.179  2.7687  0.1442  0.3573
26106SOL    HW284156   0.972   7.660   5.313  1.1838 -0.5171  0.3300
26107SOL     OW84157   8.939   3.361   4.604 -0.1637 -0.4483 -0.6675
26107SOL    HW184158   8.875   3.386   4.537  0.1536  1.2912 -0.3682
26107SOL    HW284159   9.020   3.350   4.555 -0.1243 -0.0366 -0.7017
26108SOL     OW84160   1.966   5.494   3.826 -0.3385 -0.4097  0.4037
26108SOL    HW184161   2.027   5.423   3.807 -0.8169 -1.5912  2.8454
26108SOL    HW284162   1.999   5.568   3.774  1.4223 -1.8059 -0.5992
26109SOL     OW84163   2.976   6.004  10.659 -0.1919 -0.5924  0.7658
26109SOL    HW184164   2.986   5.971  10.749  1.4906 -0.1361  0.7935
26109SOL    HW284165   2.976   5.926  10.604  2.0276 -0.8088  0.9603
26110SOL     OW84166   1.483   2.757   0.768 -0.4582  0.2694  0.3148
26110SOL    HW184167   1.564   2.776   0.720 -0.7364 -0.7697 -0.6009
26110SOL    HW284168   1.464   2.666   0.747 -1.5020  0.2972  1.0850
26111SOL     OW84169   0.968   3.003   5.004 -0.5156  0.1175  0.1736
26111SOL    HW184170   1.030   3.026   4.935 -0.3808 -0.8708 -0.0441
26111SOL    HW284171   0.887   2.983   4.958 -0.5325 -0.1848  0.3358
26112SOL     OW84172   2.516   7.982   3.548 -1.0641 -0.2364 -0.3624
26112SOL    HW184173   2.571   7.944   3.480 -1.2873 -0.5384 -0.3774
26112SOL    HW284174   2.433   8.002   3.504 -0.7185  0.9200 -0.5217
26113SOL     OW84175   8.303   1.728   2.268  0.1295  0.1073  0.3899
26113SOL    HW184176   8.369   1.659   2.258  0.8699  0.6843  1.0944
26113SOL    HW284177   8.338   1.783   2.339 -1.1885  0.3371  0.8776
26114SOL     OW84178   4.297   9.619   4.153  0.3780  0.7479 -0.3847
26114SOL    HW184179   4.288   9.673   4.073 -0.4948  1.4953  0.1927
26114SOL    HW284180   4.252   9.537   4.131  0.7535  0.6757 -0.9029
26115SOL     OW84181   0.237   6.330   3.814  1.1386 -0.3148  0.1384
26115SOL    HW184182   0.177   6.396   3.847  2.5280  0.2321  1.6893
26115SOL    HW284183   0.219   6.253   3.868  0.2245 -0.9390 -0.9958
26116SOL     OW84184   0.632   6.804   0.762  0.2664  0.0191 -1.1088
26116SOL    HW184185   0.618   6.838   0.673  0.8557 -0.5336 -1.4160
26116SOL    HW284186   0.547   6.766   0.786  0.1062  0.1646 -1.4336
26117SOL     OW84187   6.809   4.076   2.580 -0.3530  0.0010 -0.4664
26117SOL    HW184188   6.742   4.131   2.621  2.8195  2.5929  1.8032
26117SOL    HW284189   6.832   4.012   2.647  0.0080 -0.3394 -0.9070
26118SOL     OW84190   4.647   8.679   4.030 -0.5698  0.5914 -0.1753
26118SOL    HW184191   4.728   8.673   3.979 -1.6771 -0.0690 -1.9605
26118SOL    HW284192   4.592   8.609   3.995 -1.2499 -0.2271  2.2997
26119SOL     OW84193  10.392   9.342   6.563  0.5485 -0.8838 -0.0320
26119SOL    HW184194  10.336   9.395   6.620  0.6702 -0.9029  0.1035
26119SOL    HW284195  10.380   9.252   6.593 -0.7145 -1.1126 -1.1307
26120SOL     OW84196  10.354  12.112   6.896  0.3927  0.5304 -0.4374
26120SOL    HW184197  10.411  12.156   6.833  1.0662  1.9050  1.0809
26120SOL    HW284198  10.328  12.180   6.958 -1.1635 -0.5414  0.1681
26121SOL     OW84199   8.684   8.206   4.809 -0.1119 -0.2802 -0.0613
26121SOL    HW184200   8.591   8.190   4.794 -0.4065  0.9555  0.3596
26121SOL    HW284201   8.687   8.270   4.880  0.8836  2.6905 -2.5621
26122SOL     OW84202   4.279   3.099   3.684 -0.9114 -0.0682  0.3037
26122SOL    HW184203   4.337   3.099   3.760 -0.5815 -2.5844  0.1488
26122SOL    HW284204   4.317   3.034   3.625 -2.5251  0.0311 -0.9092
26123SOL     OW84205   9.819  10.051   6.195 -0.0433 -0.0136 -0.6606
26123SOL    HW184206   9.873  10.002   6.257  0.9902  0.9535 -0.7702
26123SOL    HW284207   9.866  10.045   6.112  0.3576  1.5145 -0.5789
26124SOL     OW84208  12.021   1.271   0.013  0.7078 -0.1328  0.3552
26124SOL    HW184209  11.992   1.184  -0.012 -1.2727  0.7915 -0.7267
26124SOL    HW284210  12.058   1.308  -0.067  0.2924  0.5047  0.4523
26125SOL     OW84211   8.103   3.180  12.107  0.1295  0.3475 -0.1164
26125SOL    HW184212   8.164   3.124  12.060  0.0394 -0.4344  0.6628
26125SOL    HW284213   8.018   3.138  12.096 -0.1741  1.1046 -0.6962
26126SOL     OW84214  10.603   2.632  12.123 -0.7174  0.5813 -0.7808
26126SOL    HW184215  10.623   2.644  12.030 -0.1846  1.3796 -0.5706
26126SOL    HW284216  10.689   2.622  12.164 -1.0196 -2.0664 -0.6568
26127SOL     OW84217   8.814   0.501   5.900 -0.4554 -0.1424 -0.2757
26127SOL    HW184218   8.878   0.429   5.906 -1.5310 -1.0358  1.1836
26127SOL    HW284219   8.748   0.480   5.966 -2.5411  0.4838 -2.0330
26128SOL     OW84220   5.443   2.297   3.037 -0.2594  0.4188  0.6605
26128SOL    HW184221   5.359   2.283   3.081 -0.6587  0.7439  0.0059
26128SOL    HW284222   5.424   2.361   2.969 -0.9360 -3.7900 -3.5702
26129SOL     OW84223   2.397   5.761   7.936 -0.5460  0.6554  0.5900
26129SOL    HW184224   2.426   5.739   8.025  2.5458  1.6504 -0.0359
26129SOL    HW284225   2.399   5.678   7.888  1.1027  0.6312  0.6649
26130SOL     OW84226   1.659   5.696   4.706 -0.1314 -0.0471  0.5058
26130SOL    HW184227   1.734   5.757   4.709 -0.7177  0.6570  2.6016
26130SOL    HW284228   1.599   5.735   4.642  0.4438  0.4110  0.2338
26131SOL     OW84229   1.819   0.133   9.160  0.5256 -0.0565  0.0741
26131SOL    HW184230   1.808   0.110   9.252 -1.4049  1.2582  0.2535
26131SOL    HW284231   1.833   0.228   9.161  2.1719 -0.2623 -0.9144
26132SOL     OW84232  11.171  11.548  10.308  0.0204  0.0458 -0.1081
26132SOL    HW184233  11.218  11.575  10.230  1.1674  1.9090  1.1460
26132SOL    HW284234  11.172  11.452  10.306  0.3300  0.0647 -2.1473
26133SOL     OW84235  10.064   3.369   5.296 -0.0425 -0.3691  0.0084
26133SOL    HW184236  10.129   3.329   5.354 -1.1622 -1.3329  0.6577
26133SOL    HW284237  10.050   3.457   5.333  1.0647 -0.0533 -0.3000
26134SOL     OW84238   9.969   0.468   5.353  0.6742 -0.3567  0.1825
26134SOL    HW184239  10.059   0.463   5.321  0.5813 -0.9747 -0.0002
26134SOL    HW284240   9.917   0.430   5.282  0.2948 -0.1824  0.3690
26135SOL     OW84241   1.741   2.617   0.072  0.2712  0.1634 -0.1737
26135SOL    HW184242   1.722   2.709   0.088 -0.3176  0.1156 -0.5744
26135SOL    HW284243   1.728   2.605  -0.022 -1.5532 -0.7556  0.1595
26136SOL     OW84244  11.413   5.717   2.140 -0.3251  0.6100 -0.5828
26136SOL    HW184245  11.451   5.660   2.074 -0.8176 -0.9150  0.3955
26136SOL    HW284246  11.474   5.791   2.146  0.6249 -0.0739 -1.4856
26137SOL     OW84247   1.200  11.354   9.188  0.3179  0.3543 -0.6653
26137SOL    HW184248   1.257  11.371   9.262  0.0538 -0.5075 -0.2471
26137SOL    HW284249   1.113  11.340   9.226 -0.1205  1.3350 -1.2634
26138SOL     OW84250   9.259   6.857   6.988 -0.7387 -0.4363  0.0526
26138SOL    HW184251   9.210   6.784   6.951 -0.7916  0.7048 -2.3419
26138SOL    HW284252   9.199   6.896   7.052 -0.6974 -2.4140  1.3902
26139SOL     OW84253   2.523   8.637  11.046 -0.2754 -0.1447  0.5506
26139SOL    HW184254   2.557   8.713  10.998  1.1230 -0.2983  1.2558
26139SOL    HW284255   2.429   8.637  11.026 -0.3118  1.7570  0.5263
26140SOL     OW84256   5.094  11.920   8.687  0.0933 -0.3145 -0.0221
26140SOL    HW184257   5.075  12.011   8.710  1.0804 -0.0040 -0.4195
26140SOL    HW284258   5.009  11.877   8.691 -0.9699  1.2757 -2.9395
26141SOL     OW84259   2.269   2.289  12.253  0.0581  0.2833 -0.5326
26141SOL    HW184260   2.299   2.299  12.163 -0.5780  0.3836 -0.7345
26141SOL    HW284261   2.238   2.376  12.278  2.5657  0.9228  0.6513
26142SOL     OW84262   2.187  10.246   2.768 -0.1641 -0.2105  0.0835
26142SOL    HW184263   2.146  10.167   2.803 -0.3283 -0.4169 -0.5580
26142SOL    HW284264   2.276  10.220   2.747  0.1313  0.0829  0.9278
26143SOL     OW84265   0.834   7.509   1.742  0.3720 -0.0169 -0.0958
26143SOL    HW184266   0.852   7.602   1.751  3.1345 -0.3708 -1.0493
26143SOL    HW284267   0.905   7.476   1.686 -2.0911 -2.1761 -2.2366
26144SOL     OW84268   9.913   3.062   0.596 -0.4316  0.4709  0.2299
26144SOL    HW184269   9.940   3.091   0.683 -1.0173 -0.6290  0.7998
26144SOL    HW284270   9.922   3.140   0.541  0.9183  0.9262  1.0474
26145SOL     OW84271   5.067   8.235   6.689 -0.4138 -0.4522  0.2347
26145SOL    HW184272   5.087   8.202   6.601 -0.6261 -0.5510  0.2229
26145SOL    HW284273   5.143   8.289   6.712 -1.3931  1.5812 -0.9910
26146SOL     OW84274   8.681  11.038   3.781 -0.1113  0.1172 -0.0543
26146SOL    HW184275   8.770  11.068   3.799 -0.3014 -0.1492  1.4592
26146SOL    HW284276   8.692  10.952   3.741  0.3755  1.3630 -2.8634
26147SOL     OW84277   3.581   4.479   4.041 -0.2571  0.0072  0.8967
26147SOL    HW184278   3.650   4.417   4.016  0.3630  0.6693  0.9267
26147SOL    HW284279   3.626   4.563   4.048 -1.3347  0.7559 -0.5499
26148SOL     OW84280   0.833   5.552   2.158  0.4212  0.0279 -0.0558
26148SOL    HW184281   0.815   5.640   2.189  1.8310  0.5488 -0.6689
26148SOL    HW284282   0.752   5.526   2.112 -0.7065  0.2310  1.7233
26149SOL     OW84283   7.692   2.149  10.248  0.1114 -0.1068 -0.5485
26149SOL    HW184284   7.621   2.213  10.242 -0.4553 -0.6953 -0.2693
26149SOL    HW284285   7.744   2.177  10.323 -0.3514 -0.1853 -0.1955
26150SOL     OW84286   8.185   2.440  10.767  0.0506 -0.2508  0.3110
26150SOL    HW184287   8.168   2.508  10.702 -0.8357 -0.3803  0.3910
26150SOL    HW284288   8.277   2.417  10.755  0.2038  0.5517 -0.1069
26151SOL     OW84289   8.869   0.128   4.363 -0.0578  0.1857  0.2800
26151SOL    HW184290   8.943   0.181   4.393 -0.4815  0.9355  0.0333
26151SOL    HW284291   8.832   0.092   4.443  1.0528 -0.8569  0.3448
26152SOL     OW84292   4.559   4.151  10.040 -0.5289  0.3032 -0.1246
26152SOL    HW184293   4.642   4.106  10.051  0.6840  2.5033  0.3626
26152SOL    HW284294   4.576   4.217   9.972 -1.5554  1.4204  0.6454
26153SOL     OW84295   3.224   6.052   3.777 -0.1142 -0.4454  0.2487
26153SOL    HW184296   3.263   5.965   3.784 -1.8607 -1.4569 -1.6337
26153SOL    HW284297   3.144   6.046   3.830 -0.5689 -0.2170 -0.4022
26154SOL     OW84298   3.595   5.729   7.344  0.0426 -0.1399 -0.1258
26154SOL    HW184299   3.519   5.787   7.340  0.2162  0.0912 -0.1167
26154SOL    HW284300   3.671   5.789   7.343  0.2346 -0.3895 -0.6790
26155SOL     OW84301   4.310   8.774   8.300  0.6630  0.2294  0.5874
26155SOL    HW184302   4.215   8.761   8.303  0.7981 -0.9027  0.4140
26155SOL    HW284303   4.337   8.732   8.218  1.3079  0.5652  0.6236
26156SOL     OW84304  11.554  12.013   2.504  0.3096 -0.0341 -0.5394
26156SOL    HW184305  11.625  11.953   2.527  2.9251  2.8085 -0.5051
26156SOL    HW284306  11.580  12.049   2.419 -1.4313  0.6537 -0.8179
26157SOL     OW84307  10.374   1.320   0.982 -0.3913 -0.0190 -0.0147
26157SOL    HW184308  10.323   1.360   1.052  0.4706  1.0097  0.0534
26157SOL    HW284309  10.451   1.376   0.974  0.5619 -1.3286 -0.3448
26158SOL     OW84310   8.136  10.181   9.144  0.3329 -0.0891  0.2025
26158SOL    HW184311   8.115  10.229   9.224 -0.2314 -0.8190  0.5047
26158SOL    HW284312   8.151  10.091   9.173  0.8681 -0.2128 -0.4192
26159SOL     OW84313   5.992   0.914   4.523 -0.1365 -0.0098 -0.2495
26159SOL    HW184314   5.926   0.911   4.592  0.2632 -2.5772  0.0929
26159SOL    HW284315   6.010   1.008   4.512 -1.9719  0.6078  1.3976
26160SOL     OW84316   8.749  10.430   3.529  0.3916  0.0168  0.0146
26160SOL    HW184317   8.725  10.370   3.458  1.2233 -0.5640  0.2115
26160SOL    HW284318   8.843  10.418   3.539  0.3959  0.6181  0.7445
26161SOL     OW84319   7.221   4.035   6.273  0.3652 -0.2991 -0.1012
26161SOL    HW184320   7.268   3.997   6.199  0.1788 -0.1354 -0.3070
26161SOL    HW284321   7.203   4.125   6.245  1.9438  0.3674  0.8950
26162SOL     OW84322   6.004  11.119   5.741 -0.3101 -0.3531  0.5381
26162SOL    HW184323   5.994  11.120   5.646  1.0345 -1.1527  0.3538
26162SOL    HW284324   5.947  11.189   5.772 -0.7153 -0.0247 -0.8570
26163SOL     OW84325   7.487   6.479  11.201 -0.0111 -0.0068  0.1378
26163SOL    HW184326   7.540   6.420  11.147 -0.5099 -0.2701 -0.0653
26163SOL    HW284327   7.397   6.451  11.187 -0.4414  1.9249 -1.3493
26164SOL     OW84328   6.148  11.113   2.771 -0.0646  0.4736  0.2349
26164SOL    HW184329   6.199  11.134   2.692 -0.7516  0.2655 -0.2704
26164SOL    HW284330   6.069  11.167   2.763 -0.3557  0.0916  0.5382
26165SOL     OW84331   6.977   7.437   3.060  0.1267 -0.8607  0.7047
26165SOL    HW184332   7.027   7.478   3.131  2.2795 -1.2062 -0.5555
26165SOL    HW284333   6.925   7.509   3.023  0.5574 -0.2378  1.2902
26166SOL     OW84334   4.661   5.543   2.675  0.1282 -0.7312  0.3028
26166SOL    HW184335   4.675   5.503   2.761  0.3170 -0.5358  0.3640
26166SOL    HW284336   4.568   5.564   2.673 -0.5642 -3.4754 -0.7147
26167SOL     OW84337   3.601   9.484   7.317  0.1922  0.4317 -0.3979
26167SOL    HW184338   3.508   9.474   7.298 -0.4489  1.6922  1.7406
26167SOL    HW284339   3.608   9.471   7.411  2.0461  1.1739 -0.3840
26168SOL     OW84340   1.881   0.397   6.810 -0.5457  0.2527 -0.2260
26168SOL    HW184341   1.867   0.466   6.875 -1.6141 -0.2956  0.1626
26168SOL    HW284342   1.836   0.320   6.847  2.0830 -1.2057  0.2204
26169SOL     OW84343   9.993   0.067   5.380  0.4845  0.3376 -0.0539
26169SOL    HW184344  10.037   0.141   5.337  0.7488  0.5610  0.5934
26169SOL    HW284345  10.053  -0.006   5.368  0.8463  0.5459  0.4718
26170SOL     OW84346   9.016   8.106   9.011  0.6437  0.0567  0.2580
26170SOL    HW184347   9.015   8.189   9.059  0.0823  1.1904 -1.5690
26170SOL    HW284348   8.941   8.057   9.045 -0.8580  1.5985 -0.6314
26171SOL     OW84349   2.100   6.177  11.163  0.0306 -0.4047 -0.6815
26171SOL    HW184350   2.090   6.180  11.068  1.2117  1.5233 -0.8129
26171SOL    HW284351   2.026   6.227  11.197  1.1040  1.3481 -0.8015
26172SOL     OW84352   3.879   4.330   1.901  0.3992 -0.5627  0.0032
26172SOL    HW184353   3.818   4.400   1.876  0.7924  0.0619  0.7583
26172SOL    HW284354   3.910   4.355   1.988  2.5079 -0.3265 -0.7784
26173SOL     OW84355   9.836  11.443  11.443  0.2047 -0.2824  0.0381
26173SOL    HW184356   9.852  11.358  11.403 -2.3131 -0.0536 -1.6797
26173SOL    HW284357   9.771  11.426  11.511  1.1089  0.0358  1.0164
26174SOL     OW84358   3.411   2.503   5.716 -0.3031 -0.1239  0.1346
26174SOL    HW184359   3.482   2.543   5.767  1.4516  0.4398 -2.5587
26174SOL    HW284360   3.424   2.409   5.726 -0.3417 -0.0459  1.0887
26175SOL     OW84361  10.632  10.855   0.323  0.4307 -0.6870  0.0780
26175SOL    HW184362  10.681  10.779   0.357  0.8526 -0.2748  0.3996
26175SOL    HW284363  10.639  10.921   0.392 -0.6514 -0.6432  0.1611
26176SOL     OW84364  12.106   4.849   5.555  0.4852 -0.2245 -0.2356
26176SOL    HW184365  12.188   4.847   5.506  0.3704 -1.0640 -0.4182
26176SOL    HW284366  12.123   4.908   5.629  1.1189 -0.0704 -0.4990
26177SOL     OW84367   5.310  10.989   2.395  0.2239  0.0310  0.2540
26177SOL    HW184368   5.256  10.924   2.438 -0.9319  1.2636  0.7534
26177SOL    HW284369   5.255  11.068   2.391  1.2319  0.7285 -1.1211
26178SOL     OW84370   1.357  12.163   2.845  0.6631 -0.8953  0.9154
26178SOL    HW184371   1.346  12.074   2.811 -0.5039 -1.1954  1.9985
26178SOL    HW284372   1.349  12.219   2.768  0.4420 -1.6778  0.3562
26179SOL     OW84373   2.956   0.250   4.872  0.3439  0.1372 -0.0933
26179SOL    HW184374   2.939   0.157   4.864 -0.2310  0.2259  0.0770
26179SOL    HW284375   3.005   0.259   4.954  1.8446 -0.1938 -0.9218
26180SOL     OW84376  10.913   7.253   0.771 -0.0447 -0.0868  0.2017
26180SOL    HW184377  10.831   7.269   0.725 -0.2590  0.4068  0.7387
26180SOL    HW284378  10.943   7.169   0.738  1.3882  1.5576 -3.1249
26181SOL     OW84379   1.931   8.323  10.300 -0.3980 -0.4855  0.4988
26181SOL    HW184380   1.892   8.241  10.330 -0.3401 -0.8343 -0.3422
26181SOL    HW284381   1.941   8.312  10.206 -1.3129  0.8740  0.2048
26182SOL     OW84382   8.910   8.202   5.448  0.3423 -0.2809 -0.1707
26182SOL    HW184383   8.943   8.118   5.416 -2.9563 -2.0631  0.7037
26182SOL    HW284384   8.974   8.229   5.513  0.3742 -3.3664  1.2633
26183SOL     OW84385   1.066  11.975   4.223  0.0890  0.3163 -0.0811
26183SOL    HW184386   1.131  11.925   4.174  0.7682 -0.8539  1.9296
26183SOL    HW284387   0.989  11.918   4.225  0.5671 -0.3161  1.4498
26184SOL     OW84388   0.327   4.934   5.503 -0.4065 -0.1599 -0.1383
26184SOL    HW184389   0.377   4.916   5.423 -0.7888 -1.7870 -0.0359
26184SOL    HW284390   0.237   4.946   5.473  0.0559  3.7837 -0.4481
26185SOL     OW84391   3.033   7.169   4.220  0.4660  0.1793  0.0733
26185SOL    HW184392   2.999   7.241   4.274 -3.6430 -0.4145 -1.4101
26185SOL    HW284393   3.118   7.149   4.259  0.3545  3.6340  2.5724
26186SOL     OW84394   1.022   2.089   1.315  0.2464  0.0648  0.7781
26186SOL    HW184395   1.062   2.012   1.273 -0.9804 -0.3439  0.3181
26186SOL    HW284396   1.087   2.117   1.380  1.2364 -0.6220  0.1245
26187SOL     OW84397   9.540   9.873   1.599 -0.7544  0.3071 -0.6479
26187SOL    HW184398   9.465   9.822   1.570 -0.8274 -0.0502  0.1603
26187SOL    HW284399   9.610   9.851   1.537 -0.9291 -0.3858 -0.6061
26188SOL     OW84400   6.059   4.641   2.410  0.1675  0.2862 -0.1538
26188SOL    HW184401   5.989   4.707   2.407 -1.1519 -0.9860  1.1282
26188SOL    HW284402   6.029   4.572   2.352 -1.3057 -1.7168  2.7418
26189SOL     OW84403   0.475   3.424  11.256 -0.3900 -0.6154  0.3651
26189SOL    HW184404   0.545   3.433  11.321 -0.6549  0.1606  0.5493
26189SOL    HW284405   0.475   3.331  11.234  0.6676 -0.6372  0.4038
26190SOL     OW84406   0.777   4.424  10.070  0.2454 -0.3647  0.2785
26190SOL    HW184407   0.858   4.380  10.094  0.1748  0.3148  1.9110
26190SOL    HW284408   0.795   4.517  10.086  0.1023  0.1683 -2.2062
26191SOL     OW84409   5.825   5.139   3.812  0.2085 -0.0405 -0.1336
26191SOL    HW184410   5.816   5.093   3.896 -1.2073 -0.8032 -0.6689
26191SOL    HW284411   5.891   5.088   3.765 -0.1569 -0.5714 -0.0844
26192SOL     OW84412  11.548   0.150  12.074 -0.1993 -0.0931  0.5147
26192SOL    HW184413  11.567   0.139  12.167  3.7920  0.1595 -0.0740
26192SOL    HW284414  11.618   0.101  12.030 -1.4106  0.5725 -2.3740
26193SOL     OW84415  10.038   9.772   7.486  0.0372  0.4558 -0.1126
26193SOL    HW184416   9.996   9.849   7.447  3.7255  2.5693 -0.4294
26193SOL    HW284417  10.039   9.791   7.580 -1.1665 -0.4609  0.1139
26194SOL     OW84418   0.897   7.612   7.540 -0.4776 -0.1674 -0.6646
26194SOL    HW184419   0.895   7.577   7.451 -1.4610 -1.1804 -0.2688
26194SOL    HW284420   0.808   7.600   7.573 -0.9510  2.8976 -0.5283
26195SOL     OW84421   4.834   1.696   2.852  0.2144  0.4243  0.1041
26195SOL    HW184422   4.916   1.647   2.863  0.5167  1.0889  0.9770
26195SOL    HW284423   4.785   1.647   2.786  1.2813 -0.0361 -0.3784
26196SOL     OW84424   9.626   4.596   1.157 -0.0614 -0.3607 -0.3248
26196SOL    HW184425   9.718   4.573   1.152 -0.2859 -1.4097  0.0659
26196SOL    HW284426   9.581   4.525   1.112 -0.6823  0.1059 -0.4516
26197SOL     OW84427   3.491  11.882   3.186 -0.1064  0.5844  0.0385
26197SOL    HW184428   3.489  11.815   3.117 -1.2435  0.1198  0.4987
26197SOL    HW284429   3.570  11.863   3.236  0.2382  0.3614 -0.5712
26198SOL     OW84430   7.027   8.207   7.826 -0.1436 -0.2733 -0.1809
26198SOL    HW184431   6.982   8.169   7.750 -0.1761  0.1375 -0.3739
26198SOL    HW284432   6.982   8.170   7.902  0.0143 -0.8360 -0.3620
26199SOL     OW84433   2.865  10.011  11.308  0.2731  0.2511 -0.2956
26199SOL    HW184434   2.847  10.045  11.396 -0.1193 -0.3073 -0.1511
26199SOL    HW284435   2.870   9.916  11.320  0.0132  0.1541 -0.9095
26200SOL     OW84436   4.237  11.454   0.634 -0.5068 -0.0205 -0.3458
26200SOL    HW184437   4.329  11.430   0.621 -0.3670  1.2308 -2.0034
26200SOL    HW284438   4.233  11.485   0.724  0.7066 -0.0980 -0.2484
26201SOL     OW84439   2.395   6.703   3.379 -0.2888  0.1921  0.5775
26201SOL    HW184440   2.376   6.621   3.332 -0.3787  0.5773 -0.0681
26201SOL    HW284441   2.414   6.675   3.469  2.4925 -0.8689 -0.2140
26202SOL     OW84442   6.117  10.127   1.456 -0.2426  0.4292  0.7592
26202SOL    HW184443   6.038  10.110   1.508 -1.2456 -0.4685 -0.9427
26202SOL    HW284444   6.144  10.040   1.426  1.5701  0.6982  1.4878
26203SOL     OW84445   5.772   9.193  10.150 -0.3674  0.1984  0.1185
26203SOL    HW184446   5.816   9.190  10.235  1.0550  0.8959 -0.5458
26203SOL    HW284447   5.817   9.126  10.098  0.7345  1.6470 -0.9073
26204SOL     OW84448   0.370   5.333   1.322 -0.0217  0.0740  0.3208
26204SOL    HW184449   0.400   5.407   1.270 -1.0898  0.4491  0.2096
26204SOL    HW284450   0.422   5.338   1.403 -1.2642  2.0168  1.0702
26205SOL     OW84451  10.430   4.023  12.284  0.1685  0.3986  0.5963
26205SOL    HW184452  10.429   4.021  12.188 -1.0971  2.5711  0.5035
26205SOL    HW284453  10.522   4.017  12.307  0.5270  0.3156 -0.7632
26206SOL     OW84454   0.956  10.013   0.001 -0.2985  0.0486  0.1208
26206SOL    HW184455   0.965  10.030  -0.093  1.7377  2.6180  0.6711
26206SOL    HW284456   0.861  10.014   0.016 -0.6147  1.8303 -1.5782
26207SOL     OW84457   1.960   3.692   5.489 -0.0359  0.1090 -0.2430
26207SOL    HW184458   1.974   3.637   5.565 -1.5724  0.2045  0.1460
26207SOL    HW284459   1.871   3.670   5.459 -0.5679  2.0844 -0.2853
26208SOL     OW84460   3.068   5.788   4.771  0.3450  0.0339  0.3200
26208SOL    HW184461   3.153   5.745   4.763  0.0829 -0.5960  0.8313
26208SOL    HW284462   3.005   5.725   4.737 -0.0192  0.1042  0.8467
26209SOL     OW84463   7.798   9.142   6.330  0.1985  0.2127 -0.2528
26209SOL    HW184464   7.808   9.237   6.328  3.2577  0.0053  0.7315
26209SOL    HW284465   7.828   9.116   6.417 -1.9800 -1.5926  0.0628
26210SOL     OW84466   8.362  12.053   6.044 -0.2154  0.2325  0.2559
26210SOL    HW184467   8.453  12.082   6.035 -0.3200  0.1055 -1.7184
26210SOL    HW284468   8.327  12.056   5.955 -1.4909 -1.8468  0.6126
26211SOL     OW84469   6.412   8.082   7.265  0.2932  0.5019 -0.7036
26211SOL    HW184470   6.394   7.992   7.292  0.8407  0.3831 -0.7168
26211SOL    HW284471   6.507   8.085   7.253  0.1807  0.8459 -1.5757
26212SOL     OW84472   7.264   3.709   0.472  0.2245  0.0017  0.8857
26212SOL    HW184473   7.334   3.684   0.532  1.1822  0.9133  0.2095
26212SOL    HW284474   7.217   3.780   0.517  0.4815  0.1861  0.8678
26213SOL     OW84475   0.589  11.959   1.306 -0.0549 -0.4886  0.1996
26213SOL    HW184476   0.514  11.997   1.352 -1.2348 -0.2748 -1.7782
26213SOL    HW284477   0.623  12.031   1.252  2.4317 -0.2154  1.9496
26214SOL     OW84478   4.160   2.940   2.990  0.7009 -0.0964 -0.0647
26214SOL    HW184479   4.162   2.902   2.902  0.5317 -1.4214  0.4772
26214SOL    HW284480   4.142   3.033   2.976  1.4768 -0.1370 -1.4617
26215SOL     OW84481   7.095   1.209   1.963 -0.2449 -0.4670  0.2627
26215SOL    HW184482   7.159   1.178   1.899  1.2125  0.6735  1.1062
26215SOL    HW284483   7.144   1.216   2.045 -1.0195  1.8609  0.6015
26216SOL     OW84484   3.987   0.887   8.958  0.5238 -0.3743 -0.0949
26216SOL    HW184485   3.953   0.856   9.042  2.7089 -1.1992  0.5665
26216SOL    HW284486   3.944   0.833   8.893  0.8832 -1.6884  0.7268
26217SOL     OW84487   6.486  10.536   5.279 -0.1918  0.0898  0.7332
26217SOL    HW184488   6.483  10.457   5.333 -3.5058  0.1017  0.7718
26217SOL    HW284489   6.490  10.608   5.342 -0.1803  0.0233  0.8091
26218SOL     OW84490   5.100   3.634   5.947  0.6259 -0.2321 -0.3156
26218SOL    HW184491   5.115   3.598   5.860  1.1484  1.1092 -0.8080
26218SOL    HW284492   5.182   3.677   5.970 -0.0381  0.8577  0.1160
26219SOL     OW84493   1.209   3.236   3.727  0.5245  0.9126  0.3854
26219SOL    HW184494   1.125   3.204   3.762  0.0133  1.2877 -0.4681
26219SOL    HW284495   1.209   3.330   3.745 -0.3043  1.3557 -1.6313
26220SOL     OW84496  12.275   4.583   8.745 -0.1187 -0.8818  0.1882
26220SOL    HW184497  12.182   4.579   8.719  0.1672  0.1772 -1.1073
26220SOL    HW284498  12.310   4.656   8.695  1.4897 -1.4410  0.4572
26221SOL     OW84499   4.282   9.000   4.364 -0.2536 -0.1949  0.2791
26221SOL    HW184500   4.290   9.073   4.303  0.1840 -1.1237 -0.8183
26221SOL    HW284501   4.356   9.011   4.424  0.4449 -0.3193 -0.5387
26222SOL     OW84502   5.623  10.460   9.436 -0.2173 -0.8173  0.6031
26222SOL    HW184503   5.719  10.449   9.437  0.4627  2.8505 -2.0223
26222SOL    HW284504   5.594  10.402   9.366  0.5874  0.1628 -0.5965
26223SOL     OW84505  10.878  11.478   3.951 -0.3253 -0.3128  0.2573
26223SOL    HW184506  10.893  11.472   4.045 -0.9826 -0.0432  0.3894
26223SOL    HW284507  10.929  11.407   3.913 -1.9119 -1.9693  1.0306
26224SOL     OW84508   2.638   5.164   1.121 -0.6057  0.4349 -0.1818
26224SOL    HW184509   2.684   5.081   1.109  0.0662  0.5394  1.3784
26224SOL    HW284510   2.608   5.161   1.212 -0.6706  1.8463 -0.1365
26225SOL     OW84511  11.671   5.963   7.957  0.5926  0.0661  0.1675
26225SOL    HW184512  11.685   5.927   7.870  3.0608  3.1104 -0.8939
26225SOL    HW284513  11.613   6.038   7.943  2.5030  1.7370  0.7188
26226SOL     OW84514   8.413   2.672   9.490  0.5560 -0.0862  0.6379
26226SOL    HW184515   8.455   2.592   9.458 -0.3325  0.1589 -1.2945
26226SOL    HW284516   8.369   2.708   9.413  0.1488  1.7746  1.6844
26227SOL     OW84517   9.209   8.411   2.010 -0.3951  0.8364  0.2823
26227SOL    HW184518   9.159   8.492   2.002 -0.0362  1.0260 -0.0880
26227SOL    HW284519   9.258   8.421   2.092 -0.7564  0.7668  0.5065
26228SOL     OW84520   9.810  11.868   8.309  0.5498 -0.0819 -0.6981
26228SOL    HW184521   9.798  11.814   8.231  1.9792 -0.6946 -0.5206
26228SOL    HW284522   9.721  11.887   8.339 -0.0332  0.2651 -2.5294
26229SOL     OW84523   3.667   3.232   2.590 -0.1589  0.1754 -0.2543
26229SOL    HW184524   3.586   3.236   2.640  1.1101 -1.3774  2.1079
26229SOL    HW284525   3.710   3.316   2.607 -0.5915  0.4083 -0.3026
26230SOL     OW84526  11.018   9.408   9.672  0.0469  0.9379 -0.0915
26230SOL    HW184527  10.996   9.461   9.595  0.1758 -1.0047 -1.5564
26230SOL    HW284528  10.941   9.414   9.728  0.1291  2.7596 -0.1266
26231SOL     OW84529   4.714   2.199   0.766 -0.1630  0.1898 -0.1717
26231SOL    HW184530   4.672   2.238   0.690  1.0010  0.7225 -0.5781
26231SOL    HW284531   4.802   2.237   0.766 -0.1245  0.1461  1.4078
26232SOL     OW84532   8.240   0.723  11.110  0.2209 -0.3325 -0.1058
26232SOL    HW184533   8.205   0.783  11.044 -2.2745 -0.8451  0.6427
26232SOL    HW284534   8.222   0.767  11.194  1.7187 -0.4960  0.3341
26233SOL     OW84535   6.455  10.617   4.122 -0.3921 -0.1739 -0.2819
26233SOL    HW184536   6.502  10.558   4.180  0.0176  0.9601  0.5704
26233SOL    HW284537   6.481  10.591   4.034 -0.4107 -1.4032  0.0599
26234SOL     OW84538  10.012   5.209   7.574 -0.0626  0.4422  0.2434
26234SOL    HW184539   9.961   5.232   7.496 -0.5890  1.2648  0.8256
26234SOL    HW284540  10.083   5.154   7.540 -0.7523  0.1024 -0.7102
26235SOL     OW84541  10.821  11.244   5.626  0.3080 -0.4814 -0.4592
26235SOL    HW184542  10.792  11.270   5.714 -1.2112 -0.5122 -0.9323
26235SOL    HW284543  10.909  11.207   5.641  0.3424  0.0845  0.9497
26236SOL     OW84544   7.808   3.795   2.295  0.2876  0.3007 -0.6933
26236SOL    HW184545   7.893   3.769   2.330 -0.5744 -1.9247 -0.0849
26236SOL    HW284546   7.828   3.831   2.208  2.1261  3.0074  0.7123
26237SOL     OW84547  11.032   5.118   1.405 -0.6374  0.0031 -0.1605
26237SOL    HW184548  10.999   5.087   1.489 -0.5658 -0.2661 -0.2335
26237SOL    HW284549  11.086   5.047   1.372 -1.0947 -0.1084 -0.6886
26238SOL     OW84550   4.330   0.278   6.509  0.5866 -0.1088  0.2503
26238SOL    HW184551   4.390   0.319   6.572 -0.0386  1.5441 -0.1773
26238SOL    HW284552   4.363   0.189   6.500  3.4580  0.9069 -0.5098
26239SOL     OW84553   6.955  10.210   0.290 -0.6250 -0.3343 -0.4704
26239SOL    HW184554   6.963  10.252   0.375 -0.7375 -0.6457 -0.3067
26239SOL    HW284555   6.882  10.150   0.299  1.1608 -2.5819  0.1504
26240SOL     OW84556  10.310   6.436   0.067 -0.3048 -0.0132 -0.4914
26240SOL    HW184557  10.337   6.356   0.023 -1.6306 -1.0785  0.5513
26240SOL    HW284558  10.288   6.497  -0.003 -0.6242 -1.0465 -1.2978
26241SOL     OW84559  11.790  10.261   9.317  0.1803 -0.0492 -0.5848
26241SOL    HW184560  11.876  10.259   9.275  0.3183 -1.8481 -0.2988
26241SOL    HW284561  11.788  10.183   9.372 -1.8529 -0.3748 -1.0329
26242SOL     OW84562   9.061   6.877   7.819  0.4081  0.2963  0.2899
26242SOL    HW184563   9.074   6.792   7.776 -1.7319  0.2812 -0.4366
26242SOL    HW284564   9.011   6.856   7.898 -0.0572  0.8487  0.1512
26243SOL     OW84565   2.374   1.721  10.703  0.0716 -0.4657 -0.5201
26243SOL    HW184566   2.389   1.632  10.734  0.1496 -0.2593  0.0334
26243SOL    HW284567   2.283   1.741  10.727  0.0935 -0.3512 -0.5290
26244SOL     OW84568  10.616   9.094   6.681 -0.2996 -0.0762  0.8350
26244SOL    HW184569  10.523   9.071   6.675 -0.1099 -0.5980 -0.7903
26244SOL    HW284570  10.661   9.010   6.686  0.1877  0.0225 -1.0369
26245SOL     OW84571   3.043   6.041   9.215  0.2089  0.3435  0.2295
26245SOL    HW184572   3.128   6.026   9.255  1.3637 -1.1627 -2.5271
26245SOL    HW284573   2.995   5.960   9.230 -0.4348  0.8413  0.9587
26246SOL     OW84574   7.587   4.868   6.190  0.1325 -0.0957 -0.4550
26246SOL    HW184575   7.622   4.941   6.241 -0.4048  0.1811 -0.4675
26246SOL    HW284576   7.511   4.905   6.146 -0.9244 -0.9765  0.5437
26247SOL     OW84577   0.208   2.744   4.157  0.5183 -0.3880 -0.1710
26247SOL    HW184578   0.262   2.817   4.126 -0.5366  0.6332  0.3168
26247SOL    HW284579   0.211   2.680   4.086  3.8046 -1.2112  0.5431
26248SOL     OW84580   6.361   0.735  10.178  0.6235  0.0606  0.2179
26248SOL    HW184581   6.350   0.649  10.220 -0.3798 -0.2047 -0.5404
26248SOL    HW284582   6.364   0.716  10.085 -2.1805  1.0133 -0.1574
26249SOL     OW84583   1.718   7.193   9.751  0.2112  0.2371 -0.0125
26249SOL    HW184584   1.777   7.165   9.820 -1.3442  2.0588  2.2131
26249SOL    HW284585   1.648   7.241   9.796 -0.9876  1.4261 -2.8347
26250SOL     OW84586   0.740  10.323   7.556 -0.0561  0.4331  0.5316
26250SOL    HW184587   0.759  10.395   7.496  1.5080 -0.4312 -0.0579
26250SOL    HW284588   0.792  10.250   7.523 -1.1155 -0.7948  1.4891
26251SOL     OW84589   0.469   4.480   8.578 -0.6561  0.4247  0.5460
26251SOL    HW184590   0.441   4.404   8.629  0.3522  0.3086  0.9457
26251SOL    HW284591   0.408   4.482   8.504 -0.1084 -1.3786 -0.0233
26252SOL     OW84592   9.091   5.131   0.275  0.2251  0.1099 -0.1908
26252SOL    HW184593   9.141   5.187   0.334  1.2303 -2.2603  1.3829
26252SOL    HW284594   9.058   5.061   0.332 -0.6369 -1.0939 -2.0852
26253SOL     OW84595  12.135   2.293   7.544  0.5320 -0.1191  0.0290
26253SOL    HW184596  12.165   2.371   7.496 -0.7890 -0.4098 -1.3642
26253SOL    HW284597  12.209   2.270   7.600  1.7362  0.9401 -1.0316
26254SOL     OW84598   7.525  10.700   6.927  0.5931  0.3443  0.5682
26254SOL    HW184599   7.459  10.768   6.913  0.8882  0.5418  0.1324
26254SOL    HW284600   7.483  10.639   6.988  0.3220  0.9062  0.9531
26255SOL     OW84601   7.207   2.038  12.006 -0.5918 -0.5469  0.0485
26255SOL    HW184602   7.187   2.057  12.098 -0.9250 -0.1643 -0.1013
26255SOL    HW284603   7.279   2.097  11.984 -0.3397 -0.8211  0.1381
26256SOL     OW84604   8.000   5.687   0.869  0.3209  0.6066 -0.3658
26256SOL    HW184605   7.908   5.661   0.864 -0.2966  1.2483  3.9242
26256SOL    HW284606   8.047   5.605   0.882 -0.2092  0.5288  1.3428
26257SOL     OW84607   3.393   8.498   2.351  0.5679 -0.0684 -0.8918
26257SOL    HW184608   3.313   8.518   2.399  0.7772 -0.0459 -0.5476
26257SOL    HW284609   3.442   8.580   2.349  0.7691 -0.1849 -0.7424
26258SOL     OW84610   0.076   7.752   9.610  0.5924 -0.5212 -0.2438
26258SOL    HW184611   0.077   7.731   9.517  1.2973  1.4856 -0.7408
26258SOL    HW284612   0.002   7.812   9.620 -1.5186 -3.1422  1.1631
26259SOL     OW84613   6.124   7.035   1.063 -0.5312 -0.1938  0.0002
26259SOL    HW184614   6.118   6.945   1.029  0.0311 -0.2917  0.1414
26259SOL    HW284615   6.198   7.032   1.124 -1.6571 -0.0757  1.4087
26260SOL     OW84616   1.208  11.481   5.074 -0.4731  0.0662  0.7567
26260SOL    HW184617   1.123  11.443   5.094 -1.2921  0.2458 -1.9913
26260SOL    HW284618   1.242  11.428   5.002  1.4481  0.4449  1.3233
26261SOL     OW84619   0.653   3.007  10.010  0.1797  0.3971 -0.3033
26261SOL    HW184620   0.719   3.076  10.007  1.5084 -0.8226  0.1156
26261SOL    HW284621   0.617   3.005   9.921 -0.5724  2.2364 -0.0834
26262SOL     OW84622   3.779   1.157   6.765 -0.0684  0.1886  0.4035
26262SOL    HW184623   3.714   1.179   6.698  1.4272 -0.2751 -1.2777
26262SOL    HW284624   3.860   1.145   6.716  0.6111 -2.5907  1.9690
26263SOL     OW84625  11.608   9.730  10.483  0.2226  0.3726 -0.5015
26263SOL    HW184626  11.523   9.713  10.523  0.8435 -1.5339  0.1229
26263SOL    HW284627  11.659   9.774  10.551  0.6049 -1.0099  0.1444
26264SOL     OW84628  10.981   8.570  10.385 -0.0530 -0.4824  0.1062
26264SOL    HW184629  10.886   8.560  10.375 -0.0608 -0.3320  0.0367
26264SOL    HW284630  10.997   8.664  10.379  0.0233 -0.4440  0.7877
26265SOL     OW84631   0.133   9.380   4.329  0.3574  0.3611 -0.0815
26265SOL    HW184632   0.199   9.423   4.383  0.8112 -1.2542  0.7465
26265SOL    HW284633   0.184   9.330   4.264 -0.1256  0.7886 -0.7943
26266SOL     OW84634  11.582   4.697   7.007  0.2787 -0.2143 -0.0624
26266SOL    HW184635  11.566   4.702   7.101 -1.0493 -0.6178 -0.2503
26266SOL    HW284636  11.593   4.604   6.990 -2.6308 -0.5051 -0.7533
26267SOL     OW84637   4.963   9.737  11.213 -0.1320 -0.0297  0.6266
26267SOL    HW184638   5.043   9.703  11.253 -0.6599 -1.2676  0.6835
26267SOL    HW284639   4.973   9.832  11.216  0.6336 -0.1241  2.0802
26268SOL     OW84640   9.863   2.013   8.465  0.2629  0.8126 -0.1985
26268SOL    HW184641   9.867   2.093   8.518  2.7986  0.6228  0.0098
26268SOL    HW284642   9.935   1.959   8.498 -1.4118 -1.6239 -0.3022
26269SOL     OW84643   6.604   9.515  12.165 -0.1153 -0.2678 -0.2802
26269SOL    HW184644   6.617   9.599  12.121 -0.4171  0.6589  1.3098
26269SOL    HW284645   6.513   9.492  12.148  0.3895 -1.0913 -2.0258
26270SOL     OW84646   5.967   7.100  10.145  0.2204 -0.4276 -0.3997
26270SOL    HW184647   5.884   7.094  10.096 -0.5368  1.3168  0.5626
26270SOL    HW284648   5.971   7.192  10.174 -0.0327 -1.5366  3.8572
26271SOL     OW84649  12.197   3.476   2.992 -0.1680  0.0339  0.5652
26271SOL    HW184650  12.172   3.541   2.927  1.6211  1.7037  1.4546
26271SOL    HW284651  12.283   3.504   3.023 -0.8769 -0.7131  3.5675
26272SOL     OW84652   3.439   0.825  10.586 -0.4018 -0.5518  0.0681
26272SOL    HW184653   3.490   0.879  10.526 -0.2724 -0.6577  0.0824
26272SOL    HW284654   3.363   0.878  10.608 -0.6459 -0.6670 -0.4944
26273SOL     OW84655   7.524   8.719  11.015 -0.0609 -0.9998  0.3728
26273SOL    HW184656   7.474   8.796  11.039  0.6296  0.2644 -1.9624
26273SOL    HW284657   7.587   8.707  11.087  0.3774  1.1197  0.3927
26274SOL     OW84658   3.123   1.431   4.942 -0.4766 -0.5536 -0.5515
26274SOL    HW184659   3.103   1.340   4.962  1.0771 -0.5516  1.2550
26274SOL    HW284660   3.089   1.480   5.017  0.9124  0.0701 -0.3049
26275SOL     OW84661   4.904   3.501  11.154 -0.0497 -0.3572  0.9310
26275SOL    HW184662   4.869   3.436  11.215  0.9407  0.7808  2.8005
26275SOL    HW284663   4.944   3.449  11.085 -3.4932 -1.7055 -0.2624
26276SOL     OW84664   3.384   8.671   6.132 -0.3895  0.5212  0.0421
26276SOL    HW184665   3.413   8.693   6.043 -2.4946  3.8846 -0.0076
26276SOL    HW284666   3.289   8.663   6.124 -0.6261  0.9472  1.9535
26277SOL     OW84667   0.936  11.860   3.732  0.6939 -0.5462  0.1373
26277SOL    HW184668   0.907  11.893   3.818  0.2288  0.1879 -0.2816
26277SOL    HW284669   1.023  11.825   3.747  0.5072 -0.6692  0.9666
26278SOL     OW84670   1.235  10.789  10.873 -0.5886 -0.2837  0.0015
26278SOL    HW184671   1.143  10.785  10.848 -1.2270  1.1276  1.9044
26278SOL    HW284672   1.238  10.855  10.942  1.4481 -2.0028  1.6719
26279SOL     OW84673   3.479   1.456   0.947  0.3599 -0.3307  0.0366
26279SOL    HW184674   3.389   1.423   0.944  0.5807 -0.9139 -0.1897
26279SOL    HW284675   3.534   1.378   0.950  0.9296 -0.0414 -1.4967
26280SOL     OW84676  11.510   9.905   6.867 -0.2633 -0.3912  0.4280
26280SOL    HW184677  11.469   9.882   6.783 -1.0035 -0.2947  0.7565
26280SOL    HW284678  11.462   9.853   6.931  0.5696 -0.7728  0.7576
26281SOL     OW84679   0.863   9.073   2.809 -0.3179 -0.1579  0.1308
26281SOL    HW184680   0.831   9.003   2.867  0.0270  1.1375  1.9650
26281SOL    HW284681   0.935   9.032   2.761 -1.1090 -1.4957  0.0080
26282SOL     OW84682   1.330   0.638   8.188  0.0444  0.3693 -0.2213
26282SOL    HW184683   1.407   0.583   8.201 -0.6155 -0.4610  0.2687
26282SOL    HW284684   1.257   0.577   8.177 -0.8150  1.1104  0.9457
26283SOL     OW84685   5.201   6.586   5.860  0.1450 -0.4857 -0.2092
26283SOL    HW184686   5.224   6.611   5.770  1.0689 -0.8047 -0.0689
26283SOL    HW284687   5.157   6.501   5.851  0.5072 -0.6609 -0.3357
26284SOL     OW84688  12.199   6.210   7.900  0.2686 -0.0736  0.1125
26284SOL    HW184689  12.247   6.230   7.819  1.0378 -0.0620  0.5625
26284SOL    HW284690  12.127   6.273   7.901 -0.9959 -1.3909 -1.5994
26285SOL     OW84691   1.196   9.155   0.387 -0.2152  0.0972  0.2383
26285SOL    HW184692   1.208   9.071   0.343  0.7111 -0.3295  1.2361
26285SOL    HW284693   1.285   9.188   0.400 -0.5782  1.3675 -0.3665
26286SOL     OW84694   5.524   5.301   2.439  0.1988 -0.1011  0.1158
26286SOL    HW184695   5.443   5.350   2.457  0.3032  0.7714 -1.5055
26286SOL    HW284696   5.593   5.366   2.448  0.4720 -0.2489 -0.7881
26287SOL     OW84697   8.020  11.982  11.632 -0.1568 -0.7218 -0.1794
26287SOL    HW184698   8.056  12.025  11.710 -0.0348 -0.6990 -0.2480
26287SOL    HW284699   8.062  11.896  11.631 -1.5937 -1.4689  0.8529
26288SOL     OW84700   6.421   2.790   3.300  0.2803 -0.8463  0.6015
26288SOL    HW184701   6.390   2.699   3.304  1.3519 -1.2394  0.2769
26288SOL    HW284702   6.509   2.787   3.337 -0.4355  0.4466  2.5853
26289SOL     OW84703   8.366   1.238   7.914  0.0404 -0.8089 -0.0255
26289SOL    HW184704   8.392   1.319   7.870 -0.4945 -0.9873 -0.7036
26289SOL    HW284705   8.350   1.264   8.005  1.4123 -0.4814  0.1410
26290SOL     OW84706   2.293   5.126  11.123  0.3810 -0.3119  1.1124
26290SOL    HW184707   2.276   5.194  11.188  0.6349  0.6758  0.1771
26290SOL    HW284708   2.240   5.152  11.047 -1.0678 -2.2279  1.3810
26291SOL     OW84709   2.667   2.043   8.022 -0.0998  0.2452 -0.4597
26291SOL    HW184710   2.602   2.108   7.998 -0.3115  0.6181  1.0286
26291SOL    HW284711   2.686   2.060   8.114  0.5929 -1.1614 -0.3069
26292SOL     OW84712  10.954   4.721   0.648 -0.4354  0.2431 -0.1269
26292SOL    HW184713  10.999   4.660   0.589 -0.5564  0.5610 -0.5473
26292SOL    HW284714  11.022   4.780   0.679 -0.4802  0.4481 -0.4170
26293SOL     OW84715   8.367   4.169   1.484  0.2257 -0.0423 -0.3681
26293SOL    HW184716   8.321   4.221   1.550 -2.4488 -1.3888 -1.0427
26293SOL    HW284717   8.387   4.086   1.528 -1.1752 -0.7770 -1.0475
26294SOL     OW84718   6.478   0.316   1.310 -0.5379 -0.1793  1.0432
26294SOL    HW184719   6.512   0.344   1.395  0.6812 -0.4466  0.6672
26294SOL    HW284720   6.468   0.221   1.318  1.4261 -0.5036  0.3215
26295SOL     OW84721   9.163   9.231   8.365 -0.1798  0.5045  0.0318
26295SOL    HW184722   9.185   9.319   8.394 -1.4060  1.0184 -0.4963
26295SOL    HW284723   9.111   9.194   8.437  1.6320 -0.4020  0.9316
26296SOL     OW84724   0.450   6.644   5.274  0.4836  0.7449  0.2328
26296SOL    HW184725   0.534   6.649   5.230  0.0507  1.8729 -0.5151
26296SOL    HW284726   0.467   6.593   5.353  0.6898 -4.1496 -2.6130
26297SOL     OW84727   5.817   8.640   8.735 -0.2653 -0.3370 -0.1077
26297SOL    HW184728   5.795   8.698   8.662 -1.1160 -0.1697  0.2740
26297SOL    HW284729   5.760   8.564   8.722 -1.6944  0.4359  1.3222
26298SOL     OW84730   2.423   0.356   8.020  0.2349 -0.2634  0.0182
26298SOL    HW184731   2.477   0.277   8.012  1.6128  0.5810  0.5005
26298SOL    HW284732   2.424   0.376   8.114  1.8014  1.5416 -0.3292
26299SOL     OW84733   4.283   2.752  11.128 -0.4829 -0.2367  0.6773
26299SOL    HW184734   4.281   2.744  11.224  1.0379  0.1869  0.7667
26299SOL    HW284735   4.332   2.833  11.112  0.3547 -0.9465 -0.4664
26300SOL     OW84736   9.478   4.793   9.118  0.3708  0.1996  0.1210
26300SOL    HW184737   9.572   4.805   9.126  0.6152 -0.7883 -1.1190
26300SOL    HW284738   9.446   4.876   9.082  0.7748  0.4537  0.3430
26301SOL     OW84739   8.678   2.659   4.986 -0.1190  0.4751 -0.0626
26301SOL    HW184740   8.672   2.745   4.945  0.1619 -0.4383 -2.1514
26301SOL    HW284741   8.716   2.676   5.072  0.3980  2.3749 -0.6184
26302SOL     OW84742   2.147   7.505   1.108  0.7758  0.1770 -0.2712
26302SOL    HW184743   2.183   7.593   1.093  1.2768  0.1621  0.7943
26302SOL    HW284744   2.087   7.515   1.182 -0.2112 -0.1302 -0.9933
26303SOL     OW84745  11.743  12.329   9.872 -0.4054  0.2060 -0.6930
26303SOL    HW184746  11.687  12.388   9.923 -0.0124  0.6227 -0.7378
26303SOL    HW284747  11.684  12.258   9.845 -1.0803  0.9608 -1.2819
26304SOL     OW84748  10.334   1.077  10.864  0.0790 -0.1611  0.0546
26304SOL    HW184749  10.281   0.997  10.868 -0.7591  0.3528 -0.4481
26304SOL    HW284750  10.294   1.128  10.794 -1.1531  1.8985  2.0919
26305SOL     OW84751  11.131   9.901   8.660  0.2025 -0.2591 -0.2897
26305SOL    HW184752  11.101   9.927   8.747  0.8700 -0.4943  0.0195
26305SOL    HW284753  11.092   9.965   8.601 -0.1125  0.0076  0.2032
26306SOL     OW84754  11.724  11.490   9.426 -0.0034 -0.0709  0.2903
26306SOL    HW184755  11.755  11.520   9.341  1.5995  1.0785  1.2182
26306SOL    HW284756  11.672  11.564   9.460 -1.3116 -0.8337 -0.0062
26307SOL     OW84757   6.271   9.566  10.941  0.6748  0.0524  0.1732
26307SOL    HW184758   6.261   9.517  11.022  0.4874 -0.2490 -0.0304
26307SOL    HW284759   6.304   9.502  10.878 -1.2979 -0.2925 -0.5815
26308SOL     OW84760   2.602  10.878   7.131  0.0138  0.6800  0.3553
26308SOL    HW184761   2.564  10.821   7.064  0.7292  0.8004 -0.1684
26308SOL    HW284762   2.696  10.859   7.128 -0.1225 -0.7785  2.7147
26309SOL     OW84763  11.385   2.644  10.790 -0.2880 -0.3631 -0.4778
26309SOL    HW184764  11.427   2.685  10.714  0.3193 -0.8245 -0.4057
26309SOL    HW284765  11.349   2.562  10.756 -0.1349 -0.5047 -0.3019
26310SOL     OW84766   7.786   1.269   5.846 -0.7020 -0.5045 -0.5815
26310SOL    HW184767   7.764   1.279   5.754  2.4140  1.5113 -1.2482
26310SOL    HW284768   7.861   1.210   5.847  0.0522  0.4313  0.5078
26311SOL     OW84769  10.350   2.699   0.671 -0.4450 -0.3562 -0.4618
26311SOL    HW184770  10.328   2.759   0.742  0.6418 -0.3941 -0.0739
26311SOL    HW284771  10.310   2.616   0.696 -1.1819 -0.0383 -0.5550
26312SOL     OW84772  12.238  11.135   8.894 -0.2378  0.2100  0.5175
26312SOL    HW184773  12.182  11.160   8.967 -0.6762  0.9606 -0.0614
26312SOL    HW284774  12.207  11.188   8.820  1.5534  1.0201  0.2949
26313SOL     OW84775   6.496   5.662   6.396  0.6103 -0.3558 -0.4546
26313SOL    HW184776   6.576   5.666   6.342 -1.2095 -0.2319 -3.3618
26313SOL    HW284777   6.460   5.751   6.391 -1.0056 -1.0218 -1.4283
26314SOL     OW84778   3.789   4.367  10.572  0.6798  0.1408 -0.8154
26314SOL    HW184779   3.757   4.442  10.521 -1.7032 -0.5849 -0.5148
26314SOL    HW284780   3.754   4.382  10.660 -1.9234 -2.3831 -1.2641
26315SOL     OW84781  10.138   9.079  11.875  0.0296  0.1753 -0.4683
26315SOL    HW184782  10.096   9.158  11.910 -0.6636 -0.6688  0.6657
26315SOL    HW284783  10.068   9.033  11.830  0.6105  0.5593 -1.8075
26316SOL     OW84784   5.808  12.317   3.906  0.5689  0.0427 -0.4429
26316SOL    HW184785   5.752  12.289   3.834  0.0003  1.8013 -0.7325
26316SOL    HW284786   5.747  12.342   3.976  1.1028 -1.2350  0.5070
26317SOL     OW84787   5.792   8.068  10.574  0.0686  0.0193 -0.0085
26317SOL    HW184788   5.828   8.025  10.496 -0.1283 -0.4957  0.1805
26317SOL    HW284789   5.697   8.058  10.565  0.0463 -0.0413  0.3014
26318SOL     OW84790   5.572   8.834   6.396 -0.2210 -0.0452 -0.3547
26318SOL    HW184791   5.518   8.793   6.463 -0.4824 -0.5987 -0.9001
26318SOL    HW284792   5.569   8.928   6.416  1.3470 -0.3528  1.6066
26319SOL     OW84793   0.099   7.788   8.569  0.2103  0.3530 -0.2165
26319SOL    HW184794   0.082   7.720   8.633  0.9298 -0.7871 -1.1958
26319SOL    HW284795   0.160   7.748   8.507 -0.6212  1.3336 -1.7310
26320SOL     OW84796  10.125   6.075   2.247  0.2799  0.2469 -0.1631
26320SOL    HW184797  10.207   6.059   2.293  0.3091 -0.5305 -0.4702
26320SOL    HW284798  10.083   6.145   2.297  0.6956 -0.0052  0.5565
26321SOL     OW84799   5.506   0.854   6.058  0.0339 -0.2600 -0.0597
26321SOL    HW184800   5.505   0.777   6.002  2.3288 -1.6244  1.6204
26321SOL    HW284801   5.415   0.868   6.082 -0.3883 -2.9114  0.1423
26322SOL     OW84802   2.021   3.556   6.860  1.0147 -0.2337  0.8565
26322SOL    HW184803   2.070   3.631   6.825  0.9816 -0.1601  0.9686
26322SOL    HW284804   2.070   3.531   6.939 -0.1937  1.0429  2.0686
26323SOL     OW84805  10.098   9.535  11.167  0.4007  0.1372  0.4669
26323SOL    HW184806  10.168   9.470  11.159  1.7899  1.5226  0.7898
26323SOL    HW284807  10.079   9.561  11.077  1.2930  0.7410  0.4434
26324SOL     OW84808   9.744   9.677  10.420 -0.1231  0.3937 -0.1824
26324SOL    HW184809   9.719   9.766  10.397 -0.2970  0.5271  0.5028
26324SOL    HW284810   9.718   9.668  10.512 -1.1081 -0.7160 -0.5480
26325SOL     OW84811   5.012  11.566   7.380 -0.2141  0.1862  0.4487
26325SOL    HW184812   5.050  11.562   7.292  0.0120 -0.5294  0.5735
26325SOL    HW284813   4.936  11.507   7.376 -1.3910  1.6508  0.1782
26326SOL     OW84814   5.998   4.458   5.374  0.0525 -0.1010 -0.3552
26326SOL    HW184815   5.980   4.523   5.306  1.6026  1.4251  0.5906
26326SOL    HW284816   5.930   4.474   5.440  0.5296  0.7274 -0.0447
26327SOL     OW84817  10.746  10.020  11.696  0.0186  0.1165 -0.1588
26327SOL    HW184818  10.818   9.957  11.707 -0.9308 -0.7406  1.3982
26327SOL    HW284819  10.765  10.090  11.758 -0.9312 -0.5575  0.9254
26328SOL     OW84820   4.407   4.322   8.080 -0.0676  0.2072 -0.6307
26328SOL    HW184821   4.352   4.243   8.083 -0.6922  0.6442  1.7378
26328SOL    HW284822   4.381   4.366   7.999 -1.2973 -0.9311 -0.9046
26329SOL     OW84823   7.604   0.508   9.207  0.0868  0.1249  0.4741
26329SOL    HW184824   7.621   0.440   9.272 -0.7989  0.4185  1.0270
26329SOL    HW284825   7.512   0.497   9.183 -0.1582  1.3098  0.8009
26330SOL     OW84826   0.375   2.820   2.971  0.1620  0.3800 -0.0161
26330SOL    HW184827   0.328   2.903   2.979  0.2601  0.5357 -0.9806
26330SOL    HW284828   0.307   2.755   2.955 -0.0915 -0.0176  2.2536
26331SOL     OW84829   2.197   6.713   3.630  0.1161 -0.1724 -0.0376
26331SOL    HW184830   2.226   6.774   3.562 -1.3218 -0.0736 -0.5989
26331SOL    HW284831   2.160   6.769   3.698 -0.6735 -0.3746 -0.2895
26332SOL     OW84832   7.786   8.403   3.110 -0.2731  0.2674  0.1329
26332SOL    HW184833   7.741   8.434   3.031 -0.6233 -0.3020  0.1029
26332SOL    HW284834   7.831   8.324   3.082  1.4514  1.2657 -0.0415
26333SOL     OW84835   7.807   2.823  11.496 -0.0524 -0.2263 -0.2137
26333SOL    HW184836   7.838   2.757  11.558  0.3700  0.4997  0.3603
26333SOL    HW284837   7.857   2.806  11.416 -1.2869 -1.7850 -0.7134
26334SOL     OW84838   8.583  10.176   3.421 -0.1535  0.4139  0.0315
26334SOL    HW184839   8.505  10.175   3.366 -0.2737  0.1079  0.2032
26334SOL    HW284840   8.557  10.129   3.500  0.1259  0.5400  0.2001
26335SOL     OW84841   4.190   1.659   0.234  0.3385  0.2999  0.2711
26335SOL    HW184842   4.245   1.734   0.257 -1.6773  1.7531  0.6631
26335SOL    HW284843   4.101   1.694   0.234 -0.4333 -1.2384 -3.1209
26336SOL     OW84844   2.928  12.150  10.421 -0.0376 -0.4804 -0.0556
26336SOL    HW184845   2.945  12.070  10.372  1.3844 -1.1524  1.4561
26336SOL    HW284846   3.010  12.169  10.466 -0.3125  1.8692 -0.3908
26337SOL     OW84847   0.069   3.019   3.964  0.0209  0.2817 -0.1702
26337SOL    HW184848   0.077   2.999   4.057 -0.8322 -1.5632 -0.4388
26337SOL    HW284849   0.025   3.104   3.961 -1.5029 -0.4061  1.1357
26338SOL     OW84850   6.350   8.558  10.886  0.2894 -0.4882  0.4434
26338SOL    HW184851   6.418   8.625  10.885  0.5477 -0.7419 -0.8248
26338SOL    HW284852   6.329   8.547  10.979 -0.7618  2.3456  0.6530
26339SOL     OW84853   8.675   6.078   5.858  0.4433 -0.6517 -0.0621
26339SOL    HW184854   8.743   6.012   5.875  1.2322  0.3355  0.7362
26339SOL    HW284855   8.683   6.097   5.765 -0.0130 -1.8995 -0.3799
26340SOL     OW84856   1.636   8.714   0.496 -0.1611 -0.6615 -0.1760
26340SOL    HW184857   1.603   8.715   0.586 -0.6218 -0.7550 -0.3426
26340SOL    HW284858   1.606   8.631   0.460 -1.1686 -0.0212 -0.8522
26341SOL     OW84859   7.710  10.102   7.771 -0.0128 -0.2870  0.6861
26341SOL    HW184860   7.738  10.111   7.862 -3.9058 -0.8677  2.1368
26341SOL    HW284861   7.646  10.172   7.758 -0.2534 -0.8052 -1.3008
26342SOL     OW84862   7.225  10.538   0.752  0.1514 -0.2242  0.7763
26342SOL    HW184863   7.300  10.478   0.756  2.7486  2.8261  3.0015
26342SOL    HW284864   7.201  10.553   0.844 -1.8165  0.5668  0.1855
26343SOL     OW84865   9.727   6.757   1.028  0.0184 -0.3910 -0.2039
26343SOL    HW184866   9.645   6.751   0.979  0.4854 -1.4338 -0.9165
26343SOL    HW284867   9.721   6.838   1.077 -1.3085 -0.3054 -0.4895
26344SOL     OW84868  11.004  10.108  10.707 -0.1359  0.0297 -0.3352
26344SOL    HW184869  11.079  10.049  10.716 -0.4516 -0.5044 -1.0506
26344SOL    HW284870  11.035  10.191  10.742 -0.3234 -1.0346  2.5978
26345SOL     OW84871   6.768   9.646   0.446 -0.3635 -0.0339 -0.2512
26345SOL    HW184872   6.730   9.670   0.361  0.3569  0.4796 -0.4377
26345SOL    HW284873   6.842   9.589   0.423  0.4035  0.8522 -0.0245
26346SOL     OW84874   6.405   0.400   4.575  0.2749  0.1945 -0.2438
26346SOL    HW184875   6.444   0.382   4.489  0.6897 -1.8827  0.3425
26346SOL    HW284876   6.327   0.345   4.577  0.3822  0.0785  0.8015
26347SOL     OW84877   9.178   8.755   0.570 -0.7693 -0.7497  0.3244
26347SOL    HW184878   9.179   8.721   0.481  2.5935  0.0919 -0.0869
26347SOL    HW284879   9.203   8.681   0.625  0.4872 -0.4826  0.1373
26348SOL     OW84880   6.692   8.601   5.339 -0.1051 -0.2886  0.1109
26348SOL    HW184881   6.738   8.560   5.412  0.8321 -1.4779 -1.0889
26348SOL    HW284882   6.759   8.610   5.271 -1.0085  0.5586 -0.6967
26349SOL     OW84883  12.223  10.847   6.552 -0.3556 -0.1732  0.2545
26349SOL    HW184884  12.296  10.817   6.606  0.0768  0.0765 -0.1828
26349SOL    HW284885  12.159  10.776   6.557  0.6927 -1.2403 -0.8447
26350SOL     OW84886   8.949  10.582   3.254 -0.2622  0.3313  0.1954
26350SOL    HW184887   9.044  10.576   3.253 -0.1524 -0.8879  3.6938
26350SOL    HW284888   8.919  10.495   3.229 -0.4689  0.6474 -0.6763
26351SOL     OW84889   5.162  11.347   0.306 -0.2613  0.3555 -0.3421
26351SOL    HW184890   5.148  11.252   0.306 -2.2985  0.5909 -1.0516
26351SOL    HW284891   5.246  11.360   0.350  0.5332 -1.8328 -1.1092
26352SOL     OW84892   9.577  10.214   9.989 -0.0549  0.7575  0.1379
26352SOL    HW184893   9.656  10.197   9.938 -0.3804 -1.9873  0.4118
26352SOL    HW284894   9.608  10.236  10.076  0.4259  1.6647 -0.2558
26353SOL     OW84895  12.209   2.249  10.297 -0.0679 -0.4016  0.0187
26353SOL    HW184896  12.208   2.344  10.306 -1.4842 -0.4880  1.0038
26353SOL    HW284897  12.228   2.234  10.204 -0.6925  0.8533 -0.3390
26354SOL     OW84898   1.627   7.898  11.594  0.6731  0.5389  0.3225
26354SOL    HW184899   1.707   7.887  11.543  1.0654 -0.0529  1.0404
26354SOL    HW284900   1.578   7.817  11.579 -0.5126  1.5137 -1.3152
26355SOL     OW84901   0.542   6.901   9.620 -0.1363 -0.1923  0.3779
26355SOL    HW184902   0.572   6.810   9.626  0.1010 -0.2511 -1.1679
26355SOL    HW284903   0.501   6.906   9.534 -2.1294  0.6219  1.3186
26356SOL     OW84904  10.509   1.126   4.786 -0.2020 -0.2803  0.2196
26356SOL    HW184905  10.551   1.153   4.868  0.8759 -1.7117  0.1839
26356SOL    HW284906  10.486   1.034   4.800 -0.1732 -0.4936 -0.9989
26357SOL     OW84907   4.167   0.967  11.864  0.0824 -0.5124  0.2735
26357SOL    HW184908   4.107   0.920  11.806 -0.8635  0.9344  0.0470
26357SOL    HW284909   4.132   1.055  11.870  0.8235 -0.2886  2.1148
26358SOL     OW84910  11.188   1.623   9.230  0.0907  0.9411 -0.5460
26358SOL    HW184911  11.212   1.639   9.138 -1.6949  1.8964 -0.8899
26358SOL    HW284912  11.094   1.605   9.227 -0.5892  3.6264  1.3326
26359SOL     OW84913   1.359   4.481   1.927  0.7642 -0.1954  0.0461
26359SOL    HW184914   1.378   4.447   2.015  1.6631 -2.0119 -0.8168
26359SOL    HW284915   1.353   4.404   1.872 -4.2311  0.4672 -0.8133
26360SOL     OW84916   4.277  11.149   6.788  0.2011  0.0022 -0.7805
26360SOL    HW184917   4.219  11.074   6.802  1.4090 -0.7454  0.5287
26360SOL    HW284918   4.305  11.140   6.697 -1.1085 -0.0570 -1.1971
26361SOL     OW84919  11.177  11.623  10.723  0.0964  0.5498 -0.5696
26361SOL    HW184920  11.240  11.660  10.785 -3.0499  0.9129  2.7615
26361SOL    HW284921  11.146  11.698  10.672 -0.2977  1.0743  0.4143
26362SOL     OW84922   4.401   5.571   8.810  0.4331 -0.1193 -0.3934
26362SOL    HW184923   4.377   5.577   8.717  0.8413  0.2109 -0.4819
26362SOL    HW284924   4.427   5.480   8.821 -0.4990 -0.3964 -0.3766
26363SOL     OW84925   2.400   4.568  10.688  0.7103  0.0389  0.0248
26363SOL    HW184926   2.398   4.480  10.651 -0.0332 -0.8371  2.0034
26363SOL    HW284927   2.314   4.579  10.728  1.1258  1.3006  0.6077
26364SOL     OW84928   7.617  10.347  12.303  0.2890  0.0371  0.1128
26364SOL    HW184929   7.544  10.285  12.311  0.5798 -0.1982  1.1795
26364SOL    HW284930   7.588  10.424  12.352  0.6042  0.0797  0.2356
26365SOL     OW84931  11.384   6.207   7.479  0.5327  0.0265 -0.3767
26365SOL    HW184932  11.354   6.120   7.506  0.9535 -0.4331 -1.3235
26365SOL    HW284933  11.324   6.268   7.522 -1.2919 -0.8300 -1.5587
26366SOL     OW84934   2.477   8.930  11.657  0.4783 -0.6670 -0.4193
26366SOL    HW184935   2.541   8.973  11.714 -0.1310 -0.6338  0.2642
26366SOL    HW284936   2.394   8.974  11.678  0.4503  0.2885 -2.3055
26367SOL     OW84937   0.984   2.790   1.765  0.4951 -0.5498 -0.4479
26367SOL    HW184938   1.078   2.798   1.777  0.4855 -0.7313 -0.2654
26367SOL    HW284939   0.946   2.842   1.836  0.4372 -1.7704  0.4475
26368SOL     OW84940   3.154   7.038   4.617 -0.3463 -0.2323  0.0120
26368SOL    HW184941   3.177   7.131   4.614  1.3581 -0.6197  0.2950
26368SOL    HW284942   3.234   6.993   4.591 -0.8894 -1.6642  0.7318
26369SOL     OW84943   2.337   1.238  11.395  0.3770  0.2420  0.1131
26369SOL    HW184944   2.396   1.197  11.457  2.3884 -0.0120 -1.8318
26369SOL    HW284945   2.395   1.279  11.330 -1.5866  1.3607 -1.0445
26370SOL     OW84946   3.800   3.388  10.708 -0.1585  0.6306 -0.2212
26370SOL    HW184947   3.817   3.482  10.710  2.1969  0.3046 -1.4611
26370SOL    HW284948   3.827   3.356  10.794  1.6597  0.7580 -0.7056
26371SOL     OW84949   5.890   7.264   4.069  0.1361 -0.0031  0.1639
26371SOL    HW184950   5.842   7.264   4.151  0.6624 -1.7105  0.5213
26371SOL    HW284951   5.976   7.298   4.091  0.2869 -0.4899  0.3325
26372SOL     OW84952   3.069   8.813   6.298 -0.2903  0.2658  0.0084
26372SOL    HW184953   3.131   8.881   6.324 -0.8462  0.4015  1.0139
26372SOL    HW284954   3.091   8.738   6.353 -1.4996  0.5624  0.9298
26373SOL     OW84955   8.879   0.854   2.669 -0.6088 -0.0315  0.1180
26373SOL    HW184956   8.932   0.902   2.605 -1.7717  2.7298  1.0692
26373SOL    HW284957   8.803   0.824   2.619 -1.1786  1.5183  0.0055
26374SOL     OW84958   9.914   4.683   3.110 -0.1406 -0.1755 -0.4510
26374SOL    HW184959   9.840   4.699   3.168 -1.5048 -0.2551 -2.0972
26374SOL    HW284960   9.955   4.769   3.097 -0.4033 -0.0049 -0.1337
26375SOL     OW84961   3.017   3.297   3.709 -0.5040  0.4522  0.1479
26375SOL    HW184962   3.043   3.359   3.640 -1.2117  0.9338  0.3023
26375SOL    HW284963   3.030   3.345   3.791  0.2430 -0.0872  0.3512
26376SOL     OW84964  10.441   9.614   0.052  0.1561  0.2912 -0.2709
26376SOL    HW184965  10.465   9.562  -0.025 -1.8661  1.0198 -1.4619
26376SOL    HW284966  10.523   9.654   0.081  1.1121 -0.7189 -1.4777
26377SOL     OW84967   5.759   4.417   4.540 -0.1948  0.1648  0.0997
26377SOL    HW184968   5.763   4.505   4.502 -1.9300 -0.0786 -0.7490
26377SOL    HW284969   5.846   4.381   4.526 -0.1684  0.8551 -1.8051
26378SOL     OW84970  10.882   0.323   1.930  0.4078 -0.0264 -0.1497
26378SOL    HW184971  10.952   0.285   1.878 -0.4450 -1.3729 -0.3737
26378SOL    HW284972  10.905   0.415   1.939  1.5869 -0.2005 -1.2065
26379SOL     OW84973   3.163  10.008   9.582  0.0134  0.0230  0.6699
26379SOL    HW184974   3.090  10.054   9.540  1.2838  0.6948 -0.9275
26379SOL    HW284975   3.181   9.933   9.525 -0.9778 -1.6093  2.3792
26380SOL     OW84976   4.388  10.349  11.517 -0.4801 -0.0945 -0.2306
26380SOL    HW184977   4.299  10.360  11.548 -0.6148  0.1448 -0.6909
26380SOL    HW284978   4.389  10.263  11.475 -1.1011  0.7814 -2.1848
26381SOL     OW84979  12.038   2.049  11.783  0.2218  0.4184  0.3758
26381SOL    HW184980  11.992   2.126  11.750 -0.3464  0.1335  0.4867
26381SOL    HW284981  12.098   2.084  11.849  0.3708  0.8291  0.0221
26382SOL     OW84982   1.608   7.581   2.809 -0.0824  0.3362  0.1414
26382SOL    HW184983   1.632   7.674   2.808  0.2685  0.2515 -1.2973
26382SOL    HW284984   1.523   7.578   2.765 -0.9424  0.1584  1.7345
26383SOL     OW84985  10.759   5.605   4.952 -0.4576  0.1270 -0.0340
26383SOL    HW184986  10.764   5.515   4.920 -1.2063  0.5242 -1.3662
26383SOL    HW284987  10.748   5.658   4.873 -1.6080  1.2466  0.8300
26384SOL     OW84988   6.669   4.711   8.376 -0.4477 -0.0372 -0.0784
26384SOL    HW184989   6.733   4.776   8.346  2.0094 -0.7810  3.0121
26384SOL    HW284990   6.687   4.634   8.321  1.2218 -0.1450  0.5493
26385SOL     OW84991  10.073   7.793  11.335  0.2366 -0.5286 -0.0466
26385SOL    HW184992  10.032   7.770  11.418  2.5535  0.5303  1.4841
26385SOL    HW284993  10.137   7.724  11.321  0.8702  0.0816 -0.1894
26386SOL     OW84994   8.049   4.654   5.569 -0.2222 -0.9250  0.3198
26386SOL    HW184995   8.140   4.669   5.545 -0.3295  2.7293  1.5689
26386SOL    HW284996   7.999   4.676   5.490 -0.1024 -1.3775  0.1153
26387SOL     OW84997   0.423   1.585   5.121 -0.1930  0.1762 -0.1629
26387SOL    HW184998   0.420   1.679   5.136  0.8597  0.3603 -0.9957
26387SOL    HW284999   0.341   1.565   5.076 -0.3092  0.7446 -0.2070
26388SOL     OW85000   8.092   6.625   2.132  0.0913 -0.6516 -0.4112
26388SOL    HW185001   8.081   6.556   2.067 -1.4205  0.4154 -1.3708
26388SOL    HW285002   8.054   6.703   2.091  2.5138  1.0129  0.2615
26389SOL     OW85003   2.264   7.016   9.405 -0.0693 -0.1756 -0.2556
26389SOL    HW185004   2.200   7.017   9.333  1.7466  0.3876 -1.9666
26389SOL    HW285005   2.270   7.107   9.433 -1.4463 -0.5260  1.3144
26390SOL     OW85006   5.108   2.770   5.845 -0.6440  0.8577 -0.2292
26390SOL    HW185007   5.177   2.777   5.910  0.8623 -1.4608 -1.4362
26390SOL    HW285008   5.124   2.842   5.784  1.4963 -0.2507 -1.0921
26391SOL     OW85009   3.746   8.733   3.917 -0.1191  0.2118 -0.4143
26391SOL    HW185010   3.768   8.814   3.871  0.0568 -0.5871 -1.7979
26391SOL    HW285011   3.784   8.663   3.863 -1.7153 -0.9007 -0.1835
26392SOL     OW85012  10.821   8.170   1.045 -0.3274  0.0796  0.5633
26392SOL    HW185013  10.916   8.159   1.033 -0.2010  0.9488  0.7264
26392SOL    HW285014  10.812   8.258   1.082 -1.1360 -0.3586  1.4172
26393SOL     OW85015  10.985   2.053   3.657 -0.1858 -0.3452  0.1261
26393SOL    HW185016  10.926   2.114   3.613 -0.3228  0.3677  1.2386
26393SOL    HW285017  11.010   1.990   3.590 -2.2176 -0.6661 -0.3764
26394SOL     OW85018  12.326   5.678   3.162 -0.2570 -0.8715  0.3741
26394SOL    HW185019  12.409   5.726   3.171  0.7705 -2.6023  0.6406
26394SOL    HW285020  12.260   5.738   3.197  0.8899  0.4832  0.3387
26395SOL     OW85021  11.217   6.564   0.495  0.4349  0.5271 -0.4909
26395SOL    HW185022  11.208   6.472   0.523  0.3154  0.8948  0.7651
26395SOL    HW285023  11.240   6.559   0.402  0.3371 -0.7721 -0.4671
26396SOL     OW85024   8.076   4.985   8.650 -0.2613 -0.4806 -0.1040
26396SOL    HW185025   8.042   4.914   8.595  1.2219 -1.4003  0.1121
26396SOL    HW285026   8.095   5.056   8.588  1.1282 -1.4000 -0.7762
26397SOL     OW85027   7.636  11.092   2.602  0.3383 -0.0494  0.0020
26397SOL    HW185028   7.633  11.186   2.581  1.9424 -0.0082 -0.1717
26397SOL    HW285029   7.564  11.080   2.664 -0.4157  1.1193 -0.5876
26398SOL     OW85030   7.839   8.415  10.322  0.5393 -0.4277  0.4788
26398SOL    HW185031   7.802   8.417  10.410  0.1236  1.3080  0.3028
26398SOL    HW285032   7.864   8.324  10.308 -1.2787 -1.1615  1.6101
26399SOL     OW85033   1.280   5.272   7.436 -0.0879  0.0097 -0.5734
26399SOL    HW185034   1.229   5.212   7.382  0.0278  0.0260 -0.7003
26399SOL    HW285035   1.234   5.356   7.427 -0.7515 -0.2438  0.2876
26400SOL     OW85036   7.316   2.319   1.959  0.5057 -0.0805 -0.4873
26400SOL    HW185037   7.385   2.254   1.946 -0.1022 -0.5216 -1.6269
26400SOL    HW285038   7.237   2.267   1.973 -0.2775  0.3247 -2.8934
26401SOL     OW85039  11.902  11.682   9.293 -0.4856  0.6309 -0.0956
26401SOL    HW185040  11.938  11.654   9.377 -1.0965 -1.6633 -0.5395
26401SOL    HW285041  11.952  11.634   9.228 -0.9354  1.3339 -0.9836
26402SOL     OW85042   6.296   1.403   4.115 -0.8717 -0.2288 -0.0544
26402SOL    HW185043   6.206   1.428   4.095 -1.3120 -1.2663  0.5674
26402SOL    HW285044   6.345   1.486   4.113 -2.1954  0.6515  1.5889
26403SOL     OW85045  10.520   3.091   8.106 -0.2196 -0.5312  0.0472
26403SOL    HW185046  10.491   3.028   8.039  1.2835 -3.5354  1.9778
26403SOL    HW285047  10.467   3.070   8.183  0.8481  0.0017  0.9619
26404SOL     OW85048   5.296   0.508   1.757  0.1740  0.5739  0.4998
26404SOL    HW185049   5.282   0.524   1.851 -0.0723  0.8324  0.4198
26404SOL    HW285050   5.229   0.444   1.733  1.0342 -0.4530  0.7757
26405SOL     OW85051  10.745   9.973   5.629  0.1425  0.4478 -0.3485
26405SOL    HW185052  10.674   9.973   5.694  0.7071  0.3596  0.2706
26405SOL    HW285053  10.758  10.065   5.608  0.5274  0.5446  0.2941
26406SOL     OW85054  11.103   4.818   2.536  0.3559 -0.3624  0.0209
26406SOL    HW185055  11.034   4.799   2.601  1.6912 -2.6077  0.9064
26406SOL    HW285056  11.155   4.887   2.576 -2.0031  2.3783 -1.2428
26407SOL     OW85057   2.120   3.053   4.775  0.0135  0.1200  0.2016
26407SOL    HW185058   2.052   2.995   4.809  0.5442  0.8175  2.6813
26407SOL    HW285059   2.072   3.118   4.723 -0.8711 -0.9973 -0.4155
26408SOL     OW85060   5.399   8.669   7.725 -0.1113 -0.3931 -0.0306
26408SOL    HW185061   5.450   8.642   7.801  1.0722 -0.4020 -0.8105
26408SOL    HW285062   5.311   8.636   7.743  0.6889 -2.5950  0.2392
26409SOL     OW85063  10.880   7.834   4.917 -1.1118 -0.2616 -0.5548
26409SOL    HW185064  10.828   7.911   4.940 -1.4930 -0.4447 -0.7922
26409SOL    HW285065  10.930   7.861   4.840 -1.1909 -0.2277 -0.5940
26410SOL     OW85066   9.241   9.675   4.699 -0.0686  0.4856 -0.4241
26410SOL    HW185067   9.258   9.601   4.759  1.1817 -0.4208 -1.8252
26410SOL    HW285068   9.146   9.689   4.705 -0.6726 -2.3782 -1.3316
26411SOL     OW85069   2.113   9.552   6.258 -0.3980  0.1061  0.3770
26411SOL    HW185070   2.103   9.644   6.234  0.9756  0.2003  0.0660
26411SOL    HW285071   2.087   9.504   6.180  2.1931  0.3643 -0.7649
26412SOL     OW85072   8.035   7.403   6.381 -0.1197 -0.0684 -0.6063
26412SOL    HW185073   7.973   7.358   6.438  0.1422 -1.1600 -1.1525
26412SOL    HW285074   7.980   7.443   6.314 -0.4762  1.6600  0.6573
26413SOL     OW85075   0.180  11.511   4.178 -0.3747 -0.1201  0.3548
26413SOL    HW185076   0.124  11.588   4.193  0.5540  0.3872  1.3992
26413SOL    HW285077   0.263  11.548   4.150  0.0873 -0.7368  0.8855
26414SOL     OW85078   0.073   0.079   6.362 -0.6842  0.1881 -0.5247
26414SOL    HW185079   0.128   0.075   6.440 -2.0856 -0.3950  0.4815
26414SOL    HW285080  -0.013   0.105   6.395 -1.2376  0.2163 -1.9251
26415SOL     OW85081   1.422  10.740   8.201 -0.0333  0.4306 -0.6353
26415SOL    HW185082   1.376  10.748   8.285 -1.4761  0.5030 -1.4072
26415SOL    HW285083   1.493  10.805   8.206  0.5054 -0.2232  0.8837
26416SOL     OW85084   5.941   3.477   8.851 -0.0726 -0.2254 -0.4840
26416SOL    HW185085   5.862   3.434   8.819  0.0493 -0.1841 -0.8388
26416SOL    HW285086   6.006   3.463   8.783  0.2884 -0.4340 -0.0994
26417SOL     OW85087   7.953  11.188   9.195  0.3212  0.1457 -0.0720
26417SOL    HW185088   7.884  11.250   9.169 -1.1055 -0.7874  1.2896
26417SOL    HW285089   7.921  11.103   9.163  0.9080 -0.2744  0.4504
26418SOL     OW85090   4.549   4.900   0.822 -0.8498  0.0655  0.1595
26418SOL    HW185091   4.522   4.965   0.887 -1.7912  0.5888 -0.7288
26418SOL    HW285092   4.523   4.937   0.738 -0.4290 -0.9857 -0.4596
26419SOL     OW85093   6.076   3.618   3.521  0.6605  0.8120 -0.4152
26419SOL    HW185094   6.039   3.615   3.610 -0.0694 -0.3829 -0.7408
26419SOL    HW285095   6.159   3.571   3.528 -0.5212 -1.4808 -0.8344
26420SOL     OW85096   2.716   5.255   4.777  0.1215 -0.1286  0.5069
26420SOL    HW185097   2.732   5.206   4.696  1.8215  0.4786  0.4366
26420SOL    HW285098   2.621   5.252   4.788  0.0415 -2.1082 -0.3052
26421SOL     OW85099   5.313  11.887   7.253 -0.1998 -0.5147  1.2100
26421SOL    HW185100   5.404  11.862   7.264 -0.3616 -2.1628 -0.5881
26421SOL    HW285101   5.315  11.958   7.188 -0.2591 -1.9044 -0.3835
26422SOL     OW85102   0.406   5.735   0.529  0.2960  0.4008  0.1922
26422SOL    HW185103   0.354   5.704   0.603 -0.4247  0.8155 -0.1183
26422SOL    HW285104   0.497   5.726   0.557  0.0863 -0.9332  0.5205
26423SOL     OW85105   3.463   3.534   9.676  0.4522  0.3855 -0.0240
26423SOL    HW185106   3.557   3.524   9.687  0.3406 -1.0975 -0.2073
26423SOL    HW285107   3.429   3.538   9.766  0.6866  0.9018  0.0429
26424SOL     OW85108   5.890   6.594   6.410  0.6610 -0.7352  0.0308
26424SOL    HW185109   5.805   6.631   6.387  1.8567  2.3993  0.0556
26424SOL    HW285110   5.924   6.560   6.327  0.5413  0.6739 -0.6269
26425SOL     OW85111   0.218  10.295  10.966  0.3293 -0.0947 -0.1066
26425SOL    HW185112   0.218  10.203  10.993  0.5572  0.1617  0.8075
26425SOL    HW285113   0.294  10.332  11.012  0.9346  0.2881 -1.3906
26426SOL     OW85114   3.081   3.124   3.215  0.2681 -0.8608 -0.3027
26426SOL    HW185115   3.019   3.144   3.285  2.3875 -2.9443  2.3859
26426SOL    HW285116   3.153   3.187   3.228 -1.0174  1.5133 -3.3591
26427SOL     OW85117   6.065   6.287   5.638 -0.2912  0.0870  0.6447
26427SOL    HW185118   6.115   6.244   5.707 -0.5346 -1.1583  0.0726
26427SOL    HW285119   6.080   6.380   5.652 -0.6419 -0.1050  2.6013
26428SOL     OW85120   9.006   1.624   9.458 -0.0275  0.2921  0.2567
26428SOL    HW185121   9.045   1.711   9.452  0.7370 -0.0952 -0.7213
26428SOL    HW285122   8.963   1.622   9.543  1.0762  1.1691  0.8523
26429SOL     OW85123   3.745   5.908   4.727  0.2773  0.5186  0.5505
26429SOL    HW185124   3.657   5.886   4.757  0.2888  1.0986  1.0245
26429SOL    HW285125   3.734   5.935   4.636  0.1797 -0.8606  0.1320
26430SOL     OW85126   5.653   6.216   6.097 -0.4123  0.2265 -0.1147
26430SOL    HW185127   5.695   6.181   6.175 -1.6740 -1.0905  0.0159
26430SOL    HW285128   5.574   6.261   6.129 -2.6496 -2.9064 -0.6961
26431SOL     OW85129   6.153   4.839   4.764  0.1643  0.7202 -0.0623
26431SOL    HW185130   6.114   4.877   4.685  0.1581  1.0722  0.1084
26431SOL    HW285131   6.210   4.770   4.732 -0.3620  0.4039 -0.3379
26432SOL     OW85132   7.522   5.647   7.086 -0.4455  0.0352  0.3367
26432SOL    HW185133   7.434   5.683   7.096 -0.9208 -0.5135 -1.5785
26432SOL    HW285134   7.509   5.552   7.078  0.1654  0.0538 -1.2595
26433SOL     OW85135   4.779  10.428   3.806  0.3267  0.3663  0.4311
26433SOL    HW185136   4.812  10.338   3.812 -0.6382 -0.0413 -0.2650
26433SOL    HW285137   4.796  10.453   3.716  0.0952  0.7000  0.4814
26434SOL     OW85138   4.496   9.607  12.302 -0.2327  0.2105  0.2274
26434SOL    HW185139   4.562   9.665  12.263  2.2137 -1.3685  1.7489
26434SOL    HW285140   4.420   9.663  12.316  0.9587  2.2810 -1.0970
26435SOL     OW85141   0.391   0.958  10.837 -0.0257 -0.3608  0.2509
26435SOL    HW185142   0.307   0.994  10.868  0.6162 -0.1743  1.9111
26435SOL    HW285143   0.421   1.021  10.772 -1.3050 -0.5843 -0.5874
26436SOL     OW85144  10.669   6.162   9.688  0.9125  0.1987  0.1614
26436SOL    HW185145  10.644   6.129   9.774 -0.7753 -0.4103 -0.5197
26436SOL    HW285146  10.659   6.257   9.696 -0.3053  0.0699  0.3382
26437SOL     OW85147   3.844   5.833   0.681 -0.2141 -0.1362 -0.2777
26437SOL    HW185148   3.889   5.823   0.765 -0.0270 -3.0028 -0.6289
26437SOL    HW285149   3.913   5.855   0.619  0.1511 -0.9323 -0.1704
26438SOL     OW85150   0.260   1.943   6.481 -0.3557 -0.2062 -0.7009
26438SOL    HW185151   0.229   1.874   6.541 -0.0645  0.2521 -0.0181
26438SOL    HW285152   0.328   1.989   6.530  1.2302 -0.9885 -2.0554
26439SOL     OW85153  10.074   0.327  11.351  0.1803  0.5028  0.3575
26439SOL    HW185154  10.032   0.306  11.267  1.1337 -0.8130  0.1745
26439SOL    HW285155  10.128   0.250  11.370  1.4049  1.5495  1.2752
26440SOL     OW85156   1.315  11.908   6.005  0.1637  0.4229 -0.3796
26440SOL    HW185157   1.260  11.841   5.966  0.6476  0.8377 -1.8297
26440SOL    HW285158   1.404  11.885   5.979  0.1908  2.6823 -2.6914
26441SOL     OW85159   9.751   8.329   0.644  0.5104  0.5737 -0.1019
26441SOL    HW185160   9.831   8.374   0.672  1.1138  0.1064 -1.0397
26441SOL    HW285161   9.779   8.239   0.629 -0.6583 -0.1323  1.6463
26442SOL     OW85162   0.555   9.018   5.124  0.0687 -0.7836 -0.0977
26442SOL    HW185163   0.576   9.087   5.187 -2.8488 -0.5919  0.7944
26442SOL    HW285164   0.593   9.048   5.041  2.2657 -0.0828  1.0948
26443SOL     OW85165  12.134  10.547   1.397 -0.1790 -0.5171  0.2157
26443SOL    HW185166  12.132  10.500   1.314 -0.6466 -3.3157  1.6916
26443SOL    HW285167  12.066  10.613   1.389  0.2745 -0.2202 -1.8467
26444SOL     OW85168  12.295   6.671   1.932  0.2189  0.0861 -0.4108
26444SOL    HW185169  12.252   6.751   1.903 -1.1812 -0.9144 -1.2283
26444SOL    HW285170  12.344   6.697   2.010 -0.6221  1.6220 -0.3579
26445SOL     OW85171  10.481   0.678   7.890  0.2222  0.1444 -0.2048
26445SOL    HW185172  10.404   0.627   7.866  0.1897 -0.0155  0.2130
26445SOL    HW285173  10.447   0.762   7.919  0.1519 -0.1070  0.4769
26446SOL     OW85174   9.711   1.008   7.286 -0.2556 -0.0060 -0.0007
26446SOL    HW185175   9.796   1.050   7.288 -0.6460  0.7726  0.7981
26446SOL    HW285176   9.713   0.945   7.358 -0.0118 -0.7092 -0.6057
26447SOL     OW85177   9.297   7.983   7.035 -0.6056  0.2796 -0.0749
26447SOL    HW185178   9.353   8.056   7.009 -0.1562 -0.1224 -0.2551
26447SOL    HW285179   9.341   7.945   7.111 -1.3173  0.7500  0.5956
26448SOL     OW85180   0.768   0.617   3.189  0.2629  0.0777 -0.3493
26448SOL    HW185181   0.720   0.673   3.249 -0.5836 -0.7222 -0.2585
26448SOL    HW285182   0.846   0.591   3.238 -0.2520 -0.2944  0.2957
26449SOL     OW85183   2.365   9.859   3.875 -0.3073 -0.2656 -0.7765
26449SOL    HW185184   2.343   9.855   3.968 -1.3981  1.7814 -0.9017
26449SOL    HW285185   2.330   9.777   3.839 -0.5421 -0.7348  0.4565
26450SOL     OW85186   6.247   8.274   0.298  0.4571 -0.1919  0.0956
26450SOL    HW185187   6.322   8.333   0.304 -0.3805  0.8824  0.3396
26450SOL    HW285188   6.232   8.245   0.388  0.9012 -0.8551 -0.0309
26451SOL     OW85189   3.789  10.066   0.670 -0.3788 -0.2045  0.2116
26451SOL    HW185190   3.871  10.092   0.627 -0.4947 -0.6218 -0.2593
26451SOL    HW285191   3.724  10.129   0.639 -0.3491 -0.1844  0.1910
26452SOL     OW85192  11.272   8.100   7.266  0.3364  0.6013  0.5467
26452SOL    HW185193  11.271   8.174   7.205 -0.3276 -0.4656 -0.7927
26452SOL    HW285194  11.290   8.139   7.352  0.0368  2.2922 -0.1322
26453SOL     OW85195  10.505   3.431   4.623  0.6736 -0.5526  0.1030
26453SOL    HW185196  10.454   3.512   4.624 -0.1750 -1.0525 -0.7790
26453SOL    HW285197  10.580   3.451   4.567  1.0479 -0.0491  0.7731
26454SOL     OW85198   6.929  12.084  10.740 -0.3100  0.7146 -0.8733
26454SOL    HW185199   6.972  12.162  10.706 -1.2881  1.3761 -0.6221
26454SOL    HW285200   6.891  12.042  10.663 -0.4456  0.9021 -0.9082
26455SOL     OW85201   0.460   6.096   1.412  0.3670 -0.0390  0.6199
26455SOL    HW185202   0.427   6.103   1.502 -0.2852 -1.9292  0.5614
26455SOL    HW285203   0.383   6.104   1.357  0.0525 -3.1877  0.4353
26456SOL     OW85204  11.202   4.840   5.451  0.3396  0.6755 -0.0334
26456SOL    HW185205  11.252   4.911   5.412  0.3587 -0.0070 -1.2950
26456SOL    HW285206  11.152   4.803   5.378 -2.4759  1.6745  1.2140
26457SOL     OW85207  11.004  11.194   0.243  0.3744 -0.5284  0.0183
26457SOL    HW185208  11.052  11.226   0.167 -1.3177  0.0318 -0.8499
26457SOL    HW285209  11.025  11.101   0.248  0.8422 -0.4751 -0.8635
26458SOL     OW85210  11.557   1.809  11.546 -0.0936  0.8354  0.1285
26458SOL    HW185211  11.563   1.804  11.450 -1.5749 -0.2654  0.0714
26458SOL    HW285212  11.637   1.767  11.577 -0.8604 -1.2893 -0.6382
26459SOL     OW85213   5.063   1.152   5.522 -0.2684  0.0588 -0.8532
26459SOL    HW185214   5.022   1.238   5.529  0.6521  0.4827 -0.3156
26459SOL    HW285215   5.015   1.097   5.584 -1.5997 -0.1407 -2.0339
26460SOL     OW85216   1.173   2.838   9.851  0.3734  0.2723  0.7416
26460SOL    HW185217   1.216   2.834   9.936 -0.2236  1.5343  1.1295
26460SOL    HW285218   1.229   2.895   9.799 -0.1726  0.9232  0.8572
26461SOL     OW85219   7.987  12.143   5.172  0.5045  0.3832 -0.0544
26461SOL    HW185220   7.897  12.150   5.204  0.0851 -0.1956 -1.0599
26461SOL    HW285221   8.004  12.228   5.130  1.0101  1.0928  1.5422
26462SOL     OW85222   7.746   1.429  11.660  0.2112 -0.4181  0.6716
26462SOL    HW185223   7.770   1.357  11.717 -0.9318 -2.4036 -1.1862
26462SOL    HW285224   7.667   1.398  11.615  1.1673  0.8916 -2.1242
26463SOL     OW85225   2.244   6.504   3.247  0.5457 -0.2715  0.3378
26463SOL    HW185226   2.230   6.416   3.213 -0.5209 -0.4389  1.1863
26463SOL    HW285227   2.244   6.560   3.169 -1.5634 -0.6834 -0.0154
26464SOL     OW85228   0.462   6.246   0.488 -0.2899  0.2148  0.1944
26464SOL    HW185229   0.488   6.222   0.577 -1.3519 -1.0321  0.2089
26464SOL    HW285230   0.536   6.297   0.454  0.0208  0.9245  1.8625
26465SOL     OW85231   6.348  12.178  12.076  0.0149  1.0195 -0.7630
26465SOL    HW185232   6.287  12.187  12.003 -0.4106 -0.4494 -0.6203
26465SOL    HW285233   6.356  12.266  12.112 -1.4195  1.3684 -1.2636
26466SOL     OW85234  10.994   7.439   0.962  0.3049  0.2723  0.0911
26466SOL    HW185235  11.042   7.495   0.901  0.4803 -0.6710 -0.6535
26466SOL    HW285236  10.972   7.361   0.911 -0.8308  0.0976  0.8114
26467SOL     OW85237   6.962   0.833   7.000 -0.2959  0.5726 -0.2473
26467SOL    HW185238   6.944   0.815   7.092  0.6481  1.3569  0.1076
26467SOL    HW285239   7.040   0.888   7.001 -1.1095  1.8163 -1.4453
26468SOL     OW85240   7.272   1.948  10.638  0.0572  0.5440  0.2766
26468SOL    HW185241   7.269   1.853  10.646 -0.8364  0.4441 -0.9200
26468SOL    HW285242   7.212   1.979  10.707 -0.7802  0.1559 -0.2561
26469SOL     OW85243   3.276   1.024   7.811 -0.0398  0.2009 -0.1353
26469SOL    HW185244   3.229   1.064   7.737 -0.1614 -1.0787 -0.7762
26469SOL    HW285245   3.303   0.938   7.779  2.8731  0.8956  0.1709
26470SOL     OW85246   3.738   0.812   0.726 -0.0000  0.0410  0.0387
26470SOL    HW185247   3.758   0.737   0.670 -0.0081  0.4638 -0.5271
26470SOL    HW285248   3.741   0.776   0.815  0.8003 -0.4610 -0.1768
26471SOL     OW85249   2.130   3.536  10.161  0.3916  0.1749 -0.1034
26471SOL    HW185250   2.047   3.576  10.186 -0.1649 -2.1582  2.2027
26471SOL    HW285251   2.109   3.480  10.086  0.6180  1.9119 -1.5433
26472SOL     OW85252   0.577   4.395   0.020  0.3644  0.4662 -0.2211
26472SOL    HW185253   0.542   4.471   0.065 -0.3345  0.3682 -0.5851
26472SOL    HW285254   0.569   4.416  -0.073  0.6828  0.1728 -0.3195
26473SOL     OW85255   0.650   2.060   1.955  0.1461 -0.7088 -0.1796
26473SOL    HW185256   0.602   2.115   1.893  0.1296 -0.5058  0.0175
26473SOL    HW285257   0.737   2.099   1.960  0.5631 -1.4517 -1.0468
26474SOL     OW85258   1.863  10.840   7.708 -0.2768  0.4837  0.0916
26474SOL    HW185259   1.945  10.806   7.671 -0.6641  0.1991 -0.5171
26474SOL    HW285260   1.836  10.773   7.771 -1.0983 -0.4313 -1.1861
26475SOL     OW85261   0.796   8.754  11.224  0.7253  0.6601 -0.1429
26475SOL    HW185262   0.731   8.760  11.154  1.2596  1.2996 -0.5987
26475SOL    HW285263   0.745   8.735  11.303  0.1298 -0.2025 -0.7206
26476SOL     OW85264   9.802  10.630   3.769  0.0971 -0.4535 -0.2115
26476SOL    HW185265   9.707  10.626   3.777 -0.1187  0.8135 -1.5525
26476SOL    HW285266   9.834  10.637   3.859 -1.0464 -1.2265  0.2693
26477SOL     OW85267  10.927   7.918  12.143 -0.1743 -0.1648 -0.2346
26477SOL    HW185268  10.833   7.933  12.152 -0.4926 -1.7368 -0.7451
26477SOL    HW285269  10.934   7.834  12.098  1.4843 -0.6432  0.8510
26478SOL     OW85270   4.566  10.410   7.878  0.3914 -0.5091  0.0291
26478SOL    HW185271   4.647  10.359   7.879  2.2525  2.1640  1.4300
26478SOL    HW285272   4.575  10.467   7.802  0.0949  0.1545  0.4780
26479SOL     OW85273   4.671  11.278  10.827  0.4882  0.4160  0.8218
26479SOL    HW185274   4.585  11.240  10.840  0.2649  0.7570  0.3437
26479SOL    HW285275   4.718  11.259  10.909  0.2989 -0.6462  0.6975
26480SOL     OW85276   5.682   8.509   9.840 -0.8102 -0.2207  0.4439
26480SOL    HW185277   5.609   8.473   9.789 -0.3186  1.6070 -1.6816
26480SOL    HW285278   5.756   8.509   9.779  0.1564  0.8364  1.5704
26481SOL     OW85279   6.102   5.511   2.259  0.0195  0.4910  0.1422
26481SOL    HW185280   6.141   5.577   2.316  0.4947  0.6659 -0.3752
26481SOL    HW285281   6.089   5.435   2.316  0.6070  0.6164  0.4522
26482SOL     OW85282   6.887   7.413  10.260  0.6202 -0.1589  0.2084
26482SOL    HW185283   6.888   7.369  10.175  1.8050 -0.1705  0.2063
26482SOL    HW285284   6.920   7.347  10.321  2.3556  0.6698  0.2141
26483SOL     OW85285   5.933  11.017   8.887  0.0787  0.5296  0.7209
26483SOL    HW185286   5.898  10.949   8.944  0.5490  0.0577  0.4538
26483SOL    HW285287   5.857  11.070   8.863 -0.6640 -1.0699 -0.6688
26484SOL     OW85288   7.870   4.152   1.048 -0.3209 -0.6306 -0.1086
26484SOL    HW185289   7.807   4.090   1.085 -1.6335  1.3303  1.1924
26484SOL    HW285290   7.834   4.174   0.962 -0.8113 -0.3892  0.1508
26485SOL     OW85291   7.822  11.340   2.134  0.3028 -0.5597 -0.6092
26485SOL    HW185292   7.798  11.343   2.041 -0.1502 -0.4964 -0.4975
26485SOL    HW285293   7.824  11.432   2.160  0.6076 -0.5701 -0.6016
26486SOL     OW85294  10.478   0.259   2.539 -0.5445 -0.4127  0.1202
26486SOL    HW185295  10.525   0.208   2.473  0.0513 -0.1599  0.3503
26486SOL    HW285296  10.454   0.195   2.606  0.2625 -0.3859  0.4419
26487SOL     OW85297   6.278  10.083   4.094  0.0324  0.1897 -0.0675
26487SOL    HW185298   6.186  10.106   4.078 -0.6539 -1.3981  1.3661
26487SOL    HW285299   6.287  10.086   4.189  1.5634  0.5609 -0.1948
26488SOL     OW85300   8.522   8.007   3.752 -0.1756 -0.1216 -0.2790
26488SOL    HW185301   8.554   7.939   3.812  0.1346  0.8160  0.6608
26488SOL    HW285302   8.522   7.966   3.666  1.3439 -0.8854  0.0571
26489SOL     OW85303   3.963   9.123  11.844  0.3513 -0.1713  0.1102
26489SOL    HW185304   3.980   9.044  11.794  1.9760  0.7019 -0.7919
26489SOL    HW285305   4.036   9.182  11.822  1.2080  0.2534  3.5440
26490SOL     OW85306   8.396  10.699   0.745 -0.7816  0.0407  0.2418
26490SOL    HW185307   8.376  10.622   0.692 -0.9060  1.2245 -1.4857
26490SOL    HW285308   8.390  10.773   0.685  0.0607  1.3506  1.6833
26491SOL     OW85309   1.552   2.346   5.568 -0.4126  0.4169 -0.2312
26491SOL    HW185310   1.484   2.298   5.617  0.4967 -0.0444  0.6047
26491SOL    HW285311   1.632   2.296   5.582  0.0723  0.8441 -1.3846
26492SOL     OW85312   4.630   2.881   5.946  0.3599  0.4932  0.3642
26492SOL    HW185313   4.554   2.854   5.894  1.7627  0.0807 -1.6208
26492SOL    HW285314   4.628   2.977   5.943  0.1756  0.4783 -0.1131
26493SOL     OW85315   9.547   0.316   2.455 -0.4134  0.2542  0.0061
26493SOL    HW185316   9.618   0.252   2.447  1.0225  1.5570  1.4383
26493SOL    HW285317   9.477   0.268   2.499  0.0659 -0.7207 -0.2449
26494SOL     OW85318   4.433   7.852   9.406 -0.1805  0.2223  0.1008
26494SOL    HW185319   4.520   7.824   9.431  0.0011  2.7223  2.7314
26494SOL    HW285320   4.434   7.849   9.310  2.8673  0.4019  0.0297
26495SOL     OW85321   7.096   7.518   1.965  0.4863 -0.3726 -0.3517
26495SOL    HW185322   7.127   7.488   2.050 -0.1292  0.7243  0.2816
26495SOL    HW285323   7.165   7.575   1.933  0.0618  0.4132  0.1104
26496SOL     OW85324   0.669  10.177   1.327  0.2874 -0.1345 -0.2619
26496SOL    HW185325   0.742  10.236   1.348  0.0858  0.5181 -1.3290
26496SOL    HW285326   0.711  10.100   1.289  0.5733 -0.8364  1.4133
26497SOL     OW85327   6.796   0.481   3.620  0.1953  0.1674  0.2481
26497SOL    HW185328   6.858   0.483   3.547  0.2927 -1.0661  0.2843
26497SOL    HW285329   6.715   0.449   3.583  0.5974 -1.7468  0.8946
26498SOL     OW85330   9.780   9.939   1.796  0.3937  0.1191  0.1477
26498SOL    HW185331   9.763  10.008   1.732 -0.6612 -0.0467  0.2204
26498SOL    HW285332   9.789   9.859   1.744  1.0481  0.2143  0.1054
26499SOL     OW85333   1.173   2.043   7.401 -0.1373  0.2598 -0.1327
26499SOL    HW185334   1.262   2.022   7.429 -0.7391 -1.5113  0.5681
26499SOL    HW285335   1.185   2.107   7.331  1.6929 -0.0238 -0.1327
26500SOL     OW85336   7.048   5.651   7.316 -0.6026 -0.0656 -0.1296
26500SOL    HW185337   7.012   5.738   7.334  0.6660  0.2079  1.4074
26500SOL    HW285338   7.122   5.644   7.377 -1.8637 -3.0009  1.2246
26501SOL     OW85339   1.355   6.256   4.191 -0.1650 -0.8099  0.2426
26501SOL    HW185340   1.420   6.287   4.128 -0.6057  0.3646  0.3368
26501SOL    HW285341   1.365   6.313   4.267 -1.7845 -0.0937 -0.0290
26502SOL     OW85342   3.991   0.322   7.265 -0.2171  0.1771  0.1005
26502SOL    HW185343   3.949   0.390   7.319  1.1722  2.5054 -1.5809
26502SOL    HW285344   4.078   0.357   7.246  1.3046 -2.9694  0.6381
26503SOL     OW85345  11.417   2.501   0.759 -0.5441  0.1107  0.1616
26503SOL    HW185346  11.341   2.549   0.790  0.8131  0.5992  3.0125
26503SOL    HW285347  11.393   2.409   0.770 -1.6256  0.1607 -1.4442
26504SOL     OW85348   9.566  10.046  11.083  0.6928 -0.1019 -0.2524
26504SOL    HW185349   9.620  10.060  11.005  0.5759  0.7137 -0.2011
26504SOL    HW285350   9.566  10.131  11.127  1.3412 -0.7384  1.0262
26505SOL     OW85351   7.400   7.035   0.075  0.2729 -0.1576 -0.2703
26505SOL    HW185352   7.399   6.972   0.003  0.6464  1.1331 -1.4415
26505SOL    HW285353   7.463   7.000   0.138  0.3773 -1.0103 -0.8456
26506SOL     OW85354   2.019   6.534   1.863 -0.2511  0.3695 -0.7213
26506SOL    HW185355   2.042   6.491   1.945 -1.0607 -0.3565 -0.8510
26506SOL    HW285356   1.996   6.461   1.804  1.6575  0.7752 -2.0441
26507SOL     OW85357   8.535   5.572   2.927  0.1113  0.4920  0.5795
26507SOL    HW185358   8.544   5.551   3.020  0.9392 -0.8003  0.2422
26507SOL    HW285359   8.583   5.653   2.915  0.7720  0.1902  1.1273
26508SOL     OW85360  10.403   4.704   1.673 -0.3947 -0.4057 -0.0297
26508SOL    HW185361  10.359   4.621   1.654 -1.1295 -0.7332  2.6562
26508SOL    HW285362  10.332   4.764   1.695  0.2733  0.1575  0.6562
26509SOL     OW85363  10.391  11.056   6.917 -0.0574 -0.3107  0.2770
26509SOL    HW185364  10.306  11.012   6.906 -1.0272  1.2604  1.0626
26509SOL    HW285365  10.413  11.042   7.009 -0.5670  1.0922  0.6387
26510SOL     OW85366   7.809   9.958   5.537 -0.0623  0.0198 -0.2023
26510SOL    HW185367   7.900   9.928   5.535  0.8071  2.2034  1.4030
26510SOL    HW285368   7.811  10.044   5.494 -1.3706  0.0922 -0.1697
26511SOL     OW85369  11.302   4.407   7.881 -0.1638 -0.2923  0.1942
26511SOL    HW185370  11.300   4.457   7.963  1.2205 -0.3862  0.3020
26511SOL    HW285371  11.313   4.316   7.908 -0.5774 -0.4318 -0.0814
26512SOL     OW85372   0.537   8.242   9.278 -0.0379 -0.3638 -0.3757
26512SOL    HW185373   0.612   8.233   9.219  1.0114 -0.5920  0.9617
26512SOL    HW285374   0.490   8.159   9.269 -0.8711  0.2467 -2.1512
26513SOL     OW85375   0.562   9.053   6.868 -0.2623 -0.1765  0.2860
26513SOL    HW185376   0.533   9.038   6.778 -0.3875 -1.4415  0.5247
26513SOL    HW285377   0.481   9.072   6.916 -0.4156 -1.2018  0.4546
26514SOL     OW85378   2.562   9.386   6.579 -0.2554 -0.4084  0.5170
26514SOL    HW185379   2.616   9.354   6.651  0.6985  0.7473  0.3488
26514SOL    HW285380   2.498   9.444   6.621  0.5507  0.5776  0.4198
26515SOL     OW85381  10.088   2.338  10.874 -0.1565  0.4111  0.1967
26515SOL    HW185382  10.045   2.255  10.851 -2.1504  1.9640 -2.2162
26515SOL    HW285383  10.043   2.365  10.954 -0.4946 -0.1694  0.2174
26516SOL     OW85384   2.138   4.082  10.838 -0.3716 -0.2538 -0.0768
26516SOL    HW185385   2.075   4.116  10.900 -0.8545  0.8505 -1.1355
26516SOL    HW285386   2.094   4.008  10.796 -0.3005 -0.5688  0.4032
26517SOL     OW85387   8.998   5.969   8.689 -0.1738 -0.3281  0.1094
26517SOL    HW185388   9.043   5.962   8.605 -1.0828  1.0623 -0.5395
26517SOL    HW285389   8.906   5.979   8.666 -0.3510  0.9330  1.2101
26518SOL     OW85390   8.505   1.549   0.678 -0.5576  0.1730 -0.5769
26518SOL    HW185391   8.581   1.491   0.681 -0.0505  0.8140 -0.8350
26518SOL    HW285392   8.456   1.528   0.757 -0.8419 -1.2163 -1.0827
26519SOL     OW85393   6.998   5.676   7.043 -0.1691  0.1517 -0.1959
26519SOL    HW185394   7.009   5.660   7.137  0.1795  1.2980 -0.0257
26519SOL    HW285395   7.081   5.651   7.004  0.1963  1.0515 -0.0017
26520SOL     OW85396   4.940   3.406   2.734  0.2369 -0.3278 -0.3074
26520SOL    HW185397   5.034   3.415   2.752  0.1404 -0.0354  0.0449
26520SOL    HW285398   4.922   3.472   2.667 -0.2062  1.2908  1.3507
26521SOL     OW85399   6.020  11.962  10.603  0.7151  0.2488  0.5260
26521SOL    HW185400   6.054  12.052  10.600  3.3375 -0.6509 -1.8629
26521SOL    HW285401   6.013  11.936  10.511  2.3625 -2.7352  1.1100
26522SOL     OW85402   0.578   3.842  10.169 -0.4175 -0.3517  0.0754
26522SOL    HW185403   0.627   3.800  10.098  0.2812  0.6647 -0.0634
26522SOL    HW285404   0.585   3.936  10.151 -1.4304 -0.1322  0.7170
26523SOL     OW85405   6.461   8.247   0.991  0.1777 -0.7848  0.0101
26523SOL    HW185406   6.448   8.247   0.896  0.7073  1.1570 -0.1154
26523SOL    HW285407   6.382   8.205   1.026 -1.9635  1.9609 -1.1398
26524SOL     OW85408   8.453   7.159   9.042  0.2465 -0.4769 -0.1969
26524SOL    HW185409   8.415   7.088   8.992  0.9737 -0.8122 -0.2869
26524SOL    HW285410   8.458   7.126   9.132  1.2036 -0.8113 -0.3571
26525SOL     OW85411   8.574   9.986   4.688  0.2429 -0.0481 -0.9821
26525SOL    HW185412   8.552   9.920   4.754 -0.8733  1.5182  0.2989
26525SOL    HW285413   8.661   9.959   4.656  0.9994 -0.7201  1.3904
26526SOL     OW85414   0.586   1.077   1.932  0.1563  0.1088 -0.3451
26526SOL    HW185415   0.640   0.999   1.937  2.0290  1.2834 -1.1862
26526SOL    HW285416   0.610   1.129   2.008 -0.0558  0.4795 -0.5250
26527SOL     OW85417   7.091  10.338   8.010  0.1597  0.7160 -0.6425
26527SOL    HW185418   7.182  10.314   8.026 -0.1534  0.3190  0.6014
26527SOL    HW285419   7.051  10.343   8.096 -0.9282  1.2133 -1.1491
26528SOL     OW85420   6.305   2.134   2.346  0.2347 -0.2197 -0.5365
26528SOL    HW185421   6.347   2.153   2.430 -1.4910 -1.0152  0.5653
26528SOL    HW285422   6.327   2.043   2.328 -0.3611 -0.4089 -0.3356
26529SOL     OW85423   5.513  10.251   9.282  0.0374  0.1032 -0.4562
26529SOL    HW185424   5.447  10.200   9.330  0.7124 -0.7359 -0.3901
26529SOL    HW285425   5.569  10.184   9.242 -0.3634  0.7627 -2.2359
26530SOL     OW85426   1.164   9.832  10.773 -0.6443 -0.2310  0.2897
26530SOL    HW185427   1.133   9.783  10.849  0.0483  0.6548  1.1714
26530SOL    HW285428   1.167   9.923  10.803 -0.2489  0.1204 -0.7690
26531SOL     OW85429   4.474  10.082  11.921 -0.5113 -0.0557 -0.1789
26531SOL    HW185430   4.455  10.071  11.827 -0.7011  0.0503 -0.1534
26531SOL    HW285431   4.406  10.142  11.952 -0.4171 -0.0509  0.0157
26532SOL     OW85432   8.800   7.724   1.951  0.0031 -0.0931 -0.1156
26532SOL    HW185433   8.780   7.705   2.043 -0.9156  1.4527  0.0387
26532SOL    HW285434   8.871   7.664   1.929  1.2672  0.5196  2.0392
26533SOL     OW85435  11.289   0.836   1.997  0.6097 -0.3078  0.8075
26533SOL    HW185436  11.223   0.767   1.998 -0.8677  1.0665  1.6857
26533SOL    HW285437  11.366   0.794   1.958 -0.1181 -2.5365  1.6034
26534SOL     OW85438  12.231  10.196   9.282 -0.1661 -0.0619  0.2940
26534SOL    HW185439  12.300  10.253   9.316  0.6228 -0.6244 -0.3332
26534SOL    HW285440  12.186  10.165   9.361  0.9820 -0.5330  0.7961
26535SOL     OW85441   7.274   9.883  10.444 -0.8128 -0.3988 -0.1461
26535SOL    HW185442   7.243   9.883  10.353 -2.2405  1.0671  0.2953
26535SOL    HW285443   7.242   9.801  10.481  0.2155 -1.2488 -1.0809
26536SOL     OW85444  11.367   8.520  10.371 -0.1840  0.6527 -0.2732
26536SOL    HW185445  11.377   8.610  10.339  0.3437  0.7525  0.1610
26536SOL    HW285446  11.375   8.528  10.466 -2.0118  0.4023 -0.0636
26537SOL     OW85447   5.466   0.013   0.694 -0.1693 -0.5217 -0.4106
26537SOL    HW185448   5.378   0.049   0.686  0.0978 -0.1109 -1.8324
26537SOL    HW285449   5.509   0.069   0.759 -0.9105 -0.6833  0.2401
26538SOL     OW85450   0.305   7.646   9.319  0.1413  0.7296 -0.8315
26538SOL    HW185451   0.215   7.679   9.318  0.1263  0.6983 -0.6588
26538SOL    HW285452   0.348   7.694   9.390  0.2985  0.8405 -1.0021
26539SOL     OW85453   2.814   3.885   3.349  0.8788 -0.2346 -0.2403
26539SOL    HW185454   2.737   3.854   3.397 -1.7822  2.6312 -2.1810
26539SOL    HW285455   2.814   3.832   3.269  2.4423 -1.8058  0.7417
26540SOL     OW85456  10.040   0.884   0.552  0.2495 -0.5033  0.0182
26540SOL    HW185457  10.038   0.877   0.456  1.9888  0.9882 -0.1918
26540SOL    HW285458  10.117   0.834   0.578  1.9012  1.9408  0.2115
26541SOL     OW85459   0.218  11.822   6.914 -0.4390 -0.4398 -0.1706
26541SOL    HW185460   0.186  11.870   6.991 -0.0193  0.9584 -0.8405
26541SOL    HW285461   0.282  11.881   6.874  1.1882 -2.1642 -0.2424
26542SOL     OW85462   4.471   9.055  10.636  0.2991  0.2420  0.0172
26542SOL    HW185463   4.429   9.049  10.551 -0.2369  2.9259  0.0089
26542SOL    HW285464   4.430   9.130  10.679  2.5862  0.8072  1.4355
26543SOL     OW85465   1.136   4.700   8.226  1.0388 -0.2802  0.0553
26543SOL    HW185466   1.105   4.706   8.317 -0.8443 -2.0154 -0.3860
26543SOL    HW285467   1.057   4.708   8.173  1.7915 -1.5096 -1.3329
26544SOL     OW85468   1.858  10.025   8.835 -0.3829 -0.1010  0.0735
26544SOL    HW185469   1.788  10.024   8.900 -0.9201  3.8600 -0.1595
26544SOL    HW285470   1.938  10.029   8.887 -0.3946 -2.3213  0.3520
26545SOL     OW85471   4.177   8.595   7.980 -0.2357  0.3682  0.5203
26545SOL    HW185472   4.145   8.513   7.944  1.3968 -0.4220  0.7576
26545SOL    HW285473   4.099   8.643   8.007 -1.2589 -0.6954 -0.4964
26546SOL     OW85474   7.459   1.719  10.728 -0.3037  0.3112 -0.1139
26546SOL    HW185475   7.499   1.793  10.681  0.3180 -0.0394 -0.1425
26546SOL    HW285476   7.452   1.750  10.819  0.7107  0.1296  0.0481
26547SOL     OW85477   5.399   8.893   9.031 -0.4713 -0.6785  0.0861
26547SOL    HW185478   5.345   8.815   9.037 -1.3195 -0.2352 -1.3856
26547SOL    HW285479   5.349   8.954   8.976  0.1898  0.8867  1.1253
26548SOL     OW85480   6.075  10.362   1.292  0.5960 -0.0506 -0.6679
26548SOL    HW185481   5.983  10.375   1.317  0.9444  0.2966  0.4871
26548SOL    HW285482   6.107  10.295   1.353  1.8714  1.8623  0.8447
26549SOL     OW85483   9.757   5.853   0.707 -0.3687  0.4103 -0.4314
26549SOL    HW185484   9.698   5.838   0.781  0.5868  1.8508  0.6927
26549SOL    HW285485   9.701   5.851   0.630 -1.6369  0.2528  0.4647
26550SOL     OW85486   0.063   1.443   0.325 -0.1184  0.0811  0.0378
26550SOL    HW185487   0.129   1.374   0.325 -1.3099 -1.1318  0.7935
26550SOL    HW285488  -0.016   1.400   0.360 -0.9302  1.8081  0.4488
26551SOL     OW85489   7.044   3.782   4.801 -0.3747 -0.0632 -0.5231
26551SOL    HW185490   7.068   3.839   4.874  0.6447 -0.3307 -0.6280
26551SOL    HW285491   6.952   3.761   4.816 -0.3686  0.4453  0.3018
26552SOL     OW85492   2.970   0.357  10.090  0.8121 -0.1885 -0.4014
26552SOL    HW185493   2.954   0.421  10.160 -1.4418  0.4442 -1.4000
26552SOL    HW285494   2.920   0.280  10.116 -1.6733  0.7121 -2.0929
26553SOL     OW85495   2.723   4.914  10.438 -0.1492 -0.2620 -0.0350
26553SOL    HW185496   2.650   4.863  10.471 -0.2036  0.6418  1.3170
26553SOL    HW285497   2.794   4.898  10.500  0.4699 -0.3059 -0.7426
26554SOL     OW85498   4.019   8.868   3.070  0.4138  0.1925  0.0459
26554SOL    HW185499   3.935   8.902   3.037 -0.6378 -1.1011  1.2843
26554SOL    HW285500   4.070   8.947   3.089 -0.2469  1.0080 -1.3228
26555SOL     OW85501  12.261   8.008  10.420  0.3820 -0.1966  0.3994
26555SOL    HW185502  12.240   7.996  10.328 -0.1490  0.8423  0.3695
26555SOL    HW285503  12.182   7.980  10.467  0.3911 -0.0593  0.4980
26556SOL     OW85504  11.347   4.743  11.332 -0.7598 -0.0118 -0.1398
26556SOL    HW185505  11.358   4.759  11.238  0.7181  0.5127  0.0913
26556SOL    HW285506  11.425   4.782  11.372 -2.0607  1.1080  1.4672
26557SOL     OW85507   1.216   2.399  11.456  0.4066 -0.1064  0.3124
26557SOL    HW185508   1.137   2.449  11.434  0.1950  0.5990  2.4520
26557SOL    HW285509   1.186   2.333  11.519  1.7121  1.1389  2.3351
26558SOL     OW85510   8.965   0.244  11.716  0.3314 -0.4128  0.2631
26558SOL    HW185511   8.942   0.208  11.802 -1.6799 -0.5705 -0.2757
26558SOL    HW285512   8.983   0.166  11.662  1.5926 -0.3142  0.5202
26559SOL     OW85513   9.341   3.814   0.556  0.2428  0.4334  0.2032
26559SOL    HW185514   9.316   3.867   0.479  0.9164 -0.0612 -0.3737
26559SOL    HW285515   9.366   3.729   0.519  0.5485  0.1812  0.9784
26560SOL     OW85516   9.111  10.530   7.309  0.0218 -0.4153 -0.5947
26560SOL    HW185517   9.068  10.606   7.348  1.1048 -0.0332 -0.1185
26560SOL    HW285518   9.159  10.566   7.233 -0.0365 -0.7381 -0.7852
26561SOL     OW85519  11.665   0.132  11.681 -0.4207  0.3770 -0.0914
26561SOL    HW185520  11.653   0.224  11.705 -2.7420  0.5424 -1.5633
26561SOL    HW285521  11.655   0.130  11.586 -0.7608 -1.4295 -0.0559
26562SOL     OW85522   6.437   8.579   7.388  0.1666  0.1599 -0.1868
26562SOL    HW185523   6.469   8.557   7.300  1.0930 -0.8413  0.3723
26562SOL    HW285524   6.389   8.661   7.376  1.2487  0.6531 -1.4328
26563SOL     OW85525   8.059   9.331   0.036  0.0787  0.4963 -0.3101
26563SOL    HW185526   8.149   9.354   0.013 -0.2980  0.2868 -2.2325
26563SOL    HW285527   8.039   9.384   0.113  2.7357 -1.5674  1.9892
26564SOL     OW85528  11.649   7.590  10.161 -0.4151 -0.3857 -0.2169
26564SOL    HW185529  11.718   7.563  10.222  0.3508 -0.9098 -1.2903
26564SOL    HW285530  11.575   7.613  10.218  1.2899  2.3091  1.1055
26565SOL     OW85531   3.630   8.285  10.279 -0.3383  0.0981  0.0314
26565SOL    HW185532   3.658   8.342  10.207  1.3683  0.1511  0.6747
26565SOL    HW285533   3.694   8.213  10.277 -0.6099 -0.1801  1.1396
26566SOL     OW85534   4.524   0.658   9.559  0.0601  0.1793  0.1404
26566SOL    HW185535   4.597   0.717   9.581 -0.1863  0.3079  0.6188
26566SOL    HW285536   4.507   0.675   9.466  0.9531 -0.1957 -0.0983
26567SOL     OW85537   0.077   5.176   2.104  0.3749  0.4613  0.7676
26567SOL    HW185538   0.122   5.259   2.097  0.4507  0.3728  0.1636
26567SOL    HW285539   0.020   5.186   2.180 -2.0256  2.2549 -1.0882
26568SOL     OW85540   6.098  12.013   4.707 -0.1280 -0.0017  0.3755
26568SOL    HW185541   6.143  11.928   4.717  0.0634  0.1120  0.4883
26568SOL    HW285542   6.105  12.032   4.613  0.3515  0.1705  0.4410
26569SOL     OW85543  11.834   3.753   9.286 -0.0947  0.2088  0.2820
26569SOL    HW185544  11.895   3.746   9.360 -0.9951 -0.9361  0.9504
26569SOL    HW285545  11.787   3.669   9.286  0.5016 -0.1960 -2.1468
26570SOL     OW85546   6.874   4.385   3.528 -0.2898  0.0420  0.1863
26570SOL    HW185547   6.808   4.339   3.475  0.6806  2.2518 -3.1868
26570SOL    HW285548   6.831   4.466   3.555  0.1767  0.2563  0.2936
26571SOL     OW85549   2.218   2.938  10.152 -0.2647  0.5633 -0.2667
26571SOL    HW185550   2.274   3.012  10.131 -0.1255  0.0579 -1.7824
26571SOL    HW285551   2.174   2.963  10.233  1.5907  1.2760  0.5760
26572SOL     OW85552   4.869   9.831   7.905 -0.5094  0.1128 -0.1408
26572SOL    HW185553   4.927   9.899   7.871  0.5122 -0.9198 -0.5051
26572SOL    HW285554   4.901   9.815   7.994  1.2520 -2.0025 -1.0694
26573SOL     OW85555   0.410   8.076   7.202  0.1296 -0.1180  0.1812
26573SOL    HW185556   0.499   8.101   7.176  0.7484 -0.2673  2.0002
26573SOL    HW285557   0.384   8.144   7.265 -0.5037 -0.8219  0.6918
26574SOL     OW85558   6.896  12.019   3.369 -0.0932  0.9414  0.3715
26574SOL    HW185559   6.953  12.076   3.318  0.8574  0.9441  1.3903
26574SOL    HW285560   6.882  11.943   3.314  4.0690 -0.8867  1.3921
26575SOL     OW85561   2.694   7.713   9.008 -0.6682  0.0477 -0.0439
26575SOL    HW185562   2.699   7.627   9.049 -0.5589 -0.8012 -1.7737
26575SOL    HW285563   2.633   7.702   8.934 -2.0973  1.9149  0.7486
26576SOL     OW85564  10.131   9.274   4.376 -0.2315  0.2031  0.2853
26576SOL    HW185565  10.185   9.208   4.420  0.7081  0.2113 -0.8167
26576SOL    HW285566  10.187   9.351   4.370  0.5421 -0.4572 -2.8579
26577SOL     OW85567   0.053   6.463   4.646 -0.0971  0.0520 -0.3928
26577SOL    HW185568   0.090   6.551   4.643 -0.0626  0.0186 -1.0678
26577SOL    HW285569  -0.012   6.466   4.716  0.0372  0.5662 -0.2941
26578SOL     OW85570   0.464   5.942   0.005  0.5344  0.1014  0.2302
26578SOL    HW185571   0.442   6.026  -0.037 -1.2024 -0.7493 -0.7050
26578SOL    HW285572   0.390   5.925   0.064  1.3844 -0.2875  1.2156
26579SOL     OW85573   6.545   8.508   6.728  0.6032  0.4263  0.3700
26579SOL    HW185574   6.537   8.517   6.633 -0.5699 -1.6033  0.2207
26579SOL    HW285575   6.606   8.577   6.754 -0.6212  2.3700 -1.5740
26580SOL     OW85576   7.565   4.825   2.946 -0.2831 -0.3059 -0.2793
26580SOL    HW185577   7.598   4.906   2.909 -2.5384  1.3390  1.0398
26580SOL    HW285578   7.499   4.795   2.884  1.6629 -2.1283 -1.5913
26581SOL     OW85579   2.081   2.323   2.695 -0.2422  0.3049  0.4109
26581SOL    HW185580   2.124   2.338   2.780 -0.3442 -0.2302  0.5617
26581SOL    HW285581   2.120   2.388   2.637 -0.5287  1.0115  0.9889
26582SOL     OW85582   1.970   9.446   9.007  0.5219 -0.6417  0.2678
26582SOL    HW185583   1.936   9.487   9.087 -1.1023 -1.9707  0.3155
26582SOL    HW285584   1.940   9.502   8.936  0.0733 -0.6419  0.4550
26583SOL     OW85585   1.845   1.427   1.357  0.0676  0.2431 -0.4488
26583SOL    HW185586   1.804   1.395   1.437 -1.5496  1.6864 -0.6244
26583SOL    HW285587   1.872   1.348   1.310 -0.9994 -0.7231  0.4892
26584SOL     OW85588   2.294   0.816   9.662  0.2960 -0.8951 -0.0480
26584SOL    HW185589   2.282   0.775   9.576  0.5620 -2.9458  0.8386
26584SOL    HW285590   2.339   0.898   9.643  0.7479 -1.5077 -1.8318
26585SOL     OW85591   0.400   9.888   3.530 -0.4375  0.1458  0.0522
26585SOL    HW185592   0.358   9.941   3.598 -1.4663 -0.8145  0.1956
26585SOL    HW285593   0.401   9.945   3.453 -0.1594  0.8930  0.5914
26586SOL     OW85594  10.209  11.800  12.142 -0.4670 -0.3418 -1.2458
26586SOL    HW185595  10.286  11.835  12.098 -0.4118 -0.4171 -1.2105
26586SOL    HW285596  10.174  11.734  12.082 -0.1516 -0.7403 -0.9946
26587SOL     OW85597  11.979   1.404   6.297 -0.0607 -0.6318  0.1628
26587SOL    HW185598  11.947   1.485   6.258  0.3847 -0.5926 -0.1331
26587SOL    HW285599  11.979   1.421   6.391  1.7475  0.3865  0.0285
26588SOL     OW85600   6.996  12.007  12.123 -0.2926  0.1775 -0.0769
26588SOL    HW185601   6.939  12.018  12.047 -0.1290 -0.6173 -0.3227
26588SOL    HW285602   7.063  11.945  12.094 -0.0530  0.0958  0.6252
26589SOL     OW85603  10.913   5.328   4.236  0.2146  0.0950 -0.2683
26589SOL    HW185604  10.842   5.385   4.207  0.3399  0.8190  0.7830
26589SOL    HW285605  10.892   5.243   4.199 -0.9879  0.3889 -0.2962
26590SOL     OW85606   1.943   7.100  11.238  0.4072 -0.3322  0.5262
26590SOL    HW185607   1.949   7.007  11.214 -1.6978 -0.6748  1.1523
26590SOL    HW285608   1.970   7.147  11.159 -2.5791 -1.4629 -1.3477
26591SOL     OW85609   9.190   8.830  10.352 -0.1466  0.9365 -0.5546
26591SOL    HW185610   9.123   8.839  10.284 -1.3890 -2.0804  0.1110
26591SOL    HW285611   9.225   8.742  10.339  0.3819  0.7029  2.0260
26592SOL     OW85612  12.158   9.444   9.634  0.2573 -0.2867  0.4821
26592SOL    HW185613  12.162   9.480   9.723  1.2422 -0.9326  0.7193
26592SOL    HW285614  12.137   9.351   9.647 -0.1119 -0.2716  0.0090
26593SOL     OW85615   6.183   2.937  11.529  0.4926 -0.0741  0.0485
26593SOL    HW185616   6.207   2.971  11.615 -0.6269  1.4276 -0.1902
26593SOL    HW285617   6.185   3.014  11.472 -1.6875 -0.4556 -0.6177
26594SOL     OW85618   7.714  11.824   0.281 -0.5534  0.2561  0.1893
26594SOL    HW185619   7.800  11.816   0.322  0.2260  0.8815 -1.2336
26594SOL    HW285620   7.652  11.820   0.353  0.6362 -0.7410  1.1976
26595SOL     OW85621  11.435   4.384   7.538  0.0990  0.4424 -0.4980
26595SOL    HW185622  11.340   4.390   7.540  0.0838  1.2595 -2.2305
26595SOL    HW285623  11.466   4.473   7.556  0.4876  0.4811 -1.3026
26596SOL     OW85624   9.031   4.846   9.441 -0.5586 -0.5946 -0.2106
26596SOL    HW185625   9.103   4.795   9.478 -0.3391 -0.0514  0.1342
26596SOL    HW285626   8.978   4.871   9.516 -0.5504 -0.1507 -0.3483
26597SOL     OW85627   1.984   0.266  12.192  0.5528 -0.1571 -0.0697
26597SOL    HW185628   1.903   0.216  12.200  1.4765 -1.4499  2.3316
26597SOL    HW285629   2.026   0.232  12.112 -0.4696 -0.6930 -0.3920
26598SOL     OW85630   7.166   0.460  10.351 -0.4504  0.2140 -0.3510
26598SOL    HW185631   7.243   0.503  10.388  0.1629 -0.5065 -0.7658
26598SOL    HW285632   7.201   0.402  10.284 -1.4247  0.4247 -1.0646
26599SOL     OW85633   9.853   3.626   7.687 -0.3611  0.1160 -0.5262
26599SOL    HW185634   9.878   3.652   7.599  0.0436  1.0060 -0.1608
26599SOL    HW285635   9.813   3.704   7.725 -2.5739 -0.9022 -0.6418
26600SOL     OW85636   0.342  12.256   2.418  0.6208  0.3713  0.3522
26600SOL    HW185637   0.262  12.227   2.461  0.1983  1.9932  0.7456
26600SOL    HW285638   0.337  12.218   2.330 -1.8328  2.3350 -0.4891
26601SOL     OW85639   6.481   5.949   9.123  1.0350  0.1957 -0.4818
26601SOL    HW185640   6.522   5.902   9.196  1.0100  2.6198  1.1980
26601SOL    HW285641   6.476   5.884   9.053  1.4400 -2.1344  1.5095
26602SOL     OW85642   3.334   1.345   0.536  0.4084  0.2771  0.0488
26602SOL    HW185643   3.313   1.285   0.465 -0.7057  1.3763 -0.5921
26602SOL    HW285644   3.400   1.299   0.588 -2.1684 -2.5943  1.0683
26603SOL     OW85645   9.627   9.449  10.619  0.0088  0.3762 -0.4577
26603SOL    HW185646   9.653   9.541  10.633  0.0583  0.1369  1.3216
26603SOL    HW285647   9.532   9.449  10.630  0.2272 -0.1225  2.1840
26604SOL     OW85648   1.657   5.603   0.225 -0.2786 -0.0528  0.7385
26604SOL    HW185649   1.621   5.518   0.200 -0.2944  0.1200  0.1637
26604SOL    HW285650   1.693   5.588   0.313 -2.1833 -0.0996  1.5535
26605SOL     OW85651   1.907   9.270   9.430  0.3365  0.4865  0.1044
26605SOL    HW185652   1.816   9.263   9.460  0.6176 -1.2287  0.6558
26605SOL    HW285653   1.906   9.230   9.343  0.8520 -1.1432  0.8122
26606SOL     OW85654   9.372   4.693   4.110 -0.2408  0.5562 -0.1592
26606SOL    HW185655   9.403   4.604   4.096 -0.4480  0.2108  1.4268
26606SOL    HW285656   9.404   4.742   4.034  1.1367 -0.5400 -0.3164
26607SOL     OW85657   6.343   8.983   2.877  0.1037 -0.6055  0.8566
26607SOL    HW185658   6.333   9.075   2.854 -0.2916 -0.9959 -0.7225
26607SOL    HW285659   6.253   8.950   2.884  0.1848 -1.3912 -1.0928
26608SOL     OW85660   1.573   7.325   4.252  0.3670  0.0987 -0.9407
26608SOL    HW185661   1.500   7.346   4.311  0.2267  0.5009 -1.2486
26608SOL    HW285662   1.569   7.230   4.241 -0.4889  0.1774 -1.4371
26609SOL     OW85663   4.743   1.614   0.807 -0.0205  0.6924 -0.6926
26609SOL    HW185664   4.732   1.604   0.712  0.6551  0.1550 -0.7174
26609SOL    HW285665   4.812   1.679   0.817  0.8012 -0.1649 -0.5956
26610SOL     OW85666   0.189  10.198   7.951 -0.1485  0.2101 -0.2220
26610SOL    HW185667   0.110  10.147   7.964  0.6346 -1.1008 -0.4180
26610SOL    HW285668   0.243  10.145   7.893  0.2667  1.7570 -1.3370
26611SOL     OW85669  11.421  10.884   1.577  0.0284  0.1058 -0.3104
26611SOL    HW185670  11.410  10.916   1.487 -2.7857  0.2363  0.0033
26611SOL    HW285671  11.425  10.789   1.567 -2.6735 -0.0671 -0.4976
26612SOL     OW85672   7.181   3.537   5.922  0.2746 -0.6422 -0.0567
26612SOL    HW185673   7.182   3.569   6.012 -0.1520 -1.6445  0.3181
26612SOL    HW285674   7.271   3.548   5.891 -0.2220  2.6598 -0.6075
26613SOL     OW85675   4.746   5.799   7.942 -0.4805 -0.0018 -0.3810
26613SOL    HW185676   4.830   5.783   7.899  0.6413  0.6285  1.4654
26613SOL    HW285677   4.685   5.819   7.870  1.1117  0.2453 -1.7061
26614SOL     OW85678   1.484   8.829  10.236  0.0224  0.1346 -0.2768
26614SOL    HW185679   1.527   8.754  10.277  0.9285 -0.8477 -2.7867
26614SOL    HW285680   1.513   8.905  10.287  0.7803 -1.0053  1.0657
26615SOL     OW85681   9.177   9.382   9.244 -0.2748  0.3983  0.7664
26615SOL    HW185682   9.240   9.441   9.202  0.6487  0.2068  1.8283
26615SOL    HW285683   9.229   9.306   9.269 -1.0942 -0.0918  1.0137
26616SOL     OW85684   6.789   0.009   7.080 -0.2436  0.6895 -0.1066
26616SOL    HW185685   6.839  -0.041   7.015 -0.5014 -0.4540  0.5612
26616SOL    HW285686   6.715   0.044   7.031 -0.6124 -0.4347 -0.3706
26617SOL     OW85687  10.147   2.809   5.683  0.3586 -0.5898  0.2776
26617SOL    HW185688  10.181   2.889   5.721  0.3712 -1.0736  1.3092
26617SOL    HW285689  10.052   2.815   5.695  0.3782 -0.8263  0.5595
26618SOL     OW85690   8.387   4.986   3.936  0.6327  0.0198  0.3467
26618SOL    HW185691   8.454   4.941   3.987  0.5640 -1.8837 -1.1012
26618SOL    HW285692   8.317   5.003   3.998  0.9753 -1.2545  1.1208
26619SOL     OW85693   9.170  11.826   4.470  0.4334  0.3798  0.3802
26619SOL    HW185694   9.218  11.830   4.553  0.2296 -2.6056  0.7350
26619SOL    HW285695   9.078  11.815   4.496  0.4159 -0.9832 -0.1958
26620SOL     OW85696   1.130   7.938   5.268 -0.4292  0.1558 -0.0241
26620SOL    HW185697   1.055   7.949   5.210  0.4607  2.6822 -0.8347
26620SOL    HW285698   1.199   7.901   5.212 -0.9315 -1.9601  0.6676
26621SOL     OW85699   1.185   5.083   4.494 -0.3938 -0.5832 -0.2905
26621SOL    HW185700   1.232   5.000   4.491  0.2399 -0.2145 -1.1739
26621SOL    HW285701   1.232   5.140   4.433 -0.3062  0.7023  0.9220
26622SOL     OW85702   4.894  11.010   5.630  0.3647  0.4029 -0.1000
26622SOL    HW185703   4.978  10.973   5.657  1.5587  1.3106 -2.3372
26622SOL    HW285704   4.902  11.104   5.650 -1.2307  0.1455  2.1690
26623SOL     OW85705   5.180   5.918   8.399 -0.0755 -0.6708 -0.4487
26623SOL    HW185706   5.098   5.873   8.418 -0.4542  0.0907 -0.1965
26623SOL    HW285707   5.172   5.946   8.308  0.4103 -1.6074 -0.7897
26624SOL     OW85708   5.020   7.555  11.181  0.1278  0.4763  0.5954
26624SOL    HW185709   5.104   7.599  11.166 -0.2427  0.7952 -0.6873
26624SOL    HW285710   5.019   7.483  11.118 -0.2962  0.1000  1.0308
26625SOL     OW85711   6.969   4.036   1.802  0.1325  0.0892 -0.2853
26625SOL    HW185712   6.903   4.009   1.865  1.0850 -0.4044  0.5386
26625SOL    HW285713   7.039   4.073   1.855  1.7919 -2.0354 -0.8085
26626SOL     OW85714   1.047   2.728   7.610 -0.5087 -0.1001  0.0461
26626SOL    HW185715   1.014   2.770   7.689 -0.1411 -0.6384  0.4869
26626SOL    HW285716   1.140   2.711   7.628 -0.9458 -2.4039  0.4564
26627SOL     OW85717   6.469   7.574   7.498 -0.2737  0.0020  0.6862
26627SOL    HW185718   6.392   7.519   7.483  1.2056 -1.6218 -1.6653
26627SOL    HW285719   6.497   7.552   7.587 -1.1369 -1.2306  0.6804
26628SOL     OW85720  10.740  10.530   2.895  0.0152 -0.0502  0.9596
26628SOL    HW185721  10.815  10.483   2.859 -1.0943 -1.1391 -0.0440
26628SOL    HW285722  10.680  10.461   2.924 -1.9999  0.5980 -1.2572
26629SOL     OW85723   1.520   5.850   1.654 -0.2943  0.0984 -0.4389
26629SOL    HW185724   1.540   5.846   1.561  1.7322 -0.6988 -0.0088
26629SOL    HW285725   1.598   5.887   1.695 -0.5924 -0.8457  1.0906
26630SOL     OW85726   5.736  11.736  10.037 -0.2502  0.2020 -0.3358
26630SOL    HW185727   5.809  11.703  10.089 -0.5243 -0.2549 -0.2338
26630SOL    HW285728   5.776  11.800   9.978  0.0708  0.7039  0.4110
26631SOL     OW85729   3.142   7.609   6.220 -0.2086  0.0816 -0.7533
26631SOL    HW185730   3.215   7.653   6.177 -0.5663 -0.3829 -1.8886
26631SOL    HW285731   3.164   7.515   6.216 -0.2436  0.0254  0.1172
26632SOL     OW85732   0.605   9.033  11.437 -0.3638  0.2265  0.0549
26632SOL    HW185733   0.592   9.032  11.342  0.0404 -0.2461 -0.0018
26632SOL    HW285734   0.700   9.028  11.448 -0.2744  2.0132  0.4655
26633SOL     OW85735   4.678  12.205   1.635  0.1383 -0.4438  0.1176
26633SOL    HW185736   4.665  12.117   1.669 -1.1446 -0.9869 -1.6335
26633SOL    HW285737   4.609  12.216   1.570  1.6118  1.0435 -1.2866
26634SOL     OW85738   7.467   1.270   9.569  0.3291  0.6357  0.6727
26634SOL    HW185739   7.482   1.264   9.475 -0.0370  1.7172  0.5288
26634SOL    HW285740   7.371   1.267   9.578  0.3813 -0.1513  1.0735
26635SOL     OW85741   9.095   5.231   7.037  0.7377  0.1873 -0.1142
26635SOL    HW185742   9.023   5.168   7.036  0.9070  0.0058 -0.9947
26635SOL    HW285743   9.089   5.275   6.952  0.7247  1.2403  0.4151
26636SOL     OW85744  10.448  11.133   4.123  0.0854  0.7430 -0.5227
26636SOL    HW185745  10.389  11.106   4.194  1.7510 -0.5392  0.4661
26636SOL    HW285746  10.428  11.073   4.052 -0.6916  1.1774 -0.6817
26637SOL     OW85747   8.358   2.146   9.933 -0.6065 -0.4128  0.8017
26637SOL    HW185748   8.304   2.092   9.989 -0.6540 -1.2127  0.0087
26637SOL    HW285749   8.301   2.218   9.905 -1.1602 -1.0550  0.2609
26638SOL     OW85750   3.617   7.748  10.999  0.4696 -0.5327  0.1473
26638SOL    HW185751   3.601   7.840  10.977 -1.3929  0.3309  4.1842
26638SOL    HW285752   3.545   7.700  10.958  2.1566 -0.5649 -3.0912
26639SOL     OW85753   4.818   6.633   8.950 -0.1085 -0.5359 -0.4220
26639SOL    HW185754   4.726   6.623   8.927 -0.0050 -2.1052 -0.2297
26639SOL    HW285755   4.817   6.672   9.037 -0.5872 -0.5910 -0.4008
26640SOL     OW85756   3.848   7.461   0.600 -0.2641 -0.1699 -0.4784
26640SOL    HW185757   3.855   7.524   0.528  1.2597 -0.5099 -0.6687
26640SOL    HW285758   3.938   7.433   0.616 -0.5410 -0.0547  1.6234
26641SOL     OW85759   0.988   6.039   2.372  0.2976 -0.0605  0.2774
26641SOL    HW185760   0.915   6.081   2.418 -0.9807 -0.7462 -1.0326
26641SOL    HW285761   1.000   5.956   2.418  0.2172  0.0310  0.4657
26642SOL     OW85762   6.886   9.172   9.748 -0.4630 -0.0945 -0.4374
26642SOL    HW185763   6.818   9.165   9.681 -1.4603 -0.2856  0.5731
26642SOL    HW285764   6.859   9.246   9.803  0.4173  0.1520 -0.3115
26643SOL     OW85765   0.834  11.664   8.182  0.0789  0.1898  0.8080
26643SOL    HW185766   0.835  11.590   8.243  0.0686 -0.5420 -0.0647
26643SOL    HW285767   0.799  11.737   8.233  0.4976 -0.2910  1.8074
26644SOL     OW85768   4.874   1.731  10.864 -0.1101  0.1813  0.6154
26644SOL    HW185769   4.947   1.669  10.871  1.0017  1.3455 -0.1830
26644SOL    HW285770   4.915   1.812  10.831 -1.8761  0.6411 -0.5708
26645SOL     OW85771   9.542   3.900   2.152 -0.7209  0.3652 -0.6007
26645SOL    HW185772   9.548   3.906   2.248  0.1304  0.4167 -0.6502
26645SOL    HW285773   9.493   3.819   2.136  0.1086 -0.2378 -0.1419
26646SOL     OW85774   3.235   1.808   1.995 -0.2262 -0.8555  0.0489
26646SOL    HW185775   3.319   1.800   2.040  0.4491  1.1082 -0.7509
26646SOL    HW285776   3.243   1.750   1.919  1.5368  1.2235 -1.5028
26647SOL     OW85777   5.256   0.369  12.277  0.3621 -0.0386  0.2945
26647SOL    HW185778   5.186   0.424  12.311 -0.8363 -1.6229  0.5107
26647SOL    HW285779   5.227   0.344  12.190  1.1944  0.1587 -0.0528
26648SOL     OW85780   7.137  12.023  11.134 -0.2679  0.4398 -0.1728
26648SOL    HW185781   7.104  11.964  11.066  0.4600 -0.9409  0.6209
26648SOL    HW285782   7.225  11.990  11.153  0.3685  2.1205 -0.0431
26649SOL     OW85783  10.010  11.654   4.186  0.1391 -0.2349  0.4969
26649SOL    HW185784  10.035  11.562   4.195  1.2352  0.0867  0.8506
26649SOL    HW285785   9.979  11.678   4.274  1.8635  0.2966  0.9947
26650SOL     OW85786   0.600   6.620   9.556 -0.3817 -0.2650  0.2138
26650SOL    HW185787   0.668   6.635   9.490 -1.3965  0.1871 -0.7612
26650SOL    HW285788   0.606   6.526   9.575  0.9719 -0.1137  0.6847
26651SOL     OW85789   6.020   9.717   6.546 -0.3304 -0.4584 -0.2054
26651SOL    HW185790   6.015   9.649   6.478 -0.0207  0.0634 -0.7625
26651SOL    HW285791   5.938   9.766   6.537  0.3965  0.6050 -1.2865
26652SOL     OW85792   5.274   8.556   9.917 -0.2928  0.5380 -0.2035
26652SOL    HW185793   5.356   8.565   9.869 -0.0797 -1.1221 -0.2317
26652SOL    HW285794   5.208   8.599   9.862  0.2416  0.1605 -1.1597
26653SOL     OW85795   3.854  10.141   2.339  0.0568  0.2468 -0.0714
26653SOL    HW185796   3.915  10.125   2.411  0.0037  0.2765 -0.0202
26653SOL    HW285797   3.894  10.212   2.290  1.0935 -1.0472 -1.1982
26654SOL     OW85798   7.606   6.083   3.944  0.0982 -0.1766  0.7040
26654SOL    HW185799   7.586   6.058   3.853  0.2926 -0.7203  0.8025
26654SOL    HW285800   7.690   6.040   3.962 -0.7859 -1.5915  1.7207
26655SOL     OW85801   2.549   0.788   6.984 -0.0342  0.1088  0.0224
26655SOL    HW185802   2.456   0.803   6.967 -0.0436 -1.2251 -1.4028
26655SOL    HW285803   2.572   0.714   6.927  1.4409 -0.8895  1.7855
26656SOL     OW85804   2.987   6.597   8.158  0.1673  0.0429  0.5243
26656SOL    HW185805   2.905   6.635   8.126  0.8627  0.6566 -0.5531
26656SOL    HW285806   2.958   6.522   8.212 -1.0564 -1.3816 -1.9416
26657SOL     OW85807   3.582  11.151   8.081 -0.2066 -0.1012 -0.2078
26657SOL    HW185808   3.626  11.222   8.127 -0.8796 -0.6520  1.3399
26657SOL    HW285809   3.534  11.194   8.010  0.6389  0.7904 -0.2545
26658SOL     OW85810   1.601   5.473  10.151 -0.5490  0.1142 -0.3622
26658SOL    HW185811   1.622   5.566  10.155  2.9548 -0.4854 -1.1268
26658SOL    HW285812   1.628   5.439  10.237  1.5300 -0.6411 -1.2340
26659SOL     OW85813   2.956   5.786  11.358  0.0674 -0.1910 -0.2456
26659SOL    HW185814   2.931   5.694  11.359 -1.0474  0.0813  1.3203
26659SOL    HW285815   3.049   5.786  11.379 -0.5971 -0.8818  3.3184
26660SOL     OW85816  11.717  11.867  10.720 -0.2161  0.3889  0.4687
26660SOL    HW185817  11.803  11.878  10.680 -0.2460 -1.1044 -0.0677
26660SOL    HW285818  11.735  11.825  10.804 -0.4061  0.2429  0.4370
26661SOL     OW85819   4.681   0.236   6.236  0.1003  0.0222  0.1038
26661SOL    HW185820   4.689   0.328   6.210 -1.3857 -0.2548 -1.4992
26661SOL    HW285821   4.698   0.187   6.155  0.6057 -1.1317  0.8753
26662SOL     OW85822   6.419   8.872   5.391 -0.1178  0.2202  0.2111
26662SOL    HW185823   6.464   8.907   5.315  0.3960 -1.4402 -0.2748
26662SOL    HW285824   6.487   8.859   5.456 -0.4263  0.8168  0.6688
26663SOL     OW85825   1.008  10.084   2.043  0.4570 -0.3376  0.1959
26663SOL    HW185826   0.933  10.033   2.014 -0.4095  1.3732 -0.6966
26663SOL    HW285827   0.971  10.153   2.098  1.2519  0.9847 -0.8646
26664SOL     OW85828   7.074  10.360   2.085 -0.3893 -0.2738  0.7061
26664SOL    HW185829   7.119  10.368   2.168  3.4714 -0.0625 -1.2107
26664SOL    HW285830   7.061  10.450   2.056  2.4112 -0.2855 -0.8404
26665SOL     OW85831   6.787   6.979   1.040  0.5941  1.0426 -0.0934
26665SOL    HW185832   6.739   7.037   0.979  0.6752  1.9564  0.6832
26665SOL    HW285833   6.841   7.039   1.091  0.7093  0.2608  0.7101
26666SOL     OW85834   2.473   6.507  12.271 -0.6147 -0.0835  0.0950
26666SOL    HW185835   2.523   6.443  12.222 -3.1991 -0.8717 -1.7451
26666SOL    HW285836   2.516   6.590  12.254  1.2863 -0.9690  0.4010
26667SOL     OW85837   7.680   8.550   2.399  0.1288 -0.6144  0.1594
26667SOL    HW185838   7.744   8.579   2.334 -0.1923  1.8480  0.8304
26667SOL    HW285839   7.595   8.567   2.358 -0.1065 -1.9251  0.0715
26668SOL     OW85840   1.741   7.735   1.409 -0.1928 -0.1471 -0.6541
26668SOL    HW185841   1.680   7.740   1.482  0.0835  0.2097 -0.4453
26668SOL    HW285842   1.698   7.784   1.339 -0.5270 -0.6188 -0.7871
26669SOL     OW85843   0.287   9.080   5.414  0.1973  0.4589 -0.1549
26669SOL    HW185844   0.260   9.171   5.403  1.1349  0.7291 -0.3238
26669SOL    HW285845   0.379   9.079   5.385  0.4362 -0.3725  0.5987
26670SOL     OW85846   4.770  12.274   2.700 -0.0010 -0.2885 -0.0069
26670SOL    HW185847   4.756  12.234   2.614  0.5428  0.1963 -0.3219
26670SOL    HW285848   4.865  12.272   2.713 -0.0051  0.4604  0.1870
26671SOL     OW85849  10.209  10.240   9.124 -0.1620 -0.3956 -0.9348
26671SOL    HW185850  10.266  10.314   9.146  0.1893 -0.5657 -1.2472
26671SOL    HW285851  10.125  10.260   9.165  0.2003 -0.2569 -0.2531
26672SOL     OW85852   5.481   7.018  11.176 -0.5659  0.1728 -0.1891
26672SOL    HW185853   5.418   6.949  11.196 -0.8431 -0.3705 -2.6751
26672SOL    HW285854   5.455   7.051  11.090  2.0121  0.5338 -0.9304
26673SOL     OW85855   5.345   5.926   1.024 -0.0290 -0.4969  0.7620
26673SOL    HW185856   5.412   5.858   1.035 -0.4755 -0.8099  1.6532
26673SOL    HW285857   5.384   6.004   1.063  1.0157  0.1512 -1.4301
26674SOL     OW85858  10.683   0.195   2.059 -0.4297  0.0956 -0.0508
26674SOL    HW185859  10.706   0.102   2.060  2.9593  0.8161  0.6240
26674SOL    HW285860  10.743   0.234   1.995 -2.7702  1.6784 -1.4372
26675SOL     OW85861   9.795   8.611   9.373 -0.3065 -0.6624  0.0790
26675SOL    HW185862   9.805   8.570   9.287 -0.8766 -0.0972 -0.2637
26675SOL    HW285863   9.885   8.620   9.405 -0.0227 -0.1716 -0.8066
26676SOL     OW85864   4.210   9.319   7.071  0.1128  0.0544 -1.0165
26676SOL    HW185865   4.289   9.371   7.057 -1.4381  2.2937 -1.9503
26676SOL    HW285866   4.139   9.371   7.033 -1.7305 -2.2522 -0.9896
26677SOL     OW85867   7.145  11.060  12.253 -0.4052 -0.3546 -0.2536
26677SOL    HW185868   7.072  11.052  12.192 -0.2691  0.7237 -0.5660
26677SOL    HW285869   7.203  10.987  12.230 -0.4280 -0.0582 -1.3096
26678SOL     OW85870   1.007   6.896   9.790  0.4388  0.5724 -0.3302
26678SOL    HW185871   0.938   6.852   9.840  0.4926  0.0543 -0.7027
26678SOL    HW285872   1.031   6.972   9.844  1.3128 -0.6012  0.9985
26679SOL     OW85873   0.965   2.379   0.593 -0.2521  0.0995 -0.0223
26679SOL    HW185874   0.994   2.303   0.542  0.3834 -0.1865  0.7448
26679SOL    HW285875   0.878   2.398   0.559 -0.4442 -1.0037 -0.2042
26680SOL     OW85876   7.736   2.423  10.702 -0.0211  0.2803 -0.8926
26680SOL    HW185877   7.758   2.492  10.765 -1.1652  0.0036 -0.1631
26680SOL    HW285878   7.795   2.351  10.723 -1.2817 -0.3280  0.8184
26681SOL     OW85879   4.472   2.435   2.727  0.0184  0.8239  0.2504
26681SOL    HW185880   4.435   2.439   2.639 -0.8288  0.9996  0.6089
26681SOL    HW285881   4.559   2.397   2.715 -0.6955 -0.6353 -0.4658
26682SOL     OW85882   6.960  10.981   1.920  0.3983  0.1639  0.1432
26682SOL    HW185883   7.054  10.986   1.935  0.5859 -1.9490  0.0211
26682SOL    HW285884   6.945  11.031   1.840  1.4546  0.3730  0.0627
26683SOL     OW85885   1.883  12.227   0.629 -0.8244  0.3418  0.1870
26683SOL    HW185886   1.963  12.266   0.662 -1.5995  0.7277  1.7094
26683SOL    HW285887   1.887  12.240   0.534  1.1649 -0.1751  0.1586
26684SOL     OW85888  10.643   9.753   6.619 -0.0102  0.4074  0.5181
26684SOL    HW185889  10.733   9.778   6.641 -0.2757  2.8838 -0.8434
26684SOL    HW285890  10.595   9.761   6.702  0.2452  3.4485  0.5151
26685SOL     OW85891   5.087   6.762  10.504 -0.1147 -0.0015  0.2541
26685SOL    HW185892   4.994   6.746  10.521 -0.1185  0.9061  1.2112
26685SOL    HW285893   5.131   6.682  10.532 -0.7678 -1.4693 -2.4963
26686SOL     OW85894   6.335   0.452   1.109  0.4846  0.2683 -0.1720
26686SOL    HW185895   6.375   0.413   1.187 -1.3965 -2.4115 -0.4081
26686SOL    HW285896   6.409   0.485   1.059  1.9124  0.3033  1.8170
26687SOL     OW85897   6.604   8.871   5.591  0.5648  0.9443 -0.6062
26687SOL    HW185898   6.631   8.804   5.654 -1.3341  0.9245  0.2793
26687SOL    HW285899   6.614   8.953   5.639 -1.5485  0.8770  0.0378
26688SOL     OW85900   2.489   2.105   2.040  0.1428 -0.3075 -0.1587
26688SOL    HW185901   2.582   2.122   2.029  0.2877 -0.9261  0.0845
26688SOL    HW285902   2.484   2.048   2.117 -0.3148 -1.4938 -1.0435
26689SOL     OW85903   1.755  11.401   8.460 -0.1271 -0.4371 -0.1967
26689SOL    HW185904   1.840  11.362   8.476 -0.2039 -1.1069 -1.3139
26689SOL    HW285905   1.750  11.475   8.521  1.0767 -0.6297  0.1519
26690SOL     OW85906  11.663   8.713   3.717 -0.4038  0.3903 -0.4087
26690SOL    HW185907  11.657   8.804   3.745 -0.1499 -0.1760  1.6954
26690SOL    HW285908  11.754   8.702   3.690  0.2120  0.2602  1.5174
26691SOL     OW85909   7.086  12.149   0.467 -0.1730 -0.0890 -0.2079
26691SOL    HW185910   7.146  12.203   0.416 -3.6156  1.6189 -2.8454
26691SOL    HW285911   7.070  12.072   0.413 -0.7481 -0.2565  0.1879
26692SOL     OW85912   4.014   4.815   1.386  0.3789 -0.3675 -0.9292
26692SOL    HW185913   4.034   4.887   1.326 -2.4927  0.4045 -1.1365
26692SOL    HW285914   4.046   4.845   1.471  0.1324  0.7282 -1.2041
26693SOL     OW85915  12.228   5.683   9.860  0.0419  0.2674  0.1063
26693SOL    HW185916  12.306   5.656   9.811  0.2187 -0.5659  0.8432
26693SOL    HW285917  12.184   5.745   9.801 -0.4229 -1.6491 -1.6741
26694SOL     OW85918   1.093   1.876   9.272 -0.0986  0.4177 -0.0002
26694SOL    HW185919   1.004   1.905   9.292  0.5322  2.2173  0.3342
26694SOL    HW285920   1.095   1.784   9.299 -1.7684  0.4170  0.2177
26695SOL     OW85921  11.051   8.572   7.263  0.0432  0.0003 -0.0728
26695SOL    HW185922  11.127   8.581   7.205  0.2129 -0.4919  0.0697
26695SOL    HW285923  11.036   8.477   7.269 -0.7142  0.0990 -0.2714
26696SOL     OW85924  11.573   7.859  10.255  0.4886  0.6417 -0.6057
26696SOL    HW185925  11.658   7.901  10.268  1.0180 -0.8530  1.3542
26696SOL    HW285926  11.524   7.878  10.335 -0.4279  0.1684 -1.0352
26697SOL     OW85927   1.781   6.515   8.034 -0.5005 -0.3581  0.2532
26697SOL    HW185928   1.703   6.568   8.019 -0.0002 -0.0352 -1.4323
26697SOL    HW285929   1.748   6.426   8.047 -1.2468  0.0876  1.5589
26698SOL     OW85930   6.781  10.700   6.337 -0.3242 -0.5460 -0.1605
26698SOL    HW185931   6.842  10.628   6.323 -1.3592 -1.2338 -1.3762
26698SOL    HW285932   6.814  10.771   6.282 -0.4347 -0.8060 -0.5672
26699SOL     OW85933   7.617   3.181   6.208  0.2555 -0.3241 -0.1780
26699SOL    HW185934   7.588   3.155   6.295  0.5274  1.4131  0.4614
26699SOL    HW285935   7.706   3.146   6.201  0.6998  0.5633  0.7538
26700SOL     OW85936   5.270   9.181   9.699  0.2054  0.1445  0.2484
26700SOL    HW185937   5.241   9.258   9.651  0.0136  0.2193  0.4869
26700SOL    HW285938   5.203   9.115   9.681  0.1159  0.1839  0.4449
26701SOL     OW85939   1.474  11.148   2.435 -0.0457 -0.2845  0.4085
26701SOL    HW185940   1.408  11.120   2.499 -0.9964  0.8773 -0.0207
26701SOL    HW285941   1.540  11.193   2.488 -0.3609 -0.1333  0.6807
26702SOL     OW85942   4.191  12.218   6.275  0.1413 -0.1151 -0.4885
26702SOL    HW185943   4.199  12.152   6.206  2.6052 -0.2927 -0.1336
26702SOL    HW285944   4.192  12.302   6.228  0.2243 -0.2758 -0.7789
26703SOL     OW85945   0.946   1.301   5.693  0.3312 -0.0999  0.6271
26703SOL    HW185946   0.997   1.353   5.632 -0.6455  0.1126 -0.0297
26703SOL    HW285947   0.892   1.244   5.637 -0.6390  0.1600  1.2738
26704SOL     OW85948  10.287  12.323   7.049  0.0617 -0.4187  0.0401
26704SOL    HW185949  10.285  12.418   7.039 -1.0626 -0.4346  0.0164
26704SOL    HW285950  10.237  12.307   7.129 -2.5297 -1.1759 -1.6134
26705SOL     OW85951  11.932   0.918   1.642  1.0703  0.3763  0.6617
26705SOL    HW185952  11.923   0.983   1.711 -0.0507  0.6601  0.2769
26705SOL    HW285953  11.877   0.952   1.571  1.3205 -0.4629  0.0582
26706SOL     OW85954   7.927   1.882  10.684  0.4909  0.3133  0.2869
26706SOL    HW185955   7.865   1.899  10.613  0.8231  0.4423  0.0294
26706SOL    HW285956   7.883   1.816  10.738  0.0316  0.5651  0.2309
26707SOL     OW85957   1.741   7.513   7.873  0.5996 -0.4209 -0.4744
26707SOL    HW185958   1.831   7.546   7.877  0.6827 -0.0986 -3.1652
26707SOL    HW285959   1.696   7.573   7.813 -2.4591  1.5318  3.3187
26708SOL     OW85960   2.523   7.776  11.192  0.4671 -0.0797  0.0551
26708SOL    HW185961   2.612   7.792  11.161  0.8917 -0.1036  1.2323
26708SOL    HW285962   2.485   7.863  11.204  0.3299 -0.0691 -0.4368
26709SOL     OW85963  12.153   6.108   6.702 -0.1394 -0.0673  0.3092
26709SOL    HW185964  12.115   6.163   6.771  0.7419 -1.3016  1.8433
26709SOL    HW285965  12.247   6.106   6.722 -0.1974 -2.4005  0.5330
26710SOL     OW85966   2.248  10.332   7.996  0.0349 -0.1092  0.3000
26710SOL    HW185967   2.284  10.261   8.050 -0.5338 -0.0226  0.7943
26710SOL    HW285968   2.303  10.407   8.016 -0.2290 -0.0555  0.8235
26711SOL     OW85969   1.226   1.988   3.369 -0.2533  0.9156 -0.2445
26711SOL    HW185970   1.148   1.969   3.317  0.8448 -2.0730 -1.0131
26711SOL    HW285971   1.198   1.974   3.460 -0.8759  0.8683 -0.4392
26712SOL     OW85972   8.806   6.117   6.634 -0.6102  0.0241  0.0029
26712SOL    HW185973   8.896   6.116   6.666 -0.8452  0.5027  0.7027
26712SOL    HW285974   8.766   6.038   6.672 -0.7392  0.3088  0.4725
26713SOL     OW85975   1.355   9.386  10.911  0.0517  0.1770 -0.2502
26713SOL    HW185976   1.356   9.328  10.835 -1.3849 -0.7107  0.3441
26713SOL    HW285977   1.356   9.474  10.875 -1.0498 -0.2238 -1.3446
26714SOL     OW85978   3.353   2.717  10.242  0.0538  0.4484  0.3243
26714SOL    HW185979   3.285   2.697  10.177  0.3742  2.3252 -0.6382
26714SOL    HW285980   3.433   2.725  10.192  0.6653  0.1349  1.2167
26715SOL     OW85981   2.320   7.872   8.721  0.5020  0.2194 -0.4476
26715SOL    HW185982   2.408   7.887   8.686 -0.6108  2.5009 -2.6144
26715SOL    HW285983   2.284   7.802   8.668  1.3426 -1.6305  1.2835
26716SOL     OW85984  11.886   5.892  11.947  0.0236 -0.4779  0.1609
26716SOL    HW185985  11.966   5.936  11.976  0.4967 -0.1185 -1.5779
26716SOL    HW285986  11.892   5.805  11.985  0.3193  0.1232  1.5658
26717SOL     OW85987   8.714  11.846   8.061  0.4352  0.8483  0.4059
26717SOL    HW185988   8.680  11.936   8.070 -0.9024  0.2962  1.3186
26717SOL    HW285989   8.808  11.856   8.050  0.3388  2.3550  0.7787
26718SOL     OW85990   0.113   4.302   7.205  0.5269  0.2872  0.3957
26718SOL    HW185991   0.176   4.333   7.270 -0.1846  0.3162  1.0893
26718SOL    HW285992   0.031   4.346   7.228 -0.3245 -1.4931  0.9507
26719SOL     OW85993   5.929   1.966  12.141 -0.0545  0.0500 -0.3883
26719SOL    HW185994   5.967   2.046  12.104  0.6175 -0.4425 -0.7749
26719SOL    HW285995   5.840   1.992  12.167  0.4109  1.1151  0.1930
26720SOL     OW85996   7.895   6.986  10.162 -0.4718 -0.3201 -0.4563
26720SOL    HW185997   7.851   7.043  10.098 -0.6284 -1.4441 -1.3899
26720SOL    HW285998   7.978   7.030  10.180 -0.3752 -0.0159 -1.5300
26721SOL     OW85999   5.002   2.186   1.570 -0.1986  0.2281 -0.0461
26721SOL    HW186000   4.951   2.264   1.550 -0.6424  0.5144  1.9626
26721SOL    HW286001   5.093   2.212   1.557 -0.4278  0.4370 -1.3432
26722SOL     OW86002   5.795   6.431   8.709  0.4840 -0.0901  0.5781
26722SOL    HW186003   5.744   6.364   8.755  0.6672  0.7894  2.1497
26722SOL    HW286004   5.878   6.434   8.757  0.8933  0.5209 -0.1485
26723SOL     OW86005  10.295   3.318   8.338 -0.3503 -0.0412 -0.0136
26723SOL    HW186006  10.222   3.343   8.395  0.5700  1.5738  0.4906
26723SOL    HW286007  10.263   3.334   8.249 -0.8920 -0.1215  0.1653
26724SOL     OW86008   6.386   9.277   8.434 -0.4117  0.0264  0.0141
26724SOL    HW186009   6.366   9.212   8.366  2.3182 -1.6932  0.6995
26724SOL    HW286010   6.319   9.262   8.501 -1.0426 -0.6657 -0.7348
26725SOL     OW86011   5.441  12.138   8.743 -0.0665  0.3275 -0.1432
26725SOL    HW186012   5.391  12.174   8.670  0.3388 -1.1578 -1.2160
26725SOL    HW286013   5.487  12.063   8.706  0.6056 -0.1413  1.5182
26726SOL     OW86014  11.066   6.074   0.338  0.1059 -0.2093  0.4463
26726SOL    HW186015  11.126   6.136   0.380 -0.8649  1.5436 -0.6608
26726SOL    HW286016  11.105   6.055   0.253 -0.7144  0.7041 -0.1558
26727SOL     OW86017   4.606   6.975   7.142  0.0022  0.3697  0.6536
26727SOL    HW186018   4.616   6.963   7.236  1.4553  1.2854  0.6577
26727SOL    HW286019   4.694   7.000   7.112 -0.5833  0.7364 -0.8386
26728SOL     OW86020  10.181  11.958   4.524 -0.1790 -0.2110  0.4064
26728SOL    HW186021  10.252  12.001   4.572  0.5425  0.5498 -1.2533
26728SOL    HW286022  10.139  11.902   4.589  0.6423  0.8690  1.9410
26729SOL     OW86023   0.544   7.123   5.748 -0.2367 -0.0339  0.5837
26729SOL    HW186024   0.515   7.063   5.816 -1.0100  0.3862  0.6400
26729SOL    HW286025   0.512   7.209   5.776 -0.4971  0.1587 -0.2533
26730SOL     OW86026   3.805   9.158  11.289 -0.2946 -0.1581 -0.0366
26730SOL    HW186027   3.732   9.210  11.255  0.4057 -0.2853 -1.8742
26730SOL    HW286028   3.835   9.207  11.366 -1.6910  0.3958  0.1961
26731SOL     OW86029   4.288   5.559   6.946  0.5954 -0.0457 -0.2110
26731SOL    HW186030   4.321   5.566   6.857  2.7792  1.2191  0.6224
26731SOL    HW286031   4.327   5.480   6.981  1.2946  0.4606  0.1864
26732SOL     OW86032   5.691  11.640   9.501  0.1663 -0.0763  0.7735
26732SOL    HW186033   5.651  11.606   9.581  0.9645 -0.3473  1.0639
26732SOL    HW286034   5.648  11.590   9.431 -0.0920 -0.2774  1.0699
26733SOL     OW86035   5.715  11.590   3.267  0.6474  0.4031  0.9144
26733SOL    HW186036   5.781  11.594   3.198  0.6643 -0.2297  0.8898
26733SOL    HW286037   5.642  11.641   3.233  0.9200  0.6734  0.7241
26734SOL     OW86038   4.118   8.920   9.444 -0.3717 -0.1548 -0.4159
26734SOL    HW186039   4.076   8.834   9.450 -1.5865  0.3378 -1.5137
26734SOL    HW286040   4.091   8.965   9.524  1.5817 -1.3048  0.9823
26735SOL     OW86041   2.201   9.477   1.462 -0.5385 -0.0046 -0.0456
26735SOL    HW186042   2.259   9.450   1.533 -0.4523 -0.7798 -0.4073
26735SOL    HW286043   2.245   9.553   1.424  0.1663 -0.4895 -0.2137
26736SOL     OW86044   3.076  11.819   2.958  0.4999  0.2078 -0.0495
26736SOL    HW186045   2.994  11.833   3.006  0.3653 -1.1746  0.1638
26736SOL    HW286046   3.136  11.782   3.023  0.7753 -0.3046 -0.5833
26737SOL     OW86047   6.131   6.251   2.239 -0.2861 -0.0368  0.6159
26737SOL    HW186048   6.105   6.276   2.328 -1.1400 -0.0540  0.3861
26737SOL    HW286049   6.068   6.182   2.215 -2.2452  2.2307 -1.2337
26738SOL     OW86050   3.347   4.805   5.560 -0.6740  0.3795 -0.3475
26738SOL    HW186051   3.349   4.896   5.531 -0.9676  0.3534 -0.4460
26738SOL    HW286052   3.282   4.804   5.630  0.6277  0.6223  0.9251
26739SOL     OW86053  10.180  11.739   0.847  0.5084 -0.3195  0.4041
26739SOL    HW186054  10.088  11.721   0.865  0.4829  0.6005  1.2793
26739SOL    HW286055  10.226  11.660   0.876  0.1582 -0.0628  1.7417
26740SOL     OW86056   2.903   9.140   3.151 -0.4897  0.2716 -0.3161
26740SOL    HW186057   2.851   9.219   3.133 -0.0526  0.8621  0.8778
26740SOL    HW286058   2.921   9.145   3.245  0.4600 -0.7058 -0.4336
26741SOL     OW86059   3.662   2.305   2.357  0.3310  0.6087 -0.0744
26741SOL    HW186060   3.703   2.391   2.370  0.5457  0.4850  0.0605
26741SOL    HW286061   3.720   2.243   2.401  0.7898  0.2515 -1.1480
26742SOL     OW86062   2.204   8.477   0.298  0.1101 -0.1128 -0.4633
26742SOL    HW186063   2.265   8.431   0.356 -0.0584  2.0101  1.5401
26742SOL    HW286064   2.247   8.561   0.281 -0.6063 -0.0454 -2.1217
26743SOL     OW86065   5.475   1.234   6.132 -0.0471  0.4210 -0.1148
26743SOL    HW186066   5.431   1.204   6.212  2.4435  0.9448  1.6014
26743SOL    HW286067   5.560   1.191   6.134  1.3935  3.0319 -0.6375
26744SOL     OW86068   9.142   7.279   7.160  0.0033 -0.5787  0.0775
26744SOL    HW186069   9.202   7.289   7.086  0.4767 -0.0946  0.5162
26744SOL    HW286070   9.155   7.188   7.189  0.1397 -0.6338 -0.1565
26745SOL     OW86071  11.349   7.943  12.188 -0.2940  0.0736  0.3651
26745SOL    HW186072  11.355   7.989  12.105  0.8078 -0.2618  0.2358
26745SOL    HW286073  11.257   7.947  12.212 -0.8661 -0.8954 -1.4894
26746SOL     OW86074   3.890   6.170   5.182 -0.1655  0.2870 -0.1088
26746SOL    HW186075   3.859   6.110   5.114  0.9544 -1.7277  1.0320
26746SOL    HW286076   3.923   6.246   5.134 -2.2709  0.3794 -1.5856
26747SOL     OW86077   5.815   8.761   2.070 -0.2069  0.1151 -0.1735
26747SOL    HW186078   5.877   8.833   2.055 -1.6722  1.2943 -0.9189
26747SOL    HW286079   5.863   8.682   2.045  1.0924  0.9456 -0.4077
26748SOL     OW86080   3.151  11.511   2.186  0.1369 -0.3839  0.0696
26748SOL    HW186081   3.132  11.553   2.102 -1.7283 -1.0222  0.1225
26748SOL    HW286082   3.151  11.583   2.249  2.2216  0.2023 -0.4962
26749SOL     OW86083  10.342   2.272   9.130  0.3393  0.1880 -0.4352
26749SOL    HW186084  10.434   2.278   9.152  0.4389  1.9042 -1.1333
26749SOL    HW286085  10.322   2.356   9.087 -1.5323 -0.1370 -0.2989
26750SOL     OW86086   2.872   9.934  12.004 -0.0408 -0.0132  0.0727
26750SOL    HW186087   2.892   9.956  12.095  0.5762 -0.5253  0.0708
26750SOL    HW286088   2.956   9.935  11.960 -0.1014 -1.4119 -0.1189
26751SOL     OW86089   5.577   7.850  10.006 -0.7513  0.6347  0.6116
26751SOL    HW186090   5.655   7.829  10.058 -0.2591  0.5944 -0.1261
26751SOL    HW286091   5.520   7.774  10.017 -0.5370  0.5090  0.8785
26752SOL     OW86092   7.066  12.321   4.391  0.2874 -0.3489 -0.1691
26752SOL    HW186093   7.095  12.331   4.300 -1.2066  0.2771 -0.6243
26752SOL    HW286094   7.110  12.391   4.438  1.0211 -0.6317 -0.4243
26753SOL     OW86095   5.265   6.522  10.438  0.2545 -0.3116 -0.1037
26753SOL    HW186096   5.318   6.602  10.437  1.9897 -1.4045  0.7074
26753SOL    HW286097   5.324   6.454  10.470 -1.6171 -1.6403  0.7044
26754SOL     OW86098   4.228  12.275   9.553  0.2304  0.9836 -0.3643
26754SOL    HW186099   4.284  12.261   9.478  1.8454 -0.1092  0.9721
26754SOL    HW286100   4.152  12.219   9.537  0.5512  0.7627 -1.1724
26755SOL     OW86101   2.852   6.140  11.108 -0.0172  0.0791  0.5499
26755SOL    HW186102   2.773   6.141  11.161  0.8928  0.6293  1.9642
26755SOL    HW286103   2.919   6.103  11.166  0.9047  0.1934 -0.4042
26756SOL     OW86104   5.277  12.078   5.237 -0.4343 -0.3408 -0.5476
26756SOL    HW186105   5.207  12.088   5.301 -1.3033 -1.3928 -1.3035
26756SOL    HW286106   5.340  12.146   5.260  1.0876 -2.8055  3.6674
26757SOL     OW86107   4.037   8.692   4.590  0.1647  0.0727  0.5392
26757SOL    HW186108   4.055   8.682   4.684  0.8324 -0.7600  0.3422
26757SOL    HW286109   4.022   8.602   4.560  0.5244  0.2715 -0.2557
26758SOL     OW86110   9.472   8.500   4.666  0.0698 -0.0344  0.0965
26758SOL    HW186111   9.529   8.435   4.627  1.9200  0.9169  1.0559
26758SOL    HW286112   9.428   8.542   4.591 -0.0064 -1.3315 -0.6088
26759SOL     OW86113   6.612   2.186   4.296  0.2688  0.0898  0.1912
26759SOL    HW186114   6.591   2.276   4.320  0.3657 -0.3685  2.1192
26759SOL    HW286115   6.707   2.180   4.310  0.3400 -0.1868 -0.3984
26760SOL     OW86116   2.724   5.845   7.495  0.2944 -0.0103  0.2760
26760SOL    HW186117   2.761   5.791   7.565  2.4651  1.1798  0.1363
26760SOL    HW286118   2.680   5.917   7.541  0.7054  0.1479  0.4211
26761SOL     OW86119   5.827   5.885  10.735 -0.0393  0.1556 -0.3753
26761SOL    HW186120   5.743   5.846  10.755  0.1864  0.5683  1.5926
26761SOL    HW286121   5.874   5.818  10.685 -0.3863 -1.3376  1.2119
26762SOL     OW86122  10.016   1.454   4.083 -0.7326  0.4147 -0.8576
26762SOL    HW186123  10.029   1.421   3.994  0.8305 -2.3010  0.2844
26762SOL    HW286124  10.091   1.511   4.098 -1.2328  1.2442 -1.3725
26763SOL     OW86125   4.013   9.067   1.919  0.1630 -0.1245  0.1033
26763SOL    HW186126   3.928   9.024   1.917  0.1797 -0.1349 -0.3992
26763SOL    HW286127   3.993   9.161   1.927  0.1297 -0.2269  1.3674
26764SOL     OW86128   6.878  10.257  11.597  0.1406  0.1439  0.3901
26764SOL    HW186129   6.940  10.313  11.644 -0.3605  1.2093 -0.1594
26764SOL    HW286130   6.812  10.233  11.662 -0.3312  1.2766  0.3576
26765SOL     OW86131   2.266  10.886   8.908  0.4430  0.2070  0.0777
26765SOL    HW186132   2.318  10.840   8.974 -1.5378  2.1314  3.1892
26765SOL    HW286133   2.178  10.890   8.944 -0.6832  1.7231 -2.5475
26766SOL     OW86134   0.202   5.182   9.747 -0.0900 -0.0280 -0.3864
26766SOL    HW186135   0.152   5.107   9.778  0.9839 -0.2089  0.9954
26766SOL    HW286136   0.237   5.154   9.662  0.6537 -1.2799  0.3000
26767SOL     OW86137   4.478   3.698   6.012 -0.3616  0.4671 -0.2721
26767SOL    HW186138   4.481   3.662   6.101 -1.1581 -0.3772 -0.5681
26767SOL    HW286139   4.567   3.687   5.979  0.0231  1.1045  0.5343
26768SOL     OW86140   1.412   3.402   2.734 -0.1526 -0.3333 -0.3990
26768SOL    HW186141   1.329   3.415   2.689 -2.0399  1.4353  3.1617
26768SOL    HW286142   1.425   3.307   2.732 -1.7645 -0.5848 -1.8206
26769SOL     OW86143   5.607  11.179   7.525 -0.7468  0.1422  0.2414
26769SOL    HW186144   5.515  11.155   7.514 -1.4337  2.2241  1.0984
26769SOL    HW286145   5.630  11.147   7.612 -1.3277  1.5055  0.9199
26770SOL     OW86146  10.462   6.342   2.593 -0.1396 -0.3071  0.3243
26770SOL    HW186147  10.498   6.403   2.657 -0.6462 -1.9109  2.2123
26770SOL    HW286148  10.374   6.374   2.576  0.5923  1.1497 -1.0223
26771SOL     OW86149   8.181   2.225   6.883 -0.0229  0.8936 -0.5482
26771SOL    HW186150   8.089   2.224   6.856 -0.3315 -0.8552  0.4291
26771SOL    HW286151   8.224   2.284   6.821 -1.8736  2.1175 -0.7364
26772SOL     OW86152  10.829   3.538   2.429  0.4606  0.4343 -0.4829
26772SOL    HW186153  10.753   3.523   2.484 -1.6461  2.3071 -2.6302
26772SOL    HW286154  10.904   3.523   2.486 -1.4649 -1.7384  1.6822
26773SOL     OW86155   6.719   6.845   4.619  0.4920  0.3420  0.0162
26773SOL    HW186156   6.692   6.891   4.540 -0.0819 -0.0498 -0.0256
26773SOL    HW286157   6.814   6.848   4.618  0.5992 -1.6336 -1.9131
26774SOL     OW86158   7.300   9.289   4.486  0.4582  0.0814  0.4556
26774SOL    HW186159   7.299   9.342   4.406 -0.3224 -1.0392 -0.3014
26774SOL    HW286160   7.385   9.244   4.484  0.9184  0.9118  0.8540
26775SOL     OW86161   0.256  10.754   7.417 -0.2287  0.0980 -0.7158
26775SOL    HW186162   0.334  10.797   7.453 -0.1118 -0.3996 -0.3729
26775SOL    HW286163   0.228  10.811   7.345 -1.0491  1.6529  0.7664
26776SOL     OW86164   4.261   4.117   6.760 -0.0545 -0.2257  0.1299
26776SOL    HW186165   4.341   4.086   6.718  0.1067 -0.3588  0.5248
26776SOL    HW286166   4.237   4.196   6.711  0.7428  0.2524  0.4794
26777SOL     OW86167   0.750   4.074   2.711  0.5592 -0.2008  0.0192
26777SOL    HW186168   0.681   4.141   2.712 -0.9889 -1.7069  0.0990
26777SOL    HW286169   0.767   4.057   2.804  0.5261 -0.3361 -0.0002
26778SOL     OW86170  10.159   2.534   6.459 -0.4411 -0.0170  0.2491
26778SOL    HW186171  10.125   2.508   6.544 -2.3086 -0.9759 -0.7431
26778SOL    HW286172  10.164   2.630   6.464  4.3904 -0.0776  3.1400
26779SOL     OW86173   9.044  11.743   0.663 -0.5851  0.2305 -0.0318
26779SOL    HW186174   9.101  11.792   0.604 -2.4146  1.7673 -0.6394
26779SOL    HW286175   9.043  11.795   0.744  1.4172 -1.5408  1.2539
26780SOL     OW86176   2.083   4.166   0.766 -0.1737  0.0808 -0.0037
26780SOL    HW186177   2.087   4.220   0.845  0.0863 -0.7512  0.5639
26780SOL    HW286178   2.168   4.123   0.762  0.7305  1.8471 -2.0331
26781SOL     OW86179   2.269   7.209   1.882  0.3095 -0.2234  0.1863
26781SOL    HW186180   2.179   7.224   1.911 -0.1860 -0.6381 -1.0906
26781SOL    HW286181   2.278   7.113   1.882  1.6883 -0.2060  3.0000
26782SOL     OW86182   0.062  10.225  10.359 -0.4287 -0.4969 -0.3256
26782SOL    HW186183  -0.006  10.286  10.387  0.2122 -1.0271  2.7594
26782SOL    HW286184   0.140  10.250  10.410  0.3916 -2.6348 -0.3990
26783SOL     OW86185   7.230   2.336   1.193  0.1088 -0.7601 -0.4763
26783SOL    HW186186   7.176   2.338   1.113  0.7234  0.9696 -0.9023
26783SOL    HW286187   7.176   2.381   1.258  0.5586 -0.0083 -0.6055
26784SOL     OW86188   3.788   6.060   5.427  0.2366 -0.6162 -0.0444
26784SOL    HW186189   3.714   6.119   5.444  0.0295 -0.6546 -0.8060
26784SOL    HW286190   3.834   6.099   5.353  0.9287 -0.6538  0.3574
26785SOL     OW86191   9.764  11.205   0.626 -0.0827 -0.0172  0.3278
26785SOL    HW186192   9.716  11.158   0.695 -0.3607  1.7054  1.3788
26785SOL    HW286193   9.854  11.174   0.634 -0.2431 -0.3344  1.0222
26786SOL     OW86194   0.736   9.945   2.710  0.3473 -0.7129  0.0701
26786SOL    HW186195   0.736   9.920   2.802 -0.6367  1.1166  0.6181
26786SOL    HW286196   0.817   9.995   2.700 -0.5069  0.8198  0.5015
26787SOL     OW86197  10.502  11.183  11.492 -0.2179 -0.0129  0.1436
26787SOL    HW186198  10.479  11.139  11.574 -0.4585 -0.0366  0.0636
26787SOL    HW286199  10.568  11.127  11.452  1.1718  0.8453  1.1280
26788SOL     OW86200   4.260   9.092   6.893 -0.0145 -0.0585 -0.4352
26788SOL    HW186201   4.310   9.164   6.931 -1.6600  2.3845 -2.4940
26788SOL    HW286202   4.176   9.094   6.939  0.1942 -1.1862  0.0084
26789SOL     OW86203   2.915   1.055   9.220  0.3628 -0.2533  0.2012
26789SOL    HW186204   2.943   1.134   9.173  0.5530 -0.3965  0.0739
26789SOL    HW286205   2.925   0.985   9.157 -0.6891 -0.2492  0.0213
26790SOL     OW86206   4.241  10.051   8.542 -0.0947  0.2156  0.7749
26790SOL    HW186207   4.179  10.114   8.579 -1.0125  0.4655 -1.0598
26790SOL    HW286208   4.312  10.105   8.507  0.1257  0.0794  1.0113
26791SOL     OW86209   1.026   0.839   1.442 -0.3051  0.2391  0.4135
26791SOL    HW186210   1.095   0.781   1.475  0.0480  0.4879  0.1160
26791SOL    HW286211   0.951   0.822   1.500 -1.0684 -2.3851 -1.2008
26792SOL     OW86212  10.611   6.927   1.363 -0.2825 -0.0313  0.4968
26792SOL    HW186213  10.706   6.916   1.359 -0.2978 -0.2560  0.7141
26792SOL    HW286214  10.590   6.916   1.456 -0.5233  0.0025  0.4466
26793SOL     OW86215   0.580   6.425   5.774  0.3910 -0.1008 -0.0037
26793SOL    HW186216   0.673   6.413   5.797  1.0941  0.4499 -2.2622
26793SOL    HW286217   0.551   6.339   5.744  1.0905  0.2974 -2.0386
26794SOL     OW86218   1.836  11.183   1.079 -0.2557  0.4577 -0.2877
26794SOL    HW186219   1.844  11.136   0.996 -1.6156  0.0951 -0.2382
26794SOL    HW286220   1.849  11.116   1.146 -0.4561  0.4969 -0.2104
26795SOL     OW86221  10.023   1.532  11.701 -0.1282  0.2897  0.6717
26795SOL    HW186222  10.040   1.438  11.701 -0.2574  0.2429  1.7701
26795SOL    HW286223   9.928   1.539  11.701 -0.1413  0.4705 -1.2542
26796SOL     OW86224   4.839   2.936   7.817  0.2180  0.1487  0.2092
26796SOL    HW186225   4.746   2.941   7.793 -0.1998  0.5727  1.7829
26796SOL    HW286226   4.838   2.904   7.907  1.6126  0.1872  0.2515
26797SOL     OW86227   0.232   7.104   9.329  0.1236  0.0627  0.3328
26797SOL    HW186228   0.291   7.151   9.271  0.4295  1.5157  1.7391
26797SOL    HW286229   0.145   7.135   9.305  0.2649  0.8097  0.7406
26798SOL     OW86230   0.733   7.116  12.162 -0.7223  1.1496 -0.2034
26798SOL    HW186231   0.702   7.100  12.252 -2.4136 -0.1675 -0.9537
26798SOL    HW286232   0.656   7.101  12.108  0.8644 -0.7889 -2.0966
26799SOL     OW86233  11.334  12.171   2.190 -0.1959  0.4446 -0.0823
26799SOL    HW186234  11.392  12.101   2.220 -0.5187  0.3790  0.4092
26799SOL    HW286235  11.283  12.132   2.119  1.2114  0.8716 -1.3831
26800SOL     OW86236   8.457  10.793  10.727 -0.2120  0.2098 -0.0217
26800SOL    HW186237   8.384  10.749  10.682  1.2623 -0.6169 -1.7265
26800SOL    HW286238   8.419  10.824  10.809 -2.4065 -0.4560 -0.7065
26801SOL     OW86239   6.617   8.562   2.886 -0.5879  0.2742  0.3001
26801SOL    HW186240   6.554   8.499   2.922  0.4006 -0.3089  1.0756
26801SOL    HW286241   6.588   8.576   2.796 -0.8649 -1.2805  0.1210
26802SOL     OW86242   3.253   2.013   7.958  0.3597 -0.1092 -0.5488
26802SOL    HW186243   3.170   2.061   7.960  0.3369 -0.1693 -0.0466
26802SOL    HW286244   3.286   2.018   8.047  0.3769 -0.9987 -0.4981
26803SOL     OW86245   4.170  11.789   2.040  0.3300  0.1553  0.9710
26803SOL    HW186246   4.107  11.813   1.972  0.8429 -0.0468  0.4161
26803SOL    HW286247   4.144  11.841   2.116 -1.1224 -0.6571  1.0832
26804SOL     OW86248   1.142   2.276   7.253  0.1369  0.6327 -0.1175
26804SOL    HW186249   1.060   2.287   7.205 -0.0411 -1.2431 -0.3154
26804SOL    HW286250   1.169   2.365   7.274 -2.4145  1.2796  0.7665
26805SOL     OW86251   6.833   2.917  11.458  0.0561  0.6364  0.1220
26805SOL    HW186252   6.892   2.950  11.391 -0.0351  1.1029  0.2636
26805SOL    HW286253   6.864   2.957  11.539  1.0167 -1.0047  0.6044
26806SOL     OW86254   0.872  11.957   7.130 -0.4600 -0.5013  0.4556
26806SOL    HW186255   0.910  12.026   7.185 -0.5971 -0.9871  1.1803
26806SOL    HW286256   0.846  12.002   7.049 -0.2800  0.2377  0.7990
26807SOL     OW86257   6.156   1.406  12.315  0.7826 -0.4092 -0.2374
26807SOL    HW186258   6.089   1.409  12.383 -0.2162 -0.2457 -1.2131
26807SOL    HW286259   6.138   1.326  12.266  0.8924 -0.0265 -0.9146
26808SOL     OW86260  11.889   2.863   2.043  0.3207  0.1539 -0.2938
26808SOL    HW186261  11.984   2.869   2.047  0.3365 -0.4089  0.7167
26808SOL    HW286262  11.872   2.771   2.024 -0.0257  0.2628 -0.5183
26809SOL     OW86263   3.621   6.142   9.974  0.5014 -0.1287 -0.0964
26809SOL    HW186264   3.571   6.178   9.901 -4.3461 -1.4955  2.1454
26809SOL    HW286265   3.633   6.216  10.034  0.0890 -0.0489 -0.1131
26810SOL     OW86266   7.876  10.920   4.059 -0.3150  0.1044 -0.0183
26810SOL    HW186267   7.931  10.860   4.109 -0.7319 -0.6486 -0.4502
26810SOL    HW286268   7.891  10.896   3.967 -0.2295  0.8810 -0.2120
26811SOL     OW86269   6.401   0.413   6.276  0.0355 -0.2345  0.3507
26811SOL    HW186270   6.340   0.354   6.232  0.6934 -0.3141 -0.4840
26811SOL    HW286271   6.357   0.437   6.357 -1.2854  0.0149 -0.4014
26812SOL     OW86272   8.486  11.596   6.072  0.3458 -0.1522 -0.0410
26812SOL    HW186273   8.570  11.557   6.093  0.7251  1.2389  1.1782
26812SOL    HW286274   8.430  11.574   6.147  0.2202  0.6115  0.0928
26813SOL     OW86275   2.490   9.574   2.684 -0.1468  0.9983 -0.1705
26813SOL    HW186276   2.415   9.516   2.700 -0.2731  1.1830 -0.0802
26813SOL    HW286277   2.553   9.551   2.752 -1.1577  2.5890  1.4011
26814SOL     OW86278   1.801   1.462   0.932  0.0425  0.0267  0.9248
26814SOL    HW186279   1.862   1.392   0.953  0.1163 -1.2867 -2.8142
26814SOL    HW286280   1.733   1.419   0.880 -0.8835  2.4383  0.0099
26815SOL     OW86281   2.183   2.493   7.711  0.2759 -0.3391 -0.0327
26815SOL    HW186282   2.182   2.451   7.797 -0.0442  0.6870  0.4770
26815SOL    HW286283   2.203   2.584   7.729 -1.6882  0.3149 -0.8496
26816SOL     OW86284   2.773   5.884   8.030 -0.3687 -0.4015 -0.1839
26816SOL    HW186285   2.712   5.872   8.103  0.3788 -1.0276  0.3546
26816SOL    HW286286   2.742   5.822   7.963 -0.3890 -0.6361  0.0416
26817SOL     OW86287  12.219   5.521   4.616  0.2202  0.8228  0.0096
26817SOL    HW186288  12.126   5.542   4.620  0.2487  1.5327 -1.7237
26817SOL    HW286289  12.224   5.427   4.630 -0.9434  0.5424 -1.2366
26818SOL     OW86290   1.133  12.152   1.228 -0.0915 -0.2060  0.1442
26818SOL    HW186291   1.190  12.194   1.292  0.9196 -0.7871 -0.3580
26818SOL    HW286292   1.193  12.109   1.167 -1.0364  0.2317 -1.1285
26819SOL     OW86293   4.627   1.491   2.256  0.2524  0.1546 -0.0112
26819SOL    HW186294   4.666   1.420   2.308  2.0267  0.2303 -1.1548
26819SOL    HW286295   4.629   1.567   2.314 -1.0320 -0.5277  0.9840
26820SOL     OW86296   2.330   4.216   7.508  0.1608 -0.3990  0.1202
26820SOL    HW186297   2.416   4.185   7.480 -0.5166 -1.1584 -1.1955
26820SOL    HW286298   2.299   4.271   7.436 -1.2619 -1.7062 -0.3158
26821SOL     OW86299   2.822  11.746   1.899 -0.7826  0.5677 -0.0082
26821SOL    HW186300   2.748  11.799   1.869 -1.3839  0.0480  0.5630
26821SOL    HW286301   2.789  11.696   1.972 -0.3654 -0.9913 -0.8403
26822SOL     OW86302   9.933   3.046   5.383  0.2947  0.4915 -0.3467
26822SOL    HW186303   9.948   2.970   5.327 -0.5751  0.9925 -1.2925
26822SOL    HW286304  10.020   3.082   5.399  0.4978  1.0210 -2.3806
26823SOL     OW86305   4.326   7.419   7.454  0.0885 -0.1668 -0.7117
26823SOL    HW186306   4.407   7.429   7.504  0.4478  1.3765 -1.5464
26823SOL    HW286307   4.261   7.468   7.503  0.2363  0.6084 -1.2704
26824SOL     OW86308  11.249  11.255   0.423  0.0369  0.3470 -0.1540
26824SOL    HW186309  11.284  11.171   0.454 -0.9483  0.3859  1.1323
26824SOL    HW286310  11.198  11.232   0.346  0.2864 -0.1448 -0.1797
26825SOL     OW86311   7.368   9.937  11.720 -0.4381  0.0351  0.1083
26825SOL    HW186312   7.441   9.999  11.726 -0.6890  0.5520 -1.6328
26825SOL    HW286313   7.291   9.987  11.749 -0.0694 -0.7440  2.7380
26826SOL     OW86314   1.079   0.044   0.307 -0.5962 -0.7308  0.0065
26826SOL    HW186315   0.986   0.066   0.318 -0.2729  1.2525 -0.8278
26826SOL    HW286316   1.097   0.061   0.214  1.1536  1.4440  0.6478
26827SOL     OW86317  11.869   4.966   6.534  0.1081 -0.0218  0.0200
26827SOL    HW186318  11.819   4.885   6.525 -0.5440  0.2732  0.7917
26827SOL    HW286319  11.818   5.030   6.484  1.2738 -0.3378 -1.6214
26828SOL     OW86320   4.350   0.433   7.004  0.6935 -0.3560 -0.2597
26828SOL    HW186321   4.402   0.368   6.958 -0.4168  0.0422 -2.1885
26828SOL    HW286322   4.260   0.402   6.998  0.2208  0.9784 -0.6293
26829SOL     OW86323   3.527   6.867   2.395 -0.5056  0.5540  0.7679
26829SOL    HW186324   3.442   6.891   2.431 -0.9349  1.2882 -0.6573
26829SOL    HW286325   3.590   6.916   2.448 -1.2689  3.7613 -0.9829
26830SOL     OW86326   8.014   3.392   0.992  0.1440 -0.1861  0.1167
26830SOL    HW186327   8.040   3.360   1.079 -1.6770 -1.1207  0.3519
26830SOL    HW286328   7.999   3.486   1.005  1.6134  0.0452  0.3619
26831SOL     OW86329   5.828   6.541   3.290 -0.4536  0.4942  0.1112
26831SOL    HW186330   5.741   6.524   3.328 -1.3812  2.1099 -1.1851
26831SOL    HW286331   5.865   6.609   3.346 -0.3556  0.3780  0.1877
26832SOL     OW86332   7.133   8.055   1.754  0.5075  0.0771 -0.2273
26832SOL    HW186333   7.159   8.135   1.799  0.1352  0.4642 -0.6766
26832SOL    HW286334   7.154   8.072   1.662 -1.3187  0.4374 -0.6238
26833SOL     OW86335   4.414  12.251   4.886  0.0204  0.1960  0.3640
26833SOL    HW186336   4.388  12.276   4.975 -0.9741 -1.0332  0.4392
26833SOL    HW286337   4.488  12.192   4.899 -1.7105 -2.0893  0.5996
26834SOL     OW86338   7.214   3.827   7.628  0.5459 -0.1361  0.3460
26834SOL    HW186339   7.287   3.814   7.568  0.6222  0.8253  0.2169
26834SOL    HW286340   7.250   3.883   7.697 -0.1244  0.5136  0.1756
26835SOL     OW86341   8.707   0.575   7.971  0.1519  0.1517  0.2371
26835SOL    HW186342   8.738   0.662   7.945  1.0552  0.2777  1.6315
26835SOL    HW286343   8.625   0.563   7.922  0.1981  1.6311 -0.2481
26836SOL     OW86344   6.976   2.038   5.514 -0.4635  0.8734  0.4311
26836SOL    HW186345   6.955   1.967   5.453  1.2734 -1.0409  1.9147
26836SOL    HW286346   7.000   2.111   5.457 -2.0852  0.2560 -1.1593
26837SOL     OW86347  11.531   7.559   0.960  0.1758 -0.4422  0.0613
26837SOL    HW186348  11.499   7.640   0.920 -1.1329 -1.1315 -0.3658
26837SOL    HW286349  11.618   7.581   0.992 -0.4300  1.3544  0.6310
26838SOL     OW86350  11.054   5.876   6.735 -0.9481  0.3292 -0.2252
26838SOL    HW186351  11.147   5.882   6.756 -0.8924 -0.8025 -0.0665
26838SOL    HW286352  11.011   5.863   6.819 -1.1240 -0.3454 -0.4157
26839SOL     OW86353   9.303   6.127   1.380 -0.6327  0.1246  0.1064
26839SOL    HW186354   9.248   6.196   1.342  2.8305  1.7805 -2.4701
26839SOL    HW286355   9.341   6.168   1.458 -0.2517  0.3426 -0.1916
26840SOL     OW86356   7.986  11.598  11.446  0.1997  0.4698 -0.5466
26840SOL    HW186357   7.911  11.655  11.431 -0.5359  0.1437  1.5740
26840SOL    HW286358   8.057  11.658  11.470 -0.9273  0.5971  3.0707
26841SOL     OW86359   2.549   1.523  11.480 -0.5687  0.5125 -0.0937
26841SOL    HW186360   2.600   1.451  11.441  1.2974  1.0740  1.1838
26841SOL    HW286361   2.543   1.501  11.573 -2.2136  0.7730 -0.1035
26842SOL     OW86362   0.467  12.197   5.763 -0.6077  0.3353  0.1632
26842SOL    HW186363   0.443  12.257   5.692  0.1997 -0.4459 -0.7904
26842SOL    HW286364   0.535  12.244   5.812  0.2033  0.1217 -0.7297
26843SOL     OW86365   0.998   3.388   8.854 -0.4361 -0.9494  0.0179
26843SOL    HW186366   0.962   3.455   8.913 -0.4692 -1.4559  0.5879
26843SOL    HW286367   0.934   3.380   8.784 -0.1120  0.0922 -0.4257
26844SOL     OW86368  10.664  11.296   5.021  0.4721 -0.0272  0.1751
26844SOL    HW186369  10.755  11.274   5.005  1.3341  2.5409  1.1443
26844SOL    HW286370  10.636  11.343   4.941  0.0256 -0.6517 -0.0477
26845SOL     OW86371   7.531  10.450   4.650  0.5894  0.3076  0.2643
26845SOL    HW186372   7.508  10.511   4.720  0.8290  0.6831  0.0194
26845SOL    HW286373   7.622  10.470   4.630  0.8080 -0.4466  0.4945
26846SOL     OW86374   2.626  10.425   9.526 -0.2283 -0.4798  0.0544
26846SOL    HW186375   2.611  10.353   9.587 -1.1525 -0.9101 -0.6443
26846SOL    HW286376   2.593  10.502   9.571 -0.8357 -0.7853  0.1444
26847SOL     OW86377  10.020   9.608   9.595 -0.0801 -0.0295  0.0390
26847SOL    HW186378   9.984   9.631   9.510  1.7605  0.2522 -0.7189
26847SOL    HW286379  10.057   9.521   9.583 -0.9901 -0.5610  0.9520
26848SOL     OW86380  10.162   7.601   4.251 -0.0249 -0.6157  0.6243
26848SOL    HW186381  10.248   7.621   4.288  0.6799 -1.6236 -0.4056
26848SOL    HW286382  10.178   7.591   4.158 -1.3491 -0.4290  0.3583
26849SOL     OW86383  10.760   3.190   3.695  0.3029 -0.0661 -0.0211
26849SOL    HW186384  10.670   3.208   3.723  1.0699  1.3461  1.7093
26849SOL    HW286385  10.795   3.134   3.765  0.8273 -0.4794 -0.6066
26850SOL     OW86386   3.840   6.964   7.052  0.4377 -0.1497 -0.1059
26850SOL    HW186387   3.804   7.050   7.074 -2.0970 -1.3882  0.9966
26850SOL    HW286388   3.921   6.959   7.103 -0.0436  1.0755  0.8498
26851SOL     OW86389   7.070   5.487  12.236  0.1509 -0.3013 -0.1133
26851SOL    HW186390   7.152   5.455  12.198 -0.0050 -3.3717  1.7466
26851SOL    HW286391   7.033   5.410  12.280 -4.2649  0.6366 -1.6807
26852SOL     OW86392   1.422   9.572   3.168  0.5508 -0.0366 -0.5749
26852SOL    HW186393   1.421   9.495   3.112 -0.5053  0.3972 -1.1720
26852SOL    HW286394   1.391   9.541   3.253 -0.0060 -0.2460 -0.8523
26853SOL     OW86395  11.016   4.942  10.606  0.2537 -0.3466 -0.1791
26853SOL    HW186396  10.928   4.966  10.637 -0.4104 -1.3983 -1.1510
26853SOL    HW286397  11.035   5.005  10.537  0.1435 -0.2705 -0.1404
26854SOL     OW86398   2.169   1.804   6.647 -0.0548 -0.1154 -0.5580
26854SOL    HW186399   2.246   1.755   6.619  0.7175  0.7178  0.0618
26854SOL    HW286400   2.179   1.891   6.606 -0.2080  0.2828  0.2283
26855SOL     OW86401   9.302  12.020   8.257 -0.2499 -0.5403  0.5311
26855SOL    HW186402   9.260  12.023   8.343 -1.4170 -0.3330 -0.0369
26855SOL    HW286403   9.384  12.068   8.269 -0.1980 -0.8739  1.6326
26856SOL     OW86404   1.737   4.899  11.604  0.5028 -0.4810 -0.6511
26856SOL    HW186405   1.683   4.959  11.553  1.7700  1.3765  0.0761
26856SOL    HW286406   1.740   4.819  11.551 -0.9290  0.2094 -1.8566
26857SOL     OW86407  10.056   7.596   5.362 -0.4610  0.4018 -0.2593
26857SOL    HW186408  10.050   7.602   5.266 -0.6749 -1.3873 -0.3928
26857SOL    HW286409  10.073   7.504   5.379 -1.4839  0.4960  1.4989
26858SOL     OW86410   6.914   0.031   5.980  0.6271  0.1001  0.1510
26858SOL    HW186411   6.956   0.034   6.066  2.3244  1.3747 -0.6684
26858SOL    HW286412   6.820   0.027   5.999  1.0108 -1.3951  2.0494
26859SOL     OW86413   3.377   8.679   3.713  0.0286  0.1744 -0.2918
26859SOL    HW186414   3.387   8.609   3.778  0.0658 -0.1390 -0.6303
26859SOL    HW286415   3.284   8.702   3.716  0.3115  1.2500  0.9797
26860SOL     OW86416   1.010   1.358  10.250 -0.2721  0.0001  0.9412
26860SOL    HW186417   1.078   1.347  10.182 -0.8413  1.7870  0.0151
26860SOL    HW286418   0.939   1.300  10.222  0.2047 -0.6405  1.0213
26861SOL     OW86419  11.902   8.325   6.701 -0.2699 -0.1336 -1.1314
26861SOL    HW186420  11.863   8.411   6.686 -0.5641 -0.2768 -1.1978
26861SOL    HW286421  11.907   8.317   6.796 -2.4191 -0.9979 -1.0502
26862SOL     OW86422   7.223   6.984   1.415 -0.1994  0.1392 -0.7143
26862SOL    HW186423   7.191   6.993   1.325 -1.3043 -0.5819 -0.4040
26862SOL    HW286424   7.181   7.056   1.462  1.2699  1.2266 -0.9793
26863SOL     OW86425   3.643   5.398   3.545  0.7209 -0.4688  0.4905
26863SOL    HW186426   3.596   5.328   3.589  0.2711 -0.0299  0.7295
26863SOL    HW286427   3.574   5.449   3.501  1.1044 -0.5711 -0.2518
26864SOL     OW86428   6.312   8.546   9.418 -0.4528 -0.2870  0.7326
26864SOL    HW186429   6.340   8.609   9.352  1.9762 -0.0717  1.8406
26864SOL    HW286430   6.365   8.468   9.400  0.0223 -0.3325  2.1920
26865SOL     OW86431   6.467  10.676   2.606  0.3312  0.0512  0.4197
26865SOL    HW186432   6.419  10.726   2.672  0.7651  0.2498  0.5932
26865SOL    HW286433   6.500  10.600   2.653  1.5544  0.7374  0.7131
26866SOL     OW86434   5.632   6.850   7.730 -0.3545 -0.4078  0.3461
26866SOL    HW186435   5.680   6.814   7.804 -0.3779  0.1057  0.6209
26866SOL    HW286436   5.576   6.918   7.769 -0.0441  0.1696 -0.1985
26867SOL     OW86437  11.053  10.629   5.984  0.3074 -0.7246 -0.6305
26867SOL    HW186438  11.122  10.581   6.030 -0.5427 -0.6794  0.7428
26867SOL    HW286439  11.096  10.665   5.907  1.4460 -1.9946 -0.6260
26868SOL     OW86440   1.343   7.869   7.510  0.3089 -0.1394 -0.2319
26868SOL    HW186441   1.396   7.922   7.570 -0.4940  0.4429 -0.0198
26868SOL    HW286442   1.342   7.782   7.549  1.2382 -0.2023 -0.3261
26869SOL     OW86443   0.008   5.738   0.872 -0.1429  0.1998  0.3296
26869SOL    HW186444  -0.029   5.676   0.809  1.9024 -1.0413  0.2599
26869SOL    HW286445   0.003   5.823   0.827  0.7409 -0.5646 -1.3247
26870SOL     OW86446   5.955   9.444   5.632 -0.0427  0.2764  0.0345
26870SOL    HW186447   5.976   9.512   5.567 -1.2566  0.8291  0.2045
26870SOL    HW286448   6.036   9.394   5.640 -0.4342 -1.2047 -3.5154
26871SOL     OW86449   7.529  10.954  11.071 -0.0022 -0.1640 -0.4820
26871SOL    HW186450   7.480  11.029  11.106 -0.0792 -0.6923  0.6103
26871SOL    HW286451   7.617  10.988  11.056  0.4673 -0.2245  1.6846
26872SOL     OW86452   6.778  10.798   1.977 -0.0911 -0.5521 -0.1258
26872SOL    HW186453   6.765  10.806   2.072  0.4328  1.4804 -0.1757
26872SOL    HW286454   6.852  10.856   1.958 -0.1326 -0.9924 -1.7805
26873SOL     OW86455   3.578   7.246   9.055 -0.2305  0.0161 -0.2271
26873SOL    HW186456   3.605   7.154   9.049 -0.3343  0.0598 -1.5076
26873SOL    HW286457   3.586   7.279   8.966 -1.2537  0.9651  0.0229
26874SOL     OW86458   6.248   0.784  11.431  0.0072 -0.4032  0.2721
26874SOL    HW186459   6.311   0.715  11.451  0.7987  0.2879  0.2022
26874SOL    HW286460   6.163   0.745  11.449  0.5397 -0.6475  2.5939
26875SOL     OW86461   0.666   9.612  11.802  0.4228  0.4901  0.9877
26875SOL    HW186462   0.733   9.609  11.734 -0.3997 -0.1544  0.1755
26875SOL    HW286463   0.664   9.524  11.838 -0.8233  0.1418  0.1367
26876SOL     OW86464   9.435   3.403   8.285  0.2323  0.3692 -0.2911
26876SOL    HW186465   9.402   3.340   8.349 -3.0632  0.3481 -1.8120
26876SOL    HW286466   9.485   3.350   8.223 -3.9696 -1.4367 -2.5890
26877SOL     OW86467   0.926   8.072   8.740 -1.1578  0.0033  0.1309
26877SOL    HW186468   0.921   8.066   8.835 -0.2398 -1.6527  0.1183
26877SOL    HW286469   0.841   8.041   8.709 -0.7090 -1.5990  0.4032
26878SOL     OW86470   2.514   9.413   4.669 -1.1708 -0.2383 -0.1085
26878SOL    HW186471   2.558   9.498   4.668 -1.2204 -0.2145 -0.9304
26878SOL    HW286472   2.424   9.433   4.643 -1.2323 -0.5140 -0.1095
26879SOL     OW86473  11.100   6.518   2.406 -0.0007  0.0460 -0.0416
26879SOL    HW186474  11.096   6.454   2.335 -0.7855 -0.6162  0.5626
26879SOL    HW286475  11.089   6.603   2.364 -0.4171 -0.3359 -0.7173
26880SOL     OW86476   7.535   7.685   2.298  0.0134 -0.2202  0.0848
26880SOL    HW186477   7.573   7.703   2.212  0.1595 -1.6276 -0.1677
26880SOL    HW286478   7.445   7.659   2.279  0.5330 -2.2222  0.1608
26881SOL     OW86479   9.981   2.382   6.643 -0.1467 -0.0662  0.0600
26881SOL    HW186480   9.891   2.351   6.629 -0.7770  2.1866 -1.4128
26881SOL    HW286481  10.035   2.303   6.635 -1.7785 -1.0964 -1.6376
26882SOL     OW86482  10.014   8.388   4.473 -0.0547  0.3919 -0.3759
26882SOL    HW186483   9.925   8.420   4.492  0.5143  1.3608  0.8139
26882SOL    HW286484  10.053   8.456   4.419 -0.5517 -0.8124 -2.3399
26883SOL     OW86485   7.632   2.136   2.111 -0.4760  0.1372  0.1105
26883SOL    HW186486   7.714   2.092   2.133  0.2626  1.5176  0.2043
26883SOL    HW286487   7.633   2.142   2.015 -0.6416 -0.1538  0.0888
26884SOL     OW86488   4.571   1.141   1.429  0.4162  0.3971  0.3577
26884SOL    HW186489   4.630   1.216   1.425  0.9693 -0.0638 -0.2462
26884SOL    HW286490   4.526   1.141   1.344  0.5810 -0.0778  0.2656
26885SOL     OW86491   0.618   7.868   3.496 -0.0251 -0.7806 -0.0840
26885SOL    HW186492   0.621   7.901   3.586  0.6744  1.0982 -0.7570
26885SOL    HW286493   0.708   7.873   3.466 -0.4291 -0.3118 -1.2568
26886SOL     OW86494  11.976   3.704  11.165  0.2461  0.1234 -0.0241
26886SOL    HW186495  12.063   3.674  11.140  0.2513 -1.4993  1.7826
26886SOL    HW286496  11.921   3.626  11.161 -1.4358  1.2876 -2.1116
26887SOL     OW86497   6.451  12.151  11.685 -0.2301  0.2705 -0.1642
26887SOL    HW186498   6.546  12.158  11.693 -0.3251  2.6183 -0.5352
26887SOL    HW286499   6.436  12.064  11.648  1.6995 -0.4822  0.7167
26888SOL     OW86500   0.700   0.974   2.907 -0.4553  0.2017  0.1434
26888SOL    HW186501   0.756   1.020   2.845  0.2317 -1.8250 -0.8371
26888SOL    HW286502   0.749   0.974   2.989  0.4681 -0.5250 -0.3941
26889SOL     OW86503   0.982  10.238   8.540  0.3015 -0.1815 -0.0545
26889SOL    HW186504   0.914  10.278   8.593  0.5124 -0.9711  0.8425
26889SOL    HW286505   0.936  10.173   8.486  0.2593 -0.2624  0.0796
26890SOL     OW86506   0.026   6.891   9.153 -0.1988 -0.0846  0.1809
26890SOL    HW186507   0.032   6.981   9.185  0.3202 -0.0108 -0.1154
26890SOL    HW286508  -0.027   6.898   9.073 -0.9655 -0.1828  0.6637
26891SOL     OW86509  10.970   5.145   5.618 -0.0743  0.2273 -0.4352
26891SOL    HW186510  11.063   5.155   5.642 -0.2801  0.3797  0.3322
26891SOL    HW286511  10.925   5.215   5.665 -0.7770 -0.7743  0.4346
26892SOL     OW86512   3.148   8.866   3.722 -0.4679  0.0676 -0.1516
26892SOL    HW186513   3.211   8.935   3.742 -0.9801  0.3957  0.3311
26892SOL    HW286514   3.062   8.906   3.734 -0.7710 -0.5414 -0.2321
26893SOL     OW86515  10.794   6.462  11.902  0.3508  0.0182 -0.1087
26893SOL    HW186516  10.882   6.435  11.878 -0.5075 -1.3948 -1.9425
26893SOL    HW286517  10.776   6.537  11.846  0.0041 -0.4155 -0.5952
26894SOL     OW86518   3.728   2.691   4.091 -0.2631 -0.0573  0.5844
26894SOL    HW186519   3.683   2.764   4.049 -0.8885 -0.1428  1.0827
26894SOL    HW286520   3.721   2.619   4.028 -1.2554 -0.2055  0.8447
26895SOL     OW86521   0.231  11.848   0.732  0.3535 -0.1941 -0.6143
26895SOL    HW186522   0.219  11.883   0.644  0.6104  3.0810  0.4993
26895SOL    HW286523   0.298  11.904   0.771 -0.1741 -1.1415  1.8488
26896SOL     OW86524   6.569   6.597   0.318 -0.1467  0.0442 -0.3037
26896SOL    HW186525   6.492   6.650   0.340 -0.4562  0.2599 -1.7698
26896SOL    HW286526   6.629   6.609   0.391 -1.2957  0.2965  0.6209
26897SOL     OW86527   0.517   3.636   3.023 -0.4321  0.3491  0.0116
26897SOL    HW186528   0.517   3.574   2.950  1.2741 -0.2991  0.5119
26897SOL    HW286529   0.496   3.720   2.982  1.7389  0.2475 -1.5188
26898SOL     OW86530   1.995  11.683   2.573 -0.4636  0.0983  0.0310
26898SOL    HW186531   2.084  11.651   2.560 -0.2769  0.5180  0.2459
26898SOL    HW286532   1.970  11.719   2.488 -0.8073 -0.9119 -0.3169
26899SOL     OW86533   8.078  11.238   2.067  0.1403  0.5024  0.1445
26899SOL    HW186534   7.990  11.218   2.097  0.4157 -1.7590 -0.3776
26899SOL    HW286535   8.072  11.234   1.971  0.7884  0.4144  0.1037
26900SOL     OW86536  10.633  12.000   2.437  0.2887 -0.4705  0.1449
26900SOL    HW186537  10.677  11.923   2.474 -1.5304 -0.9637  1.4030
26900SOL    HW286538  10.686  12.074   2.468  1.3500 -1.1315 -0.0348
26901SOL     OW86539   4.086   4.685  10.812  0.6934  0.2118 -0.1974
26901SOL    HW186540   4.154   4.618  10.822  0.3162 -0.0811  0.4963
26901SOL    HW286541   4.044   4.689  10.898 -0.2063  0.3555 -0.6317
26902SOL     OW86542   9.221   0.842  11.568 -0.0722  0.3700  0.3253
26902SOL    HW186543   9.189   0.859  11.657 -1.7109  1.5889 -0.4405
26902SOL    HW286544   9.170   0.767  11.538  1.7671 -1.2206  1.0032
26903SOL     OW86545   0.135   1.623   8.710 -0.4755 -1.2535  0.0121
26903SOL    HW186546   0.202   1.564   8.676 -0.2032 -0.3139 -1.1274
26903SOL    HW286547   0.141   1.701   8.655 -1.1506 -0.3481  1.1792
26904SOL     OW86548   5.913  11.326   0.096  0.1454  0.2414  0.1634
26904SOL    HW186549   5.957  11.306   0.014  0.5575 -1.5223  0.7622
26904SOL    HW286550   5.983  11.359   0.153 -0.0478  1.0064 -0.0332
26905SOL     OW86551   6.272  11.123  11.461  0.0319 -0.3370 -0.6506
26905SOL    HW186552   6.314  11.199  11.501  0.6268 -3.0714  4.8763
26905SOL    HW286553   6.178  11.144  11.463  0.1521  0.1936  1.1189
26906SOL     OW86554   2.459   1.182   5.759 -0.6120  0.3054  0.3981
26906SOL    HW186555   2.514   1.247   5.716 -0.9792  0.3293 -0.0416
26906SOL    HW286556   2.520   1.128   5.809 -0.1990  0.3989  0.0001
26907SOL     OW86557  10.929   5.385   4.760 -0.3489 -0.0080  0.2822
26907SOL    HW186558  10.958   5.335   4.684 -0.5738  0.4574 -0.1166
26907SOL    HW286559  10.900   5.469   4.724 -2.3511 -0.5092  0.6099
26908SOL     OW86560   7.532   9.104   0.497  0.7309  0.5551 -0.2281
26908SOL    HW186561   7.575   9.141   0.420 -0.8703  1.3367 -0.7819
26908SOL    HW286562   7.440   9.097   0.473  0.5396 -1.3677  0.8081
26909SOL     OW86563   6.672  10.155  11.783 -0.0887 -0.0019  0.4446
26909SOL    HW186564   6.602  10.173  11.720 -1.3265  0.1292  1.8045
26909SOL    HW286565   6.705  10.069  11.759  0.7172  0.7729 -1.4655
26910SOL     OW86566   6.749   8.077  10.416 -0.3994 -0.4024 -0.1655
26910SOL    HW186567   6.743   7.986  10.445 -0.2468  0.1847  1.8363
26910SOL    HW286568   6.727   8.128  10.493  1.6005  1.3019 -0.6463
26911SOL     OW86569   6.660  12.044  10.640 -0.0541 -0.8452 -0.0938
26911SOL    HW186570   6.612  12.086  10.711  1.2315  1.7494 -0.6359
26911SOL    HW286571   6.601  12.048  10.565  0.2527  0.5990 -0.2796
26912SOL     OW86572   6.680   9.428  11.719 -0.6303 -0.0196  0.5229
26912SOL    HW186573   6.701   9.505  11.773  0.8265  0.4695 -0.6888
26912SOL    HW286574   6.707   9.452  11.631 -0.5732 -1.7728  0.0251
26913SOL     OW86575   4.879   3.045   9.922  0.6749 -0.5957 -0.5011
26913SOL    HW186576   4.898   3.079   9.834 -0.4291 -0.8267 -0.8566
26913SOL    HW286577   4.864   3.123   9.975  0.1214 -0.4620 -0.8336
26914SOL     OW86578   3.387   5.272   0.471 -0.0920 -0.2086 -0.8373
26914SOL    HW186579   3.401   5.183   0.504 -1.5658 -1.1977 -2.7076
26914SOL    HW286580   3.317   5.306   0.527  0.5457 -0.1479 -0.0477
26915SOL     OW86581   6.349   1.953   3.474  0.2491 -0.3146  0.0717
26915SOL    HW186582   6.371   1.862   3.490  1.0883 -0.2824 -0.7794
26915SOL    HW286583   6.318   1.954   3.383  0.0202  0.1996  0.1541
26916SOL     OW86584   3.788  10.203   1.557 -0.5897  0.0856 -0.0641
26916SOL    HW186585   3.722  10.253   1.606 -0.3862 -0.0684  0.3714
26916SOL    HW286586   3.868  10.256   1.565 -0.1263 -0.7492  1.2060
26917SOL     OW86587   6.367   8.766  12.075 -0.4318 -0.0587 -0.0032
26917SOL    HW186588   6.453   8.730  12.096 -1.9834 -2.3371  3.2725
26917SOL    HW286589   6.342   8.813  12.154 -1.2061  2.9395 -1.8825
26918SOL     OW86590   2.636   5.609   0.058 -0.2595  0.2281 -0.7387
26918SOL    HW186591   2.607   5.652  -0.022 -0.3008 -0.3135 -1.0236
26918SOL    HW286592   2.625   5.515   0.040 -1.8454  0.1424  0.4866
26919SOL     OW86593   2.814   9.305   9.569 -0.0223 -0.0137 -0.0417
26919SOL    HW186594   2.837   9.226   9.519  0.0154 -0.4842  0.6997
26919SOL    HW286595   2.807   9.374   9.503 -0.4389 -0.7196 -0.7519
26920SOL     OW86596   4.485   7.061   4.251 -0.1155  0.3808  0.5559
26920SOL    HW186597   4.497   6.982   4.303  0.7331  0.6183  0.7564
26920SOL    HW286598   4.453   7.126   4.313 -0.0968  0.3857  0.5612
26921SOL     OW86599  10.191   1.744  10.927 -0.0063 -0.0871 -0.2254
26921SOL    HW186600  10.171   1.837  10.939  0.4156 -0.1544  1.1558
26921SOL    HW286601  10.224   1.715  11.012  0.1796 -1.4310 -0.7275
26922SOL     OW86602  11.963   8.048  10.088 -0.1969  0.0341 -0.2682
26922SOL    HW186603  12.005   7.963  10.072  1.4315  0.4779  1.2749
26922SOL    HW286604  11.915   8.036  10.170 -0.1701  0.5304 -0.1794
26923SOL     OW86605   0.486   6.351   8.246  0.0398 -0.2116  0.5513
26923SOL    HW186606   0.516   6.435   8.281 -0.8311  0.3682 -0.0596
26923SOL    HW286607   0.417   6.323   8.306 -0.0037 -0.2572  0.4804
26924SOL     OW86608  10.486   9.629   4.170 -0.4217 -0.7102 -0.1467
26924SOL    HW186609  10.490   9.705   4.112 -1.6781  0.6504  1.4385
26924SOL    HW286610  10.558   9.642   4.231 -1.7970  0.3724  1.3594
26925SOL     OW86611   3.897  10.353   9.664  0.0369  0.3313 -0.0640
26925SOL    HW186612   3.843  10.282   9.698 -2.5379  1.3826 -1.6563
26925SOL    HW286613   3.920  10.405   9.741 -0.7620 -0.4636  0.7290
26926SOL     OW86614   4.096   6.948   5.753  0.0388 -0.3352  0.2175
26926SOL    HW186615   4.118   7.018   5.814 -1.2956  1.6768 -1.4545
26926SOL    HW286616   4.042   6.888   5.804 -1.3427  1.4707  0.9930
26927SOL     OW86617   1.284   1.160   4.354 -0.1060  0.5143 -0.4575
26927SOL    HW186618   1.242   1.235   4.311  0.0577  1.2674  0.6711
26927SOL    HW286619   1.252   1.163   4.444  0.1668 -0.5860 -0.3130
26928SOL     OW86620   9.098   7.338   3.040  0.1754 -0.3040  0.2812
26928SOL    HW186621   9.119   7.246   3.026 -0.0684 -0.3193 -0.0082
26928SOL    HW286622   9.010   7.337   3.077  0.8585 -0.2640  1.9723
26929SOL     OW86623   4.500   5.438  11.536 -0.2831 -0.3699  0.1783
26929SOL    HW186624   4.577   5.489  11.510 -0.8482 -0.7547 -2.5198
26929SOL    HW286625   4.537   5.353  11.563  0.4505  0.5578  2.2910
26930SOL     OW86626   0.263   3.368   6.903 -0.2543  0.1203 -1.0829
26930SOL    HW186627   0.303   3.420   6.973 -3.7224  1.3835  0.1726
26930SOL    HW286628   0.273   3.422   6.825 -0.9815  1.2620 -0.4227
26931SOL     OW86629   3.016   9.601   9.440 -0.3289 -0.1011 -0.5510
26931SOL    HW186630   3.012   9.548   9.360  0.3577  2.6710 -2.5800
26931SOL    HW286631   2.924   9.618   9.462 -0.5272 -1.0832 -0.5829
26932SOL     OW86632   1.596  11.684  10.529 -0.3689 -0.8451  0.2041
26932SOL    HW186633   1.667  11.689  10.465  2.5210  1.7888  3.2538
26932SOL    HW286634   1.626  11.621  10.595 -1.5329 -0.7604  0.8526
26933SOL     OW86635   8.936  10.495   8.159  0.3527 -0.5813 -0.0923
26933SOL    HW186636   8.958  10.527   8.072 -1.7546 -0.5467 -0.6704
26933SOL    HW286637   8.977  10.409   8.164  0.7260 -0.4673 -1.0114
26934SOL     OW86638   0.960   8.902  10.055 -0.1562  0.1570  0.5559
26934SOL    HW186639   0.986   8.825  10.005  0.4197  1.7162 -1.7204
26934SOL    HW286640   0.881   8.875  10.102 -0.1434 -1.7129 -0.4066
26935SOL     OW86641   8.519   3.328   3.752  0.0838 -0.2168 -0.2029
26935SOL    HW186642   8.509   3.356   3.843 -1.1022 -2.0276  0.2753
26935SOL    HW286643   8.611   3.346   3.732  0.0645  1.3675  0.9141
26936SOL     OW86644   2.478   0.282   9.251  0.0291  0.2169  0.4181
26936SOL    HW186645   2.443   0.203   9.292  1.2448 -0.2294  0.6461
26936SOL    HW286646   2.573   0.276   9.265  0.4730  0.2064 -2.1751
26937SOL     OW86647   5.526   8.174   9.532  0.0095  0.6157  0.0209
26937SOL    HW186648   5.474   8.111   9.583 -0.4504  0.9658 -0.0109
26937SOL    HW286649   5.613   8.135   9.528 -0.1537  0.2003  0.3959
26938SOL     OW86650   8.075   8.775   5.878  0.6906 -0.0658  0.5662
26938SOL    HW186651   8.007   8.709   5.862 -0.6697  0.9128  2.0532
26938SOL    HW286652   8.031   8.843   5.928  2.9956  0.2083  2.3602
26939SOL     OW86653   9.386   8.397   4.250 -0.1800  0.2622  0.1359
26939SOL    HW186654   9.392   8.440   4.165  0.1937  2.1059  1.0517
26939SOL    HW286655   9.386   8.468   4.313  0.1887 -1.0869  1.7228
26940SOL     OW86656   4.510   6.500   4.164  0.2518  0.2220  0.0463
26940SOL    HW186657   4.449   6.534   4.231  2.0696  0.9172  1.4451
26940SOL    HW286658   4.513   6.568   4.098  0.8877  1.0675  0.9093
26941SOL     OW86659  11.701   3.385   8.075 -0.5002  0.6678 -0.2201
26941SOL    HW186660  11.658   3.313   8.029 -1.1595  0.2994  0.9188
26941SOL    HW286661  11.778   3.345   8.116 -0.3795  0.8070 -0.3089
26942SOL     OW86662  11.992   7.348   8.683  0.0036 -0.2310 -0.6943
26942SOL    HW186663  11.909   7.393   8.665 -0.3700 -0.4239  0.4816
26942SOL    HW286664  12.051   7.378   8.614 -0.7231  0.7633 -0.8965
26943SOL     OW86665   1.073  11.286   9.908 -0.0566 -0.0589 -0.1218
26943SOL    HW186666   1.017  11.285   9.830 -0.5709 -1.5385  0.2324
26943SOL    HW286667   1.150  11.235   9.884 -0.6901 -1.4268  0.6325
26944SOL     OW86668   9.111   5.352   6.131  0.4264  0.3045 -0.4452
26944SOL    HW186669   9.102   5.384   6.041  0.4230 -1.7626 -1.2328
26944SOL    HW286670   9.026   5.311   6.150  0.1002  1.5253  0.8622
26945SOL     OW86671  11.341   2.866  11.838 -0.1615 -0.1290  0.5983
26945SOL    HW186672  11.433   2.882  11.817  0.0614 -0.3717  1.3494
26945SOL    HW286673  11.327   2.774  11.819 -0.5220  0.1309 -0.4516
26946SOL     OW86674   1.308   6.989   2.827  0.2697 -0.2333 -0.3360
26946SOL    HW186675   1.361   7.069   2.821 -0.3647  0.3651  1.2766
26946SOL    HW286676   1.230   7.016   2.876 -1.3234 -1.2029 -2.2109
26947SOL     OW86677   3.775   0.290   1.198  0.3828  0.2096 -0.1189
26947SOL    HW186678   3.832   0.266   1.126 -1.0307 -0.2343 -1.1431
26947SOL    HW286679   3.760   0.209   1.246  0.9903  0.4226  0.4446
26948SOL     OW86680  11.084  11.639   3.721  0.3528  0.7162 -0.3486
26948SOL    HW186681  11.099  11.672   3.632 -0.2288  2.9813  0.3164
26948SOL    HW286682  10.989  11.649   3.734  0.6582  2.1778  1.1122
26949SOL     OW86683  11.463   9.765   5.040  0.4793  0.2961 -0.1577
26949SOL    HW186684  11.453   9.682   4.994  0.2661  0.5088 -0.4966
26949SOL    HW286685  11.544   9.802   5.006  0.6381  0.1742  0.0817
26950SOL     OW86686   6.761   6.177   4.644  0.7901 -0.1453 -0.1619
26950SOL    HW186687   6.820   6.252   4.647  0.9154 -0.2707  1.2509
26950SOL    HW286688   6.675   6.213   4.665  0.5637 -0.1459 -1.0730
26951SOL     OW86689   4.052   7.270  10.211 -0.0443  0.0646 -0.1899
26951SOL    HW186690   4.030   7.260  10.118 -0.7773 -0.0290 -0.0180
26951SOL    HW286691   3.993   7.340  10.241  0.1678  0.0707  0.2107
26952SOL     OW86692   6.416   1.036   7.148  0.6369 -0.6224  0.2139
26952SOL    HW186693   6.477   1.019   7.219  0.2986  0.4841  0.7825
26952SOL    HW286694   6.380   0.950   7.127  0.9508 -1.0049  1.1774
26953SOL     OW86695   6.027   4.046   3.939 -0.1405  0.1265 -0.0517
26953SOL    HW186696   6.079   4.044   4.020  0.0791  1.6406 -0.1194
26953SOL    HW286697   6.054   3.968   3.891  0.6755 -0.1154  0.7723
26954SOL     OW86698   4.660   1.241   4.497  0.6187  0.0136  0.2137
26954SOL    HW186699   4.600   1.180   4.540 -0.0661  2.3956  3.0459
26954SOL    HW286700   4.606   1.287   4.433  0.3542 -0.3522  0.1734
26955SOL     OW86701   3.616   2.295   4.156 -0.4155 -0.0638  0.5146
26955SOL    HW186702   3.672   2.219   4.170 -0.8242 -0.3995  0.3834
26955SOL    HW286703   3.667   2.354   4.101  0.3426  0.2738  1.5582
26956SOL     OW86704   4.032   5.050   1.241  0.4672 -0.0782 -0.5208
26956SOL    HW186705   3.966   5.000   1.194 -0.1591  0.6464 -0.4383
26956SOL    HW286706   4.049   5.126   1.185 -0.7953  1.1627  0.6922
26957SOL     OW86707   7.282   4.712  10.618  0.6397 -0.0525  0.5321
26957SOL    HW186708   7.214   4.679  10.678 -1.4661  3.3270  0.2805
26957SOL    HW286709   7.233   4.742  10.541  2.4029  2.1613  0.1687
26958SOL     OW86710   2.528   1.251   3.540  0.1193  0.0845  0.1331
26958SOL    HW186711   2.603   1.222   3.591  0.3871 -0.6356 -0.6580
26958SOL    HW286712   2.564   1.272   3.454 -0.7125 -1.1007 -0.5217
26959SOL     OW86713   6.030   0.217   9.299  0.3317  0.4199 -0.1166
26959SOL    HW186714   6.122   0.243   9.295  0.3629  0.2938 -0.2394
26959SOL    HW286715   6.021   0.174   9.384  0.2511  0.9371  0.1370
26960SOL     OW86716   8.837   2.536  11.150 -0.6104 -0.3722  0.0828
26960SOL    HW186717   8.863   2.530  11.059  1.4843  0.6791  0.5509
26960SOL    HW286718   8.916   2.514  11.199 -1.0991  1.0842  1.6282
26961SOL     OW86719   0.773   8.101   6.184 -0.2909  0.7193 -0.2590
26961SOL    HW186720   0.861   8.067   6.203  0.1468  2.3449  0.8535
26961SOL    HW286721   0.721   8.023   6.167  1.4212 -0.2724 -1.2564
26962SOL     OW86722   5.091   6.461   8.596 -0.5521  0.0220  0.1570
26962SOL    HW186723   5.163   6.514   8.631  2.0442 -2.6334 -0.7943
26962SOL    HW286724   5.054   6.418   8.672  1.3932 -1.4289  0.3600
26963SOL     OW86725   4.317   1.011   5.694  0.3095  0.9013  0.2569
26963SOL    HW186726   4.347   0.948   5.628 -1.5320 -0.7935  0.9315
26963SOL    HW286727   4.337   0.969   5.777 -0.2701  1.5522  0.7312
26964SOL     OW86728   0.776  10.518  12.043  0.3536 -0.3890 -0.2019
26964SOL    HW186729   0.845  10.469  11.998  0.7314  0.1289 -0.1938
26964SOL    HW286730   0.701  10.514  11.983  0.7750  0.0803 -0.7643
26965SOL     OW86731   5.737  10.609   8.105  0.5223  0.2811 -0.0338
26965SOL    HW186732   5.800  10.655   8.161  0.8354  0.3358 -0.4264
26965SOL    HW286733   5.678  10.677   8.074  1.2387  0.5041 -0.9549
26966SOL     OW86734  11.305  10.441   1.774  0.5505 -0.3636  0.2523
26966SOL    HW186735  11.310  10.429   1.869  0.0725  0.5027  0.3987
26966SOL    HW286736  11.238  10.509   1.762  0.6905 -0.3805 -0.6975
26967SOL     OW86737   3.116  10.359   6.514  0.4889 -0.2145  0.0292
26967SOL    HW186738   3.036  10.310   6.534 -0.2131  1.3063  1.2752
26967SOL    HW286739   3.145  10.326   6.430 -0.7358 -1.7148  0.1512
26968SOL     OW86740   3.038   8.678   7.726  0.5720 -0.0178 -0.4769
26968SOL    HW186741   3.111   8.617   7.713  0.6202 -0.2515  0.7414
26968SOL    HW286742   3.081   8.763   7.741  0.5008  0.3756 -2.3363
26969SOL     OW86743   5.720   2.209   3.970 -0.1837  0.5140 -0.0377
26969SOL    HW186744   5.692   2.238   4.057 -1.9057 -0.8323 -0.0923
26969SOL    HW286745   5.815   2.226   3.969 -0.0896  0.4248  2.1593
26970SOL     OW86746   5.787   5.111   5.694 -0.4657  0.4491  0.0942
26970SOL    HW186747   5.697   5.098   5.723 -0.5661 -0.0537 -0.4242
26970SOL    HW286748   5.829   5.026   5.709  0.0338  0.8017  0.7261
26971SOL     OW86749   0.116   4.596   8.418 -0.0821 -0.0507 -0.0458
26971SOL    HW186750   0.103   4.636   8.503 -1.5783 -0.2640 -0.1587
26971SOL    HW286751   0.145   4.668   8.362 -1.7137  0.6935  0.0110
26972SOL     OW86752  11.164   4.520   4.271 -0.6302  0.6628 -0.0643
26972SOL    HW186753  11.141   4.572   4.195  0.0179 -0.4745 -1.0749
26972SOL    HW286754  11.090   4.461   4.284 -1.8981  2.5120  1.7943
26973SOL     OW86755   9.727   7.180   1.556  0.0753  0.1456  0.2762
26973SOL    HW186756   9.712   7.273   1.542  1.5435  0.1953 -1.2564
26973SOL    HW286757   9.821   7.168   1.538  0.0379 -1.5266  1.0415
26974SOL     OW86758   8.659   6.554   4.931  0.2738 -0.1046  0.3389
26974SOL    HW186759   8.573   6.546   4.891  0.4859 -0.4295 -0.0587
26974SOL    HW286760   8.703   6.472   4.910  0.0672 -0.6936  2.0382
26975SOL     OW86761   2.064   7.279   2.258 -0.3605  0.3637 -0.2555
26975SOL    HW186762   1.994   7.215   2.271 -0.1503  0.2922  0.5331
26975SOL    HW286763   2.032   7.334   2.186  0.1990 -1.6598 -2.1931
26976SOL     OW86764   4.469   6.279   7.452  0.8572  0.3886  0.1681
26976SOL    HW186765   4.562   6.268   7.475  0.7257 -0.9796  0.0758
26976SOL    HW286766   4.471   6.313   7.363  1.2726 -0.6916 -0.2526
26977SOL     OW86767  10.529  10.340   5.806 -0.0977  0.1686 -0.4289
26977SOL    HW186768  10.495  10.335   5.895 -1.0936 -1.8482 -0.8687
26977SOL    HW286769  10.545  10.433   5.792 -2.8400  0.9261  0.8050
26978SOL     OW86770   2.472   2.135   3.088 -0.3237  0.3674  0.3139
26978SOL    HW186771   2.394   2.190   3.083  0.0071  0.8515  0.4004
26978SOL    HW286772   2.516   2.149   3.004  0.5684  1.4721  0.9271
26979SOL     OW86773  10.579   1.299  11.384  0.4843  0.2706  0.2902
26979SOL    HW186774  10.580   1.344  11.468 -1.8098 -0.5392  0.8282
26979SOL    HW286775  10.570   1.206  11.406 -0.7690  0.0977 -0.8146
26980SOL     OW86776   1.969   1.142   2.708 -0.3253 -0.2115  0.3757
26980SOL    HW186777   2.065   1.150   2.705 -0.2952 -0.1616  1.1531
26980SOL    HW286778   1.954   1.060   2.755 -0.6637 -0.3863 -0.0407
26981SOL     OW86779   0.584   9.048  10.694  0.7353  0.1106  0.3997
26981SOL    HW186780   0.530   9.121  10.663  1.2521  0.4811  0.3650
26981SOL    HW286781   0.637   9.024  10.618  0.2431 -0.6076  0.2725
26982SOL     OW86782   5.704   6.165   6.355 -0.5159  0.3425  0.8223
26982SOL    HW186783   5.793   6.163   6.392 -0.2231 -0.9233  0.0728
26982SOL    HW286784   5.653   6.110   6.414 -0.8767  1.2344  1.3704
26983SOL     OW86785  12.053   8.540   5.702 -0.6854 -0.6196 -0.1882
26983SOL    HW186786  11.977   8.584   5.741 -1.5921 -2.3933  0.1292
26983SOL    HW286787  12.128   8.583   5.742 -1.5601 -0.3790  1.2725
26984SOL     OW86788  12.095   0.232   8.000 -0.9320 -0.2425 -0.3533
26984SOL    HW186789  12.017   0.265   7.957 -0.1064  1.8254 -0.3871
26984SOL    HW286790  12.153   0.308   8.006  0.7675 -1.5257  0.3631
26985SOL     OW86791   2.127   2.855   2.616 -0.3185  0.1313  0.2420
26985SOL    HW186792   2.195   2.916   2.587 -1.1651  0.1394 -1.9226
26985SOL    HW286793   2.159   2.821   2.699  0.6468  2.8059  1.0710
26986SOL     OW86794   0.969   0.024   1.001 -0.0361  0.0175  1.2105
26986SOL    HW186795   0.985   0.116   0.981 -0.6258 -0.1763 -0.3258
26986SOL    HW286796   0.975  -0.020   0.916 -0.0877 -1.3166  1.8714
26987SOL     OW86797   0.308  10.819   4.936  0.2925 -0.5445  0.3206
26987SOL    HW186798   0.304  10.856   4.848  2.0030 -3.2592 -1.0693
26987SOL    HW286799   0.338  10.891   4.992 -1.0192  1.3075 -1.2431
26988SOL     OW86800   2.052   5.122  11.905 -0.0200  0.4578 -0.6384
26988SOL    HW186801   2.033   5.059  11.835  1.3033  1.4410 -1.9312
26988SOL    HW286802   1.966   5.152  11.934 -0.6048  0.8809 -2.6636
26989SOL     OW86803  10.275   2.428  10.701  0.0014  0.2217 -0.4794
26989SOL    HW186804  10.187   2.428  10.737  0.4241  1.7523  0.6593
26989SOL    HW286805  10.328   2.384  10.767  0.5643  1.9435  0.2865
26990SOL     OW86806   6.819   5.091   2.325  0.3630  0.3553 -0.6068
26990SOL    HW186807   6.725   5.083   2.308  0.0565  1.0400  0.6485
26990SOL    HW286808   6.830   5.064   2.416  1.2517  1.1396 -0.4626
26991SOL     OW86809   7.980  12.311  11.988  0.5127  0.3213 -0.5496
26991SOL    HW186810   8.032  12.239  11.953 -0.5929 -0.9555  0.3546
26991SOL    HW286811   7.994  12.307  12.082 -1.1067  0.0314 -0.3001
26992SOL     OW86812   9.497  10.781   1.975  0.1822 -0.2728 -0.3850
26992SOL    HW186813   9.508  10.854   1.915  0.2780  0.1693  0.1564
26992SOL    HW286814   9.414  10.798   2.018  0.9719  0.4332  0.9460
26993SOL     OW86815  11.085   4.447   1.148 -0.5004 -0.1201  0.1903
26993SOL    HW186816  11.118   4.477   1.233 -2.2925  1.7226  0.3189
26993SOL    HW286817  10.989   4.453   1.156 -0.7250 -0.2723 -1.8203
26994SOL     OW86818   9.436   1.585   5.375  0.4091 -0.5130  0.4617
26994SOL    HW186819   9.474   1.598   5.462 -0.0199  2.1689  0.3227
26994SOL    HW286820   9.343   1.570   5.392  0.5064 -1.1255  0.4916
26995SOL     OW86821   3.664   2.991   7.649 -0.0798 -0.4972  0.1799
26995SOL    HW186822   3.666   2.896   7.659 -1.7821 -0.8762 -2.2143
26995SOL    HW286823   3.695   3.006   7.559  2.8337  1.4919  1.3705
26996SOL     OW86824   3.801   0.299   7.068 -0.1899  0.5025  0.0043
26996SOL    HW186825   3.876   0.312   7.125 -1.8933  0.4626  2.3876
26996SOL    HW286826   3.818   0.216   7.023  0.6542 -0.1039  1.4049
26997SOL     OW86827   5.998   5.547   6.838 -0.0415  0.4408  0.5996
26997SOL    HW186828   6.091   5.531   6.853  1.0522  3.7432 -1.7004
26997SOL    HW286829   5.981   5.631   6.881 -1.2352  1.1806 -1.2102
26998SOL     OW86830   5.219   0.711  11.625 -0.0896 -0.1595  0.1560
26998SOL    HW186831   5.184   0.622  11.620 -1.3607  0.2770  0.7868
26998SOL    HW286832   5.275   0.710  11.702 -0.5649 -0.2777  0.5086
26999SOL     OW86833   9.633   8.681   7.699  0.7435 -0.2985  0.6735
26999SOL    HW186834   9.549   8.673   7.744 -0.3908 -0.4219 -1.3613
26999SOL    HW286835   9.637   8.772   7.671  0.2042 -0.7914 -1.1474
27000SOL     OW86836  10.549   6.113   4.569 -0.2173  0.3604 -0.7121
27000SOL    HW186837  10.620   6.165   4.606 -0.1426  1.4830 -2.3201
27000SOL    HW286838  10.589   6.068   4.495 -0.5556 -1.1644 -0.0020
27001SOL     OW86839   4.524   8.377  10.961 -0.1410  0.2410  0.3001
27001SOL    HW186840   4.438   8.358  10.998 -0.5970 -1.8479 -1.6837
27001SOL    HW286841   4.527   8.473  10.956 -1.9440  0.3833  1.2618
27002SOL     OW86842  10.870   4.513   4.109 -0.2060  0.1271 -0.1494
27002SOL    HW186843  10.954   4.539   4.072  0.1892 -0.7683  0.1087
27002SOL    HW286844  10.886   4.427   4.148 -0.3875  1.2689  2.7621
27003SOL     OW86845   3.645   6.793   5.388  0.5108  0.0640  0.6790
27003SOL    HW186846   3.670   6.703   5.369  0.3604  0.2509 -0.5201
27003SOL    HW286847   3.657   6.802   5.482  2.4807 -0.6167  0.5491
27004SOL     OW86848  10.697   9.321   5.928 -0.1224  0.6300  0.4398
27004SOL    HW186849  10.720   9.339   5.837  2.5026 -0.1177  0.8680
27004SOL    HW286850  10.719   9.229   5.941 -1.2430  0.4925  1.6463
27005SOL     OW86851   4.485   0.303   5.803  0.5749 -0.3834  0.4892
27005SOL    HW186852   4.450   0.305   5.892  0.6408  1.3112  0.5065
27005SOL    HW286853   4.408   0.296   5.747  0.4661 -0.3829  0.6397
27006SOL     OW86854  10.797  10.399   5.944  0.8514 -0.6677 -0.2243
27006SOL    HW186855  10.734  10.433   5.880  1.2954  1.4078  0.3704
27006SOL    HW286856  10.867  10.465   5.947  0.3535 -0.1026  3.1274
27007SOL     OW86857   7.605  11.279  10.139  0.0554 -0.3694 -0.1493
27007SOL    HW186858   7.699  11.266  10.134  0.0928 -0.8059  1.3945
27007SOL    HW286859   7.571  11.203  10.186 -1.0964 -0.2963 -0.8053
27008SOL     OW86860   1.873  11.095   2.456 -0.4052 -0.2247 -0.0428
27008SOL    HW186861   1.901  11.062   2.371  2.9135 -0.6334  1.0583
27008SOL    HW286862   1.896  11.188   2.454  0.5246 -0.4292  0.6887
27009SOL     OW86863  10.113   7.889   8.864 -0.6727  0.2302 -0.4419
27009SOL    HW186864  10.149   7.976   8.880  2.7879 -1.5015  2.7901
27009SOL    HW286865  10.051   7.875   8.935  0.4679 -0.6429  0.4289
27010SOL     OW86866   0.505   8.338   0.072  0.4342 -0.4014  0.8737
27010SOL    HW186867   0.566   8.399   0.114  0.2949  0.0933  0.3656
27010SOL    HW286868   0.424   8.387   0.064  0.1720 -0.8246  0.9114
27011SOL     OW86869   0.809   4.183   9.289  0.6442 -0.0383 -0.7651
27011SOL    HW186870   0.744   4.114   9.305  0.8562 -0.3093 -1.0804
27011SOL    HW286871   0.762   4.265   9.309  0.8034 -0.3287  0.9996
27012SOL     OW86872  11.927  10.679  11.424  0.4129  0.1906  0.5183
27012SOL    HW186873  11.922  10.587  11.398  1.3392 -0.1812  1.5740
27012SOL    HW286874  11.879  10.684  11.507  2.0282  0.2244  1.4933
27013SOL     OW86875   4.395   3.585   0.626  0.4093 -0.1025 -0.2055
27013SOL    HW186876   4.421   3.674   0.648 -1.5809  0.2068  1.2178
27013SOL    HW286877   4.406   3.536   0.707 -2.9345  0.0276  0.4911
27014SOL     OW86878   1.041   1.142   7.532 -0.3330 -0.1842 -0.5440
27014SOL    HW186879   1.056   1.049   7.516  0.0026 -0.3328  0.5496
27014SOL    HW286880   0.947   1.154   7.516 -0.5112 -0.8568 -0.0544
27015SOL     OW86881   1.332   6.862   1.748 -0.3589 -0.1705 -0.2828
27015SOL    HW186882   1.258   6.843   1.691 -1.4871 -0.5530  1.2370
27015SOL    HW286883   1.372   6.777   1.765 -1.3300 -0.3733  1.1581
27016SOL     OW86884   7.004  10.537   9.921  0.3666  0.3408  0.7291
27016SOL    HW186885   7.024  10.557   9.830  1.9580 -0.5761  0.8474
27016SOL    HW286886   7.023  10.618   9.968 -3.1640  1.8098  0.0068
27017SOL     OW86887   9.891  11.032  10.083  0.2087  0.0042  0.2630
27017SOL    HW186888   9.917  11.000   9.996 -0.3950  1.8668 -0.6504
27017SOL    HW286889   9.944  10.981  10.144  1.0075 -1.0071 -1.2104
27018SOL     OW86890   0.489   0.059   4.654 -0.1221  0.2014 -0.8055
27018SOL    HW186891   0.422   0.122   4.627 -0.6930  0.0438  0.1829
27018SOL    HW286892   0.468   0.041   4.746 -0.7465 -2.3796 -1.3758
27019SOL     OW86893   0.310   5.551   5.717 -0.5965 -0.0966  0.0353
27019SOL    HW186894   0.279   5.485   5.780  1.4509 -1.6789 -0.4998
27019SOL    HW286895   0.267   5.632   5.745  0.8397 -0.4835  4.0876
27020SOL     OW86896   3.955   4.103   8.167  0.1025  0.2963  0.3708
27020SOL    HW186897   3.906   4.037   8.216 -1.2955 -0.6985 -2.1402
27020SOL    HW286898   3.904   4.183   8.178  0.6420  0.4866  1.7009
27021SOL     OW86899   2.962   7.727   8.187  0.4010 -0.0304  0.3514
27021SOL    HW186900   2.906   7.664   8.141  0.7536  0.3691 -0.6599
27021SOL    HW286901   2.931   7.813   8.158  0.4113  0.2455  1.1384
27022SOL     OW86902   8.410   0.443   6.502  0.1514  0.3531  0.5256
27022SOL    HW186903   8.393   0.380   6.572 -2.4003  0.2504 -0.0895
27022SOL    HW286904   8.506   0.445   6.494  0.3767 -2.1966  1.6730
27023SOL     OW86905  11.007   4.338   8.167 -0.2047 -0.2652  0.8528
27023SOL    HW186906  11.096   4.374   8.162 -0.3389 -0.1269 -1.1266
27023SOL    HW286907  10.996   4.317   8.260  2.0174 -0.5813  1.1214
27024SOL     OW86908   8.274   1.056  10.735 -0.8066  0.3744  0.2499
27024SOL    HW186909   8.290   1.151  10.742 -3.0070  0.8069  0.0838
27024SOL    HW286910   8.362   1.018  10.734  0.1657  2.4398 -0.2289
27025SOL     OW86911   7.611  12.207  12.291  0.3224  0.2139  0.5715
27025SOL    HW186912   7.547  12.277  12.275 -2.4463 -2.2560 -0.0227
27025SOL    HW286913   7.605  12.189  12.384  1.7370  1.3309  0.9057
27026SOL     OW86914   9.291   1.246   9.108  0.0687 -0.0806  0.2470
27026SOL    HW186915   9.337   1.298   9.042 -0.0428 -0.3114 -0.0115
27026SOL    HW286916   9.299   1.298   9.188  1.1862 -0.3410  0.3143
27027SOL     OW86917   5.185   2.890   1.433  0.0685 -0.4770  0.1458
27027SOL    HW186918   5.143   2.860   1.513 -2.4362 -0.1267 -0.9233
27027SOL    HW286919   5.176   2.985   1.435 -1.2134 -0.5388 -1.1049
27028SOL     OW86920   3.545   7.063   3.556  0.1435 -0.1492  0.1634
27028SOL    HW186921   3.521   7.140   3.504 -0.4816 -0.2649  0.2785
27028SOL    HW286922   3.515   7.084   3.644  0.0343 -0.4989  0.2089
27029SOL     OW86923   6.521  10.293   3.189 -0.4196 -0.2454 -0.0264
27029SOL    HW186924   6.479  10.375   3.164 -0.0200 -0.2053 -0.5828
27029SOL    HW286925   6.453  10.227   3.178 -0.8352  0.0359  0.7123
27030SOL     OW86926   1.146   2.873   6.541 -0.2907 -0.1399  0.1266
27030SOL    HW186927   1.174   2.793   6.586 -0.2432 -0.8358 -1.1147
27030SOL    HW286928   1.146   2.940   6.610 -1.2951 -1.4047  1.4125
27031SOL     OW86929   6.889   8.582   7.093 -0.0457 -0.1765  0.0953
27031SOL    HW186930   6.899   8.489   7.077  0.8448 -0.0864  0.0825
27031SOL    HW286931   6.967   8.607   7.143 -0.7262  0.3742  0.9294
27032SOL     OW86932   3.421   5.495   6.361  0.0497 -0.1096  0.1158
27032SOL    HW186933   3.359   5.497   6.433 -0.2024  2.0277 -0.1045
27032SOL    HW286934   3.477   5.572   6.375  0.9625 -0.5071 -1.1363
27033SOL     OW86935   7.335   1.149   6.232 -0.1413 -0.1721 -0.7699
27033SOL    HW186936   7.353   1.163   6.325 -0.7598  2.4681 -0.9645
27033SOL    HW286937   7.421   1.135   6.192  0.3484  0.7488 -0.0651
27034SOL     OW86938   0.488  11.628  10.524  0.3392 -0.4657 -0.0787
27034SOL    HW186939   0.394  11.613  10.534  0.1574 -0.4817 -1.5921
27034SOL    HW286940   0.519  11.648  10.613 -1.6375  2.6106  0.0380
27035SOL     OW86941   8.830   1.694  11.224  0.4185  0.0468 -0.1894
27035SOL    HW186942   8.778   1.653  11.293  0.3987 -2.1927 -1.4140
27035SOL    HW286943   8.765   1.721  11.158  0.4928  1.5111  0.3050
27036SOL     OW86944  10.977  10.112   3.194  0.0175  0.2194 -0.1197
27036SOL    HW186945  10.902  10.162   3.160  0.8785  1.5992 -0.1045
27036SOL    HW286946  10.940  10.029   3.222 -1.3374  0.4629 -1.0649
27037SOL     OW86947   4.988   5.726   4.871  0.7622  0.0539 -0.2329
27037SOL    HW186948   5.014   5.663   4.938  1.4483 -0.6526 -1.1441
27037SOL    HW286949   5.025   5.809   4.901  0.7917 -0.1935  0.4194
27038SOL     OW86950  11.786   9.964   8.392 -0.0234  0.0151  0.1976
27038SOL    HW186951  11.845   9.893   8.368 -0.2497  0.2363 -1.0728
27038SOL    HW286952  11.844  10.035   8.422  0.1597 -1.0513  2.5750
27039SOL     OW86953  11.610   9.852  11.409 -0.2259 -0.0243 -0.3600
27039SOL    HW186954  11.555   9.776  11.394  0.7475 -0.6648 -0.7909
27039SOL    HW286955  11.583   9.916  11.344 -0.2819 -0.4283 -0.7325
27040SOL     OW86956   2.350  12.322   0.543  1.0325  1.3823  0.4934
27040SOL    HW186957   2.328  12.285   0.628  1.1822  1.1279  0.4220
27040SOL    HW286958   2.413  12.391   0.562  1.5449  0.9109  0.5341
27041SOL     OW86959  10.893   9.244   9.261 -0.6640 -0.1941  0.1765
27041SOL    HW186960  10.880   9.304   9.334 -0.0605  0.0373  0.0994
27041SOL    HW286961  10.919   9.162   9.302  1.5346  0.4489  0.1637
27042SOL     OW86962   2.116   6.658  10.337 -0.2174  0.1244  0.0306
27042SOL    HW186963   2.209   6.661  10.356 -0.0555 -1.3651 -0.3538
27042SOL    HW286964   2.074   6.700  10.411  0.8102  1.9981 -0.4099
27043SOL     OW86965   0.344   6.049   7.131  0.6469 -0.3530  0.2272
27043SOL    HW186966   0.259   6.086   7.156  0.2343 -1.1682  0.0629
27043SOL    HW286967   0.387   6.028   7.213  0.6916  0.0491  0.3108
27044SOL     OW86968   8.212  11.939   5.021  0.3273  0.3651  0.7953
27044SOL    HW186969   8.217  11.844   5.015  2.0685  0.4980 -0.8510
27044SOL    HW286970   8.199  11.957   5.114  1.4137 -1.4444  1.3470
27045SOL     OW86971   8.326   0.045  11.814  0.3048  0.0572  0.3293
27045SOL    HW186972   8.403  -0.010  11.823 -0.3792 -1.0150 -0.1835
27045SOL    HW286973   8.260   0.002  11.869 -0.1023  0.6326  0.2932
27046SOL     OW86974   1.826   4.440   1.647 -0.3346  0.1975 -0.5156
27046SOL    HW186975   1.852   4.528   1.622  0.9415 -0.1983 -0.6572
27046SOL    HW286976   1.738   4.429   1.610 -0.0423  0.9947 -1.4762
27047SOL     OW86977   0.347   7.085   8.448 -0.1084  0.0416  0.6372
27047SOL    HW186978   0.350   7.046   8.360 -1.3583 -1.9304  1.4098
27047SOL    HW286979   0.439   7.091   8.475  0.3636  1.4057 -1.0433
27048SOL     OW86980   0.481   7.270   5.223  0.6256  0.8394 -0.1367
27048SOL    HW186981   0.498   7.264   5.317 -0.9275 -2.9970  0.0804
27048SOL    HW286982   0.567   7.253   5.182  0.9791  0.7869  0.6140
27049SOL     OW86983   6.629   5.360   0.823 -0.0317 -0.0312  0.1731
27049SOL    HW186984   6.717   5.377   0.790 -0.8967  1.2555 -1.6512
27049SOL    HW286985   6.585   5.445   0.820 -0.7620 -0.1865  3.0652
27050SOL     OW86986   0.774   0.096   9.771  0.1967 -0.6054  0.2962
27050SOL    HW186987   0.858   0.056   9.795  0.1453  0.0886  1.7760
27050SOL    HW286988   0.740   0.131   9.854 -1.0655  0.0358 -0.4636
27051SOL     OW86989  10.653   2.178   3.268  0.6566  0.0553 -0.8289
27051SOL    HW186990  10.749   2.176   3.275  0.7569  1.2112 -1.4893
27051SOL    HW286991  10.623   2.108   3.326  1.8958 -0.2410 -0.5069
27052SOL     OW86992   2.282   2.105   3.807 -0.3050 -0.3208 -0.1809
27052SOL    HW186993   2.374   2.132   3.815 -0.0640 -0.9961 -0.6690
27052SOL    HW286994   2.284   2.025   3.755 -1.0982 -0.8067  0.5073
27053SOL     OW86995   1.901   1.965  11.175  0.1225 -0.0364 -0.0638
27053SOL    HW186996   1.825   1.936  11.227 -0.0102 -0.9010 -0.7031
27053SOL    HW286997   1.956   2.012  11.237 -0.7549  0.2808  0.5043
27054SOL     OW86998   1.010   8.598  11.189  0.2162  0.1684 -0.0405
27054SOL    HW186999   0.950   8.672  11.197  0.3250  0.2475  0.0436
27054SOL    HW287000   0.958   8.522  11.215  0.8366  0.5230  2.4697
27055SOL     OW87001   7.785   4.218   3.262 -0.1617 -0.6953 -0.5772
27055SOL    HW187002   7.727   4.148   3.231  0.4115 -1.2642 -0.3981
27055SOL    HW287003   7.764   4.226   3.355  0.8564 -1.7389 -0.2298
27056SOL     OW87004  10.398   5.748  12.045 -0.4151 -0.6063 -0.2760
27056SOL    HW187005  10.413   5.655  12.064  0.4362 -0.3328  0.5210
27056SOL    HW287006  10.350   5.749  11.963 -1.0656 -1.7739  0.0729
27057SOL     OW87007  10.036   3.141   6.461 -0.1491 -0.1383 -0.2062
27057SOL    HW187008  10.025   3.189   6.379  1.0390  3.1661  1.3574
27057SOL    HW287009  10.130   3.122   6.465 -0.6914 -3.5157 -1.1313
27058SOL     OW87010  10.055  10.275   0.392  0.1049 -0.0386 -0.0818
27058SOL    HW187011  10.075  10.364   0.364 -0.2778 -0.5629 -2.1872
27058SOL    HW287012  10.084  10.272   0.483  1.2887  1.8521 -0.3310
27059SOL     OW87013   7.674   5.865   6.180  0.2877 -0.3392 -0.0054
27059SOL    HW187014   7.691   5.772   6.192 -0.7396 -0.7899 -1.7428
27059SOL    HW287015   7.756   5.901   6.146 -0.1512 -1.1992 -2.0791
27060SOL     OW87016   3.989  11.228   1.183 -0.4254 -0.0397  0.2909
27060SOL    HW187017   3.970  11.242   1.091 -2.8293  0.7654  0.8247
27060SOL    HW287018   3.907  11.194   1.219  0.9083 -1.7722  1.8652
27061SOL     OW87019   3.277   0.132  10.684  0.4627 -0.1467 -0.1475
27061SOL    HW187020   3.345   0.127  10.617  1.3554 -1.3480  0.7908
27061SOL    HW287021   3.198   0.153  10.636  1.4399  1.0612 -1.3110
27062SOL     OW87022  12.256   6.394  12.002 -0.6174 -0.0614 -0.3194
27062SOL    HW187023  12.287   6.307  11.976  0.0337 -0.0282  0.2901
27062SOL    HW287024  12.285   6.403  12.093  1.2715  1.6389 -1.0159
27063SOL     OW87025   5.408   6.347   6.154 -0.1675  0.3822 -0.1528
27063SOL    HW187026   5.424   6.385   6.068 -0.3675  0.6403 -0.0779
27063SOL    HW287027   5.392   6.422   6.211 -0.2642  0.2015  0.0614
27064SOL     OW87028   6.082   8.616  10.778 -0.3364  0.2541  0.0555
27064SOL    HW187029   6.085   8.703  10.738  0.1053  0.8683  1.3542
27064SOL    HW287030   6.173   8.587  10.782 -0.6073 -1.0926 -1.9907
27065SOL     OW87031   1.888   7.959   2.676 -0.9560  0.2400 -0.7331
27065SOL    HW187032   1.966   7.915   2.642 -0.4186  0.9252 -0.4254
27065SOL    HW287033   1.919   8.004   2.755 -1.6214  0.6667 -0.7117
27066SOL     OW87034  10.698   8.839   6.733  0.3733 -0.2837  0.6396
27066SOL    HW187035  10.786   8.816   6.704  0.2807 -0.6630  0.6553
27066SOL    HW287036  10.644   8.766   6.704  0.2143 -0.4809  1.4384
27067SOL     OW87037   6.814   5.912   8.488  1.0963  0.4508 -0.5353
27067SOL    HW187038   6.829   5.939   8.397 -0.7758  0.8241 -0.7753
27067SOL    HW287039   6.772   5.987   8.529 -0.2052 -0.5257 -0.0058
27068SOL     OW87040  10.917   8.551  12.284  0.2811 -0.0526 -0.1778
27068SOL    HW187041  10.847   8.493  12.313  2.1511 -1.5759  1.6306
27068SOL    HW287042  10.872   8.621  12.236 -2.6965  0.1393  2.5474
27069SOL     OW87043   7.807   1.566   9.404  0.3799 -0.6478 -0.2392
27069SOL    HW187044   7.751   1.627   9.452 -0.8965  0.5962 -3.0075
27069SOL    HW287045   7.851   1.622   9.339  0.7783 -2.3569 -1.5052
27070SOL     OW87046   9.235   5.810   8.733  0.0277 -0.8505  0.4313
27070SOL    HW187047   9.165   5.875   8.744 -0.7658 -1.9190  2.3886
27070SOL    HW287048   9.218   5.771   8.648 -0.3758  0.4831 -0.1287
27071SOL     OW87049   6.885   4.150   3.996 -0.1966  0.2558  0.1317
27071SOL    HW187050   6.937   4.224   4.027 -0.5682 -0.2674  2.1416
27071SOL    HW287051   6.805   4.189   3.961  0.7593  0.9500 -1.3894
27072SOL     OW87052   7.234   7.800   1.293  0.3571 -0.1391  0.5263
27072SOL    HW187053   7.183   7.854   1.233 -0.7562 -0.6866  0.9497
27072SOL    HW287054   7.219   7.710   1.264  0.1780 -0.3826  1.3365
27073SOL     OW87055   7.060   2.698   1.603 -0.0293 -0.4251  0.0326
27073SOL    HW187056   7.043   2.605   1.593 -1.3753 -0.0547 -1.4129
27073SOL    HW287057   7.053   2.714   1.698  1.2319 -1.9358  0.4157
27074SOL     OW87058   3.940   9.902  11.603  0.0739  0.1140 -0.1952
27074SOL    HW187059   3.854   9.877  11.635  0.2068 -0.6572 -0.4077
27074SOL    HW287060   3.994   9.824  11.616  0.7325  0.5753 -0.0957
27075SOL     OW87061   9.833   0.683   5.071  0.4034  0.5811  0.2695
27075SOL    HW187062   9.841   0.707   5.163 -3.6209  2.1020  0.4514
27075SOL    HW287063   9.890   0.745   5.025  0.9993  1.0807  1.6172
27076SOL     OW87064   3.423   8.342   9.713 -0.2907 -0.7887 -0.7207
27076SOL    HW187065   3.500   8.321   9.766 -1.1098 -1.4997  0.2347
27076SOL    HW287066   3.415   8.437   9.718 -1.6558 -0.9182  2.4640
27077SOL     OW87067   6.418   7.201  10.224  0.4806  1.0722 -0.1766
27077SOL    HW187068   6.341   7.169  10.177  1.2339 -0.0480 -0.6821
27077SOL    HW287069   6.489   7.196  10.160  1.1193  1.4592  0.4868
27078SOL     OW87070  10.453   9.788   4.559  0.0486  0.3758 -0.1312
27078SOL    HW187071  10.425   9.748   4.642 -2.3976  0.8748 -0.6313
27078SOL    HW287072  10.490   9.716   4.509  0.3328 -0.2108  0.8829
27079SOL     OW87073   5.878  10.402   5.839 -0.8160  0.2286  0.0649
27079SOL    HW187074   5.817  10.463   5.798 -0.3193 -0.1504 -1.2977
27079SOL    HW287075   5.914  10.450   5.914  1.6305  2.7735 -2.4794
27080SOL     OW87076   3.169   1.403   9.370  0.1751 -0.7997  0.5811
27080SOL    HW187077   3.185   1.310   9.353 -0.5245 -1.0143  1.0673
27080SOL    HW287078   3.074   1.411   9.373  0.2431 -0.2665  1.5732
27081SOL     OW87079   2.143   7.579   0.754 -0.7625 -0.9432  0.3772
27081SOL    HW187080   2.139   7.484   0.742 -0.6745 -0.9363  0.2974
27081SOL    HW287081   2.218   7.593   0.811 -0.4991 -0.8837  0.0182
27082SOL     OW87082   6.062   5.926   6.611  0.1380  0.1953  0.2082
27082SOL    HW187083   6.045   5.971   6.528 -0.7037 -0.7129 -0.1433
27082SOL    HW287084   5.976   5.894   6.638  0.6176 -0.7004  0.7232
27083SOL     OW87085   5.516   8.352   3.144  0.4013  0.6188  0.0233
27083SOL    HW187086   5.536   8.309   3.061  0.8089 -0.6303  0.7307
27083SOL    HW287087   5.446   8.414   3.123  2.9188  3.0654 -1.9817
27084SOL     OW87088   8.639   3.659  11.066 -0.0511 -0.0236 -0.2328
27084SOL    HW187089   8.726   3.618  11.057 -0.0852 -0.0982 -0.2287
27084SOL    HW287090   8.620   3.694  10.979  0.2607  0.5431 -0.0764
27085SOL     OW87091   7.809   4.011  11.536  0.0126  0.9423  0.4158
27085SOL    HW187092   7.798   4.106  11.543  0.9703  0.9417  2.5270
27085SOL    HW287093   7.896   3.994  11.570  0.3194 -0.6298 -0.9942
27086SOL     OW87094   8.126  10.864  10.035 -0.2215  0.2630  0.1540
27086SOL    HW187095   8.034  10.871  10.010 -0.3975  0.0860  0.7158
27086SOL    HW287096   8.152  10.776  10.008  0.9856  1.6357 -3.7350
27087SOL     OW87097   7.650   0.916   8.654 -0.2556 -0.3154  0.2638
27087SOL    HW187098   7.689   1.003   8.644  1.9532 -1.1567  0.9800
27087SOL    HW287099   7.561   0.926   8.618  0.0809  2.0834 -0.1219
27088SOL     OW87100   4.199  10.250   6.130 -0.6781 -0.5186  0.0795
27088SOL    HW187101   4.199  10.284   6.041 -0.0793  2.5658  1.1336
27088SOL    HW287102   4.106  10.246   6.154 -0.7887  0.1447 -0.2020
27089SOL     OW87103   1.040   8.596   2.345 -0.2236  0.4172 -0.3341
27089SOL    HW187104   0.982   8.571   2.417  0.6007 -2.3843 -0.5213
27089SOL    HW287105   1.117   8.632   2.389 -0.9437  1.5941  0.0150
27090SOL     OW87106   6.999   7.915  12.020  0.7396 -0.0577 -0.2047
27090SOL    HW187107   7.075   7.858  12.012 -0.0087 -0.9581 -1.3126
27090SOL    HW287108   7.015   7.986  11.957  0.9216  0.0594 -0.0256
27091SOL     OW87109   3.766   0.849   7.582 -0.1195 -0.1802 -0.4218
27091SOL    HW187110   3.708   0.826   7.655 -0.2478 -0.9271 -0.7577
27091SOL    HW287111   3.711   0.842   7.504  0.6179 -1.6709 -0.8251
27092SOL     OW87112   6.484   6.868   1.395  0.2147 -0.7129 -0.1787
27092SOL    HW187113   6.527   6.849   1.312  0.4162  1.0454 -0.5035
27092SOL    HW287114   6.494   6.787   1.446  2.5847 -0.8730 -0.7919
27093SOL     OW87115   2.238  12.153   4.033 -0.0450 -0.0963 -0.0503
27093SOL    HW187116   2.180  12.102   4.089  1.1696 -0.5213  0.8869
27093SOL    HW287117   2.280  12.089   3.976  0.9582 -0.0887  0.6455
27094SOL     OW87118   1.806   8.878  11.915 -0.5885  0.1353 -0.1396
27094SOL    HW187119   1.746   8.949  11.934 -1.3106 -0.6038  0.3916
27094SOL    HW287120   1.860   8.870  11.993 -0.6511 -0.0398 -0.1127
27095SOL     OW87121   2.998   3.085   9.067 -0.2964 -0.1986  0.1585
27095SOL    HW187122   2.969   3.076   8.976  1.6595  0.3380 -0.5802
27095SOL    HW287123   3.091   3.105   9.060 -0.0324 -0.4436  2.3136
27096SOL     OW87124   9.215   3.891   2.017  0.0805 -0.2244 -0.0506
27096SOL    HW187125   9.271   3.966   1.997  0.9439  0.1812  3.3491
27096SOL    HW287126   9.258   3.818   1.973  1.3164  0.6714 -0.4061
27097SOL     OW87127   0.804   6.379   7.756 -0.2000 -0.0110  0.5634
27097SOL    HW187128   0.867   6.321   7.713  0.0387 -1.4629  2.7202
27097SOL    HW287129   0.848   6.464   7.760 -0.4995  0.3993 -2.5430
27098SOL     OW87130   9.073   0.295   2.492  0.5731 -0.1402  0.1557
27098SOL    HW187131   9.049   0.387   2.498  0.2913 -0.1441 -0.7640
27098SOL    HW287132   9.165   0.296   2.466 -0.4058 -0.0013 -4.1157
27099SOL     OW87133  11.575   2.801   1.646  0.1326 -0.2134  0.2648
27099SOL    HW187134  11.565   2.705   1.650  1.2542 -0.4527 -1.6476
27099SOL    HW287135  11.651   2.819   1.700  0.2828 -0.4872  0.1512
27100SOL     OW87136   7.495  11.790   6.876 -0.2349  0.0335  0.2391
27100SOL    HW187137   7.449  11.721   6.925 -0.7188 -0.5329 -0.9635
27100SOL    HW287138   7.569  11.745   6.837 -0.3983  0.2589 -0.3333
27101SOL     OW87139   4.937   8.119   3.067  0.2676  0.3659 -0.7616
27101SOL    HW187140   4.918   8.081   2.981 -1.6806  1.9825 -1.1330
27101SOL    HW287141   5.017   8.170   3.053  1.7806 -1.8698 -0.7462
27102SOL     OW87142   0.186   9.394   8.489 -0.2339  0.2829  0.1067
27102SOL    HW187143   0.260   9.453   8.478 -1.8797  2.5427  0.3950
27102SOL    HW287144   0.140   9.397   8.406 -0.0781 -1.0440 -0.0472
27103SOL     OW87145   0.405   5.876   5.037 -0.6610 -0.3785  0.3574
27103SOL    HW187146   0.313   5.881   5.014 -1.2405 -1.0848  2.2893
27103SOL    HW287147   0.408   5.817   5.112  1.5199 -1.3156 -0.3669
27104SOL     OW87148   0.789  11.684  11.721  0.2978  0.0330 -0.4511
27104SOL    HW187149   0.707  11.733  11.729  1.1532  1.4418 -0.0095
27104SOL    HW287150   0.843  11.716  11.793  1.0901 -1.1809 -0.4888
27105SOL     OW87151   5.297   9.783   6.347  0.3065  0.3769  0.3756
27105SOL    HW187152   5.208   9.815   6.353  0.2462  0.3312 -0.2142
27105SOL    HW287153   5.289   9.698   6.303  0.7273  0.8111 -0.5631
27106SOL     OW87154   4.016   5.011   2.821 -0.3255 -0.4104 -0.2479
27106SOL    HW187155   4.080   4.998   2.891 -0.2732  1.9022  0.2342
27106SOL    HW287156   3.974   4.926   2.809  0.2249 -1.0536  2.0438
27107SOL     OW87157   3.296   2.528   6.317 -0.4874  0.4044 -0.2523
27107SOL    HW187158   3.391   2.523   6.309 -0.2948 -0.3003  1.9068
27107SOL    HW287159   3.265   2.542   6.227  1.4618 -2.0374 -1.4220
27108SOL     OW87160   0.843   1.597   9.323 -0.5837 -0.3542 -0.2331
27108SOL    HW187161   0.775   1.540   9.360 -0.8143  0.0977  0.0420
27108SOL    HW287162   0.797   1.657   9.266 -0.3832 -0.1954 -0.2298
27109SOL     OW87163   2.455  11.058   5.970  0.0965  0.2856  0.4312
27109SOL    HW187164   2.461  10.964   5.958 -0.6970  0.1974  0.7021
27109SOL    HW287165   2.412  11.069   6.055  0.2474  0.8914  0.4344
27110SOL     OW87166  11.300   1.657  12.174 -0.5507 -0.1316 -0.0270
27110SOL    HW187167  11.260   1.725  12.228  2.5514 -0.2580  2.8419
27110SOL    HW287168  11.337   1.703  12.099 -2.5706  0.5230 -0.6577
27111SOL     OW87169   3.088   6.254   2.823 -0.2346  0.1636 -0.2754
27111SOL    HW187170   3.172   6.278   2.785 -0.9700  0.0509 -2.0519
27111SOL    HW287171   3.082   6.306   2.903  2.4458 -1.4002  1.1146
27112SOL     OW87172   6.441   3.253   4.530 -0.0278 -0.5537  0.6243
27112SOL    HW187173   6.463   3.228   4.440  0.5264 -0.5775  0.7649
27112SOL    HW287174   6.362   3.201   4.550 -0.6909  0.1213 -0.1508
27113SOL     OW87175   3.854   5.055   2.563 -0.0448  0.2603  0.1485
27113SOL    HW187176   3.907   5.066   2.642 -0.5937 -0.0081  0.5667
27113SOL    HW287177   3.913   5.014   2.500  0.2661  0.0268  0.5861
27114SOL     OW87178   6.682   2.826   2.504  0.5764 -0.1209 -0.1746
27114SOL    HW187179   6.595   2.823   2.463 -0.0296 -1.6284  1.1175
27114SOL    HW287180   6.743   2.834   2.431 -0.6307  1.2296 -1.1059
27115SOL     OW87181  11.813   2.175   7.569  0.1380  0.2289 -0.3758
27115SOL    HW187182  11.815   2.085   7.535  0.8543 -0.2424  0.8269
27115SOL    HW287183  11.822   2.230   7.492  0.5033 -0.7583 -1.0585
27116SOL     OW87184   0.486   1.375   2.647  0.2940  0.3380  0.6000
27116SOL    HW187185   0.428   1.342   2.579  0.8555 -0.7841  0.6346
27116SOL    HW287186   0.528   1.452   2.607  1.4711 -0.9623 -0.7862
27117SOL     OW87187  12.275   4.856   5.242  0.0147 -0.1152 -0.6018
27117SOL    HW187188  12.303   4.777   5.196  0.1926  0.4702 -1.5152
27117SOL    HW287189  12.180   4.859   5.227 -0.0983 -0.4907 -0.0184
27118SOL     OW87190   3.611  11.164   4.053  0.4011 -0.1379  0.6712
27118SOL    HW187191   3.567  11.151   3.969  3.5524 -2.5901 -0.8010
27118SOL    HW287192   3.574  11.096   4.110 -1.0268  0.8965  1.0422
27119SOL     OW87193  11.713   4.272  11.351  0.5303  0.2900 -0.1144
27119SOL    HW187194  11.698   4.349  11.296  3.3889 -0.3932 -2.0251
27119SOL    HW287195  11.682   4.198  11.299 -1.6497 -0.0052  1.4677
27120SOL     OW87196   3.815   2.046   1.412  0.0901  0.1350 -0.2181
27120SOL    HW187197   3.886   2.109   1.416 -0.5916  0.8509  1.3045
27120SOL    HW287198   3.736   2.096   1.433 -0.5306 -1.0889  0.5287
27121SOL     OW87199  10.101   7.415  10.788  0.1367 -0.4383 -0.0539
27121SOL    HW187200  10.111   7.359  10.711  1.9513 -0.7859  0.3899
27121SOL    HW287201  10.008   7.409  10.811  0.0607 -2.3374 -0.7042
27122SOL     OW87202   3.819   0.140   7.723  0.0178 -0.2650 -0.4257
27122SOL    HW187203   3.884   0.206   7.699 -0.7559  1.3530  1.5996
27122SOL    HW287204   3.752   0.146   7.654  0.5922  0.1508 -0.9516
27123SOL     OW87205  11.567   1.663  11.303 -0.1984 -0.2503  0.1749
27123SOL    HW187206  11.617   1.639  11.226 -0.3945 -0.8132  0.2159
27123SOL    HW287207  11.524   1.581  11.330 -1.3624  0.2632 -0.0303
27124SOL     OW87208   8.067  11.939   1.809  0.2719  0.4392  0.0410
27124SOL    HW187209   8.106  11.943   1.721  4.3070 -0.9024  1.5419
27124SOL    HW287210   8.003  11.868   1.804  0.9986 -0.1535 -1.6018
27125SOL     OW87211   8.708  11.358   5.094  0.0618 -0.1324 -0.0505
27125SOL    HW187212   8.640  11.301   5.130  1.1929 -1.0205  0.7843
27125SOL    HW287213   8.774  11.298   5.058 -0.1152  0.7135 -1.9315
27126SOL     OW87214   1.046  10.420   9.504  0.4428  0.2173 -0.2261
27126SOL    HW187215   1.045  10.514   9.486 -1.7752  0.4213  0.5959
27126SOL    HW287216   1.046  10.414   9.600 -0.1734 -0.6035 -0.2659
27127SOL     OW87217   3.754   2.350   5.643 -0.0069  0.1316 -0.7890
27127SOL    HW187218   3.693   2.383   5.578 -0.8229  1.1459  0.4382
27127SOL    HW287219   3.812   2.291   5.594 -2.1249 -1.1120 -1.9355
27128SOL     OW87220   1.521   1.928  11.655  0.0557  0.5651  0.3129
27128SOL    HW187221   1.594   1.972  11.698  0.5246 -1.0535  1.2517
27128SOL    HW287222   1.476   1.882  11.726 -1.2863  0.6970 -0.4104
27129SOL     OW87223   2.501   7.010   3.567 -0.0362 -0.4467  0.0597
27129SOL    HW187224   2.505   6.930   3.619 -0.3339 -0.6776 -0.2783
27129SOL    HW287225   2.590   7.020   3.533  0.3267  0.0270  1.0888
27130SOL     OW87226   2.536   7.475   5.943  0.3243  0.0960 -0.2326
27130SOL    HW187227   2.558   7.558   5.901 -0.8406  0.4198 -0.2569
27130SOL    HW287228   2.450   7.491   5.984  0.9183 -0.5330  1.3531
27131SOL     OW87229   7.241   9.068  11.336  0.2961  0.3415 -0.0112
27131SOL    HW187230   7.152   9.100  11.347 -0.2873 -0.9544 -0.8101
27131SOL    HW287231   7.284   9.087  11.420 -0.4071  1.9189  0.0145
27132SOL     OW87232   2.615   8.959   6.827  0.6894 -0.1699 -0.3318
27132SOL    HW187233   2.549   8.941   6.759  0.5324  1.0433 -0.5150
27132SOL    HW287234   2.588   9.042   6.865  2.9540  1.1524 -1.4555
27133SOL     OW87235   5.756   3.764  12.102 -0.0421  0.2575  0.4431
27133SOL    HW187236   5.741   3.835  12.165 -1.5136  0.3344  0.0578
27133SOL    HW287237   5.741   3.805  12.017  1.1859 -0.0286  0.0743
27134SOL     OW87238   4.834  10.466   9.819  0.1757  0.4879  0.9431
27134SOL    HW187239   4.807  10.557   9.808 -0.2504  0.2707  0.1594
27134SOL    HW287240   4.929  10.469   9.815  0.1478  0.4570 -3.0605
27135SOL     OW87241  11.940   7.339   2.231  0.2383 -0.3797  0.0894
27135SOL    HW187242  11.983   7.293   2.303 -0.1495  0.1732  0.6804
27135SOL    HW287243  11.853   7.298   2.226 -0.7816  1.3885  1.7713
27136SOL     OW87244   4.991   3.041   2.685  0.5761  0.7492  0.4533
27136SOL    HW187245   4.968   2.957   2.725  2.5106  0.1669  0.4243
27136SOL    HW287246   4.909   3.072   2.647  0.1957 -2.0696 -1.3149
27137SOL     OW87247  11.211   1.253  10.647  0.0654 -0.1789 -0.1760
27137SOL    HW187248  11.274   1.189  10.680 -1.7701 -2.1741 -0.2808
27137SOL    HW287249  11.129   1.230  10.690 -1.1841  0.6557 -1.9778
27138SOL     OW87250   5.956   6.078   9.982  0.0740  0.3186  0.4632
27138SOL    HW187251   6.017   6.143  10.016  1.4953 -0.2796 -0.7965
27138SOL    HW287252   5.966   6.083   9.887 -0.1977 -1.3022  0.3142
27139SOL     OW87253   0.805  12.133   1.119 -0.5446  0.1847  0.1563
27139SOL    HW187254   0.835  12.053   1.077 -0.3819  0.3241  0.0006
27139SOL    HW287255   0.725  12.156   1.073 -1.1789 -0.4681  0.9162
27140SOL     OW87256   4.662   8.283   0.104  0.5970  0.1595  0.0056
27140SOL    HW187257   4.727   8.352   0.114  0.8757 -0.0691 -0.2186
27140SOL    HW287258   4.578   8.328   0.113  0.7397  0.7312 -1.2947
27141SOL     OW87259   5.944   4.998   2.653  0.2508 -0.1195 -0.0871
27141SOL    HW187260   5.961   4.927   2.591  0.1335  0.6159 -0.9960
27141SOL    HW287261   5.916   4.954   2.733 -0.0985 -1.0912 -0.7185
27142SOL     OW87262   1.816  10.349   3.506  0.5391 -0.3981 -0.0717
27142SOL    HW187263   1.760  10.271   3.504  0.3182 -0.2246 -0.9591
27142SOL    HW287264   1.769  10.414   3.454  0.2523  0.6714  1.4475
27143SOL     OW87265   7.273   5.776   7.152  0.0398  0.0611  0.3596
27143SOL    HW187266   7.185   5.800   7.181  0.1668  0.0824  0.7339
27143SOL    HW287267   7.322   5.763   7.233 -0.2227 -2.2328  0.2075
27144SOL     OW87268   5.757  12.059   7.623  0.3096 -0.5135 -0.0047
27144SOL    HW187269   5.672  12.057   7.580  0.5272 -1.9121 -0.3997
27144SOL    HW287270   5.741  12.023   7.710  0.4365 -0.5131  0.0196
27145SOL     OW87271   7.221   1.193   0.402 -0.5370 -0.2814  0.2947
27145SOL    HW187272   7.125   1.193   0.398 -0.6775 -0.0059  2.5221
27145SOL    HW287273   7.247   1.268   0.350 -1.6205  0.5190  0.8586
27146SOL     OW87274   5.651   0.042   3.170 -0.6399 -0.1016  0.0944
27146SOL    HW187275   5.587  -0.028   3.183  1.2803 -2.3786 -1.6706
27146SOL    HW287276   5.733  -0.004   3.153  0.7944  2.6195 -0.9231
27147SOL     OW87277   3.097   7.006  12.012  1.0885  0.0393  0.1027
27147SOL    HW187278   3.164   6.954  12.056  3.0850  0.7574 -1.8742
27147SOL    HW287279   3.033   6.942  11.982  2.2416 -1.0197 -0.1792
27148SOL     OW87280   6.975  10.935  11.570  0.0944  0.9993 -0.2386
27148SOL    HW187281   7.016  10.964  11.488 -0.3241  1.7139 -0.2068
27148SOL    HW287282   7.026  10.859  11.597  1.1307  1.5952 -0.4387
27149SOL     OW87283   7.974   6.904   2.476 -0.5388  0.3270  0.4141
27149SOL    HW187284   7.970   6.845   2.401 -1.3496  0.3291  0.4488
27149SOL    HW287285   7.994   6.847   2.550  0.7571  0.3885  0.1423
27150SOL     OW87286   7.835  11.145   3.759  0.1345 -0.5765 -0.1317
27150SOL    HW187287   7.804  11.199   3.686 -1.7693 -3.0261 -1.2663
27150SOL    HW287288   7.761  11.142   3.820  0.2857 -1.7320  0.0047
27151SOL     OW87289   0.041   1.098   8.084 -0.3376 -0.2400 -0.0445
27151SOL    HW187290   0.095   1.136   8.153  0.4548 -1.4209  0.0206
27151SOL    HW287291   0.024   1.008   8.112 -1.0105 -0.3733 -0.8188
27152SOL     OW87292   1.560   6.838   2.645 -0.2287  0.2023 -0.2714
27152SOL    HW187293   1.600   6.754   2.669  0.4043  0.6476  0.3010
27152SOL    HW287294   1.545   6.881   2.729 -1.6780  0.1721 -0.4984
27153SOL     OW87295   0.296   2.045   7.176  0.0363 -0.7871 -0.1787
27153SOL    HW187296   0.219   2.013   7.224 -1.1724  0.7034 -1.0345
27153SOL    HW287297   0.282   2.139   7.169  0.3339 -0.8689 -3.0622
27154SOL     OW87298   7.566   0.169   8.909  0.2561 -0.2833 -0.3616
27154SOL    HW187299   7.655   0.142   8.890  0.2425 -0.0106 -0.8161
27154SOL    HW287300   7.564   0.263   8.890 -0.6419 -0.6516 -2.2572
27155SOL     OW87301   5.152   0.863  12.189  0.2957  0.9178 -0.1553
27155SOL    HW187302   5.120   0.946  12.225 -0.0267  0.1470  1.4132
27155SOL    HW287303   5.245   0.877  12.176  0.0710  1.8533 -0.8916
27156SOL     OW87304   9.016   2.172   8.932 -0.0744  0.2326 -0.5422
27156SOL    HW187305   8.926   2.203   8.918 -0.3072 -0.4343 -0.5487
27156SOL    HW287306   9.021   2.154   9.026  0.6398  2.0646 -0.1972
27157SOL     OW87307   7.544   0.942   4.622 -0.4667  0.0355  0.0886
27157SOL    HW187308   7.488   1.001   4.571 -1.1873 -0.0850  0.7215
27157SOL    HW287309   7.537   0.975   4.711 -1.4702 -1.4253  0.5889
27158SOL     OW87310   2.474   8.959  10.648  0.2444  0.1249 -0.3145
27158SOL    HW187311   2.419   8.975  10.725  0.0591 -0.3386 -0.3460
27158SOL    HW287312   2.528   9.038  10.641  0.2201  0.2016  0.2517
27159SOL     OW87313   1.579   8.590   9.848 -0.1343 -0.2678 -0.3402
27159SOL    HW187314   1.662   8.602   9.894 -0.8517 -2.0180  1.5692
27159SOL    HW287315   1.604   8.555   9.763  1.0868 -1.8039  0.5891
27160SOL     OW87316   1.175   8.855   0.956 -0.1215 -0.2051  0.0147
27160SOL    HW187317   1.221   8.772   0.964 -0.0272 -0.2938 -1.2751
27160SOL    HW287318   1.236   8.913   0.910 -1.6401 -0.7012 -2.8732
27161SOL     OW87319   7.216   8.827   2.903 -0.5922  0.4739  0.2718
27161SOL    HW187320   7.252   8.850   2.989 -0.9517  1.9706  0.0482
27161SOL    HW287321   7.222   8.731   2.899  2.6724  0.5832  0.5224
27162SOL     OW87322   1.737  11.552   2.663 -0.1208 -0.8708  0.4624
27162SOL    HW187323   1.767  11.466   2.633 -0.5923 -1.2285  0.9926
27162SOL    HW287324   1.670  11.578   2.600 -0.7484 -1.3910  0.8966
27163SOL     OW87325   5.478  11.158   9.420  0.0408 -0.2644  0.1848
27163SOL    HW187326   5.432  11.086   9.378 -1.2408  0.1420  0.8401
27163SOL    HW287327   5.548  11.117   9.469 -1.1002 -1.1511  1.1191
27164SOL     OW87328   6.180   7.556   2.575  0.1246 -0.2534  0.6396
27164SOL    HW187329   6.145   7.467   2.571  0.6416 -0.4315 -0.0913
27164SOL    HW287330   6.152   7.597   2.493  1.7586 -0.4676 -0.0790
27165SOL     OW87331   2.346  10.405   8.271  0.5986  0.0830 -0.1680
27165SOL    HW187332   2.395  10.485   8.290  1.1241 -0.6662  1.9227
27165SOL    HW287333   2.272  10.407   8.332 -0.3058 -0.2796 -1.2062
27166SOL     OW87334   9.661   8.675   3.330 -0.3899  0.3885 -0.4792
27166SOL    HW187335   9.577   8.700   3.291 -0.8051  0.7474  0.6091
27166SOL    HW287336   9.638   8.641   3.416  0.6298  1.0899  0.0915
27167SOL     OW87337  11.141   1.635   9.758  0.1644  0.1597  0.0233
27167SOL    HW187338  11.186   1.557   9.725 -0.9368  0.3617 -2.0776
27167SOL    HW287339  11.212   1.697   9.776  0.8650  0.2724 -2.6804
27168SOL     OW87340  10.528   4.502   7.655  0.3857 -0.6500 -0.0246
27168SOL    HW187341  10.511   4.523   7.563 -0.7244 -1.0515  0.0762
27168SOL    HW287342  10.441   4.497   7.695  0.8670  2.1100  1.6442
27169SOL     OW87343   3.380   1.362   6.790 -0.5453 -0.3065 -0.1828
27169SOL    HW187344   3.384   1.268   6.808  0.3140 -0.4052 -0.8242
27169SOL    HW287345   3.363   1.367   6.696 -0.3325  0.1811 -0.1932
27170SOL     OW87346   6.609  12.075   3.119  0.2493  0.5555 -0.8175
27170SOL    HW187347   6.632  12.057   3.028 -1.5678  0.0890 -1.2320
27170SOL    HW287348   6.645  12.161   3.137 -0.1710  1.0774 -2.3086
27171SOL     OW87349   8.689   0.654   3.284  0.0943  0.6974 -0.0748
27171SOL    HW187350   8.718   0.635   3.195  0.4279 -0.7533  0.3218
27171SOL    HW287351   8.745   0.727   3.312 -0.8666  2.0319 -1.4589
27172SOL     OW87352   6.650   7.647   8.857 -0.0043 -0.4573 -0.1402
27172SOL    HW187353   6.619   7.737   8.865  0.8029 -0.1039 -0.7676
27172SOL    HW287354   6.598   7.610   8.785 -0.2906 -0.4777  0.0757
27173SOL     OW87355   3.915   7.440   3.074 -0.1222 -0.1148 -0.6855
27173SOL    HW187356   3.932   7.520   3.124  0.7235 -1.2204  0.8921
27173SOL    HW287357   3.838   7.402   3.117 -0.8128  0.0522 -1.7326
27174SOL     OW87358   4.099  12.241  10.968 -0.3659 -0.2889  0.2328
27174SOL    HW187359   4.061  12.278  11.048 -1.6831 -1.4486  0.1842
27174SOL    HW287360   4.193  12.259  10.975 -0.4474 -0.4172  2.0903
27175SOL     OW87361   8.321   0.812   0.388  0.0673 -0.4903  0.3554
27175SOL    HW187362   8.290   0.880   0.447  0.1896 -0.1362  0.0159
27175SOL    HW287363   8.248   0.750   0.383 -0.7886  0.5681 -0.7862
27176SOL     OW87364   9.555  10.385   7.643  0.4570 -0.6299  0.7976
27176SOL    HW187365   9.550  10.304   7.693 -0.5332  0.6384  2.8549
27176SOL    HW287366   9.479  10.382   7.585 -0.6736 -0.3674  2.2071
27177SOL     OW87367   0.608   9.182   5.319  0.4943  0.0031 -0.1245
27177SOL    HW187368   0.701   9.165   5.333  0.0521 -2.1284  0.6734
27177SOL    HW287369   0.585   9.246   5.387  1.3286  0.3844 -0.1883
27178SOL     OW87370   5.755   1.347   6.936  0.4386 -0.3687  0.5500
27178SOL    HW187371   5.742   1.262   6.894  2.1073 -0.3726 -0.0283
27178SOL    HW287372   5.846   1.345   6.966  0.3484  1.0290  0.9852
27179SOL     OW87373   2.319   9.810   2.788  0.6433 -0.1372 -0.1570
27179SOL    HW187374   2.260   9.742   2.821 -0.5294  0.8371 -0.1614
27179SOL    HW287375   2.391   9.762   2.748  0.0253 -1.3679  0.1508
27180SOL     OW87376   3.967   7.170  11.170  0.1099  0.5938 -0.1916
27180SOL    HW187377   3.951   7.260  11.140  1.1899  0.9352  0.1855
27180SOL    HW287378   4.055   7.173  11.207 -0.5853 -0.1501  1.6404
27181SOL     OW87379   1.807   0.018  10.359 -0.2164  0.0020 -0.0086
27181SOL    HW187380   1.856   0.071  10.422  0.2550  1.3111 -1.4411
27181SOL    HW287381   1.873  -0.011  10.296 -0.6658 -1.3874  0.1154
27182SOL     OW87382   5.172   4.954   2.389 -0.0436 -0.3309 -0.6432
27182SOL    HW187383   5.093   5.003   2.410  1.2065  1.9218 -0.9224
27182SOL    HW287384   5.178   4.957   2.294  1.4194  1.3812 -0.5555
27183SOL     OW87385  10.181   5.770   5.626 -0.1044  0.0502  0.7756
27183SOL    HW187386  10.235   5.694   5.646  1.7269  1.2582  0.7130
27183SOL    HW287387  10.129   5.744   5.551  2.2295 -0.4031 -0.7741
27184SOL     OW87388   3.356   5.041  11.975 -0.4080  0.2313  0.7072
27184SOL    HW187389   3.430   5.099  11.957  0.8852 -1.3089  0.8939
27184SOL    HW287390   3.321   5.070  12.059  0.5046  0.4572  1.0110
27185SOL     OW87391   4.080   5.426   0.279  0.0721 -0.0864  0.3529
27185SOL    HW187392   4.047   5.389   0.198  2.4163  2.9242 -2.2263
27185SOL    HW287393   4.002   5.461   0.323 -1.0641 -0.1781 -1.4865
27186SOL     OW87394   1.226   4.118  11.398  0.4716 -0.7224 -0.3961
27186SOL    HW187395   1.306   4.170  11.399  0.1036 -0.1485  0.3967
27186SOL    HW287396   1.180   4.143  11.478 -1.4268  0.4632 -1.7613
27187SOL     OW87397   1.003   7.797   3.529  0.0056  0.1130  0.0094
27187SOL    HW187398   0.971   7.872   3.580 -0.6580  0.2313 -0.5662
27187SOL    HW287399   0.997   7.825   3.438  0.9490 -0.1897 -0.1587
27188SOL     OW87400   0.316   4.563   9.532  0.2844 -0.3462  0.4221
27188SOL    HW187401   0.264   4.644   9.524  0.9503  0.4222  2.8673
27188SOL    HW287402   0.392   4.578   9.476 -0.0695  0.3100  0.0974
27189SOL     OW87403   5.460   0.747   9.353 -0.0422  0.1595 -0.0941
27189SOL    HW187404   5.497   0.713   9.271 -1.6152 -0.1356 -0.7034
27189SOL    HW287405   5.396   0.681   9.380  1.1225 -0.2407  1.9308
27190SOL     OW87406   1.207  12.243   4.229  0.0102 -0.2593 -0.2554
27190SOL    HW187407   1.269  12.310   4.257 -0.0075  0.4646 -1.8118
27190SOL    HW287408   1.260  12.179   4.181  0.1552 -1.8428  1.8809
27191SOL     OW87409   0.673   9.006   7.829  0.3993 -0.5740  0.2298
27191SOL    HW187410   0.692   8.966   7.744  0.0070 -0.5582  0.1283
27191SOL    HW287411   0.748   8.986   7.884  1.8053  1.4677 -0.8285
27192SOL     OW87412   1.747   8.913   1.166  0.1799 -0.4785  0.4877
27192SOL    HW187413   1.787   8.829   1.191 -0.8302 -0.9114  0.7007
27192SOL    HW287414   1.812   8.954   1.110  0.2965 -1.8548 -0.4358
27193SOL     OW87415   5.598   1.937  11.986  0.0346 -0.6034  0.0428
27193SOL    HW187416   5.622   1.868  11.925  3.1524  0.7122 -0.4272
27193SOL    HW287417   5.567   2.008  11.930  0.0623 -0.4515  0.2196
27194SOL     OW87418   9.217   3.859   6.092  0.2232  0.5407  0.4968
27194SOL    HW187419   9.235   3.933   6.150  2.8136  0.8162 -0.5531
27194SOL    HW287420   9.237   3.782   6.145  2.6177  0.7910  0.0665
27195SOL     OW87421   8.731   0.398   7.652 -0.4501 -0.0445 -0.2475
27195SOL    HW187422   8.682   0.338   7.708  0.2559 -0.2468  0.1593
27195SOL    HW287423   8.699   0.485   7.676 -0.2623 -0.1420  0.3554
27196SOL     OW87424   5.017  11.229  10.558  0.4530  0.3169  0.3892
27196SOL    HW187425   5.106  11.229  10.595  1.7584 -0.8745 -2.3864
27196SOL    HW287426   5.030  11.205  10.466 -2.8122 -0.1262 -0.0771
27197SOL     OW87427  12.246   8.986   3.099  0.2789 -0.7485  0.3052
27197SOL    HW187428  12.302   8.911   3.119 -1.9442 -2.1633  1.6355
27197SOL    HW287429  12.170   8.948   3.056  0.0579  1.0569 -1.0152
27198SOL     OW87430   0.158   6.986  12.162 -0.2133 -0.2417  0.0548
27198SOL    HW187431   0.123   6.897  12.166  0.2959 -0.4389  0.2104
27198SOL    HW287432   0.218   6.992  12.236 -0.8524  0.5026  0.5272
27199SOL     OW87433  10.387   9.476   9.492  1.0115 -0.0706 -1.0385
27199SOL    HW187434  10.386   9.493   9.587 -1.9496 -2.8116 -0.4067
27199SOL    HW287435  10.295   9.466   9.469  1.7202 -0.4782 -4.0606
27200SOL     OW87436   1.793   0.950   9.696  0.4786  0.2411 -0.0878
27200SOL    HW187437   1.738   1.022   9.727  0.7810  0.6683 -0.5194
27200SOL    HW287438   1.880   0.970   9.730  0.7878  0.6547 -1.0930
27201SOL     OW87439   7.088   5.193   7.597 -0.2275  0.1132 -0.2702
27201SOL    HW187440   7.022   5.262   7.586 -0.1978  1.0131  3.5103
27201SOL    HW287441   7.040   5.111   7.589 -1.2365  0.6945 -0.2494
27202SOL     OW87442  10.675   0.594   0.323  0.9200 -0.6953  0.3933
27202SOL    HW187443  10.716   0.556   0.401 -3.2820  0.0946  3.3088
27202SOL    HW287444  10.602   0.535   0.303  1.6197 -0.6531 -2.8802
27203SOL     OW87445   6.273   2.439   1.747  0.1341 -0.6729 -0.4242
27203SOL    HW187446   6.276   2.378   1.673 -0.7860 -0.6513 -0.4916
27203SOL    HW287447   6.207   2.402   1.805  0.4381 -0.3786  0.1127
27204SOL     OW87448   9.803   7.011   0.742  0.0699 -0.0184 -0.3927
27204SOL    HW187449   9.720   6.976   0.773 -0.2329  0.2370 -0.9015
27204SOL    HW287450   9.804   6.992   0.648  0.5115  0.1228 -0.4203
27205SOL     OW87451   5.843   8.061   2.877 -0.0032  0.0625  0.2394
27205SOL    HW187452   5.928   8.023   2.857  0.3792 -0.0940  2.0043
27205SOL    HW287453   5.854   8.101   2.964 -1.4777  0.8162  0.1176
27206SOL     OW87454   4.089  11.593  11.432  0.4396  0.1406 -0.4429
27206SOL    HW187455   4.088  11.638  11.347  0.7622 -0.3805 -0.7263
27206SOL    HW287456   4.140  11.651  11.488 -0.4078  0.8610 -0.3878
27207SOL     OW87457   6.948   3.189   4.416  0.7150  0.5037  0.0640
27207SOL    HW187458   6.879   3.255   4.424  1.9595  2.0062 -0.9330
27207SOL    HW287459   6.908   3.119   4.365 -0.2649  1.0438  0.0577
27208SOL     OW87460   3.709   2.950   0.674  0.0676  0.3046  0.6050
27208SOL    HW187461   3.719   2.877   0.613  0.5135 -0.2077  1.2808
27208SOL    HW287462   3.798   2.980   0.691 -0.1070  0.9449  0.4148
27209SOL     OW87463   5.986   9.871  12.306 -0.1888  0.0347 -0.0648
27209SOL    HW187464   5.917   9.894  12.369 -0.1384 -0.5936  0.2183
27209SOL    HW287465   5.958   9.788  12.269 -0.5493  0.6988 -1.3627
27210SOL     OW87466   1.798   7.564   9.304  0.6053 -0.3222  0.1791
27210SOL    HW187467   1.786   7.470   9.318  1.1819 -0.3819  0.2982
27210SOL    HW287468   1.780   7.577   9.211  1.1577 -0.6626  0.0190
27211SOL     OW87469   2.795   4.826   3.810 -0.1899 -0.2923 -0.4736
27211SOL    HW187470   2.722   4.766   3.796  0.9450 -1.8781  0.0629
27211SOL    HW287471   2.853   4.810   3.735  0.1846  0.0345 -0.2551
27212SOL     OW87472   0.781   0.644   0.605  0.3360  0.2757  0.4627
27212SOL    HW187473   0.727   0.625   0.529  1.3379  0.7301 -0.3943
27212SOL    HW287474   0.778   0.564   0.657  1.8126 -1.1244 -1.4255
27213SOL     OW87475   4.288   7.820   6.873 -0.1309 -0.2845  0.5183
27213SOL    HW187476   4.345   7.803   6.947 -1.3266  0.3745  1.6202
27213SOL    HW287477   4.303   7.912   6.850  0.4849 -0.5728 -0.3047
27214SOL     OW87478   1.366   9.268   5.057 -0.0169 -0.0509  0.5092
27214SOL    HW187479   1.298   9.210   5.020  0.8161 -0.4905 -0.3799
27214SOL    HW287480   1.427   9.282   4.984  2.1517 -1.6162  1.9288
27215SOL     OW87481   2.671  11.363   2.744  0.3297 -0.7807 -0.2496
27215SOL    HW187482   2.717  11.447   2.742 -1.1902  0.0945 -0.3706
27215SOL    HW287483   2.646  11.347   2.652  0.0727 -1.0512 -0.1346
27216SOL     OW87484   2.392  10.972  11.505  0.0035 -0.0685 -0.0533
27216SOL    HW187485   2.358  10.919  11.578  1.0351  0.3227  0.7460
27216SOL    HW287486   2.484  10.984  11.526 -0.2204  2.1711 -0.1220
27217SOL     OW87487   3.698   3.924   8.689  0.2688 -0.0394 -0.2482
27217SOL    HW187488   3.709   3.994   8.753 -0.5065 -0.8024  0.7599
27217SOL    HW287489   3.787   3.891   8.673  0.5149  0.4633  0.0679
27218SOL     OW87490   5.498  12.055   7.533  0.3652 -0.2767  0.7871
27218SOL    HW187491   5.453  11.975   7.560  0.7643 -0.4994  0.7842
27218SOL    HW287492   5.492  12.055   7.437  0.3505 -0.2898  0.7879
27219SOL     OW87493  10.298  12.271   0.446 -0.1662  0.2460 -0.0239
27219SOL    HW187494  10.390  12.297   0.437 -0.1613  0.8025  1.3122
27219SOL    HW287495  10.284  12.267   0.541 -0.8375 -2.3775 -0.1600
27220SOL     OW87496   7.676  11.938   5.876  0.2762  0.4961  0.3707
27220SOL    HW187497   7.670  11.923   5.971  1.9548  1.4882  0.6688
27220SOL    HW287498   7.729  11.865   5.844 -0.8854 -0.2416  0.0386
27221SOL     OW87499  10.519   4.361   2.576  0.3763  0.0763 -0.6881
27221SOL    HW187500  10.468   4.354   2.657  1.9996  1.0646  0.4783
27221SOL    HW287501  10.479   4.433   2.528  1.0342  1.3145  0.5425
27222SOL     OW87502   9.546   2.913   0.152  0.1909  0.3288  0.2418
27222SOL    HW187503   9.548   3.008   0.142  0.7077  0.3786  0.8092
27222SOL    HW287504   9.635   2.884   0.131  0.1912  0.0273  0.6511
27223SOL     OW87505   5.783   5.941   1.016  0.1059 -0.3717  0.4551
27223SOL    HW187506   5.802   5.871   1.080  1.7508 -1.0513 -0.6999
27223SOL    HW287507   5.778   5.895   0.932 -1.3713  0.5980 -0.0189
27224SOL     OW87508   4.990   1.351   8.569 -0.1403  0.0461 -0.0470
27224SOL    HW187509   5.024   1.319   8.653  3.9475  2.9903 -0.2675
27224SOL    HW287510   4.949   1.434   8.590  0.1380  0.3907 -0.8258
27225SOL     OW87511   5.739   0.230   0.578  0.3989 -0.3440  0.1385
27225SOL    HW187512   5.821   0.240   0.530  0.7559 -1.8178  0.3885
27225SOL    HW287513   5.765   0.226   0.670  0.3156 -2.7856  0.1224
27226SOL     OW87514   6.472   9.899   7.345 -0.2069  0.4535 -0.2261
27226SOL    HW187515   6.559   9.861   7.331 -0.3653  0.4324 -1.2141
27226SOL    HW287516   6.439   9.917   7.257 -1.3030  0.2370  0.1213
27227SOL     OW87517  11.921   1.048   6.524 -0.0522 -0.4979 -0.4968
27227SOL    HW187518  11.828   1.055   6.502 -0.2403  0.0719  0.4248
27227SOL    HW287519  11.928   0.964   6.569  0.2668 -1.4906 -2.3074
27228SOL     OW87520   9.109   1.684  10.494 -0.2891  0.1354  0.7059
27228SOL    HW187521   9.133   1.688  10.402 -0.4196 -1.6056  0.5796
27228SOL    HW287522   9.192   1.672  10.541 -0.3567 -0.3097  0.7112
27229SOL     OW87523   7.785   6.569   6.108  0.1670  0.4314 -0.2836
27229SOL    HW187524   7.753   6.574   6.198 -0.3022  0.6125 -0.4621
27229SOL    HW287525   7.833   6.486   6.105 -2.4425 -1.1410 -0.7256
27230SOL     OW87526   4.047  12.035   9.284  0.0178  0.1122 -0.2152
27230SOL    HW187527   4.091  11.962   9.240 -0.5338 -1.2769  1.4341
27230SOL    HW287528   4.008  12.086   9.213 -0.2988 -1.6835 -1.3927
27231SOL     OW87529   8.138   2.059   4.194 -0.4878 -0.5494  0.3091
27231SOL    HW187530   8.141   2.053   4.099  0.6664  0.0072  0.3020
27231SOL    HW287531   8.166   1.972   4.224  0.8240 -0.1950  0.1392
27232SOL     OW87532   3.312  11.974   7.215 -0.2912 -0.1242  0.3169
27232SOL    HW187533   3.404  11.946   7.220 -0.5108 -0.8562  0.3225
27232SOL    HW287534   3.302  12.008   7.126 -0.6976 -2.5586 -0.6488
27233SOL     OW87535   7.422   0.845   3.010 -0.0478 -0.3280 -0.2398
27233SOL    HW187536   7.444   0.834   3.102 -2.6079 -1.2343  0.3540
27233SOL    HW287537   7.462   0.770   2.966 -1.2090 -1.5045  0.6433
27234SOL     OW87538   4.202   5.863   4.779  0.5421  0.0637 -0.5516
27234SOL    HW187539   4.256   5.891   4.853 -0.7102  0.1094  0.3789
27234SOL    HW287540   4.171   5.776   4.803 -0.1704  0.2278 -0.8474
27235SOL     OW87541   2.785   8.338   2.244 -0.5179 -0.3879  0.6946
27235SOL    HW187542   2.821   8.330   2.333  0.7768  0.5040  0.2820
27235SOL    HW287543   2.692   8.322   2.255 -0.2835 -0.9674  2.1163
27236SOL     OW87544   7.330   2.359  10.517 -0.2507 -0.0514 -0.5329
27236SOL    HW187545   7.252   2.403  10.483 -1.3725 -0.3660  1.4591
27236SOL    HW287546   7.338   2.391  10.607  2.9176  1.2273 -1.1156
27237SOL     OW87547   7.500   7.248   3.168 -1.2454  0.0164 -0.2788
27237SOL    HW187548   7.579   7.297   3.145  0.2382 -1.7281  0.7533
27237SOL    HW287549   7.482   7.193   3.091 -0.2777 -0.9619  0.1671
27238SOL     OW87550   3.323   4.225   8.417  0.3585 -0.2248  0.1880
27238SOL    HW187551   3.370   4.153   8.459  0.3947 -0.6349 -0.5233
27238SOL    HW287552   3.255   4.250   8.479 -1.0328 -2.3020 -0.3971
27239SOL     OW87553   9.038   3.648   0.341  0.4511 -0.2707 -0.5405
27239SOL    HW187554   8.999   3.712   0.400 -0.1683 -2.0408  1.0856
27239SOL    HW287555   9.123   3.629   0.379  0.0794 -1.3725 -0.2122
27240SOL     OW87556   5.666   7.313   6.018  0.5443  0.2263 -0.1624
27240SOL    HW187557   5.604   7.247   6.047  0.9595  0.1964  0.6816
27240SOL    HW287558   5.709   7.343   6.099  1.2148  0.6546 -0.6664
27241SOL     OW87559   4.572   1.609   7.319 -0.5436  0.0170 -0.0603
27241SOL    HW187560   4.609   1.539   7.373 -0.0167  0.6685  0.4303
27241SOL    HW287561   4.640   1.628   7.255 -0.2580  0.7904  0.4587
27242SOL     OW87562  10.394  10.369   7.931 -1.0275 -0.5893 -0.5878
27242SOL    HW187563  10.386  10.392   8.023 -3.1123 -2.5333 -0.1907
27242SOL    HW287564  10.425  10.278   7.931 -2.6726 -1.2110 -1.6800
27243SOL     OW87565   8.047   7.198   3.162 -0.3983 -0.8575  0.1614
27243SOL    HW187566   8.054   7.156   3.076 -0.0449  0.3137 -0.4027
27243SOL    HW287567   7.987   7.272   3.148  1.3410  0.6583  0.3574
27244SOL     OW87568   0.221  11.015   8.704  0.2451  0.3531  0.2107
27244SOL    HW187569   0.251  11.105   8.715 -0.1521  0.4531  0.5026
27244SOL    HW287570   0.150  11.021   8.640 -0.1208  0.3183  0.6102
27245SOL     OW87571   6.915   2.521  10.633  0.2229  0.4315 -0.1039
27245SOL    HW187572   6.911   2.530  10.728  0.6344 -0.3811  0.0016
27245SOL    HW287573   6.824   2.509  10.606  0.1371  0.3052  0.2295
27246SOL     OW87574   3.823  11.835   8.067 -0.2467  0.2787  0.0888
27246SOL    HW187575   3.743  11.877   8.037 -0.7410  0.4565  1.5900
27246SOL    HW287576   3.798  11.790   8.148  0.8344 -0.8920 -0.1866
27247SOL     OW87577   4.387   6.213   3.365  0.7134 -0.0007 -0.0036
27247SOL    HW187578   4.416   6.256   3.446  1.0500 -1.4647  0.6910
27247SOL    HW287579   4.332   6.278   3.321  1.3829  1.2003  0.8840
27248SOL     OW87580   3.566   2.041   8.799 -0.0565  0.0547  0.5414
27248SOL    HW187581   3.625   1.974   8.765  0.0377 -0.1605  1.1136
27248SOL    HW287582   3.512   1.995   8.863 -1.9591 -0.1295 -1.1064
27249SOL     OW87583   6.887   0.461  10.378  0.0378 -0.2520  0.2606
27249SOL    HW187584   6.917   0.546  10.345  1.2859 -0.8116 -0.0960
27249SOL    HW287585   6.966   0.418  10.409 -0.2436 -2.0553 -1.3080
27250SOL     OW87586   8.812   9.296   1.777 -0.2701  0.4422  0.3388
27250SOL    HW187587   8.783   9.219   1.826 -1.7159 -0.3673 -1.6623
27250SOL    HW287588   8.906   9.301   1.794 -0.4038 -0.9210  1.6396
27251SOL     OW87589   8.692  11.277   6.480 -0.4929  0.0184 -0.9149
27251SOL    HW187590   8.631  11.249   6.411 -0.1112 -0.5844 -1.0031
27251SOL    HW287591   8.767  11.311   6.432 -0.4406  0.0690 -0.7954
27252SOL     OW87592   7.488   8.066   6.613  0.5103 -0.0438 -0.2172
27252SOL    HW187593   7.462   8.027   6.530 -0.9463 -1.9029  1.0221
27252SOL    HW287594   7.445   8.152   6.614 -0.0294 -0.2945 -1.0926
27253SOL     OW87595   1.745  10.281  10.564  0.2948  0.0877  0.9538
27253SOL    HW187596   1.658  10.315  10.544  0.2073 -1.6189 -2.2737
27253SOL    HW287597   1.788  10.351  10.613 -2.2219  1.7745  0.9116
27254SOL     OW87598   4.583   8.569   7.144 -0.6104  0.5083  0.4264
27254SOL    HW187599   4.675   8.555   7.124 -0.2820 -0.7794  2.6071
27254SOL    HW287600   4.537   8.501   7.094 -0.4325  1.1972 -0.7205
27255SOL     OW87601   9.137  10.507   7.867  0.1296 -0.0083  0.2457
27255SOL    HW187602   9.079  10.580   7.888 -0.1338 -0.3997  0.9148
27255SOL    HW287603   9.203  10.544   7.809 -1.1412  0.3033 -1.0490
27256SOL     OW87604   3.587  11.935   2.225 -0.5076  0.1275  0.1675
27256SOL    HW187605   3.604  11.879   2.149 -0.2986 -0.8798  0.9395
27256SOL    HW287606   3.516  11.891   2.272 -0.5410  0.6725  0.6318
27257SOL     OW87607   9.062   2.170   8.288  0.1518 -0.4251  0.0836
27257SOL    HW187608   9.063   2.209   8.201  0.7214 -0.5103  0.0485
27257SOL    HW287609   9.073   2.243   8.348  1.8260 -0.5708 -0.0041
27258SOL     OW87610   0.867   7.436   6.757  0.2392 -0.1082  0.1377
27258SOL    HW187611   0.908   7.464   6.839  0.4334  0.7872 -0.2526
27258SOL    HW287612   0.778   7.472   6.762 -0.9691 -2.9527  1.4742
27259SOL     OW87613   9.743   3.033   8.662  0.7547  0.4921  0.2799
27259SOL    HW187614   9.835   3.056   8.646  0.9091 -0.0295  0.4044
27259SOL    HW287615   9.735   2.943   8.630  0.0825  0.8130 -0.4690
27260SOL     OW87616   1.382   8.762   3.149  0.1880 -0.2216  0.4322
27260SOL    HW187617   1.387   8.856   3.164 -1.5548 -0.4290  2.9852
27260SOL    HW287618   1.389   8.723   3.236 -1.1035 -2.3237 -0.3221
27261SOL     OW87619   1.702   1.665  11.261  0.5071  0.3453 -0.2253
27261SOL    HW187620   1.769   1.605  11.293 -0.1927 -0.0095  0.6135
27261SOL    HW287621   1.735   1.752  11.284  0.5389  0.1575  0.4702
27262SOL     OW87622  10.052   0.842  11.348  0.3375  0.1943 -0.4865
27262SOL    HW187623   9.965   0.804  11.334  0.5709 -0.3936 -0.3560
27262SOL    HW287624  10.034   0.928  11.385 -0.1887 -0.0305 -0.1967
27263SOL     OW87625   8.950   6.150   1.363  0.3620  0.0211 -0.1344
27263SOL    HW187626   8.981   6.192   1.443  0.2270  1.5910 -0.8597
27263SOL    HW287627   8.895   6.078   1.393  1.4070 -0.2627  1.1704
27264SOL     OW87628   5.110   4.538   3.989 -0.1484  0.3137 -0.1484
27264SOL    HW187629   5.037   4.523   4.050  0.3779  0.2115  0.4701
27264SOL    HW287630   5.186   4.500   4.033  0.5429  1.6333 -0.1688
27265SOL     OW87631   8.614   1.972   2.568 -0.7919  0.0935  0.0231
27265SOL    HW187632   8.680   2.026   2.610 -1.8491  0.7084  0.9390
27265SOL    HW287633   8.638   1.973   2.475  1.7500 -1.5532  0.5652
27266SOL     OW87634   3.188   0.249   2.052 -0.0587  0.4700 -0.1611
27266SOL    HW187635   3.138   0.297   1.986 -1.5008 -0.0539  0.5141
27266SOL    HW287636   3.168   0.157   2.035  0.0064  0.3008  0.6486
27267SOL     OW87637   0.882   7.944   7.727  1.2290  0.5426 -0.1297
27267SOL    HW187638   0.935   7.965   7.650 -0.8168 -0.0607 -1.7861
27267SOL    HW287639   0.797   7.984   7.710  1.4456  2.8563  3.1594
27268SOL     OW87640  10.838   0.145   6.764  0.2740  0.6493 -0.2091
27268SOL    HW187641  10.827   0.201   6.688  1.3586 -1.0885 -1.7489
27268SOL    HW287642  10.916   0.092   6.744  1.7420  1.3460  2.9070
27269SOL     OW87643   3.854   2.135   0.099 -0.0210  0.4148  0.2147
27269SOL    HW187644   3.927   2.184   0.137  1.9111 -1.1008 -1.3089
27269SOL    HW287645   3.839   2.176   0.014 -2.6137  2.1821  1.3921
27270SOL     OW87646   3.944  11.258   2.078 -0.2945 -0.1671 -0.2659
27270SOL    HW187647   3.870  11.202   2.055  0.0304 -0.5146 -0.4919
27270SOL    HW287648   3.905  11.338   2.113 -0.7851 -0.1300 -0.8817
27271SOL     OW87649   9.591   2.702  12.091 -0.5528  0.4188 -0.6003
27271SOL    HW187650   9.660   2.755  12.132 -1.2531  2.5061 -1.9254
27271SOL    HW287651   9.626   2.681  12.004 -0.5026 -0.8781 -0.2773
27272SOL     OW87652   4.403   9.271   9.302  0.3009 -0.1326  0.8396
27272SOL    HW187653   4.419   9.266   9.208 -1.0115  0.5998  0.5618
27272SOL    HW287654   4.444   9.191   9.338  1.1878 -0.1986 -0.2781
27273SOL     OW87655   0.291   5.801   5.377  0.2518 -0.0821  0.2993
27273SOL    HW187656   0.307   5.888   5.341 -2.1137  0.4625  0.3833
27273SOL    HW287657   0.333   5.741   5.316  1.2819  1.0735 -0.1584
27274SOL     OW87658   0.596  10.218  11.323  0.2828  0.9840  0.3319
27274SOL    HW187659   0.678  10.265  11.336  0.4695  0.9275 -0.5812
27274SOL    HW287660   0.610  10.132  11.363  1.5123  0.1217 -1.7981
27275SOL     OW87661   2.993   8.081   0.587 -0.5172  0.3162  0.2334
27275SOL    HW187662   2.953   8.002   0.552 -0.1461 -0.6554  1.8962
27275SOL    HW287663   3.053   8.050   0.654 -0.9283  2.0474  1.4771
27276SOL     OW87664   1.354   4.350   8.048 -0.2439  0.0799  0.2968
27276SOL    HW187665   1.328   4.296   7.973 -2.1735  0.2623  0.7854
27276SOL    HW287666   1.325   4.302   8.125  0.4646  0.5478  0.8777
27277SOL     OW87667  11.183  11.388   6.989  0.1947 -0.1174 -0.2849
27277SOL    HW187668  11.199  11.366   6.898  0.1474  1.1440 -0.6278
27277SOL    HW287669  11.087  11.388   6.998  0.1971 -0.1650 -0.2643
27278SOL     OW87670   9.996   1.661   3.212 -0.3355 -0.1723  0.0280
27278SOL    HW187671   9.914   1.614   3.225 -0.3945 -0.0040  0.2778
27278SOL    HW287672  10.064   1.597   3.231 -0.4157 -0.1423  0.4165
27279SOL     OW87673   5.708   3.502   8.543 -0.4871  0.4087  0.3551
27279SOL    HW187674   5.648   3.530   8.474  0.1818  1.5560  0.2100
27279SOL    HW287675   5.794   3.502   8.502 -0.1665  0.4274  1.0090
27280SOL     OW87676   5.464   9.314   2.745 -0.2169  0.1351 -0.3750
27280SOL    HW187677   5.460   9.405   2.715 -1.3713  0.0866 -0.4217
27280SOL    HW287678   5.490   9.265   2.668 -0.6717  0.3039 -0.6392
27281SOL     OW87679   4.628   2.009   4.266 -0.0704  0.1833 -0.4109
27281SOL    HW187680   4.649   2.046   4.180  0.9839  0.0872 -0.2008
27281SOL    HW287681   4.557   1.948   4.248  0.0475  0.2624 -1.1997
27282SOL     OW87682   2.538   2.816   5.320  0.0645 -0.1653 -0.3915
27282SOL    HW187683   2.483   2.814   5.399 -2.3321 -1.5018 -1.9708
27282SOL    HW287684   2.515   2.898   5.277  1.8627  0.8869  0.5324
27283SOL     OW87685  12.172   9.123   7.474 -0.1933 -0.2609  0.1759
27283SOL    HW187686  12.095   9.067   7.482 -0.0843 -0.6268 -1.1378
27283SOL    HW287687  12.180   9.141   7.380  1.1866 -0.0383  0.3107
27284SOL     OW87688  12.017   8.284   0.569  0.0117  0.4245 -0.0377
27284SOL    HW187689  12.068   8.287   0.650 -1.0078  0.0518  0.6297
27284SOL    HW287690  12.026   8.372   0.532  0.9981  0.4170  0.1395
27285SOL     OW87691   9.074   9.800  10.301  0.0368 -0.0611 -0.4214
27285SOL    HW187692   9.097   9.800  10.209  1.7797 -1.1075 -0.0261
27285SOL    HW287693   9.067   9.708  10.325  1.0851  0.1331  0.7953
27286SOL     OW87694   1.912   3.331   2.145 -0.3366 -0.0419 -0.6360
27286SOL    HW187695   1.912   3.338   2.050 -0.1183  0.0730 -0.6279
27286SOL    HW287696   1.833   3.376   2.173 -0.0669  0.4876 -0.7204
27287SOL     OW87697   6.033  10.914   8.020  0.6141 -0.2463  0.2779
27287SOL    HW187698   6.061  10.847   7.957  2.0004  0.0318  0.5517
27287SOL    HW287699   6.108  10.924   8.079 -1.0283 -1.2355  2.6523
27288SOL     OW87700   8.679  10.006   0.059  1.0243 -0.3219  0.2105
27288SOL    HW187701   8.695  10.025  -0.034 -0.6824  0.0529 -0.0252
27288SOL    HW287702   8.623   9.929   0.059  0.9960 -0.3115  0.9398
27289SOL     OW87703   3.487   9.347   5.721 -0.2097 -0.0094 -0.2117
27289SOL    HW187704   3.566   9.312   5.680 -0.8190 -0.0724 -1.3932
27289SOL    HW287705   3.460   9.279   5.782  0.1516 -0.3866 -0.4655
27290SOL     OW87706   3.998  11.006   0.257 -0.2406  0.3598 -0.2826
27290SOL    HW187707   3.915  11.054   0.267  0.3867  1.4615 -0.1555
27290SOL    HW287708   4.038  11.045   0.180 -0.5046 -1.2068 -1.2393
27291SOL     OW87709  11.804   5.657  10.923 -0.2185  0.1127  0.1332
27291SOL    HW187710  11.869   5.712  10.879 -1.9945  2.1056 -0.1370
27291SOL    HW287711  11.720   5.683  10.884 -1.3703 -1.2094  1.6067
27292SOL     OW87712   3.851   4.052   0.219 -0.1306 -0.0707 -0.3094
27292SOL    HW187713   3.938   4.070   0.183  0.6450 -0.7966  1.1273
27292SOL    HW287714   3.827   4.132   0.265  0.1073 -0.1413 -0.0644
27293SOL     OW87715  11.700   6.901   0.918  0.0309  0.6953  0.2233
27293SOL    HW187716  11.728   6.829   0.975 -2.4347 -0.6652 -0.1421
27293SOL    HW287717  11.685   6.974   0.977  1.3659  0.5730  0.7593
27294SOL     OW87718   0.525   8.691  10.052  0.3284  0.5513 -1.1785
27294SOL    HW187719   0.543   8.634  10.127  0.2350  2.5697  0.4320
27294SOL    HW287720   0.451   8.649  10.008  1.2225 -1.3813 -0.9687
27295SOL     OW87721   7.531   2.167  11.282 -0.0088 -0.2021  0.6426
27295SOL    HW187722   7.598   2.234  11.298  0.6284 -0.4997 -0.6300
27295SOL    HW287723   7.546   2.140  11.191 -0.6042 -1.6854  0.9641
27296SOL     OW87724  10.591  11.967   4.441 -0.2243 -0.3796  0.0521
27296SOL    HW187725  10.550  11.880   4.432  0.0464 -0.5164  0.1186
27296SOL    HW287726  10.564  11.996   4.528  0.9923 -1.1025  0.6989
27297SOL     OW87727   8.792   6.399   4.609 -0.0342  0.5850  0.1056
27297SOL    HW187728   8.802   6.387   4.704 -0.6744 -0.4025  0.0606
27297SOL    HW287729   8.849   6.473   4.589  0.8856  0.1863  1.1044
27298SOL     OW87730   9.802   0.754  11.306 -0.6207  0.4759 -0.3206
27298SOL    HW187731   9.766   0.688  11.247  0.3648  0.3548 -0.8027
27298SOL    HW287732   9.745   0.830  11.294 -0.3757  0.4894 -1.5203
27299SOL     OW87733   1.361   9.396   2.581 -0.5851 -0.0408 -0.4095
27299SOL    HW187734   1.270   9.387   2.607 -0.5776 -0.0901 -0.3983
27299SOL    HW287735   1.408   9.410   2.663 -0.2652 -2.4854 -0.0766
27300SOL     OW87736   0.367   5.789   1.058  0.2611  0.6098  0.3817
27300SOL    HW187737   0.401   5.825   0.977  1.6341  1.3676  1.2468
27300SOL    HW287738   0.306   5.855   1.091  0.4548  0.7550  0.4507
27301SOL     OW87739  10.751  11.917  11.814 -0.4794 -0.2910  0.0319
27301SOL    HW187740  10.718  11.827  11.817  0.8226 -0.8075 -0.5767
27301SOL    HW287741  10.740  11.944  11.723 -0.5804  0.0507  0.1447
27302SOL     OW87742   4.961  10.048  10.144 -0.7735  0.2276 -0.2545
27302SOL    HW187743   4.890  10.090  10.096 -0.2982  0.4255 -0.8080
27302SOL    HW287744   4.941  10.062  10.236 -1.3760  0.4006 -0.4115
27303SOL     OW87745   8.948   9.538   8.321 -0.5151 -0.0489  0.1632
27303SOL    HW187746   9.032   9.497   8.302 -0.3288 -0.2435  1.3569
27303SOL    HW287747   8.932   9.519   8.413 -0.2496  2.8555  0.8977
27304SOL     OW87748   6.018   2.230   5.605 -0.7068 -0.6113 -0.5954
27304SOL    HW187749   5.986   2.319   5.623 -1.1849 -0.8889 -0.0247
27304SOL    HW287750   5.959   2.174   5.656  1.3332 -1.1017  1.3660
27305SOL     OW87751  10.468   3.177   2.845 -0.4067  0.0125  0.2575
27305SOL    HW187752  10.397   3.207   2.902  0.3888 -0.4350  1.5453
27305SOL    HW287753  10.520   3.255   2.828 -2.5494  0.9450 -2.8828
27306SOL     OW87754   1.741   0.741   5.907  0.3060 -0.0120  0.0321
27306SOL    HW187755   1.706   0.818   5.862 -2.5245 -1.7427 -1.0025
27306SOL    HW287756   1.811   0.709   5.851  0.2681  0.7793 -0.4789
27307SOL     OW87757   9.418   0.975  11.437  0.1098 -0.0846 -0.0785
27307SOL    HW187758   9.347   0.921  11.472  0.2030 -0.6783 -0.7893
27307SOL    HW287759   9.437   0.938  11.351  2.0918 -0.7020  0.5703
27308SOL     OW87760  10.950  11.603   4.600  0.3379 -0.2174  0.1200
27308SOL    HW187761  10.988  11.530   4.552  1.0785 -0.0461  0.4407
27308SOL    HW287762  10.963  11.581   4.692  1.9995  1.0270  0.2279
27309SOL     OW87763   2.336  10.613   3.403  0.2863  0.1046  0.0099
27309SOL    HW187764   2.354  10.664   3.324 -2.4749  0.1113 -0.7380
27309SOL    HW287765   2.280  10.542   3.372  1.7397 -1.7866  1.5003
27310SOL     OW87766   6.033  11.588  10.678  0.5771 -0.1472  0.6267
27310SOL    HW187767   6.040  11.654  10.748  0.5426  1.3914 -0.7668
27310SOL    HW287768   6.109  11.604  10.623  0.1708 -0.7951 -0.1376
27311SOL     OW87769   7.220   7.337   1.194 -0.3920  0.5126 -0.0911
27311SOL    HW187770   7.287   7.323   1.128 -0.4112 -1.2789  0.2368
27311SOL    HW287771   7.198   7.430   1.186  0.2024  0.5240 -2.0040
27312SOL     OW87772   6.561   9.748   6.277 -0.5576  0.1559  0.2244
27312SOL    HW187773   6.599   9.831   6.249 -0.7410  0.1032 -0.1917
27312SOL    HW287774   6.473   9.770   6.307 -0.7464  0.0600 -0.2497
27313SOL     OW87775  10.641   1.752  10.249 -0.5875  0.1952  0.0592
27313SOL    HW187776  10.568   1.806  10.277 -3.0233 -1.0498 -3.3141
27313SOL    HW287777  10.663   1.783  10.162  2.9135  0.3822  0.8699
27314SOL     OW87778   9.466   9.025   4.251  0.0611  0.4110 -0.4126
27314SOL    HW187779   9.499   9.030   4.341  1.9646 -2.1111 -0.8184
27314SOL    HW287780   9.391   8.966   4.256  1.2961 -1.2586 -0.6363
27315SOL     OW87781   6.624   6.516   8.863 -0.0379 -0.7804  0.2724
27315SOL    HW187782   6.593   6.426   8.878 -0.6600 -0.3538  1.7817
27315SOL    HW287783   6.692   6.507   8.797 -0.4891 -2.2950 -0.0303
27316SOL     OW87784   3.728   7.883   6.311  0.2308  0.4821  0.1619
27316SOL    HW187785   3.798   7.835   6.355 -0.3544 -0.6327 -0.0927
27316SOL    HW287786   3.655   7.882   6.374  0.1351  0.8254  0.0582
27317SOL     OW87787   8.554   8.715  11.611  0.0504  0.1423  0.6827
27317SOL    HW187788   8.553   8.666  11.693 -0.6886 -0.6670  0.2023
27317SOL    HW287789   8.493   8.788  11.625 -0.4670 -0.2873  0.6836
27318SOL     OW87790   6.205   7.460   7.644  0.0688 -0.3644 -0.1472
27318SOL    HW187791   6.192   7.433   7.553  0.8492  0.5361 -0.5420
27318SOL    HW287792   6.119   7.448   7.685 -0.3437 -0.5903 -1.0559
27319SOL     OW87793   1.649   7.447   0.295  0.3597  0.3133  0.3265
27319SOL    HW187794   1.651   7.471   0.202  0.8912 -0.8779  0.0148
27319SOL    HW287795   1.581   7.380   0.301 -0.4269  1.1412  1.0095
27320SOL     OW87796   0.986   0.354   6.102 -0.0368  0.3661 -0.1819
27320SOL    HW187797   0.924   0.329   6.034 -0.2624  0.8282 -0.1478
27320SOL    HW287798   1.070   0.362   6.057  0.4255 -2.1283  0.0909
27321SOL     OW87799   4.438   6.824   9.164  0.0580 -0.0084  0.3374
27321SOL    HW187800   4.353   6.808   9.205 -0.7669 -0.8702 -1.5842
27321SOL    HW287801   4.433   6.779   9.080  2.6739 -0.6141  0.4255
27322SOL     OW87802   5.819  12.139  11.821 -0.3409 -0.2440  0.4691
27322SOL    HW187803   5.765  12.067  11.853 -0.5470 -1.4289 -2.2633
27322SOL    HW287804   5.845  12.112  11.733  2.3942  1.5512  0.6153
27323SOL     OW87805   7.744   1.790   0.996  0.0017  0.5721  0.1457
27323SOL    HW187806   7.723   1.858   0.933 -0.2821  0.6720  0.3437
27323SOL    HW287807   7.831   1.811   1.028 -0.9474  2.1616  1.8938
27324SOL     OW87808   0.279   6.865   8.648 -0.1045  0.0106  0.4776
27324SOL    HW187809   0.322   6.795   8.598 -3.6033 -1.2912 -1.0417
27324SOL    HW287810   0.308   6.946   8.607  1.3163 -0.7173 -0.0307
27325SOL     OW87811   5.401   3.115  10.888 -0.1418 -0.1196  0.2265
27325SOL    HW187812   5.406   3.115  10.984  0.0130  2.6782  0.2974
27325SOL    HW287813   5.490   3.137  10.860 -0.3371 -0.2959 -0.5527
27326SOL     OW87814   7.470   9.088   4.537  0.0549  0.2676 -0.1876
27326SOL    HW187815   7.485   9.010   4.484 -0.2791 -0.1883  0.3734
27326SOL    HW287816   7.390   9.069   4.586  0.5895  0.4833  0.8070
27327SOL     OW87817   3.724   1.765  11.226 -0.3228  0.5972  0.2308
27327SOL    HW187818   3.685   1.819  11.295 -1.7321 -0.2648  0.1474
27327SOL    HW287819   3.680   1.680  11.234  0.8597 -0.1216 -0.5192
27328SOL     OW87820   6.402   7.051   4.703  0.7225 -0.5418 -0.6389
27328SOL    HW187821   6.363   7.052   4.615  0.3077  2.8097 -0.5469
27328SOL    HW287822   6.485   7.097   4.693 -0.2319  1.6878  1.0017
27329SOL     OW87823  11.317   3.013  11.571 -0.7112  0.1577 -0.4365
27329SOL    HW187824  11.250   3.065  11.526 -1.0869 -0.1177 -0.2018
27329SOL    HW287825  11.279   2.993  11.656  0.5914  1.9486  0.6290
27330SOL     OW87826   2.069   3.544   9.268  0.0876  0.3228 -0.6266
27330SOL    HW187827   2.091   3.557   9.176  1.1185  0.3827 -0.3854
27330SOL    HW287828   1.995   3.602   9.284  1.3413  2.0641 -0.8693
27331SOL     OW87829   7.197   7.211   7.320  0.1811  0.1987  0.4333
27331SOL    HW187830   7.284   7.232   7.286 -0.3134  0.2535 -0.8522
27331SOL    HW287831   7.137   7.269   7.272 -0.5478  0.4461  1.5769
27332SOL     OW87832   2.892   2.025   6.479  0.8583  0.0059 -0.7226
27332SOL    HW187833   2.911   2.119   6.471 -1.5693  0.4889 -1.4496
27332SOL    HW287834   2.923   1.988   6.397  2.0451  0.0860 -0.3397
27333SOL     OW87835   4.608  10.071   4.569 -0.0041  0.1685 -0.4584
27333SOL    HW187836   4.519  10.106   4.567  0.0794  0.3417 -1.2578
27333SOL    HW287837   4.649  10.114   4.645 -0.2490  0.9377 -0.7538
27334SOL     OW87838   2.258  10.138   8.213 -0.5955  0.0013 -0.5262
27334SOL    HW187839   2.286  10.225   8.243 -2.1709  1.1638 -2.1820
27334SOL    HW287840   2.162  10.141   8.217 -0.6943 -1.3833 -1.3160
27335SOL     OW87841  10.417   3.601   2.649 -0.1696  0.8170 -0.2452
27335SOL    HW187842  10.504   3.627   2.621 -0.3272  0.9759 -0.5859
27335SOL    HW287843  10.392   3.531   2.588  0.1074  0.0964  0.4404
27336SOL     OW87844   2.398   0.814   8.167  0.4036 -0.3275  0.3621
27336SOL    HW187845   2.357   0.879   8.109 -0.5575 -1.0900  0.1564
27336SOL    HW287846   2.408   0.860   8.250  0.8949  0.4765 -0.1235
27337SOL     OW87847  11.949  11.385   3.790  0.4520 -0.3771  0.0247
27337SOL    HW187848  11.914  11.324   3.726 -0.7000 -0.5473  0.7805
27337SOL    HW287849  11.911  11.469   3.767 -0.0333 -0.4544  0.5210
27338SOL     OW87850   6.023   5.180   7.592 -0.4974 -0.3036 -0.3292
27338SOL    HW187851   5.928   5.172   7.585 -0.4744  0.4362 -1.6943
27338SOL    HW287852   6.042   5.272   7.575  0.4466 -0.3722  0.2452
27339SOL     OW87853   6.947   1.081   2.987 -0.1176  0.4520  0.1362
27339SOL    HW187854   6.994   1.163   2.973 -1.1008  1.1303  0.7250
27339SOL    HW287855   6.958   1.063   3.081 -0.7168  0.4264  0.2061
27340SOL     OW87856   0.111  10.209   8.375  0.1231  0.2264  0.2336
27340SOL    HW187857   0.031  10.156   8.369 -1.0533  1.9072  0.3912
27340SOL    HW287858   0.163  10.167   8.443 -1.9469  0.7209  2.2371
27341SOL     OW87859   3.754   6.820   3.577 -0.0186 -0.3072 -0.5389
27341SOL    HW187860   3.710   6.897   3.541 -1.6377 -0.4519  1.0190
27341SOL    HW287861   3.695   6.748   3.559  0.0954 -0.6981  0.5567
27342SOL     OW87862   0.211  10.958  11.882 -0.1409 -0.0711 -0.0258
27342SOL    HW187863   0.125  10.923  11.908  0.0066 -0.9245 -0.6570
27342SOL    HW287864   0.190  11.026  11.817 -0.3256 -0.5612 -0.4871
27343SOL     OW87865   6.379   1.960   9.233  0.4784  1.2306 -0.2083
27343SOL    HW187866   6.359   1.926   9.145 -0.8802  0.4110  0.3836
27343SOL    HW287867   6.473   1.980   9.230  1.2762 -1.9972 -0.8408
27344SOL     OW87868  12.003   4.907  10.308  0.4488  0.2939  0.6116
27344SOL    HW187869  11.988   5.000  10.329  0.5919  0.5114 -0.2284
27344SOL    HW287870  11.930   4.884  10.251  0.1450 -0.2513  1.2153
27345SOL     OW87871  12.327   9.856   6.583  0.0190  0.5698  0.3493
27345SOL    HW187872  12.349   9.764   6.567  0.2893  0.6787  0.1012
27345SOL    HW287873  12.340   9.899   6.499  0.1292  0.8823  0.5243
27346SOL     OW87874   1.257  10.685   7.060  0.2860  0.0025 -0.2505
27346SOL    HW187875   1.184  10.694   6.998 -0.4403 -0.5001  0.5006
27346SOL    HW287876   1.309  10.764   7.048 -0.4358  0.4175 -0.7527
27347SOL     OW87877   6.884   8.449   8.877  0.2685 -0.5789  0.2451
27347SOL    HW187878   6.856   8.541   8.881  2.5784  0.1680  0.7829
27347SOL    HW287879   6.862   8.414   8.964 -0.8771 -0.6556 -0.0561
27348SOL     OW87880  11.136  11.972   1.278  0.0249 -0.2921  0.2750
27348SOL    HW187881  11.125  11.892   1.328  0.7670 -0.4545  0.1859
27348SOL    HW287882  11.127  12.043   1.342 -0.1245 -0.4616  0.4393
27349SOL     OW87883   0.264  11.424  10.790 -0.3495 -0.8311  0.0163
27349SOL    HW187884   0.201  11.389  10.853  0.6538 -1.6535  0.5969
27349SOL    HW287885   0.315  11.487  10.841  1.0307 -2.1201  0.2941
27350SOL     OW87886  11.416  10.179   2.229  0.4178 -0.1700 -0.6693
27350SOL    HW187887  11.385  10.152   2.316  2.1636  3.4381  1.3206
27350SOL    HW287888  11.336  10.206   2.184 -0.3382 -0.1297  0.6223
27351SOL     OW87889   1.820   9.331   4.387  0.0385  0.0435 -0.4483
27351SOL    HW187890   1.840   9.403   4.447  1.0236  1.2714 -2.1534
27351SOL    HW287891   1.805   9.374   4.303 -0.1691 -1.6983 -1.3392
27352SOL     OW87892   3.001   8.733  11.660 -0.1456  0.2800  0.3331
27352SOL    HW187893   3.085   8.747  11.616  0.2467  0.0933  0.9984
27352SOL    HW287894   2.953   8.815  11.647  0.4260  0.6577  0.5493
27353SOL     OW87895  10.429   8.983  10.328 -0.2795 -0.1855 -0.2916
27353SOL    HW187896  10.460   9.069  10.299 -0.4894 -0.4007 -1.1786
27353SOL    HW287897  10.420   8.992  10.423 -1.9850  1.3565 -0.5234
27354SOL     OW87898   5.268   3.067   6.543 -0.2179  0.5275  0.0336
27354SOL    HW187899   5.249   2.988   6.493 -0.1795  1.8338 -2.1470
27354SOL    HW287900   5.217   3.057   6.624  0.6526 -2.1871  0.3265
27355SOL     OW87901  11.336  12.249   5.803 -0.1607  0.1420 -0.2918
27355SOL    HW187902  11.422  12.285   5.784 -0.5063  1.5439  0.6314
27355SOL    HW287903  11.278  12.288   5.737 -0.3576  0.4630  0.0671
27356SOL     OW87904   9.220   4.369  10.906 -0.3265  0.1464  0.1145
27356SOL    HW187905   9.161   4.398  10.976  0.2673  0.5363  0.4658
27356SOL    HW287906   9.211   4.436  10.838  0.3044  0.6530  0.5110
27357SOL     OW87907   0.477   3.352   2.585 -0.1358  0.0272 -0.2090
27357SOL    HW187908   0.417   3.412   2.630 -1.2799 -2.0800  1.2332
27357SOL    HW287909   0.484   3.387   2.496 -1.8920  1.4801  0.1671
27358SOL     OW87910   3.288   8.137   5.374  0.9031 -0.2800  0.2956
27358SOL    HW187911   3.379   8.164   5.364  0.5380  1.1951  0.7632
27358SOL    HW287912   3.250   8.144   5.286  0.7557  0.9932  0.4509
27359SOL     OW87913  10.806  11.377   0.961 -0.0406  0.5390 -0.1289
27359SOL    HW187914  10.783  11.293   0.921  0.1813 -0.1276  1.0659
27359SOL    HW287915  10.768  11.443   0.904 -0.2142 -0.3769 -1.0997
27360SOL     OW87916  11.116   2.459   3.662 -0.1201  0.5361  1.0212
27360SOL    HW187917  11.135   2.522   3.593 -0.6313  0.3715  0.7280
27360SOL    HW287918  11.025   2.477   3.687 -0.6823 -0.8896  0.0787
27361SOL     OW87919  11.485   4.749   7.277 -0.0670  0.2319  0.4365
27361SOL    HW187920  11.437   4.828   7.253  0.9581  0.5395 -0.7691
27361SOL    HW287921  11.418   4.687   7.305 -1.0256  1.0625  0.0387
27362SOL     OW87922   5.084   6.496   0.661  0.2884  0.8085  0.4667
27362SOL    HW187923   5.023   6.566   0.684  0.3418  0.6027  1.2631
27362SOL    HW287924   5.076   6.488   0.566 -1.2095  0.5265  0.5900
27363SOL     OW87925   4.745  12.201  11.713  0.6541  0.1694 -0.3779
27363SOL    HW187926   4.773  12.123  11.761  1.2384  0.5802 -0.0379
27363SOL    HW287927   4.777  12.274  11.766  1.2026  0.6291 -1.3379
27364SOL     OW87928   2.332   8.603   1.103 -0.4720  0.0792  0.0484
27364SOL    HW187929   2.375   8.518   1.093  0.5399  0.4203  1.1490
27364SOL    HW287930   2.356   8.630   1.192 -1.9076  0.8989  0.2038
27365SOL     OW87931   2.566   1.860   7.457  0.2422  0.1230  0.4074
27365SOL    HW187932   2.574   1.920   7.383 -1.9164  1.0865  0.8669
27365SOL    HW287933   2.474   1.868   7.484 -0.1514 -3.3781  0.5267
27366SOL     OW87934  11.081   6.714   8.822 -0.0184  0.0996 -0.2655
27366SOL    HW187935  11.069   6.780   8.891 -2.4969  0.5973 -1.0721
27366SOL    HW287936  11.041   6.634   8.859 -1.6829  0.4606 -1.1732
27367SOL     OW87937   9.885   9.792  11.779 -0.5947  0.4032  0.3550
27367SOL    HW187938   9.869   9.872  11.728 -0.5401 -0.1703 -0.5767
27367SOL    HW287939   9.898   9.823  11.869 -2.7225  1.2853  0.4336
27368SOL     OW87940   1.786   4.122  10.837  0.2313  0.0738  0.3153
27368SOL    HW187941   1.823   4.096  10.921  0.8540 -0.6586 -0.1803
27368SOL    HW287942   1.848   4.186  10.801 -1.1171  2.1028  1.3717
27369SOL     OW87943   6.191   5.737   5.569 -0.5960 -0.5080  0.3192
27369SOL    HW187944   6.180   5.832   5.580 -2.1122 -0.4231 -1.3808
27369SOL    HW287945   6.250   5.729   5.494 -2.1079 -0.8350 -0.8921
27370SOL     OW87946   9.685   7.353   5.312  0.3378 -0.2758 -0.4535
27370SOL    HW187947   9.679   7.435   5.262 -0.1815 -0.4127 -0.6188
27370SOL    HW287948   9.594   7.330   5.330  0.5225  0.8459  2.3472
27371SOL     OW87949   1.493  11.949   3.376 -0.2267  0.1716 -0.2881
27371SOL    HW187950   1.520  11.974   3.464  0.2749  0.1377 -0.4255
27371SOL    HW287951   1.570  11.905   3.339 -0.5433 -0.1105 -0.6248
27372SOL     OW87952   6.817   9.102   4.390 -0.1161 -0.1299  0.2227
27372SOL    HW187953   6.771   9.019   4.398 -0.4534  0.2068  3.2600
27372SOL    HW287954   6.905   9.079   4.360 -1.1514 -1.1619 -2.1786
27373SOL     OW87955   4.791   0.753   7.821 -1.0397  0.4131  0.0260
27373SOL    HW187956   4.731   0.802   7.765  0.9883  0.7076 -1.9840
27373SOL    HW287957   4.863   0.812   7.838  0.5393 -1.1671 -0.8475
27374SOL     OW87958   4.284   2.703   2.795 -0.0612  0.7802 -0.6682
27374SOL    HW187959   4.344   2.746   2.734 -0.2452  1.0173 -0.6823
27374SOL    HW287960   4.205   2.686   2.743 -0.0983  0.6904 -0.5832
27375SOL     OW87961   3.233   8.224   4.427  0.2261 -0.6144  0.3578
27375SOL    HW187962   3.252   8.239   4.520 -1.0228 -1.0540  0.6966
27375SOL    HW287963   3.164   8.287   4.406  0.2121 -0.8039 -0.1743
27376SOL     OW87964  12.086   2.693   6.016  0.2322 -0.0776  0.4983
27376SOL    HW187965  12.108   2.605   6.045 -0.9757  0.1110  2.1163
27376SOL    HW287966  12.094   2.747   6.094 -1.8458  0.6997  0.2556
27377SOL     OW87967   1.858  11.118   0.796 -0.2469 -0.1676 -0.3317
27377SOL    HW187968   1.830  11.210   0.798 -1.3824 -0.5104  1.1876
27377SOL    HW287969   1.814  11.082   0.719 -0.2178  0.4304 -0.6378
27378SOL     OW87970   2.445   8.516  11.931  0.3099 -0.2144 -0.2294
27378SOL    HW187971   2.531   8.551  11.908 -0.1900 -0.3792 -2.5688
27378SOL    HW287972   2.406   8.491  11.848 -1.1462 -2.1885  0.9476
27379SOL     OW87973   7.562   3.889   3.365  0.4808 -0.3038 -0.1675
27379SOL    HW187974   7.521   3.858   3.446 -0.9166  1.1761 -0.2714
27379SOL    HW287975   7.634   3.827   3.350  0.1949 -1.1569  1.6861
27380SOL     OW87976   2.057   8.612  12.150  1.0004  0.0243  0.2672
27380SOL    HW187977   2.015   8.621  12.064  1.4956  0.3000  0.0532
27380SOL    HW287978   2.148   8.639  12.136  1.4983 -1.4297  0.5150
27381SOL     OW87979   8.868   0.714   0.904  0.4818  0.0200 -0.6584
27381SOL    HW187980   8.881   0.809   0.899  2.3212 -0.2071 -0.7301
27381SOL    HW287981   8.776   0.702   0.879 -0.0546  1.8392  0.1809
27382SOL     OW87982   3.636   3.982   2.716  0.4849 -0.5941  0.0077
27382SOL    HW187983   3.567   4.041   2.746  0.2605 -0.9027  0.1087
27382SOL    HW287984   3.589   3.904   2.685  0.5781  0.2560 -2.5016
27383SOL     OW87985   5.313   3.368  11.058  0.6699  0.0870 -0.0489
27383SOL    HW187986   5.305   3.376  10.963  1.9705  0.6161 -0.1465
27383SOL    HW287987   5.285   3.279  11.078  1.0013 -0.2430 -1.0110
27384SOL     OW87988   2.694   9.762   4.137  0.2851  0.1184 -0.2164
27384SOL    HW187989   2.662   9.826   4.073 -1.6990 -0.3577  0.2407
27384SOL    HW287990   2.693   9.679   4.090  0.0236 -0.0343  0.0565
27385SOL     OW87991   6.379   5.310   4.505  0.2888 -0.1648 -0.0282
27385SOL    HW187992   6.286   5.329   4.492 -0.1929 -1.9824  0.5615
27385SOL    HW287993   6.412   5.387   4.552 -0.7416  0.7990 -0.8134
27386SOL     OW87994  12.178   9.977   1.765 -0.0767  0.1605 -0.3621
27386SOL    HW187995  12.106   9.999   1.824  0.6071  0.7237  0.2875
27386SOL    HW287996  12.249  10.035   1.792  2.0059 -3.0033  1.7154
27387SOL     OW87997   6.633   3.875   6.197  0.1282 -0.2523 -0.3941
27387SOL    HW187998   6.694   3.802   6.193  0.1771 -0.3049  0.9333
27387SOL    HW287999   6.558   3.841   6.245  0.9737  1.0907  2.0615
27388SOL     OW88000  11.200   8.126   6.848  0.4144 -0.7426  0.2916
27388SOL    HW188001  11.160   8.191   6.906  2.6699  0.2935  0.7877
27388SOL    HW288002  11.153   8.137   6.765  2.1902  3.3464 -0.4391
27389SOL     OW88003   6.220   9.149   0.503  0.2493  0.1100  0.1762
27389SOL    HW188004   6.145   9.127   0.557  1.0154 -1.9381  0.4888
27389SOL    HW288005   6.207   9.100   0.422  1.8065 -1.3109  0.7174
27390SOL     OW88006   1.094   2.994   7.763  0.3256  0.1891 -0.3035
27390SOL    HW188007   1.082   3.014   7.856  4.5677 -2.9001  1.2444
27390SOL    HW288008   1.167   3.050   7.736  1.8012 -1.6948 -0.4539
27391SOL     OW88009   9.213   0.266  10.636 -0.4951 -0.0547  0.1017
27391SOL    HW188010   9.236   0.173  10.645  0.4062  0.2491  1.1877
27391SOL    HW288011   9.227   0.303  10.723 -4.4082  0.4041  0.7089
27392SOL     OW88012   6.704  10.168   3.747  0.1780 -0.5734 -0.2878
27392SOL    HW188013   6.736  10.248   3.789 -0.4729 -0.6578  0.3792
27392SOL    HW288014   6.642  10.131   3.809  0.9197 -1.9317 -0.3052
27393SOL     OW88015   9.989  10.052   0.246  0.1204  0.2820 -0.0972
27393SOL    HW188016  10.070  10.021   0.205 -0.0205 -0.0458 -0.1300
27393SOL    HW288017  10.014  10.134   0.288  0.2531  0.6665 -0.9082
27394SOL     OW88018   4.509   0.956   3.044 -0.1994 -0.6855  0.8720
27394SOL    HW188019   4.438   0.893   3.039 -1.2523  0.5663 -1.4958
27394SOL    HW288020   4.531   0.976   2.953 -1.1767  3.5989  1.3396
27395SOL     OW88021   8.947   5.209   4.050  0.2725  0.0280 -0.0062
27395SOL    HW188022   9.005   5.284   4.038  0.3700 -0.1135 -0.4342
27395SOL    HW288023   9.004   5.140   4.083  0.2731 -0.0027 -0.0729
27396SOL     OW88024   4.385   0.177   2.523  0.4963  0.1896 -0.3985
27396SOL    HW188025   4.378   0.134   2.607 -0.8896  1.0511 -0.0431
27396SOL    HW288026   4.346   0.264   2.537  0.0045  0.2563 -1.9664
27397SOL     OW88027   7.003   7.886   7.552 -0.5237 -0.1583  0.4457
27397SOL    HW188028   7.091   7.889   7.590 -0.5219 -0.4126  0.4606
27397SOL    HW288029   6.952   7.948   7.604 -0.3185  0.0906  0.3512
27398SOL     OW88030   8.105   7.674   0.740  0.3478  0.1965  0.4708
27398SOL    HW188031   8.022   7.698   0.782 -0.1404 -0.7910  0.1112
27398SOL    HW288032   8.114   7.737   0.668  0.9454  1.5854  1.7185
27399SOL     OW88033  12.200   6.572   8.179 -0.2847  0.3003  0.2272
27399SOL    HW188034  12.185   6.594   8.271  0.3096 -0.2707  0.4696
27399SOL    HW288035  12.223   6.655   8.138  1.8116  0.2008  1.0997
27400SOL     OW88036   9.645   3.372   3.148  0.7340 -0.6076  0.4031
27400SOL    HW188037   9.596   3.453   3.156 -0.1184 -0.8517 -1.5849
27400SOL    HW288038   9.710   3.391   3.080  1.0485 -1.3455  0.4913
27401SOL     OW88039   3.723   2.405   2.779  0.1550  0.2085 -0.0229
27401SOL    HW188040   3.632   2.409   2.808  0.7245 -1.4232  2.3180
27401SOL    HW288041   3.733   2.478   2.718 -2.4602  0.9641  0.3565
27402SOL     OW88042  10.998   2.045  10.808  0.3085 -0.5948 -0.1112
27402SOL    HW188043  10.948   2.089  10.739 -0.6167 -0.6702  0.4970
27402SOL    HW288044  11.010   1.956  10.777  0.7179 -0.3804 -0.5886
27403SOL     OW88045   6.142   8.255   6.576 -0.1569 -0.3432 -0.7065
27403SOL    HW188046   6.184   8.268   6.661  0.9512 -1.3308 -1.0662
27403SOL    HW288047   6.205   8.290   6.513 -1.0997  0.6608 -1.1219
27404SOL     OW88048  10.502   3.512  11.952  0.3429 -0.1471  0.1394
27404SOL    HW188049  10.593   3.485  11.943  0.6221  0.9004 -0.3861
27404SOL    HW288050  10.495   3.590  11.898 -0.5541  0.5095  1.1492
27405SOL     OW88051   7.798  10.226   5.414 -0.2915  1.1154  0.0768
27405SOL    HW188052   7.858  10.226   5.490  1.0708 -1.2031 -0.8758
27405SOL    HW288053   7.850  10.261   5.342  0.4152 -1.8282 -0.9966
27406SOL     OW88054   1.954   4.298   0.189  0.2728 -0.4562 -0.3590
27406SOL    HW188055   2.046   4.324   0.194  0.6469 -1.9300  1.3861
27406SOL    HW288056   1.947   4.254   0.104  1.1068 -0.1276 -0.6160
27407SOL     OW88057   4.872   2.943  11.937  0.1548  0.9381 -0.3861
27407SOL    HW188058   4.849   2.903  11.854  2.1998 -2.0940  0.3080
27407SOL    HW288059   4.968   2.942  11.938  0.2677  3.9616  0.7014
27408SOL     OW88060   1.000   8.581   7.620 -0.1646 -0.0509  0.4630
27408SOL    HW188061   0.905   8.592   7.609 -0.1538  0.2635  0.6686
27408SOL    HW288062   1.022   8.640   7.692  0.0572 -0.7122  0.9491
27409SOL     OW88063   5.524   9.027   1.317  0.1675  0.7017 -0.0888
27409SOL    HW188064   5.577   8.990   1.388  0.1623  0.6424 -0.1157
27409SOL    HW288065   5.495   8.950   1.267  0.3006  0.7536 -0.2461
27410SOL     OW88066   3.021  11.031   4.986  0.2492 -0.4904  0.2365
27410SOL    HW188067   2.936  11.072   4.973  0.6627  0.3922  0.2654
27410SOL    HW288068   3.016  10.948   4.938 -0.2898 -0.0061 -0.5551
27411SOL     OW88069   3.512   7.346   4.243  0.2340 -0.4952  0.1171
27411SOL    HW188070   3.484   7.260   4.212 -1.8689  0.0581  0.3441
27411SOL    HW288071   3.446   7.406   4.210  2.3195  1.2604 -1.0841
27412SOL     OW88072  11.813   6.409   1.766 -0.0400 -0.1298  0.0260
27412SOL    HW188073  11.814   6.348   1.840 -1.0259  1.9288  1.8484
27412SOL    HW288074  11.722   6.410   1.737 -0.1689  0.9215  0.4347
27413SOL     OW88075  10.016  10.353   9.266 -0.6057 -0.4206  0.3910
27413SOL    HW188076   9.999  10.305   9.347  0.3737 -1.9779 -0.2871
27413SOL    HW288077   9.980  10.440   9.282 -1.2382 -0.9657  2.1591
27414SOL     OW88078  10.658   9.421   2.553 -0.1194  0.4936  0.7131
27414SOL    HW188079  10.715   9.467   2.614 -0.4218  0.7275  0.8188
27414SOL    HW288080  10.597   9.488   2.523  0.0275  0.3810  0.1530
27415SOL     OW88081   6.884  11.400   8.875  0.0288  0.3472  0.0910
27415SOL    HW188082   6.975  11.375   8.890 -0.5139 -2.0701 -0.1965
27415SOL    HW288083   6.883  11.428   8.783  0.5875  1.0144  0.2777
27416SOL     OW88084   1.194   3.586   0.933  0.2292 -0.0011  0.0309
27416SOL    HW188085   1.243   3.505   0.920  1.6013  0.6122  1.0908
27416SOL    HW288086   1.195   3.629   0.847  1.1911 -0.2098 -0.0700
27417SOL     OW88087   9.274   3.959   5.840  0.0934 -0.3771 -0.0001
27417SOL    HW188088   9.266   3.928   5.930 -0.5577 -0.9072 -0.2328
27417SOL    HW288089   9.311   3.884   5.792  0.6271 -0.0301 -0.1378
27418SOL     OW88090  10.771   9.940   9.828 -0.3816 -0.4499 -0.1358
27418SOL    HW188091  10.766  10.034   9.811 -0.1388 -0.1173  1.4777
27418SOL    HW288092  10.786   9.933   9.922 -0.3258 -2.1116 -0.2331
27419SOL     OW88093   9.946   4.482   1.192  0.1307  0.0154 -0.0870
27419SOL    HW188094   9.893   4.423   1.137 -0.0907 -1.8441  1.9598
27419SOL    HW288095  10.010   4.424   1.234 -0.0729  1.1980  1.9992
27420SOL     OW88096   3.053  10.047   2.626  0.5331  0.0943 -0.1615
27420SOL    HW188097   3.042  10.124   2.683  2.0406  0.0418  0.2424
27420SOL    HW288098   3.127  10.000   2.663  1.5363  0.0166 -2.1254
27421SOL     OW88099   6.188   8.363  10.542  0.2600  0.2504  0.0737
27421SOL    HW188100   6.190   8.267  10.540 -0.5220  0.1814  1.2380
27421SOL    HW288101   6.095   8.384  10.549  0.4233  1.1049 -0.2124
27422SOL     OW88102   7.365  10.381   6.441  0.1545  0.1208  0.2965
27422SOL    HW188103   7.458  10.371   6.461  0.5122 -0.6729 -1.5395
27422SOL    HW288104   7.338  10.295   6.409 -0.5526  0.9809 -1.5516
27423SOL     OW88105   6.324   3.759   5.268 -0.5760 -0.2067  0.2384
27423SOL    HW188106   6.375   3.813   5.328 -1.4009  0.2972  0.4996
27423SOL    HW288107   6.383   3.688   5.244 -0.1211 -0.2316  1.3752
27424SOL     OW88108   9.493   1.115   0.300  0.1608 -0.1209  0.0949
27424SOL    HW188109   9.465   1.189   0.247  2.9017  1.3280  0.4673
27424SOL    HW288110   9.478   1.143   0.391 -0.0899 -0.6138  0.2111
27425SOL     OW88111   1.899  11.455   0.969  0.1972  0.0484  0.8282
27425SOL    HW188112   1.902  11.377   1.024  0.5032  0.3746  1.2767
27425SOL    HW288113   1.877  11.422   0.882  1.3676 -0.6561  0.7782
27426SOL     OW88114  10.459   2.558   1.618 -0.7744 -0.6098  0.1532
27426SOL    HW188115  10.370   2.570   1.651 -0.0916  0.7322  1.6616
27426SOL    HW288116  10.448   2.552   1.523 -2.4053  0.3756  0.2273
27427SOL     OW88117   8.693   7.033   5.497  0.0205 -0.0563  0.0973
27427SOL    HW188118   8.674   7.030   5.403 -0.2598  1.3825  0.0766
27427SOL    HW288119   8.711   7.126   5.514  4.9734 -0.8056  0.5220
27428SOL     OW88120   3.419   6.587  11.575  0.6423  0.0272 -0.0267
27428SOL    HW188121   3.451   6.592  11.665 -0.6646  2.5972  0.3922
27428SOL    HW288122   3.488   6.627  11.522  0.3128  0.9356  0.2122
27429SOL     OW88123   7.625   7.412  11.388 -0.2846  0.1172 -0.3541
27429SOL    HW188124   7.583   7.474  11.329 -0.4953 -0.6015 -0.9687
27429SOL    HW288125   7.716   7.409  11.360 -0.4876 -0.5980 -0.9941
27430SOL     OW88126  10.860   7.760   1.672 -0.0344 -0.2029  0.4214
27430SOL    HW188127  10.913   7.683   1.652  1.1739  0.5683  0.5720
27430SOL    HW288128  10.842   7.800   1.587  0.1275 -0.1313  0.4221
27431SOL     OW88129   9.906   4.191   3.084 -0.1811 -0.1633  0.2107
27431SOL    HW188130   9.908   4.118   3.021 -3.2962 -2.6303  2.6485
27431SOL    HW288131   9.973   4.168   3.149  0.3439  0.3611 -0.1302
27432SOL     OW88132   0.066   8.971   8.786 -0.2690  0.7576 -0.0553
27432SOL    HW188133   0.095   8.985   8.877 -0.7206  0.7046  0.0977
27432SOL    HW288134   0.049   9.059   8.752 -0.3997  0.7585  0.0112
27433SOL     OW88135   6.211   9.423   0.535 -0.1434 -0.0811 -0.1188
27433SOL    HW188136   6.196   9.329   0.522 -0.6384 -0.0681  0.3027
27433SOL    HW288137   6.134   9.452   0.585  0.1661  0.4814  0.0367
27434SOL     OW88138   2.160   7.263  11.901 -0.0095  0.1281 -0.4595
27434SOL    HW188139   2.116   7.348  11.892  2.6043  1.7586  0.9499
27434SOL    HW288140   2.253   7.283  11.891  0.7227 -2.5331  0.2803
27435SOL     OW88141   9.803   1.963   5.031 -0.1104  0.3704  0.4978
27435SOL    HW188142   9.782   1.930   5.119 -0.9921  1.3756  0.6847
27435SOL    HW288143   9.770   1.896   4.972  0.1788 -0.1576  0.9316
27436SOL     OW88144   5.478   0.427  10.327  0.7266 -0.3305 -0.0806
27436SOL    HW188145   5.452   0.354  10.383  1.2006 -0.3044  0.1873
27436SOL    HW288146   5.437   0.504  10.367  0.5868 -0.3916 -0.1083
27437SOL     OW88147   8.548   8.430   5.730  0.6353  0.3266 -0.2372
27437SOL    HW188148   8.569   8.342   5.697 -0.8155 -0.0127 -0.3433
27437SOL    HW288149   8.534   8.482   5.651  1.8914  0.7792 -0.1791
27438SOL     OW88150   3.669   5.519   3.786  0.0148 -0.0097 -0.4301
27438SOL    HW188151   3.737   5.468   3.831  0.5218  1.1472  0.2030
27438SOL    HW288152   3.660   5.478   3.700  1.8204  0.0287 -0.6789
27439SOL     OW88153   8.399   6.955   4.395 -0.5025  0.2241 -0.2927
27439SOL    HW188154   8.363   6.869   4.416 -0.8506  0.0935 -1.3315
27439SOL    HW288155   8.492   6.939   4.378 -0.3603  0.2249  0.4810
27440SOL     OW88156   3.287  10.431   8.944  0.1317  0.4976  0.2376
27440SOL    HW188157   3.331  10.402   8.864 -3.3200  2.2687 -2.5603
27440SOL    HW288158   3.208  10.377   8.948 -0.1328  0.9698  2.1076
27441SOL     OW88159   4.298   0.432  10.931 -0.1347  0.0042  0.2718
27441SOL    HW188160   4.243   0.420  10.854  1.7634 -0.3633 -1.0948
27441SOL    HW288161   4.386   0.408  10.902  0.9851  1.6986  2.0107
27442SOL     OW88162   7.372   9.044   2.050  0.0079  0.4015  0.4747
27442SOL    HW188163   7.458   9.062   2.011 -0.9578  4.8496 -0.1640
27442SOL    HW288164   7.313   9.034   1.976 -0.5479  0.7573  0.8604
27443SOL     OW88165   8.274   7.255   6.400  0.6253  0.1084 -0.0181
27443SOL    HW188166   8.316   7.209   6.326 -1.1566 -0.9393 -0.4417
27443SOL    HW288167   8.201   7.302   6.360  0.1253  0.1846  0.9804
27444SOL     OW88168   4.765   8.728   2.114  0.0776 -0.2259 -0.5947
27444SOL    HW188169   4.767   8.670   2.037  0.7232  2.5471 -2.8253
27444SOL    HW288170   4.854   8.725   2.149 -0.1454 -1.2800 -0.0706
27445SOL     OW88171   1.059   6.282  10.695 -0.4056  0.5628  0.3440
27445SOL    HW188172   1.135   6.262  10.749 -0.6205 -1.4143 -0.0156
27445SOL    HW288173   1.089   6.351  10.636  0.2791  1.6935  1.9256
27446SOL     OW88174   6.850   1.699   7.898  0.5220 -0.4586 -0.2250
27446SOL    HW188175   6.886   1.769   7.843  1.1805 -0.2165  0.4844
27446SOL    HW288176   6.887   1.619   7.860 -1.2728 -0.5873 -1.8487
27447SOL     OW88177  12.158   7.444  11.598  0.1721 -0.0588  0.7483
27447SOL    HW188178  12.247   7.444  11.562 -0.0574  1.1891  0.1248
27447SOL    HW288179  12.133   7.537  11.600 -1.3058 -0.4175  0.4087
27448SOL     OW88180   9.303   2.209   1.218 -0.2482 -0.4064  0.3678
27448SOL    HW188181   9.323   2.295   1.254  2.9830 -1.0238  0.3104
27448SOL    HW288182   9.254   2.165   1.288  0.6504  0.4698  1.5910
27449SOL     OW88183   5.532   6.563   3.876  0.0370  0.2971  0.0080
27449SOL    HW188184   5.510   6.656   3.879 -0.2114  0.2142  2.5678
27449SOL    HW288185   5.537   6.543   3.782 -1.9087  2.3854 -0.6326
27450SOL     OW88186   0.947   7.058   4.928 -0.2117  0.7754  0.0855
27450SOL    HW188187   1.000   7.076   4.850  1.3789 -0.4824  0.8234
27450SOL    HW288188   0.963   7.132   4.986  0.8373  0.3671  0.3347
27451SOL     OW88189   6.522  12.099   7.239 -0.0762 -0.5676  0.2323
27451SOL    HW188190   6.433  12.095   7.275  0.3404  0.6233  1.5094
27451SOL    HW288191   6.511  12.085   7.145 -1.7074  0.2517  0.2574
27452SOL     OW88192   5.219   7.111   9.363 -0.9010  0.6033 -0.2238
27452SOL    HW188193   5.295   7.168   9.368 -1.5290  1.4167  0.4036
27452SOL    HW288194   5.253   7.023   9.379 -0.0733  0.9403 -0.1236
27453SOL     OW88195   9.039   0.440   7.442  0.2253 -0.2087 -0.3841
27453SOL    HW188196   9.052   0.423   7.349  2.8255 -1.0966  0.0719
27453SOL    HW288197   9.015   0.355   7.479  0.6632 -0.1766 -0.0207
27454SOL     OW88198   8.932   7.371   7.972 -0.3729 -0.4213  0.6626
27454SOL    HW188199   8.876   7.317   7.917  0.2632  1.8833 -2.5436
27454SOL    HW288200   8.926   7.459   7.935  3.6088  0.4127  1.4330
27455SOL     OW88201  10.691  11.383   7.843  0.5094  0.0294 -0.1735
27455SOL    HW188202  10.676  11.300   7.798  1.5443 -1.5363  2.1966
27455SOL    HW288203  10.616  11.394   7.901  0.5039  0.6353 -0.2817
27456SOL     OW88204   2.800   8.717   6.254  0.0915  0.6780  0.2336
27456SOL    HW188205   2.889   8.749   6.264  0.2046  0.1807  0.8273
27456SOL    HW288206   2.809   8.623   6.242 -0.4357  0.3627  2.0229
27457SOL     OW88207   3.964   5.589   9.543  0.1707 -0.5278 -0.2631
27457SOL    HW188208   3.875   5.564   9.521  0.5295 -0.5001 -1.8424
27457SOL    HW288209   3.987   5.657   9.479  0.5980  1.0154  1.4369
27458SOL     OW88210   0.824   6.783   3.112  0.2608 -0.7284 -0.1025
27458SOL    HW188211   0.840   6.716   3.046  0.7917  0.1394 -0.8833
27458SOL    HW288212   0.845   6.866   3.068 -2.3577  0.1636  0.1427
27459SOL     OW88213   0.865   2.635   6.417  0.1124  0.0304  0.0008
27459SOL    HW188214   0.916   2.687   6.355 -0.3331 -0.4486 -0.7729
27459SOL    HW288215   0.774   2.658   6.399  0.0164  0.6448  1.1669
27460SOL     OW88216   3.032   5.337   1.857  0.2408  0.2570 -0.1324
27460SOL    HW188217   2.978   5.321   1.779  0.3638  0.6733 -0.3098
27460SOL    HW288218   3.116   5.367   1.822  0.1192  0.9653  0.1695
27461SOL     OW88219   5.374   5.942   8.597  0.1710  0.2513 -0.1788
27461SOL    HW188220   5.415   5.868   8.553  0.1706  0.1466 -0.0008
27461SOL    HW288221   5.284   5.944   8.563  0.5599  0.9924 -1.2093
27462SOL     OW88222   0.143   3.249   3.183  0.0773 -0.2872 -0.1173
27462SOL    HW188223   0.228   3.287   3.162 -0.1994 -0.2421 -1.2267
27462SOL    HW288224   0.154   3.214   3.271  1.0808  0.1844 -0.0356
27463SOL     OW88225   4.548   6.517   8.019  0.5292 -0.7805  0.1601
27463SOL    HW188226   4.474   6.460   8.038  0.4392 -0.5796  0.4071
27463SOL    HW288227   4.617   6.457   7.990 -0.2919 -0.8169 -1.8343
27464SOL     OW88228   1.424  11.770   1.136 -0.2564 -0.4223 -0.2952
27464SOL    HW188229   1.483  11.761   1.211 -0.7113  0.4458  0.1902
27464SOL    HW288230   1.447  11.697   1.078 -0.0886 -1.2806  0.8202
27465SOL     OW88231   5.954   0.071   2.389 -0.4140 -0.1091  0.0397
27465SOL    HW188232   5.871   0.074   2.436 -1.1175 -0.5670 -1.1622
27465SOL    HW288233   5.932   0.041   2.301  0.6805  2.0193 -1.0370
27466SOL     OW88234   3.695   1.687   1.133  0.2354  0.0900 -0.2653
27466SOL    HW188235   3.726   1.648   1.051 -1.0267 -0.8217 -0.3444
27466SOL    HW288236   3.775   1.708   1.182  1.0110  0.8911 -1.8221
27467SOL     OW88237   8.920   8.283  11.893  0.1270 -0.4002 -0.5324
27467SOL    HW188238   8.887   8.226  11.825 -1.5498  0.1207 -0.2119
27467SOL    HW288239   9.011   8.257  11.905 -0.4073 -2.5904 -0.7977
27468SOL     OW88240   5.195   4.048   9.330  0.2281 -0.0841  0.1109
27468SOL    HW188241   5.213   3.978   9.268 -1.9700 -1.2881  0.7344
27468SOL    HW288242   5.168   4.003   9.410 -0.6100  1.4475  0.7421
27469SOL     OW88243   5.961   3.892  11.213  0.0474  0.1438  0.0913
27469SOL    HW188244   5.893   3.920  11.275  0.8695 -0.8529  1.5022
27469SOL    HW288245   5.914   3.835  11.151 -0.6774  0.6672  0.1431
27470SOL     OW88246   5.531   8.773  10.225 -0.2183 -0.8845 -0.6243
27470SOL    HW188247   5.566   8.787  10.137  0.1098 -0.0302 -0.3754
27470SOL    HW288248   5.456   8.715  10.212  0.3749 -1.5176 -1.3483
27471SOL     OW88249   1.553   5.226  10.934 -0.6273  0.9286 -0.0526
27471SOL    HW188250   1.604   5.145  10.937 -0.3681  1.0994  0.1738
27471SOL    HW288251   1.610   5.292  10.973 -0.8671  1.2061 -0.1656
27472SOL     OW88252  10.371   9.966  11.135 -0.1899  0.3239 -0.2578
27472SOL    HW188253  10.430   9.945  11.063 -0.5667 -1.2931 -0.1310
27472SOL    HW288254  10.330   9.882  11.158 -0.8342  0.9956  1.1636
27473SOL     OW88255   4.027   7.227   1.252 -0.5617  0.3385 -0.1345
27473SOL    HW188256   4.122   7.229   1.254 -0.4890 -1.6275  0.5355
27473SOL    HW288257   4.000   7.293   1.316  0.3394  0.7936 -0.2087
27474SOL     OW88258   9.508  10.027   9.049  0.0041 -0.0315  0.1278
27474SOL    HW188259   9.532  10.088   9.118 -1.3855  0.7886 -0.0655
27474SOL    HW288260   9.459  10.080   8.986 -0.5887 -1.1858 -0.4224
27475SOL     OW88261   2.815   2.608   3.044 -0.3364 -0.1569 -0.0809
27475SOL    HW188262   2.875   2.679   3.022  0.8995 -1.1630 -0.0753
27475SOL    HW288263   2.749   2.648   3.099 -0.4042  1.2537 -1.1393
27476SOL     OW88264   6.725   0.801   1.166 -0.2268  0.2353 -0.1912
27476SOL    HW188265   6.747   0.720   1.212 -0.6578  0.5646  0.6110
27476SOL    HW288266   6.749   0.784   1.074 -0.7489 -0.9683 -0.1250
27477SOL     OW88267   7.228   7.354   6.045  0.0565  0.3282 -0.1585
27477SOL    HW188268   7.243   7.440   6.085 -0.0045  0.5680 -0.6511
27477SOL    HW288269   7.279   7.356   5.964  0.0335 -0.0944 -0.1856
27478SOL     OW88270  10.410   3.473   8.847  0.5741  0.2873 -0.5143
27478SOL    HW188271  10.427   3.490   8.940  2.7267  0.9564 -0.9803
27478SOL    HW288272  10.314   3.466   8.841  0.4392 -0.8757  1.9154
27479SOL     OW88273   2.991   8.047  10.280  0.4752  0.0111 -0.0718
27479SOL    HW188274   2.973   8.137  10.253  0.1201  0.1412  0.5505
27479SOL    HW288275   2.970   8.046  10.374 -0.0641 -0.8529 -0.1834
27480SOL     OW88276   4.733  12.180   1.966  0.0180 -0.3212 -0.0058
27480SOL    HW188277   4.663  12.235   1.930 -0.2907  0.3906  1.5810
27480SOL    HW288278   4.778  12.144   1.890 -1.2807  0.2344 -1.0666
27481SOL     OW88279   0.549   2.001   8.436  0.1161  0.0193  0.3536
27481SOL    HW188280   0.477   1.938   8.439 -1.2910  1.5359  0.0450
27481SOL    HW288281   0.579   2.007   8.526 -0.2895 -0.4632  0.5272
27482SOL     OW88282   3.141   9.767  10.669 -0.3063 -0.3134  0.5056
27482SOL    HW188283   3.208   9.769  10.738  1.1465  1.7047 -0.8349
27482SOL    HW288284   3.065   9.808  10.709  1.1807  2.8107  0.4232
27483SOL     OW88285   0.429  10.144   5.550  0.1307  0.1060 -0.1033
27483SOL    HW188286   0.461  10.060   5.584 -2.1318 -1.9351 -2.6292
27483SOL    HW288287   0.362  10.171   5.613  1.7569  0.8173  1.4244
27484SOL     OW88288   0.849   3.949   4.027 -0.4714  0.3613  0.7177
27484SOL    HW188289   0.807   4.032   4.046  0.9694  0.9566  1.5058
27484SOL    HW288290   0.778   3.886   4.022 -1.4368  1.2625  2.2270
27485SOL     OW88291  10.380   0.963   7.632 -0.1384 -0.1925  0.1267
27485SOL    HW188292  10.412   1.050   7.656  0.0187 -0.0314 -0.6445
27485SOL    HW288293  10.395   0.956   7.538 -0.8038 -0.7795  0.0478
27486SOL     OW88294   1.914   9.640   4.861  0.5860 -0.4364  0.7390
27486SOL    HW188295   1.966   9.618   4.783  0.7048  0.1929  0.6301
27486SOL    HW288296   1.979   9.657   4.929  0.6116  1.4507  0.3137
27487SOL     OW88297   9.322   9.555   6.863 -0.0728  0.4264  0.0430
27487SOL    HW188298   9.234   9.526   6.889 -0.0934  0.9718  0.6051
27487SOL    HW288299   9.380   9.521   6.932 -0.1352  1.9191  0.8642
27488SOL     OW88300   4.905   3.966   8.639  0.5147 -0.1026 -0.7750
27488SOL    HW188301   4.877   4.024   8.569  3.3782 -0.0774 -2.0646
27488SOL    HW288302   4.982   3.921   8.604  1.0236 -1.4093  1.7409
27489SOL     OW88303   7.961   2.441   6.734  0.3588  0.6242 -0.9159
27489SOL    HW188304   8.008   2.478   6.809 -0.2465 -0.6799  0.1659
27489SOL    HW288305   7.888   2.393   6.774 -1.2802  1.7194 -2.4772
27490SOL     OW88306   3.821   3.384   4.454 -0.1650  0.1176  0.6371
27490SOL    HW188307   3.832   3.457   4.514  1.1338  0.9453 -0.5484
27490SOL    HW288308   3.764   3.418   4.385 -0.7871 -0.4896  0.8371
27491SOL     OW88309   2.056   9.921   0.600 -0.5615  0.0341  0.4490
27491SOL    HW188310   2.092   9.852   0.656 -0.5829 -0.1209  0.2752
27491SOL    HW288311   1.993   9.875   0.543 -0.1221  0.0887 -0.0858
27492SOL     OW88312   1.172   7.749   9.993 -0.1996  0.0316  0.3312
27492SOL    HW188313   1.159   7.656  10.008  1.5333 -0.9823 -3.4488
27492SOL    HW288314   1.116   7.770   9.918  0.5925  1.6490  0.1451
27493SOL     OW88315   6.525   7.496   4.314 -0.1880  0.2620  0.3537
27493SOL    HW188316   6.566   7.492   4.401 -0.2452 -0.4199  0.3519
27493SOL    HW288317   6.599   7.505   4.254  0.1457 -2.5269  0.2195
27494SOL     OW88318   3.988   5.861   4.527  0.0194  0.0438 -0.7385
27494SOL    HW188319   3.985   5.943   4.478 -0.5242  0.5834  0.1870
27494SOL    HW288320   3.973   5.886   4.618  0.4485 -1.0137 -0.3572
27495SOL     OW88321   0.079   3.479  10.822  0.7142 -0.2906 -0.4121
27495SOL    HW188322   0.072   3.539  10.748 -0.0542  0.3004  0.1225
27495SOL    HW288323   0.077   3.535  10.899  0.5389 -0.9594  0.0839
27496SOL     OW88324   6.929   8.461  11.426  0.0967 -0.5793  0.2937
27496SOL    HW188325   7.001   8.427  11.478 -0.3314  0.3992  1.5784
27496SOL    HW288326   6.915   8.395  11.358  2.1079 -0.8364  0.0696
27497SOL     OW88327   4.999   1.212   0.768  0.0778 -0.4353 -0.1580
27497SOL    HW188328   4.912   1.246   0.788  0.8578  1.0082  0.9816
27497SOL    HW288329   5.041   1.281   0.717  1.3996  0.0309  1.4691
27498SOL     OW88330  11.912   9.210  11.983 -0.5926  0.2225 -1.0371
27498SOL    HW188331  11.998   9.249  11.999  0.0452 -0.5369 -2.4170
27498SOL    HW288332  11.851   9.283  11.990  0.3747  1.1440 -1.8715
27499SOL     OW88333   4.029  11.730   9.875  0.1105  0.5104  0.1677
27499SOL    HW188334   3.970  11.662   9.908 -0.3684  0.6399 -0.3975
27499SOL    HW288335   3.993  11.752   9.789  0.2901  1.4519  0.3263
27500SOL     OW88336   2.512   4.370   2.048  0.1633  0.4397  0.0911
27500SOL    HW188337   2.555   4.310   2.109 -2.0005  0.1292  1.4177
27500SOL    HW288338   2.548   4.347   1.962  2.3478  0.0186  1.0780
27501SOL     OW88339  11.230   3.588   5.973 -0.2123  0.6834 -0.2169
27501SOL    HW188340  11.185   3.506   5.996 -0.6350  0.9335 -0.1562
27501SOL    HW288341  11.282   3.565   5.895  0.4093  0.1101  0.3528
27502SOL     OW88342   0.746   1.148   9.567 -0.2782 -0.2019 -0.2017
27502SOL    HW188343   0.814   1.212   9.588  0.3424 -0.6119 -0.9234
27502SOL    HW288344   0.720   1.169   9.477 -1.6966  0.4606  0.3397
27503SOL     OW88345   4.459   2.373   1.963 -0.4853 -0.6762 -0.7126
27503SOL    HW188346   4.441   2.461   1.996 -0.0690 -0.5030 -0.9408
27503SOL    HW288347   4.465   2.384   1.868 -0.4181 -0.9509 -0.7396
27504SOL     OW88348   5.375   4.823  11.015  0.2571 -0.3151 -0.0134
27504SOL    HW188349   5.401   4.905  11.056 -0.5460 -0.1672  0.2100
27504SOL    HW288350   5.378   4.842  10.921 -0.9557  0.3144  0.0506
27505SOL     OW88351   6.187   6.926   5.090  0.3838  0.4635  0.1909
27505SOL    HW188352   6.256   6.909   5.154 -0.1562 -0.7393  0.4831
27505SOL    HW288353   6.223   6.995   5.034  1.3303  0.7119  1.0689
27506SOL     OW88354   4.409   2.833   0.243 -0.0528  0.5278  0.1781
27506SOL    HW188355   4.445   2.818   0.330 -0.7537  0.1953  0.4184
27506SOL    HW288356   4.368   2.919   0.249 -0.5703  0.2759  0.3450
27507SOL     OW88357  12.008   5.680  12.229  0.2588 -0.0744  0.4065
27507SOL    HW188358  12.032   5.773  12.229 -0.7240  0.2001 -0.3278
27507SOL    HW288359  11.942   5.672  12.297 -2.3643  0.5720 -1.8824
27508SOL     OW88360  10.515   5.155   4.371  0.1473  0.1858  0.0807
27508SOL    HW188361  10.595   5.130   4.416  0.4212 -0.4699 -0.7410
27508SOL    HW288362  10.513   5.250   4.375  1.0845  0.2212 -0.0887
27509SOL     OW88363   1.004   3.317   7.217 -0.1016 -0.6486 -0.3787
27509SOL    HW188364   1.086   3.291   7.259 -1.6441 -1.7797  2.1238
27509SOL    HW288365   0.962   3.376   7.280 -1.0267  0.3266 -1.8363
27510SOL     OW88366   3.981  11.202  11.155 -0.2649 -0.2238  0.2303
27510SOL    HW188367   3.952  11.223  11.066 -0.1546 -1.3793 -0.0916
27510SOL    HW288368   3.988  11.107  11.156  0.4817 -0.1709  1.2565
27511SOL     OW88369   7.824   4.832   6.841  0.1865  0.1870 -0.7031
27511SOL    HW188370   7.751   4.810   6.783 -1.0831 -0.8271  1.1836
27511SOL    HW288371   7.879   4.753   6.840 -0.7164 -0.5173  0.6662
27512SOL     OW88372   0.554  10.396   4.145 -0.1814 -0.0274  0.4350
27512SOL    HW188373   0.521  10.462   4.083  0.3741 -2.4439 -2.7172
27512SOL    HW288374   0.475  10.356   4.181 -0.6447 -0.7359 -1.2772
27513SOL     OW88375   1.659   8.713   7.154  0.2008  0.9662 -0.7512
27513SOL    HW188376   1.704   8.628   7.153 -1.7439 -0.1199 -2.3630
27513SOL    HW288377   1.654   8.735   7.247  2.7340  0.4673 -0.4222
27514SOL     OW88378   1.531   8.915  12.194 -0.2695  0.2510 -0.1590
27514SOL    HW188379   1.545   8.995  12.144  0.8144 -0.1012 -0.4543
27514SOL    HW288380   1.495   8.853  12.131  0.4870  0.0047 -0.3611
27515SOL     OW88381   2.804   1.157   2.716  0.1720 -0.6332 -0.2041
27515SOL    HW188382   2.893   1.121   2.720  0.6045  0.2942 -0.8175
27515SOL    HW288383   2.815   1.250   2.738 -0.7221 -0.6150  0.1967
27516SOL     OW88384   7.952   7.391  10.770  0.1715 -0.5386  0.1504
27516SOL    HW188385   7.991   7.310  10.737 -0.5785 -0.6121 -0.5769
27516SOL    HW288386   7.899   7.423  10.697  0.5324  0.6558  0.4011
27517SOL     OW88387   8.475   9.217   3.700  0.8039 -0.3305 -0.6229
27517SOL    HW188388   8.548   9.172   3.743 -0.4279 -1.3288  0.5205
27517SOL    HW288389   8.456   9.162   3.624  1.4568  0.1247 -1.1223
27518SOL     OW88390   8.513   7.684   7.781  0.8431  0.0334 -0.4837
27518SOL    HW188391   8.574   7.612   7.795  1.7674  0.8725 -0.0924
27518SOL    HW288392   8.437   7.661   7.835  1.0187 -0.7642 -0.5608
27519SOL     OW88393   2.692   1.062   8.490 -0.7917 -0.3850 -0.1445
27519SOL    HW188394   2.788   1.058   8.479 -0.2001  1.8534  2.9261
27519SOL    HW288395   2.664   1.131   8.430 -0.1428  0.4029  0.4387
27520SOL     OW88396   9.945   4.385   2.356 -0.8157 -0.1763 -0.7929
27520SOL    HW188397   9.916   4.445   2.287  0.6080  1.9181  0.2982
27520SOL    HW288398   9.884   4.402   2.428 -0.8050 -0.5226 -0.7031
27521SOL     OW88399   7.288   2.484   9.609 -0.4616 -0.2203  0.0993
27521SOL    HW188400   7.371   2.504   9.653  0.3290  0.8752 -1.7805
27521SOL    HW288401   7.303   2.399   9.568 -0.6615 -0.5156  0.6230
27522SOL     OW88402  10.537  12.097  11.992 -0.8845  0.1836 -0.0802
27522SOL    HW188403  10.628  12.069  11.980 -0.9505 -0.1293  0.1510
27522SOL    HW288404  10.542  12.165  12.059 -0.9733 -0.7650  0.9134
27523SOL     OW88405   6.477   4.242  10.210  0.5440 -0.2155 -0.4599
27523SOL    HW188406   6.521   4.163  10.243 -0.1752 -0.1406  0.7655
27523SOL    HW288407   6.391   4.240  10.253 -0.1566  0.3180 -1.8015
27524SOL     OW88408   5.046   2.269   1.991  0.3349 -0.3074  0.3610
27524SOL    HW188409   5.000   2.342   1.949  0.8824 -0.4945 -0.6021
27524SOL    HW288410   4.977   2.210   2.021 -0.0891 -0.9586 -1.7390
27525SOL     OW88411   3.003  12.024  10.154 -0.2760  0.8087 -0.6862
27525SOL    HW188412   2.911  12.019  10.128 -0.5829  0.9226  0.3372
27525SOL    HW288413   3.037  12.100  10.106 -0.8921  1.1762 -0.5497
27526SOL     OW88414  10.470   9.565  10.121  0.1842 -1.0444  0.2644
27526SOL    HW188415  10.375   9.554  10.110 -0.0606 -0.1507  1.2564
27526SOL    HW288416  10.481   9.658  10.139  1.2874 -1.1020 -0.0516
27527SOL     OW88417  11.191  10.333   2.152 -0.9878  0.5824 -0.2176
27527SOL    HW188418  11.159  10.363   2.237  1.1749 -0.5615  1.0820
27527SOL    HW288419  11.214  10.413   2.105 -0.4503  1.1841  1.0321
27528SOL     OW88420   5.750   6.701   6.193  0.1601  0.1437  0.0042
27528SOL    HW188421   5.795   6.663   6.118 -0.3263  0.0567 -0.2430
27528SOL    HW288422   5.659   6.710   6.166 -0.3930 -1.5083  1.1736
27529SOL     OW88423   9.051  11.503   4.254 -0.6520 -0.5896  0.1044
27529SOL    HW188424   9.123  11.548   4.298  0.6194 -1.2892 -1.1662
27529SOL    HW288425   9.044  11.547   4.169 -0.0023 -2.1085 -0.7824
27530SOL     OW88426  10.846   3.295   3.084  0.7037  0.1822 -0.0790
27530SOL    HW188427  10.808   3.255   3.163  0.1979 -0.1520 -0.4807
27530SOL    HW288428  10.771   3.330   3.036  1.0580  0.8521 -0.1644
27531SOL     OW88429   4.075  10.548   5.595  0.2046 -0.3945  0.3077
27531SOL    HW188430   3.985  10.578   5.609  0.4504  0.3266  0.3860
27531SOL    HW288431   4.067  10.478   5.531 -0.4623 -0.6407  0.6511
27532SOL     OW88432   6.573   0.975   9.856  0.2560 -0.6623  0.1283
27532SOL    HW188433   6.580   1.070   9.847 -0.6853 -0.6491 -0.6081
27532SOL    HW288434   6.663   0.944   9.859  0.5710  0.2556  0.3990
27533SOL     OW88435   9.668   8.127   1.192  0.0856  0.2593  0.4857
27533SOL    HW188436   9.632   8.108   1.106 -0.0494 -3.3157  1.2157
27533SOL    HW288437   9.763   8.125   1.179  0.0712  0.4632  0.3281
27534SOL     OW88438  12.088   8.648   7.585  0.3926  0.1824  0.2904
27534SOL    HW188439  12.001   8.686   7.577  0.0537 -0.2713  1.5502
27534SOL    HW288440  12.121   8.678   7.670  1.4232  0.2591 -0.1160
27535SOL     OW88441   6.421  12.160   6.221 -0.5209 -0.2763 -0.0974
27535SOL    HW188442   6.428  12.087   6.282  0.4903 -1.2074 -1.2714
27535SOL    HW288443   6.368  12.126   6.149  1.2770 -0.4421 -1.4123
27536SOL     OW88444  10.762   7.552   0.598  0.1607  0.0071  0.1352
27536SOL    HW188445  10.729   7.463   0.601  0.9135 -0.2684  0.5733
27536SOL    HW288446  10.703   7.602   0.654 -0.6435 -0.0782 -0.6168
27537SOL     OW88447   8.250  11.617  10.373 -0.3113 -0.1287 -0.1574
27537SOL    HW188448   8.301  11.693  10.400 -0.6626 -0.2165  0.7743
27537SOL    HW288449   8.254  11.558  10.448 -1.0733 -0.4945 -0.4014
27538SOL     OW88450   0.653   6.320  11.775 -0.2614  0.2958 -0.2443
27538SOL    HW188451   0.635   6.248  11.836  0.7579  0.8111  0.6958
27538SOL    HW288452   0.628   6.286  11.689 -0.2009 -1.0183  0.2392
27539SOL     OW88453   3.510   6.022   3.974 -0.3705  0.3042 -0.2910
27539SOL    HW188454   3.567   6.042   3.900  1.5737 -0.1128  1.0189
27539SOL    HW288455   3.502   5.927   3.973  0.2644  0.2405  0.4503
27540SOL     OW88456  12.151   4.089   5.074 -0.0382 -0.0106  0.1381
27540SOL    HW188457  12.076   4.035   5.100 -0.3001 -0.5999 -1.6544
27540SOL    HW288458  12.222   4.061   5.133 -1.0199  0.0725  1.4076
27541SOL     OW88459   2.716   4.678   3.485 -0.4115  0.1906  0.2927
27541SOL    HW188460   2.621   4.680   3.487 -0.4079  0.1226  0.5680
27541SOL    HW288461   2.738   4.585   3.489 -0.3622  0.1129 -1.2766
27542SOL     OW88462  10.777   0.621   0.707  0.3248  0.3753  0.4065
27542SOL    HW188463  10.716   0.635   0.779 -0.9971 -0.2197 -0.5541
27542SOL    HW288464  10.783   0.707   0.665  1.0218  0.6994  1.1395
27543SOL     OW88465   0.314   7.101   1.908  0.2818  0.0131  0.4220
27543SOL    HW188466   0.228   7.077   1.941  0.5727  0.1018  1.2724
27543SOL    HW288467   0.372   7.032   1.941  0.1998 -1.3622 -2.0792
27544SOL     OW88468   0.830   3.078   1.413 -0.1185  0.4972 -0.3725
27544SOL    HW188469   0.860   3.162   1.447  1.6850 -0.9863  2.0476
27544SOL    HW288470   0.890   3.058   1.341  0.1868  0.7544 -0.1929
27545SOL     OW88471   3.200   0.609   4.978  0.1769 -0.0879 -0.2971
27545SOL    HW188472   3.286   0.568   4.968  0.2847  0.2624 -0.7972
27545SOL    HW288473   3.182   0.651   4.894 -0.0187  0.7292  0.1374
27546SOL     OW88474   3.295  12.134   0.454 -0.2873  0.1973 -0.4065
27546SOL    HW188475   3.382  12.132   0.493 -0.4600  0.6606  0.0092
27546SOL    HW288476   3.247  12.198   0.506 -0.7073  0.3642 -0.9953
27547SOL     OW88477   9.470   6.748   7.816 -0.1434 -0.1768 -0.4573
27547SOL    HW188478   9.497   6.790   7.734 -0.0884  0.8854  0.0892
27547SOL    HW288479   9.510   6.661   7.813  0.2862  0.0420 -1.3196
27548SOL     OW88480   6.492   2.185   1.055 -0.2703 -0.0175 -0.0967
27548SOL    HW188481   6.520   2.173   0.965 -1.1576 -1.6943 -0.1935
27548SOL    HW288482   6.570   2.166   1.107 -0.2891 -1.2529 -0.4713
27549SOL     OW88483   3.706   9.996   5.489  0.8714  0.0195 -0.1763
27549SOL    HW188484   3.615  10.025   5.480  0.5811 -0.4913  0.9897
27549SOL    HW288485   3.706   9.907   5.454  0.3337 -0.9340  2.0395
27550SOL     OW88486   3.130   1.545   2.593 -0.0129 -0.2881  0.3759
27550SOL    HW188487   3.193   1.615   2.574 -0.9191  0.5162  0.1908
27550SOL    HW288488   3.174   1.465   2.565  0.1785  0.4478 -1.6506
27551SOL     OW88489   7.326   9.404   5.140 -0.4301 -0.0170 -0.0892
27551SOL    HW188490   7.381   9.482   5.144 -2.1622  1.2149  2.7253
27551SOL    HW288491   7.388   9.331   5.143  1.1549  1.2974  1.9375
27552SOL     OW88492   3.026   9.291   7.508  0.0173 -0.7334  0.0361
27552SOL    HW188493   2.959   9.230   7.477  0.1519 -0.5257 -0.6752
27552SOL    HW288494   2.976   9.359   7.555 -0.1435 -1.3067  0.7149
27553SOL     OW88495   1.097   0.393   1.112 -0.1543 -0.2066 -0.6670
27553SOL    HW188496   1.128   0.434   1.032  0.7516  0.9535  0.2312
27553SOL    HW288497   1.177   0.376   1.162 -0.7462 -0.1619  0.3206
27554SOL     OW88498  11.087  11.074   0.957  0.6378  0.2222 -0.1278
27554SOL    HW188499  11.042  11.136   0.900 -3.1298 -1.4603  0.6913
27554SOL    HW288500  11.093  11.119   1.042  0.1886  0.3929 -0.1815
27555SOL     OW88501   0.291  10.224   8.973  0.2829  0.3977  0.4086
27555SOL    HW188502   0.198  10.240   8.992 -0.1357 -0.9030 -0.4467
27555SOL    HW288503   0.335  10.240   9.057 -0.7480  0.6860  0.9170
27556SOL     OW88504   1.969   1.978   1.435  0.5197  0.6867  0.4173
27556SOL    HW188505   2.009   1.897   1.401 -1.2178 -0.3230  0.6489
27556SOL    HW288506   1.951   2.030   1.357 -0.8671 -0.4008 -0.0486
27557SOL     OW88507   0.890  10.424   4.161  0.6930  0.4985 -0.3925
27557SOL    HW188508   0.843  10.357   4.112  0.6349 -0.5220  1.0162
27557SOL    HW288509   0.833  10.501   4.155  0.3476  0.1929 -1.2979
27558SOL     OW88510   0.489   3.036   7.834  0.3349  0.0237  0.0076
27558SOL    HW188511   0.530   2.950   7.821  0.5251  0.2410 -0.8538
27558SOL    HW288512   0.403   3.028   7.793  0.2503  0.1695  0.1549
27559SOL     OW88513  11.022  11.270   7.712  0.1904 -0.8062  0.1582
27559SOL    HW188514  11.099  11.272   7.655 -0.2837  0.5169 -0.4850
27559SOL    HW288515  11.057  11.291   7.799  0.3134  2.5555 -0.5443
27560SOL     OW88516   4.296   5.171  10.712  0.1164  0.0893 -0.0124
27560SOL    HW188517   4.360   5.198  10.778 -1.7259  1.0358  1.4973
27560SOL    HW288518   4.342   5.106  10.659  2.1050  0.2730  1.3804
27561SOL     OW88519   4.441   1.823   5.407 -0.1452  0.5304 -0.3822
27561SOL    HW188520   4.429   1.747   5.464  1.6124  0.8249  0.4595
27561SOL    HW288521   4.482   1.889   5.463  1.3925  0.9422 -1.8978
27562SOL     OW88522  10.762   2.897   0.824 -0.0251  0.1972  0.1080
27562SOL    HW188523  10.719   2.895   0.739  1.5226  1.1615 -0.7468
27562SOL    HW288524  10.692   2.879   0.887 -0.9528 -1.9068 -1.4162
27563SOL     OW88525   1.190   4.427   5.872  0.5121  0.2047 -0.7790
27563SOL    HW188526   1.154   4.446   5.959  0.6907 -0.8077 -0.4668
27563SOL    HW288527   1.248   4.501   5.854  0.8105  0.2180  0.1662
27564SOL     OW88528   5.802   0.149   8.266  0.0991 -0.2535 -0.0224
27564SOL    HW188529   5.710   0.124   8.253  0.0297  0.9738 -2.6552
27564SOL    HW288530   5.851   0.083   8.217  0.3970  0.6440 -0.9583
27565SOL     OW88531   8.133   0.227   7.332  0.7403  0.0374 -0.0128
27565SOL    HW188532   8.202   0.163   7.313 -0.5433 -1.3554 -0.1553
27565SOL    HW288533   8.061   0.175   7.367 -0.0975  1.5125  0.5449
27566SOL     OW88534   6.668   0.248   4.503 -0.1238  0.3753 -0.1531
27566SOL    HW188535   6.637   0.287   4.584  1.2127  3.1133 -0.8521
27566SOL    HW288536   6.705   0.163   4.530 -2.4904 -0.2088  1.5372
27567SOL     OW88537   1.939   5.633  12.013 -0.4153  0.3235  0.6171
27567SOL    HW188538   1.864   5.633  12.072 -2.3148  0.8547 -1.6537
27567SOL    HW288539   1.966   5.542  12.009 -2.6013 -0.3577 -0.4056
27568SOL     OW88540   3.853   9.381   3.189 -0.2460 -0.2820 -0.1355
27568SOL    HW188541   3.887   9.349   3.105  1.1956 -0.7711  0.5892
27568SOL    HW288542   3.827   9.301   3.235 -0.0164 -0.1057  0.2998
27569SOL     OW88543   7.116   7.175   6.753 -0.2528 -0.1661  0.0138
27569SOL    HW188544   7.133   7.223   6.671  0.4043 -0.1507  0.1536
27569SOL    HW288545   7.033   7.211   6.785 -0.7711 -0.5205 -0.8944
27570SOL     OW88546  10.008   4.901  10.759 -1.0990  0.6614 -0.2439
27570SOL    HW188547  10.047   4.817  10.736 -1.4935  0.3585  0.1679
27570SOL    HW288548  10.023   4.910  10.853 -3.0533 -0.0475  0.1891
27571SOL     OW88549   7.429   8.988   6.772  0.0466  0.2665 -0.1331
27571SOL    HW188550   7.443   8.914   6.831 -0.2600  1.1524  1.1033
27571SOL    HW288551   7.337   8.979   6.745 -0.0678  0.3376  0.2250
27572SOL     OW88552   5.508  10.709   7.891  0.2413 -0.6383 -0.2479
27572SOL    HW188553   5.538  10.619   7.877  1.1637 -0.4394  0.3425
27572SOL    HW288554   5.569  10.763   7.841 -0.5828 -0.3551 -0.9709
27573SOL     OW88555   2.576  11.872   2.127 -0.2629 -0.2384  0.0737
27573SOL    HW188556   2.666  11.851   2.151 -0.1121 -1.0362 -1.1357
27573SOL    HW288557   2.525  11.849   2.205  0.4598 -0.7355  0.4072
27574SOL     OW88558   4.924   2.219   8.798  0.3078 -0.2023 -0.3380
27574SOL    HW188559   4.997   2.157   8.809  1.1759  0.2405 -2.8713
27574SOL    HW288560   4.966   2.299   8.766 -1.0350  1.0419  0.8955
27575SOL     OW88561  10.858   2.338   3.814 -0.5883 -0.3250 -0.6748
27575SOL    HW188562  10.856   2.314   3.722  1.3572 -0.0222 -0.8296
27575SOL    HW288563  10.871   2.433   3.815  0.9784 -0.5286 -0.1156
27576SOL     OW88564   6.887   0.781   4.325 -0.0464  0.2250 -0.0258
27576SOL    HW188565   6.964   0.789   4.269 -1.5471  1.3109 -2.0781
27576SOL    HW288566   6.821   0.740   4.270 -1.4464  0.8732  1.1038
27577SOL     OW88567  11.210   9.281   2.058  0.3087 -0.7001  0.0714
27577SOL    HW188568  11.238   9.192   2.082 -1.5038 -0.8361  2.0316
27577SOL    HW288569  11.145   9.304   2.125  1.1401  2.3413 -0.0310
27578SOL     OW88570   1.228   2.842   0.807 -0.5105 -0.3750 -0.4174
27578SOL    HW188571   1.316   2.813   0.784 -0.5633 -1.8998  1.0868
27578SOL    HW288572   1.173   2.811   0.735  0.0557 -0.1633 -0.9484
27579SOL     OW88573   2.439   4.155   8.573 -0.1170  0.4907  0.1549
27579SOL    HW188574   2.383   4.123   8.502 -0.6027  0.4567  0.5430
27579SOL    HW288575   2.377   4.178   8.644  0.4920 -2.4856  1.7945
27580SOL     OW88576   2.029   6.407   0.473 -0.9508  0.8885  0.4070
27580SOL    HW188577   1.961   6.463   0.511  0.6999  2.5701  1.0314
27580SOL    HW288578   2.083   6.467   0.421  0.8823 -0.1077  1.0862
27581SOL     OW88579   9.945   5.422   2.631  0.8051 -0.0811  0.2822
27581SOL    HW188580   9.954   5.328   2.649  0.5958 -0.3135 -0.7364
27581SOL    HW288581   9.921   5.426   2.538 -0.6982  0.9178  0.6741
27582SOL     OW88582   8.055  12.256   3.118  0.2847 -0.2679  0.2863
27582SOL    HW188583   8.116  12.211   3.176  0.5534 -0.8152 -0.4032
27582SOL    HW288584   7.970  12.215   3.135  0.1347  0.3622  1.1064
27583SOL     OW88585   1.530   8.561  10.702 -0.0144  0.8075  0.2302
27583SOL    HW188586   1.611   8.600  10.735  0.1873  1.6788 -1.2152
27583SOL    HW288587   1.543   8.466  10.712  0.9713  0.9581  0.4733
27584SOL     OW88588   4.537   7.222   9.321  0.1077  0.5210 -0.1433
27584SOL    HW188589   4.622   7.202   9.359  0.3647  0.3548 -0.7970
27584SOL    HW288590   4.541   7.314   9.298 -0.2380  0.7559  0.7079
27585SOL     OW88591   6.385   7.123   7.135  0.3176 -0.5443  0.2175
27585SOL    HW188592   6.303   7.077   7.152  0.2181 -0.2947  0.4086
27585SOL    HW288593   6.359   7.208   7.101  0.4702 -0.0311  1.3476
27586SOL     OW88594   7.600   8.497  10.813  1.0618  0.2655  0.0494
27586SOL    HW188595   7.619   8.560  10.882  0.6892  0.6343 -0.1849
27586SOL    HW288596   7.680   8.494  10.761  1.2638  0.1552  0.3617
27587SOL     OW88597  12.136   6.914   1.844 -0.1270 -0.1596 -1.1835
27587SOL    HW188598  12.102   6.992   1.888  1.0185 -0.3070  0.0369
27587SOL    HW288599  12.090   6.841   1.886  1.6658 -0.3676  0.5592
27588SOL     OW88600  12.119   1.994   3.413  0.7775 -0.0830 -0.6469
27588SOL    HW188601  12.090   2.040   3.492 -0.6433 -0.6165 -0.8291
27588SOL    HW288602  12.214   2.006   3.412  0.6030  1.6950  0.0217
27589SOL     OW88603  10.964   6.574   6.121  0.2567  0.5480 -0.0399
27589SOL    HW188604  10.924   6.534   6.044 -0.2492 -0.4380  0.7145
27589SOL    HW288605  11.002   6.656   6.089  0.5300 -0.1022 -1.4318
27590SOL     OW88606   8.826   3.639   7.846 -0.0897  0.0210 -0.1684
27590SOL    HW188607   8.819   3.653   7.751 -1.7520 -3.7467 -0.7533
27590SOL    HW288608   8.903   3.582   7.856  0.1669  0.5182  0.8036
27591SOL     OW88609   1.792   9.739   4.195  0.3795  0.2072 -0.2140
27591SOL    HW188610   1.756   9.811   4.248 -0.3055 -0.2374 -0.0560
27591SOL    HW288611   1.861   9.779   4.143 -0.2215  1.0485 -0.3726
27592SOL     OW88612  11.601   3.109  10.731 -0.7650 -0.1856 -0.0348
27592SOL    HW188613  11.563   3.187  10.691 -2.0097 -1.1553 -0.8527
27592SOL    HW288614  11.627   3.137  10.818  0.9175  1.6936 -1.0545
27593SOL     OW88615   0.467  12.018  10.853  0.2090 -0.3228  0.1814
27593SOL    HW188616   0.411  11.978  10.786  0.7569 -0.2857 -0.3061
27593SOL    HW288617   0.407  12.072  10.905 -0.3472 -0.9223  0.1725
27594SOL     OW88618   1.606  10.116   3.922 -0.0073  0.0170  0.3487
27594SOL    HW188619   1.670  10.103   3.851 -0.7142 -1.4468 -0.0699
27594SOL    HW288620   1.548  10.185   3.890 -1.3084 -1.7356 -1.2955
27595SOL     OW88621   3.869   9.687   1.373  0.2440  0.2188  0.0064
27595SOL    HW188622   3.839   9.720   1.458  0.6031 -0.1752  0.2920
27595SOL    HW288623   3.797   9.706   1.313 -0.2739 -0.0491  0.5323
27596SOL     OW88624   3.786   9.896   8.158 -0.3636 -0.5184 -0.4268
27596SOL    HW188625   3.875   9.917   8.185  0.3294 -2.8948 -0.6751
27596SOL    HW288626   3.764   9.964   8.094  1.1668  0.2422 -0.1904
27597SOL     OW88627   1.564   2.596   4.444 -0.2638 -0.5266 -0.3787
27597SOL    HW188628   1.566   2.508   4.406 -0.4319  0.4917 -2.9686
27597SOL    HW288629   1.493   2.593   4.507  0.4202 -2.5157  0.3745
27598SOL     OW88630   4.439  10.150   7.888  0.1724  0.3907  0.4457
27598SOL    HW188631   4.466  10.235   7.922 -0.3688  0.7663 -0.0430
27598SOL    HW288632   4.351  10.137   7.924  0.4985 -0.2461  1.0208
27599SOL     OW88633   0.823  10.691   0.723 -0.0476  0.0662  0.0923
27599SOL    HW188634   0.919  10.686   0.732 -0.0803  0.8841  1.2274
27599SOL    HW288635   0.809  10.764   0.663  0.0431  0.2831  0.3302
27600SOL     OW88636   6.289   8.085  10.776  0.0280  0.0730  0.3458
27600SOL    HW188637   6.210   8.068  10.724  2.8486 -1.4479 -4.0485
27600SOL    HW288638   6.314   8.000  10.812  0.9441 -0.0254 -0.4689
27601SOL     OW88639   7.060   9.305   0.572 -0.0666 -0.1457  0.6657
27601SOL    HW188640   6.969   9.285   0.593 -0.7399  0.3296 -1.5494
27601SOL    HW288641   7.101   9.321   0.657 -2.2916  0.6303  1.6779
27602SOL     OW88642   9.125  10.724   4.458  0.0266 -0.1046 -0.2298
27602SOL    HW188643   9.136  10.651   4.396 -0.5854 -0.2035 -0.2255
27602SOL    HW288644   9.116  10.682   4.543  1.0628  0.0396 -0.0377
27603SOL     OW88645   3.818   4.005   1.564  0.4188  0.2358 -0.1276
27603SOL    HW188646   3.746   3.952   1.530 -0.3169  0.7286  0.6337
27603SOL    HW288647   3.876   4.017   1.489 -0.0569 -0.5494 -0.6370
27604SOL     OW88648   2.841   1.245  11.088 -0.7141 -0.1910 -0.8926
27604SOL    HW188649   2.918   1.290  11.053 -0.3145  0.2503  0.5161
27604SOL    HW288650   2.876   1.184  11.152 -1.4389 -1.0204 -1.2630
27605SOL     OW88651   5.267   6.726   8.149  0.8608 -0.1851 -0.1678
27605SOL    HW188652   5.327   6.773   8.207  1.8897 -0.5120 -0.9429
27605SOL    HW288653   5.181   6.733   8.192  1.1535  1.6002  0.1910
27606SOL     OW88654  10.046   1.765   3.677  0.3849 -0.0346  0.3779
27606SOL    HW188655  10.131   1.759   3.722  1.1268 -0.9273 -1.0502
27606SOL    HW288656  10.041   1.685   3.625 -0.0216  1.3100 -1.7659
27607SOL     OW88657   4.313   1.420   0.574  0.2498  0.6755  0.1577
27607SOL    HW188658   4.272   1.334   0.568  1.5714 -0.0587  1.1559
27607SOL    HW288659   4.335   1.430   0.667  0.0793  2.1188  0.0707
27608SOL     OW88660   7.259   1.764   1.502  0.0100  0.4142  0.2423
27608SOL    HW188661   7.275   1.837   1.561  3.3111 -0.1152  0.2220
27608SOL    HW288662   7.284   1.797   1.415 -0.4869 -0.1363 -0.1217
27609SOL     OW88663   0.987   4.452   3.345  0.1015 -0.0714 -0.0056
27609SOL    HW188664   1.012   4.492   3.261 -0.1016  0.7332  0.3021
27609SOL    HW288665   1.005   4.359   3.334  1.8820  0.2825 -0.2820
27610SOL     OW88666   6.259   2.007   7.913  0.2684 -0.0653  0.0187
27610SOL    HW188667   6.219   1.931   7.872  0.8959  0.2897 -1.3161
27610SOL    HW288668   6.259   2.074   7.844  1.2680  0.5842  0.6246
27611SOL     OW88669  10.180   9.913   3.047 -0.0634  0.3005  0.3707
27611SOL    HW188670  10.256   9.957   3.011  0.0180  1.3634  1.7770
27611SOL    HW288671  10.106   9.970   3.025 -0.0187  0.9443  1.7798
27612SOL     OW88672  11.165   2.540  11.545  0.6937 -0.2631  0.4114
27612SOL    HW188673  11.197   2.622  11.508  0.6541 -0.0867  0.7711
27612SOL    HW288674  11.243   2.486  11.554  0.5647 -0.7208 -0.9570
27613SOL     OW88675   0.285   0.476   3.919 -0.2452  0.0914  0.6556
27613SOL    HW188676   0.211   0.503   3.864  0.9779 -1.0061 -1.6925
27613SOL    HW288677   0.254   0.398   3.964 -0.5900 -0.2483 -0.1554
27614SOL     OW88678   7.014   1.039   9.097 -0.3296  0.6811 -0.0113
27614SOL    HW188679   7.098   1.085   9.098 -0.4053  0.8591  1.8493
27614SOL    HW288680   7.036   0.950   9.127 -1.0176  1.2712  2.4973
27615SOL     OW88681   1.532   0.816   9.821  0.5403  0.0111 -0.9174
27615SOL    HW188682   1.565   0.815   9.911  0.7521 -0.1971 -0.9978
27615SOL    HW288683   1.602   0.856   9.770  0.6385 -0.3606 -1.0751
27616SOL     OW88684   4.471   5.976   1.301  0.0676 -0.2633  0.1904
27616SOL    HW188685   4.503   5.989   1.212  1.6409  0.3387  0.8061
27616SOL    HW288686   4.433   5.888   1.301  0.2546 -0.3600 -1.0027
27617SOL     OW88687   3.623   5.382   0.003 -0.4776  0.1212  0.3650
27617SOL    HW188688   3.638   5.472   0.032 -0.6001  0.0694  0.5881
27617SOL    HW288689   3.658   5.380  -0.086 -3.3640  1.3191 -0.9440
27618SOL     OW88690   6.189   4.635   2.854  0.1366  0.2511 -0.5667
27618SOL    HW188691   6.257   4.637   2.921 -0.0512 -0.4369 -0.3500
27618SOL    HW288692   6.108   4.621   2.902 -0.0631  0.2622 -0.8977
27619SOL     OW88693   5.410  11.644   2.615 -0.1898  0.6171  0.4925
27619SOL    HW188694   5.409  11.562   2.664  0.2887 -1.5330 -2.7965
27619SOL    HW288695   5.320  11.655   2.584  0.3020 -0.3505 -1.4670
27620SOL     OW88696   5.231  12.262   0.928  0.6634  0.0380 -0.2840
27620SOL    HW188697   5.276  12.236   1.008  0.4742  0.2797 -0.0984
27620SOL    HW288698   5.231  12.358   0.931 -1.3291  0.0534  0.5447
27621SOL     OW88699   2.760  11.414  11.661 -0.3229 -0.5608  0.2685
27621SOL    HW188700   2.689  11.358  11.627  0.2418 -0.0504 -1.9633
27621SOL    HW288701   2.726  11.503  11.652  1.9127  0.1393 -5.0828
27622SOL     OW88702   3.639   5.707  10.356 -0.3495 -0.1942 -0.7313
27622SOL    HW188703   3.585   5.780  10.386  1.4547  1.3437 -1.0186
27622SOL    HW288704   3.577   5.643  10.322 -2.1675  0.0818  1.7976
27623SOL     OW88705   1.240   4.352   6.350 -0.1091  0.0233  0.0520
27623SOL    HW188706   1.241   4.260   6.377  1.2618 -0.2567 -0.8609
27623SOL    HW288707   1.330   4.369   6.322 -0.1736  1.8518  0.8712
27624SOL     OW88708   6.264   3.048   7.410  0.0757 -0.0609 -0.6003
27624SOL    HW188709   6.282   3.099   7.489  0.4550 -0.6713 -0.2837
27624SOL    HW288710   6.349   3.011   7.385 -0.6082 -2.9224  0.8685
27625SOL     OW88711  11.936   8.509  10.656 -0.4647 -0.2054  0.0095
27625SOL    HW188712  11.887   8.572  10.709 -0.0304  1.0510 -1.0472
27625SOL    HW288713  12.016   8.555  10.632 -0.0336 -1.2457 -0.6094
27626SOL     OW88714   0.141   4.985  10.668  0.6728 -0.5108  0.8262
27626SOL    HW188715   0.071   4.993  10.733 -0.3758 -1.2944 -0.1671
27626SOL    HW288716   0.096   4.984  10.584  1.8705 -1.1164  0.1613
27627SOL     OW88717   6.012  10.924   3.840  0.5180  0.5844 -0.3104
27627SOL    HW188718   6.021  10.839   3.884 -0.0336  1.6029  1.9337
27627SOL    HW288719   6.100  10.944   3.809  0.9174 -0.2477  0.2506
27628SOL     OW88720   2.248   8.229   3.155  0.1008  0.2824 -0.2415
27628SOL    HW188721   2.285   8.254   3.071  2.3136  0.1992  0.6360
27628SOL    HW288722   2.234   8.311   3.201 -1.1009  0.3274 -0.6439
27629SOL     OW88723   5.451   7.902   2.187  0.6811  0.0441  0.4386
27629SOL    HW188724   5.422   7.919   2.276 -1.7469  1.2835 -0.4938
27629SOL    HW288725   5.373   7.870   2.142  1.0305  2.1927 -1.9218
27630SOL     OW88726  11.857   3.041   9.914  0.7175  0.5796 -0.0494
27630SOL    HW188727  11.797   2.974   9.947  1.7907 -0.6321 -0.4436
27630SOL    HW288728  11.887   3.006   9.830  1.4187  1.4892 -0.1927
27631SOL     OW88729  11.332   1.122   3.069  0.5509 -0.5825 -0.5033
27631SOL    HW188730  11.312   1.029   3.078  0.2952 -0.4099  1.1268
27631SOL    HW288731  11.410   1.135   3.124  0.8360  0.0873 -1.0599
27632SOL     OW88732   2.867   6.897   9.323  0.6175  0.1491 -0.3458
27632SOL    HW188733   2.886   6.806   9.348 -0.4263  0.5334  2.1586
27632SOL    HW288734   2.782   6.915   9.362  0.3613  1.9538 -1.6028
27633SOL     OW88735  10.842   2.592   8.175 -0.2685  0.1327 -0.2862
27633SOL    HW188736  10.807   2.546   8.100 -1.6143  1.6285 -0.6117
27633SOL    HW288737  10.935   2.602   8.156 -0.1903 -1.2924 -0.7673
27634SOL     OW88738   4.805   0.017   4.654 -0.5876  0.2177  0.1043
27634SOL    HW188739   4.854   0.088   4.613 -0.6882  0.8604  1.0593
27634SOL    HW288740   4.831  -0.061   4.605 -0.2827  0.8709 -0.7974
27635SOL     OW88741   8.797   4.865   4.701  0.7654  0.3604 -0.5109
27635SOL    HW188742   8.822   4.956   4.687  1.2229  0.4119  0.4863
27635SOL    HW288743   8.852   4.815   4.640  1.6135  0.6591 -0.0174
27636SOL     OW88744   8.829   0.785   7.845 -0.0316 -0.3367  0.8329
27636SOL    HW188745   8.871   0.836   7.913 -1.0993 -0.3295  1.5108
27636SOL    HW288746   8.874   0.811   7.764  0.5658  0.4057  1.3917
27637SOL     OW88747   0.872   5.821   7.356  0.1927  0.4871  0.7149
27637SOL    HW188748   0.910   5.767   7.425  1.7125  0.7946  0.1646
27637SOL    HW288749   0.843   5.901   7.400 -0.7366 -0.1503  1.2958
27638SOL     OW88750   9.211   4.362   0.596 -0.5661 -0.7822 -0.4422
27638SOL    HW188751   9.192   4.403   0.512  1.8766 -0.2932 -0.8246
27638SOL    HW288752   9.275   4.293   0.575  1.2241  0.2977  1.1241
27639SOL     OW88753   7.220  10.762   2.973  0.1281 -0.3304  0.3794
27639SOL    HW188754   7.144  10.717   2.936  0.5088 -0.4502 -0.2724
27639SOL    HW288755   7.206  10.854   2.952 -1.0479  0.0213  2.3989
27640SOL     OW88756   9.980   2.570   0.125 -0.5170  0.0988 -0.3748
27640SOL    HW188757  10.043   2.518   0.174 -1.2318  0.4008  0.9070
27640SOL    HW288758  10.032   2.637   0.081  0.4941 -1.8712 -2.4298
27641SOL     OW88759   1.601   2.941  10.685  0.4405 -0.0107  0.0699
27641SOL    HW188760   1.553   2.907  10.760  0.6500  0.2786  0.3380
27641SOL    HW288761   1.543   2.925  10.610 -0.9580  2.0125  0.6153
27642SOL     OW88762   6.447   7.143  11.749  0.1350  0.1881 -0.3136
27642SOL    HW188763   6.410   7.199  11.818 -0.4442 -0.7595  0.1650
27642SOL    HW288764   6.373   7.092  11.717  0.5063  0.2408 -1.2882
27643SOL     OW88765   2.718   4.366  12.305  0.2987  0.2066 -0.3335
27643SOL    HW188766   2.645   4.317  12.269 -0.4117  1.7830 -1.1286
27643SOL    HW288767   2.772   4.389  12.229  1.1548 -0.1521  0.1406
27644SOL     OW88768   4.366   1.196  11.360 -0.2493 -0.0008  0.1528
27644SOL    HW188769   4.274   1.198  11.332 -0.3199 -0.3466  0.3600
27644SOL    HW288770   4.412   1.154  11.287 -0.5342 -1.5364  0.8139
27645SOL     OW88771   4.979   2.445   4.511  0.5127 -0.6524 -0.1522
27645SOL    HW188772   4.911   2.415   4.450 -0.1976 -0.8873  0.7371
27645SOL    HW288773   4.980   2.380   4.581 -2.0234  1.8990  2.5583
27646SOL     OW88774   7.916   5.180   0.038  0.2717 -0.3896  0.1664
27646SOL    HW188775   7.935   5.273   0.027 -1.8094  0.0797  0.1647
27646SOL    HW288776   7.845   5.163  -0.024 -0.9831 -1.3950  1.8140
27647SOL     OW88777   6.222   3.890   5.046  0.3288  0.4646 -0.0350
27647SOL    HW188778   6.258   3.857   5.128 -2.4606 -0.1302  1.0844
27647SOL    HW288779   6.217   3.813   4.989 -0.0835  0.3090  0.2007
27648SOL     OW88780  10.827   2.779   4.666 -0.2050  0.1601  0.0135
27648SOL    HW188781  10.916   2.806   4.688 -0.7533  0.9830  1.3127
27648SOL    HW288782  10.774   2.856   4.684 -1.1258 -0.1252 -1.3180
27649SOL     OW88783   4.243   3.075   0.272  0.5934 -0.6157  0.0207
27649SOL    HW188784   4.160   3.034   0.245 -0.8055  0.7937  1.9318
27649SOL    HW288785   4.244   3.067   0.367  1.8096  0.9661  0.1715
27650SOL     OW88786   7.577   8.331   3.341 -0.9793 -0.4573 -0.2134
27650SOL    HW188787   7.645   8.394   3.366 -1.6182 -0.1766  0.8822
27650SOL    HW288788   7.613   8.287   3.264 -0.4387  1.1052 -0.8926
27651SOL     OW88789   9.145   2.108   9.167  0.5759  0.4963 -0.3234
27651SOL    HW188790   9.185   2.021   9.166  2.0401  1.1447 -0.4499
27651SOL    HW288791   9.208   2.164   9.121 -0.0638  1.7402  0.2697
27652SOL     OW88792   5.766   0.469   9.512 -0.2867 -0.2350  0.5108
27652SOL    HW188793   5.807   0.414   9.579  0.9586 -0.0975 -0.1097
27652SOL    HW288794   5.702   0.412   9.471 -0.7203 -0.4722  1.4785
27653SOL     OW88795   2.941   5.377   7.801  0.3237  0.5404 -0.5011
27653SOL    HW188796   2.884   5.415   7.734 -0.3720  1.3130  0.5038
27653SOL    HW288797   3.030   5.402   7.773  0.0443  0.8782 -1.1092
27654SOL     OW88798   0.752  10.963   3.026 -0.0279 -0.8254  0.4606
27654SOL    HW188799   0.815  11.027   3.060 -0.5974  0.1729 -0.3120
27654SOL    HW288800   0.784  10.879   3.058  1.8206 -0.3656 -0.0670
27655SOL     OW88801   3.701   7.454   5.963 -0.2739  0.2571 -0.4400
27655SOL    HW188802   3.608   7.479   5.957 -0.5872  1.1763  4.2688
27655SOL    HW288803   3.748   7.536   5.953 -0.1116  0.1085 -0.8922
27656SOL     OW88804  11.107   9.336  10.000 -0.5276  0.2523  0.1518
27656SOL    HW188805  11.138   9.316   9.912 -1.7181  1.3263 -0.5482
27656SOL    HW288806  11.177   9.305  10.057  0.3333 -0.3461 -1.1682
27657SOL     OW88807  10.048   9.363   7.230  0.1038  0.1804  0.0027
27657SOL    HW188808  10.139   9.391   7.231  0.0350  0.4022 -0.0102
27657SOL    HW288809  10.007   9.411   7.302  0.1235 -0.3457  0.3741
27658SOL     OW88810   9.071   1.775   7.534  0.3647  0.1781  0.1123
27658SOL    HW188811   9.117   1.803   7.613  1.2008 -0.0561 -0.2821
27658SOL    HW288812   9.006   1.843   7.518 -0.9937 -0.5979  1.9633
27659SOL     OW88813   2.076   1.558   5.753  0.3231  0.2785 -0.4007
27659SOL    HW188814   2.019   1.554   5.676  2.7599  4.0308 -2.7874
27659SOL    HW288815   2.057   1.643   5.793  3.3463  1.2589 -0.7515
27660SOL     OW88816   5.962   6.823   3.109  0.2600 -0.5582 -0.3958
27660SOL    HW188817   5.915   6.799   3.189  2.2917 -1.3761  0.6391
27660SOL    HW288818   6.030   6.884   3.138  0.2336  0.1526 -1.7350
27661SOL     OW88819   5.344   9.438   6.866 -0.3614  0.0547 -0.4827
27661SOL    HW188820   5.319   9.451   6.957 -2.0691 -1.2562 -0.7159
27661SOL    HW288821   5.323   9.521   6.823 -2.0977 -0.1956 -0.1775
27662SOL     OW88822   7.141   6.526  11.729 -0.2893 -0.0041 -0.0093
27662SOL    HW188823   7.078   6.575  11.781 -1.3201  0.9750 -2.0602
27662SOL    HW288824   7.224   6.536  11.775 -1.3491 -0.2177  2.0443
27663SOL     OW88825   8.666   1.845   9.468  0.1747 -0.3927 -0.8225
27663SOL    HW188826   8.678   1.763   9.421 -0.3760 -0.3320 -1.0675
27663SOL    HW288827   8.666   1.912   9.399 -0.6897 -0.3080 -0.7503
27664SOL     OW88828  10.266   0.618  10.624  0.3149 -0.9035  0.0603
27664SOL    HW188829  10.290   0.695  10.573  1.0695 -1.4458 -0.4250
27664SOL    HW288830  10.247   0.652  10.711  1.0562 -0.2034 -0.0382
27665SOL     OW88831   3.244   2.252   1.269 -0.2874 -0.7662  0.5596
27665SOL    HW188832   3.260   2.169   1.225 -0.9685 -0.4534 -0.3151
27665SOL    HW288833   3.179   2.232   1.336  1.0602 -1.3294  1.7394
27666SOL     OW88834  11.827   7.626   3.977 -0.5025 -0.5046 -0.5603
27666SOL    HW188835  11.899   7.609   3.917  2.3982  0.5829  2.3157
27666SOL    HW288836  11.803   7.717   3.961 -1.5889 -0.9700 -1.7662
27667SOL     OW88837   7.316  11.770   8.430 -0.3430 -0.2877  0.0323
27667SOL    HW188838   7.243  11.826   8.402 -0.2559  0.1233  0.6126
27667SOL    HW288839   7.385  11.832   8.455  0.6071 -0.6519 -1.5006
27668SOL     OW88840   8.194   7.346   3.631  0.5015  0.3072  0.2369
27668SOL    HW188841   8.273   7.364   3.683  1.7790 -0.0499 -1.5005
27668SOL    HW288842   8.195   7.252   3.617 -0.0809  0.3405 -0.0617
27669SOL     OW88843   7.469   9.893   9.142 -0.4765  0.1252  0.0501
27669SOL    HW188844   7.489   9.802   9.161  0.9534  0.5855  0.8946
27669SOL    HW288845   7.495   9.905   9.051  1.2620  0.1732  0.5196
27670SOL     OW88846  10.940   0.560   6.414 -0.1885 -0.6023  0.0258
27670SOL    HW188847  10.967   0.524   6.329  0.9712  2.2642 -0.9414
27670SOL    HW288848  11.011   0.538   6.473  1.0229  0.8828 -0.8120
27671SOL     OW88849   5.339   3.557   4.278  0.0345  0.5565  0.1536
27671SOL    HW188850   5.306   3.545   4.367 -2.2896  0.0643 -0.6987
27671SOL    HW288851   5.266   3.596   4.230  1.5784  1.8441 -1.3353
27672SOL     OW88852   2.113   5.967   8.178 -0.0989 -0.2285 -0.1662
27672SOL    HW188853   2.191   6.018   8.156 -0.3446 -0.5436 -1.9835
27672SOL    HW288854   2.146   5.894   8.231  0.8202 -0.2303 -0.7168
27673SOL     OW88855   4.716   8.014  11.523 -0.4902 -0.4127  0.1400
27673SOL    HW188856   4.636   8.019  11.575  0.9047 -2.1244  2.6622
27673SOL    HW288857   4.695   7.953  11.452 -1.5209 -0.5972  0.5949
27674SOL     OW88858   4.022   5.047   5.376 -0.3021  0.5677  0.2984
27674SOL    HW188859   3.941   5.012   5.340 -1.2773  2.2830  0.7185
27674SOL    HW288860   4.092   4.998   5.332 -1.5437 -2.3812  1.3938
27675SOL     OW88861  10.554   1.980  10.419 -0.0912 -0.2117 -0.0202
27675SOL    HW188862  10.491   1.988  10.491 -1.0646 -1.3492 -0.6993
27675SOL    HW288863  10.554   2.066  10.378  1.2494  0.7832  1.9010
27676SOL     OW88864   1.624   3.858  10.122  0.1071  0.0256  0.4833
27676SOL    HW188865   1.646   3.912  10.046  0.9029  0.3042  0.8947
27676SOL    HW288866   1.547   3.808  10.095 -0.6046  1.2914  0.0545
27677SOL     OW88867   0.678   3.198   4.336  0.7048 -0.4946 -0.0977
27677SOL    HW188868   0.658   3.204   4.243  1.4360  0.5705 -0.2044
27677SOL    HW288869   0.755   3.142   4.341  1.6168  0.7026 -0.2994
27678SOL     OW88870   6.220   7.026   2.985 -0.1233 -0.2825 -0.2780
27678SOL    HW188871   6.293   6.966   2.967  1.1136  1.5576 -1.8250
27678SOL    HW288872   6.204   7.017   3.079  2.7576 -0.1241  0.3245
27679SOL     OW88873   0.978   2.410   9.948 -0.7233  0.1327  0.4448
27679SOL    HW188874   1.062   2.364   9.954 -0.1477  1.1254  0.3678
27679SOL    HW288875   0.929   2.380  10.024  0.2677  0.5843  1.2952
27680SOL     OW88876   5.840   3.473   3.662  0.0221  0.1175 -0.3828
27680SOL    HW188877   5.781   3.448   3.733 -1.2965  1.2426 -1.0376
27680SOL    HW288878   5.783   3.510   3.595  1.3836  0.3311 -1.4746
27681SOL     OW88879  12.135  11.226   8.318 -0.3078 -0.2716  0.5949
27681SOL    HW188880  12.101  11.308   8.281 -1.9951 -0.3941  1.7859
27681SOL    HW288881  12.217  11.251   8.359 -0.9037  0.8990  1.1323
27682SOL     OW88882   5.234   0.623   5.052  0.5337 -0.2860  0.3120
27682SOL    HW188883   5.247   0.675   4.973  1.2672  0.2122  0.7515
27682SOL    HW288884   5.155   0.571   5.034 -0.0054  0.7079 -0.2776
27683SOL     OW88885   4.180   1.644   9.040  0.7194  0.8633 -0.4174
27683SOL    HW188886   4.209   1.554   9.024  1.1194  1.1328 -1.2902
27683SOL    HW288887   4.086   1.637   9.057  1.1389  0.0317  1.8451
27684SOL     OW88888   6.920   1.385   6.665 -0.1992 -0.9959  0.0333
27684SOL    HW188889   6.825   1.400   6.659 -0.0330  0.1271 -0.0489
27684SOL    HW288890   6.959   1.464   6.629  0.7849 -1.7444 -0.6040
27685SOL     OW88891   1.270   8.005   2.125 -0.1620 -0.5122 -0.3207
27685SOL    HW188892   1.362   8.014   2.100  0.5938  1.9074  2.7105
27685SOL    HW288893   1.225   8.077   2.081 -0.4157 -0.9821 -0.8504
27686SOL     OW88894   3.144   0.123   5.639 -0.4507  0.0567  0.2527
27686SOL    HW188895   3.165   0.149   5.549  2.5833  0.5166  0.9607
27686SOL    HW288896   3.200   0.048   5.655 -0.9919 -0.0469  1.7504
27687SOL     OW88897  10.572  10.519  12.104 -0.7019 -0.2755  0.3039
27687SOL    HW188898  10.538  10.459  12.038 -0.7559  0.3976 -0.2841
27687SOL    HW288899  10.659  10.486  12.124 -0.0429  0.4223 -1.2689
27688SOL     OW88900   4.423   2.018  12.226  0.3593 -0.2263 -0.3205
27688SOL    HW188901   4.435   1.943  12.168 -1.3514 -0.4318 -0.4636
27688SOL    HW288902   4.462   2.091  12.179 -0.2438 -0.5563 -1.3742
27689SOL     OW88903   3.738   5.287   4.855  0.5858 -0.5278  0.3528
27689SOL    HW188904   3.662   5.239   4.887  1.3403 -1.8480  0.1963
27689SOL    HW288905   3.746   5.361   4.916 -2.2233  1.0499 -1.0121
27690SOL     OW88906   6.814   3.633   0.630 -0.5826  0.3867 -0.5409
27690SOL    HW188907   6.779   3.633   0.541 -0.5471 -0.5711 -0.5688
27690SOL    HW288908   6.748   3.677   0.683 -1.0169  0.1567 -0.8899
27691SOL     OW88909   4.679   3.159   4.125  0.0235  0.4326  0.0737
27691SOL    HW188910   4.758   3.206   4.149  0.7744 -0.9604  0.4468
27691SOL    HW288911   4.611   3.193   4.184  0.3515  1.5613 -0.1820
27692SOL     OW88912   0.699   8.139   6.457 -0.7202 -0.2570  0.3903
27692SOL    HW188913   0.718   8.142   6.363 -0.0511 -0.5792  0.5034
27692SOL    HW288914   0.772   8.089   6.494 -1.1829 -0.4726  1.0319
27693SOL     OW88915   2.039  11.926   0.907  0.0452  0.3364 -0.5156
27693SOL    HW188916   2.069  11.835   0.901 -0.8719  0.1129 -2.1842
27693SOL    HW288917   2.084  11.972   0.836 -0.5193  0.8792 -0.5342
27694SOL     OW88918   6.676  10.222   4.676 -0.2345  0.6129 -0.4439
27694SOL    HW188919   6.609  10.227   4.608 -0.4877  0.5022 -0.2065
27694SOL    HW288920   6.628  10.195   4.754  0.3117 -0.9114 -0.5965
27695SOL     OW88921   5.519   1.948   3.420 -0.5640  0.5593 -0.1810
27695SOL    HW188922   5.578   1.878   3.449 -0.3399  0.5043 -0.7569
27695SOL    HW288923   5.525   1.947   3.324 -0.6266  1.3137 -0.1995
27696SOL     OW88924   4.742  10.331   6.314 -0.1013  0.1704  0.3326
27696SOL    HW188925   4.691  10.367   6.241  0.7816  2.1389  0.6376
27696SOL    HW288926   4.724  10.237   6.311 -2.9289  0.6383 -0.1939
27697SOL     OW88927   2.760   0.267   1.320  0.3103 -0.2202  0.4915
27697SOL    HW188928   2.743   0.281   1.227  0.8162  1.1285  0.5754
27697SOL    HW288929   2.710   0.189   1.343  0.0980 -0.5030 -0.8840
27698SOL     OW88930   0.846   3.438   2.017 -0.1196 -0.5146  0.8862
27698SOL    HW188931   0.893   3.501   1.963  0.7289 -0.7764  1.2967
27698SOL    HW288932   0.864   3.353   1.975 -0.7016 -0.5626  0.7225
27699SOL     OW88933   9.584   6.440   3.602  0.2605 -0.1874  0.1042
27699SOL    HW188934   9.528   6.498   3.550 -0.7939 -1.3499 -0.1178
27699SOL    HW288935   9.534   6.424   3.682  1.1496  0.2882  0.7734
27700SOL     OW88936   9.139   8.271   6.596 -0.5387  0.1624  0.5866
27700SOL    HW188937   9.183   8.188   6.614 -0.0205  0.2328 -0.2490
27700SOL    HW288938   9.142   8.319   6.679  0.9582  0.1407  0.5841
27701SOL     OW88939   9.397   4.149   6.521 -0.2014 -0.1721 -0.2147
27701SOL    HW188940   9.399   4.196   6.605 -0.1259 -2.7478  1.3517
27701SOL    HW288941   9.310   4.109   6.518 -0.2910  0.0963 -1.5119
27702SOL     OW88942   6.934   4.254   9.297  0.2776 -0.1584 -0.2556
27702SOL    HW188943   6.916   4.178   9.241 -0.2040  0.1229 -0.4925
27702SOL    HW288944   6.983   4.218   9.371  0.4772 -0.6191 -0.6049
27703SOL     OW88945   6.720   8.689  10.299 -0.3825 -0.0680 -0.1238
27703SOL    HW188946   6.697   8.631  10.227  2.4834 -2.3747  0.6366
27703SOL    HW288947   6.815   8.694  10.297 -0.3069  1.3445  2.3457
27704SOL     OW88948   8.366   9.993   8.235  0.2904  0.0370  0.3940
27704SOL    HW188949   8.356   9.898   8.234  1.4382 -0.1039 -0.8898
27704SOL    HW288950   8.277  10.026   8.220 -0.1253 -0.8298  0.9055
27705SOL     OW88951   2.182   6.946  11.399 -0.3505 -0.0556 -0.2861
27705SOL    HW188952   2.194   6.851  11.410 -0.5270  0.0501  0.9345
27705SOL    HW288953   2.271   6.980  11.394 -0.2406 -0.1135  0.9944
27706SOL     OW88954   9.908   9.685   7.895 -0.2328 -0.3353  0.0734
27706SOL    HW188955   9.972   9.614   7.902 -0.0984 -0.2275 -0.0605
27706SOL    HW288956   9.858   9.664   7.816  0.9669  0.6566 -1.0009
27707SOL     OW88957   0.309   4.838  11.291 -0.0982  0.4472 -0.4523
27707SOL    HW188958   0.362   4.878  11.361 -1.2471 -1.2816  1.5039
27707SOL    HW288959   0.349   4.752  11.277 -0.1539  0.6056 -1.6459
27708SOL     OW88960  11.005   7.972   4.675  0.6946 -0.4423  0.2514
27708SOL    HW188961  10.948   7.951   4.601  1.1152 -1.3413  0.1734
27708SOL    HW288962  11.001   8.067   4.681 -0.7000 -0.4625  0.1563
27709SOL     OW88963   9.528   8.167   2.405 -0.0422 -0.3536 -0.0076
27709SOL    HW188964   9.578   8.142   2.482 -0.3672 -0.1941  0.2581
27709SOL    HW288965   9.590   8.162   2.333  0.2880 -0.4070  0.2807
27710SOL     OW88966   5.008  11.851   6.117  0.2319  0.2454  0.3747
27710SOL    HW188967   5.070  11.786   6.152 -0.9575 -0.3819  1.4263
27710SOL    HW288968   5.010  11.838   6.023 -0.4165 -1.7923  0.5865
27711SOL     OW88969   3.481   8.743   8.359 -0.6240  0.2061 -0.2046
27711SOL    HW188970   3.439   8.754   8.444  2.8641  1.0916  1.5930
27711SOL    HW288971   3.493   8.649   8.350  1.1297  0.2191  1.5228
27712SOL     OW88972   2.035   5.129   5.251  0.6543  0.0861 -0.5554
27712SOL    HW188973   2.115   5.181   5.254  0.5724  0.1775  0.5917
27712SOL    HW288974   1.986   5.156   5.329 -0.3545 -0.1883 -1.0814
27713SOL     OW88975   9.354   1.400  10.529 -0.0641  0.2030 -0.3543
27713SOL    HW188976   9.278   1.436  10.575  0.2107  0.5477 -0.1652
27713SOL    HW288977   9.378   1.468  10.466 -0.1306 -0.0554 -0.6580
27714SOL     OW88978   0.621   2.386   6.429  0.2891 -0.2975  0.2387
27714SOL    HW188979   0.601   2.293   6.441 -2.1267  0.0881 -0.3158
27714SOL    HW288980   0.633   2.396   6.335 -0.0879  0.0487  0.2250
27715SOL     OW88981   2.223   4.710   7.982  0.0709 -0.5028  0.0863
27715SOL    HW188982   2.288   4.735   8.047 -0.3300 -3.4898  1.8012
27715SOL    HW288983   2.271   4.654   7.920 -0.2081 -0.1104 -0.5020
27716SOL     OW88984   2.517  12.263   6.735  0.0663 -0.0548  0.3229
27716SOL    HW188985   2.430  12.283   6.768  0.6668  1.1053  1.2508
27716SOL    HW288986   2.504  12.247   6.641 -1.1829 -0.2866  0.5189
27717SOL     OW88987   5.122   6.740   9.735 -0.1401 -0.7196 -0.3481
27717SOL    HW188988   5.109   6.835   9.741 -2.3331 -0.9652 -0.2915
27717SOL    HW288989   5.123   6.722   9.641  0.1831 -0.6543 -0.3579
27718SOL     OW88990   8.796  11.735   1.079  0.0748 -0.0586  0.1370
27718SOL    HW188991   8.711  11.778   1.074  0.5466  1.2181  1.8492
27718SOL    HW288992   8.825  11.751   1.169  2.9124  1.1807 -0.8749
27719SOL     OW88993  10.699   7.481   2.568 -0.6693  0.4750  0.2289
27719SOL    HW188994  10.630   7.541   2.596  0.7534  1.4619  1.7340
27719SOL    HW288995  10.672   7.454   2.480 -1.8779  2.5107 -0.0869
27720SOL     OW88996   5.738   3.308   5.904  0.1939 -0.0305 -0.0549
27720SOL    HW188997   5.754   3.403   5.902  1.3981 -0.1182  2.1825
27720SOL    HW288998   5.815   3.272   5.948 -0.4338 -2.0228 -0.4962
27721SOL     OW88999   1.876   9.643  10.182 -0.1280 -0.2009  0.3181
27721SOL    HW189000   1.842   9.724  10.145  0.6261 -0.4440 -0.9834
27721SOL    HW289001   1.894   9.588  10.106  1.9923 -0.5433  0.9947
27722SOL     OW89002  10.028   1.457   7.648  0.7114  0.0767  0.0927
27722SOL    HW189003   9.961   1.391   7.669  0.2921  0.5645  0.3082
27722SOL    HW289004   9.992   1.539   7.683  1.0483  0.4897 -0.5213
27723SOL     OW89005   2.039   6.450   5.102  0.3014  0.0600 -0.4117
27723SOL    HW189006   1.994   6.528   5.135 -0.9877  0.3568 -2.6458
27723SOL    HW289007   2.026   6.384   5.170 -0.0513  1.3112  0.7676
27724SOL     OW89008   1.787  10.078   7.055  0.2924  0.4087 -0.2313
27724SOL    HW189009   1.792   9.988   7.024  0.1158  0.3852 -0.1863
27724SOL    HW289010   1.794  10.071   7.150 -3.8480  0.0806  0.2285
27725SOL     OW89011   7.814   1.713   9.951 -0.0502  0.2734 -0.2442
27725SOL    HW189012   7.801   1.713   9.856  1.0273  3.5869 -0.4863
27725SOL    HW289013   7.765   1.789   9.982  1.0921  0.2936  1.6359
27726SOL     OW89014   8.204  11.189   6.127  0.3994 -0.1653 -0.1859
27726SOL    HW189015   8.112  11.166   6.143  0.3726  0.2811  0.3069
27726SOL    HW289016   8.200  11.261   6.065  0.4956 -1.7177 -2.1009
27727SOL     OW89017   2.744   9.089  11.344  0.3503 -0.0209  0.1243
27727SOL    HW189018   2.697   9.063  11.264 -0.0791  2.2398 -0.4247
27727SOL    HW289019   2.679   9.137  11.395  1.1352  0.1402  0.9925
27728SOL     OW89020   6.838   2.455   3.324  0.3749  0.2717  0.3336
27728SOL    HW189021   6.849   2.500   3.240  1.2593 -0.3454  0.1121
27728SOL    HW289022   6.914   2.397   3.331  0.1664  0.1098  1.4337
27729SOL     OW89023   7.679   4.143   3.988  0.2710 -0.2990  0.2694
27729SOL    HW189024   7.733   4.094   4.049  1.0475 -0.1208 -0.2561
27729SOL    HW289025   7.682   4.092   3.907 -1.5745 -1.0665  0.6403
27730SOL     OW89026   7.684  10.680   8.734  0.0988  0.1195  0.1142
27730SOL    HW189027   7.776  10.680   8.710 -0.1931  0.6489 -1.1093
27730SOL    HW289028   7.639  10.715   8.657 -0.8132  3.1683  1.8667
27731SOL     OW89029   2.693   2.759   4.478  1.1149  0.0854  0.1099
27731SOL    HW189030   2.655   2.761   4.391  0.0199  3.4238  0.5119
27731SOL    HW289031   2.787   2.748   4.463  0.9600  0.7060 -1.5013
27732SOL     OW89032   6.957   0.435  11.761  0.2775  0.1066  0.2437
27732SOL    HW189033   6.894   0.370  11.731 -1.0140  0.3573  2.2194
27732SOL    HW289034   7.042   0.398  11.737 -0.5199 -1.0483 -0.9759
27733SOL     OW89035   0.697   3.847   5.069  0.2950  0.0121  0.0008
27733SOL    HW189036   0.660   3.807   4.991 -0.1459 -1.2628  0.8219
27733SOL    HW289037   0.785   3.874   5.043 -0.0648  0.1647 -1.0928
27734SOL     OW89038   3.358   9.761  10.837  0.2184 -0.4843  0.1628
27734SOL    HW189039   3.443   9.719  10.848 -0.2366 -1.1691  1.2462
27734SOL    HW289040   3.332   9.787  10.925  0.2383  1.6509 -0.4165
27735SOL     OW89041   8.959   7.670   8.564 -0.3382 -0.2124 -0.4032
27735SOL    HW189042   9.029   7.725   8.597 -0.5438  0.6309 -1.3409
27735SOL    HW289043   8.878   7.718   8.583 -0.4655  0.2734 -2.0237
27736SOL     OW89044   9.607   5.705   3.860 -0.0048 -0.2659 -0.1527
27736SOL    HW189045   9.602   5.790   3.818 -1.8727 -0.0117  0.4952
27736SOL    HW289046   9.696   5.702   3.897 -0.0901  1.6548  0.3248
27737SOL     OW89047   7.977   7.138   7.026 -0.2476  0.0682  0.3051
27737SOL    HW189048   7.907   7.074   7.012 -0.2516  0.3750 -1.2575
27737SOL    HW289049   8.054   7.086   7.048 -0.1920 -0.5181 -1.1982
27738SOL     OW89050   7.505   9.603   9.504 -0.7712 -0.5301 -0.1473
27738SOL    HW189051   7.430   9.555   9.539 -0.7015 -1.3168 -1.0108
27738SOL    HW289052   7.534   9.659   9.575 -2.5212  0.2038  0.0285
27739SOL     OW89053   2.768   6.959   6.841  0.4697 -0.2386 -0.2584
27739SOL    HW189054   2.803   7.029   6.897 -1.1076  0.0312  0.4720
27739SOL    HW289055   2.839   6.937   6.782  1.8707  0.1750  1.2067
27740SOL     OW89056   3.141   4.335   1.722 -0.2524  0.2294 -0.1877
27740SOL    HW189057   3.158   4.290   1.805 -1.5461 -2.6194 -1.3153
27740SOL    HW289058   3.059   4.382   1.736 -1.0716 -1.1565 -0.1018
27741SOL     OW89059   0.627   1.251   0.725  0.1820 -0.0657 -0.1948
27741SOL    HW189060   0.694   1.183   0.729  1.9785  1.5351 -1.3876
27741SOL    HW289061   0.601   1.254   0.633 -0.6476  0.1676  0.0398
27742SOL     OW89062  10.114   0.886   8.864  0.0144  0.3910 -0.6608
27742SOL    HW189063  10.177   0.834   8.915  0.4534  0.2432 -1.3316
27742SOL    HW289064  10.101   0.835   8.784 -1.2665  0.2299 -0.3713
27743SOL     OW89065   2.541   6.969   8.007  0.2638  0.3709  0.6260
27743SOL    HW189066   2.535   6.951   7.914  3.3110 -3.4163  0.9323
27743SOL    HW289067   2.595   7.049   8.012  2.0652 -0.6621 -0.9184
27744SOL     OW89068   1.855   4.224   4.540 -0.3549  0.2517  0.3684
27744SOL    HW189069   1.847   4.282   4.616 -2.5528 -1.4224  1.5121
27744SOL    HW289070   1.804   4.266   4.472  0.5632  1.1132  0.1808
27745SOL     OW89071  10.285   4.089  10.101  0.1860 -0.0481 -0.1137
27745SOL    HW189072  10.234   4.008  10.095 -0.0759 -0.1992  2.9230
27745SOL    HW289073  10.287   4.121  10.011 -2.0797 -1.9651 -0.9828
27746SOL     OW89074   2.730  10.754   1.755 -0.1649  0.3165 -0.3740
27746SOL    HW189075   2.654  10.811   1.743 -1.3466 -1.3619 -1.3408
27746SOL    HW289076   2.727  10.694   1.680  3.1560  1.2590 -1.4450
27747SOL     OW89077   7.277  10.965   1.646 -0.3918  0.0836  0.2548
27747SOL    HW189078   7.244  11.054   1.660 -1.8741 -0.4511  0.3082
27747SOL    HW289079   7.291  10.960   1.552  1.8762  1.0775  0.4856
27748SOL     OW89080   4.673   2.742   0.443  0.2066 -0.0958  0.0729
27748SOL    HW189081   4.722   2.809   0.396 -0.1277  0.2006  0.1400
27748SOL    HW289082   4.737   2.672   0.459  1.1602  1.0955  1.8874
27749SOL     OW89083   6.117   8.219   2.555  0.3847 -0.8078  0.4197
27749SOL    HW189084   6.092   8.199   2.465 -1.9545  1.2516  0.5277
27749SOL    HW289085   6.204   8.179   2.565  1.6898  0.6728 -3.3855
27750SOL     OW89086   9.019   5.550   5.626  0.5633 -0.0497 -0.2085
27750SOL    HW189087   9.110   5.521   5.632  1.0353  0.2951 -3.9479
27750SOL    HW289088   8.974   5.479   5.581 -0.4361  0.9242 -0.7909
27751SOL     OW89089   1.001   3.513   5.173 -0.1047 -0.0542 -0.0364
27751SOL    HW189090   0.943   3.510   5.097 -1.2395 -0.1062  0.8053
27751SOL    HW289091   0.985   3.599   5.212 -0.8818 -0.7092  1.1481
27752SOL     OW89092   6.874   9.120   6.227  0.2022 -0.1498  0.3805
27752SOL    HW189093   6.826   9.203   6.218  1.3173  0.3402 -1.8822
27752SOL    HW289094   6.920   9.128   6.311  2.0017  2.5684 -0.6916
27753SOL     OW89095   7.282   9.163  10.494 -0.1376  0.0020 -0.2200
27753SOL    HW189096   7.230   9.158  10.414 -0.1652 -0.2463 -0.1885
27753SOL    HW289097   7.347   9.231  10.477  0.3141 -0.5472 -0.7256
27754SOL     OW89098  12.130   2.620   2.789  0.2293 -0.1867  0.4712
27754SOL    HW189099  12.218   2.658   2.785  0.2081 -0.2216 -0.8804
27754SOL    HW289100  12.125   2.564   2.712 -1.0264 -0.0645  0.4470
27755SOL     OW89101  12.083  10.765   0.632 -0.2858  0.0417  0.3244
27755SOL    HW189102  12.068  10.671   0.643 -0.4081  0.2295  2.0993
27755SOL    HW289103  12.093  10.798   0.721 -1.7624  1.9671 -0.1537
27756SOL     OW89104   2.068   8.685   1.070  0.8453 -0.3654 -0.0796
27756SOL    HW189105   2.028   8.673   0.984 -2.4608 -1.5652  1.4509
27756SOL    HW289106   2.136   8.618   1.074 -0.4949 -1.8510 -1.0006
27757SOL     OW89107   4.634  12.301   8.982 -0.3327  0.7023  0.3100
27757SOL    HW189108   4.628  12.266   8.893 -0.0230 -0.6931  0.8080
27757SOL    HW289109   4.562  12.259   9.029  0.1975  0.5437  0.9967
27758SOL     OW89110  10.648   9.092  11.820 -0.7262  0.3041 -0.0040
27758SOL    HW189111  10.637   9.168  11.876  1.0297  2.3436 -2.2150
27758SOL    HW289112  10.737   9.061  11.838 -0.6431  0.1422 -0.6398
27759SOL     OW89113   4.952   1.753   8.467  0.0040  0.3821 -0.0078
27759SOL    HW189114   4.975   1.778   8.557 -0.9055  0.4448  0.2238
27759SOL    HW289115   4.862   1.721   8.474  0.1916 -0.3427 -0.7752
27760SOL     OW89116   3.837   4.901   9.663  0.3383 -0.3371  0.6486
27760SOL    HW189117   3.911   4.893   9.723  0.1238 -0.4245  0.9020
27760SOL    HW289118   3.790   4.980   9.693 -0.2042 -0.8126  1.0799
27761SOL     OW89119   6.215   9.646  10.536 -0.0759 -0.9604 -0.1932
27761SOL    HW189120   6.151   9.717  10.545  1.5524  0.4035  1.6818
27761SOL    HW289121   6.261   9.667  10.454 -0.2527 -0.4106 -0.1623
27762SOL     OW89122   1.108   7.946  10.680 -0.0614  0.4372  0.1060
27762SOL    HW189123   1.118   7.851  10.677 -0.8791  0.1532  3.0954
27762SOL    HW289124   1.147   7.977  10.598 -1.4225 -2.5608 -1.8530
27763SOL     OW89125   8.905   8.703   5.959 -0.4166  0.7089  0.0954
27763SOL    HW189126   8.883   8.770   6.024 -1.4424  1.9876 -1.5043
27763SOL    HW289127   8.826   8.649   5.953 -0.5765  1.0130 -0.5747
27764SOL     OW89128   2.680   9.024   7.832  0.3863 -0.0296 -0.4563
27764SOL    HW189129   2.587   9.044   7.844  0.4876  0.2455 -0.1104
27764SOL    HW289130   2.681   8.943   7.781 -0.0304  1.1901 -2.4947
27765SOL     OW89131   4.073   4.582   0.119  0.0578 -0.4122 -0.5218
27765SOL    HW189132   4.148   4.538   0.079 -0.1326 -0.6975 -0.5663
27765SOL    HW289133   4.110   4.661   0.159  0.3233 -0.3698 -0.8505
27766SOL     OW89134   4.199   8.829   7.378 -0.2366 -0.7124 -0.4638
27766SOL    HW189135   4.210   8.831   7.283 -0.6604 -0.6803 -0.5149
27766SOL    HW289136   4.195   8.921   7.403 -0.0036 -0.7195 -0.3978
27767SOL     OW89137   8.080   3.323   6.073 -0.5968  0.3942  0.4958
27767SOL    HW189138   8.025   3.245   6.061  2.7345 -2.0268 -0.7055
27767SOL    HW289139   8.142   3.320   6.000  0.0439  3.9712  0.7034
27768SOL     OW89140  11.830  11.166   7.341 -0.2292 -0.3820 -0.0736
27768SOL    HW189141  11.741  11.133   7.333 -0.3278 -0.0253 -0.5542
27768SOL    HW289142  11.845  11.173   7.435 -0.0770 -2.0922  0.0580
27769SOL     OW89143   9.231   4.340   0.057  0.4763 -0.1804  0.4555
27769SOL    HW189144   9.148   4.387   0.061  1.4939  1.7398  0.1661
27769SOL    HW289145   9.273   4.371  -0.023  1.4991 -1.0733  0.6207
27770SOL     OW89146  12.052   6.267   5.874 -0.3195  0.2893  0.4758
27770SOL    HW189147  12.107   6.281   5.951 -0.4939  3.4369  0.1536
27770SOL    HW289148  12.114   6.248   5.804  0.2471  1.7909  0.5367
27771SOL     OW89149   6.691   0.644   7.929 -0.4390 -0.0548 -0.0780
27771SOL    HW189150   6.596   0.644   7.939 -0.3520  1.7082  1.2843
27771SOL    HW289151   6.706   0.673   7.839 -1.1909 -0.1511 -0.2379
27772SOL     OW89152   6.340   2.955   4.585 -0.2562 -0.0660 -0.0543
27772SOL    HW189153   6.434   2.965   4.574 -0.2181 -1.2332 -0.8878
27772SOL    HW289154   6.329   2.874   4.635 -0.8341 -0.1093 -0.2421
27773SOL     OW89155  11.955   1.754   4.939 -0.3773 -0.5240  0.4653
27773SOL    HW189156  11.955   1.836   4.888  0.3515 -1.1277 -0.5432
27773SOL    HW289157  11.862   1.731   4.947 -0.5521  0.0528  0.1950
27774SOL     OW89158   3.579   6.837   9.087  0.1622 -0.0875  0.0202
27774SOL    HW189159   3.671   6.831   9.064  0.9282 -3.0694  3.0223
27774SOL    HW289160   3.538   6.762   9.043 -1.1095  1.6076 -1.8765
27775SOL     OW89161   5.461   6.221   2.083  0.2810 -0.2462 -0.8001
27775SOL    HW189162   5.434   6.181   2.166  2.0520  0.8180  0.3594
27775SOL    HW289163   5.380   6.257   2.047 -0.2962  1.0170  1.4882
27776SOL     OW89164   9.246   6.759   2.678 -0.2490 -0.0234 -0.1847
27776SOL    HW189165   9.208   6.673   2.660 -1.1652  0.0560  1.2075
27776SOL    HW289166   9.336   6.740   2.703 -0.8376 -0.7717  1.5540
27777SOL     OW89167   8.664   5.466   0.074 -0.5559 -0.5540  0.4751
27777SOL    HW189168   8.689   5.445  -0.017  0.9304  0.6320  0.5647
27777SOL    HW289169   8.743   5.447   0.125 -0.4136  1.5118  1.0947
27778SOL     OW89170   1.392   7.044  11.819 -0.4206  0.0760  0.0532
27778SOL    HW189171   1.384   7.120  11.762 -0.5886  1.0016  1.2880
27778SOL    HW289172   1.480   7.051  11.857 -0.0949 -0.8367 -0.4787
27779SOL     OW89173   5.334   5.104   9.439 -0.1469  0.2709  0.5156
27779SOL    HW189174   5.278   5.158   9.385 -1.8551 -0.8819  1.0586
27779SOL    HW289175   5.342   5.022   9.391  2.8718  1.0531 -0.5735
27780SOL     OW89176   1.551   7.220   5.923 -0.5253 -0.2515 -0.6560
27780SOL    HW189177   1.467   7.249   5.959 -0.2006 -0.8687  0.6369
27780SOL    HW289178   1.617   7.253   5.983  0.0457 -1.1830 -0.7365
27781SOL     OW89179   0.212   0.562  11.120  0.2467 -0.3703  0.2522
27781SOL    HW189180   0.276   0.490  11.115 -0.3161 -0.8247 -0.7624
27781SOL    HW289181   0.219   0.605  11.035 -1.1230 -0.7311 -0.0666
27782SOL     OW89182   4.528  10.802   5.176 -0.4343  0.0530  0.1186
27782SOL    HW189183   4.487  10.763   5.253 -0.9358 -0.1712 -0.2485
27782SOL    HW289184   4.524  10.896   5.191 -0.4617  0.0067  0.3980
27783SOL     OW89185   6.465   4.200  12.246 -0.3013  0.0052 -0.2204
27783SOL    HW189186   6.400   4.257  12.205 -2.0088 -0.9453  1.0101
27783SOL    HW289187   6.489   4.137  12.178 -0.4843  0.5166 -0.7648
27784SOL     OW89188   7.065   1.938   9.248  0.4715  0.1937 -0.1819
27784SOL    HW189189   7.078   2.009   9.185 -0.6263 -0.3449 -1.0469
27784SOL    HW289190   7.048   1.982   9.331  1.9606  0.9182 -0.2262
27785SOL     OW89191   3.053   8.204   3.589  0.1458 -0.4716  0.1596
27785SOL    HW189192   3.098   8.232   3.668  0.2992 -0.1712 -0.0330
27785SOL    HW289193   2.969   8.170   3.620 -0.2052  0.5432  0.3758
27786SOL     OW89194  11.754   8.996   7.276  0.2920 -0.2733  0.1842
27786SOL    HW189195  11.731   8.968   7.365  2.0764  1.0378  1.1375
27786SOL    HW289196  11.672   9.028   7.239 -0.4577 -0.7022  1.4140
27787SOL     OW89197  11.824   5.813   5.231  0.6876 -0.7424 -0.0753
27787SOL    HW189198  11.742   5.765   5.221  0.0021  0.5058 -0.6755
27787SOL    HW289199  11.825   5.875   5.158  0.7038  1.3046  1.5699
27788SOL     OW89200  10.558   9.794  11.761 -0.0139  0.3307 -0.0364
27788SOL    HW189201  10.506   9.839  11.694  1.7951 -1.5909 -2.9704
27788SOL    HW289202  10.622   9.859  11.789  0.7370  0.5694 -2.0757
27789SOL     OW89203   7.576   1.240   1.914  0.1134  0.5931  0.3071
27789SOL    HW189204   7.513   1.275   1.977  2.3628  1.5666  2.2018
27789SOL    HW289205   7.541   1.265   1.829 -2.2985  0.5583  1.2054
27790SOL     OW89206   1.746   0.762   4.655 -0.3914 -0.7580 -0.6665
27790SOL    HW189207   1.678   0.717   4.705  1.1482 -1.0693  1.2819
27790SOL    HW289208   1.753   0.849   4.695 -0.2217 -0.4131 -1.4116
27791SOL     OW89209   0.892   9.275   0.129  0.0761  0.2645 -0.7143
27791SOL    HW189210   0.888   9.361   0.170 -1.6916  0.2260 -0.7216
27791SOL    HW289211   0.868   9.214   0.199 -2.7932  0.1873 -1.6158
27792SOL     OW89212   8.800   0.474   5.511  0.3257  0.0683 -0.4537
27792SOL    HW189213   8.822   0.467   5.418  0.8370  0.5086 -0.3719
27792SOL    HW289214   8.879   0.445   5.557 -0.8924 -3.0635 -0.1202
27793SOL     OW89215   2.373   5.947   9.781 -0.3208 -0.2079 -0.0865
27793SOL    HW189216   2.435   5.881   9.749 -1.7119 -1.0083 -1.2204
27793SOL    HW289217   2.293   5.931   9.732 -1.3162  1.0827  1.0408
27794SOL     OW89218  10.358   1.267   3.370 -0.0312  0.0111  0.2786
27794SOL    HW189219  10.392   1.289   3.283 -4.8386  1.0318 -1.6767
27794SOL    HW289220  10.358   1.171   3.372  1.8065 -0.0234 -0.0227
27795SOL     OW89221  11.810   1.076   5.698 -0.0859  0.7173  0.5059
27795SOL    HW189222  11.863   1.152   5.722  0.2234  0.5734  0.2852
27795SOL    HW289223  11.834   1.009   5.762 -0.3488  0.7982  0.6920
27796SOL     OW89224   0.423   8.895   7.547  0.2165  0.6182  0.1644
27796SOL    HW189225   0.435   8.879   7.641  0.7843  0.3225  0.0423
27796SOL    HW289226   0.401   8.988   7.542  1.2614  0.8935  0.4998
27797SOL     OW89227   9.750   9.606  10.945  0.0652 -0.1026  0.2443
27797SOL    HW189228   9.670   9.554  10.957 -0.0640  0.1805  0.6263
27797SOL    HW289229   9.778   9.628  11.033 -0.0912  0.7942  0.0743
27798SOL     OW89230   8.551  11.770   5.591 -0.0180  0.6852  0.4149
27798SOL    HW189231   8.460  11.761   5.620  0.0678 -0.4207  0.3725
27798SOL    HW289232   8.546  11.825   5.513 -0.7782 -0.2108 -0.1819
27799SOL     OW89233  12.100   3.718  12.037  0.1902 -0.7209 -0.0920
27799SOL    HW189234  12.041   3.754  11.972  1.1068 -1.3466 -1.3120
27799SOL    HW289235  12.095   3.779  12.111  0.5886  1.0946 -1.4973
27800SOL     OW89236   6.641   8.716  12.143 -0.0218  0.1562  0.2630
27800SOL    HW189237   6.682   8.800  12.167 -0.1902  0.1170  0.6882
27800SOL    HW289238   6.714   8.654  12.140  0.2827  0.5326 -1.1416
27801SOL     OW89239   3.576   9.417   1.494 -0.5877  0.7897  0.3690
27801SOL    HW189240   3.627   9.379   1.423 -0.7113  2.7987 -0.8686
27801SOL    HW289241   3.507   9.468   1.450  0.0184  3.0469  1.8214
27802SOL     OW89242   6.439   4.527  11.195 -0.0168 -0.0488  0.2712
27802SOL    HW189243   6.404   4.597  11.139  0.3836  0.1113  0.2223
27802SOL    HW289244   6.397   4.448  11.162  0.5477 -0.0210 -0.5526
27803SOL     OW89245   9.624   2.056   1.400 -0.0842  0.0116  0.4318
27803SOL    HW189246   9.590   1.967   1.390  0.3312 -0.0107 -1.0860
27803SOL    HW289247   9.661   2.058   1.488  0.2391 -1.4517  0.3501
27804SOL     OW89248   4.529   2.663   1.927 -0.2777 -0.2248  0.7442
27804SOL    HW189249   4.574   2.639   2.008  0.1988 -0.3063  0.4526
27804SOL    HW289250   4.583   2.627   1.857 -1.5319 -1.5855  0.4217
27805SOL     OW89251   1.689   4.618   1.204 -0.0586  0.2732  0.7224
27805SOL    HW189252   1.746   4.551   1.240  0.2209  0.0477 -0.1054
27805SOL    HW289253   1.601   4.583   1.214 -0.0041  0.3288  1.4043
27806SOL     OW89254   5.847   9.323  10.873  0.0932  0.0796  0.0321
27806SOL    HW189255   5.775   9.262  10.889 -1.6541  1.9252 -0.3857
27806SOL    HW289256   5.889   9.290  10.793 -0.7439 -0.6437 -0.1250
27807SOL     OW89257  10.205   1.824   4.052 -0.2631 -0.3851  0.0128
27807SOL    HW189258  10.232   1.897   4.108  1.5365 -0.7472 -0.3399
27807SOL    HW289259  10.264   1.752   4.076  0.9683 -0.3796 -2.7097
27808SOL     OW89260   3.376   2.105   4.171 -0.4178  0.5660 -0.2743
27808SOL    HW189261   3.366   2.074   4.081 -1.7089  2.0797 -0.6901
27808SOL    HW289262   3.435   2.180   4.165  0.2853  0.0777  0.3064
27809SOL     OW89263  11.381   6.928   6.852 -0.1497 -0.6483  0.2244
27809SOL    HW189264  11.446   6.985   6.811 -2.8135  0.5313 -2.7583
27809SOL    HW289265  11.372   6.855   6.790 -1.7374 -0.7109  0.5052
27810SOL     OW89266  11.201   9.443   0.619 -0.5047 -0.2758 -0.8954
27810SOL    HW189267  11.132   9.378   0.605  0.8504 -1.9485 -0.2950
27810SOL    HW289268  11.265   9.425   0.551  0.1128  0.1012 -0.4297
27811SOL     OW89269   5.720  11.715   8.006  0.1331  0.0397  0.1025
27811SOL    HW189270   5.810  11.686   7.993  0.3253 -0.0933  1.5345
27811SOL    HW289271   5.685  11.728   7.918  1.5857  0.2048 -0.4673
27812SOL     OW89272   0.624  10.600   8.313  0.1243  0.1389  0.0295
27812SOL    HW189273   0.662  10.624   8.397 -0.2778 -0.6971  0.4645
27812SOL    HW289274   0.685  10.537   8.275 -0.8869 -1.3702  0.8277
27813SOL     OW89275   6.251  10.324   5.765  0.4690  0.4889 -0.1496
27813SOL    HW189276   6.249  10.415   5.796  0.5030  0.5995 -0.4648
27813SOL    HW289277   6.172  10.315   5.713 -1.5172 -0.7491  2.8350
27814SOL     OW89278  10.974   0.058   1.034 -0.0772  0.4769 -0.0317
27814SOL    HW189279  10.939   0.090   1.117 -0.0826  0.1114  0.1087
27814SOL    HW289280  11.050   0.005   1.058  0.9197  1.7150 -0.3705
27815SOL     OW89281   5.581  11.084   1.289  0.1898 -0.4094  0.3779
27815SOL    HW189282   5.575  10.990   1.273  0.0522 -0.2244 -0.7677
27815SOL    HW289283   5.496  11.109   1.325 -0.6977 -0.3343 -1.6219
27816SOL     OW89284   4.852   1.757   8.092  0.3429 -0.0508  0.2811
27816SOL    HW189285   4.834   1.827   8.155  0.3712  0.4862 -0.2921
27816SOL    HW289286   4.943   1.734   8.108 -0.0881 -1.0259  1.4931
27817SOL     OW89287   3.165   7.657   7.959  0.2536  0.0317 -0.2424
27817SOL    HW189288   3.150   7.565   7.982  0.8153 -0.3547 -1.3315
27817SOL    HW289289   3.116   7.707   8.024  1.0767 -1.0022  1.2134
27818SOL     OW89290   0.458   8.311   1.126 -0.1618 -0.1921  0.0569
27818SOL    HW189291   0.363   8.315   1.140  0.0080  0.3155  1.2278
27818SOL    HW289292   0.483   8.224   1.157  0.0079  0.4027  1.7040
27819SOL     OW89293  10.834   5.041   8.760  0.1132 -0.4429 -0.4301
27819SOL    HW189294  10.871   5.086   8.684 -1.7017 -0.6490 -1.4788
27819SOL    HW289295  10.860   5.095   8.835  1.4770  0.0549 -1.2120
27820SOL     OW89296   9.504   6.302   1.987 -0.4211  0.8395 -0.0154
27820SOL    HW189297   9.411   6.325   1.987 -0.4074  0.8901  0.2178
27820SOL    HW289298   9.510   6.229   2.049 -0.4593  0.2322 -0.7111
27821SOL     OW89299   9.174  10.609   9.306 -0.3374 -0.2331  0.1453
27821SOL    HW189300   9.263  10.642   9.292 -0.6701  0.6346 -0.0279
27821SOL    HW289301   9.122  10.688   9.322 -1.3118 -0.6051 -1.0533
27822SOL     OW89302   5.874   0.336   8.100  0.1564  0.5064  0.2574
27822SOL    HW189303   5.860   0.264   8.161 -0.1346  0.9680  0.7421
27822SOL    HW289304   5.968   0.354   8.105 -0.0192  1.2054  1.3370
27823SOL     OW89305   2.245   9.684   5.250  0.0103  0.1791 -0.4914
27823SOL    HW189306   2.251   9.626   5.175  1.2735 -0.5819  0.1678
27823SOL    HW289307   2.164   9.733   5.236 -1.4283 -2.1368 -0.7783
27824SOL     OW89308   4.098   0.963  10.597  0.4212  0.0912  0.2039
27824SOL    HW189309   4.094   0.977  10.691  1.7268 -1.6447  0.5652
27824SOL    HW289310   4.011   0.930  10.573 -0.7589  2.8706  0.2973
27825SOL     OW89311   4.137   7.853   1.920 -0.7577 -0.3918  0.2570
27825SOL    HW189312   4.054   7.827   1.880 -0.3383 -2.0943  0.4140
27825SOL    HW289313   4.143   7.800   1.999  0.7277 -0.7269 -0.0513
27826SOL     OW89314   8.061   3.140   8.160  0.1318 -0.4722  0.4435
27826SOL    HW189315   8.119   3.105   8.228  2.4963 -1.2710 -1.8028
27826SOL    HW289316   8.039   3.228   8.190  1.8853 -0.4447  1.8048
27827SOL     OW89317   7.237   2.606  11.758  0.0249 -0.0009  0.0715
27827SOL    HW189318   7.248   2.580  11.850 -1.5818 -0.1535  0.2429
27827SOL    HW289319   7.305   2.558  11.712  0.1496 -0.7957  1.0437
27828SOL     OW89320   0.586   8.928   0.490  0.3724 -0.3442 -0.3629
27828SOL    HW189321   0.509   8.975   0.521 -0.7895 -1.1347 -1.9265
27828SOL    HW289322   0.561   8.835   0.494  1.4785 -0.6611 -0.3249
27829SOL     OW89323  11.572   3.437   5.176  0.2212 -0.6118  0.5063
27829SOL    HW189324  11.585   3.419   5.083  0.0843 -0.4281  0.4509
27829SOL    HW289325  11.646   3.493   5.200 -0.1972  0.0478  0.3017
27830SOL     OW89326   6.416   1.913  10.421 -0.1331 -0.1796 -0.3233
27830SOL    HW189327   6.448   1.995  10.383 -2.4288  1.3480  0.7972
27830SOL    HW289328   6.455   1.844  10.367  1.5972  1.6344 -1.5243
27831SOL     OW89329   4.949   7.966  10.091 -0.1372 -0.5224  0.5459
27831SOL    HW189330   4.905   8.018  10.158 -0.6688  1.8675 -1.5025
27831SOL    HW289331   5.031   7.938  10.133 -0.3794  0.9701  2.1403
27832SOL     OW89332   0.904   4.046   9.538 -0.0440 -0.8586 -0.8434
27832SOL    HW189333   0.819   4.090   9.549 -0.1522 -0.7442 -2.0502
27832SOL    HW289334   0.964   4.115   9.510  0.0031 -1.2843 -1.8231
27833SOL     OW89335   3.132  11.785   3.866  0.3158 -0.2733  0.4092
27833SOL    HW189336   3.070  11.787   3.939  1.0446  0.2522  1.0273
27833SOL    HW289337   3.178  11.701   3.877 -0.9440 -1.1420 -0.6366
27834SOL     OW89338   8.985   4.628   1.243 -0.2440  0.4300  0.3153
27834SOL    HW189339   8.969   4.537   1.268  2.2300 -0.6626 -1.5843
27834SOL    HW289340   8.916   4.649   1.180 -0.3397 -0.4599  0.1116
27835SOL     OW89341   7.186   1.128   2.211 -0.4970  0.3012  0.2023
27835SOL    HW189342   7.091   1.140   2.209 -0.4851  0.4360  0.3385
27835SOL    HW289343   7.199   1.049   2.263 -0.5530  0.0308 -0.1961
27836SOL     OW89344   1.724   7.496   0.040  0.5637  0.6302  0.4254
27836SOL    HW189345   1.750   7.455  -0.043 -1.7521 -3.0852  1.3120
27836SOL    HW289346   1.803   7.494   0.094  0.8456 -1.9432  0.0426
27837SOL     OW89347   6.092   6.430   7.997  0.5783  0.0766  0.0896
27837SOL    HW189348   5.999   6.453   7.991  0.2381 -1.4622 -1.4376
27837SOL    HW289349   6.094   6.347   8.043  1.3419  0.6610  1.1636
27838SOL     OW89350   1.269  12.002   1.062 -0.9129  0.6137 -0.3544
27838SOL    HW189351   1.248  11.987   0.969  0.9398  0.2050 -0.7547
27838SOL    HW289352   1.324  11.927   1.086 -0.0648  1.5110  0.6078
27839SOL     OW89353   7.359   3.668  11.480  0.8289  0.4767 -0.3829
27839SOL    HW189354   7.449   3.636  11.488  1.2084  1.4775 -0.4075
27839SOL    HW289355   7.357   3.746  11.537  0.1252  0.7458 -0.7685
27840SOL     OW89356   7.877   7.374  11.306  0.3855  0.1979  0.0910
27840SOL    HW189357   7.944   7.317  11.343  0.7046  0.8227  0.4999
27840SOL    HW289358   7.910   7.463  11.321  0.3508  0.4875 -1.3804
27841SOL     OW89359   3.896   4.161  10.366 -0.5203  0.3458  0.5272
27841SOL    HW189360   3.858   4.074  10.365  0.0347  0.0944 -0.3225
27841SOL    HW289361   3.832   4.216  10.412 -1.1704 -0.3671  0.4827
27842SOL     OW89362   5.257   3.600   2.985  0.1447 -0.1614  0.1152
27842SOL    HW189363   5.282   3.671   2.926 -0.5963 -1.1476 -1.4714
27842SOL    HW289364   5.181   3.633   3.032  1.0940  0.8564  1.0110
27843SOL     OW89365   2.147   5.012   5.555  0.4249  0.7495 -0.4680
27843SOL    HW189366   2.080   4.945   5.569  1.7171 -1.2306 -2.9818
27843SOL    HW289367   2.099   5.088   5.522 -0.6309 -0.6687 -2.3314
27844SOL     OW89368   8.644   1.695   7.731 -0.3421 -0.1783  0.4497
27844SOL    HW189369   8.679   1.779   7.701 -1.3927 -0.0428 -0.4557
27844SOL    HW289370   8.704   1.630   7.695  0.6940  0.1899  1.4735
27845SOL     OW89371   3.934   0.264   5.081 -0.1146  0.3489  0.4764
27845SOL    HW189372   3.847   0.302   5.093 -0.2370  0.0061  0.6883
27845SOL    HW289373   3.994   0.333   5.111 -0.3729  0.0012  1.8824
27846SOL     OW89374   3.631   2.052   5.814  0.4475  0.7824  0.3788
27846SOL    HW189375   3.676   2.045   5.899  1.1841  1.0283  0.0169
27846SOL    HW289376   3.696   2.020   5.751 -1.2490 -2.8736  0.2132
27847SOL     OW89377   7.831   0.002   2.048 -0.1990 -0.5453 -0.5328
27847SOL    HW189378   7.750   0.051   2.031 -1.1835 -1.4794  1.1142
27847SOL    HW289379   7.830  -0.070   1.986 -0.1050  0.0255 -1.2001
27848SOL     OW89380   9.017   0.268   8.445  0.2822  0.1186 -0.5121
27848SOL    HW189381   8.990   0.199   8.506 -0.8532 -0.1590 -1.3051
27848SOL    HW289382   9.029   0.345   8.501  0.9184 -0.5338  0.2907
27849SOL     OW89383  10.008   7.336   4.080  0.7051 -0.1430  0.1975
27849SOL    HW189384  10.087   7.388   4.095  1.1913 -0.2603 -1.7360
27849SOL    HW289385  10.033   7.270   4.015 -0.6968 -0.8940  0.3617
27850SOL     OW89386   4.765   5.589   1.528  0.4114  0.0358 -0.0163
27850SOL    HW189387   4.843   5.579   1.582 -1.2605 -2.1394  2.2129
27850SOL    HW289388   4.705   5.642   1.581 -0.4402 -0.2217 -0.6873
27851SOL     OW89389  10.802   0.509  10.084 -0.3068 -0.0069 -0.0082
27851SOL    HW189390  10.765   0.495  10.172 -0.8207  0.4173 -0.1475
27851SOL    HW289391  10.730   0.486  10.024 -0.4607  1.1115 -0.2772
27852SOL     OW89392   7.312   4.404   4.051  1.0271  0.1590 -0.0965
27852SOL    HW189393   7.293   4.347   3.977 -0.6066  1.1940 -0.5165
27852SOL    HW289394   7.402   4.433   4.037  1.5532 -1.5425 -0.3766
27853SOL     OW89395   2.941   9.810   2.219 -0.1854  0.2369 -0.6865
27853SOL    HW189396   2.982   9.885   2.262 -0.7209  0.1452  0.0017
27853SOL    HW289397   2.852   9.807   2.255 -0.2290 -0.6180 -0.8449
27854SOL     OW89398  10.106   6.394   9.096  0.1517 -0.0771 -0.1251
27854SOL    HW189399  10.016   6.364   9.105  0.5824 -1.1000  1.0510
27854SOL    HW289400  10.150   6.362   9.175  1.1743  1.7985  0.1192
27855SOL     OW89401   4.113   7.592   3.765 -0.1727  0.2744 -0.1652
27855SOL    HW189402   4.149   7.664   3.817  0.5242  0.9668 -1.5557
27855SOL    HW289403   4.188   7.556   3.718 -0.7916 -0.3172 -0.7316
27856SOL     OW89404   2.735   9.544   6.218  0.3841  0.1463  0.1058
27856SOL    HW189405   2.770   9.458   6.241  2.1897  0.9859  0.6887
27856SOL    HW289406   2.676   9.527   6.144 -1.0691 -1.8523  1.6205
27857SOL     OW89407   0.402  11.642   1.475 -0.2284 -0.0352  0.1546
27857SOL    HW189408   0.327  11.690   1.509 -1.9931 -0.4495 -2.7793
27857SOL    HW289409   0.468  11.709   1.458 -0.6425  0.6025  0.9889
27858SOL     OW89410   0.802  10.984   4.977 -0.1145 -0.3028  0.1604
27858SOL    HW189411   0.896  10.994   4.993 -0.3230  0.1027  1.2093
27858SOL    HW289412   0.795  10.902   4.928  0.5241 -2.3723  3.2659
27859SOL     OW89413   6.147   9.437   8.069 -0.1284  0.2255 -0.5214
27859SOL    HW189414   6.096   9.497   8.015 -2.2819 -0.7360  0.3381
27859SOL    HW289415   6.186   9.493   8.136 -0.6148  0.9126 -0.7952
27860SOL     OW89416   4.343   6.115   7.132 -0.1284 -0.1338  0.2325
27860SOL    HW189417   4.349   6.202   7.090 -0.7713  0.0979  0.6147
27860SOL    HW289418   4.301   6.132   7.216 -0.6540 -0.8829  0.1246
27861SOL     OW89419   5.367   7.300   7.008 -0.9783 -0.1211  0.3826
27861SOL    HW189420   5.338   7.280   6.920  1.4785  1.9602 -1.0695
27861SOL    HW289421   5.448   7.250   7.019  0.7806  2.3753 -0.1481
27862SOL     OW89422   2.892   0.360   1.642  0.0150 -0.1853  0.4788
27862SOL    HW189423   2.910   0.451   1.617  1.7428 -0.0573  1.9584
27862SOL    HW289424   2.927   0.308   1.570  1.6090  0.2615  0.8948
27863SOL     OW89425   9.038   9.716   9.683 -0.0477 -0.2323  0.6140
27863SOL    HW189426   8.968   9.679   9.629 -0.8205  0.6474  0.9979
27863SOL    HW289427   9.072   9.640   9.731 -0.2727 -0.7848 -0.0648
27864SOL     OW89428   1.069  10.965   4.950  0.3063  0.1550 -0.1173
27864SOL    HW189429   1.112  10.905   5.010 -1.0467 -0.7690 -0.0354
27864SOL    HW289430   1.137  10.987   4.886  1.2182 -0.3452  0.6424
27865SOL     OW89431   7.638   9.160   5.441 -0.0415  0.3223 -0.0602
27865SOL    HW189432   7.565   9.209   5.479  1.6397  2.7245  0.3084
27865SOL    HW289433   7.687   9.226   5.391  1.6232 -1.3080 -0.6880
27866SOL     OW89434   8.170   0.013  11.360  0.3428  0.5648  0.6694
27866SOL    HW189435   8.086  -0.025  11.385  0.4583 -0.0850  0.0882
27866SOL    HW289436   8.159   0.035  11.267  0.5801  1.1420  0.7726
27867SOL     OW89437   8.056   3.737   4.076 -0.4335 -0.5519  0.3325
27867SOL    HW189438   8.126   3.783   4.029 -0.5309 -1.1779 -0.4607
27867SOL    HW289439   8.100   3.691   4.147 -0.2850  0.4395  0.8951
27868SOL     OW89440   6.570   0.082   6.956 -0.3177 -0.3187 -0.1571
27868SOL    HW189441   6.547   0.149   6.892  1.3943 -0.3474 -0.8508
27868SOL    HW289442   6.495   0.023   6.957 -0.6405  0.0193 -1.7102
27869SOL     OW89443   5.476  11.364  10.985 -0.3091  0.3841 -0.0120
27869SOL    HW189444   5.548  11.375  10.923 -0.4124  0.6261 -0.0883
27869SOL    HW289445   5.520  11.345  11.068 -0.1945 -1.4340 -0.4408
27870SOL     OW89446   9.850   7.340  12.197 -0.0152  0.0536  0.3918
27870SOL    HW189447   9.801   7.395  12.136  1.3796  0.9140 -0.0058
27870SOL    HW289448   9.839   7.383  12.282  1.7371  1.5034 -0.0471
27871SOL     OW89449  11.525  10.902   9.200  0.6933  0.2316  0.1645
27871SOL    HW189450  11.554  10.821   9.159  1.5180 -0.0495  1.2433
27871SOL    HW289451  11.582  10.969   9.162  1.8023 -0.1026  1.1844
27872SOL     OW89452   3.732   9.155   3.312 -0.3914  0.5458  0.5131
27872SOL    HW189453   3.701   9.201   3.391  2.7972  1.6012  1.3102
27872SOL    HW289454   3.747   9.065   3.341 -0.5397  0.5951  0.7498
27873SOL     OW89455   0.323   0.379  10.764 -0.4551 -0.3223  0.1480
27873SOL    HW189456   0.401   0.328  10.742  0.0423  1.3665 -2.5609
27873SOL    HW289457   0.356   0.449  10.820 -0.0021  0.2807 -0.8410
27874SOL     OW89458   3.084   7.117   3.131 -0.6614 -0.0599  0.1454
27874SOL    HW189459   3.001   7.147   3.094 -0.0709  1.2957 -0.1342
27874SOL    HW289460   3.140   7.194   3.130  0.5702 -0.9213  0.4493
27875SOL     OW89461   6.471   1.411   8.293 -0.6458 -0.0522 -0.5482
27875SOL    HW189462   6.473   1.461   8.212 -0.8698 -1.5599 -1.5094
27875SOL    HW289463   6.507   1.325   8.270 -0.4763 -0.4334  1.0072
27876SOL     OW89464   0.424   8.332  10.289  0.1443 -0.6141  0.4110
27876SOL    HW189465   0.354   8.345  10.353 -0.7345 -0.6022 -0.5217
27876SOL    HW289466   0.487   8.402  10.308 -0.4898 -0.1250  0.7591
27877SOL     OW89467   3.351  11.244   3.301  0.3535 -0.2709  0.2845
27877SOL    HW189468   3.410  11.190   3.248  1.1754 -0.6676  1.5627
27877SOL    HW289469   3.398  11.326   3.315  0.4761 -0.4580  1.0249
27878SOL     OW89470   5.562   5.319   1.071 -0.4957  0.1215 -0.1522
27878SOL    HW189471   5.591   5.228   1.079 -1.1827  0.0375  1.9172
27878SOL    HW289472   5.472   5.313   1.041 -0.5777  0.1176  0.0963
27879SOL     OW89473  10.459   8.456   8.513 -0.5095 -0.2623  0.2725
27879SOL    HW189474  10.515   8.431   8.587 -1.2388 -0.3864  0.7959
27879SOL    HW289475  10.460   8.552   8.513  1.9127 -0.2140 -1.4450
27880SOL     OW89476   3.322   7.795   9.844  0.4345 -0.3867  0.5324
27880SOL    HW189477   3.392   7.826   9.902  0.0991 -1.7922  1.7415
27880SOL    HW289478   3.250   7.772   9.903 -0.8468  0.4472 -0.6477
27881SOL     OW89479   3.488   2.813   9.770  0.7066  1.2060 -0.0861
27881SOL    HW189480   3.530   2.896   9.750  1.7754  0.7858  0.3532
27881SOL    HW289481   3.431   2.832   9.844 -1.7009  2.2966 -2.0646
27882SOL     OW89482   9.839  11.709   0.946  0.2474 -0.1142  0.3174
27882SOL    HW189483   9.823  11.631   0.893 -0.0529  0.2056 -0.0723
27882SOL    HW289484   9.903  11.681   1.011  1.2723 -0.3026 -0.7381
27883SOL     OW89485   3.125   0.475  10.855 -0.5174 -0.2076 -0.0622
27883SOL    HW189486   3.216   0.465  10.830 -0.6016  0.8775 -0.8816
27883SOL    HW289487   3.111   0.570  10.858 -1.0553 -0.2987  2.2102
27884SOL     OW89488   0.685  11.688   1.508  0.0147  0.0521  0.2887
27884SOL    HW189489   0.736  11.608   1.522 -0.7416 -0.6211 -0.6795
27884SOL    HW289490   0.717  11.724   1.425 -0.0069  0.4798  0.4617
27885SOL     OW89491  10.560   2.536   3.104  0.0111  0.4341  0.5141
27885SOL    HW189492  10.497   2.513   3.037 -0.5596  0.3528  1.0667
27885SOL    HW289493  10.562   2.459   3.162  0.7769  0.3461  0.3887
27886SOL     OW89494   5.433   3.773  10.608  0.1771  0.7814 -0.1064
27886SOL    HW189495   5.456   3.690  10.567  2.2996  1.4270 -0.3373
27886SOL    HW289496   5.425   3.752  10.701 -3.3013 -0.4091 -0.5442
27887SOL     OW89497   3.316  12.268   2.966  0.2100  0.0623 -0.1560
27887SOL    HW189498   3.286  12.184   2.931  2.0462 -0.3517 -0.8573
27887SOL    HW289499   3.295  12.264   3.059  2.4434 -2.3052  0.3761
27888SOL     OW89500   3.193   0.648   4.697  0.1701 -0.2812 -0.3982
27888SOL    HW189501   3.219   0.700   4.621 -0.1095 -1.1296 -1.0970
27888SOL    HW289502   3.221   0.559   4.675  0.0496 -0.5440  0.4822
27889SOL     OW89503  10.752  10.981  11.866  0.3775 -0.4863 -0.2677
27889SOL    HW189504  10.778  10.919  11.935 -0.1230 -0.0675  0.3134
27889SOL    HW289505  10.816  11.053  11.873 -0.9572  0.6243  1.2747
27890SOL     OW89506   6.763   9.977   9.521 -0.4134 -0.4780 -1.0429
27890SOL    HW189507   6.702   9.966   9.594 -0.2055 -0.1452 -0.8111
27890SOL    HW289508   6.744  10.065   9.488  0.3989 -0.0909 -0.5227
27891SOL     OW89509   5.696   1.642   7.407 -0.1209 -0.7202  0.1034
27891SOL    HW189510   5.776   1.591   7.416 -0.2818 -0.9314  0.3533
27891SOL    HW289511   5.653   1.606   7.330  0.9529  0.6689 -1.2016
27892SOL     OW89512   7.681   4.385   5.960  0.2535 -0.8412 -0.1202
27892SOL    HW189513   7.703   4.365   6.051  0.4299 -0.9724 -0.1933
27892SOL    HW289514   7.694   4.480   5.952 -0.7908 -0.6426  0.2868
27893SOL     OW89515   3.436   0.302  10.833  0.1366 -0.0519  0.3253
27893SOL    HW189516   3.479   0.354  10.764  2.1930 -1.5026  0.4173
27893SOL    HW289517   3.373   0.248  10.785 -1.2517  1.6694  0.1058
27894SOL     OW89518   2.941   3.276  10.228  0.2508 -0.0788 -0.3644
27894SOL    HW189519   2.912   3.302  10.141  1.0714  0.9984 -0.3301
27894SOL    HW289520   3.026   3.234  10.213  0.2979 -0.0770 -0.1035
27895SOL     OW89521   2.916   5.543  10.306  0.2934  0.3306  0.2956
27895SOL    HW189522   2.866   5.583  10.234  0.3713  0.4668  0.3157
27895SOL    HW289523   2.853   5.534  10.377 -0.1062 -0.9548 -0.1920
27896SOL     OW89524   0.135   5.454   1.068  0.1897  0.3050  0.4935
27896SOL    HW189525   0.227   5.433   1.082 -0.7542 -3.1114  2.8200
27896SOL    HW289526   0.107   5.396   0.998 -0.4515  0.4741  0.6027
27897SOL     OW89527   8.318  11.446   2.104  0.3752 -0.3638 -0.2082
27897SOL    HW189528   8.244  11.384   2.100 -0.6201  0.8227 -0.8952
27897SOL    HW289529   8.277  11.532   2.101  1.7308  0.3501  0.8325
27898SOL     OW89530   8.635   4.419   9.225 -0.1716 -0.2523  0.7928
27898SOL    HW189531   8.723   4.383   9.236 -0.3135 -0.8706  0.0348
27898SOL    HW289532   8.649   4.510   9.201  0.2781 -0.4347  0.3391
27899SOL     OW89533   0.777   6.511   4.049  0.2498 -0.0941  1.0194
27899SOL    HW189534   0.687   6.529   4.074 -0.4639 -1.1938 -0.5931
27899SOL    HW289535   0.771   6.441   3.984  2.0918  1.3093 -0.8045
27900SOL     OW89536   2.787   3.500   3.977  1.1704  0.1919  0.0752
27900SOL    HW189537   2.809   3.585   4.014  3.9227 -0.3987 -0.0108
27900SOL    HW289538   2.821   3.436   4.040 -1.4035 -0.9192  0.4581
27901SOL     OW89539   4.943   8.957   9.725 -0.7578  0.5200  0.6346
27901SOL    HW189540   4.849   8.973   9.717 -0.7548  0.9468  1.4304
27901SOL    HW289541   4.974   9.020   9.790  0.4744  1.8539 -1.1240
27902SOL     OW89542   2.614  10.709  10.051 -0.0785 -0.2885  0.5315
27902SOL    HW189543   2.674  10.756  10.108  0.9942 -1.1518  0.1582
27902SOL    HW289544   2.628  10.746   9.964 -1.9077  1.2157  0.8157
27903SOL     OW89545   2.630   8.774   0.842 -0.3723  0.1320  0.0997
27903SOL    HW189546   2.643   8.755   0.935 -0.4812  0.6665  0.2271
27903SOL    HW289547   2.536   8.763   0.828 -0.3505  0.0165  0.0452
27904SOL     OW89548   6.264   7.919   9.227  0.0873 -0.4218 -0.5657
27904SOL    HW189549   6.334   7.881   9.282 -1.4590 -1.3179  0.8946
27904SOL    HW289550   6.192   7.933   9.288 -0.1283  3.1602 -1.4501
27905SOL     OW89551  11.738  11.508  12.088  0.5877 -0.0923 -0.4922
27905SOL    HW189552  11.656  11.544  12.054  0.2803  0.9811  1.2183
27905SOL    HW289553  11.800  11.518  12.016 -0.5417 -0.0309 -1.4908
27906SOL     OW89554   0.062   6.642   1.193 -1.2218  0.0888 -0.1820
27906SOL    HW189555   0.060   6.730   1.157  1.0613  0.5476  0.6008
27906SOL    HW289556   0.037   6.585   1.120  0.7874  1.1609 -1.8298
27907SOL     OW89557   9.825   8.733  11.829  0.1047 -0.2127  0.1337
27907SOL    HW189558   9.884   8.772  11.894  0.7596  0.0308 -0.5915
27907SOL    HW289559   9.880   8.716  11.753 -0.8459  0.5099 -0.7666
27908SOL     OW89560   8.210   4.297  12.046 -0.0303 -0.4794 -0.1294
27908SOL    HW189561   8.204   4.319  12.139  2.2815 -1.8442  0.4386
27908SOL    HW289562   8.141   4.348  12.005 -1.4584 -0.2063  2.3862
27909SOL     OW89563   9.760   0.460   2.299  0.1678  0.3178 -0.0038
27909SOL    HW189564   9.690   0.414   2.346 -0.2682 -0.0063 -0.9516
27909SOL    HW289565   9.784   0.401   2.229  2.0758  0.0106  0.8573
27910SOL     OW89566   7.031  10.998   4.220 -0.2163 -0.5100  0.0263
27910SOL    HW189567   7.110  10.994   4.167 -1.0665  1.4731 -1.5238
27910SOL    HW289568   6.963  11.027   4.160 -2.0104 -1.4961  1.4655
27911SOL     OW89569   2.387   3.586   4.334 -0.0405 -0.2845  0.7160
27911SOL    HW189570   2.370   3.678   4.352 -0.3721 -0.6168  2.2595
27911SOL    HW289571   2.365   3.541   4.415  2.2318 -1.4760  0.7624
27912SOL     OW89572   8.025   9.430  11.643 -0.1584  0.5238  0.1213
27912SOL    HW189573   8.100   9.480  11.673  0.1034 -0.1171  0.5437
27912SOL    HW289574   7.950   9.489  11.654 -0.1353  0.2088  2.3720
27913SOL     OW89575   4.801  11.738   7.365  0.3182 -0.1037 -0.0613
27913SOL    HW189576   4.885  11.696   7.386 -0.2770  0.1262  3.5229
27913SOL    HW289577   4.820  11.832   7.366  0.2824 -0.0893 -0.6875
27914SOL     OW89578   2.492   0.513   9.975 -1.1370  0.2107 -0.4999
27914SOL    HW189579   2.540   0.486  10.053 -3.0038  0.0378  0.6547
27914SOL    HW289580   2.559   0.529   9.909  0.4685 -0.0170  1.0251
27915SOL     OW89581   6.646   2.437  10.246  0.1458  0.3169  0.3667
27915SOL    HW189582   6.661   2.516  10.298 -1.5524  0.4797  0.6462
27915SOL    HW289583   6.727   2.426  10.195  1.1079  1.1987  1.6546
27916SOL     OW89584   5.114   3.018   8.790 -0.0835  0.5265 -0.0886
27916SOL    HW189585   5.179   3.021   8.719 -0.6288 -0.6556 -0.6743
27916SOL    HW289586   5.161   3.048   8.867  2.2453 -3.3608  0.2624
27917SOL     OW89587   3.689   8.014   4.225 -0.0158 -0.4832 -0.2334
27917SOL    HW189588   3.632   7.945   4.192  0.4283 -0.7921 -0.3570
27917SOL    HW289589   3.660   8.028   4.315  1.0912 -2.1450  0.4248
27918SOL     OW89590   9.697  10.274   3.753  0.0381  0.1565  0.3806
27918SOL    HW189591   9.662  10.234   3.833  2.0902  0.7829  1.6612
27918SOL    HW289592   9.630  10.257   3.686 -0.7924 -2.2287  1.7084
27919SOL     OW89593   4.801   2.627   7.741  0.4125  0.1061 -0.4066
27919SOL    HW189594   4.838   2.540   7.722 -0.9671 -0.6063  0.0228
27919SOL    HW289595   4.877   2.680   7.766  1.0983 -1.4637  1.0729
27920SOL     OW89596   5.423   6.327   8.584 -0.0232  0.0858  0.0685
27920SOL    HW189597   5.401   6.409   8.628 -3.0656  0.1771 -1.3763
27920SOL    HW289598   5.497   6.292   8.634 -1.4160  1.5492  3.4427
27921SOL     OW89599   4.890  12.095   0.906 -0.4306 -0.0351  0.2263
27921SOL    HW189600   4.949  12.057   0.842 -1.7918  0.2801 -1.2807
27921SOL    HW289601   4.898  12.038   0.983  0.2888 -1.1787 -0.6700
27922SOL     OW89602   7.120   7.573   1.149 -0.0888  0.6519 -0.6882
27922SOL    HW189603   7.108   7.575   1.054 -2.1520 -0.8718 -0.5234
27922SOL    HW289604   7.032   7.585   1.185  0.8363  2.7295  1.1264
27923SOL     OW89605  11.491   9.357   8.431 -0.0627  0.2188 -0.3599
27923SOL    HW189606  11.442   9.435   8.454 -2.0318 -1.0916  0.1818
27923SOL    HW289607  11.547   9.341   8.508 -1.9281 -0.5569  0.9281
27924SOL     OW89608  10.251   0.696   9.274 -0.6601 -0.1025  0.2602
27924SOL    HW189609  10.342   0.667   9.277 -0.9695 -1.0267  1.5942
27924SOL    HW289610  10.253   0.777   9.223  1.0375  0.3283  0.9616
27925SOL     OW89611   7.113   1.693   5.353  0.0988 -0.0560 -0.1542
27925SOL    HW189612   7.059   1.772   5.352  1.0217  0.6032 -0.8201
27925SOL    HW289613   7.051   1.621   5.349 -0.8895  0.5216  2.5119
27926SOL     OW89614   9.146   5.711   8.451  0.2585  0.1941 -0.2226
27926SOL    HW189615   9.173   5.801   8.428 -0.2497  0.1400 -1.0640
27926SOL    HW289616   9.073   5.692   8.392 -0.2538 -0.4362  0.5957
27927SOL     OW89617   6.874   3.746  10.098 -0.1899 -0.7234  0.0229
27927SOL    HW189618   6.903   3.823  10.048 -0.5287 -0.1608  0.6859
27927SOL    HW289619   6.884   3.673  10.036  0.8960 -0.2766 -0.3647
27928SOL     OW89620   1.282  10.428   3.446  0.2617 -0.2200  0.3473
27928SOL    HW189621   1.194  10.411   3.481  0.6670  0.8208  1.9580
27928SOL    HW289622   1.281  10.389   3.358 -1.3398 -1.4604  0.8855
27929SOL     OW89623   5.321   9.461   8.346  0.0677 -0.3908  0.1194
27929SOL    HW189624   5.254   9.425   8.288  0.9859 -2.4638  0.2450
27929SOL    HW289625   5.305   9.555   8.347 -1.5603 -0.6105 -1.4454
27930SOL     OW89626  11.899   4.564   1.301  0.3509 -0.3728  0.4233
27930SOL    HW189627  11.989   4.591   1.318  0.0493  0.3697  0.8944
27930SOL    HW289628  11.868   4.625   1.234 -0.0217 -0.1663  0.7761
27931SOL     OW89629   8.271  11.856   7.214  0.1164  0.0123  0.4210
27931SOL    HW189630   8.191  11.824   7.172  0.1843  0.3832 -0.0003
27931SOL    HW289631   8.334  11.785   7.201  0.5184  0.6382 -1.2636
27932SOL     OW89632  10.373   0.239   0.738  0.0075 -0.0235 -0.1549
27932SOL    HW189633  10.324   0.284   0.806  1.5236 -0.0058  0.9806
27932SOL    HW289634  10.332   0.266   0.656  0.2723  2.6760  0.5310
27933SOL     OW89635   7.820   6.777   4.301  0.2782 -0.4722 -0.2494
27933SOL    HW189636   7.861   6.794   4.385  1.7584 -0.0108 -1.0368
27933SOL    HW289637   7.879   6.815   4.236 -1.4976  0.4116 -1.4406
27934SOL     OW89638  11.456   0.248   6.794 -0.1250  0.1529  0.5284
27934SOL    HW189639  11.423   0.334   6.769 -1.1024 -0.3190  0.1225
27934SOL    HW289640  11.481   0.206   6.711  1.7356  0.5612  0.8338
27935SOL     OW89641   5.553   8.987   2.924 -0.4635 -0.2219 -0.5140
27935SOL    HW189642   5.560   8.922   2.855 -0.6319 -0.1690 -0.5820
27935SOL    HW289643   5.477   9.041   2.899  0.2337  0.5780 -0.9368
27936SOL     OW89644   3.072   7.243   9.376 -0.1191  0.2547  0.1206
27936SOL    HW189645   3.041   7.311   9.436 -0.4458 -0.3481  0.6486
27936SOL    HW289646   3.166   7.256   9.370  0.1244 -0.5158  1.8572
27937SOL     OW89647   1.286   4.789   4.764  0.0081  0.0385  0.5443
27937SOL    HW189648   1.314   4.840   4.688  0.8764  0.0603  0.8649
27937SOL    HW289649   1.344   4.712   4.763 -0.0831 -0.0387  1.0921
27938SOL     OW89650  10.663   7.062   1.898 -0.9965 -0.3552 -0.2328
27938SOL    HW189651  10.614   6.990   1.937 -1.2184 -0.1788 -0.1785
27938SOL    HW289652  10.627   7.141   1.940 -0.5085 -0.2396 -0.0296
27939SOL     OW89653   7.391   6.249   4.588  0.2672 -0.6491  0.1586
27939SOL    HW189654   7.400   6.204   4.504  1.1806  0.6856 -0.5091
27939SOL    HW289655   7.297   6.247   4.606 -0.0839 -0.1246 -1.3979
27940SOL     OW89656   8.590   6.331   6.625 -0.0937  0.4638  0.6340
27940SOL    HW189657   8.638   6.257   6.588  2.0917  1.9213  0.3445
27940SOL    HW289658   8.617   6.333   6.717  0.7702  1.5141  0.3833
27941SOL     OW89659   2.284   6.824   1.474  0.0474 -0.1153  0.2745
27941SOL    HW189660   2.297   6.820   1.380 -1.3696  0.3023  0.0349
27941SOL    HW289661   2.370   6.848   1.510  0.5179  0.0377 -0.9288
27942SOL     OW89662   1.230   9.033   5.302  0.2890 -0.0490 -0.6626
27942SOL    HW189663   1.166   9.104   5.293 -0.2995 -0.6002 -0.9778
27942SOL    HW289664   1.283   9.057   5.377  0.0495  0.6851 -0.7204
27943SOL     OW89665  11.585  12.245   9.321 -0.1038  0.1478  0.2582
27943SOL    HW189666  11.507  12.213   9.366  0.2632 -1.2700 -0.0331
27943SOL    HW289667  11.558  12.326   9.278 -1.4854 -0.4349 -0.0200
27944SOL     OW89668   9.195  11.192   6.464 -0.0146 -0.1968 -0.1705
27944SOL    HW189669   9.130  11.127   6.435 -1.1178  0.7135  0.1607
27944SOL    HW289670   9.181  11.198   6.559  1.7802 -1.2610  0.1979
27945SOL     OW89671   5.719  10.617   9.763  0.3477 -0.1515  0.3034
27945SOL    HW189672   5.785  10.562   9.721 -0.3665 -0.3144 -0.6461
27945SOL    HW289673   5.740  10.613   9.856  1.8289  0.0152  0.0033
27946SOL     OW89674   1.307   8.379  10.109 -0.7980  0.4652 -1.0690
27946SOL    HW189675   1.368   8.312  10.078  0.7724  1.7155 -0.7933
27946SOL    HW289676   1.357   8.460  10.108 -2.0076  1.3030  0.5671
27947SOL     OW89677   4.608  12.210   8.739  0.1372  0.6230  0.2531
27947SOL    HW189678   4.569  12.134   8.695  0.3205  1.0662 -0.7192
27947SOL    HW289679   4.693  12.221   8.696  0.8647  0.3513  1.5707
27948SOL     OW89680  10.722   3.138   2.489 -0.1408 -0.1940 -0.5390
27948SOL    HW189681  10.665   3.062   2.492 -2.2648  1.3348 -0.1906
27948SOL    HW289682  10.810   3.102   2.472 -0.4198 -3.0046  3.0252
27949SOL     OW89683   7.937   4.622   0.170 -0.1708 -0.0646  0.1554
27949SOL    HW189684   7.889   4.702   0.149  0.6167  0.8927  1.7287
27949SOL    HW289685   7.886   4.581   0.239 -0.0277 -0.3611  0.0855
27950SOL     OW89686   7.882   2.812   4.391  0.4020  0.0776  0.1694
27950SOL    HW189687   7.837   2.753   4.330  0.4890  0.6412 -0.4470
27950SOL    HW289688   7.811   2.859   4.435  0.3348 -0.4233  0.6120
27951SOL     OW89689   4.050   0.983   0.192 -0.7087 -0.6631 -0.0917
27951SOL    HW189690   4.043   1.073   0.225 -1.0425 -1.0303  0.8647
27951SOL    HW289691   4.010   0.929   0.260 -1.5526 -1.4393 -1.1575
27952SOL     OW89692   5.137   7.296  12.277 -0.4637 -0.1381 -0.1707
27952SOL    HW189693   5.168   7.206  12.262  1.6502  0.7015 -1.1650
27952SOL    HW289694   5.092   7.319  12.196 -0.9843 -0.2548  0.0752
27953SOL     OW89695   9.879   7.948   7.664 -0.4336  0.1647 -0.2341
27953SOL    HW189696   9.814   7.958   7.594 -0.1505  0.7482 -0.4276
27953SOL    HW289697   9.909   8.038   7.681  0.4114 -0.1094 -0.2430
27954SOL     OW89698   2.211   1.004  12.127  0.2558 -0.0585 -0.0960
27954SOL    HW189699   2.202   0.980  12.220  0.0312 -0.5734 -0.2495
27954SOL    HW289700   2.300   1.041  12.121  0.6696 -0.9958  0.1120
27955SOL     OW89701   4.639   7.774   4.288  0.1649  0.1358  0.7468
27955SOL    HW189702   4.607   7.863   4.303  1.5390  0.6156  0.9519
27955SOL    HW289703   4.715   7.785   4.231 -0.6740 -1.0709 -0.7008
27956SOL     OW89704   4.602   3.771  10.789 -0.4228  0.0352  0.0713
27956SOL    HW189705   4.587   3.865  10.777  0.3852  0.0893 -0.5945
27956SOL    HW289706   4.517   3.731  10.769 -0.6829  0.5978  0.0129
27957SOL     OW89707   9.170  11.816   1.538  0.6425 -0.4645  0.1919
27957SOL    HW189708   9.107  11.827   1.610  1.4781  1.1882  0.7238
27957SOL    HW289709   9.255  11.817   1.581  1.1270  0.0118 -0.7656
27958SOL     OW89710   3.598   0.035  12.189 -0.1742  0.1017  0.0298
27958SOL    HW189711   3.572   0.098  12.122  0.5341  0.5731  0.1830
27958SOL    HW289712   3.643   0.088  12.255 -0.3848 -0.4356  0.6110
27959SOL     OW89713   6.238   3.103   8.003  0.0285  0.1115  0.0912
27959SOL    HW189714   6.321   3.082   7.961 -0.0676 -0.4815  0.1869
27959SOL    HW289715   6.197   3.018   8.020  0.4238  0.2851  2.1454
27960SOL     OW89716   7.576   0.202   4.674 -0.1145  0.5396  0.3767
27960SOL    HW189717   7.512   0.257   4.719 -1.1391 -0.3603  0.0572
27960SOL    HW289718   7.554   0.212   4.581  1.0132  1.1939  0.1646
27961SOL     OW89719  11.391  12.315  10.865  0.1295 -0.1808 -0.0158
27961SOL    HW189720  11.482  12.319  10.897 -0.1909  0.7571  0.8065
27961SOL    HW289721  11.378  12.398  10.819  0.1754 -0.9840 -1.5431
27962SOL     OW89722   9.451   4.426   4.072  0.5482 -0.2410 -0.4852
27962SOL    HW189723   9.531   4.396   4.028  0.7405  0.4368 -0.5992
27962SOL    HW289724   9.380   4.384   4.023  0.6498  1.9617 -2.6696
27963SOL     OW89725   5.958  11.772   3.565 -0.4528 -0.8218 -0.2703
27963SOL    HW189726   5.893  11.708   3.593 -0.8714  0.2100  1.2367
27963SOL    HW289727   5.909  11.833   3.510 -0.9499  0.2679  1.3075
27964SOL     OW89728   9.331   8.344   7.401  0.2262  0.0470  0.2359
27964SOL    HW189729   9.286   8.427   7.419 -0.9294 -0.6772  0.8608
27964SOL    HW289730   9.422   8.368   7.389 -0.3768  1.6600 -1.5962
27965SOL     OW89731   3.170  10.725   1.907  0.0981 -0.0051  0.5496
27965SOL    HW189732   3.234  10.743   1.838  0.3466  0.3278  0.8639
27965SOL    HW289733   3.092  10.694   1.861  0.3644 -0.0682  0.1409
27966SOL     OW89734   9.426   2.909   4.992  0.4132  0.4839  0.6960
27966SOL    HW189735   9.336   2.936   4.977  0.4485 -0.5753 -1.9970
27966SOL    HW289736   9.479   2.980   4.954  0.6483  0.0127  0.1334
27967SOL     OW89737  11.537   8.011   1.065  0.2244  0.3575  0.1705
27967SOL    HW189738  11.500   7.997   1.152 -0.5824 -0.4536 -0.2836
27967SOL    HW289739  11.540   7.923   1.026 -0.9817  0.8911 -1.2256
27968SOL     OW89740   0.255   8.736   8.637  0.2610 -0.1208 -0.3556
27968SOL    HW189741   0.298   8.803   8.690 -0.7959  0.3629 -0.0764
27968SOL    HW289742   0.217   8.784   8.564 -1.1524 -0.2860  0.2454
27969SOL     OW89743   6.641   2.974   5.091  0.3584 -0.2669 -0.1651
27969SOL    HW189744   6.629   3.025   5.171 -0.1152 -0.4123 -0.1367
27969SOL    HW289745   6.574   3.008   5.031 -1.4459 -2.2554  0.5666
27970SOL     OW89746   2.767  10.792   3.533  0.2094  0.1365  0.5181
27970SOL    HW189747   2.842  10.800   3.591  1.0753 -0.7124 -0.4519
27970SOL    HW289748   2.738  10.701   3.543 -0.7428  0.4723  0.9352
27971SOL     OW89749   2.481  10.271   7.653 -0.2116 -0.8055 -0.2689
27971SOL    HW189750   2.543  10.313   7.713 -0.7045 -0.1329 -0.2280
27971SOL    HW289751   2.503  10.178   7.658  1.6949 -0.4560 -1.2989
27972SOL     OW89752   2.164   9.997   0.004 -0.0093  0.0730 -0.0995
27972SOL    HW189753   2.189   9.948   0.083  0.3642  1.3189  0.5930
27972SOL    HW289754   2.116   9.935  -0.049  1.1112 -1.2545  0.3902
27973SOL     OW89755   4.929   5.192   9.168 -0.2360 -0.1502  0.4697
27973SOL    HW189756   4.920   5.192   9.263 -0.3829  0.7198  0.4685
27973SOL    HW289757   4.976   5.111   9.147 -0.1967 -0.3368  1.2800
27974SOL     OW89758   8.223   2.279   2.771 -0.4715  0.2629 -0.4293
27974SOL    HW189759   8.213   2.305   2.679  0.2112 -2.1407 -1.2576
27974SOL    HW289760   8.145   2.228   2.791 -0.1520 -0.0678  0.0020
27975SOL     OW89761  10.672   7.280   8.706 -0.4291 -0.2335  0.3777
27975SOL    HW189762  10.615   7.207   8.732 -1.8196  0.7329  0.1891
27975SOL    HW289763  10.616   7.333   8.649  0.6534  0.8181  0.2720
27976SOL     OW89764   4.126   6.742  10.488 -0.6288  0.5713  0.4891
27976SOL    HW189765   4.040   6.704  10.470 -0.3874  0.6960 -1.0636
27976SOL    HW289766   4.181   6.667  10.513 -0.8122  0.2788  0.0163
27977SOL     OW89767   7.067   1.452  11.123  0.4034 -0.4112 -0.1735
27977SOL    HW189768   7.140   1.395  11.147 -1.0950 -2.8407 -1.0186
27977SOL    HW289769   6.997   1.427  11.183 -0.2848  0.6152 -0.5317
27978SOL     OW89770   1.249   4.296   0.552  0.3665  0.2136  0.5325
27978SOL    HW189771   1.246   4.295   0.456  0.0107  1.1559  0.5236
27978SOL    HW289772   1.317   4.360   0.574  1.8918 -1.4742  0.9232
27979SOL     OW89773   1.200  11.469   0.683 -0.5631 -0.3266  0.3166
27979SOL    HW189774   1.220  11.402   0.749 -0.1702  0.4086  0.9702
27979SOL    HW289775   1.186  11.548   0.734  0.6172  0.4666 -0.5297
27980SOL     OW89776   3.839   8.620   0.968 -1.1202  0.5050 -0.2838
27980SOL    HW189777   3.777   8.683   1.005 -1.0940  0.1464  0.3985
27980SOL    HW289778   3.900   8.603   1.040 -0.5802  0.4023 -0.7577
27981SOL     OW89779  10.141   7.418   2.734  0.8473  0.2116 -0.1438
27981SOL    HW189780  10.069   7.454   2.788  0.7581  0.1306 -0.2096
27981SOL    HW289781  10.138   7.471   2.654 -1.5329 -2.1495 -1.7750
27982SOL     OW89782   3.454   6.650   5.703  0.3102  0.1313 -0.1062
27982SOL    HW189783   3.403   6.579   5.742 -0.8806  0.4532 -1.0450
27982SOL    HW289784   3.399   6.685   5.634  1.7143  0.6611 -1.0029
27983SOL     OW89785   5.693   3.403   4.714 -0.6964  0.2119  0.3474
27983SOL    HW189786   5.659   3.480   4.668 -0.2494  1.0500  1.3902
27983SOL    HW289787   5.785   3.424   4.730 -0.5849 -0.5182  0.6863
27984SOL     OW89788   9.057  11.991   7.260  0.0238 -0.4142  0.9631
27984SOL    HW189789   9.073  11.965   7.169  0.4088  0.1822  0.8482
27984SOL    HW289790   8.962  11.993   7.268 -0.0415  0.7675  0.1851
27985SOL     OW89791   3.908   9.455   7.322  0.5820 -0.0878 -0.1918
27985SOL    HW189792   3.947   9.541   7.339 -0.6652  0.2079  1.4374
27985SOL    HW289793   3.819   9.463   7.355  0.4091 -1.9789 -0.1261
27986SOL     OW89794   0.473   6.082   6.843  0.2954 -0.1789  0.0435
27986SOL    HW189795   0.476   6.083   6.939 -0.8038  0.0932  0.0843
27986SOL    HW289796   0.490   6.172   6.817  1.0231 -0.3327 -0.0481
27987SOL     OW89797  12.162   8.804   0.569  0.1475  0.5191 -0.1714
27987SOL    HW189798  12.097   8.736   0.585  0.4051  0.5343  1.0041
27987SOL    HW289799  12.185   8.793   0.476  0.2270 -1.0451 -0.0025
27988SOL     OW89800   8.415   8.843  11.248 -0.5580  0.2267  0.5539
27988SOL    HW189801   8.455   8.881  11.170  1.0580  0.2755  1.3772
27988SOL    HW289802   8.478   8.858  11.318 -1.2385 -1.2517  1.5506
27989SOL     OW89803  12.191   0.211   6.081  0.3072 -0.1134  0.2300
27989SOL    HW189804  12.096   0.217   6.087  0.4451  1.0616  2.1066
27989SOL    HW289805  12.215   0.137   6.137  0.6122  1.0095  1.6339
27990SOL     OW89806   7.226   9.617  11.428 -0.5880  0.3932 -0.5564
27990SOL    HW189807   7.177   9.583  11.503  0.1799  0.4161 -0.0310
27990SOL    HW289808   7.175   9.693  11.399 -0.3174  1.0815  0.6672
27991SOL     OW89809   8.755   5.494   3.326  0.3527 -0.2113 -0.4386
27991SOL    HW189810   8.788   5.562   3.268  0.0502  0.1853 -0.1544
27991SOL    HW289811   8.796   5.413   3.296 -0.2419 -0.1104 -1.5690
27992SOL     OW89812   4.161   1.576   6.946 -0.7495  0.1374 -0.0635
27992SOL    HW189813   4.104   1.531   7.008  0.1652  0.7316  1.2375
27992SOL    HW289814   4.241   1.525   6.944 -1.5128 -1.1479 -2.4894
27993SOL     OW89815   9.327  11.781  11.975  0.1219 -0.4473 -0.1184
27993SOL    HW189816   9.280  11.861  11.999 -1.2681 -0.7475 -1.6847
27993SOL    HW289817   9.263  11.711  11.987  0.6973 -1.0743 -0.6608
27994SOL     OW89818   2.491   0.362   2.934  0.4205 -0.2527 -0.0032
27994SOL    HW189819   2.466   0.414   3.011  0.4103 -0.1259 -0.0924
27994SOL    HW289820   2.474   0.272   2.961  0.7061 -0.2322  0.2524
27995SOL     OW89821   4.752   8.175   2.057  0.6813  0.2562 -0.1907
27995SOL    HW189822   4.753   8.093   2.008 -2.6939 -0.1430  0.1874
27995SOL    HW289823   4.689   8.230   2.011 -1.2598  0.5102  2.5058
27996SOL     OW89824   3.298  12.078   3.187 -0.4152  0.6262  0.2160
27996SOL    HW189825   3.359  12.007   3.168 -1.6350 -0.0130 -1.4755
27996SOL    HW289826   3.233  12.039   3.247 -0.5374  0.5996  0.0662
27997SOL     OW89827  10.844   2.447   3.018  0.0581 -0.0202 -0.1038
27997SOL    HW189828  10.847   2.460   2.923  2.5513  1.0384  0.0410
27997SOL    HW289829  10.757   2.477   3.044 -0.8112 -0.6924 -2.0746
27998SOL     OW89830   9.944   2.180   0.436  0.2720 -0.3687 -0.1436
27998SOL    HW189831   9.866   2.184   0.380 -0.5659 -1.4787  0.8754
27998SOL    HW289832   9.945   2.264   0.482 -0.8686 -0.6686  0.4825
27999SOL     OW89833   9.517   3.003   8.794  0.4531  0.4978  0.4086
27999SOL    HW189834   9.593   3.037   8.748  1.0213 -0.4630  0.6213
27999SOL    HW289835   9.503   2.916   8.757 -0.2876  0.4921  0.6764
28000SOL     OW89836   8.090   3.447  10.809  0.0531  0.0262 -0.5689
28000SOL    HW189837   7.996   3.426  10.807  0.3760 -1.4273 -2.1534
28000SOL    HW289838   8.123   3.395  10.883 -0.0475 -1.1584 -1.3254
28001SOL     OW89839   7.286   4.404   4.973 -0.0514 -0.4932 -0.6350
28001SOL    HW189840   7.319   4.462   5.042 -3.1343  0.3071  0.2954
28001SOL    HW289841   7.364   4.357   4.943  1.9658  1.5478  1.0421
28002SOL     OW89842   8.457   1.674   3.341 -0.3888 -0.5019  0.1041
28002SOL    HW189843   8.368   1.709   3.349 -1.0402 -2.2248  0.8933
28002SOL    HW289844   8.462   1.643   3.251 -0.9544 -1.2655  0.3206
28003SOL     OW89845   9.899   1.872   9.432  0.2011  0.1286 -0.1913
28003SOL    HW189846   9.846   1.869   9.512  0.4188  1.6481  0.0518
28003SOL    HW289847   9.989   1.858   9.462  0.1813 -0.2412 -0.3022
28004SOL     OW89848  10.267   0.455  10.182 -0.1721  0.4993  0.3076
28004SOL    HW189849  10.237   0.443  10.272  0.1476  0.0746  0.3581
28004SOL    HW289850  10.332   0.386  10.169 -0.6247  0.2022 -0.4341
28005SOL     OW89851   3.590  10.034   3.891 -0.5708  0.0648 -0.4346
28005SOL    HW189852   3.501  10.032   3.854 -0.5295  0.2132 -0.5420
28005SOL    HW289853   3.631   9.953   3.859 -0.3135  0.5130 -1.2654
28006SOL     OW89854   7.780  10.074   2.715 -0.4531 -0.2159  0.3779
28006SOL    HW189855   7.873  10.062   2.735  0.2731  2.1191 -1.1670
28006SOL    HW289856   7.772  10.050   2.622 -1.0392  1.0215  0.0822
28007SOL     OW89857   0.572   8.004   1.484 -0.0112 -0.4632 -0.3035
28007SOL    HW189858   0.625   7.925   1.485 -1.6611 -1.6300 -0.5479
28007SOL    HW289859   0.628   8.070   1.443  1.8467 -1.1326  1.0153
28008SOL     OW89860   7.841   5.219   2.613  0.1210  0.1707 -0.0100
28008SOL    HW189861   7.910   5.260   2.560  0.8824  1.0835  1.6211
28008SOL    HW289862   7.772   5.198   2.550  0.8551  1.4974 -1.3167
28009SOL     OW89863  10.722   9.645   0.484 -0.1243 -0.0947 -0.1715
28009SOL    HW189864  10.768   9.715   0.531 -1.9092  0.6420  0.5633
28009SOL    HW289865  10.792   9.593   0.445  1.3080  1.2913  0.4203
28010SOL     OW89866   6.756   6.555   1.750 -0.4056  0.3683  0.3528
28010SOL    HW189867   6.704   6.577   1.827 -0.7197  0.2803  0.1664
28010SOL    HW289868   6.759   6.459   1.750  0.3410  0.3879  0.7520
28011SOL     OW89869   0.013   1.636   6.443  0.2807  0.0676 -0.2301
28011SOL    HW189870   0.093   1.629   6.494 -0.5870  1.4481  1.4179
28011SOL    HW289871  -0.052   1.587   6.493 -0.3876  0.7016 -0.4515
28012SOL     OW89872   2.936   4.809   3.575  0.4030  0.6113 -0.1912
28012SOL    HW189873   3.014   4.825   3.521  0.3372 -0.1566 -0.5329
28012SOL    HW289874   2.865   4.796   3.511 -0.1970  2.1667  0.1239
28013SOL     OW89875   1.640   0.557   6.381  0.4092  0.7861  0.1357
28013SOL    HW189876   1.709   0.549   6.447 -1.3407  0.3318  2.0323
28013SOL    HW289877   1.585   0.629   6.412 -0.5469  0.4700 -0.7556
28014SOL     OW89878  11.130  11.980  10.550  0.4835 -0.2757 -0.1172
28014SOL    HW189879  11.107  11.951  10.638 -0.1419 -1.2548 -0.5781
28014SOL    HW289880  11.130  11.899  10.498  3.4865 -0.1618 -0.4856
28015SOL     OW89881   6.764   5.604   2.892  0.4495  0.2349 -0.3471
28015SOL    HW189882   6.831   5.672   2.894 -0.9086  1.6616 -0.8771
28015SOL    HW289883   6.777   5.555   2.973  2.3913  0.1613 -0.6571
28016SOL     OW89884   6.594   5.884   3.898  0.1137 -0.5460 -0.5655
28016SOL    HW189885   6.540   5.891   3.978  0.8763  0.7615 -0.1343
28016SOL    HW289886   6.678   5.852   3.929  0.4950  0.2078 -0.7926
28017SOL     OW89887   4.985   5.388   4.150  0.2163  0.1174  0.1134
28017SOL    HW189888   4.916   5.438   4.195 -0.7857 -1.2114  0.1423
28017SOL    HW289889   5.038   5.352   4.221 -0.1014 -0.2432  0.1774
28018SOL     OW89890   9.439   6.081   6.043  0.1372  0.0489 -0.0752
28018SOL    HW189891   9.471   6.110   5.957  0.5495  0.7703  0.3111
28018SOL    HW289892   9.348   6.108   6.045  0.0313 -0.2818 -0.4226
28019SOL     OW89893   4.707   9.319   7.603  0.8883  0.4654 -0.7216
28019SOL    HW189894   4.757   9.400   7.598  0.3420  0.7912 -1.1170
28019SOL    HW289895   4.637   9.338   7.665  0.8679  0.2347 -0.6730
28020SOL     OW89896   0.181   6.757   6.160 -0.7750  0.0482 -0.2076
28020SOL    HW189897   0.190   6.849   6.134  0.8334 -0.2207 -0.7010
28020SOL    HW289898   0.243   6.747   6.233 -1.5023 -0.4633  0.3482
28021SOL     OW89899   4.774  11.190  10.262  0.0827 -0.0592  0.1001
28021SOL    HW189900   4.825  11.124  10.214  1.0275  0.1044  0.8463
28021SOL    HW289901   4.751  11.255  10.195  1.0863 -0.0068 -0.2155
28022SOL     OW89902   3.310   3.868  10.437  0.2110  0.5900  0.5660
28022SOL    HW189903   3.338   3.780  10.411 -0.4571  0.3339  0.6912
28022SOL    HW289904   3.327   3.923  10.361 -0.2537  0.1622  0.1501
28023SOL     OW89905   9.905   1.671   7.801  0.3022 -0.3347 -0.4418
28023SOL    HW189906   9.860   1.731   7.861 -0.0919  0.9654 -1.9708
28023SOL    HW289907   9.992   1.711   7.789  1.1126 -1.6296  0.7176
28024SOL     OW89908   4.365   8.587   3.134  0.0135 -0.6334  0.3195
28024SOL    HW189909   4.368   8.667   3.187 -1.0737 -1.3523  1.4938
28024SOL    HW289910   4.456   8.573   3.107  0.5038  0.0348  1.5546
28025SOL     OW89911   7.312   2.507   5.449 -0.1412 -0.0682  0.2556
28025SOL    HW189912   7.331   2.418   5.418 -0.8955 -0.9018  2.0145
28025SOL    HW289913   7.338   2.506   5.542 -2.0629  0.8836  0.8581
28026SOL     OW89914   2.181   5.027   3.890 -0.6271  0.5641  0.2506
28026SOL    HW189915   2.219   5.045   3.976 -0.4114  0.8330  0.1041
28026SOL    HW289916   2.115   5.095   3.879  1.4246  2.4992 -1.0711
28027SOL     OW89917  11.736   6.643   1.088 -0.0290 -0.2575  0.1771
28027SOL    HW189918  11.783   6.612   1.010 -0.5412 -0.5510 -0.0188
28027SOL    HW289919  11.763   6.583   1.158 -0.6366 -0.8417 -0.0889
28028SOL     OW89920   1.289   8.133  10.423 -0.0602  0.0722  0.3728
28028SOL    HW189921   1.306   8.060  10.364 -0.0140 -0.7837  1.4137
28028SOL    HW289922   1.374   8.152  10.463 -0.1374  0.4915  0.3418
28029SOL     OW89923   7.138  11.238   8.731  0.1292 -0.0613  0.0569
28029SOL    HW189924   7.220  11.273   8.697  0.9600 -0.6142  1.3921
28029SOL    HW289925   7.090  11.208   8.654  1.9488 -1.3497 -0.6402
28030SOL     OW89926   1.761   2.358   7.037 -0.2465  0.3789  0.2913
28030SOL    HW189927   1.839   2.339   6.984  0.0330 -0.3554  0.9473
28030SOL    HW289928   1.753   2.453   7.034  0.3595  0.4235 -0.2272
28031SOL     OW89929   1.769   1.442   3.262 -0.9481 -0.5030 -0.4396
28031SOL    HW189930   1.801   1.530   3.242 -0.8235 -0.7392 -1.3607
28031SOL    HW289931   1.794   1.427   3.353  0.7515 -0.3143 -0.8337
28032SOL     OW89932   7.843   9.017   0.504  0.3548 -0.1538  0.4344
28032SOL    HW189933   7.823   8.990   0.593  0.6224 -2.4955 -0.1376
28032SOL    HW289934   7.922   8.967   0.481 -0.2213 -0.3073 -1.3999
28033SOL     OW89935   8.944   8.785   3.589  0.1529  0.3763 -0.3367
28033SOL    HW189936   8.880   8.743   3.647  0.2055  0.1000 -0.4758
28033SOL    HW289937   9.028   8.751   3.621  0.2225  0.6709 -0.2091
28034SOL     OW89938   7.684   7.122   9.377  0.7476 -0.5847  0.1615
28034SOL    HW189939   7.778   7.120   9.392  0.7613 -1.0525  0.0312
28034SOL    HW289940   7.668   7.210   9.341  0.9910 -0.1768  1.0189
28035SOL     OW89941   1.536  10.954  10.941  0.0950 -0.6338  0.5599
28035SOL    HW189942   1.611  11.003  10.974 -0.8132 -0.9357  3.3179
28035SOL    HW289943   1.542  10.869  10.984 -1.3770 -0.9622  0.1761
28036SOL     OW89944   3.338   7.520   0.722 -0.1917  0.1370 -0.5923
28036SOL    HW189945   3.286   7.441   0.705  1.1401 -0.7343 -0.8406
28036SOL    HW289946   3.424   7.486   0.747  0.2173  1.5220 -0.0302
28037SOL     OW89947  12.225   1.729   7.768 -0.3102 -0.4895  0.3071
28037SOL    HW189948  12.267   1.650   7.734  0.1546  0.1710 -0.7022
28037SOL    HW289949  12.157   1.696   7.827  2.3532 -1.6044  3.0024
28038SOL     OW89950   6.472   0.074   4.129 -0.0267  0.1208  0.1269
28038SOL    HW189951   6.449   0.165   4.150 -1.8643 -0.3844  0.4809
28038SOL    HW289952   6.399   0.043   4.075  1.8067 -0.3963 -2.2122
28039SOL     OW89953   6.264   7.037   3.490 -0.7678 -0.0927 -0.2138
28039SOL    HW189954   6.347   7.020   3.446 -0.0269 -0.4652  1.2574
28039SOL    HW289955   6.276   7.001   3.578 -2.5881 -0.3823 -0.0544
28040SOL     OW89956   4.476   4.381   2.274 -0.3542  0.2559  1.2332
28040SOL    HW189957   4.411   4.426   2.328  0.0195  1.1269  0.9886
28040SOL    HW289958   4.461   4.415   2.186 -1.6233 -1.8915  0.5440
28041SOL     OW89959   2.812   5.287   8.938 -0.0601 -0.7350 -0.7716
28041SOL    HW189960   2.832   5.261   9.028  0.5436  2.2100  0.0620
28041SOL    HW289961   2.897   5.294   8.895 -0.1418  0.1942 -0.8102
28042SOL     OW89962  12.045   5.550  10.555 -0.3260  0.0958  0.3411
28042SOL    HW189963  12.137   5.527  10.559 -0.3550 -0.0580  0.1162
28042SOL    HW289964  12.001   5.473  10.519 -0.5273  0.2053  0.3447
28043SOL     OW89965   4.095   4.125   0.086  0.1585  0.2950  0.3001
28043SOL    HW189966   4.131   4.064   0.021 -1.1544 -1.1949  0.9076
28043SOL    HW289967   4.074   4.204   0.036  1.0872 -0.0560 -0.6822
28044SOL     OW89968   9.726   4.033   5.902  0.0767  0.2545  0.6165
28044SOL    HW189969   9.675   4.080   5.968  0.3204  0.0508  0.9503
28044SOL    HW289970   9.802   4.000   5.950  0.4403  0.4174  0.1555
28045SOL     OW89971   0.756   2.557  10.596 -0.6000  0.5525 -0.2981
28045SOL    HW189972   0.689   2.609  10.554  1.0489  4.7826  1.7483
28045SOL    HW289973   0.757   2.586  10.687  1.8931 -1.6210  0.5286
28046SOL     OW89974   1.693   1.498  11.042 -0.2516  0.2266  0.1787
28046SOL    HW189975   1.777   1.450  11.047 -0.9627 -1.0499  0.4500
28046SOL    HW289976   1.703   1.569  11.104  0.6581  0.1192  0.1744
28047SOL     OW89977   2.954   6.500   7.537  0.4641 -0.2273 -0.7031
28047SOL    HW189978   2.888   6.493   7.468  1.5847  0.1482 -1.8503
28047SOL    HW289979   3.038   6.495   7.491  1.2623  1.5514  0.4459
28048SOL     OW89980   5.412   8.830   8.235 -0.0908  0.3942 -0.0441
28048SOL    HW189981   5.443   8.896   8.296 -1.9234  0.9790  0.3293
28048SOL    HW289982   5.336   8.791   8.279  0.2536 -1.1566 -0.7510
28049SOL     OW89983   9.840   5.253   6.781 -0.4292  0.1939  0.7693
28049SOL    HW189984   9.881   5.251   6.695  0.2010 -0.2366  1.0760
28049SOL    HW289985   9.911   5.235   6.842 -0.8139  0.7832  1.4021
28050SOL     OW89986  10.005   8.111  10.003  0.1354 -0.2719 -0.5534
28050SOL    HW189987  10.076   8.142   9.947 -0.7771 -0.0935 -1.6317
28050SOL    HW289988   9.948   8.061   9.945 -1.0835  0.3216  0.0976
28051SOL     OW89989   9.150  11.503   8.101 -0.4017 -0.0006  0.0188
28051SOL    HW189990   9.198  11.423   8.080 -0.4509 -0.4879  1.6427
28051SOL    HW289991   9.086  11.512   8.031  2.0813  0.7341 -2.3002
28052SOL     OW89992   5.208   8.060   3.024  0.2683 -0.2920 -0.1310
28052SOL    HW189993   5.161   7.982   2.995 -0.9694  0.1656  0.5409
28052SOL    HW289994   5.258   8.032   3.100 -0.4423 -0.3607  0.3159
28053SOL     OW89995  11.261  10.752   7.734 -0.0460  0.2153  0.4746
28053SOL    HW189996  11.280  10.692   7.806  2.3709  1.4890  1.0120
28053SOL    HW289997  11.221  10.828   7.776  0.4220  0.5412  0.3369
28054SOL     OW89998   1.250   8.083   6.973 -0.0997  0.2009  0.0564
28054SOL    HW189999   1.259   8.105   7.066  1.8089  0.5400 -0.1572
28054SOL    HW290000   1.290   8.157   6.927  1.2877 -1.0811 -0.9098
28055SOL     OW90001   0.437  10.339   5.800  0.1908  0.7479 -0.2734
28055SOL    HW190002   0.457  10.430   5.782 -0.4470  1.0004  0.2370
28055SOL    HW290003   0.354  10.342   5.849  1.1822  0.0364  1.5421
28056SOL     OW90004  10.660   4.627   4.934  0.3218 -0.1812 -0.1625
28056SOL    HW190005  10.668   4.582   4.850 -1.4542 -0.4934 -0.2084
28056SOL    HW290006  10.645   4.558   4.998 -0.1970  0.1698  0.1116
28057SOL     OW90007   2.765  10.931   8.453 -0.2034  0.4899 -0.3415
28057SOL    HW190008   2.737  11.021   8.434 -1.7617  0.8214  2.8521
28057SOL    HW290009   2.854  10.941   8.488 -1.2684  1.2291  2.4006
28058SOL     OW90010   1.370   0.390   9.848 -0.4536 -0.2978  0.1702
28058SOL    HW190011   1.307   0.452   9.811  0.0298  0.2049  0.1805
28058SOL    HW290012   1.399   0.338   9.773 -0.7124 -0.3873  0.1295
28059SOL     OW90013   9.911  12.167   8.716 -0.2127  0.3221 -0.1950
28059SOL    HW190014   9.931  12.131   8.803 -1.7762 -1.9235 -0.6780
28059SOL    HW290015   9.919  12.262   8.727  0.9670  0.0430  2.0201
28060SOL     OW90016   3.418   0.282   2.806  0.0533 -0.3062 -0.2033
28060SOL    HW190017   3.364   0.262   2.730  0.1329 -0.9477 -0.0992
28060SOL    HW290018   3.358   0.282   2.880  0.1994 -1.0949 -0.0770
28061SOL     OW90019   0.431   9.470   1.269 -0.2989  0.3580 -0.1460
28061SOL    HW190020   0.441   9.563   1.289 -0.0529  0.2663  0.1788
28061SOL    HW290021   0.418   9.428   1.354 -0.8298  0.1440 -0.3296
28062SOL     OW90022   8.229  11.688   2.660 -0.0799  0.4947  0.3537
28062SOL    HW190023   8.277  11.625   2.714  0.0319  0.5629  0.3336
28062SOL    HW290024   8.151  11.709   2.711  0.6588  1.5531  1.0755
28063SOL     OW90025  10.330  11.966  11.542  0.0545 -0.1303 -0.6330
28063SOL    HW190026  10.248  11.921  11.565  0.4031  0.2691  1.7371
28063SOL    HW290027  10.397  11.898  11.548  0.5574  0.4913  2.7837
28064SOL     OW90028   5.265  11.337   7.912 -0.2381  0.2829 -0.1123
28064SOL    HW190029   5.218  11.418   7.931 -0.6498 -0.0681  0.4044
28064SOL    HW290030   5.303  11.310   7.996  0.3480  0.2227 -0.3918
28065SOL     OW90031   8.800   9.947   7.335 -0.0245  0.2171 -0.0304
28065SOL    HW190032   8.784   9.891   7.411  0.3060  1.0894  0.6980
28065SOL    HW290033   8.894   9.940   7.318 -0.3827 -1.5110 -1.6140
28066SOL     OW90034   0.006   0.891  10.077 -0.1001 -0.4498 -0.3916
28066SOL    HW190035   0.060   0.869  10.001  0.0569 -0.2118 -0.3530
28066SOL    HW290036   0.025   0.984  10.093 -0.6735 -0.3115 -0.4997
28067SOL     OW90037   1.562  10.915   9.038 -0.1286  0.1610 -0.0298
28067SOL    HW190038   1.504  10.988   9.059 -2.2413 -0.6480 -2.5263
28067SOL    HW290039   1.556  10.857   9.114 -0.4162  1.3418  0.8854
28068SOL     OW90040   5.482   9.045   8.054  0.2500 -0.0384  0.4839
28068SOL    HW190041   5.500   8.965   8.104  0.6530  1.0864  2.2750
28068SOL    HW290042   5.398   9.030   8.013  0.4048 -1.4520  0.6418
28069SOL     OW90043   1.880  12.243   9.632  0.2848 -0.3618  0.0956
28069SOL    HW190044   1.845  12.267   9.718 -0.8908  0.7472 -0.6547
28069SOL    HW290045   1.882  12.148   9.633  0.6389 -0.3630  1.4796
28070SOL     OW90046  11.467   0.372   8.705  0.2619  0.0191  0.3001
28070SOL    HW190047  11.384   0.372   8.656 -0.4970  0.5179  1.5436
28070SOL    HW290048  11.472   0.286   8.744  1.0851 -0.5348 -0.9547
28071SOL     OW90049   7.743   9.622   9.693  0.3285 -0.0109 -0.4117
28071SOL    HW190050   7.693   9.704   9.685  1.6541  0.8163 -0.4118
28071SOL    HW290051   7.711   9.583   9.774  1.1583  1.5717  0.7324
28072SOL     OW90052   6.643   4.226   3.948 -0.0359  0.5308  0.1543
28072SOL    HW190053   6.580   4.273   4.003 -1.5073  0.3694 -1.3123
28072SOL    HW290054   6.600   4.142   3.928  0.4310  0.5818 -1.2095
28073SOL     OW90055   1.115   8.115   3.452 -0.5166 -0.2851  0.0858
28073SOL    HW190056   1.082   8.132   3.540  0.4257 -0.1035  0.4139
28073SOL    HW290057   1.165   8.034   3.461  0.9686  0.6126  0.0901
28074SOL     OW90058   4.139   5.347   3.199  0.1817 -0.1180  0.1056
28074SOL    HW190059   4.084   5.417   3.165 -1.3267 -1.2561  0.1218
28074SOL    HW290060   4.228   5.381   3.191 -0.0460  0.0329 -4.3035
28075SOL     OW90061   7.639  11.413   5.433 -0.2186  0.1296 -0.0447
28075SOL    HW190062   7.583  11.395   5.509  0.2866  1.4099  0.6506
28075SOL    HW290063   7.686  11.331   5.419 -0.6843 -0.2850  0.7054
28076SOL     OW90064   5.056   5.122  10.131 -0.0732 -0.0785 -0.0121
28076SOL    HW190065   5.023   5.053  10.073 -2.0608  0.6752  0.1506
28076SOL    HW290066   5.146   5.137  10.101  0.2911 -2.4238 -0.3108
28077SOL     OW90067   1.560   7.141   3.100 -0.3152 -0.5470  0.1257
28077SOL    HW190068   1.568   7.064   3.044 -0.0428 -1.0729  0.8800
28077SOL    HW290069   1.515   7.205   3.045 -0.4777 -1.2106 -0.5347
28078SOL     OW90070   2.257   0.789   1.976  0.0847 -0.0111 -0.3898
28078SOL    HW190071   2.313   0.813   1.902 -1.1282  0.5033 -1.1659
28078SOL    HW290072   2.275   0.696   1.989  2.1599  0.4390  0.3171
28079SOL     OW90073   4.206   8.218   3.495 -0.1791 -0.9755  0.3563
28079SOL    HW190074   4.137   8.236   3.559  0.1817 -2.6086  1.2719
28079SOL    HW290075   4.276   8.177   3.547  0.0712 -2.4603 -1.0842
28080SOL     OW90076  10.128   1.325   7.373  0.1109  0.7245 -0.0859
28080SOL    HW190077  10.117   1.366   7.458 -0.1354 -0.9479  0.7288
28080SOL    HW290078  10.219   1.340   7.350 -0.0877  2.0965 -0.0438
28081SOL     OW90079  11.948   1.444   8.483 -0.3984 -0.5672  0.6460
28081SOL    HW190080  11.905   1.528   8.468  0.3550 -0.2015  0.4747
28081SOL    HW290081  12.028   1.466   8.532 -0.7818 -1.3080  1.6593
28082SOL     OW90082   6.431   7.833   0.827 -0.2486 -0.5174 -0.1283
28082SOL    HW190083   6.343   7.817   0.795  0.2153 -1.4045 -1.0471
28082SOL    HW290084   6.476   7.878   0.755  0.3313 -1.0218 -0.0969
28083SOL     OW90085   4.594   1.035  12.098 -0.6921 -0.0338 -0.3738
28083SOL    HW190086   4.586   1.040  12.003  0.4104 -0.7052 -0.5125
28083SOL    HW290087   4.505   1.017  12.128 -1.1851  0.8658 -1.2070
28084SOL     OW90088   2.842   4.771   4.670 -0.2066  0.0824  0.1296
28084SOL    HW190089   2.800   4.795   4.752 -0.2184  0.0062  0.1463
28084SOL    HW290090   2.786   4.702   4.633 -0.1225  0.0130  0.1294
28085SOL     OW90091   8.713   2.088  10.495  0.3863  0.1759 -0.5557
28085SOL    HW190092   8.678   2.081  10.406  1.4615  1.7161 -1.1539
28085SOL    HW290093   8.637   2.100  10.550 -0.1929  1.0119 -1.5066
28086SOL     OW90094   9.081   3.024   6.759 -0.1893 -0.4687 -0.0065
28086SOL    HW190095   8.998   3.009   6.803  0.5015 -0.8346  1.1911
28086SOL    HW290096   9.132   2.944   6.773  0.5078 -0.1160 -0.4264
28087SOL     OW90097   9.124   5.290   7.587  0.5509 -0.0354 -0.0291
28087SOL    HW190098   9.130   5.269   7.494 -0.1685 -2.4889  0.4156
28087SOL    HW290099   9.202   5.344   7.604  0.1535  1.3470 -2.2187
28088SOL     OW90100   3.003   4.043  10.309 -0.1429  0.3636 -0.3012
28088SOL    HW190101   3.071   4.002  10.256 -0.9404 -0.7560 -0.4951
28088SOL    HW290102   3.002   3.991  10.390  1.1739  2.1412  0.9531
28089SOL     OW90103  11.091   3.789   1.251 -0.2606 -0.1779 -0.1396
28089SOL    HW190104  11.103   3.710   1.305 -0.0328  0.6308  1.0411
28089SOL    HW290105  11.062   3.856   1.313 -1.4244  0.4360 -1.2850
28090SOL     OW90106   0.651   6.903   5.436 -0.1854 -0.6170  0.2418
28090SOL    HW190107   0.719   6.970   5.436 -0.6961 -0.0765  0.0434
28090SOL    HW290108   0.681   6.836   5.497 -0.0869  0.2487  1.1723
28091SOL     OW90109   2.770   9.699   9.812  0.3628  0.6228 -0.2690
28091SOL    HW190110   2.745   9.751   9.735 -0.9171  0.4316 -0.0066
28091SOL    HW290111   2.747   9.609   9.789 -0.2082  0.5891  0.4039
28092SOL     OW90112  10.671   6.865   5.288 -0.3540 -0.5448 -0.3509
28092SOL    HW190113  10.624   6.786   5.261  0.0140 -0.7273 -0.4666
28092SOL    HW290114  10.751   6.864   5.235  1.5558 -2.1609  2.3248
28093SOL     OW90115   5.600  11.295   3.223  0.5607  0.1243 -0.1879
28093SOL    HW190116   5.557  11.379   3.239  2.2394  1.3160 -1.6059
28093SOL    HW290117   5.531  11.239   3.186 -0.0243  1.6683 -1.5131
28094SOL     OW90118   3.313   9.420   6.366  0.0132  0.1014  0.2734
28094SOL    HW190119   3.310   9.337   6.319 -1.2595  0.2295  0.1129
28094SOL    HW290120   3.378   9.406   6.434  1.9537 -0.0819 -1.4931
28095SOL     OW90121   4.038  10.647   6.030 -0.0170 -0.2136 -0.6361
28095SOL    HW190122   4.127  10.612   6.037  0.0797  0.1735  0.1026
28095SOL    HW290123   3.986  10.593   6.090 -0.0280  0.3564 -0.1192
28096SOL     OW90124   3.448   8.918   6.776  0.1546  0.4276 -0.1526
28096SOL    HW190125   3.378   8.858   6.753  0.3559 -0.4151  1.2804
28096SOL    HW290126   3.526   8.883   6.732  0.1862 -0.1501  0.3472
28097SOL     OW90127   0.875  12.096   9.125 -0.4833  0.4156  0.1926
28097SOL    HW190128   0.908  12.125   9.210 -0.4714 -0.8348  0.6479
28097SOL    HW290129   0.938  12.131   9.062  0.3858  0.0724  0.8447
28098SOL     OW90130   0.652  11.111   3.293 -0.2997 -0.1346  0.5188
28098SOL    HW190131   0.592  11.155   3.354 -0.8537 -0.6513  0.3552
28098SOL    HW290132   0.732  11.097   3.345 -0.7572 -0.5481  1.1296
28099SOL     OW90133   6.730   1.199   7.350  0.1475  0.8812  0.0482
28099SOL    HW190134   6.728   1.295   7.353 -1.0977  0.8658  0.9592
28099SOL    HW290135   6.711   1.177   7.259  0.2943  1.5028 -0.1365
28100SOL     OW90136   3.481   8.209   5.157 -0.1526  0.5280 -0.0349
28100SOL    HW190137   3.575   8.213   5.175 -0.5802 -0.2759  2.7882
28100SOL    HW290138   3.450   8.298   5.172  0.1955  0.9647 -1.6561
28101SOL     OW90139   1.173   1.214   0.274  0.2381  0.7635  0.0044
28101SOL    HW190140   1.110   1.142   0.279  0.5181  0.5488  0.6535
28101SOL    HW290141   1.218   1.212   0.359  0.9723  1.0473 -0.3701
28102SOL     OW90142   3.528  10.510   8.353 -0.0487 -0.5161 -0.7341
28102SOL    HW190143   3.476  10.591   8.348 -1.5071 -1.3426  0.2244
28102SOL    HW290144   3.566  10.511   8.440  0.1733 -0.7149 -0.8301
28103SOL     OW90145   3.894  10.778   9.252  0.3101  0.0470  0.4629
28103SOL    HW190146   3.930  10.758   9.166  2.4425 -1.6031  1.6364
28103SOL    HW290147   3.930  10.864   9.273 -0.3044  0.5037 -0.3157
28104SOL     OW90148   4.202   9.093   7.496  0.2607  0.0255  0.3117
28104SOL    HW190149   4.127   9.100   7.556 -0.1159  0.0039 -0.1500
28104SOL    HW290150   4.223   9.183   7.474 -0.1613 -0.0036 -0.2109
28105SOL     OW90151   1.781   6.825   3.187 -0.0760  0.2091 -0.0110
28105SOL    HW190152   1.725   6.839   3.111 -0.9080  0.7364  0.6764
28105SOL    HW290153   1.796   6.913   3.223  3.5046  0.4716 -1.7140
28106SOL     OW90154   6.408  10.127   9.748 -0.4659  0.6648 -0.3472
28106SOL    HW190155   6.483  10.183   9.768 -1.2153  1.4413  0.3872
28106SOL    HW290156   6.376  10.158   9.664 -0.4501  0.8785 -0.2751
28107SOL     OW90157   5.430   6.068   1.741 -0.5415 -0.0886 -0.5736
28107SOL    HW190158   5.344   6.027   1.752 -1.0918  1.0407 -0.4379
28107SOL    HW290159   5.445   6.067   1.646 -1.1003  0.4504 -0.6764
28108SOL     OW90160   2.464   8.557   2.767  0.7274 -0.1938 -0.4167
28108SOL    HW190161   2.489   8.552   2.675 -0.1788 -0.3956 -0.6630
28108SOL    HW290162   2.494   8.643   2.795  1.7097 -0.4325 -0.6756
28109SOL     OW90163  10.548  10.009   0.506  0.2705 -0.6930  0.0461
28109SOL    HW190164  10.605  10.030   0.580  1.7119 -2.4257 -0.4748
28109SOL    HW290165  10.609   9.989   0.435 -1.0527 -0.6402 -1.1322
28110SOL     OW90166   0.873   4.220   7.709  0.0150  0.3941 -0.2368
28110SOL    HW190167   0.921   4.260   7.781  0.4209 -0.2792 -0.1235
28110SOL    HW290168   0.882   4.282   7.636  1.6190 -0.0061 -0.4169
28111SOL     OW90169   3.520   7.963   6.561 -0.0860  0.5488 -1.1577
28111SOL    HW190170   3.479   7.879   6.538 -2.1873  1.6309 -1.5276
28111SOL    HW290171   3.543   7.954   6.653 -0.7161 -0.2750 -1.0676
28112SOL     OW90172   7.238   5.926   4.555 -0.4433 -0.0335  0.4057
28112SOL    HW190173   7.302   5.989   4.521 -0.4383  0.2909  1.0093
28112SOL    HW290174   7.163   5.980   4.580 -0.3465 -0.2420  1.1533
28113SOL     OW90175   5.762   0.426   1.962 -0.3279  0.2599  0.1961
28113SOL    HW190176   5.813   0.506   1.969  0.4605 -0.1123 -0.9353
28113SOL    HW290177   5.677   0.448   2.000 -0.7188  2.1794 -1.6076
28114SOL     OW90178   8.483   4.762   6.337  0.2732  0.0313 -0.5992
28114SOL    HW190179   8.536   4.756   6.258 -0.0561 -0.1254 -0.8073
28114SOL    HW290180   8.428   4.839   6.324 -0.4947 -0.5706 -0.9606
28115SOL     OW90181   3.522   2.696   0.054 -0.0870 -1.0106  0.5537
28115SOL    HW190182   3.455   2.757   0.085 -0.1139 -1.2672  1.0088
28115SOL    HW290183   3.570   2.744  -0.013 -1.4255 -1.1656 -0.5816
28116SOL     OW90184   8.144   0.934   7.130 -0.3433 -0.2248 -0.1954
28116SOL    HW190185   8.158   0.842   7.106 -3.4872 -0.6161 -0.9712
28116SOL    HW290186   8.071   0.933   7.191 -0.0875  1.7399  0.2236
28117SOL     OW90187   7.384  10.112   6.010 -0.1846 -0.1454  0.2181
28117SOL    HW190188   7.359  10.021   6.023  1.2269 -0.4226  1.0871
28117SOL    HW290189   7.422  10.139   6.093  0.5701  0.8513 -0.4277
28118SOL     OW90190   0.865   5.109   5.010  0.1884 -0.1710 -0.5630
28118SOL    HW190191   0.955   5.086   5.035 -0.1702  1.9829  3.5413
28118SOL    HW290192   0.815   5.028   5.022  1.1601 -0.7448 -0.2639
28119SOL     OW90193   4.859   5.184   3.192 -0.0852 -0.2799  0.1847
28119SOL    HW190194   4.952   5.204   3.180 -0.2310  0.2809 -0.0634
28119SOL    HW290195   4.858   5.096   3.231  0.6208  0.5810  2.2913
28120SOL     OW90196   6.545   1.209   6.109  0.4208 -0.4545  0.0252
28120SOL    HW190197   6.610   1.249   6.167 -1.1361 -0.3067  1.7554
28120SOL    HW290198   6.582   1.124   6.086  0.6011 -1.0296  2.2391
28121SOL     OW90199  10.481  10.532   8.688 -0.2390 -0.0600  0.0588
28121SOL    HW190200  10.574  10.554   8.682 -0.4005  0.7537  0.4550
28121SOL    HW290201  10.440  10.610   8.725 -1.2867  0.0916 -1.3262
28122SOL     OW90202   1.363  11.102   9.507  0.2958  0.3195 -0.0546
28122SOL    HW190203   1.404  11.087   9.422  1.3985  0.6583  0.4077
28122SOL    HW290204   1.275  11.065   9.497  0.1948  0.8705 -1.5254
28123SOL     OW90205  10.599   9.245   1.906  0.5086 -0.7132 -0.5324
28123SOL    HW190206  10.532   9.178   1.921 -0.9391  0.9344  0.7243
28123SOL    HW290207  10.558   9.327   1.933  2.8500  0.4566 -0.2828
28124SOL     OW90208  11.645  10.535  10.232  0.1410  0.0128 -0.5135
28124SOL    HW190209  11.573  10.472  10.224 -0.5111  0.7031 -0.2169
28124SOL    HW290210  11.704  10.514  10.160 -0.4523 -0.4501 -0.8684
28125SOL     OW90211  10.780   4.336   6.838 -0.3618 -0.2112 -0.2602
28125SOL    HW190212  10.845   4.406   6.827  0.1065 -0.7241 -0.8626
28125SOL    HW290213  10.833   4.259   6.863 -0.7172 -0.6723 -0.9024
28126SOL     OW90214   2.806   4.214   5.743  0.0463 -0.5531  0.7690
28126SOL    HW190215   2.817   4.274   5.669  1.6392 -0.6127  0.9173
28126SOL    HW290216   2.746   4.147   5.710  0.0889 -0.1418 -0.2014
28127SOL     OW90217   6.031   2.967   5.890 -0.0613  0.3708  0.6327
28127SOL    HW190218   6.127   2.967   5.888 -0.0744 -0.2584 -1.0184
28127SOL    HW290219   6.008   3.050   5.932  1.1943  0.7078  0.6953
28128SOL     OW90220  11.066   0.008   6.772 -0.2963  0.5285 -0.0391
28128SOL    HW190221  11.069  -0.087   6.772  0.1328  0.5160 -1.4374
28128SOL    HW290222  11.099   0.033   6.685  2.7533  2.0498  1.3989
28129SOL     OW90223   0.256   2.818   8.009 -0.2679  0.1942 -0.3414
28129SOL    HW190224   0.211   2.845   7.929 -0.0375 -0.4542 -0.6966
28129SOL    HW290225   0.207   2.860   8.079  0.0270  1.4663 -0.8584
28130SOL     OW90226  10.080  11.503   1.874 -0.1155  0.6442 -0.2509
28130SOL    HW190227  10.046  11.422   1.836  0.1336  0.3588  0.1336
28130SOL    HW290228  10.025  11.519   1.951  0.9782 -0.1508  0.7308
28131SOL     OW90229  12.057   8.611   2.832  0.1486 -0.1723 -0.5989
28131SOL    HW190230  12.032   8.545   2.897  1.3351 -1.5605 -1.4956
28131SOL    HW290231  12.147   8.633   2.855  0.7157 -0.9741 -2.0000
28132SOL     OW90232   6.958   9.559   4.801 -0.3513  0.0722 -0.4155
28132SOL    HW190233   6.990   9.481   4.757  0.5888 -1.2798  2.4130
28132SOL    HW290234   7.032   9.590   4.853 -1.3248  1.6133  0.1565
28133SOL     OW90235   2.377   9.581   7.876  0.5563  0.6058 -0.3223
28133SOL    HW190236   2.384   9.513   7.810 -1.9231 -0.0845  0.0263
28133SOL    HW290237   2.386   9.535   7.960  0.0963  0.8862 -0.1119
28134SOL     OW90238   1.523   0.250  12.118 -0.0200  0.1972 -0.0630
28134SOL    HW190239   1.533   0.192  12.194  0.6777  0.3154 -0.0580
28134SOL    HW290240   1.587   0.319  12.133  0.4667 -0.0415 -1.0078
28135SOL     OW90241   5.568   8.117   5.713 -0.6049 -0.6015  0.3495
28135SOL    HW190242   5.481   8.146   5.686  0.2151  0.3613 -1.3883
28135SOL    HW290243   5.588   8.042   5.656  0.2787  0.0935 -0.2791
28136SOL     OW90244   4.464   8.667   1.925  0.5993  0.1830 -0.3584
28136SOL    HW190245   4.487   8.599   1.862 -2.5150 -1.6646  0.2898
28136SOL    HW290246   4.507   8.640   2.006  3.1902  1.6387 -1.1293
28137SOL     OW90247   0.948   0.219   5.840  0.1379 -0.0326 -0.6991
28137SOL    HW190248   0.973   0.129   5.864  0.1369  0.4749  1.3813
28137SOL    HW290249   0.858   0.227   5.870  1.0063  1.4918  1.7856
28138SOL     OW90250  11.312  11.585  10.073  0.1917 -0.1035 -0.4502
28138SOL    HW190251  11.294  11.501  10.030  1.1194 -0.4625 -0.1611
28138SOL    HW290252  11.263  11.649  10.021  0.4360 -0.6706 -1.4058
28139SOL     OW90253   8.154   7.589   1.887  0.2182 -0.4626  0.0175
28139SOL    HW190254   8.182   7.659   1.827 -0.6073  0.0780  0.2459
28139SOL    HW290255   8.229   7.529   1.890  1.4615  1.0575  0.8171
28140SOL     OW90256   4.351   5.021   3.247  0.2614 -0.3161  0.2362
28140SOL    HW190257   4.433   5.070   3.256  1.0685 -1.5003 -0.4704
28140SOL    HW290258   4.338   4.980   3.333  0.3422 -0.0527  0.3771
28141SOL     OW90259  11.040   8.082   0.710 -0.3900 -0.1288  0.3083
28141SOL    HW190260  11.016   8.097   0.802 -0.7208  0.5141  0.1238
28141SOL    HW290261  11.088   8.161   0.685 -2.7502  1.0295 -0.8818
28142SOL     OW90262   9.706   4.814   7.409  0.0241 -0.3442  0.1669
28142SOL    HW190263   9.708   4.778   7.320 -0.4112 -0.1906  0.0912
28142SOL    HW290264   9.788   4.785   7.448 -0.0094 -0.8424 -0.1178
28143SOL     OW90265   0.640   6.586   6.879  0.1165  0.0339 -0.1515
28143SOL    HW190266   0.579   6.548   6.943  0.1393 -1.5790 -1.0443
28143SOL    HW290267   0.584   6.639   6.822 -0.1935 -0.1188  0.0046
28144SOL     OW90268   4.617   5.675   8.935 -0.5945  0.2507  0.5975
28144SOL    HW190269   4.575   5.655   9.019 -0.0656  0.0520  0.8149
28144SOL    HW290270   4.552   5.650   8.870 -0.5861 -0.6238  0.9171
28145SOL     OW90271   0.454  10.763   7.130  0.1209 -0.3604  0.0273
28145SOL    HW190272   0.431  10.704   7.058 -1.0361  1.1525 -0.8806
28145SOL    HW290273   0.397  10.839   7.119  1.1056  0.6572  1.5588
28146SOL     OW90274   5.518   4.893   3.602  0.6023 -0.2126 -0.1795
28146SOL    HW190275   5.591   4.947   3.571 -1.0986  1.6141 -1.1991
28146SOL    HW290276   5.525   4.813   3.550  0.8432  0.7007 -1.6310
28147SOL     OW90277  11.390   7.111   5.384  0.5857  0.2221  0.7542
28147SOL    HW190278  11.378   7.019   5.405 -1.4871  0.7849  2.4438
28147SOL    HW290279  11.308   7.153   5.412  1.7070  2.6657  0.6649
28148SOL     OW90280   7.400   9.491   4.674  0.5149 -0.1941 -0.0120
28148SOL    HW190281   7.389   9.410   4.724 -0.6597  0.7877  1.4144
28148SOL    HW290282   7.365   9.470   4.587 -1.1724 -0.8361  0.7727
28149SOL     OW90283   5.071   2.448   6.019  0.4001 -0.4652 -0.3414
28149SOL    HW190284   5.158   2.471   5.987  0.8574 -2.1419 -0.4194
28149SOL    HW290285   5.042   2.378   5.961 -1.4784  0.7621 -0.9654
28150SOL     OW90286   5.949  11.968   7.473 -0.1309 -0.2259 -0.1929
28150SOL    HW190287   5.926  12.018   7.394 -0.2704  1.3856  0.8270
28150SOL    HW290288   5.904  12.014   7.544 -1.4659 -2.6682  0.6519
28151SOL     OW90289  10.552   7.267   5.472  0.1382 -0.0427 -0.4115
28151SOL    HW190290  10.502   7.307   5.542  1.5868  0.7340  0.2287
28151SOL    HW290291  10.604   7.339   5.436  1.1871 -0.9048 -0.6729
28152SOL     OW90292  10.402  10.307  11.655  0.5676 -0.0908  0.3350
28152SOL    HW190293  10.317  10.296  11.611 -0.1556 -0.8640  1.8441
28152SOL    HW290294  10.382  10.359  11.733  1.1179 -1.7649  1.6543
28153SOL     OW90295  12.193   6.981  10.689  0.1427  0.0885 -0.0390
28153SOL    HW190296  12.212   6.954  10.779  0.2122 -0.8474 -0.3183
28153SOL    HW290297  12.227   6.909  10.636 -2.3288 -0.6659 -0.6878
28154SOL     OW90298   1.588  11.837   1.607 -0.0477 -0.1422  0.5953
28154SOL    HW190299   1.517  11.901   1.602  1.0865  1.0799 -0.8971
28154SOL    HW290300   1.667  11.890   1.617  0.8793 -1.3217 -0.1702
28155SOL     OW90301   3.035   4.910   1.683  0.1584 -0.0655 -0.1759
28155SOL    HW190302   3.026   4.816   1.703  0.0589 -0.2519 -1.0533
28155SOL    HW290303   3.079   4.946   1.760 -1.4469 -0.4827  1.0085
28156SOL     OW90304   0.950   7.184   1.891  0.1030  0.4549  0.0068
28156SOL    HW190305   0.978   7.246   1.823  0.8866 -0.1923 -0.2705
28156SOL    HW290306   0.972   7.098   1.855  0.5344  0.1022  1.0828
28157SOL     OW90307   6.445   4.350   8.237 -0.0846  0.2998  0.6975
28157SOL    HW190308   6.534   4.349   8.201  0.4047 -1.3902  1.8420
28157SOL    HW290309   6.392   4.391   8.168  1.6457  1.8983  0.2277
28158SOL     OW90310   1.217   9.393   8.023 -0.1178  0.4148  0.5982
28158SOL    HW190311   1.268   9.423   7.948 -1.7929  0.8509 -0.4244
28158SOL    HW290312   1.131   9.372   7.986 -0.6188 -0.5333  2.2072
28159SOL     OW90313   2.159  10.804   3.859 -0.0036  0.4328  0.1799
28159SOL    HW190314   2.119  10.887   3.884 -1.1372  0.3598 -1.2638
28159SOL    HW290315   2.088  10.740   3.865  0.1559  0.0790 -1.3408
28160SOL     OW90316   6.992   3.217   0.526 -0.0243  0.0820  0.4005
28160SOL    HW190317   7.071   3.237   0.576 -0.4742  0.4091  0.9985
28160SOL    HW290318   6.976   3.296   0.474  0.6866 -0.4167 -0.6171
28161SOL     OW90319   2.592  10.491   6.621  0.8756 -0.0724 -0.2850
28161SOL    HW190320   2.505  10.458   6.642  0.4461  1.1389 -0.0630
28161SOL    HW290321   2.642  10.413   6.595 -0.4704 -0.6933 -1.1061
28162SOL     OW90322   5.098  11.717   0.862 -0.1146  0.4555  0.5190
28162SOL    HW190323   5.167  11.768   0.821  1.7278 -1.0486  1.5449
28162SOL    HW290324   5.059  11.776   0.927 -1.3321  2.0055 -1.4982
28163SOL     OW90325  10.276   4.194   5.325 -0.7328  0.0395  0.3727
28163SOL    HW190326  10.285   4.192   5.230 -0.8391 -1.2478  0.3750
28163SOL    HW290327  10.301   4.283   5.349  0.9661 -0.0888 -0.6995
28164SOL     OW90328   0.154   3.987   1.115  0.1461  0.3551 -0.1311
28164SOL    HW190329   0.081   3.926   1.104 -2.5515  3.2357  0.3017
28164SOL    HW290330   0.159   4.033   1.032 -0.8678  2.4301  0.8713
28165SOL     OW90331   7.099   4.141  11.987 -0.1906 -0.0916  1.1005
28165SOL    HW190332   7.009   4.159  12.013 -0.2984  0.4689  0.3353
28165SOL    HW290333   7.136   4.226  11.966  0.1689 -0.4370  0.2865
28166SOL     OW90334   4.229   2.418  10.910  0.4283  0.2528  0.3105
28166SOL    HW190335   4.264   2.428  10.821 -0.2033 -1.2984 -0.1546
28166SOL    HW290336   4.134   2.412  10.897  0.3259  0.1426  1.1033
28167SOL     OW90337  10.851   1.318   1.113  0.4006  0.0670  0.0317
28167SOL    HW190338  10.842   1.387   1.047  0.0101  0.8036  0.8295
28167SOL    HW290339  10.863   1.366   1.195 -0.5815 -0.7940  0.7018
28168SOL     OW90340   5.227   6.128  12.086 -0.5059 -0.3809  0.2048
28168SOL    HW190341   5.154   6.149  12.144 -0.7223  0.4003 -0.3324
28168SOL    HW290342   5.193   6.060  12.028  0.0492 -1.9742  1.6500
28169SOL     OW90343  11.324  10.401   6.709  1.0607 -0.2333  0.0334
28169SOL    HW190344  11.324  10.311   6.679  0.5747 -0.0654 -0.4769
28169SOL    HW290345  11.397  10.405   6.772  2.2177 -0.5449 -1.2381
28170SOL     OW90346   8.054   2.442   9.039  0.3307 -1.0635 -0.0669
28170SOL    HW190347   8.133   2.488   9.012 -0.6852  0.6419 -0.2352
28170SOL    HW290348   8.029   2.483   9.122  0.2582 -2.3955  0.5982
28171SOL     OW90349   7.092   3.848   1.634  0.6167  0.5784 -0.9900
28171SOL    HW190350   7.044   3.918   1.678  2.2766  0.3508  1.3731
28171SOL    HW290351   7.059   3.768   1.674  1.0883  0.2392 -1.2722
28172SOL     OW90352   7.063   2.159   9.107 -0.5802  0.1456 -0.1502
28172SOL    HW190353   7.083   2.126   9.020 -0.8134 -1.5791  0.4204
28172SOL    HW290354   6.992   2.223   9.093 -0.3784  0.1324 -1.2445
28173SOL     OW90355   8.017  10.958   8.422 -0.2794 -0.6961  0.2012
28173SOL    HW190356   8.101  10.913   8.413  1.8588  2.2718  2.8801
28173SOL    HW290357   8.028  11.039   8.371 -2.9196 -1.6919 -2.1825
28174SOL     OW90358   8.605   5.157   4.932 -0.0177  0.2224  0.4352
28174SOL    HW190359   8.560   5.152   5.017 -0.9686  1.9378  0.0730
28174SOL    HW290360   8.583   5.074   4.890  0.3230 -0.5885  1.7797
28175SOL     OW90361   8.731   5.289  12.160 -0.4247  0.2248  0.2469
28175SOL    HW190362   8.719   5.196  12.182  0.5183  0.4077  1.6432
28175SOL    HW290363   8.802   5.318  12.217 -0.5180  1.7467 -0.3761
28176SOL     OW90364   4.592   4.602   1.641  0.3972  0.3772 -1.0571
28176SOL    HW190365   4.507   4.567   1.615  1.2825 -0.3000 -3.2044
28176SOL    HW290366   4.576   4.696   1.654 -0.5699  0.3503 -1.9725
28177SOL     OW90367   1.605   1.285  11.382  0.3795  0.1553  0.6629
28177SOL    HW190368   1.630   1.213  11.325  0.3297  0.4024  0.3276
28177SOL    HW290369   1.622   1.253  11.470 -0.6914 -0.6733  0.5728
28178SOL     OW90370   8.595   1.352  11.173  0.2586  0.2061  0.0247
28178SOL    HW190371   8.527   1.302  11.218  0.7584  1.0674  1.8253
28178SOL    HW290372   8.676   1.330  11.220  0.4694  2.7276  0.9596
28179SOL     OW90373   1.564   7.657   9.583  0.5826  0.0062 -0.3431
28179SOL    HW190374   1.651   7.665   9.623 -0.6679  0.0284  2.5556
28179SOL    HW290375   1.560   7.729   9.520  1.9743  1.2103  0.8625
28180SOL     OW90376   7.682   5.377   6.232  0.3424  0.0456  0.2559
28180SOL    HW190377   7.759   5.391   6.286  0.5864  0.9120 -0.2942
28180SOL    HW290378   7.608   5.398   6.289  0.6512  4.0650 -0.4961
28181SOL     OW90379   2.529   5.934   1.165  0.0884 -0.3487 -0.0666
28181SOL    HW190380   2.456   5.995   1.163  1.0886  1.0526  2.1006
28181SOL    HW290381   2.499   5.862   1.221  0.2863  0.1673  0.7231
28182SOL     OW90382   2.051   8.502  11.718 -0.9145 -0.1098  0.2993
28182SOL    HW190383   2.000   8.483  11.797  0.4149  0.3424  1.3152
28182SOL    HW290384   2.079   8.593  11.730  2.1892 -1.0514  1.0571
28183SOL     OW90385   3.213  11.545   0.944  0.5677  0.0702 -0.2933
28183SOL    HW190386   3.167  11.487   1.005  0.0392  0.7173 -0.0717
28183SOL    HW290387   3.231  11.490   0.868 -1.8258  0.1467 -0.9810
28184SOL     OW90388   5.952   0.081  11.535 -0.2787  0.0550  0.0151
28184SOL    HW190389   5.967  -0.009  11.564 -0.4639  0.5109  1.6514
28184SOL    HW290390   6.000   0.135  11.598 -0.6914  1.1238 -0.5606
28185SOL     OW90391   3.787   7.774   0.100  0.2875  0.0737 -0.6343
28185SOL    HW190392   3.792   7.790   0.006  0.5697 -0.5756 -0.7320
28185SOL    HW290393   3.749   7.687   0.108  1.8002 -0.5755 -0.1960
28186SOL     OW90394   5.747   2.514   2.767 -0.4300  0.2496  0.4226
28186SOL    HW190395   5.725   2.425   2.739  1.7026  0.0766 -0.9604
28186SOL    HW290396   5.748   2.509   2.862 -0.2983 -1.2236  0.3770
28187SOL     OW90397   2.709  11.035   9.204 -0.0345 -0.3624  0.2592
28187SOL    HW190398   2.790  10.994   9.174  0.1937 -0.1427  0.5630
28187SOL    HW290399   2.681  11.090   9.131 -0.8001 -1.6877 -0.4895
28188SOL     OW90400   1.704   1.051  11.259  0.2037 -0.0031 -0.5079
28188SOL    HW190401   1.669   1.049  11.349  0.0017 -0.4027 -0.5949
28188SOL    HW290402   1.792   1.087  11.269  0.9678 -1.9129  0.1206
28189SOL     OW90403   2.324  10.872   8.631  0.4503  0.2784  0.1322
28189SOL    HW190404   2.326  10.862   8.726 -1.4074 -2.7796 -0.0463
28189SOL    HW290405   2.239  10.912   8.612  1.0605  1.4377 -0.2402
28190SOL     OW90406   3.311   3.673   5.321  0.3004  0.3838  0.1918
28190SOL    HW190407   3.378   3.639   5.261 -1.0662 -0.3704 -0.9687
28190SOL    HW290408   3.337   3.640   5.407 -0.2690 -2.7254 -0.6780
28191SOL     OW90409   2.975   7.300   9.648  0.2451  0.1906  0.2338
28191SOL    HW190410   3.069   7.298   9.666  0.1825 -0.5380  0.5402
28191SOL    HW290411   2.935   7.258   9.724 -0.1825 -1.1704 -0.6978
28192SOL     OW90412  11.640   5.480   5.551 -0.2492 -0.6669 -0.3281
28192SOL    HW190413  11.657   5.489   5.645 -1.7089 -0.2929 -0.0790
28192SOL    HW290414  11.706   5.535   5.509 -1.0729  1.0682  0.5911
28193SOL     OW90415  12.130   8.461   1.254 -1.1499  0.4753 -0.4971
28193SOL    HW190416  12.062   8.414   1.302 -0.4406 -0.2790 -0.2019
28193SOL    HW290417  12.193   8.393   1.228  1.0257  1.4291  1.8097
28194SOL     OW90418   7.435   9.750   0.664 -0.6683  0.1006 -0.0297
28194SOL    HW190419   7.508   9.690   0.679  0.6564  1.4961 -0.6194
28194SOL    HW290420   7.376   9.702   0.606 -0.6360 -1.3455  1.0872
28195SOL     OW90421   7.641   7.267   6.650 -0.1583 -0.0371  0.3400
28195SOL    HW190422   7.557   7.302   6.619 -1.0211 -4.4984 -3.2576
28195SOL    HW290423   7.617   7.197   6.710  0.7586 -2.1829 -1.6514
28196SOL     OW90424   9.018   5.567   2.202 -0.2222 -0.4839 -0.0249
28196SOL    HW190425   9.045   5.634   2.266  0.3992 -1.1135  0.3879
28196SOL    HW290426   8.924   5.580   2.192  0.1407  1.5733 -1.2671
28197SOL     OW90427   0.502  11.344   2.393  0.1723 -0.0088  0.2251
28197SOL    HW190428   0.561  11.273   2.367  0.2267  0.3164 -0.5775
28197SOL    HW290429   0.542  11.423   2.356 -0.3670  0.3166  0.3240
28198SOL     OW90430   0.183   7.399   9.209 -0.2391 -0.1351  0.2036
28198SOL    HW190431   0.216   7.440   9.288  1.7602  0.0511 -0.6585
28198SOL    HW290432   0.252   7.337   9.183 -2.0003 -2.1537  0.0199
28199SOL     OW90433   4.831   5.260   9.732 -0.1388  0.1303 -0.6351
28199SOL    HW190434   4.911   5.220   9.767  0.0818  0.3932 -0.8367
28199SOL    HW290435   4.833   5.242   9.639  0.8024  1.9934 -1.0305
28200SOL     OW90436   3.643   6.697   9.471 -0.0402 -0.0560  0.0242
28200SOL    HW190437   3.644   6.734   9.382  1.2798  0.0395  0.0697
28200SOL    HW290438   3.584   6.622   9.464  0.6741 -0.5370 -1.1469
28201SOL     OW90439   3.296  12.227   8.656  0.3388  0.4664  0.1318
28201SOL    HW190440   3.303  12.275   8.738 -1.3492 -0.1463  0.6874
28201SOL    HW290441   3.205  12.239   8.629 -0.1969 -2.3856  0.3395
28202SOL     OW90442   0.538   1.406   9.684  0.4107 -0.2385  0.5810
28202SOL    HW190443   0.579   1.327   9.719  0.0110 -1.5508 -1.7343
28202SOL    HW290444   0.444   1.389   9.690  0.3177 -0.9285 -1.8449
28203SOL     OW90445   0.419   7.291   1.753  0.2739  0.3225 -0.0790
28203SOL    HW190446   0.469   7.353   1.807 -1.3282  1.7101 -0.1014
28203SOL    HW290447   0.417   7.211   1.805  1.7812  0.4910  0.2907
28204SOL     OW90448   5.665   0.854   2.222  0.6766 -0.2438  0.2709
28204SOL    HW190449   5.680   0.898   2.139  2.3435 -1.0177  0.1053
28204SOL    HW290450   5.573   0.829   2.221  1.1145 -2.0268 -2.2412
28205SOL     OW90451   4.976   0.923   0.996  0.1591 -0.2483  0.2139
28205SOL    HW190452   4.898   0.972   0.969  0.8303  0.1558 -1.0567
28205SOL    HW290453   4.943   0.836   1.020 -0.8248  0.2852  0.8800
28206SOL     OW90454   7.869   5.087   5.032 -0.3754  0.8270  0.6343
28206SOL    HW190455   7.824   5.007   5.059 -0.4002  0.3665 -0.7393
28206SOL    HW290456   7.803   5.156   5.043 -0.4057  0.6503  1.6592
28207SOL     OW90457   9.200   4.115   0.193  0.4217 -0.1517 -0.2963
28207SOL    HW190458   9.124   4.131   0.249  1.1205  1.1621  0.3178
28207SOL    HW290459   9.217   4.200   0.152  0.9334 -0.6954 -1.2264
28208SOL     OW90460   9.002   9.934   8.607 -0.0395 -0.8450 -0.4579
28208SOL    HW190461   9.041   9.846   8.599 -0.5942 -0.9549 -2.4252
28208SOL    HW290462   8.961   9.934   8.693  1.4925 -1.8680  0.3346
28209SOL     OW90463   0.252  11.574   9.607  0.1445 -0.0857 -0.2318
28209SOL    HW190464   0.249  11.482   9.636 -1.9622  0.2939  0.9354
28209SOL    HW290465   0.296  11.570   9.522  0.6714 -2.0910  0.0703
28210SOL     OW90466   2.034   3.504   0.992 -0.2799  0.1889  0.2979
28210SOL    HW190467   2.031   3.593   1.026 -0.2276  0.2295  0.1979
28210SOL    HW290468   2.052   3.449   1.068  1.1692  0.4005  0.1485
28211SOL     OW90469   0.764   0.973   5.414 -0.0811 -0.1305 -1.0744
28211SOL    HW190470   0.784   0.882   5.396 -1.0141 -0.2685 -1.4947
28211SOL    HW290471   0.819   1.023   5.353  0.6497 -0.3903 -0.6366
28212SOL     OW90472   7.466   9.398  11.575 -0.5432  0.3384  0.0050
28212SOL    HW190473   7.431   9.411  11.487 -0.4051  0.9823  0.0425
28212SOL    HW290474   7.467   9.485  11.614 -1.6943 -0.1021  1.0680
28213SOL     OW90475   5.700   5.587   0.677  0.1498  0.2027  0.0316
28213SOL    HW190476   5.616   5.546   0.699  0.4969  0.1120  1.2642
28213SOL    HW290477   5.737   5.531   0.609  0.2949 -1.1370  1.1773
28214SOL     OW90478   6.491   5.451   5.012  0.3787  0.2532 -0.1177
28214SOL    HW190479   6.474   5.544   5.031 -0.2908  0.0515  0.3280
28214SOL    HW290480   6.404   5.411   5.010  0.5577 -0.1263 -1.6948
28215SOL     OW90481   1.417  12.285   0.260  0.3704 -0.3508  0.5960
28215SOL    HW190482   1.371  12.201   0.263 -1.1138  0.4446  2.3178
28215SOL    HW290483   1.449  12.292   0.170  1.4242 -3.1729  0.6738
28216SOL     OW90484   7.396   6.611   3.282 -0.3395  0.0807 -0.3255
28216SOL    HW190485   7.484   6.593   3.250 -0.0179  0.4242  0.3676
28216SOL    HW290486   7.408   6.662   3.362 -1.1793  0.7127 -0.5854
28217SOL     OW90487   0.919   4.337   3.694  0.1068  0.0264  0.0776
28217SOL    HW190488   0.913   4.277   3.620 -2.2343 -0.6232  0.7024
28217SOL    HW290489   0.903   4.423   3.657  0.4548 -0.1104 -0.3933
28218SOL     OW90490   8.232   1.129   0.315 -0.0850 -0.1959 -0.1387
28218SOL    HW190491   8.194   1.216   0.304  0.6218  0.1187 -0.1683
28218SOL    HW290492   8.326   1.144   0.313  0.0834 -0.6628  2.0513
28219SOL     OW90493   2.551   0.276   5.327  0.3909 -0.0423  0.0764
28219SOL    HW190494   2.641   0.243   5.332 -0.0464 -1.3656 -0.3924
28219SOL    HW290495   2.539   0.300   5.235 -0.7909 -3.1640 -0.7096
28220SOL     OW90496   9.834  12.110   5.551  0.2248  0.2243  0.4183
28220SOL    HW190497   9.896  12.063   5.495 -0.9029  0.4042 -1.0117
28220SOL    HW290498   9.813  12.047   5.621  0.8989 -0.3567  0.1090
28221SOL     OW90499  11.815   9.551   3.412 -0.0559  0.2341 -0.3719
28221SOL    HW190500  11.789   9.477   3.467  1.0703 -0.1885 -0.3652
28221SOL    HW290501  11.795   9.524   3.323 -0.2075  0.1621 -0.3154
28222SOL     OW90502   8.046   5.641   5.779  0.1125  1.0462  0.2251
28222SOL    HW190503   8.113   5.592   5.732  0.6640  2.4236 -0.4867
28222SOL    HW290504   8.095   5.702   5.835 -0.5474  0.9054  0.9880
28223SOL     OW90505   8.608   7.452   7.919  0.6276 -0.0414  0.1046
28223SOL    HW190506   8.530   7.402   7.942  0.0179  0.2182 -1.2845
28223SOL    HW290507   8.666   7.389   7.877  0.7681 -0.0375  0.2927
28224SOL     OW90508   9.908  11.241   3.516  0.1559 -0.2119 -0.3006
28224SOL    HW190509   9.976  11.248   3.448  1.1744  0.4792  0.7487
28224SOL    HW290510   9.932  11.307   3.581 -1.4786 -0.0290  0.1676
28225SOL     OW90511   2.159   1.366   0.416 -0.0007  0.4392  0.3216
28225SOL    HW190512   2.215   1.347   0.341 -0.5220  0.5016 -0.0878
28225SOL    HW290513   2.218   1.403   0.482  0.5260  0.0227  0.0879
28226SOL     OW90514  11.789   7.722  10.907 -0.6193  0.0359  0.3001
28226SOL    HW190515  11.782   7.807  10.950 -1.2822 -0.1402  0.5629
28226SOL    HW290516  11.787   7.742  10.813 -1.7227  0.2549  0.3583
28227SOL     OW90517  11.708   4.494   7.314 -0.0904 -0.6235  0.0457
28227SOL    HW190518  11.626   4.536   7.289  1.1160  1.5017 -0.6567
28227SOL    HW290519  11.730   4.438   7.239  0.8050  1.5566 -1.4302
28228SOL     OW90520   7.229   1.144   0.007 -0.1221 -0.2997 -0.2501
28228SOL    HW190521   7.282   1.224   0.015  0.9977 -1.1909  2.3931
28228SOL    HW290522   7.139   1.173   0.026  0.0504  0.5657 -0.7235
28229SOL     OW90523   3.289   2.060  11.976  0.7174 -0.1101  0.1537
28229SOL    HW190524   3.224   2.015  12.030  0.0690  1.3198  0.6217
28229SOL    HW290525   3.268   2.153  11.987  2.7014  0.3810  0.1185
28230SOL     OW90526   7.952  10.427   5.238  0.4425  0.3188  0.3354
28230SOL    HW190527   8.028  10.373   5.216  0.8605  0.5604  1.1069
28230SOL    HW290528   7.977  10.515   5.209 -0.5273 -0.0031 -1.5711
28231SOL     OW90529  12.016   9.399   2.559  0.4446  0.1036 -0.4596
28231SOL    HW190530  12.041   9.333   2.624  1.3079 -0.7603 -1.6241
28231SOL    HW290531  11.936   9.365   2.519  0.9499 -0.3230 -1.1358
28232SOL     OW90532   8.588   9.318   3.045  0.1619  0.8370 -0.4867
28232SOL    HW190533   8.566   9.338   2.954  1.2352 -0.9041 -1.1845
28232SOL    HW290534   8.674   9.276   3.039  0.2297  0.6702  1.3301
28233SOL     OW90535   7.637  10.103   1.765 -0.3301  0.5751  0.1092
28233SOL    HW190536   7.603  10.117   1.677  0.4924  1.5218 -0.0761
28233SOL    HW290537   7.732  10.110   1.756 -0.2159  0.3162  1.0081
28234SOL     OW90538  10.883   4.659   6.162  0.0986 -0.5190 -0.3507
28234SOL    HW190539  10.845   4.745   6.178 -1.7700 -1.5502  1.3861
28234SOL    HW290540  10.869   4.643   6.069  0.7432  1.1369 -0.7627
28235SOL     OW90541   1.052   6.127  12.195  0.2281 -0.3152 -0.2557
28235SOL    HW190542   1.043   6.127  12.291 -3.2442  0.7782 -0.4652
28235SOL    HW290543   0.984   6.067  12.164  0.6199  0.1204 -2.0774
28236SOL     OW90544   7.931   7.294   6.762 -0.4082 -0.0771  0.4429
28236SOL    HW190545   7.946   7.231   6.834  1.0330 -0.7701 -0.4094
28236SOL    HW290546   7.855   7.260   6.716 -0.5553 -0.3531  0.8797
28237SOL     OW90547   0.749   4.540   4.980 -0.6294  0.1494 -0.0009
28237SOL    HW190548   0.829   4.552   4.929 -0.5676  1.6244  0.3890
28237SOL    HW290549   0.752   4.448   5.008 -0.0164 -0.3229 -1.5177
28238SOL     OW90550  10.619   5.118  10.535  0.3158 -0.7472 -0.0086
28238SOL    HW190551  10.678   5.081  10.600  2.7353  2.5323 -0.1265
28238SOL    HW290552  10.663   5.103  10.451  0.9204  1.4456 -0.1318
28239SOL     OW90553   4.875   4.231   7.758  0.3094 -0.2871 -0.4112
28239SOL    HW190554   4.934   4.184   7.817  0.3018  0.4864  0.2345
28239SOL    HW290555   4.920   4.232   7.674  0.7066 -0.6758 -0.2035
28240SOL     OW90556  10.919   5.524  12.324 -0.2656 -0.6297 -0.0209
28240SOL    HW190557  10.999   5.535  12.273  1.0033  0.0444  2.0087
28240SOL    HW290558  10.948   5.498  12.411 -2.0566  1.6471  1.4097
28241SOL     OW90559   7.836   7.424   3.666  0.3988 -0.2931 -0.2895
28241SOL    HW190560   7.870   7.395   3.581  1.9746 -0.7348  0.4474
28241SOL    HW290561   7.892   7.499   3.689 -0.5584  0.3475 -0.0098
28242SOL     OW90562   2.193   0.611  11.047 -0.0891 -0.1312 -0.1279
28242SOL    HW190563   2.098   0.609  11.041 -0.1699  1.0961  0.4013
28242SOL    HW290564   2.221   0.661  10.969  0.1973 -1.2644 -0.7735
28243SOL     OW90565   9.761   9.586   1.165 -0.2337 -0.1362  0.1814
28243SOL    HW190566   9.730   9.622   1.082 -0.1300 -0.2187  0.1059
28243SOL    HW290567   9.681   9.572   1.216 -0.1888  1.2757  0.6629
28244SOL     OW90568   6.782   7.379   6.000  0.3729  0.4529  0.3938
28244SOL    HW190569   6.779   7.385   6.095 -1.2891  2.1192  0.2837
28244SOL    HW290570   6.868   7.342   5.981  1.1880  1.1420  2.4831
28245SOL     OW90571   2.851   5.726  11.090 -0.4405  0.0308  0.1433
28245SOL    HW190572   2.892   5.640  11.092 -1.3396 -0.3986  2.0830
28245SOL    HW290573   2.868   5.763  11.177 -0.7722  1.4774 -0.3718
28246SOL     OW90574   0.053   0.363   5.479  0.1150 -0.2083 -0.8377
28246SOL    HW190575  -0.025   0.420   5.482  1.2032  1.3063  0.7247
28246SOL    HW290576   0.025   0.282   5.523 -0.7596  0.0872 -0.8327
28247SOL     OW90577   2.258   6.056   1.714 -0.3540 -0.6235 -0.4094
28247SOL    HW190578   2.238   5.963   1.719 -0.5415 -0.5796 -0.2860
28247SOL    HW290579   2.353   6.062   1.723 -0.2862 -0.8405 -0.9866
28248SOL     OW90580   4.233  10.299   8.214  0.0053  0.1033 -0.0609
28248SOL    HW190581   4.292  10.272   8.284  0.2614 -0.1264 -0.3620
28248SOL    HW290582   4.262  10.387   8.190  0.9564 -0.4445 -0.9802
28249SOL     OW90583   3.090   8.858   0.400 -0.1632  0.1451 -0.6512
28249SOL    HW190584   3.091   8.764   0.380 -2.1521 -0.4835  1.7727
28249SOL    HW290585   3.101   8.900   0.315  0.9148 -2.2488 -1.8048
28250SOL     OW90586   5.820   2.811   9.606 -0.0373 -0.2260  0.4100
28250SOL    HW190587   5.798   2.857   9.525 -1.4586  0.5181  1.1802
28250SOL    HW290588   5.740   2.763   9.628 -0.3853  1.1755  2.4182
28251SOL     OW90589   4.938  11.200   1.009 -0.2347 -0.1357  0.3105
28251SOL    HW190590   4.956  11.290   1.036 -0.5482 -0.1902  0.7018
28251SOL    HW290591   4.852  11.205   0.967 -0.2624 -0.2556  0.3526
28252SOL     OW90592   1.785  10.852   2.927 -0.2041 -0.2613  0.2936
28252SOL    HW190593   1.767  10.765   2.961 -0.9500 -0.3899 -0.4126
28252SOL    HW290594   1.827  10.837   2.842  0.0996  0.0634  0.3830
28253SOL     OW90595   8.246   3.495   1.995 -0.5699  0.4661  0.6966
28253SOL    HW190596   8.328   3.481   2.041 -0.6007  0.5320  0.7714
28253SOL    HW290597   8.247   3.588   1.971  0.0689  0.1503 -0.6230
28254SOL     OW90598   2.748  12.096   4.437  0.3038  0.2412 -0.1015
28254SOL    HW190599   2.682  12.157   4.406  1.7764  0.8783 -2.1438
28254SOL    HW290600   2.698  12.017   4.460 -1.4294  1.5802  0.9985
28255SOL     OW90601   5.103  11.873  11.970  0.1298 -0.4309 -0.4098
28255SOL    HW190602   5.069  11.962  11.977  1.2864  0.0201 -0.2324
28255SOL    HW290603   5.196  11.884  11.949  0.1531 -1.6088 -1.0448
28256SOL     OW90604   8.366   7.998  10.307  0.1673 -0.2670 -0.0741
28256SOL    HW190605   8.443   7.962  10.350  1.2722  0.9849 -0.9085
28256SOL    HW290606   8.378   7.975  10.214 -0.7670 -0.5511 -0.1364
28257SOL     OW90607   1.662   2.402   3.171  0.2126  0.1040  0.4107
28257SOL    HW190608   1.757   2.391   3.166  0.1815  0.2193 -1.4048
28257SOL    HW290609   1.650   2.496   3.185  0.3356 -0.2604  3.8201
28258SOL     OW90610   8.394   5.910   1.009 -0.6906 -0.0511 -0.1166
28258SOL    HW190611   8.362   5.952   1.089  1.5830  2.2943 -0.3098
28258SOL    HW290612   8.478   5.872   1.034 -1.4531 -2.1974 -0.6535
28259SOL     OW90613   6.715   4.051   6.973 -0.0634 -0.3158 -0.0064
28259SOL    HW190614   6.693   3.964   7.007 -0.3035 -0.1115  0.3646
28259SOL    HW290615   6.675   4.053   6.886 -0.2228 -0.5059  0.0616
28260SOL     OW90616  10.790  11.951   2.078 -0.1966  0.7369  0.0671
28260SOL    HW190617  10.758  11.881   2.020  0.5724  1.3248 -1.1003
28260SOL    HW290618  10.884  11.956   2.061 -0.2512  2.1093  0.0611
28261SOL     OW90619   4.751  12.010   4.894 -0.3559  0.2947  0.4940
28261SOL    HW190620   4.759  12.101   4.923 -0.9924  0.7919 -0.8229
28261SOL    HW290621   4.841  11.983   4.875 -0.3494  1.4703 -1.4127
28262SOL     OW90622   5.726   7.564   1.673  0.1458 -0.3756  0.2373
28262SOL    HW190623   5.754   7.600   1.589 -0.5921 -0.0678  0.1135
28262SOL    HW290624   5.642   7.606   1.691  0.2208 -0.5489  1.0609
28263SOL     OW90625  11.876   8.538   7.946  0.2547 -0.0282 -0.3590
28263SOL    HW190626  11.812   8.470   7.922  0.9866 -0.5864 -0.7900
28263SOL    HW290627  11.948   8.525   7.885  0.4974  1.0293 -0.3188
28264SOL     OW90628   4.650   1.746   3.934 -0.0025  0.3383  0.8295
28264SOL    HW190629   4.692   1.832   3.936  1.3913 -0.2345 -1.2398
28264SOL    HW290630   4.556   1.765   3.927  0.3474  1.7213 -0.5292
28265SOL     OW90631   2.140   0.077   0.358 -0.2814  0.7003 -0.2252
28265SOL    HW190632   2.188   0.034   0.429  1.1310 -0.4185 -1.7730
28265SOL    HW290633   2.168   0.031   0.279 -3.6014  0.2959 -1.3219
28266SOL     OW90634   2.097   5.233   8.722 -0.3907 -0.1645 -0.5342
28266SOL    HW190635   2.071   5.263   8.809  2.0369  2.6712 -0.5982
28266SOL    HW290636   2.141   5.150   8.737 -2.5595 -1.2231  0.4629
28267SOL     OW90637   0.397   7.790   7.750 -0.2672  0.2594 -0.9365
28267SOL    HW190638   0.316   7.839   7.732 -0.9177 -0.6516 -0.5503
28267SOL    HW290639   0.387   7.759   7.840  1.3806  1.7482 -0.1920
28268SOL     OW90640   2.733   6.643   0.271  0.2922  0.3405  0.1382
28268SOL    HW190641   2.639   6.639   0.287 -0.1524  0.7898 -2.0848
28268SOL    HW290642   2.753   6.564   0.221  0.6096  1.3830 -1.4618
28269SOL     OW90643   5.325   3.898   3.967 -0.0370  0.9907  0.1811
28269SOL    HW190644   5.357   3.813   3.938  1.8555  1.9184 -0.6163
28269SOL    HW290645   5.306   3.887   4.060 -1.1287 -0.6220 -0.1808
28270SOL     OW90646   8.733   5.328   1.733 -0.2866  0.0845 -0.2715
28270SOL    HW190647   8.667   5.356   1.796  0.3316 -1.5605  1.2113
28270SOL    HW290648   8.683   5.286   1.663 -0.8597 -1.0460  0.7777
28271SOL     OW90649   1.695  11.727  12.084  0.5068  0.2543  0.3348
28271SOL    HW190650   1.656  11.693  12.164  0.2323  1.8209  0.8999
28271SOL    HW290651   1.767  11.783  12.114  0.8297  0.3305 -0.5503
28272SOL     OW90652   3.802   2.063   4.218  0.1168 -0.4505  0.0652
28272SOL    HW190653   3.763   1.986   4.175  1.8349 -1.3798  0.0808
28272SOL    HW290654   3.789   2.048   4.311 -0.1392 -0.3952  0.0373
28273SOL     OW90655   1.895   3.974   3.778 -0.1855  0.2329 -0.2854
28273SOL    HW190656   1.832   3.985   3.707  0.0432 -0.8110 -0.6604
28273SOL    HW290657   1.927   3.884   3.769  0.6733  0.4454  0.4650
28274SOL     OW90658   3.653   4.840  10.576 -0.0745  0.1822  0.1399
28274SOL    HW190659   3.571   4.873  10.614 -1.4145  0.1139 -2.4973
28274SOL    HW290660   3.679   4.906  10.513  1.5733 -0.1339  0.4584
28275SOL     OW90661   3.304  10.931   1.761 -0.5348 -0.4518  0.6971
28275SOL    HW190662   3.308  11.004   1.699 -2.2999 -0.1567  0.8895
28275SOL    HW290663   3.325  10.972   1.846 -0.6863 -0.3394  0.6808
28276SOL     OW90664  10.603   0.771   9.758  0.0864 -0.1997 -0.2115
28276SOL    HW190665  10.586   0.850   9.708  2.1816  1.0731  0.9345
28276SOL    HW290666  10.694   0.748   9.737  0.5561 -0.4520  1.8380
28277SOL     OW90667   1.908   9.970   2.724  0.4888  0.2304 -0.8369
28277SOL    HW190668   1.907  10.018   2.807 -1.4249  0.1327 -0.7555
28277SOL    HW290669   1.841  10.014   2.671 -1.0544 -2.0488 -0.9151
28278SOL     OW90670   1.428   9.085   0.117 -0.0668 -0.1018  0.0288
28278SOL    HW190671   1.483   9.059   0.191  0.5415 -1.1662 -0.7631
28278SOL    HW290672   1.489   9.123   0.054 -0.3848 -0.4079 -0.4651
28279SOL     OW90673   5.339   8.644   8.616 -0.3820  0.4441 -0.6473
28279SOL    HW190674   5.275   8.630   8.546 -0.5304 -1.7206 -0.1536
28279SOL    HW290675   5.369   8.734   8.603 -1.4642  0.5886 -2.5965
28280SOL     OW90676   4.522   9.192   0.594  0.1280  0.4547  0.1548
28280SOL    HW190677   4.565   9.277   0.587  0.4713  0.2578 -0.2259
28280SOL    HW290678   4.494   9.172   0.504 -0.6638  0.5285  0.3791
28281SOL     OW90679   0.446   1.147   2.942  0.0384 -0.2586  0.4420
28281SOL    HW190680   0.533   1.133   2.979  0.4065  1.4782  0.2744
28281SOL    HW290681   0.399   1.196   3.009 -0.1387  0.5908 -0.2893
28282SOL     OW90682  11.814  12.300   9.070  0.1854  0.3406 -0.7035
28282SOL    HW190683  11.897  12.347   9.074  0.6924 -0.4048 -1.8765
28282SOL    HW290684  11.810  12.251   9.152  1.0272  0.1876 -0.7456
28283SOL     OW90685   0.153   9.153   6.189 -0.3539  0.1344  0.2621
28283SOL    HW190686   0.241   9.135   6.156 -0.4319  0.0685  0.0892
28283SOL    HW290687   0.163   9.152   6.284  0.1045  1.4861  0.2424
28284SOL     OW90688   1.035   0.083   6.226 -0.3382 -0.2685  0.4052
28284SOL    HW190689   0.943   0.082   6.200 -0.1801  0.9849 -0.2790
28284SOL    HW290690   1.084   0.075   6.144  0.1485  1.2329  0.5119
28285SOL     OW90691   8.626  10.221  10.440  0.0066 -0.1742 -0.2205
28285SOL    HW190692   8.673  10.269  10.509 -0.0746  1.2754 -1.1461
28285SOL    HW290693   8.625  10.280  10.365  0.9835 -2.1042 -1.8556
28286SOL     OW90694  10.310   2.486  11.655  0.0455  0.0159  0.1648
28286SOL    HW190695  10.333   2.569  11.697  0.0353 -0.2033  0.6068
28286SOL    HW290696  10.321   2.503  11.562 -0.2656  0.6146  0.2294
28287SOL     OW90697   4.203   3.360   9.599  0.1221 -0.3351  0.0461
28287SOL    HW190698   4.155   3.283   9.630  0.7423  0.0487  2.1716
28287SOL    HW290699   4.222   3.409   9.679  3.2087 -0.0053 -0.7518
28288SOL     OW90700   7.424  10.198  10.033  0.0065 -0.4646 -0.1620
28288SOL    HW190701   7.457  10.229  10.117  0.4578 -2.9858  0.6789
28288SOL    HW290702   7.465  10.255   9.968  0.8344  0.5910  1.2450
28289SOL     OW90703  12.131   9.488   5.116  0.0838 -0.1426 -0.9005
28289SOL    HW190704  12.122   9.484   5.211 -1.5280  1.8298 -0.9213
28289SOL    HW290705  12.121   9.397   5.087  0.1272 -0.7020  0.7667
28290SOL     OW90706   0.991   5.368   6.998  0.4510 -0.4011  0.4479
28290SOL    HW190707   0.980   5.284   6.953  0.4019 -0.0621 -0.1838
28290SOL    HW290708   0.991   5.433   6.927  1.1336  0.0743  0.8735
28291SOL     OW90709   0.139  12.199   4.642 -0.0170  0.1648 -0.3802
28291SOL    HW190710   0.080  12.129   4.667  1.2059 -1.4541 -1.7777
28291SOL    HW290711   0.215  12.188   4.699  1.2549 -1.3177 -2.2404
28292SOL     OW90712  10.868   1.141   6.788 -0.0133 -0.2621  0.3067
28292SOL    HW190713  10.936   1.164   6.851  2.6739 -1.6284 -1.9121
28292SOL    HW290714  10.832   1.058   6.821 -0.5559  0.3572  1.3666
28293SOL     OW90715   1.202   3.689   8.250  0.2845 -0.1958 -0.3133
28293SOL    HW190716   1.131   3.743   8.283  0.3553 -0.1764 -0.1928
28293SOL    HW290717   1.159   3.613   8.211  0.2710 -1.1436  1.4586
28294SOL     OW90718   1.435   4.908   3.924  0.0001 -0.0864 -0.1423
28294SOL    HW190719   1.529   4.919   3.910  0.1653 -1.1276  0.0786
28294SOL    HW290720   1.398   4.995   3.908  1.3369  1.1495  2.8191
28295SOL     OW90721   3.894   5.893   8.626 -0.0473 -0.0280  0.1498
28295SOL    HW190722   3.978   5.847   8.627  0.5120  0.9495 -0.6452
28295SOL    HW290723   3.856   5.875   8.713  0.5814 -1.1792  0.2004
28296SOL     OW90724   9.097   7.055   9.671  0.0287 -0.0739  0.2196
28296SOL    HW190725   9.018   7.041   9.722 -0.8436  0.2806 -0.9818
28296SOL    HW290726   9.139   6.969   9.666 -0.5147 -0.3531  0.5030
28297SOL     OW90727   5.524   6.330   1.798 -0.3114 -0.7079 -0.7454
28297SOL    HW190728   5.492   6.363   1.882  0.1169  1.8047 -1.4632
28297SOL    HW290729   5.487   6.243   1.790  0.3153 -1.3854  2.4054
28298SOL     OW90730   2.832   0.323  11.890 -0.5124  0.0275  0.3793
28298SOL    HW190731   2.844   0.291  11.980 -3.4681 -0.0916  0.8345
28298SOL    HW290732   2.919   0.318  11.851  0.3349 -2.7454  2.3225
28299SOL     OW90733  10.723   8.143  11.196 -0.5122 -0.4191 -0.4566
28299SOL    HW190734  10.741   8.214  11.134 -3.1837  1.0254  0.2507
28299SOL    HW290735  10.682   8.075  11.143  1.9198 -1.4915 -1.1094
28300SOL     OW90736   8.143   5.886  11.530  0.4012 -0.2666 -0.1111
28300SOL    HW190737   8.116   5.967  11.487  0.3627 -0.6094 -0.7481
28300SOL    HW290738   8.182   5.833  11.460  1.6937 -0.2463  0.5671
28301SOL     OW90739   7.398   1.906   1.942 -0.5494  0.1092 -0.1935
28301SOL    HW190740   7.493   1.908   1.950 -0.3464 -1.2946 -1.7348
28301SOL    HW290741   7.366   1.902   2.033  0.9566 -1.8178  0.3163
28302SOL     OW90742   1.017   7.329   3.817 -0.0486  0.1814  0.2422
28302SOL    HW190743   0.973   7.329   3.732  1.5111 -1.3301 -0.6114
28302SOL    HW290744   1.011   7.238   3.847  0.6244  0.4054  1.0994
28303SOL     OW90745   3.731   2.337   8.046  0.0447 -0.2215 -0.6080
28303SOL    HW190746   3.687   2.406   7.997 -1.3537  0.1573  1.0813
28303SOL    HW290747   3.824   2.346   8.022 -0.3672  0.9739 -1.8798
28304SOL     OW90748  10.986   9.110  11.619  0.4414  0.3726  0.0340
28304SOL    HW190749  11.058   9.150  11.669  0.4496  0.8156 -0.3202
28304SOL    HW290750  10.909   9.161  11.643  0.2247 -0.1501  0.4689
28305SOL     OW90751   2.272  10.497   9.714 -0.1672 -0.0472 -0.1692
28305SOL    HW190752   2.187  10.510   9.754  0.1033 -0.9147  0.7304
28305SOL    HW290753   2.280  10.402   9.704  0.7015  0.0188 -0.2194
28306SOL     OW90754   2.981   6.709   0.048 -0.2503  0.1128  0.4479
28306SOL    HW190755   2.924   6.770   0.094 -1.5106  0.2930 -1.2584
28306SOL    HW290756   2.927   6.674  -0.024  1.2409 -1.0443 -0.1839
28307SOL     OW90757   5.915   2.695   2.306  0.3791  0.1084  0.2124
28307SOL    HW190758   5.836   2.705   2.252  0.6335  0.9624 -0.0110
28307SOL    HW290759   5.982   2.666   2.245 -0.2926 -3.0901  0.8084
28308SOL     OW90760  11.894   0.594   5.028  0.2446  0.4125  0.3466
28308SOL    HW190761  11.842   0.657   5.077  0.9823  0.3275  1.2557
28308SOL    HW290762  11.872   0.611   4.936  1.5086  2.9674  0.4373
28309SOL     OW90763   5.502  10.397   2.750 -0.3358 -0.2826  0.4978
28309SOL    HW190764   5.484  10.459   2.821 -0.1003  0.8082 -0.3531
28309SOL    HW290765   5.594  10.375   2.760 -0.4141 -0.4885  0.7902
28310SOL     OW90766   5.158   9.397   7.880 -0.0865 -0.1426  0.0352
28310SOL    HW190767   5.068   9.374   7.904 -0.4837  1.6865  0.3974
28310SOL    HW290768   5.152   9.484   7.841  1.6765  0.5622  1.2051
28311SOL     OW90769   6.578   4.495  11.518  0.5273 -0.1038 -0.0950
28311SOL    HW190770   6.584   4.558  11.590 -3.1402  0.8715 -0.4068
28311SOL    HW290771   6.617   4.415  11.552  0.2828  0.7596  2.4388
28312SOL     OW90772   8.697   5.306   6.437  0.1659  1.3357 -0.4347
28312SOL    HW190773   8.698   5.334   6.529 -0.3372 -0.9949  0.3637
28312SOL    HW290774   8.722   5.384   6.388  0.6813  2.6016  1.6908
28313SOL     OW90775   4.695   6.120   2.618 -0.5798 -0.1017  0.7006
28313SOL    HW190776   4.708   6.028   2.596 -2.1726 -0.3240  0.6196
28313SOL    HW290777   4.654   6.119   2.704 -0.9160  0.5242  0.5550
28314SOL     OW90778   8.254   9.739   7.366  0.5780  0.3723 -0.3840
28314SOL    HW190779   8.288   9.760   7.279  0.4906  0.2359 -0.4512
28314SOL    HW290780   8.195   9.812   7.387  1.4960  0.9978  0.0590
28315SOL     OW90781   0.362   8.128   3.418 -0.1504  0.2266  0.0685
28315SOL    HW190782   0.368   8.086   3.332  0.0751 -1.4694  0.8711
28315SOL    HW290783   0.451   8.126   3.452 -0.5678 -1.0682  1.1867
28316SOL     OW90784   7.472  11.277   1.520 -0.3632 -0.4810  0.0687
28316SOL    HW190785   7.514  11.193   1.502 -0.8384 -0.4970 -1.0093
28316SOL    HW290786   7.503  11.300   1.608  1.4042 -0.8016 -0.4254
28317SOL     OW90787   5.101   3.559   9.467  0.7193 -0.7564  0.0382
28317SOL    HW190788   5.184   3.584   9.508  1.7622 -1.1105 -1.7298
28317SOL    HW290789   5.117   3.471   9.431 -1.5398 -2.3428  2.5213
28318SOL     OW90790   1.408   6.699  11.110 -0.7694  0.4693  0.2757
28318SOL    HW190791   1.477   6.708  11.175  0.2573 -0.9859 -0.5609
28318SOL    HW290792   1.342   6.644  11.152  0.3372 -1.3030 -0.1729
28319SOL     OW90793   2.957   7.724  10.616 -0.7183 -0.1401 -0.0506
28319SOL    HW190794   2.962   7.655  10.682  0.8966  1.0840  1.2254
28319SOL    HW290795   2.964   7.679  10.532  0.9053 -1.5069  0.7580
28320SOL     OW90796   1.494  12.206   9.977 -0.3446 -1.0316  0.5658
28320SOL    HW190797   1.427  12.256   9.931  0.8634 -0.8718 -1.0941
28320SOL    HW290798   1.498  12.247  10.064 -1.9974 -0.7067  0.5184
28321SOL     OW90799   8.049   1.367   6.437 -0.0333  0.4538 -0.2210
28321SOL    HW190800   8.031   1.353   6.530  0.5922  0.7372 -0.0550
28321SOL    HW290801   8.070   1.280   6.403 -0.7561  0.2675 -0.2151
28322SOL     OW90802   4.997   6.218  12.209 -0.1500 -0.1219 -0.1191
28322SOL    HW190803   5.002   6.309  12.180 -1.6668  0.4435  1.1943
28322SOL    HW290804   4.903   6.201  12.216  0.0115 -2.5295 -2.4141
28323SOL     OW90805   8.639   3.293   4.845 -0.0922 -0.2605  0.3817
28323SOL    HW190806   8.564   3.264   4.795 -0.7756 -0.2767  1.3816
28323SOL    HW290807   8.706   3.314   4.780 -1.5973  1.5882 -0.6309
28324SOL     OW90808  10.107   4.109   3.244  0.1119  0.0547 -0.4943
28324SOL    HW190809  10.055   4.034   3.276 -0.3335  0.1579 -0.9699
28324SOL    HW290810  10.154   4.075   3.168  2.5664 -0.7098  1.2358
28325SOL     OW90811   1.562   6.236   3.251  0.2714  0.0134  0.6244
28325SOL    HW190812   1.625   6.257   3.320  0.8113 -0.0667  0.1709
28325SOL    HW290813   1.608   6.173   3.195  0.7698  1.8161 -1.1339
28326SOL     OW90814   9.818   7.448   3.318 -0.3541  0.2207 -0.5590
28326SOL    HW190815   9.778   7.378   3.369  1.8414  0.1186  1.2019
28326SOL    HW290816   9.877   7.403   3.257  0.5271  0.4804  0.0822
28327SOL     OW90817   5.433   7.513  10.416 -0.0724  1.2953  0.5387
28327SOL    HW190818   5.338   7.512  10.401 -0.1877  1.0824  1.2319
28327SOL    HW290819   5.449   7.439  10.475  0.9502 -0.4957 -1.8513
28328SOL     OW90820   1.015   7.639   6.259 -0.5655 -0.0216  0.5145
28328SOL    HW190821   1.097   7.644   6.210 -1.3122 -0.3969 -0.8374
28328SOL    HW290822   0.991   7.730   6.275 -0.1641  0.1000  0.4251
28329SOL     OW90823  11.761   0.124  11.413  0.2788 -0.1292  0.3211
28329SOL    HW190824  11.802   0.038  11.405 -0.5963 -0.4397 -1.2370
28329SOL    HW290825  11.721   0.139  11.327 -0.9227  1.1441  1.0754
28330SOL     OW90826  10.180   9.662   3.831 -0.5723  1.2708  0.0635
28330SOL    HW190827  10.159   9.693   3.920  2.7263  1.8563  0.7602
28330SOL    HW290828  10.147   9.572   3.829 -0.4644  1.1370  2.0243
28331SOL     OW90829   2.952   0.483   7.095  0.0153  0.2327  0.1158
28331SOL    HW190830   3.040   0.447   7.085  0.1538  0.6341 -0.1387
28331SOL    HW290831   2.927   0.511   7.007 -0.2498  0.3862  0.2375
28332SOL     OW90832   4.850   4.573   4.533 -0.6645  0.2283 -0.3625
28332SOL    HW190833   4.930   4.520   4.541 -0.7388  0.1576 -0.0768
28332SOL    HW290834   4.878   4.662   4.555 -0.5674  0.2840 -0.7121
28333SOL     OW90835   1.470   4.929  10.026  0.2313 -0.1188  0.0332
28333SOL    HW190836   1.529   4.853  10.025 -0.1145 -0.4004  0.4209
28333SOL    HW290837   1.492   4.977   9.947 -0.9644 -1.7383 -1.3596
28334SOL     OW90838   4.043   2.731   2.672  0.0222  0.5573 -0.3423
28334SOL    HW190839   4.018   2.806   2.618 -3.0185 -0.2625 -0.2015
28334SOL    HW290840   3.963   2.680   2.683  1.6961 -2.0729  0.6533
28335SOL     OW90841   7.772  11.199   1.433 -0.0325  0.3865 -0.0571
28335SOL    HW190842   7.815  11.114   1.443  1.7224  1.1190 -0.9450
28335SOL    HW290843   7.768  11.236   1.521 -1.3153 -0.8026  0.4225
28336SOL     OW90844   6.924   5.166   4.401  0.4270 -0.4723  0.0566
28336SOL    HW190845   6.970   5.250   4.403 -0.8693  0.3209 -1.1689
28336SOL    HW290846   6.869   5.171   4.322  0.5890 -2.6263 -0.2469
28337SOL     OW90847   3.123   1.165   2.690 -0.2960  0.4415  0.6326
28337SOL    HW190848   3.185   1.204   2.628  1.1305 -0.9740  1.1002
28337SOL    HW290849   3.084   1.092   2.641  1.1273 -0.9309  1.4714
28338SOL     OW90850   3.541   6.753   4.818  0.8303 -0.2441  1.1721
28338SOL    HW190851   3.575   6.687   4.757 -0.2347  1.4274 -1.3779
28338SOL    HW290852   3.616   6.773   4.875  1.7867 -2.0690  0.6494
28339SOL     OW90853   1.090   0.050   8.183 -0.0957 -0.5356 -0.1971
28339SOL    HW190854   1.058   0.098   8.259  1.3813  0.3820 -0.1278
28339SOL    HW290855   1.013   0.001   8.152 -1.3695  0.9869  0.4051
28340SOL     OW90856   6.464   7.458   5.196  1.1982 -0.3709 -0.4079
28340SOL    HW190857   6.516   7.515   5.253  0.1175  0.9227 -0.6807
28340SOL    HW290858   6.409   7.518   5.145 -0.6302 -1.6749 -0.0751
28341SOL     OW90859   6.015   0.377  11.340  0.5389  0.0107 -0.3516
28341SOL    HW190860   6.040   0.376  11.433 -1.2249 -0.6152  0.1434
28341SOL    HW290861   6.097   0.360  11.294  1.1337 -1.5502  1.1833
28342SOL     OW90862   9.643  10.936   3.836 -0.4192  0.9570 -0.0827
28342SOL    HW190863   9.612  10.932   3.745  0.5525 -0.2851 -0.4004
28342SOL    HW290864   9.737  10.953   3.829  0.2293 -1.7807  0.4974
28343SOL     OW90865  10.898   0.455   7.726  0.2925 -0.3556 -0.4176
28343SOL    HW190866  10.880   0.424   7.637  0.6353  1.3334 -1.1145
28343SOL    HW290867  10.812   0.472   7.763  0.1712 -0.3507 -0.6946
28344SOL     OW90868   6.941   4.605   5.246  0.5735 -0.2364  0.0979
28344SOL    HW190869   6.859   4.599   5.198  0.3993  0.0403  0.3609
28344SOL    HW290870   6.966   4.514   5.263  1.2216 -0.3933 -1.4973
28345SOL     OW90871   5.216   8.737  11.370 -0.3844 -0.0228  0.0638
28345SOL    HW190872   5.269   8.669  11.411  0.3074 -0.5663 -1.6081
28345SOL    HW290873   5.165   8.775  11.441  2.5386  0.8132  1.8662
28346SOL     OW90874   5.211  11.596  10.589  0.4537  0.2703  0.0268
28346SOL    HW190875   5.216  11.541  10.510  1.0709  0.2106  0.0968
28346SOL    HW290876   5.297  11.586  10.630  1.1337  2.4512 -0.7310
28347SOL     OW90877   9.214   8.482   8.629  0.7658  0.1123  0.8478
28347SOL    HW190878   9.186   8.475   8.720 -1.4217  0.7944  0.2973
28347SOL    HW290879   9.208   8.576   8.609 -0.5913 -0.2104 -0.4740
28348SOL     OW90880   5.266   3.882   5.819  0.5126  0.2829 -0.0519
28348SOL    HW190881   5.344   3.931   5.791  1.5607 -2.1202 -1.7030
28348SOL    HW290882   5.297   3.829   5.893 -0.0065  0.4629  0.3007
28349SOL     OW90883   6.995   1.826   0.981  0.5171  0.1646  0.0704
28349SOL    HW190884   6.978   1.757   1.044  2.2196  1.2281  1.8428
28349SOL    HW290885   7.036   1.896   1.033  1.8662  1.1735 -2.1739
28350SOL     OW90886   2.458   3.724   9.401  0.3231 -0.4143  0.2620
28350SOL    HW190887   2.527   3.782   9.432 -0.1018  0.3086 -0.1305
28350SOL    HW290888   2.504   3.653   9.357  0.8040  1.9289 -3.4130
28351SOL     OW90889   7.920   3.345   6.385 -0.3233 -0.1559  0.4905
28351SOL    HW190890   7.935   3.256   6.353  1.0469  0.4329 -0.5934
28351SOL    HW290891   7.966   3.349   6.468  1.8789  0.2772 -0.6887
28352SOL     OW90892   2.968   4.746   2.051  0.3539 -0.0097 -0.6945
28352SOL    HW190893   3.001   4.683   2.115 -1.7539 -0.4574  0.0454
28352SOL    HW290894   2.986   4.832   2.090 -1.0178 -0.2751  0.6116
28353SOL     OW90895   7.587   7.287   1.175 -0.3722 -0.7121  0.1955
28353SOL    HW190896   7.675   7.297   1.139  0.5512  2.6084  2.7456
28353SOL    HW290897   7.529   7.323   1.108  0.8114  1.2867  0.1455
28354SOL     OW90898   7.048   2.966  10.260 -0.0501  0.1146 -0.5732
28354SOL    HW190899   6.991   2.950  10.184 -0.9434 -0.7896  0.2518
28354SOL    HW290900   7.005   3.036  10.308 -1.0087 -1.1762  0.5285
28355SOL     OW90901   7.051   1.181   8.331 -0.8600  0.6111 -0.4694
28355SOL    HW190902   6.992   1.252   8.304 -0.3947  2.0213  1.9470
28355SOL    HW290903   7.138   1.221   8.328 -0.7780  0.9440  3.0385
28356SOL     OW90904   4.661   1.447   7.773  0.3842 -0.4025 -0.0862
28356SOL    HW190905   4.700   1.375   7.724  0.9258  0.6652 -1.2682
28356SOL    HW290906   4.587   1.407   7.818 -1.9130 -0.9604 -3.9251
28357SOL     OW90907   3.789  10.348  10.456  0.3480  0.2668 -0.3803
28357SOL    HW190908   3.820  10.274  10.403 -1.8750 -1.3764  0.4822
28357SOL    HW290909   3.744  10.405  10.393  0.3066 -0.1520 -0.7392
28358SOL     OW90910   9.385   1.080   7.579 -0.5198 -0.1536 -0.7984
28358SOL    HW190911   9.393   1.124   7.495 -0.5738  0.6280 -0.4061
28358SOL    HW290912   9.419   1.143   7.642 -0.9520 -0.5276 -0.1790
28359SOL     OW90913  10.040   9.983   6.344 -0.2072  0.1907  0.1747
28359SOL    HW190914  10.032  10.009   6.436 -1.5429  0.4908  0.0047
28359SOL    HW290915  10.104   9.912   6.345  0.2961  0.6358  1.2432
28360SOL     OW90916   4.052   3.220   5.444 -0.2410  0.2366 -0.5098
28360SOL    HW190917   4.076   3.180   5.528 -0.5852  1.2655  0.1071
28360SOL    HW290918   4.050   3.148   5.382  0.7708 -0.4341  0.2083
28361SOL     OW90919  11.959   8.289   8.968 -0.1972  0.3869 -0.7468
28361SOL    HW190920  12.044   8.331   8.955  0.4259 -0.9328 -1.0160
28361SOL    HW290921  11.906   8.357   9.011  0.9801  1.2281 -0.5619
28362SOL     OW90922   7.152   2.308  11.068 -0.6192 -0.0133 -0.7622
28362SOL    HW190923   7.183   2.248  10.999  3.9560  2.2174 -1.0624
28362SOL    HW290924   7.172   2.263  11.150  0.2083 -0.0655 -0.9791
28363SOL     OW90925   8.114   5.589   4.606  0.1100  0.7800  0.1182
28363SOL    HW190926   8.119   5.683   4.625 -0.5030  0.5588  1.5055
28363SOL    HW290927   8.140   5.581   4.514  2.6880  2.0136  0.6831
28364SOL     OW90928  11.736   1.516   6.160 -0.1575  0.2979 -0.8365
28364SOL    HW190929  11.700   1.591   6.209 -2.4680 -0.7358 -0.8274
28364SOL    HW290930  11.786   1.556   6.089  0.1181  1.8278  0.1648
28365SOL     OW90931   1.970   7.291   9.218 -0.2792  0.5144  0.3846
28365SOL    HW190932   1.890   7.317   9.171 -0.8127 -2.2887 -0.4634
28365SOL    HW290933   2.038   7.293   9.151 -0.1535  0.5767  0.5154
28366SOL     OW90934   1.421   5.392   0.334 -0.6560 -0.5310  0.1309
28366SOL    HW190935   1.407   5.309   0.288 -3.1891 -0.6344  0.9573
28366SOL    HW290936   1.333   5.424   0.353  0.2896  1.0781  2.1148
28367SOL     OW90937   9.549   8.582   8.314 -0.0932  0.7167 -0.1442
28367SOL    HW190938   9.531   8.554   8.225  0.7560  1.5462 -0.5995
28367SOL    HW290939   9.510   8.669   8.320 -1.0899  0.2286  0.6515
28368SOL     OW90940  10.573   3.128  10.505 -0.9593  0.3613  0.5762
28368SOL    HW190941  10.510   3.196  10.485  1.2085  2.3226 -0.0677
28368SOL    HW290942  10.621   3.162  10.581  1.8211  0.8679 -1.2620
28369SOL     OW90943  10.108   1.800  10.232  0.7329  0.2434 -0.3470
28369SOL    HW190944  10.091   1.831  10.143  1.0346  2.1688  0.2130
28369SOL    HW290945  10.096   1.705  10.228  1.0160  0.2649 -2.4834
28370SOL     OW90946   7.288   1.485   9.130  0.4687 -0.4903  0.7676
28370SOL    HW190947   7.240   1.566   9.113 -1.6059 -1.3565  2.1096
28370SOL    HW290948   7.356   1.511   9.192 -1.1470  0.0253  2.4291
28371SOL     OW90949   2.397  11.190   6.829 -0.2763  0.6831 -0.2976
28371SOL    HW190950   2.367  11.208   6.739 -1.0731  0.8679 -0.0059
28371SOL    HW290951   2.372  11.268   6.878  0.9481  0.9622 -0.0811
28372SOL     OW90952  10.662   3.852   0.691  0.1390  0.6699  0.5783
28372SOL    HW190953  10.623   3.901   0.764 -1.4528 -0.4797  0.5402
28372SOL    HW290954  10.587   3.820   0.641  1.1505 -0.9123  0.0119
28373SOL     OW90955   2.434   9.967   3.640 -0.0362 -0.3351  0.0144
28373SOL    HW190956   2.379   9.917   3.580 -1.5342 -0.4060  1.3694
28373SOL    HW290957   2.408   9.937   3.727 -0.4887  2.2389  0.8739
28374SOL     OW90958   5.430   3.870   2.027 -0.2680  0.4199  0.1986
28374SOL    HW190959   5.359   3.912   1.977 -2.1801 -0.3426  2.1486
28374SOL    HW290960   5.510   3.894   1.979 -1.7715  1.6885 -1.8350
28375SOL     OW90961   9.970  10.879   9.869 -0.0402  0.0939 -0.4952
28375SOL    HW190962   9.911  10.804   9.856  1.1174 -1.1196  0.8344
28375SOL    HW290963  10.057  10.842   9.858  0.5345  1.5867 -1.1729
28376SOL     OW90964  12.019   4.932   1.127 -0.2199  0.4700  0.6054
28376SOL    HW190965  12.035   4.941   1.033 -0.7033 -1.2630  0.3275
28376SOL    HW290966  11.956   5.001   1.147 -0.0995  0.8711 -0.3369
28377SOL     OW90967   9.840  10.207   8.365 -0.4123 -0.2372 -0.2218
28377SOL    HW190968   9.830  10.134   8.304 -0.8200 -1.0332  0.7636
28377SOL    HW290969   9.918  10.185   8.416 -1.9326 -1.3196  1.7846
28378SOL     OW90970   3.905   1.422   1.774  0.6724 -0.6613  0.8153
28378SOL    HW190971   3.886   1.346   1.718 -1.4620  0.5852 -0.2973
28378SOL    HW290972   3.887   1.391   1.863 -0.9396 -1.2897  0.3050
28379SOL     OW90973  11.000   1.137  11.588 -0.0393  0.1404  0.3312
28379SOL    HW190974  11.023   1.058  11.637  0.7546 -0.1018 -0.4017
28379SOL    HW290975  11.047   1.208  11.632 -0.6916  0.2088  0.9426
28380SOL     OW90976  10.681   9.014   5.095  0.0367 -0.7005 -0.1661
28380SOL    HW190977  10.767   8.975   5.109 -0.1851 -0.8805  0.8006
28380SOL    HW290978  10.661   8.997   5.003  0.9053 -0.9113 -0.3237
28381SOL     OW90979   7.848   1.287   2.951 -0.5766  0.7257  0.1572
28381SOL    HW190980   7.896   1.362   2.916 -0.3412  0.6836  0.3870
28381SOL    HW290981   7.907   1.213   2.942 -0.4682  0.7356  0.7395
28382SOL     OW90982   2.086   4.608   3.322  0.0952  0.2152  0.3992
28382SOL    HW190983   2.135   4.529   3.296  0.5296 -0.4129  2.8554
28382SOL    HW290984   2.125   4.678   3.270  1.8421 -0.7178  0.3495
28383SOL     OW90985  10.522  10.698   4.049  0.3556  0.3347  0.6337
28383SOL    HW190986  10.571  10.616   4.044  0.9907  0.7539 -0.6148
28383SOL    HW290987  10.451  10.688   3.985 -1.3752 -0.3411  2.5552
28384SOL     OW90988   3.522   1.726   4.411  0.1639  0.0490  0.6297
28384SOL    HW190989   3.490   1.703   4.498  2.0147 -0.7414  1.1531
28384SOL    HW290990   3.515   1.821   4.407  3.4226  0.5970  3.1695
28385SOL     OW90991   1.428   4.899   2.531  0.1520 -0.7470 -0.7220
28385SOL    HW190992   1.337   4.927   2.521  0.1798  0.1878  1.1785
28385SOL    HW290993   1.429   4.808   2.501 -1.2598 -0.5890 -1.3495
28386SOL     OW90994   7.779   3.705   6.935  0.3223  0.7838 -0.2913
28386SOL    HW190995   7.801   3.744   6.851  0.7896  0.5989 -0.2602
28386SOL    HW290996   7.734   3.623   6.913  0.2746  0.8305 -0.3640
28387SOL     OW90997   0.447   8.103   5.965  0.1531  0.5549  0.0397
28387SOL    HW190998   0.481   8.168   5.903  2.1611 -0.4807 -0.0016
28387SOL    HW290999   0.465   8.140   6.051  0.1877  0.5892  0.0180
28388SOL     OW91000   8.402   4.560   6.511 -0.1398  0.4881  0.2459
28388SOL    HW191001   8.467   4.491   6.498  0.9626  1.6041 -0.3804
28388SOL    HW291002   8.432   4.632   6.455 -0.7396  1.8144  1.5597
28389SOL     OW91003   3.875   7.259   8.561  0.3810  0.3463  0.1717
28389SOL    HW191004   3.887   7.263   8.467  1.3198  0.2790  0.2824
28389SOL    HW291005   3.816   7.185   8.575  2.1876 -1.2216 -0.1953
28390SOL     OW91006   9.250   0.836   6.443 -0.2845 -0.3593 -0.1506
28390SOL    HW191007   9.208   0.922   6.443  1.2136  0.4165 -0.6692
28390SOL    HW291008   9.192   0.780   6.392 -0.1514  0.9765 -1.8414
28391SOL     OW91009   3.279   7.080   4.268 -0.6175 -0.1223  0.0243
28391SOL    HW191010   3.319   7.089   4.181  0.6422  3.1639  0.7823
28391SOL    HW291011   3.351   7.052   4.325 -0.9739 -0.4146  0.3365
28392SOL     OW91012   3.650   7.462   2.054 -0.1472 -0.2916 -0.3043
28392SOL    HW191013   3.729   7.516   2.064  0.0706 -0.9847  2.7036
28392SOL    HW291014   3.582   7.511   2.100 -0.1859 -1.9994  1.5855
28393SOL     OW91015   7.279   7.529  10.540 -0.0386  0.3316 -0.0886
28393SOL    HW191016   7.308   7.438  10.541 -3.3040 -0.8434  0.1175
28393SOL    HW291017   7.335   7.572  10.604  1.3756 -1.6038  0.0634
28394SOL     OW91018   1.473   0.323   6.449 -0.3356 -0.1290  0.0673
28394SOL    HW191019   1.514   0.383   6.386 -0.8708  0.3819  0.1948
28394SOL    HW291020   1.472   0.372   6.531  0.0889 -0.6798  0.4095
28395SOL     OW91021   4.763   4.597   8.124  0.2385 -0.4140  0.3262
28395SOL    HW191022   4.750   4.538   8.050 -0.2677  0.3687 -0.2269
28395SOL    HW291023   4.708   4.672   8.104  0.0958 -0.1943  1.5115
28396SOL     OW91024   8.203   3.040   0.749  0.5051 -0.3858 -0.9414
28396SOL    HW191025   8.196   3.081   0.663 -1.9838 -1.9407 -1.5834
28396SOL    HW291026   8.202   2.946   0.731 -2.4533 -0.8102  0.8018
28397SOL     OW91027   8.293   4.717   1.996  0.0009  0.2182  0.1829
28397SOL    HW191028   8.311   4.786   2.060 -1.7644  0.5220  0.3977
28397SOL    HW291029   8.198   4.706   1.998 -0.3793  1.4979 -3.7044
28398SOL     OW91030   6.573   6.421   9.304  0.3204  0.8021 -0.1179
28398SOL    HW191031   6.652   6.446   9.257  0.9339 -0.2749  0.2857
28398SOL    HW291032   6.605   6.376   9.383 -0.6600 -1.2441 -0.8038
28399SOL     OW91033   2.777   6.889   7.184  0.1360 -0.1358  0.1483
28399SOL    HW191034   2.767   6.802   7.144  2.9519 -0.2087 -0.5788
28399SOL    HW291035   2.816   6.872   7.269  1.5405  0.4220 -0.3580
28400SOL     OW91036   6.554   7.803   1.087  0.4613 -0.2326  0.4831
28400SOL    HW191037   6.513   7.746   1.151 -2.7259  1.9147  0.6279
28400SOL    HW291038   6.506   7.786   1.006 -1.0991  2.5141  0.6971
28401SOL     OW91039   6.307   9.758   6.615  0.4673  0.4117 -0.1022
28401SOL    HW191040   6.336   9.725   6.530 -0.4258  1.1277 -0.7036
28401SOL    HW291041   6.211   9.754   6.611  0.4154  0.4299  0.8798
28402SOL     OW91042   4.773  11.584   9.939 -0.0229 -0.5870  0.3517
28402SOL    HW191043   4.710  11.655   9.932  0.8266  0.2574  0.9483
28402SOL    HW291044   4.769  11.540   9.854  0.8440  1.4073 -0.7963
28403SOL     OW91045   5.288   4.488  10.451 -0.1172 -0.4660 -0.1913
28403SOL    HW191046   5.215   4.433  10.479 -0.6682  0.6448  0.5636
28403SOL    HW291047   5.258   4.530  10.371 -0.3456  0.0575  0.1657
28404SOL     OW91048   0.952   6.373   3.535  0.0955 -0.2350  0.4463
28404SOL    HW191049   0.956   6.365   3.439 -0.9680 -2.0028  0.5187
28404SOL    HW291050   0.916   6.290   3.565  0.8811  0.0906  2.4436
28405SOL     OW91051   4.850  11.816   8.726 -0.4882  0.1096  0.1147
28405SOL    HW191052   4.800  11.852   8.800 -1.9562 -3.7238  1.2240
28405SOL    HW291053   4.785  11.767   8.675  1.0091  0.4879 -2.2865
28406SOL     OW91054   2.233   4.126  11.641 -0.1437  0.3735 -0.2560
28406SOL    HW191055   2.179   4.062  11.595  0.7383  0.6773 -1.8175
28406SOL    HW291056   2.209   4.117  11.733 -3.0105  0.6965 -0.8905
28407SOL     OW91057   6.025   8.283   5.247 -0.3870  0.1557 -0.1539
28407SOL    HW191058   6.020   8.312   5.156  0.7926 -0.8752 -0.5734
28407SOL    HW291059   6.055   8.360   5.296  1.1041  0.1385 -0.9920
28408SOL     OW91060   9.305  10.514  10.904  0.0677 -0.1346  0.5265
28408SOL    HW191061   9.376  10.518  10.968  0.4968 -1.2143  0.1500
28408SOL    HW291062   9.330  10.576  10.836  0.0532  0.3633  0.9730
28409SOL     OW91063   0.311   2.704  10.091  0.6652 -0.1173 -0.1809
28409SOL    HW191064   0.218   2.692  10.112  1.0244 -0.4858  1.3565
28409SOL    HW291065   0.351   2.621  10.114  1.4122  0.1122 -0.6390
28410SOL     OW91066   1.847  10.030   2.355  0.3097  0.2524  0.4088
28410SOL    HW191067   1.764  10.004   2.315  0.3496 -0.0569  0.5267
28410SOL    HW291068   1.829  10.117   2.392 -0.3364 -0.3457  1.5540
28411SOL     OW91069  10.816   0.023  11.347 -0.1597  0.1731 -0.4262
28411SOL    HW191070  10.849   0.109  11.369 -1.9747  1.4456 -2.2844
28411SOL    HW291071  10.888  -0.037  11.368  1.0143  2.0557  1.2374
28412SOL     OW91072  10.630   1.517  10.443  0.2466 -0.2116 -0.1570
28412SOL    HW191073  10.620   1.605  10.477 -0.1264 -0.1725 -0.3676
28412SOL    HW291074  10.545   1.495  10.405 -0.0423 -1.1093  0.9286
28413SOL     OW91075   2.995  10.322  11.383  0.1122 -0.2361 -0.1891
28413SOL    HW191076   2.996  10.350  11.291 -0.0941 -0.5231 -0.2801
28413SOL    HW291077   3.087  10.320  11.408  0.1040  1.1583  0.0181
28414SOL     OW91078   9.559  11.818   0.290  0.4889  0.1547 -0.7085
28414SOL    HW191079   9.527  11.785   0.205  0.6779 -0.2803 -0.6161
28414SOL    HW291080   9.647  11.782   0.297  1.2776  1.8556 -1.2572
28415SOL     OW91081   0.227   6.428   3.471  0.2007 -0.4497 -0.3803
28415SOL    HW191082   0.304   6.467   3.432  1.6868  0.1140  2.8244
28415SOL    HW291083   0.174   6.398   3.397  2.7770  0.4588 -2.7037
28416SOL     OW91084  11.119   0.877   3.778  0.5087 -0.2235 -0.0885
28416SOL    HW191085  11.025   0.892   3.782  0.3416 -1.0747 -0.5469
28416SOL    HW291086  11.142   0.888   3.686  0.7533 -0.5940 -0.0742
28417SOL     OW91087   4.330   5.941   9.594 -0.2404 -0.5270  0.5493
28417SOL    HW191088   4.263   5.960   9.660  0.7159 -1.0349  1.7036
28417SOL    HW291089   4.400   5.897   9.642  1.7424  1.5241 -0.2552
28418SOL     OW91090   8.944  12.298   8.353 -0.5710  0.0950  0.4587
28418SOL    HW191091   9.014  12.310   8.289  0.9949  0.2300  2.1105
28418SOL    HW291092   8.875  12.357   8.324  1.2551  2.3697  0.4892
28419SOL     OW91093  11.805   7.241   4.252 -0.4829  0.1247 -0.3237
28419SOL    HW191094  11.750   7.165   4.234  0.6590 -1.0428  0.8457
28419SOL    HW291095  11.858   7.214   4.328  0.1127  2.0073 -0.0330
28420SOL     OW91096   5.695   1.554   2.920 -0.0979  0.0526 -0.5001
28420SOL    HW191097   5.649   1.579   3.000  1.3817 -0.9287  0.6991
28420SOL    HW291098   5.787   1.565   2.940  0.3649 -1.2315 -1.7045
28421SOL     OW91099   5.088  11.839   3.639 -0.3260 -0.0678 -0.0990
28421SOL    HW191100   5.114  11.927   3.665 -1.0633 -0.1774  1.0827
28421SOL    HW291101   5.118  11.783   3.711 -1.4685 -0.5376  0.0295
28422SOL     OW91102   5.168   8.228   8.949  0.2240 -0.5214 -0.6593
28422SOL    HW191103   5.139   8.283   8.876  0.7584  0.9668  0.2221
28422SOL    HW291104   5.249   8.187   8.918  0.3495 -0.0407 -0.9756
28423SOL     OW91105   1.282   0.839   4.959  0.0126 -0.2152 -0.5619
28423SOL    HW191106   1.338   0.901   4.912 -0.3307  0.4723 -0.0866
28423SOL    HW291107   1.195   0.854   4.922 -0.5653  1.4381  1.3095
28424SOL     OW91108   8.326   2.865  12.309 -0.6253 -0.1879  0.2906
28424SOL    HW191109   8.364   2.935  12.363 -0.4199  1.0912 -1.4053
28424SOL    HW291110   8.401   2.812  12.283 -0.7737 -1.0384  1.5363
28425SOL     OW91111   8.165   8.131  10.481  0.3025  0.2677  0.2603
28425SOL    HW191112   8.213   8.049  10.468  0.2171  0.3748 -0.8225
28425SOL    HW291113   8.110   8.139  10.404 -1.3826  0.2293  1.4145
28426SOL     OW91114  11.626  11.687  11.285  0.7050  0.3732  0.3531
28426SOL    HW191115  11.532  11.685  11.268  0.3419 -0.2681  2.2429
28426SOL    HW291116  11.656  11.767  11.242 -0.1971 -0.6679 -2.5021
28427SOL     OW91117   1.498   9.201  11.140 -0.5742 -0.4363 -0.1084
28427SOL    HW191118   1.406   9.213  11.165 -0.3536  2.4029 -0.3199
28427SOL    HW291119   1.546   9.263  11.194  0.9125 -0.0444 -1.7857
28428SOL     OW91120   9.384   1.393   6.846  0.0689 -0.0735  0.1236
28428SOL    HW191121   9.371   1.304   6.815  1.0945 -0.0841 -0.3118
28428SOL    HW291122   9.469   1.391   6.890  1.1861  1.1838 -1.8515
28429SOL     OW91123   6.563   7.904   8.861 -0.4546 -0.0989  0.1160
28429SOL    HW191124   6.574   7.913   8.766 -0.1106  1.2724  0.2665
28429SOL    HW291125   6.573   7.993   8.895  0.3130 -0.6881  1.5280
28430SOL     OW91126   1.287   5.199   1.698 -0.1381  0.6454 -0.5520
28430SOL    HW191127   1.192   5.190   1.692  0.1695 -3.1150 -2.0627
28430SOL    HW291128   1.309   5.168   1.786 -0.1856 -0.2952 -0.8652
28431SOL     OW91129   5.687   6.101   9.525 -0.1383 -0.3072 -0.0241
28431SOL    HW191130   5.693   6.126   9.617 -1.3526  1.4249 -0.3633
28431SOL    HW291131   5.713   6.179   9.477 -0.2848 -0.9310 -1.1552
28432SOL     OW91132  11.473   2.634   9.735  0.0303 -0.2453 -0.0279
28432SOL    HW191133  11.405   2.661   9.672  0.9091 -0.3976 -1.0833
28432SOL    HW291134  11.532   2.709   9.738  0.5215 -0.6307 -0.1316
28433SOL     OW91135   6.758   3.671   4.777 -0.3208  0.5166  0.2004
28433SOL    HW191136   6.803   3.599   4.734  1.2177  1.2384  0.5144
28433SOL    HW291137   6.674   3.634   4.806  0.6786 -1.3086  0.8978
28434SOL     OW91138   2.842   5.564   2.891 -0.2030  0.2822  0.5793
28434SOL    HW191139   2.851   5.659   2.881 -1.3676  0.5454  1.6908
28434SOL    HW291140   2.831   5.531   2.802 -1.5352  1.4365  0.2744
28435SOL     OW91141   0.949   2.804  12.327  0.1379 -0.5155 -0.1800
28435SOL    HW191142   0.994   2.842  12.251  0.4534 -0.7620 -0.1178
28435SOL    HW291143   0.976   2.859  12.401 -1.3868  0.6805 -0.4747
28436SOL     OW91144   1.479  10.606   8.730  0.2799 -0.0885  0.3821
28436SOL    HW191145   1.456  10.677   8.789 -1.5508 -0.3780  0.0914
28436SOL    HW291146   1.455  10.526   8.778 -0.2500 -0.3712 -0.3242
28437SOL     OW91147   7.890   8.409   1.798 -0.1037 -0.9360 -0.1187
28437SOL    HW191148   7.940   8.435   1.721  0.2984 -0.6620  0.2292
28437SOL    HW291149   7.949   8.425   1.871  0.0510 -2.5553  0.1406
28438SOL     OW91150   2.057   9.007   0.730 -0.1989 -0.1282  0.3179
28438SOL    HW191151   2.124   8.989   0.663  0.3667 -0.4623  0.9576
28438SOL    HW291152   1.994   8.936   0.720  0.3067 -0.6375  0.6586
28439SOL     OW91153   5.688   9.468   2.534  0.4221 -0.4888  0.5261
28439SOL    HW191154   5.651   9.530   2.471  1.6287 -0.9490 -0.6827
28439SOL    HW291155   5.638   9.387   2.518  0.3006 -0.4297  0.6047
28440SOL     OW91156  11.197   0.605   2.280  0.1257  0.1677  0.1614
28440SOL    HW191157  11.289   0.582   2.268 -0.0189 -0.9897  1.1345
28440SOL    HW291158  11.194   0.652   2.364 -0.2662 -0.4667  0.5131
28441SOL     OW91159   9.284   4.670   3.170  0.0984  0.1187 -0.2691
28441SOL    HW191160   9.372   4.707   3.160 -0.0573  1.0154  1.3116
28441SOL    HW291161   9.283   4.595   3.111  2.5980 -1.1061  1.0705
28442SOL     OW91162   4.604  10.989  11.698  0.0056 -0.5785  1.5161
28442SOL    HW191163   4.564  10.920  11.752 -1.1992 -2.6983 -1.7665
28442SOL    HW291164   4.533  11.017  11.640  1.6966  0.0491 -0.3534
28443SOL     OW91165  12.128  10.603   0.845 -0.4985 -0.2160 -0.4838
28443SOL    HW191166  12.162  10.660   0.914 -1.5983  1.5589 -1.3444
28443SOL    HW291167  12.121  10.517   0.886 -0.1878  0.5726  1.3005
28444SOL     OW91168   5.140   0.694   2.006  0.1212  0.5947 -0.2934
28444SOL    HW191169   5.062   0.747   2.023  0.2367  0.4816  0.6177
28444SOL    HW291170   5.107   0.616   1.962 -0.4048  0.1443  0.8521
28445SOL     OW91171   9.838   2.546  11.560  0.0800  0.4859 -0.6017
28445SOL    HW191172   9.785   2.501  11.495  2.7194  1.2377 -3.5032
28445SOL    HW291173   9.911   2.486  11.578  0.2669  0.9811  0.4126
28446SOL     OW91174   9.120   6.852   4.106  0.5350 -0.3506  0.2827
28446SOL    HW191175   9.104   6.846   4.012  1.7313  2.2753 -0.1810
28446SOL    HW291176   9.045   6.902   4.139  1.9155  2.0489  0.0057
28447SOL     OW91177   9.520   4.409   0.997 -0.2998 -0.3352 -0.5985
28447SOL    HW191178   9.524   4.402   0.901  0.2085  2.1533 -0.8107
28447SOL    HW291179   9.462   4.337   1.023  0.1713 -1.5758 -2.6759
28448SOL     OW91180   0.582   0.669   0.405  0.5429 -0.0278  0.6865
28448SOL    HW191181   0.560   0.676   0.312 -0.6628  1.1881  1.0265
28448SOL    HW291182   0.501   0.692   0.450  0.4306 -2.8517  2.0914
28449SOL     OW91183   0.321  11.484   0.564  0.5214  0.3675 -0.0997
28449SOL    HW191184   0.239  11.483   0.613  0.7544 -0.4900  0.2949
28449SOL    HW291185   0.388  11.505   0.630  1.0383 -2.3226  0.3363
28450SOL     OW91186   5.492   3.677   3.814  0.1662  0.1460 -0.4553
28450SOL    HW191187   5.441   3.611   3.862  0.0684 -0.2242 -1.0593
28450SOL    HW291188   5.501   3.641   3.726 -0.0587  1.0400 -0.8509
28451SOL     OW91189   0.865   4.068  11.748 -0.5839  0.7661 -0.5955
28451SOL    HW191190   0.839   3.980  11.722  1.4002  0.4278 -1.6243
28451SOL    HW291191   0.853   4.069  11.843  0.6058 -1.1128 -0.3624
28452SOL     OW91192   8.176   2.119   8.436  0.3512  0.6327 -0.5471
28452SOL    HW191193   8.127   2.047   8.397  0.4337 -0.6116  1.4615
28452SOL    HW291194   8.266   2.107   8.404  0.4731 -0.5191  0.1524
28453SOL     OW91195  11.661   4.963   7.092  0.8981  0.3800 -0.1032
28453SOL    HW191196  11.693   4.880   7.127 -0.1333  0.1930  0.4408
28453SOL    HW291197  11.601   4.938   7.022 -0.3490  0.5919  0.8454
28454SOL     OW91198   5.333  10.814   0.541 -0.2252 -0.3562  0.0282
28454SOL    HW191199   5.366  10.886   0.595 -0.0595 -1.4152  1.3833
28454SOL    HW291200   5.364  10.835   0.453 -0.0953  1.1685  0.4038
28455SOL     OW91201   4.639   9.914   6.571  0.1378  0.0456  0.5965
28455SOL    HW191202   4.612  10.002   6.544 -5.5244 -1.4577  0.0093
28455SOL    HW291203   4.674   9.874   6.491 -1.0652  0.6138 -0.2486
28456SOL     OW91204   6.322   7.648   3.338 -0.0357  0.0993 -0.0228
28456SOL    HW191205   6.293   7.572   3.387  0.0639 -0.2659 -0.5281
28456SOL    HW291206   6.398   7.618   3.288  1.1353  0.9877  1.1333
28457SOL     OW91207   6.849   5.677   0.565 -0.8739  0.2386  0.6736
28457SOL    HW191208   6.810   5.761   0.540 -1.0869  0.2642  1.0799
28457SOL    HW291209   6.940   5.698   0.585 -0.2763 -0.0303 -1.4974
28458SOL     OW91210   4.903   5.352   3.578 -0.1076 -0.3758  0.2871
28458SOL    HW191211   4.962   5.276   3.584 -0.8284 -0.9607  0.1521
28458SOL    HW291212   4.843   5.341   3.652 -0.3913 -0.0935  0.1007
28459SOL     OW91213   2.656   9.772   7.315  0.3357  0.3094  0.5070
28459SOL    HW191214   2.649   9.745   7.224  3.6105  2.3473 -0.5349
28459SOL    HW291215   2.710   9.706   7.357 -1.3896 -0.7728  1.1581
28460SOL     OW91216   7.774   1.693   5.295  0.8651  0.4870 -0.1927
28460SOL    HW191217   7.766   1.776   5.248  2.1351  0.9654  0.3817
28460SOL    HW291218   7.784   1.719   5.387 -0.3384 -0.3841  0.2112
28461SOL     OW91219   9.117   7.755   9.204  0.2731  0.2999  0.5002
28461SOL    HW191220   9.170   7.814   9.256 -0.1477  0.5139  0.6903
28461SOL    HW291221   9.065   7.705   9.267 -0.1193  0.4452  0.2996
28462SOL     OW91222   5.315   3.722   9.938  0.2833  0.6579  0.1605
28462SOL    HW191223   5.226   3.723   9.902 -0.0307  1.9423  0.9106
28462SOL    HW291224   5.346   3.632   9.922 -0.7668  0.4651 -0.9919
28463SOL     OW91225   9.402   6.548   0.484  0.1528 -0.0601 -0.5143
28463SOL    HW191226   9.489   6.516   0.507 -0.4642 -0.8249  0.8435
28463SOL    HW291227   9.402   6.639   0.511 -0.4556 -0.8436  2.5046
28464SOL     OW91228   7.863   0.167   6.056  0.5667 -0.2959 -0.1473
28464SOL    HW191229   7.941   0.208   6.017  0.4654  0.6307  0.5809
28464SOL    HW291230   7.811   0.138   5.981  1.3150 -0.3658 -0.6542
28465SOL     OW91231   9.376   3.637   2.206  0.6605  0.1142 -0.0066
28465SOL    HW191232   9.321   3.588   2.144 -0.7381  1.7337 -0.1162
28465SOL    HW291233   9.329   3.632   2.289  0.9871  0.5100  0.2048
28466SOL     OW91234   9.055   2.535   3.149 -0.0221  0.2035  0.2938
28466SOL    HW191235   8.980   2.579   3.189  0.0858  0.5831  0.0847
28466SOL    HW291236   9.098   2.603   3.098  0.9020  0.1722  1.0105
28467SOL     OW91237   7.801   6.020   7.937 -0.3358  0.2244  0.3531
28467SOL    HW191238   7.763   6.046   8.021 -0.2412  1.9558 -0.1136
28467SOL    HW291239   7.742   6.056   7.871 -0.0525 -0.5589 -0.3432
28468SOL     OW91240   0.289   0.711   5.815 -0.6303  0.3962 -0.0524
28468SOL    HW191241   0.238   0.790   5.798 -1.6534 -0.5514 -1.6034
28468SOL    HW291242   0.233   0.639   5.788  0.8065 -0.8114  0.0104
28469SOL     OW91243  11.206   6.735   1.509  0.1081  0.5622 -0.2734
28469SOL    HW191244  11.129   6.714   1.457  0.1236 -0.5172  0.1119
28469SOL    HW291245  11.275   6.679   1.475  0.7548  1.5592 -0.6506
28470SOL     OW91246  11.933   7.696   3.736  0.2140  0.0959 -0.3922
28470SOL    HW191247  11.844   7.674   3.710  0.1669 -1.0891  0.6532
28470SOL    HW291248  11.931   7.791   3.751 -0.6835  0.1915 -1.0472
28471SOL     OW91249   3.067  10.727   0.293  0.2846 -0.1505  0.9230
28471SOL    HW191250   3.128  10.743   0.365 -1.7400 -0.8148  2.9402
28471SOL    HW291251   3.009  10.658   0.327 -1.1936  0.0152 -1.1001
28472SOL     OW91252   0.850   2.202   1.616  0.1294  0.0957  0.2970
28472SOL    HW191253   0.838   2.296   1.607 -0.8896 -0.0790 -0.2399
28472SOL    HW291254   0.771   2.163   1.579  0.1164 -0.9428  1.3454
28473SOL     OW91255   3.962   0.438   0.306 -0.0209  0.4712 -0.1959
28473SOL    HW191256   3.922   0.422   0.220  1.4531  1.5222 -1.1445
28473SOL    HW291257   3.891   0.469   0.361 -1.3030 -1.6233 -0.5759
28474SOL     OW91258   5.898   3.672   5.325 -0.0836 -0.3638 -0.1224
28474SOL    HW191259   5.972   3.663   5.386 -0.0594 -1.0028 -0.2367
28474SOL    HW291260   5.884   3.767   5.318 -1.6748 -0.2772  2.7769
28475SOL     OW91261   7.096   0.365   8.175 -0.3259 -0.1003 -0.3287
28475SOL    HW191262   7.043   0.346   8.253 -0.1009  1.6086  0.2901
28475SOL    HW291263   7.186   0.351   8.203 -0.1737  1.4973  0.0674
28476SOL     OW91264   4.771   0.311  11.376  0.3952 -0.0460  0.3474
28476SOL    HW191265   4.705   0.283  11.440 -0.5137 -2.1515 -1.3673
28476SOL    HW291266   4.827   0.372  11.424 -1.0236 -0.4984  2.7405
28477SOL     OW91267   8.130   1.036  11.998  0.3066 -0.0252  0.0736
28477SOL    HW191268   8.037   1.024  12.018 -0.3408  0.7762 -2.0866
28477SOL    HW291269   8.170   1.063  12.080 -1.2964 -0.7457  1.1358
28478SOL     OW91270  10.270   8.395   6.084  0.2534 -0.1859  0.2218
28478SOL    HW191271  10.357   8.357   6.066  0.0694 -0.0845 -0.9686
28478SOL    HW291272  10.280   8.488   6.063 -0.4572 -0.3947 -1.1622
28479SOL     OW91273  11.298  10.365   3.691 -0.2842 -0.4046 -0.3847
28479SOL    HW191274  11.292  10.423   3.767 -2.0172 -1.8811  0.6790
28479SOL    HW291275  11.207  10.339   3.673  0.1572 -0.6384 -2.5505
28480SOL     OW91276  11.134  10.680   9.923  0.2454 -0.2122 -0.8153
28480SOL    HW191277  11.137  10.620   9.997  0.1695  3.5502  2.6352
28480SOL    HW291278  11.226  10.696   9.901  0.7028  2.4165  2.2130
28481SOL     OW91279   5.908   2.900   8.308  0.3105 -0.7614 -0.1239
28481SOL    HW191280   5.960   2.828   8.273 -1.1082 -1.4442 -0.9242
28481SOL    HW291281   5.951   2.923   8.390  0.6962 -2.6603  0.2585
28482SOL     OW91282   3.501   4.419  11.608 -0.1200 -0.0916 -0.2979
28482SOL    HW191283   3.480   4.326  11.611  2.6311 -0.8395  3.2806
28482SOL    HW291284   3.493   4.448  11.699  2.0086  2.4022 -0.7897
28483SOL     OW91285   4.801   7.805   3.025 -0.3716 -0.0460 -0.0825
28483SOL    HW191286   4.786   7.721   2.982  1.3066 -0.4636  0.1125
28483SOL    HW291287   4.740   7.805   3.099 -0.7370 -0.8518 -0.3688
28484SOL     OW91288   1.287   0.693   2.132 -0.0444  0.0926  0.5613
28484SOL    HW191289   1.290   0.633   2.206 -0.5990 -0.9059 -0.1920
28484SOL    HW291290   1.266   0.637   2.057  3.1097  0.5862 -0.8589
28485SOL     OW91291   1.181   0.503  11.199 -0.5005 -0.5555  0.5149
28485SOL    HW191292   1.213   0.477  11.113 -0.2988 -1.6929  0.9134
28485SOL    HW291293   1.141   0.589  11.185  2.3723  0.7828 -0.0817
28486SOL     OW91294   7.414   6.647   5.937  0.5446  0.2230 -0.5430
28486SOL    HW191295   7.438   6.738   5.952 -2.4296  0.9056  0.7500
28486SOL    HW291296   7.474   6.596   5.991  0.9861  1.5504  0.2371
28487SOL     OW91297   4.944   4.054   8.360 -0.3345 -0.1143 -0.3009
28487SOL    HW191298   4.949   3.958   8.359 -0.7471 -0.1392 -0.4874
28487SOL    HW291299   4.988   4.081   8.279 -1.1066 -0.2071 -0.7695
28488SOL     OW91300  10.794  10.369   3.201 -0.6251 -0.1259 -0.4546
28488SOL    HW191301  10.806  10.350   3.294 -0.7334 -0.3149 -0.4767
28488SOL    HW291302  10.873  10.415   3.175 -1.8075  2.5740  0.4090
28489SOL     OW91303  10.777   8.242  10.504 -0.2418  0.0085  0.3553
28489SOL    HW191304  10.776   8.331  10.471 -2.4345 -0.7184 -1.7320
28489SOL    HW291305  10.860   8.206  10.472  0.2953  1.0253  0.5553
28490SOL     OW91306   5.380   2.435   6.106 -0.0812  0.1876 -0.1574
28490SOL    HW191307   5.367   2.375   6.179  0.7476 -1.3326 -1.2217
28490SOL    HW291308   5.412   2.381   6.035  0.8516  1.9181 -1.1301
28491SOL     OW91309   6.499   3.082   9.468 -0.0867 -0.2850 -0.4615
28491SOL    HW191310   6.590   3.092   9.497 -0.0966  0.3303 -0.6238
28491SOL    HW291311   6.466   3.006   9.516  0.3323 -0.1420  0.0563
28492SOL     OW91312   5.295   4.623   3.077  0.3531 -0.2127  0.2217
28492SOL    HW191313   5.298   4.717   3.094  1.9702 -0.0980 -0.5168
28492SOL    HW291314   5.203   4.606   3.056 -0.0036  1.1595  0.5298
28493SOL     OW91315   0.205   7.732   4.770  0.4069 -0.1639  0.1851
28493SOL    HW191316   0.158   7.814   4.787  0.6089  0.2845 -1.2705
28493SOL    HW291317   0.292   7.759   4.740  1.0013 -0.9569  1.1028
28494SOL     OW91318  11.643   9.781   0.056  0.1485  0.4960 -0.1764
28494SOL    HW191319  11.724   9.774   0.106 -0.0432 -2.1447 -0.1055
28494SOL    HW291320  11.576   9.744   0.114 -0.7018  0.5994 -1.0736
28495SOL     OW91321  11.199   2.991   2.990 -0.0899 -0.0229  0.0039
28495SOL    HW191322  11.293   2.980   3.005  0.3367  2.7872 -0.0720
28495SOL    HW291323  11.184   2.959   2.901  1.4117  2.0739 -1.0802
28496SOL     OW91324   2.488  12.321  11.357 -0.1853  0.4133  0.4089
28496SOL    HW191325   2.468  12.317  11.451 -0.9870 -0.4676  0.2134
28496SOL    HW291326   2.416  12.372  11.320  0.3598  1.1355  0.3176
28497SOL     OW91327   9.280   0.416  11.953 -0.0435 -0.1080  0.1687
28497SOL    HW191328   9.303   0.332  11.916  0.2353 -0.1244  0.3768
28497SOL    HW291329   9.361   0.449  11.991 -0.5359 -0.5944  1.7580
28498SOL     OW91330   5.112   1.021   1.787  0.2367 -0.1211 -0.1184
28498SOL    HW191331   5.132   1.011   1.880  1.0821 -2.3965 -0.4798
28498SOL    HW291332   5.117   0.933   1.752  0.8106  0.7929 -2.5179
28499SOL     OW91333   8.008   6.115   3.832  0.2763  0.1893  0.5352
28499SOL    HW191334   8.063   6.121   3.910  1.3097  1.0069 -0.2285
28499SOL    HW291335   7.964   6.030   3.840  0.0323  0.4370  2.1984
28500SOL     OW91336   8.390   0.204   9.544  0.4213  0.2379  0.1652
28500SOL    HW191337   8.376   0.115   9.511 -0.0156 -0.0143  0.9766
28500SOL    HW291338   8.447   0.245   9.480  1.3735 -0.9248  0.2212
28501SOL     OW91339   7.155   7.751   1.580 -0.3763 -0.2326  0.5583
28501SOL    HW191340   7.117   7.808   1.646 -0.5377 -0.3685  0.5844
28501SOL    HW291341   7.141   7.797   1.497  0.8874  0.4986  0.7338
28502SOL     OW91342   0.699   0.382   2.056 -0.2232 -0.1241  0.2528
28502SOL    HW191343   0.693   0.303   2.109 -0.2251 -0.7468 -0.6544
28502SOL    HW291344   0.712   0.453   2.119 -2.0748 -0.5897  1.2490
28503SOL     OW91345  11.716   4.066   3.968 -0.3764 -0.1060 -0.2291
28503SOL    HW191346  11.646   4.106   3.916 -0.2247 -0.2218 -0.5266
28503SOL    HW291347  11.684   3.978   3.986 -0.4203 -0.0725 -0.1446
28504SOL     OW91348   6.528   2.199   3.302 -0.3335  0.0553  0.4004
28504SOL    HW191349   6.497   2.242   3.222 -2.0237  0.9501  1.4700
28504SOL    HW291350   6.523   2.106   3.283 -3.1087  0.1571  0.1949
28505SOL     OW91351   1.953  10.801   9.584 -0.4542  0.4046 -0.4457
28505SOL    HW191352   2.036  10.756   9.568 -0.5591  0.0566 -0.0404
28505SOL    HW291353   1.898  10.735   9.626 -1.1913  0.4150 -1.3764
28506SOL     OW91354   9.304  10.157  10.253  0.1757  0.4480 -0.2532
28506SOL    HW191355   9.292  10.173  10.347 -0.6485  0.8045 -0.4153
28506SOL    HW291356   9.346  10.071  10.249 -0.5558  0.0474  0.4151
28507SOL     OW91357   7.734   1.044   5.402  0.5850  0.0699  0.1793
28507SOL    HW191358   7.730   0.964   5.454  2.3411 -0.9973 -1.2465
28507SOL    HW291359   7.827   1.063   5.393  0.2166  2.5662  0.8372
28508SOL     OW91360   9.149   8.145   1.237 -0.1478  0.3143  0.3437
28508SOL    HW191361   9.227   8.171   1.285  0.3022 -2.3580  1.2334
28508SOL    HW291362   9.183   8.110   1.154 -0.3819 -0.6665  0.6476
28509SOL     OW91363   7.453   2.581   6.454  0.1209  0.0953  0.1790
28509SOL    HW191364   7.442   2.663   6.405  1.0208  0.8002  1.1206
28509SOL    HW291365   7.418   2.600   6.541 -0.4527 -0.8063  0.1603
28510SOL     OW91366   0.172   5.583   0.414 -0.8548 -0.0628  0.2264
28510SOL    HW191367   0.240   5.647   0.434 -0.5611 -0.6182  1.0347
28510SOL    HW291368   0.146   5.603   0.324 -2.4647  2.7521  1.1867
28511SOL     OW91369  12.134  12.166   1.791  0.9583  0.3453  0.1660
28511SOL    HW191370  12.174  12.235   1.738  1.8852 -0.0963  0.2859
28511SOL    HW291371  12.112  12.098   1.727  2.9286 -0.5924  0.4245
28512SOL     OW91372  12.193  11.591  10.066  0.1646 -0.0767 -0.2490
28512SOL    HW191373  12.233  11.549   9.990  1.3868  1.2542 -0.3683
28512SOL    HW291374  12.255  11.577  10.137  0.6964  1.6447 -0.3305
28513SOL     OW91375  10.531   5.179   4.023 -0.1483 -0.4013 -0.2633
28513SOL    HW191376  10.573   5.198   4.107 -0.2156 -2.6690  0.3404
28513SOL    HW291377  10.578   5.234   3.959  0.3593  0.8320  1.1173
28514SOL     OW91378   5.927   7.493   1.851  0.1194  0.4268  0.1087
28514SOL    HW191379   5.942   7.399   1.842  0.9094  0.7520 -3.1127
28514SOL    HW291380   5.852   7.511   1.795  0.0535  1.7721  0.5932
28515SOL     OW91381   5.545  10.003   3.449 -0.9043  0.2967 -0.7808
28515SOL    HW191382   5.626   9.973   3.407 -1.4314 -0.0206 -1.5984
28515SOL    HW291383   5.514   9.926   3.498  0.2670  0.9720  1.1272
28516SOL     OW91384   8.416  10.683  11.193  0.2630  0.2510 -0.2573
28516SOL    HW191385   8.388  10.601  11.153 -0.2171  0.4314 -0.2891
28516SOL    HW291386   8.371  10.752  11.144  0.4216  0.5227 -0.0321
28517SOL     OW91387   3.414   4.271   7.885 -0.7269 -0.3742 -0.6252
28517SOL    HW191388   3.353   4.307   7.949 -0.0662  0.5817 -0.4968
28517SOL    HW291389   3.438   4.347   7.831  0.2010 -0.7628 -0.7756
28518SOL     OW91390   2.579  10.566   5.792  0.2820 -0.8908 -0.4149
28518SOL    HW191391   2.565  10.476   5.760 -0.1433 -0.8323 -0.3998
28518SOL    HW291392   2.667  10.588   5.762 -0.0561 -0.8794 -1.4640
28519SOL     OW91393   7.710   3.407   0.142 -0.1254  0.5659  0.2306
28519SOL    HW191394   7.796   3.387   0.104  0.2036  0.1311  1.1873
28519SOL    HW291395   7.729   3.459   0.220 -0.6392 -0.7849  1.2811
28520SOL     OW91396   6.897   2.063   3.545  0.3433 -1.2208  0.4639
28520SOL    HW191397   6.913   2.034   3.455  0.0035 -0.2818  0.0954
28520SOL    HW291398   6.805   2.089   3.547  1.2685  2.6183 -0.0500
28521SOL     OW91399   3.843  11.056   5.894 -0.4390  0.3228  0.4275
28521SOL    HW191400   3.867  10.973   5.852  1.2477  0.9284  0.1163
28521SOL    HW291401   3.903  11.120   5.856  1.1609  0.9371  3.6616
28522SOL     OW91402  12.253  11.772   1.425 -0.0332 -0.5725 -0.3809
28522SOL    HW191403  12.176  11.797   1.476 -0.2933  0.2596 -1.1569
28522SOL    HW291404  12.219  11.753   1.338  0.8237  1.6227 -1.2732
28523SOL     OW91405   3.892   9.042   4.858  0.1717 -0.1926 -0.1913
28523SOL    HW191406   3.827   9.006   4.798 -0.3879 -0.7894  0.7378
28523SOL    HW291407   3.897   9.135   4.837 -0.6786 -0.2252 -0.5414
28524SOL     OW91408   0.121   9.899  11.300  0.3553 -0.3901 -0.0729
28524SOL    HW191409   0.041   9.848  11.286 -0.0500 -0.3146  1.7792
28524SOL    HW291410   0.110   9.938  11.386  1.6892  0.9687 -0.4820
28525SOL     OW91411   5.402   8.305   6.590 -0.3190  0.8820 -0.3047
28525SOL    HW191412   5.365   8.336   6.672  1.7691 -0.9209  1.4498
28525SOL    HW291413   5.346   8.232   6.564  0.3500 -0.0411  0.8068
28526SOL     OW91414   6.801   5.896   3.586  0.2143 -0.6637  0.3969
28526SOL    HW191415   6.789   5.855   3.501 -0.6532  0.3578  0.0160
28526SOL    HW291416   6.725   5.868   3.637 -0.8667  1.1471 -0.1548
28527SOL     OW91417  12.100   6.693   3.284 -0.2892  0.0245 -0.1095
28527SOL    HW191418  12.123   6.626   3.349  1.1542 -0.3803 -0.9995
28527SOL    HW291419  12.075   6.769   3.336  1.8024  0.0373  0.9646
28528SOL     OW91420   4.738   0.958   3.227 -0.0038  0.0067  0.3660
28528SOL    HW191421   4.674   0.971   3.157 -0.0811 -0.6563  0.3051
28528SOL    HW291422   4.791   0.884   3.196 -1.6151 -2.0240  2.1045
28529SOL     OW91423   4.723   3.009   7.375 -0.2323  0.6360  0.6739
28529SOL    HW191424   4.804   2.981   7.332  0.2636  0.8302  1.4463
28529SOL    HW291425   4.668   2.930   7.375 -0.6497  0.8928 -1.1623
28530SOL     OW91426   1.790   7.152   0.068 -0.2469 -0.3217 -0.4721
28530SOL    HW191427   1.886   7.154   0.060 -0.2342 -0.7298 -0.4196
28530SOL    HW291428   1.774   7.141   0.161 -0.3557  0.1880 -0.4237
28531SOL     OW91429   0.818   3.608   5.765 -0.7349 -0.5648 -0.2057
28531SOL    HW191430   0.908   3.632   5.742 -0.1571 -1.4615  1.0192
28531SOL    HW291431   0.801   3.530   5.711 -0.7034 -0.5270 -0.2715
28532SOL     OW91432   0.604   5.217   5.145  0.1151  0.0035 -0.5355
28532SOL    HW191433   0.602   5.150   5.077 -0.3881 -0.3240 -0.2099
28532SOL    HW291434   0.578   5.298   5.101  1.7112  0.2085 -1.1536
28533SOL     OW91435   3.718   6.233   0.341 -0.6365 -0.1021  0.0320
28533SOL    HW191436   3.680   6.181   0.412  0.6755  0.6200  1.3084
28533SOL    HW291437   3.800   6.190   0.320 -0.1561  0.6900  0.2177
28534SOL     OW91438  12.210  10.431   8.248 -0.3762  0.4777 -0.0773
28534SOL    HW191439  12.291  10.406   8.205  0.8707  2.5187  0.9108
28534SOL    HW291440  12.238  10.479   8.326 -2.5440 -0.0172  1.0920
28535SOL     OW91441   0.587   0.354   8.106  0.3439  0.1426 -0.2012
28535SOL    HW191442   0.594   0.261   8.082 -0.8324  0.0489 -0.2369
28535SOL    HW291443   0.642   0.363   8.183 -0.8753 -0.9872  0.8539
28536SOL     OW91444   4.713   5.562   0.747 -0.5441 -0.0240 -0.0824
28536SOL    HW191445   4.690   5.655   0.757 -0.2795 -0.0618  1.0255
28536SOL    HW291446   4.795   5.563   0.697 -0.3220  0.3646  0.2819
28537SOL     OW91447   3.438   4.059   8.620  0.2081 -0.1161 -0.3352
28537SOL    HW191448   3.533   4.043   8.621  0.0648 -0.9641  0.2541
28537SOL    HW291449   3.399   3.974   8.637 -0.6533  0.3230 -0.0579
28538SOL     OW91450   5.294   7.838   6.588  0.0096 -0.0546  0.5657
28538SOL    HW191451   5.200   7.840   6.603  0.2545 -0.5849  2.4791
28538SOL    HW291452   5.328   7.913   6.638  0.6326 -0.0639  0.1664
28539SOL     OW91453   1.398   4.071   4.031 -0.4062 -0.0245  0.0488
28539SOL    HW191454   1.416   4.017   4.108 -1.7947 -0.1987  0.2757
28539SOL    HW291455   1.482   4.074   3.984 -0.3939 -2.9894 -0.3486
28540SOL     OW91456   9.602   9.580   9.029  0.5840 -0.1799 -0.0953
28540SOL    HW191457   9.648   9.551   8.950  0.3547 -0.2185 -0.2162
28540SOL    HW291458   9.625   9.673   9.037 -2.2537  0.8686 -2.3069
28541SOL     OW91459   3.138   5.434   2.111  0.2734 -0.0331  0.0351
28541SOL    HW191460   3.093   5.413   2.030 -0.3530 -0.2340  0.4275
28541SOL    HW291461   3.200   5.362   2.122  0.3593 -0.0060 -0.2604
28542SOL     OW91462   3.662   9.155   3.718  0.7107 -0.3253 -0.0700
28542SOL    HW191463   3.600   9.183   3.650  1.1202 -1.3335 -0.8816
28542SOL    HW291464   3.643   9.212   3.793 -0.9264 -0.3421 -0.4394
28543SOL     OW91465   5.653   0.396   2.813  0.4298 -0.1820 -0.3891
28543SOL    HW191466   5.589   0.465   2.833  0.0187 -0.4848 -0.6641
28543SOL    HW291467   5.732   0.422   2.862 -0.3786 -0.6133  1.2185
28544SOL     OW91468   5.897   7.843  11.171 -0.5973  0.5250 -0.1806
28544SOL    HW191469   5.912   7.919  11.115  0.0699 -0.9199 -2.0676
28544SOL    HW291470   5.982   7.825  11.209 -1.2693  2.2137  2.4235
28545SOL     OW91471  10.178   5.379  11.835 -0.3035  0.6867  0.0835
28545SOL    HW191472  10.202   5.286  11.832 -0.2385  0.7378 -1.5698
28545SOL    HW291473  10.194   5.411  11.747 -3.5945  1.4403 -0.3524
28546SOL     OW91474   0.996   8.197   0.888  0.5046  0.2713  0.3346
28546SOL    HW191475   1.031   8.285   0.877  0.4070  0.3897  0.9184
28546SOL    HW291476   0.977   8.190   0.982  1.4307 -0.7088  0.4759
28547SOL     OW91477   5.513   8.150  10.525  0.3364  0.1247  0.1448
28547SOL    HW191478   5.418   8.148  10.512  0.3145 -0.4265  0.3652
28547SOL    HW291479   5.548   8.169  10.438  0.1590 -2.9409 -0.7296
28548SOL     OW91480   0.206   4.865   6.773  0.1471  0.4445 -0.4986
28548SOL    HW191481   0.146   4.936   6.751  0.0836  0.6560  0.3082
28548SOL    HW291482   0.286   4.909   6.803  0.0155  0.1865  0.2549
28549SOL     OW91483  10.069   9.621   1.723 -0.4336  0.4888 -0.0923
28549SOL    HW191484  10.138   9.684   1.747 -2.0033  1.7959  1.1879
28549SOL    HW291485  10.108   9.570   1.653  1.1334  2.5604 -0.8529
28550SOL     OW91486   8.688   7.572   0.138 -0.4765 -0.0483 -0.3047
28550SOL    HW191487   8.594   7.557   0.133 -0.5476  0.8114 -2.6463
28550SOL    HW291488   8.726   7.484   0.138 -1.2537 -0.4262  1.4164
28551SOL     OW91489   8.888   9.055   8.092  0.4605 -0.4761 -0.0323
28551SOL    HW191490   8.874   9.032   8.184  3.8172 -2.4661  0.1507
28551SOL    HW291491   8.886   9.151   8.091 -0.1093 -0.4072  2.0245
28552SOL     OW91492   6.090  11.682   6.961  0.5899 -0.2615  0.0172
28552SOL    HW191493   6.103  11.620   7.033 -0.6847 -0.7579 -0.1641
28552SOL    HW291494   6.042  11.633   6.895 -0.8983  1.0186  0.0692
28553SOL     OW91495   6.437   6.528  11.904  0.2282  0.1502 -0.4249
28553SOL    HW191496   6.443   6.622  11.924  2.0694 -0.3234  1.5236
28553SOL    HW291497   6.351   6.502  11.938  0.9076  0.5735  1.7568
28554SOL     OW91498   4.646   1.050   6.458  0.2881 -0.1767  0.1490
28554SOL    HW191499   4.650   1.007   6.544  0.7440  1.5213  1.0391
28554SOL    HW291500   4.572   1.111   6.466 -1.9515 -2.4021 -1.9377
28555SOL     OW91501   6.944   2.192   6.120 -0.6163 -0.2014  0.3490
28555SOL    HW191502   7.017   2.143   6.157 -1.1105 -1.7164 -0.5693
28555SOL    HW291503   6.908   2.134   6.052 -1.6054  1.2071 -0.3925
28556SOL     OW91504   8.856   8.068   9.766  0.2178 -0.0442  0.3090
28556SOL    HW191505   8.924   8.046   9.703  0.4330  1.7843 -0.1673
28556SOL    HW291506   8.782   8.096   9.713 -0.6724 -1.2895  0.8416
28557SOL     OW91507   5.674   9.926  12.067  0.0520 -0.4473  0.1155
28557SOL    HW191508   5.703   9.838  12.043 -2.3024 -0.8329 -1.6404
28557SOL    HW291509   5.737   9.984  12.023  1.2169 -1.2046  0.7192
28558SOL     OW91510   2.475   4.893   8.305  0.3807  0.1758  0.7000
28558SOL    HW191511   2.387   4.869   8.277  0.8665  0.5251 -1.3123
28558SOL    HW291512   2.508   4.816   8.351  0.0270 -1.0349 -0.9892
28559SOL     OW91513  11.237   8.725  11.421 -0.5989  0.3168  0.0425
28559SOL    HW191514  11.276   8.808  11.450 -0.1006  0.1516 -0.1614
28559SOL    HW291515  11.189   8.694  11.498 -2.5022  1.7858 -0.4428
28560SOL     OW91516   7.100   5.014  10.625  0.2495 -0.1433  0.0138
28560SOL    HW191517   7.010   4.997  10.599  0.1590  0.6371 -0.1897
28560SOL    HW291518   7.150   4.944  10.582 -0.2842 -0.7805  0.4000
28561SOL     OW91519   2.175   7.966   1.698 -0.4078 -0.7018  0.0525
28561SOL    HW191520   2.089   7.923   1.699 -0.1848 -1.1538  0.5961
28561SOL    HW291521   2.172   8.025   1.623 -0.2921 -2.5541 -1.4724
28562SOL     OW91522   7.516   7.462   5.313  0.3052  0.1718 -0.4242
28562SOL    HW191523   7.565   7.536   5.278 -1.1892  0.8126 -1.2878
28562SOL    HW291524   7.455   7.501   5.376 -0.3752 -0.3291 -0.7550
28563SOL     OW91525   3.674   0.323   6.477 -0.0479  0.0190  0.3685
28563SOL    HW191526   3.745   0.372   6.434  0.6277 -0.0546  1.3578
28563SOL    HW291527   3.595   0.351   6.431  0.5277  0.7206 -0.2382
28564SOL     OW91528  10.412  10.100   0.154  0.6339  0.0685  0.3390
28564SOL    HW191529  10.352  10.145   0.094  1.8343  0.7533 -0.4068
28564SOL    HW291530  10.360  10.031   0.193 -0.0631 -0.8750 -2.0385
28565SOL     OW91531   3.994   6.084   9.952 -0.3781 -0.2425  0.2506
28565SOL    HW191532   3.910   6.038   9.955 -0.2859 -0.4640 -0.4584
28565SOL    HW291533   3.970   6.177   9.957 -0.7384 -0.2621 -0.8800
28566SOL     OW91534   0.252   3.004   8.733 -0.1846  0.1209 -0.3710
28566SOL    HW191535   0.165   2.981   8.701  0.6607 -2.2866 -1.1792
28566SOL    HW291536   0.259   3.098   8.719 -2.6542  0.3944 -0.1986
28567SOL     OW91537   3.964   2.293   7.941 -0.2504 -0.2019 -0.0568
28567SOL    HW191538   3.985   2.262   7.853 -1.3940 -2.9542  0.5368
28567SOL    HW291539   3.977   2.216   7.997  0.0539  1.3660  2.1412
28568SOL     OW91540   3.927  11.104   1.835  0.7861  0.3370 -0.4764
28568SOL    HW191541   3.867  11.065   1.899  0.5013  0.2089 -0.8235
28568SOL    HW291542   4.006  11.125   1.886  0.9333 -0.6583 -0.2835
28569SOL     OW91543  11.091   8.639   9.006 -0.0708  0.3863  0.1237
28569SOL    HW191544  11.183   8.635   9.031  0.3504  2.0238 -1.0231
28569SOL    HW291545  11.043   8.635   9.089  0.9521 -1.3719  0.6847
28570SOL     OW91546   3.847   3.906   7.596  0.2264  0.5641  0.4110
28570SOL    HW191547   3.802   3.840   7.542  2.6123  0.4393 -1.6249
28570SOL    HW291548   3.889   3.856   7.665 -0.9909  0.4516  1.1033
28571SOL     OW91549   2.918   4.362   1.460 -0.1258 -0.1765 -0.0506
28571SOL    HW191550   2.964   4.438   1.495 -0.7020  0.5622 -0.8394
28571SOL    HW291551   2.960   4.345   1.376  1.0908 -1.7888  0.8121
28572SOL     OW91552   6.111   3.878   3.737 -0.4215  0.1484  0.2682
28572SOL    HW191553   6.158   3.862   3.655  0.3757  0.7255  0.6060
28572SOL    HW291554   6.037   3.817   3.734 -0.3844  0.1325 -0.8627
28573SOL     OW91555  10.142   8.537   9.155  0.0342  0.7827 -0.1549
28573SOL    HW191556  10.048   8.526   9.140  0.2016  0.9663 -1.4370
28573SOL    HW291557  10.161   8.482   9.230 -0.6321 -1.3882 -1.4882
28574SOL     OW91558   8.499   7.084   9.389  0.5926 -0.5338 -0.4045
28574SOL    HW191559   8.431   7.072   9.455 -1.1005 -3.7955 -2.4636
28574SOL    HW291560   8.483   7.172   9.354 -0.0423  0.2630  1.7240
28575SOL     OW91561   9.097   9.302   8.096 -0.1722 -0.4396 -0.2092
28575SOL    HW191562   9.013   9.345   8.115 -0.2508 -0.2238 -1.0279
28575SOL    HW291563   9.135   9.286   8.183 -0.6155  0.3374  0.1452
28576SOL     OW91564   9.549   4.263   1.525  0.0809 -0.5154  0.1999
28576SOL    HW191565   9.636   4.278   1.563 -0.0188  0.1637  0.1821
28576SOL    HW291566   9.566   4.249   1.432  0.2914 -1.7975  0.4134
28577SOL     OW91567   2.230   2.798  10.862  0.1588 -0.3853  0.1668
28577SOL    HW191568   2.315   2.793  10.817  0.8802  0.8238  1.2969
28577SOL    HW291569   2.185   2.718  10.838  1.9102 -1.4000  0.0859
28578SOL     OW91570   2.698  10.868  11.566 -0.3561  0.0549  0.0384
28578SOL    HW191571   2.732  10.850  11.478  1.9652  0.6477  0.7423
28578SOL    HW291572   2.697  10.964  11.572 -1.3840  0.0342  0.3638
28579SOL     OW91573   3.255  10.465  10.748 -0.1061  0.7342  0.2073
28579SOL    HW191574   3.289  10.428  10.830  1.7155 -1.0235 -1.2508
28579SOL    HW291575   3.183  10.407  10.724  1.0427 -0.3650 -0.7163
28580SOL     OW91576  11.111  12.110   5.104 -0.2193 -0.5829  0.3261
28580SOL    HW191577  11.077  12.070   5.184 -3.3691  0.1083 -0.5398
28580SOL    HW291578  11.046  12.175   5.080  1.8162  0.8950 -1.5618
28581SOL     OW91579   8.530   7.135   7.416  0.7815 -0.8535  0.1060
28581SOL    HW191580   8.575   7.163   7.336  0.1570  0.4641  0.1913
28581SOL    HW291581   8.551   7.203   7.480 -1.0608 -0.3566  0.2348
28582SOL     OW91582   6.208   2.642   5.354  0.6089 -0.6732  0.4099
28582SOL    HW191583   6.135   2.593   5.317  1.6309 -1.6809 -0.3249
28582SOL    HW291584   6.245   2.689   5.279  1.8496 -1.6369  0.4048
28583SOL     OW91585   8.555   5.075   0.294  0.1863 -0.2856 -0.2638
28583SOL    HW191586   8.499   5.151   0.310  0.4303  0.3203 -2.0605
28583SOL    HW291587   8.644   5.108   0.309  0.2388 -0.4504 -0.2155
28584SOL     OW91588   2.161   3.864   2.234 -0.3623 -0.3259  0.1373
28584SOL    HW191589   2.183   3.932   2.298 -2.8487  0.9295 -0.2303
28584SOL    HW291590   2.148   3.910   2.152  1.3940 -1.7557 -1.0405
28585SOL     OW91591  10.921   1.571   2.828  0.2007  0.3873 -0.8689
28585SOL    HW191592  10.885   1.594   2.743  0.0718 -0.0049 -0.9183
28585SOL    HW291593  10.949   1.655   2.865 -2.3598  0.9810 -0.0601
28586SOL     OW91594   6.306   4.926  11.673 -0.2423 -0.7379  0.0250
28586SOL    HW191595   6.253   5.006  11.670 -1.6352 -1.6386 -0.3910
28586SOL    HW291596   6.243   4.855  11.661  0.8393 -1.9666  1.2995
28587SOL     OW91597  11.247   8.258   4.411  0.1257  0.2121  0.3177
28587SOL    HW191598  11.192   8.297   4.479  0.6145  0.9126  0.3166
28587SOL    HW291599  11.328   8.234   4.456  0.4071  0.5752  0.0115
28588SOL     OW91600  10.451   8.505   4.640  0.0907 -0.1655  0.1999
28588SOL    HW191601  10.374   8.551   4.673  1.2441  0.3429  2.3729
28588SOL    HW291602  10.439   8.414   4.667 -0.5113 -0.4368 -0.9426
28589SOL     OW91603   3.074   7.860   4.855 -0.0863  0.6180 -0.1283
28589SOL    HW191604   3.070   7.772   4.891 -1.2862  0.8393  0.3247
28589SOL    HW291605   3.033   7.916   4.922 -0.1954  1.3734 -0.8052
28590SOL     OW91606   9.524   6.352   4.612 -0.3149 -0.0835  0.3468
28590SOL    HW191607   9.447   6.390   4.569 -1.7538 -2.8163  0.2599
28590SOL    HW291608   9.582   6.327   4.540 -0.4771 -0.2241  0.2644
28591SOL     OW91609   4.419  10.982  10.235  0.3136  0.0384 -0.4293
28591SOL    HW191610   4.439  11.020  10.150  1.1270  0.9360  0.1514
28591SOL    HW291611   4.504  10.964  10.274 -0.0518 -0.4420  0.1661
28592SOL     OW91612   1.892  10.351   0.911  0.1510  0.0367 -0.3207
28592SOL    HW191613   1.882  10.446   0.919  0.8879  0.0432  0.8262
28592SOL    HW291614   1.805  10.319   0.890 -0.4200  0.8447  0.7275
28593SOL     OW91615   8.957   9.820   0.073  0.1059 -0.2757  0.5986
28593SOL    HW191616   8.902   9.831  -0.005  1.1667  0.4118 -0.0776
28593SOL    HW291617   9.040   9.863   0.050  0.6287 -0.5470  1.9079
28594SOL     OW91618   6.866   8.561  11.769 -0.0847 -0.6283  0.1576
28594SOL    HW191619   6.952   8.582  11.731 -0.8424  2.8880  0.0865
28594SOL    HW291620   6.879   8.568  11.863 -0.3048  0.1188  0.1396
28595SOL     OW91621   0.937   3.510   0.840 -0.2769 -0.3088  0.0839
28595SOL    HW191622   0.951   3.421   0.808  0.8927  0.2644 -1.0919
28595SOL    HW291623   1.021   3.534   0.880 -0.0688  0.7623 -0.9258
28596SOL     OW91624   1.176  11.887   5.465 -1.2190 -0.1799  0.6411
28596SOL    HW191625   1.266  11.908   5.436 -1.2539  0.8622  1.2507
28596SOL    HW291626   1.134  11.853   5.386 -0.5307  0.1096  0.1314
28597SOL     OW91627   0.008   5.992   2.003  0.1408 -1.3126 -0.1434
28597SOL    HW191628  -0.025   5.904   1.986 -1.8466 -0.9016  1.2078
28597SOL    HW291629   0.016   5.997   2.099 -2.2003  0.6710  0.0824
28598SOL     OW91630   3.772   7.635  11.822 -0.2769 -0.2135  0.6254
28598SOL    HW191631   3.685   7.669  11.800 -0.3301 -0.8044 -0.0954
28598SOL    HW291632   3.760   7.541  11.831  0.3729 -0.3595  0.0792
28599SOL     OW91633   8.228  11.635   1.941 -0.7628 -0.3328  0.5859
28599SOL    HW191634   8.304  11.688   1.918 -0.2499 -2.0435 -1.9793
28599SOL    HW291635   8.230  11.561   1.881 -2.7846 -2.0463  2.4600
28600SOL     OW91636   3.289   4.294   6.771  0.4416 -0.2363  0.4911
28600SOL    HW191637   3.364   4.278   6.714 -0.0316 -1.3709  0.1637
28600SOL    HW291638   3.292   4.388   6.788  2.7564 -0.4205  1.6281
28601SOL     OW91639   3.240   1.496  11.786  0.0033 -0.3792 -0.2272
28601SOL    HW191640   3.305   1.441  11.743  0.2598 -0.5838  0.4069
28601SOL    HW291641   3.185   1.435  11.835 -1.1876 -0.2969 -1.3782
28602SOL     OW91642   0.060   3.060   3.658  0.1068 -0.6300 -0.1884
28602SOL    HW191643   0.081   3.033   3.747  1.8732  1.1907  0.0353
28602SOL    HW291644   0.025   3.149   3.667  1.0866 -0.0926 -1.3431
28603SOL     OW91645   1.556   7.036   9.533 -0.6600 -0.4316 -0.2221
28603SOL    HW191646   1.503   7.111   9.560 -0.8201 -0.8163  0.5422
28603SOL    HW291647   1.627   7.031   9.597  1.2945  1.0640 -2.1377
28604SOL     OW91648   7.139   9.355   0.857  0.0341 -0.2610  0.4348
28604SOL    HW191649   7.144   9.450   0.864  1.3111 -0.3817  1.6093
28604SOL    HW291650   7.103   9.326   0.941  1.1567 -0.8913  0.7253
28605SOL     OW91651   1.593   8.434   8.490 -0.1019 -0.4012  0.9211
28605SOL    HW191652   1.590   8.401   8.580  1.3605 -1.3817  0.6494
28605SOL    HW291653   1.668   8.494   8.488 -0.8336  0.5322  0.6260
28606SOL     OW91654   2.418   0.462   7.276 -0.2025  0.5542 -0.5041
28606SOL    HW191655   2.359   0.437   7.206 -1.1003 -0.1651  0.4725
28606SOL    HW291656   2.503   0.427   7.250 -0.9323 -1.4933 -0.3158
28607SOL     OW91657   6.866   4.500   4.325 -0.2545 -0.4419 -0.5180
28607SOL    HW191658   6.892   4.537   4.410 -2.0906 -0.9291  0.3080
28607SOL    HW291659   6.825   4.416   4.347  0.6606 -1.3414 -2.0588
28608SOL     OW91660   8.904  12.316  11.571  0.4644 -0.7262  0.0462
28608SOL    HW191661   8.828  12.293  11.519  0.3292  0.1252 -0.1407
28608SOL    HW291662   8.973  12.336  11.507  0.1786  0.7266  0.1535
28609SOL     OW91663   4.854   9.965   0.578 -0.3155  0.4549  0.2758
28609SOL    HW191664   4.897  10.021   0.513 -0.6708  0.1033 -0.2674
28609SOL    HW291665   4.893   9.992   0.662 -0.7672  1.7773  0.0783
28610SOL     OW91666   4.882   4.375  10.279 -0.0508 -0.5304 -0.1976
28610SOL    HW191667   4.880   4.391  10.185  2.6494  0.2461 -0.2352
28610SOL    HW291668   4.898   4.462  10.317 -0.6708 -0.9020  0.9531
28611SOL     OW91669   3.608  11.291  11.850 -0.5553 -0.4524  0.1520
28611SOL    HW191670   3.520  11.309  11.815  0.0501 -1.2803 -1.9808
28611SOL    HW291671   3.658  11.263  11.774  1.1483 -1.5497  1.5999
28612SOL     OW91672  10.380   8.065   5.537 -0.5527 -0.0098 -0.3705
28612SOL    HW191673  10.376   8.150   5.581  0.7566 -0.9032  1.6483
28612SOL    HW291674  10.312   8.013   5.580 -0.2399 -0.4678 -0.4240
28613SOL     OW91675   6.913   3.673   9.319  1.0048 -0.0574 -0.2209
28613SOL    HW191676   6.850   3.697   9.388 -0.8717  1.9268 -2.4628
28613SOL    HW291677   6.877   3.593   9.281  1.0165 -0.0993 -0.1458
28614SOL     OW91678   9.715   8.913   3.592 -0.5763 -0.1459  0.0754
28614SOL    HW191679   9.798   8.873   3.615 -0.2164  0.6793  0.2505
28614SOL    HW291680   9.651   8.842   3.600  0.2421 -1.0536 -1.0500
28615SOL     OW91681  11.706   2.922   3.622  0.5055 -0.2888 -0.0831
28615SOL    HW191682  11.679   2.978   3.695 -0.0194  1.2849 -1.4181
28615SOL    HW291683  11.633   2.862   3.609 -0.9757  1.6541 -1.4158
28616SOL     OW91684   7.126   6.489   4.622 -0.0127  0.7254  0.0072
28616SOL    HW191685   7.114   6.394   4.630 -1.7598  0.9770  0.8983
28616SOL    HW291686   7.094   6.524   4.705  1.3559  2.0662  0.0123
28617SOL     OW91687   5.052  11.094   0.276 -0.1438 -0.2839 -0.0453
28617SOL    HW191688   4.959  11.109   0.261 -0.0168 -0.7882 -1.5491
28617SOL    HW291689   5.056  11.046   0.358 -1.3932 -2.1835 -1.0365
28618SOL     OW91690   2.455   6.642   7.803 -0.1979  0.6675 -0.2860
28618SOL    HW191691   2.397   6.716   7.784 -0.1406  1.0127  0.8194
28618SOL    HW291692   2.397   6.575   7.839 -0.0025  0.7853  0.2506
28619SOL     OW91693   9.662  12.192   3.972  0.3703 -0.5026 -0.3179
28619SOL    HW191694   9.731  12.252   4.000 -0.8250 -0.1597  2.2135
28619SOL    HW291695   9.699  12.105   3.989 -0.3582 -0.3282  3.0133
28620SOL     OW91696   5.313   1.408   0.869 -0.2829  0.2822  0.1146
28620SOL    HW191697   5.322   1.313   0.874 -0.9986  0.1732 -0.4648
28620SOL    HW291698   5.261   1.431   0.946 -1.6644 -0.0273 -0.6944
28621SOL     OW91699   7.060   1.509   0.391 -0.5854  0.0076  0.0625
28621SOL    HW191700   7.091   1.494   0.481 -1.0554  0.4967  0.3076
28621SOL    HW291701   7.097   1.436   0.341 -0.5310 -0.4124  0.7017
28622SOL     OW91702   6.922   7.030   2.372  0.1838  0.0280 -0.0605
28622SOL    HW191703   7.008   7.032   2.328 -0.6919 -0.2297 -1.8706
28622SOL    HW291704   6.913   7.118   2.410  1.1982  0.0964  0.0535
28623SOL     OW91705   8.355  11.934   2.513 -0.0466  0.1534  0.7411
28623SOL    HW191706   8.324  11.846   2.534 -0.2628  0.1102  0.2530
28623SOL    HW291707   8.403  11.961   2.591  1.5592 -1.0910  0.2299
28624SOL     OW91708   6.019   5.629   2.570  0.1660  0.0792  0.4331
28624SOL    HW191709   6.068   5.574   2.631  0.0627 -0.1087  0.3473
28624SOL    HW291710   6.080   5.699   2.546  0.4099 -0.1781  0.2931
28625SOL     OW91711   3.466  11.964   4.702  0.7321  0.1032 -0.0326
28625SOL    HW191712   3.411  11.938   4.776 -0.0432  0.7018 -0.3849
28625SOL    HW291713   3.509  12.044   4.732 -0.3305  0.9014 -0.5518
28626SOL     OW91714   0.457  11.443   1.065 -0.5373  0.0293  0.1920
28626SOL    HW191715   0.368  11.413   1.080 -1.0244  1.2207 -0.2449
28626SOL    HW291716   0.457  11.477   0.975  0.2493  0.4233  0.3282
28627SOL     OW91717   2.759  10.103  11.068  0.3622  0.7758 -0.4912
28627SOL    HW191718   2.825  10.163  11.032  1.0872  0.3357  0.0705
28627SOL    HW291719   2.805  10.057  11.139 -0.7039  0.8526  0.2788
28628SOL     OW91720   2.684   0.227   9.866  0.3596 -0.3047 -0.0254
28628SOL    HW191721   2.730   0.170   9.929  1.9894  0.9503 -0.0070
28628SOL    HW291722   2.751   0.252   9.803 -0.6452  0.5491 -0.7915
28629SOL     OW91723   9.727   3.037   9.341  0.5216  0.3630  0.0688
28629SOL    HW191724   9.750   2.946   9.357  0.6949  0.5559  0.9898
28629SOL    HW291725   9.645   3.033   9.292 -0.5341 -0.3008  1.8049
28630SOL     OW91726   6.563  11.155   6.265 -0.3752  0.5654  0.1429
28630SOL    HW191727   6.649  11.138   6.303 -0.4938  0.3834  0.3349
28630SOL    HW291728   6.503  11.154   6.340 -0.2844  2.7527  0.3151
28631SOL     OW91729   8.803   8.530   9.250 -0.2839 -0.1753 -0.1179
28631SOL    HW191730   8.805   8.612   9.200 -0.8394  1.3260  2.1604
28631SOL    HW291731   8.886   8.487   9.229 -0.4542  0.4104 -2.1954
28632SOL     OW91732   7.792   3.843   0.252  0.6157  0.1903  0.0035
28632SOL    HW191733   7.880   3.841   0.289  0.3240  0.1388  0.7014
28632SOL    HW291734   7.735   3.811   0.322 -0.1021  1.3161 -0.0417
28633SOL     OW91735   4.072   8.823   5.125  0.2702  0.4239  0.0397
28633SOL    HW191736   4.135   8.859   5.062 -0.0309 -1.3039 -1.2877
28633SOL    HW291737   4.113   8.743   5.157 -0.1985  0.5662  1.0509
28634SOL     OW91738   5.079   0.637   6.016 -0.5291 -0.7328 -0.6510
28634SOL    HW191739   5.161   0.675   5.984  0.0308 -1.0603  0.3276
28634SOL    HW291740   5.064   0.680   6.100 -1.2513 -0.8311 -0.7278
28635SOL     OW91741   2.067   5.462   3.493  0.0692 -0.0581  0.2544
28635SOL    HW191742   2.079   5.444   3.400  0.3486  0.8932  0.0896
28635SOL    HW291743   2.015   5.542   3.495 -0.8985 -0.6811  0.9357
28636SOL     OW91744  10.035   9.792  12.228 -0.0964 -0.5244 -0.2390
28636SOL    HW191745  10.007   9.782  12.319  1.0551 -1.7918  0.0131
28636SOL    HW291746  10.130   9.804  12.234  0.0526 -1.0710 -1.2831
28637SOL     OW91747  11.341   0.343   7.922  0.1472  0.0754 -0.2994
28637SOL    HW191748  11.402   0.274   7.948  0.2143  0.3648  0.3421
28637SOL    HW291749  11.325   0.327   7.829 -0.8554 -1.6034  0.1014
28638SOL     OW91750   6.087   2.708   9.975  0.0260  0.2996 -0.2141
28638SOL    HW191751   6.098   2.802   9.987  1.9946 -0.0575  1.1774
28638SOL    HW291752   6.023   2.683  10.042 -0.5194  0.6257 -0.6022
28639SOL     OW91753   7.338  10.216   3.773 -0.9411 -0.1120  0.6226
28639SOL    HW191754   7.258  10.231   3.824 -1.2364 -0.7178  0.3476
28639SOL    HW291755   7.318  10.139   3.719 -0.7075  0.6314 -0.5531
28640SOL     OW91756   6.639   3.730   7.732  0.0472 -0.3630  0.0199
28640SOL    HW191757   6.613   3.640   7.711 -1.0839  0.1156 -0.7364
28640SOL    HW291758   6.723   3.742   7.688  0.2104 -1.0388  0.1289
28641SOL     OW91759   8.847   2.586   7.892 -0.5082 -0.1036  0.0802
28641SOL    HW191760   8.862   2.616   7.981 -0.8905 -0.2696  0.2012
28641SOL    HW291761   8.780   2.646   7.857  0.6672  0.8825 -0.5893
28642SOL     OW91762   3.866   1.387   3.109 -0.5470  0.1359  0.6606
28642SOL    HW191763   3.812   1.401   3.186  1.5651  1.3980  2.0259
28642SOL    HW291764   3.847   1.298   3.081 -2.3585  0.1220  1.7915
28643SOL     OW91765   6.934   5.312   0.788 -0.0723 -0.4500 -0.1332
28643SOL    HW191766   6.898   5.263   0.862 -1.3588 -1.7398 -1.5350
28643SOL    HW291767   6.994   5.250   0.746  0.4344  0.1787 -0.3453
28644SOL     OW91768   4.816   2.907   8.128  0.1987 -0.8231  0.3814
28644SOL    HW191769   4.853   2.854   8.199  1.5440 -0.7730 -0.2587
28644SOL    HW291770   4.829   2.998   8.156 -0.7816 -0.8015  0.8096
28645SOL     OW91771   8.783   7.792  10.994 -0.2393  0.2578  0.7868
28645SOL    HW191772   8.734   7.836  10.925 -0.5917  1.3944  1.7220
28645SOL    HW291773   8.874   7.818  10.980 -0.3540  0.7486  0.9367
28646SOL     OW91774   8.345   1.838   5.804  0.0102 -0.5757 -0.1905
28646SOL    HW191775   8.285   1.866   5.873  0.1143 -1.4367  0.2643
28646SOL    HW291776   8.368   1.918   5.758 -0.3566 -0.0428  0.5405
28647SOL     OW91777   0.640   7.781   7.862 -0.0011  0.6021  0.1394
28647SOL    HW191778   0.722   7.804   7.819 -0.0916  0.7198  0.0276
28647SOL    HW291779   0.573   7.799   7.796 -0.0771  0.0474  0.0636
28648SOL     OW91780   5.551  11.907   2.066 -0.5236 -0.2519 -0.1298
28648SOL    HW191781   5.555  11.912   1.970 -1.0376  1.9797 -0.0866
28648SOL    HW291782   5.643  11.902   2.093 -0.3837 -1.2950 -0.7169
28649SOL     OW91783   7.970   9.173   0.911  0.5733  0.0497 -0.3836
28649SOL    HW191784   8.062   9.150   0.905  1.1058  1.9473 -0.0771
28649SOL    HW291785   7.936   9.160   0.822  0.8778 -1.5590 -0.2858
28650SOL     OW91786   2.675   9.873   7.907  0.1550  0.2422 -0.8637
28650SOL    HW191787   2.664   9.794   7.960  1.4203 -0.0301 -0.9798
28650SOL    HW291788   2.655   9.945   7.967  1.7551 -0.0477  0.0872
28651SOL     OW91789   2.092   6.872   5.703  0.2958 -0.2522 -0.0321
28651SOL    HW191790   2.121   6.806   5.639 -1.9367 -0.0311 -1.3670
28651SOL    HW291791   2.031   6.825   5.760  0.2779  0.1756  0.3007
28652SOL     OW91792   9.853  11.022   4.015  0.2724 -0.2764  0.1868
28652SOL    HW191793   9.773  11.014   4.067 -0.3084  0.1159 -0.6245
28652SOL    HW291794   9.900  11.096   4.053  1.5388 -2.0446  2.3055
28653SOL     OW91795   7.689   0.821   3.452  0.4595  0.6020  0.1834
28653SOL    HW191796   7.761   0.757   3.451 -0.3733 -0.5134  2.5706
28653SOL    HW291797   7.659   0.821   3.543 -2.9520  0.5592 -0.8226
28654SOL     OW91798   8.360   9.231   9.911 -0.3594  0.1001  0.3842
28654SOL    HW191799   8.321   9.164   9.967 -1.1778 -0.0020 -0.3032
28654SOL    HW291800   8.288   9.290   9.889 -0.0900  0.0458 -0.7118
28655SOL     OW91801  12.324  11.270   1.267  0.8350  0.6990 -0.1247
28655SOL    HW191802  12.385  11.342   1.283 -0.0088  1.4209 -0.0608
28655SOL    HW291803  12.310  11.271   1.172  2.4546 -0.7699 -0.4265
28656SOL     OW91804   9.480  11.319   5.882  0.3804 -0.6112  0.3739
28656SOL    HW191805   9.544  11.248   5.877  0.2884 -0.5964 -2.2562
28656SOL    HW291806   9.532  11.398   5.870  0.0592 -0.4957 -0.2799
28657SOL     OW91807   3.671  10.748   0.955  0.0385 -0.2059 -0.5689
28657SOL    HW191808   3.612  10.822   0.974  0.3977 -0.4567  1.8772
28657SOL    HW291809   3.744  10.788   0.908 -0.3378  0.7952 -0.3382
28658SOL     OW91810  10.336   2.125   4.431 -0.2335  0.1843  0.1250
28658SOL    HW191811  10.295   2.039   4.443  1.9242 -0.9577 -0.1744
28658SOL    HW291812  10.270   2.187   4.463 -2.1316 -1.4956 -0.2548
28659SOL     OW91813   7.688  11.901   3.342 -0.0326 -0.2204  0.6489
28659SOL    HW191814   7.709  11.954   3.265  0.3359  0.1450  0.9943
28659SOL    HW291815   7.599  11.926   3.365 -0.4630 -0.9515 -0.1556
28660SOL     OW91816   9.562  10.860   0.021 -0.1751 -0.1027  0.3607
28660SOL    HW191817   9.487  10.903  -0.020  0.0944 -0.7184 -0.8385
28660SOL    HW291818   9.539  10.852   0.113 -0.4971  2.0139  0.5060
28661SOL     OW91819   6.305   5.016   5.904 -0.6927 -0.5154 -0.2548
28661SOL    HW191820   6.375   5.067   5.863 -0.8014 -0.8235 -0.8279
28661SOL    HW291821   6.352   4.951   5.957 -0.5516  0.4098  0.7939
28662SOL     OW91822   3.130   9.506   4.543  0.2214 -0.1636 -0.2182
28662SOL    HW191823   3.063   9.570   4.519 -1.2805 -1.2208  0.8984
28662SOL    HW291824   3.213   9.546   4.518 -0.5697  2.6280  1.2630
28663SOL     OW91825   4.729   9.978   7.122  0.1397  0.0302 -0.4229
28663SOL    HW191826   4.694  10.056   7.078 -0.8180 -0.6264 -0.8682
28663SOL    HW291827   4.692   9.904   7.073  0.3031 -0.7174  0.5471
28664SOL     OW91828   4.308   9.130  11.271 -0.2308  0.0354  0.7804
28664SOL    HW191829   4.285   9.084  11.352  0.8725 -1.1344  0.4724
28664SOL    HW291830   4.230   9.123  11.216 -0.5083 -0.3968  1.2231
28665SOL     OW91831   9.134   2.950   5.012 -0.8951  0.4128  0.4124
28665SOL    HW191832   9.064   2.902   4.969  0.7073  1.6671 -4.2144
28665SOL    HW291833   9.091   3.029   5.046 -1.9927  0.7635 -1.5777
28666SOL     OW91834  11.009   9.976   8.875  0.8131 -0.0549  0.0719
28666SOL    HW191835  11.001  10.066   8.904 -2.1729 -0.6443  1.4629
28666SOL    HW291836  11.009   9.925   8.956 -1.2985 -1.4468 -0.7323
28667SOL     OW91837   1.693   3.021   4.690 -0.7210 -0.0005  0.1451
28667SOL    HW191838   1.681   2.939   4.737 -0.5390 -0.5532 -0.7481
28667SOL    HW291839   1.691   2.996   4.597 -2.7546  1.2772 -0.2171
28668SOL     OW91840  11.164   0.298   8.118  0.4305  0.4304  0.0490
28668SOL    HW191841  11.225   0.299   8.045  0.2276  0.3820 -0.1195
28668SOL    HW291842  11.108   0.375   8.104 -0.2449 -0.1379 -0.3783
28669SOL     OW91843  10.405   0.258  11.440  0.4923  0.1837  0.1814
28669SOL    HW191844  10.330   0.208  11.408  0.9069  0.8449 -1.9928
28669SOL    HW291845  10.435   0.308  11.364  1.8599  1.5339  1.5306
28670SOL     OW91846  10.835   0.520  11.358  0.1130 -0.1540 -0.2492
28670SOL    HW191847  10.839   0.487  11.448 -0.1266  0.7105  0.0851
28670SOL    HW291848  10.855   0.443  11.304 -0.5258 -0.8700  0.4984
28671SOL     OW91849   7.434   8.121   3.914 -0.6511 -0.0371  0.0048
28671SOL    HW191850   7.348   8.094   3.881 -1.8641  3.7482 -0.4071
28671SOL    HW291851   7.494   8.105   3.841 -1.3860 -0.7968 -0.4514
28672SOL     OW91852   6.127   5.400   3.790 -0.5365 -0.0151  0.1756
28672SOL    HW191853   6.032   5.406   3.776 -0.3415  1.3187 -0.7961
28672SOL    HW291854   6.148   5.478   3.841  0.1454  0.0754 -0.2428
28673SOL     OW91855  11.756   9.971   8.730  0.5875 -0.0284  0.4647
28673SOL    HW191856  11.842   9.967   8.772  0.7712  0.7201  0.1777
28673SOL    HW291857  11.774  10.001   8.641 -0.0609  1.2524  0.7402
28674SOL     OW91858   7.824  11.384   8.184  0.0994  0.1255 -0.0470
28674SOL    HW191859   7.761  11.371   8.255  1.3261 -0.7472  0.9201
28674SOL    HW291860   7.886  11.448   8.218 -0.5106  1.3871 -1.1982
28675SOL     OW91861   5.053  11.212   2.194  0.7317 -0.2236 -0.5957
28675SOL    HW191862   5.055  11.192   2.287  0.2290 -1.5254 -0.8332
28675SOL    HW291863   5.123  11.159   2.156 -0.9840 -2.1295 -1.3241
28676SOL     OW91864  12.106   9.253   4.589  0.4943  0.4694  0.2235
28676SOL    HW191865  12.023   9.299   4.603 -0.4579 -0.7961 -1.0231
28676SOL    HW291866  12.099   9.217   4.501  1.5202 -1.3669  0.8433
28677SOL     OW91867   5.239   0.951   6.064 -0.3158 -0.5370  0.4473
28677SOL    HW191868   5.258   1.039   6.096  2.1121 -1.7968  2.8908
28677SOL    HW291869   5.190   0.965   5.983  0.6671  3.0516  0.2932
28678SOL     OW91870   5.157   0.922   5.422  0.5635  0.0781  0.8727
28678SOL    HW191871   5.159   0.913   5.327  3.5467  0.9693  0.7717
28678SOL    HW291872   5.098   0.997   5.437  1.1504  0.8391 -0.3946
28679SOL     OW91873  10.401   1.014   1.479  0.1106  0.1852  0.2114
28679SOL    HW191874  10.451   0.999   1.560  0.2077 -1.2005 -0.0798
28679SOL    HW291875  10.444   0.960   1.414 -2.1933 -1.7053  0.1248
28680SOL     OW91876   8.762   4.867   8.112  0.7377 -0.4881  0.8522
28680SOL    HW191877   8.846   4.899   8.079  0.7955 -1.7454 -0.3720
28680SOL    HW291878   8.781   4.833   8.199  1.0875  0.9073  1.3295
28681SOL     OW91879   2.281  10.889   0.913  0.3878 -0.2075 -0.2670
28681SOL    HW191880   2.292  10.983   0.921 -0.9305  0.1805 -2.1559
28681SOL    HW291881   2.333  10.865   0.836 -0.6162 -0.6874 -0.8291
28682SOL     OW91882  10.073  10.296   5.763 -0.6355  0.4166  0.0051
28682SOL    HW191883  10.091  10.346   5.842  0.4755  2.0100 -1.1895
28682SOL    HW291884  10.158  10.287   5.720 -1.2168 -0.3685 -1.0458
28683SOL     OW91885  11.231   3.368   1.045 -0.4168 -0.9743 -0.0729
28683SOL    HW191886  11.178   3.384   1.123 -0.6873 -2.5815  0.0996
28683SOL    HW291887  11.306   3.319   1.077 -0.3481 -1.3309 -0.7650
28684SOL     OW91888   7.637   8.031   3.716 -0.0667 -0.9766 -0.2569
28684SOL    HW191889   7.668   8.119   3.695 -0.9041 -0.8921 -1.2699
28684SOL    HW291890   7.616   7.993   3.630 -0.6166 -1.8091  0.2367
28685SOL     OW91891   0.619   3.689   6.835  0.3937 -0.6198 -0.1657
28685SOL    HW191892   0.642   3.596   6.842  1.2334 -0.5153 -1.1882
28685SOL    HW291893   0.606   3.703   6.741  0.2562  0.2937 -0.0189
28686SOL     OW91894   5.792   2.468   6.005 -0.4125 -0.0603  0.2365
28686SOL    HW191895   5.761   2.388   6.047 -1.7052  0.6993  0.8001
28686SOL    HW291896   5.742   2.538   6.048  2.5133  1.3478  1.6364
28687SOL     OW91897   0.193   9.134   9.005 -0.4715 -0.3116 -0.4925
28687SOL    HW191898   0.186   9.191   9.082  0.2601 -0.0659 -0.5977
28687SOL    HW291899   0.269   9.078   9.024 -0.1825 -0.1339 -1.1054
28688SOL     OW91900   6.655   8.703   6.995  0.1370 -0.9289 -0.3378
28688SOL    HW191901   6.667   8.772   6.931  0.3225 -1.5819 -1.0238
28688SOL    HW291902   6.743   8.669   7.012  0.1980 -0.2454  0.8805
28689SOL     OW91903   9.997  10.024   7.092  0.1406  0.2561  0.7347
28689SOL    HW191904   9.983  10.075   7.013 -0.4650  1.6631  1.6939
28689SOL    HW291905   9.999  10.090   7.162  0.8113 -0.9262  1.8705
28690SOL     OW91906   1.018   5.122   6.550 -0.3383  0.0139  0.3207
28690SOL    HW191907   1.012   5.026   6.545 -0.8799  0.0914 -1.0060
28690SOL    HW291908   0.931   5.152   6.524  0.0768  0.8785 -0.0970
28691SOL     OW91909   7.251   7.189   9.484  0.3586  0.5340 -0.1942
28691SOL    HW191910   7.172   7.176   9.431 -1.0041  2.7283  1.1407
28691SOL    HW291911   7.300   7.108   9.474 -1.1459 -0.1798 -2.5819
28692SOL     OW91912  10.953   1.295   8.080  0.1841  0.4644 -0.5251
28692SOL    HW191913  10.904   1.373   8.103  0.4755  0.4697  0.1347
28692SOL    HW291914  10.984   1.261   8.165  1.5875  0.6495 -0.9292
28693SOL     OW91915   6.176  10.999  12.311  0.5561  0.5953  0.3808
28693SOL    HW191916   6.091  11.018  12.272  0.7606 -2.4028 -1.9497
28693SOL    HW291917   6.238  11.050  12.260  0.4701 -0.4710 -0.8464
28694SOL     OW91918   3.764   1.622   9.793 -0.4512  0.1190 -0.2034
28694SOL    HW191919   3.742   1.694   9.852  0.8832  0.3726  0.0298
28694SOL    HW291920   3.845   1.650   9.750  0.5569 -1.5489  0.4963
28695SOL     OW91921   0.336   1.845   7.537 -0.4586 -0.1714  0.0972
28695SOL    HW191922   0.300   1.903   7.469 -1.2527 -0.5186  0.2175
28695SOL    HW291923   0.289   1.763   7.526  1.3482 -1.1619 -0.7218
28696SOL     OW91924   6.551   0.037   2.492  0.5782 -0.3247  0.0142
28696SOL    HW191925   6.586   0.007   2.408 -0.7374 -0.6866 -0.4250
28696SOL    HW291926   6.461   0.063   2.473  0.6058  0.6253  1.1034
28697SOL     OW91927   9.417  10.708   9.640 -0.2407 -0.1763  0.5427
28697SOL    HW191928   9.369  10.768   9.697 -2.7544  0.7840 -2.3598
28697SOL    HW291929   9.377  10.622   9.656 -1.6546  0.2743 -0.4297
28698SOL     OW91930   1.340   8.275   6.184  0.2241 -0.1592  0.4723
28698SOL    HW191931   1.410   8.231   6.234  1.8339  0.4527 -1.1503
28698SOL    HW291932   1.385   8.321   6.114 -1.9568 -2.0526 -2.4620
28699SOL     OW91933   2.401  10.254   0.297  0.3356 -0.6940  0.3667
28699SOL    HW191934   2.447  10.192   0.354 -0.3219 -1.7634 -0.2297
28699SOL    HW291935   2.373  10.325   0.356 -0.6654 -1.9550  1.4837
28700SOL     OW91936   7.711   9.643   8.628 -0.4825 -0.0659  0.1049
28700SOL    HW191937   7.762   9.721   8.606 -0.2206 -0.5423 -1.0755
28700SOL    HW291938   7.621   9.674   8.636 -0.3770  0.3730 -0.3593
28701SOL     OW91939   4.554   2.010   5.560 -0.4703  0.1253  0.2643
28701SOL    HW191940   4.531   2.079   5.622 -0.1786  1.9214 -1.5267
28701SOL    HW291941   4.632   2.043   5.516 -2.5394  0.5974 -3.4364
28702SOL     OW91942   2.879   8.012   7.681 -0.2450 -0.2500  0.1027
28702SOL    HW191943   2.892   8.089   7.625  1.0213 -0.6858 -0.2339
28702SOL    HW291944   2.842   7.946   7.622 -1.1895  0.0291  0.3580
28703SOL     OW91945   1.462   9.018   0.572  0.3836 -0.2346  0.4385
28703SOL    HW191946   1.437   9.107   0.597  0.8560 -0.1633  0.6741
28703SOL    HW291947   1.481   9.024   0.478 -3.5125 -0.9556 -0.5849
28704SOL     OW91948   4.766   1.345   0.837 -0.3060 -0.2004  0.4205
28704SOL    HW191949   4.776   1.439   0.851  1.7802 -0.3251  0.0859
28704SOL    HW291950   4.757   1.308   0.925  1.9215  0.0569  0.8106
28705SOL     OW91951   6.011  11.267   7.222  0.5291 -0.1040  0.6773
28705SOL    HW191952   5.935  11.311   7.259 -1.4045 -2.5056 -0.1719
28705SOL    HW291953   6.024  11.190   7.278 -1.8336 -3.2669 -2.6925
28706SOL     OW91954   6.712   8.651   9.364  1.0311 -0.0146 -0.9106
28706SOL    HW191955   6.694   8.637   9.271  1.8327  1.1868 -1.2747
28706SOL    HW291956   6.724   8.746   9.372 -0.0568  0.0386  0.6223
28707SOL     OW91957   8.587  10.967  10.558 -0.5714 -0.2345  0.0361
28707SOL    HW191958   8.520  10.914  10.601 -0.4706 -1.3620 -1.1341
28707SOL    HW291959   8.652  10.904  10.527 -0.8982  0.4202 -2.2261
28708SOL     OW91960   3.139   2.640   5.757 -0.0266 -0.2864  0.0631
28708SOL    HW191961   3.224   2.596   5.748 -0.2028 -0.2764 -1.9969
28708SOL    HW291962   3.160   2.733   5.746 -0.2534 -0.2436  0.0008
28709SOL     OW91963   2.758   9.919   6.126  0.0044  0.4867 -0.1097
28709SOL    HW191964   2.692   9.906   6.195 -0.2341 -1.5989 -0.6697
28709SOL    HW291965   2.823   9.851   6.141 -0.0334  0.0049 -1.9015
28710SOL     OW91966   5.467   6.317   4.172 -0.9024  0.4230  0.7488
28710SOL    HW191967   5.397   6.294   4.234  0.6714  0.7230  2.7304
28710SOL    HW291968   5.498   6.402   4.203 -0.6887  1.0420 -1.0727
28711SOL     OW91969  12.239   0.484  10.965 -0.0390 -0.1707 -0.6119
28711SOL    HW191970  12.163   0.447  10.920 -0.8407  1.7381 -0.8992
28711SOL    HW291971  12.219   0.472  11.058 -1.5552  1.7724 -0.6125
28712SOL     OW91972   8.929   6.809   1.020  0.0327  0.0222  0.3657
28712SOL    HW191973   8.864   6.801   0.951 -0.2330  1.1491  0.4611
28712SOL    HW291974   8.972   6.724   1.023  0.2726  0.0435 -1.4123
28713SOL     OW91975   7.523  11.093   7.771  0.1135  0.1754 -0.2350
28713SOL    HW191976   7.452  11.153   7.749 -0.7594 -0.3446  1.0035
28713SOL    HW291977   7.478  11.011   7.793  1.3176 -1.2725 -2.8103
28714SOL     OW91978   6.656   0.305  10.430  0.0132 -0.5080  0.0931
28714SOL    HW191979   6.704   0.229  10.396 -0.2066  0.0144 -1.4908
28714SOL    HW291980   6.720   0.376  10.425  0.1961 -0.5493  1.5047
28715SOL     OW91981   6.004   7.192  12.213 -0.0126  0.2444  0.1613
28715SOL    HW191982   6.015   7.101  12.185 -1.8610  0.0406 -0.0454
28715SOL    HW291983   6.071   7.240  12.164  1.1790 -1.0128  0.4762
28716SOL     OW91984  10.658   4.009   3.130  0.5567 -0.5837  0.3279
28716SOL    HW191985  10.673   4.096   3.094 -0.6244 -0.3608  0.3169
28716SOL    HW291986  10.735   3.991   3.184  0.2080  1.0570  1.4553
28717SOL     OW91987   2.865   3.609   1.239  0.2100  0.3163 -0.4597
28717SOL    HW191988   2.860   3.521   1.277  2.6600  0.3746  0.1789
28717SOL    HW291989   2.826   3.666   1.306 -0.6881 -0.1813 -0.5465
28718SOL     OW91990  12.087   5.917   4.722  0.8209 -0.0699 -0.0366
28718SOL    HW191991  12.173   5.890   4.690  1.5804  3.6644 -1.6253
28718SOL    HW291992  12.041   5.950   4.645 -2.3365 -2.2918  0.6672
28719SOL     OW91993   3.727   8.387   4.489  0.3612 -0.2692  0.0646
28719SOL    HW191994   3.644   8.434   4.502  0.1851 -0.4466 -0.4008
28719SOL    HW291995   3.756   8.413   4.402  0.3991 -0.8116 -0.0871
28720SOL     OW91996   2.700  11.062   9.835  0.7541 -0.2010 -0.3721
28720SOL    HW191997   2.612  11.049   9.870  1.1901 -0.5977  0.6155
28720SOL    HW291998   2.751  10.989   9.871  1.8098  0.7828  0.1837
28721SOL     OW91999  11.008  10.824   7.129 -0.5185  0.2283 -0.5231
28721SOL    HW192000  10.996  10.876   7.049 -1.2005 -1.1352 -1.3443
28721SOL    HW292001  10.943  10.860   7.190 -0.2205  1.0664 -0.6790
28722SOL     OW92002   0.863   0.661   6.430  0.5098 -0.1677  0.0099
28722SOL    HW192003   0.859   0.711   6.348 -2.6216  3.5448  2.0747
28722SOL    HW292004   0.843   0.571   6.404  0.6249  0.6495 -3.3680
28723SOL     OW92005   9.165   7.228   2.718  0.1154 -0.0905 -0.1380
28723SOL    HW192006   9.107   7.261   2.786 -0.1670 -2.6111  0.9768
28723SOL    HW292007   9.107   7.176   2.662  1.1484 -2.4755  0.8707
28724SOL     OW92008   4.156   5.138   3.589  0.0202 -0.4082  0.4392
28724SOL    HW192009   4.187   5.201   3.524 -1.7008 -0.2774 -0.3028
28724SOL    HW292010   4.173   5.052   3.549 -2.0509 -0.3181 -0.7408
28725SOL     OW92011   3.402  11.738   2.239 -0.4100 -0.6239  0.0456
28725SOL    HW192012   3.376  11.759   2.150 -0.3313 -1.4129 -0.1736
28725SOL    HW292013   3.337  11.674   2.269 -1.0432  0.4055  0.9323
28726SOL     OW92014   1.952  10.590   5.102 -0.1120 -0.3620 -0.6940
28726SOL    HW192015   1.932  10.601   5.195  0.4635 -0.5066 -0.5513
28726SOL    HW292016   1.951  10.495   5.088 -0.7595 -0.3207 -0.9648
28727SOL     OW92017   1.080   4.739   5.482 -0.5305  0.2001 -0.0503
28727SOL    HW192018   1.023   4.713   5.555 -2.3797 -0.3329 -1.6152
28727SOL    HW292019   1.073   4.667   5.419  2.1867 -0.0553 -0.2013
28728SOL     OW92020   8.566  10.319   2.482 -0.0862  0.1713 -0.0465
28728SOL    HW192021   8.609  10.312   2.567  0.0447  0.3119 -0.1013
28728SOL    HW292022   8.625  10.272   2.422  0.9003  1.8698 -0.4552
28729SOL     OW92023   3.909  10.452   0.633 -0.1033 -0.4261 -0.2867
28729SOL    HW192024   3.864  10.505   0.567  0.8725  0.9828  0.1345
28729SOL    HW292025   3.843  10.438   0.701 -0.0450  1.3806  0.1963
28730SOL     OW92026   2.492   4.635   5.492  0.4907  0.0461 -0.8161
28730SOL    HW192027   2.425   4.699   5.516 -0.1712 -0.7872 -0.4255
28730SOL    HW292028   2.445   4.553   5.479  1.4467 -0.5966 -0.3786
28731SOL     OW92029   7.864   2.412   8.853  0.0080 -0.1815  0.3812
28731SOL    HW192030   7.781   2.371   8.879  0.9468 -2.5394 -0.0240
28731SOL    HW292031   7.917   2.412   8.932 -0.0610  0.5165  0.4331
28732SOL     OW92032   4.098  11.214   8.602 -0.2382 -0.0233  0.1886
28732SOL    HW192033   4.036  11.157   8.556 -1.0436  1.2916 -0.4097
28732SOL    HW292034   4.049  11.246   8.678 -0.1032  0.5694  0.0291
28733SOL     OW92035   9.306   1.518   7.743  0.2312  0.2380  0.3249
28733SOL    HW192036   9.373   1.567   7.696  0.1588  0.2084  0.1905
28733SOL    HW292037   9.323   1.537   7.836  1.1976 -0.7659  0.3690
28734SOL     OW92038  11.677   0.701   9.542 -0.0410 -0.1690  0.1893
28734SOL    HW192039  11.603   0.746   9.502 -0.0342 -0.9385 -0.7237
28734SOL    HW292040  11.674   0.727   9.634 -0.9522  0.4563 -0.0031
28735SOL     OW92041   4.665   3.640   9.177 -0.1008  0.7518 -0.1102
28735SOL    HW192042   4.711   3.681   9.103 -0.3774  0.8950 -0.2072
28735SOL    HW292043   4.631   3.558   9.141  0.5308  0.3931  0.1116
28736SOL     OW92044  10.992   8.159   2.390 -0.1245  0.3359 -0.1899
28736SOL    HW192045  10.939   8.114   2.455  1.1503  1.4965  1.7352
28736SOL    HW292046  11.049   8.217   2.440  1.4241  0.7763 -2.2904
28737SOL     OW92047  11.562   8.030   2.673 -0.2411  0.7795 -0.1830
28737SOL    HW192048  11.583   7.937   2.686 -1.0662  0.6509  0.2581
28737SOL    HW292049  11.475   8.030   2.634 -0.7620  1.3973  0.9459
28738SOL     OW92050   4.874   5.552   8.254  0.3262  0.3597 -0.1700
28738SOL    HW192051   4.943   5.528   8.192 -0.7730  0.2349 -1.3937
28738SOL    HW292052   4.836   5.468   8.280 -1.3594  0.5123 -1.9134
28739SOL     OW92053   2.185   6.225   5.926  0.1571  0.0481 -0.0724
28739SOL    HW192054   2.157   6.232   6.017 -0.0318  0.4588 -0.1623
28739SOL    HW292055   2.104   6.222   5.876  0.2601 -0.2250 -0.2242
28740SOL     OW92056   8.279   0.767   2.108 -0.0198  0.2132 -0.3369
28740SOL    HW192057   8.193   0.763   2.150 -0.5065 -0.2725 -1.3191
28740SOL    HW292058   8.278   0.851   2.060  0.6884  0.9570  0.9118
28741SOL     OW92059   2.072   4.567   0.904 -0.5638  0.4548  0.2559
28741SOL    HW192060   1.979   4.590   0.895 -0.3565  1.6103  0.7945
28741SOL    HW292061   2.115   4.616   0.834 -0.3129  0.2137  0.2408
28742SOL     OW92062   9.954   9.330   1.336 -0.4438 -0.0214 -0.7740
28742SOL    HW192063   9.974   9.248   1.381 -2.5144  0.0021  0.3022
28742SOL    HW292064   9.981   9.315   1.245  0.9285 -1.1873 -0.2135
28743SOL     OW92065   3.197   3.518   1.387 -0.7914  0.1731 -0.1830
28743SOL    HW192066   3.183   3.431   1.425 -1.5434 -0.1653 -1.2069
28743SOL    HW292067   3.113   3.562   1.395 -0.6288  0.5269 -0.3964
28744SOL     OW92068   0.960  10.705   2.211 -0.6130  0.8184  0.0287
28744SOL    HW192069   0.958  10.733   2.119 -0.8768  1.1563  0.1380
28744SOL    HW292070   0.872  10.672   2.228 -0.3944  0.2058 -0.0075
28745SOL     OW92071   3.839  10.480  12.315  0.3054 -0.1803  0.7782
28745SOL    HW192072   3.912  10.460  12.375 -0.7726 -0.1131  2.1594
28745SOL    HW292073   3.845  10.574  12.300  0.2714 -0.1077  1.2087
28746SOL     OW92074   7.316   8.333   3.433 -0.3650  0.2196 -0.4742
28746SOL    HW192075   7.297   8.420   3.397  0.5011  1.3932  1.7054
28746SOL    HW292076   7.409   8.320   3.413  0.5049  1.4870  2.2753
28747SOL     OW92077   1.764  10.157   4.501  0.3665  0.0607  0.2819
28747SOL    HW192078   1.824  10.186   4.569 -0.0422  0.1580  0.6084
28747SOL    HW292079   1.693  10.115   4.549  0.2559 -0.1994 -0.1084
28748SOL     OW92080   2.148  10.469   6.954 -0.4308 -0.2503  0.7069
28748SOL    HW192081   2.185  10.512   7.032  0.6608 -0.2166  0.1973
28748SOL    HW292082   2.093  10.399   6.989 -1.3190  0.8183  1.5354
28749SOL     OW92083   0.888   1.275  12.142 -0.6553 -0.0573  0.2840
28749SOL    HW192084   0.934   1.214  12.200 -1.0286 -0.5471  0.0716
28749SOL    HW292085   0.855   1.220  12.072  0.0709  0.5832 -0.5786
28750SOL     OW92086   1.806   3.868  12.048  0.3039 -0.3768 -0.1266
28750SOL    HW192087   1.773   3.778  12.054 -0.0242 -0.3666 -1.5131
28750SOL    HW292088   1.730   3.919  12.021  0.9659 -0.0317 -1.4097
28751SOL     OW92089   7.181   6.132  11.281 -0.4575  0.1735 -0.0381
28751SOL    HW192090   7.243   6.081  11.229  1.0096  0.9002  0.9135
28751SOL    HW292091   7.233   6.164  11.355 -2.1679  0.1597  1.2384
28752SOL     OW92092   6.720   7.540   0.185 -0.0076 -0.4887 -0.4559
28752SOL    HW192093   6.659   7.469   0.204 -0.8338  0.2430 -0.3403
28752SOL    HW292094   6.666   7.618   0.183  1.1665  0.4519  1.5089
28753SOL     OW92095   2.318  11.477   4.014  0.1336  0.2199  0.2898
28753SOL    HW192096   2.254  11.462   4.084 -1.5324 -0.4379 -1.2824
28753SOL    HW292097   2.271  11.532   3.951  1.6916  1.0419 -0.1904
28754SOL     OW92098  12.019   2.896   3.910 -0.2551  0.0523 -0.1108
28754SOL    HW192099  12.053   2.822   3.960 -1.1072  0.4133  1.0387
28754SOL    HW292100  11.924   2.893   3.924 -0.2617  1.5686  0.2485
28755SOL     OW92101   5.102   4.442   4.526  0.1346  0.2225 -0.5736
28755SOL    HW192102   5.117   4.459   4.619 -0.3766 -0.2663 -0.3963
28755SOL    HW292103   5.082   4.348   4.521  2.4462 -0.2964 -1.4570
28756SOL     OW92104   4.671   3.973   4.337  0.3750 -0.3350  0.5904
28756SOL    HW192105   4.700   4.041   4.275  0.1055 -0.2208  0.5899
28756SOL    HW292106   4.721   3.990   4.416 -1.1030  1.0766  1.2621
28757SOL     OW92107   8.005  11.545  11.754 -0.1989  0.0177 -0.8844
28757SOL    HW192108   7.979  11.536  11.845 -0.4250 -3.0520 -1.1570
28757SOL    HW292109   7.924  11.561  11.707 -0.5357 -1.4024 -0.8314
28758SOL     OW92110   8.741   7.341   9.239  0.8466  0.2707  0.2251
28758SOL    HW192111   8.792   7.279   9.186 -0.5834  0.4012 -1.3898
28758SOL    HW292112   8.788   7.345   9.322  2.5786 -0.7926 -0.6292
28759SOL     OW92113   8.556  10.666   6.640 -0.5261 -0.3482 -0.2658
28759SOL    HW192114   8.547  10.722   6.563 -0.0440  0.5540  0.3210
28759SOL    HW292115   8.627  10.704   6.690 -1.8468  0.0309  1.4388
28760SOL     OW92116   5.174   7.982   1.003 -0.5232 -0.1572  0.2769
28760SOL    HW192117   5.157   7.915   1.068  1.7504 -1.1034 -0.0232
28760SOL    HW292118   5.252   8.028   1.035  0.1525 -0.1086 -1.3549
28761SOL     OW92119  11.117   8.970   1.772  0.1378 -0.1448 -0.3481
28761SOL    HW192120  11.166   9.052   1.768 -0.0733 -0.0161 -0.3006
28761SOL    HW292121  11.045   8.988   1.832  1.5838 -1.1586  1.8525
28762SOL     OW92122   5.655   8.974   0.198 -0.3030 -0.3915 -0.9770
28762SOL    HW192123   5.612   8.889   0.206  2.2825 -1.8496 -1.5526
28762SOL    HW292124   5.628   9.005   0.111  0.4780 -1.7394 -1.7497
28763SOL     OW92125  11.775  10.387   2.302 -0.0049  0.0354 -0.2440
28763SOL    HW192126  11.812  10.449   2.365 -0.9858 -0.3622  0.7561
28763SOL    HW292127  11.849  10.331   2.278  0.8913  1.5083 -1.1218
28764SOL     OW92128   8.188   9.407   1.044 -0.4679  0.1721 -0.2041
28764SOL    HW192129   8.093   9.409   1.042 -0.5084 -0.2344  0.8046
28764SOL    HW292130   8.212   9.322   1.007 -0.5717 -0.3676  0.9135
28765SOL     OW92131   5.270   6.673   5.334 -0.2502  0.1495 -0.1807
28765SOL    HW192132   5.200   6.630   5.285  0.4330 -1.4191  0.1582
28765SOL    HW292133   5.350   6.646   5.290  0.1633  2.3560 -0.8909
28766SOL     OW92134  11.410   7.063   8.485  0.2260 -0.0181  0.5063
28766SOL    HW192135  11.505   7.061   8.479  0.3222 -0.4917  1.7237
28766SOL    HW292136  11.392   7.055   8.579 -1.0404 -3.1000  0.1558
28767SOL     OW92137   4.728   1.393  10.800 -0.1912  0.4609  0.2179
28767SOL    HW192138   4.680   1.474  10.815 -0.1126  0.5377  0.0590
28767SOL    HW292139   4.674   1.344  10.738 -0.0072  0.5984 -0.0512
28768SOL     OW92140   0.816   0.706   3.509 -0.2204 -0.1378 -0.1876
28768SOL    HW192141   0.888   0.743   3.457 -0.5359 -0.8988 -1.2115
28768SOL    HW292142   0.850   0.624   3.542 -0.5035 -0.3473 -0.4082
28769SOL     OW92143   6.769   4.032   8.735  0.2443 -0.2474 -0.3171
28769SOL    HW192144   6.846   4.087   8.746 -0.9195  1.4270 -0.1874
28769SOL    HW292145   6.763   3.982   8.816  0.2048  0.9207  0.4149
28770SOL     OW92146  12.078   8.353  11.599 -0.2033  0.8565 -0.2387
28770SOL    HW192147  12.104   8.444  11.616 -0.9117  1.2406 -1.0692
28770SOL    HW292148  11.983   8.354  11.610 -0.2607  0.3160 -0.6780
28771SOL     OW92149  10.281   0.084   9.496  0.1069  0.0907  0.6315
28771SOL    HW192150  10.348   0.135   9.542  1.7239 -1.1387 -0.2798
28771SOL    HW292151  10.284  -0.002   9.538 -1.3929  0.1951  1.0132
28772SOL     OW92152  11.083   9.640   8.625  0.2905  0.2502  0.2656
28772SOL    HW192153  11.079   9.735   8.614 -2.8824  0.1960  0.0761
28772SOL    HW292154  11.025   9.606   8.558  3.3767 -2.1240 -1.4738
28773SOL     OW92155   9.077   0.057   6.949  0.2830  0.1718  0.4560
28773SOL    HW192156   9.051   0.049   7.040  0.1979  2.6421  0.7122
28773SOL    HW292157   9.172   0.043   6.949  0.2349 -0.1299  0.8825
28774SOL     OW92158   8.013   7.640   2.509  0.0971 -0.2799  0.0737
28774SOL    HW192159   7.949   7.700   2.548 -1.5820 -1.0221 -1.3676
28774SOL    HW292160   8.082   7.633   2.574 -0.7886  1.3605  1.2891
28775SOL     OW92161  10.842   7.471   1.187  0.0101  0.3609  0.3951
28775SOL    HW192162  10.887   7.460   1.103 -2.9289 -0.0903 -1.2668
28775SOL    HW292163  10.856   7.389   1.233 -1.6020 -1.0771 -1.4764
28776SOL     OW92164   0.787   5.764   8.601  0.2888 -0.2816  0.4220
28776SOL    HW192165   0.779   5.842   8.546 -0.9590 -0.6686  0.0115
28776SOL    HW292166   0.862   5.781   8.657  0.8901  0.6118 -0.6279
28777SOL     OW92167   6.240   3.015   6.620 -0.3600  0.3550 -0.0509
28777SOL    HW192168   6.284   3.098   6.604 -2.2696  1.2111 -1.0997
28777SOL    HW292169   6.164   3.037   6.673 -0.7077 -0.7840 -0.0431
28778SOL     OW92170   7.323   5.852  11.655  0.0836  0.1834 -0.2810
28778SOL    HW192171   7.273   5.922  11.696  0.7177  0.6352 -0.2731
28778SOL    HW292172   7.411   5.888  11.644  0.2776 -0.4228 -0.7643
28779SOL     OW92173   1.920   8.044   6.524 -0.0315  0.0094 -0.0345
28779SOL    HW192174   1.974   8.054   6.602 -0.7775 -1.3767  0.6805
28779SOL    HW292175   1.869   8.125   6.520  1.5336  1.0328 -0.3296
28780SOL     OW92176   0.076   2.754   1.965  0.1434  0.4714  0.5282
28780SOL    HW192177   0.086   2.681   1.904 -0.4705  1.0360 -0.2778
28780SOL    HW292178   0.165   2.777   1.990  0.3269 -0.7650  1.0589
28781SOL     OW92179   2.687   3.374   3.504 -0.4040  0.2475  0.2105
28781SOL    HW192180   2.726   3.429   3.572  0.6308  1.5003 -1.3447
28781SOL    HW292181   2.637   3.434   3.450 -2.7261 -0.9995  0.8270
28782SOL     OW92182  11.942  10.154   3.336 -0.0658 -0.0388  0.0629
28782SOL    HW192183  12.028  10.130   3.372 -0.1909 -0.1348  0.3001
28782SOL    HW292184  11.914  10.075   3.289  0.4321  0.3385 -0.8939
28783SOL     OW92185   4.131   6.549   0.183  0.4984 -0.2872 -0.6381
28783SOL    HW192186   4.213   6.597   0.171 -0.8619  2.1241 -0.8812
28783SOL    HW292187   4.155   6.457   0.171  3.0767  0.3677 -1.0637
28784SOL     OW92188  12.085   9.141   9.718  0.2750 -0.2374  0.4462
28784SOL    HW192189  11.996   9.176   9.710  1.0988  1.8945  0.0071
28784SOL    HW292190  12.098   9.130   9.812 -0.5700 -0.9595  0.4933
28785SOL     OW92191   0.842   7.904   5.958 -0.1263  0.0895 -0.3457
28785SOL    HW192192   0.792   7.907   5.877 -0.5623  1.3382 -0.0459
28785SOL    HW292193   0.865   7.995   5.976 -0.6646 -0.0736  1.3123
28786SOL     OW92194   4.024   2.192   6.640 -0.4738 -0.1662  0.0032
28786SOL    HW192195   3.931   2.211   6.651 -0.6343 -1.5061  1.3178
28786SOL    HW292196   4.028   2.136   6.562 -0.9145 -0.9613  0.5386
28787SOL     OW92197   5.903   6.939  10.332 -0.0218  0.5892 -0.1996
28787SOL    HW192198   5.866   6.889  10.259 -0.5994  0.3833  0.2284
28787SOL    HW292199   5.963   7.001  10.290 -0.3916  0.5155 -0.8560
28788SOL     OW92200   2.739  10.325   9.875 -0.1308 -0.0458  0.4353
28788SOL    HW192201   2.753  10.413   9.839 -0.4326 -0.1489  0.0533
28788SOL    HW292202   2.800  10.269   9.827  1.1767  0.1942  1.7606
28789SOL     OW92203   5.032   7.345  11.388  0.2356  0.7236 -0.5671
28789SOL    HW192204   4.985   7.418  11.347  2.2453  2.1265 -0.4902
28789SOL    HW292205   5.102   7.324  11.326  0.4030 -0.3845 -0.0288
28790SOL     OW92206   1.094   3.112   9.112  0.4690  0.2895  0.4608
28790SOL    HW192207   1.134   3.151   9.190 -1.5806  0.8512  1.3043
28790SOL    HW292208   1.125   3.166   9.039  2.0616  0.0308  0.9046
28791SOL     OW92209   4.585   5.833   3.875  0.1429 -0.3428  0.0332
28791SOL    HW192210   4.654   5.890   3.909  0.0783  1.6351 -2.7132
28791SOL    HW292211   4.504   5.874   3.904  0.1078 -0.5406  0.2133
28792SOL     OW92212   4.352  12.145   1.865  0.3805 -0.3350 -0.0054
28792SOL    HW192213   4.299  12.187   1.797  0.7525  0.6043  0.2675
28792SOL    HW292214   4.361  12.054   1.835  0.7816  0.1292 -1.3592
28793SOL     OW92215   5.029   4.537   3.005  0.2659  0.2727  0.0802
28793SOL    HW192216   4.988   4.556   2.921  0.8402 -2.2962 -0.8863
28793SOL    HW292217   4.959   4.500   3.058  0.5516 -1.0771 -0.4356
28794SOL     OW92218   3.277   3.894   2.940 -0.0754 -0.6459  0.9572
28794SOL    HW192219   3.312   3.972   2.897  2.6970 -0.5249  3.1983
28794SOL    HW292220   3.197   3.925   2.982 -0.0274  0.4917  0.2681
28795SOL     OW92221  10.514   4.443   5.389  0.2830  0.2939  0.1179
28795SOL    HW192222  10.543   4.367   5.439  1.3143  0.9575  0.5545
28795SOL    HW292223  10.442   4.480   5.440  0.3078  0.0709  0.3126
28796SOL     OW92224  10.553   5.836   4.622 -0.0079  0.1004  0.3921
28796SOL    HW192225  10.545   5.930   4.612 -2.3230 -0.1192 -0.3253
28796SOL    HW292226  10.480   5.811   4.679  0.6292 -1.2636  0.6692
28797SOL     OW92227   5.751   9.753  11.515  0.4589 -0.1844  0.4506
28797SOL    HW192228   5.803   9.789  11.443 -0.4041 -0.7153 -0.4549
28797SOL    HW292229   5.744   9.826  11.577 -3.2717  2.2462 -2.3870
28798SOL     OW92230  10.484   9.825   6.396 -0.1724 -0.0745 -0.0745
28798SOL    HW192231  10.516   9.756   6.455  0.2849  1.0029  0.9814
28798SOL    HW292232  10.563   9.863   6.359 -0.3711  0.4659  0.0448
28799SOL     OW92233   1.229   9.391   9.960 -0.6652  0.0500  0.2503
28799SOL    HW192234   1.264   9.311   9.998  0.2081  0.1484 -0.3014
28799SOL    HW292235   1.282   9.405   9.881  0.4416  2.0969  1.2432
28800SOL     OW92236   9.077   3.352   9.246  0.5135 -0.4300 -0.2068
28800SOL    HW192237   9.079   3.264   9.283  1.7053 -0.1512  0.4448
28800SOL    HW292238   9.038   3.407   9.315  0.2246 -0.3576 -0.4234
28801SOL     OW92239   3.754   3.130   5.555 -0.5463 -0.4480  0.6826
28801SOL    HW192240   3.846   3.154   5.560 -0.6112 -0.3046  1.1799
28801SOL    HW292241   3.736   3.085   5.638 -0.8091 -0.8749  0.4005
28802SOL     OW92242   3.581   2.394  11.236  0.3956 -0.4450  0.2410
28802SOL    HW192243   3.539   2.408  11.321 -1.3242 -1.1434 -0.4395
28802SOL    HW292244   3.623   2.308  11.244 -1.2801 -1.3399 -0.1398
28803SOL     OW92245   7.688   4.401  11.109 -0.1201  0.3367 -0.4774
28803SOL    HW192246   7.781   4.422  11.103  0.2155 -1.1066 -0.9383
28803SOL    HW292247   7.667   4.412  11.202  0.4515  0.9202 -0.4110
28804SOL     OW92248   4.799   6.710  10.567  0.1910 -0.2253  0.0297
28804SOL    HW192249   4.743   6.641  10.533 -2.1479  0.9744  1.2298
28804SOL    HW292250   4.790   6.704  10.662  0.6379  1.1571  0.1829
28805SOL     OW92251   7.415   5.687   9.555  0.8700  0.1092 -0.0809
28805SOL    HW192252   7.435   5.601   9.593 -0.3825  0.1660  0.7870
28805SOL    HW292253   7.365   5.732   9.624 -0.8542  0.5055 -1.5392
28806SOL     OW92254   5.379   1.996   7.951 -0.1468 -0.2226 -0.3198
28806SOL    HW192255   5.304   2.044   7.917 -0.2795  0.6626  1.1300
28806SOL    HW292256   5.342   1.917   7.991 -0.3237  0.2026  0.3744
28807SOL     OW92257   7.832   2.006  11.935 -0.3189 -0.2923 -0.4980
28807SOL    HW192258   7.805   2.044  12.019 -1.0945 -1.4696 -0.1989
28807SOL    HW292259   7.911   1.956  11.957 -0.6730 -0.8159 -0.4160
28808SOL     OW92260   4.503   8.770   4.223 -0.0653 -0.2185 -0.8564
28808SOL    HW192261   4.433   8.809   4.170 -0.3321 -0.6300 -0.8118
28808SOL    HW292262   4.564   8.734   4.158 -0.7516 -1.3531 -0.8878
28809SOL     OW92263   3.183   8.289  11.507  0.6072  0.6899 -0.1851
28809SOL    HW192264   3.168   8.218  11.569 -0.8519 -0.7624 -2.0458
28809SOL    HW292265   3.108   8.347  11.518  0.0453  0.1289 -0.9140
28810SOL     OW92266   9.306   1.959   8.000  0.1219 -0.6567 -0.3416
28810SOL    HW192267   9.322   1.873   8.038  0.1005 -0.7966 -0.6515
28810SOL    HW292268   9.344   2.020   8.063  0.4590 -0.9090 -0.3007
28811SOL     OW92269   2.507   5.660   3.807  0.0250  0.2520  0.1724
28811SOL    HW192270   2.497   5.611   3.889 -0.8773 -1.5005 -0.9309
28811SOL    HW292271   2.436   5.629   3.752  1.5251  0.2271 -1.8485
28812SOL     OW92272   5.140   3.316  11.771 -0.3594 -0.2305 -0.0190
28812SOL    HW192273   5.187   3.280  11.846 -0.1166  3.2673  1.6977
28812SOL    HW292274   5.049   3.290  11.784 -0.3134  0.3003  1.5416
28813SOL     OW92275   0.132   6.723  10.320 -0.0367 -0.0675 -0.3964
28813SOL    HW192276   0.195   6.786  10.355  0.4018 -0.5068 -0.3772
28813SOL    HW292277   0.139   6.732  10.225 -1.1688  1.0679 -0.3930
28814SOL     OW92278   8.671   5.389   4.793  0.3176  0.0654 -0.2875
28814SOL    HW192279   8.764   5.387   4.816  0.7389 -3.9144 -1.5086
28814SOL    HW292280   8.634   5.314   4.838 -1.3205 -0.9564 -3.0716
28815SOL     OW92281   4.398  12.324   7.602  0.4334  0.0300 -0.6238
28815SOL    HW192282   4.442  12.239   7.596  1.6018  0.3730  1.9121
28815SOL    HW292283   4.320  12.307   7.654  0.5422  0.4545 -0.3126
28816SOL     OW92284   4.077   3.478   5.362 -0.2719  0.0539  0.2478
28816SOL    HW192285   4.158   3.528   5.367  0.1161 -0.4110 -1.1221
28816SOL    HW292286   4.099   3.392   5.397 -0.4681  0.2551  0.8857
28817SOL     OW92287   7.401   0.124   9.128 -0.4216 -0.3130  0.3142
28817SOL    HW192288   7.420   0.194   9.066  1.7348 -1.0373  0.0651
28817SOL    HW292289   7.309   0.136   9.151  0.2507  3.7247  1.7190
28818SOL     OW92290   1.660   4.001   6.545  0.5757  0.3120 -0.2057
28818SOL    HW192291   1.642   4.075   6.487  1.2564 -0.0780 -0.9296
28818SOL    HW292292   1.714   4.038   6.615  0.1744  0.6774 -0.0815
28819SOL     OW92293   6.321   6.528   0.898 -0.2639 -0.2697 -0.5282
28819SOL    HW192294   6.313   6.622   0.917 -1.9115 -0.1788 -1.4442
28819SOL    HW292295   6.354   6.490   0.979  1.0456  1.1703 -0.3443
28820SOL     OW92296  11.453  11.541   2.454 -0.1186 -0.0940 -0.5139
28820SOL    HW192297  11.473  11.499   2.371  2.0198  0.4693 -0.3298
28820SOL    HW292298  11.470  11.634   2.439 -0.4465  0.1152  0.3427
28821SOL     OW92299   5.341   5.297   2.096 -0.1537 -0.1444 -0.3259
28821SOL    HW192300   5.327   5.324   2.005  1.1436  0.5663 -0.3468
28821SOL    HW292301   5.352   5.379   2.144  0.0960 -0.5382  0.3066
28822SOL     OW92302   3.146  11.035   4.176  0.6322 -0.4050 -0.0662
28822SOL    HW192303   3.188  11.121   4.184 -1.3633  0.6419 -0.1287
28822SOL    HW292304   3.094  11.026   4.256  0.0129 -1.0737 -0.5283
28823SOL     OW92305   9.817   4.552   8.579  0.3202 -0.2598 -0.3809
28823SOL    HW192306   9.846   4.643   8.583  0.7306 -0.4054  0.0102
28823SOL    HW292307   9.743   4.548   8.640 -0.5236  0.1040 -1.3561
28824SOL     OW92308   2.597  10.916   0.998  0.3427  0.3869 -0.0420
28824SOL    HW192309   2.531  10.985   0.994 -0.0440  0.0100 -0.2221
28824SOL    HW292310   2.670  10.948   0.944 -0.0354  0.4359 -0.5220
28825SOL     OW92311  10.588   4.193  10.498 -0.4395  0.4869 -0.2233
28825SOL    HW192312  10.551   4.128  10.439 -2.1291  0.7538  0.4982
28825SOL    HW292313  10.658   4.234  10.446 -2.0752  0.9507 -2.2124
28826SOL     OW92314   5.289  10.203   8.781  0.0593  0.5501 -0.1343
28826SOL    HW192315   5.355  10.151   8.827 -0.2558  2.3873  2.6227
28826SOL    HW292316   5.206  10.175   8.820 -0.2454  1.9993  0.3155
28827SOL     OW92317   7.668   4.243   2.455 -0.1412 -0.8445  0.8094
28827SOL    HW192318   7.655   4.336   2.476  0.4214 -0.4633 -0.4482
28827SOL    HW292319   7.756   4.223   2.486 -0.3983 -1.0671  1.4109
28828SOL     OW92320  10.189  11.848   9.770 -0.6078  0.6854 -0.1265
28828SOL    HW192321  10.217  11.932   9.807 -0.1739  0.7643 -0.6260
28828SOL    HW292322  10.252  11.830   9.701  0.7325 -1.2304  1.5082
28829SOL     OW92323   0.283   0.062   6.213 -0.1171 -0.0806 -0.0876
28829SOL    HW192324   0.262   0.053   6.120  0.4830  0.4985 -0.2873
28829SOL    HW292325   0.198   0.071   6.256 -0.4848 -1.8006 -0.4037
28830SOL     OW92326  12.150   6.965   3.695  0.0717  0.4365 -0.4840
28830SOL    HW192327  12.071   6.945   3.745 -0.1350  1.0528 -0.5532
28830SOL    HW292328  12.222   6.941   3.753 -0.1651 -0.0596 -0.3930
28831SOL     OW92329   0.514  10.866   3.264 -0.8140 -0.3864  0.4421
28831SOL    HW192330   0.429  10.903   3.286 -0.7779  1.0274 -1.5182
28831SOL    HW292331   0.570  10.943   3.249  1.3466 -1.2327  3.3606
28832SOL     OW92332   8.397   6.160   2.317  0.1979  0.1725  0.2631
28832SOL    HW192333   8.450   6.173   2.238 -0.1172  0.5665  0.1105
28832SOL    HW292334   8.424   6.230   2.376 -1.1133  1.2384 -0.3471
28833SOL     OW92335  10.501   3.686   8.130  0.4634 -0.0101  0.3673
28833SOL    HW192336  10.536   3.641   8.207 -0.1830 -2.2052 -0.5342
28833SOL    HW292337  10.565   3.669   8.061 -1.2143 -2.3080 -0.7628
28834SOL     OW92338   8.242   3.394   5.245  0.5254  0.5061  0.2456
28834SOL    HW192339   8.148   3.395   5.232  0.0386  2.1227  3.1246
28834SOL    HW292340   8.275   3.464   5.188  0.0013  0.0586 -0.6284
28835SOL     OW92341   0.906   8.865   0.925  0.1097 -0.4602 -0.3584
28835SOL    HW192342   0.898   8.794   0.861 -1.1806 -2.3050  1.7119
28835SOL    HW292343   0.998   8.863   0.951  0.4225 -0.3348 -1.4024
28836SOL     OW92344   2.149   1.074   0.510 -0.1017  0.7897  0.2196
28836SOL    HW192345   2.159   1.162   0.474  0.1308  0.6821  0.0178
28836SOL    HW292346   2.237   1.050   0.539  0.1331  0.0680 -1.0208
28837SOL     OW92347   2.649  12.090   8.338 -0.0435  0.1169 -0.2610
28837SOL    HW192348   2.583  12.024   8.361  1.1583 -1.1062 -0.2133
28837SOL    HW292349   2.657  12.144   8.417 -0.5158 -0.1279 -0.0388
28838SOL     OW92350   4.920   4.929   8.874 -0.5475 -0.0314  0.2957
28838SOL    HW192351   4.860   5.000   8.853 -1.1016 -0.8896 -1.1912
28838SOL    HW292352   4.933   4.883   8.791  1.0670 -0.7067  0.8773
28839SOL     OW92353  11.736   9.886   2.007 -0.0658  0.1664  0.4557
28839SOL    HW192354  11.650   9.929   2.005  1.2324  3.0001 -1.7686
28839SOL    HW292355  11.735   9.826   1.933  0.7658  2.4791 -1.5766
28840SOL     OW92356   2.192   5.116  12.258  0.0036  0.1012 -0.1285
28840SOL    HW192357   2.106   5.075  12.249 -0.3629  1.0778 -1.4032
28840SOL    HW292358   2.199   5.137  12.351 -0.5935 -1.1157  0.2029
28841SOL     OW92359   0.746   3.715   8.564  0.0044  0.4211  0.0880
28841SOL    HW192360   0.751   3.687   8.473 -0.4067 -0.5452  0.3582
28841SOL    HW292361   0.679   3.783   8.564  0.5650  0.9976 -0.4563
28842SOL     OW92362   1.304   0.339   5.468 -0.0116 -0.0807  0.8359
28842SOL    HW192363   1.262   0.425   5.459  1.9274  1.1391  2.5310
28842SOL    HW292364   1.253   0.294   5.536 -0.0407  0.3848  1.1238
28843SOL     OW92365   8.713   0.185   2.216  0.7214 -0.4437 -0.4144
28843SOL    HW192366   8.721   0.252   2.149 -0.4239  0.9846  0.8076
28843SOL    HW292367   8.716   0.102   2.168  0.4879  0.5094 -2.1348
28844SOL     OW92368   6.682   6.576  10.501 -0.5698  0.1149 -0.1088
28844SOL    HW192369   6.635   6.607  10.577  2.3796  3.5541  0.5748
28844SOL    HW292370   6.622   6.590  10.428 -3.0081 -2.1729  1.2665
28845SOL     OW92371  11.879   8.734   9.231  0.3317 -0.1602 -0.1028
28845SOL    HW192372  11.927   8.808   9.193 -0.1059  0.5136  0.6097
28845SOL    HW292373  11.943   8.689   9.286  0.6307 -0.3854 -0.6261
28846SOL     OW92374   7.735   7.825   8.164 -0.3770  0.1105  0.1575
28846SOL    HW192375   7.769   7.887   8.100  1.7318  0.1519  1.2389
28846SOL    HW292376   7.809   7.766   8.182 -1.3303 -0.7247  1.5479
28847SOL     OW92377   3.676   0.007   9.383 -0.0343 -0.8949 -0.0008
28847SOL    HW192378   3.619   0.081   9.407  1.4291  0.2602  0.0768
28847SOL    HW292379   3.639  -0.068   9.430 -0.9549  0.0063  0.7769
28848SOL     OW92380  12.256   5.285  12.291 -0.4063 -0.6074  0.4833
28848SOL    HW192381  12.210   5.224  12.233 -0.2064 -0.1006 -0.2251
28848SOL    HW292382  12.210   5.368  12.279 -0.7445 -0.6337  1.5236
28849SOL     OW92383   5.973   5.771  11.113  0.1795 -0.4277  0.1816
28849SOL    HW192384   5.951   5.678  11.114  0.9530 -0.6152  0.4171
28849SOL    HW292385   5.956   5.801  11.202 -1.9475  0.1293 -0.3641
28850SOL     OW92386   4.571   6.528  10.986 -0.2321  0.0823 -0.0886
28850SOL    HW192387   4.571   6.573  11.070  0.0756 -0.9082  0.4525
28850SOL    HW292388   4.609   6.442  11.004 -0.5177 -0.2897 -1.1600
28851SOL     OW92389   3.801   5.031  11.300  0.2708 -0.2156  0.3775
28851SOL    HW192390   3.893   5.051  11.320  0.6289  1.8657 -2.6207
28851SOL    HW292391   3.805   4.950  11.250  0.4055 -0.4150  0.7079
28852SOL     OW92392   1.566  11.013   7.970  0.4909  0.1398 -0.6812
28852SOL    HW192393   1.625  11.087   7.962 -0.7023  1.3452  0.9342
28852SOL    HW292394   1.606  10.957   8.037 -0.7147  1.5862  1.3502
28853SOL     OW92395   6.976  11.553   7.456  0.6413 -0.2213 -0.1948
28853SOL    HW192396   7.012  11.465   7.466  0.7685 -0.1707 -0.2135
28853SOL    HW292397   6.881  11.539   7.454  0.6912 -0.5207 -1.7279
28854SOL     OW92398  10.611  12.315   3.618  0.0788 -0.4441  0.0374
28854SOL    HW192399  10.583  12.223   3.622 -1.9037  0.0343 -1.3338
28854SOL    HW292400  10.540  12.363   3.661  1.5204  0.4174  1.5714
28855SOL     OW92401   1.947   2.006   5.661 -0.5634 -0.8282  0.1466
28855SOL    HW192402   1.940   1.930   5.719 -1.0013 -1.3627 -0.5897
28855SOL    HW292403   1.993   1.973   5.584 -0.3113 -0.2136  0.0309
28856SOL     OW92404   8.666  10.986   8.238 -0.1885  0.3867  0.1294
28856SOL    HW192405   8.694  10.998   8.329  0.2164 -0.9380  0.2033
28856SOL    HW292406   8.573  11.009   8.239 -0.4102 -0.4215  1.0914
28857SOL     OW92407   4.928   6.579  11.824 -0.6244 -0.5593  0.3568
28857SOL    HW192408   4.896   6.670  11.825 -0.3309 -0.4327 -0.5119
28857SOL    HW292409   4.948   6.562  11.732 -0.0817 -1.3011  0.6011
28858SOL     OW92410   6.577   8.447   9.552 -0.1938 -0.4420  0.2013
28858SOL    HW192411   6.654   8.399   9.520 -0.2536 -0.8440  0.6486
28858SOL    HW292412   6.561   8.513   9.485  0.8190 -0.0566  0.3179
28859SOL     OW92413   7.265   3.757   6.404  0.2700 -0.0497 -0.5418
28859SOL    HW192414   7.257   3.707   6.322  0.0796  0.3789 -0.7850
28859SOL    HW292415   7.307   3.839   6.378  0.8821 -0.2164 -0.0848
28860SOL     OW92416   0.365   3.759   5.820  0.4474 -0.0932  0.1248
28860SOL    HW192417   0.416   3.800   5.751 -0.0231 -2.3299 -1.6880
28860SOL    HW292418   0.383   3.811   5.898  1.8182  1.9230 -1.4358
28861SOL     OW92419   2.320   5.437   3.890  0.1768 -0.1530  0.3994
28861SOL    HW192420   2.262   5.386   3.834  0.3488  0.8642 -0.7458
28861SOL    HW292421   2.376   5.373   3.932 -0.4430 -0.9953 -0.0334
28862SOL     OW92422  11.480  10.254   0.105  0.0514  0.3945  0.0266
28862SOL    HW192423  11.552  10.195   0.126 -0.2076  0.3399  0.8128
28862SOL    HW292424  11.414  10.198   0.064  0.2502  0.3441 -0.2192
28863SOL     OW92425   5.225   3.748   1.049  0.0483 -0.3039 -0.3561
28863SOL    HW192426   5.281   3.671   1.060  0.4661 -0.0802 -0.8908
28863SOL    HW292427   5.242   3.800   1.128 -0.7924 -1.0937  0.3722
28864SOL     OW92428   5.929   7.720   9.972 -0.3753 -0.4550  0.1883
28864SOL    HW192429   5.970   7.806   9.967 -0.3909 -0.4798 -0.3820
28864SOL    HW292430   5.988   7.669  10.027 -0.0026 -0.2844 -0.0479
28865SOL     OW92431   0.522   4.606   3.504 -0.2443 -0.0485 -0.5022
28865SOL    HW192432   0.483   4.543   3.444 -0.7702 -1.4412  1.2263
28865SOL    HW292433   0.608   4.626   3.467  0.6506 -3.0715 -0.3088
28866SOL     OW92434   1.466   6.468  11.303 -0.0645 -0.0165  0.1396
28866SOL    HW192435   1.461   6.373  11.291  2.9607 -0.5003  1.6905
28866SOL    HW292436   1.414   6.485  11.382  0.4208 -0.6305  0.6045
28867SOL     OW92437   0.936   9.724   4.351 -0.2946  1.2101  0.0568
28867SOL    HW192438   0.931   9.676   4.433  0.4863 -0.1284 -0.6458
28867SOL    HW292439   0.855   9.700   4.305  0.0006  0.7272 -0.2107
28868SOL     OW92440   8.744   5.283  11.639  0.4124  0.1196 -0.1914
28868SOL    HW192441   8.775   5.204  11.684 -0.4157 -0.2696 -0.2935
28868SOL    HW292442   8.649   5.274  11.636  0.2126  1.5661  0.6322
28869SOL     OW92443   1.614  12.139   9.365 -0.3947  0.0027 -0.3822
28869SOL    HW192444   1.524  12.170   9.370 -0.3098  0.1069  0.7221
28869SOL    HW292445   1.628  12.090   9.446  0.9018  0.9878  0.0301
28870SOL     OW92446   6.022   9.528   3.652  0.0026 -0.1314 -0.0877
28870SOL    HW192447   6.023   9.563   3.741  0.3255  0.0247 -0.1520
28870SOL    HW292448   6.056   9.438   3.661 -0.6655 -0.3781  0.0521
28871SOL     OW92449   8.725   1.425   5.425  0.3351 -0.2672  0.4050
28871SOL    HW192450   8.701   1.370   5.350 -0.7665  0.4176  0.2243
28871SOL    HW292451   8.814   1.454   5.406 -0.7171  1.7792 -1.8375
28872SOL     OW92452   3.550   4.723   6.032  0.4493  0.4676  0.1178
28872SOL    HW192453   3.485   4.678   6.086 -0.7920  0.3629 -1.3786
28872SOL    HW292454   3.545   4.679   5.947  0.2128  2.4919 -0.9748
28873SOL     OW92455   0.465   3.425   8.014 -0.6761 -0.4911  0.1415
28873SOL    HW192456   0.445   3.408   7.921 -0.9984  1.0682 -0.1067
28873SOL    HW292457   0.431   3.348   8.060 -1.9979 -0.5653 -0.8846
28874SOL     OW92458  11.573   9.168   2.354 -0.1818 -0.1544 -0.1481
28874SOL    HW192459  11.609   9.150   2.267 -0.1976 -2.5185  0.2889
28874SOL    HW292460  11.508   9.237   2.338  0.2653 -0.0711 -1.8983
28875SOL     OW92461   0.696  11.657   9.714 -0.4551  0.1861 -0.3230
28875SOL    HW192462   0.719  11.727   9.653  0.7933  0.2327  0.1843
28875SOL    HW292463   0.660  11.702   9.790  1.4049  0.4004  0.4843
28876SOL     OW92464  10.944   9.569  10.934  0.0369 -0.0467 -0.1081
28876SOL    HW192465  10.872   9.525  10.979  0.1634 -0.4063 -0.2546
28876SOL    HW292466  11.010   9.582  11.002  0.7261 -1.6698 -0.4152
28877SOL     OW92467   5.458   4.398   2.448 -0.2996 -0.1974  0.0706
28877SOL    HW192468   5.528   4.344   2.485 -1.3318 -1.5272  0.1484
28877SOL    HW292469   5.435   4.353   2.366 -0.5537  0.6530 -0.3320
28878SOL     OW92470  10.941   6.519   0.784  0.5273  0.1857 -0.1588
28878SOL    HW192471  11.003   6.461   0.740  1.0455  0.6391 -0.0366
28878SOL    HW292472  10.896   6.462   0.847  1.7505  0.1104  0.6889
28879SOL     OW92473   2.018   2.931   4.326 -0.5388 -0.2357 -0.1034
28879SOL    HW192474   2.007   2.839   4.351  0.0644 -0.0327  1.0119
28879SOL    HW292475   2.016   2.931   4.231 -1.0700 -1.3382 -0.1053
28880SOL     OW92476   3.969  10.831   2.294  0.0330 -0.3335  0.2255
28880SOL    HW192477   4.023  10.904   2.263 -0.5641  0.1612  0.3204
28880SOL    HW292478   3.926  10.798   2.215 -0.7104  0.2771  0.3614
28881SOL     OW92479   7.850   9.285   9.555  0.0786 -0.1089 -0.3913
28881SOL    HW192480   7.920   9.344   9.580  0.9805 -1.7779  1.2152
28881SOL    HW292481   7.841   9.298   9.460  0.9941  1.7452 -0.2648
28882SOL     OW92482   7.924   0.391   4.801  0.6041 -0.2683 -0.2999
28882SOL    HW192483   7.872   0.314   4.779  0.6887 -0.9052  1.5007
28882SOL    HW292484   8.015   0.361   4.793  0.6425 -0.1323 -0.3613
28883SOL     OW92485   5.035   2.695   2.041  0.3243 -0.2436  0.0665
28883SOL    HW192486   5.129   2.704   2.025  0.3391  1.5296  0.9546
28883SOL    HW292487   5.029   2.631   2.112  0.8106 -0.7983 -0.3765
28884SOL     OW92488   6.389   1.546   8.824  0.1551  0.8819  0.5544
28884SOL    HW192489   6.366   1.457   8.854  1.1480  0.0309 -1.0644
28884SOL    HW292490   6.305   1.586   8.801 -0.5209  1.1124  3.0619
28885SOL     OW92491   3.244   0.026   8.884 -0.4367  0.3507  0.2928
28885SOL    HW192492   3.163  -0.004   8.925 -0.4146 -1.2097 -0.7048
28885SOL    HW292493   3.299   0.057   8.956 -1.1926 -0.3727  1.1879
28886SOL     OW92494  10.886   0.149   5.369 -0.8248  0.2746  0.2779
28886SOL    HW192495  10.938   0.211   5.420  0.9635  1.1322 -2.3846
28886SOL    HW292496  10.883   0.071   5.424  0.3033  1.3827  2.0282
28887SOL     OW92497   2.352   2.090   5.227 -0.1219 -0.0099 -0.3365
28887SOL    HW192498   2.430   2.129   5.188 -0.4754  0.3016 -0.7505
28887SOL    HW292499   2.280   2.148   5.200 -0.3612  0.3228  0.9338
28888SOL     OW92500   1.982   0.518  11.496  0.0203 -0.4297  0.6885
28888SOL    HW192501   1.950   0.447  11.442  1.0625  1.1935 -2.3079
28888SOL    HW292502   2.076   0.502  11.504  0.4154  0.9225 -0.7042
28889SOL     OW92503   9.610   8.199   0.001  0.6135 -0.3134 -0.4331
28889SOL    HW192504   9.594   8.223  -0.090  0.5041  3.0383  0.3576
28889SOL    HW292505   9.698   8.232   0.019  1.6109 -2.9649  0.1593
28890SOL     OW92506   0.797  10.859   7.485 -0.7243 -0.2838 -0.6120
28890SOL    HW192507   0.753  10.871   7.401  0.6086 -2.5165 -1.7571
28890SOL    HW292508   0.782  10.766   7.506  3.9281 -1.5206 -1.5889
28891SOL     OW92509  12.006  10.583   6.579 -0.0803  0.6222 -0.4296
28891SOL    HW192510  11.932  10.627   6.537  0.4577  1.1912 -0.8091
28891SOL    HW292511  12.015  10.501   6.530  1.3057  1.8155 -2.3207
28892SOL     OW92512   8.693  11.133   4.092  0.3440 -0.3786 -0.3492
28892SOL    HW192513   8.626  11.097   4.151 -1.6553  1.7178 -1.2213
28892SOL    HW292514   8.767  11.072   4.101 -1.2632 -2.2297  1.4325
28893SOL     OW92515   1.263   5.766   3.139 -0.0401 -0.3924  0.1531
28893SOL    HW192516   1.242   5.680   3.173  1.4341 -0.9014 -0.1813
28893SOL    HW292517   1.354   5.781   3.162  0.8172 -0.4306 -2.7612
28894SOL     OW92518   6.841   5.702   2.076 -0.8107 -0.1239 -0.0546
28894SOL    HW192519   6.798   5.773   2.029 -0.9458  0.4434  0.8942
28894SOL    HW292520   6.933   5.730   2.083 -0.5201 -0.7832 -1.0417
28895SOL     OW92521   3.398   3.217   0.117 -0.1262  0.3314 -0.2930
28895SOL    HW192522   3.440   3.253   0.195 -1.0657  1.7688 -0.4201
28895SOL    HW292523   3.380   3.126   0.141  0.6650  0.4195  0.7230
28896SOL     OW92524   7.886   1.924   2.029 -0.5515 -0.0842  0.5314
28896SOL    HW192525   7.971   1.880   2.025 -0.4413 -0.0391  1.9329
28896SOL    HW292526   7.903   2.013   2.000 -0.4103 -0.4586 -0.5566
28897SOL     OW92527   6.206  12.039   2.182  0.2056 -0.5697  0.6167
28897SOL    HW192528   6.296  12.051   2.152 -0.2923 -0.4015 -0.8784
28897SOL    HW292529   6.176  11.959   2.139 -0.9618  0.3914 -0.4410
28898SOL     OW92530  11.766  11.667   4.116  0.6382  0.0025 -0.3754
28898SOL    HW192531  11.834  11.673   4.049  0.1532 -0.9541 -0.9880
28898SOL    HW292532  11.684  11.680   4.068  0.3158 -0.1842  0.1103
28899SOL     OW92533  10.022   5.430   4.573  0.0301  0.1158 -0.4749
28899SOL    HW192534   9.933   5.454   4.598 -0.1482  0.1384 -1.0984
28899SOL    HW292535  10.061   5.512   4.543 -0.2915 -0.1888 -1.7787
28900SOL     OW92536   9.255  11.334   3.230  0.1549  0.0630 -0.0402
28900SOL    HW192537   9.195  11.282   3.176 -2.7192  0.0169  2.9226
28900SOL    HW292538   9.212  11.419   3.239  0.6851  0.1836  1.8157
28901SOL     OW92539   7.578   5.956   3.234  0.5043 -0.2986  0.8572
28901SOL    HW192540   7.510   6.023   3.238 -0.6258 -1.3694  0.1710
28901SOL    HW292541   7.631   5.980   3.158 -0.3617 -0.5999  0.1472
28902SOL     OW92542   9.692   1.373   5.893 -0.2013  0.4438  0.1543
28902SOL    HW192543   9.687   1.468   5.889 -0.9652  0.4542  0.9137
28902SOL    HW292544   9.759   1.355   5.959  2.3713  0.3902 -2.2946
28903SOL     OW92545   9.363   6.297   1.610 -0.5150 -0.5031  0.0825
28903SOL    HW192546   9.307   6.369   1.579  2.3807  0.3459 -3.9858
28903SOL    HW292547   9.445   6.340   1.635  0.9017 -2.2025 -1.3908
28904SOL     OW92548   2.532   2.359   0.117 -0.1972  0.4557 -0.1050
28904SOL    HW192549   2.606   2.299   0.129  0.1963  0.7485 -0.9664
28904SOL    HW292550   2.476   2.317   0.052 -1.0096  0.0451  0.8480
28905SOL     OW92551   8.738  10.647   7.721 -0.9222  0.1651  0.0560
28905SOL    HW192552   8.691  10.673   7.642 -0.9583  1.4980  0.4891
28905SOL    HW292553   8.701  10.562   7.744 -3.1611  1.1686  0.4133
28906SOL     OW92554  12.265   7.264  11.833  0.5182  0.7826 -0.1140
28906SOL    HW192555  12.312   7.296  11.757  2.4142 -1.9614 -0.2679
28906SOL    HW292556  12.334   7.236  11.894 -0.9165 -0.6626  0.9411
28907SOL     OW92557  11.379   7.715  11.695  0.0206  0.9192 -0.1694
28907SOL    HW192558  11.326   7.786  11.732 -1.5168  0.3340 -1.1648
28907SOL    HW292559  11.445   7.760  11.642  1.2946  1.7027  1.9654
28908SOL     OW92560  11.918   1.170   8.533 -0.0046  0.2896 -0.1357
28908SOL    HW192561  11.902   1.146   8.442 -2.6358  0.0188  0.3148
28908SOL    HW292562  11.911   1.265   8.534 -0.5601  0.2503 -0.1275
28909SOL     OW92563   9.561   9.521   5.598 -0.4646 -0.6412 -0.1055
28909SOL    HW192564   9.604   9.534   5.514  0.1851  0.9174  0.4333
28909SOL    HW292565   9.584   9.599   5.649  0.7012 -2.3408  2.1585
28910SOL     OW92566   5.968   3.599   5.792  0.8006 -0.2828 -0.0959
28910SOL    HW192567   6.042   3.546   5.762  0.1863 -0.6418 -1.0527
28910SOL    HW292568   5.906   3.596   5.719  0.2983  0.8931  0.2596
28911SOL     OW92569   7.858  11.400   7.924 -0.7192 -0.2447 -0.2461
28911SOL    HW192570   7.843  11.385   8.018 -1.1143  1.7207  0.0427
28911SOL    HW292571   7.804  11.334   7.881  0.6882 -2.2491  0.8683
28912SOL     OW92572   1.987   2.272  10.588  0.5487  0.4077  0.0475
28912SOL    HW192573   1.959   2.189  10.551  1.9259  0.3113 -0.8544
28912SOL    HW292574   1.956   2.270  10.679 -0.9046 -0.3353 -0.4242
28913SOL     OW92575   8.639   9.839  11.487 -0.4177  0.3237 -0.4514
28913SOL    HW192576   8.638   9.792  11.404 -1.6452 -0.6398  0.0880
28913SOL    HW292577   8.547   9.858  11.506 -0.5040 -2.0399  2.0736
28914SOL     OW92578   2.713  11.347  11.184 -0.1876  0.0107 -0.7298
28914SOL    HW192579   2.696  11.420  11.243 -1.2216  0.0566 -1.0518
28914SOL    HW292580   2.807  11.334  11.187  0.0720  1.6406 -0.9806
28915SOL     OW92581   2.416   5.999   3.467 -0.0520  0.1100  0.2441
28915SOL    HW192582   2.388   5.999   3.559 -1.6809 -3.7867 -0.0630
28915SOL    HW292583   2.341   6.033   3.419  0.6602  1.7884  0.2698
28916SOL     OW92584   6.465   9.959   2.100  0.4034 -0.3190  0.4177
28916SOL    HW192585   6.372   9.977   2.086  0.2877 -0.7878  0.5727
28916SOL    HW292586   6.467   9.874   2.143  0.8657  0.1437  1.3361
28917SOL     OW92587  10.073  10.800   5.428 -0.2505  0.3168  0.2323
28917SOL    HW192588  10.155  10.804   5.477  0.5780  1.3983 -1.1492
28917SOL    HW292589  10.064  10.708   5.403  0.3312  0.1172  0.7271
28918SOL     OW92590   1.099   0.554   5.494 -0.4940  0.0633  0.2536
28918SOL    HW192591   1.037   0.572   5.564 -0.4623  0.0969  0.2733
28918SOL    HW292592   1.080   0.620   5.428 -0.4117  0.1383  0.3040
28919SOL     OW92593   5.367   3.302   7.618 -0.3591  0.2831 -0.6094
28919SOL    HW192594   5.384   3.223   7.669 -1.1686 -0.2269 -1.1155
28919SOL    HW292595   5.443   3.310   7.561  0.7505  1.0718  0.8973
28920SOL     OW92596   9.905   7.867   2.611 -0.1576 -0.1032  0.1833
28920SOL    HW192597   9.843   7.818   2.665  2.6799 -4.9403 -0.2826
28920SOL    HW292598   9.897   7.828   2.524 -0.0129  2.8604 -1.2815
28921SOL     OW92599   4.176   9.012   0.600 -0.0661 -0.0035 -0.4264
28921SOL    HW192600   4.093   9.060   0.602 -0.0555  0.0048  0.0714
28921SOL    HW292601   4.151   8.922   0.620 -0.0453 -0.1414 -1.0230
28922SOL     OW92602   4.756   6.257   5.542 -0.8040 -0.1429  0.0302
28922SOL    HW192603   4.690   6.314   5.504 -0.2583 -0.6093 -1.6859
28922SOL    HW292604   4.713   6.171   5.548 -0.2467 -0.5437 -1.4765
28923SOL     OW92605  10.032   7.691   9.094 -0.2117 -0.1539  0.3002
28923SOL    HW192606  10.017   7.761   9.157  0.4238 -0.6728  1.0457
28923SOL    HW292607  10.055   7.615   9.147 -0.2387 -0.7602 -0.5274
28924SOL     OW92608   0.753   8.243   2.382 -0.0551  0.3164 -0.0009
28924SOL    HW192609   0.845   8.217   2.375 -0.3573 -1.0564  0.7613
28924SOL    HW292610   0.707   8.162   2.405 -1.2682  1.2565  0.9955
28925SOL     OW92611   6.023   5.689   5.256 -0.2278  0.5607 -0.1101
28925SOL    HW192612   5.938   5.647   5.247 -0.4386  1.1664 -1.0979
28925SOL    HW292613   6.015   5.744   5.333 -0.4738  0.0330  0.2466
28926SOL     OW92614   6.087   3.517  11.807 -0.0429  1.0272 -0.1925
28926SOL    HW192615   6.118   3.580  11.872  1.7869  0.7504 -0.7360
28926SOL    HW292616   5.993   3.511  11.823  0.0321  2.4770  1.0917
28927SOL     OW92617   9.970   7.752  12.142  0.1488  0.3073  0.0907
28927SOL    HW192618  10.032   7.765  12.214  0.7581 -1.5012 -0.0566
28927SOL    HW292619  10.018   7.781  12.064  1.1516 -1.6960 -0.1155
28928SOL     OW92620   6.775  10.082   7.344  0.5095  0.0181  0.5907
28928SOL    HW192621   6.867  10.109   7.345  0.8879 -1.1658 -0.0176
28928SOL    HW292622   6.777   9.989   7.363 -0.2638 -0.7419 -2.4538
28929SOL     OW92623   4.696   3.316   1.389  0.7844 -0.6014  0.1940
28929SOL    HW192624   4.621   3.373   1.369  2.1755  1.0312 -0.5941
28929SOL    HW292625   4.657   3.231   1.408 -1.4576  0.7214  2.0067
28930SOL     OW92626   5.126  10.414  11.171  0.4828  0.2861 -0.1890
28930SOL    HW192627   5.157  10.323  11.169 -2.1834 -0.8308  2.2126
28930SOL    HW292628   5.184  10.457  11.234 -0.1730 -0.6691  1.1208
28931SOL     OW92629   8.843   1.298   0.957 -0.2667 -0.2412 -0.2545
28931SOL    HW192630   8.802   1.241   0.891  2.9199 -2.3749 -0.6329
28931SOL    HW292631   8.808   1.266   1.040 -0.3256 -1.1519 -0.6161
28932SOL     OW92632   0.414   0.411   5.685  0.5676 -0.8640  0.4020
28932SOL    HW192633   0.371   0.395   5.769 -0.5945  0.2386  0.0425
28932SOL    HW292634   0.355   0.470   5.638  1.0676 -1.6368 -1.2998
28933SOL     OW92635   5.465   9.096   5.556  0.0921 -0.3144  0.0442
28933SOL    HW192636   5.388   9.142   5.590  0.7738  0.2288  0.8825
28933SOL    HW292637   5.536   9.122   5.614  1.3150  0.6674 -1.8186
28934SOL     OW92638   9.614   3.839   0.295  0.6155  0.4903  0.1614
28934SOL    HW192639   9.662   3.904   0.244 -0.2820  2.0479  1.2147
28934SOL    HW292640   9.524   3.874   0.299 -0.3457 -1.6889 -0.6916
28935SOL     OW92641   3.580   0.065   0.989  0.0130  0.0767  0.2115
28935SOL    HW192642   3.570   0.157   0.965 -0.8704  0.1183  0.7157
28935SOL    HW292643   3.672   0.045   0.971  0.6679  1.5299  1.7229
28936SOL     OW92644   2.959  10.416   8.374 -0.4273  0.4084  0.3325
28936SOL    HW192645   3.027  10.411   8.442 -0.1775  1.7340  0.2081
28936SOL    HW292646   3.007  10.410   8.292 -0.5113  0.7218  0.2558
28937SOL     OW92647   5.019   8.271   9.618 -0.8662 -0.4170  0.5111
28937SOL    HW192648   5.076   8.304   9.687 -1.0835 -0.4053  0.6869
28937SOL    HW292649   5.071   8.206   9.572 -0.4349  0.1685  0.1628
28938SOL     OW92650   1.075   7.051   7.657  0.0603  0.1208 -0.1414
28938SOL    HW192651   0.989   7.009   7.658  0.9913 -2.0062  1.8370
28938SOL    HW292652   1.057   7.145   7.657 -2.2354 -0.2785 -0.5829
28939SOL     OW92653   8.350  10.664   1.639 -0.0775  0.5894 -0.2747
28939SOL    HW192654   8.358  10.745   1.588 -0.1178  0.8051  0.0608
28939SOL    HW292655   8.262  10.669   1.678 -0.3421  0.0723 -0.7850
28940SOL     OW92656   4.742  10.328   8.837  0.1950 -0.2722 -0.4234
28940SOL    HW192657   4.780  10.263   8.896 -2.2175 -1.6640 -0.2960
28940SOL    HW292658   4.648  10.316   8.845 -0.3146 -0.5031 -4.5240
28941SOL     OW92659  10.725   7.025   7.136  0.7487  0.0996 -0.0877
28941SOL    HW192660  10.641   6.993   7.103  1.0244  0.2925 -1.0011
28941SOL    HW292661  10.715   7.121   7.138  0.3887  0.0514  1.3670
28942SOL     OW92662   1.540   8.411   2.490  0.6859 -0.5588  0.8913
28942SOL    HW192663   1.504   8.426   2.403  1.0414 -1.2292  0.6157
28942SOL    HW292664   1.464   8.410   2.548  0.2748 -1.6483  0.3592
28943SOL     OW92665   4.227   4.478   9.573 -0.4013 -0.1255 -0.4477
28943SOL    HW192666   4.314   4.440   9.562  0.3360  1.3472  0.0091
28943SOL    HW292667   4.184   4.421   9.637  0.4232 -0.5632 -0.2614
28944SOL     OW92668   4.733  11.043   7.280  0.5727 -0.0356 -0.0092
28944SOL    HW192669   4.713  11.099   7.355 -0.0845 -0.3984  0.0947
28944SOL    HW292670   4.701  11.092   7.204  1.1736  0.3006 -0.0431
28945SOL     OW92671   1.854   6.953   1.225 -0.2414  0.1195  0.4590
28945SOL    HW192672   1.850   7.041   1.263 -0.9041  0.7042 -0.8623
28945SOL    HW292673   1.929   6.912   1.267 -1.6735  0.1966  3.3527
28946SOL     OW92674   1.086  10.314   1.035 -0.6053 -0.3848  0.0706
28946SOL    HW192675   1.050  10.402   1.048  2.5797  0.8432  1.9625
28946SOL    HW292676   1.054  10.264   1.110 -0.4487 -0.0678  0.3541
28947SOL     OW92677  11.366   1.224   2.486  0.0271  0.2189  0.4656
28947SOL    HW192678  11.426   1.248   2.415 -0.2716  0.9061  0.4407
28947SOL    HW292679  11.280   1.252   2.454  0.0445  1.6610  1.6061
28948SOL     OW92680   1.904   5.292  10.152  0.2006 -0.5346 -0.4409
28948SOL    HW192681   1.878   5.348  10.225 -0.2414 -0.0282 -0.9802
28948SOL    HW292682   1.984   5.333  10.118  1.0753 -1.4089  0.4485
28949SOL     OW92683   5.387   0.038   8.948 -0.0392  0.2723  0.5196
28949SOL    HW192684   5.295   0.064   8.953 -0.1544 -0.1107  0.3878
28949SOL    HW292685   5.411   0.053   8.857 -0.1258 -0.1442  0.4267
28950SOL     OW92686   1.203   3.102   2.808  0.8110 -0.4768 -0.7694
28950SOL    HW192687   1.193   3.158   2.731  2.5518  0.5544 -0.2862
28950SOL    HW292688   1.222   3.015   2.771  0.8631 -0.1612 -1.5128
28951SOL     OW92689   7.282   5.936   1.544  0.5320  0.4265 -0.2039
28951SOL    HW192690   7.372   5.914   1.519  0.7597 -0.2368  1.1376
28951SOL    HW292691   7.291   5.994   1.620 -0.1469 -1.5526  1.4792
28952SOL     OW92692   6.405   3.925   0.783 -0.0559  0.4995 -0.0124
28952SOL    HW192693   6.345   3.890   0.717  3.6168 -1.5306 -2.6818
28952SOL    HW292694   6.422   3.850   0.840 -0.8381  1.3913  1.4498
28953SOL     OW92695   8.500  11.969   3.620  0.0562 -0.1126  0.1723
28953SOL    HW192696   8.428  11.948   3.560 -1.3458  0.2542  1.6583
28953SOL    HW292697   8.572  11.915   3.590 -1.4236 -2.0059 -0.1763
28954SOL     OW92698   3.498   9.250   9.407 -0.1353 -0.0055 -0.8156
28954SOL    HW192699   3.490   9.346   9.404  1.6956  0.4752  2.9305
28954SOL    HW292700   3.558   9.229   9.336 -0.9772  1.4935 -2.0562
28955SOL     OW92701   3.601  11.246   5.298  0.3505 -0.2566 -0.4566
28955SOL    HW192702   3.570  11.155   5.292  1.9681 -1.0008  1.3917
28955SOL    HW292703   3.574  11.285   5.215 -0.6801 -2.3260 -1.1832
28956SOL     OW92704   2.684   6.328   4.552  0.5112  0.4413  0.6916
28956SOL    HW192705   2.685   6.233   4.563 -0.7055  0.5064  1.6209
28956SOL    HW292706   2.611   6.345   4.492  0.3780  0.8044  0.9468
28957SOL     OW92707   7.475   6.727  11.022 -0.4128  0.2627 -0.2421
28957SOL    HW192708   7.484   6.646  11.072  0.7318  1.5223  1.7381
28957SOL    HW292709   7.565   6.750  10.999 -0.8206  0.4187 -1.7843
28958SOL     OW92710   5.523   0.819   6.620 -0.0365 -0.2364 -0.1432
28958SOL    HW192711   5.499   0.728   6.637 -1.6512  0.1528 -0.1434
28958SOL    HW292712   5.466   0.869   6.679  1.4112  0.7558  0.4561
28959SOL     OW92713   0.498  10.225   8.419 -0.4502 -0.6185  0.3581
28959SOL    HW192714   0.418  10.177   8.438 -0.6555 -0.0359  0.9950
28959SOL    HW292715   0.520  10.200   8.329 -1.2771 -0.8795  0.2210
28960SOL     OW92716   6.278   0.067   0.168 -0.4504 -0.7713  0.4812
28960SOL    HW192717   6.363   0.023   0.159 -0.0039  0.1688 -0.1208
28960SOL    HW292718   6.296   0.140   0.227 -0.4881  0.2754 -0.7752
28961SOL     OW92719   8.862   7.340   3.158  0.1019  0.0259  0.1454
28961SOL    HW192720   8.773   7.334   3.125  0.0861 -0.5032  0.2773
28961SOL    HW292721   8.860   7.413   3.220 -0.1217  0.3284 -0.2139
28962SOL     OW92722  10.239   7.044   0.038  0.0983 -0.4771 -0.6360
28962SOL    HW192723  10.315   7.085   0.080 -0.4337  0.3319 -0.4463
28962SOL    HW292724  10.259   6.950   0.040  1.2794 -0.2545 -0.9675
28963SOL     OW92725  11.131  10.343  10.808  0.1844  0.2937  0.8588
28963SOL    HW192726  11.120  10.433  10.839  2.8409  1.9699 -2.3827
28963SOL    HW292727  11.225  10.327  10.816  0.4809 -0.4263 -2.5665
28964SOL     OW92728   9.859   7.704   1.559  0.4208  0.0832  0.0903
28964SOL    HW192729   9.916   7.686   1.485  0.5890  2.1803 -0.3601
28964SOL    HW292730   9.830   7.794   1.545 -1.3271 -0.2261  1.4171
28965SOL     OW92731  10.282   9.379  12.135  0.1062 -0.2129  0.0166
28965SOL    HW192732  10.300   9.285  12.132  0.2306 -0.1891  0.0238
28965SOL    HW292733  10.252   9.395  12.224 -0.5703 -0.3650 -0.1809
28966SOL     OW92734   4.318   5.358   0.424  0.2527  0.5521 -0.0353
28966SOL    HW192735   4.316   5.411   0.503 -0.7524  0.8314 -0.2313
28966SOL    HW292736   4.230   5.366   0.387 -0.0137 -1.4083  0.0412
28967SOL     OW92737   3.784  12.243   9.735  0.4382 -0.1328 -0.2457
28967SOL    HW192738   3.823  12.288   9.809 -1.3081 -0.2148  0.7726
28967SOL    HW292739   3.845  12.258   9.663  1.8249  0.5418  1.0144
28968SOL     OW92740   3.216   3.922   7.230 -0.6667 -0.0176 -0.0172
28968SOL    HW192741   3.205   3.964   7.145  0.2877  0.4119  0.0628
28968SOL    HW292742   3.143   3.954   7.283 -1.2653 -0.2892 -0.6670
28969SOL     OW92743   1.011   0.626   1.899 -0.4834  0.8991 -0.3606
28969SOL    HW192744   0.997   0.656   1.989  3.2297  1.7506  0.0611
28969SOL    HW292745   1.014   0.706   1.847 -0.7730  0.5183 -0.9762
28970SOL     OW92746   2.392   4.314   6.436  0.2246  0.0221  0.0316
28970SOL    HW192747   2.378   4.259   6.359 -1.7223 -0.5751  0.7482
28970SOL    HW292748   2.470   4.366   6.415  1.3858 -2.0735 -1.1972
28971SOL     OW92749   1.798  12.097   5.592 -0.5385  0.0312 -0.2245
28971SOL    HW192750   1.725  12.054   5.635  0.8423 -2.2119  0.0728
28971SOL    HW292751   1.820  12.039   5.518  1.0926  0.4454 -0.1076
28972SOL     OW92752   9.214   9.113  10.088  0.2228 -0.4654 -0.0215
28972SOL    HW192753   9.290   9.157  10.049  0.2733  1.0857  1.6585
28972SOL    HW292754   9.231   9.115  10.182 -1.0831 -1.7127  0.2780
28973SOL     OW92755   6.230   6.418   2.932 -0.3303  0.2541 -0.1785
28973SOL    HW192756   6.211   6.512   2.928 -1.4840  0.1757  1.9060
28973SOL    HW292757   6.319   6.413   2.968  0.8640  0.5219 -2.8831
28974SOL     OW92758   0.861   1.005   3.726 -0.0695  0.1333 -0.0152
28974SOL    HW192759   0.775   0.969   3.748 -0.8494  1.2957 -1.0131
28974SOL    HW292760   0.924   0.943   3.763 -1.3376 -1.2001 -0.0179
28975SOL     OW92761   8.301   4.357   6.879 -0.4811  0.0792  0.3704
28975SOL    HW192762   8.360   4.430   6.898 -0.1462 -0.0449 -0.1737
28975SOL    HW292763   8.272   4.373   6.789 -0.2954 -0.5312  0.2006
28976SOL     OW92764   0.785   4.701   5.966  0.0042  0.4638  0.3868
28976SOL    HW192765   0.716   4.760   5.995  0.7680  1.8843 -0.5403
28976SOL    HW292766   0.782   4.628   6.027 -1.8908  0.7788  0.7409
28977SOL     OW92767   5.517   2.239   9.727 -0.0866  0.1128 -0.0244
28977SOL    HW192768   5.544   2.148   9.743 -0.3857  0.0410  0.0931
28977SOL    HW292769   5.525   2.250   9.632 -2.1027 -0.7315 -0.3499
28978SOL     OW92770  10.243  11.780   9.089 -0.0499 -0.0895 -0.0847
28978SOL    HW192771  10.247  11.863   9.041 -0.4405 -0.0545 -0.0622
28978SOL    HW292772  10.311  11.726   9.050 -0.3693 -0.0655 -0.6897
28979SOL     OW92773   8.368   3.939   3.710 -0.2576 -0.0406  0.2334
28979SOL    HW192774   8.457   3.905   3.718 -0.3510 -0.0677  1.4758
28979SOL    HW292775   8.346   3.929   3.618  1.9461  2.3209 -0.6681
28980SOL     OW92776   4.977   5.498   1.680 -0.0654  0.0779 -0.1448
28980SOL    HW192777   4.929   5.475   1.760 -0.2923 -3.1263 -1.0508
28980SOL    HW292778   5.056   5.444   1.682  0.1090  0.1846 -1.8824
28981SOL     OW92779   0.530  10.466   7.646 -0.0193  0.4235 -0.5238
28981SOL    HW192780   0.519  10.477   7.740 -0.1881  1.5679 -0.6622
28981SOL    HW292781   0.616  10.425   7.637 -0.1463 -0.0069  0.1358
28982SOL     OW92782   7.026   0.927   1.652 -0.2692  0.2617  0.1792
28982SOL    HW192783   7.114   0.891   1.653 -0.6009 -0.5946 -0.3157
28982SOL    HW292784   7.038   1.020   1.636  0.5382  0.1092 -0.1506
28983SOL     OW92785   4.283   2.557   0.990  0.1860  0.7351  0.4132
28983SOL    HW192786   4.341   2.510   1.050  1.8859  2.2505  0.0478
28983SOL    HW292787   4.313   2.533   0.903 -1.3902 -0.3872  0.1426
28984SOL     OW92788   6.401   9.420   9.594  0.2107 -0.0940  0.3522
28984SOL    HW192789   6.456   9.393   9.520  0.6632  0.0219  0.6420
28984SOL    HW292790   6.388   9.341   9.645 -0.5183 -0.2828 -0.1103
28985SOL     OW92791   0.720   2.430   7.490  0.0249 -0.2039  0.3511
28985SOL    HW192792   0.707   2.471   7.405 -2.9436  1.7342  1.5595
28985SOL    HW292793   0.653   2.361   7.494  2.0718 -2.3402  0.0755
28986SOL     OW92794   3.253  10.439   5.507 -0.1036 -0.2954  0.1708
28986SOL    HW192795   3.311  10.492   5.453 -0.3107 -0.3233 -0.0814
28986SOL    HW292796   3.165  10.465   5.480 -0.2382 -1.8923 -1.0792
28987SOL     OW92797   7.188   2.967   9.592 -0.3341  0.0806 -0.4454
28987SOL    HW192798   7.173   2.888   9.644 -0.6377  0.2287 -0.3083
28987SOL    HW292799   7.105   3.014   9.594 -0.4599 -0.0870 -1.3759
28988SOL     OW92800  10.430   1.097   9.175  0.0767  0.4350  0.1068
28988SOL    HW192801  10.407   1.026   9.235 -0.2328  0.6733  0.2684
28988SOL    HW292802  10.370   1.168   9.197 -0.6716  0.2069 -1.0848
28989SOL     OW92803   1.200   4.961   1.160 -0.0761 -0.5762 -0.4423
28989SOL    HW192804   1.161   4.941   1.246  1.0700 -1.0261 -0.0067
28989SOL    HW292805   1.131   5.008   1.113 -0.8316 -0.5812  0.6180
28990SOL     OW92806  10.004   2.400   8.375 -0.0879  0.1143 -0.1378
28990SOL    HW192807   9.923   2.393   8.324  0.7622 -1.9978 -1.3243
28990SOL    HW292808   9.983   2.360   8.459 -0.3320 -0.3204 -0.3992
28991SOL     OW92809   1.458   6.519   6.980  0.2811  0.1160  0.4238
28991SOL    HW192810   1.414   6.576   6.916  0.1571  0.2822  0.6534
28991SOL    HW292811   1.408   6.438   6.978  0.9480 -0.2841 -0.4973
28992SOL     OW92812   3.770   6.935   0.860  0.2394 -0.3257  0.2297
28992SOL    HW192813   3.765   6.884   0.779 -0.5700 -0.3093  0.2630
28992SOL    HW292814   3.854   6.909   0.899 -0.4312 -2.1405  0.5677
28993SOL     OW92815   9.737   9.177   7.677 -0.0855  0.1520 -0.2388
28993SOL    HW192816   9.677   9.247   7.702 -0.6068 -0.1410 -0.6577
28993SOL    HW292817   9.821   9.222   7.664 -0.1947  0.5512  0.4079
28994SOL     OW92818   7.881   9.494   7.860  0.4862 -0.0948 -0.2940
28994SOL    HW192819   7.827   9.501   7.939 -0.1803  1.0395 -0.8429
28994SOL    HW292820   7.819   9.489   7.788  1.1048  0.0230 -0.8425
28995SOL     OW92821   1.611   8.355   4.264  0.3892  0.3411  0.3501
28995SOL    HW192822   1.678   8.355   4.196  1.2467  2.5503  1.1005
28995SOL    HW292823   1.547   8.290   4.235  0.7603  1.1191 -2.5070
28996SOL     OW92824   1.546   8.628   0.746 -0.2748 -0.0811 -0.1167
28996SOL    HW192825   1.476   8.693   0.746 -0.3967 -0.2142 -0.3177
28996SOL    HW292826   1.594   8.645   0.828 -1.3172 -0.8362  0.6712
28997SOL     OW92827   2.528  10.059  10.173 -0.7097 -0.0150 -0.2385
28997SOL    HW192828   2.525  10.119  10.099 -1.9287  0.1139 -0.1042
28997SOL    HW292829   2.593   9.993  10.148  0.4848  1.2091 -0.4861
28998SOL     OW92830  10.973   7.622   6.840 -0.1479  0.0393 -0.0195
28998SOL    HW192831  10.971   7.659   6.928  0.6819  2.0251 -0.7967
28998SOL    HW292832  10.899   7.560   6.839  1.4636 -2.1781  2.9195
28999SOL     OW92833  10.959  11.070  11.591  0.0208 -0.2436  0.4672
28999SOL    HW192834  10.876  11.116  11.606  0.8942  1.5344  0.1392
28999SOL    HW292835  10.988  11.102  11.505  1.2058 -0.6010  0.7261
29000SOL     OW92836   6.421   2.673  10.522 -0.1422  0.1756 -0.3509
29000SOL    HW192837   6.366   2.706  10.593  0.0329 -1.6919  0.6993
29000SOL    HW292838   6.508   2.710  10.541 -0.3811  0.7742 -0.3840
29001SOL     OW92839   7.591  10.431   1.610 -0.1146 -0.5199  0.4470
29001SOL    HW192840   7.575  10.343   1.577 -1.4027 -0.4966  0.9449
29001SOL    HW292841   7.540  10.488   1.552  1.0420 -0.0392 -0.1306
29002SOL     OW92842  11.913  11.195   0.105  0.0036  0.2513  0.3202
29002SOL    HW192843  11.891  11.193   0.198  2.2312  0.0870  0.8939
29002SOL    HW292844  11.943  11.285   0.090  0.8209 -0.0562  0.0763
29003SOL     OW92845   8.469   4.742   2.437 -0.4634 -0.5327  0.7542
29003SOL    HW192846   8.552   4.698   2.456 -1.2230 -3.1904 -1.5188
29003SOL    HW292847   8.404   4.691   2.484 -1.1503 -0.4509 -0.0967
29004SOL     OW92848  12.012   3.049   2.353 -0.0316 -0.1011 -0.4556
29004SOL    HW192849  12.091   3.020   2.398 -1.3475 -1.6566  0.9872
29004SOL    HW292850  12.035   3.049   2.260  1.8506  0.2377 -0.0283
29005SOL     OW92851   2.237   9.497   8.997  0.2891 -0.4174 -0.3005
29005SOL    HW192852   2.144   9.476   9.005 -0.2752  2.1401  0.8483
29005SOL    HW292853   2.279   9.452   9.071 -0.3708 -0.0130  0.3301
29006SOL     OW92854   2.968   0.907   1.076  0.0212  0.1701  0.3094
29006SOL    HW192855   2.942   0.930   0.987  3.6311  2.7011 -0.2697
29006SOL    HW292856   2.891   0.928   1.130 -0.4560  4.0133 -1.5752
29007SOL     OW92857   5.515   0.746  11.030 -0.2838  0.5222 -0.6655
29007SOL    HW192858   5.590   0.686  11.018 -0.7448 -0.4212  0.8672
29007SOL    HW292859   5.552   0.833  11.015  0.7782 -0.0195 -1.3833
29008SOL     OW92860   8.433   3.750   0.468  0.4068 -0.0865  0.8596
29008SOL    HW192861   8.382   3.714   0.396  0.0132 -0.3589  1.2687
29008SOL    HW292862   8.454   3.674   0.523  3.7188 -0.5269 -0.7514
29009SOL     OW92863   8.982   8.828   9.462  0.2433 -0.5564  0.4781
29009SOL    HW192864   8.920   8.878   9.409 -0.2991 -2.0653 -0.3422
29009SOL    HW292865   9.052   8.890   9.481 -0.0593  0.3109 -1.1076
29010SOL     OW92866   0.061   3.047   2.114 -0.2356 -0.4086  0.1658
29010SOL    HW192867   0.152   3.071   2.100 -0.7996  2.5261  0.9312
29010SOL    HW292868   0.023   3.120   2.163 -2.7099 -2.1019  1.0193
29011SOL     OW92869  11.827   0.372   6.294  0.3444  0.0679 -0.0859
29011SOL    HW192870  11.898   0.436   6.305  1.3181 -0.9606 -0.2159
29011SOL    HW292871  11.764   0.416   6.236  0.6275  1.1823  0.4171
29012SOL     OW92872   7.318   3.943   5.467 -0.0771 -0.2201 -0.2754
29012SOL    HW192873   7.392   3.939   5.407  0.1648 -1.1232  0.0662
29012SOL    HW292874   7.252   3.994   5.420  0.2929 -0.4835 -1.0991
29013SOL     OW92875   1.635   0.158   6.948  0.1040  0.3145 -0.2157
29013SOL    HW192876   1.548   0.158   6.909 -0.4038  0.2482  0.8874
29013SOL    HW292877   1.632   0.227   7.014  0.3575 -0.7933  0.9799
29014SOL     OW92878  10.562   8.540   5.576 -0.6248 -0.3722  0.1167
29014SOL    HW192879  10.644   8.494   5.594 -0.5621  0.2572  1.6264
29014SOL    HW292880  10.566   8.561   5.483  0.8499 -0.5211  0.1231
29015SOL     OW92881   9.322   7.313   0.140 -0.1838  0.3720  0.1174
29015SOL    HW192882   9.368   7.391   0.172  1.2313 -0.8248  1.1309
29015SOL    HW292883   9.351   7.303   0.050  0.8948  0.1448  0.4730
29016SOL     OW92884   2.461   0.842  12.003 -0.1021 -0.1660 -0.1790
29016SOL    HW192885   2.539   0.799  11.968 -1.1222 -1.6024 -0.7515
29016SOL    HW292886   2.465   0.825  12.097  1.0371  1.0866  0.0417
29017SOL     OW92887  11.544   6.413   7.819 -0.1754 -0.3821 -0.1242
29017SOL    HW192888  11.520   6.464   7.742 -0.6365 -0.5667 -0.1080
29017SOL    HW292889  11.620   6.459   7.856  0.1561 -0.3972 -0.7835
29018SOL     OW92890   0.748  11.379   4.789  0.0694  0.3385 -0.2779
29018SOL    HW192891   0.784  11.419   4.710  0.8998 -0.2999 -0.2280
29018SOL    HW292892   0.824  11.348   4.838 -0.4875 -0.1389  0.3084
29019SOL     OW92893   9.229  11.057   1.229 -0.6793  0.6860  0.4592
29019SOL    HW192894   9.319  11.068   1.198 -0.9448  1.4731 -0.0602
29019SOL    HW292895   9.227  10.968   1.264  0.4054  0.7925  0.8401
29020SOL     OW92896   8.175   0.289   4.783  0.4456 -0.3078  0.0554
29020SOL    HW192897   8.251   0.347   4.777 -0.8977  1.4504 -1.2505
29020SOL    HW292898   8.205   0.206   4.745  1.4134  0.6963 -1.5082
29021SOL     OW92899   1.550   8.597   6.733  0.0591 -0.4674 -0.5285
29021SOL    HW192900   1.588   8.636   6.654  1.6409 -3.6148 -1.4752
29021SOL    HW292901   1.458   8.584   6.711  0.3805 -0.8992 -1.7050
29022SOL     OW92902   8.891  12.038  10.324  0.2142 -0.2238 -0.2589
29022SOL    HW192903   8.910  12.108  10.386 -2.2219 -0.2866  0.6682
29022SOL    HW292904   8.869  12.083  10.242  0.5425 -0.0171 -0.2349
29023SOL     OW92905   6.258   2.934  12.200  0.0224  0.0352 -0.3261
29023SOL    HW192906   6.278   2.849  12.238  1.5589 -0.3391 -1.8698
29023SOL    HW292907   6.169   2.925  12.166  0.3083 -1.0827 -0.8169
29024SOL     OW92908  11.156   7.192   5.507 -0.1772 -0.6513 -0.3911
29024SOL    HW192909  11.102   7.117   5.532  0.8070 -1.4235 -0.4840
29024SOL    HW292910  11.100   7.268   5.519 -1.2908 -1.4298 -0.5445
29025SOL     OW92911   0.425  11.685  11.576  0.2456 -0.4615  1.2528
29025SOL    HW192912   0.478  11.608  11.556  0.3343  0.0550 -0.7583
29025SOL    HW292913   0.385  11.709  11.492  0.5660  1.9336  1.6962
29026SOL     OW92914  10.241   4.734  11.211  0.0278 -0.4466 -0.2059
29026SOL    HW192915  10.230   4.706  11.301 -0.5606  0.7499  0.1204
29026SOL    HW292916  10.332   4.713  11.189  0.3439 -0.2215  0.8590
29027SOL     OW92917   4.029   5.369   9.186  0.7128  0.0953 -0.1373
29027SOL    HW192918   4.099   5.327   9.137  1.3262  0.0023  0.7768
29027SOL    HW292919   4.073   5.405   9.264  0.4903  3.4953 -1.3851
29028SOL     OW92920  10.622  10.488  11.597 -0.2649 -0.2023  0.3518
29028SOL    HW192921  10.557  10.456  11.660 -0.7692 -0.4062 -0.2638
29028SOL    HW292922  10.647  10.574  11.630  0.8468 -1.0487  1.8343
29029SOL     OW92923   2.049   1.296   1.009  0.7360  0.4092 -1.3947
29029SOL    HW192924   2.085   1.384   1.024  1.5379  0.4125 -3.1508
29029SOL    HW292925   2.024   1.266   1.096  0.1001  2.5220 -0.7782
29030SOL     OW92926   6.877   7.598   1.281  0.0572  0.3775 -0.5701
29030SOL    HW192927   6.873   7.529   1.347 -0.0003 -0.4191 -1.3873
29030SOL    HW292928   6.811   7.573   1.216  0.5186  0.8228 -1.2284
29031SOL     OW92929  10.511   3.788   4.804 -0.3089 -0.2579  0.2131
29031SOL    HW192930  10.568   3.712   4.794  0.3021  0.1297  0.7528
29031SOL    HW292931  10.475   3.780   4.892  0.3422  0.4764  0.5534
29032SOL     OW92932  11.160   9.586   2.479  0.2382  0.4641 -0.5660
29032SOL    HW192933  11.160   9.510   2.421  0.4974  1.5094 -1.9963
29032SOL    HW292934  11.219   9.561   2.550 -0.6850 -1.1401 -0.3035
29033SOL     OW92935   4.933   5.463  11.556  0.4532 -0.2997 -0.1104
29033SOL    HW192936   5.017   5.418  11.549  0.7476  0.3698 -0.9936
29033SOL    HW292937   4.945   5.524  11.628  0.0632 -1.5562  1.0752
29034SOL     OW92938  11.650  11.800   3.565  0.2083 -0.1449  0.6807
29034SOL    HW192939  11.608  11.866   3.620  1.3130  0.7388  0.4797
29034SOL    HW292940  11.581  11.774   3.504  0.9639  4.7040 -2.8204
29035SOL     OW92941   7.425   3.353   4.583 -0.1335  0.1907  0.2265
29035SOL    HW192942   7.385   3.320   4.663 -0.2034 -1.0834 -0.3222
29035SOL    HW292943   7.409   3.286   4.518  3.9797 -1.0855  0.2454
29036SOL     OW92944   4.890  12.104   3.382 -0.0949 -0.5001 -0.3560
29036SOL    HW192945   4.921  12.195   3.391 -0.5543 -0.4035  0.2748
29036SOL    HW292946   4.848  12.085   3.466 -1.0567 -0.8958 -0.9236
29037SOL     OW92947   9.437  10.613   4.135 -0.7122  0.4676 -0.9617
29037SOL    HW192948   9.500  10.616   4.206 -0.3650  0.7052 -1.2746
29037SOL    HW292949   9.419  10.520   4.122 -1.9502  0.4718  0.4439
29038SOL     OW92950  12.284   3.068   1.137 -0.1201  0.0931  0.5754
29038SOL    HW192951  12.320   2.983   1.113  0.3970  0.5533 -0.3104
29038SOL    HW292952  12.360   3.126   1.142 -0.2845  0.1944  2.6462
29039SOL     OW92953   1.789   3.847   2.222 -0.5982 -0.7469  0.2049
29039SOL    HW192954   1.876   3.883   2.242 -0.8105 -0.1617  0.0990
29039SOL    HW292955   1.789   3.836   2.127 -1.0400  0.3259  0.0741
29040SOL     OW92956   1.345   9.490  11.955 -0.2303  0.3067  0.0045
29040SOL    HW192957   1.387   9.442  12.026 -1.2196  0.3013  0.6099
29040SOL    HW292958   1.256   9.454  11.952  0.4712 -1.4873 -2.9150
29041SOL     OW92959  10.175   8.379  11.924  0.2113 -0.2619 -0.6261
29041SOL    HW192960  10.212   8.451  11.873 -1.2297 -1.1809 -3.1141
29041SOL    HW292961  10.122   8.422  11.991  0.4255  0.9861 -1.2272
29042SOL     OW92962   1.961   6.319   0.778  0.3699 -0.4532 -0.0529
29042SOL    HW192963   2.019   6.375   0.726 -2.1476  0.4557 -2.0912
29042SOL    HW292964   1.945   6.243   0.722  0.0766 -0.9841  0.7330
29043SOL     OW92965   2.612   1.992   9.254  0.5341  0.4279 -0.1153
29043SOL    HW192966   2.609   1.968   9.162  0.2511  0.3825 -0.0942
29043SOL    HW292967   2.701   1.970   9.282  0.5915  0.3607 -0.3543
29044SOL     OW92968   9.521  10.287   5.057  0.5114 -0.5250 -0.0941
29044SOL    HW192969   9.495  10.344   4.985 -0.2607  0.3664  0.8554
29044SOL    HW292970   9.567  10.344   5.118 -0.6506 -0.7921  1.0726
29045SOL     OW92971  11.619  12.276   5.037  0.3557  0.7847  0.3571
29045SOL    HW192972  11.656  12.192   5.066 -0.7662  0.1603  0.0546
29045SOL    HW292973  11.659  12.341   5.095  1.4345  0.0786  0.4389
29046SOL     OW92974   4.547   8.893   5.986  0.2215 -0.3287  0.3004
29046SOL    HW192975   4.485   8.832   5.947  0.1665  0.3712 -0.7391
29046SOL    HW292976   4.633   8.852   5.974  0.2340 -0.0051 -0.8340
29047SOL     OW92977  11.242   9.390   7.071  0.2796  0.0802  0.0390
29047SOL    HW192978  11.197   9.458   7.121 -0.3319  1.1371 -1.8517
29047SOL    HW292979  11.173   9.329   7.045  0.2670  0.5405 -1.0487
29048SOL     OW92980   3.979   8.103   0.971 -0.2565 -0.0599  0.1873
29048SOL    HW192981   3.982   8.165   0.898 -1.3201 -1.3145 -0.9888
29048SOL    HW292982   3.949   8.155   1.046 -0.1120  1.0569 -0.5105
29049SOL     OW92983   1.478   1.321  11.842 -0.5580  0.6275  0.1830
29049SOL    HW192984   1.571   1.341  11.828  0.1362 -1.3457  1.4995
29049SOL    HW292985   1.459   1.250  11.781 -1.8469  2.3952 -1.5835
29050SOL     OW92986   4.421   3.410   0.853 -0.6401 -0.2531 -0.3965
29050SOL    HW192987   4.362   3.348   0.897  0.2027 -0.7077  0.1266
29050SOL    HW292988   4.503   3.402   0.902 -0.3670  0.9099 -0.6547
29051SOL     OW92989   2.898   4.541   6.455 -0.0219  0.3163  0.0973
29051SOL    HW192990   2.919   4.575   6.542 -1.0223 -0.5368  0.6940
29051SOL    HW292991   2.924   4.611   6.395  2.2596  0.2491  0.9195
29052SOL     OW92992  11.855   2.122   9.109  0.0045  0.0747 -0.5413
29052SOL    HW192993  11.768   2.148   9.139  0.6006 -2.4267  4.2926
29052SOL    HW292994  11.912   2.194   9.136  0.1054 -0.8213  1.8075
29053SOL     OW92995   4.366  11.544  11.232 -0.5609 -0.0348 -0.8196
29053SOL    HW192996   4.368  11.486  11.156 -1.3764  0.4058 -1.1931
29053SOL    HW292997   4.300  11.611  11.209 -0.5363  0.3185  0.1114
29054SOL     OW92998   0.107   9.504  10.176  0.4501  0.2974 -0.4569
29054SOL    HW192999   0.199   9.487  10.156  0.2213 -1.0389 -0.4932
29054SOL    HW293000   0.094   9.462  10.261 -1.0031 -2.8413 -2.0865
29055SOL     OW93001  12.115   7.227   1.101 -0.3285 -0.4179  0.0616
29055SOL    HW193002  12.028   7.257   1.127 -0.4973 -1.3444  0.5912
29055SOL    HW293003  12.175   7.286   1.147 -0.6384 -1.3975  1.8038
29056SOL     OW93004   0.416   5.899   4.361 -0.1338  0.7909 -0.3845
29056SOL    HW193005   0.494   5.858   4.399 -0.1334  1.1036 -0.0369
29056SOL    HW293006   0.429   5.993   4.377 -0.6407  0.8334 -0.2133
29057SOL     OW93007   7.806   2.389   5.419  0.1773  0.1481  0.0680
29057SOL    HW193008   7.744   2.430   5.360  2.6870  2.0955 -1.4297
29057SOL    HW293009   7.803   2.442   5.499  0.0543  0.3329 -0.0604
29058SOL     OW93010   0.313   9.447   3.612 -0.0005  0.3182  0.5402
29058SOL    HW193011   0.237   9.503   3.628 -0.8583 -0.2381 -1.3626
29058SOL    HW293012   0.325   9.449   3.517  0.4659 -2.0164  0.4796
29059SOL     OW93013   1.377   5.366   4.012  0.2223  0.2427 -0.0401
29059SOL    HW193014   1.444   5.309   4.049  1.0483  1.5508  0.5399
29059SOL    HW293015   1.297   5.342   4.058  0.0820 -1.8270 -1.2349
29060SOL     OW93016   8.370   5.169   3.710 -0.2785 -0.2449 -0.0763
29060SOL    HW193017   8.362   5.098   3.775 -1.6029  0.5744  0.7116
29060SOL    HW293018   8.281   5.179   3.676 -0.1379  1.1124 -0.0766
29061SOL     OW93019   2.052   5.687   2.685  0.1140 -0.2104 -0.1096
29061SOL    HW193020   2.039   5.750   2.756  1.4891 -0.9726  0.8875
29061SOL    HW293021   2.049   5.738   2.605  0.8034  1.0723  0.6529
29062SOL     OW93022   1.661  10.462   5.634 -0.2402  0.0854  0.0412
29062SOL    HW193023   1.576  10.489   5.598  0.2573  0.8463 -0.5801
29062SOL    HW293024   1.688  10.535   5.688  0.0161 -0.1676  0.2553
29063SOL     OW93025   2.928   1.263   0.084 -0.1035 -0.2787  0.9511
29063SOL    HW193026   2.949   1.356   0.098 -0.6926 -0.0315  0.2365
29063SOL    HW293027   2.850   1.248   0.137 -1.0984  0.1220 -0.3541
29064SOL     OW93028  11.021  11.268   2.779 -0.5079  0.3988  0.4873
29064SOL    HW193029  11.081  11.255   2.853 -0.6020 -3.4390  0.1099
29064SOL    HW293030  11.077  11.287   2.705 -0.0455  0.1730  0.7743
29065SOL     OW93031   6.254   2.562   4.890 -0.3232  0.2915  0.3682
29065SOL    HW193032   6.190   2.493   4.870  0.6530 -0.3175 -0.7580
29065SOL    HW293033   6.205   2.643   4.879 -0.6726 -0.1167 -1.6232
29066SOL     OW93034   0.206   2.896   9.027  0.5946  0.5949  0.2303
29066SOL    HW193035   0.259   2.973   9.046  1.1604  0.2793 -0.0456
29066SOL    HW293036   0.231   2.872   8.937  1.3124 -0.6131  0.7256
29067SOL     OW93037  11.928   4.595   3.672  0.1988  0.1165  0.2197
29067SOL    HW193038  11.844   4.610   3.630  0.8437 -0.5210 -1.3940
29067SOL    HW293039  11.927   4.503   3.697  0.9041 -0.2688 -1.0651
29068SOL     OW93040   8.231   0.330   0.148  0.3172  0.2895 -0.2672
29068SOL    HW193041   8.286   0.392   0.195 -0.4054  0.3774  0.4809
29068SOL    HW293042   8.145   0.338   0.188  0.6685 -2.7222  1.3638
29069SOL     OW93043   4.029   8.921   5.521 -0.1212 -0.1257 -0.1803
29069SOL    HW193044   4.013   8.872   5.440  3.0848  1.5480 -2.0210
29069SOL    HW293045   3.983   9.004   5.508  0.3537  0.1248 -0.2660
29070SOL     OW93046  10.865   1.481   6.729 -0.1622  0.2601 -0.6628
29070SOL    HW193047  10.893   1.468   6.820 -0.9986 -0.2121 -0.4611
29070SOL    HW293048  10.946   1.491   6.681  0.2735  2.3528  0.3780
29071SOL     OW93049   9.503   2.505   7.904  0.0007 -0.3745 -0.3963
29071SOL    HW193050   9.476   2.495   7.812  0.4763  0.4862 -0.6370
29071SOL    HW293051   9.442   2.450   7.953 -1.9187  1.1609 -0.9590
29072SOL     OW93052  10.544   7.229   3.055  0.8711  0.5072  0.1560
29072SOL    HW193053  10.610   7.183   3.004 -0.3559 -1.7777  0.4758
29072SOL    HW293054  10.525   7.308   3.004 -0.1201 -1.5042 -2.9024
29073SOL     OW93055   4.989  11.515   8.755  0.0475 -0.5656  0.0038
29073SOL    HW193056   4.980  11.423   8.780  1.7005 -0.3101  1.7159
29073SOL    HW293057   4.903  11.538   8.719 -1.3169 -2.0408  2.0647
29074SOL     OW93058   8.891   3.541   1.751 -0.5297 -0.3322  0.1231
29074SOL    HW193059   8.849   3.455   1.759  0.6300 -1.2531 -2.3645
29074SOL    HW293060   8.819   3.604   1.752 -1.3462 -1.1933  2.8120
29075SOL     OW93061   8.736   9.961   6.262  0.1319  0.2170 -0.5319
29075SOL    HW193062   8.696   9.986   6.345  1.1970 -0.9810  0.3846
29075SOL    HW293063   8.684  10.006   6.196  0.2695  2.5564  0.8462
29076SOL     OW93064   2.515   0.154   8.314  0.5771 -0.2324 -0.0533
29076SOL    HW193065   2.478   0.166   8.402  0.8555  1.1643 -0.1075
29076SOL    HW293066   2.439   0.153   8.257  0.5067  2.0265 -0.0970
29077SOL     OW93067   2.727   3.435   0.619 -0.3725  0.3178  0.2820
29077SOL    HW193068   2.689   3.354   0.654 -1.2281  0.3192 -0.5939
29077SOL    HW293069   2.752   3.485   0.696  0.6566 -0.9961  0.8469
29078SOL     OW93070   5.318  11.349   3.222 -0.1039  0.3934 -0.0440
29078SOL    HW193071   5.288  11.316   3.306  0.3948  0.5039  0.1812
29078SOL    HW293072   5.245  11.332   3.162 -0.8779  1.2702  0.6221
29079SOL     OW93073   5.279   2.013   0.361 -0.3446 -0.1765 -0.2206
29079SOL    HW193074   5.282   2.090   0.304  1.3027 -0.5673 -0.7363
29079SOL    HW293075   5.269   1.939   0.301 -2.0755 -0.3761  0.2832
29080SOL     OW93076   9.078   9.857   0.530 -0.2115  0.7502  0.0224
29080SOL    HW193077   9.093   9.778   0.477  1.2288  0.6170  0.5729
29080SOL    HW293078   9.005   9.833   0.588  1.0256 -0.6824  1.0742
29081SOL     OW93079  12.321   1.427  11.959 -0.4120 -0.0585  0.1113
29081SOL    HW193080  12.254   1.479  11.914  0.0018  0.9652  0.6551
29081SOL    HW293081  12.404   1.463  11.927 -0.0935 -1.4802 -0.7489
29082SOL     OW93082   6.253   2.108  11.723  0.0795  0.0976  0.0513
29082SOL    HW193083   6.213   2.190  11.754  1.7465  0.5704  1.0824
29082SOL    HW293084   6.269   2.057  11.803  0.1736 -0.7139 -0.4745
29083SOL     OW93085   2.078   0.877   5.609  0.5110 -0.2918  0.3286
29083SOL    HW193086   2.139   0.827   5.554  1.3033 -0.2018  1.1099
29083SOL    HW293087   2.134   0.923   5.672 -0.3511 -0.0487  0.9340
29084SOL     OW93088   8.343   1.948   2.446  0.3776 -0.2577  0.2986
29084SOL    HW193089   8.313   1.971   2.534 -0.1997  0.4167 -0.0648
29084SOL    HW293090   8.438   1.960   2.450  0.1962  1.3447  0.3916
29085SOL     OW93091   9.586   3.041   3.325  0.6647 -0.1361  0.4631
29085SOL    HW193092   9.550   3.128   3.309 -2.4980 -1.6835 -1.7092
29085SOL    HW293093   9.561   3.021   3.415  0.1699  0.6404  0.5105
29086SOL     OW93094   8.977   7.405   5.912  0.1928 -0.0359 -0.0784
29086SOL    HW193095   8.929   7.339   5.962  0.0081 -0.0186 -0.2308
29086SOL    HW293096   8.994   7.476   5.974 -2.4382  1.2524 -0.6681
29087SOL     OW93097   1.998   7.978   1.439 -0.1580  0.0220  0.1461
29087SOL    HW193098   1.972   7.923   1.513 -1.3600 -2.2508 -1.8513
29087SOL    HW293099   1.923   8.036   1.424 -0.5167 -0.5281 -0.1985
29088SOL     OW93100   0.813   0.139   8.987 -0.1349 -0.4982 -0.0439
29088SOL    HW193101   0.863   0.206   9.034 -0.9600  1.2661 -1.5400
29088SOL    HW293102   0.878   0.076   8.957  0.8049  0.1773  0.5324
29089SOL     OW93103   3.500   0.696   6.367  0.7824  0.2196 -0.5461
29089SOL    HW193104   3.454   0.691   6.283 -0.9972  0.9800  0.3289
29089SOL    HW293105   3.473   0.618   6.415  1.2485  0.1387 -0.4067
29090SOL     OW93106   5.131   6.104   7.330  0.0175  0.2367 -0.2524
29090SOL    HW193107   5.119   6.136   7.419 -0.6452 -0.7823  0.0403
29090SOL    HW293108   5.046   6.119   7.288  0.1059  0.0486 -0.4961
29091SOL     OW93109  10.853   4.671   1.449  0.2835 -0.3269 -0.4487
29091SOL    HW193110  10.808   4.746   1.488 -0.1083  0.8452 -2.9144
29091SOL    HW293111  10.783   4.609   1.428  0.1824  0.0307 -1.2335
29092SOL     OW93112  11.398   7.362   6.363  0.0701 -0.3577 -0.1263
29092SOL    HW193113  11.351   7.317   6.432 -1.3108  0.0455 -0.7699
29092SOL    HW293114  11.350   7.341   6.283 -0.6526  2.1874 -0.4714
29093SOL     OW93115   3.411  11.293   1.128  0.0084 -0.0861  0.1960
29093SOL    HW193116   3.331  11.338   1.100 -1.1045 -1.8579  0.4070
29093SOL    HW293117   3.391  11.200   1.120  2.9939 -0.6773 -2.4451
29094SOL     OW93118   5.126   7.587   8.549 -0.3070 -0.1494  0.4958
29094SOL    HW193119   5.174   7.670   8.551 -0.9026  0.3528 -2.0206
29094SOL    HW293120   5.150   7.547   8.465 -1.4295 -1.6643  0.8423
29095SOL     OW93121   7.392   1.570   2.143  0.0276 -0.4897 -0.3249
29095SOL    HW193122   7.368   1.585   2.052 -0.1381  0.2320 -0.1754
29095SOL    HW293123   7.480   1.608   2.151  0.3628 -1.2393 -0.3647
29096SOL     OW93124  11.722   7.240   3.578 -0.3151 -0.5451 -0.1384
29096SOL    HW193125  11.795   7.223   3.518 -0.1685  0.0106 -0.1187
29096SOL    HW293126  11.755   7.214   3.664 -0.7177 -1.8944 -0.3568
29097SOL     OW93127  10.249  10.616   6.018  0.2353 -0.1173  0.0536
29097SOL    HW193128  10.262  10.646   6.108  1.2067  0.8142 -0.3710
29097SOL    HW293129  10.269  10.523   6.021  2.1949  0.2823  0.4408
29098SOL     OW93130   2.205   1.404   6.946 -0.1359  0.1490 -0.1304
29098SOL    HW193131   2.129   1.400   6.889  0.8255 -1.1141 -1.3980
29098SOL    HW293132   2.210   1.317   6.985  1.3605 -0.1984 -1.0439
29099SOL     OW93133   7.960   4.236   5.099  0.4053 -0.2614 -0.3637
29099SOL    HW193134   7.936   4.260   5.189  0.3717  0.1274 -0.4772
29099SOL    HW293135   8.032   4.173   5.110  1.2281  0.6990 -0.0798
29100SOL     OW93136   8.411  11.505   2.781 -0.5070  0.4001 -0.2981
29100SOL    HW193137   8.322  11.481   2.807 -0.4401 -0.5800 -0.9276
29100SOL    HW293138   8.464  11.482   2.857 -0.4082 -1.7923 -0.9617
29101SOL     OW93139   5.838   5.299   7.183 -0.4257 -0.0423 -0.0180
29101SOL    HW193140   5.844   5.289   7.088  2.6240 -0.4664  0.1180
29101SOL    HW293141   5.852   5.210   7.218 -0.2829  0.2975  0.8236
29102SOL     OW93142  11.710   0.010   1.425 -0.3706  0.4982  0.4040
29102SOL    HW193143  11.687   0.046   1.511 -1.1152  0.2141  0.3353
29102SOL    HW293144  11.781  -0.052   1.443  0.1248  1.1376  0.6796
29103SOL     OW93145   0.121   5.123  11.512  0.0355  0.2494  0.3289
29103SOL    HW193146   0.131   5.145  11.604 -0.8983 -1.3472  0.8502
29103SOL    HW293147   0.147   5.031  11.507 -3.2598 -0.7919 -0.2808
29104SOL     OW93148   9.429   5.051   8.722  0.5750 -0.5860 -0.4879
29104SOL    HW193149   9.430   5.129   8.667 -0.1984 -0.2100  0.0170
29104SOL    HW293150   9.337   5.027   8.729  0.5684 -0.1708  1.2605
29105SOL     OW93151   4.071  10.822   0.849 -0.2655 -0.4110  1.0668
29105SOL    HW193152   3.980  10.847   0.862 -0.7300 -0.7572 -1.1574
29105SOL    HW293153   4.107  10.813   0.938 -2.3548 -0.2005  1.9774
29106SOL     OW93154   5.838   5.956  11.710 -0.0787  0.2823 -0.4183
29106SOL    HW193155   5.792   6.031  11.748  0.9742 -0.2847  2.1464
29106SOL    HW293156   5.782   5.881  11.728 -0.0017  0.1257 -0.8199
29107SOL     OW93157   8.474  12.152  10.161  0.0956  0.4737  0.0340
29107SOL    HW193158   8.443  12.135  10.251 -1.6422 -0.2644 -0.6512
29107SOL    HW293159   8.414  12.219  10.128  0.4603  0.4348 -0.7027
29108SOL     OW93160   8.764   1.712   6.004  0.2853 -0.0937 -0.3433
29108SOL    HW193161   8.725   1.728   5.918 -1.6372  1.7605  0.7673
29108SOL    HW293162   8.798   1.798   6.032 -0.2901 -0.3499  1.2590
29109SOL     OW93163  10.788  10.535   6.876  0.5099 -0.1542  0.3975
29109SOL    HW193164  10.788  10.466   6.942 -1.3270 -0.4266  0.1624
29109SOL    HW293165  10.869  10.521   6.826  2.1440  0.2822  2.7513
29110SOL     OW93166   4.255  11.879   9.800 -0.0451  0.0356  0.2612
29110SOL    HW193167   4.210  11.960   9.823 -0.1755 -0.0308  0.2377
29110SOL    HW293168   4.185  11.814   9.791  0.0936 -0.1766  0.6798
29111SOL     OW93169   1.485   8.075   8.627  0.3618  0.0709  0.0424
29111SOL    HW193170   1.496   8.080   8.532 -0.7367 -0.6252 -0.1449
29111SOL    HW293171   1.436   8.154   8.649 -0.1342 -0.1875 -0.1083
29112SOL     OW93172   8.071   6.043   1.064  0.1096  0.2899  0.3697
29112SOL    HW193173   8.086   6.110   0.997 -0.6229  4.2204  3.6971
29112SOL    HW293174   8.021   6.088   1.132  1.3115 -3.1033  3.8896
29113SOL     OW93175   7.114  11.106   6.926 -0.1522 -0.4317 -0.0083
29113SOL    HW193176   7.096  11.013   6.943 -1.0268 -0.7019 -2.0880
29113SOL    HW293177   7.203  11.106   6.892 -0.8171 -0.8091 -1.8467
29114SOL     OW93178   9.864  12.271   1.516 -0.2707 -0.8205  0.2411
29114SOL    HW193179   9.794  12.277   1.452  0.7229  0.2243 -0.7753
29114SOL    HW293180   9.844  12.191   1.565 -1.7327 -0.9556 -0.5240
29115SOL     OW93181   9.319   9.501   1.101 -0.0134 -1.0512  0.6561
29115SOL    HW193182   9.236   9.456   1.115 -0.0639 -0.2790  3.4843
29115SOL    HW293183   9.294   9.590   1.075 -0.0303 -1.2459  0.0032
29116SOL     OW93184   1.255   4.511   7.578 -0.4290  0.1850 -0.0604
29116SOL    HW193185   1.227   4.433   7.530  2.7904 -0.3864 -1.1931
29116SOL    HW293186   1.202   4.509   7.658 -0.8060 -2.9086 -0.2627
29117SOL     OW93187   2.241   8.937   7.464 -0.0813  0.5290  0.1041
29117SOL    HW193188   2.216   9.021   7.503  0.3781  1.2108 -1.0244
29117SOL    HW293189   2.325   8.955   7.421  0.1893 -0.6035  0.1515
29118SOL     OW93190   3.385   7.157   1.333 -0.2854  0.3345  0.1426
29118SOL    HW193191   3.372   7.230   1.393  0.7638 -0.3324  1.2356
29118SOL    HW293192   3.352   7.081   1.380 -1.5464  0.1005 -1.0572
29119SOL     OW93193   7.704   0.836  10.513  0.0418 -0.7179 -0.0347
29119SOL    HW193194   7.701   0.852  10.418 -0.7704 -2.0704 -0.2694
29119SOL    HW293195   7.656   0.910  10.551  0.6455  0.0084 -0.6349
29120SOL     OW93196   4.404   3.687   8.463 -0.2971  0.0152 -0.1598
29120SOL    HW193197   4.354   3.666   8.385 -0.7323 -0.1732  0.1623
29120SOL    HW293198   4.350   3.654   8.535  0.3805 -0.3619  0.1814
29121SOL     OW93199   2.308   7.254   9.511 -0.5570 -0.5969 -0.4283
29121SOL    HW193200   2.251   7.263   9.588 -0.0246  1.8030 -0.2255
29121SOL    HW293201   2.305   7.340   9.469  0.6469 -1.2988 -2.0672
29122SOL     OW93202   8.046   8.270   3.061  0.4455  0.1820 -0.3219
29122SOL    HW193203   8.096   8.210   3.006  0.2800  0.4355 -0.7612
29122SOL    HW293204   8.059   8.239   3.150  2.0877  0.7428 -0.3357
29123SOL     OW93205   0.920  10.116   8.159 -0.4675 -0.3142 -0.2383
29123SOL    HW193206   0.890  10.189   8.104 -3.2490  0.1344  1.6469
29123SOL    HW293207   0.908  10.038   8.105  1.7894  0.4580 -2.0003
29124SOL     OW93208  11.934   2.172  11.489  0.0416 -0.5034 -0.4044
29124SOL    HW193209  11.889   2.202  11.568  0.1568 -2.1678  0.3224
29124SOL    HW293210  11.871   2.189  11.419 -0.0188  1.0838 -0.0014
29125SOL     OW93211   2.167   5.040   8.949 -0.5157 -0.1832  0.2714
29125SOL    HW193212   2.175   5.000   8.863 -2.2329  1.9090 -0.9526
29125SOL    HW293213   2.078   5.076   8.951  0.2627  1.8604  1.9761
29126SOL     OW93214  10.697   7.732   0.091  0.5741  0.0376  0.3369
29126SOL    HW193215  10.735   7.706   0.175 -1.2766 -1.5864  0.7314
29126SOL    HW293216  10.615   7.774   0.114 -0.0187 -0.5490 -0.6509
29127SOL     OW93217   0.046   6.478   5.819  0.0134  0.3421 -0.1482
29127SOL    HW193218   0.070   6.500   5.729 -0.3496  0.3052 -0.2555
29127SOL    HW293219  -0.039   6.520   5.832 -0.0351  0.1675  0.1081
29128SOL     OW93220  11.577   1.520   8.366  0.9887  0.1893  0.2151
29128SOL    HW193221  11.619   1.605   8.351  1.1581 -0.1368 -1.3622
29128SOL    HW293222  11.486   1.541   8.385 -0.2757  0.7378 -4.8077
29129SOL     OW93223   0.932   1.859   4.691  0.6509  0.0402 -0.1839
29129SOL    HW193224   0.929   1.954   4.706 -0.3933 -0.3941  3.2338
29129SOL    HW293225   1.025   1.838   4.690  0.8833  0.9931 -0.0272
29130SOL     OW93226   0.704   3.644   4.459  0.1188  0.9387  0.5977
29130SOL    HW193227   0.666   3.702   4.525  0.7357  0.4266  1.4271
29130SOL    HW293228   0.789   3.618   4.496  0.2518  0.2371 -0.1706
29131SOL     OW93229   7.732   9.972   8.390  0.6736  0.1706  0.1310
29131SOL    HW193230   7.637   9.966   8.397  0.7534 -0.2710  0.8751
29131SOL    HW293231   7.748  10.058   8.352 -0.0683 -0.2012 -1.0598
29132SOL     OW93232   3.116  11.518   7.305  0.6257 -0.2037  0.3185
29132SOL    HW193233   3.122  11.449   7.372  1.3080 -1.0431 -0.5820
29132SOL    HW293234   3.027  11.551   7.313  0.0252 -1.7064  0.2911
29133SOL     OW93235   5.289   1.006   5.716  0.1516 -0.1126 -0.1787
29133SOL    HW193236   5.333   1.071   5.661  0.4155 -0.4182 -0.3327
29133SOL    HW293237   5.226   1.057   5.767 -1.1900 -0.0151 -1.8518
29134SOL     OW93238   9.746   4.784   4.764 -0.3057 -0.3070  0.5325
29134SOL    HW193239   9.694   4.857   4.797  1.1598  0.5828  0.9520
29134SOL    HW293240   9.766   4.732   4.842 -0.0860 -0.3287  0.4619
29135SOL     OW93241   3.682   7.902   5.126  0.3134  0.2072 -0.1534
29135SOL    HW193242   3.614   7.868   5.067  2.1482 -0.6209 -1.9417
29135SOL    HW293243   3.643   7.981   5.164 -1.6874 -0.2984 -0.9782
29136SOL     OW93244   9.513   8.927   2.187  0.4413 -0.2259  0.3136
29136SOL    HW193245   9.574   8.928   2.261  1.9206 -2.1004 -0.7588
29136SOL    HW293246   9.547   8.858   2.130 -1.7833 -0.2004 -1.1627
29137SOL     OW93247   6.116   6.322   2.515  0.0875  0.0488  0.0274
29137SOL    HW193248   6.194   6.376   2.526  0.5095 -0.1770 -1.6349
29137SOL    HW293249   6.043   6.383   2.525  0.5263  0.6679 -0.4928
29138SOL     OW93250   1.373   3.010   9.675  0.4609  0.1663  0.4983
29138SOL    HW193251   1.397   2.923   9.642 -0.3812 -0.2173  0.8710
29138SOL    HW293252   1.443   3.067   9.644  2.2288 -1.0073  2.0832
29139SOL     OW93253   1.469  11.398   1.967  0.7333  0.1815  0.2428
29139SOL    HW193254   1.505  11.332   2.027  2.6671  0.9171 -0.0272
29139SOL    HW293255   1.436  11.348   1.893 -0.0190 -0.6201  1.0926
29140SOL     OW93256   0.402   5.301   9.891 -0.0487  0.5659  0.3528
29140SOL    HW193257   0.320   5.272   9.851  0.2970  0.6225 -0.4169
29140SOL    HW293258   0.413   5.244   9.967  0.1089 -0.6594 -0.5632
29141SOL     OW93259   5.567   9.940   5.943 -0.1006  0.3325  0.0675
29141SOL    HW193260   5.542   9.950   6.035  1.1620 -0.6622  0.5541
29141SOL    HW293261   5.656   9.973   5.939  0.1469 -0.3935 -0.6246
29142SOL     OW93262   1.280   6.275   1.375  0.5603 -0.1200 -0.0263
29142SOL    HW193263   1.364   6.238   1.404  1.0143  1.9695  1.5794
29142SOL    HW293264   1.300   6.365   1.351 -0.9527 -0.0786 -1.2543
29143SOL     OW93265   5.990   6.772   8.121 -0.5364 -0.3777 -0.0942
29143SOL    HW193266   6.073   6.818   8.132 -1.0588  0.3449  0.9632
29143SOL    HW293267   5.989   6.706   8.190 -1.0512 -0.0499  0.2219
29144SOL     OW93268   4.333   8.056   6.762 -0.4100 -0.6096 -0.3688
29144SOL    HW193269   4.405   8.116   6.781 -1.7246  0.3156  2.1216
29144SOL    HW293270   4.296   8.089   6.680  0.2377  0.6623 -0.1739
29145SOL     OW93271   6.846   0.342  10.061 -0.1667  0.4009  0.1942
29145SOL    HW193272   6.830   0.249  10.078 -3.7106  0.6391 -1.0252
29145SOL    HW293273   6.870   0.379  10.146 -0.5648 -1.2933  1.0782
29146SOL     OW93274   9.450  11.460   8.343 -0.0035  0.1902 -0.1786
29146SOL    HW193275   9.446  11.418   8.429  1.0709  0.0162 -0.1890
29146SOL    HW293276   9.411  11.396   8.283 -1.6168  0.7046  0.2953
29147SOL     OW93277  11.264   8.122   2.175 -0.0446  0.0856 -0.5746
29147SOL    HW193278  11.327   8.105   2.245 -1.3400 -0.5139  0.4657
29147SOL    HW293279  11.195   8.174   2.216 -1.0977 -0.7482 -1.2547
29148SOL     OW93280   8.262   4.905   4.780  0.0525 -0.7551 -0.3576
29148SOL    HW193281   8.193   4.968   4.800 -0.4234 -1.1030 -0.8708
29148SOL    HW293282   8.275   4.857   4.862  1.5593  1.0488  0.5269
29149SOL     OW93283   9.256   7.116   9.398  0.3474  0.3645 -0.7097
29149SOL    HW193284   9.222   7.046   9.342 -0.7808 -1.4890  2.0605
29149SOL    HW293285   9.182   7.138   9.455  1.8167  1.0746  1.0044
29150SOL     OW93286  12.132   8.733  11.491  0.1616  0.2653  0.0051
29150SOL    HW193287  12.052   8.681  11.481  0.7878 -0.6546 -0.2524
29150SOL    HW293288  12.142   8.777  11.407 -0.0859  0.4133  0.0500
29151SOL     OW93289   3.509  11.390  11.189  0.0688  0.1389  0.0152
29151SOL    HW193290   3.557  11.362  11.111  0.6633 -1.6314  0.9566
29151SOL    HW293291   3.422  11.351  11.179 -0.1075  0.5585 -0.1135
29152SOL     OW93292   3.322   0.112  11.130  0.0567 -0.4176 -0.1518
29152SOL    HW193293   3.306   0.146  11.218  0.6370  0.5870 -0.4104
29152SOL    HW293294   3.396   0.164  11.097 -1.2908  0.5239 -1.8965
29153SOL     OW93295   3.681   9.378   3.905  0.0634  0.6241 -0.1694
29153SOL    HW193296   3.661   9.426   3.825 -1.0312 -0.1718 -0.3951
29153SOL    HW293297   3.678   9.444   3.974  0.8047  1.2791 -0.7400
29154SOL     OW93298  11.050   8.519   4.974 -0.6034 -0.0478 -0.1251
29154SOL    HW193299  10.995   8.494   5.048 -1.4484 -0.3921 -0.8501
29154SOL    HW293300  11.120   8.454   4.973 -2.0264 -1.6553 -1.1637
29155SOL     OW93301   0.891  12.278  10.301  0.3850  0.1842  0.2831
29155SOL    HW193302   0.835  12.310  10.372  0.8818 -0.7791  1.1419
29155SOL    HW293303   0.970  12.332  10.307  0.1227  0.6072 -0.0296
29156SOL     OW93304  11.956   4.358   5.825  0.4686 -0.0191 -0.1561
29156SOL    HW193305  12.049   4.341   5.839  0.5117  0.6517  0.4229
29156SOL    HW293306  11.952   4.433   5.767  0.2948  0.1562  0.0773
29157SOL     OW93307   3.207  11.608   0.583 -0.5215 -0.0416 -0.1143
29157SOL    HW193308   3.182  11.581   0.495 -1.9118 -2.7398  0.9772
29157SOL    HW293309   3.129  11.652   0.617 -0.7116 -0.7665  0.4053
29158SOL     OW93310  10.637   2.916  11.156  0.0767  0.0539 -0.4147
29158SOL    HW193311  10.711   2.942  11.210 -0.8548 -2.8322  2.6336
29158SOL    HW293312  10.569   2.980  11.175  0.7098  0.7708 -0.5482
29159SOL     OW93313   3.582   8.103   4.480 -0.7332 -0.0194  0.0940
29159SOL    HW193314   3.639   8.049   4.535 -0.7149 -0.5534 -0.4406
29159SOL    HW293315   3.612   8.193   4.496  0.5964 -0.3199 -0.5425
29160SOL     OW93316   7.281   2.838   5.601  0.1352 -0.0069  0.4194
29160SOL    HW193317   7.376   2.839   5.597  0.1255 -1.0477 -0.8630
29160SOL    HW293318   7.257   2.924   5.634  1.5135  0.2479  0.8042
29161SOL     OW93319   8.706   8.187   2.979 -0.2096  0.5961 -0.1262
29161SOL    HW193320   8.782   8.144   3.018 -1.0663 -0.1429  0.7798
29161SOL    HW293321   8.731   8.279   2.971  0.5055  0.4945  0.8451
29162SOL     OW93322   2.537   3.502   1.286  0.5156  0.1619  0.6242
29162SOL    HW193323   2.565   3.549   1.364 -2.9548 -1.2354  2.9778
29162SOL    HW293324   2.564   3.411   1.301  1.4254  0.1839 -0.7286
29163SOL     OW93325  11.815   4.099   8.140  0.9889 -0.4826 -0.6157
29163SOL    HW193326  11.817   4.014   8.097 -0.4335 -0.4731 -0.7277
29163SOL    HW293327  11.841   4.080   8.231 -1.5019 -1.4536 -0.0334
29164SOL     OW93328   1.878   3.400  10.338 -0.5148  0.1461  0.1780
29164SOL    HW193329   1.844   3.467  10.279  0.7611  0.1889 -0.5362
29164SOL    HW293330   1.884   3.444  10.423  0.7029  1.1012 -0.3693
29165SOL     OW93331   6.111   6.339   4.105  0.1203  0.6574 -0.2154
29165SOL    HW193332   6.061   6.346   4.186  1.8781  0.0945  0.9931
29165SOL    HW293333   6.048   6.308   4.040 -1.2025  0.5318  1.0828
29166SOL     OW93334   2.560   7.025   1.828  1.2024  0.4797  0.0841
29166SOL    HW193335   2.469   7.013   1.801  0.9855  1.2523  0.4409
29166SOL    HW293336   2.608   7.040   1.747  0.8438  1.0234 -0.0366
29167SOL     OW93337   0.250   8.815   9.584  0.1156 -0.8893  0.0358
29167SOL    HW193338   0.240   8.720   9.587 -0.7422 -0.9197 -2.0538
29167SOL    HW293339   0.301   8.831   9.505 -0.4043  0.4086 -0.0639
29168SOL     OW93340  11.206   4.563  10.914 -0.3335 -0.0944  0.0130
29168SOL    HW193341  11.164   4.631  10.862 -1.2837 -0.9077 -0.3191
29168SOL    HW293342  11.257   4.611  10.979  1.8946  1.0088 -2.3582
29169SOL     OW93343   4.087   1.000  10.909 -0.9905 -0.0370  0.6399
29169SOL    HW193344   4.155   1.005  10.976 -0.6780  2.2089  0.2485
29169SOL    HW293345   4.007   0.977  10.957 -0.3843 -0.5213  1.4318
29170SOL     OW93346   9.703   1.968   4.321 -0.2138 -0.1287  0.1193
29170SOL    HW193347   9.667   1.894   4.272  1.4215  1.7854 -4.5183
29170SOL    HW293348   9.798   1.955   4.318  0.0389  1.4312  0.4634
29171SOL     OW93349   9.102   3.119   0.727  0.2450 -0.2473  0.1591
29171SOL    HW193350   9.009   3.130   0.745  0.3118  0.1730  0.2487
29171SOL    HW293351   9.119   3.026   0.746 -0.1823 -0.3594  0.0033
29172SOL     OW93352   0.996   5.871   5.357  0.4853  0.0216  0.1895
29172SOL    HW193353   0.905   5.897   5.344  0.3697  0.1666  1.1484
29172SOL    HW293354   1.006   5.791   5.307 -0.2169 -0.0796  0.1972
29173SOL     OW93355   5.743  11.384   7.234  0.1879 -0.1183  0.3981
29173SOL    HW193356   5.802  11.458   7.250 -0.5970  1.1900 -2.1420
29173SOL    HW293357   5.672  11.396   7.296  0.0928  1.2715  0.0522
29174SOL     OW93358   0.488   0.143   2.528 -0.2291  0.1456  0.1226
29174SOL    HW193359   0.433   0.219   2.546 -0.3028  0.5128 -1.4889
29174SOL    HW293360   0.429   0.079   2.489 -0.1143 -0.6852  1.2434
29175SOL     OW93361   6.369   4.282   1.133  0.2256 -0.6425  0.4328
29175SOL    HW193362   6.455   4.272   1.092 -0.6541 -1.3703 -1.3438
29175SOL    HW293363   6.331   4.194   1.129 -1.1043 -0.0690  0.0048
29176SOL     OW93364  11.941  12.240   3.647 -0.4024 -0.4646 -0.3321
29176SOL    HW193365  11.853  12.278   3.652 -0.1229  0.0992  0.6971
29176SOL    HW293366  11.926  12.146   3.639 -1.1065 -0.3963  0.0431
29177SOL     OW93367  11.827   9.954   3.716  0.2768  0.4967 -0.4097
29177SOL    HW193368  11.745  10.004   3.716  0.1930  0.4576  1.4367
29177SOL    HW293369  11.888  10.009   3.766  2.4299  1.9755 -4.2727
29178SOL     OW93370   4.050  11.602   2.458 -0.5789 -0.7323  0.2656
29178SOL    HW193371   3.961  11.618   2.489 -0.4616  2.0332 -0.5431
29178SOL    HW293372   4.060  11.661   2.383  1.7873 -1.3225  0.0341
29179SOL     OW93373   4.521  10.800   7.241  0.4271  0.2622  0.1958
29179SOL    HW193374   4.569  10.859   7.300  1.4748  0.5502 -0.8948
29179SOL    HW293375   4.429  10.825   7.252  0.5026 -0.2369  2.2735
29180SOL     OW93376   3.951  12.123  10.757  0.2489  0.1574 -0.2337
29180SOL    HW193377   3.989  12.164  10.835 -2.4186  1.3438  0.5517
29180SOL    HW293378   3.918  12.039  10.788 -1.3466  0.8847  0.1158
29181SOL     OW93379   4.196   5.829   3.681  0.0295  0.0817  0.1999
29181SOL    HW193380   4.199   5.856   3.589  1.6696 -0.7730 -0.0334
29181SOL    HW293381   4.124   5.765   3.684 -0.7575  0.9194 -0.2311
29182SOL     OW93382  10.468   3.440   2.101  0.2852 -0.6029 -0.0532
29182SOL    HW193383  10.498   3.409   2.016 -0.9549 -0.9890 -0.3605
29182SOL    HW293384  10.534   3.407   2.163  1.2823 -0.1799 -0.8531
29183SOL     OW93385  11.603   5.445   2.374 -0.0891 -0.3830 -0.1956
29183SOL    HW193386  11.677   5.498   2.347 -1.1850  0.5342 -1.5689
29183SOL    HW293387  11.541   5.507   2.413 -0.8815 -0.8080 -0.7254
29184SOL     OW93388   8.636   0.782   7.635  0.6363 -0.0998 -0.2210
29184SOL    HW193389   8.629   0.742   7.548  1.9657  1.1447 -0.9409
29184SOL    HW293390   8.727   0.811   7.641  0.4970  0.0760  1.4900
29185SOL     OW93391  11.331   2.818   6.013  0.1245  0.3103 -0.2244
29185SOL    HW193392  11.249   2.784   6.051 -0.4465  0.6165 -1.1414
29185SOL    HW293393  11.302   2.883   5.949  1.1452  1.2663  0.2556
29186SOL     OW93394   7.333   2.381   0.002 -0.5408 -0.5074 -0.3799
29186SOL    HW193395   7.386   2.447   0.045 -1.2453  0.5963 -1.1609
29186SOL    HW293396   7.243   2.403   0.025 -0.7477 -1.9153  0.3236
29187SOL     OW93397   2.834   7.385   8.692 -0.5839  0.1838 -0.0565
29187SOL    HW193398   2.785   7.308   8.721 -0.6312  1.0216  2.3106
29187SOL    HW293399   2.863   7.427   8.773  3.8243 -0.0652 -1.2523
29188SOL     OW93400   0.505   7.822  11.542 -0.5515  0.4093  0.0382
29188SOL    HW193401   0.551   7.906  11.550 -2.2373  1.4319 -0.4108
29188SOL    HW293402   0.413   7.845  11.549 -1.2189 -1.0856 -2.5235
29189SOL     OW93403   3.491   1.059  10.402  0.0209 -0.9287  0.0168
29189SOL    HW193404   3.495   1.098  10.314 -0.3545  1.3921  0.9521
29189SOL    HW293405   3.399   1.036  10.414 -0.1620 -0.1171  0.2332
29190SOL     OW93406  12.072   5.607   7.118 -0.1166  0.0872  0.0828
29190SOL    HW193407  12.008   5.540   7.095 -0.0058  0.2510 -0.7284
29190SOL    HW293408  12.113   5.574   7.199  1.5202 -1.9651 -1.4636
29191SOL     OW93409   9.934  12.080   7.668  0.3111  0.4356 -0.1391
29191SOL    HW193410   9.912  12.066   7.760 -2.7347  0.7707 -0.7011
29191SOL    HW293411  10.002  12.147   7.669  1.0510 -0.2561  1.8493
29192SOL     OW93412   6.380  10.492   8.604 -0.7647 -0.2588  0.1905
29192SOL    HW193413   6.436  10.523   8.676 -1.9474  0.1115  0.9713
29192SOL    HW293414   6.416  10.407   8.582  1.1696  0.6701 -0.4830
29193SOL     OW93415   4.583   8.606   2.745 -0.6503 -0.8678  0.2311
29193SOL    HW193416   4.581   8.521   2.701  0.4631 -0.6523 -0.2549
29193SOL    HW293417   4.532   8.664   2.688 -0.5236 -0.9591  0.0248
29194SOL     OW93418   1.707   8.925   5.682 -0.2825 -0.2667 -0.0415
29194SOL    HW193419   1.785   8.899   5.731 -0.0779  0.4339  0.0160
29194SOL    HW293420   1.740   8.985   5.615 -0.7687  0.0224 -0.0278
29195SOL     OW93421   1.545   1.230   4.361  0.0742 -0.3396  0.5292
29195SOL    HW193422   1.533   1.325   4.373  1.2663  0.0931 -1.2656
29195SOL    HW293423   1.456   1.195   4.363 -0.3610  0.7228  1.7205
29196SOL     OW93424   6.071   8.963   9.875 -0.0640 -0.0884  0.0195
29196SOL    HW193425   6.028   8.964   9.789 -2.1661 -0.1874  0.9882
29196SOL    HW293426   5.998   8.970   9.938  1.1616 -2.5078  1.8690
29197SOL     OW93427   2.974   5.318   6.094 -0.3480  0.1757  0.0922
29197SOL    HW193428   2.982   5.392   6.153 -1.4525  0.0987  0.3573
29197SOL    HW293429   3.050   5.263   6.114  0.4422  1.1881 -0.0660
29198SOL     OW93430  11.102  12.218   9.900  0.1244  0.2419  0.3877
29198SOL    HW193431  11.177  12.262   9.859  0.2185 -0.7397 -0.5560
29198SOL    HW293432  11.142  12.154   9.959  0.0900 -0.9021 -0.7758
29199SOL     OW93433   1.059  11.685   4.908 -0.3394 -0.1161 -0.2059
29199SOL    HW193434   1.084  11.697   4.816  0.1219  2.0154  0.1431
29199SOL    HW293435   1.118  11.616   4.940  0.3451 -0.0106 -1.1879
29200SOL     OW93436   6.760   5.915   0.491 -0.1392 -0.2230  0.1946
29200SOL    HW193437   6.710   5.924   0.410  0.1309  0.8101  0.1243
29200SOL    HW293438   6.774   6.006   0.520 -0.5461 -0.5755  1.5877
29201SOL     OW93439   1.051   9.111   6.960  0.1484  0.6891  0.0823
29201SOL    HW193440   0.984   9.118   7.028  0.4286 -2.0822  0.7536
29201SOL    HW293441   1.003   9.085   6.881  0.0964  1.8502 -0.2979
29202SOL     OW93442   0.122   3.569   3.084  0.1859  0.9266  0.1028
29202SOL    HW193443   0.204   3.533   3.118  1.1291  1.9620 -0.9464
29202SOL    HW293444   0.149   3.621   3.008 -1.7198 -0.6247 -1.7546
29203SOL     OW93445   0.143   0.469   8.228 -0.1741 -0.4225 -0.2081
29203SOL    HW193446   0.138   0.549   8.280  0.8514 -1.6569  1.9037
29203SOL    HW293447   0.229   0.475   8.184 -0.7002  0.2460 -1.1914
29204SOL     OW93448  12.142  10.861   4.730 -0.5652  0.3229 -0.0148
29204SOL    HW193449  12.064  10.914   4.717 -0.3640  0.6780  0.1877
29204SOL    HW293450  12.212  10.910   4.687  0.0331  1.3034  1.9456
29205SOL     OW93451   7.953   7.113   5.817 -0.6473 -0.3673  0.6969
29205SOL    HW193452   7.878   7.145   5.766 -0.2370  1.1076  0.9625
29205SOL    HW293453   7.996   7.193   5.848  0.9960 -1.1912  0.6159
29206SOL     OW93454   3.146  11.068   0.276  0.3566  0.3525 -0.3339
29206SOL    HW193455   3.166  10.989   0.327 -0.3467  0.7597  0.5957
29206SOL    HW293456   3.170  11.045   0.186  1.3883 -0.4676  0.1296
29207SOL     OW93457   0.858   4.318   7.440  0.1909  0.5034 -0.0026
29207SOL    HW193458   0.818   4.400   7.411 -0.5755  0.1775  0.1193
29207SOL    HW293459   0.930   4.304   7.379 -0.5163  0.5695 -0.8665
29208SOL     OW93460   4.879   3.400   0.419 -0.3345 -0.6866 -0.1368
29208SOL    HW193461   4.847   3.330   0.362  1.2810 -1.6479  0.0716
29208SOL    HW293462   4.822   3.396   0.496 -0.5198 -1.5223 -0.3027
29209SOL     OW93463  10.438   1.883   6.544  0.5812  0.2172 -0.0257
29209SOL    HW193464  10.510   1.935   6.580 -0.2375  0.1704  1.7925
29209SOL    HW293465  10.384   1.947   6.497 -0.1169  0.9739  1.7098
29210SOL     OW93466   0.917  11.381   2.898  0.1406 -0.1308  0.4502
29210SOL    HW193467   0.912  11.468   2.938 -1.2268 -1.1954  2.8123
29210SOL    HW293468   1.006  11.350   2.919 -0.2271 -0.2767  1.9223
29211SOL     OW93469   5.679   7.580   8.907  0.2299  0.3839  0.5247
29211SOL    HW193470   5.746   7.648   8.910  0.7739 -0.1330  3.5738
29211SOL    HW293471   5.605   7.616   8.955 -0.7320 -0.0163 -0.6040
29212SOL     OW93472   3.914   0.086   9.897 -0.2242  0.1339 -0.0277
29212SOL    HW193473   3.930   0.092   9.991 -0.1872  1.3247 -0.1041
29212SOL    HW293474   4.001   0.088   9.857 -0.2701  0.2876 -0.1207
29213SOL     OW93475   2.506   2.224  11.709 -0.1827  0.5441  0.3205
29213SOL    HW193476   2.455   2.160  11.760  1.9821 -0.7954  0.9404
29213SOL    HW293477   2.529   2.177  11.629 -1.2088  1.6955 -0.6926
29214SOL     OW93478   9.580   2.925   7.925 -0.2170  0.2210  0.0021
29214SOL    HW193479   9.542   2.841   7.949  1.9578 -0.8783 -0.1598
29214SOL    HW293480   9.642   2.945   7.996 -0.2069  1.3511 -0.3026
29215SOL     OW93481   0.615  12.279   5.060  0.1237  0.4437  0.1487
29215SOL    HW193482   0.534  12.316   5.024 -0.3644 -0.1002  0.6719
29215SOL    HW293483   0.633  12.202   5.005 -1.2536 -1.0720  1.7018
29216SOL     OW93484   6.647   1.871   2.041 -0.5522  0.4413  0.4136
29216SOL    HW193485   6.594   1.801   2.079 -0.3632 -0.8219 -1.5054
29216SOL    HW293486   6.608   1.952   2.074 -1.0670 -0.5357  2.3335
29217SOL     OW93487   4.227  10.397   2.840 -0.3226  0.0172  0.3164
29217SOL    HW193488   4.313  10.369   2.807 -0.6224  0.3386 -0.7744
29217SOL    HW293489   4.243  10.421   2.931  0.4997 -1.0617  0.4737
29218SOL     OW93490  10.170   6.677  12.274  0.4175 -0.0617  0.0448
29218SOL    HW193491  10.155   6.662  12.181  1.1189  0.2923 -0.1337
29218SOL    HW293492  10.085   6.704  12.309 -0.0373 -0.9860 -0.3271
29219SOL     OW93493  10.335   2.941   8.718 -0.2500 -0.0250  0.0689
29219SOL    HW193494  10.348   3.035   8.706 -0.9865  0.1433  0.5244
29219SOL    HW293495  10.405   2.901   8.668  0.4989  0.7813  0.4458
29220SOL     OW93496   3.999   2.095  12.152 -0.0846  0.2929 -0.1780
29220SOL    HW193497   3.917   2.053  12.127 -1.6254  2.5293  0.8010
29220SOL    HW293498   4.028   2.046  12.229 -1.3124  0.3778  0.3627
29221SOL     OW93499   0.422   5.572   3.469 -0.8260  0.3243  0.3207
29221SOL    HW193500   0.336   5.531   3.463  0.0678 -1.5230 -0.6852
29221SOL    HW293501   0.445   5.595   3.379  0.4060 -0.7278  0.3370
29222SOL     OW93502   0.233   6.847   2.939  0.1011  0.2616 -0.1069
29222SOL    HW193503   0.305   6.796   2.901 -1.2902 -2.7998  1.0525
29222SOL    HW293504   0.167   6.848   2.870 -0.2152 -0.3368  0.1778
29223SOL     OW93505   3.718  12.032   2.569 -0.2760 -0.0464 -0.5190
29223SOL    HW193506   3.727  12.076   2.654  0.1767  1.7500 -1.4484
29223SOL    HW293507   3.663  11.956   2.587  0.8355 -0.4349  1.6243
29224SOL     OW93508   4.224  12.271   8.157  0.2037  0.3386 -0.0901
29224SOL    HW193509   4.199  12.231   8.073  2.5242  1.3731 -1.3668
29224SOL    HW293510   4.280  12.205   8.198 -1.0099 -0.2070  0.7564
29225SOL     OW93511  10.223   1.883   6.058  0.4554 -0.2873 -0.1705
29225SOL    HW193512  10.301   1.832   6.035  1.4476  1.3700 -0.5901
29225SOL    HW293513  10.254   1.948   6.122 -0.7927 -0.2158  0.3971
29226SOL     OW93514   7.385   8.609   5.585 -0.1865 -0.2613 -0.1471
29226SOL    HW193515   7.452   8.588   5.649 -1.5737  0.1468  1.5162
29226SOL    HW293516   7.422   8.681   5.534  1.4509 -1.4371 -0.7066
29227SOL     OW93517   8.804   4.807   3.255 -0.3964 -0.4490  0.1861
29227SOL    HW193518   8.803   4.761   3.339 -1.9301  0.6335  0.8071
29227SOL    HW293519   8.758   4.889   3.272  0.3448  0.3503 -1.4273
29228SOL     OW93520   8.483   7.074   4.721  0.2753  0.1871  0.4131
29228SOL    HW193521   8.556   7.056   4.662  0.3367  2.3649 -0.2598
29228SOL    HW293522   8.504   7.159   4.760 -1.7326  0.7022  0.4748
29229SOL     OW93523   6.717   6.520   4.266  0.1459 -0.2655 -0.2152
29229SOL    HW193524   6.789   6.583   4.267 -0.0086 -0.0703  1.7192
29229SOL    HW293525   6.716   6.486   4.176  0.2508  2.4112 -1.2929
29230SOL     OW93526   0.947   4.580   9.246 -0.4104  0.0244 -0.3151
29230SOL    HW193527   0.888   4.648   9.212  2.1208  2.3447 -0.4363
29230SOL    HW293528   0.926   4.574   9.339  0.3098  2.1971  0.0435
29231SOL     OW93529   6.095   7.964   9.458 -0.1526  0.2327  0.1250
29231SOL    HW193530   6.115   7.961   9.552  0.4215  1.2414  0.0497
29231SOL    HW293531   6.003   7.938   9.452 -0.2558  0.3679  0.9845
29232SOL     OW93532   5.882   6.307   7.478  0.4897  0.5275  0.1904
29232SOL    HW193533   5.861   6.218   7.451 -0.0144  0.6675  0.0943
29232SOL    HW293534   5.797   6.344   7.502  0.6717  1.0395  0.0505
29233SOL     OW93535   9.095   5.032   3.521  0.2667  0.3086 -0.0880
29233SOL    HW193536   9.117   4.992   3.605  1.4098  2.1813  0.5831
29233SOL    HW293537   9.050   5.113   3.544 -0.8708  0.0697 -1.3510
29234SOL     OW93538   7.686   4.691  11.283  0.2478 -0.1134 -0.3300
29234SOL    HW193539   7.728   4.767  11.242 -0.1795  0.5013  0.3533
29234SOL    HW293540   7.615   4.667  11.223  0.3244  0.0889 -0.5001
29235SOL     OW93541   4.832  11.378  10.433  0.2090 -0.4127 -0.4265
29235SOL    HW193542   4.900  11.338  10.487 -0.0906 -0.2722  0.0571
29235SOL    HW293543   4.795  11.306  10.383 -0.2214 -0.7097  0.3227
29236SOL     OW93544   5.162   6.897   0.459 -0.0839 -0.2059 -0.1401
29236SOL    HW193545   5.083   6.949   0.442  0.6346  0.6250 -1.0258
29236SOL    HW293546   5.205   6.942   0.531  0.5388  0.4727 -0.9081
29237SOL     OW93547   8.319   3.891  11.128 -0.1179  0.0863 -0.4290
29237SOL    HW193548   8.304   3.800  11.104 -1.2457 -0.1501  1.0638
29237SOL    HW293549   8.245   3.938  11.091 -0.2763  0.1761 -0.0017
29238SOL     OW93550  11.463   1.428  11.375 -0.1073  0.1046 -0.0707
29238SOL    HW193551  11.369   1.411  11.383 -0.1239  0.2278  0.0090
29238SOL    HW293552  11.497   1.415  11.463  0.1143 -0.8989 -0.2883
29239SOL     OW93553  10.664   6.558  12.315 -0.1589 -0.0011  0.1102
29239SOL    HW193554  10.697   6.611  12.387 -3.1507  1.7694  0.3457
29239SOL    HW293555  10.614   6.619  12.261 -0.5528 -1.8708 -1.7946
29240SOL     OW93556   4.402  11.810  12.321 -0.1856  0.1090 -0.0689
29240SOL    HW193557   4.392  11.791  12.228  0.5777 -2.0983  0.2454
29240SOL    HW293558   4.411  11.905  12.325 -0.8559  0.3122 -2.1678
29241SOL     OW93559   7.998   8.169  10.275 -0.1351 -0.3596  0.4940
29241SOL    HW193560   7.976   8.091  10.224 -1.3671 -0.2093  0.7793
29241SOL    HW293561   8.058   8.218  10.219 -1.7946  0.0171 -1.0133
29242SOL     OW93562   9.983  11.768   4.432 -0.2492 -0.6836 -0.0373
29242SOL    HW193563   9.937  11.850   4.451  0.1192 -0.3303 -0.6333
29242SOL    HW293564  10.018  11.740   4.516 -2.2134 -1.3970  0.6044
29243SOL     OW93565  10.455   4.073  12.024 -0.2891 -0.2960  0.5796
29243SOL    HW193566  10.410   4.067  11.940 -1.7084  1.2590  1.1795
29243SOL    HW293567  10.542   4.109  12.003 -0.9567  0.9415 -0.1528
29244SOL     OW93568   2.459   6.392   2.642 -1.0651  0.4931  0.0643
29244SOL    HW193569   2.395   6.397   2.713 -0.5613  0.0628  0.5603
29244SOL    HW293570   2.519   6.322   2.668 -0.2742  1.0187 -0.2924
29245SOL     OW93571  11.066   3.563   1.491 -0.4226  0.1519  0.2914
29245SOL    HW193572  11.116   3.642   1.514 -2.2011  1.3150  0.3307
29245SOL    HW293573  11.072   3.508   1.570  0.1985  0.5640  0.5433
29246SOL     OW93574   0.416   1.575  10.619  0.1176 -0.3118  0.2006
29246SOL    HW193575   0.430   1.670  10.623 -0.4677 -0.2471  1.1867
29246SOL    HW293576   0.414   1.555  10.526 -1.7177  0.9725 -0.1061
29247SOL     OW93577   4.837  12.003  11.853  0.2305  0.5316  0.0423
29247SOL    HW193578   4.779  11.963  11.918  0.1761  2.1856  1.0694
29247SOL    HW293579   4.899  12.054  11.905  0.9080  0.9731 -1.1699
29248SOL     OW93580   8.477   5.518   6.988 -1.2099  0.4067 -0.0254
29248SOL    HW193581   8.460   5.544   6.898  0.5076  2.9957  0.2883
29248SOL    HW293582   8.545   5.451   6.982  0.5999  2.2104 -0.6493
29249SOL     OW93583   3.622   4.874   9.389 -0.5689  0.5232  0.2482
29249SOL    HW193584   3.628   4.945   9.325  0.4581  2.2484  2.1425
29249SOL    HW293585   3.576   4.913   9.464  1.1562 -0.3494  1.8512
29250SOL     OW93586   1.967   3.889   4.155  0.2926  0.4093 -0.2462
29250SOL    HW193587   1.925   3.959   4.204 -1.0484  0.0374 -0.8401
29250SOL    HW293588   1.897   3.828   4.134  1.5114 -1.4290  0.7530
29251SOL     OW93589   3.566   5.871   2.888  0.7441 -0.1214 -0.3651
29251SOL    HW193590   3.582   5.923   2.809  3.2365 -1.0109 -0.5616
29251SOL    HW293591   3.476   5.841   2.880  0.5980  0.7175 -2.3288
29252SOL     OW93592   0.955   5.616  12.192 -0.0865 -0.2864  0.2391
29252SOL    HW193593   0.879   5.565  12.221 -1.2184  0.8242 -0.6856
29252SOL    HW293594   0.971   5.585  12.102  0.4772 -0.4091  0.3768
29253SOL     OW93595   2.859   1.049  11.275 -0.2770  0.3497  0.4820
29253SOL    HW193596   2.838   0.962  11.240 -0.1653  0.5705 -0.1527
29253SOL    HW293597   2.954   1.054  11.273 -0.3014  0.7880 -0.2768
29254SOL     OW93598   6.993   7.669   2.426  0.0386 -0.1427 -0.0500
29254SOL    HW193599   7.047   7.612   2.371 -0.2573  0.7176 -1.2636
29254SOL    HW293600   7.011   7.640   2.516  1.0020 -1.1647 -0.5540
29255SOL     OW93601   7.841   9.664  10.965 -0.0926  0.0816  0.3206
29255SOL    HW193602   7.875   9.576  10.949 -0.2056 -0.0401  0.7487
29255SOL    HW293603   7.749   9.660  10.939  0.0775  0.2717 -0.3436
29256SOL     OW93604   4.282   6.195   0.484  0.2903  0.1564 -0.0577
29256SOL    HW193605   4.275   6.113   0.533  3.3505  0.6006  1.3963
29256SOL    HW293606   4.298   6.167   0.394  1.2957 -0.8956  0.4123
29257SOL     OW93607   8.199   7.434  11.231  0.2447 -0.2220  0.3523
29257SOL    HW193608   8.144   7.369  11.275 -0.0074 -1.9467 -2.2914
29257SOL    HW293609   8.270   7.383  11.191  1.0423  1.3517 -0.3310
29258SOL     OW93610   8.423   1.047   2.202 -0.1043  0.5138  0.8144
29258SOL    HW193611   8.475   0.990   2.144 -0.7692 -0.2721  0.9788
29258SOL    HW293612   8.489   1.091   2.256  0.3810 -1.3950  1.8725
29259SOL     OW93613   7.932   1.420   4.040  0.0791  0.2372 -0.1674
29259SOL    HW193614   7.884   1.385   4.115  1.4375 -3.0219 -0.6199
29259SOL    HW293615   7.891   1.378   3.964  0.3581  1.4727 -1.0274
29260SOL     OW93616   5.465   1.224   2.689  0.5571  0.4719  0.8322
29260SOL    HW193617   5.498   1.233   2.778  0.7067  1.1663  0.7112
29260SOL    HW293618   5.447   1.313   2.660 -1.8467  0.1148  1.0205
29261SOL     OW93619   5.966   5.666   7.733  0.4749  0.3425 -0.5612
29261SOL    HW193620   5.902   5.601   7.703  2.1156 -0.9638 -1.3678
29261SOL    HW293621   6.002   5.628   7.813  0.1187  1.1832  0.0151
29262SOL     OW93622   0.302   4.109   0.031  0.3418 -0.1950 -0.0240
29262SOL    HW193623   0.224   4.164   0.025  0.3054 -0.2911 -0.4520
29262SOL    HW293624   0.331   4.119   0.122 -0.5897 -0.7401  0.3459
29263SOL     OW93625   9.536   3.160   4.963  0.0863  0.0653 -0.6623
29263SOL    HW193626   9.475   3.156   5.037  1.1855 -1.1215  0.2113
29263SOL    HW293627   9.618   3.189   5.001  0.6254 -0.4178 -1.4327
29264SOL     OW93628   5.283   4.722   5.858  0.3789 -0.1295  0.6570
29264SOL    HW193629   5.338   4.670   5.916 -0.0329  0.7695  1.9093
29264SOL    HW293630   5.198   4.725   5.902 -0.8370 -1.7753 -1.4039
29265SOL     OW93631   2.534   1.842   8.567  0.1668 -0.0914 -0.7526
29265SOL    HW193632   2.586   1.903   8.619  0.8647 -0.9154 -0.4474
29265SOL    HW293633   2.534   1.761   8.618  0.2978 -0.7140 -1.7118
29266SOL     OW93634   0.971   7.099   8.274  0.0695 -0.0191 -0.7537
29266SOL    HW193635   0.939   7.140   8.193 -1.4301 -0.0271 -0.1831
29266SOL    HW293636   0.918   7.138   8.343 -1.9212 -3.3643 -0.2309
29267SOL     OW93637   5.700  10.441   3.921 -0.2948  0.5107  0.5154
29267SOL    HW193638   5.726  10.496   3.846  0.5025 -0.8817 -0.2686
29267SOL    HW293639   5.615  10.405   3.895  0.6261 -1.0931 -0.3833
29268SOL     OW93640   4.781   7.920  10.733 -0.5575  0.4677  0.0241
29268SOL    HW193641   4.803   7.829  10.711 -1.4900  0.1994  0.1758
29268SOL    HW293642   4.703   7.913  10.787  0.5515  1.2355  1.8233
29269SOL     OW93643   3.440   3.472  11.745 -0.1756  0.1824  0.0384
29269SOL    HW193644   3.501   3.533  11.703  0.4711 -0.3454  0.1758
29269SOL    HW293645   3.399   3.522  11.815  0.4447  0.4350  0.2322
29270SOL     OW93646  11.041  10.565   7.264  0.0774 -0.1745  0.0393
29270SOL    HW193647  10.983  10.640   7.252 -1.0539 -0.6790  1.8494
29270SOL    HW293648  11.125  10.603   7.290 -0.2282  0.4867  0.0804
29271SOL     OW93649   7.734   0.707  11.402 -0.3479  0.1742  0.4179
29271SOL    HW193650   7.728   0.798  11.433 -0.7353  0.3610 -0.1755
29271SOL    HW293651   7.826   0.696  11.379 -0.6676  1.1316 -1.5336
29272SOL     OW93652   5.459   0.771   6.942  0.0450  0.0742 -0.7493
29272SOL    HW193653   5.398   0.711   6.899 -1.0688  0.3145  0.4167
29272SOL    HW293654   5.444   0.855   6.899 -0.9374  0.2747 -0.0491
29273SOL     OW93655   5.591   9.388   3.569 -0.0118 -0.1567  0.0450
29273SOL    HW193656   5.535   9.415   3.641 -3.3299  1.3942 -2.8167
29273SOL    HW293657   5.652   9.461   3.557  1.3950 -0.9481  1.8749
29274SOL     OW93658  11.199   3.280   7.377  0.2957  0.3490 -0.3814
29274SOL    HW193659  11.242   3.209   7.426  0.8177  0.5066 -0.5996
29274SOL    HW293660  11.231   3.360   7.418  0.5522  0.4767 -0.8249
29275SOL     OW93661   6.732   5.461   8.839  0.1362 -0.0491  0.4160
29275SOL    HW193662   6.814   5.493   8.878 -0.5407 -0.3618  2.2324
29275SOL    HW293663   6.675   5.445   8.915 -0.9772 -1.5648 -0.6810
29276SOL     OW93664  11.715   0.043   2.375 -0.0914 -0.1489  0.1072
29276SOL    HW193665  11.739   0.043   2.282 -0.0246 -2.6283  0.0521
29276SOL    HW293666  11.640  -0.016   2.380 -1.6662  1.8443  1.3308
29277SOL     OW93667   7.095   3.619   2.030 -0.0970  0.5497  0.0249
29277SOL    HW193668   7.061   3.530   2.028  3.8939 -1.1771  0.1513
29277SOL    HW293669   7.029   3.669   2.078 -1.7524 -2.6693  1.3758
29278SOL     OW93670  11.846   0.243  10.451 -0.2851 -0.1807  0.0137
29278SOL    HW193671  11.910   0.291  10.504 -0.4236  0.9868 -0.8372
29278SOL    HW293672  11.885   0.240  10.363 -1.5697  0.9427 -0.6327
29279SOL     OW93673   8.654  12.230  11.164  0.2112 -0.4960 -0.1015
29279SOL    HW193674   8.575  12.175  11.172  0.0684 -0.1341  1.1013
29279SOL    HW293675   8.623  12.309  11.120  0.0269 -0.5765 -0.1191
29280SOL     OW93676  10.921  10.776   3.199 -0.2690  0.5732  0.1417
29280SOL    HW193677  10.876  10.819   3.271 -0.2701 -0.3085  0.6767
29280SOL    HW293678  10.858  10.780   3.126  0.0921  2.2879 -0.1105
29281SOL     OW93679   1.848   4.583   4.274  0.0377 -0.1212 -0.6417
29281SOL    HW193680   1.937   4.547   4.267  0.3264  0.2562  0.7382
29281SOL    HW293681   1.845   4.621   4.361 -1.0427  1.1057 -1.1881
29282SOL     OW93682  11.905   4.569   9.735 -0.4563  0.2353 -0.1165
29282SOL    HW193683  11.999   4.579   9.727 -0.3561 -1.4365 -1.5562
29282SOL    HW293684  11.871   4.659   9.730  0.9848  0.7894 -0.4551
29283SOL     OW93685   9.351  11.814   8.096 -0.3933  0.4147  0.1054
29283SOL    HW193686   9.334  11.894   8.145  0.0010  0.7814 -0.3422
29283SOL    HW293687   9.271  11.762   8.105 -0.2924  0.4316  1.1942
29284SOL     OW93688   4.830   8.048   9.595  0.0287  0.3877 -0.5517
29284SOL    HW193689   4.792   8.046   9.507  1.5693 -0.2886 -1.2384
29284SOL    HW293690   4.908   8.103   9.586  0.0094  0.6018  0.4850
29285SOL     OW93691   6.343   5.985  11.900 -1.0657 -0.2500 -0.2686
29285SOL    HW193692   6.374   5.971  11.810  0.1663  0.2260  0.0579
29285SOL    HW293693   6.263   6.037  11.890 -1.4716 -1.0123 -1.1219
29286SOL     OW93694   9.115  11.269   8.571  0.2687 -0.3030  0.0498
29286SOL    HW193695   9.154  11.230   8.493 -0.8347 -1.3105 -0.0387
29286SOL    HW293696   9.156  11.222   8.644 -0.8698 -1.5080 -0.0492
29287SOL     OW93697   5.367  11.906  11.280 -0.1965 -0.1663 -0.3113
29287SOL    HW193698   5.372  11.812  11.300  0.6812 -0.0269  0.1960
29287SOL    HW293699   5.318  11.943  11.354 -0.3677 -0.1954 -0.4102
29288SOL     OW93700  12.274   0.584   0.447 -0.0361 -0.5614  0.3835
29288SOL    HW193701  12.322   0.505   0.472  0.5713 -0.0628  0.8216
29288SOL    HW293702  12.212   0.598   0.518 -0.3791 -0.8355  0.1387
29289SOL     OW93703   7.150   4.241   6.025  0.7101  0.4457 -0.3446
29289SOL    HW193704   7.105   4.325   6.029  0.6648  0.4892 -1.6234
29289SOL    HW293705   7.236   4.259   6.063  0.1459  0.6664  0.8901
29290SOL     OW93706   6.341   9.641   0.953  0.5310  0.0515  0.1436
29290SOL    HW193707   6.405   9.711   0.952  1.1385 -0.4806  0.7727
29290SOL    HW293708   6.348   9.601   0.866  1.5043 -0.3950  0.4148
29291SOL     OW93709  10.719  10.489   0.849  0.0450 -0.3283  0.4957
29291SOL    HW193710  10.637  10.469   0.894 -0.2265  0.7552  0.4982
29291SOL    HW293711  10.698  10.482   0.756  0.3279 -1.4712  0.5009
29292SOL     OW93712   1.627   7.902   9.861 -0.0307 -0.0672 -0.4488
29292SOL    HW193713   1.655   7.984   9.820 -0.9781 -0.4279 -1.8958
29292SOL    HW293714   1.700   7.842   9.847  0.9840  0.6853  1.2705
29293SOL     OW93715   8.735   8.795   3.006  0.1002 -0.0964 -0.2236
29293SOL    HW193716   8.830   8.790   2.996  0.1433 -0.9388  0.4625
29293SOL    HW293717   8.700   8.760   2.924  0.3630  0.9355 -0.7932
29294SOL     OW93718   0.741   6.706  10.943  0.6028  0.3072 -0.1573
29294SOL    HW193719   0.793   6.747  10.874  1.0399  0.7284  0.4078
29294SOL    HW293720   0.791   6.628  10.967  2.1569  1.8016  1.8517
29295SOL     OW93721   3.939   4.069   1.314  0.3405 -0.1541  0.3652
29295SOL    HW193722   4.006   4.136   1.324 -0.4558  0.6141  0.7233
29295SOL    HW293723   3.970   4.015   1.241  0.8251  0.8358 -0.1930
29296SOL     OW93724   6.937   4.897   2.490 -0.4958 -0.0513  0.0971
29296SOL    HW193725   6.977   4.865   2.571 -1.6416 -0.2482  0.6049
29296SOL    HW293726   7.011   4.922   2.434  0.3131  0.5137  1.3781
29297SOL     OW93727  11.511   3.384   7.072 -0.1472 -0.3401  0.4936
29297SOL    HW193728  11.481   3.296   7.095  1.2971 -1.3358 -1.2180
29297SOL    HW293729  11.606   3.376   7.061  0.1431  1.6321  1.0715
29298SOL     OW93730   2.509   9.133   1.185 -0.0307  0.4496 -0.1826
29298SOL    HW193731   2.524   9.192   1.111  0.4046 -0.1607 -0.5939
29298SOL    HW293732   2.414   9.121   1.188 -0.1207  1.1874 -0.0803
29299SOL     OW93733   2.727   7.957   2.861  0.7674 -0.2178  0.3360
29299SOL    HW193734   2.646   7.964   2.811  0.4858 -1.0017  0.6795
29299SOL    HW293735   2.748   8.048   2.885 -0.0825 -0.0277  0.3786
29300SOL     OW93736   3.517  11.281  10.292 -0.4763 -0.3506  0.6067
29300SOL    HW193737   3.501  11.332  10.371 -1.2026 -0.9024  0.8183
29300SOL    HW293738   3.537  11.193  10.323 -1.1234 -0.6571  0.1692
29301SOL     OW93739   1.570   8.233   9.558  0.1438 -0.1363  0.4522
29301SOL    HW193740   1.605   8.144   9.552 -0.9963 -0.6481  1.1086
29301SOL    HW293741   1.489   8.224   9.608 -0.7111  1.0645 -0.6390
29302SOL     OW93742  10.376  11.476   7.666  0.1996 -0.3446 -0.0466
29302SOL    HW193743  10.336  11.498   7.750  0.8081  2.1615 -0.3501
29302SOL    HW293744  10.437  11.547   7.648  0.8054 -1.3031 -2.1660
29303SOL     OW93745  11.032   3.225   6.771  0.1180  0.3643 -0.0313
29303SOL    HW193746  11.094   3.229   6.698 -1.5410 -0.7488 -1.6055
29303SOL    HW293747  11.022   3.316   6.800  1.5812  0.6966 -0.4999
29304SOL     OW93748  10.542  10.747  11.282  0.0377 -0.2759  0.6758
29304SOL    HW193749  10.458  10.784  11.256  0.5515  0.0940 -0.5581
29304SOL    HW293750  10.597  10.754  11.203  0.9738 -1.2471  1.2036
29305SOL     OW93751   1.513  12.144   1.088  0.1087 -0.1454 -0.2059
29305SOL    HW193752   1.423  12.159   1.060  0.0815  0.3078  0.1052
29305SOL    HW293753   1.507  12.073   1.152 -0.1547  0.5228  0.5207
29306SOL     OW93754   1.814   4.519   5.499  0.1995  0.0817 -0.2541
29306SOL    HW193755   1.838   4.462   5.573  1.1534 -0.9222 -1.3106
29306SOL    HW293756   1.848   4.474   5.422 -2.3254  0.1786 -1.5335
29307SOL     OW93757   7.003   1.678   5.845  0.0445 -0.8904 -0.0915
29307SOL    HW193758   6.996   1.614   5.774 -1.0961 -1.3769  0.4453
29307SOL    HW293759   7.062   1.637   5.908  0.4939 -0.7599 -0.4173
29308SOL     OW93760   7.829  10.502   2.598 -0.0778  0.0586  0.5448
29308SOL    HW193761   7.791  10.541   2.677  1.3929  1.1374  0.7744
29308SOL    HW293762   7.900  10.448   2.630  0.6388  0.6423 -0.0318
29309SOL     OW93763   8.377   2.465   3.649 -0.9168 -0.2042 -0.4465
29309SOL    HW193764   8.454   2.512   3.617  0.8582 -2.7548 -0.1978
29309SOL    HW293765   8.336   2.526   3.711  1.0621  1.1223 -0.3482
29310SOL     OW93766   9.934   3.447  11.472  0.3912  0.0416  0.2242
29310SOL    HW193767   9.965   3.375  11.417 -0.9506 -0.6692  0.3448
29310SOL    HW293768   9.987   3.441  11.552 -0.1887 -1.3128  0.5439
29311SOL     OW93769   0.245   3.924  11.662  0.0799 -0.6470  0.0411
29311SOL    HW193770   0.306   3.993  11.635 -0.0757 -0.6158 -0.2322
29311SOL    HW293771   0.203   3.959  11.741 -0.0771 -0.3815 -0.1587
29312SOL     OW93772  12.179   5.263  11.577  0.4820  0.1916  0.5950
29312SOL    HW193773  12.237   5.234  11.506 -0.3407 -1.0911  0.4275
29312SOL    HW293774  12.144   5.183  11.614 -1.0839  0.9323  0.7961
29313SOL     OW93775   3.476   8.535   6.731 -0.2180 -0.7243  0.3323
29313SOL    HW193776   3.396   8.542   6.680 -1.3607 -0.8374  2.0262
29313SOL    HW293777   3.544   8.512   6.668 -1.7285 -1.7162 -0.9700
29314SOL     OW93778  12.194   0.748   9.625  0.0758 -0.0064 -0.1194
29314SOL    HW193779  12.130   0.785   9.686  0.1131 -0.0097 -0.0794
29314SOL    HW293780  12.172   0.655   9.622 -0.1017  0.0436 -0.3239
29315SOL     OW93781   6.736   8.278  12.193 -0.0725  0.1066  0.0798
29315SOL    HW193782   6.771   8.190  12.209  0.6701  0.6597  1.7968
29315SOL    HW293783   6.642   8.271  12.211  0.1812 -0.0948  1.3902
29316SOL     OW93784   1.739   2.434  10.208  0.6940 -0.2888  0.2919
29316SOL    HW193785   1.730   2.353  10.258 -0.4353  0.9965  2.2941
29316SOL    HW293786   1.752   2.502  10.274  0.1793  1.3722 -1.2352
29317SOL     OW93787   1.854   0.963  10.123 -0.0106 -0.8614 -0.2399
29317SOL    HW193788   1.905   0.997  10.196 -1.0194 -1.3545  0.7205
29317SOL    HW293789   1.800   1.036  10.095 -1.8143 -1.4432  1.5004
29318SOL     OW93790   5.761   7.936   9.171 -0.1280 -0.1469  0.6267
29318SOL    HW193791   5.751   7.958   9.264  1.4450  0.8954  0.5730
29318SOL    HW293792   5.748   8.019   9.125 -0.7458 -0.6282 -0.0995
29319SOL     OW93793  12.093   4.369   6.142  0.0883 -0.3770 -0.2863
29319SOL    HW193794  12.026   4.436   6.128  0.6231  0.3015  0.3624
29319SOL    HW293795  12.117   4.378   6.234 -0.5503 -2.1350  0.0913
29320SOL     OW93796   0.838   4.616   1.612 -0.2400  0.3999  0.1251
29320SOL    HW193797   0.903   4.598   1.543 -1.3522 -1.1036 -0.5912
29320SOL    HW293798   0.758   4.637   1.565 -0.9278 -0.2940  0.9570
29321SOL     OW93799   9.246   0.722   7.806 -0.0337 -0.1369  0.6430
29321SOL    HW193800   9.159   0.746   7.775 -0.0796  0.1930  1.0196
29321SOL    HW293801   9.281   0.664   7.738  0.3348  1.4506 -0.5808
29322SOL     OW93802   0.398   1.751   1.589 -0.1627 -0.0752 -0.2362
29322SOL    HW193803   0.340   1.783   1.658  2.0909 -0.8888  2.1770
29322SOL    HW293804   0.391   1.655   1.595  1.2869 -0.1802 -0.0044
29323SOL     OW93805   1.666   2.861   6.070 -0.0090 -0.2162 -0.8540
29323SOL    HW193806   1.729   2.877   6.001 -0.3695 -3.2566 -2.0065
29323SOL    HW293807   1.606   2.936   6.065  1.5370  1.0141 -1.9467
29324SOL     OW93808   0.318   5.727   6.214  0.3546 -0.8336  0.0749
29324SOL    HW193809   0.247   5.774   6.256  0.2667  0.0278 -1.0097
29324SOL    HW293810   0.275   5.654   6.168 -0.1405  0.7866 -2.2101
29325SOL     OW93811   2.653   0.739   4.588 -0.1445 -0.1384  0.2625
29325SOL    HW193812   2.720   0.674   4.568  0.8019  0.7558  0.4518
29325SOL    HW293813   2.683   0.779   4.669  0.6772  2.3083 -1.1585
29326SOL     OW93814   8.146   3.149   1.875 -0.0995  0.4979 -0.8055
29326SOL    HW193815   8.126   3.176   1.965 -2.6203 -2.0486 -0.4569
29326SOL    HW293816   8.213   3.081   1.885 -0.8360 -0.2287 -0.7827
29327SOL     OW93817   5.610   4.226   2.035  0.3695 -0.3746  0.2843
29327SOL    HW193818   5.557   4.162   1.989  0.6963  0.9121 -2.0173
29327SOL    HW293819   5.698   4.190   2.035  0.5194 -0.0528 -0.8588
29328SOL     OW93820   0.038  11.472   1.952  0.0357 -0.2577  0.2391
29328SOL    HW193821   0.033  11.421   1.872  1.9894 -2.7229  1.5449
29328SOL    HW293822  -0.042  11.451   2.000  0.1928 -1.0400  0.1665
29329SOL     OW93823  10.134   3.138   4.419  0.1699  0.4851  0.6033
29329SOL    HW193824  10.079   3.089   4.479 -0.9212 -0.4283 -1.0441
29329SOL    HW293825  10.222   3.136   4.458 -0.1578 -1.5046  1.3347
29330SOL     OW93826   9.548   2.575  10.393 -0.0708  0.1673  0.3517
29330SOL    HW193827   9.572   2.628  10.317 -1.0924  1.0181  0.6029
29330SOL    HW293828   9.546   2.485  10.361  2.0606  0.1792 -0.0025
29331SOL     OW93829   4.373   4.196   4.209  0.0130 -0.0936 -0.2375
29331SOL    HW193830   4.397   4.127   4.147 -0.2789 -1.5608  1.2119
29331SOL    HW293831   4.305   4.247   4.164 -0.2655 -1.1729 -1.0748
29332SOL     OW93832   5.783  10.385   3.190 -0.0461 -0.1073 -0.3826
29332SOL    HW193833   5.861  10.330   3.190  0.5203  0.5085  3.0132
29332SOL    HW293834   5.716  10.331   3.233 -0.6803  0.4002 -0.7193
29333SOL     OW93835   8.517   3.735   3.173  0.0476 -0.4336  0.2193
29333SOL    HW193836   8.570   3.806   3.208  1.0587 -0.9925 -0.1196
29333SOL    HW293837   8.449   3.778   3.122  1.7247  0.3024 -1.5245
29334SOL     OW93838   3.860   9.770   0.101 -0.1598  0.2672 -0.3686
29334SOL    HW193839   3.923   9.726   0.044 -2.5839 -1.5299 -1.8093
29334SOL    HW293840   3.883   9.740   0.189  2.5340  1.7055 -0.4532
29335SOL     OW93841   5.008   5.866  11.213 -0.3266 -0.3777 -0.0464
29335SOL    HW193842   4.966   5.924  11.277 -0.1587 -1.2336  0.8689
29335SOL    HW293843   5.099   5.895  11.211 -0.4915  0.1385 -0.4816
29336SOL     OW93844   8.346   2.784   9.259  0.1299  0.5345 -0.0472
29336SOL    HW193845   8.275   2.848   9.269  1.1183  1.5530  0.7838
29336SOL    HW293846   8.312   2.720   9.197 -2.2616 -0.1019  1.7728
29337SOL     OW93847   8.120  10.795   2.720 -0.2091 -0.0341  0.1646
29337SOL    HW193848   8.126  10.834   2.808  0.2689  0.6025 -0.1384
29337SOL    HW293849   8.055  10.849   2.675  2.2436  2.1378 -1.0753
29338SOL     OW93850   6.961   0.188   9.475  0.3740 -0.1214  0.1574
29338SOL    HW193851   6.884   0.235   9.445  0.2959 -0.7704 -0.7002
29338SOL    HW293852   6.988   0.234   9.555 -0.3626  0.6553 -0.0283
29339SOL     OW93853  10.347   2.177   2.644  0.4650 -0.1180  0.1184
29339SOL    HW193854  10.274   2.131   2.603 -0.4835  0.1281  1.4774
29339SOL    HW293855  10.421   2.161   2.585 -0.7114 -0.2116 -1.3865
29340SOL     OW93856  11.128   3.872   5.148 -0.2232 -0.5319  0.5322
29340SOL    HW193857  11.143   3.929   5.073  1.4128 -1.5475  0.0228
29340SOL    HW293858  11.083   3.927   5.212 -3.1481 -0.0489 -1.7307
29341SOL     OW93859  11.924   1.162   1.824 -0.1114 -0.7700  0.8078
29341SOL    HW193860  11.831   1.184   1.828  0.1848  0.6608  0.2244
29341SOL    HW293861  11.943   1.128   1.912 -1.0109 -0.3370  1.1908
29342SOL     OW93862  11.405   9.363   5.871  0.4685 -0.1860  0.1855
29342SOL    HW193863  11.338   9.415   5.825 -0.4702 -0.9927  0.6040
29342SOL    HW293864  11.416   9.406   5.955  0.3813 -0.1272  0.1668
29343SOL     OW93865   2.962   4.980  11.604 -0.4013  0.1378  0.0747
29343SOL    HW193866   2.961   4.986  11.509 -0.3272  0.2527  0.0794
29343SOL    HW293867   3.013   4.901  11.623 -2.0170 -0.9729 -0.0085
29344SOL     OW93868   7.100  10.147   9.553 -0.4285  0.7033 -0.0850
29344SOL    HW193869   7.078  10.191   9.635 -0.1338  1.3283 -0.3379
29344SOL    HW293870   7.085  10.054   9.572 -2.3426  0.9928  0.0465
29345SOL     OW93871   4.666   1.025   6.140 -0.0576  0.4885 -0.0132
29345SOL    HW193872   4.618   1.099   6.103  1.6568  0.9510 -1.4727
29345SOL    HW293873   4.677   1.047   6.233  1.8091  2.9247 -0.7064
29346SOL     OW93874   8.908   3.178   6.564 -0.5707 -0.2775  0.0283
29346SOL    HW193875   8.880   3.116   6.497  1.3860 -0.1930 -0.9269
29346SOL    HW293876   8.872   3.262   6.535 -1.0617 -0.5091 -0.0486
29347SOL     OW93877   7.497   7.981   8.075  0.1911 -0.0470 -0.4004
29347SOL    HW193878   7.440   7.910   8.046 -0.6713  0.6707 -0.5147
29347SOL    HW293879   7.578   7.938   8.099 -0.7752 -1.2329  0.8702
29348SOL     OW93880   8.996  11.702   0.258 -0.0238 -0.0797  0.0360
29348SOL    HW193881   9.018  11.772   0.197  0.7145 -0.1810  0.1747
29348SOL    HW293882   9.059  11.633   0.240 -0.2146 -0.3774  0.4679
29349SOL     OW93883   4.325   5.328  11.365  0.1711  0.2767 -0.3298
29349SOL    HW193884   4.370   5.374  11.435  1.0253  1.4311 -1.5785
29349SOL    HW293885   4.353   5.237  11.374  0.2798  0.4087  0.7894
29350SOL     OW93886   3.303   9.361   2.940  0.0905  0.0086  0.1947
29350SOL    HW193887   3.363   9.352   2.867  0.5837  1.2680  0.4243
29350SOL    HW293888   3.230   9.303   2.918  0.8568 -0.6625 -0.6307
29351SOL     OW93889   6.534   2.215   9.743  0.0527  0.2701  0.0777
29351SOL    HW193890   6.599   2.244   9.807  0.0697 -0.6079  0.4843
29351SOL    HW293891   6.583   2.201   9.662  0.2566  0.2046  0.2135
29352SOL     OW93892   0.408   7.163   6.272 -0.5888  0.7820  0.1347
29352SOL    HW193893   0.425   7.087   6.328 -1.7007  1.0727  0.8920
29352SOL    HW293894   0.381   7.232   6.332 -0.0349  1.6637 -0.5967
29353SOL     OW93895   6.992   0.757  12.139  0.4423  0.0468  0.5706
29353SOL    HW193896   7.047   0.744  12.062  0.5402  1.1893  0.4284
29353SOL    HW293897   7.052   0.752  12.213  0.7986  1.5059  0.4024
29354SOL     OW93898   0.420   2.266   7.798 -0.5513  0.1384 -0.3806
29354SOL    HW193899   0.398   2.172   7.797 -2.0094  0.4244  0.9720
29354SOL    HW293900   0.513   2.268   7.822 -1.1187 -0.9527  2.3625
29355SOL     OW93901   7.079   9.129   5.374  0.0282 -0.3239 -0.0411
29355SOL    HW193902   7.064   9.212   5.328  0.6955  0.3276  0.8811
29355SOL    HW293903   7.039   9.142   5.460  0.7125 -0.7225  0.3438
29356SOL     OW93904   6.041   9.151   1.519 -0.2718  0.1303 -0.3192
29356SOL    HW193905   5.980   9.153   1.446  1.1997  2.1605 -1.6022
29356SOL    HW293906   6.126   9.128   1.480  0.3769  0.3780  0.8804
29357SOL     OW93907   5.754   6.119   0.177  0.9117 -0.4687  0.0104
29357SOL    HW193908   5.775   6.125   0.084  0.2573  0.6942 -0.0825
29357SOL    HW293909   5.744   6.210   0.205  0.1824 -0.8398  1.0076
29358SOL     OW93910   5.907   5.909  11.334  0.3280  0.4656 -0.6781
29358SOL    HW193911   5.912   5.987  11.279  0.5145  0.0254 -1.2910
29358SOL    HW293912   5.938   5.938  11.420  0.2957  1.0863 -0.8776
29359SOL     OW93913   2.463   9.619   3.035 -0.1387 -0.6036  0.5554
29359SOL    HW193914   2.369   9.637   3.039  0.0845  0.6238  0.9535
29359SOL    HW293915   2.481   9.570   3.116  0.1619  2.5613  2.5909
29360SOL     OW93916  10.752   1.281  10.508  0.4851 -0.9358  0.4309
29360SOL    HW193917  10.710   1.362  10.478 -1.2514 -1.2189  1.9431
29360SOL    HW293918  10.770   1.296  10.601  2.1127 -1.5419  0.2572
29361SOL     OW93919   7.201   6.275   4.203  0.2720  0.2259 -0.2237
29361SOL    HW193920   7.260   6.211   4.243  0.7582  0.8941  0.1365
29361SOL    HW293921   7.202   6.253   4.110  1.1948  0.3042 -0.2428
29362SOL     OW93922   6.685  10.818   4.173  0.3659 -0.2646 -0.2431
29362SOL    HW193923   6.661  10.728   4.154  1.3298 -0.4049 -0.8382
29362SOL    HW293924   6.760  10.836   4.117 -0.2702  1.1544 -0.6922
29363SOL     OW93925   4.510   1.610   0.976  0.3950  0.0306 -0.6760
29363SOL    HW193926   4.584   1.595   0.917 -0.2743  0.4872 -1.6542
29363SOL    HW293927   4.465   1.686   0.940 -1.6194 -1.3359 -1.2119
29364SOL     OW93928   8.455   5.149   9.204 -0.0372 -0.1852  0.1513
29364SOL    HW193929   8.545   5.179   9.220 -0.2250  0.7557 -0.4604
29364SOL    HW293930   8.413   5.153   9.289  0.5696 -0.9131  0.5024
29365SOL     OW93931  11.522   0.530  10.438  0.2024 -0.4569 -0.2840
29365SOL    HW193932  11.525   0.464  10.369 -1.5481  0.2913 -1.1346
29365SOL    HW293933  11.449   0.587  10.413  1.4309  1.5952  0.5937
29366SOL     OW93934   5.217   4.318  11.620  0.3500 -0.0176  0.5164
29366SOL    HW193935   5.247   4.371  11.547  1.2313  0.7769  1.4208
29366SOL    HW293936   5.186   4.237  11.580  0.8096  0.3992 -0.7264
29367SOL     OW93937   3.752   6.345   3.908  0.7508 -0.6065 -0.1410
29367SOL    HW193938   3.687   6.397   3.862 -0.6333 -1.5403  0.7010
29367SOL    HW293939   3.830   6.400   3.911 -0.6246  1.3703  0.6477
29368SOL     OW93940  10.793   0.525  10.911 -0.6524 -0.2969 -0.1314
29368SOL    HW193941  10.757   0.440  10.886 -0.2861 -0.5035  0.0444
29368SOL    HW293942  10.810   0.569  10.827  1.7026 -1.4524 -0.3468
29369SOL     OW93943   8.690   7.276   6.169 -0.6172 -0.0883 -0.2711
29369SOL    HW193944   8.758   7.209   6.164 -0.4760  0.0315  0.0282
29369SOL    HW293945   8.738   7.358   6.177 -0.7058  0.3035 -2.7630
29370SOL     OW93946   2.761   1.399   3.633 -0.0039  0.2335  0.3700
29370SOL    HW193947   2.800   1.356   3.556  2.0665  0.1053  1.4073
29370SOL    HW293948   2.719   1.477   3.597  0.6490  0.0221 -0.9424
29371SOL     OW93949   9.409  12.276   3.023 -0.9152 -0.0334  0.0730
29371SOL    HW193950   9.482  12.239   3.073  1.0106 -1.8309 -3.6117
29371SOL    HW293951   9.337  12.216   3.038 -0.7161  0.0338  1.3970
29372SOL     OW93952  10.828   3.567   6.072  0.2637  0.1650  0.4385
29372SOL    HW193953  10.734   3.551   6.080  0.3842 -0.4331  0.6952
29372SOL    HW293954  10.850   3.534   5.985  0.2930  0.0212  0.5007
29373SOL     OW93955  11.727   7.655   2.363 -0.5975  0.4146  0.3491
29373SOL    HW193956  11.745   7.748   2.351  1.2739  0.2670  1.5869
29373SOL    HW293957  11.789   7.627   2.430  0.4485 -2.2152 -1.5250
29374SOL     OW93958   7.101   2.184   2.023  0.3718 -0.2819 -0.2467
29374SOL    HW193959   7.081   2.117   2.088 -1.0318  0.8511  0.5507
29374SOL    HW293960   7.016   2.214   1.992  0.7561  2.8599  1.2883
29375SOL     OW93961   2.801  10.374   5.447  0.0651 -0.2045  0.1002
29375SOL    HW193962   2.830  10.283   5.455  1.8547  0.3574  0.4005
29375SOL    HW293963   2.722  10.378   5.500  1.0095 -1.1434  1.6466
29376SOL     OW93964   4.985  11.305   4.566 -0.0207  0.3675  0.0375
29376SOL    HW193965   4.938  11.357   4.631  0.3510  0.3999  0.2805
29376SOL    HW293966   4.988  11.360   4.488  0.5302  0.7833  0.3501
29377SOL     OW93967   6.372   3.932   6.903 -0.4831 -0.5259  0.0407
29377SOL    HW193968   6.453   3.881   6.910 -0.8498 -1.1460 -0.1122
29377SOL    HW293969   6.396   4.006   6.848 -0.1957 -1.0862 -0.6063
29378SOL     OW93970   3.824   4.539   9.527  0.2023 -0.3061  0.2764
29378SOL    HW193971   3.835   4.507   9.616  2.6534 -0.0622  0.1314
29378SOL    HW293972   3.876   4.619   9.523 -1.1918  0.6007 -0.9414
29379SOL     OW93973   5.639   3.461   4.243 -0.2000 -0.2508 -0.1501
29379SOL    HW193974   5.588   3.542   4.237  0.4387  0.1541 -0.1465
29379SOL    HW293975   5.718   3.479   4.193  0.2868 -0.6129  0.4849
29380SOL     OW93976   7.690   3.265   3.880  0.0984  0.0831 -0.3663
29380SOL    HW193977   7.614   3.313   3.846  1.1958  0.0243 -3.2064
29380SOL    HW293978   7.749   3.333   3.912 -0.4004  0.2487  0.2226
29381SOL     OW93979   0.130   4.677   7.591  0.0902  0.1438 -0.9473
29381SOL    HW193980   0.163   4.657   7.679 -0.0118 -1.6821 -1.2873
29381SOL    HW293981   0.165   4.764   7.571  1.7224 -0.2367  0.1233
29382SOL     OW93982   3.946   9.297   3.947  0.2789  0.1624  0.3429
29382SOL    HW193983   3.944   9.204   3.970 -1.5923  0.5947  2.2126
29382SOL    HW293984   3.856   9.318   3.924  0.7342  1.4644 -0.3818
29383SOL     OW93985  11.955  10.005   5.157  0.0655 -0.1240 -0.2409
29383SOL    HW193986  11.932  10.077   5.216  0.0776  0.7866 -1.3029
29383SOL    HW293987  12.024  10.041   5.101  0.5978 -1.2158 -0.3162
29384SOL     OW93988   1.462   0.665   1.797 -0.1744 -0.6193 -0.2952
29384SOL    HW193989   1.551   0.687   1.825  0.2122 -1.0773 -1.1505
29384SOL    HW293990   1.414   0.748   1.806  0.1072 -0.5664  0.9888
29385SOL     OW93991   1.359   8.871   2.236 -0.6050 -0.0113 -0.0278
29385SOL    HW193992   1.418   8.812   2.187 -1.0561 -0.8969  0.4684
29385SOL    HW293993   1.277   8.869   2.187 -0.4115  0.7695 -0.3967
29386SOL     OW93994  11.845   6.320   3.965  0.1465  0.2297  0.1479
29386SOL    HW193995  11.788   6.249   3.994  0.8565 -1.6432 -2.6634
29386SOL    HW293996  11.907   6.332   4.036  0.7940 -2.9011  0.2384
29387SOL     OW93997  10.165   8.619   4.458  0.1181 -0.4810  0.2155
29387SOL    HW193998  10.214   8.583   4.532  2.3454  1.0365 -0.4037
29387SOL    HW293999  10.104   8.682   4.497  0.9739 -0.0084  0.8216
29388SOL     OW94000   5.292   2.970   8.540  0.5656 -0.4694 -0.0706
29388SOL    HW194001   5.209   3.007   8.509  0.8758  0.1411 -0.2082
29388SOL    HW294002   5.347   2.967   8.461  0.6493 -0.9460  0.0031
29389SOL     OW94003  11.336  11.594   9.696  0.1211  0.6142  0.2690
29389SOL    HW194004  11.430  11.608   9.694  0.0119  1.3564 -0.4876
29389SOL    HW294005  11.303  11.665   9.752  0.0260  0.2139  0.7309
29390SOL     OW94006   5.050   5.486   9.708  1.0003  0.1980 -0.3039
29390SOL    HW194007   4.981   5.436   9.752 -0.3027  0.3008 -2.1094
29390SOL    HW294008   5.011   5.512   9.625  2.9729  0.9718 -1.0423
29391SOL     OW94009   3.964   9.251   0.183  0.2078 -0.3040  0.4420
29391SOL    HW194010   4.049   9.277   0.146  0.0597  0.7477  0.8078
29391SOL    HW294011   3.974   9.266   0.277 -0.5317  0.2871  0.4388
29392SOL     OW94012   7.472   4.277   2.235  0.8346  0.4199 -0.7599
29392SOL    HW194013   7.549   4.297   2.287  0.5564  1.2211 -0.6269
29392SOL    HW294014   7.435   4.199   2.275 -0.2890  1.9116  1.3380
29393SOL     OW94015   5.685   6.112  10.179  0.3012 -0.0488 -0.1762
29393SOL    HW194016   5.714   6.177  10.115 -0.3068 -0.6034 -1.0428
29393SOL    HW294017   5.726   6.139  10.261  3.1486 -0.7319 -1.2793
29394SOL     OW94018  11.731   2.046   1.834 -0.6132 -0.0400  0.1867
29394SOL    HW194019  11.755   1.954   1.848 -0.7609  0.2672  2.8272
29394SOL    HW294020  11.813   2.094   1.845 -0.7033  0.2470 -0.3340
29395SOL     OW94021   8.684   5.815   2.873  0.0286 -0.3205 -0.5502
29395SOL    HW194022   8.643   5.833   2.789  2.1515 -1.8938 -2.0389
29395SOL    HW294023   8.749   5.885   2.884 -0.0853 -0.2489 -0.3087
29396SOL     OW94024   9.039   7.414  11.293  0.0187 -0.2212 -0.1199
29396SOL    HW194025   9.081   7.333  11.266  1.7577  0.9129 -0.9879
29396SOL    HW294026   9.051   7.474  11.219 -0.7168  1.0102  0.7137
29397SOL     OW94027  12.265   5.424   3.086 -0.4956  0.1846 -0.2086
29397SOL    HW194028  12.281   5.518   3.094  0.0394  0.1516 -0.8332
29397SOL    HW294029  12.272   5.407   2.992  1.8121 -0.9120  0.1053
29398SOL     OW94030  11.569   1.718   0.799 -0.6370 -0.0862  0.2048
29398SOL    HW194031  11.663   1.713   0.780 -0.7619 -1.6485 -0.1689
29398SOL    HW294032  11.546   1.809   0.782  0.5488  0.0173 -1.0126
29399SOL     OW94033   6.524   2.808  10.783  0.3630 -0.2053 -0.0900
29399SOL    HW194034   6.454   2.873  10.786 -0.0556 -0.5110 -1.8403
29399SOL    HW294035   6.479   2.725  10.798  0.1554 -0.4952 -2.0772
29400SOL     OW94036   8.726  10.341   6.633 -0.1636 -0.0144 -0.5309
29400SOL    HW194037   8.800  10.286   6.657 -1.1184 -0.5802  1.2459
29400SOL    HW294038   8.719  10.405   6.704 -0.0740  1.4409 -1.7560
29401SOL     OW94039   5.560   2.001   0.662 -0.2373  0.8685  0.0619
29401SOL    HW194040   5.510   1.970   0.737 -0.0449 -0.7801 -0.4487
29401SOL    HW294041   5.645   2.027   0.699 -0.0439 -0.1886  0.4012
29402SOL     OW94042  10.156   9.755   8.368 -0.2729  0.0091  0.5847
29402SOL    HW194043  10.107   9.794   8.440 -1.6503  0.1165 -0.3671
29402SOL    HW294044  10.092   9.746   8.297  0.9202 -0.5204 -0.4758
29403SOL     OW94045   1.037   7.750  11.382 -0.2575 -0.2213 -0.3950
29403SOL    HW194046   0.969   7.750  11.450  0.5233 -0.8897  0.4099
29403SOL    HW294047   0.988   7.762  11.301 -1.1509  1.2303  0.3160
29404SOL     OW94048   3.410   0.728   8.428 -0.0389  0.4046 -0.7897
29404SOL    HW194049   3.460   0.725   8.347 -1.2555  0.7410 -1.5834
29404SOL    HW294050   3.350   0.802   8.416 -1.2327 -0.4341 -0.1969
29405SOL     OW94051   2.929  10.912   0.107  0.7379 -0.1536 -0.1457
29405SOL    HW194052   2.996  10.854   0.143 -0.2758 -1.0506  0.3579
29405SOL    HW294053   2.906  10.872   0.023 -1.5802 -1.8626  1.1921
29406SOL     OW94054   2.480   6.860   3.008  0.6877  0.4376 -0.1934
29406SOL    HW194055   2.478   6.898   3.096  0.3495 -2.3596  1.1282
29406SOL    HW294056   2.569   6.880   2.976  0.5156  2.2901  0.3332
29407SOL     OW94057  11.789   6.908   6.475 -0.3827 -0.8913  0.2624
29407SOL    HW194058  11.769   6.983   6.420 -1.0630 -2.2811 -1.4979
29407SOL    HW294059  11.723   6.910   6.544  0.8661  1.2310  1.5091
29408SOL     OW94060   4.536   3.558  11.626 -0.3031 -0.2241 -0.1675
29408SOL    HW194061   4.554   3.641  11.582 -0.4902  0.1308  0.4024
29408SOL    HW294062   4.613   3.543  11.680 -0.9421  0.4273  0.9744
29409SOL     OW94063   9.440   4.980   1.724 -0.1076  0.2600 -0.4992
29409SOL    HW194064   9.454   4.942   1.811  0.5357  0.6632 -0.4128
29409SOL    HW294065   9.499   4.930   1.666 -1.2027 -0.6137 -0.8851
29410SOL     OW94066   6.701   0.211   1.066  0.0950  0.6394  0.6215
29410SOL    HW194067   6.694   0.304   1.085  0.1611  0.6029  0.8240
29410SOL    HW294068   6.647   0.199   0.987  0.3373  0.9001  0.4122
29411SOL     OW94069   4.657   4.094   2.940  0.1985 -0.0115 -0.8201
29411SOL    HW194070   4.597   4.040   2.991 -0.8089  0.8616 -1.0483
29411SOL    HW294071   4.630   4.081   2.849  0.0776  0.7002 -0.8922
29412SOL     OW94072   5.894   8.791   8.078  0.1822  0.5741  0.4101
29412SOL    HW194073   5.846   8.753   8.152 -1.3007  1.9707  0.2239
29412SOL    HW294074   5.837   8.860   8.045  0.8075  0.0067 -2.0711
29413SOL     OW94075   7.267  11.076   5.132  0.1817 -0.2860 -0.1072
29413SOL    HW194076   7.221  10.994   5.115  1.1406 -0.5159 -1.7558
29413SOL    HW294077   7.282  11.076   5.227 -1.4953 -1.0887  0.1916
29414SOL     OW94078   2.910   2.471  10.428  0.1257  0.1624  0.2669
29414SOL    HW194079   2.957   2.554  10.438  1.2493 -0.4953  0.6171
29414SOL    HW294080   2.901   2.460  10.333  0.8868  0.2048  0.1792
29415SOL     OW94081   6.247   3.564   2.021  0.9076 -0.6003  0.0280
29415SOL    HW194082   6.319   3.561   1.958  0.2417  0.2732 -0.8056
29415SOL    HW294083   6.206   3.477   2.015 -0.8125  0.2540 -2.8232
29416SOL     OW94084   5.438   3.711   6.582 -0.2208 -0.8677  0.1960
29416SOL    HW194085   5.394   3.783   6.537  2.6559  2.9273  2.8403
29416SOL    HW294086   5.497   3.673   6.517  1.1193  1.9550 -0.3588
29417SOL     OW94087   9.237   8.432   7.652  0.2702 -0.3473  0.5858
29417SOL    HW194088   9.144   8.417   7.669  0.2569 -0.1382  0.7096
29417SOL    HW294089   9.261   8.366   7.587 -0.6187  1.2776 -1.5075
29418SOL     OW94090   6.035   5.617  11.756  0.0795 -0.0755 -0.2096
29418SOL    HW194091   5.977   5.646  11.685 -0.1274  0.8686  0.3295
29418SOL    HW294092   5.976   5.590  11.826  0.2046  2.6086  1.0452
29419SOL     OW94093   3.785  12.079   0.644  0.2875 -0.7883  0.0369
29419SOL    HW194094   3.880  12.078   0.632  0.2476 -2.7616 -0.5724
29419SOL    HW294095   3.759  11.987   0.634 -1.9341 -0.0525 -1.8083
29420SOL     OW94096  10.663  10.542   2.307  0.3764  0.1317  0.8774
29420SOL    HW194097  10.740  10.548   2.364  0.4540  1.3540  0.6536
29420SOL    HW294098  10.588  10.544   2.366  0.4472  1.7032  0.9339
29421SOL     OW94099   0.213   5.855   1.719  0.4203  0.4328 -0.0718
29421SOL    HW194100   0.298   5.886   1.752  1.3004 -0.9285 -0.9810
29421SOL    HW294101   0.152   5.927   1.740  1.4940  0.8564  1.8273
29422SOL     OW94102   0.265   6.705   1.394  0.3123  0.1173  0.1515
29422SOL    HW194103   0.198   6.707   1.326 -0.6916  1.7815  1.1134
29422SOL    HW294104   0.270   6.613   1.420 -1.7451 -0.0364  0.1703
29423SOL     OW94105   7.315   4.499   2.276 -0.5519 -0.0585 -0.3132
29423SOL    HW194106   7.342   4.407   2.271 -0.6828 -0.1594  0.6263
29423SOL    HW294107   7.327   4.532   2.187  0.1941 -0.7903 -0.4999
29424SOL     OW94108   3.853   2.974   3.473 -0.2304 -0.1064  0.1362
29424SOL    HW194109   3.948   2.969   3.484 -0.2184  1.7390  1.3078
29424SOL    HW294110   3.834   3.068   3.477 -1.8163 -0.1628 -2.9911
29425SOL     OW94111   2.605   9.737   5.035  0.5242  1.1778  0.2796
29425SOL    HW194112   2.686   9.701   5.070  0.4264  0.3297 -0.3569
29425SOL    HW294113   2.562   9.776   5.111  0.2172 -0.8056  1.1654
29426SOL     OW94114  10.056   5.211   8.642 -0.9083 -0.1188 -0.0258
29426SOL    HW194115  10.108   5.157   8.702 -0.2339  0.2372 -0.2808
29426SOL    HW294116  10.080   5.179   8.555 -1.4132 -0.2121 -0.1317
29427SOL     OW94117   3.065   2.933   9.293  0.1111  0.2260 -0.2871
29427SOL    HW194118   3.097   2.983   9.368  0.3667  0.2614 -0.4187
29427SOL    HW294119   3.045   2.999   9.227 -2.7470  0.4554  0.6701
29428SOL     OW94120   9.983   7.173   6.548  0.6760  0.4930 -0.4168
29428SOL    HW194121  10.059   7.132   6.507  0.8985 -0.4986  0.9308
29428SOL    HW294122   9.973   7.257   6.502  0.4595 -0.8412 -2.9972
29429SOL     OW94123   6.667   9.578   0.688 -0.4871 -0.1166  0.1154
29429SOL    HW194124   6.717   9.565   0.608  2.1604 -0.7199  1.7612
29429SOL    HW294125   6.576   9.562   0.662  0.2204  0.0665 -2.8047
29430SOL     OW94126   9.326   9.636   1.881  0.0110  0.1488  0.2090
29430SOL    HW194127   9.398   9.607   1.937 -0.2164 -1.3273 -0.2176
29430SOL    HW294128   9.304   9.724   1.913  2.5126  0.9897 -0.1633
29431SOL     OW94129   6.740  10.588  10.620  0.1220  0.1447 -0.0453
29431SOL    HW194130   6.785  10.671  10.606  1.2572 -0.4354  0.0065
29431SOL    HW294131   6.745  10.543  10.535  0.2496 -0.2123  0.1495
29432SOL     OW94132   5.426   9.244   7.344  0.0338  0.2658  0.3399
29432SOL    HW194133   5.432   9.205   7.256  0.8827 -1.0984  0.9739
29432SOL    HW294134   5.362   9.190   7.390  0.7961 -0.0500  1.0540
29433SOL     OW94135   0.812  10.070   7.062  0.0570 -0.1446 -0.8831
29433SOL    HW194136   0.751  10.017   7.112  1.2565  0.4529  1.3285
29433SOL    HW294137   0.893  10.019   7.060  0.9736  1.1626  0.5731
29434SOL     OW94138   3.536   3.137   3.866  0.4210  0.1786  0.5206
29434SOL    HW194139   3.489   3.056   3.842  0.8022  0.4365 -1.2382
29434SOL    HW294140   3.468   3.194   3.903 -0.3228 -0.0820 -0.4118
29435SOL     OW94141   3.808  11.721  11.241 -0.5894 -0.8285 -0.1630
29435SOL    HW194142   3.864  11.645  11.255  1.8017  1.1929  2.2988
29435SOL    HW294143   3.868  11.795  11.229 -2.7871  0.8139 -2.0871
29436SOL     OW94144   9.145   5.690   3.330 -0.1932  1.0818 -0.0970
29436SOL    HW194145   9.126   5.628   3.259  0.2483  0.3390  0.4221
29436SOL    HW294146   9.184   5.636   3.399 -1.1815  1.6745  0.9606
29437SOL     OW94147   2.993  12.093   8.364  0.2851  0.0270  0.3218
29437SOL    HW194148   2.965  12.012   8.408  1.1050  0.2291  1.2547
29437SOL    HW294149   3.083  12.076   8.337  0.3890  0.5524  0.3264
29438SOL     OW94150   6.079   4.391   7.106  0.2535 -0.1190 -0.2066
29438SOL    HW194151   6.009   4.327   7.122 -0.6160  0.5595 -1.1343
29438SOL    HW294152   6.095   4.385   7.011  0.4505  0.7478 -0.2354
29439SOL     OW94153   4.914   3.155   1.034  0.2188  0.0249  0.0364
29439SOL    HW194154   4.891   3.243   1.005  1.0985  0.1091 -0.4563
29439SOL    HW294155   4.931   3.107   0.953 -2.5620 -1.3165  0.1231
29440SOL     OW94156   8.717   2.357   4.751 -0.0386 -0.3544 -0.0504
29440SOL    HW194157   8.728   2.451   4.763 -0.4822 -0.5242  2.1353
29440SOL    HW294158   8.652   2.349   4.682 -0.8285  0.9882  0.4985
29441SOL     OW94159   4.436   2.916  10.756  0.1299  0.3083  0.7025
29441SOL    HW194160   4.430   2.961  10.672  0.3270  1.3072  1.2087
29441SOL    HW294161   4.386   2.970  10.816  0.3907 -0.1412  1.3408
29442SOL     OW94162   2.452   9.706   6.994 -0.0983  0.6615  0.1746
29442SOL    HW194163   2.430   9.799   7.002 -0.6088  0.9762 -3.2756
29442SOL    HW294164   2.542   9.706   6.960  0.2051 -0.1551  0.9441
29443SOL     OW94165   5.144   4.043   9.884  0.5522 -0.4791  0.2953
29443SOL    HW194166   5.071   4.059   9.943 -1.4641 -2.9784 -1.2904
29443SOL    HW294167   5.177   4.130   9.861 -2.5950  0.8479  0.3092
29444SOL     OW94168  12.279  10.039   7.580 -0.2356  0.0829 -0.5752
29444SOL    HW194169  12.267  10.007   7.491  2.9826  0.6946 -1.3384
29444SOL    HW294170  12.298  10.132   7.571  0.2036  0.1524  0.7543
29445SOL     OW94171   1.829  12.118   7.493  0.6444 -0.2158  0.0205
29445SOL    HW194172   1.865  12.083   7.574  0.4227  2.2284  1.2620
29445SOL    HW294173   1.738  12.089   7.493  0.5810 -0.0357  0.7697
29446SOL     OW94174   3.818   7.712   4.706 -0.1586 -0.3496  0.3995
29446SOL    HW194175   3.897   7.716   4.653 -0.2215 -2.1966  0.0973
29446SOL    HW294176   3.843   7.659   4.782 -1.4402 -2.1744 -0.3958
29447SOL     OW94177   5.258  11.786   5.493 -0.2927  0.7329 -0.1916
29447SOL    HW194178   5.249  11.800   5.399  2.1150  1.3790 -0.3990
29447SOL    HW294179   5.278  11.872   5.529 -0.8026  0.4296  0.8854
29448SOL     OW94180   2.182   7.046   6.667 -0.1268 -0.3659 -0.1151
29448SOL    HW194181   2.268   7.068   6.632 -0.1471 -1.1376 -0.6618
29448SOL    HW294182   2.199   7.008   6.753  0.3395 -3.2248 -1.3743
29449SOL     OW94183  12.321   0.098   7.033  0.4947 -0.1974 -0.0790
29449SOL    HW194184  12.239   0.118   7.079 -0.6099 -0.1385 -1.9807
29449SOL    HW294185  12.388   0.141   7.085 -0.9834  2.0765  0.0966
29450SOL     OW94186   8.452   4.330   1.005  0.3021 -0.2698  0.5391
29450SOL    HW194187   8.526   4.391   1.007  1.6041 -1.6796 -1.1774
29450SOL    HW294188   8.451   4.292   1.093  0.6435  0.8555  1.0532
29451SOL     OW94189  12.251   4.478   7.000 -0.7867  0.1349  0.1751
29451SOL    HW194190  12.176   4.537   6.988 -0.4905  0.4644 -0.0708
29451SOL    HW294191  12.312   4.503   6.931 -0.1177  0.4004  0.8490
29452SOL     OW94192   8.959   4.916   5.571  0.3317  0.1231  0.6263
29452SOL    HW194193   9.032   4.973   5.596 -0.5552  1.1976  0.8504
29452SOL    HW294194   8.884   4.975   5.564 -0.1533 -0.6796 -1.3918
29453SOL     OW94195   5.884  10.657   4.430 -0.5628  0.2291  0.4059
29453SOL    HW194196   5.854  10.747   4.443 -1.4265  0.1075 -0.6410
29453SOL    HW294197   5.976  10.666   4.405 -0.2384  0.7192  1.6913
29454SOL     OW94198   4.771   7.751   7.103  0.3878 -0.5983 -0.2327
29454SOL    HW194199   4.798   7.837   7.136 -1.8440  0.1534 -0.1643
29454SOL    HW294200   4.838   7.691   7.135  1.3872  0.9529  0.7267
29455SOL     OW94201   5.049   8.038   8.336 -0.0093  0.1109  0.3032
29455SOL    HW194202   5.091   8.007   8.256  0.0443 -1.0449  0.7583
29455SOL    HW294203   4.999   7.962   8.368 -1.5975  1.1249  0.3375
29456SOL     OW94204   0.235   7.513   1.500  0.3724 -0.3279  0.1903
29456SOL    HW194205   0.279   7.428   1.501  1.5390  0.2460 -0.5137
29456SOL    HW294206   0.306   7.577   1.493 -0.5838  0.6016 -1.6649
29457SOL     OW94207  11.185  11.836   0.086  0.2390 -0.2642  0.0131
29457SOL    HW194208  11.201  11.782   0.163  2.7471 -1.5470 -1.2566
29457SOL    HW294209  11.227  11.920   0.105  0.9809 -0.6290  0.0400
29458SOL     OW94210   9.551   7.727   7.294  0.3995  0.0856 -0.1245
29458SOL    HW194211   9.563   7.633   7.312  1.0031  0.2599  0.4417
29458SOL    HW294212   9.458   7.736   7.276  0.3616 -0.6547 -0.3532
29459SOL     OW94213   1.687   9.865   5.951  0.0807  0.3094  0.6351
29459SOL    HW194214   1.597   9.847   5.923  0.1533  1.5155 -0.5007
29459SOL    HW294215   1.738   9.791   5.919 -0.2965  0.3131  0.0111
29460SOL     OW94216  11.591   7.596   7.174  0.0514  0.0909 -0.1992
29460SOL    HW194217  11.617   7.688   7.171  0.2897  0.0131 -0.6641
29460SOL    HW294218  11.552   7.579   7.088  2.3925 -0.9202 -1.1534
29461SOL     OW94219   0.057   7.063   5.829  0.3586 -0.1406 -0.3504
29461SOL    HW194220  -0.037   7.076   5.815  0.1447  2.4894  2.4714
29461SOL    HW294221   0.099   7.110   5.756 -0.5868  1.4980  0.1058
29462SOL     OW94222   3.955   1.423   0.008 -0.1117 -0.0530 -0.4296
29462SOL    HW194223   3.943   1.346  -0.048 -0.3102  0.3042 -0.8768
29462SOL    HW294224   4.009   1.391   0.080 -0.7611 -0.7840 -0.2508
29463SOL     OW94225   4.218   9.283  12.213 -0.0966  0.4662 -0.1186
29463SOL    HW194226   4.125   9.267  12.201 -0.1607 -0.0718  0.9703
29463SOL    HW294227   4.260   9.242  12.137 -0.6547 -0.4141  0.0354
29464SOL     OW94228   6.204  10.163  11.514 -0.0252 -0.0011 -0.4177
29464SOL    HW194229   6.282  10.110  11.533 -0.9066 -1.0958  0.2457
29464SOL    HW294230   6.204  10.172  11.419 -0.2569 -1.8489 -0.6161
29465SOL     OW94231   6.024   7.395   0.233  0.3632  0.0456 -0.1853
29465SOL    HW194232   6.038   7.301   0.249 -0.4927 -0.0548  0.0255
29465SOL    HW294233   5.934   7.411   0.262 -0.0367  0.6172 -1.6611
29466SOL     OW94234   6.021   3.152   7.425  0.0251  0.3669  0.1197
29466SOL    HW194235   6.036   3.234   7.471  1.4144  0.7074 -0.8971
29466SOL    HW294236   6.108   3.112   7.417 -0.8078 -2.3942  2.6637
29467SOL     OW94237   4.649   4.173   0.109  0.1924 -0.3717 -0.2594
29467SOL    HW194238   4.639   4.146   0.200  0.5165 -0.6819 -0.3134
29467SOL    HW294239   4.735   4.139   0.083  0.7731  0.9822 -0.2202
29468SOL     OW94240   9.232   7.764   4.447 -0.6199  0.5380  0.0603
29468SOL    HW194241   9.263   7.821   4.377 -0.5549 -1.0104 -1.2166
29468SOL    HW294242   9.166   7.816   4.493  0.5066  2.1710 -0.0859
29469SOL     OW94243   3.362  11.500   5.162  0.0615  0.2052 -0.5360
29469SOL    HW194244   3.376  11.464   5.250 -0.3007  0.8308 -0.2170
29469SOL    HW294245   3.428  11.456   5.108  1.9805  1.6169  0.5384
29470SOL     OW94246   9.523   8.861   5.115  0.7435 -0.2836 -0.0039
29470SOL    HW194247   9.477   8.931   5.070  0.9273  0.1154  0.4196
29470SOL    HW294248   9.533   8.793   5.049  1.6277  0.5655 -0.7807
29471SOL     OW94249   5.216   7.361   1.090  0.5190 -0.0510 -0.1831
29471SOL    HW194250   5.202   7.455   1.085 -0.9178 -0.1273  1.3558
29471SOL    HW294251   5.303   7.347   1.053  1.0896  1.9761  0.2842
29472SOL     OW94252  10.690  11.713   0.229 -0.1570  0.3818  0.3722
29472SOL    HW194253  10.630  11.751   0.293 -1.3105 -1.8550  0.7204
29472SOL    HW294254  10.762  11.776   0.223 -1.6770  2.3026  1.2540
29473SOL     OW94255   7.020   1.508  11.707  0.1030 -0.0734 -0.2292
29473SOL    HW194256   7.029   1.564  11.785 -0.4440  0.6981 -0.6987
29473SOL    HW294257   7.109   1.496  11.676  0.2789  0.0641  0.2206
29474SOL     OW94258   8.616   1.953   2.304  0.0935  0.4549 -0.0908
29474SOL    HW194259   8.682   1.930   2.238  1.2212  0.7073  0.9004
29474SOL    HW294260   8.573   2.031   2.269 -0.5349 -0.4067 -1.3125
29475SOL     OW94261   0.000   1.561   7.098  0.2655 -0.2926 -0.1050
29475SOL    HW194262   0.077   1.522   7.056  1.8077  1.2742  1.0913
29475SOL    HW294263  -0.004   1.650   7.063 -0.3362 -0.0093  0.6579
29476SOL     OW94264   9.575  10.225   2.943  0.0351 -0.8694 -0.2142
29476SOL    HW194265   9.627  10.236   3.022 -0.0844 -0.4375 -0.1907
29476SOL    HW294266   9.497  10.278   2.958 -0.1778 -1.1093 -0.4563
29477SOL     OW94267   7.087  11.599   7.745  0.5793 -0.6271 -0.0672
29477SOL    HW194268   7.018  11.543   7.708  0.0618 -2.7609  3.5676
29477SOL    HW294269   7.040  11.669   7.789  1.0510  0.6123 -1.4814
29478SOL     OW94270   6.114   5.840   4.705  0.0571  0.0661  0.1460
29478SOL    HW194271   6.207   5.849   4.724  0.3423  2.0815 -1.8514
29478SOL    HW294272   6.107   5.754   4.662  1.3984  0.7099 -1.4963
29479SOL     OW94273  11.546   7.886   4.214 -0.2696  0.4817  0.3117
29479SOL    HW194274  11.554   7.980   4.198 -2.7334  0.4569 -1.5675
29479SOL    HW294275  11.452   7.871   4.228  0.1700 -1.5854  1.6502
29480SOL     OW94276   2.239   9.715  12.226 -0.3694 -0.2219  0.0328
29480SOL    HW194277   2.245   9.638  12.168  1.6244 -0.8770  1.0193
29480SOL    HW294278   2.282   9.785  12.176 -0.1978 -0.3349  0.0195
29481SOL     OW94279   2.037   2.169   8.662 -0.0395 -0.8795  0.5399
29481SOL    HW194280   2.037   2.243   8.603  0.4675 -1.8460 -0.7167
29481SOL    HW294281   2.128   2.162   8.692 -0.0625 -1.0578  0.5700
29482SOL     OW94282   3.245   3.909   9.872 -0.5021  0.0525  0.2342
29482SOL    HW194283   3.195   3.840   9.828  2.9286 -1.0852 -2.3897
29482SOL    HW294284   3.216   3.990   9.830 -1.4449 -0.3170  0.1448
29483SOL     OW94285   4.887  12.101   9.139  0.2091  0.1114 -0.0869
29483SOL    HW194286   4.866  12.160   9.067 -0.2917  1.0277  0.8089
29483SOL    HW294287   4.835  12.022   9.121  1.3878 -0.3875 -1.6487
29484SOL     OW94288   0.805   9.107   6.234  0.3622  0.1465 -0.2627
29484SOL    HW194289   0.792   9.019   6.201 -1.9364 -0.2018  1.3648
29484SOL    HW294290   0.898   9.125   6.219  0.9081 -2.5659 -0.5177
29485SOL     OW94291   8.246  10.830   5.313 -0.2774 -0.1238 -0.0079
29485SOL    HW194292   8.327  10.854   5.268 -0.9019 -1.4348 -1.9995
29485SOL    HW294293   8.274  10.792   5.396  1.1056  0.0006 -0.3951
29486SOL     OW94294   7.769   7.128   1.771 -0.4626  0.3092  0.6636
29486SOL    HW194295   7.860   7.146   1.795 -0.5127  1.1769  0.2256
29486SOL    HW294296   7.774   7.050   1.715 -0.0618 -0.0155  1.1435
29487SOL     OW94297  11.970   9.174   8.680 -0.4502 -0.6403  0.0168
29487SOL    HW194298  11.887   9.159   8.634 -0.7913  0.0444  0.3961
29487SOL    HW294299  11.973   9.105   8.746  0.0542 -1.6432 -1.0227
29488SOL     OW94300   4.821   7.753   3.309  0.0670  0.5208  0.1173
29488SOL    HW194301   4.894   7.815   3.310 -0.5601  1.4138 -2.2535
29488SOL    HW294302   4.757   7.790   3.369  0.7281  0.7905  0.6742
29489SOL     OW94303  10.093   6.794   6.285  0.0079  0.6701 -0.9989
29489SOL    HW194304  10.038   6.756   6.353 -0.5437  0.3144 -1.6306
29489SOL    HW294305  10.130   6.873   6.325 -0.8357  0.8247 -0.5081
29490SOL     OW94306   3.588   6.637   3.189 -0.0749 -0.2103 -0.1896
29490SOL    HW194307   3.589   6.732   3.202  1.6669 -0.0775 -0.9477
29490SOL    HW294308   3.657   6.621   3.124  0.8028 -2.1352  1.1020
29491SOL     OW94309   2.097   4.339  10.412 -0.4583 -0.4955  0.3638
29491SOL    HW194310   2.047   4.354  10.332 -1.1426 -0.2708  0.8207
29491SOL    HW294311   2.031   4.337  10.482 -0.0133 -2.0580  0.7664
29492SOL     OW94312  11.542   8.562  11.769  0.2006 -0.1630 -0.2060
29492SOL    HW194313  11.485   8.625  11.813 -1.5257 -0.1681 -2.2422
29492SOL    HW294314  11.511   8.561  11.678  2.5206 -1.3066 -1.0738
29493SOL     OW94315   6.086   1.581   4.138 -0.0259  0.3897  0.6494
29493SOL    HW194316   6.003   1.534   4.141 -0.8689  1.7285 -0.5224
29493SOL    HW294317   6.085   1.639   4.215 -0.4516  0.8140  0.3296
29494SOL     OW94318   8.132   1.599  11.316  0.1901 -0.1051 -0.6951
29494SOL    HW194319   8.175   1.667  11.367 -0.8274  1.1967 -1.4837
29494SOL    HW294320   8.085   1.547  11.381 -0.8805  1.3610 -0.2182
29495SOL     OW94321   6.969   0.083   3.589 -0.0827 -0.2055  0.7828
29495SOL    HW194322   7.017   0.018   3.641  1.4937 -0.1134 -0.4595
29495SOL    HW294323   6.879   0.051   3.586  0.9279 -3.2923 -1.1651
29496SOL     OW94324   6.393   4.905   7.464  0.3528  0.2416  0.2194
29496SOL    HW194325   6.395   4.833   7.527  0.8950  1.2128  1.3252
29496SOL    HW294326   6.434   4.978   7.509 -1.3590  1.6532 -0.4100
29497SOL     OW94327   1.627   7.153   1.719  0.2370 -0.0166 -0.1329
29497SOL    HW194328   1.553   7.210   1.736 -0.1249 -0.9353  1.6041
29497SOL    HW294329   1.614   7.122   1.629 -1.8008 -0.6017  0.3223
29498SOL     OW94330   5.896   8.746   3.806  0.3988  0.0770  0.1402
29498SOL    HW194331   5.874   8.661   3.843  1.8870 -0.3019  0.2388
29498SOL    HW294332   5.855   8.810   3.865 -0.8805 -0.5592 -0.0377
29499SOL     OW94333   1.692   5.520   5.283 -0.3791  0.2977  0.2192
29499SOL    HW194334   1.763   5.457   5.290 -0.4780  0.0151 -1.0589
29499SOL    HW294335   1.704   5.579   5.358  1.2174  0.2738  0.0177
29500SOL     OW94336   6.176   8.197   4.610  0.1148  0.0379 -0.0925
29500SOL    HW194337   6.204   8.288   4.613 -0.5972  0.3012 -1.2085
29500SOL    HW294338   6.252   8.149   4.577 -0.3305  0.5998 -2.0363
29501SOL     OW94339   6.784  12.189   8.479 -0.2580 -0.1142  0.0595
29501SOL    HW194340   6.735  12.218   8.402  0.5377  1.3886  0.0840
29501SOL    HW294341   6.860  12.143   8.442 -0.9816 -1.3306  0.0106
29502SOL     OW94342   7.918   4.236   6.521 -0.2887  0.0209 -0.6114
29502SOL    HW194343   7.884   4.317   6.558  0.9210  1.0711 -1.6872
29502SOL    HW294344   7.972   4.264   6.447 -0.9230 -1.8637 -1.8570
29503SOL     OW94345  12.076   1.055  10.734 -0.2303  0.3305 -0.4429
29503SOL    HW194346  12.080   1.122  10.666  0.2984  0.8716  0.1034
29503SOL    HW294347  11.993   1.010  10.719  0.7595 -0.8843 -2.6394
29504SOL     OW94348   9.996   4.529   8.299 -0.4764  0.1788  0.3103
29504SOL    HW194349   9.969   4.592   8.366 -1.5285  0.4351 -0.3396
29504SOL    HW294350   9.915   4.503   8.256 -0.1975 -2.3149  1.1329
29505SOL     OW94351   1.657   2.124   6.269  0.1209 -0.1057  0.1602
29505SOL    HW194352   1.667   2.035   6.302  0.9047  0.1674  0.6700
29505SOL    HW294353   1.672   2.116   6.175  1.5561 -0.3073  0.3834
29506SOL     OW94354   7.703   4.043   1.685 -0.0457  0.3474  0.2568
29506SOL    HW194355   7.684   4.134   1.704  0.0366 -0.0272  2.2983
29506SOL    HW294356   7.633   4.015   1.626  0.6887  2.0573 -1.5130
29507SOL     OW94357   2.986   2.686   4.378  0.1746  0.5128  0.1318
29507SOL    HW194358   2.964   2.693   4.285 -0.7776 -0.2874  0.2822
29507SOL    HW294359   3.060   2.745   4.390  0.7248  0.1294 -1.2654
29508SOL     OW94360   5.300   7.489   7.406 -0.5206  0.2947  0.4577
29508SOL    HW194361   5.236   7.449   7.347 -0.0614  0.8048 -0.4030
29508SOL    HW294362   5.382   7.484   7.358  0.0965 -0.3411  1.5478
29509SOL     OW94363   0.728   5.580   4.600 -0.3178  0.0526  0.2065
29509SOL    HW194364   0.659   5.542   4.654 -0.1195 -0.0031  0.4247
29509SOL    HW294365   0.797   5.603   4.662 -0.3189  0.5041  0.0386
29510SOL     OW94366   6.138   2.323   4.983  0.1190 -0.6326  0.2240
29510SOL    HW194367   6.057   2.347   5.029 -0.0595 -0.8299  0.0147
29510SOL    HW294368   6.198   2.296   5.053  0.6150  1.1709  0.5524
29511SOL     OW94369   4.442   4.679   7.367  0.5252  0.1288  0.7046
29511SOL    HW194370   4.537   4.678   7.374  0.4681 -0.3497  1.6015
29511SOL    HW294371   4.424   4.714   7.280  1.5279 -0.3319  0.3003
29512SOL     OW94372   8.488   6.270   2.100  0.3505 -0.5141  0.1962
29512SOL    HW194373   8.556   6.327   2.137  1.3235 -0.1136 -2.0356
29512SOL    HW294374   8.445   6.324   2.033 -0.0545 -1.7593 -0.5757
29513SOL     OW94375   3.853   2.238   2.538  0.2469  0.3528  0.4286
29513SOL    HW194376   3.794   2.198   2.602 -0.5773 -0.9621 -1.0661
29513SOL    HW294377   3.941   2.211   2.566 -0.1788 -1.1730  0.4000
29514SOL     OW94378   6.630   9.902   9.930 -0.4480  0.2835  0.0123
29514SOL    HW194379   6.648   9.849   9.853  1.9325 -0.7857  1.1940
29514SOL    HW294380   6.535   9.912   9.931 -0.5807  0.1026 -2.8413
29515SOL     OW94381   1.149  11.050   1.420  0.5426  0.2998 -0.2071
29515SOL    HW194382   1.144  11.042   1.515 -0.0391 -2.1132 -0.3894
29515SOL    HW294383   1.201  10.975   1.392 -0.5733  0.0928 -1.8814
29516SOL     OW94384   5.136   9.206   0.088  0.8090  0.4576 -0.1383
29516SOL    HW194385   5.190   9.154   0.029  0.5654  1.0366 -0.8778
29516SOL    HW294386   5.162   9.177   0.176 -0.2102 -1.8473 -0.5105
29517SOL     OW94387   7.935   8.794   6.808 -0.5195  0.0456 -0.4866
29517SOL    HW194388   7.921   8.737   6.884 -0.7843  0.1131 -0.4833
29517SOL    HW294389   8.000   8.748   6.755  2.2474  1.5174  1.3829
29518SOL     OW94390   4.792   2.151  11.395  0.2097  0.2736  0.2472
29518SOL    HW194391   4.867   2.128  11.340 -0.8611  0.7890 -1.5049
29518SOL    HW294392   4.819   2.128  11.484  2.2768  0.0740 -0.3904
29519SOL     OW94393   3.843   2.909   9.767  0.1778 -0.2569  0.6443
29519SOL    HW194394   3.895   2.968   9.713  0.3558 -0.2139  0.8579
29519SOL    HW294395   3.803   2.848   9.705 -0.9424  0.7892  0.3192
29520SOL     OW94396   7.098   0.166   9.031  0.1117 -0.4094 -0.4130
29520SOL    HW194397   7.007   0.149   9.006 -0.3357  0.9904  0.1889
29520SOL    HW294398   7.096   0.171   9.127  0.6194  0.7248 -0.4538
29521SOL     OW94399   4.482   9.874   2.388 -1.1590 -0.2017  0.4043
29521SOL    HW194400   4.409   9.927   2.357 -2.4926 -0.9960  2.0479
29521SOL    HW294401   4.454   9.841   2.473  0.2030 -2.3553  0.1079
29522SOL     OW94402  12.257   0.520   0.812 -0.3428  0.0588 -0.0119
29522SOL    HW194403  12.242   0.581   0.740  0.7616 -1.6895 -1.8248
29522SOL    HW294404  12.300   0.445   0.771  3.5032  0.3473  2.9942
29523SOL     OW94405   8.020  10.036   4.926  0.2162 -0.1192 -0.1456
29523SOL    HW194406   8.040  10.129   4.929  0.8076 -0.2646  1.0768
29523SOL    HW294407   7.927  10.031   4.947  0.2890  0.1665  0.2589
29524SOL     OW94408   8.929   1.461  11.062  0.0143 -0.4149 -0.7183
29524SOL    HW194409   8.885   1.542  11.088 -0.1522 -0.9618  0.7761
29524SOL    HW294410   8.893   1.443  10.975 -1.3792  0.1184 -0.2943
29525SOL     OW94411   4.153   3.248   4.549  0.1350  0.8551 -0.4243
29525SOL    HW194412   4.202   3.329   4.562  1.7992  0.0742 -1.5106
29525SOL    HW294413   4.143   3.240   4.454 -0.4310  0.0353 -0.3077
29526SOL     OW94414   0.797   1.308   4.307  0.4866 -0.3719  0.7722
29526SOL    HW194415   0.709   1.290   4.273  0.1952  0.7283  0.8836
29526SOL    HW294416   0.856   1.284   4.235 -0.1323  2.3505 -0.8217
29527SOL     OW94417  11.537  10.678   8.827 -0.1267 -0.1316 -0.1239
29527SOL    HW194418  11.487  10.610   8.781  0.3159 -1.2173  0.9537
29527SOL    HW294419  11.599  10.711   8.762  0.2831 -1.4209 -0.4095
29528SOL     OW94420   6.398   0.763   4.735 -0.2122 -0.2144 -0.4324
29528SOL    HW194421   6.446   0.689   4.698 -0.8980 -0.9142  0.0670
29528SOL    HW294422   6.452   0.839   4.712 -0.3038 -0.6670 -2.3545
29529SOL     OW94423  10.562   3.770   7.412  0.5819 -0.3215 -0.7087
29529SOL    HW194424  10.508   3.706   7.459  1.3226  0.1850  0.9096
29529SOL    HW294425  10.553   3.851   7.462 -1.1194  1.2026 -3.2604
29530SOL     OW94426   0.335   4.642   2.433 -0.4182  0.2507 -0.6330
29530SOL    HW194427   0.418   4.632   2.387 -0.0270  1.0477 -0.1407
29530SOL    HW294428   0.274   4.673   2.367 -0.1301  0.3750 -0.8423
29531SOL     OW94429   9.989   7.688   3.419  0.1002 -0.3099 -0.8060
29531SOL    HW194430   9.905   7.649   3.441  1.0492 -0.8095  2.4394
29531SOL    HW294431  10.052   7.616   3.424  0.9922  0.4084 -1.2985
29532SOL     OW94432   8.850   9.370   4.397  0.1141 -0.3047 -0.3734
29532SOL    HW194433   8.859   9.446   4.340 -2.5315 -0.8490 -1.6529
29532SOL    HW294434   8.877   9.402   4.484 -1.5032  2.3137 -0.7345
29533SOL     OW94435   7.659   8.677   9.501  0.4593  0.1164  0.7811
29533SOL    HW194436   7.594   8.642   9.562 -1.4252  1.1646 -0.5455
29533SOL    HW294437   7.646   8.771   9.502  0.2299  0.1598 -1.3661
29534SOL     OW94438   6.258   3.161   7.123 -0.0837  0.4613  0.3819
29534SOL    HW194439   6.176   3.203   7.096 -0.3110  0.1570  0.5817
29534SOL    HW294440   6.232   3.106   7.198  0.2564  0.1727  0.2872
29535SOL     OW94441   1.264   7.775   4.176  0.3493 -0.0690 -0.0098
29535SOL    HW194442   1.352   7.777   4.138 -0.1437 -0.3617 -1.2015
29535SOL    HW294443   1.206   7.768   4.101 -0.5784 -3.4311  0.8637
29536SOL     OW94444   9.752   1.362   5.383 -0.6411 -0.0679 -0.2860
29536SOL    HW194445   9.734   1.330   5.472 -1.7786  1.4169  0.0600
29536SOL    HW294446   9.778   1.453   5.395 -0.1528 -0.0428 -1.4404
29537SOL     OW94447   6.451   3.114   9.919 -0.0991 -0.3734  0.0395
29537SOL    HW194448   6.489   3.045   9.864  0.0025  0.9432 -1.6529
29537SOL    HW294449   6.527   3.154   9.963  0.0325 -0.2992 -0.2508
29538SOL     OW94450   7.400   8.215   8.037  0.4005  0.5541 -0.3470
29538SOL    HW194451   7.444   8.132   8.053 -0.1185  0.2677 -0.3799
29538SOL    HW294452   7.355   8.234   8.120  0.3395  0.6879 -0.4112
29539SOL     OW94453   5.758   4.571   7.077 -0.3092 -0.5010 -0.7941
29539SOL    HW194454   5.681   4.522   7.049 -0.3669 -0.9199  0.0649
29539SOL    HW294455   5.777   4.539   7.165  0.4143  0.1164 -0.7073
29540SOL     OW94456   0.779   3.186   0.617  0.2450 -0.3878  0.3069
29540SOL    HW194457   0.757   3.172   0.524  0.1197 -1.3329  0.4720
29540SOL    HW294458   0.874   3.186   0.619  0.4028  3.1079 -0.3189
29541SOL     OW94459   7.755   4.162  12.173 -0.0113 -0.0647  0.6372
29541SOL    HW194460   7.762   4.086  12.231  0.4487  0.2310  0.9806
29541SOL    HW294461   7.835   4.157  12.119 -1.4786 -1.6144 -1.5707
29542SOL     OW94462  12.222   2.084   5.275  0.1689 -0.3204  0.2305
29542SOL    HW194463  12.229   1.990   5.292 -0.1863 -0.5245 -0.7083
29542SOL    HW294464  12.167   2.117   5.346 -1.7768 -1.2491 -0.7847
29543SOL     OW94465  10.782   2.755   1.961 -0.3768 -0.0823  0.3162
29543SOL    HW194466  10.738   2.804   1.892  0.1523 -1.5458 -1.1242
29543SOL    HW294467  10.869   2.795   1.966 -1.1052  1.4590  1.7312
29544SOL     OW94468   5.537  11.411   6.735 -0.2638 -0.2560 -0.7498
29544SOL    HW194469   5.570  11.428   6.823 -1.4194 -1.5025 -0.0178
29544SOL    HW294470   5.614  11.386   6.684  0.3124 -0.2873  0.1174
29545SOL     OW94471   0.690   6.409   0.396 -0.0573 -0.2662  0.0857
29545SOL    HW194472   0.743   6.424   0.317  1.4881  0.4029  1.2024
29545SOL    HW294473   0.711   6.483   0.453 -2.2560  0.0313  0.5768
29546SOL     OW94474   0.126   8.785   1.646 -0.1832  0.2416  0.3099
29546SOL    HW194475   0.175   8.748   1.719 -0.8971 -0.0520  0.6543
29546SOL    HW294476   0.140   8.879   1.652 -0.0976  0.2024  0.7266
29547SOL     OW94477  11.264  10.006  10.709 -0.1621 -0.0693  0.3692
29547SOL    HW194478  11.303  10.075  10.655 -0.5935  0.3669  0.6097
29547SOL    HW294479  11.302  10.019  10.796 -1.4010  0.8310  0.7893
29548SOL     OW94480   6.998  11.856   3.830  0.4238 -0.0496  0.4152
29548SOL    HW194481   6.977  11.763   3.837 -0.6939  0.1655  0.0766
29548SOL    HW294482   6.980  11.892   3.917 -0.2568  0.0548  0.2388
29549SOL     OW94483  11.709   6.505  11.024  0.2141  0.5287  0.5478
29549SOL    HW194484  11.625   6.486  10.982  1.0304  0.6499 -1.2511
29549SOL    HW294485  11.686   6.554  11.103 -1.4026  0.8209 -0.0654
29550SOL     OW94486   4.098   0.348   6.959 -0.2323 -0.3239  0.5317
29550SOL    HW194487   4.141   0.269   6.990  1.2114  0.1185 -0.2301
29550SOL    HW294488   4.086   0.334   6.865  0.5570  0.5637  0.2816
29551SOL     OW94489   7.177   8.475   3.935 -0.1339 -0.2946  0.6570
29551SOL    HW194490   7.124   8.401   3.963 -0.3851 -1.0202 -1.5150
29551SOL    HW294491   7.262   8.438   3.913 -0.7744 -0.3545 -2.1106
29552SOL     OW94492  12.090   1.568   4.442  0.2129  0.5016  1.1375
29552SOL    HW194493  12.000   1.552   4.472  0.3259 -0.4380  0.9866
29552SOL    HW294494  12.116   1.648   4.489 -0.8660  1.0817  0.7974
29553SOL     OW94495   9.952  10.898   6.286  0.0246 -0.5589 -0.1129
29553SOL    HW194496   9.943  10.984   6.327 -2.0244 -0.9990  0.4487
29553SOL    HW294497  10.015  10.851   6.342 -1.4426 -0.5738  1.6007
29554SOL     OW94498  10.839   9.304  10.796  0.1142  0.1187 -0.1443
29554SOL    HW194499  10.933   9.314  10.782  0.5614  1.7485  3.0324
29554SOL    HW294500  10.800   9.376  10.747  1.0203  2.1305  1.8996
29555SOL     OW94501   1.524   6.265   8.270 -0.1009  0.2833  0.0453
29555SOL    HW194502   1.459   6.196   8.280  0.4034 -0.0870  0.8253
29555SOL    HW294503   1.575   6.240   8.193  1.3246 -1.2635  1.4248
29556SOL     OW94504   7.234  11.265   8.985 -0.0228  0.0759 -0.0952
29556SOL    HW194505   7.207  11.228   8.900  0.6567 -0.0110 -0.2810
29556SOL    HW294506   7.304  11.326   8.963 -1.7454  2.2819  0.0806
29557SOL     OW94507   6.054  10.294   2.832 -0.7645  0.4300  0.4909
29557SOL    HW194508   5.960  10.272   2.836 -1.0950  1.7380  0.1733
29557SOL    HW294509   6.071  10.308   2.739 -0.1408 -0.1910  0.5020
29558SOL     OW94510   5.881   1.762   6.977 -0.2499  0.1570 -0.4141
29558SOL    HW194511   5.824   1.686   6.962  0.8259 -0.5525 -1.0400
29558SOL    HW294512   5.940   1.763   6.902 -0.2618  1.6541 -0.4319
29559SOL     OW94513   5.732   1.919  10.282  0.0876 -0.0473 -0.1761
29559SOL    HW194514   5.776   1.917  10.197  0.3420  1.3907 -0.1011
29559SOL    HW294515   5.804   1.929  10.345  0.0502 -2.5426  0.3846
29560SOL     OW94516   9.294  11.018   2.518  0.2097  0.4885 -0.0583
29560SOL    HW194517   9.308  11.092   2.577  0.5222  0.1661  0.2807
29560SOL    HW294518   9.240  11.053   2.447  0.0463  0.9470  0.2891
29561SOL     OW94519   7.281   1.955   7.717  0.0659 -0.1013 -0.4703
29561SOL    HW194520   7.257   1.870   7.754  0.4662 -0.1380 -0.2966
29561SOL    HW294521   7.307   2.008   7.793 -2.1112  0.8482 -0.3039
29562SOL     OW94522   5.561   0.659   4.711 -0.1445 -0.1656  0.2243
29562SOL    HW194523   5.486   0.718   4.716  0.5557  0.7651 -0.0083
29562SOL    HW294524   5.599   0.675   4.625 -0.2773 -1.3955 -0.0892
29563SOL     OW94525   1.326  10.492   1.360  0.0931 -0.3504 -0.8177
29563SOL    HW194526   1.298  10.447   1.440  0.4147 -0.1217 -0.5730
29563SOL    HW294527   1.407  10.448   1.335  1.3676  1.1958  0.4012
29564SOL     OW94528   3.675   6.086  10.382 -0.0950 -0.0276 -0.1485
29564SOL    HW194529   3.719   6.006  10.411 -0.9519 -0.7894 -0.8812
29564SOL    HW294530   3.703   6.153  10.445  0.1058 -1.0503  0.8844
29565SOL     OW94531   1.835  11.173   0.233  0.4123  0.3883  0.1286
29565SOL    HW194532   1.772  11.130   0.291  1.3919  0.5112  1.3423
29565SOL    HW294533   1.912  11.187   0.289  1.4078  0.4970 -1.2318
29566SOL     OW94534   9.867   0.058   5.617 -0.1783  0.5510  0.2178
29566SOL    HW194535   9.905   0.062   5.529 -1.1224  1.6746 -0.1572
29566SOL    HW294536   9.846  -0.035   5.630 -1.4688  0.5901 -1.3705
29567SOL     OW94537   2.711  11.744  12.077  0.2732 -0.5850 -0.0108
29567SOL    HW194538   2.620  11.729  12.104  0.3251  0.9915  1.2136
29567SOL    HW294539   2.762  11.727  12.156  0.9164 -0.2791 -0.3572
29568SOL     OW94540   1.890   8.531   8.324  0.0596 -0.3021  0.4489
29568SOL    HW194541   1.862   8.580   8.401 -0.2956  0.2252 -0.0084
29568SOL    HW294542   1.826   8.554   8.256  1.5443  0.9019 -0.6198
29569SOL     OW94543   1.176  12.119   0.319  0.5254  0.6531  0.3378
29569SOL    HW194544   1.159  12.213   0.309  0.0147  0.4386 -1.0093
29569SOL    HW294545   1.115  12.077   0.259  0.0929 -0.6123  1.6238
29570SOL     OW94546   2.418   2.159   6.375  0.4437  0.2526 -0.0944
29570SOL    HW194547   2.478   2.091   6.408  1.3739  1.6201  1.1543
29570SOL    HW294548   2.474   2.220   6.328 -0.2178  0.6988 -0.3175
29571SOL     OW94549   6.671   9.577  10.385 -0.0581 -0.1931  0.1081
29571SOL    HW194550   6.587   9.593  10.428 -1.1166  0.3786 -2.0344
29571SOL    HW294551   6.689   9.658  10.337 -0.6183 -1.8270 -3.0994
29572SOL     OW94552   2.798   8.724   2.445 -0.4066 -0.4073  0.0702
29572SOL    HW194553   2.765   8.711   2.534 -1.0783 -0.1210 -0.1338
29572SOL    HW294554   2.731   8.687   2.389 -0.0414 -0.4723 -0.3259
29573SOL     OW94555   3.574   1.510  11.740 -0.5194  0.2832 -0.5567
29573SOL    HW194556   3.554   1.569  11.813 -0.0679  0.6332 -0.7073
29573SOL    HW294557   3.656   1.545  11.703  1.6510 -2.3384  1.4011
29574SOL     OW94558  10.880   9.651   9.029 -0.1243  0.3029 -0.5021
29574SOL    HW194559  10.856   9.590   9.099  0.3131 -0.2536 -0.8295
29574SOL    HW294560  10.947   9.605   8.979  0.9928  1.4745 -0.1351
29575SOL     OW94561   8.755   5.795   4.076 -0.4547 -0.0079 -0.0017
29575SOL    HW194562   8.774   5.758   4.163  1.7626  2.0355  0.4943
29575SOL    HW294563   8.763   5.721   4.016  2.1737 -0.7277  1.1045
29576SOL     OW94564   8.822   7.126   8.116 -0.2649  0.3067 -0.1068
29576SOL    HW194565   8.866   7.210   8.131 -0.9639  0.5412  0.6823
29576SOL    HW294566   8.866   7.064   8.173 -1.3660  0.6873  1.2014
29577SOL     OW94567   4.198   2.757   5.148 -0.4936 -0.0573 -0.3539
29577SOL    HW194568   4.191   2.663   5.161 -0.2228 -0.1229 -0.6523
29577SOL    HW294569   4.146   2.774   5.069  0.6538 -0.1910 -1.1795
29578SOL     OW94570   5.706   8.727   8.966  0.1049 -0.7625  0.1626
29578SOL    HW194571   5.614   8.748   8.953  0.6324  1.6347 -0.1541
29578SOL    HW294572   5.739   8.708   8.878  0.4945  1.2489 -0.1794
29579SOL     OW94573   1.774   5.563   4.405  0.4295  0.2788 -0.3269
29579SOL    HW194574   1.683   5.576   4.432  0.3223  0.8591 -0.9593
29579SOL    HW294575   1.808   5.500   4.468 -1.1033 -1.8386 -1.4729
29580SOL     OW94576   4.544  10.784   6.361  0.5606 -0.3249  0.1563
29580SOL    HW194577   4.614  10.846   6.381  1.1171 -0.1208 -2.0901
29580SOL    HW294578   4.563  10.707   6.415  2.4477 -0.1910 -0.2506
29581SOL     OW94579   4.617   1.600   8.456  0.0003 -0.1236  0.6572
29581SOL    HW194580   4.661   1.593   8.541 -0.8999 -0.5958  1.1107
29581SOL    HW294581   4.524   1.610   8.479 -0.0403  1.9829 -0.2322
29582SOL     OW94582   7.572   0.081   3.089 -0.3987  0.3923 -0.4875
29582SOL    HW194583   7.572   0.013   3.156 -2.9788  0.5509 -0.2370
29582SOL    HW294584   7.659   0.121   3.096  0.6878 -1.9212  0.2863
29583SOL     OW94585   5.286   4.133   7.905  0.1609  0.1504 -0.1145
29583SOL    HW194586   5.369   4.103   7.941  0.1320 -0.2274 -0.3539
29583SOL    HW294587   5.293   4.228   7.904 -0.1949  0.2158  1.7181
29584SOL     OW94588  11.701   3.134  11.409  0.1203 -0.0819  0.2826
29584SOL    HW194589  11.764   3.066  11.436 -0.0190 -0.9272 -1.4171
29584SOL    HW294590  11.755   3.202  11.370  0.1350  0.1072  0.6286
29585SOL     OW94591   8.380   7.450   0.977  0.4410 -0.4704  0.2764
29585SOL    HW194592   8.418   7.365   1.001  0.5487 -0.3385  0.5686
29585SOL    HW294593   8.393   7.455   0.882  0.1661 -0.9116  0.2154
29586SOL     OW94594   8.146  10.340   4.930 -0.3700 -0.4124  0.3060
29586SOL    HW194595   8.176  10.342   5.021 -0.1273  0.1238  0.2199
29586SOL    HW294596   8.211  10.287   4.884 -1.2545 -1.8985  0.6985
29587SOL     OW94597   9.778   6.185   0.303 -0.1768 -0.4596  0.6292
29587SOL    HW194598   9.866   6.171   0.270 -0.2667 -1.2330  0.6979
29587SOL    HW294599   9.729   6.219   0.228  0.3194  0.5548  0.7543
29588SOL     OW94600   9.284   2.193   4.247 -0.4937 -0.4169 -0.0767
29588SOL    HW194601   9.223   2.260   4.216 -0.0682 -0.2386 -0.5351
29588SOL    HW294602   9.288   2.128   4.176  0.6180  0.0815 -0.4931
29589SOL     OW94603   5.721   6.767   2.373 -0.5553 -0.0059  0.2190
29589SOL    HW194604   5.777   6.690   2.364 -0.4836  0.0638  0.0671
29589SOL    HW294605   5.777   6.831   2.417  0.4090  1.0049 -2.2928
29590SOL     OW94606   0.095   2.807   6.514  0.1638 -0.2690  0.5847
29590SOL    HW194607   0.181   2.785   6.477  0.0286  0.3344 -0.1227
29590SOL    HW294608   0.114   2.838   6.602  0.9007  1.5700 -0.1622
29591SOL     OW94609   4.763  11.488   3.657  0.2439 -0.3471 -0.0794
29591SOL    HW194610   4.823  11.546   3.610  0.2175 -0.3621 -0.1323
29591SOL    HW294611   4.800  11.480   3.745  1.2334 -1.7002 -0.5941
29592SOL     OW94612   2.135   7.983   7.825 -0.1862 -0.8818 -0.1818
29592SOL    HW194613   2.170   7.902   7.787  1.6453 -2.3440  4.0230
29592SOL    HW294614   2.212   8.038   7.839 -0.9538  0.1122  0.2350
29593SOL     OW94615   6.440   6.154   9.318  0.0952 -0.3949  0.0724
29593SOL    HW194616   6.455   6.103   9.238  0.4011  0.2947 -0.3221
29593SOL    HW294617   6.412   6.240   9.286 -0.5823 -0.3695  0.7330
29594SOL     OW94618   1.612   2.110   1.104 -0.4689 -0.2292  0.2511
29594SOL    HW194619   1.562   2.187   1.130 -1.1352  0.8023 -3.4622
29594SOL    HW294620   1.548   2.039   1.105 -0.7274  0.0048  0.3401
29595SOL     OW94621   4.804   7.688   8.714 -0.1034 -0.2319 -0.1430
29595SOL    HW194622   4.733   7.698   8.778  0.5550 -0.5944  0.6658
29595SOL    HW294623   4.884   7.697   8.766  0.4492  0.1446 -1.0407
29596SOL     OW94624  10.023   1.927   8.085 -0.0611 -0.4766 -0.4674
29596SOL    HW194625  10.102   1.873   8.094  1.0306  1.1879  0.7756
29596SOL    HW294626  10.044   1.988   8.014  0.2350  0.6248  0.5236
29597SOL     OW94627  11.541  11.162   8.479  0.4666 -0.3957 -0.1133
29597SOL    HW194628  11.446  11.161   8.485  0.5681 -0.6536  3.0526
29597SOL    HW294629  11.561  11.116   8.397 -2.1091  1.2481 -1.7825
29598SOL     OW94630   5.865   2.464   9.685 -0.5950  0.2790 -0.4522
29598SOL    HW194631   5.918   2.543   9.675 -0.6740  0.3070 -0.6450
29598SOL    HW294632   5.922   2.403   9.732 -0.8021  0.7218  0.4062
29599SOL     OW94633   3.009   5.953   3.116  0.2622  0.2275 -0.0784
29599SOL    HW194634   3.092   5.982   3.079 -0.3817 -0.9899 -2.6945
29599SOL    HW294635   2.951   5.941   3.041 -1.8382 -0.4305  1.5202
29600SOL     OW94636   4.764   3.438   0.670  0.8769 -0.0882  0.2639
29600SOL    HW194637   4.729   3.518   0.709  1.0249 -0.4245  1.1033
29600SOL    HW294638   4.698   3.371   0.689  0.5349 -0.0871 -0.8281
29601SOL     OW94639   2.096   8.577   4.728 -0.6363  0.1901 -0.0093
29601SOL    HW194640   2.139   8.492   4.723 -1.6650 -0.2867 -2.3965
29601SOL    HW294641   2.169   8.640   4.730  0.1637 -0.6879 -0.4565
29602SOL     OW94642   7.810   0.760   8.092 -0.2399  0.7521 -0.1265
29602SOL    HW194643   7.900   0.758   8.123  0.0782 -0.1757 -1.0952
29602SOL    HW294644   7.813   0.726   8.003 -1.3592  1.9965 -0.6767
29603SOL     OW94645   5.987   2.614   0.450  0.2776  0.1949  0.2892
29603SOL    HW194646   6.043   2.635   0.525 -0.9689  0.6639  1.1243
29603SOL    HW294647   5.962   2.523   0.464  0.1503  0.2433  0.3817
29604SOL     OW94648   6.389   2.678   8.355 -0.0436  0.1892 -0.7436
29604SOL    HW194649   6.372   2.721   8.438  1.3432  1.0315 -0.8765
29604SOL    HW294650   6.335   2.599   8.358 -2.5095  1.7682 -0.4085
29605SOL     OW94651  10.926   0.762   6.089  0.6678  0.1701 -0.0649
29605SOL    HW194652  10.853   0.789   6.145  0.5654  0.8981 -0.5414
29605SOL    HW294653  10.933   0.831   6.024 -0.3882 -1.5034 -2.0864
29606SOL     OW94654   2.759   9.050  10.981 -0.2600  0.2707  0.4434
29606SOL    HW194655   2.848   9.020  10.998 -1.3679 -2.9900  1.2785
29606SOL    HW294656   2.716   9.047  11.066 -0.9591  2.9343  0.2630
29607SOL     OW94657   2.836   8.124   4.649  0.5080 -0.3290 -0.2792
29607SOL    HW194658   2.870   8.036   4.631  1.0210 -0.4155  0.9990
29607SOL    HW294659   2.869   8.178   4.577  1.2514 -0.9320 -0.4016
29608SOL     OW94660   2.241   9.327   8.541 -0.2752  0.1808  0.5081
29608SOL    HW194661   2.253   9.394   8.609 -0.7426 -1.0517  1.8584
29608SOL    HW294662   2.153   9.342   8.508 -0.0828  0.7265  0.2316
29609SOL     OW94663  10.133   7.067   3.148  0.3444  0.5649 -0.3451
29609SOL    HW194664  10.223   7.045   3.171 -0.1498 -1.4529 -0.1483
29609SOL    HW294665  10.079   7.013   3.206 -0.9605  0.3105 -1.7312
29610SOL     OW94666  11.915   6.924   3.184  0.5768 -0.0294 -0.5211
29610SOL    HW194667  11.828   6.883   3.191  1.6695 -2.3562  0.2393
29610SOL    HW294668  11.950   6.922   3.273  1.0747  1.8420 -0.6184
29611SOL     OW94669   4.925   3.491  10.327 -0.0420  0.2178  0.7634
29611SOL    HW194670   4.961   3.546  10.397 -0.5411  1.2150  0.2537
29611SOL    HW294671   4.831   3.508  10.330 -0.2228 -0.7392  0.6977
29612SOL     OW94672   3.071   8.300   2.969 -0.2714 -0.1438 -0.4288
29612SOL    HW194673   2.994   8.315   2.914  0.1105  0.3842 -0.8316
29612SOL    HW294674   3.039   8.314   3.058 -1.1052 -1.8561 -0.4115
29613SOL     OW94675   3.335   3.574   3.231 -0.5963  0.2776 -0.3096
29613SOL    HW194676   3.309   3.579   3.323  1.1133  0.9824  0.1784
29613SOL    HW294677   3.260   3.608   3.183 -0.8009  1.7775  0.9798
29614SOL     OW94678   7.680   5.300   4.305 -0.3474  0.1085  0.0208
29614SOL    HW194679   7.711   5.390   4.308 -0.0251 -0.0233  1.1109
29614SOL    HW294680   7.746   5.250   4.352 -0.8283 -0.6027 -0.0392
29615SOL     OW94681   4.464   3.388   4.646 -0.0106 -0.4026 -0.5036
29615SOL    HW194682   4.456   3.460   4.583  1.9006  2.1902  1.9669
29615SOL    HW294683   4.391   3.401   4.707 -0.5965 -1.5892 -0.9235
29616SOL     OW94684   2.969   7.926   5.110  0.0822  0.0043 -0.1242
29616SOL    HW194685   2.876   7.904   5.106 -0.0457  0.6355 -1.0845
29616SOL    HW294686   2.997   7.898   5.197 -1.1297  0.2749  0.3714
29617SOL     OW94687  10.939   0.667   3.584  0.2256  0.3987 -0.0891
29617SOL    HW194688  10.966   0.667   3.492 -0.3912  0.8207 -0.2751
29617SOL    HW294689  10.864   0.726   3.587 -0.1000 -0.0378  0.5863
29618SOL     OW94690  12.283  10.949   0.598  0.1897 -0.2547 -0.4113
29618SOL    HW194691  12.221  10.878   0.614  0.9156 -1.1877 -1.5901
29618SOL    HW294692  12.369  10.911   0.616  0.4644  1.0119  1.1679
29619SOL     OW94693   0.030   3.297   4.767  0.5181  0.3852  0.3243
29619SOL    HW194694   0.045   3.353   4.844 -4.1227 -0.3173  2.0707
29619SOL    HW294695   0.096   3.228   4.775  0.4299  0.4888  3.6894
29620SOL     OW94696   8.225   7.658   7.749 -0.0622 -0.3272 -0.8989
29620SOL    HW194697   8.197   7.741   7.710  0.6289  0.1969 -0.3126
29620SOL    HW294698   8.146   7.621   7.787 -0.0985  0.8758  0.2683
29621SOL     OW94699   6.546   2.930   4.245 -0.6110  0.6879 -0.1416
29621SOL    HW194700   6.495   2.852   4.262  0.0888  0.5562  1.5883
29621SOL    HW294701   6.491   2.983   4.187 -1.4639 -0.6773 -0.6193
29622SOL     OW94702  11.953   4.462   8.841 -0.3361  0.2402 -0.1633
29622SOL    HW194703  11.960   4.415   8.924 -0.4116 -0.3138 -0.4659
29622SOL    HW294704  11.942   4.554   8.866  0.1869  0.1480  0.4306
29623SOL     OW94705  11.677   8.870   7.529 -0.1054  0.1118  0.2347
29623SOL    HW194706  11.726   8.822   7.596  2.8141  1.8901 -0.4670
29623SOL    HW294707  11.632   8.939   7.578  0.3890  0.1769  0.6097
29624SOL     OW94708   0.464   0.200   9.104 -0.2123  0.0890 -0.0179
29624SOL    HW194709   0.495   0.116   9.071  2.3574  1.2905 -0.9142
29624SOL    HW294710   0.441   0.250   9.026  0.3758  0.9627  0.3507
29625SOL     OW94711  10.048  11.710  10.301 -0.2274  0.1454  0.1631
29625SOL    HW194712  10.058  11.676  10.390 -0.5062 -2.0574 -0.5832
29625SOL    HW294713  10.003  11.640  10.253 -0.6976  1.5373 -1.5652
29626SOL     OW94714   0.737   7.890   9.653  0.1279  0.4545 -0.0745
29626SOL    HW194715   0.663   7.861   9.707 -0.0766  0.2674 -0.4561
29626SOL    HW294716   0.779   7.958   9.706  0.1208  0.0461  0.4672
29627SOL     OW94717   6.375   2.629   6.392  0.3067 -0.2593 -0.7270
29627SOL    HW194718   6.297   2.595   6.348 -1.5074  2.7504 -0.1025
29627SOL    HW294719   6.343   2.657   6.477  2.2692  0.3673 -0.1689
29628SOL     OW94720   6.312   2.883  11.149 -0.0579  0.4516 -0.5789
29628SOL    HW194721   6.277   2.958  11.197  0.6101  0.3055  0.1641
29628SOL    HW294722   6.309   2.811  11.212  0.6863  0.2196 -0.7976
29629SOL     OW94723   6.998   4.299   2.570  0.2755 -0.0892  0.2091
29629SOL    HW194724   6.950   4.216   2.563  1.1005 -0.4624 -1.8977
29629SOL    HW294725   6.933   4.360   2.604 -1.3826 -0.8649 -1.3573
29630SOL     OW94726   5.325   2.676   1.457 -0.3653  0.5307 -0.2558
29630SOL    HW194727   5.410   2.703   1.424  0.5376  0.2440  1.7106
29630SOL    HW294728   5.267   2.750   1.438  0.5751  1.1853 -0.6517
29631SOL     OW94729   7.936   8.409  10.841 -0.1210 -0.0944  0.1809
29631SOL    HW194730   8.000   8.368  10.783 -1.1139  0.4623 -1.3913
29631SOL    HW294731   7.876   8.339  10.864 -0.0662 -0.1975  0.0131
29632SOL     OW94732  10.199   9.105   3.417  0.4529  0.1843 -0.3382
29632SOL    HW194733  10.168   9.060   3.338  2.0888 -0.1687 -0.8298
29632SOL    HW294734  10.130   9.167   3.438  0.4602  1.1497 -2.7654
29633SOL     OW94735  11.419  11.096   3.029  0.0099  0.4726  0.2201
29633SOL    HW194736  11.419  11.001   3.043  0.7406  0.4190 -0.0959
29633SOL    HW294737  11.482  11.109   2.958 -1.0930  1.0657 -0.6857
29634SOL     OW94738   1.156   4.295   5.121 -0.3599  0.1895  0.0105
29634SOL    HW194739   1.128   4.359   5.188  0.3559  3.7147 -2.7333
29634SOL    HW294740   1.084   4.232   5.118 -3.1633  3.0526  0.3398
29635SOL     OW94741   6.489   0.639   3.722  0.1047  0.1252 -0.8105
29635SOL    HW194742   6.454   0.563   3.675  0.2373 -0.8095  0.5206
29635SOL    HW294743   6.432   0.649   3.797  1.2362  0.0949  0.0888
29636SOL     OW94744   6.505   3.264   1.503 -0.0642  0.0460 -0.6076
29636SOL    HW194745   6.490   3.183   1.552 -1.1275 -0.5815 -1.9070
29636SOL    HW294746   6.575   3.308   1.551 -0.6458 -0.8085  1.1201
29637SOL     OW94747  11.638   5.608   6.335 -0.2995 -0.2724 -0.1001
29637SOL    HW194748  11.609   5.529   6.380 -0.9239  0.1636  0.2615
29637SOL    HW294749  11.713   5.638   6.387 -0.9153  0.1389  0.5749
29638SOL     OW94750   8.365   1.861  12.178  0.2332  0.2485 -0.2670
29638SOL    HW194751   8.359   1.922  12.251  1.9924  0.8207 -0.5610
29638SOL    HW294752   8.452   1.875  12.142  0.1150 -1.3945 -1.2859
29639SOL     OW94753   6.355   4.658   6.490  0.9069 -0.3478  0.2546
29639SOL    HW194754   6.261   4.673   6.500  0.8454 -1.2498  1.2102
29639SOL    HW294755   6.396   4.724   6.545  0.9058  0.9551 -1.2492
29640SOL     OW94756  10.575   4.933   0.855  0.2096 -0.3221 -0.6662
29640SOL    HW194757  10.620   4.912   0.774 -0.2846  0.4535 -1.1639
29640SOL    HW294758  10.526   5.013   0.835  2.6349  1.8502  1.3054
29641SOL     OW94759   4.425   0.604   6.428  0.3908 -0.1400 -0.3476
29641SOL    HW194760   4.423   0.554   6.510  0.2937  0.3704 -0.0359
29641SOL    HW294761   4.362   0.560   6.372 -2.2234  1.5452  1.0617
29642SOL     OW94762   2.007   7.168  12.131  0.2482  0.1533  0.1016
29642SOL    HW194763   2.041   7.219  12.058  2.0059 -0.2469  0.5899
29642SOL    HW294764   2.038   7.079  12.114 -1.4151 -0.4539  0.0839
29643SOL     OW94765   7.286  11.491   5.883 -0.5587 -0.7438 -0.6474
29643SOL    HW194766   7.339  11.486   5.803  1.0533 -0.5081  0.3641
29643SOL    HW294767   7.202  11.526   5.853  0.6475  1.2435 -1.9891
29644SOL     OW94768   4.707   7.661  11.670 -0.0054  0.5081  0.3383
29644SOL    HW194769   4.681   7.638  11.580 -0.3893  0.4223  0.4671
29644SOL    HW294770   4.710   7.756  11.670  2.1767  0.4840 -0.3586
29645SOL     OW94771   6.849   8.324  11.194 -0.0898 -0.5533 -0.6317
29645SOL    HW194772   6.858   8.261  11.122  3.2196  0.7737 -1.5461
29645SOL    HW294773   6.868   8.409  11.155  0.0417  0.4509  1.4708
29646SOL     OW94774   0.645   3.704   2.224  0.3267  0.4202 -0.5400
29646SOL    HW194775   0.733   3.732   2.249 -0.1024  0.4342  1.0165
29646SOL    HW294776   0.660   3.636   2.158  1.5197  0.0585  0.0696
29647SOL     OW94777  11.405   9.156   9.161 -0.2155  0.1475  0.4096
29647SOL    HW194778  11.351   9.218   9.113 -1.2802 -0.6345  0.5432
29647SOL    HW294779  11.394   9.073   9.114 -0.4043 -0.3795  1.3584
29648SOL     OW94780  10.307   4.215  11.137  0.1154  0.2873 -0.2285
29648SOL    HW194781  10.315   4.138  11.081 -2.2041  0.7264 -1.2935
29648SOL    HW294782  10.392   4.259  11.129  0.3134 -0.3613 -2.3858
29649SOL     OW94783   8.312   3.954  11.399 -0.2597  0.1320  0.2751
29649SOL    HW194784   8.316   3.958  11.303  2.3706  1.6120  0.3716
29649SOL    HW294785   8.255   4.027  11.424  1.5130  1.7250 -0.1198
29650SOL     OW94786   0.708  11.238   6.607 -0.2067  0.1378  0.1148
29650SOL    HW194787   0.782  11.242   6.668 -0.0247  1.1223 -0.1615
29650SOL    HW294788   0.731  11.168   6.546 -0.5820 -1.1626  1.4049
29651SOL     OW94789   6.301   8.063   7.524 -0.2007  0.1444  0.3985
29651SOL    HW194790   6.322   8.020   7.441  0.4835  0.2702  0.5011
29651SOL    HW294791   6.335   8.152   7.514  0.1558  0.0723  0.9175
29652SOL     OW94792  11.268  10.173   8.757 -0.9114  0.3112  1.0208
29652SOL    HW194793  11.199  10.209   8.812 -0.8624  0.6957  0.8328
29652SOL    HW294794  11.318  10.116   8.816 -1.9642 -0.7514  0.9283
29653SOL     OW94795   5.742  11.117   0.892  0.2886  0.2149  0.0143
29653SOL    HW194796   5.675  11.170   0.936 -0.4568  0.3189 -1.2011
29653SOL    HW294797   5.737  11.144   0.800  1.7945 -0.0129 -0.1454
29654SOL     OW94798   2.146   5.398  10.514 -0.1383 -0.0978  0.2848
29654SOL    HW194799   2.119   5.467  10.453 -2.4095 -2.6593 -1.8485
29654SOL    HW294800   2.119   5.430  10.600 -2.3986  1.1167 -0.8065
29655SOL     OW94801   0.857   4.806   2.950 -0.7170  0.0562  0.5929
29655SOL    HW194802   0.864   4.780   2.858 -0.6545  1.1279  0.2785
29655SOL    HW294803   0.785   4.752   2.985  0.9316 -2.2512  0.6341
29656SOL     OW94804   2.560   8.144   0.934 -0.3338  0.3890  0.6681
29656SOL    HW194805   2.587   8.055   0.958 -2.5083 -0.9837 -1.5403
29656SOL    HW294806   2.616   8.167   0.860 -0.3551  0.5093  0.6895
29657SOL     OW94807   0.328   3.516   6.174  0.2086 -1.0534 -0.1416
29657SOL    HW194808   0.392   3.491   6.107 -0.4712 -0.8308 -0.9019
29657SOL    HW294809   0.318   3.611   6.163 -1.4147 -1.2980 -1.1344
29658SOL     OW94810  10.769  11.040   5.929  0.8332 -0.0006 -0.4092
29658SOL    HW194811  10.775  11.117   5.986  1.5830  0.0892 -0.6092
29658SOL    HW294812  10.855  10.998   5.934  0.1291 -1.4312  0.5191
29659SOL     OW94813  11.942   8.934  11.515  0.0731  0.5057  0.8210
29659SOL    HW194814  12.019   8.897  11.558 -0.8373 -0.0034  2.0512
29659SOL    HW294815  11.905   8.995  11.578 -0.5840  0.6898  0.2765
29660SOL     OW94816   8.707   9.393   9.582  0.2697 -0.7079  0.0723
29660SOL    HW194817   8.644   9.351   9.524 -0.2330 -1.7047  1.3169
29660SOL    HW294818   8.732   9.326   9.644  2.9158 -0.4929 -0.6151
29661SOL     OW94819   6.550   5.033  10.328 -0.0539  0.1032 -0.6320
29661SOL    HW194820   6.510   5.037  10.241 -0.3532  0.4209 -0.4834
29661SOL    HW294821   6.615   4.963  10.322 -1.1525 -0.9450 -0.6628
29662SOL     OW94822   9.147   9.409   4.341  0.1762  0.6801  0.0625
29662SOL    HW194823   9.153   9.362   4.424  0.3401  1.8367  0.7193
29662SOL    HW294824   9.169   9.500   4.362  1.0164  0.8534 -1.3871
29663SOL     OW94825   9.226  11.710   2.677 -0.1096 -0.3630  0.3817
29663SOL    HW194826   9.246  11.680   2.766  0.6187 -0.8011  0.0767
29663SOL    HW294827   9.146  11.664   2.654  0.0688 -0.7659  0.5606
29664SOL     OW94828  12.095   8.888   6.483 -0.2789 -0.1608  0.1105
29664SOL    HW194829  12.109   8.808   6.533  0.4123 -1.0253 -1.3890
29664SOL    HW294830  12.183   8.924   6.469 -0.5089  0.3838  0.0344
29665SOL     OW94831   6.273   4.478   7.320 -0.0519  1.0362  0.6523
29665SOL    HW194832   6.257   4.436   7.236  4.5569 -0.4556  0.2387
29665SOL    HW294833   6.200   4.449   7.375 -1.6326 -0.4123 -1.9789
29666SOL     OW94834   7.654   3.761  11.616  0.0259 -0.0403  0.3213
29666SOL    HW194835   7.687   3.842  11.577  2.1719 -0.3660  1.3008
29666SOL    HW294836   7.589   3.790  11.680  1.3301  1.0148  1.2244
29667SOL     OW94837   9.623   6.964   3.755 -0.3175 -0.2627 -0.2748
29667SOL    HW194838   9.594   6.934   3.669 -0.0840 -0.6858 -0.2120
29667SOL    HW294839   9.550   6.945   3.813  0.1944 -1.6637 -0.0497
29668SOL     OW94840   0.049  11.580   6.947  0.5635  0.8286  0.0477
29668SOL    HW194841   0.099  11.580   7.028  0.1038  0.7061  0.3357
29668SOL    HW294842   0.002  11.497   6.948  1.2810  0.3884 -0.8066
29669SOL     OW94843   1.595   3.345   8.450  0.7043 -0.0199 -0.3435
29669SOL    HW194844   1.513   3.394   8.441  0.6987  0.7591  2.7422
29669SOL    HW294845   1.601   3.326   8.544  4.2021  0.1797 -0.4017
29670SOL     OW94846  12.298   0.554  10.024  0.3195 -0.2229  0.3056
29670SOL    HW194847  12.220   0.610  10.020  0.6952  0.4041  1.3478
29670SOL    HW294848  12.362   0.606  10.073  0.7856 -1.4378  1.0157
29671SOL     OW94849   7.868   7.363   8.110 -0.0813 -0.2418 -0.2183
29671SOL    HW194850   7.908   7.446   8.138  0.8871 -0.5553 -0.6255
29671SOL    HW294851   7.830   7.326   8.190 -1.4071  1.0526 -0.2091
29672SOL     OW94852  11.801   6.205   2.212 -0.2286  0.0597 -0.2587
29672SOL    HW194853  11.738   6.149   2.166  0.5754  0.5942 -2.0813
29672SOL    HW294854  11.747   6.273   2.252 -0.8924  0.1689 -1.2882
29673SOL     OW94855   1.511   9.574   6.583 -0.5360 -0.1972 -0.1870
29673SOL    HW194856   1.499   9.496   6.530 -1.2909  0.9207 -1.7056
29673SOL    HW294857   1.425   9.615   6.588 -0.5015 -0.2350  1.9152
29674SOL     OW94858   5.253  10.993   9.776  0.1285  0.1877  1.3473
29674SOL    HW194859   5.301  10.958   9.701 -1.0283 -0.9409  1.1045
29674SOL    HW294860   5.227  11.081   9.749 -1.2793 -0.6154 -0.0719
29675SOL     OW94861   1.795   6.876   8.191 -0.3905  0.1462 -0.3844
29675SOL    HW194862   1.875   6.868   8.140 -0.0638  1.5327 -0.1454
29675SOL    HW294863   1.742   6.940   8.143 -1.0223 -0.1969 -0.1501
29676SOL     OW94864   7.099  11.886   0.355  0.9471 -0.0751  0.0425
29676SOL    HW194865   7.049  11.814   0.395 -1.0105  1.7464  1.1054
29676SOL    HW294866   7.060  11.896   0.268  0.7204  0.1634  0.1712
29677SOL     OW94867  10.338   5.552   5.657 -0.6559 -0.3663  0.3943
29677SOL    HW194868  10.296   5.508   5.731 -2.7131 -0.1332 -0.5801
29677SOL    HW294869  10.320   5.496   5.582  1.5715 -0.6908  0.0548
29678SOL     OW94870   3.329  10.106   6.195  0.4933 -0.0101  0.3334
29678SOL    HW194871   3.378  10.066   6.268  4.0138 -0.0002 -1.8064
29678SOL    HW294872   3.332  10.041   6.125 -0.9016  0.8467 -0.5835
29679SOL     OW94873   5.836   7.562  10.419 -0.1684 -0.6679  0.4368
29679SOL    HW194874   5.818   7.507  10.342 -1.4527 -2.5050  1.9549
29679SOL    HW294875   5.929   7.582  10.413 -0.4399  0.1606 -2.1332
29680SOL     OW94876   0.826   8.482   7.931 -0.0177  0.2280  0.0804
29680SOL    HW194877   0.921   8.473   7.924  0.1189  0.4541  1.4061
29680SOL    HW294878   0.811   8.511   8.021 -1.3509  0.1644 -0.0995
29681SOL     OW94879   3.938   0.113   0.422 -0.5882 -0.0483  0.5272
29681SOL    HW194880   3.978   0.169   0.355 -0.5756 -0.5277  0.1213
29681SOL    HW294881   3.861   0.161   0.452 -1.0192 -0.1603 -0.3779
29682SOL     OW94882   9.435   8.967   7.079 -0.4154 -0.1781  0.5777
29682SOL    HW194883   9.394   9.020   7.011 -1.0934  1.0163  1.8514
29682SOL    HW294884   9.442   9.026   7.154  0.0778 -1.5072  1.6229
29683SOL     OW94885   9.161   8.244  12.018  0.1128  0.4614 -0.0619
29683SOL    HW194886   9.232   8.256  11.956 -0.0115 -0.1130 -0.3203
29683SOL    HW294887   9.204   8.236  12.103  0.2364  2.1471  0.0661
29684SOL     OW94888  10.465   1.379   3.106 -0.0407 -0.3295  0.5049
29684SOL    HW194889  10.423   1.300   3.073 -1.6595  0.5100  0.4568
29684SOL    HW294890  10.546   1.386   3.055 -0.7838 -0.9355 -0.8113
29685SOL     OW94891   5.665   2.891   7.417  0.4464  0.5148  0.2125
29685SOL    HW194892   5.703   2.974   7.443 -0.0317  1.2352 -1.3020
29685SOL    HW294893   5.600   2.913   7.351 -0.9233 -0.9069  1.0039
29686SOL     OW94894  12.272   1.016   9.780  0.6274  0.5037 -0.3973
29686SOL    HW194895  12.344   0.980   9.832  0.7213  0.5232 -0.5147
29686SOL    HW294896  12.268   0.960   9.702  0.4458  0.4360 -0.3421
29687SOL     OW94897  11.742   6.009  10.946  0.2004  0.1491 -0.0348
29687SOL    HW194898  11.806   6.079  10.954  1.7388 -1.1960  0.0714
29687SOL    HW294899  11.762   5.967  10.862 -0.8115 -0.0477 -0.1935
29688SOL     OW94900  10.881  10.758   6.136  0.2875  0.1943 -0.2270
29688SOL    HW194901  10.930  10.816   6.194 -1.4478  0.8914  0.5967
29688SOL    HW294902  10.949  10.713   6.085  1.7182  2.9744 -0.9855
29689SOL     OW94903  10.566  11.986   9.729 -0.5027  0.5330  0.1839
29689SOL    HW194904  10.554  11.928   9.804 -1.6625  0.7560  0.1870
29689SOL    HW294905  10.602  11.930   9.660 -3.6307 -0.7862 -0.5455
29690SOL     OW94906   0.795   5.424  12.271  0.1084  0.5054  0.3347
29690SOL    HW194907   0.722   5.410  12.211 -0.1256  0.4216  0.6340
29690SOL    HW294908   0.837   5.338  12.279 -0.2446  0.3682  0.7795
29691SOL     OW94909  12.154  12.018   3.496 -0.4321  0.1143 -0.2162
29691SOL    HW194910  12.073  11.973   3.474 -1.6667  2.5447 -1.0844
29691SOL    HW294911  12.200  12.027   3.412 -0.2401  0.5051 -0.0731
29692SOL     OW94912  11.389   3.419   2.278  0.1717 -0.4219 -0.3831
29692SOL    HW194913  11.382   3.497   2.333 -0.4807  1.4716 -2.9653
29692SOL    HW294914  11.329   3.436   2.205 -0.9564 -3.9420 -0.4538
29693SOL     OW94915   5.443   7.615  11.727  0.2935  0.3899  0.2174
29693SOL    HW194916   5.460   7.560  11.804  1.5480  1.9029  1.0798
29693SOL    HW294917   5.525   7.612  11.677 -0.7667 -1.2132 -1.5337
29694SOL     OW94918   0.230   6.207   3.036  0.3255  0.1034 -0.5161
29694SOL    HW194919   0.297   6.264   3.000  1.1804 -1.4728 -1.5035
29694SOL    HW294920   0.184   6.172   2.959 -2.1904  1.7157  0.1241
29695SOL     OW94921   6.550   8.339  11.230 -0.0753 -0.0600 -0.1248
29695SOL    HW194922   6.615   8.283  11.274  0.7310 -0.2866 -1.5602
29695SOL    HW294923   6.590   8.360  11.146 -0.8263  1.8361 -0.0462
29696SOL     OW94924   1.032  11.711   8.449  0.0429 -0.3268 -0.6329
29696SOL    HW194925   0.992  11.745   8.529 -0.3754 -0.0715 -0.9440
29696SOL    HW294926   1.092  11.780   8.420 -0.3656 -0.1004 -0.9441
29697SOL     OW94927   9.932   3.163  10.329 -0.2681 -0.4418  0.1272
29697SOL    HW194928   9.941   3.158  10.424  1.7978  0.3354  0.0271
29697SOL    HW294929   9.853   3.216  10.315 -0.5854 -0.5527  1.3930
29698SOL     OW94930   9.158   4.370  11.619  0.0959 -0.2830 -0.4284
29698SOL    HW194931   9.134   4.382  11.711  0.3798 -0.6739 -0.3020
29698SOL    HW294932   9.252   4.390  11.616  0.2999 -1.2187 -0.4526
29699SOL     OW94933   0.740   2.803   5.630  0.2952 -0.4243 -0.5457
29699SOL    HW194934   0.697   2.879   5.590 -0.1909 -1.1342 -1.3995
29699SOL    HW294935   0.677   2.769   5.692  1.1896  0.8954  1.1564
29700SOL     OW94936  10.909   2.548   8.851 -0.8006 -0.2623 -0.1954
29700SOL    HW194937  10.944   2.514   8.933 -1.4638  0.9772  0.6317
29700SOL    HW294938  10.986   2.560   8.795 -0.0690  0.7649  0.9656
29701SOL     OW94939  11.481   1.832   4.184  0.4146  0.3362  0.1980
29701SOL    HW194940  11.460   1.784   4.104 -0.6614 -1.0322  1.2548
29701SOL    HW294941  11.508   1.765   4.246 -0.1101  1.1919  1.3980
29702SOL     OW94942   8.693  10.398   5.041 -0.1356  0.1001 -0.0610
29702SOL    HW194943   8.782  10.394   5.076 -0.5792 -2.0153  0.9929
29702SOL    HW294944   8.670  10.306   5.025 -1.2926  0.7524 -2.5604
29703SOL     OW94945   0.911   0.197   6.519  0.0200 -0.1588  0.3586
29703SOL    HW194946   0.877   0.275   6.477  1.1404  0.1122 -0.0894
29703SOL    HW294947   0.928   0.136   6.447  0.7321 -0.1787  0.5364
29704SOL     OW94948   1.919   5.395   1.365 -0.1730 -0.0773  0.2788
29704SOL    HW194949   1.993   5.439   1.406  0.4852 -0.6215 -0.3007
29704SOL    HW294950   1.951   5.368   1.279 -0.9114 -0.6996  0.1818
29705SOL     OW94951   8.615   6.329   4.411 -0.0903  0.7305  0.2850
29705SOL    HW194952   8.546   6.346   4.476  0.4099  1.6942  0.5891
29705SOL    HW294953   8.696   6.336   4.461  0.2504 -0.0164 -0.1497
29706SOL     OW94954   0.218   4.157   2.899  0.4093  0.1297  0.2217
29706SOL    HW194955   0.205   4.105   2.978 -1.1987  0.7502  0.3916
29706SOL    HW294956   0.219   4.248   2.930  3.5865  0.3116 -0.0106
29707SOL     OW94957   3.870   4.993   2.221 -0.4707 -0.4344  0.3046
29707SOL    HW194958   3.928   5.020   2.150  1.3139  0.0337  1.8476
29707SOL    HW294959   3.929   4.952   2.285 -2.1507 -1.7642  1.0850
29708SOL     OW94960   1.530   2.818  12.163 -0.2220  0.0376 -0.5982
29708SOL    HW194961   1.494   2.843  12.078 -0.6685 -0.7066 -0.6355
29708SOL    HW294962   1.579   2.738  12.145 -0.1375 -0.0029 -0.1954
29709SOL     OW94963   7.924   0.829  10.690  0.3695 -0.6389  0.0770
29709SOL    HW194964   7.852   0.853  10.632  0.1494  0.1123  0.6415
29709SOL    HW294965   8.002   0.864  10.649  0.3587 -1.0649 -0.3118
29710SOL     OW94966   7.603  11.580   4.499 -0.2395 -0.2673  0.0838
29710SOL    HW194967   7.650  11.555   4.578  1.3843  1.0152 -0.4037
29710SOL    HW294968   7.652  11.537   4.428 -0.4046  0.2678 -0.3599
29711SOL     OW94969   4.196   4.032   9.745 -0.3345 -0.2031 -0.2960
29711SOL    HW194970   4.101   4.030   9.746 -0.3591  0.4718  0.8593
29711SOL    HW294971   4.221   4.005   9.834  0.4871  1.3090 -0.0332
29712SOL     OW94972   4.672   5.850   6.469 -0.0342  0.0639 -0.6075
29712SOL    HW194973   4.702   5.927   6.420 -1.4149  1.3824  0.5141
29712SOL    HW294974   4.742   5.831   6.531 -0.0731  1.0529 -0.2388
29713SOL     OW94975   3.592   6.389   2.642 -0.4102 -0.4426  0.1726
29713SOL    HW194976   3.613   6.482   2.653 -0.0623 -0.2360 -1.8671
29713SOL    HW294977   3.606   6.351   2.729  0.4727  1.2162  0.7988
29714SOL     OW94978   1.414   0.307  11.110 -0.0949 -0.1954  0.4709
29714SOL    HW194979   1.410   0.402  11.113 -2.1482 -0.0388 -2.5705
29714SOL    HW294980   1.421   0.286  11.017  0.8137 -3.0476  1.0686
29715SOL     OW94981   2.042   5.501   6.527  0.0634  0.4909  0.0713
29715SOL    HW194982   2.062   5.511   6.620 -3.2662  1.3211  0.8416
29715SOL    HW294983   1.988   5.422   6.522  0.8453  0.0078 -1.3239
29716SOL     OW94984   3.121   7.301  10.352 -0.3008 -0.0227 -0.0756
29716SOL    HW194985   3.184   7.330  10.285  1.2791  1.3900  1.9151
29716SOL    HW294986   3.117   7.206  10.340  0.6084  0.0928 -1.6074
29717SOL     OW94987   5.835   2.371  10.356 -0.2743  0.2136  0.4188
29717SOL    HW194988   5.907   2.359  10.418  0.6675  2.2956 -0.1568
29717SOL    HW294989   5.778   2.295  10.369  0.8671 -0.3589  2.4679
29718SOL     OW94990   2.936  11.681   8.165  0.2769 -0.3735  0.1253
29718SOL    HW194991   2.970  11.742   8.100  0.2015 -1.8997 -1.4188
29718SOL    HW294992   2.842  11.680   8.151  0.1151  0.1123  1.0494
29719SOL     OW94993   8.315   8.129   1.378  0.5398 -0.0098 -0.6491
29719SOL    HW194994   8.231   8.151   1.337 -0.4014 -2.0521  0.0084
29719SOL    HW294995   8.292   8.061   1.442  2.3657  1.1347  1.3156
29720SOL     OW94996   3.877   4.522   5.861  0.3551  0.2536 -0.3073
29720SOL    HW194997   3.821   4.517   5.784  1.8969  0.4110 -1.5022
29720SOL    HW294998   3.837   4.589   5.916  0.5332  2.0028 -2.1602
29721SOL     OW94999   4.349  11.420  11.516  0.0382  0.0143  0.0936
29721SOL    HW195000   4.444  11.415  11.525  0.1453 -0.0021 -0.8870
29721SOL    HW295001   4.335  11.432  11.422 -0.9094  0.5999  0.2977
29722SOL     OW95002   7.458  10.986   0.123 -0.7617  0.3538 -0.1548
29722SOL    HW195003   7.436  11.025   0.208 -3.0029 -1.2267  0.0919
29722SOL    HW295004   7.392  10.916   0.111  0.9718 -1.0754 -2.0796
29723SOL     OW95005   2.540   2.274  10.713 -0.2555 -0.4215 -0.1248
29723SOL    HW195006   2.609   2.341  10.709  0.2383 -0.8781  0.4303
29723SOL    HW295007   2.484   2.291  10.637 -0.0335  0.5060 -0.0866
29724SOL     OW95008   3.036   7.201  10.042  0.0037 -0.3312  0.1477
29724SOL    HW195009   3.033   7.130  10.106 -2.6993  0.4357  0.9989
29724SOL    HW295010   3.107   7.257  10.071  1.2274 -1.8944  0.2978
29725SOL     OW95011   1.427   3.921  11.122 -0.0015  0.3081 -0.0438
29725SOL    HW195012   1.516   3.922  11.089  0.4453  0.0747  1.0969
29725SOL    HW295013   1.393   3.834  11.100 -0.5076  0.9151 -1.8346
29726SOL     OW95014   4.793   9.415   0.392 -0.0615 -0.4985  0.5241
29726SOL    HW195015   4.807   9.509   0.384 -0.6811 -0.2612  1.9291
29726SOL    HW295016   4.818   9.380   0.307 -1.1259  1.0913 -0.4981
29727SOL     OW95017   9.471   2.756   4.445  0.3457  0.0733 -1.1683
29727SOL    HW195018   9.553   2.737   4.399  1.2546  1.8076 -0.3703
29727SOL    HW295019   9.454   2.677   4.496  2.9628  0.5492  0.6502
29728SOL     OW95020  11.502   4.301   2.194 -0.3233 -0.4813  0.9710
29728SOL    HW195021  11.550   4.375   2.157  1.2975 -2.1918 -0.5645
29728SOL    HW295022  11.531   4.298   2.286 -1.3729  1.4741  1.4062
29729SOL     OW95023   9.645  11.607   8.816  0.2471 -0.6365  0.0669
29729SOL    HW195024   9.696  11.660   8.876 -0.2132 -0.6920  0.5106
29729SOL    HW295025   9.555  11.613   8.848 -0.0209 -0.5846 -0.6704
29730SOL     OW95026   0.670  11.518   8.860 -0.4807  1.0727 -0.2126
29730SOL    HW195027   0.742  11.560   8.813 -1.8176  1.9859 -1.5467
29730SOL    HW295028   0.618  11.591   8.895 -1.2890  0.4659 -0.1102
29731SOL     OW95029  12.171   1.964   8.830 -0.0818 -0.3244 -0.2016
29731SOL    HW195030  12.172   2.043   8.884 -0.1177 -0.6845  0.3421
29731SOL    HW295031  12.202   1.992   8.744 -1.8260  0.6708 -0.5546
29732SOL     OW95032   0.388   2.383  11.168  0.6234 -0.0886 -0.0204
29732SOL    HW195033   0.406   2.448  11.236  3.2437 -1.4528  0.7023
29732SOL    HW295034   0.359   2.434  11.093  1.5265  1.8242  0.8738
29733SOL     OW95035   5.409   4.701   4.174  0.2118  0.0104 -0.0277
29733SOL    HW195036   5.355   4.670   4.246  0.6159  1.0674  0.7483
29733SOL    HW295037   5.455   4.623   4.144 -0.8878 -0.6836  0.0232
29734SOL     OW95038  10.871   2.328   8.358 -0.3537 -0.3104  0.0965
29734SOL    HW195039  10.882   2.253   8.299 -0.1215 -1.7517  1.8968
29734SOL    HW295040  10.922   2.398   8.317 -0.5157 -1.1317 -1.5973
29735SOL     OW95041   7.925   1.804   3.723 -0.1674 -0.0108  0.0223
29735SOL    HW195042   7.949   1.886   3.767  0.3125 -0.6576  1.0073
29735SOL    HW295043   8.008   1.758   3.711 -0.4731 -0.5080 -0.2100
29736SOL     OW95044   7.361   8.206  12.074  0.2543 -0.1842 -0.1530
29736SOL    HW195045   7.351   8.285  12.127  2.3439  1.9724 -2.6483
29736SOL    HW295046   7.277   8.195  12.030 -0.1113  0.5287  0.3490
29737SOL     OW95047   8.349   6.716   4.021  0.3307  0.1582  0.4540
29737SOL    HW195048   8.364   6.772   3.945  0.4260 -0.2415  0.1740
29737SOL    HW295049   8.422   6.736   4.080  1.2440 -0.7763 -0.3090
29738SOL     OW95050   5.328   4.119   3.172  0.1467  0.0195 -0.3363
29738SOL    HW195051   5.337   4.051   3.239 -2.1567  0.5649  0.6065
29738SOL    HW295052   5.277   4.076   3.103  1.2216 -0.0687 -1.1084
29739SOL     OW95053   2.555   1.671   3.010  0.4858 -0.0354 -0.2150
29739SOL    HW195054   2.576   1.751   2.962  0.6960 -0.2242 -0.4463
29739SOL    HW295055   2.548   1.604   2.941 -3.8872  0.5335 -0.5897
29740SOL     OW95056  10.302  10.712   1.964  0.1151 -0.0784 -0.0295
29740SOL    HW195057  10.270  10.793   2.003 -0.6413  0.2319 -1.2306
29740SOL    HW295058  10.328  10.658   2.038 -0.1513  0.9373  0.8303
29741SOL     OW95059   6.140   5.657   3.544 -0.1393  0.1867 -0.0720
29741SOL    HW195060   6.172   5.703   3.622 -0.7902 -0.6554  0.7167
29741SOL    HW295061   6.163   5.714   3.471 -2.1189  2.4513  0.9598
29742SOL     OW95062   4.403   1.854   6.713  0.0380  0.8230 -0.1908
29742SOL    HW195063   4.352   1.830   6.636  2.1795  0.8926 -1.7214
29742SOL    HW295064   4.341   1.851   6.785 -1.8883  0.0449 -1.7990
29743SOL     OW95065   3.514   5.865   8.590  0.0148 -0.0503  0.0733
29743SOL    HW195066   3.479   5.777   8.606  1.4888 -0.5810  0.4851
29743SOL    HW295067   3.523   5.870   8.495 -0.3309 -0.2400  0.0276
29744SOL     OW95068   6.940   1.207  12.296 -0.1824 -0.6554  0.3773
29744SOL    HW195069   6.924   1.114  12.282 -0.5427 -0.8772  2.0235
29744SOL    HW295070   6.903   1.250  12.219  1.0584 -1.9342 -0.9933
29745SOL     OW95071   2.847   6.851   5.515 -0.1074 -0.4123  0.0617
29745SOL    HW195072   2.922   6.853   5.455  1.8840  2.5169  2.3291
29745SOL    HW295073   2.781   6.905   5.473 -0.5294 -1.9280 -1.3476
29746SOL     OW95074   8.818   3.968   2.496  0.2904  0.1599  0.7831
29746SOL    HW195075   8.835   3.984   2.588 -1.3642  1.8160  0.8400
29746SOL    HW295076   8.745   3.905   2.495 -1.6344  2.2776  0.7051
29747SOL     OW95077   3.273   2.761   9.225  0.2925  0.0356 -0.2614
29747SOL    HW195078   3.249   2.755   9.133  0.4879 -1.5016 -0.2469
29747SOL    HW295079   3.223   2.835   9.259 -0.2260  0.2519 -1.4620
29748SOL     OW95080  12.012   1.433   7.918  0.1780 -0.4221  0.2623
29748SOL    HW195081  12.009   1.511   7.862  1.1503  0.0565  0.8672
29748SOL    HW295082  11.933   1.384   7.894  0.1597  0.1671 -0.9580
29749SOL     OW95083   3.703   6.139   7.142 -0.1884 -1.0103  0.5840
29749SOL    HW195084   3.763   6.104   7.208  0.9386 -1.0927 -0.4456
29749SOL    HW295085   3.740   6.109   7.059 -2.5993 -2.5126 -0.0392
29750SOL     OW95086   4.283   8.575   0.469 -0.1110 -0.5486  0.5265
29750SOL    HW195087   4.264   8.653   0.521 -1.5274 -0.8953  0.5674
29750SOL    HW295088   4.246   8.594   0.383  1.7795 -0.1818 -0.2630
29751SOL     OW95089   4.686   8.036   7.237 -0.4577 -0.3576  0.1537
29751SOL    HW195090   4.607   8.020   7.186 -0.6207 -0.6950  0.5006
29751SOL    HW295091   4.662   8.010   7.326 -0.4110  0.8980  0.5459
29752SOL     OW95092   3.788   6.731  11.818  0.2830  0.1593 -0.0940
29752SOL    HW195093   3.763   6.743  11.909  1.7055 -0.3748  0.3921
29752SOL    HW295094   3.738   6.797  11.770 -1.4566 -0.4014  0.8816
29753SOL     OW95095   2.512   5.445  10.482  0.6089 -0.2545  0.1957
29753SOL    HW195096   2.491   5.478  10.395  1.3391 -0.3327 -0.0174
29753SOL    HW295097   2.547   5.357  10.467  4.2662  1.0073  0.1241
29754SOL     OW95098   4.485   1.396   0.311  0.4120 -0.5022  0.4620
29754SOL    HW195099   4.555   1.362   0.368 -1.2480 -4.0142  0.7049
29754SOL    HW295100   4.410   1.405   0.369 -0.5545 -1.4183 -0.6054
29755SOL     OW95101   0.718   0.976   8.622 -0.3662 -0.3267 -0.3133
29755SOL    HW195102   0.623   0.987   8.614 -0.3879  0.6653  0.9262
29755SOL    HW295103   0.731   0.945   8.712  0.6472  2.6437  0.6706
29756SOL     OW95104   1.595   5.989  11.575 -0.0128  0.5712 -0.8542
29756SOL    HW195105   1.606   6.084  11.584  1.7409  0.2943  0.5419
29756SOL    HW295106   1.529   5.967  11.641 -0.5574  0.8219 -1.3048
29757SOL     OW95107   0.217  11.850   9.731 -0.2312  0.0290  0.2636
29757SOL    HW195108   0.211  11.754   9.726 -1.1013  0.1031 -0.3822
29757SOL    HW295109   0.214  11.879   9.640 -0.6793  0.7024  0.4850
29758SOL     OW95110   8.909   8.714  10.378  0.0126  0.1653 -0.3674
29758SOL    HW195111   8.869   8.716  10.465 -2.4777  0.1050 -1.4231
29758SOL    HW295112   8.948   8.627  10.371  1.0893  0.4969  0.9946
29759SOL     OW95113   6.599   6.898   4.874 -0.5539  0.2314  0.3761
29759SOL    HW195114   6.606   6.990   4.849  1.9672  0.3374  1.2176
29759SOL    HW295115   6.614   6.849   4.793  3.0584  0.5982  0.6854
29760SOL     OW95116   3.227  10.195   5.849 -0.8863 -0.1020 -0.1602
29760SOL    HW195117   3.216  10.265   5.914  1.5388  0.1425  0.0720
29760SOL    HW295118   3.172  10.123   5.882 -2.4808  1.2294  0.2280
29761SOL     OW95119   8.864  10.657  11.448  0.0554 -0.2052 -0.4024
29761SOL    HW195120   8.864  10.633  11.541 -1.3454 -0.3345 -0.4166
29761SOL    HW295121   8.956  10.654  11.423  0.5928  0.8918  1.2492
29762SOL     OW95122   0.413   2.924   4.046 -0.9943  0.0020 -0.3001
29762SOL    HW195123   0.462   2.933   3.964 -0.4535  0.6387  0.0767
29762SOL    HW295124   0.394   3.015   4.072 -2.9641 -0.2270 -0.7606
29763SOL     OW95125  10.433   3.890   6.080  0.7080 -0.1497 -0.7227
29763SOL    HW195126  10.477   3.909   6.163 -0.5823  1.9081 -0.4412
29763SOL    HW295127  10.497   3.912   6.013  1.4415 -0.9480 -0.3046
29764SOL     OW95128  11.445  10.957   7.546 -0.3842 -0.0429  0.3053
29764SOL    HW195129  11.410  10.884   7.597  1.9837 -1.3908  0.1978
29764SOL    HW295130  11.453  11.029   7.608 -2.9074  0.2487  0.3805
29765SOL     OW95131  11.392   0.531   2.610 -0.0306  0.0211  0.1166
29765SOL    HW195132  11.466   0.591   2.617  0.5096 -0.4217 -1.4429
29765SOL    HW295133  11.328   0.579   2.556 -0.1967 -0.2400  0.0799
29766SOL     OW95134   4.503   0.748   8.465 -1.2958  0.3262  0.0389
29766SOL    HW195135   4.572   0.809   8.491  0.5714 -1.2044 -1.0849
29766SOL    HW295136   4.496   0.758   8.370 -2.6364  0.4366  0.1303
29767SOL     OW95137   1.398   4.255   6.720  0.3902 -0.5406 -0.3200
29767SOL    HW195138   1.453   4.183   6.749  1.4503  0.7024  0.8659
29767SOL    HW295139   1.444   4.292   6.644  1.4900  0.7404  0.9017
29768SOL     OW95140   9.642   0.740   5.641 -0.2876 -0.4133  0.1061
29768SOL    HW195141   9.616   0.742   5.549  2.5791 -0.0436 -0.7994
29768SOL    HW295142   9.697   0.817   5.652  0.3138 -1.0555  1.8373
29769SOL     OW95143  10.234   5.254   3.012  0.1173  0.2787 -0.0047
29769SOL    HW195144  10.329   5.251   3.001  0.0617 -0.0407 -0.4092
29769SOL    HW295145  10.200   5.247   2.923 -0.3045 -0.4135  0.2064
29770SOL     OW95146   7.027   6.912   5.200  0.2102 -0.9198 -0.2467
29770SOL    HW195147   7.021   6.950   5.112  0.0533 -0.0805  0.1145
29770SOL    HW295148   6.958   6.845   5.203  1.4325 -2.3002 -1.3863
29771SOL     OW95149   4.756  11.518   3.224 -0.0118 -0.2049  0.3083
29771SOL    HW195150   4.742  11.515   3.129 -0.7268  0.0888  0.3956
29771SOL    HW295151   4.785  11.608   3.241  1.4842 -0.6371  0.2084
29772SOL     OW95152   4.771   6.056   5.134  0.2199 -0.1406 -0.1591
29772SOL    HW195153   4.772   5.987   5.200 -1.1194 -1.6562 -1.6473
29772SOL    HW295154   4.726   6.018   5.059  1.7870  1.4484 -2.0461
29773SOL     OW95155   0.434   9.006   6.615 -0.0067  0.7674  0.3455
29773SOL    HW195156   0.343   8.976   6.607  0.2967 -0.1766  0.2358
29773SOL    HW295157   0.473   8.987   6.530  0.5708  0.1511  0.7327
29774SOL     OW95158   7.156   1.285   9.301 -0.4725  0.2457 -0.0858
29774SOL    HW195159   7.183   1.194   9.312 -0.7590  0.0991 -0.5330
29774SOL    HW295160   7.236   1.332   9.279 -0.6112 -0.2551 -1.8178
29775SOL     OW95161   1.789   9.174   0.737  0.4072 -0.9185  0.0674
29775SOL    HW195162   1.738   9.224   0.673 -1.3465 -0.8281  1.4604
29775SOL    HW295163   1.879   9.181   0.706 -0.3210 -0.5232 -2.1331
29776SOL     OW95164   6.052   6.012  10.456 -0.0246 -0.0627  0.1491
29776SOL    HW195165   6.140   5.984  10.430  0.2540  2.1968 -1.7622
29776SOL    HW295166   6.065   6.057  10.539  0.2791 -1.4473  0.8653
29777SOL     OW95167   3.181   3.351   7.014  0.0876  0.4454 -0.0010
29777SOL    HW195168   3.261   3.385   7.054  0.1516 -0.5780  0.8032
29777SOL    HW295169   3.115   3.359   7.083 -0.2325  0.2947 -0.2887
29778SOL     OW95170   9.303   9.967  12.097 -0.4401 -0.0722 -0.1833
29778SOL    HW195171   9.362   9.900  12.133  0.3212 -0.6143 -2.2374
29778SOL    HW295172   9.313  10.042  12.155  1.6454 -0.4626  0.0642
29779SOL     OW95173   4.024   9.977   4.214 -0.0355  0.1276 -0.2625
29779SOL    HW195174   4.003   9.962   4.122 -2.3141  1.2938 -0.0054
29779SOL    HW295175   3.990  10.065   4.233 -1.7498 -0.9552  2.2386
29780SOL     OW95176  11.426  11.584  11.519  0.2471 -0.7204  0.3857
29780SOL    HW195177  11.429  11.677  11.539  1.2267 -0.2123 -1.8205
29780SOL    HW295178  11.518  11.559  11.509 -0.0716 -1.1429 -2.0778
29781SOL     OW95179   6.369   0.029   5.953  0.1729 -0.4162  0.1841
29781SOL    HW195180   6.424  -0.007   5.883  1.6566 -0.5983  1.3816
29781SOL    HW295181   6.302  -0.037   5.968  0.4021 -0.7939 -0.4214
29782SOL     OW95182   4.904   5.887  10.724  0.2038 -0.0644  0.0788
29782SOL    HW195183   4.892   5.891  10.819  0.2959 -2.3844  0.2471
29782SOL    HW295184   4.829   5.837  10.692  0.3698  0.3732 -1.0230
29783SOL     OW95185   1.096   0.467   4.754  0.1874 -0.0966 -0.4590
29783SOL    HW195186   1.172   0.522   4.738  1.3225 -0.9095  1.6477
29783SOL    HW295187   1.115   0.385   4.707 -0.3122  0.3737 -1.5035
29784SOL     OW95188   0.049   9.200   0.103 -0.2631 -0.4716 -0.1931
29784SOL    HW195189   0.079   9.178   0.015 -1.1374 -0.8407 -0.4118
29784SOL    HW295190  -0.018   9.135   0.122  1.5507 -1.9470  1.7195
29785SOL     OW95191   1.267   8.119   2.374 -0.2173  0.2829 -0.6291
29785SOL    HW195192   1.257   8.096   2.282  0.1189 -0.3431 -0.5147
29785SOL    HW295193   1.359   8.104   2.393 -0.4282 -0.3029 -0.0131
29786SOL     OW95194   1.611   1.369   8.738 -0.1202  0.0881 -0.0719
29786SOL    HW195195   1.614   1.298   8.674 -0.1404  0.3936 -0.4143
29786SOL    HW295196   1.585   1.327   8.819  2.1292 -0.7095  0.2976
29787SOL     OW95197   6.848  10.661   5.152 -0.4918 -0.6270 -0.0265
29787SOL    HW195198   6.928  10.639   5.104 -1.7203  0.9720 -3.0398
29787SOL    HW295199   6.783  10.598   5.123 -1.2638  0.3715 -0.5390
29788SOL     OW95200   8.679   7.588   2.932 -0.2668 -0.2035  0.5359
29788SOL    HW195201   8.653   7.543   3.012 -0.4623 -2.2234 -0.6127
29788SOL    HW295202   8.619   7.662   2.925 -0.8350 -0.5305  1.7579
29789SOL     OW95203   2.831   7.799   3.051  0.0478  0.1645  0.4676
29789SOL    HW195204   2.806   7.849   2.973  0.4978  1.0018  0.8385
29789SOL    HW295205   2.814   7.708   3.028 -0.8106  0.4890 -0.2262
29790SOL     OW95206   9.552  12.290   3.710  0.2180  0.0844  0.1815
29790SOL    HW195207   9.615  12.262   3.777 -0.6177 -1.0373  0.5409
29790SOL    HW295208   9.488  12.343   3.758  0.4840  0.6126 -0.0428
29791SOL     OW95209   4.047  11.483   9.241 -0.3644 -0.4283 -0.2875
29791SOL    HW195210   4.135  11.483   9.203  0.1894 -3.2744  0.7600
29791SOL    HW295211   3.989  11.501   9.168  0.9796 -0.3972 -1.3838
29792SOL     OW95212  10.498   9.187   7.022 -0.2434  0.1313 -0.2998
29792SOL    HW195213  10.441   9.216   7.094  0.0843 -0.2409  0.1161
29792SOL    HW295214  10.512   9.266   6.970 -0.9965  0.2670 -0.3102
29793SOL     OW95215  12.197  10.146  11.721  0.0870  0.5897 -0.1342
29793SOL    HW195216  12.231  10.123  11.807  1.7704  2.2543 -0.2779
29793SOL    HW295217  12.242  10.227  11.698 -0.9071  0.6303 -2.2472
29794SOL     OW95218   1.097   2.808   8.642 -0.0552  0.1590 -0.3995
29794SOL    HW195219   1.181   2.777   8.678  0.5953  1.7705 -0.4612
29794SOL    HW295220   1.068   2.876   8.703 -1.7331 -0.8908  0.0367
29795SOL     OW95221   4.196   9.905   7.295  0.2201 -0.0556  0.5813
29795SOL    HW195222   4.204  10.000   7.294  0.7267 -0.0813 -0.7557
29795SOL    HW295223   4.133   9.885   7.226  1.7644 -0.7618 -0.7122
29796SOL     OW95224   9.906   7.267   3.057  0.3641  0.3287 -0.5512
29796SOL    HW195225   9.817   7.237   3.035 -0.0301  1.7219 -0.9203
29796SOL    HW295226   9.963   7.211   3.005 -0.2666 -0.8193 -0.0515
29797SOL     OW95227  10.602   2.218   0.105 -0.2087 -0.3372  0.0846
29797SOL    HW195228  10.666   2.257   0.164 -0.2622 -0.1786  0.0388
29797SOL    HW295229  10.652   2.201   0.025  0.3721 -2.3857  0.8161
29798SOL     OW95230   7.353   6.665   0.789  0.2134 -0.0870  0.2464
29798SOL    HW195231   7.305   6.584   0.808 -1.3898  0.8378  0.3284
29798SOL    HW295232   7.285   6.730   0.772  1.4770  1.0642 -0.6429
29799SOL     OW95233   9.697   3.573  11.118 -0.3460  0.0418 -0.3162
29799SOL    HW195234   9.742   3.493  11.146  0.2761  0.5657  0.2296
29799SOL    HW295235   9.672   3.616  11.200 -1.3330  0.0548 -0.6121
29800SOL     OW95236   7.702   0.324   0.549 -0.6341 -0.0870  0.1322
29800SOL    HW195237   7.735   0.395   0.604  0.2385  0.9727 -1.6457
29800SOL    HW295238   7.621   0.359   0.511  0.0820  0.2467 -1.1762
29801SOL     OW95239   9.336   9.641   1.525  0.3780 -0.4424  0.0502
29801SOL    HW195240   9.273   9.573   1.500 -0.4825  0.5884 -0.6543
29801SOL    HW295241   9.380   9.605   1.602 -2.2222 -0.5418  1.6060
29802SOL     OW95242  11.435   3.096   1.386 -0.2707 -0.0530  0.0702
29802SOL    HW195243  11.457   3.004   1.378 -0.8583 -0.0895 -1.5915
29802SOL    HW295244  11.342   3.101   1.363  0.1739  1.1269 -1.7252
29803SOL     OW95245   8.398   8.179  10.825  0.1504  0.2317  0.4384
29803SOL    HW195246   8.306   8.165  10.848 -0.1817  1.2579 -0.1957
29803SOL    HW295247   8.400   8.267  10.788  1.5653  0.6167  1.3445
29804SOL     OW95248  11.137   8.907   3.990 -0.4182  0.2213  0.0971
29804SOL    HW195249  11.117   8.990   3.947 -1.8649  0.3521  0.9512
29804SOL    HW295250  11.203   8.866   3.934 -4.6476 -1.3226 -4.4637
29805SOL     OW95251   4.440   8.455   2.218 -0.4377  0.0598 -0.4911
29805SOL    HW195252   4.351   8.462   2.254 -0.9058 -2.0942 -1.0743
29805SOL    HW295253   4.428   8.417   2.131  1.1489 -2.8532  0.4481
29806SOL     OW95254   8.216   2.860   7.180  0.9079 -0.1504  0.1523
29806SOL    HW195255   8.241   2.855   7.273  2.2510  1.3446 -0.0711
29806SOL    HW295256   8.158   2.935   7.175 -1.3716 -1.8263  0.1620
29807SOL     OW95257   3.614   6.370  10.850  0.2458 -0.3248  0.0261
29807SOL    HW195258   3.554   6.322  10.793  0.8388  0.2053 -1.0746
29807SOL    HW295259   3.566   6.449  10.874  0.5269  0.1741 -0.9785
29808SOL     OW95260   2.006   0.911   2.868 -0.0198  0.1526  0.5354
29808SOL    HW195261   2.084   0.897   2.921  0.0101  0.0114  0.4536
29808SOL    HW295262   2.028   0.876   2.782 -0.0055  0.5413  0.3747
29809SOL     OW95263  11.521   0.366   0.726  0.0488  0.2312  0.2430
29809SOL    HW195264  11.481   0.422   0.792  1.0268  0.0236  1.0363
29809SOL    HW295265  11.456   0.361   0.656  0.1176  2.7290 -0.0942
29810SOL     OW95266   2.585   5.733   5.867  0.4558 -0.1835 -0.0399
29810SOL    HW195267   2.497   5.695   5.865  1.2457 -2.1642 -2.3213
29810SOL    HW295268   2.586   5.796   5.794  0.9668 -0.3044 -0.1428
29811SOL     OW95269   4.652   9.319   8.600 -0.4636  0.4804 -0.0997
29811SOL    HW195270   4.600   9.400   8.602 -0.4798  0.5057 -1.2476
29811SOL    HW295271   4.614   9.266   8.670 -1.0322  1.1087  0.0846
29812SOL     OW95272  10.581   4.720  12.095  0.3309  0.2232 -0.5356
29812SOL    HW195273  10.595   4.625  12.094 -0.5281  0.0824 -2.1785
29812SOL    HW295274  10.516   4.734  12.164  0.0015 -0.4538 -0.7021
29813SOL     OW95275  11.530   0.725   6.185  0.4117 -0.0119  0.1960
29813SOL    HW195276  11.584   0.743   6.262 -1.6720  1.6248  1.3805
29813SOL    HW295277  11.489   0.809   6.164 -2.6253 -1.3712  0.1740
29814SOL     OW95278   5.323   7.173   6.260 -0.1871  0.2038  0.0198
29814SOL    HW195279   5.257   7.162   6.191 -0.9283 -0.1790  0.7707
29814SOL    HW295280   5.329   7.088   6.302  1.0544  0.1364 -0.2472
29815SOL     OW95281   0.070   6.322   3.273 -0.2594 -0.5184 -0.0222
29815SOL    HW195282  -0.020   6.334   3.243  0.1819  0.7863 -0.9029
29815SOL    HW295283   0.120   6.306   3.193  0.4297 -0.3619  0.3698
29816SOL     OW95284   4.457   5.361   3.484 -0.0535  0.1163  0.2344
29816SOL    HW195285   4.506   5.441   3.467 -0.5638  0.3224 -0.2784
29816SOL    HW295286   4.366   5.389   3.490 -0.1540 -0.3119  0.8691
29817SOL     OW95287   0.711   0.390  11.590  0.6087 -0.3470  0.3073
29817SOL    HW195288   0.782   0.438  11.632 -0.3326 -0.7084  2.4753
29817SOL    HW295289   0.711   0.305  11.634 -0.1937 -0.9138 -0.7444
29818SOL     OW95290   4.117   3.846   1.967 -0.0508 -0.0733  0.0937
29818SOL    HW195291   4.035   3.847   2.016  0.3703 -0.4223  0.8306
29818SOL    HW295292   4.185   3.857   2.034  0.4838  0.7298 -0.5650
29819SOL     OW95293   8.651   6.203   8.503 -0.0312  0.2617  0.0801
29819SOL    HW195294   8.567   6.224   8.461 -0.6343 -1.2393  0.4723
29819SOL    HW295295   8.717   6.228   8.439 -0.9042 -1.7588 -1.7118
29820SOL     OW95296   5.188   2.411   0.909 -0.1889  0.0790 -0.2728
29820SOL    HW195297   5.172   2.403   1.003 -0.8765 -0.8797 -0.4557
29820SOL    HW295298   5.197   2.505   0.894  1.2129  0.1829  0.9421
29821SOL     OW95299   7.286   3.519   6.747 -0.1278 -0.1036  0.1709
29821SOL    HW195300   7.234   3.468   6.685 -1.4887  0.7920  0.5262
29821SOL    HW295301   7.249   3.608   6.741  0.5676  0.2781  1.3274
29822SOL     OW95302   1.715   0.658   4.414  0.2989  0.5679  0.1606
29822SOL    HW195303   1.727   0.675   4.507  1.0180 -2.8022  0.8412
29822SOL    HW295304   1.696   0.743   4.375 -1.7416  1.8864  3.6227
29823SOL     OW95305   1.099  11.251   6.750 -0.6228  0.2698  0.3216
29823SOL    HW195306   1.141  11.207   6.676 -1.3097 -0.1370  0.1667
29823SOL    HW295307   1.080  11.182   6.813 -2.5066  0.1664 -0.2979
29824SOL     OW95308   5.571   0.021   0.380 -0.7591 -0.5390  0.7159
29824SOL    HW195309   5.647  -0.036   0.393  0.0548  0.4395  0.3811
29824SOL    HW295310   5.557   0.062   0.465  0.6077  1.0790  0.2090
29825SOL     OW95311  11.747  11.205   6.821  0.2358  0.0454  0.3064
29825SOL    HW195312  11.727  11.178   6.732  0.5234  1.9961 -0.3794
29825SOL    HW295313  11.665  11.239   6.856  0.3386  0.0989  0.4994
29826SOL     OW95314   6.965   5.975   8.220  0.0340  0.0325 -0.2379
29826SOL    HW195315   6.919   5.918   8.159  0.2930  0.2119 -0.5991
29826SOL    HW295316   6.922   6.060   8.211 -0.0481  0.0131 -0.0378
29827SOL     OW95317   6.097   0.794   2.783 -0.5153  0.0120  0.3445
29827SOL    HW195318   6.066   0.864   2.841  0.6960  0.1890  0.7983
29827SOL    HW295319   6.156   0.742   2.838 -0.3129 -0.5442 -0.3853
29828SOL     OW95320   1.318  12.049   2.595 -0.6936  0.4617  0.2902
29828SOL    HW195321   1.386  11.985   2.575 -0.0202  1.5195 -0.9579
29828SOL    HW295322   1.237  11.998   2.599  0.0660 -0.7149  1.1332
29829SOL     OW95323   2.693  11.164   1.735 -0.0597  0.2187 -0.3065
29829SOL    HW195324   2.654  11.245   1.702  0.3841 -0.3648 -2.4095
29829SOL    HW295325   2.783  11.188   1.756 -0.9866  1.1985  3.0873
29830SOL     OW95326   2.208   0.482   3.598  0.3090 -0.4070  0.1238
29830SOL    HW195327   2.191   0.435   3.517  3.3905  0.0386 -0.9113
29830SOL    HW295328   2.260   0.558   3.571  0.4555  0.3708  2.3939
29831SOL     OW95329   3.264   9.684   2.240  0.2649 -0.2608  0.0253
29831SOL    HW195330   3.263   9.768   2.194  1.7823 -0.6936 -0.8757
29831SOL    HW295331   3.175   9.650   2.231  0.2593  0.1487 -1.7367
29832SOL     OW95332  10.025   8.541   3.519 -0.5902  0.2482  0.0488
29832SOL    HW195333   9.950   8.551   3.461 -1.2221  0.0641  0.8076
29832SOL    HW295334  10.027   8.447   3.538 -1.4618  0.5098  1.6601
29833SOL     OW95335   7.990   5.094   4.169  0.5478 -0.1937 -0.0883
29833SOL    HW195336   8.062   5.035   4.194 -0.2678 -0.8623  0.7931
29833SOL    HW295337   8.028   5.181   4.171  1.3684 -0.5481  0.2566
29834SOL     OW95338  11.089   3.453   0.287  0.5506  0.0054 -0.0170
29834SOL    HW195339  11.041   3.529   0.320  0.2617  0.6889 -1.9025
29834SOL    HW295340  11.043   3.378   0.325  0.1681  0.7194  0.9990
29835SOL     OW95341   7.476   8.259   4.260  0.0274  0.1798  0.5941
29835SOL    HW195342   7.506   8.292   4.344 -1.6067 -1.0687  1.7205
29835SOL    HW295343   7.537   8.188   4.239  1.6641  1.7642 -0.3353
29836SOL     OW95344   4.534   7.583   7.335  0.2118  0.8901 -0.8396
29836SOL    HW195345   4.454   7.531   7.336 -0.9359  2.6148  0.1504
29836SOL    HW295346   4.603   7.519   7.319 -0.8457 -1.4013  2.6859
29837SOL     OW95347   1.579   7.483   3.722 -0.0762 -0.4926  0.4433
29837SOL    HW195348   1.554   7.513   3.810  0.3707 -3.9429  1.9269
29837SOL    HW295349   1.505   7.508   3.667  0.2736  3.1188  1.3411
29838SOL     OW95350   3.468   8.789   6.470 -0.1586 -0.0718  0.1898
29838SOL    HW195351   3.511   8.782   6.385 -0.8555  0.5078 -0.2112
29838SOL    HW295352   3.420   8.706   6.479 -1.8783  0.7465 -0.9839
29839SOL     OW95353  11.179   8.379  10.256  0.5539  0.4452  0.3954
29839SOL    HW195354  11.105   8.439  10.268  0.3685  0.0678  1.2160
29839SOL    HW295355  11.250   8.417  10.307  0.4302 -0.0285  0.9373
29840SOL     OW95356   6.720   3.595   6.592 -0.3032 -0.1290  0.0138
29840SOL    HW195357   6.749   3.617   6.680 -1.0237 -0.9916  0.4826
29840SOL    HW295358   6.655   3.662   6.571 -1.2918 -0.8316  0.7774
29841SOL     OW95359   4.556   5.753   5.111 -0.2269 -0.1262 -0.4863
29841SOL    HW195360   4.559   5.786   5.021  1.5525 -1.6877 -1.0708
29841SOL    HW295361   4.614   5.811   5.160 -2.2814  1.5975  0.0474
29842SOL     OW95362   7.068   9.913   8.820 -0.3661  0.1704 -0.1640
29842SOL    HW195363   7.052   9.978   8.889 -0.3647  0.7610 -0.7138
29842SOL    HW295364   7.081   9.964   8.741  1.5368 -0.3977 -0.2682
29843SOL     OW95365   5.442   0.731  12.117 -0.5729  0.3383  0.1801
29843SOL    HW195366   5.527   0.762  12.088 -0.0030 -0.8166  0.5757
29843SOL    HW295367   5.455   0.639  12.137 -1.6804  0.3686  1.1679
29844SOL     OW95368   1.747   9.328   3.806  0.0663 -0.2995  0.1894
29844SOL    HW195369   1.694   9.257   3.842 -0.9001  0.4884  0.3626
29844SOL    HW295370   1.702   9.408   3.834  0.1468  0.3597 -1.4747
29845SOL     OW95371   9.647  11.749   2.165 -0.1403  0.3120 -0.2838
29845SOL    HW195372   9.658  11.697   2.245  0.2905 -1.4141 -1.4012
29845SOL    HW295373   9.672  11.838   2.190  0.6840 -0.3354  1.3174
29846SOL     OW95374   6.126   7.067   2.497 -0.6281  0.0686 -0.2386
29846SOL    HW195375   6.145   6.997   2.560  2.2190 -0.3102 -1.3908
29846SOL    HW295376   6.092   7.138   2.551  0.7312 -0.5947  1.6240
29847SOL     OW95377   9.715   4.775   3.293  1.0438  0.1388  0.5511
29847SOL    HW195378   9.754   4.862   3.304  2.0873 -0.4401  1.8624
29847SOL    HW295379   9.626   4.783   3.327  1.1744  0.6665  0.7715
29848SOL     OW95380   9.545   4.521   2.316  0.5146  0.7421 -0.6618
29848SOL    HW195381   9.582   4.559   2.395  1.0852  0.4213 -0.7730
29848SOL    HW295382   9.590   4.437   2.306 -0.9963 -0.1792 -0.1925
29849SOL     OW95383   3.897   6.021   2.658 -0.3322 -0.5374  0.0612
29849SOL    HW195384   3.931   5.970   2.732 -2.1105 -1.0684  0.5515
29849SOL    HW295385   3.908   6.112   2.685  1.4534 -0.6456 -0.1708
29850SOL     OW95386   5.012   5.600   7.137 -0.3400 -0.0419  0.0581
29850SOL    HW195387   4.939   5.660   7.149 -1.5297 -0.9940 -1.9941
29850SOL    HW295388   4.999   5.533   7.204 -0.9725  0.1421  0.1236
29851SOL     OW95389  11.752   9.045  12.135 -0.0597 -0.4713  0.2848
29851SOL    HW195390  11.801   9.073  12.058 -0.4936 -1.6494 -0.4355
29851SOL    HW295391  11.810   9.067  12.209  0.6063  0.1299 -0.3944
29852SOL     OW95392   8.796   3.905   3.916  0.0428  0.0508 -0.5062
29852SOL    HW195393   8.722   3.965   3.925  0.3043  0.4948 -1.1937
29852SOL    HW295394   8.873   3.963   3.921  0.3261 -0.3409 -0.3049
29853SOL     OW95395   0.928   2.092   5.204  0.0696  0.1323 -0.0688
29853SOL    HW195396   0.917   2.184   5.228 -0.0675  0.1798 -0.3220
29853SOL    HW295397   0.976   2.093   5.121 -1.9302  0.0448 -1.2869
29854SOL     OW95398   9.764   8.706   9.804  0.0210 -0.2811 -0.0967
29854SOL    HW195399   9.828   8.650   9.848 -1.8271 -2.0901  0.3924
29854SOL    HW295400   9.710   8.647   9.753 -1.4225  1.1436 -0.3264
29855SOL     OW95401   5.958   6.863   5.226  0.0173 -0.0109  0.1014
29855SOL    HW195402   5.951   6.945   5.275 -1.4259 -1.2446  2.1444
29855SOL    HW295403   6.036   6.874   5.171 -1.1338  3.3574 -1.0738
29856SOL     OW95404  11.025   0.389   3.597  0.1893 -0.5656  0.6354
29856SOL    HW195405  10.967   0.460   3.569  0.6333 -1.0001 -1.6402
29856SOL    HW295406  10.986   0.357   3.679 -2.6126 -0.5942 -0.5645
29857SOL     OW95407  12.117   8.743   4.039 -0.1899 -0.0095 -0.0802
29857SOL    HW195408  12.160   8.798   4.104  0.4739 -0.7457  0.1273
29857SOL    HW295409  12.185   8.681   4.012 -0.8492 -0.5820 -0.4625
29858SOL     OW95410   2.481  11.581   3.221 -1.0451  0.2102 -0.2556
29858SOL    HW195411   2.462  11.505   3.166 -0.6747 -0.5769  0.6785
29858SOL    HW295412   2.441  11.560   3.306 -0.9946  1.0920 -0.0001
29859SOL     OW95413   8.366   8.452   9.509  1.0591 -0.0434  0.1723
29859SOL    HW195414   8.306   8.508   9.461  0.6912  0.8622  1.6151
29859SOL    HW295415   8.453   8.488   9.489  0.8611  0.7407  0.6874
29860SOL     OW95416   1.184   7.002   9.018 -0.0735  0.0498 -0.6171
29860SOL    HW195417   1.217   7.004   9.108  0.8434 -1.6173 -0.8748
29860SOL    HW295418   1.188   6.910   8.993  0.0504  0.5206 -2.4995
29861SOL     OW95419   2.223   0.595  10.345 -0.5297 -0.4995 -0.3598
29861SOL    HW195420   2.201   0.620  10.255 -0.8737 -2.4369 -0.8760
29861SOL    HW295421   2.148   0.544  10.375 -0.2718 -0.1677  0.9249
29862SOL     OW95422   0.828  11.281  11.944 -0.1037 -0.1747  0.0614
29862SOL    HW195423   0.742  11.250  11.973 -1.2499 -1.1708 -3.8146
29862SOL    HW295424   0.883  11.202  11.942 -0.2223 -0.2512 -0.8457
29863SOL     OW95425   5.788   7.249  10.366  0.3419 -0.7825  0.4446
29863SOL    HW195426   5.773   7.296  10.448  0.7926 -0.0100  0.1011
29863SOL    HW295427   5.732   7.172  10.371 -1.0822  0.2158  0.6743
29864SOL     OW95428  10.695   4.559   4.562  0.1466  0.1238  0.3653
29864SOL    HW195429  10.733   4.498   4.498  1.0107  0.1048  0.8827
29864SOL    HW295430  10.601   4.551   4.550  0.2821 -0.5098 -0.3230
29865SOL     OW95431   8.677   2.595   3.858  0.8351 -0.4206 -0.0284
29865SOL    HW195432   8.625   2.525   3.820  0.1545 -0.3060  0.6679
29865SOL    HW295433   8.711   2.644   3.783 -2.8492  1.6085 -0.6533
29866SOL     OW95434   3.984   3.676   4.063  0.5435  0.3887  0.4805
29866SOL    HW195435   3.961   3.584   4.048 -0.8100  0.6617  0.7266
29866SOL    HW295436   3.959   3.720   3.982  0.2843  0.6880  0.7230
29867SOL     OW95437   8.397   5.002   5.989  0.8461 -0.0879  0.0218
29867SOL    HW195438   8.353   5.020   5.906  1.9742 -0.0857 -0.5964
29867SOL    HW295439   8.463   4.937   5.968  0.1831 -1.2078  1.2347
29868SOL     OW95440   0.936   7.715   9.583  0.0424 -0.4932  0.1427
29868SOL    HW195441   0.979   7.692   9.666  2.2802  2.6453  0.0173
29868SOL    HW295442   0.867   7.776   9.608  0.1075 -0.2709 -0.2208
29869SOL     OW95443   4.540   7.498   9.290  0.1251 -0.1844 -0.4806
29869SOL    HW195444   4.462   7.535   9.331  1.3218  0.6564  1.2060
29869SOL    HW295445   4.553   7.551   9.211 -1.2905 -0.7051 -1.0894
29870SOL     OW95446   2.772  11.713  10.952 -0.2224 -0.1273  0.2400
29870SOL    HW195447   2.765  11.634  10.897  0.2841  0.9218 -1.4172
29870SOL    HW295448   2.778  11.785  10.889  1.9404  1.0291  1.6692
29871SOL     OW95449   0.196  11.651   6.193 -0.8011 -0.3244 -0.1642
29871SOL    HW195450   0.175  11.558   6.203 -1.4800 -0.5077 -2.6542
29871SOL    HW295451   0.158  11.675   6.108 -0.1836  2.1065  0.1760
29872SOL     OW95452  11.128   4.082  11.657 -0.2812  0.1419  0.0445
29872SOL    HW195453  11.037   4.096  11.683  0.2551 -0.8010  2.7358
29872SOL    HW295454  11.138   3.987  11.654  1.0626  0.1856  1.7464
29873SOL     OW95455   6.004   6.327   5.348 -0.3885 -0.3346 -0.2814
29873SOL    HW195456   6.038   6.411   5.379  3.4949 -1.1791 -1.7092
29873SOL    HW295457   6.006   6.270   5.424 -0.5118  0.1801  0.1111
29874SOL     OW95458   3.683   1.084   5.044  0.1762 -0.6636 -0.0595
29874SOL    HW195459   3.749   1.147   5.017  0.8173 -1.2545  0.0874
29874SOL    HW295460   3.725   1.034   5.114  0.1290 -2.0321 -0.9671
29875SOL     OW95461   2.817   7.797   3.562 -0.3757  0.0372  0.7875
29875SOL    HW195462   2.810   7.874   3.619 -2.1381  0.9581 -0.5839
29875SOL    HW295463   2.780   7.725   3.614  0.1398  0.3646  1.6273
29876SOL     OW95464   0.957  11.431   5.644 -0.1740 -0.2511  0.2341
29876SOL    HW195465   0.902  11.353   5.638  1.1921 -1.1612 -1.2897
29876SOL    HW295466   0.900  11.503   5.621 -1.2428 -0.8946  0.7990
29877SOL     OW95467   8.212   5.228   1.451  0.1010 -0.6110 -0.0357
29877SOL    HW195468   8.136   5.192   1.496  1.6937 -2.7534  1.1646
29877SOL    HW295469   8.246   5.154   1.400  1.1931  0.3835 -0.7991
29878SOL     OW95470   3.640   4.764   1.936  0.2429  0.3758  0.2487
29878SOL    HW195471   3.590   4.826   1.987 -2.4329 -0.5049 -1.1267
29878SOL    HW295472   3.635   4.682   1.985  1.8434  0.6354  0.9247
29879SOL     OW95473  10.109   8.558  10.894 -0.2662  0.2193 -0.6717
29879SOL    HW195474  10.144   8.502  10.825  0.3735 -0.1647 -0.0534
29879SOL    HW295475  10.145   8.522  10.975 -1.5829  0.2139 -0.0589
29880SOL     OW95476   8.723  11.146  10.054 -0.7437 -0.0649 -0.5642
29880SOL    HW195477   8.732  11.242  10.059 -1.4662 -0.0064 -0.2916
29880SOL    HW295478   8.629  11.131  10.049 -0.7019 -0.8101  0.5286
29881SOL     OW95479   3.146   6.199   1.179 -0.8712 -0.6068 -0.0550
29881SOL    HW195480   3.216   6.229   1.122 -0.2724  0.7412  1.3165
29881SOL    HW295481   3.071   6.255   1.158 -0.6185 -0.0385  0.5380
29882SOL     OW95482  11.210   4.033   9.307 -0.3723 -0.4434  0.1593
29882SOL    HW195483  11.211   3.939   9.325 -0.3229 -0.7809 -1.4491
29882SOL    HW295484  11.300   4.053   9.282 -0.6760 -0.2660 -0.8396
29883SOL     OW95485   5.948   7.865   3.498  0.3441 -0.3289  0.2597
29883SOL    HW195486   6.020   7.813   3.534 -0.5053 -0.9592  1.1075
29883SOL    HW295487   5.870   7.829   3.540 -0.5943 -0.4053 -1.4714
29884SOL     OW95488   5.335   4.905   2.808 -0.4525  0.1663  0.0877
29884SOL    HW195489   5.270   4.855   2.758  0.4086 -1.4865  0.5266
29884SOL    HW295490   5.414   4.850   2.805 -0.5351 -0.3961  3.7702
29885SOL     OW95491   0.376   8.662   9.157  0.1721  0.0599 -0.1036
29885SOL    HW195492   0.400   8.742   9.204  0.6262 -0.0957 -0.0653
29885SOL    HW295493   0.352   8.600   9.225  0.3507 -0.0074 -0.0996
29886SOL     OW95494   2.327   4.245  10.141  0.0863  0.3922  0.6908
29886SOL    HW195495   2.303   4.158  10.174  2.4421 -1.1204 -1.2216
29886SOL    HW295496   2.392   4.277  10.204  0.7784 -0.2047  0.2971
29887SOL     OW95497   8.125   9.093   1.482  0.8993  0.0179 -0.3864
29887SOL    HW195498   8.160   9.162   1.425 -2.1495  0.6844 -1.6429
29887SOL    HW295499   8.059   9.049   1.428  0.2654 -1.5738  1.5844
29888SOL     OW95500   0.719   8.401   8.978  0.2263 -0.2331  0.7251
29888SOL    HW195501   0.653   8.434   8.917  0.9563  1.4474  0.7853
29888SOL    HW295502   0.691   8.311   8.997 -1.1929 -0.0746 -0.4086
29889SOL     OW95503   9.662   0.729   6.060  0.2480 -0.1437 -0.1410
29889SOL    HW195504   9.693   0.799   6.002  0.2360 -0.1426 -0.1460
29889SOL    HW295505   9.696   0.649   6.021  1.7123 -0.0216  0.7807
29890SOL     OW95506  10.666  12.224   2.123  0.4197 -0.0180  0.1210
29890SOL    HW195507  10.717  12.144   2.114  1.7263  0.5580  1.8046
29890SOL    HW295508  10.575  12.195   2.121  0.8657 -1.7365  1.8852
29891SOL     OW95509  10.614   1.103  10.107 -0.2643 -0.8231 -0.4765
29891SOL    HW195510  10.582   1.019  10.075 -0.5318 -1.6005  1.6486
29891SOL    HW295511  10.653   1.083  10.192  0.1877  1.1183 -0.1722
29892SOL     OW95512   2.600   2.131   2.829  0.0570  0.0011  0.2442
29892SOL    HW195513   2.537   2.154   2.761  0.6593  0.7202 -0.0919
29892SOL    HW295514   2.608   2.036   2.824 -0.6385 -0.0472 -0.0285
29893SOL     OW95515   7.769   9.231  11.610  0.1573  0.5347  0.2498
29893SOL    HW195516   7.737   9.319  11.629 -1.3585  0.0518  0.0281
29893SOL    HW295517   7.708   9.173  11.655  2.1331 -0.4092  1.8842
29894SOL     OW95518   6.353   1.654   7.059 -0.3319 -0.3089 -0.2030
29894SOL    HW195519   6.343   1.689   7.147  1.0466 -0.4070  0.0190
29894SOL    HW295520   6.391   1.567   7.072  1.2817  0.2506 -0.9106
29895SOL     OW95521   5.907   3.467   2.296  0.0696 -0.0419 -0.4554
29895SOL    HW195522   5.834   3.426   2.249  1.3553 -1.5143 -1.2724
29895SOL    HW295523   5.977   3.472   2.231  1.6109 -1.2907  1.0356
29896SOL     OW95524   6.615   5.965  12.178  0.6466 -0.4846  0.2631
29896SOL    HW195525   6.674   5.967  12.102  0.1935 -1.4511 -0.1315
29896SOL    HW295526   6.632   5.880  12.219 -0.2122 -0.6224  0.3508
29897SOL     OW95527   0.382   0.453   0.537  0.4403 -0.1426 -0.2469
29897SOL    HW195528   0.369   0.542   0.570 -0.7138 -0.8816  1.4148
29897SOL    HW295529   0.430   0.408   0.607 -0.3687 -1.2334 -0.3694
29898SOL     OW95530   5.124   9.446   8.598 -0.1046  0.0937  0.4223
29898SOL    HW195531   5.093   9.375   8.542 -2.9905  0.9725  0.7451
29898SOL    HW295532   5.187   9.494   8.544  1.1961 -2.1099 -0.1147
29899SOL     OW95533   3.864  11.730  10.154  0.0810  0.1377 -0.5894
29899SOL    HW195534   3.881  11.636  10.167 -1.0742 -0.2977 -1.8930
29899SOL    HW295535   3.940  11.762  10.106  0.6891 -0.0236  0.2545
29900SOL     OW95536   5.512  11.853   8.931 -0.3127  0.7645 -0.2137
29900SOL    HW195537   5.442  11.895   8.980 -1.2319  0.1851 -1.0008
29900SOL    HW295538   5.468  11.809   8.859  0.7390 -0.6281 -0.0394
29901SOL     OW95539   9.472   1.548   1.543  0.3323 -0.3349  0.3114
29901SOL    HW195540   9.404   1.612   1.524  0.4577 -0.4954 -0.7353
29901SOL    HW295541   9.498   1.514   1.457  0.2541 -1.8013  0.8354
29902SOL     OW95542   1.663   9.110   1.787  0.4241 -0.1143  0.4908
29902SOL    HW195543   1.601   9.173   1.751  0.1014 -1.1560 -0.8646
29902SOL    HW295544   1.629   9.089   1.874 -0.5587  0.0965  0.1632
29903SOL     OW95545   7.929   5.756   3.164 -0.4170  0.2160 -0.7551
29903SOL    HW195546   8.020   5.783   3.152 -0.4269  1.3239  1.1551
29903SOL    HW295547   7.879   5.811   3.104 -0.0219  1.4062 -0.0317
29904SOL     OW95548   1.427   8.102   3.149 -0.0656  0.0871 -0.6210
29904SOL    HW195549   1.522   8.113   3.143  0.2131 -1.4754  0.3751
29904SOL    HW295550   1.394   8.190   3.164  1.3277  0.5284  0.0464
29905SOL     OW95551   9.627   0.234   7.075  0.1742  0.1552  0.0225
29905SOL    HW195552   9.543   0.278   7.083  1.6133  3.0368  0.9305
29905SOL    HW295553   9.647   0.236   6.981 -1.1447 -1.4549 -0.3266
29906SOL     OW95554   1.337   3.419   8.105 -0.2759 -0.2654  0.4777
29906SOL    HW195555   1.357   3.356   8.175 -0.5829 -1.8524 -0.7840
29906SOL    HW295556   1.422   3.440   8.067 -0.2717 -0.9791  0.0661
29907SOL     OW95557  11.834  10.518   7.654  0.0130  0.6054  0.4105
29907SOL    HW195558  11.822  10.482   7.742  1.2389 -1.1931 -0.0980
29907SOL    HW295559  11.928  10.535   7.646 -0.2885  2.2713 -0.0335
29908SOL     OW95560   6.725   7.884   2.979 -0.5600 -0.7292 -0.3071
29908SOL    HW195561   6.633   7.893   2.956 -0.1589  0.2617 -1.6693
29908SOL    HW295562   6.736   7.940   3.056 -0.8070  0.3121 -1.0110
29909SOL     OW95563   5.311   0.813   4.888 -0.1481  0.0030 -0.5014
29909SOL    HW195564   5.290   0.790   4.798  0.6726 -0.1897 -0.6493
29909SOL    HW295565   5.404   0.833   4.887 -0.4351  1.5275 -0.0112
29910SOL     OW95566   1.855  11.690  11.239 -0.7876  0.2706  0.0909
29910SOL    HW195567   1.946  11.664  11.228 -0.8976 -0.1560  0.1636
29910SOL    HW295568   1.842  11.762  11.177  0.2583  1.9751  1.7327
29911SOL     OW95569   4.954   1.714   4.280  0.4525 -0.0857 -0.6754
29911SOL    HW195570   4.911   1.704   4.365 -3.5011  1.7948 -2.1773
29911SOL    HW295571   4.928   1.635   4.231  1.7090 -0.5836 -0.5857
29912SOL     OW95572  10.727   8.576  10.335  0.1469 -0.2580 -0.1453
29912SOL    HW195573  10.655   8.616  10.384 -0.3600 -1.5313  0.1681
29912SOL    HW295574  10.702   8.586  10.244 -0.0273  0.0396 -0.0668
29913SOL     OW95575   9.397   5.139   8.457 -0.0960  0.3833 -0.4129
29913SOL    HW195576   9.316   5.168   8.413  1.2061  1.6211 -2.1313
29913SOL    HW295577   9.466   5.158   8.395  1.4545 -1.7758  0.5253
29914SOL     OW95578   5.364  10.316   1.052  0.6766  0.4195  0.1280
29914SOL    HW195579   5.369  10.232   1.096 -1.5425 -0.4595 -1.1438
29914SOL    HW295580   5.273  10.342   1.059  0.2504  0.4155 -3.4027
29915SOL     OW95581   6.641   3.315   8.437  0.6051 -1.0377 -0.4306
29915SOL    HW195582   6.579   3.243   8.425  0.8592 -1.6147  1.4195
29915SOL    HW295583   6.614   3.381   8.373 -1.9395 -1.2423  0.3371
29916SOL     OW95584   7.944   5.219   6.581  0.1923 -0.2903  0.7774
29916SOL    HW195585   7.892   5.298   6.585  0.8677  0.4899 -2.6931
29916SOL    HW295586   7.880   5.148   6.583 -0.7963  0.5299 -0.1684
29917SOL     OW95587   8.439   2.635   3.111  0.1003 -0.5426  0.1429
29917SOL    HW195588   8.475   2.686   3.184  0.5607  0.6717 -0.8907
29917SOL    HW295589   8.513   2.582   3.080  0.0569 -0.6394  0.2044
29918SOL     OW95590   1.980   9.161   5.834  0.3260 -0.4935  0.1909
29918SOL    HW195591   1.989   9.065   5.834  0.9564 -0.4549 -1.1022
29918SOL    HW295592   2.065   9.192   5.802 -0.8068  0.3702 -2.1672
29919SOL     OW95593   9.548   9.473   3.060  0.1724 -0.1501  0.3662
29919SOL    HW195594   9.538   9.520   3.143  0.5231 -0.4610  0.5902
29919SOL    HW295595   9.592   9.535   3.002 -0.7809  0.3492  0.1568
29920SOL     OW95596   9.013   6.674   5.443 -0.2170  0.0303  0.1048
29920SOL    HW195597   9.004   6.766   5.419  1.0768  0.4069  0.9285
29920SOL    HW295598   9.107   6.659   5.446 -0.4036 -1.2353  0.3202
29921SOL     OW95599  11.685   1.669   4.897 -0.7817 -0.7575  0.1180
29921SOL    HW195600  11.680   1.724   4.819  1.2339 -0.1738  0.3403
29921SOL    HW295601  11.619   1.704   4.956 -1.6888 -0.6146 -0.9623
29922SOL     OW95602  11.439   6.362  11.754 -0.1532  0.7494 -0.0919
29922SOL    HW195603  11.492   6.348  11.676 -0.1736  1.1560 -0.1778
29922SOL    HW295604  11.433   6.457  11.764 -0.2462  0.7039  0.3389
29923SOL     OW95605   1.620   6.459   7.205  0.2789 -0.2391 -0.5192
29923SOL    HW195606   1.595   6.497   7.121  0.5434 -0.4330 -0.6861
29923SOL    HW295607   1.557   6.388   7.219 -1.5121  1.5057  0.7583
29924SOL     OW95608   1.570   3.446   0.710  0.4584  0.1136  0.4600
29924SOL    HW195609   1.579   3.429   0.616  0.7610 -0.1399  0.5347
29924SOL    HW295610   1.592   3.363   0.751 -1.5618 -0.3729  0.6744
29925SOL     OW95611   6.795   2.575   4.267  0.3108  0.2480 -0.2525
29925SOL    HW195612   6.827   2.493   4.304  0.7610  0.3543 -0.3957
29925SOL    HW295613   6.799   2.637   4.340  0.7772  0.3486 -0.3603
29926SOL     OW95614   1.497   4.811   6.319 -0.3494  0.5370 -0.2425
29926SOL    HW195615   1.428   4.812   6.252 -1.2370 -0.7883  0.5931
29926SOL    HW295616   1.571   4.854   6.278 -1.0635  0.3036 -1.8652
29927SOL     OW95617  11.688   0.762   6.616  0.3439 -0.1775  0.0810
29927SOL    HW195618  11.734   0.841   6.641  1.2942 -0.8757  0.6146
29927SOL    HW295619  11.596   0.780   6.636  0.6002  0.6384  0.5616
29928SOL     OW95620   0.322  11.730   3.998 -0.3575  0.4042 -0.2764
29928SOL    HW195621   0.299  11.758   3.910 -2.0750 -0.9447 -0.2992
29928SOL    HW295622   0.313  11.809   4.051  1.6490  1.4787 -1.3973
29929SOL     OW95623   9.985   8.992  11.275 -0.0228 -0.1476  0.6686
29929SOL    HW195624  10.058   8.989  11.214  1.4483  1.4215  2.2238
29929SOL    HW295625  10.004   9.067  11.331 -0.5715 -2.1800  3.8660
29930SOL     OW95626  11.826  11.647   3.761 -0.0889  0.1118 -0.2031
29930SOL    HW195627  11.771  11.623   3.835 -0.9176 -1.0134 -1.1382
29930SOL    HW295628  11.764  11.679   3.695  0.8258  3.4142  0.3764
29931SOL     OW95629  10.375   6.048   2.414  0.4399 -0.1468 -0.1338
29931SOL    HW195630  10.451   5.992   2.405 -1.1227 -2.4383  0.0697
29931SOL    HW295631  10.362   6.057   2.508 -0.7171 -1.5201 -0.1414
29932SOL     OW95632  10.919   4.030  11.214  0.4596 -0.3265  0.2282
29932SOL    HW195633  10.868   4.062  11.288  1.8730 -0.0977  1.1578
29932SOL    HW295634  10.856   3.985  11.159 -0.8241  0.3989  1.0405
29933SOL     OW95635   8.980  12.058   0.360  0.1603 -0.1586  0.6416
29933SOL    HW195636   9.052  12.025   0.307  0.8127  0.3812  1.1815
29933SOL    HW295637   8.962  11.987   0.422 -0.2034 -0.5469  0.1031
29934SOL     OW95638   3.713  10.515   4.764  0.8905 -0.3625 -0.7021
29934SOL    HW195639   3.797  10.541   4.802  0.8264 -1.4794  0.2607
29934SOL    HW295640   3.650  10.533   4.834  0.6567 -1.6929 -0.5537
29935SOL     OW95641   1.602   1.373   4.757 -0.1140  0.0809 -0.2223
29935SOL    HW195642   1.551   1.339   4.683  0.3771 -1.9513  0.3008
29935SOL    HW295643   1.543   1.433   4.802 -1.0735 -0.1220 -1.1778
29936SOL     OW95644  11.469   3.925  12.112 -0.0987  0.4888  0.0985
29936SOL    HW195645  11.377   3.898  12.120 -0.5481  2.3499  1.9115
29936SOL    HW295646  11.519   3.852  12.148 -0.7484 -0.8518 -1.5502
29937SOL     OW95647   9.407   1.892  10.021 -0.1626  0.5228 -0.4108
29937SOL    HW195648   9.490   1.939  10.032 -0.2406  0.5168  0.1970
29937SOL    HW295649   9.360   1.906  10.103 -0.2451 -0.5057 -0.2731
29938SOL     OW95650   2.919   6.550   1.400  0.0430  0.0463  0.2647
29938SOL    HW195651   2.941   6.561   1.493 -1.2949 -1.0260  0.7389
29938SOL    HW295652   2.830   6.517   1.400 -0.0713  0.2536 -1.4343
29939SOL     OW95653   1.071   5.272   5.194  0.4823 -0.8227  0.3054
29939SOL    HW195654   1.099   5.289   5.104 -0.6565  0.4215  0.1478
29939SOL    HW295655   1.153   5.254   5.242  1.1590 -0.8760 -0.8433
29940SOL     OW95656  10.456   0.181   3.832 -0.4695  0.0900 -0.0090
29940SOL    HW195657  10.520   0.241   3.794 -1.5673  0.8831 -0.6847
29940SOL    HW295658  10.482   0.171   3.923  0.3426  0.7477 -0.1651
29941SOL     OW95659   2.278   8.930  10.134 -0.0732  0.6690 -0.2662
29941SOL    HW195660   2.330   8.990  10.188  1.5517 -1.1439  0.3094
29941SOL    HW295661   2.280   8.969  10.046 -0.2512  2.1455  0.3601
29942SOL     OW95662   0.078   4.005   0.393 -0.2975  0.0506 -0.1608
29942SOL    HW195663  -0.001   4.053   0.417 -2.3120 -3.4109  0.8145
29942SOL    HW295664   0.057   3.963   0.309  0.7612 -0.3530 -0.2390
29943SOL     OW95665   0.546   8.044  10.871 -0.3313 -0.5165 -0.0537
29943SOL    HW195666   0.477   8.086  10.922 -0.0445 -2.6081  2.2131
29943SOL    HW295667   0.507   7.962  10.840  0.8623 -1.3608  0.6092
29944SOL     OW95668   0.714  12.086   1.588  0.6635  0.1358  0.5122
29944SOL    HW195669   0.632  12.088   1.538  1.2117  1.5643 -0.3834
29944SOL    HW295670   0.698  12.144   1.663  0.2561 -1.0457  1.3698
29945SOL     OW95671   5.481   3.485   3.010 -0.2875 -0.0952 -0.0525
29945SOL    HW195672   5.457   3.392   3.014 -2.2452  0.3924  3.3093
29945SOL    HW295673   5.400   3.529   2.984 -0.0316  0.8159  0.6599
29946SOL     OW95674   2.988  10.226   2.179 -0.0460 -0.4878  0.3450
29946SOL    HW195675   3.016  10.190   2.094 -2.5348  2.1327 -1.7661
29946SOL    HW295676   2.987  10.320   2.166 -1.8440 -0.0666  2.8480
29947SOL     OW95677   9.597   9.775   4.009 -0.0161  0.2986  0.0177
29947SOL    HW195678   9.648   9.694   4.003  3.2509  2.1765  0.6883
29947SOL    HW295679   9.591   9.807   3.919 -0.4714 -0.1365 -0.1163
29948SOL     OW95680  11.702  11.734  10.384  0.0865  0.1084 -0.1340
29948SOL    HW195681  11.753  11.669  10.432  0.1589  0.1726 -0.1244
29948SOL    HW295682  11.756  11.756  10.309  0.1530  0.3150 -0.0254
29949SOL     OW95683   2.651   0.373  10.710 -0.2626 -0.2257  0.0673
29949SOL    HW195684   2.604   0.330  10.638  1.4461 -2.7850  0.3581
29949SOL    HW295685   2.666   0.304  10.774 -0.1816  1.5876  2.1380
29950SOL     OW95686   6.453   1.139   1.343 -0.0686 -0.7616  0.0307
29950SOL    HW195687   6.438   1.086   1.264 -1.1602 -0.4037 -0.0132
29950SOL    HW295688   6.386   1.207   1.339  1.0948  0.4355  0.2766
29951SOL     OW95689  11.720  11.041   5.358  0.1532 -0.0124 -0.0615
29951SOL    HW195690  11.757  11.073   5.276  1.7673  2.9352  1.6345
29951SOL    HW295691  11.626  11.050   5.348  0.2385 -0.6996 -1.8960
29952SOL     OW95692   4.235   0.947  11.123 -0.0998 -0.2417 -0.1950
29952SOL    HW195693   4.319   0.985  11.150  0.1365 -0.3879 -0.7271
29952SOL    HW295694   4.257   0.860  11.089 -0.5148 -0.4372  0.0274
29953SOL     OW95695   7.025   7.374   8.273 -0.4719  0.4352  0.3990
29953SOL    HW195696   6.960   7.432   8.232 -0.7577  1.0446  1.6503
29953SOL    HW295697   6.973   7.304   8.312 -0.6275  1.8921  3.0033
29954SOL     OW95698   9.276  12.251   9.728 -0.2640 -0.3878 -0.6298
29954SOL    HW195699   9.277  12.326   9.668 -1.0120  0.3318  0.2345
29954SOL    HW295700   9.239  12.179   9.676 -0.1892  0.0172 -1.2548
29955SOL     OW95701  11.476   2.072  10.928 -0.1573  0.1547 -0.7859
29955SOL    HW195702  11.408   2.051  10.992  0.1331 -1.5786 -0.9971
29955SOL    HW295703  11.430   2.118  10.858 -1.2878 -1.5695 -1.2432
29956SOL     OW95704  11.956  11.082   4.695 -0.2387  0.9307 -0.1814
29956SOL    HW195705  11.933  11.138   4.621  1.5134  2.3568  0.2941
29956SOL    HW295706  11.873  11.044   4.723 -0.8672 -0.4516 -3.4400
29957SOL     OW95707   6.437   9.570  11.597 -0.0921 -0.4194  0.4270
29957SOL    HW195708   6.446   9.606  11.509 -0.8892 -0.9562  0.1168
29957SOL    HW295709   6.387   9.489  11.585  0.2386 -0.7676  1.3130
29958SOL     OW95710   5.774  10.194  10.424 -0.1299  0.1716  0.4769
29958SOL    HW195711   5.695  10.160  10.467 -0.8618  0.6516 -0.4529
29958SOL    HW295712   5.744  10.224  10.338 -0.2185  5.6996  2.0781
29959SOL     OW95713   3.555   0.911  10.105  0.5171  0.1851 -0.1998
29959SOL    HW195714   3.617   0.888  10.174 -0.9687 -2.5354  0.3764
29959SOL    HW295715   3.607   0.905  10.024  1.4658 -0.1159  0.4126
29960SOL     OW95716   1.672   8.706   7.671  0.4901 -0.1720  0.5412
29960SOL    HW195717   1.691   8.646   7.743 -1.0611  0.0965  1.2371
29960SOL    HW295718   1.609   8.768   7.709 -1.4789 -0.8595 -1.3870
29961SOL     OW95719   1.860   4.394  11.091 -0.3111  0.2833  0.0669
29961SOL    HW195720   1.861   4.424  11.181 -0.6626  0.3286  0.0577
29961SOL    HW295721   1.889   4.470  11.040 -1.0877  0.5756  0.0534
29962SOL     OW95722   7.823   8.581   9.795 -0.3005  0.1096 -0.4765
29962SOL    HW195723   7.761   8.571   9.724 -3.8826 -0.0248  2.3710
29962SOL    HW295724   7.808   8.669   9.828  2.8246  0.9810 -1.0651
29963SOL     OW95725  11.177   0.039   6.521 -0.0224  0.2991  0.2453
29963SOL    HW195726  11.271   0.029   6.539 -0.2575 -1.6675  0.5366
29963SOL    HW295727  11.169   0.021   6.427 -0.1155  0.5395  0.2056
29964SOL     OW95728   2.691   2.534  10.080 -0.4919 -0.1877 -0.1816
29964SOL    HW195729   2.634   2.497  10.012 -0.3189 -2.0332  0.6135
29964SOL    HW295730   2.631   2.557  10.151 -0.4204 -0.5338 -0.0098
29965SOL     OW95731   9.068   3.390   0.824  0.2821  0.2766  0.1090
29965SOL    HW195732   8.988   3.345   0.850  0.3974 -0.2381 -0.3965
29965SOL    HW295733   9.093   3.348   0.742 -1.4392  3.4510 -2.2588
29966SOL     OW95734   7.046   9.557  10.207  0.5147  0.0236 -0.5165
29966SOL    HW195735   7.092   9.638  10.186  1.1511  0.3463  1.8775
29966SOL    HW295736   7.028   9.563  10.301  0.1328 -2.3798 -0.3814
29967SOL     OW95737   6.008   9.705   7.369  0.1690  0.3219  0.9010
29967SOL    HW195738   6.022   9.796   7.396 -1.7000  1.2796 -1.0048
29967SOL    HW295739   5.913   9.698   7.360  0.4318 -0.8862 -1.8208
29968SOL     OW95740   8.074   3.231   0.489  0.3903 -0.0067  0.2740
29968SOL    HW195741   8.070   3.162   0.422  1.1229 -0.8537  1.0656
29968SOL    HW295742   8.036   3.190   0.567 -1.5663  1.3560  0.0971
29969SOL     OW95743   4.309   3.785   2.400  0.3599  0.4531  0.2236
29969SOL    HW195744   4.253   3.828   2.464 -0.8929 -2.0710  0.9339
29969SOL    HW295745   4.356   3.718   2.449  1.0872 -0.0324 -1.0773
29970SOL     OW95746   6.730   1.600   5.670  0.2771  0.4100 -0.4022
29970SOL    HW195747   6.672   1.529   5.695  0.5659 -0.2008 -1.4080
29970SOL    HW295748   6.816   1.559   5.661  0.8385  1.2472  0.8116
29971SOL     OW95749   3.228   2.274   3.306 -0.4043 -0.4013  0.3903
29971SOL    HW195750   3.163   2.242   3.369 -0.3146  0.6215  1.0296
29971SOL    HW295751   3.177   2.293   3.227 -0.6450 -0.9445  0.4085
29972SOL     OW95752  10.425   7.306   4.062  0.1381 -0.0501 -0.0265
29972SOL    HW195753  10.474   7.377   4.019 -0.1083 -0.0291 -0.2740
29972SOL    HW295754  10.387   7.256   3.990  1.1184 -1.0218  0.1144
29973SOL     OW95755   6.161  10.709   4.324  0.3567 -0.2701  0.2302
29973SOL    HW195756   6.253  10.699   4.347  0.7181  0.3904 -0.8945
29973SOL    HW295757   6.159  10.776   4.256 -0.9444 -0.3617  0.1387
29974SOL     OW95758   1.845  10.023   0.279  0.4888 -0.5154 -0.0440
29974SOL    HW195759   1.769   9.981   0.237  1.7990  0.7332 -4.2022
29974SOL    HW295760   1.812  10.107   0.308 -0.1741 -0.7971  0.0380
29975SOL     OW95761   4.955   0.335   0.471  0.3439  0.0049 -0.5915
29975SOL    HW195762   4.921   0.255   0.431  0.0995  0.9187 -2.2872
29975SOL    HW295763   5.027   0.362   0.414  1.0050  0.5367  0.4560
29976SOL     OW95764   9.275   5.130   6.175  0.5420 -0.4020 -0.3067
29976SOL    HW195765   9.252   5.215   6.138  0.3796 -1.1252 -1.9834
29976SOL    HW295766   9.215   5.068   6.132  1.7274 -1.5579 -0.3772
29977SOL     OW95767   7.488   3.793   5.836  0.1785 -0.3761  0.5993
29977SOL    HW195768   7.538   3.829   5.909 -0.8938  3.0712 -0.1832
29977SOL    HW295769   7.541   3.719   5.805  2.6913  0.5698  2.2772
29978SOL     OW95770   9.268   0.251   7.977  0.3930  0.2103  0.4892
29978SOL    HW195771   9.313   0.311   7.917 -0.6781  0.7097  0.1644
29978SOL    HW295772   9.180   0.242   7.940 -0.1521  0.1779  1.7504
29979SOL     OW95773   9.857   7.452   6.147 -0.3393 -0.2671  0.3299
29979SOL    HW195774   9.821   7.459   6.058 -0.0732 -0.3574  0.2151
29979SOL    HW295775   9.808   7.380   6.187 -1.0227  0.2936  0.5281
29980SOL     OW95776   2.278   5.602   6.359  0.1005  0.4496 -0.4446
29980SOL    HW195777   2.359   5.596   6.411  0.0542  0.2022 -0.3998
29980SOL    HW295778   2.208   5.584   6.422  0.2191 -4.7493 -1.3833
29981SOL     OW95779   2.661  10.873   1.258 -0.4435 -0.6634  0.3058
29981SOL    HW195780   2.613  10.896   1.178  0.5151 -0.2323 -0.1527
29981SOL    HW295781   2.719  10.947   1.275 -0.7215 -0.6871  1.4867
29982SOL     OW95782   7.540   7.000   1.178 -0.0278 -0.4841 -0.1929
29982SOL    HW195783   7.533   7.094   1.190  1.8764 -0.4870  1.5592
29982SOL    HW295784   7.476   6.979   1.110 -0.7607  1.9906 -0.3508
29983SOL     OW95785   3.618   5.579   1.676 -0.3844  0.0020  0.0566
29983SOL    HW195786   3.596   5.506   1.618  0.1962 -0.2880  0.1969
29983SOL    HW295787   3.682   5.543   1.737 -0.3431  0.5417  0.3369
29984SOL     OW95788   6.567   0.885   3.634 -0.1245 -0.2520  0.3545
29984SOL    HW195789   6.524   0.806   3.666 -1.2731  0.4645  0.6545
29984SOL    HW295790   6.630   0.854   3.569 -0.8158 -1.3878  0.2061
29985SOL     OW95791   8.574   4.519   8.632  0.0344 -0.1452 -0.4312
29985SOL    HW195792   8.501   4.572   8.600 -0.6640 -1.3596 -0.8871
29985SOL    HW295793   8.574   4.441   8.576  1.4302 -0.3604 -0.1765
29986SOL     OW95794   1.270   6.686  10.260 -0.0475 -0.2114  0.4941
29986SOL    HW195795   1.184   6.709  10.226 -0.1167  0.5543  1.1494
29986SOL    HW295796   1.322   6.765  10.249  0.4253 -0.5067  0.5684
29987SOL     OW95797   7.431   2.868   2.342 -0.0365 -0.0682 -0.3173
29987SOL    HW195798   7.427   2.832   2.430  0.9368 -0.1638 -0.3040
29987SOL    HW295799   7.373   2.945   2.344  0.5062  0.3241  0.5896
29988SOL     OW95800   2.210   2.057  10.402  0.2584  0.3491 -0.6599
29988SOL    HW195801   2.257   1.976  10.420 -0.0871  0.2387 -0.2199
29988SOL    HW295802   2.119   2.031  10.392  0.0299  0.7619  0.2316
29989SOL     OW95803   4.075   7.586   6.752 -0.1776 -0.0012 -0.1086
29989SOL    HW195804   4.091   7.505   6.800  0.5392 -0.5171 -1.1668
29989SOL    HW295805   4.111   7.570   6.664 -0.7419  1.1760 -0.5876
29990SOL     OW95806   1.991   0.208   7.113 -0.1878 -0.0828  0.1855
29990SOL    HW195807   1.989   0.182   7.021 -0.6625  0.3192  0.0762
29990SOL    HW295808   1.911   0.259   7.125  1.1850  2.2466  0.1147
29991SOL     OW95809  10.396   1.551   2.069  0.1836 -0.1133 -0.2547
29991SOL    HW195810  10.445   1.629   2.044 -0.7010  0.3525 -0.5856
29991SOL    HW295811  10.427   1.483   2.009  1.3006 -0.1564  0.3409
29992SOL     OW95812   6.702   2.189   7.600  0.1609  0.7080  0.2326
29992SOL    HW195813   6.693   2.138   7.681  1.2229 -0.4138 -0.3302
29992SOL    HW295814   6.711   2.280   7.630 -0.6504  0.4565  1.3025
29993SOL     OW95815  11.718   2.582  11.199  0.3957  0.1059 -0.0539
29993SOL    HW195816  11.791   2.534  11.161 -0.2727  0.0572 -1.3524
29993SOL    HW295817  11.744   2.598  11.289  0.9095 -2.1608  0.2693
29994SOL     OW95818  10.097  10.542   5.345 -0.4628 -0.0290  0.6706
29994SOL    HW195819  10.125  10.553   5.254 -1.4587 -0.1614  0.3398
29994SOL    HW295820  10.044  10.462   5.344 -1.1654  0.4227  1.2098
29995SOL     OW95821   6.698   8.188   3.448 -0.0323  0.1450  0.2333
29995SOL    HW195822   6.739   8.272   3.470  1.0387  0.5789 -2.8989
29995SOL    HW295823   6.605   8.207   3.444  0.1929  1.1910 -0.3310
29996SOL     OW95824   4.288   1.800   9.216  0.5319  0.0508  0.0922
29996SOL    HW195825   4.337   1.855   9.155 -1.4555 -0.2065 -1.8856
29996SOL    HW295826   4.242   1.737   9.160 -0.5746 -0.9048  1.9557
29997SOL     OW95827   1.790  11.027  10.999  0.2482 -0.7369 -0.2932
29997SOL    HW195828   1.855  11.088  10.965 -1.7220  1.9465  0.4834
29997SOL    HW295829   1.760  11.067  11.081 -0.1550 -3.4902  1.0237
29998SOL     OW95830   9.449  11.995   0.661  0.2708 -0.6736 -0.6116
29998SOL    HW195831   9.527  11.967   0.709  0.6032  1.2057  0.0293
29998SOL    HW295832   9.480  12.064   0.602 -0.8619  0.0262 -0.4318
29999SOL     OW95833   9.987   9.695   9.316  0.3063 -0.4255  0.6283
29999SOL    HW195834   9.918   9.761   9.312  0.7523  0.1444  1.9677
29999SOL    HW295835  10.018   9.688   9.225 -0.6424  0.2208  0.2336
30000SOL     OW95836  10.545   3.207   6.012 -0.0369 -0.3932  0.5154
30000SOL    HW195837  10.596   3.129   5.991 -0.8974 -0.8689  0.1085
30000SOL    HW295838  10.567   3.227   6.103  0.0882 -1.1909  0.6634
30001SOL     OW95839   3.229   3.742   8.399  0.3281 -0.2540  0.2577
30001SOL    HW195840   3.222   3.651   8.371  0.2237 -0.6256  1.4303
30001SOL    HW295841   3.230   3.792   8.318 -0.1114 -1.2662 -0.3967
30002SOL     OW95842   0.984   9.111  12.264 -0.1559 -0.0124 -0.1968
30002SOL    HW195843   0.937   9.028  12.261 -1.1532  0.5282  0.1081
30002SOL    HW295844   0.961   9.148  12.349 -1.8455  1.7744 -1.3448
30003SOL     OW95845  11.918   3.604   0.414 -0.0974 -0.4173  0.2959
30003SOL    HW195846  11.919   3.699   0.404 -1.9910 -0.5006 -1.2417
30003SOL    HW295847  11.989   3.572   0.358 -0.5461  0.0104 -0.5227
30004SOL     OW95848   2.485  10.692   6.967  0.0502 -0.7825 -0.2274
30004SOL    HW195849   2.399  10.734   6.968  0.1193 -0.3773 -2.9586
30004SOL    HW295850   2.472  10.609   7.013 -1.1222  0.3504  1.6256
30005SOL     OW95851   1.361   8.997   6.324 -0.5878  0.0711  0.1400
30005SOL    HW195852   1.451   9.005   6.358 -0.5285 -0.1432  0.0325
30005SOL    HW295853   1.357   9.061   6.253  0.1040 -1.2726 -1.1697
30006SOL     OW95854  11.396   2.398   4.788  0.5442 -0.5520  0.1472
30006SOL    HW195855  11.394   2.472   4.728 -0.7134 -0.6255  0.0785
30006SOL    HW295856  11.422   2.435   4.872  0.8440 -0.1980 -0.1005
30007SOL     OW95857  10.925   6.463   5.833 -0.0332 -0.6068 -0.1154
30007SOL    HW195858  11.000   6.521   5.819  0.0584 -0.0411  2.2559
30007SOL    HW295859  10.902   6.432   5.746  1.4478  1.1001 -1.1858
30008SOL     OW95860   8.971   3.296   7.644 -0.1406 -0.1842 -0.5873
30008SOL    HW195861   8.992   3.354   7.717  1.3172 -1.9683  0.5145
30008SOL    HW295862   8.882   3.266   7.662 -1.1836  2.1335 -1.5388
30009SOL     OW95863   1.343   1.519   9.526  0.0671  0.3251  0.4022
30009SOL    HW195864   1.381   1.456   9.464  1.3586  2.5473 -1.2133
30009SOL    HW295865   1.270   1.559   9.477 -0.8149  0.0502  1.4493
30010SOL     OW95866   8.443   4.587   7.173 -0.0814 -0.0462  0.2012
30010SOL    HW195867   8.434   4.577   7.078  0.6357 -1.1968  0.2489
30010SOL    HW295868   8.433   4.682   7.187 -0.6518  0.0917 -0.9605
30011SOL     OW95869   1.396   0.482   1.187  0.4792 -0.0692 -0.1029
30011SOL    HW195870   1.420   0.446   1.273  0.8672 -0.1997 -0.2627
30011SOL    HW295871   1.318   0.533   1.203 -0.3086 -1.2843  0.0759
30012SOL     OW95872   9.037   7.626   6.992  0.0937  0.0359 -0.2268
30012SOL    HW195873   9.008   7.540   7.023  2.1828 -0.3386  0.8923
30012SOL    HW295874   9.126   7.611   6.961  0.1618  1.6428 -0.8976
30013SOL     OW95875   1.556   1.902   5.491 -0.0041 -0.2697 -0.5720
30013SOL    HW195876   1.602   1.853   5.559 -0.8904  0.9556  0.9709
30013SOL    HW295877   1.475   1.853   5.478 -0.2668  0.0157 -0.0346
30014SOL     OW95878   5.989   9.749   9.522  0.0923 -0.0619 -1.0691
30014SOL    HW195879   6.026   9.807   9.589 -0.8352 -1.0798  0.3813
30014SOL    HW295880   6.031   9.665   9.537 -1.3608 -0.7385 -0.6347
30015SOL     OW95881   8.955  12.032   6.621 -0.8105  0.4481 -0.0841
30015SOL    HW195882   8.966  12.012   6.528 -0.2268 -1.6790  0.3977
30015SOL    HW295883   8.989  12.121   6.630  1.0852 -0.0527 -1.5649
30016SOL     OW95884   0.300  10.436   3.822  0.1078  0.4999  0.1787
30016SOL    HW195885   0.362  10.385   3.770  1.7413  2.7939 -0.3073
30016SOL    HW295886   0.242  10.476   3.758  0.6826  1.5051  0.2544
30017SOL     OW95887   4.301   2.452   6.924 -0.2230 -0.2368  0.0234
30017SOL    HW195888   4.297   2.357   6.923  0.4236 -0.3724  2.5341
30017SOL    HW295889   4.299   2.475   7.017 -1.0995  2.2541 -0.5150
30018SOL     OW95890   4.371   3.400   3.640 -0.5428 -0.6526  0.0808
30018SOL    HW195891   4.424   3.415   3.718 -2.3885 -0.7966  1.4390
30018SOL    HW295892   4.355   3.306   3.640  0.4440 -0.8448 -1.1998
30019SOL     OW95893   5.085  11.798   3.167 -0.3169  0.1698 -0.4807
30019SOL    HW195894   4.992  11.785   3.183 -0.4213  1.5469  0.2180
30019SOL    HW295895   5.130  11.738   3.226 -0.7097 -2.2212 -2.4452
30020SOL     OW95896   1.950   9.865   1.889 -0.0355 -0.0204 -0.1972
30020SOL    HW195897   1.857   9.864   1.913  0.3172  0.4654  1.2617
30020SOL    HW295898   1.978   9.955   1.903  0.7148 -0.2163 -0.3989
30021SOL     OW95899   6.961  11.852   7.780 -0.6088 -0.0162 -0.5638
30021SOL    HW195900   6.993  11.940   7.799  0.7939 -0.6021 -0.1181
30021SOL    HW295901   6.958  11.848   7.684  0.9087 -0.0080 -0.6319
30022SOL     OW95902   8.852   9.613   9.526  0.0092 -0.0884 -0.3445
30022SOL    HW195903   8.905   9.581   9.453  1.3701 -0.2848  0.6881
30022SOL    HW295904   8.804   9.537   9.557  1.7255 -0.7543  0.8368
30023SOL     OW95905   2.991   4.936   8.223  0.5398 -0.1618 -0.1233
30023SOL    HW195906   3.016   5.007   8.282 -1.3352  0.8703 -0.4802
30023SOL    HW295907   3.063   4.930   8.160  1.9589 -0.4103  1.4605
30024SOL     OW95908   9.723   2.541   7.033  0.3110 -0.5216 -0.7643
30024SOL    HW195909   9.809   2.508   7.062 -0.1751 -2.0270 -0.9338
30024SOL    HW295910   9.725   2.530   6.938  0.8377  1.7837 -1.0752
30025SOL     OW95911   3.470  10.226   1.855  0.3384 -0.3431  0.0408
30025SOL    HW195912   3.488  10.140   1.894  2.2949  0.6702  1.5364
30025SOL    HW295913   3.552  10.250   1.811  0.4256  1.4297  1.0647
30026SOL     OW95914   7.079   8.683   0.532 -0.1769  0.1386 -0.1202
30026SOL    HW195915   7.134   8.630   0.475  0.5228  1.0811 -0.3469
30026SOL    HW295916   7.138   8.751   0.567 -1.1866  1.2261 -0.4464
30027SOL     OW95917  11.831  11.998  11.792  0.4261  0.1377 -0.0881
30027SOL    HW195918  11.756  11.940  11.800  0.7217 -0.1277  0.8356
30027SOL    HW295919  11.904  11.947  11.827  0.8304  0.7996  0.0380
30028SOL     OW95920  11.216  11.400   9.893 -0.0086 -0.2132 -0.2934
30028SOL    HW195921  11.293  11.394   9.836  0.3606 -0.3998  0.2262
30028SOL    HW295922  11.212  11.315   9.936  0.8008  0.5639  1.3746
30029SOL     OW95923   7.104  10.304   0.975 -0.2281  0.3646  0.2168
30029SOL    HW195924   7.046  10.247   1.025  0.6960  0.6940  1.7282
30029SOL    HW295925   7.046  10.356   0.920 -1.2066 -0.6982  0.2211
30030SOL     OW95926  12.216   9.670  10.105 -0.1098  0.0294  0.2276
30030SOL    HW195927  12.283   9.610  10.139 -0.5545 -0.6929 -0.1415
30030SOL    HW295928  12.153   9.677  10.177 -0.7963 -1.1036 -0.2422
30031SOL     OW95929   3.798   8.398   0.525 -0.3670  1.2531 -0.4108
30031SOL    HW195930   3.737   8.444   0.467 -1.6492 -0.1813 -0.2440
30031SOL    HW295931   3.828   8.323   0.474  0.1162  1.1294  0.0471
30032SOL     OW95932   3.301  12.127   1.231 -0.4752 -0.0871 -0.1185
30032SOL    HW195933   3.306  12.052   1.173 -0.8284 -0.3576  0.1935
30032SOL    HW295934   3.210  12.130   1.259 -0.1530 -0.4382  1.0351
30033SOL     OW95935   2.664   2.295   7.728 -0.1378  0.4009 -0.3551
30033SOL    HW195936   2.688   2.270   7.639  1.2772  1.9463 -0.4616
30033SOL    HW295937   2.594   2.359   7.717 -0.3048  0.2258 -0.3223
30034SOL     OW95938   2.544   1.525  12.011 -0.1116 -0.5425 -0.1725
30034SOL    HW195939   2.591   1.477  11.942 -1.1927  0.1231 -1.3947
30034SOL    HW295940   2.613   1.573  12.057  0.5295 -0.2716 -1.3787
30035SOL     OW95941   6.111   9.836   7.048  0.7899 -0.3756 -0.2795
30035SOL    HW195942   6.020   9.859   7.063  0.9364  0.6578 -0.8967
30035SOL    HW295943   6.113   9.740   7.052 -0.3456 -0.4142 -0.4183
30036SOL     OW95944  11.799  10.870   6.646  0.0732  0.6574  0.1570
30036SOL    HW195945  11.838  10.925   6.578  1.1115 -3.0014 -2.5485
30036SOL    HW295946  11.706  10.864   6.622  0.6348 -1.5664 -1.9372
30037SOL     OW95947  10.144   4.814   1.433  0.2081 -0.0662  0.3916
30037SOL    HW195948  10.107   4.726   1.423 -0.6206  0.3760 -0.7046
30037SOL    HW295949  10.212   4.820   1.366  0.8637 -0.1572  1.0359
30038SOL     OW95950  11.848   8.580   8.509  0.0925  0.0812 -0.2667
30038SOL    HW195951  11.903   8.658   8.510  1.2137 -0.6523 -1.7786
30038SOL    HW295952  11.823   8.567   8.601  3.0211  0.0449  0.6104
30039SOL     OW95953   7.769   8.392   6.385 -0.2202 -0.4919 -0.0656
30039SOL    HW195954   7.703   8.419   6.321  1.5189 -0.9363 -2.1542
30039SOL    HW295955   7.719   8.351   6.455 -2.3815  1.8783 -0.0708
30040SOL     OW95956   0.106   3.583   4.426 -0.2274  0.0505 -1.0298
30040SOL    HW195957   0.151   3.499   4.418  0.8780  0.5850 -0.5762
30040SOL    HW295958   0.088   3.592   4.519  3.6097  2.2351 -0.2858
30041SOL     OW95959  11.987   6.376   7.821  0.3493 -0.2585  0.0256
30041SOL    HW195960  11.952   6.345   7.738  0.3210 -0.9422  0.2791
30041SOL    HW295961  11.912   6.410   7.868 -0.2677 -2.7049  1.0082
30042SOL     OW95962  12.218   1.867   6.259  0.1973 -0.2765  0.3295
30042SOL    HW195963  12.305   1.904   6.245 -0.0119  0.4279  0.8571
30042SOL    HW295964  12.227   1.812   6.336 -0.4617  2.0857  2.2000
30043SOL     OW95965   0.134   1.972   5.483  0.0630 -0.2101  0.4988
30043SOL    HW195966   0.191   1.985   5.559  1.7480 -1.7922 -0.4128
30043SOL    HW295967   0.192   1.939   5.414 -1.5137  0.6322 -1.3232
30044SOL     OW95968   7.183  11.015   4.440  0.3513  0.1605 -0.2700
30044SOL    HW195969   7.207  10.922   4.443  0.2738  0.1522  0.4473
30044SOL    HW295970   7.110  11.019   4.378  0.1743 -0.3085 -0.0997
30045SOL     OW95971   6.124   1.657  11.567  0.2872 -0.7450  0.2885
30045SOL    HW195972   6.108   1.751  11.565 -0.7927 -0.8386  2.1538
30045SOL    HW295973   6.144   1.634  11.477 -1.8159  0.8905 -0.6756
30046SOL     OW95974   1.622   2.974  10.327 -0.1401 -0.7328  0.5119
30046SOL    HW195975   1.601   3.059  10.366  0.9094 -0.9449  1.6062
30046SOL    HW295976   1.642   2.994  10.235 -2.7850 -0.2410 -0.0206
30047SOL     OW95977   5.506   8.243   8.963  0.0183 -0.1888 -0.6316
30047SOL    HW195978   5.454   8.258   9.042  0.5026  0.7261 -0.4661
30047SOL    HW295979   5.453   8.184   8.910 -0.0302 -1.3722  0.6599
30048SOL     OW95980   2.666  10.227   6.584 -0.3319 -0.1408  0.6405
30048SOL    HW195981   2.755  10.195   6.566  0.6903  1.6802  2.1239
30048SOL    HW295982   2.621  10.221   6.500  0.5136 -3.0249  0.2864
30049SOL     OW95983  10.111   4.938  11.068  0.5130 -0.1104  0.0767
30049SOL    HW195984  10.184   4.880  11.089  1.0588  1.0431  1.5212
30049SOL    HW295985  10.047   4.923  11.138 -0.3181 -0.5341 -0.7444
30050SOL     OW95986   4.492   5.855   5.894 -0.7943 -0.0244 -0.4138
30050SOL    HW195987   4.417   5.900   5.934 -0.1939  0.0868  0.6438
30050SOL    HW295988   4.556   5.925   5.880 -0.3837 -0.3272 -0.0613
30051SOL     OW95989   2.802   7.075   3.421  0.2197  0.0224  0.2450
30051SOL    HW195990   2.844   6.989   3.419 -0.6259 -0.3891 -0.6256
30051SOL    HW295991   2.868   7.133   3.459  1.6048 -0.5708 -1.1450
30052SOL     OW95992   2.324   0.458   3.293 -0.0035  0.7036 -0.6460
30052SOL    HW195993   2.407   0.438   3.336  0.5768  1.8579 -1.1664
30052SOL    HW295994   2.286   0.373   3.273  1.0637  0.1549 -0.4195
30053SOL     OW95995   5.004   1.709   6.976 -0.4005 -0.3515  0.2859
30053SOL    HW195996   4.975   1.625   7.010 -1.5735  0.1029  0.4449
30053SOL    HW295997   5.006   1.698   6.881 -1.2158 -0.3653  0.2639
30054SOL     OW95998   2.061   0.577   3.846 -0.5814  0.3836 -0.0562
30054SOL    HW195999   2.116   0.526   3.788 -0.8125  1.2070 -1.0357
30054SOL    HW296000   1.990   0.517   3.872  0.6844 -0.6494  1.1448
30055SOL     OW96001  11.765   0.599  11.920  0.4801  0.5052  0.1798
30055SOL    HW196002  11.751   0.629  12.010 -0.9096 -0.6154  0.3846
30055SOL    HW296003  11.859   0.589  11.912  0.5922 -0.0803  1.7893
30056SOL     OW96004   0.897   1.991   8.184  0.2214 -0.0041  0.0673
30056SOL    HW196005   0.916   1.994   8.277  1.7144 -0.4938 -0.1996
30056SOL    HW296006   0.979   1.962   8.143 -0.6878 -0.7990 -1.2935
30057SOL     OW96007   8.041   8.099   8.477  0.5510 -0.0935  0.9962
30057SOL    HW196008   8.083   8.022   8.440  1.6507  0.9514 -0.0105
30057SOL    HW296009   7.948   8.078   8.479  0.6764 -0.8877 -0.6253
30058SOL     OW96010   1.314   3.230   6.738  0.2335 -0.2188 -0.4531
30058SOL    HW196011   1.314   3.306   6.796  2.1845  0.8020 -1.6929
30058SOL    HW296012   1.350   3.159   6.791 -0.5584 -0.0080  0.3816
30059SOL     OW96013   6.553   4.161   7.201  0.2451  0.7085  0.4161
30059SOL    HW196014   6.615   4.126   7.266 -2.0291 -1.9287  1.3717
30059SOL    HW296015   6.596   4.145   7.117  0.5749 -1.9168  0.9895
30060SOL     OW96016   1.207   4.984   8.334  0.1771  0.0718 -0.1604
30060SOL    HW196017   1.118   4.977   8.370 -0.2283  0.9799 -0.9471
30060SOL    HW296018   1.220   4.901   8.287  1.1744 -1.6793  2.9364
30061SOL     OW96019   8.278   5.151   8.173  0.4054 -0.3958  0.4299
30061SOL    HW196020   8.232   5.215   8.118  0.3389 -0.8500 -0.0520
30061SOL    HW296021   8.345   5.115   8.115  1.4122  0.2835  1.1341
30062SOL     OW96022   6.996   4.204  10.898 -0.1117  0.4917 -0.3909
30062SOL    HW196023   7.032   4.116  10.908 -1.1921  0.0629 -0.0735
30062SOL    HW296024   6.902   4.190  10.885 -0.3104  1.6061 -0.2757
30063SOL     OW96025   2.655   1.300   0.195 -0.3645  0.0697  0.2355
30063SOL    HW196026   2.607   1.362   0.250 -0.4139  0.3699 -0.1435
30063SOL    HW296027   2.606   1.219   0.202 -1.9468  0.8148 -1.5172
30064SOL     OW96028   1.795   5.237   9.766  0.0138 -0.5378  0.1740
30064SOL    HW196029   1.883   5.220   9.801  1.6146  1.2289 -2.5661
30064SOL    HW296030   1.746   5.272   9.840  1.4172 -2.0385  1.9277
30065SOL     OW96031  11.077   8.806  11.635 -0.2151  0.4715  0.3032
30065SOL    HW196032  11.025   8.881  11.663 -1.3939  0.0073 -0.5532
30065SOL    HW296033  11.012   8.740  11.609  0.8006 -0.1609 -0.7461
30066SOL     OW96034   8.693  11.999   0.380  0.4947 -0.1850  0.7702
30066SOL    HW196035   8.761  12.020   0.315  1.5010  0.0585  1.8700
30066SOL    HW296036   8.735  11.936   0.439 -0.4047 -0.3994  1.1967
30067SOL     OW96037  11.285  11.719   9.370  0.1236  0.0105  0.2568
30067SOL    HW196038  11.208  11.768   9.396 -0.6001 -1.5690  1.2346
30067SOL    HW296039  11.310  11.669   9.448  1.4731 -0.3392 -0.3618
30068SOL     OW96040   7.801  11.935   6.895 -0.1821 -0.4438 -0.2252
30068SOL    HW196041   7.714  11.964   6.867  0.6564  0.1402 -2.4395
30068SOL    HW296042   7.851  12.016   6.906  0.2761 -0.7939  0.2982
30069SOL     OW96043   1.542   3.840   1.641 -0.1488  0.1949  0.4628
30069SOL    HW196044   1.607   3.797   1.585 -0.6637  1.2112 -0.9683
30069SOL    HW296045   1.502   3.768   1.689 -0.4484 -0.8820 -1.2974
30070SOL     OW96046   7.427  10.744   4.171 -0.0066  0.2848 -0.5321
30070SOL    HW196047   7.403  10.675   4.233  0.1463 -0.5917 -1.4202
30070SOL    HW296048   7.513  10.774   4.199  0.1205 -0.2006 -0.4025
30071SOL     OW96049   7.607   1.969   9.456 -0.5472  0.4964 -0.4979
30071SOL    HW196050   7.695   1.970   9.418 -0.4693  0.7788 -0.3052
30071SOL    HW296051   7.553   2.013   9.391 -0.9344 -1.4186 -1.5607
30072SOL     OW96052  10.282   1.256   2.395 -0.8926  0.5045  0.8998
30072SOL    HW196053  10.217   1.241   2.464 -0.6039  1.6005  1.4294
30072SOL    HW296054  10.230   1.273   2.316 -1.2261 -1.4074  0.6647
30073SOL     OW96055   0.085   5.906  10.710 -0.0427  0.0407 -0.1106
30073SOL    HW196056   0.086   5.912  10.614  0.4695 -1.1355 -0.2001
30073SOL    HW296057   0.014   5.845  10.729 -0.5809  0.7837  0.3103
30074SOL     OW96058   5.995   6.156  11.158  0.1713 -0.0069  0.5554
30074SOL    HW196059   5.945   6.096  11.103  0.7494 -0.4037  0.4594
30074SOL    HW296060   5.936   6.176  11.231  0.9638 -2.9834  2.1714
30075SOL     OW96061   9.514   7.572   0.197 -0.5744 -0.2080  0.3264
30075SOL    HW196062   9.583   7.614   0.249  0.8771 -1.6438 -0.3581
30075SOL    HW296063   9.522   7.612   0.110  0.8424 -1.8007 -0.3413
30076SOL     OW96064   2.569   0.649   8.938  0.2592  0.0046  0.0586
30076SOL    HW196065   2.610   0.678   8.856  0.6665  0.5389  0.4478
30076SOL    HW296066   2.509   0.720   8.962  0.0403 -0.2099  0.1616
30077SOL     OW96067   6.733   4.162   2.152  0.1320  0.5916  0.2584
30077SOL    HW196068   6.806   4.186   2.209 -0.2898 -0.1631  1.1396
30077SOL    HW296069   6.773   4.140   2.069  0.7651  1.6553  0.2621
30078SOL     OW96070   0.230   0.679   3.007  0.1914 -0.3579  0.6941
30078SOL    HW196071   0.303   0.675   3.069  2.5665  0.3498 -1.8422
30078SOL    HW296072   0.215   0.773   2.994 -1.0674 -0.4956  1.0197
30079SOL     OW96073   6.542  11.656  11.894 -0.3291  0.1605 -0.0579
30079SOL    HW196074   6.453  11.652  11.929 -1.9325  1.0496 -3.5782
30079SOL    HW296075   6.561  11.750  11.887  0.3050  0.0037 -0.5691
30080SOL     OW96076   8.237   2.597   9.732 -0.3286  0.1203 -0.0249
30080SOL    HW196077   8.270   2.618   9.644  0.3232  0.5279  0.3086
30080SOL    HW296078   8.281   2.515   9.755 -0.6567 -0.0959 -0.1541
30081SOL     OW96079   3.414  11.318   7.931  0.2043  0.0961  0.5007
30081SOL    HW196080   3.341  11.373   7.961  0.0227  0.3704 -0.4005
30081SOL    HW296081   3.466  11.376   7.875  0.0615 -0.6142 -0.3858
30082SOL     OW96082  10.892  10.161   4.269  0.3762  0.2747 -0.0961
30082SOL    HW196083  10.856  10.086   4.317 -0.7920  0.9350  0.1111
30082SOL    HW296084  10.946  10.207   4.333 -2.7108  2.2484  1.3313
30083SOL     OW96085   2.390   8.643   5.774 -0.1937 -0.1209 -0.0145
30083SOL    HW196086   2.471   8.592   5.773 -0.1762 -0.3808  3.0944
30083SOL    HW296087   2.324   8.584   5.811 -0.8226  1.2248  1.1129
30084SOL     OW96088   9.389  11.768  11.005  0.8974  0.2732  0.0719
30084SOL    HW196089   9.352  11.703  11.065 -0.8352  0.1193 -1.0963
30084SOL    HW296090   9.315  11.821  10.979  1.2355 -0.6670 -3.1839
30085SOL     OW96091   3.846   2.510  10.589  0.4530  0.2036 -0.2105
30085SOL    HW196092   3.769   2.493  10.643 -1.6535  0.9761 -2.7432
30085SOL    HW296093   3.882   2.592  10.623 -0.4406  0.3616  0.3877
30086SOL     OW96094   4.332  10.403   7.199  0.3389  0.7154  0.0466
30086SOL    HW196095   4.390  10.452   7.257 -0.1012  0.4431  0.7183
30086SOL    HW296096   4.348  10.440   7.112  0.9868  1.1330  0.3410
30087SOL     OW96097   1.355   0.638   7.326 -0.4769  0.0413 -0.1638
30087SOL    HW196098   1.403   0.650   7.245 -0.0816  0.8475  0.1784
30087SOL    HW296099   1.422   0.615   7.391 -0.7756 -0.4949 -0.0331
30088SOL     OW96100   3.502  10.228   5.913  0.0642 -0.5595  0.4749
30088SOL    HW196101   3.513  10.142   5.873 -1.4963 -1.1326  1.1911
30088SOL    HW296102   3.411  10.252   5.893  0.1819  0.4795  1.1110
30089SOL     OW96103   5.204   4.715  10.685  0.0477  0.5726 -0.0409
30089SOL    HW196104   5.262   4.677  10.620 -1.3754  0.3829 -1.2512
30089SOL    HW296105   5.174   4.797  10.646 -2.4425 -0.5095 -0.6169
30090SOL     OW96106  10.583   6.525   1.045  0.4197 -0.4671 -0.0072
30090SOL    HW196107  10.492   6.512   1.072  0.0414  0.0705 -0.9542
30090SOL    HW296108  10.591   6.475   0.964 -0.2010  2.4712 -2.0447
30091SOL     OW96109   6.065   5.942  11.560 -0.1680 -0.9709  0.2807
30091SOL    HW196110   6.114   6.017  11.595 -0.6370 -0.9152  0.8431
30091SOL    HW296111   5.984   5.941  11.612  0.2712 -2.4882  0.9999
30092SOL     OW96112   2.552   6.228   0.899 -0.0959 -0.7152  0.3467
30092SOL    HW196113   2.546   6.319   0.868  2.4842 -0.9025 -0.9705
30092SOL    HW296114   2.492   6.224   0.973 -0.5236  1.9719  0.2509
30093SOL     OW96115   2.764  11.306   3.668  0.1805 -0.5871  0.0435
30093SOL    HW196116   2.737  11.214   3.669  1.8110 -1.1333 -0.7259
30093SOL    HW296117   2.838  11.310   3.729  1.0798 -0.1580 -1.0224
30094SOL     OW96118   3.602  11.024   1.744 -0.0053 -0.3083  0.1157
30094SOL    HW196119   3.584  10.955   1.809  0.5476  0.3038  0.9384
30094SOL    HW296120   3.636  11.097   1.796  0.6293  0.1285 -0.9008
30095SOL     OW96121   9.639   2.403   1.361  0.4476 -0.0862  0.0048
30095SOL    HW196122   9.672   2.450   1.437 -0.3319 -0.0115  0.3113
30095SOL    HW296123   9.670   2.313   1.372 -1.3290 -0.5905  1.5117
30096SOL     OW96124   7.536   2.130   9.866  0.2337  0.0718  0.1295
30096SOL    HW196125   7.570   2.058   9.813  1.9338 -0.0887  1.3490
30096SOL    HW296126   7.449   2.101   9.892  0.0169 -0.5573 -1.1982
30097SOL     OW96127   6.482  10.695   9.095 -0.2369 -1.2053  0.6969
30097SOL    HW196128   6.492  10.746   9.176  0.0460  0.2711 -0.2227
30097SOL    HW296129   6.543  10.622   9.104 -0.6601 -1.4136  2.0642
30098SOL     OW96130   7.600   4.687  11.560  0.2172  0.5581  0.0856
30098SOL    HW196131   7.624   4.669  11.469 -0.0584 -1.2227  0.3089
30098SOL    HW296132   7.619   4.779  11.573  1.6518  0.5059 -1.3475
30099SOL     OW96133  10.628   9.959   2.393 -0.1343  0.6453  0.0361
30099SOL    HW196134  10.718   9.928   2.390  0.1913  1.2771  1.8915
30099SOL    HW296135  10.632  10.049   2.358 -0.0902  0.6049 -0.0648
30100SOL     OW96136   6.423   9.156   5.633 -0.1577  0.4666  0.2597
30100SOL    HW196137   6.390   9.071   5.603 -1.7781  0.8914  0.7161
30100SOL    HW296138   6.482   9.135   5.705 -0.8221 -0.2635  0.6039
30101SOL     OW96139   1.237   5.427   9.066  0.2571  0.4419 -0.3228
30101SOL    HW196140   1.193   5.462   8.989 -0.2710  2.1584  0.7023
30101SOL    HW296141   1.330   5.432   9.045  0.1149  0.7360 -0.9040
30102SOL     OW96142   9.796   9.271   4.168 -0.2110 -0.2023 -0.2093
30102SOL    HW196143   9.812   9.365   4.169  1.0917 -0.4157  0.5696
30102SOL    HW296144   9.854   9.237   4.099 -1.1786 -0.3715 -0.9651
30103SOL     OW96145   2.565   6.591   1.994  0.0714 -0.3069 -0.1881
30103SOL    HW196146   2.588   6.605   1.903 -3.1033 -0.0489 -1.0797
30103SOL    HW296147   2.516   6.509   1.995 -1.1428  0.3808  1.0114
30104SOL     OW96148   9.819   0.816   6.266 -0.4225  0.1483  0.0884
30104SOL    HW196149   9.858   0.745   6.316 -1.4333 -1.1876 -0.9420
30104SOL    HW296150   9.771   0.772   6.195  0.8334  1.9246 -2.0059
30105SOL     OW96151   2.209   0.084   5.670 -0.3986  0.2106  0.3299
30105SOL    HW196152   2.213   0.060   5.578  2.0638 -0.7300  0.5918
30105SOL    HW296153   2.187   0.002   5.715  0.1051  0.2610  0.6801
30106SOL     OW96154   6.815   1.894  11.276 -0.0448  0.4462 -0.2118
30106SOL    HW196155   6.749   1.963  11.272 -1.9979 -1.2192  0.9887
30106SOL    HW296156   6.813   1.865  11.367 -0.4452 -2.2006 -0.9811
30107SOL     OW96157  12.193  10.281  11.113 -0.0143  0.1987 -0.3799
30107SOL    HW196158  12.186  10.199  11.162 -2.1592 -0.1886 -1.2121
30107SOL    HW296159  12.175  10.349  11.178 -0.1982 -0.1298 -0.0825
30108SOL     OW96160   5.759   4.661   2.494  0.5899  0.6283 -0.2654
30108SOL    HW196161   5.806   4.656   2.577 -0.6461  0.5373  0.4408
30108SOL    HW296162   5.762   4.572   2.459 -0.7765  0.1485  0.7648
30109SOL     OW96163   3.416  11.786   6.789 -0.4341 -0.8627  0.5268
30109SOL    HW196164   3.340  11.758   6.738 -0.4674 -0.7729  0.5273
30109SOL    HW296165   3.447  11.705   6.832  0.5688 -1.2717 -0.9005
30110SOL     OW96166   6.850   5.432   2.103  0.0497 -0.1697 -0.0807
30110SOL    HW196167   6.846   5.527   2.109  1.5260 -0.1315  0.7583
30110SOL    HW296168   6.913   5.406   2.171  0.6426 -1.6367 -1.1304
30111SOL     OW96169   9.874   1.882  10.454  0.2766  0.1375  0.0763
30111SOL    HW196170   9.906   1.971  10.471  1.2766  0.1531 -1.5927
30111SOL    HW296171   9.877   1.875  10.358 -0.5201 -1.4414  0.1465
30112SOL     OW96172   1.686   8.682   2.317  0.1654 -0.1821  0.6149
30112SOL    HW196173   1.628   8.610   2.294  1.8012 -1.3132 -0.1127
30112SOL    HW296174   1.752   8.643   2.373  1.1357  0.7153  0.1313
30113SOL     OW96175   8.058   1.626   5.996  0.0567  0.0204  0.2846
30113SOL    HW196176   7.977   1.575   5.999  0.2517 -0.2671  0.8003
30113SOL    HW296177   8.060   1.662   5.908 -0.3520 -0.4332  0.0822
30114SOL     OW96178   0.307  10.431   4.707 -0.5919  0.0443 -0.5660
30114SOL    HW196179   0.228  10.443   4.760  0.8997 -0.8414  2.0475
30114SOL    HW296180   0.335  10.341   4.726  1.5508  0.6352 -0.6550
30115SOL     OW96181   9.071   1.699   0.410 -0.3970  0.3424 -0.0772
30115SOL    HW196182   9.159   1.726   0.386 -0.4195  0.8426  0.3908
30115SOL    HW296183   9.015   1.733   0.341 -0.0023 -1.8540 -1.5791
30116SOL     OW96184   2.718   8.564   3.200  0.1510  0.5351 -0.6805
30116SOL    HW196185   2.767   8.614   3.265 -0.7266 -0.8277  1.1339
30116SOL    HW296186   2.627   8.590   3.215 -0.2212 -0.9292 -0.2753
30117SOL     OW96187   3.543   0.838   4.829  0.0297 -0.1969  0.0638
30117SOL    HW196188   3.460   0.856   4.873 -0.2736  0.6966 -0.8249
30117SOL    HW296189   3.535   0.883   4.745  1.5128  0.1251  0.0682
30118SOL     OW96190   9.561   4.672  11.224  0.4610  0.4863  0.6538
30118SOL    HW196191   9.500   4.601  11.203  1.2325 -1.1911  3.6028
30118SOL    HW296192   9.506   4.742  11.260  0.0242  0.0888  0.7565
30119SOL     OW96193   9.923   2.312   5.396 -0.1850  0.4904 -0.6729
30119SOL    HW196194   9.915   2.319   5.491  0.4713  1.2122 -0.6608
30119SOL    HW296195   9.834   2.321   5.363 -0.3263  0.9872 -0.1651
30120SOL     OW96196   7.224   3.244   3.611  0.2596  0.3449 -0.2956
30120SOL    HW196197   7.251   3.259   3.702 -0.6266  1.1511 -0.1506
30120SOL    HW296198   7.253   3.322   3.564 -1.4690  1.1079 -0.1905
30121SOL     OW96199   4.272   6.295  10.700  0.0592  0.0938  0.3681
30121SOL    HW196200   4.181   6.316  10.721 -0.0271  2.1142 -1.6239
30121SOL    HW296201   4.323   6.365  10.740  0.6595 -0.4137  0.5189
30122SOL     OW96202   0.015   0.192   9.471 -0.6787 -0.2555 -0.6095
30122SOL    HW196203   0.055   0.105   9.464 -1.1296 -0.4725 -0.4982
30122SOL    HW296204   0.062   0.235   9.543 -0.5611 -0.4590 -0.5648
30123SOL     OW96205  11.877   5.578   2.575  0.5130  0.8340 -0.6986
30123SOL    HW196206  11.937   5.651   2.559  0.7746  0.9797  0.8425
30123SOL    HW296207  11.851   5.588   2.666 -0.6526 -0.1298 -0.9083
30124SOL     OW96208   5.652   9.548   7.079 -0.1160  0.3201 -0.3781
30124SOL    HW196209   5.629   9.476   7.020  0.7417 -0.1564 -0.1459
30124SOL    HW296210   5.585   9.615   7.063  0.4004  0.4175 -2.2690
30125SOL     OW96211   6.436   5.668   7.145 -0.1818 -0.0398 -0.1994
30125SOL    HW196212   6.474   5.726   7.210  1.4339  1.2031 -2.1308
30125SOL    HW296213   6.402   5.726   7.077 -3.2748 -1.2244  0.1567
30126SOL     OW96214   9.057   7.253   3.348  0.2655 -0.0740  0.2683
30126SOL    HW196215   9.141   7.280   3.313 -0.0227  0.7608  0.1880
30126SOL    HW296216   8.993   7.290   3.287 -0.1846 -0.0020  0.7765
30127SOL     OW96217   0.281   1.118   1.687 -0.2772 -0.1566 -0.0343
30127SOL    HW196218   0.223   1.050   1.655  1.5608 -1.8146 -0.0578
30127SOL    HW296219   0.246   1.142   1.773 -1.0619 -0.9851 -0.1160
30128SOL     OW96220   3.796  11.652   7.332  0.1302 -0.3352  0.0775
30128SOL    HW196221   3.804  11.615   7.420 -0.7305  0.0218  0.3246
30128SOL    HW296222   3.782  11.576   7.275  1.7016 -0.6581  0.0859
30129SOL     OW96223  11.414  10.663  12.105  0.1099  0.9413 -0.4943
30129SOL    HW196224  11.362  10.617  12.039  0.6407 -0.3730 -0.0296
30129SOL    HW296225  11.374  10.640  12.189  2.7545 -2.1457  0.1215
30130SOL     OW96226   6.966  11.525   1.096 -0.7626  0.2702  0.1411
30130SOL    HW196227   6.904  11.532   1.023  0.1150  0.4487 -0.6084
30130SOL    HW296228   7.001  11.614   1.105 -1.1459  0.3412  1.0497
30131SOL     OW96229  10.311   1.475   6.760  0.4780 -0.6645  0.4643
30131SOL    HW196230  10.284   1.513   6.677  1.1568  1.6197  1.2139
30131SOL    HW296231  10.405   1.459   6.750  1.0241  1.6014  1.4210
30132SOL     OW96232   8.750  12.191   2.272 -0.1660 -0.1893 -0.2232
30132SOL    HW196233   8.663  12.209   2.308 -1.3104 -2.2912 -1.7384
30132SOL    HW296234   8.793  12.139   2.340 -1.2279 -1.6771 -0.6493
30133SOL     OW96235   5.289   4.238  10.166 -0.2362  0.0348 -0.1322
30133SOL    HW196236   5.319   4.156  10.126 -1.4900 -0.5229  0.0346
30133SOL    HW296237   5.213   4.213  10.218 -1.1067  1.4257 -0.6892
30134SOL     OW96238  10.188   8.307   7.545 -0.0687 -0.0014 -0.5820
30134SOL    HW196239  10.151   8.386   7.585 -0.8147 -0.4140 -0.4369
30134SOL    HW296240  10.111   8.255   7.519  0.3952 -1.3210  0.5945
30135SOL     OW96241  11.160   5.732   8.479  0.1892 -0.0036  0.3508
30135SOL    HW196242  11.086   5.791   8.466  0.5967  0.4355 -0.0068
30135SOL    HW296243  11.149   5.665   8.411  0.1712  0.1114  0.2407
30136SOL     OW96244   8.765   7.974   7.315 -0.5635  0.7913  0.4240
30136SOL    HW196245   8.673   7.952   7.299  0.0631 -0.5694 -1.7146
30136SOL    HW296246   8.774   8.063   7.282 -0.7781  0.3069 -1.0511
30137SOL     OW96247  10.302   3.481   0.086  0.2968 -0.0273 -0.0945
30137SOL    HW196248  10.291   3.507   0.178 -0.2754  2.0229 -0.6883
30137SOL    HW296249  10.395   3.493   0.069  0.2246  0.6384 -0.0551
30138SOL     OW96250   6.664   9.089   4.957 -0.9209 -0.3207 -0.5751
30138SOL    HW196251   6.753   9.079   4.991 -1.3308  1.6727  1.3026
30138SOL    HW296252   6.627   9.001   4.959  0.1687 -0.7886  1.1068
30139SOL     OW96253   4.789   7.648  10.678  0.5281  0.8343  0.1185
30139SOL    HW196254   4.735   7.666  10.601  1.5944  0.8552 -0.6494
30139SOL    HW296255   4.847   7.577  10.650 -0.7424 -0.9192  1.7199
30140SOL     OW96256  11.016   0.955   3.080 -0.8141  0.1108  0.5509
30140SOL    HW196257  11.023   1.029   3.140 -0.1242 -0.9660  1.8728
30140SOL    HW296258  10.928   0.921   3.094 -0.4197 -0.5716  1.5495
30141SOL     OW96259   4.648   1.342   9.621 -0.3952  0.0697 -0.3172
30141SOL    HW196260   4.557   1.365   9.602 -0.4460  0.8278  0.7392
30141SOL    HW296261   4.650   1.326   9.716 -0.0684 -3.0942 -0.7548
30142SOL     OW96262   6.523   9.327   5.158  0.2746 -0.3073 -0.3120
30142SOL    HW196263   6.536   9.320   5.252  1.1196 -2.0044 -0.5139
30142SOL    HW296264   6.594   9.384   5.128  0.3198 -0.1923  0.0120
30143SOL     OW96265  10.321   1.130   4.396  0.0542 -0.1181  0.4387
30143SOL    HW196266  10.295   1.053   4.447  0.4657 -0.7086 -0.2198
30143SOL    HW296267  10.238   1.166   4.364 -0.1891  0.0940  1.2632
30144SOL     OW96268   9.881   9.803   7.184 -0.1378 -0.0918 -0.4287
30144SOL    HW196269   9.910   9.891   7.207 -2.3634  1.1907 -2.0816
30144SOL    HW296270   9.880   9.803   7.088  0.0934 -2.0417 -0.4605
30145SOL     OW96271  11.777   7.813  11.304  0.1596 -0.4224 -0.2927
30145SOL    HW196272  11.765   7.908  11.303 -1.5786 -0.6154 -0.2005
30145SOL    HW296273  11.711   7.781  11.364  2.4011 -1.5364  1.7516
30146SOL     OW96274   4.149  11.604   0.383  0.1457 -0.0960  0.0787
30146SOL    HW196275   4.180  11.557   0.461 -0.4690  1.3219  1.2200
30146SOL    HW296276   4.228  11.616   0.330  0.7705 -0.2199  0.9458
30147SOL     OW96277   7.344   3.505  11.814 -0.1511  0.5695 -0.3771
30147SOL    HW196278   7.272   3.442  11.808 -0.9328  1.4763 -0.7907
30147SOL    HW296279   7.318   3.563  11.886  0.1361  0.9456 -0.5745
30148SOL     OW96280  11.646   8.604   0.827 -0.3289 -0.2109  0.2464
30148SOL    HW196281  11.607   8.681   0.869  0.0032 -0.5574  1.2074
30148SOL    HW296282  11.721   8.582   0.881 -0.3376 -1.1314 -0.0989
30149SOL     OW96283   1.991   0.560   7.020 -0.1056 -0.0758 -0.4343
30149SOL    HW196284   1.988   0.648   7.056 -0.9188 -0.1633 -0.2592
30149SOL    HW296285   2.079   0.528   7.040  0.1152  0.6089 -0.3039
30150SOL     OW96286   7.407  11.928   6.220 -0.0456  0.2071  0.1121
30150SOL    HW196287   7.430  11.942   6.128  0.8424  0.8256  0.4139
30150SOL    HW296288   7.342  11.996   6.239 -1.5808 -1.0344 -0.5226
30151SOL     OW96289   7.415   5.649  12.056  0.2432  0.3506 -0.4371
30151SOL    HW196290   7.338   5.681  12.104  0.0903 -0.3610 -0.1932
30151SOL    HW296291   7.467   5.727  12.039 -1.0033  0.9793 -1.4428
30152SOL     OW96292   5.409   4.939   6.330 -0.0379 -0.3614  0.3752
30152SOL    HW196293   5.337   4.969   6.274 -0.1911 -0.0446  0.7370
30152SOL    HW296294   5.468   5.014   6.335  0.7464 -0.8966 -0.6053
30153SOL     OW96295   4.559   9.809   8.327  0.3008  0.2320 -0.2180
30153SOL    HW196296   4.489   9.744   8.320  0.5977  0.0121 -1.5233
30153SOL    HW296297   4.532   9.880   8.267  0.4590  0.8563  0.4360
30154SOL     OW96298   7.945   3.358  12.329  0.1896 -0.0810 -0.3100
30154SOL    HW196299   8.038   3.337  12.338  0.2712  0.0971 -0.6832
30154SOL    HW296300   7.941   3.415  12.252 -0.0053  1.4336  0.7863
30155SOL     OW96301  10.312   0.160   7.502  0.8189 -1.1229  0.4608
30155SOL    HW196302  10.246   0.189   7.439  3.2347  0.6379 -1.5136
30155SOL    HW296303  10.281   0.190   7.587  0.1064  1.7121 -0.7029
30156SOL     OW96304   7.335   4.126  11.036  0.2224 -0.1135 -0.3439
30156SOL    HW196305   7.351   4.206  10.986  0.4590 -0.3897 -0.7195
30156SOL    HW296306   7.397   4.063  11.000 -1.2364 -1.0315 -1.3955
30157SOL     OW96307   4.011   0.601  11.323  0.6397  0.1049  0.2105
30157SOL    HW196308   4.103   0.578  11.334  1.2205  1.9682 -0.2492
30157SOL    HW296309   4.013   0.677  11.263 -1.3795 -1.4907 -2.0750
30158SOL     OW96310   2.916   4.881  11.322  0.2336 -0.3656  0.5031
30158SOL    HW196311   2.997   4.832  11.329  0.2837 -0.3032  0.3656
30158SOL    HW296312   2.916   4.915  11.232 -0.5108 -1.3549  0.1072
30159SOL     OW96313   4.485   5.322   8.853 -0.7970 -0.4558  0.7401
30159SOL    HW196314   4.564   5.308   8.905 -1.0897  0.6237  1.5086
30159SOL    HW296315   4.500   5.272   8.773  0.8384  0.0155  0.7048
30160SOL     OW96316   6.079   8.313   9.707  0.2954 -0.1415 -0.1359
30160SOL    HW196317   6.061   8.389   9.762  0.1943  0.3397 -0.8214
30160SOL    HW296318   6.174   8.315   9.694  0.4350 -0.7567  0.7282
30161SOL     OW96319   6.759   9.979   4.068 -0.1396  0.6868  0.4100
30161SOL    HW196320   6.845   9.949   4.097 -0.0442  0.2981 -0.2425
30161SOL    HW296321   6.725  10.029   4.141  0.5507  0.6552  0.7615
30162SOL     OW96322   1.100   3.605   7.423 -0.3594  0.0005  0.6746
30162SOL    HW196323   1.036   3.650   7.368 -0.0393 -1.0708 -0.6162
30162SOL    HW296324   1.150   3.676   7.465 -1.4158  0.8337  0.5560
30163SOL     OW96325   5.077   9.753  10.510 -0.1199  0.2615 -0.6407
30163SOL    HW196326   5.038   9.669  10.533  1.2658 -0.5835 -1.2867
30163SOL    HW296327   5.067   9.759  10.415 -2.9312  2.2671 -0.3617
30164SOL     OW96328   0.715  11.557  10.722 -0.8433 -0.8899  0.0248
30164SOL    HW196329   0.665  11.615  10.779  0.6478 -1.0780  1.6212
30164SOL    HW296330   0.766  11.616  10.666 -1.0810 -0.6766  0.0341
30165SOL     OW96331   0.589   0.442  12.149 -0.4573  0.1301  0.4545
30165SOL    HW196332   0.547   0.430  12.235 -0.4338 -0.4856  0.3853
30165SOL    HW296333   0.634   0.526  12.156 -1.4609  0.6692  0.6283
30166SOL     OW96334  11.095  11.028   4.217 -0.2805 -0.5464 -0.2155
30166SOL    HW196335  11.138  11.113   4.209 -1.9940  0.4842  0.8614
30166SOL    HW296336  11.147  10.969   4.162  1.6761  0.8988 -0.0059
30167SOL     OW96337   3.044   3.683  12.059 -0.4029 -0.1303  0.6438
30167SOL    HW196338   3.122   3.699  12.112 -0.0327 -0.3063  0.1602
30167SOL    HW296339   2.996   3.766  12.061  1.5968  1.2360 -2.0171
30168SOL     OW96340   6.194  11.854   2.491  0.4866  0.2780 -0.4176
30168SOL    HW196341   6.106  11.889   2.497  1.0168  1.5495  0.3218
30168SOL    HW296342   6.184  11.772   2.443 -0.9814  0.7658 -0.9955
30169SOL     OW96343   5.103   8.493   6.523 -0.1128 -0.1470  0.5526
30169SOL    HW196344   5.148   8.492   6.607 -0.8794 -0.2748  0.9734
30169SOL    HW296345   5.140   8.568   6.476  0.3556 -0.1062  0.9849
30170SOL     OW96346  11.498   2.857   3.936 -0.3525  0.2235  0.0851
30170SOL    HW196347  11.528   2.766   3.943 -3.6338 -0.8610  2.1873
30170SOL    HW296348  11.435   2.856   3.864  1.2153  1.4498 -1.3804
30171SOL     OW96349   4.303   1.668  11.843  0.1993 -0.5589 -0.1781
30171SOL    HW196350   4.335   1.692  11.756  0.5093 -0.4441 -0.0310
30171SOL    HW296351   4.326   1.576  11.852  1.5624 -0.1847  0.4014
30172SOL     OW96352  11.173   1.374   2.328 -0.1868 -0.0731 -0.1265
30172SOL    HW196353  11.217   1.364   2.244 -0.2239 -0.6460 -0.0841
30172SOL    HW296354  11.105   1.306   2.328  1.9279 -2.3903  1.6835
30173SOL     OW96355   4.102   2.049  10.047 -0.2819  0.3896 -0.1599
30173SOL    HW196356   4.092   2.140  10.077 -0.6881 -0.0076  0.9800
30173SOL    HW296357   4.196   2.039  10.032 -0.2141  0.9522 -0.1396
30174SOL     OW96358   9.207   2.192   2.467  0.3277  0.3671  0.0062
30174SOL    HW196359   9.257   2.266   2.501  0.6569 -1.0498  2.9943
30174SOL    HW296360   9.169   2.224   2.385  0.5227  3.7831  1.0721
30175SOL     OW96361   5.799   9.335   7.988  0.1532 -0.0163  0.2874
30175SOL    HW196362   5.704   9.345   7.976  0.1209 -0.1841  0.3999
30175SOL    HW296363   5.832   9.319   7.900 -0.0142 -0.6738  0.3354
30176SOL     OW96364   8.986  11.437   8.853  0.0496 -0.1826  0.1240
30176SOL    HW196365   8.946  11.360   8.814 -2.3938  0.3002  1.4410
30176SOL    HW296366   9.005  11.411   8.943 -0.4522  0.5824  0.4711
30177SOL     OW96367   1.314  11.851   6.278  0.7123 -0.0821 -0.4015
30177SOL    HW196368   1.270  11.770   6.253  1.2324 -0.1878 -1.0266
30177SOL    HW296369   1.332  11.895   6.194  0.1647  0.8243 -0.0589
30178SOL     OW96370   3.875   2.312   1.207 -0.6545  0.5692  0.0781
30178SOL    HW196371   3.963   2.284   1.232 -0.8854  1.3742  2.0281
30178SOL    HW296372   3.884   2.345   1.118  0.3861 -2.0385 -0.8829
30179SOL     OW96373   1.696   1.831  10.312 -0.3718 -0.2663 -0.2473
30179SOL    HW196374   1.637   1.850  10.238 -1.6200 -0.3436  0.6898
30179SOL    HW296375   1.638   1.798  10.380  0.2454  2.6375  1.8766
30180SOL     OW96376   0.979   5.513   6.450  0.2150  0.2817 -0.4388
30180SOL    HW196377   1.062   5.561   6.443 -0.1720  0.9464 -0.6356
30180SOL    HW296378   0.922   5.572   6.499  0.4733 -1.0348  1.5503
30181SOL     OW96379   0.299   2.925   0.390  0.3463 -0.0941  0.0916
30181SOL    HW196380   0.208   2.943   0.369  0.5833  0.9058 -0.0989
30181SOL    HW296381   0.313   2.835   0.359  0.5078  1.0654 -3.5513
30182SOL     OW96382  10.679  10.831   8.608  0.5796  0.4395  0.2610
30182SOL    HW196383  10.735  10.805   8.535  0.3868 -1.1487  0.6542
30182SOL    HW296384  10.591  10.805   8.581  0.4594  0.1613  0.9092
30183SOL     OW96385   4.782  10.711   8.427  0.1419  0.9000  0.0349
30183SOL    HW196386   4.862  10.660   8.443  0.9935  1.5164 -2.0384
30183SOL    HW296387   4.719  10.676   8.491  1.6352 -0.5464  0.7959
30184SOL     OW96388   9.458   8.978   0.331  0.3547  0.4306 -0.2919
30184SOL    HW196389   9.496   9.004   0.247  2.8979  0.5754  0.8295
30184SOL    HW296390   9.515   8.910   0.364 -1.1129 -0.2649  0.9562
30185SOL     OW96391  10.621   6.183   2.924 -0.0841  0.1581 -0.1919
30185SOL    HW196392  10.593   6.118   2.860  1.1759  0.0275 -0.6383
30185SOL    HW296393  10.629   6.134   3.006 -0.6692  0.1008 -0.1627
30186SOL     OW96394   4.454   2.043  11.875 -0.4248 -0.7581  0.1126
30186SOL    HW196395   4.404   2.117  11.910 -1.7018 -1.5794  0.1089
30186SOL    HW296396   4.485   1.996  11.952  1.4205  0.3919  0.1349
30187SOL     OW96397   6.089  10.738  10.178 -0.3735 -0.4160 -0.1354
30187SOL    HW196398   6.066  10.679  10.250  1.0840 -0.0301  0.6866
30187SOL    HW296399   6.121  10.680  10.109  1.3291 -0.6246  0.7766
30188SOL     OW96400   9.563   5.356   7.932 -0.2701 -0.5217  0.0116
30188SOL    HW196401   9.519   5.289   7.881  1.3759 -1.9195  0.3342
30188SOL    HW296402   9.653   5.358   7.898  0.0204  0.7335  0.7648
30189SOL     OW96403   8.525   4.590   1.364  0.0858  0.3186  0.3320
30189SOL    HW196404   8.594   4.649   1.395 -0.8334  1.3166  0.5671
30189SOL    HW296405   8.496   4.628   1.281  0.1502 -0.3710 -0.0130
30190SOL     OW96406   8.764   0.690   6.627  0.4145 -0.3381  0.5882
30190SOL    HW196407   8.751   0.598   6.647 -1.4742 -0.2264  0.0544
30190SOL    HW296408   8.686   0.734   6.661  0.9500  0.9628  0.2174
30191SOL     OW96409   7.970   3.055   6.274  0.1247  0.0848 -0.2801
30191SOL    HW196410   7.989   3.071   6.181  0.4461 -1.4350 -0.5022
30191SOL    HW296411   7.896   2.994   6.272  0.9074 -0.9065  0.4301
30192SOL     OW96412  11.700   2.015   4.788  0.1428 -0.2721 -0.1508
30192SOL    HW196413  11.765   2.015   4.717  0.1365  0.4083 -0.1651
30192SOL    HW296414  11.632   1.956   4.757 -0.0951  0.3942 -0.9479
30193SOL     OW96415   3.371   1.188  10.718 -0.4295 -0.6093 -0.2339
30193SOL    HW196416   3.308   1.150  10.656  1.2820 -1.6061 -1.4445
30193SOL    HW296417   3.348   1.281  10.720 -3.1512 -1.1884  0.9114
30194SOL     OW96418   7.869   2.633   9.694 -0.4322  0.4453  0.1306
30194SOL    HW196419   7.946   2.678   9.729 -0.1208  0.2254 -0.2620
30194SOL    HW296420   7.799   2.699   9.697  0.4464  1.5720 -2.0893
30195SOL     OW96421   5.330   1.013   8.258  0.7098  0.0823  0.2384
30195SOL    HW196422   5.261   1.064   8.217  1.4192  1.9502  1.2343
30195SOL    HW296423   5.299   0.997   8.347  1.9377  1.9113  1.0630
30196SOL     OW96424  10.726   3.582   4.845 -0.3083  0.1225  0.0582
30196SOL    HW196425  10.741   3.565   4.752 -3.1552 -0.1051 -0.4242
30196SOL    HW296426  10.799   3.538   4.889  0.5575 -0.6079 -1.9841
30197SOL     OW96427   0.517  10.654   6.581  0.3020 -0.1527 -0.2652
30197SOL    HW196428   0.532  10.560   6.569  1.9308  0.1146 -0.5530
30197SOL    HW296429   0.424  10.661   6.603 -0.2003 -1.6915 -1.6950
30198SOL     OW96430  10.819   0.162   0.274 -0.0898  0.2094  0.3294
30198SOL    HW196431  10.742   0.189   0.224 -0.3677 -0.3861  0.4262
30198SOL    HW296432  10.783   0.116   0.349  0.3833 -2.2084 -0.8413
30199SOL     OW96433  11.379   7.657   5.503  0.6297 -0.2779 -0.1283
30199SOL    HW196434  11.472   7.645   5.483  0.2078 -1.8031 -1.3330
30199SOL    HW296435  11.345   7.569   5.516 -1.3936 -0.1845 -3.4802
30200SOL     OW96436   2.595   4.029   5.308  0.1378  0.0868  0.8489
30200SOL    HW196437   2.595   4.081   5.389  2.4517  2.9665 -0.7982
30200SOL    HW296438   2.668   3.967   5.320 -1.6071 -1.8741  2.1562
30201SOL     OW96439   7.283   8.290   2.481 -0.0340 -0.8725  0.4025
30201SOL    HW196440   7.236   8.210   2.507 -0.4875 -0.4281  0.9676
30201SOL    HW296441   7.370   8.259   2.455 -0.7110 -1.7436 -0.9421
30202SOL     OW96442  10.449   1.997  10.049  0.1972 -0.0457  0.9266
30202SOL    HW196443  10.369   2.031  10.009  1.1091  1.6744  0.4987
30202SOL    HW296444  10.470   1.919   9.997 -0.9372 -0.2685  0.7711
30203SOL     OW96445   9.234   5.483   0.671  0.6907  0.2046  0.0584
30203SOL    HW196446   9.188   5.462   0.752  1.8117 -0.3202  0.5874
30203SOL    HW296447   9.275   5.568   0.689  0.9916  0.0584  0.0840
30204SOL     OW96448   9.209   1.020   3.069 -0.5350  0.5427  0.0088
30204SOL    HW196449   9.184   1.001   2.979 -1.3134 -0.1373  0.3658
30204SOL    HW296450   9.151   1.092   3.096  0.1628  1.2155 -0.2480
30205SOL     OW96451   0.542   0.119   6.238  0.1431  0.5910  0.4190
30205SOL    HW196452   0.538   0.160   6.325 -0.7064  0.3913  0.4821
30205SOL    HW296453   0.451   0.102   6.215  0.4686 -1.5425  0.5186
30206SOL     OW96454   9.578   9.742   8.729 -0.1564 -0.7064 -0.3726
30206SOL    HW196455   9.629   9.820   8.706 -1.3529 -0.5160 -2.6937
30206SOL    HW296456   9.635   9.692   8.787  0.6659  1.8331  1.1367
30207SOL     OW96457  11.353   0.808  10.753  0.5324 -0.0158 -0.5625
30207SOL    HW196458  11.257   0.812  10.748  0.4722 -0.2888  0.1265
30207SOL    HW296459  11.382   0.899  10.745  0.2224  0.0503 -0.9322
30208SOL     OW96460   7.965   1.666   9.211 -0.5930  0.2720 -0.0576
30208SOL    HW196461   8.026   1.709   9.271  0.4588 -0.6759 -0.4158
30208SOL    HW296462   7.982   1.708   9.126  1.1141 -1.3927 -0.6213
30209SOL     OW96463   2.117   2.608   8.545 -0.0451  0.5761  0.5825
30209SOL    HW196464   2.157   2.544   8.486 -2.1963 -1.7005  1.4293
30209SOL    HW296465   2.190   2.662   8.576  1.7671 -1.0479 -0.6900
30210SOL     OW96466   7.482   7.956  12.159 -0.2056  0.1464  0.3130
30210SOL    HW196467   7.435   8.038  12.142  0.6729  0.8111  1.0244
30210SOL    HW296468   7.549   7.952  12.091 -2.2233 -1.6210 -1.7372
30211SOL     OW96469   8.180   9.080   4.467 -0.1592 -0.3120 -0.0403
30211SOL    HW196470   8.267   9.120   4.477 -0.3455  0.4032 -1.1372
30211SOL    HW296471   8.190   9.021   4.392 -0.7450  0.1382 -0.4763
30212SOL     OW96472   2.237   5.393   9.379  0.2974 -0.0279  0.7165
30212SOL    HW196473   2.221   5.337   9.303 -0.7206  2.6291 -1.2099
30212SOL    HW296474   2.191   5.350   9.451 -0.7244 -1.4818 -0.7238
30213SOL     OW96475   6.355   1.867   2.300  0.3809  0.5516 -0.1518
30213SOL    HW196476   6.344   1.808   2.375  1.3071 -1.3241 -1.4152
30213SOL    HW296477   6.446   1.856   2.274  1.0934  3.8895  0.5771
30214SOL     OW96478   1.351   3.552   9.543  0.2677 -0.6117 -0.1212
30214SOL    HW196479   1.393   3.466   9.541  0.1285 -0.6832 -1.5437
30214SOL    HW296480   1.348   3.579   9.451 -0.8879  0.3346  0.1653
30215SOL     OW96481  10.882   9.806   6.725  0.3112 -0.3311 -0.0955
30215SOL    HW196482  10.926   9.771   6.648  0.1441  0.3519 -0.5100
30215SOL    HW296483  10.910   9.749   6.797  0.1302 -1.2244 -0.7257
30216SOL     OW96484   0.823   6.813   2.394 -0.2533  0.3081 -0.4058
30216SOL    HW196485   0.874   6.780   2.320  2.6787 -0.6838  1.8618
30216SOL    HW296486   0.888   6.845   2.456 -2.6699  3.1485  0.9277
30217SOL     OW96487   7.606  11.471   6.933  0.6707  0.8471 -0.1190
30217SOL    HW196488   7.511  11.478   6.929  0.3305 -1.6656  1.2408
30217SOL    HW296489   7.631  11.439   6.847  0.1115  0.2016 -0.0483
30218SOL     OW96490   4.174   2.563   3.036  0.0971 -0.2107 -0.3592
30218SOL    HW196491   4.139   2.480   3.071  0.0722  0.5216  1.4662
30218SOL    HW296492   4.099   2.622   3.035  0.5639  0.4107  0.4349
30219SOL     OW96493  11.842   9.269   4.270 -0.3840 -0.3489 -0.5370
30219SOL    HW196494  11.753   9.238   4.250 -0.5349  0.7648 -1.7098
30219SOL    HW296495  11.849   9.260   4.365 -1.0985 -2.1339 -0.6081
30220SOL     OW96496   8.544  12.135   0.025 -0.8701 -0.1856  0.0026
30220SOL    HW196497   8.532  12.042   0.043 -0.0776 -0.1912  0.5456
30220SOL    HW296498   8.622  12.160   0.075 -1.1422  0.7971 -0.0335
30221SOL     OW96499  10.290   9.644   1.012  0.3226  0.7828 -0.0334
30221SOL    HW196500  10.346   9.661   1.089  1.2414 -0.6822 -0.3432
30221SOL    HW296501  10.205   9.622   1.049  0.2849  1.7590  0.4960
30222SOL     OW96502  12.197   1.474   4.840 -0.3635  0.2424  0.7044
30222SOL    HW196503  12.115   1.426   4.837 -0.6434  0.7393 -0.7801
30222SOL    HW296504  12.192   1.528   4.919 -1.6723  0.6183  0.3765
30223SOL     OW96505   8.872   4.233  11.102  0.1407  0.2401  0.2016
30223SOL    HW196506   8.918   4.151  11.086  0.1580  0.9284 -5.0379
30223SOL    HW296507   8.785   4.221  11.063 -0.1007  2.4535 -0.1194
30224SOL     OW96508   3.234   4.533   2.054  0.2191  0.1188  0.1813
30224SOL    HW196509   3.254   4.569   2.140 -0.2825  1.4147 -0.2097
30224SOL    HW296510   3.190   4.451   2.071 -1.8273  1.3616  1.2634
30225SOL     OW96511   5.642   1.365   5.629 -0.1358  0.4745 -0.0259
30225SOL    HW196512   5.548   1.367   5.612 -0.5110  0.1033  1.7350
30225SOL    HW296513   5.664   1.272   5.634 -0.1725  0.5173  1.7556
30226SOL     OW96514   7.948   4.754   5.317 -0.4420 -0.1241 -0.1063
30226SOL    HW196515   7.968   4.781   5.227 -1.4665 -0.0600 -0.3265
30226SOL    HW296516   7.929   4.836   5.362 -3.8956 -0.3709 -0.8593
30227SOL     OW96517   7.571   9.396   4.021  0.0238  0.1491 -0.4492
30227SOL    HW196518   7.551   9.305   4.042 -1.1063  1.0669  3.2394
30227SOL    HW296519   7.493   9.428   3.976  0.4712 -0.6613 -1.8667
30228SOL     OW96520   5.212   1.909   2.940  0.1479 -0.1969  0.0728
30228SOL    HW196521   5.226   1.857   2.861 -1.8381 -0.4776 -0.1294
30228SOL    HW296522   5.187   1.845   3.007 -3.2022  0.4469 -0.3945
30229SOL     OW96523   0.054   2.043   2.480  0.4953  0.3235 -0.2892
30229SOL    HW196524  -0.041   2.047   2.487  0.2651 -0.1086 -2.4806
30229SOL    HW296525   0.080   2.130   2.449  0.3808 -0.5410 -3.0638
30230SOL     OW96526   4.792   7.032   7.860  0.4227 -0.5284  0.2444
30230SOL    HW196527   4.834   6.956   7.901  0.5612 -0.7509 -0.2991
30230SOL    HW296528   4.791   7.099   7.928 -0.5063 -1.3011  1.0085
30231SOL     OW96529  10.495   9.905   3.659 -0.0976 -0.0810  0.4589
30231SOL    HW196530  10.410   9.925   3.620 -0.2771 -1.2263  0.2174
30231SOL    HW296531  10.556   9.907   3.586 -0.2216 -0.9694  0.3162
30232SOL     OW96532  10.747   1.067   3.138 -0.3340 -0.0791 -0.3363
30232SOL    HW196533  10.688   1.003   3.180 -1.5167  0.9093 -0.4238
30232SOL    HW296534  10.777   1.122   3.210 -0.4568  0.1461 -0.4572
30233SOL     OW96535   6.946   1.449   9.189  0.4409 -0.3850  0.2612
30233SOL    HW196536   7.015   1.401   9.235  0.5235 -0.4443  0.0745
30233SOL    HW296537   6.980   1.538   9.182  0.2478 -0.2711  0.6914
30234SOL     OW96538   3.950  10.211  10.791  0.0987 -0.1328  0.1426
30234SOL    HW196539   4.041  10.234  10.776  0.1448 -0.9769 -1.0186
30234SOL    HW296540   3.954  10.139  10.854  0.1566  0.5899  0.9788
30235SOL     OW96541   0.259   6.603   8.162 -0.3630  0.3010 -0.1456
30235SOL    HW196542   0.216   6.524   8.130 -0.4134  0.8237 -1.3938
30235SOL    HW296543   0.347   6.599   8.125  0.1079  0.1496  0.9312
30236SOL     OW96544   7.489  10.529   1.365 -0.4576 -0.2070  0.2262
30236SOL    HW196545   7.533  10.583   1.299  1.9450 -1.2951  0.8376
30236SOL    HW296546   7.444  10.461   1.315 -0.5822  0.3185 -0.3844
30237SOL     OW96547   4.577  11.379   5.851 -0.4459 -0.3695 -0.7400
30237SOL    HW196548   4.507  11.338   5.901  0.2763 -2.4823 -1.3570
30237SOL    HW296549   4.647  11.394   5.915 -0.5817 -0.4392 -0.5752
30238SOL     OW96550   4.502  11.712   7.837 -0.0406 -0.0319  0.1289
30238SOL    HW196551   4.535  11.750   7.918  2.8687 -1.1572 -0.4197
30238SOL    HW296552   4.530  11.772   7.769  0.7166 -0.8581 -0.3213
30239SOL     OW96553   0.462   3.153   1.112 -0.1768 -0.1117  0.2825
30239SOL    HW196554   0.507   3.161   1.027 -0.5809 -1.7855 -0.1098
30239SOL    HW296555   0.530   3.124   1.173  0.0185  0.6842  0.4552
30240SOL     OW96556   1.365   1.667   2.598  0.5584  0.2126  0.6667
30240SOL    HW196557   1.300   1.598   2.584 -1.2985  1.7095  1.3569
30240SOL    HW296558   1.377   1.707   2.512  0.4855 -0.0131  0.5535
30241SOL     OW96559   6.991  12.285  11.151  0.4907 -0.6052 -0.0142
30241SOL    HW196560   6.974  12.318  11.063  1.3171 -0.4298 -0.1157
30241SOL    HW296561   7.048  12.209  11.138  0.8805 -0.3892  0.3830
30242SOL     OW96562   6.748   7.708   0.451 -0.2072  0.0302  0.3924
30242SOL    HW196563   6.781   7.628   0.491  1.4594  0.8378  0.7311
30242SOL    HW296564   6.654   7.694   0.442  0.0012 -1.8101  0.7637
30243SOL     OW96565   7.097   6.271  11.623  0.2664  0.4047  0.5838
30243SOL    HW196566   7.114   6.352  11.670  1.9433  1.5321 -1.7649
30243SOL    HW296567   7.034   6.295  11.555 -1.9489 -1.1289  1.9495
30244SOL     OW96568  10.364   1.784   1.787 -0.4100 -0.2032 -0.3535
30244SOL    HW196569  10.329   1.737   1.712  0.1019  0.8483 -1.2789
30244SOL    HW296570  10.416   1.719   1.834  0.3255 -0.5604 -1.6325
30245SOL     OW96571   1.878   9.918   3.934 -0.3836 -0.3878  0.2431
30245SOL    HW196572   1.819   9.989   3.909 -1.4105 -1.5182 -0.7137
30245SOL    HW296573   1.937   9.909   3.859 -0.4168 -0.6986  0.2536
30246SOL     OW96574  10.478   3.626   5.584  0.4559  0.2761 -0.2426
30246SOL    HW196575  10.554   3.595   5.536  0.9939  2.7139 -1.1415
30246SOL    HW296576  10.491   3.595   5.674  1.1040 -1.5911 -0.9434
30247SOL     OW96577   9.369   0.994   9.021 -0.0445  0.2270 -0.1204
30247SOL    HW196578   9.456   1.023   8.994  0.6347 -0.9038  0.7344
30247SOL    HW296579   9.342   1.058   9.087 -0.0026  0.7673 -0.6246
30248SOL     OW96580   2.465   5.928   3.727  0.0169 -0.2798  0.1940
30248SOL    HW196581   2.525   5.944   3.654  0.6151 -1.2407  0.4539
30248SOL    HW296582   2.480   5.837   3.751 -1.2030 -0.3921  0.5980
30249SOL     OW96583   0.395   9.581   9.100 -0.1215 -0.1684  0.7219
30249SOL    HW196584   0.481   9.623   9.101 -0.0294 -0.3640  1.2359
30249SOL    HW296585   0.405   9.505   9.043 -0.0980  0.1124  0.3536
30250SOL     OW96586   5.515   9.370   9.604 -0.6135  0.1457 -0.3786
30250SOL    HW196587   5.506   9.397   9.696  0.6694  1.0018 -0.4895
30250SOL    HW296588   5.471   9.285   9.600  1.4532 -1.1175  1.6152
30251SOL     OW96589   1.676  11.871   8.299 -0.2759  0.3541 -0.2230
30251SOL    HW196590   1.724  11.826   8.229  1.2478  2.3868 -0.5521
30251SOL    HW296591   1.607  11.919   8.254 -0.4696  0.1942 -0.1039
30252SOL     OW96592  10.533   7.852   7.584 -0.2934  0.0226 -0.0328
30252SOL    HW196593  10.486   7.777   7.547 -0.8282 -0.3939  1.4163
30252SOL    HW296594  10.464   7.912   7.613  0.0545 -0.2404  1.4110
30253SOL     OW96595   2.728   4.238   2.537 -0.2064 -0.3309  0.0479
30253SOL    HW196596   2.660   4.179   2.504 -1.5301  1.1436  0.0228
30253SOL    HW296597   2.712   4.321   2.491  0.2529  0.6876  1.6564
30254SOL     OW96598   2.148   3.761   2.905  0.4343 -0.2830 -0.5746
30254SOL    HW196599   2.211   3.752   2.834  0.4182 -0.1917 -0.6006
30254SOL    HW296600   2.068   3.792   2.862  0.2581 -0.7662 -0.5954
30255SOL     OW96601   4.263   2.187  11.068  0.1931 -0.2425 -0.6354
30255SOL    HW196602   4.236   2.263  11.017  2.8134  1.0115 -0.3465
30255SOL    HW296603   4.184   2.135  11.078 -1.0402  0.8944 -3.4735
30256SOL     OW96604  11.216   5.087   2.324  0.3873 -0.6090 -0.1827
30256SOL    HW196605  11.150   5.019   2.313 -2.2302  1.9427 -1.6375
30256SOL    HW296606  11.296   5.050   2.287 -0.2017 -3.7146  1.3640
30257SOL     OW96607   0.972   5.773   3.960 -0.3094  0.1108 -0.5143
30257SOL    HW196608   0.999   5.812   3.877 -0.7295  0.4932 -0.4699
30257SOL    HW296609   0.982   5.678   3.946  2.3265  0.2345 -0.0681
30258SOL     OW96610   7.635  10.082  11.799  0.2533  0.7228  0.1772
30258SOL    HW196611   7.639  10.140  11.875 -0.9394 -1.0001  1.6168
30258SOL    HW296612   7.660  10.138  11.725 -0.7052  3.0249  1.4998
30259SOL     OW96613   1.462  11.243  12.108  0.3763  0.3473 -0.0843
30259SOL    HW196614   1.481  11.214  12.198  1.2246  0.8014 -0.1098
30259SOL    HW296615   1.453  11.338  12.115  0.2095  0.3589 -0.4481
30260SOL     OW96616   3.646   5.316   0.402  0.3374 -0.4394  0.0988
30260SOL    HW196617   3.683   5.234   0.437 -0.5146 -1.3299 -1.0072
30260SOL    HW296618   3.554   5.312   0.425  0.2689  0.1718 -0.0601
30261SOL     OW96619   2.869   3.135   1.524 -0.5864  0.6847 -0.1836
30261SOL    HW196620   2.935   3.068   1.540  0.3027  1.0212 -2.2086
30261SOL    HW296621   2.815   3.134   1.603  0.6410 -0.9620  0.6993
30262SOL     OW96622   6.656   5.311   6.171 -0.3556  0.1818 -0.0118
30262SOL    HW196623   6.561   5.312   6.156 -0.3125  0.3212 -0.2808
30262SOL    HW296624   6.667   5.261   6.251 -0.7331  0.8659  0.4807
30263SOL     OW96625   0.606   2.662   5.818  0.4404  0.2952 -0.0501
30263SOL    HW196626   0.527   2.609   5.809  0.3107  0.7305 -1.9512
30263SOL    HW296627   0.659   2.616   5.883 -0.9183 -0.5565  0.4904
30264SOL     OW96628  11.556   4.617   0.936 -0.1962 -0.4757 -0.1992
30264SOL    HW196629  11.614   4.545   0.913 -1.0517 -0.5510 -2.2938
30264SOL    HW296630  11.533   4.601   1.028  2.8294 -0.5843  0.6464
30265SOL     OW96631   2.766   1.709   1.354 -0.2195 -0.4898 -0.2464
30265SOL    HW196632   2.810   1.629   1.325 -1.4675 -0.4467 -2.4335
30265SOL    HW296633   2.837   1.773   1.362  0.7657 -1.6799  1.2993
30266SOL     OW96634   3.160   2.611   3.605  0.1758 -0.2990 -0.3412
30266SOL    HW196635   3.089   2.559   3.566  0.5582 -0.1001 -1.3321
30266SOL    HW296636   3.235   2.596   3.548  1.4835 -1.8906  1.6250
30267SOL     OW96637   0.719  11.128  10.205  0.2777 -0.9123  0.1410
30267SOL    HW196638   0.809  11.112  10.179  0.6808  0.1900  0.7505
30267SOL    HW296639   0.726  11.165  10.294 -0.8158 -1.4968  0.4926
30268SOL     OW96640   4.699  11.178   9.446 -0.7530  0.3547 -0.5651
30268SOL    HW196641   4.719  11.140   9.361  0.3747 -0.1310 -0.0966
30268SOL    HW296642   4.624  11.235   9.429 -0.1028  0.8238 -2.0242
30269SOL     OW96643   6.426   4.793   5.255  0.4496  0.0745  0.2972
30269SOL    HW196644   6.432   4.794   5.159 -1.1740 -2.1142  0.1078
30269SOL    HW296645   6.372   4.717   5.275 -0.2181  1.1349  2.9207
30270SOL     OW96646  11.298   4.322   6.522  0.3588  0.0236 -0.2908
30270SOL    HW196647  11.311   4.235   6.559  0.2437 -0.0669 -0.4612
30270SOL    HW296648  11.386   4.360   6.517  0.3686  0.0622  0.1347
30271SOL     OW96649   2.321  10.025   4.867 -0.1118 -0.5199  0.1274
30271SOL    HW196650   2.406  10.009   4.910  0.0934 -0.3615 -0.2140
30271SOL    HW296651   2.303   9.944   4.819  0.2599 -0.2503 -0.4841
30272SOL     OW96652   3.770   3.873  11.052  0.0159  0.6497  0.2799
30272SOL    HW196653   3.862   3.877  11.029 -0.0492  1.3698  0.1124
30272SOL    HW296654   3.766   3.908  11.141  0.0986 -0.8972  0.9305
30273SOL     OW96655   3.051   6.075   4.657 -0.2473  0.3781  0.3859
30273SOL    HW196656   3.146   6.086   4.656 -0.2936  0.7818  0.4583
30273SOL    HW296657   3.037   6.003   4.718 -0.0360  0.8551  1.0096
30274SOL     OW96658   0.993   5.745   5.794 -0.2310 -0.0967 -0.1861
30274SOL    HW196659   1.017   5.825   5.747  1.7067  0.4928  1.6424
30274SOL    HW296660   0.899   5.751   5.805 -0.0393  2.5308  0.7940
30275SOL     OW96661  10.097   5.512   4.918  0.3211 -0.5370 -0.1273
30275SOL    HW196662  10.164   5.483   4.856  2.0649  1.8340  0.5359
30275SOL    HW296663  10.090   5.606   4.904 -0.8395 -0.2905  1.7739
30276SOL     OW96664  11.134   5.927  12.076  0.5114  0.5031  0.0999
30276SOL    HW196665  11.058   5.941  12.021  0.3254 -1.4950 -0.1987
30276SOL    HW296666  11.103   5.944  12.165 -0.7353 -1.7080  0.1465
30277SOL     OW96667   7.852   3.356   5.759 -0.0868 -0.2068 -0.1122
30277SOL    HW196668   7.939   3.332   5.728 -1.1821 -3.8981 -0.8170
30277SOL    HW296669   7.809   3.393   5.682 -0.2649 -1.9376 -0.8973
30278SOL     OW96670   6.842   3.128   2.918  0.1728  0.2412 -0.3174
30278SOL    HW196671   6.750   3.133   2.945  0.3215  1.9743 -0.0067
30278SOL    HW296672   6.840   3.083   2.833 -0.9362  0.1109 -0.2350
30279SOL     OW96673   2.578   6.556   7.290 -0.5128 -0.0029 -0.1630
30279SOL    HW196674   2.672   6.571   7.284 -0.6454  0.7245 -0.5660
30279SOL    HW296675   2.560   6.548   7.383 -0.1248  0.3617 -0.0579
30280SOL     OW96676   8.878   9.899   9.334 -0.4897  0.0876  0.0418
30280SOL    HW196677   8.811   9.867   9.274 -0.5557  0.1712  0.0706
30280SOL    HW296678   8.884   9.832   9.402 -0.5276  0.0691  0.0273
30281SOL     OW96679   1.865   8.958   8.890 -0.2594  0.6668  0.3759
30281SOL    HW196680   1.901   9.046   8.881  2.8696 -0.2205  2.6648
30281SOL    HW296681   1.899   8.925   8.973 -2.7230 -2.1364  0.4925
30282SOL     OW96682   4.087   7.014  10.916 -0.5991  0.2063 -0.2260
30282SOL    HW196683   4.096   7.109  10.916 -0.8062  0.2584  1.7612
30282SOL    HW296684   4.111   6.987  11.004 -0.3859 -1.6186 -0.7980
30283SOL     OW96685   3.231  10.093   3.496  0.2264 -0.2425 -0.0634
30283SOL    HW196686   3.198  10.047   3.573 -0.2802 -1.9877 -1.2652
30283SOL    HW296687   3.325  10.100   3.510  0.0445  0.1435  1.0411
30284SOL     OW96688   8.557  11.871   5.330 -0.1247 -0.2961  0.3779
30284SOL    HW196689   8.642  11.855   5.291 -0.9607 -1.4694 -1.0808
30284SOL    HW296690   8.518  11.941   5.277 -0.7247 -0.9416 -0.0522
30285SOL     OW96691  10.763  12.184   2.609 -0.5256  0.0481 -0.0639
30285SOL    HW196692  10.732  12.220   2.692  1.0089 -0.8650  0.9506
30285SOL    HW296693  10.780  12.261   2.554 -0.1058  0.7408  1.0135
30286SOL     OW96694   2.468   1.797   6.139 -0.5968  0.2624 -0.1324
30286SOL    HW196695   2.540   1.735   6.154 -1.2554 -0.1769  1.4190
30286SOL    HW296696   2.512   1.883   6.136  0.1665 -0.1401 -0.8666
30287SOL     OW96697   3.209   2.878   3.935 -0.2733  0.5332 -0.0781
30287SOL    HW196698   3.195   2.938   3.861  1.0253  1.9400  0.7588
30287SOL    HW296699   3.241   2.934   4.006  1.3548 -1.1954  0.6474
30288SOL     OW96700   2.709  11.850  11.810 -1.0542 -0.3591  0.2676
30288SOL    HW196701   2.699  11.944  11.826 -2.7981 -0.5822  0.6081
30288SOL    HW296702   2.714  11.811  11.897 -2.2953 -0.7648  0.1628
30289SOL     OW96703   1.102  12.256   3.874 -0.4263 -0.3679 -0.3302
30289SOL    HW196704   1.197  12.250   3.883 -0.3052 -2.2151 -2.2299
30289SOL    HW296705   1.082  12.349   3.887  1.6344  0.0722 -0.0529
30290SOL     OW96706  10.523  10.395   3.043  0.2302  0.2020 -0.1509
30290SOL    HW196707  10.466  10.435   3.110  0.5823 -1.0306  0.9153
30290SOL    HW296708  10.601  10.368   3.091 -0.2323 -2.3102 -0.6907
30291SOL     OW96709   1.777   7.322   9.514  0.3854 -0.4019  0.4295
30291SOL    HW196710   1.870   7.344   9.514  0.9569 -2.4407 -1.6101
30291SOL    HW296711   1.761   7.286   9.601  2.0598 -1.9466  0.1406
30292SOL     OW96712   5.615   8.632   8.210  0.4614 -0.5935  0.6752
30292SOL    HW196713   5.640   8.587   8.129  0.1961 -0.8501  0.7345
30292SOL    HW296714   5.538   8.683   8.186  1.7351  1.2079  0.1633
30293SOL     OW96715  10.446   0.602   9.566  0.0679 -0.0566 -0.5022
30293SOL    HW196716  10.532   0.617   9.605 -0.3824  2.5558 -0.3920
30293SOL    HW296717  10.456   0.629   9.475  0.4398 -3.8158 -1.7461
30294SOL     OW96718   7.754   9.891  11.325  0.8091  0.2900  0.0104
30294SOL    HW196719   7.714   9.843  11.252  2.7536 -0.8120 -0.4151
30294SOL    HW296720   7.681   9.909  11.384 -0.5069 -0.4949 -1.2808
30295SOL     OW96721   1.419   6.443  11.635 -0.0206 -0.2657 -0.1145
30295SOL    HW196722   1.409   6.350  11.654  0.1321  0.0087  1.3997
30295SOL    HW296723   1.332   6.470  11.605 -0.3412 -0.6846  0.4155
30296SOL     OW96724   8.725   1.750   4.294  0.6816 -0.0661 -0.2653
30296SOL    HW196725   8.715   1.779   4.384  1.6731  0.5176 -0.3307
30296SOL    HW296726   8.641   1.768   4.253  0.5851  0.6915  0.2619
30297SOL     OW96727   0.101   2.467   4.681 -0.4618 -0.2314 -0.2403
30297SOL    HW196728   0.046   2.397   4.715 -0.6969 -0.4295 -0.9950
30297SOL    HW296729   0.185   2.425   4.660 -0.3723 -0.1457 -0.0521
30298SOL     OW96730  12.265   4.827   6.422  0.3445 -0.1364  0.4172
30298SOL    HW196731  12.267   4.909   6.374  0.6083 -1.9707 -3.0070
30298SOL    HW296732  12.175   4.796   6.415  0.0311  0.1700  2.4251
30299SOL     OW96733   3.351   8.279  10.048  0.1283 -0.1164 -0.0145
30299SOL    HW196734   3.304   8.283  10.131  0.0640 -4.2197  0.3287
30299SOL    HW296735   3.441   8.258  10.072  0.1630 -1.1081 -0.9379
30300SOL     OW96736   9.964  11.917   6.325 -0.0576 -0.4328  0.0992
30300SOL    HW196737   9.883  11.918   6.273  0.8619 -1.0532 -1.4235
30300SOL    HW296738   9.934  11.909   6.415 -1.7349  0.8707 -0.2924
30301SOL     OW96739   3.270  11.216   4.919 -0.4554  0.1192 -0.1399
30301SOL    HW196740   3.192  11.225   4.864 -1.3742 -0.2870  1.0677
30301SOL    HW296741   3.332  11.168   4.865 -1.4267 -0.4820 -0.7454
30302SOL     OW96742   8.152   2.796   8.223  0.6295 -0.1365 -0.6831
30302SOL    HW196743   8.224   2.737   8.247 -0.3080 -0.6573  1.0757
30302SOL    HW296744   8.098   2.744   8.163  1.1872 -0.0996 -1.2245
30303SOL     OW96745   4.591   7.689   9.917 -0.2428  0.7408  0.0882
30303SOL    HW196746   4.645   7.707   9.840  1.3733  0.9155  1.2051
30303SOL    HW296747   4.543   7.609   9.894  0.9128  0.2551 -0.7757
30304SOL     OW96748   4.192   7.897  11.640  0.2775 -0.0162  0.1089
30304SOL    HW196749   4.103   7.933  11.633  0.7661  1.5399  1.3115
30304SOL    HW296750   4.240   7.937  11.567  0.0620 -0.7168 -0.4320
30305SOL     OW96751   3.368   9.185   4.490 -1.1687  0.6405 -0.2188
30305SOL    HW196752   3.381   9.099   4.530  0.4626  0.6949 -0.5641
30305SOL    HW296753   3.330   9.166   4.405 -0.4522  0.2225 -0.4542
30306SOL     OW96754   9.475   1.216   5.089 -0.3832  0.2565 -0.4843
30306SOL    HW196755   9.438   1.155   5.152 -0.9807  1.0867 -0.0172
30306SOL    HW296756   9.570   1.205   5.097 -0.3324  1.8234  2.0916
30307SOL     OW96757  11.476   2.720   0.141 -0.2256 -0.6388  0.0505
30307SOL    HW196758  11.452   2.717   0.048 -3.5778  0.0973  0.7566
30307SOL    HW296759  11.463   2.811   0.167 -0.6185 -1.0742  1.5054
30308SOL     OW96760   5.937   1.213   4.183  0.1684  0.0149 -0.2380
30308SOL    HW196761   6.000   1.141   4.183 -0.2701 -0.4096  1.2080
30308SOL    HW296762   5.903   1.214   4.273 -0.0501  1.8281 -0.3050
30309SOL     OW96763   3.728   7.765   7.026  0.1939  0.0375 -0.4599
30309SOL    HW196764   3.644   7.742   7.066  0.9642  1.0894  1.9116
30309SOL    HW296765   3.729   7.860   7.028  0.9258  0.0720 -1.6885
30310SOL     OW96766   4.436   2.926   4.603  0.3071 -0.3913  0.6903
30310SOL    HW196767   4.475   2.851   4.559  1.0907 -0.0938  0.8562
30310SOL    HW296768   4.509   2.986   4.617  0.1636 -0.6071  2.6610
30311SOL     OW96769   8.049   3.449  11.304 -0.7221  0.3830  0.4911
30311SOL    HW196770   8.132   3.401  11.307 -1.3001 -0.7531 -0.7302
30311SOL    HW296771   8.075   3.541  11.309  0.6675  0.0777 -0.3352
30312SOL     OW96772  11.826   4.405  11.066 -0.0470  0.1314  0.0883
30312SOL    HW196773  11.902   4.380  11.120 -0.5953  3.0558  2.4679
30312SOL    HW296774  11.864   4.441  10.986  1.0141  0.0469  0.5370
30313SOL     OW96775   1.306   6.414   1.739  0.5018  0.1206  0.7426
30313SOL    HW196776   1.390   6.436   1.700  1.2768 -0.8249  1.7926
30313SOL    HW296777   1.297   6.320   1.724  0.2005 -0.0048  1.6606
30314SOL     OW96778  10.898   5.138   2.951 -0.3609  0.3395 -1.0682
30314SOL    HW196779  10.876   5.215   3.003  0.6056  1.1549 -1.8239
30314SOL    HW296780  10.942   5.080   3.013 -0.4189  0.7189 -0.6631
30315SOL     OW96781   9.093  10.012  11.924  0.2950  0.0688 -0.1725
30315SOL    HW196782   9.041  10.072  11.978  1.2929  0.8406 -0.0500
30315SOL    HW296783   9.171   9.994  11.976  0.5449 -0.4083 -0.7058
30316SOL     OW96784   5.616   2.473   5.089  0.5219 -0.2675  0.2949
30316SOL    HW196785   5.564   2.496   5.166  0.0917 -0.3566  0.0317
30316SOL    HW296786   5.565   2.505   5.015  0.7590 -0.5132  0.0247
30317SOL     OW96787   9.542   3.462   7.306  0.2697  0.2697 -0.2259
30317SOL    HW196788   9.591   3.441   7.385  1.8067 -0.6669 -1.3728
30317SOL    HW296789   9.476   3.393   7.299  2.5389 -1.9174 -1.6808
30318SOL     OW96790  10.526   8.547   0.264  0.3156 -0.8666  0.2215
30318SOL    HW196791  10.603   8.593   0.296  1.2887 -0.9829 -1.7948
30318SOL    HW296792  10.470   8.538   0.341  1.4194  0.9707  1.3205
30319SOL     OW96793   7.332  10.303   7.429 -0.0087 -0.4782 -0.5706
30319SOL    HW196794   7.278  10.230   7.399 -0.5346 -0.5172  0.4460
30319SOL    HW296795   7.273  10.378   7.434 -0.5701 -1.0023  2.6220
30320SOL     OW96796   1.206  10.321  10.054 -0.1855  0.2131  0.3201
30320SOL    HW196797   1.182  10.372  10.132 -2.1704 -1.9722  1.2479
30320SOL    HW296798   1.125  10.313  10.005  0.4271 -0.7947 -0.5684
30321SOL     OW96799   2.984   2.705   9.456  0.0542 -0.1635  0.1628
30321SOL    HW196800   3.032   2.749   9.386 -0.9829 -0.4366 -0.7403
30321SOL    HW296801   2.892   2.724   9.438 -0.3577 -1.8407  0.3323
30322SOL     OW96802   3.811  10.762   2.073  0.0390 -0.5000 -0.3146
30322SOL    HW196803   3.819  10.698   2.003 -0.3571 -1.8575  0.8221
30322SOL    HW296804   3.745  10.725   2.132  1.7386 -0.4375  1.7854
30323SOL     OW96805   5.198   7.285   1.559  0.0785  0.3133  0.1714
30323SOL    HW196806   5.114   7.277   1.603  0.2276 -3.6384  0.0937
30323SOL    HW296807   5.180   7.267   1.467  0.9793 -0.8417  0.1933
30324SOL     OW96808   0.621   0.997   0.365 -0.1615 -0.0663 -0.0045
30324SOL    HW196809   0.687   0.944   0.322 -0.8123 -0.7100 -0.2431
30324SOL    HW296810   0.664   1.031   0.443  0.0815 -1.4883  0.5011
30325SOL     OW96811  11.663  10.253   0.935  0.0854 -0.2137 -0.5700
30325SOL    HW196812  11.688  10.262   0.843 -0.3333  0.4420 -0.6242
30325SOL    HW296813  11.593  10.187   0.934 -0.2907  0.1809 -0.7959
30326SOL     OW96814   4.796  11.106  10.681  0.3587 -0.0014 -0.5756
30326SOL    HW196815   4.760  11.183  10.724  0.8866  0.3746 -0.7902
30326SOL    HW296816   4.887  11.130  10.661  0.8379 -1.0311  0.2445
30327SOL     OW96817   8.980   8.868   2.596  0.1912  0.0922  0.2673
30327SOL    HW196818   8.962   8.893   2.505 -0.8695 -0.2240  0.3672
30327SOL    HW296819   8.999   8.774   2.591 -1.8194 -0.3930  0.5531
30328SOL     OW96820   1.833   6.023   8.278 -0.0100 -0.0637  0.5450
30328SOL    HW196821   1.774   5.986   8.212  0.9237  0.7838 -0.8048
30328SOL    HW296822   1.920   5.992   8.253  0.4878  1.0870  0.7641
30329SOL     OW96823  10.370   0.755  12.139  0.4596  0.2388  0.1855
30329SOL    HW196824  10.287   0.775  12.182  0.9396  2.6080  0.1444
30329SOL    HW296825  10.344   0.724  12.052 -0.4779  3.7562 -0.9613
30330SOL     OW96826   7.711   1.110   8.217 -0.3189  0.1352  0.4468
30330SOL    HW196827   7.638   1.087   8.275  0.0044 -0.9463  0.4474
30330SOL    HW296828   7.764   1.030   8.213  0.0467  0.4276 -0.7680
30331SOL     OW96829   4.707  12.227  12.299 -0.6340  0.9441 -0.3319
30331SOL    HW196830   4.652  12.162  12.342 -0.3438  0.4134 -0.7453
30331SOL    HW296831   4.788  12.180  12.280 -0.0298  1.7055  0.2587
30332SOL     OW96832   8.174   1.962   6.007 -0.1023  0.0106 -0.0129
30332SOL    HW196833   8.197   2.052   6.030  1.1100 -0.3160  0.0926
30332SOL    HW296834   8.144   1.923   6.089  0.6467 -0.0627  0.2325
30333SOL     OW96835   1.502   8.446   4.537  0.4565 -0.0189 -0.0029
30333SOL    HW196836   1.509   8.362   4.583 -0.1547  0.1466  0.4135
30333SOL    HW296837   1.518   8.425   4.445  0.8600 -0.4980  0.1737
30334SOL     OW96838   4.805   9.231  12.089 -0.0332 -0.4952  0.1953
30334SOL    HW196839   4.712   9.223  12.071 -0.2704  0.0859  1.0945
30334SOL    HW296840   4.810   9.283  12.169  0.9454 -2.8676  1.8096
30335SOL     OW96841   2.188   2.406   2.129 -0.0769  0.0398  0.5050
30335SOL    HW196842   2.151   2.337   2.073  1.3494  0.6950 -1.3730
30335SOL    HW296843   2.141   2.485   2.105  0.1048  0.2083  0.6973
30336SOL     OW96844   0.811   8.011  10.573 -0.4468  0.2405 -0.6023
30336SOL    HW196845   0.851   7.925  10.561 -1.5568 -0.1808 -1.4480
30336SOL    HW296846   0.850   8.045  10.654 -0.3745 -1.2772  0.0302
30337SOL     OW96847   2.943  12.050   4.234 -0.0339  0.3097  0.4637
30337SOL    HW196848   3.030  12.079   4.260  0.1986 -1.1066  1.3843
30337SOL    HW296849   2.885  12.087   4.300  0.2743 -1.2875  1.7004
30338SOL     OW96850   0.536   4.733   7.865  0.0194 -0.0352 -0.1492
30338SOL    HW196851   0.470   4.768   7.806  0.0384  0.9473  0.3950
30338SOL    HW296852   0.485   4.692   7.936 -0.0262  1.0503  0.4631
30339SOL     OW96853   5.002  11.109   4.961 -0.8375  0.1711 -0.1832
30339SOL    HW196854   5.044  11.194   4.945 -0.6208 -0.0959 -1.0920
30339SOL    HW296855   4.940  11.099   4.888 -0.2114 -0.8487 -0.5985
30340SOL     OW96856   1.044  11.663   1.704 -0.5512  0.1654 -0.5597
30340SOL    HW196857   1.130  11.625   1.683 -0.2468  0.2709  0.4507
30340SOL    HW296858   1.002  11.674   1.619 -0.0070 -0.9313 -0.9952
30341SOL     OW96859   8.478   1.741   1.679 -0.0092 -0.6797 -0.0305
30341SOL    HW196860   8.515   1.760   1.765 -0.1763 -0.7769  0.0627
30341SOL    HW296861   8.424   1.818   1.659 -1.2652 -1.3478  0.6653
30342SOL     OW96862   1.755   6.192   5.610 -0.6935  0.9369  0.0551
30342SOL    HW196863   1.679   6.160   5.659 -0.8707  1.2118 -0.0315
30342SOL    HW296864   1.717   6.243   5.538 -0.4262  1.0604 -0.0011
30343SOL     OW96865  10.664   1.095   8.821 -0.2664 -0.2615  0.0465
30343SOL    HW196866  10.679   1.061   8.909 -0.1180 -0.4578 -0.0530
30343SOL    HW296867  10.570   1.085   8.808 -0.3170 -0.0600  0.2519
30344SOL     OW96868  11.972   0.891   5.182 -0.6674  0.1563 -0.1710
30344SOL    HW196869  11.948   0.983   5.187 -1.8827 -0.0630 -1.2551
30344SOL    HW296870  11.890   0.844   5.200 -0.3868 -0.6837 -0.9686
30345SOL     OW96871  11.395   5.498   4.227 -0.1303  0.1830 -0.2984
30345SOL    HW196872  11.458   5.520   4.295 -0.7665 -2.6913  1.4061
30345SOL    HW296873  11.311   5.532   4.260 -0.3646 -0.8227  0.1658
30346SOL     OW96874   0.773   4.482   2.795 -0.9568  0.2402  0.4928
30346SOL    HW196875   0.684   4.455   2.817 -0.4983 -0.2807  1.8239
30346SOL    HW296876   0.825   4.457   2.871  0.3940  0.2338 -0.3937
30347SOL     OW96877   3.863   1.082  11.595 -0.0779 -0.0570  0.4184
30347SOL    HW196878   3.918   1.092  11.673 -0.3594 -0.6419  0.6980
30347SOL    HW296879   3.830   1.169  11.577 -0.3990 -0.0029  1.2424
30348SOL     OW96880   3.692   5.640   2.681 -0.0815  0.0227 -0.2647
30348SOL    HW196881   3.684   5.701   2.755  0.5812  0.5002 -0.5684
30348SOL    HW296882   3.681   5.695   2.604 -0.0858 -0.3537 -0.5342
30349SOL     OW96883   5.557  11.809   1.527 -0.4172 -0.1598 -0.0946
30349SOL    HW196884   5.466  11.803   1.557 -0.4432  1.2942  0.2024
30349SOL    HW296885   5.578  11.721   1.497 -0.9293 -1.3332  2.6369
30350SOL     OW96886   7.059   5.618   9.549  0.0536  0.1159  0.2460
30350SOL    HW196887   6.971   5.590   9.572  0.4756 -0.3837  1.3407
30350SOL    HW296888   7.074   5.697   9.599 -0.3084  1.0876 -1.1192
30351SOL     OW96889   9.257   8.391   8.998 -0.1987 -0.0744  0.1333
30351SOL    HW196890   9.277   8.354   8.911  0.9250  0.5264  0.1093
30351SOL    HW296891   9.272   8.485   8.987 -0.9684  0.1227  0.7454
30352SOL     OW96892   6.449  11.782   8.399 -0.0601  0.0856 -0.2311
30352SOL    HW196893   6.370  11.742   8.436  0.1434 -0.0076  0.1045
30352SOL    HW296894   6.507  11.794   8.474 -0.3620  1.6046 -0.1948
30353SOL     OW96895   0.731   9.476   4.611 -0.2998  0.5281  0.2908
30353SOL    HW196896   0.757   9.565   4.636 -1.8076  0.7106  1.3445
30353SOL    HW296897   0.638   9.471   4.633 -0.6559 -0.7817 -1.3035
30354SOL     OW96898  10.850   0.882   0.588 -0.0533  0.4289 -0.3043
30354SOL    HW196899  10.800   0.874   0.506  0.5254 -2.4127 -0.4749
30354SOL    HW296900  10.940   0.894   0.560  0.2230 -1.0936 -0.1403
30355SOL     OW96901   8.343   0.442   3.639  0.4346 -0.5446  0.0941
30355SOL    HW196902   8.345   0.500   3.563  1.3211 -0.6927  0.0029
30355SOL    HW296903   8.255   0.403   3.636  0.2858 -0.1758 -0.5667
30356SOL     OW96904   1.182  12.038   3.566 -0.2025 -0.1936 -0.0266
30356SOL    HW196905   1.230  11.955   3.567  1.3735  0.6178  2.8444
30356SOL    HW296906   1.101  12.019   3.614 -0.0623 -0.1875  0.2125
30357SOL     OW96907   0.376   6.911   0.544 -0.2021  0.5716 -0.0713
30357SOL    HW196908   0.374   6.840   0.608  0.5658  0.5807 -0.0302
30357SOL    HW296909   0.438   6.974   0.580 -0.3196  0.9193 -0.4723
30358SOL     OW96910   9.560   0.374   3.074 -0.5164 -0.6441 -0.4998
30358SOL    HW196911   9.470   0.408   3.082 -0.3085 -0.4104  1.2695
30358SOL    HW296912   9.560   0.325   2.992 -1.3409  2.1079 -2.2916
30359SOL     OW96913  11.844  11.568   7.682  0.3267 -0.4205  0.3971
30359SOL    HW196914  11.771  11.624   7.656  0.9204  0.8357  1.3346
30359SOL    HW296915  11.818  11.533   7.768 -0.3094 -2.1339 -0.4426
30360SOL     OW96916   6.676   6.932   1.995 -0.5030  0.4867 -0.8322
30360SOL    HW196917   6.653   6.907   1.906 -0.4817  0.4885 -0.8385
30360SOL    HW296918   6.593   6.934   2.042 -0.3685 -0.8740 -0.5011
30361SOL     OW96919   4.179   0.402   7.953  0.3035 -0.2616  0.2264
30361SOL    HW196920   4.232   0.481   7.950  0.3225 -0.2945 -0.3348
30361SOL    HW296921   4.216   0.351   8.025 -0.8432  1.0374  1.8384
30362SOL     OW96922   8.840  11.035   4.407  0.1255 -0.1326 -0.1268
30362SOL    HW196923   8.916  11.048   4.350  0.4505 -0.3387  0.2493
30362SOL    HW296924   8.794  10.960   4.369  0.4196 -0.3616 -0.0357
30363SOL     OW96925   3.501   1.066  12.060  0.0690  0.0707  0.3049
30363SOL    HW196926   3.468   0.976  12.049 -1.0439  0.1985  2.1082
30363SOL    HW296927   3.454   1.099  12.137 -1.5964  3.1348 -1.7921
30364SOL     OW96928   4.262  11.459   2.318  0.0986 -0.7189  0.5747
30364SOL    HW196929   4.212  11.520   2.373  1.3737  0.6729  0.2838
30364SOL    HW296930   4.249  11.491   2.229  1.2548 -0.4775  0.4709
30365SOL     OW96931   2.519   6.504   1.131  0.5655 -0.0132  0.2784
30365SOL    HW196932   2.553   6.502   1.041 -0.5305  1.3842 -0.2013
30365SOL    HW296933   2.549   6.587   1.167 -1.0841  0.6212  0.3108
30366SOL     OW96934   6.837   0.647   0.142  0.3330  0.1314 -0.4783
30366SOL    HW196935   6.849   0.726   0.195 -0.3241 -0.0098 -0.1099
30366SOL    HW296936   6.839   0.575   0.206  2.9552 -0.3498 -1.0124
30367SOL     OW96937   0.908   2.012   8.486  0.3062  0.4836  0.1801
30367SOL    HW196938   0.963   2.090   8.489  0.2350  0.5415 -0.0034
30367SOL    HW296939   0.835   2.033   8.545  0.4932  0.3953  0.4441
30368SOL     OW96940   4.319   5.434   8.555  0.0714 -0.6822  0.1251
30368SOL    HW196941   4.395   5.426   8.497 -2.1228  2.5009 -3.5873
30368SOL    HW296942   4.272   5.351   8.544  0.7141 -0.9062 -1.1492
30369SOL     OW96943   2.863   1.543   9.884  0.1670  0.0658  0.1803
30369SOL    HW196944   2.788   1.493   9.916 -0.1739  0.0029 -0.6789
30369SOL    HW296945   2.926   1.477   9.854 -0.0056  0.1274 -0.3377
30370SOL     OW96946  10.016   1.756   4.998 -0.0608  0.5341  0.0282
30370SOL    HW196947  10.089   1.817   4.985  0.0788  0.1456 -1.0673
30370SOL    HW296948   9.948   1.787   4.938 -0.0406 -0.3012 -0.4390
30371SOL     OW96949   5.258   8.549  10.213  0.4974 -0.9633  0.1177
30371SOL    HW196950   5.249   8.593  10.128 -0.5329 -0.8904  0.2484
30371SOL    HW296951   5.232   8.458  10.196  0.9539 -1.1093  0.2085
30372SOL     OW96952  11.762   9.147   3.286 -0.0145 -0.9927  0.1235
30372SOL    HW196953  11.799   9.132   3.199 -0.6373  0.8237 -0.5081
30372SOL    HW296954  11.825   9.205   3.329 -1.3728  1.0607 -0.4883
30373SOL     OW96955   6.365   9.952  10.377  0.5613 -0.6598 -0.0544
30373SOL    HW196956   6.284   9.986  10.341  0.1531 -1.5900 -0.0351
30373SOL    HW296957   6.384   9.874  10.326  1.4235 -0.4856 -0.0232
30374SOL     OW96958   6.209  10.859   9.325  0.0157 -0.2460  0.4199
30374SOL    HW196959   6.120  10.844   9.357 -0.8376  3.5195  0.2124
30374SOL    HW296960   6.199  10.870   9.231  0.8982 -0.8554  0.2452
30375SOL     OW96961   3.659   8.998   8.569 -0.3393 -0.3280  0.3415
30375SOL    HW196962   3.658   9.093   8.578 -0.3852 -0.4256  1.5141
30375SOL    HW296963   3.570   8.971   8.592  0.2354 -0.8061  2.1617
30376SOL     OW96964   8.150  10.202  12.264 -0.5202  0.3752 -0.5154
30376SOL    HW196965   8.074  10.211  12.322 -0.4775 -2.3104  0.0780
30376SOL    HW296966   8.221  10.174  12.322  0.2296  0.2354 -1.4763
30377SOL     OW96967   9.641   5.022   7.534 -0.0889 -0.6283 -0.6264
30377SOL    HW196968   9.704   5.030   7.605 -2.0828 -0.5710  1.2319
30377SOL    HW296969   9.675   4.952   7.479  1.0077 -1.3804  0.9585
30378SOL     OW96970   5.883  10.344   8.210  0.8675 -0.3424 -0.2173
30378SOL    HW196971   5.920  10.430   8.231  0.7870 -0.3077 -0.2174
30378SOL    HW296972   5.801  10.340   8.260  0.7210 -0.2979 -0.4536
30379SOL     OW96973   7.014   5.978   9.127 -0.2499  0.0233 -0.0989
30379SOL    HW196974   7.010   6.074   9.131 -0.1368  0.0534 -0.6573
30379SOL    HW296975   7.077   5.953   9.195 -0.0098  0.3625 -0.1995
30380SOL     OW96976   5.607   4.454   7.901  0.5449 -0.4559 -0.3173
30380SOL    HW196977   5.627   4.524   7.963 -0.1187  0.3761 -1.0238
30380SOL    HW296978   5.688   4.403   7.895  1.1876  0.5266 -0.1398
30381SOL     OW96979   7.761   0.731   1.717 -0.1131  0.2413  0.2897
30381SOL    HW196980   7.758   0.636   1.731  0.0454  0.0381 -0.9502
30381SOL    HW296981   7.773   0.741   1.623  0.2783  1.4979  0.4577
30382SOL     OW96982  11.489   3.438   6.445  0.5425  0.1442  0.3916
30382SOL    HW196983  11.409   3.429   6.394  0.6701 -1.9774  0.4703
30382SOL    HW296984  11.549   3.486   6.388  0.2439 -1.0026 -0.9481
30383SOL     OW96985  10.040   1.114   0.879  0.5071  0.1952 -0.5376
30383SOL    HW196986  10.044   1.021   0.857 -0.7355 -0.2288  0.8542
30383SOL    HW296987   9.955   1.143   0.846  0.6182  0.6770 -0.4071
30384SOL     OW96988   3.336   8.037   7.652  0.2019 -0.1598 -0.2790
30384SOL    HW196989   3.410   8.090   7.684 -1.7135  1.0473  2.5554
30384SOL    HW296990   3.304   7.992   7.730  0.3426 -3.9318 -2.1832
30385SOL     OW96991   8.974   9.745   2.571  0.1147  0.3487 -0.1422
30385SOL    HW196992   8.917   9.738   2.648 -0.5148 -1.8676 -0.7378
30385SOL    HW296993   8.987   9.840   2.559 -0.6555  0.7716  2.0180
30386SOL     OW96994   7.738   8.220  10.874  0.1156 -0.3968  0.1343
30386SOL    HW196995   7.700   8.205  10.788  1.2506  0.1448 -0.4797
30386SOL    HW296996   7.772   8.134  10.901  0.4853 -0.3948 -0.3207
30387SOL     OW96997   3.173   4.369   4.897  0.5482  0.4473 -0.2705
30387SOL    HW196998   3.224   4.332   4.825 -0.9548  0.3315 -1.3441
30387SOL    HW296999   3.123   4.440   4.856 -0.5038  0.2402  0.6046
30388SOL     OW97000   0.496   9.777   9.857  0.6720 -0.3429 -0.0898
30388SOL    HW197001   0.472   9.826   9.779  1.6946 -1.1711 -0.9703
30388SOL    HW297002   0.444   9.697   9.851  0.1439 -0.0510  0.5252
30389SOL     OW97003   8.153   8.078   2.279  0.1289 -0.4319 -0.2086
30389SOL    HW197004   8.118   8.004   2.329  0.5313 -0.6241 -0.2131
30389SOL    HW297005   8.105   8.154   2.313  0.4793 -0.5443  0.5595
30390SOL     OW97006   9.738   0.559  11.123  0.4325 -0.0513  0.0279
30390SOL    HW197007   9.643   0.554  11.130  0.5580 -1.0846  1.3924
30390SOL    HW297008   9.755   0.563  11.029 -0.9226 -0.8073 -0.2752
30391SOL     OW97009   6.982   7.681  11.782  0.3264  0.7399  0.1487
30391SOL    HW197010   7.029   7.715  11.857  0.7228 -1.2963  0.9009
30391SOL    HW297011   6.895   7.659  11.816  1.0945 -1.9589  0.5954
30392SOL     OW97012   6.346  10.138  11.866 -0.0498  0.7243  0.0134
30392SOL    HW197013   6.355  10.058  11.814 -0.0158  0.2839  0.6886
30392SOL    HW297014   6.251  10.150  11.875 -0.0518  0.4141  0.4309
30393SOL     OW97015   2.035   8.078  11.975 -0.0206  0.3789  0.7202
30393SOL    HW197016   2.099   8.029  12.027  0.2090  0.1948  0.2746
30393SOL    HW297017   2.088   8.131  11.916 -0.2548 -0.6227 -0.4453
30394SOL     OW97018   5.211   2.655   1.116 -0.1630 -0.0314  0.6696
30394SOL    HW197019   5.265   2.706   1.056 -0.3800  0.3819  0.8199
30394SOL    HW297020   5.145   2.717   1.148 -1.0562 -0.6428  0.0875
30395SOL     OW97021   0.007   0.767   0.110 -0.1482  0.0123 -0.6244
30395SOL    HW197022   0.070   0.791   0.178 -0.6348 -0.5737  0.0543
30395SOL    HW297023   0.056   0.770   0.029  0.4682  0.6491 -0.2355
30396SOL     OW97024  11.314   3.029   3.330 -0.3860  0.0928  0.7586
30396SOL    HW197025  11.266   3.014   3.411  2.3671 -0.0857  2.4716
30396SOL    HW297026  11.352   3.116   3.340  0.9088 -0.3737  0.1742
30397SOL     OW97027   6.382   8.103   2.481 -0.0724  0.3727  0.1790
30397SOL    HW197028   6.368   8.013   2.453  0.2798  0.2395  0.4242
30397SOL    HW297029   6.412   8.148   2.402  0.3338  0.1364  0.1936
30398SOL     OW97030   1.465  10.428  12.263  0.3733  0.0471 -0.2551
30398SOL    HW197031   1.470  10.344  12.218 -0.5112 -0.6148  0.8252
30398SOL    HW297032   1.383  10.467  12.232  0.6785  0.4340 -0.5954
30399SOL     OW97033   5.755   8.625   1.574 -0.5594  0.2397  0.4075
30399SOL    HW197034   5.720   8.606   1.661 -1.9741  1.0469  0.0595
30399SOL    HW297035   5.802   8.707   1.584 -0.1006 -0.0418  0.5594
30400SOL     OW97036   1.423  11.385   3.772  0.4786  0.6573 -0.4132
30400SOL    HW197037   1.473  11.455   3.730  0.2477  1.2341  0.2497
30400SOL    HW297038   1.470  11.305   3.749  0.7892  1.0332 -1.1265
30401SOL     OW97039   2.018   4.265   4.094  0.1269 -0.4608  0.2087
30401SOL    HW197040   1.927   4.294   4.093 -0.3462 -1.8531 -0.4033
30401SOL    HW297041   2.018   4.185   4.042  1.4057 -1.3142  1.4314
30402SOL     OW97042   1.212   2.196   6.662  0.3498  0.0336 -0.8769
30402SOL    HW197043   1.223   2.107   6.628  1.6339  0.2838 -1.1734
30402SOL    HW297044   1.158   2.240   6.597 -1.5361 -0.9077 -0.0163
30403SOL     OW97045   3.569   0.901   9.155 -0.2171  0.1465  0.1234
30403SOL    HW197046   3.485   0.857   9.165 -0.2720 -0.1592 -1.3998
30403SOL    HW297047   3.628   0.855   9.214 -1.3156  1.0462  2.0354
30404SOL     OW97048   0.793   3.865  10.652  0.2764 -0.8157  0.4118
30404SOL    HW197049   0.858   3.809  10.609  0.3369 -1.0589  0.8187
30404SOL    HW297050   0.795   3.838  10.744  0.9324  0.4507  0.7876
30405SOL     OW97051   7.411   4.064   2.383  0.1766  0.1712 -0.2339
30405SOL    HW197052   7.359   3.984   2.393 -2.6540  1.9981  0.8330
30405SOL    HW297053   7.426   4.094   2.473  1.9639  0.4271 -0.5862
30406SOL     OW97054  11.512   3.884  10.654 -0.6048  0.4215  0.4339
30406SOL    HW197055  11.466   3.954  10.607  0.8510  0.9259 -0.3176
30406SOL    HW297056  11.491   3.804  10.604 -0.1891  0.7398 -0.2615
30407SOL     OW97057  12.271   1.091   2.301 -0.2128  0.4682 -0.3771
30407SOL    HW197058  12.176   1.095   2.308 -0.0786  0.5150  2.8029
30407SOL    HW297059  12.300   1.180   2.321  0.5344 -0.1438  1.4709
30408SOL     OW97060   5.597   9.734   1.003  0.7591  0.9308  0.0810
30408SOL    HW197061   5.604   9.675   0.928  1.9858  1.8783 -0.5746
30408SOL    HW297062   5.577   9.819   0.965 -0.6621  1.0340  0.9973
30409SOL     OW97063   2.471   9.066   6.175  0.2987 -0.4753 -0.0242
30409SOL    HW197064   2.559   9.033   6.152 -0.3114 -2.1436 -0.0990
30409SOL    HW297065   2.434   9.093   6.091  0.0698 -1.5319 -0.2817
30410SOL     OW97066   1.078   3.332   2.983 -0.0895 -0.1192 -0.1904
30410SOL    HW197067   1.166   3.296   2.977 -0.6013 -1.3160 -0.8694
30410SOL    HW297068   1.050   3.312   3.073  0.3361  0.3029  0.0398
30411SOL     OW97069  11.262   7.807   0.274 -0.1400 -0.2895  0.3729
30411SOL    HW197070  11.290   7.894   0.245  0.6430 -0.4284  0.6971
30411SOL    HW297071  11.343   7.757   0.283 -0.4170 -0.4965  2.0099
30412SOL     OW97072   9.073  10.710   0.739 -0.4408 -0.4936 -0.3404
30412SOL    HW197073   9.123  10.782   0.779 -0.4932 -0.3210 -0.5784
30412SOL    HW297074   8.986  10.717   0.778 -0.4770 -0.3596 -0.4448
30413SOL     OW97075   8.713   2.281   8.132 -0.3548  0.0948 -0.7199
30413SOL    HW197076   8.643   2.234   8.087 -2.1435  1.3547  0.6405
30413SOL    HW297077   8.679   2.369   8.146  2.4773  1.5796 -2.2144
30414SOL     OW97078   6.193   9.196   2.051  0.0409  0.1349  0.0344
30414SOL    HW197079   6.128   9.265   2.033  0.4566  0.1489 -1.6082
30414SOL    HW297080   6.190   9.140   1.973  2.1163  0.2410 -0.1674
30415SOL     OW97081   8.666  10.210   0.455 -0.1439  0.4567  0.9379
30415SOL    HW197082   8.730  10.268   0.414 -0.0587 -0.5470 -0.4246
30415SOL    HW297083   8.582  10.253   0.440 -0.0415  0.4554  0.3424
30416SOL     OW97084   3.400   6.879   0.556 -0.5870  1.0057 -0.3103
30416SOL    HW197085   3.309   6.861   0.534 -0.8303  1.5107  0.2745
30416SOL    HW297086   3.431   6.798   0.597 -0.3781  0.3643 -1.6696
30417SOL     OW97087   4.300   4.037   0.820  0.1726  0.5040  0.9078
30417SOL    HW197088   4.291   4.132   0.827 -0.2647  0.4383  1.2696
30417SOL    HW297089   4.213   4.005   0.798  0.8789  0.4323 -2.3238
30418SOL     OW97090  12.053   9.956   2.130 -0.7552 -0.5677  0.7040
30418SOL    HW197091  12.013   9.884   2.178 -1.3737  0.1303  1.2568
30418SOL    HW297092  11.980  10.015   2.110  0.1366  1.4727  3.0098
30419SOL     OW97093   1.280   5.806   8.924  0.1502 -0.3977  0.1557
30419SOL    HW197094   1.238   5.738   8.871 -0.9459 -0.5707  1.2021
30419SOL    HW297095   1.316   5.867   8.860 -3.1608  0.6563 -0.8865
30420SOL     OW97096   4.464   0.193   9.687  0.4260  0.1730 -0.2095
30420SOL    HW197097   4.526   0.251   9.645 -0.0342  1.6737  1.1048
30420SOL    HW297098   4.483   0.106   9.651  1.2229  1.0978 -2.0937
30421SOL     OW97099   5.609   3.144   4.641  0.0109 -0.1627  0.1912
30421SOL    HW197100   5.586   3.175   4.553 -2.7988 -1.5906  0.3184
30421SOL    HW297101   5.633   3.223   4.689  2.4751  0.5600 -2.0190
30422SOL     OW97102   9.213   4.560   5.930 -0.1226 -0.0927  0.2446
30422SOL    HW197103   9.183   4.540   5.841  1.2892  0.1236 -0.3095
30422SOL    HW297104   9.307   4.577   5.920 -0.2623  1.6161  1.5208
30423SOL     OW97105   2.404   8.158   4.405  0.5909  0.3779  0.9725
30423SOL    HW197106   2.373   8.184   4.319  1.4194 -0.1033  0.5154
30423SOL    HW297107   2.325   8.140   4.455  0.1038 -0.9937 -0.2118
30424SOL     OW97108  12.260   4.577   3.999  0.2740  0.8459 -0.5268
30424SOL    HW197109  12.232   4.610   3.913 -2.5680 -0.7732 -0.3427
30424SOL    HW297110  12.255   4.654   4.057  2.2277  1.9544 -1.7010
30425SOL     OW97111   5.620   0.801  10.111 -0.2642 -0.2355  0.0868
30425SOL    HW197112   5.531   0.768  10.105 -0.9897  1.5758  0.4963
30425SOL    HW297113   5.619   0.885  10.065  0.9272  0.3876  1.1263
30426SOL     OW97114   0.418   6.021   3.934  0.6741  0.3020 -0.1744
30426SOL    HW197115   0.477   5.948   3.956 -0.5924  0.0173  2.7497
30426SOL    HW297116   0.421   6.078   4.011 -2.5341  0.4538 -0.0509
30427SOL     OW97117  10.672   5.989  11.780  0.2079 -0.0028 -1.1867
30427SOL    HW197118  10.594   6.043  11.770 -0.3330 -0.1835  1.3213
30427SOL    HW297119  10.638   5.906  11.814  1.5244  0.4252  1.4263
30428SOL     OW97120   6.460   8.825   4.417  0.0601  0.2588 -0.2743
30428SOL    HW197121   6.465   8.884   4.492 -0.5490 -0.2646  0.1952
30428SOL    HW297122   6.447   8.739   4.455  0.1362 -0.0739 -0.9771
30429SOL     OW97123   0.950   2.762   0.355 -0.1034 -0.7468 -0.3124
30429SOL    HW197124   0.882   2.785   0.419 -0.8497 -2.2499 -0.5235
30429SOL    HW297125   0.960   2.841   0.302  1.1468  0.8685  2.1175
30430SOL     OW97126   1.510   8.304   7.866  0.2369 -0.0702 -0.2806
30430SOL    HW197127   1.438   8.337   7.920 -2.7701 -1.4503 -3.1310
30430SOL    HW297128   1.550   8.235   7.919 -0.7897  0.4395  1.2353
30431SOL     OW97129   8.530   0.057   7.948  0.3145 -0.0460 -0.2336
30431SOL    HW197130   8.584  -0.018   7.923  0.0342 -0.0290 -0.8973
30431SOL    HW297131   8.487   0.029   8.029  0.5705 -0.4260 -0.2251
30432SOL     OW97132   5.046  10.620   0.980 -0.0592  0.4192 -0.4758
30432SOL    HW197133   5.096  10.576   1.048 -0.6240 -1.1160 -1.0053
30432SOL    HW297134   5.112  10.656   0.921  0.4362 -0.2603 -0.3495
30433SOL     OW97135   1.997   2.177   6.460 -0.1376  0.0012  0.0635
30433SOL    HW197136   1.975   2.256   6.509 -1.5154 -0.2125 -0.1760
30433SOL    HW297137   2.019   2.209   6.372 -0.1357  0.1718  0.1251
30434SOL     OW97138   9.589   5.650   1.727  0.4419  0.1917  0.1511
30434SOL    HW197139   9.566   5.705   1.652  2.1874 -0.7301 -1.1272
30434SOL    HW297140   9.592   5.561   1.691  1.4277 -0.2553  1.2868
30435SOL     OW97141   6.213   7.081  10.033 -0.1535  0.2444 -0.4099
30435SOL    HW197142   6.233   6.991  10.007 -1.3386 -0.3869  0.7520
30435SOL    HW297143   6.121   7.079  10.057  0.4687  1.0619  2.3894
30436SOL     OW97144   3.086   2.110   9.251  0.1414 -0.4610  0.0826
30436SOL    HW197145   3.074   2.022   9.285 -1.4432  0.1445  1.2403
30436SOL    HW297146   3.057   2.167   9.322 -2.7286  0.9075 -1.9855
30437SOL     OW97147   8.136   1.795   4.338 -0.6137 -0.1332 -0.1389
30437SOL    HW197148   8.123   1.744   4.418  0.0218 -1.9395 -1.1450
30437SOL    HW297149   8.055   1.785   4.289 -0.8423  0.6308  0.0639
30438SOL     OW97150   0.490  11.866   5.007  0.1892 -0.3086  0.3084
30438SOL    HW197151   0.544  11.924   4.954 -0.4744 -0.3715 -0.4519
30438SOL    HW297152   0.513  11.778   4.977 -1.6707 -0.2867 -1.4045
30439SOL     OW97153   6.456  11.367   0.645  0.4535 -0.1039 -0.0159
30439SOL    HW197154   6.532  11.383   0.701  0.1679 -0.6995  0.5480
30439SOL    HW297155   6.467  11.429   0.572  1.0731  0.3473  0.4481
30440SOL     OW97156   3.411   9.139   2.727  0.5878  0.7663 -0.1455
30440SOL    HW197157   3.494   9.185   2.722  0.9654 -0.0260 -1.6942
30440SOL    HW297158   3.360   9.172   2.653  0.0590  0.2664 -0.0130
30441SOL     OW97159  11.454  12.151  11.789 -1.4581  0.0929  0.4116
30441SOL    HW197160  11.517  12.096  11.741  0.9703  1.6587  1.6016
30441SOL    HW297161  11.411  12.202  11.721  0.0580  0.4288 -0.3414
30442SOL     OW97162   6.876   6.725   5.931  0.1751 -0.3520  0.1004
30442SOL    HW197163   6.959   6.676   5.927  0.2766 -0.2067  0.3635
30442SOL    HW297164   6.899   6.813   5.900  0.1086 -0.3247  0.1297
30443SOL     OW97165   5.577   9.653   8.230  0.6081 -0.0151 -0.0894
30443SOL    HW197166   5.494   9.635   8.185 -1.1169  1.0519  2.4224
30443SOL    HW297167   5.609   9.734   8.190  0.5411 -0.4972 -1.1592
30444SOL     OW97168   7.247   2.215   5.629  0.0485  0.4307 -0.4833
30444SOL    HW197169   7.168   2.175   5.593 -0.2173 -0.0873  0.6476
30444SOL    HW297170   7.218   2.259   5.709  0.8000  0.7343 -0.3681
30445SOL     OW97171   6.327  11.633   5.836  0.2731 -0.2817 -0.0310
30445SOL    HW197172   6.321  11.595   5.924  0.1955 -1.5547 -0.5639
30445SOL    HW297173   6.257  11.589   5.786  1.1800 -0.5898 -1.0759
30446SOL     OW97174   6.043   2.707   6.708 -0.0765  0.1713 -0.1148
30446SOL    HW197175   6.138   2.704   6.699 -0.2659 -0.2668 -3.0337
30446SOL    HW297176   6.012   2.747   6.626 -2.4836 -1.7295 -0.2509
30447SOL     OW97177   0.885   6.557   6.755  0.0421  0.0973 -0.1248
30447SOL    HW197178   0.806   6.569   6.807 -0.9467  0.1850 -1.5894
30447SOL    HW297179   0.946   6.623   6.788 -0.3390 -0.2116  1.2729
30448SOL     OW97180   1.136  10.710  11.654 -0.0713 -0.3821 -0.2291
30448SOL    HW197181   1.230  10.714  11.639  0.2130 -1.6430  1.0612
30448SOL    HW297182   1.127  10.709  11.750 -1.3720 -0.7033 -0.3352
30449SOL     OW97183   5.588   4.710   7.412  0.2035  0.3448  0.0354
30449SOL    HW197184   5.528   4.784   7.415 -0.9268 -0.5840  1.3373
30449SOL    HW297185   5.556   4.655   7.341  1.3989  1.3436 -1.3350
30450SOL     OW97186   3.347  11.370  11.758  0.2955  0.6324  0.2432
30450SOL    HW197187   3.298  11.319  11.822 -0.4092  0.5552 -0.3507
30450SOL    HW297188   3.280  11.413  11.705  0.8744  1.7551  0.3860
30451SOL     OW97189   9.619   1.924   8.589 -0.3946  0.6925 -0.1744
30451SOL    HW197190   9.584   2.011   8.572  0.7446  1.3574  0.6945
30451SOL    HW297191   9.673   1.905   8.512 -1.3427  0.3590 -0.7696
30452SOL     OW97192   8.073   7.235  11.436 -0.3007  0.0114 -0.0825
30452SOL    HW197193   8.023   7.168  11.482  0.3386 -0.5634 -0.2071
30452SOL    HW297194   8.158   7.195  11.420  0.2649  1.0336  0.2701
30453SOL     OW97195   3.908   3.421   5.611  0.5838 -0.4289  0.0135
30453SOL    HW197196   3.972   3.368   5.659 -0.1898 -1.3542  0.0630
30453SOL    HW297197   3.936   3.415   5.519 -0.1095 -1.8793 -0.1374
30454SOL     OW97198   4.388   7.771   8.089  0.4849 -0.5541 -0.3864
30454SOL    HW197199   4.393   7.856   8.046  1.2611 -0.8400 -0.8871
30454SOL    HW297200   4.360   7.790   8.179 -0.3330  0.1239 -0.7724
30455SOL     OW97201   4.965   6.115   4.053  0.0443  0.0755 -0.1652
30455SOL    HW197202   4.976   6.176   4.126  0.0160  2.0802 -1.7634
30455SOL    HW297203   5.044   6.128   4.000 -2.0387  2.2860 -2.9942
30456SOL     OW97204  11.295   4.933   6.150  0.4816 -0.0473  0.5354
30456SOL    HW197205  11.389   4.952   6.148  0.3033  0.8606  0.6303
30456SOL    HW297206  11.262   4.982   6.226 -0.4037  1.2329 -0.6307
30457SOL     OW97207   9.153   8.941  11.867 -0.2307  0.4099  0.4198
30457SOL    HW197208   9.124   8.852  11.845  0.3048 -0.3955  2.7401
30457SOL    HW297209   9.073   8.986  11.894 -0.3907  0.4370 -0.0806
30458SOL     OW97210   3.629   7.020   7.277 -0.2924 -0.1619 -0.7492
30458SOL    HW197211   3.692   6.949   7.265 -0.4688 -0.4654  0.1158
30458SOL    HW297212   3.642   7.076   7.200 -0.2796 -1.2125 -1.5271
30459SOL     OW97213   5.774   2.440   0.113  0.9686  0.4125  0.2602
30459SOL    HW197214   5.718   2.363   0.099  1.2489  0.5453 -1.8500
30459SOL    HW297215   5.858   2.404   0.142  1.0151 -0.0684 -0.4526
30460SOL     OW97216   6.646   8.005   6.502 -0.3986 -0.3607 -0.0469
30460SOL    HW197217   6.601   7.930   6.543 -0.1999 -0.5191 -0.1201
30460SOL    HW297218   6.580   8.074   6.502 -0.8101 -0.7408 -0.6045
30461SOL     OW97219   3.101   7.503   1.568  0.8836 -0.5579  0.3230
30461SOL    HW197220   3.168   7.441   1.538 -0.6584 -1.1213 -2.3660
30461SOL    HW297221   3.108   7.577   1.507 -1.6410 -1.1964 -0.8845
30462SOL     OW97222   5.207   9.577   1.666  0.2004 -0.2038 -0.2715
30462SOL    HW197223   5.113   9.572   1.679  0.2809  0.0366  0.4946
30462SOL    HW297224   5.232   9.490   1.634 -0.1683 -0.5384  0.3236
30463SOL     OW97225   6.074   6.872   8.543  0.0882 -0.7949  0.0920
30463SOL    HW197226   6.135   6.939   8.511 -0.0684 -0.3906  0.6082
30463SOL    HW297227   6.104   6.854   8.632  0.2874 -1.6131 -0.1381
30464SOL     OW97228  10.256  12.073   9.921  0.1525 -0.2282 -0.2177
30464SOL    HW197229  10.216  12.038  10.000  0.0298 -1.4189 -0.7854
30464SOL    HW297230  10.309  12.146   9.951  0.6632 -1.0967  1.0585
30465SOL     OW97231  11.411  10.347  10.828  0.0459  0.0007 -0.2040
30465SOL    HW197232  11.477  10.415  10.814 -0.8220  0.8913 -0.0898
30465SOL    HW297233  11.401  10.342  10.923 -0.1602 -0.0110 -0.2248
30466SOL     OW97234   3.627   8.568  11.786 -0.2142  0.5681  0.2732
30466SOL    HW197235   3.668   8.589  11.702  0.2817 -2.0733 -0.2122
30466SOL    HW297236   3.533   8.572  11.768 -0.1760  2.1435  0.2207
30467SOL     OW97237   9.685  10.614   9.186 -0.9096  0.1912 -0.3889
30467SOL    HW197238   9.722  10.620   9.098  0.6321 -1.6346  0.0670
30467SOL    HW297239   9.702  10.700   9.225  2.0822 -0.2096 -0.5728
30468SOL     OW97240   5.480   0.252   3.488  0.1217  0.6891  0.2367
30468SOL    HW197241   5.495   0.284   3.399 -0.8501 -1.2484 -0.6844
30468SOL    HW297242   5.401   0.297   3.517 -0.4544  0.1732 -0.5089
30469SOL     OW97243   3.643   1.646   2.020 -0.2993  0.5631  0.0060
30469SOL    HW197244   3.565   1.598   1.990 -1.1146  0.7474  1.6911
30469SOL    HW297245   3.635   1.732   1.980  0.8400 -0.4042 -2.5257
30470SOL     OW97246   1.250   0.035   0.863  0.5020 -0.4055  0.5552
30470SOL    HW197247   1.176   0.094   0.878  0.7210 -0.4377  1.9380
30470SOL    HW297248   1.212  -0.053   0.872  0.4969 -0.4445  0.1599
30471SOL     OW97249   0.662   3.916   7.015 -0.1823 -0.0849  0.3238
30471SOL    HW197250   0.643   3.969   6.937  2.4663  0.2299 -0.2193
30471SOL    HW297251   0.705   3.838   6.980 -0.8874 -0.9439  1.3459
30472SOL     OW97252   4.413   9.139   5.938  0.4462  0.2984 -0.1331
30472SOL    HW197253   4.471   9.063   5.948 -0.6903 -0.8954 -1.9532
30472SOL    HW297254   4.343   9.125   6.002  1.5563  1.2040  1.3384
30473SOL     OW97255  10.055  12.186   8.969  0.3163 -0.1849  0.4474
30473SOL    HW197256  10.030  12.147   9.053 -0.2823  1.1216  0.9052
30473SOL    HW297257  10.067  12.279   8.989 -0.1408  0.1932 -0.9833
30474SOL     OW97258   7.813   5.975   3.072 -0.2730 -0.2022 -0.1780
30474SOL    HW197259   7.860   5.999   3.152 -2.3234  0.4520  0.9030
30474SOL    HW297260   7.795   6.058   3.028  0.2600 -0.5083 -0.9941
30475SOL     OW97261   9.530   4.538   6.974  0.2722 -0.0513  0.0667
30475SOL    HW197262   9.600   4.586   6.929  1.1683  0.1288  1.5947
30475SOL    HW297263   9.449   4.571   6.933  1.0331  0.1705 -1.3197
30476SOL     OW97264   7.821   3.629   5.347 -0.4341 -0.2426 -0.0221
30476SOL    HW197265   7.776   3.693   5.403  0.3148 -0.3788  0.7531
30476SOL    HW297266   7.904   3.671   5.326 -0.8994  0.0091 -1.4574
30477SOL     OW97267  11.406  10.556   7.967 -0.2856  0.4683  0.0920
30477SOL    HW197268  11.443  10.644   7.958  0.6148  0.3986  2.4477
30477SOL    HW297269  11.447  10.506   7.897 -0.5959  1.8229 -1.1135
30478SOL     OW97270  10.465   2.418   8.838 -0.2214 -0.2728 -0.3637
30478SOL    HW197271  10.388   2.469   8.863  0.4978 -0.1209  1.7286
30478SOL    HW297272  10.466   2.422   8.742 -4.0754 -2.1949 -0.6753
30479SOL     OW97273   9.423   7.340   8.238 -0.0543  0.8527 -0.1340
30479SOL    HW197274   9.452   7.251   8.215  0.6876  1.1100 -0.2255
30479SOL    HW297275   9.337   7.348   8.197  0.5225  0.7017 -1.4278
30480SOL     OW97276  11.698   4.193   1.446  0.2341  0.3723  0.3045
30480SOL    HW197277  11.647   4.272   1.463 -0.7620 -0.0572 -0.5387
30480SOL    HW297278  11.751   4.214   1.370 -1.5251 -0.3579 -1.2169
30481SOL     OW97279   4.231   3.624   0.949  0.1607 -0.9086  0.2743
30481SOL    HW197280   4.141   3.623   0.916 -0.2261  1.0023  1.1036
30481SOL    HW297281   4.270   3.544   0.917 -1.6046 -1.3813 -0.7964
30482SOL     OW97282   1.680   5.277   8.188  0.0590 -0.6489  0.1371
30482SOL    HW197283   1.744   5.348   8.189 -0.2294 -0.3903  0.6434
30482SOL    HW297284   1.701   5.226   8.109 -0.4556  0.6724 -0.8895
30483SOL     OW97285   9.013   1.809   0.969 -0.5639 -0.7828 -0.1297
30483SOL    HW197286   8.939   1.755   0.942 -0.6310  0.2451 -2.2107
30483SOL    HW297287   9.087   1.775   0.918  0.0218 -0.6979  0.6428
30484SOL     OW97288   0.554   6.167   3.204  0.0783 -0.4175 -0.4571
30484SOL    HW197289   0.513   6.250   3.228  1.0240  0.0541 -0.4424
30484SOL    HW297290   0.538   6.109   3.279  1.5763  0.5348  0.6438
30485SOL     OW97291   1.650  12.031  11.035 -0.2644 -0.2120 -0.4736
30485SOL    HW197292   1.714  11.963  11.056  2.6846  2.7664  1.1842
30485SOL    HW297293   1.576  12.013  11.093  0.2099 -2.2031 -0.4234
30486SOL     OW97294   3.335   0.022   4.196 -0.2983  0.0801  0.1447
30486SOL    HW197295   3.424   0.038   4.229  0.2136  0.8926 -1.4964
30486SOL    HW297296   3.295   0.109   4.192 -1.3467 -0.3212  1.2593
30487SOL     OW97297  10.406   0.907   5.861 -0.3117 -0.2152 -1.0423
30487SOL    HW197298  10.491   0.894   5.903 -1.0742  2.4893  1.7819
30487SOL    HW297299  10.344   0.859   5.918 -1.0998  1.4774 -0.3984
30488SOL     OW97300   4.164  10.659   8.363  0.0754 -0.1970  0.4418
30488SOL    HW197301   4.073  10.637   8.383 -0.2690 -0.2886 -1.1295
30488SOL    HW297302   4.162  10.754   8.349  0.1986 -0.2203  0.2766
30489SOL     OW97303   0.774  10.928   2.543 -0.0414 -0.1317 -0.5782
30489SOL    HW197304   0.775  10.962   2.632  0.8866  0.3644 -0.7714
30489SOL    HW297305   0.860  10.887   2.532  0.3230  0.8745 -1.6468
30490SOL     OW97306   6.914  11.933   4.574  0.2596 -0.0807 -0.0218
30490SOL    HW197307   7.000  11.966   4.548  1.6831 -2.5062  1.2894
30490SOL    HW297308   6.905  11.959   4.665  0.5443 -1.5486  0.4486
30491SOL     OW97309   5.917   9.817   0.996  0.1610 -0.1599 -0.4427
30491SOL    HW197310   5.886   9.728   1.012 -2.5770  0.9302  1.0196
30491SOL    HW297311   5.840   9.872   1.009  2.0020  2.5427 -0.1213
30492SOL     OW97312   6.707   5.845   5.648 -0.0417  0.0377  0.2613
30492SOL    HW197313   6.793   5.804   5.643  0.3015  0.8677 -1.8006
30492SOL    HW297314   6.674   5.822   5.735  2.9095  1.0300  1.7823
30493SOL     OW97315   6.067   6.708   2.714 -0.7656 -0.4982 -0.3510
30493SOL    HW197316   6.114   6.661   2.783 -0.6115 -1.9348 -1.3961
30493SOL    HW297317   6.063   6.798   2.745  0.6680 -0.8009  0.8122
30494SOL     OW97318   5.841   1.322   4.973 -0.6904 -0.2664  0.3083
30494SOL    HW197319   5.779   1.308   5.044  1.2572  2.3792  2.8298
30494SOL    HW297320   5.847   1.418   4.966  0.9861 -0.4519 -1.7665
30495SOL     OW97321  12.328   8.928  10.987  0.5163  0.6818 -0.3246
30495SOL    HW197322  12.289   8.995  11.044  1.4426 -1.1786  2.7324
30495SOL    HW297323  12.253   8.878  10.955  0.0266  0.9446  0.3676
30496SOL     OW97324   0.891   8.840   5.818 -0.6558 -0.1865 -0.1961
30496SOL    HW197325   0.967   8.883   5.857  0.9522 -0.6937 -2.6016
30496SOL    HW297326   0.903   8.747   5.838  0.0254 -0.4134 -1.5374
30497SOL     OW97327   0.457   8.880   2.173  0.4971 -0.0885 -0.2755
30497SOL    HW197328   0.511   8.903   2.097  0.0658 -0.2778 -0.6501
30497SOL    HW297329   0.370   8.912   2.151  0.3793 -0.0955  0.1687
30498SOL     OW97330   3.375   5.930   6.694 -0.3272 -0.1852  0.1892
30498SOL    HW197331   3.321   5.909   6.618  1.0957 -0.8956 -0.6749
30498SOL    HW297332   3.374   5.850   6.747 -3.3511  1.0789  2.3047
30499SOL     OW97333   1.218   9.923  11.567  0.4724 -0.1013 -0.0447
30499SOL    HW197334   1.207  10.012  11.535 -1.6024  0.0047  0.8097
30499SOL    HW297335   1.272   9.932  11.646  0.4886  0.3531 -0.1059
30500SOL     OW97336   8.350   8.879  11.692 -0.1230 -0.8071 -0.2013
30500SOL    HW197337   8.336   8.970  11.717  0.8572 -0.6883 -0.0458
30500SOL    HW297338   8.283   8.830  11.740 -1.7825 -0.0101 -1.5919
30501SOL     OW97339   5.253   9.917   4.473 -0.5496  0.0372  0.1727
30501SOL    HW197340   5.301   9.996   4.450  0.2473 -0.4585  0.0963
30501SOL    HW297341   5.161   9.942   4.465 -0.3191  1.0891  0.6238
30502SOL     OW97342   1.937   5.370   4.542 -0.9627  0.0827 -0.3001
30502SOL    HW197343   2.024   5.334   4.560 -0.3650  2.1074  1.1262
30502SOL    HW297344   1.877   5.303   4.575  0.0644 -0.6090  0.2403
30503SOL     OW97345  10.807  11.319  10.653 -0.5290 -0.3657 -0.1915
30503SOL    HW197346  10.751  11.297  10.578 -1.4867 -0.0846  0.4199
30503SOL    HW297347  10.812  11.415  10.651 -0.4499 -0.3650  0.0171
30504SOL     OW97348   2.518   6.843   7.325 -0.0301  0.2374  0.1017
30504SOL    HW197349   2.513   6.755   7.287  0.0157 -0.7945  2.3067
30504SOL    HW297350   2.600   6.879   7.291  0.0683 -0.6530 -0.6493
30505SOL     OW97351   8.728   6.994   1.515 -0.3973  0.0523 -0.0689
30505SOL    HW197352   8.680   6.943   1.450  0.7502 -1.0237 -0.1268
30505SOL    HW297353   8.731   7.082   1.478 -2.2730  0.1565 -0.0587
30506SOL     OW97354   2.769   8.472   9.173  0.3864  0.5786 -0.1742
30506SOL    HW197355   2.819   8.513   9.102 -0.1004  0.5828 -0.5156
30506SOL    HW297356   2.760   8.381   9.146  0.8681  0.3941  0.2556
30507SOL     OW97357   3.677   4.481   3.129  0.5275  0.4668  0.1358
30507SOL    HW197358   3.767   4.448   3.125  0.0852 -0.7286 -0.7425
30507SOL    HW297359   3.686   4.576   3.122  1.7014  0.3307 -0.4820
30508SOL     OW97360   2.479   6.171   5.889 -0.3928 -0.3557  0.6350
30508SOL    HW197361   2.455   6.126   5.808 -1.2224 -0.7220  1.0716
30508SOL    HW297362   2.398   6.176   5.939 -0.1073  0.7669  1.0185
30509SOL     OW97363   3.658   9.255   8.662  0.3835  1.0159 -0.1771
30509SOL    HW197364   3.615   9.318   8.720 -0.8906  0.7530 -0.7865
30509SOL    HW297365   3.640   9.288   8.574 -0.2320 -0.1427 -0.5059
30510SOL     OW97366  10.562   9.679   2.477  0.0794 -0.2168  0.3310
30510SOL    HW197367  10.648   9.719   2.487  0.1489 -0.0547 -0.7230
30510SOL    HW297368  10.503   9.735   2.526  0.4646  0.1125  0.4217
30511SOL     OW97369   8.218   7.433   4.369 -0.7035 -0.0596 -0.3359
30511SOL    HW197370   8.194   7.436   4.276  0.5532 -0.2622 -0.6907
30511SOL    HW297371   8.270   7.353   4.377 -0.6440  0.0559  0.5061
30512SOL     OW97372   6.604  11.007   9.624  0.0180  0.1712 -0.2333
30512SOL    HW197373   6.627  11.056   9.546 -2.0569  0.2137 -0.8892
30512SOL    HW297374   6.516  10.973   9.606  0.5336 -2.0580  1.0192
30513SOL     OW97375  11.208   1.631   2.170  0.1793  0.1996 -0.4775
30513SOL    HW197376  11.258   1.707   2.198  0.0367 -0.2243  0.9973
30513SOL    HW297377  11.220   1.567   2.240 -1.9548 -0.1147 -0.3216
30514SOL     OW97378   7.628   8.051   5.163  0.3425 -0.0410 -0.2796
30514SOL    HW197379   7.661   8.089   5.082  1.1230 -2.1177 -1.0112
30514SOL    HW297380   7.695   7.987   5.189 -0.5850 -0.4635  1.1982
30515SOL     OW97381   2.013   8.402   9.640  0.1607  0.1283 -0.5589
30515SOL    HW197382   2.093   8.453   9.627 -0.4601  0.8928 -1.5190
30515SOL    HW297383   1.984   8.425   9.728  1.2594 -0.5388 -0.0172
30516SOL     OW97384   9.359  11.185   0.648 -0.3282  0.0698  0.7158
30516SOL    HW197385   9.286  11.129   0.676 -0.5732  0.8255  1.6062
30516SOL    HW297386   9.378  11.156   0.558  0.8893 -2.8538  1.7890
30517SOL     OW97387   6.703   2.126   5.744  0.1342 -0.1218 -0.0961
30517SOL    HW197388   6.629   2.183   5.767 -0.4742 -0.9905  0.1262
30517SOL    HW297389   6.729   2.087   5.827  0.6720 -0.0258 -0.2208
30518SOL     OW97390   2.162   5.209   4.091  0.6302  0.3441 -0.2567
30518SOL    HW197391   2.253   5.238   4.082  0.4449  0.9839 -0.1100
30518SOL    HW297392   2.116   5.287   4.123  0.1910 -0.2138  0.4899
30519SOL     OW97393  10.932   6.677   7.063 -0.6911 -0.3352 -0.0669
30519SOL    HW197394  11.013   6.627   7.061 -1.4978 -1.6882 -1.3070
30519SOL    HW297395  10.960   6.769   7.072  0.9353 -0.7885 -0.1793
30520SOL     OW97396   2.932   3.320   4.140  0.1589 -0.2506 -0.1176
30520SOL    HW197397   2.868   3.342   4.207  0.5288 -1.0064  0.4955
30520SOL    HW297398   2.918   3.227   4.123 -0.3228  0.0516 -1.5221
30521SOL     OW97399   5.863   8.324   0.814  0.4618  0.1416 -0.2562
30521SOL    HW197400   5.827   8.287   0.733  1.3232 -0.4401 -0.3871
30521SOL    HW297401   5.885   8.247   0.867  0.1704  0.5132  0.4184
30522SOL     OW97402   8.879   4.402   7.902 -0.2836  0.6153  0.5946
30522SOL    HW197403   8.954   4.401   7.962  0.0642  0.6131  0.1699
30522SOL    HW297404   8.804   4.383   7.957  0.1432 -0.2988  0.8783
30523SOL     OW97405   4.716   4.543   2.135 -0.0744  0.3336  0.2085
30523SOL    HW197406   4.794   4.579   2.093  0.0298 -0.3847 -0.2309
30523SOL    HW297407   4.727   4.565   2.227  1.3310 -0.9221  0.3788
30524SOL     OW97408  11.016   3.638   7.485 -0.4991  0.1268  0.7348
30524SOL    HW197409  11.050   3.700   7.550  0.3337 -0.6190  1.0180
30524SOL    HW297410  11.071   3.651   7.408 -1.0400  0.5114  0.4004
30525SOL     OW97411   3.960   7.113   3.643 -0.4063  0.1348  0.5410
30525SOL    HW197412   3.912   7.186   3.604  0.6902  1.9005  2.3215
30525SOL    HW297413   3.920   7.101   3.729  0.7766  0.0578  1.1052
30526SOL     OW97414   3.016   0.800   7.058  0.7753 -0.3144  0.3284
30526SOL    HW197415   2.945   0.736   7.050  0.8156 -0.1352 -2.4334
30526SOL    HW297416   2.998   0.865   6.990  3.9706 -0.6568 -1.0113
30527SOL     OW97417   9.298   9.665   3.142 -0.1594 -0.5776  0.0444
30527SOL    HW197418   9.352   9.705   3.074 -0.8297  0.7957  0.2890
30527SOL    HW297419   9.292   9.573   3.116  2.9616 -1.0067  0.4775
30528SOL     OW97420   0.632   3.720   1.018 -0.4849  0.7190 -0.0959
30528SOL    HW197421   0.615   3.626   1.011 -1.4807  0.8353  0.4893
30528SOL    HW297422   0.611   3.741   1.109 -0.0519  1.4712 -0.1603
30529SOL     OW97423   0.616   6.541   2.975  0.2182 -0.2555 -0.1679
30529SOL    HW197424   0.705   6.525   2.944 -0.0908 -1.5083 -0.4501
30529SOL    HW297425   0.628   6.582   3.061  1.0619  0.4226 -0.6015
30530SOL     OW97426   1.090   0.187   9.336  0.1589  0.2834  0.1180
30530SOL    HW197427   1.080   0.215   9.427  2.8806  0.4278  0.4482
30530SOL    HW297428   1.068   0.094   9.337  2.0338 -0.1946  1.3852
30531SOL     OW97429  11.778  10.339  11.511  0.1598  0.1172 -0.1559
30531SOL    HW197430  11.855  10.361  11.564 -0.1591  1.7974 -0.3353
30531SOL    HW297431  11.735  10.269  11.560  1.9071 -1.0276 -0.1740
30532SOL     OW97432   0.932   2.311   3.397 -0.3413 -0.2365 -0.5278
30532SOL    HW197433   0.904   2.220   3.393  1.1425 -0.7381 -0.0701
30532SOL    HW297434   0.969   2.329   3.311  2.1488 -1.0516  0.2983
30533SOL     OW97435   1.428   9.832   4.688 -0.3481  0.5518 -0.0845
30533SOL    HW197436   1.433   9.780   4.608 -0.6866 -0.8602  0.7650
30533SOL    HW297437   1.336   9.829   4.712 -0.0765 -0.0149  0.9477
30534SOL     OW97438   3.614  10.902   3.015 -0.2150  0.3321  0.2811
30534SOL    HW197439   3.694  10.861   3.047 -0.7092 -2.1096 -1.3375
30534SOL    HW297440   3.549  10.831   3.016 -1.6330  1.5491 -0.9868
30535SOL     OW97441  10.035   0.579   0.588  0.1787 -0.0349  0.0282
30535SOL    HW197442  10.005   0.594   0.677  2.6292 -1.6593  1.2113
30535SOL    HW297443  10.123   0.543   0.597 -0.2162 -2.1749 -2.9270
30536SOL     OW97444   4.596   6.945  10.302  0.0428 -0.1475  0.0244
30536SOL    HW197445   4.512   6.961  10.346 -0.1550  1.8593 -0.9657
30536SOL    HW297446   4.577   6.875  10.239 -0.7211 -0.1356  0.2236
30537SOL     OW97447   9.994   1.660  10.564 -0.9249  0.7743 -0.3233
30537SOL    HW197448  10.056   1.720  10.605 -1.8734  0.4628  1.6398
30537SOL    HW297449   9.964   1.707  10.486 -0.2187  2.0317  0.1271
30538SOL     OW97450   9.198  11.264   7.960  0.0943 -0.2180 -0.3045
30538SOL    HW197451   9.264  11.213   7.912 -0.1857 -1.5045  0.6461
30538SOL    HW297452   9.133  11.287   7.893  0.0181 -1.4598 -0.6711
30539SOL     OW97453   2.152   9.377   3.315  0.3284  0.3877  0.0212
30539SOL    HW197454   2.182   9.467   3.317 -3.6643  1.9142 -0.0455
30539SOL    HW297455   2.161   9.349   3.224  0.2532  1.2323 -0.2453
30540SOL     OW97456  12.173   9.465   4.813  0.5165 -0.2346  0.4587
30540SOL    HW197457  12.171   9.490   4.905 -0.5419 -0.2365  0.4488
30540SOL    HW297458  12.226   9.533   4.771  2.5689 -1.2280  1.3284
30541SOL     OW97459   2.245  10.392  11.828 -0.2084  0.0730  0.0408
30541SOL    HW197460   2.159  10.392  11.871  0.7235  0.5256  2.0146
30541SOL    HW297461   2.271  10.300  11.827  0.3010  0.1647  1.6889
30542SOL     OW97462   3.165   9.090  11.460  0.3098 -0.0853 -0.1992
30542SOL    HW197463   3.113   9.168  11.436  0.8285  0.0716 -0.8706
30542SOL    HW297464   3.251   9.125  11.482  0.1781 -0.3558  0.7977
30543SOL     OW97465   2.800   6.382   8.774  0.2261 -0.2345  0.0900
30543SOL    HW197466   2.851   6.307   8.805  1.8958  0.0192 -1.8182
30543SOL    HW297467   2.851   6.458   8.802 -0.0814  0.0970 -0.2554
30544SOL     OW97468  12.103   3.971   1.674 -0.1944 -0.1347  0.1783
30544SOL    HW197469  12.060   4.055   1.692 -0.4879 -0.5089  1.3172
30544SOL    HW297470  12.041   3.924   1.618 -1.3057 -0.6483  1.7667
30545SOL     OW97471   5.677   5.774   8.536 -0.2159  0.4175 -0.3316
30545SOL    HW197472   5.605   5.752   8.477 -0.3961 -0.9244  0.3653
30545SOL    HW297473   5.710   5.689   8.566  0.6769  1.0572  0.5397
30546SOL     OW97474   3.898   1.436   0.311 -0.0772 -0.1430 -0.2369
30546SOL    HW197475   3.904   1.531   0.322  1.8180 -0.3313  0.7784
30546SOL    HW297476   3.985   1.410   0.280 -0.4363 -1.6044 -0.0968
30547SOL     OW97477   4.529   5.541   7.261 -0.0544  0.3405  0.1500
30547SOL    HW197478   4.611   5.492   7.263 -0.6410 -0.9650 -2.4189
30547SOL    HW297479   4.464   5.480   7.297 -0.1433  0.8330  0.8400
30548SOL     OW97480   7.457   3.674   1.469 -0.3842 -0.1191  0.7271
30548SOL    HW197481   7.488   3.699   1.556  1.5645 -0.4701  0.1812
30548SOL    HW297482   7.501   3.591   1.451 -1.0953 -0.2632 -0.4219
30549SOL     OW97483  11.655  11.158   3.881 -0.5230  0.1782 -0.1170
30549SOL    HW197484  11.741  11.200   3.881 -0.3890 -0.0831 -1.1138
30549SOL    HW297485  11.595  11.228   3.855 -0.4329  0.0052 -0.7820
30550SOL     OW97486   0.802   7.438   2.098 -0.1453 -0.2662  0.3759
30550SOL    HW197487   0.803   7.392   2.014 -0.2057 -1.5065  1.0353
30550SOL    HW297488   0.767   7.525   2.078 -0.4868 -0.6658 -0.8133
30551SOL     OW97489   0.572  10.232   3.398 -0.3268  0.0658  0.4042
30551SOL    HW197490   0.495  10.196   3.355 -1.3014 -0.1317  2.2217
30551SOL    HW297491   0.575  10.324   3.371 -0.6291 -0.1729 -0.4421
30552SOL     OW97492  10.930   7.052   3.855 -0.6246  0.3297 -0.5945
30552SOL    HW197493  10.874   6.977   3.873 -0.2876 -0.1069 -1.3335
30552SOL    HW297494  10.869   7.120   3.826 -0.7365 -0.3504 -2.0429
30553SOL     OW97495   9.677   5.667   2.007  0.0265 -0.7619 -0.0811
30553SOL    HW197496   9.590   5.684   2.044 -1.1355 -2.3562 -1.9117
30553SOL    HW297497   9.660   5.619   1.926  2.4969  1.2654 -1.9682
30554SOL     OW97498   9.526   9.805  11.194  0.8161 -0.0750 -0.2555
30554SOL    HW197499   9.432   9.794  11.206  1.0177  1.1259  3.8287
30554SOL    HW297500   9.534   9.869  11.123 -1.2956 -1.1552 -1.5832
30555SOL     OW97501   4.751   4.841   6.332  0.0949  0.3453 -0.0867
30555SOL    HW197502   4.711   4.918   6.373 -1.1411  0.8947 -2.1566
30555SOL    HW297503   4.687   4.814   6.266  2.3242  0.0972 -2.2842
30556SOL     OW97504   7.154  10.783  11.899  0.2882  0.1778 -0.1287
30556SOL    HW197505   7.107  10.724  11.840  0.0700  0.0956  0.1254
30556SOL    HW297506   7.220  10.727  11.940  1.0296  0.4276 -0.9422
30557SOL     OW97507   7.056   5.125   1.588 -0.0928  0.3496  0.2461
30557SOL    HW197508   7.126   5.162   1.643  1.3674 -1.6750 -0.1493
30557SOL    HW297509   7.075   5.158   1.500  0.4681 -0.2700  0.1218
30558SOL     OW97510   3.791   7.824   5.704  0.0181 -0.2573  0.1776
30558SOL    HW197511   3.697   7.839   5.705 -0.1608 -1.0149 -1.4637
30558SOL    HW297512   3.805   7.761   5.633  1.7990  0.1038  0.1504
30559SOL     OW97513  12.110  10.247   9.984 -0.2424 -0.5057 -0.2105
30559SOL    HW197514  12.131  10.225   9.893 -0.9150 -0.7651 -0.3100
30559SOL    HW297515  12.155  10.330   9.999 -2.9421  1.4832 -1.9667
30560SOL     OW97516   3.888  11.804   6.725 -0.4199  0.0564 -0.4961
30560SOL    HW197517   3.833  11.797   6.803 -0.3632 -0.8244 -0.5196
30560SOL    HW297518   3.961  11.860   6.752 -0.2707 -0.4442  0.1756
30561SOL     OW97519   9.638  11.068   0.814 -0.0058  0.2780  0.1005
30561SOL    HW197520   9.597  11.135   0.869  1.5947  0.2913  1.3517
30561SOL    HW297521   9.614  10.985   0.855  1.1331  0.2862  0.8359
30562SOL     OW97522   2.565   5.931   0.644 -0.0142  0.2710 -0.5349
30562SOL    HW197523   2.614   5.916   0.725 -0.6726  0.2895 -0.1224
30562SOL    HW297524   2.475   5.944   0.673  0.0266  2.0634 -1.1355
30563SOL     OW97525   3.780   9.052   7.416 -0.0465  0.3053 -0.0874
30563SOL    HW197526   3.775   9.047   7.512 -2.2573 -1.1960 -0.2149
30563SOL    HW297527   3.799   8.963   7.388  1.0983  0.8317 -1.0662
30564SOL     OW97528   6.599   3.179   3.540 -0.0589 -0.6012 -0.2947
30564SOL    HW197529   6.630   3.118   3.607  1.5848  1.1812  0.6557
30564SOL    HW297530   6.511   3.203   3.569 -0.2731 -1.6070 -0.0611
30565SOL     OW97531   3.710   1.361   9.821 -0.1510 -0.1338  0.2414
30565SOL    HW197532   3.736   1.444   9.781 -1.9297  0.1354 -0.4417
30565SOL    HW297533   3.629   1.381   9.868 -0.1679 -1.3190  0.7600
30566SOL     OW97534   9.706  11.654   4.605 -0.3554  0.0785 -0.0475
30566SOL    HW197535   9.764  11.578   4.598 -1.7401 -0.9725 -0.7495
30566SOL    HW297536   9.643  11.629   4.673  1.0586  1.9937  2.1288
30567SOL     OW97537  11.764   0.635  11.121  0.0051  0.1541 -0.7459
30567SOL    HW197538  11.685   0.664  11.167 -1.2757 -0.9000 -2.1699
30567SOL    HW297539  11.829   0.623  11.190 -1.5661 -0.5095  0.6906
30568SOL     OW97540   5.513   3.277   4.424 -0.1944  0.4222 -0.4780
30568SOL    HW197541   5.553   3.341   4.364  0.4903  0.6757  0.2398
30568SOL    HW297542   5.443   3.326   4.467 -0.6333  0.2632 -0.9900
30569SOL     OW97543   2.075   1.732   9.650  0.1811  0.0826  0.3031
30569SOL    HW197544   2.098   1.724   9.558 -0.7210 -0.0614  0.0903
30569SOL    HW297545   2.113   1.816   9.677 -1.0219  0.9604 -0.6481
30570SOL     OW97546   0.790   3.777   9.657  0.6052  0.1294 -0.1672
30570SOL    HW197547   0.872   3.736   9.683  0.1376 -0.6092  0.1825
30570SOL    HW297548   0.811   3.870   9.652  1.3889 -0.0137  0.2083
30571SOL     OW97549   9.243   9.087   4.483  0.3735 -0.5613 -0.2120
30571SOL    HW197550   9.207   9.159   4.534  2.2905  2.0196 -2.1831
30571SOL    HW297551   9.171   9.061   4.425 -0.3547 -0.2257  0.5200
30572SOL     OW97552  10.936  12.013   2.952 -0.4726 -0.0842  0.1152
30572SOL    HW197553  10.861  11.964   2.986  1.8458 -3.6853  0.5032
30572SOL    HW297554  10.936  11.995   2.858 -0.1233 -0.0544  0.1084
30573SOL     OW97555  11.872   0.360  12.316 -0.3139 -0.6983  0.4273
30573SOL    HW197556  11.786   0.360  12.357 -0.6756 -0.5766 -0.3093
30573SOL    HW297557  11.908   0.447  12.335 -0.9303 -0.2482 -0.4173
30574SOL     OW97558  11.291   2.187   9.655 -0.1469  0.3239 -0.5703
30574SOL    HW197559  11.269   2.110   9.602  2.1145 -2.0734  1.6991
30574SOL    HW297560  11.314   2.254   9.590 -1.8705 -0.9277 -2.6373
30575SOL     OW97561   4.196   8.308   9.284  0.1959  0.0872 -0.2283
30575SOL    HW197562   4.195   8.222   9.242 -0.0169 -0.2998  0.5480
30575SOL    HW297563   4.105   8.338   9.279 -0.9288 -1.8969  3.7364
30576SOL     OW97564   5.113   6.183   4.733 -0.4111 -0.1178  0.6421
30576SOL    HW197565   5.199   6.174   4.774 -0.9498 -1.9476  1.4687
30576SOL    HW297566   5.130   6.173   4.639  0.4595  1.2860  0.6076
30577SOL     OW97567   3.577  10.879   5.073 -0.1224  0.3237  0.4487
30577SOL    HW197568   3.508  10.897   5.137  0.4087  1.1231  0.8087
30577SOL    HW297569   3.645  10.944   5.092  1.2315 -1.1665  0.8285
30578SOL     OW97570   8.459   9.169  10.895 -0.1615 -0.9297 -0.2005
30578SOL    HW197571   8.419   9.153  10.809 -2.5770  1.6843  0.3211
30578SOL    HW297572   8.412   9.110  10.954  1.4772 -2.7035 -0.5619
30579SOL     OW97573   5.783   7.600   9.791  0.5679 -0.0601 -0.3553
30579SOL    HW197574   5.791   7.514   9.832  0.1965  0.4754  0.8950
30579SOL    HW297575   5.826   7.660   9.852 -0.6436  0.8781 -0.3744
30580SOL     OW97576   4.618   0.382   9.580 -0.2901  0.1573 -0.1070
30580SOL    HW197577   4.575   0.468   9.580  4.6108  3.0268  1.4838
30580SOL    HW297578   4.685   0.389   9.512  1.3804 -1.7430  1.2292
30581SOL     OW97579   5.942   7.307  11.589  0.0864 -0.6842 -0.2913
30581SOL    HW197580   5.993   7.386  11.571  0.0296 -0.5832 -0.0139
30581SOL    HW297581   5.958   7.288  11.681 -0.8918 -0.2684 -0.0189
30582SOL     OW97582  11.216   3.196   5.377  0.4422 -0.2182 -0.2490
30582SOL    HW197583  11.305   3.231   5.376  0.7251 -0.8970  0.4970
30582SOL    HW297584  11.222   3.112   5.332 -0.2523  0.6657 -2.1016
30583SOL     OW97585  11.214  10.061   4.093 -0.1967 -0.4993 -0.0885
30583SOL    HW197586  11.240  10.153   4.084 -1.2355 -0.2391 -0.5314
30583SOL    HW297587  11.244  10.036   4.180 -1.1576  0.6801  0.6054
30584SOL     OW97588   0.283   6.982   4.088  0.3289  0.2241  0.5039
30584SOL    HW197589   0.248   6.987   4.177  0.9719  0.2935  0.7583
30584SOL    HW297590   0.272   7.071   4.053  1.1641  0.5017  0.9371
30585SOL     OW97591   6.863   6.383   9.632  0.1206 -0.2083 -0.7430
30585SOL    HW197592   6.777   6.341   9.628 -0.4172  0.8539 -0.6583
30585SOL    HW297593   6.912   6.331   9.695 -1.0263  0.1526  0.4973
30586SOL     OW97594  10.254   2.083   1.020 -0.3791  0.0222  0.2080
30586SOL    HW197595  10.217   2.170   1.011  1.4658  0.8771  0.3858
30586SOL    HW297596  10.349   2.098   1.028 -0.0145 -1.9947  0.1846
30587SOL     OW97597   7.271   4.709   3.558  0.2222  0.3442 -0.9192
30587SOL    HW197598   7.215   4.633   3.575  0.3883  0.3573 -0.3146
30587SOL    HW297599   7.297   4.741   3.644  0.1542  1.0935 -1.1635
30588SOL     OW97600   3.160  11.410  12.330 -0.4900 -0.7721  0.5206
30588SOL    HW197601   3.237  11.443  12.377 -0.1038  0.0267 -0.6348
30588SOL    HW297602   3.190  11.328  12.291 -0.2712 -0.5662  0.2457
30589SOL     OW97603  11.892   0.389   7.069  0.4359 -0.3777 -0.2430
30589SOL    HW197604  11.818   0.433   7.111  0.9151 -0.0840  0.3046
30589SOL    HW297605  11.852   0.333   7.002 -0.2037  0.6913 -0.7849
30590SOL     OW97606   2.367   8.211   3.434 -0.8208  0.1427  0.3388
30590SOL    HW197607   2.334   8.196   3.345 -2.0201 -0.7262  0.8927
30590SOL    HW297608   2.456   8.243   3.422 -0.2761 -1.7245 -1.1409
30591SOL     OW97609   8.805  11.660  12.221  0.2240  0.0874  0.4135
30591SOL    HW197610   8.765  11.746  12.208 -1.7511 -1.0000 -1.1540
30591SOL    HW297611   8.877  11.658  12.157 -0.7311 -0.0039 -0.6837
30592SOL     OW97612   0.742   0.171   2.397 -0.0676 -0.3084 -0.0581
30592SOL    HW197613   0.687   0.125   2.461  1.6089 -0.3425  1.4255
30592SOL    HW297614   0.776   0.247   2.444  0.7304  0.0102 -1.1061
30593SOL     OW97615   9.368   9.833   8.592  0.6833  0.2386 -0.6032
30593SOL    HW197616   9.301   9.769   8.614  1.5147 -0.9886 -1.4733
30593SOL    HW297617   9.449   9.795   8.625  1.5747 -0.4444 -3.3107
30594SOL     OW97618   8.922   0.699  10.846 -0.5063  0.5888  0.1673
30594SOL    HW197619   9.011   0.724  10.821 -0.1393 -0.8374 -0.0039
30594SOL    HW297620   8.932   0.616  10.891 -2.0471 -1.3795 -2.7970
30595SOL     OW97621   5.872   8.331   6.550  0.1025 -0.0174 -0.1195
30595SOL    HW197622   5.964   8.305   6.547 -0.0666 -0.9752  1.5758
30595SOL    HW297623   5.843   8.308   6.639 -1.2881  1.9710  0.0150
30596SOL     OW97624   9.118   7.001   7.235  0.5270 -0.2895  0.1936
30596SOL    HW197625   9.037   7.050   7.219  0.9126 -0.2753 -2.1332
30596SOL    HW297626   9.089   6.910   7.239  0.3071 -0.2241  0.1530
30597SOL     OW97627   2.899   1.968   7.889  0.3034 -0.4726  0.9007
30597SOL    HW197628   2.829   2.000   7.947 -0.4769  0.4422 -0.4909
30597SOL    HW297629   2.854   1.948   7.807  1.7497  0.7531 -0.2461
30598SOL     OW97630  12.233   9.929   0.200  0.0527 -0.3924  0.2935
30598SOL    HW197631  12.255   9.963   0.287  0.1216  0.7588 -0.1522
30598SOL    HW297632  12.270   9.841   0.199  0.8969 -0.0674  1.0927
30599SOL     OW97633  11.527  10.034   6.147 -0.0443  0.0433 -0.4837
30599SOL    HW197634  11.431  10.034   6.147 -0.1531 -2.7347 -1.5508
30599SOL    HW297635  11.551  10.086   6.071 -0.6581  1.2966  0.1561
30600SOL     OW97636   2.946   7.058   7.046  0.2987 -0.0907 -0.1847
30600SOL    HW197637   2.892   6.983   7.070 -0.8298  0.9172  0.5210
30600SOL    HW297638   3.021   7.054   7.106 -0.4508  0.1155  0.7730
30601SOL     OW97639   5.871   0.615   8.094 -0.5568 -0.2083 -0.6588
30601SOL    HW197640   5.864   0.523   8.119  0.7865 -0.1913 -0.1469
30601SOL    HW297641   5.963   0.636   8.107 -0.9295  1.3330 -0.3470
30602SOL     OW97642   4.357   6.170   4.658  0.3259 -0.1934  0.3120
30602SOL    HW197643   4.415   6.094   4.664 -0.7418 -0.9874  0.8420
30602SOL    HW297644   4.371   6.218   4.739  0.4622 -0.2097  0.2989
30603SOL     OW97645   0.686   2.315   7.786  0.1419 -0.3158  0.3626
30603SOL    HW197646   0.707   2.261   7.709  1.1725 -0.4235  0.7065
30603SOL    HW297647   0.760   2.376   7.792 -0.9159  1.0271  0.0913
30604SOL     OW97648   6.921  11.751   4.922 -0.2994 -0.2338 -0.2667
30604SOL    HW197649   6.858  11.690   4.883  0.8716 -1.6863  0.0561
30604SOL    HW297650   6.994  11.696   4.950  1.3777  1.4570 -1.1172
30605SOL     OW97651   5.410   7.624   3.900 -0.1692 -0.4064 -0.4809
30605SOL    HW197652   5.436   7.536   3.871  0.1853 -0.3522 -0.3369
30605SOL    HW297653   5.493   7.667   3.920 -0.4050 -0.4161  0.5628
30606SOL     OW97654  10.415  11.953  11.168  0.1168  0.3421  0.2871
30606SOL    HW197655  10.388  11.921  11.081 -2.2244  1.3623  0.5792
30606SOL    HW297656  10.382  12.042  11.172  0.7222  0.5184  2.0200
30607SOL     OW97657   5.566   3.642   0.621 -0.1044 -0.1705  0.0611
30607SOL    HW197658   5.594   3.567   0.672  0.9879  0.3915  0.3201
30607SOL    HW297659   5.646   3.693   0.606 -0.5170  0.0794 -1.5473
30608SOL     OW97660   8.603   4.744   5.457  0.5788 -0.1763  0.0925
30608SOL    HW197661   8.638   4.709   5.539  2.2543  1.3116  0.0794
30608SOL    HW297662   8.519   4.699   5.445  1.2276 -1.9181  1.5616
30609SOL     OW97663   6.189   1.044  11.357 -0.4443  0.2625  0.3030
30609SOL    HW197664   6.201   0.950  11.351  0.8323  0.4788 -1.0153
30609SOL    HW297665   6.113   1.062  11.300 -0.2037  0.1126 -0.0682
30610SOL     OW97666   3.346   7.573   2.364  0.0116  0.7466 -0.1183
30610SOL    HW197667   3.439   7.565   2.341  0.4152 -1.4136  1.8682
30610SOL    HW297668   3.333   7.510   2.435 -2.9701  1.0968 -0.2134
30611SOL     OW97669   4.842  10.528   5.959  0.0999  0.1610  0.0500
30611SOL    HW197670   4.914  10.587   5.981  1.6604 -1.1767 -1.2792
30611SOL    HW297671   4.837  10.531   5.863  1.4296 -3.1492 -0.2404
30612SOL     OW97672  12.145   0.479   4.899  0.4921  0.4060 -0.1389
30612SOL    HW197673  12.094   0.555   4.925 -0.9185 -0.5322 -0.0821
30612SOL    HW297674  12.236   0.508   4.904 -0.0068  1.9667  0.2216
30613SOL     OW97675  10.945   8.084   0.198  0.0859  0.0922  0.4903
30613SOL    HW197676  10.988   8.010   0.155 -1.0026 -0.3898  0.2024
30613SOL    HW297677  11.010   8.154   0.195  0.5270 -0.3446 -0.7379
30614SOL     OW97678   0.546   9.298  12.316 -0.6223  0.2287  0.1847
30614SOL    HW197679   0.562   9.343  12.399  2.1917 -2.3496  1.2145
30614SOL    HW297680   0.625   9.312  12.265 -1.1000 -0.6678 -0.8548
30615SOL     OW97681   6.737   7.745  11.297 -0.2130 -0.3050 -0.2054
30615SOL    HW197682   6.811   7.744  11.357 -1.2839  0.6996  1.2272
30615SOL    HW297683   6.770   7.788  11.218  0.9067 -0.5280  0.1248
30616SOL     OW97684   9.563   9.139   9.308 -0.3319  0.0385  0.4590
30616SOL    HW197685   9.533   9.092   9.230 -1.7121 -0.1391  1.0785
30616SOL    HW297686   9.605   9.218   9.274 -1.8761  0.5066 -0.4342
30617SOL     OW97687   3.135   7.119   3.433 -0.6361  0.3809  0.2886
30617SOL    HW197688   3.177   7.039   3.463 -0.9842  0.6787  1.6751
30617SOL    HW297689   3.126   7.109   3.338 -0.0156 -0.8888  0.3543
30618SOL     OW97690   8.367   2.170   8.859  0.5071 -0.1896 -0.2247
30618SOL    HW197691   8.371   2.217   8.776 -1.9983 -1.5340 -1.2222
30618SOL    HW297692   8.275   2.144   8.868  1.2999 -2.9710  1.3082
30619SOL     OW97693   3.361   6.579   7.098 -0.3261 -0.2822  0.9119
30619SOL    HW197694   3.308   6.556   7.021  0.6033  0.0032  0.1697
30619SOL    HW297695   3.416   6.502   7.113 -0.5020 -0.3359  1.3043
30620SOL     OW97696   7.574   6.804   7.892 -0.2185  0.4976  0.0942
30620SOL    HW197697   7.613   6.861   7.826 -1.4656  1.2121 -0.0580
30620SOL    HW297698   7.585   6.851   7.974 -1.0665  0.8999 -0.0037
30621SOL     OW97699   5.728   0.726   3.690  0.4059 -0.1889  0.0186
30621SOL    HW197700   5.646   0.680   3.705  0.3215  0.4268  1.6220
30621SOL    HW297701   5.789   0.688   3.752  1.3288 -0.5626 -1.0778
30622SOL     OW97702   2.598   0.195   4.430  0.0090 -0.2028 -0.3617
30622SOL    HW197703   2.618   0.192   4.523  0.1078 -0.4105 -0.3897
30622SOL    HW297704   2.580   0.104   4.406 -0.1765 -0.1282 -0.5094
30623SOL     OW97705   1.774  10.999   0.547  0.2620  0.4453 -0.7063
30623SOL    HW197706   1.727  11.006   0.464  1.7084  2.3321 -1.4464
30623SOL    HW297707   1.810  10.910   0.547 -0.9393 -0.0590 -1.4074
30624SOL     OW97708   8.716   9.766   8.719 -0.2811  0.3426  0.0348
30624SOL    HW197709   8.803   9.789   8.753 -0.0927  1.9452 -1.4351
30624SOL    HW297710   8.685   9.845   8.675 -1.9243 -0.6244 -0.6348
30625SOL     OW97711   8.701   9.244   3.418 -0.1459  0.4064  0.2598
30625SOL    HW197712   8.721   9.315   3.358  0.1701  0.5221  0.4964
30625SOL    HW297713   8.750   9.169   3.385  0.4214  0.6024  0.6524
30626SOL     OW97714   2.451  10.960   3.683  0.1095  0.1228  0.4185
30626SOL    HW197715   2.410  10.997   3.762 -1.4406  0.3059 -0.4342
30626SOL    HW297716   2.449  10.866   3.697  0.6077  0.1853  0.9510
30627SOL     OW97717   5.260  11.141  11.643 -0.1307  0.4298 -0.0872
30627SOL    HW197718   5.313  11.214  11.612  0.9465 -0.8411 -1.3660
30627SOL    HW297719   5.267  11.145  11.739  3.0122 -0.1671 -0.1895
30628SOL     OW97720  10.638   3.190   6.931  0.4089  0.3172 -0.3747
30628SOL    HW197721  10.642   3.284   6.912 -0.9855  0.1675 -1.6148
30628SOL    HW297722  10.550   3.164   6.903  1.3681 -1.6963 -1.7458
30629SOL     OW97723   1.286   3.277   7.215  0.5122  0.6956 -0.1333
30629SOL    HW197724   1.370   3.302   7.177  0.9367 -2.6908 -1.8782
30629SOL    HW297725   1.235   3.244   7.141 -1.5242  0.6559  1.2078
30630SOL     OW97726   3.945   9.272   1.179 -0.0652  0.3990  0.3782
30630SOL    HW197727   4.039   9.281   1.164  0.2245 -1.1586  1.0446
30630SOL    HW297728   3.938   9.230   1.265 -1.3310 -0.2449 -0.0149
30631SOL     OW97729   9.500   6.475  10.913 -0.7405 -0.1437 -0.2760
30631SOL    HW197730   9.463   6.483  11.002  0.4688 -0.4423  0.2703
30631SOL    HW297731   9.454   6.401  10.874 -1.3187  0.0215  0.0802
30632SOL     OW97732   0.968   5.240   3.767  0.4233  0.1655  0.4699
30632SOL    HW197733   1.023   5.170   3.803 -0.0829 -1.0872 -1.0665
30632SOL    HW297734   1.029   5.309   3.744  1.0100 -0.0194  1.3986
30633SOL     OW97735   9.556   5.644   4.366  0.3205  0.0828  1.0852
30633SOL    HW197736   9.474   5.640   4.317  0.9210  0.7051  0.0032
30633SOL    HW297737   9.621   5.605   4.308  0.7811 -0.5391  1.9863
30634SOL     OW97738   7.906   7.025   8.163  0.1216  0.5436 -0.2309
30634SOL    HW197739   7.846   7.084   8.116 -0.5587  1.5340  1.7706
30634SOL    HW297740   7.876   6.937   8.141 -0.1424  0.9666 -1.6468
30635SOL     OW97741   1.528  10.531   2.571 -0.0837 -0.2479 -0.2565
30635SOL    HW197742   1.602  10.502   2.518  1.9107  2.5456  0.7935
30635SOL    HW297743   1.505  10.454   2.624 -0.1177 -2.1472 -2.8482
30636SOL     OW97744  11.302   2.288   2.163 -0.7517 -0.7695 -0.0869
30636SOL    HW197745  11.291   2.208   2.111 -2.6519 -1.0543  0.6806
30636SOL    HW297746  11.236   2.348   2.128  1.0221  0.7429 -1.0469
30637SOL     OW97747   5.508   5.564   3.225 -0.4034  0.2209 -0.4448
30637SOL    HW197748   5.545   5.481   3.196 -1.7670 -0.4333 -0.4050
30637SOL    HW297749   5.584   5.618   3.246  0.5206 -1.1508 -0.0831
30638SOL     OW97750   1.332   2.749   3.088 -0.0674 -0.1595  0.3527
30638SOL    HW197751   1.414   2.775   3.046  1.4959  0.2108  3.3769
30638SOL    HW297752   1.285   2.832   3.101  0.4776  0.0305  1.2423
30639SOL     OW97753   5.922   2.057   1.434 -0.0983 -0.0561 -0.3625
30639SOL    HW197754   5.845   2.057   1.378  0.1465 -0.4162 -0.7001
30639SOL    HW297755   5.908   1.985   1.495 -0.0094 -0.1439 -0.4467
30640SOL     OW97756  11.801   6.670   4.741 -0.0929  0.0311 -0.0101
30640SOL    HW197757  11.747   6.735   4.696  0.5695 -0.0340 -0.9359
30640SOL    HW297758  11.748   6.591   4.741 -0.3303  0.1907 -0.1750
30641SOL     OW97759  11.533   4.432   6.991 -0.3967 -0.8846 -0.1296
30641SOL    HW197760  11.619   4.394   7.010  0.1079  0.8180  1.2730
30641SOL    HW297761  11.470   4.370   7.029  0.3364 -0.9670  1.0039
30642SOL     OW97762   3.334   7.028   5.118  0.3622 -0.1184  0.0410
30642SOL    HW197763   3.369   6.944   5.146  1.9198  0.8676  1.2550
30642SOL    HW297764   3.403   7.091   5.139 -1.5146  1.7447  1.0444
30643SOL     OW97765   5.817  10.167   8.549  0.0957 -0.3996 -0.0586
30643SOL    HW197766   5.768  10.175   8.631  2.8591 -0.6788  1.7341
30643SOL    HW297767   5.782  10.088   8.509  0.1526 -1.5511  2.0023
30644SOL     OW97768  12.195   0.566  11.244  0.2785  0.3069 -0.1810
30644SOL    HW197769  12.160   0.604  11.324 -1.2730  1.1653 -1.2131
30644SOL    HW297770  12.289   0.558  11.260  0.4974  3.2666  0.6289
30645SOL     OW97771   5.786  11.983   9.803 -0.5006 -0.0757 -0.1624
30645SOL    HW197772   5.692  11.985   9.787 -0.5179 -0.5719 -0.1202
30645SOL    HW297773   5.824  12.030   9.728 -0.7000 -0.9124 -0.7948
30646SOL     OW97774   7.064   9.382   5.234  0.3696 -0.3334 -0.2895
30646SOL    HW197775   7.145   9.372   5.184 -0.2839  0.6826 -1.5898
30646SOL    HW297776   7.054   9.476   5.246 -0.1178 -0.5027  0.7320
30647SOL     OW97777   4.587   2.106   4.689  0.2300 -0.6849  0.4809
30647SOL    HW197778   4.575   2.170   4.619  1.3645 -1.4619 -0.4697
30647SOL    HW297779   4.504   2.108   4.738 -0.6185 -0.1787 -0.9166
30648SOL     OW97780   7.535   5.912   1.431 -0.3585  1.0730  0.0986
30648SOL    HW197781   7.624   5.880   1.418 -0.6800  0.2172 -0.0897
30648SOL    HW297782   7.543   6.007   1.430  0.4151  1.0194 -0.9759
30649SOL     OW97783   9.942   1.823   2.384 -0.1537 -0.4174  0.0336
30649SOL    HW197784   9.975   1.870   2.307 -1.5563 -0.7107 -0.7941
30649SOL    HW297785   9.998   1.851   2.456  0.7545  0.4106 -0.9653
30650SOL     OW97786  11.420   7.317   0.981 -0.8131  0.0058 -0.6366
30650SOL    HW197787  11.451   7.406   0.969  0.8794 -0.7423 -2.5455
30650SOL    HW297788  11.407   7.284   0.892  1.6953 -2.6053 -0.2150
30651SOL     OW97789  10.726   6.958   0.170  0.3242 -0.0861 -0.1963
30651SOL    HW197790  10.673   7.010   0.231  0.1048 -0.5690  0.0324
30651SOL    HW297791  10.781   7.022   0.125  0.9360  0.2207  0.9436
30652SOL     OW97792   0.863  10.759  11.020 -0.0773 -0.7356  0.2339
30652SOL    HW197793   0.919  10.836  11.008  0.6236 -1.3248 -0.3752
30652SOL    HW297794   0.924  10.689  11.043 -0.5805 -1.3507 -0.2833
30653SOL     OW97795   2.720   2.137   0.799 -0.6721  0.2552  0.6642
30653SOL    HW197796   2.647   2.142   0.861  0.7519 -0.7528  2.5414
30653SOL    HW297797   2.708   2.053   0.755  0.9083 -1.4616  3.2219
30654SOL     OW97798  12.073   6.456   0.211  0.2802 -0.0263  1.0818
30654SOL    HW197799  12.146   6.462   0.273  1.7259 -1.2153 -0.4100
30654SOL    HW297800  12.020   6.383   0.243  1.9390 -1.7546  0.0969
30655SOL     OW97801   5.552   2.269   8.966 -0.1566  0.2918  0.1444
30655SOL    HW197802   5.582   2.198   9.023  0.5909  0.0138 -0.5737
30655SOL    HW297803   5.632   2.317   8.946 -0.1832 -0.3930 -1.7383
30656SOL     OW97804   2.811  11.391   4.289  0.5164 -0.1294 -0.2500
30656SOL    HW197805   2.803  11.295   4.287 -1.5392 -0.0249  0.3000
30656SOL    HW297806   2.810  11.417   4.197  2.6032 -0.6772 -0.4769
30657SOL     OW97807   0.268   3.303   8.748 -0.4378  0.5936  0.1761
30657SOL    HW197808   0.296   3.376   8.803  1.7507 -0.6916  0.9055
30657SOL    HW297809   0.193   3.265   8.795  0.1394  0.7316  1.2309
30658SOL     OW97810   4.983   0.926   1.314 -0.4485  0.1584  0.4383
30658SOL    HW197811   4.947   0.921   1.225 -0.3898  0.9586  0.3574
30658SOL    HW297812   4.923   0.876   1.368 -1.3455  0.9542  0.2006
30659SOL     OW97813   5.019   1.236   3.065  0.5102  0.3664 -0.3761
30659SOL    HW197814   5.058   1.212   3.149  1.3007 -0.7524 -1.0226
30659SOL    HW297815   4.941   1.287   3.088 -1.1654 -2.5956  1.1784
30660SOL     OW97816   2.350  10.301   9.330 -0.3325  0.4142  0.5916
30660SOL    HW197817   2.414  10.372   9.329 -1.0547  1.0797 -0.7824
30660SOL    HW297818   2.269  10.341   9.299 -1.0085 -0.7931  0.7267
30661SOL     OW97819   2.550   9.202   9.843 -0.6581  0.0454 -0.3522
30661SOL    HW197820   2.612   9.140   9.882  0.1421  1.1720  0.2501
30661SOL    HW297821   2.464   9.165   9.860 -0.1823 -1.2409 -0.6325
30662SOL     OW97822   4.557  12.065  11.408 -0.3078 -0.0006  0.2989
30662SOL    HW197823   4.652  12.067  11.420 -0.2557  2.4408 -0.0505
30662SOL    HW297824   4.546  12.050  11.314 -0.2063  1.3057  0.0661
30663SOL     OW97825   7.716   5.280   5.968 -0.1156  0.0028 -0.1906
30663SOL    HW197826   7.716   5.309   6.059  3.1383 -0.7628  0.2103
30663SOL    HW297827   7.723   5.360   5.917 -0.0815  0.3491  0.3524
30664SOL     OW97828   6.409   0.050   1.289  0.1607  0.0527  0.2840
30664SOL    HW197829   6.321   0.040   1.253 -0.5934 -0.1860  2.0653
30664SOL    HW297830   6.447  -0.038   1.286 -0.3664 -0.2199  1.1521
30665SOL     OW97831   2.522   3.290   6.050  0.2962  0.1895  0.6902
30665SOL    HW197832   2.592   3.338   6.095  0.0029 -0.2410  1.6221
30665SOL    HW297833   2.484   3.354   5.990  3.4531 -0.3436 -2.1387
30666SOL     OW97834   1.847   4.143   7.959  0.3916  0.2438  0.5824
30666SOL    HW197835   1.807   4.225   7.988 -0.0061 -0.1125  1.0526
30666SOL    HW297836   1.805   4.125   7.875 -0.0258  0.1676  0.8053
30667SOL     OW97837   4.368  10.017  11.675  0.3332 -0.1203  0.0949
30667SOL    HW197838   4.415   9.934  11.661 -1.3464 -1.3829  1.4420
30667SOL    HW297839   4.360  10.055  11.587  0.6094 -1.7081 -0.6644
30668SOL     OW97840   8.806   6.929   6.685  0.0009  0.2883  0.5337
30668SOL    HW197841   8.717   6.902   6.708  0.5436 -0.0443  2.4721
30668SOL    HW297842   8.816   7.014   6.728  0.8515 -0.0388  1.0060
30669SOL     OW97843  11.042   1.521   0.200  0.6341  0.7927 -1.0274
30669SOL    HW197844  10.957   1.500   0.240  0.1030  0.6159 -2.2036
30669SOL    HW297845  11.106   1.494   0.266 -0.0376 -3.2717 -1.7539
30670SOL     OW97846   0.332   0.931   9.006  0.0891 -0.0084 -0.0902
30670SOL    HW197847   0.276   0.983   9.064 -2.0377 -1.6952 -0.5109
30670SOL    HW297848   0.272   0.896   8.941  1.6436 -1.9832 -0.5372
30671SOL     OW97849   6.925   5.684   8.527  0.4025 -0.3122  0.1024
30671SOL    HW197850   6.895   5.661   8.439  1.6642 -0.7415 -0.2370
30671SOL    HW297851   6.904   5.777   8.535  1.2751  0.0113 -1.0965
30672SOL     OW97852   7.570   5.118   3.348 -0.7882 -0.1096  0.5714
30672SOL    HW197853   7.538   5.198   3.306  1.7362  1.3808  1.3000
30672SOL    HW297854   7.555   5.049   3.282  0.3965  1.6183 -1.6579
30673SOL     OW97855   9.606  12.022   3.294 -0.3260 -0.1385  0.2892
30673SOL    HW197856   9.573  12.105   3.259 -0.7581 -0.8696 -1.1262
30673SOL    HW297857   9.701  12.028   3.283 -0.4389 -0.3000 -0.9903
30674SOL     OW97858   5.128   0.355   0.251 -0.0776  0.2066  0.3797
30674SOL    HW197859   5.115   0.286   0.187 -1.3807 -0.0118  0.8662
30674SOL    HW297860   5.223   0.369   0.251  0.6237 -3.4200  2.1825
30675SOL     OW97861  12.047   3.999   2.341  0.4399 -0.0016  0.1287
30675SOL    HW197862  12.046   3.976   2.434  0.4692  0.2705  0.1951
30675SOL    HW297863  12.007   3.923   2.297  1.6179 -0.7021  0.2381
30676SOL     OW97864   7.500  11.449  11.074 -0.8639 -0.2413 -0.4266
30676SOL    HW197865   7.473  11.491  10.993  1.1494  0.8376 -0.6008
30676SOL    HW297866   7.596  11.445  11.069 -0.7553 -1.1404  1.4138
30677SOL     OW97867   7.354   9.038   7.669  0.0371 -0.7374  0.2914
30677SOL    HW197868   7.363   8.983   7.591  0.9209  0.5053 -0.5065
30677SOL    HW297869   7.427   9.012   7.725  0.2650 -0.5896  0.0604
30678SOL     OW97870   2.849   0.911   1.877  0.2155  0.1954  0.8849
30678SOL    HW197871   2.929   0.943   1.835 -1.1221  3.0205  0.2883
30678SOL    HW297872   2.843   0.960   1.959 -0.8106 -0.1112  1.0098
30679SOL     OW97873   5.357  10.166   6.639 -0.2507  0.1311 -0.4211
30679SOL    HW197874   5.443  10.170   6.682  0.8910  1.0913 -2.6264
30679SOL    HW297875   5.330  10.258   6.632 -0.7464 -0.0575 -1.0585
30680SOL     OW97876   3.743   8.436  10.049 -0.5119  0.3429 -0.4183
30680SOL    HW197877   3.751   8.532  10.054 -0.7273  0.3392  0.0493
30680SOL    HW297878   3.832   8.405  10.033 -0.4425  0.6246 -0.5815
30681SOL     OW97879   4.304   5.978   6.373 -0.4779 -0.6815 -0.2539
30681SOL    HW197880   4.272   5.893   6.344 -1.0680 -0.2168 -1.0065
30681SOL    HW297881   4.232   6.014   6.425  0.5391 -1.4742  1.8208
30682SOL     OW97882   6.816   7.489   8.522 -0.2033  0.3557 -0.9314
30682SOL    HW197883   6.781   7.423   8.463 -2.1766  1.1291 -0.7175
30682SOL    HW297884   6.841   7.562   8.465  1.8054 -0.4734 -1.1506
30683SOL     OW97885   6.697   8.826   0.653 -0.2357  0.6760 -0.4732
30683SOL    HW197886   6.683   8.818   0.559 -2.0072  1.8896 -0.3868
30683SOL    HW297887   6.611   8.808   0.691  0.6165 -0.5231  0.9891
30684SOL     OW97888   9.389   8.054   2.813  0.2942 -0.3741  0.2419
30684SOL    HW197889   9.462   7.992   2.814  0.0280 -0.6907  0.1602
30684SOL    HW297890   9.365   8.061   2.721 -1.5492 -2.3788  0.4962
30685SOL     OW97891   1.145   1.155   5.892 -0.1472  0.0163 -0.5086
30685SOL    HW197892   1.225   1.187   5.851 -0.4775 -1.3773 -2.3714
30685SOL    HW297893   1.077   1.172   5.828 -1.1420  0.0153  0.5192
30686SOL     OW97894   7.323   0.035   1.484  0.3071 -0.2743  0.3640
30686SOL    HW197895   7.270  -0.007   1.417 -1.7358  0.6933  1.3069
30686SOL    HW297896   7.332  -0.032   1.553  0.8691 -0.6443 -0.0575
30687SOL     OW97897  10.022   3.421   8.132  0.0061 -0.2841 -0.0780
30687SOL    HW197898  10.030   3.511   8.162  0.5981 -0.5393  0.5291
30687SOL    HW297899  10.104   3.403   8.087 -0.4166 -0.2789 -0.8920
30688SOL     OW97900   1.146   1.722   7.862  0.3709 -0.1760  0.1782
30688SOL    HW197901   1.127   1.785   7.931  0.3272 -0.4106  0.3821
30688SOL    HW297902   1.189   1.649   7.907  0.1250 -0.4357 -0.0031
30689SOL     OW97903   2.810   8.254   7.505 -0.0642  0.4311 -0.5093
30689SOL    HW197904   2.779   8.172   7.467 -0.8126  1.5016 -2.3250
30689SOL    HW297905   2.737   8.315   7.492  0.7265  1.5656  0.2194
30690SOL     OW97906   1.387   0.252   8.566 -0.3105 -0.7359  0.5415
30690SOL    HW197907   1.481   0.269   8.565 -0.4468  0.0891 -0.7013
30690SOL    HW297908   1.364   0.242   8.473 -1.5198 -0.4683  0.8001
30691SOL     OW97909   2.691   8.990   2.288 -0.1087 -0.0009  0.0243
30691SOL    HW197910   2.776   9.028   2.266 -0.3386  0.3088 -0.3259
30691SOL    HW297911   2.713   8.906   2.328  0.3320 -0.3146 -0.8570
30692SOL     OW97912   3.861  10.347   5.891  0.8691 -0.4434  0.2813
30692SOL    HW197913   3.820  10.273   5.845 -1.5596  1.4461 -0.8451
30692SOL    HW297914   3.878  10.313   5.979  0.2888 -2.4873 -0.3243
30693SOL     OW97915   8.276   8.924   7.033  0.8639 -0.1848  0.6203
30693SOL    HW197916   8.369   8.940   7.016  0.6446  0.6281  0.1139
30693SOL    HW297917   8.231   8.975   6.966  0.0412 -0.1226  1.2110
30694SOL     OW97918   1.431  10.319   4.690  0.0210  0.2693  0.5879
30694SOL    HW197919   1.349  10.345   4.733  1.7405  1.3040  3.5566
30694SOL    HW297920   1.487  10.396   4.697  1.3705 -0.4664 -1.2169
30695SOL     OW97921   4.420   1.113   0.796  0.2592 -0.0887 -0.0824
30695SOL    HW197922   4.368   1.053   0.743  1.1118  0.4283 -1.5548
30695SOL    HW297923   4.367   1.192   0.803  0.2355 -0.0845 -0.3300
30696SOL     OW97924   1.121   0.226   7.462 -0.0173 -0.1553  0.0098
30696SOL    HW197925   1.042   0.193   7.506  0.1385  0.9927  1.2028
30696SOL    HW297926   1.182   0.152   7.463  1.2489  0.5996  4.8315
30697SOL     OW97927   9.503   0.856   4.281  0.6271 -0.7990 -0.2016
30697SOL    HW197928   9.520   0.896   4.195  0.6552  1.8494  0.9475
30697SOL    HW297929   9.408   0.854   4.289  0.6362  0.4641  0.3370
30698SOL     OW97930   8.144   6.230  11.791 -0.2509  0.1760  0.0414
30698SOL    HW197931   8.059   6.271  11.807 -0.8780  0.0596 -2.4547
30698SOL    HW297932   8.207   6.302  11.797 -0.5723  0.3650  1.3797
30699SOL     OW97933   1.146   0.882   7.171 -0.1246 -0.3735 -0.5136
30699SOL    HW197934   1.066   0.830   7.168 -0.6011  0.4063 -2.4165
30699SOL    HW297935   1.161   0.909   7.081  2.3023 -0.4974 -0.2103
30700SOL     OW97936   9.363   0.408  11.132 -0.4800 -0.2883 -0.0481
30700SOL    HW197937   9.429   0.375  11.194  0.0695  1.2477  0.2263
30700SOL    HW297938   9.297   0.449  11.187 -0.4433  0.2998 -0.4385
30701SOL     OW97939  11.220  10.062  11.501  0.1885  0.0609  0.3558
30701SOL    HW197940  11.210  10.105  11.586 -0.4222  1.0036 -0.1869
30701SOL    HW297941  11.232  10.133  11.438  0.2184 -0.6055 -0.4195
30702SOL     OW97942   3.967   7.173   7.420  0.2205  0.0290 -0.6113
30702SOL    HW197943   3.978   7.107   7.352 -1.8650 -1.7436  0.6275
30702SOL    HW297944   4.022   7.144   7.492 -1.2334 -0.8085  0.1994
30703SOL     OW97945   2.620  10.690  11.110 -0.3756 -0.6636  0.3608
30703SOL    HW197946   2.577  10.638  11.178  0.0907 -0.3561  0.8927
30703SOL    HW297947   2.625  10.631  11.035  0.2244 -1.4173  0.9838
30704SOL     OW97948   9.392   2.297   4.846 -0.0260 -0.3333  0.5233
30704SOL    HW197949   9.404   2.385   4.882  1.1571 -0.3171  0.1115
30704SOL    HW297950   9.468   2.247   4.876 -0.0372 -0.8699 -0.2944
30705SOL     OW97951   4.617  11.437   2.041 -0.0907 -0.1466 -0.0251
30705SOL    HW197952   4.678  11.369   2.070 -0.3213 -1.2586 -1.9485
30705SOL    HW297953   4.672  11.498   1.992 -0.2837 -0.4085 -0.5780
30706SOL     OW97954   9.070   7.663   3.291 -0.2578 -0.1477 -0.1240
30706SOL    HW197955   8.986   7.617   3.297 -0.2141 -0.2675 -0.4520
30706SOL    HW297956   9.089   7.666   3.198 -0.0677  0.1887 -0.0753
30707SOL     OW97957   3.557   6.308   6.853  0.7854 -0.2807  0.0443
30707SOL    HW197958   3.502   6.302   6.775 -0.0613 -0.0523  0.6036
30707SOL    HW297959   3.629   6.365   6.827 -0.2088  0.9228 -0.1892
30708SOL     OW97960   1.119   1.027   3.891 -0.1643  0.2888  0.1994
30708SOL    HW197961   1.176   1.100   3.866 -0.4060 -0.3211 -2.3453
30708SOL    HW297962   1.172   0.949   3.877 -0.7242 -0.1503  0.4755
30709SOL     OW97963  11.354  10.070   2.463 -0.1465  0.4580 -0.0743
30709SOL    HW197964  11.270  10.025   2.449  0.1426  0.3983 -1.8891
30709SOL    HW297965  11.407  10.006   2.511 -0.0227 -0.8709 -1.8724
30710SOL     OW97966  10.575   1.178   1.892  0.1376  0.2637 -0.2252
30710SOL    HW197967  10.621   1.206   1.971  2.0327 -0.4101 -1.0053
30710SOL    HW297968  10.544   1.259   1.852  1.1234  0.8192  0.0851
30711SOL     OW97969   2.814   9.347   4.794 -0.1709  0.2870  0.7038
30711SOL    HW197970   2.862   9.391   4.864 -1.5148  1.8966  0.7001
30711SOL    HW297971   2.790   9.418   4.733 -2.3760 -0.4239  0.6469
30712SOL     OW97972   7.892   0.540   9.113 -0.1113  0.3070  0.3011
30712SOL    HW197973   7.896   0.543   9.208 -0.9412 -1.2959  0.4197
30712SOL    HW297974   7.833   0.611   9.089 -0.8798 -0.0426  1.0918
30713SOL     OW97975   1.055   5.454  10.382 -0.2900  0.2577  0.1949
30713SOL    HW197976   1.106   5.434  10.461  2.0512  0.1362 -1.2585
30713SOL    HW297977   1.026   5.544  10.396  0.2924  0.3245  1.0970
30714SOL     OW97978   4.218   6.406   4.234 -0.2364 -0.0022 -0.0156
30714SOL    HW197979   4.252   6.392   4.323  2.1126  0.2688 -0.8184
30714SOL    HW297980   4.257   6.336   4.182  0.3910  1.2683 -1.3044
30715SOL     OW97981   2.322   9.831   4.141 -0.4292 -0.1086 -0.2698
30715SOL    HW197982   2.378   9.894   4.186 -0.1436  0.6758 -1.6660
30715SOL    HW297983   2.233   9.851   4.172 -0.3715  1.1520 -0.8737
30716SOL     OW97984   1.673   4.185  11.544  0.3675 -0.2882  0.1522
30716SOL    HW197985   1.681   4.280  11.531 -0.9175 -0.4294 -2.0378
30716SOL    HW297986   1.744   4.148  11.492  0.3831 -0.5664  0.3722
30717SOL     OW97987   5.139   7.616   8.867 -0.0994 -0.8292  0.4516
30717SOL    HW197988   5.193   7.555   8.917  1.3072  0.4686  0.5921
30717SOL    HW297989   5.149   7.589   8.776  0.5656 -0.7712  0.5070
30718SOL     OW97990   7.350  10.417   0.303  0.2352  0.6972  0.1210
30718SOL    HW197991   7.305  10.424   0.386  1.6302  0.0288  0.9761
30718SOL    HW297992   7.313  10.338   0.262  0.0286  0.6431  0.4120
30719SOL     OW97993   2.916   0.166   2.975  0.1319 -0.0247  0.4770
30719SOL    HW197994   2.880   0.236   2.919  1.5199 -0.4496 -1.0315
30719SOL    HW297995   2.964   0.110   2.915  1.6670 -0.5527  2.1023
30720SOL     OW97996   4.941   8.118  12.041  0.1205 -0.1662 -0.3793
30720SOL    HW197997   4.970   8.185  12.104 -0.4446 -0.5100  0.2620
30720SOL    HW297998   4.846   8.115  12.052 -0.0339 -0.0039 -1.4932
30721SOL     OW97999   3.537   2.636  11.021 -0.0173  0.1023 -0.2714
30721SOL    HW198000   3.448   2.627  11.053  0.7448  1.6901  2.7001
30721SOL    HW298001   3.592   2.600  11.091  1.7562  2.9480 -0.0122
30722SOL     OW98002   4.526   5.174   8.600 -0.1943 -0.1420 -0.0002
30722SOL    HW198003   4.534   5.259   8.556  0.6663  0.3328  1.0389
30722SOL    HW298004   4.518   5.111   8.528 -0.9614  0.8134 -0.7854
30723SOL     OW98005   9.139   8.779   1.093  0.6693  0.0375 -0.4400
30723SOL    HW198006   9.157   8.738   1.178  0.6770  0.6251 -0.1520
30723SOL    HW298007   9.070   8.724   1.055  0.9662 -0.4823 -0.2454
30724SOL     OW98008  11.535   2.561   6.875 -0.2079  0.0679 -0.0604
30724SOL    HW198009  11.586   2.494   6.921 -0.8881 -0.6979 -0.3877
30724SOL    HW298010  11.572   2.644   6.905  0.2090 -0.4374  0.8777
30725SOL     OW98011  10.764   8.233   6.477 -0.2132  0.8063 -0.3370
30725SOL    HW198012  10.682   8.236   6.428 -0.6166 -0.1311  0.2566
30725SOL    HW298013  10.814   8.307   6.443 -1.3252  1.4410 -0.6678
30726SOL     OW98014   8.792   3.552   6.878  0.2992 -0.6968 -0.4145
30726SOL    HW198015   8.802   3.456   6.880 -1.0008 -0.8351  0.5041
30726SOL    HW298016   8.719   3.570   6.936 -0.6679  0.7250 -1.9657
30727SOL     OW98017   0.605  10.971   9.662  0.5224 -0.3998  0.0429
30727SOL    HW198018   0.509  10.970   9.665  0.3843 -1.6149 -2.5132
30727SOL    HW298019   0.627  11.053   9.618  0.6055 -0.5568 -0.2097
30728SOL     OW98020  10.516   9.448   3.974  0.0804  0.2531  0.1573
30728SOL    HW198021  10.472   9.495   3.904 -0.0267 -0.0526  0.0191
30728SOL    HW298022  10.496   9.499   4.053 -0.2291  0.3104  0.0450
30729SOL     OW98023   2.109   3.437   7.109  0.4442 -0.1533  0.3433
30729SOL    HW198024   2.055   3.368   7.147 -1.4244  0.0589 -1.7044
30729SOL    HW298025   2.192   3.394   7.087  0.2028 -1.1207  1.2790
30730SOL     OW98026   4.088  10.785   8.051  0.1435  0.4705 -0.2871
30730SOL    HW198027   4.167  10.812   8.097  0.2905  1.7117 -1.2274
30730SOL    HW298028   4.051  10.866   8.017 -2.3299  0.1369  1.3234
30731SOL     OW98029  12.146   4.119   0.420  0.9022  0.7047  0.0993
30731SOL    HW198030  12.152   4.184   0.349 -0.0146  0.1765 -0.4875
30731SOL    HW298031  12.052   4.111   0.436  1.0292 -0.2062  0.4221
30732SOL     OW98032   2.799   6.748   7.425 -0.0205 -0.9100 -0.0496
30732SOL    HW198033   2.734   6.712   7.485 -0.0819 -1.5104 -0.4718
30732SOL    HW298034   2.871   6.776   7.482 -1.3411  1.4031  0.6092
30733SOL     OW98035   8.191   6.706   7.169  0.1374 -0.2190 -0.6543
30733SOL    HW198036   8.140   6.637   7.125 -0.4274  0.3424 -0.8951
30733SOL    HW298037   8.218   6.666   7.252  0.2181 -0.8890 -0.9939
30734SOL     OW98038  11.563  10.998   4.152 -0.3300 -0.2946  0.9214
30734SOL    HW198039  11.507  11.074   4.135  1.4011  1.4993  2.6921
30734SOL    HW298040  11.639  11.012   4.095  0.1263 -0.5639  1.4604
30735SOL     OW98041   4.655   2.136   3.193 -0.0257 -0.2267 -0.0130
30735SOL    HW198042   4.608   2.211   3.229  0.4990  0.0411  0.1393
30735SOL    HW298043   4.632   2.133   3.101 -0.3539 -0.1140  0.0671
30736SOL     OW98044   4.675   9.128   9.052 -0.4188 -0.1802  0.1426
30736SOL    HW198045   4.749   9.166   9.099 -1.2230  2.7796 -0.7917
30736SOL    HW298046   4.615   9.100   9.122 -0.0382  0.8716  0.9187
30737SOL     OW98047  11.115   4.587   0.390 -0.2198  0.1247 -0.5714
30737SOL    HW198048  11.077   4.659   0.341 -1.4276  0.1389  0.3477
30737SOL    HW298049  11.055   4.514   0.375 -1.0537  0.3346  1.4701
30738SOL     OW98050   1.407   0.378   3.223  0.1033  0.4240 -0.4219
30738SOL    HW198051   1.351   0.303   3.246 -0.4219  0.6239 -1.0097
30738SOL    HW298052   1.496   0.348   3.242 -0.1651 -0.0811  0.0593
30739SOL     OW98053   2.223   9.174   1.127 -0.0399  0.3597  0.0193
30739SOL    HW198054   2.161   9.179   1.200  0.5861  0.2185  0.5690
30739SOL    HW298055   2.167   9.171   1.049 -0.7870 -1.2962  0.5673
30740SOL     OW98056   9.393   5.838   4.080  0.1879 -0.0015  0.2708
30740SOL    HW198057   9.474   5.824   4.031  0.5717  1.5999  0.3841
30740SOL    HW298058   9.333   5.875   4.015  0.3329  1.0463  0.7053
30741SOL     OW98059  11.002   0.347   5.882  0.4120 -0.2184 -0.2450
30741SOL    HW198060  10.930   0.287   5.867  0.3396 -0.1714 -0.0880
30741SOL    HW298061  11.074   0.312   5.829  0.5869 -0.8373  0.3744
30742SOL     OW98062   2.040   8.387  11.009  0.3240  0.3078  0.3180
30742SOL    HW198063   2.039   8.392  10.913 -1.5209 -0.7954  0.2217
30742SOL    HW298064   2.046   8.293  11.028  0.9246  0.5269  1.3064
30743SOL     OW98065   0.838   8.168   5.764 -0.0163  0.3034  0.6364
30743SOL    HW198066   0.756   8.195   5.805 -1.1268 -0.8493 -0.7181
30743SOL    HW298067   0.855   8.234   5.697 -1.2443 -0.7834 -0.8026
30744SOL     OW98068  11.652   4.580   3.816 -0.2132 -0.4316 -0.1710
30744SOL    HW198069  11.567   4.539   3.799  0.1136 -0.9483 -0.5930
30744SOL    HW298070  11.638   4.673   3.795 -0.8423 -0.3857  0.3888
30745SOL     OW98071  11.966   6.450   4.273 -0.5644  0.3068 -0.5493
30745SOL    HW198072  12.012   6.382   4.225 -0.9784 -0.7981  0.5705
30745SOL    HW298073  12.034   6.490   4.328 -0.6663 -0.4101  0.1057
30746SOL     OW98074   5.048   1.107   6.197 -0.0108  0.2087  0.5696
30746SOL    HW198075   4.963   1.113   6.242 -0.2861  0.3746  0.0305
30746SOL    HW298076   5.064   1.013   6.189 -0.4796  0.1650  0.0575
30747SOL     OW98077   5.296   2.178   6.541 -0.5833  0.1544 -0.5485
30747SOL    HW198078   5.209   2.137   6.545 -0.3517 -0.3582 -0.6792
30747SOL    HW298079   5.282   2.267   6.574 -1.0602 -0.0859 -0.0802
30748SOL     OW98080  11.677  10.974   9.819 -0.6280  0.2382 -0.1192
30748SOL    HW198081  11.623  11.019   9.755  0.1087  1.1133 -0.1523
30748SOL    HW298082  11.732  10.915   9.767 -0.0954  0.8817 -0.3099
30749SOL     OW98083   1.071   6.699   4.277  0.0314 -0.2117  0.1656
30749SOL    HW198084   0.998   6.687   4.338  0.1623 -2.8569 -0.0645
30749SOL    HW298085   1.148   6.710   4.332 -0.2536  0.5357  0.4242
30750SOL     OW98086   0.680   8.460   2.536  0.6535  0.2203 -0.5915
30750SOL    HW198087   0.674   8.410   2.455 -2.6839  0.3354 -0.5916
30750SOL    HW298088   0.697   8.395   2.604 -1.8579 -0.7843 -0.8149
30751SOL     OW98089   1.072   0.883   7.433 -0.0943 -0.2072  0.0096
30751SOL    HW198090   1.078   0.889   7.338  0.8078  0.2303  0.0844
30751SOL    HW298091   1.097   0.792   7.453 -0.0805 -0.2399 -0.1586
30752SOL     OW98092   8.262  11.030   2.139  0.0487  0.6653  0.4367
30752SOL    HW198093   8.201  10.976   2.190 -0.2513 -2.1378 -2.5053
30752SOL    HW298094   8.206  11.094   2.094 -0.2730  0.3639  0.4045
30753SOL     OW98095  12.035   2.778   3.652  0.8027  0.0160 -0.1345
30753SOL    HW198096  11.954   2.790   3.602  1.1179 -1.2628 -1.0229
30753SOL    HW298097  12.030   2.842   3.723  0.0240  1.4308 -1.4135
30754SOL     OW98098   0.692   3.021  11.779  0.5797  0.3172 -0.5713
30754SOL    HW198099   0.617   3.074  11.805  0.0930 -0.6185  0.0208
30754SOL    HW298100   0.725   2.985  11.861 -0.1067 -1.5702 -1.0622
30755SOL     OW98101   3.855  11.289   7.947 -0.0112 -0.0825 -0.7855
30755SOL    HW198102   3.863  11.372   7.993 -0.3584 -0.0232 -0.8333
30755SOL    HW298103   3.808  11.232   8.008  2.4662 -1.0685  0.3539
30756SOL     OW98104   8.671   1.896  10.171 -0.2315 -0.3919  0.3084
30756SOL    HW198105   8.592   1.926  10.217 -0.6271  0.4738 -0.8784
30756SOL    HW298106   8.724   1.854  10.239 -0.5623  1.2578  1.6506
30757SOL     OW98107   5.479   6.398   3.317  0.0281  0.2342 -0.4368
30757SOL    HW198108   5.492   6.416   3.224 -3.3593  0.4888 -0.9711
30757SOL    HW298109   5.422   6.321   3.319  0.2818  0.0323  1.4710
30758SOL     OW98110   2.322  10.884   5.186  0.3237 -0.0321 -0.8739
30758SOL    HW198111   2.228  10.874   5.170  0.4219  0.8287 -2.1211
30758SOL    HW298112   2.351  10.949   5.122  1.9066 -0.7713 -0.9604
30759SOL     OW98113  10.759   8.388   5.343  0.2533  0.4284 -0.8448
30759SOL    HW198114  10.675   8.408   5.302 -0.0032 -1.9063 -1.5592
30759SOL    HW298115  10.762   8.293   5.348  3.2899  0.3578 -1.7728
30760SOL     OW98116   8.834   5.817   7.275  0.8972  0.8683 -0.2061
30760SOL    HW198117   8.790   5.852   7.353  1.1606  0.3005  0.2048
30760SOL    HW298118   8.862   5.730   7.301  0.0121  0.2340 -1.3003
30761SOL     OW98119   5.344   0.420   0.868  0.4261 -0.2196 -0.6383
30761SOL    HW198120   5.432   0.456   0.879 -0.4622  1.9635 -0.2613
30761SOL    HW298121   5.320   0.443   0.778 -0.6744  1.4314  0.0417
30762SOL     OW98122   3.645   8.749   2.599 -0.1487 -0.1558  0.0268
30762SOL    HW198123   3.683   8.834   2.622  0.5153 -1.0820  2.7041
30762SOL    HW298124   3.697   8.721   2.523  1.0893  0.8760  0.4360
30763SOL     OW98125   2.340   5.058   2.846  0.2427 -0.0965 -0.3707
30763SOL    HW198126   2.326   5.123   2.914  0.8535 -0.9841  0.6266
30763SOL    HW298127   2.381   5.106   2.774  0.3695  0.6731  0.2108
30764SOL     OW98128  12.128   0.369  12.163  0.3343 -0.1188  0.1660
30764SOL    HW198129  12.036   0.380  12.189  0.4871 -0.1325  0.7095
30764SOL    HW298130  12.124   0.360  12.067 -0.1362  0.9214  0.0761
30765SOL     OW98131   9.226   0.434   6.607  0.1957 -0.4066  0.0978
30765SOL    HW198132   9.241   0.479   6.524 -2.0516 -1.6756 -1.0922
30765SOL    HW298133   9.181   0.499   6.661  1.4210  0.3335  0.2805
30766SOL     OW98134   7.234   1.349   6.024  0.3795  0.0760  0.0655
30766SOL    HW198135   7.250   1.291   6.099  0.5022 -2.0636 -1.5157
30766SOL    HW298136   7.149   1.320   5.990  0.2307  1.1599 -0.5095
30767SOL     OW98137   1.670   2.559   1.818  0.1862  0.4897  0.0209
30767SOL    HW198138   1.702   2.582   1.905  2.1979  0.1838 -0.5931
30767SOL    HW298139   1.701   2.469   1.804 -0.3866  0.4255 -0.9047
30768SOL     OW98140   2.475   0.031   7.674  0.0094  0.6335 -0.0758
30768SOL    HW198141   2.518   0.032   7.760 -0.1967  0.3910  0.0300
30768SOL    HW298142   2.547   0.018   7.612  0.1578  0.7990  0.0593
30769SOL     OW98143   2.326   7.686   9.828  0.0019 -0.1133 -0.3349
30769SOL    HW198144   2.247   7.727   9.792 -0.7618 -0.0346  1.2916
30769SOL    HW298145   2.373   7.759   9.870  0.1818 -0.3894 -0.0487
30770SOL     OW98146   8.111   6.305   6.795 -0.3905 -0.1263  0.9310
30770SOL    HW198147   8.157   6.343   6.721 -0.2130 -2.7608 -0.4261
30770SOL    HW298148   8.180   6.276   6.855 -0.4257 -0.4360  0.8238
30771SOL     OW98149   6.208   4.108   1.321  0.1661  0.0555  0.5814
30771SOL    HW198150   6.151   4.108   1.245 -0.1354  1.2405  0.7883
30771SOL    HW298151   6.261   4.028   1.312 -1.2863 -0.9051  0.2384
30772SOL     OW98152   6.422   1.828   2.929 -0.5047  0.0732  0.0666
30772SOL    HW198153   6.382   1.909   2.899  0.2236  1.1401  1.7980
30772SOL    HW298154   6.515   1.840   2.916 -0.4358 -0.7772 -0.3002
30773SOL     OW98155   9.637   8.037   9.914 -0.5122 -0.5082  0.0258
30773SOL    HW198156   9.659   7.954   9.958  0.7762  0.5025  1.4310
30773SOL    HW298157   9.544   8.050   9.932 -0.4253 -1.0288  0.9227
30774SOL     OW98158   5.800  12.252   6.920 -0.4527  0.4366 -0.4046
30774SOL    HW198159   5.786  12.267   7.014 -0.7978  1.4554 -0.6072
30774SOL    HW298160   5.781  12.336   6.879 -3.1265 -0.6952 -1.6922
30775SOL     OW98161   6.634   8.867   1.791  0.9229 -0.3574  0.0425
30775SOL    HW198162   6.717   8.837   1.754  0.9926  0.2213 -0.2726
30775SOL    HW298163   6.607   8.796   1.849  1.2882 -0.8581 -0.3893
30776SOL     OW98164   5.749  10.167   5.890  0.1078 -0.2355  0.4140
30776SOL    HW198165   5.830  10.129   5.923  1.2720  1.1108 -0.7777
30776SOL    HW298166   5.773  10.256   5.864 -1.7476  0.1849 -0.0228
30777SOL     OW98167   2.115  10.043   8.989  0.3753  0.0087 -0.6996
30777SOL    HW198168   2.074  10.098   9.056  0.3847 -0.0009 -0.6862
30777SOL    HW298169   2.179   9.991   9.037 -0.3809 -0.7897 -0.5382
30778SOL     OW98170   4.139   8.066   4.623 -0.2227  0.0853 -0.2246
30778SOL    HW198171   4.159   7.978   4.592 -0.0234  0.4510 -1.1511
30778SOL    HW298172   4.194   8.078   4.700  0.4164 -0.2619 -0.6253
30779SOL     OW98173   2.297   0.537   5.040  0.1103  0.0052 -0.2148
30779SOL    HW198174   2.291   0.524   4.946 -1.4487  2.6229 -0.5776
30779SOL    HW298175   2.215   0.501   5.075  0.1136  0.1726 -0.0321
30780SOL     OW98176  12.007   5.272   3.921  0.2396  0.1369  0.5427
30780SOL    HW198177  11.964   5.193   3.954 -0.1874  0.9937  2.1499
30780SOL    HW298178  12.100   5.257   3.937  0.1074  0.2030  1.3978
30781SOL     OW98179   3.829   1.321   7.719 -0.2929 -0.2296  0.0339
30781SOL    HW198180   3.742   1.355   7.740 -0.4247 -0.3396 -0.3392
30781SOL    HW298181   3.829   1.312   7.624  0.4501  0.6755 -0.0690
30782SOL     OW98182   6.770   6.410   8.568  0.0633 -0.1220 -0.2008
30782SOL    HW198183   6.800   6.437   8.482  1.0673  0.9193  0.4482
30782SOL    HW298184   6.813   6.470   8.629 -1.7410  0.1119  0.9365
30783SOL     OW98185   0.311  11.379   3.908  0.4488  0.2313 -0.0755
30783SOL    HW198186   0.380  11.374   3.974  0.8025  1.5220 -0.3117
30783SOL    HW298187   0.233  11.406   3.957  0.0271 -1.4726  0.2316
30784SOL     OW98188   3.520   5.762   5.093  0.2140  0.4963 -0.1425
30784SOL    HW198189   3.457   5.833   5.081 -0.0573  0.1620 -0.7664
30784SOL    HW298190   3.473   5.684   5.063  0.6589  0.1241  0.1270
30785SOL     OW98191  11.856   7.316   8.183 -0.4279 -0.6833 -0.7609
30785SOL    HW198192  11.780   7.310   8.241 -0.8893 -0.0260 -1.2680
30785SOL    HW298193  11.832   7.386   8.121  0.5362 -0.5708 -1.0120
30786SOL     OW98194  10.402   8.395   6.364  0.1448 -0.2889 -0.3724
30786SOL    HW198195  10.331   8.339   6.333 -0.5014  0.4300 -0.2210
30786SOL    HW298196  10.369   8.485   6.354  0.2163  0.0017  1.6123
30787SOL     OW98197   9.476   4.314   5.664 -0.0400 -0.3001 -0.5044
30787SOL    HW198198   9.488   4.324   5.759  2.0151  1.2010 -0.8340
30787SOL    HW298199   9.519   4.231   5.644  0.3898 -0.1536 -0.2250
30788SOL     OW98200   6.376  10.977   7.422  0.0833  0.2471  0.1105
30788SOL    HW198201   6.288  11.012   7.409 -0.5781 -1.3512  0.0390
30788SOL    HW298202   6.417  11.035   7.487 -1.0398  0.9631  0.1901
30789SOL     OW98203  10.436   3.934   8.178  0.2144  0.1173  0.3121
30789SOL    HW198204  10.479   3.854   8.149 -0.7397 -0.4185  0.3178
30789SOL    HW298205  10.353   3.935   8.131 -0.0885  0.7425  0.8321
30790SOL     OW98206   2.991   0.323   8.185 -0.5778  0.5538 -0.5649
30790SOL    HW198207   3.070   0.325   8.239 -0.3641 -0.0699 -0.8458
30790SOL    HW298208   2.920   0.346   8.245 -0.0528  2.3825 -0.5735
30791SOL     OW98209  12.272   5.171   2.364 -0.1233  0.0475  0.5806
30791SOL    HW198210  12.190   5.133   2.394 -0.3597  0.7279  0.8242
30791SOL    HW298211  12.338   5.140   2.427 -0.0756 -0.9946  0.0328
30792SOL     OW98212  12.042   3.882  10.069 -0.6214  0.0367  0.3382
30792SOL    HW198213  12.088   3.952  10.115  2.1570 -0.9491 -0.7552
30792SOL    HW298214  12.002   3.926   9.993  1.8802  0.3812 -0.8626
30793SOL     OW98215   1.030   5.920   3.423  0.5009  0.0923  0.1577
30793SOL    HW198216   1.002   5.840   3.378 -0.0909  1.1158 -1.3840
30793SOL    HW298217   1.114   5.943   3.383 -0.1328  1.1329 -0.6329
30794SOL     OW98218   3.116   8.842   9.050  0.2629 -0.4630  0.3482
30794SOL    HW198219   3.205   8.877   9.055 -0.3915  1.0836  2.2098
30794SOL    HW298220   3.125   8.765   8.994  3.1227 -1.4049  1.8719
30795SOL     OW98221   2.791   3.087   6.246 -0.2362 -0.2307 -0.3234
30795SOL    HW198222   2.796   3.039   6.163 -2.0391 -0.5796 -0.2645
30795SOL    HW298223   2.837   3.170   6.227  0.2035 -0.6876 -1.3675
30796SOL     OW98224   2.536  11.094   0.459 -0.3218 -0.3448 -0.7007
30796SOL    HW198225   2.604  11.028   0.471  0.6553  1.0823  2.8469
30796SOL    HW298226   2.580  11.165   0.411 -0.5072 -0.9964 -1.8668
30797SOL     OW98227   6.648  10.490   9.135  0.0475 -0.4074 -0.2161
30797SOL    HW198228   6.622  10.407   9.095  0.3477 -0.2423 -0.7625
30797SOL    HW298229   6.727  10.468   9.185 -0.3424 -0.6202  0.3146
30798SOL     OW98230   5.793   1.960  11.403  0.2062 -0.4746  0.4617
30798SOL    HW198231   5.767   1.877  11.443 -0.4154 -1.5287 -2.0079
30798SOL    HW298232   5.713   1.994  11.364  1.2601 -0.8664 -2.2077
30799SOL     OW98233   7.549   5.642   7.859  0.3078 -0.0467  0.3648
30799SOL    HW198234   7.577   5.598   7.939  0.6332  0.4189  0.5158
30799SOL    HW298235   7.505   5.722   7.890 -1.7819 -1.0452  0.1658
30800SOL     OW98236   4.957   3.194   6.708  0.3623  0.0891 -0.4618
30800SOL    HW198237   4.905   3.235   6.777  0.1404  1.5088 -1.4032
30800SOL    HW298238   5.021   3.261   6.684  0.7333 -0.5444 -1.3049
30801SOL     OW98239   5.459   3.444   7.045 -0.1962  0.5511 -0.4084
30801SOL    HW198240   5.420   3.454   6.958 -0.7826 -3.5554 -0.8281
30801SOL    HW298241   5.541   3.397   7.029  0.8042  1.6629  1.1585
30802SOL     OW98242   1.075   3.008   1.619  0.1683 -0.6963 -0.0013
30802SOL    HW198243   0.998   3.030   1.565  0.2808  0.3810  0.2515
30802SOL    HW298244   1.047   2.933   1.670  0.5681 -2.8270 -2.6772
30803SOL     OW98245   1.978   4.259   5.571  0.4404  0.0465 -0.0911
30803SOL    HW198246   2.005   4.217   5.653  0.5125  2.2198  1.0868
30803SOL    HW298247   1.962   4.186   5.510  3.1102 -1.5732  0.9632
30804SOL     OW98248   6.479  10.444   8.869 -0.4700  0.0541 -0.2595
30804SOL    HW198249   6.387  10.467   8.880 -0.9279 -1.4755 -0.6891
30804SOL    HW298250   6.506  10.406   8.952 -0.8076 -1.3389 -0.7711
30805SOL     OW98251   1.775   0.456  10.657  0.3013 -0.1195 -0.2020
30805SOL    HW198252   1.729   0.539  10.648  0.9393  0.1844 -0.8234
30805SOL    HW298253   1.822   0.463  10.740 -0.9482 -0.5318  0.5545
30806SOL     OW98254  12.262   7.073   0.669  0.5799  0.3476 -0.4701
30806SOL    HW198255  12.251   7.167   0.687  2.4140  0.6120 -0.5401
30806SOL    HW298256  12.353   7.064   0.643  0.0505 -1.2362 -2.0023
30807SOL     OW98257   8.837   7.896   4.119 -0.0978  0.3020  0.2523
30807SOL    HW198258   8.833   7.801   4.105 -1.6448  0.2858  0.6680
30807SOL    HW298259   8.751   7.919   4.152  0.7242  1.6398  1.5773
30808SOL     OW98260   1.942   2.736  11.860 -0.0090  0.4403  0.1974
30808SOL    HW198261   2.006   2.665  11.859  0.2279  0.6013  1.7781
30808SOL    HW298262   1.859   2.694  11.835  0.4775  0.0043 -0.7287
30809SOL     OW98263   5.106   2.732  10.584 -0.2027  0.1230 -0.3072
30809SOL    HW198264   5.194   2.728  10.546  1.2401  1.9678  2.4403
30809SOL    HW298265   5.047   2.723  10.509  2.3276  0.2539 -2.4793
30810SOL     OW98266  12.325   7.455   1.140  0.6791 -0.5240 -0.3031
30810SOL    HW198267  12.357   7.407   1.217  1.2867  0.9935  0.4154
30810SOL    HW298268  12.326   7.547   1.166 -1.2616 -0.1320 -1.3571
30811SOL     OW98269   7.166   0.135   2.338 -0.0198 -0.0400  0.0414
30811SOL    HW198270   7.149   0.222   2.374 -1.1523 -0.2110 -0.0248
30811SOL    HW298271   7.243   0.104   2.385 -0.3086  0.5304  0.9166
30812SOL     OW98272   2.100   1.703  11.070 -0.3844 -0.1936  0.5397
30812SOL    HW198273   2.102   1.771  11.137 -0.7465 -0.3187  0.6809
30812SOL    HW298274   2.190   1.698  11.038  0.0431 -0.8483  1.7571
30813SOL     OW98275   2.683   9.493  11.731 -0.0583  0.5591  0.1254
30813SOL    HW198276   2.690   9.403  11.763  1.2705  1.3555  2.3264
30813SOL    HW298277   2.664   9.545  11.810  1.0139  2.4021 -0.7601
30814SOL     OW98278   5.506   0.634   5.912  0.2627  0.3840  0.3541
30814SOL    HW198279   5.535   0.555   5.866 -0.4940  0.5142 -0.3625
30814SOL    HW298280   5.425   0.660   5.868 -1.4230 -0.3859  2.7257
30815SOL     OW98281  11.442   6.348   5.705  0.6118 -0.2686  0.1998
30815SOL    HW198282  11.374   6.281   5.697  0.7889 -0.3266 -0.8666
30815SOL    HW298283  11.471   6.341   5.796 -2.2605  1.1718  1.3497
30816SOL     OW98284   1.291   0.563   9.182 -0.6173 -0.1079  0.3282
30816SOL    HW198285   1.199   0.540   9.194 -1.3734  2.1971 -0.6279
30816SOL    HW298286   1.326   0.571   9.271 -1.1728 -1.4218  0.6992
30817SOL     OW98287  10.313   2.462   9.954 -0.7747 -0.4182  0.4100
30817SOL    HW198288  10.344   2.517  10.026 -0.3651 -1.1686  0.8136
30817SOL    HW298289  10.222   2.441   9.978 -1.0409  0.3169  0.1010
30818SOL     OW98290  10.906   3.923   4.780  0.1537 -0.1671  0.5205
30818SOL    HW198291  10.860   3.890   4.703  1.2796  0.1313 -0.2930
30818SOL    HW298292  10.862   3.881   4.854 -1.1868 -0.1710 -0.2504
30819SOL     OW98293   8.401   3.928   1.635 -0.1010 -0.0171  0.2247
30819SOL    HW198294   8.468   3.865   1.661 -1.8602 -1.7103  0.9871
30819SOL    HW298295   8.319   3.878   1.640 -1.2010  1.0270 -3.5329
30820SOL     OW98296   5.229   9.869   3.757  0.5249 -0.4858  0.3824
30820SOL    HW198297   5.235   9.777   3.783  2.0981  0.2346  2.9492
30820SOL    HW298298   5.274   9.872   3.672  0.4958 -2.0757  0.2772
30821SOL     OW98299   4.926   2.936   4.362 -0.5012  0.0866 -0.1867
30821SOL    HW198300   4.969   2.957   4.445  1.3330  1.7436 -1.4341
30821SOL    HW298301   4.962   2.851   4.337 -2.9788 -1.7003  1.8005
30822SOL     OW98302   0.054   4.823   8.178 -0.1092  0.1175 -0.8898
30822SOL    HW198303  -0.033   4.785   8.176  0.1895 -0.7154  0.6438
30822SOL    HW298304   0.042   4.909   8.220 -0.4877  0.9776 -2.6538
30823SOL     OW98305   9.756   4.364   2.576 -0.1926  0.5399  1.0461
30823SOL    HW198306   9.753   4.440   2.634 -1.9591  0.0551  1.6706
30823SOL    HW298307   9.723   4.292   2.629 -2.5755  0.2146 -0.6635
30824SOL     OW98308   4.080   6.741  11.845  0.2773  0.1265  0.4105
30824SOL    HW198309   4.038   6.827  11.852  0.7329  0.4153 -0.3764
30824SOL    HW298310   4.013   6.686  11.806  0.3688  0.4068 -0.1501
30825SOL     OW98311   1.867   1.188   3.193  0.1618 -0.1728 -0.1422
30825SOL    HW198312   1.804   1.260   3.185 -2.0190 -1.9883 -0.3647
30825SOL    HW298313   1.917   1.209   3.271 -2.6697  0.0116  1.7802
30826SOL     OW98314  11.400   6.814   0.516  0.3119  0.2779 -0.1600
30826SOL    HW198315  11.348   6.734   0.514  2.3704 -1.1456 -0.8560
30826SOL    HW298316  11.466   6.798   0.584  0.8459  1.3285 -0.4067
30827SOL     OW98317  12.188   9.325   1.908 -0.3790 -0.5766 -0.1278
30827SOL    HW198318  12.246   9.398   1.932 -1.4433  0.6636 -1.1513
30827SOL    HW298319  12.232   9.284   1.833 -0.2684 -0.3430 -0.1936
30828SOL     OW98320   5.592   2.179   6.618  0.0437  0.3500 -0.9278
30828SOL    HW198321   5.605   2.118   6.690  0.3050 -0.6643 -1.8106
30828SOL    HW298322   5.498   2.172   6.597 -1.2822  4.2041  2.3732
30829SOL     OW98323   6.582   7.944   4.749  0.2315  0.0807  0.1683
30829SOL    HW198324   6.666   7.963   4.792  1.5772 -0.7275 -1.9882
30829SOL    HW298325   6.517   7.981   4.809  2.1580  1.9332  1.2908
30830SOL     OW98326   6.530  11.130  11.137  0.1454 -0.4363 -0.0896
30830SOL    HW198327   6.599  11.120  11.202  2.3783 -0.3475 -2.3021
30830SOL    HW298328   6.559  11.077  11.063 -2.7653 -1.3201 -0.7274
30831SOL     OW98329   4.449   5.324   2.365 -0.0384 -0.0014  0.7016
30831SOL    HW198330   4.395   5.400   2.341 -0.1140  0.4902  2.3082
30831SOL    HW298331   4.538   5.350   2.343  0.0071  0.8116  1.7877
30832SOL     OW98332   6.067   2.745  11.973 -0.9894  0.5770  0.0087
30832SOL    HW198333   6.140   2.756  11.913 -1.9157  0.2590 -1.2149
30832SOL    HW298334   6.084   2.661  12.016 -0.2431  0.8773  0.3177
30833SOL     OW98335  11.614   3.328   4.182  0.1421  0.8339  0.0121
30833SOL    HW198336  11.677   3.321   4.254 -0.8807  1.0626  0.9792
30833SOL    HW298337  11.577   3.239   4.175  0.6554  0.6724 -0.6262
30834SOL     OW98338   9.826   7.326  10.826  0.3302  0.0529  0.2971
30834SOL    HW198339   9.811   7.419  10.807 -0.9758  0.0530  1.1899
30834SOL    HW298340   9.836   7.322  10.921  0.9626 -0.6493  0.2071
30835SOL     OW98341  11.803   9.087   9.391  0.3068  0.6969 -0.2755
30835SOL    HW198342  11.890   9.050   9.400  1.3581  3.0844  0.2521
30835SOL    HW298343  11.784   9.082   9.297  0.3332 -1.1843 -0.2051
30836SOL     OW98344   4.710   9.489   5.835  0.0270  0.2209  0.1054
30836SOL    HW198345   4.695   9.543   5.913 -2.6504  0.1822 -0.2832
30836SOL    HW298346   4.698   9.550   5.762 -1.5579 -0.5476 -0.3114
30837SOL     OW98347   5.671   8.032   7.877  0.4824  0.1123  0.0649
30837SOL    HW198348   5.656   7.992   7.963 -2.8174  2.7074  0.9293
30837SOL    HW298349   5.618   7.980   7.816  1.3422 -0.6221 -0.0667
30838SOL     OW98350   4.744  12.282   5.016 -0.3515  0.3347  0.3424
30838SOL    HW198351   4.657  12.320   5.007 -0.6556 -0.7065 -1.6895
30838SOL    HW298352   4.797  12.353   5.052 -1.2205  2.2361 -1.8343
30839SOL     OW98353   2.087   3.114   0.770  0.0592  0.0929  0.4270
30839SOL    HW198354   2.139   3.055   0.825  0.6459 -0.7971 -1.0290
30839SOL    HW298355   2.139   3.194   0.764  1.5523 -0.9556 -1.3969
30840SOL     OW98356  12.321   4.430  12.074  0.0373 -0.0793  0.3631
30840SOL    HW198357  12.404   4.425  12.028  0.4702  0.7752  1.0190
30840SOL    HW298358  12.267   4.488  12.019 -1.0314 -2.5587 -1.3518
30841SOL     OW98359  10.845   2.582   0.003  0.1970 -0.8653  0.8121
30841SOL    HW198360  10.856   2.521  -0.070 -2.2239  0.6420 -0.9655
30841SOL    HW298361  10.933   2.614   0.022  1.0082 -2.0437 -0.7554
30842SOL     OW98362   8.306   5.208   2.036 -0.0373  0.7973  0.5355
30842SOL    HW198363   8.346   5.188   1.951  0.1585  3.0718  0.0488
30842SOL    HW298364   8.228   5.258   2.015  0.0742  1.4952  1.7021
30843SOL     OW98365   2.297  11.771  10.282  0.4211 -0.7998 -0.2127
30843SOL    HW198366   2.382  11.798  10.248 -0.3770  0.9722 -0.9541
30843SOL    HW298367   2.300  11.796  10.375  0.8088 -0.9990 -0.1692
30844SOL     OW98368   5.276   1.130  10.578 -0.0272  0.1060  0.5194
30844SOL    HW198369   5.230   1.054  10.541  0.0977 -0.2623  1.0914
30844SOL    HW298370   5.250   1.203  10.523 -3.3141  0.4066  2.2064
30845SOL     OW98371   1.030   4.895   2.589 -0.3869 -0.0967  0.2404
30845SOL    HW198372   1.091   4.844   2.536 -0.8078  1.4570 -1.8403
30845SOL    HW298373   0.958   4.835   2.606  0.3246 -1.0046  0.1266
30846SOL     OW98374   2.318   3.445   4.561  0.2104 -0.0742 -0.0678
30846SOL    HW198375   2.269   3.471   4.639  0.6734 -1.6643  0.7737
30846SOL    HW298376   2.274   3.366   4.530  1.9180 -1.2446  0.4087
30847SOL     OW98377   1.793  11.161   6.258  0.5053 -0.0741  0.1573
30847SOL    HW198378   1.809  11.067   6.256  0.6810 -0.0388 -0.7451
30847SOL    HW298379   1.804  11.186   6.350  2.1204 -0.6566  0.1524
30848SOL     OW98380   6.557   1.353   3.924  0.4307 -0.2070  0.2014
30848SOL    HW198381   6.529   1.425   3.980  1.8544  0.2467  0.3669
30848SOL    HW298382   6.611   1.298   3.981  0.8184 -0.4474 -0.3910
30849SOL     OW98383   0.278   7.142   4.983 -0.2670 -0.0970 -0.5987
30849SOL    HW198384   0.357   7.096   4.957  0.4662  0.5823  0.3319
30849SOL    HW298385   0.306   7.198   5.056 -1.1566  1.6724 -1.5567
30850SOL     OW98386   8.297  10.505   1.082  0.6490  0.3007  0.1748
30850SOL    HW198387   8.331  10.422   1.049 -1.0155  0.0216 -0.9738
30850SOL    HW298388   8.207  10.486   1.107  0.9860  1.2008  2.2782
30851SOL     OW98389   4.782   2.444  11.495  0.0558  0.2660  0.5466
30851SOL    HW198390   4.786   2.372  11.431 -2.0671  0.8952 -0.4026
30851SOL    HW298391   4.868   2.485  11.491  1.4868 -2.4164  1.4163
30852SOL     OW98392   9.385   5.196   0.353  0.5729  0.2136  0.0692
30852SOL    HW198393   9.399   5.102   0.355 -1.9574 -0.2912 -1.5059
30852SOL    HW298394   9.352   5.218   0.440 -0.0645 -0.5996  0.0405
30853SOL     OW98395   2.552   7.054   6.037  0.6581 -0.0566  0.3978
30853SOL    HW198396   2.640   7.045   6.072  1.3634 -0.5568 -1.3787
30853SOL    HW298397   2.563   7.048   5.942 -1.0764  1.6784  0.0192
30854SOL     OW98398   2.341   7.242   6.008 -0.1505  0.6799 -0.3727
30854SOL    HW198399   2.296   7.257   6.092 -1.9053 -2.5064 -0.5836
30854SOL    HW298400   2.422   7.197   6.032  0.5749  1.9828 -0.2952
30855SOL     OW98401   2.156   1.475   9.709  0.1279 -0.0432 -1.0602
30855SOL    HW198402   2.210   1.494   9.786 -1.5062 -0.9787  0.4058
30855SOL    HW298403   2.113   1.558   9.689 -1.5341 -0.3595  0.8375
30856SOL     OW98404   7.538  11.958  11.669 -0.2130  0.3651  0.1871
30856SOL    HW198405   7.477  12.032  11.676  0.6362  1.0573  0.3955
30856SOL    HW298406   7.506  11.896  11.734  0.3897  1.5383  1.6777
30857SOL     OW98407   1.081   1.510  10.859 -0.0908 -0.5028  0.1290
30857SOL    HW198408   1.081   1.556  10.943 -1.4281 -1.5552  0.7446
30857SOL    HW298409   1.086   1.579  10.793  1.1308  0.3388  1.0619
30858SOL     OW98410   4.822   6.254   8.207 -0.0405 -0.3522 -0.5352
30858SOL    HW198411   4.860   6.283   8.125  0.5077 -0.8585 -0.4693
30858SOL    HW298412   4.871   6.301   8.275  0.7597 -1.3138 -0.4340
30859SOL     OW98413   9.948  11.872   1.755 -0.0939  0.6857  0.2419
30859SOL    HW198414  10.032  11.908   1.784 -1.7277  4.7587  0.5992
30859SOL    HW298415   9.905  11.845   1.836 -0.2584  1.4577  0.4246
30860SOL     OW98416   7.636   0.404   5.636 -0.4090 -0.2500  0.0153
30860SOL    HW198417   7.626   0.450   5.553  2.4149 -0.3721 -0.5139
30860SOL    HW298418   7.568   0.336   5.634 -0.3422 -0.3455 -2.3038
30861SOL     OW98419   2.529   7.231   2.635 -0.1307 -0.5283 -0.1200
30861SOL    HW198420   2.477   7.174   2.579  0.6324 -2.4025  0.9990
30861SOL    HW298421   2.574   7.290   2.574  0.5458 -2.3917 -1.5036
30862SOL     OW98422   1.873   7.888   6.976  0.3583  0.2019 -0.3299
30862SOL    HW198423   1.832   7.813   6.934  0.3790 -0.6499  1.1351
30862SOL    HW298424   1.818   7.907   7.052  0.8997  1.0667 -0.1339
30863SOL     OW98425   1.902   4.887   6.720 -0.0546 -0.3973  0.9182
30863SOL    HW198426   1.954   4.833   6.780  0.8078 -1.3289 -0.5776
30863SOL    HW298427   1.966   4.918   6.656 -0.7171  1.6926  1.2219
30864SOL     OW98428   7.225   8.274   2.177  0.3357 -0.3707  0.2128
30864SOL    HW198429   7.314   8.309   2.180  1.0984 -2.1497 -0.4793
30864SOL    HW298430   7.194   8.279   2.268  0.5864  1.5422  0.2251
30865SOL     OW98431  11.212  11.476   8.569 -0.6499  0.0252 -0.4320
30865SOL    HW198432  11.249  11.413   8.631 -1.2964 -0.0741 -0.1362
30865SOL    HW298433  11.123  11.492   8.601 -0.9051  0.1714 -1.1940
30866SOL     OW98434   5.556   2.099   3.683  0.4138  0.4723  0.2715
30866SOL    HW198435   5.509   2.102   3.600  0.8433 -0.3747 -0.0129
30866SOL    HW298436   5.494   2.134   3.748  0.8953  3.5374 -0.7505
30867SOL     OW98437   9.022  11.485   7.851  1.0901  0.2557 -0.3788
30867SOL    HW198438   8.996  11.396   7.827  0.8962  0.0219  0.6274
30867SOL    HW298439   8.992  11.540   7.779 -0.1934 -0.3009 -0.2982
30868SOL     OW98440   1.893   6.221   2.550  0.2330  0.2961  0.5750
30868SOL    HW198441   1.930   6.272   2.621  0.5411  0.0035  0.6285
30868SOL    HW298442   1.806   6.196   2.581 -0.7809  2.5122 -0.2809
30869SOL     OW98443   4.246   6.419   3.254 -0.6096 -0.4420  0.0496
30869SOL    HW198444   4.154   6.437   3.234 -0.5991 -0.9080 -0.4406
30869SOL    HW298445   4.287   6.505   3.256 -1.2551 -0.1262  1.3570
30870SOL     OW98446   7.308   6.407   3.106  0.2532  0.6572 -0.3596
30870SOL    HW198447   7.212   6.412   3.110  0.1106 -0.0490 -1.9302
30870SOL    HW298448   7.338   6.485   3.152 -1.0216  0.2072  1.3630
30871SOL     OW98449   9.049   6.856   3.843 -0.5371 -0.4078  0.2042
30871SOL    HW198450   9.131   6.868   3.794  0.1146 -0.3791  1.2759
30871SOL    HW298451   8.980   6.879   3.780  0.2451 -1.0019 -0.8945
30872SOL     OW98452   3.708  10.547  10.293  0.1254  0.2803  0.1485
30872SOL    HW198453   3.686  10.632  10.255 -0.4951 -1.1838 -3.1460
30872SOL    HW298454   3.789  10.521  10.249 -1.3854 -2.1476 -1.4612
30873SOL     OW98455   5.244   0.187   6.667 -0.1693  0.2372 -0.3072
30873SOL    HW198456   5.285   0.251   6.611  0.0495 -0.5586 -1.0801
30873SOL    HW298457   5.317   0.142   6.711 -0.3086  0.3404  0.0373
30874SOL     OW98458   3.304   9.465  10.079  0.1431 -0.0506  0.6141
30874SOL    HW198459   3.232   9.404  10.064  1.0244 -1.2977  1.3007
30874SOL    HW298460   3.299   9.525  10.005  0.9890 -2.6701 -1.7527
30875SOL     OW98461   2.462   2.575   8.194 -0.2564  0.0556 -0.3202
30875SOL    HW198462   2.376   2.609   8.167  0.5033  2.3803 -0.0227
30875SOL    HW298463   2.447   2.482   8.208 -2.7758  0.4033 -0.1460
30876SOL     OW98464   0.567   3.908   8.502 -0.1773 -0.3472 -0.2833
30876SOL    HW198465   0.503   3.942   8.440 -0.1804 -1.3988 -0.8706
30876SOL    HW298466   0.541   3.947   8.586 -0.6555  0.4422 -0.7786
30877SOL     OW98467   0.942   8.425  11.576 -0.6806  0.1699 -0.1465
30877SOL    HW198468   0.866   8.432  11.518  1.3544  0.0083 -3.0566
30877SOL    HW298469   0.999   8.498  11.550  2.1592 -2.2747 -1.4161
30878SOL     OW98470   2.901   0.346   5.517  0.5280  0.0265 -0.0179
30878SOL    HW198471   2.917   0.266   5.568  0.9763  0.0524 -0.1100
30878SOL    HW298472   2.874   0.411   5.582 -1.8079 -0.7060 -0.1660
30879SOL     OW98473   2.191   8.769   8.955 -0.6221 -0.0989 -0.0013
30879SOL    HW198474   2.130   8.769   9.028 -0.5183  1.2439  0.1158
30879SOL    HW298475   2.209   8.862   8.939  0.6262 -0.4333 -0.6699
30880SOL     OW98476   4.723   5.795   9.773  0.1728  0.3190  0.4973
30880SOL    HW198477   4.808   5.827   9.801  0.8945  0.8658 -2.0979
30880SOL    HW298478   4.724   5.702   9.793  1.1023  0.4372  1.0381
30881SOL     OW98479   8.136   3.437   1.526  0.1206 -0.3748 -0.1110
30881SOL    HW198480   8.056   3.414   1.574 -0.3496 -2.9070 -1.9114
30881SOL    HW298481   8.207   3.418   1.587 -0.5402 -1.2780  0.3949
30882SOL     OW98482  11.666   7.437   5.847 -0.1803  0.2003 -0.0974
30882SOL    HW198483  11.573   7.418   5.836 -0.0295 -0.1043 -0.9602
30882SOL    HW298484  11.708   7.397   5.771  0.9299 -1.5025  1.3148
30883SOL     OW98485   7.752   1.462  10.125 -0.8942 -0.3928 -0.4937
30883SOL    HW198486   7.689   1.487  10.193 -0.3635 -0.4529  0.0319
30883SOL    HW298487   7.784   1.545  10.090 -2.2249 -0.3575 -1.6841
30884SOL     OW98488   2.921  10.888   9.093  0.2057 -0.5220  0.0731
30884SOL    HW198489   2.904  10.944   9.017 -1.0135  0.6075  1.1474
30884SOL    HW298490   2.980  10.941   9.148  0.5083 -1.0458  0.2539
30885SOL     OW98491  12.200  11.018   6.292  0.2573  0.2233  0.3117
30885SOL    HW198492  12.246  10.944   6.253  1.3459  1.8387 -1.6350
30885SOL    HW298493  12.260  11.053   6.359  0.4167  0.3006  0.1269
30886SOL     OW98494   9.991   7.917   3.689  0.0492  0.0716  0.1922
30886SOL    HW198495  10.026   7.996   3.731  1.4829  0.2757 -1.2787
30886SOL    HW298496   9.938   7.951   3.617 -0.8215 -0.3013  0.6449
30887SOL     OW98497   1.233  11.661   1.383  0.0699  0.2130 -0.5839
30887SOL    HW198498   1.231  11.736   1.323  1.0165  1.4170  0.8102
30887SOL    HW298499   1.290  11.598   1.339 -0.9117  0.1738 -1.8810
30888SOL     OW98500  11.677   0.181   7.438  0.3513  0.0351  0.3962
30888SOL    HW198501  11.589   0.177   7.475  0.3729  1.6377  0.6745
30888SOL    HW298502  11.689   0.272   7.413  1.0920 -0.5937 -1.7735
30889SOL     OW98503   5.422   7.375   0.503  0.3579  0.1672 -0.5582
30889SOL    HW198504   5.441   7.282   0.521 -0.0066  0.3045  0.6251
30889SOL    HW298505   5.398   7.411   0.588  1.0102  1.4837 -0.9048
30890SOL     OW98506   9.091   4.014   5.112 -0.2880 -0.3469 -0.1650
30890SOL    HW198507   9.074   4.109   5.107 -0.6382 -0.4817 -2.2885
30890SOL    HW298508   9.142   4.004   5.192  1.5077  1.9164 -0.8996
30891SOL     OW98509   5.267   5.209   0.359  0.1765  0.4615 -0.0328
30891SOL    HW198510   5.328   5.188   0.288  1.7005  0.8647  1.1096
30891SOL    HW298511   5.255   5.127   0.406 -1.6372 -0.0568 -1.2793
30892SOL     OW98512   3.739   8.047   7.128 -0.2302  0.0385 -0.1029
30892SOL    HW198513   3.696   8.080   7.207 -0.0881 -3.0416  1.4089
30892SOL    HW298514   3.827   8.084   7.131 -1.0497  2.1520 -0.3872
30893SOL     OW98515   2.319  10.201   7.061 -0.1291  0.1371 -0.1102
30893SOL    HW198516   2.320  10.193   6.966 -0.0152 -0.2169 -0.0837
30893SOL    HW298517   2.227  10.207   7.085 -0.1667  0.0209 -0.2274
30894SOL     OW98518   6.531   1.815  11.499  0.3189  0.0570  0.5559
30894SOL    HW198519   6.528   1.876  11.425  0.9983 -0.3652  0.1622
30894SOL    HW298520   6.606   1.846  11.551 -0.2323  0.4266  1.1414
30895SOL     OW98521  10.790   0.310   6.974  0.7426 -0.0380 -0.1112
30895SOL    HW198522  10.815   0.401   6.958 -0.4787 -0.0125 -2.1877
30895SOL    HW298523  10.826   0.262   6.899 -0.2372 -0.9510 -0.0178
30896SOL     OW98524   9.793   2.881  11.869 -0.0024  0.4865 -0.0592
30896SOL    HW198525   9.847   2.924  11.802 -0.9503  0.0693 -1.1306
30896SOL    HW298526   9.744   2.815  11.820 -0.6546  0.1141  1.0787
30897SOL     OW98527   1.959   3.242   5.272  0.3007 -0.2325 -0.0827
30897SOL    HW198528   2.001   3.314   5.225  0.8129 -0.9638 -0.7716
30897SOL    HW298529   1.903   3.200   5.206  0.4912 -0.8413  0.1325
30898SOL     OW98530   3.870   0.092   2.987  0.2342  0.1976 -0.4427
30898SOL    HW198531   3.810   0.064   3.057 -0.2274 -0.5496 -1.1188
30898SOL    HW298532   3.831   0.173   2.953  0.4053  0.5079  0.0866
30899SOL     OW98533   5.562   3.141   5.808  0.3701  0.1920  0.0532
30899SOL    HW198534   5.554   3.160   5.715  0.8565 -0.7199 -0.1904
30899SOL    HW298535   5.622   3.208   5.841  0.4957  0.2871 -0.3634
30900SOL     OW98536   4.543   5.363  10.792  0.6560  0.2532  0.0061
30900SOL    HW198537   4.481   5.412  10.846  1.7761 -0.2809  1.8741
30900SOL    HW298538   4.626   5.367  10.840  2.1800  1.0563 -2.4525
30901SOL     OW98539   0.843   7.160   2.407 -0.2550 -0.1228  0.4325
30901SOL    HW198540   0.859   7.078   2.455 -0.1121 -0.2165  0.2291
30901SOL    HW298541   0.901   7.154   2.331 -1.3215 -0.5050 -0.3665
30902SOL     OW98542   8.271  11.075   3.021  0.3520 -0.4263 -0.4728
30902SOL    HW198543   8.249  11.140   3.088 -1.3212 -2.3550  0.9972
30902SOL    HW298544   8.365  11.063   3.028  0.6124  1.4054 -0.4194
30903SOL     OW98545  11.273   5.952   6.963 -0.1803 -0.3751  0.0040
30903SOL    HW198546  11.323   5.920   6.888 -1.5476 -0.4917 -0.8980
30903SOL    HW298547  11.288   5.887   7.031 -0.8637 -1.6186 -0.9784
30904SOL     OW98548  10.478   0.540   3.781 -0.6540  0.0563 -0.1269
30904SOL    HW198549  10.539   0.467   3.778  1.3733  1.4573  2.3471
30904SOL    HW298550  10.425   0.525   3.859 -0.8269  0.7873 -0.0907
30905SOL     OW98551   7.430   9.116   6.192 -0.0382  0.4485 -0.3513
30905SOL    HW198552   7.391   9.031   6.215  0.2031  0.5209  0.3490
30905SOL    HW298553   7.424   9.168   6.272  0.6399  0.7836 -0.5086
30906SOL     OW98554   0.518   4.868   2.957  0.3001 -0.2281 -0.2955
30906SOL    HW198555   0.499   4.914   3.039  2.1308 -0.2230  0.1610
30906SOL    HW298556   0.477   4.783   2.967 -0.4606  0.1802  0.1439
30907SOL     OW98557   8.402   9.841   4.024 -0.1489  0.2980 -0.4656
30907SOL    HW198558   8.455   9.890   4.088  0.1712 -0.2563 -0.2979
30907SOL    HW298559   8.467   9.807   3.962 -0.1091 -1.6670  0.5852
30908SOL     OW98560   6.845   3.406   9.262  0.0793  0.1810  0.1017
30908SOL    HW198561   6.789   3.445   9.195  1.0061 -0.7896 -1.3028
30908SOL    HW298562   6.909   3.354   9.212  1.7852  0.6679  1.6555
30909SOL     OW98563  12.301   3.045  10.970 -0.0304  0.4183  0.1295
30909SOL    HW198564  12.368   2.992  10.926  1.9285  0.8597  2.3549
30909SOL    HW298565  12.295   3.125  10.918  0.6826  0.0686 -0.5072
30910SOL     OW98566   7.486   9.878   8.455  0.1955 -0.0720 -0.7990
30910SOL    HW198567   7.512   9.853   8.543  2.1958  0.7639 -1.1073
30910SOL    HW298568   7.391   9.867   8.454  0.1695 -0.4132  1.3443
30911SOL     OW98569   3.241   0.671   3.291 -0.2142  0.5148 -0.3326
30911SOL    HW198570   3.273   0.735   3.227  1.5118 -1.6151 -1.7151
30911SOL    HW298571   3.157   0.642   3.255  0.3985 -0.1223 -1.3112
30912SOL     OW98572   5.425   0.687   8.397  0.5444  0.6218 -0.3048
30912SOL    HW198573   5.514   0.664   8.370  1.0287  2.1910 -0.1036
30912SOL    HW298574   5.434   0.716   8.488 -0.6796 -2.1950  0.8468
30913SOL     OW98575   5.004  11.867   5.854 -0.5367 -0.0276  0.1042
30913SOL    HW198576   4.926  11.921   5.838 -0.1529  0.2457 -0.8766
30913SOL    HW298577   5.078  11.922   5.829 -0.1435 -1.0725 -1.1807
30914SOL     OW98578  12.323   2.189   4.343 -0.4618  0.5091 -0.6351
30914SOL    HW198579  12.289   2.255   4.283 -1.3137 -0.2741 -1.0379
30914SOL    HW298580  12.250   2.169   4.402 -0.0401  0.3335 -0.1663
30915SOL     OW98581  10.519   4.736   5.740  0.3529  0.1179 -0.1616
30915SOL    HW198582  10.437   4.727   5.789 -0.0682  0.1450 -0.8558
30915SOL    HW298583  10.561   4.813   5.778  0.3378 -0.2365  0.5954
30916SOL     OW98584   2.619  11.379   5.033 -0.2802  0.4209  0.3677
30916SOL    HW198585   2.607  11.473   5.023 -2.1904  0.1017 -0.6499
30916SOL    HW298586   2.533  11.346   5.060 -0.0184 -1.2111 -0.6674
30917SOL     OW98587   8.113   8.027   7.428  0.5245  0.1532 -0.1117
30917SOL    HW198588   8.069   8.029   7.343 -0.5298 -1.6243  0.3471
30917SOL    HW298589   8.195   7.980   7.412  0.1325 -0.5574 -0.0930
30918SOL     OW98590   8.311   7.066   2.666 -0.4445  0.6804  0.1822
30918SOL    HW198591   8.354   6.988   2.631 -0.6623  0.7150 -0.1647
30918SOL    HW298592   8.326   7.133   2.599 -0.6371  0.8175  0.2777
30919SOL     OW98593  11.523   7.957   9.765 -0.2639  0.2252  0.4088
30919SOL    HW198594  11.532   7.981   9.857 -1.6715 -0.9364  0.8818
30919SOL    HW298595  11.610   7.971   9.728 -0.0769  2.2984  1.5052
30920SOL     OW98596   9.504   3.557   6.496  0.0964 -0.5895  0.0713
30920SOL    HW198597   9.481   3.510   6.576 -1.4002  1.9470  1.2570
30920SOL    HW298598   9.468   3.502   6.425 -1.5017 -1.3114  1.3678
30921SOL     OW98599   4.517   5.064   7.338 -0.0295  0.1875  0.2846
30921SOL    HW198600   4.579   4.997   7.308  0.2880  0.6975 -0.2332
30921SOL    HW298601   4.567   5.116   7.401 -0.2379  0.0098  0.5958
30922SOL     OW98602  11.311   3.976   1.854  0.3006 -0.0286  0.4918
30922SOL    HW198603  11.341   3.990   1.944  1.0137  1.0648  0.1146
30922SOL    HW298604  11.340   3.888   1.832  0.8456  0.0023  1.0586
30923SOL     OW98605   5.060   7.383   5.124  0.4680 -0.2443  0.1663
30923SOL    HW198606   5.010   7.378   5.043 -0.0921  0.0220  0.4904
30923SOL    HW298607   5.059   7.476   5.147 -0.1827 -0.4377  0.9693
30924SOL     OW98608   7.319   2.411   6.239  0.4592 -0.3463 -0.6538
30924SOL    HW198609   7.375   2.488   6.236  3.0056 -2.0213  0.5860
30924SOL    HW298610   7.237   2.442   6.278  1.5041  1.6666  0.0556
30925SOL     OW98611   2.259   0.439   7.030 -0.5727 -0.0926 -0.0465
30925SOL    HW198612   2.230   0.356   6.993 -0.2126 -0.3747  0.3076
30925SOL    HW298613   2.279   0.493   6.953  1.3670 -1.0911 -0.2928
30926SOL     OW98614   2.150   8.129   5.143 -0.3133  0.3154 -0.3376
30926SOL    HW198615   2.179   8.102   5.230 -2.2478  0.7899  0.5331
30926SOL    HW298616   2.138   8.047   5.095 -2.1783 -0.2251  0.9108
30927SOL     OW98617  10.097  11.242  11.108 -0.4861  0.6591  0.4615
30927SOL    HW198618  10.134  11.329  11.089 -0.0327  0.2382 -0.7066
30927SOL    HW298619  10.170  11.193  11.147 -0.7643  0.8197  1.1924
30928SOL     OW98620   2.159   2.960   3.344  0.2138  0.2789  0.1514
30928SOL    HW198621   2.123   2.873   3.329  2.1616 -0.8854  1.6718
30928SOL    HW298622   2.169   2.998   3.257  0.2664 -1.4245 -0.6163
30929SOL     OW98623   2.283   6.993   0.580  0.0253  0.4682  0.0060
30929SOL    HW198624   2.312   6.935   0.651  0.0637  1.3309  0.7132
30929SOL    HW298625   2.308   7.081   0.609 -0.8184  0.9386 -0.6470
30930SOL     OW98626   5.352  11.699   8.742 -0.3293 -0.7504  0.1455
30930SOL    HW198627   5.379  11.608   8.730  0.1405 -0.6355  0.3241
30930SOL    HW298628   5.272  11.708   8.690  0.2579 -0.9519 -0.7979
30931SOL     OW98629   0.136   0.122   0.434 -0.3859 -0.0799  0.0790
30931SOL    HW198630   0.171   0.098   0.348 -0.9671  0.3486 -0.2846
30931SOL    HW298631   0.206   0.100   0.496  0.2257  0.0677 -0.5530
30932SOL     OW98632   6.547  10.725  11.676  0.4816 -0.9075 -0.3604
30932SOL    HW198633   6.585  10.713  11.589 -0.0561 -3.5255 -0.3003
30932SOL    HW298634   6.621  10.716  11.737  0.6789 -0.1075 -0.4622
30933SOL     OW98635   4.288   9.861   8.092 -0.2927 -0.6844  0.2597
30933SOL    HW198636   4.363   9.920   8.096 -1.0433  0.3625 -0.6149
30933SOL    HW298637   4.255   9.859   8.182  0.3381 -0.5622  0.4956
30934SOL     OW98638   3.984   4.877  11.577  0.1724 -0.0978  0.0644
30934SOL    HW198639   3.910   4.831  11.538 -0.6444  2.8157 -2.2334
30934SOL    HW298640   3.951   4.911  11.660 -0.2378 -0.8532  0.2228
30935SOL     OW98641   8.963   7.030   5.838  0.1339 -0.2475 -0.2050
30935SOL    HW198642   8.950   7.104   5.778  0.0409  1.0002  1.2830
30935SOL    HW298643   8.982   7.071   5.922  1.8420 -1.9646  0.3009
30936SOL     OW98644   8.032   8.616   8.763 -0.3935 -0.2854 -0.6126
30936SOL    HW198645   8.083   8.548   8.807  1.1524 -0.8060 -3.0169
30936SOL    HW298646   8.066   8.698   8.798  0.7575 -0.6872 -0.7489
30937SOL     OW98647   3.360   6.025   7.629  0.2557 -0.4475 -0.0473
30937SOL    HW198648   3.433   6.072   7.670  0.5138 -1.5130  0.7758
30937SOL    HW298649   3.284   6.081   7.644  0.5857 -0.2019  0.7469
30938SOL     OW98650   3.109   7.500  12.310 -0.5706 -0.1853  0.3699
30938SOL    HW198651   3.168   7.450  12.366 -0.9634 -0.6296  0.3930
30938SOL    HW298652   3.126   7.469  12.221 -0.7641 -0.3131  0.3763
30939SOL     OW98653   3.823   1.319   4.438 -0.4499  0.3868 -0.1261
30939SOL    HW198654   3.811   1.411   4.414  1.1736  0.9299  0.9308
30939SOL    HW298655   3.918   1.308   4.440 -0.6231 -1.3277 -0.2178
30940SOL     OW98656   3.383   1.662   0.468 -0.2369 -0.3009 -0.7120
30940SOL    HW198657   3.375   1.568   0.484  1.4090 -0.9309 -3.1477
30940SOL    HW298658   3.371   1.672   0.374  2.4327  1.5171 -0.9743
30941SOL     OW98659  11.357  10.772   3.739 -0.4291  0.1214  0.8374
30941SOL    HW198660  11.422  10.746   3.675 -0.3000  0.9593  0.6116
30941SOL    HW298661  11.386  10.858   3.769 -1.2238  0.3395  1.0175
30942SOL     OW98662   0.025   5.774   4.587  0.4151 -0.1860 -0.0654
30942SOL    HW198663   0.116   5.755   4.563 -0.4859 -1.7671 -2.7285
30942SOL    HW298664  -0.008   5.691   4.621  0.0568  0.4977  1.3008
30943SOL     OW98665   4.703  10.617  10.576  0.4302 -0.1475 -0.8402
30943SOL    HW198666   4.765  10.686  10.599  0.7382 -0.6711 -0.0607
30943SOL    HW298667   4.653  10.601  10.656  1.1017 -1.5811 -0.6782
30944SOL     OW98668   7.881   6.905   7.157  0.0782  0.2362  0.0771
30944SOL    HW198669   7.874   6.846   7.082 -0.3332  0.0896  0.2311
30944SOL    HW298670   7.896   6.847   7.232 -0.1569  0.3386  0.2033
30945SOL     OW98671   9.794   4.902   8.614  0.0427 -0.6569 -0.7140
30945SOL    HW198672   9.752   4.936   8.693  1.2168 -1.5068  0.3175
30945SOL    HW298673   9.766   4.962   8.545  0.0332  0.9078  0.5819
30946SOL     OW98674   3.073   6.236   5.099  0.3091 -0.4309  0.4954
30946SOL    HW198675   3.126   6.315   5.086 -0.4042  0.0849  0.6707
30946SOL    HW298676   2.983   6.264   5.084  0.0768 -1.3021  0.1919
30947SOL     OW98677   2.466   3.450   1.760  0.4447 -0.3621  0.0126
30947SOL    HW198678   2.427   3.409   1.683 -0.1562  0.9151 -0.3972
30947SOL    HW298679   2.560   3.438   1.750  0.3311 -0.7142 -0.6269
30948SOL     OW98680   9.016   7.618   8.308 -0.4958 -0.1359 -0.1552
30948SOL    HW198681   9.108   7.599   8.286 -0.4181  1.4426 -1.4024
30948SOL    HW298682   9.014   7.620   8.404  1.2662  1.8299 -0.0921
30949SOL     OW98683  10.875   0.723   8.830  0.3555 -0.0718  0.4396
30949SOL    HW198684  10.864   0.794   8.767 -0.6077 -0.7488 -0.1914
30949SOL    HW298685  10.927   0.658   8.784  0.3938 -0.1950  0.6575
30950SOL     OW98686   5.473   9.747   7.037 -0.3777 -0.6424 -0.2208
30950SOL    HW198687   5.477   9.750   6.941 -0.3504 -0.3455 -0.2115
30950SOL    HW298688   5.379   9.756   7.057 -0.6262 -2.6281 -0.2759
30951SOL     OW98689   7.109   6.618   5.825  0.0266  0.9585  0.0193
30951SOL    HW198690   7.149   6.543   5.780 -1.6365 -0.9606  1.5310
30951SOL    HW298691   7.173   6.642   5.892  0.3681  0.5516 -0.1565
30952SOL     OW98692   9.794  12.192   8.434  0.0615  0.0398  0.4227
30952SOL    HW198693   9.838  12.148   8.507 -0.5142  0.0005  0.7463
30952SOL    HW298694   9.866  12.229   8.382  0.5175 -0.6330  0.5556
30953SOL     OW98695  11.680   1.396   5.234  0.0472 -0.6183  0.1412
30953SOL    HW198696  11.638   1.367   5.315  0.6740  0.2349  0.7745
30953SOL    HW298697  11.623   1.360   5.165  0.0753 -2.2576  0.9044
30954SOL     OW98698   4.448   5.857  10.888 -0.8553 -0.3372  0.6009
30954SOL    HW198699   4.378   5.875  10.950 -0.2087  0.8507  1.0129
30954SOL    HW298700   4.454   5.936  10.835 -0.3342 -0.7260  0.0647
30955SOL     OW98701   4.374   1.909   9.758  0.0779 -0.3641 -0.6407
30955SOL    HW198702   4.293   1.934   9.713  1.3342  3.3823 -1.1173
30955SOL    HW298703   4.359   1.935   9.849 -0.1185 -2.1046 -0.1298
30956SOL     OW98704  11.658   1.642   2.596 -0.1433 -0.2681  0.1411
30956SOL    HW198705  11.651   1.550   2.570  0.7337 -0.1750 -0.4635
30956SOL    HW298706  11.686   1.687   2.516 -0.9907  0.5944  0.3172
30957SOL     OW98707   5.976  11.442   4.509 -0.3727 -0.2119 -1.0495
30957SOL    HW198708   5.976  11.538   4.508  0.1327 -0.1551  1.0006
30957SOL    HW298709   5.928  11.419   4.589  1.4918 -1.6106 -0.2805
30958SOL     OW98710  11.996   6.494   6.899 -0.1584 -0.1369 -0.0494
30958SOL    HW198711  11.958   6.536   6.976 -0.0229  1.6058 -0.8679
30958SOL    HW298712  12.025   6.567   6.844  0.6371 -1.3433 -1.3094
30959SOL     OW98713   0.860  11.527  12.039  0.4622  0.1701  0.2057
30959SOL    HW198714   0.918  11.500  12.111  0.9380  0.0263 -0.2262
30959SOL    HW298715   0.844  11.446  11.990  0.7699  0.4092 -0.2943
30960SOL     OW98716   4.255   0.778   8.946  0.1517  0.2839  0.0929
30960SOL    HW198717   4.263   0.697   8.896  0.0324  1.1497 -1.3699
30960SOL    HW298718   4.163   0.803   8.936  0.7101  1.8586 -1.5277
30961SOL     OW98719   3.263   3.390   2.787  0.9530  0.0463  0.0548
30961SOL    HW198720   3.319   3.410   2.862 -2.2847  0.1417  2.6902
30961SOL    HW298721   3.237   3.476   2.753  1.5203  0.0152 -0.4669
30962SOL     OW98722   5.437   6.987   4.390 -0.0072 -0.5860 -0.5360
30962SOL    HW198723   5.374   6.916   4.375  0.8442 -1.0330 -2.1896
30962SOL    HW298724   5.480   7.000   4.305  1.3387  0.4872  0.2666
30963SOL     OW98725   3.987   8.308   5.454  0.0689  0.1160  0.8645
30963SOL    HW198726   3.936   8.381   5.487  1.5002  1.9659 -0.8152
30963SOL    HW298727   4.058   8.296   5.517 -0.2513  0.0722  1.2150
30964SOL     OW98728   7.832   0.931   5.881 -0.4074 -0.9523  0.2166
30964SOL    HW198729   7.828   0.930   5.977  1.5777 -1.7846  0.3295
30964SOL    HW298730   7.819   0.839   5.856 -2.7966 -0.4918 -0.4679
30965SOL     OW98731   1.414   3.767   9.772  0.2478  0.3571 -0.4077
30965SOL    HW198732   1.354   3.737   9.702 -0.2886  1.3565 -0.3867
30965SOL    HW298733   1.493   3.793   9.725  0.3092 -0.0277 -0.5290
30966SOL     OW98734   6.241  10.255  11.241 -0.1734  0.5588 -0.2493
30966SOL    HW198735   6.265  10.344  11.265 -3.8592  2.1839 -1.7251
30966SOL    HW298736   6.288  10.239  11.158  1.7528  0.3848  0.8167
30967SOL     OW98737   0.615   1.274   6.134 -0.2265 -0.1767 -0.5024
30967SOL    HW198738   0.700   1.271   6.178  0.1351  0.2225 -1.1531
30967SOL    HW298739   0.626   1.218   6.057 -0.4675  0.0805 -0.7251
30968SOL     OW98740   2.814   6.572   5.875 -0.2343  0.1423 -0.0432
30968SOL    HW198741   2.839   6.530   5.792  0.4846 -0.8176  0.6503
30968SOL    HW298742   2.829   6.665   5.859  1.3972 -0.1685 -0.4875
30969SOL     OW98743   5.676   3.364   2.169  0.3781 -0.5577  0.0558
30969SOL    HW198744   5.665   3.270   2.177  0.0521 -0.4380  1.1640
30969SOL    HW298745   5.600   3.393   2.117 -1.1228 -0.5788  2.1018
30970SOL     OW98746   5.322   3.926   6.411  0.3423 -0.0408  0.3087
30970SOL    HW198747   5.245   3.964   6.369  1.8048  0.8806 -1.7124
30970SOL    HW298748   5.389   3.993   6.401  1.0499 -0.1227  3.4778
30971SOL     OW98749  11.805   7.673  11.732 -0.4344  0.1293  0.0540
30971SOL    HW198750  11.794   7.731  11.657 -0.6776  0.2308  0.1677
30971SOL    HW298751  11.899   7.677  11.751 -0.1704 -0.7900 -0.9569
30972SOL     OW98752  12.024   4.343   9.074  0.3428 -0.0892 -0.0380
30972SOL    HW198753  12.059   4.366   9.160  1.4825  0.2087 -0.5586
30972SOL    HW298754  12.093   4.289   9.034 -0.7187 -1.3177 -0.2763
30973SOL     OW98755   2.686  12.243   8.574  0.0170  0.1715 -0.3365
30973SOL    HW198756   2.710  12.303   8.504 -3.1525  0.8451 -1.0053
30973SOL    HW298757   2.597  12.268   8.597  0.0322 -1.7267  2.1761
30974SOL     OW98758   8.374   7.947   2.725  0.1833 -0.7276 -0.0465
30974SOL    HW198759   8.318   8.016   2.759 -0.1072 -1.9863  2.1885
30974SOL    HW298760   8.462   7.986   2.725 -0.0295 -0.2167  0.8006
30975SOL     OW98761  11.905  10.213   2.862 -0.4696  0.0517 -0.1897
30975SOL    HW198762  11.822  10.261   2.850 -0.4173  0.5053  1.1627
30975SOL    HW298763  11.879  10.131   2.904 -0.3319 -0.2932 -0.7543
30976SOL     OW98764  10.520  10.305   6.247  0.0356  0.1911  0.0171
30976SOL    HW198765  10.460  10.249   6.297 -0.6417  0.6296 -0.2746
30976SOL    HW298766  10.578  10.342   6.313  0.4966 -0.8488  0.2114
30977SOL     OW98767   6.401  10.637   9.432 -0.3186  0.8161 -0.0844
30977SOL    HW198768   6.456  10.715   9.432  1.5120 -0.4231 -0.4027
30977SOL    HW298769   6.330  10.658   9.372  0.0420  2.2884 -0.0334
30978SOL     OW98770   3.054   1.383  10.996 -0.4279  0.0823 -0.1763
30978SOL    HW198771   3.143   1.385  11.031  0.2563  0.3339 -1.8540
30978SOL    HW298772   3.018   1.469  11.019 -0.2866 -0.0542  0.5940
30979SOL     OW98773   7.007   6.505   6.442  0.4012  0.6091  0.6153
30979SOL    HW198774   6.942   6.478   6.378  0.2990  1.6326  0.2632
30979SOL    HW298775   6.955   6.526   6.520  0.3415  1.0627  0.4562
30980SOL     OW98776   6.021   7.728   7.616  0.1484  0.4462 -0.2327
30980SOL    HW198777   6.048   7.735   7.524  1.4379 -0.9794 -0.0097
30980SOL    HW298778   6.057   7.807   7.657 -0.5358  1.1526 -0.9511
30981SOL     OW98779  11.869   5.172   4.958 -0.5822 -0.1698  0.0214
30981SOL    HW198780  11.962   5.196   4.962 -0.7266  0.4308 -0.1357
30981SOL    HW298781  11.856   5.116   5.035 -0.9425  2.8075  2.2990
30982SOL     OW98782   4.614   4.956   9.755  0.2961 -0.0834 -0.2421
30982SOL    HW198783   4.658   4.874   9.734  0.6979  0.0155  0.1742
30982SOL    HW298784   4.578   4.987   9.672  0.5977 -0.4153 -0.4988
30983SOL     OW98785   2.332   2.079   0.099  0.0783  0.2049 -0.9684
30983SOL    HW198786   2.308   2.146   0.034  0.2412  0.4158 -0.8115
30983SOL    HW298787   2.248   2.054   0.138 -0.0388 -0.0266 -1.3582
30984SOL     OW98788   5.899   5.294   6.442 -0.3334  0.5850  0.0255
30984SOL    HW198789   5.859   5.335   6.519  1.3145  1.7423  0.3302
30984SOL    HW298790   5.949   5.221   6.477 -0.8431  0.1474 -0.1520
30985SOL     OW98791   0.989   8.109   2.377  0.4363 -0.6878  0.3413
30985SOL    HW198792   0.991   8.043   2.307  0.1736 -2.1403  1.6542
30985SOL    HW298793   1.078   8.108   2.414  1.0881  1.2922 -0.9896
30986SOL     OW98794   7.435   2.675   1.683  0.1557 -0.5974 -0.8572
30986SOL    HW198795   7.390   2.744   1.731  0.4572 -0.2227 -1.1161
30986SOL    HW298796   7.397   2.594   1.717  1.3343 -0.4168  1.0523
30987SOL     OW98797  12.004  10.658   1.861  0.2501  0.0897 -0.1175
30987SOL    HW198798  12.004  10.597   1.787 -0.0181 -0.4792  0.3452
30987SOL    HW298799  11.912  10.681   1.874  0.2649 -0.0312  0.2136
30988SOL     OW98800   8.020   3.699   7.046  0.0280 -0.4274  0.0259
30988SOL    HW198801   7.937   3.710   7.000  0.4017  1.1409 -0.3273
30988SOL    HW298802   8.063   3.784   7.038  1.5718 -1.1400  0.3984
30989SOL     OW98803   9.761   2.698   5.425 -0.4438  0.4725 -0.0003
30989SOL    HW198804   9.851   2.704   5.393  0.0547  0.1883  1.2868
30989SOL    HW298805   9.709   2.743   5.359  0.6834  0.9202 -0.6098
30990SOL     OW98806  12.293   5.819  12.300 -0.3743  0.0408  0.3054
30990SOL    HW198807  12.375   5.780  12.270 -0.7329 -0.5356  0.0681
30990SOL    HW298808  12.307   5.913  12.290 -0.2478 -0.1057 -1.0569
30991SOL     OW98809   3.000   8.928   2.527  0.0502  0.3293  0.1298
30991SOL    HW198810   2.951   8.852   2.496 -1.6856  0.6261  1.9335
30991SOL    HW298811   2.990   8.926   2.622  2.6668  1.0656  0.5006
30992SOL     OW98812   2.244   6.268   8.262 -0.1653 -0.5097 -0.1885
30992SOL    HW198813   2.293   6.209   8.321 -0.6172 -0.1150  0.5984
30992SOL    HW298814   2.297   6.271   8.182  0.5018 -1.0017  0.2216
30993SOL     OW98815   8.068   2.018   3.811 -0.2507  0.1878  0.8392
30993SOL    HW198816   8.047   2.070   3.734  0.8738  0.2477  0.5436
30993SOL    HW298817   8.017   2.057   3.882 -1.6074 -0.1225  0.0585
30994SOL     OW98818   1.071   7.798   7.864  0.3844 -0.0042 -0.7066
30994SOL    HW198819   1.153   7.845   7.850  0.9027 -0.7592 -0.2540
30994SOL    HW298820   1.004   7.855   7.825  1.0761  0.7712 -0.7925
30995SOL     OW98821   2.086   5.309  10.959 -0.4897  0.1449  0.1112
30995SOL    HW198822   2.036   5.237  10.998 -1.8520  1.2228  0.4378
30995SOL    HW298823   2.036   5.335  10.882  1.9102 -1.6275 -2.2333
30996SOL     OW98824   5.875   8.780   6.344  0.0672 -0.2570 -0.3701
30996SOL    HW198825   5.786   8.784   6.380 -0.6123  0.2766 -2.0022
30996SOL    HW298826   5.862   8.766   6.250  1.6224  2.0231 -1.0067
30997SOL     OW98827   1.345  11.808   5.044 -0.8156  0.2082 -0.5492
30997SOL    HW198828   1.433  11.770   5.044 -0.1854  1.3866 -3.5018
30997SOL    HW298829   1.287  11.734   5.057  0.5438 -0.8874 -0.5009
30998SOL     OW98830  11.024   0.257   5.583 -0.1997 -0.6892  0.0232
30998SOL    HW198831  10.939   0.263   5.628 -0.6783  0.2383 -0.9696
30998SOL    HW298832  11.053   0.348   5.574 -0.0239 -0.8639 -1.3494
30999SOL     OW98833   7.696   9.532   4.625 -0.0088  0.2030 -0.5138
30999SOL    HW198834   7.619   9.490   4.586  0.6698 -0.3278 -1.3306
30999SOL    HW298835   7.770   9.499   4.573  1.0930 -1.4528  1.8995
31000SOL     OW98836   0.944   2.870  10.809  0.2535 -0.1915 -0.2526
31000SOL    HW198837   1.008   2.857  10.739  0.1508 -0.7633 -0.2437
31000SOL    HW298838   0.967   2.955  10.846  1.6988 -0.8648  0.4591
31001SOL     OW98839   7.214   5.353   9.942 -0.2003  0.1355 -0.7160
31001SOL    HW198840   7.126   5.383   9.921 -0.8187 -0.3249  1.0567
31001SOL    HW298841   7.272   5.413   9.895 -1.4268  1.9388 -0.0053
31002SOL     OW98842  10.339   8.799   2.191 -0.1716 -0.4567  0.2969
31002SOL    HW198843  10.401   8.838   2.129  0.2152 -0.6012  0.5871
31002SOL    HW298844  10.301   8.725   2.144 -0.8890  0.2393 -0.2468
31003SOL     OW98845   3.981   3.602  11.677  0.3495  0.5676  0.0853
31003SOL    HW198846   3.959   3.695  11.678 -2.4211  0.0034  0.3338
31003SOL    HW298847   3.937   3.566  11.754 -0.8164 -1.3275 -1.3886
31004SOL     OW98848   6.525   3.073   4.872 -0.1499 -0.2858  0.5383
31004SOL    HW198849   6.582   3.121   4.812 -0.5230  0.3238  0.6699
31004SOL    HW298850   6.460   3.031   4.816  0.7083 -1.4215  0.3315
31005SOL     OW98851   9.333   6.206   3.406 -0.0447 -0.0363 -0.1695
31005SOL    HW198852   9.397   6.239   3.344  1.0736  1.2086  1.5666
31005SOL    HW298853   9.384   6.157   3.470 -1.0339 -0.4729  0.3099
31006SOL     OW98854  12.017   5.520   3.338 -0.2725 -0.6307  0.6081
31006SOL    HW198855  12.035   5.475   3.420  0.5878 -1.5215 -0.0399
31006SOL    HW298856  12.053   5.608   3.350 -1.9366 -0.0753  1.8743
31007SOL     OW98857   6.541   2.190   0.029  0.5624 -0.0971  0.6321
31007SOL    HW198858   6.510   2.279   0.045  0.5556 -0.0573  0.3882
31007SOL    HW298859   6.463   2.141   0.004  0.8339  0.2030 -0.8450
31008SOL     OW98860   3.008   3.084   5.408  0.0144 -0.1924 -0.1093
31008SOL    HW198861   2.940   3.052   5.348 -2.0212 -1.5823  2.6716
31008SOL    HW298862   3.084   3.030   5.389 -0.9590 -1.4174 -0.6802
31009SOL     OW98863   4.159   0.069   9.805 -0.2151  0.2010 -0.0164
31009SOL    HW198864   4.220   0.097   9.873  0.6015  0.6354 -0.9053
31009SOL    HW298865   4.208   0.006   9.753 -0.7698  0.0200 -0.3297
31010SOL     OW98866   8.944   7.337   9.845 -0.2225  0.5547  0.1398
31010SOL    HW198867   8.943   7.290   9.928  2.0274  0.4655  0.1644
31010SOL    HW298868   8.877   7.294   9.792  0.9303 -1.9314  0.5828
31011SOL     OW98869   8.460   1.876   6.176 -0.3980 -0.2589  0.8505
31011SOL    HW198870   8.380   1.859   6.126  0.1414 -1.7614  0.4616
31011SOL    HW298871   8.489   1.790   6.206 -0.2627  0.5063  3.1437
31012SOL     OW98872   9.415   2.771   2.283  0.0742 -0.1910 -0.6243
31012SOL    HW198873   9.455   2.685   2.269 -0.8270 -0.5648 -0.9929
31012SOL    HW298874   9.394   2.774   2.376 -0.6607 -0.7249 -0.7648
31013SOL     OW98875   8.522   3.518   0.914 -0.3326  0.4721  0.0709
31013SOL    HW198876   8.571   3.457   0.968  0.7606  0.8180 -0.4924
31013SOL    HW298877   8.461   3.560   0.974  0.5417  0.5191  0.9549
31014SOL     OW98878   9.282   5.111   2.613 -0.1467  0.1927 -0.0386
31014SOL    HW198879   9.232   5.098   2.694 -0.0837 -0.0752 -0.0423
31014SOL    HW298880   9.219   5.100   2.543 -0.1721  0.2900 -0.0316
31015SOL     OW98881   6.811   5.045   3.294  0.0937 -0.1410 -0.4576
31015SOL    HW198882   6.902   5.018   3.310  0.3496  0.7716 -0.3523
31015SOL    HW298883   6.797   5.118   3.354  0.2935  1.7699 -2.6158
31016SOL     OW98884   4.547   8.155   3.236  0.2487 -0.5003 -0.3022
31016SOL    HW198885   4.489   8.229   3.250 -0.2228 -0.9406  0.1198
31016SOL    HW298886   4.491   8.087   3.199  0.4481 -0.9883  0.2726
31017SOL     OW98887   8.231   6.671   1.760  0.0005 -0.4651  0.6763
31017SOL    HW198888   8.283   6.711   1.830  1.1814 -1.0209  0.1472
31017SOL    HW298889   8.172   6.740   1.731  1.0997  0.4984  0.6626
31018SOL     OW98890  12.002  10.011   9.325  0.0877 -0.5781  0.3004
31018SOL    HW198891  11.925   9.956   9.314 -0.0162 -0.6872  1.4550
31018SOL    HW298892  12.050  10.003   9.242 -1.4312 -0.0271 -0.6702
31019SOL     OW98893   6.797   4.659   6.938 -0.6080  0.3339 -0.9288
31019SOL    HW198894   6.867   4.602   6.967 -1.7541 -0.7602 -0.2196
31019SOL    HW298895   6.782   4.718   7.011 -1.7842 -0.7754 -0.2370
31020SOL     OW98896  10.502   4.815   2.838 -0.0916  0.6035  0.1306
31020SOL    HW198897  10.551   4.895   2.823  1.6944 -0.4750 -0.0728
31020SOL    HW298898  10.459   4.797   2.754 -1.2762  1.7980  0.4451
31021SOL     OW98899   4.997   7.698   9.342  0.3321  0.1199  0.5865
31021SOL    HW198900   4.992   7.603   9.354 -0.5598 -0.0690 -1.0165
31021SOL    HW298901   5.083   7.713   9.303 -0.1802 -0.2486 -0.7308
31022SOL     OW98902   8.766   5.439   4.483 -0.5951  0.5986 -0.2841
31022SOL    HW198903   8.722   5.394   4.554  0.9245  1.7098  1.4520
31022SOL    HW298904   8.696   5.474   4.429 -1.7831 -1.0629  0.1098
31023SOL     OW98905   0.145   0.733   2.133 -0.3241 -1.1053 -0.2883
31023SOL    HW198906   0.067   0.689   2.101 -0.0686 -1.1155 -0.9124
31023SOL    HW298907   0.216   0.701   2.077  0.0030 -0.5472 -0.2090
31024SOL     OW98908   3.362   4.113   6.348 -0.0508  0.0862  0.3672
31024SOL    HW198909   3.403   4.106   6.262  1.4514  1.8354  0.8585
31024SOL    HW298910   3.289   4.051   6.346  0.8558 -0.9958 -1.6141
31025SOL     OW98911   3.865  11.294   3.537  0.3203 -0.3021 -0.1262
31025SOL    HW198912   3.845  11.212   3.493 -0.0305 -0.0321 -0.4765
31025SOL    HW298913   3.933  11.335   3.484  1.2222 -0.8307  0.6050
31026SOL     OW98914   4.802  11.209   1.804  1.0884 -0.1175  0.4810
31026SOL    HW198915   4.859  11.213   1.727 -1.1011  0.0375 -1.2238
31026SOL    HW298916   4.749  11.289   1.799 -0.2111 -0.8916  1.2194
31027SOL     OW98917   9.507   7.287   7.153 -0.0147 -0.1420 -0.9423
31027SOL    HW198918   9.528   7.195   7.172 -0.0356 -0.1115 -0.7659
31027SOL    HW298919   9.441   7.282   7.084 -0.8248 -0.2970 -0.1710
31028SOL     OW98920   5.496   5.158   0.798 -0.4408 -0.1502 -0.2201
31028SOL    HW198921   5.459   5.100   0.731  0.7629 -0.0129 -1.0383
31028SOL    HW298922   5.463   5.124   0.881 -0.7886 -1.2113 -0.7811
31029SOL     OW98923   5.325   7.754   5.119 -0.1476 -0.1258  0.1304
31029SOL    HW198924   5.310   7.845   5.090  0.6063 -0.9382 -3.2995
31029SOL    HW298925   5.237   7.719   5.131 -0.4812  0.6571  0.0682
31030SOL     OW98926   9.225  10.494   9.546  0.3364 -0.1507  0.0562
31030SOL    HW198927   9.198  10.545   9.469  0.0199 -3.1544 -2.0064
31030SOL    HW298928   9.308  10.455   9.520 -0.4613 -2.3605  0.5677
31031SOL     OW98929   9.158   3.081   8.146 -0.1673 -0.1592  0.0181
31031SOL    HW198930   9.075   3.121   8.120 -0.6424 -0.8396  0.4421
31031SOL    HW298931   9.220   3.107   8.078 -1.2733 -1.5068 -1.5963
31032SOL     OW98932   7.857   1.988   9.326  0.2638  0.1657  0.0421
31032SOL    HW198933   7.833   2.055   9.263 -0.4888 -0.9406 -0.8990
31032SOL    HW298934   7.949   1.967   9.307  0.5096  0.9329  0.3657
31033SOL     OW98935   3.433   3.197   7.917  0.2307  0.0337  0.1485
31033SOL    HW198936   3.385   3.203   7.834 -0.0056  0.1269  0.2925
31033SOL    HW298937   3.365   3.188   7.984  0.4369 -2.8991  0.1071
31034SOL     OW98938   9.107   9.893   7.620  0.0790 -0.9846  0.2034
31034SOL    HW198939   9.038   9.937   7.669  0.3835 -0.1414 -0.1183
31034SOL    HW298940   9.124   9.812   7.669 -1.3850 -1.3880  0.0978
31035SOL     OW98941  11.849   5.638   4.244  0.3169 -0.5939 -0.3311
31035SOL    HW198942  11.896   5.615   4.164  0.0270 -3.0486  0.1145
31035SOL    HW298943  11.901   5.601   4.315 -1.1801 -1.6074  0.3139
31036SOL     OW98944   1.335   2.321   6.130  0.0427 -0.3675  0.0343
31036SOL    HW198945   1.388   2.400   6.123 -0.8920  0.1963 -1.1229
31036SOL    HW298946   1.311   2.300   6.040 -1.8465 -0.4595  0.5120
31037SOL     OW98947   3.389   8.103   1.053  0.3034  0.6267 -0.3888
31037SOL    HW198948   3.306   8.067   1.083 -0.8541  1.8200 -1.9695
31037SOL    HW298949   3.368   8.146   0.970  2.0067  3.0425  0.3177
31038SOL     OW98950  11.466   8.777   8.189 -0.2655  0.0029  0.6952
31038SOL    HW198951  11.523   8.851   8.213  2.2310 -2.1225  1.8121
31038SOL    HW298952  11.513   8.733   8.118 -0.7194 -1.5854  1.3400
31039SOL     OW98953   1.502   6.587   5.424  0.0354 -0.2292 -0.7965
31039SOL    HW198954   1.517   6.619   5.513  0.4685 -1.7847 -0.2668
31039SOL    HW298955   1.551   6.647   5.368  1.0424 -0.1152  0.1658
31040SOL     OW98956   6.736  11.587  12.162 -0.3563 -0.9512  0.2775
31040SOL    HW198957   6.766  11.677  12.174 -0.5411 -1.0511  1.6067
31040SOL    HW298958   6.676  11.591  12.088 -0.4487  0.0398  0.3961
31041SOL     OW98959  11.658   8.317  10.869  0.1655 -0.5085 -0.1662
31041SOL    HW198960  11.616   8.381  10.926 -0.2552 -1.0695  0.1598
31041SOL    HW298961  11.730   8.282  10.921 -1.4816 -2.5581  0.8684
31042SOL     OW98962   7.377   3.866   5.097  0.2547  0.5737  0.1854
31042SOL    HW198963   7.383   3.895   5.006  0.3327  1.0543  0.3394
31042SOL    HW298964   7.411   3.940   5.148  1.3645 -0.1570  0.5324
31043SOL     OW98965   7.044   9.229  11.632 -0.2505  0.9251 -0.5151
31043SOL    HW198966   6.965   9.193  11.674 -1.2403  0.6960 -2.4829
31043SOL    HW298967   7.026   9.223  11.538  1.8942  1.4102 -0.9976
31044SOL     OW98968  12.264   7.832   8.197 -0.1757 -0.0613  0.1960
31044SOL    HW198969  12.210   7.904   8.231  0.0095 -1.1187  3.0552
31044SOL    HW298970  12.353   7.868   8.195 -0.3696  0.3979 -0.3754
31045SOL     OW98971   8.214   4.489   3.058 -0.3690 -0.3398  0.1900
31045SOL    HW198972   8.144   4.518   3.116 -1.1581 -0.6022 -0.5982
31045SOL    HW298973   8.169   4.432   2.994  0.1960  1.0648 -1.5224
31046SOL     OW98974   3.576   4.282   5.937 -0.1880  0.2787  0.9619
31046SOL    HW198975   3.636   4.252   5.868 -0.7888  1.5357 -0.1444
31046SOL    HW298976   3.631   4.335   5.996 -0.1852  1.4903 -0.0900
31047SOL     OW98977   1.927   5.447   8.610  0.0806 -0.4344  0.4097
31047SOL    HW198978   1.978   5.481   8.536  0.2555  1.2759  1.2880
31047SOL    HW298979   1.960   5.357   8.621  0.4518 -0.5357 -1.2027
31048SOL     OW98980   0.104   0.671  10.907 -0.1331 -0.0768 -0.6225
31048SOL    HW198981   0.034   0.615  10.939 -1.7173  3.1732  2.2147
31048SOL    HW298982   0.095   0.668  10.811 -1.9672 -2.2893 -0.4645
31049SOL     OW98983   1.320   2.629  10.466 -0.0896  0.4798  0.0412
31049SOL    HW198984   1.373   2.670  10.397 -0.3309 -0.5694 -0.7940
31049SOL    HW298985   1.328   2.535  10.450 -0.4251  0.2366  1.2561
31050SOL     OW98986   4.335   0.172  10.024 -0.4644  0.3520 -0.0042
31050SOL    HW198987   4.325   0.266  10.012  1.0097  0.6296  0.7526
31050SOL    HW298988   4.425   0.160  10.054 -0.4728 -1.3423 -0.5013
31051SOL     OW98989   9.770   5.792   5.606  0.0020  0.3085  0.1608
31051SOL    HW198990   9.765   5.698   5.623  0.2913  0.0403 -1.1032
31051SOL    HW298991   9.755   5.800   5.512  1.0511  1.4184  0.0597
31052SOL     OW98992   1.686   3.996   2.679  0.3094 -0.0786  0.4578
31052SOL    HW198993   1.600   4.006   2.721  0.9270 -1.7978  2.2750
31052SOL    HW298994   1.670   3.936   2.607 -0.1414  0.1742  0.3395
31053SOL     OW98995   3.522   7.199  11.701 -0.0439 -0.3420  0.1806
31053SOL    HW198996   3.530   7.242  11.616 -0.1974  0.2662  0.4683
31053SOL    HW298997   3.488   7.111  11.680 -2.5295  0.6349 -0.2108
31054SOL     OW98998  11.248   0.620   7.086 -0.0893 -0.7003  0.1923
31054SOL    HW198999  11.317   0.554   7.090  1.6509  0.9685 -0.4620
31054SOL    HW299000  11.240   0.652   7.176 -0.2951 -1.1517  0.3376
31055SOL     OW99001  10.350   1.323   1.477  0.2760 -0.5267 -0.5696
31055SOL    HW199002  10.372   1.230   1.465 -0.2650 -0.6053 -0.9582
31055SOL    HW299003  10.276   1.322   1.538 -0.1951 -0.3917 -1.1367
31056SOL     OW99004   6.831  11.947   6.330  0.1230 -0.0735 -0.2070
31056SOL    HW199005   6.778  11.910   6.401 -0.2853  0.9043  0.0141
31056SOL    HW299006   6.922  11.929   6.357 -0.0356  0.0039  0.4060
31057SOL     OW99007   1.617   9.252   5.406  0.1488  0.6529 -0.3350
31057SOL    HW199008   1.593   9.336   5.446  2.4232  1.6013 -0.7942
31057SOL    HW299009   1.691   9.221   5.458 -0.4908 -0.9554 -0.3473
31058SOL     OW99010   4.337  11.154  12.248  0.1188 -0.1211  0.1734
31058SOL    HW199011   4.284  11.078  12.226 -0.0474 -0.0271  0.2478
31058SOL    HW299012   4.371  11.185  12.164  0.5332 -0.5311  0.1907
31059SOL     OW99013   4.881   8.703  10.946 -0.1290 -0.1509 -0.2979
31059SOL    HW199014   4.887   8.717  10.852  1.3151  1.5863 -0.0003
31059SOL    HW299015   4.961   8.655  10.968 -0.3598 -0.3690  0.0643
31060SOL     OW99016   8.825   9.140   8.917 -0.1366 -0.3499  0.6445
31060SOL    HW199017   8.914   9.173   8.911 -0.9900  2.0891  0.1906
31060SOL    HW299018   8.796   9.164   9.005 -0.5830 -0.4785  0.5373
31061SOL     OW99019   8.166   5.372   4.106 -0.2120 -0.5975  0.2958
31061SOL    HW199020   8.249   5.342   4.068 -0.6447 -0.8831 -0.4440
31061SOL    HW299021   8.114   5.399   4.031 -1.4354 -2.0504  0.5675
31062SOL     OW99022   8.407  10.470   6.478 -0.5355 -0.2320  0.0744
31062SOL    HW199023   8.440  10.501   6.562  0.7038 -1.3179  0.0172
31062SOL    HW299024   8.486  10.446   6.429 -1.2726 -0.1580 -1.1745
31063SOL     OW99025   2.958   1.517   0.202  0.5597  0.2119  0.0126
31063SOL    HW199026   3.006   1.472   0.271  1.4361  1.9633  0.6068
31063SOL    HW299027   2.896   1.573   0.249  0.7424  0.9661 -0.6216
31064SOL     OW99028  10.689   6.741   6.988 -0.6280 -0.3991 -0.1292
31064SOL    HW199029  10.777   6.711   7.010 -1.1566 -2.1575 -0.2988
31064SOL    HW299030  10.637   6.724   7.066 -0.4495  2.5935  0.7693
31065SOL     OW99031  10.511   0.143   9.296  0.3624  0.0091 -0.1651
31065SOL    HW199032  10.421   0.171   9.314  0.1186 -0.6405 -0.3250
31065SOL    HW299033  10.565   0.203   9.347 -0.2023 -0.1814  0.6923
31066SOL     OW99034  10.430  11.365   8.524  0.2038 -0.5348  0.1125
31066SOL    HW199035  10.524  11.369   8.545  0.7118  0.7038 -2.1031
31066SOL    HW299036  10.390  11.431   8.579  0.4786 -1.5558  1.6015
31067SOL     OW99037   5.568   8.080  11.320 -0.4921 -0.4671  0.4070
31067SOL    HW199038   5.541   7.992  11.292  1.4516 -1.0598  0.2945
31067SOL    HW299039   5.563   8.076  11.415 -3.8937  0.5087  0.3947
31068SOL     OW99040   9.274   2.256   5.616  0.1054  0.2478 -0.3789
31068SOL    HW199041   9.220   2.282   5.542 -0.4454  0.7370  0.1911
31068SOL    HW299042   9.267   2.160   5.617  0.6308  0.1761 -1.3280
31069SOL     OW99043   1.508   8.592  11.157  0.1406 -0.7628  0.3458
31069SOL    HW199044   1.540   8.625  11.073 -0.2378  0.9907  0.8471
31069SOL    HW299045   1.418   8.566  11.141  0.0259 -0.2979  0.2384
31070SOL     OW99046   1.628   2.788   2.566  0.0334 -0.2965  0.3948
31070SOL    HW199047   1.710   2.793   2.616  1.6931  1.4013 -2.1979
31070SOL    HW299048   1.600   2.697   2.574  1.7828 -0.7712  1.9484
31071SOL     OW99049   8.990   6.883   2.729 -0.0474  0.1226  0.2593
31071SOL    HW199050   8.998   6.935   2.649 -0.2698  1.4543  1.0659
31071SOL    HW299051   9.067   6.827   2.730  1.5150  2.1718  0.5269
31072SOL     OW99052  11.250   3.949   3.452  0.4840 -0.0789 -0.2734
31072SOL    HW199053  11.161   3.950   3.416  0.3536  1.3264  0.0218
31072SOL    HW299054  11.274   3.857   3.453 -0.9715 -0.4917 -0.3656
31073SOL     OW99055  11.518   2.151  10.151  0.1651  0.5284  0.6806
31073SOL    HW199056  11.534   2.114  10.064  1.3574  1.4165  0.4992
31073SOL    HW299057  11.469   2.231  10.134  2.6970  2.1486  0.5508
31074SOL     OW99058   1.482  12.059   9.626  0.3143  0.3298  0.1076
31074SOL    HW199059   1.470  12.068   9.721 -4.1311  1.8832 -0.3438
31074SOL    HW299060   1.457  11.969   9.607 -1.1524  0.6659  0.2837
31075SOL     OW99061   2.446   7.148   6.569  0.1771 -0.2774  0.1153
31075SOL    HW199062   2.533   7.110   6.569 -0.5026 -1.9019 -0.6248
31075SOL    HW299063   2.459   7.238   6.599  2.0136 -0.6638  0.5626
31076SOL     OW99064   6.234  12.221  10.133 -0.0330  0.5210 -0.0292
31076SOL    HW199065   6.328  12.238  10.121  0.0780  0.4295  0.6882
31076SOL    HW299066   6.198  12.225  10.044  0.1334  3.5413 -0.0859
31077SOL     OW99067   1.562   9.529   2.427  0.0886 -0.4664 -0.3867
31077SOL    HW199068   1.619   9.541   2.503  1.2340 -1.0032 -1.1250
31077SOL    HW299069   1.492   9.472   2.457 -0.7449  1.1651  0.8709
31078SOL     OW99070   1.782   4.139   1.442  0.1942 -0.8185 -0.2827
31078SOL    HW199071   1.800   4.114   1.533 -1.1873  0.0829  0.2713
31078SOL    HW299072   1.812   4.064   1.390  0.8967 -1.3997  0.9153
31079SOL     OW99073   0.401   3.958   5.091  0.0710  0.3620  0.0710
31079SOL    HW199074   0.315   3.998   5.075 -0.7860 -0.2981  2.5376
31079SOL    HW299075   0.401   3.879   5.038 -1.1645  0.0235  0.5376
31080SOL     OW99076  10.827   6.315   1.910 -0.6470 -0.2809  0.0647
31080SOL    HW199077  10.807   6.225   1.933  0.5264 -0.6260 -0.1996
31080SOL    HW299078  10.777   6.367   1.973 -0.7218 -1.1326  0.7294
31081SOL     OW99079   2.880   9.424   7.677  0.1743  0.5233  0.3088
31081SOL    HW199080   2.851   9.365   7.747  1.5110 -1.1474 -0.4731
31081SOL    HW299081   2.813   9.492   7.674 -0.3467  0.1972  2.6456
31082SOL     OW99082   8.871   3.408   9.884 -0.0667  0.0073  0.0626
31082SOL    HW199083   8.958   3.370   9.899 -0.2702 -0.8424 -0.7755
31082SOL    HW299084   8.811   3.334   9.896 -0.5850  0.3652 -0.3069
31083SOL     OW99085   9.808   1.977   7.672 -0.0156 -0.9481 -0.5379
31083SOL    HW199086   9.827   1.942   7.585 -0.2618 -0.0007 -0.9898
31083SOL    HW299087   9.881   2.036   7.691 -0.1626 -0.8452 -0.2767
31084SOL     OW99088   5.683   4.225   8.761 -0.2587 -0.5361  0.3813
31084SOL    HW199089   5.616   4.157   8.761 -1.1591  0.2662  2.4821
31084SOL    HW299090   5.764   4.180   8.785 -0.3736 -1.2296 -0.5122
31085SOL     OW99091  10.843  12.079   6.716 -0.5889  0.0397  0.1963
31085SOL    HW199092  10.803  12.065   6.630 -0.4663  0.6636  0.0319
31085SOL    HW299093  10.937  12.068   6.700 -0.3592  2.0617 -0.1948
31086SOL     OW99094  11.709   5.909   1.003 -0.0431  0.0106 -0.1055
31086SOL    HW199095  11.727   5.981   0.943 -2.0049  0.6406 -0.0220
31086SOL    HW299096  11.711   5.949   1.090  2.5550 -0.8510  0.3193
31087SOL     OW99097   7.776   1.276   6.249 -0.5031  0.4555  0.0282
31087SOL    HW199098   7.746   1.292   6.160  1.5983 -1.0573 -1.0438
31087SOL    HW299099   7.705   1.310   6.304 -3.1724 -0.9826 -2.2168
31088SOL     OW99100   6.032   6.517   2.174  0.0823 -0.1491  0.0105
31088SOL    HW199101   6.055   6.543   2.085 -0.9423  0.9669  0.0396
31088SOL    HW299102   6.102   6.458   2.201  0.8156  0.1088 -1.2550
31089SOL     OW99103   6.070   1.842   3.418 -0.4015  0.0486 -0.2151
31089SOL    HW199104   6.057   1.765   3.363  1.6503 -0.7240  0.2991
31089SOL    HW299105   6.095   1.807   3.504 -2.3416  1.2543  0.9127
31090SOL     OW99106   7.430   5.621   4.330  0.3589 -0.2330 -0.0069
31090SOL    HW199107   7.440   5.570   4.250 -1.4792 -0.7020  0.0314
31090SOL    HW299108   7.436   5.557   4.401 -1.3150 -0.3354  0.0683
31091SOL     OW99109  11.915   9.476   8.306  0.6354 -0.1594  0.4357
31091SOL    HW199110  11.860   9.399   8.299 -0.9066  0.8394  0.9723
31091SOL    HW299111  11.997   9.444   8.343  0.0902 -1.5515  0.4932
31092SOL     OW99112   3.896   9.774   9.865  0.0919 -0.7985 -0.0671
31092SOL    HW199113   3.922   9.684   9.886 -2.1923 -1.6179 -0.4003
31092SOL    HW299114   3.860   9.809   9.946  0.0600 -0.5549 -0.1854
31093SOL     OW99115   3.131   3.569   2.188  0.6089  0.0462  0.5395
31093SOL    HW199116   3.213   3.555   2.141  0.2428  0.0352 -0.1086
31093SOL    HW299117   3.110   3.484   2.225 -0.3068 -0.5570 -1.2632
31094SOL     OW99118   8.418   1.707   6.458  0.1076 -0.3873 -0.4681
31094SOL    HW199119   8.463   1.672   6.381  0.7326 -2.0960  0.6175
31094SOL    HW299120   8.325   1.701   6.436  0.1932  3.6209 -2.9288
31095SOL     OW99121   6.604   9.690   0.178  0.0045 -0.4141  0.0725
31095SOL    HW199122   6.524   9.703   0.127  0.3028 -1.5146 -0.7119
31095SOL    HW299123   6.633   9.602   0.156  0.1823 -0.9281  2.1341
31096SOL     OW99124   5.029   1.953  11.829 -0.0619 -0.3926 -0.8166
31096SOL    HW199125   5.096   2.022  11.826  0.2582 -0.5682  1.0880
31096SOL    HW299126   5.043   1.910  11.913 -1.8279 -1.2038 -0.8963
31097SOL     OW99127   7.938   3.647   8.480  0.2539 -0.5783  0.5477
31097SOL    HW199128   7.865   3.629   8.420 -0.9445 -1.3089  2.1454
31097SOL    HW299129   7.985   3.719   8.439  0.1883 -1.7681 -1.8393
31098SOL     OW99130  10.175   7.792   3.148 -0.3464  0.2992  0.0266
31098SOL    HW199131  10.228   7.764   3.222 -0.0962  1.3672  0.2670
31098SOL    HW299132  10.112   7.854   3.185 -1.4302 -0.5326 -0.3476
31099SOL     OW99133   5.873  10.207  11.591 -0.0792  0.3588 -0.4342
31099SOL    HW199134   5.905  10.296  11.607 -0.9167  0.6504 -0.3246
31099SOL    HW299135   5.844  10.209  11.500 -0.3371  0.2807 -0.3555
31100SOL     OW99136  10.118   7.639   5.107 -0.7185  0.3044  0.7168
31100SOL    HW199137  10.124   7.651   5.012 -0.2829 -1.5469  0.4715
31100SOL    HW299138  10.180   7.703   5.142 -0.4340  0.6077 -0.2853
31101SOL     OW99139   0.168   2.005   8.835  0.2880  0.5872 -0.8720
31101SOL    HW199140   0.156   1.954   8.755  1.1110  1.5934 -1.6712
31101SOL    HW299141   0.191   2.093   8.803 -0.1718  1.2086  0.4645
31102SOL     OW99142   3.915   4.334   8.836  0.1505 -0.2180 -0.0522
31102SOL    HW199143   3.870   4.414   8.863  0.3518 -0.6668  1.7140
31102SOL    HW299144   3.972   4.362   8.764 -0.1801  1.1225  0.1822
31103SOL     OW99145   9.004  10.960   5.210  0.2857 -0.0359 -0.1577
31103SOL    HW199146   9.026  11.038   5.259  0.9541 -0.4050  0.1367
31103SOL    HW299147   8.941  10.990   5.144  0.0506  0.6211  0.3590
31104SOL     OW99148   1.429   1.912  10.991  0.4521  0.6018 -0.0769
31104SOL    HW199149   1.377   1.859  11.051 -2.1005  2.4175 -0.4900
31104SOL    HW299150   1.478   1.849  10.938 -1.0992 -1.2403  0.5843
31105SOL     OW99151   0.840  10.135   4.523 -0.9453  0.8818  0.3035
31105SOL    HW199152   0.867  10.190   4.597 -0.1835  0.8928  0.0231
31105SOL    HW299153   0.820  10.196   4.453  2.0785  0.8344 -0.7693
31106SOL     OW99154   6.127   1.952   6.974 -0.5210 -0.4262 -0.3995
31106SOL    HW199155   6.206   1.898   6.963 -0.3566 -0.4638  0.8447
31106SOL    HW299156   6.092   1.926   7.059 -2.1795 -0.7661 -1.1609
31107SOL     OW99157   2.874   1.212  10.039  0.3948 -0.1045 -0.4247
31107SOL    HW199158   2.873   1.226   9.944 -0.4194  1.1737 -0.2471
31107SOL    HW299159   2.912   1.292  10.074 -0.5336 -0.0197  0.4042
31108SOL     OW99160   7.773   6.975   5.417 -0.8363 -0.3561 -0.2360
31108SOL    HW199161   7.732   7.055   5.451 -2.5940 -2.0059  1.8902
31108SOL    HW299162   7.739   6.967   5.328 -1.4021  0.7884 -0.1424
31109SOL     OW99163   6.606   1.370   5.713 -0.2845  0.0122  0.0932
31109SOL    HW199164   6.679   1.308   5.714 -0.0887  0.2070 -0.7852
31109SOL    HW299165   6.531   1.320   5.743 -0.1814 -0.7335 -0.8631
31110SOL     OW99166   1.855   3.037  11.080 -0.2680 -0.1037  0.6377
31110SOL    HW199167   1.842   3.002  11.168  0.0469  1.6889  1.4413
31110SOL    HW299168   1.950   3.032  11.066 -0.5324 -3.5293 -1.0499
31111SOL     OW99169   8.407   4.181   2.466  0.4447 -0.1822  0.0458
31111SOL    HW199170   8.451   4.266   2.466  0.3284 -0.1204  1.0639
31111SOL    HW299171   8.413   4.150   2.556  0.2899 -1.1605 -0.2634
31112SOL     OW99172   8.656   8.502   9.485  0.1506 -0.0746 -0.5576
31112SOL    HW199173   8.720   8.516   9.416  0.3275 -0.0590 -0.3930
31112SOL    HW299174   8.657   8.583   9.536  0.1719 -0.1639 -0.4151
31113SOL     OW99175   0.130   7.851   4.054  0.4957  0.2078 -0.6298
31113SOL    HW199176   0.103   7.900   3.975 -0.0126 -0.1349 -0.6762
31113SOL    HW299177   0.099   7.762   4.038 -0.6313  0.3761  0.4390
31114SOL     OW99178   9.634   2.829   3.138 -0.4804 -0.0501 -0.0083
31114SOL    HW199179   9.727   2.839   3.117 -0.3334 -0.6937  0.3145
31114SOL    HW299180   9.612   2.910   3.185 -0.0352  0.0215  0.0875
31115SOL     OW99181   6.173   7.158   1.886 -0.0534  0.8619  0.2708
31115SOL    HW199182   6.185   7.223   1.816 -1.0728  0.4108 -0.3551
31115SOL    HW299183   6.081   7.166   1.910 -0.1751 -0.2919  0.2400
31116SOL     OW99184   4.725   8.309   5.386  0.1521  0.0571  0.2719
31116SOL    HW199185   4.803   8.298   5.332 -1.0969  1.8672 -2.0948
31116SOL    HW299186   4.718   8.228   5.435  2.9610 -0.5415 -0.1507
31117SOL     OW99187   2.859   5.288   3.512  0.5548 -0.1022 -0.1521
31117SOL    HW199188   2.843   5.361   3.452  1.1360 -0.2994 -0.5523
31117SOL    HW299189   2.877   5.330   3.596 -2.0707  0.1474  0.3766
31118SOL     OW99190   4.682  12.077  10.511 -0.2216 -0.1520 -0.0187
31118SOL    HW199191   4.756  12.052  10.567  2.7894  0.6974 -3.1944
31118SOL    HW299192   4.655  11.995  10.469  0.3062 -0.2045 -0.2723
31119SOL     OW99193  12.115   1.081   0.265 -0.0050  0.2688  0.1514
31119SOL    HW199194  12.081   1.117   0.183 -0.1995  0.4484  0.3112
31119SOL    HW299195  12.101   0.987   0.256  1.8928  0.0410 -0.9130
31120SOL     OW99196   8.008   9.858  12.085  0.0779  0.3225  0.4400
31120SOL    HW199197   8.061   9.913  12.027 -1.1091  0.1334 -0.8584
31120SOL    HW299198   7.928   9.841  12.036 -0.5368 -0.6964  1.7399
31121SOL     OW99199   1.521   4.795   1.633 -0.2375  0.1214 -0.3416
31121SOL    HW199200   1.470   4.831   1.560 -0.2051 -0.9596 -0.9185
31121SOL    HW299201   1.457   4.751   1.689 -0.5388  2.5126  1.3291
31122SOL     OW99202   7.289   9.472   5.811 -0.7041 -0.5318  0.3570
31122SOL    HW199203   7.342   9.552   5.806  0.3803 -1.2467  0.3096
31122SOL    HW299204   7.298   9.443   5.901 -0.8963 -0.7421  0.3076
31123SOL     OW99205   3.407   8.257   6.956  0.2358  0.3044  0.1233
31123SOL    HW199206   3.420   8.346   6.924 -2.0637 -0.5554 -3.7381
31123SOL    HW299207   3.320   8.259   6.998  0.1505 -0.1317 -0.0279
31124SOL     OW99208   3.225  11.786   7.644  0.9431  0.5985  0.4086
31124SOL    HW199209   3.227  11.779   7.740 -0.7913 -0.4183  0.4182
31124SOL    HW299210   3.213  11.696   7.614  1.9830  0.8330 -0.8282
31125SOL     OW99211   4.873  11.831   9.342  0.2744 -0.0980  0.0453
31125SOL    HW199212   4.920  11.870   9.416  1.5316 -0.5532 -0.5019
31125SOL    HW299213   4.931  11.763   9.309 -0.3258  0.0010 -1.2837
31126SOL     OW99214   3.328   9.877   4.700 -0.2234  0.2452 -0.1998
31126SOL    HW199215   3.277   9.937   4.755  0.6694  1.0793 -0.2396
31126SOL    HW299216   3.329   9.795   4.749 -0.6554  0.5508  0.3400
31127SOL     OW99217  11.385   4.227   7.110 -0.5690 -0.3068 -0.6244
31127SOL    HW199218  11.429   4.191   7.186 -1.0091 -0.3119 -0.3683
31127SOL    HW299219  11.311   4.169   7.095 -1.4597  0.6467 -0.0248
31128SOL     OW99220   8.827   3.011   9.131 -0.2148  0.2076 -0.4548
31128SOL    HW199221   8.765   3.083   9.146 -3.9055 -2.4259 -1.4203
31128SOL    HW299222   8.811   2.984   9.040  1.1556 -1.6817 -0.1983
31129SOL     OW99223  12.167   9.367   2.925  0.3392 -0.6121 -0.3551
31129SOL    HW199224  12.233   9.298   2.931  0.6677 -0.2847 -0.2216
31129SOL    HW299225  12.210   9.439   2.880  0.8598  0.5244  1.8234
31130SOL     OW99226   3.871   6.331  11.623  0.1803 -0.5228  0.1092
31130SOL    HW199227   3.913   6.409  11.587 -0.8525  0.5069  1.0633
31130SOL    HW299228   3.854   6.352  11.715 -0.5911 -1.6699  0.2620
31131SOL     OW99229  12.292   8.132   6.100 -0.1409 -0.5050 -0.2620
31131SOL    HW199230  12.309   8.194   6.030  1.9110 -0.3032  0.3558
31131SOL    HW299231  12.369   8.138   6.157 -0.0357 -3.2868  0.0356
31132SOL     OW99232   8.030   5.951   8.640  0.4217  0.4146 -0.2802
31132SOL    HW199233   8.028   5.922   8.732  0.0359 -0.7544 -0.6413
31132SOL    HW299234   8.113   5.998   8.632  0.1921  1.0515  0.8128
31133SOL     OW99235   8.984   5.671   3.857 -0.7117 -0.0941 -0.0100
31133SOL    HW199236   8.912   5.612   3.836 -0.7913  0.2436 -0.7172
31133SOL    HW299237   9.057   5.639   3.804 -0.4842 -0.1294  0.3222
31134SOL     OW99238   5.955   6.889   7.635  0.3722 -0.1333  0.2499
31134SOL    HW199239   5.872   6.894   7.682 -0.7231  1.3924 -1.6620
31134SOL    HW299240   6.006   6.823   7.682 -2.2787 -1.8506  0.9242
31135SOL     OW99241   7.376  11.008   8.510  0.1435 -0.1805 -0.1514
31135SOL    HW199242   7.390  11.090   8.558  0.9210  0.8301 -2.0226
31135SOL    HW299243   7.329  11.033   8.431  1.8189 -1.2408 -1.5779
31136SOL     OW99244  10.897   7.574   5.005  0.4152  0.2456  0.2382
31136SOL    HW199245  10.870   7.572   5.097  1.8777  1.4669  0.7295
31136SOL    HW299246  10.898   7.666   4.982  2.2786  0.1415 -0.2937
31137SOL     OW99247  12.054   6.143   9.656 -0.2488  0.0043 -0.5546
31137SOL    HW199248  12.100   6.060   9.660  0.4842  0.4006 -0.5974
31137SOL    HW299249  11.992   6.140   9.729  0.3083 -0.2702 -0.0898
31138SOL     OW99250   5.104   3.066   4.550 -0.2638  0.0086  0.2305
31138SOL    HW199251   5.183   3.042   4.599  0.4167 -0.6185 -1.1282
31138SOL    HW299252   5.134   3.129   4.484 -0.9240 -0.1162 -0.1989
31139SOL     OW99253   7.193   7.258   9.009 -0.3868  0.1276  0.2414
31139SOL    HW199254   7.268   7.204   8.982  0.1110  0.3908  1.0877
31139SOL    HW299255   7.182   7.320   8.937 -0.5824 -0.6954 -0.4672
31140SOL     OW99256   6.120  11.263   3.239 -0.0074 -0.0827  0.1544
31140SOL    HW199257   6.147  11.230   3.325 -0.6007  1.3054  0.9120
31140SOL    HW299258   6.094  11.354   3.255 -1.7752 -0.2932 -1.1582
31141SOL     OW99259   7.439   4.440   7.047  0.3869  0.3279  0.2156
31141SOL    HW199260   7.479   4.437   6.960  0.3384 -0.2011  0.2115
31141SOL    HW299261   7.370   4.374   7.044 -0.5076  1.2394  0.2162
31142SOL     OW99262   8.702  10.719   4.680  0.3726  0.5651  0.4442
31142SOL    HW199263   8.671  10.695   4.768  1.1761 -1.1944  0.2836
31142SOL    HW299264   8.797  10.713   4.686  0.4088 -0.1238 -0.6911
31143SOL     OW99265   5.374   8.289   9.195 -0.2702 -0.7029  0.4822
31143SOL    HW199266   5.289   8.327   9.174 -1.2660 -2.5391  0.9729
31143SOL    HW299267   5.418   8.355   9.248 -0.8726  0.7804 -0.7933
31144SOL     OW99268   5.944   5.090  10.647 -0.2944  0.5427 -0.1081
31144SOL    HW199269   5.943   4.997  10.626 -0.4893  0.1239  1.6077
31144SOL    HW299270   5.982   5.132  10.570 -0.3165 -0.9349 -0.9558
31145SOL     OW99271  12.226   8.865  10.382  0.5407 -0.0720 -0.4224
31145SOL    HW199272  12.196   8.896  10.297 -2.1526 -0.9035  0.1286
31145SOL    HW299273  12.262   8.778  10.366 -0.4639 -0.4489 -0.6412
31146SOL     OW99274   1.031  10.491   6.627 -0.2944  0.4538  0.2588
31146SOL    HW199275   1.081  10.566   6.660 -2.2032  1.8766  0.1217
31146SOL    HW299276   0.964  10.476   6.694 -0.0048 -1.0986  0.2373
31147SOL     OW99277   7.365   8.040   9.799 -0.2292 -0.2817  0.4433
31147SOL    HW199278   7.385   8.045   9.706 -2.0876  0.7954  0.0496
31147SOL    HW299279   7.432   7.982   9.835  0.5617 -0.6755 -1.5370
31148SOL     OW99280   3.599   2.364   6.305  0.5318 -0.1260 -0.1477
31148SOL    HW199281   3.692   2.355   6.286  0.0747 -0.9079 -2.2534
31148SOL    HW299282   3.575   2.449   6.268  0.0640 -0.7287 -1.2843
31149SOL     OW99283   8.235   1.113   4.584  0.1340 -0.2892 -0.7618
31149SOL    HW199284   8.305   1.047   4.575 -0.1511 -0.6741 -0.1625
31149SOL    HW299285   8.274   1.193   4.549  1.1193 -0.3375  0.1664
31150SOL     OW99286   8.456  11.164   4.629  0.2892  0.2040 -0.6376
31150SOL    HW199287   8.520  11.160   4.700  1.9136  0.9911 -1.9725
31150SOL    HW299288   8.419  11.076   4.625  1.6038 -0.3980 -0.0755
31151SOL     OW99289   6.024   9.995   1.956  0.1329 -0.1216  0.1309
31151SOL    HW199290   6.077   9.920   1.930 -0.8809 -0.7638 -0.1677
31151SOL    HW299291   5.935   9.960   1.963 -0.2338  0.8782  0.7879
31152SOL     OW99292   1.506  11.745   7.645  0.3631 -0.0677  0.0252
31152SOL    HW199293   1.415  11.746   7.614  0.5044 -0.0523 -0.3997
31152SOL    HW299294   1.510  11.670   7.704  0.5903 -1.3594 -1.5608
31153SOL     OW99295  12.053   2.519   8.101  0.2648 -0.3813 -0.0904
31153SOL    HW199296  12.122   2.479   8.155  1.1534  0.5536 -0.4931
31153SOL    HW299297  11.972   2.486   8.138  0.8813 -0.3316  1.3797
31154SOL     OW99298   9.535  12.226   4.708 -0.6764  0.4430 -0.5156
31154SOL    HW199299   9.453  12.208   4.661 -0.9574  0.6309 -0.1045
31154SOL    HW299300   9.509  12.285   4.779 -0.5762 -1.1524  0.9058
31155SOL     OW99301   9.527   7.099   7.502 -0.3527  0.6483 -0.6994
31155SOL    HW199302   9.436   7.126   7.502 -0.5116  0.1400 -1.3669
31155SOL    HW299303   9.575   7.175   7.536 -0.9618  1.1050 -0.8527
31156SOL     OW99304  11.230   3.785   1.526 -0.2691 -0.6776  0.2520
31156SOL    HW199305  11.308   3.812   1.575 -0.2991 -3.5734  2.0876
31156SOL    HW299306  11.172   3.862   1.531  2.0486  1.2596 -0.4810
31157SOL     OW99307   2.791   6.890   1.070 -0.2371  0.0110  0.1700
31157SOL    HW199308   2.764   6.978   1.044 -0.7862  0.2267  1.3710
31157SOL    HW299309   2.819   6.848   0.989 -0.6593  1.0508 -0.5372
31158SOL     OW99310   6.638  10.686   5.825  0.0571 -0.5245 -0.0219
31158SOL    HW199311   6.674  10.719   5.907  0.7136 -1.5402  0.1254
31158SOL    HW299312   6.695  10.613   5.802 -0.3720 -0.5179 -1.1688
31159SOL     OW99313  12.131  11.241   6.789  0.0463 -0.3102  0.2759
31159SOL    HW199314  12.219  11.272   6.767  0.2164 -0.7260  0.3550
31159SOL    HW299315  12.112  11.174   6.723 -0.6694  0.5636 -0.4193
31160SOL     OW99316   8.212  10.555   5.490  0.1579 -0.1651  0.4436
31160SOL    HW199317   8.247  10.537   5.577 -0.1583  0.0810  0.6243
31160SOL    HW299318   8.273  10.511   5.430  0.4900 -0.1655  0.7758
31161SOL     OW99319  10.553   7.525   6.176  0.4680  0.0890 -0.0626
31161SOL    HW199320  10.560   7.435   6.208 -0.3557  0.3665  0.9611
31161SOL    HW299321  10.494   7.519   6.101 -2.4942  0.1722  2.0636
31162SOL     OW99322   0.005   5.627   4.913  0.5752  0.5081  0.5867
31162SOL    HW199323  -0.056   5.657   4.980  0.8255  0.7634  0.7048
31162SOL    HW299324  -0.017   5.535   4.899 -1.3188  1.1300 -0.9872
31163SOL     OW99325   6.288  11.079   4.355 -0.6566 -0.0582  0.2550
31163SOL    HW199326   6.361  11.064   4.294 -0.0428  0.4660  0.8495
31163SOL    HW299327   6.321  11.046   4.439  0.5387  3.8792  1.5162
31164SOL     OW99328   8.207  10.103   7.856 -0.1630 -0.0485  0.1922
31164SOL    HW199329   8.246  10.158   7.788  0.0259 -0.0317  0.3133
31164SOL    HW299330   8.146  10.161   7.902 -0.8207 -0.2495 -0.4138
31165SOL     OW99331   5.158  10.898   5.695 -0.1112  0.0137 -0.4948
31165SOL    HW199332   5.230  10.950   5.660 -1.0543  0.9796 -1.0402
31165SOL    HW299333   5.191  10.808   5.695  1.4617  0.5585  0.2663
31166SOL     OW99334  10.935  10.935   1.246  0.0741 -0.3155  0.4447
31166SOL    HW199335  10.905  11.026   1.248 -2.5380 -1.0204 -0.9285
31166SOL    HW299336  10.857  10.884   1.269  0.9068 -2.2568 -0.7696
31167SOL     OW99337   9.462   0.073   2.557 -0.2723 -0.0007 -0.1551
31167SOL    HW199338   9.508   0.051   2.638 -0.8379 -1.3219 -0.1514
31167SOL    HW299339   9.393   0.006   2.550 -0.3024  0.1448 -1.6635
31168SOL     OW99340  11.604   0.170   1.635  0.7746  0.1889  0.0955
31168SOL    HW199341  11.593   0.265   1.639  1.2568  0.2666 -0.3431
31168SOL    HW299342  11.520   0.135   1.664  0.8792  0.7395  1.0828
31169SOL     OW99343   6.108   8.750   0.010 -0.8258  0.0202  0.2871
31169SOL    HW199344   6.153   8.832   0.033 -0.9771 -0.1719  1.3446
31169SOL    HW299345   6.015   8.770   0.021 -0.8910 -0.1531  0.0531
31170SOL     OW99346   3.592  10.455   5.674 -0.8221 -0.1594 -0.3283
31170SOL    HW199347   3.554  10.402   5.603 -2.0341 -0.4993  0.5379
31170SOL    HW299348   3.518  10.502   5.711  0.2236  2.2954 -1.1092
31171SOL     OW99349   8.200   5.287   7.709 -0.1785 -0.3583  0.2327
31171SOL    HW199350   8.147   5.361   7.682  0.3595  0.7485  2.0350
31171SOL    HW299351   8.259   5.272   7.635 -1.0450  0.2650 -0.6120
31172SOL     OW99352   5.485   6.289   0.721 -0.0291  0.0790 -0.0495
31172SOL    HW199353   5.516   6.209   0.678 -0.5616 -1.1770  1.7995
31172SOL    HW299354   5.390   6.287   0.711 -0.1023  0.1076  0.5902
31173SOL     OW99355  11.805   3.920  10.392  0.1983  0.1380 -0.0527
31173SOL    HW199356  11.865   3.988  10.362  0.3969 -0.4812 -1.1191
31173SOL    HW299357  11.859   3.840  10.394  0.0852  0.0730  1.6053
31174SOL     OW99358  11.376   1.168  11.047  0.1165  0.3151  0.1670
31174SOL    HW199359  11.406   1.149  11.136  0.3971  1.1412  0.2623
31174SOL    HW299360  11.312   1.238  11.058  0.1967  0.4599 -0.2896
31175SOL     OW99361   0.145   7.796   9.089  0.2361  0.4789 -0.4280
31175SOL    HW199362   0.236   7.775   9.068  0.8175  0.5016  1.7968
31175SOL    HW299363   0.133   7.886   9.060  0.9682  0.5246 -0.5942
31176SOL     OW99364  11.988   8.793   2.221  0.6424 -0.2813  0.2984
31176SOL    HW199365  12.074   8.750   2.224  1.0473  0.5161  0.2000
31176SOL    HW299366  11.987   8.838   2.136  0.5033  0.4866  0.7035
31177SOL     OW99367  10.849   4.949   2.012 -0.2283 -0.1544 -0.1674
31177SOL    HW199368  10.763   4.943   1.969 -0.7397 -0.1151  0.8371
31177SOL    HW299369  10.885   4.861   2.006  0.0430  0.0153 -1.3399
31178SOL     OW99370   0.393   1.797   8.488 -0.0815 -0.0283 -0.2507
31178SOL    HW199371   0.298   1.790   8.487 -0.1412  0.7113 -0.7907
31178SOL    HW299372   0.424   1.719   8.442 -0.3587 -0.9728  1.0999
31179SOL     OW99373   5.928   7.785   4.288 -0.3431 -0.1567  0.1990
31179SOL    HW199374   5.880   7.742   4.359  1.2530 -0.3161  1.2227
31179SOL    HW299375   5.860   7.832   4.238 -1.7705 -1.6913  0.5986
31180SOL     OW99376   7.312   5.195   4.487 -0.5371  0.1602 -0.1365
31180SOL    HW199377   7.256   5.269   4.464 -2.0473 -0.4065  1.4691
31180SOL    HW299378   7.334   5.209   4.579 -0.6131 -1.2122  0.1172
31181SOL     OW99379  10.648   3.685   7.180 -0.0272 -0.1714 -0.4407
31181SOL    HW199380  10.678   3.597   7.201 -1.0253 -0.7903 -1.5106
31181SOL    HW299381  10.620   3.722   7.264  0.8862 -0.6694  0.0919
31182SOL     OW99382   9.193   1.686   3.692 -0.1219 -0.0347  0.0573
31182SOL    HW199383   9.225   1.600   3.720 -3.2213 -1.4766 -0.4292
31182SOL    HW299384   9.181   1.734   3.774  0.1553 -0.6198  0.4492
31183SOL     OW99385   9.806   8.526   6.948 -0.4104  0.3802  0.2883
31183SOL    HW199386   9.865   8.451   6.946  1.3803  1.7078  0.4159
31183SOL    HW299387   9.720   8.490   6.928  0.7938 -1.3242 -2.4182
31184SOL     OW99388   2.063   9.661  11.759  0.0772 -0.5716 -0.1334
31184SOL    HW199389   2.040   9.596  11.693  1.2792 -0.7513 -0.3850
31184SOL    HW299390   2.033   9.623  11.842  0.0745 -1.0949 -0.3762
31185SOL     OW99391   1.435  10.685   7.509 -0.3348  0.5862 -0.3693
31185SOL    HW199392   1.464  10.767   7.469  0.5679  0.7298  0.5244
31185SOL    HW299393   1.433  10.703   7.602  1.4259 -0.8183  0.0079
31186SOL     OW99394  10.734   9.847   6.249  0.4115 -0.2615 -0.4165
31186SOL    HW199395  10.754   9.933   6.286 -0.8337 -0.4173  0.6605
31186SOL    HW299396  10.693   9.866   6.164  0.3067  0.1950 -0.2621
31187SOL     OW99397  10.628   1.545   9.089 -0.1300 -0.1032 -0.2078
31187SOL    HW199398  10.581   1.606   9.146  0.7319 -0.0300  0.4466
31187SOL    HW299399  10.623   1.461   9.135  0.2293 -0.1305 -0.2194
31188SOL     OW99400   1.638   3.078  10.064 -0.4721 -0.2491  0.5445
31188SOL    HW199401   1.708   3.142  10.078 -0.6391  0.5701 -1.7687
31188SOL    HW299402   1.558   3.131  10.063 -0.5398 -0.2278 -2.1982
31189SOL     OW99403   7.371   3.147  10.969 -0.4990  0.2474 -0.0401
31189SOL    HW199404   7.434   3.079  10.992  0.2161  1.2935  1.2391
31189SOL    HW299405   7.335   3.175  11.054 -1.0146  1.2242 -0.5701
31190SOL     OW99406   5.569   3.131   1.634  0.2573  0.0510 -0.5973
31190SOL    HW199407   5.628   3.190   1.681 -0.7133  1.2154 -0.7758
31190SOL    HW299408   5.611   3.118   1.548  0.0067  1.3218 -0.9321
31191SOL     OW99409   9.076  11.595   3.422 -0.3207 -0.2608  0.0051
31191SOL    HW199410   9.114  11.584   3.509  0.3356 -2.9607 -0.5273
31191SOL    HW299411   9.001  11.536   3.421 -1.4845  1.1870 -0.6528
31192SOL     OW99412   1.693   7.194   5.619 -0.1356 -0.0440  0.5925
31192SOL    HW199413   1.644   7.265   5.577 -0.9031  0.5225  2.3545
31192SOL    HW299414   1.655   7.187   5.706  0.7223 -1.8604  0.8627
31193SOL     OW99415   6.498   5.939   5.075 -0.3803  0.2903  0.1980
31193SOL    HW199416   6.540   5.859   5.105  0.0505 -0.0677 -1.2806
31193SOL    HW299417   6.570   6.000   5.058 -0.6005  0.4658 -0.1283
31194SOL     OW99418  10.604   3.668   8.397 -0.3342  0.2673  0.7428
31194SOL    HW199419  10.600   3.584   8.442  1.4611  0.6554  1.7351
31194SOL    HW299420  10.521   3.710   8.417 -1.3843 -1.3416  0.0072
31195SOL     OW99421   8.883   4.875   2.836  0.1469 -0.2590  0.6298
31195SOL    HW199422   8.801   4.908   2.872 -0.3166 -1.4023  0.6719
31195SOL    HW299423   8.918   4.819   2.906  0.0574 -1.1924 -0.0534
31196SOL     OW99424   1.038   1.374   7.690  0.4298  0.3067 -0.3843
31196SOL    HW199425   1.127   1.408   7.696 -0.1495  1.6434  1.1448
31196SOL    HW299426   1.042   1.309   7.620  2.7073  0.0032 -0.0372
31197SOL     OW99427  11.073  11.734   2.719 -0.3548 -0.5736 -0.2496
31197SOL    HW199428  11.035  11.819   2.699 -0.1449 -0.3328  0.3317
31197SOL    HW299429  11.013  11.695   2.783 -0.3355 -0.7638 -0.3477
31198SOL     OW99430  10.450   9.613   5.277 -0.2439 -0.0341 -0.2721
31198SOL    HW199431  10.499   9.531   5.269 -0.4486 -0.1402 -0.4352
31198SOL    HW299432  10.359   9.586   5.291 -0.4521  0.1588 -1.1912
31199SOL     OW99433  11.218   6.783   2.554 -0.2484  0.1033 -1.1120
31199SOL    HW199434  11.197   6.738   2.636  1.7505 -0.2336 -0.7399
31199SOL    HW299435  11.311   6.764   2.539  1.1603  4.9805 -0.3254
31200SOL     OW99436   1.474   1.506   7.349  0.5278 -0.4491  0.2713
31200SOL    HW199437   1.382   1.486   7.362 -0.1199  0.4047 -2.2888
31200SOL    HW299438   1.474   1.573   7.280  3.0317  0.2750  0.8729
31201SOL     OW99439   0.643   6.531   8.378 -0.0276  0.6060 -0.0859
31201SOL    HW199440   0.693   6.518   8.298 -1.2397 -4.8896 -0.3333
31201SOL    HW299441   0.710   6.540   8.446  1.1449  0.4717 -1.1749
31202SOL     OW99442   3.859   4.167   9.999 -0.1777  0.1191  0.3189
31202SOL    HW199443   3.803   4.112  10.054  1.2290 -1.9412 -0.2068
31202SOL    HW299444   3.948   4.132  10.013  0.3190 -0.0773 -2.7527
31203SOL     OW99445   5.382   1.844   5.591 -0.3966  0.1125  0.1461
31203SOL    HW199446   5.420   1.757   5.590 -2.2377 -0.7391  0.2345
31203SOL    HW299447   5.294   1.832   5.555  0.0671  2.3326 -2.0230
31204SOL     OW99448   0.311   6.903  11.667  0.2306 -0.0846 -0.5505
31204SOL    HW199449   0.294   6.926  11.576 -0.6405  1.1512 -0.0982
31204SOL    HW299450   0.338   6.984  11.708  1.7897 -0.8730  0.0584
31205SOL     OW99451  12.073  11.043   7.844 -0.5655 -0.1354 -0.2626
31205SOL    HW199452  12.044  10.968   7.792 -1.2494 -1.2129  1.5617
31205SOL    HW299453  12.079  11.009   7.933  0.0284  1.7574  0.4681
31206SOL     OW99454  11.361   1.963   7.850  0.6297  0.3705  0.0049
31206SOL    HW199455  11.397   1.874   7.854 -0.6545 -0.1180  2.0056
31206SOL    HW299456  11.283   1.955   7.796  0.9913  0.4874 -0.5462
31207SOL     OW99457   6.707   6.090  10.644 -0.2064  0.1776 -0.1293
31207SOL    HW199458   6.720   5.996  10.653  0.8813  0.4593  1.6662
31207SOL    HW299459   6.764   6.129  10.711 -3.0391  1.9641  1.4540
31208SOL     OW99460  10.888   3.811   5.877 -0.7856 -0.1870 -0.2991
31208SOL    HW199461  10.977   3.825   5.910 -1.0121  1.4166 -0.3088
31208SOL    HW299462  10.887   3.718   5.852  0.8782 -0.2453 -0.2964
31209SOL     OW99463   7.342   4.211  12.284  0.7212  0.1739  0.0560
31209SOL    HW199464   7.322   4.143  12.219 -0.8247  0.8075 -0.1769
31209SOL    HW299465   7.425   4.248  12.255  0.6761 -0.4034 -0.8583
31210SOL     OW99466   1.090  12.177   5.273  0.1408  0.4944  0.5583
31210SOL    HW199467   1.080  12.251   5.332  1.5576  0.8337  0.4254
31210SOL    HW299468   1.005  12.168   5.230  0.1380  2.5142  0.0324
31211SOL     OW99469   5.986   7.983   9.942  0.7112  0.1167  0.1880
31211SOL    HW199470   5.924   8.051   9.969  0.9051  0.2378  0.3368
31211SOL    HW299471   6.018   8.012   9.857  2.0693  1.1111  0.9875
31212SOL     OW99472  10.616   6.505   9.408  0.0975  0.0342  0.3678
31212SOL    HW199473  10.565   6.425   9.423 -0.5582  0.6118  1.2715
31212SOL    HW299474  10.565   6.554   9.343 -0.1497  0.2896  0.7505
31213SOL     OW99475  10.037   9.675   1.136 -0.2580 -0.0795 -0.0887
31213SOL    HW199476   9.953   9.637   1.161  0.0188 -0.2381  0.6206
31213SOL    HW299477  10.026   9.769   1.149 -0.9266  0.1236 -1.7929
31214SOL     OW99478   8.797   7.885   1.728  0.1241 -0.0100  0.5555
31214SOL    HW199479   8.794   7.848   1.817 -0.6589 -0.8554  0.1943
31214SOL    HW299480   8.881   7.930   1.724  0.1430  0.1153  1.7568
31215SOL     OW99481   7.290   5.736   6.279  0.2020 -0.9493 -0.0041
31215SOL    HW199482   7.218   5.769   6.334 -0.4820 -0.2038 -1.2922
31215SOL    HW299483   7.265   5.761   6.190  1.8777 -1.0330 -0.5292
31216SOL     OW99484   4.711  11.088   9.194  0.3148 -0.4006  0.0235
31216SOL    HW199485   4.689  11.013   9.139 -3.2184  0.2831  0.2904
31216SOL    HW299486   4.700  11.164   9.137 -0.2316  0.1291  0.8046
31217SOL     OW99487   4.979   7.374   7.516 -0.0964 -0.4208 -0.3179
31217SOL    HW199488   5.037   7.355   7.442 -0.3372  1.2931 -0.9862
31217SOL    HW299489   5.020   7.448   7.560  0.1456 -1.5249  1.4241
31218SOL     OW99490   0.570   0.167   6.852 -0.3437  0.2334  0.2071
31218SOL    HW199491   0.546   0.196   6.940  0.8055 -2.6071  1.5920
31218SOL    HW299492   0.665   0.179   6.848 -0.3298 -0.0494 -0.4925
31219SOL     OW99493   2.096  10.645   4.659 -0.2497 -0.3664  0.2562
31219SOL    HW199494   2.129  10.575   4.603 -0.7327  1.0780 -1.9439
31219SOL    HW299495   2.028  10.603   4.712 -0.6299 -1.5559 -1.0941
31220SOL     OW99496  10.776   3.771  11.423 -0.1091  0.1269 -0.2452
31220SOL    HW199497  10.702   3.817  11.383 -0.0701 -1.5694 -2.4465
31220SOL    HW299498  10.767   3.789  11.517 -1.1135  3.0346 -0.7870
31221SOL     OW99499   0.453   8.363   3.192  0.1834 -0.5582  0.0182
31221SOL    HW199500   0.480   8.303   3.122  0.4537 -0.3921 -0.0210
31221SOL    HW299501   0.528   8.420   3.205 -0.6645  0.9185 -1.1526
31222SOL     OW99502   5.976  12.063   0.206  0.5379  0.2860  0.4509
31222SOL    HW199503   6.016  11.981   0.176 -2.9116 -1.1641 -0.7546
31222SOL    HW299504   5.999  12.127   0.138  0.9431 -0.4155 -0.0839
31223SOL     OW99505   3.131  11.034   3.894 -0.2725 -0.0440 -0.5170
31223SOL    HW199506   3.140  11.041   3.989  0.7111 -1.1633 -0.5178
31223SOL    HW299507   3.037  11.019   3.880 -0.9674  3.0448  0.0414
31224SOL     OW99508   3.377   7.294   6.064  0.4916  0.2980  0.1481
31224SOL    HW199509   3.315   7.340   6.119 -2.0397 -1.5560 -0.9594
31224SOL    HW299510   3.407   7.360   6.001 -0.4431  1.2172  0.6423
31225SOL     OW99511   7.273   7.149   8.479 -0.0803 -0.1956 -0.3070
31225SOL    HW199512   7.216   7.221   8.508  0.0004 -0.2484 -0.0178
31225SOL    HW299513   7.230   7.070   8.511  1.1972 -0.1444  1.7560
31226SOL     OW99514   6.963   8.334   2.303  0.3759 -0.2867 -0.0927
31226SOL    HW199515   6.990   8.259   2.250 -1.0821  0.1801 -1.5526
31226SOL    HW299516   6.910   8.388   2.245 -1.6334  0.0672  1.9028
31227SOL     OW99517   6.315   9.504  12.204  0.4516 -0.5852  0.4646
31227SOL    HW199518   6.239   9.503  12.263  0.4900 -1.3051  0.5219
31227SOL    HW299519   6.279   9.527  12.119  0.2548 -0.3743  0.6026
31228SOL     OW99520   9.520   7.779   8.084  0.4964 -0.4705 -0.4174
31228SOL    HW199521   9.486   7.729   8.010 -2.0527  0.1343  0.2601
31228SOL    HW299522   9.500   7.870   8.063  0.6626 -0.1976  0.5544
31229SOL     OW99523   7.146   8.856   5.323  0.2571  0.2429 -1.0711
31229SOL    HW199524   7.079   8.835   5.388 -2.7560  0.3923 -3.8110
31229SOL    HW299525   7.140   8.951   5.312  2.2693  0.5247 -0.1434
31230SOL     OW99526   1.007   0.879   6.914  0.2281 -0.1227  0.4396
31230SOL    HW199527   1.042   0.871   6.825  0.1002 -1.3222  0.4752
31230SOL    HW299528   0.938   0.812   6.918 -1.4872  1.5896  0.6388
31231SOL     OW99529   1.101   0.224   5.328 -0.0426 -0.0485  0.4549
31231SOL    HW199530   1.044   0.270   5.390  0.0678  0.0645  0.4729
31231SOL    HW299531   1.189   0.248   5.355  0.0709 -1.2286  1.2308
31232SOL     OW99532   4.845   7.776   3.680 -0.4583 -0.4633 -0.2814
31232SOL    HW199533   4.860   7.868   3.661  0.6737 -0.4504  0.5619
31232SOL    HW299534   4.909   7.730   3.626 -2.0970 -0.8941 -1.9498
31233SOL     OW99535   7.218   7.766  11.907  0.1583 -0.4549 -0.2346
31233SOL    HW199536   7.256   7.728  11.986  1.0938  0.0876 -0.4077
31233SOL    HW299537   7.282   7.750  11.838 -0.5774 -0.7868 -0.8641
31234SOL     OW99538   4.218   1.192   4.081  0.3057 -0.2192  0.4363
31234SOL    HW199539   4.172   1.136   4.144 -4.3388  1.0480 -1.3989
31234SOL    HW299540   4.207   1.281   4.114  0.7130  0.2084 -0.5197
31235SOL     OW99541  10.016  11.427   1.315 -0.2836 -0.4701  0.3787
31235SOL    HW199542  10.091  11.368   1.328  1.1801  0.8711 -1.3925
31235SOL    HW299543   9.957  11.407   1.387  0.2585 -3.8755  0.0421
31236SOL     OW99544   2.632   8.028   4.355 -0.3673  0.6093  0.1384
31236SOL    HW199545   2.550   8.074   4.370 -1.7673 -1.3445 -0.9215
31236SOL    HW299546   2.656   7.992   4.440 -1.0742  0.5165  0.3028
31237SOL     OW99547   7.864   4.619   7.801 -0.0184 -0.5038 -0.0600
31237SOL    HW199548   7.784   4.578   7.768  1.1543 -1.5191 -1.7590
31237SOL    HW299549   7.889   4.564   7.876 -1.2942  0.2946  1.0063
31238SOL     OW99550   1.475  11.583  12.246  0.6451  0.1135 -0.5123
31238SOL    HW199551   1.557  11.536  12.262  0.6871 -0.2672 -1.7501
31238SOL    HW299552   1.446  11.611  12.333  1.6039 -0.5571  0.0399
31239SOL     OW99553   4.954  12.109   6.180 -0.5104  0.2035  0.2818
31239SOL    HW199554   4.934  12.093   6.272  0.4963  0.1476  0.4962
31239SOL    HW299555   4.982  12.024   6.146 -1.6895  0.0279 -0.3045
31240SOL     OW99556  10.652   8.634  12.075 -0.3860  0.6875 -0.1577
31240SOL    HW199557  10.745   8.658  12.067 -0.7006  2.0713  0.0697
31240SOL    HW299558  10.639   8.624  12.169 -0.6907  1.4814 -0.1108
31241SOL     OW99559   2.141   8.179   4.519  0.1899 -0.4851  0.1558
31241SOL    HW199560   2.083   8.189   4.444 -0.7071  0.2705  0.9253
31241SOL    HW299561   2.084   8.153   4.591  1.2600 -2.8520  0.2356
31242SOL     OW99562   6.888   0.822   3.182 -0.0206 -0.2239  0.5614
31242SOL    HW199563   6.903   0.903   3.231 -0.4187  0.4189 -0.3546
31242SOL    HW299564   6.968   0.810   3.130  0.5630 -1.1131  1.6213
31243SOL     OW99565   9.707   9.290   8.220  0.6113  0.1872  0.2977
31243SOL    HW199566   9.770   9.259   8.155  0.1038  0.1442 -0.1799
31243SOL    HW299567   9.718   9.385   8.221  1.2824  0.1043  0.8399
31244SOL     OW99568   4.941   4.920   1.811 -0.3553 -0.0711  0.2532
31244SOL    HW199569   5.020   4.957   1.772  0.2174  0.3724  1.7829
31244SOL    HW299570   4.870   4.957   1.759  0.3404  1.0242  0.0445
31245SOL     OW99571   1.376   5.117   1.446 -0.2364  0.1590  0.0429
31245SOL    HW199572   1.411   5.124   1.535 -2.7813 -0.3265  1.1679
31245SOL    HW299573   1.294   5.166   1.449  0.1215  1.0609 -2.3880
31246SOL     OW99574   8.267   3.130   3.898 -0.3350  0.1901  0.2611
31246SOL    HW199575   8.307   3.054   3.856 -2.3743 -1.9308  1.9128
31246SOL    HW299576   8.305   3.133   3.985 -1.5174 -0.0433  0.8077
31247SOL     OW99577   7.124   5.308  11.790  0.1101  0.2980  0.2614
31247SOL    HW199578   7.211   5.346  11.798  0.2240 -0.0301  0.6184
31247SOL    HW299579   7.139   5.213  11.785 -0.1895  0.2770 -0.2636
31248SOL     OW99580   9.090   9.280  11.135 -0.0393  0.0106 -0.6891
31248SOL    HW199581   9.013   9.251  11.184  1.1940 -0.2208  1.2393
31248SOL    HW299582   9.163   9.265  11.195  1.1893  3.0735 -1.2298
31249SOL     OW99583   7.311   7.508   1.574 -0.2304  0.0306  0.0675
31249SOL    HW199584   7.384   7.536   1.519 -0.2838 -0.2611 -0.1519
31249SOL    HW299585   7.256   7.586   1.583  1.3770  1.0430  2.3310
31250SOL     OW99586   3.126  10.017   9.862  0.0156  0.2418 -0.6698
31250SOL    HW199587   3.193  10.000   9.795  0.5097 -1.4243  0.1806
31250SOL    HW299588   3.097   9.930   9.888  0.1782  0.8142  1.5951
31251SOL     OW99589   4.126   0.300   1.539 -0.3135 -0.0462  0.2848
31251SOL    HW199590   4.140   0.222   1.593 -2.9967 -0.5857  0.3682
31251SOL    HW299591   4.159   0.275   1.452 -0.9138 -1.2162  0.3709
31252SOL     OW99592  10.252  11.830   5.694 -0.0463  0.2568 -0.1049
31252SOL    HW199593  10.214  11.783   5.620 -0.5493 -0.4574  0.5981
31252SOL    HW299594  10.204  11.913   5.698 -0.7542 -0.1553  0.0743
31253SOL     OW99595   3.529  11.530   6.077 -0.4782 -0.3809  0.7256
31253SOL    HW199596   3.440  11.519   6.045 -0.8433 -1.0245  1.9297
31253SOL    HW299597   3.533  11.479   6.158  0.0112  2.2464  2.4966
31254SOL     OW99598   8.076   3.882   8.311 -0.4706  0.1640  0.3018
31254SOL    HW199599   8.167   3.889   8.283 -0.9291  3.2340 -0.8483
31254SOL    HW299600   8.071   3.936   8.389 -1.8111  2.6231 -1.3654
31255SOL     OW99601  11.805   6.057   7.370  0.2302  0.2843 -0.4367
31255SOL    HW199602  11.755   6.060   7.451 -0.7579  0.9230 -1.0452
31255SOL    HW299603  11.836   5.967   7.364 -3.6199 -1.2069 -1.6126
31256SOL     OW99604   0.610   2.674   6.329 -0.0567 -0.4614  0.2170
31256SOL    HW199605   0.549   2.746   6.342 -0.0018 -0.3992  0.1331
31256SOL    HW299606   0.556   2.601   6.301 -0.3731 -0.9996  2.0812
31257SOL     OW99607  10.325   9.926  11.514 -0.3628  0.4248  0.3679
31257SOL    HW199608  10.341   9.919  11.420 -0.3782  0.8180  0.3319
31257SOL    HW299609  10.301   9.838  11.542 -1.3889  0.5221 -0.1896
31258SOL     OW99610   8.047   2.489   5.194  0.4215  0.8576 -0.3124
31258SOL    HW199611   8.058   2.461   5.285 -0.9596 -1.3879 -0.7683
31258SOL    HW299612   8.093   2.423   5.143 -0.7638  0.7844 -1.3320
31259SOL     OW99613   0.218   0.809   6.972 -0.3661  0.0167  0.0762
31259SOL    HW199614   0.157   0.735   6.977 -1.2103  0.7163  0.4232
31259SOL    HW299615   0.220   0.832   6.879  0.2503 -0.7255 -0.0964
31260SOL     OW99616  12.210   8.685   6.601 -0.4865 -0.4217  0.4469
31260SOL    HW199617  12.216   8.679   6.506  0.7300  1.2853  0.3552
31260SOL    HW299618  12.258   8.608   6.633 -1.5220 -1.4016 -0.2821
31261SOL     OW99619   6.901   2.566   4.000 -0.3429 -0.1305 -0.2710
31261SOL    HW199620   6.859   2.566   4.085  1.0510 -0.2308  0.4456
31261SOL    HW299621   6.834   2.533   3.940 -1.2691 -0.2631  0.8092
31262SOL     OW99622   2.583   4.674   2.219  0.2371 -0.3248 -0.5786
31262SOL    HW199623   2.495   4.657   2.185 -0.4222  0.7145  0.5245
31262SOL    HW299624   2.635   4.696   2.142 -0.4280 -1.0724 -1.2582
31263SOL     OW99625   3.054  10.701  10.737  0.1031 -0.1426  0.3627
31263SOL    HW199626   3.008  10.677  10.818 -0.9611 -1.6015 -0.6288
31263SOL    HW299627   3.135  10.650  10.740  0.6105  0.6720  1.0182
31264SOL     OW99628   6.795  10.001   1.904  0.7763 -0.2614 -0.3708
31264SOL    HW199629   6.755  10.059   1.969 -1.8922 -2.4221  0.1159
31264SOL    HW299630   6.811   9.919   1.952  1.9891 -0.7956 -1.6352
31265SOL     OW99631  10.604  12.151   3.082 -0.1079 -0.1266  0.1851
31265SOL    HW199632  10.583  12.160   3.175  0.6612 -1.7635  0.5412
31265SOL    HW299633  10.664  12.223   3.064 -0.5817  0.4467  0.8467
31266SOL     OW99634   4.360   0.006   6.490  0.0030 -0.0222 -0.1287
31266SOL    HW199635   4.294  -0.047   6.444 -0.1038 -0.3343  0.3715
31266SOL    HW299636   4.443  -0.022   6.452 -0.1527  0.4153 -0.8058
31267SOL     OW99637   6.179   1.165   7.123 -0.5388 -0.3890  0.1033
31267SOL    HW199638   6.260   1.116   7.112 -0.9881 -1.3930  1.0823
31267SOL    HW299639   6.145   1.137   7.208 -2.2068 -0.4294 -0.5331
31268SOL     OW99640   0.177   0.742   1.521 -0.5100  0.1802  0.2617
31268SOL    HW199641   0.124   0.821   1.531  0.8621  0.9239  2.3422
31268SOL    HW299642   0.176   0.701   1.608  1.3701 -0.3756  0.0699
31269SOL     OW99643   8.411  11.267   7.273  0.3625  0.0220  0.3590
31269SOL    HW199644   8.344  11.336   7.276 -1.5654 -1.3713 -3.2812
31269SOL    HW299645   8.392  11.211   7.348 -0.6687  1.2226  1.0389
31270SOL     OW99646   1.495   8.230   1.257  0.6795 -0.1383 -0.6046
31270SOL    HW199647   1.441   8.269   1.188 -0.8135 -0.1560  0.5149
31270SOL    HW299648   1.530   8.305   1.305  0.8795 -0.1447 -0.7368
31271SOL     OW99649   2.708   3.824   5.770  0.5452  0.2259  0.4307
31271SOL    HW199650   2.743   3.752   5.718  1.2533  0.5272  0.4794
31271SOL    HW299651   2.785   3.863   5.812  0.2265  1.3078  0.0292
31272SOL     OW99652   3.600   7.329   2.575 -0.6260  0.6820  0.0980
31272SOL    HW199653   3.673   7.337   2.636 -0.2466 -0.0384 -0.2546
31272SOL    HW299654   3.638   7.345   2.489 -0.7648 -0.2733 -0.1479
31273SOL     OW99655   0.809   4.389   1.743 -0.1807 -0.4219  0.2383
31273SOL    HW199656   0.819   4.472   1.698 -1.0999  0.5077  1.6838
31273SOL    HW299657   0.897   4.370   1.777  0.1809 -0.4047 -0.6445
31274SOL     OW99658   0.464  11.395   8.323  0.0842 -0.2605 -0.2166
31274SOL    HW199659   0.417  11.370   8.244  0.3593 -0.1225 -0.4260
31274SOL    HW299660   0.547  11.349   8.317  0.4264  0.3726 -0.4021
31275SOL     OW99661   5.997  11.578   0.293  0.2754 -0.2233 -0.1632
31275SOL    HW199662   5.902  11.574   0.303  0.3039 -1.0767 -0.1828
31275SOL    HW299663   6.026  11.487   0.303  1.0847  0.0248 -0.2006
31276SOL     OW99664   2.652  11.931   7.470 -0.6767  0.5994  0.3159
31276SOL    HW199665   2.657  12.026   7.477 -0.9447  0.7194 -1.0037
31276SOL    HW299666   2.738  11.900   7.498  0.3567  1.3914 -1.8166
31277SOL     OW99667   4.868   1.216  12.023  0.5071 -0.1310  0.2627
31277SOL    HW199668   4.775   1.239  12.029  0.1588 -1.3771 -0.2042
31277SOL    HW299669   4.890   1.230  11.931  0.3448 -1.4398  0.0178
31278SOL     OW99670   1.064   8.860   9.329  0.1622  0.1374  0.0702
31278SOL    HW199671   1.089   8.771   9.355 -1.3407  0.2247  2.0659
31278SOL    HW299672   1.042   8.853   9.236  1.6303 -1.1984 -0.2206
31279SOL     OW99673  11.044   1.664   1.289  0.3976  0.2798  0.1046
31279SOL    HW199674  11.016   1.579   1.323 -1.2641 -0.3106 -2.4674
31279SOL    HW299675  10.970   1.722   1.306  0.1375  0.3307 -1.1519
31280SOL     OW99676   7.518   9.178   4.871 -0.6327 -0.1413  0.6709
31280SOL    HW199677   7.556   9.229   4.942 -1.3263  0.8849  0.3333
31280SOL    HW299678   7.588   9.170   4.806 -1.0222  1.9364 -0.0558
31281SOL     OW99679  11.712   9.631   4.321  0.1012  0.1268 -0.3757
31281SOL    HW199680  11.774   9.630   4.394 -0.6523 -0.1024  0.2764
31281SOL    HW299681  11.767   9.630   4.243  0.9192 -1.8181  0.1755
31282SOL     OW99682  11.231   4.576   6.815 -0.2574 -0.5676  0.1153
31282SOL    HW199683  11.233   4.672   6.819  0.7409 -0.6135  1.6947
31282SOL    HW299684  11.318   4.552   6.784 -0.3917 -0.9745  0.0529
31283SOL     OW99685   3.287   5.256   5.437 -0.2865  0.1248  0.0855
31283SOL    HW199686   3.219   5.257   5.370 -0.1039 -2.2994 -0.2253
31283SOL    HW299687   3.315   5.347   5.445 -2.7230  1.0087 -0.6155
31284SOL     OW99688   5.144  11.937   9.796  0.1343 -0.5493  0.2441
31284SOL    HW199689   5.142  11.933   9.892  0.1615  1.8109  0.4176
31284SOL    HW299690   5.235  11.960   9.775  0.1529 -1.1570 -0.3576
31285SOL     OW99691   8.963   7.997   3.041  0.2771  0.1336  0.0551
31285SOL    HW199692   8.969   7.987   3.136  1.3309 -0.4292 -0.0504
31285SOL    HW299693   8.968   7.907   3.008  0.4966  0.3665 -0.5530
31286SOL     OW99694  11.013   4.880   4.934  0.2916  0.5734  0.7134
31286SOL    HW199695  11.096   4.902   4.891 -0.0413  0.6672  0.0996
31286SOL    HW299696  11.011   4.935   5.012 -1.1777  4.0222 -1.4815
31287SOL     OW99697  10.230  11.274   6.163 -0.2582  0.2785  0.3303
31287SOL    HW199698  10.219  11.320   6.246 -1.5199  0.8134 -0.1062
31287SOL    HW299699  10.287  11.200   6.184  1.7689  1.9361  1.0647
31288SOL     OW99700   4.951   3.912   7.524  0.5049  0.3322  0.3178
31288SOL    HW199701   4.924   3.850   7.457  2.4184 -0.1033 -0.0987
31288SOL    HW299702   4.876   3.916   7.584 -0.7003 -0.3074 -1.0826
31289SOL     OW99703  11.220  11.427  11.584  0.3380  0.4847  0.0461
31289SOL    HW199704  11.291  11.486  11.556 -0.0582  0.8703 -0.1619
31289SOL    HW299705  11.140  11.479  11.572  0.1624  0.8747  2.4199
31290SOL     OW99706  11.925   2.872  11.143 -0.0528  0.0678 -0.0948
31290SOL    HW199707  11.861   2.918  11.088  1.0094  3.3692  1.1763
31290SOL    HW299708  12.008   2.884  11.097  0.4160  0.4026  0.8351
31291SOL     OW99709   0.012   1.165   1.173  0.5089 -0.5996 -0.0369
31291SOL    HW199710   0.003   1.076   1.205  0.3152 -0.6193 -0.1468
31291SOL    HW299711  -0.043   1.169   1.095 -1.2049  0.2164  1.1485
31292SOL     OW99712   8.003  11.814   9.409 -0.8452  0.0808  0.5486
31292SOL    HW199713   7.988  11.892   9.356 -3.1624 -1.2066 -0.8682
31292SOL    HW299714   8.059  11.758   9.355  0.5141  0.5553  1.4102
31293SOL     OW99715   2.152   5.872  11.681 -0.1426 -0.0399  0.1040
31293SOL    HW199716   2.064   5.842  11.704  0.5679 -1.0082  1.7149
31293SOL    HW299717   2.194   5.891  11.764  1.9798 -2.0064 -0.3989
31294SOL     OW99718  10.730   8.924  10.588  0.4308  0.2426 -0.8070
31294SOL    HW199719  10.722   9.010  10.547  2.5982  1.1449  0.4857
31294SOL    HW299720  10.821   8.899  10.572 -0.1678 -1.8779 -1.2041
31295SOL     OW99721   3.893   2.126  11.308 -0.7449  0.0206 -0.1304
31295SOL    HW199722   3.912   2.217  11.330 -0.0147  0.1176 -1.0580
31295SOL    HW299723   3.919   2.076  11.385 -1.2306  0.6008  0.4190
31296SOL     OW99724   7.212   7.595   8.069  0.2250  0.3352 -0.1404
31296SOL    HW199725   7.178   7.571   8.155 -0.2252  0.2631 -0.3344
31296SOL    HW299726   7.148   7.559   8.007  1.1776 -0.6740 -0.5556
31297SOL     OW99727  11.705  10.548   6.484  0.0671  0.2510 -0.1048
31297SOL    HW199728  11.662  10.599   6.552 -0.5723  0.1980 -0.4599
31297SOL    HW299729  11.651  10.470   6.475  1.8791 -1.2976  1.5325
31298SOL     OW99730   7.262   7.897   4.217  0.4197 -0.0053  0.7076
31298SOL    HW199731   7.182   7.845   4.210  0.6758 -0.4707  1.1785
31298SOL    HW299732   7.315   7.869   4.141 -0.0119  0.5720  0.1886
31299SOL     OW99733   9.298   9.358   9.592 -0.0700 -0.6707  0.0820
31299SOL    HW199734   9.390   9.360   9.566 -0.1557 -0.8558 -0.2386
31299SOL    HW299735   9.280   9.447   9.621 -0.4049  0.0037 -1.9995
31300SOL     OW99736   3.613  12.137  10.688  0.1990 -0.9801  0.4561
31300SOL    HW199737   3.673  12.063  10.676  0.5728 -0.8505  1.4813
31300SOL    HW299738   3.567  12.144  10.604  1.8967 -0.8327 -0.5128
31301SOL     OW99739   8.329   0.238   9.015 -0.0882  0.3262 -0.1944
31301SOL    HW199740   8.417   0.212   9.041 -0.6095  0.8243  2.3806
31301SOL    HW299741   8.335   0.333   9.005 -0.1498  0.2583 -0.9415
31302SOL     OW99742  11.481   7.405  11.101 -0.2074  0.3214  0.4949
31302SOL    HW199743  11.418   7.475  11.084 -0.5713  0.4391  2.1602
31302SOL    HW299744  11.466   7.341  11.032 -2.0660  0.4103  0.7839
31303SOL     OW99745   8.898  11.008   5.642  0.1014  0.2576 -0.3807
31303SOL    HW199746   8.955  11.079   5.671  1.6172 -1.0255 -0.1064
31303SOL    HW299747   8.955  10.947   5.596 -1.0588 -1.0142 -0.2238
31304SOL     OW99748   3.533   6.919   3.202  0.1659 -0.4702  0.4191
31304SOL    HW199749   3.482   6.913   3.283 -0.6639  0.5303 -0.0138
31304SOL    HW299750   3.547   7.013   3.189  2.1920 -0.7062  0.5416
31305SOL     OW99751   2.904   4.361  10.167 -0.3936  0.5377  0.2744
31305SOL    HW199752   2.904   4.295  10.235  1.9337 -1.1616 -1.2075
31305SOL    HW299753   2.821   4.349  10.121 -1.2640  0.6301  1.7857
31306SOL     OW99754   0.436   7.839   0.610 -0.0793 -0.1165  0.5718
31306SOL    HW199755   0.356   7.859   0.658  0.4098  0.8027  1.0308
31306SOL    HW299756   0.484   7.779   0.668  0.3242  0.6718  1.0814
31307SOL     OW99757   5.960   9.570  10.035 -0.0428 -0.3568 -0.3401
31307SOL    HW199758   5.894   9.509  10.003  0.0669  0.2941 -1.9034
31307SOL    HW299759   5.935   9.588  10.125 -0.9266 -1.5488 -0.3352
31308SOL     OW99760   5.519   6.506  10.954  0.3049  0.8427 -0.1007
31308SOL    HW199761   5.549   6.457  10.877  0.2457 -0.1277  0.4891
31308SOL    HW299762   5.505   6.440  11.021 -2.2746  1.3309 -0.0503
31309SOL     OW99763   9.503  10.312  12.047 -0.0964 -0.7901 -0.7208
31309SOL    HW199764   9.437  10.289  11.981 -0.7227  0.9020 -0.7336
31309SOL    HW299765   9.453  10.322  12.127  0.4930 -1.6036 -0.2319
31310SOL     OW99766   7.850   0.194   7.646  0.0925  0.1414  0.1723
31310SOL    HW199767   7.776   0.195   7.707 -0.2329 -1.2376 -0.1541
31310SOL    HW299768   7.915   0.138   7.688  0.3180  0.1086 -0.2176
31311SOL     OW99769  11.154  10.439   7.789  0.2560  0.2118 -0.2800
31311SOL    HW199770  11.170  10.346   7.809 -0.0711  0.1746 -0.1848
31311SOL    HW299771  11.144  10.480   7.875 -1.8225 -0.0689 -0.3197
31312SOL     OW99772   8.937  12.264  10.494  0.4135  0.0902 -0.4978
31312SOL    HW199773   9.022  12.300  10.518  0.3386 -0.2000  0.2321
31312SOL    HW299774   8.896  12.242  10.577  0.7434 -2.3330 -0.8947
31313SOL     OW99775   4.566   6.412   6.812 -0.1233 -0.0281 -0.2992
31313SOL    HW199776   4.641   6.359   6.785 -0.3699 -0.5519  0.0207
31313SOL    HW299777   4.601   6.476   6.872 -0.1497 -1.2427  1.0729
31314SOL     OW99778   3.619   5.275   2.820 -0.1902  0.8574 -0.3276
31314SOL    HW199779   3.564   5.233   2.886  0.8856  0.9937  0.6873
31314SOL    HW299780   3.566   5.273   2.740 -0.6758 -1.2776 -0.0122
31315SOL     OW99781  11.091   2.431   9.497  0.1583  0.0445 -0.6909
31315SOL    HW199782  11.098   2.338   9.478 -1.2790 -0.3600  0.5575
31315SOL    HW299783  11.138   2.474   9.425  1.3994 -1.6355 -0.9518
31316SOL     OW99784  11.821   6.583   5.095  0.1748 -0.1570  0.4755
31316SOL    HW199785  11.888   6.624   5.040  0.6350 -1.3969  0.0721
31316SOL    HW299786  11.778   6.520   5.037  0.2273 -1.0250  1.3551
31317SOL     OW99787   0.816   7.007   9.593 -0.0933 -0.1999  0.5522
31317SOL    HW199788   0.876   6.949   9.639  0.1629  0.1338  0.6457
31317SOL    HW299789   0.730   6.983   9.625 -0.0172 -0.7121  0.3884
31318SOL     OW99790   1.115   1.478   9.107  0.1505 -0.6226  0.4146
31318SOL    HW199791   1.081   1.412   9.168  0.5392 -0.0237  1.3000
31318SOL    HW299792   1.037   1.512   9.063 -0.0876 -1.3996  0.2115
31319SOL     OW99793   3.927   5.595  11.594  0.3674  0.5448 -0.1242
31319SOL    HW199794   3.935   5.528  11.526 -2.1053 -0.2317  0.2614
31319SOL    HW299795   3.961   5.554  11.673 -1.1161 -0.3085  0.1058
31320SOL     OW99796  10.073   2.657  10.585  0.3497  0.6083  0.4195
31320SOL    HW199797   9.984   2.668  10.620  0.4635 -0.2966  1.0200
31320SOL    HW299798  10.068   2.577  10.533  0.9359  0.2549  0.8959
31321SOL     OW99799   2.209   0.443   5.554 -0.1734 -0.2755  0.4063
31321SOL    HW199800   2.138   0.465   5.614 -0.0848  1.6299 -0.1272
31321SOL    HW299801   2.286   0.485   5.592  0.0406  0.2682 -0.5931
31322SOL     OW99802  11.438  11.016   3.814  0.4782 -0.2871 -0.1820
31322SOL    HW199803  11.521  11.025   3.861 -0.0720 -0.1827  0.7946
31322SOL    HW299804  11.435  11.093   3.758  1.1253 -0.3825 -0.3545
31323SOL     OW99805   7.887   6.703   7.344 -0.4063  0.5008  0.0910
31323SOL    HW199806   7.805   6.675   7.385 -0.0400 -0.7826 -0.0109
31323SOL    HW299807   7.953   6.689   7.412 -0.0014 -0.2744 -0.4550
31324SOL     OW99808   4.543   3.926   0.361  0.1272  0.3604  0.2187
31324SOL    HW199809   4.551   3.834   0.334 -0.3874  0.5646 -0.6513
31324SOL    HW299810   4.620   3.969   0.325  0.7867  0.1331  1.2979
31325SOL     OW99811   8.189  10.583  11.973 -0.0322  0.0218  0.5125
31325SOL    HW199812   8.160  10.553  12.059  0.2456  0.7579  0.8710
31325SOL    HW299813   8.221  10.504  11.930 -2.9935 -0.9888 -0.1200
31326SOL     OW99814   3.194   6.015  12.153 -0.4100  0.6076 -0.5270
31326SOL    HW199815   3.244   6.091  12.123 -0.3117  0.5225 -0.5772
31326SOL    HW299816   3.210   5.948  12.087  1.9279 -0.4647  1.0010
31327SOL     OW99817   3.386   8.876   4.370 -0.1128 -0.2670  0.8455
31327SOL    HW199818   3.314   8.819   4.343  1.1431 -1.5032 -0.0288
31327SOL    HW299819   3.443   8.821   4.422 -0.2251  0.9504  2.3366
31328SOL     OW99820   8.641   8.802   0.117  0.0657 -0.2349 -0.5722
31328SOL    HW199821   8.674   8.830   0.202  1.4069  1.1392 -1.4772
31328SOL    HW299822   8.546   8.813   0.123  0.0053 -1.3885  1.1264
31329SOL     OW99823   6.150   7.967   7.704 -0.4844 -0.0048 -0.0387
31329SOL    HW199824   6.209   8.013   7.645  0.0810 -2.0881 -1.2247
31329SOL    HW299825   6.202   7.953   7.784 -1.0439  2.2771  0.7969
31330SOL     OW99826   8.520   1.550   9.968  0.2607  0.2928 -0.0162
31330SOL    HW199827   8.587   1.616   9.985  1.5399 -1.2853  1.5482
31330SOL    HW299828   8.452   1.567  10.034 -0.4822  1.3404 -1.0223
31331SOL     OW99829   4.849   1.230   6.387  0.1877  0.0723  0.2491
31331SOL    HW199830   4.774   1.273   6.346  0.3652 -0.1993 -0.3608
31331SOL    HW299831   4.812   1.150   6.425  0.5000 -1.0912 -1.7758
31332SOL     OW99832   0.505   2.994   8.905  0.4773 -0.1925  0.1286
31332SOL    HW199833   0.473   3.066   8.959 -0.2975 -0.8227  0.5430
31332SOL    HW299834   0.560   3.035   8.838 -1.4253  1.0007 -0.7925
31333SOL     OW99835  10.657   4.291   1.403 -0.0078  0.3492  0.1202
31333SOL    HW199836  10.628   4.347   1.475  1.1417  1.5333 -0.3120
31333SOL    HW299837  10.696   4.215   1.447 -1.0502  0.1230  0.7123
31334SOL     OW99838   4.018   0.165   3.868 -0.0831  0.0852  0.1769
31334SOL    HW199839   3.981   0.229   3.807  1.4476  1.2713  0.4281
31334SOL    HW299840   4.096   0.132   3.823 -0.0407 -0.4994  0.6669
31335SOL     OW99841   4.937   8.407   7.423 -0.1696  0.4747  0.2645
31335SOL    HW199842   4.967   8.330   7.472 -1.6483  0.1760  0.7534
31335SOL    HW299843   5.007   8.471   7.435  1.3647 -0.9525 -0.6299
31336SOL     OW99844   9.605   8.115   8.500 -0.1328  0.1718 -0.2067
31336SOL    HW199845   9.618   8.055   8.427 -1.0543 -0.4649  0.1403
31336SOL    HW299846   9.689   8.160   8.509  0.5636 -1.0354 -0.4939
31337SOL     OW99847   1.485  10.230   6.283 -0.5444 -0.1815  0.3311
31337SOL    HW199848   1.498  10.324   6.295  1.3722 -0.2579 -0.7538
31337SOL    HW299849   1.558  10.190   6.331  0.7643 -0.9155 -2.1241
31338SOL     OW99850  11.954   4.014   9.815 -0.5383  0.5362 -0.3575
31338SOL    HW199851  12.040   4.024   9.775 -0.8211  0.6104 -0.9676
31338SOL    HW299852  11.925   3.927   9.788 -0.1962  0.0638  0.7606
31339SOL     OW99853  11.606   1.598   6.503  0.3458 -0.2394  0.3519
31339SOL    HW199854  11.609   1.662   6.574 -1.4101  0.2526  0.0322
31339SOL    HW299855  11.620   1.648   6.423 -0.2793 -0.3547  0.1610
31340SOL     OW99856   2.239   8.102   9.519 -0.0920  0.3171  0.1552
31340SOL    HW199857   2.240   8.137   9.430 -1.1684  0.1691  0.0733
31340SOL    HW299858   2.313   8.041   9.521  1.4284  2.0650  0.1107
31341SOL     OW99859   5.672  10.841   7.237 -0.1438 -0.0153  0.2034
31341SOL    HW199860   5.653  10.823   7.145 -0.1543 -0.5533  0.3022
31341SOL    HW299861   5.671  10.936   7.245 -1.3771  0.0041 -0.0874
31342SOL     OW99862   3.873  11.897   5.704  0.1194  0.1280  0.5700
31342SOL    HW199863   3.846  11.987   5.721 -2.1484 -0.0353 -1.5490
31342SOL    HW299864   3.802  11.861   5.651  2.6062 -1.8206 -1.6913
31343SOL     OW99865   2.352   6.726   8.168 -0.2533 -0.2747 -0.0262
31343SOL    HW199866   2.356   6.644   8.217 -1.8669 -1.2591 -1.4299
31343SOL    HW299867   2.295   6.707   8.094 -2.3665  2.6691  0.6570
31344SOL     OW99868   3.078   2.716   2.759 -0.2550 -0.3959 -0.5077
31344SOL    HW199869   3.020   2.737   2.832 -1.2933 -0.2054 -1.3603
31344SOL    HW299870   3.104   2.625   2.774 -0.6902 -0.4527 -0.0547
31345SOL     OW99871  10.709   2.507   5.675 -0.0335 -0.0310 -0.3012
31345SOL    HW199872  10.762   2.477   5.601 -1.7460 -1.8506 -0.8742
31345SOL    HW299873  10.620   2.485   5.651 -0.9764  1.8655  1.1521
31346SOL     OW99874   0.406   8.008   9.226  0.5555 -0.0487  0.1054
31346SOL    HW199875   0.478   7.967   9.274  0.6013  1.9416  1.9058
31346SOL    HW299876   0.334   8.010   9.289 -0.9928 -1.5312 -1.4896
31347SOL     OW99877  11.905  10.018   1.103 -0.0614 -0.4307 -0.0394
31347SOL    HW199878  11.846  10.086   1.070  1.4654 -0.3099 -2.7781
31347SOL    HW299879  11.926  10.045   1.192 -4.3993 -0.7269  1.3064
31348SOL     OW99880   6.514   2.613   5.996  1.0753 -0.1030 -0.4526
31348SOL    HW199881   6.535   2.567   6.077  0.3959  2.0732  1.0550
31348SOL    HW299882   6.594   2.605   5.943  2.1970 -0.0856  1.1590
31349SOL     OW99883   0.754   1.602   0.764  0.0117 -0.5052 -0.3645
31349SOL    HW199884   0.775   1.553   0.844 -1.4898 -0.7036 -0.0588
31349SOL    HW299885   0.821   1.670   0.758 -0.3487  0.0715  1.5614
31350SOL     OW99886   6.453   3.738   7.945 -0.2168  0.2091  0.4680
31350SOL    HW199887   6.495   3.758   7.862  1.6399  0.7609  1.4875
31350SOL    HW299888   6.469   3.815   8.000 -1.5976 -0.0435  1.2684
31351SOL     OW99889   7.692  10.452   5.227 -0.1178 -0.1613  0.2655
31351SOL    HW199890   7.677  10.504   5.306  0.6520  0.9780 -0.3088
31351SOL    HW299891   7.787  10.439   5.224 -0.1789 -0.5376 -0.2698
31352SOL     OW99892   3.226   5.366   8.584 -0.1225  0.2303  0.1973
31352SOL    HW199893   3.220   5.347   8.491  0.1764  1.1553 -0.0237
31352SOL    HW299894   3.197   5.286   8.627  1.3413 -0.8177 -0.6742
31353SOL     OW99895  12.229   4.097   1.008 -0.4946 -0.3009 -0.2863
31353SOL    HW199896  12.242   4.185   1.043 -2.7375  1.1132 -2.6535
31353SOL    HW299897  12.274   4.097   0.924 -1.8704 -0.7965 -1.0661
31354SOL     OW99898   8.179   5.478   2.276 -0.4404  0.4044  0.0215
31354SOL    HW199899   8.134   5.557   2.306 -0.0286  0.2695  1.0341
31354SOL    HW299900   8.148   5.465   2.186 -2.0697  0.5674  0.5355
31355SOL     OW99901   1.457   7.971  12.311 -0.0491 -0.1172 -0.4086
31355SOL    HW199902   1.471   7.973  12.216  0.4883  1.0183 -0.3147
31355SOL    HW299903   1.524   8.029  12.347 -1.4042  0.9443  0.5194
31356SOL     OW99904   6.304   7.039   4.441 -0.3148 -0.0648 -0.6588
31356SOL    HW199905   6.347   7.079   4.365 -0.8169  1.7611 -0.0333
31356SOL    HW299906   6.219   7.083   4.445 -0.9640 -1.3298  0.0107
31357SOL     OW99907   1.206  10.580  10.189 -0.4596 -0.5176 -0.2031
31357SOL    HW199908   1.160  10.641  10.247  0.5245 -0.5490  0.6374
31357SOL    HW299909   1.299  10.603  10.199 -0.2718 -0.3486 -1.9681
31358SOL     OW99910   5.755  10.258  11.101 -0.3886 -0.5566  0.0586
31358SOL    HW199911   5.713  10.336  11.066  1.9045  0.1499 -1.3104
31358SOL    HW299912   5.803  10.288  11.178  0.7972 -0.4845 -0.6794
31359SOL     OW99913   7.779   7.365  11.034  0.4212  0.1480 -0.3107
31359SOL    HW199914   7.811   7.350  11.122 -1.7625  0.1919  0.5479
31359SOL    HW299915   7.855   7.350  10.978  1.4446 -1.5669  1.4295
31360SOL     OW99916   6.443   8.943   2.598  0.1638 -0.4262 -0.2064
31360SOL    HW199917   6.528   8.973   2.564  1.7952 -2.4744  1.7171
31360SOL    HW299918   6.424   9.003   2.670 -0.0020 -0.0057 -0.5959
31361SOL     OW99919   5.189  10.286   8.285 -0.3216  0.2833  0.2567
31361SOL    HW199920   5.195  10.374   8.322  0.4630 -0.0494  0.9534
31361SOL    HW299921   5.220  10.228   8.355  2.3781 -0.2676 -1.2817
31362SOL     OW99922   4.226   7.567  11.669  0.2770 -0.0234 -0.5473
31362SOL    HW199923   4.187   7.592  11.753 -0.1984 -2.1137 -0.0796
31362SOL    HW299924   4.318   7.547  11.690 -0.2061 -2.1053 -0.1022
31363SOL     OW99925   6.088  10.257   8.597 -0.1280 -0.3491 -0.2988
31363SOL    HW199926   6.010  10.222   8.554  1.6014 -2.2735 -2.1342
31363SOL    HW299927   6.145  10.181   8.609  1.9477  1.1279 -0.1140
31364SOL     OW99928   8.113   2.307  11.339 -0.0232 -0.0318 -0.2889
31364SOL    HW199929   8.139   2.370  11.272 -0.5393  0.0854 -0.3762
31364SOL    HW299930   8.018   2.312  11.342  0.0207  0.4883  0.9539
31365SOL     OW99931   0.334   7.376   3.048 -0.6870  0.3011  0.0425
31365SOL    HW199932   0.382   7.318   3.108 -1.4580  2.6430  3.2063
31365SOL    HW299933   0.394   7.448   3.030 -1.8501  1.7952  1.6892
31366SOL     OW99934  10.770  11.602  10.672 -0.0782 -0.5809 -0.0671
31366SOL    HW199935  10.834  11.666  10.641  0.6603 -1.3327 -0.1404
31366SOL    HW299936  10.692  11.618  10.619 -0.4104  1.2007  0.8942
31367SOL     OW99937   5.472  12.084  10.687 -0.5215 -0.8818 -0.2646
31367SOL    HW199938   5.500  12.075  10.778 -1.2406  1.0898  0.2123
31367SOL    HW299939   5.552  12.071  10.636  0.1455 -0.7784  0.7281
31368SOL     OW99940   9.213   9.708   6.667  0.2357  0.2510  0.0663
31368SOL    HW199941   9.265   9.665   6.599 -0.4314 -0.0776 -0.2466
31368SOL    HW299942   9.249   9.673   6.749  0.5957  0.1298 -0.1364
31369SOL     OW99943   0.502   6.852  10.004  0.0417 -0.5370 -0.1999
31369SOL    HW199944   0.433   6.805   9.958 -0.0051 -0.4136 -0.2555
31369SOL    HW299945   0.491   6.943   9.977  1.4058 -0.7759 -1.6866
31370SOL     OW99946  10.087   8.193   1.702  0.6430  0.0296 -0.0997
31370SOL    HW199947  10.167   8.143   1.688  0.2952 -0.3083 -0.9244
31370SOL    HW299948  10.109   8.254   1.773  1.2557 -0.8583  0.4860
31371SOL     OW99949   3.346   9.414   4.049 -0.4583  0.0312 -0.1339
31371SOL    HW199950   3.397   9.494   4.035  0.8327 -0.8328 -0.5059
31371SOL    HW299951   3.404   9.357   4.099 -0.1619 -1.8256 -2.4156
31372SOL     OW99952   8.643   8.290   7.520 -0.2418  0.5446 -0.3849
31372SOL    HW199953   8.556   8.317   7.548 -0.5403  0.3685 -1.1344
31372SOL    HW299954   8.686   8.260   7.601 -0.9641  0.3899 -0.0560
31373SOL     OW99955  11.308  10.922   6.219  0.0206 -0.0780 -0.2806
31373SOL    HW199956  11.380  10.973   6.256  0.1270 -0.5605  0.1910
31373SOL    HW299957  11.348  10.873   6.147  0.0256  0.1412 -0.4257
31374SOL     OW99958  10.150  10.697   2.255 -0.2659 -0.4834 -0.5986
31374SOL    HW199959  10.140  10.603   2.242 -0.0947 -0.8633  1.6445
31374SOL    HW299960  10.079  10.735   2.204 -1.8011 -2.0126  0.2571
31375SOL     OW99961   4.417   5.684   5.708 -0.2605  0.3076  0.0178
31375SOL    HW199962   4.386   5.735   5.633 -0.5988  3.1170  1.9316
31375SOL    HW299963   4.456   5.748   5.767  2.5246 -2.1204  1.1047
31376SOL     OW99964   1.365   7.857   3.254 -0.0572  0.4977 -0.3538
31376SOL    HW199965   1.388   7.941   3.213  0.1588  0.8244  0.4032
31376SOL    HW299966   1.295   7.822   3.200 -1.6297  2.1777  0.4767
31377SOL     OW99967   4.265   0.857   8.505  0.3750  0.2707  0.0848
31377SOL    HW199968   4.258   0.802   8.427 -0.1808 -0.0075  0.3210
31377SOL    HW299969   4.356   0.849   8.532  0.8129  1.1177 -1.0681
31378SOL     OW99970  10.755   0.965   6.235 -0.1978 -0.7980  0.2683
31378SOL    HW199971  10.708   1.002   6.160 -0.7335 -0.4554  0.7676
31378SOL    HW299972  10.703   0.888   6.259  0.9157 -1.9420 -0.7792
31379SOL     OW99973   6.435   5.743   3.176  0.3073 -0.0206 -0.2275
31379SOL    HW199974   6.472   5.655   3.190 -1.0794 -0.5257  0.4177
31379SOL    HW299975   6.366   5.730   3.111 -0.8020  0.3277  0.8494
31380SOL     OW99976   1.342   9.003   8.943 -0.7611 -0.0037  0.0378
31380SOL    HW199977   1.314   8.974   9.029 -0.4379 -1.6428 -0.3760
31380SOL    HW299978   1.397   9.080   8.960 -1.3261  0.1573  1.2150
31381SOL     OW99979   3.658  12.154  11.617  0.2716  0.1380 -0.3524
31381SOL    HW199980   3.741  12.119  11.649  0.7063 -0.0354 -1.6037
31381SOL    HW299981   3.627  12.211  11.687  0.4615 -1.3217  0.9634
31382SOL     OW99982   7.208   7.532  10.048  1.0394 -0.7746  0.1371
31382SOL    HW199983   7.234   7.442  10.030  1.6325 -0.9428  1.6831
31382SOL    HW299984   7.262   7.585   9.991  1.2060 -1.3674 -0.2587
31383SOL     OW99985   3.502   9.428   0.436 -0.3425  0.6881 -0.0896
31383SOL    HW199986   3.589   9.425   0.395 -0.6503  0.7949 -0.7690
31383SOL    HW299987   3.504   9.506   0.490  0.6958 -0.4186  1.5628
31384SOL     OW99988   1.747  10.591   1.250 -0.1475 -0.6105 -0.2744
31384SOL    HW199989   1.755  10.498   1.232 -0.0191 -0.4055 -1.3601
31384SOL    HW299990   1.736  10.597   1.345  1.2998 -1.6291 -0.0081
31385SOL     OW99991   1.570  10.664   4.504  0.1346  0.1827  0.4833
31385SOL    HW199992   1.511  10.713   4.561  0.5754  0.9610  0.2884
31385SOL    HW299993   1.591  10.584   4.554 -0.8879  0.0027  0.6439
31386SOL     OW99994   8.460   3.036   0.131 -0.8255  0.0442  0.1515
31386SOL    HW199995   8.490   3.100   0.066  0.4724 -1.8166 -1.1878
31386SOL    HW299996   8.502   3.064   0.213  2.3191 -0.7330 -1.0497
31387SOL     OW99997   3.663  10.036   2.523 -0.0536  0.2253  0.7293
31387SOL    HW199998   3.679  10.106   2.460  0.3781  0.4868  1.1221
31387SOL    HW299999   3.700  10.068   2.605 -1.1600  0.1381  1.2677
31388SOL     OW    0  10.679   2.147   7.290  0.4440  0.3489 -0.6175
31388SOL    HW1    1  10.749   2.093   7.327  0.5862  0.8547 -0.1463
31388SOL    HW2    2  10.655   2.207   7.361  0.0171  0.6440 -1.0107
31389SOL     OW    3  11.211  11.550   3.435  0.5278  0.0682 -0.6092
31389SOL    HW1    4  11.122  11.516   3.447  0.4451  0.9269  2.0499
31389SOL    HW2    5  11.202  11.645   3.447  1.9346  0.0342  1.2772
31390SOL     OW    6   9.344  11.569   1.331  0.2428 -0.1769  0.1905
31390SOL    HW1    7   9.386  11.572   1.417 -1.3092 -1.2295  1.0413
31390SOL    HW2    8   9.256  11.603   1.346  0.3777  0.9404 -1.3066
31391SOL     OW    9  11.775   5.273   2.001 -0.2758 -0.1077 -0.0383
31391SOL    HW1   10  11.802   5.359   1.970 -0.2404 -0.0240  0.2189
31391SOL    HW2   11  11.693   5.290   2.048 -0.5326 -0.2898 -0.4176
31392SOL     OW   12   1.955   7.987   6.115 -0.4552 -0.7837  0.2690
31392SOL    HW1   13   2.009   7.950   6.045  0.7273 -3.6877  2.5103
31392SOL    HW2   14   1.865   7.963   6.091 -0.2345 -0.5595 -0.8527
31393SOL     OW   15   6.690   4.805   5.737 -0.0621 -0.2601 -0.0475
31393SOL    HW1   16   6.729   4.775   5.818  1.5703 -1.8876 -1.3595
31393SOL    HW2   17   6.607   4.757   5.731 -0.7317  0.6905  1.1299
31394SOL     OW   18   4.733   0.685   7.522  0.3982  0.2391 -0.0867
31394SOL    HW1   19   4.658   0.628   7.541  2.1133 -1.6565  1.5977
31394SOL    HW2   20   4.708   0.771   7.555 -0.4722 -0.7340  1.9150
31395SOL     OW   21   3.102  11.929   0.912  0.1450  0.0003 -0.3468
31395SOL    HW1   22   3.167  11.904   0.978 -1.6933 -0.7692  1.2696
31395SOL    HW2   23   3.117  12.022   0.899 -1.0182  0.8575  3.1885
31396SOL     OW   24   7.274   7.178  10.389  0.2457  0.5727  0.7959
31396SOL    HW1   25   7.237   7.090  10.392 -0.3801  0.7160 -1.1827
31396SOL    HW2   26   7.198   7.235  10.377  0.8782  0.9712 -2.1776
31397SOL     OW   27   7.873   7.303   0.397  0.7392 -0.0828  0.5050
31397SOL    HW1   28   7.968   7.288   0.391  1.0533  1.9639 -1.4994
31397SOL    HW2   29   7.836   7.246   0.330  0.7648  0.3258  0.1363
31398SOL     OW   30   2.253   2.352  11.091  0.2236 -0.8050  0.0475
31398SOL    HW1   31   2.187   2.375  11.026 -0.1733  3.0961  1.5358
31398SOL    HW2   32   2.336   2.354  11.042 -0.3294 -1.0242 -0.9226
31399SOL     OW   33   7.066   9.503   3.251  0.0797  0.3268 -0.0280
31399SOL    HW1   34   7.067   9.591   3.214  0.9512 -0.3964 -1.8128
31399SOL    HW2   35   7.025   9.449   3.184 -1.8353 -0.4289  1.6377
31400SOL     OW   36   2.922   1.876  11.171  0.8509 -0.4253 -0.4801
31400SOL    HW1   37   2.889   1.937  11.105 -1.2280 -0.1910  0.6970
31400SOL    HW2   38   2.990   1.925  11.218  2.3077 -0.5643 -2.3063
31401SOL     OW   39   3.130  12.048   4.861 -0.5649  0.0644  1.0238
31401SOL    HW1   40   3.137  12.045   4.765  0.6523 -0.5233  1.1042
31401SOL    HW2   41   3.082  12.129   4.879  1.4809  1.6161 -0.0219
31402SOL     OW   42   6.400   2.174  10.264  0.4767  0.4958  0.4881
31402SOL    HW1   43   6.495   2.168  10.262  0.5147  1.1704  0.1021
31402SOL    HW2   44   6.381   2.240  10.330  0.2197 -0.5015  1.4529
31403SOL     OW   45   0.506  10.714   6.303 -0.0735 -0.2724  0.4925
31403SOL    HW1   46   0.465  10.799   6.318  0.4793 -0.1721  1.4560
31403SOL    HW2   47   0.557  10.697   6.382  0.7925 -0.9426 -0.1938
31404SOL     OW   48  10.603   8.558   0.026  0.2262  0.0018  0.5734
31404SOL    HW1   49  10.560   8.562   0.112  0.9484 -1.2296  1.0309
31404SOL    HW2   50  10.639   8.469   0.022  1.6218  0.5744 -0.3127
31405SOL     OW   51  11.704   4.828   2.763  0.0684  0.0669  0.3065
31405SOL    HW1   52  11.721   4.868   2.678  0.2261 -1.3418 -0.3597
31405SOL    HW2   53  11.673   4.900   2.818 -1.5077  0.7275 -1.3611
31406SOL     OW   54  11.984   3.394  11.715 -0.1163  0.4403  0.2159
31406SOL    HW1   55  12.000   3.302  11.694 -2.1181  0.3620 -1.2851
31406SOL    HW2   56  11.894   3.395  11.750  0.1426  1.7409  0.8989
31407SOL     OW   57   2.831  12.151  12.250 -0.1013 -0.3547 -0.2730
31407SOL    HW1   58   2.815  12.164  12.344  0.9344  1.3517 -0.2724
31407SOL    HW2   59   2.895  12.080  12.246  1.9248  1.2916  0.5710
31408SOL     OW   60   2.453   1.327   0.535  0.2341  0.2140  0.2334
31408SOL    HW1   61   2.410   1.408   0.563  0.9755  0.8919 -0.5324
31408SOL    HW2   62   2.546   1.349   0.528  0.4682 -0.7334  0.1144
31409SOL     OW   63   5.570   5.991   2.973  0.1569  0.5426 -0.0639
31409SOL    HW1   64   5.564   5.896   2.967  0.2034  0.5525 -0.3146
31409SOL    HW2   65   5.653   6.007   3.018  1.1938  0.4777 -1.8168
31410SOL     OW   66   8.160   0.806   6.618  0.3069  0.1792  0.0402
31410SOL    HW1   67   8.231   0.826   6.678 -0.6576 -0.1211  1.3283
31410SOL    HW2   68   8.080   0.815   6.671 -0.5168 -1.0903 -0.9155
31411SOL     OW   69   6.565  11.782   7.579  0.1152  0.2749 -0.2178
31411SOL    HW1   70   6.619  11.853   7.543  0.3479  0.6808  0.8899
31411SOL    HW2   71   6.529  11.738   7.502 -1.9230  2.9911 -1.0140
31412SOL     OW   72  11.363   1.845  11.979  0.3275 -0.1051  0.4164
31412SOL    HW1   73  11.316   1.894  12.048 -0.6805 -0.9792  0.3672
31412SOL    HW2   74  11.297   1.830  11.911  1.1033  0.0215 -0.3799
31413SOL     OW   75   1.915   0.307  11.342 -0.4017 -0.3066 -0.0734
31413SOL    HW1   76   1.907   0.323  11.248 -0.3870 -0.9979 -0.2039
31413SOL    HW2   77   1.834   0.260  11.364  0.3332 -1.6471 -0.0927
31414SOL     OW   78   4.924  12.063   1.273 -0.1914  0.4074 -0.0986
31414SOL    HW1   79   4.982  12.135   1.251  0.1632  0.2089  0.1922
31414SOL    HW2   80   4.836  12.098   1.259 -0.0010  0.1500 -2.3663
31415SOL     OW   81   2.163   3.095   3.076  0.0519  0.6019 -0.1167
31415SOL    HW1   82   2.166   3.191   3.079 -1.0606  0.6767 -0.8488
31415SOL    HW2   83   2.091   3.075   3.017 -0.2661 -0.7036  0.6781
31416SOL     OW   84   1.565   8.799  10.913 -0.5441  0.8735 -0.1367
31416SOL    HW1   85   1.473   8.825  10.910 -1.0584 -0.5667  1.6594
31416SOL    HW2   86   1.600   8.845  10.989 -0.4004 -0.3846  0.5779
31417SOL     OW   87   4.376   4.124   0.462 -0.4502  0.6967 -0.0637
31417SOL    HW1   88   4.344   4.172   0.386 -0.1639 -0.6714 -1.0788
31417SOL    HW2   89   4.438   4.061   0.427 -0.2054  0.1212  1.3308
31418SOL     OW   90   8.657   4.106   1.813 -0.1932  0.2867  0.5786
31418SOL    HW1   91   8.653   4.071   1.724  3.4131  0.4883  0.1709
31418SOL    HW2   92   8.746   4.087   1.842 -0.7142  1.7405  3.5272
31419SOL     OW   93  12.164   3.997  11.571  0.0907  0.4788  0.1406
31419SOL    HW1   94  12.085   3.958  11.534 -0.0707 -0.5800  1.5301
31419SOL    HW2   95  12.231   3.986  11.504 -0.3644 -0.7212 -0.1262
31420SOL     OW   96   5.052   4.463   7.006  0.3798  0.1481 -0.5523
31420SOL    HW1   97   4.994   4.394   6.976  0.0489 -0.6735  1.7349
31420SOL    HW2   98   5.130   4.417   7.036  0.8907  0.9380 -0.6518
31421SOL     OW   99   1.344   9.138   6.861 -0.3116  0.5973  0.3458
31421SOL    HW1  100   1.429   9.128   6.905  0.3729  0.3793 -0.9716
31421SOL    HW2  101   1.365   9.185   6.780 -1.4854  0.6749  0.0707
31422SOL     OW  102  10.791   7.514   3.781 -0.0320  0.0849  0.2001
31422SOL    HW1  103  10.867   7.505   3.839  1.1524 -0.1788 -1.3380
31422SOL    HW2  104  10.827   7.544   3.698 -1.5724 -0.4458 -0.7032
31423SOL     OW  105   9.075  10.660   1.928  0.4467  0.5637  0.3978
31423SOL    HW1  106   9.044  10.738   1.882  0.2773  0.6318  0.6254
31423SOL    HW2  107   9.128  10.613   1.864  1.4330  1.3968  0.5839
31424SOL     OW  108  11.222   1.098   7.485  0.4779  0.1855 -0.4471
31424SOL    HW1  109  11.268   1.180   7.503  1.2297  0.8278 -4.4149
31424SOL    HW2  110  11.269   1.032   7.537  0.3951  2.0229  2.1467
31425SOL     OW  111   0.376   0.370   2.580 -0.2227 -0.0759 -0.0273
31425SOL    HW1  112   0.377   0.438   2.648  1.8088  1.3771 -1.3748
31425SOL    HW2  113   0.329   0.409   2.507  0.1544 -0.4739 -0.4904
31426SOL     OW  114   6.759   5.477   2.528 -0.0070 -0.4465  0.1477
31426SOL    HW1  115   6.852   5.464   2.509  0.4101  1.5445  0.6344
31426SOL    HW2  116   6.737   5.558   2.483 -1.0939 -0.0484  1.3630
31427SOL     OW  117   4.819   4.942   9.432  0.4571  0.3381  0.3409
31427SOL    HW1  118   4.735   4.896   9.438  0.6459  0.0854  1.1644
31427SOL    HW2  119   4.845   4.932   9.340 -0.1402 -0.0732  0.2103
31428SOL     OW  120  10.305   2.698  10.396  0.2097 -0.0968 -0.4144
31428SOL    HW1  121  10.373   2.673  10.459  0.3947 -0.5621 -0.7949
31428SOL    HW2  122  10.228   2.717  10.450 -0.0491 -1.8355 -0.1145
31429SOL     OW  123   7.484  10.634   3.010 -0.0208  0.2354 -0.5883
31429SOL    HW1  124   7.405  10.675   2.975  0.4907  0.5983 -1.3406
31429SOL    HW2  125   7.548  10.705   3.014  0.7577 -0.3877 -1.5270
31430SOL     OW  126   0.592   7.288   4.064  0.2788 -0.4485 -0.0969
31430SOL    HW1  127   0.614   7.264   3.975 -2.0921 -1.7164 -0.4346
31430SOL    HW2  128   0.635   7.223   4.119  0.7187 -0.4077 -0.3920
31431SOL     OW  129  12.251  11.733   9.182 -0.3183 -0.3176  0.1191
31431SOL    HW1  130  12.273  11.687   9.263 -1.0161 -0.2807  0.3384
31431SOL    HW2  131  12.189  11.674   9.138  0.3499 -0.5171 -0.5792
31432SOL     OW  132   0.509  10.860   6.793  0.0254  0.1548 -0.6949
31432SOL    HW1  133   0.427  10.822   6.822  0.2951  1.2824  1.7860
31432SOL    HW2  134   0.524  10.822   6.707 -3.4807  0.5358 -1.6252
31433SOL     OW  135   8.707   5.625   1.896  0.2193 -0.4124  0.3207
31433SOL    HW1  136   8.621   5.653   1.864  0.3399  0.2409  0.5477
31433SOL    HW2  137   8.769   5.661   1.833  0.2709 -1.9613 -0.5593
31434SOL     OW  138   9.412  11.632   8.950  0.4486  0.3610 -0.0118
31434SOL    HW1  139   9.326  11.630   8.992  0.3451 -1.4033 -0.2459
31434SOL    HW2  140   9.458  11.703   8.995 -0.4467  0.0388  1.5089
31435SOL     OW  141  11.716   3.487   9.313  0.2808  0.5638  0.0515
31435SOL    HW1  142  11.782   3.446   9.257 -0.1784 -1.3874  0.8382
31435SOL    HW2  143  11.634   3.442   9.290 -0.6010  2.1757 -0.1392
31436SOL     OW  144   5.274   9.256   5.644  0.2260  0.2556  0.4550
31436SOL    HW1  145   5.309   9.320   5.707  0.7980 -0.1493  0.5497
31436SOL    HW2  146   5.210   9.306   5.593  1.1377  1.0815  0.0857
31437SOL     OW  147   9.433   7.453   3.561  0.3206  0.1767  0.5779
31437SOL    HW1  148   9.487   7.523   3.598 -0.5863  1.0357  0.3278
31437SOL    HW2  149   9.356   7.498   3.526 -1.7524 -1.2043  3.0188
31438SOL     OW  150  10.024   6.326  11.916 -0.2223 -0.6266  0.4116
31438SOL    HW1  151   9.929   6.336  11.921 -0.0186  1.3728  1.4175
31438SOL    HW2  152  10.058   6.416  11.915  1.6694 -1.2854  0.0798
31439SOL     OW  153  10.785  10.386   2.074 -0.0172  0.6238 -1.1692
31439SOL    HW1  154  10.826  10.309   2.112 -0.5122  0.3239 -1.2329
31439SOL    HW2  155  10.751  10.435   2.150  3.0781  2.4848 -0.7908
31440SOL     OW  156   6.261  11.130   5.681 -0.7475  0.5601  0.6346
31440SOL    HW1  157   6.310  11.192   5.734  0.2983  0.8590 -0.6247
31440SOL    HW2  158   6.170  11.139   5.711 -0.2145  0.7689  2.2766
31441SOL     OW  159   0.637   7.868   5.750 -0.2705 -0.2546 -0.3059
31441SOL    HW1  160   0.692   7.865   5.672  0.1854  1.2422 -0.0750
31441SOL    HW2  161   0.555   7.907   5.721  0.2423  1.1921  0.1292
31442SOL     OW  162   4.337  11.259   0.320 -0.0747  0.4968  0.3190
31442SOL    HW1  163   4.346  11.283   0.412 -0.0783  0.7292  0.2597
31442SOL    HW2  164   4.424  11.231   0.293  0.2377  1.6792  0.0439
31443SOL     OW  165   2.311  12.160   7.453  0.1048 -0.0482  0.3138
31443SOL    HW1  166   2.375  12.143   7.522  1.4373  0.6078 -0.7226
31443SOL    HW2  167   2.346  12.235   7.405 -1.3200  0.1710 -0.4465
31444SOL     OW  168   3.168   8.602   3.993  0.2607  0.2581 -0.3008
31444SOL    HW1  169   3.086   8.627   3.951  1.4723  1.6932 -1.9484
31444SOL    HW2  170   3.142   8.538   4.059 -1.9308 -1.0332 -2.2511
31445SOL     OW  171   9.643   3.625   2.356 -0.0581 -0.0635  0.4526
31445SOL    HW1  172   9.558   3.629   2.312 -0.3672 -0.1798  1.0293
31445SOL    HW2  173   9.627   3.572   2.434  0.7809 -0.9290  0.0521
31446SOL     OW  174   2.626   5.499   8.592 -0.2806  0.0282  0.2254
31446SOL    HW1  175   2.615   5.493   8.497 -1.4559  1.4477  0.2389
31446SOL    HW2  176   2.587   5.418   8.626 -0.1399 -0.3429 -0.4693
31447SOL     OW  177   7.934   4.530  11.100 -0.1835  0.0373 -0.1237
31447SOL    HW1  178   7.930   4.609  11.155  0.3790 -0.9380  1.3806
31447SOL    HW2  179   8.025   4.525  11.072  0.0673 -0.7247  0.7971
31448SOL     OW  180   1.303  11.018   5.812 -0.3621  0.5674 -0.6603
31448SOL    HW1  181   1.320  11.005   5.905  0.3646 -0.7740 -0.9505
31448SOL    HW2  182   1.236  10.953   5.790 -0.8285  1.1533 -0.9945
31449SOL     OW  183   2.777   3.210   6.532  0.1230  0.0995  0.6783
31449SOL    HW1  184   2.826   3.228   6.452 -0.4521  0.0664  0.3076
31449SOL    HW2  185   2.714   3.282   6.538 -0.8115 -0.6655  0.3001
31450SOL     OW  186   2.937  11.417   0.790  0.1290 -0.0133 -0.0003
31450SOL    HW1  187   2.933  11.409   0.885 -0.6621  1.2359  0.0982
31450SOL    HW2  188   2.987  11.498   0.775  1.8934 -1.1740 -0.7088
31451SOL     OW  189   2.966   9.056   8.736  0.4429  0.5706 -0.4702
31451SOL    HW1  190   3.027   9.078   8.665  1.4292  0.2757  0.2669
31451SOL    HW2  191   2.973   8.961   8.745 -1.0902  0.3654 -1.2151
31452SOL     OW  192   9.596  12.210  11.804 -0.2200  0.0016 -0.3345
31452SOL    HW1  193   9.639  12.278  11.857 -3.2464  0.7667  1.4012
31452SOL    HW2  194   9.591  12.248  11.716  2.9143 -0.3441 -0.7717
31453SOL     OW  195   2.057   1.227   9.780 -0.0329 -0.1539  0.3250
31453SOL    HW1  196   2.105   1.309   9.764 -0.2030  0.7165  3.6237
31453SOL    HW2  197   2.074   1.174   9.702  1.1207  2.5040 -1.3947
31454SOL     OW  198   7.028   5.409   1.858 -0.0683 -0.0094 -0.0401
31454SOL    HW1  199   7.070   5.346   1.800 -3.8500 -0.9260 -2.1550
31454SOL    HW2  200   6.981   5.354   1.922 -2.7923  0.5077 -1.4396
31455SOL     OW  201   1.879   6.844   4.817 -0.4287  0.3058  0.2312
31455SOL    HW1  202   1.796   6.805   4.790 -0.2942  0.1830 -0.0036
31455SOL    HW2  203   1.892   6.917   4.756 -0.3016  0.2469  0.1873
31456SOL     OW  204   7.361  10.756   8.215  0.0008  0.2526 -0.4088
31456SOL    HW1  205   7.314  10.839   8.210  2.8556  2.0930  0.5634
31456SOL    HW2  206   7.344  10.714   8.131  0.0265  2.7686 -1.7685
31457SOL     OW  207   5.781   2.055   8.607  0.6241  0.2341  0.3503
31457SOL    HW1  208   5.830   2.061   8.689  0.0254 -2.3620  0.9941
31457SOL    HW2  209   5.722   2.131   8.609  1.9604  1.2926  1.3472
31458SOL     OW  210  11.754   2.064   5.051  0.5880 -0.1529  0.4864
31458SOL    HW1  211  11.740   2.033   4.961  1.0450 -0.9392  0.6763
31458SOL    HW2  212  11.707   2.002   5.106  0.1176  0.4616  0.7855
31459SOL     OW  213   0.342   0.874   2.367 -0.0426  0.1189  0.1929
31459SOL    HW1  214   0.266   0.877   2.309  0.6306  0.6930 -0.6940
31459SOL    HW2  215   0.396   0.948   2.339  1.6666 -1.2928 -0.3790
31460SOL     OW  216   3.548   6.933   1.016  0.0331 -0.4270  0.0021
31460SOL    HW1  217   3.624   6.929   0.957 -0.0523  0.7269 -0.2088
31460SOL    HW2  218   3.586   6.924   1.104  0.5631  1.0635 -0.0354
31461SOL     OW  219   5.003   4.840   2.085 -0.3552  0.1818  0.1698
31461SOL    HW1  220   4.950   4.860   2.008 -0.5041 -0.3781  0.1296
31461SOL    HW2  221   5.078   4.900   2.078 -0.0753 -0.2483 -0.7123
31462SOL     OW  222   8.995   8.700   6.432 -0.2962 -0.2327 -0.2788
31462SOL    HW1  223   9.025   8.776   6.482  0.3522 -0.3588 -0.4580
31462SOL    HW2  224   8.967   8.637   6.498 -1.8859  0.5685 -0.1559
31463SOL     OW  225   9.200  11.711  10.458  0.5405 -0.6974 -0.0461
31463SOL    HW1  226   9.284  11.723  10.414  0.7317  0.9615  0.7021
31463SOL    HW2  227   9.134  11.732  10.392  0.8173  1.4588  0.3129
31464SOL     OW  228  11.503   5.639   4.662  0.2137 -0.5474 -0.1648
31464SOL    HW1  229  11.543   5.715   4.619 -1.0650  0.7388  0.8120
31464SOL    HW2  230  11.507   5.570   4.596 -0.6164  1.0077 -1.9587
31465SOL     OW  231   8.809   1.821  10.395  0.4306  1.2146 -0.1263
31465SOL    HW1  232   8.895   1.853  10.366  0.8850  1.6287  1.5673
31465SOL    HW2  233   8.789   1.874  10.472 -0.5112 -0.1136  0.5781
31466SOL     OW  234   6.736   9.968   9.229 -0.2279 -0.2153  0.0712
31466SOL    HW1  235   6.731   9.908   9.303 -0.1821  0.9418  1.0474
31466SOL    HW2  236   6.817  10.018   9.244 -1.2991  1.4963  0.4337
31467SOL     OW  237   1.226   1.070  11.429  0.0313  0.3686 -0.5918
31467SOL    HW1  238   1.156   1.032  11.376  0.5961 -0.7575 -0.5524
31467SOL    HW2  239   1.298   1.085  11.367  0.2509  0.2135 -0.3786
31468SOL     OW  240   9.813   6.494   1.181  0.3201 -0.2984 -0.3380
31468SOL    HW1  241   9.849   6.542   1.256  0.9387  0.3462 -1.0367
31468SOL    HW2  242   9.852   6.536   1.105 -0.4839 -0.7998 -1.0400
31469SOL     OW  243   5.570   3.941   6.130  0.4556  0.2651 -0.1040
31469SOL    HW1  244   5.597   4.013   6.073  0.5628  1.2077  1.1148
31469SOL    HW2  245   5.568   3.978   6.218  0.6002 -1.2489  0.5780
31470SOL     OW  246   0.677   7.986   8.148 -0.0956 -0.5501  0.1082
31470SOL    HW1  247   0.658   8.062   8.093  1.4999 -0.7244 -0.7645
31470SOL    HW2  248   0.769   7.966   8.130 -0.1113 -1.8930  1.3088
31471SOL     OW  249   1.107   2.008  11.590 -0.0031  0.8750  0.5559
31471SOL    HW1  250   1.029   2.040  11.544 -0.4712 -2.1894 -1.0549
31471SOL    HW2  251   1.075   1.979  11.675 -0.5404  0.1985  0.1340
31472SOL     OW  252  11.064  11.033   3.694  0.6013 -0.3865 -0.5577
31472SOL    HW1  253  11.060  10.969   3.765 -1.9342 -1.1397 -1.2714
31472SOL    HW2  254  11.018  11.109   3.728  0.3752 -0.3263 -0.9925
31473SOL     OW  255   0.965   0.653   2.920  0.3068  0.4198  0.1415
31473SOL    HW1  256   0.954   0.558   2.921  2.1988  0.1576  0.2331
31473SOL    HW2  257   0.939   0.681   3.008  0.9952 -0.2041  0.5580
31474SOL     OW  258   0.642   0.576   1.275  0.2244 -0.0687 -0.8419
31474SOL    HW1  259   0.547   0.589   1.277  0.4059  2.0529 -2.2792
31474SOL    HW2  260   0.671   0.609   1.360 -0.4597 -3.1577  0.7311
31475SOL     OW  261   1.011   4.548   1.423 -0.4923 -0.5408 -0.2706
31475SOL    HW1  262   1.107   4.546   1.416 -0.4299 -0.4181  0.5185
31475SOL    HW2  263   0.982   4.472   1.373  0.0686 -1.1545  0.3223
31476SOL     OW  264   8.420   8.864   2.560  0.2017  0.6423 -0.2929
31476SOL    HW1  265   8.516   8.855   2.564  0.1340 -0.1098 -0.3738
31476SOL    HW2  266   8.398   8.847   2.469 -0.0074  0.9038 -0.2919
31477SOL     OW  267   3.901  12.323   2.556  0.1330  0.2562 -0.2202
31477SOL    HW1  268   3.949  12.274   2.489  1.9127  1.9952 -0.2836
31477SOL    HW2  269   3.812  12.329   2.521  0.3032 -1.3604 -1.0351
31478SOL     OW  270  12.287   0.187  10.509  0.5743 -0.5743 -0.0503
31478SOL    HW1  271  12.298   0.119  10.442 -1.5435  0.0508 -1.1256
31478SOL    HW2  272  12.309   0.268  10.463  0.5670 -0.2793  0.4675
31479SOL     OW  273   1.840   6.176  10.229  0.3016  0.4687  0.6131
31479SOL    HW1  274   1.763   6.225  10.258 -0.2049 -0.2452  0.4748
31479SOL    HW2  275   1.911   6.240  10.235 -0.1739  0.9500  1.3637
31480SOL     OW  276   5.478   0.897   3.548  0.0635  0.2871 -0.5387
31480SOL    HW1  277   5.477   0.942   3.464 -1.1454 -0.7910 -1.1456
31480SOL    HW2  278   5.387   0.869   3.561  0.4974 -0.7197  0.4789
31481SOL     OW  279   7.031  12.183  11.581  0.0814 -0.0187 -0.0327
31481SOL    HW1  280   7.010  12.171  11.673 -1.4414  1.3890 -0.1446
31481SOL    HW2  281   7.004  12.273  11.562  0.8611 -0.0960 -1.7272
31482SOL     OW  282   5.945   3.660   3.858 -0.8835 -0.0544  0.2003
31482SOL    HW1  283   5.918   3.571   3.838 -0.1262 -0.4515  0.8545
31482SOL    HW2  284   6.006   3.650   3.932 -0.8875  1.0113  0.3625
31483SOL     OW  285  12.307   1.842  11.464  0.4085 -0.0856  0.1225
31483SOL    HW1  286  12.377   1.846  11.399 -0.3460 -0.0765 -0.6999
31483SOL    HW2  287  12.350   1.869  11.546  1.3328  0.0518 -0.3885
31484SOL     OW  288   4.185  11.454   7.621 -0.0447  0.2797  0.3058
31484SOL    HW1  289   4.152  11.372   7.582  2.8257 -0.4062 -0.9143
31484SOL    HW2  290   4.205  11.510   7.546  1.1394  0.7908  0.9730
31485SOL     OW  291   4.026  11.432   8.196 -0.2635  0.5353 -0.2919
31485SOL    HW1  292   3.958  11.482   8.152 -1.3632  0.8555  1.6670
31485SOL    HW2  293   4.091  11.497   8.222 -1.0255  0.8039  1.0406
31486SOL     OW  294   8.531  10.303  11.603 -0.5653 -0.0350 -0.2714
31486SOL    HW1  295   8.443  10.266  11.595 -0.5654 -0.1655  0.2960
31486SOL    HW2  296   8.537  10.331  11.695 -0.2277  0.5209 -0.4576
31487SOL     OW  297   3.907   6.186  10.572  0.1512 -0.0769  0.5292
31487SOL    HW1  298   3.907   6.148  10.660  0.3553 -0.4524  0.3668
31487SOL    HW2  299   3.951   6.121  10.517 -1.3194 -0.5368 -0.1601
31488SOL     OW  300   9.083  11.217   4.575 -0.2799  0.7105  0.3059
31488SOL    HW1  301   9.074  11.171   4.658  3.2493  0.0455  0.4977
31488SOL    HW2  302   9.089  11.309   4.599  0.3935  0.5511  0.7721
31489SOL     OW  303   0.107   3.456   8.250 -0.3225  0.1546  0.5062
31489SOL    HW1  304   0.106   3.386   8.315 -1.7922  0.2321  0.5834
31489SOL    HW2  305   0.073   3.532   8.297  0.5419  0.7491  0.2076
31490SOL     OW  306  11.353   8.059   1.621  0.2093 -0.2396 -0.2409
31490SOL    HW1  307  11.435   8.092   1.585 -0.4355 -0.8177 -2.4236
31490SOL    HW2  308  11.293   8.133   1.618  0.2574 -0.1933 -0.0247
31491SOL     OW  309   9.733   0.597   1.139  0.1004 -0.2841  0.2911
31491SOL    HW1  310   9.650   0.644   1.138 -0.3588 -1.0591  0.5545
31491SOL    HW2  311   9.727   0.536   1.065  1.1781  0.8631 -0.7880
31492SOL     OW  312  11.875  10.308  11.116 -0.2456  0.3650  0.0750
31492SOL    HW1  313  11.920  10.324  11.199 -1.2925  0.9665  0.5429
31492SOL    HW2  314  11.915  10.369  11.054 -1.1616  1.6917  0.7626
31493SOL     OW  315   5.247   4.474  12.282  0.2283  0.3161  0.3443
31493SOL    HW1  316   5.172   4.497  12.227  0.3338  1.2051  0.5574
31493SOL    HW2  317   5.254   4.379  12.275 -0.8454  0.2376  0.2312
31494SOL     OW  318   7.309   2.453  10.765  0.2236  0.7041 -0.6559
31494SOL    HW1  319   7.285   2.546  10.768  0.2687  0.7320 -1.1274
31494SOL    HW2  320   7.388   2.447  10.818  0.5634  1.0416 -1.1243
31495SOL     OW  321   3.633  10.023  10.207 -0.2754  0.2648 -0.2055
31495SOL    HW1  322   3.595  10.083  10.143 -1.1596  1.0508  1.0122
31495SOL    HW2  323   3.586   9.940  10.193  0.5834 -0.0480 -1.5340
31496SOL     OW  324   2.952   2.612   2.035  0.2876  0.0937  0.2535
31496SOL    HW1  325   2.883   2.645   2.092  1.4238  2.1950  0.5229
31496SOL    HW2  326   2.960   2.519   2.057 -2.4434 -0.2364  0.1593
31497SOL     OW  327   2.685  12.083   7.864  0.2733  0.3966  0.4149
31497SOL    HW1  328   2.732  12.080   7.781  0.1952  0.9476  0.3461
31497SOL    HW2  329   2.736  12.027   7.923  1.6304  1.8195  0.6450
31498SOL     OW  330   1.063   4.578   0.891 -0.5255  0.3626  0.4477
31498SOL    HW1  331   1.000   4.639   0.855 -0.5688 -0.1458 -0.3776
31498SOL    HW2  332   1.140   4.631   0.910 -0.1841  0.5348 -1.2353
31499SOL     OW  333   3.245   1.268   4.416  0.4213  0.0116  0.0670
31499SOL    HW1  334   3.227   1.316   4.335 -0.5882 -1.4063 -0.6046
31499SOL    HW2  335   3.159   1.236   4.444  0.9542 -0.7309  0.9053
31500SOL     OW  336   9.753   2.409   3.050 -0.1197 -0.4156  0.0216
31500SOL    HW1  337   9.757   2.323   3.093  1.7442 -0.7554 -0.7422
31500SOL    HW2  338   9.843   2.441   3.051 -0.6145  1.0869 -0.6301
31501SOL     OW  339   8.658   7.932   8.288 -0.0195 -0.6160  0.4295
31501SOL    HW1  340   8.718   7.975   8.348  0.5067 -0.2391 -0.3471
31501SOL    HW2  341   8.581   7.989   8.285  0.4813  0.0445 -0.2351
31502SOL     OW  342   2.612  11.199   3.376 -0.2970  0.4086  0.4531
31502SOL    HW1  343   2.614  11.293   3.357  1.2530  0.2479 -0.2771
31502SOL    HW2  344   2.590  11.194   3.469  2.8911  1.6812  1.3886
31503SOL     OW  345   1.151   0.970   2.561 -0.1337 -0.5316  0.3675
31503SOL    HW1  346   1.075   0.927   2.601  0.3112 -1.2526  0.4649
31503SOL    HW2  347   1.224   0.910   2.578  0.1968 -0.5322 -0.9220
31504SOL     OW  348   3.544   8.161   3.400 -0.1941  0.0687  0.2849
31504SOL    HW1  349   3.602   8.206   3.338 -0.3577 -1.4322 -0.9972
31504SOL    HW2  350   3.553   8.212   3.481  1.9804  0.6043 -0.2134
31505SOL     OW  351   8.668   0.979   6.101  0.0509  0.2705  0.2415
31505SOL    HW1  352   8.579   0.954   6.126  0.7658 -1.2053  1.4706
31505SOL    HW2  353   8.696   1.038   6.170  0.1411  0.4816  0.0256
31506SOL     OW  354   8.931  10.300   5.434 -0.1856 -0.3879  0.4816
31506SOL    HW1  355   8.923  10.305   5.529  1.4232 -0.9768  0.6712
31506SOL    HW2  356   9.019  10.331   5.415 -0.3451 -0.6399 -0.7841
31507SOL     OW  357   0.338   6.114   2.092  0.1697 -0.1510  0.0172
31507SOL    HW1  358   0.259   6.140   2.140  0.7294  0.0624  0.8556
31507SOL    HW2  359   0.336   6.167   2.012 -0.1204  0.4620  0.4187
31508SOL     OW  360   3.588   4.788   8.555  0.7874 -0.3714  0.1523
31508SOL    HW1  361   3.597   4.754   8.466  3.0714  0.1263  0.1555
31508SOL    HW2  362   3.602   4.712   8.611  0.4955 -0.4586  0.1102
31509SOL     OW  363  11.268   5.958   5.453  0.2604 -0.0071 -0.0868
31509SOL    HW1  364  11.247   6.033   5.507  0.4777 -0.8675  1.2349
31509SOL    HW2  365  11.363   5.950   5.459  0.2074 -0.5787  0.0687
31510SOL     OW  366   5.800   3.479   0.505  0.2032 -0.1990  0.0408
31510SOL    HW1  367   5.884   3.442   0.533  0.7958  0.5561 -0.6848
31510SOL    HW2  368   5.811   3.573   0.513  0.0907  0.0059 -1.7926
31511SOL     OW  369  10.309  11.039   8.274 -0.0671  0.4740 -0.0722
31511SOL    HW1  370  10.289  10.999   8.190 -0.4795 -1.0012  0.6895
31511SOL    HW2  371  10.224  11.055   8.315  0.1414 -0.3476  0.7276
31512SOL     OW  372   0.209   8.224   0.777  0.3062 -0.0144 -0.0502
31512SOL    HW1  373   0.205   8.165   0.852 -2.2637  0.5537  0.3694
31512SOL    HW2  374   0.295   8.208   0.738  0.5774 -2.3972  1.3231
31513SOL     OW  375   2.035   3.427   9.911  1.1304  0.4420 -0.2827
31513SOL    HW1  376   1.952   3.451   9.952  2.7095  0.8472  3.0191
31513SOL    HW2  377   2.025   3.335   9.887 -0.4108  0.6368 -0.4377
31514SOL     OW  378   0.245   5.630   0.702 -0.2120  0.1640  0.1665
31514SOL    HW1  379   0.163   5.674   0.725 -0.2258 -0.2120  0.8611
31514SOL    HW2  380   0.267   5.579   0.780  0.3499 -0.2363 -0.2535
31515SOL     OW  381   5.723  10.081   9.003 -0.5530  0.1648  0.0467
31515SOL    HW1  382   5.712  10.087   9.098  1.5406 -1.6470  0.4841
31515SOL    HW2  383   5.760   9.994   8.988  0.1913  0.8025 -2.3158
31516SOL     OW  384   5.257  10.724  11.350  0.2485  0.4246 -0.5056
31516SOL    HW1  385   5.247  10.766  11.436 -0.6729  0.1181 -0.4496
31516SOL    HW2  386   5.206  10.780  11.291  2.6236  1.8748 -1.3090
31517SOL     OW  387   3.526   9.289   4.198  0.0475 -0.3085  0.6979
31517SOL    HW1  388   3.564   9.301   4.285 -0.8506 -1.6533  1.3248
31517SOL    HW2  389   3.525   9.194   4.186  0.1894 -0.1373 -0.8047
31518SOL     OW  390   5.566   0.841   0.608  0.0106 -0.6064  0.4062
31518SOL    HW1  391   5.614   0.917   0.642  0.5893 -0.9710  0.4154
31518SOL    HW2  392   5.491   0.831   0.666 -1.6640  1.6587 -1.1759
31519SOL     OW  393   4.838   6.655   6.450  0.9199  0.1686 -0.1925
31519SOL    HW1  394   4.754   6.611   6.461  0.3837  1.4253  1.1839
31519SOL    HW2  395   4.898   6.587   6.421  0.1290 -1.4733  1.8147
31520SOL     OW  396   2.177   7.305   2.734 -0.0164 -0.3017  0.4646
31520SOL    HW1  397   2.204   7.396   2.720 -0.6407 -0.4317 -2.2491
31520SOL    HW2  398   2.232   7.273   2.805  1.2412  1.7589  0.4749
31521SOL     OW  399   9.056   6.933   4.556 -0.1142 -0.0637  0.2391
31521SOL    HW1  400   9.126   6.930   4.491 -0.6270 -0.6679 -0.3045
31521SOL    HW2  401   9.035   7.026   4.565 -0.1590  0.0183 -0.6095
31522SOL     OW  402  11.098  11.772  12.169  0.8530  0.1736 -0.1843
31522SOL    HW1  403  11.130  11.796  12.256  0.2076  1.1864 -0.2090
31522SOL    HW2  404  11.054  11.851  12.137  0.3292 -0.4595 -1.0758
31523SOL     OW  405   3.931   4.509   3.850 -0.7139 -0.5330 -0.2640
31523SOL    HW1  406   3.954   4.580   3.910 -0.4097 -0.6765 -0.2065
31523SOL    HW2  407   3.965   4.538   3.765  0.2905 -1.0383 -0.0508
31524SOL     OW  408   3.248   1.298   0.933  0.1056 -0.0531  0.4055
31524SOL    HW1  409   3.167   1.327   0.975  0.2587 -1.2584  1.6023
31524SOL    HW2  410   3.225   1.214   0.892  0.4114  0.2550 -0.4134
31525SOL     OW  411  10.272  12.154  10.344  0.1088  0.0358 -0.5108
31525SOL    HW1  412  10.299  12.066  10.371 -0.9437 -0.5747 -1.3941
31525SOL    HW2  413  10.348  12.209  10.366  1.4140 -1.3373 -1.3623
31526SOL     OW  414   2.874   9.979   5.052  0.3576 -0.1202 -0.2315
31526SOL    HW1  415   2.817  10.044   5.095 -0.1739 -0.2732 -0.6878
31526SOL    HW2  416   2.949  10.030   5.021  0.6529  0.0299  0.6861
31527SOL     OW  417   2.296   3.064  11.197 -0.1937  0.0129  0.0741
31527SOL    HW1  418   2.291   3.011  11.277 -0.6706  1.2700  0.8999
31527SOL    HW2  419   2.351   3.139  11.221 -0.5488  0.5320 -0.7056
31528SOL     OW  420   8.881   4.357   5.858 -0.0123  0.4079 -0.2375
31528SOL    HW1  421   8.927   4.273   5.867 -1.5252 -0.3883  0.5662
31528SOL    HW2  422   8.871   4.388   5.948 -0.8147  0.6605 -0.4044
31529SOL     OW  423  11.244   6.586   1.956 -0.2633 -0.8690 -0.7895
31529SOL    HW1  424  11.301   6.605   1.882 -1.8723  0.4762 -1.7437
31529SOL    HW2  425  11.270   6.650   2.023 -0.3590 -0.5277 -1.0727
31530SOL     OW  426   1.555   2.707   7.264  0.2630  0.1533  0.2413
31530SOL    HW1  427   1.596   2.665   7.340  0.6861 -0.7935 -0.5000
31530SOL    HW2  428   1.605   2.787   7.251 -2.0227  2.3109  3.1696
31531SOL     OW  429   4.158   8.020   3.254  0.0064 -0.4234  0.1356
31531SOL    HW1  430   4.119   8.009   3.168 -0.3830 -1.0027  0.3765
31531SOL    HW2  431   4.098   8.079   3.300 -0.0010 -0.4335  0.1389
31532SOL     OW  432  11.028   5.701   2.479  0.3184 -0.5709 -0.3413
31532SOL    HW1  433  11.081   5.685   2.400  1.0829 -1.1708  0.2688
31532SOL    HW2  434  11.017   5.614   2.517 -1.8453 -0.5864 -0.8777
31533SOL     OW  435   5.304  11.194  10.914  0.4494 -0.1688  0.0590
31533SOL    HW1  436   5.306  11.178  10.819 -0.2533  0.9252 -0.1568
31533SOL    HW2  437   5.359  11.272  10.925 -0.1086  0.1667  0.4538
31534SOL     OW  438   7.230   0.865   0.332  0.1223 -0.0255 -0.1126
31534SOL    HW1  439   7.235   0.848   0.238  0.5061 -0.8294  0.0494
31534SOL    HW2  440   7.197   0.955   0.338 -0.2865 -0.1060 -1.0075
31535SOL     OW  441  10.547   0.427   1.342  0.4320  0.1669  0.4662
31535SOL    HW1  442  10.567   0.340   1.308  1.5139  0.2041  0.9647
31535SOL    HW2  443  10.525   0.479   1.265  2.0190  0.0360 -0.0963
31536SOL     OW  444   7.090   9.623   6.876  0.6782 -0.2906 -0.0850
31536SOL    HW1  445   7.035   9.557   6.833  1.6352 -1.8311  0.9334
31536SOL    HW2  446   7.144   9.573   6.937  0.6818  1.5751  1.5713
31537SOL     OW  447   5.067   2.716   8.855 -0.1882 -0.2051 -0.4612
31537SOL    HW1  448   5.058   2.810   8.838  1.3122 -0.3717 -2.6488
31537SOL    HW2  449   4.986   2.692   8.900  0.4528  2.5523  2.5596
31538SOL     OW  450   5.288   3.462  11.358 -0.0786  0.3482  0.0440
31538SOL    HW1  451   5.236   3.382  11.351 -0.9094  0.8131  0.6482
31538SOL    HW2  452   5.354   3.443  11.424 -0.3533  0.2013  0.2764
31539SOL     OW  453   6.113   6.094  12.100 -0.4549  0.8836 -0.6004
31539SOL    HW1  454   6.027   6.120  12.132 -1.0676  0.1290 -1.5608
31539SOL    HW2  455   6.103   6.090  12.005  0.9504  1.8167 -0.8100
31540SOL     OW  456  10.476   0.431   4.864  0.3849 -0.2373  0.4495
31540SOL    HW1  457  10.382   0.411   4.867 -0.0830  1.8253  0.7952
31540SOL    HW2  458  10.493   0.452   4.772  0.5537 -0.7882  0.3535
31541SOL     OW  459  12.149   5.924   7.956  0.8551  0.0189 -0.0462
31541SOL    HW1  460  12.068   5.930   8.008  0.8666 -0.0345 -0.0225
31541SOL    HW2  461  12.176   6.015   7.945  1.0190  0.0161  0.3051
31542SOL     OW  462   0.332   6.435   1.479 -0.0618  0.0304  0.3357
31542SOL    HW1  463   0.250   6.392   1.505  0.7236 -1.4284  0.5095
31542SOL    HW2  464   0.376   6.370   1.424 -0.1076  1.7290 -1.7895
31543SOL     OW  465   9.661   5.935   7.271  0.7656  0.3420 -0.3177
31543SOL    HW1  466   9.644   5.943   7.177 -1.4068  0.1150 -0.0022
31543SOL    HW2  467   9.714   6.012   7.293 -2.3964  2.9411 -0.9934
31544SOL     OW  468   0.806   2.286   0.989 -0.2752  0.1010  0.7415
31544SOL    HW1  469   0.788   2.380   0.983  1.4467  0.4213 -0.2336
31544SOL    HW2  470   0.814   2.269   1.082 -0.6070  0.9249  0.9296
31545SOL     OW  471   9.571   6.897  10.853  0.3796 -0.1338  0.2888
31545SOL    HW1  472   9.616   6.952  10.789 -0.4072 -0.3119 -0.4201
31545SOL    HW2  473   9.573   6.949  10.934  1.3888  0.0790  0.1462
31546SOL     OW  474  11.121   4.563   4.682 -0.4474  0.3293  0.0129
31546SOL    HW1  475  11.182   4.622   4.637 -1.0278  0.8917 -0.0561
31546SOL    HW2  476  11.146   4.476   4.653  0.3966  0.5355  0.0751
31547SOL     OW  477   0.223   3.823   8.273 -0.3166  0.1919  0.0254
31547SOL    HW1  478   0.296   3.762   8.280  0.7742  1.3762 -0.6765
31547SOL    HW2  479   0.220   3.867   8.358 -1.3508 -1.0435  0.6737
31548SOL     OW  480   9.431   9.685   5.239 -0.3995 -0.0443  0.2022
31548SOL    HW1  481   9.417   9.762   5.294 -0.3886  0.3774 -0.3818
31548SOL    HW2  482   9.357   9.628   5.258 -0.9127  0.5219 -0.0607
31549SOL     OW  483   9.343  10.237  11.824 -0.2766  0.0279  0.1455
31549SOL    HW1  484   9.262  10.213  11.868 -0.6092 -0.1099 -0.5205
31549SOL    HW2  485   9.327  10.325  11.790  1.1911  1.6285  3.1896
31550SOL     OW  486   7.410   6.532   2.268 -0.2605 -0.0863  0.4533
31550SOL    HW1  487   7.362   6.614   2.281  1.6694  0.9654  1.3376
31550SOL    HW2  488   7.404   6.488   2.353  1.4238  0.7026  1.0223
31551SOL     OW  489  11.150   6.438   6.302  0.1391  0.0497  0.0769
31551SOL    HW1  490  11.107   6.518   6.272 -0.1303 -0.1479 -0.0800
31551SOL    HW2  491  11.078   6.375   6.312  0.2994 -0.0547  0.5902
31552SOL     OW  492   9.768   8.231   5.611  0.5134 -0.4195 -0.2566
31552SOL    HW1  493   9.767   8.219   5.706  1.2379 -0.4681 -0.2462
31552SOL    HW2  494   9.763   8.326   5.599 -2.3348 -0.5111 -0.2597
31553SOL     OW  495   0.547   4.232   4.846  0.8279  0.2739  0.2251
31553SOL    HW1  496   0.478   4.226   4.780 -0.9277  0.2307  1.9801
31553SOL    HW2  497   0.629   4.229   4.795 -0.4279  1.2785 -1.9940
31554SOL     OW  498  10.967   8.218   1.945 -0.4413  0.5439  0.4085
31554SOL    HW1  499  10.950   8.138   1.996  1.2355  0.0034  0.1924
31554SOL    HW2  500  11.000   8.281   2.009  0.0905  0.4112  0.2694
31555SOL     OW  501   3.015   4.632   9.193 -0.2323 -0.2530  0.0382
31555SOL    HW1  502   3.065   4.608   9.271 -0.8631 -2.9217 -0.2494
31555SOL    HW2  503   3.050   4.574   9.124 -0.7726  0.9081 -1.2539
31556SOL     OW  504   3.436   7.167   0.947  0.8251 -0.4842  0.3129
31556SOL    HW1  505   3.463   7.088   0.994 -1.0428 -1.6319 -0.4299
31556SOL    HW2  506   3.469   7.155   0.858 -0.1339 -0.8419 -0.0112
31557SOL     OW  507   5.143  11.078   3.382 -0.1466  0.4095 -0.0754
31557SOL    HW1  508   5.176  11.044   3.298  0.3744  1.2162 -0.2029
31557SOL    HW2  509   5.169  11.170   3.383 -0.9344  0.6393  0.5793
31558SOL     OW  510   6.604   0.233   2.683 -0.2774  1.0931 -0.7443
31558SOL    HW1  511   6.572   0.309   2.634  0.6633  0.6056 -2.1816
31558SOL    HW2  512   6.562   0.158   2.641 -0.4534  0.7458  0.0418
31559SOL     OW  513  12.195   1.695   5.025 -0.1726  0.2999  0.1078
31559SOL    HW1  514  12.205   1.725   5.115 -0.7158 -0.3462  0.3840
31559SOL    HW2  515  12.105   1.717   5.001 -0.0241  0.4900 -0.2826
31560SOL     OW  516   2.821   1.021   3.808 -0.2426 -0.0953 -0.1244
31560SOL    HW1  517   2.750   1.081   3.827 -0.9475 -1.1415  0.6708
31560SOL    HW2  518   2.820   0.959   3.881  1.0321 -0.5450 -0.4637
31561SOL     OW  519   5.058   6.407   4.875  0.0609 -0.0865  0.5973
31561SOL    HW1  520   5.055   6.470   4.803  0.2730  0.4436  1.0483
31561SOL    HW2  521   5.095   6.328   4.835  2.4154  0.9111  0.6047
31562SOL     OW  522  10.247   3.991   6.549  0.5333 -0.3184  0.3778
31562SOL    HW1  523  10.266   3.898   6.558 -1.0956 -0.6354  0.7030
31562SOL    HW2  524  10.255   4.027   6.637  0.4537 -0.2812  0.3698
31563SOL     OW  525   0.066   8.138  10.616  0.4442 -0.2435  0.0257
31563SOL    HW1  526   0.010   8.109  10.544  0.8336  1.6644 -1.1226
31563SOL    HW2  527   0.010   8.136  10.693 -1.3577  1.8375 -1.1145
31564SOL     OW  528  11.003   1.734   0.880 -0.0055  1.0731  0.3025
31564SOL    HW1  529  11.098   1.742   0.884  0.0346  0.8297 -0.1270
31564SOL    HW2  530  10.976   1.800   0.816 -0.2614  2.0825  1.3869
31565SOL     OW  531   9.124   9.665   0.777  0.4653 -0.6772  0.0948
31565SOL    HW1  532   9.127   9.693   0.868  0.3117  0.0716 -0.1285
31565SOL    HW2  533   9.037   9.628   0.766 -0.0160  0.4938 -0.1110
31566SOL     OW  534   2.831  11.555   6.829  0.1329 -0.0056  0.2308
31566SOL    HW1  535   2.756  11.600   6.789 -0.3985 -0.3146  0.8552
31566SOL    HW2  536   2.791  11.491   6.889  0.8920 -0.4828  0.2406
31567SOL     OW  537   0.477   2.247   3.205  0.4208 -0.2834  0.0791
31567SOL    HW1  538   0.489   2.158   3.172  0.2543 -0.4178  0.3694
31567SOL    HW2  539   0.553   2.295   3.173 -0.6794  0.0949 -2.1616
31568SOL     OW  540   3.680   8.175   7.363  0.4231  0.2951  0.2425
31568SOL    HW1  541   3.663   8.247   7.424  0.6163 -1.9556  3.1836
31568SOL    HW2  542   3.594   8.134   7.350  0.7075 -0.4761  0.7264
31569SOL     OW  543   5.053   1.648   3.886  0.4358 -0.2608 -0.2635
31569SOL    HW1  544   5.140   1.629   3.920  0.3745  0.6880  0.4675
31569SOL    HW2  545   5.054   1.742   3.867 -0.7417  0.0024  0.7953
31570SOL     OW  546   3.589   6.611   8.398  0.1017 -0.1369 -0.3436
31570SOL    HW1  547   3.525   6.547   8.365 -2.2918  0.8047  2.1027
31570SOL    HW2  548   3.561   6.694   8.360 -1.3936  0.5880  2.0871
31571SOL     OW  549   3.590   7.890   7.865 -0.0395 -0.3182 -0.0318
31571SOL    HW1  550   3.631   7.956   7.921 -1.5652 -0.7852  1.7236
31571SOL    HW2  551   3.660   7.826   7.849  0.2414 -0.6338  2.1325
31572SOL     OW  552   3.365   7.537   4.145  0.9422  0.2761 -0.1495
31572SOL    HW1  553   3.288   7.590   4.122 -0.6204 -1.2750  1.2416
31572SOL    HW2  554   3.402   7.512   4.061  0.0765  1.2577 -0.8593
31573SOL     OW  555   2.689  12.120  11.792  0.3147  0.3119  0.2844
31573SOL    HW1  556   2.728  12.205  11.812 -1.5294  1.5857 -1.1544
31573SOL    HW2  557   2.607  12.142  11.748  0.1220 -2.2386 -0.7650
31574SOL     OW  558   5.096   7.705   5.803  0.5152  0.1560  0.4528
31574SOL    HW1  559   5.180   7.659   5.799 -0.2360 -1.2689  0.2930
31574SOL    HW2  560   5.062   7.687   5.891 -0.5235 -1.0239 -0.1481
31575SOL     OW  561  11.731   3.897   5.484  0.4227 -0.2628 -0.2571
31575SOL    HW1  562  11.713   3.949   5.563 -0.1080  0.2448 -0.7122
31575SOL    HW2  563  11.648   3.853   5.464 -0.5129  2.3128 -2.5224
31576SOL     OW  564  11.641   6.321   0.795 -0.0495 -0.1075  0.2107
31576SOL    HW1  565  11.736   6.311   0.797  0.0476  0.4987 -0.5624
31576SOL    HW2  566  11.617   6.302   0.704 -0.3377  2.1586 -0.2550
31577SOL     OW  567   3.249   2.035   8.704  0.0108  0.3205  0.1490
31577SOL    HW1  568   3.195   2.113   8.692  1.0709  0.8042 -1.9646
31577SOL    HW2  569   3.329   2.053   8.656  2.5018 -0.0705  3.7850
31578SOL     OW  570   8.980   9.082   2.771 -0.2733 -0.3878 -0.4094
31578SOL    HW1  571   8.951   9.027   2.699 -0.2051 -2.0596  0.7909
31578SOL    HW2  572   8.905   9.139   2.789 -1.5270 -2.1380  0.2480
31579SOL     OW  573   4.428   5.345   7.052  0.7143 -0.4342  0.0552
31579SOL    HW1  574   4.513   5.388   7.040  0.7027 -0.4521 -0.0953
31579SOL    HW2  575   4.423   5.329   7.146  1.1314 -0.9530 -0.0079
31580SOL     OW  576  11.351   1.150  11.982 -0.2500 -0.4457 -0.2650
31580SOL    HW1  577  11.305   1.141  11.898 -0.5925  0.4051 -0.1878
31580SOL    HW2  578  11.310   1.227  12.022 -1.7491 -2.1656  1.7353
31581SOL     OW  579   3.059   7.520   3.326 -0.2666 -0.4153  0.1957
31581SOL    HW1  580   3.131   7.583   3.323 -1.6166  1.1899  0.0443
31581SOL    HW2  581   2.980   7.574   3.331 -1.5370 -2.0980 -0.7201
31582SOL     OW  582   8.087   8.480   3.360 -0.3495  0.0381 -0.2999
31582SOL    HW1  583   8.071   8.571   3.385 -0.6765 -0.4181  1.2475
31582SOL    HW2  584   8.000   8.442   3.351 -0.3540 -1.1468  3.1818
31583SOL     OW  585   9.396   7.852   1.049  0.1965 -0.1621 -0.2921
31583SOL    HW1  586   9.405   7.819   0.960 -0.8622 -1.3383  0.0113
31583SOL    HW2  587   9.367   7.943   1.038  1.4754  0.1690 -1.1312
31584SOL     OW  588   1.252   8.809   7.448  0.7154 -0.0952 -0.3303
31584SOL    HW1  589   1.309   8.818   7.371  1.3790 -0.2222  0.1403
31584SOL    HW2  590   1.210   8.723   7.436 -0.4348  0.5808 -1.3658
31585SOL     OW  591   6.793   0.036   8.994  0.0251  0.3138 -0.0677
31585SOL    HW1  592   6.771  -0.000   9.080 -1.8164  2.1006  0.2884
31585SOL    HW2  593   6.731  -0.005   8.934 -0.7848  1.3580  0.0216
31586SOL     OW  594   1.259  11.112   2.010 -0.2081  0.0335 -0.5761
31586SOL    HW1  595   1.179  11.079   2.052  0.2945 -0.5390 -0.0362
31586SOL    HW2  596   1.327  11.103   2.077 -0.1600  2.8927 -0.1438
31587SOL     OW  597  11.958   8.876   1.717  0.1708  0.9252  0.0783
31587SOL    HW1  598  11.969   8.922   1.634 -1.3943 -0.5591 -1.0385
31587SOL    HW2  599  11.920   8.791   1.692  1.9190 -0.5666  2.1024
31588SOL     OW  600   8.437   3.347   7.279  0.2554  0.6051  0.1228
31588SOL    HW1  601   8.502   3.279   7.262 -0.3161 -0.4065  1.7552
31588SOL    HW2  602   8.463   3.420   7.222  2.1192 -0.1888 -0.1110
31589SOL     OW  603   0.817   6.021  11.666 -0.4096 -0.4026  0.5177
31589SOL    HW1  604   0.896   6.026  11.613  0.6505 -3.7024  1.5825
31589SOL    HW2  605   0.751   6.069  11.615  1.4591 -0.1929 -1.8813
31590SOL     OW  606   5.878   3.251   6.331  0.0660  0.0788  0.7626
31590SOL    HW1  607   5.972   3.235   6.328 -0.4013 -3.2256 -0.2266
31590SOL    HW2  608   5.850   3.217   6.416 -0.3769  0.1342  0.6441
31591SOL     OW  609   1.279  10.755   7.792 -0.6649 -0.4260  0.3695
31591SOL    HW1  610   1.214  10.790   7.853  0.1857  1.4688  0.2326
31591SOL    HW2  611   1.242  10.771   7.705 -0.9466 -1.2715  0.3224
31592SOL     OW  612   8.456   4.577   4.837  0.6344  0.3738  0.1595
31592SOL    HW1  613   8.482   4.534   4.755  0.8518  1.1937 -0.2082
31592SOL    HW2  614   8.477   4.512   4.905  1.3816  0.0662 -0.3460
31593SOL     OW  615   6.139   9.376   7.524  0.3975 -0.0128  0.3704
31593SOL    HW1  616   6.067   9.379   7.461 -0.2302 -1.9078  0.9140
31593SOL    HW2  617   6.110   9.431   7.597 -0.1254 -0.0654  0.2070
31594SOL     OW  618   0.525   3.248   3.104  1.1030  0.1559  0.0403
31594SOL    HW1  619   0.608   3.270   3.147  0.6265 -0.2120  1.1669
31594SOL    HW2  620   0.486   3.181   3.159 -0.7939  1.5792  0.5345
31595SOL     OW  621  11.882   5.537   7.977 -0.1540 -0.0347 -0.0893
31595SOL    HW1  622  11.902   5.455   8.022 -0.7021 -0.3408 -0.3892
31595SOL    HW2  623  11.855   5.597   8.046  2.3297  0.6050  0.4323
31596SOL     OW  624   0.749   9.704  11.287  0.2092  0.5368 -0.2677
31596SOL    HW1  625   0.844   9.691  11.279 -0.0509 -0.7177 -1.7472
31596SOL    HW2  626   0.715   9.619  11.312 -0.4423  1.3009  1.6010
31597SOL     OW  627   9.950   4.903   0.076  0.3939 -0.3129  0.0795
31597SOL    HW1  628  10.032   4.902   0.026 -0.1897  0.6592 -0.9330
31597SOL    HW2  629   9.977   4.926   0.165  1.3005 -0.7302 -0.0801
31598SOL     OW  630   1.913   9.993   9.422  0.2621 -1.3351  0.5957
31598SOL    HW1  631   1.893  10.023   9.333 -1.4738 -2.3302  0.6218
31598SOL    HW2  632   1.950  10.070   9.465 -1.3680 -0.0408 -0.2107
31599SOL     OW  633   0.199   6.550   8.948 -0.1273  0.3656  0.2208
31599SOL    HW1  634   0.248   6.627   8.978 -2.3287  2.2809 -0.8029
31599SOL    HW2  635   0.212   6.548   8.853 -0.9517  0.1145  0.1044
31600SOL     OW  636   0.680   8.546   0.174  0.0086 -0.2576  0.2976
31600SOL    HW1  637   0.642   8.612   0.116  1.1258  0.3047  0.1647
31600SOL    HW2  638   0.755   8.512   0.125 -0.2895 -1.3230  0.5549
31601SOL     OW  639   1.918  11.707   8.500 -0.2042  0.0899 -0.0876
31601SOL    HW1  640   1.878  11.783   8.459  0.3836  2.4057  3.2427
31601SOL    HW2  641   2.008  11.734   8.518 -0.1091 -1.1914  1.6121
31602SOL     OW  642   5.928   0.427   1.678  0.3979  0.2462  0.3371
31602SOL    HW1  643   5.861   0.496   1.675 -2.2535 -1.9549  2.8286
31602SOL    HW2  644   5.947   0.416   1.771  0.4419 -2.5659  0.0772
31603SOL     OW  645   1.250   7.464   8.555 -0.4709  0.1848  0.2976
31603SOL    HW1  646   1.179   7.529   8.559 -0.9045 -0.1452 -1.3679
31603SOL    HW2  647   1.322   7.509   8.512 -0.8724 -0.4883 -1.1286
31604SOL     OW  648   5.440   1.052   5.102 -0.6249 -0.0208 -0.4482
31604SOL    HW1  649   5.358   1.006   5.081 -0.5367  0.3269 -1.6389
31604SOL    HW2  650   5.501   1.024   5.033  0.0995  0.1534  0.1124
31605SOL     OW  651   2.227   2.110   9.092  0.1784 -0.4611  0.2924
31605SOL    HW1  652   2.292   2.113   9.162 -1.6601  0.8285  2.0948
31605SOL    HW2  653   2.162   2.176   9.118 -1.0007 -0.5163 -2.2551
31606SOL     OW  654  10.684   6.198   8.403 -0.7716 -0.4119 -0.0287
31606SOL    HW1  655  10.705   6.285   8.368 -1.3760  0.1024  0.8183
31606SOL    HW2  656  10.738   6.190   8.481 -1.3623 -0.4058  0.3949
31607SOL     OW  657   0.305  11.395   4.704  0.6038 -0.3044 -0.3974
31607SOL    HW1  658   0.388  11.349   4.715  0.1332 -1.6756 -2.0372
31607SOL    HW2  659   0.328  11.487   4.697  1.6868 -0.3313  1.9672
31608SOL     OW  660   0.723  11.135   0.466 -0.5415  0.0478  0.7635
31608SOL    HW1  661   0.791  11.158   0.403 -1.1339  0.6166  0.3198
31608SOL    HW2  662   0.663  11.209   0.465 -1.7858 -0.9280  0.2802
31609SOL     OW  663   9.941   2.806   4.290 -0.9068  0.0013  0.1177
31609SOL    HW1  664   9.941   2.797   4.195 -0.4448  1.9068 -0.1035
31609SOL    HW2  665   9.881   2.738   4.321 -1.2597 -0.4797 -1.5398
31610SOL     OW  666   4.126   3.305   1.425 -0.2916  0.0904  0.5188
31610SOL    HW1  667   4.157   3.225   1.381  1.4327  0.9768  0.0505
31610SOL    HW2  668   4.110   3.367   1.355 -0.3189  0.5929  0.9606
31611SOL     OW  669   3.591  11.520   7.853  0.0872 -0.0373  0.1269
31611SOL    HW1  670   3.580  11.594   7.793  0.7645  0.4727  0.6045
31611SOL    HW2  671   3.684  11.523   7.878 -0.3040  0.1718  1.7026
31612SOL     OW  672  10.585   0.254   4.428  0.3018 -0.3314  0.0676
31612SOL    HW1  673  10.521   0.325   4.424  1.1979  0.6939  2.2463
31612SOL    HW2  674  10.670   0.299   4.429  0.9147 -1.4594  0.6280
31613SOL     OW  675   7.907   5.421  11.813 -0.3840 -0.5946 -0.2145
31613SOL    HW1  676   7.816   5.451  11.809  0.0035  0.5242 -1.2643
31613SOL    HW2  677   7.955   5.496  11.849  0.7194  0.4676 -3.5360
31614SOL     OW  678   4.389   0.671   5.922  0.4326  0.2508  0.0050
31614SOL    HW1  679   4.445   0.649   5.848  1.1719  2.0044  0.0065
31614SOL    HW2  680   4.312   0.615   5.911  0.6934  0.1895 -1.8595
31615SOL     OW  681   0.491   7.490   0.358  0.3064 -0.7712 -0.2541
31615SOL    HW1  682   0.573   7.474   0.310 -1.0279  0.5251 -3.2521
31615SOL    HW2  683   0.486   7.585   0.367 -1.6031 -0.6444 -1.7783
31616SOL     OW  684   5.339   5.766   3.213  0.3636 -0.0289 -0.4530
31616SOL    HW1  685   5.263   5.710   3.199 -0.1030 -0.0893  1.9323
31616SOL    HW2  686   5.410   5.705   3.234  0.3427  0.1777  0.2157
31617SOL     OW  687   8.743   5.800   6.421 -0.3878  0.4857 -0.1261
31617SOL    HW1  688   8.686   5.815   6.496 -0.5477  1.5706 -0.4509
31617SOL    HW2  689   8.830   5.785   6.459 -0.5757  0.4492  0.2947
31618SOL     OW  690   5.342   8.068   8.815  0.3970 -1.0025 -0.6351
31618SOL    HW1  691   5.255   8.067   8.775  1.0218 -0.5642 -2.0566
31618SOL    HW2  692   5.388   7.995   8.775  1.6512  0.5717 -2.2208
31619SOL     OW  693   4.029   6.032  10.379 -0.0783 -0.5545 -0.2791
31619SOL    HW1  694   4.083   6.028  10.300 -1.6396 -0.5179 -1.3953
31619SOL    HW2  695   3.957   5.971  10.362 -2.2462  1.8584 -0.3605
31620SOL     OW  696   3.414   4.123   4.911 -0.1801  0.2081  0.2130
31620SOL    HW1  697   3.384   4.186   4.846  0.8489  1.0859  0.5664
31620SOL    HW2  698   3.510   4.123   4.903 -0.1641 -1.9017 -0.3136
31621SOL     OW  699   0.023   0.443  12.298 -0.1330 -0.1799 -0.5664
31621SOL    HW1  700  -0.039   0.391  12.247  0.4347 -1.4272 -0.0296
31621SOL    HW2  701  -0.029   0.479  12.369  0.1733 -3.5758  1.5891
31622SOL     OW  702   1.207   9.288   9.155 -0.0594  0.7878 -0.3800
31622SOL    HW1  703   1.198   9.304   9.061 -0.7113  4.3110  0.1440
31622SOL    HW2  704   1.117   9.271   9.185 -0.2132  2.0793 -0.0743
31623SOL     OW  705   4.916   2.457   1.852 -0.1253 -0.5144  0.7072
31623SOL    HW1  706   4.981   2.523   1.829  0.0261 -0.1163  2.1629
31623SOL    HW2  707   4.898   2.411   1.770  2.3426 -0.9608  0.3339
31624SOL     OW  708   9.695   5.742   9.128  0.3165 -0.1012  0.4172
31624SOL    HW1  709   9.746   5.684   9.071  0.5547  1.3178 -0.8553
31624SOL    HW2  710   9.623   5.686   9.160  0.0405 -0.8851 -1.4499
31625SOL     OW  711   6.776   9.121  10.655  0.7977  0.4224  0.1743
31625SOL    HW1  712   6.842   9.137  10.588 -0.1891  0.4562 -0.8121
31625SOL    HW2  713   6.748   9.031  10.641 -0.6201  0.9422 -0.5893
31626SOL     OW  714  11.774   4.622   6.736  0.1379 -0.4750  0.1936
31626SOL    HW1  715  11.856   4.614   6.784 -0.2068  0.4175  0.9698
31626SOL    HW2  716  11.739   4.533   6.734 -0.0658 -0.4771  2.0685
31627SOL     OW  717   2.987   0.824   4.768  0.5919 -0.1558 -0.0102
31627SOL    HW1  718   3.045   0.760   4.727  1.6349  0.6842  0.1048
31627SOL    HW2  719   3.014   0.826   4.860 -0.3686 -0.5398  0.2997
31628SOL     OW  720   2.322  10.965  10.406  0.7149  0.5055 -0.6768
31628SOL    HW1  721   2.297  10.878  10.437  2.2075  0.1934 -0.2359
31628SOL    HW2  722   2.242  11.003  10.370 -0.7566  0.2757  2.1449
31629SOL     OW  723   4.970   4.201   2.333 -0.0121  0.4937  0.0594
31629SOL    HW1  724   4.968   4.143   2.409 -1.3051 -1.1184 -1.1298
31629SOL    HW2  725   5.055   4.244   2.338  1.1573 -1.7358  0.8678
31630SOL     OW  726   6.143   0.338   8.089 -0.1066  0.2329  0.0915
31630SOL    HW1  727   6.193   0.280   8.031  0.0309  0.9858 -0.5501
31630SOL    HW2  728   6.186   0.423   8.081  0.2497  0.2263  1.7312
31631SOL     OW  729   3.378  11.390   3.701  0.2650  0.5245  0.3692
31631SOL    HW1  730   3.383  11.307   3.654 -0.0478  0.6992  0.0234
31631SOL    HW2  731   3.469  11.414   3.717  0.3889  0.6035 -0.4043
31632SOL     OW  732   2.422  10.752   7.787  0.5115 -0.3155 -0.3846
31632SOL    HW1  733   2.328  10.766   7.777  0.5068 -1.7144 -3.3579
31632SOL    HW2  734   2.431  10.704   7.869 -1.2785  0.3323  0.2350
31633SOL     OW  735   2.779   4.195   4.936  0.6106 -0.3066  0.4103
31633SOL    HW1  736   2.695   4.233   4.962  0.3457 -0.0335 -0.7956
31633SOL    HW2  737   2.816   4.259   4.875  1.8618 -0.2572  1.1805
31634SOL     OW  738   4.192   3.303   1.026  0.0999  0.0819  0.1086
31634SOL    HW1  739   4.186   3.321   1.120 -1.4613  1.3486 -0.1844
31634SOL    HW2  740   4.146   3.220   1.014  0.9716 -0.4726  0.5507
31635SOL     OW  741   9.331   7.016  12.123  0.2170  0.1607  0.3751
31635SOL    HW1  742   9.419   7.049  12.139  0.5007  0.1024 -0.9138
31635SOL    HW2  743   9.295   7.075  12.056 -0.8103  0.3116  1.0343
31636SOL     OW  744  11.770   2.430   3.849 -0.3649 -0.7932  0.4509
31636SOL    HW1  745  11.735   2.452   3.763 -0.7984 -0.3970  0.7190
31636SOL    HW2  746  11.857   2.469   3.850 -0.9685  0.6170  0.7700
31637SOL     OW  747  11.143   0.720   4.283 -0.3277 -0.1196  0.1400
31637SOL    HW1  748  11.151   0.777   4.360  0.7118 -1.1104  0.7977
31637SOL    HW2  749  11.137   0.631   4.319 -1.3208 -0.4991 -0.8868
31638SOL     OW  750   8.824   9.558   4.614 -0.0442 -0.4611 -0.0655
31638SOL    HW1  751   8.773   9.512   4.681 -2.8894  2.6987  0.2316
31638SOL    HW2  752   8.907   9.579   4.657 -0.2514 -1.8398  1.0710
31639SOL     OW  753   7.502   0.052   9.976 -0.8170 -0.0821 -0.0385
31639SOL    HW1  754   7.443   0.083  10.045  0.8807  0.4811  1.2446
31639SOL    HW2  755   7.449   0.054   9.896 -2.5684  0.1863  1.0748
31640SOL     OW  756  10.573  11.876   6.491  1.1185  0.4963 -0.2305
31640SOL    HW1  757  10.662  11.910   6.482  0.9384  1.1616  0.4501
31640SOL    HW2  758  10.526  11.912   6.415  1.3480  0.4018 -0.4178
31641SOL     OW  759   2.676  10.384   8.160  0.0058 -0.0256  0.0441
31641SOL    HW1  760   2.662  10.479   8.152 -0.4352 -0.0277  0.7366
31641SOL    HW2  761   2.713  10.373   8.248 -1.1891 -0.6219  0.4978
31642SOL     OW  762   4.919   2.449   0.062  0.2388 -0.0393  0.2715
31642SOL    HW1  763   4.850   2.462  -0.004 -1.6157 -1.1534  1.8668
31642SOL    HW2  764   4.922   2.531   0.110  0.3125  0.1503 -0.0528
31643SOL     OW  765   3.796   0.597   4.095  0.1564  0.1029 -0.0930
31643SOL    HW1  766   3.750   0.650   4.160  0.0464  1.3518 -1.1477
31643SOL    HW2  767   3.860   0.657   4.057  0.3642 -0.6670 -0.9802
31644SOL     OW  768   7.697   8.957   3.652  0.0521 -0.3713 -0.0007
31644SOL    HW1  769   7.618   8.925   3.697  1.5068 -4.0988  0.2864
31644SOL    HW2  770   7.748   9.000   3.721 -0.5256 -0.3386  0.4185
31645SOL     OW  771   3.470   7.883   0.913 -0.5663 -0.0426 -0.2701
31645SOL    HW1  772   3.468   7.927   0.829 -1.9716 -0.7891 -0.6599
31645SOL    HW2  773   3.456   7.953   0.977 -2.2845  0.1963 -0.8465
31646SOL     OW  774   4.340   1.861   8.836 -0.4080 -0.1749 -0.4902
31646SOL    HW1  775   4.352   1.905   8.920  0.4170 -1.2350 -0.0289
31646SOL    HW2  776   4.246   1.845   8.831 -0.4542 -0.1898  0.2869
31647SOL     OW  777   6.270   5.855   3.928  0.5688  0.5529 -0.0540
31647SOL    HW1  778   6.187   5.874   3.971  0.1577 -1.8993  0.3858
31647SOL    HW2  779   6.336   5.878   3.994  0.0422 -0.8633  1.0148
31648SOL     OW  780   5.716  11.320   4.296 -0.4512  0.1922  0.1523
31648SOL    HW1  781   5.759  11.285   4.374  0.7780  0.8312 -0.1994
31648SOL    HW2  782   5.630  11.348   4.325 -1.4608 -2.8540  0.5138
31649SOL     OW  783  11.997   3.455   9.469  0.3631  0.2439  0.2718
31649SOL    HW1  784  12.026   3.547   9.471  1.7179 -0.1365 -0.7288
31649SOL    HW2  785  11.971   3.441   9.378  3.5635 -1.3304 -0.5047
31650SOL     OW  786   2.820  11.126   4.255  0.2451 -0.4162  0.3522
31650SOL    HW1  787   2.738  11.103   4.210  0.3717 -0.2310  0.0260
31650SOL    HW2  788   2.881  11.147   4.185  0.6219 -0.7057  0.5924
31651SOL     OW  789   9.174  12.056   4.337 -0.2427 -0.2801 -0.3305
31651SOL    HW1  790   9.166  11.967   4.371 -0.8903 -0.3320 -0.6014
31651SOL    HW2  791   9.160  12.048   4.243  2.0117 -0.2006 -0.7166
31652SOL     OW  792   7.843   8.028   6.778  0.3720  0.6396  0.1972
31652SOL    HW1  793   7.818   7.935   6.780 -0.0567  0.7417  2.6770
31652SOL    HW2  794   7.936   8.028   6.800  0.0548  0.8499  1.6000
31653SOL     OW  795   1.525   6.121   1.356 -0.1116 -0.2312 -0.2403
31653SOL    HW1  796   1.535   6.179   1.431 -1.1589 -2.3993  1.6837
31653SOL    HW2  797   1.575   6.163   1.286  0.0884  2.3683  1.3462
31654SOL     OW  798   4.630  10.471   2.366  1.0134 -0.2331  0.1353
31654SOL    HW1  799   4.714  10.451   2.326  0.7046  0.6986 -1.0228
31654SOL    HW2  800   4.574  10.499   2.293 -0.1748 -0.4212  0.9340
31655SOL     OW  801   5.506   7.127   4.010  0.5189  0.3172 -0.2590
31655SOL    HW1  802   5.574   7.120   3.943 -0.0685 -0.1468 -0.8099
31655SOL    HW2  803   5.451   7.050   3.997  1.0492 -0.4266  1.4924
31656SOL     OW  804   0.847   3.478   0.353 -0.2381  0.0140  0.1739
31656SOL    HW1  805   0.936   3.509   0.366 -0.7275  2.4578 -1.5220
31656SOL    HW2  806   0.840   3.400   0.408  3.0669 -0.5628 -0.0315
31657SOL     OW  807   9.933   7.520   2.927  0.2782  0.8906 -0.3515
31657SOL    HW1  808   9.920   7.425   2.927  1.6511  0.6810  0.1254
31657SOL    HW2  809  10.015   7.533   2.975 -0.5715  2.4311  0.7812
31658SOL     OW  810   5.097   4.392   8.783  0.1045  0.3890 -0.1740
31658SOL    HW1  811   5.060   4.404   8.695 -1.0797  1.6495  0.4527
31658SOL    HW2  812   5.060   4.308   8.813  0.6885 -0.1577 -0.9326
31659SOL     OW  813   4.619  10.570   6.506 -0.6656 -0.0366  0.3193
31659SOL    HW1  814   4.534  10.528   6.492  0.2500 -2.2346  0.9766
31659SOL    HW2  815   4.677  10.529   6.442 -0.2035  2.0373 -0.6957
31660SOL     OW  816   2.101   0.404   4.332 -0.0342  0.0831 -0.1130
31660SOL    HW1  817   2.029   0.464   4.312  0.0137 -0.3918 -1.8574
31660SOL    HW2  818   2.082   0.326   4.282  0.7536 -0.7743  0.8731
31661SOL     OW  819   6.891   7.730  12.251 -0.1360 -0.0964  0.0770
31661SOL    HW1  820   6.889   7.754  12.158  0.4937 -2.2782 -0.5448
31661SOL    HW2  821   6.803   7.697  12.270 -0.1096 -0.1378  0.1260
31662SOL     OW  822   9.499   9.901   3.749  0.0926 -0.4278 -0.6836
31662SOL    HW1  823   9.459   9.987   3.758  1.9546  0.4886 -0.6087
31662SOL    HW2  824   9.507   9.888   3.655  1.8129  0.5399 -0.7235
31663SOL     OW  825   4.976   6.191   1.727 -0.3718 -0.7860 -0.6559
31663SOL    HW1  826   5.060   6.159   1.694 -0.0637 -1.8780  1.0658
31663SOL    HW2  827   4.969   6.280   1.692  2.2086 -0.1249  0.2931
31664SOL     OW  828   6.856  11.323  10.010  0.2851 -0.4989 -0.2126
31664SOL    HW1  829   6.896  11.366   9.934  0.9581 -0.3331  0.2264
31664SOL    HW2  830   6.764  11.350  10.006  0.0126 -1.4877 -1.6558
31665SOL     OW  831   6.386   2.672   4.210 -0.0845 -0.7623 -0.1831
31665SOL    HW1  832   6.324   2.659   4.138 -0.0860 -1.6867 -0.0200
31665SOL    HW2  833   6.381   2.592   4.261  1.4757 -0.9975 -0.3468
31666SOL     OW  834   9.328  10.769   8.234 -0.4097 -0.1167  0.6258
31666SOL    HW1  835   9.413  10.810   8.249 -0.8807  1.3283 -0.3590
31666SOL    HW2  836   9.265  10.840   8.247 -1.2926 -0.5808 -0.8215
31667SOL     OW  837  10.660   5.342  11.971 -0.1819  0.0262  0.6053
31667SOL    HW1  838  10.679   5.262  11.921 -1.3061  0.0195  0.1484
31667SOL    HW2  839  10.682   5.320  12.061 -0.4019 -0.7812  0.4720
31668SOL     OW  840   7.260   8.052   0.246 -0.4268  0.2503  0.3614
31668SOL    HW1  841   7.344   8.061   0.202 -0.4061  0.9735  0.5415
31668SOL    HW2  842   7.274   7.985   0.312 -0.8445 -1.9921 -1.6564
31669SOL     OW  843   2.933   3.886   9.945 -0.1124 -0.1356  0.2627
31669SOL    HW1  844   2.909   3.834   9.868 -0.4403  1.3956 -0.7209
31669SOL    HW2  845   2.994   3.952   9.911  1.3495 -0.6730  1.7243
31670SOL     OW  846  11.340   0.367   9.993 -0.1374 -0.7653  0.0914
31670SOL    HW1  847  11.380   0.280   9.991 -1.1913 -1.2576 -1.1994
31670SOL    HW2  848  11.324   0.388   9.901  1.0609  1.2867  0.2745
31671SOL     OW  849   3.173  12.059   2.862  0.0450  0.5715 -0.4221
31671SOL    HW1  850   3.106  12.099   2.806 -1.3655 -0.5919  0.3444
31671SOL    HW2  851   3.128  11.985   2.904  2.0916 -0.8661 -0.5986
31672SOL     OW  852   0.703   3.100  10.278 -0.5052  0.5845 -0.1219
31672SOL    HW1  853   0.681   3.038  10.208  0.3029  0.2785 -0.1128
31672SOL    HW2  854   0.619   3.117  10.321 -0.9071  0.2826 -0.7589
31673SOL     OW  855   3.942   6.303   6.102  0.5375  0.2018 -0.3173
31673SOL    HW1  856   3.998   6.251   6.160  0.6492  2.2836  1.5695
31673SOL    HW2  857   3.858   6.305   6.146 -0.5964 -1.3788 -2.2389
31674SOL     OW  858   6.376   1.695  11.697 -0.2359 -0.6048 -0.3412
31674SOL    HW1  859   6.290   1.665  11.667  0.2889 -0.8963 -1.6304
31674SOL    HW2  860   6.415   1.737  11.620  0.7462 -0.4175  0.2406
31675SOL     OW  861  10.424   9.713   7.565 -0.4077  0.2997  0.7380
31675SOL    HW1  862  10.514   9.715   7.598 -0.0762 -0.4150 -0.0734
31675SOL    HW2  863  10.375   9.664   7.632 -0.1161  0.3727  1.0062
31676SOL     OW  864   3.053   5.479   2.535  0.5652 -0.1533  0.2841
31676SOL    HW1  865   3.093   5.392   2.527 -1.2170 -0.9523 -0.6622
31676SOL    HW2  866   3.023   5.499   2.447 -1.1179  0.3652  0.9436
31677SOL     OW  867   6.532   4.013   3.583  0.0698  0.3195  0.8693
31677SOL    HW1  868   6.485   3.949   3.531  1.0967 -0.7965  1.2564
31677SOL    HW2  869   6.474   4.031   3.657 -0.7059  0.7072  0.1821
31678SOL     OW  870   1.773   2.535   9.276  0.6536  0.2029 -0.3150
31678SOL    HW1  871   1.735   2.448   9.262  0.8515  0.1657 -0.6399
31678SOL    HW2  872   1.864   2.526   9.249  0.4502  0.7457 -1.2417
31679SOL     OW  873   8.555  10.587  11.398 -0.1751 -0.0241  0.2342
31679SOL    HW1  874   8.499  10.531  11.452 -0.0239 -0.6264 -0.2181
31679SOL    HW2  875   8.497  10.620  11.329 -0.5321  1.2968  1.1318
31680SOL     OW  876   2.023   9.175  11.160 -0.0404 -0.3901  0.0581
31680SOL    HW1  877   2.094   9.238  11.172 -0.2662 -0.1673  0.2580
31680SOL    HW2  878   2.014   9.167  11.065  2.5643 -3.0831 -0.0927
31681SOL     OW  879   3.624   4.453   6.503 -0.5568 -0.1074  0.2828
31681SOL    HW1  880   3.664   4.523   6.451 -0.3571  0.8617  1.6723
31681SOL    HW2  881   3.658   4.467   6.592 -1.5024 -1.2127  0.8449
31682SOL     OW  882  11.969   7.581   4.209  0.1763  0.2482 -0.1069
31682SOL    HW1  883  12.038   7.518   4.189 -1.2690 -1.1756 -0.9148
31682SOL    HW2  884  11.916   7.584   4.129  0.1911  2.5402 -0.1063
31683SOL     OW  885   1.062   1.754   6.398 -0.0612 -0.2342 -0.1673
31683SOL    HW1  886   1.065   1.667   6.359 -1.9132 -0.3076 -0.2680
31683SOL    HW2  887   1.019   1.809   6.332 -0.5909  0.3125  0.6070
31684SOL     OW  888   3.726   9.293   5.081  0.4319 -0.0715  0.3065
31684SOL    HW1  889   3.681   9.209   5.091 -3.3335  1.8785  1.7576
31684SOL    HW2  890   3.687   9.331   5.002 -0.7659  1.7460  1.6816
31685SOL     OW  891   6.747   3.021   5.570 -0.0140  0.1088  0.1659
31685SOL    HW1  892   6.693   3.021   5.649 -0.5579 -0.5997 -0.1862
31685SOL    HW2  893   6.782   2.932   5.565 -1.2723 -0.3576 -1.2157
31686SOL     OW  894   2.533  11.141   7.695  0.0658  0.1612 -0.5300
31686SOL    HW1  895   2.559  11.066   7.642  1.0933  0.7873 -0.9472
31686SOL    HW2  896   2.613  11.167   7.741 -0.6766 -0.0410  0.9411
31687SOL     OW  897   8.745   3.269   5.898  0.5111 -0.3154  0.1301
31687SOL    HW1  898   8.778   3.350   5.937  0.8198 -0.2296 -0.3095
31687SOL    HW2  899   8.807   3.202   5.927  0.5839 -0.2985  0.0111
31688SOL     OW  900   9.306   7.837  10.957 -0.7914 -0.3313 -0.2471
31688SOL    HW1  901   9.335   7.927  10.946 -1.3883 -0.3486 -2.3755
31688SOL    HW2  902   9.373   7.796  11.012  0.1692  1.0501 -0.3525
31689SOL     OW  903   6.486   3.935  10.877 -0.2255 -0.3578  0.1670
31689SOL    HW1  904   6.456   3.852  10.912  0.6542  0.2457  2.5448
31689SOL    HW2  905   6.512   3.986  10.954  1.6811  1.1571 -1.3654
31690SOL     OW  906   4.950   6.449   7.426 -0.1517 -0.0896 -0.6332
31690SOL    HW1  907   4.898   6.489   7.495  3.5637  1.4834  1.5417
31690SOL    HW2  908   4.930   6.500   7.348 -1.1731  1.0344  0.3249
31691SOL     OW  909   4.478   3.383   6.324  0.5672 -0.4067 -0.3208
31691SOL    HW1  910   4.389   3.398   6.358  0.6050  1.1114 -0.8328
31691SOL    HW2  911   4.533   3.378   6.402  0.1094 -0.9058 -0.0194
31692SOL     OW  912   6.350  11.696   7.380 -0.1578 -0.4857 -0.2004
31692SOL    HW1  913   6.308  11.663   7.301 -1.3150 -0.1002  0.2386
31692SOL    HW2  914   6.396  11.621   7.416  2.6222 -0.1110 -2.5855
31693SOL     OW  915   2.462   5.939   4.518  0.7154 -0.0569  0.1312
31693SOL    HW1  916   2.406   5.989   4.458 -1.4329 -1.8407  0.4947
31693SOL    HW2  917   2.417   5.944   4.602  1.9091 -0.3351  0.7974
31694SOL     OW  918   1.218  10.857   9.168  0.2380 -0.6290 -0.2418
31694SOL    HW1  919   1.240  10.946   9.141 -0.1842 -0.3376  0.3698
31694SOL    HW2  920   1.145  10.832   9.110 -0.6686 -0.0027  0.5886
31695SOL     OW  921   1.825   4.235   3.380 -0.0409  0.0728  0.0113
31695SOL    HW1  922   1.760   4.295   3.417 -0.4440 -1.6098  2.1988
31695SOL    HW2  923   1.786   4.206   3.298 -0.9410  0.9609  0.0989
31696SOL     OW  924   3.893  10.633   8.430 -0.5930 -0.4597  0.4011
31696SOL    HW1  925   3.893  10.541   8.454 -1.1288 -1.3145 -2.5130
31696SOL    HW2  926   3.807  10.648   8.390 -0.5239  1.3189  0.8296
31697SOL     OW  927   7.920   7.569   1.220  0.1264  0.0811  0.1424
31697SOL    HW1  928   7.956   7.575   1.131  0.0332 -1.3204 -0.0021
31697SOL    HW2  929   7.841   7.623   1.218 -0.3679 -0.6606 -0.8863
31698SOL     OW  930   1.792   2.345  11.131  0.1898  0.2476 -0.6762
31698SOL    HW1  931   1.721   2.400  11.163 -0.4076 -1.5756  1.3839
31698SOL    HW2  932   1.749   2.281  11.074  0.1972 -0.5521  0.1818
31699SOL     OW  933   1.928   3.147   9.909 -0.7549 -0.3527  0.0661
31699SOL    HW1  934   1.913   3.147  10.003 -1.7516 -1.1944 -0.0785
31699SOL    HW2  935   1.921   3.055   9.883 -2.1152  0.0216 -1.0508
31700SOL     OW  936  10.984   0.941   8.986  0.0204 -0.1773  0.1434
31700SOL    HW1  937  11.067   0.904   8.957  0.4696  1.3569 -0.6627
31700SOL    HW2  938  10.917   0.888   8.944  0.6139 -0.5571 -0.3346
31701SOL     OW  939   8.706   1.133   2.043  0.2156 -0.2924  0.3676
31701SOL    HW1  940   8.796   1.131   2.077  0.3315  0.0994  0.0869
31701SOL    HW2  941   8.710   1.083   1.962  0.1036 -0.5596  0.5226
31702SOL     OW  942   2.057  10.523   7.582 -0.1696  0.4954  0.0039
31702SOL    HW1  943   2.103  10.475   7.652  3.4760  3.6873  0.1460
31702SOL    HW2  944   2.102  10.498   7.502 -2.8601 -1.4157 -1.0519
31703SOL     OW  945  10.257   4.608  11.509 -0.1255  0.4005  0.4051
31703SOL    HW1  946  10.210   4.569  11.584  0.6552 -0.9515  0.2285
31703SOL    HW2  947  10.348   4.612  11.538  0.0367  0.7319 -0.1437
31704SOL     OW  948   6.554  11.278   2.279 -0.0832  0.4348  0.3518
31704SOL    HW1  949   6.542  11.184   2.295 -0.4328  0.6648  1.5031
31704SOL    HW2  950   6.644  11.285   2.248 -0.7770 -0.5546 -2.1926
31705SOL     OW  951   7.914  10.644   5.480  0.0441  0.2977 -0.1519
31705SOL    HW1  952   7.921  10.737   5.459 -0.5046  0.7218  1.4001
31705SOL    HW2  953   7.997  10.606   5.451  1.5699  1.8456  1.8831
31706SOL     OW  954   2.558  11.818  10.277 -0.7909 -0.0620 -0.1022
31706SOL    HW1  955   2.628  11.768  10.234  0.6034  1.6032  0.1235
31706SOL    HW2  956   2.600  11.900  10.303 -2.6556  0.6681  0.7585
31707SOL     OW  957   3.728  10.144   9.714  0.3849  0.3783 -0.3831
31707SOL    HW1  958   3.750  10.070   9.658  2.4897  0.6103  0.0685
31707SOL    HW2  959   3.642  10.122   9.751 -0.0246 -0.7906 -1.9548
31708SOL     OW  960   3.111   0.107   7.695 -0.3465 -0.1339  0.0163
31708SOL    HW1  961   3.202   0.099   7.666 -0.2766 -0.4155  0.3089
31708SOL    HW2  962   3.116   0.146   7.782 -0.4354 -1.2159  0.5206
31709SOL     OW  963   4.554   9.025   2.283  0.3452  0.5012  0.0594
31709SOL    HW1  964   4.553   8.929   2.277 -0.7489  0.5698 -1.2410
31709SOL    HW2  965   4.468   9.048   2.316 -0.1220  1.1125 -1.5137
31710SOL     OW  966   5.161   5.169   1.118  0.0767  0.0354 -0.2453
31710SOL    HW1  967   5.125   5.086   1.148 -0.0916 -0.2511 -1.2010
31710SOL    HW2  968   5.087   5.215   1.079  0.6836 -0.5515 -2.2162
31711SOL     OW  969  10.670   0.738  10.653 -0.0846  0.3460 -0.0238
31711SOL    HW1  970  10.592   0.726  10.708  0.4517  4.3241  1.9449
31711SOL    HW2  971  10.636   0.773  10.571 -0.5075 -0.8388 -0.3831
31712SOL     OW  972  10.398   9.275   6.317 -0.1954  0.2196 -0.0116
31712SOL    HW1  973  10.482   9.296   6.275  1.1861 -4.0304  0.1697
31712SOL    HW2  974  10.406   9.311   6.405  1.4333 -0.0031 -0.0246
31713SOL     OW  975   2.795   1.308   5.862 -0.3454  0.2284  0.1362
31713SOL    HW1  976   2.741   1.231   5.881 -1.0292  1.3189  3.2345
31713SOL    HW2  977   2.748   1.381   5.901  2.4136  1.5369  1.3024
31714SOL     OW  978   1.098   4.745  12.193 -0.3399 -0.0368 -0.2502
31714SOL    HW1  979   1.089   4.692  12.272 -1.5118  0.6022  0.0727
31714SOL    HW2  980   1.181   4.790  12.203 -1.1496  1.2038  1.3738
31715SOL     OW  981   4.959   3.515   1.908 -0.7662 -0.0977  0.3380
31715SOL    HW1  982   4.910   3.597   1.896 -1.3790 -0.5918 -0.6608
31715SOL    HW2  983   5.049   3.544   1.924 -0.7598  0.7933 -1.0658
31716SOL     OW  984   6.807   4.579   0.219 -0.5323  0.1278  0.5384
31716SOL    HW1  985   6.886   4.593   0.167 -0.2348  1.4105  1.2959
31716SOL    HW2  986   6.748   4.530   0.160 -0.1594  1.3945 -0.9661
31717SOL     OW  987   3.690   4.128   9.755  0.3088  0.2447  0.1418
31717SOL    HW1  988   3.612   4.175   9.783  0.3234 -0.6497  1.7995
31717SOL    HW2  989   3.762   4.175   9.796  0.5257  0.1796 -0.1595
31718SOL     OW  990   0.769   7.621  10.787  0.3755 -0.6068 -0.3628
31718SOL    HW1  991   0.769   7.706  10.833 -1.1094 -0.8222  0.0782
31718SOL    HW2  992   0.689   7.622  10.735  0.0308 -1.9621  0.0936
31719SOL     OW  993   9.575   8.740   0.409  0.0561  0.8128  0.1838
31719SOL    HW1  994   9.580   8.728   0.504 -0.3002  1.1148  0.2433
31719SOL    HW2  995   9.652   8.695   0.375  0.0607  0.5011  0.5989
31720SOL     OW  996  10.802   9.617  11.740  0.0542  0.3850  0.3814
31720SOL    HW1  997  10.716   9.654  11.719  0.5264  1.2937 -0.0087
31720SOL    HW2  998  10.811   9.630  11.834 -1.5065 -2.5059  1.0729
31721SOL     OW  999   5.186   9.289  11.440 -0.0056 -0.0246 -0.1588
31721SOL    HW1 1000   5.163   9.234  11.365  0.1871  0.1300 -0.3333
31721SOL    HW2 1001   5.220   9.370  11.401  0.0208  0.0877  0.0948
31722SOL     OW 1002   2.485   8.822   2.921 -0.0355  0.6097 -0.1086
31722SOL    HW1 1003   2.520   8.910   2.935 -0.0683  0.4404  1.1123
31722SOL    HW2 1004   2.420   8.810   2.990 -0.3216 -0.2311 -0.5022
31723SOL     OW 1005   2.769   8.029   2.543 -0.0587  0.1409  0.2961
31723SOL    HW1 1006   2.711   8.097   2.577  0.4545  0.5118  0.4479
31723SOL    HW2 1007   2.841   8.024   2.607 -1.4617 -2.5442  1.8468
31724SOL     OW 1008   4.782   8.229   3.367  0.3130  0.0063 -0.2139
31724SOL    HW1 1009   4.778   8.322   3.344 -0.1590 -0.0593 -0.4107
31724SOL    HW2 1010   4.691   8.200   3.361  0.4194 -0.3935  0.1573
31725SOL     OW 1011  11.535   9.132   7.225 -0.0261 -0.5213 -0.4306
31725SOL    HW1 1012  11.514   9.222   7.200  0.4544 -0.4277 -0.5117
31725SOL    HW2 1013  11.534   9.133   7.321  0.2579 -0.3618 -0.4294
31726SOL     OW 1014  11.496   1.555   7.031 -0.3733 -0.0205  0.0748
31726SOL    HW1 1015  11.586   1.535   7.007 -0.1537 -0.1500  0.9849
31726SOL    HW2 1016  11.481   1.508   7.113 -1.4971 -0.5724 -0.4317
31727SOL     OW 1017   0.600   9.073   4.055 -0.3050 -0.2325 -0.4430
31727SOL    HW1 1018   0.618   8.992   4.103  0.8301  0.5179  0.4529
31727SOL    HW2 1019   0.580   9.044   3.966 -1.3265 -1.5745  0.1885
31728SOL     OW 1020  11.254  10.105   8.302  0.7334 -0.4198  0.5576
31728SOL    HW1 1021  11.174  10.151   8.326 -0.5753 -2.3917  0.2240
31728SOL    HW2 1022  11.305  10.103   8.383  0.6308  1.1432  0.6933
31729SOL     OW 1023   3.919   9.615   6.774 -0.3351  0.2922 -0.1464
31729SOL    HW1 1024   4.004   9.605   6.731  0.2277  0.0266  0.9923
31729SOL    HW2 1025   3.910   9.709   6.788 -0.6501  0.4099 -1.0707
31730SOL     OW 1026   9.633   1.756  10.519  0.2440 -0.0487  0.6660
31730SOL    HW1 1027   9.663   1.755  10.610  1.0924 -2.8002  0.4438
31730SOL    HW2 1028   9.700   1.807  10.473  0.1954  0.7485  1.4360
31731SOL     OW 1029   1.071   7.321   3.153  0.1465 -0.3012 -0.3232
31731SOL    HW1 1030   1.052   7.380   3.080  0.4370  0.5012  0.2333
31731SOL    HW2 1031   0.985   7.299   3.190  0.1045  1.2264  0.5686
31732SOL     OW 1032   5.261   5.272  11.786  0.7286  0.2703 -0.1302
31732SOL    HW1 1033   5.331   5.336  11.769  1.6767 -0.7183 -0.0338
31732SOL    HW2 1034   5.274   5.246  11.877  0.2679  0.0176 -0.1343
31733SOL     OW 1035   0.875   7.963   5.609 -0.0013 -0.3408  0.6880
31733SOL    HW1 1036   0.865   8.039   5.667  0.2818 -1.3254  2.0638
31733SOL    HW2 1037   0.967   7.965   5.583 -0.0235 -0.1491  0.6200
31734SOL     OW 1038  10.876  11.892   1.012  0.8235  0.4228 -0.0109
31734SOL    HW1 1039  10.887  11.836   1.089  0.9157  1.5752  0.8438
31734SOL    HW2 1040  10.952  11.872   0.957 -0.4167 -2.1340 -0.9867
31735SOL     OW 1041   0.004   5.310   4.884  0.0663  0.2694 -0.5533
31735SOL    HW1 1042   0.013   5.302   4.979  2.0017  0.7458 -0.6533
31735SOL    HW2 1043  -0.090   5.301   4.868 -0.2669 -0.1371  1.3625
31736SOL     OW 1044   2.760   2.827  11.391 -0.3749 -0.1592 -0.1798
31736SOL    HW1 1045   2.747   2.876  11.310  1.9805 -1.3211 -1.3472
31736SOL    HW2 1046   2.813   2.752  11.366  0.5174 -0.5276  2.4565
31737SOL     OW 1047   3.930   7.511   8.911  0.2337 -0.7904 -0.3304
31737SOL    HW1 1048   3.917   7.528   8.818 -0.9486 -1.8105 -0.3729
31737SOL    HW2 1049   3.851   7.466   8.939  0.2090  0.2260  1.3794
31738SOL     OW 1050   2.049   7.483   6.033  0.3022  0.3823  0.2445
31738SOL    HW1 1051   2.064   7.569   6.073  2.7360  0.1948 -0.1261
31738SOL    HW2 1052   2.029   7.426   6.107  0.7753  0.8536  0.7502
31739SOL     OW 1053   8.655   4.557   5.730 -0.0846  0.2769  0.4717
31739SOL    HW1 1054   8.563   4.534   5.742 -0.4310  1.3235 -0.0516
31739SOL    HW2 1055   8.702   4.476   5.744 -0.9164  0.1364  2.7426
31740SOL     OW 1056  11.570   0.201   7.148 -0.4644 -0.2445  0.6329
31740SOL    HW1 1057  11.574   0.140   7.222 -0.9472 -1.7162 -0.4905
31740SOL    HW2 1058  11.648   0.180   7.096 -1.1260 -0.5732 -0.2437
31741SOL     OW 1059   4.468   6.073  11.237  0.0110 -0.7881 -0.4829
31741SOL    HW1 1060   4.386   6.027  11.220  1.6620 -3.9658 -0.5808
31741SOL    HW2 1061   4.523   6.053  11.162  1.3920  0.0512  0.2617
31742SOL     OW 1062  11.605   2.717   5.933 -0.7397  0.3314  0.1467
31742SOL    HW1 1063  11.530   2.667   5.965 -0.6756  0.5489  0.6541
31742SOL    HW2 1064  11.599   2.712   5.838 -0.7025 -0.6923  0.1864
31743SOL     OW 1065   0.519  10.823   8.117  0.0146 -0.7319 -0.5302
31743SOL    HW1 1066   0.521  10.739   8.163  1.0399  0.1673  1.1632
31743SOL    HW2 1067   0.550  10.803   8.029  2.6680 -1.7548  0.5429
31744SOL     OW 1068   4.279  10.877   6.076  0.1589  0.0095  0.2201
31744SOL    HW1 1069   4.282  10.784   6.097  1.6247 -0.1388 -0.5050
31744SOL    HW2 1070   4.231  10.882   5.993 -0.5181 -0.0063  0.5992
31745SOL     OW 1071   2.355   7.020   2.236 -0.0462  0.4751 -0.4232
31745SOL    HW1 1072   2.413   6.977   2.173 -0.8754 -0.2105 -0.7398
31745SOL    HW2 1073   2.361   7.113   2.213  1.1328  0.4585 -0.2624
31746SOL     OW 1074   9.741   3.994   3.451  0.0323  0.4798  0.2600
31746SOL    HW1 1075   9.746   4.085   3.481  0.4212  0.8347 -0.8229
31746SOL    HW2 1076   9.651   3.984   3.420 -0.3371  0.1452  1.3852
31747SOL     OW 1077  10.935  12.164   7.928  0.6957  0.3933  0.0638
31747SOL    HW1 1078  10.955  12.215   7.849 -0.4680 -1.3556 -1.4498
31747SOL    HW2 1079  10.851  12.199   7.957  0.6356  0.3723 -0.0789
31748SOL     OW 1080  10.713   8.230   6.979 -0.0734  0.2148 -0.1611
31748SOL    HW1 1081  10.695   8.318   7.015  0.6386  0.1656  0.3314
31748SOL    HW2 1082  10.800   8.237   6.940  0.9123 -0.7802  1.6943
31749SOL     OW 1083   2.374   3.348   6.914  0.6552  0.2233  0.1280
31749SOL    HW1 1084   2.283   3.328   6.892  0.5520  1.1615 -0.3591
31749SOL    HW2 1085   2.424   3.273   6.881  0.1122 -0.0563 -0.0631
31750SOL     OW 1086   3.819  11.506   3.264 -0.4568  0.2459 -0.4908
31750SOL    HW1 1087   3.911  11.505   3.293 -1.1811  0.6736  2.1461
31750SOL    HW2 1088   3.805  11.596   3.233  0.2406 -0.1010 -1.8855
31751SOL     OW 1089   2.759   6.294   1.514  0.1982  0.2152  0.2928
31751SOL    HW1 1090   2.730   6.206   1.538 -0.1415  0.1905 -0.1947
31751SOL    HW2 1091   2.724   6.307   1.426  1.8142  0.1311 -0.3799
31752SOL     OW 1092  10.012  10.019  11.421 -0.2015  0.3342 -0.0831
31752SOL    HW1 1093  10.083   9.959  11.398 -1.2541 -1.1752  0.4630
31752SOL    HW2 1094   9.943  10.000  11.358 -1.7713 -1.3701  1.9827
31753SOL     OW 1095  11.800  10.923   5.909 -0.0988  0.1848  0.2396
31753SOL    HW1 1096  11.719  10.882   5.879 -0.9216  0.9633  1.3142
31753SOL    HW2 1097  11.857  10.850   5.933 -0.6649 -0.3604 -0.0456
31754SOL     OW 1098   6.124  12.056  12.208  0.1087  1.0474 -0.3935
31754SOL    HW1 1099   6.105  12.130  12.266  1.9657  2.4400 -1.4730
31754SOL    HW2 1100   6.187  12.090  12.145  0.1302 -1.1528 -1.6580
31755SOL     OW 1101   4.625   0.626   7.271 -0.0380 -0.4078 -0.0481
31755SOL    HW1 1102   4.700   0.648   7.327  0.3937 -0.4005 -0.6278
31755SOL    HW2 1103   4.626   0.692   7.202 -0.4666 -0.5252 -0.1719
31756SOL     OW 1104   3.480   9.659   4.007 -0.2891  0.3570 -0.3981
31756SOL    HW1 1105   3.560   9.696   4.046 -1.0958  1.7553  0.0188
31756SOL    HW2 1106   3.411   9.719   4.035 -1.2153  0.2160 -2.2751
31757SOL     OW 1107   9.822   2.437   2.206 -0.4239 -0.1291 -0.4571
31757SOL    HW1 1108   9.809   2.353   2.249 -1.6154  0.3707  0.2334
31757SOL    HW2 1109   9.823   2.501   2.278  0.5403  0.4395 -0.9586
31758SOL     OW 1110  11.615  10.999   4.721  0.8560  0.3903  1.0408
31758SOL    HW1 1111  11.609  10.928   4.785  0.8653 -0.9595 -0.3846
31758SOL    HW2 1112  11.655  10.958   4.644  2.3529  2.3474  0.7047
31759SOL     OW 1113   5.990   9.796   9.097  0.3215  0.2117 -0.8653
31759SOL    HW1 1114   6.001   9.745   9.177 -0.9081 -0.8628 -1.3537
31759SOL    HW2 1115   6.043   9.875   9.111  0.3576 -0.0972  0.8665
31760SOL     OW 1116   4.523   6.522   5.567  0.1528 -0.0119  0.3458
31760SOL    HW1 1117   4.480   6.453   5.617  0.8927 -0.0571  0.9471
31760SOL    HW2 1118   4.469   6.532   5.488 -0.3671 -0.7697  0.5906
31761SOL     OW 1119  11.792   1.724   7.072 -0.6497  0.5889  0.2272
31761SOL    HW1 1120  11.810   1.704   7.163 -0.8866  1.7521  0.5498
31761SOL    HW2 1121  11.783   1.639   7.029  0.1895  0.0321  1.1361
31762SOL     OW 1122   1.713   7.081   9.278 -0.3482 -0.0761  0.0528
31762SOL    HW1 1123   1.785   7.114   9.331 -1.1604  0.5597  0.8061
31762SOL    HW2 1124   1.645   7.060   9.342 -0.9648 -0.3083 -0.6653
31763SOL     OW 1125   2.277   3.771   3.141  0.1401  0.2769 -0.2262
31763SOL    HW1 1126   2.275   3.866   3.134 -1.2396  0.2836 -0.1222
31763SOL    HW2 1127   2.219   3.741   3.070 -1.2644 -0.3640  1.1253
31764SOL     OW 1128   0.487   8.288  11.154  0.1519  0.4727 -0.7796
31764SOL    HW1 1129   0.497   8.383  11.151 -1.1555  0.6074 -2.9463
31764SOL    HW2 1130   0.452   8.265  11.068 -0.4740 -1.8750  0.0306
31765SOL     OW 1131  11.519   7.720   0.550  0.1265 -0.7839  0.3171
31765SOL    HW1 1132  11.497   7.710   0.457  1.4825 -0.3278 -0.0814
31765SOL    HW2 1133  11.540   7.813   0.559 -1.8674 -0.4024  1.5346
31766SOL     OW 1134   4.654   1.457  12.262 -0.2160  0.2521  0.5565
31766SOL    HW1 1135   4.658   1.427  12.171 -0.7815 -1.3503  1.0216
31766SOL    HW2 1136   4.563   1.482  12.275 -0.3372 -0.3632  0.9207
31767SOL     OW 1137  12.029   3.825   4.375 -0.1491 -0.2745 -0.4737
31767SOL    HW1 1138  12.091   3.837   4.303  0.7377 -3.2025 -0.3252
31767SOL    HW2 1139  12.078   3.847   4.454  0.4218 -1.5849 -0.4416
31768SOL     OW 1140  10.467   1.051   0.983  0.9371 -0.3513 -0.5766
31768SOL    HW1 1141  10.441   1.141   0.999  2.3378  0.1705 -1.1187
31768SOL    HW2 1142  10.404   0.999   1.032  0.5446  0.9397  0.3302
31769SOL     OW 1143  10.171   1.213   6.753  0.2735  0.3580  0.2803
31769SOL    HW1 1144  10.233   1.162   6.702 -0.0054  1.0492 -0.7710
31769SOL    HW2 1145  10.225   1.276   6.801  0.4417  0.4607 -0.0433
31770SOL     OW 1146   0.231   1.515   6.580 -0.1725  0.1853  0.3044
31770SOL    HW1 1147   0.291   1.457   6.532 -1.0524  0.6243 -1.4184
31770SOL    HW2 1148   0.280   1.542   6.658  0.4596 -2.4240  0.9055
31771SOL     OW 1149   7.831   3.711  11.262  0.0710  0.6703  0.2276
31771SOL    HW1 1150   7.925   3.699  11.272  0.1880  0.5833 -0.8299
31771SOL    HW2 1151   7.801   3.632  11.217 -0.3031  1.2107 -0.4990
31772SOL     OW 1152   3.497   4.639   7.284 -0.2832  0.7451 -0.4577
31772SOL    HW1 1153   3.481   4.733   7.294  0.3926  0.6366  2.3366
31772SOL    HW2 1154   3.592   4.632   7.272 -0.3709  0.4038 -1.0207
31773SOL     OW 1155   4.457   0.891   8.228 -0.4570  0.4785  1.0865
31773SOL    HW1 1156   4.420   0.902   8.141 -0.3964 -0.3365  0.9472
31773SOL    HW2 1157   4.494   0.976   8.251  1.5770  0.1259 -0.6161
31774SOL     OW 1158  10.852   6.727   0.113  0.0901 -0.3053  0.2447
31774SOL    HW1 1159  10.935   6.763   0.081 -0.2822  0.3446 -0.0101
31774SOL    HW2 1160  10.795   6.804   0.123 -0.3448 -0.7014  0.8171
31775SOL     OW 1161  10.561  10.525   0.604 -0.2140 -0.3332  1.0809
31775SOL    HW1 1162  10.616  10.584   0.553  0.8353 -1.7320  0.5064
31775SOL    HW2 1163  10.537  10.455   0.542 -0.6801 -0.9662  1.9499
31776SOL     OW 1164  11.947   5.264  11.087  0.0961 -0.0594  0.2547
31776SOL    HW1 1165  11.922   5.319  11.162 -0.2350 -0.7349  0.6547
31776SOL    HW2 1166  11.889   5.188  11.093  2.1279 -1.6516  1.1599
31777SOL     OW 1167   5.819  12.017   7.239 -0.4798 -0.3137 -0.1803
31777SOL    HW1 1168   5.883  11.998   7.171 -1.2579 -1.2722 -0.6598
31777SOL    HW2 1169   5.741  11.967   7.214 -1.2635  0.4643  0.6370
31778SOL     OW 1170   6.538   9.514  10.112 -0.1231  0.2867 -0.2105
31778SOL    HW1 1171   6.593   9.436  10.116  0.4012  0.5809 -1.3477
31778SOL    HW2 1172   6.491   9.506  10.029 -1.1281  0.4953  0.3229
31779SOL     OW 1173  11.498   3.830   9.449 -0.0644 -0.4862 -0.6049
31779SOL    HW1 1174  11.549   3.757   9.482 -0.2377 -1.2354 -1.9231
31779SOL    HW2 1175  11.553   3.907   9.464  0.3453 -0.9439  0.3052
31780SOL     OW 1176   1.400   0.538   3.758 -0.4456 -0.9354 -0.8927
31780SOL    HW1 1177   1.490   0.510   3.777 -0.2468  0.2273  0.0232
31780SOL    HW2 1178   1.347   0.491   3.822 -0.6947 -2.6648 -2.2950
31781SOL     OW 1179   8.852   5.980   6.258  0.0422  0.1637  0.6702
31781SOL    HW1 1180   8.790   5.937   6.317 -1.0739 -0.0608 -0.6253
31781SOL    HW2 1181   8.872   5.914   6.192  2.5655 -0.1549  1.6467
31782SOL     OW 1182  10.811   4.030   4.025  0.0165 -0.2808 -0.1427
31782SOL    HW1 1183  10.845   4.095   4.086 -2.7720  1.0860  0.0767
31782SOL    HW2 1184  10.725   4.007   4.058 -0.5859 -1.3394 -2.2519
31783SOL     OW 1185   8.338   3.878   3.393  0.4914 -0.5777 -0.5241
31783SOL    HW1 1186   8.244   3.865   3.388  0.8073 -3.6719 -0.4467
31783SOL    HW2 1187   8.362   3.921   3.311 -1.1126  1.8548  0.1906
31784SOL     OW 1188   8.174   8.680   1.318 -0.4551  0.1987 -0.3629
31784SOL    HW1 1189   8.091   8.635   1.336  1.1974 -2.6626  0.6908
31784SOL    HW2 1190   8.168   8.705   1.226 -1.1496 -3.2104 -1.3650
31785SOL     OW 1191   7.784   0.904   0.057  0.4707 -0.2583 -0.1518
31785SOL    HW1 1192   7.752   0.831   0.110 -0.0815  0.5045  0.5759
31785SOL    HW2 1193   7.785   0.979   0.116 -0.1794  0.6201 -1.2199
31786SOL     OW 1194   8.194   8.135   8.963 -0.1823 -0.0306 -0.6078
31786SOL    HW1 1195   8.175   8.095   8.878  1.6894 -1.8581 -0.2630
31786SOL    HW2 1196   8.176   8.065   9.027 -1.4687  1.2709  0.5271
31787SOL     OW 1197   9.401   8.404   9.931  0.1875  0.5036 -0.2146
31787SOL    HW1 1198   9.381   8.486   9.886  0.1838  1.5764  1.6359
31787SOL    HW2 1199   9.496   8.394   9.925  0.0819  0.0550 -1.3610
31788SOL     OW 1200  12.057  11.617   0.638 -0.4135  0.0565 -0.0089
31788SOL    HW1 1201  12.064  11.712   0.636  1.0061 -0.0407 -1.7681
31788SOL    HW2 1202  12.029  11.592   0.550  1.0100 -1.2453 -0.1445
31789SOL     OW 1203   5.675   5.575   2.213  0.3580  0.4261  0.4210
31789SOL    HW1 1204   5.618   5.649   2.189  0.1390  0.6219  1.5118
31789SOL    HW2 1205   5.756   5.616   2.242  1.8529  0.1255 -2.8321
31790SOL     OW 1206   4.688   4.643   7.556  0.2709  0.4266  0.4183
31790SOL    HW1 1207   4.604   4.634   7.601  0.3915 -0.6799  0.4573
31790SOL    HW2 1208   4.699   4.560   7.509  2.1068 -0.1561  1.7557
31791SOL     OW 1209   4.384   1.779   3.839  0.5794 -0.1452 -0.1302
31791SOL    HW1 1210   4.438   1.793   3.761  1.6218  1.6389  0.8449
31791SOL    HW2 1211   4.371   1.684   3.843 -0.7695 -0.2000 -3.2584
31792SOL     OW 1212   1.385   1.792   2.352 -0.0369 -0.3680 -0.3104
31792SOL    HW1 1213   1.357   1.789   2.260  1.8446 -1.7423 -0.8896
31792SOL    HW2 1214   1.382   1.885   2.374  0.7041  0.1583 -2.1955
31793SOL     OW 1215   7.998   5.290   7.482 -0.1331 -0.0233 -0.9266
31793SOL    HW1 1216   7.972   5.327   7.567  2.2680 -1.5302  0.5845
31793SOL    HW2 1217   7.948   5.341   7.418 -1.6457  1.5530  1.3254
31794SOL     OW 1218   4.434  11.144  10.881  0.1974  0.0354  0.2990
31794SOL    HW1 1219   4.347  11.180  10.898 -0.0640 -1.1319  1.5757
31794SOL    HW2 1220   4.418  11.053  10.856  1.1168 -1.0169  3.1143
31795SOL     OW 1221   4.313   9.271   2.628 -0.1042  0.3904  0.4465
31795SOL    HW1 1222   4.361   9.351   2.649  0.2622  0.2952 -0.0005
31795SOL    HW2 1223   4.320   9.217   2.706 -0.1711  0.7108  0.6729
31796SOL     OW 1224   5.277   2.479   7.386 -0.0870  0.2378 -0.1705
31796SOL    HW1 1225   5.323   2.396   7.387 -1.9437 -0.8686 -1.0865
31796SOL    HW2 1226   5.308   2.523   7.307 -0.6817 -0.5493 -0.8514
31797SOL     OW 1227   4.558   4.752   4.007 -0.0760  0.3390 -1.1149
31797SOL    HW1 1228   4.614   4.682   4.038  0.1630  1.5227  1.3146
31797SOL    HW2 1229   4.550   4.736   3.913  2.6519 -1.0219 -1.2070
31798SOL     OW 1230  11.960   2.873   5.837 -0.1380 -0.3975  0.0142
31798SOL    HW1 1231  12.001   2.799   5.881 -3.5843 -1.6977  1.3799
31798SOL    HW2 1232  11.937   2.934   5.907  1.0406  1.1831 -0.9121
31799SOL     OW 1233   8.169   0.293   2.065  0.3647  0.1564 -0.0073
31799SOL    HW1 1234   8.089   0.328   2.028 -1.1170 -2.1001  0.8265
31799SOL    HW2 1235   8.221   0.370   2.088 -1.6556  1.7000 -0.3391
31800SOL     OW 1236  11.273   7.075   7.631 -0.0896  0.1220 -0.1597
31800SOL    HW1 1237  11.267   7.155   7.683  0.7321 -1.6200  2.8618
31800SOL    HW2 1238  11.331   7.097   7.558  2.2376  1.6577  1.9903
31801SOL     OW 1239  12.165   2.413   0.679 -0.2586 -0.5820  1.1037
31801SOL    HW1 1240  12.103   2.471   0.635  1.5964  0.8963  0.3262
31801SOL    HW2 1241  12.188   2.460   0.759  1.1376 -0.2873  0.5478
31802SOL     OW 1242   6.161   0.225   1.855  0.0633  0.2947 -0.2841
31802SOL    HW1 1243   6.216   0.296   1.886 -1.8079  1.9777 -0.5582
31802SOL    HW2 1244   6.082   0.231   1.908  0.2639 -2.3409  0.4442
31803SOL     OW 1245   6.822   2.167   2.109 -0.1917  0.1767  0.3562
31803SOL    HW1 1246   6.788   2.245   2.065 -0.7050 -0.8532 -1.1537
31803SOL    HW2 1247   6.752   2.142   2.170 -0.0529  0.8420  0.7991
31804SOL     OW 1248   3.284   9.958   1.486  0.3270  0.1225  0.4762
31804SOL    HW1 1249   3.203   9.981   1.441 -0.1883 -0.6345  0.9916
31804SOL    HW2 1250   3.321  10.041   1.516 -1.1898  0.3492  1.8149
31805SOL     OW 1251   1.661   6.516   2.399 -0.3523 -0.7705  0.2222
31805SOL    HW1 1252   1.615   6.537   2.480 -1.9934 -0.6155 -0.7047
31805SOL    HW2 1253   1.608   6.556   2.330  1.1276 -0.6980 -0.9282
31806SOL     OW 1254   4.394  11.398   6.846  0.3896  0.1454 -0.1419
31806SOL    HW1 1255   4.369  11.307   6.834  1.2409 -0.3539  1.5647
31806SOL    HW2 1256   4.314  11.442   6.874 -0.0756 -0.0025 -1.1875
31807SOL     OW 1257   2.995   4.839   4.058  0.5625  0.4976 -0.4155
31807SOL    HW1 1258   2.905   4.866   4.044  0.6055  0.7581 -0.2184
31807SOL    HW2 1259   2.995   4.801   4.146  0.8553  1.5142  0.0494
31808SOL     OW 1260   0.206   6.531   8.672  0.2862  0.0025 -0.4349
31808SOL    HW1 1261   0.243   6.563   8.590  2.5939  0.7202  0.7617
31808SOL    HW2 1262   0.258   6.453   8.692  1.1344  0.9285  1.2234
31809SOL     OW 1263   3.109   9.208   1.488 -0.2985  0.0889 -0.0510
31809SOL    HW1 1264   3.021   9.242   1.473 -0.1002  1.0023  0.7460
31809SOL    HW2 1265   3.116   9.201   1.583  0.9837  1.4218 -0.0151
31810SOL     OW 1266   2.158   0.112   5.185 -0.3711  0.4189  0.0304
31810SOL    HW1 1267   2.197   0.156   5.261  1.3366 -0.1434 -0.4710
31810SOL    HW2 1268   2.143   0.183   5.122 -3.0606  1.1150  1.2889
31811SOL     OW 1269   3.766   3.022   5.805 -0.2687 -0.3314 -0.0405
31811SOL    HW1 1270   3.859   2.998   5.797 -0.1696 -2.0799  3.6715
31811SOL    HW2 1271   3.720   2.940   5.791 -1.1172  0.1709 -0.2081
31812SOL     OW 1272   9.853   5.599   7.314 -0.2467  0.2275 -0.4250
31812SOL    HW1 1273   9.793   5.560   7.378  0.6993 -0.7394 -0.0932
31812SOL    HW2 1274   9.935   5.609   7.362  0.0176  1.0268 -1.0277
31813SOL     OW 1275   9.089   4.890   1.300  0.2988  0.4125 -0.2274
31813SOL    HW1 1276   9.152   4.870   1.369  0.3947 -1.6200 -0.8269
31813SOL    HW2 1277   9.044   4.807   1.284  0.7139  0.6284 -3.0043
31814SOL     OW 1278   0.739   0.459   0.838 -0.2138  0.1244  0.0333
31814SOL    HW1 1279   0.756   0.545   0.876  1.4686 -0.1495 -0.0639
31814SOL    HW2 1280   0.769   0.396   0.904  1.9673 -0.3573 -1.3024
31815SOL     OW 1281   4.938   9.116   7.393  0.7262  0.5308  0.1793
31815SOL    HW1 1282   4.843   9.118   7.386  0.5749  0.2704  1.7901
31815SOL    HW2 1283   4.967   9.065   7.317 -0.4584  0.1139 -0.0099
31816SOL     OW 1284   3.664  11.074   3.438  0.0383  0.0610 -0.2334
31816SOL    HW1 1285   3.596  11.104   3.498  0.4660 -0.7412  0.6760
31816SOL    HW2 1286   3.631  11.098   3.351 -1.1566  0.1639  0.2281
31817SOL     OW 1287  12.092   7.617   6.950  0.4450 -0.7397 -0.0885
31817SOL    HW1 1288  12.040   7.659   6.883 -0.8219 -2.6365 -0.3774
31817SOL    HW2 1289  12.143   7.550   6.904  1.4353 -0.4228  0.5078
31818SOL     OW 1290   5.512   7.568   7.695  0.1309  0.0293  0.4574
31818SOL    HW1 1291   5.511   7.478   7.662 -1.1829  1.1329 -3.0426
31818SOL    HW2 1292   5.523   7.559   7.789  0.0573 -3.7726  0.2718
31819SOL     OW 1293  10.536   9.213  10.196 -0.7112  0.2282 -0.2821
31819SOL    HW1 1294  10.518   9.288  10.138  2.2309  0.9575 -0.4018
31819SOL    HW2 1295  10.542   9.138  10.137 -2.0238  0.1526 -0.3535
31820SOL     OW 1296   8.503   5.051  12.316 -0.1831  0.0997  0.2594
31820SOL    HW1 1297   8.431   4.992  12.340  1.6052 -2.5117 -0.3504
31820SOL    HW2 1298   8.516   5.105  12.394 -2.1634  0.0082  0.7169
31821SOL     OW 1299   8.888  12.315  11.842  0.5049  1.0202  0.2376
31821SOL    HW1 1300   8.917  12.306  11.751  0.6768 -0.3986  0.4061
31821SOL    HW2 1301   8.794  12.296  11.839  0.6583  0.1691  0.4491
31822SOL     OW 1302   7.866  10.932   5.453 -0.3504  0.1908  0.2776
31822SOL    HW1 1303   7.826  10.894   5.532  1.2295 -0.1063  0.9745
31822SOL    HW2 1304   7.817  10.893   5.380 -1.9257  0.5652  1.0897
31823SOL     OW 1305  11.006   9.852   1.262  0.3016 -0.5924  1.3192
31823SOL    HW1 1306  11.020   9.761   1.238  0.6102 -0.6391  1.6688
31823SOL    HW2 1307  11.054   9.902   1.197  0.0063 -0.6704  1.0363
31824SOL     OW 1308   1.011   1.454  11.616 -0.3647  0.5429 -0.5678
31824SOL    HW1 1309   1.005   1.359  11.623  0.0240  0.5020 -0.7793
31824SOL    HW2 1310   1.104   1.471  11.601 -0.4182  0.9619 -0.4349
31825SOL     OW 1311  10.917   4.578   5.420 -0.3757 -0.5605 -0.3327
31825SOL    HW1 1312  10.920   4.500   5.364  2.4627 -0.5541 -0.3315
31825SOL    HW2 1313  10.886   4.545   5.505  0.2575 -1.6023 -0.4861
31826SOL     OW 1314   5.124   6.323   9.499  0.3244  0.1316  0.4313
31826SOL    HW1 1315   5.066   6.367   9.437 -2.1069 -0.4299  2.1609
31826SOL    HW2 1316   5.117   6.374   9.580  2.4192  0.1256  0.6831
31827SOL     OW 1317   0.431  10.578   6.906  0.2802  0.0635 -0.1612
31827SOL    HW1 1318   0.433  10.483   6.915 -0.5911  0.1341  1.0676
31827SOL    HW2 1319   0.521  10.602   6.883  0.4542 -1.0668 -0.7223
31828SOL     OW 1320   4.422   3.033   9.373  0.2494  0.0964 -0.0186
31828SOL    HW1 1321   4.443   3.119   9.335  1.0611 -0.3825 -0.6860
31828SOL    HW2 1322   4.474   3.030   9.453  1.1731 -0.2408 -0.6078
31829SOL     OW 1323   3.608   5.778   7.886  0.0444 -0.1672 -0.2480
31829SOL    HW1 1324   3.587   5.707   7.946 -0.2515 -0.4791 -0.7072
31829SOL    HW2 1325   3.524   5.799   7.843 -0.0358  0.9642  0.4026
31830SOL     OW 1326   7.506   1.819   0.137  0.0259 -0.5282 -0.1750
31830SOL    HW1 1327   7.551   1.879   0.196  1.2074  1.0255 -2.5221
31830SOL    HW2 1328   7.429   1.867   0.108  1.0642 -0.0104 -2.2010
31831SOL     OW 1329   5.181   7.415   4.562 -0.2483  0.1278 -0.5830
31831SOL    HW1 1330   5.241   7.489   4.562  0.2018 -0.1728  1.3806
31831SOL    HW2 1331   5.207   7.362   4.487  0.5074  1.1178 -1.0317
31832SOL     OW 1332  10.760   9.953   4.037  0.4584 -0.0258 -0.3712
31832SOL    HW1 1333  10.711   9.872   4.036  0.1154  0.1376  1.1205
31832SOL    HW2 1334  10.711  10.011   4.095  1.5106  0.7193 -0.1844
31833SOL     OW 1335   2.967   2.228   8.011  0.3224  0.0679 -0.1847
31833SOL    HW1 1336   3.025   2.294   7.975  0.4073  0.4398  0.6110
31833SOL    HW2 1337   2.940   2.176   7.935  1.5180  0.0132 -0.6006
31834SOL     OW 1338   6.460   5.960   4.127 -0.4603  0.5599  0.0818
31834SOL    HW1 1339   6.487   5.952   4.219 -0.9650  0.2161  0.2039
31834SOL    HW2 1340   6.436   6.052   4.117 -0.1687  0.6547  0.2242
31835SOL     OW 1341  12.260   6.796   9.387 -0.4757 -0.6887 -0.3141
31835SOL    HW1 1342  12.189   6.859   9.398 -0.8633 -1.2567  0.4443
31835SOL    HW2 1343  12.315   6.835   9.318  0.5351  1.6160  1.6582
31836SOL     OW 1344   3.223  11.819   8.120 -0.1542  0.0248 -0.0712
31836SOL    HW1 1345   3.280  11.751   8.157  0.4717  0.3090 -0.5036
31836SOL    HW2 1346   3.253  11.829   8.030  0.9630  2.1472  0.4853
31837SOL     OW 1347   1.202   8.354   2.577 -0.3491  0.3078  0.6450
31837SOL    HW1 1348   1.248   8.296   2.638 -0.2385  0.0487  0.3182
31837SOL    HW2 1349   1.196   8.304   2.496 -1.2823  0.3024  0.7032
31838SOL     OW 1350   7.321   2.932   0.847  0.5247  0.1828 -0.2447
31838SOL    HW1 1351   7.331   2.898   0.936 -1.4297  1.6447  0.5975
31838SOL    HW2 1352   7.227   2.947   0.837  0.7273  0.3090 -2.4831
31839SOL     OW 1353   5.498   5.101   8.734 -0.4571 -0.1142 -0.1703
31839SOL    HW1 1354   5.406   5.086   8.756 -0.6855  0.5787 -0.6274
31839SOL    HW2 1355   5.503   5.086   8.640  0.0333 -0.7685 -0.0451
31840SOL     OW 1356   7.254   9.473   4.251 -0.2675  0.3020  0.0460
31840SOL    HW1 1357   7.228   9.543   4.190  0.6193 -0.6962 -1.5517
31840SOL    HW2 1358   7.171   9.441   4.287 -0.9251  0.1942 -1.4905
31841SOL     OW 1359  10.141   4.755   0.510  0.0212  0.3780 -0.1862
31841SOL    HW1 1360  10.140   4.663   0.486  2.9373 -0.0049  0.8001
31841SOL    HW2 1361  10.159   4.755   0.604  0.0916  1.9558 -0.1702
31842SOL     OW 1362   9.922   2.059  10.823 -0.3800  0.3577 -0.3151
31842SOL    HW1 1363   9.833   2.081  10.850 -0.5255 -1.1028  0.4855
31842SOL    HW2 1364   9.967   2.037  10.904 -0.5807 -3.2332 -0.9942
31843SOL     OW 1365   2.068   7.737   7.204  0.2867  0.3018  0.4463
31843SOL    HW1 1366   2.090   7.826   7.176  0.7806 -0.6167 -2.3627
31843SOL    HW2 1367   2.148   7.704   7.245  0.8220  0.4481 -0.4533
31844SOL     OW 1368   5.487  12.169  11.160  0.0241  0.1440  0.7177
31844SOL    HW1 1369   5.496  12.237  11.227  0.7175 -1.1356  1.9750
31844SOL    HW2 1370   5.460  12.091  11.209 -2.4915 -0.1000 -0.9121
31845SOL     OW 1371   2.659   5.708   0.529  0.7310 -0.2283  0.4214
31845SOL    HW1 1372   2.742   5.717   0.577 -0.3407 -0.0673  2.3704
31845SOL    HW2 1373   2.615   5.791   0.543 -0.1196 -0.6291  0.1414
31846SOL     OW 1374   4.633   9.817   5.162 -0.2345 -0.2189 -0.4289
31846SOL    HW1 1375   4.669   9.741   5.117 -0.8150 -0.0491 -1.2075
31846SOL    HW2 1376   4.628   9.885   5.094  2.1713  1.1998  0.6932
31847SOL     OW 1377  10.309   5.413   0.562  0.1182 -0.3640  0.6011
31847SOL    HW1 1378  10.246   5.361   0.612 -1.0457  0.9876  0.6320
31847SOL    HW2 1379  10.281   5.403   0.471 -0.4113  0.5394  0.6500
31848SOL     OW 1380   2.226  11.551   8.505 -0.3497  0.5653 -0.2365
31848SOL    HW1 1381   2.222  11.633   8.554 -0.5629  1.0803 -1.0819
31848SOL    HW2 1382   2.313  11.551   8.465 -0.3569  0.3986 -0.2527
31849SOL     OW 1383   9.515   1.091  12.109 -0.0712  0.1944  0.6168
31849SOL    HW1 1384   9.420   1.103  12.097 -0.1467 -0.6883  0.2762
31849SOL    HW2 1385   9.554   1.169  12.071 -0.6088  0.0030 -0.3439
31850SOL     OW 1386   7.603   8.831   9.844  0.4339 -0.1253 -0.1709
31850SOL    HW1 1387   7.577   8.761   9.904  2.3927 -0.5264  0.3024
31850SOL    HW2 1388   7.699   8.833   9.850  0.6508  0.4294 -2.6225
31851SOL     OW 1389   6.039  10.080   0.850  0.5720  0.0999  0.4959
31851SOL    HW1 1390   5.957  10.032   0.833 -1.1494  2.6986  0.8503
31851SOL    HW2 1391   6.081  10.087   0.765 -0.3898  0.0928  0.0023
31852SOL     OW 1392   6.157  10.531   6.006  0.7399  0.0711 -0.3038
31852SOL    HW1 1393   6.214  10.554   5.933  1.8319 -0.2023  0.4464
31852SOL    HW2 1394   6.167  10.603   6.068  0.5776 -0.1705  0.0073
31853SOL     OW 1395  11.123  10.180   1.819 -0.0858 -0.1552 -0.1362
31853SOL    HW1 1396  11.168  10.241   1.760  2.8050  0.1479  2.1163
31853SOL    HW2 1397  11.160  10.095   1.797 -0.5891 -0.3670 -0.1617
31854SOL     OW 1398   0.934   6.820   6.028  0.0136 -0.3960  0.6214
31854SOL    HW1 1399   0.937   6.788   6.118  0.2896 -2.8232 -0.1840
31854SOL    HW2 1400   0.848   6.861   6.020 -0.1658 -0.4930  1.8912
31855SOL     OW 1401   4.798   7.194   9.423 -0.3810  0.1672  0.2927
31855SOL    HW1 1402   4.888   7.226   9.428 -0.7659  1.2221  1.1301
31855SOL    HW2 1403   4.796   7.118   9.481  0.0390 -0.0175  0.0649
31856SOL     OW 1404  10.663   6.585  11.470  0.0187 -0.0582  0.0854
31856SOL    HW1 1405  10.611   6.522  11.418  0.9574 -0.5828 -0.2436
31856SOL    HW2 1406  10.652   6.668  11.424 -0.1893 -0.2511 -0.2235
31857SOL     OW 1407   1.196  10.737   3.785 -0.1005 -0.2181 -0.2006
31857SOL    HW1 1408   1.112  10.746   3.741 -0.5890  1.9667  1.0695
31857SOL    HW2 1409   1.245  10.815   3.761 -0.6151  1.4344  3.4278
31858SOL     OW 1410   3.655   4.568   4.463 -0.0024  0.3680  0.3003
31858SOL    HW1 1411   3.719   4.629   4.499  0.5886 -0.9154  1.5648
31858SOL    HW2 1412   3.708   4.498   4.424 -0.6571  0.6353 -1.1028
31859SOL     OW 1413   3.903   0.559   7.838 -0.4787 -0.2105  0.9826
31859SOL    HW1 1414   3.898   0.634   7.897 -0.6217  2.2738 -1.9313
31859SOL    HW2 1415   3.992   0.563   7.802 -0.6504 -1.1545  0.4372
31860SOL     OW 1416  11.540   4.508  10.725  0.3983  0.2098  0.6589
31860SOL    HW1 1417  11.463   4.454  10.709 -1.6646  2.7014  1.4447
31860SOL    HW2 1418  11.542   4.520  10.820 -0.6804  3.2721  0.4266
31861SOL     OW 1419   0.602   1.388  10.680  0.0556 -0.2559 -0.0654
31861SOL    HW1 1420   0.575   1.339  10.758 -1.9636  0.0551 -0.5187
31861SOL    HW2 1421   0.540   1.460  10.675  0.3122 -0.1260 -1.8265
31862SOL     OW 1422   4.953   3.391   3.575 -0.4496 -0.0808 -0.2968
31862SOL    HW1 1423   4.956   3.440   3.658  0.3284  0.4060 -0.5968
31862SOL    HW2 1424   4.882   3.329   3.587 -0.2224 -0.1611  0.8268
31863SOL     OW 1425  10.014  10.465   1.484 -0.2083 -0.3581  0.2213
31863SOL    HW1 1426   9.970  10.380   1.479 -2.8656  0.8360  1.3227
31863SOL    HW2 1427   9.952  10.526   1.444  1.0632  1.2570  0.6271
31864SOL     OW 1428  10.311   1.125  11.636 -0.6232  0.8101  0.0041
31864SOL    HW1 1429  10.293   1.040  11.594  1.0578 -0.0974  1.0248
31864SOL    HW2 1430  10.398   1.115  11.674 -0.6194  2.8307  0.6318
31865SOL     OW 1431   5.248   1.170   9.358  0.3255  0.1526 -0.5591
31865SOL    HW1 1432   5.325   1.116   9.337 -1.4843 -3.2080  0.6428
31865SOL    HW2 1433   5.284   1.258   9.372  3.3045 -0.1924 -4.3269
31866SOL     OW 1434  12.012   9.817   3.390  0.1697  0.1201  0.1976
31866SOL    HW1 1435  11.951   9.753   3.426  1.9619 -2.3288 -0.8677
31866SOL    HW2 1436  12.058   9.852   3.467 -0.0006 -0.7905  0.7287
31867SOL     OW 1437   3.718   5.845   9.058  0.1824 -0.2667  0.3239
31867SOL    HW1 1438   3.781   5.907   9.021 -0.1997 -0.5828 -0.9421
31867SOL    HW2 1439   3.768   5.765   9.072  0.5856  0.1896  1.5796
31868SOL     OW 1440  11.240   9.726  10.874  0.0194  0.3573  0.2333
31868SOL    HW1 1441  11.306   9.762  10.934  0.0822 -2.2279  1.8776
31868SOL    HW2 1442  11.282   9.729  10.789  0.9869  1.6857  0.7123
31869SOL     OW 1443   2.331   5.197  11.420  0.0379 -0.3523 -0.1631
31869SOL    HW1 1444   2.395   5.193  11.490 -0.9627 -0.0539  0.7955
31869SOL    HW2 1445   2.319   5.291  11.404 -0.3869 -0.3990 -0.1222
31870SOL     OW 1446   2.530   1.055   8.742  0.2696 -0.1573 -0.3110
31870SOL    HW1 1447   2.435   1.066   8.729  0.2428  0.6264  0.5102
31870SOL    HW2 1448   2.566   1.052   8.653 -0.7913 -3.1777 -0.7767
31871SOL     OW 1449   6.309   5.767   8.321  0.4564 -0.1784  0.3325
31871SOL    HW1 1450   6.219   5.762   8.353  1.2839  0.2270  2.9278
31871SOL    HW2 1451   6.340   5.852   8.351  1.4168  0.1876 -1.5100
31872SOL     OW 1452   5.895   4.495   5.736 -0.2110 -0.2438 -0.5640
31872SOL    HW1 1453   5.815   4.487   5.788  0.4157 -1.0100  0.3300
31872SOL    HW2 1454   5.877   4.447   5.655 -0.8002 -0.0277 -0.5647
31873SOL     OW 1455   1.990   1.925  12.257 -0.3923 -0.1232 -0.6725
31873SOL    HW1 1456   2.037   1.953  12.178 -2.0521  1.8100 -1.0787
31873SOL    HW2 1457   2.045   1.956  12.329  0.7343 -1.1676 -1.0553
31874SOL     OW 1458   4.003  12.136   9.009  0.4125 -0.5077  0.0899
31874SOL    HW1 1459   3.935  12.087   8.964  0.6217  0.0673 -0.8784
31874SOL    HW2 1460   4.032  12.202   8.945 -2.1660  3.1621  2.2694
31875SOL     OW 1461  11.618  11.060   2.799 -0.3479  0.2219 -0.2491
31875SOL    HW1 1462  11.664  10.983   2.831 -0.8789 -0.8296 -1.8877
31875SOL    HW2 1463  11.688  11.123   2.781  0.2435 -0.4534 -0.3920
31876SOL     OW 1464  11.422   0.156   7.500 -0.1666  1.1903 -0.4350
31876SOL    HW1 1465  11.375   0.200   7.570 -0.5260 -2.0380  1.5263
31876SOL    HW2 1466  11.358   0.147   7.429 -1.7664 -0.6977  1.1430
31877SOL     OW 1467   2.692  10.914  10.920 -0.3552  0.1928 -0.1757
31877SOL    HW1 1468   2.677  10.830  10.963 -1.3956  0.0046 -0.8697
31877SOL    HW2 1469   2.670  10.980  10.986 -2.0800 -0.0907 -0.4458
31878SOL     OW 1470   8.425   5.742   3.730  0.3435  0.5564 -0.0057
31878SOL    HW1 1471   8.372   5.733   3.651  2.5076 -1.2864 -1.3854
31878SOL    HW2 1472   8.370   5.707   3.800 -1.3030  1.4378 -0.7910
31879SOL     OW 1473   7.032   4.151   3.499 -0.0210  0.3799  0.5209
31879SOL    HW1 1474   6.984   4.229   3.528 -2.7573 -0.3172 -1.7527
31879SOL    HW2 1475   7.120   4.184   3.480 -0.1671  2.2162  2.5725
31880SOL     OW 1476   0.119  11.404   5.957 -0.8407 -0.1905  0.2098
31880SOL    HW1 1477   0.113  11.500   5.950 -1.1116 -0.2206  0.0303
31880SOL    HW2 1478   0.161  11.377   5.876 -3.6394 -0.5072 -1.2309
31881SOL     OW 1479   0.526   5.063   5.638 -0.3194  0.4991 -0.0738
31881SOL    HW1 1480   0.563   5.110   5.563  0.5150 -2.1886 -1.4604
31881SOL    HW2 1481   0.454   5.011   5.602 -0.4885 -0.1923  1.1753
31882SOL     OW 1482   6.638  10.188  10.149  0.1138 -0.0818 -0.0270
31882SOL    HW1 1483   6.663  10.160  10.237 -0.6507  0.3342  0.3310
31882SOL    HW2 1484   6.690  10.132  10.091 -0.7037 -1.6281  0.6699
31883SOL     OW 1485   7.557   8.729   1.059 -1.0252 -0.3316 -0.1318
31883SOL    HW1 1486   7.556   8.641   1.097 -0.5003  0.1574  1.0790
31883SOL    HW2 1487   7.591   8.717   0.971 -0.7970 -1.3323  0.0814
31884SOL     OW 1488   9.427  10.358   2.543 -0.1472  0.0889 -0.2969
31884SOL    HW1 1489   9.458  10.268   2.534 -2.0708 -0.7135  0.4678
31884SOL    HW2 1490   9.457  10.384   2.630 -0.7262 -0.3354  0.0436
31885SOL     OW 1491  12.145   8.391   7.521 -0.2267  0.2296 -0.1776
31885SOL    HW1 1492  12.121   8.482   7.536  1.1445  0.8027 -1.2416
31885SOL    HW2 1493  12.155   8.353   7.609 -1.2474  0.9590  0.2668
31886SOL     OW 1494  12.311  10.602   5.720  0.1339 -0.0048  0.2376
31886SOL    HW1 1495  12.380  10.662   5.694 -1.1971  0.6425 -2.1124
31886SOL    HW2 1496  12.239  10.658   5.750 -0.7927 -0.4069 -1.1292
31887SOL     OW 1497   5.718   6.643  10.693 -0.1946 -0.5490 -0.2019
31887SOL    HW1 1498   5.740   6.735  10.677  0.2143 -0.6854 -0.4412
31887SOL    HW2 1499   5.624   6.643  10.710 -0.0346  0.0523  0.7908
31888SOL     OW 1500   7.909   5.957   6.083  0.3311 -0.6432  0.0532
31888SOL    HW1 1501   7.933   5.966   6.175  1.0505  0.8434 -0.2402
31888SOL    HW2 1502   7.993   5.960   6.036 -0.1683  1.8484 -0.8254
31889SOL     OW 1503   0.664   4.948   6.038  0.0467 -0.2168 -0.8739
31889SOL    HW1 1504   0.706   5.000   6.106  1.9482 -1.2196 -1.1968
31889SOL    HW2 1505   0.703   4.980   5.956 -0.4870 -0.5947 -1.2847
31890SOL     OW 1506   6.448   9.919  10.858 -0.4377 -0.3067  0.0155
31890SOL    HW1 1507   6.513   9.850  10.847 -0.4528 -0.3617  0.2778
31890SOL    HW2 1508   6.439   9.958  10.771 -1.9033 -1.9360 -0.6134
31891SOL     OW 1509   4.660   6.196   4.641  0.5185 -0.1347 -0.1293
31891SOL    HW1 1510   4.679   6.213   4.548 -0.8783  0.6016 -0.3091
31891SOL    HW2 1511   4.621   6.108   4.641 -1.7462  0.7960 -0.6212
31892SOL     OW 1512  10.722  11.753   9.626  0.6553  0.2371 -0.2005
31892SOL    HW1 1513  10.741  11.710   9.543  1.2061  0.6822 -0.3098
31892SOL    HW2 1514  10.807  11.780   9.659  0.3576  0.8412  0.0864
31893SOL     OW 1515   9.880   2.532   8.767  0.3976  0.1436 -0.5419
31893SOL    HW1 1516   9.799   2.557   8.723  0.2564 -0.0190 -0.3755
31893SOL    HW2 1517   9.855   2.461   8.825  0.4054  0.9705  0.4963
31894SOL     OW 1518   6.720   2.684   8.718 -0.0286  0.4222 -0.7861
31894SOL    HW1 1519   6.780   2.622   8.759 -0.7697 -0.1643 -0.5690
31894SOL    HW2 1520   6.633   2.644   8.728 -0.9229  2.6505  1.6703
31895SOL     OW 1521   2.832   2.203  10.210  0.0836 -0.7167 -0.2055
31895SOL    HW1 1522   2.876   2.286  10.194  1.8782 -1.7540 -0.8839
31895SOL    HW2 1523   2.843   2.154  10.129 -1.2457 -1.5263  0.0649
31896SOL     OW 1524   2.452   9.021  12.290  0.6045 -0.0860 -0.0831
31896SOL    HW1 1525   2.495   9.057  12.368 -0.1178  0.4716  0.0745
31896SOL    HW2 1526   2.374   8.976  12.324 -1.5210  2.8364 -0.6185
31897SOL     OW 1527   1.267   9.492   1.838  0.5267 -0.1973 -0.3814
31897SOL    HW1 1528   1.319   9.569   1.817  1.8924 -0.7028  0.9622
31897SOL    HW2 1529   1.197   9.491   1.772 -0.9343  3.4158  0.8814
31898SOL     OW 1530   1.668   9.872   1.651 -0.0648 -0.3501  0.1832
31898SOL    HW1 1531   1.583   9.872   1.608 -0.8000  0.8753  1.5226
31898SOL    HW2 1532   1.730   9.845   1.584 -1.3018  0.4089 -1.3110
31899SOL     OW 1533   5.243   8.450   4.330 -0.1712 -0.0181 -0.1408
31899SOL    HW1 1534   5.283   8.520   4.279 -1.6110  0.0874 -1.1996
31899SOL    HW2 1535   5.229   8.380   4.266  0.6651 -1.0489  0.7698
31900SOL     OW 1536   9.888  11.212   8.635 -0.4599  0.3486  0.3101
31900SOL    HW1 1537   9.951  11.221   8.563  0.1569 -0.3767  0.7363
31900SOL    HW2 1538   9.943  11.198   8.712 -1.1238 -2.7582  0.3484
31901SOL     OW 1539   6.706   2.134   1.228  0.4607 -0.2090 -0.2221
31901SOL    HW1 1540   6.752   2.051   1.214 -0.6306 -0.8229 -0.2647
31901SOL    HW2 1541   6.635   2.113   1.288  0.1173  0.6737 -0.2991
31902SOL     OW 1542   7.623   9.504   8.893  0.2194 -0.1277 -0.4618
31902SOL    HW1 1543   7.642   9.540   8.807 -2.0349 -1.4271 -1.6093
31902SOL    HW2 1544   7.533   9.471   8.886 -0.7190  1.2621  2.9181
31903SOL     OW 1545  11.764  11.309   6.124  0.9301 -0.5178 -0.5809
31903SOL    HW1 1546  11.741  11.285   6.035  0.1560  0.2106 -0.5853
31903SOL    HW2 1547  11.860  11.310   6.124  0.9645 -1.9195 -1.0071
31904SOL     OW 1548   3.486   3.446   1.361 -0.2592 -0.3000  0.7158
31904SOL    HW1 1549   3.555   3.472   1.421 -0.5385 -2.8177  2.2711
31904SOL    HW2 1550   3.410   3.497   1.389  0.1729  0.1724  1.0508
31905SOL     OW 1551   2.316   5.305   2.964 -0.3781 -0.3334 -0.1776
31905SOL    HW1 1552   2.380   5.324   3.033 -1.5960 -0.1761  0.9578
31905SOL    HW2 1553   2.278   5.390   2.942  0.7012 -0.2335 -1.8063
31906SOL     OW 1554   2.181  11.192   5.686  0.3466 -0.5003 -0.2773
31906SOL    HW1 1555   2.259  11.195   5.742  0.7427  0.5053 -0.8585
31906SOL    HW2 1556   2.193  11.264   5.625  0.3922 -2.1301 -2.2926
31907SOL     OW 1557   2.818   4.715   6.099  0.2740 -0.0973 -0.3463
31907SOL    HW1 1558   2.783   4.800   6.070 -0.0351 -0.5982 -1.5122
31907SOL    HW2 1559   2.745   4.673   6.145  0.1450 -0.0905 -0.5427
31908SOL     OW 1560   3.678   2.691   7.597 -0.8036  0.0814 -0.5339
31908SOL    HW1 1561   3.703   2.605   7.632  0.2653 -0.0972 -1.6631
31908SOL    HW2 1562   3.633   2.672   7.516  0.6017  0.5919 -1.4768
31909SOL     OW 1563   7.689   6.833   8.745 -0.5972 -0.3004  0.4639
31909SOL    HW1 1564   7.691   6.755   8.801  0.2067 -0.0869  0.7404
31909SOL    HW2 1565   7.597   6.859   8.744 -0.8880 -1.2638  0.3438
31910SOL     OW 1566   3.342   1.192   2.118  0.1448  0.1469 -0.4344
31910SOL    HW1 1567   3.384   1.277   2.107 -0.1794  0.4572  0.6761
31910SOL    HW2 1568   3.294   1.199   2.200 -0.2977 -0.9427 -0.5868
31911SOL     OW 1569   5.154   9.198   4.248 -0.1082 -0.4252 -0.0325
31911SOL    HW1 1570   5.165   9.231   4.337  1.9134  0.3945 -0.5064
31911SOL    HW2 1571   5.244   9.182   4.218 -0.4143  2.2436 -2.9359
31912SOL     OW 1572   3.298   6.391  10.354  0.3541  0.3351 -0.4553
31912SOL    HW1 1573   3.322   6.298  10.353  0.8568  0.4534 -0.0746
31912SOL    HW2 1574   3.288   6.414  10.261  0.4454 -0.0431 -0.5620
31913SOL     OW 1575   7.832   2.930   1.127 -0.0323  0.1425 -0.3348
31913SOL    HW1 1576   7.830   2.836   1.147  0.6391  0.2242  0.1490
31913SOL    HW2 1577   7.921   2.946   1.095 -0.5910  0.3387 -1.8656
31914SOL     OW 1578   5.756   9.193   5.101  0.2164 -0.1736 -0.4540
31914SOL    HW1 1579   5.725   9.109   5.065 -0.8074 -0.0175  0.0361
31914SOL    HW2 1580   5.710   9.259   5.050  0.3732  0.0772 -0.2714
31915SOL     OW 1581   1.563   2.843   4.870 -0.1576  0.3517  0.2853
31915SOL    HW1 1582   1.552   2.809   4.959 -1.4624 -1.9365 -0.6899
31915SOL    HW2 1583   1.483   2.819   4.825  0.6688  1.0815 -1.6726
31916SOL     OW 1584   8.530   8.571  11.853 -0.0163  1.0522  0.2493
31916SOL    HW1 1585   8.449   8.551  11.899 -0.1461  0.0855 -0.3638
31916SOL    HW2 1586   8.594   8.510  11.890  0.1039  0.9102 -0.1829
31917SOL     OW 1587   6.890   1.182   4.413 -0.7761  0.5650 -0.2343
31917SOL    HW1 1588   6.835   1.106   4.394  1.7278 -1.4223 -0.0364
31917SOL    HW2 1589   6.892   1.186   4.509 -1.1547  1.1243 -0.2428
31918SOL     OW 1590   5.637   3.845   1.295 -0.4187  0.4419  0.4693
31918SOL    HW1 1591   5.584   3.830   1.217  1.2625  1.3128 -0.9010
31918SOL    HW2 1592   5.655   3.757   1.329 -1.4121  0.0699  0.0610
31919SOL     OW 1593   0.330  10.572   1.626 -0.4279  0.0390 -0.1382
31919SOL    HW1 1594   0.283  10.575   1.709 -1.0224  0.8678 -0.5032
31919SOL    HW2 1595   0.369  10.659   1.617 -0.2529 -0.0922 -0.6649
31920SOL     OW 1596   8.792  10.710   1.423  0.4120  0.3108 -0.4134
31920SOL    HW1 1597   8.870  10.660   1.447  1.2828  1.1000 -1.4804
31920SOL    HW2 1598   8.759  10.667   1.343 -0.0139  0.2321 -0.2007
31921SOL     OW 1599  10.334   4.950   6.878 -0.1638  0.2671  0.3223
31921SOL    HW1 1600  10.361   5.036   6.911 -1.5096  0.8008  0.0917
31921SOL    HW2 1601  10.271   4.970   6.809 -1.7547 -0.9169  1.3682
31922SOL     OW 1602   2.553   3.292  12.028 -0.1872  0.2537 -0.8476
31922SOL    HW1 1603   2.494   3.225  11.993  1.6921 -0.6581 -2.4919
31922SOL    HW2 1604   2.530   3.299  12.120 -0.5002 -2.6602 -0.6217
31923SOL     OW 1605   4.248   7.568   1.011  0.6414 -0.1259  0.0380
31923SOL    HW1 1606   4.225   7.647   0.963  2.3907  0.1152 -0.4559
31923SOL    HW2 1607   4.173   7.510   0.999  0.2904  0.6042 -1.5013
31924SOL     OW 1608   2.928   0.175   2.375 -0.0458 -0.5439 -0.0705
31924SOL    HW1 1609   2.991   0.233   2.417 -0.5817 -0.9930  1.3916
31924SOL    HW2 1610   2.875   0.233   2.320 -0.2103  0.2853  0.9318
31925SOL     OW 1611   6.306   6.368   7.495 -0.1962 -0.0245  0.3487
31925SOL    HW1 1612   6.391   6.377   7.452  0.6825 -1.6103  1.6725
31925SOL    HW2 1613   6.325   6.330   7.580 -1.9660  2.3680  1.9268
31926SOL     OW 1614   8.606   9.793   7.159 -0.1105  0.2861  0.7481
31926SOL    HW1 1615   8.593   9.716   7.214  1.4531 -1.4362 -1.1352
31926SOL    HW2 1616   8.691   9.828   7.186  0.9586 -0.9303 -0.8709
31927SOL     OW 1617   4.666   2.866   4.452  0.2546 -0.3659  0.3409
31927SOL    HW1 1618   4.637   2.855   4.362 -1.3090 -0.4319  0.8257
31927SOL    HW2 1619   4.744   2.922   4.446  0.6169 -0.9864 -1.0862
31928SOL     OW 1620   6.285  10.654   8.914  0.0559  0.1976 -0.5703
31928SOL    HW1 1621   6.278  10.725   8.849 -2.1814  0.2251 -0.3794
31928SOL    HW2 1622   6.360  10.678   8.968  1.8968  0.2795 -2.9790
31929SOL     OW 1623   1.830   9.623   9.251 -0.1043 -0.4203 -0.4661
31929SOL    HW1 1624   1.800   9.672   9.175  0.0947 -0.8342 -0.8180
31929SOL    HW2 1625   1.759   9.561   9.269  0.5860 -1.5232 -1.4089
31930SOL     OW 1626   7.058   1.644   6.612  0.0513 -0.4897  0.3048
31930SOL    HW1 1627   7.137   1.697   6.618 -0.1883 -0.0722 -0.0765
31930SOL    HW2 1628   7.034   1.647   6.519 -0.5185 -0.4388  0.4466
31931SOL     OW 1629   9.765   8.124   0.389  0.3361 -0.3629 -0.0330
31931SOL    HW1 1630   9.804   8.068   0.321 -0.0612  0.2776 -0.7994
31931SOL    HW2 1631   9.808   8.096   0.470  0.3677 -1.5684 -0.4433
31932SOL     OW 1632   5.425  10.810   0.273 -0.0036 -0.0303 -0.1760
31932SOL    HW1 1633   5.519  10.795   0.264 -0.0283  0.6197 -1.9169
31932SOL    HW2 1634   5.411  10.898   0.237 -1.2892 -0.1707 -0.0822
31933SOL     OW 1635   3.246   7.940   4.405  0.4667 -0.2459 -0.3417
31933SOL    HW1 1636   3.235   8.033   4.390  0.5746  0.7435  4.1359
31933SOL    HW2 1637   3.341   7.926   4.399  0.5787  0.2573  0.1168
31934SOL     OW 1638   6.206   7.257   9.614 -0.0689  0.5188 -0.1816
31934SOL    HW1 1639   6.141   7.283   9.550  0.0996 -0.1158 -0.6201
31934SOL    HW2 1640   6.159   7.201   9.675  0.1618 -0.3430 -0.7772
31935SOL     OW 1641   5.664  10.190   1.342  0.3832  0.4940 -0.3661
31935SOL    HW1 1642   5.644  10.166   1.433  0.2848  1.1968 -0.1885
31935SOL    HW2 1643   5.751  10.153   1.326  0.9120  1.3478  0.4151
31936SOL     OW 1644   0.856   5.731   0.878  0.1255  0.1856 -0.4014
31936SOL    HW1 1645   0.842   5.815   0.922  0.1243 -0.2377  0.4321
31936SOL    HW2 1646   0.889   5.673   0.947  0.1936 -0.4807 -0.9802
31937SOL     OW 1647   2.699   9.625   7.591  0.2086 -0.3450  0.0271
31937SOL    HW1 1648   2.744   9.706   7.614  0.5275  0.0134 -1.7101
31937SOL    HW2 1649   2.607   9.644   7.604  0.2389  0.4941 -0.8304
31938SOL     OW 1650   9.090   4.538   8.296  0.3255 -0.6587  0.1282
31938SOL    HW1 1651   9.178   4.513   8.322  0.9234 -1.6481 -2.5242
31938SOL    HW2 1652   9.098   4.631   8.274  0.5375 -0.5778  0.5402
31939SOL     OW 1653   0.598   5.921   9.855  0.5383  0.0675  0.0463
31939SOL    HW1 1654   0.671   5.981   9.838 -0.1467  0.9822  0.2658
31939SOL    HW2 1655   0.641   5.840   9.883  1.4847  1.0974  1.8607
31940SOL     OW 1656   7.335   2.760  10.984 -0.1675 -0.4760 -0.5267
31940SOL    HW1 1657   7.274   2.776  10.912 -1.0274 -0.3045  0.2164
31940SOL    HW2 1658   7.280   2.724  11.054  0.8015 -1.5193 -0.2736
31941SOL     OW 1659   9.735   6.259  11.957 -0.2824  0.5494 -0.4485
31941SOL    HW1 1660   9.713   6.209  11.878 -0.9512  0.0762  0.0261
31941SOL    HW2 1661   9.757   6.192  12.022  0.6756  0.9486 -0.3415
31942SOL     OW 1662   2.407  11.574   4.498  0.0473 -0.5422  0.0897
31942SOL    HW1 1663   2.459  11.598   4.422  2.4698 -1.7767  1.2283
31942SOL    HW2 1664   2.432  11.637   4.566  0.1840 -1.2275  0.6925
31943SOL     OW 1665   9.820   1.244   9.716 -0.3443  0.4994  0.5931
31943SOL    HW1 1666   9.914   1.262   9.729 -0.2032  0.4093 -0.2448
31943SOL    HW2 1667   9.811   1.150   9.731 -0.3207  0.5188  0.7388
31944SOL     OW 1668   4.293  11.476  10.715 -0.0827  0.4415  0.4011
31944SOL    HW1 1669   4.286  11.408  10.648  0.0207 -0.8683  1.6761
31944SOL    HW2 1670   4.343  11.546  10.673 -0.4273 -0.1350 -1.0285
31945SOL     OW 1671   3.182  10.967   6.191  0.0553 -0.0259  0.3190
31945SOL    HW1 1672   3.158  10.897   6.252 -0.0099 -0.9609 -0.7315
31945SOL    HW2 1673   3.141  10.941   6.108  0.1496  1.1951 -0.1269
31946SOL     OW 1674   8.840   6.663   2.214  1.1147 -0.5367  0.2013
31946SOL    HW1 1675   8.781   6.629   2.146 -0.7788  0.9274  1.0317
31946SOL    HW2 1676   8.866   6.749   2.182  1.5254 -0.5069  0.6053
31947SOL     OW 1677   1.538   2.241   0.676 -0.0278 -0.1076  0.2960
31947SOL    HW1 1678   1.478   2.306   0.712 -1.4424 -1.0166 -0.3127
31947SOL    HW2 1679   1.485   2.192   0.613  1.2606 -1.1937  0.0087
31948SOL     OW 1680   0.287   8.774   5.703 -0.0954 -0.0948  0.1469
31948SOL    HW1 1681   0.272   8.703   5.765  1.6853 -3.3019 -2.7169
31948SOL    HW2 1682   0.217   8.764   5.638  2.0374 -1.6718 -2.1120
31949SOL     OW 1683   2.862   3.469  12.067 -0.4907  1.0001  0.4305
31949SOL    HW1 1684   2.804   3.502  12.137  0.2518 -0.4566  1.8008
31949SOL    HW2 1685   2.925   3.540  12.054 -1.6736  2.0088 -0.0466
31950SOL     OW 1686  10.676   1.913   0.558 -0.5423  0.3468 -0.0810
31950SOL    HW1 1687  10.724   1.996   0.561  0.0317  0.0009  0.3772
31950SOL    HW2 1688  10.649   1.904   0.466  0.1696  0.5988 -0.3192
31951SOL     OW 1689   6.572   2.919  11.339  0.0358  0.1435 -0.3964
31951SOL    HW1 1690   6.551   3.010  11.361  0.5154  0.9130 -2.8261
31951SOL    HW2 1691   6.639   2.894  11.402  0.8829  1.9547 -0.5255
31952SOL     OW 1692   8.313   3.510   2.840 -0.3002 -0.6066 -0.2549
31952SOL    HW1 1693   8.251   3.583   2.844 -0.5939 -0.8825  2.0949
31952SOL    HW2 1694   8.286   3.460   2.763 -1.1904  0.7971 -0.9052
31953SOL     OW 1695   0.968   7.656   2.119  0.3881  0.7426  0.1449
31953SOL    HW1 1696   0.934   7.567   2.131 -1.2657  1.4135  0.7754
31953SOL    HW2 1697   0.954   7.673   2.026  2.8354 -0.4210 -0.5278
31954SOL     OW 1698   1.585   1.229   1.912  0.3542  0.7079  0.4524
31954SOL    HW1 1699   1.578   1.136   1.932  0.8978  0.8515  1.3781
31954SOL    HW2 1700   1.514   1.270   1.962 -0.4134  0.7187 -0.6032
31955SOL     OW 1701   6.464   7.394   8.277 -0.6111 -0.0203 -0.5289
31955SOL    HW1 1702   6.494   7.385   8.187  2.2017 -1.9194  0.4545
31955SOL    HW2 1703   6.371   7.371   8.274 -0.5282 -0.2722 -2.8737
31956SOL     OW 1704   1.310   3.563  11.441  0.4829  0.2218  0.2872
31956SOL    HW1 1705   1.307   3.504  11.516 -0.2253  0.4168  0.4210
31956SOL    HW2 1706   1.335   3.648  11.479 -1.1297  0.6193  0.5144
31957SOL     OW 1707   9.969   2.339   4.311 -0.2604  0.5840  0.1184
31957SOL    HW1 1708  10.046   2.343   4.367 -0.1415 -1.3175  0.1514
31957SOL    HW2 1709   9.990   2.272   4.246 -1.4954  0.7647 -0.4997
31958SOL     OW 1710   8.953   5.750   0.903  0.2979 -0.0606  0.0515
31958SOL    HW1 1711   9.010   5.810   0.856 -0.4302 -0.9022 -2.0095
31958SOL    HW2 1712   9.008   5.674   0.922  0.2887 -0.2255 -0.5539
31959SOL     OW 1713  11.366   5.055   5.333  0.1756  0.2067 -0.1398
31959SOL    HW1 1714  11.425   5.126   5.358  1.4205  1.4326 -5.4602
31959SOL    HW2 1715  11.281   5.098   5.319  0.1677  0.0492 -0.5742
31960SOL     OW 1716   4.751   6.347  11.362  0.1025 -0.4667  0.3268
31960SOL    HW1 1717   4.720   6.261  11.394 -1.3723  0.1383  0.6328
31960SOL    HW2 1718   4.694   6.410  11.406  0.1384  0.5835 -1.0579
31961SOL     OW 1719   2.694   9.841   5.873 -0.4083  0.1109  0.1192
31961SOL    HW1 1720   2.717   9.875   5.960  0.4016  3.3364 -1.1887
31961SOL    HW2 1721   2.611   9.795   5.886  0.3032 -0.5702  2.7623
31962SOL     OW 1722   3.023   5.430   0.359  0.1350  0.7442  0.3084
31962SOL    HW1 1723   3.105   5.479   0.371 -0.9672  2.6128  0.6837
31962SOL    HW2 1724   2.958   5.497   0.341 -1.7876 -0.4275  2.3678
31963SOL     OW 1725   1.202  11.249  10.837 -0.2728 -0.3638 -0.0444
31963SOL    HW1 1726   1.135  11.222  10.900  0.0016  0.0150  0.4137
31963SOL    HW2 1727   1.170  11.331  10.801  0.6001  0.5893  1.2373
31964SOL     OW 1728   3.030  10.460   4.761 -0.2441 -0.0263 -0.7125
31964SOL    HW1 1729   3.080  10.533   4.799 -1.5747  0.2894  0.5027
31964SOL    HW2 1730   3.093  10.416   4.703  0.9251  1.3888 -0.5864
31965SOL     OW 1731   8.069   6.209   7.188 -0.6899 -0.3354 -0.6341
31965SOL    HW1 1732   8.050   6.115   7.187  0.3991 -0.5639 -1.2900
31965SOL    HW2 1733   8.056   6.234   7.279  0.6132 -1.4859 -0.0880
31966SOL     OW 1734   6.483   4.872   3.512  0.2949  0.8553  0.1710
31966SOL    HW1 1735   6.537   4.949   3.532  3.0528 -0.9628  0.1551
31966SOL    HW2 1736   6.524   4.834   3.434 -2.2549  0.4038 -1.0834
31967SOL     OW 1737  10.217   5.329   5.154 -0.0772 -0.1461 -0.4947
31967SOL    HW1 1738  10.205   5.250   5.102 -0.8752  0.2313 -0.9118
31967SOL    HW2 1739  10.199   5.401   5.093  0.8433  0.3643 -0.1783
31968SOL     OW 1740   9.193  10.863   5.402  0.0739  0.6130  0.3733
31968SOL    HW1 1741   9.129  10.908   5.348  0.3493  0.7637  0.1736
31968SOL    HW2 1742   9.140  10.814   5.466 -0.3098 -0.6483 -0.8690
31969SOL     OW 1743   3.060  11.813   5.292 -0.4825  0.7555 -0.1084
31969SOL    HW1 1744   3.120  11.771   5.231 -0.1980  0.5543  0.2993
31969SOL    HW2 1745   3.037  11.744   5.354  1.7440  1.6414  1.9034
31970SOL     OW 1746  10.932   2.476   5.072 -0.6543  0.4810  0.0920
31970SOL    HW1 1747  11.023   2.469   5.100 -0.1239  3.1877 -0.6297
31970SOL    HW2 1748  10.882   2.428   5.138  1.1155  0.7195  1.6784
31971SOL     OW 1749   1.392   3.780   9.201 -0.0195 -0.1009 -0.4938
31971SOL    HW1 1750   1.304   3.745   9.211  0.6077 -1.5844  0.2277
31971SOL    HW2 1751   1.393   3.818   9.113 -1.2865 -0.3392 -0.6259
31972SOL     OW 1752   7.343   3.562   7.645 -0.9118  0.1909  0.1232
31972SOL    HW1 1753   7.293   3.633   7.603  0.5148  0.7233 -0.7761
31972SOL    HW2 1754   7.431   3.572   7.609 -0.0533 -0.4457  1.9811
31973SOL     OW 1755   4.948   6.334   4.241  0.1692 -0.2272  0.3995
31973SOL    HW1 1756   4.855   6.315   4.252  0.0951  0.4366  0.9882
31973SOL    HW2 1757   4.950   6.419   4.197  0.4981 -0.2301  0.4057
31974SOL     OW 1758   8.204   4.153   6.358  0.4989  0.1409  1.4195
31974SOL    HW1 1759   8.298   4.137   6.358  0.6893  1.1832  0.7164
31974SOL    HW2 1760   8.165   4.065   6.356  1.4600 -0.2922  0.9201
31975SOL     OW 1761   8.911   9.226  10.688 -0.0652  0.1277 -0.2030
31975SOL    HW1 1762   8.821   9.193  10.693  0.2233 -0.4777  1.4208
31975SOL    HW2 1763   8.949   9.180  10.613 -1.1411  0.5440 -1.0471
31976SOL     OW 1764   1.075   7.911   3.088  0.1898 -0.2613  0.0132
31976SOL    HW1 1765   1.119   7.987   3.049 -3.7403  1.0192 -2.4594
31976SOL    HW2 1766   1.066   7.849   3.016 -3.1295  0.1734 -0.0816
31977SOL     OW 1767   7.775   0.172   1.199  0.0851 -0.0462  0.0759
31977SOL    HW1 1768   7.837   0.231   1.242  1.0205 -0.4796 -0.6539
31977SOL    HW2 1769   7.796   0.086   1.234 -0.6867 -0.0790  0.4717
31978SOL     OW 1770   0.168   7.037   9.633  0.0385  0.2043 -0.0426
31978SOL    HW1 1771   0.193   7.102   9.699 -0.7603  0.2195  0.2545
31978SOL    HW2 1772   0.191   7.077   9.550  1.7733 -0.1265  0.2349
31979SOL     OW 1773  12.229   8.253   2.855  0.1837  0.2838  0.0580
31979SOL    HW1 1774  12.281   8.316   2.805 -0.2188  0.7829  0.2589
31979SOL    HW2 1775  12.263   8.168   2.829  0.8656  0.5903 -0.0705
31980SOL     OW 1776   7.980   7.771   4.085  0.3207  0.2298 -0.8658
31980SOL    HW1 1777   8.059   7.824   4.098 -0.1496  0.1338  4.1653
31980SOL    HW2 1778   8.010   7.681   4.095 -0.2419  0.1094 -0.2666
31981SOL     OW 1779  11.339  10.994   8.609 -0.1452 -0.3619 -0.0982
31981SOL    HW1 1780  11.306  10.904   8.599 -2.8765  0.7002 -1.7141
31981SOL    HW2 1781  11.434  10.983   8.618 -0.5235 -3.5152  2.2284
31982SOL     OW 1782   4.783   2.440   9.601 -0.5242  0.1853 -0.2021
31982SOL    HW1 1783   4.751   2.351   9.612 -1.1555  0.4784  0.4181
31982SOL    HW2 1784   4.825   2.461   9.685  0.4867  0.1404 -0.6726
31983SOL     OW 1785   1.076   6.636   3.212 -0.3856 -0.1665  0.6476
31983SOL    HW1 1786   1.027   6.617   3.132  1.0029 -0.7414 -0.1040
31983SOL    HW2 1787   1.138   6.563   3.219  0.9594  0.9862  1.0640
31984SOL     OW 1788   0.309  11.515   0.071 -0.2623 -0.6173 -0.1407
31984SOL    HW1 1789   0.403  11.504   0.089 -0.2452  0.6815  0.7565
31984SOL    HW2 1790   0.305  11.592   0.014 -0.7848 -0.5614 -0.0348
31985SOL     OW 1791   9.236   0.207   1.267 -0.4400  0.0353 -0.4681
31985SOL    HW1 1792   9.280   0.284   1.304 -0.9281 -0.3491  0.9681
31985SOL    HW2 1793   9.259   0.209   1.174  0.0822  1.5486 -0.3323
31986SOL     OW 1794   2.223   2.058   6.129 -0.4447 -0.4323 -0.3517
31986SOL    HW1 1795   2.255   2.005   6.056  1.1477 -0.0465  0.0292
31986SOL    HW2 1796   2.300   2.072   6.184 -0.8573  2.1019 -0.3218
31987SOL     OW 1797   2.387  10.615   1.573  0.0581 -0.0160  0.4515
31987SOL    HW1 1798   2.470  10.575   1.597 -0.1513 -0.4857  0.3879
31987SOL    HW2 1799   2.333  10.543   1.541 -0.0395  0.4303 -0.4212
31988SOL     OW 1800   9.685   9.747   0.072  0.1350  0.2149 -1.0055
31988SOL    HW1 1801   9.743   9.736   0.147  0.0182  4.7833  0.0404
31988SOL    HW2 1802   9.597   9.731   0.106  0.2360  0.0359 -0.8265
31989SOL     OW 1803   5.959   1.094   4.939 -0.4261  0.5600 -0.0556
31989SOL    HW1 1804   6.012   1.105   5.018 -0.6415 -2.4887  0.6168
31989SOL    HW2 1805   5.895   1.165   4.943 -0.2277  0.6914  2.3531
31990SOL     OW 1806   2.146   4.646   5.344 -0.0233 -0.3477 -0.3922
31990SOL    HW1 1807   2.148   4.600   5.428 -0.8956 -1.0130 -0.7218
31990SOL    HW2 1808   2.221   4.706   5.347 -0.3155 -0.0232  1.0496
31991SOL     OW 1809   2.960   8.776   8.681 -0.4060 -0.3848 -0.2712
31991SOL    HW1 1810   3.034   8.719   8.698 -0.8382 -0.7592  0.4182
31991SOL    HW2 1811   2.883   8.719   8.687 -0.8812  0.3414  0.8895
31992SOL     OW 1812  11.774  11.467   5.377  0.3119  0.0011  0.0639
31992SOL    HW1 1813  11.808  11.400   5.436 -0.3194  1.0110  1.6366
31992SOL    HW2 1814  11.685  11.436   5.356  0.3031 -0.0440  0.1629
31993SOL     OW 1815   0.921   2.697   3.320  0.3449  0.4759 -0.1387
31993SOL    HW1 1816   0.879   2.692   3.234  0.2428  0.4690 -0.0881
31993SOL    HW2 1817   0.961   2.784   3.322 -1.8472  1.5421  0.8159
31994SOL     OW 1818   7.052   4.987  12.031  0.4751  0.2099  0.1602
31994SOL    HW1 1819   6.971   5.036  12.047  0.5255 -0.0148  1.1916
31994SOL    HW2 1820   7.095   5.034  11.960 -1.0242 -0.2454 -1.1028
31995SOL     OW 1821   0.415  10.312   8.081  0.1205 -0.1415 -0.8183
31995SOL    HW1 1822   0.467  10.241   8.119  0.7705 -0.2183 -1.8137
31995SOL    HW2 1823   0.346  10.269   8.032  1.5397 -0.2134 -2.9086
31996SOL     OW 1824   3.324   6.630   2.334  0.3457  0.4863 -0.0607
31996SOL    HW1 1825   3.365   6.606   2.417  1.3256  0.7023 -0.4675
31996SOL    HW2 1826   3.231   6.639   2.355  0.5665  0.4555  0.9957
31997SOL     OW 1827   8.456   7.940   2.131  0.3313 -0.3484  0.1550
31997SOL    HW1 1828   8.370   7.910   2.158 -0.4272  1.0074 -0.6240
31997SOL    HW2 1829   8.496   7.973   2.212 -0.5542  0.5309  0.2601
31998SOL     OW 1830   1.220   2.451   8.877  0.4412 -0.0093 -0.0036
31998SOL    HW1 1831   1.211   2.362   8.910 -0.0849  0.5216  1.3691
31998SOL    HW2 1832   1.136   2.469   8.834 -0.1522  0.4198  1.2910
31999SOL     OW 1833   8.858   7.109   7.249 -0.2155 -0.2075 -0.1192
31999SOL    HW1 1834   8.802   7.179   7.216  1.4778  0.6099 -1.3959
31999SOL    HW2 1835   8.835   7.033   7.195 -2.0601 -0.7324  1.2760
32000SOL     OW 1836   6.076   0.057  10.744 -0.6656 -0.2251 -0.1475
32000SOL    HW1 1837   6.042   0.146  10.747  0.4156  0.1906 -0.1858
32000SOL    HW2 1838   6.061   0.029  10.654 -0.3208  0.1811 -0.3295
32001SOL     OW 1839   1.630   4.412   3.434  0.0643  0.3075 -0.4500
32001SOL    HW1 1840   1.609   4.427   3.526  0.7424  1.5645 -0.4757
32001SOL    HW2 1841   1.699   4.476   3.415 -0.2256  0.2159 -1.8828
32002SOL     OW 1842   0.297  11.097   0.723  0.2175  0.5062  0.1432
32002SOL    HW1 1843   0.341  11.128   0.803 -0.3287 -0.0600  0.6792
32002SOL    HW2 1844   0.368  11.084   0.660  0.6860  0.7565  0.6088
32003SOL     OW 1845   1.827   0.934   2.048  0.4558 -0.2494 -0.0273
32003SOL    HW1 1846   1.882   0.891   2.113  0.1223  0.0035  0.4262
32003SOL    HW2 1847   1.872   0.919   1.965  1.2182 -0.0281  0.3376
32004SOL     OW 1848   6.803   9.116   6.854  0.0150  0.6344  0.1342
32004SOL    HW1 1849   6.718   9.072   6.848  0.0714  0.5260  0.1235
32004SOL    HW2 1850   6.829   9.106   6.945 -0.6875  1.9971  0.5092
32005SOL     OW 1851   0.797   9.404  12.229 -0.1588  0.2022 -1.0055
32005SOL    HW1 1852   0.836   9.491  12.231 -0.6013  0.4788 -2.8441
32005SOL    HW2 1853   0.846   9.354  12.295 -0.1194  1.9059  0.3064
32006SOL     OW 1854   1.116  12.250  12.150  0.0591 -0.1915  0.2552
32006SOL    HW1 1855   1.140  12.157  12.154  1.3215  0.1439  1.2066
32006SOL    HW2 1856   1.195  12.293  12.118 -0.6760  0.5248 -0.6491
32007SOL     OW 1857   6.404   2.198   8.349 -0.1513 -0.1107  0.0581
32007SOL    HW1 1858   6.437   2.275   8.301  0.4894 -0.2746  0.2167
32007SOL    HW2 1859   6.468   2.129   8.328 -1.4243 -0.9717 -1.1419
32008SOL     OW 1860  12.199   1.878   7.117 -0.6069  0.2212  0.5130
32008SOL    HW1 1861  12.167   1.961   7.081 -0.8407  0.5356  1.4217
32008SOL    HW2 1862  12.137   1.813   7.085  0.3655  0.1563 -1.3803
32009SOL     OW 1863  11.993   9.073  10.264  0.3620 -0.0395 -0.5477
32009SOL    HW1 1864  11.926   9.101  10.202 -2.2714 -1.4427  1.4340
32009SOL    HW2 1865  12.071   9.058  10.210 -1.1744  0.7069 -3.1663
32010SOL     OW 1866   9.198   7.849   5.721 -0.3294 -0.1226  0.1964
32010SOL    HW1 1867   9.118   7.900   5.712  0.2814  0.7068 -0.7154
32010SOL    HW2 1868   9.246   7.891   5.793  0.4956  1.0680 -1.0113
32011SOL     OW 1869   6.069  12.023   8.190 -0.4663  0.2689 -0.8186
32011SOL    HW1 1870   6.006  12.006   8.120 -0.2025 -3.8317 -0.2726
32011SOL    HW2 1871   6.151  11.985   8.159  0.6975  1.7716  0.2451
32012SOL     OW 1872   2.865   5.976  10.363 -0.3661  0.1145 -0.1777
32012SOL    HW1 1873   2.934   5.982  10.297 -0.0811  1.0359  0.1930
32012SOL    HW2 1874   2.884   6.048  10.424 -1.9465  0.7133 -0.3558
32013SOL     OW 1875   3.658   4.966   6.141  0.0190  0.1667  0.1307
32013SOL    HW1 1876   3.654   5.050   6.095 -0.0585  0.2312  0.2528
32013SOL    HW2 1877   3.625   4.902   6.078  0.9850  0.0809 -0.3004
32014SOL     OW 1878   7.005   8.216   0.436 -0.2142  0.2237  0.4863
32014SOL    HW1 1879   7.002   8.121   0.430 -0.5077  0.1471  1.5973
32014SOL    HW2 1880   7.028   8.234   0.527 -0.9321  1.2145  0.5016
32015SOL     OW 1881   6.790   4.092   5.258 -0.0598 -0.4802 -0.0473
32015SOL    HW1 1882   6.778   4.041   5.338 -1.0520 -0.5244 -0.2185
32015SOL    HW2 1883   6.702   4.114   5.229  0.2762 -0.5116 -1.1667
32016SOL     OW 1884   1.085   1.214   6.165 -0.0302 -0.7967  0.9646
32016SOL    HW1 1885   1.100   1.127   6.127 -0.3184 -0.7733  0.7962
32016SOL    HW2 1886   1.128   1.274   6.104  0.6805 -0.8609  1.3867
32017SOL     OW 1887   8.484   5.252   8.951 -0.1691 -0.5945  0.7490
32017SOL    HW1 1888   8.553   5.201   8.909 -0.0952 -1.2312  1.6040
32017SOL    HW2 1889   8.469   5.207   9.035 -0.6970  0.2999  1.1517
32018SOL     OW 1890  11.485  11.889  10.567 -0.2481 -0.0168 -0.5962
32018SOL    HW1 1891  11.565  11.870  10.616  0.2535 -0.3165 -1.5004
32018SOL    HW2 1892  11.452  11.803  10.541 -1.1863  0.0706  0.2438
32019SOL     OW 1893   2.156   5.067   7.545  0.1994 -0.5676  0.1624
32019SOL    HW1 1894   2.153   5.042   7.452 -0.4090  0.3731 -0.0891
32019SOL    HW2 1895   2.222   5.010   7.583 -1.6386 -3.1060 -0.2027
32020SOL     OW 1896  12.254  10.332   1.985 -0.4138 -0.2956  0.6095
32020SOL    HW1 1897  12.293  10.245   1.996 -2.4476 -1.3385  0.1243
32020SOL    HW2 1898  12.193  10.322   1.912  0.3628  1.9686 -0.4457
32021SOL     OW 1899  11.167   8.758   2.384  0.2184  0.1193 -0.2044
32021SOL    HW1 1900  11.226   8.684   2.394  0.0930 -0.3155 -2.3222
32021SOL    HW2 1901  11.114   8.737   2.307 -1.1855  1.5101  0.3292
32022SOL     OW 1902   6.348   0.418  11.784  0.0336  0.7653  0.3234
32022SOL    HW1 1903   6.416   0.421  11.717 -1.7620  2.7793 -1.5485
32022SOL    HW2 1904   6.309   0.331  11.774  0.5442  0.6097 -0.4469
32023SOL     OW 1905   3.782   2.923   3.137 -0.2093  0.0193 -0.1214
32023SOL    HW1 1906   3.769   3.012   3.171  1.3890 -0.0016  0.6396
32023SOL    HW2 1907   3.858   2.890   3.185 -0.3806 -1.5308 -0.8635
32024SOL     OW 1908   2.404  11.236   2.819 -0.0495  0.1855  0.1744
32024SOL    HW1 1909   2.349  11.240   2.740 -0.2770  0.9142  0.3576
32024SOL    HW2 1910   2.431  11.145   2.825 -1.6150 -0.2945  0.3274
32025SOL     OW 1911   7.001  10.362   8.531 -0.5990 -0.0598 -0.1204
32025SOL    HW1 1912   6.947  10.399   8.601 -2.3120 -1.2398 -0.7419
32025SOL    HW2 1913   7.051  10.437   8.497 -1.5135  1.0018  0.7827
32026SOL     OW 1914   5.451   9.645  10.368 -0.0737  0.1254 -0.1707
32026SOL    HW1 1915   5.431   9.566  10.419  0.2884  1.0520  1.4742
32026SOL    HW2 1916   5.507   9.697  10.425 -0.7313  1.8186 -1.0107
32027SOL     OW 1917   1.047   0.543   2.546  0.5499  0.9204 -0.7782
32027SOL    HW1 1918   1.102   0.541   2.623 -1.0947  0.0288  0.4347
32027SOL    HW2 1919   1.032   0.637   2.529 -1.0747  1.1638  1.5433
32028SOL     OW 1920   5.926  11.403   7.479  0.0649  0.0712 -0.3685
32028SOL    HW1 1921   5.941  11.380   7.571  0.3001  0.5178 -0.2883
32028SOL    HW2 1922   5.831  11.414   7.472 -0.0634 -1.0047 -0.4382
32029SOL     OW 1923   3.693   8.191   6.558  0.1168 -0.4015 -0.1364
32029SOL    HW1 1924   3.632   8.118   6.544  3.7584 -3.6817 -0.5784
32029SOL    HW2 1925   3.710   8.191   6.652  0.9496 -0.9127 -0.2762
32030SOL     OW 1926   3.901   9.207  10.180  0.0798  0.0450 -0.8465
32030SOL    HW1 1927   3.983   9.243  10.147  1.9582 -1.8533  1.3889
32030SOL    HW2 1928   3.836   9.228  10.112  2.4083  1.4256 -2.7985
32031SOL     OW 1929   4.894   9.635   3.863  0.2257  0.0207  0.5242
32031SOL    HW1 1930   4.809   9.670   3.839 -0.7184 -0.2223  3.1609
32031SOL    HW2 1931   4.878   9.542   3.881  1.0790 -0.0783  0.8464
32032SOL     OW 1932   3.449  12.270   3.354  0.2972 -0.7565 -0.6246
32032SOL    HW1 1933   3.457  12.219   3.434 -0.1491  2.6211  1.7906
32032SOL    HW2 1934   3.373  12.233   3.309  0.2709 -2.4530  0.7156
32033SOL     OW 1935   7.238   2.714   6.270  0.0634  0.1664  0.1725
32033SOL    HW1 1936   7.192   2.767   6.205 -0.8921  0.0623  0.7450
32033SOL    HW2 1937   7.174   2.701   6.340  0.6636 -0.7770  0.5638
32034SOL     OW 1938   8.863  10.035   0.794  0.0305 -0.5311 -0.1291
32034SOL    HW1 1939   8.780  10.065   0.833  1.2967  0.4680  1.9739
32034SOL    HW2 1940   8.838  10.003   0.707 -2.8526 -1.9382  1.0634
32035SOL     OW 1941   7.803   4.449   5.045 -0.3221 -0.3368  0.2651
32035SOL    HW1 1942   7.866   4.377   5.044  0.4977  0.3578  0.5633
32035SOL    HW2 1943   7.850   4.522   5.005 -1.1076  0.0677  0.0597
32036SOL     OW 1944  11.385   7.450   7.392 -0.2556  0.0259 -0.7044
32036SOL    HW1 1945  11.337   7.458   7.309  0.3754 -0.4573 -1.1235
32036SOL    HW2 1946  11.328   7.395   7.447 -0.8850  0.7175 -0.6472
32037SOL     OW 1947   5.886   4.318   6.533 -0.3093  0.1637  0.5745
32037SOL    HW1 1948   5.821   4.299   6.600  0.9601  1.8099  2.3737
32037SOL    HW2 1949   5.969   4.326   6.581  0.7785  0.7273 -1.2766
32038SOL     OW 1950   5.238   3.331  10.534 -0.6379  0.5784  0.3832
32038SOL    HW1 1951   5.226   3.412  10.485 -0.7364 -0.3072 -1.1148
32038SOL    HW2 1952   5.248   3.264  10.467  0.2306 -0.5466  1.5837
32039SOL     OW 1953   3.451   2.191   8.224 -0.4796 -0.0258 -0.7171
32039SOL    HW1 1954   3.456   2.097   8.240  2.1365  0.1581 -0.0157
32039SOL    HW2 1955   3.538   2.214   8.191 -1.5001  1.9377 -2.2091
32040SOL     OW 1956   3.064   4.277   1.228 -0.5406  0.2310  0.1727
32040SOL    HW1 1957   3.134   4.224   1.188 -1.1865 -0.6031  0.1226
32040SOL    HW2 1958   3.056   4.353   1.170  0.2819  0.3029  0.1443
32041SOL     OW 1959   3.676   1.164   1.450  0.0509 -0.6823  0.1795
32041SOL    HW1 1960   3.690   1.201   1.537 -1.6819  2.6131 -0.7528
32041SOL    HW2 1961   3.763   1.158   1.412  0.5788  1.6755  0.8301
32042SOL     OW 1962   4.425  12.153   3.912  0.2277 -0.1834 -0.1316
32042SOL    HW1 1963   4.413  12.130   3.820  1.3085  1.3687 -0.7005
32042SOL    HW2 1964   4.441  12.070   3.956 -0.1314 -0.9280 -1.3753
32043SOL     OW 1965  11.851   4.592  10.270 -0.4263  0.3583  0.0481
32043SOL    HW1 1966  11.934   4.546  10.274  1.7243  3.8104 -0.4673
32043SOL    HW2 1967  11.849   4.645  10.350 -2.8291 -0.5870  0.7052
32044SOL     OW 1968   1.261   8.609   3.614  0.2209  0.1995 -0.5731
32044SOL    HW1 1969   1.346   8.565   3.616 -0.0176 -0.2651 -0.2601
32044SOL    HW2 1970   1.197   8.537   3.614 -0.1731  0.5438 -0.5804
32045SOL     OW 1971   7.721  12.200   2.302 -0.3433  0.1834  0.4730
32045SOL    HW1 1972   7.781  12.241   2.240  0.7486  0.1210  1.4546
32045SOL    HW2 1973   7.688  12.272   2.355 -2.0605  0.3768 -0.7759
32046SOL     OW 1974  12.233   9.254  11.653 -0.6253  0.2803  0.1212
32046SOL    HW1 1975  12.197   9.228  11.569  1.2025 -0.2991 -0.5243
32046SOL    HW2 1976  12.293   9.326  11.633  0.1654 -0.1562  0.8623
32047SOL     OW 1977   0.700   5.837   1.102  0.0108  0.1903  0.4322
32047SOL    HW1 1978   0.625   5.821   1.045 -0.5231 -0.7892  1.3618
32047SOL    HW2 1979   0.672   5.804   1.188  2.2385 -2.2231  0.3537
32048SOL     OW 1980  10.646   7.716   8.496  0.5669 -0.2794 -0.3503
32048SOL    HW1 1981  10.715   7.689   8.557  1.9845 -1.0367 -2.1910
32048SOL    HW2 1982  10.641   7.811   8.507  2.2248 -0.1412 -0.4502
32049SOL     OW 1983  12.161   4.208  11.862  0.3236 -0.6107  0.2101
32049SOL    HW1 1984  12.230   4.270  11.839  1.6399 -2.4981 -1.1996
32049SOL    HW2 1985  12.099   4.212  11.789 -0.5707  0.3263  0.9873
32050SOL     OW 1986  10.865  12.327   0.048  0.2517 -0.0534 -0.2098
32050SOL    HW1 1987  10.837  12.395   0.108 -0.3858  0.9978 -1.6439
32050SOL    HW2 1988  10.949  12.297   0.084  0.2594  1.0664  0.7738
32051SOL     OW 1989   1.139   1.194   3.366 -0.5269 -0.0125  0.2671
32051SOL    HW1 1990   1.214   1.208   3.308 -0.7792 -3.9382 -1.3545
32051SOL    HW2 1991   1.165   1.121   3.422 -3.0443 -1.5573 -0.3960
32052SOL     OW 1992   9.068   4.787   8.226  0.5211  0.0000  0.0574
32052SOL    HW1 1993   9.092   4.847   8.296 -2.0580 -0.0253  1.0861
32052SOL    HW2 1994   9.092   4.834   8.145 -0.8880  2.2416  0.8385
32053SOL     OW 1995  10.799  11.280  12.043  0.1481 -0.0950  0.5619
32053SOL    HW1 1996  10.875  11.242  11.998 -0.5334 -0.4578 -0.3192
32053SOL    HW2 1997  10.834  11.352  12.094  0.7192  1.8052 -2.2464
32054SOL     OW 1998   7.739   5.504   4.620  0.1204 -0.4080 -0.4070
32054SOL    HW1 1999   7.765   5.433   4.679 -1.0757 -1.5062 -1.1412
32054SOL    HW2 2000   7.653   5.478   4.588  0.3648  0.5763 -1.9795
32055SOL     OW 2001  10.944   2.089   6.876  0.2071  0.8087 -0.1951
32055SOL    HW1 2002  10.896   2.150   6.932 -1.7480 -1.7444  1.1500
32055SOL    HW2 2003  11.035   2.100   6.901 -0.5630 -0.5967  4.1954
32056SOL     OW 2004   4.241  11.947   8.158  0.0419  0.5788  0.3207
32056SOL    HW1 2005   4.156  11.973   8.193  0.9666  2.0553  1.6193
32056SOL    HW2 2006   4.263  11.866   8.203 -0.5342  0.3606  0.2096
32057SOL     OW 2007   5.798  10.944   2.402  0.4056 -0.3207 -0.2969
32057SOL    HW1 2008   5.708  10.952   2.371 -0.6061  1.1763  2.6270
32057SOL    HW2 2009   5.848  11.005   2.347 -0.9740  1.1200 -0.0067
32058SOL     OW 2010   4.654   9.594   5.023  0.0535  0.0328  0.5365
32058SOL    HW1 2011   4.734   9.542   5.027  0.2924  0.4500  1.5060
32058SOL    HW2 2012   4.621   9.581   4.934  1.8987  0.9092 -0.3414
32059SOL     OW 2013   8.736   7.133   4.573  0.3369 -0.7636  0.0940
32059SOL    HW1 2014   8.759   7.042   4.552  1.2437 -0.1999 -1.4898
32059SOL    HW2 2015   8.812   7.167   4.620  1.5249  0.1357 -2.3058
32060SOL     OW 2016   6.215  11.674  10.980 -0.4244  0.4404 -0.6602
32060SOL    HW1 2017   6.123  11.692  11.001 -0.7665 -1.5221 -0.3485
32060SOL    HW2 2018   6.264  11.716  11.050 -1.1719  0.1586  0.0469
32061SOL     OW 2019   0.208   3.566   8.014 -0.2462 -0.4257 -0.5457
32061SOL    HW1 2020   0.167   3.527   8.091  0.5524 -0.3341 -0.0735
32061SOL    HW2 2021   0.299   3.539   8.018  0.5584  2.1287  0.2502
32062SOL     OW 2022   7.786   5.609   0.551  0.3042 -0.4281 -0.6180
32062SOL    HW1 2023   7.725   5.674   0.586 -0.9840 -1.6372 -0.5853
32062SOL    HW2 2024   7.744   5.576   0.472  1.7996  0.0527 -1.6665
32063SOL     OW 2025   8.695  10.607   2.772 -0.6781 -0.0856 -0.1560
32063SOL    HW1 2026   8.665  10.633   2.685 -2.6214 -0.8845  0.2236
32063SOL    HW2 2027   8.690  10.687   2.824  0.8774  0.4918 -0.8252
32064SOL     OW 2028  11.563  11.292   5.055 -0.1066 -0.4455 -0.4643
32064SOL    HW1 2029  11.571  11.310   4.961  1.8343  0.2741 -0.2104
32064SOL    HW2 2030  11.646  11.250   5.078 -1.1432 -1.9829  0.6753
32065SOL     OW 2031   7.021  11.964   0.093 -0.1380  0.9254  0.0312
32065SOL    HW1 2032   6.990  12.052   0.112 -2.8026  0.1390 -0.3180
32065SOL    HW2 2033   6.998  11.950   0.001  0.9793  0.1113 -0.1497
32066SOL     OW 2034   1.103   8.241  12.174 -0.8946  0.0581  0.4348
32066SOL    HW1 2035   1.108   8.261  12.080 -1.4470 -2.9453 -0.3344
32066SOL    HW2 2036   1.186   8.273  12.210 -0.2075  0.3182 -1.2941
32067SOL     OW 2037   3.564   7.490   5.535 -0.5213 -0.7499  0.5469
32067SOL    HW1 2038   3.586   7.538   5.455  0.6636 -1.0268  0.6845
32067SOL    HW2 2039   3.473   7.513   5.553  0.2064  2.1129  1.0634
32068SOL     OW 2040   8.104   3.514   0.407 -0.3166  0.1464 -0.4284
32068SOL    HW1 2041   8.109   3.425   0.443  0.9080  1.3389  2.7052
32068SOL    HW2 2042   8.184   3.523   0.356  0.2462 -0.1511  0.3723
32069SOL     OW 2043  12.105  10.517   7.867 -0.1383  0.2692 -0.0727
32069SOL    HW1 2044  12.103  10.509   7.771 -0.9005 -0.8248  0.0139
32069SOL    HW2 2045  12.178  10.577   7.884  0.1694  0.2922 -1.3229
32070SOL     OW 2046  10.146  10.901   0.159  0.0649  0.0651  0.4828
32070SOL    HW1 2047  10.057  10.865   0.159 -0.0660  0.3274 -0.7547
32070SOL    HW2 2048  10.199  10.835   0.203 -0.5010 -0.7806 -0.0697
32071SOL     OW 2049   5.171   8.911  11.122 -0.5601 -0.1875  0.1620
32071SOL    HW1 2050   5.207   8.920  11.034 -2.3091  0.4728 -0.5192
32071SOL    HW2 2051   5.201   8.824  11.151  0.5077 -0.1767 -0.8313
32072SOL     OW 2052   5.308   3.888   4.234  0.0528  0.0464  0.1230
32072SOL    HW1 2053   5.278   3.856   4.320  0.3732 -0.5900  0.0056
32072SOL    HW2 2054   5.400   3.908   4.248 -0.0805  0.6731  0.1215
32073SOL     OW 2055   1.920   6.797   1.894 -0.0245  0.8493  0.7562
32073SOL    HW1 2056   1.861   6.760   1.960  0.3353 -0.4598  0.3729
32073SOL    HW2 2057   1.976   6.724   1.868  2.4678  2.2257  1.8128
32074SOL     OW 2058   4.325   2.145   3.711  0.5993 -0.2287  0.4108
32074SOL    HW1 2059   4.412   2.110   3.691  1.5019  1.4679  1.1443
32074SOL    HW2 2060   4.342   2.223   3.765 -1.3358  0.6076 -0.0957
32075SOL     OW 2061  11.856   7.450  11.914  0.8006 -0.3981  0.3962
32075SOL    HW1 2062  11.898   7.373  11.876  1.2609 -1.0912  2.2192
32075SOL    HW2 2063  11.843   7.509  11.840  1.4628 -1.7609 -0.8528
32076SOL     OW 2064   4.616   2.210   9.404 -0.2360  0.1780 -0.2770
32076SOL    HW1 2065   4.621   2.204   9.308  0.8754 -1.3649 -0.1622
32076SOL    HW2 2066   4.576   2.127   9.431 -1.0111  0.8092  0.5881
32077SOL     OW 2067   0.985   8.508   8.297 -0.8877  0.1614  1.0668
32077SOL    HW1 2068   0.990   8.562   8.218  0.8920 -1.3369  0.0807
32077SOL    HW2 2069   0.916   8.445   8.279 -0.5356 -0.1306  0.7274
32078SOL     OW 2070   8.389   6.220   1.764  0.0553 -0.1387  0.0956
32078SOL    HW1 2071   8.361   6.286   1.701  0.5516  0.1017  0.1185
32078SOL    HW2 2072   8.475   6.251   1.794 -0.1657 -0.2635  0.8694
32079SOL     OW 2073   4.469   1.866   4.941 -0.2143  0.0910 -0.1593
32079SOL    HW1 2074   4.489   1.792   4.999  1.5623  0.1674 -0.6199
32079SOL    HW2 2075   4.548   1.919   4.942 -0.3532  0.4257 -2.1616
32080SOL     OW 2076   4.547  12.176   5.782  0.3530 -0.2519 -0.2213
32080SOL    HW1 2077   4.485  12.130   5.726 -2.0149  0.3676  1.7093
32080SOL    HW2 2078   4.553  12.264   5.744 -0.2461 -0.2113 -0.2279
32081SOL     OW 2079   7.616   9.742   4.291 -0.5783  0.5551  0.1365
32081SOL    HW1 2080   7.688   9.801   4.317 -0.8201  1.5669 -1.3679
32081SOL    HW2 2081   7.658   9.678   4.234 -0.5437 -0.0443  0.8131
32082SOL     OW 2082  12.069   5.810  11.346  0.1804 -0.0680 -0.4307
32082SOL    HW1 2083  12.020   5.778  11.423 -0.0203  0.0828 -0.4942
32082SOL    HW2 2084  12.018   5.885  11.315 -1.3567 -1.8134 -2.4355
32083SOL     OW 2085  10.889   9.094   2.643 -0.1660  0.0934 -0.1571
32083SOL    HW1 2086  10.825   9.028   2.671  0.3557 -0.1293  0.5276
32083SOL    HW2 2087  10.928   9.126   2.724  1.0876 -0.2681 -0.5939
32084SOL     OW 2088   1.781   8.388   9.052  0.5767  0.1797  0.2282
32084SOL    HW1 2089   1.737   8.371   9.136  1.1275 -1.9020  0.1561
32084SOL    HW2 2090   1.774   8.482   9.040 -0.7752  0.3487  1.9206
32085SOL     OW 2091   1.582  12.011   7.640  0.0893 -0.4155 -0.4947
32085SOL    HW1 2092   1.580  11.918   7.662  3.0381 -0.5560 -0.4111
32085SOL    HW2 2093   1.541  12.017   7.554 -1.2254 -1.5573  0.0041
32086SOL     OW 2094   6.506   6.403   2.980  0.5691  0.4816 -0.2356
32086SOL    HW1 2095   6.515   6.496   2.962 -2.0989  0.8973  0.1709
32086SOL    HW2 2096   6.531   6.393   3.071 -0.3476  1.0447  0.0875
32087SOL     OW 2097   5.201  10.525  10.839 -0.2059  0.0199  0.2478
32087SOL    HW1 2098   5.209  10.597  10.901 -2.0528 -0.4467  1.0881
32087SOL    HW2 2099   5.267  10.462  10.867  0.7871  0.9604  0.0761
32088SOL     OW 2100   3.251   5.260   9.258  0.2074 -0.6065 -0.2970
32088SOL    HW1 2101   3.269   5.276   9.351 -0.3252 -2.8550  0.2715
32088SOL    HW2 2102   3.168   5.304   9.241 -0.0714 -0.8032  0.5091
32089SOL     OW 2103   4.131   8.924   0.979  0.3528 -0.2259 -0.0126
32089SOL    HW1 2104   4.104   9.010   1.013  0.5142  0.8862 -2.4480
32089SOL    HW2 2105   4.049   8.875   0.971  0.2315 -0.2427  1.1935
32090SOL     OW 2106   3.705   1.479   7.494 -0.2558 -0.1854 -0.5203
32090SOL    HW1 2107   3.655   1.560   7.496 -0.2859 -0.2096  0.9271
32090SOL    HW2 2108   3.797   1.506   7.486 -0.3359 -0.0601 -1.0450
32091SOL     OW 2109   6.810  10.953  10.316  0.0356 -0.4859 -0.1536
32091SOL    HW1 2110   6.801  10.909  10.231  2.2454  1.5325 -1.5516
32091SOL    HW2 2111   6.755  11.031  10.308  1.2766  0.4060 -0.3056
32092SOL     OW 2112   4.009   9.175   9.576  0.3589 -0.2906  0.1460
32092SOL    HW1 2113   3.923   9.156   9.538  0.4495 -0.9019  0.2303
32092SOL    HW2 2114   4.020   9.270   9.566 -0.2115 -0.2477 -0.0974
32093SOL     OW 2115   4.867   2.047  11.622 -0.6098 -0.1360 -0.3252
32093SOL    HW1 2116   4.930   2.007  11.681 -0.6639  0.1391 -0.0774
32093SOL    HW2 2117   4.819   2.109  11.676 -1.1935 -0.4462 -0.4815
32094SOL     OW 2118   9.979   3.078   2.401  0.0960  0.5247  0.3341
32094SOL    HW1 2119  10.055   3.130   2.375  0.5214 -0.6348 -0.8949
32094SOL    HW2 2120   9.916   3.142   2.435 -0.1086  2.1416 -2.7040
32095SOL     OW 2121   3.511   4.339   8.986  0.1819  0.1918  0.8170
32095SOL    HW1 2122   3.452   4.272   8.952  0.6564 -1.2093  2.5830
32095SOL    HW2 2123   3.453   4.407   9.021 -0.4367 -1.0827  2.3726
32096SOL     OW 2124   1.290   0.674   8.742  0.7684  0.2251  0.0570
32096SOL    HW1 2125   1.304   0.580   8.742 -1.4117 -0.1540 -0.4012
32096SOL    HW2 2126   1.292   0.699   8.835  1.5815 -0.1930  0.1659
32097SOL     OW 2127   1.936   0.181   8.861  0.0160  0.3433  0.6131
32097SOL    HW1 2128   2.008   0.193   8.923  0.2383  0.9357  0.2555
32097SOL    HW2 2129   1.900   0.269   8.849 -0.2156  0.1877  0.1310
32098SOL     OW 2130   9.050   4.049   1.190 -0.1076 -0.1709 -0.5201
32098SOL    HW1 2131   9.083   3.959   1.181  1.5155  0.4013 -0.7324
32098SOL    HW2 2132   9.070   4.073   1.280 -2.3426 -0.6632  0.1467
32099SOL     OW 2133  10.117  10.561   3.373  0.1136  0.3947  0.3359
32099SOL    HW1 2134  10.066  10.480   3.374 -1.7279  1.3396 -3.0416
32099SOL    HW2 2135  10.070  10.619   3.434 -2.0427  0.6853 -1.4587
32100SOL     OW 2136   5.983   1.927   2.061  0.3247 -0.0131  0.2059
32100SOL    HW1 2137   5.916   1.886   2.117 -1.2531 -1.0351 -2.2613
32100SOL    HW2 2138   5.955   2.018   2.053  1.0712  0.3846  1.7202
32101SOL     OW 2139   1.461   5.557   8.397 -0.4405 -0.6412  0.0254
32101SOL    HW1 2140   1.385   5.500   8.384  0.3959 -1.9545  0.5932
32101SOL    HW2 2141   1.428   5.631   8.448 -1.0759 -1.8939  1.5182
32102SOL     OW 2142   5.161   3.622  11.126  0.5721  0.2686  0.3192
32102SOL    HW1 2143   5.209   3.548  11.162 -0.1577 -0.7720 -0.7625
32102SOL    HW2 2144   5.071   3.608  11.154  0.0006 -0.5066 -1.7152
32103SOL     OW 2145   8.982   4.559   0.868 -0.0573  0.1358  0.2011
32103SOL    HW1 2146   9.061   4.550   0.814  0.4515  0.4522  0.8727
32103SOL    HW2 2147   8.981   4.480   0.921 -1.5296 -1.0382 -1.4771
32104SOL     OW 2148  10.148   5.105  10.620 -0.0253 -0.3530  0.1176
32104SOL    HW1 2149  10.095   5.029  10.644 -0.0342 -0.4332 -0.1583
32104SOL    HW2 2150  10.239   5.075  10.628 -0.0209 -0.2636  0.4319
32105SOL     OW 2151   0.431   9.309   1.504 -0.4289 -0.4941  0.1061
32105SOL    HW1 2152   0.475   9.352   1.577  0.3412  0.2391 -0.7581
32105SOL    HW2 2153   0.480   9.228   1.491  0.0676 -0.1483 -0.2226
32106SOL     OW 2154   8.240   1.249   2.578  0.7035  0.2016  0.2434
32106SOL    HW1 2155   8.263   1.165   2.618  1.8323  1.4140  2.2677
32106SOL    HW2 2156   8.313   1.307   2.601  0.1226  1.6633 -1.4188
32107SOL     OW 2157  11.099   6.295   0.133  0.5049 -0.2498  0.1319
32107SOL    HW1 2158  11.047   6.350   0.075 -0.8082 -1.2114  0.3289
32107SOL    HW2 2159  11.034   6.241   0.179  1.6292 -0.8286  1.1060
32108SOL     OW 2160   9.125   1.060   4.506  0.1167 -0.1231 -0.1419
32108SOL    HW1 2161   9.056   1.041   4.443 -0.4982 -0.0716  0.5076
32108SOL    HW2 2162   9.197   1.096   4.453 -0.4976  0.1849 -0.7784
32109SOL     OW 2163   1.430   5.567   7.843 -0.3442  0.1399 -0.1261
32109SOL    HW1 2164   1.416   5.481   7.804 -0.7416 -0.0135  0.3493
32109SOL    HW2 2165   1.515   5.560   7.887  0.2999  0.4346 -1.2670
32110SOL     OW 2166   7.217   1.208   3.183 -0.0555  0.5326 -0.6049
32110SOL    HW1 2167   7.193   1.158   3.261 -0.1121 -1.5600 -1.8865
32110SOL    HW2 2168   7.307   1.237   3.199 -0.4474  1.0820  0.6775
32111SOL     OW 2169   1.189   8.890   0.289 -0.2634 -0.3601  0.1691
32111SOL    HW1 2170   1.095   8.882   0.273 -0.3446 -1.0465  0.9665
32111SOL    HW2 2171   1.224   8.926   0.207 -1.6159  2.7771  0.8129
32112SOL     OW 2172   3.842   6.309   8.990  0.0232  0.1978  0.4523
32112SOL    HW1 2173   3.785   6.347   9.057  1.2756 -0.1593  1.7865
32112SOL    HW2 2174   3.858   6.382   8.929  2.4779  2.0702  3.0240
32113SOL     OW 2175  11.680   2.822  10.802  0.1288  0.2471  0.3641
32113SOL    HW1 2176  11.673   2.816  10.897  2.8482  1.5797  0.7542
32113SOL    HW2 2177  11.637   2.905  10.780  0.5836  0.5456  0.5967
32114SOL     OW 2178  11.489   6.402   0.380 -0.0802  0.3881  0.7268
32114SOL    HW1 2179  11.561   6.459   0.352  0.6056 -0.4431  0.7784
32114SOL    HW2 2180  11.411   6.439   0.338  0.7479 -0.1882 -1.4235
32115SOL     OW 2181   3.576   4.173   0.571  0.1886  0.1434 -0.3364
32115SOL    HW1 2182   3.487   4.157   0.540  0.3750 -1.7597 -0.0342
32115SOL    HW2 2183   3.577   4.265   0.595 -1.4465  0.4088 -1.1294
32116SOL     OW 2184   1.846   4.354   8.852  0.0994  0.4375 -0.8419
32116SOL    HW1 2185   1.799   4.422   8.901 -0.2165 -2.1897  3.0383
32116SOL    HW2 2186   1.938   4.373   8.866  0.0199  0.5498 -0.4504
32117SOL     OW 2187   9.890   4.967   6.082 -0.1151 -0.6769 -0.4384
32117SOL    HW1 2188   9.841   5.046   6.105 -0.4717 -0.7552 -0.8990
32117SOL    HW2 2189   9.837   4.925   6.014  0.8389 -0.5023 -1.3227
32118SOL     OW 2190   6.581  12.042   1.571 -0.0460 -0.3236  0.0580
32118SOL    HW1 2191   6.541  11.985   1.636 -1.1269 -0.7698 -0.9551
32118SOL    HW2 2192   6.562  12.131   1.603 -2.6562 -0.4965 -0.7762
32119SOL     OW 2193   7.357  10.472   4.019  0.0606 -0.2132  0.1422
32119SOL    HW1 2194   7.372  10.382   4.046 -2.2596 -0.8279 -0.4476
32119SOL    HW2 2195   7.437  10.518   4.044  1.1257 -2.3299  0.8317
32120SOL     OW 2196   3.901   6.569   0.764  0.8394 -0.4988 -0.3517
32120SOL    HW1 2197   3.916   6.659   0.735  1.9147  0.3792  2.5867
32120SOL    HW2 2198   3.974   6.520   0.727  0.0587 -0.3130 -2.2728
32121SOL     OW 2199   5.334   3.928  10.412  0.0734 -0.2411  0.2091
32121SOL    HW1 2200   5.328   3.857  10.348  2.9058 -0.0443 -0.4203
32121SOL    HW2 2201   5.355   3.884  10.494  0.6367 -0.2444  0.0703
32122SOL     OW 2202   4.124  10.117  11.775  0.5897  0.4574 -0.7247
32122SOL    HW1 2203   4.063  10.061  11.727 -0.3623  0.3633  0.5430
32122SOL    HW2 2204   4.210  10.078  11.759  0.1914 -0.1030 -1.5775
32123SOL     OW 2205   4.602   2.680   9.787 -0.0638  0.6672  0.1970
32123SOL    HW1 2206   4.691   2.669   9.753  0.3538 -0.4723  1.5464
32123SOL    HW2 2207   4.552   2.609   9.749 -0.0267  0.4420  0.5589
32124SOL     OW 2208   3.402   2.741   0.423  0.4090  0.1982  0.1867
32124SOL    HW1 2209   3.343   2.694   0.365 -2.4826 -0.7213  3.5221
32124SOL    HW2 2210   3.436   2.675   0.483 -0.8692  1.6429  2.6993
32125SOL     OW 2211   0.229   4.840   0.312  0.1473 -0.0405  0.1178
32125SOL    HW1 2212   0.196   4.885   0.390  0.9365 -0.7318  0.8827
32125SOL    HW2 2213   0.171   4.868   0.241  0.0586  1.4363  0.7358
32126SOL     OW 2214  10.066   3.346  11.729 -0.1123 -0.4686  0.1084
32126SOL    HW1 2215  10.145   3.393  11.755 -0.3134 -0.1725  0.1854
32126SOL    HW2 2216  10.017   3.334  11.810 -0.5088  0.0291 -0.0477
32127SOL     OW 2217   1.983   1.440   8.342  0.3073  0.6853 -0.5555
32127SOL    HW1 2218   1.984   1.453   8.437  3.3786  1.9065 -0.6488
32127SOL    HW2 2219   2.062   1.390   8.323 -2.0147 -2.6840 -2.2332
32128SOL     OW 2220   4.016   0.714   8.651 -0.1129  0.5415  0.1773
32128SOL    HW1 2221   4.089   0.763   8.611  0.4072 -0.1220  0.3023
32128SOL    HW2 2222   3.967   0.781   8.699  0.2134  1.0589 -0.1925
32129SOL     OW 2223   2.310   0.010   1.207  0.0935 -0.0787 -0.3257
32129SOL    HW1 2224   2.307  -0.077   1.166 -0.0715 -0.2988  0.1353
32129SOL    HW2 2225   2.246   0.062   1.159  0.3290 -0.1574 -0.7275
32130SOL     OW 2226   5.254  12.079   0.284  0.6335 -0.5027  0.0892
32130SOL    HW1 2227   5.319  12.085   0.354  2.4760 -0.2038 -1.5221
32130SOL    HW2 2228   5.177  12.041   0.324  1.6664 -0.4645  2.2178
32131SOL     OW 2229   8.101   6.638   2.668 -0.1778  0.8384  0.1801
32131SOL    HW1 2230   8.085   6.552   2.705  0.8815  0.7540  0.4497
32131SOL    HW2 2231   8.056   6.636   2.583 -1.7813  0.6957  0.9857
32132SOL     OW 2232   4.617   0.003   0.435  0.0737 -0.1496  0.2702
32132SOL    HW1 2233   4.629   0.030   0.344  0.7507  0.2843  0.4833
32132SOL    HW2 2234   4.683  -0.065   0.450 -0.8633 -1.1410  0.0792
32133SOL     OW 2235   6.837   8.611   9.590  0.0423 -0.0927  0.1903
32133SOL    HW1 2236   6.794   8.598   9.505 -0.8558 -0.3698  0.6721
32133SOL    HW2 2237   6.872   8.700   9.586  0.6770 -0.3714 -0.7524
32134SOL     OW 2238   6.416   6.710   8.852 -0.0791  0.2387  0.9935
32134SOL    HW1 2239   6.455   6.797   8.853 -0.7557  0.5484  0.5473
32134SOL    HW2 2240   6.491   6.651   8.844  0.2689  0.8718 -1.0093
32135SOL     OW 2241   9.427   1.968   2.678  0.5463 -0.5825 -0.3393
32135SOL    HW1 2242   9.515   1.932   2.668  0.2489 -1.4643  0.1801
32135SOL    HW2 2243   9.368   1.896   2.657 -0.0633 -0.0201 -0.6023
32136SOL     OW 2244   4.219  11.288   1.300  0.1793 -0.5115 -0.6889
32136SOL    HW1 2245   4.211  11.356   1.367  1.4063 -0.6322 -0.3905
32136SOL    HW2 2246   4.130  11.276   1.267 -0.3331  0.0569  0.4217
32137SOL     OW 2247  10.300   3.343   7.469 -0.2751 -0.0669 -0.0280
32137SOL    HW1 2248  10.355   3.268   7.491 -1.2299 -0.5249  0.8881
32137SOL    HW2 2249  10.222   3.305   7.429 -0.6923  0.4447  0.2775
32138SOL     OW 2250   2.077  10.342   4.235  0.3693 -0.1157  0.1423
32138SOL    HW1 2251   2.074  10.339   4.330  2.1614 -0.6812  0.2179
32138SOL    HW2 2252   2.002  10.289   4.207  0.3624 -0.7148  1.2417
32139SOL     OW 2253  11.632   5.417   0.861  0.4092  0.4664 -0.2470
32139SOL    HW1 2254  11.658   5.484   0.924 -0.4535  0.2502  0.3517
32139SOL    HW2 2255  11.538   5.432   0.847  0.3098 -0.3163 -0.4745
32140SOL     OW 2256   7.287   1.686   8.237  0.1885  0.6599  0.2179
32140SOL    HW1 2257   7.309   1.664   8.147 -1.7657  0.1966 -0.1849
32140SOL    HW2 2258   7.283   1.782   8.238 -1.4603  0.6365 -0.6627
32141SOL     OW 2259   8.757  10.787  10.410  0.0861  0.5117  0.1435
32141SOL    HW1 2260   8.842  10.812  10.446  0.2789  0.8062 -0.4885
32141SOL    HW2 2261   8.753  10.834  10.326 -0.5734  0.2683  0.0366
32142SOL     OW 2262   2.992   6.845   8.437  0.3186  0.1691  0.2434
32142SOL    HW1 2263   2.908   6.847   8.391  0.5330 -0.5400 -0.2061
32142SOL    HW2 2264   3.057   6.845   8.367  0.6565 -0.8254  0.5432
32143SOL     OW 2265   0.334   5.257   0.990 -0.3338  0.1929  0.0240
32143SOL    HW1 2266   0.383   5.228   0.914  0.7680  2.5592 -0.2683
32143SOL    HW2 2267   0.349   5.189   1.056 -0.2218 -1.2328 -1.4109
32144SOL     OW 2268  11.111   6.466   5.005  0.1502  0.2298  0.3068
32144SOL    HW1 2269  11.103   6.397   4.938 -0.6244  0.6568 -0.0533
32144SOL    HW2 2270  11.062   6.432   5.080 -0.0189  0.2787  0.2189
32145SOL     OW 2271   0.988  10.524   3.467 -0.3806  0.6359 -0.0328
32145SOL    HW1 2272   1.032  10.579   3.402  0.2356  0.6390  0.3826
32145SOL    HW2 2273   0.895  10.547   3.458 -0.1550  1.6273  0.0138
32146SOL     OW 2274   4.812   0.914   0.404 -0.1743 -0.2829  0.1949
32146SOL    HW1 2275   4.843   0.996   0.367 -0.9570  0.1775  0.5261
32146SOL    HW2 2276   4.763   0.940   0.483 -0.5222 -1.0485  0.2436
32147SOL     OW 2277   4.696   3.272   5.044  0.4407 -0.4210  0.0492
32147SOL    HW1 2278   4.667   3.194   4.997 -0.0059 -0.4006  0.2786
32147SOL    HW2 2279   4.750   3.237   5.115  2.3227 -0.3702 -1.2981
32148SOL     OW 2280   8.309  10.249   5.665 -0.1465 -0.6075  0.0391
32148SOL    HW1 2281   8.379  10.250   5.600  1.4317 -0.6939  1.6777
32148SOL    HW2 2282   8.327  10.325   5.721 -3.1063  1.2130 -1.1811
32149SOL     OW 2283   4.476  11.921   0.325 -0.1625  0.0653  0.2525
32149SOL    HW1 2284   4.382  11.940   0.319  0.0376  0.8689 -0.6476
32149SOL    HW2 2285   4.488  11.887   0.413 -1.3378 -0.2663  0.3098
32150SOL     OW 2286  10.764   2.135   0.693 -0.1838 -0.0975 -0.3037
32150SOL    HW1 2287  10.678   2.177   0.703  1.0582  2.2489  1.6772
32150SOL    HW2 2288  10.814   2.164   0.770  3.0094  0.2337 -2.3113
32151SOL     OW 2289   8.193   6.422   7.726  0.3838  0.1994 -0.0309
32151SOL    HW1 2290   8.268   6.404   7.670  2.7896  1.3756  2.5398
32151SOL    HW2 2291   8.155   6.503   7.690  1.9065  0.9650 -0.0123
32152SOL     OW 2292   0.357   1.730   2.759  0.0567 -0.3020  0.0842
32152SOL    HW1 2293   0.389   1.641   2.742 -0.0024 -0.1471 -0.8869
32152SOL    HW2 2294   0.302   1.750   2.683 -0.8189  0.1490  0.8217
32153SOL     OW 2295   0.848  11.784   4.210  0.1821 -0.2631 -0.9554
32153SOL    HW1 2296   0.794  11.735   4.272  2.0770  0.7080  1.6571
32153SOL    HW2 2297   0.888  11.717   4.155 -1.8276 -1.1351 -1.4675
32154SOL     OW 2298   2.792   7.526  11.115  0.2860 -0.1230 -0.0070
32154SOL    HW1 2299   2.720   7.498  11.057  0.0201 -1.6258  0.9843
32154SOL    HW2 2300   2.837   7.444  11.136  0.0555  0.3080  2.3283
32155SOL     OW 2301  10.899   8.406   7.798  0.5189  0.3484 -0.0482
32155SOL    HW1 2302  10.860   8.461   7.865  1.8686  1.9720 -0.5157
32155SOL    HW2 2303  10.868   8.444   7.715  0.9171 -0.0286 -0.3743
32156SOL     OW 2304   2.902   2.133   5.602  0.5092 -0.0083  0.3456
32156SOL    HW1 2305   2.946   2.048   5.595  1.3855  0.2036  2.4327
32156SOL    HW2 2306   2.973   2.196   5.612 -0.1710  0.8344 -0.0005
32157SOL     OW 2307   5.859   1.006   7.662 -0.0674 -0.0042  0.2658
32157SOL    HW1 2308   5.825   0.971   7.744 -2.9814  0.1227 -0.7784
32157SOL    HW2 2309   5.866   1.100   7.678  1.6218 -0.2365  1.0563
32158SOL     OW 2310   4.989   0.830   0.175  0.0129  0.3072  0.0378
32158SOL    HW1 2311   5.082   0.822   0.194 -0.1140  1.0769  1.0928
32158SOL    HW2 2312   4.977   0.923   0.154 -0.2521 -0.0915 -1.7408
32159SOL     OW 2313  12.011   7.981  10.544  0.4186 -0.0313  0.3678
32159SOL    HW1 2314  12.006   8.075  10.564  1.2497 -0.1133  1.0178
32159SOL    HW2 2315  12.001   7.938  10.629  0.1447 -0.5386  0.0862
32160SOL     OW 2316   3.316   2.053   1.545  0.6715  0.0889  0.5144
32160SOL    HW1 2317   3.239   2.040   1.601  0.0315 -1.0623 -0.5908
32160SOL    HW2 2318   3.363   1.970   1.550  0.6139 -0.0240 -0.6249
32161SOL     OW 2319   6.288   6.666   7.491 -0.6593 -0.6272  0.7838
32161SOL    HW1 2320   6.236   6.593   7.457 -2.8137  0.2794  1.9105
32161SOL    HW2 2321   6.242   6.693   7.570  1.7502  0.0954  2.0287
32162SOL     OW 2322   6.545   6.440   7.409  0.4352 -0.0845  0.2802
32162SOL    HW1 2323   6.602   6.504   7.452 -0.6344  1.3471 -0.3753
32162SOL    HW2 2324   6.603   6.391   7.350  1.0361  1.1759 -0.1927
32163SOL     OW 2325   3.064  11.744   8.545 -0.3700  0.1889 -0.0715
32163SOL    HW1 2326   2.990  11.688   8.524 -0.3149 -0.0710  0.4070
32163SOL    HW2 2327   3.028  11.812   8.602 -0.3860  0.4931 -0.4430
32164SOL     OW 2328   3.280   1.262   5.672 -0.3600  0.2491 -0.4975
32164SOL    HW1 2329   3.252   1.325   5.739  0.2944  1.5926 -1.4474
32164SOL    HW2 2330   3.356   1.303   5.631  1.2831 -2.0340  0.1122
32165SOL     OW 2331   2.271  10.876   4.238  0.5816  0.0321 -0.4861
32165SOL    HW1 2332   2.193  10.882   4.293  1.5997 -0.1749  1.0330
32165SOL    HW2 2333   2.276  10.784   4.214  0.5594 -0.0160 -0.3054
32166SOL     OW 2334   1.423  11.933   5.352 -0.3793 -0.2705 -0.1380
32166SOL    HW1 2335   1.487  11.999   5.325 -0.1215 -0.2427  0.5258
32166SOL    HW2 2336   1.460  11.850   5.321  0.8854 -0.4844  1.7157
32167SOL     OW 2337   7.898   2.743   0.782  0.6663  0.8300  0.1065
32167SOL    HW1 2338   7.889   2.728   0.687 -0.4110 -0.9619  0.4466
32167SOL    HW2 2339   7.810   2.766   0.812  0.7719  0.3181  0.8317
32168SOL     OW 2340   5.746  12.317   1.377 -0.4209 -0.2885 -0.0584
32168SOL    HW1 2341   5.711  12.378   1.312 -0.8210  2.2257  2.3197
32168SOL    HW2 2342   5.833  12.295   1.345 -0.0282  2.0441 -0.7989
32169SOL     OW 2343   3.215   5.474  11.593 -0.1320 -0.3332  0.2773
32169SOL    HW1 2344   3.147   5.407  11.600 -0.0515 -0.4422  0.0343
32169SOL    HW2 2345   3.271   5.459  11.669 -0.5825 -0.0097  0.6810
32170SOL     OW 2346   1.482   9.461   5.551 -0.5891 -0.2544 -0.0267
32170SOL    HW1 2347   1.472   9.391   5.616  2.6824 -1.1589 -0.3122
32170SOL    HW2 2348   1.513   9.536   5.601  0.1759 -0.3891 -0.2928
32171SOL     OW 2349   4.995  10.210   1.782 -0.4877 -0.1797  0.1724
32171SOL    HW1 2350   4.954  10.193   1.698 -0.6441  0.9448  0.0169
32171SOL    HW2 2351   4.925  10.244   1.837 -0.9128 -2.8093  1.4506
32172SOL     OW 2352   4.566   1.665   9.003  0.0465  0.6588  0.2103
32172SOL    HW1 2353   4.483   1.708   8.982 -0.2392 -0.2474 -0.6205
32172SOL    HW2 2354   4.630   1.736   9.004 -0.6873  1.3400  0.6082
32173SOL     OW 2355   9.140  12.044  11.345 -0.2680 -0.0440  0.5196
32173SOL    HW1 2356   9.052  12.033  11.307 -0.7725  1.4317  1.1527
32173SOL    HW2 2357   9.163  11.958  11.377 -0.9514 -0.7463 -0.7655
32174SOL     OW 2358  10.372   3.201   8.616 -0.2558 -0.4707  0.0300
32174SOL    HW1 2359  10.402   3.282   8.574 -0.5075 -0.0027  0.7273
32174SOL    HW2 2360  10.288   3.225   8.655  0.0586 -0.8401  0.9511
32175SOL     OW 2361   8.448   0.011   1.324 -0.1732  0.2851 -0.1657
32175SOL    HW1 2362   8.540   0.022   1.349 -0.4531 -0.5419  1.3479
32175SOL    HW2 2363   8.424   0.094   1.283  1.4988  0.1827 -1.4695
32176SOL     OW 2364   0.772  11.700   2.373 -0.3170 -0.2409  0.0874
32176SOL    HW1 2365   0.709  11.634   2.342  0.2677 -0.5089 -0.5554
32176SOL    HW2 2366   0.718  11.769   2.410 -0.9352 -1.2491  1.1224
32177SOL     OW 2367   2.414  12.097   6.074 -0.3749 -0.0722  0.1489
32177SOL    HW1 2368   2.369  12.118   6.156  0.2399 -0.1753  0.5152
32177SOL    HW2 2369   2.446  12.008   6.087 -0.6513 -0.2499 -0.3728
32178SOL     OW 2370   9.427   3.148   1.526 -0.3437 -0.8401  0.0908
32178SOL    HW1 2371   9.444   3.199   1.447 -1.1606  0.0703  0.4855
32178SOL    HW2 2372   9.490   3.181   1.590 -1.5310  0.4238  0.6508
32179SOL     OW 2373   1.782   3.819   3.448 -0.1704 -0.5069  0.0842
32179SOL    HW1 2374   1.690   3.791   3.447 -1.0744  1.9694  2.2616
32179SOL    HW2 2375   1.790   3.874   3.370 -0.4433 -0.9275 -0.2483
32180SOL     OW 2376   2.979   0.723   6.394 -0.0019 -0.6038 -0.2791
32180SOL    HW1 2377   2.904   0.741   6.450 -0.3635  1.7118 -1.4016
32180SOL    HW2 2378   2.972   0.629   6.375 -2.4106 -0.5347 -0.0617
32181SOL     OW 2379   1.602   8.933  11.163  1.0018  0.2337 -0.3744
32181SOL    HW1 2380   1.572   9.021  11.184 -1.0235 -0.8468  1.8219
32181SOL    HW2 2381   1.678   8.919  11.219  1.4262  0.6269 -0.8478
32182SOL     OW 2382  10.240   8.838   0.809  0.4385 -0.2035 -0.5123
32182SOL    HW1 2383  10.255   8.774   0.879 -0.8779  0.9825  0.9611
32182SOL    HW2 2384  10.304   8.817   0.742  0.1725 -2.9240 -0.0160
32183SOL     OW 2385  11.484   8.819   7.310  0.3523 -0.1919  0.1018
32183SOL    HW1 2386  11.539   8.743   7.290  0.9031 -0.1905  1.4920
32183SOL    HW2 2387  11.514   8.848   7.396 -1.4816  0.1321  0.6800
32184SOL     OW 2388   6.356   2.332   5.983 -0.0398  0.1546  0.0165
32184SOL    HW1 2389   6.286   2.397   5.985  0.2910  0.5468 -0.7270
32184SOL    HW2 2390   6.429   2.377   5.939  0.8388 -0.0824  1.1815
32185SOL     OW 2391  10.691   9.176  11.323  0.3266 -0.3106 -0.0336
32185SOL    HW1 2392  10.787   9.178  11.320  0.3200  0.0079 -0.0874
32185SOL    HW2 2393  10.671   9.140  11.409  0.4945  0.1093  0.1868
32186SOL     OW 2394   0.931   4.231   3.981  0.0749 -0.3799  0.0467
32186SOL    HW1 2395   0.992   4.158   3.990  0.7897 -0.0768 -1.7743
32186SOL    HW2 2396   0.954   4.271   3.897 -0.7184  1.5534  0.6794
32187SOL     OW 2397   8.022   2.877  10.623  0.3136 -0.5527  0.1000
32187SOL    HW1 2398   8.024   2.895  10.529  1.5064 -0.8189  0.0652
32187SOL    HW2 2399   7.929   2.877  10.645  0.0570  2.1412 -0.5741
32188SOL     OW 2400   6.777   1.121   8.020 -0.1209 -0.2083 -0.0135
32188SOL    HW1 2401   6.791   1.208   7.983 -1.3436  0.6301  1.3865
32188SOL    HW2 2402   6.798   1.061   7.948  0.8725  1.2128 -0.9703
32189SOL     OW 2403   0.935   1.540   3.124  0.3863 -0.3882  0.0740
32189SOL    HW1 2404   0.858   1.486   3.108 -0.9993  0.5031  2.9500
32189SOL    HW2 2405   0.969   1.509   3.208  1.1818  1.3692  0.4476
32190SOL     OW 2406  11.201  12.304   4.125  0.2449  0.1933  0.1202
32190SOL    HW1 2407  11.158  12.244   4.185  2.9112 -0.3297  1.6598
32190SOL    HW2 2408  11.295  12.289   4.139  1.0263  0.6430 -3.6033
32191SOL     OW 2409   2.841   7.300   9.905  0.1919 -0.1715 -0.1275
32191SOL    HW1 2410   2.793   7.230   9.858  2.3053 -0.3571 -2.2109
32191SOL    HW2 2411   2.904   7.253   9.960 -0.6677  0.0954  1.1194
32192SOL     OW 2412  10.901  12.272   7.461 -0.0007  0.0276  0.6736
32192SOL    HW1 2413  10.949  12.232   7.389 -0.5760  1.3282 -0.4996
32192SOL    HW2 2414  10.823  12.309   7.419 -2.1518 -2.0980  2.4889
32193SOL     OW 2415   9.360   3.095   8.371  0.2000 -0.3116 -0.2770
32193SOL    HW1 2416   9.284   3.095   8.312 -0.4907 -0.5406  0.6063
32193SOL    HW2 2417   9.422   3.035   8.329 -0.4909 -0.8720 -0.5264
32194SOL     OW 2418   2.600   7.314   6.838  0.2799  0.0576  0.1530
32194SOL    HW1 2419   2.567   7.389   6.787  1.9234  0.0354 -1.0115
32194SOL    HW2 2420   2.605   7.348   6.927  2.6438  2.0017 -0.5995
32195SOL     OW 2421   3.860   6.201   1.662 -0.0466 -0.4302  0.3963
32195SOL    HW1 2422   3.867   6.220   1.568  0.2952  0.3218  0.5647
32195SOL    HW2 2423   3.887   6.282   1.705  0.9410 -1.1255  1.1481
32196SOL     OW 2424   3.978   6.716   8.663  0.1106  0.4915 -0.1575
32196SOL    HW1 2425   4.035   6.730   8.588 -0.3481 -0.5180 -0.7107
32196SOL    HW2 2426   3.897   6.762   8.641  0.7786  2.2219  0.7777
32197SOL     OW 2427  10.134   2.488   5.033  0.2832 -0.0702 -0.9679
32197SOL    HW1 2428  10.049   2.447   5.050  0.4541 -0.8960 -2.0167
32197SOL    HW2 2429  10.174   2.434   4.965  0.8310  1.4212 -1.8864
32198SOL     OW 2430   8.470  10.205   7.260  0.3052  0.2633  0.4083
32198SOL    HW1 2431   8.430  10.226   7.344  1.9628 -0.5794  1.4706
32198SOL    HW2 2432   8.564  10.203   7.278  0.6879 -0.2236 -1.4089
32199SOL     OW 2433   7.450   4.744   6.797  0.9967 -0.6358 -0.1466
32199SOL    HW1 2434   7.384   4.675   6.804  0.3448 -0.0125 -0.0374
32199SOL    HW2 2435   7.472   4.765   6.888 -0.6997  1.0548 -0.0534
32200SOL     OW 2436   5.121   8.108   7.345  0.2018  0.9279  0.2811
32200SOL    HW1 2437   5.150   8.185   7.393  1.7915  0.6893 -0.2589
32200SOL    HW2 2438   5.185   8.040   7.366 -0.2135  0.2417 -0.5733
32201SOL     OW 2439   0.793   4.857   7.486  0.8764  0.0708  0.3177
32201SOL    HW1 2440   0.701   4.862   7.513  0.4406 -1.7085 -0.6883
32201SOL    HW2 2441   0.839   4.909   7.551 -0.7793  0.5600  1.1721
32202SOL     OW 2442   3.298   0.948   9.554  0.0918  0.4495 -0.7146
32202SOL    HW1 2443   3.259   0.872   9.513  0.7211 -0.7498  0.8038
32202SOL    HW2 2444   3.331   1.001   9.482 -0.7730 -0.4879 -1.8168
32203SOL     OW 2445  12.269   4.461   0.490 -0.3468  0.8252  0.0542
32203SOL    HW1 2446  12.175   4.454   0.508 -0.5120  0.1150 -0.9941
32203SOL    HW2 2447  12.300   4.527   0.552 -0.9847 -0.9854  2.4605
32204SOL     OW 2448   3.904   0.520  11.561 -0.2974  0.5093 -0.5403
32204SOL    HW1 2449   3.922   0.521  11.467 -1.4916  0.3301 -0.7865
32204SOL    HW2 2450   3.817   0.559  11.569 -2.0216 -3.0479  0.0523
32205SOL     OW 2451  12.231   9.860   2.989 -0.0417  0.5463  0.2223
32205SOL    HW1 2452  12.245   9.954   2.983  0.0274  0.5853  0.8643
32205SOL    HW2 2453  12.250   9.839   3.081  1.3896 -0.3299 -0.2368
32206SOL     OW 2454   6.053   5.996   1.293  0.0088 -0.2362  0.3252
32206SOL    HW1 2455   6.141   6.025   1.271 -0.7736  1.3745 -0.8976
32206SOL    HW2 2456   6.005   6.077   1.312 -0.9230 -1.1495  2.1743
32207SOL     OW 2457  11.885   9.724   7.897  0.2336 -0.1898 -0.0615
32207SOL    HW1 2458  11.810   9.721   7.837  0.4672 -0.2711 -0.3497
32207SOL    HW2 2459  11.953   9.675   7.852 -0.0371 -1.4668  0.8955
32208SOL     OW 2460   6.280   0.821   4.280 -0.2613  0.2009 -0.2150
32208SOL    HW1 2461   6.261   0.767   4.357 -1.6331  2.1477  0.8975
32208SOL    HW2 2462   6.362   0.865   4.301  0.3909 -0.7349 -0.7401
32209SOL     OW 2463  10.600   3.073   9.793  0.2376 -0.2514 -0.1624
32209SOL    HW1 2464  10.623   3.040   9.706  1.9279 -0.9322  0.4820
32209SOL    HW2 2465  10.559   3.158   9.777  0.1548 -0.5440 -1.6362
32210SOL     OW 2466   5.103   7.725   4.247 -0.0066 -0.8120 -0.4284
32210SOL    HW1 2467   5.190   7.685   4.244  0.9211  1.0972 -1.4024
32210SOL    HW2 2468   5.043   7.653   4.228  1.3455 -2.1952  0.3240
32211SOL     OW 2469   1.440   0.691  10.817 -0.1225 -0.1504  0.6097
32211SOL    HW1 2470   1.380   0.764  10.800  0.0467  0.2195  1.5606
32211SOL    HW2 2471   1.503   0.694  10.745  0.1570  0.9295  0.8844
32212SOL     OW 2472   5.443   1.027   2.001  0.2086  0.7394 -0.1127
32212SOL    HW1 2473   5.537   1.018   1.988 -0.0481 -3.7863 -0.2392
32212SOL    HW2 2474   5.431   1.018   2.095 -0.1822 -0.6912 -0.2840
32213SOL     OW 2475   3.559   3.077   1.253  0.2664  0.1848 -0.2763
32213SOL    HW1 2476   3.635   3.109   1.301 -0.7102  0.7189  0.9975
32213SOL    HW2 2477   3.595   3.021   1.184  1.8114  0.8403 -0.0309
32214SOL     OW 2478   7.931  11.769   0.643 -0.2402  0.1226  0.0498
32214SOL    HW1 2479   7.951  11.769   0.549 -0.2015  2.9689 -0.0459
32214SOL    HW2 2480   8.013  11.742   0.684  0.4017  0.8707 -0.6969
32215SOL     OW 2481  11.693   0.907   0.436 -0.0417 -0.4419  0.3514
32215SOL    HW1 2482  11.759   0.975   0.449 -0.6188  0.3799 -0.8100
32215SOL    HW2 2483  11.720   0.862   0.356 -1.1093  0.2141 -0.4037
32216SOL     OW 2484   3.937   6.672   5.509 -0.2051  0.0664  0.2102
32216SOL    HW1 2485   3.951   6.609   5.438  0.1099  0.1580  0.1896
32216SOL    HW2 2486   3.910   6.619   5.584  0.3420 -0.1190  0.2735
32217SOL     OW 2487   2.734   0.877   5.368  0.3540  1.0174  0.6193
32217SOL    HW1 2488   2.804   0.813   5.352 -0.0580  0.6240  0.3920
32217SOL    HW2 2489   2.684   0.879   5.286  0.2487  1.4909  0.6918
32218SOL     OW 2490   5.639   7.455   2.854 -0.8530  0.0741 -0.6235
32218SOL    HW1 2491   5.602   7.445   2.767 -1.3470  0.3883 -0.4515
32218SOL    HW2 2492   5.580   7.405   2.911 -0.4740 -0.2201 -0.4824
32219SOL     OW 2493   5.780  10.892   8.102 -0.2819 -0.0716  0.1525
32219SOL    HW1 2494   5.846  10.896   8.033  0.4012 -2.7323  0.5388
32219SOL    HW2 2495   5.820  10.937   8.176 -0.2074  1.0518 -0.5400
32220SOL     OW 2496   5.268   6.434   7.746  0.4879  0.4508  0.0581
32220SOL    HW1 2497   5.293   6.484   7.669  0.1954  0.3661 -0.0951
32220SOL    HW2 2498   5.323   6.469   7.816 -1.5747  2.9513  0.6067
32221SOL     OW 2499   7.480   3.337   2.920 -0.1703  0.1128 -0.3570
32221SOL    HW1 2500   7.441   3.250   2.929 -2.1809  0.9584 -0.4451
32221SOL    HW2 2501   7.431   3.392   2.982  0.1250  1.4775 -1.2900
32222SOL     OW 2502  12.127  10.562   6.250 -0.0822 -0.3190  0.3459
32222SOL    HW1 2503  12.040  10.565   6.210 -0.0961  1.2704  0.4136
32222SOL    HW2 2504  12.163  10.649   6.233  0.5695 -0.1613  2.3407
32223SOL     OW 2505   2.170   2.766   1.489 -0.2410 -0.1982  0.4382
32223SOL    HW1 2506   2.090   2.796   1.532 -0.3898  0.2733 -0.1487
32223SOL    HW2 2507   2.139   2.726   1.407  0.2691  2.5903 -1.2410
32224SOL     OW 2508   5.846   6.511   8.293 -0.4476 -0.3665  0.1641
32224SOL    HW1 2509   5.905   6.455   8.344  0.5782 -0.5498 -1.1649
32224SOL    HW2 2510   5.807   6.569   8.358  0.7238 -0.6561  1.1776
32225SOL     OW 2511   3.428   9.822   9.801 -0.0124 -0.3094  0.5862
32225SOL    HW1 2512   3.349   9.769   9.796 -0.9662  0.9957  1.0309
32225SOL    HW2 2513   3.450   9.824   9.895 -1.4304  1.9901  0.9613
32226SOL     OW 2514   6.157   2.482  10.818 -0.8417 -0.2713  0.0287
32226SOL    HW1 2515   6.142   2.548  10.750 -0.1142 -0.2663 -0.1378
32226SOL    HW2 2516   6.180   2.533  10.896 -0.1143 -0.3179 -0.1428
32227SOL     OW 2517   1.171   6.404   9.038  0.1127 -0.0388  0.2162
32227SOL    HW1 2518   1.237   6.458   9.083  0.8831 -0.9448  0.2024
32227SOL    HW2 2519   1.090   6.421   9.085 -0.0929  2.5327 -0.8960
32228SOL     OW 2520   7.900  10.753   8.237 -0.2435 -0.4846 -0.2553
32228SOL    HW1 2521   7.909  10.823   8.302 -0.7259  1.2697 -1.9688
32228SOL    HW2 2522   7.807  10.753   8.215 -0.1743 -1.3989 -0.5920
32229SOL     OW 2523   6.802   4.884   4.820  0.3822 -0.1015  0.5968
32229SOL    HW1 2524   6.838   4.942   4.753  1.6760 -0.4066  1.0035
32229SOL    HW2 2525   6.781   4.803   4.773  0.2128  0.0840  0.3519
32230SOL     OW 2526   0.876   8.193  11.365  0.1388 -0.2755 -0.3502
32230SOL    HW1 2527   0.937   8.197  11.438 -0.2809 -0.9704  0.0598
32230SOL    HW2 2528   0.912   8.126  11.306 -0.0478 -0.4392 -0.2784
32231SOL     OW 2529   4.552  11.785   3.194  0.2420 -0.6210  0.6014
32231SOL    HW1 2530   4.493  11.815   3.125  1.1417 -0.2378 -0.0284
32231SOL    HW2 2531   4.503  11.717   3.240 -1.1211  0.4877  0.8496
32232SOL     OW 2532   9.966   8.516   2.594 -0.4885 -0.1682  0.3190
32232SOL    HW1 2533  10.058   8.530   2.574 -0.7911  2.3774  0.4023
32232SOL    HW2 2534   9.967   8.461   2.673  1.0010  0.7700  0.9987
32233SOL     OW 2535   3.751   9.451   0.157 -0.3794  0.3275  0.2339
32233SOL    HW1 2536   3.814   9.379   0.147 -0.0945  0.6497 -0.3150
32233SOL    HW2 2537   3.695   9.446   0.080  0.2353  1.2676 -0.2885
32234SOL     OW 2538   0.986   1.981   2.150  0.3562  0.3464  0.0941
32234SOL    HW1 2539   0.896   1.955   2.169  0.7054 -1.8090 -0.9809
32234SOL    HW2 2540   0.991   2.073   2.178 -2.0552  0.4011  0.4959
32235SOL     OW 2541   6.733  10.079   5.355  0.2952 -0.2431  0.2722
32235SOL    HW1 2542   6.709  10.170   5.336 -0.2256 -0.4333 -0.0031
32235SOL    HW2 2543   6.679  10.027   5.295  2.1584 -0.6577 -1.1314
32236SOL     OW 2544   7.237  11.447   4.791  0.3579 -0.5637 -0.2923
32236SOL    HW1 2545   7.171  11.395   4.746  0.3511  0.2770 -1.2835
32236SOL    HW2 2546   7.304  11.384   4.816 -0.5143 -1.3302  0.1779
32237SOL     OW 2547   3.880   1.076   0.853 -0.2131 -0.5535  0.5077
32237SOL    HW1 2548   3.949   1.123   0.900  1.7736 -0.3080 -2.4210
32237SOL    HW2 2549   3.911   0.986   0.847 -1.4599 -1.0760  1.4228
32238SOL     OW 2550   6.503   7.476   8.686 -0.0694  0.0974  0.2003
32238SOL    HW1 2551   6.518   7.393   8.641 -0.4364  0.1597 -0.0382
32238SOL    HW2 2552   6.416   7.466   8.725  0.2096  0.0679  0.8449
32239SOL     OW 2553   2.866   7.243   3.027  0.5320 -0.8670  0.0259
32239SOL    HW1 2554   2.885   7.337   3.023 -0.1002 -0.7617 -0.6410
32239SOL    HW2 2555   2.771   7.237   3.027  0.5603 -1.5312 -0.6831
32240SOL     OW 2556   3.627  12.092   6.913  0.4522 -0.1139  0.3220
32240SOL    HW1 2557   3.564  12.070   6.844  1.0295  0.8611 -0.5569
32240SOL    HW2 2558   3.647  12.008   6.954  1.1768 -0.9787 -1.6548
32241SOL     OW 2559   0.898  12.232   1.429  0.0583 -0.1946  0.1504
32241SOL    HW1 2560   0.854  12.186   1.501  0.2542 -1.2704 -0.3900
32241SOL    HW2 2561   0.980  12.263   1.468 -0.6869  0.9355  0.8884
32242SOL     OW 2562   8.735   9.324  11.985  0.3862  0.7684  0.0496
32242SOL    HW1 2563   8.756   9.418  11.984  1.4043  0.5764  1.3924
32242SOL    HW2 2564   8.763   9.293  11.899  1.0396  1.4956 -0.0150
32243SOL     OW 2565   0.721   7.685   8.108  0.3813 -0.1076 -0.4578
32243SOL    HW1 2566   0.697   7.734   8.029  1.0273 -0.1065 -0.6544
32243SOL    HW2 2567   0.775   7.746   8.158  0.2231 -0.2170 -0.1489
32244SOL     OW 2568   5.191  11.588   2.159 -0.4449 -0.4535 -0.0200
32244SOL    HW1 2569   5.146  11.527   2.217 -0.0185 -0.6177  0.1431
32244SOL    HW2 2570   5.279  11.552   2.150 -0.9813 -1.4313 -2.1734
32245SOL     OW 2571   4.666   9.728   3.753  0.2261  0.2122 -0.3014
32245SOL    HW1 2572   4.676   9.822   3.765 -0.0164  0.5684 -2.3796
32245SOL    HW2 2573   4.572   9.714   3.741  0.3848 -0.0673 -1.3424
32246SOL     OW 2574   3.384   6.332   0.115  0.0821 -0.0404 -0.0268
32246SOL    HW1 2575   3.440   6.280   0.058 -0.8479 -0.3377 -0.6899
32246SOL    HW2 2576   3.295   6.300   0.098 -0.3425  0.6979  0.6951
32247SOL     OW 2577   7.738  12.026   6.369  0.0136  0.1977  0.6416
32247SOL    HW1 2578   7.669  12.070   6.418  0.7580  1.4253  0.6392
32247SOL    HW2 2579   7.769  11.957   6.428  0.2224  1.0183  1.5202
32248SOL     OW 2580   3.078   2.173   3.059 -0.3213 -0.1233 -0.0485
32248SOL    HW1 2581   2.996   2.185   3.011 -0.4569  0.3942  0.3117
32248SOL    HW2 2582   3.141   2.145   2.992 -0.4448  0.8613 -0.5863
32249SOL     OW 2583   7.688  11.257   6.613  0.1978 -0.0284 -0.1330
32249SOL    HW1 2584   7.762  11.317   6.603  0.5242 -0.3442  0.3502
32249SOL    HW2 2585   7.613  11.315   6.629  0.4669  0.2626  0.0879
32250SOL     OW 2586   4.456   5.577   9.183 -0.0533  0.5492 -0.5944
32250SOL    HW1 2587   4.383   5.621   9.140  0.2352  1.8193  0.1609
32250SOL    HW2 2588   4.430   5.573   9.276  1.1174  1.6606 -0.1952
32251SOL     OW 2589   3.358   4.171  11.663  0.5355 -0.0128 -0.4077
32251SOL    HW1 2590   3.278   4.200  11.618 -0.9278 -1.5286  1.1099
32251SOL    HW2 2591   3.335   4.172  11.756  2.8277  1.0446  0.2149
32252SOL     OW 2592   7.574   9.756  11.111  0.3390 -0.0358 -0.3668
32252SOL    HW1 2593   7.529   9.839  11.095 -0.0014  0.0101  0.7367
32252SOL    HW2 2594   7.547   9.699  11.039 -1.5163 -0.0147  0.2741
32253SOL     OW 2595   5.381   2.076  10.457  0.3327 -0.1070  0.0382
32253SOL    HW1 2596   5.346   2.150  10.406  1.5761  0.6494  0.2213
32253SOL    HW2 2597   5.310   2.050  10.514  0.3010  1.9735  1.0585
32254SOL     OW 2598   6.724   1.006   4.274 -0.4765  0.0593 -0.5630
32254SOL    HW1 2599   6.638   0.994   4.316  0.5067 -0.1077  1.5392
32254SOL    HW2 2600   6.770   0.924   4.293  0.3746  0.4175 -1.0866
32255SOL     OW 2601   5.653   2.069  12.223 -0.0281 -0.1258 -0.3960
32255SOL    HW1 2602   5.560   2.080  12.244 -0.0618  2.9528 -1.6781
32255SOL    HW2 2603   5.654   2.042  12.131  0.3830 -1.9085  0.0869
32256SOL     OW 2604   7.147   4.573   1.017  0.2581 -0.0069 -0.1113
32256SOL    HW1 2605   7.072   4.579   1.076 -0.4871 -0.5805 -0.9765
32256SOL    HW2 2606   7.112   4.597   0.931  0.8323 -1.2584 -0.7155
32257SOL     OW 2607   0.390   5.978   5.579  0.4415 -0.6863  0.1713
32257SOL    HW1 2608   0.364   5.901   5.528 -3.3717  0.5522 -0.0565
32257SOL    HW2 2609   0.420   6.041   5.514  0.0384 -0.7396 -0.0721
32258SOL     OW 2610   7.199   1.685   9.825 -0.6116 -0.2035  0.7751
32258SOL    HW1 2611   7.180   1.622   9.894 -1.8072 -0.5060  0.1908
32258SOL    HW2 2612   7.237   1.633   9.754  0.4897  0.0872  1.1280
32259SOL     OW 2613   5.157   1.015   2.046 -0.1040  0.0854 -0.3656
32259SOL    HW1 2614   5.096   0.943   2.061  0.1704  0.1689  1.4690
32259SOL    HW2 2615   5.162   1.059   2.131  3.0040 -0.3064 -0.2662
32260SOL     OW 2616   7.988   9.711   5.797 -0.4964 -0.3980 -0.0591
32260SOL    HW1 2617   7.898   9.730   5.825  0.0364  1.1642  0.7251
32260SOL    HW2 2618   8.013   9.787   5.745  1.1866  0.4364  1.8271
32261SOL     OW 2619   0.631   8.761   5.205  0.2792 -0.1699 -0.3038
32261SOL    HW1 2620   0.610   8.846   5.167  1.1305 -0.0262 -0.4706
32261SOL    HW2 2621   0.635   8.778   5.299 -1.2053 -0.3928 -0.1759
32262SOL     OW 2622   3.807   4.050   5.337 -0.3500 -0.0953 -0.1838
32262SOL    HW1 2623   3.847   4.101   5.409 -0.0262 -1.0669  0.3390
32262SOL    HW2 2624   3.728   4.012   5.376 -0.5824 -0.0053 -0.5688
32263SOL     OW 2625   6.478   8.731   1.178  0.0475 -0.5526  0.8214
32263SOL    HW1 2626   6.569   8.716   1.151 -0.2225 -1.8593  0.5910
32263SOL    HW2 2627   6.474   8.825   1.197  1.1646 -0.2714 -0.2216
32264SOL     OW 2628  11.295   0.824   1.630  0.5946  0.3523 -0.5530
32264SOL    HW1 2629  11.299   0.743   1.679 -0.7816  0.4098 -0.3072
32264SOL    HW2 2630  11.386   0.856   1.628  0.7428  0.1852  1.6394
32265SOL     OW 2631   0.433   1.151  10.624 -0.5643  0.1298  0.0378
32265SOL    HW1 2632   0.354   1.204  10.627 -0.7095 -0.1262  2.1020
32265SOL    HW2 2633   0.425   1.099  10.544 -2.5317  0.0467  0.2568
32266SOL     OW 2634   1.659   7.510   4.772  0.2190  0.5081  0.2387
32266SOL    HW1 2635   1.735   7.565   4.751 -0.9662  1.4716 -1.7869
32266SOL    HW2 2636   1.667   7.435   4.712 -0.0580  0.2410  0.5306
32267SOL     OW 2637   7.832   9.811   1.772  0.0243  0.1732 -0.0414
32267SOL    HW1 2638   7.877   9.791   1.689 -1.3391 -1.7447 -0.3717
32267SOL    HW2 2639   7.785   9.893   1.754 -0.7406 -0.5202 -1.4077
32268SOL     OW 2640   1.837   7.933   5.191 -0.8656  0.0180  0.4075
32268SOL    HW1 2641   1.788   7.893   5.119 -0.5532  2.4325 -1.2434
32268SOL    HW2 2642   1.925   7.896   5.183 -1.0151 -0.2525 -0.0083
32269SOL     OW 2643   4.801   0.942   3.692 -0.2105  0.3762  0.3201
32269SOL    HW1 2644   4.851   0.877   3.644 -0.8426 -0.3237  0.5950
32269SOL    HW2 2645   4.819   1.024   3.646  1.0128  0.1169  0.2854
32270SOL     OW 2646   2.538   4.791   7.025 -0.3760 -0.5668  0.4485
32270SOL    HW1 2647   2.563   4.840   6.946  1.7342 -0.8406  0.8923
32270SOL    HW2 2648   2.618   4.746   7.052 -1.4107 -1.5933  1.9712
32271SOL     OW 2649   3.041   1.887  11.776 -0.0394  0.5665  0.1399
32271SOL    HW1 2650   3.120   1.909  11.727  1.1898 -0.8393  1.3833
32271SOL    HW2 2651   2.972   1.881  11.710  0.9876  1.3299 -1.0419
32272SOL     OW 2652   4.036   1.399   2.072 -0.2293 -0.2702  0.1577
32272SOL    HW1 2653   4.060   1.415   1.981 -1.4497  0.4902 -0.0503
32272SOL    HW2 2654   3.991   1.479   2.099 -0.0518 -0.5668  1.3698
32273SOL     OW 2655   2.944  10.990  10.157  0.5008 -0.1144  0.6931
32273SOL    HW1 2656   2.970  11.032  10.239 -1.3604  1.2624  0.6441
32273SOL    HW2 2657   2.889  10.917  10.184 -0.6234  0.7081  0.7040
32274SOL     OW 2658   1.708   9.975   4.295  0.1394 -0.5378  0.1688
32274SOL    HW1 2659   1.741  10.041   4.357  0.6116 -0.6601  0.0562
32274SOL    HW2 2660   1.633  10.017   4.253 -0.6239 -0.7097  1.3117
32275SOL     OW 2661  11.627   4.284   7.713  0.0492 -0.4954  0.2138
32275SOL    HW1 2662  11.688   4.352   7.684  0.3046 -1.0460 -0.5649
32275SOL    HW2 2663  11.547   4.301   7.663 -0.1286 -0.3373  0.5494
32276SOL     OW 2664  12.329  10.276   6.567 -0.3380  0.1038 -0.5001
32276SOL    HW1 2665  12.353  10.289   6.659  0.9247 -1.2791 -0.6004
32276SOL    HW2 2666  12.394  10.215   6.534 -0.5826  0.8299 -2.4249
32277SOL     OW 2667   9.984   6.455   6.534 -0.6553  0.2251  0.1063
32277SOL    HW1 2668   9.900   6.438   6.577 -1.1817 -0.9051 -1.2947
32277SOL    HW2 2669   9.975   6.417   6.447  2.0466 -1.8823  0.5869
32278SOL     OW 2670   7.184  10.063   2.656 -0.0053 -0.2438 -0.6388
32278SOL    HW1 2671   7.253   9.997   2.650  0.0731 -0.8941  3.7510
32278SOL    HW2 2672   7.108  10.015   2.690 -0.7726  1.4343  0.1404
32279SOL     OW 2673   3.654   8.459   6.524  0.1743 -0.0914 -0.0661
32279SOL    HW1 2674   3.685   8.368   6.522  0.1467 -0.0944 -1.2360
32279SOL    HW2 2675   3.585   8.462   6.458  0.2462  0.8031 -0.1105
32280SOL     OW 2676   7.768  11.922  10.602  0.2159 -0.1846  0.6237
32280SOL    HW1 2677   7.726  11.850  10.556  1.8987 -1.9995  1.7851
32280SOL    HW2 2678   7.795  11.884  10.686  2.2139  1.4633  0.7948
32281SOL     OW 2679   4.958   6.901   0.901 -0.0550 -0.3439 -0.2102
32281SOL    HW1 2680   4.892   6.967   0.924  0.0913 -0.2969  0.0833
32281SOL    HW2 2681   5.010   6.891   0.981 -0.0948 -0.8369 -0.2434
32282SOL     OW 2682   8.348   6.844   3.694 -0.1753 -0.3559  0.4489
32282SOL    HW1 2683   8.432   6.864   3.736  0.3380 -0.6002 -0.4237
32282SOL    HW2 2684   8.347   6.748   3.687 -0.5305 -0.3537  0.4481
32283SOL     OW 2685   7.845   4.291   8.225  0.2656  0.4736  0.3708
32283SOL    HW1 2686   7.893   4.263   8.147  1.8351  1.0722  1.0803
32283SOL    HW2 2687   7.791   4.215   8.248  2.9935 -1.3877  1.1523
32284SOL     OW 2688   8.942   1.096   5.038 -0.1947 -0.1596  0.3498
32284SOL    HW1 2689   8.886   1.018   5.037  2.1114 -1.9063 -0.2868
32284SOL    HW2 2690   8.949   1.120   5.130  0.9879 -2.2341  0.8547
32285SOL     OW 2691  11.298   2.127   2.893 -0.3583 -0.2498 -0.3729
32285SOL    HW1 2692  11.381   2.171   2.907 -0.9124  0.9529 -0.7665
32285SOL    HW2 2693  11.316   2.064   2.823  0.7052 -1.4618  0.9217
32286SOL     OW 2694  10.586   1.642   1.865  0.1929  0.1657 -0.4836
32286SOL    HW1 2695  10.652   1.613   1.928  0.5275  0.9299 -0.4768
32286SOL    HW2 2696  10.631   1.706   1.811  0.0669 -0.8448 -1.8535
32287SOL     OW 2697   0.315   8.811   5.012  0.1517  0.9083 -0.2832
32287SOL    HW1 2698   0.231   8.827   5.055  0.1058 -0.8139  0.3836
32287SOL    HW2 2699   0.379   8.855   5.067  0.2444 -2.2683  2.4695
32288SOL     OW 2700   4.981  11.818  11.238 -0.1352  0.6220 -0.1930
32288SOL    HW1 2701   5.069  11.782  11.250 -0.0830  1.2801  1.8214
32288SOL    HW2 2702   4.958  11.797  11.148  1.6742 -0.4634 -0.4437
32289SOL     OW 2703   3.252   4.515   6.987  0.6879  0.2899 -0.3187
32289SOL    HW1 2704   3.246   4.524   7.082  1.1828 -0.9936 -0.1377
32289SOL    HW2 2705   3.333   4.560   6.963  0.2066  1.2245 -0.2464
32290SOL     OW 2706   8.933   3.726   8.161 -0.3573  0.4090 -0.2130
32290SOL    HW1 2707   8.879   3.802   8.141  2.0232  2.2767 -0.0265
32290SOL    HW2 2708   8.974   3.702   8.078 -0.2249  0.0436 -0.0464
32291SOL     OW 2709  10.099   2.265   0.764 -0.5402  0.0003  0.7967
32291SOL    HW1 2710  10.056   2.338   0.720  1.9954  0.5262 -1.0750
32291SOL    HW2 2711  10.148   2.306   0.836 -0.7818 -0.1602  1.0535
32292SOL     OW 2712   3.030   8.600   0.393  0.0182  0.0257  0.0640
32292SOL    HW1 2713   3.017   8.518   0.345  2.4803 -0.0997 -0.5166
32292SOL    HW2 2714   3.008   8.578   0.484 -1.1918 -0.7271 -0.3936
32293SOL     OW 2715   3.918   4.489   5.379  0.4901 -0.7655 -0.2830
32293SOL    HW1 2716   3.946   4.405   5.414  0.0184 -1.0811 -0.6527
32293SOL    HW2 2717   3.830   4.473   5.344 -0.6362  0.4247  1.7578
32294SOL     OW 2718  12.151   3.066   5.699  0.4150 -0.5387  0.4500
32294SOL    HW1 2719  12.183   2.980   5.672  3.2621  0.3236  0.7131
32294SOL    HW2 2720  12.158   3.064   5.795 -1.6539 -0.7208  0.6426
32295SOL     OW 2721   4.022   6.451   1.926 -0.1860 -0.2063  0.2999
32295SOL    HW1 2722   3.975   6.476   1.846  2.0856 -2.8352 -2.0317
32295SOL    HW2 2723   3.958   6.403   1.977 -1.6591  1.4403  0.1176
32296SOL     OW 2724  11.588   7.496   0.172  0.5160  0.1390 -0.0520
32296SOL    HW1 2725  11.615   7.426   0.231 -0.2349  1.2974  1.7636
32296SOL    HW2 2726  11.637   7.480   0.092  3.2232 -0.3226  1.5778
32297SOL     OW 2727   5.004   8.832  10.105  0.4934 -0.1365 -0.3770
32297SOL    HW1 2728   4.970   8.918  10.082  1.8348  0.6649  0.5264
32297SOL    HW2 2729   4.966   8.773  10.040 -1.3689  0.9336 -0.3313
32298SOL     OW 2730   1.358   3.530   5.785 -0.1721  0.1512 -0.1957
32298SOL    HW1 2731   1.301   3.510   5.711  1.8381  1.4868 -2.2487
32298SOL    HW2 2732   1.347   3.624   5.799  0.3031  0.1149  0.4937
32299SOL     OW 2733   9.919   4.440   3.953 -0.8285  0.3832 -0.6353
32299SOL    HW1 2734   9.955   4.513   4.004 -1.0266 -0.8253  1.3608
32299SOL    HW2 2735   9.881   4.481   3.875  1.9170  2.0479 -1.2311
32300SOL     OW 2736   6.653   0.478   2.010  0.5545 -0.3664 -0.2212
32300SOL    HW1 2737   6.627   0.557   1.961 -1.0739 -0.4559  0.4278
32300SOL    HW2 2738   6.655   0.507   2.101  0.9768 -0.8343 -0.0812
32301SOL     OW 2739   9.419   5.136   7.281  0.1491 -0.0592 -0.1523
32301SOL    HW1 2740   9.505   5.176   7.290 -0.1687  0.4078  1.0023
32301SOL    HW2 2741   9.419   5.064   7.344 -1.3167  1.8071  2.1568
32302SOL     OW 2742   4.238   5.860   7.218 -0.5126  0.1644  0.4588
32302SOL    HW1 2743   4.262   5.951   7.201  0.4681 -0.1101  0.3052
32302SOL    HW2 2744   4.229   5.855   7.313  0.5547  0.1722  0.5717
32303SOL     OW 2745   1.785   4.821   1.038 -0.0809  0.1899 -0.3347
32303SOL    HW1 2746   1.765   4.890   1.101 -1.3516  1.1006 -1.6673
32303SOL    HW2 2747   1.767   4.740   1.085 -0.0271  0.8121  0.7866
32304SOL     OW 2748  10.887  10.319   5.236  0.7233 -0.6475  0.0208
32304SOL    HW1 2749  10.890  10.361   5.150  1.4615  0.3778  0.5254
32304SOL    HW2 2750  10.893  10.225   5.217 -1.7409 -0.6477 -1.1678
32305SOL     OW 2751   1.820   5.465   9.304  0.0351 -0.3406 -0.0867
32305SOL    HW1 2752   1.879   5.446   9.376  1.4330  0.5737 -0.9376
32305SOL    HW2 2753   1.824   5.561   9.294 -1.1902 -0.3084 -0.5032
32306SOL     OW 2754   8.749   9.589   8.120  0.3393  0.6477  0.0845
32306SOL    HW1 2755   8.674   9.647   8.134 -0.3986 -0.0108 -0.9795
32306SOL    HW2 2756   8.805   9.602   8.197 -0.7593  1.3016  0.7934
32307SOL     OW 2757   0.767   8.709   7.809 -0.0951  0.4159  0.3636
32307SOL    HW1 2758   0.786   8.632   7.862  1.1552  0.3781 -0.1169
32307SOL    HW2 2759   0.838   8.769   7.827 -1.4772  1.8437  1.3664
32308SOL     OW 2760   1.382   9.845   3.997 -0.0967 -0.6972  0.4601
32308SOL    HW1 2761   1.421   9.899   4.066  1.3331  0.7334 -1.3468
32308SOL    HW2 2762   1.321   9.903   3.953  1.1545 -0.5914 -1.2535
32309SOL     OW 2763   4.614   4.438   9.880  0.3711  0.3197 -0.4737
32309SOL    HW1 2764   4.599   4.392   9.798  0.4009 -0.7792  0.1169
32309SOL    HW2 2765   4.527   4.461   9.912  0.2621 -0.6089 -0.0734
32310SOL     OW 2766   7.186   6.338   1.152  0.1254 -0.2907 -0.1769
32310SOL    HW1 2767   7.129   6.272   1.192 -1.5044  1.2764  0.2253
32310SOL    HW2 2768   7.199   6.403   1.222  0.4445  0.5551 -1.0074
32311SOL     OW 2769   8.171   7.897   9.111 -0.4937 -0.0885  0.0729
32311SOL    HW1 2770   8.226   7.940   9.176 -0.2945  1.7863 -1.2758
32311SOL    HW2 2771   8.218   7.816   9.090  0.1383 -0.0408  1.2246
32312SOL     OW 2772   1.574   1.938   0.481 -0.0706  0.0785 -0.2513
32312SOL    HW1 2773   1.498   1.989   0.456  1.0634  1.8391 -0.2524
32312SOL    HW2 2774   1.648   1.997   0.470  1.0999 -0.9223  1.6280
32313SOL     OW 2775  10.117  10.418   6.902 -0.1627 -0.1981  0.2928
32313SOL    HW1 2776  10.094  10.470   6.825 -0.2158 -0.6801 -0.0213
32313SOL    HW2 2777  10.143  10.482   6.968  0.2006  0.2037 -0.2377
32314SOL     OW 2778   1.449  12.236  11.465 -0.0053  0.5426 -0.7292
32314SOL    HW1 2779   1.483  12.147  11.470  1.5540  1.1596  1.5608
32314SOL    HW2 2780   1.474  12.267  11.379  0.8051 -0.7265 -0.9785
32315SOL     OW 2781   0.916   3.541   8.348 -0.2030  0.0118 -0.1179
32315SOL    HW1 2782   0.827   3.525   8.316  0.4986 -1.2823 -1.5772
32315SOL    HW2 2783   0.972   3.509   8.278  1.4255 -0.2632  1.2540
32316SOL     OW 2784   9.384   7.648   1.420  0.7514 -0.0897 -0.0243
32316SOL    HW1 2785   9.325   7.704   1.368  1.1717 -0.4422 -0.8947
32316SOL    HW2 2786   9.472   7.670   1.388  0.9269 -1.1846 -0.3047
32317SOL     OW 2787   0.040   4.682   1.940 -0.0409  0.6521 -0.1338
32317SOL    HW1 2788   0.108   4.627   1.979 -0.8782  0.7001  1.4991
32317SOL    HW2 2789  -0.017   4.706   2.014 -2.0694  0.2765 -1.4788
32318SOL     OW 2790   1.995   4.940  11.715  0.1216  0.0598  0.0364
32318SOL    HW1 2791   2.056   4.943  11.642  0.5703 -0.8969  0.3589
32318SOL    HW2 2792   1.911   4.915  11.675 -0.0142  1.1412 -0.3699
32319SOL     OW 2793   6.884   7.023   3.755  0.1893 -0.3233  0.2082
32319SOL    HW1 2794   6.977   7.031   3.738  0.3076 -1.3797  0.2535
32319SOL    HW2 2795   6.878   6.963   3.830 -0.5583 -2.2375 -1.2677
32320SOL     OW 2796   7.934   3.581  10.613  0.1915 -0.1167 -0.6212
32320SOL    HW1 2797   7.973   3.561  10.698  1.5932  0.5838 -1.0727
32320SOL    HW2 2798   7.847   3.542  10.617  0.6422 -1.0491  0.7175
32321SOL     OW 2799   9.700   4.301   8.517  0.0395 -0.1134  0.0238
32321SOL    HW1 2800   9.767   4.367   8.503  0.7916 -0.6060  1.1885
32321SOL    HW2 2801   9.699   4.250   8.436 -0.2099  1.0010 -0.6941
32322SOL     OW 2802   1.669   2.896   9.606  0.0840 -0.2756  0.0135
32322SOL    HW1 2803   1.657   2.803   9.623  0.7895 -0.6031 -1.1228
32322SOL    HW2 2804   1.617   2.913   9.527 -0.8703  0.5391  0.8002
32323SOL     OW 2805   8.575  11.401   1.907  0.2401 -0.2049 -0.0457
32323SOL    HW1 2806   8.569  11.477   1.964 -0.5965 -0.8343  0.7408
32323SOL    HW2 2807   8.501  11.346   1.933  1.8529 -2.1617  0.6793
32324SOL     OW 2808   2.850   7.518   0.243 -0.0574  0.5270  0.5672
32324SOL    HW1 2809   2.932   7.493   0.286 -0.4876 -1.2080  0.4891
32324SOL    HW2 2810   2.788   7.451   0.272 -1.0771  0.9932 -0.5025
32325SOL     OW 2811  10.534   0.422   2.769 -0.3896  0.4964  0.2633
32325SOL    HW1 2812  10.537   0.368   2.690  0.6810  0.1561  0.5131
32325SOL    HW2 2813  10.552   0.360   2.840  0.2009  1.0738  0.6207
32326SOL     OW 2814   9.172  11.603   2.943  0.3810  1.0074 -0.1596
32326SOL    HW1 2815   9.116  11.680   2.940 -0.7081  0.2531  0.2141
32326SOL    HW2 2816   9.112  11.530   2.962  1.6293  0.3279  1.3888
32327SOL     OW 2817   1.455  11.688   4.603 -0.1428 -0.6899  0.2830
32327SOL    HW1 2818   1.518  11.619   4.620  0.6603 -0.3317 -1.0445
32327SOL    HW2 2819   1.371  11.643   4.595 -0.3278 -1.0488  3.1892
32328SOL     OW 2820   4.865   1.674   5.868 -0.1093  0.3046  0.1885
32328SOL    HW1 2821   4.787   1.718   5.837  0.7675  1.0285 -1.0729
32328SOL    HW2 2822   4.928   1.744   5.884  0.4773 -0.3050  0.6453
32329SOL     OW 2823   5.132   5.006   9.668  0.0361  0.2861 -0.3109
32329SOL    HW1 2824   5.198   5.020   9.599  0.8048 -1.2742  0.0656
32329SOL    HW2 2825   5.068   4.947   9.628 -0.8063  1.2703 -0.4502
32330SOL     OW 2826   3.780   2.237   7.226  0.3173  0.9354  0.1811
32330SOL    HW1 2827   3.871   2.255   7.201  0.5215  1.5881  1.3254
32330SOL    HW2 2828   3.748   2.179   7.157  2.3266 -1.2885  0.9699
32331SOL     OW 2829   2.072  11.898   7.718 -0.6468 -0.2285  0.3183
32331SOL    HW1 2830   2.045  11.989   7.702 -1.4372 -0.2225  1.5439
32331SOL    HW2 2831   1.989  11.849   7.719 -0.3374 -0.7470  0.9934
32332SOL     OW 2832   9.137   4.861   0.750 -0.3192 -0.0893  0.2935
32332SOL    HW1 2833   9.123   4.869   0.844 -0.3452 -0.8242  0.3542
32332SOL    HW2 2834   9.164   4.770   0.737 -1.9664 -0.4915 -0.6027
32333SOL     OW 2835   4.986  11.865   4.873 -0.4039 -0.1810 -0.0194
32333SOL    HW1 2836   5.062  11.912   4.907 -1.1494  0.4790  0.8006
32333SOL    HW2 2837   5.023  11.791   4.825  0.7402 -0.9666  1.9387
32334SOL     OW 2838   5.081   4.010  11.497  0.4174  0.3657  0.0037
32334SOL    HW1 2839   5.098   4.069  11.424  0.6679 -0.8958 -0.9825
32334SOL    HW2 2840   5.165   3.967  11.513  0.3705  0.6321  1.0631
32335SOL     OW 2841   1.794   4.611   0.855  0.4986  0.1243  0.0596
32335SOL    HW1 2842   1.786   4.695   0.901 -0.1096  0.6633 -0.9966
32335SOL    HW2 2843   1.716   4.562   0.880  1.6019 -0.8074  1.9315
32336SOL     OW 2844   1.169   2.537   3.331  0.3256 -0.9878  0.2251
32336SOL    HW1 2845   1.144   2.488   3.253  0.5264 -1.8348  0.6803
32336SOL    HW2 2846   1.099   2.601   3.344  0.3558 -0.7512 -0.7130
32337SOL     OW 2847   5.500   7.357   0.233 -0.0577  0.0241  0.0728
32337SOL    HW1 2848   5.441   7.406   0.176 -0.5914 -0.7386 -0.0447
32337SOL    HW2 2849   5.476   7.384   0.322 -1.2649 -0.9726  0.0879
32338SOL     OW 2850   7.471   7.618   0.940 -0.3089  0.3219 -0.4199
32338SOL    HW1 2851   7.433   7.532   0.960  1.0462  0.3129  2.7221
32338SOL    HW2 2852   7.536   7.600   0.872 -0.5872 -1.0003 -0.3721
32339SOL     OW 2853   1.060   0.157  11.974 -0.6753 -0.2662  0.0382
32339SOL    HW1 2854   0.999   0.095  11.935 -0.9987 -0.5586  0.9746
32339SOL    HW2 2855   1.108   0.106  12.040  0.6400 -0.0623 -0.7156
32340SOL     OW 2856   9.234   1.550   6.539 -0.4423  0.1863  0.0266
32340SOL    HW1 2857   9.289   1.596   6.602  0.0236  0.3795 -0.5158
32340SOL    HW2 2858   9.184   1.488   6.592 -1.2674  1.4713  0.8078
32341SOL     OW 2859   1.660   0.503   2.163  0.0252  0.3541  0.7193
32341SOL    HW1 2860   1.632   0.501   2.255  0.4149 -0.6642  0.8277
32341SOL    HW2 2861   1.580   0.482   2.113 -0.2370  1.1235  0.8036
32342SOL     OW 2862   2.198   0.190   6.868 -0.3383 -0.0147  0.0007
32342SOL    HW1 2863   2.184   0.234   6.785 -0.5963  0.0429  0.0757
32342SOL    HW2 2864   2.113   0.154   6.892 -0.4829  0.7494  0.6865
32343SOL     OW 2865  11.720   7.925   5.695 -0.1225  0.0234 -0.2273
32343SOL    HW1 2866  11.625   7.910   5.691 -0.3178  1.2280 -0.4841
32343SOL    HW2 2867  11.743   7.954   5.606  0.3743  0.3615  0.0121
32344SOL     OW 2868  11.566   3.275   9.188  0.1175 -0.4513  0.0620
32344SOL    HW1 2869  11.574   3.289   9.093  0.4421 -1.6043 -0.0960
32344SOL    HW2 2870  11.474   3.253   9.201 -0.2287  0.9422  0.2156
32345SOL     OW 2871   9.654   4.266   2.284 -0.1833 -0.2076 -0.4365
32345SOL    HW1 2872   9.711   4.254   2.360  0.4486 -1.3193 -1.0634
32345SOL    HW2 2873   9.575   4.217   2.305 -1.6828  2.6142  1.1236
32346SOL     OW 2874  11.665   9.257  10.240  0.1373  0.4095  0.5170
32346SOL    HW1 2875  11.699   9.250  10.151 -2.3506  0.3786 -0.5225
32346SOL    HW2 2876  11.616   9.339  10.240  1.8459  1.5330  2.5691
32347SOL     OW 2877   2.729   4.692   1.485  0.2400  0.2106  0.3449
32347SOL    HW1 2878   2.824   4.703   1.493  0.1869  0.8394  0.1074
32347SOL    HW2 2879   2.719   4.624   1.418  0.5024  0.7824 -0.2752
32348SOL     OW 2880   9.488  11.722   3.837 -0.0174  0.8600 -0.4345
32348SOL    HW1 2881   9.559  11.668   3.872 -0.7162  0.2096  0.0137
32348SOL    HW2 2882   9.424  11.725   3.908 -0.0029  2.2886 -0.4495
32349SOL     OW 2883   5.157   9.496   4.613 -0.7563  0.3090  0.3071
32349SOL    HW1 2884   5.227   9.433   4.593 -2.0209 -0.8151 -0.8055
32349SOL    HW2 2885   5.202   9.580   4.621  0.6256 -0.1952 -1.4279
32350SOL     OW 2886   6.421  10.751   8.138 -0.3667 -1.0818  0.1387
32350SOL    HW1 2887   6.351  10.783   8.195  0.2199 -0.1938  0.3875
32350SOL    HW2 2888   6.420  10.656   8.150 -0.8280 -0.9835  0.9593
32351SOL     OW 2889  11.574   7.082   1.523 -0.4488 -0.1938  0.2231
32351SOL    HW1 2890  11.497   7.078   1.580 -1.8901  0.8721 -1.5674
32351SOL    HW2 2891  11.648   7.079   1.584 -1.8488 -1.5465  1.9920
32352SOL     OW 2892   3.471   3.301   1.980 -0.1104 -0.1612 -0.4646
32352SOL    HW1 2893   3.414   3.298   2.057 -0.8381  1.5256 -0.8864
32352SOL    HW2 2894   3.495   3.210   1.964  0.7677 -0.5119  2.2594
32353SOL     OW 2895   4.882   0.369   9.503 -0.2069 -0.2786  0.5562
32353SOL    HW1 2896   4.869   0.459   9.472  1.3788  0.1421  0.9746
32353SOL    HW2 2897   4.975   0.366   9.528 -0.0304 -2.2686 -0.1716
32354SOL     OW 2898   8.659   2.049  12.218  0.1225 -0.3728  0.1217
32354SOL    HW1 2899   8.652   1.963  12.260 -1.1396 -1.0066 -1.2957
32354SOL    HW2 2900   8.686   2.029  12.128 -1.6136  0.5675 -0.6498
32355SOL     OW 2901   5.386   3.850   5.123  0.1166 -0.1913 -0.0719
32355SOL    HW1 2902   5.475   3.858   5.090 -0.0166  0.8079 -0.2076
32355SOL    HW2 2903   5.350   3.939   5.119 -0.5663 -0.4021  0.8717
32356SOL     OW 2904   8.315  11.545   5.868  0.1150  0.2517  0.2234
32356SOL    HW1 2905   8.377  11.537   5.940  0.8039  1.0657 -0.2602
32356SOL    HW2 2906   8.270  11.628   5.883 -1.0977 -0.4731  0.7351
32357SOL     OW 2907   7.500   0.146   4.419  0.4980  0.2924 -0.7297
32357SOL    HW1 2908   7.564   0.075   4.415 -0.1484 -0.3140 -0.5026
32357SOL    HW2 2909   7.419   0.104   4.446 -0.1841  0.9245 -1.7169
32358SOL     OW 2910  11.500   7.497  11.545 -0.0347  0.3271  0.4791
32358SOL    HW1 2911  11.490   7.533  11.457  2.2422  0.7494  0.3361
32358SOL    HW2 2912  11.478   7.569  11.604 -0.1689  0.4936  0.2249
32359SOL     OW 2913   1.706   4.573   6.155  0.2437 -0.5293 -0.2656
32359SOL    HW1 2914   1.700   4.488   6.113 -0.3397 -0.8015  0.3335
32359SOL    HW2 2915   1.675   4.635   6.089 -0.0892 -0.8785 -0.4408
32360SOL     OW 2916   6.855   6.781   8.331 -0.5389  0.1804 -0.4107
32360SOL    HW1 2917   6.866   6.872   8.306 -0.1820  0.5692  1.0513
32360SOL    HW2 2918   6.865   6.781   8.427 -0.7520 -1.3517 -0.3616
32361SOL     OW 2919   4.187   3.334   9.319  0.2716  0.0759 -0.0205
32361SOL    HW1 2920   4.120   3.379   9.267 -2.8282 -2.6630  1.2631
32361SOL    HW2 2921   4.165   3.354   9.409  0.5024 -1.7011  0.4726
32362SOL     OW 2922   5.677   1.104   8.834 -0.4116 -0.0213  0.5210
32362SOL    HW1 2923   5.627   1.185   8.824 -1.4841 -0.6186  0.8089
32362SOL    HW2 2924   5.671   1.061   8.748 -1.9983 -0.9529  1.0561
32363SOL     OW 2925   9.240   5.397   4.002  0.5533  1.2656  0.1792
32363SOL    HW1 2926   9.184   5.453   4.056  0.0504  1.6427 -0.7124
32363SOL    HW2 2927   9.327   5.436   4.008  0.2463  2.0455 -0.2795
32364SOL     OW 2928   7.993   0.954   7.367 -0.1333  0.6272  0.0477
32364SOL    HW1 2929   8.011   0.866   7.401 -1.3972  0.2993 -0.1031
32364SOL    HW2 2930   7.951   0.999   7.440 -1.2378  0.4905 -0.4995
32365SOL     OW 2931   3.924   6.323   8.695  0.4083 -0.1807 -0.1334
32365SOL    HW1 2932   3.981   6.344   8.621 -1.9264  0.9035 -1.7687
32365SOL    HW2 2933   3.917   6.406   8.744  0.7277 -0.4854  0.4421
32366SOL     OW 2934   8.477   4.165   7.543  0.2242  0.3389 -0.0636
32366SOL    HW1 2935   8.480   4.110   7.465  0.4298 -0.5147  0.5297
32366SOL    HW2 2936   8.542   4.126   7.602 -0.0554  0.8640  0.5994
32367SOL     OW 2937  10.753   8.365   3.218 -0.0594 -0.0165 -0.0600
32367SOL    HW1 2938  10.691   8.297   3.189  1.0874 -0.8363 -0.6593
32367SOL    HW2 2939  10.697   8.440   3.239 -1.4617 -1.3519  1.3375
32368SOL     OW 2940   3.999   8.564   5.579 -0.5783  0.6977 -0.3853
32368SOL    HW1 2941   3.986   8.612   5.496 -0.2221  0.3091 -0.6714
32368SOL    HW2 2942   4.095   8.558   5.588 -0.6157 -0.1030 -0.4421
32369SOL     OW 2943   4.302  12.279   1.042  0.7732  0.1041 -0.0562
32369SOL    HW1 2944   4.296  12.374   1.039  0.6167  0.0896 -0.2731
32369SOL    HW2 2945   4.249  12.250   0.968  2.6769 -0.0937 -1.4042
32370SOL     OW 2946   8.104   3.279   2.674  0.5793 -0.3774 -0.9190
32370SOL    HW1 2947   8.182   3.227   2.653  1.3735 -0.1004  1.1133
32370SOL    HW2 2948   8.102   3.282   2.770 -1.3352  0.5489 -0.9356
32371SOL     OW 2949   3.765   6.514   7.107 -0.3790  0.1059 -0.3205
32371SOL    HW1 2950   3.699   6.459   7.149  1.7389 -0.8402  2.0681
32371SOL    HW2 2951   3.834   6.453   7.080  1.0204  1.2906  0.3821
32372SOL     OW 2952   5.687   5.440   6.924 -0.2709 -0.2292 -0.8612
32372SOL    HW1 2953   5.614   5.387   6.893 -1.3229  1.0182 -0.5539
32372SOL    HW2 2954   5.655   5.484   7.002  0.3297  1.4370 -1.5217
32373SOL     OW 2955   7.399   3.027   6.301 -0.4819 -0.3203 -0.1847
32373SOL    HW1 2956   7.449   2.987   6.231  1.4914 -0.0097  0.9639
32373SOL    HW2 2957   7.394   2.959   6.369  0.2543  0.3420  0.5542
32374SOL     OW 2958  11.992   9.514  11.468  0.4606 -0.7429 -0.1211
32374SOL    HW1 2959  12.057   9.480  11.407 -1.0274 -1.9861 -1.1088
32374SOL    HW2 2960  11.982   9.445  11.534  1.1984  0.0809  0.8687
32375SOL     OW 2961   4.043   8.034   5.421  0.2647 -0.0747  0.0312
32375SOL    HW1 2962   4.016   8.125   5.434  1.2632  0.6004 -2.2211
32375SOL    HW2 2963   4.028   7.992   5.506  0.1044  2.2697  1.2302
32376SOL     OW 2964   0.396   6.225   4.105 -0.1211 -0.3800  0.1092
32376SOL    HW1 2965   0.434   6.298   4.056  0.8033 -0.8687  0.0810
32376SOL    HW2 2966   0.302   6.230   4.087  0.2053 -0.6203 -1.8232
32377SOL     OW 2967   7.300  11.276   7.753  0.5715 -0.0266  0.1477
32377SOL    HW1 2968   7.248  11.317   7.683  0.6589  1.0833  0.7116
32377SOL    HW2 2969   7.321  11.348   7.812  1.8625 -0.6524  0.4855
32378SOL     OW 2970  10.126   1.204   2.164  0.4455  0.2282  0.4159
32378SOL    HW1 2971  10.195   1.151   2.122 -0.2840  0.3950 -1.0517
32378SOL    HW2 2972  10.085   1.143   2.226 -0.2603 -0.9219 -1.1107
32379SOL     OW 2973   0.506   8.586   1.064  0.5020  0.0227  0.0805
32379SOL    HW1 2974   0.536   8.626   1.146 -0.8374 -0.4669  0.8311
32379SOL    HW2 2975   0.472   8.501   1.089  1.0558 -0.5893 -1.1572
32380SOL     OW 2976  11.516   4.369   4.985  0.0693 -0.2678 -0.2302
32380SOL    HW1 2977  11.427   4.393   4.959 -0.4437 -1.4385  0.3795
32380SOL    HW2 2978  11.572   4.427   4.933 -1.0086 -0.3705 -1.5645
32381SOL     OW 2979   6.930   4.672   6.472  0.1700  0.2186  0.5306
32381SOL    HW1 2980   6.875   4.697   6.546  0.6745  0.0156  0.9834
32381SOL    HW2 2981   6.970   4.589   6.498 -2.2133 -1.6680 -1.3135
32382SOL     OW 2982  10.698   1.968   6.232  0.5904 -0.0310 -0.1027
32382SOL    HW1 2983  10.667   1.881   6.208 -0.3735  0.7762 -2.0700
32382SOL    HW2 2984  10.627   2.006   6.284  0.3940  0.0677 -0.4386
32383SOL     OW 2985   4.764  10.383   5.000 -0.1491 -1.1041 -0.2102
32383SOL    HW1 2986   4.713  10.359   4.923 -0.4370  1.7138 -1.0016
32383SOL    HW2 2987   4.701  10.381   5.072 -0.5361 -1.0362 -0.5429
32384SOL     OW 2988   2.847  10.604   6.476 -0.0914  0.4988 -0.3154
32384SOL    HW1 2989   2.850  10.529   6.417  0.4071 -0.9915  1.5224
32384SOL    HW2 2990   2.769  10.652   6.450  1.0433  0.9424 -3.3326
32385SOL     OW 2991  11.573   5.344   0.174 -0.1841 -0.3880 -0.0972
32385SOL    HW1 2992  11.613   5.322   0.090 -1.4227 -0.3531 -0.7183
32385SOL    HW2 2993  11.619   5.290   0.238 -0.5059 -1.8304 -1.0522
32386SOL     OW 2994   5.999  11.519   5.717 -0.0624  0.2512  0.2962
32386SOL    HW1 2995   5.929  11.457   5.739 -0.0040 -0.0712 -0.3882
32386SOL    HW2 2996   5.972  11.558   5.634 -0.9269  2.4313  1.5314
32387SOL     OW 2997   5.293   7.009   3.210  0.4319  0.1375  0.1586
32387SOL    HW1 2998   5.283   6.916   3.230 -1.2576 -0.0272 -1.1735
32387SOL    HW2 2999   5.217   7.051   3.249  0.8530  0.8749  0.2221
32388SOL     OW 3000   5.511   1.454   9.124 -0.3350 -0.2399  0.0999
32388SOL    HW1 3001   5.531   1.541   9.090  1.4079 -1.0961 -1.1702
32388SOL    HW2 3002   5.434   1.426   9.074 -0.1966  0.1056 -0.3117
32389SOL     OW 3003   1.480   7.204   3.452 -0.5085 -0.1793 -0.2199
32389SOL    HW1 3004   1.427   7.236   3.526 -0.4849  0.9031 -0.6607
32389SOL    HW2 3005   1.416   7.164   3.392 -0.7536  0.5847 -0.4701
32390SOL     OW 3006   1.327   4.017   1.509 -0.0881 -0.0444 -0.3014
32390SOL    HW1 3007   1.267   3.962   1.459 -0.2110 -0.9018  0.7501
32390SOL    HW2 3008   1.382   3.955   1.558  0.9331  0.7466 -0.4112
32391SOL     OW 3009   7.180   9.101   1.237 -0.0462 -0.7332 -0.0817
32391SOL    HW1 3010   7.228   9.019   1.229  0.7991 -0.3202  0.4933
32391SOL    HW2 3011   7.243   9.168   1.208 -0.6884 -0.2814 -0.4610
32392SOL     OW 3012   3.266   2.478  11.662  0.1176  0.6708  0.4614
32392SOL    HW1 3013   3.322   2.402  11.679 -1.2048 -0.4410 -0.0590
32392SOL    HW2 3014   3.315   2.551  11.700  0.2298 -0.7674  3.4122
32393SOL     OW 3015   6.448   3.511   1.149  0.3679 -0.3537 -0.3861
32393SOL    HW1 3016   6.522   3.567   1.174 -0.7188  0.5320  1.0641
32393SOL    HW2 3017   6.470   3.425   1.185 -0.3185  0.4682  2.1947
32394SOL     OW 3018   0.427   3.351   9.515 -0.0865  0.5345 -0.6534
32394SOL    HW1 3019   0.413   3.441   9.484 -0.5118  0.4018 -0.8550
32394SOL    HW2 3020   0.468   3.307   9.441 -2.3661 -0.1514 -1.5856
32395SOL     OW 3021   2.653   8.980   3.651  0.0858 -0.6068 -0.6009
32395SOL    HW1 3022   2.677   9.059   3.602 -2.4503 -0.6469 -2.0980
32395SOL    HW2 3023   2.559   8.987   3.664 -0.1486 -3.1387 -0.3162
32396SOL     OW 3024   6.229  10.503   0.594  0.2776  0.5786 -0.1951
32396SOL    HW1 3025   6.156  10.467   0.543  0.9743 -0.5205 -0.4382
32396SOL    HW2 3026   6.216  10.469   0.682  1.4033 -1.0149 -0.6134
32397SOL     OW 3027  11.610   1.904   7.662  0.0831 -0.2676 -0.1214
32397SOL    HW1 3028  11.529   1.891   7.612  0.0599 -0.3145 -0.0717
32397SOL    HW2 3029  11.679   1.909   7.595  0.0424 -0.2508 -0.1625
32398SOL     OW 3030  11.422   1.066   4.976 -0.1978 -0.2503  0.2423
32398SOL    HW1 3031  11.436   0.993   4.915  1.4470  0.1405  0.1001
32398SOL    HW2 3032  11.455   1.034   5.060 -1.1877 -0.2980  0.6315
32399SOL     OW 3033   7.136  10.848   5.073  0.4132  0.2268  0.4772
32399SOL    HW1 3034   7.145  10.757   5.102  1.8675 -0.0314 -0.6754
32399SOL    HW2 3035   7.054  10.849   5.023  0.4165 -0.4441  0.4519
32400SOL     OW 3036   4.185   6.003  11.428  0.1469  0.2473  0.0779
32400SOL    HW1 3037   4.255   6.054  11.468 -0.4470  0.3493  0.9952
32400SOL    HW2 3038   4.201   5.913  11.457 -0.4202  0.3585  0.7507
32401SOL     OW 3039   5.109   6.238   7.556 -0.1943  0.2784 -0.7856
32401SOL    HW1 3040   5.051   6.307   7.523 -1.9631 -1.2508 -1.0164
32401SOL    HW2 3041   5.124   6.261   7.648 -0.9223  0.8633 -0.8043
32402SOL     OW 3042  10.311   8.871   9.959  0.3343  0.0229 -0.6720
32402SOL    HW1 3043  10.371   8.829   9.897  0.5611  0.2556 -0.6133
32402SOL    HW2 3044  10.254   8.925   9.904  0.3509  0.0074 -0.7043
32403SOL     OW 3045  12.188   0.039   7.804  0.0422 -0.0734 -0.8683
32403SOL    HW1 3046  12.224  -0.039   7.846  1.3077  0.3542 -1.1245
32403SOL    HW2 3047  12.152   0.091   7.877  0.7695 -0.0872 -0.4900
32404SOL     OW 3048  10.983  10.153   2.356  0.4449  0.1293 -0.6346
32404SOL    HW1 3049  10.974  10.136   2.262 -0.1197 -1.4729 -0.3205
32404SOL    HW2 3050  11.030  10.076   2.390 -1.5265 -0.5463  0.7669
32405SOL     OW 3051   0.918  11.040   7.623  0.2837 -0.2307 -0.3540
32405SOL    HW1 3052   0.858  10.978   7.582  1.3415 -1.8631  0.4869
32405SOL    HW2 3053   0.895  11.038   7.715  1.0685 -0.2288 -0.1520
32406SOL     OW 3054   6.466   6.649   7.065 -0.1688 -0.2298  0.0945
32406SOL    HW1 3055   6.494   6.740   7.053  1.3611 -0.6022  0.6267
32406SOL    HW2 3056   6.462   6.638   7.160 -1.9798 -0.2814  0.0598
32407SOL     OW 3057   7.339   1.633   6.275  0.2318 -0.2673 -0.1910
32407SOL    HW1 3058   7.379   1.588   6.349 -0.7845 -0.7315  0.0989
32407SOL    HW2 3059   7.395   1.709   6.259  0.0894  0.2295  1.5043
32408SOL     OW 3060  11.060   1.660  11.189 -0.2122 -0.1725 -0.5998
32408SOL    HW1 3061  11.074   1.694  11.277 -0.7507  0.1813 -0.6487
32408SOL    HW2 3062  10.983   1.603  11.197 -0.1411 -0.2991 -0.8017
32409SOL     OW 3063   4.697  11.154   3.711 -0.2822 -0.0324  0.3624
32409SOL    HW1 3064   4.763  11.088   3.731  0.7607  0.5352 -1.0238
32409SOL    HW2 3065   4.735  11.236   3.744 -1.1667  0.0311  1.2655
32410SOL     OW 3066  11.727   5.516   3.344  0.0460  0.0259 -0.2509
32410SOL    HW1 3067  11.795   5.466   3.389  0.0603 -0.4298 -0.7608
32410SOL    HW2 3068  11.772   5.594   3.312  0.0565  0.3009  0.4312
32411SOL     OW 3069   6.880   1.191   5.313 -0.1088  0.5516  0.6817
32411SOL    HW1 3070   6.886   1.121   5.379  0.3677 -0.7697 -0.7035
32411SOL    HW2 3071   6.798   1.236   5.334 -0.9164 -1.0050  1.0692
32412SOL     OW 3072  10.097   5.088   1.804  0.5149 -0.2431  0.5950
32412SOL    HW1 3073  10.036   5.110   1.874 -0.0327 -3.4161  1.2314
32412SOL    HW2 3074  10.046   5.094   1.724  0.3600  0.5469  0.7455
32413SOL     OW 3075   6.515  11.198   9.805  0.2447 -0.0570  0.2474
32413SOL    HW1 3076   6.472  11.245   9.733  1.2242 -0.8131 -0.8906
32413SOL    HW2 3077   6.566  11.130   9.761  0.0066 -1.2604  1.7506
32414SOL     OW 3078   8.805   4.474  11.775  0.3342 -0.6769  0.0521
32414SOL    HW1 3079   8.738   4.526  11.820 -0.0641 -0.4568 -0.7906
32414SOL    HW2 3080   8.850   4.427  11.846 -1.8789 -2.2197  0.5139
32415SOL     OW 3081   9.006   5.678   0.286 -0.4670  0.1857 -0.0264
32415SOL    HW1 3082   9.032   5.637   0.369 -0.3183 -1.0593 -0.6521
32415SOL    HW2 3083   9.082   5.730   0.260  0.0913 -0.6506 -0.1237
32416SOL     OW 3084   5.904   0.195   1.522  0.1997 -0.2318 -0.1567
32416SOL    HW1 3085   5.821   0.162   1.558 -0.7727  0.9842 -1.2031
32416SOL    HW2 3086   5.914   0.282   1.562  1.7308 -0.9261  1.0619
32417SOL     OW 3087  11.478   7.094   7.472  1.0325 -0.5761 -0.0813
32417SOL    HW1 3088  11.532   7.173   7.472  1.1285 -0.6315  0.6773
32417SOL    HW2 3089  11.526   7.032   7.416  1.8105 -0.6451  0.6247
32418SOL     OW 3090   8.041  12.114  10.051 -0.0601 -0.1976 -0.4057
32418SOL    HW1 3091   8.036  12.039  10.109 -2.1727  0.4046  0.3098
32418SOL    HW2 3092   7.991  12.088   9.973 -0.6381  0.3655 -0.2361
32419SOL     OW 3093   2.050   4.805   3.112  0.5294 -0.3358 -0.5731
32419SOL    HW1 3094   2.029   4.718   3.077  0.7171 -0.9575  0.7867
32419SOL    HW2 3095   2.128   4.832   3.065 -1.5680  0.7905 -3.7214
32420SOL     OW 3096   5.463   6.253   5.767  0.2135 -0.2467 -0.3446
32420SOL    HW1 3097   5.446   6.324   5.829 -1.0436  0.4073 -1.3851
32420SOL    HW2 3098   5.378   6.213   5.752  1.0849 -2.9340  1.2507
32421SOL     OW 3099   6.864   8.435   3.336 -0.3106  1.0842  0.4196
32421SOL    HW1 3100   6.939   8.431   3.396  0.7396  0.8528 -0.8434
32421SOL    HW2 3101   6.896   8.393   3.256 -0.7071  3.7173 -1.2458
32422SOL     OW 3102   3.687   6.733   7.589 -0.4220  0.2153  0.2938
32422SOL    HW1 3103   3.615   6.792   7.613 -0.1793  0.3596  0.6883
32422SOL    HW2 3104   3.689   6.669   7.660  0.1540  0.5049  0.5427
32423SOL     OW 3105   1.246   6.784   6.428  0.5660  0.1228 -0.0792
32423SOL    HW1 3106   1.332   6.767   6.466  0.1504  1.0317  1.3368
32423SOL    HW2 3107   1.208   6.853   6.482 -1.3610 -0.7496 -0.2174
32424SOL     OW 3108   5.888   4.946  10.041  0.4298  0.6186  0.3115
32424SOL    HW1 3109   5.911   5.029  10.001 -0.2759  0.1511 -1.1212
32424SOL    HW2 3110   5.829   4.904   9.978  0.2006 -0.6515  1.3261
32425SOL     OW 3111   5.570   2.324   2.663 -0.0678 -0.2889  0.2849
32425SOL    HW1 3112   5.565   2.271   2.583  0.7464 -0.6018  0.4407
32425SOL    HW2 3113   5.480   2.323   2.698 -0.2906 -0.6649 -0.2887
32426SOL     OW 3114   5.231   3.596   1.371  0.2592 -0.1352 -0.3042
32426SOL    HW1 3115   5.234   3.676   1.423 -1.3093  0.1155 -0.5666
32426SOL    HW2 3116   5.323   3.570   1.362  1.0067  2.5690 -1.6724
32427SOL     OW 3117   7.104  11.958  11.408  0.0545 -0.1075 -0.6448
32427SOL    HW1 3118   7.126  11.991  11.320 -0.4830  1.2923 -0.2819
32427SOL    HW2 3119   7.074  12.035  11.455 -0.6064 -1.0287  0.4828
32428SOL     OW 3120  10.977  10.889  10.428  0.0061 -0.3128  0.0905
32428SOL    HW1 3121  11.045  10.850  10.484 -0.1757  0.0145  0.5499
32428SOL    HW2 3122  10.901  10.833  10.442 -0.2515  0.1747  0.7398
32429SOL     OW 3123   4.809  12.020   7.274 -0.2433  0.5313 -0.1203
32429SOL    HW1 3124   4.761  12.079   7.217 -0.4811  0.2428 -0.2198
32429SOL    HW2 3125   4.894  12.007   7.231 -0.0668  1.0576  0.0672
32430SOL     OW 3126   8.514  11.083   6.610 -0.2911  0.0518 -0.5242
32430SOL    HW1 3127   8.584  11.139   6.575 -0.0992 -0.4844 -1.0332
32430SOL    HW2 3128   8.439  11.140   6.619 -0.4252  0.1745 -2.0868
32431SOL     OW 3129  10.650  11.694   5.807 -0.1540 -0.3222  0.5373
32431SOL    HW1 3130  10.688  11.730   5.727 -0.1382  1.3814  1.2655
32431SOL    HW2 3131  10.577  11.753   5.827 -1.0693 -1.5749  1.0044
32432SOL     OW 3132   1.385   0.307   0.843 -0.0969 -0.2626 -0.5520
32432SOL    HW1 3133   1.365   0.214   0.857 -2.0063  0.3253  1.1263
32432SOL    HW2 3134   1.312   0.353   0.885  1.7741  2.0496  0.3218
32433SOL     OW 3135   1.148   5.938   8.180 -0.8074 -0.2582  0.0946
32433SOL    HW1 3136   1.161   5.884   8.102  2.3469 -1.0849  1.0626
32433SOL    HW2 3137   1.236   5.966   8.205 -1.9257  1.6365  2.2443
32434SOL     OW 3138   7.378  12.297   5.735 -0.2785 -0.0392  0.1488
32434SOL    HW1 3139   7.463  12.328   5.767 -0.8175  0.2787  1.3292
32434SOL    HW2 3140   7.344  12.369   5.683  0.1984 -0.2039 -0.4128
32435SOL     OW 3141   8.825   9.004   7.017 -0.2985 -0.4743  0.1722
32435SOL    HW1 3142   8.882   8.929   7.033 -1.0961 -0.9144  1.0794
32435SOL    HW2 3143   8.885   9.077   7.003  0.5018 -1.3904 -1.4343
32436SOL     OW 3144   7.506   5.664   2.696 -0.1059  0.6191  0.0172
32436SOL    HW1 3145   7.543   5.594   2.642 -0.9825 -0.6505  0.9704
32436SOL    HW2 3146   7.557   5.662   2.776  1.1641  2.4695 -0.6775
32437SOL     OW 3147   9.151   4.474  11.374  0.1658  0.3227  0.1057
32437SOL    HW1 3148   9.144   4.426  11.456 -1.0889 -3.1047 -1.8093
32437SOL    HW2 3149   9.117   4.561  11.394  0.2235 -0.2447  3.2237
32438SOL     OW 3150   1.354   6.219   0.588 -0.1119  0.4878 -0.2993
32438SOL    HW1 3151   1.286   6.153   0.574  1.2821 -1.0235 -0.2320
32438SOL    HW2 3152   1.374   6.253   0.500  0.7761 -0.8934 -0.6602
32439SOL     OW 3153  10.956  10.841   9.783 -0.3849 -0.6669 -0.8035
32439SOL    HW1 3154  11.011  10.909   9.821 -2.0030  0.6022 -0.5953
32439SOL    HW2 3155  11.003  10.760   9.799  2.1006  0.4508 -1.9286
32440SOL     OW 3156  11.010   7.444   5.430 -0.1122 -0.2062  0.8761
32440SOL    HW1 3157  10.952   7.493   5.372 -0.9286  2.0219  3.3715
32440SOL    HW2 3158  11.094   7.443   5.384 -0.7276  1.3900 -0.3886
32441SOL     OW 3159  10.506   7.677   2.635  0.4468  0.2169 -0.6284
32441SOL    HW1 3160  10.457   7.672   2.554 -0.2809 -0.9887 -0.1441
32441SOL    HW2 3161  10.441   7.659   2.704  1.0389  1.2095  0.2312
32442SOL     OW 3162   8.511  10.705   5.380  0.0798 -0.6801 -0.4173
32442SOL    HW1 3163   8.495  10.751   5.463  0.9739 -0.5066 -0.3266
32442SOL    HW2 3164   8.605  10.715   5.366 -0.2121  0.1942 -1.9851
32443SOL     OW 3165   7.802   3.406   3.555 -0.3228  0.0738 -0.6950
32443SOL    HW1 3166   7.771   3.323   3.520 -1.3547  0.3227 -0.4082
32443SOL    HW2 3167   7.867   3.382   3.621 -1.1719 -0.5492 -0.0664
32444SOL     OW 3168   0.465  10.596   4.855  0.4495  0.2625  1.1921
32444SOL    HW1 3169   0.416  10.524   4.816  1.5124  1.2858 -2.3754
32444SOL    HW2 3170   0.397  10.656   4.887 -0.6543  0.3303 -1.0891
32445SOL     OW 3171   2.512   3.738  11.270  0.3398  0.2381  0.2583
32445SOL    HW1 3172   2.535   3.822  11.311 -0.3551  1.1777 -1.1737
32445SOL    HW2 3173   2.429   3.714  11.310  0.2111  0.5785  0.1981
32446SOL     OW 3174   9.766  12.186   4.257 -0.2259 -0.2607  0.2757
32446SOL    HW1 3175   9.725  12.253   4.313  0.5881 -1.0178  1.8361
32446SOL    HW2 3176   9.695  12.123   4.240 -0.2965 -0.4116  1.0928
32447SOL     OW 3177  12.148   6.585  11.208  0.2008  0.1676  0.3126
32447SOL    HW1 3178  12.227   6.551  11.164  0.4738 -0.6357  1.3822
32447SOL    HW2 3179  12.078   6.572  11.144  0.9523  1.0976 -0.7428
32448SOL     OW 3180   7.302   5.511   3.199 -0.1080 -0.0728  0.2681
32448SOL    HW1 3181   7.229   5.522   3.138  0.0765 -1.3979 -0.2171
32448SOL    HW2 3182   7.360   5.584   3.179  0.1860 -0.7432 -1.5075
32449SOL     OW 3183  12.185  10.838   4.051 -0.0667 -0.7248 -0.2916
32449SOL    HW1 3184  12.170  10.923   4.011 -0.5978  0.3870  2.1309
32449SOL    HW2 3185  12.270  10.845   4.093 -0.3781 -1.1738  0.4391
32450SOL     OW 3186   3.674   6.579   2.309  0.8394  0.3219  0.0768
32450SOL    HW1 3187   3.605   6.617   2.365  0.9796  0.1980  0.3362
32450SOL    HW2 3188   3.641   6.492   2.288  0.8945  0.2821  0.1578
32451SOL     OW 3189   9.303   8.546   3.578  0.4739  0.6668 -0.2901
32451SOL    HW1 3190   9.261   8.625   3.611 -0.1463  0.5435 -0.7712
32451SOL    HW2 3191   9.293   8.551   3.483  1.2092  0.4411 -0.3911
32452SOL     OW 3192   2.848   5.114   7.800 -0.2251 -0.0768 -0.1260
32452SOL    HW1 3193   2.896   5.080   7.724  0.9556 -0.7828  0.9033
32452SOL    HW2 3194   2.875   5.205   7.806  1.5749 -0.6264  0.8304
32453SOL     OW 3195   8.181   1.414   6.970  0.0633  0.1979  0.1024
32453SOL    HW1 3196   8.159   1.321   6.978 -0.0383  0.2179  0.0506
32453SOL    HW2 3197   8.263   1.414   6.920  0.2160  0.1217  0.3461
32454SOL     OW 3198   7.862   1.863   0.664 -0.0898  0.5065 -0.0816
32454SOL    HW1 3199   7.948   1.845   0.702  0.2613 -0.5539 -1.2979
32454SOL    HW2 3200   7.874   1.848   0.570 -1.8460 -0.5929 -0.1641
32455SOL     OW 3201   3.532   6.068   9.505 -0.2888 -0.1600  0.5992
32455SOL    HW1 3202   3.604   6.071   9.569  0.4514  1.2929 -0.2433
32455SOL    HW2 3203   3.567   6.112   9.428 -0.9471 -2.3979 -1.0910
32456SOL     OW 3204   1.121  11.920   2.058 -0.0794 -0.1148 -0.2998
32456SOL    HW1 3205   1.158  11.837   2.028  1.6617  0.9276 -1.2214
32456SOL    HW2 3206   1.068  11.897   2.134 -0.2431 -2.1466 -0.9628
32457SOL     OW 3207   6.605   8.936   9.772  0.3091  0.1187 -0.2964
32457SOL    HW1 3208   6.631   8.947   9.864  0.4908  0.0452 -0.3388
32457SOL    HW2 3209   6.688   8.924   9.725  0.2742  0.9531 -0.5834
32458SOL     OW 3210  10.847   8.435   0.610 -0.3482 -0.1158  0.2522
32458SOL    HW1 3211  10.776   8.372   0.623  0.2566 -0.6872  0.8551
32458SOL    HW2 3212  10.803   8.514   0.581 -1.2686 -0.3790  0.8690
32459SOL     OW 3213   3.370   4.070  10.140 -0.6509 -0.3976  0.2220
32459SOL    HW1 3214   3.399   4.091  10.052  1.3022 -1.7369  0.4893
32459SOL    HW2 3215   3.302   4.003  10.128 -1.0757  0.1149 -0.2755
32460SOL     OW 3216   6.736   8.630   5.897  0.1825  0.7504 -0.3208
32460SOL    HW1 3217   6.709   8.717   5.928  1.1932  1.0097 -0.1228
32460SOL    HW2 3218   6.675   8.611   5.825  0.5999  2.1084 -1.0908
32461SOL     OW 3219   2.602   7.693   2.422  0.3355 -0.1553 -1.0841
32461SOL    HW1 3220   2.603   7.735   2.508  1.8311 -0.8713 -0.7174
32461SOL    HW2 3221   2.512   7.660   2.412  0.6215 -1.8304  1.1250
32462SOL     OW 3222   3.543   6.134   1.186  0.8937 -0.5221 -0.2953
32462SOL    HW1 3223   3.541   6.048   1.144  3.2071 -0.6892 -0.1931
32462SOL    HW2 3224   3.581   6.193   1.121 -0.5198  0.4096 -0.3083
32463SOL     OW 3225   0.938   0.986   5.141  0.0350 -0.1647  0.0861
32463SOL    HW1 3226   0.920   0.919   5.076  1.0754  0.9561 -1.4334
32463SOL    HW2 3227   1.032   0.978   5.159  0.3870  1.3937 -0.8133
32464SOL     OW 3228   5.913   4.589  10.231 -0.4702 -0.2132 -0.0793
32464SOL    HW1 3229   5.881   4.601  10.141  0.6461  1.3868 -0.2898
32464SOL    HW2 3230   6.000   4.629  10.231  1.0171 -3.1596  0.8473
32465SOL     OW 3231   2.579   5.698   7.088  0.1808 -0.4505 -0.3251
32465SOL    HW1 3232   2.540   5.631   7.144  1.1222 -1.1810 -0.5081
32465SOL    HW2 3233   2.645   5.740   7.144  0.6497 -0.7213 -0.6610
32466SOL     OW 3234   4.567   5.137   4.473  0.2569  0.0122 -0.0025
32466SOL    HW1 3235   4.653   5.106   4.503  0.9119  0.7405 -1.0868
32466SOL    HW2 3236   4.584   5.179   4.389 -1.0009  1.1247  0.2700
32467SOL     OW 3237  10.470   5.869   2.796  0.2715  0.2873  0.3145
32467SOL    HW1 3238  10.396   5.810   2.813  1.3582 -0.5775  2.3893
32467SOL    HW2 3239  10.430   5.954   2.779 -1.2099 -0.2865  0.8163
32468SOL     OW 3240   9.963   6.018   6.560  0.2298  0.1458 -0.7729
32468SOL    HW1 3241   9.913   6.099   6.553  0.9231  0.8024  1.1641
32468SOL    HW2 3242   9.904   5.951   6.526 -1.6969  1.0129  0.6087
32469SOL     OW 3243   8.240   9.580   8.919  0.0095  0.2772  0.5217
32469SOL    HW1 3244   8.229   9.543   9.006  1.0704  0.8987  0.9450
32469SOL    HW2 3245   8.154   9.571   8.877 -0.5910  0.2366  1.7313
32470SOL     OW 3246   5.425   2.442   0.613  0.0669 -0.1056  0.0835
32470SOL    HW1 3247   5.390   2.362   0.573 -0.2303  1.0044 -2.0016
32470SOL    HW2 3248   5.476   2.483   0.543 -0.7299  2.1105  0.7312
32471SOL     OW 3249   4.807   0.424   8.539 -0.2511  0.6521  0.1664
32471SOL    HW1 3250   4.816   0.516   8.516  0.7784  0.7079  0.7800
32471SOL    HW2 3251   4.888   0.402   8.584 -0.3277 -0.6531 -0.2935
32472SOL     OW 3252  11.281   2.881   1.652 -0.7767 -0.3151  0.5417
32472SOL    HW1 3253  11.376   2.868   1.646 -0.6263  1.1748 -3.3347
32472SOL    HW2 3254  11.272   2.969   1.690 -0.8076 -1.3415  3.0918
32473SOL     OW 3255   2.311   2.282  11.971 -0.2939  0.9315  0.2510
32473SOL    HW1 3256   2.313   2.347  11.901 -0.5628 -0.1373 -0.7975
32473SOL    HW2 3257   2.258   2.210  11.935  1.0734 -0.4204  0.8331
32474SOL     OW 3258   8.852   8.512   7.096  0.0476  1.1070 -0.2778
32474SOL    HW1 3259   8.769   8.509   7.143 -0.7302  0.2582 -1.6511
32474SOL    HW2 3260   8.917   8.484   7.161 -1.0505 -0.4679  0.2005
32475SOL     OW 3261  10.899   8.786  10.125  0.5406  0.5522  0.1444
32475SOL    HW1 3262  10.875   8.757  10.037  0.7677  0.0568  0.2401
32475SOL    HW2 3263  10.995   8.783  10.125  0.5294 -1.8598  1.1741
32476SOL     OW 3264   6.524   6.749   7.342 -0.3160  0.6896  0.0503
32476SOL    HW1 3265   6.601   6.706   7.381 -0.9281 -0.5711 -0.0850
32476SOL    HW2 3266   6.450   6.716   7.392 -0.9858  0.1235 -1.2724
32477SOL     OW 3267   5.122   7.225   0.321 -0.0005 -0.7887  0.9622
32477SOL    HW1 3268   5.063   7.164   0.367 -0.2256  0.1075  1.9024
32477SOL    HW2 3269   5.116   7.306   0.371 -1.7903  0.9319 -1.7594
32478SOL     OW 3270   4.650   7.870   0.724  0.1688  0.7764 -0.1654
32478SOL    HW1 3271   4.659   7.784   0.683  1.0852  1.1559 -0.7667
32478SOL    HW2 3272   4.645   7.932   0.651  0.5969  1.3406  0.2764
32479SOL     OW 3273   8.075   8.895   7.201  0.9781  0.0389 -0.1188
32479SOL    HW1 3274   8.068   8.800   7.211  0.4706  0.1173  0.3349
32479SOL    HW2 3275   8.150   8.908   7.143  1.0613 -0.6379 -0.1688
32480SOL     OW 3276  10.161   8.382   5.213 -0.1929 -0.4497 -0.0253
32480SOL    HW1 3277  10.161   8.394   5.308  0.2565  0.9095 -0.1779
32480SOL    HW2 3278  10.147   8.288   5.201 -0.4674 -0.6127  1.3761
32481SOL     OW 3279   7.473   4.076   5.287  0.0273 -0.0810 -0.7175
32481SOL    HW1 3280   7.514   4.115   5.365 -0.3255 -1.3459  0.1429
32481SOL    HW2 3281   7.406   4.139   5.261 -1.1744 -0.4766  1.2072
32482SOL     OW 3282   0.731   3.475   9.411 -0.4088 -0.2011 -0.1655
32482SOL    HW1 3283   0.750   3.388   9.375  0.6148 -0.5261  1.0658
32482SOL    HW2 3284   0.813   3.502   9.452 -0.3350  1.9151 -1.5719
32483SOL     OW 3285   9.292  10.206   8.156  0.0967 -0.1908 -0.3747
32483SOL    HW1 3286   9.344  10.136   8.196 -0.1387  0.0459  0.3602
32483SOL    HW2 3287   9.315  10.285   8.205 -0.2835  0.0829 -0.6291
32484SOL     OW 3288   8.074   9.504   0.550 -0.5215 -0.5777 -0.1571
32484SOL    HW1 3289   8.094   9.490   0.458  1.2128 -0.0775  0.1256
32484SOL    HW2 3290   8.045   9.595   0.556  0.0885 -0.3865 -0.0969
32485SOL     OW 3291   7.832   2.144   8.301  0.8890 -0.2791 -0.5347
32485SOL    HW1 3292   7.868   2.230   8.277 -0.4600  0.4187 -0.1134
32485SOL    HW2 3293   7.816   2.150   8.395 -0.9920 -0.3150 -0.8326
32486SOL     OW 3294   9.031   2.766   7.070  0.1077 -0.4153 -0.9225
32486SOL    HW1 3295   8.961   2.744   7.132  0.8936  0.8107  0.4531
32486SOL    HW2 3296   9.074   2.683   7.052  0.7809 -0.6267  1.3552
32487SOL     OW 3297   3.089   2.210   9.540 -0.3457  0.1877  0.4690
32487SOL    HW1 3298   3.106   2.169   9.624  0.0144  1.7419  1.1833
32487SOL    HW2 3299   3.153   2.281   9.534 -0.7417  0.4658 -0.8565
32488SOL     OW 3300   2.974   3.058   4.335 -0.5527 -0.2719  0.2284
32488SOL    HW1 3301   2.915   3.053   4.260 -0.6923  1.1521  0.2047
32488SOL    HW2 3302   3.035   2.985   4.323 -0.1105  0.3516 -1.6865
32489SOL     OW 3303   2.606   8.982   4.130 -0.2734  0.1596  0.1576
32489SOL    HW1 3304   2.657   8.903   4.146  0.8781  0.8578  0.0481
32489SOL    HW2 3305   2.669   9.054   4.140 -0.9488  0.9824 -1.1784
32490SOL     OW 3306   2.461   0.584  10.469 -0.1483  0.1068 -0.1522
32490SOL    HW1 3307   2.528   0.612  10.407 -0.0592  1.5297  0.5473
32490SOL    HW2 3308   2.379   0.594  10.421 -0.0403  0.7059 -0.2125
32491SOL     OW 3309   4.851  10.908   4.076 -0.1865 -0.2507  0.7532
32491SOL    HW1 3310   4.762  10.930   4.047 -0.0466 -1.6016 -0.8404
32491SOL    HW2 3311   4.908  10.968   4.027 -0.1422 -0.2993  0.7447
32492SOL     OW 3312   7.986   6.311   8.117 -0.0872  0.4205 -0.2117
32492SOL    HW1 3313   7.961   6.288   8.028  1.0280  0.8415 -0.6579
32492SOL    HW2 3314   7.911   6.358   8.152 -0.8273 -0.4075 -0.6587
32493SOL     OW 3315  12.200   5.118   0.547 -0.2913 -0.0486  0.1033
32493SOL    HW1 3316  12.150   5.147   0.470  0.0244  1.1183  0.3084
32493SOL    HW2 3317  12.247   5.197   0.575  1.7438 -1.1267 -0.1463
32494SOL     OW 3318   0.132   3.567   5.429  0.0696  0.0961  0.3186
32494SOL    HW1 3319   0.047   3.524   5.416  0.2284 -0.2784  0.5139
32494SOL    HW2 3320   0.119   3.621   5.508  0.0150  0.0385  0.3493
32495SOL     OW 3321   5.746   1.652   5.111  0.5449 -0.4811  0.1524
32495SOL    HW1 3322   5.736   1.585   5.179  0.7617 -0.6969 -0.0246
32495SOL    HW2 3323   5.829   1.694   5.131  0.1486  0.1107  0.5844
32496SOL     OW 3324  10.720   4.060   5.287 -0.4914 -0.6609 -0.2762
32496SOL    HW1 3325  10.705   4.066   5.192  1.8889 -0.5758 -0.7014
32496SOL    HW2 3326  10.688   4.143   5.322  2.9782  1.5091 -1.7436
32497SOL     OW 3327   7.361   5.255   2.218  0.4907  0.2759 -0.4691
32497SOL    HW1 3328   7.383   5.200   2.293  2.9746  1.6485 -0.0771
32497SOL    HW2 3329   7.344   5.342   2.255 -0.5685  0.4508 -1.3081
32498SOL     OW 3330   6.399   1.452   9.135  0.1933 -0.9484 -0.1089
32498SOL    HW1 3331   6.482   1.443   9.182  0.1507  1.4625  0.5357
32498SOL    HW2 3332   6.401   1.540   9.098 -1.5333 -1.3214 -1.2109
32499SOL     OW 3333  10.890   8.624   7.062 -0.3499  0.0473  0.1764
32499SOL    HW1 3334  10.882   8.710   7.019 -1.2175  0.7399  1.6299
32499SOL    HW2 3335  10.954   8.639   7.132  2.5159 -1.5402 -1.8732
32500SOL     OW 3336   1.091   6.748  10.921 -0.3381  0.0986 -0.3424
32500SOL    HW1 3337   1.144   6.685  10.872  0.1137  0.0486  0.2162
32500SOL    HW2 3338   1.093   6.828  10.867 -0.8101 -0.3148 -0.9904
32501SOL     OW 3339   0.379  10.611   0.597 -0.0159 -0.0145 -0.2743
32501SOL    HW1 3340   0.330  10.550   0.541  0.0876 -0.3524 -0.0013
32501SOL    HW2 3341   0.315  10.678   0.621 -0.2828 -0.3294 -0.1036
32502SOL     OW 3342   6.292  11.694  11.475 -0.0512 -0.3209 -0.3363
32502SOL    HW1 3343   6.370  11.640  11.487 -1.4150 -2.4057 -0.3592
32502SOL    HW2 3344   6.252  11.698  11.561 -0.1226  0.4249 -0.4009
32503SOL     OW 3345   4.375  11.328   7.212 -0.1248 -0.1397 -0.5510
32503SOL    HW1 3346   4.302  11.322   7.151 -0.7266  1.7459 -0.0758
32503SOL    HW2 3347   4.357  11.406   7.263  0.1952 -1.8007  2.3027
32504SOL     OW 3348   5.542   2.729   8.967  0.3755 -0.0057  0.0454
32504SOL    HW1 3349   5.587   2.804   9.008 -1.5287  0.4788  1.3925
32504SOL    HW2 3350   5.476   2.769   8.911  0.3482 -0.6938 -0.4195
32505SOL     OW 3351  10.372   9.979   8.885 -0.5514 -0.5813  0.3716
32505SOL    HW1 3352  10.420   9.923   8.824 -0.4677  1.7345 -1.8704
32505SOL    HW2 3353  10.353   9.923   8.960  1.1520 -3.0127 -0.8915
32506SOL     OW 3354   5.800   5.962   4.963  0.2216  0.4116 -0.5291
32506SOL    HW1 3355   5.725   5.938   5.017  0.8585 -2.4854 -0.7725
32506SOL    HW2 3356   5.844   6.031   5.013 -0.6668 -0.3224  1.3816
32507SOL     OW 3357   9.666   6.668   1.463 -0.4379 -0.4539  0.0493
32507SOL    HW1 3358   9.757   6.640   1.454 -0.7905 -1.7656  0.2923
32507SOL    HW2 3359   9.627   6.603   1.522 -1.1426  1.0096  1.2694
32508SOL     OW 3360   5.593   9.428   2.258  0.2545  0.3686 -0.0990
32508SOL    HW1 3361   5.525   9.405   2.322  0.7547 -1.2408 -0.0969
32508SOL    HW2 3362   5.551   9.418   2.173  0.2517  0.2231 -0.0800
32509SOL     OW 3363   0.632   0.190   8.439 -0.1472 -0.0252  0.1916
32509SOL    HW1 3364   0.564   0.149   8.387  0.6565 -0.3662 -0.6228
32509SOL    HW2 3365   0.657   0.268   8.390  0.8687 -0.5432 -0.1666
32510SOL     OW 3366   5.550  10.731   9.083  0.1121  0.1656  0.0068
32510SOL    HW1 3367   5.529  10.783   9.160 -0.7105  2.2984 -1.5365
32510SOL    HW2 3368   5.506  10.647   9.097 -1.0119  0.9343  1.3384
32511SOL     OW 3369   0.355  12.194   7.606 -0.0733  0.7421 -0.1561
32511SOL    HW1 3370   0.261  12.210   7.595  0.0288  1.1134 -0.5385
32511SOL    HW2 3371   0.387  12.270   7.654 -0.1323  0.1490  0.8539
32512SOL     OW 3372  11.339   6.788   5.816  0.3653 -0.0020 -0.4174
32512SOL    HW1 3373  11.418   6.827   5.854  0.4507  0.1977 -0.8002
32512SOL    HW2 3374  11.274   6.794   5.886  0.2531  1.2242 -0.6043
32513SOL     OW 3375   5.369   3.585   5.836  0.0780  0.2775  0.1764
32513SOL    HW1 3376   5.439   3.651   5.841  1.0387 -0.7281  0.3211
32513SOL    HW2 3377   5.372   3.540   5.920 -0.1055 -0.4189 -0.1814
32514SOL     OW 3378   0.008   3.303  11.747  0.2597 -0.7229 -0.2606
32514SOL    HW1 3379   0.035   3.375  11.804  0.8639 -1.1083 -0.0514
32514SOL    HW2 3380   0.086   3.248  11.739 -0.0478 -1.0835 -0.8363
32515SOL     OW 3381   4.951   6.452   2.329  0.3252  0.0873 -0.4682
32515SOL    HW1 3382   4.968   6.473   2.237 -3.1639 -1.6820 -1.6797
32515SOL    HW2 3383   4.911   6.531   2.364  0.8126  0.4622 -0.7443
32516SOL     OW 3384   5.273   4.262   8.217 -0.0865  0.0827  0.2942
32516SOL    HW1 3385   5.292   4.273   8.124  1.3649 -1.8732  0.2855
32516SOL    HW2 3386   5.267   4.352   8.251  0.4304  0.8374 -1.4842
32517SOL     OW 3387   0.957   9.062   4.424 -0.1351 -0.1617  0.1105
32517SOL    HW1 3388   0.891   9.088   4.489 -1.1779 -1.4746 -0.3771
32517SOL    HW2 3389   0.959   9.135   4.362  2.0020  1.8422  2.3516
32518SOL     OW 3390   3.581   1.707   7.522 -0.6952 -0.2661 -0.5539
32518SOL    HW1 3391   3.534   1.790   7.524 -1.8274 -0.8709 -1.2022
32518SOL    HW2 3392   3.600   1.689   7.614 -1.9566 -0.1089 -0.2418
32519SOL     OW 3393  11.423   1.690   3.984 -0.3547 -0.3816  0.0133
32519SOL    HW1 3394  11.433   1.724   3.895  0.3064 -1.9118 -0.5249
32519SOL    HW2 3395  11.469   1.606   3.983 -1.0462 -0.8121  1.5762
32520SOL     OW 3396   4.005   1.708  11.323 -0.2493  0.4453  0.3472
32520SOL    HW1 3397   3.916   1.727  11.294 -0.6354 -0.6851  0.7753
32520SOL    HW2 3398   4.050   1.677  11.244 -0.2973  0.7878  0.1849
32521SOL     OW 3399   1.343   4.221   3.053  0.3873  0.1583  0.3023
32521SOL    HW1 3400   1.279   4.151   3.069 -0.7356  0.9094 -0.7221
32521SOL    HW2 3401   1.374   4.246   3.140 -1.5439  0.5256  0.9369
32522SOL     OW 3402   5.327  11.243   6.759  0.0208  0.3371 -0.2755
32522SOL    HW1 3403   5.315  11.201   6.673 -0.6136  0.1348 -0.0859
32522SOL    HW2 3404   5.396  11.308   6.743 -0.2442  0.4569 -0.9931
32523SOL     OW 3405   5.849  11.668   1.421 -0.1103 -0.1675  0.1519
32523SOL    HW1 3406   5.848  11.731   1.493 -2.6254  1.4042 -1.1534
32523SOL    HW2 3407   5.894  11.713   1.350 -1.6477  0.0949 -0.6902
32524SOL     OW 3408   3.096   1.303  11.888  0.3362  0.3548  0.5211
32524SOL    HW1 3409   3.067   1.286  11.978  3.2091  0.3887  1.5591
32524SOL    HW2 3410   3.138   1.222  11.860 -1.3119  0.0353 -1.2035
32525SOL     OW 3411   1.353   9.640   5.014 -0.2109 -0.6297  0.5299
32525SOL    HW1 3412   1.385   9.601   5.096 -0.5810 -0.1205  0.9176
32525SOL    HW2 3413   1.346   9.733   5.032  2.1832 -0.0995 -0.8787
32526SOL     OW 3414  11.111  12.290  10.280 -0.3233 -0.2120  0.2782
32526SOL    HW1 3415  11.102  12.198  10.256 -0.7859 -0.6341  1.9250
32526SOL    HW2 3416  11.023  12.327  10.266 -0.1010  0.0282 -0.5258
32527SOL     OW 3417   0.046   7.566  11.906  0.7681  0.2195 -0.0765
32527SOL    HW1 3418   0.125   7.600  11.950  1.2729 -0.6118 -0.3136
32527SOL    HW2 3419   0.011   7.501  11.967 -1.3029  2.4231  1.2693
32528SOL     OW 3420   0.045   3.700   3.305 -0.3468 -0.5059  0.0947
32528SOL    HW1 3421  -0.030   3.650   3.274  0.1046 -0.0218 -1.9126
32528SOL    HW2 3422   0.100   3.713   3.227  0.5520  1.3579  0.9580
32529SOL     OW 3423   9.346   6.847   4.833 -0.0394  0.0894 -0.0006
32529SOL    HW1 3424   9.251   6.861   4.841 -0.2848 -1.4199 -0.0777
32529SOL    HW2 3425   9.376   6.844   4.924  0.0944  1.4136  0.0231
32530SOL     OW 3426   9.366  12.149  10.400 -0.3067 -0.0371 -0.6130
32530SOL    HW1 3427   9.321  12.080  10.450 -1.6103  1.8566  1.0198
32530SOL    HW2 3428   9.352  12.126  10.309 -1.6354 -1.3738 -0.1165
32531SOL     OW 3429   7.585   9.456   6.104  0.4061  0.2539 -0.3581
32531SOL    HW1 3430   7.618   9.467   6.193 -1.0713  0.8092  0.1483
32531SOL    HW2 3431   7.622   9.530   6.056  2.6072 -0.9783 -0.6813
32532SOL     OW 3432   7.838  10.088   6.208  0.0072  0.1508  0.1179
32532SOL    HW1 3433   7.884  10.051   6.133  2.0263  1.5282  0.6110
32532SOL    HW2 3434   7.781  10.018   6.238 -1.2465 -0.3191 -2.9466
32533SOL     OW 3435   4.491   4.261   1.878 -0.0922  0.4860  0.0710
32533SOL    HW1 3436   4.481   4.354   1.897 -2.2955  0.4227 -0.5403
32533SOL    HW2 3437   4.508   4.257   1.783 -1.0459  0.2277 -0.0946
32534SOL     OW 3438   8.950  11.167   1.601 -0.4997 -0.5410 -0.7441
32534SOL    HW1 3439   8.874  11.215   1.568 -0.1811  0.1035 -0.5512
32534SOL    HW2 3440   8.952  11.087   1.548 -0.4599  0.1108 -1.7522
32535SOL     OW 3441  11.315   2.756  11.450  0.2911 -0.0932 -0.3276
32535SOL    HW1 3442  11.332   2.829  11.510 -0.0127  0.1105 -0.4820
32535SOL    HW2 3443  11.400   2.713  11.438  0.7097  0.8928 -1.0898
32536SOL     OW 3444   4.251   2.272  11.521  0.4647  0.3517 -0.0419
32536SOL    HW1 3445   4.296   2.288  11.438 -1.7946 -1.8032 -1.8264
32536SOL    HW2 3446   4.260   2.178  11.536 -0.2691  0.4938  1.5007
32537SOL     OW 3447   6.138   8.523  10.293 -0.9831 -0.2016 -0.0688
32537SOL    HW1 3448   6.212   8.469  10.266 -0.0694  1.2395 -0.5640
32537SOL    HW2 3449   6.153   8.541  10.386  0.2535  1.4431 -0.5239
32538SOL     OW 3450   6.994   3.276   7.876  0.4876 -0.2100  0.2661
32538SOL    HW1 3451   7.020   3.298   7.787  1.5435 -0.2008  0.5651
32538SOL    HW2 3452   6.905   3.311   7.885  0.5554  0.2017 -0.6267
32539SOL     OW 3453  10.334   0.509   3.247 -0.1109 -0.4540 -0.3855
32539SOL    HW1 3454  10.362   0.593   3.211  1.5287 -0.4887  0.7466
32539SOL    HW2 3455  10.249   0.493   3.206 -0.1752  1.4571 -1.0818
32540SOL     OW 3456  11.753   7.799  10.605 -0.3994 -0.5053 -0.1451
32540SOL    HW1 3457  11.699   7.722  10.621 -0.8781 -0.1539 -0.0398
32540SOL    HW2 3458  11.813   7.773  10.536 -0.4073 -1.0428  0.0477
32541SOL     OW 3459   9.139   2.388   4.135 -0.3222  0.2976  0.1207
32541SOL    HW1 3460   9.188   2.470   4.126  0.3631 -0.0915  0.2505
32541SOL    HW2 3461   9.067   2.397   4.072  0.6256  0.3740 -0.9958
32542SOL     OW 3462   4.042   5.745  11.199 -0.5372 -0.0709 -0.8319
32542SOL    HW1 3463   4.106   5.676  11.216  0.3570  1.1990  1.2263
32542SOL    HW2 3464   3.965   5.698  11.165  1.2428 -1.6755 -2.9488
32543SOL     OW 3465   9.307   3.249   7.853 -0.2042 -0.5118 -0.2814
32543SOL    HW1 3466   9.270   3.161   7.863 -1.5820  0.0853  0.1047
32543SOL    HW2 3467   9.291   3.272   7.762 -0.8258 -0.2486 -0.1115
32544SOL     OW 3468   1.729   7.889   4.391  0.0437 -0.4977 -0.4833
32544SOL    HW1 3469   1.658   7.862   4.333 -1.4887 -0.0350  1.1244
32544SOL    HW2 3470   1.774   7.958   4.342 -0.4370 -0.9489 -1.6196
32545SOL     OW 3471  11.897   0.479   0.448  0.1671 -0.5809  0.3964
32545SOL    HW1 3472  11.980   0.503   0.406 -0.0871  0.7277  0.5864
32545SOL    HW2 3473  11.830   0.517   0.391 -0.2021  0.5915  1.5856
32546SOL     OW 3474   5.509   1.054   4.443 -0.1672  0.3614  0.4157
32546SOL    HW1 3475   5.419   1.066   4.471 -0.8104  2.9132 -2.2700
32546SOL    HW2 3476   5.503   1.000   4.364  0.6644  0.4367  0.2865
32547SOL     OW 3477   2.481   5.093   4.677  0.4481  0.3217  0.4798
32547SOL    HW1 3478   2.575   5.074   4.672  0.1050 -1.1876 -1.4713
32547SOL    HW2 3479   2.452   5.051   4.757  0.9652 -1.7233 -0.3560
32548SOL     OW 3480   7.224  10.081  10.721 -0.4272  0.4241  0.0891
32548SOL    HW1 3481   7.290  10.086  10.790 -0.1099 -1.3358 -0.0410
32548SOL    HW2 3482   7.255  10.011  10.664 -1.9238  0.2185 -0.5075
32549SOL     OW 3483   6.215   5.247   3.134 -0.1108  0.4027  0.1546
32549SOL    HW1 3484   6.230   5.280   3.222  1.5745 -1.1754  0.5080
32549SOL    HW2 3485   6.285   5.183   3.119 -1.6048 -0.9690 -1.5074
32550SOL     OW 3486   1.900  12.295   0.366 -0.0112  0.5713  0.5165
32550SOL    HW1 3487   1.853  12.309   0.284  2.4903 -1.0143 -1.3271
32550SOL    HW2 3488   1.980  12.346   0.358  0.5950 -0.1416  1.6698
32551SOL     OW 3489   1.455   7.762   8.657 -0.2564  0.6490  0.2755
32551SOL    HW1 3490   1.433   7.695   8.592  1.1989 -0.3285  0.7451
32551SOL    HW2 3491   1.392   7.833   8.640 -0.6233 -0.0291 -1.4562
32552SOL     OW 3492   1.945   0.304   5.374  0.2400  0.0605  0.4284
32552SOL    HW1 3493   1.998   0.275   5.300  1.2272  0.4536  0.9662
32552SOL    HW2 3494   1.946   0.399   5.369 -0.8084  0.0722  0.1846
32553SOL     OW 3495  10.844   5.614   3.943  0.4141  0.5112  0.4928
32553SOL    HW1 3496  10.851   5.630   3.849 -0.0718 -0.4192  0.2909
32553SOL    HW2 3497  10.903   5.679   3.982  0.5397  0.9801 -0.4392
32554SOL     OW 3498   0.686   1.536   6.093 -0.1113 -0.0381  0.0597
32554SOL    HW1 3499   0.651   1.448   6.100 -0.7136  0.1215 -0.7452
32554SOL    HW2 3500   0.764   1.526   6.037 -0.0347 -0.0899  0.1742
32555SOL     OW 3501   1.065   3.817   7.945 -0.4249 -0.2106 -0.2002
32555SOL    HW1 3502   0.988   3.777   7.906 -0.4252 -0.9588  0.5205
32555SOL    HW2 3503   1.131   3.747   7.943 -0.0821  0.1017  0.0870
32556SOL     OW 3504  10.056  11.176   6.990 -0.1608 -0.3939 -0.2212
32556SOL    HW1 3505  10.022  11.155   7.077  1.2392 -0.5098  0.3167
32556SOL    HW2 3506  10.117  11.248   7.003 -2.1442  1.6432 -1.5576
32557SOL     OW 3507   0.299   3.750   3.511 -0.2736  0.0873 -0.1794
32557SOL    HW1 3508   0.209   3.783   3.518  0.5009  2.2154  0.6080
32557SOL    HW2 3509   0.319   3.757   3.417 -1.5186 -2.2435 -0.6786
32558SOL     OW 3510   6.126   1.889   4.848  0.0533 -0.3498 -0.1752
32558SOL    HW1 3511   6.038   1.862   4.824  0.4711 -2.3907  0.3420
32558SOL    HW2 3512   6.164   1.924   4.767 -1.4418  1.3303 -0.2050
32559SOL     OW 3513   8.667   4.019   1.551  0.3442  0.5311 -0.4772
32559SOL    HW1 3514   8.574   4.029   1.531  0.1293  0.3646  0.3719
32559SOL    HW2 3515   8.710   4.011   1.466 -0.6572 -1.4641 -0.8560
32560SOL     OW 3516   5.079  11.486   8.247  0.2664  0.0472 -0.4280
32560SOL    HW1 3517   5.010  11.529   8.297  1.2065  0.0002  0.9620
32560SOL    HW2 3518   5.059  11.393   8.254  1.5687 -0.1391  1.7926
32561SOL     OW 3519  12.330  11.789   3.862 -0.3463  0.4825 -0.1393
32561SOL    HW1 3520  12.285  11.752   3.786  0.5455  1.5667 -1.2394
32561SOL    HW2 3521  12.281  11.869   3.882 -2.5039 -1.3127  2.4690
32562SOL     OW 3522   8.118   9.268   5.869  0.4109  0.7839 -0.2019
32562SOL    HW1 3523   8.152   9.279   5.958  1.4527 -0.2389 -0.4574
32562SOL    HW2 3524   8.196   9.257   5.814 -0.2682 -0.4240 -0.9786
32563SOL     OW 3525  10.640   9.684   0.238 -0.3278  0.1450 -0.4739
32563SOL    HW1 3526  10.663   9.670   0.330 -1.3484  0.5567 -0.1395
32563SOL    HW2 3527  10.724   9.691   0.193  0.1890 -0.7120  0.3164
32564SOL     OW 3528   1.380   4.885   4.514  0.6381  0.3362  0.7978
32564SOL    HW1 3529   1.453   4.940   4.540  1.6272  0.1046 -1.2320
32564SOL    HW2 3530   1.419   4.819   4.456 -1.0466 -0.2959  0.2981
32565SOL     OW 3531   9.240   3.547   4.155  0.0347  0.5895  0.1127
32565SOL    HW1 3532   9.309   3.528   4.219  0.0407 -0.6024 -0.2113
32565SOL    HW2 3533   9.286   3.569   4.075  0.0309  1.2011  0.2774
32566SOL     OW 3534  10.860   7.639   9.045  0.3628  0.8315  0.0449
32566SOL    HW1 3535  10.859   7.560   8.992 -0.5490 -0.0107  1.2696
32566SOL    HW2 3536  10.915   7.617   9.120 -1.5605  0.5604  1.4727
32567SOL     OW 3537   5.883   7.965  10.812 -0.1261 -0.0555 -0.5356
32567SOL    HW1 3538   5.832   7.887  10.833  0.7285 -0.3679  0.4910
32567SOL    HW2 3539   5.844   7.999  10.732 -1.0110 -1.0922 -0.5617
32568SOL     OW 3540   0.360   2.668  11.065 -0.0737 -0.2742  0.2550
32568SOL    HW1 3541   0.379   2.632  10.978 -0.2228 -0.1670  0.1766
32568SOL    HW2 3542   0.326   2.756  11.047 -2.0621 -0.9858  0.3019
32569SOL     OW 3543   0.382   5.341   9.127 -0.3093  0.5019 -0.7601
32569SOL    HW1 3544   0.298   5.387   9.123 -0.0517  1.0019 -0.4912
32569SOL    HW2 3545   0.415   5.342   9.038 -0.5611  0.3544 -0.8561
32570SOL     OW 3546   4.309   8.040   3.997 -0.3920 -0.0756  0.5972
32570SOL    HW1 3547   4.256   8.094   3.938  1.1165 -1.0369 -1.7578
32570SOL    HW2 3548   4.344   8.103   4.061  1.8814  2.0581 -2.4490
32571SOL     OW 3549   2.649   4.411  10.610  0.6343 -0.2973 -0.1733
32571SOL    HW1 3550   2.717   4.433  10.547  1.6267  0.8492  1.2607
32571SOL    HW2 3551   2.654   4.478  10.677 -0.4868 -1.3964  1.0878
32572SOL     OW 3552   5.866  12.188  10.266  0.2728 -0.4008 -0.2139
32572SOL    HW1 3553   5.848  12.180  10.173  1.9945 -1.0617 -0.5264
32572SOL    HW2 3554   5.930  12.119  10.284  2.3019  1.6047  0.7798
32573SOL     OW 3555   2.852   9.808   7.724  0.2547 -0.0049 -0.5758
32573SOL    HW1 3556   2.941   9.836   7.742 -0.2749  1.3824  0.0356
32573SOL    HW2 3557   2.806   9.821   7.807 -0.5942 -0.3745 -0.9791
32574SOL     OW 3558  11.726  12.231   6.334  0.4417  0.7370 -0.3029
32574SOL    HW1 3559  11.662  12.177   6.380  0.6678  1.6580  1.1867
32574SOL    HW2 3560  11.764  12.173   6.268 -1.2759 -0.0747 -0.6171
32575SOL     OW 3561   7.579   0.975   9.465  0.1641  0.1156  0.6436
32575SOL    HW1 3562   7.497   0.934   9.493  0.3578 -0.4543  0.3785
32575SOL    HW2 3563   7.551   1.057   9.424 -0.2890 -0.1380  0.4314
32576SOL     OW 3564   9.917   6.713   1.859  0.0870 -0.4881  0.4042
32576SOL    HW1 3565   9.949   6.671   1.779 -0.9778 -1.4170  0.4226
32576SOL    HW2 3566   9.834   6.753   1.833  1.5760  2.6646  0.1208
32577SOL     OW 3567  11.645   6.007   7.614 -0.8385 -0.0577  0.1590
32577SOL    HW1 3568  11.579   6.062   7.656 -0.9074 -0.5080  0.6512
32577SOL    HW2 3569  11.596   5.932   7.581 -0.4021 -1.0592  1.7110
32578SOL     OW 3570  11.617   5.485   7.246 -0.3927  1.2183 -0.2767
32578SOL    HW1 3571  11.548   5.536   7.290 -2.1008 -0.3036 -1.0437
32578SOL    HW2 3572  11.589   5.394   7.256  2.6427  0.3169  1.2215
32579SOL     OW 3573   3.871   7.864   9.055 -0.2863 -0.0311  0.5942
32579SOL    HW1 3574   3.937   7.840   9.119  0.1043  1.2059  0.6892
32579SOL    HW2 3575   3.790   7.826   9.088  0.0661 -0.0842  1.4072
32580SOL     OW 3576   3.583   5.085   9.205  0.0756  0.4488  0.1014
32580SOL    HW1 3577   3.657   5.129   9.163 -0.1223 -0.7598 -1.6423
32580SOL    HW2 3578   3.525   5.155   9.232  1.2742  1.3614  0.3920
32581SOL     OW 3579   5.103   9.902   5.974 -0.4111 -0.7284  0.0483
32581SOL    HW1 3580   5.119   9.825   6.029 -0.9998 -0.0656  1.1777
32581SOL    HW2 3581   5.163   9.968   6.007 -3.6567  1.1047  2.9338
32582SOL     OW 3582   6.272   7.726   2.801 -0.1562  0.4047 -0.2019
32582SOL    HW1 3583   6.296   7.652   2.856  2.0103  1.6163  0.6004
32582SOL    HW2 3584   6.233   7.687   2.723  2.7236 -1.7602 -0.7126
32583SOL     OW 3585   7.990   3.998   5.558  0.0142  0.0266 -0.0592
32583SOL    HW1 3586   7.911   4.052   5.557 -0.6532 -0.9228 -0.2436
32583SOL    HW2 3587   8.056   4.052   5.601 -1.7555 -0.5424  3.7146
32584SOL     OW 3588   0.471  11.313   2.862  0.4033  0.0816  0.2918
32584SOL    HW1 3589   0.508  11.297   2.949 -2.5309  2.1441  2.1065
32584SOL    HW2 3590   0.382  11.277   2.868  0.1108  0.3462 -1.8571
32585SOL     OW 3591  12.129  11.597   0.896  0.3275 -0.3701  0.0762
32585SOL    HW1 3592  12.129  11.582   0.801  0.7858 -2.2877  0.3261
32585SOL    HW2 3593  12.037  11.604   0.919  0.2207  0.3344 -0.5283
32586SOL     OW 3594   5.131  10.021   6.683  0.0612  0.5353 -0.1602
32586SOL    HW1 3595   5.077  10.095   6.711 -1.7884 -0.2030 -1.5895
32586SOL    HW2 3596   5.216  10.061   6.664 -0.1980  1.8949  1.2215
32587SOL     OW 3597  10.824   8.821  12.204  0.7411  0.0900  0.4898
32587SOL    HW1 3598  10.742   8.841  12.250  0.6842  0.2646  0.3126
32587SOL    HW2 3599  10.879   8.898  12.219  1.0341 -0.2080  0.9727
32588SOL     OW 3600   8.241  10.890  11.093 -0.2447  0.0537 -0.0290
32588SOL    HW1 3601   8.258  10.978  11.058 -0.9530  0.1499 -0.1636
32588SOL    HW2 3602   8.158  10.865  11.051 -0.4843 -0.3241  0.6679
32589SOL     OW 3603   3.335   6.337   2.758  0.2299  0.2592  0.3044
32589SOL    HW1 3604   3.378   6.389   2.690  0.8112  0.6979  0.9893
32589SOL    HW2 3605   3.355   6.384   2.839 -0.6293 -0.1412  0.7556
32590SOL     OW 3606   3.225   9.193   2.549 -0.3192 -0.1595 -0.2415
32590SOL    HW1 3607   3.154   9.216   2.489 -0.9385 -1.1757  0.0779
32590SOL    HW2 3608   3.226   9.097   2.549 -0.5506 -0.1881  1.6208
32591SOL     OW 3609   8.463  10.473   2.857 -0.3579  0.3162  0.1354
32591SOL    HW1 3610   8.389  10.457   2.799 -2.5877  3.6154  1.7894
32591SOL    HW2 3611   8.530  10.512   2.801 -0.8699 -0.2597 -0.8988
32592SOL     OW 3612   7.262   1.821   6.658 -0.3137 -0.1843  0.1683
32592SOL    HW1 3613   7.304   1.891   6.608  0.2771  0.0633  0.9890
32592SOL    HW2 3614   7.232   1.863   6.738 -0.0776 -0.8346  0.6105
32593SOL     OW 3615  12.159   1.256   9.648 -0.4622 -0.2684  0.2921
32593SOL    HW1 3616  12.235   1.199   9.657 -0.2726 -0.0373  0.1746
32593SOL    HW2 3617  12.125   1.266   9.737 -0.3042 -0.3004  0.3554
32594SOL     OW 3618   2.310   5.468   0.040  0.1842  0.6880  0.9701
32594SOL    HW1 3619   2.245   5.403   0.064  1.7696 -0.7062  1.7238
32594SOL    HW2 3620   2.378   5.418  -0.006 -0.3571  2.4788 -1.9895
32595SOL     OW 3621   7.589   0.053   6.669  0.3630 -0.0310  0.4440
32595SOL    HW1 3622   7.588  -0.040   6.644  2.8542 -0.4863  1.6389
32595SOL    HW2 3623   7.654   0.092   6.610  0.8507  0.4773  1.3048
32596SOL     OW 3624   9.459   4.504   4.568 -0.2554 -0.1630  0.3906
32596SOL    HW1 3625   9.483   4.445   4.497 -1.2087  0.9070 -0.8544
32596SOL    HW2 3626   9.501   4.587   4.546 -0.4607  0.1489  1.1412
32597SOL     OW 3627   8.379   8.185   2.429 -0.2067 -0.6805  0.4928
32597SOL    HW1 3628   8.325   8.150   2.359  2.3192  1.1885 -2.6798
32597SOL    HW2 3629   8.459   8.131   2.427  0.8662  0.8419  0.2196
32598SOL     OW 3630   7.084   4.357   1.850 -0.6152  0.2289  0.0047
32598SOL    HW1 3631   7.147   4.306   1.902 -0.6157 -1.0978 -1.2343
32598SOL    HW2 3632   7.036   4.408   1.915  0.3278 -0.3193  1.1747
32599SOL     OW 3633   2.255   9.760   1.586 -0.1992 -0.3917  0.3697
32599SOL    HW1 3634   2.298   9.815   1.521 -1.9284  1.6611  0.8428
32599SOL    HW2 3635   2.246   9.816   1.663 -1.5606 -1.5152  1.0775
32600SOL     OW 3636   3.561  11.674   4.273 -0.0660  0.1114  0.0665
32600SOL    HW1 3637   3.626  11.632   4.329  0.9375  0.3976 -0.8367
32600SOL    HW2 3638   3.606  11.750   4.237 -1.2487  0.9031  0.2151
32601SOL     OW 3639   4.723   6.932  11.453  0.6726 -0.3976 -0.0429
32601SOL    HW1 3640   4.694   6.855  11.502 -0.7287 -0.1627 -0.4542
32601SOL    HW2 3641   4.786   6.975  11.510  0.9852 -1.4997  0.4614
32602SOL     OW 3642   8.244   5.880   4.111  0.1756  0.2036 -0.2683
32602SOL    HW1 3643   8.187   5.953   4.138  0.0928 -0.7503  2.4327
32602SOL    HW2 3644   8.332   5.908   4.138  0.1926 -0.5038  0.4393
32603SOL     OW 3645  11.481   8.787  11.927  0.4728  0.0689  0.1357
32603SOL    HW1 3646  11.438   8.744  12.001  1.2075  1.2181  1.2801
32603SOL    HW2 3647  11.483   8.880  11.951  0.5317  0.5134 -1.4385
32604SOL     OW 3648   6.174   1.359   7.591  0.6598 -0.2933  0.2969
32604SOL    HW1 3649   6.079   1.348   7.594  0.6513 -0.5979 -0.7408
32604SOL    HW2 3650   6.198   1.384   7.680 -0.4902  0.5711  0.3835
32605SOL     OW 3651  10.302   6.195   9.613 -0.4647  0.6347  0.3989
32605SOL    HW1 3652  10.215   6.162   9.591  0.2207 -1.0581  0.0794
32605SOL    HW2 3653  10.285   6.273   9.666 -2.1617  0.2559  0.4759
32606SOL     OW 3654  10.295   6.912   6.535 -0.2720 -0.9864  0.5492
32606SOL    HW1 3655  10.288   6.962   6.454 -0.4703 -2.2448 -0.2464
32606SOL    HW2 3656  10.264   6.972   6.603  0.3939  0.2673 -0.2203
32607SOL     OW 3657  11.230   1.572   7.642 -0.0324 -0.4002 -0.5058
32607SOL    HW1 3658  11.239   1.631   7.567  2.2974  1.1353  0.8539
32607SOL    HW2 3659  11.151   1.601   7.686  0.1215  0.5690 -0.8379
32608SOL     OW 3660  10.633   2.839   2.978  0.2275  0.1493 -0.3549
32608SOL    HW1 3661  10.728   2.842   2.981  0.2840 -0.2095 -1.3415
32608SOL    HW2 3662  10.613   2.753   2.942 -0.3703  1.1971 -2.7648
32609SOL     OW 3663   7.097  11.303   2.124  0.1127 -0.1316 -0.4631
32609SOL    HW1 3664   7.100  11.347   2.039  1.5565 -0.3491 -0.5546
32609SOL    HW2 3665   7.015  11.253   2.123 -0.7025  1.1697 -1.0421
32610SOL     OW 3666  10.002   1.772   7.517  0.0558 -0.4405 -0.4762
32610SOL    HW1 3667  10.055   1.837   7.563 -0.2935 -0.8065  0.4683
32610SOL    HW2 3668  10.037   1.770   7.429  0.3277  0.7532 -0.4113
32611SOL     OW 3669   3.395   8.950   4.672  0.6636  0.9642 -0.8032
32611SOL    HW1 3670   3.456   8.952   4.745 -0.4849 -0.2163  0.2476
32611SOL    HW2 3671   3.417   8.869   4.625 -1.5929 -0.8595  1.0395
32612SOL     OW 3672   7.519   6.826   4.872  0.3810  0.0918 -0.2172
32612SOL    HW1 3673   7.467   6.833   4.791 -0.9271 -1.9624  0.3683
32612SOL    HW2 3674   7.464   6.868   4.939 -0.3827 -1.6496  0.3074
32613SOL     OW 3675   6.916   8.802   8.209  0.4980 -0.3236 -0.0266
32613SOL    HW1 3676   6.866   8.865   8.261 -0.5242 -0.8072 -0.4114
32613SOL    HW2 3677   6.973   8.759   8.273 -1.9605 -2.1513  1.0857
32614SOL     OW 3678   0.865  10.713   4.469 -0.1717  0.0200  0.2930
32614SOL    HW1 3679   0.957  10.687   4.473  0.1997  0.8944 -1.3711
32614SOL    HW2 3680   0.864  10.804   4.500  0.1647  1.2092 -2.7829
32615SOL     OW 3681   4.405   7.504   4.873 -0.0997 -0.1489 -0.1350
32615SOL    HW1 3682   4.314   7.502   4.902  0.6262 -0.6693  2.3621
32615SOL    HW2 3683   4.428   7.412   4.860 -0.5378  0.0583 -3.1954
32616SOL     OW 3684   6.841   6.076   3.021 -0.3550  0.3952  0.4021
32616SOL    HW1 3685   6.886   6.114   3.096  0.1803  0.5206  0.0179
32616SOL    HW2 3686   6.891   5.997   3.001 -1.6361 -0.7255  1.3983
32617SOL     OW 3687  11.115   5.891   6.143  0.3124  0.4211 -0.7358
32617SOL    HW1 3688  11.023   5.866   6.151  0.2973  0.7746  0.4182
32617SOL    HW2 3689  11.130   5.952   6.216  1.2598  0.9736 -1.3629
32618SOL     OW 3690   9.042   3.668   0.834  0.1902 -0.0819 -0.2633
32618SOL    HW1 3691   8.948   3.678   0.820 -0.0177 -0.4504  0.7521
32618SOL    HW2 3692   9.057   3.574   0.830  0.6908  0.0294 -1.3658
32619SOL     OW 3693   3.905  10.363   9.391 -0.0443 -0.3722 -0.3787
32619SOL    HW1 3694   3.909  10.347   9.485  1.2634  0.8480 -0.1921
32619SOL    HW2 3695   3.985  10.412   9.371 -0.2224 -0.7253 -2.1582
32620SOL     OW 3696   1.593   6.291   2.731 -0.2888 -0.0991  0.7626
32620SOL    HW1 3697   1.544   6.245   2.799  0.9119 -1.8439  0.4964
32620SOL    HW2 3698   1.597   6.229   2.658 -0.4500  1.2473 -0.4550
32621SOL     OW 3699   4.236   0.468   9.137  0.4246  0.0846 -0.0405
32621SOL    HW1 3700   4.144   0.442   9.133  0.4565 -0.3127  1.3132
32621SOL    HW2 3701   4.284   0.390   9.108  0.3872 -0.3308  0.9634
32622SOL     OW 3702   4.401  12.151   6.036  0.4642 -0.3552 -0.4792
32622SOL    HW1 3703   4.444  12.146   5.951 -0.1097  0.8500 -0.8711
32622SOL    HW2 3704   4.400  12.245   6.057  1.6412 -0.7282  1.4209
32623SOL     OW 3705  11.582   1.353  10.998  0.2553  0.2605  0.3682
32623SOL    HW1 3706  11.615   1.343  11.088 -0.4881  2.6575  1.0057
32623SOL    HW2 3707  11.512   1.288  10.991  1.6424 -1.3497  0.7779
32624SOL     OW 3708   2.788   6.810  10.951  0.6801  0.3891 -0.0053
32624SOL    HW1 3709   2.733   6.873  10.904  0.5447  1.3213  1.3421
32624SOL    HW2 3710   2.739   6.728  10.948 -0.2709  0.9388  0.2398
32625SOL     OW 3711   5.764  11.470   0.434 -0.1574 -0.2778 -0.3222
32625SOL    HW1 3712   5.727  11.484   0.521  1.1039  0.5864  0.1190
32625SOL    HW2 3713   5.802  11.382   0.438 -1.4009 -0.8389 -0.5138
32626SOL     OW 3714   9.703   7.104  10.717 -0.0459 -0.2714  0.7299
32626SOL    HW1 3715   9.745   7.185  10.747 -0.7858 -0.0343  1.1257
32626SOL    HW2 3716   9.715   7.105  10.622 -3.0760  2.0774  0.2458
32627SOL     OW 3717  10.900   4.831   7.280  0.4481 -0.6592 -0.0582
32627SOL    HW1 3718  10.960   4.769   7.239  0.9379 -1.0252  1.1546
32627SOL    HW2 3719  10.864   4.784   7.355 -0.4015 -0.0056 -0.0347
32628SOL     OW 3720   6.950  11.157   7.744  0.0958  0.0964 -0.3209
32628SOL    HW1 3721   6.858  11.158   7.770 -0.2553 -0.0712 -1.4962
32628SOL    HW2 3722   6.989  11.087   7.796 -0.1818  0.8492  0.9609
32629SOL     OW 3723  10.722   0.092   2.793 -0.2539  0.1149 -0.7401
32629SOL    HW1 3724  10.725   0.186   2.813  0.3356 -0.4549  2.5537
32629SOL    HW2 3725  10.807   0.059   2.824 -0.1640 -1.4296 -2.5039
32630SOL     OW 3726   2.702   9.338   3.092  0.4927 -0.2424  0.3563
32630SOL    HW1 3727   2.614   9.304   3.082  0.2489  0.6863 -0.9039
32630SOL    HW2 3728   2.699   9.388   3.174 -0.6195  1.0934 -0.4564
32631SOL     OW 3729   3.605  11.874   5.868  0.0144 -0.0735 -0.3888
32631SOL    HW1 3730   3.518  11.855   5.903  0.4466 -0.4576  0.5133
32631SOL    HW2 3731   3.602  11.841   5.778 -0.5256 -0.8182 -0.1111
32632SOL     OW 3732  12.313   8.559   5.955  0.1633 -0.5325  0.0424
32632SOL    HW1 3733  12.243   8.575   6.019  1.2091 -0.7517  1.2699
32632SOL    HW2 3734  12.322   8.464   5.953  0.9161 -0.4761  0.4477
32633SOL     OW 3735   0.701   3.260   8.319 -0.2815  0.0900 -0.2582
32633SOL    HW1 3736   0.720   3.285   8.229  0.4659 -0.6110 -0.3065
32633SOL    HW2 3737   0.612   3.292   8.334 -2.4886 -3.9381 -2.8859
32634SOL     OW 3738   0.072   9.774  10.654 -0.4328 -0.1084  0.2095
32634SOL    HW1 3739   0.020   9.845  10.617  0.9792  0.0522 -1.6627
32634SOL    HW2 3740   0.130   9.818  10.717 -0.7612  0.1213  0.3556
32635SOL     OW 3741   8.071   6.325   7.446  0.0151 -0.5097 -0.3460
32635SOL    HW1 3742   8.070   6.368   7.532  1.2353 -0.9358 -0.0960
32635SOL    HW2 3743   7.979   6.312   7.424 -0.3174 -0.0074  0.7092
32636SOL     OW 3744   5.649   8.191  10.285  0.4439 -0.1332  0.2643
32636SOL    HW1 3745   5.741   8.186  10.308  0.9956 -0.3363 -1.7791
32636SOL    HW2 3746   5.646   8.247  10.208 -1.3051  0.8196  0.9543
32637SOL     OW 3747   0.141   0.352   9.892 -0.0486  0.2919  0.9970
32637SOL    HW1 3748   0.199   0.358   9.816 -0.7635  1.1956  0.5082
32637SOL    HW2 3749   0.128   0.442   9.920 -0.8318  0.0601  1.3971
32638SOL     OW 3750  10.165   3.217   8.798 -0.2301  0.1587 -0.8172
32638SOL    HW1 3751  10.185   3.218   8.892 -0.2040  0.4141 -0.8257
32638SOL    HW2 3752  10.127   3.303   8.781  2.5659  1.3217 -1.6555
32639SOL     OW 3753  10.410   2.570   5.094 -0.0166 -0.1089 -0.1928
32639SOL    HW1 3754  10.344   2.628   5.056 -0.6365 -1.3489 -1.0821
32639SOL    HW2 3755  10.421   2.601   5.183 -0.1621  1.5008 -0.7119
32640SOL     OW 3756   4.906   9.339   9.649  0.2034  0.7431  0.9965
32640SOL    HW1 3757   4.953   9.421   9.662 -0.5970  1.1581  1.3441
32640SOL    HW2 3758   4.870   9.317   9.735 -1.5198  1.2473  0.4511
32641SOL     OW 3759   8.776   2.391   1.758 -0.1167 -0.3884  0.0031
32641SOL    HW1 3760   8.777   2.421   1.667  1.1220  0.9202  0.4143
32641SOL    HW2 3761   8.720   2.454   1.803  0.9000  0.1656  0.5112
32642SOL     OW 3762  11.463   9.693   9.991 -0.3152  0.1021  0.0074
32642SOL    HW1 3763  11.497   9.694  10.081 -0.3930 -1.6800  0.0965
32642SOL    HW2 3764  11.371   9.667  10.001 -0.3504  0.0005 -0.5766
32643SOL     OW 3765   3.414   5.482   5.370  0.2719  0.1591 -0.3074
32643SOL    HW1 3766   3.454   5.396   5.355 -0.7884 -0.4173  0.0426
32643SOL    HW2 3767   3.467   5.521   5.439 -0.1185 -0.8604  0.6083
32644SOL     OW 3768   3.202   4.796   8.781  0.1068  0.1915 -0.4134
32644SOL    HW1 3769   3.159   4.794   8.866  0.8549 -0.7864 -0.0457
32644SOL    HW2 3770   3.133   4.770   8.719 -0.2789  0.3217 -0.0464
32645SOL     OW 3771   9.580   3.384   6.980  0.3268 -0.0194 -0.1713
32645SOL    HW1 3772   9.537   3.298   6.976  1.4215 -0.5469 -2.2067
32645SOL    HW2 3773   9.580   3.406   7.073 -1.1595 -1.6097  0.2636
32646SOL     OW 3774   8.975   9.780   5.605  0.1339 -0.0133  0.9523
32646SOL    HW1 3775   8.902   9.723   5.584  0.1737 -0.0802  0.9950
32646SOL    HW2 3776   9.052   9.734   5.570 -0.2511  2.1336 -3.4291
32647SOL     OW 3777   6.147   4.054  11.112  0.5429  0.0026 -0.3358
32647SOL    HW1 3778   6.131   4.055  11.018  0.5117  0.0062 -0.3304
32647SOL    HW2 3779   6.072   4.008  11.149  0.2028  0.6316 -0.2425
32648SOL     OW 3780   7.470   8.408  10.253 -0.5874 -0.6508  0.5973
32648SOL    HW1 3781   7.490   8.415  10.347 -0.5359  0.2346  0.5335
32648SOL    HW2 3782   7.535   8.347  10.219  0.7455  0.6001  0.7756
32649SOL     OW 3783   2.454   0.412   8.572 -0.6801 -0.1335  0.0784
32649SOL    HW1 3784   2.394   0.338   8.564  0.3316 -1.0919  1.0276
32649SOL    HW2 3785   2.428   0.455   8.654 -1.9902  1.2800 -1.0214
32650SOL     OW 3786   8.581   6.334   0.898 -0.3995 -0.7203 -0.6352
32650SOL    HW1 3787   8.520   6.401   0.866 -1.6206 -1.3234  0.3516
32650SOL    HW2 3788   8.549   6.252   0.861  0.0335 -0.9996 -0.4048
32651SOL     OW 3789  10.532   9.195   8.603 -0.2088 -0.4485 -0.1063
32651SOL    HW1 3790  10.608   9.177   8.548 -0.1314 -0.3961 -0.0179
32651SOL    HW2 3791  10.457   9.196   8.543 -0.2034 -0.9860 -0.1253
32652SOL     OW 3792   1.141   8.326   8.413 -0.0848  0.2626  0.0629
32652SOL    HW1 3793   1.114   8.412   8.379 -0.7572  0.8739  2.0168
32652SOL    HW2 3794   1.068   8.298   8.467  1.1055 -0.4391  1.3541
32653SOL     OW 3795   2.399   0.236  12.117 -0.2589  0.2288  0.1596
32653SOL    HW1 3796   2.351   0.298  12.172  1.9335  0.4922  1.9131
32653SOL    HW2 3797   2.349   0.155  12.124 -0.9113  0.7002  1.2667
32654SOL     OW 3798   3.263   0.274  11.371  0.2950  0.3090  0.4558
32654SOL    HW1 3799   3.248   0.341  11.304 -1.9329 -1.4643 -0.9822
32654SOL    HW2 3800   3.188   0.282  11.431  0.7114 -0.0327  1.0346
32655SOL     OW 3801   3.260   0.700   2.095 -0.4179 -0.2031 -0.9164
32655SOL    HW1 3802   3.249   0.611   2.130 -1.3384 -0.6180 -2.2106
32655SOL    HW2 3803   3.301   0.748   2.167 -3.3898 -0.6796  1.2796
32656SOL     OW 3804   4.893   4.852   4.006  0.1886 -0.4646  0.1463
32656SOL    HW1 3805   4.903   4.784   4.073  0.1378 -1.2277 -0.5953
32656SOL    HW2 3806   4.815   4.901   4.033 -0.0139 -0.9573  0.4877
32657SOL     OW 3807   7.371   6.423   2.521  0.6959  0.0527  0.1863
32657SOL    HW1 3808   7.350   6.338   2.560 -0.7978  0.6385  0.7265
32657SOL    HW2 3809   7.312   6.485   2.564 -0.0655  0.9644 -2.0462
32658SOL     OW 3810   3.548   7.222   1.985 -0.5169 -0.3236  0.2179
32658SOL    HW1 3811   3.611   7.205   1.915  0.0399 -0.7903  0.8077
32658SOL    HW2 3812   3.580   7.301   2.027 -0.5384 -0.3505  0.2854
32659SOL     OW 3813   4.070   9.938   1.760 -0.0543 -0.1307 -0.6810
32659SOL    HW1 3814   4.045   9.975   1.675 -1.5506 -1.3699 -0.8280
32659SOL    HW2 3815   4.011   9.979   1.822 -0.1384 -0.5349 -0.4957
32660SOL     OW 3816   4.604  11.508   6.329 -0.1791 -0.0131  0.1347
32660SOL    HW1 3817   4.538  11.441   6.350  1.4888 -2.7052 -2.3777
32660SOL    HW2 3818   4.577  11.541   6.243 -1.1389  2.9532  1.4613
32661SOL     OW 3819   5.482  11.827   2.801 -0.3180 -0.7175  0.0121
32661SOL    HW1 3820   5.458  11.764   2.732  1.4439 -0.2794 -1.0451
32661SOL    HW2 3821   5.534  11.893   2.756 -0.7934  0.6636  1.4256
32662SOL     OW 3822   7.971  11.479   3.554 -0.2667 -0.7163 -0.2020
32662SOL    HW1 3823   7.968  11.390   3.519 -0.5059 -0.7266 -0.1537
32662SOL    HW2 3824   7.923  11.532   3.491 -0.9502 -0.7856  0.2545
32663SOL     OW 3825   4.787  11.308   0.561 -0.2415 -0.9359 -0.5275
32663SOL    HW1 3826   4.783  11.214   0.578 -0.2254 -1.1352 -1.6024
32663SOL    HW2 3827   4.814  11.316   0.470 -0.9462  0.1027 -0.6650
32664SOL     OW 3828   8.786   4.539   7.239 -0.3242 -0.0471 -0.2060
32664SOL    HW1 3829   8.769   4.626   7.277  0.3415  0.1469 -0.3478
32664SOL    HW2 3830   8.825   4.557   7.154  1.0394 -0.4868  0.3109
32665SOL     OW 3831   9.760   3.518   8.079 -0.2081  0.0043 -0.1417
32665SOL    HW1 3832   9.847   3.480   8.093 -0.4703 -0.6050 -0.1001
32665SOL    HW2 3833   9.709   3.447   8.040 -0.4368  0.6432 -1.0261
32666SOL     OW 3834   1.312   4.682   6.730 -0.1336  0.0029  0.0393
32666SOL    HW1 3835   1.302   4.775   6.710  0.2188  0.5575  2.1229
32666SOL    HW2 3836   1.306   4.678   6.826  0.6895 -2.0151  0.0572
32667SOL     OW 3837   7.843   1.009   9.066  0.1128  0.1762 -0.3194
32667SOL    HW1 3838   7.761   1.054   9.087  0.6265  0.4402  1.3174
32667SOL    HW2 3839   7.819   0.917   9.061 -0.1470  0.1299  1.1752
32668SOL     OW 3840   3.769   2.992  11.853 -0.5317 -0.2652  0.4918
32668SOL    HW1 3841   3.826   3.015  11.780 -1.9548 -1.7541 -1.1862
32668SOL    HW2 3842   3.826   2.944  11.913  0.5586  0.5810  0.1725
32669SOL     OW 3843  12.330   3.966   5.710 -0.2282 -0.0847  0.6484
32669SOL    HW1 3844  12.354   3.874   5.698  0.1581 -0.1751  1.9709
32669SOL    HW2 3845  12.336   4.004   5.622  1.2363 -0.9375  0.3530
32670SOL     OW 3846   8.628   4.302   0.019 -0.1118  0.2063 -0.1043
32670SOL    HW1 3847   8.674   4.239   0.076  1.0859 -0.5995 -1.8816
32670SOL    HW2 3848   8.674   4.385   0.033  1.7329 -0.5135 -1.5925
32671SOL     OW 3849   2.556   0.508   2.176 -0.3179  1.0570 -0.4214
32671SOL    HW1 3850   2.596   0.581   2.129  0.4330  0.5889 -0.5283
32671SOL    HW2 3851   2.630   0.454   2.204 -0.9218 -1.0525 -2.5894
32672SOL     OW 3852  10.521   6.940   0.840  0.1504 -0.5751  0.0238
32672SOL    HW1 3853  10.482   6.855   0.819 -1.4442  0.4339 -1.3914
32672SOL    HW2 3854  10.583   6.955   0.769  0.2506 -0.4553  0.1381
32673SOL     OW 3855  12.038   9.574   2.025 -0.6440 -0.3166  0.2303
32673SOL    HW1 3856  12.104   9.507   2.007 -1.7837 -1.7742  1.2683
32673SOL    HW2 3857  12.047   9.636   1.953  0.8093 -1.2982 -0.4829
32674SOL     OW 3858  10.663   2.001   1.975 -0.2623  0.1046 -0.4505
32674SOL    HW1 3859  10.664   1.951   1.893 -0.2709  1.6206 -1.4114
32674SOL    HW2 3860  10.570   2.015   1.993 -0.2698 -0.4675 -0.0108
32675SOL     OW 3861   8.717   8.074   6.911  0.5522  0.5502  0.6271
32675SOL    HW1 3862   8.804   8.036   6.919  0.4255  0.2299  0.5012
32675SOL    HW2 3863   8.680   8.033   6.833  0.2912  0.6895  0.6769
32676SOL     OW 3864   8.620  11.386   9.061 -0.4410  0.4130 -0.6164
32676SOL    HW1 3865   8.587  11.476   9.067  0.1755  0.7404 -1.8635
32676SOL    HW2 3866   8.715  11.395   9.054 -0.2615 -0.4104  0.4327
32677SOL     OW 3867   0.441   6.009   3.442 -0.3941 -0.2265 -0.3791
32677SOL    HW1 3868   0.450   5.924   3.484  1.8787 -0.4718 -1.2173
32677SOL    HW2 3869   0.441   6.072   3.515 -0.7721 -0.8636  0.1764
32678SOL     OW 3870  10.881  11.002   7.675 -0.6103  0.3041 -0.4777
32678SOL    HW1 3871  10.900  11.022   7.767 -0.9436  1.2820 -0.6097
32678SOL    HW2 3872  10.958  10.954   7.645 -1.0029 -1.0714  0.6209
32679SOL     OW 3873   2.104   7.943   1.069  0.2981  0.0513  0.3474
32679SOL    HW1 3874   2.127   8.033   1.093 -0.2342 -0.5483  3.6462
32679SOL    HW2 3875   2.010   7.936   1.088  0.2368 -1.0951 -0.2599
32680SOL     OW 3876   9.829   5.474   9.272 -0.2939 -0.0985 -0.5157
32680SOL    HW1 3877   9.805   5.440   9.186 -1.6890 -1.3746  0.3353
32680SOL    HW2 3878   9.892   5.410   9.307 -0.1228  0.1462 -0.3680
32681SOL     OW 3879   2.610   6.731   1.234  0.4014  0.3063 -0.7082
32681SOL    HW1 3880   2.666   6.741   1.311 -0.4263  0.6611 -0.1364
32681SOL    HW2 3881   2.657   6.776   1.164  2.0069 -1.5101 -0.8822
32682SOL     OW 3882   8.268   7.155   5.540 -0.3723  0.0278  0.7321
32682SOL    HW1 3883   8.191   7.098   5.544 -0.6689  0.4044  0.4638
32682SOL    HW2 3884   8.325   7.123   5.610  1.0133 -2.8177 -1.4760
32683SOL     OW 3885   1.370  12.235   9.266 -0.3787  0.1392 -0.5300
32683SOL    HW1 3886   1.371  12.331   9.266  0.0919  0.1422  0.1114
32683SOL    HW2 3887   1.329  12.211   9.349 -0.1227 -0.2127 -0.5031
32684SOL     OW 3888  11.854  10.295   1.340  0.4396  0.2121  0.3959
32684SOL    HW1 3889  11.859  10.225   1.405  1.4861 -1.7234 -1.6273
32684SOL    HW2 3890  11.941  10.299   1.302  0.3008  2.4196  0.2034
32685SOL     OW 3891   7.178   1.166  10.341 -0.4693 -0.0602  0.5311
32685SOL    HW1 3892   7.106   1.178  10.279 -0.5400 -0.3920  0.5428
32685SOL    HW2 3893   7.154   1.221  10.416  0.4360  1.6391 -0.3869
32686SOL     OW 3894   9.394   7.290   7.851 -0.5582 -0.4562  0.2617
32686SOL    HW1 3895   9.361   7.208   7.815 -1.6803  0.8631 -1.9322
32686SOL    HW2 3896   9.460   7.318   7.788 -1.0943  0.9200  0.2849
32687SOL     OW 3897   8.169   5.527   4.956 -0.2714  0.0323  0.1542
32687SOL    HW1 3898   8.083   5.562   4.979 -0.4781 -1.5762  2.0846
32687SOL    HW2 3899   8.182   5.453   5.015  2.6090  0.4205  0.1622
32688SOL     OW 3900   3.306  11.694   8.419 -0.4056  0.0226 -0.1430
32688SOL    HW1 3901   3.356  11.753   8.475 -1.1367 -0.9178  1.5799
32688SOL    HW2 3902   3.217  11.700   8.452 -0.5890 -1.6526 -0.2508
32689SOL     OW 3903   3.200   8.742   2.814 -0.5752  0.9050 -0.6015
32689SOL    HW1 3904   3.283   8.785   2.831 -0.3364  0.2377 -0.0915
32689SOL    HW2 3905   3.219   8.678   2.745 -0.1390 -0.8709  1.1058
32690SOL     OW 3906   2.101   9.456   3.010 -0.2499  0.4516  0.6726
32690SOL    HW1 3907   2.093   9.550   2.992 -2.2403  0.4358  1.1680
32690SOL    HW2 3908   2.013   9.422   2.992  0.6545 -1.4902 -0.3252
32691SOL     OW 3909   0.351   5.159   1.581  0.7414  0.0226 -0.2343
32691SOL    HW1 3910   0.258   5.171   1.562  0.7783  0.6473 -0.0474
32691SOL    HW2 3911   0.367   5.065   1.568  0.0446 -0.1195 -0.0587
32692SOL     OW 3912   9.221   9.127   3.782  0.3272 -0.4303  0.2907
32692SOL    HW1 3913   9.256   9.133   3.871 -0.2380 -1.2514  0.5769
32692SOL    HW2 3914   9.277   9.063   3.738  0.6800  0.0618  0.0139
32693SOL     OW 3915   2.526   2.511   4.560 -0.3264 -0.3471  0.3605
32693SOL    HW1 3916   2.583   2.584   4.537 -0.1534 -0.3848  0.6648
32693SOL    HW2 3917   2.469   2.545   4.629 -1.9763  0.2763 -1.2475
32694SOL     OW 3918   1.749   8.192  11.695  0.5538 -0.2090  0.3395
32694SOL    HW1 3919   1.821   8.132  11.677 -0.3078 -1.2537  0.2878
32694SOL    HW2 3920   1.682   8.170  11.630  0.6572  1.5961 -0.4320
32695SOL     OW 3921   4.155   4.554   6.822 -0.0861  0.7509  0.6379
32695SOL    HW1 3922   4.197   4.546   6.736 -0.1324  0.6312  0.6254
32695SOL    HW2 3923   4.099   4.476   6.828 -1.2746  1.5426  0.1321
32696SOL     OW 3924   5.128   7.016   4.471 -0.2872  0.6876  0.2582
32696SOL    HW1 3925   5.155   7.099   4.432 -0.5760 -0.1095 -1.7478
32696SOL    HW2 3926   5.195   6.997   4.536  0.5337  1.8295 -0.2250
32697SOL     OW 3927   8.002   2.860  12.326 -0.1643 -1.0237 -0.0269
32697SOL    HW1 3928   8.098   2.861  12.331  0.0024  2.1359 -1.1006
32697SOL    HW2 3929   7.973   2.877  12.416  0.4097  0.0556 -0.0282
32698SOL     OW 3930   9.853   3.041   7.671  0.1060  0.1217 -0.2420
32698SOL    HW1 3931   9.776   2.989   7.650  0.8288 -0.1956 -2.3080
32698SOL    HW2 3932   9.927   2.987   7.644  1.0946  0.4418  1.6234
32699SOL     OW 3933   1.217   3.160   4.824  0.2264 -0.2807 -0.0945
32699SOL    HW1 3934   1.234   3.159   4.919  0.9767  1.1197 -0.1864
32699SOL    HW2 3935   1.303   3.145   4.784  0.5223  2.0896 -0.5299
32700SOL     OW 3936   3.508   0.553   4.902 -0.2239 -0.3828  0.6761
32700SOL    HW1 3937   3.524   0.647   4.888 -1.0598 -0.4116 -0.6742
32700SOL    HW2 3938   3.586   0.523   4.948 -0.1196  1.0499  1.5042
32701SOL     OW 3939   1.966   1.827  10.340 -0.2067 -0.1832 -0.2012
32701SOL    HW1 3940   1.879   1.828  10.301 -0.0869  0.7561 -0.4850
32701SOL    HW2 3941   2.025   1.807  10.267 -0.2013 -1.0377  0.0342
32702SOL     OW 3942   1.492   1.533   6.691  1.0264 -0.3645  0.0506
32702SOL    HW1 3943   1.447   1.466   6.741  0.9660 -0.1253  0.3212
32702SOL    HW2 3944   1.445   1.614   6.711  0.4036 -0.4058 -1.1377
32703SOL     OW 3945   4.433   2.757   0.572  0.0035 -0.1809 -0.4037
32703SOL    HW1 3946   4.526   2.759   0.551  0.2510  0.4020  0.6787
32703SOL    HW2 3947   4.409   2.849   0.585 -0.9502 -0.2401 -1.5732
32704SOL     OW 3948   9.344   5.939   4.560 -0.2409  0.4915  0.0073
32704SOL    HW1 3949   9.430   5.925   4.521  0.1638  0.6378  0.8340
32704SOL    HW2 3950   9.315   6.024   4.527  0.6224  1.1683  0.9527
32705SOL     OW 3951   0.843   2.583   7.887  0.1999 -0.1259  1.1819
32705SOL    HW1 3952   0.809   2.544   7.968  0.9233 -0.3204  1.4033
32705SOL    HW2 3953   0.775   2.643   7.858 -0.1356 -0.1761  1.8524
32706SOL     OW 3954   5.997   4.537   3.023  0.0379 -0.3178  0.4611
32706SOL    HW1 3955   5.985   4.443   3.032 -0.9785 -0.1441  1.0525
32706SOL    HW2 3956   6.018   4.567   3.112 -2.0170  0.3205  0.7804
32707SOL     OW 3957   3.746  11.931   7.649 -0.1387  0.2584  0.3460
32707SOL    HW1 3958   3.731  12.016   7.689 -0.6858  0.5089 -0.3705
32707SOL    HW2 3959   3.816  11.947   7.585 -1.2623  0.5157 -0.8490
32708SOL     OW 3960   5.372   9.509   0.730 -0.2029  1.3053 -0.5750
32708SOL    HW1 3961   5.435   9.462   0.785  0.7880  2.4671 -0.6659
32708SOL    HW2 3962   5.291   9.508   0.780  0.8423  2.9700  1.3538
32709SOL     OW 3963   1.733   0.215  11.810  0.0979 -0.0533 -0.3082
32709SOL    HW1 3964   1.791   0.166  11.752  0.1675 -1.0323  0.5574
32709SOL    HW2 3965   1.790   0.246  11.881 -0.3059 -0.4360  0.1896
32710SOL     OW 3966   0.961   9.246   8.246 -0.1834 -0.1404 -0.2230
32710SOL    HW1 3967   0.903   9.259   8.171 -1.9814 -0.5598  1.0031
32710SOL    HW2 3968   1.023   9.179   8.218  0.1679  0.8215 -1.8244
32711SOL     OW 3969   2.142   0.199  11.960  0.6033 -0.3443  0.1260
32711SOL    HW1 3970   2.181   0.112  11.955 -2.1278 -1.6227 -1.2345
32711SOL    HW2 3971   2.178   0.245  11.885  2.0959 -0.2160  0.8722
32712SOL     OW 3972  12.155   1.190   0.835  0.0258  0.2039 -0.3578
32712SOL    HW1 3973  12.181   1.214   0.746  1.1998  3.8435  0.7863
32712SOL    HW2 3974  12.060   1.194   0.835 -0.0424 -0.8852 -1.6639
32713SOL     OW 3975  10.498   8.307   4.298 -0.3344  0.3936 -0.1319
32713SOL    HW1 3976  10.439   8.382   4.293 -0.2941  0.5147  0.9091
32713SOL    HW2 3977  10.497   8.282   4.390  0.1562 -0.4835 -0.3521
32714SOL     OW 3978   7.232   2.614   1.126  0.1495 -0.0925 -0.0894
32714SOL    HW1 3979   7.231   2.697   1.173  1.0228 -0.8866  1.4256
32714SOL    HW2 3980   7.324   2.588   1.126 -0.1441 -1.1832 -0.3256
32715SOL     OW 3981   2.193   5.323   4.572  0.3708 -0.3470  0.0842
32715SOL    HW1 3982   2.181   5.255   4.638 -0.3460 -0.9571 -0.6611
32715SOL    HW2 3983   2.248   5.389   4.615 -0.2348 -0.6464  1.3464
32716SOL     OW 3984   4.604   5.596   7.571 -0.4778  0.2914 -0.3916
32716SOL    HW1 3985   4.596   5.579   7.665 -0.2753  1.9712 -0.0360
32716SOL    HW2 3986   4.521   5.637   7.548 -0.7046 -0.5210 -1.0600
32717SOL     OW 3987   3.153   5.104   5.657  0.5283  0.1367  0.2357
32717SOL    HW1 3988   3.190   5.167   5.596  2.4803 -0.9988  0.1524
32717SOL    HW2 3989   3.074   5.072   5.614 -0.0747  1.9274 -0.0516
32718SOL     OW 3990   5.098   0.391   2.408 -0.1173 -0.2574 -0.1096
32718SOL    HW1 3991   5.092   0.356   2.319 -0.3341  1.4257 -0.8092
32718SOL    HW2 3992   5.007   0.405   2.434 -0.0285  0.1088  0.0063
32719SOL     OW 3993   4.354  10.166   3.491 -0.2767  0.1011  0.2421
32719SOL    HW1 3994   4.301  10.095   3.526  0.1352 -1.3014 -1.7825
32719SOL    HW2 3995   4.443  10.131   3.488  0.3438  1.4978  1.1796
32720SOL     OW 3996   5.418   8.681  11.045  0.2581  0.0121 -0.3812
32720SOL    HW1 3997   5.402   8.684  10.950 -0.3128  0.1371 -0.2862
32720SOL    HW2 3998   5.467   8.760  11.064  0.7906 -0.2538 -0.6479
32721SOL     OW 3999   9.327   8.408   8.388  0.1427 -0.0363 -0.6350
32721SOL    HW1 4000   9.297   8.420   8.478  0.3583 -0.1516 -0.5477
32721SOL    HW2 4001   9.386   8.482   8.373 -2.1176  1.7036 -1.6598
32722SOL     OW 4002   1.316   9.268   3.362  0.2075  0.2443  0.4174
32722SOL    HW1 4003   1.283   9.344   3.410 -1.5511 -0.2939  0.1368
32722SOL    HW2 4004   1.401   9.296   3.328 -0.3407  2.0414  0.4182
32723SOL     OW 4005   4.151   5.389   1.570  0.2420 -0.1763 -0.0942
32723SOL    HW1 4006   4.145   5.295   1.586 -0.5964 -0.0508  0.4112
32723SOL    HW2 4007   4.237   5.402   1.531  0.5528 -1.0881  0.2759
32724SOL     OW 4008   1.609  11.056   1.863  0.1913 -0.7993 -0.4722
32724SOL    HW1 4009   1.592  11.097   1.948  0.2760 -1.8583  0.0782
32724SOL    HW2 4010   1.538  11.087   1.807 -0.2770 -0.6492  0.1881
32725SOL     OW 4011   0.099   7.201   0.216 -0.6301 -0.4213 -0.0162
32725SOL    HW1 4012   0.192   7.196   0.236 -0.7518 -1.0684  0.4340
32725SOL    HW2 4013   0.095   7.225   0.124 -0.0285  0.5057  0.1876
32726SOL     OW 4014  11.905  10.106  10.089 -0.1347  0.2531 -0.4029
32726SOL    HW1 4015  11.982  10.144  10.047  0.0530  0.2987 -0.0204
32726SOL    HW2 4016  11.914  10.128  10.182  0.9480 -2.2173  0.1848
32727SOL     OW 4017   2.064   2.506   9.803  0.5789  0.0226  0.3129
32727SOL    HW1 4018   2.074   2.483   9.711  1.2743  0.0994  0.3606
32727SOL    HW2 4019   1.982   2.555   9.807 -0.3031 -1.3687  0.0070
32728SOL     OW 4020   9.477   1.707   6.262  0.6748  0.1251  0.1818
32728SOL    HW1 4021   9.480   1.777   6.196 -1.3938  0.6130  0.5049
32728SOL    HW2 4022   9.443   1.631   6.215 -1.4466  0.6530  0.7158
32729SOL     OW 4023   7.465   5.453   4.552 -0.2084 -0.7814  0.2876
32729SOL    HW1 4024   7.475   5.364   4.584 -0.0353 -0.6074  0.7178
32729SOL    HW2 4025   7.375   5.477   4.576 -0.7968 -1.3776 -1.1870
32730SOL     OW 4026   3.032  11.413   6.645 -0.1313 -0.0505  0.0783
32730SOL    HW1 4027   3.035  11.350   6.717  0.3152  0.1180  0.2076
32730SOL    HW2 4028   3.015  11.497   6.686  1.6423  0.3016  0.1655
32731SOL     OW 4029   8.590   3.182  11.889 -0.0996 -0.3997 -0.2723
32731SOL    HW1 4030   8.595   3.268  11.846  1.4641 -1.1175 -1.6573
32731SOL    HW2 4031   8.505   3.147  11.863 -0.1926  0.1928 -0.7924
32732SOL     OW 4032  10.585   3.065  10.072 -0.3322 -0.0864  0.8292
32732SOL    HW1 4033  10.582   3.160  10.087 -0.5752 -0.0435  0.5425
32732SOL    HW2 4034  10.594   3.057   9.977 -2.4726 -0.3518  0.5977
32733SOL     OW 4035  11.274   3.173   7.816  0.0006 -0.1891 -0.3846
32733SOL    HW1 4036  11.216   3.100   7.839  0.4854 -0.2696  0.6445
32733SOL    HW2 4037  11.300   3.156   7.726 -0.4586 -0.9017 -0.3917
32734SOL     OW 4038   9.728   9.327   4.949 -0.0499 -0.6162  0.2684
32734SOL    HW1 4039   9.645   9.369   4.971  1.4660  3.4269 -0.7752
32734SOL    HW2 4040   9.787   9.350   5.021  0.9572 -0.6044 -0.5287
32735SOL     OW 4041   1.684   9.638   1.127  0.4694  0.1088  0.1908
32735SOL    HW1 4042   1.725   9.696   1.064  0.3364 -1.5106 -1.4861
32735SOL    HW2 4043   1.757   9.593   1.170  0.5442 -0.5921 -0.6381
32736SOL     OW 4044   9.361   2.220   8.305 -0.1555  0.4998  0.0338
32736SOL    HW1 4045   9.423   2.149   8.285 -0.0996  0.6831 -0.4436
32736SOL    HW2 4046   9.287   2.176   8.347 -0.8721 -0.0915 -1.7441
32737SOL     OW 4047   6.822   0.033   4.559  0.4650 -0.7607  0.3713
32737SOL    HW1 4048   6.870  -0.013   4.490 -1.7656 -1.3335 -0.8874
32737SOL    HW2 4049   6.890   0.069   4.616  2.3688 -1.1652 -1.5440
32738SOL     OW 4050   4.985   3.980   4.827 -0.0914 -0.1001  0.2084
32738SOL    HW1 4051   4.922   4.031   4.878  0.6883  0.5830  0.4910
32738SOL    HW2 4052   5.044   3.942   4.892  0.0086 -0.4605 -0.0846
32739SOL     OW 4053   3.385   9.011   3.845  0.1283  0.3632 -0.4094
32739SOL    HW1 4054   3.475   9.024   3.817  0.7363  0.6599  1.5768
32739SOL    HW2 4055   3.390   8.946   3.915 -0.7383  2.6823  1.9675
32740SOL     OW 4056   0.845   9.580   7.244  0.2870 -0.2362 -0.1602
32740SOL    HW1 4057   0.933   9.593   7.209  0.0656 -0.5189 -0.8533
32740SOL    HW2 4058   0.787   9.591   7.168 -0.2696 -0.1229  0.2729
32741SOL     OW 4059   6.303   0.838   7.598  0.1179 -0.3379  0.7478
32741SOL    HW1 4060   6.230   0.791   7.559  1.4093  0.2490 -2.7730
32741SOL    HW2 4061   6.279   0.849   7.690 -2.7719 -2.7764  0.4272
32742SOL     OW 4062   1.689   5.732   2.238 -0.6093  0.0598  0.4076
32742SOL    HW1 4063   1.687   5.723   2.142 -0.9897 -0.6636  0.4746
32742SOL    HW2 4064   1.728   5.818   2.253 -0.9489  0.3710 -0.4116
32743SOL     OW 4065   4.337   6.919   0.821 -0.6491 -0.1173 -0.3692
32743SOL    HW1 4066   4.311   6.844   0.767 -1.3591  0.5218 -0.9267
32743SOL    HW2 4067   4.265   6.930   0.883  0.1030 -0.7648  0.6535
32744SOL     OW 4068  11.576   9.272   1.399 -0.4812  0.6988 -0.7149
32744SOL    HW1 4069  11.493   9.304   1.364 -2.1209 -1.6445  0.7367
32744SOL    HW2 4070  11.553   9.192   1.447  2.3241  0.9909  1.3987
32745SOL     OW 4071   8.223   7.979  11.577  0.2191 -0.0005  0.4063
32745SOL    HW1 4072   8.132   7.970  11.606  0.8035  1.1211  2.7969
32745SOL    HW2 4073   8.230   8.069  11.545  0.3294 -0.3127 -0.4831
32746SOL     OW 4074   9.012   0.960   0.773  0.5281 -0.2932  0.0271
32746SOL    HW1 4075   9.105   0.948   0.791  0.6394  0.8673  0.3523
32746SOL    HW2 4076   9.008   0.978   0.679  0.7691  0.6788  0.1870
32747SOL     OW 4077   5.903   0.855   6.311  0.1012 -1.3949  0.3914
32747SOL    HW1 4078   5.959   0.813   6.245  0.8048 -0.7982  0.5893
32747SOL    HW2 4079   5.832   0.894   6.261  0.5530 -1.0709 -0.0136
32748SOL     OW 4080   5.614   5.267   9.078  0.0041  0.4810  0.2210
32748SOL    HW1 4081   5.677   5.201   9.049  0.9041  0.5108  2.0049
32748SOL    HW2 4082   5.572   5.229   9.155 -0.9666  1.1644  0.0527
32749SOL     OW 4083   7.153   1.641   1.738  0.0689  0.0616 -0.1303
32749SOL    HW1 4084   7.175   1.660   1.647 -0.7382 -0.2768 -0.3993
32749SOL    HW2 4085   7.074   1.692   1.755  0.5064  0.5277  0.5439
32750SOL     OW 4086   3.689   0.645  10.247 -0.0070  0.1306  0.4652
32750SOL    HW1 4087   3.659   0.580  10.184 -1.0619  2.4693 -1.6043
32750SOL    HW2 4088   3.783   0.651  10.233 -0.0661 -0.1866 -0.0652
32751SOL     OW 4089   8.231   3.282  10.956 -0.7369 -0.1333 -0.5724
32751SOL    HW1 4090   8.166   3.237  11.011  0.1548 -1.8579 -0.8624
32751SOL    HW2 4091   8.313   3.274  11.004 -0.4992  0.9704 -0.7741
32752SOL     OW 4092   0.180  10.151   0.212  0.2620  0.4862  0.2224
32752SOL    HW1 4093   0.111  10.151   0.278  0.4546  0.5285  0.4266
32752SOL    HW2 4094   0.192  10.243   0.191 -1.4787  0.3471 -1.6616
32753SOL     OW 4095   3.740   6.288   5.899 -0.2370  0.4367 -0.0040
32753SOL    HW1 4096   3.709   6.307   5.987 -0.2827  0.7895 -0.0926
32753SOL    HW2 4097   3.784   6.204   5.906  0.0113  0.5994  0.4189
32754SOL     OW 4098   7.922   4.847   0.712  0.1462 -0.2842  0.5556
32754SOL    HW1 4099   8.010   4.885   0.701 -0.3396  0.8156  0.2619
32754SOL    HW2 4100   7.894   4.877   0.798  0.2979 -1.1529  0.9088
32755SOL     OW 4101   6.498   0.771   5.436 -0.0018  0.4160 -0.0644
32755SOL    HW1 4102   6.550   0.832   5.383 -1.4433  1.5888 -0.1976
32755SOL    HW2 4103   6.417   0.760   5.388 -0.8413  0.5228  1.2745
32756SOL     OW 4104   1.851   1.257   2.484 -0.4371 -0.5587 -0.3464
32756SOL    HW1 4105   1.901   1.202   2.544 -1.6752  0.5516  1.8069
32756SOL    HW2 4106   1.911   1.273   2.411  1.3403 -1.4658  0.8431
32757SOL     OW 4107   2.516   2.524   8.666 -0.7615  0.2131  0.6389
32757SOL    HW1 4108   2.437   2.577   8.654 -1.8701 -1.3216  0.8893
32757SOL    HW2 4109   2.559   2.524   8.580 -0.3447  2.0451  0.7987
32758SOL     OW 4110   9.052   7.566   4.928  0.7841  0.4730  0.0521
32758SOL    HW1 4111   9.066   7.656   4.958  1.3266  0.6141 -0.5888
32758SOL    HW2 4112   9.018   7.575   4.839 -1.7193  0.0745  0.9153
32759SOL     OW 4113   1.496   1.252  11.049 -0.2704 -0.4356 -0.4268
32759SOL    HW1 4114   1.450   1.324  11.005  0.3235  0.9061  1.0471
32759SOL    HW2 4115   1.585   1.285  11.063  0.7463 -2.4015 -1.8328
32760SOL     OW 4116   1.421   5.371   7.125 -1.3513 -0.1922 -0.0626
32760SOL    HW1 4117   1.378   5.388   7.042 -2.6290 -0.2288  0.5620
32760SOL    HW2 4118   1.359   5.316   7.173 -0.3711 -0.6824  0.6781
32761SOL     OW 4119   1.973   9.731   9.464  0.0960 -0.1158 -0.0795
32761SOL    HW1 4120   1.944   9.820   9.443 -0.2963 -0.1457  0.3128
32761SOL    HW2 4121   1.930   9.676   9.398  0.0764 -0.0455 -0.1252
32762SOL     OW 4122   5.022   3.361  10.937 -0.0781 -0.2056  0.2718
32762SOL    HW1 4123   5.095   3.397  10.886  0.2471 -0.5828  0.4653
32762SOL    HW2 4124   5.011   3.272  10.903 -1.8546  0.5239 -1.2476
32763SOL     OW 4125   3.366   7.010   8.951  0.3440  0.1764 -0.5870
32763SOL    HW1 4126   3.403   7.027   8.864  0.7267 -2.7179 -1.0916
32763SOL    HW2 4127   3.434   6.962   8.997 -0.0291  1.2792  1.2065
32764SOL     OW 4128  10.052  12.127   6.653 -0.0264  0.0815  0.4512
32764SOL    HW1 4129  10.076  12.093   6.739 -0.0801  0.5354  0.6509
32764SOL    HW2 4130  10.097  12.070   6.591  0.0507 -0.2197  0.7823
32765SOL     OW 4131   3.393   6.520   5.404 -0.5189  0.1632  0.0863
32765SOL    HW1 4132   3.395   6.599   5.460 -0.9725  1.2859 -1.4188
32765SOL    HW2 4133   3.309   6.525   5.358  0.8155  0.6082 -2.4879
32766SOL     OW 4134   2.031   3.952   1.374 -0.2150 -0.3753 -0.2722
32766SOL    HW1 4135   2.057   3.888   1.308  0.3429 -0.3452 -0.0902
32766SOL    HW2 4136   2.101   3.949   1.439 -0.0825  0.5610 -0.3591
32767SOL     OW 4137   9.212   3.800  11.922 -0.7613  0.8136  0.0450
32767SOL    HW1 4138   9.204   3.727  11.983  2.8652  0.8149  0.7457
32767SOL    HW2 4139   9.215   3.760  11.835 -0.0811  0.2388  0.3304
32768SOL     OW 4140  11.751   4.781   1.210  0.3353 -0.4585  0.4365
32768SOL    HW1 4141  11.657   4.796   1.207  0.4845  0.8345  1.4773
32768SOL    HW2 4142  11.775   4.794   1.301  1.5534 -0.6125  0.1600
32769SOL     OW 4143   2.596   8.476   6.132 -0.1573  0.1121 -0.1627
32769SOL    HW1 4144   2.596   8.570   6.116 -1.6150  0.0747 -0.5375
32769SOL    HW2 4145   2.510   8.446   6.102  1.1193 -1.7453 -2.2923
32770SOL     OW 4146  11.725   2.768   6.671 -0.1615 -0.2544 -0.1204
32770SOL    HW1 4147  11.653   2.758   6.609  1.6194 -0.6322 -2.2610
32770SOL    HW2 4148  11.740   2.862   6.675 -0.0099 -0.2591 -0.5897
32771SOL     OW 4149   6.395   1.799   5.235  0.2311 -0.0831  0.3726
32771SOL    HW1 4150   6.383   1.785   5.141  1.2964 -1.4558  0.4072
32771SOL    HW2 4151   6.308   1.824   5.267 -0.1555  0.3627 -0.9606
32772SOL     OW 4152   9.759   4.525  11.372 -0.8081 -0.0527 -0.0315
32772SOL    HW1 4153   9.689   4.559  11.316 -1.6427 -1.4235  0.1327
32772SOL    HW2 4154   9.839   4.569  11.340 -1.6395  1.1201 -0.5780
32773SOL     OW 4155   6.172   9.690   4.682 -0.7768 -0.5248 -0.7648
32773SOL    HW1 4156   6.215   9.749   4.620  0.7982 -0.1873  0.5434
32773SOL    HW2 4157   6.082   9.722   4.688  0.1436  2.1746  0.3010
32774SOL     OW 4158   5.102   7.112  10.194  0.4986  0.5930 -0.1576
32774SOL    HW1 4159   5.132   7.034  10.242 -0.8404  2.2680  3.7911
32774SOL    HW2 4160   5.007   7.104  10.193  0.4007  1.7213 -0.5655
32775SOL     OW 4161   7.834   1.805   5.531  0.0582 -0.7509  0.2150
32775SOL    HW1 4162   7.886   1.866   5.583 -0.5664  0.8052 -0.9393
32775SOL    HW2 4163   7.747   1.807   5.571  0.1259 -1.1801  0.3939
32776SOL     OW 4164   1.430   6.952   0.566 -1.2122  0.3167  0.2333
32776SOL    HW1 4165   1.483   7.005   0.625 -1.6731  0.3258  0.6490
32776SOL    HW2 4166   1.441   6.862   0.598  1.0193 -0.1388 -1.5579
32777SOL     OW 4167  10.811  11.125   3.094  0.2344 -0.4305 -0.1121
32777SOL    HW1 4168  10.878  11.191   3.114  0.3552 -0.9282  1.2140
32777SOL    HW2 4169  10.839  11.087   3.011  0.2479  1.0623 -0.8217
32778SOL     OW 4170   2.297  11.001   7.079 -0.2479  0.4392  0.3598
32778SOL    HW1 4171   2.344  11.004   7.162  0.2085  0.1309  0.1149
32778SOL    HW2 4172   2.268  11.091   7.065 -0.7022  0.4102  1.0654
32779SOL     OW 4173   4.199   9.917   6.358 -0.2606  0.3541  0.0045
32779SOL    HW1 4174   4.181   9.949   6.270 -1.5188  0.9759  0.4611
32779SOL    HW2 4175   4.120   9.869   6.383  0.6043 -0.9649  0.3024
32780SOL     OW 4176   4.581  11.962   1.691 -0.1698 -0.8236  0.3030
32780SOL    HW1 4177   4.640  11.894   1.657  1.1714 -0.2112  1.3409
32780SOL    HW2 4178   4.557  11.932   1.778  0.6869  0.1672  0.8966
32781SOL     OW 4179   3.544   8.195   7.731  0.9578  0.2220  0.1939
32781SOL    HW1 4180   3.580   8.252   7.662  2.2904  0.1007  0.7494
32781SOL    HW2 4181   3.621   8.152   7.768  0.1211 -0.7175  0.8726
32782SOL     OW 4182  12.019   3.103   4.140 -0.3970  0.5428 -0.3644
32782SOL    HW1 4183  11.975   3.036   4.087  0.8928  1.3080 -2.5471
32782SOL    HW2 4184  11.981   3.185   4.111  0.6201  1.0181 -0.3820
32783SOL     OW 4185   0.500   4.236  12.055  0.0373  0.1030 -0.0262
32783SOL    HW1 4186   0.434   4.180  12.097  0.2013  0.2668  0.4545
32783SOL    HW2 4187   0.581   4.216  12.101  0.0924  0.7575  0.1716
32784SOL     OW 4188   5.185   1.873   1.368 -0.4260 -0.2892 -0.0064
32784SOL    HW1 4189   5.237   1.888   1.447  1.7913 -0.4846 -1.3185
32784SOL    HW2 4190   5.223   1.794   1.329 -0.7545  0.3580 -1.7548
32785SOL     OW 4191   8.006  11.705   1.400  0.1592  0.2743  0.4105
32785SOL    HW1 4192   7.939  11.764   1.435 -0.0380 -0.5608  1.4855
32785SOL    HW2 4193   7.956  11.639   1.352  0.4384  1.5601 -1.7697
32786SOL     OW 4194   0.828  10.762   1.185  0.1105 -0.0664  0.0728
32786SOL    HW1 4195   0.744  10.723   1.160  0.0734  0.9884 -1.5784
32786SOL    HW2 4196   0.893  10.716   1.132  0.0196  2.2786 -2.2571
32787SOL     OW 4197   1.081   6.145   1.092 -0.2482  0.4137 -0.6847
32787SOL    HW1 4198   1.041   6.178   1.173 -1.4144 -1.5117 -0.4017
32787SOL    HW2 4199   1.171   6.176   1.095 -0.4162  0.8262  1.1051
32788SOL     OW 4200   5.355   6.958   7.109 -0.0359  0.1506 -0.2690
32788SOL    HW1 4201   5.421   7.012   7.066  0.4687  0.0290  0.3303
32788SOL    HW2 4202   5.373   6.970   7.203 -0.5276 -0.3062 -0.1164
32789SOL     OW 4203   8.132   6.963   9.446 -0.3491 -0.5343  0.0388
32789SOL    HW1 4204   8.175   7.004   9.521  0.7176  0.3102 -0.9952
32789SOL    HW2 4205   8.177   6.880   9.434  0.1819 -0.2052 -0.2851
32790SOL     OW 4206  12.004   3.632   1.222 -0.2766  0.6370  0.2528
32790SOL    HW1 4207  12.033   3.719   1.195  0.2535  1.1203  2.2346
32790SOL    HW2 4208  12.084   3.579   1.226 -0.4353  0.3927  0.2540
32791SOL     OW 4209   6.420   3.302   2.295  0.1397 -0.0553  0.0546
32791SOL    HW1 4210   6.507   3.316   2.257  0.1982  1.0440  0.5363
32791SOL    HW2 4211   6.436   3.243   2.369  0.5951  0.6587  0.5414
32792SOL     OW 4212   2.458   6.669   9.510 -0.2529  0.3672  0.0152
32792SOL    HW1 4213   2.552   6.663   9.531  0.3168  0.0643 -2.3561
32792SOL    HW2 4214   2.424   6.735   9.570  1.5084  0.6059  0.8094
32793SOL     OW 4215   3.654   3.805   6.267 -0.2859  0.1827 -0.4319
32793SOL    HW1 4216   3.648   3.839   6.356  0.1592  0.9299 -0.6806
32793SOL    HW2 4217   3.729   3.746   6.268 -1.0761 -0.8568  0.0071
32794SOL     OW 4218   3.323   6.925   3.452  0.3223  0.4125 -0.3388
32794SOL    HW1 4219   3.323   6.836   3.486 -2.4461  0.8328  1.0765
32794SOL    HW2 4220   3.398   6.967   3.494  0.5339 -0.7549  0.5024
32795SOL     OW 4221   7.818   8.860  10.781 -0.5809  0.0037 -0.3335
32795SOL    HW1 4222   7.865   8.841  10.700  0.7660 -0.7679  0.5736
32795SOL    HW2 4223   7.802   8.774  10.820 -0.6424  0.3882  0.5075
32796SOL     OW 4224   6.260   5.579   6.923 -0.4472 -0.4759  0.1993
32796SOL    HW1 4225   6.348   5.583   6.958  0.7793 -0.4040 -2.6011
32796SOL    HW2 4226   6.261   5.638   6.848 -3.6256  1.3575  1.3951
32797SOL     OW 4227   8.391   1.861   5.345  0.3420  0.0039  0.2829
32797SOL    HW1 4228   8.392   1.819   5.431 -0.3770  0.0622  0.3281
32797SOL    HW2 4229   8.464   1.822   5.298  0.3814 -0.4573  0.7224
32798SOL     OW 4230   3.985   8.568   0.109  0.3199  0.5784  0.4597
32798SOL    HW1 4231   3.937   8.596   0.031  0.4520 -0.1252  0.1149
32798SOL    HW2 4232   3.939   8.489   0.137  2.3020 -1.1820 -0.9251
32799SOL     OW 4233   0.988   4.440   7.211  0.2347  0.1439  0.2222
32799SOL    HW1 4234   1.004   4.507   7.277 -1.0093  0.5032  0.1846
32799SOL    HW2 4235   1.074   4.421   7.175  0.5947  1.9799  0.0088
32800SOL     OW 4236   6.664   4.360   6.313 -0.4107  0.4727 -0.1115
32800SOL    HW1 4237   6.652   4.396   6.400  3.0055 -0.9512  1.1187
32800SOL    HW2 4238   6.627   4.272   6.317  0.0152  0.2970  0.0151
32801SOL     OW 4239   3.549   8.742   4.564  0.1363 -0.0618  0.5923
32801SOL    HW1 4240   3.498   8.664   4.586  0.9564 -0.5535  0.7745
32801SOL    HW2 4241   3.609   8.714   4.495  0.2171  0.4890  0.4286
32802SOL     OW 4242   4.030   5.883   6.028  0.7058  0.3869 -0.2496
32802SOL    HW1 4243   4.071   5.797   6.039 -2.5260 -1.3281 -0.4997
32802SOL    HW2 4244   3.999   5.906   6.115 -0.3341  0.2366 -0.5711
32803SOL     OW 4245   0.460   7.048   2.952  0.3229  0.0096  0.2884
32803SOL    HW1 4246   0.436   7.105   3.025 -2.1874  2.0915 -1.9557
32803SOL    HW2 4247   0.396   6.977   2.954  0.8757 -0.4919  0.6459
32804SOL     OW 4248   4.343   5.528   3.747  0.3242  0.8084 -0.1184
32804SOL    HW1 4249   4.271   5.587   3.765 -1.5888 -1.9384  2.2119
32804SOL    HW2 4250   4.347   5.471   3.824  1.6396 -2.3869 -2.3134
32805SOL     OW 4251  11.268   5.043   3.815  0.2413 -0.7986 -0.2536
32805SOL    HW1 4252  11.204   5.112   3.829 -0.7929 -1.8663  0.5427
32805SOL    HW2 4253  11.261   5.022   3.721  2.1682  1.6338 -1.0265
32806SOL     OW 4254   7.993   2.022   5.673 -0.2074 -0.1056 -0.0008
32806SOL    HW1 4255   7.963   2.082   5.605  0.5712 -2.3490 -2.4962
32806SOL    HW2 4256   8.073   2.063   5.707 -0.4172  0.9022 -0.6698
32807SOL     OW 4257   3.520   4.830   7.643  0.5327  0.1293 -0.2313
32807SOL    HW1 4258   3.498   4.854   7.553  2.4606  0.5223 -0.6258
32807SOL    HW2 4259   3.479   4.898   7.697  0.0306  0.3353 -0.8601
32808SOL     OW 4260  11.909  10.698   8.911 -1.0673 -0.6571 -0.2516
32808SOL    HW1 4261  11.947  10.635   8.849 -0.4905 -0.9581  0.4030
32808SOL    HW2 4262  11.864  10.761   8.855  0.3032 -0.3456 -1.0449
32809SOL     OW 4263   4.564  10.611   8.601  0.9746 -0.4750  0.0713
32809SOL    HW1 4264   4.506  10.686   8.584  1.4540 -0.0960  0.0698
32809SOL    HW2 4265   4.510  10.534   8.583  0.6287 -0.1191 -0.4405
32810SOL     OW 4266   2.772   7.305   7.437  0.0494  0.2783  0.1326
32810SOL    HW1 4267   2.861   7.277   7.457 -0.2370 -0.4533  0.4326
32810SOL    HW2 4268   2.766   7.299   7.341  0.0905 -0.4166  0.1692
32811SOL     OW 4269   6.901  10.857   9.166  0.4322 -0.1847 -0.0230
32811SOL    HW1 4270   6.986  10.899   9.156  0.5897 -0.7692 -1.4974
32811SOL    HW2 4271   6.897  10.796   9.092 -0.8474 -0.8899  0.6048
32812SOL     OW 4272   0.489   4.809   6.910  0.1625 -0.4539  0.5019
32812SOL    HW1 4273   0.511   4.773   6.824 -0.0420 -0.4020  0.4265
32812SOL    HW2 4274   0.410   4.761   6.935  0.2543 -0.5073  0.6852
32813SOL     OW 4275   3.249   8.911   5.636  0.1953 -0.5614 -0.0678
32813SOL    HW1 4276   3.275   8.919   5.728  1.8919  0.7389 -0.5968
32813SOL    HW2 4277   3.179   8.976   5.626  0.1511 -0.5527  0.2594
32814SOL     OW 4278   2.910   4.526   0.138 -0.4951 -0.0403 -0.1927
32814SOL    HW1 4279   2.853   4.502   0.064 -0.9865  0.5074  0.0006
32814SOL    HW2 4280   2.951   4.609   0.110  0.6092 -0.6789 -0.5425
32815SOL     OW 4281  12.231   8.347   4.634 -0.4866  0.2171 -0.2135
32815SOL    HW1 4282  12.307   8.290   4.634 -0.1282  0.6475 -1.4298
32815SOL    HW2 4283  12.156   8.288   4.624 -0.0712 -0.0425 -2.2159
32816SOL     OW 4284   4.509   7.271   1.874 -0.2535  0.5069 -0.1023
32816SOL    HW1 4285   4.557   7.327   1.813 -1.9519  0.8080 -1.2370
32816SOL    HW2 4286   4.440   7.327   1.909  0.4629  0.2301  1.8617
32817SOL     OW 4287  11.424   6.649   2.468 -0.0632  0.3752  0.3673
32817SOL    HW1 4288  11.428   6.610   2.380  0.6048 -1.8488  1.3116
32817SOL    HW2 4289  11.515   6.663   2.492 -0.1575 -0.5432  1.3170
32818SOL     OW 4290   8.047   7.929   4.797  0.7671  0.6126  0.2195
32818SOL    HW1 4291   8.039   7.895   4.708 -1.7982 -1.3208  1.0696
32818SOL    HW2 4292   8.136   7.906   4.823  1.6431  1.4009 -1.8653
32819SOL     OW 4293   0.944  11.973   0.239 -0.0205 -0.6055 -0.1944
32819SOL    HW1 4294   0.882  12.000   0.306  0.9747  0.7941  0.1936
32819SOL    HW2 4295   0.961  11.880   0.258  1.9416  0.2421  2.9694
32820SOL     OW 4296   5.128   8.712   2.689  0.0842  0.0424 -0.0291
32820SOL    HW1 4297   5.061   8.664   2.640 -0.1362 -1.3556  1.5555
32820SOL    HW2 4298   5.079   8.776   2.740  0.0344 -0.3137  0.3779
32821SOL     OW 4299  10.242   5.105   4.309 -0.0819  0.0392  0.3399
32821SOL    HW1 4300  10.265   5.024   4.356  0.0623  0.1275  0.4227
32821SOL    HW2 4301  10.321   5.158   4.313  0.3214 -0.4187 -1.0022
32822SOL     OW 4302   9.947   5.639   6.569 -0.0116 -0.8987  0.1812
32822SOL    HW1 4303   9.949   5.678   6.482  1.0096 -4.1584 -1.4059
32822SOL    HW2 4304  10.013   5.687   6.619 -0.8721  1.2645 -0.6459
32823SOL     OW 4305   8.513   0.445   9.712  0.0044  0.0785  0.0505
32823SOL    HW1 4306   8.493   0.380   9.780 -1.3109  0.4922  0.0917
32823SOL    HW2 4307   8.545   0.393   9.638 -0.9925 -0.6528  0.0991
32824SOL     OW 4308   6.811  10.921   7.496  0.4581 -0.0828  0.3659
32824SOL    HW1 4309   6.892  10.929   7.445  0.5915 -0.2575  0.5483
32824SOL    HW2 4310   6.840  10.890   7.582  0.1900 -0.2056  0.4115
32825SOL     OW 4311  11.056   0.112   2.714 -0.5178 -0.2543  0.0051
32825SOL    HW1 4312  10.976   0.155   2.682 -1.3384 -2.1733 -0.6544
32825SOL    HW2 4313  11.055   0.130   2.808 -0.2827  1.9552 -0.3538
32826SOL     OW 4314   8.955   5.975   2.872  0.1117 -0.1085  0.3151
32826SOL    HW1 4315   8.930   6.055   2.918  1.8120 -0.4243  1.9075
32826SOL    HW2 4316   9.001   5.923   2.937 -2.1554 -3.0972 -0.2521
32827SOL     OW 4317   8.406   0.373   8.743 -0.3959 -0.5377  0.4779
32827SOL    HW1 4318   8.409   0.284   8.778 -0.0861 -0.4310  0.7246
32827SOL    HW2 4319   8.478   0.376   8.679 -0.9649 -0.7360 -0.1897
32828SOL     OW 4320   0.465   6.420   3.236  0.6959  0.0818 -0.6168
32828SOL    HW1 4321   0.513   6.496   3.268 -1.9133  0.7944  2.0240
32828SOL    HW2 4322   0.392   6.456   3.187  0.6990 -0.8129 -1.2994
32829SOL     OW 4323  10.872   3.055   5.432 -0.2991 -0.4597 -0.2235
32829SOL    HW1 4324  10.871   3.002   5.512 -0.5752 -0.4321 -0.2076
32829SOL    HW2 4325  10.936   3.012   5.376  1.7097  0.8705  0.9206
32830SOL     OW 4326   9.796  11.836   3.566 -0.5039  0.3498 -0.3182
32830SOL    HW1 4327   9.710  11.854   3.603 -0.4611  1.2810 -0.6430
32830SOL    HW2 4328   9.843  11.789   3.635 -0.1101  2.8116  1.2187
32831SOL     OW 4329   5.670   3.014   8.263  0.0021 -0.4382 -0.1967
32831SOL    HW1 4330   5.749   2.962   8.277  0.7643  0.5886 -0.5600
32831SOL    HW2 4331   5.667   3.027   8.168  0.5266  1.2045 -0.0194
32832SOL     OW 4332   2.875   2.157   1.415  0.4108  0.2713  0.5818
32832SOL    HW1 4333   2.818   2.151   1.338  1.5241  1.5898 -0.4077
32832SOL    HW2 4334   2.855   2.080   1.467 -1.6546  0.2684 -0.1507
32833SOL     OW 4335   2.784   5.958   0.212 -0.0114  0.1398  0.3989
32833SOL    HW1 4336   2.781   6.010   0.293  0.7009 -2.1903  2.0196
32833SOL    HW2 4337   2.876   5.961   0.186  0.2181 -1.0153  1.0272
32834SOL     OW 4338   4.617   6.190   1.714 -0.1167 -0.0835  0.4856
32834SOL    HW1 4339   4.552   6.255   1.686  0.7785  1.0220  0.8777
32834SOL    HW2 4340   4.632   6.136   1.637  0.7904  1.6199 -0.5950
32835SOL     OW 4341  10.502  10.216   2.003  0.0134 -0.5493 -0.0245
32835SOL    HW1 4342  10.442  10.199   2.075  0.7012  0.8235  0.9111
32835SOL    HW2 4343  10.578  10.162   2.022  0.6320  0.6034  0.8853
32836SOL     OW 4344  10.330  10.054  11.759 -0.3686  0.1944 -0.1658
32836SOL    HW1 4345  10.318  10.021  11.670  1.6385  0.8545 -0.7373
32836SOL    HW2 4346  10.368  10.141  11.747 -0.1305  0.3208  1.3362
32837SOL     OW 4347   4.473   7.567   8.452 -0.3355  0.3109  0.0679
32837SOL    HW1 4348   4.459   7.478   8.419  0.2071  0.2507 -0.0166
32837SOL    HW2 4349   4.565   7.568   8.480 -0.4053  0.7735  0.2958
32838SOL     OW 4350   6.704   8.181   2.232 -0.1972  0.3850 -0.1643
32838SOL    HW1 4351   6.693   8.156   2.323 -0.1638  2.2008  0.3783
32838SOL    HW2 4352   6.793   8.216   2.227 -0.5279  1.2039 -0.6370
32839SOL     OW 4353   0.135   9.217   0.631 -0.3723  0.1562  0.0102
32839SOL    HW1 4354   0.117   9.222   0.725 -0.6996  1.1220 -0.0975
32839SOL    HW2 4355   0.062   9.167   0.596 -0.5073  0.2177  0.1996
32840SOL     OW 4356   1.871  11.129   1.530  0.2086 -0.5715 -0.7851
32840SOL    HW1 4357   1.913  11.111   1.614 -0.6403  0.7890 -0.0356
32840SOL    HW2 4358   1.788  11.171   1.553 -1.2703 -2.5263 -2.2366
32841SOL     OW 4359   6.983   6.097   3.857  0.1587  0.2179 -0.0619
32841SOL    HW1 4360   7.035   6.059   3.786  2.0947  1.6611  0.4879
32841SOL    HW2 4361   6.984   6.030   3.926  0.7279 -0.0528 -0.3229
32842SOL     OW 4362   2.296   1.428  10.970 -0.1566  0.0215  0.3504
32842SOL    HW1 4363   2.242   1.354  10.943  0.9329 -1.3264  1.6621
32842SOL    HW2 4364   2.252   1.464  11.047 -1.1230  1.3214 -0.7540
32843SOL     OW 4365   1.041  11.513   6.899  0.0336 -0.2182 -0.6711
32843SOL    HW1 4366   0.997  11.591   6.933  2.6261  0.2888  2.0081
32843SOL    HW2 4367   0.990  11.439   6.933 -0.0862  0.3342  0.3873
32844SOL     OW 4368   1.819   8.699   4.121  0.1605  0.3242  0.2081
32844SOL    HW1 4369   1.763   8.692   4.044  0.3942  2.2281 -0.1977
32844SOL    HW2 4370   1.826   8.793   4.137  1.7823  0.0616  1.3280
32845SOL     OW 4371   0.420   8.482  11.679  0.2803  0.3177  0.0860
32845SOL    HW1 4372   0.472   8.558  11.655 -0.2556  0.7839  0.3904
32845SOL    HW2 4373   0.423   8.480  11.774 -1.0053  0.8884  0.1560
32846SOL     OW 4374   5.159  11.680   3.854 -0.3786 -0.1919  0.6608
32846SOL    HW1 4375   5.234  11.734   3.830 -1.5266  1.2514  0.0899
32846SOL    HW2 4376   5.144  11.698   3.947 -2.0966  2.3722  0.0045
32847SOL     OW 4377   1.128  11.764   5.751  0.2356 -0.0793 -0.5047
32847SOL    HW1 4378   1.138  11.689   5.692 -2.6315  0.4491 -1.8341
32847SOL    HW2 4379   1.138  11.841   5.695 -2.5743  0.4379 -0.4607
32848SOL     OW 4380  11.813  12.256   2.114  0.2018 -0.4340  0.2047
32848SOL    HW1 4381  11.731  12.253   2.064  1.5593 -0.7868 -2.1440
32848SOL    HW2 4382  11.841  12.165   2.120  0.0000 -0.4072  1.7937
32849SOL     OW 4383   2.912  11.343  11.855  0.4526 -0.0012  0.2796
32849SOL    HW1 4384   2.983  11.290  11.818  0.1783 -0.4458  0.3812
32849SOL    HW2 4385   2.869  11.382  11.778  2.3764  2.3811  0.2956
32850SOL     OW 4386   7.218  11.122   7.371  0.0470 -0.2777  0.0805
32850SOL    HW1 4387   7.274  11.196   7.346 -0.7418  0.0355 -0.8154
32850SOL    HW2 4388   7.279  11.059   7.410  0.5414  1.4148  2.2775
32851SOL     OW 4389   1.666   0.012   8.479 -0.4371  0.5974  0.0421
32851SOL    HW1 4390   1.666   0.035   8.572 -0.3569  0.5325  0.0586
32851SOL    HW2 4391   1.727  -0.062   8.473  0.2031  1.1462 -0.2039
32852SOL     OW 4392  11.130   4.955   4.529  0.4355 -0.2328  0.1415
32852SOL    HW1 4393  11.055   4.993   4.483 -0.6130 -2.5188 -0.1873
32852SOL    HW2 4394  11.198   4.946   4.463  1.0640  1.8673  0.4439
32853SOL     OW 4395   8.062   5.559   0.593 -0.0213  0.3195  0.3453
32853SOL    HW1 4396   8.072   5.515   0.678  0.6968  0.8132  0.5240
32853SOL    HW2 4397   7.967   5.567   0.582 -0.1689 -1.0093  0.4337
32854SOL     OW 4398   4.278   9.180   4.159  0.0475  0.3985  0.0091
32854SOL    HW1 4399   4.241   9.269   4.159 -0.4974  0.1758  0.1806
32854SOL    HW2 4400   4.303   9.164   4.068  0.7318  0.9628  0.0855
32855SOL     OW 4401   3.295  12.225  11.348 -0.0566  0.2227 -0.3443
32855SOL    HW1 4402   3.200  12.215  11.357 -0.2088  2.1644  0.8106
32855SOL    HW2 4403   3.323  12.262  11.431  1.5991  0.5422 -1.0006
32856SOL     OW 4404   0.835   6.441   3.238 -0.0676  0.0809 -0.3768
32856SOL    HW1 4405   0.759   6.421   3.293 -0.3135 -2.6164 -1.4852
32856SOL    HW2 4406   0.864   6.355   3.206  2.6113  1.1597 -1.1181
32857SOL     OW 4407   7.173   0.341   3.293  0.5189  0.7734 -0.0762
32857SOL    HW1 4408   7.158   0.435   3.288  2.2032  1.0822  0.1941
32857SOL    HW2 4409   7.265   0.330   3.268  0.5243 -0.7351  0.5205
32858SOL     OW 4410   4.688  10.657   1.127  0.0339  0.2388  0.4786
32858SOL    HW1 4411   4.767  10.664   1.073 -0.1643 -1.1570 -0.0378
32858SOL    HW2 4412   4.622  10.707   1.079  0.4720  0.9868  0.6509
32859SOL     OW 4413   5.373   8.298   8.488 -0.5243  0.1140 -0.0030
32859SOL    HW1 4414   5.466   8.284   8.467 -0.2991 -0.1096  1.0592
32859SOL    HW2 4415   5.360   8.392   8.478 -0.4962 -0.0140 -1.3418
32860SOL     OW 4416   2.474   2.408   9.191 -0.0219  0.2495 -0.4723
32860SOL    HW1 4417   2.496   2.419   9.099  1.3183  0.0903 -0.1965
32860SOL    HW2 4418   2.530   2.471   9.237  1.1252 -1.3252  0.4059
32861SOL     OW 4419  11.874   0.063  12.172 -0.3930  0.9549  0.3745
32861SOL    HW1 4420  11.907   0.056  12.083 -0.0198  1.2282  0.4877
32861SOL    HW2 4421  11.847   0.154  12.181 -1.2724  0.7217  0.2588
32862SOL     OW 4422   0.204   3.379   0.261 -0.3462 -0.0717  0.2309
32862SOL    HW1 4423   0.187   3.463   0.305  1.9253  0.1132  0.8678
32862SOL    HW2 4424   0.168   3.314   0.321  0.0633  0.3342  0.9396
32863SOL     OW 4425   1.828   6.062   3.628  0.0632 -0.3737 -0.3386
32863SOL    HW1 4426   1.917   6.039   3.602  0.9043  1.6337  0.5075
32863SOL    HW2 4427   1.824   6.045   3.722  0.7592  2.6368  0.3521
32864SOL     OW 4428   6.640  10.381  11.260  0.6445 -0.4432  0.3339
32864SOL    HW1 4429   6.584  10.383  11.182 -0.0325 -0.3428  0.8163
32864SOL    HW2 4430   6.695  10.459  11.252  0.1330 -0.0843  0.2743
32865SOL     OW 4431  11.958   8.743  12.038  0.2441  0.6783 -0.6753
32865SOL    HW1 4432  11.873   8.767  12.075  0.6717  1.5245 -0.1739
32865SOL    HW2 4433  11.938   8.684  11.966 -0.7757  1.0095 -0.6805
32866SOL     OW 4434  10.597   8.326   2.322 -0.7327  0.6850 -0.5911
32866SOL    HW1 4435  10.672   8.270   2.300  1.1730  2.7855  0.1666
32866SOL    HW2 4436  10.523   8.266   2.325  1.1846 -1.8492  0.3159
32867SOL     OW 4437  12.253   5.478   7.302  0.1806 -0.5875 -0.7542
32867SOL    HW1 4438  12.315   5.542   7.268 -0.8685  0.6125 -0.4914
32867SOL    HW2 4439  12.289   5.454   7.388  0.0149  0.5308 -0.3512
32868SOL     OW 4440   6.309   3.302   0.278  0.0968 -0.0715  0.0915
32868SOL    HW1 4441   6.303   3.388   0.235 -1.8478 -1.6645 -3.2799
32868SOL    HW2 4442   6.300   3.239   0.206  1.0731 -3.1407  2.4420
32869SOL     OW 4443   1.184   1.375   2.927  0.6981  0.2005  0.4073
32869SOL    HW1 4444   1.092   1.392   2.907  1.2130  2.0014 -0.6639
32869SOL    HW2 4445   1.219   1.335   2.848  1.0396  0.3724  0.4664
32870SOL     OW 4446   0.813   9.303   7.068  0.1786  0.3670 -0.0109
32870SOL    HW1 4447   0.807   9.318   6.974  0.7474  0.2091 -0.0721
32870SOL    HW2 4448   0.728   9.331   7.102 -0.7404 -1.3463 -0.7930
32871SOL     OW 4449   7.871  11.776   4.123  0.0728  0.1848 -0.0173
32871SOL    HW1 4450   7.919  11.834   4.063  0.3486 -0.9954 -0.9919
32871SOL    HW2 4451   7.880  11.817   4.209 -0.2002  1.8559 -0.7486
32872SOL     OW 4452   6.085   3.382   3.999  0.5642 -0.7329 -0.0225
32872SOL    HW1 4453   6.146   3.452   4.022 -0.8932  1.3376 -2.0735
32872SOL    HW2 4454   6.126   3.337   3.925 -0.0471  0.2879 -1.0189
32873SOL     OW 4455  12.054   5.859   0.852  0.0020  0.0296  0.3580
32873SOL    HW1 4456  12.133   5.905   0.880  0.2834 -0.3345  0.1702
32873SOL    HW2 4457  11.997   5.928   0.818  0.3913  0.2519  0.1476
32874SOL     OW 4458  10.684   0.627   2.891  0.1460  0.2815 -0.2529
32874SOL    HW1 4459  10.620   0.557   2.879  0.5432 -0.0412 -0.5021
32874SOL    HW2 4460  10.758   0.602   2.836  0.6207  0.4852  0.2841
32875SOL     OW 4461   9.079   5.209   2.400 -0.0519 -0.2020  0.1900
32875SOL    HW1 4462   9.051   5.126   2.441 -0.6061 -0.2415 -0.2639
32875SOL    HW2 4463   8.997   5.254   2.380  0.1767 -0.5735 -1.6909
32876SOL     OW 4464   1.076   4.586   6.340  0.0943  0.6410 -0.1342
32876SOL    HW1 4465   1.022   4.536   6.401  0.9900 -0.5473 -0.3003
32876SOL    HW2 4466   1.157   4.535   6.331  2.4561  3.5657  2.1426
32877SOL     OW 4467  10.922   6.201   3.639  1.0411 -0.1849 -0.2619
32877SOL    HW1 4468  10.969   6.162   3.566 -0.8091 -1.2296 -0.9656
32877SOL    HW2 4469  10.869   6.129   3.675  0.4624  0.7669  0.8856
32878SOL     OW 4470   9.209   0.418  10.269  0.4853  0.5782 -0.0717
32878SOL    HW1 4471   9.272   0.349  10.289 -0.9488 -1.1317 -1.0768
32878SOL    HW2 4472   9.124   0.373  10.267 -0.4181  2.1822 -1.6594
32879SOL     OW 4473   5.266   5.803   5.773  0.1295 -0.1787  0.2593
32879SOL    HW1 4474   5.211   5.880   5.788  0.9023  0.2594  0.9611
32879SOL    HW2 4475   5.292   5.775   5.861 -0.4191 -1.4656  0.0338
32880SOL     OW 4476   0.758  10.654   7.842 -0.0901 -0.2184 -0.0563
32880SOL    HW1 4477   0.820  10.660   7.915  1.2380  0.7494 -1.2141
32880SOL    HW2 4478   0.685  10.602   7.877 -0.3465  1.6729  2.5271
32881SOL     OW 4479   3.038   3.859  10.528  0.1909  0.0796 -0.0980
32881SOL    HW1 4480   3.128   3.877  10.503 -0.0012  0.7342 -0.3302
32881SOL    HW2 4481   3.010   3.789  10.468 -0.5150  2.1372 -2.3492
32882SOL     OW 4482   5.680   8.376   8.814  0.0858  0.3252 -0.0102
32882SOL    HW1 4483   5.624   8.315   8.864 -0.6688 -0.5013 -1.7752
32882SOL    HW2 4484   5.769   8.344   8.829 -0.0980  0.2663  1.0188
32883SOL     OW 4485   5.609   5.021   9.508 -0.2266 -0.6561  0.2257
32883SOL    HW1 4486   5.523   5.061   9.497 -0.4356 -1.5955 -2.3030
32883SOL    HW2 4487   5.600   4.935   9.466  1.5799 -1.3301  1.1306
32884SOL     OW 4488   8.251   2.269   6.061  0.0791  0.0834  0.1478
32884SOL    HW1 4489   8.221   2.277   6.151  1.0173  0.3663  0.4512
32884SOL    HW2 4490   8.339   2.306   6.062  0.1663 -0.0665 -0.8517
32885SOL     OW 4491   9.062   9.594   6.294 -0.2903 -0.6067 -0.2474
32885SOL    HW1 4492   9.030   9.658   6.357 -1.6655 -0.7853 -0.7437
32885SOL    HW2 4493   8.998   9.524   6.296 -0.6545 -0.3717 -2.2233
32886SOL     OW 4494  10.006  10.965   2.725 -0.2467  0.5373 -0.5724
32886SOL    HW1 4495   9.947  10.983   2.652  2.4859 -0.0085 -3.1083
32886SOL    HW2 4496  10.049  11.049   2.742  0.5919  0.2074 -1.0262
32887SOL     OW 4497   5.233   9.971   0.598 -0.1922  0.7537 -0.2527
32887SOL    HW1 4498   5.176  10.006   0.529  0.3098  0.5779 -0.7708
32887SOL    HW2 4499   5.304   9.928   0.550  0.5682  1.2836  0.3710
32888SOL     OW 4500   7.382   1.706   7.972 -0.0906 -0.7645 -0.3850
32888SOL    HW1 4501   7.307   1.681   7.918 -1.8392  1.7942  0.6490
32888SOL    HW2 4502   7.446   1.741   7.911 -0.3520 -1.5775 -1.1381
32889SOL     OW 4503   1.355   9.795   2.992  0.3243  0.6387 -0.1747
32889SOL    HW1 4504   1.398   9.740   3.057 -1.3952 -1.7420 -0.8946
32889SOL    HW2 4505   1.304   9.858   3.042 -0.7577 -0.9772  0.8013
32890SOL     OW 4506  10.156   6.584   9.403 -0.5439 -0.1703  0.6232
32890SOL    HW1 4507  10.077   6.554   9.447 -0.9704  2.3718  1.7681
32890SOL    HW2 4508  10.225   6.574   9.468 -1.0412  2.8835  1.7953
32891SOL     OW 4509   4.910   7.048   1.788  0.5528  0.2846  0.0453
32891SOL    HW1 4510   4.835   7.078   1.839 -0.1599  2.2862 -1.9967
32891SOL    HW2 4511   4.930   6.961   1.823 -2.8656 -0.4365  0.5604
32892SOL     OW 4512  11.356   2.218   9.920 -0.0012 -0.3334 -0.2335
32892SOL    HW1 4513  11.329   2.233   9.830  1.4448 -1.3865 -0.8821
32892SOL    HW2 4514  11.315   2.289   9.970 -0.6502  0.3899 -1.7435
32893SOL     OW 4515   5.960   1.328   8.598 -0.9263 -0.2749  0.0673
32893SOL    HW1 4516   5.930   1.264   8.663 -1.6182  0.4409  0.4743
32893SOL    HW2 4517   5.927   1.295   8.514 -0.0432 -1.1936  0.0646
32894SOL     OW 4518   9.138   2.004  10.692 -0.0540 -0.4003  0.1970
32894SOL    HW1 4519   9.063   1.947  10.677  1.4979 -2.0493 -1.8811
32894SOL    HW2 4520   9.117   2.050  10.774 -2.8703 -1.4422  0.1747
32895SOL     OW 4521   0.093   8.742   9.281  0.1973  0.0273  0.0777
32895SOL    HW1 4522   0.151   8.817   9.293 -0.3416  0.5119 -0.2993
32895SOL    HW2 4523   0.032   8.747   9.355  0.2376 -0.1171  0.1218
32896SOL     OW 4524   0.105  10.366  11.815 -0.1483 -0.7680  0.4355
32896SOL    HW1 4525   0.197  10.386  11.834  0.5224 -1.8225 -1.3615
32896SOL    HW2 4526   0.063  10.363  11.900  1.4651 -0.1366  1.3056
32897SOL     OW 4527   2.525   6.205   8.018 -0.1253 -0.2676  0.4322
32897SOL    HW1 4528   2.611   6.183   7.981 -1.1109 -0.0518 -2.2741
32897SOL    HW2 4529   2.541   6.279   8.076  1.4705  0.0121 -0.3095
32898SOL     OW 4530   1.203   0.203   5.706  0.3510 -0.0740 -0.5683
32898SOL    HW1 4531   1.247   0.120   5.689  0.8921  0.5667 -2.5680
32898SOL    HW2 4532   1.120   0.178   5.747  0.7126 -1.5684 -0.6932
32899SOL     OW 4533  10.974  11.540  10.898 -0.3404 -0.3740  0.1734
32899SOL    HW1 4534  11.045  11.573  10.843 -0.6427  1.5994  0.8724
32899SOL    HW2 4535  10.930  11.475  10.844  1.1126 -0.5869 -0.8092
32900SOL     OW 4536   0.755   2.130   5.877  0.2381 -0.2241  0.2383
32900SOL    HW1 4537   0.848   2.150   5.866  0.3265 -1.6336 -2.2771
32900SOL    HW2 4538   0.753   2.051   5.931  0.4519  0.0467  0.6486
32901SOL     OW 4539   4.872   8.575   5.604 -0.0168  0.0363 -0.0053
32901SOL    HW1 4540   4.824   8.499   5.638  1.7844 -0.8769  0.5905
32901SOL    HW2 4541   4.895   8.626   5.682  1.3593 -0.3938 -0.1110
32902SOL     OW 4542   1.047   6.992  10.441  0.2092  0.3171 -0.3008
32902SOL    HW1 4543   0.983   6.942  10.391  1.9709 -0.6504 -1.6933
32902SOL    HW2 4544   1.109   7.025  10.376  0.4330  2.3591  0.8517
32903SOL     OW 4545   2.713   8.212   3.495  0.3299 -0.3685  0.5819
32903SOL    HW1 4546   2.683   8.131   3.538  0.1631 -0.3515  0.4988
32903SOL    HW2 4547   2.771   8.253   3.559  0.3816 -0.5351  0.6407
32904SOL     OW 4548   3.427   3.695   4.535 -0.2256 -0.7741 -0.1103
32904SOL    HW1 4549   3.407   3.721   4.445  0.5726  0.3237  0.0049
32904SOL    HW2 4550   3.390   3.766   4.589 -0.2232 -1.1501  0.3901
32905SOL     OW 4551  11.444   2.516   3.471 -0.3232 -0.0102  0.7883
32905SOL    HW1 4552  11.432   2.421   3.471 -3.7280  0.2310 -1.8284
32905SOL    HW2 4553  11.356   2.552   3.466  0.9098  3.2153 -0.9209
32906SOL     OW 4554   9.724   2.845   2.131  0.5913  0.1321 -0.3858
32906SOL    HW1 4555   9.683   2.906   2.193  0.8906  0.1011 -0.1565
32906SOL    HW2 4556   9.783   2.793   2.185 -0.0938 -0.7523 -0.4760
32907SOL     OW 4557   3.655  10.596   8.854  0.0112 -0.3746  0.2450
32907SOL    HW1 4558   3.654  10.513   8.902 -2.8305 -1.7888 -1.9462
32907SOL    HW2 4559   3.596  10.652   8.903  0.0483 -0.4939  0.4282
32908SOL     OW 4560   5.316  11.231   4.310  0.3940 -0.0320  0.6201
32908SOL    HW1 4561   5.309  11.175   4.388  1.5973 -0.0732  0.7048
32908SOL    HW2 4562   5.375  11.183   4.252  0.6698  0.7064  0.2923
32909SOL     OW 4563   5.255   8.364   1.008  0.5195  0.0707 -0.4251
32909SOL    HW1 4564   5.179   8.339   0.956 -0.2525 -0.2413  0.8189
32909SOL    HW2 4565   5.221   8.381   1.096  1.6015  1.8064 -0.2802
32910SOL     OW 4566   7.136   2.136  11.722 -0.0870  0.3352  0.2201
32910SOL    HW1 4567   7.206   2.182  11.677 -0.5394 -0.7652 -1.7411
32910SOL    HW2 4568   7.180   2.066  11.770  0.2076 -0.2712 -0.9004
32911SOL     OW 4569   9.995   6.691   3.046 -0.4474 -0.0659 -0.8439
32911SOL    HW1 4570  10.020   6.675   3.137 -0.7303 -1.8135 -1.0398
32911SOL    HW2 4571   9.909   6.733   3.053 -0.3698  0.0172 -0.2998
32912SOL     OW 4572   5.507   5.709   8.761 -0.2058  0.5231  0.5541
32912SOL    HW1 4573   5.596   5.698   8.797 -0.5510  0.6800  1.4860
32912SOL    HW2 4574   5.450   5.667   8.825 -0.7205 -0.6348 -0.6248
32913SOL     OW 4575  12.320   9.581   1.941 -0.0561 -0.3236  0.2186
32913SOL    HW1 4576  12.285   9.670   1.954 -0.3774 -0.4338  0.1147
32913SOL    HW2 4577  12.362   9.585   1.855  1.0056  0.0645  0.7267
32914SOL     OW 4578   7.303   0.955   9.816 -0.3526  0.5598 -0.1265
32914SOL    HW1 4579   7.320   0.893   9.746 -1.8816  1.3693 -1.2865
32914SOL    HW2 4580   7.281   0.901   9.892  2.5823 -0.3636  0.1750
32915SOL     OW 4581   3.685  11.766   9.640 -0.0927 -0.8452  0.8512
32915SOL    HW1 4582   3.677  11.829   9.712  0.0669  0.6633 -0.3911
32915SOL    HW2 4583   3.657  11.815   9.562  0.1652 -2.2828 -0.1909
32916SOL     OW 4584   1.473   3.055   9.288  0.1523  0.1022 -0.5320
32916SOL    HW1 4585   1.454   3.130   9.231 -1.5303  1.3108  1.4924
32916SOL    HW2 4586   1.491   3.093   9.373  0.8889 -1.7433  0.1924
32917SOL     OW 4587  10.917   0.570  10.672 -0.1249  0.5094 -0.1280
32917SOL    HW1 4588  11.013   0.574  10.680 -0.1454  0.1667  0.2973
32917SOL    HW2 4589  10.891   0.660  10.651  0.0591  1.1763  2.2850
32918SOL     OW 4590   8.658   9.364   4.736 -0.0279 -0.2136 -0.1745
32918SOL    HW1 4591   8.609   9.373   4.654  2.0539  0.0961 -1.4530
32918SOL    HW2 4592   8.705   9.281   4.727  1.4504  0.5732 -0.0263
32919SOL     OW 4593   8.976  12.296   6.684  0.0806  0.5543  0.7106
32919SOL    HW1 4594   9.028  12.333   6.754  1.6654  2.0889 -1.1649
32919SOL    HW2 4595   8.950  12.371   6.630 -2.0395 -0.4315  0.2124
32920SOL     OW 4596   0.930  11.201   2.652 -0.3142  0.2722 -0.2920
32920SOL    HW1 4597   0.902  11.287   2.619 -0.2052 -0.1358 -1.5048
32920SOL    HW2 4598   0.855  11.168   2.701 -0.5863  0.7898 -0.3491
32921SOL     OW 4599   7.405  11.202  11.129 -0.2007 -0.0845 -0.2426
32921SOL    HW1 4600   7.311  11.211  11.144 -0.2198  1.0482 -0.9289
32921SOL    HW2 4601   7.434  11.289  11.105  1.1583 -0.2774  0.5653
32922SOL     OW 4602   7.183   1.935   9.720 -0.6394  0.2087  0.1389
32922SOL    HW1 4603   7.181   1.849   9.761 -0.5110  0.0600 -0.1585
32922SOL    HW2 4604   7.210   1.995   9.789 -0.1530 -0.0782  0.2017
32923SOL     OW 4605   7.100   4.688   1.403 -0.4996  0.5037  0.3274
32923SOL    HW1 4606   7.054   4.609   1.376 -1.8555  1.2044  0.4980
32923SOL    HW2 4607   7.093   4.687   1.499  4.2480 -1.9622  0.9549
32924SOL     OW 4608   2.755   9.639   6.980 -0.3012 -0.3749  0.1668
32924SOL    HW1 4609   2.761   9.586   6.901  0.7702  1.3514 -0.9804
32924SOL    HW2 4610   2.826   9.702   6.972 -1.6575  1.4103  1.3094
32925SOL     OW 4611   9.281  11.191   8.769 -0.0479 -0.5915 -0.0749
32925SOL    HW1 4612   9.299  11.098   8.784  0.1447 -0.4254  0.8240
32925SOL    HW2 4613   9.317  11.235   8.847 -0.3799  0.2047 -0.3597
32926SOL     OW 4614   3.009   6.926   5.729  0.0268  0.4202  0.2323
32926SOL    HW1 4615   3.080   6.972   5.686  0.8448 -1.0856 -0.1153
32926SOL    HW2 4616   2.962   6.881   5.658  0.1350 -0.4316  0.6864
32927SOL     OW 4617   5.903   7.020  11.161 -0.0816  0.8280 -0.4090
32927SOL    HW1 4618   5.881   6.982  11.076  0.2149  0.6966 -0.4254
32927SOL    HW2 4619   5.873   7.111  11.155  0.7336  1.0685 -0.9666
32928SOL     OW 4620   0.353  11.384  11.128  0.0718 -0.1475 -0.9335
32928SOL    HW1 4621   0.303  11.319  11.078  2.0949 -1.3360 -1.5077
32928SOL    HW2 4622   0.427  11.406  11.071  1.4236 -0.1326  0.7593
32929SOL     OW 4623   8.618   8.660   4.470 -0.0767 -0.0028  0.3328
32929SOL    HW1 4624   8.645   8.621   4.387 -1.2414 -1.8040  0.7415
32929SOL    HW2 4625   8.608   8.586   4.530 -2.2470  0.8795  1.1897
32930SOL     OW 4626  10.586   9.272   2.751  0.3607 -0.2596 -0.5141
32930SOL    HW1 4627  10.501   9.316   2.757  0.9934  0.8183  0.9021
32930SOL    HW2 4628  10.622   9.302   2.668  0.4274  1.3107  0.0459
32931SOL     OW 4629   7.976   4.707  10.384 -0.1408 -0.0927 -0.5943
32931SOL    HW1 4630   7.881   4.704  10.390 -0.0294 -0.9229  1.4206
32931SOL    HW2 4631   7.997   4.796  10.354 -1.4532  0.9226  1.3710
32932SOL     OW 4632   7.404   3.368   6.937  0.4816  0.1115  0.3493
32932SOL    HW1 4633   7.410   3.436   6.869 -2.2845  0.0763 -0.0492
32932SOL    HW2 4634   7.410   3.286   6.889 -0.8692  0.0939  0.1589
32933SOL     OW 4635   6.822   6.543   5.377 -0.3580  0.3993  0.2371
32933SOL    HW1 4636   6.841   6.598   5.453  1.3301 -0.5406  0.5611
32933SOL    HW2 4637   6.907   6.503   5.356 -0.9607  0.0366 -1.6620
32934SOL     OW 4638   9.219   6.649   6.591 -0.0277 -0.9888 -0.0819
32934SOL    HW1 4639   9.309   6.623   6.610  0.0851  0.7140  2.1717
32934SOL    HW2 4640   9.166   6.598   6.653 -0.6244 -1.6890 -1.1285
32935SOL     OW 4641   1.449   9.269   5.733  0.6798 -0.1377 -0.2145
32935SOL    HW1 4642   1.449   9.321   5.813  0.7249  0.1183 -0.3789
32935SOL    HW2 4643   1.435   9.179   5.763 -3.0349  0.3070 -0.1394
32936SOL     OW 4644   8.894   5.413   9.969 -0.5938 -0.1487  0.4169
32936SOL    HW1 4645   8.881   5.403  10.063 -2.0913 -1.9558  0.0839
32936SOL    HW2 4646   8.805   5.411   9.932 -0.3376  3.8444 -0.8519
32937SOL     OW 4647   9.163   2.324   3.744 -0.4602  0.7193 -0.0938
32937SOL    HW1 4648   9.202   2.407   3.772 -0.2823  0.6157 -0.0338
32937SOL    HW2 4649   9.191   2.261   3.811 -0.2584  0.5251 -0.3644
32938SOL     OW 4650   1.840  10.757   2.115 -0.0253 -0.0883  0.1667
32938SOL    HW1 4651   1.787  10.721   2.186  0.6958  0.0100  0.7719
32938SOL    HW2 4652   1.926  10.717   2.127  0.0189 -0.3197 -0.8592
32939SOL     OW 4653  12.287   1.489  10.272  0.3677 -0.5253  0.2859
32939SOL    HW1 4654  12.245   1.486  10.358 -0.8413  0.3272 -0.2495
32939SOL    HW2 4655  12.254   1.412  10.226 -0.0465 -0.2464  0.1158
32940SOL     OW 4656   0.247   0.635  11.573 -0.1101 -0.5624  0.4490
32940SOL    HW1 4657   0.303   0.563  11.602  1.1070 -1.1006 -2.8705
32940SOL    HW2 4658   0.308   0.702  11.541 -1.2545 -0.4145 -1.6175
32941SOL     OW 4659   8.087   6.822   0.401  0.0061 -0.8999 -0.0764
32941SOL    HW1 4660   8.117   6.765   0.331 -0.0043 -1.0078  0.0064
32941SOL    HW2 4661   8.028   6.767   0.453  1.1853 -1.2765  0.8940
32942SOL     OW 4662   9.628   6.523   5.125  0.0429 -0.2253  0.1439
32942SOL    HW1 4663   9.618   6.524   5.030  0.8831  1.1798  0.0432
32942SOL    HW2 4664   9.712   6.565   5.141 -0.5181  0.4216  1.5616
32943SOL     OW 4665   3.486   9.336   1.784 -0.0916 -0.1243  0.2424
32943SOL    HW1 4666   3.551   9.277   1.824  1.5009  0.7766 -0.9056
32943SOL    HW2 4667   3.525   9.361   1.700 -1.5817  1.1048 -0.1243
32944SOL     OW 4668  11.657   8.718   6.074  0.1872  0.3337  0.1433
32944SOL    HW1 4669  11.584   8.765   6.035 -1.3782  0.0994  2.6417
32944SOL    HW2 4670  11.718   8.787   6.101 -0.5246  0.7296  0.7647
32945SOL     OW 4671   5.395  12.053   9.757  0.0042  0.7932  0.5482
32945SOL    HW1 4672   5.428  12.052   9.667 -0.9217  1.3507  0.1908
32945SOL    HW2 4673   5.433  12.131   9.796 -1.9062  2.2209 -0.2880
32946SOL     OW 4674  10.396   8.795   0.593  0.5513  0.1985  0.2798
32946SOL    HW1 4675  10.319   8.748   0.559  0.7551 -0.9066  1.2909
32946SOL    HW2 4676  10.416   8.859   0.525 -1.6816  1.0039  0.2936
32947SOL     OW 4677   5.115  12.292   1.227 -0.4616 -0.0206 -0.1436
32947SOL    HW1 4678   5.201  12.322   1.259 -1.5264  2.0010  0.9968
32947SOL    HW2 4679   5.052  12.344   1.277 -2.3643 -1.3631 -1.0682
32948SOL     OW 4680  10.481   9.930   1.368  0.4994  0.3428 -0.0159
32948SOL    HW1 4681  10.557   9.949   1.312  0.1382  0.3082 -0.5331
32948SOL    HW2 4682  10.426  10.009   1.362  0.8607  0.6809  0.9832
32949SOL     OW 4683   1.160   4.981   5.403 -0.4167 -0.2104 -0.5611
32949SOL    HW1 4684   1.130   4.896   5.437 -1.2900  1.3000  2.8544
32949SOL    HW2 4685   1.089   5.041   5.424  1.3805  1.9097 -0.2309
32950SOL     OW 4686   8.675   1.891   9.741  0.0543  0.0531 -0.6664
32950SOL    HW1 4687   8.581   1.906   9.746  0.0607 -0.1728  0.3937
32950SOL    HW2 4688   8.689   1.851   9.655 -0.9984 -1.1304 -0.3148
32951SOL     OW 4689   8.013   5.779  12.144  0.0504  0.0882  0.2213
32951SOL    HW1 4690   7.970   5.744  12.221  1.5559 -0.5306  0.8330
32951SOL    HW2 4691   8.056   5.858  12.174  0.4989 -0.0601 -0.0129
32952SOL     OW 4692   5.016   5.581   7.567  0.3159  0.1412  0.5772
32952SOL    HW1 4693   5.108   5.604   7.564  0.3906 -0.2542 -0.6324
32952SOL    HW2 4694   5.006   5.513   7.500 -1.1042  1.1364 -0.2867
32953SOL     OW 4695   9.704   6.088   2.653  0.0907 -0.3651 -0.0448
32953SOL    HW1 4696   9.783   6.142   2.644  0.5151 -1.0482 -0.4130
32953SOL    HW2 4697   9.640   6.131   2.596  0.4797 -0.3569 -0.4762
32954SOL     OW 4698  11.324   2.900   5.252  0.0927 -0.1154 -0.0802
32954SOL    HW1 4699  11.370   2.820   5.227 -0.8023 -1.0218  1.0644
32954SOL    HW2 4700  11.241   2.896   5.205  1.6702  2.3292 -3.4603
32955SOL     OW 4701   9.231   5.533   5.295  0.0586  0.9643 -0.0046
32955SOL    HW1 4702   9.144   5.564   5.319  0.7282  2.6937  0.3694
32955SOL    HW2 4703   9.268   5.499   5.377  0.5263  2.3178  0.3830
32956SOL     OW 4704   0.251  10.026   4.943 -0.0037 -0.0231  0.0923
32956SOL    HW1 4705   0.301   9.947   4.964  0.9980  0.7545  0.7601
32956SOL    HW2 4706   0.245  10.026   4.848  1.7611  0.1074 -0.0632
32957SOL     OW 4707   7.480  11.849   9.133 -0.3707 -0.6093  0.0170
32957SOL    HW1 4708   7.517  11.884   9.214 -0.2916  0.6574 -0.5415
32957SOL    HW2 4709   7.552  11.804   9.091 -0.3922 -1.2104  0.6058
32958SOL     OW 4710   9.127   8.637   8.159  0.3244  0.2293 -0.0913
32958SOL    HW1 4711   9.099   8.652   8.069  0.2219  0.6682  0.0148
32958SOL    HW2 4712   9.046   8.634   8.210  0.4181  0.5591  0.0747
32959SOL     OW 4713   2.040   8.488   1.889 -0.0175  0.1697  0.0332
32959SOL    HW1 4714   1.976   8.423   1.919 -0.3089  0.5830  0.3065
32959SOL    HW2 4715   1.990   8.569   1.882  0.2490  0.2827 -0.7031
32960SOL     OW 4716   4.642   8.553   6.481  0.7219  0.1264 -0.0411
32960SOL    HW1 4717   4.570   8.567   6.543 -0.0352  0.9147 -1.0467
32960SOL    HW2 4718   4.687   8.638   6.477  0.9230  0.0083 -0.3635
32961SOL     OW 4719   3.176   3.126   1.512  0.8568  0.3352 -0.2441
32961SOL    HW1 4720   3.139   3.196   1.566  2.9423  0.8912  0.5662
32961SOL    HW2 4721   3.210   3.170   1.435 -0.4035 -0.2149 -1.1526
32962SOL     OW 4722   6.215  10.425  10.833 -0.0675  0.2609  0.3896
32962SOL    HW1 4723   6.273  10.397  10.762 -1.0293  1.9091 -1.1056
32962SOL    HW2 4724   6.128  10.397  10.806 -0.2211 -0.9221  1.9475
32963SOL     OW 4725   5.932  10.514   5.271 -0.0026 -0.5920 -0.2225
32963SOL    HW1 4726   5.876  10.448   5.311 -0.8227 -0.2167 -0.7281
32963SOL    HW2 4727   5.907  10.514   5.179  1.0312 -0.6130 -0.5192
32964SOL     OW 4728   4.773   0.974   9.322  0.4007  0.6565  0.4770
32964SOL    HW1 4729   4.788   1.068   9.314  0.9954  0.4468 -1.1640
32964SOL    HW2 4730   4.734   0.948   9.239 -2.0997 -0.1601  1.8169
32965SOL     OW 4731   3.948   3.269   1.869  0.0101  0.8965  0.5006
32965SOL    HW1 4732   3.940   3.176   1.847 -2.9654  0.5351  2.4784
32965SOL    HW2 4733   3.876   3.285   1.931  0.7728  4.4022  0.6839
32966SOL     OW 4734   2.162   8.819   5.558 -0.1157 -0.2405 -0.1556
32966SOL    HW1 4735   2.125   8.907   5.568  0.7164  0.0650  0.3059
32966SOL    HW2 4736   2.254   8.829   5.583  0.1446 -1.1037 -0.7461
32967SOL     OW 4737   9.407   3.851  10.982  0.5677  0.2749 -0.2568
32967SOL    HW1 4738   9.345   3.916  10.951  0.3285  0.3742  0.4184
32967SOL    HW2 4739   9.400   3.854  11.078  0.1826 -1.0967 -0.2171
32968SOL     OW 4740   7.176  12.099   1.906 -0.2821  0.0752 -0.1004
32968SOL    HW1 4741   7.097  12.047   1.895 -2.0810  2.5512  0.3804
32968SOL    HW2 4742   7.157  12.157   1.980  2.2272  0.3613  0.4153
32969SOL     OW 4743   8.480   0.593   5.326  0.0356 -0.2579  0.2728
32969SOL    HW1 4744   8.488   0.508   5.283  0.6021  0.2365 -0.6518
32969SOL    HW2 4745   8.393   0.593   5.366  0.0873 -1.3175  0.3934
32970SOL     OW 4746   7.895   0.713   4.077 -0.3498 -0.4066  0.1914
32970SOL    HW1 4747   7.856   0.626   4.090 -0.0796 -1.0593 -2.7435
32970SOL    HW2 4748   7.978   0.709   4.125 -0.9604 -1.2456  1.2265
32971SOL     OW 4749  11.237   5.401   1.281  0.7397 -0.1711  0.3781
32971SOL    HW1 4750  11.160   5.419   1.336 -0.0445  0.5720 -0.9091
32971SOL    HW2 4751  11.278   5.325   1.322  0.8233  0.9940  2.6091
32972SOL     OW 4752   1.780  11.596   9.275  0.1637 -0.0241 -0.4192
32972SOL    HW1 4753   1.808  11.505   9.259 -0.8181 -0.4894  0.3620
32972SOL    HW2 4754   1.854  11.649   9.247  1.4982 -1.1476  0.7961
32973SOL     OW 4755   0.842   7.976   3.898  0.6651  0.3001  0.0099
32973SOL    HW1 4756   0.771   7.912   3.896  0.8890  0.0651 -0.6349
32973SOL    HW2 4757   0.875   7.972   3.988  0.7892 -0.6178 -0.0644
32974SOL     OW 4758  10.897   3.090   1.645  1.0773  0.0938 -0.3329
32974SOL    HW1 4759  10.892   3.066   1.737  0.1517 -1.0286 -0.6516
32974SOL    HW2 4760  10.862   3.180   1.642 -2.1907 -1.0194  0.0339
32975SOL     OW 4761  11.453  10.577   9.702  0.1852 -0.1747  0.6097
32975SOL    HW1 4762  11.533  10.559   9.653  1.1148  0.6654  1.7738
32975SOL    HW2 4763  11.383  10.544   9.646  1.0754  1.8052 -1.8617
32976SOL     OW 4764   9.985   5.376   5.344 -0.4616 -0.1021 -0.0721
32976SOL    HW1 4765   9.962   5.395   5.253 -2.4844  0.0027  0.4209
32976SOL    HW2 4766  10.053   5.309   5.338 -0.5440 -0.0808 -1.6548
32977SOL     OW 4767  11.336  10.739   8.490  0.7914  0.7624  0.0545
32977SOL    HW1 4768  11.412  10.730   8.432  0.0007 -0.0460 -0.9112
32977SOL    HW2 4769  11.338  10.659   8.543 -0.2085 -0.0278 -1.0395
32978SOL     OW 4770   2.246   5.915   7.756  0.2583  0.2639  0.3155
32978SOL    HW1 4771   2.280   5.998   7.789 -1.9448  0.6248  1.8849
32978SOL    HW2 4772   2.274   5.850   7.821 -0.7031  0.3169  0.7914
32979SOL     OW 4773   8.593   9.853   1.060  0.5589  0.5752 -0.6493
32979SOL    HW1 4774   8.597   9.758   1.062 -0.0183  0.5564  0.0697
32979SOL    HW2 4775   8.655   9.882   1.126 -0.8586  0.6222  0.7210
32980SOL     OW 4776   4.793   5.488   6.643  0.0864  0.4873 -0.6001
32980SOL    HW1 4777   4.745   5.443   6.573 -0.4659  0.6103 -0.3053
32980SOL    HW2 4778   4.820   5.570   6.603  1.4226 -0.2447 -1.2601
32981SOL     OW 4779   4.852   1.692   1.462 -0.1014 -0.1826  0.5940
32981SOL    HW1 4780   4.863   1.787   1.457 -0.0073 -0.1488  1.3424
32981SOL    HW2 4781   4.934   1.661   1.500  0.6088 -0.7620 -1.2979
32982SOL     OW 4782   2.385  12.113  10.529 -0.2244  0.9193  0.0061
32982SOL    HW1 4783   2.478  12.114  10.504  0.0779  0.0997  1.0476
32982SOL    HW2 4784   2.373  12.192  10.580 -0.0701  0.9576 -0.0155
32983SOL     OW 4785  11.058   9.572   9.447 -0.1607  0.9707 -0.9642
32983SOL    HW1 4786  11.122   9.570   9.376  0.7738 -1.2862 -0.1711
32983SOL    HW2 4787  11.108   9.599   9.524  0.3674 -2.2569 -0.0133
32984SOL     OW 4788   6.621   4.541   6.503 -0.2632  0.1856 -0.1281
32984SOL    HW1 4789   6.526   4.547   6.516 -0.2226  1.3408 -0.3058
32984SOL    HW2 4790   6.658   4.553   6.590 -0.2861 -1.1113  0.0866
32985SOL     OW 4791   0.685   7.516  11.995 -0.0327  0.0515  0.0652
32985SOL    HW1 4792   0.632   7.461  12.052 -2.0356  1.3374 -0.4608
32985SOL    HW2 4793   0.622   7.559  11.937  1.7224  0.5802 -1.5586
32986SOL     OW 4794   3.913   8.945   3.437 -0.3880 -0.0644  0.0033
32986SOL    HW1 4795   3.953   8.867   3.399  0.8042  0.0992  0.8676
32986SOL    HW2 4796   3.881   8.916   3.523  1.9032  0.8066  1.2435
32987SOL     OW 4797   7.111   9.519   0.101  0.2439  0.2600 -0.3476
32987SOL    HW1 4798   7.132   9.601   0.054  0.3012 -0.0254 -0.8273
32987SOL    HW2 4799   7.070   9.464   0.035  0.8473 -0.3717 -0.2112
32988SOL     OW 4800   1.540   7.718   0.117  0.2036 -0.0615 -0.1857
32988SOL    HW1 4801   1.596   7.648   0.084 -0.0521 -0.2519 -0.2122
32988SOL    HW2 4802   1.536   7.781   0.044 -1.5337 -1.1516 -1.1072
32989SOL     OW 4803   7.866   5.435   5.133  0.1966  0.0101 -0.5087
32989SOL    HW1 4804   7.789   5.467   5.179 -0.2183  1.4509 -2.1138
32989SOL    HW2 4805   7.884   5.350   5.173 -1.3180  0.2999  0.9008
32990SOL     OW 4806   5.319   0.502   6.942  0.0694  0.5273 -0.1042
32990SOL    HW1 4807   5.229   0.481   6.967 -0.3606  1.3077 -0.9342
32990SOL    HW2 4808   5.371   0.479   7.019 -0.7933 -0.2096  0.2829
32991SOL     OW 4809  10.218  10.207   3.780  0.2582 -0.0897 -0.6725
32991SOL    HW1 4810  10.189  10.240   3.695  2.3819  0.5834 -1.2137
32991SOL    HW2 4811  10.228  10.285   3.834 -1.3075 -0.5365  0.3123
32992SOL     OW 4812   1.295   1.120   0.504  0.5055 -0.4288  0.0933
32992SOL    HW1 4813   1.318   1.057   0.572  0.0737  0.5956  1.2190
32992SOL    HW2 4814   1.203   1.141   0.521  1.1618  2.0045  1.0434
32993SOL     OW 4815   3.832   2.492   3.024 -0.1454 -0.5445  0.4275
32993SOL    HW1 4816   3.874   2.442   2.954 -1.4202 -1.0391 -0.0003
32993SOL    HW2 4817   3.761   2.539   2.980  0.4104  0.8802  1.0013
32994SOL     OW 4818  11.818   5.792   5.725 -0.1233  0.0754 -0.0983
32994SOL    HW1 4819  11.807   5.833   5.639 -0.5166 -1.7673 -0.9660
32994SOL    HW2 4820  11.883   5.846   5.770 -2.5018  3.2584 -0.1115
32995SOL     OW 4821  12.071  11.496   4.077 -0.8099  0.1492  0.0623
32995SOL    HW1 4822  12.097  11.549   4.002 -0.6351  0.6310  0.4566
32995SOL    HW2 4823  12.105  11.543   4.153  2.1015 -2.0852  0.3199
32996SOL     OW 4824   2.835   7.199   6.654  0.4902  0.5831  0.0381
32996SOL    HW1 4825   2.809   7.212   6.563  0.3496  0.6658  0.0898
32996SOL    HW2 4826   2.754   7.209   6.704  0.4757  0.0211  0.1267
32997SOL     OW 4827   1.464  10.434  10.812  0.6076 -0.0329  0.0828
32997SOL    HW1 4828   1.541  10.491  10.806  0.6957 -0.2647 -1.4317
32997SOL    HW2 4829   1.411  10.459  10.737 -0.2584 -0.6654  0.4715
32998SOL     OW 4830   8.665   5.288   6.995  0.4324  0.3524  0.1728
32998SOL    HW1 4831   8.616   5.207   6.983 -0.3390  0.6903  0.9140
32998SOL    HW2 4832   8.702   5.282   7.083  0.3487  0.8027  0.2460
32999SOL     OW 4833   2.686   2.961   9.000 -0.3066  0.3012 -0.0812
32999SOL    HW1 4834   2.598   2.973   8.965 -1.1187 -0.7544  1.4654
32999SOL    HW2 4835   2.735   2.920   8.929 -0.3207  3.0630 -1.8115
33000SOL     OW 4836   5.262   1.345   8.502 -0.6931  0.7146 -0.3841
33000SOL    HW1 4837   5.181   1.340   8.554 -0.1913  0.6872  0.4151
33000SOL    HW2 4838   5.321   1.282   8.544 -1.1890 -1.4314 -2.6908
33001SOL     OW 4839   6.071   7.457  11.371  0.4581  0.3114 -0.2904
33001SOL    HW1 4840   6.151   7.505  11.391  0.5413  0.8342 -1.7073
33001SOL    HW2 4841   6.091   7.410  11.290 -0.5612  0.1934 -0.4944
33002SOL     OW 4842   7.735   3.100   2.419  0.9397  0.2029  0.3841
33002SOL    HW1 4843   7.755   3.118   2.511 -0.6525  0.3925  0.7285
33002SOL    HW2 4844   7.741   3.005   2.412 -1.0668 -0.0476  1.2870
33003SOL     OW 4845   0.991   0.328   1.990 -0.1631  0.1156 -0.2774
33003SOL    HW1 4846   0.906   0.352   2.026 -0.6308  1.1707 -1.9403
33003SOL    HW2 4847   1.021   0.407   1.944  1.8629 -0.1351  0.5075
33004SOL     OW 4848   7.377  11.597   9.213 -0.1369  0.2096  0.1266
33004SOL    HW1 4849   7.466  11.629   9.225 -0.0457  0.6456 -1.5620
33004SOL    HW2 4850   7.332  11.667   9.165 -1.1292 -0.4048  0.1270
33005SOL     OW 4851   8.312   3.898  11.875  0.2215 -1.0536  0.0964
33005SOL    HW1 4852   8.226   3.873  11.841  0.3748 -1.8955  0.2987
33005SOL    HW2 4853   8.296   3.914  11.968 -0.3087  1.7773 -0.3847
33006SOL     OW 4854   7.928  10.248   8.518 -0.4153  0.5461  0.2742
33006SOL    HW1 4855   7.955  10.175   8.574 -0.9526  0.2643  0.1678
33006SOL    HW2 4856   7.989  10.319   8.541  0.7519 -0.2259 -0.3297
33007SOL     OW 4857   6.071   7.193  10.916  0.7445 -0.2881  0.1901
33007SOL    HW1 4858   6.127   7.117  10.929  0.7996 -0.2049  0.4428
33007SOL    HW2 4859   6.121   7.251  10.859  0.1110 -1.0824 -1.2403
33008SOL     OW 4860   3.555  11.231   2.835  0.2648  0.3612 -0.3317
33008SOL    HW1 4861   3.529  11.322   2.851 -0.4852 -0.1294  1.5473
33008SOL    HW2 4862   3.473  11.186   2.817  0.5339 -0.1099 -0.3864
33009SOL     OW 4863  10.012   5.594   6.826 -0.5740  0.2876 -0.6147
33009SOL    HW1 4864   9.972   5.563   6.745  1.2936  0.4890 -1.6735
33009SOL    HW2 4865   9.947   5.575   6.894 -1.1644 -2.2654 -1.7683
33010SOL     OW 4866   9.757   1.885   1.973 -0.8101  0.7371  0.2043
33010SOL    HW1 4867   9.830   1.848   2.022 -0.3258 -1.8702 -2.2782
33010SOL    HW2 4868   9.681   1.836   2.003 -0.5556 -0.6645 -1.3264
33011SOL     OW 4869   7.460   3.740   6.901  0.0720 -0.6670  0.2872
33011SOL    HW1 4870   7.540   3.756   6.851 -0.3285  0.5995  0.0325
33011SOL    HW2 4871   7.425   3.659   6.864 -0.3927  0.3979 -1.7710
33012SOL     OW 4872   0.932   8.523   4.019  0.0650  0.0489 -0.3339
33012SOL    HW1 4873   0.884   8.580   3.959  0.9737  0.1371 -0.9831
33012SOL    HW2 4874   1.020   8.561   4.024  0.4467 -0.8321 -0.1388
33013SOL     OW 4875   0.169  10.003   3.081  0.3425 -0.2820 -0.0153
33013SOL    HW1 4876   0.173  10.052   2.999 -1.3685 -2.6627 -1.6490
33013SOL    HW2 4877   0.099  10.045   3.131 -1.3181 -1.1407 -1.5204
33014SOL     OW 4878  11.439   0.837   4.818 -0.1677  0.2897  0.3181
33014SOL    HW1 4879  11.505   0.862   4.754 -1.5885  1.3253 -0.8455
33014SOL    HW2 4880  11.451   0.743   4.832  0.4162  0.1238 -1.2030
33015SOL     OW 4881   8.564   0.827   3.526  0.0690  0.0787 -0.2047
33015SOL    HW1 4882   8.605   0.794   3.606  1.7143  2.2132 -0.1011
33015SOL    HW2 4883   8.492   0.882   3.557 -0.7469 -0.9100 -0.2940
33016SOL     OW 4884   9.119   7.921   2.347 -0.2695 -0.0648 -0.2037
33016SOL    HW1 4885   9.186   7.921   2.416  0.9663  1.0427 -1.3471
33016SOL    HW2 4886   9.044   7.964   2.388  1.2623  2.9274 -0.1805
33017SOL     OW 4887   1.729  10.856   3.643 -0.9484 -0.1303 -0.0447
33017SOL    HW1 4888   1.800  10.900   3.595 -0.7877 -2.1620 -1.8452
33017SOL    HW2 4889   1.695  10.923   3.702  2.1388  1.0615  0.5691
33018SOL     OW 4890  11.641   9.263   5.288  0.2411  0.2972 -0.6174
33018SOL    HW1 4891  11.596   9.202   5.347 -0.6213 -0.6791 -2.2121
33018SOL    HW2 4892  11.731   9.265   5.319  0.2415 -1.6503 -0.3747
33019SOL     OW 4893   1.307   7.950   0.651  0.0873  0.1612 -0.1579
33019SOL    HW1 4894   1.329   7.867   0.694 -1.9818  1.0753  3.0230
33019SOL    HW2 4895   1.391   7.994   0.642  0.7897 -0.3658  2.6383
33020SOL     OW 4896   9.737   1.589  10.110  0.7147 -0.4256  0.1516
33020SOL    HW1 4897   9.816   1.540  10.132  1.1913  0.7849  1.2787
33020SOL    HW2 4898   9.764   1.681  10.117  0.0713  0.0621 -2.6649
33021SOL     OW 4899  12.180  10.318   0.109  0.4414  0.4630  0.1191
33021SOL    HW1 4900  12.247  10.279   0.052  1.1596  0.6649  0.8132
33021SOL    HW2 4901  12.112  10.346   0.049  0.4230 -0.8240 -0.5107
33022SOL     OW 4902   3.900   2.415   9.904 -0.1534  0.4726  0.3753
33022SOL    HW1 4903   3.858   2.339   9.863  1.5443  0.1851 -0.9430
33022SOL    HW2 4904   3.855   2.490   9.864  0.5729  0.1697 -1.0949
33023SOL     OW 4905   8.743   8.844   8.376  0.4585 -0.6696  0.0602
33023SOL    HW1 4906   8.710   8.856   8.466  0.7230 -0.1405  0.0856
33023SOL    HW2 4907   8.832   8.876   8.378  0.0532  0.5608 -0.7076
33024SOL     OW 4908   4.273   1.723   2.281  0.7275 -0.0502 -0.1501
33024SOL    HW1 4909   4.345   1.687   2.333  0.5947 -0.1314 -0.0251
33024SOL    HW2 4910   4.288   1.688   2.193  1.2497  0.4988 -0.2930
33025SOL     OW 4911   0.232   6.013   8.408 -0.2673  0.2288  0.4919
33025SOL    HW1 4912   0.241   5.919   8.425  1.5171  0.3407  0.3276
33025SOL    HW2 4913   0.182   6.019   8.327 -0.0256 -0.5964  0.2788
33026SOL     OW 4914  10.595  11.737   1.934  0.0223  0.0244 -0.4136
33026SOL    HW1 4915  10.506  11.729   1.968  0.6705 -1.8097  1.0256
33026SOL    HW2 4916  10.585  11.730   1.839 -1.3928  0.2022 -0.2959
33027SOL     OW 4917   6.888   1.762   9.857 -0.0721  0.1966 -0.6125
33027SOL    HW1 4918   6.841   1.711   9.792 -0.0973  1.2404 -1.4434
33027SOL    HW2 4919   6.959   1.804   9.808 -0.6770  1.7838 -0.2091
33028SOL     OW 4920   8.387   6.894   2.896 -0.4972 -0.1605 -0.1954
33028SOL    HW1 4921   8.424   6.946   2.824  0.1120 -0.7582 -0.3332
33028SOL    HW2 4922   8.310   6.852   2.858 -0.3780 -0.1976 -0.4009
33029SOL     OW 4923   7.774   6.964   3.491 -0.8728 -0.6381 -0.1371
33029SOL    HW1 4924   7.825   6.932   3.565  0.2645  1.2844 -0.0152
33029SOL    HW2 4925   7.827   6.941   3.414 -0.5200  0.0550 -0.1120
33030SOL     OW 4926   5.526   4.631   1.700  0.0037 -0.8481 -0.1737
33030SOL    HW1 4927   5.620   4.639   1.712 -0.1874  0.3523  0.6389
33030SOL    HW2 4928   5.516   4.601   1.609  1.1424 -0.7182 -0.3559
33031SOL     OW 4929   4.092  10.278  11.370  0.3473 -0.2477  0.5174
33031SOL    HW1 4930   4.008  10.235  11.388  0.8022 -0.3936  2.5616
33031SOL    HW2 4931   4.157  10.211  11.391  1.0008 -0.1569 -1.1261
33032SOL     OW 4932  12.266   0.748   4.291 -0.0029 -0.3405 -0.5211
33032SOL    HW1 4933  12.179   0.718   4.318  0.1965 -2.0824 -1.6339
33032SOL    HW2 4934  12.249   0.809   4.220 -0.3362  0.0203 -0.1387
33033SOL     OW 4935   2.412   8.438   9.771 -0.3803 -0.0659  0.0585
33033SOL    HW1 4936   2.381   8.348   9.774  0.7078 -0.4534  0.2912
33033SOL    HW2 4937   2.352   8.483   9.713  0.1608 -1.4010 -1.6079
33034SOL     OW 4938  12.198  11.373   7.027  0.3265 -0.4133 -0.0996
33034SOL    HW1 4939  12.154  11.327   6.956  1.3540 -1.1590 -0.2862
33034SOL    HW2 4940  12.128  11.405   7.083 -0.4864 -3.4518  0.8395
33035SOL     OW 4941  11.070   8.185   7.718 -0.0299 -0.3476  0.1098
33035SOL    HW1 4942  11.010   8.259   7.723 -1.2421 -1.3532  0.7972
33035SOL    HW2 4943  11.052   8.144   7.634  0.3539 -0.1225 -0.0878
33036SOL     OW 4944  11.929   9.734   8.340  0.3167 -0.2830 -0.1569
33036SOL    HW1 4945  11.922   9.640   8.329 -1.8221 -0.1987  0.0569
33036SOL    HW2 4946  11.997   9.746   8.407  1.0751 -1.6139 -0.6696
33037SOL     OW 4947   5.961   1.797   0.942  0.0143  0.5890 -0.6387
33037SOL    HW1 4948   5.921   1.884   0.938 -0.0640  0.5072 -1.7907
33037SOL    HW2 4949   5.894   1.743   0.984  0.6830  1.3888  1.6432
33038SOL     OW 4950   5.855   9.344   4.042  0.0742 -0.1269  0.1403
33038SOL    HW1 4951   5.855   9.299   4.127  0.8278 -2.4002 -0.9853
33038SOL    HW2 4952   5.870   9.275   3.978 -1.1463  1.4166 -1.9466
33039SOL     OW 4953   4.035   9.321   2.243  0.2148  0.4865 -0.2360
33039SOL    HW1 4954   3.995   9.327   2.156 -0.6671 -1.0426  0.0185
33039SOL    HW2 4955   3.990   9.387   2.295 -0.3194  0.3878 -0.5692
33040SOL     OW 4956   0.376  11.229   1.454  0.2339  0.1088  0.3257
33040SOL    HW1 4957   0.415  11.181   1.527 -1.7548 -1.5569  0.3934
33040SOL    HW2 4958   0.443  11.293   1.429  1.0626  0.6206  3.4432
33041SOL     OW 4959   6.412   6.564   9.829 -0.2604 -0.1828  0.6888
33041SOL    HW1 4960   6.375   6.547   9.915 -0.4261  0.0426  0.6650
33041SOL    HW2 4961   6.408   6.660   9.819  1.6475  0.0068  1.2741
33042SOL     OW 4962   3.864   0.114   7.377  0.2794  0.1981 -0.0541
33042SOL    HW1 4963   3.933   0.055   7.408 -0.0437 -0.2792 -0.2282
33042SOL    HW2 4964   3.910   0.194   7.353  0.8437 -0.2935 -0.6566
33043SOL     OW 4965   9.998  12.107  10.650 -0.0108 -0.0438 -0.5893
33043SOL    HW1 4966  10.031  12.167  10.583  0.8718  1.4051  1.0571
33043SOL    HW2 4967   9.905  12.125  10.657 -0.0543 -0.0277 -1.2406
33044SOL     OW 4968   4.103   9.622   1.266 -0.0995 -0.2176 -0.0987
33044SOL    HW1 4969   4.018   9.644   1.303 -0.2314 -0.4524 -0.2642
33044SOL    HW2 4970   4.157   9.599   1.342 -0.6671 -1.7240 -0.1391
33045SOL     OW 4971   3.019   2.369   5.940  0.3923 -0.0992  0.5867
33045SOL    HW1 4972   3.060   2.386   5.855 -1.0211  1.7747  0.2114
33045SOL    HW2 4973   2.944   2.428   5.943 -0.3832 -1.0828  2.5990
33046SOL     OW 4974   6.927   6.881   2.044  0.4414  0.0357 -0.7334
33046SOL    HW1 4975   6.833   6.892   2.042  0.1840 -1.4304  0.8952
33046SOL    HW2 4976   6.960   6.952   2.099  0.0752 -0.5148  0.2068
33047SOL     OW 4977   8.755   7.728   8.132 -0.1372 -0.1270 -0.0125
33047SOL    HW1 4978   8.846   7.711   8.155 -0.1852 -1.0780 -0.4736
33047SOL    HW2 4979   8.730   7.803   8.186  0.5833 -0.5458  0.9336
33048SOL     OW 4980   5.528  10.243   3.877 -0.3011  0.2371 -0.2645
33048SOL    HW1 4981   5.545  10.153   3.905 -1.6754  0.1133  0.2652
33048SOL    HW2 4982   5.559  10.245   3.786 -0.5805 -0.8877 -0.4093
33049SOL     OW 4983   8.137   7.723   6.192  0.2042 -0.1484  0.4059
33049SOL    HW1 4984   8.047   7.751   6.211 -0.6753 -0.5749 -2.6803
33049SOL    HW2 4985   8.190   7.801   6.209 -1.1029  0.8954 -0.1081
33050SOL     OW 4986   3.750   7.822   3.755  0.4971 -0.2559  0.1165
33050SOL    HW1 4987   3.728   7.756   3.821  0.2606  0.3516  0.6529
33050SOL    HW2 4988   3.826   7.867   3.791  1.9543 -1.5471 -1.1794
33051SOL     OW 4989   4.811   4.656   5.659  0.8861  0.2979  0.3551
33051SOL    HW1 4990   4.729   4.606   5.665  0.8663  0.2852 -0.0014
33051SOL    HW2 4991   4.788   4.733   5.608  1.5603 -0.7355 -1.6359
33052SOL     OW 4992   0.441   7.300   2.727 -0.3701  0.0475 -0.3838
33052SOL    HW1 4993   0.366   7.258   2.768 -1.7424  3.0232  0.4035
33052SOL    HW2 4994   0.405   7.341   2.648  1.3748 -1.9738 -2.3863
33053SOL     OW 4995   3.433   3.961   6.679  0.0341 -0.1615  0.1005
33053SOL    HW1 4996   3.358   3.902   6.686  0.2349 -0.6183 -1.2638
33053SOL    HW2 4997   3.394   4.048   6.665 -0.2456 -0.0575  1.3490
33054SOL     OW 4998   7.640   3.504  11.535  0.6512 -0.4369 -0.0597
33054SOL    HW1 4999   7.647   3.592  11.574  1.6069 -1.2185  1.6204
33054SOL    HW2 5000   7.624   3.446  11.609 -0.5607 -1.6558 -1.2170
33055SOL     OW 5001   3.488  10.878   2.765  0.3728  0.1991  0.8151
33055SOL    HW1 5002   3.532  10.917   2.841  0.9546 -0.0243  0.5953
33055SOL    HW2 5003   3.419  10.941   2.743  1.3906  1.1847  0.3731
33056SOL     OW 5004  11.197   0.918   2.259 -0.4360 -0.0966  0.3420
33056SOL    HW1 5005  11.126   0.975   2.230  0.3980  0.2512 -1.1264
33056SOL    HW2 5006  11.243   0.894   2.178  2.1507  1.0512  1.3645
33057SOL     OW 5007   7.643  12.190   6.155 -0.4665  0.6211  0.2148
33057SOL    HW1 5008   7.670  12.140   6.232 -0.0470 -1.4439 -1.1907
33057SOL    HW2 5009   7.570  12.244   6.186 -0.0430  0.1758  2.1321
33058SOL     OW 5010   6.932   9.190  10.448 -0.3160 -0.2765 -0.5285
33058SOL    HW1 5011   6.853   9.237  10.423 -1.1382 -0.5948  1.2839
33058SOL    HW2 5012   7.002   9.232  10.399 -1.6727 -0.4877 -2.7712
33059SOL     OW 5013   7.691  11.182   9.490  0.2196 -0.0128  0.5023
33059SOL    HW1 5014   7.638  11.262   9.488  0.9946  0.4989 -1.8770
33059SOL    HW2 5015   7.781  11.212   9.491  0.5163 -0.8809  1.3396
33060SOL     OW 5016   4.542   9.321   9.788  0.7651  0.6787 -0.1530
33060SOL    HW1 5017   4.461   9.320   9.840  0.8354 -1.1279 -0.0154
33060SOL    HW2 5018   4.524   9.384   9.718 -0.5004  0.8356  0.2793
33061SOL     OW 5019   2.241   7.941  10.169  0.2947  0.2323  0.2097
33061SOL    HW1 5020   2.243   8.025  10.122  1.8621  0.2227  0.2047
33061SOL    HW2 5021   2.332   7.912  10.170 -0.2310 -1.5469  0.1108
33062SOL     OW 5022   3.437   1.894  11.801  0.0674 -0.0726  0.2025
33062SOL    HW1 5023   3.461   1.824  11.862  0.3736  0.8064  1.1176
33062SOL    HW2 5024   3.370   1.945  11.848 -0.4913 -0.0136 -0.6349
33063SOL     OW 5025   1.928   5.760   2.960  0.5298  0.1117 -0.2700
33063SOL    HW1 5026   2.014   5.741   2.998  0.8944  0.3521 -0.9548
33063SOL    HW2 5027   1.904   5.680   2.914  0.2877 -0.0296  0.1017
33064SOL     OW 5028   1.291   0.377   0.316 -0.2062 -0.4275  0.6527
33064SOL    HW1 5029   1.381   0.376   0.284 -0.0718  1.2291  0.8563
33064SOL    HW2 5030   1.241   0.328   0.251  0.6148 -0.0917 -0.2567
33065SOL     OW 5031   6.044   2.242   6.348 -0.0097  0.2031  0.3172
33065SOL    HW1 5032   6.004   2.207   6.268 -0.4321  1.7295 -0.1883
33065SOL    HW2 5033   5.974   2.293   6.389  0.3934 -0.0458  1.3252
33066SOL     OW 5034  11.024   1.367   8.862 -0.5672 -0.3715  0.1865
33066SOL    HW1 5035  10.995   1.314   8.936 -2.6682  1.3523  0.7019
33066SOL    HW2 5036  10.944   1.394   8.818  0.2611  2.8435  0.3481
33067SOL     OW 5037   0.352   6.920   4.680  0.3880  0.3533 -0.4114
33067SOL    HW1 5038   0.411   6.960   4.745 -1.8707  1.9374  0.7997
33067SOL    HW2 5039   0.402   6.920   4.599  2.6003  0.1614  0.8581
33068SOL     OW 5040   8.689   2.272  10.790  0.1908 -0.0233 -0.0706
33068SOL    HW1 5041   8.622   2.338  10.771 -0.0055  0.1512  1.1836
33068SOL    HW2 5042   8.771   2.321  10.794 -0.0707  0.3364  1.7815
33069SOL     OW 5043   7.217   1.079   4.681 -0.0347 -0.1150  0.1666
33069SOL    HW1 5044   7.145   1.138   4.705 -1.2710 -1.5050 -0.0234
33069SOL    HW2 5045   7.268   1.129   4.617 -1.5857  0.4237 -0.7075
33070SOL     OW 5046   3.298   5.654   0.201  0.0137 -0.0879  0.0465
33070SOL    HW1 5047   3.302   5.558   0.210  0.0298  0.1125  3.0906
33070SOL    HW2 5048   3.206   5.676   0.219  0.1195  0.5149 -0.1329
33071SOL     OW 5049  10.199   8.696   6.007  0.2028 -0.4919 -0.4206
33071SOL    HW1 5050  10.121   8.669   6.055  0.2729 -0.1846 -0.1325
33071SOL    HW2 5051  10.166   8.741   5.930  0.0858  1.4124  0.6929
33072SOL     OW 5052   5.869   8.839   1.288  0.2448 -0.6498 -0.1036
33072SOL    HW1 5053   5.848   8.933   1.288 -2.0448 -1.1036 -0.4066
33072SOL    HW2 5054   5.922   8.827   1.209  2.0105  0.6151  0.8070
33073SOL     OW 5055   8.627  11.594  11.348 -0.4332  0.2003  0.3380
33073SOL    HW1 5056   8.649  11.659  11.281 -1.2899  1.5434  1.3177
33073SOL    HW2 5057   8.698  11.602  11.413  0.4630 -1.1852 -0.4320
33074SOL     OW 5058  11.710  11.470   8.698  0.4190  0.2427 -0.6588
33074SOL    HW1 5059  11.749  11.542   8.647  0.9887  0.7486  0.4555
33074SOL    HW2 5060  11.618  11.496   8.709  0.9134  1.5203  0.8821
33075SOL     OW 5061   2.066  11.309   2.477  0.2473 -0.0635 -0.2885
33075SOL    HW1 5062   2.007  11.381   2.500 -0.0126 -0.4446  0.2487
33075SOL    HW2 5063   2.154  11.348   2.485  0.1231  0.1157  0.3102
33076SOL     OW 5064   2.017   0.246   4.604  0.1031  0.6281 -0.0080
33076SOL    HW1 5065   2.034   0.232   4.511  0.3471 -0.7432  0.2154
33076SOL    HW2 5066   2.040   0.162   4.645  0.0846  1.2393  1.2984
33077SOL     OW 5067   2.403   8.424   7.653  0.5796 -0.3987 -1.3433
33077SOL    HW1 5068   2.389   8.493   7.589 -0.6908  0.2171 -0.4402
33077SOL    HW2 5069   2.392   8.468   7.738 -1.2982 -1.9019 -0.7551
33078SOL     OW 5070   7.589   8.157  11.864  0.4432 -0.0998 -0.1532
33078SOL    HW1 5071   7.536   8.194  11.934 -0.0176  0.0181 -0.5626
33078SOL    HW2 5072   7.625   8.076  11.901  0.8446  0.3681  0.4848
33079SOL     OW 5073   7.634   9.137   1.478  0.0837  0.3261  0.0814
33079SOL    HW1 5074   7.599   9.130   1.567 -1.1233 -1.4493 -0.4788
33079SOL    HW2 5075   7.576   9.201   1.435 -2.1346 -1.9953 -0.6024
33080SOL     OW 5076   6.039   1.362   6.384  0.3822 -0.4301 -0.4038
33080SOL    HW1 5077   5.979   1.375   6.458 -1.1657 -0.6546 -1.5644
33080SOL    HW2 5078   6.082   1.278   6.401 -0.0050 -0.5059  0.2120
33081SOL     OW 5079   2.946   3.318   2.363 -0.5728  0.6788 -0.4443
33081SOL    HW1 5080   2.902   3.360   2.288  0.8804  0.9465 -1.1739
33081SOL    HW2 5081   2.952   3.226   2.339 -1.7121  0.4273  0.1581
33082SOL     OW 5082   2.591   5.685   2.121 -0.3805 -0.0034 -0.1047
33082SOL    HW1 5083   2.679   5.721   2.130  0.5503 -2.0262 -0.5269
33082SOL    HW2 5084   2.551   5.698   2.207  0.5502  0.3895  0.2815
33083SOL     OW 5085   3.439   8.667  12.134 -1.6523  0.1408  0.0320
33083SOL    HW1 5086   3.498   8.597  12.105 -1.2479  0.3580  0.3182
33083SOL    HW2 5087   3.387   8.688  12.057  0.2914  1.6153 -0.9497
33084SOL     OW 5088   8.588   8.129   2.750  0.3111 -0.0430  0.5127
33084SOL    HW1 5089   8.657   8.062   2.749 -0.8854 -1.3776  2.0474
33084SOL    HW2 5090   8.585   8.157   2.841  0.3718  1.7015  0.0007
33085SOL     OW 5091   0.994   6.752   6.317 -0.2116 -0.0827  0.0846
33085SOL    HW1 5092   0.938   6.788   6.386  0.2049  1.1927 -0.2331
33085SOL    HW2 5093   1.083   6.764   6.349 -0.0401 -0.0762 -0.3898
33086SOL     OW 5094   8.466  11.126   5.720  0.7158 -0.0713 -0.5345
33086SOL    HW1 5095   8.545  11.169   5.751  0.6029  0.0611 -0.4258
33086SOL    HW2 5096   8.400  11.196   5.717  0.2151 -0.4551  0.7494
33087SOL     OW 5097   7.775   8.513   3.473 -0.4742  0.3748  0.4500
33087SOL    HW1 5098   7.796   8.542   3.384  0.4118  0.9506  0.8303
33087SOL    HW2 5099   7.780   8.592   3.526 -1.4441  0.1171  0.9502
33088SOL     OW 5100   4.332   1.188   7.081  0.0832 -0.3152  0.3986
33088SOL    HW1 5101   4.336   1.246   7.156  0.3325 -1.2072  1.0909
33088SOL    HW2 5102   4.239   1.184   7.059  0.0913  0.5296  0.1840
33089SOL     OW 5103   6.286   9.755   6.301 -0.3462  0.4350 -0.1138
33089SOL    HW1 5104   6.197   9.780   6.327 -0.2269  0.1131  0.6135
33089SOL    HW2 5105   6.288   9.772   6.206 -1.2795  0.1457 -0.1976
33090SOL     OW 5106   7.612   5.561   3.371 -0.1253  0.4934 -0.1645
33090SOL    HW1 5107   7.562   5.591   3.294 -1.3131 -0.3739  0.2483
33090SOL    HW2 5108   7.701   5.548   3.337 -0.6416  0.0461 -1.4241
33091SOL     OW 5109   3.455   8.478   4.540 -0.3202  0.7925 -0.0179
33091SOL    HW1 5110   3.395   8.456   4.611  1.1000 -0.8473  0.7866
33091SOL    HW2 5111   3.444   8.407   4.477 -0.1934  1.1955 -0.4957
33092SOL     OW 5112  11.279   4.519   0.629  0.0145 -0.5515 -0.1631
33092SOL    HW1 5113  11.244   4.534   0.541  0.6303  2.1360 -0.0524
33092SOL    HW2 5114  11.352   4.458   0.616  0.5743  0.3726 -1.6815
33093SOL     OW 5115   7.604   9.013  11.742 -0.5652  0.6876  0.8798
33093SOL    HW1 5116   7.570   9.033  11.830 -0.9969  0.4584  0.7675
33093SOL    HW2 5117   7.662   8.939  11.755 -1.3638  0.0404  0.8372
33094SOL     OW 5118   8.117   7.359  10.375 -0.1550  0.1429  0.2804
33094SOL    HW1 5119   8.085   7.448  10.392  0.3309  0.4157 -0.1992
33094SOL    HW2 5120   8.089   7.309  10.452 -1.8486  0.3254 -0.1746
33095SOL     OW 5121   8.576   7.765   2.525  0.4015 -0.3964 -0.1318
33095SOL    HW1 5122   8.605   7.680   2.558  0.3566 -0.8432 -1.2061
33095SOL    HW2 5123   8.513   7.744   2.456  0.9005  0.4955 -0.8812
33096SOL     OW 5124   4.562   0.001  11.531 -0.1443 -0.1328  0.1286
33096SOL    HW1 5125   4.633  -0.042  11.578 -1.6967 -2.5632  0.3791
33096SOL    HW2 5126   4.543  -0.057  11.457 -0.4875  1.5479 -1.1735
33097SOL     OW 5127   7.063   5.023   2.211  0.1948 -0.4813 -0.3002
33097SOL    HW1 5128   6.968   5.015   2.210  0.2555 -1.4609 -1.8252
33097SOL    HW2 5129   7.081   5.089   2.277 -1.5031 -0.7394  0.4656
33098SOL     OW 5130   1.360   1.459  10.941  0.2383  0.1167 -0.3171
33098SOL    HW1 5131   1.282   1.458  10.884  0.0483  1.3383 -0.1152
33098SOL    HW2 5132   1.395   1.547  10.931  0.0625  0.4543  1.6423
33099SOL     OW 5133   4.382   1.898   0.195 -0.0304 -0.6794  0.0275
33099SOL    HW1 5134   4.452   1.840   0.223  1.7267  1.6610  0.7995
33099SOL    HW2 5135   4.426   1.981   0.176 -2.6122  0.9668  0.7474
33100SOL     OW 5136  11.570  10.438   5.237  0.3141  0.7902 -0.1244
33100SOL    HW1 5137  11.584  10.476   5.324  0.8326 -0.4807  0.3788
33100SOL    HW2 5138  11.479  10.458   5.217 -0.1282  0.2287  1.1777
33101SOL     OW 5139   4.406   5.074  10.464 -0.0293  1.2146  0.1379
33101SOL    HW1 5140   4.369   5.151  10.423  1.4756  2.1991  0.5193
33101SOL    HW2 5141   4.495   5.100  10.489  0.1682 -0.3058  1.2290
33102SOL     OW 5142   3.339   0.694   9.213 -0.1639  0.3602 -0.0720
33102SOL    HW1 5143   3.274   0.707   9.282  0.9372  2.1830  0.7179
33102SOL    HW2 5144   3.300   0.734   9.136 -0.6773 -0.0805 -0.0410
33103SOL     OW 5145   6.107   5.837   0.758 -0.2540  0.2929  0.1929
33103SOL    HW1 5146   6.021   5.804   0.784  0.3023 -1.1962  0.2395
33103SOL    HW2 5147   6.159   5.758   0.743  1.4842  1.1613  1.4200
33104SOL     OW 5148  10.716  10.629   1.357  0.0862 -0.6244 -0.6232
33104SOL    HW1 5149  10.784  10.671   1.409 -0.8019 -0.3426  0.3326
33104SOL    HW2 5150  10.675  10.702   1.309 -0.5661 -0.5811 -0.0021
33105SOL     OW 5151   4.951   0.030   5.904  0.2052  0.1909  0.1086
33105SOL    HW1 5152   4.955   0.035   5.808 -0.5644  0.8604  0.1057
33105SOL    HW2 5153   5.035  -0.010   5.929 -0.4629 -2.0273 -0.9819
33106SOL     OW 5154   8.949   4.183   6.095  0.6154  0.4614 -0.2014
33106SOL    HW1 5155   9.035   4.222   6.104 -0.2033  2.2022  0.5318
33106SOL    HW2 5156   8.890   4.243   6.141 -1.3090  0.5197 -2.5239
33107SOL     OW 5157   4.545  12.218   9.847  0.3554 -0.0777 -0.3045
33107SOL    HW1 5158   4.553  12.313   9.836  2.0534 -0.2437 -0.8064
33107SOL    HW2 5159   4.635  12.187   9.854 -0.1760 -1.6451  0.0437
33108SOL     OW 5160   1.118   6.858   1.590 -0.1620 -0.7812  0.3281
33108SOL    HW1 5161   1.117   6.944   1.547  2.6162 -2.3537 -3.5033
33108SOL    HW2 5162   1.048   6.809   1.549  1.7361 -1.9155 -1.7871
33109SOL     OW 5163   6.232   2.980   2.919  0.8021  0.2998  0.9009
33109SOL    HW1 5164   6.289   2.970   2.843 -0.7318 -1.0115 -0.1452
33109SOL    HW2 5165   6.227   2.892   2.956  0.4882  0.6681  1.7465
33110SOL     OW 5166   0.334   7.468   0.807  0.1899 -0.2562  0.2967
33110SOL    HW1 5167   0.308   7.414   0.881 -0.3572 -1.5150 -0.7746
33110SOL    HW2 5168   0.343   7.407   0.734  1.1897  0.8737 -0.5840
33111SOL     OW 5169  11.362   1.244   8.158  0.4675 -0.4682 -0.0994
33111SOL    HW1 5170  11.363   1.240   8.253 -0.1770 -1.1040 -0.1115
33111SOL    HW2 5171  11.398   1.331   8.137  1.0208 -0.4953  0.7008
33112SOL     OW 5172   7.712  10.535   6.764  0.1090  0.1757 -0.2134
33112SOL    HW1 5173   7.702  10.449   6.804  0.5976 -0.3960 -1.2893
33112SOL    HW2 5174   7.664  10.594   6.822  2.2192 -0.3004  2.2078
33113SOL     OW 5175   1.763   5.120   0.634 -0.0117  0.1108  0.7588
33113SOL    HW1 5176   1.731   5.094   0.720  0.3669 -1.6784  0.3957
33113SOL    HW2 5177   1.684   5.130   0.580 -0.2643  1.4616  1.3359
33114SOL     OW 5178  10.757   7.032  10.648 -0.0490 -0.4581 -0.0653
33114SOL    HW1 5179  10.814   6.959  10.625 -1.1064 -1.4285  0.2976
33114SOL    HW2 5180  10.700   7.042  10.572  0.1816  0.0997 -0.1720
33115SOL     OW 5181  10.779   1.479   6.283 -0.0624 -0.1871 -0.8850
33115SOL    HW1 5182  10.756   1.389   6.306  3.2111 -0.5915  1.3727
33115SOL    HW2 5183  10.830   1.471   6.203 -0.1441 -0.2826 -0.9283
33116SOL     OW 5184   2.480   9.692  11.597 -0.2310  0.0531  0.2182
33116SOL    HW1 5185   2.467   9.682  11.502 -0.6475 -0.5923  0.3407
33116SOL    HW2 5186   2.519   9.609  11.624 -1.2804 -0.2534  0.8204
33117SOL     OW 5187   3.557   0.183   7.190  0.0529  0.1281 -0.2849
33117SOL    HW1 5188   3.641   0.225   7.170  0.5329 -0.3146  0.7236
33117SOL    HW2 5189   3.510   0.248   7.242 -0.0882  0.2293 -0.5338
33118SOL     OW 5190   1.795  12.201   9.018 -0.0768 -0.1606  0.2560
33118SOL    HW1 5191   1.700  12.203   9.006  0.0191 -0.7471 -0.6020
33118SOL    HW2 5192   1.816  12.288   9.053 -0.8573  0.1746 -0.0909
33119SOL     OW 5193  10.839   6.360   2.798  0.0262  0.1195  0.1264
33119SOL    HW1 5194  10.835   6.265   2.802 -0.9149  0.1448 -0.1170
33119SOL    HW2 5195  10.750   6.388   2.776  0.3386  1.0438 -0.0289
33120SOL     OW 5196   2.361   7.675   4.385  0.1908 -0.0771 -0.5670
33120SOL    HW1 5197   2.329   7.585   4.389 -0.5077 -0.0206 -3.1503
33120SOL    HW2 5198   2.286   7.726   4.355  0.7151  1.3238  0.3663
33121SOL     OW 5199   4.880   4.632   0.987  0.2145 -0.3040 -0.3812
33121SOL    HW1 5200   4.866   4.644   0.893 -2.0241 -1.6707 -0.2874
33121SOL    HW2 5201   4.837   4.707   1.028  2.1217  0.8795 -0.4184
33122SOL     OW 5202   4.989  10.748  11.206 -0.0428  0.1925 -0.1931
33122SOL    HW1 5203   4.923  10.730  11.140 -0.0121 -0.9344  0.0628
33122SOL    HW2 5204   4.977  10.841  11.228 -0.3634  0.4524 -1.4150
33123SOL     OW 5205   1.154   3.515   3.725 -0.4699 -0.1859 -0.4476
33123SOL    HW1 5206   1.216   3.587   3.738 -1.7915  0.8013  0.7026
33123SOL    HW2 5207   1.142   3.511   3.630 -0.0973  0.8598 -0.5544
33124SOL     OW 5208   2.513   4.765   5.783 -0.4936 -0.3280  0.1786
33124SOL    HW1 5209   2.459   4.755   5.704 -1.4323 -0.2949  0.7976
33124SOL    HW2 5210   2.449   4.772   5.854  0.1850  3.1739  0.6125
33125SOL     OW 5211   8.626   2.107   7.361 -0.1182  0.0491 -0.2386
33125SOL    HW1 5212   8.569   2.176   7.327  0.5399  0.0282 -1.4317
33125SOL    HW2 5213   8.625   2.039   7.293  0.9390 -0.1563 -0.0622
33126SOL     OW 5214  11.226   2.888  12.080  0.7390  0.2454  0.1633
33126SOL    HW1 5215  11.230   2.980  12.107 -1.5631  0.3976  0.2010
33126SOL    HW2 5216  11.242   2.891  11.986  0.3977  0.7401  0.1120
33127SOL     OW 5217  11.095   9.243   8.012  0.6012 -0.0428 -0.1985
33127SOL    HW1 5218  11.144   9.173   7.968  2.6636 -0.0548  1.9135
33127SOL    HW2 5219  11.128   9.324   7.973  1.2636 -0.1187  0.1769
33128SOL     OW 5220   9.311   8.386   2.342 -0.4022 -0.7461  0.5668
33128SOL    HW1 5221   9.316   8.470   2.298  0.6238 -0.0505  1.9352
33128SOL    HW2 5222   9.373   8.330   2.296  0.4485 -0.1136  0.9209
33129SOL     OW 5223   8.073   8.483   9.817 -0.2594 -0.2893 -0.0898
33129SOL    HW1 5224   7.987   8.512   9.789  0.2506  0.1162 -1.3159
33129SOL    HW2 5225   8.130   8.559   9.804  0.1640 -0.3268  1.3773
33130SOL     OW 5226   2.557   9.167  12.063  0.2835 -0.6167  0.2400
33130SOL    HW1 5227   2.547   9.121  12.147  2.4248  0.5037  1.2006
33130SOL    HW2 5228   2.607   9.245  12.085 -0.2244  0.3905 -1.9218
33131SOL     OW 5229   7.131   9.136   2.891 -0.0032  0.2824  0.1834
33131SOL    HW1 5230   7.073   9.177   2.827 -0.9944 -1.0500  0.1652
33131SOL    HW2 5231   7.219   9.150   2.857 -0.4052  1.1560 -0.5264
33132SOL     OW 5232  11.549   0.366   2.282  0.3812  0.6770 -0.1059
33132SOL    HW1 5233  11.480   0.300   2.285 -0.3573  1.4001 -0.5711
33132SOL    HW2 5234  11.618   0.326   2.230 -0.2392  0.4377 -0.7569
33133SOL     OW 5235   7.561  12.258  10.225 -0.2527  0.4517 -0.4337
33133SOL    HW1 5236   7.616  12.180  10.218 -1.5318 -0.8378  2.2454
33133SOL    HW2 5237   7.567  12.300  10.139  3.0386 -0.8099 -0.9467
33134SOL     OW 5238   9.743  10.334   6.774 -0.5417  1.1124 -0.6008
33134SOL    HW1 5239   9.688  10.411   6.782 -1.5007  0.5165 -1.1880
33134SOL    HW2 5240   9.682  10.260   6.782  0.3217  0.4203 -0.2363
33135SOL     OW 5241   3.345  10.371   6.730 -0.8877  0.3660 -0.1179
33135SOL    HW1 5242   3.369  10.460   6.759  0.0932 -1.1473  4.7100
33135SOL    HW2 5243   3.276  10.385   6.665 -1.6291  4.6765  1.2449
33136SOL     OW 5244   6.568   0.324   6.079  0.0179  0.4016  0.2238
33136SOL    HW1 5245   6.557   0.380   6.001  0.5373  2.1875  1.3760
33136SOL    HW2 5246   6.482   0.326   6.122 -0.3389 -0.7776 -0.3808
33137SOL     OW 5247   1.794   4.976   4.184 -0.0107 -0.2253 -0.2623
33137SOL    HW1 5248   1.727   4.912   4.160  0.7212 -1.7537  1.4682
33137SOL    HW2 5249   1.861   4.924   4.231  1.5395  1.5136 -0.4348
33138SOL     OW 5250   0.644   5.224   8.239  0.2049  0.0234 -0.3350
33138SOL    HW1 5251   0.603   5.232   8.325  0.8098 -1.4385  0.1176
33138SOL    HW2 5252   0.615   5.139   8.205  1.0338 -0.0240 -0.9771
33139SOL     OW 5253   5.241   2.307   6.857 -0.2077 -0.0088 -0.7417
33139SOL    HW1 5254   5.195   2.334   6.777 -0.6269  1.3703 -0.0669
33139SOL    HW2 5255   5.175   2.311   6.925  0.5047  0.3362 -0.0575
33140SOL     OW 5256   2.912   7.688   4.364  0.4125 -0.3363 -0.6495
33140SOL    HW1 5257   2.909   7.743   4.442  0.1682 -0.7754 -0.3460
33140SOL    HW2 5258   2.841   7.721   4.309  1.6880  1.1429 -1.4963
33141SOL     OW 5259   3.757   6.154  10.900  0.3979 -0.0177  0.3317
33141SOL    HW1 5260   3.706   6.230  10.872  1.2588  0.4887  0.0969
33141SOL    HW2 5261   3.719   6.130  10.985  0.5590  1.1039  0.7350
33142SOL     OW 5262   5.370   3.297   1.558  0.2293  0.2354  0.3220
33142SOL    HW1 5263   5.280   3.265   1.564  0.1336  0.4418  0.0248
33142SOL    HW2 5264   5.424   3.220   1.576  0.0264 -0.3942 -1.5405
33143SOL     OW 5265   2.611  11.144   8.968  0.1527 -0.1192  0.5321
33143SOL    HW1 5266   2.526  11.146   8.924  0.7624 -0.6351 -0.7433
33143SOL    HW2 5267   2.666  11.090   8.911  1.8188  1.6160  0.3911
33144SOL     OW 5268   8.935   4.330   3.431 -0.7795 -0.1039  0.0990
33144SOL    HW1 5269   8.968   4.334   3.341  1.9790  3.9942  1.0071
33144SOL    HW2 5270   8.852   4.378   3.429 -1.0557 -0.5874 -0.3124
33145SOL     OW 5271   5.895   2.099   3.463  0.0974 -0.2785  0.3019
33145SOL    HW1 5272   5.873   2.030   3.525 -1.1764 -2.0779 -1.9620
33145SOL    HW2 5273   5.966   2.062   3.410  0.1411  0.5872 -0.2677
33146SOL     OW 5274   0.141   2.099  10.338  0.1934  0.7344 -0.8158
33146SOL    HW1 5275   0.070   2.139  10.387  0.6419  1.7437 -0.9529
33146SOL    HW2 5276   0.156   2.014  10.380 -0.9079  0.6224 -0.6353
33147SOL     OW 5277   3.983   2.539   2.447 -0.3487 -0.0753  0.2353
33147SOL    HW1 5278   3.966   2.632   2.438  0.1899 -0.1022 -1.4818
33147SOL    HW2 5279   3.897   2.497   2.436 -0.5134  0.1829  0.5230
33148SOL     OW 5280   7.160   0.838   6.703  0.1042 -0.2621  0.2412
33148SOL    HW1 5281   7.150   0.922   6.658  0.7178 -0.1069  0.3866
33148SOL    HW2 5282   7.158   0.860   6.796 -0.5804 -0.5147  0.2934
33149SOL     OW 5283   4.118   3.455  10.954  0.1512 -0.3556 -0.3614
33149SOL    HW1 5284   4.066   3.528  10.920  2.1015  1.1097 -0.3220
33149SOL    HW2 5285   4.053   3.395  10.990 -1.6106  0.6769 -1.6457
33150SOL     OW 5286   0.939   7.455  10.877  0.0056  0.0800 -0.3063
33150SOL    HW1 5287   0.956   7.488  10.966 -0.9253 -1.8961  0.6834
33150SOL    HW2 5288   0.872   7.513  10.842 -1.0868 -0.2621  1.1065
33151SOL     OW 5289   0.282   0.309   7.865  0.5129 -0.1640  0.6814
33151SOL    HW1 5290   0.250   0.386   7.910  0.7531 -0.7686  1.9167
33151SOL    HW2 5291   0.208   0.249   7.864 -0.6995  1.0915 -2.9275
33152SOL     OW 5292   8.400  12.133  11.267  0.1017 -0.5372  0.1003
33152SOL    HW1 5293   8.334  12.070  11.237  1.2335 -1.6580 -0.1412
33152SOL    HW2 5294   8.349  12.206  11.303 -1.2616 -1.5371  0.2901
33153SOL     OW 5295   2.635   0.598   8.041 -0.4982  0.3133 -0.1250
33153SOL    HW1 5296   2.569   0.530   8.036  0.3660 -0.5836  0.3940
33153SOL    HW2 5297   2.646   0.616   8.134  0.6312 -0.2204 -0.1320
33154SOL     OW 5298   1.133   1.335   5.003 -0.4723 -0.2080 -0.4373
33154SOL    HW1 5299   1.097   1.265   4.949 -1.1116  0.0805 -0.3904
33154SOL    HW2 5300   1.066   1.403   5.003 -1.0757 -0.7242  1.7779
33155SOL     OW 5301   5.273   3.644   4.978  0.1132 -0.0379  0.6285
33155SOL    HW1 5302   5.330   3.709   5.020  0.6074 -0.9506  1.4261
33155SOL    HW2 5303   5.198   3.637   5.038 -1.6374  2.2104 -1.1149
33156SOL     OW 5304   7.549   6.494   2.709  0.2099  0.7686 -0.5550
33156SOL    HW1 5305   7.491   6.480   2.635  0.0421 -1.3305 -0.0901
33156SOL    HW2 5306   7.516   6.435   2.777  2.2302  0.2746  0.0830
33157SOL     OW 5307   7.117   1.693   2.545 -0.0914 -0.8023 -0.4835
33157SOL    HW1 5308   7.068   1.611   2.539 -0.1894 -0.7688 -0.1611
33157SOL    HW2 5309   7.055   1.760   2.515 -0.1894 -0.7820 -0.2408
33158SOL     OW 5310  12.091   7.417   6.261 -0.2530 -0.9144 -0.3843
33158SOL    HW1 5311  12.153   7.406   6.334 -1.0024  0.9177  0.6111
33158SOL    HW2 5312  12.030   7.344   6.269 -0.9153 -0.2128  1.5012
33159SOL     OW 5313   3.491   7.809   4.181  1.0428 -0.2040 -0.4745
33159SOL    HW1 5314   3.441   7.845   4.107 -0.6940 -2.4666 -0.5210
33159SOL    HW2 5315   3.500   7.716   4.161 -0.7742 -1.2469  2.7205
33160SOL     OW 5316   8.789   4.184   2.317  0.1472  0.2063 -0.1583
33160SOL    HW1 5317   8.784   4.117   2.385  0.3024  0.7368  0.3845
33160SOL    HW2 5318   8.847   4.251   2.354 -1.1249  1.3207 -0.1017
33161SOL     OW 5319   5.398  11.618   5.706 -0.1104 -0.4894  0.2647
33161SOL    HW1 5320   5.319  11.651   5.662  1.0117  0.0755 -1.3960
33161SOL    HW2 5321   5.366  11.546   5.761 -2.0366  0.8505  0.9942
33162SOL     OW 5322   2.392   2.258   3.481 -0.9220  0.5025 -0.2195
33162SOL    HW1 5323   2.441   2.297   3.408  1.0222 -1.2169  0.0687
33162SOL    HW2 5324   2.395   2.325   3.550 -0.4094  1.0779 -0.7788
33163SOL     OW 5325   3.984   2.500   5.569  0.2851  0.0443  0.2670
33163SOL    HW1 5326   3.912   2.456   5.613 -1.5031  2.7676  0.2979
33163SOL    HW2 5327   3.973   2.477   5.477  0.1113 -0.5160  0.4251
33164SOL     OW 5328   7.743   2.695   6.919  0.6861 -0.2190  0.0374
33164SOL    HW1 5329   7.659   2.692   6.965  0.7894 -1.1999  0.1922
33164SOL    HW2 5330   7.778   2.606   6.929  2.1476  0.4165  0.7359
33165SOL     OW 5331   7.087  11.789   2.144 -0.0010 -0.2564  0.6519
33165SOL    HW1 5332   7.019  11.856   2.143 -1.1006 -1.3535  0.1278
33165SOL    HW2 5333   7.040  11.706   2.134  1.2424 -1.2059  2.1013
33166SOL     OW 5334   1.169   9.878   4.678 -0.0802 -0.5648  0.3025
33166SOL    HW1 5335   1.100   9.894   4.743  0.7837 -0.3286  1.1838
33166SOL    HW2 5336   1.204   9.965   4.658  0.9832 -0.8105  1.0200
33167SOL     OW 5337   0.910   6.813   7.159  0.3439  0.1509  0.6250
33167SOL    HW1 5338   1.003   6.794   7.151 -0.1386 -2.6456  0.4676
33167SOL    HW2 5339   0.889   6.789   7.249 -0.3274  0.2227  0.4907
33168SOL     OW 5340   5.116   1.313   6.448 -0.1944 -0.4823 -0.4675
33168SOL    HW1 5341   5.034   1.278   6.411 -1.3058 -1.3401  2.5328
33168SOL    HW2 5342   5.109   1.408   6.434 -1.5734 -0.5718 -0.5723
33169SOL     OW 5343   2.595  10.899   7.999 -0.0010 -0.3037  0.4854
33169SOL    HW1 5344   2.661  10.968   7.997  0.1976 -0.4912 -0.9770
33169SOL    HW2 5345   2.528  10.929   7.937  0.2816 -1.5592 -0.4781
33170SOL     OW 5346   9.256   1.991  12.049  0.0155 -0.2288 -0.5158
33170SOL    HW1 5347   9.278   1.996  12.142 -0.4993  1.6033 -0.4517
33170SOL    HW2 5348   9.232   1.900  12.035  0.5054 -0.6292  1.0553
33171SOL     OW 5349   7.574   3.916  12.303 -0.5050  0.1431  0.1509
33171SOL    HW1 5350   7.610   3.979  12.365 -1.2787  0.0200  0.7406
33171SOL    HW2 5351   7.599   3.831  12.338  2.0326  0.0720 -1.5426
33172SOL     OW 5352   6.365   3.745   0.020 -0.3053  0.0616 -0.0771
33172SOL    HW1 5353   6.409   3.779  -0.058 -0.8311  3.0006  0.7981
33172SOL    HW2 5354   6.290   3.802   0.032 -0.9830 -1.1467  1.8485
33173SOL     OW 5355  11.003   3.977   6.289  0.5851 -0.0245  0.0491
33173SOL    HW1 5356  10.993   3.882   6.296  0.9519  0.0288  1.8414
33173SOL    HW2 5357  10.944   4.003   6.218  0.2017 -1.5508 -0.2114
33174SOL     OW 5358   1.665   4.265  12.148  0.0739  0.4460  0.1152
33174SOL    HW1 5359   1.734   4.223  12.200 -0.4697 -1.2588 -0.4594
33174SOL    HW2 5360   1.585   4.252  12.199 -0.0161  1.3152  0.1975
33175SOL     OW 5361   1.569   3.857   8.733 -0.0978  0.4406  0.2047
33175SOL    HW1 5362   1.529   3.813   8.659  2.6129  0.0172 -1.1399
33175SOL    HW2 5363   1.588   3.946   8.701 -0.5406  0.8414  1.0225
33176SOL     OW 5364   4.217   3.282   5.053  0.1374  0.3969  0.4535
33176SOL    HW1 5365   4.250   3.212   4.998  0.7960  2.1804 -1.5170
33176SOL    HW2 5366   4.141   3.316   5.006 -1.9328 -0.7204  2.7412
33177SOL     OW 5367   4.691   2.082   4.008 -0.2106 -0.0845 -0.6032
33177SOL    HW1 5368   4.691   2.175   3.983 -0.5335 -0.2188 -1.1171
33177SOL    HW2 5369   4.783   2.063   4.027 -0.2267  0.4873  0.0772
33178SOL     OW 5370   6.830   4.534   1.538 -0.1859 -0.7686 -0.2250
33178SOL    HW1 5371   6.883   4.566   1.611 -0.1639 -0.1836 -0.4905
33178SOL    HW2 5372   6.894   4.504   1.473 -0.1807 -0.2865 -0.4459
33179SOL     OW 5373   9.137   1.680  10.839 -1.0780  0.4490 -0.3312
33179SOL    HW1 5374   9.148   1.687  10.934 -2.6624  0.3133 -0.1241
33179SOL    HW2 5375   9.207   1.735  10.804 -0.6047  0.6840  0.9098
33180SOL     OW 5376   9.189   0.741   8.090  0.4489  0.5578  0.0286
33180SOL    HW1 5377   9.172   0.648   8.107 -0.7199  0.7190 -0.1938
33180SOL    HW2 5378   9.239   0.741   8.008 -0.7045  0.1816 -0.6919
33181SOL     OW 5379  12.021   0.104   9.466  0.3662 -0.8560 -0.2282
33181SOL    HW1 5380  11.982   0.142   9.545  2.9620 -0.0879  0.8001
33181SOL    HW2 5381  12.090   0.047   9.499  0.7321 -1.4643 -1.9494
33182SOL     OW 5382   7.984  11.909  11.250 -0.1249  0.0483  0.0995
33182SOL    HW1 5383   7.987  11.966  11.327 -1.7685  1.0533 -0.5278
33182SOL    HW2 5384   7.971  11.969  11.176 -0.9554 -1.0553 -0.6881
33183SOL     OW 5385   9.951   1.043  11.534 -0.2579  0.0367 -0.9020
33183SOL    HW1 5386   9.861   1.024  11.560  0.9291 -1.1564  3.1164
33183SOL    HW2 5387   9.981   1.107  11.599  1.9049  0.1194 -1.8984
33184SOL     OW 5388   0.701  10.434   3.771 -0.5150  0.6078  0.4139
33184SOL    HW1 5389   0.718  10.498   3.840 -1.3735  0.4022  0.8306
33184SOL    HW2 5390   0.743  10.353   3.802 -0.8520  0.5305  0.6757
33185SOL     OW 5391   7.910   3.899   1.554 -0.2224  0.3453  0.4638
33185SOL    HW1 5392   7.861   3.976   1.583 -0.1579  0.4345  0.3352
33185SOL    HW2 5393   7.975   3.885   1.624 -0.3641  0.2879  0.5834
33186SOL     OW 5394   7.562  11.740   0.053 -0.0812 -0.4153  0.3057
33186SOL    HW1 5395   7.547  11.774   0.142  0.8444  2.4751 -0.5479
33186SOL    HW2 5396   7.656  11.748   0.040  0.0194 -2.3479 -0.4091
33187SOL     OW 5397  11.756  11.608   7.242 -0.1044  0.0944 -0.1445
33187SOL    HW1 5398  11.671  11.623   7.200 -0.0236 -0.0424 -0.3635
33187SOL    HW2 5399  11.820  11.628   7.173  0.1437  2.6589  0.7376
33188SOL     OW 5400   9.964  11.799   7.510  0.5935 -0.3601  0.2696
33188SOL    HW1 5401   9.994  11.830   7.595  2.5213  0.6099 -0.7016
33188SOL    HW2 5402  10.020  11.723   7.491  2.8408  1.6523 -1.7077
33189SOL     OW 5403   1.416   6.335   5.637 -0.3627  0.0328  0.3095
33189SOL    HW1 5404   1.482   6.370   5.696  0.4166  1.2481 -1.2131
33189SOL    HW2 5405   1.386   6.410   5.587 -0.9398 -0.9511 -0.8864
33190SOL     OW 5406   1.065  11.265   6.051 -0.0698  0.1528 -0.5108
33190SOL    HW1 5407   1.015  11.221   6.120 -0.0609  0.3888 -0.3517
33190SOL    HW2 5408   1.051  11.358   6.068  0.0497  0.2127 -0.7428
33191SOL     OW 5409   0.620   3.661   5.485 -0.2279  0.3694  0.1867
33191SOL    HW1 5410   0.565   3.584   5.497 -0.3324  0.1961 -1.2040
33191SOL    HW2 5411   0.563   3.735   5.504 -0.5054  0.1437  0.2301
33192SOL     OW 5412   4.640   6.760   5.680 -0.2785 -0.2386  0.1903
33192SOL    HW1 5413   4.570   6.776   5.616  0.0475 -0.1145 -0.1426
33192SOL    HW2 5414   4.631   6.668   5.703 -0.4945 -0.2476  0.0769
33193SOL     OW 5415   6.898   5.708  11.611  0.2327 -0.3143 -0.5049
33193SOL    HW1 5416   6.979   5.692  11.659  1.8628 -0.4975 -3.1833
33193SOL    HW2 5417   6.923   5.710  11.519 -2.5229  1.4082 -1.3654
33194SOL     OW 5418   3.360  12.091   6.431 -0.3396  0.2221  0.4605
33194SOL    HW1 5419   3.433  12.051   6.383  0.0448  1.1068  0.2935
33194SOL    HW2 5420   3.293  12.107   6.364 -0.1164  0.7283  0.3561
33195SOL     OW 5421  11.712   1.636   7.679 -0.1015  0.1367  0.0848
33195SOL    HW1 5422  11.690   1.599   7.593  0.6013 -0.0882 -0.0020
33195SOL    HW2 5423  11.627   1.649   7.721 -0.4045 -0.9121 -0.1562
33196SOL     OW 5424   9.712   3.341   4.182 -0.2552 -0.4247  0.3283
33196SOL    HW1 5425   9.772   3.414   4.198 -0.3085 -0.8148  2.6663
33196SOL    HW2 5426   9.703   3.338   4.087  0.4086  2.0551  0.1114
33197SOL     OW 5427   6.625   9.446   1.095  0.6828 -0.1589 -0.0418
33197SOL    HW1 5428   6.600   9.426   1.005  0.7419 -0.2580 -0.0354
33197SOL    HW2 5429   6.576   9.383   1.148 -0.1480  0.5514  0.0661
33198SOL     OW 5430   0.341   6.130   0.266  0.0439  0.1655 -0.0412
33198SOL    HW1 5431   0.389   6.163   0.342 -0.1333 -0.7759  0.4996
33198SOL    HW2 5432   0.360   6.036   0.265 -1.5633 -0.1962  0.0402
33199SOL     OW 5433   2.522   3.887   2.106  0.2162 -0.1605  0.1618
33199SOL    HW1 5434   2.481   3.935   2.178  0.0509  0.9778 -0.6829
33199SOL    HW2 5435   2.485   3.925   2.027  0.6565 -1.1736 -0.5441
33200SOL     OW 5436  10.026   3.463   1.195  0.1188  0.6260  0.4932
33200SOL    HW1 5437  10.077   3.431   1.269 -0.1603 -0.4793  0.2141
33200SOL    HW2 5438  10.079   3.534   1.158  0.5874  0.7068  1.3174
33201SOL     OW 5439   6.636   2.560   9.904 -0.1558 -0.1415  0.1776
33201SOL    HW1 5440   6.729   2.571   9.919  0.0302 -0.5182 -0.6202
33201SOL    HW2 5441   6.626   2.572   9.809 -0.7358 -1.2681  0.0802
33202SOL     OW 5442   5.065   6.256  11.315 -0.2160 -0.3281 -0.0297
33202SOL    HW1 5443   4.996   6.211  11.363  1.8808 -2.6014  1.0814
33202SOL    HW2 5444   5.020   6.325  11.266 -3.2641 -1.9340  0.3082
33203SOL     OW 5445   4.850   6.198  10.322  0.3734 -0.1325  0.1018
33203SOL    HW1 5446   4.886   6.277  10.364 -0.6479  0.4377 -0.0510
33203SOL    HW2 5447   4.761   6.223  10.298  0.1908 -1.1975 -0.3711
33204SOL     OW 5448   4.755   1.193   3.390 -0.2289  0.1126  0.6702
33204SOL    HW1 5449   4.772   1.255   3.319  1.0504  0.1036  0.9418
33204SOL    HW2 5450   4.718   1.116   3.347 -0.5382  0.5380  0.1631
33205SOL     OW 5451   2.558   6.892   7.725 -0.2353 -0.2655  0.2756
33205SOL    HW1 5452   2.521   6.838   7.655 -0.8103 -1.4267  1.4341
33205SOL    HW2 5453   2.601   6.965   7.679 -1.9913 -0.0880 -1.2223
33206SOL     OW 5454   8.741   0.860   1.612 -0.4264  0.3090 -0.1765
33206SOL    HW1 5455   8.834   0.883   1.605 -0.2331  0.0070  1.2233
33206SOL    HW2 5456   8.697   0.945   1.621  0.0788  0.3684  2.7109
33207SOL     OW 5457   5.515   1.595   2.734  0.6090 -0.1011 -0.2825
33207SOL    HW1 5458   5.579   1.625   2.668  2.4496 -1.2501  0.9101
33207SOL    HW2 5459   5.568   1.562   2.806 -1.3602  0.0959  1.3495
33208SOL     OW 5460   2.407   2.400   2.294  0.2388 -0.4882 -0.1771
33208SOL    HW1 5461   2.489   2.380   2.249  0.9468  0.5358  0.5943
33208SOL    HW2 5462   2.344   2.415   2.224  0.9894 -0.2024 -0.8059
33209SOL     OW 5463   6.030   3.272   2.741 -0.4563  0.1970  0.3788
33209SOL    HW1 5464   5.936   3.284   2.756 -0.2810  0.8985  0.9871
33209SOL    HW2 5465   6.051   3.330   2.668 -0.7650 -1.0937 -0.7872
33210SOL     OW 5466   7.793   4.551   7.214 -0.3916 -0.3076 -0.6489
33210SOL    HW1 5467   7.807   4.603   7.135 -0.6233 -1.4976 -1.4968
33210SOL    HW2 5468   7.748   4.473   7.184  1.2998 -1.7517  0.3310
33211SOL     OW 5469   8.723   0.743  10.624 -0.1657 -0.0660 -0.6178
33211SOL    HW1 5470   8.779   0.744  10.701 -1.6825 -0.1618  0.5183
33211SOL    HW2 5471   8.648   0.796  10.648 -0.1497  0.8562 -2.4551
33212SOL     OW 5472   6.485   2.683   4.738  1.0082 -1.2098  0.7028
33212SOL    HW1 5473   6.445   2.697   4.824  0.8570 -0.4415  0.5127
33212SOL    HW2 5474   6.564   2.632   4.757  0.6704 -1.5548  1.2295
33213SOL     OW 5475   3.542  10.775   1.888 -0.1086  0.4003  0.3191
33213SOL    HW1 5476   3.485  10.800   1.961 -1.1993 -1.6428  0.2255
33213SOL    HW2 5477   3.529  10.681   1.878  2.2512  0.0928 -0.6252
33214SOL     OW 5478   7.558   0.884   1.308 -0.1173  0.1712  0.0782
33214SOL    HW1 5479   7.483   0.829   1.330 -0.9046  1.3358  0.4138
33214SOL    HW2 5480   7.629   0.851   1.364 -0.3476 -0.9514 -0.2564
33215SOL     OW 5481  11.059   7.671   4.279 -0.4156 -0.4221 -0.3608
33215SOL    HW1 5482  11.077   7.581   4.254  0.5927  0.0771 -1.5467
33215SOL    HW2 5483  11.000   7.703   4.210  0.1013  0.1398 -0.5451
33216SOL     OW 5484   7.745   7.529   6.713 -0.2537 -0.6586  0.7455
33216SOL    HW1 5485   7.782   7.445   6.741 -0.9685 -1.1276  0.3127
33216SOL    HW2 5486   7.711   7.513   6.625 -0.1628  0.1563  0.5559
33217SOL     OW 5487  11.504  11.769   4.613 -0.3181  0.0036  0.1225
33217SOL    HW1 5488  11.424  11.733   4.650  0.8412  0.0357  2.8864
33217SOL    HW2 5489  11.515  11.722   4.530 -1.6345 -2.1760  1.0883
33218SOL     OW 5490   9.218   2.723   4.733  0.7154 -0.2525  0.4508
33218SOL    HW1 5491   9.200   2.697   4.643  0.5596  0.4266  0.2730
33218SOL    HW2 5492   9.190   2.815   4.736 -0.1638 -0.5398  1.4418
33219SOL     OW 5493   5.021  11.313  10.073 -0.2015  0.0192  0.1166
33219SOL    HW1 5494   4.992  11.281   9.988  0.8848 -0.3814 -0.1213
33219SOL    HW2 5495   5.109  11.347  10.056 -1.1404  2.8738  0.4074
33220SOL     OW 5496   9.028   8.273   5.964 -0.0628 -0.2819 -0.0791
33220SOL    HW1 5497   8.945   8.255   6.008 -0.4660 -0.8759 -1.0416
33220SOL    HW2 5498   9.063   8.351   6.008 -1.1879  0.0453  0.2525
33221SOL     OW 5499   2.706  11.321   2.423 -0.6245  0.1484 -0.2286
33221SOL    HW1 5500   2.689  11.228   2.434 -2.0078  0.3375 -0.5635
33221SOL    HW2 5501   2.794  11.334   2.459 -0.1178 -1.3976 -0.8142
33222SOL     OW 5502   8.905   4.103   6.638 -0.3965 -0.3232 -0.5213
33222SOL    HW1 5503   8.837   4.072   6.577 -1.3367 -2.2196  1.3481
33222SOL    HW2 5504   8.906   4.037   6.708  0.9164  1.5238  1.3166
33223SOL     OW 5505  10.741  12.259   8.121 -0.2957  0.2969 -0.1219
33223SOL    HW1 5506  10.679  12.320   8.081 -1.6714 -0.3390  0.9747
33223SOL    HW2 5507  10.727  12.269   8.215 -0.0324 -1.1670  0.0933
33224SOL     OW 5508   0.355   7.766   1.118 -0.0892  0.2855 -0.2616
33224SOL    HW1 5509   0.422   7.721   1.067  0.2062  0.9941 -0.5114
33224SOL    HW2 5510   0.338   7.847   1.069 -2.3844 -0.6411 -1.1503
33225SOL     OW 5511  11.194   4.359  11.618 -0.6494  0.2525  0.9800
33225SOL    HW1 5512  11.180   4.275  11.662 -0.2146  1.0307  2.6733
33225SOL    HW2 5513  11.198   4.336  11.525 -1.4368 -1.4745  1.3275
33226SOL     OW 5514   0.727   5.694   7.094  0.2213  0.1722 -0.2399
33226SOL    HW1 5515   0.793   5.728   7.034  1.5663 -1.3805  0.2969
33226SOL    HW2 5516   0.721   5.759   7.164  0.2567  0.9240 -0.9290
33227SOL     OW 5517   3.705   1.615   1.714 -0.5076 -0.0804 -0.2755
33227SOL    HW1 5518   3.778   1.554   1.723  1.1379  1.1682 -3.4985
33227SOL    HW2 5519   3.629   1.560   1.695 -0.2758 -1.3349  2.0842
33228SOL     OW 5520   1.841   3.670   7.662 -0.7353  0.6059  0.2962
33228SOL    HW1 5521   1.875   3.616   7.733  0.5888  3.7448  2.2352
33228SOL    HW2 5522   1.916   3.683   7.604 -1.4432 -0.7502 -1.0020
33229SOL     OW 5523   1.748   8.155   9.810 -0.0030 -0.0193  0.6669
33229SOL    HW1 5524   1.698   8.227   9.771 -0.6172 -1.7009 -1.9645
33229SOL    HW2 5525   1.809   8.129   9.741  0.7333 -1.5099  1.8351
33230SOL     OW 5526   9.195   1.461   2.896  0.0829 -0.4124 -0.6829
33230SOL    HW1 5527   9.129   1.513   2.942 -0.1074 -1.5444  0.3536
33230SOL    HW2 5528   9.267   1.453   2.959  1.3406  0.9590 -1.8511
33231SOL     OW 5529   0.319   5.638   2.603  0.2652 -0.6544  0.0471
33231SOL    HW1 5530   0.346   5.729   2.619  2.5375 -1.4388  1.0346
33231SOL    HW2 5531   0.326   5.627   2.509 -0.1516  0.2071 -0.0966
33232SOL     OW 5532   4.142   0.768   4.261 -0.1642  0.5879 -0.3657
33232SOL    HW1 5533   4.140   0.745   4.354 -1.2170 -1.1111 -0.7670
33232SOL    HW2 5534   4.225   0.815   4.250  0.0106  0.7728  1.3966
33233SOL     OW 5535   2.534   8.609  11.639  0.1800 -0.2705  0.3333
33233SOL    HW1 5536   2.554   8.646  11.725 -1.9455 -0.9878  1.2018
33233SOL    HW2 5537   2.496   8.683  11.591  1.1753  0.0782  0.0648
33234SOL     OW 5538   8.981  12.019   5.405  0.3190 -0.2212 -0.0643
33234SOL    HW1 5539   9.058  12.013   5.348  0.7733  1.1179  0.3752
33234SOL    HW2 5540   8.909  11.986   5.351  1.1617 -1.3299 -0.5391
33235SOL     OW 5541   2.483  11.878   7.993 -0.0897  0.4014 -0.0720
33235SOL    HW1 5542   2.487  11.938   7.919 -0.0808  0.4344 -0.0450
33235SOL    HW2 5543   2.391  11.852   7.999  0.0496 -0.2331 -0.5967
33236SOL     OW 5544   1.013   1.326   7.083  0.3461 -0.5254  0.2567
33236SOL    HW1 5545   0.930   1.367   7.057  1.0125  0.8566  0.2340
33236SOL    HW2 5546   1.004   1.311   7.177 -0.0444 -0.6937  0.1971
33237SOL     OW 5547   5.356   2.718  10.450 -0.3717  0.4555 -0.4148
33237SOL    HW1 5548   5.424   2.739  10.515 -1.6680 -1.1139  1.5735
33237SOL    HW2 5549   5.388   2.758  10.369  2.2443  0.9527  0.7363
33238SOL     OW 5550   0.589   3.370   0.057  0.1122  0.1643 -0.3837
33238SOL    HW1 5551   0.593   3.425   0.136 -0.6412 -1.2695  0.7051
33238SOL    HW2 5552   0.496   3.368   0.034  0.3047  0.4035 -1.1906
33239SOL     OW 5553   1.125  10.841   7.282  0.1046 -0.7393  0.4651
33239SOL    HW1 5554   1.116  10.801   7.369  1.7041 -0.2439  0.8900
33239SOL    HW2 5555   1.215  10.821   7.256 -0.1568 -0.3222 -0.7997
33240SOL     OW 5556   0.893   2.752   1.521  0.1011  0.4876  0.0808
33240SOL    HW1 5557   0.924   2.769   1.610 -1.6373  1.2029  0.5875
33240SOL    HW2 5558   0.823   2.816   1.507  0.7376  0.8053 -2.0444
33241SOL     OW 5559   6.534   0.382  11.574  0.7235 -0.4044 -0.1373
33241SOL    HW1 5560   6.607   0.396  11.513  1.3133 -1.1445  0.3661
33241SOL    HW2 5561   6.512   0.289  11.564  0.6359 -0.4654  0.5539
33242SOL     OW 5562   3.845   9.623  10.258  0.3395  0.2559  0.0147
33242SOL    HW1 5563   3.803   9.567  10.324  1.0320 -0.4961 -0.1570
33242SOL    HW2 5564   3.925   9.575  10.234  0.9268  1.3021 -0.1803
33243SOL     OW 5565   0.836   7.318   8.710 -0.4393  0.8200  0.0372
33243SOL    HW1 5566   0.922   7.289   8.740  0.3191  1.3689 -1.5319
33243SOL    HW2 5567   0.808   7.381   8.777  1.8651  3.1330 -1.0344
33244SOL     OW 5568  10.713  12.235   9.809  0.2712  0.3996  0.0496
33244SOL    HW1 5569  10.781  12.180   9.849 -0.1551  0.3329  0.6887
33244SOL    HW2 5570  10.640  12.176   9.794 -0.6194  0.9925  1.7911
33245SOL     OW 5571   7.497   1.399   5.860  0.0743 -0.7692  0.5226
33245SOL    HW1 5572   7.421   1.371   5.910 -0.0464  0.0262  0.8028
33245SOL    HW2 5573   7.561   1.329   5.871  0.1819 -0.4697  2.0861
33246SOL     OW 5574   0.118   4.088   5.481  0.2899 -0.4460 -0.1262
33246SOL    HW1 5575   0.133   4.136   5.562 -0.4913  0.1087 -0.2940
33246SOL    HW2 5576   0.169   4.135   5.415 -1.6486  1.1658 -0.6065
33247SOL     OW 5577   1.195   8.439   9.738 -0.1926  0.1321 -0.3789
33247SOL    HW1 5578   1.170   8.460   9.648  0.0436  0.8845 -0.2795
33247SOL    HW2 5579   1.254   8.510   9.763  1.8275 -1.4045 -0.4930
33248SOL     OW 5580   2.906   6.478   4.006 -0.1858 -0.5424  0.0305
33248SOL    HW1 5581   2.830   6.537   4.008  0.4441  0.2691  1.5894
33248SOL    HW2 5582   2.971   6.521   4.062  0.7239 -2.1742  0.2803
33249SOL     OW 5583   4.434   1.790  12.062 -0.1164  0.3085  0.3328
33249SOL    HW1 5584   4.404   1.747  11.981  1.5192  0.7533 -0.5489
33249SOL    HW2 5585   4.464   1.718  12.117  2.2917  0.1822 -1.0028
33250SOL     OW 5586   8.919   5.081   3.058  0.0772 -0.5399 -0.2630
33250SOL    HW1 5587   8.932   4.989   3.084  1.1840 -0.2390  0.2975
33250SOL    HW2 5588   8.837   5.080   3.009 -0.9378 -1.5163  1.3396
33251SOL     OW 5589   0.024   5.779   7.803  0.0721 -0.0958  0.0575
33251SOL    HW1 5590   0.006   5.703   7.748  1.2767  0.2701 -0.8890
33251SOL    HW2 5591  -0.058   5.828   7.804  0.0921  0.0118 -1.6255
33252SOL     OW 5592   9.373   7.442   6.525 -0.2723 -0.0040  0.0086
33252SOL    HW1 5593   9.414   7.506   6.584 -0.7823  0.8258 -0.5117
33252SOL    HW2 5594   9.437   7.429   6.455 -0.5494  0.6942 -0.3915
33253SOL     OW 5595   7.322  12.067  10.174  0.0289  0.7605 -0.4805
33253SOL    HW1 5596   7.371  12.076  10.256  0.4422  0.8051 -0.7290
33253SOL    HW2 5597   7.389  12.060  10.106 -0.2935 -0.9905 -0.6462
33254SOL     OW 5598   1.356   9.232   6.207 -0.0282  0.0104  0.2061
33254SOL    HW1 5599   1.422   9.286   6.249 -1.4548  1.9514  0.0844
33254SOL    HW2 5600   1.325   9.285   6.133 -2.9589 -0.0167  1.2956
33255SOL     OW 5601   3.554   6.907   3.858 -0.2468 -0.3305  0.1042
33255SOL    HW1 5602   3.466   6.873   3.841 -1.1690 -0.4380  4.1798
33255SOL    HW2 5603   3.541   7.001   3.868  0.4014 -0.1513 -0.6645
33256SOL     OW 5604   0.738   4.523   4.438  0.1108 -0.4806  0.5005
33256SOL    HW1 5605   0.782   4.481   4.363  0.2243  0.0452  0.2676
33256SOL    HW2 5606   0.701   4.604   4.402 -0.5886 -0.6497  0.8179
33257SOL     OW 5607   1.198   6.083  11.221 -1.0275  0.5568 -0.4086
33257SOL    HW1 5608   1.162   6.000  11.253 -0.0964  0.0250 -0.6865
33257SOL    HW2 5609   1.293   6.071  11.225 -0.8554  0.8765 -2.2701
33258SOL     OW 5610   1.904   4.329   7.728 -0.7851  0.5469 -0.0458
33258SOL    HW1 5611   1.811   4.330   7.708 -0.9404 -1.1420  0.4619
33258SOL    HW2 5612   1.946   4.309   7.644 -0.7020  3.1036 -0.6809
33259SOL     OW 5613   4.782   7.603   2.028 -0.1528  0.4831  0.3361
33259SOL    HW1 5614   4.688   7.604   2.044 -0.0617  0.2257  0.9530
33259SOL    HW2 5615   4.821   7.596   2.116  0.4277  0.3096  0.0720
33260SOL     OW 5616   0.922   8.701   6.096 -0.6036 -0.1813  0.5426
33260SOL    HW1 5617   0.984   8.637   6.062  0.1723  0.2892  1.0258
33260SOL    HW2 5618   0.969   8.785   6.092 -0.9822  0.0936  1.4514
33261SOL     OW 5619  11.034  10.405  12.331  0.0044 -0.1035 -0.1969
33261SOL    HW1 5620  11.035  10.376  12.240  0.6240 -1.7708  0.3150
33261SOL    HW2 5621  11.044  10.325  12.382  0.2115  0.8630  1.3304
33262SOL     OW 5622   2.147  10.722   0.682 -0.3458  0.2542 -0.0760
33262SOL    HW1 5623   2.217  10.670   0.722  0.0069  0.7582 -0.0377
33262SOL    HW2 5624   2.095  10.754   0.756  0.6748  1.7146  0.0478
33263SOL     OW 5625   9.786   0.721   2.724 -0.1456 -0.1607  0.2797
33263SOL    HW1 5626   9.768   0.648   2.665  2.1508  0.1808 -0.9579
33263SOL    HW2 5627   9.733   0.793   2.689  1.7919  0.2819 -2.0411
33264SOL     OW 5628   8.516   2.401   8.671  0.2303 -0.1175 -0.2626
33264SOL    HW1 5629   8.423   2.426   8.670 -0.0798 -1.2397 -0.8270
33264SOL    HW2 5630   8.517   2.310   8.644  1.4528 -0.3456  0.4686
33265SOL     OW 5631   1.516  10.681   7.944 -0.4003 -0.1358 -0.5181
33265SOL    HW1 5632   1.464  10.686   8.023 -1.5034 -2.4175 -1.0280
33265SOL    HW2 5633   1.467  10.731   7.879  1.3305  3.2178  0.4992
33266SOL     OW 5634   2.955   5.491   7.528 -0.1000 -0.1415 -0.4195
33266SOL    HW1 5635   2.949   5.510   7.434  1.3356 -0.4265 -0.5854
33266SOL    HW2 5636   2.999   5.567   7.565  4.4997 -2.2535 -0.8892
33267SOL     OW 5637   5.699   3.579   5.873  0.4255  0.4472  0.0521
33267SOL    HW1 5638   5.787   3.615   5.885 -0.1099  1.5443  0.8501
33267SOL    HW2 5639   5.640   3.652   5.892 -0.6597  0.2183 -2.0564
33268SOL     OW 5640   1.097   9.440   3.062 -0.2130  0.0802  0.0945
33268SOL    HW1 5641   1.140   9.515   3.103  0.4111 -0.5445  0.6074
33268SOL    HW2 5642   1.052   9.477   2.986  1.7985  0.6749 -0.8716
33269SOL     OW 5643   7.099   1.037   6.190  0.7825 -0.2043 -1.0723
33269SOL    HW1 5644   7.070   1.078   6.109  1.8425  1.7972 -0.5306
33269SOL    HW2 5645   7.183   1.079   6.209  0.4189 -0.3576  1.2195
33270SOL     OW 5646   4.011  10.045  11.144 -0.5315 -0.8040 -0.5162
33270SOL    HW1 5647   3.955  10.069  11.218  0.8378 -2.2837  1.0369
33270SOL    HW2 5648   4.032   9.953  11.157 -1.0271 -1.4286 -3.3040
33271SOL     OW 5649   6.448   1.707   2.606  0.5981  0.7079  0.5735
33271SOL    HW1 5650   6.523   1.665   2.650  0.6346 -0.4419 -0.5046
33271SOL    HW2 5651   6.380   1.639   2.606  1.0747  0.1122 -2.3249
33272SOL     OW 5652   4.058   9.331   2.704 -0.1029 -0.2714 -0.1725
33272SOL    HW1 5653   4.148   9.301   2.689 -0.3901 -0.7515 -0.9898
33272SOL    HW2 5654   4.027   9.359   2.618 -0.4994  0.5955  0.2360
33273SOL     OW 5655   6.675  11.007   9.059 -0.0410  0.4282 -0.0898
33273SOL    HW1 5656   6.661  11.085   9.005  0.3345 -0.0715 -0.9265
33273SOL    HW2 5657   6.763  11.020   9.097  0.6257 -0.2267 -1.3559
33274SOL     OW 5658   9.657   4.661   5.555  0.0074  0.2002  0.2124
33274SOL    HW1 5659   9.687   4.747   5.582  0.6390 -0.2035  0.7986
33274SOL    HW2 5660   9.714   4.599   5.600  0.4004 -0.5119 -1.2006
33275SOL     OW 5661  11.803  12.076   3.187  0.4239 -0.0133  0.0045
33275SOL    HW1 5662  11.874  12.088   3.124  0.9177 -0.6173  0.4247
33275SOL    HW2 5663  11.761  12.162   3.193  0.2046 -0.0152 -1.3255
33276SOL     OW 5664   5.584   3.552   3.550  0.2395  0.0433  0.1239
33276SOL    HW1 5665   5.574   3.644   3.524 -1.9091 -0.5296 -1.4108
33276SOL    HW2 5666   5.601   3.506   3.468 -0.6890 -1.1377  0.5618
33277SOL     OW 5667   1.303   6.193   9.400 -0.1277  0.2979  0.6611
33277SOL    HW1 5668   1.386   6.154   9.374  0.1373 -0.5107  2.5867
33277SOL    HW2 5669   1.256   6.206   9.318  1.5962  0.0878 -0.3967
33278SOL     OW 5670  12.043   5.339   1.061 -0.5538  0.0755  0.1495
33278SOL    HW1 5671  11.965   5.285   1.047 -1.0573  0.5757  0.9624
33278SOL    HW2 5672  12.073   5.317   1.149  0.5094 -0.4548 -0.3313
33279SOL     OW 5673   1.778  11.376   6.821  0.2777  0.2044  0.3594
33279SOL    HW1 5674   1.703  11.358   6.765  0.1868 -1.5016  0.9735
33279SOL    HW2 5675   1.789  11.471   6.816 -0.6854  0.2683 -1.2841
33280SOL     OW 5676   7.668   2.478  11.819  0.1358 -0.0078 -0.0336
33280SOL    HW1 5677   7.743   2.530  11.848  0.2505  0.9987 -1.9674
33280SOL    HW2 5678   7.707   2.401  11.777  0.0335 -0.3856  0.5600
33281SOL     OW 5679  10.420   6.135   6.283  0.6566  0.5791  0.0031
33281SOL    HW1 5680  10.465   6.077   6.345  1.1453 -0.2577 -1.0991
33281SOL    HW2 5681  10.426   6.222   6.324 -1.2137 -0.2699  2.3010
33282SOL     OW 5682   2.630   0.697   1.467 -0.1478 -0.7603  0.0943
33282SOL    HW1 5683   2.726   0.696   1.469  0.0814  2.8001 -1.1503
33282SOL    HW2 5684   2.607   0.633   1.400  1.3407 -1.6870  0.4216
33283SOL     OW 5685  11.622   8.318   7.043  0.3551 -0.0347  0.8737
33283SOL    HW1 5686  11.678   8.242   7.030  2.0695  1.3394 -0.1057
33283SOL    HW2 5687  11.682   8.392   7.050 -1.3104  1.4482  0.3062
33284SOL     OW 5688   3.742   4.393  12.311 -0.4823 -0.1719 -0.1667
33284SOL    HW1 5689   3.713   4.411  12.400 -1.9861 -0.2369 -0.6154
33284SOL    HW2 5690   3.687   4.449  12.256  1.1549  0.6751 -1.0011
33285SOL     OW 5691   8.464   3.728   9.236 -0.2121  0.0236 -0.1418
33285SOL    HW1 5692   8.530   3.670   9.197 -0.2452 -1.8924  2.3587
33285SOL    HW2 5693   8.509   3.769   9.310 -1.2188  0.3254  0.3200
33286SOL     OW 5694   3.825   4.844   4.438  0.1480 -0.1724  0.4769
33286SOL    HW1 5695   3.886   4.770   4.440  1.0421  0.4481 -1.3515
33286SOL    HW2 5696   3.877   4.919   4.467  0.1865  0.2955 -0.7459
33287SOL     OW 5697   9.213   6.189  11.915 -0.7282  0.3188  0.3699
33287SOL    HW1 5698   9.129   6.235  11.921 -1.2829 -0.5809 -0.1607
33287SOL    HW2 5699   9.222   6.170  11.821 -0.7639 -1.0716  0.6343
33288SOL     OW 5700   2.467   8.307   6.823 -0.2666  0.3856  0.0164
33288SOL    HW1 5701   2.404   8.237   6.804  1.6690 -0.9197 -2.2632
33288SOL    HW2 5702   2.483   8.348   6.738  1.8869  0.6725  0.5126
33289SOL     OW 5703   1.806   8.310  11.400 -0.0082  0.0558  0.3841
33289SOL    HW1 5704   1.808   8.312  11.496  1.4316 -1.6076  0.4459
33289SOL    HW2 5705   1.878   8.368  11.374 -0.2648  0.3427  0.3152
33290SOL     OW 5706   5.029   1.974  10.582 -0.0298  0.5111  0.0366
33290SOL    HW1 5707   5.079   1.945  10.506  0.1359  2.6698 -0.7448
33290SOL    HW2 5708   5.094   1.984  10.652 -0.1715 -1.3905  0.5054
33291SOL     OW 5709   6.018   5.460   8.773  0.0866 -0.4153 -0.1729
33291SOL    HW1 5710   6.065   5.390   8.728 -1.5820 -1.4403 -0.3783
33291SOL    HW2 5711   6.057   5.541   8.739  1.6377 -1.2064 -0.3730
33292SOL     OW 5712   7.438   0.701   4.641  0.9124 -0.0884 -0.7899
33292SOL    HW1 5713   7.367   0.734   4.697 -0.2791 -1.3178 -1.5175
33292SOL    HW2 5714   7.502   0.772   4.639  2.0669 -0.7190  3.8029
33293SOL     OW 5715   7.531   2.863   0.312 -0.4669 -0.1951 -0.2200
33293SOL    HW1 5716   7.437   2.850   0.301 -0.1603 -1.3393 -1.8358
33293SOL    HW2 5717   7.562   2.893   0.226  0.9771 -2.1558 -0.4616
33294SOL     OW 5718  10.651   5.640   5.400 -0.4092 -0.6796  0.4731
33294SOL    HW1 5719  10.602   5.717   5.373  0.3076 -0.4576 -0.2332
33294SOL    HW2 5720  10.639   5.636   5.495  0.7141  1.1486  0.7386
33295SOL     OW 5721   8.613   7.828   4.833  0.1506 -0.2549  0.0757
33295SOL    HW1 5722   8.608   7.781   4.750 -1.7619  3.4447 -2.1991
33295SOL    HW2 5723   8.527   7.815   4.873  0.3572 -0.3678  0.4921
33296SOL     OW 5724  11.221   1.852  10.027 -0.1405 -0.2334  0.2709
33296SOL    HW1 5725  11.252   1.820  10.112  1.5677 -0.1487 -0.2941
33296SOL    HW2 5726  11.300   1.864   9.975 -1.0467  1.0926 -0.8705
33297SOL     OW 5727   6.475   4.878   3.814  0.5111  0.0219  0.0343
33297SOL    HW1 5728   6.485   4.926   3.732  1.7569  0.3993  0.3684
33297SOL    HW2 5729   6.565   4.857   3.840  0.0761 -1.0658  0.7380
33298SOL     OW 5730   7.528   4.371   1.985  0.4938 -0.4481 -0.2493
33298SOL    HW1 5731   7.597   4.311   1.958  0.5695  0.4046 -2.1262
33298SOL    HW2 5732   7.483   4.326   2.056  0.1198 -3.0375 -2.0035
33299SOL     OW 5733   0.821   1.761  12.330  0.0112 -0.2647 -0.0289
33299SOL    HW1 5734   0.769   1.734  12.254 -0.8803 -0.5059  0.6561
33299SOL    HW2 5735   0.757   1.799  12.390  0.5547 -0.9946  1.0320
33300SOL     OW 5736  12.104   8.974   7.943  0.2966  0.5457 -0.1594
33300SOL    HW1 5737  12.093   8.920   8.021  0.9134  1.3213  0.4746
33300SOL    HW2 5738  12.025   8.959   7.892 -0.3258  0.3938  0.8343
33301SOL     OW 5739   9.239   8.346   8.037 -0.0090  0.2653  0.0270
33301SOL    HW1 5740   9.246   8.256   8.004  0.3248  0.2491  0.1453
33301SOL    HW2 5741   9.199   8.395   7.964  0.3188  0.1380 -0.2423
33302SOL     OW 5742   1.522  10.367   7.150 -0.1206 -0.0577 -0.1512
33302SOL    HW1 5743   1.469  10.382   7.228 -0.2859  0.3961 -0.3528
33302SOL    HW2 5744   1.465  10.389   7.077  0.7355  1.6407 -0.3361
33303SOL     OW 5745   0.606   2.816   3.434 -0.1657 -0.0372  0.2289
33303SOL    HW1 5746   0.652   2.732   3.434 -0.8393 -0.4574 -1.6961
33303SOL    HW2 5747   0.649   2.866   3.365 -1.8682 -0.0595 -0.9038
33304SOL     OW 5748   9.939   1.889   0.916 -0.6043 -0.0050 -0.2630
33304SOL    HW1 5749   9.889   1.809   0.930  1.8403 -1.7007 -0.5198
33304SOL    HW2 5750   9.962   1.919   1.005  0.3983 -0.9543 -0.1740
33305SOL     OW 5751   5.973   5.044  12.197  0.7117  0.1263 -0.0255
33305SOL    HW1 5752   5.910   5.029  12.126  0.6088 -0.2963  0.1565
33305SOL    HW2 5753   6.039   5.102  12.158  0.2306  0.5520 -0.2300
33306SOL     OW 5754   9.069   6.342   9.758 -0.2217  0.9569  0.3708
33306SOL    HW1 5755   9.140   6.280   9.738 -0.9015  0.5649 -0.9410
33306SOL    HW2 5756   9.051   6.328   9.851  1.4998  1.1642  0.7828
33307SOL     OW 5757   5.993   4.823  10.563  0.5910  0.2281  0.6771
33307SOL    HW1 5758   5.925   4.757  10.575  1.5681 -0.5980  1.8830
33307SOL    HW2 5759   6.019   4.814  10.471 -0.7017  0.3564  0.2853
33308SOL     OW 5760   3.465   6.955  11.506  0.0999  0.2459  0.1480
33308SOL    HW1 5761   3.519   6.876  11.508  0.4458  0.4714  1.8256
33308SOL    HW2 5762   3.375   6.923  11.506  0.2024 -0.1262 -1.3704
33309SOL     OW 5763   4.105   1.045   3.054  0.5877  0.4116 -0.4096
33309SOL    HW1 5764   4.012   1.068   3.056  0.2776 -0.7422  1.2035
33309SOL    HW2 5765   4.151   1.129   3.058 -0.3367  1.0471 -2.2097
33310SOL     OW 5766   9.325  11.340  12.077 -0.5747  0.1889 -0.6806
33310SOL    HW1 5767   9.247  11.336  12.133  0.3895  0.4727  0.7476
33310SOL    HW2 5768   9.322  11.427  12.038 -0.7439  0.3674 -0.2794
33311SOL     OW 5769  11.083  10.119  11.092 -0.0346 -0.3065  0.5552
33311SOL    HW1 5770  11.005  10.171  11.072  2.3930  2.5315 -2.7566
33311SOL    HW2 5771  11.062  10.031  11.062 -1.7890  0.5340 -0.8770
33312SOL     OW 5772   8.237  11.846  10.770  0.4687 -0.0278 -0.0936
33312SOL    HW1 5773   8.235  11.942  10.769  0.5483 -0.0017  1.0440
33312SOL    HW2 5774   8.218  11.821  10.679 -4.4500  0.9749  0.4121
33313SOL     OW 5775   3.566   5.345   9.016 -0.2664  0.1149  0.3904
33313SOL    HW1 5776   3.595   5.398   8.942  0.7008 -2.3484 -1.1422
33313SOL    HW2 5777   3.569   5.404   9.091  0.9329  2.1298 -1.1445
33314SOL     OW 5778   2.775   4.833  10.196 -0.4734  0.5398  0.8193
33314SOL    HW1 5779   2.728   4.751  10.211 -0.3937  0.1777 -0.7384
33314SOL    HW2 5780   2.765   4.881  10.278 -1.8807 -0.3570  1.2190
33315SOL     OW 5781   5.912   4.262   3.693 -0.4205 -0.0340 -0.3683
33315SOL    HW1 5782   5.849   4.214   3.747 -1.1322  0.2046 -0.9757
33315SOL    HW2 5783   5.955   4.195   3.640 -0.0127 -0.2187  0.1815
33316SOL     OW 5784   9.118  11.587  10.846  0.1095  0.1311  0.1075
33316SOL    HW1 5785   9.204  11.571  10.885 -0.4433  0.4006  1.4992
33316SOL    HW2 5786   9.056  11.557  10.912 -0.8843 -0.6952 -1.1570
33317SOL     OW 5787   2.075   6.556   3.906 -0.0739  0.0958 -0.3404
33317SOL    HW1 5788   2.043   6.592   3.989  0.6189  0.1791 -0.1027
33317SOL    HW2 5789   2.129   6.626   3.869  0.3890 -0.2916 -0.4061
33318SOL     OW 5790   0.933   3.927   7.587  0.9896 -0.0582 -0.2022
33318SOL    HW1 5791   0.897   4.014   7.602  1.1305 -0.0361  0.0325
33318SOL    HW2 5792   0.979   3.934   7.503 -1.1195 -0.6056 -1.4569
33319SOL     OW 5793   8.526  11.565   4.532  0.4920  0.0396  0.1252
33319SOL    HW1 5794   8.493  11.571   4.621  1.8884  1.1608  0.6084
33319SOL    HW2 5795   8.543  11.472   4.518 -1.3784 -0.3851  0.3681
33320SOL     OW 5796  10.104   8.808   0.221 -0.4008 -0.2198  0.8974
33320SOL    HW1 5797  10.124   8.814   0.127 -0.0968 -3.1400  0.6646
33320SOL    HW2 5798  10.008   8.810   0.224 -0.5696 -2.6992  0.1241
33321SOL     OW 5799   4.172   5.198   0.110  0.1074  0.2247 -0.1726
33321SOL    HW1 5800   4.159   5.163   0.199  0.2605 -0.4863 -0.4238
33321SOL    HW2 5801   4.247   5.150   0.076  1.0474  1.6050 -0.1270
33322SOL     OW 5802   8.146   3.809   4.598  0.8788 -0.1429  0.6184
33322SOL    HW1 5803   8.215   3.851   4.546  0.0477  0.6469  0.1126
33322SOL    HW2 5804   8.140   3.863   4.677  1.9933 -1.2162  1.4587
33323SOL     OW 5805   2.658   8.771   4.843  0.5691  0.2143  0.2476
33323SOL    HW1 5806   2.705   8.846   4.808 -1.9696  1.4371 -0.7534
33323SOL    HW2 5807   2.588   8.809   4.897 -0.6487 -1.4055 -0.1140
33324SOL     OW 5808   9.533  10.198   3.522  0.6525  0.1715  0.2048
33324SOL    HW1 5809   9.486  10.282   3.513  0.1812  0.0077  1.0892
33324SOL    HW2 5810   9.466  10.136   3.548  1.5593  0.2331  3.0392
33325SOL     OW 5811   7.024  12.058   9.167 -0.0226 -0.2421 -0.3548
33325SOL    HW1 5812   7.094  12.092   9.223  0.4521  1.6677 -2.0119
33325SOL    HW2 5813   7.040  12.096   9.081 -1.9328 -1.4084 -1.3147
33326SOL     OW 5814   5.969   9.259   6.842 -0.1429 -0.3525 -0.5547
33326SOL    HW1 5815   5.938   9.222   6.925  0.0229 -1.6129 -1.0336
33326SOL    HW2 5816   5.889   9.283   6.795 -0.2146  1.6186  0.4868
33327SOL     OW 5817   5.138   4.528   8.179 -0.6901  0.0922 -0.0785
33327SOL    HW1 5818   5.118   4.587   8.252 -2.2583  0.4778 -0.7657
33327SOL    HW2 5819   5.082   4.452   8.193  0.5344 -0.7691  0.2203
33328SOL     OW 5820   7.304   5.909  11.160 -0.1875 -0.0857 -0.3703
33328SOL    HW1 5821   7.271   5.825  11.190 -0.3857 -0.3866 -1.3788
33328SOL    HW2 5822   7.338   5.891  11.072 -0.3826  0.9141 -0.6642
33329SOL     OW 5823   0.676   5.092  11.251 -0.3077  0.4780  0.0655
33329SOL    HW1 5824   0.622   5.161  11.289  0.2569  0.8349  0.2387
33329SOL    HW2 5825   0.729   5.060  11.324 -0.5344 -0.1118 -0.0231
33330SOL     OW 5826   2.728   7.428   4.139 -0.8123  0.7226 -0.2484
33330SOL    HW1 5827   2.742   7.505   4.194 -0.2653  1.0064 -0.7820
33330SOL    HW2 5828   2.638   7.437   4.108 -1.1896  0.4615  0.7455
33331SOL     OW 5829   3.469   7.783   4.960  0.0548  0.1136 -0.3128
33331SOL    HW1 5830   3.467   7.687   4.961 -0.2320  0.1067 -0.8685
33331SOL    HW2 5831   3.400   7.809   5.021  1.2358 -0.0126  1.1292
33332SOL     OW 5832   5.111   6.073   3.720  0.4169  0.6723  0.0330
33332SOL    HW1 5833   5.161   6.047   3.643  0.8835 -0.6375  0.7271
33332SOL    HW2 5834   5.093   5.990   3.766  0.2287  1.4109  1.3633
33333SOL     OW 5835  10.608   6.784  11.025  0.6915 -0.1590 -0.1289
33333SOL    HW1 5836  10.544   6.739  10.970  0.7148 -0.0386 -0.2545
33333SOL    HW2 5837  10.612   6.873  10.990  0.6208 -0.0496  0.1412
33334SOL     OW 5838  11.111   9.914   0.420  0.0175 -0.7487 -0.3058
33334SOL    HW1 5839  11.049   9.957   0.362  0.6053  1.6439  0.7314
33334SOL    HW2 5840  11.183   9.976   0.430  0.7432 -1.7869  1.5950
33335SOL     OW 5841   4.061  10.317  11.934 -0.8985  0.3003 -0.2919
33335SOL    HW1 5842   4.085  10.255  11.865  0.0777  0.8595 -0.4823
33335SOL    HW2 5843   4.133  10.310  11.997 -1.5008  0.2080  0.4013
33336SOL     OW 5844   2.550   5.927   8.537 -0.6800  0.2341 -0.1209
33336SOL    HW1 5845   2.545   5.856   8.601 -1.3603 -1.4499 -1.8989
33336SOL    HW2 5846   2.644   5.941   8.524 -0.5436  0.1431  0.7657
33337SOL     OW 5847   6.814  10.801   3.559  0.3238 -0.0933 -0.3821
33337SOL    HW1 5848   6.905  10.798   3.530  0.4217  0.0951 -0.0997
33337SOL    HW2 5849   6.818  10.844   3.644  0.2126 -1.9599  0.6091
33338SOL     OW 5850   8.703   0.459   3.507 -0.6333  0.2725 -0.0738
33338SOL    HW1 5851   8.685   0.534   3.451 -0.7764  0.2154 -0.1054
33338SOL    HW2 5852   8.766   0.491   3.571  0.3488  0.0424 -0.9098
33339SOL     OW 5853  10.138   3.033  11.241  0.4007  0.0595  0.1804
33339SOL    HW1 5854  10.134   2.961  11.305 -0.6716  1.7371  2.1385
33339SOL    HW2 5855  10.167   2.992  11.160 -2.0040 -2.9552  0.6712
33340SOL     OW 5856   0.135   3.827   4.085 -0.2900 -0.2764  0.4632
33340SOL    HW1 5857   0.171   3.915   4.096  1.1220 -0.6831 -0.7366
33340SOL    HW2 5858   0.100   3.825   3.996 -1.6739 -0.4960  0.9682
33341SOL     OW 5859   8.254   2.352   7.457 -0.0845  0.3145 -0.4630
33341SOL    HW1 5860   8.228   2.408   7.383 -0.8873 -1.8787 -1.9822
33341SOL    HW2 5861   8.348   2.366   7.467 -0.4527  2.7853  0.0512
33342SOL     OW 5862   0.218  10.606   9.646 -0.0036 -0.0756 -0.0475
33342SOL    HW1 5863   0.235  10.533   9.705  1.2793  1.2344  1.3116
33342SOL    HW2 5864   0.143  10.651   9.685 -0.7655 -0.6023 -0.8579
33343SOL     OW 5865   9.188   0.978  10.555  0.3750 -0.4466  0.1271
33343SOL    HW1 5866   9.239   0.942  10.483  0.3588 -0.0444 -0.0864
33343SOL    HW2 5867   9.117   1.026  10.513 -0.3810 -1.2720  0.4197
33344SOL     OW 5868  12.215  10.755  10.476  1.1846  0.7019  0.1002
33344SOL    HW1 5869  12.203  10.833  10.530  1.2001  0.5869  0.2729
33344SOL    HW2 5870  12.127  10.730  10.450  1.0156 -0.1601  1.3946
33345SOL     OW 5871   5.422   3.990   9.612 -0.5948 -0.5603  0.1044
33345SOL    HW1 5872   5.327   3.985   9.623 -0.2837 -1.5492  3.1210
33345SOL    HW2 5873   5.435   3.984   9.517 -3.5715  1.1433 -0.5435
33346SOL     OW 5874   1.393   7.871  11.014  0.1053 -0.0881 -0.2373
33346SOL    HW1 5875   1.407   7.876  11.109  0.7998  1.3501 -0.3893
33346SOL    HW2 5876   1.481   7.859  10.978 -0.1731 -0.7970 -0.7174
33347SOL     OW 5877   7.885   1.566   6.290  0.5922 -0.2781  0.3372
33347SOL    HW1 5878   7.919   1.572   6.200 -1.6580 -0.8639 -0.6067
33347SOL    HW2 5879   7.908   1.478   6.318 -0.4546 -0.8212 -0.4505
33348SOL     OW 5880   5.091   1.467   0.667  0.1139 -0.0218 -0.2099
33348SOL    HW1 5881   5.177   1.452   0.706  0.2048 -0.3389 -0.5333
33348SOL    HW2 5882   5.085   1.563   0.660  0.3207  0.0146  0.0768
33349SOL     OW 5883   9.302   1.101   9.499  0.3778 -0.0293  0.1350
33349SOL    HW1 5884   9.310   1.078   9.592  0.4566 -1.0086 -0.1030
33349SOL    HW2 5885   9.323   1.019   9.453 -2.0746 -0.2493 -0.6951
33350SOL     OW 5886   6.602   0.856  11.107 -0.0893  0.1980  0.2550
33350SOL    HW1 5887   6.509   0.870  11.124 -0.6208 -2.2136 -0.2938
33350SOL    HW2 5888   6.623   0.920  11.038 -1.3333  0.7356  0.3371
33351SOL     OW 5889  11.922   6.028   2.507  0.6467 -0.5619 -0.3786
33351SOL    HW1 5890  11.934   6.123   2.496 -0.0058 -0.4861 -0.4293
33351SOL    HW2 5891  11.841   6.008   2.460  0.3530 -1.0134  0.3112
33352SOL     OW 5892   2.185  11.509  10.426  0.1607 -0.0061  0.3054
33352SOL    HW1 5893   2.136  11.428  10.440  2.0066 -0.8054  2.8734
33352SOL    HW2 5894   2.130  11.578  10.464 -0.1447 -0.4947  0.7509
33353SOL     OW 5895   9.223  11.621   5.699  0.4683 -0.1557 -0.3212
33353SOL    HW1 5896   9.158  11.670   5.649 -0.8907 -1.0516  0.5119
33353SOL    HW2 5897   9.283  11.586   5.632  0.6161  1.3752 -1.0326
33354SOL     OW 5898   6.611   6.042   2.893  0.0096 -0.0482 -0.1269
33354SOL    HW1 5899   6.530   6.065   2.940  0.1291 -1.0782  0.6242
33354SOL    HW2 5900   6.681   6.076   2.949  0.1170  0.9530 -0.8406
33355SOL     OW 5901   2.658   6.596   3.999  0.4034 -0.1963  0.4010
33355SOL    HW1 5902   2.638   6.687   4.021  0.4037 -0.3842  1.1912
33355SOL    HW2 5903   2.573   6.552   4.001  0.1161  0.1183 -1.7396
33356SOL     OW 5904   8.758   9.665   2.816 -0.0735 -0.0153  0.6585
33356SOL    HW1 5905   8.688   9.643   2.754 -0.1763 -2.4291  1.5329
33356SOL    HW2 5906   8.713   9.715   2.885 -0.8185 -0.9270  0.8572
33357SOL     OW 5907   6.424   8.460   2.407 -0.1596  0.0422  0.0355
33357SOL    HW1 5908   6.410   8.384   2.350  0.0755 -0.9640  1.2944
33357SOL    HW2 5909   6.492   8.433   2.467 -2.0187  0.1797  2.3362
33358SOL     OW 5910   3.648  11.064  12.293  0.0599  0.5620 -0.0105
33358SOL    HW1 5911   3.669  11.063  12.199  1.6593  2.7626  0.2432
33358SOL    HW2 5912   3.598  11.144  12.305 -0.2953  0.1986  1.0021
33359SOL     OW 5913   3.528   2.695   7.293  0.0935  0.5095 -0.0919
33359SOL    HW1 5914   3.489   2.693   7.381 -0.4627 -2.5811 -0.3192
33359SOL    HW2 5915   3.475   2.758   7.245 -2.2062 -0.6964  0.7245
33360SOL     OW 5916   9.938  11.539   6.536 -0.1006  0.9214  0.4311
33360SOL    HW1 5917   9.987  11.474   6.587  1.1426  0.1800 -1.5725
33360SOL    HW2 5918  10.004  11.579   6.480 -1.4713  1.3628 -0.9091
33361SOL     OW 5919   3.607   8.604   2.097 -0.6929  0.0267 -0.1297
33361SOL    HW1 5920   3.616   8.567   2.184  2.6510  2.1534  0.5818
33361SOL    HW2 5921   3.659   8.547   2.040 -0.0327  0.5473 -0.0581
33362SOL     OW 5922   1.331   8.477   4.761 -0.8346 -0.6468  0.2963
33362SOL    HW1 5923   1.239   8.488   4.786 -0.8923  1.6854 -0.7075
33362SOL    HW2 5924   1.333   8.496   4.667  0.7791  0.1782  0.4672
33363SOL     OW 5925  10.183   1.626   2.261  0.0503  0.9058  0.5232
33363SOL    HW1 5926  10.245   1.581   2.204 -0.2579 -0.9679  1.5988
33363SOL    HW2 5927  10.238   1.675   2.322  0.3821  2.5954 -1.0439
33364SOL     OW 5928   4.408   3.784  11.305 -0.2498 -0.3385  0.4105
33364SOL    HW1 5929   4.352   3.760  11.379  0.3580 -1.2305  0.5972
33364SOL    HW2 5930   4.479   3.835  11.344 -0.4150 -0.0273  0.3088
33365SOL     OW 5931   5.156  11.222   5.596  0.3654  0.4180 -0.3039
33365SOL    HW1 5932   5.128  11.211   5.687  1.0802 -0.5235 -0.1756
33365SOL    HW2 5933   5.161  11.316   5.584 -0.6281  0.5769  0.3490
33366SOL     OW 5934   2.626   1.965   6.400 -0.3578 -0.0612 -0.4655
33366SOL    HW1 5935   2.708   1.983   6.446 -0.0389  1.0941 -1.4233
33366SOL    HW2 5936   2.639   1.878   6.362 -0.2126 -0.5622  0.7114
33367SOL     OW 5937   9.102  11.862   3.559 -0.4770  0.4853  0.4726
33367SOL    HW1 5938   9.076  11.862   3.467  1.4525  1.6811 -0.1175
33367SOL    HW2 5939   9.152  11.782   3.570  1.5452  1.5785 -0.2654
33368SOL     OW 5940  10.564   4.893   3.571 -0.7222  0.4623  0.3573
33368SOL    HW1 5941  10.550   4.888   3.476 -0.3313 -2.3733  0.3788
33368SOL    HW2 5942  10.477   4.913   3.606 -0.9541  1.1228 -0.5375
33369SOL     OW 5943   4.044   7.920   0.538  0.0079  0.3952 -0.2928
33369SOL    HW1 5944   4.022   7.875   0.619  1.9420 -0.6475 -0.2809
33369SOL    HW2 5945   4.082   7.852   0.482  1.4506  1.6463 -0.9249
33370SOL     OW 5946  10.842   7.416   8.891 -0.2775  0.0606  0.1329
33370SOL    HW1 5947  10.791   7.382   8.818 -0.3579 -0.2745  0.3411
33370SOL    HW2 5948  10.852   7.341   8.950 -0.7691  0.4902  0.7729
33371SOL     OW 5949   8.839   9.584   7.059 -0.4982 -0.1921  0.0615
33371SOL    HW1 5950   8.765   9.560   7.003 -0.3861  0.2529 -0.2860
33371SOL    HW2 5951   8.818   9.546   7.144  0.2835 -2.6548 -0.7583
33372SOL     OW 5952   4.791   8.326   5.719  0.1665  0.4498 -0.3829
33372SOL    HW1 5953   4.720   8.309   5.781  1.4495 -0.9043  0.7691
33372SOL    HW2 5954   4.798   8.246   5.668  0.0822  1.0361 -1.3482
33373SOL     OW 5955   5.340   1.347   5.934 -0.3364  0.2640  0.6630
33373SOL    HW1 5956   5.397   1.272   5.954  0.0696  0.4421  0.2051
33373SOL    HW2 5957   5.361   1.412   6.001  2.4041  1.6060 -1.2955
33374SOL     OW 5958   5.951   4.440   8.037  0.2204  0.4961  0.1527
33374SOL    HW1 5959   5.942   4.424   8.131 -0.3758  2.6357  0.5269
33374SOL    HW2 5960   6.008   4.516   8.031 -0.1953  0.7275 -1.1888
33375SOL     OW 5961   4.873   3.829   1.578 -0.3242 -0.2959  0.0632
33375SOL    HW1 5962   4.879   3.753   1.520  1.5728  0.8707 -1.3548
33375SOL    HW2 5963   4.789   3.870   1.555 -0.4777 -0.8962 -0.4801
33376SOL     OW 5964   9.213   6.810   3.278 -0.1333 -0.0665 -0.4990
33376SOL    HW1 5965   9.172   6.733   3.239 -0.2021  0.2448 -1.0629
33376SOL    HW2 5966   9.206   6.877   3.210  0.2843  0.3198 -0.1679
33377SOL     OW 5967   8.709   9.475   6.808  0.5670 -0.2705 -0.3276
33377SOL    HW1 5968   8.633   9.429   6.773 -2.0174  1.2979  2.7041
33377SOL    HW2 5969   8.750   9.516   6.732 -2.3606 -0.2029 -2.0034
33378SOL     OW 5970   5.358   5.919   8.907 -0.1062  0.1366 -0.0154
33378SOL    HW1 5971   5.365   5.831   8.945  0.6929 -0.0730 -0.6159
33378SOL    HW2 5972   5.379   5.907   8.815 -2.6883  0.5346 -0.7317
33379SOL     OW 5973   4.859   5.207   4.406  0.1917  0.3278 -0.9665
33379SOL    HW1 5974   4.917   5.248   4.469 -2.3548  1.5019  0.7723
33379SOL    HW2 5975   4.872   5.257   4.325  0.4551  1.6139 -0.1562
33380SOL     OW 5976   4.578   8.183   5.088  0.1632  0.5054 -0.1908
33380SOL    HW1 5977   4.490   8.213   5.108  0.4792  0.9928  0.5375
33380SOL    HW2 5978   4.626   8.262   5.065  1.0617  0.6594  1.9519
33381SOL     OW 5979   8.559   1.012  10.744  0.7414 -0.4113 -0.1215
33381SOL    HW1 5980   8.639   1.031  10.794  0.2812 -0.8428  0.8057
33381SOL    HW2 5981   8.565   1.068  10.667  0.6654  1.5732  1.2481
33382SOL     OW 5982   2.657  10.667   0.034 -0.1185 -0.3666  0.8033
33382SOL    HW1 5983   2.716  10.601  -0.002 -0.7584 -0.5330  0.0551
33382SOL    HW2 5984   2.573  10.651  -0.008 -0.5276  0.3227  1.3294
33383SOL     OW 5985   3.958  11.582   0.192  0.3661  0.1989 -0.2491
33383SOL    HW1 5986   4.024  11.608   0.257 -1.0655  2.4204  0.4420
33383SOL    HW2 5987   3.998  11.508   0.145  3.5670  1.7187 -0.2170
33384SOL     OW 5988  10.647   1.721   8.217  0.2817 -0.0213  0.5813
33384SOL    HW1 5989  10.573   1.672   8.254  1.1568  0.0175  2.4830
33384SOL    HW2 5990  10.621   1.812   8.222 -0.4568 -0.1177 -0.9346
33385SOL     OW 5991   4.340   3.011   1.840  0.3201  0.6393  0.2533
33385SOL    HW1 5992   4.426   3.043   1.866  0.8980 -0.2940 -0.4281
33385SOL    HW2 5993   4.347   2.997   1.745 -0.4262  0.1005  0.2655
33386SOL     OW 5994  10.860   9.778   2.348  0.0550 -0.2007  0.0756
33386SOL    HW1 5995  10.901   9.691   2.354  1.7387  0.5998  0.9226
33386SOL    HW2 5996  10.852   9.794   2.254  0.8057 -0.7991 -0.1025
33387SOL     OW 5997   7.257  10.404  10.627 -0.7202 -0.3601  0.1603
33387SOL    HW1 5998   7.322  10.418  10.696 -1.9343  0.7237  1.1307
33387SOL    HW2 5999   7.309  10.380  10.551  0.7056 -1.0759  1.2987
33388SOL     OW 6000   9.987   4.616   4.200  0.3763  0.5505  0.3924
33388SOL    HW1 6001  10.046   4.548   4.231 -0.7367 -0.1844  0.9637
33388SOL    HW2 6002  10.006   4.691   4.257  1.1184  0.5067  0.2156
33389SOL     OW 6003   7.295   0.984   5.480  0.0737 -0.2744 -0.2425
33389SOL    HW1 6004   7.258   0.966   5.567  0.7879  0.9105  0.3272
33389SOL    HW2 6005   7.311   1.078   5.479  1.4491 -0.4872 -1.1097
33390SOL     OW 6006  11.148   4.404   6.044 -0.0363 -0.0002  0.1442
33390SOL    HW1 6007  11.157   4.310   6.034 -1.4826 -0.0551 -1.0701
33390SOL    HW2 6008  11.075   4.416   6.104 -0.6640  0.3080 -0.6471
33391SOL     OW 6009   7.716   2.081  11.677 -0.3127  0.0447 -0.2129
33391SOL    HW1 6010   7.772   2.003  11.684 -0.9266 -0.3839  0.0074
33391SOL    HW2 6011   7.768   2.151  11.716  0.2541 -0.2508 -0.4223
33392SOL     OW 6012  11.485   1.199   9.113 -0.4288  0.3248 -0.0764
33392SOL    HW1 6013  11.437   1.146   9.050  1.9101  1.2003 -2.8022
33392SOL    HW2 6014  11.417   1.242   9.166 -2.4278 -2.0414 -0.5707
33393SOL     OW 6015   0.686   9.600   3.755  0.8718 -0.4175 -0.3959
33393SOL    HW1 6016   0.655   9.676   3.803  0.4193 -0.6092 -0.3797
33393SOL    HW2 6017   0.781   9.612   3.749  0.8858 -0.2139  0.2243
33394SOL     OW 6018   5.487  10.991   1.702 -0.5045 -0.2805  0.4743
33394SOL    HW1 6019   5.476  11.010   1.609  0.1588  1.1120  0.6444
33394SOL    HW2 6020   5.566  10.937   1.706  1.1992  2.0400  0.3922
33395SOL     OW 6021   8.279   6.222   7.026  0.2115  0.0428  0.1936
33395SOL    HW1 6022   8.195   6.205   7.067  0.4450 -0.4097  0.4956
33395SOL    HW2 6023   8.310   6.303   7.066 -1.5235  2.0476 -2.2129
33396SOL     OW 6024   4.121   4.646   3.664  0.4141  0.0287 -0.5616
33396SOL    HW1 6025   4.079   4.613   3.585  0.3639  0.4099 -0.6963
33396SOL    HW2 6026   4.215   4.639   3.646  0.4051  0.7886 -0.9461
33397SOL     OW 6027   0.431  11.346   9.700  0.1888  0.0847 -0.0113
33397SOL    HW1 6028   0.426  11.253   9.724 -0.6288  0.6746  2.4566
33397SOL    HW2 6029   0.520  11.372   9.726 -0.2618  0.4206  1.2855
33398SOL     OW 6030   6.059  10.173   3.106 -0.5560  0.2553 -0.5447
33398SOL    HW1 6031   6.128  10.177   3.172  0.5499 -1.9701 -1.4759
33398SOL    HW2 6032   6.104  10.184   3.023 -1.0377 -2.5959 -1.2726
33399SOL     OW 6033   8.992   7.186   4.633  0.1519 -0.1361 -0.3579
33399SOL    HW1 6034   8.997   7.253   4.564 -0.4824  1.1552  0.8068
33399SOL    HW2 6035   9.023   7.230   4.712 -1.0215 -0.9746  0.6098
33400SOL     OW 6036  10.407   2.366  11.340  0.2386  0.5255  0.6181
33400SOL    HW1 6037  10.486   2.350  11.289  0.4701  0.7336  0.9085
33400SOL    HW2 6038  10.386   2.281  11.379  0.9490  0.7030  1.4249
33401SOL     OW 6039   5.115   1.966   4.704  0.1473  0.1790 -0.3135
33401SOL    HW1 6040   5.181   2.008   4.650  0.6089 -1.6076 -1.2142
33401SOL    HW2 6041   5.034   2.013   4.686  0.4185  0.0004 -2.1174
33402SOL     OW 6042   7.350   5.060   1.375 -0.3840 -0.7392 -0.7149
33402SOL    HW1 6043   7.258   5.034   1.378 -0.4204 -1.1652 -3.0735
33402SOL    HW2 6044   7.398   4.978   1.368  0.2964 -0.5739  1.5288
33403SOL     OW 6045  11.880   5.455  11.275 -0.2325 -0.5516  0.2045
33403SOL    HW1 6046  11.851   5.445  11.366 -1.4370  0.1269 -0.0696
33403SOL    HW2 6047  11.974   5.472  11.281 -0.6969  2.0673  1.5316
33404SOL     OW 6048   9.718   6.951   2.352 -0.9127  0.3936 -0.2008
33404SOL    HW1 6049   9.665   7.013   2.402 -1.4011 -1.4930  1.8317
33404SOL    HW2 6050   9.803   6.994   2.343 -1.6580  1.9369 -0.2028
33405SOL     OW 6051   6.942   2.567   3.642  0.2660  0.2055 -0.3394
33405SOL    HW1 6052   6.946   2.472   3.635 -1.9835  0.0967 -0.9880
33405SOL    HW2 6053   7.023   2.592   3.687  1.3464 -1.9052 -0.9975
33406SOL     OW 6054  11.276   7.228   2.057  0.2014  0.3813  0.4143
33406SOL    HW1 6055  11.325   7.181   1.989  0.6857  1.4678 -0.0057
33406SOL    HW2 6056  11.343   7.270   2.110 -0.1293 -1.1426  2.1205
33407SOL     OW 6057   6.942  10.081   4.670  0.8925 -0.5309 -0.4511
33407SOL    HW1 6058   6.860  10.129   4.657  1.3703 -0.0442 -1.8509
33407SOL    HW2 6059   6.915   9.994   4.699 -0.0007  0.5477  2.3317
33408SOL     OW 6060   0.065   0.282  10.864  0.1183  0.0335 -0.1194
33408SOL    HW1 6061   0.015   0.352  10.907  0.0118  0.9558 -1.6642
33408SOL    HW2 6062   0.139   0.327  10.823  1.1474 -1.0543  0.4698
33409SOL     OW 6063  10.520   2.253   4.619 -0.0577  0.1180 -0.1432
33409SOL    HW1 6064  10.594   2.194   4.602 -0.5615 -0.1330 -1.5535
33409SOL    HW2 6065  10.451   2.223   4.560 -0.9797  0.9373  0.4902
33410SOL     OW 6066   7.044   0.774   9.184 -0.3944 -0.1454  0.5688
33410SOL    HW1 6067   7.125   0.776   9.236 -0.5252  0.1890  0.7630
33410SOL    HW2 6068   7.023   0.680   9.178  0.1126 -0.2509  0.3467
33411SOL     OW 6069   9.996  10.590   0.715 -0.3435  0.3615 -0.5106
33411SOL    HW1 6070  10.085  10.617   0.739  0.1269 -1.1863 -0.3589
33411SOL    HW2 6071   9.940  10.630   0.781  0.6532 -1.6974  1.7400
33412SOL     OW 6072  10.958   7.589   6.274 -0.0098  0.1325  0.5490
33412SOL    HW1 6073  10.953   7.597   6.369  0.7460 -0.8629  0.6978
33412SOL    HW2 6074  11.052   7.599   6.254 -0.1126 -0.0243 -0.0420
33413SOL     OW 6075  11.467   7.528  11.898  0.0070 -0.1105 -0.1373
33413SOL    HW1 6076  11.465   7.593  11.828  0.0019  0.4732  0.3983
33413SOL    HW2 6077  11.486   7.578  11.977  0.1630 -0.7846  0.2591
33414SOL     OW 6078   3.316   7.919   7.912  1.1108  0.5132 -0.4667
33414SOL    HW1 6079   3.283   7.830   7.918  0.8286  0.6750  0.4821
33414SOL    HW2 6080   3.411   7.909   7.907  1.1316  0.1883  0.4651
33415SOL     OW 6081   9.738  10.163   4.613  0.0577 -0.0059  0.0427
33415SOL    HW1 6082   9.696  10.077   4.612  1.6200 -0.8595  1.9029
33415SOL    HW2 6083   9.828  10.145   4.638  0.2546  2.2542  1.1715
33416SOL     OW 6084   3.550  11.811   2.648  0.4269 -0.7950  0.5171
33416SOL    HW1 6085   3.457  11.828   2.636  0.3824 -0.5655  1.1244
33416SOL    HW2 6086   3.556  11.716   2.662  0.2596 -0.7830  0.6757
33417SOL     OW 6087   7.772  11.506   4.696  0.0982 -0.1636 -0.1009
33417SOL    HW1 6088   7.858  11.483   4.662 -0.7630 -0.1379 -2.5490
33417SOL    HW2 6089   7.726  11.423   4.706  0.1534 -0.1280  0.4944
33418SOL     OW 6090   2.608   3.988   6.703 -0.4144 -0.6532  0.1345
33418SOL    HW1 6091   2.516   4.014   6.708 -0.2774 -0.3344  3.2384
33418SOL    HW2 6092   2.656   4.071   6.707  0.0252 -0.8459 -0.9216
33419SOL     OW 6093   5.931   9.347   2.479 -0.8184 -0.2007  0.4785
33419SOL    HW1 6094   5.897   9.436   2.482  1.0626  0.5536  2.1915
33419SOL    HW2 6095   5.858   9.292   2.507 -1.3570  1.0754  1.6952
33420SOL     OW 6096   2.772   0.264   1.897 -0.1211  0.3521 -0.7965
33420SOL    HW1 6097   2.813   0.318   1.964  0.5061 -0.2795 -0.6597
33420SOL    HW2 6098   2.822   0.282   1.817 -0.4323  0.5862 -0.9413
33421SOL     OW 6099   0.231   7.277   2.294  0.1672 -0.1930  0.5090
33421SOL    HW1 6100   0.313   7.255   2.250 -2.1644 -1.7948 -3.6192
33421SOL    HW2 6101   0.216   7.368   2.272 -0.3805 -0.6447 -1.0883
33422SOL     OW 6102   8.815   9.024   4.100 -0.6602  0.2780 -0.3900
33422SOL    HW1 6103   8.821   8.965   4.025 -0.2900 -0.0320 -0.1242
33422SOL    HW2 6104   8.734   9.072   4.087 -2.0758 -1.7381  0.4301
33423SOL     OW 6105   5.098   5.480   8.103  0.4134  0.7818 -0.3449
33423SOL    HW1 6106   5.183   5.524   8.099  0.9486 -0.3217 -1.5629
33423SOL    HW2 6107   5.073   5.466   8.012 -0.3463 -0.2808 -0.0018
33424SOL     OW 6108   3.987   0.280  10.986  0.4195 -0.3616  0.7660
33424SOL    HW1 6109   4.023   0.265  10.899 -1.8683  1.4009 -0.5733
33424SOL    HW2 6110   3.971   0.192  11.020 -0.8175 -1.1249 -1.5688
33425SOL     OW 6111   6.189   7.186   9.234 -1.1015 -0.2637  0.1876
33425SOL    HW1 6112   6.135   7.250   9.282  1.0918  1.3833  0.6260
33425SOL    HW2 6113   6.277   7.196   9.272 -0.3232 -2.3855 -0.9114
33426SOL     OW 6114  10.740   6.371   0.227 -0.3824  0.1334  0.7235
33426SOL    HW1 6115  10.808   6.433   0.254  0.8791 -0.8821 -0.0047
33426SOL    HW2 6116  10.722   6.318   0.305 -1.2712  1.2046  1.2695
33427SOL     OW 6117   5.549   2.504  10.681  0.7821  0.6641  0.3599
33427SOL    HW1 6118   5.581   2.414  10.672  0.6852  0.6293  0.3665
33427SOL    HW2 6119   5.524   2.529  10.592  1.7527  1.0359  0.1726
33428SOL     OW 6120   7.522   8.472   6.250 -0.6122 -0.0959 -0.5452
33428SOL    HW1 6121   7.460   8.467   6.178  1.3216  2.0461 -2.5431
33428SOL    HW2 6122   7.545   8.565   6.255  1.6128 -0.6483  0.7889
33429SOL     OW 6123  11.923  12.135   4.769 -0.7055 -0.0608 -0.4187
33429SOL    HW1 6124  11.858  12.199   4.800  0.8448  1.5042 -0.2624
33429SOL    HW2 6125  11.891  12.051   4.804 -0.6357  1.1713  3.0287
33430SOL     OW 6126   6.019   1.524   7.915  0.0465  0.0246 -0.5647
33430SOL    HW1 6127   6.017   1.620   7.912  1.4586  0.0867 -0.3351
33430SOL    HW2 6128   5.966   1.502   7.991 -0.7931  0.5860 -0.9695
33431SOL     OW 6129   4.338   4.174   7.765  0.5518 -0.6461  0.2089
33431SOL    HW1 6130   4.302   4.087   7.745  1.4148 -1.4708  2.0504
33431SOL    HW2 6131   4.406   4.187   7.699  0.0721 -1.1419 -0.3957
33432SOL     OW 6132  10.660   9.160   9.121 -0.2114 -0.3217 -0.2063
33432SOL    HW1 6133  10.698   9.100   9.056 -0.0391 -0.1044 -0.3074
33432SOL    HW2 6134  10.736   9.204   9.160 -0.3927  1.0811 -1.3329
33433SOL     OW 6135  11.515   6.345   3.266  0.3321  0.0044  0.6005
33433SOL    HW1 6136  11.558   6.260   3.255 -0.7008 -0.4753  0.0655
33433SOL    HW2 6137  11.441   6.342   3.205  1.0498  1.8309 -0.4579
33434SOL     OW 6138   8.313   5.557   0.524  0.2339 -0.6034 -0.5970
33434SOL    HW1 6139   8.220   5.556   0.545  0.5849  0.6759  1.2692
33434SOL    HW2 6140   8.348   5.480   0.569  0.0142 -1.4704 -1.8528
33435SOL     OW 6141   4.331   4.258   5.874  0.6285  0.2492 -0.1127
33435SOL    HW1 6142   4.245   4.289   5.844 -0.6127 -2.2090  0.6535
33435SOL    HW2 6143   4.364   4.205   5.802  0.3868 -0.7407  0.4855
33436SOL     OW 6144   0.944   0.169  11.565  0.1775 -0.1341  0.3103
33436SOL    HW1 6145   1.010   0.185  11.633  0.0557  1.1523  0.1527
33436SOL    HW2 6146   0.977   0.216  11.489 -0.8519  0.4100  0.1907
33437SOL     OW 6147   7.458   7.465   8.178 -0.1241  0.2560  0.2103
33437SOL    HW1 6148   7.395   7.394   8.161 -0.6847  1.0865 -1.3877
33437SOL    HW2 6149   7.495   7.484   8.092  0.1490  1.7804  0.6420
33438SOL     OW 6150   5.227   0.799   3.550 -0.2544 -0.6261  0.8070
33438SOL    HW1 6151   5.231   0.794   3.454  0.9074  1.6584  0.6728
33438SOL    HW2 6152   5.133   0.805   3.569 -0.5990 -2.5085 -0.0362
33439SOL     OW 6153  11.756   1.000   1.423 -0.5028 -0.6805  0.1818
33439SOL    HW1 6154  11.734   0.954   1.342 -0.7894  2.7619 -1.8647
33439SOL    HW2 6155  11.684   1.061   1.437  0.0324 -0.4673  2.5135
33440SOL     OW 6156   4.718   0.755   1.900 -0.5152  0.8301 -0.7279
33440SOL    HW1 6157   4.749   0.666   1.884 -1.1385  0.5674 -0.4915
33440SOL    HW2 6158   4.630   0.744   1.936 -1.4684  1.6078 -2.6929
33441SOL     OW 6159   7.531  10.276   6.206  0.2077 -0.5713  0.0783
33441SOL    HW1 6160   7.516  10.352   6.150 -0.3283 -0.5132  0.2928
33441SOL    HW2 6161   7.626  10.261   6.202  0.1341 -0.7654 -1.0891
33442SOL     OW 6162   5.078  11.578   4.419 -0.2890 -0.1151  0.2021
33442SOL    HW1 6163   5.113  11.665   4.439  0.7757 -0.8302  1.5775
33442SOL    HW2 6164   5.143  11.539   4.361 -0.0163 -0.5451  0.7946
33443SOL     OW 6165   6.598   9.062   9.227  0.1892  0.2628 -0.3259
33443SOL    HW1 6166   6.632   8.973   9.219 -0.2256 -0.1741  1.9932
33443SOL    HW2 6167   6.663   9.116   9.184  1.1583 -1.0364 -0.5761
33444SOL     OW 6168   6.189   2.431   2.566  0.3947  0.3419 -0.4241
33444SOL    HW1 6169   6.128   2.480   2.621  0.5039 -0.8186  0.7945
33444SOL    HW2 6170   6.134   2.393   2.497 -0.5271 -1.6094  1.2884
33445SOL     OW 6171  10.836   2.643   9.200  0.0514  0.6214 -0.3769
33445SOL    HW1 6172  10.798   2.678   9.280  0.5246  2.1025 -0.7695
33445SOL    HW2 6173  10.782   2.680   9.130 -0.9100 -1.3549 -0.7491
33446SOL     OW 6174   4.288   0.852   6.582  0.0514 -0.0109  0.6042
33446SOL    HW1 6175   4.318   0.793   6.651  2.0154 -0.5255 -0.6119
33446SOL    HW2 6176   4.349   0.838   6.509 -3.7046 -1.8943 -2.5704
33447SOL     OW 6177   6.221  12.251   4.759  0.2373 -0.0948  0.7389
33447SOL    HW1 6178   6.155  12.182   4.753  1.5771 -1.5418  1.6796
33447SOL    HW2 6179   6.279  12.235   4.685 -0.6381  1.4027 -0.3073
33448SOL     OW 6180   0.517   5.596  10.519 -0.4579  0.0156 -0.5946
33448SOL    HW1 6181   0.488   5.666  10.577  0.0182  0.9324 -1.4311
33448SOL    HW2 6182   0.484   5.620  10.433  1.5433  0.3668 -1.3106
33449SOL     OW 6183   6.352   9.338   1.884  0.1926 -0.3180 -0.8970
33449SOL    HW1 6184   6.410   9.264   1.862 -0.7718 -1.1787 -0.6277
33449SOL    HW2 6185   6.309   9.311   1.965 -1.2044 -0.0793 -1.5311
33450SOL     OW 6186   7.228   0.896   2.348  0.0740 -0.0405  0.3204
33450SOL    HW1 6187   7.159   0.852   2.298 -0.2890  0.0899  0.7047
33450SOL    HW2 6188   7.309   0.870   2.304 -0.0514 -1.7764  1.0121
33451SOL     OW 6189   9.825  12.329  12.201  0.0076 -0.3298  0.4483
33451SOL    HW1 6190   9.811  12.280  12.283 -1.3304 -1.2115 -0.2735
33451SOL    HW2 6191   9.908  12.296  12.168 -0.8271 -2.1152  0.0169
33452SOL     OW 6192   3.646   1.260  11.603 -0.1700 -0.3685  0.1581
33452SOL    HW1 6193   3.614   1.345  11.632 -0.3650 -0.5140  0.3703
33452SOL    HW2 6194   3.635   1.262  11.508 -1.2306 -0.5849  0.2643
33453SOL     OW 6195   2.011   3.141   8.587  0.5111 -0.3840 -0.3664
33453SOL    HW1 6196   2.046   3.058   8.554 -2.2435 -1.1267 -1.7538
33453SOL    HW2 6197   1.975   3.119   8.673 -0.7291 -0.8290 -0.9743
33454SOL     OW 6198  11.161   2.590   1.453 -0.0497 -0.5230  0.0348
33454SOL    HW1 6199  11.164   2.685   1.441 -0.9692 -0.5940 -0.8961
33454SOL    HW2 6200  11.251   2.565   1.472  0.1826  0.5486  0.4268
33455SOL     OW 6201   0.139   5.920   4.915 -0.4268 -0.5464 -0.4966
33455SOL    HW1 6202   0.072   5.854   4.897  0.1760 -1.6718  1.1876
33455SOL    HW2 6203   0.091   5.992   4.956 -0.6111 -1.4390  0.9040
33456SOL     OW 6204   2.574   0.399   3.392 -0.2021 -0.4160  0.0030
33456SOL    HW1 6205   2.629   0.468   3.355 -1.1786 -0.6581 -2.0140
33456SOL    HW2 6206   2.629   0.320   3.387 -0.9044 -0.8371 -2.8042
33457SOL     OW 6207   4.017   2.928   6.766  0.0092 -0.0673  0.9629
33457SOL    HW1 6208   4.063   2.857   6.722  0.4499 -0.5723  2.2010
33457SOL    HW2 6209   4.010   2.900   6.857 -1.7279  0.5213  1.0482
33458SOL     OW 6210   5.992   5.653   4.073  0.1253 -0.0792  0.3989
33458SOL    HW1 6211   6.083   5.625   4.076  0.1142 -0.6401 -2.2873
33458SOL    HW2 6212   5.942   5.572   4.067 -0.3307  0.2636 -0.8706
33459SOL     OW 6213   3.719   6.095   2.253  0.0927 -0.3183 -0.1796
33459SOL    HW1 6214   3.731   6.181   2.294 -0.8967  0.3646 -1.2700
33459SOL    HW2 6215   3.734   6.033   2.325 -0.1226  0.7861  0.8669
33460SOL     OW 6216   0.783  10.368   7.008 -0.1320  0.0467  0.1210
33460SOL    HW1 6217   0.722  10.374   7.081 -0.2889 -3.0489  0.3947
33460SOL    HW2 6218   0.822  10.281   7.018  3.2208  1.3055 -0.9284
33461SOL     OW 6219   1.358   3.375   0.885  0.0309 -0.4696  0.2190
33461SOL    HW1 6220   1.441   3.400   0.845 -0.3755  0.3209 -0.1312
33461SOL    HW2 6221   1.361   3.279   0.888  1.3244 -0.4253  0.9984
33462SOL     OW 6222   5.696   2.937   9.059 -0.0279 -0.0857  0.6240
33462SOL    HW1 6223   5.776   2.939   9.111  0.1359 -1.9308  0.5322
33462SOL    HW2 6224   5.643   3.008   9.093  2.0374  1.8569 -0.0041
33463SOL     OW 6225   8.273   8.253  10.210 -0.6149  0.3466  0.4353
33463SOL    HW1 6226   8.337   8.226  10.143 -0.5796  2.3473 -0.4031
33463SOL    HW2 6227   8.301   8.206  10.289  1.6129  0.7393 -0.0294
33464SOL     OW 6228   4.500   0.647   3.380  0.5416  0.4636  0.4166
33464SOL    HW1 6229   4.523   0.718   3.440 -0.2185 -0.0147  1.2904
33464SOL    HW2 6230   4.583   0.601   3.365  0.5858 -0.0024  1.8992
33465SOL     OW 6231  10.634   3.747   2.531 -0.0321 -0.0267 -0.0186
33465SOL    HW1 6232  10.699   3.773   2.466 -0.2119  1.5402  0.3810
33465SOL    HW2 6233  10.685   3.721   2.607  0.1515  1.4480  0.3832
33466SOL     OW 6234  10.289   8.277  11.604 -0.0630 -0.3352 -0.1909
33466SOL    HW1 6235  10.298   8.200  11.661 -1.9206 -0.3231  0.1839
33466SOL    HW2 6236  10.196   8.298  11.607  0.0372  0.5706 -2.1012
33467SOL     OW 6237   0.444   8.657   3.388 -0.2973  0.3347 -0.1390
33467SOL    HW1 6238   0.433   8.704   3.471 -1.2633 -0.2429  0.0747
33467SOL    HW2 6239   0.376   8.694   3.332  0.1650  0.5146 -0.5833
33468SOL     OW 6240  12.206   7.766   3.575 -0.5914  0.0085 -0.1611
33468SOL    HW1 6241  12.211   7.796   3.666 -1.6417  2.1218 -0.7489
33468SOL    HW2 6242  12.131   7.813   3.538  0.1258 -0.3943 -2.2743
33469SOL     OW 6243   6.732   3.959   3.086 -0.2067  0.2667  0.0311
33469SOL    HW1 6244   6.752   4.002   3.169  0.5455 -1.8866  1.0474
33469SOL    HW2 6245   6.646   3.918   3.101  0.6929 -1.5771  0.4235
33470SOL     OW 6246   8.599   0.544   0.102  0.0928 -0.2518  0.0581
33470SOL    HW1 6247   8.570   0.540   0.011 -1.3640 -2.3300  0.5227
33470SOL    HW2 6248   8.687   0.506   0.101 -0.1955 -0.9206 -0.3993
33471SOL     OW 6249   8.491  10.340   1.523 -0.1352  0.0998  0.1559
33471SOL    HW1 6250   8.475  10.327   1.430  2.6198  0.7202 -0.5021
33471SOL    HW2 6251   8.585  10.358   1.529 -0.1524 -0.2480  3.1024
33472SOL     OW 6252   3.411   9.370  10.528 -0.6739  0.6917 -0.0282
33472SOL    HW1 6253   3.338   9.415  10.572 -1.2802 -1.3585  1.2266
33472SOL    HW2 6254   3.369   9.301  10.476  0.3333 -0.5954  0.7993
33473SOL     OW 6255   1.354   4.928   6.564  0.2276 -0.2871  0.4120
33473SOL    HW1 6256   1.392   4.897   6.481  0.0152  0.9290 -0.1599
33473SOL    HW2 6257   1.429   4.959   6.614  0.3991 -1.3587  0.8392
33474SOL     OW 6258  12.231   9.795   5.399  0.3155 -0.5090 -0.1530
33474SOL    HW1 6259  12.317   9.830   5.421  0.9918 -0.1722 -2.9378
33474SOL    HW2 6260  12.235   9.702   5.421  0.7185 -0.1472  1.4072
33475SOL     OW 6261   5.773   8.897  12.105  0.2860 -0.6397 -0.0587
33475SOL    HW1 6262   5.839   8.881  12.038  0.0412 -0.1746 -0.4191
33475SOL    HW2 6263   5.690   8.873  12.063  0.2148 -1.1943  0.3806
33476SOL     OW 6264   5.637  10.343  12.226  0.4260  0.2599 -0.1027
33476SOL    HW1 6265   5.544  10.321  12.229 -0.2388  2.8544  0.6881
33476SOL    HW2 6266   5.663  10.328  12.135 -0.4565 -1.4632 -0.1176
33477SOL     OW 6267   0.904   3.329   1.463 -0.1697  0.3381  0.2122
33477SOL    HW1 6268   0.999   3.336   1.453  0.0194  2.9723  2.6013
33477SOL    HW2 6269   0.869   3.369   1.383  0.6354 -1.2335 -0.9895
33478SOL     OW 6270   9.101   5.159   6.697 -0.0874  0.6288  0.1640
33478SOL    HW1 6271   9.025   5.200   6.738 -0.7710 -0.4481  0.0049
33478SOL    HW2 6272   9.153   5.233   6.665 -1.4686  1.3868 -0.4543
33479SOL     OW 6273   3.533   0.929   1.477 -0.1507  0.2252  0.5630
33479SOL    HW1 6274   3.445   0.947   1.445  0.6921 -0.3452 -2.3465
33479SOL    HW2 6275   3.579   1.012   1.470  0.3641 -0.1637 -0.9715
33480SOL     OW 6276   0.200   7.255   9.853  0.8657  0.5723  0.2309
33480SOL    HW1 6277   0.230   7.329   9.906  0.5128 -0.1598  1.4932
33480SOL    HW2 6278   0.126   7.218   9.902 -0.3431  0.6447 -1.4228
33481SOL     OW 6279   3.722   5.317   6.862 -0.4445 -0.3493 -0.4860
33481SOL    HW1 6280   3.814   5.339   6.847 -0.5489 -0.5164 -1.3985
33481SOL    HW2 6281   3.710   5.232   6.821 -0.5066 -1.3367  1.4555
33482SOL     OW 6282   6.654   0.203   0.232 -0.0401  0.6483 -0.3972
33482SOL    HW1 6283   6.740   0.209   0.273 -0.4389  0.8922  0.4402
33482SOL    HW2 6284   6.633   0.294   0.208  0.6734  0.3664 -2.2077
33483SOL     OW 6285   8.949   0.261   6.773  0.7600 -0.3857  0.2321
33483SOL    HW1 6286   8.930   0.198   6.841  2.9365 -1.5511 -0.1467
33483SOL    HW2 6287   8.899   0.339   6.797  0.2037 -1.3113  2.2378
33484SOL     OW 6288   6.858   9.492   7.027 -0.1836  0.0415 -0.2585
33484SOL    HW1 6289   6.826   9.562   6.971 -0.1233  0.3787  0.1224
33484SOL    HW2 6290   6.874   9.418   6.968  0.1866  0.4962 -0.7335
33485SOL     OW 6291   5.669   4.280   9.862  0.1269 -0.0270  0.7764
33485SOL    HW1 6292   5.586   4.290   9.814  0.9448  0.4891 -0.5696
33485SOL    HW2 6293   5.683   4.186   9.866  0.0301 -0.0785  0.0124
33486SOL     OW 6294   5.255   4.622   4.385 -0.0433 -0.1713 -0.3066
33486SOL    HW1 6295   5.194   4.686   4.349 -0.8632  0.5719  2.2061
33486SOL    HW2 6296   5.200   4.556   4.427  0.8431 -0.0532  1.1057
33487SOL     OW 6297  12.302  11.968   4.696 -0.1527 -0.6205  0.2313
33487SOL    HW1 6298  12.227  11.966   4.636 -0.3220  0.0401  0.4180
33487SOL    HW2 6299  12.264  11.979   4.783  0.2098  1.6237  0.1700
33488SOL     OW 6300  10.209   2.687   3.549  0.1114  0.1158 -0.3028
33488SOL    HW1 6301  10.178   2.731   3.470 -0.3200  1.9381  0.8162
33488SOL    HW2 6302  10.130   2.647   3.587 -0.0867  0.9503  0.2092
33489SOL     OW 6303  11.194   4.859   2.091  0.7851 -0.0607  0.3256
33489SOL    HW1 6304  11.122   4.842   2.153 -0.3959 -0.0943 -0.9909
33489SOL    HW2 6305  11.244   4.929   2.132  0.3719 -0.4461  1.5668
33490SOL     OW 6306   6.409   7.266   1.498  0.0588  0.1427  0.0946
33490SOL    HW1 6307   6.397   7.317   1.577  0.4129 -1.0244  0.9296
33490SOL    HW2 6308   6.494   7.223   1.510 -0.6402 -1.3629 -0.1356
33491SOL     OW 6309   5.543   2.814   8.375 -0.6541 -0.1845  0.2492
33491SOL    HW1 6310   5.538   2.774   8.288 -0.1081  0.4293 -0.0670
33491SOL    HW2 6311   5.607   2.884   8.366 -0.7653  0.0340  1.0908
33492SOL     OW 6312   0.490  11.554   0.785  0.1560  0.5872  0.7054
33492SOL    HW1 6313   0.555  11.483   0.781 -0.7883 -0.2427 -0.5451
33492SOL    HW2 6314   0.543  11.633   0.793  1.2941 -0.1356  0.6583
33493SOL     OW 6315   1.849  10.462  11.196  0.6559  0.3161 -0.2085
33493SOL    HW1 6316   1.760  10.462  11.232  0.7636 -0.8924  0.1002
33493SOL    HW2 6317   1.906  10.469  11.273  0.8312  0.5643 -0.3614
33494SOL     OW 6318  10.673   6.442   1.677  0.6306  0.1571 -0.3018
33494SOL    HW1 6319  10.712   6.409   1.758  1.6908  0.3306 -0.7249
33494SOL    HW2 6320  10.698   6.378   1.610 -1.2539 -0.6478 -0.3239
33495SOL     OW 6321   5.827   1.003  10.346  0.1809  0.1389  0.3483
33495SOL    HW1 6322   5.876   1.073  10.390  1.7424 -0.5151 -0.2492
33495SOL    HW2 6323   5.752   0.987  10.403  0.0741  1.9129  0.7720
33496SOL     OW 6324  11.196   0.181   9.683  0.0969 -0.0107 -0.0638
33496SOL    HW1 6325  11.229   0.119   9.748 -1.3632 -0.7879 -0.0329
33496SOL    HW2 6326  11.107   0.152   9.665 -0.0799  1.1650 -1.2162
33497SOL     OW 6327  10.474   5.722   3.483  0.0782  0.5114  0.6733
33497SOL    HW1 6328  10.399   5.719   3.542 -0.2403  1.8733  0.3840
33497SOL    HW2 6329  10.469   5.809   3.443 -0.4080 -0.7566 -2.2771
33498SOL     OW 6330   0.304   5.119   9.509  0.5229 -0.3198 -0.2296
33498SOL    HW1 6331   0.295   5.048   9.446  1.7130 -0.7450  0.0457
33498SOL    HW2 6332   0.367   5.179   9.469  1.8429 -0.9388  0.8005
33499SOL     OW 6333  11.617   1.833   7.924 -0.8408 -0.5446 -0.3479
33499SOL    HW1 6334  11.597   1.924   7.944  1.9648 -0.2657  1.8576
33499SOL    HW2 6335  11.637   1.832   7.831  0.1816  1.3661 -0.1909
33500SOL     OW 6336   8.273   9.720   3.209  0.1744  0.5349 -0.3588
33500SOL    HW1 6337   8.341   9.656   3.185  1.1860  1.6722 -0.6184
33500SOL    HW2 6338   8.262   9.774   3.130 -1.0699  0.3599 -0.3326
33501SOL     OW 6339   0.370   1.924   0.269 -0.0921 -0.1456  0.4095
33501SOL    HW1 6340   0.341   1.976   0.194 -0.1305 -0.3084  0.3120
33501SOL    HW2 6341   0.441   1.976   0.308  0.9189 -0.7281 -0.5896
33502SOL     OW 6342   1.839   3.504   0.524 -0.3343  0.2413  0.2831
33502SOL    HW1 6343   1.839   3.412   0.552 -0.0096 -0.2396 -1.2167
33502SOL    HW2 6344   1.796   3.503   0.438  1.9282  1.0886 -0.9381
33503SOL     OW 6345  11.543  12.151   6.040 -0.0826 -0.0395  0.0594
33503SOL    HW1 6346  11.460  12.129   5.998 -0.1229 -0.8069  0.5252
33503SOL    HW2 6347  11.565  12.073   6.092  1.1144  0.0102 -0.3534
33504SOL     OW 6348   8.064   2.240   3.236  0.3707 -0.4367  0.5512
33504SOL    HW1 6349   8.093   2.266   3.323 -0.1243 -1.1618  0.9448
33504SOL    HW2 6350   8.083   2.316   3.180  0.0981  0.2709  1.4065
33505SOL     OW 6351   8.950   5.069  12.206 -0.4040  0.0672  0.1875
33505SOL    HW1 6352   8.995   5.085  12.123  0.0185  1.8448  0.6994
33505SOL    HW2 6353   8.884   5.004  12.186 -1.4251  1.6487 -1.9623
33506SOL     OW 6354   3.686   6.401   7.425 -0.0667  0.2735 -0.4992
33506SOL    HW1 6355   3.781   6.395   7.420  0.0312  0.5037  0.7020
33506SOL    HW2 6356   3.668   6.424   7.517 -1.3818 -2.1919 -0.0509
33507SOL     OW 6357   1.087   2.517   7.036  0.4985 -0.0286  0.3763
33507SOL    HW1 6358   1.053   2.470   6.960  0.3446 -0.0731  0.4719
33507SOL    HW2 6359   1.010   2.559   7.075  0.9980  2.7566 -1.3844
33508SOL     OW 6360   0.904   7.918   9.209  0.9203  0.0668  0.0350
33508SOL    HW1 6361   0.814   7.922   9.179  1.1249  0.2322 -0.5687
33508SOL    HW2 6362   0.901   7.861   9.286  0.5110 -1.0091 -0.7520
33509SOL     OW 6363  11.489   7.329   1.734 -0.3540  0.1188 -0.6453
33509SOL    HW1 6364  11.402   7.308   1.701 -0.3474 -0.2411 -0.4390
33509SOL    HW2 6365  11.500   7.273   1.811  0.7629 -1.1489 -1.6790
33510SOL     OW 6366   9.050   8.235  11.182 -0.5366  0.7197 -0.2619
33510SOL    HW1 6367   9.044   8.324  11.147 -1.5061  1.0636  0.6988
33510SOL    HW2 6368   9.082   8.247  11.272 -1.4193  0.1905  0.1403
33511SOL     OW 6369   0.258  11.968  10.677 -0.4474  0.3640 -0.2062
33511SOL    HW1 6370   0.190  11.919  10.631  0.3357 -0.1362 -0.8698
33511SOL    HW2 6371   0.216  12.001  10.756 -1.3298 -0.3089 -0.3887
33512SOL     OW 6372   6.647   0.078   6.018 -0.1349  0.1759 -0.1570
33512SOL    HW1 6373   6.611   0.162   6.046 -0.8459  0.4098 -1.6570
33512SOL    HW2 6374   6.593   0.053   5.943  1.8068 -0.2487 -1.4985
33513SOL     OW 6375   5.089   1.087   7.495  0.3104 -0.1719  0.1134
33513SOL    HW1 6376   5.151   1.157   7.475  0.3920  0.0498  1.0558
33513SOL    HW2 6377   5.142   1.007   7.494  0.1754 -0.2501 -1.1666
33514SOL     OW 6378  10.440   3.871   5.076 -0.2808 -0.3893 -0.4477
33514SOL    HW1 6379  10.346   3.887   5.089 -0.1946 -0.0343 -0.2544
33514SOL    HW2 6380  10.470   3.837   5.160 -0.2111 -0.3970 -0.4761
33515SOL     OW 6381   2.294   4.979   4.278  0.1461  0.4600 -0.3114
33515SOL    HW1 6382   2.340   5.038   4.338  1.5902  0.2903 -1.1998
33515SOL    HW2 6383   2.254   5.037   4.213 -1.0288  0.6149  0.5225
33516SOL     OW 6384   4.978   8.066   1.605  0.4146 -0.0154  0.0170
33516SOL    HW1 6385   5.015   8.084   1.518  0.1115 -0.9527 -0.3197
33516SOL    HW2 6386   4.974   7.970   1.610 -1.4340  0.0328  0.2538
33517SOL     OW 6387   8.220  12.185   9.677  0.1838  0.2876 -0.1306
33517SOL    HW1 6388   8.304  12.193   9.723  0.1487 -1.0389  0.1992
33517SOL    HW2 6389   8.211  12.092   9.659  0.0350  0.6959 -2.5781
33518SOL     OW 6390   7.551   5.055   6.974 -0.4933  0.0765 -0.2702
33518SOL    HW1 6391   7.483   5.062   7.041  0.5716  0.3504  0.8173
33518SOL    HW2 6392   7.503   5.053   6.891 -1.9367 -1.8842  0.5442
33519SOL     OW 6393   9.902   5.749   6.326 -0.6178 -0.1574 -0.3316
33519SOL    HW1 6394   9.815   5.788   6.322 -0.2842  0.5113 -1.3243
33519SOL    HW2 6395   9.904   5.687   6.253  0.5000  1.5093 -1.8041
33520SOL     OW 6396   0.460   7.358   1.114 -0.0255  0.1083 -0.0316
33520SOL    HW1 6397   0.516   7.296   1.161  0.8829  1.5161  0.8383
33520SOL    HW2 6398   0.516   7.393   1.046 -0.3145  0.4572 -0.0924
33521SOL     OW 6399   4.095  10.626   3.176  0.1348  0.1391  0.5261
33521SOL    HW1 6400   4.103  10.613   3.270 -1.4498 -0.5569  0.6080
33521SOL    HW2 6401   4.132  10.547   3.136 -1.5007 -0.7654  0.6987
33522SOL     OW 6402   6.665   1.489   9.207  0.4464  0.0323 -0.0695
33522SOL    HW1 6403   6.757   1.479   9.181  0.4566 -1.0365  0.3313
33522SOL    HW2 6404   6.649   1.415   9.266 -0.9043 -0.2428 -0.7567
33523SOL     OW 6405   4.183   8.059   0.340 -0.3766 -0.5289  0.0641
33523SOL    HW1 6406   4.209   8.046   0.249  1.5167  0.7748  0.3695
33523SOL    HW2 6407   4.187   8.154   0.354 -0.3670 -0.7150  1.5621
33524SOL     OW 6408   8.069  10.377   4.684  0.4814  0.2508 -0.2605
33524SOL    HW1 6409   8.152  10.421   4.667  1.3913 -1.0439  0.6747
33524SOL    HW2 6410   8.069  10.359   4.778 -0.5474 -0.3690 -0.3598
33525SOL     OW 6411   7.047   3.021   3.737  0.0549 -0.2925 -0.5295
33525SOL    HW1 6412   7.064   2.998   3.646 -0.7388  0.1987 -0.8097
33525SOL    HW2 6413   7.007   2.943   3.774  0.8643 -0.6815 -0.4472
33526SOL     OW 6414   9.306   9.103   1.802  0.1390  0.0532 -0.1530
33526SOL    HW1 6415   9.381   9.111   1.861  0.3400 -0.6790 -0.2963
33526SOL    HW2 6416   9.343   9.067   1.721 -0.0309  1.6017 -0.9677
33527SOL     OW 6417   7.918   5.857   8.405 -0.1521 -0.0740  0.6126
33527SOL    HW1 6418   7.823   5.857   8.397 -0.1253 -1.2570  0.1277
33527SOL    HW2 6419   7.935   5.873   8.498 -0.7668  1.9469  0.4121
33528SOL     OW 6420   3.774   2.639   2.628  0.2751  0.0623  0.5389
33528SOL    HW1 6421   3.720   2.707   2.669 -1.8908 -0.8083 -0.6702
33528SOL    HW2 6422   3.745   2.638   2.537 -0.1505 -2.7734  0.6241
33529SOL     OW 6423   2.143  11.909   7.037  0.1015 -0.1189 -0.4060
33529SOL    HW1 6424   2.199  11.884   6.963 -0.1385  0.7153 -0.8863
33529SOL    HW2 6425   2.202  11.956   7.096  0.2474 -0.6069 -0.1560
33530SOL     OW 6426   0.606   0.317   5.510 -0.0672  0.1379  0.1144
33530SOL    HW1 6427   0.552   0.304   5.432 -0.9688 -2.1131  1.0416
33530SOL    HW2 6428   0.546   0.352   5.576 -0.2651 -1.5611  0.8914
33531SOL     OW 6429   3.136   0.837   1.866  0.3496 -0.2817  0.1817
33531SOL    HW1 6430   3.201   0.907   1.853 -0.6012  0.5025 -0.5078
33531SOL    HW2 6431   3.169   0.788   1.941  0.8475  1.1767  0.9662
33532SOL     OW 6432   3.280   7.989   8.875 -0.1000  0.2476  0.8580
33532SOL    HW1 6433   3.232   7.908   8.855  0.5856  0.0127  0.1269
33532SOL    HW2 6434   3.353   7.962   8.929  1.8291 -0.1103 -1.7514
33533SOL     OW 6435  11.117   8.622   6.057 -0.1960  0.4845  0.0896
33533SOL    HW1 6436  11.206   8.646   6.031  0.1263 -0.8787 -0.1004
33533SOL    HW2 6437  11.124   8.598   6.149 -0.1244 -0.7941 -0.2408
33534SOL     OW 6438   3.038   8.423  10.589  0.0728 -0.6755  0.0704
33534SOL    HW1 6439   2.958   8.382  10.557  0.0888 -0.9909  0.4269
33534SOL    HW2 6440   3.108   8.365  10.561  0.1615 -0.5110 -0.0549
33535SOL     OW 6441  11.976   8.842   3.039 -0.3694 -0.2018 -0.1699
33535SOL    HW1 6442  11.948   8.797   3.119  0.0657 -0.5639 -0.2168
33535SOL    HW2 6443  11.957   8.779   2.969 -0.3864 -0.0418 -0.3099
33536SOL     OW 6444  10.581   6.886   6.425 -0.5337 -0.6273 -0.4756
33536SOL    HW1 6445  10.594   6.890   6.520 -0.8227 -1.3251 -0.4027
33536SOL    HW2 6446  10.524   6.810   6.412 -0.2488 -0.7132 -1.2360
33537SOL     OW 6447   4.172  11.061   4.436  0.2236  0.1534 -0.2030
33537SOL    HW1 6448   4.085  11.085   4.405 -0.3285 -1.4916 -0.0182
33537SOL    HW2 6449   4.210  11.011   4.363 -0.0013 -1.3244  0.6624
33538SOL     OW 6450  10.000   0.517   2.079 -0.7759 -0.0692  0.0893
33538SOL    HW1 6451  10.028   0.608   2.085  0.1382 -0.3119 -0.2397
33538SOL    HW2 6452  10.052   0.472   2.145 -0.6373 -0.4794 -0.2948
33539SOL     OW 6453   0.843   4.375  11.826 -0.1106 -0.1318  0.4228
33539SOL    HW1 6454   0.874   4.338  11.908 -0.3798 -0.3352  0.4351
33539SOL    HW2 6455   0.879   4.463  11.824  1.0932 -0.6130  0.0795
33540SOL     OW 6456  10.729  11.798   1.424 -0.7994  0.2719 -0.0802
33540SOL    HW1 6457  10.695  11.849   1.351 -0.1725 -0.7114 -1.0924
33540SOL    HW2 6458  10.805  11.846   1.454 -0.9584  0.5946 -0.1840
33541SOL     OW 6459   1.470  11.302  10.962 -0.5935  0.1929 -0.2152
33541SOL    HW1 6460   1.397  11.258  10.918 -0.1737 -0.3652 -0.3609
33541SOL    HW2 6461   1.526  11.332  10.890  0.1330 -0.7856 -0.0759
33542SOL     OW 6462   1.020   3.659   6.340  0.1180 -0.5216  0.3088
33542SOL    HW1 6463   0.952   3.723   6.365  1.1378  1.3617 -1.4516
33542SOL    HW2 6464   1.040   3.680   6.249  0.5913 -3.3652 -0.3354
33543SOL     OW 6465   7.182   4.786  11.805 -0.6089 -0.1529 -0.1425
33543SOL    HW1 6466   7.270   4.750  11.816 -0.8549 -0.6382  0.2746
33543SOL    HW2 6467   7.136   4.763  11.886 -1.3175 -0.4816 -0.6248
33544SOL     OW 6468   6.822   1.185   8.720 -0.1233  0.2317 -0.0710
33544SOL    HW1 6469   6.882   1.246   8.764  0.4359  0.4017 -1.0516
33544SOL    HW2 6470   6.760   1.160   8.789  0.0543  1.3553  0.5240
33545SOL     OW 6471   0.764   6.802   6.520 -0.6816 -0.6648 -0.0283
33545SOL    HW1 6472   0.745   6.866   6.452  0.3085 -0.6582 -0.3091
33545SOL    HW2 6473   0.730   6.842   6.600  1.4649  1.0623  0.1225
33546SOL     OW 6474   2.402   8.059   5.993 -0.6117  0.0700 -0.1219
33546SOL    HW1 6475   2.383   7.989   6.056  0.2679 -0.6202 -0.6043
33546SOL    HW2 6476   2.364   8.029   5.911 -0.4167  0.2622 -0.2840
33547SOL     OW 6477   9.689   2.237   8.523  0.3119 -0.0325 -0.1705
33547SOL    HW1 6478   9.682   2.294   8.600 -1.5411 -1.8783  1.1077
33547SOL    HW2 6479   9.617   2.264   8.466 -0.2479 -0.7123  0.2005
33548SOL     OW 6480   9.497   7.539   0.849  0.3182  0.2754  0.0864
33548SOL    HW1 6481   9.546   7.460   0.826  1.5868  1.2306 -0.6337
33548SOL    HW2 6482   9.495   7.539   0.944 -1.3820 -1.5839  0.1305
33549SOL     OW 6483   8.138  12.192   7.432  0.0041  0.8419  0.3973
33549SOL    HW1 6484   8.083  12.123   7.395 -1.1021  1.6128  0.5655
33549SOL    HW2 6485   8.189  12.147   7.500 -0.1575  0.0442  0.0015
33550SOL     OW 6486   4.370  11.336   1.966 -0.4386 -0.0296 -0.2261
33550SOL    HW1 6487   4.296  11.392   1.990  0.7630  1.5324  0.0781
33550SOL    HW2 6488   4.446  11.378   2.008  1.1321  0.3261 -3.1241
33551SOL     OW 6489   2.268  11.470   1.790 -0.0214 -0.1366 -0.0456
33551SOL    HW1 6490   2.359  11.479   1.819  0.6161  1.6579 -2.2996
33551SOL    HW2 6491   2.267  11.389   1.739  0.4983  0.1602 -0.5425
33552SOL     OW 6492   9.456   4.668  11.564 -0.1479  0.0247  0.6036
33552SOL    HW1 6493   9.479   4.708  11.480  0.6937  0.1770  0.8888
33552SOL    HW2 6494   9.471   4.738  11.628 -0.8897 -0.0544  0.8725
33553SOL     OW 6495   8.546   0.089   5.051  0.1204 -0.1237  0.1372
33553SOL    HW1 6496   8.640   0.089   5.032  0.2024  2.0235  0.3490
33553SOL    HW2 6497   8.506   0.052   4.973  1.1184 -0.8196 -0.0621
33554SOL     OW 6498   0.656   7.574   8.663  0.4340 -0.1216  0.5932
33554SOL    HW1 6499   0.630   7.665   8.672 -0.3906 -0.2912  0.0040
33554SOL    HW2 6500   0.654   7.557   8.569 -0.1331 -0.9493  0.7477
33555SOL     OW 6501   8.625   7.687   4.598 -0.4338 -0.1837  0.1254
33555SOL    HW1 6502   8.682   7.665   4.524  2.0789 -1.6255  2.2948
33555SOL    HW2 6503   8.546   7.635   4.584  0.1140 -0.6711 -1.3624
33556SOL     OW 6504   6.303   3.014   9.150 -0.2078 -0.3372 -0.1761
33556SOL    HW1 6505   6.360   3.019   9.227  0.0819 -0.4544 -0.3785
33556SOL    HW2 6506   6.264   2.927   9.155 -1.8176  0.4041  0.9594
33557SOL     OW 6507   0.853  11.217   9.728  0.3312  0.6629  0.2069
33557SOL    HW1 6508   0.803  11.293   9.755  1.8315  1.7144  0.1435
33557SOL    HW2 6509   0.824  11.200   9.638 -0.9173  0.3515  0.6473
33558SOL     OW 6510  10.788   9.804   2.625  0.2626 -0.0405 -0.3811
33558SOL    HW1 6511  10.778   9.895   2.653  1.1454 -0.4229  1.3151
33558SOL    HW2 6512  10.834   9.810   2.541  0.9145  1.0629  0.0240
33559SOL     OW 6513   0.335   3.132   1.473 -0.0269 -0.1122 -0.1128
33559SOL    HW1 6514   0.332   3.058   1.534 -0.5711  0.8372  1.0613
33559SOL    HW2 6515   0.249   3.173   1.481  0.0539  0.2991 -1.2043
33560SOL     OW 6516  10.008   0.132   7.487  0.2249  0.1200  0.4231
33560SOL    HW1 6517   9.922   0.112   7.524  0.6601  0.0664  1.4596
33560SOL    HW2 6518  10.037   0.209   7.536  0.1498  1.0385 -0.9453
33561SOL     OW 6519  12.132   1.573  11.857  0.2199 -0.1066 -0.1736
33561SOL    HW1 6520  12.149   1.667  11.853  1.2782 -0.1381  2.1274
33561SOL    HW2 6521  12.041   1.567  11.888  0.4061  0.1903  0.4555
33562SOL     OW 6522   3.900   1.776  10.645 -0.2730 -0.6131  0.0071
33562SOL    HW1 6523   3.951   1.746  10.570  1.7849 -1.5782  1.6723
33562SOL    HW2 6524   3.881   1.867  10.626 -0.0760 -0.9223 -1.8208
33563SOL     OW 6525   9.934   2.516   8.019 -0.0302 -0.2297 -0.2703
33563SOL    HW1 6526   9.865   2.554   7.965  0.0579 -2.3285 -1.9491
33563SOL    HW2 6527   9.888   2.477   8.094 -0.2382  1.7778  0.7196
33564SOL     OW 6528  11.869   4.014   1.011  0.0947 -0.0215 -0.4490
33564SOL    HW1 6529  11.880   4.031   1.105  0.1809 -1.8045 -0.0949
33564SOL    HW2 6530  11.839   4.098   0.975 -1.4106  0.3440  1.4257
33565SOL     OW 6531   9.019  11.398   0.493 -0.5656 -0.0763 -0.0626
33565SOL    HW1 6532   8.954  11.426   0.428  0.3666  2.3859 -0.0193
33565SOL    HW2 6533   9.053  11.316   0.457 -0.5160  0.8771 -2.4023
33566SOL     OW 6534   0.004   4.339   8.198 -0.2836  0.5424  0.3634
33566SOL    HW1 6535   0.000   4.341   8.102 -0.3102  0.8169  0.3694
33566SOL    HW2 6536  -0.077   4.294   8.224  0.3800 -0.7991  0.2147
33567SOL     OW 6537   9.906   0.465   6.243 -0.0440  0.1524  0.1217
33567SOL    HW1 6538   9.865   0.395   6.192  0.8279  0.6678 -1.3422
33567SOL    HW2 6539   9.859   0.465   6.326 -0.4540 -1.7855 -0.0621
33568SOL     OW 6540   4.290   0.037  11.615 -0.5348 -0.1782 -0.2355
33568SOL    HW1 6541   4.374   0.025  11.570 -0.1204 -2.0107  0.9415
33568SOL    HW2 6542   4.245   0.105  11.564  1.5676  0.7184 -0.9902
33569SOL     OW 6543   9.212  11.620   3.695 -0.3870 -0.4619 -0.1567
33569SOL    HW1 6544   9.271  11.695   3.695  1.0912 -1.5442  1.3151
33569SOL    HW2 6545   9.194  11.604   3.787  0.0102 -2.3952 -0.3678
33570SOL     OW 6546   5.733   7.697   3.549  0.0096 -0.4154  0.0953
33570SOL    HW1 6547   5.766   7.625   3.602  1.2059  0.2317  0.2695
33570SOL    HW2 6548   5.763   7.677   3.460 -0.1680 -0.4295  0.0379
33571SOL     OW 6549   3.657   5.724   2.088 -0.2189 -0.2793 -0.1790
33571SOL    HW1 6550   3.748   5.731   2.059 -0.5674 -0.6847 -1.4401
33571SOL    HW2 6551   3.617   5.807   2.063 -0.7005 -0.9050 -1.6036
33572SOL     OW 6552   0.256   1.044   9.484  0.6756  0.5694 -0.1134
33572SOL    HW1 6553   0.208   0.966   9.459  2.1175 -0.0925 -0.9295
33572SOL    HW2 6554   0.346   1.014   9.499  1.1310  1.9590  0.1581
33573SOL     OW 6555   6.908   0.675   8.360 -0.3307 -0.6466 -0.8542
33573SOL    HW1 6556   6.897   0.754   8.307 -4.2501 -0.3985  0.0272
33573SOL    HW2 6557   6.887   0.603   8.301 -0.6440 -0.7000 -0.6782
33574SOL     OW 6558   5.432   3.702  11.309 -0.0205 -0.0043 -0.2900
33574SOL    HW1 6559   5.388   3.617  11.305 -0.6821  0.3470 -0.8628
33574SOL    HW2 6560   5.381   3.753  11.372  0.8013 -0.2598  0.5899
33575SOL     OW 6561   0.063   2.692  12.123 -0.2967  0.7837 -0.0362
33575SOL    HW1 6562   0.013   2.761  12.168 -0.9173  1.7175 -2.0528
33575SOL    HW2 6563   0.115   2.739  12.058  0.8010 -0.4976 -0.1044
33576SOL     OW 6564  11.226  12.278   3.772 -0.1105  0.1412  0.7058
33576SOL    HW1 6565  11.214  12.347   3.837 -0.8989 -0.8753  1.6540
33576SOL    HW2 6566  11.157  12.294   3.707 -1.4963 -0.8233  1.8893
33577SOL     OW 6567   0.642   3.365   9.130  0.1142 -0.1128  0.4599
33577SOL    HW1 6568   0.698   3.299   9.170 -0.0000 -0.4493  0.0669
33577SOL    HW2 6569   0.564   3.369   9.186  0.0906 -0.3610  0.4454
33578SOL     OW 6570   7.818   0.194   3.074 -0.7478 -0.1490  0.1393
33578SOL    HW1 6571   7.871   0.263   3.114 -0.9494 -0.4224  0.8845
33578SOL    HW2 6572   7.882   0.143   3.024 -0.6026  0.5912 -0.4588
33579SOL     OW 6573   9.364   6.272  10.798  0.0067  0.4435  0.5795
33579SOL    HW1 6574   9.403   6.235  10.719 -0.0186  0.9827  0.3106
33579SOL    HW2 6575   9.376   6.204  10.865  0.3259  0.1197  0.1967
33580SOL     OW 6576   1.956   3.191   1.679  0.3601  0.3606 -0.2475
33580SOL    HW1 6577   1.986   3.266   1.730 -2.5642  0.7947  1.0452
33580SOL    HW2 6578   1.973   3.115   1.734  1.6667  0.2354 -0.7878
33581SOL     OW 6579   8.057  10.564   9.159 -0.0939 -0.0423 -0.4563
33581SOL    HW1 6580   8.034  10.480   9.198  0.3406  0.3453  0.6869
33581SOL    HW2 6581   8.149  10.577   9.183  0.1050  0.3437 -1.3917
33582SOL     OW 6582   0.059   8.907   5.078 -0.4167 -0.0111 -0.6500
33582SOL    HW1 6583   0.006   8.855   5.017 -2.2857  1.9686 -0.8469
33582SOL    HW2 6584   0.031   8.877   5.164  0.4305 -1.0969 -0.7281
33583SOL     OW 6585   3.168   3.915   6.277  0.4578 -0.6704  0.3789
33583SOL    HW1 6586   3.073   3.906   6.288  0.6996 -1.2040  2.4371
33583SOL    HW2 6587   3.191   3.848   6.212 -0.5804 -0.4496 -0.2386
33584SOL     OW 6588   8.296  11.825   4.770  0.0584  0.6801 -0.4871
33584SOL    HW1 6589   8.338  11.745   4.802 -0.3005  0.6216 -0.1527
33584SOL    HW2 6590   8.298  11.817   4.675 -0.3878  0.0480 -0.4543
33585SOL     OW 6591   2.420   5.811   6.847  0.3397 -0.1316  0.5848
33585SOL    HW1 6592   2.459   5.850   6.925 -1.3289 -1.3225  2.0702
33585SOL    HW2 6593   2.474   5.735   6.828 -0.5711 -1.1836  2.0204
33586SOL     OW 6594   5.074   7.874  12.032 -1.0117 -0.0063 -0.3920
33586SOL    HW1 6595   5.024   7.955  12.041  0.7247  1.2127 -1.1185
33586SOL    HW2 6596   5.104   7.854  12.121 -0.6862  0.6759 -0.3448
33587SOL     OW 6597  10.595  10.884   6.783  0.3983  0.0042  0.3409
33587SOL    HW1 6598  10.599  10.887   6.688 -1.0859  1.0296  0.2669
33587SOL    HW2 6599  10.523  10.944   6.806  1.4590  0.6689  2.1676
33588SOL     OW 6600   1.129  12.216   8.607 -0.4641  0.1036 -0.0575
33588SOL    HW1 6601   1.162  12.127   8.622  0.1957  0.5282  1.2358
33588SOL    HW2 6602   1.197  12.272   8.644 -1.8494  1.0793  1.1182
33589SOL     OW 6603   6.138  11.183   9.552  0.3709  0.4336  0.0021
33589SOL    HW1 6604   6.127  11.184   9.647  0.9789  0.5644  0.0748
33589SOL    HW2 6605   6.052  11.206   9.518  0.0494 -0.0003  0.5099
33590SOL     OW 6606   9.519   5.459   7.398 -0.3833  0.2503 -0.5981
33590SOL    HW1 6607   9.549   5.375   7.365  0.1345  0.0420  0.3932
33590SOL    HW2 6608   9.453   5.437   7.464  1.0576  0.5363  0.9989
33591SOL     OW 6609   0.656   3.752   9.410  0.5300  0.2049 -0.5217
33591SOL    HW1 6610   0.721   3.755   9.480  2.0147 -0.9719 -1.7856
33591SOL    HW2 6611   0.649   3.659   9.388 -1.6310  0.3035 -0.4045
33592SOL     OW 6612   7.618  10.490   6.481  0.4538 -0.5713  0.2644
33592SOL    HW1 6613   7.641  10.502   6.573  0.5549 -2.0532  0.4490
33592SOL    HW2 6614   7.702  10.485   6.435  0.4217 -1.0214  0.2545
33593SOL     OW 6615   7.010   8.608   1.283  0.4255 -0.0297 -0.4527
33593SOL    HW1 6616   7.010   8.702   1.295 -0.0646 -0.0937  0.0720
33593SOL    HW2 6617   7.103   8.584   1.279  0.5721  0.6811 -2.4191
33594SOL     OW 6618   7.767   6.789  10.310 -0.3133  0.1740  0.0211
33594SOL    HW1 6619   7.763   6.868  10.365 -0.4262  1.0268 -1.1709
33594SOL    HW2 6620   7.800   6.820  10.226  1.9059 -1.4816  0.2200
33595SOL     OW 6621   5.559   3.352   4.949 -0.6835 -0.0795  0.4064
33595SOL    HW1 6622   5.613   3.375   4.874  0.6491  2.3513  1.9632
33595SOL    HW2 6623   5.479   3.314   4.912  0.6452 -0.5681 -2.1068
33596SOL     OW 6624  12.028   3.978   1.924  0.4106 -0.1234  0.2247
33596SOL    HW1 6625  12.037   3.993   1.830  0.0660  0.3567  0.2613
33596SOL    HW2 6626  11.980   4.055   1.956 -0.4459 -0.7896  0.6151
33597SOL     OW 6627   0.274  10.173  10.735 -0.1845  0.2835  0.0796
33597SOL    HW1 6628   0.258  10.230  10.811  0.6197  0.5080  0.0883
33597SOL    HW2 6629   0.238  10.221  10.661  0.7446  0.9400  0.0451
33598SOL     OW 6630   3.744   4.442   5.631  0.6621 -0.4139 -0.3045
33598SOL    HW1 6631   3.710   4.362   5.671  0.4796  0.1477  0.7106
33598SOL    HW2 6632   3.677   4.467   5.567  0.1526 -0.4301  0.2197
33599SOL     OW 6633   3.831   4.819   8.833  0.0286  0.0428 -0.1013
33599SOL    HW1 6634   3.838   4.843   8.740  0.1508  0.8673  0.1109
33599SOL    HW2 6635   3.747   4.854   8.861  0.7572  1.3680  0.5285
33600SOL     OW 6636   3.732  10.683   7.660 -0.0026 -0.5395  0.1991
33600SOL    HW1 6637   3.673  10.629   7.607 -1.2749  0.1927  0.8008
33600SOL    HW2 6638   3.802  10.623   7.687 -0.7983 -1.6159 -0.0374
33601SOL     OW 6639   3.680   7.152   7.881 -0.0142 -0.1922  0.2730
33601SOL    HW1 6640   3.631   7.087   7.829  0.0019  0.3545 -0.4493
33601SOL    HW2 6641   3.635   7.235   7.862  1.0084  0.2718 -0.1705
33602SOL     OW 6642  11.569   4.897   4.362 -0.0251  0.6625  0.2193
33602SOL    HW1 6643  11.634   4.841   4.403 -0.3238 -0.5262 -0.8784
33602SOL    HW2 6644  11.620   4.958   4.309  0.2182 -0.1277 -0.4701
33603SOL     OW 6645   4.064  11.768  12.307 -0.1431  0.0124  0.1730
33603SOL    HW1 6646   4.101  11.792  12.392  0.0975  2.0513 -0.4549
33603SOL    HW2 6647   3.983  11.818  12.300 -1.7906 -2.4047  0.4032
33604SOL     OW 6648   6.976   2.338   9.374  0.0152  0.0220  0.5851
33604SOL    HW1 6649   6.968   2.418   9.322  0.2266  0.2189  0.8497
33604SOL    HW2 6650   6.905   2.282   9.344  0.9859 -0.4458 -0.9219
33605SOL     OW 6651   2.088   6.951   4.653 -0.4291 -0.2522  0.1132
33605SOL    HW1 6652   2.151   6.963   4.582 -0.8075  3.0490  0.1836
33605SOL    HW2 6653   2.141   6.938   4.731  0.1263  0.4131 -0.1469
33606SOL     OW 6654   5.267   5.039   3.719  0.0230  0.3656  0.7237
33606SOL    HW1 6655   5.357   5.068   3.734  0.3801 -1.0449  1.5120
33606SOL    HW2 6656   5.241   4.998   3.801 -0.9042 -0.3191  0.1115
33607SOL     OW 6657   6.496   5.207   0.988  0.4850  0.4902  0.3451
33607SOL    HW1 6658   6.422   5.266   1.000 -0.7010 -0.6040 -1.1760
33607SOL    HW2 6659   6.551   5.250   0.923 -0.5731 -0.1881 -1.0487
33608SOL     OW 6660   7.586   0.452   8.837 -0.1747  0.1353 -0.3582
33608SOL    HW1 6661   7.535   0.503   8.899 -1.4993  0.5395 -1.7194
33608SOL    HW2 6662   7.592   0.508   8.759  1.3139 -0.4138 -0.6826
33609SOL     OW 6663   3.656   0.594   3.833 -0.1005  0.9041 -0.6428
33609SOL    HW1 6664   3.696   0.675   3.800  0.3196  0.5409 -1.0351
33609SOL    HW2 6665   3.675   0.595   3.927  3.8784 -0.8778 -1.2112
33610SOL     OW 6666   1.734   7.965   6.346 -0.2209 -0.1965  0.1990
33610SOL    HW1 6667   1.807   7.951   6.406 -0.2558 -0.5239  0.1681
33610SOL    HW2 6668   1.745   7.898   6.279  0.5541  0.9602 -0.8929
33611SOL     OW 6669   6.284   4.231  10.617 -0.4219 -0.0446 -0.4728
33611SOL    HW1 6670   6.265   4.235  10.523  0.3151  0.6974 -0.6071
33611SOL    HW2 6671   6.364   4.179  10.623 -1.2147 -1.2470 -0.1211
33612SOL     OW 6672   6.561   6.288  11.964 -0.0903 -0.4068 -0.0858
33612SOL    HW1 6673   6.519   6.369  11.932 -1.9080 -1.3702 -0.2811
33612SOL    HW2 6674   6.490   6.240  12.007  1.2452 -1.3502  1.1230
33613SOL     OW 6675   9.539   7.597   4.445 -0.1193 -0.3523 -0.6260
33613SOL    HW1 6676   9.622   7.598   4.397 -0.5012 -0.8123 -1.3042
33613SOL    HW2 6677   9.563   7.623   4.534  0.4545  1.3563 -1.2501
33614SOL     OW 6678   1.385   2.065   2.529  0.0592 -0.2179  0.2855
33614SOL    HW1 6679   1.342   2.147   2.506 -1.1193 -0.2933  2.0563
33614SOL    HW2 6680   1.464   2.064   2.476 -0.3719  1.6137 -0.4628
33615SOL     OW 6681  11.413   8.337  11.899  0.0932 -0.2925  0.2229
33615SOL    HW1 6682  11.332   8.388  11.899 -0.9229 -1.8348  0.6790
33615SOL    HW2 6683  11.477   8.393  11.856 -1.4256  0.6408 -0.9094
33616SOL     OW 6684   2.640   7.350   1.437  0.0852  0.1289 -0.2328
33616SOL    HW1 6685   2.609   7.402   1.512 -2.5963  0.4529 -1.4483
33616SOL    HW2 6686   2.718   7.396   1.406 -1.6320  2.9446 -0.6604
33617SOL     OW 6687   0.480   0.490   6.597  0.0422 -0.3528  0.1377
33617SOL    HW1 6688   0.395   0.514   6.634  0.6901 -0.6809  1.9527
33617SOL    HW2 6689   0.507   0.567   6.546 -0.9222  0.1133  0.3061
33618SOL     OW 6690   2.219  11.951   2.345 -0.2825 -0.4389  0.0071
33618SOL    HW1 6691   2.182  11.907   2.269  2.1353 -1.7802 -0.5055
33618SOL    HW2 6692   2.241  12.039   2.313  0.0082 -0.7361 -0.6344
33619SOL     OW 6693   1.752   0.127   0.892 -0.3741 -0.3189 -0.2254
33619SOL    HW1 6694   1.662   0.124   0.925 -0.6639 -0.9663 -1.0217
33619SOL    HW2 6695   1.743   0.157   0.802 -0.1985 -3.5584 -1.4594
33620SOL     OW 6696  11.343   4.184   1.635  0.1146 -0.0466 -0.3144
33620SOL    HW1 6697  11.336   4.276   1.662 -0.2585  0.0774 -0.8221
33620SOL    HW2 6698  11.327   4.134   1.716 -0.4458  0.3279 -0.1925
33621SOL     OW 6699   0.660   3.113   0.881 -1.1176  0.1331 -0.2986
33621SOL    HW1 6700   0.653   3.164   0.800 -0.2909 -0.0559 -0.4928
33621SOL    HW2 6701   0.703   3.032   0.855  0.8483  0.8130  0.6322
33622SOL     OW 6702   5.365   7.879   4.458  0.5456 -0.2318  0.3022
33622SOL    HW1 6703   5.316   7.797   4.470 -1.6839  0.9340 -0.1703
33622SOL    HW2 6704   5.411   7.866   4.375  0.8190 -1.2701  0.5942
33623SOL     OW 6705  12.317   4.236   2.085  0.4332 -0.0319 -0.0668
33623SOL    HW1 6706  12.306   4.141   2.093  0.4869  0.0655  1.4681
33623SOL    HW2 6707  12.245   4.272   2.135  1.0433  0.7288  0.2757
33624SOL     OW 6708   6.740   2.378   1.972 -0.7008 -0.4559 -0.4454
33624SOL    HW1 6709   6.810   2.378   1.907  0.0662 -2.7254  0.3153
33624SOL    HW2 6710   6.709   2.469   1.973  1.1319  0.2503 -1.9445
33625SOL     OW 6711   0.992  10.616   5.287 -0.2906 -0.4287  0.2295
33625SOL    HW1 6712   1.029  10.528   5.286 -0.2174 -0.5023 -3.3043
33625SOL    HW2 6713   0.917  10.610   5.346  0.7351 -2.3420  1.4329
33626SOL     OW 6714   6.950   1.641   1.166  0.5146 -0.6332  0.1389
33626SOL    HW1 6715   7.025   1.598   1.205 -0.4537 -0.6778  2.0901
33626SOL    HW2 6716   6.894   1.664   1.240 -2.4422 -2.5111 -1.3066
33627SOL     OW 6717   0.875   7.737  10.550  0.8793 -0.5700  0.0890
33627SOL    HW1 6718   0.840   7.667  10.496  1.8466 -0.6185 -0.5039
33627SOL    HW2 6719   0.909   7.692  10.628 -1.0812 -0.4377  1.0976
33628SOL     OW 6720  10.021  10.699   1.878 -0.4326  0.1473 -0.0771
33628SOL    HW1 6721   9.981  10.706   1.965 -0.8386  1.7769 -0.3564
33628SOL    HW2 6722  10.115  10.692   1.894 -0.6431 -2.4178  0.5467
33629SOL     OW 6723   2.499  10.311   8.469 -0.3471  0.2080  0.0330
33629SOL    HW1 6724   2.452  10.324   8.386 -0.3192 -0.8903 -0.1669
33629SOL    HW2 6725   2.578  10.263   8.444 -1.2679 -1.8546  0.9239
33630SOL     OW 6726   8.660   6.898  11.397  0.0887  0.2092 -0.3921
33630SOL    HW1 6727   8.593   6.866  11.458  0.6556  0.6500  0.4839
33630SOL    HW2 6728   8.634   6.862  11.312 -0.3841 -0.9228  0.2143
33631SOL     OW 6729  10.395   1.754   4.304 -0.0731  0.4653 -0.3646
33631SOL    HW1 6730  10.470   1.808   4.279  0.7185  0.1045  1.0871
33631SOL    HW2 6731  10.433   1.668   4.322 -0.9218  0.1337 -0.1182
33632SOL     OW 6732   4.543   1.168   8.604  0.3144 -0.1257 -0.1834
33632SOL    HW1 6733   4.529   1.084   8.648  4.5174 -0.3244  1.2423
33632SOL    HW2 6734   4.585   1.144   8.521  0.7466  0.5276 -0.1598
33633SOL     OW 6735   2.721   8.236   2.937  0.4191  0.3163 -0.1955
33633SOL    HW1 6736   2.717   8.275   3.025  0.6963  3.8786 -1.5867
33633SOL    HW2 6737   2.631   8.240   2.905  0.5536  0.3428 -0.5750
33634SOL     OW 6738   7.814   7.328   5.178 -0.4322  0.0320 -0.3352
33634SOL    HW1 6739   7.774   7.380   5.109 -0.9842  0.1637  0.0751
33634SOL    HW2 6740   7.901   7.307   5.145  0.4477  2.6162  0.1354
33635SOL     OW 6741   5.585   7.758   4.771  0.4594  1.0011  0.3232
33635SOL    HW1 6742   5.568   7.705   4.849  0.8152 -0.4916 -0.5656
33635SOL    HW2 6743   5.578   7.849   4.801 -2.3774  0.5151  1.4721
33636SOL     OW 6744   6.603   4.958   9.819  0.0622  0.0819 -0.7518
33636SOL    HW1 6745   6.510   4.945   9.839  0.3342  1.4826  1.8652
33636SOL    HW2 6746   6.636   4.870   9.799 -1.3991 -0.7555  0.3205
33637SOL     OW 6747  10.372   2.123  11.458  0.6023 -0.0386  0.3529
33637SOL    HW1 6748  10.395   2.118  11.551  0.5091 -0.7667  0.3424
33637SOL    HW2 6749  10.277   2.125  11.457  0.5977 -0.2178  0.2738
33638SOL     OW 6750   2.021  10.033  11.502  0.0639 -0.1343 -0.2546
33638SOL    HW1 6751   2.104  10.006  11.464 -0.0417  0.2670 -0.7819
33638SOL    HW2 6752   1.971  10.068  11.429  1.0833  3.7126  0.6224
33639SOL     OW 6753   4.392  11.292  12.015 -0.3593  0.3936  0.8564
33639SOL    HW1 6754   4.416  11.264  11.926  0.9233  2.4290  0.4907
33639SOL    HW2 6755   4.298  11.311  12.009 -0.4922 -0.3770  0.2058
33640SOL     OW 6756   2.132   7.483   4.761  0.0603 -0.1597  0.2994
33640SOL    HW1 6757   2.095   7.395   4.751  1.0174 -0.6078  0.5177
33640SOL    HW2 6758   2.225   7.471   4.742  0.1013  0.9168 -0.1983
33641SOL     OW 6759   7.391   5.984   6.536 -0.2374  0.0514  0.4575
33641SOL    HW1 6760   7.458   5.931   6.492  0.4325  1.4577 -0.2909
33641SOL    HW2 6761   7.423   5.994   6.625 -0.1954 -0.5100  0.5072
33642SOL     OW 6762   7.227   8.526   6.950  0.5619  0.1109  0.1124
33642SOL    HW1 6763   7.308   8.475   6.955  0.3150 -0.4150 -0.9258
33642SOL    HW2 6764   7.185   8.512   7.034  1.0321 -0.5032  0.2543
33643SOL     OW 6765  12.029  11.855   2.673  0.0393 -0.6799 -0.0184
33643SOL    HW1 6766  11.936  11.854   2.652  0.4904 -1.6954 -2.2811
33643SOL    HW2 6767  12.055  11.947   2.663 -0.6902 -0.3881  0.6530
33644SOL     OW 6768   1.147   7.178   5.308 -0.0556  0.0737 -0.1105
33644SOL    HW1 6769   1.092   7.224   5.371  0.3901  0.6869 -0.1628
33644SOL    HW2 6770   1.096   7.100   5.284 -0.8953  0.6274 -0.1580
33645SOL     OW 6771   3.918   6.639   2.469 -0.5062 -0.1337 -0.2065
33645SOL    HW1 6772   3.910   6.598   2.555 -0.1222  0.5383  0.1592
33645SOL    HW2 6773   3.907   6.567   2.407 -0.9001 -0.6081  0.3982
33646SOL     OW 6774   1.248   4.685  11.821  0.0971  0.3255  0.0475
33646SOL    HW1 6775   1.269   4.633  11.898 -0.9992  0.6928  0.6202
33646SOL    HW2 6776   1.325   4.741  11.807  0.2507  0.3438  0.9510
33647SOL     OW 6777   5.474   3.460   1.328  0.4527 -0.5357  0.1543
33647SOL    HW1 6778   5.469   3.395   1.258  3.8941 -1.3120  0.4383
33647SOL    HW2 6779   5.466   3.410   1.409 -1.6960  0.1344  0.4364
33648SOL     OW 6780   6.337  11.700   2.855  0.0955 -0.6754 -0.0565
33648SOL    HW1 6781   6.308  11.791   2.857 -1.4331 -1.1307  0.5466
33648SOL    HW2 6782   6.277  11.657   2.794  1.1694 -1.1806 -0.7861
33649SOL     OW 6783   8.136   5.505   6.215 -0.1105  0.2340 -0.4781
33649SOL    HW1 6784   8.224   5.470   6.199  0.3987  0.4274  1.5642
33649SOL    HW2 6785   8.150   5.598   6.231 -0.5363  0.1078  0.7456
33650SOL     OW 6786   5.065   6.151   6.958  0.0479  0.1184  0.6420
33650SOL    HW1 6787   5.008   6.122   7.029 -1.7746  1.0584 -0.3745
33650SOL    HW2 6788   5.020   6.124   6.878  0.8690  1.1768 -0.2165
33651SOL     OW 6789  10.085   7.761   6.530 -0.3314 -0.0309  0.5363
33651SOL    HW1 6790  10.041   7.700   6.472  1.1116  0.1055 -0.7739
33651SOL    HW2 6791  10.055   7.848   6.502  0.2492  0.0259  0.0582
33652SOL     OW 6792   8.569   5.443   9.904  0.2237 -0.6946 -0.0290
33652SOL    HW1 6793   8.584   5.521   9.851  1.6415 -1.1027 -0.2649
33652SOL    HW2 6794   8.482   5.456   9.942  0.3877  0.9280 -0.1584
33653SOL     OW 6795   6.931   8.717   6.837  0.1386  0.5635 -0.3037
33653SOL    HW1 6796   6.960   8.787   6.896 -0.1357 -1.7235  2.8164
33653SOL    HW2 6797   7.004   8.656   6.834 -1.0655 -0.9914  0.4955
33654SOL     OW 6798   8.729   1.581   6.467  0.7651  0.4705  0.1971
33654SOL    HW1 6799   8.724   1.674   6.449 -0.1980  0.2989 -0.4782
33654SOL    HW2 6800   8.657   1.542   6.417 -0.4229 -0.3359  2.3859
33655SOL     OW 6801   4.215   1.082   8.335 -0.4048 -0.2707  0.0840
33655SOL    HW1 6802   4.172   1.029   8.267 -0.5861  0.4598 -0.3797
33655SOL    HW2 6803   4.273   1.020   8.381  1.4086 -0.3233 -2.1378
33656SOL     OW 6804   4.980   9.963  12.128  0.2624  0.0187 -0.2866
33656SOL    HW1 6805   4.930  10.021  12.070 -0.3446 -0.5919 -0.3941
33656SOL    HW2 6806   4.918   9.939  12.197  0.4548 -0.6084 -0.3228
33657SOL     OW 6807   6.775  11.631   2.289 -0.1946  0.0484 -0.7180
33657SOL    HW1 6808   6.711  11.581   2.340  0.7537 -0.6775 -0.2087
33657SOL    HW2 6809   6.756  11.722   2.307  1.3932 -0.1527  2.6317
33658SOL     OW 6810   6.587   5.429   7.124 -0.3255  0.4163 -0.1227
33658SOL    HW1 6811   6.671   5.439   7.169  0.8935  0.6513 -2.3402
33658SOL    HW2 6812   6.538   5.508   7.149 -0.1428  0.0380  1.5930
33659SOL     OW 6813  10.360   8.723   9.488 -0.0333  0.2873 -0.1146
33659SOL    HW1 6814  10.331   8.800   9.440  0.5250  0.0183 -0.9171
33659SOL    HW2 6815  10.455   8.720   9.473  0.0980 -0.0084  0.7150
33660SOL     OW 6816  11.980   6.216   7.561 -0.1882 -0.2076 -0.2497
33660SOL    HW1 6817  12.030   6.190   7.484 -2.6194 -1.8190 -1.4116
33660SOL    HW2 6818  11.978   6.137   7.616  0.8188  0.6753  1.1022
33661SOL     OW 6819   2.998   3.153   8.788  0.1124 -0.4223  1.0268
33661SOL    HW1 6820   3.067   3.186   8.730 -0.7531  0.8186  0.6578
33661SOL    HW2 6821   2.984   3.063   8.761 -0.4694  0.2049 -0.9324
33662SOL     OW 6822   3.295   4.053   2.489  0.4773 -0.3714 -0.5487
33662SOL    HW1 6823   3.236   4.102   2.545  2.8428  1.8725  0.1620
33662SOL    HW2 6824   3.241   3.982   2.453 -2.1182  0.4886  1.3845
33663SOL     OW 6825   5.108   2.157   7.960 -1.2226  0.1942  0.3816
33663SOL    HW1 6826   5.109   2.252   7.953 -2.1293  0.4004  2.3358
33663SOL    HW2 6827   5.015   2.134   7.958 -1.0734 -0.5289  1.1363
33664SOL     OW 6828   0.115   9.427   9.629 -0.0842 -0.4236 -0.1245
33664SOL    HW1 6829   0.172   9.499   9.658  0.6516 -1.6360  1.5885
33664SOL    HW2 6830   0.031   9.469   9.612  0.3422  0.8702  0.7844
33665SOL     OW 6831   2.263   1.340   9.236 -0.3712  0.5342  0.3163
33665SOL    HW1 6832   2.322   1.362   9.308  0.3678  0.7937 -0.3580
33665SOL    HW2 6833   2.176   1.358   9.271 -0.1807 -1.1816  1.8007
33666SOL     OW 6834   3.691   3.575   9.861  0.2145 -0.1493  0.0510
33666SOL    HW1 6835   3.776   3.597   9.822  0.2349  1.5992  0.9571
33666SOL    HW2 6836   3.644   3.658   9.865 -0.2948 -0.4645  2.4533
33667SOL     OW 6837   8.597   0.957   9.064  0.3802  0.1825  0.2756
33667SOL    HW1 6838   8.592   1.000   8.979  2.3722 -0.8770 -0.4628
33667SOL    HW2 6839   8.624   1.026   9.124  2.0813  0.3304 -0.5959
33668SOL     OW 6840  11.431   7.383   2.220 -0.8462 -0.1498  0.0870
33668SOL    HW1 6841  11.477   7.366   2.302 -0.1116 -1.3025 -0.5352
33668SOL    HW2 6842  11.498   7.416   2.161 -0.8519 -1.4674 -0.7066
33669SOL     OW 6843   4.875   0.879   6.366 -0.0798  0.1656  0.4190
33669SOL    HW1 6844   4.826   0.911   6.442  0.6506  0.7972  0.6483
33669SOL    HW2 6845   4.906   0.793   6.392 -0.1881  0.2028  0.6786
33670SOL     OW 6846   8.284   4.964   6.282 -1.3450  0.0017 -0.3840
33670SOL    HW1 6847   8.293   4.994   6.192 -1.5859 -0.4648 -0.5674
33670SOL    HW2 6848   8.243   5.037   6.328 -1.2290  0.2378 -0.6504
33671SOL     OW 6849   2.072  11.986   0.240 -0.1329  0.3902  0.2317
33671SOL    HW1 6850   2.101  12.061   0.188 -1.6618  0.7551 -0.1419
33671SOL    HW2 6851   2.108  12.002   0.327 -1.8524  2.5083  0.6416
33672SOL     OW 6852   6.192   5.685   6.647  0.1199 -0.6174 -0.0485
33672SOL    HW1 6853   6.163   5.764   6.602  1.2690 -0.2762 -0.2267
33672SOL    HW2 6854   6.128   5.618   6.621 -0.6328  0.1478 -0.2109
33673SOL     OW 6855   3.723  11.095   8.834 -0.0468  0.1952  0.1283
33673SOL    HW1 6856   3.813  11.067   8.817 -0.3630 -0.6089 -0.2825
33673SOL    HW2 6857   3.670  11.045   8.772 -0.9483 -0.6506  1.5122
33674SOL     OW 6858   4.318   7.396   5.860  0.0283  0.0428  0.1673
33674SOL    HW1 6859   4.243   7.424   5.808 -1.0399 -0.8840  1.1658
33674SOL    HW2 6860   4.363   7.477   5.883  0.3003  0.5168 -1.7782
33675SOL     OW 6861   5.813   8.203   6.099 -0.1242  0.4039  0.0250
33675SOL    HW1 6862   5.853   8.116   6.096  0.6416  0.7634 -1.8587
33675SOL    HW2 6863   5.769   8.212   6.014 -0.1215  1.8680  0.1585
33676SOL     OW 6864   1.495   6.851   4.468 -0.2973 -0.2964 -0.6834
33676SOL    HW1 6865   1.562   6.784   4.482  0.3855  0.7710  1.6756
33676SOL    HW2 6866   1.414   6.801   4.455  0.3113 -1.5971  0.2459
33677SOL     OW 6867   1.669   3.382   2.965 -0.1602 -0.0154  0.4222
33677SOL    HW1 6868   1.587   3.355   2.924  0.0868 -0.3320  0.1335
33677SOL    HW2 6869   1.643   3.415   3.051 -0.7009  0.7521 -0.0113
33678SOL     OW 6870   8.702   9.069   9.994  0.0534  0.0463  0.8438
33678SOL    HW1 6871   8.773   9.115  10.039  0.2027  0.8600 -0.2129
33678SOL    HW2 6872   8.687   9.119   9.914 -1.8136 -0.0231  1.1050
33679SOL     OW 6873   1.063   6.174   2.937  0.3854  0.2309 -0.4860
33679SOL    HW1 6874   1.052   6.082   2.912 -0.6455 -0.3443  1.8483
33679SOL    HW2 6875   0.996   6.221   2.887  0.4217 -0.3775 -1.1240
33680SOL     OW 6876   5.775  11.704   7.043 -0.5042  0.2678  0.0641
33680SOL    HW1 6877   5.846  11.761   7.014 -0.9914  0.3314 -1.0387
33680SOL    HW2 6878   5.810  11.662   7.122  1.0357 -0.2296 -0.8335
33681SOL     OW 6879   4.635  11.801   4.312 -0.0136  0.3456 -0.2323
33681SOL    HW1 6880   4.592  11.732   4.262  0.7876  0.0383 -0.5119
33681SOL    HW2 6881   4.618  11.778   4.403  0.9321 -0.6827 -0.3011
33682SOL     OW 6882   6.977   8.934   0.375 -0.5006 -0.0128  0.5750
33682SOL    HW1 6883   6.997   8.865   0.437  1.5149  0.4795  0.5417
33682SOL    HW2 6884   7.060   8.951   0.330 -1.4649  0.9036 -0.9674
33683SOL     OW 6885   6.736   4.669   7.900  0.0700 -0.6960 -0.5056
33683SOL    HW1 6886   6.821   4.628   7.913 -0.4540 -1.0372  2.5074
33683SOL    HW2 6887   6.678   4.596   7.878  0.1232 -0.7673 -0.4071
33684SOL     OW 6888   2.452   4.116   1.324  0.1502  0.1253 -0.3414
33684SOL    HW1 6889   2.514   4.187   1.339 -0.2421  0.8030 -1.6883
33684SOL    HW2 6890   2.371   4.145   1.366  0.4088 -0.2148  0.3948
33685SOL     OW 6891  12.085   9.246   6.490  0.0559 -0.3217 -0.3797
33685SOL    HW1 6892  12.000   9.260   6.533 -0.2879 -3.8533  0.3837
33685SOL    HW2 6893  12.063   9.236   6.397 -0.0727  0.7150 -0.4712
33686SOL     OW 6894   0.678   0.319   3.596  0.1513  0.1817  0.2843
33686SOL    HW1 6895   0.748   0.384   3.605  0.9937 -0.4186 -1.4266
33686SOL    HW2 6896   0.600   0.372   3.576  0.3101  0.7915  1.2032
33687SOL     OW 6897   4.588   4.287   7.701  0.1550  0.4926 -0.0133
33687SOL    HW1 6898   4.670   4.298   7.750  0.6531  1.5662 -1.0315
33687SOL    HW2 6899   4.611   4.230   7.628  0.1019  1.0810 -0.4999
33688SOL     OW 6900   2.244   1.107   2.666  0.0336  0.1276 -0.5627
33688SOL    HW1 6901   2.232   1.087   2.573  1.7674 -2.7373 -0.2822
33688SOL    HW2 6902   2.293   1.032   2.701 -0.0614  1.3678  2.5611
33689SOL     OW 6903   4.640   6.496  10.492 -0.5192 -0.4586 -0.0561
33689SOL    HW1 6904   4.554   6.519  10.458 -0.1269  0.7949 -0.2494
33689SOL    HW2 6905   4.685   6.455  10.418 -0.7271 -0.5536 -0.1325
33690SOL     OW 6906   0.634   9.910   7.192  0.1588  0.3150 -0.1479
33690SOL    HW1 6907   0.614   9.824   7.230 -1.2728  0.5328 -0.3572
33690SOL    HW2 6908   0.635   9.969   7.267 -0.6492  0.4104 -0.2121
33691SOL     OW 6909   1.777   8.584   7.893 -0.3989 -0.6445  0.1052
33691SOL    HW1 6910   1.834   8.508   7.883  0.1679  0.0090 -2.2957
33691SOL    HW2 6911   1.830   8.648   7.941  1.2653  0.1781 -2.5897
33692SOL     OW 6912   9.795   7.005   3.999 -0.3687  0.4642  0.2530
33692SOL    HW1 6913   9.864   7.070   3.983 -1.4232  2.4935  3.1386
33692SOL    HW2 6914   9.743   7.005   3.919 -0.7411  3.8267  0.3514
33693SOL     OW 6915   6.870   3.155   1.781 -0.3631 -0.1540 -0.1926
33693SOL    HW1 6916   6.886   3.062   1.790 -0.9569 -0.2315  0.1561
33693SOL    HW2 6917   6.935   3.197   1.837 -0.3644 -0.3753 -0.0270
33694SOL     OW 6918   3.389   8.558   7.003  0.1070 -0.2151  0.2576
33694SOL    HW1 6919   3.408   8.551   6.909 -0.4423 -0.1250  0.1339
33694SOL    HW2 6920   3.304   8.602   7.007  1.8024  3.3334  0.9036
33695SOL     OW 6921   7.130  10.926   3.525  0.0171 -0.3819  0.3786
33695SOL    HW1 6922   7.145  10.903   3.433  1.5978  0.2738  0.4423
33695SOL    HW2 6923   7.075  11.004   3.521 -0.1339 -0.5030 -0.0015
33696SOL     OW 6924   3.140   9.126   7.690  0.2435  0.5188 -0.0310
33696SOL    HW1 6925   3.106   9.184   7.621  2.0086  1.3836 -0.2206
33696SOL    HW2 6926   3.224   9.164   7.714 -0.0602 -0.0955  2.2197
33697SOL     OW 6927   5.854   0.640   3.895 -0.1679  0.3758 -0.2952
33697SOL    HW1 6928   5.933   0.685   3.922 -0.4853  0.4358  0.5542
33697SOL    HW2 6929   5.874   0.547   3.904 -0.6776  0.4086  1.3709
33698SOL     OW 6930   5.447   5.350  10.416 -0.2460  0.1624  0.3074
33698SOL    HW1 6931   5.487   5.423  10.463  2.4115 -1.1040  0.2061
33698SOL    HW2 6932   5.375   5.321  10.473 -0.6366  2.0907  0.8734
33699SOL     OW 6933   7.146   7.986   3.400  0.1024 -0.3795  0.0522
33699SOL    HW1 6934   7.144   7.913   3.338  0.2384 -0.3560  0.0191
33699SOL    HW2 6935   7.067   7.975   3.453  0.4578 -0.9352  0.4764
33700SOL     OW 6936   9.890   0.624   3.908  0.3840  0.1154 -0.1296
33700SOL    HW1 6937   9.868   0.610   4.000  0.4648  2.9351  0.3967
33700SOL    HW2 6938   9.985   0.629   3.906  0.4401 -0.8694 -0.5524
33701SOL     OW 6939   7.427  11.948   6.648  0.3125  0.4217 -0.0116
33701SOL    HW1 6940   7.335  11.940   6.674 -0.0910  0.1023 -1.4263
33701SOL    HW2 6941   7.476  11.915   6.723 -0.7170  0.7011  0.8147
33702SOL     OW 6942   0.880   2.879  10.480 -0.4285  0.0150 -0.1231
33702SOL    HW1 6943   0.913   2.856  10.393 -2.6523 -0.5217 -0.8854
33702SOL    HW2 6944   0.800   2.828  10.490 -0.5164  0.4822  2.0408
33703SOL     OW 6945   1.257   4.519   8.402 -0.0498  0.1590  0.2579
33703SOL    HW1 6946   1.353   4.512   8.410 -0.0628 -0.5644 -0.0874
33703SOL    HW2 6947   1.243   4.571   8.323  0.0603  0.0429  0.1610
33704SOL     OW 6948   8.625   0.896   7.138 -0.6250  0.4578  0.0674
33704SOL    HW1 6949   8.548   0.882   7.193 -0.8950  2.4006  0.2655
33704SOL    HW2 6950   8.687   0.942   7.196  1.1241 -1.8978  0.2190
33705SOL     OW 6951   6.787   1.065   8.465  0.3761 -0.3837 -0.5052
33705SOL    HW1 6952   6.879   1.048   8.442  0.8374  0.7348  0.4316
33705SOL    HW2 6953   6.792   1.110   8.550 -1.0385 -0.2089 -0.5042
33706SOL     OW 6954   7.843  11.444   3.791  0.2718 -0.5471  0.2903
33706SOL    HW1 6955   7.905  11.470   3.723 -0.2983  1.7029  0.5535
33706SOL    HW2 6956   7.897  11.410   3.862  1.0729 -0.1924 -0.1365
33707SOL     OW 6957   1.768   5.938   1.767 -0.5389  0.1509  0.1688
33707SOL    HW1 6958   1.775   6.023   1.810 -2.3301  0.7175 -0.5899
33707SOL    HW2 6959   1.809   5.950   1.682 -1.8404  0.6256 -0.4097
33708SOL     OW 6960   2.916   7.296  11.152  0.2708 -0.1167 -0.0771
33708SOL    HW1 6961   2.845   7.237  11.126 -0.3566  0.2955  0.6402
33708SOL    HW2 6962   2.988   7.238  11.177 -0.5288 -0.6010  1.1562
33709SOL     OW 6963   4.981  11.547   7.860 -0.4072  0.1782  0.6136
33709SOL    HW1 6964   4.998  11.605   7.935 -1.9554  0.2828  0.9045
33709SOL    HW2 6965   4.940  11.470   7.898 -0.9586  0.1168 -0.0988
33710SOL     OW 6966   8.193   0.332   9.704  0.6392  0.1695  0.4212
33710SOL    HW1 6967   8.117   0.339   9.646 -1.4966 -2.0511  2.7126
33710SOL    HW2 6968   8.252   0.271   9.659 -0.3617 -0.4704 -0.0589
33711SOL     OW 6969   8.744  11.801   3.813  0.1233 -0.4448 -1.0465
33711SOL    HW1 6970   8.793  11.824   3.735  0.8504  0.8965 -0.2301
33711SOL    HW2 6971   8.659  11.771   3.780  0.4356  0.0318 -2.3357
33712SOL     OW 6972   9.082   5.873   4.336 -0.4178  0.3098  0.0175
33712SOL    HW1 6973   9.147   5.809   4.307  0.8881  1.1182  1.0635
33712SOL    HW2 6974   9.132   5.952   4.355 -1.8456  1.3002 -0.1328
33713SOL     OW 6975   6.802   6.236  10.092  0.1571  0.5979  0.1508
33713SOL    HW1 6976   6.714   6.229  10.129  0.2236  0.5937  0.3096
33713SOL    HW2 6977   6.860   6.213  10.164  0.2324 -4.1435 -1.0692
33714SOL     OW 6978   9.307   2.327   8.021  0.0672  0.0326  0.5698
33714SOL    HW1 6979   9.217   2.296   8.028  0.2664 -0.5779  0.4494
33714SOL    HW2 6980   9.357   2.273   8.082  0.4007  0.1890  0.4395
33715SOL     OW 6981   6.588   3.999   7.742 -0.0612 -0.0504 -0.1188
33715SOL    HW1 6982   6.494   4.007   7.756  0.1551 -0.3090  1.8125
33715SOL    HW2 6983   6.609   3.910   7.772  0.7694 -0.0764 -0.7411
33716SOL     OW 6984   8.226   0.755   9.653  0.7054 -0.4220 -0.2381
33716SOL    HW1 6985   8.171   0.794   9.585  2.0747  2.3371  0.0858
33716SOL    HW2 6986   8.316   0.771   9.624  1.3318 -1.1367  1.1702
33717SOL     OW 6987  10.080   1.232   9.867  0.6866 -0.3527 -0.5799
33717SOL    HW1 6988  10.165   1.276   9.871  0.3529  0.5243 -2.4142
33717SOL    HW2 6989  10.100   1.140   9.884  1.8250  0.0026  0.1372
33718SOL     OW 6990   6.040  11.530   1.800  0.5155  0.2640 -0.5822
33718SOL    HW1 6991   6.011  11.555   1.888 -0.4934 -0.1810 -0.7734
33718SOL    HW2 6992   6.012  11.602   1.744  1.2507  0.5962 -0.5366
33719SOL     OW 6993   5.638   3.195  10.745 -0.1331 -0.3763 -0.5474
33719SOL    HW1 6994   5.667   3.286  10.748 -1.0461 -0.0937  0.2699
33719SOL    HW2 6995   5.678   3.155  10.822 -3.7401  0.6521  2.1519
33720SOL     OW 6996   6.328   6.352   1.572  0.4049  0.2231 -0.0820
33720SOL    HW1 6997   6.417   6.371   1.542  0.6215 -3.2651 -2.3636
33720SOL    HW2 6998   6.333   6.261   1.603 -2.4853 -0.4058 -1.1570
33721SOL     OW 6999   3.696   2.095   7.029  0.0454  0.5385 -0.5465
33721SOL    HW1 7000   3.621   2.044   7.060  1.4248 -1.3407 -0.1356
33721SOL    HW2 7001   3.678   2.110   6.937  0.1305 -1.8243 -1.0119
33722SOL     OW 7002   5.964   3.939   1.601 -0.5144 -0.3326  0.2186
33722SOL    HW1 7003   6.048   3.976   1.628 -0.9382 -0.4593  1.8455
33722SOL    HW2 7004   5.928   4.003   1.539  1.0451 -0.6036 -1.0402
33723SOL     OW 7005  11.753   8.304   7.856 -0.2019 -0.8602 -0.5981
33723SOL    HW1 7006  11.687   8.245   7.892 -0.6688 -1.1410 -1.8837
33723SOL    HW2 7007  11.825   8.247   7.831  1.4071 -0.4104  2.4617
33724SOL     OW 7008   7.917   5.734   4.013 -0.1060  0.3677  0.5280
33724SOL    HW1 7009   7.954   5.703   4.096  0.3503  0.7462  0.4678
33724SOL    HW2 7010   7.883   5.655   3.971 -0.2593  0.1585  1.0342
33725SOL     OW 7011   8.376  11.561  12.226 -0.6297  0.2434  0.2388
33725SOL    HW1 7012   8.427  11.582  12.304  0.0104 -2.8984  0.8320
33725SOL    HW2 7013   8.307  11.503  12.259 -2.8268  2.0224 -1.0059
33726SOL     OW 7014   8.598   9.108   4.990 -0.7856 -0.2485  0.2251
33726SOL    HW1 7015   8.589   9.022   4.947 -1.5306  0.0237 -0.1928
33726SOL    HW2 7016   8.573   9.171   4.922  0.2465  0.3386  0.3760
33727SOL     OW 7017   7.111   6.231   2.867 -0.0340  0.2000  0.5842
33727SOL    HW1 7018   7.047   6.264   2.929 -0.3865 -0.1333  0.4029
33727SOL    HW2 7019   7.066   6.231   2.783  0.6796  1.3594  0.1790
33728SOL     OW 7020   9.062   3.968   7.495 -0.2175 -0.2828 -0.2381
33728SOL    HW1 7021   8.977   3.993   7.533  0.0308  2.3556 -1.1823
33728SOL    HW2 7022   9.040   3.924   7.413 -0.6777 -1.7708  0.6576
33729SOL     OW 7023  10.932   6.444   0.441  0.5257  0.1815 -0.6589
33729SOL    HW1 7024  11.002   6.508   0.459  0.4466  0.5078 -1.5025
33729SOL    HW2 7025  10.931   6.389   0.519 -1.3155  2.9159  1.4630
33730SOL     OW 7026   8.913   4.655   1.653 -0.2020 -0.2730 -0.1453
33730SOL    HW1 7027   8.994   4.676   1.699  0.3688  0.3062 -1.3672
33730SOL    HW2 7028   8.844   4.668   1.718  0.3758  2.5668  0.0305
33731SOL     OW 7029   9.462   8.050   8.156  0.3847 -0.2252 -0.1592
33731SOL    HW1 7030   9.434   8.110   8.225  1.0089  0.7859 -0.7576
33731SOL    HW2 7031   9.555   8.072   8.141  1.0795 -2.3847  0.6668
33732SOL     OW 7032   9.406   8.576  11.302  0.4828 -0.1511 -0.4690
33732SOL    HW1 7033   9.341   8.612  11.363  2.5703 -0.5314  2.1957
33732SOL    HW2 7034   9.436   8.652  11.251  0.6968  0.7995  1.0103
33733SOL     OW 7035   2.743   8.999   2.751 -0.4855 -0.0012 -0.6857
33733SOL    HW1 7036   2.740   9.093   2.731 -0.7686 -0.1405 -1.3529
33733SOL    HW2 7037   2.816   8.989   2.811 -0.0471  0.5589 -1.1118
33734SOL     OW 7038  11.875   2.563   5.734  0.3624  0.2481  0.3674
33734SOL    HW1 7039  11.958   2.515   5.726  0.6725  1.0251 -2.0718
33734SOL    HW2 7040  11.901   2.654   5.749 -0.0432  0.4302 -0.0087
33735SOL     OW 7041   1.336   4.908   7.697 -0.2781 -0.0757  0.1696
33735SOL    HW1 7042   1.390   4.843   7.653 -0.3570 -0.3347  0.4546
33735SOL    HW2 7043   1.399   4.975   7.726 -0.1766 -0.1108  0.0347
33736SOL     OW 7044   8.301   0.217  10.730 -0.0351  0.7852 -0.0410
33736SOL    HW1 7045   8.248   0.234  10.808  0.3601 -1.7392  0.8677
33736SOL    HW2 7046   8.384   0.262  10.746  0.5193 -0.7475  1.6476
33737SOL     OW 7047   2.125   1.229   7.691  0.0363 -0.4436  0.9447
33737SOL    HW1 7048   2.153   1.139   7.678  0.3968 -0.1920 -0.2018
33737SOL    HW2 7049   2.163   1.277   7.617 -1.3535  0.3803  0.7168
33738SOL     OW 7050   9.677  11.935   2.563  0.2872  0.0797  0.3635
33738SOL    HW1 7051   9.586  11.909   2.579  0.2839 -0.4239 -0.4121
33738SOL    HW2 7052   9.670  12.022   2.523  0.1698  0.2133  0.6693
33739SOL     OW 7053   7.710  11.926   0.946  0.1424 -0.0469  0.2046
33739SOL    HW1 7054   7.641  11.973   0.900 -0.0772  0.3061  0.8813
33739SOL    HW2 7055   7.681  11.835   0.947 -0.0736  0.0215  0.0600
33740SOL     OW 7056   7.220   0.335  11.772  0.1708 -0.2910 -0.3053
33740SOL    HW1 7057   7.298   0.391  11.774 -0.5714  0.7550  0.2979
33740SOL    HW2 7058   7.234   0.273  11.844  1.4412 -1.5546 -1.5707
33741SOL     OW 7059   6.194  11.474  10.409 -0.1060 -0.0316  0.2808
33741SOL    HW1 7060   6.193  11.379  10.424  0.8630 -0.0157  0.5288
33741SOL    HW2 7061   6.287  11.495  10.399 -0.3813  0.7261 -0.8693
33742SOL     OW 7062   3.963   3.392   3.999 -0.1614  0.0321  0.7849
33742SOL    HW1 7063   3.908   3.376   4.076  0.6214 -2.2550  0.9342
33742SOL    HW2 7064   3.909   3.363   3.926  0.6555 -1.8652  0.8983
33743SOL     OW 7065   9.380   8.333  11.852 -0.3374 -0.1245 -0.1137
33743SOL    HW1 7066   9.401   8.280  11.775  2.2909  0.8430 -0.1619
33743SOL    HW2 7067   9.356   8.419  11.816 -0.5123 -0.0788  0.1079
33744SOL     OW 7068   3.372   7.503   7.351 -0.0699  0.6927  0.2137
33744SOL    HW1 7069   3.381   7.423   7.299 -0.9983  1.1213 -0.6510
33744SOL    HW2 7070   3.281   7.531   7.335  0.0303  1.5330  1.0625
33745SOL     OW 7071   4.761   4.038   4.946  0.0363  0.3357 -0.0934
33745SOL    HW1 7072   4.758   3.946   4.972  2.3527  0.2634  0.0734
33745SOL    HW2 7073   4.707   4.042   4.867  0.8767 -1.4172 -0.7965
33746SOL     OW 7074   2.342  10.659   9.294 -0.0004  0.1276 -0.0422
33746SOL    HW1 7075   2.352  10.740   9.244  0.2390  0.0995 -0.0429
33746SOL    HW2 7076   2.418  10.606   9.270  1.7076  1.2327  2.4424
33747SOL     OW 7077   4.797  11.717  11.451  0.4522  0.0502 -0.1460
33747SOL    HW1 7078   4.869  11.760  11.404  0.8130  0.6231  0.9019
33747SOL    HW2 7079   4.739  11.685  11.381  1.3307  0.2400 -0.9935
33748SOL     OW 7080  10.869   1.241   5.948 -0.1541 -0.7042 -0.3359
33748SOL    HW1 7081  10.882   1.209   5.859 -1.7462 -1.8405 -0.1829
33748SOL    HW2 7082  10.939   1.199   5.998  1.0018  0.2511 -1.0814
33749SOL     OW 7083   3.673  10.376   2.324  0.2882  0.1796  0.3723
33749SOL    HW1 7084   3.586  10.344   2.346 -0.4402  1.3963 -0.6639
33749SOL    HW2 7085   3.718  10.382   2.409 -0.7419 -0.1052  0.9553
33750SOL     OW 7086   4.113   9.489   5.419  0.5258 -0.9757  0.1150
33750SOL    HW1 7087   4.047   9.444   5.367  0.3682 -1.7124  0.9221
33750SOL    HW2 7088   4.142   9.562   5.364 -1.1575 -0.4655 -0.1426
33751SOL     OW 7089   6.129   3.889   7.693  0.4538  0.4413 -0.5598
33751SOL    HW1 7090   6.104   3.810   7.645  2.9337 -0.1473 -1.0286
33751SOL    HW2 7091   6.081   3.883   7.776 -0.3289 -0.9455 -1.0772
33752SOL     OW 7092   8.806  12.263   0.526 -0.0413  0.5594  0.2425
33752SOL    HW1 7093   8.838  12.200   0.461 -0.3156 -0.8268  1.3969
33752SOL    HW2 7094   8.865  12.252   0.601  1.1664  3.1440 -0.2139
33753SOL     OW 7095   9.360   1.756  11.169  0.5860  0.4154 -0.3873
33753SOL    HW1 7096   9.417   1.776  11.095 -1.5953 -1.3750 -2.7221
33753SOL    HW2 7097   9.421   1.736  11.241  2.7960  2.0583 -1.6517
33754SOL     OW 7098   9.349  10.094   9.936 -0.6077  0.3634 -0.6301
33754SOL    HW1 7099   9.425  10.146   9.962  0.2947  0.1008 -2.5188
33754SOL    HW2 7100   9.274  10.141   9.972  0.4446 -0.9740  3.9860
33755SOL     OW 7101   8.851   1.804   6.357 -0.2922 -0.3082 -0.0177
33755SOL    HW1 7102   8.880   1.850   6.436 -1.1892  0.2343  0.0125
33755SOL    HW2 7103   8.904   1.725   6.354 -2.2058 -1.8799  2.8028
33756SOL     OW 7104   9.621   4.569   1.447  0.0121 -0.2442 -0.6283
33756SOL    HW1 7105   9.666   4.557   1.363 -0.0053 -2.2547 -0.3936
33756SOL    HW2 7106   9.529   4.577   1.424  0.0733 -0.1654 -0.8466
33757SOL     OW 7107   3.878   2.551   3.265 -0.1292 -0.2627 -0.1395
33757SOL    HW1 7108   3.865   2.534   3.171  0.6718 -0.2841 -0.2575
33757SOL    HW2 7109   3.822   2.627   3.283  0.0685  0.0410 -0.7497
33758SOL     OW 7110   2.198  11.028  12.190  0.1551  0.0821 -0.4022
33758SOL    HW1 7111   2.260  11.100  12.179  0.7730 -0.6714 -2.4216
33758SOL    HW2 7112   2.250  10.958  12.229 -0.1282  0.3100  0.3995
33759SOL     OW 7113   9.355   5.770   5.440  0.1752  0.4731 -0.7783
33759SOL    HW1 7114   9.345   5.690   5.493 -1.8700  1.9589  1.2840
33759SOL    HW2 7115   9.449   5.779   5.427  0.5109 -1.8018 -0.3283
33760SOL     OW 7116   6.422   5.576   5.611 -0.2342 -0.5009 -0.0712
33760SOL    HW1 7117   6.343   5.630   5.608 -0.6538 -1.0659  0.4792
33760SOL    HW2 7118   6.427   5.536   5.525 -2.0074 -2.4608  0.6326
33761SOL     OW 7119  10.893  11.090   1.694  0.2118  0.1922  0.8360
33761SOL    HW1 7120  10.890  11.065   1.786  1.5852 -1.5024  0.4843
33761SOL    HW2 7121  10.892  11.006   1.647 -0.1668  1.0091 -0.6883
33762SOL     OW 7122   9.179   8.067   0.263  0.1683  0.0874 -0.5067
33762SOL    HW1 7123   9.261   8.018   0.254 -0.2508 -0.3340 -2.5248
33762SOL    HW2 7124   9.125   8.014   0.321  0.3680 -0.9832 -1.2744
33763SOL     OW 7125  10.479  11.434   8.029  0.4072 -0.5448  0.0278
33763SOL    HW1 7126  10.454  11.400   8.115  0.6546 -1.3660 -0.2107
33763SOL    HW2 7127  10.459  11.527   8.033 -1.2865 -0.8861  0.3701
33764SOL     OW 7128   3.281   8.799   2.144  0.0667 -0.3085  0.2954
33764SOL    HW1 7129   3.263   8.783   2.051  1.1280  0.2009 -0.0164
33764SOL    HW2 7130   3.208   8.758   2.190 -0.8509  0.0553 -0.7937
33765SOL     OW 7131   6.367  11.473   1.607  0.2334 -0.1200 -0.1148
33765SOL    HW1 7132   6.348  11.545   1.547  2.0439 -0.2530 -0.9452
33765SOL    HW2 7133   6.298  11.476   1.673 -2.9313 -1.0594 -3.0985
33766SOL     OW 7134   6.279  11.795  12.252 -0.3907 -0.1730  0.5913
33766SOL    HW1 7135   6.320  11.785  12.339  0.8880  0.1222  0.0491
33766SOL    HW2 7136   6.219  11.869  12.262  0.1233  0.1892  1.1112
33767SOL     OW 7137   2.028  11.522   8.940 -0.4920 -0.5609  0.7818
33767SOL    HW1 7138   2.070  11.483   9.017  0.5095 -1.3591 -0.1381
33767SOL    HW2 7139   2.052  11.615   8.944  1.7768 -1.0464  0.0844
33768SOL     OW 7140  11.699   1.114   5.977 -0.7936 -0.2154 -0.5179
33768SOL    HW1 7141  11.660   1.178   5.917  0.4464 -0.8308 -2.0466
33768SOL    HW2 7142  11.783   1.153   6.002 -0.4330 -0.8309 -0.7536
33769SOL     OW 7143   1.499   4.046   9.286 -0.6984  0.6104 -0.1136
33769SOL    HW1 7144   1.556   4.100   9.232  0.4987  1.1579  1.6100
33769SOL    HW2 7145   1.488   3.965   9.236 -1.3288  1.8217 -2.0735
33770SOL     OW 7146   0.916   4.347   1.279  0.2219 -0.3719  0.0184
33770SOL    HW1 7147   0.991   4.298   1.313  1.3010  0.9373 -0.4408
33770SOL    HW2 7148   0.919   4.334   1.185 -0.6622 -1.0190  0.0595
33771SOL     OW 7149   7.358   9.078  10.063  0.1960 -0.0517 -0.3956
33771SOL    HW1 7150   7.338   9.019  10.136 -0.7107  1.0853  0.3169
33771SOL    HW2 7151   7.452   9.068  10.048 -0.2343 -3.5657 -2.0169
33772SOL     OW 7152   6.164   3.823   7.043 -0.5188  0.3234 -0.0350
33772SOL    HW1 7153   6.246   3.863   7.013  0.2479 -0.8511  0.4228
33772SOL    HW2 7154   6.130   3.779   6.965  0.6264 -1.3351  0.3507
33773SOL     OW 7155  11.232   7.456   1.172  0.4889 -0.1629  0.3235
33773SOL    HW1 7156  11.218   7.489   1.261 -1.2800  1.6097 -0.5150
33773SOL    HW2 7157  11.152   7.481   1.125  1.8021 -0.1184 -2.0281
33774SOL     OW 7158   2.126  10.439   9.255  0.0303 -0.2423  0.0149
33774SOL    HW1 7159   2.176  10.519   9.272 -1.2500  1.1539 -2.2447
33774SOL    HW2 7160   2.042  10.454   9.298  0.2059 -0.9318  0.6135
33775SOL     OW 7161   4.615   6.786   0.157 -0.0479  0.2722 -0.6914
33775SOL    HW1 7162   4.531   6.759   0.119 -0.9991  0.4216  1.2105
33775SOL    HW2 7163   4.594   6.810   0.247  2.2818 -1.1449  0.3211
33776SOL     OW 7164   0.669   2.991   8.475 -0.0241 -0.5765  0.1276
33776SOL    HW1 7165   0.578   3.020   8.484  0.0808 -0.7002  1.8215
33776SOL    HW2 7166   0.710   3.060   8.422 -0.0745  1.9005  3.0275
33777SOL     OW 7167   5.306  11.174   6.290  0.5632  0.3211  0.0700
33777SOL    HW1 7168   5.350  11.194   6.208  1.7660  0.4112  0.7178
33777SOL    HW2 7169   5.321  11.251   6.345  1.6098 -0.5945  1.1108
33778SOL     OW 7170   6.904   1.131   7.028 -0.8545 -0.5588 -0.1156
33778SOL    HW1 7171   6.933   1.053   6.980 -0.8306 -0.9725  0.5509
33778SOL    HW2 7172   6.820   1.154   6.988 -0.0342  0.1427 -1.4863
33779SOL     OW 7173   4.682   7.658   6.413  0.8182  0.2018 -0.8662
33779SOL    HW1 7174   4.640   7.576   6.440  1.1760  0.5850  1.0470
33779SOL    HW2 7175   4.776   7.641   6.423  0.8779  0.9975  0.1632
33780SOL     OW 7176   4.059   4.854   1.653 -0.4206 -0.0815 -0.4032
33780SOL    HW1 7177   4.126   4.806   1.702  0.1064  1.1431  0.0971
33780SOL    HW2 7178   3.992   4.875   1.718 -0.7523 -0.3230 -0.6658
33781SOL     OW 7179   3.662   9.715   6.417 -0.1091 -0.3081  0.1963
33781SOL    HW1 7180   3.680   9.623   6.439  3.2949 -0.1725 -1.4402
33781SOL    HW2 7181   3.622   9.751   6.496  0.3347 -2.7294  1.6250
33782SOL     OW 7182   3.823   8.830   0.558 -0.2568 -0.4951 -0.1439
33782SOL    HW1 7183   3.823   8.817   0.464 -0.1789 -0.5090 -0.1421
33782SOL    HW2 7184   3.858   8.748   0.594 -2.2453 -1.3180  0.0159
33783SOL     OW 7185  10.753   8.865   3.670  0.3162 -0.0787 -0.1317
33783SOL    HW1 7186  10.748   8.953   3.635  0.2628 -0.6097 -1.5333
33783SOL    HW2 7187  10.689   8.863   3.741 -1.0274  0.4813 -1.2946
33784SOL     OW 7188   4.627  11.453  11.548  0.1373  0.6469 -0.2330
33784SOL    HW1 7189   4.685  11.501  11.606 -0.3916  1.7128 -0.5529
33784SOL    HW2 7190   4.643  11.491  11.461  0.7332 -0.7420 -0.7650
33785SOL     OW 7191   6.844   8.520  12.222  0.7087  0.0789  0.2533
33785SOL    HW1 7192   6.818   8.533  12.313 -0.4682  0.6092 -0.1324
33785SOL    HW2 7193   6.824   8.428  12.205 -0.8348  0.4124  0.0358
33786SOL     OW 7194   7.817  11.730   7.363 -0.1163  0.1256 -0.1789
33786SOL    HW1 7195   7.780  11.768   7.284 -1.4906  0.6197  0.6528
33786SOL    HW2 7196   7.744  11.730   7.426  0.8077 -0.6522  0.9463
33787SOL     OW 7197   0.531   8.369   2.903 -0.5030 -0.3567  0.4735
33787SOL    HW1 7198   0.553   8.299   2.841  0.7223 -0.5077  1.0454
33787SOL    HW2 7199   0.467   8.422   2.857 -0.8045 -1.3602 -0.3139
33788SOL     OW 7200   1.016   8.286  11.899 -0.0629 -0.0778  0.3958
33788SOL    HW1 7201   0.939   8.231  11.885 -0.1510  0.0323  0.4406
33788SOL    HW2 7202   1.086   8.243  11.850 -0.1788 -0.1219  0.2673
33789SOL     OW 7203   4.829  11.034   3.316 -0.2956  0.3999 -0.4512
33789SOL    HW1 7204   4.826  11.127   3.293 -0.0242  0.6495  0.4613
33789SOL    HW2 7205   4.921  11.010   3.306 -0.4203  0.1445 -0.9928
33790SOL     OW 7206   8.289   7.198   0.726  0.3891 -0.1820  0.0590
33790SOL    HW1 7207   8.204   7.159   0.746  0.1914 -0.9146 -1.9984
33790SOL    HW2 7208   8.269   7.289   0.704  0.2703 -0.1123  0.4400
33791SOL     OW 7209   7.584  12.009   3.694  0.3711  0.3679 -0.2055
33791SOL    HW1 7210   7.669  12.010   3.651  0.7032  0.0601  0.4396
33791SOL    HW2 7211   7.547  12.096   3.677  1.1013  0.7413  0.1025
33792SOL     OW 7212  11.015  11.152  10.461  0.3411  0.1755  0.0090
33792SOL    HW1 7213  10.989  11.061  10.447 -0.2550 -0.0016  1.9762
33792SOL    HW2 7214  10.932  11.200  10.470  0.6538  0.6626  0.3708
33793SOL     OW 7215   9.646  12.206  10.439 -0.0410 -0.0902 -0.3752
33793SOL    HW1 7216   9.554  12.192  10.416 -0.1181  0.8436 -0.6919
33793SOL    HW2 7217   9.650  12.195  10.534 -0.3425 -0.7931 -0.4362
33794SOL     OW 7218   4.244   9.956   3.666 -0.4604 -0.0335  0.1266
33794SOL    HW1 7219   4.149   9.958   3.649 -0.3037  1.6104 -0.7992
33794SOL    HW2 7220   4.254  10.002   3.748 -0.4709 -0.4138  0.3444
33795SOL     OW 7221   2.374  11.286   5.266  0.0259  0.3305  0.3808
33795SOL    HW1 7222   2.411  11.231   5.335  0.7262  0.2308 -0.0564
33795SOL    HW2 7223   2.407  11.374   5.285  0.1771  0.3125  0.2093
33796SOL     OW 7224   5.133   8.216   1.749 -0.3275  0.0037 -0.8112
33796SOL    HW1 7225   5.209   8.160   1.764 -0.5041  0.0959  0.4731
33796SOL    HW2 7226   5.069   8.159   1.705 -1.1521 -1.3515  1.9566
33797SOL     OW 7227   7.250   0.257   1.747 -0.8913 -0.2023  0.2967
33797SOL    HW1 7228   7.215   0.170   1.727 -0.2647 -0.9986  2.4139
33797SOL    HW2 7229   7.206   0.283   1.828 -0.1613  0.9129  0.3604
33798SOL     OW 7230   3.057  11.599   4.106 -0.1969 -0.1343 -0.3207
33798SOL    HW1 7231   3.144  11.637   4.120 -0.3677  0.8678 -1.7779
33798SOL    HW2 7232   2.999  11.651   4.162 -0.0647  0.0835 -0.3861
33799SOL     OW 7233   3.093   9.031   6.686 -0.3481  0.2738  0.2717
33799SOL    HW1 7234   3.091   8.984   6.769 -1.2887 -0.4721 -0.1510
33799SOL    HW2 7235   3.000   9.042   6.663 -0.3421  4.0529  1.2892
33800SOL     OW 7236   0.353   3.583  10.821  0.0896 -0.1847 -0.0995
33800SOL    HW1 7237   0.339   3.677  10.809  2.0035 -0.0186 -1.4679
33800SOL    HW2 7238   0.375   3.550  10.734 -1.0945 -2.0385  0.2406
33801SOL     OW 7239   1.345   5.953  11.759  0.0657 -0.2021  0.3208
33801SOL    HW1 7240   1.303   6.035  11.731  0.9715  0.2496  0.2158
33801SOL    HW2 7241   1.290   5.884  11.724  0.6626  0.3477 -1.8674
33802SOL     OW 7242   8.887   5.245   6.849 -0.1504  0.2666  0.4036
33802SOL    HW1 7243   8.815   5.281   6.902  0.2063 -1.2088  1.9851
33802SOL    HW2 7244   8.847   5.173   6.800 -0.6896  2.1687 -2.1722
33803SOL     OW 7245   8.058  10.519  11.258 -0.2564 -0.1516 -0.2967
33803SOL    HW1 7246   8.024  10.606  11.281  0.3442  0.4726 -1.6724
33803SOL    HW2 7247   7.987  10.478  11.208  0.1230  0.2651 -1.1991
33804SOL     OW 7248   7.566  10.826   8.530 -0.2478  0.1348  0.5939
33804SOL    HW1 7249   7.573  10.800   8.438  1.0316  1.8835  0.1518
33804SOL    HW2 7250   7.510  10.904   8.529 -0.2970  0.1207  1.3126
33805SOL     OW 7251  11.360  11.119   4.948  0.1516  0.6423  0.0652
33805SOL    HW1 7252  11.287  11.178   4.968  0.2028  1.2077 -1.3178
33805SOL    HW2 7253  11.438  11.175   4.950  0.4434  0.2340  0.5810
33806SOL     OW 7254   1.174   4.055   4.508 -0.4781  0.2571  0.3435
33806SOL    HW1 7255   1.124   4.003   4.446  1.7210  0.5821 -1.8803
33806SOL    HW2 7256   1.194   3.994   4.579 -0.5306 -1.0701 -0.7290
33807SOL     OW 7257   5.516   3.382   0.752  0.3226 -0.6236  0.1662
33807SOL    HW1 7258   5.533   3.325   0.676  0.6149 -0.2127 -0.0799
33807SOL    HW2 7259   5.575   3.350   0.820  0.8533 -0.3000 -0.1339
33808SOL     OW 7260  11.217  10.417  10.421  0.0278  0.1940 -0.4532
33808SOL    HW1 7261  11.291  10.478  10.430  1.4387 -1.6194  1.0595
33808SOL    HW2 7262  11.140  10.469  10.445  0.9801  1.7403 -0.6009
33809SOL     OW 7263   0.689  10.727   9.525  0.6163 -0.0840 -0.2463
33809SOL    HW1 7264   0.623  10.737   9.594 -0.7102 -1.4082 -1.2486
33809SOL    HW2 7265   0.640  10.731   9.444  1.5293 -2.3029 -1.0054
33810SOL     OW 7266   7.302   7.327   1.811  0.6371 -0.1274  0.6268
33810SOL    HW1 7267   7.330   7.251   1.759 -0.4374 -0.7743  0.9604
33810SOL    HW2 7268   7.326   7.402   1.757  0.4084 -0.7551 -0.3769
33811SOL     OW 7269   6.940   9.364   3.026  0.3779  0.5444 -0.3410
33811SOL    HW1 7270   7.018   9.396   2.982 -0.2382  1.1861 -0.9903
33811SOL    HW2 7271   6.961   9.273   3.050  1.6911  1.0381  0.4456
33812SOL     OW 7272   9.423   4.034  12.326 -0.0847  0.0269 -0.7084
33812SOL    HW1 7273   9.346   4.043  12.381  0.1669 -1.1642 -0.1233
33812SOL    HW2 7274   9.422   3.943  12.297 -0.8945  0.8741 -3.7536
33813SOL     OW 7275   8.614   3.286   8.618  0.4001 -0.0666  0.0351
33813SOL    HW1 7276   8.582   3.359   8.671  0.0014 -1.1825  1.4258
33813SOL    HW2 7277   8.691   3.254   8.665  2.5318  1.3833 -2.2616
33814SOL     OW 7278   3.069   5.750   2.598 -0.2263  0.3382 -0.5108
33814SOL    HW1 7279   2.988   5.793   2.571 -1.0560 -0.5792  0.4568
33814SOL    HW2 7280   3.048   5.657   2.598 -0.0109  0.2199  2.3120
33815SOL     OW 7281   2.939   2.632   8.168  0.4178  0.0937 -0.0481
33815SOL    HW1 7282   2.873   2.689   8.128  0.4635  0.1927  0.0170
33815SOL    HW2 7283   2.893   2.550   8.185  1.0691 -0.9553 -2.8332
33816SOL     OW 7284  10.914   8.641   3.150  0.1005  1.0611 -0.1803
33816SOL    HW1 7285  10.909   8.671   3.241 -0.9398  0.5842 -0.0663
33816SOL    HW2 7286  10.823   8.626   3.125  0.3726  1.2792 -1.3420
33817SOL     OW 7287  10.068   2.776  11.401  0.4865  0.1628 -0.3113
33817SOL    HW1 7288  10.140   2.713  11.398  1.1551  0.6311  2.7923
33817SOL    HW2 7289  10.023   2.757  11.483  0.0538  3.0010  0.2208
33818SOL     OW 7290   6.246   0.721   3.339 -0.6782 -0.3108 -0.1194
33818SOL    HW1 7291   6.334   0.685   3.327  0.4686  1.9469  0.9448
33818SOL    HW2 7292   6.187   0.649   3.318  1.3287 -1.1250 -3.7813
33819SOL     OW 7293  12.274   1.448   6.237  0.0945 -0.1126 -0.9616
33819SOL    HW1 7294  12.197   1.394   6.258 -0.0877 -0.5845 -2.7173
33819SOL    HW2 7295  12.282   1.508   6.311 -1.9540 -0.0725 -0.7127
33820SOL     OW 7296  10.461   0.544   6.251  0.1408  0.2610 -0.1364
33820SOL    HW1 7297  10.518   0.594   6.310 -1.4055  1.7343  0.1951
33820SOL    HW2 7298  10.399   0.500   6.310 -1.1550  1.4073 -0.5857
33821SOL     OW 7299   9.205   7.960   0.655  0.5886  0.3016 -0.4938
33821SOL    HW1 7300   9.211   8.046   0.696  0.6787  0.7740 -1.4830
33821SOL    HW2 7301   9.273   7.908   0.699  0.8919  0.8862 -0.2584
33822SOL     OW 7302   6.624   4.990   1.733 -1.1447  0.0226 -0.0040
33822SOL    HW1 7303   6.539   5.000   1.776 -0.0569  0.2632  2.2401
33822SOL    HW2 7304   6.663   4.914   1.775  0.9770  1.7133  1.3004
33823SOL     OW 7305   6.145   7.595   8.252 -0.3633 -0.6119  0.4917
33823SOL    HW1 7306   6.213   7.611   8.317  3.4259  2.3214 -3.6021
33823SOL    HW2 7307   6.159   7.504   8.225  2.2099 -0.0809 -0.2715
33824SOL     OW 7308   9.844   1.804   6.020 -0.1474 -0.1706  0.2613
33824SOL    HW1 7309   9.804   1.869   6.079  2.5858  1.4425  0.5331
33824SOL    HW2 7310   9.899   1.751   6.078 -0.6845 -1.3404 -0.2863
33825SOL     OW 7311   0.693   9.201   6.508  1.5060 -0.4751  0.0847
33825SOL    HW1 7312   0.684   9.137   6.438  0.4591 -0.1284 -0.1115
33825SOL    HW2 7313   0.644   9.277   6.478  0.5645 -0.5075  1.4154
33826SOL     OW 7314   5.418  10.495   4.216 -0.7893  0.1133 -0.1862
33826SOL    HW1 7315   5.386  10.533   4.298  1.0852 -0.0365  0.6744
33826SOL    HW2 7316   5.511  10.516   4.215 -0.6700 -0.3478 -2.0481
33827SOL     OW 7317   0.757   1.573   7.340 -0.3793  0.2454  0.3345
33827SOL    HW1 7318   0.664   1.592   7.358 -0.7552  2.1424 -2.7835
33827SOL    HW2 7319   0.804   1.630   7.400 -1.2617  0.3034  1.0016
33828SOL     OW 7320   6.885   9.027   7.609  0.2425  0.0919  0.2488
33828SOL    HW1 7321   6.972   9.053   7.579 -0.3130  0.1173 -1.4393
33828SOL    HW2 7322   6.892   8.932   7.622  0.4445  0.0444 -0.1833
33829SOL     OW 7323   0.141   0.848   8.833 -0.2372 -0.7647  0.3160
33829SOL    HW1 7324   0.048   0.871   8.833 -0.6556 -2.2989 -0.5900
33829SOL    HW2 7325   0.153   0.798   8.753  1.7225  0.6175 -0.3306
33830SOL     OW 7326   4.736   5.369   7.529 -0.0628  0.5310  0.2856
33830SOL    HW1 7327   4.692   5.301   7.581 -0.4589  0.7000  0.1795
33830SOL    HW2 7328   4.684   5.448   7.545 -0.9733  0.3105 -1.3743
33831SOL     OW 7329   8.821   2.695   1.252  0.4310  0.7690  0.4209
33831SOL    HW1 7330   8.746   2.673   1.307  0.2790  0.9908  0.3058
33831SOL    HW2 7331   8.855   2.777   1.289  0.0432  1.1718 -0.0901
33832SOL     OW 7332   7.911   2.531  11.247 -0.7122  0.0797  0.0061
33832SOL    HW1 7333   7.950   2.532  11.160  0.6639  0.1615  0.5877
33832SOL    HW2 7334   7.927   2.619  11.282 -2.6332  0.5527 -0.2172
33833SOL     OW 7335  11.111   4.143   6.020 -0.2691 -0.0894  0.7126
33833SOL    HW1 7336  11.102   4.048   6.027  1.0194 -0.3964 -1.0212
33833SOL    HW2 7337  11.072   4.164   5.935 -0.0862  0.8428  0.8536
33834SOL     OW 7338   2.249   3.345   8.010  0.6768  0.0418  0.7635
33834SOL    HW1 7339   2.318   3.412   8.012 -0.3981  1.2073  0.5983
33834SOL    HW2 7340   2.186   3.375   8.076 -1.5097  1.1346 -1.6412
33835SOL     OW 7341   5.310  11.609   8.227 -0.3417 -0.1035  0.7831
33835SOL    HW1 7342   5.233  11.553   8.222 -0.0860 -0.4401  0.5363
33835SOL    HW2 7343   5.347  11.606   8.138  0.0693 -0.1159  0.9549
33836SOL     OW 7344   2.915   0.901   8.289 -0.2154 -0.3355  0.0004
33836SOL    HW1 7345   2.842   0.932   8.235  0.0390  0.6424  0.1950
33836SOL    HW2 7346   2.983   0.967   8.277 -0.0945 -0.1767  1.3830
33837SOL     OW 7347   6.710   1.629  10.154 -0.2647  0.2061 -0.1738
33837SOL    HW1 7348   6.638   1.657  10.210  0.2684  0.9191  0.1780
33837SOL    HW2 7349   6.679   1.646  10.065 -0.4697  0.6576 -0.0188
33838SOL     OW 7350  12.196   7.773   2.722 -0.1713  0.3082 -0.1424
33838SOL    HW1 7351  12.230   7.803   2.638 -1.4276  0.5944 -0.5720
33838SOL    HW2 7352  12.204   7.849   2.780  0.3138  0.2373 -0.1141
33839SOL     OW 7353  10.607   1.493   4.944  0.1287 -0.7060 -0.6277
33839SOL    HW1 7354  10.620   1.579   4.984  0.9765 -0.8389 -0.5982
33839SOL    HW2 7355  10.513   1.488   4.928 -0.3863 -1.0003  2.0930
33840SOL     OW 7356   9.309   1.834   7.091  0.0812 -0.3691  0.0382
33840SOL    HW1 7357   9.262   1.790   7.161  0.8260 -1.9828 -0.4318
33840SOL    HW2 7358   9.383   1.877   7.135 -0.2395 -0.1982  0.4114
33841SOL     OW 7359  12.251   6.043   2.981  0.4667  0.4648 -0.1852
33841SOL    HW1 7360  12.263   6.130   2.942 -2.0757  2.1222  2.2861
33841SOL    HW2 7361  12.287   6.052   3.069  2.4921 -1.8870 -0.6961
33842SOL     OW 7362   9.819  10.676   7.391  0.0367  0.1361  0.1231
33842SOL    HW1 7363   9.835  10.582   7.394 -0.0459  0.1460  1.1503
33842SOL    HW2 7364   9.751  10.691   7.456  0.9041  1.0753  0.8487
33843SOL     OW 7365   3.949   7.194   3.923 -0.5964 -0.0794  0.9928
33843SOL    HW1 7366   3.891   7.255   3.877  0.2707  1.6549  2.1024
33843SOL    HW2 7367   4.037   7.220   3.896 -0.2042 -0.9355  1.4031
33844SOL     OW 7368  11.111   0.891   0.503 -0.1928 -0.0787 -0.3178
33844SOL    HW1 7369  11.137   0.833   0.574  0.2796  1.5619  0.9136
33844SOL    HW2 7370  11.180   0.882   0.437 -0.9049 -2.0038 -0.8481
33845SOL     OW 7371   3.639   5.135   2.410  0.0446  0.1064 -0.1183
33845SOL    HW1 7372   3.708   5.151   2.474 -0.3801  1.7273 -0.0153
33845SOL    HW2 7373   3.583   5.213   2.415 -1.1462 -0.6548 -1.0097
33846SOL     OW 7374   7.393  11.277   6.006  0.1228 -0.0514 -0.1560
33846SOL    HW1 7375   7.478  11.268   5.963  1.3723  0.6092  2.0265
33846SOL    HW2 7376   7.359  11.360   5.972  0.7724  0.1276 -0.4002
33847SOL     OW 7377   6.604  10.723  11.414  0.2005  0.2119  0.0354
33847SOL    HW1 7378   6.660  10.780  11.361  0.6667  0.7852  1.1052
33847SOL    HW2 7379   6.538  10.690  11.353  0.6770  0.8998 -0.8775
33848SOL     OW 7380  11.548   5.849   5.022  0.4302  0.7137 -0.5034
33848SOL    HW1 7381  11.462   5.807   5.026  0.6293 -0.0380 -2.7024
33848SOL    HW2 7382  11.605   5.791   5.074  0.2732 -0.7036 -1.8306
33849SOL     OW 7383  10.573   7.015   3.706 -0.3007 -0.0921 -0.4152
33849SOL    HW1 7384  10.575   7.110   3.700 -2.1931  0.0436  0.4108
33849SOL    HW2 7385  10.581   6.996   3.799  0.5408 -0.7850 -0.6131
33850SOL     OW 7386   7.080   0.246   1.457  0.7383 -0.2115 -0.0494
33850SOL    HW1 7387   7.069   0.214   1.367 -3.8446 -1.0253  0.5647
33850SOL    HW2 7388   7.131   0.178   1.500  2.0301 -0.3704 -1.7215
33851SOL     OW 7389   6.667  11.918   0.815  0.8100  0.0170 -0.7253
33851SOL    HW1 7390   6.721  11.872   0.880  1.1188 -0.2913 -1.1856
33851SOL    HW2 7391   6.677  11.865   0.736 -0.2409 -0.0841 -0.7957
33852SOL     OW 7392   7.329   6.152   2.615 -0.9897 -0.2323  0.5073
33852SOL    HW1 7393   7.380   6.104   2.551 -0.9143 -0.2130  0.5533
33852SOL    HW2 7394   7.290   6.084   2.671 -1.4344 -0.2714  0.1576
33853SOL     OW 7395   4.090  11.085  10.216  0.3233  0.0567 -0.6789
33853SOL    HW1 7396   4.069  11.178  10.219  1.3853  0.3115  1.4753
33853SOL    HW2 7397   4.164  11.079  10.155  2.0933  1.1486  1.2011
33854SOL     OW 7398   9.246   8.709   1.934 -0.1884  0.5303 -0.2204
33854SOL    HW1 7399   9.195   8.790   1.933  0.1633  0.7557 -0.8929
33854SOL    HW2 7400   9.305   8.717   1.858  0.5196  0.0730  0.2699
33855SOL     OW 7401   1.236   5.771   9.187 -0.3042  0.3272  0.4662
33855SOL    HW1 7402   1.289   5.845   9.215 -0.3988  0.5596  0.0420
33855SOL    HW2 7403   1.248   5.768   9.092 -0.1784 -0.2965  0.4944
33856SOL     OW 7404  11.983   3.341   0.110  0.5599  0.2912 -0.3698
33856SOL    HW1 7405  12.022   3.255   0.093  2.2921  1.1595 -1.0231
33856SOL    HW2 7406  12.058   3.397   0.132 -0.7504  1.1262  2.4144
33857SOL     OW 7407   0.277   5.645   4.818 -0.4157  0.0878  0.0093
33857SOL    HW1 7408   0.187   5.625   4.843  0.0406 -0.1855  1.5825
33857SOL    HW2 7409   0.307   5.705   4.887  0.8680 -0.5214 -0.0056
33858SOL     OW 7410   6.861   5.195   1.901 -0.0853 -0.3462  0.2232
33858SOL    HW1 7411   6.871   5.100   1.906 -3.6923 -0.8043  1.2532
33858SOL    HW2 7412   6.836   5.212   1.810  0.1110 -0.4090  0.1558
33859SOL     OW 7413   6.563   6.613   4.588 -0.3350 -0.2900  0.1760
33859SOL    HW1 7414   6.478   6.640   4.621 -0.3678 -0.1431 -0.0265
33859SOL    HW2 7415   6.617   6.692   4.592 -0.2814 -0.3207  0.0687
33860SOL     OW 7416   5.972   1.042   9.850 -0.0854  0.2476 -0.4786
33860SOL    HW1 7417   5.895   1.004   9.806 -0.5278  1.4769 -0.8189
33860SOL    HW2 7418   5.950   1.038   9.943  0.5071 -1.6262 -0.3791
33861SOL     OW 7419   7.901   9.604  10.570  0.7677  0.5811  0.2690
33861SOL    HW1 7420   7.959   9.533  10.596  0.2850  0.2937  0.5747
33861SOL    HW2 7421   7.814   9.576  10.598  0.1384  0.0439 -2.0380
33862SOL     OW 7422   7.289  11.186  10.003 -0.1913  0.1640  0.2952
33862SOL    HW1 7423   7.297  11.258   9.940  0.0120 -0.0963  0.0225
33862SOL    HW2 7424   7.369  11.135   9.992 -0.7174 -0.5878 -0.1133
33863SOL     OW 7425   2.995   4.838   3.251 -0.0617 -0.4905  0.1079
33863SOL    HW1 7426   2.926   4.860   3.189 -0.8716  0.2943  1.2428
33863SOL    HW2 7427   2.991   4.742   3.258  1.7950 -0.9268 -2.9489
33864SOL     OW 7428   7.599   7.251   4.096  0.0984  0.5646  0.2680
33864SOL    HW1 7429   7.621   7.317   4.030 -1.0140  0.1684 -0.5432
33864SOL    HW2 7430   7.638   7.283   4.176  1.6359  0.9799 -0.6128
33865SOL     OW 7431   7.982   4.320  11.312  0.0078 -0.2118  0.2213
33865SOL    HW1 7432   7.989   4.415  11.304  0.0903 -0.1037  1.4556
33865SOL    HW2 7433   7.986   4.288  11.221  0.9777  0.8921 -0.1483
33866SOL     OW 7434   2.078   4.184   9.966  0.3192  0.2270 -0.3576
33866SOL    HW1 7435   2.172   4.201   9.964  0.1503  1.1807 -2.2934
33866SOL    HW2 7436   2.039   4.257   9.917 -1.1705 -1.6108 -2.0536
33867SOL     OW 7437  11.000   8.446   3.576 -0.1819 -0.0884 -0.0527
33867SOL    HW1 7438  10.936   8.486   3.636  0.0211  1.0714 -0.5802
33867SOL    HW2 7439  11.070   8.511   3.569 -0.0861 -0.3022 -1.3601
33868SOL     OW 7440   2.501  10.572   1.978  0.6368  0.4525  0.4215
33868SOL    HW1 7441   2.421  10.588   1.928  1.5347  0.5325 -1.0764
33868SOL    HW2 7442   2.520  10.479   1.965  0.7749  0.4305  0.7765
33869SOL     OW 7443   2.752  10.863  11.305 -0.5808  0.4155 -0.1823
33869SOL    HW1 7444   2.690  10.829  11.240  0.5349  0.7587 -1.4568
33869SOL    HW2 7445   2.835  10.821  11.284  0.0374  1.3309  0.3680
33870SOL     OW 7446   5.122  10.632  10.168 -0.2141  0.7044 -0.1906
33870SOL    HW1 7447   5.088  10.542  10.165 -2.4218  1.4831 -0.4302
33870SOL    HW2 7448   5.174  10.635  10.249 -1.6521 -0.3126  0.8274
33871SOL     OW 7449   7.667   9.437   5.315  0.2003 -0.2603  0.1545
33871SOL    HW1 7450   7.612   9.509   5.284 -2.6083 -1.9519  0.8848
33871SOL    HW2 7451   7.670   9.448   5.410 -0.3613 -1.1373  0.2851
33872SOL     OW 7452   2.409   0.166   2.274 -0.0527 -0.3982  0.2100
33872SOL    HW1 7453   2.478   0.106   2.303 -1.3884 -1.3882  1.4498
33872SOL    HW2 7454   2.367   0.195   2.355 -0.7656  0.5920 -0.4986
33873SOL     OW 7455   1.452   3.124   1.115  0.2255 -0.2117  0.0965
33873SOL    HW1 7456   1.454   3.149   1.022  0.4337  1.0538  0.4217
33873SOL    HW2 7457   1.410   3.038   1.115 -0.9166  0.3091 -1.0543
33874SOL     OW 7458   1.071   6.566   2.579  0.2354 -0.1038  0.0529
33874SOL    HW1 7459   1.063   6.608   2.664  1.7225  0.4748 -0.0672
33874SOL    HW2 7460   1.143   6.611   2.536 -0.3835 -0.4849 -1.4668
33875SOL     OW 7461   0.950   8.013   1.584 -0.0699 -0.1075 -0.3755
33875SOL    HW1 7462   0.863   7.975   1.592  0.6279 -1.9202 -0.9192
33875SOL    HW2 7463   0.938   8.088   1.526 -0.9664 -1.5178 -2.1155
33876SOL     OW 7464   4.389   8.791   5.236 -0.0080  0.2344  0.2381
33876SOL    HW1 7465   4.354   8.838   5.161 -1.0385 -0.2600  0.3892
33876SOL    HW2 7466   4.401   8.701   5.205 -2.0545 -0.3872  1.0983
33877SOL     OW 7467   6.628   8.159   8.305 -0.6423 -0.1350  0.4860
33877SOL    HW1 7468   6.655   8.198   8.389 -0.8898 -0.1013  0.5507
33877SOL    HW2 7469   6.690   8.088   8.291  0.1423  0.6105  0.1049
33878SOL     OW 7470   6.346   5.430   0.550  0.6910 -0.5450  0.1839
33878SOL    HW1 7471   6.269   5.482   0.574  0.2799 -1.5165  1.0348
33878SOL    HW2 7472   6.328   5.343   0.586  1.5105 -1.1966 -0.9347
33879SOL     OW 7473  10.581   1.543   8.541  0.0987 -0.6742 -0.1855
33879SOL    HW1 7474  10.555   1.487   8.468  1.1895 -0.0904 -1.0590
33879SOL    HW2 7475  10.526   1.515   8.614 -0.4649 -1.8074 -1.0169
33880SOL     OW 7476   0.978   5.506   3.899 -0.4433 -0.2372  0.5621
33880SOL    HW1 7477   0.889   5.487   3.867 -0.0707 -1.1446  0.0149
33880SOL    HW2 7478   1.006   5.424   3.940  0.6119 -0.3756 -0.3974
33881SOL     OW 7479   5.988  11.142  11.496  0.0223 -0.1289  0.1107
33881SOL    HW1 7480   6.008  11.176  11.583  0.7759  0.4605 -0.2847
33881SOL    HW2 7481   5.939  11.212  11.454  1.0259  0.2420 -0.4800
33882SOL     OW 7482   7.571   1.220   3.125  0.1284 -0.1263 -0.0037
33882SOL    HW1 7483   7.645   1.163   3.146  0.8397  1.0395  0.7976
33882SOL    HW2 7484   7.538   1.249   3.210 -2.2802 -1.8070 -0.2502
33883SOL     OW 7485   5.098   5.154  11.165 -0.4508  0.1375  0.0852
33883SOL    HW1 7486   5.072   5.086  11.103  0.1461  0.3164 -0.3720
33883SOL    HW2 7487   5.099   5.109  11.250 -0.8188 -0.2270 -0.0974
33884SOL     OW 7488   6.358   4.608  11.959  0.0626  0.5679 -0.2493
33884SOL    HW1 7489   6.351   4.605  11.864  2.4691  1.9044 -0.5576
33884SOL    HW2 7490   6.320   4.693  11.983  1.3537  1.2029 -0.3207
33885SOL     OW 7491   5.211   2.859   3.415  0.1754  0.1401 -0.3287
33885SOL    HW1 7492   5.282   2.805   3.450  0.2080 -0.8262 -1.8163
33885SOL    HW2 7493   5.140   2.849   3.478  0.5345 -0.8394 -0.0623
33886SOL     OW 7494   0.919   3.524   4.918  0.4239  0.5482  0.3763
33886SOL    HW1 7495   0.968   3.590   4.870 -1.0343  0.4995 -1.2930
33886SOL    HW2 7496   0.931   3.443   4.867  0.9098 -0.1209  1.5167
33887SOL     OW 7497   5.341   9.304   4.461  0.0877 -0.7111 -0.5379
33887SOL    HW1 7498   5.393   9.373   4.419 -0.5967 -0.2430 -0.6354
33887SOL    HW2 7499   5.383   9.223   4.433  0.3270 -0.3683 -1.2195
33888SOL     OW 7500  11.649   8.041   3.900  1.0539  0.6114  0.3099
33888SOL    HW1 7501  11.654   8.063   3.807  0.6575 -1.6834 -0.3157
33888SOL    HW2 7502  11.567   8.080   3.930  0.1860 -0.2881 -0.8230
33889SOL     OW 7503  11.217   2.142   4.416 -0.2485 -0.1967 -0.4843
33889SOL    HW1 7504  11.280   2.193   4.365 -1.7443  1.8413 -0.3757
33889SOL    HW2 7505  11.236   2.164   4.507 -0.2039 -0.7139 -0.3619
33890SOL     OW 7506   0.048   7.710   5.169  0.0030 -0.1090 -0.8859
33890SOL    HW1 7507   0.093   7.794   5.164  0.2710 -0.0942  0.9617
33890SOL    HW2 7508   0.118   7.647   5.189 -0.2215 -0.7476 -2.0648
33891SOL     OW 7509   5.924   3.640   3.078  0.2908 -0.0939  0.0827
33891SOL    HW1 7510   5.916   3.614   3.170  2.4477 -3.9575 -0.6204
33891SOL    HW2 7511   5.842   3.609   3.038 -0.2025  0.6583  0.4891
33892SOL     OW 7512  11.228  10.730   9.440 -0.0011 -0.1504  0.1805
33892SOL    HW1 7513  11.295  10.735   9.508 -1.1313  1.2647  1.2389
33892SOL    HW2 7514  11.161  10.672   9.476 -0.0072 -0.4301 -0.2727
33893SOL     OW 7515   6.794   7.519  11.937 -0.3080  0.0863 -0.1012
33893SOL    HW1 7516   6.749   7.435  11.947 -0.1692 -0.2475 -1.9792
33893SOL    HW2 7517   6.885   7.499  11.956 -0.0168 -0.5634 -2.0330
33894SOL     OW 7518   4.824   8.263   2.304  0.1691 -0.2279  0.2956
33894SOL    HW1 7519   4.796   8.219   2.224  0.5330 -0.5996  0.3701
33894SOL    HW2 7520   4.889   8.327   2.275 -0.3084  0.2088  0.1951
33895SOL     OW 7521   9.862   7.472   2.370  0.2892 -0.1429  0.0283
33895SOL    HW1 7522   9.930   7.530   2.335  0.1883 -0.1154 -0.1212
33895SOL    HW2 7523   9.880   7.387   2.330  1.1069 -0.4947  1.0917
33896SOL     OW 7524  10.183   5.105   2.351 -0.3232 -0.3132 -0.1755
33896SOL    HW1 7525  10.147   5.047   2.418 -0.1565 -1.4180 -1.0276
33896SOL    HW2 7526  10.109   5.123   2.293  0.0740 -1.2813 -1.0146
33897SOL     OW 7527   9.042   1.139  11.545  0.3542  0.0233 -0.7838
33897SOL    HW1 7528   9.018   1.231  11.541  2.6012  0.6777 -0.3368
33897SOL    HW2 7529   8.995   1.099  11.471 -1.2369  1.3323 -0.5389
33898SOL     OW 7530   9.335  11.302   3.488  0.0419 -0.2158 -0.2362
33898SOL    HW1 7531   9.375  11.219   3.514 -0.7386 -0.3616  0.5199
33898SOL    HW2 7532   9.307  11.288   3.398 -1.1224 -1.1644  0.2605
33899SOL     OW 7533   0.741   0.982   7.256 -0.3269  0.5944 -0.2468
33899SOL    HW1 7534   0.804   0.922   7.216  0.2440  2.4963 -2.4285
33899SOL    HW2 7535   0.655   0.951   7.225 -0.1177  0.3423 -0.5796
33900SOL     OW 7536   8.323   0.143   5.559  0.2954 -0.4189 -0.1532
33900SOL    HW1 7537   8.292   0.229   5.588  4.0591  1.3590 -0.8484
33900SOL    HW2 7538   8.288   0.134   5.470  1.1048  1.1757 -0.6711
33901SOL     OW 7539   1.339  11.334   8.880  0.0160 -0.0952  0.1961
33901SOL    HW1 7540   1.384  11.292   8.807 -1.3589 -1.8615  0.3016
33901SOL    HW2 7541   1.406  11.388   8.922  0.7832  1.2365 -2.5264
33902SOL     OW 7542   3.524   4.581   9.428 -0.2484 -0.0841 -0.1271
33902SOL    HW1 7543   3.609   4.551   9.461  0.3640 -0.0746 -1.6227
33902SOL    HW2 7544   3.540   4.671   9.398 -0.5095 -0.4204 -1.3377
33903SOL     OW 7545   4.191   3.359   6.492 -0.1488 -0.0475 -1.2967
33903SOL    HW1 7546   4.169   3.287   6.433 -0.4043 -1.5358  0.4959
33903SOL    HW2 7547   4.109   3.382   6.534 -0.1214  1.5382 -2.0599
33904SOL     OW 7548   5.482   0.379   8.926  0.5169  0.1986 -0.1690
33904SOL    HW1 7549   5.456   0.409   9.013 -0.7602 -0.9020 -0.1390
33904SOL    HW2 7550   5.417   0.313   8.903 -0.2269  1.6350 -2.6686
33905SOL     OW 7551   3.293   9.771   6.248  0.2274 -0.2737  0.3511
33905SOL    HW1 7552   3.264   9.726   6.327  0.9396  0.0869  0.8279
33905SOL    HW2 7553   3.348   9.706   6.203  0.2944 -0.2824  0.4450
33906SOL     OW 7554   6.477   9.891   1.474  0.4383  0.6274 -0.4925
33906SOL    HW1 7555   6.538   9.965   1.482 -0.3737  1.4590 -1.6753
33906SOL    HW2 7556   6.412   9.907   1.542  0.6010  0.6610 -0.3434
33907SOL     OW 7557   1.795  10.587   2.832 -0.0909 -0.2321  0.0685
33907SOL    HW1 7558   1.831  10.568   2.745 -0.0554 -1.1262  0.2643
33907SOL    HW2 7559   1.821  10.511   2.885  0.7442  0.7472  1.1203
33908SOL     OW 7560   3.759   6.574   5.197  0.0316 -0.1923  0.7731
33908SOL    HW1 7561   3.841   6.538   5.232  0.0918  1.8009  2.9369
33908SOL    HW2 7562   3.698   6.500   5.198  1.4566 -1.4317  0.2188
33909SOL     OW 7563   6.550   5.746   7.801  0.3114  0.2177  0.4071
33909SOL    HW1 7564   6.544   5.748   7.706  1.2208  0.4943  0.3502
33909SOL    HW2 7565   6.572   5.836   7.825 -0.5632  0.3058  0.9349
33910SOL     OW 7566   4.754   0.379  10.629 -0.0336  0.0649  0.3531
33910SOL    HW1 7567   4.766   0.285  10.641  1.7863  0.0799 -0.9591
33910SOL    HW2 7568   4.832   0.419  10.667  0.9246  0.7508 -2.1282
33911SOL     OW 7569   0.009   3.609   6.087  0.5080 -0.0649  0.4546
33911SOL    HW1 7570   0.012   3.541   6.155 -0.5614  0.1332  0.7186
33911SOL    HW2 7571   0.088   3.661   6.102  0.2159  0.0722  1.6645
33912SOL     OW 7572   3.445   2.447   1.289 -0.2993 -0.6289  0.0196
33912SOL    HW1 7573   3.411   2.485   1.370 -1.4195 -1.1718 -0.1744
33912SOL    HW2 7574   3.380   2.382   1.264 -0.4163  0.1289 -1.7904
33913SOL     OW 7575   3.486   1.298   2.898 -0.3346 -0.0206  0.2030
33913SOL    HW1 7576   3.424   1.226   2.888 -0.1676 -0.2549  0.8405
33913SOL    HW2 7577   3.561   1.273   2.845 -0.3975 -0.1746  0.1857
33914SOL     OW 7578   6.316   9.769   5.341  0.1524 -0.0014  0.1547
33914SOL    HW1 7579   6.326   9.725   5.257  1.7618  0.5002  0.0433
33914SOL    HW2 7580   6.244   9.831   5.328 -0.8822 -1.2577 -0.2515
33915SOL     OW 7581   1.082   8.430   7.920  0.2987  0.8668 -0.1520
33915SOL    HW1 7582   1.072   8.344   7.879 -1.4710  0.6032  0.7501
33915SOL    HW2 7583   1.159   8.421   7.977  0.1008 -0.1336 -0.0345
33916SOL     OW 7584   8.339   8.971   9.126 -0.2468 -0.3879  0.2487
33916SOL    HW1 7585   8.254   9.012   9.140 -0.3684 -0.2924 -0.7360
33916SOL    HW2 7586   8.381   9.022   9.057 -0.0644 -1.3916 -0.4195
33917SOL     OW 7587   2.210   2.898   8.785  0.0346  0.0627  0.4046
33917SOL    HW1 7588   2.289   2.942   8.816 -1.2734  2.9640 -0.0303
33917SOL    HW2 7589   2.178   2.849   8.861  1.8277 -0.5837  0.7808
33918SOL     OW 7590  11.003  11.494  11.889  0.4330  0.1005  0.2842
33918SOL    HW1 7591  10.951  11.544  11.951 -2.1334  1.7548 -2.8778
33918SOL    HW2 7592  10.944  11.476  11.816  3.5488 -0.2877 -2.4238
33919SOL     OW 7593   4.238   8.380   2.023 -0.3929 -0.5814  0.3228
33919SOL    HW1 7594   4.219   8.471   1.999 -1.2898 -0.9307 -0.3115
33919SOL    HW2 7595   4.175   8.328   1.974 -0.1611 -1.5290  0.9992
33920SOL     OW 7596   3.148   7.712   1.383  0.2711  0.2547 -0.0026
33920SOL    HW1 7597   3.169   7.702   1.290  1.2921  2.6876 -0.1183
33920SOL    HW2 7598   3.199   7.788   1.411  0.1284 -0.5018  2.6197
33921SOL     OW 7599   3.890   6.739  10.197 -0.1166  0.0924 -0.4193
33921SOL    HW1 7600   3.824   6.725  10.129  0.0945 -1.7621 -0.3018
33921SOL    HW2 7601   3.867   6.823  10.237 -0.9450  0.6523 -1.9738
33922SOL     OW 7602   5.210   5.257   7.625  0.3747  0.3876 -0.1177
33922SOL    HW1 7603   5.227   5.277   7.533  2.1775 -0.6505 -0.0539
33922SOL    HW2 7604   5.150   5.183   7.623  1.5704 -0.6117 -0.5281
33923SOL     OW 7605   2.014   2.001   2.180 -0.4289  0.2761 -0.2402
33923SOL    HW1 7606   2.029   2.096   2.178  2.3716 -0.0713  0.1950
33923SOL    HW2 7607   1.957   1.988   2.256  0.9557  1.4603  1.0815
33924SOL     OW 7608   7.749   0.848   2.746 -0.1089 -0.3183  0.6547
33924SOL    HW1 7609   7.653   0.842   2.745 -0.0852 -2.7472 -2.4039
33924SOL    HW2 7610   7.770   0.909   2.675  0.5996 -1.0427  0.2225
33925SOL     OW 7611  10.649   5.949   1.931  0.4963 -0.9735 -0.1144
33925SOL    HW1 7612  10.660   6.036   1.893 -1.8745 -0.1095  0.9751
33925SOL    HW2 7613  10.738   5.914   1.938  1.2867  0.0708 -3.3696
33926SOL     OW 7614  10.485   9.754   8.332 -0.3610  0.1231  0.1788
33926SOL    HW1 7615  10.549   9.726   8.266  0.1220  0.4515  0.4982
33926SOL    HW2 7616  10.435   9.675   8.351  0.0887 -0.1960  0.0737
33927SOL     OW 7617   9.114   1.404   2.626 -0.0707 -0.6049 -0.1915
33927SOL    HW1 7618   9.146   1.432   2.711 -0.1646  0.3117 -0.4465
33927SOL    HW2 7619   9.079   1.484   2.586 -0.3313 -1.0867 -0.9506
33928SOL     OW 7620   7.817  11.573   8.401  0.5640 -0.0944 -0.2012
33928SOL    HW1 7621   7.817  11.480   8.425  1.0099 -0.2013 -0.6090
33928SOL    HW2 7622   7.728  11.589   8.369  0.5479 -0.4338 -0.3326
33929SOL     OW 7623   0.422   6.365   2.907  0.0714 -0.5126  0.2978
33929SOL    HW1 7624   0.468   6.429   2.962 -1.0162  0.1629  0.4388
33929SOL    HW2 7625   0.491   6.327   2.853  1.0087 -0.4671  1.4225
33930SOL     OW 7626   2.227   5.938   6.695  0.0578 -0.9212 -0.2900
33930SOL    HW1 7627   2.225   6.029   6.726 -0.3161 -1.3371  1.0024
33930SOL    HW2 7628   2.317   5.910   6.709  0.0363 -0.9163 -0.1334
33931SOL     OW 7629   3.829   4.768   5.501 -0.0646  0.0545  0.1902
33931SOL    HW1 7630   3.845   4.794   5.410  0.3337 -0.4926  0.0958
33931SOL    HW2 7631   3.842   4.673   5.502  0.2568  0.0940  0.8798
33932SOL     OW 7632   9.662  11.348  10.440 -0.4048 -0.3582  0.0207
33932SOL    HW1 7633   9.713  11.276  10.478  0.3257 -0.1476 -0.5290
33932SOL    HW2 7634   9.628  11.395  10.516  1.9342  0.7122  0.5092
33933SOL     OW 7635  10.387  10.927   5.236  0.5369 -0.1658  0.1646
33933SOL    HW1 7636  10.422  10.996   5.180  1.2992 -0.2674  0.5071
33933SOL    HW2 7637  10.332  10.973   5.300 -0.6213 -0.0806 -0.8500
33934SOL     OW 7638   9.332  10.283   9.365  0.3035 -0.5051 -0.2348
33934SOL    HW1 7639   9.368  10.321   9.285  1.7562 -0.8037  0.2426
33934SOL    HW2 7640   9.390  10.315   9.434 -0.9523 -0.2235  0.7093
33935SOL     OW 7641   8.303   1.937   3.629  0.3856 -0.0507 -0.4836
33935SOL    HW1 7642   8.261   1.919   3.714 -1.5092  2.1821 -0.8467
33935SOL    HW2 7643   8.276   1.864   3.573 -1.1462  0.1450 -0.0441
33936SOL     OW 7644   7.809   7.017   6.027  0.3022  0.2285 -0.1392
33936SOL    HW1 7645   7.862   7.062   5.962 -1.5680  2.2392 -0.3880
33936SOL    HW2 7646   7.754   7.086   6.065 -0.6371 -1.3800  1.5675
33937SOL     OW 7647   8.128  11.193  11.266 -0.6127  0.4648 -0.4587
33937SOL    HW1 7648   8.099  11.106  11.239  0.9288  0.3561 -1.9697
33937SOL    HW2 7649   8.120  11.192  11.362 -2.6743 -0.5315 -0.5806
33938SOL     OW 7650   7.739   9.508   4.179 -0.3907  0.0178 -0.4400
33938SOL    HW1 7651   7.824   9.515   4.134  0.0187 -0.7063  0.1859
33938SOL    HW2 7652   7.679   9.476   4.112 -0.0018 -0.1683 -0.7044
33939SOL     OW 7653   1.685   7.832   0.644 -0.1337  0.1740  0.1383
33939SOL    HW1 7654   1.631   7.759   0.676  0.5638 -0.4438 -0.0631
33939SOL    HW2 7655   1.775   7.802   0.656  0.1873  1.3625  0.8660
33940SOL     OW 7656   8.323  10.298   3.958  0.1042 -0.4722  0.0441
33940SOL    HW1 7657   8.284  10.231   4.014 -0.3149 -0.6561 -0.4619
33940SOL    HW2 7658   8.417  10.281   3.963  0.2888  0.7395  2.2682
33941SOL     OW 7659   9.235   8.775   3.695 -0.0105  0.4277 -0.1469
33941SOL    HW1 7660   9.236   8.766   3.791  1.8137 -0.6945 -0.2294
33941SOL    HW2 7661   9.308   8.833   3.676  0.9888 -1.0375 -0.9618
33942SOL     OW 7662   6.401   9.299   6.127 -0.3493 -0.4771  0.0979
33942SOL    HW1 7663   6.370   9.319   6.215 -0.3632  0.4325 -0.1072
33942SOL    HW2 7664   6.419   9.384   6.087 -1.0329 -0.8420 -1.0366
33943SOL     OW 7665   3.411   7.580   0.460  0.6309 -0.1973 -0.5302
33943SOL    HW1 7666   3.406   7.572   0.555 -0.6306  0.0449 -0.5606
33943SOL    HW2 7667   3.473   7.651   0.444 -0.6678  1.1532  0.1855
33944SOL     OW 7668   7.071   8.737  10.744  0.2908  0.1450 -0.0382
33944SOL    HW1 7669   7.130   8.676  10.699  0.0485 -0.9941  1.1071
33944SOL    HW2 7670   7.129   8.800  10.787  0.5624  0.4954 -0.9026
33945SOL     OW 7671   6.147   3.677   8.225 -0.5047  0.8140 -0.0215
33945SOL    HW1 7672   6.119   3.748   8.283 -0.1442  1.3376 -0.4854
33945SOL    HW2 7673   6.216   3.632   8.273 -1.1142  0.4204  0.5099
33946SOL     OW 7674   3.562  11.054   2.231  0.1050 -0.2831 -0.1464
33946SOL    HW1 7675   3.593  11.040   2.321 -0.4510 -2.2700 -0.2188
33946SOL    HW2 7676   3.505  10.979   2.214 -1.5483  1.2031 -1.4119
33947SOL     OW 7677   9.424   4.493   7.671 -0.8689  0.1637  0.0051
33947SOL    HW1 7678   9.367   4.521   7.742 -2.1250 -1.8945 -0.1130
33947SOL    HW2 7679   9.459   4.409   7.700 -0.0273  0.1247 -1.0785
33948SOL     OW 7680   0.569   2.612   6.660  0.1284  0.5654  0.4444
33948SOL    HW1 7681   0.610   2.552   6.598 -0.5045  0.4343  0.1385
33948SOL    HW2 7682   0.641   2.664   6.695  0.8490 -1.0570  1.5061
33949SOL     OW 7683   6.622   7.319   4.972 -0.3600  0.6117 -0.5665
33949SOL    HW1 7684   6.618   7.393   5.033  2.9073 -0.4499  1.1857
33949SOL    HW2 7685   6.561   7.255   5.008  0.6883  0.4573  1.0520
33950SOL     OW 7686   1.156   7.319   7.401 -0.0872  0.3989 -0.1402
33950SOL    HW1 7687   1.153   7.412   7.377 -1.9980  0.3250 -0.3487
33950SOL    HW2 7688   1.117   7.316   7.488 -0.5258 -0.2651 -0.3590
33951SOL     OW 7689   4.872   6.063   2.866  0.3767  0.9895  0.4190
33951SOL    HW1 7690   4.814   6.099   2.933 -0.5636  1.6392 -0.7112
33951SOL    HW2 7691   4.872   5.969   2.883 -0.4010  1.0667  0.8963
33952SOL     OW 7692   4.214   7.178   4.725  0.0796 -0.3534  0.2629
33952SOL    HW1 7693   4.252   7.174   4.813 -1.1463 -0.1061  0.8257
33952SOL    HW2 7694   4.153   7.252   4.728 -2.1115 -2.0380  0.1094
33953SOL     OW 7695   0.552   3.411   2.070 -0.4785  0.1363  0.0761
33953SOL    HW1 7696   0.645   3.388   2.067 -1.1418 -2.7333 -1.0363
33953SOL    HW2 7697   0.546   3.492   2.020  1.6083  1.3559  1.6218
33954SOL     OW 7698   9.422   5.054   3.116  0.4582  0.5814  0.4670
33954SOL    HW1 7699   9.380   5.037   3.201  1.6940  1.5775  1.3186
33954SOL    HW2 7700   9.368   5.122   3.076 -0.7148 -0.5964 -0.0382
33955SOL     OW 7701   1.886   6.215   0.328  0.5095  0.2589  0.7941
33955SOL    HW1 7702   1.919   6.196   0.240 -2.1548  0.9566 -0.4382
33955SOL    HW2 7703   1.941   6.288   0.358  1.7766 -0.3112 -0.0557
33956SOL     OW 7704   0.484   5.658   3.994 -0.0948 -0.8693 -0.1618
33956SOL    HW1 7705   0.518   5.747   4.001 -1.1169 -0.4376 -0.3911
33956SOL    HW2 7706   0.389   5.670   3.985 -0.3470 -2.0218  0.7279
33957SOL     OW 7707   2.354   0.039   6.239 -0.3660  0.5102 -0.6711
33957SOL    HW1 7708   2.301   0.072   6.312  0.1489  0.0194 -0.0723
33957SOL    HW2 7709   2.293   0.036   6.165 -0.9774  0.6947 -0.1812
33958SOL     OW 7710   0.922   9.133   9.219 -0.2703 -0.0611 -0.4007
33958SOL    HW1 7711   0.856   9.167   9.159 -1.1469 -0.7711  0.1123
33958SOL    HW2 7712   0.915   9.038   9.209  0.4871 -0.1474 -0.1295
33959SOL     OW 7713   2.085   0.942   9.794  0.3895  0.1186  0.0920
33959SOL    HW1 7714   2.163   0.906   9.752  1.1828 -0.5014  1.9690
33959SOL    HW2 7715   2.118   1.016   9.846 -0.3437  0.1648  0.5041
33960SOL     OW 7716  10.825   5.377   1.252 -0.5582 -0.5779 -0.1818
33960SOL    HW1 7717  10.731   5.364   1.258 -0.6405  0.3299  0.7722
33960SOL    HW2 7718  10.844   5.377   1.158 -1.6237  0.0000 -0.4067
33961SOL     OW 7719   4.766  10.085   3.202 -0.0989  0.0483  0.6667
33961SOL    HW1 7720   4.817  10.005   3.192 -0.1797  0.0392  0.3400
33961SOL    HW2 7721   4.826  10.147   3.244  0.8208  0.6595 -1.4437
33962SOL     OW 7722   4.116   7.581   3.457 -0.0722 -0.3842  0.7689
33962SOL    HW1 7723   4.157   7.653   3.409 -0.8418 -0.1973  0.3662
33962SOL    HW2 7724   4.076   7.623   3.533 -1.7674 -0.1199 -0.2120
33963SOL     OW 7725   9.889   1.397  12.153  0.6186  0.1388  0.1506
33963SOL    HW1 7726   9.837   1.466  12.112  0.9306 -0.9033 -2.1153
33963SOL    HW2 7727   9.837   1.318  12.142  2.1300 -0.7134 -1.1163
33964SOL     OW 7728   6.311   9.649   3.470  0.2654 -0.2254  0.4918
33964SOL    HW1 7729   6.336   9.616   3.556  0.6122  1.1102  0.9252
33964SOL    HW2 7730   6.297   9.570   3.417  0.0509 -1.0610  1.7562
33965SOL     OW 7731  12.051   3.778   3.230  0.1499 -0.2207 -0.0526
33965SOL    HW1 7732  12.088   3.706   3.280  0.0561  0.8442  1.6004
33965SOL    HW2 7733  12.123   3.809   3.175  0.2929 -1.3133 -0.5025
33966SOL     OW 7734   1.164   0.216   0.532 -0.3623  0.4490  0.5263
33966SOL    HW1 7735   1.175   0.122   0.516 -0.3054  0.2081  1.8320
33966SOL    HW2 7736   1.187   0.258   0.449  0.1960 -0.6538  0.1054
33967SOL     OW 7737  10.768   8.860   9.226  0.7288  0.9357 -0.1595
33967SOL    HW1 7738  10.681   8.844   9.264  0.6276  1.2983 -0.2319
33967SOL    HW2 7739  10.766   8.952   9.201  2.1428  1.7811  2.4518
33968SOL     OW 7740   7.226   3.913   3.945 -0.1455  0.1343  0.2093
33968SOL    HW1 7741   7.161   3.954   3.889  1.4788  1.4804 -0.7794
33968SOL    HW2 7742   7.308   3.956   3.923  1.1100 -1.4805  1.4188
33969SOL     OW 7743   4.479   1.925   0.592  0.6446 -0.2228 -0.2514
33969SOL    HW1 7744   4.475   1.990   0.522  0.7221  0.3085  0.2339
33969SOL    HW2 7745   4.397   1.877   0.585 -1.7763  3.1106  2.4498
33970SOL     OW 7746   3.514   0.171   0.602  0.5421  0.8991 -0.2705
33970SOL    HW1 7747   3.550   0.245   0.650 -1.4596  1.7479  0.0559
33970SOL    HW2 7748   3.419   0.182   0.610 -0.0311 -3.5654  2.7353
33971SOL     OW 7749   9.401   6.028   1.712  0.4037  0.0335 -0.2743
33971SOL    HW1 7750   9.331   5.988   1.661 -0.4762 -1.6466  2.0954
33971SOL    HW2 7751   9.437   6.096   1.654 -1.4701 -0.7492 -2.5058
33972SOL     OW 7752   2.371  10.867   1.455 -0.6180 -0.2404  0.1720
33972SOL    HW1 7753   2.387  10.780   1.490  0.1387  0.4748  1.7020
33972SOL    HW2 7754   2.295  10.899   1.504  0.2484  0.6451  1.0005
33973SOL     OW 7755   8.537   3.215  10.686 -0.5492 -0.7758 -0.1539
33973SOL    HW1 7756   8.552   3.181  10.774  2.9612 -1.7094 -0.9752
33973SOL    HW2 7757   8.607   3.278  10.672 -3.0676  2.0379 -1.1310
33974SOL     OW 7758  11.304   5.394   3.877  0.1664  0.5004  0.3910
33974SOL    HW1 7759  11.380   5.340   3.899  0.3401  0.0857 -1.0939
33974SOL    HW2 7760  11.229   5.335   3.886  0.4614 -0.4282 -2.3863
33975SOL     OW 7761   0.250   2.036   0.045 -0.2863  0.4354  0.6505
33975SOL    HW1 7762   0.292   2.040  -0.041  0.5607  0.4536  1.0585
33975SOL    HW2 7763   0.166   1.993   0.028 -0.3440  0.8670 -0.2644
33976SOL     OW 7764   6.519   4.639   9.991 -0.3212 -0.2382  0.0483
33976SOL    HW1 7765   6.516   4.545   9.974  0.0867 -0.2345 -0.0667
33976SOL    HW2 7766   6.485   4.680   9.912  1.4237 -0.2249 -0.7553
33977SOL     OW 7767   1.845   0.944   1.750 -0.8453  0.2773  0.1539
33977SOL    HW1 7768   1.772   1.005   1.736 -1.4788 -0.3426  0.6726
33977SOL    HW2 7769   1.898   0.952   1.671 -2.4920 -0.6442 -1.1224
33978SOL     OW 7770  11.611   8.643   6.448 -0.5050 -0.3707  0.0506
33978SOL    HW1 7771  11.643   8.723   6.405  0.6061 -1.0661 -0.4870
33978SOL    HW2 7772  11.516   8.645   6.436 -0.3161 -0.0753 -1.6551
33979SOL     OW 7773   4.371   8.095   5.711  0.1656 -0.1344  0.3126
33979SOL    HW1 7774   4.423   8.026   5.752  0.0756 -0.0731  0.5284
33979SOL    HW2 7775   4.374   8.074   5.618  0.9293  0.1083  0.2773
33980SOL     OW 7776   9.467  11.296   3.822  0.2338  0.5886  0.8892
33980SOL    HW1 7777   9.554  11.273   3.854  1.2240  1.9704 -0.6135
33980SOL    HW2 7778   9.455  11.243   3.743  1.5616  3.1913 -1.2654
33981SOL     OW 7779   0.693   9.203  10.871 -0.3826 -0.1669 -0.6095
33981SOL    HW1 7780   0.666   9.139  10.805 -0.5196  0.9527 -1.6767
33981SOL    HW2 7781   0.619   9.264  10.878 -0.0753  0.1435  0.0330
33982SOL     OW 7782   8.368   3.815   8.440  0.0959 -0.2433 -0.3458
33982SOL    HW1 7783   8.431   3.826   8.511  0.6931 -0.1881 -0.8795
33982SOL    HW2 7784   8.317   3.738   8.465  0.6640 -0.5532 -0.1205
33983SOL     OW 7785  11.605   6.701   2.725  0.0360 -0.3720  0.0276
33983SOL    HW1 7786  11.569   6.626   2.773 -0.6785 -0.0819 -0.0443
33983SOL    HW2 7787  11.559   6.777   2.761  0.0466 -0.0741 -0.5730
33984SOL     OW 7788   7.442  11.139   3.614 -0.2125  0.1096  0.1828
33984SOL    HW1 7789   7.419  11.046   3.613  0.3315 -0.0361 -1.1390
33984SOL    HW2 7790   7.499  11.149   3.690 -1.7376 -0.2303  1.4280
33985SOL     OW 7791   7.179   4.332   4.490  0.6322  0.8820  0.4872
33985SOL    HW1 7792   7.254   4.324   4.549  0.9418 -0.5381 -0.0715
33985SOL    HW2 7793   7.189   4.260   4.428 -0.3521  1.6127 -0.5597
33986SOL     OW 7794   0.665   1.526   6.855 -0.3729  0.4220 -0.2926
33986SOL    HW1 7795   0.590   1.528   6.796  0.3863 -1.6599 -1.4670
33986SOL    HW2 7796   0.733   1.574   6.808 -0.4751  0.8928  0.0315
33987SOL     OW 7797   5.413  10.084   5.320 -0.7023 -0.1660 -0.1829
33987SOL    HW1 7798   5.509  10.081   5.321 -0.6633  0.1915 -1.5498
33987SOL    HW2 7799   5.390  10.099   5.228 -2.1761 -3.3007 -0.4694
33988SOL     OW 7800   5.068   8.423   2.274  0.6045 -0.1361 -0.1989
33988SOL    HW1 7801   5.038   8.433   2.364  1.0291  2.0105 -0.2339
33988SOL    HW2 7802   5.130   8.351   2.277 -0.3750 -0.9782  0.9450
33989SOL     OW 7803   4.753   4.539  12.267  0.8088  0.2017  0.5097
33989SOL    HW1 7804   4.728   4.538  12.174 -0.3502 -0.1344  0.8135
33989SOL    HW2 7805   4.672   4.558  12.314  1.7464  2.4996  1.3643
33990SOL     OW 7806  10.359   5.305   2.347 -0.4408  0.4900 -0.1752
33990SOL    HW1 7807  10.311   5.379   2.311 -0.2788 -0.5775 -2.7543
33990SOL    HW2 7808  10.295   5.233   2.348  0.2186 -0.1072 -0.5548
33991SOL     OW 7809   8.310   3.917  12.137 -0.8179  0.4451  0.1503
33991SOL    HW1 7810   8.401   3.948  12.136 -0.2295 -1.0402  1.8641
33991SOL    HW2 7811   8.263   3.983  12.187 -0.2974  0.3669  0.7617
33992SOL     OW 7812  10.635   5.789   5.152 -0.0733 -0.2088 -0.2105
33992SOL    HW1 7813  10.630   5.715   5.091  0.4897  0.3100 -0.9119
33992SOL    HW2 7814  10.693   5.851   5.108 -1.7300  1.3173 -0.3252
33993SOL     OW 7815   6.901  10.072   8.966  0.0582  0.1175 -0.2892
33993SOL    HW1 7816   6.903  10.112   9.053  0.6289 -1.5442  0.4997
33993SOL    HW2 7817   6.829  10.117   8.922 -1.2765 -0.0375  1.5794
33994SOL     OW 7818   9.707   3.717   6.560 -0.4034 -0.1219 -0.2636
33994SOL    HW1 7819   9.643   3.646   6.555  0.3537 -1.1714  2.8273
33994SOL    HW2 7820   9.689   3.760   6.643  2.5022 -0.0996  0.4679
33995SOL     OW 7821   3.510   3.152   3.049  0.2056 -0.2082  0.2704
33995SOL    HW1 7822   3.484   3.241   3.028 -1.4710 -0.6348  0.3848
33995SOL    HW2 7823   3.569   3.161   3.124 -1.6827  0.6910  1.7298
33996SOL     OW 7824   7.477   9.672   5.749 -0.2107 -0.3050 -0.7384
33996SOL    HW1 7825   7.392   9.715   5.750 -0.0478  0.1116  1.5831
33996SOL    HW2 7826   7.514   9.691   5.663 -2.5950 -0.8362 -1.9400
33997SOL     OW 7827   1.839   3.611  11.717  0.2196  0.7298 -0.1356
33997SOL    HW1 7828   1.932   3.631  11.708  0.3552  0.7572  1.0620
33997SOL    HW2 7829   1.794   3.684  11.675  0.7242 -0.1205 -2.2466
33998SOL     OW 7830   4.626  11.027   1.330 -0.2960 -0.2475 -0.0502
33998SOL    HW1 7831   4.665  11.026   1.243 -1.1159 -0.2235 -0.4254
33998SOL    HW2 7832   4.663  10.951   1.375  0.2866 -0.1404 -0.3431
33999SOL     OW 7833   3.422   1.236   9.078 -0.1668 -0.1848  0.2456
33999SOL    HW1 7834   3.429   1.327   9.049 -0.5869  0.0124  0.7313
33999SOL    HW2 7835   3.424   1.185   8.997  1.6269  0.1371  0.0564
34000SOL     OW 7836   8.305   5.822   2.097 -0.4960  0.1729  0.6774
34000SOL    HW1 7837   8.254   5.850   2.174 -1.8685  2.2382 -0.8794
34000SOL    HW2 7838   8.244   5.767   2.047 -0.2623  0.3999  0.1371
34001SOL     OW 7839   1.281   8.890  10.987  0.9092  0.2510  0.4504
34001SOL    HW1 7840   1.308   8.930  11.070 -1.8294  1.9689  0.6434
34001SOL    HW2 7841   1.216   8.951  10.952  0.1272 -1.7117 -1.7082
34002SOL     OW 7842   0.036   8.984   5.926 -0.0432  0.6364  0.3049
34002SOL    HW1 7843   0.046   9.042   5.851  0.6168  0.6543  0.4004
34002SOL    HW2 7844  -0.014   9.035   5.990 -0.9172  0.4951 -0.2473
34003SOL     OW 7845   4.306  10.177   1.981 -0.0765  0.4379  0.7317
34003SOL    HW1 7846   4.379  10.192   2.042 -0.4896  0.2256  1.2913
34003SOL    HW2 7847   4.312  10.084   1.959  0.8058  0.7762 -0.5294
34004SOL     OW 7848   1.591   6.844   1.927  0.0237 -0.1070  0.2136
34004SOL    HW1 7849   1.579   6.929   1.885  2.5203 -0.3018 -1.1178
34004SOL    HW2 7850   1.628   6.864   2.013  1.6874  0.2137 -0.5300
34005SOL     OW 7851   4.017  11.503   2.998  0.5832  0.2991  0.1602
34005SOL    HW1 7852   3.951  11.466   2.940  0.5616 -1.3178  1.1384
34005SOL    HW2 7853   4.100  11.482   2.955  0.5260  1.5739 -0.6372
34006SOL     OW 7854   4.077   1.384  10.923  0.3132  0.3066 -0.3723
34006SOL    HW1 7855   4.025   1.455  10.886  0.2924  0.8304  0.6166
34006SOL    HW2 7856   4.022   1.348  10.993  1.0592  0.5310  0.3513
34007SOL     OW 7857   5.778   4.616   4.352 -0.5334  0.2989 -0.7705
34007SOL    HW1 7858   5.865   4.656   4.353 -2.1172  4.1673 -0.1112
34007SOL    HW2 7859   5.751   4.619   4.260 -0.5174  0.4431 -0.7705
34008SOL     OW 7860   7.735   5.022   7.570  0.0296  0.0626  0.3818
34008SOL    HW1 7861   7.744   4.951   7.507 -1.4908 -0.4302  0.6823
34008SOL    HW2 7862   7.814   5.015   7.624  0.3616 -0.7937 -0.1849
34009SOL     OW 7863   7.185  11.262  11.616 -0.3641 -0.3610 -0.1436
34009SOL    HW1 7864   7.248  11.233  11.681 -0.5718 -0.1189  0.1671
34009SOL    HW2 7865   7.148  11.182  11.580 -0.6497 -0.4873  0.4287
34010SOL     OW 7866  10.513   1.157   2.878 -0.1539  0.2638 -0.0199
34010SOL    HW1 7867  10.461   1.230   2.844 -0.8341  0.0675  0.5664
34010SOL    HW2 7868  10.448   1.094   2.908  0.4314 -0.2384  0.2090
34011SOL     OW 7869   2.064   8.566   5.877  0.0592 -0.4112  0.5153
34011SOL    HW1 7870   1.971   8.551   5.861  0.1268 -0.3563  0.0342
34011SOL    HW2 7871   2.070   8.589   5.969 -0.7353  2.1517 -0.0057
34012SOL     OW 7872   2.383   2.169   2.638  0.2681 -0.3574  0.4689
34012SOL    HW1 7873   2.302   2.125   2.664 -0.1406 -0.5880 -1.0663
34012SOL    HW2 7874   2.385   2.159   2.543  1.0164  1.5050  0.2509
34013SOL     OW 7875   1.947   9.499   0.859 -0.1669  0.1632  0.0902
34013SOL    HW1 7876   1.950   9.441   0.783  0.4949  1.8477 -1.2210
34013SOL    HW2 7877   1.867   9.551   0.846  0.1243  0.6875  0.3498
34014SOL     OW 7878   4.222  10.050   4.411  0.5394 -0.2405 -0.6730
34014SOL    HW1 7879   4.169  10.055   4.490 -0.5817 -0.4515 -1.3930
34014SOL    HW2 7880   4.174   9.991   4.353  3.1530 -3.1725 -0.1576
34015SOL     OW 7881  11.236   4.110  10.330 -0.4719  0.7360  0.0399
34015SOL    HW1 7882  11.149   4.086  10.360 -0.2407  0.9644  0.9105
34015SOL    HW2 7883  11.270   4.031  10.289 -1.1653  0.7089 -0.5110
34016SOL     OW 7884   0.325  11.452  11.402  0.0301  0.6578 -0.1257
34016SOL    HW1 7885   0.397  11.388  11.408 -1.3182 -0.8893  0.2714
34016SOL    HW2 7886   0.308  11.459  11.308 -1.0784 -1.1089 -0.0986
34017SOL     OW 7887  10.612   1.509   3.606  0.1629 -0.0420 -0.3339
34017SOL    HW1 7888  10.621   1.523   3.512  1.8247  1.0849 -0.0550
34017SOL    HW2 7889  10.561   1.428   3.614  1.8777 -1.3896 -2.2064
34018SOL     OW 7890   6.093   7.026   0.600 -0.0671  0.5881 -0.4551
34018SOL    HW1 7891   6.151   7.033   0.525  0.2700  1.0613 -0.1532
34018SOL    HW2 7892   6.041   6.947   0.583  0.5070  0.2879 -0.8313
34019SOL     OW 7893  11.986  11.895   3.763 -0.2470 -0.0894 -0.2281
34019SOL    HW1 7894  12.023  11.861   3.682  0.2913 -0.7430  0.2776
34019SOL    HW2 7895  11.930  11.824   3.796  0.9659 -0.5760  0.8900
34020SOL     OW 7896   1.102   2.216   8.456  0.6313 -0.4250  0.6027
34020SOL    HW1 7897   1.051   2.283   8.411  0.2490 -1.6442 -0.8445
34020SOL    HW2 7898   1.174   2.265   8.496 -1.0494  1.1912  1.8467
34021SOL     OW 7899   5.576   8.573  12.320 -0.1414 -0.4397  0.5605
34021SOL    HW1 7900   5.655   8.543  12.364 -0.5255 -1.2117  0.7427
34021SOL    HW2 7901   5.577   8.527  12.236 -0.7304 -0.9643  0.8362
34022SOL     OW 7902   2.477   3.737   0.502  0.1635 -0.2388 -0.4385
34022SOL    HW1 7903   2.415   3.759   0.571  0.0480  0.7741 -0.8589
34022SOL    HW2 7904   2.561   3.727   0.547 -0.3150 -1.8840  0.1766
34023SOL     OW 7905   8.774   9.479   2.217  0.4087  0.0679  0.0735
34023SOL    HW1 7906   8.787   9.507   2.126  0.1130 -0.8932 -0.2744
34023SOL    HW2 7907   8.789   9.558   2.268  0.8237  0.5687 -0.7923
34024SOL     OW 7908  11.384   2.233   7.211 -0.3097  0.0176 -0.3362
34024SOL    HW1 7909  11.448   2.276   7.155 -1.0142  1.1763 -0.2764
34024SOL    HW2 7910  11.394   2.276   7.296 -0.1841 -0.7892  0.0638
34025SOL     OW 7911   7.927  10.261   4.443 -0.1723 -0.1718 -0.1502
34025SOL    HW1 7912   7.980  10.296   4.515 -1.2085  1.6743 -0.2431
34025SOL    HW2 7913   7.866  10.201   4.486  2.0216 -2.5610 -0.0661
34026SOL     OW 7914   4.379   2.318  11.289 -1.0965  0.0767 -0.1000
34026SOL    HW1 7915   4.346   2.262  11.219  0.0903  0.3884 -0.9328
34026SOL    HW2 7916   4.410   2.397  11.245 -1.9626  1.0595  0.9718
34027SOL     OW 7917   4.392   3.862   3.513 -0.1313  0.2133 -0.2520
34027SOL    HW1 7918   4.365   3.823   3.429 -0.8823 -0.4902  0.2989
34027SOL    HW2 7919   4.314   3.856   3.568  0.2879  0.8766  0.4309
34028SOL     OW 7920   7.145   3.429   1.368 -0.3805  0.8723  0.4071
34028SOL    HW1 7921   7.236   3.402   1.377 -0.8057 -0.6376  0.3482
34028SOL    HW2 7922   7.098   3.378   1.434 -1.3793  0.6476 -0.4579
34029SOL     OW 7923   3.668   7.584   5.297  0.0691 -0.0726 -0.3931
34029SOL    HW1 7924   3.643   7.668   5.260 -2.0534 -1.0938 -1.4112
34029SOL    HW2 7925   3.764   7.581   5.287  0.0443  1.6450 -1.5036
34030SOL     OW 7926   5.400   4.812   4.577 -0.8100 -0.3034 -0.0857
34030SOL    HW1 7927   5.463   4.798   4.506 -0.5391 -1.4131  0.3527
34030SOL    HW2 7928   5.342   4.881   4.544 -1.7922 -1.9786 -2.1699
34031SOL     OW 7929   5.525   8.724   3.837 -0.4217  0.2548  0.0459
34031SOL    HW1 7930   5.582   8.764   3.903 -0.0314  0.0983 -0.1933
34031SOL    HW2 7931   5.511   8.634   3.868  0.6023 -0.1397 -0.6033
34032SOL     OW 7932   3.072   6.387   2.027 -0.1195 -0.1267  0.3992
34032SOL    HW1 7933   3.136   6.355   2.090  1.2108  0.8475 -0.3954
34032SOL    HW2 7934   3.016   6.312   2.008 -0.4630 -0.4653  2.5938
34033SOL     OW 7935   1.582   5.290   5.035 -0.1907  0.5688  0.3342
34033SOL    HW1 7936   1.647   5.231   5.073  0.0569  1.2227  0.9457
34033SOL    HW2 7937   1.634   5.354   4.986 -0.4897 -0.0888 -0.8967
34034SOL     OW 7938  10.313   7.589  12.124  0.2912  1.0577  0.2439
34034SOL    HW1 7939  10.281   7.572  12.212  1.3095 -1.0623  0.2734
34034SOL    HW2 7940  10.236   7.580  12.068 -0.1704  1.4249  0.8109
34035SOL     OW 7941   0.916   2.285   4.203  0.9772 -0.1732  0.2757
34035SOL    HW1 7942   0.867   2.363   4.177  0.8538  0.5463  2.4323
34035SOL    HW2 7943   0.865   2.212   4.169  0.8425  0.6429 -1.3711
34036SOL     OW 7944   7.120   2.379   7.159  0.1731 -0.3888  0.1332
34036SOL    HW1 7945   7.043   2.323   7.171 -1.1164  1.0040 -1.2040
34036SOL    HW2 7946   7.114   2.443   7.230  0.7063 -0.8858  0.6431
34037SOL     OW 7947  10.815   8.815  11.385  0.5930 -0.3061  0.0056
34037SOL    HW1 7948  10.785   8.830  11.295 -0.0910 -0.5699  0.1879
34037SOL    HW2 7949  10.886   8.878  11.396  0.6372 -0.2175 -0.6965
34038SOL     OW 7950   7.642   1.328   4.542  0.1810 -0.3115 -0.1145
34038SOL    HW1 7951   7.604   1.392   4.602  0.7929  1.0679 -1.1644
34038SOL    HW2 7952   7.700   1.275   4.597 -0.2443  0.0986  0.7472
34039SOL     OW 7953  10.248   2.408   7.449  0.2741 -0.1639  0.5841
34039SOL    HW1 7954  10.172   2.398   7.507 -0.7735  1.2716 -0.4913
34039SOL    HW2 7955  10.284   2.493   7.471  1.0438 -0.4546  0.4646
34040SOL     OW 7956   4.839  10.032   4.468 -0.0259 -0.2984 -0.6756
34040SOL    HW1 7957   4.748  10.050   4.492 -0.3685 -0.4837 -1.8008
34040SOL    HW2 7958   4.886  10.032   4.552 -1.4592 -2.6780  0.2410
34041SOL     OW 7959   7.165  10.839   6.250 -0.3059  0.0035 -0.1177
34041SOL    HW1 7960   7.079  10.865   6.281 -0.2102 -1.6099  1.7203
34041SOL    HW2 7961   7.188  10.763   6.304  1.7141 -0.4091 -1.4348
34042SOL     OW 7962   9.981  10.234   9.512  0.4451 -0.4703  0.0569
34042SOL    HW1 7963   9.997  10.142   9.534 -0.1563 -1.0744 -1.7645
34042SOL    HW2 7964   9.887  10.245   9.525  0.5339 -0.0916  0.3656
34043SOL     OW 7965   9.261   3.566   0.469  0.5166  0.0693  0.6456
34043SOL    HW1 7966   9.196   3.499   0.490  0.6715 -0.3011 -0.0291
34043SOL    HW2 7967   9.342   3.533   0.510  0.8037 -0.6221 -0.4201
34044SOL     OW 7968  10.773   1.735   1.360 -0.2382 -0.2412 -0.1807
34044SOL    HW1 7969  10.754   1.693   1.276  2.0438 -0.6433 -0.5828
34044SOL    HW2 7970  10.695   1.720   1.413 -1.1425 -1.3041 -1.7316
34045SOL     OW 7971   3.242   6.148   7.164  0.5823 -0.0217 -0.3470
34045SOL    HW1 7972   3.262   6.117   7.076 -1.5500 -1.2660 -0.4384
34045SOL    HW2 7973   3.183   6.222   7.151 -0.0907 -0.4862  0.0516
34046SOL     OW 7974  11.594   2.070   9.248 -0.0326 -0.1247  0.2631
34046SOL    HW1 7975  11.564   1.983   9.221 -0.9166 -0.3504  1.8227
34046SOL    HW2 7976  11.665   2.052   9.310 -0.1862  0.2486  0.5521
34047SOL     OW 7977   0.933   8.230   5.174 -0.6585  0.4875  0.0748
34047SOL    HW1 7978   0.893   8.308   5.136  1.1978  1.2559 -0.3996
34047SOL    HW2 7979   0.970   8.183   5.099  0.4446  0.4727  0.6159
34048SOL     OW 7980   3.173   3.827   2.353 -0.3001  0.4025 -0.4697
34048SOL    HW1 7981   3.099   3.801   2.299 -1.2493  1.6684  0.1848
34048SOL    HW2 7982   3.144   3.815   2.443  0.4560  0.4787 -0.2046
34049SOL     OW 7983   0.359   5.244   0.352  0.4937 -0.2781  0.0642
34049SOL    HW1 7984   0.270   5.208   0.343 -0.2721  1.8079 -1.5606
34049SOL    HW2 7985   0.353   5.302   0.429  0.3271  0.1372 -0.2569
34050SOL     OW 7986  11.449   5.769   6.196  0.2118  0.4063  0.5240
34050SOL    HW1 7987  11.472   5.741   6.107  1.2018 -1.2615  1.2601
34050SOL    HW2 7988  11.516   5.729   6.252 -1.4298 -0.1024  2.2217
34051SOL     OW 7989   6.666  11.042   4.665 -0.1037 -0.6351  0.4567
34051SOL    HW1 7990   6.761  11.034   4.680  0.2865 -4.8623 -2.4275
34051SOL    HW2 7991   6.659  11.069   4.574 -1.7300  0.1464  0.7930
34052SOL     OW 7992   5.115   4.956   0.699 -0.1888 -0.3421  0.1368
34052SOL    HW1 7993   5.022   4.936   0.714  0.1578 -1.2800  1.1789
34052SOL    HW2 7994   5.134   5.028   0.759  0.0097 -0.8475  0.6830
34053SOL     OW 7995  10.060   0.839   2.630  0.0521 -0.1061 -0.6425
34053SOL    HW1 7996   9.968   0.867   2.635 -0.4618 -1.7674 -0.0564
34053SOL    HW2 7997  10.057   0.744   2.647  1.8904 -0.1721 -0.4990
34054SOL     OW 7998   3.587   2.115   9.923  0.1805  0.2435  0.2190
34054SOL    HW1 7999   3.503   2.089   9.886  0.0014 -0.0066  0.7972
34054SOL    HW2 8000   3.595   2.208   9.903 -0.4879  0.3944  0.6595
34055SOL     OW 8001   6.120   0.632   6.917  0.3456 -0.1251  0.0296
34055SOL    HW1 8002   6.063   0.657   6.845  1.9746  0.1520 -1.2084
34055SOL    HW2 8003   6.176   0.563   6.881  0.5131 -0.7095  1.3435
34056SOL     OW 8004   8.167   4.604   5.186 -0.4492  0.0407  0.0278
34056SOL    HW1 8005   8.093   4.612   5.246 -0.9122  0.2245 -0.5443
34056SOL    HW2 8006   8.238   4.568   5.238 -0.5833  0.9785  0.8759
34057SOL     OW 8007   5.873   1.094   0.940  0.0735 -0.4408  0.2624
34057SOL    HW1 8008   5.947   1.068   0.995  0.4835  0.5867  0.2199
34057SOL    HW2 8009   5.894   1.184   0.913 -1.5232  0.1501  0.8612
34058SOL     OW 8010   7.918  11.767   5.737  0.3124 -0.0565  0.4459
34058SOL    HW1 8011   7.956  11.706   5.674 -1.2169 -0.9028  0.2739
34058SOL    HW2 8012   7.952  11.739   5.821  1.0458  0.0056  0.1725
34059SOL     OW 8013   9.311   8.042   2.538  0.2594  0.0649  0.2966
34059SOL    HW1 8014   9.373   7.970   2.528  0.4925  0.3423 -0.3455
34059SOL    HW2 8015   9.329   8.099   2.464 -2.7445 -1.3141 -1.7046
34060SOL     OW 8016   7.231  10.239   9.065 -0.7864 -0.0641  0.3415
34060SOL    HW1 8017   7.311  10.204   9.025 -0.7165 -2.3493  2.2500
34060SOL    HW2 8018   7.168  10.242   8.993  0.5573  0.3386 -0.8778
34061SOL     OW 8019   4.493   1.093   5.325  0.4267  0.0439 -0.0743
34061SOL    HW1 8020   4.465   1.027   5.389  1.7660 -1.0275 -0.5175
34061SOL    HW2 8021   4.439   1.076   5.248  0.4564 -0.2568 -0.0321
34062SOL     OW 8022  11.902   1.072   3.431 -0.2033  0.3996 -0.6856
34062SOL    HW1 8023  11.923   1.004   3.368 -0.2364 -0.0341 -0.2367
34062SOL    HW2 8024  11.871   1.145   3.378  1.3530  0.6595 -1.2872
34063SOL     OW 8025  11.084   0.292  11.123 -0.1611  0.2877 -0.2382
34063SOL    HW1 8026  11.122   0.205  11.111 -1.7600 -0.4267 -0.2510
34063SOL    HW2 8027  11.073   0.300  11.218 -1.5671 -0.2193 -0.3467
34064SOL     OW 8028   1.806   8.526   5.749 -0.0449  0.0366  0.2556
34064SOL    HW1 8029   1.833   8.436   5.768  0.6606 -0.1076 -1.2783
34064SOL    HW2 8030   1.852   8.548   5.668 -1.9397  1.0097 -0.6078
34065SOL     OW 8031   5.315   4.624  10.136  0.5239 -0.2171 -0.2615
34065SOL    HW1 8032   5.300   4.610  10.042  1.8463 -1.0146 -0.3817
34065SOL    HW2 8033   5.371   4.702  10.140  1.0305 -0.5750 -0.1969
34066SOL     OW 8034   4.378   5.539   2.188  0.0691  0.1009 -0.2732
34066SOL    HW1 8035   4.461   5.581   2.165  0.5456 -0.0473  1.0932
34066SOL    HW2 8036   4.376   5.459   2.136  0.7645  0.1276 -0.3521
34067SOL     OW 8037   5.749   9.444  11.516 -0.1014  0.1711 -0.1305
34067SOL    HW1 8038   5.769   9.419  11.606 -1.8990  1.3735  0.6812
34067SOL    HW2 8039   5.815   9.510  11.494  1.0955 -1.0078 -0.1740
34068SOL     OW 8040   6.710   3.614   9.815  0.0185  0.5645  0.1889
34068SOL    HW1 8041   6.790   3.584   9.772  0.2242 -0.1010  0.9975
34068SOL    HW2 8042   6.649   3.633   9.743  1.1737  1.9188 -0.4618
34069SOL     OW 8043   4.084   3.025   5.273 -0.4687 -0.1911  0.1174
34069SOL    HW1 8044   4.119   2.939   5.249 -1.6254 -0.9037  0.8614
34069SOL    HW2 8045   3.998   3.029   5.230 -1.2467 -0.2268  1.5805
34070SOL     OW 8046   5.698  11.075   9.572 -0.4351 -0.1544  0.3739
34070SOL    HW1 8047   5.761  11.121   9.628  0.8234 -0.5766 -0.6334
34070SOL    HW2 8048   5.750  11.008   9.528 -1.8198 -1.2205  0.2845
34071SOL     OW 8049   6.087   2.271   5.326 -0.1844 -0.4096  0.8171
34071SOL    HW1 8050   6.049   2.241   5.409 -3.1917  3.1940  1.0180
34071SOL    HW2 8051   6.030   2.343   5.298  0.3066 -1.6829 -4.7303
34072SOL     OW 8052   7.786   4.363   6.221 -0.4232 -0.0056  0.4118
34072SOL    HW1 8053   7.858   4.300   6.231 -0.6681 -0.0006  2.5983
34072SOL    HW2 8054   7.827   4.448   6.229 -0.0179  0.2619 -3.0127
34073SOL     OW 8055   5.284   8.654   4.171 -1.1609  0.2783  0.2336
34073SOL    HW1 8056   5.271   8.650   4.076  0.0115 -2.0887  0.1092
34073SOL    HW2 8057   5.203   8.693   4.204 -2.1931 -0.1424 -1.6325
34074SOL     OW 8058   4.189   6.456   0.802  0.1232  0.2331  0.4279
34074SOL    HW1 8059   4.195   6.361   0.814 -0.1261  0.1562 -0.0139
34074SOL    HW2 8060   4.248   6.493   0.868  3.5366 -0.3592 -1.9917
34075SOL     OW 8061   0.228   9.741   3.809  0.0735  0.3365  0.2626
34075SOL    HW1 8062   0.302   9.736   3.750 -0.2210 -0.9425 -0.0476
34075SOL    HW2 8063   0.153   9.712   3.756 -0.5632  1.1833  0.6853
34076SOL     OW 8064   4.405   0.941   7.955 -1.1492 -0.1282 -0.0105
34076SOL    HW1 8065   4.341   0.961   7.888  2.1368 -1.9426 -4.1228
34076SOL    HW2 8066   4.475   1.005   7.940  0.2243 -1.3859  0.8297
34077SOL     OW 8067   9.967   6.643   0.997 -0.0955  0.1328  0.3473
34077SOL    HW1 8068  10.019   6.721   0.982  0.0196  0.2319  1.2094
34077SOL    HW2 8069   9.877   6.676   1.007  0.0319  0.2366  1.2915
34078SOL     OW 8070   8.823   3.018   6.372  0.3635  0.1331  0.6692
34078SOL    HW1 8071   8.763   2.948   6.397 -0.0377 -0.2078 -1.0989
34078SOL    HW2 8072   8.865   2.985   6.292 -1.5267  2.7979 -1.6055
34079SOL     OW 8073   9.474   9.698   7.800  0.2793 -0.3068  0.4189
34079SOL    HW1 8074   9.534   9.739   7.738  0.2599 -0.4203  0.3256
34079SOL    HW2 8075   9.393   9.686   7.751 -0.1875  0.8474  0.8528
34080SOL     OW 8076   0.129   0.755   8.387  0.1140  0.5256 -0.6163
34080SOL    HW1 8077   0.058   0.818   8.400 -0.6954 -0.1206 -1.6596
34080SOL    HW2 8078   0.124   0.697   8.463  0.9257  1.7331  0.3976
34081SOL     OW 8079   7.126   3.407   6.974 -0.3273  0.2499 -0.3065
34081SOL    HW1 8080   7.190   3.342   7.001 -0.7060 -0.2793 -0.6601
34081SOL    HW2 8081   7.168   3.453   6.902  0.2958  1.0099  0.5181
34082SOL     OW 8082  11.208   0.468   4.797 -0.0922 -0.0202 -0.2648
34082SOL    HW1 8083  11.122   0.505   4.776 -0.1456  0.1387  0.2104
34082SOL    HW2 8084  11.264   0.544   4.811 -0.5534 -0.0288  2.1656
34083SOL     OW 8085   5.867   8.812   0.984  0.1911  0.1414  0.3414
34083SOL    HW1 8086   5.885   8.836   0.893 -0.4330  0.1201  0.2110
34083SOL    HW2 8087   5.892   8.719   0.990 -0.2579 -0.0021  0.0505
34084SOL     OW 8088  10.317  11.232   2.131  0.2816  0.0096 -0.3112
34084SOL    HW1 8089  10.394  11.197   2.175 -0.9507 -2.0871  0.2882
34084SOL    HW2 8090  10.353  11.291   2.065  2.3350  0.0341  0.7356
34085SOL     OW 8091   8.175   2.512  12.105 -0.0318  0.3511 -0.0159
34085SOL    HW1 8092   8.235   2.531  12.177 -0.3258 -1.3770  0.7500
34085SOL    HW2 8093   8.088   2.527  12.143 -0.1365  1.4872 -0.6854
34086SOL     OW 8094   9.488   0.948   3.014 -0.0245  0.4437 -0.2229
34086SOL    HW1 8095   9.553   0.994   2.962 -0.0601 -0.0700 -0.7222
34086SOL    HW2 8096   9.405   0.993   2.995  0.1073  0.8356  0.1019
34087SOL     OW 8097  10.452   4.035   4.670  0.4224  0.0096 -0.8347
34087SOL    HW1 8098  10.507   4.040   4.591  2.6389  0.6858  0.6455
34087SOL    HW2 8099  10.476   3.951   4.710  0.3368  0.2864 -0.1875
34088SOL     OW 8100   1.554   2.789   6.313  0.0836 -0.0777  0.3914
34088SOL    HW1 8101   1.584   2.698   6.321 -1.0979 -0.6334 -0.8496
34088SOL    HW2 8102   1.597   2.822   6.234 -0.0062  0.2069  0.4603
34089SOL     OW 8103   5.386  10.868   9.273 -0.3323 -0.0256  0.3380
34089SOL    HW1 8104   5.351  10.780   9.283 -1.4332  0.4383  0.7637
34089SOL    HW2 8105   5.309  10.923   9.261  0.4044  0.7183 -1.2641
34090SOL     OW 8106   9.830  11.080   7.466 -0.5015  0.5265 -0.4614
34090SOL    HW1 8107   9.757  11.120   7.513 -0.5992 -0.0746 -0.0886
34090SOL    HW2 8108   9.788  11.027   7.398 -0.4737 -0.6271  0.3887
34091SOL     OW 8109   6.459  12.033  11.282 -0.6185 -0.0542  0.0283
34091SOL    HW1 8110   6.433  12.085  11.206  0.4765  0.0226 -0.3014
34091SOL    HW2 8111   6.533  11.980  11.252 -1.5631 -1.6655  0.4273
34092SOL     OW 8112   5.991   6.367   1.617 -0.3872  0.2552 -0.7927
34092SOL    HW1 8113   5.910   6.333   1.656  0.1340  0.3299  0.3824
34092SOL    HW2 8114   6.059   6.306   1.645  0.1919  1.0031 -0.5445
34093SOL     OW 8115   8.493   3.325   1.491 -0.1239 -0.3653 -0.1281
34093SOL    HW1 8116   8.438   3.377   1.434 -0.3328  0.8458  1.1173
34093SOL    HW2 8117   8.456   3.337   1.579  3.0083  1.9448  1.0867
34094SOL     OW 8118   0.528   9.306   9.226 -0.2006 -0.1965 -0.9874
34094SOL    HW1 8119   0.594   9.369   9.253  1.0003 -1.3239 -1.1599
34094SOL    HW2 8120   0.462   9.308   9.296  1.3174 -0.8767  0.5188
34095SOL     OW 8121  12.250   6.983  11.995 -0.2751  0.2047  0.4090
34095SOL    HW1 8122  12.341   6.986  12.024 -0.1159  0.9005 -0.1296
34095SOL    HW2 8123  12.202   6.949  12.070  0.4311 -0.1977  0.6867
34096SOL     OW 8124   4.856   1.430  11.412 -0.1874 -0.1942 -0.3005
34096SOL    HW1 8125   4.791   1.404  11.478 -1.0377 -0.0146 -1.0549
34096SOL    HW2 8126   4.818   1.404  11.329 -0.5369  2.3297 -1.0130
34097SOL     OW 8127   8.067   9.811   2.770  0.1551 -0.3806 -0.8188
34097SOL    HW1 8128   8.020   9.834   2.850  0.0484 -0.4932 -0.8482
34097SOL    HW2 8129   8.159   9.823   2.791  0.0432  1.7532 -1.3483
34098SOL     OW 8130   9.902  10.304   7.036  0.2051 -0.2165  0.3122
34098SOL    HW1 8131   9.977  10.322   6.978 -0.3937 -0.9287 -0.7261
34098SOL    HW2 8132   9.826  10.313   6.979 -0.4720 -0.0914  1.2190
34099SOL     OW 8133   8.136   9.195   8.724 -0.9273 -0.0582  0.0387
34099SOL    HW1 8134   8.183   9.188   8.641  2.1714  3.6260  1.1733
34099SOL    HW2 8135   8.056   9.243   8.703 -0.6368  0.0111 -0.9516
34100SOL     OW 8136   6.331   6.962   1.636  0.3146 -0.2436  0.3667
34100SOL    HW1 8137   6.261   6.898   1.624 -1.2094  1.2902  0.6308
34100SOL    HW2 8138   6.293   7.045   1.607  1.6797  0.8214  1.4521
34101SOL     OW 8139   6.019   4.631   6.118  0.0724 -0.1926 -0.1509
34101SOL    HW1 8140   6.071   4.711   6.111 -0.4889  0.0949 -1.1903
34101SOL    HW2 8141   6.025   4.590   6.032 -2.7595  0.6973 -0.8662
34102SOL     OW 8142   1.077   7.088   6.186 -0.4845 -0.2753 -0.3057
34102SOL    HW1 8143   1.043   7.129   6.106 -0.5802  0.9160  0.3224
34102SOL    HW2 8144   1.007   7.099   6.250 -0.9591 -2.4242 -0.3954
34103SOL     OW 8145  10.092   7.809   2.823  0.0518  0.1655 -0.2797
34103SOL    HW1 8146  10.163   7.873   2.837 -2.4465  2.7508  1.9788
34103SOL    HW2 8147  10.045   7.842   2.746  0.3634 -0.6141 -0.8098
34104SOL     OW 8148   0.636   2.249  10.330 -0.9380 -0.0069  0.2559
34104SOL    HW1 8149   0.690   2.261  10.408 -1.3590 -2.3989  0.9714
34104SOL    HW2 8150   0.697   2.264  10.257  0.4284 -1.4251  1.0393
34105SOL     OW 8151   1.314   8.413   8.065 -0.4226  0.3967  0.3812
34105SOL    HW1 8152   1.302   8.324   8.100 -0.3769  0.0484 -0.4533
34105SOL    HW2 8153   1.350   8.463   8.138  2.2228 -0.9533  0.1233
34106SOL     OW 8154   1.682   2.708   8.107 -0.3592 -0.3700 -0.2599
34106SOL    HW1 8155   1.711   2.735   8.020  2.5323  1.2237  1.0628
34106SOL    HW2 8156   1.693   2.786   8.161 -0.1918 -1.8293  1.9451
34107SOL     OW 8157   8.186   5.602  12.008  0.2881  0.3864  0.1608
34107SOL    HW1 8158   8.114   5.540  12.021  0.1132 -0.0756 -2.4028
34107SOL    HW2 8159   8.154   5.684  12.045 -0.6277 -0.3513  1.0781
34108SOL     OW 8160  10.610   0.441   1.060 -0.5462  0.0356  0.0222
34108SOL    HW1 8161  10.664   0.505   1.014 -1.5771  0.1724 -1.0559
34108SOL    HW2 8162  10.523   0.450   1.020 -1.6449  0.5006  2.3392
34109SOL     OW 8163   0.279  11.695  10.954  0.9725  0.3515  0.0646
34109SOL    HW1 8164   0.218  11.643  11.006 -0.1644 -0.5337 -2.0401
34109SOL    HW2 8165   0.239  11.782  10.951  1.1650  0.4714  0.8420
34110SOL     OW 8166   8.012   9.346   4.945 -0.7942  0.0285  0.1322
34110SOL    HW1 8167   7.964   9.268   4.916  0.1439 -0.3842 -0.3443
34110SOL    HW2 8168   7.974   9.418   4.893 -1.0329 -0.2605 -0.0964
34111SOL     OW 8169   5.658   9.682   5.870  0.3344 -0.0364  0.3606
34111SOL    HW1 8170   5.633   9.664   5.780  1.9007  0.0560 -0.1160
34111SOL    HW2 8171   5.619   9.767   5.890  1.2091  0.6353 -0.7349
34112SOL     OW 8172   0.716   4.665  11.752  0.7385  0.3813  0.3452
34112SOL    HW1 8173   0.808   4.639  11.756  0.7563  0.2946 -0.4678
34112SOL    HW2 8174   0.716   4.746  11.700  0.1417 -0.7897 -1.5873
34113SOL     OW 8175   6.790   9.373   5.704 -0.3085 -0.4167 -0.4824
34113SOL    HW1 8176   6.774   9.343   5.793 -2.0543 -0.4837 -0.7983
34113SOL    HW2 8177   6.784   9.468   5.709  1.2110 -0.3079 -0.2496
34114SOL     OW 8178   6.917  11.471   0.041 -0.0563  0.5512 -0.2958
34114SOL    HW1 8179   6.992  11.530   0.027 -0.7888  1.8896  1.2180
34114SOL    HW2 8180   6.850  11.504  -0.019 -0.2968  0.9705  0.1962
34115SOL     OW 8181   7.729   2.908   4.093 -0.3457  0.3693 -0.1887
34115SOL    HW1 8182   7.715   2.979   4.156 -1.1523  2.3406 -2.4509
34115SOL    HW2 8183   7.642   2.870   4.079 -1.0005  2.5624 -2.9112
34116SOL     OW 8184   5.083   4.273   4.220  0.2762 -0.2727 -0.3731
34116SOL    HW1 8185   5.106   4.228   4.139  0.7746  0.3177 -0.5725
34116SOL    HW2 8186   5.167   4.299   4.258  0.0797 -1.0293  0.6320
34117SOL     OW 8187   2.038   8.702  10.448  0.1374  0.0192 -0.3721
34117SOL    HW1 8188   2.107   8.757  10.486 -0.4457 -0.1798  1.0720
34117SOL    HW2 8189   2.080   8.617  10.433  0.7709  0.5329 -1.6283
34118SOL     OW 8190   2.160  10.150   5.445  0.7132 -0.4702  0.0243
34118SOL    HW1 8191   2.241  10.175   5.400  0.0862 -3.0118 -2.8801
34118SOL    HW2 8192   2.180  10.065   5.484 -0.0200 -0.2207  0.9697
34119SOL     OW 8193   2.744   9.116   8.920 -0.2560 -0.2133 -0.0437
34119SOL    HW1 8194   2.777   9.095   9.007 -0.8177 -1.0636 -0.0301
34119SOL    HW2 8195   2.822   9.114   8.864 -0.2147 -1.9534  0.0295
34120SOL     OW 8196   6.831   4.019   4.308  0.1382 -0.5870 -0.0699
34120SOL    HW1 8197   6.893   4.033   4.236 -1.2919  2.5461 -0.8726
34120SOL    HW2 8198   6.882   3.974   4.375  2.7254  0.0837 -1.4440
34121SOL     OW 8199   4.071   8.475  11.844  0.2997  0.7632  0.5978
34121SOL    HW1 8200   3.993   8.496  11.896 -0.7466  0.1210 -0.6570
34121SOL    HW2 8201   4.069   8.537  11.771  1.4140  1.2466  0.9465
34122SOL     OW 8202   8.970  11.962   7.954  0.2563  0.4036  0.1775
34122SOL    HW1 8203   8.989  11.929   7.866  0.3687  1.8752 -0.3724
34122SOL    HW2 8204   9.023  11.907   8.012  1.2562  0.3010 -0.7945
34123SOL     OW 8205   8.753  10.689   6.354 -0.0380  0.1690  0.7580
34123SOL    HW1 8206   8.782  10.698   6.444 -1.4482  0.3107  1.2242
34123SOL    HW2 8207   8.682  10.753   6.345  0.1904  0.2747 -0.4988
34124SOL     OW 8208   8.335   0.946  10.056 -0.2366 -0.1950 -0.0281
34124SOL    HW1 8209   8.296   0.981  10.137  0.2843 -1.1960  0.6790
34124SOL    HW2 8210   8.429   0.948  10.072  0.0079  1.5656 -1.4637
34125SOL     OW 8211   4.898   1.863   2.439  0.0956 -0.0369 -0.2140
34125SOL    HW1 8212   4.914   1.800   2.369  2.6385 -1.0548  1.1628
34125SOL    HW2 8213   4.932   1.946   2.405  1.8235 -0.6429 -0.0293
34126SOL     OW 8214   0.094   0.191   2.479 -0.3484  0.1059  0.0644
34126SOL    HW1 8215   0.149   0.135   2.534  2.4389 -0.1254 -2.6886
34126SOL    HW2 8216   0.031   0.131   2.440  0.5907 -0.5913 -0.4319
34127SOL     OW 8217   5.357   6.584  11.813  0.1505  0.4820  0.4464
34127SOL    HW1 8218   5.342   6.510  11.754  0.1254 -1.2666  2.5496
34127SOL    HW2 8219   5.350   6.661  11.756  0.8662 -1.1132 -1.9641
34128SOL     OW 8220   5.441   4.966   1.911  0.6245 -0.0084 -0.5292
34128SOL    HW1 8221   5.454   5.049   1.865 -0.3828  0.1007 -0.6388
34128SOL    HW2 8222   5.527   4.944   1.946  1.3367  0.1243 -2.1006
34129SOL     OW 8223   1.083   1.872  10.001 -0.1548 -0.3084  0.4786
34129SOL    HW1 8224   1.134   1.853  10.080 -1.2456 -1.3840  0.9581
34129SOL    HW2 8225   0.992   1.856  10.027 -0.6270  0.3426 -0.7074
34130SOL     OW 8226   7.462   8.360   9.923 -0.0619 -0.1900  0.1454
34130SOL    HW1 8227   7.376   8.320   9.930 -0.5496  1.0569  1.9415
34130SOL    HW2 8228   7.522   8.299   9.966 -0.2923 -0.3775  0.1999
34131SOL     OW 8229   8.220   2.306   7.801 -0.0135 -0.3676 -0.2158
34131SOL    HW1 8230   8.170   2.235   7.761 -1.2595  0.2845  0.1290
34131SOL    HW2 8231   8.177   2.386   7.770  0.1067  0.1845  0.9933
34132SOL     OW 8232  10.600   8.751  11.011 -0.1188 -0.1480  0.1060
34132SOL    HW1 8233  10.610   8.694  11.087 -0.2833  0.8328  0.8855
34132SOL    HW2 8234  10.665   8.820  11.023 -1.5103  1.1686  0.4703
34133SOL     OW 8235   5.724   5.476  10.189 -0.2036  0.1213 -0.6702
34133SOL    HW1 8236   5.733   5.478  10.285  0.3169 -0.4777 -0.6967
34133SOL    HW2 8237   5.777   5.549  10.159 -0.2731  0.2414 -0.5037
34134SOL     OW 8238   6.609  12.160   7.860  0.0063 -0.5391 -0.2569
34134SOL    HW1 8239   6.527  12.114   7.844  0.5198 -0.8470 -2.2590
34134SOL    HW2 8240   6.589  12.220   7.933 -1.9626 -0.6282 -0.6657
34135SOL     OW 8241   9.669   7.923   7.456 -0.1265  0.0188 -0.3089
34135SOL    HW1 8242   9.656   7.858   7.387  2.0564 -0.7695 -0.0535
34135SOL    HW2 8243   9.625   8.002   7.423 -2.3979 -1.3885 -0.8427
34136SOL     OW 8244  11.783   8.297   2.376 -0.3840  0.3345  0.2271
34136SOL    HW1 8245  11.765   8.223   2.434  0.1065  0.1126  0.0965
34136SOL    HW2 8246  11.865   8.333   2.409  0.7652 -0.7698 -1.3008
34137SOL     OW 8247   0.797   9.986   1.175  0.2112  0.2512  0.4360
34137SOL    HW1 8248   0.846   9.913   1.213  1.1606 -0.3349 -1.7519
34137SOL    HW2 8249   0.849  10.064   1.197  0.6398 -0.0523  0.5104
34138SOL     OW 8250   6.559   1.015  11.606  0.2282  0.1912 -0.2023
34138SOL    HW1 8251   6.579   0.946  11.542 -1.3869 -0.4068 -0.1244
34138SOL    HW2 8252   6.629   1.079  11.596  0.6705 -0.4852 -1.7089
34139SOL     OW 8253   3.111  10.927  12.067 -0.3168 -0.0788 -0.8918
34139SOL    HW1 8254   3.042  10.864  12.085  0.1866 -0.5861 -0.6995
34139SOL    HW2 8255   3.072  11.012  12.085  0.1760 -0.4803  3.0045
34140SOL     OW 8256   1.865   3.190  10.163 -0.3388  0.0143 -0.0805
34140SOL    HW1 8257   1.885   3.271  10.210 -0.6196  0.1395 -0.1813
34140SOL    HW2 8258   1.909   3.122  10.214 -0.0606  0.2321 -0.0225
34141SOL     OW 8259   8.112   4.773   1.695 -0.3922 -0.1364 -0.1972
34141SOL    HW1 8260   8.087   4.680   1.697 -0.1709 -0.2516 -1.6355
34141SOL    HW2 8261   8.112   4.796   1.602  0.3670  1.0887  0.0794
34142SOL     OW 8262   0.396   5.736   3.682  0.6622  0.5800 -0.3590
34142SOL    HW1 8263   0.408   5.672   3.611  2.5190  0.6568 -0.1447
34142SOL    HW2 8264   0.345   5.689   3.748  0.5952 -0.1297 -0.9034
34143SOL     OW 8265   3.718  11.400   4.024  0.2039 -0.5775 -0.3625
34143SOL    HW1 8266   3.685  11.310   4.032  0.4550 -0.6010  0.4730
34143SOL    HW2 8267   3.813  11.390   4.020  0.1883 -0.5798 -3.6272
34144SOL     OW 8268   8.014   4.431   4.318 -0.0731 -0.2769  0.0384
34144SOL    HW1 8269   7.966   4.410   4.398 -2.7138  0.9866 -1.0834
34144SOL    HW2 8270   8.080   4.494   4.346 -0.2577 -0.6304  1.3633
34145SOL     OW 8271  11.944  10.223   2.489  0.5929  0.3378  0.2202
34145SOL    HW1 8272  12.016  10.169   2.521  1.4952  0.3424 -1.6561
34145SOL    HW2 8273  11.985  10.307   2.468 -0.0669  0.5241 -0.3418
34146SOL     OW 8274   5.264  11.093   5.168 -0.0538  0.1971  0.4748
34146SOL    HW1 8275   5.313  11.175   5.166 -0.4465  0.4658  1.3474
34146SOL    HW2 8276   5.176  11.118   5.196 -0.3656 -0.4341  0.0724
34147SOL     OW 8277  10.514   3.259   1.858  0.1541  0.1175  0.1779
34147SOL    HW1 8278  10.500   3.326   1.792  2.5574  0.2844 -0.2319
34147SOL    HW2 8279  10.436   3.204   1.853 -1.2308  2.0403 -0.4288
34148SOL     OW 8280   5.470   4.075   5.716  0.5749 -0.1959 -0.1110
34148SOL    HW1 8281   5.523   4.025   5.653  0.0452  1.0465 -1.6052
34148SOL    HW2 8282   5.525   4.150   5.739  0.1441  0.1945 -0.3405
34149SOL     OW 8283  11.016   9.111   9.457 -0.2375  0.4039 -0.1582
34149SOL    HW1 8284  11.015   9.062   9.539 -0.4910  1.4077  0.4543
34149SOL    HW2 8285  11.109   9.132   9.442 -0.2984  1.0888  0.4074
34150SOL     OW 8286   8.019   8.430   3.860 -0.0908 -0.8703 -0.2423
34150SOL    HW1 8287   7.945   8.370   3.873 -1.3114  0.4657 -0.8240
34150SOL    HW2 8288   7.979   8.516   3.850  1.6130  0.0187  0.2652
34151SOL     OW 8289   5.526   4.411   9.307  0.1852 -0.2308  0.9700
34151SOL    HW1 8290   5.580   4.334   9.289  1.1176  0.3812  1.0914
34151SOL    HW2 8291   5.438   4.386   9.279  0.8044 -0.7394 -0.6043
34152SOL     OW 8292   0.292   5.480   5.069 -0.1052 -0.0192 -0.4347
34152SOL    HW1 8293   0.254   5.476   4.981  0.5847 -2.2248 -0.6858
34152SOL    HW2 8294   0.216   5.478   5.128 -0.6100  2.2033 -0.9178
34153SOL     OW 8295  10.502   5.995   4.922 -1.0591  0.1300 -0.1996
34153SOL    HW1 8296  10.493   6.028   5.011  1.5866 -1.6583  0.8931
34153SOL    HW2 8297  10.481   5.902   4.929  2.4782 -0.8496 -0.5304
34154SOL     OW 8298   5.002   4.277   5.025  0.2920 -0.1935 -0.1331
34154SOL    HW1 8299   4.987   4.312   5.113  1.6384 -0.4558  0.2218
34154SOL    HW2 8300   5.022   4.184   5.039 -3.5996 -1.3764 -1.0822
34155SOL     OW 8301   2.386   1.197   4.364  0.4717 -0.2034 -0.6953
34155SOL    HW1 8302   2.430   1.202   4.449 -1.5329 -0.0514  0.3951
34155SOL    HW2 8303   2.295   1.220   4.382 -0.4351 -1.9603 -2.5491
34156SOL     OW 8304   1.738   5.439   7.835  0.3928 -0.2743  0.2919
34156SOL    HW1 8305   1.709   5.400   7.753 -0.8858  1.4966 -0.1400
34156SOL    HW2 8306   1.709   5.377   7.902 -1.9817  0.0481 -0.3368
34157SOL     OW 8307   7.677   9.927   3.910  0.2766  0.8016  0.0408
34157SOL    HW1 8308   7.754   9.949   3.857  0.5710  0.0834  0.1606
34157SOL    HW2 8309   7.693   9.971   3.994  1.8135 -1.3871  0.9844
34158SOL     OW 8310   0.190   7.096   0.620 -0.1816  0.2611  0.2671
34158SOL    HW1 8311   0.248   7.171   0.630  0.4320 -0.4056  2.2135
34158SOL    HW2 8312   0.241   7.034   0.567 -1.0875  1.5164 -2.2607
34159SOL     OW 8313   6.345   1.793   6.838 -0.0677 -0.1112 -0.1102
34159SOL    HW1 8314   6.339   1.738   6.916  0.7073 -0.9651 -0.6288
34159SOL    HW2 8315   6.439   1.809   6.827 -0.2169  0.5875 -0.4829
34160SOL     OW 8316   0.163   1.846   1.884  0.6838 -0.3475 -0.2244
34160SOL    HW1 8317   0.100   1.840   1.955  1.5374  0.1028  0.5887
34160SOL    HW2 8318   0.135   1.780   1.821 -0.3512 -0.4355  0.3126
34161SOL     OW 8319  12.206   7.024   9.770 -0.6274  0.0131 -0.4384
34161SOL    HW1 8320  12.151   7.000   9.695 -0.8657 -2.1920  0.3477
34161SOL    HW2 8321  12.295   7.020   9.737 -0.7701 -0.1725 -0.8045
34162SOL     OW 8322   8.413   5.461   1.764  0.2262 -0.2287 -0.4115
34162SOL    HW1 8323   8.428   5.488   1.673 -0.1709 -0.2957 -0.5004
34162SOL    HW2 8324   8.387   5.369   1.757  0.1434 -0.2192 -0.2306
34163SOL     OW 8325   3.195   2.338  11.447 -0.3657 -0.3281 -0.2378
34163SOL    HW1 8326   3.197   2.421  11.494 -0.1880  0.2687 -1.2628
34163SOL    HW2 8327   3.285   2.305  11.453 -0.0748  0.2782 -1.0533
34164SOL     OW 8328   5.740   9.022   1.899 -0.1004 -0.2894  0.2482
34164SOL    HW1 8329   5.784   8.995   1.979 -0.4860  1.6587  1.1838
34164SOL    HW2 8330   5.809   9.060   1.845  0.0268 -0.9270 -0.0541
34165SOL     OW 8331   6.013   0.580   8.868  0.2274  0.6376 -0.4270
34165SOL    HW1 8332   5.957   0.654   8.889  0.4117  0.1171  2.3432
34165SOL    HW2 8333   5.964   0.503   8.899  2.5366  0.2134  2.7498
34166SOL     OW 8334  11.487   6.993   2.515 -0.6568  0.8981 -0.3991
34166SOL    HW1 8335  11.482   6.935   2.591 -0.5136 -0.7225 -1.5560
34166SOL    HW2 8336  11.413   7.052   2.524 -0.7241  0.6340  0.9120
34167SOL     OW 8337   1.939   2.141   4.622 -0.6922 -0.4438 -0.3225
34167SOL    HW1 8338   2.030   2.170   4.615 -1.1882  1.0552 -0.9563
34167SOL    HW2 8339   1.922   2.139   4.716 -0.0350 -0.6678 -0.2001
34168SOL     OW 8340  10.831   6.466   6.361  0.1500  0.1502  0.0791
34168SOL    HW1 8341  10.860   6.503   6.277  3.1232 -0.8194  0.5496
34168SOL    HW2 8342  10.789   6.383   6.337  1.2509 -0.2662 -0.4655
34169SOL     OW 8343   9.948   4.638   4.586  0.5970  0.2081 -0.7955
34169SOL    HW1 8344   9.892   4.665   4.659  0.4000  0.7404 -1.1336
34169SOL    HW2 8345   9.975   4.721   4.545 -1.5585 -0.0636 -3.0407
34170SOL     OW 8346   1.565   2.223  12.262 -0.1206 -0.3589 -0.6868
34170SOL    HW1 8347   1.639   2.276  12.291  0.3838 -1.2272 -0.3241
34170SOL    HW2 8348   1.601   2.134  12.256 -0.2789 -0.3014 -3.6620
34171SOL     OW 8349  11.114   7.325   8.343 -0.6243  0.1637  0.2835
34171SOL    HW1 8350  11.155   7.240   8.331 -2.3247 -0.8103  1.0267
34171SOL    HW2 8351  11.118   7.340   8.438  1.4374  1.8870  0.0006
34172SOL     OW 8352  10.950   0.283   2.221  0.4410 -0.3213 -0.4801
34172SOL    HW1 8353  10.924   0.375   2.233 -0.1922 -0.6734  1.0796
34172SOL    HW2 8354  10.919   0.261   2.134 -0.4696  0.6092 -0.4181
34173SOL     OW 8355   6.461   0.991   8.480 -0.5093 -0.5021  0.4961
34173SOL    HW1 8356   6.551   1.010   8.457 -0.4975 -0.5106  0.5342
34173SOL    HW2 8357   6.419   1.076   8.489 -0.5298 -0.5001  0.3777
34174SOL     OW 8358   2.298   0.865   0.761  0.2301  0.1839  0.3737
34174SOL    HW1 8359   2.346   0.935   0.717  0.0838  0.5942  0.8579
34174SOL    HW2 8360   2.362   0.795   0.773  0.9864  1.0932  1.8856
34175SOL     OW 8361   0.169  10.987   6.596 -0.1842 -0.2156  0.2767
34175SOL    HW1 8362   0.139  11.030   6.677 -1.0174 -1.4876  0.6799
34175SOL    HW2 8363   0.127  11.038   6.526 -0.3162  0.2555  0.6874
34176SOL     OW 8364  10.932  11.384   1.863 -0.3561  0.0769 -0.1673
34176SOL    HW1 8365  10.938  11.288   1.859 -0.3330  0.1073 -1.6368
34176SOL    HW2 8366  10.975  11.408   1.945  0.7147 -1.1056 -0.3414
34177SOL     OW 8367   8.209  11.501   5.184  0.6606 -0.4468  0.1474
34177SOL    HW1 8368   8.234  11.585   5.221 -0.2825  0.3847 -1.0094
34177SOL    HW2 8369   8.203  11.517   5.090 -3.5276 -0.6391  0.1916
34178SOL     OW 8370   3.884   7.924   3.284 -0.3122 -0.2851  0.6671
34178SOL    HW1 8371   3.795   7.927   3.251 -0.0135  0.2772 -0.1068
34178SOL    HW2 8372   3.901   8.012   3.315  0.5116  0.0540 -0.6690
34179SOL     OW 8373   2.999   4.576   3.710 -0.3859  0.2566  0.8724
34179SOL    HW1 8374   2.923   4.519   3.698 -0.4467  0.2659  1.2123
34179SOL    HW2 8375   2.971   4.661   3.676 -0.5881  0.3052  1.1542
34180SOL     OW 8376   5.519   6.902   0.568  0.5014  0.4608 -0.4515
34180SOL    HW1 8377   5.455   6.830   0.561 -0.1594  0.9284  0.6053
34180SOL    HW2 8378   5.603   6.860   0.548  0.1697 -0.6834  0.4049
34181SOL     OW 8379   2.233  12.113  11.400  0.6951 -0.3360 -0.0935
34181SOL    HW1 8380   2.196  12.174  11.336  2.1646 -0.0579 -0.7142
34181SOL    HW2 8381   2.246  12.032  11.352  1.1013 -0.3577  0.0452
34182SOL     OW 8382   8.414   2.704   7.017  0.5894 -0.7049  0.4426
34182SOL    HW1 8383   8.448   2.782   6.975 -0.8572  0.5147  1.4106
34182SOL    HW2 8384   8.349   2.737   7.080  1.3633 -2.5385  2.3329
34183SOL     OW 8385  12.259   7.356   0.864 -0.5954  0.4379  0.2531
34183SOL    HW1 8386  12.198   7.311   0.923  0.5368 -1.6506 -0.0485
34183SOL    HW2 8387  12.342   7.309   0.876  0.6884  2.5125 -0.1329
34184SOL     OW 8388   9.332   1.196   4.406 -0.3614 -0.5172 -0.5076
34184SOL    HW1 8389   9.402   1.158   4.458 -1.1192  0.4238  1.2937
34184SOL    HW2 8390   9.347   1.291   4.411  0.3064 -0.4113 -3.1582
34185SOL     OW 8391   2.656   0.736  11.746  0.4179 -0.0718 -0.4794
34185SOL    HW1 8392   2.694   0.670  11.689  0.3799 -0.9718  0.5033
34185SOL    HW2 8393   2.706   0.730  11.828  0.1618  0.8467 -0.2391
34186SOL     OW 8394   9.780   9.264   1.932 -0.1974 -0.0379 -0.0554
34186SOL    HW1 8395   9.775   9.210   1.853 -1.2067 -0.7441  0.4760
34186SOL    HW2 8396   9.745   9.349   1.905  0.5196  0.0848 -0.6464
34187SOL     OW 8397  11.244   2.309   0.804  0.0876  0.5322 -0.1598
34187SOL    HW1 8398  11.196   2.268   0.731 -0.3132 -0.2884  0.5432
34187SOL    HW2 8399  11.175   2.344   0.861  0.4033  3.4784 -1.3848
34188SOL     OW 8400   8.578   7.934   6.076  0.2541 -0.0890 -0.3460
34188SOL    HW1 8401   8.546   8.023   6.062  3.0464  0.8205 -1.5697
34188SOL    HW2 8402   8.596   7.930   6.170  2.7933  1.7469 -0.6360
34189SOL     OW 8403  11.774   5.949   2.946  0.9210 -0.4355 -0.0590
34189SOL    HW1 8404  11.701   5.983   2.894  0.1062  1.0648  1.9353
34189SOL    HW2 8405  11.852   5.991   2.908  0.3277  0.7580 -0.0109
34190SOL     OW 8406   4.821   9.873  11.780 -0.5263 -0.1523 -0.4592
34190SOL    HW1 8407   4.776   9.867  11.864  0.4451 -0.5183  0.0519
34190SOL    HW2 8408   4.798   9.793  11.734  1.0410 -1.2609  0.5656
34191SOL     OW 8409   2.875   5.066   1.497  0.2890  0.2417 -0.2061
34191SOL    HW1 8410   2.901   5.020   1.417 -1.5771 -2.1471  0.4478
34191SOL    HW2 8411   2.886   5.003   1.567 -3.2383  0.3092  0.6184
34192SOL     OW 8412  11.847   0.069   2.949 -0.2654 -0.1791 -0.2941
34192SOL    HW1 8413  11.866   0.129   2.877 -2.0836  0.1916 -0.5045
34192SOL    HW2 8414  11.919   0.005   2.946  0.3285  0.5073 -1.6722
34193SOL     OW 8415   1.353   9.239   0.738 -0.4065  0.6927  0.2443
34193SOL    HW1 8416   1.265   9.232   0.701  0.1864 -0.0821 -1.0861
34193SOL    HW2 8417   1.367   9.334   0.748 -1.3552  0.8232  0.3952
34194SOL     OW 8418   3.206   8.239   7.118 -0.6124 -0.4251 -0.0554
34194SOL    HW1 8419   3.140   8.180   7.081 -1.2080  1.1861 -1.7066
34194SOL    HW2 8420   3.169   8.267   7.201 -0.9839 -1.2417  0.0621
34195SOL     OW 8421   8.643   4.390   5.381 -0.1749 -0.1051  0.4883
34195SOL    HW1 8422   8.580   4.326   5.414  1.1965 -1.5073  0.4881
34195SOL    HW2 8423   8.719   4.381   5.439  0.5828  0.5187 -0.3867
34196SOL     OW 8424   7.084   9.618   0.856 -0.4120  0.4897 -0.3768
34196SOL    HW1 8425   7.073   9.711   0.876  2.0277  1.0541 -1.3315
34196SOL    HW2 8426   7.004   9.594   0.809 -1.8548  1.6094  1.3710
34197SOL     OW 8427   9.199   1.694   7.319  0.4886  0.4643 -0.7775
34197SOL    HW1 8428   9.136   1.710   7.389  0.5129 -0.6638 -0.4771
34197SOL    HW2 8429   9.223   1.602   7.328 -0.7533 -0.2151 -3.2520
34198SOL     OW 8430   0.035   4.231  11.555  0.2479  0.2829 -0.1841
34198SOL    HW1 8431   0.039   4.137  11.573  0.4053  0.4293  0.6081
34198SOL    HW2 8432   0.020   4.271  11.641  1.6903  1.0857 -0.2663
34199SOL     OW 8433   4.757   8.312  10.490  0.2512 -0.2400  0.3408
34199SOL    HW1 8434   4.804   8.335  10.571  1.5619 -1.2638 -0.0888
34199SOL    HW2 8435   4.666   8.334  10.509  0.1539 -2.2360  2.8794
34200SOL     OW 8436   5.676  12.215   5.064  0.5592  0.1229 -0.5402
34200SOL    HW1 8437   5.658  12.307   5.080 -0.5533  0.1284 -1.6808
34200SOL    HW2 8438   5.759  12.215   5.015  0.1796  0.5771 -1.1979
34201SOL     OW 8439   6.527   2.386   8.219 -0.1782 -0.3590 -0.4698
34201SOL    HW1 8440   6.581   2.452   8.261  0.8915 -2.1260  1.0621
34201SOL    HW2 8441   6.589   2.333   8.169 -0.0593 -3.3811  2.5595
34202SOL     OW 8442   3.404   5.329   6.128  0.3624 -0.9588 -0.0283
34202SOL    HW1 8443   3.412   5.362   6.217  0.1459 -0.2559 -0.2594
34202SOL    HW2 8444   3.418   5.406   6.073  1.2413 -1.5276 -0.6195
34203SOL     OW 8445  10.291   6.732   1.608  0.4694  0.0436 -0.3463
34203SOL    HW1 8446  10.301   6.712   1.701 -2.2710  0.0369  0.0341
34203SOL    HW2 8447  10.319   6.823   1.600  2.0774 -0.3708  0.1676
34204SOL     OW 8448   7.577   0.645   8.636 -0.1487 -0.4760 -0.0856
34204SOL    HW1 8449   7.612   0.734   8.633  0.2497 -0.6509 -1.4875
34204SOL    HW2 8450   7.540   0.631   8.549 -4.5704 -0.0217  1.4650
34205SOL     OW 8451   4.176   9.318   7.334 -0.2539 -0.0802 -0.0963
34205SOL    HW1 8452   4.082   9.335   7.341 -0.5518 -2.1923  2.3410
34205SOL    HW2 8453   4.190   9.298   7.241 -2.7522 -2.3042 -0.1108
34206SOL     OW 8454  11.605   1.540  11.831  0.2216  0.8444 -0.1930
34206SOL    HW1 8455  11.600   1.552  11.926  0.2506 -1.3205  0.1153
34206SOL    HW2 8456  11.687   1.582  11.806  1.6010 -0.8714  1.1737
34207SOL     OW 8457   2.096   6.695  10.610 -0.2521 -0.1987  0.6172
34207SOL    HW1 8458   2.174   6.744  10.636 -1.2649  1.5881  0.4230
34207SOL    HW2 8459   2.109   6.608  10.648  0.4800  0.9185  3.1144
34208SOL     OW 8460   1.093   9.086  11.580 -0.6434 -0.3163  0.1683
34208SOL    HW1 8461   1.119   9.176  11.596 -0.7467  0.1479 -2.0353
34208SOL    HW2 8462   1.153   9.034  11.634  0.6560  0.9884  0.0487
34209SOL     OW 8463   9.274   9.274   5.471  0.3297  0.3429  0.1169
34209SOL    HW1 8464   9.342   9.271   5.404  0.4625  2.0039  0.1501
34209SOL    HW2 8465   9.321   9.283   5.553  0.1598 -1.5581  0.4870
34210SOL     OW 8466   8.326   2.029   0.111 -0.1008 -0.3644  0.3930
34210SOL    HW1 8467   8.361   2.090   0.175 -2.1016  0.4166  0.8101
34210SOL    HW2 8468   8.304   2.084   0.035 -1.2121 -0.6764  0.4801
34211SOL     OW 8469   8.684  11.936   2.167  1.0718 -0.5144 -0.1564
34211SOL    HW1 8470   8.653  11.973   2.085 -1.1866  0.8928  1.2466
34211SOL    HW2 8471   8.699  12.012   2.224 -0.8679 -1.5253  1.8471
34212SOL     OW 8472   3.882   2.087   4.695 -0.2370  0.2202  0.5025
34212SOL    HW1 8473   3.837   2.051   4.619  0.7331 -1.2727  0.5953
34212SOL    HW2 8474   3.933   2.160   4.660 -1.9733  1.3667  0.2501
34213SOL     OW 8475   5.174   7.134   1.969  0.5200  0.2214  0.2716
34213SOL    HW1 8476   5.265   7.105   1.970  0.3554 -0.3716 -0.5318
34213SOL    HW2 8477   5.127   7.065   1.923 -0.3679  0.4549  0.7982
34214SOL     OW 8478   6.541   5.479   3.512 -0.1688  0.3529  0.4590
34214SOL    HW1 8479   6.595   5.553   3.487  1.9324 -0.5134  2.1147
34214SOL    HW2 8480   6.469   5.517   3.562  1.1827  1.3260  1.7826
34215SOL     OW 8481   1.213  10.751   5.498 -0.1681 -0.0017  0.2867
34215SOL    HW1 8482   1.143  10.690   5.472  1.1482 -1.0734 -0.8995
34215SOL    HW2 8483   1.263  10.702   5.563  0.1273  0.3338  0.3084
34216SOL     OW 8484   8.640   8.844   7.665  0.0907  0.5744 -0.2326
34216SOL    HW1 8485   8.592   8.870   7.587 -1.1549  1.2017  0.7173
34216SOL    HW2 8486   8.708   8.785   7.633 -1.2003 -0.1956 -1.6394
34217SOL     OW 8487   3.344   8.316   7.845  0.4995 -0.2535  0.2427
34217SOL    HW1 8488   3.291   8.249   7.888  1.7317 -0.5806  1.3343
34217SOL    HW2 8489   3.422   8.270   7.816  0.8653  0.4958  0.0071
34218SOL     OW 8490   0.115   6.691   0.138 -0.0135  0.1939 -0.3607
34218SOL    HW1 8491   0.183   6.721   0.198  1.0944  0.9441 -1.9096
34218SOL    HW2 8492   0.064   6.770   0.118 -0.9470 -0.2333  0.2765
34219SOL     OW 8493   4.483   2.807   1.615  0.1786  0.2123  0.1556
34219SOL    HW1 8494   4.567   2.804   1.661  0.5045 -1.7601 -0.5008
34219SOL    HW2 8495   4.480   2.726   1.564 -1.0140  1.4347 -1.8249
34220SOL     OW 8496   7.475  12.059   9.911  0.2049 -0.0950  0.4758
34220SOL    HW1 8497   7.505  11.980   9.957 -0.4315 -0.6912 -0.1121
34220SOL    HW2 8498   7.555  12.101   9.880  0.5018 -1.0222 -0.0392
34221SOL     OW 8499   0.152  10.704   6.866 -0.1139  0.4779  0.1834
34221SOL    HW1 8500   0.058  10.724   6.865 -1.0076 -2.7972 -3.4814
34221SOL    HW2 8501   0.162  10.642   6.939 -0.2809  2.3210  1.8614
34222SOL     OW 8502   2.982   2.792   4.068 -0.0417  0.3614  0.4103
34222SOL    HW1 8503   3.064   2.829   4.036 -0.9582  0.3366 -2.1682
34222SOL    HW2 8504   2.917   2.860   4.052 -1.0576 -0.8219 -0.7298
34223SOL     OW 8505   7.472   5.478   1.677 -0.1748  0.3956 -0.1728
34223SOL    HW1 8506   7.377   5.485   1.676 -0.2165 -0.0645 -1.2470
34223SOL    HW2 8507   7.490   5.384   1.687  0.1182  0.2973 -1.3514
34224SOL     OW 8508   1.091  11.234   4.201 -0.0220 -0.1318  0.1305
34224SOL    HW1 8509   1.162  11.265   4.146  0.3592 -1.7876 -0.3512
34224SOL    HW2 8510   1.061  11.153   4.160 -2.0409  0.3807  0.4538
34225SOL     OW 8511  11.645   3.538   2.609 -0.0114 -0.2821  0.2305
34225SOL    HW1 8512  11.645   3.479   2.534  1.1747  0.6710 -0.5629
34225SOL    HW2 8513  11.576   3.504   2.667  1.5186 -3.2755  0.5053
34226SOL     OW 8514  10.480   5.617   6.314 -0.1164  0.3586 -0.5808
34226SOL    HW1 8515  10.417   5.545   6.327  1.0367 -0.5762  0.1151
34226SOL    HW2 8516  10.443   5.669   6.243 -0.1509 -1.9419 -2.3827
34227SOL     OW 8517   4.055   6.439   0.474  0.0550 -0.8355 -1.0038
34227SOL    HW1 8518   4.078   6.347   0.488  2.3505  0.0290  2.0417
34227SOL    HW2 8519   4.138   6.485   0.474 -1.0590  1.3229 -2.1090
34228SOL     OW 8520   6.791   0.393  12.103 -0.2466 -0.2177  0.3766
34228SOL    HW1 8521   6.839   0.467  12.064  0.0915 -0.7051 -0.1373
34228SOL    HW2 8522   6.699   0.411  12.084 -0.2020  0.2868  0.6220
34229SOL     OW 8523   7.088   6.460   1.387 -0.0175 -0.3028 -1.1044
34229SOL    HW1 8524   7.091   6.407   1.467 -1.5347 -0.6625 -1.2383
34229SOL    HW2 8525   7.089   6.550   1.417  2.3867 -0.3464 -0.8577
34230SOL     OW 8526  12.164   4.055   4.132 -0.2275 -0.6289  0.6863
34230SOL    HW1 8527  12.199   4.002   4.205 -0.4814 -0.8199  0.6715
34230SOL    HW2 8528  12.242   4.084   4.084 -0.1135 -1.8128  0.1216
34231SOL     OW 8529   5.568   6.305   9.111  0.3502  0.5737 -0.2169
34231SOL    HW1 8530   5.646   6.282   9.161 -0.9072 -0.2473  1.4706
34231SOL    HW2 8531   5.520   6.365   9.169 -3.1425 -3.4488  1.6137
34232SOL     OW 8532   2.217   6.862   4.868  0.1400 -0.1304  0.5609
34232SOL    HW1 8533   2.170   6.863   4.951 -0.7804 -1.4220  0.0820
34232SOL    HW2 8534   2.290   6.801   4.882  1.0335  0.9800  0.9349
34233SOL     OW 8535   3.861   6.465  11.852  0.4006 -0.2116  0.3058
34233SOL    HW1 8536   3.869   6.482  11.946 -2.3236 -0.3118  0.6386
34233SOL    HW2 8537   3.837   6.549  11.815 -1.0697 -0.6997  0.1104
34234SOL     OW 8538  11.265   8.775   4.818 -0.6815  0.7903 -0.0926
34234SOL    HW1 8539  11.189   8.751   4.765  0.6503 -1.1021 -1.2771
34234SOL    HW2 8540  11.232   8.779   4.908 -1.8881 -1.5520 -0.3607
34235SOL     OW 8541  10.873   7.115   5.312  0.1340 -0.0988  0.2336
34235SOL    HW1 8542  10.817   7.053   5.359 -0.4792  0.2626 -0.0140
34235SOL    HW2 8543  10.947   7.063   5.283  0.0126 -0.5476  0.7093
34236SOL     OW 8544   8.623   8.186   9.603  0.1345 -0.1104 -0.1930
34236SOL    HW1 8545   8.534   8.177   9.637 -0.3406  0.1780 -1.3077
34236SOL    HW2 8546   8.635   8.280   9.590  0.4626 -0.1770 -0.3947
34237SOL     OW 8547   8.433   9.461   1.565 -0.0560  0.5970  0.5588
34237SOL    HW1 8548   8.370   9.400   1.603 -1.4526  0.8830 -1.1636
34237SOL    HW2 8549   8.496   9.406   1.519 -1.4435  0.3747 -1.1862
34238SOL     OW 8550  11.833   3.325   9.928  0.0217  0.0910 -0.0901
34238SOL    HW1 8551  11.916   3.354   9.966 -0.4069  0.6055  0.4656
34238SOL    HW2 8552  11.840   3.229   9.927  0.7411  0.1331 -0.3427
34239SOL     OW 8553   3.356   8.982   7.452 -0.1629  0.0498  0.0418
34239SOL    HW1 8554   3.357   9.049   7.383 -0.0201 -0.5094 -0.5110
34239SOL    HW2 8555   3.421   8.917   7.423  2.3856  1.3685  2.2968
34240SOL     OW 8556   1.403   0.068   3.782  0.1848 -0.2073 -0.0034
34240SOL    HW1 8557   1.413  -0.021   3.815 -0.7311 -0.7898 -1.2338
34240SOL    HW2 8558   1.397   0.058   3.687 -1.9245  0.9677 -0.0544
34241SOL     OW 8559   4.230   5.244  10.055  0.3349  0.0841 -0.0042
34241SOL    HW1 8560   4.263   5.185  10.123 -0.0358  0.5327  0.5845
34241SOL    HW2 8561   4.208   5.324  10.103 -0.0713  0.3573 -0.6384
34242SOL     OW 8562  10.425   8.939   0.351 -0.3101 -0.3489 -0.6104
34242SOL    HW1 8563  10.407   9.027   0.318  2.0332  0.1111 -0.7733
34242SOL    HW2 8564  10.410   8.882   0.275  1.8752  0.3587 -1.6373
34243SOL     OW 8565   2.113  11.295   4.687 -0.1817 -0.3155  0.2092
34243SOL    HW1 8566   2.065  11.213   4.697  0.6724 -1.1883 -2.0441
34243SOL    HW2 8567   2.192  11.284   4.740 -1.7490  0.6136  2.8896
34244SOL     OW 8568   8.093  10.111   8.193 -0.5704 -0.3243 -0.1353
34244SOL    HW1 8569   8.080  10.128   8.100 -2.3527 -1.8244 -0.2157
34244SOL    HW2 8570   8.056  10.024   8.207  1.0335 -0.7967  1.7048
34245SOL     OW 8571   9.363  11.108   9.638  0.1603  0.2135  0.6769
34245SOL    HW1 8572   9.423  11.183   9.632  0.6763 -0.1888  0.6561
34245SOL    HW2 8573   9.280  11.141   9.603  1.3188 -0.2129 -2.9046
34246SOL     OW 8574   7.814   2.739   1.869 -0.0388  0.2338  0.1632
34246SOL    HW1 8575   7.756   2.772   1.937 -2.0383 -2.0855 -0.2733
34246SOL    HW2 8576   7.880   2.808   1.857 -1.6859  2.2250  1.9182
34247SOL     OW 8577   1.387  11.519   0.986 -0.0019  0.0734  0.2371
34247SOL    HW1 8578   1.482  11.523   0.975  0.1290 -4.0507 -2.1582
34247SOL    HW2 8579   1.374  11.489   1.075  0.8333  1.4381  0.8459
34248SOL     OW 8580   9.723   5.474   5.916  0.0727 -0.0682 -0.6104
34248SOL    HW1 8581   9.697   5.554   5.960  0.3407 -0.4607  0.2891
34248SOL    HW2 8582   9.688   5.482   5.828 -0.6074  0.6659 -0.2789
34249SOL     OW 8583   9.316   8.269   8.784  0.0060  0.3349  0.1892
34249SOL    HW1 8584   9.279   8.186   8.755  1.1064  0.0953 -0.6104
34249SOL    HW2 8585   9.410   8.253   8.788  0.0544  0.8480  2.3863
34250SOL     OW 8586  12.128   9.626   6.832  0.0278 -0.0765 -0.2151
34250SOL    HW1 8587  12.173   9.707   6.856 -0.3592 -0.0631  0.5068
34250SOL    HW2 8588  12.190   9.557   6.856 -0.9606 -0.1631  2.5223
34251SOL     OW 8589   4.285   5.830   1.574  0.2580  0.0908 -0.4449
34251SOL    HW1 8590   4.334   5.896   1.623  1.5682  0.5078 -2.1796
34251SOL    HW2 8591   4.200   5.869   1.558  0.5787  0.8338 -0.3511
34252SOL     OW 8592   0.411   3.736   4.934  0.1977 -0.0029 -0.0241
34252SOL    HW1 8593   0.478   3.694   4.880  0.4728 -1.5117  1.4393
34252SOL    HW2 8594   0.356   3.664   4.966 -1.1863  1.0535  0.1032
34253SOL     OW 8595   9.611   1.338   6.359  0.6265 -0.8597  0.2037
34253SOL    HW1 8596   9.658   1.366   6.437  0.4398  0.5153 -0.1606
34253SOL    HW2 8597   9.666   1.269   6.322  0.9958 -1.1454  1.2326
34254SOL     OW 8598   0.080   5.310   0.474  1.1835 -1.2417 -0.1393
34254SOL    HW1 8599   0.031   5.274   0.399 -1.1216 -2.1917  1.6978
34254SOL    HW2 8600   0.097   5.401   0.449 -1.2544 -0.9588 -1.1194
34255SOL     OW 8601   3.520   4.917   0.218 -0.0800 -0.5649  1.0699
34255SOL    HW1 8602   3.555   4.938   0.132 -1.7569 -0.4194  0.3846
34255SOL    HW2 8603   3.597   4.899   0.272  1.0023 -0.5582 -0.4231
34256SOL     OW 8604   1.285  11.308   6.998  0.3029  0.2574 -0.5211
34256SOL    HW1 8605   1.243  11.336   6.916  1.6461 -0.1702 -1.4011
34256SOL    HW2 8606   1.231  11.346   7.067  0.8567  3.3443 -1.6092
34257SOL     OW 8607  10.714   1.800   3.729 -0.4404  0.7635 -0.5783
34257SOL    HW1 8608  10.780   1.732   3.713 -1.3252 -0.4221  0.6049
34257SOL    HW2 8609  10.705   1.845   3.645  0.9366  0.1260 -1.1063
34258SOL     OW 8610   5.867   1.141   2.235 -0.6838  0.0238 -0.4542
34258SOL    HW1 8611   5.822   1.083   2.175 -1.5843 -0.0324  0.2616
34258SOL    HW2 8612   5.951   1.160   2.192 -1.5123  0.4026 -1.9649
34259SOL     OW 8613   0.529   8.946   4.603  0.6802  0.3353 -0.6288
34259SOL    HW1 8614   0.616   8.923   4.637  0.0234 -2.3133 -0.4786
34259SOL    HW2 8615   0.474   8.951   4.681  0.1519 -0.8992 -0.8998
34260SOL     OW 8616   3.808   4.340   4.024 -0.7356  0.2723 -0.0476
34260SOL    HW1 8617   3.840   4.265   3.975 -2.6529  0.4632 -1.7170
34260SOL    HW2 8618   3.855   4.415   3.987 -1.4459  0.2907 -0.9552
34261SOL     OW 8619   5.546   7.641   4.998 -0.5013 -0.0215 -0.0910
34261SOL    HW1 8620   5.469   7.696   5.012 -0.7567  0.2169 -2.0811
34261SOL    HW2 8621   5.536   7.569   5.060 -1.4532  0.8673  0.8349
34262SOL     OW 8622   8.112   0.402   9.062 -0.7024  0.1653 -0.5989
34262SOL    HW1 8623   8.030   0.433   9.101 -2.0028 -2.6013 -0.9291
34262SOL    HW2 8624   8.171   0.391   9.137 -1.7431 -0.9290  0.1021
34263SOL     OW 8625   0.327   9.221   2.187  0.4938  0.0813  0.0479
34263SOL    HW1 8626   0.263   9.256   2.126 -0.8770 -1.5682  0.4746
34263SOL    HW2 8627   0.400   9.191   2.132 -0.4101 -0.7393 -0.7201
34264SOL     OW 8628   1.341   6.705  10.533  0.3484  0.3566  0.2404
34264SOL    HW1 8629   1.406   6.775  10.526  0.4458  0.2004 -0.4260
34264SOL    HW2 8630   1.305   6.697  10.445  1.0100 -1.0770  0.0799
34265SOL     OW 8631   7.733   9.819   1.284 -0.3023 -0.6954 -0.0783
34265SOL    HW1 8632   7.786   9.886   1.242 -2.0614 -0.2137 -1.6916
34265SOL    HW2 8633   7.753   9.739   1.235 -0.3080 -0.7247 -0.0319
34266SOL     OW 8634  12.067  11.401   1.439  0.3105 -0.1093  0.1957
34266SOL    HW1 8635  12.042  11.353   1.360  3.1983  0.3225 -1.0803
34266SOL    HW2 8636  12.021  11.485   1.431 -0.7693 -0.7043 -0.1017
34267SOL     OW 8637   6.474   4.504   4.281 -0.2744  0.3803 -0.3937
34267SOL    HW1 8638   6.529   4.541   4.211 -0.1528 -3.0702 -2.3804
34267SOL    HW2 8639   6.528   4.511   4.360  1.5393  0.3957 -1.5652
34268SOL     OW 8640   8.773   3.658   4.640 -0.5242 -0.8854 -0.5157
34268SOL    HW1 8641   8.806   3.629   4.555  0.6059 -0.1487 -0.3576
34268SOL    HW2 8642   8.850   3.695   4.684 -1.2772 -0.4382  0.4674
34269SOL     OW 8643  10.415  11.017   4.574 -0.3180 -0.5196 -0.4527
34269SOL    HW1 8644  10.367  11.044   4.496 -0.3104  0.9836  0.0207
34269SOL    HW2 8645  10.464  10.940   4.547  1.8899  1.4930 -2.8244
34270SOL     OW 8646   5.248   0.714   2.971 -0.2536 -0.3872  0.0638
34270SOL    HW1 8647   5.264   0.734   3.063 -0.5185 -0.4403  0.1218
34270SOL    HW2 8648   5.153   0.721   2.961 -0.2941 -1.0110 -0.0565
34271SOL     OW 8649  11.909   9.413   1.408 -0.8422 -0.4190  0.3226
34271SOL    HW1 8650  11.970   9.371   1.346 -0.2215  0.1805  0.5145
34271SOL    HW2 8651  11.834   9.354   1.410 -0.3679 -1.0649 -0.0957
34272SOL     OW 8652   4.839   2.067   1.783  0.1356  0.0292 -0.3980
34272SOL    HW1 8653   4.908   2.081   1.718 -0.8608 -0.0922 -1.5110
34272SOL    HW2 8654   4.784   1.999   1.745 -0.8952  0.4931  0.2387
34273SOL     OW 8655   8.777   8.131   1.103  0.4071  0.0187  0.1618
34273SOL    HW1 8656   8.833   8.068   1.148  1.1413  1.7519  1.8239
34273SOL    HW2 8657   8.697   8.135   1.156 -0.1740 -0.4330 -0.6572
34274SOL     OW 8658   6.857   9.964   4.993  0.1047 -0.2380 -0.5138
34274SOL    HW1 8659   6.775   9.994   4.954 -0.8630  0.3422  1.8010
34274SOL    HW2 8660   6.890  10.040   5.040  0.7132 -1.1395  0.5670
34275SOL     OW 8661   7.866   6.384   5.055  0.7078  0.5104  0.2057
34275SOL    HW1 8662   7.785   6.387   5.004 -0.8198 -1.2052  2.3237
34275SOL    HW2 8663   7.837   6.390   5.146  3.0486  0.5022  1.0196
34276SOL     OW 8664   1.998   6.646   6.640  0.2185 -0.3932 -0.1022
34276SOL    HW1 8665   1.973   6.582   6.573  0.0100 -0.2654 -0.1497
34276SOL    HW2 8666   1.940   6.720   6.624 -1.0578 -1.0191  1.2958
34277SOL     OW 8667   0.878   1.572   2.136  0.0064 -0.0335  0.0988
34277SOL    HW1 8668   0.955   1.620   2.105  0.2669  0.0155  0.8120
34277SOL    HW2 8669   0.901   1.480   2.125 -0.0706 -0.0163 -0.2401
34278SOL     OW 8670   1.549   7.693   5.965 -0.0119 -0.0858  0.1081
34278SOL    HW1 8671   1.503   7.644   6.033  0.7238 -0.2694  0.4879
34278SOL    HW2 8672   1.592   7.626   5.911 -1.2357  0.0177 -1.0306
34279SOL     OW 8673  10.719  10.389   6.407 -0.4322 -0.0637 -0.3002
34279SOL    HW1 8674  10.747  10.404   6.317 -1.4032 -0.0625 -0.6016
34279SOL    HW2 8675  10.800  10.366   6.453  0.3535  1.5173 -0.8179
34280SOL     OW 8676   2.367   7.520   8.663 -0.0849  0.2214 -0.0344
34280SOL    HW1 8677   2.409   7.486   8.584 -0.4879 -1.1708  0.3305
34280SOL    HW2 8678   2.287   7.562   8.630  0.1001  0.2647 -0.4363
34281SOL     OW 8679  11.111  12.019   2.372 -0.7926  0.0048 -0.2473
34281SOL    HW1 8680  11.107  12.114   2.387 -0.2322 -0.0265  0.1313
34281SOL    HW2 8681  11.091  12.009   2.279  1.5177  0.7257 -0.8951
34282SOL     OW 8682   3.153   5.325  10.432  0.0380 -0.2568  0.1273
34282SOL    HW1 8683   3.151   5.247  10.376  0.5403 -1.2886  1.4717
34282SOL    HW2 8684   3.066   5.364  10.422  0.6759  0.6533 -2.7106
34283SOL     OW 8685   7.498   8.638   3.964 -0.3096  0.3519  0.3491
34283SOL    HW1 8686   7.499   8.542   3.969 -2.2126  0.2722 -0.0301
34283SOL    HW2 8687   7.439   8.664   4.034 -0.9869  1.1507 -0.4992
34284SOL     OW 8688   2.654  11.807   0.947  0.1956  0.4198 -0.7581
34284SOL    HW1 8689   2.661  11.793   1.041 -0.0228  0.2094 -0.7720
34284SOL    HW2 8690   2.600  11.735   0.916 -1.4145  1.5661 -0.7461
34285SOL     OW 8691   8.568   9.829   2.954  0.4238  0.0024  0.0985
34285SOL    HW1 8692   8.491   9.780   2.926 -0.5699  1.3950  0.2673
34285SOL    HW2 8693   8.544   9.921   2.941  1.4549  0.5444  1.6421
34286SOL     OW 8694   7.033   7.655   9.164  0.5195 -0.1453  0.0853
34286SOL    HW1 8695   6.996   7.608   9.239 -0.6763 -0.0996 -0.4406
34286SOL    HW2 8696   7.057   7.741   9.199  0.6964 -0.3941  0.5860
34287SOL     OW 8697   7.531   9.416   7.433 -0.3701  0.0836 -0.8466
34287SOL    HW1 8698   7.584   9.463   7.498  0.1125 -0.2601 -0.9860
34287SOL    HW2 8699   7.568   9.328   7.432 -1.6346 -0.4907 -0.1603
34288SOL     OW 8700   2.270   4.684   1.836 -0.2006 -0.8907 -0.0198
34288SOL    HW1 8701   2.196   4.626   1.854 -0.1082 -0.4091  2.2097
34288SOL    HW2 8702   2.242   4.736   1.761 -1.0047 -2.5387 -0.9245
34289SOL     OW 8703   3.704  11.160   9.950 -0.0366 -0.7587  0.4253
34289SOL    HW1 8704   3.765  11.233   9.944 -0.3785 -0.5142 -0.1095
34289SOL    HW2 8705   3.733  11.111  10.027 -1.5556  1.5635  2.6315
34290SOL     OW 8706  10.727  10.058   2.089 -0.4573 -0.8497  0.6288
34290SOL    HW1 8707  10.763   9.969   2.079  1.7760 -0.0509  0.8319
34290SOL    HW2 8708  10.805  10.114   2.095 -1.7931  0.9688  2.0067
34291SOL     OW 8709   5.745   4.649   0.896 -0.4076 -0.7465  0.0014
34291SOL    HW1 8710   5.678   4.581   0.887 -2.5343  1.3195 -0.6777
34291SOL    HW2 8711   5.788   4.630   0.979 -0.1052 -3.5382 -0.6817
34292SOL     OW 8712   5.097   1.132   5.876  0.5059 -0.1980 -0.0313
34292SOL    HW1 8713   5.065   1.140   5.966  0.9775  0.5222  0.0780
34292SOL    HW2 8714   5.072   1.215   5.834  2.4012  0.4902  0.1246
34293SOL     OW 8715  10.869   3.754  10.457  0.3851  0.0513 -0.0954
34293SOL    HW1 8716  10.832   3.775  10.542 -0.0368 -2.1274  0.3286
34293SOL    HW2 8717  10.810   3.795  10.393 -0.8082 -0.4758  0.6385
34294SOL     OW 8718   4.497  10.814   1.946  0.6162 -0.4943  0.1968
34294SOL    HW1 8719   4.446  10.784   1.871  0.5789 -0.5945  0.2619
34294SOL    HW2 8720   4.567  10.867   1.908 -0.6162  1.2147  0.2206
34295SOL     OW 8721  10.813   4.407   1.179  0.4729 -0.0283 -0.0769
34295SOL    HW1 8722  10.794   4.344   1.249  2.2152 -0.1575  0.3192
34295SOL    HW2 8723  10.786   4.363   1.099  2.2148 -1.5607  0.1336
34296SOL     OW 8724   8.072   9.629   9.809  0.0292  0.5384  0.8461
34296SOL    HW1 8725   7.992   9.666   9.847  0.4819  1.6578  0.7510
34296SOL    HW2 8726   8.079   9.542   9.848 -0.7227  0.7966  1.5938
34297SOL     OW 8727   9.592   0.926   7.035  0.1595  0.3163 -0.1950
34297SOL    HW1 8728   9.670   0.950   6.985  1.1549  0.4151  1.3390
34297SOL    HW2 8729   9.607   0.962   7.122 -0.9827 -0.8617  0.5305
34298SOL     OW 8730  10.258   3.743   4.034  0.5083 -0.1179  0.0679
34298SOL    HW1 8731  10.176   3.741   3.984  0.8060  1.1120 -0.5048
34298SOL    HW2 8732  10.232   3.719   4.123 -0.2498 -1.0121 -0.3748
34299SOL     OW 8733   3.654  11.677  10.997  0.2588 -0.0588  0.1229
34299SOL    HW1 8734   3.735  11.628  11.004  0.4062  0.1764  0.0659
34299SOL    HW2 8735   3.628  11.667  10.905 -0.1541 -0.7282  0.3043
34300SOL     OW 8736  11.484   4.428   3.057 -0.3759 -0.7891 -0.0027
34300SOL    HW1 8737  11.559   4.381   3.020  1.7003  1.7618  0.6743
34300SOL    HW2 8738  11.486   4.514   3.015 -2.4187 -0.3453  0.6850
34301SOL     OW 8739  11.979  11.848   0.233  0.4159  0.4492 -0.3071
34301SOL    HW1 8740  12.074  11.847   0.221  0.3335 -0.2183 -0.9819
34301SOL    HW2 8741  11.964  11.910   0.305  1.3511  0.6114 -0.2447
34302SOL     OW 8742   8.664   8.601   4.097  0.6499  0.1800 -0.5238
34302SOL    HW1 8743   8.602   8.607   4.024  1.7342 -1.2336 -1.6267
34302SOL    HW2 8744   8.686   8.508   4.102  0.3681  0.1869  1.8529
34303SOL     OW 8745   1.085   8.575   0.187 -0.0723 -0.0465 -0.4684
34303SOL    HW1 8746   1.117   8.539   0.269 -2.0149 -0.0367  0.3535
34303SOL    HW2 8747   1.164   8.601   0.139  1.0562  1.4556  2.0492
34304SOL     OW 8748   1.217   6.400   8.388 -0.1517 -0.1907  0.3136
34304SOL    HW1 8749   1.304   6.362   8.378 -0.0227 -0.2257  1.4436
34304SOL    HW2 8750   1.163   6.353   8.325  1.0310  1.1744 -1.8234
34305SOL     OW 8751  11.051   5.943   2.626  0.3119 -0.9028 -0.4716
34305SOL    HW1 8752  11.048   5.871   2.564  1.9372 -1.6006  0.1909
34305SOL    HW2 8753  11.068   5.902   2.711  2.5828  0.2759 -0.2651
34306SOL     OW 8754   6.561  11.599  11.449  0.0923  0.2881 -0.4836
34306SOL    HW1 8755   6.643  11.647  11.437 -0.3283  1.1982  0.1927
34306SOL    HW2 8756   6.549  11.551  11.367 -0.1373  2.3599 -1.7553
34307SOL     OW 8757  11.372  11.972  11.109  0.0633  0.6523  0.3801
34307SOL    HW1 8758  11.448  11.938  11.157  0.2220  1.4732  0.7229
34307SOL    HW2 8759  11.404  11.985  11.020  0.1771  0.5116  0.3992
34308SOL     OW 8760   7.635   7.046   4.336  0.1933 -0.4162 -0.3961
34308SOL    HW1 8761   7.552   7.036   4.289  0.5698 -1.5098 -0.8342
34308SOL    HW2 8762   7.693   6.980   4.299  0.7784 -0.7115  0.9914
34309SOL     OW 8763  10.855   9.693   4.002  0.4222 -0.4777 -0.2185
34309SOL    HW1 8764  10.843   9.599   4.014  0.3684 -0.2401  1.9783
34309SOL    HW2 8765  10.794   9.717   3.933 -2.4831 -1.4608  1.8138
34310SOL     OW 8766  11.084  10.644  10.945 -0.0144 -0.2836 -0.1388
34310SOL    HW1 8767  11.106  10.724  10.897  1.1829 -0.7136 -0.3546
34310SOL    HW2 8768  10.994  10.657  10.974  0.0660  1.0189 -0.4070
34311SOL     OW 8769   2.438   2.297   8.210 -0.2808  0.2475  0.1580
34311SOL    HW1 8770   2.436   2.274   8.117 -1.9195 -0.0267  0.2272
34311SOL    HW2 8771   2.364   2.250   8.248  1.6407 -1.4834  2.0838
34312SOL     OW 8772   3.127   6.461   0.249  0.0705  0.8159  0.0952
34312SOL    HW1 8773   3.220   6.476   0.233  0.1236  0.5163  0.1158
34312SOL    HW2 8774   3.099   6.405   0.176 -0.0831  0.8746  0.1096
34313SOL     OW 8775   7.333   8.543   1.828  0.4809 -0.1121 -0.2935
34313SOL    HW1 8776   7.421   8.575   1.848  0.7906 -1.4218  0.5194
34313SOL    HW2 8777   7.339   8.512   1.737  0.8193 -0.0713 -0.2875
34314SOL     OW 8778   8.181  12.156   8.235  0.3696 -0.1180 -0.6153
34314SOL    HW1 8779   8.097  12.187   8.271  2.2278  3.9520  0.8129
34314SOL    HW2 8780   8.214  12.096   8.301  0.1064  1.0372  0.6232
34315SOL     OW 8781   3.292   6.840   1.679 -0.3988  0.0023  0.0564
34315SOL    HW1 8782   3.347   6.762   1.692  0.8301  0.7357 -0.4913
34315SOL    HW2 8783   3.215   6.825   1.734  0.0203 -1.3887  0.3074
34316SOL     OW 8784  10.009   0.389  11.760  0.9080 -0.2488  0.1428
34316SOL    HW1 8785  10.081   0.339  11.721  1.5362 -0.2258  1.2270
34316SOL    HW2 8786   9.962   0.426  11.685  1.5538 -0.9124 -0.6108
34317SOL     OW 8787   7.500   4.094   3.654 -0.3837 -0.0606 -0.1734
34317SOL    HW1 8788   7.557   4.032   3.700  0.0353  0.0356 -0.5571
34317SOL    HW2 8789   7.413   4.055   3.659 -0.1341 -0.6452 -0.3529
34318SOL     OW 8790   6.481   2.321   5.724 -0.0693  0.1371  0.0025
34318SOL    HW1 8791   6.442   2.407   5.709 -0.1712  0.5602  2.2625
34318SOL    HW2 8792   6.417   2.258   5.690  0.0570  0.9163 -1.7665
34319SOL     OW 8793   1.671   8.120   0.123 -0.4154 -0.5115  0.0165
34319SOL    HW1 8794   1.705   8.174   0.194  1.8302 -0.4771 -1.0076
34319SOL    HW2 8795   1.703   8.162   0.043  0.0175 -2.4330 -0.8878
34320SOL     OW 8796   9.478   8.483   6.980  0.6744 -0.0488 -0.1395
34320SOL    HW1 8797   9.470   8.574   6.952 -1.2881 -0.8005 -2.2009
34320SOL    HW2 8798   9.460   8.486   7.074 -0.3512  1.5605 -0.3502
34321SOL     OW 8799   6.825   1.195   5.704  0.3570 -0.1409  0.3518
34321SOL    HW1 8800   6.803   1.138   5.631  2.4378  0.6969 -1.0103
34321SOL    HW2 8801   6.915   1.224   5.686  1.0692 -0.1404  3.4026
34322SOL     OW 8802   9.924   6.463  12.332 -0.5090 -0.0506 -0.3414
34322SOL    HW1 8803   9.912   6.556  12.311 -1.6567 -0.3226 -0.9977
34322SOL    HW2 8804   9.835   6.430  12.346 -0.0846 -0.9681  0.2851
34323SOL     OW 8805   3.162  10.632   9.502  0.4893 -0.4166  0.6529
34323SOL    HW1 8806   3.125  10.544   9.509 -0.9957  0.1048 -0.1818
34323SOL    HW2 8807   3.253  10.617   9.476 -0.2247 -1.7047 -1.3681
34324SOL     OW 8808  11.443   1.023  11.523  0.1975 -0.3473 -0.3412
34324SOL    HW1 8809  11.413   0.940  11.562 -0.8394  0.6229  1.0164
34324SOL    HW2 8810  11.416   1.090  11.586 -0.1423  1.1630 -2.0243
34325SOL     OW 8811  11.822   4.894   5.907  0.6083 -0.1340 -0.2076
34325SOL    HW1 8812  11.859   4.922   5.990 -2.3742  0.4057  1.0653
34325SOL    HW2 8813  11.847   4.963   5.845  0.2530  1.1144  0.9929
34326SOL     OW 8814   0.411   0.755   3.222 -0.3821 -0.3408 -0.0991
34326SOL    HW1 8815   0.396   0.665   3.251  1.6052  0.0728  2.5440
34326SOL    HW2 8816   0.472   0.791   3.286  0.1159  2.4277 -1.9736
34327SOL     OW 8817   6.322  11.250   2.116 -0.9736  0.3871  0.3055
34327SOL    HW1 8818   6.394  11.285   2.170 -1.9567  0.0547  1.8853
34327SOL    HW2 8819   6.329  11.299   2.034  0.5186  0.9868  0.7431
34328SOL     OW 8820   0.012  11.228   5.425  0.0040  0.2839  0.5134
34328SOL    HW1 8821  -0.035  11.182   5.494  0.1193 -1.0184 -0.2389
34328SOL    HW2 8822   0.104  11.218   5.449  0.1478 -1.5276 -0.5695
34329SOL     OW 8823  12.272   3.855   6.301  0.7329 -0.0889  0.1735
34329SOL    HW1 8824  12.269   3.903   6.218  3.3776  0.8718  0.5322
34329SOL    HW2 8825  12.216   3.778   6.286 -0.3724  1.0247 -1.8167
34330SOL     OW 8826   3.855   9.552   2.188 -0.1615 -0.5024  0.2596
34330SOL    HW1 8827   3.840   9.543   2.282  1.1126 -0.6553  0.4661
34330SOL    HW2 8828   3.916   9.625   2.180 -1.8297  0.8614 -0.6218
34331SOL     OW 8829  12.123   1.346  12.116 -0.6969  0.1885  0.4625
34331SOL    HW1 8830  12.065   1.403  12.066 -1.3766 -0.5855  0.3468
34331SOL    HW2 8831  12.211   1.377  12.095 -1.0668  1.8379  1.1891
34332SOL     OW 8832   3.775   3.269   0.504  0.4394  0.3215 -0.2691
34332SOL    HW1 8833   3.732   3.291   0.587  1.0835 -0.8931  0.4237
34332SOL    HW2 8834   3.844   3.206   0.529 -0.0225 -0.8693 -1.8395
34333SOL     OW 8835   6.997   7.410   7.296 -0.1369 -0.3842 -0.0329
34333SOL    HW1 8836   6.943   7.359   7.356 -0.4151  0.7856  0.7392
34333SOL    HW2 8837   6.966   7.500   7.305  1.5305  0.2241 -0.0154
34334SOL     OW 8838   0.021   2.959   0.651  0.2440 -0.1109  0.2986
34334SOL    HW1 8839  -0.066   2.969   0.614  1.5960  0.5654 -3.1011
34334SOL    HW2 8840   0.047   2.869   0.629  1.8439  0.9224 -2.5669
34335SOL     OW 8841   3.765   1.399   6.939 -0.5399 -0.1838 -0.2256
34335SOL    HW1 8842   3.683   1.428   6.978 -0.2588 -2.1485  2.0116
34335SOL    HW2 8843   3.741   1.325   6.883 -0.5059  0.4939 -1.1615
34336SOL     OW 8844   6.101   0.683  11.156 -0.0966  0.2819 -0.0562
34336SOL    HW1 8845   6.025   0.671  11.212 -1.0904  1.4184 -1.1123
34336SOL    HW2 8846   6.146   0.598  11.159 -0.8838 -0.1255  1.2974
34337SOL     OW 8847   4.221  12.298   9.137  0.1712 -0.6068 -0.4519
34337SOL    HW1 8848   4.157  12.257   9.079 -0.5774 -1.6107  1.0182
34337SOL    HW2 8849   4.167  12.350   9.198  0.6926 -1.7667  1.0479
34338SOL     OW 8850   8.788   2.479   0.772 -0.7861  0.1064  0.3937
34338SOL    HW1 8851   8.859   2.542   0.776 -0.2678 -0.4248 -0.2425
34338SOL    HW2 8852   8.825   2.398   0.806 -0.9286 -0.3003 -0.3936
34339SOL     OW 8853   3.423   4.550  12.296  0.1163  0.1754 -0.5542
34339SOL    HW1 8854   3.391   4.530  12.384 -2.0112 -0.0257 -1.3162
34339SOL    HW2 8855   3.442   4.643  12.299  1.9565 -0.1926  0.6388
34340SOL     OW 8856  10.482   6.495   3.701  0.0690  0.0824 -0.0506
34340SOL    HW1 8857  10.414   6.430   3.718  0.5054 -0.1390  0.9044
34340SOL    HW2 8858  10.554   6.469   3.758  0.7332  0.6609 -0.6134
34341SOL     OW 8859   0.638   6.119   4.693  0.5959  0.0023 -0.5323
34341SOL    HW1 8860   0.567   6.148   4.751  0.5478 -0.6048 -0.2770
34341SOL    HW2 8861   0.607   6.140   4.605  0.4954  0.5701 -0.3660
34342SOL     OW 8862   5.391   6.226   7.396  0.5017  0.6305  0.4576
34342SOL    HW1 8863   5.303   6.209   7.431 -0.3866  1.4207 -1.2807
34342SOL    HW2 8864   5.429   6.139   7.386  0.8093  0.3397  3.2428
34343SOL     OW 8865   2.607   4.322   1.367 -0.1425  0.0381 -0.5047
34343SOL    HW1 8866   2.566   4.379   1.303  0.2351 -0.1345 -0.9068
34343SOL    HW2 8867   2.699   4.319   1.341 -0.0639 -0.3557 -0.1976
34344SOL     OW 8868   9.500   8.078   4.062 -0.2013  0.1549  0.0560
34344SOL    HW1 8869   9.439   8.147   4.086  0.7473  1.2394 -0.5273
34344SOL    HW2 8870   9.542   8.110   3.982 -0.7098 -1.7284 -1.0219
34345SOL     OW 8871   6.923   1.856   4.606  0.3362  0.8513  0.4448
34345SOL    HW1 8872   6.964   1.791   4.548 -0.3393  0.2989  0.5743
34345SOL    HW2 8873   6.992   1.920   4.622  0.5363  1.0266 -0.9839
34346SOL     OW 8874   1.611   4.978   7.408  0.4164 -0.0653 -0.1624
34346SOL    HW1 8875   1.682   5.043   7.407  0.0915  0.2986 -0.9559
34346SOL    HW2 8876   1.641   4.910   7.348  0.1453  0.0321 -0.4065
34347SOL     OW 8877   7.450   0.071   2.419  0.4357 -0.1804  0.2263
34347SOL    HW1 8878   7.484   0.021   2.493 -0.8611  1.3464  1.9467
34347SOL    HW2 8879   7.486   0.159   2.430 -0.7310  0.3794 -0.2335
34348SOL     OW 8880   7.129   1.532   4.064  0.5994 -0.1442 -0.0155
34348SOL    HW1 8881   7.218   1.540   4.098  0.6459 -0.3131 -0.0977
34348SOL    HW2 8882   7.123   1.442   4.032  0.7932  0.2101 -1.1115
34349SOL     OW 8883   5.479   6.061  12.192  0.1459  0.1538  0.0205
34349SOL    HW1 8884   5.512   6.151  12.201 -1.0328  0.5387  0.6627
34349SOL    HW2 8885   5.385   6.071  12.180 -0.5289 -1.0621  3.2537
34350SOL     OW 8886   1.123   1.061   6.459  0.6782  0.2163 -0.4942
34350SOL    HW1 8887   1.201   1.100   6.498  0.4209  0.7916 -0.5364
34350SOL    HW2 8888   1.109   1.110   6.378 -0.1797  0.6794 -0.0875
34351SOL     OW 8889   3.085   3.609   4.268 -0.1197 -0.6650 -0.6101
34351SOL    HW1 8890   3.098   3.637   4.358  1.6440 -2.0380 -0.3642
34351SOL    HW2 8891   2.996   3.635   4.246 -0.3694  0.2277  1.3162
34352SOL     OW 8892  11.064   5.196   2.120 -0.1577 -0.0309  0.1954
34352SOL    HW1 8893  10.992   5.158   2.171  0.8630 -2.2626  0.0803
34352SOL    HW2 8894  11.128   5.224   2.185  1.0760 -2.7356  0.2872
34353SOL     OW 8895   3.215   2.458   4.639  0.3178  0.1380  1.1717
34353SOL    HW1 8896   3.125   2.464   4.670  0.3794 -0.4091  1.4825
34353SOL    HW2 8897   3.246   2.548   4.635  0.0292  0.2738  1.9057
34354SOL     OW 8898   4.860   4.719   7.021 -0.2914 -0.0096 -0.2594
34354SOL    HW1 8899   4.882   4.807   6.992  3.5034 -0.7986 -0.2867
34354SOL    HW2 8900   4.854   4.668   6.940  0.7616 -0.3698 -0.1224
34355SOL     OW 8901   3.267   7.605   4.680 -0.0944  0.5324 -0.1761
34355SOL    HW1 8902   3.264   7.653   4.597 -0.5870 -0.6286 -0.8449
34355SOL    HW2 8903   3.177   7.611   4.714 -0.1766  0.0204 -0.3009
34356SOL     OW 8904   8.566   4.827   7.653  0.3556 -0.0833  0.2249
34356SOL    HW1 8905   8.487   4.856   7.607 -0.3124  0.0680  1.4381
34356SOL    HW2 8906   8.560   4.869   7.739  0.3212 -2.2845  1.3514
34357SOL     OW 8907   2.787   9.509   4.455 -0.2007  0.0571 -0.1013
34357SOL    HW1 8908   2.801   9.552   4.540  0.6332  0.3535 -0.3797
34357SOL    HW2 8909   2.789   9.415   4.476  1.9684  0.0669 -0.0373
34358SOL     OW 8910   8.003   6.619   2.398  0.1500 -0.4449 -0.2105
34358SOL    HW1 8911   8.057   6.640   2.321 -0.0813  1.4005  0.0914
34358SOL    HW2 8912   7.945   6.549   2.367  0.2645  0.0500 -1.6375
34359SOL     OW 8913   3.515   7.100   8.112 -0.0559  1.1302 -0.2042
34359SOL    HW1 8914   3.560   7.123   8.031 -1.1102 -0.4186 -1.2725
34359SOL    HW2 8915   3.422   7.099   8.089 -0.3442  0.2239  0.8961
34360SOL     OW 8916  10.771   8.124   5.268  0.2470  0.0903 -0.6441
34360SOL    HW1 8917  10.852   8.083   5.238  0.2541 -2.0137  1.9000
34360SOL    HW2 8918  10.730   8.158   5.188  2.3129 -1.1759 -2.3434
34361SOL     OW 8919  11.032   3.214   0.898  0.5294  0.1031 -0.2115
34361SOL    HW1 8920  11.082   3.252   0.970  1.0307 -3.0066  1.2076
34361SOL    HW2 8921  10.945   3.199   0.935 -0.0161  0.8967 -1.1249
34362SOL     OW 8922   6.642   5.454   1.648  0.0922 -0.6771 -0.1729
34362SOL    HW1 8923   6.734   5.452   1.621 -0.3671 -1.3504 -1.7552
34362SOL    HW2 8924   6.645   5.488   1.738  1.9258 -1.2337  0.0186
34363SOL     OW 8925   7.079   5.244   2.717  0.0207  0.5324 -0.0463
34363SOL    HW1 8926   7.131   5.173   2.679 -2.0728 -0.1760 -1.7458
34363SOL    HW2 8927   7.144   5.311   2.740  2.3007 -2.3839  3.0751
34364SOL     OW 8928   0.805   9.561   1.726  0.1933  0.0432  0.2724
34364SOL    HW1 8929   0.743   9.548   1.797  1.1263 -0.9593  0.9270
34364SOL    HW2 8930   0.752   9.556   1.646 -0.8089  0.8537  0.8655
34365SOL     OW 8931   7.660   7.057   2.418  0.3658  0.1319  0.1164
34365SOL    HW1 8932   7.723   7.002   2.372  1.8350  1.3969  0.5472
34365SOL    HW2 8933   7.707   7.089   2.495 -1.5123 -0.6335  1.6751
34366SOL     OW 8934   4.788   8.314   9.422 -0.2944 -0.0997  0.9287
34366SOL    HW1 8935   4.869   8.310   9.473  0.5679  0.6703 -0.3429
34366SOL    HW2 8936   4.769   8.222   9.402 -0.0026 -0.3254  1.6257
34367SOL     OW 8937   0.611   8.596   5.914  0.0700  0.1335 -0.8110
34367SOL    HW1 8938   0.703   8.619   5.905 -0.1392  1.3816 -0.0311
34367SOL    HW2 8939   0.604   8.556   6.001 -0.1147 -0.0657 -0.9141
34368SOL     OW 8940   3.634   2.079  11.288 -0.1593  0.3847 -0.1627
34368SOL    HW1 8941   3.728   2.089  11.296  0.0760  0.1435 -2.0989
34368SOL    HW2 8942   3.614   1.995  11.330  0.8509 -0.6730 -1.7061
34369SOL     OW 8943   8.162   2.918   2.528  0.4319  0.0005 -0.1469
34369SOL    HW1 8944   8.227   2.849   2.514  0.7172  0.3802 -0.7132
34369SOL    HW2 8945   8.097   2.878   2.586  0.7866 -0.6203 -0.1680
34370SOL     OW 8946  12.213   7.997   9.389 -0.3032  0.0247 -0.5159
34370SOL    HW1 8947  12.157   7.950   9.451 -0.5000  2.5852  1.4685
34370SOL    HW2 8948  12.155   8.019   9.316 -0.8391 -0.7096 -0.3140
34371SOL     OW 8949   1.215  11.352   2.679 -0.4553  0.3019  0.2364
34371SOL    HW1 8950   1.252  11.321   2.596 -1.7910  0.2099 -0.3516
34371SOL    HW2 8951   1.128  11.312   2.683 -0.1837 -0.2225  1.9994
34372SOL     OW 8952   8.192   1.564  11.054  0.4202 -0.1754  0.2181
34372SOL    HW1 8953   8.196   1.470  11.039  2.4648  0.0616 -1.1022
34372SOL    HW2 8954   8.174   1.573  11.148 -0.0210 -1.8472  0.3245
34373SOL     OW 8955   6.852   8.055  12.259  0.0617  0.6692  0.4976
34373SOL    HW1 8956   6.910   8.035  12.333 -0.4206 -2.1776  0.2298
34373SOL    HW2 8957   6.847   7.973  12.210 -0.6606  2.0984 -2.0168
34374SOL     OW 8958   8.077  11.117   3.504  0.0017  0.0669  0.3393
34374SOL    HW1 8959   8.117  11.143   3.587  0.9517 -1.3452  0.3626
34374SOL    HW2 8960   8.069  11.022   3.510 -0.5473  0.0116 -0.9231
34375SOL     OW 8961  11.124   7.146   1.022  0.1062  0.0601  0.0972
34375SOL    HW1 8962  11.098   7.054   1.023 -1.6785  0.5364  0.0600
34375SOL    HW2 8963  11.184   7.153   0.947 -2.0001 -0.5225 -1.7580
34376SOL     OW 8964   7.398   6.096   4.374  0.4360  0.2139  0.2923
34376SOL    HW1 8965   7.441   6.146   4.305  2.3395  1.8529  2.4945
34376SOL    HW2 8966   7.421   6.005   4.356  0.6378  0.5542 -1.3487
34377SOL     OW 8967   3.899   4.528   4.657  0.2978  0.0913  0.0781
34377SOL    HW1 8968   3.954   4.590   4.705  2.8069 -0.7415 -1.5591
34377SOL    HW2 8969   3.925   4.538   4.566 -3.2311  0.5119 -1.0382
34378SOL     OW 8970   7.974   5.141   5.698 -0.3925 -0.0164 -0.6155
34378SOL    HW1 8971   7.946   5.110   5.784 -0.0700 -1.0754 -0.8850
34378SOL    HW2 8972   7.917   5.216   5.680 -0.6650  0.0249  0.3842
34379SOL     OW 8973   0.267   6.775   9.108  0.0485  0.3840  0.2419
34379SOL    HW1 8974   0.175   6.798   9.121 -0.4714 -1.7823  0.7856
34379SOL    HW2 8975   0.296   6.745   9.194  0.4928 -1.4029 -0.4935
34380SOL     OW 8976   7.189   5.041   0.375  0.2183  0.2730 -0.3074
34380SOL    HW1 8977   7.136   5.077   0.446  0.9427  2.2231 -0.6868
34380SOL    HW2 8978   7.225   5.118   0.331  3.6293 -0.8882  0.1171
34381SOL     OW 8979   0.158  10.094   6.831  0.1055  0.1065 -0.0180
34381SOL    HW1 8980   0.071  10.122   6.802 -0.0797  1.5586  1.7778
34381SOL    HW2 8981   0.217  10.128   6.764 -0.5313  0.8747 -0.2102
34382SOL     OW 8982   6.093   2.783  10.349  0.2302 -0.0537 -0.5710
34382SOL    HW1 8983   6.061   2.724  10.281  0.4258 -0.9029  0.0574
34382SOL    HW2 8984   6.184   2.801  10.324  0.6913 -1.3324  0.0738
34383SOL     OW 8985   5.827   6.719  11.900  0.0548  0.0613  0.4188
34383SOL    HW1 8986   5.796   6.752  11.816  0.1691  0.1455  0.4094
34383SOL    HW2 8987   5.802   6.627  11.900  0.0949  0.0501  0.2731
34384SOL     OW 8988   4.778   2.622   1.119  0.2210  0.2208 -0.1900
34384SOL    HW1 8989   4.805   2.550   1.062 -1.4567 -0.6536  0.0447
34384SOL    HW2 8990   4.702   2.661   1.074 -1.0648 -0.4226  1.3339
34385SOL     OW 8991  11.339   8.397  11.150 -0.9290  0.2338  0.1193
34385SOL    HW1 8992  11.354   8.491  11.143 -0.6423  0.2231  0.5280
34385SOL    HW2 8993  11.270   8.389  11.216 -0.5016  0.1297  0.5605
34386SOL     OW 8994   3.153  10.887  10.563  0.6863 -0.3172 -0.7613
34386SOL    HW1 8995   3.101  10.818  10.606  0.2212  0.5862  0.1558
34386SOL    HW2 8996   3.207  10.839  10.500 -0.3052 -1.4241 -0.8135
34387SOL     OW 8997   0.332   2.667   1.724 -0.2279 -0.1623  0.2898
34387SOL    HW1 8998   0.340   2.657   1.819  0.8429  0.1521  0.2406
34387SOL    HW2 8999   0.239   2.652   1.706 -0.5924  0.5545  1.4792
34388SOL     OW 9000   1.261   1.858   4.504 -0.1013  0.3448  0.5853
34388SOL    HW1 9001   1.297   1.933   4.455 -3.9401  1.8150 -0.3741
34388SOL    HW2 9002   1.237   1.895   4.589 -0.1718 -0.3198  0.8543
34389SOL     OW 9003   2.555   1.382   3.287 -0.2171  0.0864  0.1767
34389SOL    HW1 9004   2.484   1.443   3.307 -0.8989 -0.5092 -0.3965
34389SOL    HW2 9005   2.517   1.320   3.225  0.9015 -0.0358 -0.4211
34390SOL     OW 9006   7.791   3.039  10.249  0.2464 -0.1357 -0.1322
34390SOL    HW1 9007   7.765   3.131  10.253  0.9825  0.1067 -0.6696
34390SOL    HW2 9008   7.737   2.996  10.315 -1.1291  0.4295 -0.8595
34391SOL     OW 9009  11.677   4.429   5.822 -0.0287  0.3529  0.2701
34391SOL    HW1 9010  11.673   4.519   5.854 -0.5435  0.1893  0.6725
34391SOL    HW2 9011  11.763   4.397   5.850  0.1858  0.7459  0.0577
34392SOL     OW 9012   0.544   0.447   9.243 -0.1110  0.2373 -0.3308
34392SOL    HW1 9013   0.594   0.407   9.314 -1.4655 -0.3425  0.3267
34392SOL    HW2 9014   0.514   0.373   9.190 -1.6663  0.4230  0.2408
34393SOL     OW 9015   6.684   4.325   4.617  0.1892 -0.6841  0.3936
34393SOL    HW1 9016   6.630   4.272   4.675 -0.1489 -1.5385 -0.6658
34393SOL    HW2 9017   6.773   4.313   4.649 -0.3080  2.1717  3.2969
34394SOL     OW 9018   1.615   2.497  11.249 -0.4372  0.4422  0.7719
34394SOL    HW1 9019   1.554   2.535  11.312  0.1873  0.8359  1.1466
34394SOL    HW2 9020   1.602   2.548  11.169  0.1097  1.1974  1.1510
34395SOL     OW 9021   4.618   6.329  10.202  0.2637  0.1213 -1.0275
34395SOL    HW1 9022   4.598   6.270  10.130 -3.0931 -0.3905  0.1496
34395SOL    HW2 9023   4.608   6.417  10.166 -3.2024 -0.0991 -0.9776
34396SOL     OW 9024   7.902   2.266   9.254  0.3067  0.1500 -0.3647
34396SOL    HW1 9025   7.888   2.361   9.255 -1.3905 -0.0836  1.1987
34396SOL    HW2 9026   7.990   2.255   9.290 -0.4378  1.0295  1.8723
34397SOL     OW 9027  12.025   8.400   9.573  0.1538 -0.2193 -0.6418
34397SOL    HW1 9028  11.950   8.347   9.597 -0.1840  0.2721 -0.6103
34397SOL    HW2 9029  12.026   8.398   9.477  0.1737 -0.3290 -0.6389
34398SOL     OW 9030   0.073  10.917   8.315  0.0410  0.1602 -0.1907
34398SOL    HW1 9031   0.011  10.918   8.241 -0.4185  0.0032  0.1838
34398SOL    HW2 9032   0.155  10.948   8.278 -0.5846  1.6255 -0.4266
34399SOL     OW 9033   1.517  10.518   6.374  0.3324  0.4287  0.6394
34399SOL    HW1 9034   1.608  10.514   6.405  0.8942  2.1472 -0.5989
34399SOL    HW2 9035   1.523  10.566   6.291 -1.7105  0.5355  0.5142
34400SOL     OW 9036   8.817  12.225  10.746 -0.6665  0.2737  0.0467
34400SOL    HW1 9037   8.869  12.228  10.827 -0.1551  0.2304 -0.2766
34400SOL    HW2 9038   8.746  12.164  10.766 -1.3797  1.3739  0.9518
34401SOL     OW 9039  12.172   3.582   7.323 -0.5651 -0.2932 -0.0971
34401SOL    HW1 9040  12.239   3.612   7.384 -0.9762  0.9526 -0.2352
34401SOL    HW2 9041  12.195   3.622   7.240 -0.1132 -1.8347 -0.7487
34402SOL     OW 9042   3.896  11.793  11.611 -0.3930  0.4577 -0.0674
34402SOL    HW1 9043   3.847  11.729  11.662  0.7269 -0.1568  0.2629
34402SOL    HW2 9044   3.960  11.742  11.562  0.4422  1.2914  0.1159
34403SOL     OW 9045  12.183   4.317   7.672 -0.3738 -0.4373  0.5790
34403SOL    HW1 9046  12.216   4.260   7.603  1.8846  1.2545  0.1407
34403SOL    HW2 9047  12.126   4.379   7.627  0.2139 -0.0222  0.3936
34404SOL     OW 9048   6.728   0.547   0.399  0.3335  0.1404  0.1522
34404SOL    HW1 9049   6.685   0.582   0.477  0.2314 -1.0020  0.6256
34404SOL    HW2 9050   6.656   0.518   0.343  0.4119 -2.0400  1.0689
34405SOL     OW 9051   5.387   0.983  11.779 -0.3016 -0.5919 -0.1852
34405SOL    HW1 9052   5.378   1.055  11.716 -2.7719 -1.0903 -0.5402
34405SOL    HW2 9053   5.319   0.999  11.844 -0.1931 -2.0220  0.3270
34406SOL     OW 9054   3.837  11.946   5.979  0.4686 -0.3380  0.2546
34406SOL    HW1 9055   3.896  11.948   5.903 -0.2810  2.0833 -0.3304
34406SOL    HW2 9056   3.749  11.945   5.941  0.0967 -0.3915  1.1081
34407SOL     OW 9057   7.126   2.714   0.521  0.0554 -0.0858  0.1208
34407SOL    HW1 9058   7.063   2.654   0.480 -1.5399  1.5322  0.0648
34407SOL    HW2 9059   7.121   2.794   0.468  1.3005  0.4982  0.8349
34408SOL     OW 9060   1.328   6.232   1.043 -0.4032 -0.3920 -0.1101
34408SOL    HW1 9061   1.358   6.305   1.097 -1.1899 -0.2706  0.1771
34408SOL    HW2 9062   1.296   6.273   0.962 -1.0433 -0.3962  0.1385
34409SOL     OW 9063   8.839   6.515   2.799 -0.2785 -0.1909 -0.1043
34409SOL    HW1 9064   8.760   6.466   2.820  1.3157 -2.5341  0.8488
34409SOL    HW2 9065   8.881   6.531   2.884 -0.8318  3.2237 -0.3176
34410SOL     OW 9066   3.523   6.673   6.808  0.0552  0.3496  0.0006
34410SOL    HW1 9067   3.603   6.645   6.765 -0.4418  0.3061 -0.9161
34410SOL    HW2 9068   3.546   6.676   6.901  0.4075 -2.1640  0.0775
34411SOL     OW 9069   9.240   8.562   3.309  0.2323  0.0790  0.2548
34411SOL    HW1 9070   9.177   8.609   3.254  1.0498  2.4239  1.1726
34411SOL    HW2 9071   9.226   8.470   3.288 -1.4329  0.6951 -1.7365
34412SOL     OW 9072   9.902   4.029   6.786  0.2002  0.3767 -0.2118
34412SOL    HW1 9073   9.817   4.013   6.745  0.3071  1.4501 -0.8843
34412SOL    HW2 9074   9.883   4.080   6.864  0.3097  1.7488 -1.0528
34413SOL     OW 9075   4.279   2.031   5.877  0.1389 -0.2199 -0.3144
34413SOL    HW1 9076   4.347   2.091   5.847  0.6553 -1.1432 -1.0702
34413SOL    HW2 9077   4.212   2.035   5.808 -0.4841  0.5065  0.3096
34414SOL     OW 9078  11.003   1.165   6.481 -0.8143  0.0428 -0.0558
34414SOL    HW1 9079  10.988   1.147   6.574  0.0354 -1.5664 -0.1952
34414SOL    HW2 9080  11.026   1.258   6.477  1.4926 -0.3690  1.6585
34415SOL     OW 9081  12.278  12.199   3.287 -0.2834 -0.4505  0.5466
34415SOL    HW1 9082  12.305  12.248   3.210  0.3284 -0.0593  1.0024
34415SOL    HW2 9083  12.266  12.265   3.355  0.3810 -0.9100  1.1207
34416SOL     OW 9084   7.384   9.800   3.250  0.1891 -0.8242 -0.4777
34416SOL    HW1 9085   7.424   9.720   3.283  0.7025 -0.2776  0.2473
34416SOL    HW2 9086   7.312   9.818   3.311  0.1951 -0.6257 -0.5291
34417SOL     OW 9087   7.431   1.721   3.592 -0.8617  0.4282 -0.1270
34417SOL    HW1 9088   7.525   1.709   3.582 -0.7986  0.1379  0.7361
34417SOL    HW2 9089   7.413   1.694   3.682 -1.9995 -0.9101 -0.7295
34418SOL     OW 9090  10.929   5.033   6.203 -0.5391  0.1237  0.0983
34418SOL    HW1 9091  10.845   5.049   6.159 -1.0492 -1.1782  0.5408
34418SOL    HW2 9092  10.991   5.017   6.131 -1.2215 -1.3071 -0.2037
34419SOL     OW 9093   0.457   1.854   5.099 -0.3432  0.2909 -0.3459
34419SOL    HW1 9094   0.423   1.926   5.045  1.3821  0.1998 -1.6101
34419SOL    HW2 9095   0.542   1.885   5.130  0.4777 -1.2174 -0.9881
34420SOL     OW 9096   4.851  10.777   0.280  0.3449 -0.3281  0.3299
34420SOL    HW1 9097   4.943  10.796   0.263  0.4322 -0.9872  0.0236
34420SOL    HW2 9098   4.852  10.719   0.356  0.1031  0.6134  1.0670
34421SOL     OW 9099   6.636  11.530   6.732  0.1262 -0.5727  0.2342
34421SOL    HW1 9100   6.637  11.560   6.641  1.9314  2.0011  0.9743
34421SOL    HW2 9101   6.550  11.558   6.765 -0.1219 -0.5806 -0.3889
34422SOL     OW 9102   6.045   6.670  10.130 -0.4758  0.5026  0.4970
34422SOL    HW1 9103   6.085   6.696  10.213  0.9539  0.4074 -0.1208
34422SOL    HW2 9104   5.979   6.605  10.153  0.3239  0.0231  1.5154
34423SOL     OW 9105   0.499   2.768  12.056  0.0061 -0.7887 -0.1241
34423SOL    HW1 9106   0.498   2.854  12.015  0.3532 -0.4239  0.6160
34423SOL    HW2 9107   0.582   2.730  12.030 -0.1913 -0.9435 -0.5340
34424SOL     OW 9108  11.760  11.460   6.592 -0.1439 -0.0515  0.2250
34424SOL    HW1 9109  11.829  11.444   6.527  1.0697  0.0038  1.4517
34424SOL    HW2 9110  11.683  11.416   6.556  1.0521 -1.8796 -0.2697
34425SOL     OW 9111   1.582   3.235  11.687 -0.2238 -0.0235 -0.4901
34425SOL    HW1 9112   1.590   3.153  11.735  0.1353  0.3965  0.1894
34425SOL    HW2 9113   1.672   3.262  11.669 -0.3283  0.3680 -0.4463
34426SOL     OW 9114  11.131   3.847   6.008 -0.4548  0.5783 -0.0420
34426SOL    HW1 9115  11.109   3.850   6.101  2.7473 -1.7405  0.9861
34426SOL    HW2 9116  11.173   3.761   5.996 -0.1564  1.0672 -3.4924
34427SOL     OW 9117  11.230  10.512   6.164  0.3343 -0.4878 -0.5097
34427SOL    HW1 9118  11.310  10.562   6.146 -0.3377  1.6196  1.7713
34427SOL    HW2 9119  11.222  10.514   6.259 -1.7406 -1.8408 -0.5955
34428SOL     OW 9120   6.686   7.943   9.859  0.3248  0.3914 -0.3513
34428SOL    HW1 9121   6.649   8.024   9.821  0.6070  0.5081 -0.3813
34428SOL    HW2 9122   6.699   7.964   9.951  1.3387  0.7255 -0.5590
34429SOL     OW 9123   4.708   4.848   7.236 -0.4339 -0.1610 -0.1860
34429SOL    HW1 9124   4.780   4.793   7.206 -1.0816 -0.9976 -0.2291
34429SOL    HW2 9125   4.673   4.887   7.156 -0.5790 -0.4415 -0.2611
34430SOL     OW 9126  11.400   3.713   1.326  0.5951 -0.1851 -0.4247
34430SOL    HW1 9127  11.382   3.623   1.297 -2.3009  0.0479  0.2998
34430SOL    HW2 9128  11.344   3.724   1.403 -0.0912  2.6229 -1.2394
34431SOL     OW 9129   5.263   6.722   3.227  0.3251  0.1131  0.1703
34431SOL    HW1 9130   5.215   6.694   3.149 -1.2249 -0.6741  1.3474
34431SOL    HW2 9131   5.279   6.641   3.275  0.1862  0.7014  1.2448
34432SOL     OW 9132   6.346   4.222   4.255 -0.0395 -0.1743 -0.4803
34432SOL    HW1 9133   6.409   4.171   4.306 -0.6734  0.3802  0.9051
34432SOL    HW2 9134   6.380   4.311   4.259 -0.2870 -0.0710 -0.7358
34433SOL     OW 9135  10.619   7.647   1.272  0.0021 -0.0437 -0.1832
34433SOL    HW1 9136  10.702   7.600   1.260 -0.0505 -0.3771  0.6461
34433SOL    HW2 9137  10.557   7.578   1.296 -0.4966  0.2172 -0.7190
34434SOL     OW 9138   0.740   4.024   2.979  0.0143 -0.0665 -0.2053
34434SOL    HW1 9139   0.760   4.098   3.037 -0.8938 -0.1796  0.2697
34434SOL    HW2 9140   0.770   3.947   3.027 -1.8209 -0.2789  0.7009
34435SOL     OW 9141   4.811   6.421   1.373  0.5081  0.1821  0.6065
34435SOL    HW1 9142   4.843   6.332   1.386 -0.1621 -0.1990 -0.2827
34435SOL    HW2 9143   4.844   6.446   1.287 -0.4668  0.2615  0.2409
34436SOL     OW 9144   6.313   6.151   4.993 -0.1656 -0.2287 -0.4406
34436SOL    HW1 9145   6.321   6.229   5.047 -0.9379 -0.1104 -0.4857
34436SOL    HW2 9146   6.395   6.102   5.008  0.9474  1.2205 -1.4420
34437SOL     OW 9147   2.143   4.205   5.773  0.0622  0.1142 -0.6928
34437SOL    HW1 9148   2.236   4.205   5.798  0.0997 -0.5698 -0.8059
34437SOL    HW2 9149   2.110   4.289   5.803  0.7438  0.4044 -0.7339
34438SOL     OW 9150   9.265   6.270   4.002  0.0881 -0.3134 -0.2818
34438SOL    HW1 9151   9.341   6.326   4.019 -0.5706  0.1336  1.4411
34438SOL    HW2 9152   9.190   6.320   4.036 -0.6802 -1.6889  0.1463
34439SOL     OW 9153   7.509  11.295   0.417  0.3597  0.2296  0.1099
34439SOL    HW1 9154   7.576  11.363   0.405 -0.9257  1.4997 -0.1827
34439SOL    HW2 9155   7.427  11.344   0.423 -0.9857 -1.4055 -2.9278
34440SOL     OW 9156   2.545   9.423   3.650  0.5582 -0.0566 -0.3157
34440SOL    HW1 9157   2.460   9.389   3.625  0.0053  0.0339  1.3105
34440SOL    HW2 9158   2.559   9.390   3.739  1.8365  0.6126 -0.2425
34441SOL     OW 9159   3.510  10.227  10.073  0.5021  0.0105 -0.2318
34441SOL    HW1 9160   3.457  10.305  10.088 -0.2292 -0.4947 -0.1038
34441SOL    HW2 9161   3.595  10.260  10.047  0.2068  0.8506 -0.1587
34442SOL     OW 9162   4.481   1.864   6.241  0.1520 -0.1437  0.4543
34442SOL    HW1 9163   4.438   1.889   6.160 -1.1165  2.2044  1.7590
34442SOL    HW2 9164   4.573   1.851   6.217  0.1172  2.0787 -1.1035
34443SOL     OW 9165   7.984   1.069   9.611 -0.5389 -0.4288 -0.1710
34443SOL    HW1 9166   8.075   1.067   9.581 -0.4212 -0.5479  0.1974
34443SOL    HW2 9167   7.940   1.125   9.547 -0.4801 -1.4160 -1.0922
34444SOL     OW 9168   1.893   6.018   9.052  0.1030  0.1708  0.0703
34444SOL    HW1 9169   1.969   6.033   9.108  0.5167  0.2866 -0.5132
34444SOL    HW2 9170   1.891   5.923   9.039  1.3309  0.3145 -1.5062
34445SOL     OW 9171  11.739   7.513   4.387 -0.1197 -0.3867  0.9199
34445SOL    HW1 9172  11.782   7.586   4.342 -1.2851 -0.6131 -0.6547
34445SOL    HW2 9173  11.752   7.438   4.328 -0.1788 -1.1254  1.8292
34446SOL     OW 9174   3.217   5.171   2.502 -0.5475 -0.2159  0.0125
34446SOL    HW1 9175   3.233   5.094   2.448 -0.0837  0.4880 -0.8709
34446SOL    HW2 9176   3.228   5.140   2.592  0.5618 -0.9602 -0.3702
34447SOL     OW 9177   8.344   3.699   5.437  0.2141 -0.5744 -0.0396
34447SOL    HW1 9178   8.410   3.768   5.429  0.3141 -0.8929 -2.6240
34447SOL    HW2 9179   8.388   3.620   5.406 -0.8205 -1.1860  0.0049
34448SOL     OW 9180   8.853   3.504   5.723 -0.1603 -0.1032 -0.0288
34448SOL    HW1 9181   8.785   3.568   5.746 -0.1083  0.3591 -1.1048
34448SOL    HW2 9182   8.841   3.433   5.787 -1.4458  0.1134  0.0118
34449SOL     OW 9183   3.541  11.108   3.168 -0.0184  0.2406 -0.4960
34449SOL    HW1 9184   3.581  11.173   3.111  1.1880 -0.3600 -0.3797
34449SOL    HW2 9185   3.580  11.025   3.139  0.0259 -0.1656  0.6866
34450SOL     OW 9186   9.426  11.088   7.034 -0.2621 -0.6124  0.2904
34450SOL    HW1 9187   9.470  11.101   7.118  0.8413  0.7726 -0.4597
34450SOL    HW2 9188   9.346  11.141   7.040  0.4478  0.5229  0.0312
34451SOL     OW 9189   3.134   0.283   5.855 -0.6251  0.2767  0.2498
34451SOL    HW1 9190   3.220   0.262   5.893 -1.1079  0.3827  1.4680
34451SOL    HW2 9191   3.127   0.226   5.779  0.6297  0.4584 -0.0402
34452SOL     OW 9192   5.904   0.654   7.321 -0.2036 -0.1009  0.4547
34452SOL    HW1 9193   5.950   0.596   7.261 -0.8170 -1.7029  1.4754
34452SOL    HW2 9194   5.902   0.738   7.275  3.0104 -0.1269  0.0542
34453SOL     OW 9195   8.157   1.298  11.013  0.0833  0.0203 -0.1298
34453SOL    HW1 9196   8.089   1.240  10.980  1.2380 -2.5417  1.7126
34453SOL    HW2 9197   8.147   1.296  11.108  1.8600  0.6824  0.1043
34454SOL     OW 9198   8.366   0.136   1.908 -0.1190  0.5022 -0.1463
34454SOL    HW1 9199   8.317   0.200   1.959  0.2732  0.1484  0.6856
34454SOL    HW2 9200   8.299   0.077   1.873 -0.2534 -0.4975  1.6915
34455SOL     OW 9201   5.870   7.011   6.117 -0.5900 -0.0109 -0.3535
34455SOL    HW1 9202   5.865   6.985   6.025  1.9705 -0.6236 -0.3994
34455SOL    HW2 9203   5.928   7.087   6.117 -1.7999  0.9540  0.6326
34456SOL     OW 9204   8.489   3.864   0.109 -0.0035  0.2475 -0.7261
34456SOL    HW1 9205   8.418   3.912   0.152  0.4363  1.2582 -1.0779
34456SOL    HW2 9206   8.446   3.819   0.036 -0.3191  0.7828 -0.8851
34457SOL     OW 9207   7.540  11.724   2.434 -0.5308  0.2548  0.2344
34457SOL    HW1 9208   7.577  11.799   2.481  2.3560 -0.1679 -1.1377
34457SOL    HW2 9209   7.483  11.763   2.368  0.6858  1.2699 -0.2603
34458SOL     OW 9210   8.116   8.915   3.660 -0.0062 -0.0068  0.6641
34458SOL    HW1 9211   8.124   8.986   3.597 -0.8631 -1.5867 -1.3515
34458SOL    HW2 9212   8.054   8.946   3.725  1.5168  1.9840  1.2730
34459SOL     OW 9213   3.736   7.782   9.862  0.0494  0.0755  1.0665
34459SOL    HW1 9214   3.665   7.743   9.912 -0.8519 -1.2586 -1.1326
34459SOL    HW2 9215   3.814   7.734   9.889 -0.1052  0.5077  2.3504
34460SOL     OW 9216   1.421   4.478   3.901 -0.5920  0.5215 -0.1962
34460SOL    HW1 9217   1.387   4.418   3.968 -0.1936  1.8974  1.3139
34460SOL    HW2 9218   1.351   4.542   3.889 -0.2534  0.8685 -0.3226
34461SOL     OW 9219   4.880   6.123   9.304 -0.2185  0.7346 -0.7752
34461SOL    HW1 9220   4.821   6.113   9.379  0.5070 -0.8794 -0.3761
34461SOL    HW2 9221   4.892   6.218   9.295  0.3899  0.9761  1.7461
34462SOL     OW 9222   8.859   7.657   6.317 -0.0856  0.0820  0.0269
34462SOL    HW1 9223   8.815   7.649   6.402  0.7337  1.5183  0.6214
34462SOL    HW2 9224   8.908   7.575   6.307  0.9438  0.4578  1.6242
34463SOL     OW 9225  11.266   3.783   3.074 -0.4732 -0.1510 -0.0847
34463SOL    HW1 9226  11.183   3.828   3.089  0.5276  1.4132  1.1591
34463SOL    HW2 9227  11.263   3.706   3.131 -0.8034  0.2617  0.4612
34464SOL     OW 9228  11.622   1.283   9.941 -0.4423 -0.2257  0.3377
34464SOL    HW1 9229  11.624   1.220  10.013 -0.2393 -1.9388 -1.1040
34464SOL    HW2 9230  11.567   1.354   9.973 -1.1290 -1.3740  1.8325
34465SOL     OW 9231   5.350   1.806   9.325  0.1504 -0.1241  0.6127
34465SOL    HW1 9232   5.400   1.725   9.339  0.2812 -0.7749 -2.6986
34465SOL    HW2 9233   5.319   1.830   9.412  2.6863 -2.0071  2.2162
34466SOL     OW 9234   0.910   3.933   6.800  0.2418  0.3671 -0.4417
34466SOL    HW1 9235   0.970   4.004   6.778  1.2335 -0.3089  0.0175
34466SOL    HW2 9236   0.874   3.905   6.716 -0.7002  1.8507 -0.5729
34467SOL     OW 9237   5.413  10.468   9.164  0.2030 -0.5618 -0.5280
34467SOL    HW1 9238   5.358  10.513   9.227  1.7823 -0.5930  0.9465
34467SOL    HW2 9239   5.432  10.383   9.204  2.0973 -0.1744 -0.4930
34468SOL     OW 9240   5.899   6.158   3.337  0.0378 -0.2844 -0.7011
34468SOL    HW1 9241   5.829   6.172   3.401  0.2285  2.2465 -0.9378
34468SOL    HW2 9242   5.967   6.112   3.386  0.2366  1.6898  1.0248
34469SOL     OW 9243   9.119  11.296   1.005 -0.4222 -0.0541 -0.4484
34469SOL    HW1 9244   9.109  11.344   0.923  0.5295 -0.1008 -0.6050
34469SOL    HW2 9245   9.084  11.209   0.987  0.2962 -0.2414 -0.9900
34470SOL     OW 9246   9.441   7.064   8.227  0.1000 -0.1178 -0.3744
34470SOL    HW1 9247   9.422   7.040   8.318 -0.2228  1.1467 -0.0995
34470SOL    HW2 9248   9.400   6.994   8.175  0.2217 -0.8134  0.4336
34471SOL     OW 9249   6.447   3.904   1.219 -0.4511 -0.5241  0.1345
34471SOL    HW1 9250   6.433   3.879   1.127  0.6071 -2.4134  0.4455
34471SOL    HW2 9251   6.489   3.990   1.214 -0.8351 -0.3817 -1.1243
34472SOL     OW 9252   8.498   7.578   6.326 -0.2871  0.3019  0.2035
34472SOL    HW1 9253   8.461   7.558   6.413 -1.2477 -0.1756 -0.2959
34472SOL    HW2 9254   8.586   7.539   6.328 -0.5547 -0.2936  0.7337
34473SOL     OW 9255   0.343   0.081   5.252  0.0521  0.2140  0.0795
34473SOL    HW1 9256   0.437   0.094   5.262  0.2795 -1.4453  0.4697
34473SOL    HW2 9257   0.304   0.166   5.271  1.3915  0.5702  1.3815
34474SOL     OW 9258  10.318   6.970   2.735 -0.1398  0.4988 -0.5171
34474SOL    HW1 9259  10.354   6.888   2.700  0.9077  0.5641  0.3393
34474SOL    HW2 9260  10.250   6.943   2.797  1.7194  0.1200  1.4783
34475SOL     OW 9261   2.053   5.582   3.199 -0.0630 -0.3853 -0.1307
34475SOL    HW1 9262   2.145   5.555   3.201 -0.5671 -2.2200  0.8714
34475SOL    HW2 9263   2.056   5.677   3.187  1.9693 -0.3623  0.1945
34476SOL     OW 9264   6.115   0.242   8.683 -0.5498 -0.1018  0.7513
34476SOL    HW1 9265   6.113   0.244   8.779  0.1395 -0.6869  0.7912
34476SOL    HW2 9266   6.032   0.281   8.656  0.3710  2.5974  1.5422
34477SOL     OW 9267   1.440  10.703   2.209 -0.4631 -0.7146  0.2812
34477SOL    HW1 9268   1.497  10.712   2.285  0.4723  0.6886 -0.5413
34477SOL    HW2 9269   1.492  10.655   2.145 -1.9394 -3.6971  1.1202
34478SOL     OW 9270   3.739   4.056   0.763  0.2590 -0.3811 -0.6226
34478SOL    HW1 9271   3.669   4.073   0.700 -1.0265  2.0003  1.2301
34478SOL    HW2 9272   3.809   4.117   0.739  0.3357 -0.4444 -0.5607
34479SOL     OW 9273   4.791   5.412   1.141 -0.0392  0.1228  0.2200
34479SOL    HW1 9274   4.717   5.466   1.114  0.6194  0.7363 -0.4089
34479SOL    HW2 9275   4.868   5.458   1.107  0.5802 -0.8965  0.2048
34480SOL     OW 9276   3.285  10.643  10.398 -0.5083  0.6778 -0.2916
34480SOL    HW1 9277   3.314  10.562  10.356  1.0059  1.8226 -1.5630
34480SOL    HW2 9278   3.330  10.712  10.350 -2.5885  2.3662  0.0641
34481SOL     OW 9279   4.274   7.262   5.002  0.0936  0.1127  0.0723
34481SOL    HW1 9280   4.351   7.263   5.059 -1.1398 -0.7351  1.8552
34481SOL    HW2 9281   4.225   7.340   5.027 -0.1164  0.1218 -0.3548
34482SOL     OW 9282  11.275   2.546   7.311  0.2234 -0.3293  0.1809
34482SOL    HW1 9283  11.280   2.606   7.385  1.7602 -2.1363  1.6699
34482SOL    HW2 9284  11.197   2.493   7.328 -0.8220  0.8384 -0.8416
34483SOL     OW 9285   6.351   4.548   9.576 -0.3314  0.5778 -0.0200
34483SOL    HW1 9286   6.260   4.520   9.582 -0.6928  1.7916  0.4297
34483SOL    HW2 9287   6.363   4.572   9.484 -0.3485  0.0430 -0.1632
34484SOL     OW 9288  11.433   0.793  11.010 -0.0819 -0.0366  0.0751
34484SOL    HW1 9289  11.348   0.761  11.039 -0.4037 -1.9669 -2.5885
34484SOL    HW2 9290  11.424   0.802  10.915  2.5533  0.2025 -0.2338
34485SOL     OW 9291   0.878   7.663   9.827 -0.5433  0.2508 -0.5252
34485SOL    HW1 9292   0.858   7.611   9.905  0.8197  1.4970  0.7220
34485SOL    HW2 9293   0.815   7.735   9.830 -0.1667  0.5752 -0.2732
34486SOL     OW 9294   9.151   8.571   7.403  0.0051  0.0881  0.8079
34486SOL    HW1 9295   9.092   8.646   7.410 -0.3880 -0.3093  1.8464
34486SOL    HW2 9296   9.093   8.495   7.398  0.4016 -0.3762  2.6545
34487SOL     OW 9297   3.994  11.046   1.473 -0.0769  0.2932 -1.1709
34487SOL    HW1 9298   3.900  11.056   1.462 -0.1066  1.6153 -0.0188
34487SOL    HW2 9299   4.031  11.130   1.445  0.8130 -0.3425 -1.9943
34488SOL     OW 9300   0.719   2.568   4.635  0.5619 -0.3422  0.0907
34488SOL    HW1 9301   0.676   2.515   4.703 -0.9168 -0.2850 -0.7697
34488SOL    HW2 9302   0.813   2.552   4.649  0.2955 -0.4413  2.0464
34489SOL     OW 9303   9.323   3.182   9.185  0.4181  0.1843  0.5302
34489SOL    HW1 9304   9.244   3.168   9.237  0.6702 -3.1701  0.2525
34489SOL    HW2 9305   9.364   3.095   9.181  1.9491  0.9162 -2.7837
34490SOL     OW 9306   6.178  11.631   2.322 -0.2427 -0.1176  0.3835
34490SOL    HW1 9307   6.258  11.580   2.313 -0.0821 -0.1326  1.6898
34490SOL    HW2 9308   6.113  11.568   2.353 -0.9243 -0.2238 -1.1831
34491SOL     OW 9309   4.947   3.370   6.098 -0.8700 -0.7093  0.3047
34491SOL    HW1 9310   4.969   3.296   6.155  1.9720  0.5329  0.9848
34491SOL    HW2 9311   4.994   3.444   6.135 -2.7504  1.2604 -0.9836
34492SOL     OW 9312   0.827   4.418   0.978  0.9684 -0.7377  0.4033
34492SOL    HW1 9313   0.841   4.341   0.923 -0.5491 -0.4489 -0.4587
34492SOL    HW2 9314   0.896   4.479   0.952  2.2033 -1.7919  1.1248
34493SOL     OW 9315   5.742   0.913   8.611  0.0868  0.2116 -0.6421
34493SOL    HW1 9316   5.797   0.846   8.652  0.6282  1.8629  1.4903
34493SOL    HW2 9317   5.796   0.950   8.542  0.4540 -0.3120 -0.6407
34494SOL     OW 9318  10.805   1.155   7.918  0.5311  0.9042 -0.3135
34494SOL    HW1 9319  10.716   1.184   7.936 -0.1307 -0.6942 -0.8495
34494SOL    HW2 9320  10.860   1.217   7.966 -0.9754 -0.4897  3.6651
34495SOL     OW 9321   1.034   3.835  11.156  0.5181 -0.6476 -0.0830
34495SOL    HW1 9322   1.109   3.836  11.217 -0.0991  2.4449  0.7613
34495SOL    HW2 9323   0.967   3.888  11.199 -0.4127  0.6604 -2.9279
34496SOL     OW 9324  11.251  11.162   7.963  0.4077 -0.0447  0.3764
34496SOL    HW1 9325  11.202  11.243   7.969 -0.4614 -0.6134  1.2934
34496SOL    HW2 9326  11.324  11.173   8.024  0.5693  0.2413  0.1281
34497SOL     OW 9327   6.537   6.906   7.105  0.3615  0.7087 -0.7631
34497SOL    HW1 9328   6.524   6.861   7.188 -0.6976  0.3701 -1.0845
34497SOL    HW2 9329   6.507   6.996   7.121 -1.5201  0.2016 -1.2138
34498SOL     OW 9330   4.536   8.402  11.943 -0.4460  0.2174  0.3475
34498SOL    HW1 9331   4.605   8.460  11.912 -2.2196  2.6426  0.6738
34498SOL    HW2 9332   4.512   8.436  12.029 -0.6982 -1.8298  1.1527
34499SOL     OW 9333   6.011   4.433   2.251  0.0783  0.5746  0.2593
34499SOL    HW1 9334   5.980   4.350   2.215 -0.4373  0.7232  0.3416
34499SOL    HW2 9335   6.104   4.420   2.266 -0.4295 -0.8718  2.6894
34500SOL     OW 9336   0.214   9.740   8.942  0.1457 -0.2488  0.0547
34500SOL    HW1 9337   0.258   9.825   8.929  0.5899 -0.5465 -0.4248
34500SOL    HW2 9338   0.275   9.690   8.995 -0.4471 -0.0164  0.9756
34501SOL     OW 9339   7.697   5.545   5.303 -0.0737  0.0773 -0.0016
34501SOL    HW1 9340   7.611   5.517   5.335  0.1395 -0.8605 -0.2118
34501SOL    HW2 9341   7.749   5.559   5.382  0.2486 -1.5672  0.1114
34502SOL     OW 9342   9.093   3.081  11.043 -0.0555 -0.0609 -0.3904
34502SOL    HW1 9343   9.078   2.993  11.078 -0.3452 -0.4842 -1.5441
34502SOL    HW2 9344   9.109   3.135  11.121 -0.1828 -1.0642  0.3553
34503SOL     OW 9345   3.499   9.215   6.276 -0.2832 -0.0815 -0.1525
34503SOL    HW1 9346   3.571   9.157   6.300 -0.6786 -0.3836  0.3122
34503SOL    HW2 9347   3.542   9.294   6.243  0.2571 -0.4143 -0.2524
34504SOL     OW 9348  10.490   1.953   8.258  0.0891 -0.9295  0.6349
34504SOL    HW1 9349  10.412   2.002   8.231  0.7596 -0.9027 -1.3574
34504SOL    HW2 9350  10.459   1.899   8.331 -1.5221 -0.1514  0.5827
34505SOL     OW 9351   6.572   3.226   7.680  0.3331  0.5262  0.3031
34505SOL    HW1 9352   6.603   3.239   7.591 -1.0327  0.0137 -0.2813
34505SOL    HW2 9353   6.624   3.285   7.734 -0.0653  2.1980 -1.0966
34506SOL     OW 9354   6.099   9.320   8.507  0.0780  0.0996  0.1891
34506SOL    HW1 9355   6.130   9.394   8.560  1.1025  0.9035 -1.4414
34506SOL    HW2 9356   6.037   9.360   8.445  0.8390 -0.3483 -0.8792
34507SOL     OW 9357   5.501   5.818   1.290 -0.4129 -0.3226  0.2471
34507SOL    HW1 9358   5.543   5.757   1.350 -0.6098 -2.0517 -1.2986
34507SOL    HW2 9359   5.409   5.791   1.289 -0.1913 -1.2452 -1.7831
34508SOL     OW 9360   3.291   3.158   9.012 -0.1388  0.1677  0.4212
34508SOL    HW1 9361   3.376   3.140   9.053 -0.2900 -1.4875  0.0550
34508SOL    HW2 9362   3.310   3.158   8.918 -0.1100  2.2912  0.3776
34509SOL     OW 9363   7.133   0.105   2.702  0.3277  0.1751  0.2813
34509SOL    HW1 9364   7.161   0.013   2.708  0.5900  0.2318 -0.0531
34509SOL    HW2 9365   7.037   0.101   2.708  0.2708 -0.2115 -0.7072
34510SOL     OW 9366   2.943   1.005  11.791 -0.0465  0.1674  0.2599
34510SOL    HW1 9367   2.957   0.936  11.727  0.9253  1.2021 -0.6850
34510SOL    HW2 9368   3.017   0.998  11.851  0.2615  0.6206 -0.0627
34511SOL     OW 9369   8.342   0.193  10.245 -0.0175 -0.0171 -0.0538
34511SOL    HW1 9370   8.428   0.203  10.204 -0.2883  0.1963 -0.5794
34511SOL    HW2 9371   8.295   0.131  10.189 -1.0220  1.6344 -1.1195
34512SOL     OW 9372   9.212   0.417   0.394  0.5305 -0.1933  0.0458
34512SOL    HW1 9373   9.174   0.390   0.310  0.4665 -0.0397  0.0241
34512SOL    HW2 9374   9.299   0.377   0.395  0.1446 -1.0387  0.3597
34513SOL     OW 9375   2.509  11.917  11.377  0.3150  0.7095  0.0029
34513SOL    HW1 9376   2.427  11.898  11.332 -0.0860 -0.5214  1.1878
34513SOL    HW2 9377   2.573  11.926  11.307 -0.7283  1.2668 -0.9219
34514SOL     OW 9378   6.432   3.729  10.631 -0.1358 -0.1903  0.3666
34514SOL    HW1 9379   6.528   3.733  10.630 -0.1494  0.9626  1.0901
34514SOL    HW2 9380   6.412   3.658  10.692  0.2936  1.0573  2.0484
34515SOL     OW 9381   2.740   5.926   4.941  0.5142 -0.1166  0.4937
34515SOL    HW1 9382   2.670   5.912   5.006 -1.4767 -1.0439 -1.6952
34515SOL    HW2 9383   2.719   6.011   4.902  1.2856  0.1233  0.5961
34516SOL     OW 9384  10.336   1.907   9.647  0.1794 -0.2976 -0.0112
34516SOL    HW1 9385  10.327   1.896   9.552 -0.0549  0.1585 -0.0403
34516SOL    HW2 9386  10.247   1.921   9.678  0.3842  0.8203  0.1141
34517SOL     OW 9387  10.210   6.385   1.411  0.1182  0.3307  0.2227
34517SOL    HW1 9388  10.288   6.333   1.391 -1.0142 -0.9267 -1.1647
34517SOL    HW2 9389  10.220   6.464   1.359  0.9504  0.6540  0.8630
34518SOL     OW 9390   4.555   9.335  12.084  0.4980 -0.1731 -0.1613
34518SOL    HW1 9391   4.461   9.320  12.078  0.5303 -0.5684  0.2803
34518SOL    HW2 9392   4.567   9.384  12.165  1.0008 -3.2940  1.8365
34519SOL     OW 9393   6.992   7.725   4.762  0.3611 -0.3430  0.7835
34519SOL    HW1 9394   6.912   7.674   4.778 -0.9106  1.1521 -0.4272
34519SOL    HW2 9395   7.012   7.766   4.846  0.1261 -1.0830  1.2083
34520SOL     OW 9396  10.383   2.300   3.701  0.0452  0.3636 -0.3291
34520SOL    HW1 9397  10.318   2.257   3.757  0.4255 -0.0419 -0.1885
34520SOL    HW2 9398  10.337   2.317   3.619 -0.0797 -0.4280 -0.4284
34521SOL     OW 9399   2.108   2.415   4.565 -0.1969  0.0005  0.0927
34521SOL    HW1 9400   2.019   2.406   4.599  0.0496  0.5464  0.9153
34521SOL    HW2 9401   2.152   2.471   4.628  0.1936  1.3546 -1.3361
34522SOL     OW 9402   6.420   1.268   4.785 -0.3476  0.5300 -0.5906
34522SOL    HW1 9403   6.431   1.341   4.847  1.2542 -0.8115  0.8112
34522SOL    HW2 9404   6.396   1.193   4.840  0.3837 -0.5323 -1.6631
34523SOL     OW 9405   0.753   1.250  10.182 -0.2980  0.1177  0.4754
34523SOL    HW1 9406   0.738   1.167  10.227 -2.6661  0.1295 -0.1555
34523SOL    HW2 9407   0.710   1.316  10.237  0.5808  0.7788  0.3929
34524SOL     OW 9408   9.344   5.508   6.156 -0.2730 -0.4015 -0.3559
34524SOL    HW1 9409   9.288   5.430   6.156  1.2559 -1.5418 -0.5915
34524SOL    HW2 9410   9.332   5.545   6.069  0.6666 -1.6554 -1.0437
34525SOL     OW 9411  11.023   4.997   6.468  0.0214  0.2886  0.4316
34525SOL    HW1 9412  10.951   5.033   6.520  0.5760  0.8056  0.8523
34525SOL    HW2 9413  10.984   4.979   6.383 -1.7945 -3.7408  1.8977
34526SOL     OW 9414   9.523   8.406   6.457  0.1820  0.1707 -0.0047
34526SOL    HW1 9415   9.513   8.372   6.546  0.5880  0.0718  0.0062
34526SOL    HW2 9416   9.433   8.410   6.423 -0.1462  1.6788  0.9340
34527SOL     OW 9417   6.590   3.263  12.073  0.2383  0.1166 -0.1517
34527SOL    HW1 9418   6.507   3.221  12.051 -0.1476  0.2271  1.0094
34527SOL    HW2 9419   6.652   3.230  12.008 -0.3761 -1.1322 -0.1267
34528SOL     OW 9420   1.562   0.930   3.967 -0.0034  0.0112 -0.1852
34528SOL    HW1 9421   1.599   0.985   4.036 -0.4609  1.2440 -0.8908
34528SOL    HW2 9422   1.483   0.894   4.006 -0.5664  1.1550 -0.2130
34529SOL     OW 9423  10.181   0.097   2.736 -0.4432 -0.2314 -0.5696
34529SOL    HW1 9424  10.156   0.030   2.800 -0.6491 -0.1661 -0.5808
34529SOL    HW2 9425  10.271   0.075   2.713 -1.0641 -1.5959 -1.9120
34530SOL     OW 9426   2.916   2.156   3.761 -0.5906  0.2622 -0.5146
34530SOL    HW1 9427   2.868   2.195   3.835 -3.6916 -0.9434 -1.7217
34530SOL    HW2 9428   2.927   2.064   3.784 -0.7319  0.0791 -1.1471
34531SOL     OW 9429   8.759  11.345  10.473  0.4119  0.3178 -0.1823
34531SOL    HW1 9430   8.664  11.352  10.460  0.2823  0.5637  0.8137
34531SOL    HW2 9431   8.791  11.435  10.469  0.8175  0.1272 -1.8962
34532SOL     OW 9432   3.025   9.832   7.165  0.3490  0.2921 -0.6730
34532SOL    HW1 9433   2.991   9.893   7.230 -1.3342 -2.0114  0.7212
34532SOL    HW2 9434   3.103   9.794   7.205 -1.1347 -1.7196  0.4581
34533SOL     OW 9435   9.524   0.425   5.122 -0.0973  0.0150 -0.2398
34533SOL    HW1 9436   9.540   0.460   5.035 -0.6820  0.5816 -0.1290
34533SOL    HW2 9437   9.432   0.446   5.140 -0.6280 -2.0065 -0.3660
34534SOL     OW 9438   4.415   2.234  10.346 -0.6680  0.5281  0.0391
34534SOL    HW1 9439   4.477   2.201  10.410 -1.4483 -1.5266 -0.1963
34534SOL    HW2 9440   4.399   2.325  10.372 -0.2709  0.0204  2.1831
34535SOL     OW 9441   5.180   9.845   8.681  0.1993  0.0842 -0.3980
34535SOL    HW1 9442   5.091   9.844   8.715  0.2807  2.7254  0.0833
34535SOL    HW2 9443   5.236   9.844   8.759  0.6213 -1.5638 -0.6952
34536SOL     OW 9444   2.633   6.956   9.454 -0.8651  0.1748  0.2692
34536SOL    HW1 9445   2.574   6.896   9.409  0.9893 -0.2486 -1.7799
34536SOL    HW2 9446   2.583   7.038   9.462 -2.2638 -0.6360  0.0761
34537SOL     OW 9447  11.246  11.164   8.378 -0.3948  0.1687 -0.4082
34537SOL    HW1 9448  11.247  11.153   8.473 -0.1106 -3.3289 -0.6808
34537SOL    HW2 9449  11.163  11.125   8.351  1.9911 -4.8285 -1.8519
34538SOL     OW 9450   5.999   0.235   0.177 -0.6233 -0.1097  0.1555
34538SOL    HW1 9451   5.933   0.286   0.223 -0.0114  0.0740  0.8616
34538SOL    HW2 9452   6.031   0.173   0.242 -0.2533 -0.3323 -0.2311
34539SOL     OW 9453  11.132   3.891  10.684 -0.3676 -0.6062  0.4145
34539SOL    HW1 9454  11.140   3.822  10.619 -1.7188 -0.3036 -0.0907
34539SOL    HW2 9455  11.054   3.940  10.659 -0.0080  0.4930  1.3445
34540SOL     OW 9456  11.587   6.795   9.749 -0.1920 -0.5537  0.5860
34540SOL    HW1 9457  11.612   6.782   9.657 -1.2628 -1.2265  0.3744
34540SOL    HW2 9458  11.655   6.852   9.785 -1.0277  1.7041 -1.2207
34541SOL     OW 9459  11.829   5.051   2.548  1.0018 -0.1977  0.4557
34541SOL    HW1 9460  11.835   5.146   2.541 -0.3222  0.0106  1.7743
34541SOL    HW2 9461  11.739   5.030   2.522 -0.0720 -0.6082  3.9966
34542SOL     OW 9462   7.213   8.935  12.193  0.3239 -0.5350  0.4702
34542SOL    HW1 9463   7.147   8.910  12.128  1.1566 -1.1958 -0.1447
34542SOL    HW2 9464   7.163   8.974  12.264 -0.6227  0.1710 -0.5437
34543SOL     OW 9465   0.312   4.115   6.720 -0.3961  0.2995 -0.4166
34543SOL    HW1 9466   0.232   4.090   6.766 -0.1676  0.2286 -0.0507
34543SOL    HW2 9467   0.310   4.211   6.721 -1.0381  0.3092 -1.4094
34544SOL     OW 9468   2.890   1.132   4.143  0.3466 -0.0521 -0.2690
34544SOL    HW1 9469   2.916   1.050   4.101  1.2182  0.2824 -0.4089
34544SOL    HW2 9470   2.843   1.180   4.075 -1.3542 -0.9722  0.2033
34545SOL     OW 9471   6.254   2.649   3.975  0.1049 -0.6587  0.0432
34545SOL    HW1 9472   6.179   2.704   4.001 -0.7970 -2.7352  2.2668
34545SOL    HW2 9473   6.298   2.699   3.907 -0.6959  2.7611  1.8068
34546SOL     OW 9474   2.644  10.159   4.439 -0.2162 -0.0590  0.2053
34546SOL    HW1 9475   2.685  10.157   4.525  0.8059  1.4511 -0.2104
34546SOL    HW2 9476   2.715  10.137   4.378 -0.2725  1.4799 -0.4434
34547SOL     OW 9477   9.426  12.146   3.522  0.2035 -0.1419 -0.6024
34547SOL    HW1 9478   9.495  12.117   3.462  0.6581  1.0791 -0.6972
34547SOL    HW2 9479   9.470  12.207   3.581 -0.6388  0.0740 -0.1879
34548SOL     OW 9480   1.164   8.922   8.754  0.9702 -0.1059 -0.4101
34548SOL    HW1 9481   1.221   8.877   8.692 -0.3052 -0.6572 -1.2259
34548SOL    HW2 9482   1.223   8.956   8.822  1.9978 -3.1768  0.3866
34549SOL     OW 9483   7.893   0.419   7.959  0.5456  0.2158 -0.3533
34549SOL    HW1 9484   7.861   0.416   8.049  0.6551  0.2166 -0.3149
34549SOL    HW2 9485   7.849   0.494   7.920 -2.0639 -1.6195 -1.2466
34550SOL     OW 9486   7.873   1.290   9.475 -0.3583 -0.1994 -0.6390
34550SOL    HW1 9487   7.849   1.305   9.566  0.8845  0.5560 -0.4111
34550SOL    HW2 9488   7.874   1.377   9.435  0.4221 -0.3723 -1.0169
34551SOL     OW 9489  10.548   8.135   6.338 -0.3938  0.4040 -0.4244
34551SOL    HW1 9490  10.462   8.099   6.360 -0.3468  1.2544  1.2806
34551SOL    HW2 9491  10.539   8.229   6.353  1.8964  0.1808  4.0280
34552SOL     OW 9492   0.548   4.347   4.456  0.1275 -0.4909 -0.4728
34552SOL    HW1 9493   0.600   4.267   4.454  1.8221  0.5815 -1.6625
34552SOL    HW2 9494   0.610   4.416   4.480 -1.7123  0.2569  2.8587
34553SOL     OW 9495   6.148   5.857   6.316 -0.1999  0.0932 -0.2549
34553SOL    HW1 9496   6.236   5.847   6.351 -0.9489 -1.5734  1.3061
34553SOL    HW2 9497   6.145   5.801   6.239  0.5209  1.3194 -1.1999
34554SOL     OW 9498   7.788   3.047   2.696  0.1027 -0.0598 -0.5709
34554SOL    HW1 9499   7.775   3.137   2.726 -0.8286 -0.8591  1.7074
34554SOL    HW2 9500   7.882   3.031   2.706  0.4483  0.9411 -1.9865
34555SOL     OW 9501   5.617   8.891   2.383  0.0604  0.2519 -0.2931
34555SOL    HW1 9502   5.713   8.889   2.383  0.0659 -1.6490 -0.8752
34555SOL    HW2 9503   5.593   8.889   2.290 -0.5316 -0.6479 -0.1282
34556SOL     OW 9504  10.747   5.902   1.635 -0.0145 -0.0072  0.7909
34556SOL    HW1 9505  10.687   5.921   1.563  2.2650  0.0143 -1.2059
34556SOL    HW2 9506  10.733   5.973   1.698  0.0629  1.7368 -1.0724
34557SOL     OW 9507   4.212  10.452   0.321  0.4145 -0.3052  0.2801
34557SOL    HW1 9508   4.147  10.504   0.274  0.7882 -1.0298 -1.1021
34557SOL    HW2 9509   4.173  10.365   0.327  0.0235 -0.0430  2.0869
34558SOL     OW 9510   2.616   6.669   0.650 -0.2571 -0.0266 -0.1167
34558SOL    HW1 9511   2.675   6.712   0.589 -0.7550  1.4608  0.4003
34558SOL    HW2 9512   2.559   6.615   0.595  0.2397  0.1489 -0.8127
34559SOL     OW 9513   6.600  10.465  11.018  0.3188  0.0189  0.4157
34559SOL    HW1 9514   6.589  10.558  10.999 -0.9766 -0.6078 -2.3705
34559SOL    HW2 9515   6.683  10.442  10.976  0.9112 -0.0391  1.5556
34560SOL     OW 9516   3.268   5.627   3.632 -0.1862  0.4330 -0.1664
34560SOL    HW1 9517   3.198   5.687   3.605  0.5851  2.1617  1.4422
34560SOL    HW2 9518   3.282   5.570   3.556 -1.8766  1.4271 -1.2738
34561SOL     OW 9519  10.782   8.504   8.093 -0.2508  0.2497 -0.3831
34561SOL    HW1 9520  10.771   8.412   8.116 -0.8961  0.3434 -0.2958
34561SOL    HW2 9521  10.829   8.541   8.168 -0.1798  0.0313 -0.3191
34562SOL     OW 9522   3.575  10.550   6.441 -0.1907  0.5199 -0.4191
34562SOL    HW1 9523   3.607  10.601   6.366 -0.7113  1.0241 -0.2984
34562SOL    HW2 9524   3.567  10.613   6.512  3.6572 -0.4750  1.1868
34563SOL     OW 9525   0.006   0.866   3.775 -0.0098 -0.0072  0.1054
34563SOL    HW1 9526  -0.063   0.823   3.826 -1.4407  1.1251 -0.7912
34563SOL    HW2 9527   0.087   0.825   3.805 -0.8186  0.2687  2.9391
34564SOL     OW 9528   3.037   1.174   8.368 -0.7090 -0.1209  0.2498
34564SOL    HW1 9529   2.975   1.226   8.317  0.3289  0.0258 -0.9196
34564SOL    HW2 9530   3.093   1.239   8.411  0.0237 -0.2368 -0.4966
34565SOL     OW 9531   2.757   7.981  12.262 -0.2170 -0.2463  0.7136
34565SOL    HW1 9532   2.694   7.954  12.195 -1.0783  1.3871  0.8009
34565SOL    HW2 9533   2.831   7.922  12.251 -1.9499 -2.6430  0.9845
34566SOL     OW 9534   0.206   2.258   8.795 -0.3492  0.5051 -0.6942
34566SOL    HW1 9535   0.133   2.296   8.747  0.6933  1.3264 -1.6984
34566SOL    HW2 9536   0.284   2.293   8.752  0.6431  0.5929  1.0746
34567SOL     OW 9537   6.781   0.766  10.500 -0.6885  0.5782  0.0190
34567SOL    HW1 9538   6.721   0.692  10.499 -0.9636  0.7974 -0.4481
34567SOL    HW2 9539   6.736   0.833  10.551  0.3576 -0.1929  2.0739
34568SOL     OW 9540  10.510  11.974  10.777 -0.2576 -0.1199  0.1125
34568SOL    HW1 9541  10.565  11.949  10.703 -0.1278 -0.1801  0.2285
34568SOL    HW2 9542  10.438  12.024  10.738  0.5506  1.0489  0.1056
34569SOL     OW 9543  10.248  11.335  11.495 -0.0583 -0.2612  0.4157
34569SOL    HW1 9544  10.332  11.292  11.482  0.0760 -0.0544  0.5968
34569SOL    HW2 9545  10.260  11.422  11.457 -0.2103 -0.2532  0.3857
34570SOL     OW 9546   6.124   8.244   3.534  0.0379 -0.0231  0.1209
34570SOL    HW1 9547   6.144   8.152   3.553  1.2320  0.0905 -0.4377
34570SOL    HW2 9548   6.152   8.291   3.613  0.7441 -0.0146 -0.1206
34571SOL     OW 9549   4.271   5.280  11.108  0.2910 -0.0501  0.2497
34571SOL    HW1 9550   4.263   5.296  11.202  0.6037  2.0466 -0.0287
34571SOL    HW2 9551   4.283   5.367  11.070 -0.0648 -0.8348 -1.7693
34572SOL     OW 9552   8.884   2.952  11.760 -0.6419  0.1078 -0.0344
34572SOL    HW1 9553   8.822   2.882  11.736  0.2615  0.1046 -2.8203
34572SOL    HW2 9554   8.845   3.032  11.725 -1.2690  0.9589  2.4096
34573SOL     OW 9555   8.580   8.158   0.243  0.5667  0.7018 -0.4639
34573SOL    HW1 9556   8.624   8.235   0.281  0.7345  0.5116 -0.2706
34573SOL    HW2 9557   8.610   8.156   0.152 -0.6569  1.7674 -0.9075
34574SOL     OW 9558   0.437   3.880   5.360  0.6937 -0.6873  0.1946
34574SOL    HW1 9559   0.500   3.822   5.316  0.8959  0.1709 -0.6753
34574SOL    HW2 9560   0.402   3.935   5.290  1.0214  0.7204  1.0998
34575SOL     OW 9561   0.958   3.402   2.279  0.5020 -0.2503  0.5892
34575SOL    HW1 9562   0.880   3.349   2.293 -0.1681  0.2370 -1.0064
34575SOL    HW2 9563   0.932   3.465   2.211  2.1346  0.2351  0.3651
34576SOL     OW 9564   6.000   3.521  11.185  0.2806  0.5893 -0.3487
34576SOL    HW1 9565   6.055   3.556  11.115 -0.1043  2.1129  0.0797
34576SOL    HW2 9566   5.926   3.581  11.191 -0.6171 -0.5091  0.1922
34577SOL     OW 9567   5.716  11.254   2.442 -0.1112 -0.1883 -0.1376
34577SOL    HW1 9568   5.752  11.198   2.373 -2.5914  1.1500 -2.7112
34577SOL    HW2 9569   5.649  11.200   2.484  0.5589 -0.5839  0.4550
34578SOL     OW 9570  10.126   3.381   2.762 -0.2986 -0.3526 -0.0933
34578SOL    HW1 9571  10.033   3.386   2.784 -0.1718  0.4222  0.2805
34578SOL    HW2 9572  10.169   3.357   2.844 -0.1266 -0.3130 -0.1711
34579SOL     OW 9573   3.710   0.297   0.003 -0.0581  0.1155  0.5610
34579SOL    HW1 9574   3.639   0.360   0.010 -0.2200 -0.2124  2.3264
34579SOL    HW2 9575   3.689   0.230   0.068 -0.8876 -2.8091 -2.4370
34580SOL     OW 9576   9.795   2.650   6.547 -0.0878  0.6144 -0.4323
34580SOL    HW1 9577   9.739   2.576   6.523  0.7427  0.2786 -1.4027
34580SOL    HW2 9578   9.740   2.727   6.534 -0.5415  0.2475 -0.7117
34581SOL     OW 9579  10.206   1.748   7.849  0.0790 -0.2141  0.5411
34581SOL    HW1 9580  10.285   1.706   7.817 -0.3573 -0.7790  0.1735
34581SOL    HW2 9581  10.216   1.747   7.945  0.6729  0.0470  0.4826
34582SOL     OW 9582   2.530   6.711   8.456 -0.0406  0.1951 -0.3622
34582SOL    HW1 9583   2.468   6.673   8.520 -1.9951  1.5730 -1.3317
34582SOL    HW2 9584   2.474   6.748   8.388  1.9317  0.7488 -1.7678
34583SOL     OW 9585   7.309   7.693   2.136  0.3756 -0.2100 -0.0910
34583SOL    HW1 9586   7.318   7.788   2.134  1.3060 -0.2776  0.4075
34583SOL    HW2 9587   7.328   7.664   2.047  1.1254 -0.0123  0.0036
34584SOL     OW 9588   0.056  12.022   6.048 -0.0210  0.1345  0.0466
34584SOL    HW1 9589   0.143  12.004   6.013 -0.0650  0.9404 -0.5148
34584SOL    HW2 9590  -0.003  12.000   5.976 -0.4765 -2.3482  1.0802
34585SOL     OW 9591  11.399   5.818   8.380  0.7972 -0.2022 -0.0737
34585SOL    HW1 9592  11.355   5.893   8.340  0.4032 -0.8056 -0.7856
34585SOL    HW2 9593  11.328   5.758   8.404  1.1100 -0.3662  0.4593
34586SOL     OW 9594  11.283  12.013   8.491  0.3008  0.8135 -0.2004
34586SOL    HW1 9595  11.372  11.986   8.470  0.1417  0.8656 -0.9525
34586SOL    HW2 9596  11.291  12.106   8.512  0.4428  0.7872 -0.1345
34587SOL     OW 9597   2.925   3.745   8.283 -0.2140  0.2948  0.3073
34587SOL    HW1 9598   2.909   3.779   8.371  1.8790  1.6460  0.2199
34587SOL    HW2 9599   2.920   3.822   8.226 -0.1922 -0.3381 -0.5682
34588SOL     OW 9600   5.178   8.960   5.562  0.1253  0.5343 -0.2631
34588SOL    HW1 9601   5.174   8.891   5.628 -1.1620 -1.0276 -1.8960
34588SOL    HW2 9602   5.265   8.950   5.523  1.0825  1.7730  1.4297
34589SOL     OW 9603   9.682   9.777   5.665  0.3514 -0.3764  0.4051
34589SOL    HW1 9604   9.629   9.845   5.625 -0.4926 -0.7289  0.8875
34589SOL    HW2 9605   9.735   9.823   5.730 -0.6413 -0.2375  1.1454
34590SOL     OW 9606   6.886   7.758   1.870  0.6678 -0.5469 -0.0712
34590SOL    HW1 9607   6.928   7.677   1.898 -1.6934 -0.8558  3.0644
34590SOL    HW2 9608   6.937   7.827   1.913  0.4101 -0.6429  0.3929
34591SOL     OW 9609   2.602   0.632   6.767  0.1240 -0.2149 -0.2849
34591SOL    HW1 9610   2.586   0.679   6.685  4.1965 -0.3352 -1.3777
34591SOL    HW2 9611   2.559   0.548   6.755 -0.6118  0.3209 -1.6492
34592SOL     OW 9612   7.464   6.166   1.306  0.2012 -0.3122 -0.4627
34592SOL    HW1 9613   7.383   6.200   1.343  0.1550 -1.8756  0.9989
34592SOL    HW2 9614   7.500   6.239   1.255  0.7070  2.3559  3.3070
34593SOL     OW 9615   1.653  10.130   9.539 -0.2195 -0.6884  0.0505
34593SOL    HW1 9616   1.716  10.134   9.468  0.1684 -0.7148  0.3865
34593SOL    HW2 9617   1.707  10.127   9.618 -0.6553  0.7067  0.4192
34594SOL     OW 9618   3.588  11.849   7.316 -0.4332  0.8676  0.1032
34594SOL    HW1 9619   3.664  11.801   7.349 -1.2703 -0.2934  0.3806
34594SOL    HW2 9620   3.513  11.807   7.357 -1.3206  1.1790 -1.1406
34595SOL     OW 9621   1.655   6.759  10.937  0.4132  0.6485 -0.2067
34595SOL    HW1 9622   1.563   6.751  10.959 -0.0303  0.2300 -2.0342
34595SOL    HW2 9623   1.661   6.841  10.888  0.7678  0.0874 -1.1310
34596SOL     OW 9624  11.799   0.816   6.316  0.0076 -0.6496 -0.0778
34596SOL    HW1 9625  11.843   0.898   6.291  2.4828 -2.0110 -0.5220
34596SOL    HW2 9626  11.763   0.834   6.402 -0.8522  1.3583 -0.7852
34597SOL     OW 9627   4.812   7.160   9.121  0.4345 -0.3103  0.2398
34597SOL    HW1 9628   4.854   7.098   9.181 -0.0802 -0.8424  0.0588
34597SOL    HW2 9629   4.741   7.110   9.080  0.0888  0.3626 -0.0029
34598SOL     OW 9630  10.830   9.368   5.415 -0.0711 -0.4804  0.1804
34598SOL    HW1 9631  10.837   9.464   5.420  0.0613 -0.3457 -1.8497
34598SOL    HW2 9632  10.839   9.339   5.506 -2.0211  1.5377  1.1372
34599SOL     OW 9633  12.151   2.534   2.065 -0.0525  0.1473  0.2077
34599SOL    HW1 9634  12.191   2.490   1.990  1.0547  0.0285  0.8462
34599SOL    HW2 9635  12.094   2.600   2.027  1.5480  1.0260 -0.7675
34600SOL     OW 9636   9.542   8.610   5.647 -0.2327  0.0361 -0.6364
34600SOL    HW1 9637   9.487   8.538   5.618 -0.5507  0.3477 -0.8118
34600SOL    HW2 9638   9.628   8.590   5.609  0.2315 -1.3243  1.0235
34601SOL     OW 9639   5.644   9.136   3.469  0.2928 -0.2600 -0.9963
34601SOL    HW1 9640   5.651   9.158   3.376  0.1918  0.0474 -0.9312
34601SOL    HW2 9641   5.620   9.218   3.512 -3.8024 -1.1813 -1.1931
34602SOL     OW 9642  10.678   0.616   9.086 -0.0690 -0.5207 -0.4514
34602SOL    HW1 9643  10.698   0.535   9.039  1.5150 -0.4793  0.0973
34602SOL    HW2 9644  10.698   0.686   9.023 -1.4081 -0.5249 -0.9142
34603SOL     OW 9645   2.346   6.907   9.647  0.2671 -0.1704 -0.2983
34603SOL    HW1 9646   2.318   6.927   9.558  1.6357 -0.5210 -0.8411
34603SOL    HW2 9647   2.268   6.919   9.700  0.2037  3.7909 -0.9427
34604SOL     OW 9648   2.425   3.060   4.146  0.1135  0.3417 -0.6076
34604SOL    HW1 9649   2.455   3.149   4.164 -1.4592  0.9504 -0.8567
34604SOL    HW2 9650   2.473   3.034   4.067  1.6377  0.4053  0.2606
34605SOL     OW 9651   5.841   3.736  11.032  0.1912 -0.6557 -0.0895
34605SOL    HW1 9652   5.826   3.654  10.985  0.7307 -0.6240 -0.3178
34605SOL    HW2 9653   5.753   3.772  11.044  0.0618 -0.4880 -1.3937
34606SOL     OW 9654  12.213   4.880   9.611  0.6407  0.2041 -0.3254
34606SOL    HW1 9655  12.185   4.939   9.541  1.9118  0.4498 -0.6385
34606SOL    HW2 9656  12.246   4.937   9.680  0.0851 -0.0741  0.1835
34607SOL     OW 9657   6.051   9.493   5.289  0.6262 -0.1554 -0.2796
34607SOL    HW1 9658   6.007   9.514   5.206  1.2590  0.1556 -0.5355
34607SOL    HW2 9659   5.998   9.422   5.325 -0.1007  0.2111 -0.5804
34608SOL     OW 9660   1.088  10.025   2.324 -0.4963  0.3364  0.5593
34608SOL    HW1 9661   1.113  10.063   2.240 -0.4271 -0.3216  0.2787
34608SOL    HW2 9662   0.992  10.031   2.326 -0.4600  1.0159  0.7613
34609SOL     OW 9663   9.996   4.809  11.476 -0.5903 -0.2656 -0.2808
34609SOL    HW1 9664  10.065   4.840  11.536 -0.8320 -1.6198  0.7400
34609SOL    HW2 9665  10.011   4.714  11.470 -2.4528 -0.6110  0.0876
34610SOL     OW 9666   9.677   6.479   0.907 -0.1562  0.6347 -0.4017
34610SOL    HW1 9667   9.723   6.398   0.887  0.5683  1.1714 -0.9643
34610SOL    HW2 9668   9.719   6.512   0.986  0.2941  1.0078 -0.7872
34611SOL     OW 9669   2.041   3.488   5.676  0.3982 -0.0823 -0.1422
34611SOL    HW1 9670   2.091   3.422   5.723  0.0550  0.9982  1.8332
34611SOL    HW2 9671   1.972   3.514   5.736 -0.3112  1.0850 -1.4063
34612SOL     OW 9672   1.114   7.499   6.613 -0.3816  0.0704 -0.3290
34612SOL    HW1 9673   1.042   7.438   6.629  0.0625 -0.2770  0.4129
34612SOL    HW2 9674   1.072   7.585   6.612 -0.6941 -0.0298  1.1657
34613SOL     OW 9675   7.049  11.211   7.155  0.4465  0.6062  0.2027
34613SOL    HW1 9676   7.065  11.167   7.071 -0.8276 -2.8904  1.6209
34613SOL    HW2 9677   7.122  11.183   7.211 -1.5860 -1.9293  1.8299
34614SOL     OW 9678  10.778   3.266   1.162  0.1424 -0.0374 -0.3872
34614SOL    HW1 9679  10.813   3.230   1.081  0.2580  0.3009 -0.4895
34614SOL    HW2 9680  10.763   3.189   1.218  1.4379 -0.1690 -0.1884
34615SOL     OW 9681   0.536   8.018   5.500 -0.4857 -0.2799 -0.2911
34615SOL    HW1 9682   0.628   8.040   5.487 -0.2712 -1.2481 -0.4811
34615SOL    HW2 9683   0.529   7.926   5.473 -1.3291 -0.4686  0.5259
34616SOL     OW 9684   9.688  11.306   0.196 -0.1852 -0.0664  0.2084
34616SOL    HW1 9685   9.642  11.330   0.277  0.1808  0.9204  0.1401
34616SOL    HW2 9686   9.774  11.276   0.225  0.2639  1.0956  0.1660
34617SOL     OW 9687   8.826   9.918   4.329 -0.2655  0.2246  0.1821
34617SOL    HW1 9688   8.916   9.907   4.297 -0.2259  0.4977  0.2016
34617SOL    HW2 9689   8.835   9.922   4.424 -0.4512 -1.3329  0.2999
34618SOL     OW 9690  10.784   4.596   2.024 -0.1889  0.2859 -0.9831
34618SOL    HW1 9691  10.832   4.529   2.072  1.2250 -0.3224 -3.1047
34618SOL    HW2 9692  10.733   4.642   2.091  0.6047 -1.3789  0.8511
34619SOL     OW 9693   1.446   1.425   4.035 -0.0064 -0.4610 -0.8219
34619SOL    HW1 9694   1.404   1.391   4.114  1.9566  0.8453  0.9167
34619SOL    HW2 9695   1.437   1.520   4.043  0.9364 -0.2769 -1.7674
34620SOL     OW 9696   8.554  12.078   1.233 -0.4341  0.2278  0.3129
34620SOL    HW1 9697   8.543  12.115   1.145  3.0598  1.4457  0.2566
34620SOL    HW2 9698   8.526  12.147   1.292 -0.0187  0.5152  0.1736
34621SOL     OW 9699   9.046   1.122   1.042 -0.2966  0.3442 -0.2830
34621SOL    HW1 9700   8.986   1.181   0.995 -1.5567 -1.0861 -0.5619
34621SOL    HW2 9701   9.128   1.126   0.993 -1.0028  0.3473 -1.5014
34622SOL     OW 9702   7.398   4.599   2.022 -0.1102 -0.2627  0.2852
34622SOL    HW1 9703   7.448   4.673   1.987 -0.5780  0.1867  0.5488
34622SOL    HW2 9704   7.451   4.522   2.000 -0.5016 -0.0261 -1.6244
34623SOL     OW 9705   8.586   0.943   1.182 -0.0812  0.2795  0.2036
34623SOL    HW1 9706   8.492   0.949   1.198 -0.7583 -1.4493 -2.4623
34623SOL    HW2 9707   8.617   0.878   1.245 -1.4384 -1.8654 -1.2192
34624SOL     OW 9708  11.003   5.712   0.262 -0.0536 -0.1054 -0.2150
34624SOL    HW1 9709  11.056   5.696   0.340  0.0886 -0.0662 -0.3027
34624SOL    HW2 9710  10.947   5.635   0.254  0.7736 -0.6641 -0.7552
34625SOL     OW 9711   1.424   9.858   1.512 -0.4129 -0.0977 -0.3871
34625SOL    HW1 9712   1.454   9.798   1.444 -1.8013 -0.8753 -0.3602
34625SOL    HW2 9713   1.330   9.867   1.496 -0.9167 -0.8104  1.7775
34626SOL     OW 9714   9.601  11.756   9.957  0.1848 -0.6055  0.4332
34626SOL    HW1 9715   9.607  11.839  10.004 -1.9376  0.0089 -0.2538
34626SOL    HW2 9716   9.643  11.773   9.873 -1.9250  0.4740 -0.4837
34627SOL     OW 9717   2.715   8.416   9.628 -0.2726  0.2076 -0.4582
34627SOL    HW1 9718   2.800   8.448   9.656 -0.2231  0.8164 -1.2503
34627SOL    HW2 9719   2.657   8.428   9.703  0.3837 -0.4198  0.1553
34628SOL     OW 9720   4.772   8.103   5.571  0.0833 -0.1332  0.2962
34628SOL    HW1 9721   4.699   8.042   5.581  1.1035 -1.3223  0.7388
34628SOL    HW2 9722   4.846   8.058   5.612  1.0564  1.0594 -0.1117
34629SOL     OW 9723   4.124  10.898   3.183  0.1245  0.4897  0.1959
34629SOL    HW1 9724   4.096  10.807   3.191 -1.1449  0.9085  0.7471
34629SOL    HW2 9725   4.191  10.909   3.250 -1.3080  0.5229  1.7067
34630SOL     OW 9726   6.860   8.545   1.860  0.2394 -0.2480  0.2421
34630SOL    HW1 9727   6.872   8.574   1.950  0.8284  0.6752 -0.1179
34630SOL    HW2 9728   6.877   8.451   1.862 -1.2997 -0.5289  1.3687
34631SOL     OW 9729   7.959   6.995   9.094  0.1999  0.1501  0.2275
34631SOL    HW1 9730   7.866   6.996   9.075  0.1752 -1.0356  0.2664
34631SOL    HW2 9731   8.002   6.994   9.009  0.2060  1.1641  0.1995
34632SOL     OW 9732   3.817   0.886   6.108 -0.3174 -0.0472 -0.4425
34632SOL    HW1 9733   3.894   0.942   6.099  0.7587 -0.6696  3.1848
34632SOL    HW2 9734   3.851   0.797   6.096 -1.1094 -0.2190 -1.6206
34633SOL     OW 9735   0.252  11.448   2.129  0.6494 -0.3081 -0.2790
34633SOL    HW1 9736   0.200  11.386   2.181  1.9540  0.0813  1.5862
34633SOL    HW2 9737   0.190  11.482   2.064 -0.6554 -1.9445  0.0352
34634SOL     OW 9738   8.554   9.549  10.146 -0.0676  0.3598 -0.1204
34634SOL    HW1 9739   8.633   9.497  10.128 -0.5739 -1.4197  2.3153
34634SOL    HW2 9740   8.511   9.555  10.061  1.9101  0.0814 -1.2182
34635SOL     OW 9741   6.458   5.487   4.290 -0.2512  0.4118 -0.4693
34635SOL    HW1 9742   6.452   5.405   4.338 -1.7469 -0.2557 -1.7201
34635SOL    HW2 9743   6.480   5.462   4.200 -1.0965  1.3201 -0.9599
34636SOL     OW 9744   4.181   8.517   1.687 -0.2902 -1.1490 -0.0043
34636SOL    HW1 9745   4.196   8.423   1.691 -0.9449 -1.2631 -0.0164
34636SOL    HW2 9746   4.160   8.534   1.596 -0.8401 -1.1069  0.1242
34637SOL     OW 9747   5.324   3.075   7.780  0.7836 -0.0801 -0.1209
34637SOL    HW1 9748   5.337   2.995   7.730 -0.3277 -0.3456 -0.0023
34637SOL    HW2 9749   5.231   3.075   7.803  0.7087  1.3453 -0.3045
34638SOL     OW 9750   1.351  10.759   4.981  0.0466  0.4500  0.5470
34638SOL    HW1 9751   1.296  10.779   5.057 -1.0292  2.2138 -0.6277
34638SOL    HW2 9752   1.433  10.806   4.998 -0.3779  1.2609  0.4200
34639SOL     OW 9753   6.557   3.253   1.231 -0.8866 -0.2156  0.6371
34639SOL    HW1 9754   6.650   3.234   1.227 -1.2443 -2.0442 -1.7324
34639SOL    HW2 9755   6.533   3.243   1.323  1.4217  1.6293  1.5342
34640SOL     OW 9756   0.491  10.029  10.724  0.1396  0.2972 -0.6341
34640SOL    HW1 9757   0.528  10.017  10.637  0.3992  0.7805 -0.5945
34640SOL    HW2 9758   0.439  10.109  10.718  1.2149  1.0804 -0.0199
34641SOL     OW 9759  10.931   8.923   4.382  0.4613  0.0727  0.0193
34641SOL    HW1 9760  10.844   8.911   4.421  1.0766 -1.9694  0.9081
34641SOL    HW2 9761  10.982   8.965   4.451  0.2451  1.0923 -0.4329
34642SOL     OW 9762  11.227  11.305   7.239  0.2364 -0.0416 -0.5695
34642SOL    HW1 9763  11.231  11.295   7.144 -0.0121  1.2073 -0.7269
34642SOL    HW2 9764  11.186  11.390   7.252  0.9159  0.1117  0.6579
34643SOL     OW 9765   6.184   3.521   4.383 -0.1649 -0.3886 -0.3812
34643SOL    HW1 9766   6.122   3.497   4.451 -1.6525 -1.4572 -2.0191
34643SOL    HW2 9767   6.129   3.544   4.308  1.4110  0.0981 -1.4396
34644SOL     OW 9768  10.573   0.997   1.685  0.4595  0.5699 -0.0980
34644SOL    HW1 9769  10.659   0.966   1.710  0.4380  0.4158 -0.2110
34644SOL    HW2 9770  10.547   1.056   1.755  0.7780  0.8392 -0.2058
34645SOL     OW 9771   8.058  12.036   8.034  0.3816  0.0416 -0.3561
34645SOL    HW1 9772   7.994  12.107   8.024  1.7593  1.1533 -1.7756
34645SOL    HW2 9773   8.125  12.072   8.091  0.8517 -0.2803 -0.7006
34646SOL     OW 9774  11.624   3.398  10.118  0.0070  0.2321 -0.3812
34646SOL    HW1 9775  11.691   3.371  10.056  0.5827  1.7040 -0.4340
34646SOL    HW2 9776  11.609   3.491  10.099 -2.3565 -0.1338 -0.6582
34647SOL     OW 9777   8.897   8.374   1.238  0.5466 -0.0797  0.2824
34647SOL    HW1 9778   8.983   8.359   1.201  0.8345 -3.4381  1.9026
34647SOL    HW2 9779   8.837   8.325   1.182  0.2214 -0.6919  1.1408
34648SOL     OW 9780   4.561   2.832  11.031 -0.0472 -0.4824 -0.3046
34648SOL    HW1 9781   4.597   2.910  10.988  0.3421 -0.2024  0.5060
34648SOL    HW2 9782   4.602   2.759  10.986  2.8248 -0.1896  1.5399
34649SOL     OW 9783  12.051   4.310   9.480 -0.3862 -0.2567 -0.3193
34649SOL    HW1 9784  12.060   4.361   9.561  0.0903  0.5288 -0.8532
34649SOL    HW2 9785  12.038   4.376   9.412  0.0984 -0.8579 -1.0108
34650SOL     OW 9786   0.777  11.406   8.342 -0.5204  1.0235  0.7409
34650SOL    HW1 9787   0.736  11.321   8.324 -1.9067  1.7706  0.2026
34650SOL    HW2 9788   0.803  11.401   8.434 -0.5410 -0.0024  0.7041
34651SOL     OW 9789   7.920   8.988   4.258 -0.7540 -0.6106  0.2835
34651SOL    HW1 9790   8.008   8.952   4.252 -0.1062  1.1459 -1.7764
34651SOL    HW2 9791   7.903   8.993   4.352  1.1094 -1.4615  0.7155
34652SOL     OW 9792   1.239  11.973   1.557  0.2410 -0.2036 -0.0907
34652SOL    HW1 9793   1.189  12.054   1.565 -0.7359 -0.9132  1.3406
34652SOL    HW2 9794   1.174  11.904   1.561  1.1173 -1.1014 -0.7500
34653SOL     OW 9795   7.258   2.925   8.750 -0.5784  0.1721  0.4348
34653SOL    HW1 9796   7.211   2.842   8.737 -1.5687  0.6548  0.8528
34653SOL    HW2 9797   7.203   2.990   8.707 -0.1595  0.7243  0.7308
34654SOL     OW 9798  11.501   1.127   3.748  0.2142  0.1705  0.5941
34654SOL    HW1 9799  11.432   1.192   3.758 -1.3864 -1.0003 -1.7877
34654SOL    HW2 9800  11.485   1.064   3.818 -0.8078  0.2037  0.4023
34655SOL     OW 9801   1.151   7.901   1.871 -0.1430  0.4631  0.2723
34655SOL    HW1 9802   1.186   7.929   1.955 -1.3113 -0.3910  1.0822
34655SOL    HW2 9803   1.199   7.953   1.806  1.1513  0.7541  1.4202
34656SOL     OW 9804   1.041   7.648   8.579  0.0669 -0.4984  0.1030
34656SOL    HW1 9805   0.974   7.585   8.606  0.5592 -0.1380  2.3402
34656SOL    HW2 9806   0.993   7.714   8.529 -0.8039 -1.5343 -0.4840
34657SOL     OW 9807   2.427   0.632  12.197  0.6140  0.2921 -0.1403
34657SOL    HW1 9808   2.497   0.571  12.175  0.6457  0.0744  0.5512
34657SOL    HW2 9809   2.349   0.577  12.203  0.5859  0.3652  0.1752
34658SOL     OW 9810  11.794   9.804   0.495  0.5708 -0.0445  0.1468
34658SOL    HW1 9811  11.835   9.791   0.409  0.6156 -1.1452  0.3172
34658SOL    HW2 9812  11.755   9.891   0.490 -1.0837 -0.8229 -1.6802
34659SOL     OW 9813   2.509   4.959   0.307  0.1360  0.2057 -0.0885
34659SOL    HW1 9814   2.578   4.894   0.319  0.6228  0.5939 -0.7700
34659SOL    HW2 9815   2.473   4.971   0.395  0.4273 -0.5496  0.1451
34660SOL     OW 9816   1.563  12.079  10.731 -0.2012 -0.1258  0.3122
34660SOL    HW1 9817   1.621  12.015  10.772 -1.5829 -1.5887  0.1147
34660SOL    HW2 9818   1.587  12.078  10.638 -0.2768 -0.4235  0.2961
34661SOL     OW 9819   2.346   7.069  10.334  0.1127 -0.1449 -0.4404
34661SOL    HW1 9820   2.329   7.029  10.419  0.7683 -0.9974 -0.6954
34661SOL    HW2 9821   2.437   7.097  10.338  0.5630 -1.3835 -1.2950
34662SOL     OW 9822   5.443   8.745   9.290 -0.3910  0.4872  0.6122
34662SOL    HW1 9823   5.430   8.813   9.224  1.0375  2.2950  2.0504
34662SOL    HW2 9824   5.357   8.703   9.299 -1.3803  2.2127 -0.2338
34663SOL     OW 9825   2.581   3.922   8.644 -0.2225 -0.3281 -0.0159
34663SOL    HW1 9826   2.547   4.004   8.608 -0.5946  0.4198  1.9558
34663SOL    HW2 9827   2.506   3.863   8.644 -0.8006  0.3599  1.4871
34664SOL     OW 9828   3.904   9.422   9.173  0.0648  0.8119 -0.0670
34664SOL    HW1 9829   3.854   9.351   9.214  0.6846  0.2671 -0.2365
34664SOL    HW2 9830   3.958   9.378   9.108 -0.2528  1.5624 -0.8603
34665SOL     OW 9831   4.012   4.695  12.149 -0.4753  0.4224  0.0509
34665SOL    HW1 9832   4.022   4.639  12.225 -0.3115 -3.4006 -2.5049
34665SOL    HW2 9833   3.918   4.715  12.146 -0.8391 -1.1374  0.2118
34666SOL     OW 9834   2.324   2.831   5.503 -0.3870 -0.5077  0.1771
34666SOL    HW1 9835   2.251   2.855   5.446  0.2368 -0.0037 -0.4375
34666SOL    HW2 9836   2.330   2.904   5.566  0.2699  0.0024 -0.4622
34667SOL     OW 9837   5.455   6.728   6.567  0.2362  0.0762 -0.7265
34667SOL    HW1 9838   5.407   6.715   6.649 -0.9612  0.2420 -1.3804
34667SOL    HW2 9839   5.545   6.702   6.588  0.5375  2.3876  1.3177
34668SOL     OW 9840   0.260   9.867   8.179  0.0112  0.3232  0.3829
34668SOL    HW1 9841   0.290   9.946   8.132 -0.3569  2.1296  2.9780
34668SOL    HW2 9842   0.169   9.885   8.200 -0.1928 -1.0009  0.6880
34669SOL     OW 9843   5.615   8.695   9.573 -0.3706 -0.7026 -0.3282
34669SOL    HW1 9844   5.542   8.718   9.517  0.0357  0.3570 -0.4450
34669SOL    HW2 9845   5.644   8.609   9.542 -1.7868 -1.3089 -0.0269
34670SOL     OW 9846  12.325   6.054   0.194 -0.7191  0.2713 -0.3588
34670SOL    HW1 9847  12.347   6.001   0.271 -1.4922  1.5655  0.7995
34670SOL    HW2 9848  12.250   6.107   0.222 -1.3303  0.4420 -2.1722
34671SOL     OW 9849   4.604  11.459   4.649  0.1269  0.0296  0.6175
34671SOL    HW1 9850   4.599  11.554   4.633  0.3119  0.0321  0.5714
34671SOL    HW2 9851   4.685  11.432   4.605  0.4488 -0.0249  1.2330
34672SOL     OW 9852   4.575   8.579   6.153 -0.0222 -0.4870  0.0318
34672SOL    HW1 9853   4.641   8.649   6.159 -1.0400  0.4666  0.4738
34672SOL    HW2 9854   4.568   8.562   6.059  0.6706 -0.4266 -0.0410
34673SOL     OW 9855   0.031  10.659  10.279  0.0904 -0.8212  0.4382
34673SOL    HW1 9856  -0.043  10.700  10.324  0.6902 -0.6118  1.2363
34673SOL    HW2 9857   0.097  10.728  10.274 -0.5658 -0.2647 -2.3151
34674SOL     OW 9858   0.141   6.239  10.280  0.4696 -0.3532  0.0186
34674SOL    HW1 9859   0.226   6.256  10.239 -0.6146 -0.2522 -2.3630
34674SOL    HW2 9860   0.122   6.318  10.331  0.8680  0.5411 -1.1775
34675SOL     OW 9861   6.344   0.112   8.378 -0.1795  0.0530  0.1852
34675SOL    HW1 9862   6.314   0.043   8.437 -1.0358 -0.2016 -0.5266
34675SOL    HW2 9863   6.269   0.171   8.371 -0.4507 -0.4359 -1.3983
34676SOL     OW 9864  10.294   8.427   1.762 -0.0086  0.3355  0.4031
34676SOL    HW1 9865  10.368   8.478   1.729  1.3727 -1.5394  0.4505
34676SOL    HW2 9866  10.315   8.410   1.854 -1.0023  0.6002  0.7011
34677SOL     OW 9867   3.385   4.625   1.619 -0.3415  0.3507 -0.4086
34677SOL    HW1 9868   3.326   4.640   1.692 -0.0395  0.2095 -0.1304
34677SOL    HW2 9869   3.408   4.532   1.625 -0.1331  0.3912 -0.5440
34678SOL     OW 9870   4.312   6.771   3.767  0.2739 -0.2234  0.2691
34678SOL    HW1 9871   4.241   6.809   3.715  1.1336  0.9240 -0.1019
34678SOL    HW2 9872   4.289   6.679   3.776 -1.1955  0.0997  0.0451
34679SOL     OW 9873   2.921   3.240   3.422  1.0430 -0.2869 -0.0420
34679SOL    HW1 9874   2.969   3.322   3.415  2.5817 -1.0413  1.0702
34679SOL    HW2 9875   2.831   3.266   3.442  1.6278  1.1338  0.9036
34680SOL     OW 9876   6.137   8.808   1.673  0.2596 -0.2990  0.4745
34680SOL    HW1 9877   6.147   8.864   1.750  1.9796  0.3444 -0.1735
34680SOL    HW2 9878   6.048   8.824   1.643  0.7104  2.2318  0.2450
34681SOL     OW 9879   1.027   0.862   6.632  0.2267 -0.6344 -0.4034
34681SOL    HW1 9880   1.089   0.792   6.609  0.7561 -0.9401  1.7857
34681SOL    HW2 9881   1.045   0.931   6.568  0.8328 -1.8219 -1.5865
34682SOL     OW 9882   0.453   6.573   9.267 -0.1456 -0.0074  0.3602
34682SOL    HW1 9883   0.537   6.532   9.287  0.2487  0.4745 -0.2636
34682SOL    HW2 9884   0.402   6.566   9.348  0.7367  0.2900  0.9435
34683SOL     OW 9885   1.351   0.449   0.602  0.3185  0.3587 -0.0649
34683SOL    HW1 9886   1.345   0.393   0.525  0.3716  0.2496  0.0087
34683SOL    HW2 9887   1.360   0.387   0.675 -0.2728  0.4389  0.0836
34684SOL     OW 9888   2.115   2.042   5.398  0.5300 -0.2426 -0.3983
34684SOL    HW1 9889   2.169   2.033   5.476 -0.1662 -1.3284 -0.0314
34684SOL    HW2 9890   2.177   2.039   5.325  1.0217 -0.9600  0.0416
34685SOL     OW 9891   1.964   5.292   7.542 -0.0328 -0.1511  0.2231
34685SOL    HW1 9892   2.023   5.221   7.567  1.5808  0.6163 -1.2065
34685SOL    HW2 9893   1.979   5.305   7.448 -2.0906  0.4717 -0.0842
34686SOL     OW 9894   7.317   8.316   8.368  0.2590  0.1169 -0.0967
34686SOL    HW1 9895   7.388   8.339   8.428 -0.5409  0.0022  0.9242
34686SOL    HW2 9896   7.292   8.398   8.327 -1.1603  0.7615  1.9502
34687SOL     OW 9897   0.295  11.026   6.204  0.5010 -0.3963 -0.4544
34687SOL    HW1 9898   0.371  11.076   6.175  0.1161 -0.8404 -2.3663
34687SOL    HW2 9899   0.273  10.970   6.129 -0.4917 -1.7426  0.7776
34688SOL     OW 9900   7.826   4.440   3.130 -0.2367  0.5053 -0.3446
34688SOL    HW1 9901   7.809   4.350   3.159 -0.2529  0.5414 -0.2410
34688SOL    HW2 9902   7.823   4.436   3.035  0.8668  0.1725 -0.3827
34689SOL     OW 9903   2.540   6.912   2.084 -0.0370 -0.2539  0.1293
34689SOL    HW1 9904   2.615   6.910   2.024  0.7980  0.2172  1.1083
34689SOL    HW2 9905   2.466   6.884   2.031  0.5701  0.6119 -1.2501
34690SOL     OW 9906   9.798   8.887   6.160  0.0593 -0.0732  0.6896
34690SOL    HW1 9907   9.708   8.887   6.193 -0.3850  2.6002 -0.2741
34690SOL    HW2 9908   9.829   8.976   6.175  1.7405 -0.2925 -1.0597
34691SOL     OW 9909   6.552  11.175   5.440 -0.6354  0.1789  0.1850
34691SOL    HW1 9910   6.496  11.113   5.393  0.0147 -0.4762  0.2562
34691SOL    HW2 9911   6.515  11.261   5.419  0.4648  0.0382 -2.7180
34692SOL     OW 9912  11.041   9.879   6.017 -0.4366  0.3398 -0.3554
34692SOL    HW1 9913  11.048   9.932   6.097 -1.0064  1.2478 -0.8789
34692SOL    HW2 9914  11.123   9.830   6.013  0.2680  1.4499 -0.0147
34693SOL     OW 9915   6.729   3.772  10.714  0.0111 -0.1838 -0.5477
34693SOL    HW1 9916   6.711   3.733  10.800 -2.4009  0.9634 -0.4465
34693SOL    HW2 9917   6.814   3.736  10.689  0.8380 -0.4940  2.3357
34694SOL     OW 9918   9.329   4.682   5.306  0.1769 -0.5241  0.0888
34694SOL    HW1 9919   9.419   4.651   5.307  0.4852  0.3285 -0.5023
34694SOL    HW2 9920   9.280   4.613   5.260  0.6914 -0.5563 -0.4195
34695SOL     OW 9921   7.858   8.649   3.907  0.4739 -0.5597 -0.5825
34695SOL    HW1 9922   7.821   8.604   3.983  1.7470  1.4148  1.3403
34695SOL    HW2 9923   7.795   8.717   3.887  2.7722  3.1123  2.9908
34696SOL     OW 9924   2.691   9.263   5.131 -1.0503 -0.0305 -0.5983
34696SOL    HW1 9925   2.717   9.171   5.121  0.4192  0.3852 -0.8716
34696SOL    HW2 9926   2.766   9.304   5.174 -1.8914  0.9553 -0.0276
34697SOL     OW 9927   4.878   0.784   0.741 -0.1801  0.2938 -0.0331
34697SOL    HW1 9928   4.897   0.877   0.755  0.5427  0.4753 -1.9378
34697SOL    HW2 9929   4.954   0.751   0.693 -0.9138 -1.0244 -0.3396
34698SOL     OW 9930   2.535   2.628   9.669  0.2949  0.6578 -0.0198
34698SOL    HW1 9931   2.559   2.559   9.731  0.9893  1.3657  0.5261
34698SOL    HW2 9932   2.449   2.659   9.700  0.1676  0.3142 -0.0287
34699SOL     OW 9933  10.641   4.343   2.135 -0.2704  0.0746 -0.5996
34699SOL    HW1 9934  10.682   4.397   2.202 -2.0479 -0.5710  1.1144
34699SOL    HW2 9935  10.614   4.405   2.067  1.3374  0.7719 -0.6510
34700SOL     OW 9936   9.251   8.677  12.205  0.1220 -0.0328 -0.3074
34700SOL    HW1 9937   9.277   8.673  12.297 -1.3095  2.6047  0.3210
34700SOL    HW2 9938   9.327   8.642  12.157  1.7808  0.5045  1.7660
34701SOL     OW 9939   3.891   1.820   1.260  0.3208 -0.3192  0.6180
34701SOL    HW1 9940   3.985   1.812   1.248  0.2392 -0.2543 -0.1104
34701SOL    HW2 9941   3.878   1.910   1.291  0.3376  0.3463 -1.2036
34702SOL     OW 9942   6.804   4.448   2.690  0.5719  0.4934 -0.2999
34702SOL    HW1 9943   6.796   4.530   2.642 -0.8626 -1.4426 -3.7175
34702SOL    HW2 9944   6.721   4.440   2.737  0.9066  1.1551  0.4333
34703SOL     OW 9945   2.665   5.474   6.408  0.4924 -0.3891  0.1564
34703SOL    HW1 9946   2.671   5.493   6.314  0.9778 -1.1031  0.0332
34703SOL    HW2 9947   2.737   5.412   6.425  1.0278  0.4853  1.1993
34704SOL     OW 9948   8.879   6.914   3.143  0.3415  0.1410  0.2011
34704SOL    HW1 9949   8.938   6.945   3.211 -1.5534 -0.0966  2.0474
34704SOL    HW2 9950   8.808   6.978   3.141  0.4625  0.3054 -1.8201
34705SOL     OW 9951   5.644   2.610   3.996 -0.0435  0.4690 -0.2410
34705SOL    HW1 9952   5.626   2.572   4.082 -0.4989 -0.0465 -0.5600
34705SOL    HW2 9953   5.740   2.607   3.988 -0.1006 -3.2619 -1.3979
34706SOL     OW 9954   9.488   3.337  12.184  0.2178 -0.2966  0.3027
34706SOL    HW1 9955   9.538   3.265  12.147 -1.9535 -2.5787  1.4491
34706SOL    HW2 9956   9.397   3.318  12.160 -0.4782  1.9810  0.8227
34707SOL     OW 9957   6.790   9.405   9.856  0.0403  0.0293 -0.2485
34707SOL    HW1 9958   6.745   9.458   9.790  1.3610  0.9867 -0.4063
34707SOL    HW2 9959   6.827   9.468   9.918  0.4547 -0.7714  0.3503
34708SOL     OW 9960   5.588   3.151   3.196 -0.1291 -0.2842  0.3838
34708SOL    HW1 9961   5.509   3.112   3.235 -0.0245 -0.8617  0.0375
34708SOL    HW2 9962   5.555   3.205   3.124 -0.3747  1.3149  1.6484
34709SOL     OW 9963   4.140   0.138   4.740  0.0384 -1.5106 -0.0395
34709SOL    HW1 9964   4.061   0.168   4.785  0.7544 -1.1397  0.9815
34709SOL    HW2 9965   4.187   0.086   4.805  2.1260  0.7330  0.3721
34710SOL     OW 9966   6.346   8.981  10.038 -0.0665  0.4134  0.2980
34710SOL    HW1 9967   6.256   8.969  10.007  0.1117  0.2085 -0.1370
34710SOL    HW2 9968   6.336   9.019  10.126 -0.6001 -0.6712  0.7245
34711SOL     OW 9969   1.741   5.019  10.922 -0.4453 -0.4391  0.2926
34711SOL    HW1 9970   1.786   5.011  10.838 -1.8130 -0.8780 -0.4398
34711SOL    HW2 9971   1.810   5.012  10.988  0.5001 -1.3927 -0.7652
34712SOL     OW 9972   2.451   9.690   3.537  0.2549  0.1039  0.5115
34712SOL    HW1 9973   2.356   9.677   3.547  0.0179  0.2984 -1.2027
34712SOL    HW2 9974   2.490   9.624   3.594 -0.9230 -1.1643 -0.0914
34713SOL     OW 9975   8.838   3.036   4.444  0.2097  0.5192  0.3154
34713SOL    HW1 9976   8.899   3.016   4.373  0.9627 -0.4057  1.1896
34713SOL    HW2 9977   8.785   3.108   4.410  0.1415 -0.2890 -1.4121
34714SOL     OW 9978   1.176   2.345   5.848 -0.0251  0.1318  0.1142
34714SOL    HW1 9979   1.207   2.370   5.761  0.5327 -2.1593 -0.4139
34714SOL    HW2 9980   1.146   2.254   5.837 -0.9115  0.1393  2.0924
34715SOL     OW 9981   6.867  11.629   1.409  0.4040 -0.5383  0.3699
34715SOL    HW1 9982   6.894  11.615   1.318  0.5035  0.3427  0.2515
34715SOL    HW2 9983   6.881  11.723   1.423 -1.7339 -0.2143  0.6072
34716SOL     OW 9984   5.301   7.129   2.446 -0.1350  0.0631 -0.5290
34716SOL    HW1 9985   5.232   7.081   2.400 -0.8738  0.5039  0.1058
34716SOL    HW2 9986   5.369   7.064   2.462  0.0423 -0.1638 -2.0147
34717SOL     OW 9987   7.285  10.745   0.158 -0.0186  0.3068 -0.1882
34717SOL    HW1 9988   7.328  10.755   0.243  0.8106  0.4013 -0.6116
34717SOL    HW2 9989   7.192  10.748   0.178  0.1597 -0.2543  0.7902
34718SOL     OW 9990   4.598   2.036   5.994 -0.4108  0.2539  0.0006
34718SOL    HW1 9991   4.627   2.119   5.957  2.1450 -0.4667  0.2391
34718SOL    HW2 9992   4.621   1.971   5.928 -0.9738 -0.4598  0.4935
34719SOL     OW 9993   7.053   4.375   4.090  0.3450 -0.4092 -0.0111
34719SOL    HW1 9994   7.012   4.402   4.172 -2.0602  4.3395 -2.2962
34719SOL    HW2 9995   7.146   4.393   4.102  0.2927 -1.3481  2.1150
34720SOL     OW 9996   4.129   7.036   0.079 -0.5689  0.9153  0.1319
34720SOL    HW1 9997   4.150   7.020  -0.013  0.3769 -0.6051  0.5699
34720SOL    HW2 9998   4.184   7.110   0.103  0.0626  0.5899 -0.2523
34721SOL     OW 9999   5.119   3.930   1.682  0.5337  0.1751  0.1710
34721SOL    HW110000   5.032   3.902   1.655  0.2674 -0.4035  1.5955
34721SOL    HW210001   5.178   3.886   1.620 -0.1980  1.4454 -1.5086
34722SOL     OW10002   3.988   7.062  12.112  0.9575  0.1051  0.8064
34722SOL    HW110003   4.033   6.985  12.080  0.3024  0.3807 -0.8650
34722SOL    HW210004   4.058   7.118  12.147  1.6992 -0.2439 -0.0830
34723SOL     OW10005  11.957  10.036   9.586  0.2456 -1.0162 -0.3989
34723SOL    HW110006  11.977  10.022   9.493 -1.2364 -0.2964 -0.8710
34723SOL    HW210007  11.870  10.076   9.585  0.9314  0.6280  1.2287
34724SOL     OW10008   7.794   1.378   1.012 -0.1339 -0.2754  0.5194
34724SOL    HW110009   7.853   1.425   0.954  0.2760 -0.4346  0.8021
34724SOL    HW210010   7.732   1.444   1.042 -0.2672 -0.1645  0.0088
34725SOL     OW10011   0.025  11.509   1.421  0.4667 -0.4998 -0.0429
34725SOL    HW110012  -0.070  11.496   1.430  0.3636 -0.8357 -1.4854
34725SOL    HW210013   0.037  11.604   1.429  0.0455 -0.4757  0.3584
34726SOL     OW10014   5.387   5.319   5.271 -0.0549 -0.5726  0.2113
34726SOL    HW110015   5.440   5.302   5.350  2.6955  2.4022 -0.7642
34726SOL    HW210016   5.307   5.360   5.305  0.7069 -0.0974  1.5312
34727SOL     OW10017   2.697   3.771   2.509  0.3861  0.3043 -0.1140
34727SOL    HW110018   2.752   3.700   2.543  0.3333  0.3194  0.0032
34727SOL    HW210019   2.741   3.800   2.430  0.0481 -0.3252 -0.5441
34728SOL     OW10020   3.650   5.008   4.262 -0.3824 -0.0485  0.1088
34728SOL    HW110021   3.706   4.971   4.330 -0.2996  0.0138  0.0743
34728SOL    HW210022   3.677   4.964   4.182 -2.5848 -2.5185  0.5475
34729SOL     OW10023  11.786   5.084   7.429  0.4563  0.0403 -0.1154
34729SOL    HW110024  11.816   5.135   7.353  1.8463 -0.9955 -0.3097
34729SOL    HW210025  11.829   4.999   7.419  0.4624 -0.2103  1.7065
34730SOL     OW10026   9.094  11.795   8.632  0.4379  0.2316  0.1412
34730SOL    HW110027   9.015  11.795   8.579  1.3462  2.2626 -1.3478
34730SOL    HW210028   9.144  11.720   8.602 -0.1914 -0.1144 -0.0487
34731SOL     OW10029   6.352   7.478  11.071  0.4679  0.1462  0.6363
34731SOL    HW110030   6.337   7.457  10.979 -1.5496  0.1552  0.9187
34731SOL    HW210031   6.279   7.436  11.117  0.8133  1.0869  2.0987
34732SOL     OW10032   8.207   0.045   0.814 -0.7826  0.1531 -0.6735
34732SOL    HW110033   8.265  -0.019   0.772  0.6401  0.6963  0.3840
34732SOL    HW210034   8.192   0.009   0.901  1.2476  1.9058  0.4827
34733SOL     OW10035   0.063   3.961   7.210  0.2595 -0.2569  0.2877
34733SOL    HW110036   0.053   4.055   7.194 -0.2855  0.3393  3.4817
34733SOL    HW210037  -0.023   3.924   7.190 -0.5985  0.5534  2.1772
34734SOL     OW10038   0.661  10.459   9.419  0.5279 -0.0356 -0.4696
34734SOL    HW110039   0.613  10.464   9.501  0.8851 -1.9173 -0.0950
34734SOL    HW210040   0.609  10.512   9.358 -0.6553  0.0226  0.5370
34735SOL     OW10041   6.525  12.262  10.173 -0.3683 -0.2334  0.3209
34735SOL    HW110042   6.592  12.197  10.151  0.4378  0.0876  1.6958
34735SOL    HW210043   6.485  12.228  10.254 -1.3593 -0.0361 -0.0691
34736SOL     OW10044   8.264  10.623   3.713  0.0880  0.4372  0.0742
34736SOL    HW110045   8.343  10.595   3.668 -0.3152  0.1488 -0.4691
34736SOL    HW210046   8.194  10.570   3.673 -0.5115  1.3519 -0.1213
34737SOL     OW10047   6.002   1.891   5.897 -0.7133 -0.1137  0.4711
34737SOL    HW110048   6.010   1.809   5.946 -1.0978 -2.3806 -2.8830
34737SOL    HW210049   5.939   1.871   5.828  0.3037  2.5250 -1.3887
34738SOL     OW10050   4.278   2.129   4.345  0.0907 -0.0876  0.6210
34738SOL    HW110051   4.206   2.148   4.405 -0.7891 -1.1312 -0.0758
34738SOL    HW210052   4.279   2.034   4.337  0.4114  0.0061 -0.7364
34739SOL     OW10053   2.328   3.530   8.711 -0.0000  0.1721  0.7498
34739SOL    HW110054   2.416   3.498   8.693  0.7505  2.4561  0.0513
34739SOL    HW210055   2.271   3.456   8.691  1.6203 -0.7936 -0.5386
34740SOL     OW10056   0.571   7.758   3.247 -0.1866  0.0507  0.2855
34740SOL    HW110057   0.609   7.810   3.318 -0.0957 -0.2057  0.4228
34740SOL    HW210058   0.501   7.814   3.212  0.7743  0.8357 -0.4498
34741SOL     OW10059   6.682   4.008   9.582 -0.2905 -0.0618  0.1223
34741SOL    HW110060   6.699   4.094   9.620  1.2073  0.3694 -1.3843
34741SOL    HW210061   6.751   3.952   9.618 -0.1837 -0.1755 -0.2553
34742SOL     OW10062   1.741   5.206   1.945 -0.0970  0.6062 -0.2792
34742SOL    HW110063   1.810   5.140   1.952  0.3816  1.2155  1.0143
34742SOL    HW210064   1.686   5.176   1.872  0.7594 -0.6009 -0.4491
34743SOL     OW10065   4.608   3.455   5.787 -0.3449 -0.1227  0.0752
34743SOL    HW110066   4.534   3.437   5.729 -1.3338 -0.0581  1.2626
34743SOL    HW210067   4.568   3.461   5.874  1.1596 -0.7856  0.8354
34744SOL     OW10068   5.664   3.484  11.323 -0.1608 -0.3653  0.1969
34744SOL    HW110069   5.602   3.484  11.396 -0.1918  0.9172  0.1895
34744SOL    HW210070   5.750   3.492  11.364 -0.1488 -0.0774  0.1202
34745SOL     OW10071   0.960  10.053   1.644 -0.1875  0.2280  0.3449
34745SOL    HW110072   0.890   9.993   1.671  0.5698 -0.7456  0.1811
34745SOL    HW210073   0.932  10.138   1.678 -1.5065 -0.1191  0.1903
34746SOL     OW10074   4.074   4.740  11.823 -0.0342 -0.0858 -0.0887
34746SOL    HW110075   4.088   4.704  11.735  0.1663 -1.1235  0.3489
34746SOL    HW210076   3.989   4.785  11.817 -0.2039 -0.4656 -0.7157
34747SOL     OW10077   6.075   0.830   9.346 -0.2051  0.3213  0.9704
34747SOL    HW110078   6.025   0.749   9.341 -1.1318  0.8525  1.2641
34747SOL    HW210079   6.124   0.834   9.264 -1.2117  0.1348  0.3461
34748SOL     OW10080   8.999   3.419   3.786 -0.5714  0.6657 -0.0032
34748SOL    HW110081   8.929   3.437   3.848 -0.2974  1.0119  0.2076
34748SOL    HW210082   9.060   3.362   3.833  0.0780  1.6424  0.3439
34749SOL     OW10083   2.088  11.236   5.351  0.5750 -0.0472 -0.3398
34749SOL    HW110084   2.182  11.234   5.336  0.8755 -0.8243  1.3586
34749SOL    HW210085   2.079  11.274   5.439 -0.3153 -4.1316  1.5825
34750SOL     OW10086   2.808   2.705   0.711 -0.0958 -0.5056 -0.5385
34750SOL    HW110087   2.762   2.754   0.780 -0.2788 -0.1221 -0.9293
34750SOL    HW210088   2.822   2.618   0.749 -1.1775 -0.6422 -0.4125
34751SOL     OW10089   8.085  10.160   1.525  0.0238  0.1156 -0.0909
34751SOL    HW110090   8.035  10.140   1.446 -0.3675 -0.0045  0.1798
34751SOL    HW210091   8.135  10.239   1.503 -0.1724  0.1499 -0.4184
34752SOL     OW10092  12.086   1.860   3.783 -0.4233  0.3480  0.4975
34752SOL    HW110093  12.139   1.827   3.711 -0.3578 -1.2762  1.2396
34752SOL    HW210094  12.023   1.920   3.742  0.7721  0.8624 -0.6340
34753SOL     OW10095   5.406  12.219   4.201 -0.0308  0.0461 -0.5130
34753SOL    HW110096   5.317  12.185   4.204 -0.3713  0.9652  0.0446
34753SOL    HW210097   5.420  12.259   4.286  1.2721 -0.9182 -0.2350
34754SOL     OW10098   4.573   6.154   8.298  0.1019 -0.1325  0.2561
34754SOL    HW110099   4.592   6.103   8.377  0.7529 -1.9473 -0.9857
34754SOL    HW210100   4.659   6.174   8.261 -0.2002  0.5149 -0.1123
34755SOL     OW10101   9.612   6.007   5.309 -0.3458 -0.1632 -0.1505
34755SOL    HW110102   9.656   5.932   5.349 -0.9650 -0.0201  0.8336
34755SOL    HW210103   9.657   6.020   5.226  0.5658 -0.8689  0.2199
34756SOL     OW10104  10.927  11.416  10.212  0.0106  0.2523  0.4066
34756SOL    HW110105  10.931  11.403  10.118 -1.5552  2.3667 -0.0488
34756SOL    HW210106  11.004  11.468  10.233 -0.1321  0.5909  0.1037
34757SOL     OW10107   8.818   0.370   9.258 -0.3332 -0.3766 -0.4767
34757SOL    HW110108   8.777   0.425   9.192  1.7009  0.5974 -0.9890
34757SOL    HW210109   8.805   0.418   9.340  0.8047  0.5653 -0.8184
34758SOL     OW10110   4.759   8.856   5.799  0.1434 -0.2188  0.1728
34758SOL    HW110111   4.757   8.943   5.840  2.1130 -1.0265  2.1921
34758SOL    HW210112   4.741   8.873   5.707  0.0865  2.2790  0.5634
34759SOL     OW10113   8.195   0.064   9.183  0.2353 -0.3310  0.1575
34759SOL    HW110114   8.240   0.141   9.148  0.5440 -0.4190  0.3501
34759SOL    HW210115   8.193   0.002   9.110  1.1460 -0.6289  0.3646
34760SOL     OW10116   6.687   5.276   3.088  0.2399 -0.3836 -0.1596
34760SOL    HW110117   6.742   5.260   3.011  0.0990  0.3546 -0.4172
34760SOL    HW210118   6.736   5.238   3.161  0.8660 -0.1552 -0.4607
34761SOL     OW10119  11.884   0.293   7.805  0.0046  0.0006  0.6257
34761SOL    HW110120  11.828   0.215   7.810  0.9206 -0.6004  2.3037
34761SOL    HW210121  11.837   0.360   7.853  1.4367 -1.0468  3.7670
34762SOL     OW10122   8.623   0.275   4.588 -0.1977 -0.2558 -0.2295
34762SOL    HW110123   8.706   0.245   4.625 -0.6217 -0.1991  0.8035
34762SOL    HW210124   8.576   0.195   4.565  0.3685 -0.2775 -1.3544
34763SOL     OW10125   1.347   7.452   6.443  0.4116  0.3973 -0.0622
34763SOL    HW110126   1.272   7.474   6.498  0.3431  2.1106 -0.7961
34763SOL    HW210127   1.422   7.489   6.490  0.7034 -0.5072  0.2086
34764SOL     OW10128  11.959   5.649   2.837 -0.5324  0.1503 -0.3053
34764SOL    HW110129  12.015   5.725   2.823 -0.5274  0.5683  1.7245
34764SOL    HW210130  11.996   5.606   2.915 -0.6653 -1.8214 -1.2694
34765SOL     OW10131   8.409   5.097   1.788  0.4762  0.8740 -0.2685
34765SOL    HW110132   8.411   5.112   1.693 -1.0797 -2.1174 -0.9242
34765SOL    HW210133   8.481   5.036   1.804 -0.7707 -0.6016 -0.0490
34766SOL     OW10134  11.162   9.928   5.044  0.4828  0.3680 -0.7603
34766SOL    HW110135  11.234   9.991   5.052  0.9324 -0.1688 -0.5664
34766SOL    HW210136  11.161   9.882   5.128 -0.1872  0.4771 -0.7049
34767SOL     OW10137  10.166   5.747   2.122 -0.3832 -0.5826 -0.2205
34767SOL    HW110138  10.161   5.811   2.193 -0.0813 -1.2816  0.4492
34767SOL    HW210139  10.249   5.766   2.079 -1.0956  0.5915 -1.1431
34768SOL     OW10140   8.591   9.892   7.605  0.0060 -0.0977  0.7388
34768SOL    HW110141   8.685   9.893   7.619  0.0662 -0.9496  0.4416
34768SOL    HW210142   8.572   9.804   7.571 -0.6761  0.5502 -0.6661
34769SOL     OW10143   0.354   6.076   5.286  0.2612  0.1705  0.3532
34769SOL    HW110144   0.352   6.146   5.221 -0.0499  0.6452  0.8725
34769SOL    HW210145   0.447   6.058   5.299  0.3378  0.4319  0.1645
34770SOL     OW10146   2.256   0.506   1.791 -0.2673  0.1771  0.0456
34770SOL    HW110147   2.248   0.529   1.698  1.0770  0.4741 -0.0219
34770SOL    HW210148   2.325   0.439   1.793  0.3972  0.8700  0.9219
34771SOL     OW10149   1.576  10.036  10.580  0.1598 -0.7842  0.5832
34771SOL    HW110150   1.631   9.976  10.530  0.2559 -0.7631  0.6641
34771SOL    HW210151   1.587  10.120  10.537 -1.6302 -1.2341 -0.8706
34772SOL     OW10152   4.868   4.347   0.438 -0.2425 -0.1732 -0.4165
34772SOL    HW110153   4.808   4.348   0.513 -1.3658 -0.5345 -1.2897
34772SOL    HW210154   4.895   4.439   0.428  0.1637 -0.1733  0.6182
34773SOL     OW10155   1.279   1.224   9.150  0.4023  0.8460 -0.2755
34773SOL    HW110156   1.261   1.131   9.165  0.9715  1.0546  2.1095
34773SOL    HW210157   1.201   1.269   9.181  0.6118  1.2258 -0.2899
34774SOL     OW10158  11.209   4.854   5.733  0.0377  0.4962 -0.1139
34774SOL    HW110159  11.189   4.839   5.640 -0.1368 -1.4764  0.1882
34774SOL    HW210160  11.305   4.852   5.738  0.0429  0.4556 -0.2272
34775SOL     OW10161   3.849  11.445   5.354 -0.0136  0.2010 -0.3867
34775SOL    HW110162   3.853  11.537   5.329  0.8541  0.4681  0.6225
34775SOL    HW210163   3.940  11.423   5.378 -0.7632  0.2255  3.1026
34776SOL     OW10164   7.276   7.806   6.187 -0.1149 -0.0931 -0.4168
34776SOL    HW110165   7.235   7.720   6.199 -1.0140  0.3180 -0.5189
34776SOL    HW210166   7.298   7.809   6.094  1.2249 -0.7740 -0.1536
34777SOL     OW10167   7.571   3.625   8.497  0.3768 -0.2525 -0.2917
34777SOL    HW110168   7.489   3.671   8.483  0.2035 -0.4357  0.1060
34777SOL    HW210169   7.614   3.674   8.567  1.6701  1.2316 -2.0217
34778SOL     OW10170   2.203   0.760   2.412 -0.0117  0.0231 -0.1358
34778SOL    HW110171   2.209   0.672   2.377  1.2944 -0.5880  1.4924
34778SOL    HW210172   2.293   0.783   2.436 -0.5278  1.2238  0.7605
34779SOL     OW10173   8.497   4.150   8.422 -0.0692 -0.0565 -0.0538
34779SOL    HW110174   8.576   4.096   8.416  0.3206  0.6556 -1.9880
34779SOL    HW210175   8.473   4.147   8.515  1.5720 -1.2035  0.3806
34780SOL     OW10176   8.816  11.648   4.091 -0.0001  0.4570  0.1998
34780SOL    HW110177   8.836  11.708   4.162  0.3134  0.8960 -0.2525
34780SOL    HW210178   8.817  11.702   4.012 -1.4821  0.1941 -0.0179
34781SOL     OW10179  11.895   8.168  10.982 -0.0434  0.2320  0.7389
34781SOL    HW110180  11.931   8.222  10.912  0.2999 -0.9610 -0.0321
34781SOL    HW210181  11.945   8.192  11.060  0.2006  0.9122  0.3774
34782SOL     OW10182   0.343   0.741   0.600  0.5353 -0.2688 -0.0969
34782SOL    HW110183   0.395   0.821   0.590 -0.2157  0.4566  1.4183
34782SOL    HW210184   0.317   0.741   0.692 -2.3730 -0.4567 -0.8167
34783SOL     OW10185   1.120   6.498   4.481 -0.0472  0.4743  0.3341
34783SOL    HW110186   1.034   6.508   4.442 -0.0643 -1.0753 -0.1008
34783SOL    HW210187   1.109   6.429   4.546  0.8518  0.2977  0.3150
34784SOL     OW10188   7.986   3.524   8.712  0.3751  0.8180  0.2912
34784SOL    HW110189   7.946   3.541   8.627  2.3704 -1.7037 -1.3063
34784SOL    HW210190   8.058   3.587   8.717  2.0236 -0.8068 -1.3211
34785SOL     OW10191   5.018  10.234   8.549 -0.0904  0.5368 -0.0988
34785SOL    HW110192   4.951  10.171   8.577 -1.7468  3.2926  2.7617
34785SOL    HW210193   5.090  10.222   8.611 -0.7056  1.8187  0.9054
34786SOL     OW10194  11.270   3.749   3.761  0.0025 -0.1142  0.1738
34786SOL    HW110195  11.201   3.723   3.822  0.5402 -2.4544 -0.1264
34786SOL    HW210196  11.224   3.781   3.684 -0.7153  0.3875  0.8026
34787SOL     OW10197   2.587   0.404   5.069 -0.2089  0.0967 -0.2246
34787SOL    HW110198   2.669   0.402   5.119 -0.1817  2.2179 -0.0927
34787SOL    HW210199   2.596   0.480   5.013 -2.1368  0.4157 -0.1537
34788SOL     OW10200   8.825   5.107   0.208 -0.0456 -0.4886 -0.2555
34788SOL    HW110201   8.916   5.133   0.195  0.2947 -0.6343  1.5172
34788SOL    HW210202   8.823   5.013   0.187  0.4042 -0.6650  0.4730
34789SOL     OW10203   8.859  10.227   4.854  0.2883  0.5381 -0.1296
34789SOL    HW110204   8.841  10.179   4.935  1.5872 -1.6111 -1.0044
34789SOL    HW210205   8.857  10.319   4.879 -0.5716 -0.0108  2.0599
34790SOL     OW10206   9.344   2.207  11.050 -0.8956  0.0736 -0.4518
34790SOL    HW110207   9.342   2.163  10.965 -0.5484 -0.0622 -0.3903
34790SOL    HW210208   9.437   2.211  11.073 -1.0098 -0.1561  0.0601
34791SOL     OW10209   6.342  12.165   2.626  0.0227  0.0331 -0.0031
34791SOL    HW110210   6.353  12.179   2.532 -0.6684  2.4270  0.2117
34791SOL    HW210211   6.430  12.168   2.661  0.3060 -1.0881 -0.5627
34792SOL     OW10212   5.467   4.109   2.665 -0.5187  0.4558 -0.2227
34792SOL    HW110213   5.392   4.096   2.607 -2.1269 -0.1837  1.8628
34792SOL    HW210214   5.523   4.033   2.649 -1.4726 -0.2750 -0.1682
34793SOL     OW10215   3.370   6.591   2.602  0.0387 -0.4352  0.4766
34793SOL    HW110216   3.454   6.631   2.620 -0.3767  0.7310 -0.0850
34793SOL    HW210217   3.315   6.615   2.676  0.4016 -1.8956  1.2633
34794SOL     OW10218   8.333  11.826   0.638  0.7765 -0.1168  0.3678
34794SOL    HW110219   8.325  11.779   0.555  0.7774 -0.5644  0.6194
34794SOL    HW210220   8.267  11.786   0.695 -1.3732  2.1686 -0.3064
34795SOL     OW10221   8.977  10.452  12.056  0.7642  0.1268 -0.4636
34795SOL    HW110222   8.956  10.511  12.129  1.3902  0.9797 -0.9527
34795SOL    HW210223   9.063  10.481  12.026  0.6531 -0.4224 -1.3356
34796SOL     OW10224  11.433  10.598  10.463  0.2879  0.2693 -0.2536
34796SOL    HW110225  11.493  10.648  10.518  0.6117 -0.6315  0.2380
34796SOL    HW210226  11.488  10.533  10.419 -0.3681 -0.9054  0.5921
34797SOL     OW10227   4.109   0.453   8.585  0.0080  0.3703 -0.1512
34797SOL    HW110228   4.193   0.459   8.630 -0.0628 -0.2823  0.0824
34797SOL    HW210229   4.057   0.526   8.621  0.6566  1.1348 -0.7234
34798SOL     OW10230  10.164   2.494   3.235  0.4076 -0.1564 -0.5448
34798SOL    HW110231  10.190   2.586   3.235  1.6965 -0.4993  0.3474
34798SOL    HW210232  10.204   2.457   3.156 -1.3728  0.3431 -1.7475
34799SOL     OW10233   2.445   5.635  11.800  0.4398 -0.1025 -0.0558
34799SOL    HW110234   2.419   5.550  11.836  3.5701 -0.9777  0.4867
34799SOL    HW210235   2.452   5.692  11.876  0.9446 -0.1634 -0.0496
34800SOL     OW10236   4.607  10.697   1.396 -0.1169 -0.2291  0.5452
34800SOL    HW110237   4.581  10.617   1.441  0.4738 -0.8345 -0.1763
34800SOL    HW210238   4.645  10.668   1.313  0.4103  0.7793  0.4126
34801SOL     OW10239   2.791   6.335  11.821 -0.0496  0.0234 -0.1334
34801SOL    HW110240   2.760   6.266  11.763 -1.8921  0.8552 -0.2068
34801SOL    HW210241   2.739   6.325  11.901  2.8713 -1.5046  1.7444
34802SOL     OW10242   7.477   2.107   1.618  0.1861 -0.3494 -0.1642
34802SOL    HW110243   7.533   2.040   1.578 -0.9325 -1.6985  0.4264
34802SOL    HW210244   7.396   2.061   1.639 -0.8285  1.3406 -0.1984
34803SOL     OW10245   6.656  12.296   6.320  0.1096 -0.4570  0.0995
34803SOL    HW110246   6.717  12.313   6.247  0.5703 -1.2489  0.2805
34803SOL    HW210247   6.571  12.286   6.278  0.2959 -0.4623 -0.2830
34804SOL     OW10248   5.457   2.301   7.874  0.0599  0.3819  0.1686
34804SOL    HW110249   5.532   2.349   7.839  0.4802  0.6260  1.3266
34804SOL    HW210250   5.486   2.210   7.879  1.0405  0.7541  2.4247
34805SOL     OW10251   4.305   5.086   9.825  0.0243 -0.1330  0.2626
34805SOL    HW110252   4.292   5.151   9.894  2.2832  1.2129 -0.4817
34805SOL    HW210253   4.386   5.113   9.781 -0.1262 -2.2338 -1.4790
34806SOL     OW10254   8.148   9.274  11.222 -0.2437  0.9324 -0.7924
34806SOL    HW110255   8.094   9.273  11.301 -2.1784 -0.3706 -2.0382
34806SOL    HW210256   8.237   9.288  11.255 -0.6952 -1.3554  1.8098
34807SOL     OW10257  10.589  10.382   1.812  0.7422 -0.2279  0.0767
34807SOL    HW110258  10.526  10.453   1.799  2.4524  2.6085  4.5735
34807SOL    HW210259  10.563  10.343   1.896  2.3638 -2.1129 -0.2360
34808SOL     OW10260   3.856   4.274   3.605  0.3650  0.3338 -0.2040
34808SOL    HW110261   3.930   4.334   3.589  1.1749 -0.0353  1.8673
34808SOL    HW210262   3.836   4.238   3.519  0.4859  2.8260 -1.3777
34809SOL     OW10263   0.387   2.974   9.458  0.1010  0.0665 -0.6655
34809SOL    HW110264   0.321   2.930   9.405 -0.0103  1.0404 -1.3870
34809SOL    HW210265   0.427   2.905   9.510  0.7573 -1.1060 -2.6022
34810SOL     OW10266   8.651   6.230   5.162  0.2670  0.0542  0.0476
34810SOL    HW110267   8.686   6.174   5.230 -0.2667  1.4522  1.5354
34810SOL    HW210268   8.705   6.309   5.166 -0.1214  0.3760 -0.7843
34811SOL     OW10269   7.399   5.466   8.706 -0.2909 -0.2912 -0.2824
34811SOL    HW110270   7.440   5.440   8.623 -1.5832 -1.1938 -0.6661
34811SOL    HW210271   7.347   5.543   8.684  1.3069  0.9966  0.2551
34812SOL     OW10272   3.633   2.379   7.665 -0.5265  0.0152 -0.7609
34812SOL    HW110273   3.650   2.324   7.588  0.1126 -1.5623  0.4574
34812SOL    HW210274   3.551   2.346   7.700 -0.2022 -0.0872 -0.0899
34813SOL     OW10275   3.128   2.851   9.734  0.1890 -0.1253 -0.0464
34813SOL    HW110276   3.036   2.857   9.758 -0.3385 -3.3050 -0.9693
34813SOL    HW210277   3.175   2.864   9.817 -1.1419 -0.2114  0.7414
34814SOL     OW10278   2.080   7.898   5.011 -0.2394 -0.1656  0.1602
34814SOL    HW110279   1.996   7.886   4.966  0.2659 -2.3476 -0.3341
34814SOL    HW210280   2.145   7.866   4.948  1.2054  2.9643 -0.1228
34815SOL     OW10281  11.262   2.975   7.182  0.0841  0.0129  0.5004
34815SOL    HW110282  11.191   2.910   7.185 -1.2716  1.4446  2.5916
34815SOL    HW210283  11.244   3.027   7.104 -0.0081 -0.8233 -0.0526
34816SOL     OW10284  10.176  11.740   5.946  0.3464 -0.3872  0.5543
34816SOL    HW110285  10.213  11.752   5.858 -0.3592  0.1907  0.3169
34816SOL    HW210286  10.128  11.658   5.940 -0.7308  0.2525  0.0010
34817SOL     OW10287   0.889  11.747   7.766  0.3244 -0.0964 -0.1895
34817SOL    HW110288   0.905  11.654   7.783  2.5797  0.0901 -0.8950
34817SOL    HW210289   0.874  11.752   7.671 -0.8352  0.1616 -0.0078
34818SOL     OW10290   7.714   2.522   0.010 -0.2747  0.2617  0.0556
34818SOL    HW110291   7.663   2.454  -0.034  0.3248  0.0818 -0.3681
34818SOL    HW210292   7.650   2.567   0.065 -1.4909  1.6734 -2.3239
34819SOL     OW10293  11.798  10.027  10.455 -0.4151  0.1817  0.5808
34819SOL    HW110294  11.882  10.056  10.419 -0.6662 -0.4602 -0.5998
34819SOL    HW210295  11.820   9.954  10.513 -0.1260  0.2287  0.5296
34820SOL     OW10296   7.175  11.601   6.786  0.2155  0.1728 -0.5543
34820SOL    HW110297   7.162  11.593   6.691 -3.8415  0.2136 -0.1544
34820SOL    HW210298   7.107  11.546   6.824  1.2582  0.7659  2.3653
34821SOL     OW10299   0.559   8.059   1.771 -0.3172  0.2474  0.2363
34821SOL    HW110300   0.623   8.130   1.777 -0.6427  0.4586  1.5552
34821SOL    HW210301   0.538   8.054   1.678  2.0891 -0.2807 -0.3637
34822SOL     OW10302   6.329  10.492  11.295 -0.0473 -0.0531  0.2442
34822SOL    HW110303   6.371  10.535  11.369  0.3882 -1.1805  0.6721
34822SOL    HW210304   6.321  10.561  11.229  0.2697  0.7728  1.0401
34823SOL     OW10305   3.772  10.869   0.552 -0.5125 -0.3772  0.0229
34823SOL    HW110306   3.852  10.840   0.508 -0.9155  1.2207 -1.8654
34823SOL    HW210307   3.712  10.893   0.482 -2.7233 -1.5481  1.3815
34824SOL     OW10308   1.888   3.432   7.329  0.3379  0.1343  0.7958
34824SOL    HW110309   1.899   3.354   7.274  2.1735  0.5073  0.5573
34824SOL    HW210310   1.920   3.406   7.415  0.9064  0.6012  0.7302
34825SOL     OW10311   3.825   5.730   5.967 -0.1893 -0.5194  0.0016
34825SOL    HW110312   3.890   5.779   6.018 -0.2972 -0.3028 -0.0670
34825SOL    HW210313   3.745   5.738   6.018 -0.7715  1.2888 -1.1041
34826SOL     OW10314   5.497   6.026   3.298 -0.0882 -0.2391 -0.1413
34826SOL    HW110315   5.425   6.072   3.255  0.1355  0.0179 -0.2486
34826SOL    HW210316   5.516   5.952   3.241 -1.4050 -1.3144  0.7608
34827SOL     OW10317   8.927   2.242   6.031 -0.1956  0.3679 -0.1322
34827SOL    HW110318   8.930   2.276   5.942  1.2604  0.1294 -0.2051
34827SOL    HW210319   8.853   2.287   6.072 -0.7182  0.6755 -1.3728
34828SOL     OW10320  11.411   8.757  10.248  0.1103 -0.1218 -0.0435
34828SOL    HW110321  11.496   8.717  10.228  1.3559  0.7915  2.8546
34828SOL    HW210322  11.429   8.850  10.253 -1.2157  0.1496  0.0115
34829SOL     OW10323   8.994   8.662  12.102 -0.1487 -0.0607  0.5389
34829SOL    HW110324   8.930   8.717  12.148  0.5760  0.9917  0.3209
34829SOL    HW210325   9.075   8.673  12.152  0.0242 -0.9140  0.4663
34830SOL     OW10326   1.656   4.068   1.751 -0.3639  0.2866 -0.0874
34830SOL    HW110327   1.577   4.122   1.750 -1.0853 -0.7328 -0.8692
34830SOL    HW210328   1.631   3.988   1.704  0.1279 -1.4603  2.3697
34831SOL     OW10329   5.366   6.037   7.833 -0.0823 -0.6367 -0.2639
34831SOL    HW110330   5.412   6.115   7.802 -1.2020 -0.3598 -1.3098
34831SOL    HW210331   5.435   5.981   7.870  0.5311  1.5496  2.1441
34832SOL     OW10332  10.686  11.601  10.279 -0.1483 -0.0543  0.9535
34832SOL    HW110333  10.744  11.528  10.301 -0.4736 -0.3730  0.7668
34832SOL    HW210334  10.602  11.577  10.317  0.0804  0.8749  2.0776
34833SOL     OW10335   0.665   4.434   1.967  0.2472 -0.3111 -0.2982
34833SOL    HW110336   0.723   4.397   1.900 -1.2886 -0.3971 -1.6386
34833SOL    HW210337   0.676   4.529   1.957  0.2255 -0.3270 -0.4787
34834SOL     OW10338   7.131   5.909   3.356  0.4443 -0.5607  0.2309
34834SOL    HW110339   7.151   5.964   3.280 -1.2139 -0.8584 -0.4507
34834SOL    HW210340   7.074   5.840   3.322 -1.0697 -0.2065  1.8823
34835SOL     OW10341  11.221   3.683   7.908 -0.2365 -0.0931 -0.1289
34835SOL    HW110342  11.261   3.595   7.909  2.4784  0.9000 -3.1190
34835SOL    HW210343  11.292   3.741   7.935 -1.2267  1.4036 -0.6603
34836SOL     OW10344  10.077   4.406   1.826  0.2650 -0.0588  0.5356
34836SOL    HW110345  10.059   4.496   1.853  0.3113  0.4439 -1.0422
34836SOL    HW210346   9.998   4.358   1.849  0.5833  0.1473  2.2596
34837SOL     OW10347   2.176  11.375   4.215 -0.4477  0.0153  0.7371
34837SOL    HW110348   2.259  11.346   4.251  0.4999  0.3407 -1.0695
34837SOL    HW210349   2.130  11.415   4.289  1.7990  1.5695  1.3855
34838SOL     OW10350   2.893   6.274   7.044  0.2052  0.5182  0.1545
34838SOL    HW110351   2.826   6.341   7.033 -0.8718 -0.4473  0.6547
34838SOL    HW210352   2.901   6.233   6.957 -0.2262  0.2957  0.2190
34839SOL     OW10353   2.605   5.232   3.547  0.0692 -0.6378  0.1730
34839SOL    HW110354   2.574   5.311   3.503 -0.1897 -1.5682 -1.3687
34839SOL    HW210355   2.697   5.225   3.522 -0.8456 -2.9467 -3.1060
34840SOL     OW10356   3.383   2.598   3.447 -0.1118  0.0237 -0.3723
34840SOL    HW110357   3.371   2.661   3.377 -0.7096 -0.2819 -0.5545
34840SOL    HW210358   3.397   2.514   3.402  1.9654  0.2072 -0.1628
34841SOL     OW10359  10.315   9.601   7.780  0.2140 -0.0895  0.2204
34841SOL    HW110360  10.367   9.577   7.856 -1.0140 -0.6318  0.9222
34841SOL    HW210361  10.281   9.688   7.800 -0.8418 -0.5982  0.7240
34842SOL     OW10362   8.283   8.278   0.193  0.2895 -0.1895  0.9675
34842SOL    HW110363   8.318   8.200   0.150  0.5310  0.0679  0.6898
34842SOL    HW210364   8.281   8.345   0.124  0.4914  0.1703  1.3033
34843SOL     OW10365   6.504  10.325   1.441  0.1168 -0.1066 -0.0207
34843SOL    HW110366   6.429  10.355   1.492 -0.2176  0.1125 -0.6318
34843SOL    HW210367   6.575  10.384   1.466  0.2772 -0.7159  1.0441
34844SOL     OW10368   3.662   6.763   0.697  0.6506  0.0667  0.3436
34844SOL    HW110369   3.679   6.670   0.679 -0.1322 -0.0177  0.0225
34844SOL    HW210370   3.610   6.762   0.777  2.0232  0.3243  1.2797
34845SOL     OW10371   9.795   0.405   4.646  0.4021 -0.0230 -0.3468
34845SOL    HW110372   9.854   0.471   4.610 -1.5804  1.0054 -1.9215
34845SOL    HW210373   9.801   0.331   4.585  2.4857 -1.3371  1.3178
34846SOL     OW10374   6.704   3.680   7.298 -0.2018 -0.1869 -0.7438
34846SOL    HW110375   6.642   3.624   7.253 -0.4196 -0.1894 -0.4405
34846SOL    HW210376   6.790   3.641   7.281 -0.4029 -0.9710 -0.0112
34847SOL     OW10377   7.331   9.980  11.140  0.5200 -0.2232 -0.1416
34847SOL    HW110378   7.334  10.045  11.070 -1.9955  0.7484  0.5264
34847SOL    HW210379   7.272   9.912  11.107  0.0118 -0.1869  0.6570
34848SOL     OW10380   0.992   7.438  12.001 -0.0424  0.2475  0.1146
34848SOL    HW110381   0.927   7.502  11.973 -0.2722  0.4503  1.0966
34848SOL    HW210382   1.074   7.488  12.008  0.7379 -0.3459 -2.9249
34849SOL     OW10383   8.803   5.284   2.647 -0.1921 -0.2174  0.1765
34849SOL    HW110384   8.739   5.213   2.643 -0.2274 -0.1934  0.3275
34849SOL    HW210385   8.840   5.287   2.559 -0.5241 -0.1173  0.0372
34850SOL     OW10386  11.900   3.500   2.756  0.4450  0.1960 -0.6491
34850SOL    HW110387  11.810   3.523   2.733  0.3478  0.7022  0.1756
34850SOL    HW210388  11.893   3.467   2.846  0.9032 -1.0121 -1.0486
34851SOL     OW10389   4.715   2.532  12.221 -0.1134 -0.2582 -0.1736
34851SOL    HW110390   4.633   2.541  12.269 -0.7449 -0.3656 -1.1892
34851SOL    HW210391   4.733   2.620  12.187 -0.3078 -0.4234 -0.7183
34852SOL     OW10392   4.851   5.457   9.131  0.3523  1.0860  0.3126
34852SOL    HW110393   4.757   5.452   9.112  0.2245  3.2307  0.0899
34852SOL    HW210394   4.879   5.366   9.140 -1.3936  0.3218 -1.3314
34853SOL     OW10395   4.102   2.639   2.128 -0.0423  0.1775  0.2745
34853SOL    HW110396   4.068   2.700   2.193 -1.4680  2.2680 -2.2120
34853SOL    HW210397   4.145   2.695   2.063 -1.3111 -1.3844 -2.0656
34854SOL     OW10398   0.449   9.839  10.152  0.3938 -0.0958  0.1370
34854SOL    HW110399   0.403   9.829  10.069 -1.8022 -1.0853  1.3922
34854SOL    HW210400   0.471   9.750  10.179 -1.1925 -0.0490  1.7742
34855SOL     OW10401   0.737   3.629   3.589 -0.2444  0.4137  0.0369
34855SOL    HW110402   0.707   3.595   3.505 -0.9706  1.0706  0.0185
34855SOL    HW210403   0.805   3.692   3.567 -0.8357  1.0079 -0.0962
34856SOL     OW10404   6.314  11.673   0.862 -0.3087 -0.5529 -0.7953
34856SOL    HW110405   6.324  11.685   0.956  0.3978 -1.8350 -0.6801
34856SOL    HW210406   6.223  11.646   0.851 -0.7236  0.7312 -0.6241
34857SOL     OW10407   6.458   6.260  10.978 -0.4229  0.2268 -0.0533
34857SOL    HW110408   6.528   6.195  10.986  0.0043  0.2018 -2.9136
34857SOL    HW210409   6.381   6.216  11.014  0.4497 -0.7248  0.7448
34858SOL     OW10410   9.513   5.835   0.508  0.2355  0.1602  0.5710
34858SOL    HW110411   9.595   5.826   0.460  0.3857 -1.5765  1.0645
34858SOL    HW210412   9.496   5.929   0.510  2.2540  0.5699  0.5332
34859SOL     OW10413   0.329   2.776   7.478 -0.7901 -0.3579  0.0523
34859SOL    HW110414   0.406   2.727   7.506 -0.5974 -1.7936 -2.6828
34859SOL    HW210415   0.333   2.858   7.528  3.3100  0.2738 -0.9790
34860SOL     OW10416  11.646   3.815   1.499 -0.7494  0.0667 -0.1228
34860SOL    HW110417  11.655   3.721   1.513  2.6962  0.4072  0.6315
34860SOL    HW210418  11.627   3.850   1.586  1.3185  0.3188  0.2737
34861SOL     OW10419   8.553   9.431   9.855  0.1124  0.0036  0.0728
34861SOL    HW110420   8.506   9.349   9.871  0.2865 -0.5496 -1.9582
34861SOL    HW210421   8.643   9.403   9.836  0.5458  0.8027  0.8883
34862SOL     OW10422   3.054  10.532   3.664  0.3446 -0.2203  0.3877
34862SOL    HW110423   3.056  10.611   3.609  2.4718 -0.5133 -0.0541
34862SOL    HW210424   2.962  10.506   3.665 -0.0053  0.6705 -1.7917
34863SOL     OW10425   5.585  10.331   0.291  0.1320  0.4707 -0.4495
34863SOL    HW110426   5.631  10.284   0.361 -0.0484 -1.4254 -1.5266
34863SOL    HW210427   5.497  10.295   0.292 -0.9700  2.9372  0.5506
34864SOL     OW10428   9.307  11.434   9.854 -0.2725  0.4389 -0.1966
34864SOL    HW110429   9.338  11.501   9.914 -1.4485  0.1872  0.7399
34864SOL    HW210430   9.346  11.353   9.886 -1.1669  0.2506  0.4850
34865SOL     OW10431   7.717   7.293   8.335 -0.1201 -0.0348  0.3557
34865SOL    HW110432   7.654   7.231   8.374  0.4009 -1.5041 -1.0210
34865SOL    HW210433   7.662   7.366   8.305 -0.8376 -0.0956  1.4487
34866SOL     OW10434   6.037   3.390   9.386  0.7388 -0.5672  0.0628
34866SOL    HW110435   6.038   3.438   9.469  2.3904  0.1286 -0.3154
34866SOL    HW210436   6.115   3.420   9.340  0.5177 -1.8539 -1.2293
34867SOL     OW10437   4.016   3.222   6.311  0.3111  0.0218 -0.1319
34867SOL    HW110438   3.938   3.278   6.306 -0.0466 -0.4916 -0.3214
34867SOL    HW210439   3.986   3.137   6.280  0.8912 -0.2399  0.0297
34868SOL     OW10440   7.055   5.867   2.105 -0.3939  0.5949 -0.1849
34868SOL    HW110441   7.150   5.858   2.092 -0.2953 -0.8787  1.2357
34868SOL    HW210442   7.046   5.919   2.184 -0.6478 -1.5064  1.2549
34869SOL     OW10443   8.185  12.071   2.012 -0.4933 -0.3252 -0.0661
34869SOL    HW110444   8.127  12.035   1.944 -1.0393 -0.2890  0.3718
34869SOL    HW210445   8.163  12.164   2.016  0.1015 -0.1652 -0.3873
34870SOL     OW10446   7.541   0.377  12.178  1.1061 -0.0540  0.3676
34870SOL    HW110447   7.545   0.359  12.272 -0.2316  0.7601  0.6028
34870SOL    HW210448   7.525   0.471  12.172  4.8085  0.6704 -0.7767
34871SOL     OW10449   7.290   3.809   8.776 -0.0833 -0.2392  0.0796
34871SOL    HW110450   7.210   3.829   8.726 -0.7177 -0.8912  0.8112
34871SOL    HW210451   7.324   3.895   8.801  1.3330  0.2612 -3.0272
34872SOL     OW10452   3.978   0.799   4.038 -0.0244  0.4634  0.0881
34872SOL    HW110453   3.945   0.884   4.068  0.1448  0.1226  1.2904
34872SOL    HW210454   4.036   0.770   4.109  0.0469 -0.5818 -0.3840
34873SOL     OW10455  11.406   1.626   6.755 -0.0597 -0.3213 -0.0165
34873SOL    HW110456  11.466   1.687   6.712  0.7370 -2.1496 -1.6840
34873SOL    HW210457  11.458   1.583   6.822 -0.3519  0.1473  0.5172
34874SOL     OW10458   6.613   9.438   7.693  0.0427 -0.0609  0.3938
34874SOL    HW110459   6.652   9.378   7.630  1.7694 -0.9912  2.2242
34874SOL    HW210460   6.528   9.400   7.715 -0.9463  0.6910 -1.8520
34875SOL     OW10461   7.072   6.513   2.188  0.6692  0.3825  0.0912
34875SOL    HW110462   7.053   6.517   2.281  1.5535  1.2126  0.2414
34875SOL    HW210463   7.015   6.443   2.155  1.6322 -1.1535  1.5562
34876SOL     OW10464   6.495   1.611   4.057 -0.2474  0.5695 -0.0212
34876SOL    HW110465   6.464   1.696   4.024 -1.2302 -0.7490 -2.7539
34876SOL    HW210466   6.591   1.620   4.056 -0.3387  1.8699  0.4334
34877SOL     OW10467   6.603   9.045   5.795  0.3907 -0.2384  0.0929
34877SOL    HW110468   6.660   9.122   5.804 -0.5398  0.5713 -0.6855
34877SOL    HW210469   6.627   8.988   5.868  2.5235 -0.1464 -0.4727
34878SOL     OW10470   7.187   5.495   9.035  0.1348  0.5835  0.4918
34878SOL    HW110471   7.185   5.538   9.121 -1.5846 -0.5726  1.0847
34878SOL    HW210472   7.253   5.426   9.044 -0.6991 -0.1496  1.2408
34879SOL     OW10473   5.638   0.143   5.138  0.4171 -0.1587 -0.1854
34879SOL    HW110474   5.615   0.222   5.187 -1.8675 -1.3097  0.7500
34879SOL    HW210475   5.609   0.161   5.049 -1.0684 -0.3152  0.2525
34880SOL     OW10476  11.759  10.772  10.195  0.7812 -0.0840  0.4222
34880SOL    HW110477  11.703  10.695  10.205 -0.1894  0.4445 -0.7273
34880SOL    HW210478  11.707  10.833  10.142  1.7309  1.1586  0.8695
34881SOL     OW10479   9.141   0.921  10.085  0.3957  0.3821  0.0417
34881SOL    HW110480   9.134   0.953   9.995  0.0413 -1.1986 -0.5215
34881SOL    HW210481   9.054   0.937  10.122 -0.3249 -1.4230 -0.7800
34882SOL     OW10482  10.268   9.381   6.001  0.4428 -0.3178  0.1072
34882SOL    HW110483  10.297   9.306   5.948  0.4258 -0.0909 -0.2246
34882SOL    HW210484  10.184   9.406   5.964  0.2500 -0.3973  0.4889
34883SOL     OW10485   4.778   8.965  12.048 -0.4280  0.3281 -0.3242
34883SOL    HW110486   4.857   8.923  12.014 -0.7019 -0.0166 -0.5412
34883SOL    HW210487   4.810   9.027  12.114  0.1060  0.9350 -1.1332
34884SOL     OW10488   8.262   1.099   7.718  0.2232  0.5374 -0.3587
34884SOL    HW110489   8.279   1.142   7.801 -1.3389  0.9743 -0.2399
34884SOL    HW210490   8.349   1.078   7.684  0.9387  1.7230  0.6547
34885SOL     OW10491   9.269   4.551   1.972 -0.4553  0.1048  0.0634
34885SOL    HW110492   9.289   4.461   2.000 -0.4106  0.8004  2.5621
34885SOL    HW210493   9.344   4.602   2.001 -0.2556  0.9137 -1.7831
34886SOL     OW10494   3.761   8.500   2.325  0.2497  0.1921  0.1943
34886SOL    HW110495   3.808   8.543   2.397 -1.0414  1.4391  0.3446
34886SOL    HW210496   3.715   8.427   2.367 -0.8944  1.2059  0.7823
34887SOL     OW10497   0.727   0.245  11.333 -0.0987  0.3828  0.6313
34887SOL    HW110498   0.786   0.301  11.282  0.0747  0.4665  0.9236
34887SOL    HW210499   0.730   0.281  11.421  0.1781 -0.2141  0.8707
34888SOL     OW10500  12.152  11.726   6.313 -0.4895  0.1691  0.2814
34888SOL    HW110501  12.238  11.766   6.300 -0.6665  0.3867 -0.2410
34888SOL    HW210502  12.104  11.791   6.365 -0.2139 -0.1294  0.9283
34889SOL     OW10503   1.539   2.598   8.653 -0.0436  0.0177  0.1381
34889SOL    HW110504   1.498   2.557   8.577 -0.4832  2.4035 -1.0257
34889SOL    HW210505   1.467   2.638   8.700  0.5954  2.4710 -0.7825
34890SOL     OW10506   7.138   6.902   6.117  0.3345 -0.5876 -0.2771
34890SOL    HW110507   7.084   6.959   6.171  0.0756  0.8820 -1.9774
34890SOL    HW210508   7.116   6.813   6.146 -1.3154  0.0606  0.5853
34891SOL     OW10509   2.240  12.149   8.299 -0.4939 -0.1853  0.0236
34891SOL    HW110510   2.210  12.168   8.388 -0.8385  0.2718 -0.1827
34891SOL    HW210511   2.170  12.184   8.243 -0.0651 -0.0619 -0.4374
34892SOL     OW10512   1.291   3.903   2.520  0.4506  0.3192 -0.1856
34892SOL    HW110513   1.231   3.960   2.471  0.2718 -1.0914 -1.6916
34892SOL    HW210514   1.256   3.815   2.506  1.6853 -0.3319  0.6885
34893SOL     OW10515   2.731   8.920   0.198 -0.4973 -0.4096  0.0321
34893SOL    HW110516   2.651   8.971   0.214  0.3062  1.1205 -0.5782
34893SOL    HW210517   2.767   8.903   0.285 -0.3538  0.8226  0.2313
34894SOL     OW10518   2.282  11.201   9.453 -0.4037 -0.1598 -0.7426
34894SOL    HW110519   2.234  11.148   9.389 -1.2157  1.4830 -1.5600
34894SOL    HW210520   2.281  11.148   9.533 -0.9165 -1.4955 -1.5941
34895SOL     OW10521   1.330   4.067   8.565  0.2797  0.5126 -0.3359
34895SOL    HW110522   1.345   3.973   8.565  1.4441  0.6359  1.5337
34895SOL    HW210523   1.285   4.085   8.482 -0.0839 -1.6800 -0.6689
34896SOL     OW10524   9.066   9.407   5.640 -0.0673  0.1717  0.1829
34896SOL    HW110525   9.064   9.329   5.584  3.1865  2.2978 -3.3876
34896SOL    HW210526   9.158   9.418   5.662 -0.7680  1.7288  2.7758
34897SOL     OW10527   2.228   8.370   2.760 -0.3936  0.7705  0.2396
34897SOL    HW110528   2.228   8.441   2.697 -1.7933 -0.3987 -1.1662
34897SOL    HW210529   2.313   8.376   2.803  0.0317  2.4646 -0.7539
34898SOL     OW10530   6.758   2.859  10.980 -0.0923 -0.0852 -0.4127
34898SOL    HW110531   6.682   2.902  10.940 -0.1149 -0.8191 -1.1754
34898SOL    HW210532   6.721   2.784  11.027  0.1914 -0.6428 -1.0724
34899SOL     OW10533  11.195   4.791   6.541 -0.2077 -0.1357 -0.4736
34899SOL    HW110534  11.128   4.856   6.522  0.3657  0.1946 -1.4457
34899SOL    HW210535  11.152   4.707   6.523 -0.6265  0.0175 -0.2194
34900SOL     OW10536   5.377   0.676  11.241  0.8560 -0.3120  0.2231
34900SOL    HW110537   5.338   0.747  11.291  1.7751  0.4872 -0.1600
34900SOL    HW210538   5.427   0.719  11.172 -0.7126 -1.3829 -1.6930
34901SOL     OW10539   5.806   7.864   6.480  0.4602  0.3298 -0.4112
34901SOL    HW110540   5.749   7.886   6.554  1.6257  1.1306  0.2922
34901SOL    HW210541   5.749   7.866   6.404 -0.4333  1.2461  0.2588
34902SOL     OW10542   2.131   3.260   6.831 -0.0631 -0.4489  0.1392
34902SOL    HW110543   2.128   3.175   6.788  2.4606 -0.2110 -0.6611
34902SOL    HW210544   2.048   3.301   6.808 -1.6000 -2.8514  1.0102
34903SOL     OW10545  11.570   0.235   4.579 -0.7168  0.2079 -0.1115
34903SOL    HW110546  11.558   0.153   4.531 -0.8530 -0.5816  1.2123
34903SOL    HW210547  11.645   0.277   4.536  0.2897 -1.3032  0.0715
34904SOL     OW10548   7.352   3.838   8.154 -0.2995  0.4248 -0.1048
34904SOL    HW110549   7.294   3.899   8.108  0.9054  0.9022 -1.0457
34904SOL    HW210550   7.351   3.759   8.100 -0.7969  0.0882  0.3850
34905SOL     OW10551  11.440   2.914   6.823 -0.3329  0.1244 -0.3903
34905SOL    HW110552  11.355   2.870   6.825  0.8418 -2.3050 -0.3310
34905SOL    HW210553  11.503   2.847   6.849  1.6884  1.7186 -0.8619
34906SOL     OW10554   7.151   7.256   1.467 -0.0085 -0.5101 -0.0991
34906SOL    HW110555   7.185   7.292   1.384 -0.1312 -0.7807 -0.2661
34906SOL    HW210556   7.190   7.312   1.534 -2.1350  1.5762 -0.4402
34907SOL     OW10557   4.791   2.860   6.825 -0.3550  0.3006  0.3652
34907SOL    HW110558   4.711   2.846   6.775 -0.6465  1.8289  0.3426
34907SOL    HW210559   4.858   2.878   6.759 -0.1389 -0.3126  0.4145
34908SOL     OW10560   2.206   5.475   1.783  0.2884  0.3590  0.0859
34908SOL    HW110561   2.122   5.433   1.766  1.7013 -1.4338 -3.3803
34908SOL    HW210562   2.235   5.439   1.867 -1.1133 -1.2134 -0.0592
34909SOL     OW10563   0.598   8.028   4.705  0.1479 -0.1275 -0.1107
34909SOL    HW110564   0.665   8.035   4.637  0.5033 -0.8377  0.1624
34909SOL    HW210565   0.637   8.071   4.782  0.7777 -1.5772  0.4038
34910SOL     OW10566   4.001   5.511   2.957 -0.4635  0.2243  0.2137
34910SOL    HW110567   3.937   5.498   3.027  0.2618 -0.6676  0.7344
34910SOL    HW210568   3.961   5.469   2.881 -0.7616  0.1857  0.3906
34911SOL     OW10569   0.862   8.608   6.513  0.5463  0.1359 -0.2121
34911SOL    HW110570   0.864   8.591   6.608 -0.1975 -0.1702 -0.2462
34911SOL    HW210571   0.934   8.555   6.478  0.5388 -0.1054  0.1267
34912SOL     OW10572   1.887   7.235  10.641  0.4836  0.8419 -0.1365
34912SOL    HW110573   1.957   7.295  10.616  0.1277  0.9635 -0.8843
34912SOL    HW210574   1.922   7.187  10.716  0.8442  1.8439  0.3565
34913SOL     OW10575   1.114  10.475   8.498  0.4789  0.8229 -0.4106
34913SOL    HW110576   1.206  10.450   8.498  0.1488 -0.5156  0.2844
34913SOL    HW210577   1.067  10.393   8.513 -0.6656  1.8360  2.3497
34914SOL     OW10578  10.584   1.450  11.164  0.5557 -0.5237 -0.2513
34914SOL    HW110579  10.496   1.486  11.156  1.0120  0.5406 -0.6026
34914SOL    HW210580  10.578   1.387  11.236 -0.6189 -0.8720 -0.6314
34915SOL     OW10581   3.895   5.525   2.420  0.0560  0.0063 -0.2469
34915SOL    HW110582   3.801   5.530   2.434 -0.0396  0.7844 -1.0825
34915SOL    HW210583   3.933   5.561   2.501 -0.3659  0.0332 -0.0574
34916SOL     OW10584   3.414   2.419   8.689  0.2060  0.0459 -0.4671
34916SOL    HW110585   3.506   2.394   8.697  0.8247  1.8082 -1.3654
34916SOL    HW210586   3.379   2.360   8.622  1.1464  0.4133 -1.3130
34917SOL     OW10587   1.262   3.473   5.108  0.1705  0.2278 -0.1353
34917SOL    HW110588   1.170   3.462   5.134  0.5004  0.8951  1.4285
34917SOL    HW210589   1.292   3.384   5.089 -0.1561 -0.3137  1.7114
34918SOL     OW10590  10.184  11.637   0.108  0.3879 -0.4700  0.2763
34918SOL    HW110591  10.089  11.630   0.099  0.4502 -0.5053 -0.4450
34918SOL    HW210592  10.199  11.721   0.150 -0.0269 -1.1282  1.7751
34919SOL     OW10593  10.666  11.695   4.925  0.2414  0.2736 -0.2554
34919SOL    HW110594  10.713  11.620   4.888 -0.4102 -1.0328  1.4037
34919SOL    HW210595  10.577  11.686   4.891  0.0005 -0.1059  0.4510
34920SOL     OW10596   4.627   1.858   9.618 -0.5764  0.7398 -0.0870
34920SOL    HW110597   4.550   1.882   9.670 -0.5874  0.4343  0.0407
34920SOL    HW210598   4.591   1.819   9.539 -0.5559 -0.9757  0.7152
34921SOL     OW10599  11.004   8.731   8.752  0.4107  0.3293 -0.3570
34921SOL    HW110600  11.043   8.705   8.834  0.6137 -2.6250 -1.2795
34921SOL    HW210601  11.066   8.703   8.685 -0.4005  1.3382 -1.5918
34922SOL     OW10602  11.720  12.308   4.790 -0.1090 -0.0072 -0.4026
34922SOL    HW110603  11.740  12.401   4.783  0.3570 -0.1319 -0.7679
34922SOL    HW210604  11.671  12.300   4.872 -1.8047  0.8174 -1.3159
34923SOL     OW10605   1.831   0.448   5.050 -0.0614 -0.3191  0.2078
34923SOL    HW110606   1.837   0.458   4.955  0.1180  2.1180  0.4107
34923SOL    HW210607   1.737   0.453   5.069 -0.0542 -0.1678  0.2052
34924SOL     OW10608  10.006   8.540  12.097  0.1461 -0.8869  0.5496
34924SOL    HW110609  10.006   8.631  12.066 -0.3257 -1.2387 -0.5151
34924SOL    HW210610  10.082   8.535  12.155  0.7777 -0.0859 -0.1835
34925SOL     OW10611   3.074  11.899   1.945  0.3755  0.4348 -0.3403
34925SOL    HW110612   3.093  11.914   1.853  1.5925  0.5925 -0.0745
34925SOL    HW210613   2.988  11.856   1.945  0.6756 -0.2155 -1.5932
34926SOL     OW10614  10.296   8.582   7.671 -0.4204  0.1734  0.2770
34926SOL    HW110615  10.300   8.653   7.607 -0.2997  1.2479  1.4555
34926SOL    HW210616  10.351   8.513   7.632  2.2786  1.9742  0.6059
34927SOL     OW10617  10.797   4.593  11.691  0.0132 -0.2331 -0.5195
34927SOL    HW110618  10.768   4.543  11.767  1.4308 -1.7696 -0.9289
34927SOL    HW210619  10.756   4.549  11.616 -0.7348  0.7757 -0.7184
34928SOL     OW10620   0.150   0.943   2.990 -0.2377  0.1873  0.1058
34928SOL    HW110621   0.201   0.990   2.924 -0.9484  1.5433  0.4944
34928SOL    HW210622   0.192   0.965   3.073  0.6736 -1.5385  0.1592
34929SOL     OW10623   4.338   2.439  10.652  0.0072 -0.2432 -0.6148
34929SOL    HW110624   4.414   2.497  10.656 -0.2359  0.0850  3.4740
34929SOL    HW210625   4.274   2.488  10.599  1.3095  1.2309 -0.9053
34930SOL     OW10626   6.091   3.378   8.649 -0.1089  0.3137 -0.1873
34930SOL    HW110627   6.184   3.382   8.623 -0.3634 -2.2701 -1.9072
34930SOL    HW210628   6.045   3.360   8.567 -1.9714  0.0155  0.8806
34931SOL     OW10629  11.950   9.912   9.857  0.4600  0.2215 -0.0746
34931SOL    HW110630  11.938   9.955   9.772  1.8607 -1.0508 -0.9764
34931SOL    HW210631  12.027   9.954   9.894  0.0472  0.5409  0.4429
34932SOL     OW10632   6.534  10.174   2.817  0.1631 -0.0701 -0.0179
34932SOL    HW110633   6.468  10.130   2.871  0.1225 -0.1548 -0.1348
34932SOL    HW210634   6.540  10.262   2.853 -1.2444  0.4799 -1.0521
34933SOL     OW10635   0.683   0.169  11.753 -0.4810  0.1015  0.1295
34933SOL    HW110636   0.745   0.104  11.787 -1.4254 -2.0967 -2.0408
34933SOL    HW210637   0.602   0.120  11.739 -1.6717  2.0846 -0.3633
34934SOL     OW10638   9.968   8.355   6.774 -0.4396 -1.0878 -0.1952
34934SOL    HW110639   9.951   8.309   6.692 -1.2221 -1.0819 -0.0487
34934SOL    HW210640  10.050   8.317   6.806  1.7044  1.1441 -2.5359
34935SOL     OW10641  10.834  12.128   8.783  0.1175  0.0487 -0.2534
34935SOL    HW110642  10.850  12.139   8.690  0.7537  1.3032 -0.0179
34935SOL    HW210643  10.916  12.157   8.825 -0.5793  0.6497  0.7380
34936SOL     OW10644   5.983   8.826   7.638  0.1357 -0.0159 -0.1706
34936SOL    HW110645   6.072   8.859   7.631  0.4410 -0.6862  0.3997
34936SOL    HW210646   5.933   8.899   7.676  0.6763 -0.0039  0.5328
34937SOL     OW10647   7.030   6.486   7.423  0.8753  0.5643 -0.1273
34937SOL    HW110648   7.005   6.469   7.333 -0.0499 -0.1297  0.2441
34937SOL    HW210649   7.105   6.545   7.417  0.9458  0.3619 -1.3438
34938SOL     OW10650   5.048   9.439   2.895 -0.2735  0.0729 -0.0015
34938SOL    HW110651   5.103   9.418   2.970 -1.4769 -0.3398  0.8052
34938SOL    HW210652   5.103   9.493   2.838  0.7187  0.2386  1.0876
34939SOL     OW10653  10.441  11.506  11.949  1.0853 -0.0562  0.3504
34939SOL    HW110654  10.357  11.484  11.908  1.6364  0.9414 -1.4434
34939SOL    HW210655  10.418  11.548  12.031 -0.1458 -0.4420  0.2209
34940SOL     OW10656   0.401   2.747   1.473  0.1183  0.1039 -0.5978
34940SOL    HW110657   0.308   2.767   1.459  0.2348 -0.6482 -2.7750
34940SOL    HW210658   0.402   2.693   1.552 -1.1093  1.3468  0.3149
34941SOL     OW10659   4.306   9.432   9.882  0.7174 -0.4556 -0.7555
34941SOL    HW110660   4.304   9.409   9.975  1.7449  0.5535 -0.4667
34941SOL    HW210661   4.214   9.430   9.855  0.4313 -1.0265  0.2041
34942SOL     OW10662   1.744  10.242  11.459 -0.0792  0.3884  0.2268
34942SOL    HW110663   1.804  10.184  11.411  0.0234  1.1244 -0.5762
34942SOL    HW210664   1.801  10.310  11.494 -0.2585  0.2714  0.7418
34943SOL     OW10665   1.615   8.387  10.112  0.0392  0.5093  0.3251
34943SOL    HW110666   1.699   8.421  10.082 -0.2416  1.7227  0.8851
34943SOL    HW210667   1.595   8.315  10.051  0.3695  1.7036 -1.2569
34944SOL     OW10668  10.052   0.071   6.300  0.0570 -1.0775  0.5905
34944SOL    HW110669  10.036   0.048   6.391 -3.8686 -1.5662 -0.0587
34944SOL    HW210670   9.969   0.055   6.256  0.6615  2.6448 -2.4132
34945SOL     OW10671   7.199   6.070  11.769 -0.0739  0.0052  0.0917
34945SOL    HW110672   7.160   6.098  11.852 -0.8891 -0.0591 -0.2583
34945SOL    HW210673   7.170   6.135  11.705  1.8663  0.9679  0.1328
34946SOL     OW10674   2.909   0.842  11.068  0.2296  0.3354 -0.2882
34946SOL    HW110675   2.964   0.808  10.998  0.4456  0.1204 -0.0124
34946SOL    HW210676   2.821   0.812  11.046  0.5286 -1.1702  0.4081
34947SOL     OW10677   6.524   6.579   6.284  0.3257  0.0064  0.7659
34947SOL    HW110678   6.604   6.627   6.262  1.9654 -1.6994  2.5896
34947SOL    HW210679   6.509   6.599   6.376 -1.2608  0.1284  0.5063
34948SOL     OW10680   9.049   9.556   0.129 -0.0732 -0.4965  0.3455
34948SOL    HW110681   9.113   9.550   0.059  0.8511  2.6179  0.7335
34948SOL    HW210682   9.011   9.644   0.119 -1.8295 -0.9706  2.1499
34949SOL     OW10683   0.853   0.804   6.208  0.5594  0.3145  0.4593
34949SOL    HW110684   0.901   0.828   6.129 -0.1561  1.5047  0.3666
34949SOL    HW210685   0.761   0.801   6.181  0.2848  0.9359  1.2811
34950SOL     OW10686   9.545  10.171   3.951  0.5973  0.2027 -0.2466
34950SOL    HW110687   9.454  10.150   3.932 -0.1662  3.1069 -0.2771
34950SOL    HW210688   9.558  10.141   4.041 -0.4351 -0.1334 -0.1946
34951SOL     OW10689   2.614  10.876   4.077 -0.1699 -0.0345  0.1894
34951SOL    HW110690   2.535  10.826   4.057 -0.1525  0.4986 -1.3314
34951SOL    HW210691   2.683  10.835   4.025  0.1320  0.6981 -0.0058
34952SOL     OW10692  10.813   6.957   8.794 -0.3001 -0.4580  0.3497
34952SOL    HW110693  10.802   6.885   8.732 -0.2377  0.0238 -0.2309
34952SOL    HW210694  10.747   6.941   8.861  0.3454 -1.5943  0.7569
34953SOL     OW10695   1.973   8.582   5.522 -0.1791  0.3293 -0.0395
34953SOL    HW110696   2.031   8.527   5.470 -0.3800  0.3591 -0.2963
34953SOL    HW210697   2.030   8.653   5.555 -0.0924  0.4126 -0.3696
34954SOL     OW10698   5.283   7.476   8.344  0.8131  0.0337 -0.1312
34954SOL    HW110699   5.260   7.420   8.269 -0.6182 -0.5342  0.6923
34954SOL    HW210700   5.288   7.564   8.308 -1.1729 -0.0430 -0.6889
34955SOL     OW10701  10.543   4.915   1.560 -0.3707  0.1217  0.2753
34955SOL    HW110702  10.501   4.987   1.515 -0.4383  0.1216  0.3381
34955SOL    HW210703  10.479   4.845   1.559 -1.0164  0.6452  1.7860
34956SOL     OW10704   2.872   8.419   8.264  0.3425  0.5363 -0.4022
34956SOL    HW110705   2.862   8.371   8.346 -2.1994  2.1729  0.3764
34956SOL    HW210706   2.837   8.360   8.197  0.0639  0.1495  0.0811
34957SOL     OW10707   4.985   4.805   9.603 -0.0272 -0.3394 -0.4487
34957SOL    HW110708   4.936   4.825   9.523 -0.4029 -0.6054 -0.2915
34957SOL    HW210709   4.921   4.761   9.659 -0.3281  1.5306  0.7619
34958SOL     OW10710  12.110   4.809  10.581 -0.0644  0.8118  0.0311
34958SOL    HW110711  12.123   4.850  10.496 -0.6214  0.5760 -0.1724
34958SOL    HW210712  12.172   4.736  10.583  0.5927  1.3732  0.2020
34959SOL     OW10713  10.055   4.900   2.834 -0.0523  0.3176 -0.4714
34959SOL    HW110714  10.064   4.914   2.928  0.4135  0.2873 -0.5111
34959SOL    HW210715  10.055   4.805   2.823 -0.3383  0.3165 -0.4829
34960SOL     OW10716   1.369   3.107   5.028  0.3253 -0.2478  0.1538
34960SOL    HW110717   1.441   3.130   5.087  1.5398  0.4153 -1.5196
34960SOL    HW210718   1.312   3.052   5.081  1.7978 -0.3838  1.6938
34961SOL     OW10719   5.698   6.506   0.166  0.2852 -0.6262  0.3141
34961SOL    HW110720   5.640   6.582   0.170  0.6995 -0.3013  0.1357
34961SOL    HW210721   5.651   6.438   0.216 -1.0891 -0.9348 -1.3049
34962SOL     OW10722   6.743   9.630   5.663 -0.2453 -0.1717  0.9439
34962SOL    HW110723   6.648   9.626   5.666 -0.3054 -0.1915 -0.5580
34962SOL    HW210724   6.764   9.663   5.576  1.1834 -2.6623  0.2400
34963SOL     OW10725   4.046  11.080   6.222 -0.2131  0.6646 -0.2575
34963SOL    HW110726   4.122  11.092   6.164  1.3215 -0.3259  1.4504
34963SOL    HW210727   4.033  11.167   6.261  0.9629  0.5521  0.4571
34964SOL     OW10728   5.550   2.415   3.243 -0.1572 -0.3932 -0.1708
34964SOL    HW110729   5.542   2.345   3.309  0.9525 -0.5922 -0.2320
34964SOL    HW210730   5.515   2.376   3.163  1.3389 -1.2577 -0.4493
34965SOL     OW10731   8.532   6.461  12.060  0.1198  0.8141  0.3398
34965SOL    HW110732   8.594   6.524  12.023  0.5723  0.1323 -0.0725
34965SOL    HW210733   8.495   6.507  12.135  0.8323  1.3834  0.3621
34966SOL     OW10734   4.038   1.101   5.715 -0.7005 -0.3385  0.1386
34966SOL    HW110735   4.025   1.132   5.804 -1.2457  0.5527 -0.2294
34966SOL    HW210736   4.125   1.061   5.715 -0.9491 -0.8936  1.2072
34967SOL     OW10737  10.466   2.513   8.586  0.7162 -0.6424  0.0215
34967SOL    HW110738  10.556   2.480   8.584  0.8336 -0.3069 -0.3553
34967SOL    HW210739  10.428   2.486   8.503  0.6771 -0.2078 -0.1043
34968SOL     OW10740   7.782   4.716  12.069 -0.4418 -0.1251 -0.3632
34968SOL    HW110741   7.748   4.794  12.025 -1.9820 -2.5041 -3.9165
34968SOL    HW210742   7.704   4.662  12.083  0.8628 -2.1717 -0.6713
34969SOL     OW10743   8.005  10.862   7.792 -0.3029  0.4443 -0.2026
34969SOL    HW110744   7.918  10.824   7.783 -0.2054  0.0991  0.3016
34969SOL    HW210745   8.031  10.842   7.881  0.3645  0.3970 -0.4040
34970SOL     OW10746   6.600   2.201   6.746  0.3000 -0.2912 -0.3098
34970SOL    HW110747   6.521   2.168   6.703  0.0497 -1.5834  1.0478
34970SOL    HW210748   6.665   2.132   6.732  1.5133  1.1250 -2.1357
34971SOL     OW10749   5.796   2.848   3.795  0.7530  0.6809 -0.1970
34971SOL    HW110750   5.757   2.895   3.721 -1.0687  0.1888  0.3869
34971SOL    HW210751   5.802   2.757   3.765 -0.4852  0.3801  0.4106
34972SOL     OW10752   0.543  10.663   9.257 -0.3357  0.3078 -0.2531
34972SOL    HW110753   0.453  10.685   9.280 -0.8748 -1.3527 -0.6487
34972SOL    HW210754   0.535  10.587   9.199  1.4406 -2.4117  2.7150
34973SOL     OW10755   5.870   2.154  10.620  0.2863 -0.0709 -0.2873
34973SOL    HW110756   5.895   2.105  10.698 -0.0908  1.3242  0.7278
34973SOL    HW210757   5.894   2.244  10.639 -1.5157  0.6021 -1.0224
34974SOL     OW10758   7.344   9.935   7.143 -1.2016  0.2737 -0.0486
34974SOL    HW110759   7.301  10.002   7.090 -0.0607  0.6503 -0.5101
34974SOL    HW210760   7.423   9.977   7.177 -0.8657 -0.5984  0.2745
34975SOL     OW10761   8.306   2.865  10.619 -0.6044  0.5988  0.1564
34975SOL    HW110762   8.213   2.842  10.624 -0.7212  1.2735  1.5487
34975SOL    HW210763   8.310   2.957  10.643  0.2138  1.2255 -2.1446
34976SOL     OW10764   9.533   3.576   8.580  0.2807 -0.1076 -0.2442
34976SOL    HW110765   9.599   3.639   8.607  0.3508 -0.7919  1.2860
34976SOL    HW210766   9.567   3.538   8.499  2.2294 -1.0917  0.9640
34977SOL     OW10767   8.952   1.983   1.600 -0.2958  0.2296  0.0077
34977SOL    HW110768   8.950   2.057   1.661 -0.8064 -0.9865  1.5181
34977SOL    HW210769   8.880   2.000   1.539  0.7518  1.8966 -0.8475
34978SOL     OW10770   6.069   8.321   2.887 -0.4167 -0.0628  0.0730
34978SOL    HW110771   6.001   8.304   2.952 -1.4685  1.2094 -0.6355
34978SOL    HW210772   6.079   8.238   2.840 -0.7085 -0.5667  0.8867
34979SOL     OW10773   6.080   8.107   4.090  0.3070  0.7570 -0.1623
34979SOL    HW110774   5.995   8.133   4.126  0.2873 -1.4633  1.6759
34979SOL    HW210775   6.112   8.040   4.151  3.0991  1.0612 -1.1526
34980SOL     OW10776   0.946   6.943  11.425  0.2309  0.7329  0.3707
34980SOL    HW110777   0.926   6.861  11.470 -0.0271 -0.4006 -1.6782
34980SOL    HW210778   1.016   6.920  11.364  0.0543  2.0034 -0.3327
34981SOL     OW10779   7.227   3.241  10.212  0.3410  0.0352  0.7542
34981SOL    HW110780   7.143   3.202  10.237 -0.4388  1.2132  0.1163
34981SOL    HW210781   7.280   3.168  10.183 -0.9578 -0.6000 -0.1175
34982SOL     OW10782   7.194  10.898   3.824  0.2751  0.4578 -0.6058
34982SOL    HW110783   7.215  10.979   3.871  0.6056  0.9528 -1.5885
34982SOL    HW210784   7.215  10.916   3.733  0.1759 -0.6797 -0.8757
34983SOL     OW10785   2.002   6.839   1.443  0.5729  0.5224  0.2551
34983SOL    HW110786   2.097   6.834   1.455  0.5514 -0.2428  0.1269
34983SOL    HW210787   1.975   6.913   1.497  1.1634  0.3744  0.7656
34984SOL     OW10788   4.273   9.613   9.111  0.2556 -0.2989 -0.3183
34984SOL    HW110789   4.362   9.645   9.125 -0.8247  2.2285  1.5727
34984SOL    HW210790   4.246   9.653   9.028  0.4882 -0.0954 -0.2980
34985SOL     OW10791   7.633   7.757   0.487 -0.3668  0.5361 -0.4699
34985SOL    HW110792   7.675   7.843   0.489 -0.6400  0.7043  2.2463
34985SOL    HW210793   7.544   7.774   0.456 -1.6563  2.0098  3.4080
34986SOL     OW10794   8.818  10.590   5.579 -0.1734  0.5021 -0.7625
34986SOL    HW110795   8.738  10.612   5.628 -0.2709  0.6846 -1.0009
34986SOL    HW210796   8.853  10.514   5.624  1.6367  2.6636  1.7478
34987SOL     OW10797   4.915  10.527   7.541 -0.3416  0.1320  0.4265
34987SOL    HW110798   4.915  10.543   7.446 -2.6841  0.0933  0.3760
34987SOL    HW210799   5.007  10.537   7.566  0.5792 -1.1645 -2.0406
34988SOL     OW10800  10.690   4.047   0.006 -0.1834  0.0678  0.1680
34988SOL    HW110801  10.782   4.023   0.016 -0.2604 -0.0227  0.7292
34988SOL    HW210802  10.690   4.143   0.003 -0.2054  0.1638  1.9839
34989SOL     OW10803   4.487   8.911  11.327 -0.0516 -0.0756 -0.3588
34989SOL    HW110804   4.448   8.981  11.274  0.9575 -0.2581 -1.3881
34989SOL    HW210805   4.556   8.955  11.377 -0.4113 -0.0688  0.1340
34990SOL     OW10806   4.176  11.836   0.718 -0.1267 -0.3199 -0.2912
34990SOL    HW110807   4.082  11.820   0.727  0.2871 -2.5614  0.7786
34990SOL    HW210808   4.216  11.778   0.783  2.0181  0.4222 -0.8769
34991SOL     OW10809   3.890   9.060   0.641 -0.2829  0.4650  0.0941
34991SOL    HW110810   3.855   9.060   0.730 -1.9196  0.0582 -0.5098
34991SOL    HW210811   3.860   8.977   0.604 -0.2523  0.9506 -1.0569
34992SOL     OW10812  11.746   9.144   0.917  0.2447  0.3695 -0.2821
34992SOL    HW110813  11.743   9.193   0.999 -0.7843  1.6058 -1.0148
34992SOL    HW210814  11.676   9.182   0.864  1.0560 -0.2026 -1.8330
34993SOL     OW10815   9.808   3.251   4.972  0.4643 -0.1333 -0.4726
34993SOL    HW110816   9.867   3.178   4.990 -0.7547 -0.8321  0.8435
34993SOL    HW210817   9.862   3.330   4.986  1.0598 -0.7445  0.8717
34994SOL     OW10818   3.353   8.081   2.839  0.0542 -0.1245 -0.3745
34994SOL    HW110819   3.437   8.081   2.793 -0.1598 -1.1380 -0.7712
34994SOL    HW210820   3.317   8.168   2.822  0.9615  0.2779 -0.3025
34995SOL     OW10821   5.060   6.499  12.240 -0.4873 -0.1676  0.2352
34995SOL    HW110822   5.083   6.568  12.178 -0.6701  2.0068  2.4602
34995SOL    HW210823   4.965   6.493  12.236 -0.5093  0.0651  0.3878
34996SOL     OW10824  11.685  11.684   8.284 -0.5680 -0.4061  0.1685
34996SOL    HW110825  11.630  11.612   8.313  0.9425 -2.1584 -1.0959
34996SOL    HW210826  11.657  11.701   8.194 -0.3831  0.0637  0.1979
34997SOL     OW10827  10.939   3.716  11.804 -0.4113  0.1868 -0.3667
34997SOL    HW110828  10.993   3.670  11.740  0.2345 -0.2957  0.5072
34997SOL    HW210829  10.859   3.739  11.756  0.7643  1.3833 -1.8335
34998SOL     OW10830   1.048   9.590  11.289 -0.5459  0.2987  0.5916
34998SOL    HW110831   1.076   9.563  11.202 -2.2693 -1.2564  0.4484
34998SOL    HW210832   1.129   9.614  11.334  0.5162 -0.1278 -1.0028
34999SOL     OW10833   8.868   2.547   6.598  0.3174  0.9085  0.0953
34999SOL    HW110834   8.815   2.483   6.550 -0.6345  0.8193  1.1966
34999SOL    HW210835   8.804   2.599   6.647  1.2076  1.1933  1.0101
35000SOL     OW10836   2.542   9.118   5.722 -0.0749 -0.5130 -0.2297
35000SOL    HW110837   2.512   9.039   5.677  0.6304 -1.1799  0.4376
35000SOL    HW210838   2.533   9.188   5.657 -0.9190 -1.1005 -0.7534
35001SOL     OW10839   6.281   8.247   6.827 -0.2846  0.0727  0.0245
35001SOL    HW110840   6.282   8.156   6.857  1.8694 -0.4898 -1.4735
35001SOL    HW210841   6.293   8.299   6.906 -2.8938 -0.7993  1.0935
35002SOL     OW10842   7.748   8.768   2.533 -0.1678  0.0549  0.4457
35002SOL    HW110843   7.790   8.760   2.619  2.1804 -0.1955 -0.6657
35002SOL    HW210844   7.719   8.679   2.513  0.9396 -0.2630  0.1980
35003SOL     OW10845   9.279   1.227   4.692 -0.1309 -0.0205 -0.3081
35003SOL    HW110846   9.204   1.253   4.745 -0.5364 -1.9457  0.1193
35003SOL    HW210847   9.241   1.191   4.612 -0.0523 -4.9036  1.5531
35004SOL     OW10848   5.940  11.547   9.620 -0.3586  0.0941  0.0029
35004SOL    HW110849   6.009  11.507   9.566 -0.4338 -0.4057  0.2695
35004SOL    HW210850   5.870  11.568   9.558 -0.1525  0.1815 -0.2007
35005SOL     OW10851   9.280   8.555   5.260 -0.0247 -0.0051  0.1110
35005SOL    HW110852   9.260   8.545   5.353  0.7401  0.3450  0.3234
35005SOL    HW210853   9.374   8.536   5.253 -0.2353 -0.8175 -0.7176
35006SOL     OW10854   0.555  12.072   3.596  0.4015  0.1384 -0.2103
35006SOL    HW110855   0.477  12.115   3.561  1.0806  0.3114 -1.6039
35006SOL    HW210856   0.529  11.981   3.610 -0.4439  0.5122  0.7219
35007SOL     OW10857   1.735   2.985   8.487  0.3418 -0.1278 -0.5841
35007SOL    HW110858   1.738   2.892   8.506  1.7503  0.3183  1.7499
35007SOL    HW210859   1.720   3.027   8.572 -1.9957  1.7585 -1.7721
35008SOL     OW10860   0.759   4.153  10.545  0.0200  0.4849 -0.0351
35008SOL    HW110861   0.791   4.070  10.580  0.2000  1.0437  1.2044
35008SOL    HW210862   0.664   4.150  10.557  0.0885  0.7146  0.6671
35009SOL     OW10863   5.181   4.348   3.246 -0.6524 -0.3950 -0.0490
35009SOL    HW110864   5.146   4.379   3.162  1.3197  0.9947 -0.4308
35009SOL    HW210865   5.230   4.269   3.224 -0.3533 -0.1776 -0.1672
35010SOL     OW10866   2.425   3.302   1.516  0.4513  0.2294 -0.8017
35010SOL    HW110867   2.334   3.278   1.498 -0.2169  0.0654  2.2680
35010SOL    HW210868   2.474   3.222   1.501 -0.2869 -0.3561 -0.1399
35011SOL     OW10869   7.424   5.510   1.227  0.2872  0.6094  0.4420
35011SOL    HW110870   7.354   5.547   1.281 -0.9199 -0.5238 -0.2957
35011SOL    HW210871   7.421   5.559   1.146 -1.1294 -0.8216 -0.4278
35012SOL     OW10872   3.193   4.149   7.615  0.2627 -0.1769 -0.7437
35012SOL    HW110873   3.157   4.132   7.703  0.9958 -0.0194 -0.4120
35012SOL    HW210874   3.274   4.098   7.613 -0.6594 -1.6958 -2.0110
35013SOL     OW10875   8.247  12.174  12.083 -0.7020 -0.4236  0.5001
35013SOL    HW110876   8.272  12.093  12.038 -0.4959  0.3430 -0.8316
35013SOL    HW210877   8.330  12.216  12.105 -0.7703  0.4584 -0.8029
35014SOL     OW10878   8.553   7.859   3.031 -0.6945  0.4263 -0.2815
35014SOL    HW110879   8.624   7.880   3.092 -0.7068  0.5485 -0.3108
35014SOL    HW210880   8.586   7.886   2.945  0.2887 -1.8733 -0.7044
35015SOL     OW10881   5.067   8.623   1.060  0.3298 -0.0954 -0.4820
35015SOL    HW110882   5.120   8.610   1.139 -0.0785 -0.9097 -0.3293
35015SOL    HW210883   5.015   8.543   1.053  0.6761 -0.2317 -1.8203
35016SOL     OW10884   3.666   2.553   5.816 -0.1431 -0.1563  0.6821
35016SOL    HW110885   3.730   2.602   5.868  0.0813  0.5788 -0.2512
35016SOL    HW210886   3.718   2.492   5.764  0.1142  1.8468 -1.6376
35017SOL     OW10887   3.147   3.458   7.599  0.3765 -0.1160  0.3357
35017SOL    HW110888   3.166   3.471   7.506 -0.6397  1.0867  0.2665
35017SOL    HW210889   3.194   3.529   7.643 -1.9053  1.5085  0.3621
35018SOL     OW10890   5.080   4.425   1.560 -0.3978  0.1527  0.0166
35018SOL    HW110891   5.106   4.333   1.558 -1.6431 -0.2424 -2.5088
35018SOL    HW210892   5.008   4.427   1.623  0.8761 -0.1820  1.5301
35019SOL     OW10893   5.169   4.750   7.059 -0.0472  0.0295  0.5084
35019SOL    HW110894   5.227   4.699   7.003 -1.1915 -0.7901  0.0140
35019SOL    HW210895   5.223   4.774   7.135  1.2593  0.3711 -0.4964
35020SOL     OW10896   7.128   0.594   9.540  0.2954  0.4349 -0.3931
35020SOL    HW110897   7.116   0.613   9.633  0.1958 -1.5739  0.0514
35020SOL    HW210898   7.042   0.608   9.501 -0.4813 -1.6067  0.4310
35021SOL     OW10899  11.663   6.894   7.356 -0.2136  0.6732  0.6328
35021SOL    HW110900  11.678   6.968   7.296  0.0622  0.1118  0.0015
35021SOL    HW210901  11.751   6.866   7.381 -0.2692 -0.3325 -0.2438
35022SOL     OW10902   6.097  12.210   9.285  1.0282 -0.2900 -0.1058
35022SOL    HW110903   6.154  12.144   9.324  2.9816  1.9079  1.0333
35022SOL    HW210904   6.072  12.266   9.359 -1.6444 -0.4321 -0.7950
35023SOL     OW10905  12.008   2.748   6.919 -0.4977  0.3068 -0.5368
35023SOL    HW110906  12.076   2.707   6.973  1.1682  2.1429 -1.1164
35023SOL    HW210907  12.006   2.697   6.839 -0.1610 -0.0638 -0.3109
35024SOL     OW10908   8.484   0.766  10.903  0.2903  0.4554  0.2548
35024SOL    HW110909   8.469   0.859  10.890 -0.1074  0.3670  0.0659
35024SOL    HW210910   8.403   0.724  10.876 -0.2274  0.1908  2.0904
35025SOL     OW10911   0.735  10.213   8.901 -0.0951  0.6603  0.4547
35025SOL    HW110912   0.655  10.253   8.867 -0.4832  0.1354  0.7284
35025SOL    HW210913   0.797  10.285   8.908 -0.8381  1.2460  1.1086
35026SOL     OW10914   6.803   6.132   1.535 -0.1256 -0.0696 -0.0968
35026SOL    HW110915   6.864   6.167   1.600  0.2142  0.0776 -0.4870
35026SOL    HW210916   6.774   6.049   1.571  0.3199 -0.1488  0.0863
35027SOL     OW10917   5.331   3.820   2.838  0.3049 -0.3271 -0.3897
35027SOL    HW110918   5.420   3.846   2.863  0.7078 -1.3606 -0.7061
35027SOL    HW210919   5.312   3.874   2.761  1.3396 -1.2705 -1.3596
35028SOL     OW10920   4.766   7.194   2.918  0.4230 -0.1318 -0.2266
35028SOL    HW110921   4.772   7.160   3.007 -2.3644 -0.3428 -0.0172
35028SOL    HW210922   4.719   7.126   2.869  2.1641 -0.1596 -1.9714
35029SOL     OW10923   5.091   5.874   0.511  0.2006 -0.3265  0.0920
35029SOL    HW110924   5.069   5.852   0.421  0.1642  1.6570 -0.4422
35029SOL    HW210925   5.160   5.813   0.536 -0.6788 -1.7294 -0.8174
35030SOL     OW10926   8.071  12.139   6.397  0.3463  0.1056 -0.0333
35030SOL    HW110927   8.134  12.162   6.329 -0.4777 -0.6592 -1.0909
35030SOL    HW210928   7.986  12.146   6.354 -0.2766  0.6647  1.2336
35031SOL     OW10929   0.819   7.315   7.790  0.0997  0.6602 -0.8124
35031SOL    HW110930   0.763   7.391   7.799 -1.8549 -0.8175  0.3642
35031SOL    HW210931   0.774   7.259   7.726 -0.1807 -0.8226  0.5999
35032SOL     OW10932   5.042   2.133   4.415 -0.1223 -0.2322 -0.4042
35032SOL    HW110933   4.990   2.208   4.388  0.0461  0.9733  2.3650
35032SOL    HW210934   4.978   2.070   4.448 -0.0498 -0.0536  0.0776
35033SOL     OW10935   7.320   6.447   5.763 -0.4930 -0.2829 -0.1400
35033SOL    HW110936   7.369   6.497   5.828  0.1230 -1.3816  0.2804
35033SOL    HW210937   7.383   6.431   5.693 -0.2855 -1.4809  0.2837
35034SOL     OW10938  11.137   8.168   9.536 -0.0179 -0.0570  0.2365
35034SOL    HW110939  11.217   8.177   9.587  0.3513 -1.5093 -0.0516
35034SOL    HW210940  11.148   8.230   9.463  1.6372 -1.4650 -0.7610
35035SOL     OW10941   1.152   1.922   8.051 -0.2807  0.4285  0.4531
35035SOL    HW110942   1.229   1.891   8.098 -1.7371 -0.7989  2.1583
35035SOL    HW210943   1.186   1.989   7.992  2.1315 -0.3386  0.8549
35036SOL     OW10944   0.180  10.798   5.178 -0.1520 -0.3001  0.1180
35036SOL    HW110945   0.218  10.811   5.092  0.6921 -1.1513  0.3455
35036SOL    HW210946   0.112  10.732   5.164  0.9941 -1.5755  0.3296
35037SOL     OW10947   8.513  11.058   2.009  0.0205  0.2304  0.2544
35037SOL    HW110948   8.430  11.024   2.043 -0.3282  0.7842 -0.0209
35037SOL    HW210949   8.514  11.032   1.917  0.4562 -0.3295  0.4143
35038SOL     OW10950   2.172   9.401   2.566 -0.3606  0.2627 -0.0621
35038SOL    HW110951   2.211   9.418   2.651  1.4380  1.4292 -1.0742
35038SOL    HW210952   2.184   9.482   2.516  0.1775 -0.9182 -1.9791
35039SOL     OW10953  11.698   8.201   9.390  0.4029 -0.3795 -0.1086
35039SOL    HW110954  11.708   8.293   9.415  0.4139 -0.9871  2.3662
35039SOL    HW210955  11.639   8.203   9.314 -0.8736  1.5793  0.8677
35040SOL     OW10956   5.354   6.476   4.454  0.3241  0.1176 -0.9386
35040SOL    HW110957   5.418   6.490   4.384  1.0617  0.9741 -0.1175
35040SOL    HW210958   5.281   6.431   4.411  1.7842 -1.6397 -1.7451
35041SOL     OW10959   1.095   9.573   0.977 -0.4358  0.3399  0.3277
35041SOL    HW110960   1.163   9.640   0.968 -0.3050  0.1740  0.0536
35041SOL    HW210961   1.036   9.607   1.045 -1.1623  1.3951 -0.7924
35042SOL     OW10962   1.396   4.924  11.681 -0.1299 -0.5329 -0.0372
35042SOL    HW110963   1.319   4.976  11.701 -0.3741 -0.2054 -1.6823
35042SOL    HW210964   1.433   4.965  11.603  1.7530 -0.6436  0.7371
35043SOL     OW10965   0.561  10.098   3.876 -0.0531 -0.1527 -0.3209
35043SOL    HW110966   0.583  10.128   3.788  1.3008  1.4800  0.5210
35043SOL    HW210967   0.466  10.090   3.876  0.0306 -2.9443 -2.7228
35044SOL     OW10968   7.762   6.013  12.196 -0.4388 -0.1275  0.9399
35044SOL    HW110969   7.855   6.006  12.221  0.0924  0.0102 -0.8824
35044SOL    HW210970   7.745   6.107  12.193 -0.1725 -0.1008 -0.2488
35045SOL     OW10971   5.799   8.959  10.836  0.1317 -1.0266 -0.4817
35045SOL    HW110972   5.720   9.011  10.821 -0.2969 -1.1474  1.1247
35045SOL    HW210973   5.784   8.917  10.921  1.3811 -2.0756 -0.7527
35046SOL     OW10974   7.692  10.932   2.335  0.1181 -0.6444 -0.1479
35046SOL    HW110975   7.682  10.985   2.415 -1.1605 -0.6861 -0.2490
35046SOL    HW210976   7.603  10.929   2.298  0.3584 -2.0389 -0.6684
35047SOL     OW10977   3.976   1.936   7.640 -0.4677 -0.0097  0.3411
35047SOL    HW110978   3.975   1.840   7.632 -1.4477  0.0718 -0.7218
35047SOL    HW210979   3.906   1.956   7.702  0.4957 -0.0278  1.4699
35048SOL     OW10980   1.050   4.834   1.361 -0.2041 -0.1173 -0.1717
35048SOL    HW110981   1.037   4.743   1.386 -2.3312 -0.0958 -1.0046
35048SOL    HW210982   0.992   4.884   1.418  0.9322  0.7505  0.2720
35049SOL     OW10983   0.597   8.298   5.809 -0.3302  0.1108 -0.0686
35049SOL    HW110984   0.567   8.336   5.727 -2.5984 -0.0698  0.6306
35049SOL    HW210985   0.592   8.369   5.872 -1.9433 -0.5968  0.6425
35050SOL     OW10986   9.940  11.623   6.200  0.5493 -0.1123 -0.0138
35050SOL    HW110987  10.004  11.656   6.263  1.0307  0.6209 -0.8627
35050SOL    HW210988   9.992  11.573   6.136  0.1190 -0.5472 -0.0268
35051SOL     OW10989   9.507  11.711   0.026  0.0558 -0.3773 -0.5133
35051SOL    HW110990   9.412  11.709   0.023  0.0388  0.5581 -0.8054
35051SOL    HW210991   9.535  11.650  -0.042 -0.3447  0.7629 -1.7331
35052SOL     OW10992   5.772   7.126  10.796 -0.0095  0.0568  0.1495
35052SOL    HW110993   5.763   7.032  10.811 -1.5180  0.2279  0.5433
35052SOL    HW210994   5.866   7.141  10.791  0.2766 -1.3609  0.7745
35053SOL     OW10995   3.000   1.152   7.256 -0.3692 -0.0874  0.0064
35053SOL    HW110996   3.043   1.067   7.265 -0.1084 -0.1885 -1.8291
35053SOL    HW210997   3.073   1.214   7.247 -0.3240 -0.4221 -4.6463
35054SOL     OW10998   7.974   0.652  11.293 -0.2232  0.1613  0.2843
35054SOL    HW110999   7.981   0.593  11.218 -0.9856 -1.8204  1.6601
35054SOL    HW211000   8.033   0.614  11.358 -1.5165  0.2937  1.5777
35055SOL     OW11001   0.647   1.231   9.897  0.3149  0.1904 -0.2774
35055SOL    HW111002   0.732   1.220   9.854 -0.1660  0.9296 -1.4876
35055SOL    HW211003   0.665   1.217   9.990  1.2566 -2.3543 -0.7492
35056SOL     OW11004   4.832   7.647   0.384 -0.2862 -0.6174  0.5276
35056SOL    HW111005   4.764   7.654   0.450 -1.6335 -0.0508 -0.8685
35056SOL    HW211006   4.850   7.737   0.358  0.4187 -0.8125  0.3106
35057SOL     OW11007   0.284  12.159   9.616 -0.5724  0.4156  0.7786
35057SOL    HW111008   0.242  12.080   9.582 -1.4589  0.6072  1.3856
35057SOL    HW211009   0.211  12.214   9.646 -0.0418  1.8695 -0.4644
35058SOL     OW11010   3.000   2.486  11.882 -0.6255  0.0812 -0.0423
35058SOL    HW111011   2.948   2.476  11.962 -1.1888 -1.1695 -0.5427
35058SOL    HW211012   3.058   2.409  11.881  0.4548  0.8682 -0.0805
35059SOL     OW11013   3.863   5.871  11.819 -0.3750 -0.6886  0.1125
35059SOL    HW111014   3.893   5.913  11.900 -0.5244 -1.2741  0.4752
35059SOL    HW211015   3.863   5.942  11.754 -3.2236  0.5935  1.3283
35060SOL     OW11016   7.674   8.967   1.081 -0.2487  0.2691  0.3740
35060SOL    HW111017   7.635   8.881   1.065 -1.5784  0.5890  1.7013
35060SOL    HW211018   7.720   8.958   1.164  1.2891  0.3400 -0.4238
35061SOL     OW11019  11.979   7.623   0.063  0.1038 -0.1834 -0.4255
35061SOL    HW111020  11.944   7.565  -0.004 -0.8476  0.5300 -0.5702
35061SOL    HW211021  11.967   7.711   0.027  1.4751  0.1171 -0.1981
35062SOL     OW11022   5.712   1.230   3.142  0.3696  0.4602  0.1919
35062SOL    HW111023   5.751   1.224   3.055  0.6312  1.6777  0.2150
35062SOL    HW211024   5.785   1.246   3.201  0.0321  1.0504  0.4560
35063SOL     OW11025   2.306   6.023   9.037 -0.3600 -0.2812 -0.0366
35063SOL    HW111026   2.276   6.049   8.950  0.2704  0.1830 -0.1212
35063SOL    HW211027   2.374   6.085   9.059 -1.0474  0.0939  1.1384
35064SOL     OW11028   6.250   1.425   3.478 -0.6696  0.1480  0.2048
35064SOL    HW111029   6.313   1.377   3.533 -0.9674 -0.2176  0.2317
35064SOL    HW211030   6.245   1.373   3.398 -1.9649 -0.5757  0.7352
35065SOL     OW11031   4.640   1.113   7.941  0.0948 -0.1762 -0.8179
35065SOL    HW111032   4.596   1.193   7.970  1.7921  0.5884 -0.2467
35065SOL    HW211033   4.661   1.130   7.849 -1.3301 -0.8213 -1.3017
35066SOL     OW11034   1.078   7.571   3.671 -0.4856 -0.2936 -0.4316
35066SOL    HW111035   1.056   7.656   3.633 -1.4225 -1.3827 -2.5019
35066SOL    HW211036   1.140   7.533   3.608 -0.0256 -1.1113  0.4969
35067SOL     OW11037   4.655   9.541   1.542 -0.0713 -0.1040 -0.9067
35067SOL    HW111038   4.743   9.504   1.540 -0.2087 -0.4069 -1.6485
35067SOL    HW211039   4.610   9.492   1.611  0.1233 -0.4683 -1.0338
35068SOL     OW11040   4.912   9.988   3.553  0.4727  0.7189  0.4530
35068SOL    HW111041   4.929  10.069   3.505  2.9520  0.1184  0.1696
35068SOL    HW211042   4.987   9.979   3.612 -1.4617  0.3992  3.0992
35069SOL     OW11043   8.938  12.249  11.021 -0.7864  0.4016 -0.4767
35069SOL    HW111044   8.940  12.188  11.094 -0.6476 -1.5786 -2.0425
35069SOL    HW211045   8.966  12.333  11.059  1.4418 -1.0160  1.2924
35070SOL     OW11046   4.697   6.901   9.931  0.1319  0.0249 -0.1501
35070SOL    HW111047   4.609   6.939   9.935  0.1782  0.0525  0.8794
35070SOL    HW211048   4.750   6.957   9.987  0.4489 -0.9003  0.5006
35071SOL     OW11049   3.593  12.123   1.848  0.3569 -0.1758  0.4627
35071SOL    HW111050   3.581  12.207   1.893 -0.5166 -0.1793  0.2546
35071SOL    HW211051   3.677  12.132   1.803 -0.6949  1.4700 -1.3750
35072SOL     OW11052  10.363   2.049  10.866  0.0692 -0.2953 -0.5490
35072SOL    HW111053  10.449   2.088  10.879  0.3259 -0.7307 -0.9138
35072SOL    HW211054  10.360   1.978  10.931 -1.1680  1.5051  1.4994
35073SOL     OW11055   9.403   8.804   9.631  0.0654  0.7585  0.1850
35073SOL    HW111056   9.374   8.845   9.713  4.2094  1.6569  1.4340
35073SOL    HW211057   9.436   8.718   9.658  1.0121  0.8532 -0.6359
35074SOL     OW11058   7.319  12.047   9.003  0.4517  0.0658  0.0620
35074SOL    HW111059   7.281  12.000   8.929 -3.5242  1.2769  1.0683
35074SOL    HW211060   7.379  11.984   9.043  1.0524 -1.3788 -2.8180
35075SOL     OW11061   1.494   4.857   0.481 -0.2165  0.4726 -1.0738
35075SOL    HW111062   1.576   4.885   0.441  0.2652  2.4621  1.1527
35075SOL    HW211063   1.477   4.771   0.441  3.2743 -0.3521 -1.0982
35076SOL     OW11064   0.452   8.736   8.879  0.4994  0.5187  0.7831
35076SOL    HW111065   0.416   8.694   8.957  0.0964  0.4571  0.5659
35076SOL    HW211066   0.435   8.674   8.808 -1.2638  1.5920  0.2200
35077SOL     OW11067   4.644   0.435   9.830 -0.1419  0.5798  0.3232
35077SOL    HW111068   4.685   0.356   9.865 -0.5614  1.1786  2.3055
35077SOL    HW211069   4.639   0.420   9.735  0.3496 -1.4719  0.5766
35078SOL     OW11070   0.655   0.225  12.026 -0.0533 -0.1956 -0.1899
35078SOL    HW111071   0.627   0.313  12.051 -0.0054 -0.4421  0.7417
35078SOL    HW211072   0.678   0.233  11.933  0.6096  0.9493  0.0517
35079SOL     OW11073   0.174   8.070   1.244 -0.0755 -0.6491  0.4973
35079SOL    HW111074   0.132   8.022   1.317  0.1417 -1.6065  0.0074
35079SOL    HW211075   0.233   8.132   1.287 -0.8078 -0.3891  1.1610
35080SOL     OW11076   3.534   4.712   7.982  0.3452  0.4273  0.4576
35080SOL    HW111077   3.493   4.798   7.988  1.5064  0.9232  2.6646
35080SOL    HW211078   3.621   4.729   7.946  0.6355  0.2309  1.0440
35081SOL     OW11079   5.580   9.039   8.310 -0.3302  0.2313 -0.1402
35081SOL    HW111080   5.628   9.085   8.378  1.0905 -0.6738 -0.4799
35081SOL    HW211081   5.560   9.106   8.244  0.8212  0.5627 -0.1678
35082SOL     OW11082   3.111   8.974   5.072 -0.2883  0.4347  0.4593
35082SOL    HW111083   3.046   8.916   5.111  0.2884  1.1758  2.6595
35082SOL    HW211084   3.112   8.950   4.980 -2.2635 -0.9162  0.7303
35083SOL     OW11085   2.234   2.526  10.670  0.5579  0.2873  0.5276
35083SOL    HW111086   2.160   2.577  10.638 -0.1016 -0.6285  0.5497
35083SOL    HW211087   2.197   2.473  10.741  1.1810 -0.3399  0.3910
35084SOL     OW11088   5.966  11.306  10.909 -0.1548 -0.4077  0.3784
35084SOL    HW111089   5.950  11.244  10.980  0.5204 -0.0488  0.8529
35084SOL    HW211090   6.060  11.324  10.914 -0.3640  0.7310  0.3111
35085SOL     OW11091   4.669   4.908  10.389 -0.0070 -0.2389  0.0462
35085SOL    HW111092   4.694   4.996  10.362  0.0969 -0.3454 -0.2027
35085SOL    HW211093   4.573   4.912  10.399  0.1082  0.2151  1.1583
35086SOL     OW11094   0.774   3.326   3.168  0.0524 -0.4581  0.6706
35086SOL    HW111095   0.816   3.402   3.128 -0.0702 -0.6995  0.0623
35086SOL    HW211096   0.846   3.277   3.207  0.0755  0.2023  1.4676
35087SOL     OW11097   9.226   1.492   5.523  0.4302  0.1920 -0.1429
35087SOL    HW111098   9.295   1.443   5.569  0.6529  2.8264  2.7094
35087SOL    HW211099   9.150   1.435   5.526  1.1912 -0.8239  1.1870
35088SOL     OW11100  11.126   9.321   0.309 -0.1800  0.1883  0.5267
35088SOL    HW111101  11.111   9.309   0.403 -0.6601 -0.9592  0.3188
35088SOL    HW211102  11.212   9.364   0.304 -1.2427  2.6049  1.5532
35089SOL     OW11103   4.353   3.768   1.420  0.5319 -0.8329 -0.1674
35089SOL    HW111104   4.376   3.706   1.490  0.8823 -0.4891  0.0231
35089SOL    HW211105   4.260   3.753   1.405  0.1903 -0.1428  1.1450
35090SOL     OW11106   6.759   6.606   7.477 -0.0200  0.1727 -0.1089
35090SOL    HW111107   6.840   6.603   7.427 -0.8405 -1.4251 -1.4232
35090SOL    HW211108   6.766   6.686   7.529  1.0991  1.6382 -2.3727
35091SOL     OW11109   8.473   1.829   7.424  0.1567  0.0569 -0.1762
35091SOL    HW111110   8.506   1.740   7.441 -0.9328 -0.6312 -1.4802
35091SOL    HW211111   8.459   1.832   7.329  1.2132  2.0181 -0.3117
35092SOL     OW11112  11.866   6.572   8.928  0.0120  0.2082  0.2560
35092SOL    HW111113  11.791   6.614   8.968 -1.1542 -3.5560  2.5900
35092SOL    HW211114  11.830   6.519   8.857  0.7648 -0.1024  0.0900
35093SOL     OW11115   1.813   9.188   8.106 -0.2285  0.6219 -0.1769
35093SOL    HW111116   1.861   9.233   8.036 -0.3004 -0.0719 -0.6919
35093SOL    HW211117   1.858   9.104   8.115 -0.6848  0.4001  0.0903
35094SOL     OW11118  11.686  10.955   3.606 -0.0378  0.2496  0.4968
35094SOL    HW111119  11.666  10.987   3.695  0.4304 -0.0515  0.7099
35094SOL    HW211120  11.635  10.875   3.597 -0.1635  0.3333  0.4550
35095SOL     OW11121   8.744  10.696   8.885  0.5813 -0.2698  0.2989
35095SOL    HW111122   8.771  10.620   8.937 -0.2449 -0.8489 -0.1030
35095SOL    HW211123   8.702  10.659   8.807  0.0267  0.5998  0.1652
35096SOL     OW11124   5.877   9.975   5.416  0.3840 -0.3332 -0.2188
35096SOL    HW111125   5.834  10.011   5.494  1.1159 -1.6022  0.8158
35096SOL    HW211126   5.939   9.912   5.451  1.2644 -0.3917 -1.8196
35097SOL     OW11127  10.635  12.250   4.368 -0.2920  0.2101  0.1717
35097SOL    HW111128  10.629  12.165   4.410  2.3235 -1.2009 -2.0036
35097SOL    HW211129  10.718  12.287   4.398 -0.3148  0.9726 -0.6447
35098SOL     OW11130   5.792   3.654   2.071 -0.3873 -0.0328  0.0727
35098SOL    HW111131   5.780   3.562   2.046  0.1646 -0.4462  1.2301
35098SOL    HW211132   5.803   3.700   1.988  2.1183 -1.4264 -0.4895
35099SOL     OW11133   2.284   2.683   9.958 -0.5571  0.0675  0.2209
35099SOL    HW111134   2.242   2.658   9.876 -0.3758  0.9854 -0.1686
35099SOL    HW211135   2.322   2.602   9.992  0.7685 -0.0421 -1.4156
35100SOL     OW11136   8.350   9.964  11.059  0.3653  0.2690 -0.3253
35100SOL    HW111137   8.267   9.924  11.034  0.3062 -0.1399  0.4981
35100SOL    HW211138   8.407   9.949  10.984 -0.1124 -0.0164 -0.6385
35101SOL     OW11139  10.235   3.040   8.329  0.2475  0.0856 -0.0850
35101SOL    HW111140  10.163   3.101   8.343  0.8082  0.6798  0.2484
35101SOL    HW211141  10.314   3.095   8.327  0.6572 -0.5151 -0.7962
35102SOL     OW11142   7.527   8.330   2.092  0.0185  0.1382 -0.0063
35102SOL    HW111143   7.563   8.396   2.151 -0.4346 -0.7234  1.2478
35102SOL    HW211144   7.602   8.302   2.039  0.3779  1.0813 -0.0181
35103SOL     OW11145   6.613   3.179   0.299  0.6368  0.3429 -0.3239
35103SOL    HW111146   6.539   3.154   0.244  1.1519 -0.6884 -0.5711
35103SOL    HW211147   6.588   3.264   0.335 -0.7959 -0.1273 -0.1515
35104SOL     OW11148   4.308   0.176   7.411  0.5952 -0.0705 -0.1432
35104SOL    HW111149   4.331   0.123   7.488  0.8563  0.3858  0.0997
35104SOL    HW211150   4.296   0.265   7.446 -0.6483 -0.1117 -0.4131
35105SOL     OW11151  10.330  10.165   1.367  0.3261  0.2697  0.3939
35105SOL    HW111152  10.332  10.248   1.414  0.3309  1.6556 -1.8593
35105SOL    HW211153  10.241  10.159   1.331  0.6716 -0.0844 -0.4462
35106SOL     OW11154   2.651   4.715  12.157 -0.4564 -0.0471  0.3447
35106SOL    HW111155   2.630   4.766  12.079  2.0170  1.8578  0.7805
35106SOL    HW211156   2.649   4.778  12.229  1.9366 -0.6522  1.0418
35107SOL     OW11157   4.636   3.499   8.316  0.2024  0.0436  0.1279
35107SOL    HW111158   4.627   3.452   8.399  2.1600  0.6726  0.7470
35107SOL    HW211159   4.636   3.592   8.342  0.6310  0.2504 -0.5967
35108SOL     OW11160   9.537   9.638   9.896 -0.1514  0.0750  0.2529
35108SOL    HW111161   9.564   9.710   9.953  1.5266 -0.4887  0.2304
35108SOL    HW211162   9.606   9.572   9.908 -0.9923 -0.9965 -0.6856
35109SOL     OW11163   8.602   5.194   9.731  0.1605  0.3934 -0.1374
35109SOL    HW111164   8.648   5.145   9.798  2.0075  1.7563 -0.3355
35109SOL    HW211165   8.576   5.276   9.774  0.3615  0.7974 -0.7595
35110SOL     OW11166  11.768   1.329   1.489 -0.3001  0.4801 -0.8896
35110SOL    HW111167  11.686   1.356   1.447  0.3600  1.8465 -1.3678
35110SOL    HW211168  11.761   1.362   1.579  0.7705  3.0123 -1.6429
35111SOL     OW11169   6.281   9.638   5.721  0.2857  0.1864 -0.2418
35111SOL    HW111170   6.242   9.551   5.726  1.2251 -0.1984  0.8267
35111SOL    HW211171   6.263   9.677   5.807  2.9560 -0.3359  0.6282
35112SOL     OW11172   0.620  10.231   2.260 -0.0938 -0.1993  0.2416
35112SOL    HW111173   0.536  10.201   2.224 -0.6321  1.6219 -0.0941
35112SOL    HW211174   0.617  10.326   2.253  1.1599  0.0346  2.1143
35113SOL     OW11175   3.988   9.496   1.028 -0.3502  0.1495  0.1943
35113SOL    HW111176   3.973   9.412   1.072  1.0782 -0.0284  0.4200
35113SOL    HW211177   4.021   9.553   1.098  2.6582 -0.3450 -0.6853
35114SOL     OW11178   1.281   7.983   5.732  0.4342  0.4042 -0.8551
35114SOL    HW111179   1.308   7.939   5.812  2.8306  1.5310 -0.9571
35114SOL    HW211180   1.269   8.075   5.758 -0.5801  0.4593 -1.4447
35115SOL     OW11181   8.547  11.966   9.072  0.0984 -0.2412 -0.0809
35115SOL    HW111182   8.612  11.978   9.004  0.3116 -0.1570  0.1355
35115SOL    HW211183   8.551  12.046   9.124 -0.0986 -0.2825  0.0011
35116SOL     OW11184   8.809   6.486  10.585 -0.2144 -0.1662 -0.3905
35116SOL    HW111185   8.890   6.521  10.547 -1.0159  2.7116  0.3358
35116SOL    HW211186   8.772   6.431  10.516  1.2565  0.2522 -1.5648
35117SOL     OW11187   5.459   5.072   2.214 -0.3465 -0.2683  0.2998
35117SOL    HW111188   5.457   5.158   2.172  0.0083  0.5194  1.8464
35117SOL    HW211189   5.432   5.011   2.145 -1.6976  1.2000 -0.5274
35118SOL     OW11190   9.080  11.173  11.317 -0.2350 -0.6040 -0.1362
35118SOL    HW111191   9.170  11.159  11.287 -0.4995 -1.6030 -0.5176
35118SOL    HW211192   9.072  11.119  11.396  0.0310  0.9119  0.9682
35119SOL     OW11193   1.631  10.799   5.419 -0.1386  0.1742  0.1895
35119SOL    HW111194   1.635  10.886   5.379  2.1007  0.8461  1.7388
35119SOL    HW211195   1.707  10.753   5.383  0.6846  0.0717  1.9775
35120SOL     OW11196   4.216   6.364  11.658 -1.0490 -0.3702  0.0945
35120SOL    HW111197   4.230   6.325  11.571  4.1687 -1.8568  1.2275
35120SOL    HW211198   4.264   6.447  11.654 -0.5022 -0.5952  1.5860
35121SOL     OW11199  10.669   1.020  11.266  0.2260  0.0111  0.2486
35121SOL    HW111200  10.683   0.945  11.208  1.5436 -0.1686  0.7808
35121SOL    HW211201  10.607   1.076  11.218 -1.8645 -2.0065  0.4015
35122SOL     OW11202   4.649  12.324   1.104 -0.1891  0.3514  0.0930
35122SOL    HW111203   4.738  12.359   1.103 -1.4924  4.1382 -0.3191
35122SOL    HW211204   4.642  12.273   1.023  1.8474 -1.0099  0.6992
35123SOL     OW11205   9.119   8.301   3.205 -0.3146  0.4220  0.6411
35123SOL    HW111206   9.133   8.294   3.110 -1.5691  4.3314  0.0085
35123SOL    HW211207   9.024   8.303   3.214 -0.1975  0.4283  1.9671
35124SOL     OW11208  11.388  11.393   2.696 -0.2789  0.0084  0.2835
35124SOL    HW111209  11.372  11.300   2.679  0.3816 -0.3937  1.7670
35124SOL    HW211210  11.389  11.433   2.609  0.8951 -1.6134 -0.4978
35125SOL     OW11211   3.970   0.663   6.104  0.2226  0.1947  0.4410
35125SOL    HW111212   4.030   0.722   6.150 -0.3497  2.3677 -1.4625
35125SOL    HW211213   4.025   0.619   6.039 -0.3219  3.6348 -2.6783
35126SOL     OW11214   5.406   7.033   8.627 -0.5292  0.0958  0.2268
35126SOL    HW111215   5.354   7.098   8.581 -1.4555 -0.7316  0.0782
35126SOL    HW211216   5.352   6.954   8.627  0.2488 -0.4619  1.0699
35127SOL     OW11217   0.359   0.579   6.966  0.3030 -0.5445 -0.1957
35127SOL    HW111218   0.339   0.671   6.985  1.6649 -0.3542  0.3768
35127SOL    HW211219   0.293   0.530   7.016  0.3336  0.0938  0.4982
35128SOL     OW11220   6.915   8.424   5.601  0.6174  0.0979 -0.5247
35128SOL    HW111221   6.943   8.449   5.689  2.3798 -0.1520 -0.9685
35128SOL    HW211222   6.993   8.437   5.547  0.5079 -2.6538 -1.4875
35129SOL     OW11223   2.604   6.725   6.268  0.3819 -0.0055  0.2065
35129SOL    HW111224   2.700   6.735   6.263  0.4139 -0.3074  0.2175
35129SOL    HW211225   2.580   6.687   6.183  0.1437  1.0715 -0.2265
35130SOL     OW11226   5.103  10.522   8.799  0.1996  0.0566 -0.1230
35130SOL    HW111227   5.016  10.492   8.770  0.8168 -1.2600 -0.7046
35130SOL    HW211228   5.151  10.536   8.717  0.4380  1.1046  0.1916
35131SOL     OW11229   1.856   8.843   9.591 -0.2681 -0.0530  0.3065
35131SOL    HW111230   1.923   8.883   9.536  0.6229 -0.3260  1.1582
35131SOL    HW211231   1.800   8.796   9.530 -1.3310  2.3941 -0.7395
35132SOL     OW11232   6.909   0.060   4.074 -0.2462 -0.0747  0.0207
35132SOL    HW111233   6.856   0.046   4.152  1.4231 -0.4460  1.1321
35132SOL    HW211234   6.859   0.124   4.022 -0.8411  1.0935  1.9376
35133SOL     OW11235   7.573   2.865   7.476  0.4739 -0.6158  0.5402
35133SOL    HW111236   7.561   2.929   7.546  0.2681 -0.0100 -0.0414
35133SOL    HW211237   7.586   2.782   7.522 -0.4675 -0.3657  1.2945
35134SOL     OW11238   4.726   2.821   4.744 -0.3949  0.0062  0.7636
35134SOL    HW111239   4.678   2.784   4.670  0.7393  0.1217 -0.0616
35134SOL    HW211240   4.806   2.768   4.750  0.2749  0.9984  0.8672
35135SOL     OW11241   8.862   4.773  11.673  0.4905 -0.0265  0.4665
35135SOL    HW111242   8.851   4.682  11.643  2.3986  0.4226 -1.8363
35135SOL    HW211243   8.911   4.765  11.755 -0.6518 -1.0943  1.0907
35136SOL     OW11244  10.040  10.655   6.793  0.0999 -0.5052  0.4032
35136SOL    HW111245  10.117  10.688   6.747  0.4888 -2.4305 -0.3793
35136SOL    HW211246   9.966  10.692   6.744  0.5071 -0.0744  0.1011
35137SOL     OW11247   8.184   4.795   0.806  0.0720 -0.0511 -0.5274
35137SOL    HW111248   8.251   4.739   0.767 -0.9704 -0.8320 -1.2623
35137SOL    HW211249   8.105   4.740   0.807 -0.1650  0.1822  1.9807
35138SOL     OW11250  12.093   6.238  12.316 -0.7681 -0.3968  0.0390
35138SOL    HW111251  12.106   6.322  12.359  1.5276  0.1074 -1.4333
35138SOL    HW211252  12.041   6.258  12.238  0.7448 -0.0737 -0.9282
35139SOL     OW11253  12.083   3.229   7.546 -0.1122 -0.2080  0.0706
35139SOL    HW111254  12.152   3.165   7.558  0.1742  0.1025  0.1036
35139SOL    HW211255  12.001   3.179   7.550  0.0470 -0.3806  1.4582
35140SOL     OW11256   4.097   4.525   1.412  0.2993 -0.1551  0.4586
35140SOL    HW111257   4.070   4.613   1.385  0.5735  1.0472  3.6046
35140SOL    HW211258   4.017   4.486   1.447  0.7300  0.0283  1.7250
35141SOL     OW11259   4.187   0.226  11.452 -0.0657  0.2265 -0.1781
35141SOL    HW111260   4.180   0.287  11.526 -1.3791  0.1159 -0.1772
35141SOL    HW211261   4.220   0.280  11.379  0.8479  0.4251  0.3710
35142SOL     OW11262   7.711   5.122   7.279 -0.4309  0.4731 -0.0667
35142SOL    HW111263   7.785   5.071   7.311 -0.5599  1.1803  1.4392
35142SOL    HW211264   7.750   5.204   7.247 -0.4565  0.3673 -0.3768
35143SOL     OW11265   8.632   7.409   9.614 -0.2461  0.2734  0.1193
35143SOL    HW111266   8.635   7.435   9.707 -2.1888  1.0154  0.0223
35143SOL    HW211267   8.646   7.314   9.616 -0.4090  0.2519  1.1952
35144SOL     OW11268   4.277   6.049   9.190 -0.5971 -0.1427 -0.7154
35144SOL    HW111269   4.274   6.093   9.276 -1.2601 -0.7595 -0.4173
35144SOL    HW211270   4.351   5.989   9.197 -0.8031 -0.3724 -0.4811
35145SOL     OW11271   4.909   2.320   2.874 -0.3793 -0.1748 -0.1025
35145SOL    HW111272   4.990   2.269   2.884 -1.2818 -1.7798 -0.5815
35145SOL    HW211273   4.916   2.389   2.940  1.7408  0.2515 -0.6717
35146SOL     OW11274   6.378   1.142   1.010 -0.5481 -0.7519 -0.0926
35146SOL    HW111275   6.431   1.072   1.048  0.4249  1.2859  2.6522
35146SOL    HW211276   6.441   1.209   0.984 -1.5702  0.4343  0.3492
35147SOL     OW11277   2.080   8.286   9.143  0.0190  0.1251  0.1649
35147SOL    HW111278   2.078   8.374   9.182  0.4852  0.7223 -1.0959
35147SOL    HW211279   2.030   8.232   9.204 -0.3283  1.2791  0.9446
35148SOL     OW11280   7.057   4.713  12.048  0.3312 -0.3716 -0.4119
35148SOL    HW111281   7.054   4.807  12.067 -1.1706 -0.0655 -1.9925
35148SOL    HW211282   6.979   4.678  12.091  0.4146 -0.7431 -0.5634
35149SOL     OW11283   2.351   5.328   0.569 -0.3120  0.2766  0.1323
35149SOL    HW111284   2.345   5.348   0.662 -1.2261 -0.0257  0.1504
35149SOL    HW211285   2.285   5.383   0.527  0.4028  0.7500 -0.4062
35150SOL     OW11286   0.479   5.276   7.185  0.3775  0.5068  0.5964
35150SOL    HW111287   0.421   5.348   7.210  0.0909  0.2017  0.8164
35150SOL    HW211288   0.563   5.318   7.167 -0.3035  1.1769 -1.2824
35151SOL     OW11289   6.969   6.881   1.554  0.3391 -0.1420  0.0247
35151SOL    HW111290   6.939   6.920   1.637  0.1992 -2.4537  1.1494
35151SOL    HW211291   7.064   6.879   1.562  0.2827 -1.1354  0.5223
35152SOL     OW11292  11.469   4.963   2.221  0.5085  0.2319  0.2739
35152SOL    HW111293  11.523   4.884   2.228 -0.2534 -0.5644 -1.9468
35152SOL    HW211294  11.533   5.034   2.216  1.2923 -0.4718 -0.1156
35153SOL     OW11295   7.834  11.209   5.442  0.1562  0.0281  0.2301
35153SOL    HW111296   7.834  11.114   5.427  1.2398  0.1942 -0.9375
35153SOL    HW211297   7.858  11.219   5.534 -2.5915 -0.8927  1.1304
35154SOL     OW11298   3.468   1.141   4.895  0.1825  0.4110 -0.2720
35154SOL    HW111299   3.513   1.149   4.811 -0.3088 -2.2328 -0.8833
35154SOL    HW211300   3.534   1.107   4.955  0.2388  1.2097  0.1248
35155SOL     OW11301   3.512   1.063   7.558 -0.3997 -0.8846  0.1399
35155SOL    HW111302   3.438   1.029   7.507  0.6302 -1.3174 -1.1088
35155SOL    HW211303   3.519   1.003   7.633 -1.6641 -0.4910  0.5928
35156SOL     OW11304   2.737   1.619   4.417 -0.8184  0.2050 -0.1927
35156SOL    HW111305   2.783   1.538   4.441  0.3354  0.9964  0.3395
35156SOL    HW211306   2.679   1.636   4.491  0.9328  1.3031  1.0109
35157SOL     OW11307   3.252   6.463   7.895  0.5274  0.1209  0.0473
35157SOL    HW111308   3.165   6.449   7.858  0.9876 -0.7625 -0.7283
35157SOL    HW211309   3.308   6.400   7.850  1.3087 -0.2930  1.5317
35158SOL     OW11310   0.491   3.966   8.745  0.1152 -0.3515  0.0261
35158SOL    HW111311   0.531   3.972   8.831 -0.6177  2.0402  0.2757
35158SOL    HW211312   0.425   3.897   8.753 -1.3572  1.1889  2.0324
35159SOL     OW11313   8.513   1.020   7.603 -0.0201 -0.3548 -0.7996
35159SOL    HW111314   8.561   0.938   7.600  1.6898  0.5967 -0.7905
35159SOL    HW211315   8.503   1.046   7.511 -1.8122 -1.2140 -0.8983
35160SOL     OW11316   6.081   7.832   1.273  0.7101 -0.3558 -0.7185
35160SOL    HW111317   6.033   7.914   1.269  1.1638 -0.0474  0.0859
35160SOL    HW211318   6.151   7.847   1.337  0.6505 -1.4390 -0.3800
35161SOL     OW11319  11.851   3.309  11.222 -0.7941 -0.3469  0.1470
35161SOL    HW111320  11.831   3.372  11.152 -0.1095 -0.9603 -0.6123
35161SOL    HW211321  11.946   3.298  11.218 -0.7931 -0.6488  0.9562
35162SOL     OW11322   1.044   8.994   4.028  0.0873 -0.0995  0.2079
35162SOL    HW111323   0.961   9.040   4.043 -0.1020 -0.1015 -0.8010
35162SOL    HW211324   1.047   8.928   4.097 -1.4224 -1.0087 -0.5510
35163SOL     OW11325   9.195  10.778   3.506 -0.2977 -0.0238 -0.0112
35163SOL    HW111326   9.113  10.806   3.465  0.0460  0.8613 -0.1102
35163SOL    HW211327   9.172  10.763   3.598 -0.5101  0.5266  0.0305
35164SOL     OW11328   1.310   9.907   8.928  0.2804 -0.2292  0.1149
35164SOL    HW111329   1.215   9.906   8.916  0.0331 -0.2980  1.8452
35164SOL    HW211330   1.323   9.946   9.014  1.8167 -0.4574  0.0162
35165SOL     OW11331  11.585  11.423   7.455  0.4034 -0.2016  0.3277
35165SOL    HW111332  11.553  11.422   7.364 -1.4732  4.1774  0.7070
35165SOL    HW211333  11.674  11.390   7.449  1.3369  2.3136 -3.6591
35166SOL     OW11334   6.945   5.508   1.613 -0.1622 -0.7726  0.1672
35166SOL    HW111335   6.958   5.601   1.596  0.3774 -0.7923  0.4539
35166SOL    HW211336   6.988   5.493   1.698 -0.9188 -1.1204  0.5002
35167SOL     OW11337   8.071   9.826   9.445  0.1037  0.6637  0.1258
35167SOL    HW111338   8.146   9.788   9.491 -1.5289 -0.3219  2.1076
35167SOL    HW211339   8.011   9.852   9.514 -1.5196  1.2151 -1.4210
35168SOL     OW11340   2.545  12.227   4.978  0.3834 -0.3346 -0.0591
35168SOL    HW111341   2.506  12.313   4.991  0.4235 -0.2661 -0.4034
35168SOL    HW211342   2.568  12.224   4.886 -1.9769 -1.6907 -0.6904
35169SOL     OW11343   0.935   4.840  12.013 -0.0756 -0.1764 -0.2364
35169SOL    HW111344   0.985   4.811  12.089  0.6041  1.3153 -0.0869
35169SOL    HW211345   0.855   4.877  12.049  1.1833  2.5363 -0.0027
35170SOL     OW11346   4.969   9.216   2.750  0.0231 -0.4508  0.4472
35170SOL    HW111347   4.972   9.285   2.816 -0.5435 -0.8975  0.9546
35170SOL    HW211348   4.909   9.250   2.683  1.7362  0.6363 -0.6053
35171SOL     OW11349   4.174   5.012   9.591  0.6381 -0.5350 -0.2535
35171SOL    HW111350   4.138   4.941   9.644  0.8901  0.0802  0.7551
35171SOL    HW211351   4.194   5.081   9.653  1.4343  0.0059 -1.0851
35172SOL     OW11352   4.327   9.448   1.081 -0.8919 -0.3578 -0.3320
35172SOL    HW111353   4.258   9.381   1.077 -2.7262  1.2979  1.4769
35172SOL    HW211354   4.282   9.527   1.111  2.0748  0.3249  2.9947
35173SOL     OW11355   6.561  10.509   7.782  0.1271 -0.3720  0.1243
35173SOL    HW111356   6.563  10.418   7.753  0.6113 -0.2852 -0.1273
35173SOL    HW211357   6.485  10.514   7.841  1.3377 -1.4728  1.8930
35174SOL     OW11358   2.667   0.725   0.974  0.1840 -0.8749 -0.5285
35174SOL    HW111359   2.717   0.751   0.897 -0.3858  0.4203 -0.4845
35174SOL    HW211360   2.635   0.808   1.011 -2.4511 -1.6572 -0.8770
35175SOL     OW11361   5.773  10.550  10.018 -0.3794 -0.4217  0.1490
35175SOL    HW111362   5.788  10.631  10.067 -1.5158 -0.0709 -0.0480
35175SOL    HW211363   5.688  10.519  10.050 -0.1920 -1.2650 -0.1517
35176SOL     OW11364   1.714   7.221   0.938  0.1876  0.2660  0.1085
35176SOL    HW111365   1.775   7.293   0.925 -0.8926  0.6788 -3.6604
35176SOL    HW211366   1.691   7.227   1.031  3.3155  2.0532  0.9440
35177SOL     OW11367   2.445   8.620   3.213 -0.0464  0.4611  0.0057
35177SOL    HW111368   2.453   8.655   3.302 -1.0895 -1.5514  0.9773
35177SOL    HW211369   2.352   8.601   3.203  0.2281 -0.4695 -1.0511
35178SOL     OW11370   9.815   2.827  11.300  0.0019 -0.5192 -0.1371
35178SOL    HW111371   9.785   2.910  11.337  0.4161  0.6842 -2.3258
35178SOL    HW211372   9.889   2.801  11.356 -0.7092  0.0755  1.1251
35179SOL     OW11373   2.999   0.611  11.218 -0.0928 -0.1773  0.1844
35179SOL    HW111374   2.972   0.696  11.182  1.8734  0.6913  0.6273
35179SOL    HW211375   2.968   0.612  11.308 -0.0237  0.0932  0.2061
35180SOL     OW11376   1.779   3.193   2.651  0.6771  0.6986  0.3961
35180SOL    HW111377   1.832   3.272   2.648  0.9678  0.5121  0.5299
35180SOL    HW211378   1.806   3.143   2.574 -0.8487  1.5650 -0.7419
35181SOL     OW11379   2.602  11.095  11.820 -0.1990 -0.4425 -0.1649
35181SOL    HW111380   2.593  11.000  11.828 -3.0121 -0.1903  0.4572
35181SOL    HW211381   2.635  11.109  11.731 -0.3466 -1.9495 -0.4755
35182SOL     OW11382   2.324  10.702   3.130 -0.1346  0.2872  0.0641
35182SOL    HW111383   2.233  10.726   3.114 -0.3725 -0.9281 -0.4696
35182SOL    HW211384   2.341  10.628   3.073  1.5407  1.1536 -0.6635
35183SOL     OW11385   9.882   2.784   3.287  0.5022 -0.3283  0.0308
35183SOL    HW111386   9.961   2.755   3.334 -0.4023 -1.5546  0.8570
35183SOL    HW211387   9.904   2.872   3.257  2.4475 -0.8862 -0.3774
35184SOL     OW11388   1.606   5.860   8.877 -0.3519  0.1318 -0.2122
35184SOL    HW111389   1.677   5.861   8.941 -1.5047 -0.0553  1.1158
35184SOL    HW211390   1.635   5.797   8.810  1.2115  0.9098 -0.3082
35185SOL     OW11391   7.927   7.995   9.161 -0.3305  0.3021 -0.3262
35185SOL    HW111392   8.012   7.950   9.160  0.8807  2.3158  1.3874
35185SOL    HW211393   7.913   8.022   9.070  2.6406  2.7707 -0.2447
35186SOL     OW11394  11.105   6.589   8.224  0.1223 -0.3709 -0.1671
35186SOL    HW111395  11.010   6.599   8.221 -0.0465 -1.8594 -0.6026
35186SOL    HW211396  11.139   6.668   8.181 -0.8901  0.3375  0.3146
35187SOL     OW11397  11.374   0.358  12.106  0.0043 -0.5046  0.4754
35187SOL    HW111398  11.426   0.279  12.121 -0.4085 -0.8083  0.3086
35187SOL    HW211399  11.306   0.355  12.174 -0.3600 -0.5948  0.1109
35188SOL     OW11400   3.504  11.118   8.419 -0.1063 -0.1408  0.1926
35188SOL    HW111401   3.596  11.096   8.437 -0.2460 -1.2574 -0.3390
35188SOL    HW211402   3.503  11.213   8.410  1.6010 -0.2760 -2.8518
35189SOL     OW11403   3.778   5.441   5.717 -0.5245  0.2249  0.5860
35189SOL    HW111404   3.693   5.479   5.695 -1.1489 -0.7456  1.2343
35189SOL    HW211405   3.809   5.401   5.636 -0.7355  0.4963  0.3708
35190SOL     OW11406  11.140   1.935   7.693  0.3687 -0.1146  0.0437
35190SOL    HW111407  11.044   1.939   7.697  0.3295 -1.3394  1.1760
35190SOL    HW211408  11.160   1.942   7.600 -0.7766  0.9257 -0.1487
35191SOL     OW11409   2.826   5.265   0.962  0.3129  0.2560  0.4134
35191SOL    HW111410   2.750   5.243   1.015 -1.1634  0.4365 -1.5318
35191SOL    HW211411   2.873   5.182   0.952  0.7392  0.2561  2.1060
35192SOL     OW11412   4.943   6.276  10.924 -0.1410  0.5118  0.6345
35192SOL    HW111413   4.994   6.353  10.898 -0.0889  0.7225  1.3592
35192SOL    HW211414   4.854   6.308  10.937 -0.2771  0.3090  0.2420
35193SOL     OW11415   8.417   8.531   7.661  0.0092  0.9207 -0.2800
35193SOL    HW111416   8.380   8.613   7.627 -0.7223  0.4763 -0.5675
35193SOL    HW211417   8.409   8.469   7.589  2.8207  1.2076 -0.9439
35194SOL     OW11418   9.470   4.673   5.812  0.3014 -0.0569 -0.3899
35194SOL    HW111419   9.439   4.752   5.769 -2.6934 -0.7961  0.1482
35194SOL    HW211420   9.479   4.609   5.742  0.5745  0.1731 -0.5630
35195SOL     OW11421  12.204  11.748   1.783  0.1457  0.7996  0.4172
35195SOL    HW111422  12.130  11.758   1.722  1.6315 -1.1598 -1.9206
35195SOL    HW211423  12.172  11.687   1.849 -0.4912  0.2970 -0.3316
35196SOL     OW11424   2.943   4.487   7.039  0.4663  0.2517 -0.2301
35196SOL    HW111425   2.901   4.571   7.018 -0.3346  0.2932  1.4363
35196SOL    HW211426   3.037   4.505   7.028  0.2107  0.7961 -1.7839
35197SOL     OW11427   5.643  10.226   6.685 -0.3124 -1.2311 -0.3820
35197SOL    HW111428   5.660  10.305   6.633 -2.0172 -0.6684 -0.1410
35197SOL    HW211429   5.690  10.242   6.767 -1.6293  0.1333  0.1576
35198SOL     OW11430  11.462   4.842   5.631 -0.2090 -0.1624 -0.6548
35198SOL    HW111431  11.469   4.777   5.561 -0.1659 -0.3494 -0.4790
35198SOL    HW211432  11.521   4.913   5.604  0.1272 -0.4199 -0.6058
35199SOL     OW11433  10.141   7.815   7.113 -0.1154  0.8389 -0.2348
35199SOL    HW111434  10.049   7.788   7.106 -0.3072  0.8993  1.5978
35199SOL    HW211435  10.188   7.754   7.056 -1.0625 -0.4688  0.3298
35200SOL     OW11436   7.962  10.690   8.676 -0.1268 -0.1534 -0.3549
35200SOL    HW111437   8.007  10.635   8.740 -0.5435 -0.2347 -0.1338
35200SOL    HW211438   8.033  10.723   8.620  0.5524  1.8121  1.5377
35201SOL     OW11439   8.547   0.950  11.415  0.6693  0.0673  0.1621
35201SOL    HW111440   8.587   1.027  11.454 -1.1670  1.4496 -0.5582
35201SOL    HW211441   8.592   0.940  11.331  0.3045  0.9369 -0.1497
35202SOL     OW11442   4.144   1.364   8.365 -0.4512 -0.0199 -0.1578
35202SOL    HW111443   4.158   1.271   8.382 -0.9649 -0.3354 -1.3865
35202SOL    HW211444   4.138   1.370   8.270 -1.9225  1.0561 -0.0169
35203SOL     OW11445   7.128   2.987   6.275 -0.6401  0.0041  0.5863
35203SOL    HW111446   7.212   3.033   6.284 -1.3309  1.2216  1.0155
35203SOL    HW211447   7.077   3.016   6.350 -1.9724  0.4410 -0.4532
35204SOL     OW11448   3.182  12.122  10.528  0.2596  0.2417  0.1066
35204SOL    HW111449   3.200  12.136  10.620  0.3605  1.0769 -0.0316
35204SOL    HW211450   3.236  12.048  10.503 -0.7557 -0.8466  1.0264
35205SOL     OW11451   4.177   8.253   9.569 -0.4265  0.2077 -0.1146
35205SOL    HW111452   4.196   8.161   9.551  0.6557  0.4107 -0.0986
35205SOL    HW211453   4.172   8.294   9.483  0.5412  0.3917 -0.0962
35206SOL     OW11454   3.398   9.303   5.351 -0.1173 -0.2996 -0.0273
35206SOL    HW111455   3.417   9.210   5.367 -0.0313  0.1566  3.0055
35206SOL    HW211456   3.342   9.302   5.273 -0.4424 -2.9284  0.1279
35207SOL     OW11457   0.418   2.076  10.267  0.3939 -0.4504 -0.0390
35207SOL    HW111458   0.471   2.119  10.335  0.4738 -0.6934  0.0517
35207SOL    HW211459   0.337   2.052  10.313 -0.1551  0.6800 -0.3794
35208SOL     OW11460   2.491   9.102   8.983  0.3272  0.4721 -0.6596
35208SOL    HW111461   2.508   9.076   9.074 -1.4595  0.0119 -0.4002
35208SOL    HW211462   2.577   9.116   8.945  1.1211  0.5615  1.0792
35209SOL     OW11463   1.803   2.652   8.486 -0.2255  0.0667 -0.1034
35209SOL    HW111464   1.740   2.621   8.552  0.7067  0.1844  0.8668
35209SOL    HW211465   1.882   2.601   8.503 -0.5944 -1.5410 -2.5993
35210SOL     OW11466  11.934   6.150   8.638  0.0957 -0.8738 -0.5642
35210SOL    HW111467  11.937   6.245   8.649 -1.1278 -0.7879 -0.8479
35210SOL    HW211468  11.857   6.123   8.687  0.4895 -1.7371 -0.4113
35211SOL     OW11469   8.168   9.697  10.336 -0.5554  0.8363  0.8097
35211SOL    HW111470   8.102   9.681  10.403  0.0512 -1.5691  0.9209
35211SOL    HW211471   8.244   9.647  10.365  0.7309  2.1309 -0.2090
35212SOL     OW11472   4.795   7.127   4.834 -0.0228 -0.0029 -0.0409
35212SOL    HW111473   4.774   7.038   4.804  0.0949  1.0611 -3.7864
35212SOL    HW211474   4.890   7.128   4.842 -0.0380 -0.2294  0.2088
35213SOL     OW11475   5.850   1.224  10.963  0.0817  0.2317  0.5319
35213SOL    HW111476   5.918   1.251  10.901  0.7784  0.5202  1.4006
35213SOL    HW211477   5.768   1.252  10.922  0.6173  1.5478  0.3138
35214SOL     OW11478   6.926   0.436  11.099 -0.0133  0.0960  0.1317
35214SOL    HW111479   6.987   0.403  11.032 -0.1887  2.9295 -1.5892
35214SOL    HW211480   6.844   0.391  11.080  0.0318  0.6061 -1.3830
35215SOL     OW11481   9.054   3.344   8.624  0.2156 -0.1380  0.6020
35215SOL    HW111482   8.999   3.392   8.562 -0.0762 -0.1777  0.8233
35215SOL    HW211483   9.133   3.396   8.632  0.5965 -0.5397 -0.4106
35216SOL     OW11484   8.535   8.719   3.466  0.0171 -0.3007  0.5289
35216SOL    HW111485   8.470   8.753   3.527 -1.3616 -1.4540 -0.2410
35216SOL    HW211486   8.565   8.637   3.505  0.0600 -0.4109  0.2726
35217SOL     OW11487   6.947   2.978   1.148 -0.7693  0.0545 -0.3646
35217SOL    HW111488   6.860   2.956   1.113 -0.7745  1.2433 -1.1741
35217SOL    HW211489   6.955   2.925   1.227 -1.5611 -1.2979 -1.1355
35218SOL     OW11490   8.153   0.051   1.083 -0.3921 -0.2028  0.4837
35218SOL    HW111491   8.089   0.118   1.108  0.7553  0.3780  2.0474
35218SOL    HW211492   8.229   0.068   1.140  0.7967 -1.4415 -0.6576
35219SOL     OW11493   7.548   0.632   2.890  0.4988 -0.2304 -0.4207
35219SOL    HW111494   7.531   0.551   2.842  1.1867 -0.1831 -0.7635
35219SOL    HW211495   7.643   0.629   2.907  0.3484 -0.0181  0.5093
35220SOL     OW11496  12.182   5.002  11.674  0.0757  0.4867  0.2316
35220SOL    HW111497  12.247   5.003  11.745 -1.9511 -0.5473  2.2255
35220SOL    HW211498  12.167   4.909  11.656 -0.9420  0.7038 -0.0964
35221SOL     OW11499   0.720   6.186   8.289  0.1549 -0.2940 -0.0018
35221SOL    HW111500   0.778   6.229   8.351 -0.2498  0.7192 -0.3101
35221SOL    HW211501   0.664   6.256   8.256 -2.5075 -1.4680  1.6313
35222SOL     OW11502   2.270   5.974   0.872  0.3758 -0.0209 -1.0573
35222SOL    HW111503   2.346   5.917   0.886  1.9483  1.7029 -2.0672
35222SOL    HW211504   2.270   5.992   0.778 -1.2079  0.1394 -1.0494
35223SOL     OW11505   6.703   7.809   3.345  0.1280  0.3606 -0.7012
35223SOL    HW111506   6.756   7.887   3.327  2.1269 -0.7950 -0.1969
35223SOL    HW211507   6.616   7.830   3.312  0.1623  3.3960  0.8859
35224SOL     OW11508   0.104  10.067   1.119  0.1455  0.0046 -0.5426
35224SOL    HW111509   0.020  10.070   1.073  1.5254 -0.0997 -3.3148
35224SOL    HW211510   0.157  10.006   1.067  1.8109 -0.2603  1.3596
35225SOL     OW11511   7.266   0.612   6.591  0.3677  0.1922 -0.7642
35225SOL    HW111512   7.218   0.611   6.508 -1.2535  0.3716  0.1182
35225SOL    HW211513   7.227   0.685   6.639 -0.3580 -1.3082  1.0490
35226SOL     OW11514   0.976   3.741   6.983 -0.3639 -0.0204  0.1167
35226SOL    HW111515   1.004   3.668   6.928  2.9977  2.0968 -1.2662
35226SOL    HW211516   0.956   3.812   6.922  0.0035  1.3343  1.4987
35227SOL     OW11517   7.284   0.648   1.695  0.0264 -0.5475  0.2253
35227SOL    HW111518   7.295   0.556   1.672 -1.3312 -0.3671 -1.3051
35227SOL    HW211519   7.190   0.659   1.707  0.1041  0.7583 -0.2089
35228SOL     OW11520   8.878   2.663   0.553 -0.7386  0.0763 -0.2318
35228SOL    HW111521   8.851   2.754   0.559  0.4555  0.5165 -1.0555
35228SOL    HW211522   8.800   2.613   0.573 -1.2588  1.2789  0.8357
35229SOL     OW11523   0.440   8.604  11.173 -0.5539  0.3714  0.1925
35229SOL    HW111524   0.481   8.651  11.101 -2.2005  1.4793 -0.0778
35229SOL    HW211525   0.348   8.599  11.150 -1.2018  1.0492  2.3462
35230SOL     OW11526   4.344   9.403   7.539 -0.3546  0.1112 -0.2997
35230SOL    HW111527   4.291   9.395   7.460 -0.0376  0.5520 -0.5621
35230SOL    HW211528   4.423   9.449   7.511 -0.8712  1.6022  0.5605
35231SOL     OW11529   3.346  11.790   7.881  0.4711 -0.4860  0.1396
35231SOL    HW111530   3.405  11.765   7.810 -1.5908 -1.3826 -1.3673
35231SOL    HW211531   3.390  11.862   7.925  2.5608 -0.9802 -1.0289
35232SOL     OW11532   7.531  10.375   3.618 -0.6271  0.2866  0.1419
35232SOL    HW111533   7.487  10.296   3.585  0.3138 -0.8832  1.5412
35232SOL    HW211534   7.565  10.349   3.704  0.1443  2.0806  0.4171
35233SOL     OW11535   9.978  10.364   6.006 -0.2228 -0.2142  0.7353
35233SOL    HW111536  10.000  10.320   6.089  0.1429  1.6559  1.6921
35233SOL    HW211537   9.936  10.446   6.033 -1.4470 -0.2294 -0.9844
35234SOL     OW11538   2.506   5.568   5.620  0.6420 -0.0821  0.5184
35234SOL    HW111539   2.529   5.656   5.590 -2.1219 -0.0299 -1.8588
35234SOL    HW211540   2.562   5.510   5.568  0.4031  0.2097 -0.0707
35235SOL     OW11541  11.573   4.405   5.264 -0.5807 -0.3939 -0.3573
35235SOL    HW111542  11.521   4.411   5.184 -1.2281 -1.1233 -0.0063
35235SOL    HW211543  11.621   4.323   5.255  2.2821  1.2642 -1.6791
35236SOL     OW11544   5.241   2.980   6.836 -0.2323 -0.0706 -0.1525
35236SOL    HW111545   5.304   3.014   6.900 -0.3000  1.3148 -0.7847
35236SOL    HW211546   5.295   2.951   6.763 -0.3240  1.9673 -1.0842
35237SOL     OW11547   2.488   7.493   0.279 -0.1132 -0.4201  0.1154
35237SOL    HW111548   2.447   7.568   0.323  0.2172 -0.4160  0.4274
35237SOL    HW211549   2.515   7.527   0.194  1.7890  0.3840  0.9877
35238SOL     OW11550   1.947   1.488   7.491  0.0861 -0.0851 -0.1908
35238SOL    HW111551   2.010   1.417   7.504 -0.5886 -0.5021  0.9724
35238SOL    HW211552   1.996   1.568   7.511  0.3083 -0.3891  0.5033
35239SOL     OW11553   2.294   2.047   7.087 -0.1250  0.5228 -0.2023
35239SOL    HW111554   2.386   2.074   7.086 -0.0769  0.4382  1.0260
35239SOL    HW211555   2.262   2.072   7.000  1.4260 -0.8000 -1.2244
35240SOL     OW11556   2.274   2.395   6.385  0.3830  0.6077  0.2630
35240SOL    HW111557   2.309   2.307   6.401 -2.8172 -0.7880  0.4238
35240SOL    HW211558   2.262   2.399   6.291 -0.0741  0.5932  0.3176
35241SOL     OW11559  12.081  11.252   5.199 -0.1775 -0.0193  0.0213
35241SOL    HW111560  12.146  11.322   5.203 -0.1425  0.1859 -2.5013
35241SOL    HW211561  12.122  11.177   5.242  1.5785  0.2174 -1.1879
35242SOL     OW11562   0.055  11.572   3.545  0.2706  0.3887 -0.3688
35242SOL    HW111563   0.068  11.665   3.525 -0.8565  0.8187  0.7308
35242SOL    HW211564  -0.039  11.564   3.563  0.0234 -1.3306 -2.1135
35243SOL     OW11565   2.265   0.115   8.203  0.3823 -0.2702  0.1469
35243SOL    HW111566   2.309   0.042   8.160  1.0630  1.2751 -1.9270
35243SOL    HW211567   2.192   0.137   8.145 -0.5143  0.0218  1.3297
35244SOL     OW11568   7.170   2.001   4.442 -0.3548 -0.0937  0.4336
35244SOL    HW111569   7.124   2.017   4.525 -1.5320 -1.2612  0.0430
35244SOL    HW211570   7.234   2.071   4.437 -2.2650  1.8051  0.8790
35245SOL     OW11571   5.628  11.809   4.795  0.1476 -0.5888 -0.3515
35245SOL    HW111572   5.597  11.798   4.705  0.1404 -0.8151 -0.3211
35245SOL    HW211573   5.573  11.878   4.831  1.0425  0.4643 -0.9437
35246SOL     OW11574   1.243   0.523  12.234 -0.8930 -0.3875 -0.2727
35246SOL    HW111575   1.212   0.470  12.160  0.5457 -0.8602 -0.5825
35246SOL    HW211576   1.222   0.613  12.209  1.1416 -0.3339 -2.1736
35247SOL     OW11577   5.060  11.346   9.699  0.0644  0.7017  0.1122
35247SOL    HW111578   5.127  11.332   9.632 -0.0321 -0.2271  0.1913
35247SOL    HW211579   5.105  11.393   9.769  0.3011  1.2104 -0.3710
35248SOL     OW11580  11.996   0.472   5.934  0.2182  0.1232  1.0151
35248SOL    HW111581  11.946   0.454   6.013  0.9096 -0.7415  1.2735
35248SOL    HW211582  12.029   0.561   5.945 -3.1110  1.6719 -0.1838
35249SOL     OW11583  11.445   5.330   2.946 -0.0887  0.0409  0.5196
35249SOL    HW111584  11.468   5.399   3.008  2.9836 -0.2378 -0.1252
35249SOL    HW211585  11.465   5.249   2.992 -2.3720 -0.4352  0.7796
35250SOL     OW11586   9.042   7.423   4.506  0.3596  0.1034 -0.2055
35250SOL    HW111587   9.056   7.437   4.413  0.1597 -2.0763 -0.6156
35250SOL    HW211588   9.049   7.510   4.545  3.7625  0.6847 -1.7842
35251SOL     OW11589   5.530   1.191  10.599  0.4990 -0.1547 -0.3636
35251SOL    HW111590   5.554   1.149  10.682  1.3241  0.3553 -0.3398
35251SOL    HW211591   5.438   1.167  10.587  1.0709 -2.4609 -0.6465
35252SOL     OW11592   4.265   1.053   7.652  0.3935 -0.7996 -0.5805
35252SOL    HW111593   4.228   1.113   7.587 -0.1367 -1.2349 -0.6789
35252SOL    HW211594   4.197   0.988   7.668  1.4345 -2.1604 -1.4516
35253SOL     OW11595   0.170   8.352   5.432 -0.3098 -0.0649  0.2075
35253SOL    HW111596   0.257   8.325   5.403 -1.5929 -1.9721 -2.2137
35253SOL    HW211597   0.120   8.364   5.351 -2.5358  0.2350  1.5347
35254SOL     OW11598   2.099   6.528   2.127 -0.5855 -0.8526 -0.5351
35254SOL    HW111599   2.015   6.575   2.131 -0.3545 -0.4981  0.6974
35254SOL    HW211600   2.123   6.514   2.219  1.5880  0.6707 -0.7788
35255SOL     OW11601   4.316  11.084   8.534  0.0862  0.2289  0.1867
35255SOL    HW111602   4.386  11.147   8.513 -1.3692  0.5606 -5.1378
35255SOL    HW211603   4.240  11.139   8.552 -0.5374  0.1248 -1.8406
35256SOL     OW11604   0.609   1.833   5.660 -0.4414  0.6795  0.5090
35256SOL    HW111605   0.615   1.739   5.675  0.5996  0.9376  1.8748
35256SOL    HW211606   0.700   1.864   5.664 -0.1728  1.2237 -4.0559
35257SOL     OW11607   7.020   9.575   1.175 -0.0664 -0.6240  0.4093
35257SOL    HW111608   6.937   9.577   1.223 -0.6274  0.5518 -0.5526
35257SOL    HW211609   7.024   9.486   1.140 -1.0289 -0.6513  0.3224
35258SOL     OW11610   4.737   0.590   0.454  0.2558 -0.9011  0.0110
35258SOL    HW111611   4.731   0.495   0.444  1.1977 -1.0081  0.3567
35258SOL    HW211612   4.716   0.606   0.546 -2.4150 -0.5033 -0.5973
35259SOL     OW11613  11.951  12.237   7.118  0.2888  0.2068  0.3140
35259SOL    HW111614  11.932  12.172   7.050  0.9112  1.0248 -0.6706
35259SOL    HW211615  11.884  12.222   7.185 -0.2851 -0.6781 -0.4332
35260SOL     OW11616  11.895   4.255   7.951 -0.2672  0.1673  0.3320
35260SOL    HW111617  11.847   4.237   7.870 -0.9133  1.3030  0.4386
35260SOL    HW211618  11.857   4.195   8.016  0.3530 -0.8508 -0.2099
35261SOL     OW11619   4.197   4.226   8.307 -0.0904 -1.1829 -0.3330
35261SOL    HW111620   4.113   4.220   8.261  0.3064 -2.3263 -0.9428
35261SOL    HW211621   4.236   4.139   8.298  1.1162 -0.7043  0.0390
35262SOL     OW11622  12.278   8.572  10.860  0.0596 -0.0280  0.0750
35262SOL    HW111623  12.213   8.638  10.885  0.2734  0.5382 -0.8165
35262SOL    HW211624  12.326   8.612  10.787 -0.9031 -1.8252 -1.6352
35263SOL     OW11625   3.091  10.154   6.793  0.0344  0.1147 -0.0245
35263SOL    HW111626   3.066  10.246   6.786  0.3286  0.1820 -0.2078
35263SOL    HW211627   3.025  10.108   6.742 -0.1345  0.2187  0.0978
35264SOL     OW11628   0.328   2.492   9.774 -0.2082 -0.1389  0.2327
35264SOL    HW111629   0.303   2.548   9.700  0.0129  0.5296  0.6589
35264SOL    HW211630   0.288   2.407   9.754 -1.2916  0.4113  0.0132
35265SOL     OW11631  12.222   2.175   2.026  0.2537 -0.2338  0.2644
35265SOL    HW111632  12.167   2.245   2.060  1.1624  0.1602  0.9573
35265SOL    HW211633  12.305   2.218   2.004  0.7728 -1.0660  0.5604
35266SOL     OW11634   0.210  11.359   3.172  0.9491  0.6243  0.3457
35266SOL    HW111635   0.239  11.314   3.093 -1.5902  2.7257 -2.0046
35266SOL    HW211636   0.249  11.446   3.166  1.0113  0.6986  1.6168
35267SOL     OW11637   5.867   4.560   3.298  0.5500  0.1932 -0.5601
35267SOL    HW111638   5.797   4.622   3.277  1.3651  0.9059 -1.2766
35267SOL    HW211639   5.832   4.475   3.273 -0.4894  0.3707  0.1870
35268SOL     OW11640   7.349   0.034   0.729  0.1463 -0.3148 -0.0498
35268SOL    HW111641   7.307  -0.051   0.725  1.8086 -1.1718 -0.3936
35268SOL    HW211642   7.416   0.024   0.798  0.9649  0.4034 -0.7096
35269SOL     OW11643   8.645   7.109   2.132  0.4058 -0.2163  0.1343
35269SOL    HW111644   8.561   7.152   2.120  0.5544  0.2710  0.7692
35269SOL    HW211645   8.705   7.155   2.074  1.0151  1.8049  2.2457
35270SOL     OW11646  11.072   2.361   6.347  0.4447 -0.1959  0.6335
35270SOL    HW111647  11.163   2.350   6.318 -0.2624 -1.9373 -1.1116
35270SOL    HW211648  11.019   2.340   6.270 -1.4756  1.8772  1.2580
35271SOL     OW11649  12.114   9.054   3.591  0.8902 -0.4660 -0.8286
35271SOL    HW111650  12.139   9.127   3.646  0.2589 -0.7205 -0.1823
35271SOL    HW211651  12.171   9.060   3.515  0.4674  1.0362 -1.0605
35272SOL     OW11652   4.762  10.853   6.102 -0.3714  0.3096 -0.2331
35272SOL    HW111653   4.779  10.798   6.025 -1.0941  1.0911 -0.9730
35272SOL    HW211654   4.676  10.824   6.134 -0.5744  0.7193 -0.3908
35273SOL     OW11655   6.811   0.215  10.689 -0.1574  0.5953  0.6370
35273SOL    HW111656   6.903   0.192  10.675  0.0077  1.9701 -0.8249
35273SOL    HW211657   6.766   0.180  10.612 -0.3101  2.6666 -0.2901
35274SOL     OW11658   1.603   4.521   3.684 -0.4250  0.3142  0.4751
35274SOL    HW111659   1.573   4.605   3.650  0.5563  1.3225  1.9740
35274SOL    HW211660   1.565   4.515   3.771  0.9153  0.0247  1.0666
35275SOL     OW11661   8.315  11.750   4.504 -0.5578  0.0970 -0.4327
35275SOL    HW111662   8.307  11.797   4.421  0.0317  2.0337  0.5459
35275SOL    HW211663   8.405  11.719   4.506 -0.8336 -0.7560 -0.9028
35276SOL     OW11664   6.759  10.181   3.219 -0.6211  0.0369  0.0258
35276SOL    HW111665   6.669  10.213   3.229 -1.0921 -1.4212  0.8445
35276SOL    HW211666   6.753  10.088   3.240  1.2824  0.1294  1.2529
35277SOL     OW11667   6.176   5.378  10.612 -0.1705 -0.4037  0.2180
35277SOL    HW111668   6.243   5.415  10.555  0.7996 -3.6009 -0.9187
35277SOL    HW211669   6.219   5.371  10.698  1.3167 -2.8865 -0.6059
35278SOL     OW11670   6.775   2.839   9.443  0.4920  0.1264  0.6066
35278SOL    HW111671   6.845   2.864   9.503  0.1818  1.7640  0.3313
35278SOL    HW211672   6.799   2.880   9.360  0.1052 -0.7886  0.0300
35279SOL     OW11673   2.393   1.574   5.600 -0.5517  0.4208 -0.6318
35279SOL    HW111674   2.477   1.619   5.610 -0.3808  0.4332 -1.9761
35279SOL    HW211675   2.328   1.637   5.632 -0.1611  0.9371 -0.8457
35280SOL     OW11676   6.190   7.341   0.581  0.3671 -0.5843  0.4632
35280SOL    HW111677   6.187   7.433   0.555 -1.5205 -1.1691 -1.6506
35280SOL    HW211678   6.125   7.335   0.652  0.8519 -0.2189  0.9497
35281SOL     OW11679   6.018  11.732   7.703 -0.2139  0.2120  0.2950
35281SOL    HW111680   6.102  11.758   7.666 -0.7379  1.3421 -0.1477
35281SOL    HW211681   5.953  11.766   7.642 -1.0053 -0.6288  0.6376
35282SOL     OW11682   8.739   7.164   3.417 -0.2151  0.8487  0.0204
35282SOL    HW111683   8.775   7.175   3.329 -0.7091  0.6170 -0.2204
35282SOL    HW211684   8.682   7.087   3.409  0.5345  0.2055  0.8013
35283SOL     OW11685   5.875   5.733   0.829 -0.4010  0.8002  0.0912
35283SOL    HW111686   5.841   5.684   0.754  0.9227  0.2690 -0.1820
35283SOL    HW211687   5.859   5.675   0.904 -2.1280  1.5153  0.3305
35284SOL     OW11688   3.345   0.146   1.446  0.4226 -0.1551 -0.2877
35284SOL    HW111689   3.387   0.091   1.380 -1.2762 -2.5985  0.5358
35284SOL    HW211690   3.394   0.128   1.527 -1.2146 -1.9827  0.3787
35285SOL     OW11691   5.511  10.197   2.154  0.0892 -0.1084 -0.2175
35285SOL    HW111692   5.505  10.114   2.201 -0.4319  0.0314 -0.0331
35285SOL    HW211693   5.509  10.263   2.223 -0.1127  0.0756 -0.3990
35286SOL     OW11694   5.402  11.001  12.175 -0.5828 -0.2399  0.3561
35286SOL    HW111695   5.442  11.074  12.128 -0.5971 -0.4100  0.0760
35286SOL    HW211696   5.472  10.966  12.229 -0.4013 -0.4101  0.0175
35287SOL     OW11697  10.733   7.954   0.921  0.1654 -0.5184 -0.2734
35287SOL    HW111698  10.777   7.876   0.955 -0.4739 -0.7935 -0.0656
35287SOL    HW211699  10.769   8.026   0.972 -0.0900 -0.8179  0.3372
35288SOL     OW11700   5.878   8.208   3.093  0.1488  0.0797  0.0980
35288SOL    HW111701   5.910   8.153   3.164  1.4627  0.1077 -0.4503
35288SOL    HW211702   5.840   8.284   3.137 -1.1981 -0.9809  0.8382
35289SOL     OW11703   2.928  12.307   5.439 -0.1090 -0.2862 -0.2403
35289SOL    HW111704   2.898  12.332   5.526  0.7133  0.0753 -0.0450
35289SOL    HW211705   2.953  12.215   5.447  0.6380 -0.0604  0.1012
35290SOL     OW11706   6.170   8.538   4.322  0.0250  0.9018 -0.7108
35290SOL    HW111707   6.211   8.485   4.254  1.0417 -2.0855  1.9496
35290SOL    HW211708   6.243   8.562   4.380 -1.3215 -1.4267  2.1889
35291SOL     OW11709   8.064  10.906   2.978  0.5470  0.2357 -0.0600
35291SOL    HW111710   8.073  10.820   3.019  0.1719  0.1706 -0.1109
35291SOL    HW211711   8.139  10.956   3.010 -0.3724  0.5797  1.6580
35292SOL     OW11712   6.158   1.472   0.837 -0.0975 -0.0251 -0.1493
35292SOL    HW111713   6.100   1.527   0.783  0.6015  2.5207  1.4797
35292SOL    HW211714   6.109   1.460   0.918  1.3650  1.8039  1.0860
35293SOL     OW11715   6.937   5.232   7.132 -0.3898  0.6988  0.4644
35293SOL    HW111716   6.988   5.151   7.130 -0.9588  0.2539  2.2346
35293SOL    HW211717   6.999   5.300   7.107  0.0861 -0.2579 -1.1200
35294SOL     OW11718   8.026   3.651   4.977 -0.1796  0.0996  0.2141
35294SOL    HW111719   7.949   3.706   4.993  0.8669  1.4038  1.0177
35294SOL    HW211720   8.100   3.711   4.982  0.9584 -1.2423  0.1967
35295SOL     OW11721   7.969   4.622   4.854  0.2752 -0.0892  0.0593
35295SOL    HW111722   8.016   4.543   4.826  1.0243 -0.1979  1.5147
35295SOL    HW211723   7.953   4.671   4.773 -2.0253 -2.6489 -1.1974
35296SOL     OW11724   8.665   5.926   1.386  0.1873  0.3737  0.0964
35296SOL    HW111725   8.623   5.959   1.466 -3.5735 -3.0433 -0.1452
35296SOL    HW211726   8.603   5.948   1.316  0.8147 -1.2173 -1.0239
35297SOL     OW11727   7.122  11.434   7.002  0.4291 -0.1212  0.3883
35297SOL    HW111728   7.061  11.480   7.061 -0.2435 -0.3777 -0.0923
35297SOL    HW211729   7.125  11.345   7.038  0.3722 -0.1571  0.3038
35298SOL     OW11730   3.614   5.492  11.293  0.1493  0.4078  0.5008
35298SOL    HW111731   3.680   5.427  11.272 -0.0421 -0.5166  2.5238
35298SOL    HW211732   3.532   5.456  11.258  0.4005  0.6517 -0.3496
35299SOL     OW11733  12.271   1.368   5.238 -0.0841  0.0510 -0.4953
35299SOL    HW111734  12.328   1.410   5.302  1.0342 -1.6130 -0.3504
35299SOL    HW211735  12.318   1.377   5.155 -0.6927  0.6252 -0.7929
35300SOL     OW11736   4.094   4.158  11.990 -0.1414 -0.3217  0.3071
35300SOL    HW111737   4.116   4.220  11.920  0.1505 -1.4455 -0.6219
35300SOL    HW211738   4.110   4.207  12.071  1.5595  0.3303 -0.3774
35301SOL     OW11739   0.058   2.357   0.534  0.6611  0.4290  0.0918
35301SOL    HW111740  -0.018   2.380   0.588  0.3326  0.1502 -0.2530
35301SOL    HW211741   0.121   2.321   0.597  1.3770  2.6017  0.7384
35302SOL     OW11742   0.565   8.859   8.516  0.7474 -0.6421  0.2227
35302SOL    HW111743   0.529   8.911   8.587  1.6406 -2.8242  2.3834
35302SOL    HW211744   0.623   8.920   8.469  1.2410  0.5046  2.2231
35303SOL     OW11745   2.778   0.385   2.279  0.1538 -0.3886 -0.2333
35303SOL    HW111746   2.810   0.461   2.328 -2.1752  1.7704 -1.8058
35303SOL    HW211747   2.827   0.388   2.197  0.0095 -0.5305 -0.3249
35304SOL     OW11748   4.175   8.638   1.961  0.2482  0.6035 -0.7383
35304SOL    HW111749   4.176   8.610   1.870  0.7500  0.0557 -0.5679
35304SOL    HW211750   4.239   8.709   1.966  0.9119  0.0107 -0.6257
35305SOL     OW11751   7.526  11.984   5.261 -0.0939 -0.4049  0.4393
35305SOL    HW111752   7.533  11.889   5.259 -2.7648 -0.7288  1.4980
35305SOL    HW211753   7.554  12.008   5.350  1.2705 -0.0834 -0.0574
35306SOL     OW11754   3.492   8.069   9.523 -0.6513  0.4273  0.2136
35306SOL    HW111755   3.531   8.155   9.538 -1.5370  0.4751  2.7336
35306SOL    HW211756   3.418   8.065   9.584  0.1625 -2.6124  1.1982
35307SOL     OW11757  11.032   6.742   4.952  0.1441 -0.7068  0.5157
35307SOL    HW111758  11.100   6.808   4.965 -1.2420  1.1103 -1.0392
35307SOL    HW211759  11.080   6.659   4.948  2.2459  0.4692 -0.2106
35308SOL     OW11760  12.101  11.364   0.321 -0.3009  0.1793  0.4293
35308SOL    HW111761  12.071  11.388   0.233 -1.5784  2.5813  1.4565
35308SOL    HW211762  12.022  11.340   0.368  0.0356  1.2343  1.5935
35309SOL     OW11763   1.985   5.862   5.376  0.4385  0.2739  0.2229
35309SOL    HW111764   2.055   5.927   5.370  0.1859  0.4536 -0.9641
35309SOL    HW211765   1.932   5.891   5.450  0.4831  1.2703 -0.1237
35310SOL     OW11766   2.151   1.153   4.930 -0.3181 -0.4801 -0.5035
35310SOL    HW111767   2.234   1.143   4.883  0.8947  0.0487  1.3920
35310SOL    HW211768   2.173   1.208   5.006 -2.9970  2.0508 -1.3686
35311SOL     OW11769  10.715   4.109  11.972 -0.4302  0.3302  0.0409
35311SOL    HW111770  10.768   4.036  12.002 -0.6419 -0.2618 -0.9761
35311SOL    HW211771  10.716   4.102  11.877 -3.3044 -0.4656 -0.0370
35312SOL     OW11772   0.953  11.123   3.129 -0.4158  0.0107 -0.7947
35312SOL    HW111773   1.044  11.127   3.099 -0.2061 -0.6862 -0.2650
35312SOL    HW211774   0.937  11.209   3.168  0.5625 -0.4062  0.6230
35313SOL     OW11775  10.297   3.760   9.399 -0.0742  0.2276 -0.4711
35313SOL    HW111776  10.210   3.740   9.435  0.0943  0.0392 -0.1694
35313SOL    HW211777  10.291   3.730   9.308 -0.4650  0.6097 -0.5744
35314SOL     OW11778   5.694  11.329   2.022  0.5312  0.2145 -0.4467
35314SOL    HW111779   5.612  11.369   1.993 -1.5404 -2.6307  1.0324
35314SOL    HW211780   5.721  11.382   2.097 -0.6698  0.4308 -0.1506
35315SOL     OW11781   2.037   7.522  10.035 -0.6674 -0.0875  0.2224
35315SOL    HW111782   2.055   7.615  10.021  0.2094 -0.3458 -0.4580
35315SOL    HW211783   1.964   7.521  10.097 -0.4350  1.0452  0.5394
35316SOL     OW11784   2.070   9.378   8.227 -0.0953 -0.4080 -0.3976
35316SOL    HW111785   2.047   9.366   8.135 -0.6780 -2.2122 -0.0614
35316SOL    HW211786   2.134   9.309   8.245 -1.0153 -0.9802  0.8667
35317SOL     OW11787   3.229   6.585  10.067  0.0340  0.3500  0.4314
35317SOL    HW111788   3.145   6.559  10.104 -1.3446  1.0032 -1.9520
35317SOL    HW211789   3.212   6.671  10.028  0.8898 -0.7278 -2.6501
35318SOL     OW11790   3.373  12.110   3.874  0.0893  0.0547 -0.0809
35318SOL    HW111791   3.311  12.172   3.837  0.7462  0.4790 -0.4838
35318SOL    HW211792   3.455  12.160   3.884  0.2737 -0.3896  0.7763
35319SOL     OW11793   9.722  10.911   4.360  0.3069 -0.2439  0.9210
35319SOL    HW111794   9.706  10.888   4.269  2.0769  0.2954  0.4244
35319SOL    HW211795   9.671  10.991   4.375  0.1982 -0.2024  0.3306
35320SOL     OW11796  11.737   8.156   1.003  0.2631 -0.2221  0.0886
35320SOL    HW111797  11.655   8.108   1.013 -1.6937  2.9664  1.0258
35320SOL    HW211798  11.737   8.186   0.913  0.2385  0.0324  0.1720
35321SOL     OW11799  10.555  10.530   2.703 -0.1570 -0.1276  0.0787
35321SOL    HW111800  10.642  10.533   2.743  0.7242 -1.9374 -1.5437
35321SOL    HW211801  10.547  10.615   2.659  0.8129  0.0531  0.2074
35322SOL     OW11802   2.258   6.806  11.079  0.2194  0.2943 -0.1567
35322SOL    HW111803   2.315   6.883  11.070  0.3495  0.3999  1.3312
35322SOL    HW211804   2.304   6.737  11.032  1.3560  0.5032  0.6055
35323SOL     OW11805  10.663   8.475   7.049 -0.1333 -0.5364  0.0371
35323SOL    HW111806  10.601   8.545   7.072 -1.3838 -1.1557 -1.3126
35323SOL    HW211807  10.748   8.519   7.042 -0.7658  0.7091 -0.0120
35324SOL     OW11808   8.709   7.331   1.451  0.6451 -0.2508 -0.0151
35324SOL    HW111809   8.782   7.392   1.461  1.1399 -0.7366 -0.5873
35324SOL    HW211810   8.699   7.322   1.356  0.2278 -0.6495  0.0657
35325SOL     OW11811  11.305   6.408   5.329  0.1019 -0.1413 -0.1426
35325SOL    HW111812  11.342   6.341   5.273 -0.3028 -1.9844  1.6904
35325SOL    HW211813  11.211   6.405   5.312  0.1688  0.6446 -0.7259
35326SOL     OW11814   4.350   3.462  11.795 -0.2701  0.4379 -0.0542
35326SOL    HW111815   4.411   3.418  11.854 -0.4275 -1.2080 -1.0542
35326SOL    HW211816   4.406   3.515  11.738  0.0512  0.4958  0.3125
35327SOL     OW11817   6.008   7.000   2.235 -0.2425  0.3654 -0.9170
35327SOL    HW111818   5.917   7.029   2.243  0.0372  1.3523 -1.1874
35327SOL    HW211819   6.054   7.043   2.307 -0.1153 -0.7193 -0.3269
35328SOL     OW11820   4.028   0.634   6.999  0.4831 -0.3469  0.0928
35328SOL    HW111821   3.987   0.573   6.938  0.5105  0.1359 -0.4163
35328SOL    HW211822   4.069   0.578   7.065  0.5449 -0.8782 -0.3882
35329SOL     OW11823   3.015   7.385   4.398  0.6230 -0.1571  0.5073
35329SOL    HW111824   3.090   7.388   4.458  0.8031 -1.6462  0.3991
35329SOL    HW211825   3.023   7.464   4.345  0.9509  0.7486  1.8631
35330SOL     OW11826   4.898  12.053   6.489 -0.0537  0.3814 -0.0948
35330SOL    HW111827   4.814  12.007   6.486  0.1491 -0.0396  0.5045
35330SOL    HW211828   4.875  12.145   6.496 -0.4646  0.2274  0.5833
35331SOL     OW11829  11.598   1.273   2.343  0.2847 -0.4130  0.3427
35331SOL    HW111830  11.623   1.324   2.266 -2.8745 -0.9916 -1.2079
35331SOL    HW211831  11.669   1.209   2.354  0.7788 -0.3811 -2.1769
35332SOL     OW11832   6.803   2.664   2.718  0.4002  0.4673 -0.2236
35332SOL    HW111833   6.825   2.749   2.757 -2.0038  0.7981  0.5823
35332SOL    HW211834   6.735   2.683   2.653 -0.2829 -0.8240  0.0646
35333SOL     OW11835   0.625   1.835  10.385  0.9821 -0.3193 -0.3812
35333SOL    HW111836   0.609   1.851  10.292  0.3941  2.0498  0.0565
35333SOL    HW211837   0.714   1.868  10.400  0.5608  0.6390  0.1309
35334SOL     OW11838   5.941   3.640   8.463 -0.0817 -0.1472 -0.6537
35334SOL    HW111839   5.883   3.695   8.410  0.4867  0.1907 -0.9271
35334SOL    HW211840   6.029   3.669   8.441  0.3406 -2.2532 -2.0338
35335SOL     OW11841   8.686   0.607   6.316  0.1962  0.1672  0.4357
35335SOL    HW111842   8.611   0.658   6.348  0.0916  0.2761  0.0311
35335SOL    HW211843   8.756   0.672   6.306 -0.0636  0.3186 -0.4904
35336SOL     OW11844   9.214   3.474   7.152 -0.5439 -0.6115 -0.1872
35336SOL    HW111845   9.243   3.402   7.097  0.8878 -1.1285  1.1661
35336SOL    HW211846   9.192   3.433   7.236 -1.6074  0.2860  0.0024
35337SOL     OW11847   3.458   6.198  10.723  1.1331  0.0637  0.2120
35337SOL    HW111848   3.452   6.115  10.770 -0.9342 -0.2024 -0.3999
35337SOL    HW211849   3.434   6.176  10.633 -0.4828  1.4558  0.2486
35338SOL     OW11850   5.144   9.677   5.559  0.6477  0.3347  0.1018
35338SOL    HW111851   5.165   9.740   5.490  1.5507 -0.3304 -0.2486
35338SOL    HW211852   5.087   9.725   5.619 -1.2188  0.5707 -1.7390
35339SOL     OW11853   0.157   5.527   9.154  0.4367 -0.0258  0.1503
35339SOL    HW111854   0.172   5.583   9.230 -0.1488  0.9093 -0.3995
35339SOL    HW211855   0.124   5.587   9.087  2.0076 -0.6106 -1.2191
35340SOL     OW11856   1.385   6.135   0.071 -0.1330 -0.4535  0.1002
35340SOL    HW111857   1.452   6.073   0.101  0.7094 -0.6561 -2.0695
35340SOL    HW211858   1.421   6.174  -0.008 -2.7627 -0.9238 -1.4420
35341SOL     OW11859   0.880  12.331   8.558  0.5411 -0.2277 -0.2951
35341SOL    HW111860   0.961  12.293   8.593  1.0728  0.8881 -0.2635
35341SOL    HW211861   0.910  12.403   8.502 -0.4213 -0.0893 -0.6457
35342SOL     OW11862   2.497  12.025   1.018 -0.2814 -0.1160 -0.0145
35342SOL    HW111863   2.448  12.068   0.948  0.0133  1.3580  0.6659
35342SOL    HW211864   2.569  11.980   0.972  1.4136  2.8944 -0.5240
35343SOL     OW11865   5.179  11.032   8.574 -0.0026  0.0958 -0.5057
35343SOL    HW111866   5.227  10.966   8.525  1.0269  0.0180  0.5612
35343SOL    HW211867   5.093  10.993   8.591 -0.8774  0.6044 -3.2611
35344SOL     OW11868   8.321   7.507   6.154 -0.0782  0.2075 -0.0345
35344SOL    HW111869   8.392   7.542   6.208 -0.5057  2.3312 -0.7483
35344SOL    HW211870   8.248   7.568   6.168 -1.0965 -0.7886 -0.8551
35345SOL     OW11871   3.158   1.038   1.208  0.1682 -0.1974 -0.0176
35345SOL    HW111872   3.083   1.003   1.160  0.0863  1.0461 -0.8343
35345SOL    HW211873   3.234   1.000   1.165  0.0491 -0.7607  0.2506
35346SOL     OW11874   3.175  11.546  10.254 -0.3213 -0.1087 -0.0906
35346SOL    HW111875   3.259  11.511  10.284 -0.6217  0.2802  1.2626
35346SOL    HW211876   3.190  11.568  10.162  1.1461  0.2187  0.1979
35347SOL     OW11877   9.032  10.685   5.194 -0.5518  0.0740  0.0050
35347SOL    HW111878   9.116  10.640   5.199  0.3348  1.6401 -0.1430
35347SOL    HW211879   9.055  10.777   5.186 -2.2658  0.8623  2.6728
35348SOL     OW11880   3.416  10.249   2.356 -0.5506 -0.6160 -0.1131
35348SOL    HW111881   3.355  10.229   2.426  0.5484 -0.5306  0.8929
35348SOL    HW211882   3.366  10.234   2.275 -1.7877 -0.8327  0.6753
35349SOL     OW11883   1.665   8.647  11.656 -0.0900  0.1523  0.3494
35349SOL    HW111884   1.754   8.682  11.660  0.4498 -0.9525 -1.1435
35349SOL    HW211885   1.633   8.672  11.570 -0.9061 -0.1949  0.5459
35350SOL     OW11886   1.493   0.740   0.206  0.2276  0.5839  0.2119
35350SOL    HW111887   1.524   0.676   0.270  1.0080  0.4082 -0.3311
35350SOL    HW211888   1.567   0.798   0.192 -0.0578  0.8411 -0.2526
35351SOL     OW11889   5.311  10.648   9.945  0.0477  0.5611  0.1766
35351SOL    HW111890   5.256  10.626   9.869 -0.1208  1.0139  0.1631
35351SOL    HW211891   5.260  10.618  10.021  0.4761 -0.4193  0.0840
35352SOL     OW11892   6.115   8.861   8.261  0.6231 -0.1444  0.1615
35352SOL    HW111893   6.142   8.813   8.183  0.9194  1.1081 -0.5305
35352SOL    HW211894   6.034   8.817   8.288 -0.0318 -0.0180 -1.4279
35353SOL     OW11895   6.699  12.218   2.269  0.0874 -0.2668  0.4084
35353SOL    HW111896   6.758  12.281   2.310 -0.2011 -0.5563  1.2894
35353SOL    HW211897   6.740  12.199   2.185  0.1629  1.1032  0.1095
35354SOL     OW11898   0.262   2.544   8.931  0.3354 -0.3531  0.4438
35354SOL    HW111899   0.316   2.473   8.897 -0.1101  0.0952 -1.3028
35354SOL    HW211900   0.302   2.624   8.898  0.0116  0.1436  1.2037
35355SOL     OW11901   9.767   5.986   2.936  0.1001 -0.2064  0.4296
35355SOL    HW111902   9.724   6.071   2.923  1.1104  0.2035 -0.2949
35355SOL    HW211903   9.694   5.924   2.938 -0.5722  0.5191 -0.3311
35356SOL     OW11904   6.832   4.788   9.997  1.0694 -0.0260  0.0421
35356SOL    HW111905   6.770   4.798   9.925  1.6478  1.0524 -0.3199
35356SOL    HW211906   6.900   4.853   9.980  1.5610 -0.2130  1.2011
35357SOL     OW11907   8.688   2.753  11.696  0.5960  0.5466 -0.3235
35357SOL    HW111908   8.610   2.713  11.657  0.7255  1.2862 -1.3993
35357SOL    HW211909   8.749   2.681  11.710  1.6077  0.4577 -4.0504
35358SOL     OW11910   1.100   8.088   6.132  0.2444 -0.3060  0.3277
35358SOL    HW111911   1.180   8.124   6.170  0.6897 -0.0641 -0.8286
35358SOL    HW211912   1.087   8.136   6.050 -0.3938 -1.2131 -0.1208
35359SOL     OW11913   9.225  10.033   0.956 -0.3049 -0.5561 -0.1758
35359SOL    HW111914   9.185  10.059   0.874 -0.7951 -0.8157 -0.0273
35359SOL    HW211915   9.201  10.101   1.018 -1.4643 -1.2632  0.1774
35360SOL     OW11916   2.536   4.365   2.822 -0.0354  0.0871  1.0841
35360SOL    HW111917   2.471   4.297   2.806 -0.8282  1.2071 -0.8478
35360SOL    HW211918   2.486   4.442   2.850  0.7632  0.1553  2.4370
35361SOL     OW11919   5.374   9.888  10.248 -0.2798  0.1233  0.1022
35361SOL    HW111920   5.334   9.814  10.293  0.7003 -0.7140 -0.3705
35361SOL    HW211921   5.460   9.898  10.290 -0.2632  0.7676 -0.0732
35362SOL     OW11922   7.534   9.812   0.898 -0.0280  0.2773  0.1235
35362SOL    HW111923   7.607   9.751   0.905 -1.1101 -1.0299  0.5945
35362SOL    HW211924   7.488   9.784   0.818 -0.9557 -0.0313  0.7499
35363SOL     OW11925   8.838   3.248  11.590  0.2819 -0.4883 -0.2265
35363SOL    HW111926   8.865   3.336  11.619 -0.6930 -0.1654 -0.2650
35363SOL    HW211927   8.743   3.247  11.601  0.3762 -1.8883  0.6966
35364SOL     OW11928   1.701  11.187   9.574  0.2782 -0.0822 -0.0620
35364SOL    HW111929   1.675  11.159   9.487 -1.9828  0.0732  0.5048
35364SOL    HW211930   1.772  11.127   9.599  0.9331 -0.1447 -1.9512
35365SOL     OW11931  11.076   6.755   4.090  0.2100  0.0292  0.2508
35365SOL    HW111932  10.988   6.761   4.053 -0.4133 -2.1188  1.2113
35365SOL    HW211933  11.131   6.726   4.017  0.0365  0.8945 -0.2330
35366SOL     OW11934   9.106  12.129   6.237 -0.2319  0.1745 -0.3385
35366SOL    HW111935   9.106  12.034   6.227 -0.7745  0.1734 -0.3972
35366SOL    HW211936   9.030  12.147   6.293  0.8577  0.4434  1.0872
35367SOL     OW11937   4.932   3.620   9.236 -0.0879 -0.0965 -0.0213
35367SOL    HW111938   4.949   3.713   9.255 -0.1582 -0.3286  1.2480
35367SOL    HW211939   4.844   3.619   9.201 -0.4845  0.2161  0.9302
35368SOL     OW11940   8.015   8.209   4.648 -0.4329  0.8330 -0.0687
35368SOL    HW111941   8.026   8.124   4.689  0.8627  1.1536  0.2813
35368SOL    HW211942   8.017   8.271   4.721 -1.5440  1.1643 -0.2999
35369SOL     OW11943   0.499   0.942   7.079  0.2447  0.1546  0.0318
35369SOL    HW111944   0.411   0.924   7.047 -0.0575 -0.0315  0.9537
35369SOL    HW211945   0.546   0.973   7.001 -0.6987  0.5193 -0.4140
35370SOL     OW11946  10.734   8.906   0.985  0.1683  0.3370 -0.1405
35370SOL    HW111947  10.643   8.931   1.001 -0.1535 -1.2269  0.6523
35370SOL    HW211948  10.754   8.942   0.898 -0.6750  2.0509  0.3362
35371SOL     OW11949   0.887   3.149   3.435  0.4410 -0.5321 -0.0301
35371SOL    HW111950   0.836   3.167   3.514 -0.1987 -1.5887 -0.1774
35371SOL    HW211951   0.834   3.085   3.387  0.5319  0.5391 -1.6151
35372SOL     OW11952   4.390  10.878   6.711 -0.0221 -0.1064 -0.0422
35372SOL    HW111953   4.321  10.813   6.724 -0.6711  0.7890  1.0292
35372SOL    HW211954   4.430  10.853   6.627 -0.4648 -1.6858  0.1806
35373SOL     OW11955   8.519   0.337  11.260 -0.0227 -0.1092  0.4196
35373SOL    HW111956   8.492   0.255  11.300  0.9825 -1.0388 -0.7233
35373SOL    HW211957   8.583   0.374  11.321 -0.2407 -0.3419  0.7864
35374SOL     OW11958  12.200   6.984   6.902  0.2748  0.5756  0.2670
35374SOL    HW111959  12.159   7.070   6.892  0.8702  0.9333  0.8119
35374SOL    HW211960  12.229   6.982   6.993  0.7835  0.0309  0.0988
35375SOL     OW11961   0.046   2.234   7.965  0.1924  1.0429 -0.1345
35375SOL    HW111962   0.138   2.251   7.985  0.1652  1.6286 -0.4734
35375SOL    HW211963  -0.001   2.255   8.046  0.2003  2.2649 -0.4355
35376SOL     OW11964  10.031   6.881   4.132 -0.1472  0.0968 -0.4045
35376SOL    HW111965  10.103   6.879   4.068 -0.1708 -0.4716 -0.4205
35376SOL    HW211966   9.955   6.848   4.083  0.3306 -2.5752  0.4917
35377SOL     OW11967   7.661   4.421   9.693  0.0950  0.6515  0.1101
35377SOL    HW111968   7.567   4.403   9.686  0.1411  0.5036 -0.1594
35377SOL    HW211969   7.676   4.431   9.787 -0.0396 -0.1661  0.2268
35378SOL     OW11970   7.372  11.186   2.139 -0.3936  0.0536  0.3516
35378SOL    HW111971   7.328  11.119   2.087 -1.8634  0.7733  0.5827
35378SOL    HW211972   7.443  11.141   2.183 -0.5585 -1.0629 -0.4914
35379SOL     OW11973  10.340   0.376   1.833 -0.2180  0.2842  0.3856
35379SOL    HW111974  10.246   0.359   1.841 -0.6666  1.5972 -1.3475
35379SOL    HW211975  10.366   0.329   1.753  0.2147  1.2782 -0.0763
35380SOL     OW11976   5.785  10.036   0.694  0.2747 -0.2819  0.1870
35380SOL    HW111977   5.806   9.950   0.658 -0.1010 -0.0419 -0.6416
35380SOL    HW211978   5.691  10.034   0.710  0.2169  0.0510 -0.0782
35381SOL     OW11979   5.954   1.802   8.708  0.1663  0.1644  0.5011
35381SOL    HW111980   6.013   1.861   8.755  0.3810 -0.0018  0.4430
35381SOL    HW211981   5.892   1.861   8.664 -0.5271  0.2922  1.6253
35382SOL     OW11982   9.699   7.140   0.106 -0.1305  0.3276 -0.0756
35382SOL    HW111983   9.783   7.123   0.065 -1.3531 -1.6877 -1.9404
35382SOL    HW211984   9.707   7.229   0.140  2.2807  0.6860 -1.3423
35383SOL     OW11985   4.010   1.412   7.115  0.2921 -0.1516 -0.0060
35383SOL    HW111986   4.005   1.317   7.102  0.6215  0.0271 -1.5573
35383SOL    HW211987   3.934   1.447   7.068  0.1221  0.3699  0.6310
35384SOL     OW11988   7.106  11.918   6.457  0.0729  0.2026 -0.7625
35384SOL    HW111989   7.102  12.013   6.469  2.6222  0.2592  0.2194
35384SOL    HW211990   7.151  11.885   6.535 -0.0903 -1.7256 -1.4262
35385SOL     OW11991   8.714   3.372  10.883 -0.7378  0.3091 -0.5606
35385SOL    HW111992   8.741   3.457  10.851 -1.4556  0.4402 -0.8360
35385SOL    HW211993   8.782   3.312  10.852  0.5508  0.9678  0.8547
35386SOL     OW11994   0.225   7.197   7.154 -0.5815  0.2276 -0.0914
35386SOL    HW111995   0.238   7.144   7.075 -0.0283 -1.7487  1.2421
35386SOL    HW211996   0.309   7.192   7.199 -0.7765  1.6477  0.4655
35387SOL     OW11997   4.277   0.732  10.713 -0.6211  0.1217  0.0987
35387SOL    HW111998   4.289   0.641  10.684 -0.2594  0.4291 -0.7379
35387SOL    HW211999   4.193   0.758  10.675  0.1439  0.7243 -1.2138
35388SOL     OW12000   3.913   6.027   9.249  0.5684 -0.3745  0.2558
35388SOL    HW112001   3.935   6.032   9.156 -0.5303  0.2154  0.0206
35388SOL    HW212002   3.936   6.114   9.284  2.2571 -1.0115  0.8485
35389SOL     OW12003  10.411   8.454   8.235  0.6124 -0.1069  1.1694
35389SOL    HW112004  10.495   8.487   8.204  2.1974 -1.9083  3.2337
35389SOL    HW212005  10.400   8.495   8.321 -1.3702  1.1481  0.4004
35390SOL     OW12006   4.748   2.090   8.987  0.3130 -0.6680 -0.6710
35390SOL    HW112007   4.787   2.144   8.919  0.5250 -1.0485 -0.8503
35390SOL    HW212008   4.721   2.153   9.054  2.7648 -0.5085  0.2637
35391SOL     OW12009   4.696  10.267   9.690  0.3420 -0.5233 -0.1484
35391SOL    HW112010   4.613  10.311   9.705 -0.3654 -1.4320 -1.2392
35391SOL    HW212011   4.759  10.316   9.744 -1.1395 -0.7656  1.9370
35392SOL     OW12012   5.990  11.950   7.069  0.2071  0.4848  0.7706
35392SOL    HW112013   6.068  11.898   7.088  1.1805  1.8050  0.5525
35392SOL    HW212014   6.008  11.990   6.983 -2.2434 -1.9595 -1.0612
35393SOL     OW12015   6.026   0.983   6.924 -0.0960  0.5541 -0.5012
35393SOL    HW112016   6.025   0.954   7.015  1.2962  0.7855 -0.3796
35393SOL    HW212017   6.065   1.070   6.927 -3.5702  2.2777 -0.9337
35394SOL     OW12018   5.875  11.871   2.369 -0.4104 -0.5502 -0.4396
35394SOL    HW112019   5.848  11.796   2.422 -1.1421 -0.0259 -0.0408
35394SOL    HW212020   5.851  11.947   2.423 -0.0086 -0.0266 -0.9897
35395SOL     OW12021   4.398   2.451  11.692  0.0270  0.3138  0.1664
35395SOL    HW112022   4.351   2.383  11.645 -4.1191  0.7712  3.1178
35395SOL    HW212023   4.407   2.522  11.629  0.7894 -1.3939 -1.7516
35396SOL     OW12024   5.098   5.691   5.364  0.0314  0.2995  0.8306
35396SOL    HW112025   5.059   5.717   5.280 -2.1010 -2.5174  0.7915
35396SOL    HW212026   5.189   5.719   5.357 -0.2488  0.8388 -2.1172
35397SOL     OW12027   9.455   1.470   8.898 -0.5927  0.2692 -0.4070
35397SOL    HW112028   9.533   1.488   8.952 -0.2638  0.7201 -1.0151
35397SOL    HW212029   9.487   1.477   8.808 -1.3401  0.4339 -0.6603
35398SOL     OW12030   8.900   0.031  10.225 -0.0528 -0.3380 -0.0666
35398SOL    HW112031   8.979  -0.005  10.186 -2.0788 -4.0537 -1.2735
35398SOL    HW212032   8.908   0.011  10.318  0.6070 -0.2218 -0.0916
35399SOL     OW12033   2.356   6.438  11.857 -0.0363 -0.1860 -0.3769
35399SOL    HW112034   2.318   6.389  11.785 -1.2869  1.1335 -0.6561
35399SOL    HW212035   2.436   6.476  11.820 -0.0853 -0.4184 -0.7291
35400SOL     OW12036   7.198   9.910   8.489 -0.4017  0.3830  0.4128
35400SOL    HW112037   7.216   9.960   8.409  0.1114  0.7758  0.7685
35400SOL    HW212038   7.127   9.957   8.532 -0.2129  0.5611  0.5306
35401SOL     OW12039   1.056   3.724   5.458 -0.3640 -0.3729  0.2996
35401SOL    HW112040   1.118   3.714   5.385  0.1219 -0.3691  0.7116
35401SOL    HW212041   0.970   3.724   5.415 -0.0827 -0.3148 -0.2831
35402SOL     OW12042   7.925   2.296   6.339 -0.7394 -0.2425 -0.3089
35402SOL    HW112043   7.844   2.334   6.373  0.1167  0.9629  0.4312
35402SOL    HW212044   7.962   2.248   6.413  0.3167  1.0508  0.0368
35403SOL     OW12045   4.196   7.686   3.030 -0.1278  0.3933  0.1522
35403SOL    HW112046   4.168   7.774   3.006  1.6858  0.6502 -1.1972
35403SOL    HW212047   4.285   7.678   2.996 -0.3808 -2.1069 -0.1294
35404SOL     OW12048   4.192   8.131   6.251 -0.5613  0.3100 -0.1481
35404SOL    HW112049   4.099   8.128   6.229 -0.4510 -2.1401 -0.6566
35404SOL    HW212050   4.235   8.160   6.170 -0.8017  0.2506 -0.2972
35405SOL     OW12051   7.315   7.611   8.409  0.0840  0.5039 -0.2262
35405SOL    HW112052   7.390   7.649   8.454  0.6137  0.3290 -0.9337
35405SOL    HW212053   7.354   7.559   8.338 -0.6611 -0.4758  0.0597
35406SOL     OW12054   7.736   2.904   0.462 -0.4801 -0.2565  0.7653
35406SOL    HW112055   7.820   2.884   0.419 -0.1894  0.5942  0.9113
35406SOL    HW212056   7.670   2.884   0.395 -0.0666  0.4606  0.1166
35407SOL     OW12057   8.130   6.425   1.918 -0.3403  0.2994 -0.0448
35407SOL    HW112058   8.144   6.477   1.838  0.1954  0.6292  0.2554
35407SOL    HW212059   8.079   6.349   1.888  3.4221 -1.8827 -1.6075
35408SOL     OW12060   5.283  12.161  10.458  0.4496  0.2917  0.2483
35408SOL    HW112061   5.334  12.154  10.539 -1.1457 -0.7075  1.2278
35408SOL    HW212062   5.219  12.230  10.475  0.8197  0.8567 -0.5950
35409SOL     OW12063  11.483   1.985   7.416 -0.1795 -0.1082 -0.7037
35409SOL    HW112064  11.471   2.079   7.412 -2.8541 -0.2809  0.6518
35409SOL    HW212065  11.543   1.964   7.344 -0.4922  2.4608 -1.7858
35410SOL     OW12066   7.110   5.099   1.256 -0.5595 -0.2722 -0.2121
35410SOL    HW112067   7.064   5.182   1.269  0.8133  0.4002  0.6620
35410SOL    HW212068   7.196   5.125   1.222 -0.7963 -1.4818 -1.8308
35411SOL     OW12069   3.704   1.209   7.466 -0.0418 -0.1231 -0.4639
35411SOL    HW112070   3.680   1.299   7.485  2.6114  0.5080  0.3133
35411SOL    HW212071   3.621   1.161   7.469 -1.6336  2.3525 -1.6214
35412SOL     OW12072   2.446   7.687   4.635 -0.2262 -0.4098 -0.1505
35412SOL    HW112073   2.447   7.592   4.643 -0.9959 -0.5785 -1.5724
35412SOL    HW212074   2.448   7.703   4.540  0.2811  1.0050  0.0643
35413SOL     OW12075   5.438   3.027   5.275  0.3467  0.1092 -0.2984
35413SOL    HW112076   5.406   3.051   5.188  0.3949  0.6382 -0.1726
35413SOL    HW212077   5.534   3.029   5.267  0.3516  0.2403 -0.2110
35414SOL     OW12078   1.025  12.058   2.408 -0.2845 -0.6379 -0.2287
35414SOL    HW112079   1.003  12.150   2.396  1.9160 -0.2016 -1.4527
35414SOL    HW212080   0.941  12.014   2.421 -1.4913  1.3348 -1.0240
35415SOL     OW12081   1.112   8.432   7.413 -0.2780  0.1702 -0.4568
35415SOL    HW112082   1.146   8.352   7.453 -0.1114  0.7665  0.6189
35415SOL    HW212083   1.056   8.471   7.480 -3.2129 -0.7906 -2.1456
35416SOL     OW12084   1.343   6.067   2.364 -0.0411  0.2692 -0.1051
35416SOL    HW112085   1.269   6.051   2.422  0.3845  1.8114  0.9208
35416SOL    HW212086   1.385   5.981   2.354 -0.8837 -0.2662  0.8090
35417SOL     OW12087   4.533   6.400   2.309 -0.8051 -0.3822 -0.8539
35417SOL    HW112088   4.473   6.473   2.294 -2.5583 -1.8017 -1.0101
35417SOL    HW212089   4.603   6.413   2.244  0.2223  2.4128  0.6491
35418SOL     OW12090   8.203   3.828   1.995  0.0363  0.3725 -0.0092
35418SOL    HW112091   8.233   3.804   2.082  0.2728  0.9854  0.0767
35418SOL    HW212092   8.265   3.894   1.964  0.5640 -0.5730 -1.0566
35419SOL     OW12093  10.151   1.075  10.619  0.1266  0.0522  0.3587
35419SOL    HW112094  10.118   1.161  10.592 -1.1758 -1.0411 -1.8340
35419SOL    HW212095  10.080   1.038  10.673 -1.6312 -1.5273 -2.7772
35420SOL     OW12096  10.806   4.707   5.861  0.3040  0.4497  0.2638
35420SOL    HW112097  10.782   4.693   5.770  1.9482 -0.1923 -0.1134
35420SOL    HW212098  10.820   4.802   5.868 -1.3587  0.7099  0.2765
35421SOL     OW12099   2.869   8.726   9.030  0.4106  0.3540  0.4124
35421SOL    HW112100   2.954   8.763   9.054  0.5637  0.3954 -0.1585
35421SOL    HW212101   2.810   8.801   9.030  0.4124  0.3538  0.6529
35422SOL     OW12102  11.423   5.902   3.418 -0.6206  0.1026  0.0053
35422SOL    HW112103  11.437   5.810   3.395 -0.2606  0.3399 -0.7985
35422SOL    HW212104  11.440   5.949   3.336 -2.5548  0.7401 -0.0766
35423SOL     OW12105   3.943   9.938   5.906 -0.1269 -0.0203 -0.7539
35423SOL    HW112106   3.854   9.965   5.927 -0.3924 -1.1444 -0.3804
35423SOL    HW212107   3.961   9.981   5.822 -0.5417  1.2135 -0.2473
35424SOL     OW12108   7.187   1.789  10.199 -0.1543 -0.0680  0.2956
35424SOL    HW112109   7.134   1.824  10.271 -1.1149  0.2298 -0.5361
35424SOL    HW212110   7.123   1.757  10.136  0.6588  0.2399 -0.7088
35425SOL     OW12111   2.945   7.995   9.133 -0.5766 -0.2268 -0.1042
35425SOL    HW112112   2.986   8.075   9.101  0.3913 -0.3639  0.7324
35425SOL    HW212113   3.018   7.941   9.163 -1.3239 -0.7263  0.8743
35426SOL     OW12114   5.832   7.456   3.866  0.0084 -0.1393 -0.3707
35426SOL    HW112115   5.842   7.389   3.934  2.8241  1.6451  1.1626
35426SOL    HW212116   5.913   7.451   3.815 -0.6847  0.6924 -1.6247
35427SOL     OW12117   7.253   6.246   8.147  0.0524 -0.6784  1.1796
35427SOL    HW112118   7.317   6.284   8.087 -0.3951 -3.7862 -1.6107
35427SOL    HW212119   7.299   6.173   8.188 -0.7315 -0.8281  1.8315
35428SOL     OW12120   1.862   0.924   7.556 -0.6197 -0.1433 -0.4767
35428SOL    HW112121   1.794   0.990   7.543 -1.0837 -0.5436 -0.1223
35428SOL    HW212122   1.853   0.898   7.648 -0.4727 -0.7293 -0.6227
35429SOL     OW12123   1.984  11.788   9.202  0.3188 -0.3572 -0.4145
35429SOL    HW112124   1.930  11.862   9.227 -0.9686 -0.8120 -1.6803
35429SOL    HW212125   2.010  11.807   9.111 -1.0348 -1.9514 -1.1996
35430SOL     OW12126   5.577  11.686  11.963 -0.0166  0.8526 -0.0198
35430SOL    HW112127   5.552  11.624  11.894 -3.5189  1.6071  0.4301
35430SOL    HW212128   5.566  11.637  12.044  1.1198  0.9066  0.1867
35431SOL     OW12129   4.287   8.938  11.798 -0.1775  0.0368 -0.6283
35431SOL    HW112130   4.305   8.858  11.847  1.0406  0.3401 -0.5646
35431SOL    HW212131   4.346   8.935  11.722 -1.7103 -0.2037 -1.8703
35432SOL     OW12132   3.017   9.289   0.932 -0.1207 -0.0283  0.0983
35432SOL    HW112133   3.089   9.311   0.873 -0.4443  0.1695 -0.2285
35432SOL    HW212134   3.010   9.364   0.991  0.9024 -0.6811  1.1034
35433SOL     OW12135   5.401   6.562   9.798 -0.2657 -0.3964  0.0158
35433SOL    HW112136   5.447   6.479   9.780  0.0111 -0.4653  0.9981
35433SOL    HW212137   5.394   6.604   9.712  1.2153 -0.6021 -0.2313
35434SOL     OW12138   0.721   6.957   7.430 -0.2605 -0.2155  0.0491
35434SOL    HW112139   0.670   6.897   7.377 -0.7444  0.3275 -0.1103
35434SOL    HW212140   0.805   6.913   7.444 -0.9858 -1.3837  0.8250
35435SOL     OW12141   5.877   0.354   9.729 -0.2746  0.1566  0.0017
35435SOL    HW112142   5.904   0.415   9.798  0.5380 -1.4750  1.1951
35435SOL    HW212143   5.950   0.293   9.721 -0.4164  0.2017 -2.2314
35436SOL     OW12144   0.667   3.591   8.835  0.6377 -0.1024 -0.2404
35436SOL    HW112145   0.654   3.642   8.915  0.2661  0.2035 -0.4882
35436SOL    HW212146   0.684   3.657   8.768 -1.3142 -0.1679 -0.8638
35437SOL     OW12147  10.240   5.123   3.726  0.4076  0.0606 -0.3550
35437SOL    HW112148  10.285   5.041   3.747 -1.2400 -0.7319  0.3059
35437SOL    HW212149  10.298   5.168   3.664  2.2872 -0.6574  0.8234
35438SOL     OW12150  12.096   3.842   4.866 -0.2828 -0.0437  0.5297
35438SOL    HW112151  12.102   3.837   4.770 -0.8485  0.7823  0.4437
35438SOL    HW212152  12.005   3.866   4.882 -0.9279 -2.6944  1.3757
35439SOL     OW12153   0.813   0.688   6.854  0.0822 -0.2697  0.0794
35439SOL    HW112154   0.763   0.725   6.781 -0.0954  1.1638  0.9082
35439SOL    HW212155   0.746   0.663   6.918  0.3668  2.0188  1.3651
35440SOL     OW12156   9.058  11.210   2.076  0.2803  0.5295 -0.1823
35440SOL    HW112157   9.005  11.249   2.006  1.1625 -0.2282 -1.2972
35440SOL    HW212158   9.088  11.285   2.127 -0.6215  1.0778 -0.4229
35441SOL     OW12159  10.904   5.944   4.561  0.4043 -0.8551 -0.2758
35441SOL    HW112160  10.843   5.973   4.493  3.2461  0.8215 -2.3548
35441SOL    HW212161  10.892   6.007   4.632 -0.6401 -0.9219 -0.3719
35442SOL     OW12162   1.186   1.627   7.570 -0.6125 -0.3178 -0.0371
35442SOL    HW112163   1.178   1.668   7.656  0.3262 -2.3611  1.0859
35442SOL    HW212164   1.277   1.641   7.544 -0.8806  0.2581 -0.7075
35443SOL     OW12165   9.608   1.467   3.775 -0.2615 -0.2108 -0.3791
35443SOL    HW112166   9.518   1.466   3.807 -0.1292  0.2772  0.0076
35443SOL    HW212167   9.618   1.383   3.730 -0.2101 -1.2554  1.4980
35444SOL     OW12168   0.147   8.935   2.839 -0.8737  0.3731  0.2023
35444SOL    HW112169   0.063   8.976   2.857 -0.7319  1.5893 -1.6475
35444SOL    HW212170   0.126   8.845   2.816 -1.8929  1.0932 -1.8907
35445SOL     OW12171   4.285   2.213   7.300  0.0461 -0.2784 -0.1431
35445SOL    HW112172   4.242   2.130   7.321  0.7804 -0.8904 -1.0203
35445SOL    HW212173   4.369   2.208   7.346 -0.3918  0.5066  0.7815
35446SOL     OW12174   2.769  11.123   8.039  0.6357 -0.4281 -0.7173
35446SOL    HW112175   2.821  11.170   8.105  0.2308  0.8961 -1.2982
35446SOL    HW212176   2.762  11.185   7.966 -3.4925  0.3642  0.1099
35447SOL     OW12177   3.588   1.569   0.080  0.1141  0.2931 -0.3987
35447SOL    HW112178   3.662   1.627   0.063  0.9555 -1.0084 -1.3659
35447SOL    HW212179   3.627   1.491   0.119 -0.9776  0.2691  0.7273
35448SOL     OW12180   8.614   7.836   9.607 -0.1488 -0.3709 -0.4669
35448SOL    HW112181   8.656   7.920   9.589 -0.5866 -0.0804 -0.1605
35448SOL    HW212182   8.523   7.858   9.624  0.4987 -0.2599  4.1712
35449SOL     OW12183   0.523   4.375   2.939 -0.2711  0.0056 -0.3274
35449SOL    HW112184   0.469   4.454   2.947  1.1320  0.8285  2.3988
35449SOL    HW212185   0.474   4.307   2.985 -0.7935 -0.3546 -1.3851
35450SOL     OW12186  12.096   0.789   1.891  0.1392  0.4652  0.1723
35450SOL    HW112187  12.123   0.827   1.807  0.8043 -0.2429  0.0546
35450SOL    HW212188  12.026   0.728   1.869 -0.4342  1.0695  0.2764
35451SOL     OW12189   4.649   9.758   7.588 -0.1692 -0.2710  0.6898
35451SOL    HW112190   4.739   9.784   7.569  0.5812 -0.1847  3.8616
35451SOL    HW212191   4.641   9.766   7.683 -3.1055 -1.6724  0.6734
35452SOL     OW12192   8.751   6.083   0.537 -0.1013 -0.4540  0.3882
35452SOL    HW112193   8.829   6.124   0.575 -1.5859  1.6265  1.3756
35452SOL    HW212194   8.761   5.990   0.558  2.0961 -0.2592  0.4616
35453SOL     OW12195   8.968   8.059   3.538 -0.0940 -0.0394 -0.1686
35453SOL    HW112196   8.926   8.145   3.538 -0.5834 -0.2465 -1.8758
35453SOL    HW212197   8.927   8.012   3.611 -0.5636  0.8219  0.1333
35454SOL     OW12198   1.386   5.132   0.227 -0.4642  0.0758 -0.5376
35454SOL    HW112199   1.351   5.117   0.139  1.1221  0.9862 -1.3654
35454SOL    HW212200   1.328   5.082   0.285 -1.2167 -0.9757 -2.1436
35455SOL     OW12201   4.032  11.514   7.087  0.5883 -0.0696  0.2039
35455SOL    HW112202   4.094  11.517   7.015  0.9168 -1.5638  0.3831
35455SOL    HW212203   3.958  11.568   7.058 -0.2282 -2.2411 -2.1872
35456SOL     OW12204   4.472   4.483   2.938  0.3832  0.1350 -0.2073
35456SOL    HW112205   4.482   4.578   2.932  1.0977  0.0009 -1.5471
35456SOL    HW212206   4.497   4.451   2.851 -0.5223 -1.2273  0.0078
35457SOL     OW12207   8.243   8.344   8.580  0.4573 -0.5975  0.5837
35457SOL    HW112208   8.251   8.417   8.518  2.9232 -0.3097  1.1272
35457SOL    HW212209   8.153   8.312   8.569 -0.3941  1.8797 -0.3711
35458SOL     OW12210   8.926   3.972   4.577 -0.6696  0.0352 -0.7158
35458SOL    HW112211   8.991   4.036   4.606 -1.5782 -0.8329  4.2441
35458SOL    HW212212   8.843   4.018   4.584 -1.1369 -0.9536  0.6443
35459SOL     OW12213  10.701  10.713   9.522  0.5228  0.0003 -0.0449
35459SOL    HW112214  10.607  10.698   9.521  0.7077 -1.3402 -1.8730
35459SOL    HW212215  10.710  10.808   9.510 -0.5813 -0.0131 -1.1307
35460SOL     OW12216  10.664  10.363   9.077 -0.2786 -0.0292 -0.6177
35460SOL    HW112217  10.717  10.342   9.153  2.5559  0.0551 -2.4131
35460SOL    HW212218  10.594  10.298   9.077 -0.3921 -0.0174  1.9852
35461SOL     OW12219   7.652   1.757   0.462 -0.3487  0.5916  0.3865
35461SOL    HW112220   7.730   1.800   0.426 -1.7099  0.0520 -3.8080
35461SOL    HW212221   7.608   1.824   0.512  1.6749  1.5340  1.0179
35462SOL     OW12222  10.860   5.155   1.723 -0.1912 -0.0377 -0.2159
35462SOL    HW112223  10.804   5.207   1.665 -0.4856 -2.1437 -1.9107
35462SOL    HW212224  10.837   5.064   1.706  4.0726 -1.1246 -1.4597
35463SOL     OW12225  11.196   8.716   3.087 -0.4672 -0.1213 -0.3788
35463SOL    HW112226  11.157   8.797   3.120  0.4530  0.4317 -0.6215
35463SOL    HW212227  11.126   8.651   3.097  0.0896 -0.4015  4.0430
35464SOL     OW12228   7.071   5.826   5.712 -0.0198 -0.4246  0.2086
35464SOL    HW112229   7.053   5.732   5.706 -0.6368 -0.2379 -1.8050
35464SOL    HW212230   6.995   5.862   5.758 -0.4356 -0.7671 -0.1963
35465SOL     OW12231   6.237  10.851   6.133  0.5331 -0.0203  0.4546
35465SOL    HW112232   6.185  10.849   6.052  0.2231 -1.8221  0.6730
35465SOL    HW212233   6.327  10.862   6.103  0.9451 -4.2800 -0.5203
35466SOL     OW12234   3.821   7.288   0.273 -0.8683 -0.3969  0.0282
35466SOL    HW112235   3.778   7.208   0.302 -0.3929  0.2152  2.6681
35466SOL    HW212236   3.912   7.277   0.301 -0.6760  0.8580 -0.0759
35467SOL     OW12237   4.562   9.773  11.084 -0.0695  0.1134  0.0735
35467SOL    HW112238   4.471   9.755  11.059  0.0068  0.7578 -0.6764
35467SOL    HW212239   4.573   9.867  11.069  0.6086  0.1141  0.5406
35468SOL     OW12240   7.402   4.481  10.421 -0.0759  0.7276 -0.5798
35468SOL    HW112241   7.310   4.500  10.436 -1.0035 -2.2115 -1.8663
35468SOL    HW212242   7.448   4.529  10.490 -2.8851 -0.7718  2.6610
35469SOL     OW12243   0.717   8.316   1.732 -0.2899 -0.0136 -0.3085
35469SOL    HW112244   0.756   8.397   1.765  1.2165 -0.3186 -1.2731
35469SOL    HW212245   0.635   8.344   1.691 -1.7597  0.5066  2.6731
35470SOL     OW12246   9.502  11.693  11.277 -0.3435 -0.4631  0.7335
35470SOL    HW112247   9.574  11.672  11.336  0.1236 -0.8974  0.0231
35470SOL    HW212248   9.522  11.780  11.243  0.1172 -0.7819  0.1612
35471SOL     OW12249   7.625   9.393   9.361 -0.2352 -0.4462  0.4722
35471SOL    HW112250   7.556   9.371   9.299  1.1274  2.8011 -2.4897
35471SOL    HW212251   7.583   9.454   9.422 -0.5914 -0.5877  0.3772
35472SOL     OW12252   2.094   5.979   2.739 -0.5082 -0.1621  0.0918
35472SOL    HW112253   2.166   5.955   2.682  0.4833  0.9308  0.8548
35472SOL    HW212254   2.047   6.047   2.692  0.8332  1.3799  0.9155
35473SOL     OW12255   5.646   0.378   5.264 -0.0699 -0.3945 -0.1637
35473SOL    HW112256   5.707   0.353   5.334  0.5219 -0.0563 -0.5451
35473SOL    HW212257   5.624   0.469   5.283  0.4488 -0.1618 -0.6664
35474SOL     OW12258  11.487   1.834   5.051  0.0723  0.4608  0.1237
35474SOL    HW112259  11.415   1.896   5.064 -0.3400 -0.2911  1.6943
35474SOL    HW212260  11.446   1.748   5.058  0.2451 -0.1500 -4.1664
35475SOL     OW12261   7.846   5.525   5.936 -0.5437  0.3819 -0.1255
35475SOL    HW112262   7.789   5.588   5.892 -0.7600  0.3505  0.1054
35475SOL    HW212263   7.928   5.526   5.886 -0.3663  1.2113  0.1810
35476SOL     OW12264   5.410   8.172   2.571 -0.6132 -0.4436 -0.4389
35476SOL    HW112265   5.404   8.267   2.558 -0.0241 -0.3555 -0.1152
35476SOL    HW212266   5.368   8.156   2.655 -1.3689 -0.5716 -0.8298
35477SOL     OW12267  10.418  12.171   5.692  0.1326 -0.3452  0.2733
35477SOL    HW112268  10.449  12.110   5.759 -0.3119 -0.0735  0.7369
35477SOL    HW212269  10.378  12.243   5.742 -0.1881 -0.1308 -0.2860
35478SOL     OW12270  10.534   8.580   6.182  0.0572  0.2781 -0.1053
35478SOL    HW112271  10.568   8.500   6.141  1.5892  1.2354 -0.8104
35478SOL    HW212272  10.608   8.613   6.233 -0.4708  1.3809 -0.0401
35479SOL     OW12273   2.371   8.224  10.356  0.0568 -0.3020  0.5839
35479SOL    HW112274   2.303   8.204  10.293  0.2580 -0.9763  0.5795
35479SOL    HW212275   2.450   8.235  10.303 -0.2774  1.8502  0.4297
35480SOL     OW12276   2.483   4.596   6.760 -0.0735 -0.1952  0.0469
35480SOL    HW112277   2.567   4.641   6.756  0.4927 -1.3155 -1.7486
35480SOL    HW212278   2.496   4.526   6.825  0.4985 -0.5727 -0.4694
35481SOL     OW12279   2.740   2.265   0.462 -0.1932 -0.1394 -0.1662
35481SOL    HW112280   2.828   2.280   0.498 -1.3995 -0.0446  3.1049
35481SOL    HW212281   2.723   2.173   0.479 -1.0367  0.0522  0.0880
35482SOL     OW12282   5.625   8.073   6.631 -0.0724 -0.3067 -0.0443
35482SOL    HW112283   5.569   8.150   6.613  1.0576  0.2018 -1.5294
35482SOL    HW212284   5.704   8.110   6.671 -0.7142 -1.0282  2.0569
35483SOL     OW12285   2.773  10.395  11.521  0.9278  0.2466  0.3895
35483SOL    HW112286   2.785  10.361  11.610 -1.1172  0.8559  0.9428
35483SOL    HW212287   2.838  10.347  11.469 -0.0671 -2.6497  1.5859
35484SOL     OW12288   2.429   6.750  10.747  0.0101  0.4355  0.3593
35484SOL    HW112289   2.479   6.669  10.743  1.6729  1.4791 -1.7682
35484SOL    HW212290   2.488   6.813  10.787 -0.8800  0.8856  0.9975
35485SOL     OW12291   9.108  11.397   6.258 -0.1424  0.3023  0.1762
35485SOL    HW112292   9.061  11.460   6.203  0.1113  0.3719  0.0348
35485SOL    HW212293   9.050  11.322   6.264 -0.6229  0.7074  0.6796
35486SOL     OW12294   8.090   9.691   8.596 -0.1757 -0.0459  0.3589
35486SOL    HW112295   8.003   9.730   8.588  0.3419  1.1920  0.5844
35486SOL    HW212296   8.140   9.753   8.650  0.8886 -0.6599  0.1154
35487SOL     OW12297   4.955   2.306   6.663 -0.1924 -0.8643  0.1016
35487SOL    HW112298   4.973   2.224   6.616  0.8886 -1.6636  1.8318
35487SOL    HW212299   4.864   2.297   6.693 -1.2970  0.1160 -2.5946
35488SOL     OW12300   5.687   4.278  10.734 -0.7235  0.0067  0.0532
35488SOL    HW112301   5.711   4.335  10.807 -1.0076 -0.6681  0.6831
35488SOL    HW212302   5.752   4.208  10.737 -0.7885 -0.0676 -0.2896
35489SOL     OW12303   5.201   0.514   8.440  0.5587  0.4629 -0.3197
35489SOL    HW112304   5.159   0.542   8.359 -0.3032  0.2290  0.0351
35489SOL    HW212305   5.253   0.588   8.467  0.1245  0.8790 -0.6042
35490SOL     OW12306  10.479   2.668   1.154  0.7225  0.5331  0.3790
35490SOL    HW112307  10.442   2.589   1.113  0.2355  1.0031 -0.1060
35490SOL    HW212308  10.550   2.635   1.209  3.5275  0.0678 -3.1484
35491SOL     OW12309   9.218  11.222   7.157  0.1030  0.1746  0.1535
35491SOL    HW112310   9.252  11.257   7.239 -1.2697  0.6384  0.5597
35491SOL    HW212311   9.124  11.214   7.172 -0.2623  0.7915 -1.5512
35492SOL     OW12312   6.209  11.697  11.740 -0.5192  0.6053 -0.2683
35492SOL    HW112313   6.122  11.661  11.758  0.4660 -2.1231 -0.5600
35492SOL    HW212314   6.252  11.699  11.826 -1.3839  3.8209  0.2401
35493SOL     OW12315   4.900   9.140   4.152 -0.2417 -0.3252 -0.1200
35493SOL    HW112316   4.929   9.104   4.068  0.4283 -0.5713  0.2127
35493SOL    HW212317   4.980   9.152   4.202 -0.6233 -0.0196  0.4285
35494SOL     OW12318   7.170   1.726   3.521  0.4137 -0.1346  0.2640
35494SOL    HW112319   7.264   1.723   3.536  0.2901 -0.7483  0.9159
35494SOL    HW212320   7.131   1.737   3.608 -0.0217  2.9037 -0.2030
35495SOL     OW12321   8.173   9.499   9.400  1.0328 -0.0732 -0.9146
35495SOL    HW112322   8.106   9.535   9.458  2.3501  1.3325 -0.1931
35495SOL    HW212323   8.130   9.492   9.315 -0.4367 -0.5625 -0.1564
35496SOL     OW12324  11.937   7.902   7.215  0.3416 -0.1997 -0.3600
35496SOL    HW112325  11.972   7.813   7.203  0.1673 -0.3713  0.3729
35496SOL    HW212326  11.998   7.943   7.276  0.8588  0.4510 -1.2872
35497SOL     OW12327   5.285  11.745   4.996  0.5173  0.1352 -0.7107
35497SOL    HW112328   5.332  11.709   4.921  0.3163 -0.9664 -0.3321
35497SOL    HW212329   5.269  11.837   4.974  1.4930  0.1207 -1.4929
35498SOL     OW12330   2.717   5.031  11.405 -0.2299  0.2622 -0.5663
35498SOL    HW112331   2.642   4.977  11.381  0.3448 -1.0771  0.5127
35498SOL    HW212332   2.793   4.974  11.391  0.3695  0.6261  1.0173
35499SOL     OW12333   8.665  11.750  10.269  0.2731 -0.2224  0.5645
35499SOL    HW112334   8.630  11.661  10.269  0.6375 -0.3800 -0.3418
35499SOL    HW212335   8.717  11.756  10.349 -1.1354 -0.2499  1.5062
35500SOL     OW12336  11.068  12.314   1.702  0.0361 -0.3487 -0.9429
35500SOL    HW112337  10.973  12.326   1.708  0.0647 -0.1066 -0.9717
35500SOL    HW212338  11.104  12.393   1.742  0.2346  0.5759 -2.8550
35501SOL     OW12339   4.175   8.339   5.244 -0.0624 -0.0372  0.2074
35501SOL    HW112340   4.086   8.329   5.277 -0.0612 -1.9804 -0.2246
35501SOL    HW212341   4.220   8.391   5.311 -0.7251 -1.6875  2.0359
35502SOL     OW12342   7.509  12.134   1.869  0.2483 -0.5308  0.0871
35502SOL    HW112343   7.432  12.081   1.853  0.2769 -0.0711 -1.7245
35502SOL    HW212344   7.529  12.119   1.962 -2.3359 -0.1944  0.7782
35503SOL     OW12345  11.459   4.515  11.438 -0.3607 -0.0781 -0.3152
35503SOL    HW112346  11.419   4.601  11.424  2.6680  1.1436 -2.6139
35503SOL    HW212347  11.415   4.458  11.375 -1.0068  0.2624 -0.1869
35504SOL     OW12348   6.432  10.898   2.139 -0.1675  0.1614 -0.1964
35504SOL    HW112349   6.462  10.891   2.049  1.1283 -0.0034  0.2313
35504SOL    HW212350   6.352  10.950   2.133  0.7896  1.5875 -1.2712
35505SOL     OW12351   9.365   0.540   9.066 -0.2661 -0.4498 -0.6108
35505SOL    HW112352   9.270   0.529   9.071 -0.2088 -0.5102  0.5620
35505SOL    HW212353   9.399   0.451   9.054 -0.2963 -0.5620  0.1208
35506SOL     OW12354  10.438   0.744   0.602  0.2463  0.1694  0.4184
35506SOL    HW112355  10.459   0.810   0.536  0.4707 -0.3495 -0.0319
35506SOL    HW212356  10.419   0.665   0.552 -0.3828 -0.0193  0.9374
35507SOL     OW12357   1.299  11.030   2.596  0.1757  0.1343 -0.2370
35507SOL    HW112358   1.242  11.047   2.671  1.5678  0.5748  0.7709
35507SOL    HW212359   1.273  10.943   2.565 -0.5094 -0.0039  0.6764
35508SOL     OW12360   0.718  10.688   6.946  0.4471 -0.1533 -0.3530
35508SOL    HW112361   0.664  10.745   7.001 -1.4582 -1.4030 -0.8151
35508SOL    HW212362   0.770  10.637   7.008 -0.7951 -0.7007  0.2807
35509SOL     OW12363   4.916   9.394  11.453 -0.1814 -0.0591  0.1435
35509SOL    HW112364   4.954   9.476  11.483 -1.1473  0.4163  0.0951
35509SOL    HW212365   4.971   9.367  11.379  1.9066 -0.9710  1.9226
35510SOL     OW12366  11.848   0.348   5.503  0.2158  0.7944 -0.3233
35510SOL    HW112367  11.937   0.319   5.523 -0.8684 -2.2771  0.5779
35510SOL    HW212368  11.846   0.353   5.408  0.9598 -0.6272 -0.4452
35511SOL     OW12369   2.303  11.406   6.277  0.0290 -0.3050  0.0245
35511SOL    HW112370   2.313  11.496   6.308 -0.1288  0.2948 -1.5822
35511SOL    HW212371   2.393  11.374   6.269  0.0934 -0.2300  0.4081
35512SOL     OW12372   5.118   9.563   9.004  0.2362 -0.4271  0.6401
35512SOL    HW112373   5.064   9.487   9.024 -1.2813  0.2089 -0.8338
35512SOL    HW212374   5.057   9.629   8.971  1.6452  1.0808  0.8758
35513SOL     OW12375   5.086  11.722   4.150 -0.0477  0.3251  0.1794
35513SOL    HW112376   5.104  11.769   4.232 -1.2388 -0.5318  0.9739
35513SOL    HW212377   5.103  11.630   4.171  0.8452  0.2110 -0.9293
35514SOL     OW12378   0.732  11.292  12.293 -0.1744  0.1615 -0.3422
35514SOL    HW112379   0.810  11.346  12.286 -0.0445 -0.0167 -0.2749
35514SOL    HW212380   0.659  11.352  12.274 -0.1430  0.6833  1.0715
35515SOL     OW12381   3.620   6.809  12.036 -0.1637 -0.2092 -0.0947
35515SOL    HW112382   3.564   6.802  12.113  1.3126 -1.5462  0.9251
35515SOL    HW212383   3.674   6.887  12.053  1.4203 -1.5171  1.1656
35516SOL     OW12384   6.754  11.519  10.661  0.5658  0.4867  0.1387
35516SOL    HW112385   6.726  11.611  10.664 -0.7482  0.0823  0.9734
35516SOL    HW212386   6.849  11.524  10.659  0.5019  1.8994 -1.5142
35517SOL     OW12387  10.202   4.222  11.406  0.4218 -0.2967  0.3780
35517SOL    HW112388  10.109   4.199  11.415  0.0567  1.2546  0.9393
35517SOL    HW212389  10.226   4.193  11.318 -0.5114 -1.0016  0.3460
35518SOL     OW12390   4.994   8.313   3.596  0.4606 -0.2370  0.0655
35518SOL    HW112391   5.080   8.354   3.603 -0.1320  1.0449  0.1227
35518SOL    HW212392   4.968   8.326   3.504 -0.1017  0.2973  0.2935
35519SOL     OW12393   7.062   6.864  12.252  0.6242  0.8386  1.1343
35519SOL    HW112394   7.055   6.956  12.280 -0.2494  0.9972  0.4632
35519SOL    HW212395   7.003   6.858  12.176  1.4735 -0.0265  0.5150
35520SOL     OW12396   5.172  11.556  12.010 -0.1572 -0.6594  0.0124
35520SOL    HW112397   5.113  11.521  12.077 -0.5543  1.4584  0.8330
35520SOL    HW212398   5.114  11.596  11.945  0.3085 -0.3391 -0.2135
35521SOL     OW12399   7.685  11.656   3.859 -0.4024  0.8430 -0.2779
35521SOL    HW112400   7.764  11.690   3.900 -0.9264  0.1989  1.3286
35521SOL    HW212401   7.710  11.569   3.827 -0.2802  0.9163 -0.3821
35522SOL     OW12402  11.420   8.807   5.463  0.3899  0.3811 -0.0354
35522SOL    HW112403  11.325   8.801   5.449  0.6972 -0.7233 -1.8941
35522SOL    HW212404  11.459   8.772   5.383  2.3905  0.9287  0.6362
35523SOL     OW12405   4.333   0.505   6.699  0.7134  0.4389 -0.1777
35523SOL    HW112406   4.320   0.590   6.741  0.7214 -0.1914  1.1396
35523SOL    HW212407   4.296   0.442   6.760 -1.6462 -0.3652 -2.2487
35524SOL     OW12408   6.603   3.537   8.854 -0.2362  0.5159 -0.0568
35524SOL    HW112409   6.610   3.493   8.939  1.8415 -0.7212 -0.8143
35524SOL    HW212410   6.562   3.473   8.797  1.0485  0.2427 -0.6933
35525SOL     OW12411   4.481   1.389   3.172 -0.4369  0.8019  0.0525
35525SOL    HW112412   4.526   1.389   3.088  1.2534 -0.4363  0.8836
35525SOL    HW212413   4.453   1.479   3.185 -0.2046  1.1284 -1.5583
35526SOL     OW12414   3.679   2.315   9.761 -0.2325  0.7002  0.0266
35526SOL    HW112415   3.617   2.320   9.688 -1.4710  0.0780  0.9977
35526SOL    HW212416   3.675   2.402   9.802 -0.8189  0.5262  0.3517
35527SOL     OW12417   8.917   8.820   7.983 -0.4247 -0.2943 -0.4303
35527SOL    HW112418   8.837   8.793   8.028  0.6810 -1.1155  1.1349
35527SOL    HW212419   8.927   8.913   8.005 -0.1291 -0.5790  0.7068
35528SOL     OW12420   0.107   8.002   2.329  0.4912 -0.0343  0.0368
35528SOL    HW112421   0.020   8.025   2.295 -0.4955 -2.3220  0.8243
35528SOL    HW212422   0.136   8.081   2.375 -1.3820  0.6404  0.1570
35529SOL     OW12423   4.341  11.084   2.054  0.0647 -0.1581 -0.3374
35529SOL    HW112424   4.316  11.029   1.980  1.0335 -0.9192 -0.1239
35529SOL    HW212425   4.361  11.169   2.015  1.2292 -0.7377 -1.0642
35530SOL     OW12426   7.618   4.236   0.489  0.1435  0.2028  0.0797
35530SOL    HW112427   7.644   4.318   0.529  2.2380 -0.3845  0.0485
35530SOL    HW212428   7.663   4.235   0.404  0.6237 -1.1957  0.3151
35531SOL     OW12429  10.349   2.434   2.088  0.5786 -0.0053 -0.5705
35531SOL    HW112430  10.302   2.484   2.154  1.1491  0.9837 -0.8960
35531SOL    HW212431  10.310   2.459   2.005 -1.1664 -2.3800 -0.5567
35532SOL     OW12432   1.804  12.190   3.695 -0.1634 -0.5037  0.2775
35532SOL    HW112433   1.865  12.247   3.648 -1.1283  1.9135  1.7495
35532SOL    HW212434   1.856  12.151   3.765  0.5106 -1.4772 -0.7422
35533SOL     OW12435   3.900   8.488   9.068 -0.0791  0.0460  0.5511
35533SOL    HW112436   3.873   8.544   9.140  2.1178  0.3065  1.2557
35533SOL    HW212437   3.914   8.548   8.995 -1.3869 -0.1000  0.1610
35534SOL     OW12438   3.877   4.508   0.315  0.1271 -0.1594  0.1220
35534SOL    HW112439   3.930   4.523   0.237 -0.6312  1.3039 -0.1477
35534SOL    HW212440   3.918   4.561   0.383  0.2692 -0.7349  0.4886
35535SOL     OW12441   1.846  11.905   1.488  0.2604  0.6296  0.0865
35535SOL    HW112442   1.893  11.989   1.493  0.4773  0.6150 -1.1835
35535SOL    HW212443   1.914  11.839   1.500 -0.0404  0.6140  1.9344
35536SOL     OW12444   8.705   9.085   9.518 -0.2314 -0.6534  0.3189
35536SOL    HW112445   8.635   9.059   9.458  0.6796 -1.2407 -0.5246
35536SOL    HW212446   8.784   9.083   9.464  0.3225  0.8934  1.0025
35537SOL     OW12447  11.142   8.395  11.323  0.6557  0.2532 -0.2417
35537SOL    HW112448  11.149   8.378  11.417  1.2527 -0.9196 -0.4804
35537SOL    HW212449  11.071   8.459  11.315  0.0664 -0.2274  0.9388
35538SOL     OW12450  11.698   0.599   3.497  0.8295  0.1582 -0.2861
35538SOL    HW112451  11.603   0.593   3.510  0.7523 -0.1513 -0.9616
35538SOL    HW212452  11.720   0.523   3.444  1.4320  0.3186 -0.2725
35539SOL     OW12453   0.990  10.233  10.343  0.2368  0.3417  0.3767
35539SOL    HW112454   1.051  10.167  10.311 -2.1310 -1.9579  0.2610
35539SOL    HW212455   0.907  10.212  10.299 -1.0086  2.3966  1.5891
35540SOL     OW12456  11.088   6.961   7.408  0.2023  0.0182  0.4537
35540SOL    HW112457  11.113   6.889   7.466  0.5089 -0.8793 -0.7508
35540SOL    HW212458  11.014   7.003   7.452 -1.2371 -2.1991  0.3232
35541SOL     OW12459   9.666   0.491  10.449  0.3784  0.3610 -0.3629
35541SOL    HW112460   9.665   0.439  10.368  0.4342  0.2501 -0.2933
35541SOL    HW212461   9.574   0.504  10.471  0.3672 -0.5591  0.1634
35542SOL     OW12462   6.645   1.231   9.827  0.0338 -0.1188  0.1255
35542SOL    HW112463   6.644   1.306   9.768 -0.0828 -0.1541  0.0829
35542SOL    HW212464   6.679   1.266   9.910  0.9694 -0.2460 -0.1984
35543SOL     OW12465   1.196   1.258  11.849 -0.1618  0.1230 -0.4933
35543SOL    HW112466   1.143   1.318  11.901 -0.4963  0.5455 -1.2998
35543SOL    HW212467   1.283   1.299  11.846 -0.2673  0.3357 -0.6578
35544SOL     OW12468   5.180   6.528   5.118  0.2503  1.0955 -0.4615
35544SOL    HW112469   5.123   6.473   5.064 -2.4129  0.9915  2.2127
35544SOL    HW212470   5.244   6.467   5.156  1.1929  0.9430 -2.1669
35545SOL     OW12471   6.860  11.010  12.180 -0.0295  0.0596 -0.6784
35545SOL    HW112472   6.854  11.095  12.223  0.5846  0.6719 -1.7455
35545SOL    HW212473   6.777  10.967  12.198 -0.2075  0.7423  0.1719
35546SOL     OW12474   0.694   6.158   2.982  0.1305 -0.0156  0.1560
35546SOL    HW112475   0.629   6.179   3.049 -1.5598 -0.4784 -1.2755
35546SOL    HW212476   0.741   6.082   3.017 -1.7914 -1.2595  0.1956
35547SOL     OW12477   1.559   2.897   5.412  0.6525 -0.4518 -0.0798
35547SOL    HW112478   1.548   2.985   5.376  1.6037  0.1893  1.1406
35547SOL    HW212479   1.481   2.883   5.467 -0.3152 -1.0516 -1.5350
35548SOL     OW12480   1.713  12.047   9.865 -0.4149 -0.0934  0.6854
35548SOL    HW112481   1.771  12.045   9.941 -1.4938 -1.1380  1.4971
35548SOL    HW212482   1.649  12.116   9.885  1.6812  2.6540 -1.1553
35549SOL     OW12483   1.355   8.725   6.332  0.1290  0.2694 -0.6440
35549SOL    HW112484   1.339   8.818   6.344  0.6595  0.1928  0.8653
35549SOL    HW212485   1.415   8.720   6.258  0.5506  1.1581 -0.3660
35550SOL     OW12486   8.265   2.094   5.388 -0.5646 -0.0031  0.0478
35550SOL    HW112487   8.172   2.076   5.398 -0.6384  0.1211 -0.3787
35550SOL    HW212488   8.304   2.010   5.365 -0.1722 -0.6101  2.6171
35551SOL     OW12489   8.092   5.716   2.355  0.1508  0.3332 -0.5707
35551SOL    HW112490   8.105   5.738   2.447  1.4595 -0.1237 -0.6325
35551SOL    HW212491   8.014   5.766   2.329 -1.4080 -0.9767  1.2808
35552SOL     OW12492   6.551   1.674  10.376  0.4166 -0.1753  0.0172
35552SOL    HW112493   6.576   1.591  10.337  2.5542  0.6826 -0.5649
35552SOL    HW212494   6.537   1.654  10.468 -1.7782 -1.6506 -0.5528
35553SOL     OW12495   3.241   8.749  12.298 -0.1604 -0.0479  0.2731
35553SOL    HW112496   3.306   8.701  12.247 -4.0284 -3.7155 -1.7771
35553SOL    HW212497   3.240   8.704  12.383 -0.6413 -0.6725 -0.0527
35554SOL     OW12498   4.080   9.691  11.168 -0.8163 -0.4260  0.0741
35554SOL    HW112499   4.050   9.713  11.080 -2.0420 -0.3594  0.4937
35554SOL    HW212500   4.008   9.642  11.207  0.2169 -1.5534  0.6202
35555SOL     OW12501   4.890  11.635  10.379  0.2926  0.2340 -0.1965
35555SOL    HW112502   4.885  11.546  10.413 -0.7995  0.1742 -0.4645
35555SOL    HW212503   4.919  11.625  10.289  0.0852  0.1364 -0.2536
35556SOL     OW12504   3.077   6.771   2.449 -0.2011  0.2252 -0.0928
35556SOL    HW112505   3.003   6.831   2.438 -2.0556 -2.4349 -4.2693
35556SOL    HW212506   3.039   6.692   2.486  1.0650 -0.3520  0.0223
35557SOL     OW12507   6.951   0.736  10.281 -0.4398  0.1890 -0.0258
35557SOL    HW112508   7.032   0.786  10.274  1.9648 -2.6098  3.7954
35557SOL    HW212509   6.900   0.783  10.348 -0.4779  0.2307 -0.0839
35558SOL     OW12510   4.975  10.519  10.421 -0.5296  0.0311  0.1084
35558SOL    HW112511   4.993  10.453  10.354 -0.1303  1.1600 -0.9377
35558SOL    HW212512   4.918  10.582  10.377  1.2169  1.7735  0.2028
35559SOL     OW12513  12.197   4.954   3.541 -0.7717  0.1345  0.5304
35559SOL    HW112514  12.193   5.050   3.543 -1.5033  0.1032  1.0555
35559SOL    HW212515  12.281   4.933   3.581  0.6632  0.6095 -2.0260
35560SOL     OW12516   0.990   9.012   9.533 -0.1952  0.4157  0.2026
35560SOL    HW112517   0.939   8.933   9.553 -1.2605  0.8044 -0.8445
35560SOL    HW212518   1.021   8.997   9.443  3.2948 -0.6969  1.4305
35561SOL     OW12519   3.901   4.030   3.777 -0.0378 -0.2889  0.4239
35561SOL    HW112520   3.909   4.104   3.716 -1.8583 -1.0490 -0.8539
35561SOL    HW212521   3.957   4.053   3.850  0.3250  1.8425 -0.4380
35562SOL     OW12522   0.803   6.202   9.556  0.1326 -0.2199 -0.2681
35562SOL    HW112523   0.870   6.247   9.504  1.3223  0.4351  1.6865
35562SOL    HW212524   0.826   6.109   9.550  0.5465 -0.1043 -0.5278
35563SOL     OW12525  10.249   6.380   3.486  0.3371 -0.0132  0.3664
35563SOL    HW112526  10.300   6.461   3.482  1.9234 -0.9677  0.1572
35563SOL    HW212527  10.269   6.343   3.571 -1.8882  0.6889  1.2677
35564SOL     OW12528   2.648   7.031   5.419 -0.0758  0.5826 -0.1365
35564SOL    HW112529   2.552   7.033   5.422 -0.1358 -1.2584  1.5690
35564SOL    HW212530   2.670   7.038   5.326 -1.9473 -0.4942 -0.7054
35565SOL     OW12531   8.324   7.668   9.088  0.0219 -0.4240  0.0233
35565SOL    HW112532   8.396   7.641   9.145 -0.4721 -0.5292  0.6079
35565SOL    HW212533   8.248   7.620   9.121  0.0962 -2.0267 -1.9216
35566SOL     OW12534   3.180   1.828   4.538  0.2384  0.0217  0.1106
35566SOL    HW112535   3.182   1.840   4.443 -0.8905  1.6960  0.2525
35566SOL    HW212536   3.258   1.776   4.557  0.6860 -0.0298 -1.6890
35567SOL     OW12537   2.256   0.203   3.214  0.3975 -0.5306  0.0695
35567SOL    HW112538   2.247   0.175   3.123 -0.8427  0.7578 -0.2447
35567SOL    HW212539   2.294   0.127   3.259  1.3380 -1.0714 -1.5633
35568SOL     OW12540   1.510   4.713   8.755 -0.0874  0.4918 -0.2956
35568SOL    HW112541   1.423   4.749   8.773  0.0328  1.0934 -0.8631
35568SOL    HW212542   1.496   4.619   8.747 -0.5640  0.5032  0.3288
35569SOL     OW12543   4.137  10.444   9.297  0.0382 -1.0085 -0.1714
35569SOL    HW112544   4.164  10.358   9.329  0.5694 -0.9274 -0.4016
35569SOL    HW212545   4.215  10.498   9.302 -0.7474  0.0333  1.8173
35570SOL     OW12546   5.353   2.589   2.822 -0.4303 -0.3719  0.7882
35570SOL    HW112547   5.407   2.662   2.793  2.2838 -2.3374  0.4113
35570SOL    HW212548   5.294   2.571   2.749 -1.5970  1.7582  1.1458
35571SOL     OW12549   6.412   5.307   8.801 -0.0620 -0.0032  0.2039
35571SOL    HW112550   6.351   5.322   8.873  1.4144  2.4525  1.0521
35571SOL    HW212551   6.358   5.269   8.731 -1.8144 -1.0927  2.0666
35572SOL     OW12552   8.663  10.264  10.160  0.1217  0.0871 -0.7463
35572SOL    HW112553   8.579  10.299  10.131  0.0207 -1.1194 -1.9860
35572SOL    HW212554   8.729  10.322  10.121 -0.0904 -0.0805 -1.3623
35573SOL     OW12555   3.264   4.026   6.950 -0.6188 -0.3930  0.3896
35573SOL    HW112556   3.199   3.957   6.946 -0.9124 -0.0655 -1.2207
35573SOL    HW212557   3.231   4.094   6.892  0.5768  0.2915  0.4679
35574SOL     OW12558   0.395   0.528   3.382  0.5033  0.2112 -0.2550
35574SOL    HW112559   0.313   0.483   3.365  0.2985 -1.7713  4.5675
35574SOL    HW212560   0.461   0.474   3.339 -0.2579 -1.8816  1.0242
35575SOL     OW12561   0.510   1.010  11.095  0.6282 -0.0803 -0.2038
35575SOL    HW112562   0.495   1.010  11.001 -1.0238 -0.0201  0.0320
35575SOL    HW212563   0.499   0.919  11.121 -0.3444  0.1124  0.1110
35576SOL     OW12564   2.788  10.901   6.277  0.0337 -0.6453 -0.6535
35576SOL    HW112565   2.731  10.848   6.332  1.3340 -2.0386 -0.5708
35576SOL    HW212566   2.794  10.853   6.195  1.0724 -0.5384 -0.6539
35577SOL     OW12567   5.120  11.510   5.143 -0.5484 -0.4727  0.6292
35577SOL    HW112568   5.037  11.557   5.151 -0.6621 -0.7622  1.2469
35577SOL    HW212569   5.187  11.576   5.158 -0.5626  0.2055 -1.8536
35578SOL     OW12570   3.238  11.074  11.051  0.0399  0.2909  0.1861
35578SOL    HW112571   3.296  11.101  10.980 -0.7645 -1.5516 -1.2551
35578SOL    HW212572   3.160  11.040  11.006  0.1091 -2.3389  1.8686
35579SOL     OW12573   0.887   1.724   7.535 -0.1094 -0.0346 -0.3728
35579SOL    HW112574   0.809   1.746   7.586 -0.6463  2.0379 -1.9418
35579SOL    HW212575   0.949   1.689   7.599 -2.0221 -0.9761  1.0474
35580SOL     OW12576   5.282   7.534   4.162  0.1857 -0.3950 -0.3910
35580SOL    HW112577   5.244   7.518   4.076 -1.9857 -1.0582  0.6374
35580SOL    HW212578   5.343   7.462   4.176  1.2189  0.1832 -1.6793
35581SOL     OW12579  10.709   6.867   9.799 -0.2787  0.3475 -0.1780
35581SOL    HW112580  10.798   6.861   9.834 -0.2719  0.6199 -0.1461
35581SOL    HW212581  10.704   6.796   9.734 -0.5742 -0.7250  0.9828
35582SOL     OW12582   3.748   5.286   9.520 -0.1172 -0.2663  0.1631
35582SOL    HW112583   3.736   5.354   9.454  2.0962  0.1463  0.0890
35582SOL    HW212584   3.829   5.241   9.493  0.5381 -0.4456  2.2482
35583SOL     OW12585   8.885   7.336   3.566  0.7620  0.4116  0.3818
35583SOL    HW112586   8.965   7.297   3.530 -0.3710  0.4754 -2.4784
35583SOL    HW212587   8.816   7.275   3.542 -0.1634  0.6757  2.2453
35584SOL     OW12588   4.913   4.884   9.178 -0.3201 -0.5996 -0.2509
35584SOL    HW112589   4.877   4.861   9.093 -0.0250 -1.2649 -0.2016
35584SOL    HW212590   4.968   4.810   9.202 -0.6884 -0.5879  0.6866
35585SOL     OW12591   1.101   6.228  10.018 -0.3790 -0.2302 -0.0886
35585SOL    HW112592   1.143   6.164   9.960 -1.4439  0.0719 -1.2316
35585SOL    HW212593   1.174   6.280  10.053  0.3952 -1.3133 -0.0524
35586SOL     OW12594   7.210   3.760   5.643 -0.8386  0.1269  0.3063
35586SOL    HW112595   7.241   3.822   5.578  0.5268 -0.5907  0.2358
35586SOL    HW212596   7.289   3.731   5.688 -1.7206  0.3995  2.1214
35587SOL     OW12597   5.987   1.612   9.419  0.2694  0.3391 -1.0124
35587SOL    HW112598   6.028   1.615   9.505  0.2192 -1.5928 -0.8590
35587SOL    HW212599   6.060   1.617   9.358  0.3271  1.4384 -0.8740
35588SOL     OW12600   0.670   3.417   0.942  0.1052 -0.1377  0.7958
35588SOL    HW112601   0.673   3.322   0.933  1.0457 -0.0566  0.1869
35588SOL    HW212602   0.761   3.446   0.937 -0.0002  0.6629  2.6424
35589SOL     OW12603   1.141   7.583   7.368 -0.2536  0.2345  0.2100
35589SOL    HW112604   1.097   7.631   7.439  1.2156  0.9060  0.7101
35589SOL    HW212605   1.107   7.622   7.288  0.6645  1.9712  0.6030
35590SOL     OW12606   4.551   6.759   7.741  0.2855 -0.0729  0.4316
35590SOL    HW112607   4.503   6.752   7.823  3.0222  0.1225  2.1515
35590SOL    HW212608   4.513   6.690   7.686 -1.9000  0.0628  1.6260
35591SOL     OW12609  10.195   5.773   0.158  0.2810  0.2055  0.0697
35591SOL    HW112610  10.244   5.838   0.108 -0.7061  1.0525  0.1746
35591SOL    HW212611  10.104   5.799   0.149  0.0155  0.0080  1.7619
35592SOL     OW12612   1.135   4.957  11.366  0.1071 -0.0890 -0.2937
35592SOL    HW112613   1.200   5.027  11.365  1.5866 -1.3673  0.7980
35592SOL    HW212614   1.053   5.001  11.391  0.8930  1.3078 -0.0581
35593SOL     OW12615   5.333   8.932   4.009  0.8784  0.5286 -0.0686
35593SOL    HW112616   5.351   8.945   4.102  2.3165  2.3450 -0.5334
35593SOL    HW212617   5.384   8.855   3.985 -0.3449 -0.6053  0.8264
35594SOL     OW12618  10.852  11.836  11.006 -0.0648 -0.5140 -0.4632
35594SOL    HW112619  10.810  11.921  11.016  0.8301 -0.1331  0.1537
35594SOL    HW212620  10.783  11.779  10.972 -0.6882  0.4401 -0.8331
35595SOL     OW12621   8.182   2.232  10.300  0.2677  0.1538 -0.0145
35595SOL    HW112622   8.199   2.185  10.382 -0.3287  0.4379  0.2789
35595SOL    HW212623   8.094   2.205  10.275  0.0365  0.8831 -0.0039
35596SOL     OW12624   0.051   1.880  12.304  0.5677  0.9027 -0.0082
35596SOL    HW112625   0.028   1.790  12.323  2.3159  0.4431  0.1349
35596SOL    HW212626  -0.032   1.928  12.305 -0.6568 -0.9966 -1.9331
35597SOL     OW12627   4.408   8.732  11.952 -0.2663  0.4165  0.5437
35597SOL    HW112628   4.329   8.690  11.986 -1.3194  2.1458  0.3449
35597SOL    HW212629   4.469   8.731  12.026  0.8629 -3.8279 -0.1827
35598SOL     OW12630   5.119  10.371   3.801  0.1212  0.0557  0.0081
35598SOL    HW112631   5.169  10.363   3.883  0.2423 -0.4744 -0.1119
35598SOL    HW212632   5.062  10.447   3.815  0.2260  0.0424  0.5423
35599SOL     OW12633   6.208   2.968   8.447 -0.2908 -0.1742  0.1677
35599SOL    HW112634   6.197   2.941   8.356 -0.5590  1.9762 -0.5012
35599SOL    HW212635   6.302   2.986   8.455 -0.5361  1.4684 -0.2897
35600SOL     OW12636   3.981   4.221   1.669 -0.1251 -0.3087  0.0428
35600SOL    HW112637   3.922   4.148   1.650 -1.3677  0.3328  1.2396
35600SOL    HW212638   3.951   4.254   1.753  1.9865  0.0471  0.7095
35601SOL     OW12639   1.803  11.030   4.238 -0.6815  0.0335  0.4167
35601SOL    HW112640   1.790  10.945   4.279 -1.3248 -0.6023 -1.0610
35601SOL    HW212641   1.849  11.011   4.156  0.0271  1.2140  0.5074
35602SOL     OW12642   1.322   2.013   2.797  0.2345  0.0762 -0.1580
35602SOL    HW112643   1.257   1.944   2.788  1.0817 -0.8113  0.3458
35602SOL    HW212644   1.346   2.036   2.707 -0.8000  0.4647 -0.3530
35603SOL     OW12645   0.123   3.327   1.809  0.5397 -0.6249 -0.3027
35603SOL    HW112646   0.060   3.395   1.784  1.5087  0.5309  0.2698
35603SOL    HW212647   0.152   3.290   1.726 -1.5985 -1.8834 -0.5390
35604SOL     OW12648   7.788   3.504   7.679  0.4983 -0.5894 -0.6696
35604SOL    HW112649   7.785   3.593   7.715 -1.6010 -1.0467  0.4947
35604SOL    HW212650   7.811   3.449   7.754  1.0592 -1.0997 -1.2091
35605SOL     OW12651   6.857   8.822   4.612 -0.5392  0.1844 -0.0111
35605SOL    HW112652   6.933   8.863   4.570 -0.2773  0.6767  0.9121
35605SOL    HW212653   6.806   8.787   4.539 -0.9978  2.5440 -0.9275
35606SOL     OW12654  11.047   4.228   0.997  0.1431  0.1764  0.5519
35606SOL    HW112655  11.034   4.280   0.918 -0.7412 -0.1241  0.4953
35606SOL    HW212656  11.061   4.293   1.066 -0.3737  0.4730  0.3803
35607SOL     OW12657   3.657   1.229   1.021  0.3422 -0.0520  0.4987
35607SOL    HW112658   3.650   1.186   0.936  1.3776  2.0020 -0.7150
35607SOL    HW212659   3.750   1.224   1.043  0.4863  1.5084  0.3241
35608SOL     OW12660  12.013  11.553   9.085  0.0687 -0.0786  0.0886
35608SOL    HW112661  12.008  11.590   8.997  1.0334 -0.2177 -0.0380
35608SOL    HW212662  12.007  11.459   9.071  2.4624 -0.2773 -0.0925
35609SOL     OW12663   3.403   4.618   8.827  0.0490 -0.0482 -0.2822
35609SOL    HW112664   3.331   4.678   8.808 -2.2509 -2.6658 -0.2732
35609SOL    HW212665   3.450   4.661   8.899 -3.2172  0.5224  1.7337
35610SOL     OW12666  11.978   6.143   1.381  0.3683 -0.6174 -0.0894
35610SOL    HW112667  11.984   6.202   1.306 -0.7190 -1.0269 -0.5106
35610SOL    HW212668  11.957   6.058   1.344  0.9137 -1.0693  0.6017
35611SOL     OW12669  11.395   9.563   5.541  0.3142 -0.6433 -0.0331
35611SOL    HW112670  11.331   9.583   5.473  0.3074 -1.5491 -0.2972
35611SOL    HW212671  11.352   9.587   5.623 -0.2115 -0.8806 -0.2381
35612SOL     OW12672   7.210   4.362   7.878 -0.4028  0.4151 -0.3041
35612SOL    HW112673   7.230   4.269   7.866 -2.4563 -0.3504  1.6426
35612SOL    HW212674   7.276   4.407   7.825  1.1337 -2.1032 -0.7120
35613SOL     OW12675   7.278   9.140   4.218  0.1214 -0.2151  0.3673
35613SOL    HW112676   7.246   9.049   4.221  0.3490 -0.4037 -1.6051
35613SOL    HW212677   7.198   9.193   4.210  0.0798 -0.4542 -1.1015
35614SOL     OW12678  10.434   7.305   0.501 -0.1259  0.4913 -0.0176
35614SOL    HW112679  10.366   7.298   0.568  1.7987  0.9062  2.1018
35614SOL    HW212680  10.412   7.385   0.453 -1.0615  0.6695  0.6746
35615SOL     OW12681   7.430  10.876  10.341 -0.4428  0.1839  0.0774
35615SOL    HW112682   7.436  10.787  10.307 -0.2217  0.9616 -2.1286
35615SOL    HW212683   7.337  10.890  10.357 -0.5485 -0.2433 -0.1581
35616SOL     OW12684  11.450  10.284  11.436  0.6782 -0.4864  0.8850
35616SOL    HW112685  11.493  10.359  11.394  2.0746 -2.2385 -1.0707
35616SOL    HW212686  11.486  10.282  11.525  0.7504  1.0284  0.9054
35617SOL     OW12687   5.499   6.817   7.500 -0.2688 -0.1250 -0.1036
35617SOL    HW112688   5.569   6.803   7.435  0.6002 -1.6126  1.0865
35617SOL    HW212689   5.545   6.840   7.580 -1.1976 -0.2414  0.4746
35618SOL     OW12690   6.081   2.332   0.856 -0.3452  0.2596 -0.7108
35618SOL    HW112691   5.999   2.283   0.848 -0.4974  0.6294 -1.5025
35618SOL    HW212692   6.141   2.271   0.898 -0.5661 -0.5684 -1.5782
35619SOL     OW12693   2.964   1.582   5.126 -0.2536  0.1864  0.0310
35619SOL    HW112694   2.922   1.657   5.084  0.6300 -0.2503 -1.7473
35619SOL    HW212695   2.896   1.515   5.129 -0.0674 -0.1655 -1.8721
35620SOL     OW12696   9.709   1.568   0.146 -0.0587  0.1183 -0.3645
35620SOL    HW112697   9.723   1.659   0.122  1.0328 -0.0998 -0.6377
35620SOL    HW212698   9.642   1.537   0.086  0.2833  0.4779 -0.9475
35621SOL     OW12699  11.557  12.176   8.968 -0.2175  0.3476 -0.3587
35621SOL    HW112700  11.564  12.174   8.873 -1.2355 -2.4051 -0.4676
35621SOL    HW212701  11.642  12.208   8.998  0.3817  0.5579 -2.1663
35622SOL     OW12702   9.321   4.764   2.262 -0.0588 -0.1424  0.4279
35622SOL    HW112703   9.248   4.703   2.271 -0.4096  0.1097 -0.6653
35622SOL    HW212704   9.354   4.749   2.173  0.0549  1.0376  0.2641
35623SOL     OW12705  11.217   9.964   1.088  0.1824  0.1242 -0.2762
35623SOL    HW112706  11.301   9.923   1.108  1.0779  1.3786 -1.3448
35623SOL    HW212707  11.190  10.004   1.171  0.3200 -0.7915  0.2248
35624SOL     OW12708   8.611   8.925   4.339 -0.1633  0.3199  0.0252
35624SOL    HW112709   8.666   8.934   4.417 -0.9594 -0.0876  0.6468
35624SOL    HW212710   8.573   8.837   4.347 -0.6556  0.4741 -0.5674
35625SOL     OW12711   1.487  10.710   9.242  0.2349 -0.4583 -0.3488
35625SOL    HW112712   1.536  10.688   9.322  2.8716  2.1760 -1.0743
35625SOL    HW212713   1.419  10.770   9.272  0.2703 -0.6478  0.1216
35626SOL     OW12714   9.362   3.736   0.918  0.3034 -0.5344 -0.3057
35626SOL    HW112715   9.348   3.641   0.918 -0.5808 -0.4313  1.0242
35626SOL    HW212716   9.391   3.756   0.829  0.3255 -2.0266 -0.6591
35627SOL     OW12717   9.478   5.999   8.433  0.1447  0.0769  0.7380
35627SOL    HW112718   9.525   6.065   8.484 -0.0286 -0.5910  1.7932
35627SOL    HW212719   9.509   5.915   8.468  0.7592 -0.4304 -0.9362
35628SOL     OW12720   5.097   0.639   6.404  0.4459  0.4813 -0.0635
35628SOL    HW112721   5.177   0.590   6.387  0.8711  1.4770 -1.0378
35628SOL    HW212722   5.026   0.576   6.387  0.9955 -0.3173  0.5264
35629SOL     OW12723   2.088   1.205   6.599  0.0508  0.5578  0.2551
35629SOL    HW112724   2.048   1.238   6.678 -0.3642 -1.2939  0.8699
35629SOL    HW212725   2.019   1.208   6.533 -0.1846  0.2589  0.4897
35630SOL     OW12726   5.523   0.916   2.683  0.4016 -0.1104  0.4835
35630SOL    HW112727   5.576   0.893   2.760 -0.5746  0.5866  1.3991
35630SOL    HW212728   5.539   1.009   2.670 -0.8413  0.1863  0.9863
35631SOL     OW12729  12.044   5.941   1.171  0.1049  0.3420  0.2329
35631SOL    HW112730  12.066   6.033   1.164  1.2877  0.1875  1.4896
35631SOL    HW212731  11.993   5.922   1.093  2.0492  1.4420 -1.3952
35632SOL     OW12732   3.208   2.297   7.641 -0.0668  0.3843 -0.1975
35632SOL    HW112733   3.215   2.337   7.727  0.1815 -0.3796  0.1532
35632SOL    HW212734   3.239   2.364   7.580 -1.4273  1.3865  0.1644
35633SOL     OW12735  10.986  11.924  11.943 -0.0912  0.1991  0.3260
35633SOL    HW112736  11.001  12.018  11.940  0.3818  0.2758  2.8503
35633SOL    HW212737  10.901  11.911  11.901  0.1365  1.6432 -0.6486
35634SOL     OW12738   4.654   1.066   5.787  0.4666 -0.0688 -0.0567
35634SOL    HW112739   4.627   1.054   5.878  0.7264 -0.3634 -0.0152
35634SOL    HW212740   4.710   1.143   5.789 -1.2605  1.2410 -0.3322
35635SOL     OW12741   9.815  11.771  10.864 -0.1706  0.5116  0.0444
35635SOL    HW112742   9.905  11.802  10.866 -0.1558  0.6820 -1.7629
35635SOL    HW212743   9.814  11.703  10.797 -1.4733  0.8411 -0.3063
35636SOL     OW12744  10.883  11.275   9.439  0.6710  0.2625  0.4261
35636SOL    HW112745  10.937  11.221   9.497 -1.8112 -0.3345  2.3939
35636SOL    HW212746  10.823  11.321   9.499 -0.3178  1.6604 -1.5276
35637SOL     OW12747   3.249  10.071   7.170  0.1922 -0.0138 -0.2216
35637SOL    HW112748   3.256   9.977   7.185  0.2580  0.1033  0.5370
35637SOL    HW212749   3.268  10.082   7.077  0.4607 -0.7227 -0.2580
35638SOL     OW12750   3.044   0.159   9.266  0.8110 -0.9331  0.4094
35638SOL    HW112751   3.082   0.239   9.231  1.7225 -0.6736  1.8984
35638SOL    HW212752   2.963   0.187   9.309 -0.4359 -1.2859 -1.5698
35639SOL     OW12753   1.711   6.959   2.916  0.2130  0.2730  0.0210
35639SOL    HW112754   1.796   6.970   2.960  0.8166 -0.0963 -1.0083
35639SOL    HW212755   1.705   6.866   2.899  0.1341  0.4431 -0.9238
35640SOL     OW12756   4.615   4.155   3.825  0.1772  0.0030 -0.3463
35640SOL    HW112757   4.682   4.152   3.893 -0.3628 -0.4653  0.1851
35640SOL    HW212758   4.655   4.113   3.749  1.6707  2.6668 -1.1788
35641SOL     OW12759   4.812   8.300   6.088 -0.0152  0.1759 -0.3379
35641SOL    HW112760   4.802   8.355   6.166 -2.0338 -0.5706 -0.0304
35641SOL    HW212761   4.882   8.239   6.111  1.5960  1.9039 -0.3283
35642SOL     OW12762   1.876   1.412  10.252  0.5263  0.3266 -0.2562
35642SOL    HW112763   1.882   1.331  10.201 -0.7060  0.0700 -0.0074
35642SOL    HW212764   1.837   1.476  10.192  1.0307  0.6195 -0.2879
35643SOL     OW12765   2.447   2.264   5.895 -0.0455  0.5314  0.4006
35643SOL    HW112766   2.401   2.260   5.811 -0.2852  0.9298  0.5099
35643SOL    HW212767   2.520   2.202   5.885 -1.7074 -1.6297  0.9309
35644SOL     OW12768   8.900   5.283   3.261 -0.4430 -0.0045  0.0452
35644SOL    HW112769   8.925   5.210   3.203  0.3410 -0.5535  1.0534
35644SOL    HW212770   8.899   5.245   3.348  0.1117  1.2386  0.6101
35645SOL     OW12771  11.055   2.292   4.750  0.0510 -0.5054 -0.0300
35645SOL    HW112772  11.018   2.376   4.778 -1.2151 -1.1153  0.1705
35645SOL    HW212773  11.046   2.293   4.655 -1.9063 -1.2663  0.1112
35646SOL     OW12774  12.280   5.602  11.548  0.3036  0.1626  0.7112
35646SOL    HW112775  12.259   5.533  11.485  0.0766  1.8692 -1.1939
35646SOL    HW212776  12.228   5.580  11.626 -2.0053 -0.2925 -0.8620
35647SOL     OW12777   6.287   4.362   2.258 -0.7181 -0.3821  0.1438
35647SOL    HW112778   6.337   4.419   2.316 -2.4748 -0.8881  2.2990
35647SOL    HW212779   6.333   4.367   2.174  0.1736  2.8428  0.6743
35648SOL     OW12780   8.936   9.336  10.316 -0.1797  0.0832  0.1495
35648SOL    HW112781   8.981   9.375  10.241 -0.9040 -0.7459 -0.7443
35648SOL    HW212782   8.916   9.411  10.373 -0.2286  0.8283 -0.8145
35649SOL     OW12783   0.389   4.227   8.639 -0.0199  0.1251  0.3111
35649SOL    HW112784   0.294   4.224   8.631  0.0406 -0.5027 -0.3372
35649SOL    HW212785   0.409   4.169   8.712  0.0494 -2.7250 -1.7662
35650SOL     OW12786   1.455  10.233   7.618 -0.1374 -0.1165 -0.4535
35650SOL    HW112787   1.477  10.266   7.531 -2.1311 -0.4211 -1.1140
35650SOL    HW212788   1.480  10.304   7.678 -1.7891  1.5102 -1.5857
35651SOL     OW12789   9.884  11.733   9.309 -0.2708 -0.0486 -0.3000
35651SOL    HW112790   9.817  11.696   9.367 -0.4014 -1.4321 -1.2639
35651SOL    HW212791   9.913  11.813   9.352  0.3276 -1.4893  2.1322
35652SOL     OW12792   7.257  11.348   0.508 -0.3011  0.3833 -0.2202
35652SOL    HW112793   7.272  11.260   0.542  0.6421  0.5895 -0.0806
35652SOL    HW212794   7.181  11.339   0.451 -0.2984 -0.4906 -0.0987
35653SOL     OW12795   2.254   9.473  11.487 -0.4658  0.5027 -0.0165
35653SOL    HW112796   2.298   9.466  11.572  1.9818  0.3305 -1.1989
35653SOL    HW212797   2.166   9.441  11.503  0.2165 -0.4581  2.2423
35654SOL     OW12798   7.922  12.214   6.126  0.6246  0.3545 -0.0163
35654SOL    HW112799   7.946  12.291   6.075 -0.7566  0.3270 -0.7270
35654SOL    HW212800   7.828  12.222   6.140  0.4177 -1.3017 -0.2849
35655SOL     OW12801   5.544   4.486   0.912  0.1341 -0.1351 -0.5054
35655SOL    HW112802   5.520   4.440   0.831 -0.8995  0.7445 -0.7293
35655SOL    HW212803   5.462   4.527   0.941  0.7045  0.3506  0.4747
35656SOL     OW12804   9.110   5.835   3.056 -0.2049  0.5977 -0.1967
35656SOL    HW112805   9.161   5.872   3.128  1.1005  0.5662 -1.0618
35656SOL    HW212806   9.076   5.752   3.090 -0.7100  1.2040  0.8003
35657SOL     OW12807   9.001   7.546  11.861  0.8240  0.6469  0.3164
35657SOL    HW112808   8.910   7.551  11.832  1.3825  1.9786 -1.3874
35657SOL    HW212809   9.038   7.472  11.812  0.5850 -0.1762  1.3369
35658SOL     OW12810   5.032   6.004   5.428  0.0703  0.3574 -0.4356
35658SOL    HW112811   5.057   5.974   5.515  0.5422  2.7710  0.3405
35658SOL    HW212812   5.011   6.096   5.440 -1.3177  0.3942 -2.6296
35659SOL     OW12813   2.518   7.254   1.019  0.2510 -0.1442  0.0886
35659SOL    HW112814   2.561   7.225   1.099 -0.3226  0.5613  0.6614
35659SOL    HW212815   2.429   7.221   1.026 -0.6837  2.3766  1.1634
35660SOL     OW12816   2.175   8.175   3.624 -0.4685  0.0468 -0.3207
35660SOL    HW112817   2.186   8.081   3.638 -0.4139 -0.0511 -0.9873
35660SOL    HW212818   2.232   8.195   3.550 -0.6723  0.5601 -0.3426
35661SOL     OW12819   5.817   8.215  11.226  0.5978 -0.1931 -0.2906
35661SOL    HW112820   5.863   8.158  11.165  1.7281  1.6329 -1.2531
35661SOL    HW212821   5.734   8.171  11.243  1.1509 -1.7841 -1.4736
35662SOL     OW12822   2.722   7.997   8.867 -0.0180 -0.7142 -0.4752
35662SOL    HW112823   2.768   7.951   8.937 -0.2791  0.5470  0.5742
35662SOL    HW212824   2.630   7.977   8.882 -0.2740  1.1798  0.8551
35663SOL     OW12825   7.344   0.831   1.909 -0.1717 -0.6367  0.7135
35663SOL    HW112826   7.363   0.838   2.003 -1.4449 -2.1730  1.1330
35663SOL    HW212827   7.377   0.745   1.885 -1.1914 -0.8608  0.0959
35664SOL     OW12828   9.011   7.958   0.467  0.1295  0.1295 -0.6259
35664SOL    HW112829   9.075   7.961   0.538 -0.8534  1.8714  0.2513
35664SOL    HW212830   8.944   7.897   0.499  0.6300 -0.6011 -0.9352
35665SOL     OW12831   8.817  12.251   8.603 -0.0840  0.5440  0.3930
35665SOL    HW112832   8.830  12.233   8.510  2.0386  1.4177  0.4769
35665SOL    HW212833   8.809  12.347   8.608 -0.3475  0.4896  1.1026
35666SOL     OW12834   0.120  11.984   4.369 -0.0873 -0.2253 -0.1896
35666SOL    HW112835   0.027  11.959   4.374 -0.4117  1.0983  1.7997
35666SOL    HW212836   0.118  12.080   4.374  1.4169 -0.2142  0.4532
35667SOL     OW12837   7.777   5.194   0.262  0.4548  0.2975 -0.3123
35667SOL    HW112838   7.766   5.112   0.311 -1.0249  0.3306 -0.5476
35667SOL    HW212839   7.828   5.169   0.185  0.2342 -0.3490 -0.2543
35668SOL     OW12840   1.423   7.346   5.714  0.8511  0.4475  0.0791
35668SOL    HW112841   1.487   7.314   5.778  1.5120  0.6230 -0.4755
35668SOL    HW212842   1.416   7.275   5.650 -0.2020  0.0556  0.6177
35669SOL     OW12843  12.160   2.052   9.827  0.0998  0.9034 -0.4327
35669SOL    HW112844  12.103   1.977   9.847 -0.9408  1.3266 -1.7345
35669SOL    HW212845  12.182   2.088   9.913 -0.8549  0.1838  0.1385
35670SOL     OW12846   5.455  11.963   0.474 -0.0594  0.0076  0.2761
35670SOL    HW112847   5.548  11.983   0.483 -0.0306  0.4380 -0.8677
35670SOL    HW212848   5.452  11.867   0.470  0.3708  0.0082 -0.0926
35671SOL     OW12849   7.650   8.105   0.855 -0.1261 -0.2081 -0.2583
35671SOL    HW112850   7.561   8.072   0.839 -1.0839  1.5322  1.1833
35671SOL    HW212851   7.650   8.192   0.815  1.5144 -0.8257 -1.7181
35672SOL     OW12852   6.151   7.851   2.234  0.8667 -0.8234  0.3258
35672SOL    HW112853   6.165   7.811   2.148  0.3003 -1.9107  0.7075
35672SOL    HW212854   6.089   7.792   2.277  2.5675 -1.3631  2.1896
35673SOL     OW12855   3.511   3.169   2.377 -0.2419 -0.6999 -0.2874
35673SOL    HW112856   3.552   3.184   2.462  0.8540  0.7045 -1.0032
35673SOL    HW212857   3.576   3.119   2.328 -0.4760 -0.7082 -0.5928
35674SOL     OW12858   9.916   9.016  11.726 -0.2035  0.4413 -0.3990
35674SOL    HW112859   9.897   8.970  11.644 -1.3537  1.0981 -0.5296
35674SOL    HW212860   9.858   9.093  11.724 -0.5011  0.2882  1.1850
35675SOL     OW12861   8.152   3.555   4.301 -0.1820  0.6788  0.3501
35675SOL    HW112862   8.109   3.473   4.274 -0.1534  0.8581 -0.2525
35675SOL    HW212863   8.169   3.543   4.394 -0.9571  0.3408  0.4578
35676SOL     OW12864  10.729   0.262   5.759  0.6457 -0.0875 -0.8355
35676SOL    HW112865  10.726   0.338   5.701 -1.8468 -0.1253 -0.8727
35676SOL    HW212866  10.640   0.226   5.756  1.2592 -1.8910  0.6531
35677SOL     OW12867   3.583  10.713   2.235 -0.3927 -0.2362  0.3097
35677SOL    HW112868   3.589  10.618   2.247 -0.3658 -0.2715  0.0144
35677SOL    HW212869   3.494  10.729   2.206 -0.7879 -0.0369  1.5680
35678SOL     OW12870   4.591   9.358   5.465 -0.2049  0.1916  0.2464
35678SOL    HW112871   4.540   9.411   5.404  0.2231  0.7700  0.3850
35678SOL    HW212872   4.678   9.399   5.465  0.7931 -1.7249 -1.2750
35679SOL     OW12873   4.765  11.146   0.305 -0.4318  0.4797 -0.1756
35679SOL    HW112874   4.726  11.080   0.362  0.1876 -0.0286 -0.3333
35679SOL    HW212875   4.709  11.147   0.228 -0.9093  0.7187  0.1730
35680SOL     OW12876   2.366  11.139  11.927 -0.2296  0.0248  0.1120
35680SOL    HW112877   2.460  11.123  11.920  0.0739  1.0242  1.4049
35680SOL    HW212878   2.325  11.065  11.882  1.1566 -0.7497  0.0663
35681SOL     OW12879  11.774   0.218   8.118  0.0395  0.1468  0.3053
35681SOL    HW112880  11.795   0.297   8.168  1.8795  0.5484 -1.0006
35681SOL    HW212881  11.847   0.159   8.136 -0.4198 -0.5570 -0.1302
35682SOL     OW12882  12.331   8.292   0.520 -0.2282  0.2579  0.2211
35682SOL    HW112883  12.404   8.313   0.461 -0.1131  1.5264  0.7734
35682SOL    HW212884  12.262   8.354   0.496 -0.6169 -0.0116  0.6305
35683SOL     OW12885   4.790  10.979   4.540 -0.0590 -0.4873  0.5418
35683SOL    HW112886   4.727  10.907   4.533  1.2550 -1.6380  0.1884
35683SOL    HW212887   4.793  11.017   4.452  0.2422 -0.8569  0.3944
35684SOL     OW12888   6.890   2.205   0.084 -0.2174 -0.1334 -0.5514
35684SOL    HW112889   6.856   2.115   0.086  0.7229 -0.5804 -2.1576
35684SOL    HW212890   6.822   2.258   0.126 -1.2204 -1.4603 -0.4306
35685SOL     OW12891   5.643   3.849   4.964  0.5024 -0.5051  0.8018
35685SOL    HW112892   5.692   3.774   4.997  2.1383 -0.7875 -1.9490
35685SOL    HW212893   5.693   3.925   4.994  2.6832 -0.7836 -1.7416
35686SOL     OW12894   1.036   3.655  11.467  0.2668 -0.0622 -0.0558
35686SOL    HW112895   1.116   3.656  11.416  0.2903  1.2349 -0.0113
35686SOL    HW212896   1.057   3.704  11.546 -0.8024  1.0372 -0.4225
35687SOL     OW12897   0.218   6.347   7.187  0.2323 -0.3474  0.5056
35687SOL    HW112898   0.262   6.386   7.262  1.4427  0.7483 -0.7419
35687SOL    HW212899   0.163   6.277   7.225  0.4713  0.4640  2.4253
35688SOL     OW12900   5.220   4.226   0.540 -0.1410 -0.0642 -0.0986
35688SOL    HW112901   5.294   4.169   0.561 -0.5427 -1.0324 -1.1916
35688SOL    HW212902   5.143   4.176   0.567 -0.4336  0.8871  0.9232
35689SOL     OW12903   0.581   7.003  11.939 -0.3384  0.2405 -0.2497
35689SOL    HW112904   0.532   7.067  11.887 -0.0858  0.4615 -0.2186
35689SOL    HW212905   0.672   7.016  11.914 -0.4256 -1.1593 -1.3692
35690SOL     OW12906   8.060   2.308  11.938 -0.0171  0.2395 -0.4419
35690SOL    HW112907   7.988   2.311  12.000  0.2344 -0.0271 -0.1317
35690SOL    HW212908   8.125   2.369  11.973  0.0362  0.2502 -0.5586
35691SOL     OW12909   6.478   5.730   8.924 -0.5219  0.3223  0.4389
35691SOL    HW112910   6.548   5.667   8.906 -0.0124  1.0514 -0.1628
35691SOL    HW212911   6.458   5.768   8.839 -0.9314  0.8740  0.7762
35692SOL     OW12912  10.553   3.928   6.361  0.1502 -0.8175 -0.2221
35692SOL    HW112913  10.618   3.989   6.327 -0.6634  0.9071  1.1781
35692SOL    HW212914  10.548   3.948   6.455 -2.4535 -0.7979 -0.2928
35693SOL     OW12915   0.321   4.149   1.721 -0.4455  0.0007  0.5137
35693SOL    HW112916   0.261   4.223   1.711  0.8125  0.8189 -1.3774
35693SOL    HW212917   0.406   4.182   1.692  1.3845 -0.6717  4.3973
35694SOL     OW12918   3.200   2.504   6.879 -0.5862 -0.0952  0.2115
35694SOL    HW112919   3.270   2.443   6.857 -0.2440 -0.1383  1.3553
35694SOL    HW212920   3.236   2.590   6.858 -0.2691 -0.1330  0.5951
35695SOL     OW12921  11.842  11.534   3.452  0.2691 -0.0889 -0.6847
35695SOL    HW112922  11.922  11.535   3.399  0.7741  0.9221  0.0628
35695SOL    HW212923  11.776  11.578   3.398  0.5985  0.3131 -0.7646
35696SOL     OW12924   0.591   7.772   4.185 -0.5884 -0.5626 -0.2085
35696SOL    HW112925   0.524   7.838   4.167 -0.8885  0.2007  3.1106
35696SOL    HW212926   0.545   7.688   4.176 -1.0827 -0.2087 -1.1470
35697SOL     OW12927   9.753   0.572   1.923  0.2951 -0.0402 -0.3443
35697SOL    HW112928   9.820   0.576   1.991 -0.5093 -0.7658  0.5242
35697SOL    HW212929   9.756   0.658   1.881 -0.6127  1.2353  2.0220
35698SOL     OW12930   0.133  10.511   0.770  0.3660 -0.2200  0.1559
35698SOL    HW112931   0.101  10.498   0.681  1.7838 -0.1843 -0.3832
35698SOL    HW212932   0.070  10.572   0.809 -1.1118 -1.3703 -0.3085
35699SOL     OW12933  12.322   5.232   3.276  0.9542  0.0440  0.0799
35699SOL    HW112934  12.407   5.188   3.271  1.4193  0.7757  1.1168
35699SOL    HW212935  12.323   5.295   3.204  0.7634 -0.7984 -0.6798
35700SOL     OW12936  11.135  10.356   2.445  0.2411 -0.2308  0.1419
35700SOL    HW112937  11.107  10.417   2.513 -1.4785  2.1051 -2.4800
35700SOL    HW212938  11.058  10.302   2.428  0.2433  0.0418 -0.7770
35701SOL     OW12939   2.269  12.285  12.198 -0.3404  0.1063  0.0892
35701SOL    HW112940   2.270  12.223  12.126  2.4491 -0.5537  0.5996
35701SOL    HW212941   2.187  12.267  12.244 -1.3436 -0.6288 -1.8847
35702SOL     OW12942   6.712   4.351  11.145 -0.0837 -0.5789 -0.2082
35702SOL    HW112943   6.690   4.277  11.203 -0.4046 -0.3081  0.0152
35702SOL    HW212944   6.633   4.367  11.095  0.2809 -1.0013 -0.9467
35703SOL     OW12945   1.788   4.677   2.205 -0.3888  0.2387 -0.3611
35703SOL    HW112946   1.806   4.768   2.226  0.0160  0.0059  0.3689
35703SOL    HW212947   1.709   4.679   2.152 -1.2486  0.9073  0.9037
35704SOL     OW12948   3.013   9.727  11.768  0.6281 -0.0005 -0.5108
35704SOL    HW112949   3.043   9.818  11.777  0.0763  0.3474 -1.9142
35704SOL    HW212950   3.048   9.683  11.845  1.6376  1.2100 -0.2371
35705SOL     OW12951   9.999  11.006   1.796 -0.4490 -0.0620  0.3094
35705SOL    HW112952   9.933  11.016   1.864 -0.7299 -0.9688  0.1799
35705SOL    HW212953  10.036  10.919   1.811  1.1098  0.6320  0.7100
35706SOL     OW12954   0.515  11.246   4.828  0.1739 -0.4025 -0.0513
35706SOL    HW112955   0.528  11.157   4.794 -0.6991 -0.2805 -0.7449
35706SOL    HW212956   0.597  11.292   4.809 -0.5730 -0.0741 -2.8857
35707SOL     OW12957   8.268   6.501   5.562 -0.5069 -0.0419  0.8653
35707SOL    HW112958   8.294   6.439   5.630  0.4318 -0.5453  0.0726
35707SOL    HW212959   8.288   6.456   5.480  0.1399  1.2813  0.2687
35708SOL     OW12960   5.791   0.254   9.132  0.2710  0.2455 -0.0966
35708SOL    HW112961   5.738   0.214   9.201 -0.6707 -0.8876 -1.4276
35708SOL    HW212962   5.881   0.246   9.163 -0.1502  0.0840  1.1467
35709SOL     OW12963   7.493   3.199   2.435 -0.3343 -0.3127 -0.2437
35709SOL    HW112964   7.481   3.140   2.509 -0.2614 -0.7905 -0.6099
35709SOL    HW212965   7.575   3.170   2.394  0.5005  0.9887  0.4484
35710SOL     OW12966  10.232   8.914  11.129  0.2464 -0.1337  0.0532
35710SOL    HW112967  10.199   8.829  11.158 -0.7493  0.2737  0.1369
35710SOL    HW212968  10.315   8.924  11.176 -0.5153 -0.2394  1.4959
35711SOL     OW12969   6.353   1.691   9.960 -0.6800  0.2169 -0.7864
35711SOL    HW112970   6.289   1.741  10.011 -0.7671  1.0973 -1.7046
35711SOL    HW212971   6.347   1.602   9.994 -1.0188  0.6834  0.4433
35712SOL     OW12972   9.826   1.606   5.526  0.3128  0.3294 -0.3301
35712SOL    HW112973   9.896   1.557   5.570  1.4025  0.8919 -1.3785
35712SOL    HW212974   9.788   1.661   5.595 -0.5068 -1.4862  0.7173
35713SOL     OW12975   6.356  10.245   8.447 -0.4036  0.3501  0.1909
35713SOL    HW112976   6.325  10.175   8.504 -0.0624 -0.9716 -1.1926
35713SOL    HW212977   6.283  10.261   8.386 -0.9734  2.1204  1.2426
35714SOL     OW12978   1.413   7.358   7.574 -0.4980  0.0518  0.1778
35714SOL    HW112979   1.318   7.367   7.582 -0.8020 -1.6794 -0.8738
35714SOL    HW212980   1.439   7.428   7.515 -1.2298  0.0826 -0.1259
35715SOL     OW12981   9.942   3.892  12.134  0.6628 -0.2187 -0.2987
35715SOL    HW112982   9.990   3.829  12.187  0.9266 -0.1662 -0.4743
35715SOL    HW212983  10.010   3.948  12.096  0.3770  0.8885  0.7609
35716SOL     OW12984   9.626  12.302  11.565 -0.2885  0.0515 -0.1967
35716SOL    HW112985   9.605  12.302  11.471 -2.2173  0.0280  0.1922
35716SOL    HW212986   9.685  12.377  11.576 -1.0312  0.8267 -1.2319
35717SOL     OW12987   4.029   2.458  11.598  0.2762 -0.0962  0.3927
35717SOL    HW112988   3.947   2.415  11.573 -0.0746  0.6333  0.2788
35717SOL    HW212989   4.097   2.398  11.566 -0.1499  0.6063 -2.0633
35718SOL     OW12990   7.987   8.051   1.882 -0.0637  0.0029  0.4966
35718SOL    HW112991   7.994   8.084   1.792 -1.4878  0.6999  0.6157
35718SOL    HW212992   8.071   8.009   1.899  1.1234  1.9254 -0.3444
35719SOL     OW12993   3.627   3.328   7.562 -0.2741 -0.2888  0.3712
35719SOL    HW112994   3.645   3.274   7.639 -0.9456 -1.5635 -0.3301
35719SOL    HW212995   3.700   3.309   7.503  0.0056  0.3479  0.5020
35720SOL     OW12996   1.402   5.549   0.899  0.2323  0.1869  0.5508
35720SOL    HW112997   1.436   5.497   0.972 -0.1470  0.2382  0.7676
35720SOL    HW212998   1.448   5.516   0.822 -0.0077 -0.4830  0.6836
35721SOL     OW12999   5.635   3.983   0.231 -0.2991  0.7443  0.4326
35721SOL    HW113000   5.663   4.002   0.320  1.3187 -1.1285  0.3879
35721SOL    HW213001   5.656   4.063   0.182 -0.7887  1.6209  1.5978
35722SOL     OW13002  10.535   9.822   5.076  0.3045 -0.1187  1.1212
35722SOL    HW113003  10.493   9.775   5.147  1.5690 -0.1804  1.8545
35722SOL    HW213004  10.552   9.910   5.111  0.5626 -0.0174  0.7584
35723SOL     OW13005   2.190   8.293  11.332  0.0814  0.3423  0.5938
35723SOL    HW113006   2.276   8.333  11.328  0.0510  0.4366  0.8738
35723SOL    HW213007   2.134   8.359  11.371  0.2074 -0.2604  1.8423
35724SOL     OW13008   7.239   0.205   3.595  0.2124  0.6587 -0.1699
35724SOL    HW113009   7.145   0.196   3.582  0.1587  0.9829 -0.0192
35724SOL    HW213010   7.261   0.292   3.559  0.2269  1.1430  0.9685
35725SOL     OW13011   7.623   4.044   3.150 -0.1518  0.3004  0.1172
35725SOL    HW113012   7.561   4.017   3.217  0.7844 -2.4398  0.0054
35725SOL    HW213013   7.581   4.020   3.067 -0.1653  1.1713 -0.1384
35726SOL     OW13014   6.317  11.689   1.451 -0.5507 -0.1660  0.2220
35726SOL    HW113015   6.299  11.764   1.508 -1.6223 -1.9538  2.4380
35726SOL    HW213016   6.393  11.715   1.400 -0.4195  2.1274  1.4494
35727SOL     OW13017   6.762   3.385   7.443  0.9143 -0.4776 -0.5030
35727SOL    HW113018   6.730   3.330   7.372  0.1431  0.1468 -0.6457
35727SOL    HW213019   6.845   3.420   7.411  0.2047  0.4130 -1.4275
35728SOL     OW13020   5.077   4.953   5.624  0.4704  0.2382  0.1847
35728SOL    HW113021   5.146   4.991   5.571  0.8958 -1.2885 -0.4123
35728SOL    HW213022   5.003   4.943   5.564  0.2780  0.3490  0.4010
35729SOL     OW13023   4.953   2.513  11.185 -0.2023  0.0089 -0.7079
35729SOL    HW113024   4.878   2.497  11.128 -1.7833  0.3790  1.1988
35729SOL    HW213025   4.957   2.608  11.194 -0.9070 -0.0857  0.9324
35730SOL     OW13026   8.518   7.570  11.547  0.0311  0.8168  0.1108
35730SOL    HW113027   8.481   7.627  11.614  0.0348  1.7535 -0.6506
35730SOL    HW213028   8.608   7.601  11.536 -0.0505  0.8580 -0.5024
35731SOL     OW13029   3.753   8.206   5.273  0.1819  0.3702 -0.0392
35731SOL    HW113030   3.732   8.133   5.331  1.4292  0.5697  0.7146
35731SOL    HW213031   3.815   8.259   5.324 -0.2927  1.6732 -0.7663
35732SOL     OW13032   3.076   6.153   4.205 -0.4726 -0.4440  0.3326
35732SOL    HW113033   3.106   6.062   4.204 -0.4534 -0.4473  0.7196
35732SOL    HW213034   3.142   6.201   4.156 -0.6629 -0.6909 -0.1673
35733SOL     OW13035   8.615   4.948   1.837 -0.4448 -0.8522  0.4605
35733SOL    HW113036   8.701   4.987   1.826 -0.5858 -0.9369 -1.1309
35733SOL    HW213037   8.607   4.934   1.931  1.2515 -0.8063  0.6347
35734SOL     OW13038  11.470  12.165   7.180  0.2758  0.2296  0.4613
35734SOL    HW113039  11.418  12.134   7.254  1.4333 -0.1188  1.1568
35734SOL    HW213040  11.506  12.085   7.142  0.7376  0.4988  0.3298
35735SOL     OW13041   8.290   7.377   9.118  0.5620  0.3570 -0.4553
35735SOL    HW113042   8.339   7.295   9.123  0.5109  0.1646 -2.3747
35735SOL    HW213043   8.214   7.363   9.175  0.8132 -0.7392 -0.3760
35736SOL     OW13044   8.164   9.420   3.469 -0.2683 -0.4420  0.3159
35736SOL    HW113045   8.237   9.479   3.484 -0.0318 -1.1920  2.4377
35736SOL    HW213046   8.097   9.448   3.530 -1.9563  0.4330 -1.8053
35737SOL     OW13047  12.007   6.979   6.638 -0.2438  0.3327 -0.1629
35737SOL    HW113048  11.947   6.958   6.567 -0.5024  1.4442 -0.2905
35737SOL    HW213049  12.081   7.022   6.595 -0.7233  1.6620  0.2901
35738SOL     OW13050  11.232  10.668   7.472  0.1022  0.0332 -0.1261
35738SOL    HW113051  11.286  10.589   7.470 -1.4304 -1.0300 -0.6428
35738SOL    HW213052  11.226  10.690   7.565  1.5230  0.2663 -0.0651
35739SOL     OW13053   6.531  11.926   4.197  0.3825  0.4751  0.1747
35739SOL    HW113054   6.608  11.959   4.244  0.5817  0.6762 -0.2788
35739SOL    HW213055   6.483  11.875   4.262  0.1920  1.4621  0.8414
35740SOL     OW13056   5.285   0.863   9.550  0.2753 -0.0114  0.3331
35740SOL    HW113057   5.365   0.833   9.506  1.9249  2.6029  1.2808
35740SOL    HW213058   5.221   0.875   9.480  0.6672 -2.1683 -0.4482
35741SOL     OW13059   2.469   4.960   3.544  0.7260  0.0403  0.6150
35741SOL    HW113060   2.502   4.935   3.630 -0.1859 -0.4941  0.8282
35741SOL    HW213061   2.476   5.056   3.542 -0.7725  0.2273  1.9677
35742SOL     OW13062   1.220   4.671   8.793 -0.3427 -0.2112  0.0422
35742SOL    HW113063   1.132   4.634   8.791 -0.2799 -0.4305  1.0583
35742SOL    HW213064   1.271   4.612   8.848 -0.0782  0.9956  1.1508
35743SOL     OW13065   1.723   6.322   1.754 -0.1742  0.2682 -0.0820
35743SOL    HW113066   1.736   6.265   1.830  2.2115  3.2004  1.9310
35743SOL    HW213067   1.698   6.407   1.791 -2.6417  0.9467 -2.8760
35744SOL     OW13068   5.245  11.977   6.765  0.1251 -0.1438 -0.2402
35744SOL    HW113069   5.151  11.993   6.757  0.1907 -0.0692 -0.8850
35744SOL    HW213070   5.261  11.898   6.714  0.0735 -1.4306  1.6136
35745SOL     OW13071   0.271   9.128   2.625  0.1016  0.0456  0.3352
35745SOL    HW113072   0.315   9.081   2.697  0.6677  0.4750  0.2809
35745SOL    HW213073   0.179   9.130   2.650 -0.0746 -1.7535 -0.0205
35746SOL     OW13074   2.794   9.492   4.175 -0.2407  0.0546 -0.1354
35746SOL    HW113075   2.786   9.511   4.269 -1.5355 -1.7180  0.1660
35746SOL    HW213076   2.887   9.505   4.156  0.0193  0.6136  1.3570
35747SOL     OW13077  11.700   2.622   3.190  0.8375  0.0788 -0.5904
35747SOL    HW113078  11.687   2.641   3.097  0.0312 -3.2041 -1.2923
35747SOL    HW213079  11.620   2.655   3.233 -0.6256 -1.7745 -1.7402
35748SOL     OW13080   6.549   2.195   1.762  0.3446  0.2275  0.1935
35748SOL    HW113081   6.506   2.190   1.848 -0.1299 -0.3353 -0.0730
35748SOL    HW213082   6.492   2.145   1.704  0.7435  0.4848 -0.4227
35749SOL     OW13083  11.594   9.538  10.709 -0.1853 -0.0565 -0.0490
35749SOL    HW113084  11.629   9.626  10.693  1.0611 -0.8594 -2.2120
35749SOL    HW213085  11.526   9.551  10.775  0.2985  2.4479  0.0718
35750SOL     OW13086   1.037   1.574   0.992  0.4401 -0.0903  0.3391
35750SOL    HW113087   1.022   1.574   1.086  0.4476  0.5197  0.3434
35750SOL    HW213088   0.988   1.650   0.959 -2.0035 -1.8987 -0.5556
35751SOL     OW13089   4.681   4.862   8.054 -0.3839  0.5110 -0.4554
35751SOL    HW113090   4.641   4.834   7.971 -1.8511  1.7073 -0.2071
35751SOL    HW213091   4.656   4.954   8.061 -0.6701  0.3133  1.5297
35752SOL     OW13092   0.692   4.972   7.879 -0.0507 -0.6591 -0.4013
35752SOL    HW113093   0.685   4.975   7.975  0.7512  1.1212 -0.3633
35752SOL    HW213094   0.653   4.888   7.855  1.2160 -1.9338  1.6289
35753SOL     OW13095   8.138   5.104   4.554  0.5730 -0.4182 -0.0817
35753SOL    HW113096   8.162   5.174   4.494 -3.4135  1.2797 -0.0189
35753SOL    HW213097   8.167   5.136   4.640 -0.4335  0.8525 -0.1741
35754SOL     OW13098   8.763   6.943   6.038 -0.4522 -0.2228  0.2015
35754SOL    HW113099   8.788   6.853   6.061 -1.1942 -0.1584  1.3161
35754SOL    HW213100   8.847   6.989   6.029 -0.0330 -1.2521 -1.4175
35755SOL     OW13101   0.591   0.020  11.022  0.3335  0.7235 -0.3006
35755SOL    HW113102   0.570  -0.019  11.106 -0.8374 -0.0026 -0.8926
35755SOL    HW213103   0.562   0.111  11.030 -1.5086  0.2079 -0.4751
35756SOL     OW13104  10.112   6.415   0.857  0.0831 -0.0984 -0.7267
35756SOL    HW113105  10.072   6.488   0.903 -0.5604 -0.3097 -0.9346
35756SOL    HW213106  10.041   6.351   0.847  0.2646 -0.1656 -1.7669
35757SOL     OW13107   1.268   2.594   4.553  0.2215  0.5220  0.0915
35757SOL    HW113108   1.234   2.644   4.479 -0.8500  0.5971  0.6039
35757SOL    HW213109   1.221   2.510   4.548 -0.6881  0.9319  1.2910
35758SOL     OW13110   0.766   4.008   2.295 -0.2175 -0.9214 -0.1756
35758SOL    HW113111   0.732   4.068   2.362  1.1907 -0.7415  0.4111
35758SOL    HW213112   0.781   4.062   2.218 -0.3697 -0.8169 -0.1310
35759SOL     OW13113  11.046  10.236   0.699  0.6895 -0.0619 -0.5537
35759SOL    HW113114  11.066  10.153   0.742  1.7794  0.3044 -0.3416
35759SOL    HW213115  11.006  10.290   0.767 -2.5822 -1.2718 -1.3005
35760SOL     OW13116   8.541   2.820   3.960 -0.1093  0.0136 -0.3149
35760SOL    HW113117   8.580   2.735   3.939 -0.5355 -0.4512  0.7104
35760SOL    HW213118   8.505   2.851   3.877 -2.2363 -2.0046 -0.2427
35761SOL     OW13119   7.651   7.503  10.378  0.4774  0.2731  0.0374
35761SOL    HW113120   7.569   7.543  10.350 -0.2317 -0.7267  0.5986
35761SOL    HW213121   7.676   7.447  10.304 -0.0808 -0.4708  0.4051
35762SOL     OW13122   6.594   7.709   5.851 -0.2698 -0.5868  0.5626
35762SOL    HW113123   6.615   7.746   5.936 -0.2882  0.8581 -0.0259
35762SOL    HW213124   6.499   7.717   5.844 -0.0597  1.5535 -0.5351
35763SOL     OW13125   0.383  10.948   2.005  0.1319  0.0045  0.3168
35763SOL    HW113126   0.371  11.037   2.039 -0.6095 -0.7719  2.2255
35763SOL    HW213127   0.294  10.918   1.984  0.3832 -0.2804 -0.3862
35764SOL     OW13128  10.887   3.281   0.625 -0.4557 -0.2781 -0.4028
35764SOL    HW113129  10.923   3.250   0.708 -0.4803 -0.2778 -0.3921
35764SOL    HW213130  10.859   3.370   0.643  1.1358  0.3436 -0.8704
35765SOL     OW13131   4.101   3.408   5.828  0.1156  0.2275 -0.5202
35765SOL    HW113132   4.153   3.487   5.844 -2.1481  1.8326 -0.6184
35765SOL    HW213133   4.074   3.379   5.915  0.5675 -0.2034 -0.5162
35766SOL     OW13134   5.359  10.943   7.282  0.7129  0.2691 -0.0220
35766SOL    HW113135   5.432  10.996   7.250  0.0720  1.2677  0.1154
35766SOL    HW213136   5.286  11.005   7.290 -0.2647 -0.7827 -0.5273
35767SOL     OW13137   8.196  11.794   2.971 -0.0119 -0.2141 -0.3820
35767SOL    HW113138   8.126  11.730   2.981 -0.4267  0.2533 -0.2082
35767SOL    HW213139   8.150  11.876   2.949  0.1665  0.9285  2.9464
35768SOL     OW13140   7.746  11.236   8.685  0.3403  0.2305  0.1570
35768SOL    HW113141   7.792  11.290   8.750  0.0136 -1.2890  1.7284
35768SOL    HW213142   7.770  11.146   8.708 -1.0561 -0.4283 -0.8510
35769SOL     OW13143   8.589   3.070   5.816 -0.5186 -0.1113 -0.2648
35769SOL    HW113144   8.641   3.143   5.850  0.3864 -1.3438  1.1304
35769SOL    HW213145   8.610   3.068   5.722  0.9393  0.2565  0.0251
35770SOL     OW13146  10.580   2.635  10.548  0.0778 -0.0989  0.5614
35770SOL    HW113147  10.655   2.694  10.538  0.4136 -0.3474  1.5415
35770SOL    HW213148  10.600   2.561  10.490  0.5479 -0.1166  0.7417
35771SOL     OW13149   4.775   1.068   5.203 -0.1356  0.0142 -0.4756
35771SOL    HW113150   4.765   1.114   5.120  0.7099 -1.7323 -1.5908
35771SOL    HW213151   4.687   1.068   5.241 -0.6427  0.3650 -1.6164
35772SOL     OW13152   9.674   3.494   5.147 -0.3451 -0.1968 -0.2062
35772SOL    HW113153   9.701   3.446   5.225  0.7864  0.3002 -0.2645
35772SOL    HW213154   9.730   3.460   5.077 -0.2755  0.4420 -0.4679
35773SOL     OW13155   7.379   7.615  10.317  0.4190  0.1972 -0.9645
35773SOL    HW113156   7.325   7.587  10.391  1.3125  0.6126 -0.1324
35773SOL    HW213157   7.328   7.592  10.240  0.3746 -2.1420 -0.2890
35774SOL     OW13158   4.520   4.919   5.713 -0.1810  0.0851  0.5059
35774SOL    HW113159   4.459   4.984   5.677  1.0672  2.0066  1.6833
35774SOL    HW213160   4.485   4.899   5.800  0.0616  0.0437  0.5946
35775SOL     OW13161   4.474   9.217   1.039 -0.2850 -0.1715  0.2037
35775SOL    HW113162   4.561   9.239   1.007  0.5932 -1.4077  1.6275
35775SOL    HW213163   4.439   9.299   1.074 -0.0062  0.4929 -1.0273
35776SOL     OW13164   0.577   1.140  12.109  0.4458 -0.3085 -0.0016
35776SOL    HW113165   0.566   1.233  12.128 -0.7608  0.0137 -1.9135
35776SOL    HW213166   0.649   1.137  12.046 -0.9137 -0.3511 -1.6409
35777SOL     OW13167   5.580   9.145   6.423  0.1333 -0.1655 -0.8796
35777SOL    HW113168   5.572   9.155   6.329 -1.4779  1.4834 -0.6253
35777SOL    HW213169   5.499   9.181   6.458  0.2133 -1.7296  1.1009
35778SOL     OW13170  10.233   1.093   1.298  0.5384 -0.0702 -0.1649
35778SOL    HW113171  10.165   1.026   1.289 -0.4918  1.1440 -2.0663
35778SOL    HW213172  10.292   1.058   1.364 -0.6142 -2.2940 -0.2124
35779SOL     OW13173   8.495   5.819   4.768  0.4427  0.0749 -0.3523
35779SOL    HW113174   8.546   5.884   4.817  0.0394 -0.8087  1.2992
35779SOL    HW213175   8.427   5.870   4.724  0.5013  0.8481  0.4227
35780SOL     OW13176   9.881   9.736   3.234  0.4210  0.7847 -0.2706
35780SOL    HW113177   9.972   9.718   3.258 -0.1051  0.5823  1.7715
35780SOL    HW213178   9.831   9.666   3.277 -0.6253 -0.0307 -2.6288
35781SOL     OW13179   4.529   2.975   9.902  0.5836  0.2492  0.7762
35781SOL    HW113180   4.570   2.890   9.889  0.8770  0.3463  1.0425
35781SOL    HW213181   4.466   2.961   9.973  2.0838  0.7058  2.2569
35782SOL     OW13182   3.533   1.889   1.665 -0.5565  0.2023 -0.1996
35782SOL    HW113183   3.571   1.962   1.616 -1.6859  0.8036 -0.2333
35782SOL    HW213184   3.594   1.874   1.737 -1.0771  2.3282  0.7905
35783SOL     OW13185   7.302   3.189  11.221  0.6240  0.3854  0.6401
35783SOL    HW113186   7.337   3.227  11.301 -0.6441 -0.7528  1.7814
35783SOL    HW213187   7.207   3.186  11.234  0.5350 -1.6867 -0.0110
35784SOL     OW13188   1.716   7.329   9.139 -0.2040 -0.1757  0.0779
35784SOL    HW113189   1.627   7.354   9.116 -0.4659 -0.5259  0.6852
35784SOL    HW213190   1.708   7.241   9.174  0.5596 -0.7153 -1.0299
35785SOL     OW13191   9.615   5.045   4.249 -0.0664  0.2449 -0.2939
35785SOL    HW113192   9.698   5.088   4.226  0.9003 -0.9152  0.8270
35785SOL    HW213193   9.610   4.970   4.189 -1.4260  1.4890 -1.8138
35786SOL     OW13194  11.035   1.294   8.351  0.7585  0.2656 -0.5232
35786SOL    HW113195  10.946   1.285   8.384  0.3233  0.9904 -1.4572
35786SOL    HW213196  11.044   1.387   8.331  1.6973  0.1847 -0.5280
35787SOL     OW13197   6.326  11.154   6.973  0.8207  0.1028  0.0188
35787SOL    HW113198   6.358  11.094   6.906  0.0631 -0.6704  0.3377
35787SOL    HW213199   6.364  11.121   7.054  0.4883  0.1119  0.1800
35788SOL     OW13200  10.173   1.477  10.797 -0.0823 -0.3342 -0.3258
35788SOL    HW113201  10.177   1.567  10.829 -0.3733 -0.9125  1.4762
35788SOL    HW213202  10.133   1.428  10.869 -0.7874 -1.7591 -1.6119
35789SOL     OW13203   2.811  10.403   4.011  0.0304  0.1582 -0.2950
35789SOL    HW113204   2.838  10.332   3.953  0.7128  0.4334 -0.3225
35789SOL    HW213205   2.748  10.453   3.960  0.4089  0.2297 -0.6997
35790SOL     OW13206  11.002   3.809   6.603  0.5392  0.1105 -0.1365
35790SOL    HW113207  11.017   3.762   6.685 -0.2565  0.1508  0.0429
35790SOL    HW213208  11.041   3.754   6.536 -1.0463 -1.2331 -0.0201
35791SOL     OW13209  10.202   7.886   4.172 -0.6649  0.5002  0.3299
35791SOL    HW113210  10.189   7.813   4.232  0.9408 -1.5010 -1.5648
35791SOL    HW213211  10.115   7.926   4.164 -1.7249 -1.5000  1.1049
35792SOL     OW13212   3.280   5.568   2.678  0.3718  0.2237  0.2648
35792SOL    HW113213   3.207   5.510   2.657  0.5431 -0.5320  1.6206
35792SOL    HW213214   3.241   5.655   2.683  0.2692  0.4345 -2.6731
35793SOL     OW13215   8.256   5.841   0.780  0.3170 -0.1597 -0.1677
35793SOL    HW113216   8.191   5.778   0.811 -1.6179  1.7003 -0.2684
35793SOL    HW213217   8.298   5.873   0.860 -1.3513  1.1413  0.2371
35794SOL     OW13218   9.854  10.468   9.977  0.3332 -0.4094  0.5289
35794SOL    HW113219   9.774  10.506  10.011  0.3889  0.7355 -0.5494
35794SOL    HW213220   9.918  10.479  10.047 -0.0555  0.1045  0.8033
35795SOL     OW13221   3.341   4.627   5.135  0.6535 -0.6825  0.7232
35795SOL    HW113222   3.393   4.584   5.203  1.4872  0.0827  0.5898
35795SOL    HW213223   3.304   4.703   5.179  1.6170  0.0999  0.2023
35796SOL     OW13224   5.276  10.284   5.485  0.2082 -0.2416 -0.4139
35796SOL    HW113225   5.321  10.365   5.462 -0.8828 -0.1772 -2.4943
35796SOL    HW213226   5.334  10.214   5.455 -0.0995 -0.1867 -1.1418
35797SOL     OW13227   7.417   9.974   4.017  0.3146 -0.0035  0.3446
35797SOL    HW113228   7.410   9.951   4.110  0.6671 -0.6543  0.2095
35797SOL    HW213229   7.511   9.975   4.000  0.2200 -0.8249 -0.2440
35798SOL     OW13230   9.883   6.594   7.124  0.2767  0.0149  0.0001
35798SOL    HW113231   9.928   6.673   7.095  0.3104  0.1733  0.4734
35798SOL    HW213232   9.935   6.563   7.198  0.9305 -1.1117 -0.9087
35799SOL     OW13233   5.476   0.443  10.837 -0.1571  0.0632  0.3069
35799SOL    HW113234   5.423   0.389  10.896  0.9966  0.5387  1.8436
35799SOL    HW213235   5.550   0.387  10.814  1.1554  0.9682  2.0737
35800SOL     OW13236  12.060  11.204   4.318  0.7556 -0.2600  0.9580
35800SOL    HW113237  12.135  11.230   4.265 -0.1330  0.0279 -0.2136
35800SOL    HW213238  12.070  11.109   4.329  0.2108 -0.6018 -1.0405
35801SOL     OW13239   9.284   8.189   4.965 -0.0829 -0.3112 -0.1519
35801SOL    HW113240   9.238   8.250   5.022 -0.3228  0.1685 -0.8500
35801SOL    HW213241   9.348   8.243   4.918 -1.3659 -0.2740 -1.9452
35802SOL     OW13242  10.632   8.678   9.506  0.0925 -0.2433  0.3427
35802SOL    HW113243  10.693   8.750   9.490 -1.9717  1.1822 -1.6434
35802SOL    HW213244  10.684   8.599   9.491  2.2731  0.7462  2.0684
35803SOL     OW13245   0.866   9.865   2.952 -0.6703 -0.1741 -0.5281
35803SOL    HW113246   0.958   9.859   2.930  0.3289  2.7291  2.0720
35803SOL    HW213247   0.850   9.792   3.012  0.2789 -0.0041 -0.0626
35804SOL     OW13248   2.242   8.358   4.739  0.0045  0.3332 -0.1760
35804SOL    HW113249   2.324   8.368   4.690 -1.4217  3.8199 -2.2187
35804SOL    HW213250   2.202   8.279   4.703  1.7498 -0.6281 -0.1499
35805SOL     OW13251  12.248   8.016   8.976  0.1790  0.3168 -0.1436
35805SOL    HW113252  12.180   8.044   9.037 -0.8967 -0.2944 -1.0275
35805SOL    HW213253  12.327   8.060   9.007 -0.8733  2.1408  0.1124
35806SOL     OW13254  11.194   7.703   6.224  0.1471 -0.3423 -0.1010
35806SOL    HW113255  11.280   7.736   6.198 -0.6144  2.3559  0.5073
35806SOL    HW213256  11.132   7.763   6.183 -1.4915 -2.2596 -0.5738
35807SOL     OW13257   1.048   4.531  11.335 -0.6987 -0.1094  0.4506
35807SOL    HW113258   0.970   4.528  11.390  0.0831  1.0904  1.6893
35807SOL    HW213259   1.062   4.441  11.307 -0.4801 -1.0335  3.2000
35808SOL     OW13260   9.114   7.105   1.602  0.0218 -0.0263 -0.0693
35808SOL    HW113261   9.204   7.073   1.609  0.4056  0.8692 -0.5432
35808SOL    HW213262   9.106   7.131   1.510 -0.9460 -0.7063 -0.1884
35809SOL     OW13263   0.274   9.759   3.018 -0.1733 -0.4961 -0.2622
35809SOL    HW113264   0.213   9.814   3.066 -1.9574 -0.0796 -2.7835
35809SOL    HW213265   0.257   9.670   3.049 -0.3207 -0.1230  0.7580
35810SOL     OW13266   9.818   8.672   2.407 -0.5709  0.1494  0.0766
35810SOL    HW113267   9.840   8.624   2.487 -1.8835 -1.0933 -0.2700
35810SOL    HW213268   9.900   8.675   2.358 -0.1350 -0.5327  0.7355
35811SOL     OW13269   8.704  11.688  10.879  0.2896 -0.2027 -0.3485
35811SOL    HW113270   8.706  11.740  10.959  0.1342  0.6823 -0.9049
35811SOL    HW213271   8.726  11.599  10.907  0.3130  0.1126  0.6571
35812SOL     OW13272   7.375   2.845   6.513 -0.4318 -0.5711  0.1104
35812SOL    HW113273   7.467   2.834   6.537 -0.6227 -0.7826  0.7590
35812SOL    HW213274   7.330   2.864   6.595 -1.3665 -3.0024  0.2432
35813SOL     OW13275  11.956   1.216   2.197 -0.1933  0.5028 -0.0329
35813SOL    HW113276  11.877   1.262   2.169 -1.0571 -1.0774 -0.2942
35813SOL    HW213277  11.953   1.133   2.150  0.2104 -0.7185  1.9784
35814SOL     OW13278   4.409   1.924   3.005  0.0239  0.3771  0.4718
35814SOL    HW113279   4.502   1.920   3.025 -0.3178 -1.2782  2.0131
35814SOL    HW213280   4.401   1.993   2.939  2.1078  1.7047  1.5166
35815SOL     OW13281   3.000   7.142   8.196 -0.5390  0.5289  0.2287
35815SOL    HW113282   2.936   7.178   8.257  0.1553  0.0576  1.2903
35815SOL    HW213283   2.971   7.052   8.181  0.2411  0.0534  1.3361
35816SOL     OW13284   7.614   8.538   2.912 -0.0094  0.2253 -0.7549
35816SOL    HW113285   7.562   8.554   2.833 -1.4465 -1.6707 -0.2583
35816SOL    HW213286   7.561   8.571   2.984  0.7139  0.7747 -0.4638
35817SOL     OW13287   7.833   1.739   6.982 -0.3431 -0.1392 -0.7060
35817SOL    HW113288   7.912   1.695   7.012 -0.4510  0.5040  0.5647
35817SOL    HW213289   7.841   1.740   6.886  0.5553 -1.2158 -0.6587
35818SOL     OW13290   8.957   9.098   7.471 -0.1768 -0.3252  0.1310
35818SOL    HW113291   8.915   9.122   7.553 -0.1733 -0.7970  0.2743
35818SOL    HW213292   9.013   9.024   7.493 -1.8694 -1.9487 -0.6903
35819SOL     OW13293   9.432   9.033   0.631  0.3733 -0.3270  0.1504
35819SOL    HW113294   9.479   9.043   0.548  0.3168 -0.3475  0.1151
35819SOL    HW213295   9.340   9.026   0.605  0.4946 -2.1249  0.0584
35820SOL     OW13296   6.354   4.179   3.130 -0.1674 -0.0956  0.2757
35820SOL    HW113297   6.287   4.195   3.196 -0.8347  3.0005 -0.9880
35820SOL    HW213298   6.400   4.101   3.160 -2.6367 -0.7762  2.5493
35821SOL     OW13299   1.087   5.394   9.326  0.0219 -0.6919 -0.0061
35821SOL    HW113300   1.142   5.396   9.247  0.4838 -1.9737  0.2579
35821SOL    HW213301   0.999   5.378   9.293 -0.0076  0.0921 -0.3412
35822SOL     OW13302   1.911  10.436   9.559  0.7046 -0.2320  0.6551
35822SOL    HW113303   1.926  10.341   9.555  1.0561 -0.1591 -0.0002
35822SOL    HW213304   1.921  10.458   9.651 -0.8737 -1.0660  1.0668
35823SOL     OW13305  10.060   3.871   3.635  0.0616  0.1148 -0.0907
35823SOL    HW113306  10.024   3.958   3.615 -0.1917 -0.0524 -0.3695
35823SOL    HW213307  10.154   3.886   3.644 -0.1655  0.7348  1.5900
35824SOL     OW13308  10.189   4.883   8.224 -0.6226  0.0955 -0.0996
35824SOL    HW113309  10.219   4.920   8.141  0.2300  1.2916  0.7145
35824SOL    HW213310  10.161   4.794   8.202  1.5385 -0.3564 -1.3168
35825SOL     OW13311   7.878   7.623   0.880 -0.2691 -0.2862  0.6194
35825SOL    HW113312   7.824   7.585   0.811  1.4694 -0.2608 -0.8151
35825SOL    HW213313   7.818   7.682   0.927 -1.6009 -0.6334 -0.5646
35826SOL     OW13314   6.605   2.031   8.628  0.2408 -0.7527 -0.2352
35826SOL    HW113315   6.600   2.028   8.532  0.7413 -0.3349 -0.2793
35826SOL    HW213316   6.545   1.962   8.657  0.0750 -0.8760 -0.8481
35827SOL     OW13317  11.246   7.571  11.061 -0.6588 -0.3001  0.1543
35827SOL    HW113318  11.208   7.659  11.063 -0.8776 -0.2709 -2.1370
35827SOL    HW213319  11.237   7.539  11.151 -1.8509  1.4732  0.7313
35828SOL     OW13320   9.037  11.289   2.596  0.2720  0.8755  0.0473
35828SOL    HW113321   9.006  11.198   2.603 -0.8782  1.2893  0.5228
35828SOL    HW213322   8.964  11.342   2.628  0.9218  1.9810 -0.2492
35829SOL     OW13323  11.358   4.227   4.729 -0.2523  0.3428 -0.1965
35829SOL    HW113324  11.451   4.236   4.745 -0.5314  0.7606  1.3529
35829SOL    HW213325  11.337   4.137   4.754 -0.5423  0.7421  1.0387
35830SOL     OW13326   3.265   8.675   5.485 -0.4430  0.4180 -0.1795
35830SOL    HW113327   3.219   8.622   5.551 -1.3562  0.8993 -0.4277
35830SOL    HW213328   3.255   8.765   5.515 -0.9723  0.6514 -1.0524
35831SOL     OW13329   5.866   5.519   9.108 -0.1351 -0.0585  0.2119
35831SOL    HW113330   5.896   5.431   9.087 -0.7947 -0.1012 -0.6555
35831SOL    HW213331   5.855   5.561   9.022  1.4672  1.3372  0.6205
35832SOL     OW13332   0.505   9.285   2.517 -0.2996 -0.1095 -0.2112
35832SOL    HW113333   0.521   9.197   2.485  1.5622  0.2902 -0.5107
35832SOL    HW213334   0.546   9.342   2.451  1.5730  0.8189  1.6313
35833SOL     OW13335   4.861   1.818   4.943  0.4519  0.1892 -0.0495
35833SOL    HW113336   4.803   1.892   4.961  0.7576  0.3657  0.2161
35833SOL    HW213337   4.860   1.810   4.847 -0.4066 -0.1347 -0.0284
35834SOL     OW13338   6.320  12.216   2.987 -0.3414 -0.0332  0.5984
35834SOL    HW113339   6.408  12.252   2.995 -0.2822  0.2754 -1.0528
35834SOL    HW213340   6.332  12.121   2.990 -0.1731  0.0118  2.0780
35835SOL     OW13341   0.816   4.283   5.065 -0.1747 -0.0995  0.1408
35835SOL    HW113342   0.857   4.310   5.148  0.7386 -2.2478  0.4668
35835SOL    HW213343   0.738   4.234   5.091 -0.7447  0.5252 -0.3500
35836SOL     OW13344  11.503   6.915   2.822  0.1063  0.0113  0.2857
35836SOL    HW113345  11.544   6.985   2.874 -0.2128  0.6033 -0.2495
35836SOL    HW213346  11.409   6.928   2.834 -0.0043  0.6853 -1.0948
35837SOL     OW13347   5.096   8.688   9.726 -0.0629 -0.3730  0.1974
35837SOL    HW113348   5.073   8.779   9.707  1.0802 -0.0397  0.3309
35837SOL    HW213349   5.014   8.639   9.713 -1.1850  0.9100  1.8782
35838SOL     OW13350   3.213   6.456   1.762 -0.3920  0.2163 -0.0070
35838SOL    HW113351   3.175   6.419   1.682 -0.8464 -1.1793  0.8100
35838SOL    HW213352   3.150   6.432   1.830  1.3235 -1.0643  1.1979
35839SOL     OW13353  11.244   2.765   6.720  0.3422  0.3718 -0.8429
35839SOL    HW113354  11.273   2.675   6.706  2.1695  0.9710 -1.0658
35839SOL    HW213355  11.223   2.797   6.632  1.3138  0.6912 -0.9607
35840SOL     OW13356  10.603   6.884   8.926  0.4589  0.1638 -0.9576
35840SOL    HW113357  10.632   6.894   9.017  0.5468  1.4856 -1.1155
35840SOL    HW213358  10.540   6.812   8.930  1.4885 -0.7381 -0.1010
35841SOL     OW13359  11.891   9.653   9.790  0.0686  0.2445  0.0803
35841SOL    HW113360  11.973   9.604   9.798 -0.9315 -1.4154  0.8191
35841SOL    HW213361  11.912   9.740   9.824  1.2230 -0.5107  1.4342
35842SOL     OW13362   9.644  10.060   0.744  0.9258 -0.1941 -0.2229
35842SOL    HW113363   9.575  10.029   0.802  0.2329  0.8087 -0.4750
35842SOL    HW213364   9.631  10.155   0.740  0.4406 -0.2873 -2.6262
35843SOL     OW13365   6.570   8.025   1.466  0.1473 -1.2218  0.6640
35843SOL    HW113366   6.566   8.094   1.400  0.0066 -0.9530  0.9543
35843SOL    HW213367   6.617   8.064   1.540  0.5406 -1.6048  0.6265
35844SOL     OW13368   3.883   7.770  11.051  0.2104  0.6412  0.3983
35844SOL    HW113369   3.931   7.696  11.015  0.8320  1.0553  0.3615
35844SOL    HW213370   3.805   7.778  10.996 -0.1355 -0.3111  0.7382
35845SOL     OW13371   7.321   7.437   2.990 -0.0618 -0.2326  0.4353
35845SOL    HW113372   7.314   7.358   3.044 -1.6123  0.8904  2.0179
35845SOL    HW213373   7.412   7.437   2.959  0.8209 -1.1509  2.7639
35846SOL     OW13374  11.080   9.267   4.672 -1.0296 -0.2071  0.1642
35846SOL    HW113375  11.175   9.263   4.665 -1.0434 -0.3250  0.0473
35846SOL    HW213376  11.062   9.260   4.766 -1.0102 -1.8314  0.0668
35847SOL     OW13377   6.300   9.620   1.414  0.9993 -0.4087 -0.3165
35847SOL    HW113378   6.350   9.577   1.484  1.8244  0.5021 -0.3280
35847SOL    HW213379   6.209   9.614   1.444  1.1878 -1.3098  0.1302
35848SOL     OW13380   4.746   5.688   5.477  0.1005 -0.2616 -0.3582
35848SOL    HW113381   4.736   5.622   5.546  0.2502 -0.3567 -0.4276
35848SOL    HW213382   4.800   5.756   5.516 -2.1247  1.0798  0.6131
35849SOL     OW13383   2.201  10.799   9.882 -0.0944 -0.0001  0.6429
35849SOL    HW113384   2.147  10.767   9.954 -0.2722 -0.3091  0.3724
35849SOL    HW213385   2.209  10.724   9.823 -0.1051  0.3056  0.2496
35850SOL     OW13386   6.910   2.441   8.803  0.1361 -0.0517 -0.5786
35850SOL    HW113387   7.003   2.426   8.787  0.0275 -0.5105 -0.8144
35850SOL    HW213388   6.867   2.410   8.723 -0.1167  1.4945 -1.0701
35851SOL     OW13389   4.646   1.121   4.936 -0.3531 -0.3690 -0.4995
35851SOL    HW113390   4.585   1.180   4.981  0.1085  1.0989 -1.7117
35851SOL    HW213391   4.714   1.179   4.902 -1.3878 -1.1247 -4.3111
35852SOL     OW13392   7.791   5.905   5.580  0.1019  0.3576 -0.0148
35852SOL    HW113393   7.800   5.922   5.487  2.2730  0.9879  0.2548
35852SOL    HW213394   7.790   5.992   5.621  1.8994  0.0759  0.7097
35853SOL     OW13395   6.796  11.680   9.815 -0.2316 -0.5118 -0.4728
35853SOL    HW113396   6.712  11.661   9.858 -0.8149  1.0935 -0.8382
35853SOL    HW213397   6.794  11.774   9.799  0.8557 -0.7310 -2.1517
35854SOL     OW13398   4.487   4.293  11.340  0.1698 -0.1444  0.4952
35854SOL    HW113399   4.521   4.212  11.303  1.3906 -0.0249  1.3068
35854SOL    HW213400   4.475   4.274  11.433 -1.6414 -0.0449  0.3324
35855SOL     OW13401   9.334   2.142   8.602  0.1908 -0.6974 -0.1821
35855SOL    HW113402   9.292   2.058   8.622  1.5475 -1.4637 -0.3889
35855SOL    HW213403   9.313   2.198   8.677 -2.8842 -0.3306 -1.1975
35856SOL     OW13404  11.550  10.428   6.857 -0.0934 -0.0066 -0.0902
35856SOL    HW113405  11.572  10.509   6.904  1.6053 -0.5566  0.1263
35856SOL    HW213406  11.635  10.389   6.835 -0.8787 -1.4070 -0.7718
35857SOL     OW13407  11.732   0.638   4.443  0.2234 -0.0423 -0.5647
35857SOL    HW113408  11.790   0.616   4.370 -0.2786 -0.7888 -0.7566
35857SOL    HW213409  11.690   0.720   4.416  2.2589  1.3340  0.2326
35858SOL     OW13410  10.771   6.674  11.718 -0.5020 -0.2751  0.1967
35858SOL    HW113411  10.729   6.637  11.641  1.0473  0.3638 -1.0031
35858SOL    HW213412  10.861   6.690  11.692 -0.3834  1.6845  1.5421
35859SOL     OW13413   2.083   1.604   8.874  0.3141  0.1661  0.8707
35859SOL    HW113414   2.027   1.526   8.871 -0.5676  0.7982  0.1185
35859SOL    HW213415   2.047   1.656   8.946 -0.7167  1.0149 -0.2174
35860SOL     OW13416  12.219   1.859   5.551 -0.0180 -0.1329 -0.2983
35860SOL    HW113417  12.235   1.832   5.642 -0.0805  1.9413  0.3817
35860SOL    HW213418  12.291   1.918   5.530 -1.3259  1.4076 -0.6841
35861SOL     OW13419   3.620   9.503   3.360 -1.1024 -0.5930  0.1373
35861SOL    HW113420   3.646   9.496   3.268 -0.1681  1.2638  0.2013
35861SOL    HW213421   3.538   9.552   3.358 -1.0456 -0.4894  0.2745
35862SOL     OW13422   2.417   1.145  12.040 -0.0201 -0.2991 -0.1045
35862SOL    HW113423   2.448   1.060  12.007 -1.0951 -2.4368  3.7113
35862SOL    HW213424   2.496   1.199  12.046  1.0425 -1.6838 -0.9197
35863SOL     OW13425   4.679   6.466   4.593  0.1029  0.3621  0.0926
35863SOL    HW113426   4.611   6.532   4.607 -2.9983 -2.4255 -0.2788
35863SOL    HW213427   4.650   6.391   4.646  1.5654 -1.7989 -1.9225
35864SOL     OW13428  11.422  12.036  10.842  0.2196 -0.2798 -0.4167
35864SOL    HW113429  11.476  12.053  10.766  0.4178 -1.8242 -0.6461
35864SOL    HW213430  11.363  12.112  10.847 -0.9541 -0.8986 -3.1203
35865SOL     OW13431   2.759   2.933   8.214 -0.2201  0.1550  0.4819
35865SOL    HW113432   2.715   2.857   8.176  2.0312 -1.2048  0.3747
35865SOL    HW213433   2.738   2.930   8.307 -1.4271  0.3661  0.2302
35866SOL     OW13434  11.654   6.490   3.903 -0.5731  0.0050 -0.5618
35866SOL    HW113435  11.588   6.434   3.945 -1.3106  1.9011  0.9518
35866SOL    HW213436  11.737   6.447   3.921 -1.0169 -0.0977  1.4989
35867SOL     OW13437  11.467   7.174   3.929 -0.5100  0.2622 -0.0267
35867SOL    HW113438  11.446   7.108   3.996 -3.4224 -0.9804 -1.9662
35867SOL    HW213439  11.505   7.123   3.857  1.2795  1.3903  0.0516
35868SOL     OW13440   1.266   2.094   5.330  0.7162  0.0274  0.3125
35868SOL    HW113441   1.220   2.013   5.308 -0.7241 -0.1454  3.4202
35868SOL    HW213442   1.255   2.149   5.252 -0.5127 -1.8217 -0.9108
35869SOL     OW13443   1.205   9.433   5.186 -0.3323 -0.3461  0.2888
35869SOL    HW113444   1.269   9.372   5.151  0.0378  0.6394 -0.8292
35869SOL    HW213445   1.257   9.493   5.240 -0.4456 -0.0928  0.1182
35870SOL     OW13446   6.434   3.518   1.806 -0.0999 -0.9741 -0.6645
35870SOL    HW113447   6.464   3.582   1.740  2.1748 -2.0621 -0.7661
35870SOL    HW213448   6.512   3.499   1.858 -1.2928 -1.9688  0.8316
35871SOL     OW13449   0.194   8.834   3.862  0.0459  0.7300 -0.1614
35871SOL    HW113450   0.254   8.833   3.936 -0.0501 -0.5758 -0.0824
35871SOL    HW213451   0.251   8.840   3.785  0.3269 -0.7960 -0.1013
35872SOL     OW13452   0.837  10.943   1.637 -0.0147 -0.0813  0.2381
35872SOL    HW113453   0.890  10.923   1.560  0.1116  0.8439  0.0723
35872SOL    HW213454   0.897  10.986   1.697 -0.3690  0.1930  0.4030
35873SOL     OW13455   0.382   9.094   6.043 -0.5578 -0.0126  0.2235
35873SOL    HW113456   0.369   9.000   6.043 -0.1012 -0.0781 -0.0122
35873SOL    HW213457   0.398   9.116   5.951  0.7031  0.0966  0.4571
35874SOL     OW13458   2.544   1.873   1.392 -0.2788  0.0821 -0.4020
35874SOL    HW113459   2.626   1.825   1.383  0.1130  0.6299  0.1304
35874SOL    HW213460   2.496   1.825   1.459 -0.8228 -0.8023 -1.4051
35875SOL     OW13461   4.641   8.915  11.009  0.0968 -0.3077 -0.3836
35875SOL    HW113462   4.697   8.844  10.979 -1.0494 -1.8132  0.8882
35875SOL    HW213463   4.567   8.872  11.052  0.2228  1.6605  2.0516
35876SOL     OW13464   2.740   2.309   7.103 -0.2224 -0.3329 -0.3685
35876SOL    HW113465   2.769   2.371   7.036  1.5558 -1.6456 -0.9265
35876SOL    HW213466   2.817   2.298   7.159 -1.1260 -0.5879  0.8389
35877SOL     OW13467   9.899   8.349  10.997  0.2319  0.6493  0.1800
35877SOL    HW113468   9.935   8.428  10.957 -0.0025  0.8727  0.4059
35877SOL    HW213469   9.940   8.277  10.949  2.1844  0.8407  1.4256
35878SOL     OW13470   0.922   2.273  11.762 -0.7068  0.3780 -0.1130
35878SOL    HW113471   0.912   2.204  11.696  1.7339  0.5880 -0.7943
35878SOL    HW213472   0.967   2.344  11.717  1.1587  0.4850  1.7682
35879SOL     OW13473   8.787   6.836   6.417  0.1520  0.0099  0.3034
35879SOL    HW113474   8.811   6.873   6.502 -1.1796  0.5044  0.4804
35879SOL    HW213475   8.822   6.746   6.420  0.6970  0.2281  1.0971
35880SOL     OW13476   2.011   0.001   6.382 -0.2664  0.3416 -0.1415
35880SOL    HW113477   1.970   0.068   6.329  0.2773 -0.1209 -1.1698
35880SOL    HW213478   1.963  -0.079   6.361  1.2185 -0.2510 -1.5216
35881SOL     OW13479   3.280   4.266   2.117 -0.3146  0.0921  0.0370
35881SOL    HW113480   3.367   4.248   2.154  1.4893  2.0788 -2.7908
35881SOL    HW213481   3.281   4.224   2.031 -1.2751  1.8987 -0.9178
35882SOL     OW13482  10.184   8.340   1.061  0.1152 -0.6353  0.0648
35882SOL    HW113483  10.101   8.380   1.086 -0.6011 -2.1029  0.1280
35882SOL    HW213484  10.247   8.374   1.125 -0.5143  0.1350  0.2980
35883SOL     OW13485   4.539   2.429   8.466  0.2540  0.2237 -0.2339
35883SOL    HW113486   4.589   2.432   8.548  0.1126  0.8667 -0.1625
35883SOL    HW213487   4.495   2.514   8.462 -3.2539 -1.3207  1.1903
35884SOL     OW13488   2.303   3.843  10.882 -0.7490 -0.3542  0.0644
35884SOL    HW113489   2.262   3.843  10.969 -0.0428 -1.0095  0.4098
35884SOL    HW213490   2.261   3.916  10.836 -0.7833  0.3213  1.1197
35885SOL     OW13491   8.065   6.157   4.110 -0.2204  0.0838  0.5743
35885SOL    HW113492   8.027   6.235   4.150 -0.1466 -0.0986  1.0054
35885SOL    HW213493   7.993   6.094   4.106  0.1693 -0.5122  2.0415
35886SOL     OW13494   7.273  10.783   8.636  0.1720  0.2478  0.7709
35886SOL    HW113495   7.361  10.795   8.602  0.8437  1.0570  2.6472
35886SOL    HW213496   7.223  10.857   8.601  0.0187 -0.6006 -0.8712
35887SOL     OW13497   2.183   6.161   5.091  0.2054 -0.0317 -0.0073
35887SOL    HW113498   2.235   6.171   5.011  2.0045  0.5158  1.1602
35887SOL    HW213499   2.130   6.083   5.076  1.1519 -0.4483 -1.3954
35888SOL     OW13500   6.609   6.473   5.173 -0.2111  0.2391 -0.0620
35888SOL    HW113501   6.682   6.500   5.229 -0.5200 -0.9222  0.9461
35888SOL    HW213502   6.566   6.554   5.149 -0.4724  0.7663  1.9629
35889SOL     OW13503   9.487   3.456   0.495  0.2950  0.1043 -0.3209
35889SOL    HW113504   9.554   3.472   0.429 -0.0329 -0.8483 -0.9003
35889SOL    HW213505   9.523   3.387   0.550 -0.9063 -1.7229 -1.7182
35890SOL     OW13506  10.518   1.427   2.365 -0.1844  0.7079  0.7146
35890SOL    HW113507  10.592   1.402   2.420  0.2593  1.2044  0.3549
35890SOL    HW213508  10.454   1.356   2.376  0.4818  0.1114  0.7632
35891SOL     OW13509   2.155   6.464  10.831 -0.4594  1.2029 -0.3067
35891SOL    HW113510   2.062   6.461  10.850 -1.0758 -2.8462 -2.8127
35891SOL    HW213511   2.195   6.408  10.898 -0.4626 -0.2311 -1.4552
35892SOL     OW13512   1.503   6.742   6.262  0.0438  0.0888 -0.1775
35892SOL    HW113513   1.569   6.810   6.247  0.4369 -0.2057  0.2230
35892SOL    HW213514   1.420   6.790   6.261  0.2972  0.5373 -0.1703
35893SOL     OW13515   7.160  10.952   9.168 -0.3584 -0.0047 -0.4175
35893SOL    HW113516   7.230  10.952   9.102 -1.0828 -0.7377 -1.2115
35893SOL    HW213517   7.184  10.880   9.227  1.4057  1.9436  1.4025
35894SOL     OW13518  10.314   3.069  12.235  0.4118 -0.1316 -0.2027
35894SOL    HW113519  10.357   3.008  12.176  0.0534 -0.0436 -0.5619
35894SOL    HW213520  10.370   3.147  12.235  0.3666 -0.0995 -0.4977
35895SOL     OW13521   1.811   5.161   9.252  0.0931 -0.3102 -0.2060
35895SOL    HW113522   1.867   5.104   9.305  0.6188  0.8335  0.4870
35895SOL    HW213523   1.835   5.250   9.277 -1.0927  0.2302 -0.8877
35896SOL     OW13524   2.451   2.090   8.928 -0.6107 -0.2279  0.4451
35896SOL    HW113525   2.505   2.159   8.967 -0.3229 -0.5546  0.6277
35896SOL    HW213526   2.368   2.094   8.975 -0.5901 -0.0123  0.4619
35897SOL     OW13527   8.057   4.995   6.719 -0.0344 -0.0646 -0.4355
35897SOL    HW113528   8.005   5.070   6.688 -0.0610  0.4650  0.8463
35897SOL    HW213529   7.995   4.942   6.769  0.2088 -0.4742 -0.5641
35898SOL     OW13530   9.356   7.368  12.165  0.3906 -0.4194  0.3100
35898SOL    HW113531   9.311   7.333  12.088 -1.6767  0.5779  0.9825
35898SOL    HW213532   9.446   7.337  12.157 -0.0439 -1.2676 -1.9092
35899SOL     OW13533   7.158   0.109   9.295 -0.1517 -0.2290 -0.0385
35899SOL    HW113534   7.103   0.146   9.364 -2.2863 -1.4252 -1.0140
35899SOL    HW213535   7.157   0.015   9.311  1.0684 -0.3398 -0.5099
35900SOL     OW13536   0.615   7.819   9.977 -0.3371  0.1386  0.7075
35900SOL    HW113537   0.589   7.745   9.921 -0.0862 -0.3954  1.2842
35900SOL    HW213538   0.548   7.885   9.962  1.2927  1.2673 -2.5827
35901SOL     OW13539   9.614   3.827   9.367 -0.2196  0.6415  0.4880
35901SOL    HW113540   9.533   3.876   9.357 -0.5781 -0.2143 -1.0561
35901SOL    HW213541   9.608   3.755   9.304  3.0775  2.2703 -2.0014
35902SOL     OW13542  11.291   7.386   2.538 -0.1247  0.3956  0.2779
35902SOL    HW113543  11.221   7.439   2.576 -1.7596 -0.3019 -1.6057
35902SOL    HW213544  11.248   7.306   2.509  1.5269 -0.2151 -0.6386
35903SOL     OW13545  11.766   1.333   8.274  0.1018 -0.0787 -0.7785
35903SOL    HW113546  11.847   1.376   8.302  0.5328 -1.4384  0.1489
35903SOL    HW213547  11.696   1.387   8.310  0.6346 -0.7934  1.4624
35904SOL     OW13548   7.298   3.304   9.418 -0.1573  0.7168 -0.4167
35904SOL    HW113549   7.391   3.304   9.396 -0.2362  0.3003 -0.7463
35904SOL    HW213550   7.255   3.257   9.347 -0.4517 -0.3831  0.4637
35905SOL     OW13551   1.729   4.469  10.157  0.4611 -0.1489  0.0838
35905SOL    HW113552   1.736   4.494  10.065  0.5237  1.8481  0.5739
35905SOL    HW213553   1.807   4.417  10.174  0.8790  0.1602 -0.7951
35906SOL     OW13554   8.161   9.384   2.425 -0.4618 -0.4222  0.7909
35906SOL    HW113555   8.144   9.476   2.404 -0.4573 -0.5013  0.4316
35906SOL    HW213556   8.091   9.336   2.382  0.4678 -0.7216 -0.4449
35907SOL     OW13557   4.762   3.501  11.796  0.2855 -0.6816 -0.1719
35907SOL    HW113558   4.796   3.589  11.812 -4.8387  1.4857  0.6250
35907SOL    HW213559   4.818   3.444  11.848  2.6126  2.3373  0.9243
35908SOL     OW13560  12.018   1.417   5.570  0.0386  0.4135  0.3034
35908SOL    HW113561  11.933   1.389   5.536  0.1603 -0.0269  0.3429
35908SOL    HW213562  12.077   1.345   5.547 -0.2111 -0.7805  2.9823
35909SOL     OW13563   2.530  11.588   4.252 -0.0856 -0.0098  0.3752
35909SOL    HW113564   2.618  11.555   4.271  0.6178  0.7065 -1.4705
35909SOL    HW213565   2.493  11.524   4.191 -0.1803  0.5844 -0.1955
35910SOL     OW13566   3.712  10.797   0.050  0.0315 -0.1339  0.3307
35910SOL    HW113567   3.805  10.776   0.055 -0.1673 -1.2273 -0.3343
35910SOL    HW213568   3.710  10.887   0.016  0.8150 -1.0888 -2.4707
35911SOL     OW13569   1.898  10.477   4.768  0.3723 -0.0395  0.4480
35911SOL    HW113570   1.904  10.460   4.862  1.4023 -0.8525  0.2601
35911SOL    HW213571   1.930  10.397   4.727  0.5178  0.5233 -0.5822
35912SOL     OW13572  10.941   2.917   7.415  0.5524  0.1253  0.0971
35912SOL    HW113573  10.857   2.922   7.461  0.9025  0.7440  0.6804
35912SOL    HW213574  10.936   2.834   7.367 -0.0651 -0.2438  0.7643
35913SOL     OW13575   5.394   8.128   1.107  0.5692 -0.0216 -0.0233
35913SOL    HW113576   5.350   8.213   1.117  0.4881  0.0767 -1.1678
35913SOL    HW213577   5.481   8.150   1.073  0.9093 -0.3438  0.6092
35914SOL     OW13578   5.771  12.295   7.177 -0.2367 -0.4367 -0.4858
35914SOL    HW113579   5.783  12.210   7.218  1.4229  0.1947  0.4662
35914SOL    HW213580   5.739  12.352   7.247 -0.5177 -0.0863 -0.8919
35915SOL     OW13581   3.813   8.018   4.626 -0.3852 -0.5632  0.2040
35915SOL    HW113582   3.875   8.048   4.693 -0.8085  0.5549  0.1124
35915SOL    HW213583   3.867   7.979   4.558  0.2325  0.5306  0.0589
35916SOL     OW13584  11.909   2.863   0.937  0.1479  0.4779 -0.1163
35916SOL    HW113585  11.963   2.815   1.000 -1.5725 -1.3316  0.0853
35916SOL    HW213586  11.920   2.815   0.854 -1.1223  0.0248 -0.0553
35917SOL     OW13587   8.168   3.177   7.690 -0.4580 -0.6647  0.0391
35917SOL    HW113588   8.073   3.189   7.694 -0.3420  1.2674 -1.5357
35917SOL    HW213589   8.198   3.198   7.779 -1.6154 -3.3151  1.1507
35918SOL     OW13590   1.107  11.668  10.664  0.0622  0.3096  0.2283
35918SOL    HW113591   1.080  11.694  10.576  0.2558 -1.9316 -0.5540
35918SOL    HW213592   1.200  11.692  10.668  0.5878 -1.3333 -0.9653
35919SOL     OW13593   4.469   5.699  11.357 -0.3350 -0.4815 -0.0542
35919SOL    HW113594   4.485   5.737  11.443  0.4615  0.4902 -0.6081
35919SOL    HW213595   4.540   5.636  11.344  0.2571  0.2595 -0.4877
35920SOL     OW13596   3.898   9.779   5.274  0.3976  0.4682  0.4459
35920SOL    HW113597   3.970   9.753   5.217  0.1948 -0.8237  0.7444
35920SOL    HW213598   3.820   9.739   5.236  0.3678 -1.0689  1.9925
35921SOL     OW13599   7.909   6.857  11.376  0.2894  0.0507  0.3188
35921SOL    HW113600   7.887   6.914  11.302 -2.3934 -0.4972  0.6240
35921SOL    HW213601   7.980   6.801  11.342  0.1550  0.8012 -1.3284
35922SOL     OW13602   3.848  10.712   6.931 -0.2323 -0.2119 -0.2414
35922SOL    HW113603   3.831  10.804   6.913  1.5376 -0.2741 -2.6336
35922SOL    HW213604   3.932  10.694   6.890  1.5260 -1.9663  3.6337
35923SOL     OW13605   6.050   4.002   6.710 -0.0738 -0.1473 -0.4094
35923SOL    HW113606   6.039   3.978   6.618  1.6256  2.4313 -1.4111
35923SOL    HW213607   6.121   4.067   6.709 -1.6456  1.8329  2.3877
35924SOL     OW13608   6.471   5.475   5.364 -0.6635  0.1539 -0.0613
35924SOL    HW113609   6.528   5.518   5.301  0.9886 -1.3165  0.3506
35924SOL    HW213610   6.388   5.464   5.318  0.5392 -1.0145 -2.0644
35925SOL     OW13611  11.846   6.868   8.492 -0.7254 -0.2594 -0.3890
35925SOL    HW113612  11.906   6.869   8.418 -0.3544  1.1304 -0.0965
35925SOL    HW213613  11.903   6.874   8.569 -1.2150  1.5701 -0.1205
35926SOL     OW13614   0.953   6.855   0.593  0.1172  0.0060 -0.0117
35926SOL    HW113615   0.965   6.892   0.681 -0.6619  0.7041 -0.1972
35926SOL    HW213616   1.025   6.892   0.542  1.1047 -1.0821  0.5160
35927SOL     OW13617   0.308  10.475   7.306 -0.0156 -0.2883  0.0568
35927SOL    HW113618   0.265  10.504   7.225 -1.0061  0.9415  0.9896
35927SOL    HW213619   0.298  10.549   7.366  1.3916 -0.8810  1.0607
35928SOL     OW13620   2.553  10.416   1.388 -0.3264  0.2400  0.4940
35928SOL    HW113621   2.611  10.362   1.442 -1.2763 -1.1000  0.2276
35928SOL    HW213622   2.565  10.505   1.422  3.4516  0.4636 -0.8844
35929SOL     OW13623   9.813   5.752   9.370  0.7128 -0.2259  0.5156
35929SOL    HW113624   9.765   5.673   9.345  0.3519 -0.0529  0.6538
35929SOL    HW213625   9.903   5.736   9.341  0.8379 -1.0517  1.3399
35930SOL     OW13626   7.746   6.003   6.978 -0.1841 -0.0989  0.7338
35930SOL    HW113627   7.792   6.070   6.928  0.7908  0.0349  1.7611
35930SOL    HW213628   7.694   6.052   7.042 -1.1094 -0.2759  0.1286
35931SOL     OW13629   6.966   8.735   6.218  0.3414 -0.3005  0.0103
35931SOL    HW113630   7.022   8.770   6.288 -0.7314  3.6503 -0.8703
35931SOL    HW213631   7.027   8.718   6.146  1.1931 -2.6825  1.1596
35932SOL     OW13632  12.192   3.228   3.113  0.0116 -0.1045 -0.0675
35932SOL    HW113633  12.191   3.301   3.051 -2.0193 -1.7761 -2.2085
35932SOL    HW213634  12.284   3.217   3.135  0.5718  1.9349 -1.0802
35933SOL     OW13635   0.279   7.766  10.175 -0.1745  0.5597  0.0850
35933SOL    HW113636   0.261   7.855  10.204  3.6403  1.4005  0.5033
35933SOL    HW213637   0.308   7.775  10.084 -0.6444 -0.4120 -0.1789
35934SOL     OW13638  11.775  12.074   5.905 -0.4692  1.2927 -0.0192
35934SOL    HW113639  11.685  12.108   5.908 -0.5711  1.3144 -1.9422
35934SOL    HW213640  11.779  12.027   5.821  0.5544 -0.9085  1.1881
35935SOL     OW13641   7.663   5.241   5.144 -0.4614  0.0300  0.3950
35935SOL    HW113642   7.570   5.228   5.124 -0.2785 -0.6915  0.0266
35935SOL    HW213643   7.668   5.232   5.239 -0.8802  0.7829  0.4985
35936SOL     OW13644   0.276   4.450   1.081  0.4865  0.0355  0.5461
35936SOL    HW113645   0.364   4.427   1.052  0.1748  0.8810 -1.2396
35936SOL    HW213646   0.251   4.379   1.140  1.1769 -1.9381 -1.3760
35937SOL     OW13647   9.324   8.558   0.423  0.4180  0.1239 -0.0517
35937SOL    HW113648   9.401   8.611   0.403  1.0182 -0.9143 -0.5490
35937SOL    HW213649   9.310   8.506   0.345 -2.0313  1.7114 -0.7893
35938SOL     OW13650   6.489  10.105   5.658  0.1393 -0.4481 -0.5104
35938SOL    HW113651   6.413  10.158   5.680  1.3751  1.2541 -0.1481
35938SOL    HW213652   6.453  10.017   5.642 -1.8872  0.3167 -0.4763
35939SOL     OW13653   3.261   2.534  12.263 -0.2274  0.2354 -0.4270
35939SOL    HW113654   3.250   2.443  12.235 -0.4282  0.0603  0.1870
35939SOL    HW213655   3.246   2.586  12.185  1.7544 -0.3354 -1.2428
35940SOL     OW13656   3.622   0.359   7.875 -0.3172 -0.0944  0.2629
35940SOL    HW113657   3.599   0.402   7.958 -2.0978 -1.5121  0.5663
35940SOL    HW213658   3.676   0.285   7.901 -0.9548 -0.5948  0.1774
35941SOL     OW13659   6.457   9.264   4.826 -0.3564 -0.9762 -0.7292
35941SOL    HW113660   6.411   9.348   4.830 -0.1470 -0.7618 -2.2274
35941SOL    HW213661   6.421   9.213   4.899  0.0770  0.6681  0.7006
35942SOL     OW13662   2.519   8.851   5.631 -0.3751 -0.0304 -0.0840
35942SOL    HW113663   2.583   8.798   5.583  1.1930  2.3629 -0.8100
35942SOL    HW213664   2.487   8.792   5.700  0.7805 -2.0865 -1.1803
35943SOL     OW13665   6.312  11.428   9.317 -0.1972 -0.3714  0.6346
35943SOL    HW113666   6.310  11.521   9.292  0.3120 -0.1372  1.4259
35943SOL    HW213667   6.225  11.412   9.355 -0.9826 -0.7315 -1.1969
35944SOL     OW13668   1.562   7.354   5.007 -0.5142  0.0071 -0.5954
35944SOL    HW113669   1.570   7.380   4.916 -0.7395 -1.6306 -1.1163
35944SOL    HW213670   1.470   7.332   5.019 -0.6322  0.8845  0.2307
35945SOL     OW13671   8.200   2.337   8.596  0.0892  0.2586  0.1132
35945SOL    HW113672   8.114   2.375   8.575 -0.1613 -1.0927 -1.5968
35945SOL    HW213673   8.208   2.263   8.535  1.0532 -1.6808  2.4572
35946SOL     OW13674   1.294   6.020   5.869  0.2463 -0.0642  0.4117
35946SOL    HW113675   1.270   6.089   5.930  1.2538  0.4353  0.2662
35946SOL    HW213676   1.226   6.023   5.801 -0.2451  0.1316  0.9056
35947SOL     OW13677   8.702  12.246   4.265 -0.5266 -0.3022 -0.5384
35947SOL    HW113678   8.681  12.277   4.177  1.1834 -0.6991 -1.1284
35947SOL    HW213679   8.791  12.278   4.281 -0.4107 -1.1446  0.6257
35948SOL     OW13680   4.157   4.984  10.858  0.1350  0.4898  0.7567
35948SOL    HW113681   4.104   4.946  10.789  1.3126 -1.5611  0.8721
35948SOL    HW213682   4.195   5.063  10.820  1.1009 -0.8170 -1.1590
35949SOL     OW13683   3.203   9.884   6.783 -0.3704  0.4830 -0.5120
35949SOL    HW113684   3.287   9.877   6.828 -1.2031 -0.7465  0.9667
35949SOL    HW213685   3.220   9.941   6.708  1.7465  0.3186 -0.2126
35950SOL     OW13686   3.492   0.375   5.548  0.2689 -0.5951  0.3273
35950SOL    HW113687   3.403   0.385   5.581 -0.3630  0.2410 -1.5111
35950SOL    HW213688   3.484   0.320   5.470  1.0784  0.8917 -0.8580
35951SOL     OW13689   1.621   3.403   4.852 -0.3714  0.3597 -0.1895
35951SOL    HW113690   1.633   3.471   4.919  0.9848  0.6357 -0.6757
35951SOL    HW213691   1.532   3.418   4.819 -0.4969  1.1951  0.4728
35952SOL     OW13692  11.127   8.840   5.544  0.0991 -0.0983  0.3864
35952SOL    HW113693  11.145   8.900   5.471  1.1600  0.1313  0.8287
35952SOL    HW213694  11.088   8.763   5.502  0.2484  0.2272 -0.3731
35953SOL     OW13695   1.502   3.855  12.178 -0.4877 -0.6395  0.1036
35953SOL    HW113696   1.503   3.807  12.095 -2.1865 -0.6529  0.0592
35953SOL    HW213697   1.543   3.939  12.158  0.7529 -1.3142 -0.2849
35954SOL     OW13698   6.878  11.908   1.451  0.1817  0.2368  0.7857
35954SOL    HW113699   6.805  11.970   1.461  0.3924  0.5715  0.2815
35954SOL    HW213700   6.911  11.925   1.363  1.0453  0.2686  1.1120
35955SOL     OW13701   5.308  10.625   4.439 -0.3582  0.5262  0.2303
35955SOL    HW113702   5.362  10.701   4.462  0.5219  0.5896 -1.8468
35955SOL    HW213703   5.227  10.662   4.404 -0.3492  0.4784  0.1602
35956SOL     OW13704   3.394   4.033   7.439  0.7568  0.4129  0.1950
35956SOL    HW113705   3.381   3.941   7.462 -1.0444  0.7915  0.9222
35956SOL    HW213706   3.369   4.039   7.347 -1.5591  0.5338  0.7545
35957SOL     OW13707   4.305   7.597   4.193 -0.1934 -0.5771  0.0316
35957SOL    HW113708   4.245   7.537   4.148  0.0730 -0.3640 -0.6202
35957SOL    HW213709   4.269   7.684   4.177 -1.0719 -0.6047  1.7217
35958SOL     OW13710   3.372   1.741  11.215  0.4042 -0.0136  0.7205
35958SOL    HW113711   3.426   1.663  11.228 -0.8567 -1.1194 -0.2676
35958SOL    HW213712   3.298   1.729  11.274  0.1070  0.3378  0.4267
35959SOL     OW13713   1.038   6.483  11.954 -0.1365 -0.1219  0.2038
35959SOL    HW113714   1.031   6.435  11.871 -0.7317 -0.1148  0.2438
35959SOL    HW213715   1.109   6.440  12.001  0.7331  0.3590 -0.6258
35960SOL     OW13716   4.375  11.867   2.984  0.1962  0.4093 -0.3321
35960SOL    HW113717   4.288  11.860   2.944 -0.6157 -1.2721  1.5470
35960SOL    HW213718   4.423  11.791   2.951  0.1492  0.0537  0.3903
35961SOL     OW13719   6.403   1.258   5.877  0.0750  0.4086  0.1469
35961SOL    HW113720   6.475   1.237   5.938  1.0411  2.0175 -0.3714
35961SOL    HW213721   6.379   1.348   5.898  0.0412  0.8088 -1.4436
35962SOL     OW13722   7.032   4.466   5.851  0.4693  0.1804 -0.0548
35962SOL    HW113723   7.031   4.552   5.891  0.3845 -0.2114  0.7933
35962SOL    HW213724   6.941   4.448   5.828  0.4715  0.2622 -0.1279
35963SOL     OW13725   6.212   6.037   0.589 -0.3449 -0.1024  0.4386
35963SOL    HW113726   6.199   5.972   0.659 -1.2443  0.0532  0.4203
35963SOL    HW213727   6.306   6.032   0.570 -0.2502 -0.7976  1.0245
35964SOL     OW13728  10.226  10.390  11.283 -0.5481 -0.3032  0.1130
35964SOL    HW113729  10.175  10.416  11.359  0.3169  0.9070  0.3061
35964SOL    HW213730  10.311  10.432  11.295 -0.7449  0.8778 -2.0852
35965SOL     OW13731   8.937   0.426   9.931  0.2451 -0.1897  0.0227
35965SOL    HW113732   8.912   0.386  10.014 -0.0642 -0.4462 -0.1906
35965SOL    HW213733   9.032   0.433   9.935  0.3490 -1.3448 -0.1025
35966SOL     OW13734   9.998   3.453   9.804 -0.0523  0.0983  0.2026
35966SOL    HW113735  10.074   3.438   9.747 -0.4722  0.9550 -0.5996
35966SOL    HW213736   9.927   3.475   9.744 -0.7822 -0.0693  0.9953
35967SOL     OW13737   8.021   2.113   8.687 -0.1280  0.3179  0.6900
35967SOL    HW113738   7.937   2.112   8.643  0.3313 -1.5022 -0.2509
35967SOL    HW213739   8.085   2.122   8.617  0.5221  0.0231  1.2350
35968SOL     OW13740   8.289   1.677   5.579 -0.0852 -0.4465  1.0380
35968SOL    HW113741   8.354   1.607   5.573 -0.0709 -0.4995  1.7465
35968SOL    HW213742   8.313   1.726   5.658 -0.4868 -0.0447  0.9135
35969SOL     OW13743   7.272   5.437   5.813 -0.2794 -0.7384  0.1409
35969SOL    HW113744   7.243   5.346   5.802  1.6553 -1.5141  0.9237
35969SOL    HW213745   7.223   5.468   5.890 -0.5254 -1.3085  0.2208
35970SOL     OW13746   0.226   0.059   2.698  0.1452 -0.2764  0.0208
35970SOL    HW113747   0.214   0.102   2.783 -1.4565 -1.5515  0.5051
35970SOL    HW213748   0.313   0.019   2.703  1.1343  1.7884  0.0346
35971SOL     OW13749  10.769   1.054   7.125  0.1891 -0.4968 -0.4331
35971SOL    HW113750  10.845   0.999   7.105 -1.7722 -3.5852 -0.0603
35971SOL    HW213751  10.754   1.041   7.218 -1.1476 -0.4302 -0.6297
35972SOL     OW13752   6.866   0.842   9.960  0.4231 -0.2213  0.2381
35972SOL    HW113753   6.812   0.770   9.992 -0.9843  1.3492  1.5701
35972SOL    HW213754   6.909   0.876  10.038  1.0216  0.4430 -0.3626
35973SOL     OW13755   8.113   8.855   8.861  0.3745 -0.5410  0.4720
35973SOL    HW113756   8.067   8.920   8.808 -0.2392 -1.0372  0.3712
35973SOL    HW213757   8.197   8.842   8.818 -0.8541 -2.4035 -1.6074
35974SOL     OW13758   2.893  10.724  11.717  0.4869  0.0211  0.1503
35974SOL    HW113759   2.849  10.801  11.681  0.3399 -0.4504 -0.7209
35974SOL    HW213760   2.913  10.747  11.808 -0.8331  0.5455  0.3225
35975SOL     OW13761   6.999  10.560   2.906 -0.2668 -0.0006  0.3637
35975SOL    HW113762   7.032  10.515   2.983  0.6554  0.4840  0.2645
35975SOL    HW213763   7.023  10.504   2.832  1.9888  1.1820  0.1202
35976SOL     OW13764   8.628   6.674   5.865 -0.2296  0.3547 -0.3415
35976SOL    HW113765   8.632   6.675   5.769  0.8259 -0.8732 -0.3288
35976SOL    HW213766   8.565   6.605   5.885 -0.5931  0.7395 -0.1420
35977SOL     OW13767   2.828   7.516  11.836  0.0615  0.0168  0.1883
35977SOL    HW113768   2.772   7.477  11.903  0.2730  0.9747  0.9506
35977SOL    HW213769   2.856   7.599  11.874  1.5887 -0.2043 -0.3785
35978SOL     OW13770  10.474   2.167   8.044  0.2345 -0.3176 -0.3027
35978SOL    HW113771  10.386   2.190   8.075  0.3793  1.6893 -1.2228
35978SOL    HW213772  10.531   2.189   8.118  0.0431 -1.1887  0.1254
35979SOL     OW13773   1.304   7.187   1.250 -0.2426 -0.2808  0.1880
35979SOL    HW113774   1.356   7.114   1.216  2.4046  0.7845  1.6872
35979SOL    HW213775   1.332   7.263   1.199 -0.0999  0.3724  1.2036
35980SOL     OW13776   9.287   4.092   6.217 -0.1458  0.3092  0.4350
35980SOL    HW113777   9.297   4.118   6.308  2.6854  0.3259  0.2088
35980SOL    HW213778   9.256   4.171   6.173 -1.1761  0.4026  1.2781
35981SOL     OW13779   4.069   8.585   1.151 -0.5222 -0.2457  0.0901
35981SOL    HW113780   4.091   8.494   1.171 -0.6580  0.1064  1.9556
35981SOL    HW213781   4.150   8.634   1.168 -0.4232 -0.0087 -0.9875
35982SOL     OW13782   9.095  10.197   9.876  0.1797  0.0697 -0.4621
35982SOL    HW113783   9.132  10.276   9.837  0.3626  0.2041 -0.0245
35982SOL    HW213784   9.077  10.221   9.967 -0.3052 -0.2154 -0.4773
35983SOL     OW13785   5.070   0.168   7.603 -0.3985 -0.1384  0.0616
35983SOL    HW113786   4.977   0.191   7.597 -0.4133 -0.5037 -1.3161
35983SOL    HW213787   5.070   0.079   7.638 -0.5738 -0.1905 -0.0686
35984SOL     OW13788   2.193   9.413   6.563 -0.0947  0.4183  0.1984
35984SOL    HW113789   2.135   9.337   6.562  0.4217  0.0203 -0.7464
35984SOL    HW213790   2.151   9.478   6.508 -0.4412  0.7570  0.8509
35985SOL     OW13791   3.743  10.154   5.720  0.2536 -0.3285  0.0586
35985SOL    HW113792   3.746  10.090   5.649 -0.5008 -1.0751  0.6726
35985SOL    HW213793   3.681  10.220   5.690  2.2918  1.0668 -1.3057
35986SOL     OW13794   2.807  10.739   7.800 -0.0598 -0.4025 -0.1661
35986SOL    HW113795   2.772  10.723   7.712  1.0955 -0.7943 -0.5738
35986SOL    HW213796   2.731  10.763   7.852 -0.6662  0.6569 -1.4703
35987SOL     OW13797   3.193   2.610   1.933 -0.1783  0.2555 -0.5098
35987SOL    HW113798   3.107   2.607   1.974  0.6591  0.1763  1.3321
35987SOL    HW213799   3.238   2.531   1.964  1.2600  1.3271  0.2779
35988SOL     OW13800  12.253   7.740   0.336 -0.1754 -0.4885 -0.3872
35988SOL    HW113801  12.272   7.735   0.430 -0.9711  0.7840 -0.1350
35988SOL    HW213802  12.266   7.651   0.304  1.5562 -0.6501  0.6394
35989SOL     OW13803   3.467  11.536   3.121 -0.2863 -0.0870  0.1509
35989SOL    HW113804   3.508  11.493   3.197  1.4459  1.4775  0.1927
35989SOL    HW213805   3.538  11.545   3.058 -0.7462  2.0020 -0.1355
35990SOL     OW13806   9.229   6.686   4.558 -0.1532  0.3450 -0.4154
35990SOL    HW113807   9.238   6.771   4.515  0.5283  0.6990  0.3912
35990SOL    HW213808   9.248   6.704   4.650 -0.5505 -0.5864 -0.1422
35991SOL     OW13809   2.804   9.227   4.471 -0.1817  0.3244 -0.0103
35991SOL    HW113810   2.791   9.178   4.552 -1.6268  0.0666 -0.3691
35991SOL    HW213811   2.899   9.236   4.463  0.1522 -2.2470  0.1841
35992SOL     OW13812   5.183   9.541   0.163  0.3193 -0.0774 -0.7100
35992SOL    HW113813   5.220   9.523   0.076  0.1605  1.6174 -1.1753
35992SOL    HW213814   5.113   9.604   0.146  0.1615  0.1368  0.6407
35993SOL     OW13815   0.032  10.282   2.449  0.4609  0.2044  0.5515
35993SOL    HW113816  -0.043  10.233   2.483 -0.5412  0.3125 -1.3636
35993SOL    HW213817   0.042  10.356   2.510 -0.8412  0.0597  0.9746
35994SOL     OW13818   2.579  12.103   2.473  0.1040 -0.1377  0.3778
35994SOL    HW113819   2.550  12.037   2.409 -0.4638  0.5709 -0.1112
35994SOL    HW213820   2.658  12.066   2.511  0.4964 -0.5529 -0.7959
35995SOL     OW13821   6.674   2.203   7.320  0.7806  0.1395  0.1323
35995SOL    HW113822   6.697   2.180   7.410  0.4180 -3.5572 -0.5561
35995SOL    HW213823   6.675   2.299   7.318 -1.9272  0.5222  4.7290
35996SOL     OW13824   0.300   9.654   5.967 -0.4358  0.0272  0.1548
35996SOL    HW113825   0.370   9.589   5.960 -0.3008 -0.1983  2.8741
35996SOL    HW213826   0.244   9.636   5.891  2.7781  0.7616 -2.6773
35997SOL     OW13827  11.277   7.194  11.981  0.3037 -0.1130  0.5950
35997SOL    HW113828  11.309   7.238  12.060  1.3666 -0.6942  0.5125
35997SOL    HW213829  11.341   7.217  11.914  0.3323 -0.9816  0.3167
35998SOL     OW13830  11.859   1.571  10.845 -0.6521  0.6702 -0.3259
35998SOL    HW113831  11.817   1.567  10.759  0.3307  1.9353 -0.9030
35998SOL    HW213832  11.920   1.497  10.845 -1.7326 -0.2376 -0.1022
35999SOL     OW13833   8.845   9.969   4.637 -0.6050 -0.3790 -0.3473
35999SOL    HW113834   8.891  10.052   4.639 -0.1441 -0.4862 -2.8946
35999SOL    HW213835   8.875   9.922   4.715  0.5230  1.1131  0.1435
36000SOL     OW13836  10.814   4.400   3.634  0.5001  0.6090 -0.3081
36000SOL    HW113837  10.849   4.393   3.723 -1.5553  0.5925  0.5511
36000SOL    HW213838  10.837   4.317   3.592 -0.1924 -0.2148  0.8796
36001SOL     OW13839   9.865   9.369   3.163  0.3937 -0.7374  0.1368
36001SOL    HW113840   9.812   9.431   3.213  0.7852 -1.5278  1.5584
36001SOL    HW213841   9.819   9.286   3.169  0.1772 -0.7572 -1.2819
36002SOL     OW13842   1.299   9.105   3.900  0.0378 -0.5673 -0.5098
36002SOL    HW113843   1.245   9.071   3.972 -0.2938 -1.1154 -1.0174
36002SOL    HW213844   1.256   9.075   3.821  1.2723 -1.3141 -0.9312
36003SOL     OW13845   4.605  12.280   6.868  0.5294 -0.5077  0.4285
36003SOL    HW113846   4.558  12.220   6.809  0.0735 -0.0961  0.3619
36003SOL    HW213847   4.681  12.308   6.817 -0.9163  1.4351 -0.8060
36004SOL     OW13848   4.093   8.251  11.410  0.6726 -0.0097 -0.4125
36004SOL    HW113849   4.054   8.318  11.354 -0.2275  1.3397  1.7094
36004SOL    HW213850   4.019   8.201  11.442  1.2065 -0.9567 -0.6324
36005SOL     OW13851  11.957   2.506  11.558  0.3982 -0.2249 -0.3317
36005SOL    HW113852  12.039   2.523  11.512  0.4299 -2.7027 -1.3722
36005SOL    HW213853  11.962   2.413  11.581 -2.4700 -0.6981 -1.2393
36006SOL     OW13854   6.391   5.062   5.293  0.2847 -0.1377 -0.2480
36006SOL    HW113855   6.428   5.118   5.225 -0.1952 -1.6297 -1.7956
36006SOL    HW213856   6.405   4.973   5.262 -1.5170 -0.8301  0.7454
36007SOL     OW13857   3.711  11.938   9.850 -0.0078  0.0233 -0.0615
36007SOL    HW113858   3.796  11.916   9.888  0.7866  1.4617 -0.9588
36007SOL    HW213859   3.711  12.033   9.843 -0.9622 -0.0624 -1.7415
36008SOL     OW13860   9.144   8.800   1.445 -0.3006 -0.1942  0.0976
36008SOL    HW113861   9.069   8.790   1.503  1.0212 -1.6884  1.6655
36008SOL    HW213862   9.137   8.890   1.412 -0.7578  1.0054  3.1238
36009SOL     OW13863   4.399   2.520  11.100 -0.1849  0.2293  0.2700
36009SOL    HW113864   4.377   2.613  11.104  0.5315  0.4989 -1.2137
36009SOL    HW213865   4.357   2.490  11.019  0.7295 -0.4085  0.0210
36010SOL     OW13866   9.168   1.924   7.770  0.1191  0.8217 -0.5922
36010SOL    HW113867   9.229   1.920   7.844 -0.5708  0.2107 -0.0425
36010SOL    HW213868   9.105   1.991   7.795 -0.5822  0.0511 -0.2464
36011SOL     OW13869   7.978   6.165   0.122 -0.7233 -0.0810 -0.1644
36011SOL    HW113870   7.886   6.187   0.133 -0.1724  3.2599 -1.0107
36011SOL    HW213871   8.025   6.243   0.151  2.0772 -2.5041  2.5897
36012SOL     OW13872   0.415   1.518   4.309 -0.1646 -0.1551 -0.3198
36012SOL    HW113873   0.331   1.558   4.328 -1.6838 -3.0413 -0.2988
36012SOL    HW213874   0.420   1.515   4.213  0.6922  1.3610 -0.3583
36013SOL     OW13875   5.830  11.183  11.227 -0.3143 -0.7483 -0.4185
36013SOL    HW113876   5.887  11.246  11.184  0.4198 -1.2709 -0.2170
36013SOL    HW213877   5.875  11.099  11.218 -1.5707 -1.3776 -1.2372
36014SOL     OW13878   9.431   1.703   4.766 -0.1324 -0.0532  0.4091
36014SOL    HW113879   9.487   1.636   4.726 -0.8201  0.5456 -1.6819
36014SOL    HW213880   9.483   1.783   4.761 -0.4688  0.1491  0.1348
36015SOL     OW13881   4.799   4.774   3.171 -0.4705  0.2055  0.5119
36015SOL    HW113882   4.766   4.739   3.088 -0.0829  0.0329  0.4294
36015SOL    HW213883   4.725   4.821   3.208 -1.6728 -2.3728  1.5922
36016SOL     OW13884  11.300   1.775   3.047 -0.0132 -0.0308  0.0452
36016SOL    HW113885  11.365   1.811   2.987  1.6985 -2.2125  0.4534
36016SOL    HW213886  11.329   1.685   3.063 -3.8874 -1.6676 -0.8298
36017SOL     OW13887   5.576   9.961   7.144 -0.2230  0.1426 -0.0015
36017SOL    HW113888   5.571   9.955   7.239 -0.3149  0.5292  0.0176
36017SOL    HW213889   5.554   9.872   7.114 -0.5084  0.1004  0.3248
36018SOL     OW13890  11.429   6.646  11.758  0.3052  0.0480 -0.2227
36018SOL    HW113891  11.492   6.710  11.725  0.3762  0.7945  1.2661
36018SOL    HW213892  11.352   6.698  11.781 -0.9642 -0.8608 -2.1457
36019SOL     OW13893   2.321   5.831  10.397  0.2993  0.6555 -0.0180
36019SOL    HW113894   2.408   5.837  10.437  0.0305  0.7647  0.5699
36019SOL    HW213895   2.262   5.865  10.464 -0.4142 -1.2130  0.3597
36020SOL     OW13896   9.260   4.574   3.427  0.1553 -0.2252  0.0120
36020SOL    HW113897   9.339   4.525   3.401  0.3187  0.7101 -1.3304
36020SOL    HW213898   9.215   4.593   3.345 -1.5214 -0.7775  0.7592
36021SOL     OW13899   5.888   5.896   7.861 -0.2616  0.0112 -0.0232
36021SOL    HW113900   5.932   5.944   7.931 -0.4782 -0.3251  0.3487
36021SOL    HW213901   5.943   5.818   7.847 -0.8542 -0.5286  0.6030
36022SOL     OW13902   0.979   6.732  10.147  0.0595 -0.1642  0.1675
36022SOL    HW113903   0.991   6.823  10.122 -1.0618 -0.0078  0.1489
36022SOL    HW213904   0.920   6.696  10.081  2.8550 -1.7868 -1.6589
36023SOL     OW13905   0.007   2.686   8.516 -0.5493 -0.6459 -0.1419
36023SOL    HW113906  -0.052   2.639   8.458 -1.3635 -0.4601  0.5200
36023SOL    HW213907  -0.044   2.702   8.596  0.4612 -0.6810  0.5369
36024SOL     OW13908   4.735   4.407  11.283  0.2072  0.0942 -0.4142
36024SOL    HW113909   4.658   4.364  11.319 -0.5848  1.7032 -0.0726
36024SOL    HW213910   4.761   4.352  11.209 -0.8071 -0.8843 -0.0776
36025SOL     OW13911   5.369   6.665   0.688 -0.4343 -0.1682 -0.0462
36025SOL    HW113912   5.387   6.582   0.644  2.8245  0.1128  0.4536
36025SOL    HW213913   5.363   6.642   0.781 -0.0269  0.0578  0.0404
36026SOL     OW13914  11.072   8.205   8.628  0.0114  0.1644 -0.3667
36026SOL    HW113915  11.046   8.249   8.547 -1.9383  1.0818  0.6893
36026SOL    HW213916  11.025   8.252   8.697  2.0709 -0.1967  1.3919
36027SOL     OW13917   3.252   3.317   3.194 -0.1743  0.1273 -0.2461
36027SOL    HW113918   3.267   3.326   3.100  3.6513 -2.5099 -0.1304
36027SOL    HW213919   3.317   3.374   3.235 -0.7606  0.0686  0.8192
36028SOL     OW13920   0.134   2.557   3.587 -0.1703 -0.1031  0.2858
36028SOL    HW113921   0.040   2.552   3.603 -0.2578  0.6229  0.0099
36028SOL    HW213922   0.159   2.645   3.615  0.3796 -0.1877  0.0824
36029SOL     OW13923   7.216   2.832  11.355 -0.5656  0.1895 -0.0018
36029SOL    HW113924   7.215   2.917  11.312 -2.1919  1.7272  2.7913
36029SOL    HW213925   7.298   2.830  11.403  0.0681 -0.4287 -1.0703
36030SOL     OW13926  11.691   4.567   4.574 -0.1268  0.2648  0.0652
36030SOL    HW113927  11.781   4.597   4.586  0.2814 -0.8273 -0.1233
36030SOL    HW213928  11.676   4.573   4.480  0.6686 -1.9751 -0.2523
36031SOL     OW13929  10.227  11.384   8.867  0.4016 -0.3763  0.0001
36031SOL    HW113930  10.213  11.289   8.871 -0.2269 -0.2591  2.5803
36031SOL    HW213931  10.294  11.401   8.933  0.0086  1.0375  0.0641
36032SOL     OW13932   8.160   5.079   2.639 -0.0621  0.1172  0.3021
36032SOL    HW113933   8.101   5.110   2.571 -0.1921 -1.6536 -0.4344
36032SOL    HW213934   8.242   5.061   2.594  0.4615  0.7373  0.9762
36033SOL     OW13935   2.364   4.870   0.029  0.0505  0.6841  0.3372
36033SOL    HW113936   2.289   4.906   0.078 -2.5201 -0.0572 -2.7160
36033SOL    HW213937   2.362   4.916  -0.055  1.2638 -1.3622 -0.8924
36034SOL     OW13938   1.834   0.658   3.675  0.1909  0.3094 -0.2281
36034SOL    HW113939   1.925   0.632   3.685 -0.3170 -0.7091  2.5634
36034SOL    HW213940   1.787   0.576   3.656 -0.1790  0.8698 -2.0181
36035SOL     OW13941   6.310  12.223   0.822 -0.4381 -0.0592 -0.4581
36035SOL    HW113942   6.305  12.289   0.753 -0.6332  1.4240  0.9235
36035SOL    HW213943   6.359  12.150   0.782  1.0072  1.4576 -1.6012
36036SOL     OW13944   9.531   4.436   6.480  0.6129  0.3482  0.2969
36036SOL    HW113945   9.608   4.489   6.464  0.8047 -0.1284 -0.4207
36036SOL    HW213946   9.543   4.358   6.425 -0.0071 -0.0906  0.7633
36037SOL     OW13947  11.718   1.177   3.065 -0.2023  0.4294 -0.3324
36037SOL    HW113948  11.681   1.145   3.147  1.9617  2.0277  1.3866
36037SOL    HW213949  11.693   1.269   3.061  2.5378  1.2873  0.3808
36038SOL     OW13950  10.943   6.655   3.484 -0.5015  0.2306  0.7028
36038SOL    HW113951  10.935   6.741   3.526  1.2519  0.7754  0.0266
36038SOL    HW213952  10.992   6.602   3.548 -0.8930 -0.0336  0.7893
36039SOL     OW13953   1.650   8.650   1.599  0.0985 -0.1459 -0.1759
36039SOL    HW113954   1.666   8.744   1.599 -1.4191  0.1296  0.2217
36039SOL    HW213955   1.724   8.614   1.549  1.7623  1.0256  1.3038
36040SOL     OW13956  11.704  10.147  10.982 -0.1477  0.0855  0.1215
36040SOL    HW113957  11.760  10.208  11.028 -0.8176  1.2237 -0.5213
36040SOL    HW213958  11.761  10.106  10.917 -0.0632  1.3075 -0.5978
36041SOL     OW13959   4.283  10.973  11.633 -0.3216 -0.0241  0.1159
36041SOL    HW113960   4.295  10.915  11.708 -1.7114 -1.2853 -0.6004
36041SOL    HW213961   4.230  11.046  11.666 -0.0304 -0.0250  0.5935
36042SOL     OW13962  10.592   0.629  12.223  0.0281 -0.1836 -0.3359
36042SOL    HW113963  10.506   0.656  12.190 -0.3416 -0.0571  0.7134
36042SOL    HW213964  10.646   0.708  12.218  0.1845 -0.3375 -1.2844
36043SOL     OW13965   8.645   2.873   3.218  0.2756  0.5007 -0.0566
36043SOL    HW113966   8.679   2.961   3.234 -0.5150  0.6223  1.0929
36043SOL    HW213967   8.574   2.863   3.282 -0.9868 -0.2099 -1.5107
36044SOL     OW13968  11.277   5.077   6.402 -1.1932 -0.1980  0.2181
36044SOL    HW113969  11.321   5.011   6.456  0.9363  1.7709  1.0314
36044SOL    HW213970  11.187   5.076   6.432 -1.2382 -2.6537  0.2374
36045SOL     OW13971   3.770   3.110   2.211 -0.5829 -0.4384 -0.1144
36045SOL    HW113972   3.768   3.186   2.153  0.3608 -1.3002 -1.3389
36045SOL    HW213973   3.790   3.036   2.153  0.1495 -1.3827  1.2751
36046SOL     OW13974  10.757   3.342   5.415 -0.0688  0.1265 -0.2195
36046SOL    HW113975  10.752   3.252   5.447  3.0542 -0.1346 -0.1536
36046SOL    HW213976  10.818   3.338   5.342 -0.0346  2.1745 -0.3604
36047SOL     OW13977   1.699  11.775   4.853  0.4596 -0.3360  0.3134
36047SOL    HW113978   1.788  11.779   4.889  0.1734 -0.1582  1.0091
36047SOL    HW213979   1.686  11.860   4.811  1.0241 -0.7717 -0.7792
36048SOL     OW13980   1.106   1.086   8.667 -0.1772 -0.2175  0.1867
36048SOL    HW113981   1.021   1.083   8.709 -0.5642  0.9120 -0.4799
36048SOL    HW213982   1.126   1.179   8.657  0.2380 -0.4399 -1.4165
36049SOL     OW13983  10.888   8.173   6.725  0.4789 -0.6420 -0.4029
36049SOL    HW113984  10.868   8.205   6.637 -1.2292 -1.6308 -0.4217
36049SOL    HW213985  10.848   8.086   6.729 -0.8871  0.0020  1.8492
36050SOL     OW13986  11.536   0.301   1.071  1.0071  0.0579 -0.1262
36050SOL    HW113987  11.626   0.278   1.048  1.8125 -0.3751  2.9968
36050SOL    HW213988  11.526   0.392   1.043  2.1147 -0.1172 -1.1892
36051SOL     OW13989   4.541   9.688   9.147 -0.2378 -0.1534 -0.5646
36051SOL    HW113990   4.600   9.650   9.213 -2.4774  0.2835  1.8928
36051SOL    HW213991   4.567   9.779   9.142 -1.6900  0.5135  1.9395
36052SOL     OW13992  10.360   7.391   5.634 -0.6508 -0.2437  0.0436
36052SOL    HW113993  10.309   7.365   5.711  0.8982 -1.2324  0.7705
36052SOL    HW213994  10.326   7.478   5.612 -0.4545  0.5222  2.4393
36053SOL     OW13995   1.438   2.125  11.399 -0.1154 -0.3881 -0.2434
36053SOL    HW113996   1.416   2.141  11.307 -2.1332  1.6788  0.5175
36053SOL    HW213997   1.375   2.059  11.427 -0.8656  0.4860  0.1616
36054SOL     OW13998  11.546   1.260   0.776 -0.3824 -0.7580 -0.0968
36054SOL    HW113999  11.606   1.326   0.742 -1.2504  0.4037  0.5661
36054SOL    HW214000  11.459   1.300   0.771 -1.1369 -2.3912 -1.0223
36055SOL     OW14001   0.745   9.744  12.316 -0.2937  0.6234 -0.2054
36055SOL    HW114002   0.686   9.688  12.266 -1.6653  0.4239  1.5403
36055SOL    HW214003   0.725   9.833  12.287  0.2531  0.3907 -1.3259
36056SOL     OW14004   0.598   0.516   8.861 -0.5449  0.2937  0.3188
36056SOL    HW114005   0.538   0.581   8.824  1.3014  1.1344 -1.3668
36056SOL    HW214006   0.644   0.563   8.930  0.3868  0.6441 -0.5196
36057SOL     OW14007   6.484  11.625   0.486  0.4495  0.4177 -0.2333
36057SOL    HW114008   6.411  11.686   0.498  0.5821  0.5409 -0.0625
36057SOL    HW214009   6.547  11.649   0.553 -0.9363 -2.0640  2.1354
36058SOL     OW14010   4.363   1.798   5.980 -0.3499 -0.0740  0.4537
36058SOL    HW114011   4.349   1.888   5.949 -1.8295  0.3234  2.1052
36058SOL    HW214012   4.285   1.750   5.954 -0.3423 -0.4345  1.0648
36059SOL     OW14013   7.547   8.057   7.587  0.2591  0.0826  0.4725
36059SOL    HW114014   7.479   8.114   7.623 -0.0413 -0.0596  0.1397
36059SOL    HW214015   7.629   8.094   7.619  0.2381  2.0084 -1.4520
36060SOL     OW14016   1.662   2.592   7.505 -0.0953  0.6552 -0.1842
36060SOL    HW114017   1.699   2.640   7.579 -0.7858  1.4422 -0.3486
36060SOL    HW214018   1.735   2.539   7.473  0.3124  0.5916  0.8193
36061SOL     OW14019   1.562  12.301   5.486 -0.3825 -0.9630 -0.2240
36061SOL    HW114020   1.556  12.234   5.554  0.5377  1.4927  2.4569
36061SOL    HW214021   1.496  12.366   5.511  0.2576  0.1969 -1.4697
36062SOL     OW14022   8.501   6.774  11.592  0.6915  0.0132  0.1283
36062SOL    HW114023   8.493   6.682  11.615 -0.0273  0.1662  0.5274
36062SOL    HW214024   8.563   6.809  11.657 -0.0414  0.0853  0.8007
36063SOL     OW14025  10.820  10.080   6.375 -0.3317 -0.7438 -0.0436
36063SOL    HW114026  10.845  10.103   6.465  1.9131  0.1663 -0.8467
36063SOL    HW214027  10.774  10.157   6.343 -2.4303 -1.6043  0.7250
36064SOL     OW14028   1.163   4.148   3.749  0.0229 -0.0865 -0.1027
36064SOL    HW114029   1.231   4.215   3.741  1.7670 -1.9109 -2.0576
36064SOL    HW214030   1.103   4.165   3.676  0.5979 -0.7502 -0.7431
36065SOL     OW14031   9.398  12.277   0.896 -0.1455  0.2852  0.2091
36065SOL    HW114032   9.453  12.203   0.922 -0.7328 -0.3105 -0.2157
36065SOL    HW214033   9.439  12.311   0.816 -0.2637 -0.0235  0.0139
36066SOL     OW14034   7.817   2.957   8.637  0.2160  0.0451 -0.7058
36066SOL    HW114035   7.786   2.948   8.727 -0.4792  0.5074 -0.8853
36066SOL    HW214036   7.839   3.050   8.629 -0.3147  0.1339 -1.1865
36067SOL     OW14037   6.683  11.884   2.316 -0.1333 -0.1201 -0.2266
36067SOL    HW114038   6.744  11.957   2.315 -0.2271 -0.0065  0.7395
36067SOL    HW214039   6.634  11.895   2.398 -0.6886 -0.8212 -0.4484
36068SOL     OW14040   3.996   1.507  12.004 -0.5263 -0.1846  0.2725
36068SOL    HW114041   4.007   1.591  12.049 -1.2041  0.6759 -1.0951
36068SOL    HW214042   3.919   1.468  12.045 -0.0853 -0.2409  1.0596
36069SOL     OW14043  10.093   7.421   1.927  0.1926 -0.2530  0.2644
36069SOL    HW114044  10.146   7.455   1.999 -0.4000 -0.9495  1.0458
36069SOL    HW214045  10.041   7.496   1.898  1.6554  0.4747 -0.5976
36070SOL     OW14046  11.758   9.793  12.039  0.0968  0.1056  0.4733
36070SOL    HW114047  11.794   9.733  11.975  0.2101  0.0230  0.6122
36070SOL    HW214048  11.684   9.746  12.078 -1.4223  0.9965 -1.1701
36071SOL     OW14049  11.885   6.535   6.315  0.6848  0.0448 -0.1345
36071SOL    HW114050  11.830   6.565   6.243  0.9123  0.0346 -0.3146
36071SOL    HW214051  11.828   6.479   6.368  0.7562 -0.7006 -0.8194
36072SOL     OW14052   4.692   8.756   3.176 -0.5174  0.3299 -0.1300
36072SOL    HW114053   4.753   8.753   3.102 -2.4038  0.3382 -1.7658
36072SOL    HW214054   4.679   8.849   3.193 -1.8930  0.3948 -1.4025
36073SOL     OW14055   7.849   7.212   1.341 -0.1226 -0.6881 -0.0051
36073SOL    HW114056   7.826   7.168   1.259  0.5985  0.5284 -0.9000
36073SOL    HW214057   7.770   7.260   1.365 -0.5746 -1.6167  0.4281
36074SOL     OW14058   9.214   3.432   2.357  0.3262  0.7797  0.0393
36074SOL    HW114059   9.266   3.440   2.437 -1.9305  0.2894  1.6318
36074SOL    HW214060   9.144   3.371   2.379 -2.1090  2.8814 -1.3428
36075SOL     OW14061   6.168   8.711   8.020  0.6926 -0.1954 -0.0455
36075SOL    HW114062   6.078   8.742   8.011  0.6603 -0.2322  0.1527
36075SOL    HW214063   6.218   8.766   7.960  0.2113 -1.6463 -1.8822
36076SOL     OW14064  10.643   1.841  10.813 -0.4991  0.3188  0.0612
36076SOL    HW114065  10.597   1.910  10.860 -1.2384 -0.0887 -0.0468
36076SOL    HW214066  10.736   1.864  10.820 -0.7251  1.1914  0.2141
36077SOL     OW14067   2.375   7.619   0.880 -0.2411 -0.0773 -0.2244
36077SOL    HW114068   2.462   7.581   0.895 -0.8258 -1.2296  0.4490
36077SOL    HW214069   2.349   7.652   0.966  0.0405  1.4322 -0.6999
36078SOL     OW14070  11.829   3.031   0.691  0.4817  0.4786  0.2556
36078SOL    HW114071  11.761   2.987   0.641  0.7277  1.8512 -1.3800
36078SOL    HW214072  11.879   2.960   0.731 -1.5727 -0.5659  1.1114
36079SOL     OW14073   1.889   9.612   4.439  0.6772 -0.1473 -0.3716
36079SOL    HW114074   1.865   9.627   4.348  0.2587 -3.9544 -1.0740
36079SOL    HW214075   1.805   9.607   4.486  0.8398  0.6583  0.0203
36080SOL     OW14076   4.610   1.336   1.743  0.6748  0.3670  0.2538
36080SOL    HW114077   4.635   1.335   1.650 -0.2767 -2.0096 -0.0470
36080SOL    HW214078   4.692   1.352   1.790  1.6110 -0.7250 -0.9305
36081SOL     OW14079   5.702   8.632   6.934  0.0956  0.1301  0.0838
36081SOL    HW114080   5.771   8.570   6.958 -0.0616 -0.7223 -1.5111
36081SOL    HW214081   5.737   8.678   6.857 -0.5531  0.6802  0.1096
36082SOL     OW14082   6.402   9.206   2.700  0.3186 -0.3323  0.1236
36082SOL    HW114083   6.354   9.226   2.619 -0.0450  0.3279  0.4910
36082SOL    HW214084   6.365   9.266   2.765  0.9264 -0.5361  0.6697
36083SOL     OW14085   3.029   7.294   5.199 -0.3347 -0.2813 -0.2350
36083SOL    HW114086   3.017   7.199   5.193 -0.6523 -0.5794  3.0427
36083SOL    HW214087   2.961   7.323   5.260  0.9816  1.7266  0.4026
36084SOL     OW14088  10.935  11.036  12.154 -0.6697 -0.1135  0.2351
36084SOL    HW114089  10.921  10.947  12.124  0.8189  0.3254 -2.0382
36084SOL    HW214090  10.856  11.058  12.203 -1.4629 -2.3469  0.0698
36085SOL     OW14091   1.137   7.931  10.964  0.4085  0.3490  0.0442
36085SOL    HW114092   1.227   7.898  10.968  0.4702  0.3480 -1.0457
36085SOL    HW214093   1.118   7.937  10.870 -0.2121  1.7736  0.2397
36086SOL     OW14094   4.572   1.421   4.316  0.5218  0.0769 -0.4159
36086SOL    HW114095   4.519   1.479   4.371 -0.8999 -1.3537 -0.2102
36086SOL    HW214096   4.539   1.434   4.228  0.4175 -0.1926 -0.4161
36087SOL     OW14097   2.980   0.052   1.720 -0.3883 -0.1831  0.1703
36087SOL    HW114098   2.923  -0.025   1.719  0.9374 -1.2030  0.4463
36087SOL    HW214099   2.997   0.067   1.813  0.6330 -0.5377  0.0484
36088SOL     OW14100  10.861   4.556   3.290  0.5090  0.0632 -0.1387
36088SOL    HW114101  10.803   4.576   3.216  1.4013  0.7508 -0.6751
36088SOL    HW214102  10.848   4.463   3.306 -1.7836  0.4479  0.6685
36089SOL     OW14103  11.935   0.603   9.045 -0.3879 -0.2761  0.0349
36089SOL    HW114104  11.973   0.520   9.074 -1.3404 -0.7028  0.0963
36089SOL    HW214105  11.854   0.578   9.001 -0.6907  0.6194  0.0655
36090SOL     OW14106  10.748   1.901   9.878 -0.0188  0.4162  0.1247
36090SOL    HW114107  10.801   1.877   9.802  0.3630 -0.8289  0.7555
36090SOL    HW214108  10.806   1.886   9.953 -0.2219  2.0734  0.6602
36091SOL     OW14109   6.601  12.090   3.843  0.2776 -0.0594  0.0835
36091SOL    HW114110   6.694  12.102   3.826  0.1223  3.5161  0.8626
36091SOL    HW214111   6.561  12.086   3.756  1.0966 -1.4013 -0.2555
36092SOL     OW14112   7.386   9.524  10.112  0.4459 -0.4847  0.4800
36092SOL    HW114113   7.432   9.497  10.191  0.3985  0.8159  0.9765
36092SOL    HW214114   7.368   9.617  10.125 -1.7365 -0.7835  0.0207
36093SOL     OW14115   4.377   8.534   8.170 -0.4214 -0.0088 -0.5851
36093SOL    HW114116   4.366   8.440   8.183  1.4430 -0.2540 -0.5581
36093SOL    HW214117   4.319   8.556   8.098 -1.0893 -1.1181 -0.4011
36094SOL     OW14118  11.993   7.184  11.858 -0.3682 -0.6172 -0.2933
36094SOL    HW114119  11.951   7.199  11.773 -0.0068 -1.0329 -0.5526
36094SOL    HW214120  12.079   7.225  11.850 -1.7040  2.9140  1.2654
36095SOL     OW14121   0.905   6.160   1.977 -0.4347  0.2304 -0.2936
36095SOL    HW114122   0.983   6.109   1.998 -1.4533 -2.4122 -2.2549
36095SOL    HW214123   0.938   6.248   1.959  2.3786 -1.0967 -2.4687
36096SOL     OW14124   2.388   7.422   8.399 -0.1688  0.6345  0.2067
36096SOL    HW114125   2.330   7.489   8.362 -0.8174 -0.5361 -0.9759
36096SOL    HW214126   2.374   7.345   8.344 -0.1465 -0.7836  2.0634
36097SOL     OW14127   7.152   6.452   8.286  0.0546 -0.3236 -0.1537
36097SOL    HW114128   7.184   6.362   8.293  0.3599 -0.2023  0.0299
36097SOL    HW214129   7.187   6.484   8.203  2.3249  0.5473  1.0441
36098SOL     OW14130  11.432   8.149   4.164 -0.2524 -0.1979 -0.3469
36098SOL    HW114131  11.356   8.152   4.222 -1.3409  0.4480 -1.7329
36098SOL    HW214132  11.396   8.163   4.077  1.4561  0.0208 -1.0649
36099SOL     OW14133   7.940   6.238   4.629 -0.0171 -0.6166  0.0153
36099SOL    HW114134   7.913   6.330   4.630  0.0799 -0.5387 -1.8466
36099SOL    HW214135   7.887   6.197   4.697 -0.4046  0.7231  0.5451
36100SOL     OW14136  11.989   2.932   6.373 -0.2227 -0.4831 -0.9282
36100SOL    HW114137  11.996   3.019   6.414  0.1841 -1.6945  1.7999
36100SOL    HW214138  11.896   2.912   6.376 -0.1915 -0.5756 -0.5518
36101SOL     OW14139   3.490   2.903   3.236  0.0648 -0.3313 -0.2879
36101SOL    HW114140   3.553   2.841   3.273 -0.9566 -0.9133  0.5225
36101SOL    HW214141   3.544   2.973   3.201  1.2109 -1.2837 -0.4944
36102SOL     OW14142   5.261   9.911  11.841  0.3392 -0.5997  0.6117
36102SOL    HW114143   5.259   9.833  11.785  1.7966 -0.8204  0.8183
36102SOL    HW214144   5.220   9.882  11.923 -0.9819 -0.5338  0.0014
36103SOL     OW14145   3.259   4.989   2.299  0.7606 -0.6256 -0.1158
36103SOL    HW114146   3.338   4.998   2.247  0.1836  0.3051 -0.8629
36103SOL    HW214147   3.188   4.984   2.235  0.2583 -2.3499  0.5041
36104SOL     OW14148  11.340   3.453   8.007  0.2766 -0.1231  0.0130
36104SOL    HW114149  11.383   3.437   8.091  2.5985  1.6643 -0.7065
36104SOL    HW214150  11.325   3.365   7.971  4.2669 -1.0278  0.0192
36105SOL     OW14151   3.544   6.239  12.151  0.3030 -0.0532  1.0388
36105SOL    HW114152   3.527   6.148  12.128  1.2222 -0.6257  2.5224
36105SOL    HW214153   3.458   6.277  12.167 -0.1126 -0.5201  0.0090
36106SOL     OW14154   6.365   5.140   0.722 -0.1561  0.3832 -0.3373
36106SOL    HW114155   6.350   5.076   0.792 -2.1933  0.7867 -0.3356
36106SOL    HW214156   6.357   5.225   0.766  0.2396  0.6353 -0.7509
36107SOL     OW14157  10.633   9.484   6.601  0.1590  0.0107  0.1063
36107SOL    HW114158  10.539   9.474   6.587 -0.2327  1.0455  1.7108
36107SOL    HW214159  10.648   9.578   6.599  1.0062 -0.0979  0.7276
36108SOL     OW14160   1.529  10.716   4.206 -0.3667  0.0579  0.8813
36108SOL    HW114161   1.569  10.717   4.293  3.6105  1.3813 -0.7358
36108SOL    HW214162   1.551  10.630   4.170 -1.2067 -0.1345  0.7832
36109SOL     OW14163   9.157   9.808  11.746  0.2694 -0.2732 -0.2416
36109SOL    HW114164   9.110   9.869  11.804  1.7500  1.8256 -1.1171
36109SOL    HW214165   9.246   9.844  11.740  1.7506 -3.4502  0.4493
36110SOL     OW14166   1.435   8.737   4.560  0.1544 -0.0964  0.0785
36110SOL    HW114167   1.440   8.674   4.631  2.1432  1.3111  1.2843
36110SOL    HW214168   1.429   8.822   4.604  0.9518  0.7819 -1.4211
36111SOL     OW14169   4.273   0.538   8.215  0.2264  0.8397  0.3391
36111SOL    HW114170   4.328   0.563   8.140  1.2664 -3.3987 -0.5796
36111SOL    HW214171   4.336   0.517   8.284 -0.4257 -0.2102  0.6277
36112SOL     OW14172   0.584  11.563   2.262  0.4983 -0.1915 -0.5947
36112SOL    HW114173   0.582  11.578   2.168 -1.8189 -1.3308 -0.8167
36112SOL    HW214174   0.512  11.616   2.296 -0.5696 -1.9606  0.0729
36113SOL     OW14175   2.800  10.063   0.650  0.1178 -0.0694  0.5526
36113SOL    HW114176   2.758  10.062   0.736  2.0670  1.0522  1.5970
36113SOL    HW214177   2.854  10.142   0.651 -1.0162  0.8970 -2.3648
36114SOL     OW14178   6.811   0.216  11.363 -0.0315  0.4937  0.5578
36114SOL    HW114179   6.757   0.261  11.298 -0.0716  1.0049  0.9449
36114SOL    HW214180   6.823   0.128  11.326 -1.0832  0.3825  0.4429
36115SOL     OW14181  10.161   7.069   5.761 -0.0296 -0.1231  0.1079
36115SOL    HW114182  10.189   7.014   5.688  0.7734 -0.4546  0.6474
36115SOL    HW214183  10.096   7.016   5.808 -1.6377  0.6490 -1.1487
36116SOL     OW14184   3.516   8.306   5.474 -0.0013  0.0757 -0.3258
36116SOL    HW114185   3.597   8.355   5.490 -0.5927  0.9278  0.1248
36116SOL    HW214186   3.454   8.371   5.442 -0.7793 -0.3833  0.2032
36117SOL     OW14187   9.471   4.202   3.142  0.1198  0.5218 -0.2950
36117SOL    HW114188   9.485   4.263   3.069  1.1337  1.2438  0.4709
36117SOL    HW214189   9.535   4.133   3.128  0.2921  0.6441 -0.1105
36118SOL     OW14190   8.971   8.613   0.994 -0.4299  0.2158  0.2697
36118SOL    HW114191   9.023   8.540   0.959  0.6710  1.3762 -0.6336
36118SOL    HW214192   8.895   8.618   0.936  0.0964  0.5174 -0.4179
36119SOL     OW14193   0.987   9.734   7.740  0.0117 -0.1720 -0.1302
36119SOL    HW114194   1.020   9.755   7.827  1.9018 -0.8422 -0.6421
36119SOL    HW214195   1.045   9.783   7.680 -3.0015  2.7049 -1.0413
36120SOL     OW14196   8.007  10.550   2.220  0.6598 -0.3788 -0.1429
36120SOL    HW114197   8.080  10.497   2.189  2.2688  0.3563  2.2041
36120SOL    HW214198   7.967  10.499   2.290  0.3880  0.2563  0.1758
36121SOL     OW14199   1.903  11.361   5.071 -0.2727  0.1381 -0.1544
36121SOL    HW114200   1.957  11.335   4.996 -1.1147 -0.9703 -0.3864
36121SOL    HW214201   1.964  11.361   5.145  0.2645 -0.1060 -0.5881
36122SOL     OW14202   0.708   5.136   5.813 -0.1400 -0.4706 -0.3165
36122SOL    HW114203   0.625   5.106   5.776  0.0078  0.9514 -1.9470
36122SOL    HW214204   0.683   5.178   5.895 -0.9771 -0.5401 -0.5216
36123SOL     OW14205   6.665   9.550   9.647 -0.5077 -0.0211  0.2736
36123SOL    HW114206   6.653   9.549   9.552 -1.1444 -1.3534  0.3417
36123SOL    HW214207   6.619   9.629   9.676 -0.1458  0.5044 -0.5259
36124SOL     OW14208  10.848   2.177   6.437  0.4157 -0.1583 -0.4155
36124SOL    HW114209  10.916   2.203   6.499 -0.9521  0.7268  0.7825
36124SOL    HW214210  10.891   2.179   6.352  1.9100  0.2520  0.3172
36125SOL     OW14211   2.556  10.016   7.690  0.1811  0.0355  0.1711
36125SOL    HW114212   2.464   9.994   7.679  0.2462  0.1870 -0.7633
36125SOL    HW214213   2.589   9.953   7.755 -0.4388 -0.3795  0.0858
36126SOL     OW14214   4.867   2.412   0.947 -0.3204 -0.0044  0.2706
36126SOL    HW114215   4.855   2.318   0.960  0.8051 -0.1431  0.4633
36126SOL    HW214216   4.962   2.425   0.958 -0.4690  1.1532  0.2639
36127SOL     OW14217   6.163   2.660   0.667 -0.0485 -0.3027  0.5669
36127SOL    HW114218   6.230   2.594   0.649 -1.3319 -1.3852 -0.5027
36127SOL    HW214219   6.210   2.744   0.664  1.2701 -1.0268 -0.0765
36128SOL     OW14220   3.271   5.511   0.894  0.1753 -0.3246  0.0580
36128SOL    HW114221   3.185   5.470   0.907  0.2343 -0.8630 -1.1017
36128SOL    HW214222   3.251   5.603   0.875 -0.0446 -0.1127  1.2701
36129SOL     OW14223   3.364   2.029  11.248 -0.5570 -0.3641  0.0674
36129SOL    HW114224   3.368   1.937  11.224 -0.6323 -0.8193  1.6763
36129SOL    HW214225   3.455   2.060  11.244 -0.3215 -0.9058  0.8796
36130SOL     OW14226   0.984   6.148  10.334 -0.1931 -0.3131  0.4128
36130SOL    HW114227   1.036   6.225  10.310  2.4780 -1.6463  1.4830
36130SOL    HW214228   1.044   6.074  10.322 -2.3559 -2.1654  0.3300
36131SOL     OW14229  10.208   1.902   4.493  0.1901  0.2808  0.0477
36131SOL    HW114230  10.289   1.854   4.472 -1.3524 -1.9003 -1.3835
36131SOL    HW214231  10.209   1.909   4.588  1.3407 -1.1036  0.1752
36132SOL     OW14232  11.537   4.078  11.887 -0.2950 -0.0848 -0.0210
36132SOL    HW114233  11.496   4.161  11.912 -0.2476 -0.0260 -0.1347
36132SOL    HW214234  11.504   4.014  11.950  1.2374  0.3977  1.3345
36133SOL     OW14235   2.244   4.665   8.281  0.5166  0.0250  0.3409
36133SOL    HW114236   2.205   4.605   8.218  0.3928 -0.6269  1.0294
36133SOL    HW214237   2.169   4.713   8.317  0.6155  0.6078 -0.2134
36134SOL     OW14238  11.748   1.022   5.413  0.1792  0.4277 -0.2455
36134SOL    HW114239  11.782   0.934   5.433 -0.0496  0.4077  0.0745
36134SOL    HW214240  11.749   1.067   5.498 -1.8255  0.0049  0.0556
36135SOL     OW14241   2.993   7.785   0.192 -0.2879 -0.3985  0.5921
36135SOL    HW114242   3.061   7.739   0.240  0.5063  0.0994 -0.0330
36135SOL    HW214243   2.923   7.720   0.181  2.0033 -2.6090 -2.9907
36136SOL     OW14244  10.351   0.128   9.876  0.5367  0.1660 -0.0200
36136SOL    HW114245  10.435   0.174   9.870  0.9836 -0.6590 -0.2230
36136SOL    HW214246  10.367   0.057   9.938 -0.5072  1.0120  1.2740
36137SOL     OW14247   6.263   0.757  10.673  0.2217  0.4499  0.2230
36137SOL    HW114248   6.245   0.803  10.591 -1.1950 -2.6306 -1.3462
36137SOL    HW214249   6.356   0.774  10.689  0.4159  1.5786 -1.7164
36138SOL     OW14250   7.490   0.812   0.164  0.4150 -0.6084 -0.6010
36138SOL    HW114251   7.425   0.767   0.218 -0.3086  0.2673 -0.7187
36138SOL    HW214252   7.551   0.743   0.138 -0.2023 -1.3623 -0.1054
36139SOL     OW14253   9.895   0.147   2.210  0.2212  0.3952  0.4809
36139SOL    HW114254   9.988   0.137   2.231  0.5831 -0.8409 -1.5000
36139SOL    HW214255   9.889   0.232   2.166  0.0544  1.3240  2.2003
36140SOL     OW14256   9.293   5.002   4.973  0.0711  0.4310 -0.2791
36140SOL    HW114257   9.343   4.927   5.005 -0.0194 -0.4071 -2.0022
36140SOL    HW214258   9.295   5.065   5.045  1.2471 -0.7044  0.7177
36141SOL     OW14259   6.821   1.871   8.452  1.0590 -0.0740  0.4393
36141SOL    HW114260   6.903   1.850   8.406 -0.1611 -0.9210 -1.4929
36141SOL    HW214261   6.833   1.836   8.540  1.2928 -4.1256 -0.9981
36142SOL     OW14262   6.987   5.932  12.160  0.1872  0.0381 -0.6596
36142SOL    HW114263   6.921   5.932  12.091  1.0930  0.9788 -1.5554
36142SOL    HW214264   7.039   6.011  12.144  1.7920 -0.8888 -0.2191
36143SOL     OW14265   8.894   0.970   0.012  0.0835 -0.1159 -0.3981
36143SOL    HW114266   8.979   0.927   0.022  0.2380  0.4369  0.7790
36143SOL    HW214267   8.894   1.003  -0.078  0.8529 -0.6515 -0.6023
36144SOL     OW14268   4.775   7.616   5.102 -0.4188  0.2936  0.3247
36144SOL    HW114269   4.844   7.679   5.082  0.0797 -0.1878  0.5060
36144SOL    HW214270   4.745   7.586   5.016 -1.3612  1.5126  0.2063
36145SOL     OW14271   6.538   3.098  10.609 -0.1162  0.1057  0.3027
36145SOL    HW114272   6.613   3.061  10.563 -1.3581 -0.8574 -1.0177
36145SOL    HW214273   6.480   3.024  10.626 -0.8062  0.8263  1.2751
36146SOL     OW14274   7.623   6.133  10.603  0.3782  0.0160  0.1250
36146SOL    HW114275   7.682   6.142  10.678  1.9746  0.1290 -1.0776
36146SOL    HW214276   7.665   6.066  10.548  0.0266  0.9477 -1.3357
36147SOL     OW14277  11.268   5.802   5.920  0.0148  0.5743 -0.1276
36147SOL    HW114278  11.210   5.819   5.994 -0.2580 -0.3052 -0.1321
36147SOL    HW214279  11.313   5.721   5.942  1.0625  1.1060 -0.2446
36148SOL     OW14280   4.561  11.069   5.237 -0.0028  0.5055 -0.0202
36148SOL    HW114281   4.584  11.098   5.148 -1.4688 -0.6454 -0.8154
36148SOL    HW214282   4.643  11.075   5.286  0.6383  2.0606 -1.1897
36149SOL     OW14283   0.546   7.428   8.847 -0.0766 -0.2081 -0.0527
36149SOL    HW114284   0.602   7.479   8.789  0.5687 -1.3338 -0.4428
36149SOL    HW214285   0.461   7.427   8.803 -0.1464  0.6269  0.0319
36150SOL     OW14286   1.013   9.740   0.330  0.6189 -0.1201 -0.2891
36150SOL    HW114287   0.978   9.777   0.411  0.8961 -0.9748  0.2408
36150SOL    HW214288   1.015   9.813   0.268 -0.3081  0.3667  0.2446
36151SOL     OW14289   4.524   4.666   3.391  0.2967 -1.0226 -0.4957
36151SOL    HW114290   4.590   4.731   3.368 -0.1741 -1.1427 -2.3611
36151SOL    HW214291   4.563   4.582   3.367 -0.0237 -1.2200 -0.3363
36152SOL     OW14292   5.977   4.172   7.644 -0.0306  0.2643  0.9776
36152SOL    HW114293   6.022   4.233   7.585 -2.4405  1.5857  0.3571
36152SOL    HW214294   6.017   4.087   7.626 -0.1751  0.7188 -2.1254
36153SOL     OW14295   3.725   4.598  11.716 -0.4759 -0.4728  0.0520
36153SOL    HW114296   3.748   4.562  11.801 -0.1436  1.5508  0.8873
36153SOL    HW214297   3.638   4.637  11.730 -1.4879 -2.1262 -1.2151
36154SOL     OW14298   0.335   8.591   5.930 -0.0051 -0.2381  0.1895
36154SOL    HW114299   0.424   8.608   5.899  0.5290 -0.6494  1.4272
36154SOL    HW214300   0.308   8.673   5.970 -1.1309  0.6665 -2.2341
36155SOL     OW14301   3.033   2.653   0.314  0.5840 -0.0773 -0.0209
36155SOL    HW114302   3.012   2.563   0.287 -0.7957  0.0394  0.5694
36155SOL    HW214303   3.074   2.642   0.401  0.8738 -0.1564 -0.1646
36156SOL     OW14304  11.114   3.963   4.287  0.9510  0.6955 -0.2061
36156SOL    HW114305  11.086   3.898   4.221  0.7918  1.5575 -1.0107
36156SOL    HW214306  11.083   4.047   4.252  0.3757  1.1166  1.2484
36157SOL     OW14307   3.356   7.284  12.292 -0.0562 -0.3982  0.3483
36157SOL    HW114308   3.440   7.239  12.305  0.0393  0.0636  1.4050
36157SOL    HW214309   3.311   7.275  12.376 -0.5631  0.3964  0.1679
36158SOL     OW14310   1.126  11.771   4.413  0.3159  0.3739  0.0374
36158SOL    HW114311   1.204  11.757   4.361  0.5570  0.1863  0.4436
36158SOL    HW214312   1.104  11.863   4.401  1.4205  0.7950  1.0359
36159SOL     OW14313  10.586   0.437   7.608 -0.0740 -0.2038  0.3616
36159SOL    HW114314  10.644   0.403   7.540 -0.7000 -1.6662  0.5271
36159SOL    HW214315  10.519   0.486   7.561 -0.5763 -1.3133 -0.1133
36160SOL     OW14316   2.267   3.231   4.916 -0.4180  0.2860 -0.4937
36160SOL    HW114317   2.209   3.169   4.872 -2.4958  1.2210  0.7983
36160SOL    HW214318   2.347   3.182   4.932 -2.0473 -2.1764  0.6761
36161SOL     OW14319   5.975   7.733   5.413  0.3196  0.1847  0.0483
36161SOL    HW114320   5.948   7.659   5.359  0.7682 -1.1025  1.4951
36161SOL    HW214321   6.063   7.754   5.383  0.6040 -0.5844  0.3088
36162SOL     OW14322  11.209  10.938  11.271 -0.0438  0.2112 -0.4687
36162SOL    HW114323  11.258  10.921  11.352 -0.6066  1.9505  0.2753
36162SOL    HW214324  11.264  10.998  11.222 -1.1682  1.8010  0.1608
36163SOL     OW14325   0.349   3.295  12.003  0.1116 -0.2135  0.1082
36163SOL    HW114326   0.302   3.348  11.938 -0.4978  0.4084  1.0270
36163SOL    HW214327   0.305   3.315  12.086  0.8454 -1.0256  0.7054
36164SOL     OW14328   7.965  11.720   2.039  0.7278  0.0729 -0.3094
36164SOL    HW114329   8.053  11.694   2.013  1.1976  0.4778  0.7896
36164SOL    HW214330   7.977  11.758   2.126 -0.7118 -0.9218  0.3419
36165SOL     OW14331   4.718   3.982   6.708 -0.3409  0.2774  0.4436
36165SOL    HW114332   4.804   3.998   6.670 -0.5632  1.9103  0.5498
36165SOL    HW214333   4.712   3.886   6.715  0.4128 -0.0068 -1.9509
36166SOL     OW14334   8.392   3.501  10.828 -0.4510 -0.4434 -0.1657
36166SOL    HW114335   8.313   3.503  10.775  0.1305 -0.9002 -1.0615
36166SOL    HW214336   8.413   3.408  10.837  1.1728 -0.2768 -1.7588
36167SOL     OW14337   0.406   7.581   7.406  0.0317  0.1158 -0.6024
36167SOL    HW114338   0.423   7.488   7.394  0.3251  0.1395 -0.3832
36167SOL    HW214339   0.316   7.593   7.377  0.2383 -0.0946 -1.3582
36168SOL     OW14340   2.397   5.476   2.034  0.1827 -0.0300  0.0206
36168SOL    HW114341   2.369   5.494   2.123  1.6909  0.4497  0.4177
36168SOL    HW214342   2.449   5.552   2.009  1.8010 -1.2269 -0.3843
36169SOL     OW14343   1.692   4.970   9.034  0.2593  0.1896  0.9602
36169SOL    HW114344   1.781   4.943   9.013 -0.1960  0.5068 -1.6941
36169SOL    HW214345   1.702   5.056   9.074  1.1048  0.5059  0.0934
36170SOL     OW14346   6.724  10.850   3.093  0.4655  0.0669 -0.0647
36170SOL    HW114347   6.726  10.782   3.025  1.7730  1.0761 -1.1103
36170SOL    HW214348   6.736  10.803   3.175  3.5393 -0.8657 -0.9181
36171SOL     OW14349   4.594   0.625   6.702 -0.2397  0.7366 -0.1968
36171SOL    HW114350   4.576   0.646   6.794  2.0011  0.5140  0.3727
36171SOL    HW214351   4.550   0.541   6.688  1.0090 -0.2452  1.3428
36172SOL     OW14352   2.365   7.217   1.588 -0.5833  0.0388 -0.0340
36172SOL    HW114353   2.426   7.290   1.591 -1.0462  0.4791 -0.9221
36172SOL    HW214354   2.317   7.222   1.671 -0.1143  0.2916  0.2236
36173SOL     OW14355   4.651   3.645   6.470 -0.0100  0.2300  0.5388
36173SOL    HW114356   4.659   3.602   6.385  0.8638 -0.4344  0.9490
36173SOL    HW214357   4.569   3.695   6.464  0.4354  0.8288 -0.9722
36174SOL     OW14358   8.595   6.045   9.491 -0.3640  0.2728 -0.2988
36174SOL    HW114359   8.671   6.090   9.453 -0.6508  1.9602  0.9692
36174SOL    HW214360   8.615   5.952   9.482  1.6513  0.6741 -0.4207
36175SOL     OW14361   6.480  12.292   1.605  0.3008 -0.3975  0.0791
36175SOL    HW114362   6.476  12.373   1.656  1.7033 -0.8733  0.9958
36175SOL    HW214363   6.528  12.316   1.526 -1.7013  0.2927 -1.0079
36176SOL     OW14364   0.800  10.217  11.904  0.5445  0.3002  0.2452
36176SOL    HW114365   0.719  10.194  11.949  1.7004  0.1282  2.3655
36176SOL    HW214366   0.780  10.205  11.811 -1.6976 -0.1820  0.7261
36177SOL     OW14367   7.974   7.896  11.140 -0.6097  0.5348 -0.1296
36177SOL    HW114368   7.907   7.957  11.169  0.8768  1.7727  0.8877
36177SOL    HW214369   8.035   7.890  11.215  0.5472 -0.3385 -1.0909
36178SOL     OW14370   4.813  10.758   7.895  0.5617 -0.0959 -0.2002
36178SOL    HW114371   4.879  10.806   7.845 -0.2087 -0.3048 -1.4592
36178SOL    HW214372   4.766  10.826   7.943 -2.3112  0.9430 -4.0153
36179SOL     OW14373   8.037   2.220   7.343  0.0401  0.0034 -0.2884
36179SOL    HW114374   8.098   2.267   7.399 -0.1585  0.2634 -0.2856
36179SOL    HW214375   7.973   2.182   7.404  1.3289 -2.0322 -0.0871
36180SOL     OW14376  11.407  10.931   0.143  0.2611 -0.0415  0.9232
36180SOL    HW114377  11.434  11.023   0.143  0.5259 -0.1051  1.7551
36180SOL    HW214378  11.343  10.925   0.073  0.6385  0.6613  0.5047
36181SOL     OW14379   5.989   0.388   3.921  0.2856 -0.5838 -0.2922
36181SOL    HW114380   6.027   0.447   3.987 -1.0487 -1.0146  0.9143
36181SOL    HW214381   6.027   0.418   3.838 -0.6996  2.3126  0.1810
36182SOL     OW14382   1.618   7.849   7.460 -0.1097 -0.2517 -0.2613
36182SOL    HW114383   1.645   7.940   7.448  2.2643 -0.9037 -0.3406
36182SOL    HW214384   1.580   7.824   7.376  0.2002  0.3505 -0.5898
36183SOL     OW14385   8.686   7.599   1.279 -0.3809  0.0556  0.3605
36183SOL    HW114386   8.758   7.622   1.338  0.8384 -0.3189 -0.9369
36183SOL    HW214387   8.680   7.672   1.218  0.4951 -0.9592 -0.9814
36184SOL     OW14388   6.241   5.518  10.840 -0.2451  0.4152 -0.2269
36184SOL    HW114389   6.297   5.542  10.913  0.7172 -0.8881 -0.5006
36184SOL    HW214390   6.206   5.601  10.808  1.4434  1.2561  0.0265
36185SOL     OW14391   7.215  11.523  11.982 -0.4734  0.2573 -0.0270
36185SOL    HW114392   7.300  11.557  11.953 -1.5469  2.6935 -0.5425
36185SOL    HW214393   7.237  11.453  12.043  1.9079  1.1216  0.2087
36186SOL     OW14394   0.019   8.556   9.088 -0.2963 -1.1183 -0.4715
36186SOL    HW114395   0.067   8.624   9.136 -0.9778 -0.6618 -0.4173
36186SOL    HW214396   0.058   8.474   9.118 -0.6895 -0.8418  0.8596
36187SOL     OW14397   5.471   0.202   5.529 -0.0973 -0.4019  0.2259
36187SOL    HW114398   5.548   0.166   5.485 -1.7403 -3.0013 -0.7600
36187SOL    HW214399   5.450   0.280   5.479  1.2234 -0.2815 -0.1968
36188SOL     OW14400  11.867   1.126   4.878  0.2710 -0.7812 -0.4088
36188SOL    HW114401  11.881   1.086   4.963 -2.0764  0.5090  0.6662
36188SOL    HW214402  11.892   1.218   4.890  0.0482 -0.6133 -1.1594
36189SOL     OW14403   2.390   2.920   7.360  0.1497 -0.3125  0.1391
36189SOL    HW114404   2.308   2.881   7.389  0.1338 -0.5820 -0.2553
36189SOL    HW214405   2.373   3.014   7.361  0.2404 -0.3014  1.2405
36190SOL     OW14406   7.614   2.496   5.289 -0.1620  0.4789 -0.5085
36190SOL    HW114407   7.603   2.564   5.355  1.5824 -0.0195  0.3555
36190SOL    HW214408   7.539   2.508   5.230 -0.3030  2.6733  0.0060
36191SOL     OW14409  11.559   0.286  10.259 -0.1735  0.1360 -0.0774
36191SOL    HW114410  11.604   0.274  10.343  0.2962 -0.5775 -0.4231
36191SOL    HW214411  11.529   0.198  10.235 -0.2203  0.3207 -0.7111
36192SOL     OW14412   6.897  10.537   7.361 -0.0097  0.3945  0.3381
36192SOL    HW114413   6.863  10.623   7.334 -1.7985 -0.0844  0.9349
36192SOL    HW214414   6.836  10.508   7.429  1.3712 -0.7471  1.1261
36193SOL     OW14415   8.385  10.860   2.669  0.1856  0.1240  0.1898
36193SOL    HW114416   8.294  10.832   2.673 -0.2024  1.3975  0.6314
36193SOL    HW214417   8.416  10.831   2.583 -0.1983 -1.5641  0.5828
36194SOL     OW14418  11.103   2.524   8.665 -0.6723  0.0777 -0.2046
36194SOL    HW114419  11.181   2.574   8.640 -0.5981  0.7916  1.3854
36194SOL    HW214420  11.123   2.435   8.638  0.7764  0.2146  0.3189
36195SOL     OW14421   9.303   8.684   6.014 -1.0319  0.3320  0.3814
36195SOL    HW114422   9.263   8.683   6.102 -0.6725  1.7033  0.5838
36195SOL    HW214423   9.387   8.640   6.026 -1.4950 -0.5682  0.4438
36196SOL     OW14424  12.181   9.209   3.830  0.2070 -0.4900  0.1048
36196SOL    HW114425  12.260   9.191   3.882  0.6857  0.3018 -0.3209
36196SOL    HW214426  12.171   9.304   3.835  0.3715 -0.3687 -1.3696
36197SOL     OW14427  10.383   2.927   7.919 -0.5012  0.3106 -0.0176
36197SOL    HW114428  10.313   2.932   7.985  0.7874 -0.7444  1.5388
36197SOL    HW214429  10.358   2.990   7.852 -2.5675  0.4847  0.8324
36198SOL     OW14430   5.389   8.601   2.197  0.0189  0.1302  0.1253
36198SOL    HW114431   5.463   8.647   2.157  0.4934  0.7870  1.6716
36198SOL    HW214432   5.367   8.654   2.274  0.1003 -1.8327  1.5666
36199SOL     OW14433   4.273   0.717   6.844  0.5380  0.3954 -0.0988
36199SOL    HW114434   4.307   0.801   6.875 -1.7043  1.5193 -0.5285
36199SOL    HW214435   4.209   0.691   6.911  1.3707 -1.1397  0.1552
36200SOL     OW14436   4.851   2.180   0.440  0.0392 -0.6800  0.1736
36200SOL    HW114437   4.869   2.194   0.533  0.0543 -0.3335  0.1206
36200SOL    HW214438   4.820   2.090   0.435 -1.5157 -0.2046  0.7323
36201SOL     OW14439  11.690   4.111   5.176 -0.2409  0.4800  0.0224
36201SOL    HW114440  11.633   4.036   5.159 -0.6996  0.5150  1.2615
36201SOL    HW214441  11.729   4.132   5.091 -0.5273 -0.8131 -0.4555
36202SOL     OW14442   8.386   5.635   5.724 -0.4590 -0.1465 -0.3442
36202SOL    HW114443   8.383   5.612   5.816  2.0334 -0.3671 -0.2290
36202SOL    HW214444   8.375   5.730   5.722 -2.4158 -0.3389 -0.0378
36203SOL     OW14445   0.873   0.476   9.494  0.2917  0.1480  0.1963
36203SOL    HW114446   0.813   0.407   9.466  0.5955 -0.3742  0.7732
36203SOL    HW214447   0.818   0.540   9.539  0.0586  0.0925 -0.0103
36204SOL     OW14448  11.700  10.310   4.592 -0.3828 -0.5504 -0.0922
36204SOL    HW114449  11.679  10.397   4.558 -0.4675 -0.2224  0.7740
36204SOL    HW214450  11.624  10.287   4.646  0.7085 -0.0521  1.7574
36205SOL     OW14451   6.355   7.623   7.799  0.0866  0.1851  0.1460
36205SOL    HW114452   6.298   7.572   7.741 -0.3554 -0.1829  0.8863
36205SOL    HW214453   6.361   7.570   7.879  1.2627  0.3503  0.1728
36206SOL     OW14454   2.254   6.295   0.560 -0.4737  0.5868  0.2815
36206SOL    HW114455   2.251   6.349   0.639 -0.3631 -0.4043  0.9845
36206SOL    HW214456   2.178   6.323   0.509 -0.9971  0.6991  1.1053
36207SOL     OW14457   1.124  11.842   2.590  0.3000 -0.3439  0.2724
36207SOL    HW114458   1.144  11.753   2.616  0.0042 -0.2195  0.9297
36207SOL    HW214459   1.099  11.835   2.498  0.5464 -0.8947  0.2451
36208SOL     OW14460  11.354   1.799   2.350  0.0675  0.4062 -0.5347
36208SOL    HW114461  11.393   1.714   2.370 -1.2780 -0.6420 -2.0995
36208SOL    HW214462  11.427   1.854   2.321  1.2661  0.4451  2.1852
36209SOL     OW14463   1.711   4.947   5.736  0.2372 -0.5098 -0.0963
36209SOL    HW114464   1.630   4.994   5.757  0.8470  1.2297 -1.3272
36209SOL    HW214465   1.685   4.882   5.671 -0.3221 -0.5313  0.1474
36210SOL     OW14466   2.209   6.426   1.623  0.4889  0.3976 -0.1185
36210SOL    HW114467   2.296   6.387   1.624 -0.0783 -0.9680 -1.1722
36210SOL    HW214468   2.154   6.364   1.672 -0.2215  0.3987 -0.9029
36211SOL     OW14469   9.107   3.430   5.999 -0.1611  0.0623  0.3956
36211SOL    HW114470   9.040   3.473   6.054  0.3588  0.3823  0.7941
36211SOL    HW214471   9.190   3.459   6.037  0.2697  1.9342 -1.7836
36212SOL     OW14472   9.666   3.069   0.705 -0.3499 -0.5738 -0.3712
36212SOL    HW114473   9.587   3.066   0.650  0.0325 -1.0260 -0.9135
36212SOL    HW214474   9.735   3.036   0.648 -0.0089 -1.3921  0.4998
36213SOL     OW14475   4.929   0.684   5.781 -0.1929  0.2169 -0.4357
36213SOL    HW114476   4.923   0.780   5.779 -0.5570  0.1790 -1.3471
36213SOL    HW214477   4.997   0.667   5.847 -1.7294  1.0037  1.4550
36214SOL     OW14478  11.718   0.472  10.764 -0.0110  0.5528 -0.0339
36214SOL    HW114479  11.709   0.379  10.743  1.1935  0.6553 -1.1204
36214SOL    HW214480  11.628   0.502  10.777 -0.4368 -0.6940  0.0480
36215SOL     OW14481  12.317   8.731   7.482 -0.1571  0.0055 -0.2118
36215SOL    HW114482  12.238   8.686   7.514  0.2224 -1.5448 -1.3716
36215SOL    HW214483  12.320   8.710   7.389  2.3201 -1.0418  0.0434
36216SOL     OW14484   3.130   3.640   5.752  0.1645  0.1017  0.1529
36216SOL    HW114485   3.144   3.644   5.658  1.0831  1.2405  0.3097
36216SOL    HW214486   3.218   3.633   5.789 -0.0875  1.0185  0.9662
36217SOL     OW14487   3.961   1.988  11.542 -0.1655  0.3712  0.1296
36217SOL    HW114488   3.895   1.920  11.558  0.9528 -0.6560  0.5081
36217SOL    HW214489   3.981   2.024  11.628  1.3143 -0.8269  0.3206
36218SOL     OW14490   5.933  10.611   8.714 -0.1705  0.1062  0.3992
36218SOL    HW114491   6.007  10.564   8.675  0.6978  2.6182 -1.1873
36218SOL    HW214492   5.856  10.562   8.685  0.7402 -1.6415  0.7653
36219SOL     OW14493   0.326   3.222   4.079 -0.1095  0.4813 -0.0230
36219SOL    HW114494   0.239   3.217   4.119  0.1602  1.0145  0.6529
36219SOL    HW214495   0.309   3.250   3.989 -0.7122 -0.6015 -0.2658
36220SOL     OW14496   0.610  10.699   5.089  0.2147  0.0771 -0.1092
36220SOL    HW114497   0.549  10.705   5.016 -0.9940 -0.5536  0.8109
36220SOL    HW214498   0.636  10.607   5.091 -0.2932 -0.0585  0.6570
36221SOL     OW14499   5.700   5.416   8.151 -0.5041 -0.2242  0.3469
36221SOL    HW114500   5.713   5.354   8.222  0.1301  0.0433  0.4660
36221SOL    HW214501   5.621   5.464   8.175  0.5512  0.9271  1.6503
36222SOL     OW14502   2.764   0.900   0.170 -0.1588  0.6027 -0.5464
36222SOL    HW114503   2.711   0.826   0.139  0.7988 -0.2235 -0.2500
36222SOL    HW214504   2.840   0.901   0.113 -0.6536  2.0311 -1.2177
36223SOL     OW14505  10.256   0.779   2.064 -0.3231 -0.3339 -0.7676
36223SOL    HW114506  10.198   0.802   2.137 -0.7409 -0.0098 -1.1927
36223SOL    HW214507  10.202   0.788   1.986 -0.1809 -1.7246 -1.0522
36224SOL     OW14508   4.727   6.970  11.041 -0.2451 -0.6282  0.0806
36224SOL    HW114509   4.637   6.936  11.035 -1.3134  1.3169  2.8986
36224SOL    HW214510   4.727   7.047  10.984  0.0905 -1.4084 -0.9946
36225SOL     OW14511   7.299   3.968   6.894 -0.2771 -0.0718 -0.8378
36225SOL    HW114512   7.339   3.884   6.918 -1.7708  0.0583  2.8907
36225SOL    HW214513   7.373   4.028   6.886  0.6221 -0.9742  0.3127
36226SOL     OW14514   4.059   9.474   6.441 -0.4472 -0.3216 -0.1710
36226SOL    HW114515   4.087   9.528   6.514 -3.4834 -0.9145  1.5973
36226SOL    HW214516   4.138   9.426   6.415  0.8212  0.1053  2.5253
36227SOL     OW14517   9.353  11.663   9.318 -0.1491  0.4050  0.2064
36227SOL    HW114518   9.289  11.649   9.248  0.6375 -0.1043 -0.4272
36227SOL    HW214519   9.397  11.745   9.294  1.0368 -0.4577 -0.6281
36228SOL     OW14520   7.310   2.522  11.366  0.1755 -0.1996  0.4372
36228SOL    HW114521   7.248   2.578  11.413 -0.3269  0.7288 -1.2662
36228SOL    HW214522   7.256   2.457  11.322  0.3260  0.7382 -1.2257
36229SOL     OW14523   8.230  10.890  11.639  0.1454  0.7891 -0.1481
36229SOL    HW114524   8.222  10.796  11.624  0.4183  0.8600 -0.7742
36229SOL    HW214525   8.247  10.927  11.553  0.5770  1.3541  0.1693
36230SOL     OW14526   3.202   4.218  11.303  0.2312  0.0166  0.3800
36230SOL    HW114527   3.175   4.144  11.358  1.1560 -0.7714 -0.1875
36230SOL    HW214528   3.287   4.192  11.269  1.0605  1.8238  1.0010
36231SOL     OW14529   2.950   7.178   0.656 -0.0883  0.5240 -0.6367
36231SOL    HW114530   2.914   7.139   0.737 -1.0033  2.2750 -0.1469
36231SOL    HW214531   2.904   7.132   0.586 -1.7936  1.2477 -0.0550
36232SOL     OW14532   3.699   5.034   1.584 -0.0534 -0.2757 -0.0642
36232SOL    HW114533   3.625   4.973   1.578  0.0337 -0.3181 -0.7780
36232SOL    HW214534   3.769   4.982   1.624 -1.0117  0.3479  2.6093
36233SOL     OW14535   4.161   6.787   1.218  0.0012 -0.3196 -0.5413
36233SOL    HW114536   4.145   6.695   1.197 -1.3083 -0.3858  0.5668
36233SOL    HW214537   4.074   6.821   1.240  0.8490  0.3131  2.2149
36234SOL     OW14538   5.615   7.336   1.775 -0.0617 -0.5248 -0.3523
36234SOL    HW114539   5.545   7.292   1.727 -0.0805 -0.0651 -0.7615
36234SOL    HW214540   5.637   7.412   1.721 -1.2247  0.9498  1.1452
36235SOL     OW14541   3.387   1.763   4.053  0.1665  0.7944  0.1096
36235SOL    HW114542   3.349   1.678   4.076 -0.7737  0.8763 -1.0666
36235SOL    HW214543   3.374   1.817   4.131  1.1197 -0.2333  1.0104
36236SOL     OW14544   6.954   4.976   5.717 -0.3198  0.1249  0.0789
36236SOL    HW114545   6.904   5.057   5.725 -0.7474 -0.0911 -0.2722
36236SOL    HW214546   7.009   4.972   5.795 -0.8379  0.3904  0.4617
36237SOL     OW14547   0.984   5.851   4.674  0.3668 -0.6590  0.0323
36237SOL    HW114548   0.908   5.824   4.725 -1.2533  2.8395 -0.2437
36237SOL    HW214549   0.947   5.877   4.589  1.7254  1.6146  0.0641
36238SOL     OW14550   5.724   3.065   8.003  0.6599 -0.4221  0.1227
36238SOL    HW114551   5.792   3.131   7.988 -1.4158  1.7574 -0.3001
36238SOL    HW214552   5.702   3.034   7.915 -0.9940  1.2154 -0.1051
36239SOL     OW14553   1.360   2.223   3.297  0.1246  0.7751 -0.3291
36239SOL    HW114554   1.346   2.128   3.300 -0.6388  0.8656 -0.8613
36239SOL    HW214555   1.311   2.257   3.371 -0.4284  0.8495 -0.7274
36240SOL     OW14556   5.659  11.583   6.378  0.2238 -0.3983 -0.1724
36240SOL    HW114557   5.693  11.600   6.466 -0.9614 -2.0347  0.6582
36240SOL    HW214558   5.679  11.491   6.362  1.0180  0.0386 -1.9246
36241SOL     OW14559   2.442  12.195   6.482 -0.4656  0.1997  1.3979
36241SOL    HW114560   2.393  12.270   6.449 -1.7068 -1.2993 -0.3466
36241SOL    HW214561   2.376  12.127   6.498  0.9040 -1.7049 -0.4602
36242SOL     OW14562  10.621   5.468   7.455 -0.0781  0.4150  0.1652
36242SOL    HW114563  10.601   5.465   7.548  0.8460  0.4601  0.3768
36242SOL    HW214564  10.574   5.545   7.423  0.6136  1.1368  0.8538
36243SOL     OW14565  10.660   0.011  10.698 -0.2194  0.2247  0.1814
36243SOL    HW114566  10.714  -0.066  10.680 -0.5197  0.1353 -0.3376
36243SOL    HW214567  10.580  -0.025  10.735 -0.1045  0.3313  0.5376
36244SOL     OW14568   7.814   8.660  11.530  0.0291 -0.3546 -0.0774
36244SOL    HW114569   7.890   8.717  11.532  0.7626 -1.2958 -0.3044
36244SOL    HW214570   7.801   8.640  11.438 -0.7924  0.1803 -0.0843
36245SOL     OW14571   8.474  10.282   6.205 -0.0569 -0.1594 -0.3413
36245SOL    HW114572   8.550  10.316   6.251  1.3194 -0.2625 -2.4133
36245SOL    HW214573   8.456  10.346   6.137 -0.4868 -1.1636 -1.2023
36246SOL     OW14574  11.492   5.685   5.472 -0.4254  0.1324  0.4346
36246SOL    HW114575  11.400   5.690   5.498 -0.4767  0.4415  0.2126
36246SOL    HW214576  11.525   5.605   5.513 -1.0082 -0.4258 -0.1644
36247SOL     OW14577   1.821  11.598   5.231 -0.3324  0.1344  0.0025
36247SOL    HW114578   1.803  11.532   5.164  0.6162 -1.2577  1.0469
36247SOL    HW214579   1.912  11.624   5.214 -0.7232  1.2367 -0.4402
36248SOL     OW14580  11.153   4.676   6.227 -0.0591  0.6939  0.3103
36248SOL    HW114581  11.176   4.663   6.319  0.5069 -3.0023 -0.2171
36248SOL    HW214582  11.059   4.692   6.229 -0.4967 -1.5727  1.4878
36249SOL     OW14583   0.446   6.359   6.781 -0.3731 -0.1624 -0.0698
36249SOL    HW114584   0.485   6.431   6.831 -2.5353  1.7495 -0.9598
36249SOL    HW214585   0.357   6.353   6.815 -0.1036 -2.9034  0.3900
36250SOL     OW14586   5.123   0.713  10.649 -0.7356 -0.3192 -0.6913
36250SOL    HW114587   5.149   0.789  10.597  0.1238 -0.7738 -0.9427
36250SOL    HW214588   5.196   0.699  10.709 -1.0652 -0.7114 -0.3695
36251SOL     OW14589   1.122   2.706   2.514  0.2166  0.4439 -0.1247
36251SOL    HW114590   1.030   2.696   2.488  0.5218  0.2944 -1.1985
36251SOL    HW214591   1.166   2.736   2.435  1.0231  0.9624  0.5030
36252SOL     OW14592  10.141   2.143   5.921 -0.5871  0.2034 -0.5322
36252SOL    HW114593  10.140   2.049   5.903 -2.2692  0.4096 -1.8708
36252SOL    HW214594  10.194   2.180   5.851 -1.3365  0.3739 -1.0286
36253SOL     OW14595   3.551   1.029   4.615 -0.4040 -0.0919  0.0226
36253SOL    HW114596   3.499   1.048   4.538 -0.5974  0.4881  0.2917
36253SOL    HW214597   3.615   1.100   4.619 -1.8652  1.2232  1.6821
36254SOL     OW14598  11.616   4.587  12.142 -0.2273 -0.3093 -0.4208
36254SOL    HW114599  11.697   4.536  12.143 -0.7133 -1.1597 -1.3512
36254SOL    HW214600  11.594   4.595  12.049 -0.6035  0.9049 -0.2411
36255SOL     OW14601   8.927   7.747  12.061 -0.3466  0.4925  0.3670
36255SOL    HW114602   8.947   7.760  12.154 -1.2974  0.2569  0.6159
36255SOL    HW214603   8.946   7.654  12.046  1.7251  0.9512 -0.1932
36256SOL     OW14604  10.431  10.222   4.554  0.9380  0.7498  0.3745
36256SOL    HW114605  10.415  10.262   4.639 -1.9852  0.0952  0.2462
36256SOL    HW214606  10.460  10.294   4.498 -0.8472  2.0305  1.0065
36257SOL     OW14607   0.790   1.105  11.951 -0.1754 -0.1239  0.0175
36257SOL    HW114608   0.849   1.035  11.979 -0.3302  0.1245  1.0084
36257SOL    HW214609   0.778   1.090  11.857  1.3224 -0.2782 -0.1772
36258SOL     OW14610  11.472  10.688   4.141 -0.0044 -0.8817 -0.0675
36258SOL    HW114611  11.417  10.730   4.207 -0.6087  0.0473 -1.1284
36258SOL    HW214612  11.538  10.753   4.119 -1.4430 -0.0661 -2.3310
36259SOL     OW14613   4.720   6.448   2.119  0.4645 -0.4343 -0.2717
36259SOL    HW114614   4.804   6.454   2.074  0.0227 -2.0602 -1.3944
36259SOL    HW214615   4.662   6.504   2.068  0.6737  0.1298  0.0928
36260SOL     OW14616   7.026  11.454   8.081 -0.4144  0.1358 -0.1134
36260SOL    HW114617   6.935  11.451   8.051 -0.1764  1.8410 -1.1518
36260SOL    HW214618   7.043  11.547   8.097  1.2661 -0.0873 -0.3743
36261SOL     OW14619   5.408   3.329   8.783 -0.4946 -1.0305 -0.4296
36261SOL    HW114620   5.425   3.282   8.701  2.6920 -0.8911  0.0347
36261SOL    HW214621   5.415   3.421   8.759 -0.9765 -0.9391 -0.2348
36262SOL     OW14622  10.450   6.184  11.758 -0.1195  0.2470 -0.3788
36262SOL    HW114623  10.372   6.165  11.811  0.1688 -2.0497 -0.6864
36262SOL    HW214624  10.418   6.183  11.668  0.3045 -1.0934 -0.5310
36263SOL     OW14625   2.935   1.427  10.217 -0.3455  0.3005 -0.5312
36263SOL    HW114626   2.853   1.466  10.186 -0.9039 -0.7762 -0.4650
36263SOL    HW214627   3.003   1.486  10.186 -1.1720  1.4524 -0.2167
36264SOL     OW14628   8.310   7.240   6.829  0.5697  0.1693 -0.9239
36264SOL    HW114629   8.281   7.297   6.758  0.6347  1.4656  0.0403
36264SOL    HW214630   8.276   7.154   6.807 -0.3392  0.7707 -1.9655
36265SOL     OW14631  11.517   9.992   7.526  0.0318 -0.6292  0.6065
36265SOL    HW114632  11.579  10.057   7.491 -3.5267  2.2086 -1.0462
36265SOL    HW214633  11.513  10.011   7.619  2.2828 -1.5587  0.9501
36266SOL     OW14634   4.715  11.486   1.645 -0.6074 -0.1160 -0.0719
36266SOL    HW114635   4.626  11.451   1.642 -0.8250  0.2524  1.2993
36266SOL    HW214636   4.706  11.575   1.609 -0.8520  0.0094  0.2877
36267SOL     OW14637  10.847  11.176   7.459  0.5425  0.1470  0.3458
36267SOL    HW114638  10.794  11.183   7.539  2.2166  0.9124  1.4551
36267SOL    HW214639  10.937  11.182   7.490  1.3863 -2.3273 -1.3293
36268SOL     OW14640   3.011  11.516  11.521  0.2334 -0.1165  0.1385
36268SOL    HW114641   2.948  11.478  11.583  0.2432  0.8761  0.7882
36268SOL    HW214642   3.038  11.598  11.563  0.1654  0.6339 -1.2465
36269SOL     OW14643  12.220   3.460   1.200  0.0291 -0.1254  0.1536
36269SOL    HW114644  12.255   3.445   1.288 -0.2315  0.8562  0.4420
36269SOL    HW214645  12.295   3.448   1.142  0.9765  2.1909  0.7788
36270SOL     OW14646   9.299   8.945   2.606 -0.1141  0.1931  0.4449
36270SOL    HW114647   9.210   8.917   2.627 -0.2934  0.2815 -0.1903
36270SOL    HW214648   9.350   8.864   2.600 -0.4267  0.0550 -0.4477
36271SOL     OW14649   0.021   3.791   3.563 -0.1208  0.1500  0.5884
36271SOL    HW114650  -0.028   3.749   3.634 -1.3930  1.6433  0.6465
36271SOL    HW214651  -0.002   3.740   3.485 -1.0343  0.2565  0.7747
36272SOL     OW14652   0.847   9.607  11.591 -0.3952  0.0863  0.8188
36272SOL    HW114653   0.915   9.601  11.524 -0.6329  3.4284  0.1004
36272SOL    HW214654   0.766   9.590  11.543 -0.4301  0.8853  0.5794
36273SOL     OW14655   7.416  11.601   0.359 -0.1297  0.0915 -0.3144
36273SOL    HW114656   7.377  11.576   0.275  0.7016 -0.0985 -0.6564
36273SOL    HW214657   7.414  11.697   0.360 -1.4283  0.0700  0.0794
36274SOL     OW14658   2.753   0.308   5.785  0.2314  0.0294 -0.0084
36274SOL    HW114659   2.748   0.227   5.835  1.3159 -0.2711 -0.3629
36274SOL    HW214660   2.663   0.340   5.782 -0.0287 -0.5503  1.1305
36275SOL     OW14661   6.417   9.943  11.673  0.1356 -0.6017 -0.5061
36275SOL    HW114662   6.347   9.892  11.634  0.4676 -0.3842 -1.3980
36275SOL    HW214663   6.496   9.892  11.656  0.1896 -0.9402  0.6560
36276SOL     OW14664   1.856   3.091  12.225 -0.2100  0.3677 -0.1325
36276SOL    HW114665   1.899   3.054  12.148 -0.7452  1.2166 -0.8480
36276SOL    HW214666   1.863   3.186  12.214  0.3027  0.5148  1.2081
36277SOL     OW14667   2.092   1.307  11.486  0.1346  0.4427 -0.3385
36277SOL    HW114668   2.103   1.295  11.580 -1.4580 -2.8675 -0.4193
36277SOL    HW214669   2.178   1.285  11.449  0.9195  2.2713  0.2997
36278SOL     OW14670   6.821   7.460   0.545 -0.8954  0.2926  0.1002
36278SOL    HW114671   6.761   7.389   0.567  0.7801 -1.3043 -0.2683
36278SOL    HW214672   6.905   7.434   0.583 -0.2703  2.1859  0.1122
36279SOL     OW14673   4.420   0.009   5.135  0.6637  0.2526  0.0712
36279SOL    HW114674   4.359   0.082   5.143  0.5419  0.0846  0.6523
36279SOL    HW214675   4.473   0.013   5.214 -0.6710 -1.5073  1.1279
36280SOL     OW14676   9.985   8.146  11.886  0.0777 -0.1333 -0.3928
36280SOL    HW114677   9.997   8.079  11.819  1.9163 -0.0862 -0.1488
36280SOL    HW214678  10.022   8.226  11.847  1.0280 -0.0760  0.5972
36281SOL     OW14679   0.492   2.396   5.202 -0.2895  0.1233  0.5872
36281SOL    HW114680   0.526   2.485   5.204 -0.0324  0.0485 -0.2374
36281SOL    HW214681   0.422   2.395   5.268  1.7742  0.0574  2.9134
36282SOL     OW14682   8.548   1.615   6.222  0.3819 -0.4219 -0.4896
36282SOL    HW114683   8.630   1.626   6.175  0.8702 -2.5571 -0.2534
36282SOL    HW214684   8.491   1.570   6.159  0.4138 -1.5892  0.2707
36283SOL     OW14685   3.044   3.228  11.022  0.3220  0.0870 -0.5044
36283SOL    HW114686   3.101   3.304  11.013 -1.3388  1.4569  0.0302
36283SOL    HW214687   2.998   3.242  11.105  0.2026 -1.6797 -0.2259
36284SOL     OW14688  11.008   7.215   4.692  0.0113 -0.1228 -0.3560
36284SOL    HW114689  11.065   7.292   4.701  0.2982 -0.3676 -0.0562
36284SOL    HW214690  10.922   7.246   4.722  0.2708 -0.0881  0.3869
36285SOL     OW14691   3.783   8.464   4.867 -0.2287 -0.0908 -0.8873
36285SOL    HW114692   3.843   8.393   4.843  0.4566 -0.1335  0.8653
36285SOL    HW214693   3.698   8.421   4.876 -0.1863 -0.3462 -1.6039
36286SOL     OW14694  12.317  11.143   7.414 -0.1896 -0.2190  0.1017
36286SOL    HW114695  12.234  11.116   7.374 -2.4750  3.0832  2.0945
36286SOL    HW214696  12.304  11.130   7.507  1.5765  0.3629  0.4719
36287SOL     OW14697   6.046   2.757   3.444  0.1671 -0.3350  0.0759
36287SOL    HW114698   6.008   2.752   3.356 -1.2531 -0.1031  0.6604
36287SOL    HW214699   5.977   2.726   3.502  1.2696 -0.9782  1.0881
36288SOL     OW14700   6.601  10.077   0.856  0.3546 -0.4362  0.2406
36288SOL    HW114701   6.562  10.034   0.932 -2.8741  0.0884 -0.9439
36288SOL    HW214702   6.613  10.006   0.792  0.2865 -0.4182  0.2081
36289SOL     OW14703  11.488   8.856   5.906 -0.2029 -0.7082  0.2592
36289SOL    HW114704  11.428   8.921   5.870 -0.1521 -0.0974  1.2433
36289SOL    HW214705  11.520   8.808   5.829 -2.5498 -1.6042 -0.2223
36290SOL     OW14706   5.144   0.896  10.465  0.3492 -0.4702 -0.6779
36290SOL    HW114707   5.097   0.973  10.432 -0.9913 -0.3712  1.2621
36290SOL    HW214708   5.182   0.855  10.387 -1.4719  0.4702 -2.1320
36291SOL     OW14709   7.820   7.815   5.219  0.2156  0.4236 -0.0564
36291SOL    HW114710   7.861   7.753   5.159 -3.1780  0.2995 -2.5582
36291SOL    HW214711   7.825   7.773   5.304  1.8258 -1.2461 -0.8964
36292SOL     OW14712   0.308   4.739   0.764  0.2599 -0.5215  0.4908
36292SOL    HW114713   0.328   4.715   0.673  1.4972  0.1771  0.5559
36292SOL    HW214714   0.281   4.831   0.759 -1.1508 -0.8889  0.6698
36293SOL     OW14715   0.406   4.536   9.920 -0.0438  0.2442 -0.5199
36293SOL    HW114716   0.401   4.553   9.826  0.4391 -0.2980 -0.6506
36293SOL    HW214717   0.316   4.547   9.952 -0.8691 -2.6214 -1.5772
36294SOL     OW14718   5.758   5.247   9.387 -0.6019 -0.4097 -0.4696
36294SOL    HW114719   5.675   5.293   9.377 -0.6163 -0.6156 -1.4228
36294SOL    HW214720   5.738   5.173   9.444 -0.8990 -0.0375 -0.0840
36295SOL     OW14721   6.839   9.076   7.125 -0.0945 -0.4931  0.0380
36295SOL    HW114722   6.746   9.083   7.147 -0.0029 -0.4505  0.4183
36295SOL    HW214723   6.883   9.131   7.190  0.2997 -1.4778  0.6321
36296SOL     OW14724   3.539   6.077   2.697 -0.6147 -0.0889 -0.6186
36296SOL    HW114725   3.520   6.051   2.607 -3.0447 -0.4210 -0.1103
36296SOL    HW214726   3.481   6.152   2.713  1.7393  1.7242 -0.1061
36297SOL     OW14727   1.585   8.676   2.895 -0.1430  0.0805 -1.0451
36297SOL    HW114728   1.673   8.671   2.856 -0.2433  0.1815 -1.2851
36297SOL    HW214729   1.567   8.769   2.902 -0.5299  0.0586 -1.6804
36298SOL     OW14730   8.893   6.842   9.095  0.1332  0.4634  0.2147
36298SOL    HW114731   8.857   6.779   9.158  1.4286 -0.6135 -0.0837
36298SOL    HW214732   8.869   6.806   9.009 -1.2561  1.7015  0.0361
36299SOL     OW14733   7.652  12.045   9.630  0.3072  0.4265 -0.5585
36299SOL    HW114734   7.692  11.968   9.671  1.3332  1.2929  0.1237
36299SOL    HW214735   7.672  12.117   9.690 -1.0691  1.1504 -0.9342
36300SOL     OW14736   4.280   7.235   0.720  0.4941 -0.2176  0.4035
36300SOL    HW114737   4.356   7.263   0.771  1.3685 -0.0822 -0.9014
36300SOL    HW214738   4.276   7.141   0.732  2.2740 -0.5684 -1.2480
36301SOL     OW14739  10.789   3.767   5.250 -0.2938  0.5920  0.0681
36301SOL    HW114740  10.763   3.854   5.280  0.1174  0.4390  0.9179
36301SOL    HW214741  10.725   3.708   5.291  0.2432  0.3839  0.6305
36302SOL     OW14742   1.764  11.451  11.864 -0.0746  0.3066 -0.8830
36302SOL    HW114743   1.801  11.392  11.930  0.9892  1.4963 -0.3708
36302SOL    HW214744   1.746  11.395  11.789  0.4626 -0.7508 -0.2439
36303SOL     OW14745  10.245   2.198   8.465  0.1902 -0.0916  1.0568
36303SOL    HW114746  10.265   2.288   8.489 -0.1770  0.3391 -0.1492
36303SOL    HW214747  10.167   2.176   8.516 -0.9685  1.0227 -0.1439
36304SOL     OW14748   4.170   5.774   6.707  0.7758 -0.6658  0.3577
36304SOL    HW114749   4.262   5.746   6.709  0.8271 -0.5319  2.0945
36304SOL    HW214750   4.155   5.808   6.795 -1.2581 -1.6933  0.4533
36305SOL     OW14751   0.077   8.053   3.865  0.1108  0.3883 -0.4118
36305SOL    HW114752   0.083   8.033   3.771 -1.1982 -2.2154 -0.0482
36305SOL    HW214753  -0.017   8.062   3.881 -0.2415 -3.7470  1.2700
36306SOL     OW14754  12.083   0.328  11.909  0.0392 -0.0752 -0.4180
36306SOL    HW114755  12.060   0.394  11.843  0.4970  1.5397  0.9450
36306SOL    HW214756  12.015   0.261  11.901 -1.1269  1.1405 -1.0947
36307SOL     OW14757   5.161   6.144   0.424  0.2286  0.1079  0.2244
36307SOL    HW114758   5.094   6.147   0.355 -2.0249 -0.4301  2.2590
36307SOL    HW214759   5.139   6.066   0.475  1.7099  0.5827  1.6715
36308SOL     OW14760   1.630   0.549  10.972 -0.2486  0.4635  0.5195
36308SOL    HW114761   1.599   0.459  10.959 -0.8128  0.6636  0.4714
36308SOL    HW214762   1.582   0.600  10.907  0.1955  0.7775  0.4364
36309SOL     OW14763   4.860   3.889   4.551 -0.0135 -0.4600 -0.1100
36309SOL    HW114764   4.829   3.915   4.638  1.9763 -0.6021  0.7047
36309SOL    HW214765   4.955   3.877   4.562  0.3949  0.0593 -2.4372
36310SOL     OW14766   6.980   3.615   7.743 -0.6412 -0.3103  0.4538
36310SOL    HW114767   6.945   3.660   7.666  1.8781  2.8022  0.9504
36310SOL    HW214768   7.021   3.536   7.707 -1.6086 -0.1876 -1.0453
36311SOL     OW14769   9.476  11.179  11.929  0.4298  0.2631 -0.3703
36311SOL    HW114770   9.426  11.255  11.958 -0.2527 -0.0061 -0.8085
36311SOL    HW214771   9.413  11.106  11.931  0.5862  0.0606 -1.6149
36312SOL     OW14772   0.238  10.287  11.560  0.1378 -0.1689 -0.1310
36312SOL    HW114773   0.228  10.197  11.529  1.2961 -1.3392  2.5256
36312SOL    HW214774   0.172  10.296  11.630 -0.1036  1.1390 -0.4985
36313SOL     OW14775   6.058   6.487   6.929 -0.3968  0.0196  0.1945
36313SOL    HW114776   6.091   6.450   6.847  0.3163  2.4857 -0.7153
36313SOL    HW214777   6.123   6.463   6.994  0.7551  0.7851 -0.6413
36314SOL     OW14778   9.119   4.386   8.057  0.1215  0.2699 -0.2394
36314SOL    HW114779   9.120   4.419   8.147 -1.7284 -0.9643  0.3037
36314SOL    HW214780   9.178   4.444   8.009  0.9279  1.1325  1.7015
36315SOL     OW14781   2.291   5.462   6.986 -0.1893  0.2482  0.1659
36315SOL    HW114782   2.350   5.389   6.965  1.7189  0.9256  2.6559
36315SOL    HW214783   2.320   5.492   7.072 -1.7884  3.1063 -0.1625
36316SOL     OW14784   4.520   6.756   1.081 -0.2177  0.4794  0.0300
36316SOL    HW114785   4.610   6.755   1.115 -0.2470 -0.6703  0.1128
36316SOL    HW214786   4.493   6.848   1.088  0.7513  0.7440  0.5192
36317SOL     OW14787   8.199   3.045   8.355 -0.0757  0.1390 -0.2799
36317SOL    HW114788   8.273   3.081   8.403 -1.8517  0.8789  2.1205
36317SOL    HW214789   8.227   2.957   8.328  0.7200 -0.8595  3.2618
36318SOL     OW14790   4.205   7.529   0.420 -0.0494  0.0811  0.0596
36318SOL    HW114791   4.215   7.565   0.508  0.4701  0.5271 -0.1762
36318SOL    HW214792   4.165   7.443   0.434 -0.5189  0.3954  0.6859
36319SOL     OW14793   0.967   2.756  10.262 -0.2918 -0.1553 -0.3732
36319SOL    HW114794   0.946   2.755  10.168  0.2524 -2.3275 -0.5150
36319SOL    HW214795   1.063   2.750  10.265 -0.0698  2.2864  0.3590
36320SOL     OW14796   7.219   2.206  10.844  0.0998  0.0786 -0.2592
36320SOL    HW114797   7.248   2.289  10.807 -0.0436 -0.1085 -0.7952
36320SOL    HW214798   7.299   2.153  10.850  0.1314  0.1272 -0.2538
36321SOL     OW14799   4.395  10.421   4.124 -0.7342  0.6644  0.5635
36321SOL    HW114800   4.464  10.360   4.152 -0.3618  1.1791  0.7943
36321SOL    HW214801   4.443  10.492   4.082 -0.9625  1.8722  2.2400
36322SOL     OW14802  11.355   9.303   4.722  0.8689  0.8369  0.0643
36322SOL    HW114803  11.419   9.233   4.710  1.8267  1.5690  0.7000
36322SOL    HW214804  11.378   9.368   4.656 -0.4994  0.2612 -1.0422
36323SOL     OW14805   4.278  11.373   8.433 -0.2682 -0.8203  0.0780
36323SOL    HW114806   4.201  11.348   8.483 -0.8189  1.1536  0.3250
36323SOL    HW214807   4.243  11.426   8.361  0.8765  0.8457  0.6849
36324SOL     OW14808   2.301   5.229   7.766 -0.5620  0.0314 -0.4436
36324SOL    HW114809   2.259   5.222   7.680 -1.0059  0.1112 -0.2352
36324SOL    HW214810   2.274   5.149   7.812  0.7937 -0.6869 -0.8595
36325SOL     OW14811   8.942   9.783   6.887  0.6265 -0.3003 -0.0865
36325SOL    HW114812   8.905   9.705   6.929 -0.1609  1.6075  3.1338
36325SOL    HW214813   8.873   9.815   6.830  0.8462 -1.7314 -1.2041
36326SOL     OW14814  11.531   4.259   4.442  0.4386  0.1948  0.1248
36326SOL    HW114815  11.578   4.197   4.386  0.3630 -0.7999  1.1400
36326SOL    HW214816  11.568   4.344   4.418  1.3417 -0.3474 -0.5023
36327SOL     OW14817   8.774  11.205   6.959  0.1893 -0.3130 -0.3062
36327SOL    HW114818   8.714  11.162   7.020  0.6069 -0.8527 -0.2770
36327SOL    HW214819   8.825  11.134   6.920 -1.0032 -0.1562 -2.3159
36328SOL     OW14820   1.700   8.563   5.319  0.6424  0.1191  0.8965
36328SOL    HW114821   1.741   8.632   5.371 -1.5896  0.9148  1.7304
36328SOL    HW214822   1.633   8.609   5.267  1.2683 -0.9848 -0.9874
36329SOL     OW14823   6.413   6.004  11.636 -0.0327 -0.2639 -0.5019
36329SOL    HW114824   6.385   5.938  11.572 -1.3682 -2.3095  1.9577
36329SOL    HW214825   6.367   6.084  11.610 -1.5176 -1.3542 -1.4133
36330SOL     OW14826   4.738   9.332   4.318 -0.7881  0.1405  0.1506
36330SOL    HW114827   4.790   9.375   4.386 -2.3189  1.6160  0.4657
36330SOL    HW214828   4.790   9.256   4.292  1.5554  1.5899  0.3430
36331SOL     OW14829  11.937   7.840   4.196  0.0759  0.5153 -0.5433
36331SOL    HW114830  11.884   7.860   4.273 -0.1910  0.1066 -0.6186
36331SOL    HW214831  11.967   7.750   4.209  0.3997  0.5987 -0.7023
36332SOL     OW14832   4.241   9.939   2.166  0.3354 -0.5839  0.0792
36332SOL    HW114833   4.201   9.868   2.216 -0.1481 -0.5951 -0.3138
36332SOL    HW214834   4.260  10.007   2.231  0.9594 -1.1380  0.4854
36333SOL     OW14835   1.566   2.041   2.330  0.2932 -0.3436 -0.0120
36333SOL    HW114836   1.651   2.014   2.365  0.2010  1.8048  2.1464
36333SOL    HW214837   1.583   2.064   2.239  1.4557 -2.2956 -0.3435
36334SOL     OW14838   4.963  11.422  12.184 -0.0972  0.2585  0.2368
36334SOL    HW114839   5.014  11.382  12.255 -0.5923  0.0477  0.4837
36334SOL    HW214840   4.914  11.492  12.227 -1.3744 -0.6857  0.3773
36335SOL     OW14841   3.335   1.734  10.495  0.7514 -0.2268 -0.0234
36335SOL    HW114842   3.357   1.676  10.568  0.8972 -0.3347 -0.1494
36335SOL    HW214843   3.291   1.809  10.535  0.1032 -0.6627  0.0892
36336SOL     OW14844   7.639   3.218   5.889 -0.5802 -0.1635 -0.3692
36336SOL    HW114845   7.574   3.186   5.827 -0.9386 -0.6194  0.2297
36336SOL    HW214846   7.710   3.251   5.834 -1.1425 -0.0228 -1.0242
36337SOL     OW14847  10.560   0.678   2.471  0.6479 -0.0561  0.1538
36337SOL    HW114848  10.470   0.646   2.465  0.3195  0.9961 -1.4286
36337SOL    HW214849  10.614   0.606   2.439  0.2458 -0.2711 -0.0423
36338SOL     OW14850   4.649   8.748  12.143 -0.3019  0.0853 -0.4051
36338SOL    HW114851   4.678   8.816  12.082  2.0927  0.0123  0.5245
36338SOL    HW214852   4.662   8.785  12.230 -1.6465 -0.5728  0.1073
36339SOL     OW14853  10.339   8.397   3.582 -0.4021  0.3292 -0.1792
36339SOL    HW114854  10.260   8.357   3.619 -0.9376  1.4791 -0.0448
36339SOL    HW214855  10.409   8.370   3.642 -0.7871 -0.1741  0.0557
36340SOL     OW14856   2.248   7.544   6.794 -0.0638  0.6678 -0.3846
36340SOL    HW114857   2.303   7.605   6.744  0.7851  0.8993  0.7801
36340SOL    HW214858   2.192   7.601   6.847  1.9614  0.5553  2.0634
36341SOL     OW14859  11.595   4.290   5.596 -0.1122  0.1151  0.2404
36341SOL    HW114860  11.646   4.325   5.669  0.5179 -1.8738  0.8185
36341SOL    HW214861  11.657   4.281   5.525 -0.4761  0.9904 -0.2029
36342SOL     OW14862   0.453   0.522   0.872 -0.0504 -0.5279  0.3123
36342SOL    HW114863   0.459   0.592   0.937  1.1434 -0.7373  0.4490
36342SOL    HW214864   0.544   0.502   0.849 -0.4340 -0.2099 -1.7061
36343SOL     OW14865  12.181   0.834   5.032 -0.0517 -0.4062  0.7229
36343SOL    HW114866  12.133   0.840   4.949  2.1911 -0.9658 -0.7138
36343SOL    HW214867  12.114   0.835   5.099 -2.1285 -2.2073 -1.1955
36344SOL     OW14868   8.246   4.007   7.618 -0.1861 -0.0531 -0.1168
36344SOL    HW114869   8.322   4.062   7.600  0.7217 -0.7566  1.3341
36344SOL    HW214870   8.263   3.971   7.705 -1.2759 -1.7430 -0.5536
36345SOL     OW14871   2.648   8.798   1.133 -0.2624  0.1787 -0.6564
36345SOL    HW114872   2.594   8.837   1.202 -0.5576 -0.1538 -0.6970
36345SOL    HW214873   2.738   8.807   1.166 -0.4441 -0.5391  0.0589
36346SOL     OW14874   5.576   4.605   3.562  0.3064 -0.0792 -0.5658
36346SOL    HW114875   5.651   4.586   3.618 -0.1550 -0.6745 -0.1354
36346SOL    HW214876   5.584   4.543   3.489  0.6902  0.4276 -0.9579
36347SOL     OW14877   5.049   0.448   8.189  0.1624 -0.2593 -0.4915
36347SOL    HW114878   5.077   0.527   8.142 -1.1971  0.4273 -0.1942
36347SOL    HW214879   5.026   0.386   8.119  2.5361 -0.9436 -0.7520
36348SOL     OW14880   1.732   7.210   8.338  0.6318 -0.1537  0.1547
36348SOL    HW114881   1.767   7.247   8.257  0.3823  0.9020  0.5280
36348SOL    HW214882   1.767   7.265   8.408 -2.3393  1.4598  0.5076
36349SOL     OW14883   2.159   7.666  11.707 -0.1992  0.2324  0.1790
36349SOL    HW114884   2.214   7.737  11.739 -2.4307  1.2893  1.9408
36349SOL    HW214885   2.084   7.710  11.666 -0.0850 -1.1430 -1.6120
36350SOL     OW14886   0.694   1.015   1.262  0.3331 -0.4458  0.3725
36350SOL    HW114887   0.760   0.963   1.217  0.5380 -1.4096  1.7058
36350SOL    HW214888   0.616   0.958   1.264  0.9260 -1.3221  2.9342
36351SOL     OW14889   3.606   5.829  10.605 -0.2714 -0.3678 -0.2028
36351SOL    HW114890   3.551   5.773  10.660  0.0669 -0.0413  0.4861
36351SOL    HW214891   3.691   5.785  10.604  0.3115  0.6588  1.2395
36352SOL     OW14892  12.108  12.019   1.347 -0.1153 -0.1322  0.0869
36352SOL    HW114893  12.017  12.011   1.318  0.3519  0.5008 -1.6999
36352SOL    HW214894  12.139  11.929   1.350 -1.0836 -0.4560  1.8333
36353SOL     OW14895   8.427   4.176   4.585  0.0728  0.2140 -0.0151
36353SOL    HW114896   8.409   4.266   4.557  3.3448  0.3764 -2.2458
36353SOL    HW214897   8.368   4.122   4.532 -1.1241  0.9716  0.5119
36354SOL     OW14898   5.406   4.189  11.442 -0.4917  0.2586  0.0858
36354SOL    HW114899   5.338   4.170  11.377 -0.1979 -0.4144 -0.0264
36354SOL    HW214900   5.410   4.285  11.444  0.0448  0.3076 -1.4864
36355SOL     OW14901   0.753   6.644   0.506 -0.2702 -0.1661  0.2925
36355SOL    HW114902   0.704   6.718   0.471 -1.0184 -0.6054  0.4045
36355SOL    HW214903   0.843   6.677   0.514 -0.4497  0.5021 -0.3295
36356SOL     OW14904   3.050  12.180   2.309  0.1613 -0.4132 -0.3607
36356SOL    HW114905   3.131  12.206   2.266 -0.3958  2.5547  0.1877
36356SOL    HW214906   2.982  12.230   2.264 -1.2698 -2.0779 -0.1530
36357SOL     OW14907   0.342   8.137   2.534  0.4236  0.7085 -0.1330
36357SOL    HW114908   0.267   8.182   2.495  0.5111 -0.6711 -2.0367
36357SOL    HW214909   0.303   8.075   2.596  0.0863  1.0177 -0.0312
36358SOL     OW14910  11.765  11.284  11.221 -0.8995  0.1190  0.0365
36358SOL    HW114911  11.791  11.347  11.153 -0.3535 -2.3926 -2.2524
36358SOL    HW214912  11.695  11.329  11.269 -1.0303  2.2133 -1.9001
36359SOL     OW14913   6.905  11.914   8.483 -0.3667  0.2639 -0.3350
36359SOL    HW114914   6.874  11.951   8.566  1.1572 -0.1831  0.4683
36359SOL    HW214915   6.840  11.848   8.460  0.5150 -1.5496  1.9505
36360SOL     OW14916  10.185   9.320  10.576  0.6165 -0.1728  0.1436
36360SOL    HW114917  10.118   9.330  10.643 -0.6474  3.0821 -1.3751
36360SOL    HW214918  10.250   9.387  10.598  0.6282  0.3288 -1.3227
36361SOL     OW14919   4.080   7.080   9.302  0.1977  0.6976 -0.6194
36361SOL    HW114920   4.029   7.159   9.282 -0.8815  0.7236  1.8992
36361SOL    HW214921   4.170   7.111   9.312 -0.0641  1.4588 -0.5464
36362SOL     OW14922   6.341   3.437   7.319 -0.6333  0.1828 -0.5132
36362SOL    HW114923   6.317   3.359   7.370 -0.7125 -0.4256 -1.4591
36362SOL    HW214924   6.258   3.467   7.281 -0.8838  1.6525  1.0505
36363SOL     OW14925   2.141  12.193   1.696  0.2669  0.1023 -0.0165
36363SOL    HW114926   2.114  12.231   1.780  0.9801 -1.5142  1.0174
36363SOL    HW214927   2.111  12.102   1.701  1.6398 -0.4328 -0.8478
36364SOL     OW14928   7.941  10.260   0.097 -0.1052 -0.4018  0.0997
36364SOL    HW114929   7.905  10.346   0.116  0.3874  0.2799 -1.7609
36364SOL    HW214930   7.890  10.200   0.149 -0.8919  0.9601  0.9548
36365SOL     OW14931   0.799   3.766  10.894  0.0348  0.1104  0.6994
36365SOL    HW114932   0.724   3.731  10.942  0.2953 -1.3806  0.0497
36365SOL    HW214933   0.853   3.690  10.874  0.7712  0.9169 -0.5028
36366SOL     OW14934   5.396  11.333   5.407 -0.2039 -0.6637  0.1304
36366SOL    HW114935   5.341  11.404   5.440  0.7226 -0.3198  0.9732
36366SOL    HW214936   5.470  11.329   5.468  0.6465 -1.1950 -0.9001
36367SOL     OW14937   6.093   1.315   5.568 -0.7326  0.7822 -0.2230
36367SOL    HW114938   6.182   1.284   5.551 -0.7182  0.6038  0.1788
36367SOL    HW214939   6.050   1.243   5.614 -1.1394  0.8027 -0.5655
36368SOL     OW14940  12.018   1.064   0.549  0.5167  0.0634  0.0345
36368SOL    HW114941  11.951   1.133   0.552  0.1454 -0.3237  0.8652
36368SOL    HW214942  12.051   1.068   0.459 -1.3850 -0.4590 -0.7377
36369SOL     OW14943   5.765   6.317   4.651 -0.3708 -0.5225  0.2824
36369SOL    HW114944   5.781   6.325   4.557  1.2421 -0.6578  0.5104
36369SOL    HW214945   5.671   6.327   4.661 -0.7806 -2.0848 -1.5163
36370SOL     OW14946   8.384  10.603   6.824 -0.2727  0.3466 -0.3005
36370SOL    HW114947   8.431  10.522   6.843 -2.6790 -1.3427 -0.9165
36370SOL    HW214948   8.433  10.643   6.752  0.8014 -0.7147 -0.1896
36371SOL     OW14949   1.506   9.226   8.882 -0.4770  0.4088  0.0898
36371SOL    HW114950   1.561   9.185   8.816  2.4629  0.8497  2.0631
36371SOL    HW214951   1.550   9.308   8.903 -1.8907  0.8078  1.7770
36372SOL     OW14952   7.556  11.076  10.671  0.3615  0.1843  0.0352
36372SOL    HW114953   7.579  11.118  10.754  0.9782 -0.4303  0.1830
36372SOL    HW214954   7.534  10.986  10.695  1.3173 -0.2284 -0.5418
36373SOL     OW14955   3.479  11.063   9.368  0.1531 -0.2420 -0.0185
36373SOL    HW114956   3.550  10.999   9.378  0.7809  0.2766 -0.9882
36373SOL    HW214957   3.405  11.025   9.416  0.4967 -1.7279 -0.6055
36374SOL     OW14958   8.648  10.748   5.951  0.6124 -0.3385  0.8119
36374SOL    HW114959   8.568  10.761   6.003 -0.0545  0.0674 -0.2867
36374SOL    HW214960   8.694  10.831   5.956 -0.0280  0.0822 -0.1941
36375SOL     OW14961   9.390   4.180   1.050 -0.1706 -0.0117 -0.2233
36375SOL    HW114962   9.342   4.132   0.983 -1.4294 -1.4914  1.6631
36375SOL    HW214963   9.446   4.114   1.092  0.5691  0.8792  0.2397
36376SOL     OW14964   8.418   8.058   8.567  0.2916 -0.1320  0.3177
36376SOL    HW114965   8.330   8.047   8.603  0.6941 -1.7304  0.8750
36376SOL    HW214966   8.470   8.087   8.641  0.5180 -0.5180  0.3082
36377SOL     OW14967   8.324  11.643   1.039 -0.3839 -0.1416 -0.0898
36377SOL    HW114968   8.311  11.688   1.122 -2.0329 -0.3694 -0.1985
36377SOL    HW214969   8.347  11.553   1.064 -0.4788 -0.1085  0.1162
36378SOL     OW14970  11.682  10.825  10.976  0.2322 -0.1561  0.6092
36378SOL    HW114971  11.620  10.755  10.956 -0.4968  0.2688  1.2968
36378SOL    HW214972  11.650  10.863  11.058  0.5948  0.9968  0.2484
36379SOL     OW14973   8.347  11.218   0.012 -0.3456 -0.7439  0.4486
36379SOL    HW114974   8.422  11.256   0.058 -0.2031  1.2268 -1.2511
36379SOL    HW214975   8.277  11.282   0.023 -0.5176 -0.5604 -1.4050
36380SOL     OW14976   5.830   4.861  11.903  0.0275  0.0643  0.0191
36380SOL    HW114977   5.910   4.911  11.890 -0.4984  1.2415  1.0818
36380SOL    HW214978   5.817   4.813  11.821  1.1470  0.8134 -0.6094
36381SOL     OW14979   5.326   6.603   8.671 -0.3527  0.0702  0.4201
36381SOL    HW114980   5.267   6.667   8.710 -1.6187 -0.2197 -0.9336
36381SOL    HW214981   5.377   6.653   8.608 -1.0415 -0.1596 -0.3297
36382SOL     OW14982   3.870   7.197  11.621  0.1708 -0.3311  0.1706
36382SOL    HW114983   3.872   7.227  11.530  0.6114 -2.0428 -0.4223
36382SOL    HW214984   3.951   7.231  11.659  0.3196 -0.1820 -0.2766
36383SOL     OW14985   6.856   6.649   2.859 -0.7448  0.6432 -0.2649
36383SOL    HW114986   6.839   6.723   2.799  1.5953  1.7810  0.3636
36383SOL    HW214987   6.951   6.651   2.873 -0.3617 -3.2787 -1.1685
36384SOL     OW14988   4.918   7.045  11.609 -0.5713  0.2199 -0.5185
36384SOL    HW114989   4.884   7.130  11.636 -0.9934 -0.6672  2.0091
36384SOL    HW214990   5.012   7.060  11.598  0.1190  0.3255  3.8032
36385SOL     OW14991   4.841   3.072   7.013  0.3816  0.1936  0.4307
36385SOL    HW114992   4.932   3.042   7.010  0.1030 -0.8027  1.1398
36385SOL    HW214993   4.796   3.018   6.948  0.1305  0.0120  0.7484
36386SOL     OW14994  10.546   0.136   5.941  0.2084 -0.5014 -0.6979
36386SOL    HW114995  10.560   0.210   6.001  0.5345 -1.1562  0.0519
36386SOL    HW214996  10.495   0.173   5.870 -0.9559  0.1040  0.4115
36387SOL     OW14997   6.741  10.711   9.371 -0.5980 -1.3243 -0.0036
36387SOL    HW114998   6.659  10.760   9.361  0.1306 -0.2401 -0.8983
36387SOL    HW214999   6.795  10.739   9.297  1.7690  0.3409  2.1852
36388SOL     OW15000   4.208   9.740   9.589 -0.0213  0.7475  0.3714
36388SOL    HW115001   4.199   9.692   9.506  0.3268 -0.3401  0.9348
36388SOL    HW215002   4.293   9.712   9.623  1.0439  3.1406 -0.0997
36389SOL     OW15003   3.824   1.633   4.394 -0.0398  0.3281  0.1576
36389SOL    HW115004   3.740   1.652   4.352  0.4444 -0.3301 -1.2043
36389SOL    HW215005   3.810   1.651   4.487 -2.0011 -0.7526  0.1282
36390SOL     OW15006   4.613   5.739   1.673 -0.0291  0.0068  0.3286
36390SOL    HW115007   4.535   5.687   1.688 -0.4078  0.2711 -0.6523
36390SOL    HW215008   4.591   5.826   1.708 -0.1027  0.0322  0.2179
36391SOL     OW15009  11.223   0.864   1.337 -0.1953  0.1026 -0.5531
36391SOL    HW115010  11.274   0.831   1.263  0.6748 -0.1544  0.1390
36391SOL    HW215011  11.280   0.852   1.413 -0.8470  0.8714  0.0867
36392SOL     OW15012   6.444   9.221   0.054 -0.6364  0.7280 -0.0525
36392SOL    HW115013   6.494   9.181  -0.016 -2.9079 -0.6714 -0.9808
36392SOL    HW215014   6.370   9.263   0.011 -2.4694 -0.7484  1.5002
36393SOL     OW15015   6.987   9.267   3.646  0.3699 -0.2802  0.3318
36393SOL    HW115016   6.913   9.249   3.588 -0.3041  1.2817  0.6586
36393SOL    HW215017   7.056   9.209   3.615 -0.0294  0.3317 -1.9228
36394SOL     OW15018   2.376   6.985   8.227  0.1523  0.3332 -0.1920
36394SOL    HW115019   2.453   6.987   8.171  0.5251 -1.3978  0.1893
36394SOL    HW215020   2.335   6.900   8.209 -1.0697  0.7673  0.3897
36395SOL     OW15021   2.936   5.574   7.277 -1.0114 -0.1752 -0.0729
36395SOL    HW115022   2.900   5.561   7.189  0.0569 -0.0442 -0.5431
36395SOL    HW215023   2.964   5.666   7.278 -1.2922 -0.0874  0.5192
36396SOL     OW15024  10.363   2.762   9.916  0.4924  0.3667 -0.7177
36396SOL    HW115025  10.281   2.716   9.900  0.8573 -0.2981 -0.7501
36396SOL    HW215026  10.402   2.716   9.990 -0.2066  2.1080  0.8054
36397SOL     OW15027   7.442   3.729   2.695  0.1577 -0.4257 -0.0080
36397SOL    HW115028   7.510   3.772   2.644  0.9594  0.1703  1.4910
36397SOL    HW215029   7.423   3.649   2.647  1.8438 -0.5533 -0.5438
36398SOL     OW15030   9.827   2.353   1.078 -0.5536  0.2107  0.4593
36398SOL    HW115031   9.796   2.303   1.003  0.8765  1.3412 -0.9641
36398SOL    HW215032   9.791   2.441   1.066  2.7198  1.5091 -1.1342
36399SOL     OW15033  11.543   1.973  11.250  0.3078  0.0597  0.4498
36399SOL    HW115034  11.465   1.949  11.200  0.7870 -0.5092 -0.0348
36399SOL    HW215035  11.612   1.915  11.218  0.2931 -1.3680  2.8193
36400SOL     OW15036   1.262   8.589  11.707 -0.3142 -0.6536  0.4781
36400SOL    HW115037   1.336   8.529  11.695  2.1206  1.9106  1.5785
36400SOL    HW215038   1.224   8.564  11.791  1.7363  0.2349  1.7581
36401SOL     OW15039   6.245  11.536   6.085  0.3273  0.9700 -0.7288
36401SOL    HW115040   6.186  11.560   6.156  0.2726  2.6164 -1.2886
36401SOL    HW215041   6.233  11.442   6.074 -1.5706  1.1308 -0.2822
36402SOL     OW15042  12.215  11.678   7.796  0.3038  0.6171 -0.1938
36402SOL    HW115043  12.199  11.770   7.816  1.1538  0.3060  2.1387
36402SOL    HW215044  12.219  11.675   7.700 -2.5582  2.4979 -0.5055
36403SOL     OW15045   9.571   6.599   0.239 -0.1538  0.3216  0.6890
36403SOL    HW115046   9.532   6.599   0.327 -1.4640  2.6222  0.1952
36403SOL    HW215047   9.571   6.691   0.213  2.2569 -0.0432 -0.8893
36404SOL     OW15048   8.330   0.280   4.344  0.2404  0.5601  0.0520
36404SOL    HW115049   8.364   0.196   4.373 -0.5141 -0.3495 -1.5624
36404SOL    HW215050   8.406   0.327   4.310  0.2982 -0.4640 -1.2817
36405SOL     OW15051   4.417  11.478   7.774 -0.9694  0.4404 -0.0736
36405SOL    HW115052   4.326  11.492   7.748 -1.1706  0.5588  0.6542
36405SOL    HW215053   4.451  11.565   7.791 -0.2211  0.5365 -1.8778
36406SOL     OW15054   6.306   4.936   4.532 -0.7538 -0.4622 -0.4833
36406SOL    HW115055   6.231   4.954   4.475 -0.4939 -0.3065 -0.7760
36406SOL    HW215056   6.292   4.993   4.608  0.3017  1.3846 -1.6069
36407SOL     OW15057   0.673   9.557   1.142 -0.0097  0.5088  0.1129
36407SOL    HW115058   0.606   9.496   1.175  1.2213  0.0791  1.9696
36407SOL    HW215059   0.630   9.601   1.068 -2.2463  0.0644  1.0420
36408SOL     OW15060   2.373   7.630   0.472  0.5245 -0.2974 -0.5266
36408SOL    HW115061   2.296   7.594   0.427  0.8422 -0.0647 -1.2799
36408SOL    HW215062   2.338   7.704   0.522  0.2968  0.0037 -1.1144
36409SOL     OW15063   0.091   1.319   4.360 -0.1281 -0.8829 -0.4762
36409SOL    HW115064   0.114   1.355   4.274  0.1058  1.4100  0.4793
36409SOL    HW215065   0.016   1.261   4.343 -0.1529 -0.3934 -2.1919
36410SOL     OW15066   0.619   1.941   0.105 -0.1328  0.2624 -0.6008
36410SOL    HW115067   0.631   1.999   0.180  1.6873  1.2970 -1.6007
36410SOL    HW215068   0.640   1.996   0.029  1.4361 -1.6116 -1.6261
36411SOL     OW15069  11.144  11.591   5.206  0.5654 -0.1335 -0.4725
36411SOL    HW115070  11.217  11.627   5.155  1.0253 -0.3909 -0.0098
36411SOL    HW215071  11.133  11.653   5.278  0.2956 -0.0714 -0.5667
36412SOL     OW15072   6.396   9.362  11.167  0.5059  0.0302  0.0661
36412SOL    HW115073   6.435   9.349  11.080 -0.8414  0.7466 -0.6922
36412SOL    HW215074   6.330   9.294  11.174  0.7646 -0.1683  0.6431
36413SOL     OW15075   9.144   2.532   0.236 -0.0341  0.5680  0.0646
36413SOL    HW115076   9.144   2.551   0.143  0.2947 -0.5401 -0.1777
36413SOL    HW215077   9.212   2.466   0.247 -2.6244 -2.2266  0.4445
36414SOL     OW15078   0.903   5.793  11.800  0.3080  0.6026 -0.2861
36414SOL    HW115079   0.849   5.871  11.789 -0.1225  0.2986 -0.3303
36414SOL    HW215080   0.851   5.722  11.763  0.4065  0.1778  0.3770
36415SOL     OW15081   5.364  10.010   4.089 -0.1760 -0.8357  0.4154
36415SOL    HW115082   5.345  10.017   3.995 -3.3758  1.9322  1.0662
36415SOL    HW215083   5.279   9.988   4.128  1.0286 -1.6810  2.7444
36416SOL     OW15084   1.794   4.634   3.333  0.0640  0.3481  0.1566
36416SOL    HW115085   1.879   4.614   3.293  0.6959 -0.8391  1.9766
36416SOL    HW215086   1.812   4.708   3.391 -0.0361 -0.1446  0.8305
36417SOL     OW15087   2.373  11.121   2.262  0.3494  0.4456  0.4981
36417SOL    HW115088   2.463  11.115   2.230  1.1283  1.8624  2.2764
36417SOL    HW215089   2.373  11.196   2.321 -1.5427 -0.6263  1.9862
36418SOL     OW15090   3.266   8.111   1.949 -0.0114 -0.4483 -0.1644
36418SOL    HW115091   3.264   8.187   2.008 -0.8713 -0.2697 -0.4098
36418SOL    HW215092   3.175   8.099   1.922  0.3252 -0.6818 -1.2575
36419SOL     OW15093   4.109   2.425   8.759 -0.2710  0.2657 -1.1889
36419SOL    HW115094   4.181   2.453   8.817 -0.3807 -2.9810  0.7724
36419SOL    HW215095   4.142   2.345   8.718 -2.0668 -0.1928 -1.7920
36420SOL     OW15096   1.825   8.899   8.595 -0.2071  0.4374  0.1842
36420SOL    HW115097   1.744   8.849   8.590 -1.0251  1.2098  3.2160
36420SOL    HW215098   1.849   8.896   8.688  2.1867  1.8634 -0.3031
36421SOL     OW15099   9.159   6.381   1.403  0.2478 -0.0340  0.0717
36421SOL    HW115100   9.188   6.467   1.434 -1.7272  0.3005  1.1365
36421SOL    HW215101   9.097   6.352   1.469  0.0975 -1.8315 -0.8166
36422SOL     OW15102  11.911   7.185   3.390 -0.2728 -0.4127 -0.2333
36422SOL    HW115103  11.959   7.104   3.411  1.1314  0.0368 -1.4972
36422SOL    HW215104  11.975   7.238   3.343 -1.5384  0.9608 -0.4561
36423SOL     OW15105   0.970   0.132   7.664 -0.4283 -0.2085 -0.1079
36423SOL    HW115106   0.947   0.042   7.685 -1.2660  0.0175 -0.0196
36423SOL    HW215107   0.983   0.175   7.749  2.1409 -0.7558 -0.1520
36424SOL     OW15108   6.517  11.344   6.083  0.3756  0.6675 -0.2842
36424SOL    HW115109   6.610  11.355   6.061  0.5089  2.4521  0.9228
36424SOL    HW215110   6.517  11.283   6.157  0.3106 -1.4467 -1.9258
36425SOL     OW15111   5.346   5.333   4.545 -0.7311  0.3212  0.4783
36425SOL    HW115112   5.423   5.304   4.497 -1.8353 -2.2185  0.1040
36425SOL    HW215113   5.323   5.417   4.505 -0.3208 -0.6509 -1.9475
36426SOL     OW15114   6.179   0.940   3.130  0.0971 -0.2229 -0.5516
36426SOL    HW115115   6.223   0.985   3.202 -0.4032 -1.6627  0.7003
36426SOL    HW215116   6.094   0.913   3.167 -1.4218  1.4814 -2.5399
36427SOL     OW15117   2.963  10.600   5.193 -0.5570  0.5504  0.0504
36427SOL    HW115118   3.054  10.622   5.213 -1.4643  2.5367  2.4934
36427SOL    HW215119   2.968  10.513   5.152  2.3678  0.4155  0.4699
36428SOL     OW15120   3.097   1.756   0.111  0.0170  0.5767  0.3599
36428SOL    HW115121   3.187   1.725   0.110 -0.0284  0.0420  3.4004
36428SOL    HW215122   3.047   1.682   0.147 -1.8788  0.4575 -2.2449
36429SOL     OW15123   2.706   4.167   2.814  0.5732  0.3266  0.6426
36429SOL    HW115124   2.746   4.186   2.728  1.4293 -0.0758  0.9364
36429SOL    HW215125   2.661   4.248   2.838 -0.6244  0.0987 -0.6818
36430SOL     OW15126   4.142   1.992   9.322 -0.0667 -0.6226  0.0535
36430SOL    HW115127   4.187   1.919   9.278 -1.1553 -0.6472 -1.0763
36430SOL    HW215128   4.126   2.055   9.252 -1.0343 -0.2400  0.6087
36431SOL     OW15129   6.571   1.190   0.129  0.0774  0.2227  0.2561
36431SOL    HW115130   6.479   1.164   0.129 -0.3531  1.6616 -0.0566
36431SOL    HW215131   6.605   1.159   0.045 -1.0034  2.5306 -1.0985
36432SOL     OW15132  11.280   8.966   0.353  0.0296  0.2521 -0.0366
36432SOL    HW115133  11.200   9.002   0.315 -0.4374 -0.0954  0.5903
36432SOL    HW215134  11.253   8.938   0.440  0.8674  0.2311  0.2179
36433SOL     OW15135   0.590   8.037   2.444  0.0571 -0.0726 -0.5517
36433SOL    HW115136   0.503   8.075   2.458  0.3443  0.6329 -0.6446
36433SOL    HW215137   0.577   7.943   2.457 -0.6442  0.0630 -0.2059
36434SOL     OW15138   2.672   4.199   3.747  0.4288 -0.1130  0.2578
36434SOL    HW115139   2.582   4.176   3.722 -0.7029  2.1323  1.9349
36434SOL    HW215140   2.699   4.130   3.808 -0.1395 -0.8110 -0.2692
36435SOL     OW15141  10.183   3.124   5.462 -0.1219  0.6986 -0.0905
36435SOL    HW115142  10.265   3.075   5.452 -1.1099 -0.8326 -1.0062
36435SOL    HW215143  10.176   3.141   5.556  0.9948  0.4437  0.0573
36436SOL     OW15144   6.250   2.372   4.007  0.3616  0.8253  0.0400
36436SOL    HW115145   6.337   2.335   4.018  0.5821  1.3957  0.2316
36436SOL    HW215146   6.265   2.466   3.991 -0.2602  1.1297  1.1618
36437SOL     OW15147   3.001   8.101   0.214  0.2132  0.2547  0.4660
36437SOL    HW115148   2.985   8.008   0.197  0.5185  0.6330 -2.2503
36437SOL    HW215149   3.088   8.104   0.254  0.3657 -0.5902  0.2105
36438SOL     OW15150   3.224   7.303   4.603 -0.2250 -0.2997 -0.1144
36438SOL    HW115151   3.315   7.304   4.572  0.0499  1.1033  0.6295
36438SOL    HW215152   3.215   7.386   4.650 -2.3425  0.3020 -1.4757
36439SOL     OW15153   9.345  10.935  11.925  0.6366 -0.2896 -0.2550
36439SOL    HW115154   9.329  10.871  11.994  1.0551 -1.5096 -1.2384
36439SOL    HW215155   9.276  10.917  11.860  0.4499  0.6063 -0.3103
36440SOL     OW15156   5.104  10.060   7.917 -0.2463 -0.0381  0.1446
36440SOL    HW115157   5.184  10.092   7.875 -0.4185 -0.7295 -0.7546
36440SOL    HW215158   5.069  10.136   7.964  0.4227  0.5285 -0.2582
36441SOL     OW15159   1.356   2.528   0.694 -0.5696 -0.0988 -0.1639
36441SOL    HW115160   1.323   2.534   0.605 -0.2641 -1.2972 -0.3754
36441SOL    HW215161   1.280   2.499   0.746 -1.3184  2.5502  0.3775
36442SOL     OW15162   1.288   6.785   3.935  0.4826  0.6858  0.2393
36442SOL    HW115163   1.380   6.810   3.923  0.5601 -0.1766 -1.2442
36442SOL    HW215164   1.288   6.690   3.926 -0.5436  0.6730  0.2785
36443SOL     OW15165   0.466   3.085   2.747 -0.1973 -0.1208  0.2281
36443SOL    HW115166   0.462   3.160   2.687  0.9099  1.0258  1.5218
36443SOL    HW215167   0.393   3.098   2.807 -0.4454 -0.4896  0.0082
36444SOL     OW15168   7.570   8.625   6.689 -0.4414 -0.0963  0.2447
36444SOL    HW115169   7.551   8.632   6.782  2.9346  1.3983  0.9732
36444SOL    HW215170   7.651   8.573   6.684  0.4242  1.2878 -1.6446
36445SOL     OW15171   4.378   7.588   4.464 -0.1148 -0.0021 -0.4226
36445SOL    HW115172   4.376   7.587   4.368 -0.7574 -0.7645 -0.4084
36445SOL    HW215173   4.409   7.501   4.488 -1.1146 -0.2324  0.0743
36446SOL     OW15174   5.850   9.810  11.241  0.4785 -0.2581  0.2956
36446SOL    HW115175   5.784   9.784  11.177  0.6806  1.2033 -0.5592
36446SOL    HW215176   5.892   9.728  11.267  1.1202 -0.8341 -2.2521
36447SOL     OW15177   8.465   8.562  10.355  0.5692  0.6105 -0.0373
36447SOL    HW115178   8.438   8.545  10.265  0.2195  0.6685  0.0521
36447SOL    HW215179   8.401   8.514  10.409  0.8374  0.4917  0.1767
36448SOL     OW15180   7.328   0.778  10.645  0.1057  0.5473  0.3740
36448SOL    HW115181   7.354   0.731  10.566  1.2027 -0.4731  1.3073
36448SOL    HW215182   7.275   0.851  10.613 -0.2313 -0.3588 -1.2250
36449SOL     OW15183   3.183   3.689   3.739 -0.0436  0.5031 -0.5884
36449SOL    HW115184   3.181   3.669   3.833  0.6217  1.0834 -0.4403
36449SOL    HW215185   3.093   3.676   3.709 -0.0817 -0.5543 -0.0531
36450SOL     OW15186   2.924   1.556  11.777  0.2179  0.3163 -0.4348
36450SOL    HW115187   2.987   1.627  11.762 -2.3142  2.8783 -0.0049
36450SOL    HW215188   2.922   1.507  11.695  1.4917  1.2366 -1.0520
36451SOL     OW15189   7.109   9.877   2.905  0.4959  0.4981 -0.0168
36451SOL    HW115190   7.112   9.865   3.000 -1.2746 -1.9423 -0.1656
36451SOL    HW215191   7.153   9.799   2.871 -2.5636 -0.8940 -1.1414
36452SOL     OW15192   6.916  10.626   2.346  0.5726  0.0996  0.1586
36452SOL    HW115193   6.834  10.579   2.355 -0.5523  2.1987  1.7904
36452SOL    HW215194   6.983  10.558   2.346 -1.0945 -1.6593 -0.9933
36453SOL     OW15195  11.582   0.818   4.311  1.0544 -0.0364  0.2150
36453SOL    HW115196  11.508   0.822   4.251 -0.5432  1.1682  2.1332
36453SOL    HW215197  11.623   0.904   4.305  0.3482  0.4030  1.4449
36454SOL     OW15198   9.302   9.268   8.744 -0.0906  0.2709 -0.7926
36454SOL    HW115199   9.292   9.346   8.798 -0.9207  0.4373 -1.1786
36454SOL    HW215200   9.360   9.295   8.673  0.6335  0.1774 -0.2531
36455SOL     OW15201   2.018   2.561   8.779 -0.3146 -0.0126  0.2436
36455SOL    HW115202   2.063   2.584   8.698 -1.4981 -0.3149 -0.5217
36455SOL    HW215203   2.066   2.485   8.812  0.6408  0.5694  0.2523
36456SOL     OW15204   3.221   2.893   4.882  0.0525 -0.5783 -0.4291
36456SOL    HW115205   3.302   2.849   4.857  0.7165  0.7579 -0.7136
36456SOL    HW215206   3.246   2.949   4.956 -0.9963 -1.4221  0.6041
36457SOL     OW15207   7.918  10.261   0.434 -0.5478  0.4120  0.4186
36457SOL    HW115208   7.834  10.299   0.407 -1.1921 -2.5442 -2.3190
36457SOL    HW215209   7.901  10.225   0.521 -2.4172 -0.6988 -0.3368
36458SOL     OW15210  12.154   6.410   1.840 -1.0962 -0.4953 -0.1395
36458SOL    HW115211  12.219   6.474   1.869  0.8736 -1.7047 -1.6991
36458SOL    HW215212  12.070   6.452   1.860  0.1132  1.8499  0.4020
36459SOL     OW15213   1.375   3.656   1.361  0.9167 -0.2771  0.0630
36459SOL    HW115214   1.353   3.701   1.279  2.7829  1.5206  0.4809
36459SOL    HW215215   1.455   3.607   1.341  1.6275  0.5173  0.9018
36460SOL     OW15216  11.783   3.810   1.912  0.5747 -0.3419  0.0689
36460SOL    HW115217  11.857   3.867   1.892 -0.1663  0.2327 -1.1008
36460SOL    HW215218  11.709   3.849   1.867 -0.6744 -0.3975  1.9359
36461SOL     OW15219   0.258   1.196   8.728 -0.8371  0.2515 -0.3304
36461SOL    HW115220   0.173   1.203   8.771 -0.6401 -0.8750  0.2593
36461SOL    HW215221   0.254   1.115   8.678  0.2641 -0.3779  0.5593
36462SOL     OW15222   4.494   7.863   2.343  0.3960  0.6003 -0.1746
36462SOL    HW115223   4.500   7.947   2.296  0.9535  1.8044  1.9071
36462SOL    HW215224   4.585   7.843   2.366  0.2814 -0.6934 -0.7602
36463SOL     OW15225   1.669   3.508   9.131 -0.6635  0.6850  0.2536
36463SOL    HW115226   1.660   3.568   9.057 -1.8551  0.5825  0.3024
36463SOL    HW215227   1.601   3.443   9.118 -1.6325  1.2817  2.0164
36464SOL     OW15228   1.504   1.043   0.372 -0.3245  0.5774  0.4831
36464SOL    HW115229   1.414   1.058   0.403 -0.2646  0.4278  0.7332
36464SOL    HW215230   1.559   1.069   0.446 -0.1540  0.8261  0.2722
36465SOL     OW15231   2.731  11.479   9.522  0.1028  0.2330  0.3662
36465SOL    HW115232   2.815  11.477   9.478 -0.0743 -0.2139  0.0385
36465SOL    HW215233   2.668  11.500   9.453 -0.1458 -0.2217  0.4471
36466SOL     OW15234   4.815  11.849   8.296 -0.4387 -0.5859  0.1170
36466SOL    HW115235   4.784  11.924   8.347 -0.5889 -1.4371  1.3279
36466SOL    HW215236   4.753  11.842   8.223  0.1750  1.0700 -0.6050
36467SOL     OW15237   1.111   4.206   6.142 -0.0355  0.0245 -0.6313
36467SOL    HW115238   1.137   4.256   6.220 -1.0585  1.3715 -1.1134
36467SOL    HW215239   1.179   4.140   6.133  0.8304  0.6896  0.6323
36468SOL     OW15240   5.396   8.210   7.222  0.0868  0.2692 -0.3966
36468SOL    HW115241   5.401   8.136   7.161 -0.0907  0.6766 -0.9104
36468SOL    HW215242   5.430   8.175   7.304  0.7605 -0.1637 -0.8440
36469SOL     OW15243   2.043   9.832   5.233 -0.8832 -0.4323  0.4937
36469SOL    HW115244   1.954   9.803   5.215 -1.4252  0.6530  1.2896
36469SOL    HW215245   2.043   9.851   5.327  0.3657 -0.9913  0.6216
36470SOL     OW15246  10.271   9.815   5.989 -0.5070 -0.2217  0.3193
36470SOL    HW115247  10.325   9.738   5.973  1.2909  0.7730  1.3102
36470SOL    HW215248  10.199   9.807   5.926  0.3187 -2.0341 -0.4746
36471SOL     OW15249   0.015  11.291   2.600 -0.7451 -0.0927  0.0223
36471SOL    HW115250  -0.040  11.251   2.532 -1.7606 -0.0127  0.7757
36471SOL    HW215251   0.104  11.288   2.564 -1.3927  0.9531 -1.8030
36472SOL     OW15252   2.002  10.968   7.311  0.3051 -0.4191 -0.2806
36472SOL    HW115253   1.936  11.034   7.332  1.4444 -0.3741  4.0347
36472SOL    HW215254   2.085  11.014   7.318  1.0156 -1.3363 -1.9474
36473SOL     OW15255   5.221   0.736   6.784 -0.2056 -0.1451  0.1171
36473SOL    HW115256   5.279   0.682   6.730 -1.1745 -1.8256  0.6738
36473SOL    HW215257   5.134   0.699   6.769 -0.7610  0.6325  1.2956
36474SOL     OW15258   9.138   0.653   2.832  0.2671 -0.3229 -0.3350
36474SOL    HW115259   9.170   0.669   2.921 -0.4292 -2.4353  0.3747
36474SOL    HW215260   9.079   0.726   2.814  0.9610  0.5094  0.6498
36475SOL     OW15261  11.559   2.584   3.894  0.1973 -0.5197  0.1067
36475SOL    HW115262  11.638   2.535   3.918 -0.3286 -1.2194  0.4613
36475SOL    HW215263  11.501   2.518   3.856 -0.6539 -0.2481  0.8825
36476SOL     OW15264   5.912   7.015   7.421  0.1212  0.3552 -0.0310
36476SOL    HW115265   5.940   6.968   7.500  1.1794  2.3697  0.8777
36476SOL    HW215266   5.990   7.017   7.366  0.1913  1.2821  0.0872
36477SOL     OW15267   2.739   8.490  11.484  0.1676 -0.2104 -0.5166
36477SOL    HW115268   2.727   8.550  11.410 -0.8052 -1.6497 -1.5948
36477SOL    HW215269   2.666   8.509  11.542  0.7064  0.6505 -0.1048
36478SOL     OW15270   3.079   5.902  10.190 -0.0617  0.3490 -0.1663
36478SOL    HW115271   3.094   5.974  10.128 -0.5927 -0.4765 -1.2700
36478SOL    HW215272   3.165   5.889  10.231  0.3670  0.7540 -0.9021
36479SOL     OW15273   3.495   7.373   0.318  0.4152  0.1848  0.0704
36479SOL    HW115274   3.429   7.433   0.354 -0.2536  0.5719 -1.6516
36479SOL    HW215275   3.561   7.365   0.386 -0.6868  0.9703  1.2809
36480SOL     OW15276  11.725   0.964   7.190  0.5038 -0.3609  0.2033
36480SOL    HW115277  11.779   0.895   7.228 -0.4306 -0.5248  1.3157
36480SOL    HW215278  11.643   0.920   7.167 -0.3840  0.4656  1.6115
36481SOL     OW15279  10.333  12.223   4.690 -0.5079  0.1483  0.0705
36481SOL    HW115280  10.371  12.272   4.617  0.4629 -1.9831 -0.9315
36481SOL    HW215281  10.383  12.251   4.767 -1.6643  2.5523  0.0395
36482SOL     OW15282   0.678   9.709   7.411  0.5994 -0.3185  0.1348
36482SOL    HW115283   0.630   9.637   7.451  1.3943 -0.8564  0.1347
36482SOL    HW215284   0.755   9.668   7.371 -1.2291 -0.1601 -3.9342
36483SOL     OW15285  11.812   6.031   0.395  0.6434  0.5506 -0.6311
36483SOL    HW115286  11.864   6.026   0.475  2.1644  0.9564 -1.5342
36483SOL    HW215287  11.876   6.056   0.327 -0.7510  1.0558 -1.8083
36484SOL     OW15288   5.520   0.405   5.772  0.0791  0.2667 -0.3237
36484SOL    HW115289   5.517   0.310   5.777  0.3480  0.2778  0.0926
36484SOL    HW215290   5.507   0.425   5.679  2.0972 -0.2686 -0.7648
36485SOL     OW15291   0.652   6.060   7.663  0.7711 -0.2697 -0.2005
36485SOL    HW115292   0.716   6.068   7.733  0.2951 -1.1188  0.3526
36485SOL    HW215293   0.587   5.998   7.697  1.3116 -1.8834 -1.9558
36486SOL     OW15294   5.210   5.332   8.964  0.0056  0.1013  0.6186
36486SOL    HW115295   5.123   5.293   8.970  0.7809 -1.9933 -0.5910
36486SOL    HW215296   5.265   5.278   9.022  1.0949 -0.6721 -1.0390
36487SOL     OW15297   2.062   8.800   9.755 -0.4914  0.4586  0.3565
36487SOL    HW115298   2.002   8.823   9.684  1.0506  0.0782 -1.1366
36487SOL    HW215299   2.023   8.721   9.794  0.6910 -1.9101 -2.8620
36488SOL     OW15300   2.045   7.513  11.897 -0.0387  0.6543  0.1696
36488SOL    HW115301   1.986   7.555  11.960  1.5259  0.4461  1.8184
36488SOL    HW215302   2.043   7.572  11.821 -0.8088  1.7071  0.9682
36489SOL     OW15303   7.135   1.065   3.392  0.0675 -0.3343 -0.5650
36489SOL    HW115304   7.149   1.028   3.479 -0.0333 -0.4684 -0.6050
36489SOL    HW215305   7.042   1.051   3.374 -0.7436  2.6204  0.6667
36490SOL     OW15306   3.893   8.178  10.876 -0.5014  0.0629  0.2743
36490SOL    HW115307   3.891   8.237  10.951 -0.3806  0.2546  0.1276
36490SOL    HW215308   3.948   8.105  10.904 -0.2943  0.2294  0.3018
36491SOL     OW15309  10.233   4.520   0.819 -0.1442 -0.1055  0.3510
36491SOL    HW115310  10.261   4.463   0.747  0.1511 -1.3637  1.4459
36491SOL    HW215311  10.311   4.570   0.841 -0.4903  1.0231 -0.8351
36492SOL     OW15312  10.683   1.131   1.468  0.0815 -0.1519  0.2464
36492SOL    HW115313  10.658   1.082   1.546 -0.2674 -0.4504 -0.0501
36492SOL    HW215314  10.700   1.064   1.402  1.2297  0.0575  0.3058
36493SOL     OW15315  10.768  10.441   8.086  0.0485  0.5092  0.5603
36493SOL    HW115316  10.784  10.528   8.051 -0.2599  0.1131 -0.6232
36493SOL    HW215317  10.855  10.404   8.099  0.1758  0.8844  0.7798
36494SOL     OW15318   5.706  11.550  11.210  0.2694  0.3896 -0.2399
36494SOL    HW115319   5.676  11.461  11.228  0.7570  0.4700  1.0995
36494SOL    HW215320   5.717  11.553  11.115  1.4441 -1.3848 -0.2042
36495SOL     OW15321   5.886   1.559  10.951 -0.3251  0.1832  0.2205
36495SOL    HW115322   5.969   1.512  10.959 -0.6406 -0.5258 -0.5479
36495SOL    HW215323   5.910   1.651  10.961  0.3335 -0.1000  1.4902
36496SOL     OW15324   0.614   3.316  11.954  0.3954 -0.2551 -0.2188
36496SOL    HW115325   0.658   3.237  11.985 -0.1812 -1.2673 -1.8715
36496SOL    HW215326   0.523   3.306  11.982  0.4243  0.0645 -0.0038
36497SOL     OW15327   5.037   3.611   0.522 -0.1184  0.1347 -0.0215
36497SOL    HW115328   5.062   3.572   0.607  0.6997  0.3214 -0.1655
36497SOL    HW215329   4.969   3.553   0.489  1.1792 -1.3259 -0.3055
36498SOL     OW15330   2.378   8.330   1.023  0.4425 -0.5276 -0.1298
36498SOL    HW115331   2.446   8.270   0.992 -1.3636 -2.1355 -1.1931
36498SOL    HW215332   2.323   8.276   1.080 -0.2778  0.5958  0.2687
36499SOL     OW15333   2.210  10.588   4.230  0.3352  0.0498  0.6428
36499SOL    HW115334   2.232  10.500   4.260  0.7215 -0.9315 -2.2648
36499SOL    HW215335   2.143  10.575   4.163 -2.2092  2.2907  2.5093
36500SOL     OW15336  10.266   3.593   2.045 -0.1367 -0.2238  0.2813
36500SOL    HW115337  10.326   3.530   2.086  0.2449 -0.0884 -0.0523
36500SOL    HW215338  10.324   3.660   2.007 -0.5856  1.9604  3.1257
36501SOL     OW15339   3.068   7.473   2.027  0.5504 -0.6777 -0.0410
36501SOL    HW115340   2.989   7.463   1.975  0.4263  0.1343 -0.0241
36501SOL    HW215341   3.064   7.402   2.091 -0.1133 -0.7046 -0.1061
36502SOL     OW15342  10.639   6.341   5.589 -0.0274 -0.1492  0.0979
36502SOL    HW115343  10.632   6.436   5.576  1.1049  0.0522  0.7369
36502SOL    HW215344  10.733   6.326   5.599 -0.3333 -1.0112  2.2391
36503SOL     OW15345   0.695   4.776   1.389  0.4747  0.0956  0.2362
36503SOL    HW115346   0.732   4.863   1.376 -0.1800  0.3984  0.3434
36503SOL    HW215347   0.677   4.744   1.300 -0.9940  0.8338  0.2489
36504SOL     OW15348   3.444   3.084  11.482  0.1084 -0.4680  0.5350
36504SOL    HW115349   3.355   3.071  11.517 -0.1784 -1.4432 -0.4901
36504SOL    HW215350   3.472   3.167  11.519 -1.7460  0.5226 -0.1276
36505SOL     OW15351   7.220   1.355   8.618 -0.0900  0.2978  0.2878
36505SOL    HW115352   7.195   1.394   8.534  1.1732  2.9319  1.0073
36505SOL    HW215353   7.138   1.346   8.666 -0.4504  2.6724  0.2272
36506SOL     OW15354   0.376   9.287   1.022 -0.4384 -0.1324  0.0202
36506SOL    HW115355   0.398   9.355   1.086  0.1002  1.1570 -1.4838
36506SOL    HW215356   0.302   9.324   0.973 -1.5406 -1.5471  0.5298
36507SOL     OW15357  10.136  11.542  11.942  0.0083 -0.4869 -0.5962
36507SOL    HW115358  10.068  11.505  11.998 -1.3162  0.7321 -1.3444
36507SOL    HW215359  10.109  11.521  11.853  1.9712 -2.1913 -0.8706
36508SOL     OW15360   9.696   6.485   1.927 -0.2949 -0.1646  0.6247
36508SOL    HW115361   9.630   6.432   1.973  0.6579 -3.4815 -1.4592
36508SOL    HW215362   9.779   6.439   1.942  0.2656 -0.6865 -3.0545
36509SOL     OW15363   4.811   3.325   2.048 -0.2419  0.1044  0.0106
36509SOL    HW115364   4.860   3.403   2.024 -3.7874  3.5629  2.8549
36509SOL    HW215365   4.858   3.289   2.123  0.3918  0.6129 -0.1344
36510SOL     OW15366  11.430   7.119   4.930  0.1010  0.3082 -0.6610
36510SOL    HW115367  11.467   7.071   5.004 -0.5843 -1.6015 -1.5060
36510SOL    HW215368  11.366   7.178   4.969  0.3956 -0.0156  0.3367
36511SOL     OW15369   7.148  10.626  10.963 -0.2972 -0.4339  0.5013
36511SOL    HW115370   7.122  10.601  10.875 -1.4892  0.9545  0.4203
36511SOL    HW215371   7.125  10.551  11.018  0.2968 -1.2357 -0.3328
36512SOL     OW15372   8.467   8.079   7.894  0.3861 -0.2764 -0.1212
36512SOL    HW115373   8.553   8.072   7.936  0.3637  1.6450  0.3858
36512SOL    HW215374   8.470   8.164   7.849 -1.2465 -0.1483 -0.0433
36513SOL     OW15375   8.359  10.499   7.212 -0.4623 -0.2788  0.1076
36513SOL    HW115376   8.416  10.551   7.268  0.0379 -1.4882  0.7719
36513SOL    HW215377   8.383  10.523   7.123  1.6642 -1.3040  0.3415
36514SOL     OW15378   5.733   5.804   6.981  0.0544 -0.0454 -0.5826
36514SOL    HW115379   5.777   5.848   7.054 -2.0941  0.6348  0.3809
36514SOL    HW215380   5.701   5.722   7.019  0.9424 -0.8055 -1.4209
36515SOL     OW15381  12.113   6.012  12.073  0.9566 -0.2528 -0.2056
36515SOL    HW115382  12.198   6.051  12.096 -0.1183  1.0493  1.7976
36515SOL    HW215383  12.054   6.038  12.143 -1.3709 -0.3602 -1.9875
36516SOL     OW15384   2.369  10.737  12.176  0.2430 -0.1725  0.2590
36516SOL    HW115385   2.276  10.726  12.195 -0.2887  0.8953 -1.4948
36516SOL    HW215386   2.387  10.674  12.107  0.4905  0.4580 -0.2714
36517SOL     OW15387   9.647   9.859   8.001  0.6635  0.2146  0.3572
36517SOL    HW115388   9.702   9.782   7.987  0.7077 -0.0259  1.7477
36517SOL    HW215389   9.557   9.827   7.988  0.5161 -0.6345  2.9912
36518SOL     OW15390   9.544   8.873   5.518 -0.1309 -0.1661 -0.2289
36518SOL    HW115391   9.538   8.787   5.559 -0.4244  0.2822  0.7194
36518SOL    HW215392   9.464   8.918   5.546 -1.1956 -0.3879 -2.7193
36519SOL     OW15393   2.388   4.422   8.017 -0.3655  0.3345 -0.0515
36519SOL    HW115394   2.333   4.376   7.953  0.6538 -1.0130 -0.0144
36519SOL    HW215395   2.411   4.354   8.081  0.5448  1.0920  0.4544
36520SOL     OW15396   8.827   9.794  11.702  0.0809 -0.5936 -0.1387
36520SOL    HW115397   8.750   9.800  11.646 -1.5813  1.5189  2.1971
36520SOL    HW215398   8.868   9.880  11.697  1.5208 -1.2482 -0.2294
36521SOL     OW15399   1.512   2.073   9.679  0.2702  0.1084 -0.4901
36521SOL    HW115400   1.605   2.049   9.684  0.0377 -0.9838 -1.1991
36521SOL    HW215401   1.466   1.990   9.676 -0.7235  0.6517 -0.5211
36522SOL     OW15402  11.885  11.670   5.985 -0.7093  0.3331 -0.4633
36522SOL    HW115403  11.811  11.609   5.989  0.0730 -0.6021  0.6228
36522SOL    HW215404  11.865  11.728   5.912 -2.3586 -0.0967 -0.3838
36523SOL     OW15405   7.116   6.148  12.030  0.4767  0.2432 -0.0986
36523SOL    HW115406   7.150   6.230  12.067  0.0843 -0.1233  1.0891
36523SOL    HW215407   7.028   6.170  12.000  1.1730  0.8201 -1.8742
36524SOL     OW15408   6.676   0.652   5.580 -0.1448 -0.2380 -0.1854
36524SOL    HW115409   6.682   0.573   5.526 -1.5894 -0.7130  0.2833
36524SOL    HW215410   6.606   0.703   5.541  1.4407  1.3548 -1.0845
36525SOL     OW15411  10.847  11.891   4.869 -0.2883  0.1313 -0.0817
36525SOL    HW115412  10.831  11.806   4.911  0.5132  0.8749  1.8498
36525SOL    HW215413  10.779  11.897   4.802 -1.3090 -1.3875  0.7429
36526SOL     OW15414   2.615  10.182   2.672 -0.1556  0.0156 -0.1508
36526SOL    HW115415   2.701  10.140   2.675  0.1676  0.7193  1.5666
36526SOL    HW215416   2.621  10.252   2.736 -2.0020  0.1317 -0.0664
36527SOL     OW15417   1.604  12.191  12.249  0.0228  0.2316  0.3310
36527SOL    HW115418   1.623  12.157  12.162 -0.4047  0.5029  0.1297
36527SOL    HW215419   1.509  12.200  12.252  0.1525  2.1061  0.0952
36528SOL     OW15420   6.278   2.620  11.032 -0.4923  0.0100 -0.1409
36528SOL    HW115421   6.310   2.710  11.043 -0.4554 -0.1272  0.9485
36528SOL    HW215422   6.308   2.574  11.110  1.3359 -1.5099 -1.6700
36529SOL     OW15423   4.079   9.405   3.723 -0.3248  0.1065 -0.6785
36529SOL    HW115424   4.013   9.391   3.656 -0.8484 -0.9542  0.0281
36529SOL    HW215425   4.033   9.388   3.806  0.4129  0.9579 -0.0665
36530SOL     OW15426   7.419   9.330   5.487 -0.0806  0.8083  0.1891
36530SOL    HW115427   7.383   9.336   5.398 -2.2674  0.6439  0.9921
36530SOL    HW215428   7.373   9.398   5.536 -1.0258 -0.9220  1.8316
36531SOL     OW15429   8.247   9.248   1.287  0.1308  0.6781  0.8253
36531SOL    HW115430   8.163   9.283   1.259 -0.7676 -1.6315  0.3959
36531SOL    HW215431   8.312   9.308   1.251 -1.2832  1.8627  0.1683
36532SOL     OW15432   4.014   3.433   2.555 -0.2012 -0.1136 -0.3066
36532SOL    HW115433   4.059   3.443   2.639  1.1227  0.8234 -1.0732
36532SOL    HW215434   4.080   3.395   2.497 -0.0099  2.1370 -1.7107
36533SOL     OW15435   1.518   8.657   5.035 -0.0164  0.3796 -0.0006
36533SOL    HW115436   1.516   8.583   4.974  0.0643  1.1801 -0.9906
36533SOL    HW215437   1.565   8.726   4.989  1.2838  0.5560  1.5011
36534SOL     OW15438   5.127   3.662   7.409 -0.9291  0.0893  0.4852
36534SOL    HW115439   5.187   3.645   7.482 -0.1970  1.2864  0.1968
36534SOL    HW215440   5.170   3.732   7.359 -1.5207 -0.5586 -0.9846
36535SOL     OW15441   6.240   2.884   1.198  0.2313  0.8938  0.2735
36535SOL    HW115442   6.236   2.940   1.121  0.5592  0.5192 -0.0193
36535SOL    HW215443   6.256   2.945   1.271 -0.5456  1.2973  0.1193
36536SOL     OW15444   7.768  10.002   2.426  0.1968  0.0902  1.2104
36536SOL    HW115445   7.852   9.999   2.380 -0.4768  0.4024 -0.0977
36536SOL    HW215446   7.747   9.911   2.443  0.0618 -0.0990  0.1122
36537SOL     OW15447   2.116   1.223  10.918 -0.3749  0.0385 -0.0577
36537SOL    HW115448   2.104   1.150  10.979 -0.7227  0.4624  0.3933
36537SOL    HW215449   2.170   1.188  10.848  0.9174 -0.1784  1.0033
36538SOL     OW15450  11.863   6.568  12.202 -0.4241 -0.2597 -0.0796
36538SOL    HW115451  11.958   6.576  12.195 -0.4617 -0.7824 -1.2705
36538SOL    HW215452  11.847   6.474  12.215 -0.6992  0.0080  1.9232
36539SOL     OW15453   8.010  10.076   8.738 -0.1334 -0.6409  0.0460
36539SOL    HW115454   8.084  10.015   8.745  0.1760 -0.2561  0.2130
36539SOL    HW215455   7.977  10.085   8.827  1.0452  0.9025  0.3850
36540SOL     OW15456  10.175   3.254   9.075 -0.2753 -0.6016  0.7993
36540SOL    HW115457  10.148   3.332   9.123  0.2788  0.0645  0.0487
36540SOL    HW215458  10.245   3.216   9.129 -0.5749 -0.6195  1.1852
36541SOL     OW15459   3.899   9.868   3.308 -0.1707 -0.3346 -0.3316
36541SOL    HW115460   3.841   9.887   3.234 -0.0452 -0.8133 -0.5566
36541SOL    HW215461   3.944   9.788   3.283  0.3070 -0.1770  0.0137
36542SOL     OW15462   6.216   6.778  11.685  0.2140  0.3195  0.1117
36542SOL    HW115463   6.300   6.782  11.731  0.5510 -0.6566 -0.3730
36542SOL    HW215464   6.223   6.699  11.630 -0.1481  1.4703 -1.6563
36543SOL     OW15465  10.347   8.551   3.901 -0.3480 -0.4388 -0.0715
36543SOL    HW115466  10.322   8.575   3.812  1.3927 -0.2888 -0.5583
36543SOL    HW215467  10.415   8.485   3.889  0.4455  0.1387  1.1279
36544SOL     OW15468   7.890   9.868   7.792  0.0994 -0.6141 -0.1610
36544SOL    HW115469   7.828   9.919   7.844  1.0576 -1.1802  1.6024
36544SOL    HW215470   7.874   9.777   7.817  1.6600 -0.7689  0.4150
36545SOL     OW15471  10.686   9.469   9.995 -0.2683 -0.1758 -0.4664
36545SOL    HW115472  10.618   9.500  10.054 -0.4339 -0.2093 -0.6386
36545SOL    HW215473  10.742   9.413  10.049  0.3602  0.8581 -0.0147
36546SOL     OW15474   6.434   4.956   1.518  0.5467  0.2385 -0.4624
36546SOL    HW115475   6.481   4.873   1.525 -0.2799 -0.2363 -0.3905
36546SOL    HW215476   6.360   4.947   1.578  0.0077  0.7173 -1.0372
36547SOL     OW15477   4.868   8.552   7.881 -0.2805  0.3987  0.1844
36547SOL    HW115478   4.805   8.480   7.888  0.9048 -0.7697 -0.5947
36547SOL    HW215479   4.820   8.622   7.836 -1.6405  0.3497  1.4825
36548SOL     OW15480   0.331  10.228   4.243  0.5226 -0.0319 -0.0156
36548SOL    HW115481   0.351  10.207   4.334  0.7207  0.2183 -0.0023
36548SOL    HW215482   0.366  10.154   4.193  1.0109  0.1497  0.0535
36549SOL     OW15483  10.817  10.583   9.723  0.0711  0.3504 -0.6517
36549SOL    HW115484  10.836  10.674   9.747  1.5085  1.2522 -4.3684
36549SOL    HW215485  10.761  10.591   9.645 -1.1668 -2.0299 -0.0847
36550SOL     OW15486   2.615   7.167  10.177  0.3482 -0.0493  0.4676
36550SOL    HW115487   2.646   7.256  10.161  1.3137 -0.5725 -0.7753
36550SOL    HW215488   2.528   7.164  10.137  0.2524  0.3720  0.6391
36551SOL     OW15489   3.979   2.699   0.650  0.0446 -0.2494  0.5711
36551SOL    HW115490   4.032   2.738   0.580  1.0367 -2.8901 -0.2830
36551SOL    HW215491   3.890   2.695   0.613 -0.2910  1.8420  1.0186
36552SOL     OW15492   8.899  10.334   3.899 -0.1648 -0.8263 -0.3792
36552SOL    HW115493   8.912  10.291   3.983  0.2021  0.1839  0.0866
36552SOL    HW215494   8.818  10.384   3.909 -0.4013 -1.1091 -0.8095
36553SOL     OW15495   2.985  10.504   2.061 -0.2271 -0.7230  0.3673
36553SOL    HW115496   2.903  10.553   2.072 -0.0156  0.5296 -2.6154
36553SOL    HW215497   2.973  10.456   1.980  2.2712  0.2136 -0.6521
36554SOL     OW15498   8.299   8.530   2.840  0.5487 -0.1652 -0.3332
36554SOL    HW115499   8.213   8.569   2.830  0.4560 -0.5749 -1.2373
36554SOL    HW215500   8.293   8.445   2.796  1.4344 -0.1645 -0.4903
36555SOL     OW15501   9.147   4.008   6.517 -0.0059  0.0067 -0.7334
36555SOL    HW115502   9.087   4.060   6.571  1.7329 -0.6058  1.9574
36555SOL    HW215503   9.089   3.957   6.460 -2.1493 -0.9942  2.1149
36556SOL     OW15504  11.185   7.247   8.793  0.3280 -0.3532 -0.3642
36556SOL    HW115505  11.207   7.341   8.793 -1.4270  0.1616  1.8940
36556SOL    HW215506  11.117   7.239   8.726 -0.4586  0.3096  0.3165
36557SOL     OW15507   1.592  12.018  11.486 -0.4322 -0.4564 -0.1401
36557SOL    HW115508   1.658  12.079  11.517 -0.1281 -0.1422 -1.3699
36557SOL    HW215509   1.635  11.932  11.489 -0.0404 -0.2837 -0.7169
36558SOL     OW15510   4.415   5.276   9.522 -0.5176  0.9251  0.2425
36558SOL    HW115511   4.350   5.330   9.477 -0.4859  2.2478  1.7009
36558SOL    HW215512   4.414   5.308   9.612  1.2168  0.0798  0.5987
36559SOL     OW15513  10.940  11.798  10.255 -0.0862  0.3390 -0.0230
36559SOL    HW115514  11.020  11.812  10.204  0.2766 -3.2129 -0.6836
36559SOL    HW215515  10.872  11.782  10.190 -1.6078  3.6566  0.5159
36560SOL     OW15516   6.705   4.995   6.047 -0.0869  0.1736  0.7389
36560SOL    HW115517   6.789   4.950   6.052  1.2124  1.9461 -2.4911
36560SOL    HW215518   6.723   5.075   5.997 -3.6510  0.7691  0.1384
36561SOL     OW15519   8.014   2.694   4.588 -0.6883  0.5093  0.3456
36561SOL    HW115520   7.976   2.743   4.515  0.5882  3.0226  1.2456
36561SOL    HW215521   7.963   2.720   4.664 -1.0302 -0.8991  0.6283
36562SOL     OW15522   8.749  11.981   9.875 -0.0511  0.0553  0.1965
36562SOL    HW115523   8.670  11.972   9.927  0.4159  2.0829  1.3933
36562SOL    HW215524   8.796  12.054   9.916  1.5886  0.0549 -1.5396
36563SOL     OW15525   6.413   8.384  12.116 -0.6304 -0.1268  0.0493
36563SOL    HW115526   6.351   8.420  12.179 -0.6130  0.7326 -0.4002
36563SOL    HW215527   6.393   8.430  12.034 -0.1481 -0.6607 -0.3767
36564SOL     OW15528  12.217   7.055   8.029 -0.2154 -0.1810  0.1972
36564SOL    HW115529  12.297   7.104   8.013  0.6406 -0.7941  2.2432
36564SOL    HW215530  12.170   7.106   8.094 -0.3086 -1.0090  0.7992
36565SOL     OW15531  11.295   4.194  11.060  1.0841  0.1140  0.2383
36565SOL    HW115532  11.287   4.133  11.133  0.3268  1.2150  1.1067
36565SOL    HW215533  11.312   4.139  10.984  0.1251 -1.1973  0.9485
36566SOL     OW15534   0.631   8.274   9.948 -0.0908 -1.1514  0.3390
36566SOL    HW115535   0.538   8.271   9.970  0.0998 -0.0333  1.4321
36566SOL    HW215536   0.670   8.328  10.017  1.0305  0.1472 -1.2413
36567SOL     OW15537   8.604   0.317   1.715 -0.3004  0.0611 -0.2176
36567SOL    HW115538   8.603   0.401   1.668 -1.2649 -0.5760 -1.4060
36567SOL    HW215539   8.681   0.272   1.681 -0.1240  0.2241 -0.0330
36568SOL     OW15540   8.628  12.160  12.029  0.4046  0.0084  0.3755
36568SOL    HW115541   8.652  12.237  12.081  0.4046 -0.2729  0.7976
36568SOL    HW215542   8.699  12.151  11.966  1.2297 -0.5842  1.3574
36569SOL     OW15543  12.007   8.798   8.529  0.3146 -0.2148 -0.4846
36569SOL    HW115544  12.011   8.833   8.618 -0.3013 -0.8230 -0.2022
36569SOL    HW215545  12.098   8.797   8.499  0.7894 -1.8063  0.8789
36570SOL     OW15546   0.170   0.792  12.232 -0.0112 -0.6065  0.0012
36570SOL    HW115547   0.161   0.727  12.163  2.5560 -0.2421 -0.7703
36570SOL    HW215548   0.249   0.842  12.209  1.3126 -0.8129  3.4578
36571SOL     OW15549  12.039   1.740   0.202 -0.1076 -0.0592  0.0951
36571SOL    HW115550  11.989   1.659   0.196 -0.4432  0.1616 -0.1092
36571SOL    HW215551  12.120   1.723   0.153  0.4885 -0.7588  1.2643
36572SOL     OW15552   6.318  11.982   4.970 -0.4078 -0.1924 -0.3717
36572SOL    HW115553   6.377  11.919   5.011  0.3498  0.5996 -0.2242
36572SOL    HW215554   6.247  11.992   5.033  0.0554 -0.0264  0.1366
36573SOL     OW15555   2.822   8.883   8.071 -0.1330  0.0517 -0.3944
36573SOL    HW115556   2.813   8.940   8.147 -0.7772  0.2826 -0.6368
36573SOL    HW215557   2.824   8.943   7.996  2.0095 -0.0662 -0.4875
36574SOL     OW15558   1.850   9.079  10.078  0.2227 -0.2596 -0.1746
36574SOL    HW115559   1.905   9.014  10.034  0.2568 -0.0260 -0.4792
36574SOL    HW215560   1.833   9.145  10.011 -1.6223 -1.0364 -0.5237
36575SOL     OW15561   3.953   2.510   3.696 -0.3181  0.1579  0.2506
36575SOL    HW115562   3.942   2.442   3.762 -0.2271 -1.2041 -1.0991
36575SOL    HW215563   3.902   2.584   3.729 -2.3763 -1.3527  0.6466
36576SOL     OW15564   6.373   9.941   2.659 -0.8868  0.1521  0.3958
36576SOL    HW115565   6.439   9.899   2.604 -0.5018 -0.1186  1.0460
36576SOL    HW215566   6.420  10.011   2.704 -0.7983 -0.6040  1.5421
36577SOL     OW15567   5.701   7.908   4.183 -0.0495  0.0633 -0.3079
36577SOL    HW115568   5.627   7.849   4.167  0.6587 -0.7177 -0.7740
36577SOL    HW215569   5.661   7.995   4.190 -0.8055  0.0515 -3.1099
36578SOL     OW15570  11.048   9.811  12.161 -0.5403  0.3027  0.0246
36578SOL    HW115571  11.048   9.896  12.117  0.5971 -0.8203 -2.3285
36578SOL    HW215572  11.126   9.767  12.128 -1.3332 -1.8371  0.8346
36579SOL     OW15573   0.392   3.153  10.050  0.4863  0.0080  0.3686
36579SOL    HW115574   0.465   3.097  10.079  0.1791  0.1330  1.3934
36579SOL    HW215575   0.334   3.093  10.003  0.8786 -0.2343  0.1775
36580SOL     OW15576   0.979   3.864   2.400 -0.4671 -0.7791  0.2639
36580SOL    HW115577   0.928   3.927   2.349  0.7708  0.4797  0.5335
36580SOL    HW215578   0.995   3.907   2.484  0.1421 -1.5870  0.5801
36581SOL     OW15579  11.054   3.087   1.937 -0.1730 -0.0838  0.3849
36581SOL    HW115580  11.088   3.136   2.012 -2.0878  1.8233  0.0988
36581SOL    HW215581  10.960   3.083   1.951 -0.7111  1.0348 -2.2370
36582SOL     OW15582   9.518   0.313  10.821 -0.3409  0.5028  0.0067
36582SOL    HW115583   9.591   0.262  10.784 -1.8407 -0.4038 -1.8844
36582SOL    HW215584   9.464   0.248  10.866  0.1444  1.2299  1.7424
36583SOL     OW15585  10.171   0.103   8.974 -0.3644 -0.1808  0.0322
36583SOL    HW115586  10.238   0.167   8.948 -1.4977  1.9658  2.0046
36583SOL    HW215587  10.192   0.082   9.065 -0.6223 -1.8936 -0.2736
36584SOL     OW15588   4.480   4.642   4.834 -0.0019  0.7043  0.1958
36584SOL    HW115589   4.394   4.642   4.877 -1.8910  0.4453 -3.1946
36584SOL    HW215590   4.503   4.734   4.825 -1.2134  0.9089 -1.0829
36585SOL     OW15591   2.040   3.160   3.470 -0.2759 -0.5418  0.6624
36585SOL    HW115592   2.094   3.089   3.434 -0.9301 -1.7176  1.9543
36585SOL    HW215593   2.103   3.218   3.513  0.3422  0.0824 -0.9605
36586SOL     OW15594   3.979   6.409   2.316  0.0051  0.1083 -0.5097
36586SOL    HW115595   4.069   6.377   2.329  0.2000  0.6591 -0.4619
36586SOL    HW215596   3.957   6.384   2.226 -0.3725 -1.3997 -0.0109
36587SOL     OW15597   4.881   9.086   0.976 -0.7238  0.5301 -0.2505
36587SOL    HW115598   4.961   9.135   0.958 -0.4505  0.9107  1.8076
36587SOL    HW215599   4.810   9.142   0.944 -0.2277  0.3617 -1.7314
36588SOL     OW15600  11.181   0.216  12.289 -0.3033 -0.1897 -0.5090
36588SOL    HW115601  11.191   0.130  12.331  1.4640 -1.4351 -3.1912
36588SOL    HW215602  11.128   0.266  12.351 -1.3076 -3.1318  1.2710
36589SOL     OW15603   0.199   3.525   7.199 -0.7391 -0.1186  0.4014
36589SOL    HW115604   0.187   3.450   7.257 -1.2360 -0.2666  0.1135
36589SOL    HW215605   0.294   3.533   7.190 -0.6652 -0.2243  1.0621
36590SOL     OW15606   5.108   7.805   7.326 -0.0854 -0.5478 -0.1283
36590SOL    HW115607   5.056   7.727   7.308 -1.2991  0.1693  0.0760
36590SOL    HW215608   5.171   7.810   7.255 -1.3594 -0.5913 -1.2979
36591SOL     OW15609   5.452  11.222   9.850  0.5393 -0.5093 -0.2766
36591SOL    HW115610   5.382  11.193   9.908  0.5463 -1.0161 -0.5143
36591SOL    HW215611   5.511  11.147   9.844  0.8679 -0.2422 -0.4363
36592SOL     OW15612  10.058  11.856  10.801  0.3149  0.3450  0.4096
36592SOL    HW115613  10.014  11.926  10.752 -0.1314 -0.5978 -0.5775
36592SOL    HW215614  10.058  11.887  10.892 -0.6453  1.2470  0.1264
36593SOL     OW15615   1.710   3.019   4.393 -0.3917  0.6120  0.0168
36593SOL    HW115616   1.719   3.017   4.297 -0.7854 -1.0172 -0.0151
36593SOL    HW215617   1.732   2.930   4.421 -1.6603  0.6796  1.3122
36594SOL     OW15618   6.537   3.901   7.349  0.0094  0.3020  0.7032
36594SOL    HW115619   6.601   3.838   7.317 -0.6843  0.0243 -0.1797
36594SOL    HW215620   6.453   3.857   7.337 -0.3583  0.6677  1.8180
36595SOL     OW15621  12.206   6.109   3.379 -0.1560  0.0089  0.3275
36595SOL    HW115622  12.214   6.173   3.308  1.3591 -2.0077 -1.4604
36595SOL    HW215623  12.112   6.104   3.396 -0.6295  0.2546 -1.8812
36596SOL     OW15624  12.016  10.056   4.296  0.3321  0.1568  0.9827
36596SOL    HW115625  12.026  10.131   4.237  0.0403 -0.6580 -0.1560
36596SOL    HW215626  12.000  10.094   4.382  1.7168  1.4078  0.7329
36597SOL     OW15627   4.711   6.657   3.515  0.3298 -0.0813  0.0999
36597SOL    HW115628   4.764   6.589   3.473 -0.5296 -2.0370  2.0063
36597SOL    HW215629   4.635   6.666   3.457  2.3800  2.5833 -2.5326
36598SOL     OW15630   8.658  11.065   7.612 -0.1402  0.0154 -0.7265
36598SOL    HW115631   8.694  11.017   7.537  0.1182  0.3242 -0.8014
36598SOL    HW215632   8.712  11.038   7.686  0.0838  0.2796 -0.7912
36599SOL     OW15633   1.058   8.022   2.703  0.9254 -0.0159  0.0698
36599SOL    HW115634   1.007   7.981   2.632  0.4040  1.1620 -0.2562
36599SOL    HW215635   1.140   7.972   2.705  0.7463 -0.3877 -1.0323
36600SOL     OW15636  10.296   8.890   6.414 -0.1288 -0.1321  0.3188
36600SOL    HW115637  10.298   8.794   6.414 -1.9681 -0.2166  1.1382
36600SOL    HW215638  10.253   8.913   6.331 -0.5313 -0.0666  0.5426
36601SOL     OW15639  11.278   2.827   0.848 -0.0647 -0.0992  0.6039
36601SOL    HW115640  11.314   2.818   0.936  0.8229 -0.5298  0.2069
36601SOL    HW215641  11.183   2.827   0.861  0.0030 -2.0073  1.4120
36602SOL     OW15642   2.260  10.242   2.069 -0.3824 -0.2402 -0.2643
36602SOL    HW115643   2.200  10.309   2.037  0.7941  0.8993 -0.1479
36602SOL    HW215644   2.233  10.227   2.160  0.3062  1.2662  0.2316
36603SOL     OW15645  10.489  11.432   3.260 -0.5692 -0.2586  0.4538
36603SOL    HW115646  10.396  11.449   3.243 -0.0718  3.0539  0.3471
36603SOL    HW215647  10.498  11.337   3.252 -3.9432 -0.7104  0.5844
36604SOL     OW15648   4.381  10.045   4.138  0.1311 -0.1647  0.3090
36604SOL    HW115649   4.316  10.051   4.207  0.6533  0.0049  0.7940
36604SOL    HW215650   4.450  10.107   4.164 -0.7925  1.7821 -1.6102
36605SOL     OW15651   1.689   6.762   1.096 -0.2443  0.5930  0.2582
36605SOL    HW115652   1.727   6.682   1.131 -0.5624  0.1707 -0.3429
36605SOL    HW215653   1.736   6.832   1.140  0.4227  0.0769  0.3862
36606SOL     OW15654   9.767   9.116   0.192  0.1164 -0.3843  0.2402
36606SOL    HW115655   9.748   9.191   0.137  1.0512 -0.3295 -0.0298
36606SOL    HW215656   9.837   9.146   0.250  0.2188 -0.9221  0.4028
36607SOL     OW15657   5.985  11.911   5.676  0.4375 -0.4859 -0.1633
36607SOL    HW115658   5.907  11.958   5.705  0.9313  0.6102 -0.5624
36607SOL    HW215659   5.991  11.836   5.735 -1.1496 -0.8299 -0.4006
36608SOL     OW15660   7.945   6.409   4.205 -0.8280  0.5197  0.1254
36608SOL    HW115661   7.867   6.445   4.248 -1.1836  0.9078 -0.8205
36608SOL    HW215662   7.999   6.485   4.185 -0.4943  0.3057  0.2073
36609SOL     OW15663   9.922   9.680   5.635  0.3755 -0.1624 -0.1990
36609SOL    HW115664   9.828   9.700   5.637  0.3860 -0.0623 -0.7210
36609SOL    HW215665   9.962   9.753   5.683  0.3645  0.8613 -1.6696
36610SOL     OW15666   1.476   0.161   0.037  0.3713  0.4314 -0.2763
36610SOL    HW115667   1.491   0.222   0.110  1.6244  3.5740 -2.8924
36610SOL    HW215668   1.383   0.168   0.019 -0.0939 -0.9031  1.3365
36611SOL     OW15669  10.575   3.117   7.764  0.1662  0.1396  0.3673
36611SOL    HW115670  10.642   3.049   7.772 -0.6035 -0.5679  0.9018
36611SOL    HW215671  10.625   3.199   7.758  1.0727 -0.3581  0.9012
36612SOL     OW15672   5.006   0.660  10.220  0.1751  0.2758  0.1600
36612SOL    HW115673   4.978   0.717  10.149  0.3201 -0.2485 -0.3297
36612SOL    HW215674   4.950   0.683  10.294  0.3951  1.2122  0.0448
36613SOL     OW15675   5.793   2.353   8.843 -0.2670  0.2804 -0.0402
36613SOL    HW115676   5.886   2.330   8.851 -0.3958 -0.1118  0.4054
36613SOL    HW215677   5.783   2.434   8.893 -0.5059 -0.6400  1.4839
36614SOL     OW15678  11.528   6.539   8.555 -0.1426 -0.4661  0.2654
36614SOL    HW115679  11.517   6.542   8.460 -0.2221 -1.0108  0.2571
36614SOL    HW215680  11.552   6.629   8.579  0.9785 -0.5692 -0.4006
36615SOL     OW15681  11.659   1.320   3.526  0.8764  0.0895 -0.1500
36615SOL    HW115682  11.673   1.361   3.611 -2.0903  0.6053  0.2020
36615SOL    HW215683  11.633   1.230   3.546 -0.3190  0.3472 -0.4038
36616SOL     OW15684   9.782   0.184  10.315  0.6125  0.2706 -0.5067
36616SOL    HW115685   9.784   0.279  10.316  0.2706  0.3975  2.8860
36616SOL    HW215686   9.821   0.159  10.232  1.1624  3.3481 -1.2874
36617SOL     OW15687   6.934   7.674   4.058  0.1863  0.8504  0.6044
36617SOL    HW115688   7.007   7.623   4.024 -1.5530 -1.3606 -0.0204
36617SOL    HW215689   6.930   7.751   4.001 -1.8871 -2.1262 -3.8501
36618SOL     OW15690   9.648  11.146   9.773  0.6125  0.4171 -0.1469
36618SOL    HW115691   9.573  11.100   9.810  1.8112 -0.1691  1.7100
36618SOL    HW215692   9.617  11.236   9.761 -0.0488  0.5037  1.8358
36619SOL     OW15693   7.956   4.477   2.543 -0.2217 -0.2260 -0.4707
36619SOL    HW115694   7.951   4.383   2.564  1.8333 -0.0321  1.1769
36619SOL    HW215695   7.879   4.515   2.586 -0.8838 -1.0863 -0.8550
36620SOL     OW15696   1.955   3.969   8.381 -0.8392  0.7024  0.2399
36620SOL    HW115697   1.898   4.045   8.369 -1.3747  0.1212 -1.1952
36620SOL    HW215698   2.021   3.977   8.312 -0.3361  0.3625  0.6761
36621SOL     OW15699  10.586  11.549   6.402  0.4385  0.2676 -0.4224
36621SOL    HW115700  10.625  11.636   6.400  0.8674  0.0691 -1.9289
36621SOL    HW215701  10.578  11.524   6.310  0.9153 -1.5491 -0.0141
36622SOL     OW15702   8.040   0.167   6.368  0.1984  0.5743 -0.2896
36622SOL    HW115703   8.036   0.187   6.274  0.4515  0.1100 -0.4044
36622SOL    HW215704   8.082   0.081   6.372 -2.4851 -0.8050  0.0911
36623SOL     OW15705  12.305   1.886   2.088  0.3361  0.0481  0.1148
36623SOL    HW115706  12.312   1.980   2.070  0.2822  0.2573  1.1220
36623SOL    HW215707  12.219   1.862   2.054 -0.3065  0.7055  1.2199
36624SOL     OW15708   5.253  10.482   8.482  0.6422  0.5713  0.0388
36624SOL    HW115709   5.327  10.542   8.479  0.6315  0.5876  0.1361
36624SOL    HW215710   5.293  10.395   8.490  0.6936  0.4904 -0.8768
36625SOL     OW15711   5.960  10.766   5.372  0.1209 -0.0551 -0.3599
36625SOL    HW115712   5.912  10.811   5.303 -0.4234 -0.9847 -0.6068
36625SOL    HW215713   5.973  10.677   5.338  1.0342 -0.1383  0.1726
36626SOL     OW15714   6.431   4.450   4.897 -0.1329 -0.2792  0.0752
36626SOL    HW115715   6.341   4.467   4.926  0.4757  2.8713  0.4473
36626SOL    HW215716   6.421   4.389   4.823 -2.5712  0.0153  0.0788
36627SOL     OW15717   1.875  11.630   1.214 -0.1021  0.2713 -0.2600
36627SOL    HW115718   1.944  11.696   1.211  0.2006  0.0371  1.0361
36627SOL    HW215719   1.899  11.566   1.147 -0.2296  1.2925 -1.3123
36628SOL     OW15720   0.507   5.592   9.127 -0.1583 -0.2320  0.4836
36628SOL    HW115721   0.492   5.499   9.109 -2.0911 -0.0471  0.9803
36628SOL    HW215722   0.430   5.636   9.092  0.4707  1.1397  0.7613
36629SOL     OW15723   0.973   2.862   9.511 -0.8158 -0.2753 -0.5418
36629SOL    HW115724   0.961   2.919   9.587  0.6731 -0.7911  0.1096
36629SOL    HW215725   0.944   2.776   9.540  2.5208 -1.1793  0.5396
36630SOL     OW15726   3.518  11.037   0.821 -0.7461  0.4309  0.1136
36630SOL    HW115727   3.462  11.085   0.760  0.7629  0.2962 -1.4412
36630SOL    HW215728   3.604  11.036   0.779  0.1377 -0.4356  1.8515
36631SOL     OW15729  11.914   2.717  11.731  0.4067 -0.5956  0.2298
36631SOL    HW115730  11.971   2.790  11.708  1.3136 -1.1954  0.5039
36631SOL    HW215731  11.940   2.646  11.671 -0.3955 -0.7208  0.0235
36632SOL     OW15732   5.612   2.820   2.011 -0.0116  0.0541 -0.2252
36632SOL    HW115733   5.702   2.843   1.989 -0.0682  1.2038  0.6434
36632SOL    HW215734   5.559   2.878   1.957 -0.2541 -0.7622 -0.8874
36633SOL     OW15735   1.408   7.585   7.431 -0.0994  0.2484 -0.3502
36633SOL    HW115736   1.432   7.643   7.359  0.1146 -1.3505 -1.6235
36633SOL    HW215737   1.316   7.564   7.414  0.1205 -0.6031 -0.5026
36634SOL     OW15738   4.356  10.661   0.428 -0.8740 -0.8104 -0.1136
36634SOL    HW115739   4.310  10.713   0.495 -0.8701  1.7085 -1.9045
36634SOL    HW215740   4.309  10.577   0.427 -0.9718 -0.9020  2.8579
36635SOL     OW15741  11.984   6.075   0.193 -0.1354 -0.5887 -0.6176
36635SOL    HW115742  12.033   5.995   0.173  2.1534  0.8367 -1.1350
36635SOL    HW215743  12.018   6.140   0.132 -2.0997  0.7546 -0.3752
36636SOL     OW15744   9.256   8.822   4.283 -0.0009  0.8837 -0.0746
36636SOL    HW115745   9.189   8.815   4.215  0.8950 -2.7208 -0.8219
36636SOL    HW215746   9.209   8.801   4.364 -0.0870 -0.5314 -0.4501
36637SOL     OW15747   1.191   1.896   1.223 -0.7508  0.1485 -0.2486
36637SOL    HW115748   1.246   1.863   1.294 -1.2734 -0.1433  0.0251
36637SOL    HW215749   1.180   1.821   1.164 -1.3768  0.0226  0.0245
36638SOL     OW15750   4.719   9.201  10.150 -0.0593 -0.0929 -0.6325
36638SOL    HW115751   4.691   9.116  10.115  0.9888 -1.5232  1.7362
36638SOL    HW215752   4.654   9.223  10.216  0.3216  0.3210 -0.3913
36639SOL     OW15753   3.687   5.641  11.801 -0.1907  0.0536  0.1727
36639SOL    HW115754   3.740   5.716  11.826 -0.1472  0.2086 -0.3670
36639SOL    HW215755   3.715   5.620  11.712 -0.0875 -0.7083  0.3779
36640SOL     OW15756  11.065  12.280  11.406 -0.1915 -0.4358 -0.0169
36640SOL    HW115757  11.105  12.217  11.346  0.7987 -0.2870  0.4706
36640SOL    HW215758  11.119  12.276  11.485 -1.0256 -0.0726  0.5864
36641SOL     OW15759  10.062   8.673  11.652 -0.1213 -0.3702 -0.4740
36641SOL    HW115760  10.018   8.736  11.595  0.1735  1.3391  1.1205
36641SOL    HW215761  10.154   8.696  11.646 -0.1151  0.0596  0.9099
36642SOL     OW15762   0.010   4.907   1.784  0.0449 -0.5091 -0.2951
36642SOL    HW115763   0.094   4.947   1.760 -0.2763  0.1448 -0.3273
36642SOL    HW215764   0.035   4.826   1.829  0.7172  0.2453  0.7330
36643SOL     OW15765  11.826   9.399   8.949 -0.2113 -0.3157 -0.4675
36643SOL    HW115766  11.867   9.481   8.924 -0.3508 -0.1469 -0.1454
36643SOL    HW215767  11.758   9.423   9.012 -1.5164 -0.4883 -1.7553
36644SOL     OW15768   2.987   3.631   1.551  0.2179 -0.2602 -0.1950
36644SOL    HW115769   2.917   3.566   1.550  0.0812 -0.1241  0.2224
36644SOL    HW215770   2.960   3.695   1.617  0.6642 -0.1298 -0.1285
36645SOL     OW15771   4.843   8.725   9.910 -0.5754  0.4953 -0.1430
36645SOL    HW115772   4.818   8.777   9.834 -1.9057  0.7628  0.4377
36645SOL    HW215773   4.804   8.639   9.893 -0.0685  0.2772 -0.2003
36646SOL     OW15774   7.518   5.940   7.779  0.2497  0.3832  0.4244
36646SOL    HW115775   7.435   5.931   7.732  1.0991 -0.6964 -0.9130
36646SOL    HW215776   7.493   5.933   7.871 -1.0374 -0.9270  0.0197
36647SOL     OW15777   8.150   0.703   4.207 -0.0065 -0.4070 -0.3086
36647SOL    HW115778   8.168   0.636   4.273 -3.8373 -1.2127  0.1364
36647SOL    HW215779   8.153   0.785   4.256 -3.0980 -1.0142  1.1399
36648SOL     OW15780  10.230   0.902   2.428  0.1739 -0.6599  0.1056
36648SOL    HW115781  10.158   0.875   2.485 -0.2921 -0.1958 -0.2567
36648SOL    HW215782  10.188   0.951   2.358  0.8588 -0.2697 -0.0415
36649SOL     OW15783   5.268   4.324   7.383  0.6662 -0.0369  0.1117
36649SOL    HW115784   5.222   4.251   7.425  1.9423 -1.6076 -1.0634
36649SOL    HW215785   5.347   4.337   7.436  0.7063  0.1227  0.0130
36650SOL     OW15786   1.136  12.233   1.633 -0.4387  0.0800  0.0679
36650SOL    HW115787   1.121  12.171   1.704 -0.7547  2.3286  2.0577
36650SOL    HW215788   1.217  12.277   1.656 -1.2422  1.7851 -0.2399
36651SOL     OW15789   6.049   2.006   1.813  0.3587 -0.2181 -0.2902
36651SOL    HW115790   6.019   1.983   1.901  1.6719  0.7595  0.4363
36651SOL    HW215791   5.980   2.063   1.778 -0.7961 -1.6353 -0.4296
36652SOL     OW15792  10.602  11.729   0.602 -0.5372  0.3431  0.0023
36652SOL    HW115793  10.554  11.697   0.526  0.2113  0.5623 -0.5779
36652SOL    HW215794  10.649  11.806   0.570  1.1020 -0.5191  0.2380
36653SOL     OW15795   1.506  10.744   1.266  0.4638  0.2006 -0.4351
36653SOL    HW115796   1.462  10.680   1.321 -0.1744  0.2541 -0.8764
36653SOL    HW215797   1.587  10.701   1.239  1.8583  0.9170  2.2171
36654SOL     OW15798   2.461   4.726   4.181  0.4849 -0.6668  0.0268
36654SOL    HW115799   2.392   4.688   4.127  0.0974  1.4439 -1.0799
36654SOL    HW215800   2.418   4.797   4.228  1.8729  0.7849 -0.7877
36655SOL     OW15801  11.744   6.575   2.953 -0.7934  0.1996 -0.3845
36655SOL    HW115802  11.717   6.658   2.993  0.3190  0.4418 -0.1168
36655SOL    HW215803  11.814   6.543   3.009 -1.3120 -1.0141 -0.3951
36656SOL     OW15804  11.411   6.972  11.689  0.1191  0.3846  0.1989
36656SOL    HW115805  11.468   6.966  11.765  0.1584  0.2458  0.1605
36656SOL    HW215806  11.471   6.983  11.615  0.1148 -0.0713  0.1236
36657SOL     OW15807   3.259   9.674   0.425 -0.0481 -0.4276  0.0566
36657SOL    HW115808   3.328   9.682   0.492  0.2960 -0.7887 -0.2503
36657SOL    HW215809   3.297   9.618   0.358 -0.9563 -1.3349  0.2770
36658SOL     OW15810   4.058   5.566  11.856 -0.1730  0.3933  0.2674
36658SOL    HW115811   4.151   5.573  11.835  0.1151 -1.8476  0.5189
36658SOL    HW215812   4.039   5.645  11.906  1.2087  1.6194 -1.0378
36659SOL     OW15813   9.962   6.386   5.706  0.5027  0.0198  0.1557
36659SOL    HW115814   9.897   6.331   5.661  1.5097 -0.7175 -0.4215
36659SOL    HW215815  10.040   6.379   5.652  1.2252  0.4889  1.1273
36660SOL     OW15816   8.388  11.354   2.370 -0.3066  0.8273  0.4966
36660SOL    HW115817   8.387  11.400   2.286  0.6712  1.3102  0.7353
36660SOL    HW215818   8.297  11.328   2.384 -0.3896  0.2502 -0.9661
36661SOL     OW15819  10.638   8.799   2.427  0.8208  0.1880 -0.2108
36661SOL    HW115820  10.587   8.751   2.492  3.7100 -0.4038  1.8116
36661SOL    HW215821  10.595   8.884   2.420 -1.9849 -1.1519 -0.7849
36662SOL     OW15822   1.082   0.417  12.033  0.0574 -0.0147 -0.2339
36662SOL    HW115823   1.069   0.339  11.978  0.0500 -0.7585  0.7866
36662SOL    HW215824   1.034   0.397  12.114  0.7365  0.7076  0.3576
36663SOL     OW15825   8.568   9.028   2.836 -0.0320  0.1807  0.0617
36663SOL    HW115826   8.621   8.994   2.764  0.9069  1.0986  0.2959
36663SOL    HW215827   8.628   9.080   2.889 -0.8338  0.0154  1.1950
36664SOL     OW15828   9.212   3.219   3.532  0.3791  0.4057 -0.4653
36664SOL    HW115829   9.135   3.168   3.555  1.3731 -0.6642  0.5971
36664SOL    HW215830   9.236   3.264   3.613  0.3743  1.4293 -1.0146
36665SOL     OW15831  11.186   1.288   4.844  0.3562  0.8769  1.0129
36665SOL    HW115832  11.245   1.345   4.894 -0.7362  1.1524  2.0186
36665SOL    HW215833  11.101   1.332   4.848 -0.3766 -0.5244  1.3057
36666SOL     OW15834  10.671   4.841  11.771 -0.0459 -0.4399 -0.1145
36666SOL    HW115835  10.647   4.824  11.861 -1.0795  0.6000 -0.1698
36666SOL    HW215836  10.745   4.782  11.754  1.3982  0.6579  1.9702
36667SOL     OW15837   1.267   6.121   6.765  0.0090 -0.0464 -0.1062
36667SOL    HW115838   1.360   6.133   6.745  0.0279  0.3201  0.1945
36667SOL    HW215839   1.221   6.150   6.687  0.1291  0.2459 -0.0682
36668SOL     OW15840   9.002   4.719   2.104 -0.1825 -0.0068  0.8686
36668SOL    HW115841   8.972   4.632   2.080  1.4002 -0.3287 -0.0766
36668SOL    HW215842   9.051   4.706   2.185 -0.0675  0.0282  0.8044
36669SOL     OW15843  10.414  12.132   8.250 -0.6886  0.4284  0.5141
36669SOL    HW115844  10.427  12.062   8.314 -0.2699 -0.2942 -0.3259
36669SOL    HW215845  10.435  12.091   8.166 -1.8430  1.1624 -0.1644
36670SOL     OW15846   8.149   3.901   6.377 -0.3010  0.2631 -0.2200
36670SOL    HW115847   8.101   3.865   6.451  1.8013 -0.0291  1.0836
36670SOL    HW215848   8.122   3.848   6.302 -0.0226 -1.6741  0.9783
36671SOL     OW15849   0.289   7.682  11.226 -0.4588 -0.0358  0.5247
36671SOL    HW115850   0.285   7.747  11.156 -0.1329 -0.6832 -0.1099
36671SOL    HW215851   0.261   7.729  11.304  0.8363  1.1620  0.3081
36672SOL     OW15852   4.719   5.554  11.438  0.0356  0.1055  0.1801
36672SOL    HW115853   4.751   5.607  11.365 -1.0178  2.8488  1.5424
36672SOL    HW215854   4.797   5.534  11.490  0.6654 -1.1055 -1.1773
36673SOL     OW15855  11.383   2.477   8.147  0.2689  0.0638  0.1897
36673SOL    HW115856  11.419   2.541   8.208  2.2894 -0.2325 -0.6094
36673SOL    HW215857  11.436   2.487   8.068 -1.1020 -0.7993 -0.8892
36674SOL     OW15858   7.148   4.964   4.347 -0.5262  0.3892  0.0361
36674SOL    HW115859   7.124   4.893   4.287  0.3827  0.2815 -0.2158
36674SOL    HW215860   7.099   5.040   4.314 -3.6148 -0.6468  1.8777
36675SOL     OW15861   8.551   3.880   5.328 -0.0924  0.1614 -0.9421
36675SOL    HW115862   8.553   3.840   5.241  2.0363 -1.3828 -0.2739
36675SOL    HW215863   8.619   3.948   5.325  0.6374 -0.5119 -0.2660
36676SOL     OW15864   2.781   1.637   6.451  0.2371  0.2547  0.0003
36676SOL    HW115865   2.745   1.549   6.466  0.6699  0.1097  0.2108
36676SOL    HW215866   2.752   1.687   6.527  1.8104 -0.2865  1.0112
36677SOL     OW15867   1.453   5.305  11.843  0.7976 -0.1655  0.4612
36677SOL    HW115868   1.488   5.393  11.827  1.4747 -0.5038  0.0268
36677SOL    HW215869   1.520   5.246  11.809  0.5899 -0.8650  1.2310
36678SOL     OW15870   2.589   5.913   8.247 -0.1256  0.0149 -0.3593
36678SOL    HW115871   2.511   5.939   8.199  0.0900  2.8085  0.5489
36678SOL    HW215872   2.577   5.953   8.334  1.5716 -0.8634  0.3235
36679SOL     OW15873   7.585   9.792   5.531  0.4464  0.2190  0.2494
36679SOL    HW115874   7.654   9.859   5.529 -1.2751  2.0907 -2.5922
36679SOL    HW215875   7.601   9.739   5.453 -1.4633  0.9612 -0.7207
36680SOL     OW15876  11.645  12.196   5.468 -0.5762 -0.0666  0.3735
36680SOL    HW115877  11.606  12.111   5.487  2.7408 -1.7022  0.4047
36680SOL    HW215878  11.645  12.242   5.552 -0.2987 -0.9748  0.8843
36681SOL     OW15879  11.714   1.969   5.673  0.4579 -0.4214 -0.5772
36681SOL    HW115880  11.807   1.988   5.660  0.4411 -0.9635 -1.6106
36681SOL    HW215881  11.674   2.053   5.694  1.3740 -0.3788  1.2026
36682SOL     OW15882   4.603   3.359  10.159  0.3180  0.3171  0.5157
36682SOL    HW115883   4.603   3.402  10.245 -0.2517 -0.7777  1.0802
36682SOL    HW215884   4.545   3.284  10.169 -0.2020  0.4707 -0.9949
36683SOL     OW15885   1.941   5.842   2.460  0.2376  0.1346  0.0899
36683SOL    HW115886   1.977   5.799   2.381 -1.5058  0.2163 -0.7917
36683SOL    HW215887   1.940   5.935   2.438  1.2096  0.3365  0.8437
36684SOL     OW15888   6.842   7.866   1.195 -0.1225  0.1826  0.3930
36684SOL    HW115889   6.828   7.775   1.224  0.5306  0.1296  0.5508
36684SOL    HW215890   6.934   7.869   1.169  0.0713  1.0115  1.1355
36685SOL     OW15891   7.731   1.044   5.144 -0.3230  0.3734  0.0517
36685SOL    HW115892   7.724   1.136   5.121 -1.4748  0.1529 -0.5335
36685SOL    HW215893   7.725   1.042   5.239 -4.2310  0.6364 -0.0657
36686SOL     OW15894   0.371   1.135   9.896  0.6291 -0.1762  0.2908
36686SOL    HW115895   0.453   1.179   9.917  0.5344  1.6095 -2.4848
36686SOL    HW215896   0.316   1.204   9.858 -0.7614 -2.0455 -1.3164
36687SOL     OW15897   0.695   9.616   0.412  0.1896 -0.0286 -0.4525
36687SOL    HW115898   0.767   9.577   0.461  0.5536 -0.3693 -1.2538
36687SOL    HW215899   0.733   9.641   0.328 -0.5238  0.1886 -0.7198
36688SOL     OW15900   6.448   9.443   8.939  0.6733 -0.5633 -0.6139
36688SOL    HW115901   6.408   9.417   9.023 -1.0008 -0.4847 -1.3452
36688SOL    HW215902   6.419   9.376   8.877  0.4596  0.3013 -1.4788
36689SOL     OW15903  11.925   5.377   6.988  0.3339  0.2279 -0.2496
36689SOL    HW115904  11.975   5.337   6.917 -4.1124 -0.9939 -3.0993
36689SOL    HW215905  11.883   5.303   7.033 -0.1327  1.2379  1.0620
36690SOL     OW15906  10.463   9.823  10.150 -0.2755 -0.1551 -0.1533
36690SOL    HW115907  10.485   9.902  10.199  1.9796  0.2104 -1.5917
36690SOL    HW215908  10.424   9.856  10.068 -1.7359 -0.6756  0.2905
36691SOL     OW15909   1.237   2.941   1.076 -0.0517  0.3598 -0.1647
36691SOL    HW115910   1.223   3.002   1.004 -1.2903 -0.3025 -0.5170
36691SOL    HW215911   1.234   2.854   1.036 -0.0255  0.0104  0.5629
36692SOL     OW15912  11.975   8.851  12.307  0.6698 -0.6035  0.4155
36692SOL    HW115913  11.955   8.904  12.384 -0.9231 -0.6569  0.0651
36692SOL    HW215914  11.975   8.914  12.234 -0.0058 -0.8876  0.1660
36693SOL     OW15915   0.550   4.150   6.889 -0.3909  0.0475  0.2602
36693SOL    HW115916   0.499   4.139   6.969 -0.7447  2.0891  0.3700
36693SOL    HW215917   0.487   4.132   6.819 -0.5368 -0.0704  0.4190
36694SOL     OW15918   6.864   2.538   9.247  0.2127 -0.2798  0.0671
36694SOL    HW115919   6.772   2.512   9.239 -0.3049  1.8069 -2.2527
36694SOL    HW215920   6.861   2.634   9.255  2.1873  0.0347 -1.9106
36695SOL     OW15921   9.267  12.202   4.542  0.1068 -0.0981  0.0627
36695SOL    HW115922   9.221  12.183   4.624  1.1331  0.1581  0.7108
36695SOL    HW215923   9.243  12.129   4.485 -1.5407  0.3050  0.1786
36696SOL     OW15924   8.808   4.704   7.696 -0.4906  0.8211  0.0653
36696SOL    HW115925   8.786   4.682   7.786 -1.3069 -1.5927 -0.6459
36696SOL    HW215926   8.734   4.756   7.665 -1.1770 -0.0068  0.2509
36697SOL     OW15927   0.826  11.358   5.384 -0.0818 -0.4605 -0.1251
36697SOL    HW115928   0.896  11.423   5.386  2.2629 -2.8208  1.3364
36697SOL    HW215929   0.837  11.314   5.300 -1.6306  0.9118 -1.0895
36698SOL     OW15930   1.729   8.196   3.788 -0.2804  0.5293  0.4791
36698SOL    HW115931   1.796   8.214   3.722 -2.2454  0.5408 -1.6430
36698SOL    HW215932   1.729   8.101   3.796 -1.6731  0.2785 -1.5252
36699SOL     OW15933   9.808  10.329   4.422  0.7384 -0.6779 -0.9553
36699SOL    HW115934   9.854  10.272   4.360  0.3203 -2.3192  0.1772
36699SOL    HW215935   9.754  10.270   4.473 -0.4365  0.8772 -0.3149
36700SOL     OW15936   2.532  11.497   9.207 -0.7999 -0.3240  0.3025
36700SOL    HW115937   2.471  11.527   9.140 -0.0969  1.9495  0.5970
36700SOL    HW215938   2.606  11.460   9.158 -0.2814  1.3415 -0.2473
36701SOL     OW15939   8.022  11.696  10.025 -0.1222  0.2497 -0.0157
36701SOL    HW115940   7.980  11.722  10.106  0.1772  1.1624 -0.1480
36701SOL    HW215941   8.001  11.766   9.963  1.0552  0.4098 -0.2500
36702SOL     OW15942  12.067   7.145   8.240  0.3837  0.2766  0.3225
36702SOL    HW115943  11.974   7.167   8.234 -0.1926 -2.0203 -0.3355
36702SOL    HW215944  12.099   7.194   8.316 -0.2033  4.6516 -1.9159
36703SOL     OW15945   0.289   7.956  11.625  0.1000 -0.2277  0.5554
36703SOL    HW115946   0.306   8.034  11.679 -0.6713  0.4197 -0.1201
36703SOL    HW215947   0.210   7.917  11.664  0.3674 -0.5658  0.7656
36704SOL     OW15948   5.206   2.247   0.235  0.0836 -0.2501  0.1197
36704SOL    HW115949   5.117   2.211   0.230  0.8145 -1.9450 -2.6324
36704SOL    HW215950   5.192   2.342   0.243 -1.9955 -0.4091 -0.8964
36705SOL     OW15951   5.090   9.922   7.631  0.0397 -0.0963 -0.4543
36705SOL    HW115952   4.998   9.949   7.634 -0.4378 -1.6897  1.8776
36705SOL    HW215953   5.139  10.004   7.634 -1.3355  0.7351  2.5815
36706SOL     OW15954   2.797   1.694   0.338 -0.0447  0.0136  0.0090
36706SOL    HW115955   2.868   1.715   0.399 -1.1257  1.4504  0.8620
36706SOL    HW215956   2.743   1.631   0.386  0.3993 -0.7289 -0.4567
36707SOL     OW15957   5.210   2.022   5.375 -0.2014 -0.0489  0.2473
36707SOL    HW115958   5.253   1.942   5.342  0.4998 -0.6403  2.4381
36707SOL    HW215959   5.274   2.091   5.362 -0.6008  0.0966 -1.1517
36708SOL     OW15960   7.487   0.882   6.155 -0.2225 -0.3602  0.0575
36708SOL    HW115961   7.501   0.890   6.061 -0.6612  1.1686  0.0989
36708SOL    HW215962   7.548   0.943   6.195  0.2490 -1.2854  0.8156
36709SOL     OW15963   3.260   5.888   5.062  0.2061  0.5039  0.0135
36709SOL    HW115964   3.165   5.892   5.050  0.1616  3.1794  0.5344
36709SOL    HW215965   3.291   5.973   5.029  2.5698 -0.7270 -1.1623
36710SOL     OW15966   8.531   2.226   0.226 -0.4190  0.6846  0.3598
36710SOL    HW115967   8.558   2.317   0.239  0.6409  0.4718 -0.2335
36710SOL    HW215968   8.601   2.174   0.265  0.1572  0.1190 -1.3309
36711SOL     OW15969  10.284   0.564   3.581 -0.5022  0.2276 -0.4901
36711SOL    HW115970  10.301   0.499   3.512 -0.5328  1.0764 -1.3258
36711SOL    HW215971  10.366   0.567   3.631 -1.0605 -1.6626  0.6277
36712SOL     OW15972   6.403  11.870   5.332  0.2375  0.4582  0.6717
36712SOL    HW115973   6.376  11.793   5.382  0.8328 -0.1450  0.0717
36712SOL    HW215974   6.428  11.836   5.247  0.2686  1.3507  0.3141
36713SOL     OW15975   0.837  11.519   3.389 -0.7447 -0.3837 -0.1365
36713SOL    HW115976   0.864  11.583   3.455 -2.7404 -0.2989  0.6555
36713SOL    HW215977   0.875  11.552   3.308  0.4782  0.3523  0.6893
36714SOL     OW15978   9.437  12.016   4.000  0.8635  0.1197 -0.0010
36714SOL    HW115979   9.482  12.094   3.966  1.5839 -0.6799 -0.9552
36714SOL    HW215980   9.507  11.961   4.035  0.1073  1.1591  3.5103
36715SOL     OW15981   6.974   8.696   0.199 -0.0897  0.3326 -0.5972
36715SOL    HW115982   6.927   8.617   0.225 -0.1407 -0.2185 -2.2904
36715SOL    HW215983   6.947   8.762   0.264  0.7005 -1.2248  1.4379
36716SOL     OW15984  12.163   1.409   2.094  0.5565 -0.6183  0.6954
36716SOL    HW115985  12.114   1.482   2.132  0.6053 -0.4796  0.4949
36716SOL    HW215986  12.100   1.336   2.093 -0.2923  0.0659 -1.3256
36717SOL     OW15987   2.163   1.305   5.656  0.3971  0.3366  0.5449
36717SOL    HW115988   2.244   1.313   5.606 -0.8746 -0.2121 -1.7711
36717SOL    HW215989   2.140   1.395   5.680  1.1433  0.5983  0.2843
36718SOL     OW15990   4.745  10.769   6.982 -0.3826  0.3483 -0.4219
36718SOL    HW115991   4.712  10.714   6.910  0.8972 -0.0081 -0.7524
36718SOL    HW215992   4.827  10.805   6.949  0.2781  0.0990  0.8843
36719SOL     OW15993   2.278   0.167  11.311  0.2422 -0.4708 -0.3809
36719SOL    HW115994   2.273   0.250  11.265  0.4621 -0.3496 -0.1923
36719SOL    HW215995   2.239   0.184  11.397 -1.3259 -1.0286 -0.9649
36720SOL     OW15996   7.571   3.290   9.421 -0.0192  0.4961  0.1370
36720SOL    HW115997   7.625   3.335   9.356 -1.1134  3.8093  1.3222
36720SOL    HW215998   7.620   3.300   9.503 -1.2964  1.5360  0.8063
36721SOL     OW15999  10.549   9.936   2.647  0.4555 -0.1796 -0.2477
36721SOL    HW116000  10.492  10.003   2.610 -0.8467 -0.3473  1.3504
36721SOL    HW216001  10.589   9.894   2.571 -2.4853 -0.8680 -1.5473
36722SOL     OW16002  10.602   4.478   8.198  0.0773 -0.7564  0.0614
36722SOL    HW116003  10.539   4.543   8.228  0.2559 -0.4560 -0.2137
36722SOL    HW216004  10.665   4.527   8.146  2.6744 -0.3591  3.2876
36723SOL     OW16005   4.877   4.476   7.242 -0.2718 -0.4910 -0.0231
36723SOL    HW116006   4.832   4.458   7.159  0.5975 -1.9017 -0.2150
36723SOL    HW216007   4.821   4.436   7.309 -1.3200  1.2230  0.1845
36724SOL     OW16008   0.175   5.198  12.010  0.9496  0.2001  0.1755
36724SOL    HW116009   0.214   5.143  12.078  0.4841  0.8311  0.9687
36724SOL    HW216010   0.158   5.282  12.054  0.2452  0.4760 -0.6061
36725SOL     OW16011  11.054   0.150   4.526  0.0927 -0.1456 -0.3152
36725SOL    HW116012  11.039   0.198   4.608 -0.4352  0.2623 -0.6454
36725SOL    HW216013  11.060   0.058   4.553  1.1956  0.0940  0.3429
36726SOL     OW16014   5.156   7.887   9.070 -0.3597 -0.3569 -0.1031
36726SOL    HW116015   5.139   7.926   8.985  0.1471 -0.1770 -0.1274
36726SOL    HW216016   5.133   7.795   9.060 -0.7485 -0.2409 -0.2952
36727SOL     OW16017   7.862  10.124   0.671  0.3752  0.4447  0.5761
36727SOL    HW116018   7.908  10.152   0.750  0.4518  0.3348  0.5706
36727SOL    HW216019   7.771  10.149   0.687  0.6664  1.9776 -0.0277
36728SOL     OW16020   4.992   2.907   6.646 -0.2842 -0.0852 -0.2471
36728SOL    HW116021   4.974   2.918   6.553  2.6031 -0.5250 -0.9476
36728SOL    HW216022   4.984   2.995   6.683 -1.7751  0.0356 -0.8182
36729SOL     OW16023   1.116   2.603   6.568  0.2167  0.0912 -0.4651
36729SOL    HW116024   1.031   2.645   6.567  0.7768  1.2456 -1.5842
36729SOL    HW216025   1.098   2.511   6.549 -0.8881  0.0464  0.7010
36730SOL     OW16026  11.673   1.450   9.350 -0.0198  0.4427 -0.2910
36730SOL    HW116027  11.677   1.417   9.260  0.0896  2.9452 -1.2782
36730SOL    HW216028  11.764   1.446   9.380  0.0838  0.3655 -0.6039
36731SOL     OW16029   5.994   1.709   4.371  0.3457  0.5162 -0.8086
36731SOL    HW116030   5.960   1.795   4.394 -1.4317 -0.3408 -0.0172
36731SOL    HW216031   5.920   1.650   4.383  1.3564 -1.0603 -1.8722
36732SOL     OW16032   8.461   2.774   1.598 -0.2893 -0.1261  0.1257
36732SOL    HW116033   8.399   2.817   1.539 -0.1345  0.4492  0.3775
36732SOL    HW216034   8.447   2.817   1.682 -0.5792 -1.0109  0.5374
36733SOL     OW16035   6.282   0.572  11.984  0.5086  0.1862  0.2257
36733SOL    HW116036   6.293   0.506  11.916 -2.1592  0.3169 -0.4451
36733SOL    HW216037   6.284   0.656  11.937  1.2137  0.4528  0.7033
36734SOL     OW16038  11.425   8.590   4.976 -0.4273 -0.0327 -0.1565
36734SOL    HW116039  11.377   8.507   4.970  1.8000 -1.3669 -0.7295
36734SOL    HW216040  11.369   8.654   4.932 -1.9344 -1.3561 -0.2387
36735SOL     OW16041   6.831  10.464   6.865  0.2881 -0.3751 -0.6917
36735SOL    HW116042   6.820  10.445   6.958  0.8338 -0.2198 -0.5963
36735SOL    HW216043   6.891  10.396   6.834 -0.8430 -1.1906 -1.2056
36736SOL     OW16044   6.792  12.323   0.535 -0.3225 -0.3948  0.1486
36736SOL    HW116045   6.882  12.353   0.521 -0.7884  0.5770 -0.9850
36736SOL    HW216046   6.800  12.232   0.561  0.9239 -0.8649 -1.7087
36737SOL     OW16047  11.087   5.224   3.904  0.4188  0.1863 -0.4191
36737SOL    HW116048  11.043   5.220   3.989  0.2486  1.8352 -0.3834
36737SOL    HW216049  11.018   5.207   3.840  0.8852 -2.9198 -0.2545
36738SOL     OW16050   3.963   6.960   5.421  0.5231  0.5834  0.0656
36738SOL    HW116051   3.963   6.873   5.461 -0.3911 -0.5655 -2.2796
36738SOL    HW216052   3.933   7.018   5.491 -0.1641 -1.1605  1.2978
36739SOL     OW16053   7.996   5.658   0.300  0.1445 -0.2246  0.1699
36739SOL    HW116054   7.948   5.584   0.336  0.8217  0.1011  1.8572
36739SOL    HW216055   8.084   5.624   0.284  0.5829  0.2883  1.3667
36740SOL     OW16056   4.355   6.594   5.918 -0.4752  0.4622 -0.1053
36740SOL    HW116057   4.344   6.662   5.985  2.0976  0.9183 -0.0248
36740SOL    HW216058   4.339   6.639   5.835 -1.0893  0.5722  0.0717
36741SOL     OW16059   0.351   4.831   8.535 -0.3810  0.2928 -0.6071
36741SOL    HW116060   0.272   4.864   8.577  0.2142  0.0351  0.7722
36741SOL    HW216061   0.416   4.829   8.605  0.4670 -0.8027 -1.3923
36742SOL     OW16062  10.366   5.972   3.446 -0.6679 -0.0462  0.4104
36742SOL    HW116063  10.363   5.973   3.541 -0.1631  0.5267  0.4259
36742SOL    HW216064  10.274   5.973   3.419 -0.8098  0.0075  0.8878
36743SOL     OW16065   5.944   9.586  11.347 -0.0252 -0.3406 -0.0634
36743SOL    HW116066   5.996   9.523  11.297 -1.0705 -0.4922 -0.9994
36743SOL    HW216067   5.968   9.570  11.438 -0.0038 -1.8522 -0.3112
36744SOL     OW16068   6.221   7.248  10.424 -0.0646 -0.3621  0.0385
36744SOL    HW116069   6.190   7.332  10.392 -0.0879 -0.4131 -0.0713
36744SOL    HW216070   6.295   7.226  10.368  1.8737  0.9913  1.8694
36745SOL     OW16071   7.537   2.095  11.919  0.1198  0.3532  0.3091
36745SOL    HW116072   7.611   2.123  11.865 -2.3752  1.5020 -2.8611
36745SOL    HW216073   7.516   2.007  11.887 -0.3096  0.3368  0.6269
36746SOL     OW16074  10.355   3.117  10.830 -0.5276 -0.2098  0.0613
36746SOL    HW116075  10.377   3.041  10.776  0.3913 -0.4940  0.7991
36746SOL    HW216076  10.438   3.140  10.873 -0.1904  2.6501 -1.8878
36747SOL     OW16077   7.635   1.087   2.232 -1.3563 -0.5577  0.0686
36747SOL    HW116078   7.578   1.104   2.307 -1.1124  0.7190 -0.0119
36747SOL    HW216079   7.635   1.170   2.183 -1.1412 -1.2185 -1.0888
36748SOL     OW16080   2.323   4.091   4.304  0.2389  0.5441 -0.3942
36748SOL    HW116081   2.277   4.161   4.350  1.2656  1.3560 -0.5576
36748SOL    HW216082   2.385   4.136   4.247  1.3610 -0.5032 -0.0507
36749SOL     OW16083  11.831   1.533   1.099 -0.0507  0.6946  0.0413
36749SOL    HW116084  11.742   1.539   1.066 -0.0458 -0.5914 -0.2613
36749SOL    HW216085  11.836   1.447   1.141  1.0380  0.7560  0.0773
36750SOL     OW16086   7.422   3.633  10.277  0.2816 -0.1451  0.0279
36750SOL    HW116087   7.516   3.642  10.261  0.5941 -1.7399  0.7001
36750SOL    HW216088   7.395   3.561  10.219 -0.5119  0.2655 -0.1231
36751SOL     OW16089   6.120  10.511   5.504 -0.2709  0.0379  0.6801
36751SOL    HW116090   6.191  10.492   5.442  1.4430  1.0470  2.2438
36751SOL    HW216091   6.092  10.425   5.535  1.3411 -0.3440  1.1654
36752SOL     OW16092   0.295  10.064   1.770  0.1181 -0.4843  0.3531
36752SOL    HW116093   0.276  10.146   1.724 -1.0670 -0.6607  0.4988
36752SOL    HW216094   0.271   9.996   1.708  2.3390 -0.7707 -0.2774
36753SOL     OW16095  11.299   6.620   3.000  0.6931  0.4709 -0.2492
36753SOL    HW116096  11.296   6.592   3.091  0.4523  1.5713  0.1001
36753SOL    HW216097  11.380   6.582   2.966  2.1201  2.0880  1.1438
36754SOL     OW16098   0.615  10.778   2.400  0.1497  0.4563 -0.1341
36754SOL    HW116099   0.655  10.849   2.450  0.5734  0.0048  0.1720
36754SOL    HW216100   0.605  10.706   2.462  1.7545 -0.5192 -0.9312
36755SOL     OW16101   9.980   1.079   7.286 -0.2948  0.1918 -0.4933
36755SOL    HW116102  10.012   1.167   7.307  0.0956 -0.0294 -0.1481
36755SOL    HW216103  10.010   1.063   7.196 -0.4385  0.4425 -0.5861
36756SOL     OW16104   5.315   2.790   9.540  0.2749 -0.2405  0.3196
36756SOL    HW116105   5.251   2.747   9.596 -0.9843  2.0015  0.7369
36756SOL    HW216106   5.370   2.840   9.601 -1.2294  2.3768 -0.2928
36757SOL     OW16107   0.097  11.309   4.562 -0.5467  0.3302  0.5752
36757SOL    HW116108   0.120  11.298   4.470  0.2524 -0.9180  0.9000
36757SOL    HW216109   0.174  11.350   4.602 -0.4092 -0.2325  0.9056
36758SOL     OW16110   2.380  12.275   3.319 -0.2628  0.2746 -0.2968
36758SOL    HW116111   2.422  12.265   3.405 -1.6387  3.0420  0.8134
36758SOL    HW216112   2.451  12.264   3.256  1.8609  2.8604  1.4131
36759SOL     OW16113   2.845   6.210   4.065 -0.0975  0.0071  0.4208
36759SOL    HW116114   2.852   6.305   4.059  0.4837  0.0826  1.9172
36759SOL    HW216115   2.911   6.185   4.129 -0.2785 -1.4100  0.0880
36760SOL     OW16116   6.299  11.976  11.497  0.0918 -0.1672 -0.1245
36760SOL    HW116117   6.289  11.881  11.493  0.0215 -0.1647  0.0094
36760SOL    HW216118   6.374  11.994  11.441 -0.8578 -0.1542 -1.4407
36761SOL     OW16119  12.289   6.782   8.052  0.5901 -0.0668 -0.8804
36761SOL    HW116120  12.344   6.742   7.984  1.5219  0.0189 -0.2006
36761SOL    HW216121  12.290   6.876   8.031 -0.3367 -0.2005 -1.5853
36762SOL     OW16122   1.730   5.987   5.963  0.1546 -0.1139 -0.5287
36762SOL    HW116123   1.689   5.909   6.001  1.7419 -2.2741 -2.8922
36762SOL    HW216124   1.813   5.955   5.927  0.5806  2.5425 -2.1887
36763SOL     OW16125   4.193   2.661  11.685 -0.1149  0.5447 -0.0191
36763SOL    HW116126   4.154   2.673  11.772  0.1157 -1.0209  0.3290
36763SOL    HW216127   4.122   2.626  11.631  0.8789 -3.4987  0.9231
36764SOL     OW16128   0.459   9.113  11.655 -0.6648  0.3768  0.1712
36764SOL    HW116129   0.485   9.205  11.657 -1.7535  0.7030 -0.0841
36764SOL    HW216130   0.518   9.073  11.591  0.4023  0.6907  0.9170
36765SOL     OW16131   1.972   6.609  11.512  0.3556 -0.5399 -0.2076
36765SOL    HW116132   2.014   6.561  11.440  0.4549  0.0247 -0.5324
36765SOL    HW216133   1.878   6.600  11.496  0.3513 -1.2219  0.1342
36766SOL     OW16134   0.125   6.255   0.398 -0.3227  0.4055  0.1654
36766SOL    HW116135   0.212   6.238   0.360 -0.2124  0.3513  0.4362
36766SOL    HW216136   0.088   6.325   0.344 -0.0244  0.5734  0.1774
36767SOL     OW16137   7.438  11.642  11.254  0.1701 -0.4416 -0.0911
36767SOL    HW116138   7.402  11.583  11.320  0.2416  0.1530  0.4878
36767SOL    HW216139   7.459  11.585  11.180 -0.1192 -1.0825  0.3088
36768SOL     OW16140   3.107   4.153   7.911 -0.0227  0.0816 -0.0028
36768SOL    HW116141   3.166   4.201   7.970  0.1502  0.1376 -0.2195
36768SOL    HW216142   3.055   4.098   7.969  0.9988 -0.7824  0.1130
36769SOL     OW16143   0.770   4.677   0.519 -0.0102  0.4050  0.4265
36769SOL    HW116144   0.680   4.646   0.523 -0.5235  1.8471  0.5417
36769SOL    HW216145   0.773   4.732   0.441  1.4487 -1.5808 -1.0138
36770SOL     OW16146   1.578  12.328  11.939  0.5357 -0.3538  0.2949
36770SOL    HW116147   1.603  12.391  11.872 -0.4201 -0.8200 -0.5314
36770SOL    HW216148   1.659  12.280  11.958  1.8621  2.4801  2.5690
36771SOL     OW16149  12.284   0.542  11.767 -0.7043 -0.5532  0.6956
36771SOL    HW116150  12.337   0.508  11.839 -0.6216 -1.7768  0.0851
36771SOL    HW216151  12.319   0.629  11.750  2.2290 -1.8525 -0.6904
36772SOL     OW16152  12.270   8.348   1.479 -0.3075  0.2132  0.1041
36772SOL    HW116153  12.335   8.402   1.523 -0.9127 -0.2758  1.6787
36772SOL    HW216154  12.194   8.405   1.469 -0.6575 -0.0841  1.0042
36773SOL     OW16155   2.209   8.477   4.392  0.4832 -0.5105  0.3349
36773SOL    HW116156   2.183   8.398   4.439  0.1803  0.2699  1.5182
36773SOL    HW216157   2.291   8.503   4.434  1.6485 -1.2554 -1.3518
36774SOL     OW16158   6.943   9.945   7.718 -0.2227  0.1492  0.5699
36774SOL    HW116159   6.903   9.948   7.805  0.8096  0.8624  1.0387
36774SOL    HW216160   6.953   9.852   7.699 -1.5188 -0.0357  0.6985
36775SOL     OW16161  12.197  11.817   1.119  0.0968  0.0031  0.0029
36775SOL    HW116162  12.147  11.898   1.121 -0.8942 -0.5960  0.6456
36775SOL    HW216163  12.227  11.809   1.029  1.8185  2.0015  0.3241
36776SOL     OW16164   5.642  11.758   7.708  0.2517 -0.5543  0.8305
36776SOL    HW116165   5.651  11.852   7.722  1.2238 -0.1970 -1.6002
36776SOL    HW216166   5.549  11.745   7.690  0.3586  0.2810 -0.4983
36777SOL     OW16167   8.881  10.951   9.316  0.0205  0.6728  0.0262
36777SOL    HW116168   8.963  10.948   9.365 -0.7882  0.3921  1.4058
36777SOL    HW216169   8.860  11.044   9.311  0.2272  0.7205 -0.0134
36778SOL     OW16170   9.163   3.741   7.936 -0.5129 -0.1008  0.1076
36778SOL    HW116171   9.171   3.809   7.870 -1.3843 -0.4783 -0.4075
36778SOL    HW216172   9.209   3.666   7.900 -1.0200 -0.3190 -0.1024
36779SOL     OW16173   6.004   2.864   3.977 -0.2080  0.5381  0.4243
36779SOL    HW116174   5.937   2.834   3.915  2.8624 -4.1812 -1.1575
36779SOL    HW216175   5.983   2.819   4.059 -0.2173  0.9827  0.6717
36780SOL     OW16176   9.601   9.127  11.334  0.0769  0.5180 -0.0935
36780SOL    HW116177   9.663   9.066  11.294  0.0513 -0.2007  0.9162
36780SOL    HW216178   9.552   9.165  11.261  1.2791  0.6286 -0.8531
36781SOL     OW16179   5.981   2.572   2.672 -0.0708 -0.4813  0.5440
36781SOL    HW116180   5.968   2.590   2.579  1.4023 -4.1007 -0.5444
36781SOL    HW216181   5.892   2.572   2.709 -0.5833  2.2400 -0.4719
36782SOL     OW16182   3.802   4.966   4.038  0.4512  0.1861  0.2108
36782SOL    HW116183   3.829   5.013   4.117  0.5584 -2.1550  1.6866
36782SOL    HW216184   3.878   4.914   4.013 -0.2421 -0.6963 -0.1436
36783SOL     OW16185  11.645   0.334   9.711 -0.5580  0.4915  0.4929
36783SOL    HW116186  11.633   0.331   9.806  1.5484 -0.2265  0.7699
36783SOL    HW216187  11.704   0.262   9.692 -0.9298  0.6444 -1.3842
36784SOL     OW16188   5.829  12.308   9.223  0.0889  0.1096 -0.5225
36784SOL    HW116189   5.861  12.348   9.303 -2.8513 -0.4195  1.0532
36784SOL    HW216190   5.875  12.224   9.218 -1.1406 -0.7863  1.8124
36785SOL     OW16191   9.268   6.850   2.295  0.4038 -0.2302 -0.3764
36785SOL    HW116192   9.309   6.841   2.381  1.6786 -1.5477 -1.0683
36785SOL    HW216193   9.279   6.764   2.254  0.4320  0.5439 -2.1025
36786SOL     OW16194   7.943  12.119  10.478  0.3627  0.0905  0.0101
36786SOL    HW116195   7.849  12.109  10.493  0.6209 -1.2625  1.0100
36786SOL    HW216196   7.973  12.175  10.549  0.2820  0.7522 -0.4690
36787SOL     OW16197   4.455   4.923   9.110  0.6148 -0.8829 -0.6751
36787SOL    HW116198   4.487   4.931   9.020  0.8064 -0.0503 -0.5378
36787SOL    HW216199   4.369   4.964   9.108  1.2312  0.5104 -0.1652
36788SOL     OW16200   3.051   3.570  11.162  0.0124 -0.3483  0.0718
36788SOL    HW116201   3.113   3.548  11.093 -0.9264 -0.0646 -0.8822
36788SOL    HW216202   3.097   3.548  11.243  0.8822 -1.3216 -0.6559
36789SOL     OW16203  11.966   3.224   9.624  0.0285 -0.0027  0.0332
36789SOL    HW116204  11.969   3.299   9.565 -0.7422 -0.7142 -0.9612
36789SOL    HW216205  12.042   3.172   9.600  0.8949  0.7194  1.1230
36790SOL     OW16206   3.232  10.710  10.082  0.0602  0.2420 -0.2824
36790SOL    HW116207   3.297  10.646  10.051 -0.1083 -0.3971  0.6366
36790SOL    HW216208   3.151  10.661  10.088 -0.2387  0.7338 -0.2449
36791SOL     OW16209   1.181   7.104   1.000  0.0111 -0.0168 -0.7545
36791SOL    HW116210   1.255   7.144   0.954 -0.4940 -0.4385 -1.9792
36791SOL    HW216211   1.178   7.150   1.084  1.6469  0.0142 -0.6784
36792SOL     OW16212  10.691   1.385   4.291 -0.7627 -0.8874 -0.5172
36792SOL    HW116213  10.776   1.342   4.301 -1.2517 -1.9175 -0.6305
36792SOL    HW216214  10.643   1.329   4.230 -1.3546 -0.0546 -0.8353
36793SOL     OW16215   6.085   5.551   7.937 -0.3996  0.1965 -0.4310
36793SOL    HW116216   6.178   5.531   7.952 -0.9505 -2.5876 -0.3619
36793SOL    HW216217   6.058   5.598   8.017  1.1724  2.1992 -0.9816
36794SOL     OW16218   7.062   6.508   6.732 -0.2678  0.6419  0.4753
36794SOL    HW116219   7.069   6.603   6.728 -1.0838  0.6975  0.2666
36794SOL    HW216220   7.139   6.476   6.685  1.2489  1.1688  2.4841
36795SOL     OW16221  10.126   8.073   7.153  0.7096  0.0401  0.6767
36795SOL    HW116222  10.064   8.075   7.226  0.1060  0.3314  0.1581
36795SOL    HW216223  10.147   7.981   7.141  0.5619 -0.0355  1.0041
36796SOL     OW16224   6.829   1.683   3.734  0.2580  0.8780  0.5868
36796SOL    HW116225   6.839   1.671   3.640 -2.4807 -0.8663  0.4301
36796SOL    HW216226   6.768   1.756   3.743  0.5135  1.0436  1.0508
36797SOL     OW16227   6.588  12.245   1.891 -0.4510 -0.3206  0.5351
36797SOL    HW116228   6.613  12.301   1.817  0.4074 -0.7607  0.4858
36797SOL    HW216229   6.671  12.218   1.930 -0.8673 -1.1333  0.8834
36798SOL     OW16230   0.117   2.588   5.835  0.3149 -0.3457  0.2313
36798SOL    HW116231   0.088   2.666   5.881 -2.2776 -1.1046  0.0430
36798SOL    HW216232   0.096   2.605   5.743  1.1333 -0.6801 -0.0307
36799SOL     OW16233  10.081   6.447   2.101  0.2801 -0.4465  0.2942
36799SOL    HW116234  10.028   6.396   2.040  0.2887 -0.0927 -0.0153
36799SOL    HW216235  10.171   6.431   2.074  0.2728 -0.0967  0.0534
36800SOL     OW16236   1.810   6.179   7.766 -0.3110 -0.2942 -0.2001
36800SOL    HW116237   1.757   6.206   7.841  0.7611  1.1421  0.0814
36800SOL    HW216238   1.876   6.120   7.804 -0.2729 -0.2244 -0.1577
36801SOL     OW16239  10.917   1.289   4.401 -0.4183 -0.0680 -0.3529
36801SOL    HW116240  10.925   1.377   4.437 -0.4411 -0.0017 -0.5084
36801SOL    HW216241  10.882   1.237   4.473  2.2422 -0.5936  0.6807
36802SOL     OW16242   2.329  10.581  10.475 -0.9442 -0.7300  0.3943
36802SOL    HW116243   2.366  10.495  10.456 -0.7544 -0.2958 -1.3072
36802SOL    HW216244   2.317  10.622  10.390 -1.6077  0.7060  1.1407
36803SOL     OW16245   8.714   4.439   1.056  0.3877 -0.2031 -0.1238
36803SOL    HW116246   8.712   4.531   1.080  1.5121 -0.0210 -0.6793
36803SOL    HW216247   8.753   4.395   1.132 -1.0177 -0.3691  0.5287
36804SOL     OW16248   2.345   0.957   3.174  0.2185  0.0190  0.3182
36804SOL    HW116249   2.270   0.901   3.158  0.3104  0.2407 -1.0064
36804SOL    HW216250   2.312   1.026   3.231 -0.2107 -0.6571  0.9040
36805SOL     OW16251   6.849   5.460   6.050  0.2068  0.2629  0.0968
36805SOL    HW116252   6.783   5.515   6.009  0.0436  0.5024  0.6701
36805SOL    HW216253   6.800   5.392   6.095  0.4600 -1.7214 -2.4443
36806SOL     OW16254   7.239   6.653   2.029 -0.4881  0.7126 -0.2857
36806SOL    HW116255   7.185   6.602   2.090 -0.2851 -0.5008 -1.0688
36806SOL    HW216256   7.178   6.684   1.963 -0.6422  1.6708  0.2974
36807SOL     OW16257   4.527   3.900   3.126  0.3621  0.6504 -0.4551
36807SOL    HW116258   4.616   3.867   3.110 -0.4577 -1.2181 -1.5318
36807SOL    HW216259   4.473   3.821   3.131 -1.0941  1.6948  1.2916
36808SOL     OW16260   6.375   8.638   5.061  0.0594  0.4851  0.4080
36808SOL    HW116261   6.389   8.566   5.121  0.3122  0.4266  0.2814
36808SOL    HW216262   6.294   8.680   5.091 -0.7141 -0.5302 -0.1972
36809SOL     OW16263   8.000   9.253   7.737  0.2984  0.1266 -0.7873
36809SOL    HW116264   7.953   9.330   7.766 -0.6647 -1.1947  1.4045
36809SOL    HW216265   7.962   9.231   7.652 -0.7045  0.9809 -0.5678
36810SOL     OW16266   7.551  11.120  10.387 -0.0703  0.2326  0.1110
36810SOL    HW116267   7.512  11.033  10.377  0.0905 -0.0934  2.0608
36810SOL    HW216268   7.559  11.133  10.481 -1.4177  2.9704 -0.0405
36811SOL     OW16269   2.607  11.091   0.018  0.3613  0.3482 -0.2120
36811SOL    HW116270   2.655  11.063   0.097  1.9015  1.5382 -0.6738
36811SOL    HW216271   2.650  11.173  -0.008 -1.2604  0.8948 -1.3037
36812SOL     OW16272   3.309   6.680   4.938 -0.7614 -0.2760 -0.3285
36812SOL    HW116273   3.346   6.720   5.017 -1.3368 -0.3339 -0.0290
36812SOL    HW216274   3.378   6.691   4.871  0.2289 -1.2871  0.4826
36813SOL     OW16275   0.753   8.386   5.026 -0.0382 -0.8952  0.0364
36813SOL    HW116276   0.763   8.444   4.951 -0.5482 -0.1433  0.5374
36813SOL    HW216277   0.703   8.437   5.090  0.2597 -1.5693  0.8318
36814SOL     OW16278  10.379   5.652   7.028 -0.1983 -0.2136 -0.0157
36814SOL    HW116279  10.407   5.576   7.079 -0.8301  0.1224  0.8580
36814SOL    HW216280  10.385   5.623   6.937  0.8038 -0.8765  0.2450
36815SOL     OW16281  10.721   1.745  11.654 -0.0416 -0.3105  0.2556
36815SOL    HW116282  10.669   1.758  11.576  0.6384  1.1533  0.0110
36815SOL    HW216283  10.659   1.753  11.727 -0.2133  1.2531 -0.0350
36816SOL     OW16284   8.220   8.125   2.908  0.5366 -0.6232  0.1878
36816SOL    HW116285   8.292   8.107   2.967  0.1386 -1.3549  0.4559
36816SOL    HW216286   8.242   8.210   2.868  0.7132 -0.0256  1.5135
36817SOL     OW16287  10.113   2.026   9.767 -0.6587 -0.2226  0.0063
36817SOL    HW116288  10.175   2.098   9.752  0.2726 -1.5048 -2.8569
36817SOL    HW216289  10.028   2.062   9.743 -0.2239  0.0223 -1.2454
36818SOL     OW16290   0.937  10.787  11.498 -0.2657 -0.3180 -0.1581
36818SOL    HW116291   1.020  10.766  11.540  1.2571  0.6711 -2.4364
36818SOL    HW216292   0.875  10.797  11.570  1.8242 -0.0343  1.7158
36819SOL     OW16293   1.415   7.244  11.587 -0.0010 -0.2628  0.3526
36819SOL    HW116294   1.408   7.276  11.497 -0.8682 -0.0201  0.4930
36819SOL    HW216295   1.453   7.157  11.578  0.7260  0.0916 -0.1749
36820SOL     OW16296   0.040   0.014   1.211  0.0274  0.1060 -0.0367
36820SOL    HW116297  -0.054   0.027   1.196  0.1841 -1.2206 -2.8667
36820SOL    HW216298   0.082   0.082   1.158  0.7399  1.2265  1.8590
36821SOL     OW16299   9.657  11.968   0.006  0.3925 -0.4614 -0.0490
36821SOL    HW116300   9.596  11.900   0.035  1.2696 -0.7237  1.3141
36821SOL    HW216301   9.740  11.945   0.049  1.0118  0.8079 -0.5144
36822SOL     OW16302   4.742   8.068   9.328  0.4100  0.0116 -0.5912
36822SOL    HW116303   4.679   8.039   9.262  2.3442 -1.3483 -1.9605
36822SOL    HW216304   4.827   8.043   9.292  1.5714 -1.0708  2.5907
36823SOL     OW16305   0.815   5.793   2.252  0.6344  0.0383  0.3210
36823SOL    HW116306   0.806   5.874   2.201 -1.9194 -0.2080  0.2748
36823SOL    HW216307   0.875   5.817   2.323  1.6240  1.3300 -0.8713
36824SOL     OW16308  12.101   6.803   8.670 -0.1794 -0.1548 -0.7953
36824SOL    HW116309  12.065   6.777   8.755  1.2198 -1.5480 -0.5642
36824SOL    HW216310  12.189   6.834   8.690 -0.1285  0.2777 -1.6572
36825SOL     OW16311   0.495   4.612   7.473  0.2410 -0.1280 -0.4429
36825SOL    HW116312   0.485   4.548   7.543  0.5807  1.5418  1.1814
36825SOL    HW216313   0.588   4.611   7.452  0.2537 -0.1465 -0.3855
36826SOL     OW16314   8.944   5.440   2.822  0.4127 -0.0001  0.2616
36826SOL    HW116315   8.892   5.372   2.781 -1.1712 -0.1309  2.3236
36826SOL    HW216316   9.005   5.469   2.754 -0.3619 -1.9158 -1.3159
36827SOL     OW16317   0.480   5.895   9.603  0.1216  0.2580 -0.3013
36827SOL    HW116318   0.438   5.810   9.620 -0.0177  0.6116  1.2384
36827SOL    HW216319   0.558   5.894   9.659  1.6402  0.0466 -2.3294
36828SOL     OW16320   3.299   3.314   5.786  0.6414 -0.1607  0.1646
36828SOL    HW116321   3.392   3.313   5.810  1.5511 -1.1366 -2.8742
36828SOL    HW216322   3.265   3.395   5.822  2.3430 -0.3627  2.4120
36829SOL     OW16323   1.372  12.002   8.876 -0.4274  0.1893  0.1673
36829SOL    HW116324   1.427  12.072   8.912 -0.3174  1.1418 -1.7445
36829SOL    HW216325   1.362  11.941   8.949  0.0906  1.8098  1.6879
36830SOL     OW16326   2.499   1.418   2.124  0.0951 -0.3812  0.1607
36830SOL    HW116327   2.413   1.429   2.164  0.6233 -1.3180  1.6294
36830SOL    HW216328   2.502   1.485   2.055 -1.0150  1.0276  1.4114
36831SOL     OW16329   2.101   1.230   2.095  0.1080  0.1232  0.1883
36831SOL    HW116330   2.148   1.226   2.011 -1.2970 -0.0759 -0.6277
36831SOL    HW216331   2.170   1.233   2.161  1.2582  0.0286 -0.9616
36832SOL     OW16332   0.655  10.829  10.308  0.3130 -0.2838  0.5920
36832SOL    HW116333   0.742  10.867  10.297 -0.5966  1.7370 -0.0686
36832SOL    HW216334   0.654  10.796  10.398  0.6524  2.8004  1.8228
36833SOL     OW16335   9.238  10.763   3.964 -1.0251  0.1990 -0.0203
36833SOL    HW116336   9.290  10.708   4.022 -0.3657  1.1161  0.2927
36833SOL    HW216337   9.180  10.811   4.023 -1.0278  0.4262 -0.2070
36834SOL     OW16338  11.394  11.025   7.099 -0.0916 -0.2152 -0.0028
36834SOL    HW116339  11.339  10.995   7.171 -1.5170  1.5621 -0.2541
36834SOL    HW216340  11.344  11.003   7.020  0.6044 -0.5293 -0.3674
36835SOL     OW16341   2.180   3.742   7.987  0.3091  0.1374  1.1053
36835SOL    HW116342   2.093   3.703   7.987  0.3238  0.0252 -1.0741
36835SOL    HW216343   2.185   3.792   7.906  0.8597  3.4988  3.0166
36836SOL     OW16344   5.512   3.419   5.210 -0.4909 -0.4731  0.2492
36836SOL    HW116345   5.543   3.409   5.120  0.0797  0.5584  0.3081
36836SOL    HW216346   5.418   3.400   5.206 -0.4810 -0.3687 -0.5768
36837SOL     OW16347  11.536  10.856   2.583  0.8299 -0.7158 -0.2217
36837SOL    HW116348  11.618  10.807   2.579  0.4068 -1.6492  1.4116
36837SOL    HW216349  11.555  10.940   2.542  2.2998 -1.3073 -0.7941
36838SOL     OW16350   6.337   2.777   8.611  0.2845  0.5511  0.7165
36838SOL    HW116351   6.313   2.864   8.641  1.1747  0.8162  0.6901
36838SOL    HW216352   6.386   2.739   8.683  1.0829  0.5976  0.2102
36839SOL     OW16353  10.598   3.543  11.578  0.5007 -0.4410  0.0753
36839SOL    HW116354  10.592   3.537  11.483 -1.5601  1.0703  0.0234
36839SOL    HW216355  10.666   3.609  11.594  1.1796 -1.0348 -0.3120
36840SOL     OW16356  10.390   2.215   5.819 -0.1249  0.0409 -0.6859
36840SOL    HW116357  10.404   2.273   5.894 -0.9386 -2.2481  1.3301
36840SOL    HW216358  10.462   2.152   5.824 -0.5124 -0.4777 -1.5074
36841SOL     OW16359   1.701   4.412   8.270 -0.2756  0.4935 -0.0066
36841SOL    HW116360   1.667   4.401   8.182  1.5796 -0.3065 -0.6834
36841SOL    HW216361   1.788   4.450   8.258  0.2024 -0.0388  1.4422
36842SOL     OW16362   7.579   2.040   7.356  0.5416 -0.0333  0.6504
36842SOL    HW116363   7.623   2.101   7.415  2.4634 -0.8879  0.1553
36842SOL    HW216364   7.495   2.022   7.399  1.8504 -0.6148  3.1515
36843SOL     OW16365   8.875  10.778   3.037  0.3067  0.0298 -0.0311
36843SOL    HW116366   8.874  10.740   3.125  1.1645  1.4818  0.6418
36843SOL    HW216367   8.783  10.794   3.017  0.1021 -0.3434  0.5951
36844SOL     OW16368   8.648   7.623   9.446  0.4030  0.2174  0.4905
36844SOL    HW116369   8.640   7.699   9.504  0.5749  0.6717 -0.0732
36844SOL    HW216370   8.658   7.549   9.506  0.2414  0.6365  1.0495
36845SOL     OW16371   6.849   4.048   5.776 -0.5192 -0.2446 -0.2639
36845SOL    HW116372   6.830   3.980   5.711  0.0980 -1.1424  0.4715
36845SOL    HW216373   6.893   4.001   5.847  1.8719  1.2446 -0.6621
36846SOL     OW16374   6.527   9.557   7.360 -0.2094 -0.0227  0.0918
36846SOL    HW116375   6.480   9.593   7.284 -1.1014  0.8298  1.0218
36846SOL    HW216376   6.580   9.629   7.392  0.1723 -0.3828  0.2721
36847SOL     OW16377   3.559   2.915   2.488 -0.4323  0.4138 -0.7762
36847SOL    HW116378   3.522   3.002   2.478 -2.4183 -0.2471  0.1923
36847SOL    HW216379   3.498   2.869   2.546  0.3571 -1.7222 -1.5068
36848SOL     OW16380   5.172   0.106   8.455 -0.1456 -1.1749 -0.1983
36848SOL    HW116381   5.113   0.173   8.488  1.5429 -0.6182  1.8499
36848SOL    HW216382   5.208   0.143   8.375 -3.6077 -2.1813 -2.4759
36849SOL     OW16383   1.490   0.321   4.157  0.0090 -0.4932  0.6625
36849SOL    HW116384   1.441   0.366   4.088 -1.3051 -2.3075  0.3547
36849SOL    HW216385   1.501   0.387   4.225 -0.8241  0.6305 -0.2521
36850SOL     OW16386   2.385   3.640  11.731 -0.4151 -0.2846 -0.7386
36850SOL    HW116387   2.396   3.734  11.719 -2.4450 -0.0623 -1.1775
36850SOL    HW216388   2.442   3.618  11.805 -0.8424  1.5177  0.1718
36851SOL     OW16389   7.021  10.242  10.902 -0.3282 -0.0771 -0.1362
36851SOL    HW116390   7.097  10.202  10.859  0.1429  2.4435 -1.8436
36851SOL    HW216391   6.946  10.215  10.849 -0.1645  0.3435 -0.5840
36852SOL     OW16392   8.463   4.176   1.236 -0.1289 -0.3777  0.3767
36852SOL    HW116393   8.448   4.186   1.330  0.0220  1.1194  0.2664
36852SOL    HW216394   8.552   4.140   1.229  0.2822  0.5318  0.7958
36853SOL     OW16395   6.102   9.077   7.855  0.0193 -0.4966  0.4280
36853SOL    HW116396   6.161   9.121   7.916 -0.5207  1.0422 -0.1034
36853SOL    HW216397   6.062   9.007   7.906 -0.2402  0.6048  1.7862
36854SOL     OW16398   5.053   8.438   3.329 -0.0068 -0.2125  0.2329
36854SOL    HW116399   5.136   8.426   3.282  0.6098  0.8976  1.0076
36854SOL    HW216400   4.990   8.457   3.260  0.0467 -2.4726 -0.5154
36855SOL     OW16401   1.266   0.493   3.530 -0.2104  0.0656  0.2391
36855SOL    HW116402   1.302   0.487   3.619 -0.3245  1.0304  0.3559
36855SOL    HW216403   1.336   0.534   3.479 -0.1209 -0.5424 -0.1393
36856SOL     OW16404   3.695   6.677   7.866  1.2865  0.4694 -0.1645
36856SOL    HW116405   3.731   6.763   7.887 -0.2325  1.1197 -0.1435
36856SOL    HW216406   3.623   6.665   7.927 -0.1334  0.3123 -1.7832
36857SOL     OW16407   8.201   7.093   0.125  0.0171  0.0402  0.0316
36857SOL    HW116408   8.257   7.135   0.059 -0.2812 -0.7172 -0.7300
36857SOL    HW216409   8.207   7.000   0.105 -1.7223 -0.0505 -0.2468
36858SOL     OW16410   3.621   7.623   8.867 -0.0856 -0.2472 -0.1407
36858SOL    HW116411   3.642   7.533   8.844 -0.2014  0.2053 -2.2757
36858SOL    HW216412   3.704   7.670   8.862 -0.1964 -0.0404 -0.0880
36859SOL     OW16413   3.997   5.178   6.134  0.4256 -0.1116  0.2310
36859SOL    HW116414   3.974   5.267   6.162  0.6932  0.0367 -0.0177
36859SOL    HW216415   3.962   5.171   6.045 -1.3640 -0.9493  0.9656
36860SOL     OW16416   5.956   8.628   2.891 -0.2662 -0.0060 -0.6003
36860SOL    HW116417   5.920   8.671   2.969  2.8459  2.0974 -0.1452
36860SOL    HW216418   5.935   8.688   2.820  0.2237  0.0036 -0.7350
36861SOL     OW16419   8.937   2.630   5.291  0.2867 -0.0428  0.1767
36861SOL    HW116420   8.859   2.685   5.291 -0.1193 -0.6073  0.4668
36861SOL    HW216421   9.010   2.691   5.281 -0.1554  0.5382  0.4775
36862SOL     OW16422   9.360   0.882   0.256  0.4370  0.2408 -0.0714
36862SOL    HW116423   9.399   0.967   0.237  1.3350  0.0159  0.6907
36862SOL    HW216424   9.296   0.869   0.186  0.1420  1.6254 -0.0845
36863SOL     OW16425   6.066   2.564   4.230 -0.4478  0.7672  0.1303
36863SOL    HW116426   6.142   2.507   4.245 -1.5797 -0.3902  1.7957
36863SOL    HW216427   6.095   2.651   4.256  0.6539  0.5843 -0.4177
36864SOL     OW16428  10.762   1.578   0.435 -0.4168 -0.7737  0.2175
36864SOL    HW116429  10.683   1.549   0.480 -1.4632  1.9972  0.3734
36864SOL    HW216430  10.731   1.610   0.350  0.6969 -0.6161 -0.1493
36865SOL     OW16431   5.104  10.561   7.755 -0.0787  0.1321 -0.1528
36865SOL    HW116432   5.155  10.480   7.757  0.3216  0.3694 -0.4811
36865SOL    HW216433   5.074  10.573   7.845  0.3949 -0.0465  0.0320
36866SOL     OW16434  11.690   8.891   6.813 -0.4487 -0.4954  0.7610
36866SOL    HW116435  11.637   8.959   6.854 -2.0320 -0.1820 -1.5676
36866SOL    HW216436  11.780   8.921   6.823 -1.1368  3.0352 -1.7247
36867SOL     OW16437   4.270   8.800   6.864  0.4749 -0.1471 -0.3831
36867SOL    HW116438   4.193   8.817   6.810  2.8244  0.1759 -3.9625
36867SOL    HW216439   4.296   8.886   6.897  0.0303 -0.0684 -0.2408
36868SOL     OW16440   5.000   7.334   2.379 -0.1189  0.2636  0.2338
36868SOL    HW116441   5.030   7.254   2.336  2.0812  1.0863  0.1072
36868SOL    HW216442   5.061   7.346   2.451  0.6270  2.6697 -0.7152
36869SOL     OW16443  11.311   9.977   0.099 -0.3901 -0.4235 -0.3345
36869SOL    HW116444  11.288   9.885   0.087 -0.8790 -0.6260  1.7699
36869SOL    HW216445  11.378   9.976   0.167  0.0196  0.7486 -0.7000
36870SOL     OW16446  11.663  10.110   2.316  0.1252  0.0426 -0.0326
36870SOL    HW116447  11.699  10.179   2.372  1.4398  0.8980 -1.8205
36870SOL    HW216448  11.583  10.148   2.280  0.5757  0.4612 -0.6130
36871SOL     OW16449  10.477   8.998   1.030 -0.2295  0.3380 -0.0148
36871SOL    HW116450  10.436   8.937   1.092  0.9681 -0.7055 -0.1838
36871SOL    HW216451  10.447   9.084   1.057  0.9900  0.0263  2.6733
36872SOL     OW16452  11.935   8.645   3.275 -0.6467  0.7519  0.5501
36872SOL    HW116453  12.003   8.681   3.332 -0.0577  1.4246 -0.5508
36872SOL    HW216454  11.854   8.682   3.309 -0.2970  1.1922  0.9193
36873SOL     OW16455   4.770   2.678   3.060 -0.6496 -0.5387  0.0024
36873SOL    HW116456   4.753   2.767   3.090  2.0461  0.1675 -0.2928
36873SOL    HW216457   4.780   2.627   3.140  0.6713  0.0843  0.2643
36874SOL     OW16458   0.816   6.063   3.486  0.1959  0.2462 -0.3635
36874SOL    HW116459   0.879   6.031   3.421 -0.7240 -2.7444  0.0753
36874SOL    HW216460   0.789   5.984   3.534 -2.1886  1.7579  0.9592
36875SOL     OW16461   2.575   7.799   3.837 -0.3428 -0.2540  0.0615
36875SOL    HW116462   2.655   7.747   3.832  0.2523  0.3925  1.9886
36875SOL    HW216463   2.573   7.848   3.755  1.2786 -0.2218  0.0038
36876SOL     OW16464   2.907   5.206  10.027 -0.4190 -0.2776 -0.0581
36876SOL    HW116465   2.925   5.299  10.034 -0.5703 -0.1376 -1.2993
36876SOL    HW216466   2.939   5.169  10.110  1.3955  0.6018 -0.3162
36877SOL     OW16467   6.593  11.566   9.586  0.5525  0.4459  0.0534
36877SOL    HW116468   6.649  11.565   9.508  0.7097 -0.9570  0.1701
36877SOL    HW216469   6.542  11.485   9.582 -0.9753  1.3455  0.3320
36878SOL     OW16470   4.942   0.860   3.483 -0.1630  0.1693 -0.0322
36878SOL    HW116471   4.946   0.922   3.411 -0.1997 -0.9463 -1.0259
36878SOL    HW216472   4.964   0.775   3.444 -0.4228 -0.5113  1.2149
36879SOL     OW16473   5.877   5.968   7.264 -0.5865 -0.9217  0.0278
36879SOL    HW116474   5.827   6.009   7.335  0.3056 -0.6902  0.5397
36879SOL    HW216475   5.964   5.954   7.301  0.0946 -0.1924 -1.2269
36880SOL     OW16476   1.918  10.472  11.538  0.2830  0.4209  0.8048
36880SOL    HW116477   1.968  10.497  11.616  0.6180 -1.2230  1.1517
36880SOL    HW216478   1.982  10.473  11.467  0.5602 -0.5653  1.0352
36881SOL     OW16479  11.300   2.138   5.937 -0.4530 -0.1561 -0.0815
36881SOL    HW116480  11.391   2.131   5.907 -0.2156  0.0069  0.5820
36881SOL    HW216481  11.271   2.223   5.905 -0.8628 -0.8077 -1.5563
36882SOL     OW16482   2.212   3.211  10.626  0.0112  0.2443  0.2671
36882SOL    HW116483   2.233   3.297  10.588  0.0502  0.5028  0.8560
36882SOL    HW216484   2.294   3.162  10.620 -0.2600 -0.0995 -0.9427
36883SOL     OW16485   9.016  11.812   3.293 -0.1904 -0.1379 -0.5585
36883SOL    HW116486   9.096  11.852   3.260  0.2166  0.1531  0.7167
36883SOL    HW216487   9.040  11.722   3.313  0.2009  0.2714  0.9946
36884SOL     OW16488   9.962  12.071   8.213 -0.2406  0.3370 -0.3389
36884SOL    HW116489   9.919  11.999   8.259  0.8181 -0.1951 -0.1580
36884SOL    HW216490  10.052  12.041   8.200 -0.2571  0.8584 -1.9271
36885SOL     OW16491   8.282   0.030   8.682 -0.0961 -0.3479 -0.4600
36885SOL    HW116492   8.360  -0.018   8.709 -0.4796 -1.4642 -1.2929
36885SOL    HW216493   8.309   0.078   8.603 -0.2547 -0.7476 -0.7587
36886SOL     OW16494   8.917   7.847   6.868  0.0888 -0.0882  0.3422
36886SOL    HW116495   8.850   7.821   6.805 -1.6460  1.3236  1.5184
36886SOL    HW216496   8.959   7.765   6.893 -2.0130 -1.1892  0.4417
36887SOL     OW16497   0.611   4.244   9.870  0.3923  0.5677 -0.4801
36887SOL    HW116498   0.677   4.295   9.917 -0.7980 -0.1133  2.0943
36887SOL    HW216499   0.646   4.155   9.867 -1.0028 -0.1998  2.4585
36888SOL     OW16500   6.282   8.857   7.845  0.0923 -0.5215 -0.2459
36888SOL    HW116501   6.358   8.903   7.881 -1.7935  3.0449 -0.3879
36888SOL    HW216502   6.291   8.866   7.750 -0.0056 -1.0548 -0.3128
36889SOL     OW16503   1.481   4.512   9.764  0.0453 -0.4296 -0.5351
36889SOL    HW116504   1.435   4.492   9.682 -2.9129 -0.3447  0.9876
36889SOL    HW216505   1.473   4.607   9.774 -1.4356 -0.6517  0.7854
36890SOL     OW16506   6.910  11.574   6.130  0.5667  0.6568 -0.5121
36890SOL    HW116507   6.986  11.587   6.188 -0.3262  1.2475  0.5788
36890SOL    HW216508   6.884  11.663   6.106 -0.1212  0.4900 -0.3994
36891SOL     OW16509   5.446   5.420   9.726  0.2483  0.1507  0.2439
36891SOL    HW116510   5.483   5.336   9.750  0.3252 -0.7664 -2.6953
36891SOL    HW216511   5.368   5.429   9.781 -0.4089 -2.4210 -0.1362
36892SOL     OW16512   9.314   6.606   5.044  0.5883 -0.0842  0.0185
36892SOL    HW116513   9.324   6.553   5.123  1.0219 -0.5264 -0.3211
36892SOL    HW216514   9.375   6.567   4.981 -0.5593 -0.4700 -0.9135
36893SOL     OW16515   8.044   7.799   0.476 -0.3392 -0.1380 -0.2772
36893SOL    HW116516   8.104   7.821   0.405  1.4904 -1.3811  0.7963
36893SOL    HW216517   8.021   7.708   0.461 -0.9302 -0.0502  0.0657
36894SOL     OW16518   2.864   5.940   5.709 -0.1944 -0.6729 -0.2753
36894SOL    HW116519   2.770   5.960   5.711 -0.2352 -0.9171  2.1213
36894SOL    HW216520   2.900   6.004   5.647 -1.7532  0.3254 -0.2093
36895SOL     OW16521   2.593  10.558  11.756  0.0468 -0.3265 -0.4200
36895SOL    HW116522   2.680  10.519  11.765  0.7493  1.0200 -1.0211
36895SOL    HW216523   2.588  10.587  11.665 -1.4461 -1.2812 -0.6786
36896SOL     OW16524   1.922   7.288   4.780 -0.2404 -0.2945  0.0229
36896SOL    HW116525   1.905   7.235   4.858 -1.8308  0.0892 -0.0202
36896SOL    HW216526   1.878   7.240   4.709 -0.1683  0.1660 -0.3357
36897SOL     OW16527   6.304   5.745   8.041 -0.0403 -0.0192 -0.7181
36897SOL    HW116528   6.267   5.823   8.000  1.1053  0.6464 -0.5294
36897SOL    HW216529   6.287   5.757   8.135 -1.6752 -1.0073 -0.8519
36898SOL     OW16530  10.605   0.764   2.014  0.7862  0.2031 -0.1803
36898SOL    HW116531  10.566   0.826   2.075  0.8967  1.5704 -1.4536
36898SOL    HW216532  10.537   0.697   2.002 -0.6776  1.7880 -1.2668
36899SOL     OW16533   3.096   4.828  10.817 -0.4532  0.1844 -0.3047
36899SOL    HW116534   3.144   4.910  10.805 -1.1982  0.5483 -0.9080
36899SOL    HW216535   3.164   4.760  10.819  0.2101  0.8631  0.7771
36900SOL     OW16536   9.214   6.826   0.170 -0.3166 -0.5807  0.3809
36900SOL    HW116537   9.273   6.864   0.235 -0.1025  0.5152 -0.4010
36900SOL    HW216538   9.269   6.768   0.118  0.2062  0.6836 -0.5490
36901SOL     OW16539   4.508  12.107  11.915 -0.1895  0.6791 -0.3951
36901SOL    HW116540   4.416  12.115  11.892 -0.2490  1.2306  0.0263
36901SOL    HW216541   4.533  12.021  11.882 -0.0397  1.7328 -3.3090
36902SOL     OW16542   8.818   6.562   6.428  0.2008  0.0467  0.3532
36902SOL    HW116543   8.761   6.532   6.358 -1.7126  0.9752  1.4171
36902SOL    HW216544   8.760   6.571   6.504  1.3286  2.9470  1.0039
36903SOL     OW16545   0.258   7.866  11.008 -0.2019 -0.7222  0.4084
36903SOL    HW116546   0.190   7.919  11.050  1.1460  1.1711  0.3031
36903SOL    HW216547   0.239   7.874  10.914  0.2370 -0.0489  0.3691
36904SOL     OW16548   9.940   3.339  10.784  0.2977 -0.1240  0.1714
36904SOL    HW116549   9.911   3.290  10.707 -2.9240 -1.4769  2.0402
36904SOL    HW216550   9.978   3.273  10.842  0.1233  0.3999  0.8966
36905SOL     OW16551  10.834   6.152   5.024 -0.2211 -0.3933 -0.4340
36905SOL    HW116552  10.756   6.160   5.079  0.6128  0.9571  0.5996
36905SOL    HW216553  10.850   6.058   5.019 -1.6788 -0.6681 -0.3391
36906SOL     OW16554   8.842  11.796   0.489  0.1632 -0.1814 -0.2027
36906SOL    HW116555   8.854  11.721   0.431  0.8675  1.0260 -1.6941
36906SOL    HW216556   8.896  11.776   0.565 -0.1951 -1.4755 -0.2642
36907SOL     OW16557   6.131   2.045   9.356  0.5952  0.7266 -0.2044
36907SOL    HW116558   6.210   2.015   9.310  1.1229  1.7545  0.0119
36907SOL    HW216559   6.164   2.104   9.424 -0.0028 -1.8932  2.5914
36908SOL     OW16560   7.595   2.931   0.043 -0.3286  0.2569  0.7909
36908SOL    HW116561   7.685   2.960   0.057  0.4294  0.1515 -2.9474
36908SOL    HW216562   7.552   3.005   0.002 -0.6538 -1.0952 -1.4445
36909SOL     OW16563   5.490   6.297   5.066 -0.6166  0.0958  0.0025
36909SOL    HW116564   5.470   6.390   5.077 -0.8529 -0.1268  1.7522
36909SOL    HW216565   5.472   6.279   4.973  1.2925  2.1964 -0.8481
36910SOL     OW16566   3.067   2.897   7.930  0.3073 -0.3045  0.0116
36910SOL    HW116567   3.030   2.984   7.940  1.8221  0.2449  1.2235
36910SOL    HW216568   3.023   2.861   7.853 -0.6324  1.3615 -0.2793
36911SOL     OW16569   2.737  10.087   1.867  0.7513  0.3364 -0.1961
36911SOL    HW116570   2.752  10.106   1.959 -0.2917  1.3779 -0.2320
36911SOL    HW216571   2.777  10.161   1.820 -1.6705  1.5966 -0.4113
36912SOL     OW16572   1.972   5.555   4.984  0.7144 -0.4037 -0.5685
36912SOL    HW116573   2.042   5.597   5.034  0.3050  0.5387 -0.7687
36912SOL    HW216574   1.994   5.462   4.985 -0.0801 -0.6806  2.6721
36913SOL     OW16575  10.215   6.767   0.364 -0.5270  0.1924 -0.2678
36913SOL    HW116576  10.130   6.747   0.326  1.0756 -2.6410 -2.8071
36913SOL    HW216577  10.268   6.797   0.291  1.0898  0.3798  0.9128
36914SOL     OW16578   8.191   1.751   4.936  0.0089  0.2473  0.1294
36914SOL    HW116579   8.164   1.776   5.025  1.5562  3.6473 -0.2068
36914SOL    HW216580   8.287   1.745   4.940 -0.0031 -1.8561 -0.8908
36915SOL     OW16581   4.145  11.084   4.718 -0.5644  0.0246 -0.3166
36915SOL    HW116582   4.146  11.032   4.638 -0.1378 -1.2939  0.5290
36915SOL    HW216583   4.231  11.070   4.757 -1.0586 -0.0011  0.7981
36916SOL     OW16584   2.261   0.441   4.792 -0.1073 -0.6581 -0.1887
36916SOL    HW116585   2.351   0.429   4.760 -0.1583 -1.0519 -0.1978
36916SOL    HW216586   2.226   0.352   4.795 -0.0698 -0.6478  1.0794
36917SOL     OW16587   0.422   1.321   6.325 -0.7627 -0.5056  0.3208
36917SOL    HW116588   0.494   1.324   6.261 -1.5487 -0.3596 -0.5734
36917SOL    HW216589   0.358   1.384   6.292 -1.2863 -0.5987  1.1422
36918SOL     OW16590   0.722  11.549   0.515 -0.5886  0.3842 -0.1041
36918SOL    HW116591   0.647  11.504   0.475 -2.3035  1.4516  1.7241
36918SOL    HW216592   0.703  11.642   0.503  0.1557  0.6777  0.8925
36919SOL     OW16593   5.635   0.971   5.299  0.3525  0.5218  0.1508
36919SOL    HW116594   5.572   1.004   5.234  0.8635  0.4410 -0.3910
36919SOL    HW216595   5.595   0.890   5.330  0.4476  0.1709 -0.6080
36920SOL     OW16596   3.221  11.574   9.988 -0.4281 -0.2656 -0.0472
36920SOL    HW116597   3.291  11.633   9.963  1.0456 -1.0905  1.8230
36920SOL    HW216598   3.227  11.502   9.925  0.5900 -0.4324  0.2164
36921SOL     OW16599   9.344   4.665   0.999  0.0445  0.4986  0.1345
36921SOL    HW116600   9.300   4.660   0.914 -1.8809 -0.4370  1.1177
36921SOL    HW216601   9.415   4.601   0.993 -0.9093 -0.5453 -0.3265
36922SOL     OW16602  11.712   1.389  10.279 -0.0436 -0.0238 -0.1730
36922SOL    HW116603  11.702   1.373  10.373 -0.5610  0.6666 -0.1048
36922SOL    HW216604  11.705   1.302  10.239 -1.5209 -0.1420  0.2946
36923SOL     OW16605   8.628   6.896   7.326  0.1585  0.1197 -0.3323
36923SOL    HW116606   8.585   6.839   7.391  0.0988  1.5593  0.9586
36923SOL    HW216607   8.581   6.979   7.334  0.1548  0.3370 -2.2682
36924SOL     OW16608  10.702   8.686   4.971 -0.4825  0.0563 -0.0616
36924SOL    HW116609  10.695   8.756   4.906 -0.8931  0.5923  0.5445
36924SOL    HW216610  10.613   8.677   5.006 -0.4462 -0.8170 -0.1773
36925SOL     OW16611   1.706   6.282   4.397 -0.1181  0.6389 -0.7212
36925SOL    HW116612   1.690   6.187   4.401  0.2668  0.6061  0.2169
36925SOL    HW216613   1.767   6.292   4.324 -0.8677  0.2728 -1.4149
36926SOL     OW16614   5.233   8.117  11.251  0.6216 -0.5057  0.2003
36926SOL    HW116615   5.319   8.118  11.209  0.9793 -1.1608  0.8848
36926SOL    HW216616   5.237   8.186  11.317  0.1896  0.2726 -0.5690
36927SOL     OW16617   3.475   9.590  12.216  0.2317  0.7553  0.1384
36927SOL    HW116618   3.404   9.651  12.197  0.1707  0.6664  0.0792
36927SOL    HW216619   3.440   9.536  12.288 -0.7275 -0.9003 -1.4771
36928SOL     OW16620  10.606   3.556   1.513  0.5194  0.6560  0.0013
36928SOL    HW116621  10.534   3.552   1.450  1.2136 -0.8224 -0.7400
36928SOL    HW216622  10.685   3.564   1.459  1.3142 -2.5876  0.4504
36929SOL     OW16623   1.484  11.873   8.499  0.0772  0.1224  0.3641
36929SOL    HW116624   1.441  11.941   8.448  0.6146 -0.0947 -0.3945
36929SOL    HW216625   1.567  11.857   8.453  1.1959  0.8535  2.0498
36930SOL     OW16626   8.669   5.663   3.820  0.3451 -0.1459 -0.0899
36930SOL    HW116627   8.577   5.677   3.799 -0.0110 -1.3206  0.5626
36930SOL    HW216628   8.713   5.656   3.735 -0.6839 -2.5859 -0.4868
36931SOL     OW16629   5.937   0.881   3.236 -0.7368 -0.4428 -0.1141
36931SOL    HW116630   5.930   0.932   3.317  0.4100  0.1656 -0.3679
36931SOL    HW216631   5.891   0.800   3.254  2.1555 -1.7310  2.3439
36932SOL     OW16632   1.927   8.158  10.638 -0.0156 -0.6249  0.2594
36932SOL    HW116633   1.878   8.130  10.561  1.3771 -1.0802 -0.5043
36932SOL    HW216634   1.964   8.077  10.674  0.4738 -0.2666  0.5857
36933SOL     OW16635   1.154   0.425   8.244  0.2755 -0.3133 -0.2822
36933SOL    HW116636   1.108   0.447   8.325 -0.7097 -0.3681 -0.8086
36933SOL    HW216637   1.214   0.355   8.269 -0.6724 -0.9697  0.2283
36934SOL     OW16638  11.321  11.105   2.670 -0.1467  0.8406  0.4703
36934SOL    HW116639  11.399  11.075   2.716 -0.8729  1.6097  2.2879
36934SOL    HW216640  11.259  11.032   2.676  0.1434  0.5205 -0.2995
36935SOL     OW16641   2.500  10.592   4.653  0.0356 -0.1181 -0.2081
36935SOL    HW116642   2.456  10.520   4.698  0.6367  0.1106  0.7919
36935SOL    HW216643   2.544  10.551   4.578 -0.0342 -0.7072  0.0679
36936SOL     OW16644   3.754   0.783   6.449 -0.3104  0.0719 -0.2560
36936SOL    HW116645   3.681   0.741   6.404  0.1742  0.6633 -1.6395
36936SOL    HW216646   3.749   0.749   6.539 -0.9178 -1.6332 -0.8868
36937SOL     OW16647   4.228  11.982  11.054  0.2770 -0.0152  0.0178
36937SOL    HW116648   4.203  12.064  11.097 -2.3941 -0.1227 -1.1364
36937SOL    HW216649   4.250  12.008  10.964  0.8897 -0.4168  0.0423
36938SOL     OW16650  11.358   5.653   3.851 -0.1953  0.1339 -0.3938
36938SOL    HW116651  11.443   5.636   3.809  0.0211  1.0077 -0.3261
36938SOL    HW216652  11.321   5.566   3.866  0.4446 -0.2409 -0.9266
36939SOL     OW16653  10.795   0.335  11.114 -0.4662  0.0920  0.0062
36939SOL    HW116654  10.779   0.403  11.049 -0.3388 -1.5348 -1.8269
36939SOL    HW216655  10.890   0.322  11.114 -0.5139 -0.2759  0.1497
36940SOL     OW16656  11.111   2.328  12.193  0.0400 -0.3841  0.3386
36940SOL    HW116657  11.200   2.361  12.183  0.1983 -1.0890 -0.8983
36940SOL    HW216658  11.055   2.397  12.157  0.2805 -0.8652 -1.0551
36941SOL     OW16659   5.969   0.245   2.029 -0.1982  0.3878 -0.1599
36941SOL    HW116660   5.987   0.284   2.115 -1.7804  0.5855  0.1163
36941SOL    HW216661   5.883   0.280   2.004 -0.5328 -0.9695 -1.0528
36942SOL     OW16662   0.827   2.232   8.937 -0.1784 -0.6317 -0.1924
36942SOL    HW116663   0.921   2.217   8.942 -0.4237 -2.2073  0.2115
36942SOL    HW216664   0.791   2.192   9.016 -1.2225 -0.3326 -0.4919
36943SOL     OW16665   3.878  10.357   8.488  0.1008  0.2872 -0.0529
36943SOL    HW116666   3.902  10.289   8.551 -0.5146  0.4408  0.3541
36943SOL    HW216667   3.836  10.310   8.416 -0.0953  0.2086  0.1116
36944SOL     OW16668   9.719   2.855   1.837  0.3003  0.1171 -0.3098
36944SOL    HW116669   9.761   2.770   1.847 -1.6458 -0.7814  0.8258
36944SOL    HW216670   9.702   2.884   1.926 -1.2304  0.5145 -0.6881
36945SOL     OW16671   0.785  10.660   8.528 -0.3270  0.1864 -0.3735
36945SOL    HW116672   0.816  10.570   8.538 -1.5720 -0.2803 -0.6164
36945SOL    HW216673   0.784  10.695   8.617 -2.0163 -0.8022  0.0435
36946SOL     OW16674   8.457   2.664   8.936  0.2667 -0.0297  0.3270
36946SOL    HW116675   8.381   2.642   8.882  0.7770 -0.8357 -0.0766
36946SOL    HW216676   8.467   2.589   8.995 -0.8459  1.2190  2.2281
36947SOL     OW16677  11.307   2.326  11.315 -0.5594 -0.4465  0.4420
36947SOL    HW116678  11.322   2.394  11.380  0.2376  0.7939 -0.9783
36947SOL    HW216679  11.394   2.307  11.280 -1.1601  0.3666 -1.6371
36948SOL     OW16680   7.558   7.801   2.882  0.4252  0.5167 -0.1874
36948SOL    HW116681   7.643   7.842   2.896  1.5747 -1.2586 -1.5762
36948SOL    HW216682   7.571   7.744   2.807 -0.7776 -3.1117  2.1191
36949SOL     OW16683   6.156   0.258   4.574  0.4339 -0.0531  0.3705
36949SOL    HW116684   6.130   0.261   4.482  0.7275  1.0627  0.3029
36949SOL    HW216685   6.102   0.189   4.612  0.5821 -0.8048 -0.7164
36950SOL     OW16686   3.955   5.341   4.290  0.1846  0.1637  0.5064
36950SOL    HW116687   3.861   5.357   4.285  0.6382  2.9365 -1.0348
36950SOL    HW216688   3.964   5.248   4.265 -2.1026 -0.1389  0.5586
36951SOL     OW16689   0.990   3.600   3.214 -0.3109 -0.4396  0.2923
36951SOL    HW116690   0.955   3.555   3.138  0.1463 -2.5067  1.2290
36951SOL    HW216691   1.084   3.583   3.212 -0.4597 -1.8315  2.0510
36952SOL     OW16692   6.941   9.927  10.531 -0.0082 -0.3884  0.1161
36952SOL    HW116693   6.881  10.000  10.549 -0.5110 -0.5592 -0.8180
36952SOL    HW216694   6.997   9.959  10.459  1.3740 -0.0481  1.2915
36953SOL     OW16695   0.135   8.430  11.653 -0.0151 -0.1314 -0.0694
36953SOL    HW116696   0.224   8.463  11.669  0.3035 -0.8012 -0.4115
36953SOL    HW216697   0.084   8.509  11.634  0.5694  0.2327 -0.1760
36954SOL     OW16698   7.808   2.919   3.304 -0.2245 -0.5793  0.2400
36954SOL    HW116699   7.846   2.853   3.361 -0.6881  0.1649  1.4583
36954SOL    HW216700   7.714   2.901   3.304 -0.4087  0.3256  0.9347
36955SOL     OW16701  10.166  12.196   7.740  0.2778 -0.7645 -0.2561
36955SOL    HW116702  10.237  12.179   7.678 -0.7207  0.2385 -1.7156
36955SOL    HW216703  10.178  12.287   7.767  2.4848 -1.9085  3.4820
36956SOL     OW16704  10.125   9.787   4.703  0.4127 -0.1345 -0.4266
36956SOL    HW116705  10.130   9.719   4.636  2.3733 -0.0562 -0.4215
36956SOL    HW216706  10.191   9.851   4.676 -1.0133  1.5293 -0.1496
36957SOL     OW16707   3.577   5.091   3.904 -0.1421 -0.1609  0.0084
36957SOL    HW116708   3.642   5.032   3.943  0.3014  0.0081 -0.4689
36957SOL    HW216709   3.493   5.051   3.926  0.1446 -0.8164 -0.0638
36958SOL     OW16710   4.530   8.160  11.361  0.1922 -0.0176  0.0492
36958SOL    HW116711   4.535   8.233  11.300  1.0888 -0.8345 -0.8947
36958SOL    HW216712   4.527   8.201  11.447 -1.7217  1.1814 -0.5157
36959SOL     OW16713   5.083   4.138   4.612  0.0516 -0.3034  0.3694
36959SOL    HW116714   5.033   4.076   4.666 -1.2387 -0.9654 -1.5015
36959SOL    HW216715   5.161   4.157   4.664 -0.8156 -1.4013  2.1784
36960SOL     OW16716  11.076   9.844  11.587  0.8979  0.3954 -0.2365
36960SOL    HW116717  11.000   9.831  11.531  0.6002  0.9480  0.0317
36960SOL    HW216718  11.134   9.901  11.537  1.8363 -1.2151 -1.0737
36961SOL     OW16719  11.585   1.543  12.123 -0.6866  0.3016  0.7865
36961SOL    HW116720  11.516   1.576  12.181  0.7663 -0.8503  3.3470
36961SOL    HW216721  11.666   1.556  12.173  0.9766  1.2347 -1.9436
36962SOL     OW16722   9.203   7.564   0.238  0.4470 -0.3161 -0.3785
36962SOL    HW116723   9.294   7.573   0.264 -0.1030  1.6423  1.0326
36962SOL    HW216724   9.203   7.582   0.144  1.6205 -1.2991 -0.5836
36963SOL     OW16725   2.786   0.974   1.345  0.1418 -0.4400  0.0646
36963SOL    HW116726   2.796   0.880   1.362  0.8632 -0.1446  1.4744
36963SOL    HW216727   2.744   1.008   1.425 -0.3468  0.4018 -0.5347
36964SOL     OW16728   1.143   9.199   9.651  0.3595  0.2874  0.1646
36964SOL    HW116729   1.167   9.144   9.725  0.2472  0.1469  0.0974
36964SOL    HW216730   1.087   9.143   9.597  2.5122 -0.5116 -1.3698
36965SOL     OW16731   4.365   2.107   7.834 -0.0760 -0.0029 -0.2392
36965SOL    HW116732   4.403   2.115   7.922 -0.1100 -1.6607 -0.0463
36965SOL    HW216733   4.440   2.095   7.776 -0.1199 -0.1680 -0.2639
36966SOL     OW16734   1.870   0.129   2.271  0.2816  0.2204  0.2462
36966SOL    HW116735   1.818   0.196   2.315  0.7996  1.0478 -0.3921
36966SOL    HW216736   1.869   0.055   2.331  1.0158  1.3327  1.6755
36967SOL     OW16737  11.156   8.829   5.061 -0.3009  1.3855 -0.0056
36967SOL    HW116738  11.204   8.897   5.108  0.4045  0.1598  1.1165
36967SOL    HW216739  11.151   8.756   5.123  0.0855 -0.0591 -1.5982
36968SOL     OW16740   2.561   5.800   5.419  0.1990 -0.7418 -0.9136
36968SOL    HW116741   2.645   5.757   5.433  1.6050  1.8756 -0.7366
36968SOL    HW216742   2.547   5.853   5.498 -1.4121 -0.7826 -1.1261
36969SOL     OW16743   3.607   0.575   0.235  0.0980 -0.3526 -0.4728
36969SOL    HW116744   3.673   0.607   0.175  0.2468 -0.7366 -0.5182
36969SOL    HW216745   3.653   0.567   0.319  0.0881 -0.5355 -0.4842
36970SOL     OW16746   0.607   6.039   5.339 -0.9393  0.3383  0.5611
36970SOL    HW116747   0.692   6.067   5.304 -0.8745 -0.2953  0.1967
36970SOL    HW216748   0.628   5.973   5.404 -1.1182  0.7525  1.0437
36971SOL     OW16749  12.238   1.599   7.356  0.4455 -0.4708 -0.0831
36971SOL    HW116750  12.283   1.610   7.273  1.6854 -2.6501  0.2213
36971SOL    HW216751  12.308   1.602   7.422 -0.4503  0.7176  0.8695
36972SOL     OW16752   0.169   9.281   7.629 -0.7528  0.3544 -0.1993
36972SOL    HW116753   0.088   9.230   7.628 -1.1486  0.9503  0.5781
36972SOL    HW216754   0.218   9.250   7.553 -0.4530 -2.0146  0.8523
36973SOL     OW16755  10.773   6.611   5.011  0.2018  0.9083 -0.1295
36973SOL    HW116756  10.725   6.693   5.000  0.7701  1.2710  0.0314
36973SOL    HW216757  10.861   6.639   5.040 -0.6870  0.1711  3.9482
36974SOL     OW16758   6.823   2.551  12.128 -0.0703 -0.2924  0.0780
36974SOL    HW116759   6.770   2.515  12.058  1.1275 -0.7683 -0.6109
36974SOL    HW216760   6.784   2.515  12.208 -0.0876 -1.5581 -0.4780
36975SOL     OW16761   0.151   6.726   4.658 -0.0333  0.2607  0.0333
36975SOL    HW116762   0.207   6.804   4.658 -2.9746  2.5431  0.1286
36975SOL    HW216763   0.106   6.729   4.574  2.0276 -3.3020 -1.4434
36976SOL     OW16764   7.840   2.508   7.448  0.2367  0.4235 -0.2175
36976SOL    HW116765   7.795   2.541   7.369 -1.7712 -0.7554  0.3657
36976SOL    HW216766   7.910   2.572   7.463 -0.8998  2.0820 -1.5082
36977SOL     OW16767   3.120   6.369   2.432 -0.6356 -0.2303  0.0699
36977SOL    HW116768   3.035   6.349   2.393 -0.0093  0.1802 -1.5741
36977SOL    HW216769   3.102   6.441   2.493 -1.3076  0.5365 -1.0072
36978SOL     OW16770   6.955   4.964   4.576  0.5056  0.4078  0.0743
36978SOL    HW116771   6.912   5.033   4.526  0.8965  0.4046 -0.2760
36978SOL    HW216772   7.040   4.952   4.532  0.8712  0.4304  0.7637
36979SOL     OW16773   3.460   7.365   3.647 -0.4121 -0.3897  0.3510
36979SOL    HW116774   3.457   7.327   3.559 -0.2380  0.4197 -0.0128
36979SOL    HW216775   3.396   7.436   3.645  1.7201  1.6920 -0.1548
36980SOL     OW16776   0.312   5.351   2.055  0.2162  0.3634  0.0308
36980SOL    HW116777   0.392   5.328   2.102  1.0374 -0.0556 -1.5056
36980SOL    HW216778   0.338   5.353   1.963 -1.7777 -0.7811 -0.6096
36981SOL     OW16779   6.382   7.903  11.727 -0.3948 -0.0801  0.3688
36981SOL    HW116780   6.382   7.945  11.641 -2.0329  1.2342  0.9772
36981SOL    HW216781   6.475   7.883  11.743  0.2998  2.1100 -0.5343
36982SOL     OW16782   7.016   6.688   4.445  0.1049  0.3822  0.0380
36982SOL    HW116783   6.980   6.738   4.518  0.9971 -0.8394  1.3804
36982SOL    HW216784   7.063   6.615   4.487 -0.2893 -0.9970 -1.7859
36983SOL     OW16785   3.109   4.877  11.114  0.1509 -0.2152 -0.4705
36983SOL    HW116786   3.177   4.926  11.161  0.6468 -0.3132 -1.0835
36983SOL    HW216787   3.138   4.876  11.023  0.1540 -1.6643 -0.4747
36984SOL     OW16788  11.453   1.278   1.729  0.0664  0.0765  0.0332
36984SOL    HW116789  11.414   1.359   1.696 -0.0560  0.4631  1.0947
36984SOL    HW216790  11.533   1.306   1.773 -0.2494 -0.2988  0.8760
36985SOL     OW16791  12.217   3.584   8.610  1.4187  0.2047  0.2538
36985SOL    HW116792  12.243   3.576   8.518  1.2800 -0.9415  0.2982
36985SOL    HW216793  12.290   3.631   8.651  1.8381  0.0458 -0.2959
36986SOL     OW16794   3.892   1.762   8.181  0.1034  0.0990  0.0628
36986SOL    HW116795   3.970   1.716   8.213  0.1986  0.3326  0.1679
36986SOL    HW216796   3.875   1.830   8.246  1.0084  1.3630 -0.9671
36987SOL     OW16797   2.688  10.779   5.544  0.4583 -0.4846 -0.0341
36987SOL    HW116798   2.755  10.807   5.481  0.6526  0.9923  0.7939
36987SOL    HW216799   2.627  10.728   5.491  0.8588  0.3284 -1.3423
36988SOL     OW16800   6.994   2.131   1.423  0.0347 -0.3453  0.7297
36988SOL    HW116801   6.917   2.149   1.477 -1.8082  0.0267 -1.8295
36988SOL    HW216802   6.974   2.048   1.380 -0.0577  0.8860 -1.7420
36989SOL     OW16803   8.610   1.775   5.776  0.4393  0.0380 -0.3064
36989SOL    HW116804   8.521   1.811   5.781  0.9753  1.4934 -0.9627
36989SOL    HW216805   8.647   1.814   5.697  1.8162 -0.2423  0.1883
36990SOL     OW16806   4.335   3.315  11.132 -0.0436  0.4012  0.1903
36990SOL    HW116807   4.259   3.342  11.082  0.4528  0.3288 -0.6274
36990SOL    HW216808   4.316   3.342  11.222 -0.3073  1.8925 -0.2852
36991SOL     OW16809   9.219   6.154   2.493  0.1822 -0.4600  0.0331
36991SOL    HW116810   9.204   6.118   2.580  0.6550  1.1104  0.7951
36991SOL    HW216811   9.164   6.232   2.489  1.1936  0.2437 -0.5457
36992SOL     OW16812   6.574   9.851   7.728  0.3592 -0.2786 -0.4025
36992SOL    HW116813   6.591   9.933   7.682 -1.2582  0.8022  0.8277
36992SOL    HW216814   6.658   9.804   7.724  1.1936  1.2126 -1.5156
36993SOL     OW16815   8.027   7.109   1.836 -0.1122  0.4053 -0.3730
36993SOL    HW116816   8.045   7.199   1.811 -0.0250  0.6112  0.3832
36993SOL    HW216817   8.034   7.110   1.932 -2.7604  0.1894 -0.1057
36994SOL     OW16818   3.991   7.311   2.210  0.0582 -0.2782 -0.1074
36994SOL    HW116819   4.033   7.347   2.288 -0.7353  1.1235 -0.2800
36994SOL    HW216820   3.933   7.242   2.243  1.1767 -1.0328  0.3081
36995SOL     OW16821   6.481   5.170   3.915  0.1223 -0.0968 -0.6481
36995SOL    HW116822   6.503   5.204   3.828  1.9305  0.1757 -0.1413
36995SOL    HW216823   6.497   5.076   3.909  1.8554  0.1298 -0.2190
36996SOL     OW16824  12.009   4.304   5.247  0.5695 -0.2419  0.2440
36996SOL    HW116825  11.938   4.296   5.311 -0.7176  0.0284 -1.1215
36996SOL    HW216826  12.059   4.223   5.257 -1.7730 -1.9213 -0.9261
36997SOL     OW16827   8.569   5.579   4.352 -0.5620  0.3561 -0.2342
36997SOL    HW116828   8.526   5.619   4.428  1.9424  0.0705  1.4510
36997SOL    HW216829   8.609   5.653   4.305  2.8198  0.2250  2.0754
36998SOL     OW16830   7.937   9.273   1.297 -0.2709 -0.0577 -0.6820
36998SOL    HW116831   7.911   9.280   1.389  0.2579 -1.7191 -0.3615
36998SOL    HW216832   7.907   9.354   1.257  0.6576  1.3071  1.2287
36999SOL     OW16833   3.004   0.242   3.753  0.6151 -0.1152 -0.7224
36999SOL    HW116834   3.055   0.250   3.672  1.1333 -3.1887 -0.8525
36999SOL    HW216835   3.007   0.329   3.793  2.1416  0.9496 -2.9468
37000SOL     OW16836   6.069   6.332   5.981  0.0260 -0.2018 -0.3105
37000SOL    HW116837   6.069   6.384   6.062  1.6040  0.6933 -0.8581
37000SOL    HW216838   6.031   6.248   6.008 -1.3766  0.7509  0.8867
37001SOL     OW16839  10.939   1.211   3.865 -0.4018  0.4935 -0.3271
37001SOL    HW116840  10.847   1.190   3.880 -0.2153  0.2707  0.5642
37001SOL    HW216841  10.987   1.159   3.931  0.4574 -0.3553 -1.5689
37002SOL     OW16842   2.067  11.356   6.477 -0.6901 -0.1405  0.9426
37002SOL    HW116843   2.032  11.352   6.388 -0.7217 -2.5272  0.9886
37002SOL    HW216844   2.162  11.348   6.467 -0.8327 -3.1506  1.1397
37003SOL     OW16845   3.046   7.600   4.911 -0.1356 -0.5610 -0.0746
37003SOL    HW116846   2.962   7.599   4.865 -0.0926 -0.2370 -0.1656
37003SOL    HW216847   3.085   7.515   4.893 -1.0067 -1.2096  1.0218
37004SOL     OW16848   3.684   1.546   5.403 -0.5740 -0.5519 -0.1387
37004SOL    HW116849   3.696   1.500   5.319  0.7680  0.3258 -0.4532
37004SOL    HW216850   3.636   1.625   5.380 -0.1437 -0.2766 -0.1063
37005SOL     OW16851   4.962   6.583   2.031  0.0131  0.4116 -0.2163
37005SOL    HW116852   4.908   6.543   1.963 -2.5715 -0.0969  1.9536
37005SOL    HW216853   5.012   6.651   1.986 -1.1640 -0.2515 -2.6745
37006SOL     OW16854   2.950   1.757   1.693  0.2976  0.3334 -0.2591
37006SOL    HW116855   2.932   1.666   1.669  1.1261  0.5278 -1.7279
37006SOL    HW216856   3.026   1.752   1.752  1.0480  0.1312 -1.2245
37007SOL     OW16857  11.259   0.258   5.781 -0.5481 -0.5117  0.9581
37007SOL    HW116858  11.329   0.272   5.846 -0.1590 -1.2061  0.6997
37007SOL    HW216859  11.304   0.222   5.705 -1.3518 -2.1520  1.2263
37008SOL     OW16860  11.735  11.381  10.671  0.3327  0.4862  0.0861
37008SOL    HW116861  11.727  11.300  10.722 -1.6765  0.7980  0.3660
37008SOL    HW216862  11.726  11.353  10.580  0.5398  0.2961  0.1238
37009SOL     OW16863   4.843  11.597   2.556 -0.6742  0.5349 -0.0908
37009SOL    HW116864   4.846  11.509   2.596 -2.2088  1.0796  1.3479
37009SOL    HW216865   4.781  11.588   2.484  1.5273 -0.2614 -2.0200
37010SOL     OW16866   8.437  10.297   0.387  0.1565  0.3814  0.1079
37010SOL    HW116867   8.483  10.266   0.309  1.3263 -0.3923  1.0620
37010SOL    HW216868   8.346  10.303   0.360  0.6868  1.1898 -1.6200
37011SOL     OW16869   1.081   9.661   7.145  0.7011 -0.2261 -0.2181
37011SOL    HW116870   1.115   9.749   7.131  0.6970 -0.2192 -0.1865
37011SOL    HW216871   1.129   9.629   7.222 -0.8755  0.5665  1.1403
37012SOL     OW16872   0.202   3.043   5.569  0.3827  0.9122  0.3836
37012SOL    HW116873   0.277   3.087   5.528  1.9339 -0.8878  1.1435
37012SOL    HW216874   0.235   3.015   5.654 -0.9386 -0.5668  0.4370
37013SOL     OW16875   1.823   1.683  10.032 -0.1317 -0.0855  0.1311
37013SOL    HW116876   1.915   1.705  10.048  0.3696 -2.3126  0.6938
37013SOL    HW216877   1.809   1.706   9.940  1.8338 -2.1902 -0.7888
37014SOL     OW16878   9.122   1.188   3.624  0.0953 -0.0797 -0.1675
37014SOL    HW116879   9.156   1.217   3.709  1.0325  0.1038 -0.5975
37014SOL    HW216880   9.050   1.249   3.606 -0.0810 -0.0851  0.4629
37015SOL     OW16881  11.790   4.194   5.436 -0.6547  0.1515  0.3524
37015SOL    HW116882  11.762   4.178   5.346  0.9762  0.9151 -0.3286
37015SOL    HW216883  11.795   4.106   5.475 -1.4317 -0.1778 -0.2529
37016SOL     OW16884   3.674  10.921   5.542 -0.4047 -0.0804  0.2033
37016SOL    HW116885   3.691  11.015   5.539 -0.6000 -0.0705 -1.6823
37016SOL    HW216886   3.733  10.884   5.477 -1.4908 -1.0614 -0.2483
37017SOL     OW16887   3.745   4.503   6.743  0.2506 -0.2736 -0.4795
37017SOL    HW116888   3.807   4.575   6.735 -0.1090 -0.1165 -2.3024
37017SOL    HW216889   3.721   4.503   6.836  2.3298  0.1590  0.1152
37018SOL     OW16890  11.018   7.035   0.643 -0.1316  0.1675  0.0083
37018SOL    HW116891  11.091   7.050   0.702 -0.3876  0.0286  0.3605
37018SOL    HW216892  11.047   6.965   0.585  0.5021  0.9779 -0.6808
37019SOL     OW16893   1.583   3.922   7.123 -0.4409 -0.1317 -0.2620
37019SOL    HW116894   1.537   3.839   7.131 -0.9220  0.0362 -1.1595
37019SOL    HW216895   1.652   3.906   7.059  0.7952 -0.3843  1.0834
37020SOL     OW16896   7.236   8.650   7.407  0.2596 -0.4340 -0.0385
37020SOL    HW116897   7.254   8.582   7.473  2.8345 -1.4772 -1.6833
37020SOL    HW216898   7.313   8.706   7.409  0.3705 -0.4547 -2.1032
37021SOL     OW16899  12.232   1.597   9.999  0.0853 -0.3540  0.1767
37021SOL    HW116900  12.281   1.677  10.017 -1.1286  0.2808  0.7416
37021SOL    HW216901  12.269   1.533  10.061  1.6971 -0.5341 -0.9008
37022SOL     OW16902   2.816   4.872   8.806 -0.1859 -0.2552 -0.5063
37022SOL    HW116903   2.744   4.935   8.808  0.8090  0.9051  1.1805
37022SOL    HW216904   2.885   4.915   8.755 -0.5401 -1.2510 -1.8875
37023SOL     OW16905   4.299   8.382  11.130  0.0293  0.0920  0.3389
37023SOL    HW116906   4.279   8.288  11.136 -0.7924  0.3112  1.5099
37023SOL    HW216907   4.222   8.420  11.088 -0.2009  0.4004  1.0298
37024SOL     OW16908   8.511  11.381  10.810  0.3113 -0.2041  0.0917
37024SOL    HW116909   8.467  11.296  10.813 -1.4692  0.6236 -1.1469
37024SOL    HW216910   8.445  11.444  10.836  1.8991  0.7819  2.0100
37025SOL     OW16911   0.231   3.114  11.775  0.7043 -0.3108  0.4234
37025SOL    HW116912   0.261   3.173  11.706  2.0928 -0.9844  0.4041
37025SOL    HW216913   0.227   3.028  11.733 -2.6523 -0.1086  0.0598
37026SOL     OW16914   5.280   6.209   3.146  0.0507  0.0433  0.2031
37026SOL    HW116915   5.215   6.278   3.135 -0.6407 -0.3999  1.3658
37026SOL    HW216916   5.230   6.132   3.174  1.0634 -0.2900  1.2156
37027SOL     OW16917   0.399   5.090   7.862  0.2315 -0.5334 -0.0410
37027SOL    HW116918   0.448   5.041   7.928  0.4251  1.6932  1.5828
37027SOL    HW216919   0.308   5.063   7.875  0.3415 -0.5469  0.7747
37028SOL     OW16920   5.309  11.363   4.628  0.4388  0.1167 -0.4308
37028SOL    HW116921   5.285  11.274   4.652  1.4630  0.1675  0.8725
37028SOL    HW216922   5.294  11.368   4.533  0.8928 -1.5920 -0.6081
37029SOL     OW16923   5.412   6.171  10.298 -0.1449  0.4113 -0.4870
37029SOL    HW116924   5.353   6.123  10.239 -0.3394  0.3338 -0.2346
37029SOL    HW216925   5.496   6.173  10.252 -0.1845 -0.0055 -0.5859
37030SOL     OW16926   3.811   7.295   5.449  0.7692 -0.1078  0.7221
37030SOL    HW116927   3.797   7.224   5.512 -2.9633 -1.9584 -1.7851
37030SOL    HW216928   3.753   7.365   5.479  0.5779 -0.1704  0.5046
37031SOL     OW16929   2.406   9.344   8.838 -0.0832  0.1905  0.5338
37031SOL    HW116930   2.327   9.299   8.866  0.2975 -2.2452 -1.8985
37031SOL    HW216931   2.477   9.298   8.882  0.1180  0.9486  1.0172
37032SOL     OW16932   9.267   8.352   0.248 -0.8923  0.5530 -0.5383
37032SOL    HW116933   9.232   8.393   0.168 -1.4108  0.2379 -0.4835
37032SOL    HW216934   9.244   8.259   0.238 -0.4091  0.4088 -0.3092
37033SOL     OW16935  10.256  11.301   1.408  0.2955  0.1521 -0.6581
37033SOL    HW116936  10.315  11.370   1.379  0.4669  0.9961  1.4924
37033SOL    HW216937  10.290  11.275   1.494 -0.8818 -1.2778 -0.5766
37034SOL     OW16938  11.259   9.383   4.183 -0.1023  0.9286 -0.5786
37034SOL    HW116939  11.331   9.425   4.230  1.9499 -1.0020 -1.8021
37034SOL    HW216940  11.181   9.432   4.209  1.3619  1.9263  2.2877
37035SOL     OW16941   6.707   4.265   4.341  0.6428 -0.0894 -0.1763
37035SOL    HW116942   6.700   4.263   4.436  1.1578  0.1540 -0.1349
37035SOL    HW216943   6.766   4.193   4.319 -1.5017 -1.8929 -0.5129
37036SOL     OW16944   5.927   7.186   3.588  1.1650  0.0360 -0.5548
37036SOL    HW116945   5.963   7.270   3.616 -0.5713  0.5148  0.3851
37036SOL    HW216946   5.900   7.200   3.498  1.8349  0.1389 -0.7504
37037SOL     OW16947   3.418   7.643   7.584 -0.0448 -0.1100 -1.1936
37037SOL    HW116948   3.391   7.607   7.500  1.0674 -0.4594 -1.4069
37037SOL    HW216949   3.484   7.709   7.563  0.8580 -0.7872 -0.5562
37038SOL     OW16950   8.871   3.567   7.273 -0.1725  0.1458 -0.6413
37038SOL    HW116951   8.800   3.579   7.210 -0.0558 -0.2573 -0.8530
37038SOL    HW216952   8.833   3.511   7.341  0.0001 -0.2222 -0.8488
37039SOL     OW16953   3.198  11.655   2.426  0.3425 -0.1589 -0.5383
37039SOL    HW116954   3.156  11.728   2.473 -0.5826 -0.3354 -1.0635
37039SOL    HW216955   3.244  11.606   2.494  0.6164  0.6688 -0.1113
37040SOL     OW16956   5.438   7.802  11.299 -0.1403  0.1724  0.2551
37040SOL    HW116957   5.519   7.751  11.286 -0.4637  0.0014 -1.3004
37040SOL    HW216958   5.385   7.748  11.358  0.4368 -0.2310  0.4175
37041SOL     OW16959   1.374   4.938   7.276  0.4217 -0.3824  0.2184
37041SOL    HW116960   1.388   4.845   7.261  1.5622 -0.2289  0.2457
37041SOL    HW216961   1.449   4.965   7.329  0.9133  0.8576 -1.0399
37042SOL     OW16962   4.200   2.397  11.914  0.4006  0.0781  0.0150
37042SOL    HW116963   4.240   2.432  11.835  1.7922  1.0581  1.0941
37042SOL    HW216964   4.119   2.447  11.925  0.2063 -0.0588 -0.7594
37043SOL     OW16965   9.966   7.184   4.435  0.0291  0.4428  0.1233
37043SOL    HW116966  10.049   7.205   4.391  0.1078 -2.3134 -1.2414
37043SOL    HW216967   9.900   7.230   4.384  0.3398 -0.9885 -1.6660
37044SOL     OW16968   2.676   4.432   8.208  0.4031 -0.3035  0.7625
37044SOL    HW116969   2.622   4.509   8.191 -0.9626 -1.7923 -2.2764
37044SOL    HW216970   2.625   4.380   8.270 -0.2770 -0.3710  0.1415
37045SOL     OW16971   4.207   0.733   0.322  0.0708 -0.1895  0.0183
37045SOL    HW116972   4.199   0.800   0.254  0.4460  1.1091  1.2091
37045SOL    HW216973   4.129   0.744   0.376 -0.0784 -1.0113 -0.0237
37046SOL     OW16974  10.628   3.574  11.001 -0.2082 -0.1047  0.3233
37046SOL    HW116975  10.560   3.562  10.935 -0.3911 -0.9195  0.6414
37046SOL    HW216976  10.707   3.535  10.962 -0.1590 -0.0214  0.3385
37047SOL     OW16977   7.164   6.556   2.645  0.0307  0.4026 -0.3076
37047SOL    HW116978   7.212   6.581   2.724 -1.0930  0.0636  0.5068
37047SOL    HW216979   7.076   6.535   2.676 -0.9832  1.9883 -1.8748
37048SOL     OW16980   2.275   6.982   4.446  0.6159 -0.3794 -0.2207
37048SOL    HW116981   2.243   7.002   4.358 -1.8961  0.3334  0.7480
37048SOL    HW216982   2.343   6.916   4.433 -0.8575 -1.5769 -2.5774
37049SOL     OW16983   3.522   7.920   3.916  0.2993  0.0519  0.0630
37049SOL    HW116984   3.551   7.872   3.838 -2.1181 -1.8294  0.1880
37049SOL    HW216985   3.440   7.961   3.888 -0.7440 -0.8767  1.6453
37050SOL     OW16986   2.287   8.085   9.110 -0.2212  0.1943  0.3123
37050SOL    HW116987   2.229   8.161   9.102  0.1598  0.5435  0.8085
37050SOL    HW216988   2.355   8.113   9.171  1.1145  0.1783 -1.1094
37051SOL     OW16989   3.069  11.216   1.433  0.3793 -0.2048  0.2379
37051SOL    HW116990   3.050  11.140   1.488  2.1584 -0.2835  0.7929
37051SOL    HW216991   3.164  11.222   1.431  0.2970  1.8975  0.0214
37052SOL     OW16992   2.181   9.642   2.452  0.5498  0.0200 -0.4661
37052SOL    HW116993   2.173   9.620   2.359  0.0324 -0.1624 -0.3851
37052SOL    HW216994   2.140   9.728   2.460 -2.3390 -1.2943  0.1005
37053SOL     OW16995  10.667   9.133   3.587  0.2970 -0.4846  0.3503
37053SOL    HW116996  10.645   9.225   3.576  0.4499 -0.3070  1.3576
37053SOL    HW216997  10.713   9.130   3.671  1.3616 -1.3055 -0.2425
37054SOL     OW16998   9.978   3.122   7.903 -0.1340 -0.5977  0.0135
37054SOL    HW116999   9.926   3.091   7.829  2.1392 -0.9106 -1.5621
37054SOL    HW217000   9.963   3.216   7.906 -1.6468 -0.8191  0.3692
37055SOL     OW17001   5.561   6.878  11.424  0.2108  0.1229  0.0923
37055SOL    HW117002   5.583   6.810  11.359 -2.6293 -0.7239 -0.1206
37055SOL    HW217003   5.532   6.952  11.372 -1.4859 -0.3385  0.3289
37056SOL     OW17004  11.734   9.302   6.094  0.2266  0.0307 -0.1185
37056SOL    HW117005  11.664   9.293   6.030  0.4571 -0.9300 -0.2467
37056SOL    HW217006  11.690   9.328   6.175 -0.2762 -0.5388 -0.2040
37057SOL     OW17007   5.070   6.860   5.544  0.0662 -0.0168 -0.5703
37057SOL    HW117008   5.007   6.837   5.476 -1.3085  0.1947  0.5820
37057SOL    HW217009   5.129   6.923   5.503 -0.9747  0.3983 -1.4556
37058SOL     OW17010   2.419  11.825   4.971 -0.1867 -0.3011 -0.0018
37058SOL    HW117011   2.394  11.898   5.028 -0.8410 -1.0818  0.7221
37058SOL    HW217012   2.442  11.754   5.031  0.2135 -0.7768 -0.6994
37059SOL     OW17013   8.530   3.628  10.519  0.1734  0.1933  0.0908
37059SOL    HW117014   8.435   3.616  10.527  0.2001 -1.6898 -1.7527
37059SOL    HW217015   8.540   3.701  10.458 -0.1180 -0.0813 -0.2943
37060SOL     OW17016   1.463   7.817   3.805  0.3972  0.4084  0.0784
37060SOL    HW117017   1.375   7.844   3.777  0.4205  0.9968  0.5561
37060SOL    HW217018   1.449   7.733   3.848  0.1264  0.3090 -0.1927
37061SOL     OW17019  10.375   9.508  10.613  0.0840  0.6387 -0.0802
37061SOL    HW117020  10.348   9.600  10.607 -0.0055  0.6979  1.1106
37061SOL    HW217021  10.448   9.501  10.551  0.2222  1.5627 -0.0356
37062SOL     OW17022  11.294   8.923   7.166  0.5768 -0.2900 -0.0833
37062SOL    HW117023  11.352   8.858   7.206  0.0957 -0.8860 -0.3334
37062SOL    HW217024  11.262   8.880   7.086  0.0943  0.1774 -0.1475
37063SOL     OW17025   4.393   9.648   0.355  0.3392  0.2280 -0.0502
37063SOL    HW117026   4.374   9.705   0.430  2.8960 -0.1965  1.0119
37063SOL    HW217027   4.433   9.706   0.291 -1.0359  0.4130 -0.7777
37064SOL     OW17028   4.307  11.360   2.618 -0.3615  0.6690  0.0985
37064SOL    HW117029   4.348  11.431   2.568  0.9549  0.5545  0.9541
37064SOL    HW217030   4.327  11.281   2.569 -1.3141  0.8089 -0.5394
37065SOL     OW17031   9.166   0.987   7.713  0.5135 -0.3089  0.1944
37065SOL    HW117032   9.186   1.000   7.806 -0.7500  0.6916  0.3684
37065SOL    HW217033   9.241   1.023   7.666 -0.3768  2.6294  0.8110
37066SOL     OW17034   5.893  10.034   2.397  0.0667  0.4389  0.1771
37066SOL    HW117035   5.977  10.080   2.400 -0.6018  1.6289  1.3542
37066SOL    HW217036   5.856  10.058   2.312  0.2890  1.0608  0.2497
37067SOL     OW17037   0.817   9.250   9.462  0.0337  0.7309 -0.2836
37067SOL    HW117038   0.870   9.233   9.384 -1.8660  1.5875 -1.8588
37067SOL    HW217039   0.826   9.171   9.515  1.7520  0.3102 -1.1238
37068SOL     OW17040   2.278   3.075   0.460 -0.1943 -0.4092  0.0309
37068SOL    HW117041   2.260   3.103   0.370 -1.3889  1.4136  0.7876
37068SOL    HW217042   2.232   2.991   0.468 -3.2210  1.1066 -0.0423
37069SOL     OW17043   0.706   1.117   5.927  0.4997 -0.3703  0.0360
37069SOL    HW117044   0.688   1.023   5.917 -0.9950  0.0013 -1.1534
37069SOL    HW217045   0.801   1.123   5.930  0.6016 -2.0356  1.4786
37070SOL     OW17046   0.196   6.677   2.166 -0.0678 -0.0722  0.1466
37070SOL    HW117047   0.284   6.706   2.190  0.1085  0.4204 -1.0057
37070SOL    HW217048   0.140   6.754   2.183 -0.4377 -0.6356  1.6367
37071SOL     OW17049   1.632   4.813   6.012 -0.0328 -0.0174  0.3121
37071SOL    HW117050   1.667   4.844   5.928  1.5495 -0.9086  0.6126
37071SOL    HW217051   1.641   4.889   6.070  2.1750 -0.4014  0.5708
37072SOL     OW17052   9.300   5.637   0.007 -0.4302 -0.6806 -0.5075
37072SOL    HW117053   9.386   5.664  -0.025 -0.1505  0.4047  1.0609
37072SOL    HW217054   9.314   5.548   0.040  0.3255 -0.2239  0.4778
37073SOL     OW17055   8.790   4.687   0.713 -0.0432  0.5772 -0.1864
37073SOL    HW117056   8.857   4.632   0.754  0.4629  1.1835 -0.1849
37073SOL    HW217057   8.727   4.625   0.678 -2.0443 -0.0236  3.8898
37074SOL     OW17058  10.165   1.867  10.628 -1.0451  0.2734 -0.9119
37074SOL    HW117059  10.189   1.864  10.721 -0.2027  0.0498 -1.1279
37074SOL    HW217060  10.225   1.932  10.590 -3.1541  2.4234 -0.8247
37075SOL     OW17061   5.907   6.129   5.159 -0.0862  0.2176 -0.2072
37075SOL    HW117062   5.956   6.207   5.187  0.4839 -0.3290  0.3449
37075SOL    HW217063   5.928   6.063   5.225 -1.4474 -0.0829 -0.0519
37076SOL     OW17064  11.082   4.449   3.511 -0.0074 -0.0237  0.0713
37076SOL    HW117065  10.991   4.475   3.525 -0.5845 -1.2786 -1.0691
37076SOL    HW217066  11.107   4.403   3.592 -0.4158  0.2465  0.3517
37077SOL     OW17067   1.550   4.695   5.065 -0.1278  0.3967  0.0395
37077SOL    HW117068   1.501   4.720   4.987 -1.6537  0.8533  1.1089
37077SOL    HW217069   1.507   4.616   5.097 -0.7152  1.2499  1.4390
37078SOL     OW17070  10.346  11.344   6.426  0.1475 -0.2859  0.1577
37078SOL    HW117071  10.344  11.271   6.488  0.8656  0.4456  1.0898
37078SOL    HW217072  10.436  11.376   6.431  0.4477 -0.6786 -1.8713
37079SOL     OW17073   7.880  10.925   9.968  0.2638  0.5568  0.1080
37079SOL    HW117074   7.839  11.011   9.978 -0.4875  0.5444 -2.2282
37079SOL    HW217075   7.814  10.872   9.923  0.6762 -1.3129  1.5742
37080SOL     OW17076  10.606  12.257   9.144  0.0684 -0.2567 -0.3453
37080SOL    HW117077  10.687  12.291   9.106  0.3219 -1.0813 -0.5577
37080SOL    HW217078  10.572  12.330   9.196  1.0263  0.0506 -0.1242
37081SOL     OW17079   6.981  10.187   5.469  0.0864  0.0417  0.5435
37081SOL    HW117080   6.915  10.119   5.454  0.7505 -1.3005  3.0332
37081SOL    HW217081   6.962  10.218   5.558  2.4805 -0.0881  1.1756
37082SOL     OW17082   4.583  12.293   7.851 -0.2800 -0.5244 -0.1447
37082SOL    HW117083   4.542  12.379   7.850 -1.8067 -1.2129 -1.3171
37082SOL    HW217084   4.624  12.284   7.765  0.6253 -0.6327  0.2895
37083SOL     OW17085   9.519   6.080   7.073 -0.4794 -0.5225  0.5685
37083SOL    HW117086   9.533   6.094   6.980  2.1235 -0.0748  0.9532
37083SOL    HW217087   9.428   6.107   7.088 -0.8692 -0.3612 -1.7616
37084SOL     OW17088   3.715  11.557   4.518  0.2480 -0.2165 -0.1097
37084SOL    HW117089   3.653  11.589   4.584  2.2532  0.6670  1.4620
37084SOL    HW217090   3.770  11.495   4.564  1.3885  0.0397 -1.0670
37085SOL     OW17091  10.120   1.404   5.883 -0.3750  0.7415 -0.7982
37085SOL    HW117092  10.157   1.396   5.970  0.8906  2.6527 -1.1027
37085SOL    HW217093  10.059   1.330   5.875 -0.3790  0.4297  1.6027
37086SOL     OW17094   0.058   9.732   2.209 -0.3325  0.1061  0.0187
37086SOL    HW117095   0.001   9.778   2.147 -1.0007  1.4468  1.5728
37086SOL    HW217096   0.110   9.801   2.250  1.9649 -1.0112 -0.8249
37087SOL     OW17097   1.622   2.753   9.345 -0.4183  0.5626  0.3231
37087SOL    HW117098   1.658   2.813   9.280  1.6901  0.6023  1.4513
37087SOL    HW217099   1.649   2.666   9.313  0.1316  0.5432  0.8247
37088SOL     OW17100   3.470  11.316  12.201 -0.3474  0.4353 -0.4061
37088SOL    HW117101   3.525  11.391  12.181 -0.7535  0.9122  0.2195
37088SOL    HW217102   3.401  11.317  12.135 -0.7355  1.0122  0.0061
37089SOL     OW17103   7.523  11.090   2.870  0.2231 -0.4098  0.4694
37089SOL    HW117104   7.464  11.015   2.859 -1.0715  0.5183  0.8929
37089SOL    HW217105   7.493  11.133   2.950  0.8285  0.6647  0.1357
37090SOL     OW17106   3.175  10.400   5.122 -0.0535  0.3676 -0.2185
37090SOL    HW117107   3.171  10.461   5.048  0.0628  2.7691  1.5953
37090SOL    HW217108   3.268  10.399   5.147 -0.0569 -0.5689 -0.2315
37091SOL     OW17109   7.593   2.840   6.673  0.1722  0.0265 -0.6330
37091SOL    HW117110   7.679   2.821   6.636  0.2615  0.5128 -0.6784
37091SOL    HW217111   7.579   2.771   6.738  1.3742  0.9347  0.6668
37092SOL     OW17112  12.269   3.238   8.220 -0.2213  0.2462  0.0458
37092SOL    HW117113  12.289   3.330   8.207  1.1393 -0.0264  0.1019
37092SOL    HW217114  12.333   3.191   8.166  1.1111 -0.7316  2.3276
37093SOL     OW17115  10.931   3.647   0.400  0.1653 -0.5280 -0.2292
37093SOL    HW117116  10.948   3.699   0.478 -1.4305 -0.3610  0.0358
37093SOL    HW217117  10.893   3.709   0.337 -1.8642 -1.3156  0.1310
37094SOL     OW17118   0.970   2.668   5.590 -0.1977 -0.2079  0.5947
37094SOL    HW117119   0.959   2.594   5.650 -0.8341 -0.1642  0.5405
37094SOL    HW217120   0.911   2.736   5.624  1.4494  0.8472  1.5115
37095SOL     OW17121   7.982   2.204   0.026  0.3168 -0.0505 -0.1094
37095SOL    HW117122   7.959   2.258  -0.050 -0.2817 -0.3494 -0.1512
37095SOL    HW217123   8.052   2.147  -0.005  1.0366  0.7700 -0.0337
37096SOL     OW17124  11.935   5.400   3.095 -0.4881 -0.1280  0.0887
37096SOL    HW117125  11.992   5.419   3.170  2.5410 -1.2111 -1.7555
37096SOL    HW217126  11.957   5.310   3.070 -1.7694  0.0231 -1.7948
37097SOL     OW17127   3.319  10.939   1.414 -0.3035  0.4200 -0.1594
37097SOL    HW117128   3.233  10.915   1.380 -0.1523 -0.3800 -0.0103
37097SOL    HW217129   3.349  10.860   1.460  0.3193  0.8391  0.1636
37098SOL     OW17130  11.147   9.746   7.867 -0.6019 -0.5727 -0.3737
37098SOL    HW117131  11.139   9.821   7.808 -0.1727 -2.0536 -2.4357
37098SOL    HW217132  11.191   9.782   7.944 -0.6061  1.3452 -1.1878
37099SOL     OW17133   1.647   8.616   4.354 -0.6974 -0.0415 -0.1023
37099SOL    HW117134   1.637   8.550   4.286 -1.0221  0.3613 -0.4495
37099SOL    HW217135   1.565   8.614   4.403 -0.4625 -0.3357  0.2904
37100SOL     OW17136   7.590   6.813   0.190  0.4375  0.1425 -0.2801
37100SOL    HW117137   7.528   6.762   0.243  1.1757 -0.4238  0.0547
37100SOL    HW217138   7.622   6.752   0.124  0.5058  0.4837 -0.5656
37101SOL     OW17139   6.231  10.341   7.632 -0.2143  0.1223 -0.1773
37101SOL    HW117140   6.316  10.316   7.667 -0.0883 -0.4731 -0.8662
37101SOL    HW217141   6.178  10.262   7.639 -0.7187  0.4924  0.2572
37102SOL     OW17142   5.074   3.521   8.889 -0.0150 -0.2234 -0.1118
37102SOL    HW117143   4.981   3.505   8.905 -0.6755  1.1439 -2.1888
37102SOL    HW217144   5.118   3.487   8.968 -2.2372 -0.9057  0.9223
37103SOL     OW17145   9.728   0.470   2.653 -0.2364 -0.1028  0.5291
37103SOL    HW117146   9.701   0.400   2.593 -0.7852 -0.1463  0.8135
37103SOL    HW217147   9.745   0.425   2.736  1.0063 -0.1101  0.2888
37104SOL     OW17148   7.638   1.130   6.010 -0.1843 -0.2972 -0.6742
37104SOL    HW117149   7.699   1.184   5.960  1.1251 -1.4781 -0.4129
37104SOL    HW217150   7.607   1.064   5.947 -2.4654  1.1920 -1.2410
37105SOL     OW17151   2.936   1.903   6.209  0.1168  0.4991 -0.1061
37105SOL    HW117152   2.952   1.968   6.140 -1.4006 -0.5807 -1.5742
37105SOL    HW217153   3.010   1.843   6.202  0.5835  1.0409  0.0371
37106SOL     OW17154   0.785   8.104   5.365 -0.1545  0.3882  0.0493
37106SOL    HW117155   0.816   8.114   5.275  1.0392 -3.0305 -0.0632
37106SOL    HW217156   0.864   8.114   5.419  0.1309 -2.1670  0.2496
37107SOL     OW17157   3.433   3.213  11.792 -0.2066  0.3374  1.0349
37107SOL    HW117158   3.341   3.231  11.811  0.2182  1.7684  1.9295
37107SOL    HW217159   3.469   3.299  11.769  1.3522  0.2099  2.7970
37108SOL     OW17160   9.213   4.412   1.080 -0.1266  0.0328 -0.4189
37108SOL    HW117161   9.216   4.404   1.175 -1.6581  0.2610 -0.3305
37108SOL    HW217162   9.241   4.502   1.063  0.9800 -0.2614 -0.2703
37109SOL     OW17163   0.274  12.243   9.221  0.4703 -0.0711 -0.2160
37109SOL    HW117164   0.250  12.291   9.142  2.0075 -0.7730 -1.1400
37109SOL    HW217165   0.310  12.310   9.279 -0.5076  0.4180 -0.1444
37110SOL     OW17166   7.363   7.967  11.515  0.4779  0.0799  0.4931
37110SOL    HW117167   7.439   7.927  11.472 -0.4568 -1.3847  0.1366
37110SOL    HW217168   7.394   8.053  11.542  1.6064  0.4443 -1.6991
37111SOL     OW17169   4.460   1.620   7.983  0.2976 -0.3348 -0.1219
37111SOL    HW117170   4.465   1.665   7.898  2.2095 -0.9931 -0.4214
37111SOL    HW217171   4.499   1.682   8.045 -2.3524  0.7277  0.6292
37112SOL     OW17172   5.130   4.118   6.269  0.0785 -0.0000  0.0375
37112SOL    HW117173   5.137   4.214   6.261 -0.1240  0.0006 -0.1514
37112SOL    HW217174   5.099   4.090   6.183 -1.2962 -0.0949  0.5373
37113SOL     OW17175   1.155   0.201   4.362 -0.1632  0.6162  0.0544
37113SOL    HW117176   1.149   0.296   4.353 -1.2501  0.6028  0.4803
37113SOL    HW217177   1.243   0.179   4.332  0.4554  1.8682  0.8825
37114SOL     OW17178   5.204   7.262   7.779  0.2014  0.5179  0.1264
37114SOL    HW117179   5.248   7.275   7.695  0.5119 -0.3256  0.1487
37114SOL    HW217180   5.114   7.290   7.763  0.1263 -0.1274 -0.6391
37115SOL     OW17181   7.063  10.114   6.543 -0.2749  0.3232 -0.3149
37115SOL    HW117182   7.052  10.143   6.452  0.4952  0.5045 -0.3634
37115SOL    HW217183   7.114  10.033   6.536  1.6295  1.4115  0.0147
37116SOL     OW17184   7.133   5.870  11.457  0.1336 -0.0005  0.2715
37116SOL    HW117185   7.170   5.954  11.430 -0.9022  0.5536  0.5150
37116SOL    HW217186   7.188   5.843  11.531  0.1164  0.7679  0.5786
37117SOL     OW17187   3.262  12.056   7.654 -0.2175 -0.3949  0.6750
37117SOL    HW117188   3.332  12.097   7.604 -1.4624 -0.3308 -1.0992
37117SOL    HW217189   3.262  11.965   7.626 -1.3896 -0.1993 -0.0542
37118SOL     OW17190   4.026   7.072  10.521 -0.5204  0.0855 -0.8075
37118SOL    HW117191   4.073   7.155  10.521  1.4228 -0.9561 -0.2282
37118SOL    HW217192   4.094   7.006  10.509 -2.1275 -1.3937 -2.3083
37119SOL     OW17193   9.880   3.736  11.386 -0.0873 -0.3073 -0.1555
37119SOL    HW117194   9.869   3.648  11.422  0.9534 -0.7460 -0.8589
37119SOL    HW217195   9.944   3.777  11.444 -0.2333 -0.1678 -0.0926
37120SOL     OW17196   4.930  12.032  10.980  0.0584 -0.0752 -0.0765
37120SOL    HW117197   4.902  11.942  10.965  1.5966 -0.5300 -0.3547
37120SOL    HW217198   5.025  12.027  10.988 -0.0288  1.1517  2.7065
37121SOL     OW17199   1.446   5.081   4.939  0.3081 -0.5567 -0.0593
37121SOL    HW117200   1.460   5.167   4.979 -1.3735  0.0779 -0.7373
37121SOL    HW217201   1.527   5.033   4.957  0.3119  0.2696  2.5499
37122SOL     OW17202   5.320  10.375   3.989  0.0626 -0.6316  0.1571
37122SOL    HW117203   5.406  10.343   3.960  0.5734 -0.0193  0.9582
37122SOL    HW217204   5.331  10.394   4.082 -0.5323  0.7682 -0.0185
37123SOL     OW17205   0.367  10.486   8.268  0.0757 -0.3420 -0.3758
37123SOL    HW117206   0.460  10.495   8.287 -0.2855 -1.2185  2.1251
37123SOL    HW217207   0.363  10.420   8.199  1.2767 -1.0235  0.1852
37124SOL     OW17208   0.767   3.596  11.258  0.3998 -0.3973  0.0315
37124SOL    HW117209   0.811   3.569  11.177  0.0907 -1.0880  0.0865
37124SOL    HW217210   0.826   3.568  11.328  1.0704  0.9467  0.0373
37125SOL     OW17211   1.279   5.064  10.986 -0.7896  0.7647  0.4499
37125SOL    HW117212   1.195   5.029  11.017 -2.2941  2.0281 -1.9346
37125SOL    HW217213   1.296   5.140  11.042  0.4578 -1.2292  2.9885
37126SOL     OW17214   2.911   6.751   3.722  0.3405 -0.0110  0.0709
37126SOL    HW117215   2.846   6.762   3.791  0.9542  0.5230  0.5735
37126SOL    HW217216   2.866   6.699   3.655 -0.8355  0.9578  0.0843
37127SOL     OW17217   0.579   2.227   5.005  0.0340  0.2510 -0.2753
37127SOL    HW117218   0.621   2.158   5.057  0.2028  1.0088  0.6184
37127SOL    HW217219   0.524   2.275   5.068 -1.4395 -0.1218 -1.2277
37128SOL     OW17220  10.108  12.093   7.435  0.4230 -0.0228 -0.1466
37128SOL    HW117221  10.093  12.153   7.362  2.4957 -0.0306 -0.6456
37128SOL    HW217222  10.183  12.129   7.481 -0.5544 -0.2854  1.7505
37129SOL     OW17223   0.494   9.123   0.229  0.2390 -0.1434 -0.6840
37129SOL    HW117224   0.477   9.201   0.177  0.1844 -0.3449 -0.9688
37129SOL    HW217225   0.425   9.062   0.203 -0.1932 -0.0117  0.1077
37130SOL     OW17226  10.194   6.204   5.295  0.2377 -0.4378 -0.1150
37130SOL    HW117227  10.200   6.253   5.377 -0.4080  0.7705 -0.7674
37130SOL    HW217228  10.110   6.158   5.300 -0.5324  0.8586 -0.7305
37131SOL     OW17229  11.735   7.346  12.320  0.5049 -0.1249  0.2960
37131SOL    HW117230  11.777   7.281  12.376 -0.0541 -0.6852  0.0708
37131SOL    HW217231  11.805   7.378  12.263  0.5557 -1.3436 -0.3564
37132SOL     OW17232   1.733   9.337   5.983  0.0460  0.3263 -0.0439
37132SOL    HW117233   1.768   9.346   6.072 -1.0816 -1.0757  0.5756
37132SOL    HW217234   1.694   9.250   5.981 -0.2762  0.4720 -1.8185
37133SOL     OW17235   4.678   2.243  11.699  0.5125 -0.0616 -0.1796
37133SOL    HW117236   4.683   2.323  11.647 -0.5810  1.1850  1.5393
37133SOL    HW217237   4.595   2.202  11.671 -0.5468  1.0808  1.1450
37134SOL     OW17238   2.761  10.250   8.380 -0.0955 -0.4592  0.4348
37134SOL    HW117239   2.819  10.175   8.366  0.3848  0.0486 -0.4266
37134SOL    HW217240   2.819  10.317   8.417 -0.2425 -0.1224  0.0608
37135SOL     OW17241   4.837   9.824   9.072 -0.5241  0.7501  0.2615
37135SOL    HW117242   4.887   9.817   9.153 -0.8630  2.4637  0.6672
37135SOL    HW217243   4.767   9.886   9.092 -0.2265  1.7350 -1.5005
37136SOL     OW17244   5.029   5.962   1.983  0.2892 -0.0425  0.4682
37136SOL    HW117245   4.972   5.943   1.909  1.7373  0.2013 -0.7762
37136SOL    HW217246   4.980   6.024   2.037 -0.5299  0.3174 -0.6606
37137SOL     OW17247   1.334   0.610   4.708  0.5590 -0.2685  0.3540
37137SOL    HW117248   1.409   0.631   4.764  2.0972  1.4837 -2.1799
37137SOL    HW217249   1.300   0.695   4.681 -1.9157 -1.0401  0.7581
37138SOL     OW17250   6.314   4.491  11.436  0.2692  0.0323 -0.5133
37138SOL    HW117251   6.357   4.509  11.352  1.8906  1.9766  0.6306
37138SOL    HW217252   6.385   4.493  11.500 -1.0157 -0.7543  1.0059
37139SOL     OW17253   0.758   2.906   4.856  0.2464  0.4846 -0.7198
37139SOL    HW117254   0.699   2.962   4.805  0.0695  0.4183 -0.5880
37139SOL    HW217255   0.699   2.847   4.903  0.4408 -0.2808 -1.4000
37140SOL     OW17256   1.938   4.984  12.245 -0.2543 -0.2868  0.2778
37140SOL    HW117257   1.854   5.020  12.216  0.3859  0.8224 -0.2622
37140SOL    HW217258   1.937   4.994  12.340 -1.0272 -0.9736  0.3588
37141SOL     OW17259   7.896   4.780   3.731  0.2672 -0.2348 -0.2027
37141SOL    HW117260   7.928   4.781   3.640  1.5254 -0.0613  0.2118
37141SOL    HW217261   7.961   4.727   3.778  1.4474  2.2853  1.1980
37142SOL     OW17262   5.780   5.206   0.720 -0.8958  0.9024  0.5945
37142SOL    HW117263   5.822   5.120   0.721 -0.6171  1.0347  0.4447
37142SOL    HW217264   5.700   5.194   0.772 -0.5012  0.7317  1.1815
37143SOL     OW17265  10.524   9.117   5.301  0.4584  0.1613 -0.4337
37143SOL    HW117266  10.593   9.082   5.244  0.1536  0.9151 -1.2691
37143SOL    HW217267  10.492   9.040   5.349 -0.6796 -0.8747 -2.7369
37144SOL     OW17268  11.593   8.620   9.238  0.7063 -0.0319 -0.5135
37144SOL    HW117269  11.537   8.675   9.292 -2.0606 -1.7561 -1.4547
37144SOL    HW217270  11.673   8.672   9.227 -0.2126  2.0896  1.7858
37145SOL     OW17271   3.306   2.549   9.927 -0.1267 -0.6459 -0.4347
37145SOL    HW117272   3.294   2.593   9.843 -1.6516 -2.5997 -1.2983
37145SOL    HW217273   3.233   2.580   9.981  2.3574  2.8504  1.3495
37146SOL     OW17274   7.205   9.618  10.512  0.2496 -0.0100  0.4561
37146SOL    HW117275   7.119   9.586  10.485 -1.0147  1.5921  2.3099
37146SOL    HW217276   7.267   9.566  10.461 -1.8014 -1.1183 -1.0504
37147SOL     OW17277   7.400  11.773   2.692  0.4504 -0.5280 -0.5416
37147SOL    HW117278   7.469  11.713   2.662  1.8021  0.9195 -0.4474
37147SOL    HW217279   7.356  11.801   2.612 -0.4926 -1.9426 -0.5565
37148SOL     OW17280  10.945   5.481   6.574 -0.1938  0.0038  0.5158
37148SOL    HW117281  10.881   5.550   6.557  1.4093  1.6477  0.8943
37148SOL    HW217282  10.961   5.442   6.488  1.1131  2.1923 -0.3119
37149SOL     OW17283   6.673  11.646   3.409  0.1276  0.2090 -0.1069
37149SOL    HW117284   6.677  11.552   3.422 -1.0073  0.0839 -0.5367
37149SOL    HW217285   6.684  11.683   3.497  1.3930 -0.2776 -0.0441
37150SOL     OW17286   2.479   4.623   8.162  0.1835  0.5312  0.5283
37150SOL    HW117287   2.442   4.562   8.098  1.2070 -0.3140  0.7091
37150SOL    HW217288   2.415   4.625   8.232  0.6354 -1.2845  1.0602
37151SOL     OW17289  11.113   8.974   3.137  0.0041  0.1925 -0.0795
37151SOL    HW117290  11.166   9.034   3.084  0.3268  0.1042  0.1417
37151SOL    HW217291  11.026   8.978   3.097 -0.1419  1.3059  0.3311
37152SOL     OW17292   0.778   2.489   4.144  0.0923  0.5859 -0.4929
37152SOL    HW117293   0.732   2.482   4.060  0.5547  1.6032 -0.8477
37152SOL    HW217294   0.726   2.551   4.195 -0.3825 -0.2947  0.1217
37153SOL     OW17295   2.254   2.556   9.233  0.1162  0.3977 -0.1611
37153SOL    HW117296   2.327   2.499   9.213  0.7313 -0.5853  3.9499
37153SOL    HW217297   2.183   2.497   9.258 -0.9443  1.4134 -0.6124
37154SOL     OW17298  10.202   4.625   4.649 -0.2444 -0.0759 -0.3347
37154SOL    HW117299  10.199   4.619   4.744 -0.6013  3.2887 -0.0036
37154SOL    HW217300  10.111   4.612   4.621 -0.7372  1.9953  0.1496
37155SOL     OW17301   0.148   1.051  10.918  1.0970 -0.4677 -0.2795
37155SOL    HW117302   0.084   0.997  10.874  0.9891  0.6227 -1.5230
37155SOL    HW217303   0.135   1.033  11.011 -0.6757 -0.6273 -0.5285
37156SOL     OW17304  11.484   7.204   0.683 -0.2294 -1.0180  0.2697
37156SOL    HW117305  11.494   7.297   0.661  0.2731 -0.9928  0.5956
37156SOL    HW217306  11.496   7.159   0.599 -0.7793 -0.7745  0.0536
37157SOL     OW17307   5.063   4.793   3.221 -0.1557 -0.3386 -0.0019
37157SOL    HW117308   5.087   4.751   3.304  0.3675  2.9303  1.6470
37157SOL    HW217309   4.969   4.777   3.212  0.1269 -2.3291  0.1922
37158SOL     OW17310   0.915   9.625  11.947  0.2201  0.0902 -0.4667
37158SOL    HW117311   0.830   9.637  11.904 -0.3980 -1.2698  0.3111
37158SOL    HW217312   0.939   9.713  11.977 -0.3649  0.6831 -1.6642
37159SOL     OW17313   0.188   8.465   2.264 -0.0054 -0.2516  0.3547
37159SOL    HW117314   0.219   8.536   2.320  1.3824  0.1651 -0.8771
37159SOL    HW217315   0.123   8.506   2.207  0.2272 -0.1442  0.1650
37160SOL     OW17316  10.859   4.653   4.742 -0.0290  0.5790  0.6217
37160SOL    HW117317  10.944   4.630   4.705  0.3460  1.5007  0.8763
37160SOL    HW217318  10.796   4.613   4.683  0.5676  1.0708 -0.3801
37161SOL     OW17319   2.975   2.222   1.832 -0.2549 -0.2353  0.5884
37161SOL    HW117320   2.907   2.215   1.899 -0.2170 -1.6412  0.5014
37161SOL    HW217321   3.018   2.137   1.833  0.9172  0.3291  0.0059
37162SOL     OW17322  11.343   2.522   6.692 -0.1076  0.6856  0.1274
37162SOL    HW117323  11.414   2.563   6.742 -0.3002  0.1530  0.8566
37162SOL    HW217324  11.363   2.428   6.693 -1.4604  0.3630  1.4400
37163SOL     OW17325   2.049   0.818   8.148  0.2859 -0.7063  0.2398
37163SOL    HW117326   2.051   0.849   8.239 -0.4811 -2.7042  1.0012
37163SOL    HW217327   2.094   0.886   8.098 -0.7952  1.2843  1.8419
37164SOL     OW17328   7.763  10.732   9.811 -0.3043  0.1364  0.0162
37164SOL    HW117329   7.667  10.729   9.807 -0.5432  2.5034  1.9295
37164SOL    HW217330   7.788  10.648   9.848 -1.5556 -0.7538 -1.0501
37165SOL     OW17331   5.111   1.115   1.501  0.3525  0.2593  0.5055
37165SOL    HW117332   5.130   1.038   1.446 -3.2653  0.4303 -1.2362
37165SOL    HW217333   5.084   1.078   1.585  1.8334 -0.1675  0.8306
37166SOL     OW17334  12.168   2.496   4.499  0.0812 -0.5095 -0.1103
37166SOL    HW117335  12.221   2.459   4.569 -0.0990 -1.5277 -0.5061
37166SOL    HW217336  12.232   2.530   4.436  0.2619  1.3079  0.9567
37167SOL     OW17337   9.030   7.053   2.949 -0.2571  0.5021  0.0654
37167SOL    HW117338   9.023   7.018   2.861  0.4612  1.3222 -0.3356
37167SOL    HW217339   8.980   6.993   3.004 -1.7939  0.6864 -1.0909
37168SOL     OW17340   9.340   9.438   7.988  0.3229  0.0697  0.4456
37168SOL    HW117341   9.248   9.416   8.002  0.6236 -0.4093  1.9208
37168SOL    HW217342   9.387   9.361   8.020  1.2437  0.5719  0.3156
37169SOL     OW17343   4.644   6.112  11.457 -0.3416  0.3321 -0.5332
37169SOL    HW117344   4.583   6.141  11.525  0.5152  2.1828 -0.5017
37169SOL    HW217345   4.588   6.094  11.381 -1.3597 -2.1589  0.6829
37170SOL     OW17346   6.661  12.055   3.543  0.4231 -0.0871  0.0247
37170SOL    HW117347   6.735  12.039   3.485  0.8860 -1.0797  0.8628
37170SOL    HW217348   6.584  12.028   3.492  0.8852 -1.6109  0.0971
37171SOL     OW17349   5.428   6.938  10.525  0.3505  0.2818  1.0146
37171SOL    HW117350   5.420   6.857  10.576  0.2785  0.2530  0.9578
37171SOL    HW217351   5.424   7.008  10.590  3.3832  0.1874  1.4577
37172SOL     OW17352   2.603   7.491   3.614 -0.1498 -0.1853  0.3184
37172SOL    HW117353   2.535   7.544   3.570 -0.7306  0.0438  1.4555
37172SOL    HW217354   2.559   7.409   3.634 -0.4753  0.3745  2.0691
37173SOL     OW17355  11.743   2.512   2.092  0.1749 -0.6123 -0.0361
37173SOL    HW117356  11.780   2.545   2.174  1.2975 -1.5500 -0.1498
37173SOL    HW217357  11.674   2.451   2.120 -1.3559  1.1198  0.1732
37174SOL     OW17358   3.634   1.485   7.990  0.0382  0.3273 -0.2546
37174SOL    HW117359   3.633   1.398   7.950 -0.3695  1.0663 -1.9822
37174SOL    HW217360   3.726   1.509   7.994  0.1867 -0.3366  0.6447
37175SOL     OW17361   7.060   1.030  11.189  0.5506 -0.1958  0.4497
37175SOL    HW117362   7.142   0.996  11.153  0.9157 -1.7044  2.5260
37175SOL    HW217363   6.993   1.004  11.126  1.4143 -0.8532 -0.2127
37176SOL     OW17364   8.719   9.770   1.797  0.2961  0.3077  0.1378
37176SOL    HW117365   8.773   9.738   1.725 -2.0004 -0.6825 -1.2685
37176SOL    HW217366   8.741   9.713   1.870  2.2697  0.9710  0.1213
37177SOL     OW17367   4.860   4.433   1.734 -0.2544  0.2065 -0.4781
37177SOL    HW117368   4.846   4.382   1.814  1.5028  1.3938  0.6404
37177SOL    HW217369   4.776   4.428   1.688 -0.7841 -1.9168  0.5884
37178SOL     OW17370   5.590   8.500   6.026  0.1820  0.1454  0.7116
37178SOL    HW117371   5.530   8.567   6.057 -0.8361  0.4580 -1.6890
37178SOL    HW217372   5.538   8.420   6.024  1.0874 -0.5605  2.5312
37179SOL     OW17373   8.455  10.399   5.432  0.2584 -0.4420  0.2187
37179SOL    HW117374   8.546  10.380   5.453 -0.2642 -2.6333  0.8055
37179SOL    HW217375   8.457  10.437   5.344  1.6895 -1.1095 -0.0571
37180SOL     OW17376   0.757   3.308   1.707  0.1552 -0.3122  0.2658
37180SOL    HW117377   0.803   3.293   1.625  0.4022  0.4832  0.2446
37180SOL    HW217378   0.738   3.221   1.741  1.5818 -0.6714  0.2125
37181SOL     OW17379   1.305   5.042   9.606  0.0200  0.1006  0.5456
37181SOL    HW117380   1.373   5.024   9.541 -0.6836  0.3708 -0.2871
37181SOL    HW217381   1.350   5.094   9.673  1.0431 -1.1723  0.8855
37182SOL     OW17382   2.025   2.635   2.251 -0.6974  1.1408  0.2433
37182SOL    HW117383   2.027   2.637   2.346  1.1967 -1.8733  0.3887
37182SOL    HW217384   2.104   2.683   2.224 -0.0867  0.1960  0.3122
37183SOL     OW17385   6.639   4.238   8.474  0.3231  0.3715  0.5074
37183SOL    HW117386   6.726   4.274   8.491  1.1029 -0.0653 -2.0264
37183SOL    HW217387   6.608   4.289   8.399 -1.3723  0.1098  1.0049
37184SOL     OW17388  11.138   7.032   2.191 -0.3143 -0.5314 -0.5942
37184SOL    HW117389  11.167   7.103   2.135 -1.8171  1.2382  0.7340
37184SOL    HW217390  11.066   6.991   2.142 -0.5119 -0.0754 -0.6943
37185SOL     OW17391   4.936   8.667   9.100  0.0120  0.6144 -0.1584
37185SOL    HW117392   4.900   8.676   9.187 -0.0031  1.1958 -0.2238
37185SOL    HW217393   4.885   8.597   9.059  2.2288 -2.1581  1.4512
37186SOL     OW17394  10.411   0.043   4.476  0.0116 -0.0892  0.0395
37186SOL    HW117395  10.473   0.003   4.416  0.7165 -0.5551  1.0400
37186SOL    HW217396  10.445   0.131   4.492 -1.3045  0.8306 -1.8220
37187SOL     OW17397   4.354   5.034   4.803 -0.6267 -0.4053  0.0499
37187SOL    HW117398   4.323   5.038   4.712 -0.4883  0.0524  0.0188
37187SOL    HW217399   4.443   4.999   4.796 -0.0299  1.0902 -0.1476
37188SOL     OW17400  11.258  10.786   2.637 -0.2862  0.0053 -0.4624
37188SOL    HW117401  11.250  10.699   2.598 -2.3822 -0.0731 -0.0111
37188SOL    HW217402  11.345  10.816   2.613 -0.0134 -1.6842 -1.7386
37189SOL     OW17403   8.107   8.621   7.121 -0.2969 -0.1580 -0.1650
37189SOL    HW117404   8.174   8.643   7.057 -1.0802 -1.6425 -1.5711
37189SOL    HW217405   8.025   8.627   7.073 -0.8932 -1.4405  0.6328
37190SOL     OW17406   2.461   3.008   8.827 -0.6092 -0.2648  0.0849
37190SOL    HW117407   2.468   2.991   8.733 -1.7307 -0.7552  0.0686
37190SOL    HW217408   2.509   3.089   8.841 -0.1841 -0.3444 -0.8647
37191SOL     OW17409   0.839   2.886   8.089 -0.6042 -0.2948  0.8956
37191SOL    HW117410   0.906   2.952   8.069 -0.9773 -0.7400 -2.4435
37191SOL    HW217411   0.888   2.806   8.107 -0.2268  0.0724  1.5579
37192SOL     OW17412   2.002   4.598   6.058 -0.3850 -0.1468  0.0453
37192SOL    HW117413   2.020   4.657   5.984 -0.7903  0.0585  0.1107
37192SOL    HW217414   2.002   4.654   6.135  1.7405 -0.6008  0.4447
37193SOL     OW17415   8.186   7.404   2.128 -0.7459  0.7104 -0.2834
37193SOL    HW117416   8.175   7.487   2.081  0.9283  1.3737  0.4362
37193SOL    HW217417   8.181   7.427   2.220 -1.2975 -0.1828 -0.0712
37194SOL     OW17418   6.358  11.726   0.178  0.5549  0.5325 -0.5633
37194SOL    HW117419   6.387  11.669   0.249 -1.4210 -0.6379 -0.6450
37194SOL    HW217420   6.430  11.789   0.168  2.2773 -1.1985  0.3129
37195SOL     OW17421   8.725  12.188  10.078 -0.2656  0.0480 -0.6126
37195SOL    HW117422   8.636  12.175  10.113 -0.0211  0.8490  0.3587
37195SOL    HW217423   8.755  12.269  10.119  0.3583  0.6037 -2.1059
37196SOL     OW17424  12.068   1.969   7.387  0.4258 -0.1585 -0.2555
37196SOL    HW117425  12.108   1.978   7.473  1.0908  1.3211 -0.6811
37196SOL    HW217426  12.129   1.915   7.338  1.5786  1.4159 -0.6503
37197SOL     OW17427   0.082   6.278   8.995  0.1672  0.2675  0.4410
37197SOL    HW117428  -0.008   6.260   8.966  0.2449 -0.3957  0.6032
37197SOL    HW217429   0.094   6.371   8.977 -0.8204  0.5432  1.1158
37198SOL     OW17430  12.145   5.706   5.093 -0.4212 -0.1836 -0.0790
37198SOL    HW117431  12.054   5.734   5.097 -1.2913 -2.5928 -1.2820
37198SOL    HW217432  12.195   5.780   5.129 -2.7478  1.5243 -0.1805
37199SOL     OW17433   8.965  10.856  10.558  0.0206 -0.2053 -0.6977
37199SOL    HW117434   8.987  10.793  10.626  0.3396 -0.0492 -0.6559
37199SOL    HW217435   9.040  10.915  10.554 -0.3751  0.3198 -0.5730
37200SOL     OW17436   7.826   9.181  11.211 -0.0482 -0.2464 -0.1556
37200SOL    HW117437   7.874   9.211  11.287  0.2778  0.4168 -0.6104
37200SOL    HW217438   7.800   9.262  11.165 -1.8625 -0.5585  0.2339
37201SOL     OW17439   4.185   4.519   1.824 -0.3181 -0.0017 -0.2239
37201SOL    HW117440   4.241   4.468   1.766 -1.0792  1.2142 -2.1503
37201SOL    HW217441   4.106   4.466   1.834  1.0099 -1.6801  2.4331
37202SOL     OW17442  10.416  10.424   7.246 -0.1878  0.0240  0.4070
37202SOL    HW117443  10.332  10.420   7.202  0.7008  1.1372 -1.5103
37202SOL    HW217444  10.430  10.336   7.281 -1.4577 -0.5720 -0.5495
37203SOL     OW17445  10.168   7.616   2.540 -0.4674 -0.0504 -0.2591
37203SOL    HW117446  10.154   7.710   2.547 -0.4064 -0.0052 -0.7132
37203SOL    HW217447  10.138   7.594   2.452 -0.0790 -0.3824 -0.3092
37204SOL     OW17448   9.186   1.710  11.545  0.0390 -0.3492  0.6725
37204SOL    HW117449   9.262   1.765  11.559 -0.9251  1.3588 -0.5252
37204SOL    HW217450   9.222   1.623  11.525  1.6886  0.5901 -0.5929
37205SOL     OW17451   7.986   1.172   9.245  0.0083 -0.1309 -0.2126
37205SOL    HW117452   7.987   1.136   9.157  0.8524 -0.6735  0.0044
37205SOL    HW217453   7.893   1.175   9.269 -0.3558  1.3579 -1.6369
37206SOL     OW17454   3.796  11.495   7.603  0.5991  0.0401  0.1492
37206SOL    HW117455   3.872  11.533   7.648  1.0866 -0.3182 -0.3576
37206SOL    HW217456   3.800  11.402   7.625 -0.2611  0.1715  0.9170
37207SOL     OW17457   8.813   7.805   1.452 -0.2197 -0.1479  0.5518
37207SOL    HW117458   8.866   7.754   1.513  1.0007 -0.1939 -0.5232
37207SOL    HW217459   8.750   7.851   1.508  2.1222  1.3719  2.0843
37208SOL     OW17460  11.544   9.676   0.797  0.0948  0.4811 -0.4824
37208SOL    HW117461  11.630   9.715   0.814 -0.8909  1.7254  2.1696
37208SOL    HW217462  11.537   9.675   0.702  1.9508  2.8303 -0.7327
37209SOL     OW17463  10.944   9.191  10.488 -0.0079 -0.1577  0.8785
37209SOL    HW117464  10.946   9.127  10.417 -2.8079  0.8049 -0.2036
37209SOL    HW217465  10.976   9.143  10.564 -1.5424 -2.7887  0.0064
37210SOL     OW17466   1.634  11.656   0.923 -0.3599 -0.0273  0.3159
37210SOL    HW117467   1.728  11.660   0.938 -0.1265 -0.3037 -0.9378
37210SOL    HW217468   1.625  11.666   0.828 -1.6941  1.6884  0.5663
37211SOL     OW17469   0.153   1.595   7.512  0.4602 -0.3669 -0.4554
37211SOL    HW117470   0.177   1.613   7.603  1.9184  0.9392 -1.0501
37211SOL    HW217471   0.182   1.505   7.498  0.5753 -0.4543  0.2680
37212SOL     OW17472   0.036   2.726  11.110 -0.7331 -0.2552  0.3064
37212SOL    HW117473   0.061   2.634  11.102  3.7256  0.7607  0.0437
37212SOL    HW217474   0.025   2.756  11.019 -3.5682 -0.6897  0.4086
37213SOL     OW17475  11.674   4.873   6.805  0.2463 -0.4257 -0.3571
37213SOL    HW117476  11.626   4.839   6.881 -0.9398 -1.2585 -1.4340
37213SOL    HW217477  11.711   4.795   6.764  0.4930 -0.0306 -0.8856
37214SOL     OW17478   9.219   5.381   6.625  0.3545  0.3734  0.6352
37214SOL    HW117479   9.256   5.426   6.701 -0.4918 -0.7305  1.7275
37214SOL    HW217480   9.294   5.369   6.566  0.9599  1.5328  1.1238
37215SOL     OW17481   0.593   3.379  11.490  0.4431 -0.4501  0.5945
37215SOL    HW117482   0.605   3.421  11.575 -0.7350 -0.8729  0.9975
37215SOL    HW217483   0.668   3.406  11.438  0.2008  1.3969  1.1468
37216SOL     OW17484  10.636   1.063  10.369  0.3218 -0.0785  0.3500
37216SOL    HW117485  10.675   1.095  10.451  0.9965 -1.3640  0.5577
37216SOL    HW217486  10.590   0.983  10.394 -1.6796  0.8765 -0.0803
37217SOL     OW17487   3.865   1.164   8.882  0.2576  0.2802 -0.2481
37217SOL    HW117488   3.881   1.083   8.930  1.7507  0.9389  0.4170
37217SOL    HW217489   3.881   1.141   8.790 -0.4987 -0.4505 -0.2089
37218SOL     OW17490   1.505   0.513  11.577 -0.1540  0.1534  0.1348
37218SOL    HW117491   1.598   0.504  11.600  0.3678  1.2164 -1.3653
37218SOL    HW217492   1.477   0.424  11.553  0.8345  0.0104 -0.5703
37219SOL     OW17493   2.464   1.019   9.578 -0.4261  0.2482  0.2273
37219SOL    HW117494   2.554   1.030   9.608 -0.7904  1.6178  0.8832
37219SOL    HW217495   2.471   0.963   9.500  0.9613  0.1821  0.3828
37220SOL     OW17496   8.723   9.708   2.365  0.1963  0.0533  0.3522
37220SOL    HW117497   8.786   9.745   2.427  0.4955 -0.1178  0.1503
37220SOL    HW217498   8.651   9.772   2.364  0.1018 -0.0310  1.0106
37221SOL     OW17499   5.269  11.926   7.831 -0.1590 -0.0947 -0.0164
37221SOL    HW117500   5.322  11.995   7.871 -1.4802 -0.3774  2.3653
37221SOL    HW217501   5.182  11.964   7.822 -0.0618 -0.2354 -2.2672
37222SOL     OW17502   4.444   7.680   0.814 -0.2015  0.1234  0.0941
37222SOL    HW117503   4.516   7.743   0.825 -0.3811  0.5759 -1.1819
37222SOL    HW217504   4.459   7.615   0.883  1.7809 -0.1178 -0.4902
37223SOL     OW17505  11.848   7.027  12.027  1.0320 -0.4103 -0.3405
37223SOL    HW117506  11.894   7.093  11.975  0.9959 -0.8111 -0.9000
37223SOL    HW217507  11.852   6.948  11.973  0.8305 -0.7905  0.1940
37224SOL     OW17508   7.457  10.718   6.490 -0.3999  0.4902 -0.1163
37224SOL    HW117509   7.513  10.649   6.453 -0.2633 -0.1055  1.1586
37224SOL    HW217510   7.518  10.784   6.523 -0.3849 -0.4557  1.8459
37225SOL     OW17511   0.073  11.053   5.163  0.7578  0.3272  0.5450
37225SOL    HW117512   0.133  10.978   5.166 -0.4143 -0.6468  0.1462
37225SOL    HW217513   0.007  11.034   5.230 -0.2119  0.4226 -0.3600
37226SOL     OW17514   2.304   5.453  11.357 -0.7752  0.3660 -0.0841
37226SOL    HW117515   2.326   5.487  11.271 -0.2809 -0.9389 -0.4955
37226SOL    HW217516   2.326   5.524  11.418  0.2789  0.7539 -0.8960
37227SOL     OW17517   9.259   8.102  10.964  0.4063 -0.5028  0.3861
37227SOL    HW117518   9.259   8.114  10.869 -0.7331  1.0403  0.5334
37227SOL    HW217519   9.167   8.087  10.987  0.5602 -0.1784  1.2980
37228SOL     OW17520   1.309   1.567   3.052  0.0573 -0.0626 -0.2003
37228SOL    HW117521   1.264   1.490   3.019  1.5663 -0.7568 -0.7592
37228SOL    HW217522   1.401   1.539   3.060  0.2235  0.9377  1.9331
37229SOL     OW17523   5.633   9.075   4.687 -0.6028  0.6813 -0.3245
37229SOL    HW117524   5.609   8.987   4.718 -3.4957  1.1603 -0.9225
37229SOL    HW217525   5.705   9.060   4.626  0.3308 -1.0294  1.1017
37230SOL     OW17526  11.381   4.039  11.407 -0.2622  0.5473 -0.2868
37230SOL    HW117527  11.296   4.081  11.419 -0.2908  0.3844  0.0757
37230SOL    HW217528  11.374   3.996  11.322 -0.5007  0.6325 -0.3126
37231SOL     OW17529   6.448   6.925   5.236  0.4760  0.6727  0.0208
37231SOL    HW117530   6.482   6.905   5.324  2.3770  1.5879 -0.4517
37231SOL    HW217531   6.452   7.020   5.231 -2.4289  0.8689 -0.0350
37232SOL     OW17532   7.250   2.549   6.989 -0.0111  0.1569  0.4816
37232SOL    HW117533   7.229   2.483   7.055  1.5348 -1.0590 -0.1811
37232SOL    HW217534   7.291   2.500   6.917  0.1811  1.6955 -0.5262
37233SOL     OW17535   2.123  11.686  11.466  0.7136 -0.2129 -0.0262
37233SOL    HW117536   2.046  11.660  11.517  1.2248  0.3139  1.0503
37233SOL    HW217537   2.120  11.631  11.388 -0.2590 -0.8273  0.4248
37234SOL     OW17538   4.158   5.105   8.544  0.5243 -0.0250  0.2823
37234SOL    HW117539   4.171   5.022   8.590 -0.1355  0.0358  0.5923
37234SOL    HW217540   4.203   5.094   8.460  0.2621 -0.7761  0.2329
37235SOL     OW17541   4.755   7.228   5.978 -0.4384 -0.2004 -0.2200
37235SOL    HW117542   4.799   7.167   5.919  0.5964 -0.5689  0.8903
37235SOL    HW217543   4.807   7.225   6.059 -1.0083  1.3293  0.2350
37236SOL     OW17544  11.070  11.958   4.725 -0.1401  0.4478 -0.5208
37236SOL    HW117545  11.117  11.876   4.736 -0.3254  0.5664  1.5359
37236SOL    HW217546  10.978  11.935   4.738 -0.5555  0.5040 -2.9094
37237SOL     OW17547   2.409   4.454   6.130  0.1013  0.1935 -0.7355
37237SOL    HW117548   2.317   4.456   6.157  0.2965 -1.0234  0.1146
37237SOL    HW217549   2.411   4.501   6.047 -1.3149  0.1355 -0.8258
37238SOL     OW17550   6.229   8.379   3.748 -0.0154  0.3566 -0.3917
37238SOL    HW117551   6.179   8.441   3.800 -0.0134 -0.9180  1.1903
37238SOL    HW217552   6.293   8.342   3.808  0.5286 -0.5886 -1.4945
37239SOL     OW17553   1.908   3.117   6.530  0.1098  0.3423  0.2797
37239SOL    HW117554   1.815   3.106   6.509  0.0896 -1.4072  1.1238
37239SOL    HW217555   1.911   3.197   6.583 -0.7601  0.9689 -0.5920
37240SOL     OW17556   5.879   5.634   3.519  0.3038  1.0300 -0.1753
37240SOL    HW117557   5.974   5.644   3.525  0.4880 -1.2145  3.9430
37240SOL    HW217558   5.844   5.708   3.569  0.2224 -0.6600  2.4171
37241SOL     OW17559  12.231   0.978   8.507  0.6186 -0.6084  0.1256
37241SOL    HW117560  12.141   0.984   8.539  0.7365  0.9754  0.2353
37241SOL    HW217561  12.224   0.926   8.427 -0.3786 -0.6076  0.2008
37242SOL     OW17562  11.380   7.894  10.874  0.2067 -0.0459  0.2488
37242SOL    HW117563  11.433   7.967  10.843 -1.2251  0.9225  0.0011
37242SOL    HW217564  11.444   7.825  10.893  1.5959  1.2164  0.4086
37243SOL     OW17565   5.058   9.108   0.702  0.7027  0.7433 -0.0066
37243SOL    HW117566   5.028   9.175   0.764  0.7303  2.1341 -1.4328
37243SOL    HW217567   5.123   9.057   0.750  0.1266  1.2416  1.3520
37244SOL     OW17568   5.836  11.359  11.793  0.3735 -0.3728 -0.4454
37244SOL    HW117569   5.768  11.364  11.726 -0.5165 -0.2988  0.4501
37244SOL    HW217570   5.869  11.448  11.802 -0.3890 -0.1404  0.1047
37245SOL     OW17571   8.016   7.207   4.265  0.0540  0.4910  0.1058
37245SOL    HW117572   7.986   7.297   4.253 -0.9634  0.4038  1.7131
37245SOL    HW217573   7.972   7.158   4.195 -2.1521  0.7039  1.2598
37246SOL     OW17574   3.855   1.546  10.773 -0.4814 -0.1998 -0.2670
37246SOL    HW117575   3.879   1.624  10.723 -2.5325  0.5594 -0.1890
37246SOL    HW217576   3.846   1.577  10.863 -1.1872 -0.5326 -0.2159
37247SOL     OW17577   8.010   2.449   4.442  0.5989  0.1761  0.1635
37247SOL    HW117578   8.098   2.422   4.467 -0.4030 -2.0986  1.5200
37247SOL    HW217579   7.994   2.529   4.493  1.5397  0.1266  0.5575
37248SOL     OW17580   9.107   8.298   8.258 -0.1124 -0.5774  0.0933
37248SOL    HW117581   9.169   8.347   8.312 -0.2179  0.5519 -0.7702
37248SOL    HW217582   9.134   8.317   8.168 -0.8810 -1.1734 -0.2722
37249SOL     OW17583   1.895  10.888   9.304 -0.6634 -0.4058 -0.0069
37249SOL    HW117584   1.934  10.873   9.391 -0.8916 -0.5842  0.0624
37249SOL    HW217585   1.865  10.802   9.275  1.6546 -0.8613 -1.3581
37250SOL     OW17586   2.982   0.387   8.802 -0.1165  0.2871  0.4319
37250SOL    HW117587   2.941   0.338   8.731 -0.8916 -0.5848  1.4397
37250SOL    HW217588   2.929   0.367   8.879  0.9991  0.7839  1.3713
37251SOL     OW17589  11.257  11.990   6.393  0.3713 -0.3637 -0.3865
37251SOL    HW117590  11.206  12.055   6.345  2.9163  1.6864 -0.5682
37251SOL    HW217591  11.253  11.911   6.338 -1.9932 -0.1246 -0.6682
37252SOL     OW17592   3.611   8.238   8.733  0.2347 -0.0361  0.6318
37252SOL    HW117593   3.666   8.199   8.801 -0.0031 -2.6956 -0.5489
37252SOL    HW217594   3.525   8.246   8.773  0.8347  1.6800  1.6665
37253SOL     OW17595   1.634   3.084   2.296 -0.3019  0.6479 -0.0265
37253SOL    HW117596   1.706   3.040   2.342 -0.3890  1.6476  1.1034
37253SOL    HW217597   1.555   3.054   2.342 -0.5434  0.2812 -0.6697
37254SOL     OW17598  10.747   1.417   9.727 -0.5298  0.0035 -0.3127
37254SOL    HW117599  10.806   1.488   9.753 -0.1322 -0.4461  0.0475
37254SOL    HW217600  10.744   1.360   9.804  0.9229 -1.5396 -1.3215
37255SOL     OW17601  10.653   7.060   1.061 -0.1319  0.0120 -0.0781
37255SOL    HW117602  10.632   6.995   0.994  0.6554  0.4221 -0.7317
37255SOL    HW217603  10.720   7.018   1.115  0.2927  0.2274 -0.4313
37256SOL     OW17604   0.949   4.937   4.526 -0.2104 -0.1222  0.0361
37256SOL    HW117605   1.028   4.980   4.494  1.3640 -1.2506  2.1990
37256SOL    HW217606   0.900   5.006   4.569  1.8776 -0.1659  2.7118
37257SOL     OW17607   0.587   1.937   2.731 -0.3572 -0.6429 -0.6047
37257SOL    HW117608   0.679   1.909   2.729  0.4123  1.5968  0.2971
37257SOL    HW217609   0.552   1.897   2.811  0.5214  0.3467  0.3020
37258SOL     OW17610  10.302   8.740  11.999 -0.2858 -0.5492 -0.1312
37258SOL    HW117611  10.293   8.661  11.946  2.9388 -1.3105  0.2753
37258SOL    HW217612  10.352   8.800  11.945  0.3092 -0.1194  0.8706
37259SOL     OW17613   9.674   1.971   6.213 -0.1295  0.4870  0.1803
37259SOL    HW117614   9.580   1.971   6.192 -0.0306  0.1535 -0.2924
37259SOL    HW217615   9.692   1.880   6.239 -0.1875  0.8258  1.4604
37260SOL     OW17616   8.395   9.458   4.294  0.5234 -0.0346  0.4334
37260SOL    HW117617   8.366   9.511   4.220  0.6378 -0.9109 -0.2578
37260SOL    HW217618   8.372   9.509   4.371  0.6953  1.0509 -0.2115
37261SOL     OW17619   5.210   2.452   6.584  0.3186  0.0269  0.4414
37261SOL    HW117620   5.138   2.448   6.521 -0.4156  0.4739  1.2307
37261SOL    HW217621   5.239   2.543   6.581 -0.6561  0.4125  1.7397
37262SOL     OW17622   3.554  11.317   0.705  0.0007 -0.0934 -0.6167
37262SOL    HW117623   3.599  11.324   0.790 -2.1822 -0.3551  0.6244
37262SOL    HW217624   3.619  11.348   0.641  1.5879  0.4495  1.1595
37263SOL     OW17625   1.312   4.026   6.085  0.0200  0.0151  0.1425
37263SOL    HW117626   1.356   3.971   6.150  2.4895 -0.9327 -2.1466
37263SOL    HW217627   1.380   4.044   6.019 -2.0361  1.8149 -1.6358
37264SOL     OW17628   3.792   7.905   1.617 -0.3396  0.2763  0.1582
37264SOL    HW117629   3.698   7.888   1.627 -0.2637 -0.2085  0.0715
37264SOL    HW217630   3.798   7.956   1.536 -0.4871 -0.1137 -0.1028
37265SOL     OW17631   4.628   8.605  10.808  0.4521  0.0099 -0.1641
37265SOL    HW117632   4.627   8.695  10.777  2.1472  0.2712  0.4460
37265SOL    HW217633   4.717   8.575  10.792 -0.0592 -1.5462 -0.2929
37266SOL     OW17634   0.494   6.641   8.042 -0.3095  0.2985  0.1887
37266SOL    HW117635   0.545   6.717   8.015 -0.2683  0.5891  1.0339
37266SOL    HW217636   0.558   6.582   8.083 -0.6344  0.6857  1.2974
37267SOL     OW17637  10.284  10.201   0.971 -0.2431 -0.1725  0.0169
37267SOL    HW117638  10.220  10.137   0.942 -1.5389  1.7296 -1.6080
37267SOL    HW217639  10.234  10.263   1.024  0.6291  0.3823  0.2174
37268SOL     OW17640   6.681   5.908   0.929 -0.0496  0.2366 -0.3769
37268SOL    HW117641   6.757   5.967   0.932 -0.0711  0.2483 -0.1010
37268SOL    HW217642   6.710   5.829   0.973 -0.2010  0.2438 -0.2660
37269SOL     OW17643   7.672   8.112   3.169  0.2187  0.6908 -0.0175
37269SOL    HW117644   7.688   8.152   3.084 -0.2608  2.2699  0.6058
37269SOL    HW217645   7.577   8.099   3.172  0.0326  2.0552  0.8449
37270SOL     OW17646  11.937   5.025   5.426 -0.3236  0.6462 -0.6471
37270SOL    HW117647  12.008   5.090   5.424 -0.4916  1.0368  2.1150
37270SOL    HW217648  11.981   4.943   5.450 -0.8089  1.1021  2.1621
37271SOL     OW17649   9.568   5.914   4.436 -0.1966  0.0671  0.3986
37271SOL    HW117650   9.532   5.833   4.399 -1.6796  0.2296  1.4207
37271SOL    HW217651   9.647   5.931   4.384 -1.6593 -0.2059 -2.0623
37272SOL     OW17652   7.527   4.482   6.537  0.2155  0.3265 -0.4042
37272SOL    HW117653   7.499   4.547   6.472  1.7912  0.8890 -0.5444
37272SOL    HW217654   7.545   4.404   6.485  0.4316  0.4458 -0.5114
37273SOL     OW17655   2.426   1.391   8.800 -0.3091  0.2241  0.1051
37273SOL    HW117656   2.414   1.374   8.893  0.9248 -1.0295  0.0757
37273SOL    HW217657   2.379   1.319   8.757  2.9529 -1.9805 -0.0859
37274SOL     OW17658   7.002   2.011   6.505  0.2328 -0.0136  0.0379
37274SOL    HW117659   6.992   2.104   6.484 -0.5415  0.1077  0.8825
37274SOL    HW217660   7.048   1.974   6.430  0.1449  0.9649 -0.5097
37275SOL     OW17661   1.936   4.024  11.770  0.2379 -0.3932 -0.3127
37275SOL    HW117662   1.864   3.964  11.751  0.0751 -1.7285  3.6708
37275SOL    HW217663   1.899   4.111  11.757 -2.1362 -1.0393  1.4213
37276SOL     OW17664  10.934  11.946   1.518 -0.4318 -0.0448 -0.3794
37276SOL    HW117665  10.890  11.979   1.596  0.3818  0.0341  0.0501
37276SOL    HW217666  11.005  12.008   1.502 -1.0003  0.3395 -1.5936
37277SOL     OW17667  11.124   2.223   1.438  0.2450 -0.3602 -0.0259
37277SOL    HW117668  11.139   2.317   1.447  0.9397 -0.5534  0.9198
37277SOL    HW217669  11.029   2.213   1.446  0.0198  0.3777 -1.3962
37278SOL     OW17670   3.422   5.640   0.675  0.8267 -0.2701 -0.1250
37278SOL    HW117671   3.507   5.601   0.691  0.5913 -0.4825  0.6733
37278SOL    HW217672   3.366   5.605   0.745  0.6731  1.6966  0.7878
37279SOL     OW17673   9.351   3.196   4.428 -0.2292  0.0910 -0.3442
37279SOL    HW117674   9.383   3.261   4.366 -0.2860  0.5954  0.1387
37279SOL    HW217675   9.274   3.237   4.468  0.1233  0.0077  0.4519
37280SOL     OW17676   2.943   3.193   0.270  0.2445 -0.4329  0.2187
37280SOL    HW117677   2.990   3.189   0.187  0.1888 -1.2439  0.2119
37280SOL    HW217678   2.971   3.275   0.310  2.5771 -1.3884  0.7343
37281SOL     OW17679   0.781   6.055   7.918  0.0333  0.0076 -0.0810
37281SOL    HW117680   0.701   6.019   7.955  0.7507  0.6891  2.2873
37281SOL    HW217681   0.839   5.980   7.908 -0.9532 -0.5479 -2.1499
37282SOL     OW17682  11.617  11.737   7.624 -0.3944 -1.3678 -0.2023
37282SOL    HW117683  11.522  11.748   7.631 -0.2391  0.6898 -0.8461
37282SOL    HW217684  11.636  11.749   7.531  0.4746 -2.0237 -0.1228
37283SOL     OW17685   7.919  10.759   1.087 -0.1974  0.4712  0.2081
37283SOL    HW117686   7.906  10.671   1.053 -2.7546  0.3526  1.2678
37283SOL    HW217687   7.973  10.803   1.021  0.6451 -1.6692 -0.6219
37284SOL     OW17688   0.038   6.430   7.426  0.1671 -0.6096 -0.2019
37284SOL    HW117689   0.092   6.351   7.423 -0.8410 -1.2743 -2.2151
37284SOL    HW217690  -0.016   6.419   7.505  0.1710 -1.8495 -0.3538
37285SOL     OW17691  12.088   7.885   0.122 -0.4677  0.3717  1.0906
37285SOL    HW117692  12.123   7.974   0.114  2.3877 -0.7567 -0.2719
37285SOL    HW217693  12.111   7.858   0.211  2.0977 -0.2062  0.3524
37286SOL     OW17694  11.064   9.464  10.461  0.2651 -0.3576  0.1509
37286SOL    HW117695  11.081   9.380  10.503 -0.6336 -0.8276 -0.3827
37286SOL    HW217696  11.134   9.474  10.396 -0.6383 -1.5885 -1.0645
37287SOL     OW17697   7.864   2.295  11.743  0.0383 -0.0060 -0.0929
37287SOL    HW117698   7.926   2.323  11.675  0.9116  0.6232  0.9373
37287SOL    HW217699   7.916   2.291  11.823 -1.0789 -0.2648  0.6387
37288SOL     OW17700   9.065  11.085   3.568  0.1132 -0.4913  0.3698
37288SOL    HW117701   9.092  11.054   3.654 -1.0041  1.2938  1.4160
37288SOL    HW217702   9.114  11.166   3.555 -0.5549 -0.1612 -0.1752
37289SOL     OW17703   7.139   2.901   2.260  0.4057  0.0386 -0.7391
37289SOL    HW117704   7.169   2.931   2.174  0.2346  0.4985 -0.6424
37289SOL    HW217705   7.149   2.977   2.317  0.9656 -0.3983 -0.2340
37290SOL     OW17706  10.109   8.915   8.225 -0.2139  0.4559  0.0376
37290SOL    HW117707  10.180   8.885   8.168 -1.6809 -0.3176 -1.4811
37290SOL    HW217708  10.032   8.865   8.196 -1.6702  2.1703  0.7519
37291SOL     OW17709  10.639   5.965  12.100  0.7714 -0.1096  0.4882
37291SOL    HW117710  10.685   6.040  12.062  0.8856 -0.0945  0.6554
37291SOL    HW217711  10.608   5.996  12.185 -0.4086  0.1924 -0.0272
37292SOL     OW17712   2.543   9.265   7.237  0.8279 -0.4954 -0.4498
37292SOL    HW117713   2.604   9.305   7.300 -0.5970  0.1276  0.5884
37292SOL    HW217714   2.509   9.340   7.187  1.2379 -0.8853 -1.3205
37293SOL     OW17715  10.578   0.061   7.944 -0.6925 -0.6852  0.4502
37293SOL    HW117716  10.543   0.138   7.900 -0.2199  0.7673  2.4608
37293SOL    HW217717  10.590  -0.003   7.875 -1.8392  0.7737 -1.1763
37294SOL     OW17718   8.826   6.184   7.324 -0.1361 -0.1350 -0.1417
37294SOL    HW117719   8.781   6.122   7.381  1.0202 -0.5592  0.3324
37294SOL    HW217720   8.877   6.239   7.383 -0.9168  1.1054 -0.5739
37295SOL     OW17721   5.279   2.174   4.530 -0.8865 -0.1454  0.3047
37295SOL    HW117722   5.187   2.162   4.508 -0.7870  0.2050 -0.3341
37295SOL    HW217723   5.327   2.139   4.454 -0.4974 -0.2270  0.5839
37296SOL     OW17724  11.786   1.893   1.458  0.0579  1.1133  0.0639
37296SOL    HW117725  11.696   1.900   1.427 -0.0089  0.4160  0.0719
37296SOL    HW217726  11.790   1.807   1.500  0.8038  1.0178 -0.1882
37297SOL     OW17727   6.455   3.347  11.669  0.3361 -0.2055 -0.1406
37297SOL    HW117728   6.481   3.427  11.715 -0.1975  0.2538 -0.6368
37297SOL    HW217729   6.534   3.293  11.670  0.2664 -0.3328  1.5726
37298SOL     OW17730  11.143  10.669   1.483  0.0501  0.1961 -0.3228
37298SOL    HW117731  11.125  10.636   1.571  0.1756 -0.4318 -0.5250
37298SOL    HW217732  11.236  10.649   1.468  0.0591  0.4021 -0.5548
37299SOL     OW17733   1.434   9.519   0.522  0.2150 -0.0880  0.8158
37299SOL    HW117734   1.378   9.590   0.553  0.8631  0.9595 -0.3339
37299SOL    HW217735   1.512   9.525   0.577  0.5072  0.4715  0.3541
37300SOL     OW17736  10.824   0.745  10.382  0.0387 -0.0803 -0.2703
37300SOL    HW117737  10.742   0.748  10.432  0.5254 -0.6495  0.5845
37300SOL    HW217738  10.859   0.658  10.400  0.6576  0.0232 -0.9318
37301SOL     OW17739   9.391  11.281   9.204  0.1343  0.0833 -0.2133
37301SOL    HW117740   9.384  11.307   9.112  0.4575 -0.5854 -0.4341
37301SOL    HW217741   9.355  11.193   9.207 -1.0322  0.5604  0.5436
37302SOL     OW17742   6.733  10.579   0.010  0.9280  0.1968  0.2447
37302SOL    HW117743   6.773  10.553   0.093 -0.1189 -0.6517  0.5003
37302SOL    HW217744   6.654  10.525   0.003  0.6499  0.7293 -0.9875
37303SOL     OW17745   3.504   5.085   4.821  0.1844 -0.3015  0.1879
37303SOL    HW117746   3.558   5.010   4.798  1.0461  0.4102 -0.2108
37303SOL    HW217747   3.418   5.049   4.841 -0.4097 -1.1218 -3.2283
37304SOL     OW17748   0.444   4.801   7.291  0.3304  0.9561  0.1928
37304SOL    HW117749   0.455   4.724   7.348  0.2107  0.5649 -0.3024
37304SOL    HW217750   0.370   4.779   7.235 -0.7790  2.1201  1.1369
37305SOL     OW17751   6.318   8.949   2.364  0.5504  0.2487  0.3285
37305SOL    HW117752   6.365   8.936   2.447  0.7498  4.0907  0.9778
37305SOL    HW217753   6.368   9.016   2.318 -0.7959 -0.1885 -1.9289
37306SOL     OW17754   5.988   8.831  11.940  0.2366 -0.0728 -0.0431
37306SOL    HW117755   6.051   8.902  11.930 -0.6748  0.8729  0.7363
37306SOL    HW217756   6.036   8.763  11.988  0.7110  0.5843  0.4342
37307SOL     OW17757   5.462   5.709   2.932  0.2573 -0.0296  0.4611
37307SOL    HW117758   5.423   5.630   2.895  0.3823  0.0014  0.2623
37307SOL    HW217759   5.507   5.678   3.011 -2.5994  0.3632  2.3802
37308SOL     OW17760  11.514   7.456   7.782  0.0841 -0.2342  0.3971
37308SOL    HW117761  11.606   7.447   7.760 -0.3315 -0.9693 -1.2383
37308SOL    HW217762  11.505   7.545   7.816  1.5406 -0.5003  1.5593
37309SOL     OW17763   5.612   4.038   4.251  0.2037 -0.7720 -0.2202
37309SOL    HW117764   5.694   4.041   4.201  0.0422 -3.7759 -0.9114
37309SOL    HW217765   5.636   4.062   4.340  1.2184  1.1783 -0.9665
37310SOL     OW17766   0.854   8.852   6.861  0.4768 -0.5212 -0.0155
37310SOL    HW117767   0.869   8.907   6.784  3.9510 -1.9623 -0.5598
37310SOL    HW217768   0.801   8.906   6.919  2.6614  3.0072 -0.9777
37311SOL     OW17769   5.988   3.347   0.736 -0.0084  0.4682  0.1910
37311SOL    HW117770   6.070   3.384   0.706 -0.1157  1.1314  0.6874
37311SOL    HW217771   5.968   3.395   0.816 -1.1555  0.7028 -0.2197
37312SOL     OW17772   1.450   3.418   4.116  0.6263  0.1448 -0.4879
37312SOL    HW117773   1.428   3.332   4.078  1.5823 -0.1629 -0.3756
37312SOL    HW217774   1.535   3.404   4.159 -0.9290  0.1010  2.9267
37313SOL     OW17775   8.280   9.444   0.314 -0.5953 -0.2591  0.2897
37313SOL    HW117776   8.241   9.464   0.229 -1.0225 -1.4246  0.2008
37313SOL    HW217777   8.357   9.392   0.293  0.1984  0.7757  0.5503
37314SOL     OW17778  12.090   7.643  11.815  0.2612  0.8528 -0.5588
37314SOL    HW117779  12.144   7.722  11.811 -0.6921  1.4611 -2.0168
37314SOL    HW217780  12.153   7.573  11.835  1.0450  2.0027  1.4022
37315SOL     OW17781   5.628   3.915   4.674 -0.2042  0.3551 -0.7090
37315SOL    HW117782   5.628   3.824   4.646 -1.6926 -0.0620  0.5179
37315SOL    HW217783   5.604   3.912   4.766  2.4018  1.8150  0.1317
37316SOL     OW17784   8.433   0.166   3.578  0.4038 -0.1856  0.7165
37316SOL    HW117785   8.356   0.138   3.629  0.8518 -0.2702  1.3631
37316SOL    HW217786   8.428   0.262   3.579 -1.7809 -0.1293 -2.4950
37317SOL     OW17787   4.221  12.286  10.321 -0.2982  0.2791  0.6369
37317SOL    HW117788   4.262  12.218  10.268  0.3513  0.2876  1.1083
37317SOL    HW217789   4.293  12.347  10.340 -0.8901  1.1682  0.1115
37318SOL     OW17790   7.998   4.349   5.398 -0.4644 -0.0511  0.2747
37318SOL    HW117791   7.906   4.364   5.374 -0.2121  2.7055  0.6971
37318SOL    HW217792   7.995   4.334   5.493 -0.6787 -3.0558 -0.0948
37319SOL     OW17793   7.038   0.924   1.031  0.0870 -0.0591 -0.4269
37319SOL    HW117794   6.976   0.964   1.091 -1.0192  1.6621 -2.5706
37319SOL    HW217795   7.108   0.988   1.022  1.4526 -1.3248  0.7823
37320SOL     OW17796   0.650   5.334   3.167  0.7375  0.3996 -0.7189
37320SOL    HW117797   0.575   5.292   3.125  0.8437 -0.9589  0.3450
37320SOL    HW217798   0.675   5.404   3.108  1.2072 -1.6889 -3.1562
37321SOL     OW17799   3.912   4.980   0.760  0.2323  0.1349  0.2932
37321SOL    HW117800   3.877   4.936   0.682  4.3057  1.1326 -2.4326
37321SOL    HW217801   3.849   5.050   0.779 -1.5722 -0.9978 -1.1843
37322SOL     OW17802   6.491   3.546   7.112  0.0872 -0.3273 -0.0220
37322SOL    HW117803   6.428   3.539   7.183  1.5513  0.2882  1.3874
37322SOL    HW217804   6.484   3.462   7.065  0.6055 -1.6558  2.1613
37323SOL     OW17805   6.147   3.442  10.441  0.2672 -0.3782  0.2150
37323SOL    HW117806   6.101   3.478  10.517  2.2518  0.1254  1.2612
37323SOL    HW217807   6.093   3.368  10.414 -1.5880  0.6939  0.7839
37324SOL     OW17808   1.304   3.956   6.852  0.2483  0.1266  0.1914
37324SOL    HW117809   1.383   3.904   6.840 -0.5886 -1.0154 -0.6060
37324SOL    HW217810   1.248   3.933   6.778 -1.1267  0.3479  1.1176
37325SOL     OW17811   0.615   1.742   7.586  0.6875  0.0333 -0.0291
37325SOL    HW117812   0.523   1.762   7.570  0.2822 -2.2792 -1.0805
37325SOL    HW217813   0.617   1.715   7.678  0.8336  2.3646  0.7176
37326SOL     OW17814   3.812   8.911   9.491  0.4006  0.4645  0.6388
37326SOL    HW117815   3.818   8.995   9.446  1.9179  0.4276  0.7175
37326SOL    HW217816   3.810   8.846   9.421  1.7427  0.4597  0.5808
37327SOL     OW17817  11.455   9.971   0.733 -0.2268  0.0562  0.2784
37327SOL    HW117818  11.399   9.893   0.738  1.3188 -1.1177  0.2104
37327SOL    HW217819  11.435  10.020   0.813 -0.5838 -0.8814  0.7805
37328SOL     OW17820   6.893   9.374   8.887  0.6744  0.1047 -0.4867
37328SOL    HW117821   6.903   9.325   8.806 -0.4109 -0.8879 -0.0504
37328SOL    HW217822   6.931   9.460   8.868  0.9322 -0.2920 -1.8590
37329SOL     OW17823   7.581   7.224   5.475  0.5073  0.5179  0.4170
37329SOL    HW117824   7.498   7.190   5.508 -0.3109 -0.7461 -2.5220
37329SOL    HW217825   7.556   7.279   5.401  2.2487  1.3770  0.4285
37330SOL     OW17826   2.997   4.733   1.213  0.5234 -0.6494 -0.2176
37330SOL    HW117827   3.027   4.802   1.271 -1.4410 -0.6684  0.9127
37330SOL    HW217828   3.072   4.714   1.157  2.0494  0.3104  1.4044
37331SOL     OW17829   5.305   5.814   3.977 -0.3413 -0.5022  0.4495
37331SOL    HW117830   5.224   5.780   3.940 -1.0573  0.4223  1.1080
37331SOL    HW217831   5.361   5.829   3.901 -0.7362 -1.2528 -0.0067
37332SOL     OW17832  10.818   5.230   0.150 -0.6907  0.4470  0.2413
37332SOL    HW117833  10.813   5.237   0.246 -1.4842 -0.8920  0.3132
37332SOL    HW217834  10.907   5.201   0.133 -0.8424 -0.2755  0.6458
37333SOL     OW17835   1.183   3.204   6.487 -0.0547  0.0955 -0.2417
37333SOL    HW117836   1.125   3.279   6.471  0.1293 -0.2354 -2.9365
37333SOL    HW217837   1.247   3.236   6.550  0.2160  2.3750 -1.5639
37334SOL     OW17838   2.459   0.314   0.713 -0.5929  0.5113 -0.8599
37334SOL    HW117839   2.459   0.285   0.622 -1.8071  0.2643 -0.8019
37334SOL    HW217840   2.541   0.360   0.724 -0.5939  0.8606 -2.1839
37335SOL     OW17841   1.709   3.014   3.791 -0.3666  0.2705 -1.1568
37335SOL    HW117842   1.615   3.033   3.790 -0.3995  0.1095 -1.6564
37335SOL    HW217843   1.739   3.038   3.703 -0.2160 -0.9922 -1.4718
37336SOL     OW17844   8.199   6.676   8.614 -0.4213 -0.1210 -0.0422
37336SOL    HW117845   8.217   6.755   8.563  1.1016 -0.7088 -0.4682
37336SOL    HW217846   8.261   6.611   8.580 -0.9307 -1.1911  1.0151
37337SOL     OW17847   5.359   5.207   7.076 -0.1752 -0.1960 -0.6237
37337SOL    HW117848   5.412   5.249   7.008  0.7540 -1.7961 -0.9454
37337SOL    HW217849   5.270   5.239   7.061  0.2951  0.7500 -1.5304
37338SOL     OW17850   1.229  11.291   8.097 -0.0132  0.0670 -0.2634
37338SOL    HW117851   1.286  11.361   8.064  0.5972  0.3479  1.2806
37338SOL    HW217852   1.251  11.215   8.043  1.3299  0.3662 -0.1812
37339SOL     OW17853   0.032  11.345   8.417  0.1350  0.1827 -0.0955
37339SOL    HW117854   0.009  11.435   8.395  2.0468  1.3455  2.1414
37339SOL    HW217855   0.086  11.316   8.343  1.4109  1.7716  0.1302
37340SOL     OW17856  10.294  11.891   9.370 -0.0769  0.4967 -0.0901
37340SOL    HW117857  10.299  11.966   9.312 -0.8126  0.8197  0.2617
37340SOL    HW217858  10.323  11.817   9.315 -0.0558  0.9101 -0.6471
37341SOL     OW17859   2.868   0.428   5.258 -0.5451  0.1724 -0.4888
37341SOL    HW117860   2.887   0.405   5.349  2.0130  1.3323 -0.6279
37341SOL    HW217861   2.906   0.357   5.206  0.6533  0.9368 -0.6968
37342SOL     OW17862   2.856   7.553   2.716 -0.3088  0.1380  0.1702
37342SOL    HW117863   2.882   7.633   2.763  0.1270  2.2677 -3.3451
37342SOL    HW217864   2.915   7.485   2.750  0.8487  1.8252  1.6968
37343SOL     OW17865   6.674   8.146   1.722 -0.2575  0.0159  0.4188
37343SOL    HW117866   6.669   8.127   1.816 -0.2789  1.5550  0.7498
37343SOL    HW217867   6.637   8.234   1.713  0.6483  0.2900 -0.9036
37344SOL     OW17868   2.275   0.217   5.396 -0.4533  0.0956  0.5557
37344SOL    HW117869   2.239   0.271   5.466 -0.6843 -1.1945  1.4685
37344SOL    HW217870   2.356   0.261   5.371 -0.4291  0.6428  1.5469
37345SOL     OW17871  11.392  11.087   5.957  0.6238 -0.5921 -0.1591
37345SOL    HW117872  11.391  11.070   6.051 -0.0712 -2.0689 -0.4092
37345SOL    HW217873  11.403  11.001   5.917 -2.4359 -0.4820 -1.5212
37346SOL     OW17874   1.492   0.985   5.997  0.4233  0.3056  0.7636
37346SOL    HW117875   1.524   0.936   5.922 -0.8655  1.8155 -0.8886
37346SOL    HW217876   1.569   1.000   6.051  1.3656 -0.9767 -0.1557
37347SOL     OW17877   6.365  10.041   0.373  0.4187 -0.2461 -0.2329
37347SOL    HW117878   6.442   9.989   0.396 -0.3729 -1.1592  0.4067
37347SOL    HW217879   6.340  10.011   0.286  1.2570  0.6422 -0.8036
37348SOL     OW17880   2.709  11.647   7.780 -0.0705  0.1734 -0.5044
37348SOL    HW117881   2.769  11.704   7.733 -0.0162 -0.7630 -1.5939
37348SOL    HW217882   2.639  11.628   7.717 -1.0715  0.5330  0.4492
37349SOL     OW17883   8.754  12.052   1.005  0.4865 -0.1677  0.5237
37349SOL    HW117884   8.718  12.123   0.953  0.9402 -1.5470 -1.7952
37349SOL    HW217885   8.689  11.982   1.000  0.8229 -0.5578  1.3094
37350SOL     OW17886   6.008   5.372   0.824 -0.2266 -0.4864  0.2696
37350SOL    HW117887   5.926   5.411   0.852  0.0389 -0.3091  0.7972
37350SOL    HW217888   5.983   5.312   0.754 -0.7761 -0.2634  0.2745
37351SOL     OW17889   7.093  10.299   1.730 -0.4683  0.2609 -0.4714
37351SOL    HW117890   7.126  10.321   1.817 -0.8386  0.3628 -0.3542
37351SOL    HW217891   7.091  10.203   1.728  0.7108  0.2268 -0.8151
37352SOL     OW17892   0.191   5.418   2.798  0.2632  0.2285  0.2635
37352SOL    HW117893   0.126   5.477   2.762  1.2324  0.6284 -0.8773
37352SOL    HW217894   0.155   5.330   2.783 -0.5325  0.4605  0.7193
37353SOL     OW17895  11.640   5.953   0.024  0.2373  0.0112 -0.1230
37353SOL    HW117896  11.637   6.011  -0.052  1.7120  0.4183  0.1017
37353SOL    HW217897  11.642   6.012   0.100  0.1043 -0.3724  0.1860
37354SOL     OW17898   8.659  11.587   8.175 -0.1286  0.3469  0.4151
37354SOL    HW117899   8.680  11.680   8.164 -3.0544  1.1365  0.6599
37354SOL    HW217900   8.661  11.573   8.269  2.3350 -0.4566  0.3128
37355SOL     OW17901   9.403   3.158   2.516  0.8703  0.0754 -0.3165
37355SOL    HW117902   9.434   3.114   2.595 -0.4196 -0.3316 -0.0177
37355SOL    HW217903   9.422   3.250   2.531 -0.4734  0.1594  1.0223
37356SOL     OW17904   6.302   6.682   0.446 -0.3667 -0.6482 -0.0933
37356SOL    HW117905   6.364   6.615   0.476  0.4780 -0.5013 -1.3909
37356SOL    HW217906   6.262   6.716   0.525  2.1162  0.1020  0.9257
37357SOL     OW17907   5.838   7.613   3.315  0.2089  0.2223  0.5523
37357SOL    HW117908   5.782   7.584   3.243  1.0475 -1.5262  0.5620
37357SOL    HW217909   5.912   7.554   3.314  0.7934  0.8586  2.1722
37358SOL     OW17910   9.535   3.299   1.055 -0.4185  0.4552 -0.3085
37358SOL    HW117911   9.512   3.207   1.042 -0.8472  0.3637  0.9860
37358SOL    HW217912   9.629   3.302   1.037 -0.1212 -0.5188  0.8621
37359SOL     OW17913   9.710   0.109   3.551  0.1436 -0.2721  0.2154
37359SOL    HW117914   9.647   0.182   3.554 -0.6245 -0.7175 -2.6257
37359SOL    HW217915   9.663   0.036   3.592  0.6971  0.5712  2.5275
37360SOL     OW17916   4.372   5.762   3.039 -0.3504  0.4577  0.4825
37360SOL    HW117917   4.442   5.785   2.977 -0.2556  1.1717  0.8434
37360SOL    HW217918   4.378   5.830   3.107  0.2243 -0.8872  1.8292
37361SOL     OW17919  11.251   2.437   3.194 -0.1014  0.1350 -0.4733
37361SOL    HW117920  11.209   2.479   3.118 -0.0249 -2.0612 -1.8371
37361SOL    HW217921  11.343   2.427   3.168  0.1713  0.3579  0.3842
37362SOL     OW17922   7.267   7.199   0.247 -0.2899 -0.0590 -0.0151
37362SOL    HW117923   7.287   7.178   0.156 -0.0909 -1.8189  0.4025
37362SOL    HW217924   7.353   7.213   0.287 -0.3911  1.0985 -0.1413
37363SOL     OW17925   9.767   0.211  11.604 -0.3743  0.0325 -0.5481
37363SOL    HW117926   9.753   0.254  11.688 -3.1208  0.3479 -1.0765
37363SOL    HW217927   9.781   0.284  11.543  2.1829 -0.2074 -0.3866
37364SOL     OW17928   6.768   6.843   5.138 -0.6277 -0.4180  0.1065
37364SOL    HW117929   6.710   6.841   5.214 -0.0206  1.9047  0.7063
37364SOL    HW217930   6.714   6.880   5.068 -0.2853  0.4860  0.3068
37365SOL     OW17931   6.556  11.142   2.899 -0.2028 -0.2527  0.1882
37365SOL    HW117932   6.472  11.129   2.942 -0.2167  1.2668  0.7089
37365SOL    HW217933   6.610  11.186   2.966  0.9848 -1.1492 -0.1530
37366SOL     OW17934   6.063   7.440   2.179 -0.0170  0.0065  0.6736
37366SOL    HW117935   5.979   7.407   2.147  0.3629 -0.6619  0.3454
37366SOL    HW217936   6.040   7.499   2.251 -0.6557 -1.9663  2.1531
37367SOL     OW17937   9.305   5.025   7.059 -0.4970 -0.2911  0.3903
37367SOL    HW117938   9.348   5.039   7.144 -0.0927  0.7701  0.0255
37367SOL    HW217939   9.233   5.089   7.057 -1.0410 -0.8978  0.2867
37368SOL     OW17940  11.773   4.786   0.907 -0.1511 -0.0028  0.2971
37368SOL    HW117941  11.774   4.810   1.000  1.2673 -0.7734  0.5174
37368SOL    HW217942  11.708   4.716   0.902 -0.6861  0.4667  0.5868
37369SOL     OW17943   1.919   8.468   1.517  0.4479 -0.4440 -0.0306
37369SOL    HW117944   1.897   8.386   1.562 -0.5834 -1.6042 -2.4265
37369SOL    HW217945   2.005   8.452   1.478  0.9190  0.1985  0.7184
37370SOL     OW17946   1.416  12.180   8.391  0.0418  0.4716  0.3878
37370SOL    HW117947   1.333  12.228   8.397 -0.5836 -0.4545 -0.5625
37370SOL    HW217948   1.471  12.221   8.457 -1.3778  0.6913  1.4920
37371SOL     OW17949   0.962   1.837   0.962  0.3979  0.0685  0.2180
37371SOL    HW117950   1.039   1.889   0.939 -0.2809  0.9227 -0.1684
37371SOL    HW217951   0.896   1.901   0.987 -0.2497 -0.6464  0.3868
37372SOL     OW17952   5.415  10.977   0.748 -0.2031  0.1364  0.5401
37372SOL    HW117953   5.399  11.069   0.768  2.6126  0.8380  0.0011
37372SOL    HW217954   5.438  10.938   0.832 -0.2311  0.2122  0.5834
37373SOL     OW17955   5.787   5.367   6.188  0.1830 -0.4581 -0.6204
37373SOL    HW117956   5.827   5.376   6.275 -4.1650 -0.3993  1.6232
37373SOL    HW217957   5.789   5.455   6.151 -1.5834  0.5023  1.3563
37374SOL     OW17958   4.944   8.145   2.559  0.9858  0.5504  0.3625
37374SOL    HW117959   4.901   8.203   2.622  1.9994  1.3360  0.3585
37374SOL    HW217960   4.922   8.182   2.473 -1.6515 -1.3734  0.0844
37375SOL     OW17961   5.088  10.462   2.767 -0.2186  0.0308 -0.4443
37375SOL    HW117962   5.025  10.426   2.705 -1.0310  1.1109 -0.2786
37375SOL    HW217963   5.159  10.497   2.712 -1.4106  1.9140 -0.9014
37376SOL     OW17964   6.183   9.285   6.422 -0.2936 -0.1313  0.3667
37376SOL    HW117965   6.108   9.262   6.367 -0.6740  0.2047  0.7393
37376SOL    HW217966   6.245   9.325   6.361  1.1582 -3.5976 -0.6922
37377SOL     OW17967   0.051  12.027   9.912  0.6438 -0.3449 -0.3445
37377SOL    HW117968   0.125  11.996   9.860  0.5565 -1.4099  0.1589
37377SOL    HW217969   0.088  12.045   9.998  0.4759 -0.0720 -0.3262
37378SOL     OW17970  12.297   1.585   0.538  0.0276  0.0844 -0.9531
37378SOL    HW117971  12.278   1.664   0.487  0.1822 -0.0064 -1.1527
37378SOL    HW217972  12.349   1.530   0.479  1.0893  0.4052 -0.3393
37379SOL     OW17973   8.005   3.745  10.986 -0.2525 -0.4630 -0.7845
37379SOL    HW117974   7.972   3.663  10.949  1.1472 -2.3131  1.7222
37379SOL    HW217975   7.939   3.770  11.051  0.5342 -1.1202  0.3094
37380SOL     OW17976   3.096  12.326   0.151 -0.3132 -0.6573 -0.3170
37380SOL    HW117977   3.141  12.350   0.071  0.5006  0.3035  0.4054
37380SOL    HW217978   3.120  12.234   0.166  0.4293 -0.5125 -0.5846
37381SOL     OW17979   7.253   4.001   3.655  0.3207 -0.2652  0.3958
37381SOL    HW117980   7.170   4.029   3.693 -0.0074 -1.2261  0.4150
37381SOL    HW217981   7.228   3.934   3.591  1.1324 -1.1083  0.9389
37382SOL     OW17982   3.876   4.984   6.463 -0.2463  0.5999 -0.1509
37382SOL    HW117983   3.844   4.965   6.374 -0.0088 -0.5711 -0.0116
37382SOL    HW217984   3.964   4.948   6.464 -0.3365  0.3951  0.6344
37383SOL     OW17985   9.632   7.247   1.057  0.1154  0.1379  0.3451
37383SOL    HW117986   9.677   7.300   0.992 -0.4898  0.1874 -0.0447
37383SOL    HW217987   9.545   7.232   1.019 -0.2042  0.0744  1.0945
37384SOL     OW17988   2.274  11.840  10.545 -0.0242 -0.1236  0.1810
37384SOL    HW117989   2.297  11.837  10.638  0.4682 -2.0771  0.0516
37384SOL    HW217990   2.281  11.932  10.521  0.6389  0.3070  1.8855
37385SOL     OW17991   8.319  10.426   2.474 -0.0386  0.3822 -0.1477
37385SOL    HW117992   8.394  10.367   2.466 -1.0259 -1.0139  0.4812
37385SOL    HW217993   8.348  10.507   2.431  1.3288 -0.5700 -1.1321
37386SOL     OW17994   8.178  11.006   7.170  0.3623  0.0545 -0.1438
37386SOL    HW117995   8.182  11.094   7.132  0.0443  0.3857  0.5642
37386SOL    HW217996   8.238  10.954   7.117  0.2571  0.6044 -0.8138
37387SOL     OW17997  10.736   5.391  11.334  0.1757 -0.0788  0.0773
37387SOL    HW117998  10.821   5.434  11.318  0.8525 -1.5856 -0.5641
37387SOL    HW217999  10.747   5.348  11.419 -0.6524  1.3339  0.9270
37388SOL     OW18000   8.995   2.536   1.131 -0.1495  0.3731 -0.8084
37388SOL    HW118001   8.938   2.603   1.168 -0.9654 -0.2684 -0.8835
37388SOL    HW218002   8.992   2.465   1.195  1.6347  0.8401 -0.1442
37389SOL     OW18003  10.067   4.364  11.131  0.6420 -0.3432 -0.4156
37389SOL    HW118004  10.025   4.311  11.062  0.3715 -1.6372  0.7030
37389SOL    HW218005  10.141   4.311  11.160  1.3727  0.6586 -0.3928
37390SOL     OW18006   6.086  11.815   0.166  0.3967  0.4894  0.7846
37390SOL    HW118007   6.031  11.741   0.192  1.8804 -1.7117 -1.7980
37390SOL    HW218008   6.175  11.780   0.162  0.9419  1.8142 -2.2533
37391SOL     OW18009  10.011   9.974   2.750 -0.7135  0.5241  0.0806
37391SOL    HW118010  10.028  10.011   2.837 -2.0148  0.5793  0.3288
37391SOL    HW218011   9.961  10.041   2.705 -0.9022  0.0889 -0.3683
37392SOL     OW18012   7.098   1.034   6.521  0.5338 -0.1695  0.1584
37392SOL    HW118013   7.180   1.083   6.521  0.8674 -0.6416 -1.8347
37392SOL    HW218014   7.067   1.040   6.430  0.0147 -2.6800  0.1080
37393SOL     OW18015   6.083   4.962  11.884  0.1654 -0.0049  0.1645
37393SOL    HW118016   6.120   5.041  11.846 -0.1945 -0.1598 -0.5263
37393SOL    HW218017   6.145   4.936  11.952  0.9325  0.1664 -0.4587
37394SOL     OW18018   2.214   2.522   5.080  0.1835 -0.0778 -0.4382
37394SOL    HW118019   2.164   2.592   5.037  1.2758  0.2181 -1.3107
37394SOL    HW218020   2.303   2.557   5.084  0.6943 -1.3063 -0.6286
37395SOL     OW18021   5.566   5.807  11.393  0.3232 -0.5059  0.1031
37395SOL    HW118022   5.636   5.869  11.374  0.2156 -0.3316  0.2682
37395SOL    HW218023   5.610   5.725  11.413  0.5695 -0.0035  1.8050
37396SOL     OW18024   5.041   7.777   1.638  0.1219  0.1497 -0.3633
37396SOL    HW118025   5.101   7.713   1.600  1.0011  0.1024  1.0291
37396SOL    HW218026   5.015   7.738   1.722 -1.0520  0.6465 -0.4818
37397SOL     OW18027   0.619   5.533   2.944  0.4647 -0.7445  0.0889
37397SOL    HW118028   0.535   5.529   2.989 -0.1894 -2.0160 -1.1389
37397SOL    HW218029   0.596   5.537   2.851  1.7326 -2.4867 -0.3558
37398SOL     OW18030  12.241   8.757   7.796  0.4501  0.5902  0.8571
37398SOL    HW118031  12.335   8.751   7.779  0.2414 -0.2046 -0.1337
37398SOL    HW218032  12.229   8.844   7.834  1.0383  2.6994 -3.2321
37399SOL     OW18033   3.656   5.807   2.469 -0.3694  0.8068 -0.8074
37399SOL    HW118034   3.586   5.862   2.432 -0.5449  1.4713  0.4614
37399SOL    HW218035   3.736   5.857   2.455  0.1375 -0.5752 -3.5465
37400SOL     OW18036   3.520  10.855   7.567 -0.2234 -0.1132 -0.0036
37400SOL    HW118037   3.442  10.884   7.614  0.0486 -0.0843  0.4373
37400SOL    HW218038   3.561  10.792   7.625 -0.2557 -0.6128 -0.5136
37401SOL     OW18039   0.619   2.579   8.055 -0.5981  0.0177  0.2667
37401SOL    HW118040   0.623   2.484   8.064 -0.2802 -0.0483 -0.4932
37401SOL    HW218041   0.604   2.611   8.144  1.9486 -0.5933  0.9979
37402SOL     OW18042   4.789   3.480  12.251 -0.2908  0.0784 -0.4361
37402SOL    HW118043   4.733   3.515  12.320  1.0764  1.4211  0.0448
37402SOL    HW218044   4.762   3.527  12.172 -0.5836 -0.0946 -0.4421
37403SOL     OW18045   4.751   5.768   4.394 -0.2994 -0.8813  0.1960
37403SOL    HW118046   4.770   5.676   4.378 -1.7802 -1.3772  1.1548
37403SOL    HW218047   4.762   5.809   4.308  0.1759 -1.9729 -0.2874
37404SOL     OW18048   9.547   9.778  11.894  0.3182  0.3710 -0.4929
37404SOL    HW118049   9.637   9.745  11.888  0.7279  1.3708 -0.0245
37404SOL    HW218050   9.535   9.830  11.814  0.3211  0.6350 -0.3210
37405SOL     OW18051  11.745   7.444   9.020 -0.2586 -0.6138  0.0323
37405SOL    HW118052  11.838   7.459   9.001 -1.0423  1.8441 -2.5936
37405SOL    HW218053  11.743   7.359   9.065  3.2183 -0.7303  0.2598
37406SOL     OW18054   3.647   0.077   6.607  0.1377  0.0745  0.0766
37406SOL    HW118055   3.733   0.058   6.644  0.3474  0.0492 -0.4112
37406SOL    HW218056   3.659   0.157   6.557 -0.1596  0.1549  0.1297
37407SOL     OW18057   4.968   6.447   6.376 -0.6165 -0.3326 -0.0471
37407SOL    HW118058   4.972   6.385   6.303  0.6062 -1.5392  0.9950
37407SOL    HW218059   4.983   6.393   6.453  1.0715  1.3502  0.8631
37408SOL     OW18060  12.181   3.899   4.579  0.9641 -0.3604 -0.5667
37408SOL    HW118061  12.268   3.914   4.542  1.8543 -1.4898  0.9476
37408SOL    HW218062  12.168   3.974   4.638  1.6638 -1.0174  0.4596
37409SOL     OW18063   4.900   1.418   6.675 -0.1993 -0.4952 -0.2897
37409SOL    HW118064   4.857   1.359   6.737 -1.7899  0.2796 -0.6104
37409SOL    HW218065   4.925   1.361   6.601 -1.8098 -0.7741 -0.6473
37410SOL     OW18066   0.933   1.362   7.327  0.0252  0.3500  0.9828
37410SOL    HW118067   0.879   1.290   7.359 -0.9324  0.8527  0.5400
37410SOL    HW218068   0.876   1.439   7.332  0.4636  0.7742 -0.1669
37411SOL     OW18069  11.882   9.670   3.762 -0.7734 -0.3469  0.8827
37411SOL    HW118070  11.864   9.639   3.673 -1.2406 -1.8932  1.4726
37411SOL    HW218071  11.896   9.764   3.753  0.1369 -0.6202 -0.9501
37412SOL     OW18072   2.527   4.347  10.314  0.0470 -0.2606  0.3162
37412SOL    HW118073   2.540   4.262  10.355 -0.9939 -0.2101  0.7832
37412SOL    HW218074   2.500   4.405  10.386  1.9601  0.8009  0.2551
37413SOL     OW18075   3.217   9.125  10.649 -0.2162 -0.5914  0.0181
37413SOL    HW118076   3.235   9.188  10.719  0.6681  1.1984 -1.7087
37413SOL    HW218077   3.130   9.151  10.616  0.4327  0.2388 -1.1348
37414SOL     OW18078   6.313   1.349   1.214  0.0013  0.3356  0.0966
37414SOL    HW118079   6.312   1.440   1.184 -0.0316  0.1418 -0.4998
37414SOL    HW218080   6.311   1.297   1.134  3.1674 -0.2138  0.2207
37415SOL     OW18081   8.943   2.193   9.344 -0.7886 -0.0550 -0.3369
37415SOL    HW118082   9.006   2.197   9.416 -2.2534  1.5066  0.9401
37415SOL    HW218083   8.988   2.144   9.275  1.1272 -0.5253  1.1739
37416SOL     OW18084   0.168  10.070   3.595  0.0538  0.1339 -0.1253
37416SOL    HW118085   0.100  10.071   3.662 -0.7436  1.7172 -0.8996
37416SOL    HW218086   0.144  10.140   3.535  0.7226 -1.2628 -2.1261
37417SOL     OW18087   1.126   1.883  12.118 -0.0889  0.1096  0.1352
37417SOL    HW118088   1.095   1.974  12.127 -1.1766 -0.2900  0.6341
37417SOL    HW218089   1.088   1.854  12.034 -2.4485 -0.8555  1.4319
37418SOL     OW18090   8.796  10.425   0.246 -0.3247  0.5649  0.5795
37418SOL    HW118091   8.862  10.363   0.276 -1.7194 -0.6161  1.3378
37418SOL    HW218092   8.792  10.491   0.315 -0.3773  0.2935  0.8379
37419SOL     OW18093   0.447   4.622   4.601 -0.1864  0.2622  0.4389
37419SOL    HW118094   0.538   4.610   4.573 -0.6960 -0.8945 -0.7931
37419SOL    HW218095   0.449   4.606   4.696  1.0321  1.1305  0.5875
37420SOL     OW18096   7.515   1.489   4.739  0.3228  0.2771 -0.2310
37420SOL    HW118097   7.608   1.503   4.754 -0.0885  1.2730  1.8411
37420SOL    HW218098   7.481   1.577   4.719 -0.1518 -0.1065 -1.1470
37421SOL     OW18099   5.970   9.944  10.157 -0.6151  0.1143  0.0442
37421SOL    HW118100   5.886   9.904  10.141 -0.9186  0.7227  0.0699
37421SOL    HW218101   5.970  10.023  10.102 -0.4525  0.6132  0.7387
37422SOL     OW18102   8.674   0.960  11.164  0.1779 -0.0530 -0.6291
37422SOL    HW118103   8.755   0.988  11.208 -0.6780  2.4752 -0.4864
37422SOL    HW218104   8.704   0.923  11.081  1.5399 -0.2526 -0.0816
37423SOL     OW18105   2.743   6.040   6.326 -0.6026  0.4966 -0.6161
37423SOL    HW118106   2.734   5.947   6.305 -1.8077  0.4004  0.1994
37423SOL    HW218107   2.707   6.085   6.249  1.0029  0.3477 -1.4933
37424SOL     OW18108   4.413  11.938   2.684  0.3303  0.4900 -0.0203
37424SOL    HW118109   4.476  11.871   2.712 -0.4801 -0.4822 -0.4624
37424SOL    HW218110   4.421  12.007   2.749 -0.3146 -0.9735  1.6870
37425SOL     OW18111   9.886   2.663  11.079  0.0349  0.6387 -0.2284
37425SOL    HW118112   9.904   2.744  11.032  0.6663  1.7539  1.8143
37425SOL    HW218113   9.830   2.689  11.152 -1.4169 -1.1266 -0.6490
37426SOL     OW18114  11.699  11.912   6.636  0.3652 -0.5126  0.2209
37426SOL    HW118115  11.698  11.859   6.556 -0.3034  1.1766 -0.9342
37426SOL    HW218116  11.671  11.999   6.608  0.7547  0.2979  2.1891
37427SOL     OW18117   1.995   8.509   9.889 -0.2634 -0.1177 -0.2798
37427SOL    HW118118   2.067   8.522   9.951 -2.3980 -1.3339  2.7087
37427SOL    HW218119   1.921   8.555   9.928 -2.1150 -2.2845 -1.0346
37428SOL     OW18120  10.299   3.073   3.264  1.1421  0.4085  0.4021
37428SOL    HW118121  10.249   3.131   3.207 -0.5330  0.4162  1.7802
37428SOL    HW218122  10.366   3.130   3.303  0.6152  1.0249  0.4329
37429SOL     OW18123   1.223  11.959   8.643  0.3051  0.3845 -0.2521
37429SOL    HW118124   1.280  11.979   8.717 -0.1816  1.7938 -0.2276
37429SOL    HW218125   1.283  11.930   8.574  0.7924 -0.6230  0.5769
37430SOL     OW18126   0.803   3.095   5.488  0.0651 -0.4436 -0.2213
37430SOL    HW118127   0.712   3.083   5.514  0.1669 -0.3538  0.1886
37430SOL    HW218128   0.814   3.041   5.410 -0.7497  0.7092 -1.1647
37431SOL     OW18129   6.757   5.898   2.672  0.4898 -0.7197  0.9452
37431SOL    HW118130   6.722   5.921   2.758  2.1795  0.3575  1.4048
37431SOL    HW218131   6.684   5.910   2.612 -0.1756  0.5838  1.9717
37432SOL     OW18132  11.296   6.156   4.638 -0.0808 -0.3811  0.3409
37432SOL    HW118133  11.315   6.245   4.607  1.2393 -1.3956 -2.0664
37432SOL    HW218134  11.364   6.138   4.703 -2.2485  1.3999  3.3610
37433SOL     OW18135   1.637   4.381   8.004  0.4427 -0.5735  0.3431
37433SOL    HW118136   1.631   4.377   7.909 -1.3327  0.1873  0.3927
37433SOL    HW218137   1.548   4.364   8.035  0.8702 -0.2329  1.8607
37434SOL     OW18138   9.783   8.643   3.036  0.2586 -0.1396  0.3370
37434SOL    HW118139   9.714   8.576   3.024 -0.6500  0.8310 -0.0041
37434SOL    HW218140   9.736   8.726   3.032  1.1233  0.4979  2.4107
37435SOL     OW18141   3.834   0.768   5.563 -0.8868 -0.4804  0.1042
37435SOL    HW118142   3.791   0.853   5.558  0.4659  0.2674  0.6370
37435SOL    HW218143   3.778   0.709   5.512 -0.6170  1.2499 -2.3618
37436SOL     OW18144   8.164   9.937   3.433 -0.3703  0.3348  0.5207
37436SOL    HW118145   8.192   9.847   3.419  0.2788  0.8299 -1.8072
37436SOL    HW218146   8.076   9.940   3.396 -0.5370  0.5887  0.9281
37437SOL     OW18147   0.454   9.372   8.949 -0.2303 -0.0655 -0.2276
37437SOL    HW118148   0.501   9.327   8.879  0.0971  1.5087 -1.0855
37437SOL    HW218149   0.500   9.346   9.029  2.1615  1.3316 -1.0271
37438SOL     OW18150   7.574   1.277   0.439 -0.0366  0.2640  0.0750
37438SOL    HW118151   7.512   1.339   0.477 -1.1903 -1.4523  1.1108
37438SOL    HW218152   7.527   1.238   0.365  0.0933 -0.4727  0.3733
37439SOL     OW18153   6.453   9.712   2.501 -0.1203 -0.8371  0.0406
37439SOL    HW118154   6.403   9.669   2.432 -0.5482 -0.6752  0.2438
37439SOL    HW218155   6.455   9.647   2.572 -1.7853 -0.1290  0.8079
37440SOL     OW18156   5.030   6.770   6.980 -0.0356 -0.1402  0.4806
37440SOL    HW118157   5.043   6.742   7.070  0.2217 -0.0207  0.4800
37440SOL    HW218158   5.013   6.688   6.932 -0.8989 -0.1381  0.7581
37441SOL     OW18159   6.194   6.139   1.704 -0.1029 -0.3856 -0.4253
37441SOL    HW118160   6.145   6.058   1.696 -0.4178 -0.0725 -2.3574
37441SOL    HW218161   6.280   6.119   1.667 -0.1513  0.0969 -0.8271
37442SOL     OW18162   2.691   4.941   5.959 -0.0119 -0.2131 -0.6747
37442SOL    HW118163   2.607   4.984   5.969 -1.8930 -3.3827 -1.4086
37442SOL    HW218164   2.717   4.958   5.868  0.0248  0.5454 -0.5245
37443SOL     OW18165  10.825   2.678   3.528 -0.1636 -0.0392 -0.4029
37443SOL    HW118166  10.731   2.668   3.512 -0.3179  0.6760  0.0202
37443SOL    HW218167  10.866   2.614   3.470 -0.9749 -1.4606  0.5344
37444SOL     OW18168   3.930  11.108   4.870  0.1047 -0.1167  0.3662
37444SOL    HW118169   4.001  11.079   4.813 -0.3939 -2.0849  0.6932
37444SOL    HW218170   3.853  11.062   4.839 -0.4792 -0.0963  1.6945
37445SOL     OW18171   7.545   2.760   9.116  0.0615 -0.0459  0.4822
37445SOL    HW118172   7.496   2.840   9.136  1.5696  1.1415 -0.2738
37445SOL    HW218173   7.620   2.762   9.176  0.8219 -0.1569 -0.4348
37446SOL     OW18174  11.884   0.549  11.387 -0.2869 -0.0666  0.3875
37446SOL    HW118175  11.951   0.487  11.416  1.0684  1.0106 -0.3091
37446SOL    HW218176  11.840   0.576  11.467  0.6647 -0.1902  0.9711
37447SOL     OW18177   5.677   7.115   3.807 -0.2257  0.1733  0.3106
37447SOL    HW118178   5.663   7.020   3.809  0.7571  0.0052 -0.1570
37447SOL    HW218179   5.771   7.125   3.795 -0.4071  1.2134 -0.3268
37448SOL     OW18180   6.349  10.887   7.912  0.3271  0.5860  0.6200
37448SOL    HW118181   6.289  10.824   7.873 -0.2417  1.0854  0.6851
37448SOL    HW218182   6.376  10.846   7.994  1.0580 -0.1959  0.0171
37449SOL     OW18183   5.767   1.865   2.592  0.0507  0.1766  0.2757
37449SOL    HW118184   5.857   1.852   2.562  0.3728  1.8490  0.4620
37449SOL    HW218185   5.735   1.776   2.609  2.3805 -0.3681  2.3259
37450SOL     OW18186   9.746   6.875   2.822 -0.4426 -0.0671 -0.6680
37450SOL    HW118187   9.658   6.905   2.800 -1.2096 -1.6319  0.1100
37450SOL    HW218188   9.736   6.833   2.908  0.7377 -1.6897 -1.2821
37451SOL     OW18189  11.033   8.167  10.407  0.0777  0.3088  0.3194
37451SOL    HW118190  11.079   8.083  10.413  0.5544  0.4621 -0.9335
37451SOL    HW218191  11.097   8.227  10.369 -0.4473  1.0923  0.6611
37452SOL     OW18192   6.477   9.248  11.535  0.7528 -0.2139  0.0988
37452SOL    HW118193   6.524   9.312  11.589  1.1877 -0.3892 -0.0658
37452SOL    HW218194   6.521   9.251  11.450 -0.4234  0.6286 -0.5154
37453SOL     OW18195   9.670   0.563   6.460  0.3014  0.1261 -0.2597
37453SOL    HW118196   9.667   0.472   6.430 -1.4481  0.3770 -0.9786
37453SOL    HW218197   9.717   0.559   6.544 -0.6414 -1.6062  0.2413
37454SOL     OW18198   4.576   8.336   2.663 -0.1063 -0.4072  0.7733
37454SOL    HW118199   4.592   8.347   2.569  1.0285 -1.1281  0.8593
37454SOL    HW218200   4.501   8.278   2.669 -1.8805  1.6962  0.3363
37455SOL     OW18201  10.019  11.158   6.449  0.2840  0.0020  0.1514
37455SOL    HW118202  10.053  11.204   6.526  0.5716  1.1814 -0.6624
37455SOL    HW218203   9.986  11.228   6.392  0.1696 -0.8497 -0.8483
37456SOL     OW18204  11.447   9.842   2.618 -0.5216  0.5512  0.3134
37456SOL    HW118205  11.499   9.769   2.584 -1.5230 -0.9344  1.8052
37456SOL    HW218206  11.495   9.873   2.694 -0.5849  0.8422  0.2384
37457SOL     OW18207   3.177   6.247  11.431 -0.5492  0.1512 -0.6317
37457SOL    HW118208   3.204   6.170  11.382 -1.2933 -1.2963  1.1136
37457SOL    HW218209   3.231   6.246  11.510  0.8831  2.6300 -1.4601
37458SOL     OW18210  11.152   5.175   5.292  0.0936 -0.1988 -0.2906
37458SOL    HW118211  11.064   5.165   5.257 -0.7580 -0.6830  1.8434
37458SOL    HW218212  11.156   5.266   5.320 -0.7840 -0.8223  2.1073
37459SOL     OW18213   9.970   9.308  12.013 -0.1206 -0.2137  0.5752
37459SOL    HW118214   9.976   9.351  11.928  0.2133 -0.6188  0.3874
37459SOL    HW218215   9.944   9.377  12.073 -1.3224 -0.1183 -0.0155
37460SOL     OW18216   9.513   9.548   4.292 -0.4724 -0.1415  0.3437
37460SOL    HW118217   9.519   9.454   4.307 -1.6558 -0.1238  1.0173
37460SOL    HW218218   9.518   9.587   4.379  1.1342  0.5037 -0.0140
37461SOL     OW18219  11.084   6.703   5.652 -0.3080  0.3866  0.1782
37461SOL    HW118220  11.044   6.648   5.585 -0.1462  0.8881 -0.3369
37461SOL    HW218221  11.178   6.698   5.634 -0.3036  0.9482  0.0392
37462SOL     OW18222   8.045  11.211   8.280  0.0626 -0.5043  0.7194
37462SOL    HW118223   8.099  11.211   8.200  0.3737 -0.1562  0.9247
37462SOL    HW218224   7.969  11.266   8.258 -0.2410 -1.0486  0.4085
37463SOL     OW18225  11.611   4.252   8.233  0.3022 -0.1417  0.5222
37463SOL    HW118226  11.698   4.242   8.194  0.5739  0.1827  1.0310
37463SOL    HW218227  11.592   4.167   8.271 -0.4208 -0.7919 -1.2083
37464SOL     OW18228  12.047   6.032   4.018  0.3017 -0.0607  0.0125
37464SOL    HW118229  12.019   5.998   4.103 -0.5508 -0.2863 -0.3458
37464SOL    HW218230  12.089   5.958   3.975  0.5440 -0.0041  0.1470
37465SOL     OW18231   1.259   7.227   3.645 -0.2730  0.4705 -0.3625
37465SOL    HW118232   1.182   7.271   3.682 -2.1476 -1.2421 -1.9636
37465SOL    HW218233   1.256   7.139   3.685  0.2219  0.0484 -1.2411
37466SOL     OW18234   4.505   8.502   7.413  0.9247  0.0137 -0.4428
37466SOL    HW118235   4.568   8.538   7.351  1.6922  1.7670  1.2446
37466SOL    HW218236   4.420   8.525   7.376  1.3768  2.1037 -0.3392
37467SOL     OW18237   3.253  11.312  12.047  0.6280  0.0445 -0.0907
37467SOL    HW118238   3.165  11.275  12.055  0.1917  0.4272 -2.3012
37467SOL    HW218239   3.238  11.402  12.016  1.7704  0.9005  1.6765
37468SOL     OW18240   5.081   1.839   8.710  0.1527 -0.1643 -0.3763
37468SOL    HW118241   5.096   1.893   8.788 -1.3379 -0.9365  0.5010
37468SOL    HW218242   5.167   1.831   8.670  1.0345  0.0324  1.3597
37469SOL     OW18243   7.494   3.050   8.135 -0.3446 -0.0721 -0.0779
37469SOL    HW118244   7.471   3.085   8.220 -0.7252 -0.6557  0.0614
37469SOL    HW218245   7.590   3.043   8.137 -0.1864  1.5859 -0.3625
37470SOL     OW18246   5.131  11.176  10.301 -0.0158 -0.2959  0.0399
37470SOL    HW118247   5.167  11.263  10.320  0.4562 -0.3909 -0.3933
37470SOL    HW218248   5.066  11.191  10.233  0.0478 -0.2714 -0.0163
37471SOL     OW18249  11.662   2.760   6.966  0.1224 -0.3799  0.5315
37471SOL    HW118250  11.714   2.782   6.888  0.7416  0.0676  1.0598
37471SOL    HW218251  11.727   2.754   7.036 -0.3712 -1.2442  0.9239
37472SOL     OW18252   2.673  10.461   0.446 -0.0268  0.2052  0.1147
37472SOL    HW118253   2.614  10.439   0.518 -0.8638  1.6420 -0.0778
37472SOL    HW218254   2.624  10.526   0.395  2.3021  2.6560  0.8086
37473SOL     OW18255   0.158   7.163   2.806  0.4177 -0.0403 -0.0137
37473SOL    HW118256   0.152   7.091   2.869  0.1181 -0.4637 -0.5196
37473SOL    HW218257   0.138   7.123   2.722 -1.0940  0.9033 -0.1353
37474SOL     OW18258   3.401   4.290   3.540 -0.1286 -0.5625 -0.1343
37474SOL    HW118259   3.376   4.234   3.614 -0.9490 -0.1843 -0.1162
37474SOL    HW218260   3.319   4.333   3.514  0.4937  0.6364 -0.1480
37475SOL     OW18261  10.570   3.518   6.114 -0.7350 -0.0862  0.2370
37475SOL    HW118262  10.592   3.451   6.178  0.3131 -0.4256 -0.4523
37475SOL    HW218263  10.512   3.579   6.161 -1.2152 -1.1361  1.0397
37476SOL     OW18264   2.500   0.961   4.945  0.3404 -0.2819 -0.1096
37476SOL    HW118265   2.582   0.944   4.899  0.7220  0.8745  0.1208
37476SOL    HW218266   2.443   1.000   4.879  1.1069  1.9962  0.4775
37477SOL     OW18267   2.270   0.729  11.872 -0.4909 -0.0368 -0.5681
37477SOL    HW118268   2.209   0.698  11.939  0.8009 -0.2404  0.5701
37477SOL    HW218269   2.344   0.764  11.922 -0.6424  2.3066 -1.8648
37478SOL     OW18270   9.418   9.604  10.312  0.1656  0.1328  0.3914
37478SOL    HW118271   9.442   9.697  10.309 -1.0308  0.4436 -1.4216
37478SOL    HW218272   9.334   9.603  10.360  0.0331  0.0268  0.1589
37479SOL     OW18273   3.152   4.183   9.305 -0.6239  0.4404  0.3026
37479SOL    HW118274   3.229   4.168   9.359 -0.7349  0.7020  0.5303
37479SOL    HW218275   3.094   4.109   9.325 -0.4318  0.2391  0.1248
37480SOL     OW18276   5.270   5.641   7.749 -0.4634 -0.1107  0.0117
37480SOL    HW118277   5.345   5.598   7.791 -1.0248 -4.1640 -2.4942
37480SOL    HW218278   5.196   5.624   7.808 -0.4382 -1.7226 -0.3629
37481SOL     OW18279   7.517   6.940   1.813 -0.4907 -0.1764 -0.4878
37481SOL    HW118280   7.491   6.886   1.887 -0.5971 -0.2859 -0.6031
37481SOL    HW218281   7.437   6.986   1.787 -0.1459  0.9146  0.3225
37482SOL     OW18282  11.871   1.352   3.319 -0.0195 -0.3707 -0.1738
37482SOL    HW118283  11.804   1.342   3.387  0.2268 -0.0881  0.1172
37482SOL    HW218284  11.877   1.447   3.306 -0.1774 -0.4326 -0.7065
37483SOL     OW18285   3.922   0.422   5.748 -0.1128  0.4691 -0.2763
37483SOL    HW118286   3.909   0.333   5.780  1.6280  0.4119  0.4113
37483SOL    HW218287   3.836   0.462   5.752 -0.7102 -0.8314  0.5361
37484SOL     OW18288   2.124   4.861   2.092  0.1068 -0.5307 -0.2912
37484SOL    HW118289   2.142   4.887   2.182  0.6264  0.4264 -0.6522
37484SOL    HW218290   2.193   4.799   2.071  0.6632  0.1080 -0.3852
37485SOL     OW18291   3.156   5.273   1.356 -0.1999  0.3412 -0.0729
37485SOL    HW118292   3.099   5.196   1.348 -1.1997  1.1347 -0.8569
37485SOL    HW218293   3.117   5.337   1.297  1.2477  1.0874 -0.2461
37486SOL     OW18294   2.194   2.757   2.894 -0.2218  0.2837  0.2463
37486SOL    HW118295   2.116   2.791   2.938  1.0482  1.4179  1.6971
37486SOL    HW218296   2.268   2.794   2.942  1.2795  1.0574 -2.4384
37487SOL     OW18297   8.145   7.462   6.698  0.2598  0.4243 -0.0067
37487SOL    HW118298   8.076   7.396   6.712  0.4187  0.5528  1.5855
37487SOL    HW218299   8.113   7.515   6.625  0.5448 -1.9324 -1.9822
37488SOL     OW18300   3.872   3.105   2.475 -0.4289 -0.1977 -0.0460
37488SOL    HW118301   3.796   3.151   2.512 -2.2525 -2.7501 -0.3800
37488SOL    HW218302   3.859   3.109   2.381  0.2406 -0.0650 -0.1376
37489SOL     OW18303   2.849   6.419   8.350 -0.3314  0.6770  0.1976
37489SOL    HW118304   2.856   6.462   8.435 -1.7301 -1.2300  1.3770
37489SOL    HW218305   2.762   6.445   8.317  0.0697  1.1471 -0.5080
37490SOL     OW18306  10.172  12.216   5.293  0.0048  0.2852 -0.2749
37490SOL    HW118307  10.218  12.279   5.238  2.0074 -0.7945  0.0564
37490SOL    HW218308  10.241  12.157   5.324 -1.8043 -2.2874 -0.8645
37491SOL     OW18309   7.689  10.536  11.284 -0.1960 -0.3150 -0.1532
37491SOL    HW118310   7.593  10.528  11.291 -0.4784  2.3633 -0.0925
37491SOL    HW218311   7.711  10.478  11.211 -2.1445  0.3762 -1.3928
37492SOL     OW18312   0.562   5.558   5.820  0.0610 -0.0480 -0.0597
37492SOL    HW118313   0.473   5.564   5.787  0.8466 -1.0658 -2.5971
37492SOL    HW218314   0.552   5.529   5.911 -2.1579 -1.1592 -0.5833
37493SOL     OW18315   2.078   9.504   7.554  0.0206  0.5356  0.2962
37493SOL    HW118316   2.167   9.530   7.576  0.0902  0.0327  0.6316
37493SOL    HW218317   2.087   9.415   7.520 -0.4365  0.1736  1.0830
37494SOL     OW18318  12.019   6.200   6.930  0.9397 -0.4851 -0.2253
37494SOL    HW118319  12.019   6.295   6.937 -0.4685 -0.4500 -0.5152
37494SOL    HW218320  11.961   6.171   7.001  0.7758 -1.0811 -0.5979
37495SOL     OW18321  10.537   0.857   2.935 -0.5692 -0.4564  0.5225
37495SOL    HW118322  10.559   0.949   2.923 -3.3506  0.0830 -1.6203
37495SOL    HW218323  10.603   0.810   2.883 -0.2049  0.4829  0.1088
37496SOL     OW18324   4.102   5.830   1.198  0.3412 -0.0655 -0.2788
37496SOL    HW118325   4.096   5.903   1.259  0.9398  0.3308 -0.6835
37496SOL    HW218326   4.011   5.802   1.184  0.2932 -1.4773  2.3307
37497SOL     OW18327   7.112   8.552   6.537  0.1982  0.3623 -0.1175
37497SOL    HW118328   7.203   8.581   6.530  0.2906  0.1450  0.1847
37497SOL    HW218329   7.103   8.522   6.627 -1.2388  4.0828  1.2010
37498SOL     OW18330   7.350   3.082   1.490  0.3984  0.6825 -0.7864
37498SOL    HW118331   7.328   2.997   1.451  2.3641 -0.0625 -0.4042
37498SOL    HW218332   7.444   3.076   1.507  0.1401  2.0538  1.4592
37499SOL     OW18333   2.207   7.595   7.543 -0.0235 -0.2804 -0.0761
37499SOL    HW118334   2.254   7.538   7.603 -0.5028  0.7919  1.3760
37499SOL    HW218335   2.139   7.635   7.596 -0.7154  0.4234 -1.4358
37500SOL     OW18336   5.835   0.431   8.416 -0.6224  0.2149 -0.3562
37500SOL    HW118337   5.797   0.354   8.459 -0.9615  0.0382 -0.9595
37500SOL    HW218338   5.930   0.419   8.425 -0.6195 -0.9522 -1.5675
37501SOL     OW18339  11.410   2.672   4.699 -0.6274 -0.1404  0.0679
37501SOL    HW118340  11.495   2.632   4.720  0.0213  0.1159 -1.8487
37501SOL    HW218341  11.377   2.621   4.626 -0.4676  1.8415 -1.4828
37502SOL     OW18342   0.207   0.259  10.141 -0.0006  0.0725  0.0564
37502SOL    HW118343   0.289   0.210  10.135  0.2487  0.5796 -0.9853
37502SOL    HW218344   0.174   0.262  10.051 -0.9442  0.2539  0.3909
37503SOL     OW18345   1.400  11.438   5.771  0.3264 -0.5364 -0.2483
37503SOL    HW118346   1.312  11.402   5.762  0.3130 -1.2185  1.8970
37503SOL    HW218347   1.458  11.366   5.746  0.3084 -0.0291 -1.8389
37504SOL     OW18348   4.965   9.868   8.206 -0.5784 -0.1613 -0.0606
37504SOL    HW118349   4.941   9.960   8.201 -3.3851 -0.8578 -1.4133
37504SOL    HW218350   4.924   9.836   8.286 -0.4206 -0.4161 -0.0803
37505SOL     OW18351   1.112   7.412   4.278  0.4122  0.1350  0.3163
37505SOL    HW118352   1.122   7.497   4.320 -0.7653  0.1658  0.5766
37505SOL    HW218353   1.152   7.423   4.192  0.8068  0.7644  0.5720
37506SOL     OW18354   4.840   8.277   2.779  0.2899 -0.1676  0.0276
37506SOL    HW118355   4.848   8.183   2.796 -0.4835 -0.2810 -0.1790
37506SOL    HW218356   4.745   8.293   2.777  0.4080  0.8062  1.0403
37507SOL     OW18357   6.305   4.983   8.786 -0.1697  0.5389 -0.2377
37507SOL    HW118358   6.289   4.971   8.693 -2.1573  1.0486  0.0001
37507SOL    HW218359   6.298   4.895   8.823  0.5284  0.3486 -0.5427
37508SOL     OW18360   7.343   0.458   1.038  0.1331 -0.1373  0.4917
37508SOL    HW118361   7.333   0.492   1.126  0.4529 -1.1697  0.9386
37508SOL    HW218362   7.435   0.433   1.031  0.0387 -0.3810 -0.0094
37509SOL     OW18363  10.673   0.211  11.998  0.0900  0.4575 -0.0363
37509SOL    HW118364  10.700   0.303  12.003 -0.5380  0.6707 -0.4311
37509SOL    HW218365  10.582   0.215  11.968  0.5328 -0.3412 -1.5830
37510SOL     OW18366   1.067  10.644  11.292  0.4921  0.2543  0.0436
37510SOL    HW118367   1.012  10.697  11.350  1.0981  0.4424  0.4547
37510SOL    HW218368   1.153  10.684  11.297  0.5373  0.3096 -1.0538
37511SOL     OW18369   8.539  10.116  11.236 -0.4720  0.1374 -0.0172
37511SOL    HW118370   8.447  10.091  11.245 -0.0839 -1.2855  0.2786
37511SOL    HW218371   8.573  10.056  11.169 -0.2312  2.0365 -1.7080
37512SOL     OW18372   0.191   7.244   6.621 -0.2751 -0.3534  0.5886
37512SOL    HW118373   0.199   7.321   6.678  0.2820 -1.0572  1.4754
37512SOL    HW218374   0.245   7.266   6.545  0.8745 -0.3416  1.3763
37513SOL     OW18375   9.552  10.827   3.590  0.3516 -0.0924 -0.6945
37513SOL    HW118376   9.622  10.802   3.531  0.3570 -1.6845 -0.0652
37513SOL    HW218377   9.506  10.745   3.610 -0.4250  0.5897  0.5116
37514SOL     OW18378   2.670  10.313   7.865  0.2267  0.3529 -0.1074
37514SOL    HW118379   2.645  10.340   7.953 -1.5176 -1.1221 -0.0766
37514SOL    HW218380   2.732  10.241   7.878 -0.2490 -0.0532 -0.0707
37515SOL     OW18381   6.691   7.921  11.584 -0.1061 -0.2758 -0.2841
37515SOL    HW118382   6.678   7.949  11.675 -0.1961 -0.9266 -0.0941
37515SOL    HW218383   6.709   8.003  11.537  2.2720 -0.1575  0.7003
37516SOL     OW18384   4.273   1.939   4.039  0.5983 -0.2218 -0.3132
37516SOL    HW118385   4.302   1.890   4.116  0.8351 -0.0493 -0.2932
37516SOL    HW218386   4.309   1.891   3.964  0.1897 -0.5117 -0.3287
37517SOL     OW18387  11.494   0.748   0.149  0.3014 -0.0089  0.0011
37517SOL    HW118388  11.531   0.668   0.187 -0.3796  0.5080  1.8210
37517SOL    HW218389  11.451   0.718   0.068  1.6032 -1.1666 -0.2986
37518SOL     OW18390   9.026  10.702   0.446  0.3424  0.1405 -0.6838
37518SOL    HW118391   9.036  10.743   0.532 -0.4296  2.2608 -1.5366
37518SOL    HW218392   9.109  10.658   0.431  0.5786 -0.0991  1.0348
37519SOL     OW18393   6.598   8.670   0.093  0.5477  0.3266 -0.2903
37519SOL    HW118394   6.622   8.580   0.115 -0.7518  0.1913  0.7421
37519SOL    HW218395   6.585   8.670  -0.001 -0.0253 -0.7261 -0.2229
37520SOL     OW18396  11.021   8.653   3.864 -0.0913  0.5332 -0.2933
37520SOL    HW118397  11.084   8.708   3.816  0.9953 -0.5579 -0.1633
37520SOL    HW218398  11.022   8.688   3.953 -0.1725  0.9398 -0.4495
37521SOL     OW18399   5.255   9.541  11.353 -0.7620  0.5858  0.2993
37521SOL    HW118400   5.340   9.541  11.397 -0.1688 -1.4857 -0.7268
37521SOL    HW218401   5.255   9.622  11.302  0.7996  0.4106 -0.0192
37522SOL     OW18402   0.365   0.061   9.959 -0.5663 -0.9530  0.4645
37522SOL    HW118403   0.423  -0.010   9.985 -0.4590 -1.5961 -1.3776
37522SOL    HW218404   0.420   0.121   9.909 -0.8771 -0.0963  1.1350
37523SOL     OW18405   8.260   1.819   8.355  0.0675  0.3745 -0.0816
37523SOL    HW118406   8.320   1.828   8.282  0.0631 -1.2136 -0.3056
37523SOL    HW218407   8.173   1.829   8.317  0.0378 -1.0430 -0.4156
37524SOL     OW18408   8.350   5.167   5.571  0.5738  0.1999  0.0071
37524SOL    HW118409   8.429   5.144   5.620  0.8568  1.7296  0.3093
37524SOL    HW218410   8.364   5.258   5.545 -0.2742 -0.0999 -1.5736
37525SOL     OW18411   8.209   0.529   4.420  0.1679 -0.4994  0.2036
37525SOL    HW118412   8.136   0.483   4.460  0.1846 -2.1064 -1.4622
37525SOL    HW218413   8.269   0.459   4.391  0.2311  0.4930 -2.3988
37526SOL     OW18414  10.169   9.052  10.620  0.0396 -0.2567  0.2662
37526SOL    HW118415  10.177   9.137  10.577  0.5209 -0.4132  0.0447
37526SOL    HW218416  10.258   9.028  10.643  0.0406 -1.1795 -0.6092
37527SOL     OW18417   9.428   0.632   3.367  0.1803  0.3225 -0.1819
37527SOL    HW118418   9.507   0.593   3.405 -0.1273  0.0660  0.2012
37527SOL    HW218419   9.457   0.717   3.335  0.9051 -0.2759 -1.1791
37528SOL     OW18420  11.005   1.605   6.441 -0.2647  0.4139 -0.0042
37528SOL    HW118421  10.931   1.570   6.390  0.9796 -1.3805 -0.7005
37528SOL    HW218422  11.058   1.528   6.461  1.0978  1.5736  1.0251
37529SOL     OW18423   2.479   3.283  12.308  0.7038 -0.0015  0.4309
37529SOL    HW118424   2.550   3.239  12.354 -0.0141  0.2638  1.8554
37529SOL    HW218425   2.401   3.233  12.333  0.5613 -1.6502 -2.8040
37530SOL     OW18426  10.666  10.611   3.410 -0.1390 -0.4921  0.2929
37530SOL    HW118427  10.691  10.662   3.333 -0.3703 -1.2147 -0.2817
37530SOL    HW218428  10.742  10.556   3.428 -0.3150 -0.7804  0.1771
37531SOL     OW18429   8.926   7.251   5.188 -0.5388  0.3245  0.1463
37531SOL    HW118430   8.938   7.190   5.116 -0.3075 -0.0421  0.4866
37531SOL    HW218431   8.838   7.233   5.221 -0.0668 -0.6217  0.9572
37532SOL     OW18432  10.809   1.771   6.644 -0.6153  0.3436  0.6192
37532SOL    HW118433  10.844   1.682   6.633  0.3211  0.6328  1.1520
37532SOL    HW218434  10.715   1.761   6.633 -0.4162 -0.5331 -0.4397
37533SOL     OW18435   0.424  11.744   7.183  0.0509  0.0819 -0.2027
37533SOL    HW118436   0.472  11.825   7.169  1.7941 -0.6320  1.3695
37533SOL    HW218437   0.438  11.722   7.275 -2.3965 -0.7781  0.0578
37534SOL     OW18438  12.162   7.467   5.726 -0.7776 -0.1655  0.1541
37534SOL    HW118439  12.250   7.493   5.755  1.1874 -4.0561 -1.5602
37534SOL    HW218440  12.168   7.463   5.631 -2.3120 -2.0176  0.0854
37535SOL     OW18441   9.707  12.286   7.148  0.0928 -0.4904  0.1822
37535SOL    HW118442   9.691  12.381   7.150  0.2619 -0.4680  0.9446
37535SOL    HW218443   9.621  12.248   7.166 -0.2834 -0.5309 -1.5916
37536SOL     OW18444   7.538   7.241   7.568 -0.0243  0.7654  0.3257
37536SOL    HW118445   7.632   7.224   7.562  0.0656  0.9133  1.2048
37536SOL    HW218446   7.531   7.336   7.572 -0.3475  0.8692 -1.6381
37537SOL     OW18447  12.246   8.672   1.382 -0.6598 -0.2903 -0.3607
37537SOL    HW118448  12.214   8.605   1.320  0.9564 -0.4090 -1.1373
37537SOL    HW218449  12.337   8.647   1.398 -0.5169  0.8075  0.6527
37538SOL     OW18450   0.758   9.497   6.762 -0.1988  0.0649 -0.0351
37538SOL    HW118451   0.765   9.427   6.698 -0.4526  0.8354 -0.9334
37538SOL    HW218452   0.664   9.514   6.770 -0.1558  0.1362  0.3605
37539SOL     OW18453   5.816  10.311   4.159 -0.7073 -0.1974  0.3299
37539SOL    HW118454   5.834  10.388   4.212 -0.3040 -0.6218  0.8258
37539SOL    HW218455   5.769  10.344   4.083 -0.9803  0.4720  0.7786
37540SOL     OW18456   1.882   7.230  11.534 -0.2028  0.5769  0.3053
37540SOL    HW118457   1.909   7.317  11.562  0.9516  0.5502 -0.6296
37540SOL    HW218458   1.818   7.202  11.600 -0.4098  2.0150  0.7544
37541SOL     OW18459   7.586  10.780   5.905  0.3507  0.0890 -0.3148
37541SOL    HW118460   7.506  10.804   5.952  1.3902  0.5636  1.3073
37541SOL    HW218461   7.603  10.690   5.933  1.7701  0.8486  1.5153
37542SOL     OW18462  12.275  10.304   1.337 -0.0274  0.3713 -0.1060
37542SOL    HW118463  12.263  10.387   1.383 -0.3312  0.7479 -0.8342
37542SOL    HW218464  12.350  10.319   1.279  2.2724 -1.0342  2.3125
37543SOL     OW18465   7.817  10.867   6.896 -0.0936 -0.1130  0.5522
37543SOL    HW118466   7.848  10.780   6.920 -2.2613 -1.1506 -0.1600
37543SOL    HW218467   7.733  10.877   6.940 -0.7072  0.8978 -0.7484
37544SOL     OW18468   2.800   2.363   4.727  0.5252 -0.1470 -0.1202
37544SOL    HW118469   2.852   2.443   4.715 -1.1384  1.2711  1.4281
37544SOL    HW218470   2.781   2.362   4.821 -2.3062 -0.5161 -0.6348
37545SOL     OW18471  11.802   2.966   4.039  0.2082 -0.2620 -0.1477
37545SOL    HW118472  11.761   2.886   4.070 -2.3182  0.8385 -0.3388
37545SOL    HW218473  11.738   3.035   4.061  1.4755  1.4504 -1.5565
37546SOL     OW18474   1.569  10.738   7.002  0.6394  0.0948  0.7298
37546SOL    HW118475   1.550  10.813   6.945 -3.0505 -0.4700  1.0054
37546SOL    HW218476   1.578  10.664   6.942  0.0637  0.0587  0.6859
37547SOL     OW18477   2.307   5.953   2.569 -0.1178  0.1312  0.5140
37547SOL    HW118478   2.315   6.024   2.505  2.5780 -2.1528 -2.0031
37547SOL    HW218479   2.391   5.953   2.614 -0.5580 -0.6865  1.3534
37548SOL     OW18480   1.996   9.741   7.031 -0.0355  0.5009  0.1488
37548SOL    HW118481   2.049   9.695   7.096 -0.5878 -0.4956 -0.0824
37548SOL    HW218482   2.036   9.720   6.947 -0.7572 -0.2310 -0.0247
37549SOL     OW18483   1.934   7.648   3.256  0.2240 -1.0557 -0.1772
37549SOL    HW118484   1.883   7.587   3.309 -1.5160 -1.3412 -2.0437
37549SOL    HW218485   1.925   7.614   3.166  0.0792  1.3486 -1.1455
37550SOL     OW18486   6.949   7.941   1.440  0.1228 -0.0851 -0.4258
37550SOL    HW118487   6.918   7.921   1.352 -1.1671  1.0350 -0.2605
37550SOL    HW218488   6.900   7.881   1.497 -1.6373  1.4868 -0.1922
37551SOL     OW18489   5.062   3.259   1.638 -0.0382  0.2943  0.3993
37551SOL    HW118490   5.010   3.180   1.641 -1.7349  1.4009  2.2084
37551SOL    HW218491   4.998   3.330   1.636  1.3985  1.6862 -2.1945
37552SOL     OW18492   9.025   8.226   9.908 -0.1965 -0.2539  0.0285
37552SOL    HW118493   8.950   8.194   9.859 -0.8553  1.9312 -0.5052
37552SOL    HW218494   9.069   8.287   9.848  1.7450 -1.0955  0.5031
37553SOL     OW18495   6.891   2.626  10.876  0.0636  0.2034  0.4749
37553SOL    HW118496   6.856   2.714  10.890  0.5464  0.1691  2.1097
37553SOL    HW218497   6.966   2.620  10.935  0.6532 -0.9686 -0.3421
37554SOL     OW18498   1.414   3.885   0.473  0.0286 -0.5867 -0.2130
37554SOL    HW118499   1.421   3.794   0.503 -2.8608 -0.9847 -0.4525
37554SOL    HW218500   1.484   3.931   0.519 -0.2731 -2.3626  2.2225
37555SOL     OW18501   3.454   5.161   3.356 -0.6576 -0.4151 -0.4810
37555SOL    HW118502   3.432   5.253   3.365 -1.4138 -0.6899  0.7211
37555SOL    HW218503   3.520   5.158   3.287 -0.4945  1.0323 -0.4057
37556SOL     OW18504   2.291   9.084   1.561  0.3839  0.1662  0.5380
37556SOL    HW118505   2.212   9.129   1.590  0.5084 -0.2797  1.6017
37556SOL    HW218506   2.357   9.154   1.553 -0.6689  0.9715 -2.7437
37557SOL     OW18507   4.297   5.659   0.127 -0.0276  0.0991 -0.6939
37557SOL    HW118508   4.205   5.633   0.135  0.0753 -0.2013 -0.4588
37557SOL    HW218509   4.326   5.673   0.218  0.0769  0.4870 -0.7836
37558SOL     OW18510   8.444   8.275   9.958 -0.2832  0.2502  0.8867
37558SOL    HW118511   8.474   8.357   9.918 -0.0739  1.1088  2.7322
37558SOL    HW218512   8.355   8.263   9.924  0.6618 -0.3119 -1.6299
37559SOL     OW18513   2.642   9.919   3.929  0.1596  0.3707 -0.0917
37559SOL    HW118514   2.551   9.898   3.906  0.4209  0.3477 -1.1525
37559SOL    HW218515   2.683   9.940   3.846  1.3313 -0.3557  0.2798
37560SOL     OW18516   2.220   8.599   2.315  0.1143 -0.1959  0.1709
37560SOL    HW118517   2.238   8.537   2.244 -0.6117 -1.3262  0.9512
37560SOL    HW218518   2.252   8.683   2.281  0.2674 -0.8032 -1.2834
37561SOL     OW18519  10.396   8.074   1.160  0.4344 -0.2023 -0.4619
37561SOL    HW118520  10.351   8.148   1.119  0.7402  1.0190  1.3164
37561SOL    HW218521  10.390   8.091   1.254  1.4193 -1.9141 -0.0485
37562SOL     OW18522   0.017   7.435   8.257 -0.3074  0.4910 -0.1933
37562SOL    HW118523  -0.007   7.512   8.308  0.1786  0.1394  0.5806
37562SOL    HW218524  -0.050   7.430   8.188 -2.4012 -0.3749  1.7959
37563SOL     OW18525   1.106   9.795   0.055  0.1990 -0.1592 -0.0283
37563SOL    HW118526   1.031   9.849   0.032  0.5594 -0.1142 -1.1350
37563SOL    HW218527   1.104   9.723  -0.008 -0.8637 -2.0551  2.0225
37564SOL     OW18528   1.565   9.075   5.172  0.4945 -0.0911  0.3010
37564SOL    HW118529   1.518   9.139   5.119  1.1152 -0.0260 -0.1842
37564SOL    HW218530   1.592   9.123   5.250  0.6218  0.1344  0.1191
37565SOL     OW18531   6.847   2.288   7.146  0.8522  0.3882 -0.6586
37565SOL    HW118532   6.794   2.241   7.210  0.4987  2.7780  0.9229
37565SOL    HW218533   6.786   2.312   7.077  1.1342 -1.7661 -1.7372
37566SOL     OW18534   7.771  10.820   5.699 -0.2246  0.0293 -0.0331
37566SOL    HW118535   7.843  10.818   5.762 -0.7016 -0.7312  0.4941
37566SOL    HW218536   7.692  10.810   5.752 -0.7244  0.7815 -0.6146
37567SOL     OW18537   4.979   4.580   2.749  0.5325  0.2444 -0.2450
37567SOL    HW118538   4.961   4.528   2.670 -2.6572  0.8960 -0.0795
37567SOL    HW218539   5.039   4.648   2.718 -1.5005  1.1675 -2.4852
37568SOL     OW18540   0.361  11.814   9.357  0.0738 -0.3097  0.5712
37568SOL    HW118541   0.408  11.867   9.422  2.0688  1.2449 -1.9400
37568SOL    HW218542   0.397  11.726   9.367  1.1849  0.1560  0.8396
37569SOL     OW18543   1.344   1.137  10.812 -0.1950 -0.3194  0.6672
37569SOL    HW118544   1.413   1.112  10.873  0.3059  0.4404  0.4131
37569SOL    HW218545   1.297   1.208  10.855 -0.9513 -0.9494  0.9189
37570SOL     OW18546  12.127   6.702   6.772  0.1898  0.0016  0.0038
37570SOL    HW118547  12.110   6.796   6.766  0.1439  0.0223  0.4525
37570SOL    HW218548  12.106   6.669   6.684 -0.3856  0.3114  0.0165
37571SOL     OW18549   0.966  11.346   4.999  0.0820 -0.0674 -0.2833
37571SOL    HW118550   0.942  11.260   5.033 -1.2272  0.1115 -0.6870
37571SOL    HW218551   0.895  11.404   5.029 -0.7893  0.2214 -2.6943
37572SOL     OW18552   6.519   6.691   9.374 -0.0279 -0.2431  0.0245
37572SOL    HW118553   6.547   6.764   9.318  1.2704 -0.7168  0.0093
37572SOL    HW218554   6.523   6.614   9.317 -0.0397 -0.5284  0.4074
37573SOL     OW18555   0.237   6.747   6.991  0.4898 -0.1249  0.0926
37573SOL    HW118556   0.290   6.676   7.025  0.5550 -0.9286 -1.5714
37573SOL    HW218557   0.148   6.711   6.986 -0.0199  0.8049  1.6970
37574SOL     OW18558   9.547   0.493   0.135 -0.6476 -0.1660  0.0208
37574SOL    HW118559   9.466   0.474   0.183 -0.9161 -2.9461 -1.3300
37574SOL    HW218560   9.606   0.421   0.159  1.2451  1.4706  0.4944
37575SOL     OW18561   8.736   3.428   7.483 -0.1517  0.1492 -0.0667
37575SOL    HW118562   8.642   3.430   7.463  0.0545 -0.9580 -1.2403
37575SOL    HW218563   8.743   3.371   7.559 -0.4504  0.5163  0.2448
37576SOL     OW18564   0.893   3.011   2.997  0.0999  0.0398  0.5025
37576SOL    HW118565   0.808   2.993   2.957 -0.9290  0.6044  2.3196
37576SOL    HW218566   0.928   2.925   3.019  0.2966 -0.2286 -0.7718
37577SOL     OW18567   8.212   4.493  11.050  0.4145 -0.1300 -0.1151
37577SOL    HW118568   8.236   4.583  11.027  1.0137 -0.4102 -0.5872
37577SOL    HW218569   8.295   4.450  11.069  0.2336 -0.8936 -1.0046
37578SOL     OW18570   5.290   7.415   9.488  0.1368  0.0695 -0.1507
37578SOL    HW118571   5.319   7.507   9.495  0.0925 -0.0378  2.3627
37578SOL    HW218572   5.367   7.369   9.455  0.0173  1.0251 -1.9216
37579SOL     OW18573   3.864   3.997   9.085 -0.2710 -0.1068  0.0824
37579SOL    HW118574   3.803   4.031   9.021  1.7360 -1.2368 -2.6220
37579SOL    HW218575   3.928   4.067   9.098 -1.3009  0.5628  1.8521
37580SOL     OW18576   4.621  10.187   4.217 -0.0322 -0.4098 -0.0335
37580SOL    HW118577   4.693  10.229   4.264  0.9580  0.9202 -2.5174
37580SOL    HW218578   4.664  10.132   4.152 -1.3245 -1.8465  0.2798
37581SOL     OW18579   6.740   6.968   4.337  0.2248  0.5344  0.3032
37581SOL    HW118580   6.793   7.043   4.311  3.9308 -2.0534 -0.3564
37581SOL    HW218581   6.715   6.927   4.254 -0.4916  0.2014  0.6729
37582SOL     OW18582   8.029   1.082   5.357  0.0273 -0.2044 -0.0825
37582SOL    HW118583   8.033   1.159   5.414 -1.2134 -0.1060 -0.1113
37582SOL    HW218584   8.120   1.068   5.330  0.1412  1.9022 -0.9507
37583SOL     OW18585   8.273  10.126   4.188 -0.2305  0.0260 -0.3885
37583SOL    HW118586   8.277  10.092   4.099 -0.1218  0.7528 -0.6695
37583SOL    HW218587   8.183  10.108   4.216  0.2731 -1.9706  0.0939
37584SOL     OW18588   7.159   9.142   2.244  0.0191  0.4331 -0.0842
37584SOL    HW118589   7.174   9.227   2.204 -0.0971  0.4591 -0.0732
37584SOL    HW218590   7.238   9.092   2.225 -0.8287 -0.2316 -2.0864
37585SOL     OW18591  10.850   4.556  11.966 -0.3205 -0.0905 -0.3278
37585SOL    HW118592  10.907   4.487  11.930 -0.2196 -0.2012  0.0428
37585SOL    HW218593  10.787   4.509  12.020  0.9271  0.2505  1.5022
37586SOL     OW18594   3.030   7.994   7.931 -0.3973 -0.0903 -0.2184
37586SOL    HW118595   3.101   7.933   7.912 -0.2142  0.1980 -0.4733
37586SOL    HW218596   2.994   8.017   7.845 -0.7412 -0.1618 -0.0983
37587SOL     OW18597   8.382   2.119   5.111  0.5622 -0.0986  0.3937
37587SOL    HW118598   8.316   2.096   5.176  1.0330 -0.2998  0.7998
37587SOL    HW218599   8.347   2.197   5.068  0.5449  0.4102  1.3213
37588SOL     OW18600   3.086   4.889  11.976 -0.9617  0.1852 -0.4292
37588SOL    HW118601   3.039   4.972  11.968 -0.7282  0.2195 -1.5715
37588SOL    HW218602   3.056   4.838  11.901 -0.8958 -0.6723  0.1096
37589SOL     OW18603   7.179   7.640   4.476 -0.5379  0.0421 -0.4508
37589SOL    HW118604   7.140   7.553   4.472  0.6049 -0.4262 -2.2457
37589SOL    HW218605   7.193   7.656   4.569 -2.2366 -0.9919  0.0314
37590SOL     OW18606   7.137  10.391  11.097  0.4688  0.1953 -0.2879
37590SOL    HW118607   7.108  10.331  11.028  0.0003  1.4115 -1.2008
37590SOL    HW218608   7.128  10.341  11.178 -0.5533 -0.7409 -0.9435
37591SOL     OW18609   2.386   5.405   1.338  0.1453 -0.2269  0.2911
37591SOL    HW118610   2.450   5.337   1.360 -0.6406 -0.9895  0.2920
37591SOL    HW218611   2.351   5.378   1.253 -0.1761  0.1723  0.2919
37592SOL     OW18612  10.367  11.400   0.642  0.5573 -0.3295  0.7109
37592SOL    HW118613  10.440  11.352   0.602  1.0653  0.6511  0.4484
37592SOL    HW218614  10.402  11.487   0.660 -1.0551  0.7890 -1.1558
37593SOL     OW18615   1.192  11.384  10.184  0.1602  0.2094 -0.1475
37593SOL    HW118616   1.155  11.318  10.126  1.6206  0.8553 -1.8930
37593SOL    HW218617   1.235  11.334  10.253  0.0516 -0.6218 -0.6724
37594SOL     OW18618   6.908   7.223   2.793  0.1868 -0.1930  0.5808
37594SOL    HW118619   6.977   7.164   2.822  1.6314  1.6419  1.1141
37594SOL    HW218620   6.924   7.304   2.841 -0.0672  1.5157 -2.0280
37595SOL     OW18621   3.351   3.333   3.929 -0.7223  0.1958 -0.4008
37595SOL    HW118622   3.260   3.358   3.913 -1.2854 -1.7390 -0.4398
37595SOL    HW218623   3.368   3.361   4.019 -1.6249 -0.1400 -0.1132
37596SOL     OW18624   5.833   6.953   2.889  0.3595  0.0929 -0.0718
37596SOL    HW118625   5.861   6.908   2.969  0.9083 -0.6313 -0.6616
37596SOL    HW218626   5.764   6.897   2.853  0.5961  0.0541 -0.4702
37597SOL     OW18627  11.189   0.190   8.513  0.8506  0.0904 -0.0482
37597SOL    HW118628  11.216   0.187   8.421  0.6375 -1.3757 -0.0876
37597SOL    HW218629  11.189   0.283   8.535  1.8404  0.4011 -1.2470
37598SOL     OW18630  11.129   2.456   2.018  0.3034 -0.3457 -0.0940
37598SOL    HW118631  11.172   2.527   1.970 -2.3192  0.9522 -0.7224
37598SOL    HW218632  11.054   2.433   1.963  0.5828 -3.0571  0.5372
37599SOL     OW18633  10.151   4.349   3.671 -0.1003 -0.0174  0.1986
37599SOL    HW118634  10.243   4.326   3.683  0.2334  0.6900 -0.8326
37599SOL    HW218635  10.131   4.409   3.742  0.7308  1.1481 -0.5191
37600SOL     OW18636  10.698   1.075   3.676  0.4164  0.2436  0.0926
37600SOL    HW118637  10.615   1.118   3.654 -0.3341 -1.5802 -0.8348
37600SOL    HW218638  10.765   1.129   3.632 -0.4279  0.8058 -0.5365
37601SOL     OW18639   7.848   1.094   0.233 -0.1090  0.3023 -0.5399
37601SOL    HW118640   7.914   1.031   0.262 -0.9910 -0.4299 -0.0822
37601SOL    HW218641   7.858   1.169   0.291  0.2696  0.1685 -0.4310
37602SOL     OW18642   2.727  12.186   6.883 -0.9267 -0.0688 -0.2596
37602SOL    HW118643   2.651  12.210   6.829 -1.5974  0.5130  0.8968
37602SOL    HW218644   2.776  12.267   6.893  0.0219 -0.4927 -1.2046
37603SOL     OW18645   0.347   3.726   8.727  0.6400  0.3092 -0.2188
37603SOL    HW118646   0.365   3.656   8.790 -0.4927 -0.3311 -0.5866
37603SOL    HW218647   0.387   3.695   8.645 -1.1875 -0.6698 -0.7880
37604SOL     OW18648   1.724   6.965   5.961 -0.0148 -0.5751 -0.2452
37604SOL    HW118649   1.803   7.009   5.993  0.7849  0.2586 -3.0405
37604SOL    HW218650   1.654   7.030   5.973  0.0788 -0.6006  0.5059
37605SOL     OW18651   0.299   9.759  11.943  0.1793  0.2559 -0.0279
37605SOL    HW118652   0.362   9.733  11.875 -1.4823 -2.8126 -0.5638
37605SOL    HW218653   0.347   9.749  12.025  0.8262 -0.7688 -0.5019
37606SOL     OW18654   5.450   9.739   3.989  0.1806 -0.0178  0.1096
37606SOL    HW118655   5.379   9.729   4.052  1.8382 -0.2824  2.0321
37606SOL    HW218656   5.513   9.670   4.012  1.3965  0.6469 -1.0588
37607SOL     OW18657   7.401   7.000  10.971 -0.6405  0.2069  0.2320
37607SOL    HW118658   7.311   7.006  11.004 -0.1869 -0.0378  1.5762
37607SOL    HW218659   7.428   6.911  10.992 -0.0926  0.2732 -0.1776
37608SOL     OW18660   1.133   9.877   1.754  1.0086 -0.2932  0.2321
37608SOL    HW118661   1.213   9.929   1.767  0.5524  0.4022  0.2811
37608SOL    HW218662   1.075   9.934   1.704  0.4762 -0.7452  0.3243
37609SOL     OW18663   4.037   5.188   9.435  0.7443  0.0283  0.1757
37609SOL    HW118664   4.017   5.133   9.359  1.2007  0.3736 -0.2015
37609SOL    HW218665   4.083   5.130   9.495  1.9013  0.1727 -0.5432
37610SOL     OW18666  11.964   2.238   6.202  0.3817 -0.0862  0.2159
37610SOL    HW118667  11.869   2.247   6.210  0.4156  1.0155 -0.3423
37610SOL    HW218668  11.989   2.183   6.275 -0.6759 -0.2751  0.4571
37611SOL     OW18669   9.220   2.592   6.121 -0.1771  0.4568  0.3037
37611SOL    HW118670   9.199   2.663   6.061  0.5109  1.6541  1.4184
37611SOL    HW218671   9.270   2.635   6.191 -0.8682 -0.9010  1.6637
37612SOL     OW18672   3.264   3.326   8.425 -0.5659  0.4300  0.0187
37612SOL    HW118673   3.208   3.404   8.426 -1.5474 -0.2517  0.3856
37612SOL    HW218674   3.215   3.261   8.475 -0.1835 -0.7084 -1.0272
37613SOL     OW18675   4.777  11.029   4.808  0.0821  0.1604 -0.4276
37613SOL    HW118676   4.772  11.024   4.713 -1.7618  1.3483 -0.4526
37613SOL    HW218677   4.738  10.947   4.839 -0.5785  0.3517 -0.7228
37614SOL     OW18678   1.258   5.639   5.592  0.1848  0.1919  0.4903
37614SOL    HW118679   1.329   5.703   5.584 -0.7083  0.9726 -2.3348
37614SOL    HW218680   1.199   5.677   5.658  1.1951  0.6792  1.1424
37615SOL     OW18681   4.444   1.657   3.185 -0.1177  0.4661  0.2427
37615SOL    HW118682   4.375   1.704   3.232 -0.6706  2.0496 -2.0183
37615SOL    HW218683   4.497   1.726   3.145  0.7685 -0.8104 -0.8591
37616SOL     OW18684   3.425   2.768   1.669 -0.1449  0.1111  0.4953
37616SOL    HW118685   3.448   2.813   1.751  2.0612  0.7849 -0.4107
37616SOL    HW218686   3.448   2.831   1.601 -1.3714 -0.6749 -0.6731
37617SOL     OW18687  12.024   4.573   4.947 -0.4718  0.5927 -0.0442
37617SOL    HW118688  12.086   4.501   4.938 -0.4869  0.5593  0.1007
37617SOL    HW218689  11.968   4.547   5.021  1.1600  1.9261  1.7505
37618SOL     OW18690  11.849   3.474   5.825  0.0686 -0.6361 -0.1923
37618SOL    HW118691  11.902   3.533   5.771 -2.6442  0.5878 -1.6702
37618SOL    HW218692  11.905   3.456   5.901  1.8125  2.2134 -0.6435
37619SOL     OW18693   4.009   8.481   3.522  0.5444 -0.2880 -0.2081
37619SOL    HW118694   4.089   8.523   3.554  1.4960 -2.1729  0.0400
37619SOL    HW218695   4.032   8.451   3.433 -0.7154  1.2565 -1.1102
37620SOL     OW18696   8.549   6.144   4.013 -0.5239 -0.2906  0.0842
37620SOL    HW118697   8.587   6.110   4.094 -1.3462 -1.3011  0.0600
37620SOL    HW218698   8.498   6.221   4.042  0.6169  0.4193  0.2590
37621SOL     OW18699   1.866   6.657   8.793 -0.2747 -0.1533  0.6202
37621SOL    HW118700   1.822   6.602   8.728 -0.3563  0.7561 -0.1148
37621SOL    HW218701   1.800   6.673   8.860 -1.9759  3.0957 -1.5668
37622SOL     OW18702  11.630   2.808   7.927  0.6028  0.4520 -0.3859
37622SOL    HW118703  11.695   2.748   7.962 -0.9903 -2.0655 -1.4441
37622SOL    HW218704  11.640   2.803   7.832 -1.6952 -0.8433 -0.6468
37623SOL     OW18705  10.966   1.465   4.863  0.0332 -0.4282 -0.2082
37623SOL    HW118706  10.955   1.560   4.859 -0.0329 -0.4315 -0.1308
37623SOL    HW218707  10.950   1.444   4.955  1.4026 -0.3528  0.0638
37624SOL     OW18708   4.742   5.425  10.971  0.6991 -0.1116  0.0192
37624SOL    HW118709   4.722   5.512  11.005  0.7039  0.7312 -2.0193
37624SOL    HW218710   4.704   5.365  11.036 -1.5280  1.4138  0.2471
37625SOL     OW18711   6.645   4.395   1.692 -0.4354  0.4970  0.7211
37625SOL    HW118712   6.715   4.440   1.646 -0.3700 -0.1150  0.2136
37625SOL    HW218713   6.657   4.302   1.671 -1.5403  0.4096  0.4109
37626SOL     OW18714  10.028   2.566   5.292  0.3080 -0.4210  0.1108
37626SOL    HW118715  10.088   2.543   5.222  0.4152 -0.6267  0.2696
37626SOL    HW218716   9.971   2.489   5.302 -2.3180  1.0154 -2.4305
37627SOL     OW18717  11.376  11.293  11.787  0.0156  0.1997 -0.6745
37627SOL    HW118718  11.428  11.368  11.816 -0.7479  0.6787 -0.5450
37627SOL    HW218719  11.330  11.324  11.709  1.2221 -0.7502 -1.8285
37628SOL     OW18720   3.221   2.066   6.950 -0.0736 -0.1009  0.7029
37628SOL    HW118721   3.294   2.119   6.981  0.4454 -0.5846  0.3458
37628SOL    HW218722   3.235   1.981   6.992 -1.0546  0.1181  1.5006
37629SOL     OW18723   6.420   9.062   4.592  0.6764 -0.2984 -0.1558
37629SOL    HW118724   6.342   9.106   4.557 -0.7229 -0.6477  2.2809
37629SOL    HW218725   6.493   9.118   4.566 -0.2791 -0.1965 -2.9139
37630SOL     OW18726   7.877  12.223   4.728  0.2652  0.2857  0.3480
37630SOL    HW118727   7.801  12.186   4.684 -0.4910  2.2858 -0.1672
37630SOL    HW218728   7.850  12.231   4.820  0.5185 -0.6045  0.5070
37631SOL     OW18729   2.238   2.827   2.321  0.1576  0.6095  0.3174
37631SOL    HW118730   2.315   2.828   2.377  0.1904 -1.2987  0.3783
37631SOL    HW218731   2.268   2.865   2.238  0.8212  0.9945  0.7237
37632SOL     OW18732   3.066   4.298   5.894 -0.1709  0.1235  0.1523
37632SOL    HW118733   2.987   4.260   5.856  0.2778 -1.0039  0.3169
37632SOL    HW218734   3.099   4.231   5.954  1.6417 -0.0011 -0.9006
37633SOL     OW18735   7.427  10.372   8.250  0.0400  0.0060 -0.1250
37633SOL    HW118736   7.471  10.402   8.330  0.4838 -0.0167 -0.3560
37633SOL    HW218737   7.498  10.361   8.186 -0.5247  2.0059 -1.1587
37634SOL     OW18738   5.732  11.436  10.878 -0.7388 -0.3242 -0.0861
37634SOL    HW118739   5.749  11.530  10.871  0.8928 -0.6823 -2.2626
37634SOL    HW218740   5.819  11.396  10.884 -1.3488 -1.7228 -0.1580
37635SOL     OW18741   3.871   5.234   5.891  0.2172  0.0431  0.1383
37635SOL    HW118742   3.786   5.203   5.859 -0.4402  0.6114  1.2753
37635SOL    HW218743   3.890   5.310   5.836 -0.5363  0.5602  0.5825
37636SOL     OW18744   8.491   9.945  10.826 -0.7311  0.3680  0.1174
37636SOL    HW118745   8.475  10.035  10.798  1.8330  0.8389 -0.1144
37636SOL    HW218746   8.582   9.929  10.801 -1.7549 -3.1294 -2.0518
37637SOL     OW18747   0.706   8.842   8.917  0.1592  0.1447  0.1746
37637SOL    HW118748   0.749   8.828   8.832 -0.4587  1.9263 -0.4794
37637SOL    HW218749   0.623   8.795   8.910  0.3446 -0.1631  0.0061
37638SOL     OW18750   0.780   6.485   9.828  0.8273  0.8307 -0.0787
37638SOL    HW118751   0.704   6.462   9.775  0.5078  1.2855  0.1746
37638SOL    HW218752   0.849   6.502   9.764  0.1337  2.5559 -0.4455
37639SOL     OW18753   0.967   7.297   8.054  0.5962  0.0852 -0.1269
37639SOL    HW118754   0.938   7.315   7.964 -0.4907  0.2298  0.2378
37639SOL    HW218755   1.059   7.272   8.045  0.5911  0.4121 -1.2461
37640SOL     OW18756   6.802   7.230  11.355  0.2366  0.4907  0.1012
37640SOL    HW118757   6.780   7.178  11.432  1.7615  0.9691  0.9035
37640SOL    HW218758   6.783   7.320  11.381 -2.0754  0.4312 -1.1627
37641SOL     OW18759   0.416   8.249   5.402 -0.9251  0.1507  0.0221
37641SOL    HW118760   0.489   8.306   5.377 -0.6339  0.5160  1.6442
37641SOL    HW218761   0.457   8.171   5.437 -1.3019  0.3997  1.0439
37642SOL     OW18762   0.891  10.411   5.671  0.0297  0.1020  0.0802
37642SOL    HW118763   0.885  10.358   5.750  3.4182  0.5273  0.8032
37642SOL    HW218764   0.955  10.365   5.616 -0.0566  1.3116 -1.0965
37643SOL     OW18765   7.977   8.382   0.040 -0.2299  0.5348  0.2969
37643SOL    HW118766   7.969   8.342   0.126  0.2771  0.2774  0.2302
37643SOL    HW218767   7.925   8.462   0.046 -0.6214  0.2587  0.6726
37644SOL     OW18768   9.283  12.288   0.411  1.0491 -0.1003 -0.6418
37644SOL    HW118769   9.255  12.292   0.502  0.0959  0.0418 -0.9339
37644SOL    HW218770   9.264  12.198   0.384 -0.6284  0.4108 -1.2913
37645SOL     OW18771   5.587  12.250  11.592 -0.5696  0.1957  0.6254
37645SOL    HW118772   5.642  12.302  11.651  0.1472 -0.5859  0.6698
37645SOL    HW218773   5.577  12.166  11.638 -1.0453  0.0217  0.2041
37646SOL     OW18774   8.408   9.476   3.165  0.0016 -0.1193  0.2149
37646SOL    HW118775   8.432   9.430   3.246 -0.3505  0.0522  0.4212
37646SOL    HW218776   8.456   9.430   3.096  0.7176  0.0555  0.5849
37647SOL     OW18777   3.352   2.745   4.646  0.4603 -0.2137 -0.0264
37647SOL    HW118778   3.274   2.798   4.627  0.3456  1.2398  3.6637
37647SOL    HW218779   3.425   2.806   4.635  0.8466 -0.7617 -0.6052
37648SOL     OW18780   6.099   9.077   9.572  1.0091  0.2768 -0.0913
37648SOL    HW118781   6.016   9.058   9.529  0.4390 -0.4593  1.2640
37648SOL    HW218782   6.145   9.136   9.513 -0.3134  0.3778 -1.0360
37649SOL     OW18783   3.092  10.378   8.138  0.1306  0.2899  0.0293
37649SOL    HW118784   3.158  10.447   8.128 -0.9256  1.3609  0.2341
37649SOL    HW218785   3.023  10.402   8.076  0.5584 -1.6288 -1.2772
37650SOL     OW18786   5.014   7.899   3.885  0.2008  0.7283 -0.0325
37650SOL    HW118787   5.053   7.980   3.851  1.0091  0.1047 -0.6291
37650SOL    HW218788   5.073   7.830   3.855 -0.5809 -0.1039  0.3158
37651SOL     OW18789   7.879   2.080  10.935 -0.4369 -0.2755 -0.1998
37651SOL    HW118790   7.892   1.985  10.933  0.8272 -0.2256  2.0241
37651SOL    HW218791   7.791   2.092  10.971 -0.7407 -0.5677 -0.8189
37652SOL     OW18792   0.468   7.383   5.820  0.0601  0.3980 -0.2736
37652SOL    HW118793   0.513   7.408   5.900  0.4312  0.1079 -0.3883
37652SOL    HW218794   0.387   7.435   5.820  1.4060  2.6473 -1.1811
37653SOL     OW18795   6.629   0.033  11.180 -0.6142 -0.8226  0.5194
37653SOL    HW118796   6.627   0.078  11.095 -0.5362 -0.5655  0.6528
37653SOL    HW218797   6.539   0.035  11.211 -0.5255 -0.3019  0.7602
37654SOL     OW18798   3.524   1.359   5.042 -0.6123  0.7032 -0.3077
37654SOL    HW118799   3.518   1.288   4.979 -0.6893 -0.5857  1.0947
37654SOL    HW218800   3.447   1.348   5.098  1.3612 -0.6269  2.3932
37655SOL     OW18801   5.914   8.029   0.489  0.5593 -0.6560 -0.4657
37655SOL    HW118802   5.922   7.974   0.567  0.6006 -1.1059 -0.7783
37655SOL    HW218803   5.909   8.118   0.522  1.5454 -0.7661  0.0068
37656SOL     OW18804   7.078   2.592   7.346  0.1916  0.1730  0.2050
37656SOL    HW118805   6.989   2.605   7.377  0.1946 -0.6484  0.5815
37656SOL    HW218806   7.133   2.612   7.421  0.2754 -0.2122  0.2494
37657SOL     OW18807   8.522  10.297  11.869  0.2487  0.3583  0.1146
37657SOL    HW118808   8.428  10.314  11.873  0.0404 -0.4756 -0.7887
37657SOL    HW218809   8.560  10.357  11.933 -1.0634 -0.6199  1.8741
37658SOL     OW18810   5.615   7.305   7.517  0.4549 -0.3288 -0.0770
37658SOL    HW118811   5.705   7.284   7.541  0.5105  1.2801  1.2500
37658SOL    HW218812   5.614   7.301   7.421  1.5996 -1.5981 -0.0608
37659SOL     OW18813   9.925   1.206   5.826  0.2124  0.0834 -0.2739
37659SOL    HW118814   9.841   1.233   5.863  0.6836 -0.1455  1.0380
37659SOL    HW218815   9.902   1.155   5.748 -0.7476  2.3606 -1.5577
37660SOL     OW18816   7.480  11.842   3.883 -0.2332 -0.4800  0.2702
37660SOL    HW118817   7.549  11.780   3.907 -0.3285 -0.5312  0.4168
37660SOL    HW218818   7.523  11.905   3.825 -0.4567 -1.4376 -0.9509
37661SOL     OW18819   8.858   7.957   9.156 -0.4456 -0.9295 -0.4054
37661SOL    HW118820   8.862   7.864   9.177 -0.7222 -1.5720 -2.8239
37661SOL    HW218821   8.768   7.982   9.177 -0.1237 -0.9576  1.0767
37662SOL     OW18822   9.353   3.977   2.863 -1.2295 -0.5664 -0.2038
37662SOL    HW118823   9.382   3.952   2.776 -0.2638  1.1953 -0.4305
37662SOL    HW218824   9.433   3.992   2.913 -1.7257 -2.8362  1.4488
37663SOL     OW18825  10.861   7.446   1.678  0.6099  0.3166 -0.1051
37663SOL    HW118826  10.947   7.483   1.660 -0.2470  2.5867  0.1543
37663SOL    HW218827  10.840   7.474   1.767  0.3213 -1.7226  0.5159
37664SOL     OW18828   8.784   6.866   4.561  0.4010 -0.0144  0.3467
37664SOL    HW118829   8.771   6.861   4.656 -0.4747  1.1123  0.3046
37664SOL    HW218830   8.879   6.868   4.550  0.5128  1.0178  1.2893
37665SOL     OW18831  11.456   8.354   8.016  0.6723 -0.0619  0.8080
37665SOL    HW118832  11.374   8.403   8.004  1.2942  0.6166 -1.0809
37665SOL    HW218833  11.458   8.292   7.943  2.3087  0.6562  0.1914
37666SOL     OW18834   4.010  11.229   5.738  0.3167  0.0846 -0.2110
37666SOL    HW118835   4.051  11.182   5.666  0.9298 -0.2052  0.3216
37666SOL    HW218836   4.061  11.309   5.748 -0.4234  0.6458 -0.7915
37667SOL     OW18837   5.395  12.062   4.443  0.0474  0.7196  0.3476
37667SOL    HW118838   5.370  12.012   4.521 -1.3112  0.5043 -0.2013
37667SOL    HW218839   5.353  12.147   4.455 -0.4087  0.5867 -0.2713
37668SOL     OW18840   8.362  11.791   8.706  0.0870 -0.0158  0.2649
37668SOL    HW118841   8.338  11.770   8.796  0.3491  0.3357  0.4201
37668SOL    HW218842   8.314  11.872   8.687 -0.4017 -0.3899 -0.1018
37669SOL     OW18843   5.964   4.990   6.210  0.5525  0.2445 -0.4438
37669SOL    HW118844   6.050   5.030   6.221  0.7061 -0.3590  0.6445
37669SOL    HW218845   5.948   4.994   6.116  2.4437 -0.9840 -0.8738
37670SOL     OW18846   8.204   4.371   0.901  0.4318 -0.6243  0.6063
37670SOL    HW118847   8.292   4.356   0.934  0.9370  2.8954  1.2429
37670SOL    HW218848   8.152   4.393   0.979 -0.2939  0.0859 -0.0479
37671SOL     OW18849   3.706   6.094  11.408  0.5242 -0.2988 -0.0864
37671SOL    HW118850   3.749   6.138  11.481 -0.6950 -1.3881  1.3646
37671SOL    HW218851   3.723   6.001  11.423 -0.2892 -0.5772 -0.8206
37672SOL     OW18852   6.168   2.064   7.372  0.3234  0.1201  0.0351
37672SOL    HW118853   6.098   2.129   7.362 -0.2694 -0.4377  0.4324
37672SOL    HW218854   6.132   1.984   7.333 -0.0193 -0.6844  1.8616
37673SOL     OW18855   5.225   0.039  12.162 -0.1388  0.1111 -0.3096
37673SOL    HW118856   5.171   0.026  12.084 -0.1940 -2.5702  0.0812
37673SOL    HW218857   5.240  -0.049  12.196  1.2271  1.0772  1.8259
37674SOL     OW18858   4.844  10.924   8.235  0.4549 -0.0564 -0.0232
37674SOL    HW118859   4.765  10.907   8.183 -1.5666  0.6201  2.5928
37674SOL    HW218860   4.835  10.866   8.310  1.7713  0.9976  0.9838
37675SOL     OW18861  11.446  11.413   3.478 -0.3121  0.4122 -0.2144
37675SOL    HW118862  11.371  11.469   3.460  0.2653  0.5114 -2.5286
37675SOL    HW218863  11.457  11.360   3.399  2.6910  1.1461 -0.4031
37676SOL     OW18864   5.129   5.558   5.077 -0.3325 -0.0913  0.1721
37676SOL    HW118865   5.163   5.553   5.167 -1.3693 -2.4455  0.5085
37676SOL    HW218866   5.203   5.531   5.022  0.0268  0.4500  0.3766
37677SOL     OW18867   0.364   1.788  11.024 -0.1468  0.1085 -1.2572
37677SOL    HW118868   0.342   1.879  11.006 -0.4940  0.5491  0.9932
37677SOL    HW218869   0.416   1.792  11.105 -1.9420 -1.7834  0.1025
37678SOL     OW18870   1.321  11.980  10.928  0.3845  0.1898 -0.1389
37678SOL    HW118871   1.405  12.026  10.923  0.2164  0.3983 -2.1721
37678SOL    HW218872   1.257  12.049  10.947  0.7585 -0.1565  2.6872
37679SOL     OW18873   3.708   3.152  10.074 -0.2180 -0.1398  0.6225
37679SOL    HW118874   3.757   3.217  10.023  0.3002 -0.7554  0.3221
37679SOL    HW218875   3.686   3.197  10.155  0.0264  0.4535  0.3681
37680SOL     OW18876   7.490   0.888   4.072 -0.0376 -0.6246  0.2014
37680SOL    HW118877   7.419   0.872   4.134 -0.3901  0.2107  0.0169
37680SOL    HW218878   7.568   0.896   4.126 -0.2103 -0.7249  0.4678
37681SOL     OW18879   8.793   2.266   3.593 -0.2215  0.1851  0.6597
37681SOL    HW118880   8.887   2.251   3.584 -0.2783  0.4396 -0.5791
37681SOL    HW218881   8.778   2.269   3.687  0.8282 -0.9418  0.8833
37682SOL     OW18882  11.918   0.945  10.198  0.0855  0.3528 -0.0348
37682SOL    HW118883  11.962   0.894  10.265  1.4216 -0.7366 -1.6723
37682SOL    HW218884  11.897   1.028  10.241 -0.8235 -0.9825  2.2531
37683SOL     OW18885   4.243   6.291  11.377 -0.5073 -0.0013  0.1050
37683SOL    HW118886   4.286   6.229  11.319 -0.6674  0.8845 -0.9881
37683SOL    HW218887   4.206   6.358  11.319  1.4907  2.3152  1.3162
37684SOL     OW18888   8.212   3.448   5.788 -0.2722  0.0499  0.0777
37684SOL    HW118889   8.148   3.494   5.735  0.2207  1.9990  1.0804
37684SOL    HW218890   8.291   3.503   5.785 -0.0788  0.0091  2.3855
37685SOL     OW18891   3.637   7.210   3.120  0.3923  0.1952 -0.2331
37685SOL    HW118892   3.579   7.243   3.051  0.4412 -1.4747 -1.1298
37685SOL    HW218893   3.650   7.284   3.179 -1.3050  1.0737 -0.9186
37686SOL     OW18894  10.040   7.358   7.122 -0.1230  0.0765 -0.5043
37686SOL    HW118895  10.119   7.346   7.070 -1.5619 -0.4493 -2.7284
37686SOL    HW218896   9.991   7.276   7.110 -2.2131  1.3835 -1.4881
37687SOL     OW18897   6.559   7.395   5.841  0.3116 -0.5783 -0.6693
37687SOL    HW118898   6.632   7.398   5.903 -0.9200  1.4474  0.8037
37687SOL    HW218899   6.581   7.460   5.775 -1.2131  1.9891  1.1796
37688SOL     OW18900   5.257   2.413  11.394 -0.1292 -0.0555 -0.0577
37688SOL    HW118901   5.257   2.468  11.473 -1.1683 -0.3458  0.1590
37688SOL    HW218902   5.181   2.355  11.405  1.3046 -2.0311  0.0623
37689SOL     OW18903   1.706   4.662  11.315  0.3394 -0.1417 -0.2324
37689SOL    HW118904   1.756   4.589  11.278  0.5044 -1.1693  1.8332
37689SOL    HW218905   1.762   4.738  11.302  0.4699 -0.4678 -1.8159
37690SOL     OW18906   8.682   2.813   7.876  0.5784  0.1403  0.3456
37690SOL    HW118907   8.685   2.854   7.962  1.5423 -1.5420  1.1518
37690SOL    HW218908   8.755   2.852   7.828  0.8238  0.1423  0.7223
37691SOL     OW18909   7.029   3.448   7.351 -0.4806  0.1848  0.0945
37691SOL    HW118910   7.077   3.390   7.292 -3.6674 -1.4231 -1.1304
37691SOL    HW218911   7.060   3.536   7.329  0.3013 -0.5837 -2.1387
37692SOL     OW18912   8.438   7.421   9.444 -0.8113  0.1985  0.1064
37692SOL    HW118913   8.464   7.478   9.372  0.4033  1.6329  1.5636
37692SOL    HW218914   8.494   7.450   9.517  0.0226 -3.0120  0.9015
37693SOL     OW18915  11.777   1.106   0.162  0.5365  0.1322  0.9148
37693SOL    HW118916  11.820   1.133   0.081 -1.1435  0.0831 -0.0443
37693SOL    HW218917  11.775   1.010   0.157 -2.0234  0.1421 -0.4487
37694SOL     OW18918  11.738   7.132   2.202  0.4679 -0.1096  0.2156
37694SOL    HW118919  11.675   7.065   2.228  0.2429  0.0659  0.1214
37694SOL    HW218920  11.765   7.107   2.113 -0.7195  0.7235 -0.4145
37695SOL     OW18921   1.897   8.701   1.282  0.1540  0.1893 -0.0132
37695SOL    HW118922   1.915   8.733   1.371  0.3029  2.2218 -0.7173
37695SOL    HW218923   1.979   8.712   1.235 -0.6099  1.7167 -1.0774
37696SOL     OW18924   6.696   5.831   9.320 -0.3426  0.0360  0.0421
37696SOL    HW118925   6.701   5.825   9.416  2.6035 -1.3397 -0.0773
37696SOL    HW218926   6.758   5.765   9.289 -1.0942  0.5500 -2.8438
37697SOL     OW18927   6.785   7.651   5.150  0.1415  0.1581 -0.2997
37697SOL    HW118928   6.804   7.745   5.155  1.0293 -0.0605  0.8955
37697SOL    HW218929   6.785   7.622   5.241 -0.7411 -0.9037 -0.6151
37698SOL     OW18930  10.973   9.085   3.326 -0.3489  0.2835  0.0550
37698SOL    HW118931  11.026   9.065   3.404  0.7447 -0.8070 -0.9264
37698SOL    HW218932  11.018   9.041   3.254 -1.6178  0.8384 -1.1311
37699SOL     OW18933   3.312   2.496   9.000 -0.3742 -0.0002 -0.3383
37699SOL    HW118934   3.362   2.421   8.970 -0.1817  0.3790 -0.9861
37699SOL    HW218935   3.323   2.496   9.095 -0.4768 -0.8546 -0.3181
37700SOL     OW18936   6.738  11.778   0.131  0.3718 -0.5523  0.3016
37700SOL    HW118937   6.764  11.803   0.042 -1.3811 -1.5615 -0.5419
37700SOL    HW218938   6.679  11.704   0.119 -0.2207 -0.4667  2.3089
37701SOL     OW18939   5.093   9.947   4.166 -0.4137  0.2735 -0.1325
37701SOL    HW118940   5.098  10.006   4.241 -2.1011  0.1397  0.1069
37701SOL    HW218941   5.040   9.873   4.197  1.2854 -1.2097 -0.5500
37702SOL     OW18942   8.177   6.417   2.488 -0.1696  0.3066  0.3915
37702SOL    HW118943   8.098   6.455   2.449 -1.8551 -2.3202  1.0318
37702SOL    HW218944   8.171   6.324   2.468  2.6138 -0.0455  0.8231
37703SOL     OW18945   0.576  10.190   6.250  0.2112 -0.3749  0.2735
37703SOL    HW118946   0.512  10.147   6.306 -0.5353  2.3895  1.6995
37703SOL    HW218947   0.541  10.279   6.237  2.1389  0.1825 -1.6563
37704SOL     OW18948   9.056   1.903   3.592  0.1391  0.1905 -0.2336
37704SOL    HW118949   8.976   1.872   3.549 -1.9151 -1.6820  4.2380
37704SOL    HW218950   9.110   1.825   3.603  1.5381  0.9981 -1.0616
37705SOL     OW18951   2.977  11.257   2.503  0.7249 -0.5608 -0.3434
37705SOL    HW118952   3.051  11.314   2.480  0.1400  0.8467  1.0553
37705SOL    HW218953   2.999  11.224   2.590 -0.5627  0.4699  0.4252
37706SOL     OW18954   2.169   3.746   1.285 -0.7726 -1.0195  0.0500
37706SOL    HW118955   2.164   3.661   1.329 -0.1792 -0.6995  0.7538
37706SOL    HW218956   2.261   3.755   1.260 -1.0885 -1.1819 -1.2565
37707SOL     OW18957   4.428  11.794   9.151 -0.4026  0.3155  0.0573
37707SOL    HW118958   4.427  11.730   9.222  0.4992 -0.2866 -0.4549
37707SOL    HW218959   4.490  11.861   9.179 -2.0901  1.5306  1.0451
37708SOL     OW18960   2.882   1.454   1.306  0.0679 -0.0930 -0.1836
37708SOL    HW118961   2.824   1.396   1.257 -0.8434  0.0475  0.6953
37708SOL    HW218962   2.953   1.397   1.335  0.6647 -0.1655 -1.6797
37709SOL     OW18963   5.169   3.471   9.158 -0.6684 -0.4266 -0.1808
37709SOL    HW118964   5.198   3.415   9.229  2.4122  1.2851  0.0676
37709SOL    HW218965   5.095   3.519   9.194 -1.3883 -2.0462  0.6103
37710SOL     OW18966   8.192   9.799   1.421 -0.4014 -0.1448  0.3716
37710SOL    HW118967   8.265   9.743   1.447 -2.9383 -3.3356  1.2143
37710SOL    HW218968   8.205   9.880   1.470  2.7460 -0.4001  0.1375
37711SOL     OW18969  10.776   8.586   9.127  0.2241 -0.1364  0.8567
37711SOL    HW118970  10.799   8.679   9.128 -0.0915 -0.0581  1.3622
37711SOL    HW218971  10.854   8.542   9.163  0.2340 -0.0303  0.9681
37712SOL     OW18972   5.753   6.914  12.056 -0.4718 -0.1328  0.1372
37712SOL    HW118973   5.785   6.873  11.976 -1.0562 -0.1433 -0.0906
37712SOL    HW218974   5.833   6.930  12.108 -0.1344 -0.4967 -0.2648
37713SOL     OW18975   1.642   0.539   9.295  0.2973 -0.2223  0.7394
37713SOL    HW118976   1.559   0.548   9.341 -0.4864 -1.3781 -0.3727
37713SOL    HW218977   1.673   0.451   9.318  0.2165 -0.5629 -0.3836
37714SOL     OW18978   0.946   7.234   6.007  0.2610 -0.0727 -0.5189
37714SOL    HW118979   1.024   7.265   5.961 -0.7229  1.2592 -1.3531
37714SOL    HW218980   0.877   7.232   5.940 -0.6467 -0.3533  0.3970
37715SOL     OW18981   7.386   1.766  11.217  0.6380  0.2302  0.0023
37715SOL    HW118982   7.481   1.777  11.204  0.8669 -0.4766  0.9615
37715SOL    HW218983   7.377   1.749  11.310 -0.3506 -0.6530 -0.2428
37716SOL     OW18984   2.762   0.063   8.357  0.0747 -0.2225  0.3883
37716SOL    HW118985   2.680   0.080   8.310 -0.6981 -2.2010  0.8940
37716SOL    HW218986   2.828   0.058   8.288  0.2258  3.2720  0.1114
37717SOL     OW18987   5.757   6.348   2.925  0.0540  0.6319 -0.7918
37717SOL    HW118988   5.812   6.416   2.965 -2.0226  1.0753  1.5581
37717SOL    HW218989   5.671   6.361   2.964 -0.8128 -2.3716 -1.4696
37718SOL     OW18990   4.252   7.088   8.190 -0.1830 -0.0643  0.7393
37718SOL    HW118991   4.232   7.163   8.134 -1.0929 -0.2346  0.8197
37718SOL    HW218992   4.256   7.014   8.130 -0.2315 -0.1012  0.7816
37719SOL     OW18993  12.166   5.257   4.662  0.0544  0.1419 -0.4500
37719SOL    HW118994  12.072   5.268   4.681 -0.1192  1.1923 -1.7768
37719SOL    HW218995  12.182   5.164   4.676 -1.9312 -0.7537 -3.1602
37720SOL     OW18996   0.454  10.469   5.518 -0.1515  0.2403 -0.3242
37720SOL    HW118997   0.446  10.483   5.423  0.9725  0.4450 -0.3988
37720SOL    HW218998   0.490  10.381   5.526 -0.0106  0.3202 -0.0846
37721SOL     OW18999   8.250  12.294  10.061  0.0511 -1.0413  0.1927
37721SOL    HW119000   8.192  12.220  10.076 -2.0879  0.6240  0.7614
37721SOL    HW219001   8.209  12.343   9.989  1.3395 -0.3345 -0.1060
37722SOL     OW19002   9.804  12.276   2.018 -0.0007  0.5790 -0.7450
37722SOL    HW119003   9.846  12.347   1.969  1.1776  0.6637  0.3725
37722SOL    HW219004   9.839  12.282   2.106 -1.8527  0.2160  0.0789
37723SOL     OW19005  10.241   9.609   2.122 -0.2618 -0.1160  0.6219
37723SOL    HW119006  10.313   9.550   2.145 -1.4782 -1.8648  0.1415
37723SOL    HW219007  10.280   9.696   2.124  1.8142 -0.9838  0.5683
37724SOL     OW19008   2.098   6.073   9.235  0.3947  0.2445  0.9160
37724SOL    HW119009   2.106   6.167   9.251  0.8666  0.1004  1.5357
37724SOL    HW219010   2.167   6.055   9.170  0.4360  0.2849  0.9482
37725SOL     OW19011   3.939   5.010   3.226  0.0249 -0.2955 -0.0426
37725SOL    HW119012   3.982   5.056   3.153 -1.7307 -0.0267 -0.9473
37725SOL    HW219013   3.846   5.025   3.212 -0.3582  0.0045  2.4412
37726SOL     OW19014   4.788   0.607   9.357 -0.2548  0.2177 -0.2474
37726SOL    HW119015   4.710   0.663   9.356 -0.1242  0.5017  1.8454
37726SOL    HW219016   4.861   0.667   9.367  0.0559 -0.1953 -0.0357
37727SOL     OW19017   7.617   4.452   1.229 -0.0155  0.3084 -0.0726
37727SOL    HW119018   7.643   4.363   1.250 -1.1402 -0.0813 -0.2595
37727SOL    HW219019   7.521   4.450   1.229 -0.0669  1.2165 -1.2996
37728SOL     OW19020   4.439  11.855   1.896 -0.1997 -0.8249  0.0780
37728SOL    HW119021   4.468  11.776   1.941  1.2520 -1.9029 -2.5300
37728SOL    HW219022   4.347  11.837   1.876 -0.3748 -1.0637  1.0137
37729SOL     OW19023   5.186   5.470   0.781 -0.7275  0.0335 -0.2016
37729SOL    HW119024   5.202   5.553   0.825 -1.2089  0.1144 -0.1714
37729SOL    HW219025   5.109   5.487   0.726 -1.2055 -0.5650  0.2694
37730SOL     OW19026   5.556   1.696   7.751  0.2735 -0.0432  0.1912
37730SOL    HW119027   5.493   1.635   7.788  0.1996  0.4551  0.9017
37730SOL    HW219028   5.628   1.641   7.720 -1.2080 -0.7759 -2.1514
37731SOL     OW19029   6.297   8.144   5.836  0.2255 -0.0877  0.0994
37731SOL    HW119030   6.362   8.163   5.904  0.8646 -2.2190  0.1453
37731SOL    HW219031   6.219   8.117   5.885 -0.8700  2.6858  0.0522
37732SOL     OW19032   0.539   9.998   0.391 -0.5068  0.2291  0.0091
37732SOL    HW119033   0.499   9.931   0.335 -0.6030  0.5895 -0.3643
37732SOL    HW219034   0.616  10.026   0.342 -1.0941  1.2083 -0.4015
37733SOL     OW19035   8.403  11.423   8.780 -0.2547 -0.4070 -0.0123
37733SOL    HW119036   8.344  11.445   8.852  1.4719  1.2257  0.9663
37733SOL    HW219037   8.479  11.480   8.791  0.7165 -1.1028 -2.3167
37734SOL     OW19038  11.891   9.388   4.889  0.1068  0.4438 -0.8097
37734SOL    HW119039  11.878   9.460   4.950 -0.2769 -1.3038  1.3003
37734SOL    HW219040  11.986   9.380   4.881  0.1496  1.2997 -1.2410
37735SOL     OW19041   3.940   1.182  12.217 -0.3982  0.7477 -0.3327
37735SOL    HW119042   3.948   1.090  12.242 -0.5524  0.6010 -0.8196
37735SOL    HW219043   3.900   1.181  12.130 -0.4871  1.2788 -0.3057
37736SOL     OW19044   6.764   2.377   0.320  0.3717 -0.0237  0.1490
37736SOL    HW119045   6.669   2.366   0.323 -0.0363  2.7689 -0.3355
37736SOL    HW219046   6.777   2.467   0.290  3.1866 -0.3447  0.1688
37737SOL     OW19047   1.393   4.093  10.603 -0.3342  0.1733  0.3110
37737SOL    HW119048   1.299   4.092  10.583 -0.0868 -0.9031 -0.9846
37737SOL    HW219049   1.433   4.131  10.525  0.4288 -1.1274  0.0246
37738SOL     OW19050   9.113   1.043   8.754 -0.0626  0.0197 -0.1041
37738SOL    HW119051   9.175   0.974   8.779 -0.1541 -0.2048 -0.4782
37738SOL    HW219052   9.153   1.124   8.785  0.5293 -0.1007 -0.5335
37739SOL     OW19053   3.379   7.032  10.586 -0.2699  0.7108 -0.1962
37739SOL    HW119054   3.335   7.092  10.647 -0.8254 -1.1773  1.3627
37739SOL    HW219055   3.471   7.032  10.614 -0.2452  0.9095 -0.2745
37740SOL     OW19056   8.228   4.790   7.341  0.3527 -0.1132  0.4215
37740SOL    HW119057   8.253   4.755   7.426 -0.1891 -2.1883 -0.2262
37740SOL    HW219058   8.154   4.848   7.360 -1.0864 -2.0952  1.2229
37741SOL     OW19059   8.872   6.716  12.253 -0.2763 -0.6309  0.3090
37741SOL    HW119060   8.782   6.724  12.286 -0.6759 -0.6850 -0.7205
37741SOL    HW219061   8.872   6.766  12.171 -0.1341 -2.7793 -1.1055
37742SOL     OW19062   3.438  10.380   3.150 -0.8102  0.2067 -0.1739
37742SOL    HW119063   3.455  10.317   3.079  0.5247  1.0633 -0.6642
37742SOL    HW219064   3.347  10.406   3.137 -0.7653 -0.0910 -1.2255
37743SOL     OW19065   7.693  12.112  11.374 -0.0554 -0.1354  0.0192
37743SOL    HW119066   7.625  12.176  11.398  0.5054  0.0428  1.2307
37743SOL    HW219067   7.645  12.029  11.366 -0.2816 -0.2934  2.2401
37744SOL     OW19068   4.863   0.609   5.274 -0.4794  0.4933  0.2549
37744SOL    HW119069   4.849   0.688   5.222  3.2493  0.6002 -0.8339
37744SOL    HW219070   4.884   0.642   5.361  1.4843  0.8235 -0.2968
37745SOL     OW19071   7.990   5.037   6.234  0.4435 -0.4809  0.4931
37745SOL    HW119072   8.025   4.977   6.301  1.0496 -0.4085  0.2438
37745SOL    HW219073   8.065   5.091   6.209 -0.1817  0.6560  0.9910
37746SOL     OW19074   3.375   9.371   0.064 -0.3369 -0.0917 -0.5094
37746SOL    HW119075   3.377   9.440   0.129 -0.4345  2.4304 -3.0009
37746SOL    HW219076   3.334   9.297   0.109 -0.7614  1.6029  2.1193
37747SOL     OW19077   3.010  12.030   7.739  0.1836  0.1786 -0.3376
37747SOL    HW119078   2.966  12.098   7.688  0.5541  0.2911 -0.5083
37747SOL    HW219079   3.103  12.038   7.716  0.2176 -0.4569 -0.4418
37748SOL     OW19080   2.916   4.940   6.565  0.3895 -0.0130 -0.5851
37748SOL    HW119081   2.824   4.967   6.567  0.1776 -0.6950  1.1965
37748SOL    HW219082   2.952   4.970   6.649  0.2461 -4.4735  1.3651
37749SOL     OW19083   4.517   0.375  11.809 -0.1478 -0.1196  0.3955
37749SOL    HW119084   4.506   0.298  11.865  1.0764  0.1295  0.9887
37749SOL    HW219085   4.503   0.342  11.720 -2.4375 -0.4540  0.8135
37750SOL     OW19086   7.395   4.383   1.739  0.0360 -1.3013  0.0978
37750SOL    HW119087   7.440   4.426   1.812  0.0283 -1.2256  0.0576
37750SOL    HW219088   7.420   4.433   1.662 -2.4926  0.6566  0.4202
37751SOL     OW19089   1.331   3.225  10.842 -0.4124 -0.3586  0.5042
37751SOL    HW119090   1.424   3.237  10.828 -0.2697 -2.7262 -1.2583
37751SOL    HW219091   1.325   3.150  10.901 -1.2056 -0.4682  0.2938
37752SOL     OW19092   5.533   5.938   5.098 -0.2627  0.2877 -0.0028
37752SOL    HW119093   5.449   5.956   5.057 -0.2492 -0.7204 -0.5154
37752SOL    HW219094   5.526   5.976   5.186 -0.4627  2.0548 -0.7461
37753SOL     OW19095   2.915   9.561  11.328  0.4233 -0.4636 -0.2633
37753SOL    HW119096   2.907   9.473  11.366 -2.6192 -0.1994 -0.0809
37753SOL    HW219097   2.854   9.561  11.255  1.0145  1.2551 -0.7923
37754SOL     OW19098   4.270   6.452  10.191 -0.2182  0.1143  0.0636
37754SOL    HW119099   4.301   6.430  10.279  1.0780  2.1043  0.1661
37754SOL    HW219100   4.241   6.369  10.154 -1.6687 -0.6591  2.6845
37755SOL     OW19101  11.402   6.517   3.530  0.2558  0.4748  0.3862
37755SOL    HW119102  11.355   6.589   3.572  1.3482  0.7549  1.1485
37755SOL    HW219103  11.346   6.441   3.544  0.1566  0.7424  1.5603
37756SOL     OW19104   5.094   0.540   4.628  0.4181 -0.4169 -0.4600
37756SOL    HW119105   5.038   0.608   4.591 -2.3712 -3.4129 -2.3227
37756SOL    HW219106   5.043   0.503   4.700  1.2694 -1.3609 -0.3112
37757SOL     OW19107   8.436   4.160  12.150  0.6336  1.0320 -0.5907
37757SOL    HW119108   8.378   4.159  12.225  0.9077  0.0616 -0.3742
37757SOL    HW219109   8.393   4.217  12.086 -0.8592 -0.1390 -0.6747
37758SOL     OW19110   8.484   7.935   7.681 -0.7050  0.6781 -0.0777
37758SOL    HW119111   8.484   7.978   7.767 -0.9005 -0.4028  0.4811
37758SOL    HW219112   8.537   7.857   7.693 -1.0071  0.3432 -0.8599
37759SOL     OW19113   6.098   9.671   0.316 -0.2531  0.4437 -0.5260
37759SOL    HW119114   6.061   9.754   0.347 -0.2049  0.2901 -0.0391
37759SOL    HW219115   6.021   9.618   0.294 -0.2704  1.0533 -2.0653
37760SOL     OW19116   8.903   7.054   3.666 -0.2718  0.3091 -0.5131
37760SOL    HW119117   8.932   7.027   3.579 -0.5319 -0.0937 -0.4768
37760SOL    HW219118   8.951   7.135   3.684 -0.4910  0.5884 -1.1808
37761SOL     OW19119   8.440   9.502   3.753 -0.0941 -0.1174  0.7818
37761SOL    HW119120   8.524   9.538   3.780  1.2826 -0.3393 -2.7266
37761SOL    HW219121   8.457   9.409   3.737 -0.6643  0.0457 -0.9960
37762SOL     OW19122   5.592   6.664  11.256  0.2475  0.0854  0.5018
37762SOL    HW119123   5.585   6.688  11.164  0.6383 -1.5834  0.0069
37762SOL    HW219124   5.681   6.628  11.265  0.0889 -0.0976  1.4521
37763SOL     OW19125   5.414   3.298   7.952  0.0505  0.2846  0.3403
37763SOL    HW119126   5.415   3.216   7.903 -0.1914  0.5986 -0.1934
37763SOL    HW219127   5.321   3.322   7.956  0.0441  0.1761  1.1021
37764SOL     OW19128  10.717   5.449   6.350 -0.1394  0.1191 -0.4100
37764SOL    HW119129  10.645   5.511   6.338  0.3510  0.7572 -0.1416
37764SOL    HW219130  10.675   5.364   6.361 -0.8654  0.5339  0.0724
37765SOL     OW19131   7.880   1.619   2.975 -0.2732  0.1246 -0.0969
37765SOL    HW119132   7.830   1.700   2.962 -1.8205 -1.1120 -2.4493
37765SOL    HW219133   7.835   1.574   3.046 -0.0825  0.7510  0.4430
37766SOL     OW19134   1.564   8.248  10.479  0.3177 -1.2298  0.3924
37766SOL    HW119135   1.576   8.265  10.573 -0.2028  1.3006  0.0593
37766SOL    HW219136   1.544   8.333  10.441 -1.7853 -2.5415 -1.7071
37767SOL     OW19137   9.324   1.742   0.269 -0.3520 -0.4076  0.2840
37767SOL    HW119138   9.297   1.823   0.226 -1.2523 -1.0202 -0.3338
37767SOL    HW219139   9.391   1.704   0.211 -0.2239 -0.3124  0.3691
37768SOL     OW19140   1.239   5.010  12.021  0.0441 -0.4742 -0.0983
37768SOL    HW119141   1.236   5.030  11.927  1.7370  0.8402  0.0650
37768SOL    HW219142   1.294   4.932  12.027  1.9325  0.7870 -0.1015
37769SOL     OW19143   0.262   4.751  10.153  0.1198 -0.3525  0.0221
37769SOL    HW119144   0.304   4.762  10.068  0.9361 -1.6740  0.2372
37769SOL    HW219145   0.189   4.813  10.152  2.0144  1.9923 -0.3590
37770SOL     OW19146   4.326   8.666   9.437  0.1168 -0.2851  0.1444
37770SOL    HW119147   4.357   8.694   9.351 -0.5796  0.8889  0.2610
37770SOL    HW219148   4.238   8.633   9.421  0.3147 -0.9059  0.2815
37771SOL     OW19149   5.220  10.127  10.109 -0.9358  0.9624  0.1916
37771SOL    HW119150   5.135  10.084  10.096 -0.3135  0.2712 -1.8886
37771SOL    HW219151   5.283  10.055  10.111 -0.3206  1.4983  1.3648
37772SOL     OW19152   4.208   4.279   8.571  0.1081  1.0100 -0.1965
37772SOL    HW119153   4.140   4.220   8.601  0.3194  1.1582  0.5925
37772SOL    HW219154   4.203   4.275   8.476  0.4180 -0.6344 -0.1803
37773SOL     OW19155   6.307   1.138   0.121  0.0142 -0.2012 -0.0559
37773SOL    HW119156   6.246   1.147   0.048 -1.1249  1.7504  1.0605
37773SOL    HW219157   6.259   1.170   0.197  1.9586  0.0575  1.1488
37774SOL     OW19158   0.950   6.742   5.585 -0.0970 -0.4785 -0.2245
37774SOL    HW119159   0.927   6.833   5.566 -0.0114 -0.0468  1.4914
37774SOL    HW219160   0.870   6.693   5.570 -0.4440  0.0551 -0.1568
37775SOL     OW19161  10.182  11.103  11.386  0.9635  0.2759 -0.1967
37775SOL    HW119162  10.219  11.043  11.452  1.3377  1.0924  0.3446
37775SOL    HW219163  10.188  11.189  11.426 -1.3343  0.4871 -0.1715
37776SOL     OW19164   6.794   8.787  11.549 -0.4499  0.0154 -0.2409
37776SOL    HW119165   6.869   8.768  11.493  1.0852  1.4204  1.2462
37776SOL    HW219166   6.821   8.758  11.636 -0.7968  2.3213  0.7049
37777SOL     OW19167   0.625   0.088   2.948  0.4747  0.1290 -0.0657
37777SOL    HW119168   0.546   0.139   2.967  0.3539 -0.2365  0.4629
37777SOL    HW219169   0.600  -0.002   2.968  0.5746 -0.1923 -1.3363
37778SOL     OW19170  11.880   4.460   1.683  0.2210  0.3431 -0.1945
37778SOL    HW119171  11.948   4.509   1.729  0.5613  0.8449 -1.1933
37778SOL    HW219172  11.808   4.454   1.746  0.0318  2.4435 -0.1330
37779SOL     OW19173   9.821  11.708   0.301 -0.3662  0.0293  0.1975
37779SOL    HW119174   9.850  11.638   0.360 -0.1597 -1.5217 -1.6585
37779SOL    HW219175   9.856  11.684   0.216 -0.7833  2.1293 -0.6233
37780SOL     OW19176   9.417   3.155   6.986 -0.0874 -0.3422  0.2897
37780SOL    HW119177   9.386   3.127   6.900 -1.4090 -0.5220  0.8126
37780SOL    HW219178   9.420   3.075   7.038 -3.2629  0.2484  1.6011
37781SOL     OW19179  10.289  10.998   4.822  0.1502  0.1188  0.1243
37781SOL    HW119180  10.333  11.026   4.902  1.7028 -2.2044  0.1603
37781SOL    HW219181  10.352  11.016   4.752 -0.5613  0.6587 -0.3969
37782SOL     OW19182   0.004   2.049   3.831  0.0366 -0.2813  0.0706
37782SOL    HW119183  -0.058   2.108   3.873 -1.0681  0.4817 -2.4276
37782SOL    HW219184  -0.003   1.968   3.881  2.1416  1.7127  4.1007
37783SOL     OW19185  11.257   8.574   7.047  0.4803 -0.5962 -0.2051
37783SOL    HW119186  11.217   8.648   7.001  1.6481  0.1937  0.0075
37783SOL    HW219187  11.348   8.601   7.062  1.0364 -2.2235 -0.4388
37784SOL     OW19188   4.562   7.098   1.068 -0.4742 -0.2735 -0.1101
37784SOL    HW119189   4.503   7.073   1.139 -0.0641 -0.0363  0.3209
37784SOL    HW219190   4.642   7.126   1.113 -0.7401  1.3662 -0.5916
37785SOL     OW19191  11.724   8.215   5.270 -0.4937 -0.4080 -0.3853
37785SOL    HW119192  11.754   8.285   5.327 -0.0242  0.4036 -1.5828
37785SOL    HW219193  11.801   8.160   5.257 -0.2234  0.1558 -1.2774
37786SOL     OW19194   2.407   6.088   2.993 -0.0859  0.1091  0.4616
37786SOL    HW119195   2.458   6.148   2.938 -1.1089 -0.0307 -0.6890
37786SOL    HW219196   2.416   6.003   2.950 -0.0120 -0.2318  1.1372
37787SOL     OW19197   3.964  10.341   1.769  0.5158 -0.1832 -0.4223
37787SOL    HW119198   4.015  10.413   1.731  1.6372 -1.2512 -0.9854
37787SOL    HW219199   4.007  10.322   1.852  0.5902 -0.6013 -0.5556
37788SOL     OW19200   6.987   9.766   0.554  0.1237  0.1174  0.2545
37788SOL    HW119201   6.900   9.756   0.516 -0.4581 -0.1288  1.6170
37788SOL    HW219202   6.973   9.772   0.648  1.6253 -0.4919  0.5586
37789SOL     OW19203  10.150   5.948  12.051 -0.1720 -0.1352 -0.4183
37789SOL    HW119204  10.170   5.964  12.143 -0.0878  1.5432 -0.7061
37789SOL    HW219205  10.136   5.853  12.046 -1.1886 -0.1273  1.5003
37790SOL     OW19206   6.635   1.658   0.087  0.7218  0.6217  0.1338
37790SOL    HW119207   6.544   1.631   0.077  1.0451 -0.7682  0.7275
37790SOL    HW219208   6.652   1.652   0.181  1.1617  1.8413  0.1595
37791SOL     OW19209   2.044   7.909  10.700  0.3406 -0.4103  0.3173
37791SOL    HW119210   2.105   7.884  10.770  1.7119 -0.3644 -0.8174
37791SOL    HW219211   2.097   7.908  10.620 -1.1139 -0.1643 -0.6948
37792SOL     OW19212   5.428   1.929   1.870  0.0057 -0.1106  0.1490
37792SOL    HW119213   5.419   1.859   1.806 -2.1898 -2.3803  2.6824
37792SOL    HW219214   5.365   1.995   1.843 -1.7666 -1.5824  0.5226
37793SOL     OW19215   4.100   5.596   6.071 -0.2832 -0.3017  0.2187
37793SOL    HW119216   4.116   5.559   5.984 -0.4236  1.1514 -0.4675
37793SOL    HW219217   4.027   5.545   6.106 -0.8171 -0.3408 -0.9009
37794SOL     OW19218   1.360   2.316   8.617 -0.6169 -0.5515  0.3313
37794SOL    HW119219   1.361   2.379   8.689 -2.5656  0.6453 -0.6162
37794SOL    HW219220   1.338   2.233   8.659  2.8478 -0.9041  1.7253
37795SOL     OW19221   8.887   5.969   2.114 -0.2498  0.0265 -0.0949
37795SOL    HW119222   8.849   5.889   2.153 -1.1926  0.9415  0.9650
37795SOL    HW219223   8.970   5.981   2.160  0.5328 -1.0258 -1.1767
37796SOL     OW19224  11.693   3.557   6.281 -0.4366  0.0993 -0.4611
37796SOL    HW119225  11.752   3.627   6.252 -1.2100  1.0018  0.1047
37796SOL    HW219226  11.750   3.482   6.296  0.8350  1.4068  1.6658
37797SOL     OW19227   5.089   7.082   2.249 -0.0362  0.0042 -1.0175
37797SOL    HW119228   5.162   7.075   2.188  0.8196 -1.7668  0.1234
37797SOL    HW219229   5.025   7.018   2.219  0.5807 -1.1969  0.1352
37798SOL     OW19230  10.787   4.489   7.639  0.1987  0.2039 -0.2510
37798SOL    HW119231  10.698   4.480   7.673  0.8330 -1.2611  1.1613
37798SOL    HW219232  10.838   4.426   7.689  2.1151  1.2347 -0.8065
37799SOL     OW19233   4.929   2.270  10.661  0.3189  0.2466 -0.5069
37799SOL    HW119234   4.944   2.177  10.680 -0.4616  0.2761  0.3411
37799SOL    HW219235   4.998   2.315  10.709  0.2971  0.1322 -0.3648
37800SOL     OW19236   2.531   3.153   6.293  0.5459 -0.2283 -0.5715
37800SOL    HW119237   2.520   3.169   6.199  2.2630  1.3689 -0.5607
37800SOL    HW219238   2.623   3.128   6.302  0.5578  0.2313  0.7381
37801SOL     OW19239   7.025   6.309   7.983  0.8425 -0.2462 -0.3244
37801SOL    HW119240   7.105   6.304   8.035  0.9273  0.7024 -0.3583
37801SOL    HW219241   7.004   6.402   7.979  0.5458 -0.3493 -1.5330
37802SOL     OW19242   0.494   9.063   0.889 -0.5242  0.9049 -0.0428
37802SOL    HW119243   0.417   9.015   0.859 -1.0040  0.8226  1.2859
37802SOL    HW219244   0.460   9.127   0.952  0.5275  0.5811  0.8860
37803SOL     OW19245   3.281   6.120   8.242 -0.2218 -0.0885 -0.3465
37803SOL    HW119246   3.374   6.146   8.246 -0.2710 -0.0714  1.4017
37803SOL    HW219247   3.267   6.098   8.151  2.1961 -2.6090 -0.2480
37804SOL     OW19248   3.380   3.586   0.785  0.3069  0.0699  0.1580
37804SOL    HW119249   3.452   3.559   0.841  0.3674  1.6635  0.9023
37804SOL    HW219250   3.421   3.609   0.701  0.5226 -0.0208  0.2402
37805SOL     OW19251   3.224   9.257   6.757  0.2865 -0.3615 -0.2994
37805SOL    HW119252   3.141   9.296   6.788  0.4763  0.4047 -0.7180
37805SOL    HW219253   3.198   9.177   6.712 -0.1092 -0.8110  0.6925
37806SOL     OW19254   0.991  11.925   6.585  0.3443  0.0434 -0.4451
37806SOL    HW119255   1.066  11.984   6.593  0.1457  0.0765  1.9339
37806SOL    HW219256   0.915  11.982   6.596  0.0035 -0.2462 -1.1754
37807SOL     OW19257   8.358   8.403   4.134 -0.1741 -0.2077  0.2098
37807SOL    HW119258   8.302   8.367   4.202  0.0704 -0.5282  0.2405
37807SOL    HW219259   8.409   8.471   4.179  0.2549 -0.6761  0.4295
37808SOL     OW19260   6.544   9.032   5.206  0.2146  0.6510  0.3348
37808SOL    HW119261   6.552   9.098   5.137  0.0859 -0.5051 -0.8230
37808SOL    HW219262   6.634   9.014   5.233  0.4107 -0.1904 -0.8235
37809SOL     OW19263   7.515   6.599   8.200  0.5588 -0.5922 -0.1672
37809SOL    HW119264   7.497   6.518   8.249  1.4651 -0.1182  0.9918
37809SOL    HW219265   7.443   6.658   8.224 -0.2263 -1.1038 -1.1874
37810SOL     OW19266   9.347   9.532  11.641 -0.2967  0.5354  0.5127
37810SOL    HW119267   9.332   9.619  11.604 -3.6668 -0.4191 -0.8076
37810SOL    HW219268   9.410   9.491  11.582 -0.0263  1.4877  0.1171
37811SOL     OW19269   2.625   8.386   4.347  0.2142 -0.2707 -0.3577
37811SOL    HW119270   2.569   8.319   4.385  0.6054 -1.4660 -1.7664
37811SOL    HW219271   2.567   8.437   4.289 -0.1378  0.8196  0.9025
37812SOL     OW19272   1.731   6.668   7.630 -0.1580 -0.2015  0.2272
37812SOL    HW119273   1.756   6.756   7.658  1.2698  0.3955 -2.5366
37812SOL    HW219274   1.684   6.683   7.548  0.1142 -2.0218 -0.2840
37813SOL     OW19275   9.209   0.699   3.108 -0.5107 -0.1527 -0.2469
37813SOL    HW119276   9.270   0.773   3.105 -0.6874 -0.0096 -0.3107
37813SOL    HW219277   9.251   0.637   3.167 -1.0865  0.6559  1.0641
37814SOL     OW19278   5.760  10.737   6.575  0.5985  0.7768  0.1447
37814SOL    HW119279   5.681  10.744   6.628  0.7263  2.2838  0.1752
37814SOL    HW219280   5.801  10.656   6.605 -2.4795 -1.8510 -2.0850
37815SOL     OW19281  10.845   0.003   2.355 -0.2907  0.5322  0.1490
37815SOL    HW119282  10.832  -0.090   2.338  0.3439  0.1763  1.4406
37815SOL    HW219283  10.853   0.043   2.269 -1.1179 -0.5168 -0.4418
37816SOL     OW19284  12.099   1.349  11.671 -0.4038 -0.1297 -0.0605
37816SOL    HW119285  12.106   1.412  11.743  0.5915 -0.9125  0.5438
37816SOL    HW219286  12.072   1.268  11.712  1.2326 -0.8776 -0.3607
37817SOL     OW19287   2.114   0.048   6.033 -0.2705  0.2267 -0.1201
37817SOL    HW119288   2.023   0.072   6.052 -0.2619  1.0971 -1.1053
37817SOL    HW219289   2.107  -0.020   5.966 -0.1936  0.9052 -0.8335
37818SOL     OW19290   9.792  11.357   6.013 -0.4669 -0.0646  0.4125
37818SOL    HW119291   9.773  11.266   5.991  1.2352 -0.5548  0.8191
37818SOL    HW219292   9.730  11.408   5.961 -1.0654 -1.4230 -0.2474
37819SOL     OW19293  12.116   2.458   1.338  0.5495 -0.1514  0.8853
37819SOL    HW119294  12.202   2.462   1.380  1.2682  1.8397 -0.5943
37819SOL    HW219295  12.062   2.519   1.389  0.4102 -0.3507  0.9779
37820SOL     OW19296   0.076   5.260   9.296 -0.3514 -0.1527  0.5567
37820SOL    HW119297  -0.013   5.270   9.264 -0.6261  0.9560  1.6194
37820SOL    HW219298   0.129   5.314   9.238 -0.7997  1.5693  1.6878
37821SOL     OW19299   2.296  10.361   5.251  0.1945  0.4432 -0.3232
37821SOL    HW119300   2.322  10.283   5.202  1.2959  0.4979  0.1594
37821SOL    HW219301   2.320  10.435   5.195 -1.1005  0.4633 -0.9038
37822SOL     OW19302   3.097   0.649   8.846 -0.4965 -0.0664 -0.5140
37822SOL    HW119303   3.082   0.566   8.801 -2.0053 -0.4021  0.5427
37822SOL    HW219304   3.175   0.685   8.804  0.0586 -1.9004 -1.1510
37823SOL     OW19305   6.381   2.440   7.691  0.1443  0.1835  0.5780
37823SOL    HW119306   6.368   2.426   7.597 -1.9268  0.7783  0.7103
37823SOL    HW219307   6.295   2.467   7.723  1.3316  2.2797  2.2455
37824SOL     OW19308   5.615   1.968   6.783 -0.8199  0.4446  0.2788
37824SOL    HW119309   5.702   1.963   6.822 -0.3254 -0.4890 -0.8740
37824SOL    HW219310   5.556   1.942   6.854 -0.1682  1.0511  1.0645
37825SOL     OW19311   7.831   8.379   8.803 -0.2527  0.1908 -0.3998
37825SOL    HW119312   7.766   8.446   8.825  1.5169  1.6860  0.5762
37825SOL    HW219313   7.909   8.428   8.776  0.9527 -1.4736 -0.1425
37826SOL     OW19314   2.950   2.835   2.978 -0.2146 -0.2720  0.5968
37826SOL    HW119315   2.897   2.903   3.018 -0.1767  0.5231 -0.6597
37826SOL    HW219316   3.039   2.871   2.977  0.0571 -0.9141  1.1914
37827SOL     OW19317   4.632   1.100   2.205 -0.0916  0.3395  0.0450
37827SOL    HW119318   4.563   1.044   2.170  1.1389 -1.6106  0.5540
37827SOL    HW219319   4.602   1.124   2.293 -0.3278 -0.1119  0.0900
37828SOL     OW19320   3.293   3.421  10.321  0.5579 -0.0195  0.0375
37828SOL    HW119321   3.321   3.504  10.360 -2.3981  1.0456  0.1217
37828SOL    HW219322   3.290   3.360  10.394  1.6062  0.0890  0.1881
37829SOL     OW19323   8.976   3.407   3.436 -0.5436  0.2902 -0.4398
37829SOL    HW119324   9.033   3.395   3.512 -2.1167  0.7273  0.8700
37829SOL    HW219325   8.983   3.501   3.416 -1.8401  0.6452  0.6331
37830SOL     OW19326  11.377  10.070   5.063 -0.6638  0.4512 -0.8874
37830SOL    HW119327  11.436  10.139   5.032  1.0314 -0.1104  0.8595
37830SOL    HW219328  11.432  10.016   5.120 -2.8788 -0.1659  0.7797
37831SOL     OW19329   5.737   9.793   9.399  0.1547 -0.3587  0.1265
37831SOL    HW119330   5.817   9.783   9.451  0.8048 -0.5612 -0.8774
37831SOL    HW219331   5.706   9.704   9.384  0.3917 -0.3505 -0.4506
37832SOL     OW19332  11.223   0.562   3.053 -0.2453  0.5479  0.4207
37832SOL    HW119333  11.284   0.549   3.124  1.0203 -0.7772 -0.8522
37832SOL    HW219334  11.176   0.479   3.045  0.7081  0.1255 -1.2330
37833SOL     OW19335   8.773  11.104   5.397  0.2993 -0.5982 -0.2910
37833SOL    HW119336   8.862  11.130   5.371 -0.2229  1.5343 -0.1636
37833SOL    HW219337   8.785  11.056   5.479  1.2765  0.7857  0.4126
37834SOL     OW19338  10.916   3.173   6.205 -0.3060  0.2503  0.2575
37834SOL    HW119339  10.934   3.105   6.141 -0.2460  1.0352 -0.5829
37834SOL    HW219340  10.886   3.126   6.282 -0.2522 -0.7236 -0.2980
37835SOL     OW19341   1.535   6.552   1.588  0.1062  0.4295  0.1663
37835SOL    HW119342   1.460   6.579   1.535  0.0897 -2.5939 -1.6320
37835SOL    HW219343   1.610   6.594   1.547 -0.3386  1.4451  0.3811
37836SOL     OW19344   4.177  11.336   0.108  0.2624 -0.2619 -0.5213
37836SOL    HW119345   4.204  11.317   0.198 -1.6624 -0.9813 -0.0428
37836SOL    HW219346   4.259  11.338   0.059  1.3161 -0.4478  1.1357
37837SOL     OW19347  10.946   4.680   3.003  0.3780  0.0742  0.3557
37837SOL    HW119348  10.925   4.703   2.913  0.8050  1.0160  0.4874
37837SOL    HW219349  10.915   4.590   3.013 -0.8275  0.3929 -0.3443
37838SOL     OW19350  10.012  10.849  11.553  0.5579  0.6617 -0.5592
37838SOL    HW119351  10.083  10.910  11.574  1.0587  0.0592 -0.4860
37838SOL    HW219352  10.014  10.784  11.623  0.9157 -0.2035 -1.3536
37839SOL     OW19353  11.536   6.299   5.944  0.6118 -0.1645  0.0510
37839SOL    HW119354  11.627   6.313   5.918  0.0302 -1.6514 -3.3527
37839SOL    HW219355  11.534   6.208   5.973 -0.2014 -1.1191 -2.7081
37840SOL     OW19356   2.848   3.781   3.726  0.1646  0.0086  0.6477
37840SOL    HW119357   2.821   3.832   3.802  0.7067  0.5172  0.5044
37840SOL    HW219358   2.870   3.846   3.660  3.9724 -0.1910  1.4704
37841SOL     OW19359   9.203   4.469   5.163  0.5223 -0.4401  0.2902
37841SOL    HW119360   9.239   4.430   5.084  0.7182 -0.4806  0.3993
37841SOL    HW219361   9.114   4.495   5.138  1.1359  1.0724 -0.4289
37842SOL     OW19362   5.726   0.218   4.339  0.1826  0.3162 -0.1070
37842SOL    HW119363   5.794   0.198   4.275  1.0653 -0.0415  0.9085
37842SOL    HW219364   5.732   0.313   4.351 -0.4523  0.4861 -1.0434
37843SOL     OW19365   0.494   4.408   6.062  0.0851  0.2190  0.3428
37843SOL    HW119366   0.437   4.411   5.985 -0.3743  0.9712  0.6969
37843SOL    HW219367   0.442   4.447   6.132  0.6772  0.0003  0.9213
37844SOL     OW19368   0.615   1.384   8.545  0.6978  0.0378  0.4666
37844SOL    HW119369   0.642   1.472   8.572  1.0027 -0.5116  2.0411
37844SOL    HW219370   0.696   1.333   8.548  1.0519  0.1708 -2.8027
37845SOL     OW19371   2.133   7.688   8.580  0.0744  0.1934 -0.6490
37845SOL    HW119372   2.133   7.764   8.522  2.3740  1.2914  0.6590
37845SOL    HW219373   2.044   7.684   8.614 -0.4675  1.4136 -1.8337
37846SOL     OW19374  10.792  11.436   2.760 -0.0803  0.5397  0.2244
37846SOL    HW119375  10.831  11.520   2.787  0.0461  0.8793 -0.9400
37846SOL    HW219376  10.861  11.372   2.776 -0.5140  0.4698  2.0563
37847SOL     OW19377   4.136   6.887   8.000  0.1492  0.4672  0.0964
37847SOL    HW119378   4.215   6.833   7.998 -0.5832 -0.6191 -1.5618
37847SOL    HW219379   4.096   6.868   8.085  0.4381 -0.8092 -0.0381
37848SOL     OW19380   1.164  10.686   5.929 -0.1423  0.8918 -0.1875
37848SOL    HW119381   1.206  10.626   5.991  0.7178  0.4777 -1.1362
37848SOL    HW219382   1.125  10.754   5.984  0.5881  0.5280  0.8139
37849SOL     OW19383   5.413   0.553  11.485 -0.3916 -0.1965  0.4888
37849SOL    HW119384   5.418   0.559  11.390  1.7436  2.7150  0.6348
37849SOL    HW219385   5.468   0.477  11.507  0.0892 -0.1657 -0.5541
37850SOL     OW19386   6.185   9.795   1.887 -0.1872 -0.4922 -0.3414
37850SOL    HW119387   6.269   9.782   1.930 -0.9679  1.2921  1.9082
37850SOL    HW219388   6.157   9.707   1.861  0.7695 -1.5589  2.0321
37851SOL     OW19389  11.322   6.663   4.661  0.0550  0.3285  0.1765
37851SOL    HW119390  11.385   6.730   4.637  0.2631  0.3810  0.8554
37851SOL    HW219391  11.237   6.707   4.657  0.0436  0.2432 -0.7828
37852SOL     OW19392   1.803   8.448   1.211 -0.1566 -0.5871  0.0289
37852SOL    HW119393   1.811   8.425   1.118 -1.8615 -1.1747 -0.0003
37852SOL    HW219394   1.836   8.538   1.216 -0.8146 -0.2427 -1.3113
37853SOL     OW19395   7.987   5.554   1.431 -0.7537 -1.0717  0.5697
37853SOL    HW119396   7.942   5.474   1.459 -1.7171 -1.2494 -1.3037
37853SOL    HW219397   7.926   5.597   1.372 -0.1553  0.9775  1.3601
37854SOL     OW19398   6.363   3.055   8.736  0.2735 -0.2653  0.7221
37854SOL    HW119399   6.280   3.036   8.780 -0.0037  1.8324  1.2045
37854SOL    HW219400   6.392   3.138   8.773  2.5619 -0.8754  0.4809
37855SOL     OW19401   6.429   7.335   2.759 -0.0516  0.1845 -0.7904
37855SOL    HW119402   6.440   7.309   2.667 -0.8436  1.6135 -1.3128
37855SOL    HW219403   6.340   7.309   2.781 -0.4047  1.2220 -0.9269
37856SOL     OW19404   3.819   9.871   7.356 -0.2236 -0.4523  0.3577
37856SOL    HW119405   3.856   9.850   7.442 -1.1492  0.2933  0.9493
37856SOL    HW219406   3.874   9.822   7.294 -0.1664 -1.8048  1.4377
37857SOL     OW19407   1.101   8.274   4.088 -0.0461  0.1005 -0.0486
37857SOL    HW119408   1.042   8.344   4.115 -0.7661 -0.0208 -1.2223
37857SOL    HW219409   1.138   8.304   4.005 -1.5127 -1.4863 -1.3669
37858SOL     OW19410   4.923   2.926   0.379  0.2887 -0.6589 -0.1389
37858SOL    HW119411   4.952   2.873   0.454 -0.7873  0.4228  1.0936
37858SOL    HW219412   4.994   2.989   0.365 -0.0023 -0.1142  0.7503
37859SOL     OW19413   7.124  10.147   0.605  0.5827 -0.0872  0.2155
37859SOL    HW119414   7.078  10.110   0.680  1.3221  2.0593  1.8586
37859SOL    HW219415   7.061  10.207   0.565  0.3160 -0.9439 -0.6699
37860SOL     OW19416   5.927   6.035   2.820  0.1351  0.5385  0.6905
37860SOL    HW119417   5.996   6.100   2.806  0.0101  0.6762  0.7075
37860SOL    HW219418   5.847   6.077   2.787  0.6146 -0.9627 -2.7957
37861SOL     OW19419   4.810   2.821  10.050 -0.0719 -0.3708 -0.1947
37861SOL    HW119420   4.828   2.906  10.008  2.6115  0.3727  2.1099
37861SOL    HW219421   4.857   2.825  10.133 -3.2010 -2.6189  1.9158
37862SOL     OW19422  10.477  11.644   7.060 -0.3836  0.0919  0.3887
37862SOL    HW119423  10.549  11.598   7.018  0.3453 -0.4611  2.1725
37862SOL    HW219424  10.473  11.729   7.016  1.0576 -0.0423 -0.0357
37863SOL     OW19425  11.375   3.153   5.126 -0.3403 -0.2063 -0.2217
37863SOL    HW119426  11.355   3.064   5.153  0.6238 -0.4133 -0.1465
37863SOL    HW219427  11.446   3.143   5.063  1.6216  0.6334  1.7266
37864SOL     OW19428   6.728   6.889   9.790 -0.1941 -0.5556 -0.2578
37864SOL    HW119429   6.740   6.819   9.726 -1.0241 -1.6844  0.7781
37864SOL    HW219430   6.633   6.894   9.803 -0.0616 -0.1286  0.6463
37865SOL     OW19431   9.601  10.850   1.017 -0.0187 -0.3891  0.7497
37865SOL    HW119432   9.672  10.797   0.978  1.1021 -0.1634  2.3843
37865SOL    HW219433   9.547  10.786   1.064 -1.3369 -0.6530 -1.0411
37866SOL     OW19434   2.272   7.849   0.577 -0.2919  0.3890 -0.2358
37866SOL    HW119435   2.193   7.899   0.558 -0.5419  0.2550  0.4631
37866SOL    HW219436   2.287   7.861   0.670  0.0064 -0.3191 -0.1855
37867SOL     OW19437   1.994   5.937   9.476 -0.0848  0.7429  0.2046
37867SOL    HW119438   1.980   6.020   9.522  0.5484  1.1415 -0.3076
37867SOL    HW219439   2.031   5.962   9.392  1.1382 -0.1251  0.4655
37868SOL     OW19440   3.596   6.182   4.730  0.0665  0.1694 -0.2834
37868SOL    HW119441   3.682   6.222   4.743  0.0005  0.5207 -0.8795
37868SOL    HW219442   3.615   6.093   4.700  0.2171  0.0691  0.1047
37869SOL     OW19443   1.594   9.906   9.326 -0.8411  0.4239 -0.0761
37869SOL    HW119444   1.612   9.870   9.414 -1.3915  1.6377  0.5552
37869SOL    HW219445   1.546   9.836   9.282 -0.2302 -0.3491  0.4541
37870SOL     OW19446   9.561  10.544   4.452 -0.2473 -1.0089  0.3004
37870SOL    HW119447   9.531  10.455   4.434 -0.4831 -0.6103 -1.3817
37870SOL    HW219448   9.650  10.547   4.416 -0.2181 -0.5795  0.4029
37871SOL     OW19449   7.309   8.071   2.715 -0.2899 -0.1975  0.4496
37871SOL    HW119450   7.301   8.022   2.796 -0.2334  0.6495  0.9818
37871SOL    HW219451   7.379   8.134   2.732  0.0746 -0.3531 -0.4348
37872SOL     OW19452   5.323   3.677   8.528  0.1059 -0.7146  0.0460
37872SOL    HW119453   5.392   3.665   8.594  0.2751  0.4586  0.1047
37872SOL    HW219454   5.357   3.746   8.470 -0.7065 -0.6336 -0.3529
37873SOL     OW19455   9.119  11.893   9.747  0.8124 -0.3317 -0.1181
37873SOL    HW119456   9.185  11.847   9.697  0.8602 -1.4137  0.8920
37873SOL    HW219457   9.098  11.971   9.695  2.6055 -0.1502 -0.6169
37874SOL     OW19458   1.348  12.269   3.534 -0.1518  0.0876 -0.8340
37874SOL    HW119459   1.280  12.202   3.548  0.9111 -0.9543 -0.4361
37874SOL    HW219460   1.430  12.225   3.558  0.5845  1.5681 -0.5079
37875SOL     OW19461   7.458   5.537   0.582 -0.5463 -0.0697  0.1788
37875SOL    HW119462   7.507   5.459   0.556 -1.2711 -0.5992  0.3397
37875SOL    HW219463   7.410   5.563   0.503 -0.7124 -0.1099  0.2642
37876SOL     OW19464   8.153   7.569   1.052  0.0038 -0.0151 -0.6895
37876SOL    HW119465   8.096   7.573   0.975 -2.4852 -2.1940  0.8477
37876SOL    HW219466   8.232   7.524   1.021  0.1859  1.4063 -2.4612
37877SOL     OW19467   7.430   5.137   0.161  0.2100 -0.0002  0.4332
37877SOL    HW119468   7.487   5.188   0.219 -0.0489  1.3009 -0.4155
37877SOL    HW219469   7.353   5.192   0.149 -0.1405 -0.6534 -0.4195
37878SOL     OW19470   7.724   4.321   2.859  0.4357  0.0864 -0.9046
37878SOL    HW119471   7.774   4.249   2.820  1.3512  0.7031 -0.8958
37878SOL    HW219472   7.634   4.287   2.864  0.9239 -1.2075 -0.4989
37879SOL     OW19473  11.637  10.727   0.489 -0.3312 -0.0281 -0.9979
37879SOL    HW119474  11.617  10.722   0.582  0.1422  1.7898 -0.7524
37879SOL    HW219475  11.552  10.734   0.446 -0.5072  0.6188 -0.5573
37880SOL     OW19476   0.962   1.872   0.320 -0.1370 -0.2649 -0.3900
37880SOL    HW119477   1.045   1.826   0.329  0.1466  0.5060  1.5927
37880SOL    HW219478   0.962   1.907   0.231  1.6169 -0.3905 -0.4590
37881SOL     OW19479   3.907   5.372   9.824 -0.1539  0.3229 -0.5492
37881SOL    HW119480   3.879   5.391   9.913  1.2812 -1.7053  0.4253
37881SOL    HW219481   3.951   5.452   9.794 -0.4188  0.9388  0.6712
37882SOL     OW19482   2.218  10.792   6.911  0.3048  0.4860  0.5412
37882SOL    HW119483   2.131  10.760   6.936 -0.4257  1.6230 -0.4441
37882SOL    HW219484   2.235  10.866   6.968  0.1098  0.9857 -0.0389
37883SOL     OW19485   2.736   7.869  10.603  0.4038  0.3581  0.0447
37883SOL    HW119486   2.816   7.816  10.610  0.8311  1.1985  2.6390
37883SOL    HW219487   2.751   7.943  10.663 -1.2195  2.0478 -1.4978
37884SOL     OW19488   3.673  10.538   5.387 -0.8569  0.2667  0.8397
37884SOL    HW119489   3.726  10.618   5.395 -1.3745  0.8339 -0.9343
37884SOL    HW219490   3.657  10.511   5.478  0.3357  1.4947  1.4586
37885SOL     OW19491   9.039   0.634   9.766 -0.0798 -0.3246  0.0533
37885SOL    HW119492   9.109   0.577   9.798 -0.9523 -0.3744  2.0062
37885SOL    HW219493   8.961   0.605   9.813 -1.4098 -0.1262 -1.9233
37886SOL     OW19494  11.471   8.042   5.437 -0.0270  0.2265 -0.4202
37886SOL    HW119495  11.438   7.986   5.506  1.5722  0.6536  0.7470
37886SOL    HW219496  11.393   8.073   5.391 -1.2122  0.7731  1.8492
37887SOL     OW19497   4.673   6.581   6.988  0.1240 -0.2331  0.1279
37887SOL    HW119498   4.607   6.650   6.998 -0.4565 -0.6422 -0.7790
37887SOL    HW219499   4.756   6.628   6.986 -0.0713  0.2605  1.6980
37888SOL     OW19500   1.572   2.837   7.650 -0.3672 -0.2688 -0.3066
37888SOL    HW119501   1.632   2.895   7.603 -1.3878  0.3147 -0.9037
37888SOL    HW219502   1.486   2.856   7.614 -0.9307 -1.0860  0.5573
37889SOL     OW19503   3.383   8.476   5.324  0.0252 -0.4348 -0.3178
37889SOL    HW119504   3.376   8.563   5.364 -0.1948 -0.8914  0.6849
37889SOL    HW219505   3.341   8.486   5.239  0.5946  0.6059 -0.4992
37890SOL     OW19506   0.610   0.857   5.866 -0.2399 -0.1704 -0.6254
37890SOL    HW119507   0.653   0.771   5.866  1.2644  0.4439 -3.3605
37890SOL    HW219508   0.551   0.854   5.791 -2.6110  0.1859  1.1239
37891SOL     OW19509  11.747   1.461   8.831 -0.0523 -0.2901  0.3650
37891SOL    HW119510  11.805   1.389   8.807 -1.1082 -1.1601  0.3485
37891SOL    HW219511  11.729   1.506   8.749  0.6286  0.0018  0.3773
37892SOL     OW19512   7.560   9.334   2.941  0.2890  0.0195  0.2565
37892SOL    HW119513   7.499   9.361   3.010 -1.1816 -3.1454  0.4004
37892SOL    HW219514   7.630   9.289   2.988  0.5869  0.0276 -0.1780
37893SOL     OW19515   9.084   1.948   5.703 -0.0494  0.4041  0.0910
37893SOL    HW119516   9.064   1.867   5.655 -1.2072  1.2890 -1.0181
37893SOL    HW219517   9.013   2.008   5.677 -0.0969  1.2784  2.1087
37894SOL     OW19518   7.396   8.101   6.879  0.2553 -0.2323 -0.2676
37894SOL    HW119519   7.478   8.068   6.916  1.6588  1.3820 -1.8120
37894SOL    HW219520   7.395   8.070   6.789 -0.6127  0.1609 -0.4070
37895SOL     OW19521  10.631   5.520   2.604  0.4991 -0.1506 -0.1503
37895SOL    HW119522  10.567   5.575   2.560  0.1114 -0.2606  0.2655
37895SOL    HW219523  10.615   5.432   2.569 -1.2535 -0.6575  1.7072
37896SOL     OW19524   9.130   8.956   7.651  0.2262 -0.1334 -0.1635
37896SOL    HW119525   9.163   8.916   7.571 -0.3683  0.3954 -0.6843
37896SOL    HW219526   9.099   8.883   7.704  1.9313 -0.6290  0.2263
37897SOL     OW19527   1.650   9.069   6.052  0.1609 -0.0414  0.4001
37897SOL    HW119528   1.617   9.060   6.142  1.1078 -1.1797  0.6503
37897SOL    HW219529   1.737   9.030   6.054  1.2456  2.1503 -0.4567
37898SOL     OW19530   6.038   8.774   3.590 -0.1910  0.1742 -0.0524
37898SOL    HW119531   6.116   8.794   3.643 -0.1408 -1.3402  0.5055
37898SOL    HW219532   5.970   8.756   3.654 -0.7240  0.4706 -0.5321
37899SOL     OW19533   3.102   7.233   6.677  0.1830 -0.2681  0.3683
37899SOL    HW119534   3.147   7.160   6.720  0.3865 -0.1142  0.4218
37899SOL    HW219535   3.011   7.204   6.670 -0.0078 -0.0247  1.5400
37900SOL     OW19536   6.093   6.889   3.908  0.4347  0.5500 -0.0497
37900SOL    HW119537   6.106   6.798   3.933 -1.9387  0.1583 -0.0209
37900SOL    HW219538   6.170   6.911   3.855  1.3081 -1.2768  0.4075
37901SOL     OW19539   2.611   6.659   5.626 -0.1336 -0.5689  0.0985
37901SOL    HW119540   2.704   6.679   5.635 -0.3382 -0.3444  2.1168
37901SOL    HW219541   2.602   6.570   5.662 -0.6888 -0.6400 -0.2036
37902SOL     OW19542   0.911   4.980   1.874  0.1498 -0.4061  0.2494
37902SOL    HW119543   0.873   4.956   1.958  0.4477  0.1370  0.5432
37902SOL    HW219544   0.886   5.071   1.861 -0.1149 -0.5600 -0.3771
37903SOL     OW19545   3.426  11.033   4.610 -0.3150  0.6254 -0.5640
37903SOL    HW119546   3.461  11.120   4.628 -1.4057  1.0594 -0.4620
37903SOL    HW219547   3.399  10.999   4.695  4.0770 -1.6989  0.1926
37904SOL     OW19548   8.953   2.303   6.741 -0.0501  0.6394 -0.6216
37904SOL    HW119549   8.915   2.389   6.724 -2.0561 -0.1049 -0.2182
37904SOL    HW219550   8.966   2.301   6.836  1.6879  1.1106 -0.8135
37905SOL     OW19551  10.331   0.780   0.201  0.4443 -0.1214 -0.2162
37905SOL    HW119552  10.299   0.836   0.130 -2.5539 -0.7528  0.5089
37905SOL    HW219553  10.370   0.840   0.263  1.0612  0.6820 -1.3475
37906SOL     OW19554   7.757   3.203   9.040 -0.1112  0.2201  0.2932
37906SOL    HW119555   7.785   3.119   9.003  1.3831 -0.0610  1.9404
37906SOL    HW219556   7.800   3.268   8.984 -2.2163 -0.0090 -1.7227
37907SOL     OW19557   5.624   5.697   5.281  0.6562 -0.2801  0.1514
37907SOL    HW119558   5.651   5.641   5.208  0.1727  0.0774 -0.3060
37907SOL    HW219559   5.656   5.784   5.258 -0.6449  0.1105 -0.2939
37908SOL     OW19560   5.827   6.194   7.873  0.8231 -0.0907  0.4902
37908SOL    HW119561   5.911   6.161   7.840  0.7883 -0.7877  1.0722
37908SOL    HW219562   5.767   6.121   7.862  0.3111  0.3790  0.1617
37909SOL     OW19563   1.633  10.948   7.334  0.0810 -0.2880 -0.4540
37909SOL    HW119564   1.689  11.025   7.327 -0.1540 -0.2312 -2.2300
37909SOL    HW219565   1.593  10.955   7.420  1.0550  0.8797 -0.0646
37910SOL     OW19566   9.601   0.852   5.111 -0.1365 -0.6944  0.1700
37910SOL    HW119567   9.668   0.789   5.084  0.9687  0.5938 -0.2137
37910SOL    HW219568   9.647   0.936   5.113 -1.6057  0.1301  0.5092
37911SOL     OW19569   7.220  11.840   0.785  0.4576 -0.0431  0.1895
37911SOL    HW119570   7.299  11.804   0.827 -0.7030 -1.2893  1.4100
37911SOL    HW219571   7.207  11.785   0.708  0.6841  0.0537  0.0813
37912SOL     OW19572   6.355   1.907   0.310  0.3259 -0.0998  0.1661
37912SOL    HW119573   6.376   1.814   0.302  2.2609  0.2447  0.5776
37912SOL    HW219574   6.379   1.929   0.401 -0.5378  0.6968  0.2145
37913SOL     OW19575  10.378   6.126   0.929 -0.2570  0.3655 -0.5232
37913SOL    HW119576  10.368   6.038   0.893  0.8889 -0.4246  0.9563
37913SOL    HW219577  10.365   6.185   0.854 -0.3124 -1.0808 -1.6926
37914SOL     OW19578   4.186   5.055   9.073 -0.1562 -0.6733 -0.0513
37914SOL    HW119579   4.225   5.139   9.048 -0.5202 -0.2198  0.8344
37914SOL    HW219580   4.167   5.012   8.990 -0.9260  0.5831 -0.5637
37915SOL     OW19581   7.464   4.154   6.860 -0.1421 -0.2095  0.2693
37915SOL    HW119582   7.491   4.236   6.819  1.3122 -0.5445  0.5064
37915SOL    HW219583   7.545   4.105   6.872 -0.4442 -0.1515  3.5615
37916SOL     OW19584   3.319  11.634   7.159 -0.2239 -0.2888 -0.1394
37916SOL    HW119585   3.248  11.586   7.201 -0.6123 -1.2479 -1.8144
37916SOL    HW219586   3.274  11.700   7.104  0.2188  0.0299 -0.1241
37917SOL     OW19587   5.943   5.375   0.044 -0.2118  0.9049  0.8146
37917SOL    HW119588   6.007   5.327  -0.010 -0.9901 -0.1492  0.7958
37917SOL    HW219589   5.865   5.380  -0.011 -1.0355 -0.2208  1.8377
37918SOL     OW19590  12.046   1.700   1.169 -0.1534  0.0834 -0.5305
37918SOL    HW119591  11.983   1.636   1.137 -0.4055 -0.2341  0.5647
37918SOL    HW219592  12.115   1.647   1.209 -1.0670  0.4687  1.7035
37919SOL     OW19593   4.106   6.636   3.483 -0.2267 -0.6797  0.1273
37919SOL    HW119594   4.124   6.720   3.526 -0.9726  0.5695 -1.8591
37919SOL    HW219595   4.172   6.630   3.414  0.6371 -2.3936  1.0437
37920SOL     OW19596   3.910   8.944   8.740 -0.0819  0.4816  0.0135
37920SOL    HW119597   3.829   8.935   8.690  1.0192  0.0889 -1.7852
37920SOL    HW219598   3.961   9.010   8.692  2.0403 -1.6828 -0.9031
37921SOL     OW19599   5.730  10.702  10.519  0.4420 -0.0294 -0.4249
37921SOL    HW119600   5.735  10.715  10.614  1.5320  0.2527 -0.5122
37921SOL    HW219601   5.707  10.789  10.485 -1.6158 -0.4748 -0.3262
37922SOL     OW19602   7.448   9.698   2.998 -0.0755  0.0547  0.1382
37922SOL    HW119603   7.515   9.765   2.989 -1.4391  1.3127 -1.5331
37922SOL    HW219604   7.402   9.719   3.079 -0.0398  0.7417 -0.0167
37923SOL     OW19605   3.729   9.514  10.661 -0.0132  0.3559 -1.3168
37923SOL    HW119606   3.649   9.530  10.711 -0.2781  1.4372 -2.0356
37923SOL    HW219607   3.763   9.432  10.695 -0.5338  0.7172  0.1666
37924SOL     OW19608   3.475   8.083  11.339  0.9020 -0.0523 -0.4604
37924SOL    HW119609   3.563   8.117  11.321  0.4264  1.0184 -0.8961
37924SOL    HW219610   3.421   8.162  11.344 -0.0224 -0.7005 -0.1408
37925SOL     OW19611   7.268   2.042   0.715 -0.3694 -0.2170 -0.0110
37925SOL    HW119612   7.261   2.033   0.620  0.2006  0.1618 -0.0952
37925SOL    HW219613   7.194   1.992   0.749 -0.2566 -0.8264 -0.6320
37926SOL     OW19614  12.128   3.869   7.154  0.4888 -0.1790 -0.2927
37926SOL    HW119615  12.076   3.842   7.079  0.8694 -1.2137 -0.2053
37926SOL    HW219616  12.065   3.903   7.218  0.1046  0.1277 -0.8369
37927SOL     OW19617   4.715   4.375   4.887  0.3341 -0.2188  0.2646
37927SOL    HW119618   4.763   4.298   4.918  2.3095  0.2377 -1.4792
37927SOL    HW219619   4.700   4.358   4.794  0.5090  1.3539 -0.0771
37928SOL     OW19620   4.382  11.006   6.315 -0.2995  0.2152 -0.2492
37928SOL    HW119621   4.345  10.966   6.236  0.5303  1.1773 -1.1562
37928SOL    HW219622   4.449  10.943   6.344 -0.6804 -0.1922 -0.2395
37929SOL     OW19623   7.208  10.859   6.577 -0.2615  0.3833 -0.2017
37929SOL    HW119624   7.276  10.806   6.537 -0.4587 -0.2174  0.2361
37929SOL    HW219625   7.243  10.948   6.578  1.3380 -0.1985  1.7526
37930SOL     OW19626   5.574  12.056  10.287 -0.0188  0.0723 -0.4656
37930SOL    HW119627   5.497  12.106  10.316  0.8684  0.9674  0.4078
37930SOL    HW219628   5.645  12.120  10.286  0.8178 -0.8449 -0.8044
37931SOL     OW19629   7.275   7.268   8.213 -0.4730 -0.4633 -0.1674
37931SOL    HW119630   7.195   7.316   8.234  0.2254  0.8036 -0.3497
37931SOL    HW219631   7.279   7.199   8.280 -2.2810 -1.2543 -0.8220
37932SOL     OW19632   3.012   4.228   2.527 -0.0529 -0.4899  0.5377
37932SOL    HW119633   3.030   4.215   2.620  0.3487 -0.4300  0.4705
37932SOL    HW219634   2.917   4.240   2.522 -0.2110 -1.5531  0.8133
37933SOL     OW19635   8.321   6.181   0.571 -0.1253  0.2103 -0.1048
37933SOL    HW119636   8.312   6.086   0.565 -0.5891  0.2569 -0.1636
37933SOL    HW219637   8.416   6.197   0.566 -0.0959 -0.1822 -0.9589
37934SOL     OW19638   3.566   9.549   1.021 -0.3587  0.1821  0.1822
37934SOL    HW119639   3.568   9.619   1.086  1.0008  1.0399 -0.7381
37934SOL    HW219640   3.476   9.550   0.987 -0.5086  1.0820  0.5873
37935SOL     OW19641   4.216   5.116   7.999  0.1948 -0.0922 -0.2717
37935SOL    HW119642   4.174   5.200   7.984 -0.0261  0.0188  0.8466
37935SOL    HW219643   4.222   5.076   7.913  1.4430  1.5794 -1.0101
37936SOL     OW19644  11.499   3.085   6.477  0.4528 -0.6724  0.1690
37936SOL    HW119645  11.538   3.130   6.402  0.1198 -0.1793  0.2866
37936SOL    HW219646  11.436   3.024   6.439  0.3403 -0.4781  0.0473
37937SOL     OW19647   4.629   2.863   3.709  0.0779  0.2523 -0.1910
37937SOL    HW119648   4.682   2.790   3.741  0.3653  0.7954  0.6241
37937SOL    HW219649   4.543   2.847   3.747 -0.2104 -0.3431 -1.0739
37938SOL     OW19650   6.012   2.626   1.810  0.2591  0.3090 -0.3272
37938SOL    HW119651   5.943   2.563   1.831  1.0084  0.1362  1.9605
37938SOL    HW219652   6.092   2.574   1.811  0.9880  1.2968  2.4064
37939SOL     OW19653  12.157   6.227   8.916 -0.4196  0.4650 -0.0457
37939SOL    HW119654  12.163   6.132   8.922 -1.2056  0.4885  1.4688
37939SOL    HW219655  12.085   6.251   8.974  0.8130  2.1140  0.8803
37940SOL     OW19656   5.763  11.074  12.142  0.2291  0.1407  0.5961
37940SOL    HW119657   5.692  11.074  12.078  0.5652 -0.8729  0.2181
37940SOL    HW219658   5.843  11.072  12.090  0.5386  0.7534  1.0345
37941SOL     OW19659   3.066   5.730   0.300 -0.4049 -0.0269 -0.0145
37941SOL    HW119660   3.082   5.747   0.393  0.3892  0.7774 -0.2900
37941SOL    HW219661   2.972   5.712   0.295 -0.4239 -0.2478  0.9640
37942SOL     OW19662   2.215   1.120   1.282 -0.0452  0.1008  0.4259
37942SOL    HW119663   2.260   1.110   1.198  1.5495  0.2227  1.2318
37942SOL    HW219664   2.154   1.046   1.286  0.8134 -0.6565 -0.2496
37943SOL     OW19665   0.099   9.470   5.034 -0.3263 -0.3558  0.2797
37943SOL    HW119666   0.018   9.492   5.080 -0.8127  0.3276 -0.8466
37943SOL    HW219667   0.092   9.376   5.016 -1.3046 -0.1442 -0.5647
37944SOL     OW19668   7.826   5.325   1.053 -0.1197  0.1760 -0.2324
37944SOL    HW119669   7.842   5.407   1.006 -0.1014  0.0344 -0.4734
37944SOL    HW219670   7.901   5.316   1.111 -0.5833  0.8096  0.4782
37945SOL     OW19671   2.014   9.905  10.397 -0.0209  0.0524 -0.1682
37945SOL    HW119672   1.921   9.881  10.393 -0.1069  0.3830 -0.1352
37945SOL    HW219673   2.032   9.948  10.314  0.7927 -2.4331 -1.3752
37946SOL     OW19674   3.736   6.755   7.334 -0.1475  0.1112  0.3738
37946SOL    HW119675   3.676   6.690   7.299  0.5248 -1.2294  1.5981
37946SOL    HW219676   3.730   6.745   7.429 -0.1803  2.0088  0.6145
37947SOL     OW19677   1.861   5.201  10.592 -0.6772  0.4633  0.5657
37947SOL    HW119678   1.773   5.227  10.566 -0.4813 -0.7572 -1.5861
37947SOL    HW219679   1.852   5.110  10.620  0.3383 -1.0362 -3.3332
37948SOL     OW19680   2.920  10.198   5.701 -0.2375 -0.1279  0.2144
37948SOL    HW119681   2.901  10.260   5.771 -0.3381 -1.7093  1.6290
37948SOL    HW219682   3.002  10.229   5.663 -0.8646  1.5138  0.0999
37949SOL     OW19683   3.449   7.735  12.299  0.2961 -0.0887  0.9372
37949SOL    HW119684   3.397   7.660  12.268 -1.7614  1.4678  0.4350
37949SOL    HW219685   3.524   7.695  12.343  0.5101 -2.4381 -1.3378
37950SOL     OW19686   4.123   2.862   5.524  0.1324  0.3379  0.6702
37950SOL    HW119687   4.103   2.876   5.616  0.9887 -1.7109  1.2069
37950SOL    HW219688   4.193   2.797   5.523 -0.1389 -0.0146 -1.4322
37951SOL     OW19689   5.777   8.658   3.127  0.0421 -0.3193  0.5683
37951SOL    HW119690   5.773   8.577   3.177  1.0551  0.1573  1.4845
37951SOL    HW219691   5.715   8.646   3.055 -0.5528 -1.5051  1.2516
37952SOL     OW19692   1.935   3.715   7.351 -0.0350  0.0816  0.2886
37952SOL    HW119693   1.953   3.622   7.338  2.0019  0.1071  2.1632
37952SOL    HW219694   2.017   3.749   7.387 -1.1879  2.3097  0.9443
37953SOL     OW19695   3.444   5.977   2.410  0.2942 -0.1385  0.3678
37953SOL    HW119696   3.363   5.937   2.380 -0.3233 -1.0909  3.0231
37953SOL    HW219697   3.433   6.070   2.393 -0.6844 -0.4162 -0.6653
37954SOL     OW19698   0.784   5.492  10.799 -0.0513 -0.2162  0.0601
37954SOL    HW119699   0.787   5.498  10.895 -1.3801 -2.0604  0.2467
37954SOL    HW219700   0.855   5.432  10.777  0.5296  0.5363 -0.1826
37955SOL     OW19701  11.066   0.562   8.054  0.7685 -0.3117  0.2980
37955SOL    HW119702  11.030   0.649   8.074 -0.3225 -0.9106  1.0702
37955SOL    HW219703  11.085   0.565   7.961 -2.1134 -0.1644 -0.3931
37956SOL     OW19704  10.540  11.862  10.294  0.4166 -0.8221  0.3635
37956SOL    HW119705  10.459  11.852  10.345  1.6398  0.0543  2.5793
37956SOL    HW219706  10.591  11.784  10.316  1.3623  0.0405  1.2891
37957SOL     OW19707   0.666   3.356   7.582  0.2257 -0.3941  0.3788
37957SOL    HW119708   0.645   3.272   7.541  0.1901 -0.3623  0.3317
37957SOL    HW219709   0.643   3.421   7.516 -0.3826 -0.3113  0.6691
37958SOL     OW19710   3.584   3.204   4.985  0.2511  0.2272  0.1112
37958SOL    HW119711   3.548   3.262   4.918 -0.3953  0.7022  0.8615
37958SOL    HW219712   3.624   3.263   5.049  1.6415 -0.2560 -0.2704
37959SOL     OW19713   6.548  11.515   1.831  0.1336  0.4339  0.0938
37959SOL    HW119714   6.466  11.482   1.795  0.0125  1.1863 -0.3476
37959SOL    HW219715   6.589  11.562   1.758  2.2228 -2.0740 -0.5347
37960SOL     OW19716   1.575  11.971   5.724  0.5541 -0.2074 -0.4024
37960SOL    HW119717   1.522  11.930   5.656 -2.9491  2.1392  0.6374
37960SOL    HW219718   1.601  11.899   5.782  0.4901 -1.7291 -2.1686
37961SOL     OW19719   9.717   7.720   0.317  0.0116 -0.3888 -0.1664
37961SOL    HW119720   9.796   7.709   0.370 -0.1654  0.1062  0.2122
37961SOL    HW219721   9.735   7.795   0.261 -0.1875 -0.2780 -0.0846
37962SOL     OW19722  10.337   7.934  12.061 -0.9996 -0.1949  0.5789
37962SOL    HW119723  10.373   7.868  12.121 -0.4351  0.4096  0.9124
37962SOL    HW219724  10.394   8.010  12.072 -0.6414 -0.2097 -1.0287
37963SOL     OW19725   8.390   2.780   0.720  0.2174 -0.3595 -1.0836
37963SOL    HW119726   8.313   2.782   0.776  0.5381 -1.2131 -0.5902
37963SOL    HW219727   8.445   2.711   0.758  2.0000  1.3340 -0.3936
37964SOL     OW19728  10.368  11.328   8.257  0.2489 -0.3264  0.2460
37964SOL    HW119729  10.344  11.236   8.247 -0.6801 -0.0095 -0.6141
37964SOL    HW219730  10.410  11.333   8.343  0.4168 -1.5682  0.2475
37965SOL     OW19731   0.153  11.622   7.204 -0.0193  1.0438  0.3269
37965SOL    HW119732   0.172  11.540   7.250  0.8366  0.9133 -0.2315
37965SOL    HW219733   0.239  11.655   7.178 -0.2264  2.9169  1.8530
37966SOL     OW19734   5.636  11.682   1.945 -0.0065 -0.1995  0.2191
37966SOL    HW119735   5.683  11.761   1.971 -0.3450 -0.6044  2.1995
37966SOL    HW219736   5.631  11.688   1.850 -1.0568  2.7625  0.3580
37967SOL     OW19737   1.570   4.276   4.756  0.3703  0.3485 -0.5120
37967SOL    HW119738   1.537   4.322   4.679  1.5434 -1.1114 -1.9700
37967SOL    HW219739   1.491   4.253   4.806 -0.5471  0.1724 -1.9817
37968SOL     OW19740   8.914   6.106   3.606  0.7300 -0.9346 -0.3314
37968SOL    HW119741   8.961   6.029   3.573  1.9330 -0.8975  1.1881
37968SOL    HW219742   8.900   6.087   3.699 -0.0085  0.1802 -0.2005
37969SOL     OW19743   2.247   3.176   7.353 -0.5236 -0.4491  0.1185
37969SOL    HW119744   2.303   3.253   7.340 -2.5108  0.9192 -0.8376
37969SOL    HW219745   2.208   3.160   7.267 -0.3982 -2.3851  0.3752
37970SOL     OW19746   9.392   3.235   7.312  0.3960 -0.1859 -0.7329
37970SOL    HW119747   9.412   3.142   7.319  0.0586 -0.2083  0.0807
37970SOL    HW219748   9.314   3.247   7.367 -0.5322  0.2793 -2.0993
37971SOL     OW19749   6.487   1.030  11.879 -0.4846  0.2418 -0.0434
37971SOL    HW119750   6.521   1.029  11.790 -0.3738  0.5427 -0.0048
37971SOL    HW219751   6.485   0.938  11.905 -0.2870  0.1735 -0.2671
37972SOL     OW19752  12.272   8.070   4.625 -0.4127 -0.0045  0.2489
37972SOL    HW119753  12.220   8.039   4.551 -0.7080  0.9029  0.0672
37972SOL    HW219754  12.226   8.038   4.702  0.0016 -1.1255  0.0581
37973SOL     OW19755   3.794   3.067   7.375 -0.1071  0.1395 -0.2095
37973SOL    HW119756   3.775   3.070   7.282  0.7051 -1.1618 -0.4336
37973SOL    HW219757   3.819   3.157   7.397 -0.6896  0.5433 -1.1529
37974SOL     OW19758   4.860   5.072   0.054 -0.3470  0.4294  0.1980
37974SOL    HW119759   4.834   5.135  -0.013  1.6060  1.1912  0.0743
37974SOL    HW219760   4.792   5.005   0.052 -0.7606  0.8326 -2.0027
37975SOL     OW19761   4.725  11.617   9.526  0.1090  1.0308 -0.3940
37975SOL    HW119762   4.692  11.704   9.546  0.2592  1.4421 -1.8220
37975SOL    HW219763   4.792  11.632   9.458 -1.0591 -0.3059 -1.9282
37976SOL     OW19764   3.885   3.330   1.581 -0.1604 -0.1140  0.7603
37976SOL    HW119765   3.894   3.324   1.676  0.2295 -0.8487  0.6791
37976SOL    HW219766   3.964   3.290   1.547 -0.6036 -0.4502  0.1163
37977SOL     OW19767   9.026  11.041  11.529  0.3117 -0.3800  0.1009
37977SOL    HW119768   8.947  11.071  11.574 -0.4119  0.2967 -1.5344
37977SOL    HW219769   9.076  10.995  11.597 -1.7698 -1.3945  1.0500
37978SOL     OW19770   4.055   4.011  10.083  0.1026  0.3061 -0.7729
37978SOL    HW119771   4.142   3.972  10.078  0.2148  0.4782 -0.2667
37978SOL    HW219772   4.033   4.009  10.176  0.7411  2.8049 -0.4805
37979SOL     OW19773   7.896   0.970  12.129 -0.8344 -0.0209 -0.2959
37979SOL    HW119774   7.857   1.005  12.209  1.4397  0.2617  0.7882
37979SOL    HW219775   7.919   0.880  12.151  1.3676  0.5513  0.0704
37980SOL     OW19776   4.327   3.204   5.291 -0.0269 -0.0884  0.3155
37980SOL    HW119777   4.262   3.135   5.305  1.3441 -2.0487 -2.0036
37980SOL    HW219778   4.293   3.254   5.217 -0.3282  0.8215  1.0647
37981SOL     OW19779   5.036  11.990   8.187 -0.6008 -0.1285  0.2046
37981SOL    HW119780   5.007  12.068   8.139 -0.0306  0.3384  0.5944
37981SOL    HW219781   4.957  11.959   8.231 -0.8464  0.2023  0.0103
37982SOL     OW19782   9.852   3.591  10.791 -0.4176 -0.1498  0.4261
37982SOL    HW119783   9.759   3.570  10.787 -0.2922 -1.1160  1.6535
37982SOL    HW219784   9.894   3.508  10.814  0.9705 -0.1771 -1.8965
37983SOL     OW19785   9.958   7.055   0.009  0.3699  0.1076 -0.1827
37983SOL    HW119786   9.965   7.094  -0.078  0.6384 -0.3751 -0.3831
37983SOL    HW219787  10.049   7.042   0.037  0.2916 -1.0027 -0.4144
37984SOL     OW19788  10.372   2.335   4.894 -0.4997 -0.2573  0.1611
37984SOL    HW119789  10.339   2.253   4.931 -2.0352  0.2769  0.0512
37984SOL    HW219790  10.375   2.395   4.969  0.7784 -0.4498  0.2738
37985SOL     OW19791   3.930   0.068  11.137 -0.3978  0.4434  0.1975
37985SOL    HW119792   3.906   0.079  11.229  1.0051  0.0212  0.6289
37985SOL    HW219793   3.875  -0.005  11.107  0.1802 -0.4024  1.1178
37986SOL     OW19794   7.728  10.180   8.811  0.6860 -0.5698 -0.0425
37986SOL    HW119795   7.798  10.206   8.751  1.1540  0.9945  1.1002
37986SOL    HW219796   7.754  10.219   8.895 -2.3478  1.4722  0.0853
37987SOL     OW19797   9.755   5.465   4.709 -0.2219  0.2766 -0.3557
37987SOL    HW119798   9.745   5.389   4.767 -0.2507  0.1270 -0.5591
37987SOL    HW219799   9.666   5.498   4.696 -0.2375  0.1794 -0.4930
37988SOL     OW19800   8.727  12.141   9.305  0.2897 -0.3115 -0.6821
37988SOL    HW119801   8.751  12.129   9.397  1.2045  1.4329 -0.6524
37988SOL    HW219802   8.798  12.100   9.257  0.5939  0.1005 -0.5932
37989SOL     OW19803  10.445   1.534   3.845  0.1140  0.5577 -0.3111
37989SOL    HW119804  10.468   1.560   3.755  1.3943 -0.1566 -0.2073
37989SOL    HW219805  10.528   1.512   3.886 -0.7342 -2.6930 -0.0707
37990SOL     OW19806  11.958   3.004   7.966  0.8934  0.3015 -0.2208
37990SOL    HW119807  11.930   2.942   8.033 -0.8582  0.3961 -0.8188
37990SOL    HW219808  12.053   3.006   7.974  0.8119 -0.5959  1.4435
37991SOL     OW19809   0.534  10.158   4.441 -0.6334 -0.3899  0.3548
37991SOL    HW119810   0.577  10.075   4.461  0.2240 -0.5031 -1.7150
37991SOL    HW219811   0.607  10.219   4.426 -1.1788 -0.0980 -1.3044
37992SOL     OW19812   1.200   8.433   6.744  0.4402  0.0033 -0.1745
37992SOL    HW119813   1.227   8.511   6.694  0.1357  0.4614  0.3700
37992SOL    HW219814   1.164   8.468   6.825 -0.5255 -0.6659 -0.2999
37993SOL     OW19815   8.130   3.131   9.517 -0.3898 -0.2862  0.4983
37993SOL    HW119816   8.176   3.194   9.461  0.0839  0.2049  1.4150
37993SOL    HW219817   8.113   3.057   9.460  1.4950 -0.4558  0.0847
37994SOL     OW19818   9.358   7.032   1.697 -0.4530  0.3113  0.3052
37994SOL    HW119819   9.394   7.113   1.735  0.4151 -0.8287  2.0604
37994SOL    HW219820   9.432   6.991   1.653 -1.3523  1.3897 -2.4157
37995SOL     OW19821   7.916  11.654   0.386  0.1002 -0.0938 -0.8430
37995SOL    HW119822   7.842  11.593   0.377 -1.5478  1.6795 -0.1155
37995SOL    HW219823   7.991  11.606   0.352 -1.4046 -1.9496 -1.7412
37996SOL     OW19824   5.723   4.623   8.090 -0.2097  0.2727 -0.0616
37996SOL    HW119825   5.741   4.717   8.087 -1.2643  0.4691 -0.6492
37996SOL    HW219826   5.809   4.582   8.076 -0.0693  1.1694 -2.2564
37997SOL     OW19827   8.032   2.784   5.673 -0.2324 -0.3437  0.1948
37997SOL    HW119828   8.123   2.757   5.663  0.9028  3.3697 -1.3908
37997SOL    HW219829   7.991   2.761   5.589  0.2627  1.1359 -0.4781
37998SOL     OW19830   0.275  10.266  12.132  0.0100 -0.0782  0.1537
37998SOL    HW119831   0.270  10.357  12.102 -0.1088  0.2654  1.2014
37998SOL    HW219832   0.293  10.216  12.052 -3.0861  0.4849 -1.0350
37999SOL     OW19833   8.479   7.912  11.627 -0.1888 -0.0938  0.1387
37999SOL    HW119834   8.385   7.927  11.623  0.1342  2.1694 -0.3746
37999SOL    HW219835   8.518   7.998  11.612  1.9631 -0.5367  2.4211
38000SOL     OW19836  10.936   3.186   7.336  0.0205 -0.2424  0.7728
38000SOL    HW119837  11.027   3.213   7.348  0.4110 -0.1564 -1.8500
38000SOL    HW219838  10.935   3.094   7.362  1.7017 -1.2150 -2.1751
38001SOL     OW19839   3.007  11.361   1.068 -0.2258  0.2081  0.6491
38001SOL    HW119840   3.063  11.296   1.111  1.3661  0.4822 -0.9227
38001SOL    HW219841   2.919  11.340   1.100  0.2276 -2.6341  0.3372
38002SOL     OW19842   5.224   6.260   4.317  0.1891  0.1761 -0.1212
38002SOL    HW119843   5.141   6.280   4.274  0.2695 -1.4771 -1.1385
38002SOL    HW219844   5.202   6.189   4.377  0.1735  2.1447  2.3639
38003SOL     OW19845   1.649  11.806   4.424 -0.0206 -0.3189 -0.0925
38003SOL    HW119846   1.689  11.744   4.484 -2.9469 -0.8037  1.5772
38003SOL    HW219847   1.651  11.889   4.470  1.1579  0.1910 -1.0251
38004SOL     OW19848   4.070   6.425  10.832 -0.1416 -0.3040 -0.2648
38004SOL    HW119849   4.111   6.512  10.831  2.5648 -1.4789 -1.6073
38004SOL    HW219850   3.989   6.437  10.783  0.7338  1.2593 -1.4554
38005SOL     OW19851   2.652   3.167   4.604 -0.7740 -0.4098 -0.0081
38005SOL    HW119852   2.565   3.152   4.566 -0.1168  1.5472 -2.5458
38005SOL    HW219853   2.643   3.249   4.652 -1.0296 -1.7739  2.4335
38006SOL     OW19854   4.970   9.997   6.958  0.0379  0.4859  0.3759
38006SOL    HW119855   4.890   9.990   7.010  0.4646 -2.4235  0.7662
38006SOL    HW219856   4.957   9.937   6.885  1.5161  0.6078 -0.0282
38007SOL     OW19857  12.203  12.156  10.147  0.2926 -0.2693 -0.1897
38007SOL    HW119858  12.261  12.080  10.137 -0.6175 -1.2704  1.5927
38007SOL    HW219859  12.197  12.193  10.059  2.5457 -0.9189 -0.6802
38008SOL     OW19860   9.516   6.652  11.462 -0.9692 -0.0224  0.2115
38008SOL    HW119861   9.430   6.625  11.431  0.1086 -3.3571 -0.2700
38008SOL    HW219862   9.558   6.571  11.491  2.5936  1.1939 -0.9920
38009SOL     OW19863   7.366   4.269   5.539  0.2710  0.1544  0.1289
38009SOL    HW119864   7.279   4.250   5.503  0.1402  0.0477  0.4923
38009SOL    HW219865   7.349   4.297   5.629  0.3551  3.0542 -0.6487
38010SOL     OW19866   1.226   7.562   5.111  0.3017  0.1284 -0.1774
38010SOL    HW119867   1.140   7.569   5.153  0.5390  0.2660  0.2906
38010SOL    HW219868   1.245   7.651   5.081 -0.2739 -0.1473 -1.3987
38011SOL     OW19869   7.605  11.785   4.875  0.1366 -0.0375  0.1589
38011SOL    HW119870   7.570  11.874   4.877  0.1959  0.0147 -0.8408
38011SOL    HW219871   7.543  11.736   4.822  0.5836 -0.3834 -0.0476
38012SOL     OW19872   0.852   2.927   6.737 -0.6894 -1.1340 -0.1630
38012SOL    HW119873   0.863   2.832   6.741 -1.0524 -1.1366  1.3026
38012SOL    HW219874   0.941   2.962   6.737 -0.5181 -1.4714 -1.8271
38013SOL     OW19875   4.245  11.624   4.721  0.8668 -0.5348  0.6408
38013SOL    HW119876   4.162  11.577   4.728 -1.0371  2.1910 -1.3919
38013SOL    HW219877   4.279  11.600   4.635  0.5326  0.7001  0.1404
38014SOL     OW19878   1.621   1.050   1.661 -0.0035  0.3836 -0.3913
38014SOL    HW119879   1.578   0.965   1.649  1.5273 -0.4440 -0.2574
38014SOL    HW219880   1.564   1.098   1.721 -0.7297 -0.6736 -0.2207
38015SOL     OW19881   3.714   7.750   0.962  0.2803  0.3283 -0.1872
38015SOL    HW119882   3.686   7.659   0.968  1.1453  0.0874  0.4160
38015SOL    HW219883   3.640   7.801   0.996  0.7790 -0.3309  2.0124
38016SOL     OW19884   0.198  11.202  10.974 -0.0576  0.1454 -0.4668
38016SOL    HW119885   0.225  11.176  10.886  0.3506  2.2958 -1.0180
38016SOL    HW219886   0.106  11.226  10.964  0.0406  0.5722 -0.3457
38017SOL     OW19887   6.940   0.854   3.887 -0.8235 -0.4518  0.1247
38017SOL    HW119888   6.887   0.921   3.844 -0.3986  0.0965  0.4387
38017SOL    HW219889   6.891   0.772   3.874 -1.1468 -0.1462 -0.5984
38018SOL     OW19890   6.945  10.019   1.684  0.1798 -0.0059  0.5564
38018SOL    HW119891   6.890  10.013   1.762 -0.9860 -0.1396 -0.2379
38018SOL    HW219892   6.962   9.927   1.660  0.6304  0.0351  0.7098
38019SOL     OW19893  10.223   8.512  12.247 -0.1380  0.1565 -0.1171
38019SOL    HW119894  10.288   8.484  12.183 -1.0276  2.5707 -2.2448
38019SOL    HW219895  10.256   8.595  12.280 -1.9225  1.3430 -1.1034
38020SOL     OW19896   0.782   7.203   2.965 -0.4577  0.1135  0.9686
38020SOL    HW119897   0.809   7.209   3.057 -1.2386  0.5791  1.1782
38020SOL    HW219898   0.690   7.178   2.970 -0.8178  1.2944  0.3331
38021SOL     OW19899   1.030  10.187  11.175  0.9770 -0.5929 -0.0253
38021SOL    HW119900   1.023  10.281  11.159  1.2545 -0.8136 -1.6460
38021SOL    HW219901   1.119  10.175  11.209  2.0108 -0.5370 -2.4705
38022SOL     OW19902   4.373   7.360   6.123 -0.2575 -0.7320 -0.2177
38022SOL    HW119903   4.342   7.369   6.033 -0.8621 -0.0019  0.0555
38022SOL    HW219904   4.327   7.282   6.156 -2.2559  0.5975  0.3356
38023SOL     OW19905   4.682   0.905   6.680  0.1406  0.5323  0.1404
38023SOL    HW119906   4.606   0.947   6.719 -0.5983 -0.1588 -0.5159
38023SOL    HW219907   4.692   0.824   6.730  1.4739  1.3685  1.3123
38024SOL     OW19908   8.108   0.626  11.566 -0.7355  0.2685  0.3400
38024SOL    HW119909   8.108   0.581  11.650  2.0241 -0.5311  0.0085
38024SOL    HW219910   8.067   0.711  11.584 -0.5800 -0.0411  2.3828
38025SOL     OW19911   6.334   4.272  11.071  0.6316  0.4329 -0.2309
38025SOL    HW119912   6.264   4.302  11.014 -0.9956  1.7759  2.2736
38025SOL    HW219913   6.302   4.189  11.107  0.5256  0.7908  0.5237
38026SOL     OW19914   3.597   9.889   0.678  0.6244 -0.1797 -0.3522
38026SOL    HW119915   3.545   9.926   0.750  0.4823  0.1098 -0.6004
38026SOL    HW219916   3.685   9.924   0.692  0.4040  0.5851 -0.8097
38027SOL     OW19917   5.860   6.839   3.351 -0.5766 -0.1558  0.3594
38027SOL    HW119918   5.863   6.873   3.441  0.2714 -1.2766  0.7778
38027SOL    HW219919   5.768   6.849   3.325 -0.6219  1.1627  0.9479
38028SOL     OW19920   1.024   4.319   9.551 -0.7140  0.2558  0.4143
38028SOL    HW119921   0.962   4.376   9.506 -0.6989  1.1886  1.5300
38028SOL    HW219922   1.107   4.366   9.546 -0.0353 -0.9981 -1.1054
38029SOL     OW19923   3.630   0.504   8.123  0.3130  0.4225 -0.3746
38029SOL    HW119924   3.600   0.548   8.202  1.1007  0.7730 -0.2620
38029SOL    HW219925   3.674   0.425   8.154 -1.6339 -0.8238 -0.6046
38030SOL     OW19926  10.362  10.262   2.862 -0.8796 -0.3373  0.6410
38030SOL    HW119927  10.296  10.327   2.837 -0.8660 -0.3683  0.5225
38030SOL    HW219928  10.424  10.310   2.917  1.9570  1.1719 -3.3571
38031SOL     OW19929   5.801   3.199   6.584  0.2416  0.4942  0.1939
38031SOL    HW119930   5.778   3.268   6.646  0.5948 -1.5559  2.8230
38031SOL    HW219931   5.723   3.143   6.581  1.0440 -0.6856  0.6638
38032SOL     OW19932   9.623  12.194   6.269  0.4268  0.6897 -0.2132
38032SOL    HW119933   9.615  12.181   6.175 -0.9000  1.9794 -0.3215
38032SOL    HW219934   9.635  12.289   6.279 -2.7940  1.0846  1.0201
38033SOL     OW19935   1.461   1.500   5.135  0.1922 -0.3197 -0.1426
38033SOL    HW119936   1.434   1.583   5.175 -0.4299 -0.4799 -0.2103
38033SOL    HW219937   1.549   1.517   5.102  0.0247  0.3604 -0.2681
38034SOL     OW19938   0.671   1.169  10.942  0.2089  0.3239 -0.2943
38034SOL    HW119939   0.644   1.092  10.992 -1.1354 -1.0736 -2.9601
38034SOL    HW219940   0.725   1.134  10.872 -0.3243  1.8034 -1.5030
38035SOL     OW19941   8.516   9.285   0.548  0.3067 -0.2488 -0.2922
38035SOL    HW119942   8.551   9.203   0.582  1.6350  1.5151  3.0148
38035SOL    HW219943   8.426   9.289   0.582  1.6417  1.5301  3.5724
38036SOL     OW19944   1.519   1.987   1.534 -0.2030  0.2368  0.1900
38036SOL    HW119945   1.449   1.974   1.598  0.0887 -0.9048  0.2940
38036SOL    HW219946   1.518   2.081   1.517 -1.2411  0.3522  0.7790
38037SOL     OW19947   5.744   4.702   4.707 -0.4535 -0.1732 -0.5607
38037SOL    HW119948   5.811   4.634   4.700 -1.6032 -1.3685 -0.3441
38037SOL    HW219949   5.663   4.658   4.684 -1.2172  1.1657 -0.5038
38038SOL     OW19950   9.714   1.250   5.618 -1.0105  0.0803 -0.5254
38038SOL    HW119951   9.712   1.305   5.696 -0.0325 -2.7193  1.6636
38038SOL    HW219952   9.623   1.225   5.604 -1.2348  0.8661 -0.4752
38039SOL     OW19953  12.080  11.079   6.584 -0.1219  0.3348 -0.2914
38039SOL    HW119954  12.115  11.005   6.535 -0.2403  0.8040 -1.1162
38039SOL    HW219955  12.073  11.149   6.519 -1.3241  0.6491  0.1485
38040SOL     OW19956   1.989   3.511  10.749 -0.0787  0.2992  0.0262
38040SOL    HW119957   1.966   3.571  10.820  0.0252 -0.8948  1.0795
38040SOL    HW219958   1.975   3.424  10.784  0.0045 -0.3290 -1.4134
38041SOL     OW19959   1.342   5.769   6.030  0.1815 -0.8035 -0.2553
38041SOL    HW119960   1.338   5.833   5.959  1.3464  0.6391  0.9071
38041SOL    HW219961   1.250   5.754   6.055 -0.2307 -1.2366 -1.9288
38042SOL     OW19962   3.791   3.333   4.751 -0.0029 -0.2666  0.2214
38042SOL    HW119963   3.701   3.364   4.763 -0.5871 -2.5352  2.5535
38042SOL    HW219964   3.797   3.311   4.658 -2.2617 -1.0945  0.2055
38043SOL     OW19965   2.387   8.931   4.495  0.2206  0.0884 -0.1023
38043SOL    HW119966   2.436   9.008   4.525  2.2819 -0.2917 -2.1795
38043SOL    HW219967   2.309   8.967   4.452 -1.2109  0.7265  2.7764
38044SOL     OW19968   6.488   6.135   1.713  0.3096  0.1011  0.4415
38044SOL    HW119969   6.475   6.047   1.677  0.6646 -0.3680  1.4258
38044SOL    HW219970   6.581   6.153   1.698  0.3798  0.0457  0.8240
38045SOL     OW19971   4.799   1.580   8.678 -0.0510  0.0535 -0.0895
38045SOL    HW119972   4.842   1.606   8.760  1.5535 -3.3577  0.3304
38045SOL    HW219973   4.725   1.526   8.706 -0.9642  0.8483 -0.9074
38046SOL     OW19974   1.886   8.080   9.275 -0.5624  0.1044 -0.2580
38046SOL    HW119975   1.862   8.086   9.182  1.8671  0.3022 -0.9195
38046SOL    HW219976   1.914   7.989   9.287 -0.8340  0.0888  0.2827
38047SOL     OW19977  10.040  11.366   5.716 -0.2812  0.5253  0.5366
38047SOL    HW119978  10.132  11.341   5.704  0.3449  2.7673  0.3359
38047SOL    HW219979  10.002  11.359   5.629  0.2380  1.5582  0.2124
38048SOL     OW19980   1.152  10.021  10.310 -0.2028 -0.0196 -0.2842
38048SOL    HW119981   1.132   9.953  10.246  1.1393 -0.5254 -0.2120
38048SOL    HW219982   1.238  10.055  10.282 -0.1564  0.5837  0.5587
38049SOL     OW19983   0.602   7.254  10.256 -0.2104  0.1870  0.0518
38049SOL    HW119984   0.560   7.328  10.213  0.2415 -0.4562 -1.5620
38049SOL    HW219985   0.534   7.187  10.259 -0.2580  0.2508  0.3927
38050SOL     OW19986   1.817   6.498   6.145  0.1082 -0.1586 -0.2877
38050SOL    HW119987   1.783   6.533   6.063  1.4725  0.7936 -0.4655
38050SOL    HW219988   1.911   6.510   6.140  0.2102  0.1031  1.4881
38051SOL     OW19989  12.137   7.761   1.287 -0.7245 -0.0061 -0.0944
38051SOL    HW119990  12.067   7.701   1.313 -0.9584  0.8744  1.3845
38051SOL    HW219991  12.218   7.713   1.306 -0.9136 -0.0047  0.7486
38052SOL     OW19992   0.863   4.565   2.466  0.2708 -0.7173 -0.3074
38052SOL    HW119993   0.817   4.484   2.490  1.3042 -1.2400 -0.0334
38052SOL    HW219994   0.794   4.622   2.430 -0.5696 -1.4986  0.0222
38053SOL     OW19995   2.513   9.411   1.125  0.0046  0.0246  0.9237
38053SOL    HW119996   2.424   9.430   1.156  0.6641  1.1703  2.2490
38053SOL    HW219997   2.524   9.468   1.049 -0.8880 -1.2356 -0.1949
38054SOL     OW19998   0.927   9.426   6.036 -0.5535  0.3690  0.4515
38054SOL    HW119999   0.854   9.460   5.984  1.5136  1.8076 -1.7314
38054SOL    HW220000   0.981   9.380   5.972  0.4556 -0.7008  2.0224
38055SOL     OW20001   9.026   8.603   2.655 -0.3278  0.0538 -0.0464
38055SOL    HW120002   9.118   8.585   2.676 -0.0900  0.4762 -0.6877
38055SOL    HW220003   9.008   8.551   2.577 -0.5496  0.1961 -0.0915
38056SOL     OW20004  12.057   4.621   6.433 -0.2853 -0.0360 -0.3536
38056SOL    HW120005  11.985   4.627   6.370 -0.3579  1.3721 -0.1572
38056SOL    HW220006  12.108   4.546   6.402 -1.5177 -0.7345 -0.8074
38057SOL     OW20007   0.672   1.473   5.148  0.3184 -0.5782  0.1699
38057SOL    HW120008   0.589   1.518   5.160  0.3146 -0.3742 -0.5869
38057SOL    HW220009   0.660   1.388   5.189 -0.4325 -0.7329 -0.3594
38058SOL     OW20010   0.850   8.249   7.721  0.3068  0.1677  0.3669
38058SOL    HW120011   0.770   8.198   7.712  0.1259  0.1289  2.0067
38058SOL    HW220012   0.820   8.339   7.735  0.5640  0.2587  0.3489
38059SOL     OW20013   9.916  10.107  12.223 -0.0655  0.0933 -0.3139
38059SOL    HW120014   9.859  10.077  12.294  1.4972 -0.1813  0.8864
38059SOL    HW220015   9.880  10.193  12.198 -0.4878  0.3287  1.0183
38060SOL     OW20016   1.325   5.328  11.039  0.0083 -0.0655  0.2477
38060SOL    HW120017   1.293   5.371  10.959 -0.1047  1.4940  1.0985
38060SOL    HW220018   1.403   5.280  11.010 -0.4308 -0.1074 -0.9346
38061SOL     OW20019   4.033   2.294   3.416  0.0134  0.2465 -0.3585
38061SOL    HW120020   3.982   2.375   3.409  1.2760  1.0808 -0.1721
38061SOL    HW220021   4.019   2.266   3.507  1.0795  1.3169  0.1650
38062SOL     OW20022   0.527   2.909   0.714  0.5787  0.3028  0.1307
38062SOL    HW120023   0.488   2.982   0.666 -1.3476  0.2379  1.4588
38062SOL    HW220024   0.584   2.867   0.651 -0.0175  1.6105 -1.3626
38063SOL     OW20025   5.907   8.455   6.929 -0.0246 -0.7576 -0.1286
38063SOL    HW120026   5.987   8.500   6.956  0.6193 -1.5884 -0.5975
38063SOL    HW220027   5.919   8.365   6.961 -0.4085 -1.0915 -0.8997
38064SOL     OW20028   3.336  10.417   3.618 -0.3241 -0.2497 -0.2169
38064SOL    HW120029   3.361  10.405   3.710  1.6325  0.1985 -0.6393
38064SOL    HW220030   3.247  10.452   3.622 -0.8552 -1.6381  1.4397
38065SOL     OW20031  10.934   1.532   5.614  0.5120 -0.0772  0.7117
38065SOL    HW120032  10.960   1.542   5.706  0.1406 -0.4593  0.8617
38065SOL    HW220033  10.901   1.442   5.609  0.5286 -0.0530  0.2036
38066SOL     OW20034   9.340   5.055   6.645  0.4047 -0.2555  0.1610
38066SOL    HW120035   9.256   5.075   6.686  1.0903  1.0591  0.9754
38066SOL    HW220036   9.405   5.084   6.709  1.5197 -3.0770  0.4450
38067SOL     OW20037   7.160   5.026   5.518 -0.2005 -0.6203  0.3853
38067SOL    HW120038   7.067   5.022   5.495  0.1005  1.7291 -1.5520
38067SOL    HW220039   7.206   5.017   5.435  1.2573 -0.0690  1.1009
38068SOL     OW20040  12.299   9.021   8.168 -0.7734 -0.4380 -0.6346
38068SOL    HW120041  12.383   8.974   8.168 -0.7279 -0.3640 -1.3178
38068SOL    HW220042  12.276   9.029   8.076 -0.7334  0.9771 -0.5396
38069SOL     OW20043   4.760  10.668   4.150  0.3934  0.0133  0.7143
38069SOL    HW120044   4.665  10.674   4.138  0.2590  1.5528  2.1032
38069SOL    HW220045   4.791  10.758   4.139  1.6927 -0.4484  0.3897
38070SOL     OW20046   3.827   7.799   0.692  0.0127  0.1208 -0.4541
38070SOL    HW120047   3.859   7.723   0.739 -0.4175  0.1491 -0.1204
38070SOL    HW220048   3.791   7.857   0.759 -0.5398  0.1917 -0.8029
38071SOL     OW20049   1.996   3.543  12.036 -0.4920 -0.0334  0.5595
38071SOL    HW120050   1.907   3.542  12.003 -0.0604 -0.7246 -0.6485
38071SOL    HW220051   2.043   3.603  11.979  0.2131 -1.0639  0.0204
38072SOL     OW20052   8.147   3.395   4.559  0.2128  0.4634  0.3185
38072SOL    HW120053   8.079   3.449   4.599 -1.7057 -1.8312  0.4190
38072SOL    HW220054   8.168   3.329   4.625 -1.5824 -2.2026 -1.5531
38073SOL     OW20055   6.400   7.382   1.757  0.3091  0.3107  0.2181
38073SOL    HW120056   6.377   7.400   1.848  1.5503  0.9381  0.4282
38073SOL    HW220057   6.469   7.445   1.736 -1.8975  2.1268 -2.0770
38074SOL     OW20058   6.560   7.353   9.008 -0.2294 -0.4933  0.1169
38074SOL    HW120059   6.538   7.355   8.915 -1.5550  1.1241  0.4149
38074SOL    HW220060   6.610   7.434   9.022  0.1784 -0.8509  0.7618
38075SOL     OW20061   0.903   0.921  12.297  0.1985 -0.1457  0.9262
38075SOL    HW120062   0.973   0.978  12.266 -0.3978 -0.0265 -0.2597
38075SOL    HW220063   0.919   0.837  12.253  0.8190 -0.7954  2.3213
38076SOL     OW20064   5.369   1.836   0.831 -0.5770 -0.2127  0.2066
38076SOL    HW120065   5.285   1.846   0.876  0.5796 -0.5218  2.6088
38076SOL    HW220066   5.432   1.881   0.887  0.8650  0.1727 -1.6191
38077SOL     OW20067   4.206   1.191   0.492  0.1273  0.2826  0.1677
38077SOL    HW120068   4.125   1.203   0.543 -0.4596 -2.0531 -0.1117
38077SOL    HW220069   4.178   1.199   0.401  1.0035  3.4240  0.0334
38078SOL     OW20070   0.664   1.222   7.758  0.4503  0.3731 -0.0575
38078SOL    HW120071   0.655   1.147   7.699  0.2770 -1.0090  1.6352
38078SOL    HW220072   0.711   1.288   7.707 -0.6889 -0.3059 -2.0892
38079SOL     OW20073  12.029   8.152   1.663 -0.2569 -0.3943  0.2572
38079SOL    HW120074  12.070   8.232   1.630 -1.1447 -0.6619 -1.6522
38079SOL    HW220075  12.097   8.086   1.655  0.7872  0.2942  2.7216
38080SOL     OW20076   3.699   8.256   9.554  0.2756  0.8042 -0.0009
38080SOL    HW120077   3.777   8.201   9.555  1.3479  2.2487 -1.0911
38080SOL    HW220078   3.674   8.264   9.646  1.1679  0.0032  0.3278
38081SOL     OW20079   6.693   5.091   5.677  0.1184 -0.3167 -0.2621
38081SOL    HW120080   6.643   5.139   5.611 -0.5844  0.0773  0.5323
38081SOL    HW220081   6.633   5.084   5.752  0.3963 -1.9929 -0.1753
38082SOL     OW20082   6.158   3.964  12.320 -0.5821  0.0018 -0.1545
38082SOL    HW120083   6.165   3.924  12.233 -0.8629  0.4781 -0.3978
38082SOL    HW220084   6.142   4.056  12.302 -0.8402  0.0647  0.4072
38083SOL     OW20085   6.960   2.792   3.835 -0.0769 -0.0478  0.0821
38083SOL    HW120086   7.047   2.754   3.818  0.0575 -0.0961  0.8212
38083SOL    HW220087   6.930   2.748   3.915 -1.4208 -1.0854 -0.9572
38084SOL     OW20088   4.143   4.179   1.953 -0.4061  0.2747 -0.0911
38084SOL    HW120089   4.187   4.171   1.868  0.4131  1.4065  0.1935
38084SOL    HW220090   4.148   4.092   1.991 -0.2590 -0.1053 -0.9515
38085SOL     OW20091   4.890   1.612   8.927  0.8166  0.1340  0.0195
38085SOL    HW120092   4.875   1.703   8.952  0.8697 -0.1127  1.0060
38085SOL    HW220093   4.820   1.564   8.971  1.7934 -0.4942  0.9573
38086SOL     OW20094   0.760   9.866   2.069  0.1344 -0.3030 -0.2683
38086SOL    HW120095   0.807   9.849   1.987 -1.0894 -2.3929 -0.6103
38086SOL    HW220096   0.789   9.796   2.128 -0.1583  0.2692  0.5653
38087SOL     OW20097   5.580   5.132  10.261  0.2794  0.1066  0.6339
38087SOL    HW120098   5.620   5.183  10.191  1.1804 -1.1273  0.2238
38087SOL    HW220099   5.545   5.198  10.321 -0.0890  1.1894 -0.7102
38088SOL     OW20100  12.103   6.840   1.399 -0.1655 -0.0448 -1.2546
38088SOL    HW120101  12.045   6.854   1.474 -0.0477 -1.9326 -0.7557
38088SOL    HW220102  12.172   6.906   1.409  0.7930 -1.3000  1.3063
38089SOL     OW20103  11.145   4.525   2.523 -0.5048  0.2283 -0.2740
38089SOL    HW120104  11.154   4.619   2.536  0.6691  0.3471 -1.7532
38089SOL    HW220105  11.102   4.516   2.438  1.9521 -0.5477 -1.5245
38090SOL     OW20106   2.369   0.068   7.333 -0.1835 -0.0457  0.0752
38090SOL    HW120107   2.333   0.066   7.244  1.3218  0.4116 -0.5794
38090SOL    HW220108   2.329   0.145   7.373 -0.6088 -0.0551 -0.3203
38091SOL     OW20109   9.575   1.602   1.802 -0.0724 -0.1186 -0.9229
38091SOL    HW120110   9.556   1.581   1.710  0.9937 -1.5759 -0.8423
38091SOL    HW220111   9.620   1.686   1.798 -1.0724  0.4058 -1.6178
38092SOL     OW20112   6.702   0.692   9.192  0.1399 -0.3197 -0.0703
38092SOL    HW120113   6.634   0.748   9.154  0.3820  0.5113  0.6746
38092SOL    HW220114   6.665   0.665   9.276  0.4502 -0.4167  0.0361
38093SOL     OW20115  11.145  11.310   1.160  0.4860 -0.4952 -0.3705
38093SOL    HW120116  11.070  11.284   1.213  1.0036 -1.2302  0.0261
38093SOL    HW220117  11.155  11.404   1.176 -0.3080 -0.4008 -0.3920
38094SOL     OW20118  10.909   1.251   5.610  0.7400 -0.3718  0.0599
38094SOL    HW120119  10.998   1.219   5.596  1.0544  0.8393 -0.8386
38094SOL    HW220120  10.853   1.190   5.562  0.9122 -1.9079  1.6803
38095SOL     OW20121   1.561   9.220   8.167  0.2711 -0.7289 -0.3218
38095SOL    HW120122   1.544   9.281   8.239 -1.9460 -1.3475 -0.2486
38095SOL    HW220123   1.654   9.229   8.150 -0.0767  3.4526 -0.9962
38096SOL     OW20124   7.403   9.960   9.515 -0.3621 -0.1009  0.1391
38096SOL    HW120125   7.407  10.000   9.428  0.6476 -1.3375 -0.4031
38096SOL    HW220126   7.309   9.948   9.531 -0.5344 -2.0582 -1.8553
38097SOL     OW20127   4.034   0.612  12.114 -0.4442 -0.0255 -0.2057
38097SOL    HW120128   4.086   0.631  12.191  1.4892  0.9814 -1.6677
38097SOL    HW220129   4.004   0.522  12.126  0.0895  0.0029  1.5307
38098SOL     OW20130   4.406  12.159  10.536 -0.0137 -0.0209  0.4994
38098SOL    HW120131   4.496  12.136  10.513  0.0515 -0.9518  1.6257
38098SOL    HW220132   4.354  12.131  10.461  0.6094  0.3781 -0.0906
38099SOL     OW20133   7.358   6.229  11.503 -0.0496  0.2247  0.7065
38099SOL    HW120134   7.429   6.294  11.503  0.3735 -0.2274  0.9268
38099SOL    HW220135   7.290   6.267  11.558 -0.3085  1.0114 -0.1409
38100SOL     OW20136   5.333   8.802   2.835 -0.7485 -0.0288  0.3733
38100SOL    HW120137   5.284   8.743   2.778  0.4076 -1.2741  0.6338
38100SOL    HW220138   5.298   8.889   2.813  0.7588 -0.1956 -3.5120
38101SOL     OW20139   2.062  10.929   8.568 -0.9851  0.0950  0.8994
38101SOL    HW120140   2.000  10.984   8.616 -1.5033  0.1880  0.1408
38101SOL    HW220141   2.043  10.946   8.475  0.2319  0.1914  0.6414
38102SOL     OW20142   0.315   2.965   8.285  0.2101 -0.1639 -0.6037
38102SOL    HW120143   0.391   2.920   8.249  1.1122  1.4613 -0.8654
38102SOL    HW220144   0.240   2.912   8.259  0.8820  0.3567 -4.0603
38103SOL     OW20145   0.515   4.121   3.397  0.3015  0.5304  0.3153
38103SOL    HW120146   0.504   4.087   3.486  1.4208  1.2074  0.7250
38103SOL    HW220147   0.607   4.105   3.375 -0.2539 -0.8410 -1.2510
38104SOL     OW20148   6.802  10.505   8.056 -0.5264  0.1077  0.3649
38104SOL    HW120149   6.706  10.507   8.055 -0.5749  2.5711  1.9808
38104SOL    HW220150   6.827  10.523   7.965 -1.5736 -0.4956 -0.0644
38105SOL     OW20151  10.263   3.322   3.562 -0.0663  0.0428 -0.1733
38105SOL    HW120152  10.330   3.306   3.496  1.1231 -1.8042  1.3448
38105SOL    HW220153  10.235   3.412   3.548  1.0362  0.0971 -2.3537
38106SOL     OW20154   1.041   9.434   1.657  0.2370 -0.5992  0.3737
38106SOL    HW120155   1.071   9.467   1.573  0.3210 -1.3725  0.0864
38106SOL    HW220156   0.969   9.492   1.682 -0.7007 -1.1551 -0.8862
38107SOL     OW20157   1.808   0.833  11.122 -0.4376  0.0300  0.0102
38107SOL    HW120158   1.823   0.806  11.212  2.1249 -0.3261 -0.4548
38107SOL    HW220159   1.774   0.923  11.129  1.7298  0.8222  1.3424
38108SOL     OW20160   4.412   5.534   4.777  0.2080  0.6263 -0.5182
38108SOL    HW120161   4.491   5.569   4.817 -0.2907  1.3729 -0.1536
38108SOL    HW220162   4.349   5.527   4.850 -0.0393 -0.0446 -0.7823
38109SOL     OW20163  10.001  11.871   1.471 -0.5669  0.3603  0.2307
38109SOL    HW120164  10.095  11.881   1.486 -0.6376 -0.1223  1.1041
38109SOL    HW220165   9.962  11.881   1.558 -1.1029 -1.8105  0.2950
38110SOL     OW20166   6.780   7.969   4.385  0.3070  0.1281  0.0795
38110SOL    HW120167   6.711   7.906   4.405 -0.0717  1.2779  2.7606
38110SOL    HW220168   6.851   7.948   4.446 -0.7041  3.5442  2.7572
38111SOL     OW20169   0.826   5.323   4.176 -0.2821  0.4906 -0.1999
38111SOL    HW120170   0.751   5.368   4.138 -1.1290  0.9765  1.9122
38111SOL    HW220171   0.866   5.388   4.235 -0.8270 -1.0724  2.0313
38112SOL     OW20172   7.784  10.978   0.282 -0.6576 -0.4805 -0.0759
38112SOL    HW120173   7.744  11.007   0.200 -0.8578 -0.0544  0.1679
38112SOL    HW220174   7.715  10.990   0.348  0.3087  1.6392  0.6124
38113SOL     OW20175  11.128   5.036  11.980  0.3911  0.2355 -0.2661
38113SOL    HW120176  11.097   4.945  11.985  1.2530 -0.2580 -2.6440
38113SOL    HW220177  11.217   5.032  12.015  0.8121 -0.0776 -1.3371
38114SOL     OW20178   5.911   0.891   7.161 -0.2141 -0.0153 -0.3993
38114SOL    HW120179   5.819   0.913   7.150 -1.0087 -1.6199  2.1102
38114SOL    HW220180   5.947   0.963   7.213 -0.6339 -0.3866  0.4333
38115SOL     OW20181   1.925   0.119   6.878 -0.3211  0.1424  0.1586
38115SOL    HW120182   1.833   0.106   6.898 -0.5197  1.6820  0.3343
38115SOL    HW220183   1.942   0.058   6.805 -1.4700 -0.1263  0.0944
38116SOL     OW20184  10.877   1.512   2.356 -0.1495 -0.5061 -0.0011
38116SOL    HW120185  10.908   1.422   2.360  1.4654  0.0524  1.0204
38116SOL    HW220186  10.810   1.517   2.424 -0.5899 -1.0312 -0.3811
38117SOL     OW20187   1.964  10.625   6.184  1.1122 -0.3053  0.2542
38117SOL    HW120188   1.984  10.708   6.141  0.8683 -0.6990 -0.6328
38117SOL    HW220189   1.908  10.578   6.122  1.9450 -1.4847  0.3603
38118SOL     OW20190   2.974   4.472   4.250 -0.3361  0.5225  0.0270
38118SOL    HW120191   2.936   4.560   4.257 -1.5176  0.0348 -0.0605
38118SOL    HW220192   2.903   4.418   4.214  0.2216 -0.5700  0.5296
38119SOL     OW20193   0.059  10.816   2.656 -0.5555 -0.7875 -0.3040
38119SOL    HW120194   0.005  10.880   2.610 -0.4609 -0.1655  0.4415
38119SOL    HW220195   0.149  10.844   2.641 -0.4608 -1.3820 -0.8951
38120SOL     OW20196   6.288   3.260   7.581  0.4918 -0.2810 -0.6646
38120SOL    HW120197   6.364   3.250   7.638 -1.3088 -0.7370  1.8046
38120SOL    HW220198   6.215   3.277   7.640 -1.5619 -0.9567 -2.8253
38121SOL     OW20199   4.703  10.616  11.537  0.3014  0.0049  0.1675
38121SOL    HW120200   4.718  10.560  11.612  1.0779 -0.0851 -0.0499
38121SOL    HW220201   4.752  10.696  11.557  1.2171 -0.3437 -0.6078
38122SOL     OW20202   4.667  12.126   1.289  0.0930 -0.2239  0.0515
38122SOL    HW120203   4.585  12.080   1.306  0.1565 -0.1141  0.6703
38122SOL    HW220204   4.642  12.203   1.238 -0.2379  0.0205  0.5790
38123SOL     OW20205   4.523   9.622   6.503 -0.1033  0.4059  0.4591
38123SOL    HW120206   4.496   9.599   6.592 -1.9502  0.9308  0.0859
38123SOL    HW220207   4.531   9.538   6.458 -2.1270  0.1973  0.3719
38124SOL     OW20208   8.201   0.569   1.504  0.2165  0.6722 -0.8940
38124SOL    HW120209   8.266   0.559   1.434 -0.2432  3.0786 -1.7764
38124SOL    HW220210   8.249   0.549   1.584  1.9603  1.8470 -1.5691
38125SOL     OW20211   7.182   9.349   0.316  0.2909 -0.1078  0.2625
38125SOL    HW120212   7.157   9.397   0.237  0.8000  0.8233  0.6475
38125SOL    HW220213   7.101   9.342   0.367 -0.0099 -0.5948 -0.2806
38126SOL     OW20214   7.144   7.273  10.704  0.0926 -0.3416 -0.3768
38126SOL    HW120215   7.223   7.238  10.744  0.0457  0.5665  0.5596
38126SOL    HW220216   7.113   7.339  10.766 -0.5154  0.4359 -1.4667
38127SOL     OW20217   5.109  11.279   1.340 -0.4466  0.1157  0.5000
38127SOL    HW120218   5.117  11.200   1.288  0.1176  0.1092  0.5922
38127SOL    HW220219   5.015  11.294   1.348 -0.5382  0.3269 -0.8270
38128SOL     OW20220  11.364   7.848   6.800  0.2191 -0.4459 -0.1407
38128SOL    HW120221  11.379   7.898   6.720 -2.5544 -0.3517 -0.7157
38128SOL    HW220222  11.322   7.911   6.860  1.0802 -0.8559  0.9211
38129SOL     OW20223   1.343   6.202   9.813  0.1001 -0.1057  0.2389
38129SOL    HW120224   1.418   6.233   9.762 -0.3181  1.4018  0.4983
38129SOL    HW220225   1.381   6.152   9.885  0.6910 -3.0430 -1.9285
38130SOL     OW20226   7.841   3.431  11.834 -0.0147  0.3132 -0.2718
38130SOL    HW120227   7.794   3.453  11.914  0.9241 -0.5670  0.5442
38130SOL    HW220228   7.774   3.392  11.777 -0.4286 -0.3169  0.6149
38131SOL     OW20229   4.875  11.556   5.509 -0.3710 -0.0867 -0.4016
38131SOL    HW120230   4.836  11.640   5.532 -1.1807 -0.5949  0.1450
38131SOL    HW220231   4.812  11.516   5.449  0.6107  0.2192 -1.6948
38132SOL     OW20232   0.995   9.068  11.172 -0.3308  0.2208  0.6044
38132SOL    HW120233   0.964   9.159  11.167 -0.0394  0.3122  0.4519
38132SOL    HW220234   0.929   9.018  11.124 -0.0418  0.4690 -0.0698
38133SOL     OW20235   8.741   3.137   0.328 -0.4699 -0.0294 -0.2316
38133SOL    HW120236   8.796   3.059   0.330 -0.7043 -0.1898  0.1290
38133SOL    HW220237   8.796   3.205   0.289 -0.8934 -0.8394 -2.3660
38134SOL     OW20238   1.877   8.015   7.943  0.3437  0.4942 -0.2245
38134SOL    HW120239   1.904   8.018   8.035 -0.2688 -3.0985  0.2230
38134SOL    HW220240   1.958   8.001   7.895  0.5787  1.6801 -0.2084
38135SOL     OW20241   9.971   3.479   3.728  0.2384 -0.2700 -0.3617
38135SOL    HW120242   9.951   3.386   3.717 -0.3416 -0.0751 -1.0823
38135SOL    HW220243   9.924   3.522   3.657  0.9353  0.5252 -0.3644
38136SOL     OW20244  11.390   0.813  11.741  0.0714 -0.2872 -0.1663
38136SOL    HW120245  11.374   0.729  11.784  0.8827 -0.8746 -0.9921
38136SOL    HW220246  11.461   0.796  11.680 -1.2353  0.4495 -1.9623
38137SOL     OW20247   4.864   0.110   2.153  2.0102  0.1800 -0.1053
38137SOL    HW120248   4.768   0.111   2.147  1.8524  0.0496  1.8898
38137SOL    HW220249   4.889   0.031   2.104  0.9412 -0.8368  0.9174
38138SOL     OW20250   7.932   5.126   2.015 -0.5486  0.6072  0.2642
38138SOL    HW120251   7.978   5.063   1.960 -1.8261  0.9949 -1.3235
38138SOL    HW220252   7.957   5.102   2.104  3.6174  1.5135 -0.4514
38139SOL     OW20253   1.129   4.348   0.095 -0.1215 -0.5804  0.6774
38139SOL    HW120254   1.057   4.289   0.117 -1.6554  0.1621 -1.8283
38139SOL    HW220255   1.192   4.337   0.166 -2.7654 -1.1272  3.1538
38140SOL     OW20256   6.282   8.670  10.574  0.1489  0.3516 -0.7140
38140SOL    HW120257   6.375   8.680  10.556  1.1070 -1.4581  2.4406
38140SOL    HW220258   6.263   8.578  10.558 -0.7619  0.4079 -0.0994
38141SOL     OW20259   1.781   6.791  11.834 -0.2051  0.3145  0.1292
38141SOL    HW120260   1.715   6.811  11.900 -1.2397 -0.4867 -0.6298
38141SOL    HW220261   1.838   6.726  11.876 -0.5555  0.1892  0.4163
38142SOL     OW20262   4.864   6.886   2.727 -0.2620  0.0442 -0.3918
38142SOL    HW120263   4.875   6.841   2.812 -0.0588  0.9571  0.0731
38142SOL    HW220264   4.952   6.910   2.701 -0.5599  3.6165  1.2905
38143SOL     OW20265   1.333   5.865  12.280  0.1110  0.2427 -0.0010
38143SOL    HW120266   1.401   5.843  12.344 -0.6757  0.6625  1.0124
38143SOL    HW220267   1.311   5.956  12.298 -2.7366 -0.6429  1.7136
38144SOL     OW20268   2.785   3.923   2.005 -0.3350 -0.4458 -0.1086
38144SOL    HW120269   2.705   3.889   2.044  0.0749 -0.3818  0.8074
38144SOL    HW220270   2.854   3.863   2.035  0.1003  0.0533 -0.0923
38145SOL     OW20271   3.885   0.783   1.282 -0.1495  0.4428 -0.6117
38145SOL    HW120272   3.964   0.740   1.250  0.9457  3.1137 -1.8533
38145SOL    HW220273   3.820   0.769   1.212 -0.1248 -0.0440 -0.5356
38146SOL     OW20274   4.897   5.274   0.911 -0.2275  0.0262  0.4276
38146SOL    HW120275   4.972   5.245   0.859 -0.5562  0.0744 -0.0782
38146SOL    HW220276   4.933   5.341   0.969  0.0707  0.2349  0.0077
38147SOL     OW20277   5.625   4.164   1.723 -0.1709  0.1081  0.5140
38147SOL    HW120278   5.648   4.234   1.663  1.2261  0.6599  1.6126
38147SOL    HW220279   5.545   4.194   1.766 -0.7561  0.0475 -0.5057
38148SOL     OW20280   4.533   8.388  10.602 -0.6563  0.0899 -0.0465
38148SOL    HW120281   4.536   8.445  10.678  0.7575  0.8662 -0.6452
38148SOL    HW220282   4.448   8.407  10.561 -1.2009  0.0341  1.0143
38149SOL     OW20283   1.911   1.373  11.089 -0.1126 -0.0629 -0.1204
38149SOL    HW120284   1.883   1.325  11.167  0.2315  0.6062  0.4251
38149SOL    HW220285   1.978   1.316  11.050  1.1414  0.4484  1.1630
38150SOL     OW20286   9.196   9.827   6.238 -0.0724 -0.8923  0.2545
38150SOL    HW120287   9.211   9.848   6.330  1.1065  0.4971 -0.2336
38150SOL    HW220288   9.162   9.737   6.240 -3.1445  0.1462  2.2485
38151SOL     OW20289   8.775  10.063  11.391  0.3700  0.5596 -0.1283
38151SOL    HW120290   8.688  10.093  11.364 -0.0167  0.4979  0.9706
38151SOL    HW220291   8.758   9.985  11.444  0.9776  1.2704  1.1588
38152SOL     OW20292   7.635   6.595   3.070  0.1604 -0.0245  0.9723
38152SOL    HW120293   7.634   6.505   3.040  1.4835  0.2260  0.1110
38152SOL    HW220294   7.712   6.602   3.126  0.7688  0.8607  0.0505
38153SOL     OW20295   7.837   5.635   5.531  0.5313  0.3834 -0.0199
38153SOL    HW120296   7.819   5.726   5.554  3.1109  0.8358  0.4841
38153SOL    HW220297   7.913   5.639   5.473  0.7187 -1.4603  0.0230
38154SOL     OW20298   5.007   5.498   1.994  0.5544 -0.1737 -0.0183
38154SOL    HW120299   5.066   5.568   2.022 -0.2575  1.1658 -1.4868
38154SOL    HW220300   5.064   5.432   1.955  1.2501  0.1439  0.4399
38155SOL     OW20301   6.712   2.288   3.500  0.4024 -0.6923 -0.1061
38155SOL    HW120302   6.776   2.344   3.455  1.8978 -2.4222 -0.2470
38155SOL    HW220303   6.644   2.273   3.434 -0.3294  1.3602  0.1195
38156SOL     OW20304   1.769   7.742   9.057 -0.0180 -0.3109  0.0877
38156SOL    HW120305   1.857   7.780   9.060 -0.7507  1.4595  0.2073
38156SOL    HW220306   1.746   7.742   8.964  0.2938 -1.2925 -0.0054
38157SOL     OW20307   2.674   8.545   5.777  0.1600 -0.2779 -0.0767
38157SOL    HW120308   2.720   8.567   5.696 -0.0388  1.9904  0.3527
38157SOL    HW220309   2.730   8.578   5.847 -0.8187  0.0244  0.5896
38158SOL     OW20310   7.118   5.543   3.006  0.3461  0.0485  0.4866
38158SOL    HW120311   7.045   5.518   3.063 -0.6432 -1.1833 -1.2048
38158SOL    HW220312   7.089   5.624   2.964 -0.3905 -0.7851 -0.6747
38159SOL     OW20313   4.832   5.108   2.685  0.4859 -0.0074  0.7086
38159SOL    HW120314   4.862   5.092   2.775 -1.1368  1.6101  1.5881
38159SOL    HW220315   4.740   5.132   2.694  0.2052 -0.0722 -1.4456
38160SOL     OW20316  12.088  11.897   3.035 -0.1751  0.0190  0.0632
38160SOL    HW120317  12.132  11.829   2.984 -1.4026 -2.4646  2.0625
38160SOL    HW220318  11.999  11.900   3.000 -0.1657  0.5406  0.0683
38161SOL     OW20319  10.586   0.872   3.314 -0.0904  0.2226 -0.1965
38161SOL    HW120320  10.516   0.924   3.355  1.7693  1.5466  1.5271
38161SOL    HW220321  10.540   0.805   3.264 -2.5794  0.9003  1.0113
38162SOL     OW20322   1.236  11.406  11.455  0.0418  0.0689 -0.5737
38162SOL    HW120323   1.311  11.352  11.431  1.3978  1.7322 -0.3012
38162SOL    HW220324   1.162  11.346  11.453  1.1114 -1.3217 -2.3603
38163SOL     OW20325  11.634   0.671   2.013  0.7276  0.0483 -0.5112
38163SOL    HW120326  11.707   0.610   2.022 -0.9434 -1.6961  3.1866
38163SOL    HW220327  11.650   0.738   2.080 -0.9378 -0.3075  0.2921
38164SOL     OW20328   4.722   0.522   3.283 -0.2425 -0.0497  0.2147
38164SOL    HW120329   4.734   0.480   3.198 -0.8378  0.0717  0.0680
38164SOL    HW220330   4.751   0.457   3.347  0.3008 -0.1036 -0.0860
38165SOL     OW20331   5.091   1.942   9.488  0.0344  0.1021 -0.5372
38165SOL    HW120332   5.135   1.943   9.573 -0.1938  1.6089 -0.3999
38165SOL    HW220333   5.013   1.997   9.500 -0.5883 -0.5466 -1.4283
38166SOL     OW20334  12.012   5.521   4.020  0.5176 -0.1097  0.4339
38166SOL    HW120335  12.001   5.427   4.004  0.2504  0.0312 -0.2649
38166SOL    HW220336  12.105   5.537   4.006  0.3686 -0.0719 -0.6236
38167SOL     OW20337  12.204  10.659   4.307  0.6503 -0.1247 -0.0186
38167SOL    HW120338  12.284  10.606   4.307 -0.1980 -1.5922  2.1569
38167SOL    HW220339  12.228  10.739   4.261  2.7029 -1.4163 -1.3863
38168SOL     OW20340  11.016   3.520  12.269  0.3163 -0.2177 -0.1398
38168SOL    HW120341  10.940   3.578  12.264  0.3589 -0.2625 -1.6604
38168SOL    HW220342  10.980   3.431  12.267  0.4401 -0.2744 -2.8950
38169SOL     OW20343   5.736   8.585   4.995 -0.1593 -0.3548 -0.5222
38169SOL    HW120344   5.644   8.585   4.969 -0.0340  0.1064 -0.9800
38169SOL    HW220345   5.736   8.613   5.086 -0.3848  0.8749 -0.8819
38170SOL     OW20346   9.702   1.069   6.267 -0.2486  0.3682  0.1186
38170SOL    HW120347   9.621   1.017   6.265  0.1486 -0.2437 -0.9318
38170SOL    HW220348   9.772   1.005   6.262  0.3500  0.8609  1.6489
38171SOL     OW20349   1.028   1.011  10.324  0.6886 -0.1238  0.1357
38171SOL    HW120350   1.008   1.034  10.233  1.0346 -0.8872 -0.1406
38171SOL    HW220351   1.084   1.082  10.355 -0.1464  0.5966  0.0442
38172SOL     OW20352  10.558   0.344   7.864 -0.7348 -0.1322  0.6772
38172SOL    HW120353  10.486   0.406   7.861  0.5314  1.3917 -0.3156
38172SOL    HW220354  10.576   0.323   7.772  0.0587 -0.5088  0.9041
38173SOL     OW20355   1.297   3.438  10.275  0.2005 -0.2679 -0.2008
38173SOL    HW120356   1.255   3.499  10.337 -0.4991 -0.6160 -0.3169
38173SOL    HW220357   1.312   3.359  10.327 -1.7507 -1.1019 -0.8074
38174SOL     OW20358  11.294   2.416   5.811 -0.1062 -0.6084 -0.0147
38174SOL    HW120359  11.381   2.457   5.817 -0.2750 -0.2780  0.2327
38174SOL    HW220360  11.290   2.381   5.722  0.4128 -0.9317  0.0868
38175SOL     OW20361   5.753   9.002   7.698 -0.7837  0.5402  0.4093
38175SOL    HW120362   5.662   9.030   7.683 -0.6901  0.0287 -1.3841
38175SOL    HW220363   5.769   9.021   7.790 -2.6261  0.8940  0.7015
38176SOL     OW20364   5.011   9.431  10.444  0.4117 -0.5647  0.0321
38176SOL    HW120365   5.043   9.371  10.512  0.4232 -1.7710 -1.0003
38176SOL    HW220366   5.051   9.399  10.363  0.6230  1.0178 -0.5304
38177SOL     OW20367   7.514   0.925   2.617 -0.0350 -0.0684 -0.2077
38177SOL    HW120368   7.442   0.955   2.671  0.1803  0.4587 -0.2098
38177SOL    HW220369   7.520   0.989   2.546 -1.4382 -1.6769 -1.8596
38178SOL     OW20370   7.194   1.297   7.400  0.5984 -0.0065  0.2487
38178SOL    HW120371   7.237   1.380   7.381 -0.4080  0.6651  0.8335
38178SOL    HW220372   7.135   1.283   7.327 -1.2295  1.1841  1.4331
38179SOL     OW20373   8.083   8.652   6.633  0.2246 -0.5308 -0.7646
38179SOL    HW120374   8.140   8.666   6.557  1.6549 -1.7750  0.0111
38179SOL    HW220375   8.094   8.559   6.654 -0.5652 -0.3405  0.6358
38180SOL     OW20376   4.606   5.272   9.327 -0.1617  0.2378 -0.2799
38180SOL    HW120377   4.568   5.286   9.240  1.3437 -1.8045 -1.3471
38180SOL    HW220378   4.531   5.272   9.386 -1.8184 -2.6598 -2.1431
38181SOL     OW20379   4.065   2.051   0.740  0.2540 -0.3363 -0.1441
38181SOL    HW120380   4.068   1.996   0.662  0.5536  0.9780 -1.1078
38181SOL    HW220381   3.978   2.092   0.737  0.7000  0.6199 -0.4645
38182SOL     OW20382  10.297   3.030   6.638 -0.3745  0.4098 -0.6064
38182SOL    HW120383  10.382   3.024   6.681 -0.0335  2.1141 -0.9918
38182SOL    HW220384  10.247   2.957   6.674  1.3015 -0.7736 -0.5429
38183SOL     OW20385   1.007  10.420  12.254 -0.3498 -0.2268 -0.1375
38183SOL    HW120386   1.083  10.462  12.216 -0.6520 -0.7556 -1.3778
38183SOL    HW220387   1.036  10.331  12.274 -0.3518 -0.1186  0.3578
38184SOL     OW20388   8.154  10.140   2.172  0.1923 -1.0182  0.1311
38184SOL    HW120389   8.140  10.182   2.257 -2.7839 -1.6706  0.0911
38184SOL    HW220390   8.214  10.068   2.191 -0.3272 -1.0821  1.6938
38185SOL     OW20391   5.347   6.431   9.364 -0.1090  0.5363 -0.3351
38185SOL    HW120392   5.300   6.482   9.298  0.7319  2.2780  0.3535
38185SOL    HW220393   5.279   6.400   9.424 -0.7844 -0.3738 -1.5157
38186SOL     OW20394   5.459   8.821   5.562  0.6920  0.0400  0.1898
38186SOL    HW120395   5.455   8.819   5.658  0.6507  1.1523  0.2155
38186SOL    HW220396   5.488   8.909   5.540  2.6990 -0.7853 -0.7759
38187SOL     OW20397  10.563   9.602   5.753 -0.3028  0.1597 -0.1159
38187SOL    HW120398  10.535   9.636   5.668 -0.2830  1.6183  0.4246
38187SOL    HW220399  10.656   9.581   5.741  0.1152  1.8407 -0.0677
38188SOL     OW20400   7.157  11.318  11.201  0.7142 -0.0859 -0.1724
38188SOL    HW120401   7.172  11.410  11.220 -0.0403 -0.1601  0.8980
38188SOL    HW220402   7.091  11.318  11.131 -0.4777  0.2044  0.9164
38189SOL     OW20403   6.608   1.299   1.003 -0.4364  0.8694 -0.1120
38189SOL    HW120404   6.613   1.392   1.022  0.1570  0.4769  1.8188
38189SOL    HW220405   6.689   1.262   1.040 -1.1584 -0.5542  0.1116
38190SOL     OW20406   3.227   7.729   4.011  0.3896  0.0900 -0.3452
38190SOL    HW120407   3.213   7.726   3.917  0.9558  2.0482 -0.5465
38190SOL    HW220408   3.237   7.822   4.030  0.5957 -0.2917  1.6103
38191SOL     OW20409  11.598   8.393  10.265  0.2747 -0.9235  0.0720
38191SOL    HW120410  11.524   8.417  10.321 -0.1839 -0.9656 -0.4978
38191SOL    HW220411  11.642   8.476  10.246  0.5330 -0.9304  0.6250
38192SOL     OW20412   2.689   8.268   3.219  0.0495 -0.1130  0.1759
38192SOL    HW120413   2.726   8.242   3.304  1.0723  0.2840 -0.1348
38192SOL    HW220414   2.711   8.361   3.212 -1.7272  0.3466  0.3330
38193SOL     OW20415   3.554  11.942   8.017  0.2618  0.1813 -0.2123
38193SOL    HW120416   3.584  11.998   7.945  0.1894 -0.3274 -0.6388
38193SOL    HW220417   3.538  12.004   8.089  1.0945  0.6021 -0.3745
38194SOL     OW20418  12.195   3.339   5.402 -0.1071 -0.0068 -0.1932
38194SOL    HW120419  12.245   3.304   5.329 -1.3052 -2.0321 -0.1087
38194SOL    HW220420  12.241   3.310   5.480  0.0750  0.4570 -0.1243
38195SOL     OW20421   4.124   6.537   1.083 -0.1799 -0.1022 -0.1349
38195SOL    HW120422   4.147   6.591   1.007  0.6517  0.8738  0.7946
38195SOL    HW220423   4.195   6.473   1.089  0.4311  0.6316  0.5763
38196SOL     OW20424   4.691  10.458   0.291  0.5190  0.4199 -0.0080
38196SOL    HW120425   4.682  10.534   0.349  1.2859  2.2320 -2.1028
38196SOL    HW220426   4.603  10.440   0.259  0.2701  0.1193  0.8166
38197SOL     OW20427   3.542   6.371   4.515  0.5690 -1.1156  0.4723
38197SOL    HW120428   3.538   6.304   4.582  0.0127 -0.3767  1.2024
38197SOL    HW220429   3.567   6.325   4.435  0.3122 -2.1542  0.9849
38198SOL     OW20430   3.145  11.264   2.282  0.0074  0.1086  0.4315
38198SOL    HW120431   3.066  11.226   2.244 -0.3443 -0.8464  2.0212
38198SOL    HW220432   3.142  11.356   2.257 -1.9919  0.2604  1.0565
38199SOL     OW20433  10.985   4.165  10.430  0.3459 -0.0005  0.3019
38199SOL    HW120434  10.904   4.212  10.409  0.2407 -0.3652 -0.1196
38199SOL    HW220435  10.984   4.159  10.526  0.3828  0.8785  0.3679
38200SOL     OW20436   4.022  10.385   5.380  0.3927 -0.6886 -0.0940
38200SOL    HW120437   3.964  10.411   5.309 -0.6431 -1.7276  0.3247
38200SOL    HW220438   4.004  10.292   5.392  2.8355 -1.2697 -0.5423
38201SOL     OW20439   5.215   0.581   5.365  0.6056  0.0858  0.3381
38201SOL    HW120440   5.295   0.595   5.316  1.3676  1.0835  1.7964
38201SOL    HW220441   5.146   0.620   5.312  1.3388  0.7510 -0.1397
38202SOL     OW20442  11.590   3.074   3.811  0.1328 -0.2211  0.5466
38202SOL    HW120443  11.576   3.146   3.872  0.7932 -1.1707  1.8649
38202SOL    HW220444  11.565   2.996   3.860 -0.0638 -0.9532 -0.6751
38203SOL     OW20445   8.580   6.834   6.778 -0.1422  0.2459 -0.0096
38203SOL    HW120446   8.511   6.870   6.723 -0.2091  1.0818  0.5964
38203SOL    HW220447   8.573   6.882   6.860  2.7864  2.2385 -0.7752
38204SOL     OW20448   1.943   9.802   1.519 -0.3898 -0.0622 -0.0022
38204SOL    HW120449   1.988   9.730   1.562  2.1669  0.4876 -1.5285
38204SOL    HW220450   1.922   9.769   1.432  0.1102  0.7358 -0.4491
38205SOL     OW20451  11.600  10.631   1.233  0.2213 -0.5950 -0.2522
38205SOL    HW120452  11.546  10.681   1.171  1.3872 -1.5019 -2.0841
38205SOL    HW220453  11.660  10.580   1.177  1.3950 -1.3887  1.6372
38206SOL     OW20454  10.008   9.905   7.722  0.3993  0.4637 -0.3939
38206SOL    HW120455  10.103   9.906   7.735  0.7826 -0.7571 -2.5629
38206SOL    HW220456   9.976   9.838   7.784  1.0021  0.5983  0.0677
38207SOL     OW20457   2.361  12.243   4.629 -0.3719 -0.2639 -0.6176
38207SOL    HW120458   2.385  12.152   4.647 -1.3321 -0.8389 -2.0903
38207SOL    HW220459   2.417  12.269   4.556  2.9106  1.7841  2.3054
38208SOL     OW20460   3.754   1.353   5.209  0.5279 -0.1208 -0.1236
38208SOL    HW120461   3.666   1.352   5.171  0.9349 -0.9344 -1.0958
38208SOL    HW220462   3.810   1.318   5.140  1.4795 -0.5047  0.8231
38209SOL     OW20463   5.194   7.170   5.690 -0.3171  0.0553  0.1853
38209SOL    HW120464   5.267   7.207   5.739 -0.2093  0.8921 -0.5668
38209SOL    HW220465   5.174   7.088   5.734 -1.1352  1.3957  2.4885
38210SOL     OW20466   8.735   7.101   0.675 -0.3956 -0.1719  0.4263
38210SOL    HW120467   8.663   7.092   0.611 -0.8147 -2.1383  1.1286
38210SOL    HW220468   8.697   7.154   0.745 -0.7492 -0.1692  0.2374
38211SOL     OW20469   0.429   3.930   2.486 -0.0144 -0.0715  0.0003
38211SOL    HW120470   0.504   3.900   2.537 -0.6625  1.7478  2.2274
38211SOL    HW220471   0.386   3.995   2.543 -1.6467  1.0443 -2.3350
38212SOL     OW20472  10.688  10.157  10.328  0.5240  0.3154 -0.1127
38212SOL    HW120473  10.761  10.107  10.364  0.8515  0.1681 -0.9498
38212SOL    HW220474  10.683  10.235  10.382  0.6804 -0.1288  0.5556
38213SOL     OW20475   7.698   9.245  10.291  0.1508  0.0118  0.0809
38213SOL    HW120476   7.623   9.238  10.232  0.1183  2.1980 -0.2080
38213SOL    HW220477   7.667   9.301  10.362  1.7353  1.7144 -0.4995
38214SOL     OW20478   0.441   8.829   9.378 -0.1835 -0.2399  0.3191
38214SOL    HW120479   0.472   8.746   9.414 -0.9234 -0.1017  1.3084
38214SOL    HW220480   0.519   8.883   9.373 -0.1489 -0.0243  2.4115
38215SOL     OW20481   2.838   6.044  11.411  0.2192 -0.3337  0.1875
38215SOL    HW120482   2.802   6.017  11.496 -0.9517 -0.1969 -0.2404
38215SOL    HW220483   2.874   5.964  11.374  0.1198 -0.5354  0.5182
38216SOL     OW20484   1.054  11.694  12.221  0.3574 -0.1358 -0.0287
38216SOL    HW120485   0.977  11.662  12.267  0.4051  0.5236  0.5325
38216SOL    HW220486   1.051  11.652  12.135 -0.1800 -0.7443  0.2845
38217SOL     OW20487   6.708   0.534   8.176  0.6699  0.2196 -0.2908
38217SOL    HW120488   6.618   0.559   8.197 -0.5603 -3.5059 -0.4071
38217SOL    HW220489   6.725   0.575   8.091 -0.4469  1.8462  0.2071
38218SOL     OW20490   8.057  10.473   3.594  0.1637  0.0809  0.1430
38218SOL    HW120491   7.987  10.515   3.544  0.2412  1.4637  1.1438
38218SOL    HW220492   8.069  10.388   3.552 -2.2054 -0.2555  0.0125
38219SOL     OW20493   2.950  10.156   4.301  0.1248  0.5460 -0.2893
38219SOL    HW120494   2.923  10.200   4.220 -0.7712 -0.1483 -0.3740
38219SOL    HW220495   2.899  10.076   4.303 -0.5987  1.0245  1.4886
38220SOL     OW20496  11.101   9.665   6.922  0.3727 -0.3590 -0.2438
38220SOL    HW120497  11.119   9.604   6.850 -1.2839 -1.4172  0.2046
38220SOL    HW220498  11.040   9.619   6.978 -0.5913  1.5630  0.3581
38221SOL     OW20499   2.848  10.128   7.965 -0.1503 -0.1061  0.0012
38221SOL    HW120500   2.935  10.145   8.000 -0.3617 -0.7957  0.8879
38221SOL    HW220501   2.839  10.033   7.969 -1.0746 -0.0161  0.2469
38222SOL     OW20502   5.416   2.539   2.444  0.6248 -0.1127 -0.3221
38222SOL    HW120503   5.349   2.590   2.489 -0.6909 -1.3400 -0.8109
38222SOL    HW220504   5.367   2.482   2.384  2.0203 -1.8579  0.1045
38223SOL     OW20505  10.952   1.093   7.510 -0.0773 -0.3704  0.0617
38223SOL    HW120506  10.897   1.034   7.460  0.0095  1.0498 -1.7970
38223SOL    HW220507  11.041   1.062   7.495 -0.1526 -0.9220  0.7035
38224SOL     OW20508   3.986   3.735   9.075 -0.6614  0.0133 -0.2296
38224SOL    HW120509   3.943   3.820   9.075  1.6879  1.2748  0.9923
38224SOL    HW220510   4.048   3.739   9.002  0.0227 -0.3326  0.3191
38225SOL     OW20511   9.294   3.476   8.651 -0.0036 -0.3402 -0.4197
38225SOL    HW120512   9.333   3.389   8.640 -0.2194 -0.4227 -0.5412
38225SOL    HW220513   9.369   3.535   8.658  0.1369 -0.4344 -1.1282
38226SOL     OW20514   9.300   9.870   2.045 -0.1564 -0.1998  0.3270
38226SOL    HW120515   9.364   9.924   1.998 -0.3140 -0.6095 -0.3727
38226SOL    HW220516   9.353   9.815   2.103  0.1258 -0.5469 -0.2559
38227SOL     OW20517   4.316   3.665   6.266  0.0667  0.0611 -0.0595
38227SOL    HW120518   4.283   3.577   6.244  1.6806 -0.5355 -0.2348
38227SOL    HW220519   4.247   3.724   6.236 -0.1164 -1.0278 -1.9858
38228SOL     OW20520   5.713   0.157  11.064 -0.2921 -0.2092  0.2927
38228SOL    HW120521   5.692   0.117  11.148  0.0278 -0.8829  0.0539
38228SOL    HW220522   5.754   0.241  11.086  1.2601 -1.0957  0.8362
38229SOL     OW20523   3.292   9.119  11.146 -0.4792  0.5581  0.3829
38229SOL    HW120524   3.204   9.081  11.139  0.2815 -1.0243 -1.3195
38229SOL    HW220525   3.281   9.193  11.206 -3.2557  1.2696 -0.8499
38230SOL     OW20526   8.095   5.171   0.961  0.1818  0.3184  0.2030
38230SOL    HW120527   8.177   5.123   0.975  0.7569  1.1498 -0.2447
38230SOL    HW220528   8.091   5.234   1.033  0.0958  0.4974  0.0417
38231SOL     OW20529   9.809   0.358   5.162 -0.3656  0.0273 -0.5314
38231SOL    HW120530   9.732   0.415   5.159 -0.0582  0.4055 -1.3465
38231SOL    HW220531   9.815   0.322   5.074  1.3519  1.2882 -0.9713
38232SOL     OW20532   0.680  10.317   9.834  0.1543 -0.5206  0.4146
38232SOL    HW120533   0.649  10.254   9.899  0.9983 -1.4477 -0.0547
38232SOL    HW220534   0.740  10.267   9.779 -0.3447  0.3096 -0.9345
38233SOL     OW20535  10.886   2.483   1.854  0.0239  0.7089  0.6752
38233SOL    HW120536  10.885   2.575   1.878  1.4815  0.6663  1.0096
38233SOL    HW220537  10.814   2.444   1.905 -1.5201  1.8611 -0.5262
38234SOL     OW20538   0.198  11.355   0.967  0.0709  0.1348 -0.0243
38234SOL    HW120539   0.107  11.374   0.991 -0.5746 -2.0490 -0.5219
38234SOL    HW220540   0.226  11.433   0.918 -1.4016  0.9937  0.4138
38235SOL     OW20541   0.669   1.689   3.202 -0.4290  0.2704  0.3079
38235SOL    HW120542   0.688   1.654   3.289  0.0690  0.0091  0.0942
38235SOL    HW220543   0.659   1.612   3.147  1.2625  0.4486 -0.2944
38236SOL     OW20544   9.826  10.026   6.551 -0.2039  0.1188  0.7798
38236SOL    HW120545   9.858  10.045   6.639  0.3452  1.5175  0.3081
38236SOL    HW220546   9.834   9.931   6.543  0.2527  0.0229  2.0310
38237SOL     OW20547   3.936   3.702   3.381  0.0645  0.2489  0.1230
38237SOL    HW120548   3.954   3.657   3.299  0.7678 -1.0491  0.9604
38237SOL    HW220549   3.959   3.793   3.364  1.9096 -0.3110 -0.5999
38238SOL     OW20550   6.634   6.276   1.044 -0.1901 -0.5967  0.0273
38238SOL    HW120551   6.556   6.333   1.041  1.1857  1.3256 -0.8613
38238SOL    HW220552   6.696   6.324   1.098  0.4950 -2.0338  0.5758
38239SOL     OW20553   2.828   2.372   0.814 -0.2178 -0.8469 -0.2600
38239SOL    HW120554   2.790   2.285   0.802 -0.4582 -0.9915  1.3264
38239SOL    HW220555   2.865   2.394   0.729 -0.2497 -2.4533 -0.7215
38240SOL     OW20556   2.676   2.003   8.748  0.0929 -0.7593  0.7390
38240SOL    HW120557   2.660   1.954   8.829 -0.6486 -1.5966  0.1032
38240SOL    HW220558   2.738   2.072   8.774  1.0493 -1.9245  1.6918
38241SOL     OW20559  12.275   6.595   7.212  0.6000  0.3368 -0.0327
38241SOL    HW120560  12.271   6.567   7.303  0.9124 -0.2449 -0.1961
38241SOL    HW220561  12.190   6.636   7.196  0.5715  0.5109  0.5369
38242SOL     OW20562   7.946   4.667   1.085  0.2095 -0.0791 -0.4623
38242SOL    HW120563   7.897   4.663   1.167  0.8768  0.7384 -0.0100
38242SOL    HW220564   7.948   4.576   1.054 -0.4839 -0.3151  0.1594
38243SOL     OW20565   5.131   1.890   1.658 -0.3504 -0.0027  0.2469
38243SOL    HW120566   5.222   1.863   1.646 -0.7724 -0.8955 -1.2524
38243SOL    HW220567   5.137   1.981   1.687  1.0299 -0.4584  1.4992
38244SOL     OW20568   9.391   1.144   3.243 -0.3105 -0.2674 -0.2430
38244SOL    HW120569   9.342   1.226   3.242  1.2986  0.7992 -2.5545
38244SOL    HW220570   9.346   1.088   3.180  0.6299  0.2759 -1.4604
38245SOL     OW20571   8.518   9.952   1.925  0.2706 -0.3673  0.2546
38245SOL    HW120572   8.490  10.028   1.873  1.9716  0.6011  0.6962
38245SOL    HW220573   8.560   9.893   1.861  2.2798  0.7811  0.4389
38246SOL     OW20574   2.275   6.743   5.467  0.6949  0.1626  0.0075
38246SOL    HW120575   2.233   6.679   5.525  0.3721  1.6016  1.4405
38246SOL    HW220576   2.203   6.785   5.421  0.7023  1.0514  0.7759
38247SOL     OW20577   2.167   9.967  10.818 -0.2222 -0.8069  0.1507
38247SOL    HW120578   2.205  10.025  10.885  0.5938 -1.7261  0.5035
38247SOL    HW220579   2.088   9.932  10.859 -1.1780  0.6593 -0.3674
38248SOL     OW20580   9.502   7.680  12.257 -0.2742 -0.5837 -0.1673
38248SOL    HW120581   9.567   7.716  12.197 -0.7891  0.2128 -0.2646
38248SOL    HW220582   9.430   7.653  12.200 -1.1364  0.9682  0.1147
38249SOL     OW20583  11.498   2.059   3.309 -0.1832  0.3868  0.2951
38249SOL    HW120584  11.486   2.006   3.387 -1.3410  0.8262  0.4301
38249SOL    HW220585  11.566   2.014   3.260  1.5500  0.8278  2.1722
38250SOL     OW20586   3.864   2.051  10.589 -0.0779  0.2377  0.2041
38250SOL    HW120587   3.911   2.132  10.609 -0.5177  0.0936  2.0019
38250SOL    HW220588   3.782   2.080  10.547 -0.9619  0.8681  2.2604
38251SOL     OW20589   7.653  12.084  11.914  0.4859  0.3968  0.7003
38251SOL    HW120590   7.695  12.042  11.990  1.7150  0.4239  0.0533
38251SOL    HW220591   7.713  12.069  11.842 -0.5237  0.6548 -0.2184
38252SOL     OW20592   5.839   7.890   6.053  0.2984  0.0555 -0.3715
38252SOL    HW120593   5.784   7.880   6.130  1.6721  1.1531  0.8064
38252SOL    HW220594   5.827   7.808   6.005 -1.9582  0.0676  0.0465
38253SOL     OW20595   4.639  11.702   5.099 -0.1808 -0.4532  0.6589
38253SOL    HW120596   4.582  11.705   5.022  0.2615 -2.2439  0.2147
38253SOL    HW220597   4.582  11.728   5.172 -0.4445  1.9451 -0.2938
38254SOL     OW20598   4.441  10.598  11.440 -0.3144 -0.0528 -0.4819
38254SOL    HW120599   4.439  10.509  11.476 -0.4775  0.7921  1.8126
38254SOL    HW220600   4.523  10.634  11.474 -1.3917  1.4121  0.6636
38255SOL     OW20601  11.582   8.368   1.652 -0.0144  0.5357  0.3884
38255SOL    HW120602  11.574   8.284   1.607  0.2079 -0.4943  2.1685
38255SOL    HW220603  11.492   8.392   1.674 -0.0050  0.2410  0.7635
38256SOL     OW20604  12.159   8.467   8.884  0.2698  0.1624  0.0134
38256SOL    HW120605  12.230   8.506   8.934 -0.1459  0.9047  0.0295
38256SOL    HW220606  12.152   8.521   8.805 -0.4035  0.2177  0.1050
38257SOL     OW20607   8.687   3.298   6.240  0.2100  0.6056  0.4130
38257SOL    HW120608   8.602   3.256   6.226  0.9598 -0.8165 -0.0765
38257SOL    HW220609   8.741   3.231   6.281  1.2667  1.3011  0.2136
38258SOL     OW20610   8.651  11.776   9.288 -0.4461 -0.2176 -0.3687
38258SOL    HW120611   8.633  11.840   9.219 -0.0727 -0.4540 -0.6927
38258SOL    HW220612   8.567  11.732   9.302 -0.8801  0.8133  0.3514
38259SOL     OW20613   8.313   0.076   0.427 -0.0208 -0.2003 -0.2760
38259SOL    HW120614   8.384   0.035   0.378  0.3225 -1.9624  1.5688
38259SOL    HW220615   8.357   0.123   0.498 -0.6429 -1.8310  1.2633
38260SOL     OW20616   4.735   8.607   5.165 -0.1592  0.1860  0.0317
38260SOL    HW120617   4.730   8.562   5.080  2.6361  0.2830 -0.2798
38260SOL    HW220618   4.808   8.564   5.209 -0.2183  1.5705  1.5246
38261SOL     OW20619   5.418   3.393   2.434  0.1333  0.2729 -0.0710
38261SOL    HW120620   5.508   3.379   2.465  0.1965 -0.0054 -0.3681
38261SOL    HW220621   5.401   3.318   2.377  0.7728  1.8241 -2.4035
38262SOL     OW20622   1.856   1.797   3.460  0.5943  0.0522  0.5367
38262SOL    HW120623   1.778   1.746   3.436  0.0333  1.2831 -0.4108
38262SOL    HW220624   1.884   1.761   3.544 -0.8664 -0.5797  0.7875
38263SOL     OW20625  10.008   5.947   8.728  0.0025 -0.1290  0.4660
38263SOL    HW120626  10.064   6.023   8.743  1.6847 -1.2731  0.2827
38263SOL    HW220627  10.017   5.928   8.635 -0.0119 -0.8495  0.6073
38264SOL     OW20628   3.078   9.485  10.624 -0.3613 -0.0041  0.2122
38264SOL    HW120629   3.080   9.435  10.542 -1.0496  0.4088 -0.0648
38264SOL    HW220630   3.088   9.576  10.596  0.0256  0.0834  0.6406
38265SOL     OW20631   9.219   3.937  11.522 -0.4850 -0.5181 -0.3368
38265SOL    HW120632   9.300   3.982  11.545  0.9247 -3.7810  1.7596
38265SOL    HW220633   9.235   3.902  11.434  0.3022 -0.8801 -0.0601
38266SOL     OW20634   2.236   9.663   3.325  0.0159 -0.0287 -0.7301
38266SOL    HW120635   2.324   9.631   3.309  0.5971  1.3907 -0.5228
38266SOL    HW220636   2.210   9.703   3.242 -1.1926 -2.0501 -1.3912
38267SOL     OW20637   9.684   4.849  10.028  0.6296 -0.1899  0.7046
38267SOL    HW120638   9.754   4.901  10.066  0.8632  0.4724 -0.5889
38267SOL    HW220639   9.662   4.785  10.096  2.2210 -0.1698  1.2752
38268SOL     OW20640  10.034   5.180   7.852  0.0088  0.4042 -0.4901
38268SOL    HW120641  10.062   5.181   7.761  0.9239  1.6677 -0.2231
38268SOL    HW220642  10.090   5.114   7.893 -0.5515 -0.3189 -0.8774
38269SOL     OW20643  12.183   2.597   7.036 -0.4272  0.2868  0.3850
38269SOL    HW120644  12.166   2.514   6.992  0.1816  1.7907 -3.0276
38269SOL    HW220645  12.277   2.596   7.054  0.3781  1.4961 -2.9923
38270SOL     OW20646   9.308   3.734   0.119 -0.4138  0.1107  0.1085
38270SOL    HW120647   9.266   3.648   0.115  0.8093 -0.4565 -1.6269
38270SOL    HW220648   9.331   3.754   0.028  1.8659  0.9855  0.8132
38271SOL     OW20649  12.117   4.749   1.347  0.4491  0.2380 -0.6933
38271SOL    HW120650  12.089   4.799   1.270 -2.5980  0.6441  0.5421
38271SOL    HW220651  12.074   4.792   1.421  2.1986 -0.9408  1.0948
38272SOL     OW20652  10.000  10.386  11.147 -0.2980  0.0317  0.6420
38272SOL    HW120653   9.962  10.471  11.167  1.0454  1.3661 -1.9007
38272SOL    HW220654  10.085  10.387  11.191  0.1087  0.4319 -0.1312
38273SOL     OW20655  11.135   7.177   3.973 -0.1782  0.2621  0.4518
38273SOL    HW120656  11.059   7.120   3.960 -1.2916  1.6959  0.4275
38273SOL    HW220657  11.157   7.209   3.886 -0.6714  1.2148  0.6619
38274SOL     OW20658   8.494  12.163   0.957  0.3595  0.0195  0.9844
38274SOL    HW120659   8.428  12.125   0.899  1.5823 -1.7223  0.6159
38274SOL    HW220660   8.516  12.247   0.918 -0.0460 -0.3844 -0.1559
38275SOL     OW20661   3.799   4.211   3.316  0.1988 -0.0676 -0.2054
38275SOL    HW120662   3.722   4.226   3.261  0.4578 -0.0724 -0.5677
38275SOL    HW220663   3.871   4.252   3.269  0.0567  2.0280  1.2196
38276SOL     OW20664   9.928   9.125   2.494  0.4355 -0.4204 -0.0470
38276SOL    HW120665   9.975   9.049   2.527 -0.1943 -1.5517 -1.6535
38276SOL    HW220666   9.844   9.090   2.463  0.3724  0.8244 -1.3804
38277SOL     OW20667   1.212   8.949  11.775 -0.1608  0.3367  0.0272
38277SOL    HW120668   1.293   8.898  11.780 -0.0971  0.5370  1.3006
38277SOL    HW220669   1.199   8.982  11.864 -2.0262 -0.2742  0.0141
38278SOL     OW20670   5.812   0.196   4.597  0.9674 -0.2631  0.1267
38278SOL    HW120671   5.788   0.191   4.505  3.2358 -1.2922 -0.4551
38278SOL    HW220672   5.785   0.112   4.634 -0.7880  0.4951  0.6738
38279SOL     OW20673   3.124   7.043  12.322 -0.3045 -0.0464  0.5868
38279SOL    HW120674   3.186   7.113  12.300 -1.4838  0.8402 -0.0968
38279SOL    HW220675   3.065   7.039  12.247  0.0959 -2.2485  0.3257
38280SOL     OW20676   5.838  11.600   5.515  0.1400 -0.3859  0.0927
38280SOL    HW120677   5.744  11.614   5.508  0.1364 -0.6284 -0.3412
38280SOL    HW220678   5.851  11.510   5.486  0.8908  0.6226 -3.0919
38281SOL     OW20679   6.584   4.213   0.947 -0.5340 -0.3984  0.2055
38281SOL    HW120680   6.584   4.162   0.866 -2.1842  1.3006 -0.9560
38281SOL    HW220681   6.636   4.161   1.008 -1.9457 -3.3503 -0.9207
38282SOL     OW20682   5.844   2.011   0.364 -0.2467  0.2687  0.1618
38282SOL    HW120683   5.882   2.040   0.448 -0.5695  2.9622 -0.5319
38282SOL    HW220684   5.753   2.038   0.368 -0.3164  0.2416 -0.9839
38283SOL     OW20685   1.403   7.914   5.976  0.6204  0.5101 -0.2291
38283SOL    HW120686   1.483   7.960   5.951  2.1321 -1.3056  0.9967
38283SOL    HW220687   1.420   7.823   5.955 -2.0477  0.3306 -2.0007
38284SOL     OW20688  11.803   9.773   9.545  0.6005  0.0923 -0.0834
38284SOL    HW120689  11.802   9.735   9.633 -2.0097  1.3145  0.4992
38284SOL    HW220690  11.896   9.786   9.526  1.3365 -1.9311  1.6863
38285SOL     OW20691   6.589   1.446   9.636  0.2341 -0.5534  0.0138
38285SOL    HW120692   6.621   1.410   9.553 -0.6485 -2.6148  0.5295
38285SOL    HW220693   6.494   1.436   9.632  0.2738 -2.3843  1.9658
38286SOL     OW20694   8.176   4.781  10.751  0.2091  0.3468  0.5915
38286SOL    HW120695   8.202   4.767  10.842 -0.5334 -1.3643  0.5746
38286SOL    HW220696   8.088   4.816  10.756 -0.2271 -0.7009  0.5429
38287SOL     OW20697   3.951  10.646   8.722 -0.0640 -0.0852 -0.4667
38287SOL    HW120698   3.946  10.649   8.626 -1.5592  0.1510 -0.4172
38287SOL    HW220699   3.862  10.622   8.749  0.7823 -2.0975  0.8039
38288SOL     OW20700   1.983   8.272   2.418 -0.3296 -0.5184 -0.3805
38288SOL    HW120701   2.030   8.245   2.339  0.5021  0.0272 -0.0815
38288SOL    HW220702   2.051   8.308   2.475 -1.0797  0.0488  0.1637
38289SOL     OW20703   0.895   4.479   4.658  0.3076 -0.0735  0.4777
38289SOL    HW120704   0.854   4.515   4.579  1.4771  0.4896  0.0976
38289SOL    HW220705   0.936   4.555   4.699  1.0004 -0.6217  0.8145
38290SOL     OW20706   2.289   5.584   0.318  0.8850 -0.0077 -0.3139
38290SOL    HW120707   2.256   5.665   0.279 -1.1730 -1.3764 -1.6584
38290SOL    HW220708   2.333   5.538   0.246 -1.5896 -1.8551 -0.8111
38291SOL     OW20709   4.089   4.804   3.384 -0.0042  0.3949  0.0552
38291SOL    HW120710   4.115   4.726   3.334 -2.6711 -2.1658  2.3038
38291SOL    HW220711   4.022   4.845   3.330  1.2415  1.0984 -1.0336
38292SOL     OW20712   2.697   6.207   4.827  0.1990 -0.4551  0.7323
38292SOL    HW120713   2.708   6.298   4.801 -2.6869  0.2194  1.5718
38292SOL    HW220714   2.680   6.160   4.745 -0.9105  0.2546  0.5382
38293SOL     OW20715   9.096  11.468  11.650  0.1831  0.5210 -0.1629
38293SOL    HW120716   9.026  11.440  11.709  0.1973  0.8738  0.0233
38293SOL    HW220717   9.141  11.538  11.698  0.2449  0.7545 -0.5591
38294SOL     OW20718   9.070   5.626   7.664 -0.4171 -0.3493 -0.1515
38294SOL    HW120719   8.990   5.613   7.716 -1.1243  2.5625 -0.3207
38294SOL    HW220720   9.138   5.642   7.729  0.1931 -3.1797  0.0072
38295SOL     OW20721   0.817   2.513   0.370 -0.3538 -0.0661 -0.1814
38295SOL    HW120722   0.869   2.588   0.342 -0.1197 -0.1868 -0.0660
38295SOL    HW220723   0.761   2.493   0.295  1.7704 -1.7662 -1.4464
38296SOL     OW20724  11.826   3.650   2.418 -0.5488 -0.1101 -0.1074
38296SOL    HW120725  11.870   3.614   2.496  1.2499  1.0280 -0.5350
38296SOL    HW220726  11.733   3.636   2.435 -0.0916 -2.0303  1.1639
38297SOL     OW20727   5.204   1.709   7.804  0.1821 -0.3349 -0.1266
38297SOL    HW120728   5.152   1.642   7.759  0.3765  0.2408 -1.2543
38297SOL    HW220729   5.221   1.775   7.737 -1.0193  1.4755  1.2338
38298SOL     OW20730   3.774   8.003   2.556  0.2720  0.1613  0.5116
38298SOL    HW120731   3.758   7.912   2.531  0.5121  0.2192  0.1268
38298SOL    HW220732   3.868   8.014   2.543 -0.1978  1.3864 -2.6496
38299SOL     OW20733   5.169  11.953   2.776 -0.3531  0.8227  0.2564
38299SOL    HW120734   5.241  11.920   2.830 -0.8743 -2.9224 -0.9989
38299SOL    HW220735   5.205  11.955   2.687 -1.4776 -0.3902 -0.2777
38300SOL     OW20736   1.655   4.701   9.327 -1.0242 -0.3183 -0.5496
38300SOL    HW120737   1.605   4.732   9.251  0.1098  0.6157 -0.9552
38300SOL    HW220738   1.640   4.768   9.394 -0.3320 -0.0316 -0.6760
38301SOL     OW20739   1.377   9.119   2.359  0.3127 -0.2936 -0.9164
38301SOL    HW120740   1.435   9.125   2.436  0.3487 -0.2483 -0.9470
38301SOL    HW220741   1.390   9.030   2.326  0.6122 -0.1749 -1.1175
38302SOL     OW20742  10.078   3.928   2.539 -0.3800 -0.8818 -0.3044
38302SOL    HW120743  10.161   3.934   2.491 -0.1948 -0.8625  0.0064
38302SOL    HW220744  10.080   3.841   2.579  0.9791  0.2165  2.2904
38303SOL     OW20745   2.835   2.366   3.950  0.0662  0.2151  0.5611
38303SOL    HW120746   2.882   2.440   3.913 -1.2387  0.7928 -0.0081
38303SOL    HW220747   2.875   2.352   4.036 -0.2788  2.2252  1.1037
38304SOL     OW20748   9.323  10.902   9.843 -0.1485  0.2058 -0.1767
38304SOL    HW120749   9.343  10.988   9.806  1.7424 -0.1454 -0.0714
38304SOL    HW220750   9.257  10.919   9.911 -0.3735  1.4417 -0.6863
38305SOL     OW20751  11.481   3.579   7.275  0.4411  0.1952  0.0256
38305SOL    HW120752  11.540   3.653   7.261  0.9191  0.2015  1.8136
38305SOL    HW220753  11.490   3.525   7.196  1.1025  1.3496 -0.7118
38306SOL     OW20754   6.288   4.893  12.030  0.3948  0.8684  0.2715
38306SOL    HW120755   6.282   4.927  12.119 -0.5085  0.4998  0.3605
38306SOL    HW220756   6.366   4.935  11.994 -0.3562  2.5901  0.5531
38307SOL     OW20757   2.809   3.031   5.242 -0.1106  0.2046 -0.8819
38307SOL    HW120758   2.745   3.083   5.291  1.1675 -0.4421  1.6456
38307SOL    HW220759   2.782   2.940   5.256  0.7983 -0.0285 -0.5863
38308SOL     OW20760  11.944   3.132   7.165 -0.0427 -0.1251 -0.5630
38308SOL    HW120761  11.964   3.039   7.158 -0.3222 -0.2752  0.4340
38308SOL    HW220762  12.029   3.176   7.170  0.0986 -0.5167  0.9610
38309SOL     OW20763   2.375   9.843   6.171  0.2807 -0.0058  0.0759
38309SOL    HW120764   2.385   9.938   6.172  2.0414 -0.1369 -0.7642
38309SOL    HW220765   2.383   9.816   6.262 -1.5460  0.7225  0.4947
38310SOL     OW20766   8.249   7.246   4.864 -0.0265  0.1955  0.0694
38310SOL    HW120767   8.267   7.332   4.827  3.3816  0.0367  1.0166
38310SOL    HW220768   8.311   7.187   4.819 -0.7083 -1.3091  1.0186
38311SOL     OW20769  11.503   8.316   4.818  0.0173 -0.6725 -0.1366
38311SOL    HW120770  11.577   8.376   4.819  0.4901 -1.1965 -1.2493
38311SOL    HW220771  11.515   8.260   4.894 -0.8297  1.0799  1.3501
38312SOL     OW20772   4.249   3.485   4.337  0.0468  0.0475 -0.0169
38312SOL    HW120773   4.209   3.571   4.322 -0.1143 -0.3776 -2.4129
38312SOL    HW220774   4.336   3.505   4.372 -0.4458  1.1229  0.6485
38313SOL     OW20775   9.072   1.899   1.922  0.5649  0.1981 -0.2486
38313SOL    HW120776   9.151   1.844   1.923  1.1823  0.9517  2.7756
38313SOL    HW220777   9.099   1.978   1.876  1.5274  0.3393  0.5185
38314SOL     OW20778   8.991   2.154   4.278  0.5132 -0.3928  0.1669
38314SOL    HW120779   8.902   2.174   4.250  0.0161  1.5373  2.8047
38314SOL    HW220780   9.046   2.217   4.232  0.2216 -0.0254  0.3199
38315SOL     OW20781   7.568   8.295   5.266 -0.0797  0.0922  0.4122
38315SOL    HW120782   7.535   8.292   5.356  2.5310 -0.3854  1.4485
38315SOL    HW220783   7.568   8.204   5.237  3.1764 -0.4551  1.6748
38316SOL     OW20784   3.785   2.217   3.607 -0.6802 -0.1028 -0.3140
38316SOL    HW120785   3.719   2.279   3.638 -0.0842  1.1983 -1.5929
38316SOL    HW220786   3.756   2.133   3.644 -1.4668  0.8995  1.5085
38317SOL     OW20787   2.546   2.898   9.387  0.0619  0.3599  0.0855
38317SOL    HW120788   2.558   2.982   9.343  2.1142 -0.0394 -0.1993
38317SOL    HW220789   2.493   2.919   9.464 -0.2308  1.7504 -0.4670
38318SOL     OW20790   6.675   2.147  10.303  0.0120  0.9870 -0.1826
38318SOL    HW120791   6.719   2.088  10.242 -0.6312 -0.0454  0.3241
38318SOL    HW220792   6.684   2.234  10.263 -1.1460  0.2453 -2.2395
38319SOL     OW20793   1.430   1.242   3.512 -0.2783 -0.6594 -0.4283
38319SOL    HW120794   1.498   1.309   3.510 -1.7942  0.9758  0.2726
38319SOL    HW220795   1.431   1.203   3.425  1.4649 -0.5982 -0.4528
38320SOL     OW20796   5.679   0.884   9.453  0.3794 -0.3326  0.1654
38320SOL    HW120797   5.641   0.810   9.405  0.2643  0.9272 -1.8237
38320SOL    HW220798   5.668   0.861   9.545 -0.7091 -2.2524 -0.3773
38321SOL     OW20799   9.475  12.071   7.296 -0.1223 -0.2151 -0.8289
38321SOL    HW120800   9.442  12.089   7.208  1.6115  0.5473 -1.3721
38321SOL    HW220801   9.469  11.976   7.305 -1.3147 -0.1949 -1.3431
38322SOL     OW20802   7.496  12.186   8.637  0.2102  0.3799 -0.3816
38322SOL    HW120803   7.494  12.214   8.729  1.6291 -0.0246 -0.2039
38322SOL    HW220804   7.415  12.136   8.626 -0.6925  1.6468  0.2279
38323SOL     OW20805   0.203   3.092   3.395 -0.2609  0.4150  0.4373
38323SOL    HW120806   0.238   3.004   3.388 -1.6028 -0.0551 -0.6553
38323SOL    HW220807   0.160   3.094   3.481 -0.9172 -0.2658  0.1318
38324SOL     OW20808  11.251   7.603   6.743  0.1630 -0.1161 -0.0271
38324SOL    HW120809  11.282   7.693   6.740  0.7238 -0.3072 -0.1540
38324SOL    HW220810  11.170   7.607   6.793  0.1115  0.4776 -0.1537
38325SOL     OW20811   3.827  10.056  10.370 -0.1045 -0.0718 -0.0201
38325SOL    HW120812   3.754  10.035  10.312  0.9726 -0.7998 -1.1820
38325SOL    HW220813   3.873   9.972  10.381  0.7360  0.4335  0.4035
38326SOL     OW20814   8.056   0.848   2.788  0.0040 -0.1542 -0.0648
38326SOL    HW120815   8.052   0.910   2.860  0.4296 -1.0331  0.7291
38326SOL    HW220816   7.974   0.861   2.740 -1.6593 -1.5133  2.2152
38327SOL     OW20817   4.658   4.926  10.762  0.0970  0.1487 -0.0045
38327SOL    HW120818   4.562   4.927  10.764  0.0523  0.5673 -1.5332
38327SOL    HW220819   4.682   4.849  10.814 -1.1862 -1.7167 -2.0308
38328SOL     OW20820   6.234   4.277   5.734  0.2498  0.0278 -0.4317
38328SOL    HW120821   6.216   4.191   5.696 -1.8954  0.4840 -0.5723
38328SOL    HW220822   6.209   4.268   5.826  0.9113  0.2596 -0.2237
38329SOL     OW20823   5.480   3.213   5.512  0.4648  0.1977  0.1583
38329SOL    HW120824   5.448   3.158   5.440 -1.2531 -0.2418  1.1972
38329SOL    HW220825   5.401   3.254   5.547  1.4520  1.5158  0.8929
38330SOL     OW20826   3.791  11.563   5.776  0.1469  0.0527 -0.2415
38330SOL    HW120827   3.719  11.506   5.750 -0.4624  0.6875  0.0009
38330SOL    HW220828   3.783  11.639   5.717  1.6462 -0.6044 -1.3458
38331SOL     OW20829   0.763   9.856  10.256  0.2195 -0.5651  0.0309
38331SOL    HW120830   0.702   9.921  10.290 -0.8734 -0.7834 -1.4117
38331SOL    HW220831   0.832   9.851  10.322 -1.1374 -0.0520  1.5425
38332SOL     OW20832   4.101   1.660  11.071 -0.0682 -0.5124  0.1089
38332SOL    HW120833   4.145   1.745  11.062 -0.9489  0.0624  0.9965
38332SOL    HW220834   4.163   1.597  11.035  0.1134  0.6342 -1.7475
38333SOL     OW20835   1.352   3.998   1.814 -0.1584 -0.2238 -0.3154
38333SOL    HW120836   1.416   3.934   1.782 -1.1422 -0.9863 -0.7846
38333SOL    HW220837   1.314   4.037   1.735  0.1949  0.7354 -0.0382
38334SOL     OW20838  11.351  10.352   2.974 -0.5099  0.0048  0.2897
38334SOL    HW120839  11.329  10.260   2.960 -1.2293  0.4581 -1.8115
38334SOL    HW220840  11.301  10.376   3.052 -0.1779 -1.4094  0.9729
38335SOL     OW20841   4.557   6.428   1.429  0.0863 -0.0845 -0.3836
38335SOL    HW120842   4.527   6.517   1.444 -0.5200  0.2222 -2.9765
38335SOL    HW220843   4.652   6.435   1.424 -0.0504  1.3007 -4.6386
38336SOL     OW20844   4.066  12.326   2.838  0.3665  0.1726 -0.3315
38336SOL    HW120845   3.999  12.375   2.885  1.0209 -0.0925  0.9319
38336SOL    HW220846   4.062  12.360   2.748 -0.5632  1.0735  0.0249
38337SOL     OW20847   2.396   9.405  11.699  0.5612 -0.6378 -0.2641
38337SOL    HW120848   2.369   9.360  11.779 -1.1783  1.0356  0.1602
38337SOL    HW220849   2.482   9.368  11.678 -0.7342 -4.1554 -0.0039
38338SOL     OW20850   6.020   2.828   2.531 -0.3389  0.0016  0.1798
38338SOL    HW120851   5.973   2.819   2.448 -0.1420 -0.0801  0.0772
38338SOL    HW220852   6.112   2.824   2.507 -0.2743  0.3184  0.3618
38339SOL     OW20853   5.964  11.019   1.026 -0.0835 -0.3876  0.0986
38339SOL    HW120854   5.880  11.038   0.982 -0.5685 -1.9540  0.2827
38339SOL    HW220855   5.962  10.924   1.040  2.2707 -0.6640 -0.9992
38340SOL     OW20856   8.155   4.442  12.294 -0.2424 -0.1185 -0.2827
38340SOL    HW120857   8.095   4.425  12.367  0.5257  0.1661  0.4305
38340SOL    HW220858   8.101   4.485  12.228 -0.5006  1.5709  0.9746
38341SOL     OW20859   7.812  10.534   7.930  0.4369  0.2106  0.6466
38341SOL    HW120860   7.881  10.534   7.864  0.6007 -0.1215  0.8137
38341SOL    HW220861   7.767  10.618   7.918  0.0181 -0.1425 -0.3381
38342SOL     OW20862   6.764  11.828   3.213 -0.5800  0.2282 -0.2314
38342SOL    HW120863   6.696  11.881   3.171 -0.6207  1.4139  1.2556
38342SOL    HW220864   6.716  11.774   3.276 -0.0974  2.0424  1.8097
38343SOL     OW20865   9.241   8.719   3.988  0.0929 -0.1917 -0.2884
38343SOL    HW120866   9.157   8.680   4.014 -0.1221  0.5225  0.1134
38343SOL    HW220867   9.303   8.647   3.992 -0.0865 -0.2857  1.4719
38344SOL     OW20868  11.333  10.569   2.449  0.0500  0.6224 -0.5384
38344SOL    HW120869  11.403  10.556   2.385  1.6707 -2.0885  1.5693
38344SOL    HW220870  11.280  10.490   2.442 -0.0837  0.5532  1.0299
38345SOL     OW20871  12.293   7.028   8.925 -0.0352  0.4393 -0.8640
38345SOL    HW120872  12.343   7.109   8.932 -1.0428  1.5479 -4.3698
38345SOL    HW220873  12.316   6.993   8.838 -1.8949 -1.4253 -0.6799
38346SOL     OW20874  11.709  11.499   1.872 -0.2840  0.3805  0.1154
38346SOL    HW120875  11.724  11.406   1.856  0.4497  0.4854  0.1606
38346SOL    HW220876  11.710  11.507   1.968  0.3326  0.5361  0.1001
38347SOL     OW20877   1.732   4.872   3.873 -0.1562  0.1123 -0.2718
38347SOL    HW120878   1.768   4.817   3.804 -1.5342 -1.1166 -0.0694
38347SOL    HW220879   1.751   4.825   3.954 -0.0869  0.6539  0.0285
38348SOL     OW20880   8.569   9.453   8.387 -0.0706  0.8699 -0.2613
38348SOL    HW120881   8.604   9.539   8.365 -0.6544  1.9158  2.5820
38348SOL    HW220882   8.491   9.444   8.331  1.4114  0.9615 -2.4813
38349SOL     OW20883   0.833   7.198   3.249  0.4944 -0.3150  0.0604
38349SOL    HW120884   0.884   7.139   3.304 -0.3777 -0.7894  0.3825
38349SOL    HW220885   0.791   7.259   3.310  1.9967  1.1651 -0.3233
38350SOL     OW20886   9.880  10.721   1.519 -0.0297 -0.1515 -0.2905
38350SOL    HW120887   9.947  10.768   1.569 -1.1641  1.0330  0.1584
38350SOL    HW220888   9.802  10.726   1.573 -0.5258 -1.4408 -0.8464
38351SOL     OW20889   0.672   2.138  11.042 -0.2078  0.1809  0.0449
38351SOL    HW120890   0.633   2.102  11.122 -0.3344 -0.2305 -0.2012
38351SOL    HW220891   0.732   2.071  11.011 -0.3804  0.2122 -0.3692
38352SOL     OW20892   2.169   0.312   9.796  0.6610 -0.1343  0.0991
38352SOL    HW120893   2.111   0.297   9.722  0.3679 -0.9588  0.4858
38352SOL    HW220894   2.155   0.404   9.819 -0.8546 -0.4403  0.4841
38353SOL     OW20895   2.541   3.643   5.501  0.4940  0.1580  0.1474
38353SOL    HW120896   2.486   3.566   5.485  2.4082 -0.8352 -2.1015
38353SOL    HW220897   2.480   3.717   5.495 -0.8950 -0.9992 -0.6157
38354SOL     OW20898  10.919  12.123   0.875 -0.7992  0.0767  0.1081
38354SOL    HW120899  10.963  12.189   0.928  2.3341 -1.9971  0.3785
38354SOL    HW220900  10.908  12.048   0.934  0.3088 -1.3277 -1.3768
38355SOL     OW20901  12.142   3.571   2.233 -0.6655 -0.6567  0.2206
38355SOL    HW120902  12.052   3.541   2.247 -0.7339 -0.5659 -0.0212
38355SOL    HW220903  12.167   3.534   2.149 -0.7321 -0.0915 -0.0555
38356SOL     OW20904   3.787   1.946   0.397 -0.1902 -0.2661  0.0215
38356SOL    HW120905   3.756   1.906   0.479 -1.5207 -1.2298 -0.9200
38356SOL    HW220906   3.719   2.008   0.373  0.3853  0.3024 -0.1694
38357SOL     OW20907   8.419   7.260   5.140  0.1952 -0.1891 -0.1286
38357SOL    HW120908   8.349   7.195   5.142  1.8156 -2.0842 -1.3444
38357SOL    HW220909   8.397   7.317   5.066 -0.5814 -0.0983  0.1600
38358SOL     OW20910  11.334   6.760   9.820  0.4101  0.1044  0.2915
38358SOL    HW120911  11.427   6.774   9.799  0.2151 -0.0320 -0.7118
38358SOL    HW220912  11.320   6.809   9.901  1.9335 -1.8026  1.8241
38359SOL     OW20913  11.633   3.957   1.714 -0.2680 -0.5537 -0.3382
38359SOL    HW120914  11.678   4.025   1.663  0.9029 -2.2433 -1.6533
38359SOL    HW220915  11.575   4.006   1.772 -0.6316  1.5193 -2.3108
38360SOL     OW20916   4.694  12.065   8.418 -0.0651 -0.6164  0.6031
38360SOL    HW120917   4.624  12.085   8.355  0.5892 -0.7865 -0.1995
38360SOL    HW220918   4.712  12.149   8.460 -0.4552 -0.4802  0.5080
38361SOL     OW20919   9.942   3.120  11.609 -0.1875 -0.1871  0.3099
38361SOL    HW120920   9.999   3.056  11.652 -2.1314  0.0653  3.6470
38361SOL    HW220921   9.974   3.205  11.637  0.0874  0.1680 -1.0039
38362SOL     OW20922   4.088   2.856   9.907 -0.3185  0.0380  0.0633
38362SOL    HW120923   4.018   2.862   9.842 -0.2962  2.6295  0.1801
38362SOL    HW220924   4.169   2.855   9.856 -0.3679 -0.2625 -0.0081
38363SOL     OW20925   5.639   4.141   3.386  0.1448 -0.2222  0.2182
38363SOL    HW120926   5.665   4.232   3.370 -1.2156  0.3164  0.8893
38363SOL    HW220927   5.586   4.145   3.466  0.5659 -1.7020  0.6036
38364SOL     OW20928   7.550   4.543   3.110 -0.4271 -0.1437  0.3171
38364SOL    HW120929   7.641   4.526   3.131 -0.6723 -1.5436  0.3599
38364SOL    HW220930   7.510   4.568   3.194  0.0855  1.3563  0.1321
38365SOL     OW20931   5.721   0.970   1.978  0.1547 -0.1324 -0.0183
38365SOL    HW120932   5.776   1.045   1.957 -0.6327  0.7170  0.8118
38365SOL    HW220933   5.700   0.931   1.893  1.6458 -0.2206 -0.3730
38366SOL     OW20934   6.242   0.745   8.768  0.9238  0.5278 -0.2500
38366SOL    HW120935   6.177   0.678   8.791  1.5757  0.2826  0.9311
38366SOL    HW220936   6.189   0.824   8.751  0.3073  0.2974  0.5459
38367SOL     OW20937   2.845   5.335   3.048 -0.2027  0.2860  0.5311
38367SOL    HW120938   2.883   5.381   3.122  1.3574  1.6442 -1.0013
38367SOL    HW220939   2.821   5.405   2.986  0.2886 -0.8339 -1.0039
38368SOL     OW20940   1.903   8.653   0.462 -0.3796  0.1484  0.1205
38368SOL    HW120941   1.808   8.662   0.471 -0.7955 -3.3700  0.6282
38368SOL    HW220942   1.919   8.665   0.369 -1.2144  1.2587  0.0890
38369SOL     OW20943   8.173   8.663   1.765  0.8519  0.3767 -0.3058
38369SOL    HW120944   8.245   8.630   1.712 -0.1312 -2.2010 -0.1562
38369SOL    HW220945   8.097   8.662   1.706 -0.2315 -2.3863  0.9774
38370SOL     OW20946  10.168   9.308   9.261  0.5107 -0.0208 -0.1100
38370SOL    HW120947  10.104   9.253   9.216  0.7418  0.8276 -1.5380
38370SOL    HW220948  10.253   9.266   9.244  0.6085  0.3520 -0.5502
38371SOL     OW20949   0.561   2.601   1.838  0.1308  0.6310  0.6140
38371SOL    HW120950   0.521   2.629   1.756  0.3866 -2.0289 -0.5051
38371SOL    HW220951   0.527   2.663   1.903 -0.1281  2.7795 -1.4223
38372SOL     OW20952  10.654   8.902   3.926  0.1057 -0.2392  0.5543
38372SOL    HW120953  10.604   8.886   4.006  0.1566  1.0177  0.8617
38372SOL    HW220954  10.736   8.855   3.940 -1.0100 -2.4911 -0.0384
38373SOL     OW20955   2.087   5.071   3.163 -0.2765  0.2122 -0.0219
38373SOL    HW120956   2.051   4.983   3.154 -2.2927  0.9790  0.0990
38373SOL    HW220957   2.090   5.087   3.258 -0.6446  0.5386 -0.0596
38374SOL     OW20958   1.091   9.751   9.514 -0.4600  0.0764  0.3574
38374SOL    HW120959   1.016   9.738   9.573  0.1450  0.3431  1.2162
38374SOL    HW220960   1.162   9.702   9.556 -0.3849 -0.9792 -0.9549
38375SOL     OW20961   9.613   7.927  10.374 -0.1681  0.3775 -0.0595
38375SOL    HW120962   9.559   7.970  10.308  0.1246 -0.5153 -0.9135
38375SOL    HW220963   9.694   7.905  10.329 -0.7852 -2.2171 -0.1045
38376SOL     OW20964   7.064   7.538   5.216  0.4333 -0.0809 -0.4563
38376SOL    HW120965   7.089   7.600   5.147  0.0751  0.2526 -0.2879
38376SOL    HW220966   6.969   7.543   5.219  0.4979  1.4063  1.4135
38377SOL     OW20967   0.108   9.794  10.278 -0.4780 -0.1383  0.6020
38377SOL    HW120968   0.146   9.719  10.232  1.1940  0.7912  0.3451
38377SOL    HW220969   0.139   9.785  10.368  0.1253  0.4408  0.4689
38378SOL     OW20970  10.616   4.524   7.023  0.6845 -0.1524 -0.1650
38378SOL    HW120971  10.618   4.449   6.964  1.8138  0.0623 -0.4259
38378SOL    HW220972  10.690   4.510   7.083  0.2522  0.2140  0.4705
38379SOL     OW20973   6.559   8.650  11.798  0.6123  0.4777 -0.2210
38379SOL    HW120974   6.550   8.710  11.873 -1.0698 -1.6972  1.4807
38379SOL    HW220975   6.653   8.636  11.790  0.8271  0.3618  1.9036
38380SOL     OW20976   4.197  10.321  11.085  0.3971 -0.0035 -0.4179
38380SOL    HW120977   4.210  10.370  11.167  0.0409  1.1400 -1.0284
38380SOL    HW220978   4.144  10.246  11.111  1.5850 -0.4905  0.6740
38381SOL     OW20979   9.908   6.573   1.416 -0.3805 -0.4530  0.2351
38381SOL    HW120980   9.983   6.631   1.401  1.5506 -3.0473 -0.9946
38381SOL    HW220981   9.916   6.547   1.507 -1.4624  1.3752  0.8974
38382SOL     OW20982   9.020   2.028   1.110  0.0062  0.1139  0.1509
38382SOL    HW120983   9.008   2.083   1.032  0.2669 -0.1187 -0.0558
38382SOL    HW220984   9.059   1.948   1.076  1.1011  0.4137  0.6564
38383SOL     OW20985   3.913  10.223   6.123 -0.5903  0.7384 -0.3543
38383SOL    HW120986   3.921  10.268   6.207  1.3584 -0.7330  0.2977
38383SOL    HW220987   3.842  10.160   6.136  0.2149 -0.0167  0.4563
38384SOL     OW20988  11.312   8.628   9.403 -0.6259  0.2111 -0.3452
38384SOL    HW120989  11.250   8.700   9.395 -1.3830 -0.2484  1.0383
38384SOL    HW220990  11.364   8.650   9.481  1.1713  0.7237 -1.6353
38385SOL     OW20991   3.635   8.310   0.728 -0.2916  0.4969  0.2430
38385SOL    HW120992   3.594   8.393   0.751  0.0300  0.2707  1.7766
38385SOL    HW220993   3.683   8.328   0.647 -2.9857  0.8848 -1.3697
38386SOL     OW20994   1.611  11.105   3.510 -0.5099  0.5614  0.1836
38386SOL    HW120995   1.590  11.176   3.449 -0.7053 -0.6994 -1.2634
38386SOL    HW220996   1.655  11.040   3.456  1.6934  0.5034  1.9278
38387SOL     OW20997   2.458   9.025   2.124  0.3345 -0.0083 -0.0192
38387SOL    HW120998   2.514   8.993   2.194  0.2030  0.3741  0.2606
38387SOL    HW220999   2.509   9.094   2.081  0.2238  0.0878  0.0039
38388SOL     OW21000   4.953  10.967  10.162  0.8737 -0.4680 -0.3507
38388SOL    HW121001   4.972  10.926  10.247 -0.0544 -0.2962 -0.0543
38388SOL    HW221002   5.035  10.957  10.112  1.5322 -0.2987  0.6648
38389SOL     OW21003   3.431   8.583   2.653 -0.7810  0.7034 -0.1305
38389SOL    HW121004   3.367   8.599   2.583  1.4357  1.0533 -2.1911
38389SOL    HW221005   3.512   8.621   2.620  0.9962 -1.4407  1.5013
38390SOL     OW21006   7.534  10.034   1.277  0.1000  0.3501 -0.3898
38390SOL    HW121007   7.570   9.950   1.306  1.1696  1.0830  0.4573
38390SOL    HW221008   7.502  10.017   1.188  0.9819 -0.7580 -0.5136
38391SOL     OW21009  11.790   4.188  11.737  0.2798 -0.5004 -0.3768
38391SOL    HW121010  11.811   4.259  11.797 -0.7945 -0.6663  0.2200
38391SOL    HW221011  11.741   4.125  11.791 -0.3181 -0.8551 -1.3100
38392SOL     OW21012   0.598   4.386   9.340 -0.0923  0.4118  0.4154
38392SOL    HW121013   0.627   4.453   9.278  1.1053 -0.9932 -0.6009
38392SOL    HW221014   0.504   4.379   9.325  0.0033  0.8740 -0.4782
38393SOL     OW21015  11.324   6.448   6.523  0.3971  0.2303 -0.3516
38393SOL    HW121016  11.251   6.447   6.461 -0.5546 -2.3027  0.6758
38393SOL    HW221017  11.385   6.383   6.489 -0.5743 -1.9163  1.7199
38394SOL     OW21018   7.463   7.208  11.432  0.2884 -0.7631  0.5094
38394SOL    HW121019   7.475   7.150  11.356  0.0174  0.4706 -0.5159
38394SOL    HW221020   7.519   7.283  11.413 -1.5363  0.6418  0.3534
38395SOL     OW21021   4.248  10.487  11.287  0.1471 -0.2901  0.4395
38395SOL    HW121022   4.175  10.453  11.339 -1.4277  1.5481 -0.4431
38395SOL    HW221023   4.289  10.552  11.344 -0.8184  0.8454 -0.1307
38396SOL     OW21024   2.312   4.808   5.595  0.4146 -0.3450 -0.2325
38396SOL    HW121025   2.237   4.767   5.637  1.7159 -0.1129  2.5218
38396SOL    HW221026   2.277   4.888   5.555 -1.1903 -1.4589 -1.1576
38397SOL     OW21027   4.027   0.440   8.326  0.5856 -0.1773  0.0922
38397SOL    HW121028   4.044   0.441   8.421  0.0584  1.4745  0.2064
38397SOL    HW221029   4.114   0.449   8.287  0.8059 -0.8417  0.4047
38398SOL     OW21030   6.268   4.644   0.622  0.2799 -0.2458 -0.2297
38398SOL    HW121031   6.267   4.604   0.709 -0.6658 -3.5368 -1.5905
38398SOL    HW221032   6.360   4.644   0.596  0.3642 -1.1672  0.0192
38399SOL     OW21033  11.762  10.826   8.012 -0.2278  0.3244 -0.3070
38399SOL    HW121034  11.796  10.897   8.066 -0.3545 -0.5085  0.9111
38399SOL    HW221035  11.818  10.751   8.032  0.3398  0.2190 -2.0877
38400SOL     OW21036  10.250   6.168  11.932 -0.0823 -0.0382  0.6248
38400SOL    HW121037  10.178   6.229  11.918  0.1336 -0.3167 -2.2507
38400SOL    HW221038  10.208   6.082  11.942 -0.2162  0.0883  1.2076
38401SOL     OW21039   1.401   1.890  11.987  0.5892 -0.1997 -0.2052
38401SOL    HW121040   1.364   1.802  11.975 -0.6065  0.3755 -0.8727
38401SOL    HW221041   1.347   1.930  12.055  0.6452  0.2984 -0.4519
38402SOL     OW21042   6.749   6.269   1.799  0.0541 -0.1026 -0.3371
38402SOL    HW121043   6.732   6.296   1.890  0.3807 -2.1052  0.3536
38402SOL    HW221044   6.745   6.174   1.801  2.9449 -0.3508 -1.8417
38403SOL     OW21045   8.899   3.449   5.455 -0.0335  0.2857 -0.0599
38403SOL    HW121046   8.880   3.538   5.425 -0.5760  0.2944  0.3026
38403SOL    HW221047   8.881   3.451   5.549 -2.2392 -0.7941 -0.4114
38404SOL     OW21048   0.490   2.752   7.882 -0.2113 -0.7810  0.0007
38404SOL    HW121049   0.413   2.771   7.936 -0.3355 -1.7524  0.1703
38404SOL    HW221050   0.536   2.683   7.930  1.1859  0.3184  0.2965
38405SOL     OW21051  10.891   1.608   9.837 -0.0475  0.3090  0.5926
38405SOL    HW121052  10.885   1.672   9.907  1.0139  0.0335  0.9545
38405SOL    HW221053  10.973   1.629   9.792 -1.1505  1.0720 -1.1780
38406SOL     OW21054   2.816   2.919   0.466  0.4090 -0.3711 -0.4866
38406SOL    HW121055   2.889   2.974   0.493  1.9128 -1.9086 -1.2189
38406SOL    HW221056   2.804   2.857   0.538 -1.6554  1.1593  0.5934
38407SOL     OW21057   1.083   9.743   8.255 -0.2660 -0.1917 -0.3488
38407SOL    HW121058   1.104   9.660   8.298  0.8738  0.3490  0.1814
38407SOL    HW221059   1.018   9.783   8.312 -1.2883 -0.9659 -0.9247
38408SOL     OW21060   7.673   6.627   6.708 -0.7619 -0.3835  0.5379
38408SOL    HW121061   7.654   6.533   6.711 -1.6175 -0.2411  0.0148
38408SOL    HW221062   7.663   6.650   6.616 -1.1242  0.3255  0.7503
38409SOL     OW21063   6.351   1.866   8.163 -0.5653  0.2822  0.0499
38409SOL    HW121064   6.270   1.825   8.195 -0.4087 -0.1623 -0.1209
38409SOL    HW221065   6.349   1.851   8.068  0.4585 -1.0624  0.2231
38410SOL     OW21066   4.472  11.567   4.883 -0.5062  0.2730 -0.1357
38410SOL    HW121067   4.401  11.604   4.831  1.2896  1.8436 -1.6526
38410SOL    HW221068   4.514  11.504   4.825 -0.2771 -0.1774  0.5116
38411SOL     OW21069   2.393   8.735   9.922 -0.1042  0.0923 -0.1124
38411SOL    HW121070   2.369   8.804   9.984 -0.1390 -0.4480  0.4736
38411SOL    HW221071   2.334   8.663   9.941  0.7575 -0.5652  0.1147
38412SOL     OW21072  11.146   1.814  11.397  0.0631  0.4011  0.9027
38412SOL    HW121073  11.203   1.752  11.443  0.0974 -0.4773 -0.2883
38412SOL    HW221074  11.170   1.899  11.434  0.7562 -0.1639  1.8266
38413SOL     OW21075   9.750   5.374   3.833 -0.4926 -0.1617  0.0727
38413SOL    HW121076   9.723   5.437   3.899 -0.8155  0.0288 -0.2386
38413SOL    HW221077   9.846   5.384   3.829 -0.7047  2.1813 -1.7844
38414SOL     OW21078  10.345  12.219   7.540  0.0491  0.5426  0.3582
38414SOL    HW121079  10.353  12.309   7.508 -0.0325 -0.0666 -1.5104
38414SOL    HW221080  10.421  12.174   7.502  0.4927 -0.0556  1.8553
38415SOL     OW21081   6.959   6.787   0.286 -0.3348 -0.4333 -0.2331
38415SOL    HW121082   6.901   6.815   0.357 -0.8992  0.3616 -0.9896
38415SOL    HW221083   6.931   6.839   0.210  1.2943 -0.1114 -0.6411
38416SOL     OW21084   0.672   9.460  11.402 -0.7157 -0.5814  0.3461
38416SOL    HW121085   0.737   9.414  11.455 -2.4486 -1.4843  1.8043
38416SOL    HW221086   0.632   9.392  11.347 -2.1012 -0.5554  1.2687
38417SOL     OW21087   0.870   8.871  12.317  0.3993 -0.6384 -0.4794
38417SOL    HW121088   0.911   8.844  12.399  1.8335 -1.0442 -1.3111
38417SOL    HW221089   0.794   8.813  12.308  0.1781 -0.5418  0.5795
38418SOL     OW21090   0.696   0.097   2.103 -0.4106  0.1774  0.2865
38418SOL    HW121091   0.620   0.040   2.095 -1.0062  0.9169  0.5480
38418SOL    HW221092   0.696   0.124   2.195 -0.0100  0.4264  0.2176
38419SOL     OW21093   8.478   7.688   7.455  0.4255  0.1996 -0.3104
38419SOL    HW121094   8.460   7.692   7.549  1.8106  0.3578 -0.0320
38419SOL    HW221095   8.479   7.780   7.426  1.2268  0.2257 -0.2200
38420SOL     OW21096   6.391   1.034   4.943  0.3299 -0.0413 -0.3338
38420SOL    HW121097   6.353   0.947   4.955  0.2138 -0.2205 -1.7557
38420SOL    HW221098   6.477   1.028   4.984 -0.9263  0.2550  2.6049
38421SOL     OW21099   5.630   0.447   6.547  0.9851 -0.6655 -0.2462
38421SOL    HW121100   5.621   0.358   6.514  0.6127 -1.2435  1.3297
38421SOL    HW221101   5.692   0.489   6.487  2.6545 -2.5563  0.0389
38422SOL     OW21102   2.714   3.647   1.874  0.0979 -0.3278  0.0647
38422SOL    HW121103   2.671   3.600   1.946  0.1615  0.5790  0.7133
38422SOL    HW221104   2.801   3.668   1.907 -0.4411  1.5628  0.3923
38423SOL     OW21105   3.794   4.351   4.337 -0.3271  0.4164  0.3814
38423SOL    HW121106   3.767   4.261   4.355  0.3372  0.4107  1.3927
38423SOL    HW221107   3.800   4.355   4.241 -0.8648 -0.4599  0.2985
38424SOL     OW21108   8.153  10.849   6.590 -0.0978 -0.3372  0.0242
38424SOL    HW121109   8.125  10.776   6.645  3.5444 -1.9632  0.0335
38424SOL    HW221110   8.156  10.925   6.649 -2.0352 -0.6013  0.5055
38425SOL     OW21111   8.562   9.427   5.598 -0.1289 -0.1302  0.8718
38425SOL    HW121112   8.618   9.502   5.580  0.0394 -0.2858  0.7489
38425SOL    HW221113   8.504   9.421   5.522  0.2019 -0.4391  0.6439
38426SOL     OW21114  10.673  10.307   7.386  0.2612 -0.1417 -0.1870
38426SOL    HW121115  10.709  10.250   7.319  1.0813 -0.7297  0.7337
38426SOL    HW221116  10.646  10.248   7.457 -0.2590  0.4864  0.1565
38427SOL     OW21117   4.225   7.266  10.923  0.0864 -0.1934 -0.2483
38427SOL    HW121118   4.309   7.291  10.884  0.3631 -0.3559  0.2346
38427SOL    HW221119   4.224   7.309  11.009 -1.3030  1.6460 -1.1283
38428SOL     OW21120   6.172   5.554   4.620 -0.0184 -0.6703 -0.4259
38428SOL    HW121121   6.248   5.601   4.586 -0.2473  0.4534  0.5649
38428SOL    HW221122   6.129   5.518   4.542 -0.1620  1.2542 -1.2882
38429SOL     OW21123  11.031   2.076   8.380 -0.3699 -0.1729 -0.0660
38429SOL    HW121124  11.096   2.029   8.327  1.6583  0.1489  1.9564
38429SOL    HW221125  10.960   2.014   8.391  0.4528 -1.2839 -0.7669
38430SOL     OW21126   3.153   2.386  10.672  0.4841 -0.1708 -0.3216
38430SOL    HW121127   3.073   2.423  10.709  0.7800  0.9467 -0.7492
38430SOL    HW221128   3.157   2.297  10.707 -2.4372 -1.3186 -2.4758
38431SOL     OW21129   1.313   1.660   1.063 -0.0170  0.2073  0.3831
38431SOL    HW121130   1.294   1.703   0.979 -0.1722  1.4718  1.0364
38431SOL    HW221131   1.399   1.693   1.088  0.0378 -0.1810  0.7126
38432SOL     OW21132   8.153   2.598   0.155  0.2004  0.3560 -0.2006
38432SOL    HW121133   8.064   2.581   0.125 -0.2079 -0.3425  1.3253
38432SOL    HW221134   8.208   2.548   0.095 -0.6765 -2.2319  1.0032
38433SOL     OW21135   9.995   3.096   1.505  0.3353  0.2297 -0.1808
38433SOL    HW121136   9.971   3.014   1.548 -2.0654  0.9199 -0.0269
38433SOL    HW221137  10.041   3.146   1.572 -0.9832  0.2183  0.7790
38434SOL     OW21138   8.006   3.610   2.348  0.7045 -0.4024 -0.0644
38434SOL    HW121139   7.983   3.555   2.423 -0.8133  0.2839  0.0079
38434SOL    HW221140   7.982   3.557   2.272  1.2197 -0.6689 -0.0424
38435SOL     OW21141   8.192   2.296   6.318 -0.1353 -0.3237 -0.6605
38435SOL    HW121142   8.203   2.205   6.347 -2.9148 -1.5739 -3.0101
38435SOL    HW221143   8.102   2.318   6.343  0.4842  1.8613 -0.1241
38436SOL     OW21144  10.619   7.102   0.404 -0.6007 -0.4159  0.5166
38436SOL    HW121145  10.529   7.119   0.433 -0.1283  0.6883  1.3552
38436SOL    HW221146  10.661   7.058   0.478 -0.2195 -0.2305  0.4122
38437SOL     OW21147   3.626   0.289   3.073  0.0571  0.2776 -0.0020
38437SOL    HW121148   3.706   0.339   3.086  0.0294  0.0749  0.9657
38437SOL    HW221149   3.557   0.344   3.111 -0.2417  0.3503 -0.6291
38438SOL     OW21150   7.768   2.168   6.142 -0.3422  0.8369 -0.0722
38438SOL    HW121151   7.819   2.117   6.078 -0.0480 -0.9415  1.4933
38438SOL    HW221152   7.834   2.214   6.194 -0.0891 -1.9158  2.3334
38439SOL     OW21153   9.516   5.311   5.378  0.1844 -0.3680 -0.5436
38439SOL    HW121154   9.445   5.370   5.402  2.0418  1.8025 -0.1267
38439SOL    HW221155   9.559   5.353   5.304  0.2572 -2.3397 -1.7036
38440SOL     OW21156   3.937   1.110  10.157  0.0191 -0.0430  0.2649
38440SOL    HW121157   3.942   1.185  10.098  1.2779 -0.8302 -0.6833
38440SOL    HW221158   3.876   1.137  10.226  0.4110  1.8194 -0.0719
38441SOL     OW21159   6.002   7.686   8.510 -0.6706 -0.6182  0.2158
38441SOL    HW121160   5.907   7.699   8.502 -1.0046 -2.3115  1.0098
38441SOL    HW221161   6.033   7.685   8.419 -1.4368 -0.3056 -0.0635
38442SOL     OW21162   1.817  11.510   1.599  0.3676 -0.5041 -0.3797
38442SOL    HW121163   1.734  11.552   1.580  0.2493 -0.9305 -0.8442
38442SOL    HW221164   1.802  11.462   1.681  0.0931 -0.7451 -0.5701
38443SOL     OW21165   3.038   0.433   0.251 -0.5682 -0.1761  0.4233
38443SOL    HW121166   3.091   0.363   0.289  0.4369 -0.6118 -1.6487
38443SOL    HW221167   3.019   0.404   0.162 -0.0794  2.1827 -0.5210
38444SOL     OW21168   0.124   2.820   9.741  0.3301  0.5607 -0.0931
38444SOL    HW121169   0.104   2.887   9.676 -0.8292  2.1891  1.8212
38444SOL    HW221170   0.040   2.779   9.760  1.0569 -1.6722 -1.3877
38445SOL     OW21171   9.938   3.635   3.128  0.7967  0.1629 -0.0012
38445SOL    HW121172  10.018   3.688   3.134  0.3347  0.8043  0.6246
38445SOL    HW221173   9.954   3.576   3.054  2.2796 -0.4728  0.8049
38446SOL     OW21174   2.207   2.815   0.454  0.0102 -0.1641  0.0133
38446SOL    HW121175   2.132   2.762   0.479 -0.0761 -0.8042 -1.4972
38446SOL    HW221176   2.283   2.760   0.474  0.0128 -0.1025  0.1765
38447SOL     OW21177  12.170  11.257   8.665 -0.2009  0.7536  0.8559
38447SOL    HW121178  12.104  11.326   8.657  1.3608  2.8627  3.9091
38447SOL    HW221179  12.238  11.281   8.602 -1.2956 -0.2675 -0.8062
38448SOL     OW21180  10.264   0.234   0.490 -0.4040  0.2867 -0.2981
38448SOL    HW121181  10.245   0.140   0.482 -0.4604  0.3497 -0.9000
38448SOL    HW221182  10.184   0.277   0.459 -0.5218  0.5375  0.3290
38449SOL     OW21183   7.681   8.771   1.687 -0.5319  0.5383 -0.5688
38449SOL    HW121184   7.695   8.687   1.731 -1.2374 -0.2081 -1.7092
38449SOL    HW221185   7.736   8.832   1.734 -0.1814 -0.5208  0.4443
38450SOL     OW21186   9.535  10.940   2.737 -0.3326  0.1530 -0.0030
38450SOL    HW121187   9.445  10.954   2.767 -0.9005 -1.3072 -0.9224
38450SOL    HW221188   9.571  11.028   2.727 -1.2535  0.7464  1.5272
38451SOL     OW21189  11.168  11.839   4.031  0.1874  0.2471 -0.0449
38451SOL    HW121190  11.108  11.905   4.065 -0.9965 -0.5052 -0.6220
38451SOL    HW221191  11.153  11.839   3.937  1.1107  0.0509 -0.2033
38452SOL     OW21192  12.099  12.245   5.947  0.3853  0.5081 -0.0786
38452SOL    HW121193  12.161  12.267   6.017 -0.5790  1.2688  0.5560
38452SOL    HW221194  12.047  12.173   5.983 -1.2264  1.9916  0.6931
38453SOL     OW21195  11.033  11.206   6.141  0.1522  0.8863 -0.0218
38453SOL    HW121196  11.043  11.168   6.054 -1.2046 -0.8397  0.5294
38453SOL    HW221197  10.949  11.252   6.138 -1.3360 -1.5377  1.0966
38454SOL     OW21198   6.125   1.056   5.174 -0.3229 -0.5169  0.1623
38454SOL    HW121199   6.199   1.079   5.231 -0.9199  0.4567  0.5674
38454SOL    HW221200   6.053   1.039   5.235 -1.0338  0.7811 -0.2784
38455SOL     OW21201   6.174   1.799  11.280 -0.1337  0.4289  0.4025
38455SOL    HW121202   6.153   1.892  11.284  1.0913  0.7181  0.4213
38455SOL    HW221203   6.252   1.794  11.226 -0.4783 -0.6499 -0.0226
38456SOL     OW21204  11.945   7.282  11.615  0.4059 -0.3601 -0.3529
38456SOL    HW121205  11.970   7.232  11.538 -0.5888 -0.4957 -0.5942
38456SOL    HW221206  12.000   7.360  11.611 -0.9257  0.5657 -2.2675
38457SOL     OW21207   6.280   2.508   8.034  0.0114  0.2085  0.0967
38457SOL    HW121208   6.315   2.596   8.047  2.9760 -0.5785 -1.5114
38457SOL    HW221209   6.337   2.451   8.087 -0.1291 -0.9532 -0.9451
38458SOL     OW21210   1.983   4.020   7.573 -0.3975 -0.1752  0.1249
38458SOL    HW121211   1.973   4.099   7.520 -0.2019  0.3897  0.9066
38458SOL    HW221212   1.904   4.018   7.628 -0.4338 -0.5631  0.0646
38459SOL     OW21213   0.602   3.247   4.081 -0.2539  0.0432 -0.8375
38459SOL    HW121214   0.626   3.329   4.038  0.8119 -0.3188 -0.9670
38459SOL    HW221215   0.506   3.246   4.081 -0.2763  1.3325 -0.7337
38460SOL     OW21216   3.527  11.078  10.501 -0.0152  0.0707  0.2807
38460SOL    HW121217   3.606  11.023  10.497  0.7347  1.1276 -0.1084
38460SOL    HW221218   3.485  11.053  10.584 -0.6612 -2.2957 -0.6636
38461SOL     OW21219   4.442  12.258   1.499 -0.0749  0.7292  0.2485
38461SOL    HW121220   4.421  12.335   1.447  1.0713  0.4010 -0.7589
38461SOL    HW221221   4.390  12.267   1.578 -1.2774  1.6543 -0.6055
38462SOL     OW21222   2.604   8.753   7.376 -0.4172  0.1588  0.0011
38462SOL    HW121223   2.691   8.755   7.415  0.3153  1.8254 -1.5597
38462SOL    HW221224   2.618   8.722   7.287 -1.4366  0.3345 -0.2385
38463SOL     OW21225   8.223   6.789   5.210 -0.1815  0.4115 -0.0893
38463SOL    HW121226   8.223   6.698   5.179  0.6273 -0.2568  1.7200
38463SOL    HW221227   8.189   6.783   5.300 -2.9621  2.3045 -0.8909
38464SOL     OW21228  11.431  11.297   9.723  0.4206  0.5564 -0.1912
38464SOL    HW121229  11.389  11.304   9.637 -2.1862 -2.8483  0.5844
38464SOL    HW221230  11.477  11.213   9.721  0.3664  0.4324  1.7005
38465SOL     OW21231   1.918   3.069   8.821 -0.5221  0.6264  0.3246
38465SOL    HW121232   1.924   2.978   8.852  0.1086  0.6579  0.3086
38465SOL    HW221233   1.913   3.121   8.902  2.1043  0.7840  0.4945
38466SOL     OW21234   1.006   6.367   7.049 -0.5431 -0.1764  0.2919
38466SOL    HW121235   0.993   6.355   6.955 -1.0163 -1.4932  0.5020
38466SOL    HW221236   0.952   6.299   7.090  1.9642 -1.6576  1.4009
38467SOL     OW21237   5.320   6.940   2.195 -0.2822 -0.1668  0.5762
38467SOL    HW121238   5.396   6.995   2.215 -0.3211 -0.1743  0.7423
38467SOL    HW221239   5.358   6.858   2.164 -0.1870 -0.7899  2.2280
38468SOL     OW21240   0.980   4.616  11.864  0.4572 -0.4171 -0.2627
38468SOL    HW121241   1.074   4.619  11.843  0.3772  1.5660 -0.4474
38468SOL    HW221242   0.967   4.684  11.930 -0.4243 -2.4547  1.8117
38469SOL     OW21243   3.375  10.750   2.489  0.0531  0.0423  0.1690
38469SOL    HW121244   3.442  10.790   2.433  0.3273 -1.8018 -0.8864
38469SOL    HW221245   3.294  10.761   2.440 -0.2362  1.1002  0.8435
38470SOL     OW21246   4.005   8.971   9.784  0.4348 -0.6448 -0.9391
38470SOL    HW121247   3.911   8.960   9.793  0.6230 -1.6797  0.0013
38470SOL    HW221248   4.016   9.029   9.709 -0.9660  0.1155 -0.5795
38471SOL     OW21249  11.670   4.891   3.303  0.0311  0.3987 -1.2157
38471SOL    HW121250  11.728   4.830   3.257 -0.5711 -0.9941 -0.2077
38471SOL    HW221251  11.696   4.977   3.272  0.6818 -0.3840 -2.9702
38472SOL     OW21252   1.439   2.971   2.548  0.3277 -0.0042  0.0783
38472SOL    HW121253   1.366   2.940   2.600 -2.0334  1.0455 -2.3466
38472SOL    HW221254   1.508   2.906   2.560 -1.5243 -1.8350  1.3301
38473SOL     OW21255   7.475   2.541  11.638  0.0737 -0.1842  0.0757
38473SOL    HW121256   7.551   2.535  11.696  0.1346  2.0914  0.2859
38473SOL    HW221257   7.505   2.502  11.555  0.8036 -1.1029  0.7457
38474SOL     OW21258   3.737   5.544   6.383 -0.1017 -0.0416  0.2501
38474SOL    HW121259   3.691   5.490   6.448  0.6684 -0.4115  0.5004
38474SOL    HW221260   3.687   5.625   6.380 -0.2176 -0.0616  1.2365
38475SOL     OW21261  10.387  11.780   4.445  0.3621 -0.1759 -0.0900
38475SOL    HW121262  10.393  11.728   4.525 -0.6600  1.2507  0.9394
38475SOL    HW221263  10.299  11.817   4.446  0.9147  1.2351 -1.0042
38476SOL     OW21264   2.289   9.949   7.650  0.1680 -0.3354  0.0222
38476SOL    HW121265   2.251  10.016   7.593  1.9016  1.3871  0.8164
38476SOL    HW221266   2.217   9.923   7.708 -0.7201  0.2799 -0.7682
38477SOL     OW21267   1.029   1.959   6.890  0.3467 -0.3479  0.3494
38477SOL    HW121268   1.062   1.895   6.827 -0.1091 -0.5114  0.2732
38477SOL    HW221269   1.096   2.027   6.893  1.2457 -1.2349  1.0731
38478SOL     OW21270   0.539   1.841   6.642 -0.0426  0.3683 -0.8537
38478SOL    HW121271   0.493   1.923   6.626 -1.1161  0.2605  1.2845
38478SOL    HW221272   0.590   1.857   6.722  0.7202 -0.6669 -1.1061
38479SOL     OW21273   1.268   5.919   1.627 -0.2020 -0.0452  0.2722
38479SOL    HW121274   1.355   5.887   1.651  0.1772  1.2093  0.6692
38479SOL    HW221275   1.217   5.840   1.610  0.3554 -0.9239  2.3339
38480SOL     OW21276   3.793  10.148  12.156  0.2260 -0.3478 -0.3343
38480SOL    HW121277   3.723  10.140  12.221  0.3231  0.9460 -0.0447
38480SOL    HW221278   3.754  10.197  12.084  0.9217  0.7636  0.0095
38481SOL     OW21279   1.083   3.100   5.400 -0.0795  0.4082  0.6258
38481SOL    HW121280   1.078   3.060   5.487 -1.6397 -1.9359 -0.4251
38481SOL    HW221281   1.017   3.169   5.402 -1.4872 -0.8800  0.7883
38482SOL     OW21282   8.470   2.792   2.592  0.3271 -0.0811 -0.0467
38482SOL    HW121283   8.470   2.697   2.610  0.1091  0.1556  1.2892
38482SOL    HW221284   8.468   2.798   2.496  0.3678 -1.4283 -0.1532
38483SOL     OW21285   4.689   7.133   5.551  0.0172 -0.2835  0.3577
38483SOL    HW121286   4.622   7.160   5.613  0.8635 -1.4382  1.8382
38483SOL    HW221287   4.770   7.174   5.584  0.8722 -2.5781  1.2898
38484SOL     OW21288   6.727   8.038   2.742 -0.0016 -0.2121  0.3975
38484SOL    HW121289   6.752   7.997   2.825 -1.1199  0.0733  0.8980
38484SOL    HW221290   6.653   7.987   2.711  0.2570 -0.1686 -0.3228
38485SOL     OW21291  11.393   4.943   2.908 -0.1098  0.4931 -0.5726
38485SOL    HW121292  11.358   4.977   2.825  0.2213  1.4244 -0.3442
38485SOL    HW221293  11.340   4.986   2.975 -0.8892 -0.8437 -0.2995
38486SOL     OW21294   3.627   0.879  12.276  0.1561  0.3335 -0.0718
38486SOL    HW121295   3.599   0.960  12.318  0.8488 -0.0346  1.1404
38486SOL    HW221296   3.679   0.908  12.201  1.3950  1.0387  1.0245
38487SOL     OW21297   8.924   4.627   0.209 -0.0088 -0.1882  0.3451
38487SOL    HW121298   9.005   4.667   0.178 -0.6310 -0.5592 -1.9197
38487SOL    HW221299   8.855   4.685   0.177 -0.6895 -0.0914  1.8989
38488SOL     OW21300   9.227  11.530   7.537  0.1452 -0.2667 -0.2419
38488SOL    HW121301   9.253  11.606   7.485 -0.6854 -0.0116 -0.2976
38488SOL    HW221302   9.138  11.510   7.508 -0.0210 -0.6373  0.4876
38489SOL     OW21303  11.448  12.287   2.410 -0.2065  0.1939 -0.4165
38489SOL    HW121304  11.395  12.225   2.359 -0.5631  1.0620 -1.1159
38489SOL    HW221305  11.390  12.362   2.424  0.7972  1.1375 -1.1251
38490SOL     OW21306   0.505   3.163   9.310 -0.0154  0.3295  0.0168
38490SOL    HW121307   0.486   3.100   9.380 -1.2239  1.2084  0.5205
38490SOL    HW221308   0.532   3.109   9.236  0.5218 -0.6703  0.9103
38491SOL     OW21309   4.571   6.814   9.419  0.3121  0.6262  0.3866
38491SOL    HW121310   4.488   6.783   9.383  0.5535 -1.1404  1.2506
38491SOL    HW221311   4.613   6.736   9.455  2.4267  1.4343 -0.1255
38492SOL     OW21312   1.863  12.278   2.500  0.3411  0.2670 -0.4110
38492SOL    HW121313   1.946  12.267   2.547  0.2467 -0.4899 -0.4101
38492SOL    HW221314   1.820  12.193   2.508 -0.4729  0.6831 -0.3444
38493SOL     OW21315   5.372   8.529   8.874  0.0334  0.0966 -0.0309
38493SOL    HW121316   5.357   8.565   8.787  0.6639  1.4389  0.3901
38493SOL    HW221317   5.439   8.461   8.861  0.5312  0.6725 -0.5063
38494SOL     OW21318  11.560  11.286   2.180 -0.2543 -0.6922  0.4080
38494SOL    HW121319  11.519  11.367   2.148  0.6722 -0.0940  0.6656
38494SOL    HW221320  11.546  11.223   2.110  1.5751  0.5316 -1.1924
38495SOL     OW21321   2.369  12.251   8.649 -0.1553 -0.6325 -0.0599
38495SOL    HW121322   2.291  12.197   8.661 -0.9546  0.5895  0.3957
38495SOL    HW221323   2.348  12.334   8.691  1.8638 -0.6768  1.1374
38496SOL     OW21324  11.349   9.702   5.260  0.4049  0.0025 -0.3423
38496SOL    HW121325  11.399   9.621   5.267  2.0276  0.9149 -0.9887
38496SOL    HW221326  11.387   9.749   5.186 -0.3420  1.4741  0.1505
38497SOL     OW21327   5.022   0.474   1.296  0.3514  0.2856  0.0541
38497SOL    HW121328   4.981   0.531   1.230 -0.5219 -1.5191 -1.0505
38497SOL    HW221329   4.996   0.512   1.380  0.3565  1.8677 -0.6214
38498SOL     OW21330   5.135   5.631   0.039  0.0219 -0.0005  0.0995
38498SOL    HW121331   5.147   5.680  -0.042  1.4284  1.6183  1.2407
38498SOL    HW221332   5.223   5.616   0.072 -0.5515  0.8227  2.1607
38499SOL     OW21333   7.016   4.220   2.265 -0.6978 -0.4172 -0.2635
38499SOL    HW121334   7.044   4.132   2.290 -0.3593 -0.0185  0.8281
38499SOL    HW221335   7.014   4.268   2.348  1.0492  1.1603 -1.0713
38500SOL     OW21336   5.918   5.297  11.915  0.2585  0.4304 -0.1563
38500SOL    HW121337   5.840   5.243  11.921 -1.1504  2.1181 -1.9798
38500SOL    HW221338   5.886   5.381  11.883  3.0052  0.7189 -2.5003
38501SOL     OW21339   1.897   8.402   5.179  0.5117  0.6223 -0.1540
38501SOL    HW121340   1.916   8.327   5.123 -0.7945  1.2901 -1.5651
38501SOL    HW221341   1.874   8.472   5.118  1.3225  2.0830  1.1374
38502SOL     OW21342   2.026   2.266   1.956 -0.0340 -0.4651 -0.3305
38502SOL    HW121343   2.115   2.267   1.919 -0.1067  1.4289 -0.5809
38502SOL    HW221344   1.993   2.355   1.941 -1.6855 -0.8939  0.4824
38503SOL     OW21345   3.187  10.505   3.115  0.1957  0.2097 -0.3733
38503SOL    HW121346   3.108  10.453   3.120 -0.3052  1.0914  1.7668
38503SOL    HW221347   3.181  10.567   3.188  3.4176 -0.4988  0.6778
38504SOL     OW21348   4.684  12.135  10.881 -0.6650  0.3152 -0.3382
38504SOL    HW121349   4.779  12.129  10.881 -0.7088 -0.5796 -1.5337
38504SOL    HW221350   4.653  12.045  10.868 -1.6359  0.7691 -1.4035
38505SOL     OW21351   2.248   8.616  11.331  0.1098  0.1511  0.3847
38505SOL    HW121352   2.292   8.701  11.332  0.0350  0.1870  1.1843
38505SOL    HW221353   2.299   8.563  11.269 -1.3206  1.5148 -2.1198
38506SOL     OW21354   0.978   2.821   4.082 -0.6282  0.3265  0.4544
38506SOL    HW121355   0.949   2.738   4.120 -0.9639  0.6228  0.8482
38506SOL    HW221356   0.897   2.869   4.063 -0.4261  1.3460  1.9720
38507SOL     OW21357   5.879   7.498   4.490 -0.7251 -0.0180 -0.2283
38507SOL    HW121358   5.856   7.587   4.515  1.4133  0.5490 -0.0737
38507SOL    HW221359   5.971   7.503   4.464  0.5593 -2.7416  2.9819
38508SOL     OW21360   8.140   0.885   0.113  0.2428  0.3621 -0.0110
38508SOL    HW121361   8.093   0.927   0.185 -0.2839  0.3591 -0.3474
38508SOL    HW221362   8.232   0.900   0.133  0.0877  2.8083 -0.7440
38509SOL     OW21363   0.927  12.228   0.004  0.6716  0.3224  0.0618
38509SOL    HW121364   0.941  12.133   0.005 -0.6494  0.1165  0.1670
38509SOL    HW221365   0.992  12.261  -0.058  1.1231 -0.6446  0.0002
38510SOL     OW21366  10.414   2.749   4.584  0.4090 -0.6345 -0.2181
38510SOL    HW121367  10.431   2.795   4.502  0.5802 -0.4329 -0.0743
38510SOL    HW221368  10.360   2.810   4.635  0.9122 -0.4487  0.1051
38511SOL     OW21369  10.515   5.268   5.521 -0.4459 -0.2106  0.4494
38511SOL    HW121370  10.464   5.217   5.584 -0.8342  0.0154  0.3229
38511SOL    HW221371  10.450   5.324   5.477 -0.1976 -0.4449 -0.2257
38512SOL     OW21372   6.914  11.695   9.566 -0.2229  0.0183 -0.6169
38512SOL    HW121373   6.887  11.686   9.657  2.1726  0.1516  0.1714
38512SOL    HW221374   6.905  11.789   9.548 -1.2391 -0.0857 -0.7460
38513SOL     OW21375   0.602  10.061   9.082  0.7925  0.1522  0.3785
38513SOL    HW121376   0.658  10.109   9.020  0.1149  0.4479 -0.0248
38513SOL    HW221377   0.659   9.995   9.121  1.1540 -0.2700 -0.8256
38514SOL     OW21378  11.139   1.204   5.377  0.3441 -0.1058 -0.0411
38514SOL    HW121379  11.165   1.161   5.295 -1.5426 -2.2974  0.4035
38514SOL    HW221380  11.164   1.141   5.446  0.1721  0.8462  0.9214
38515SOL     OW21381  11.925   0.978   2.044  0.5811 -0.0116  0.5495
38515SOL    HW121382  11.962   0.895   2.013 -1.9535 -0.6425 -1.0714
38515SOL    HW221383  11.849   0.952   2.095 -0.0975  1.3036  0.2303
38516SOL     OW21384   2.997   5.869  10.909 -0.3193 -0.3184  0.6995
38516SOL    HW121385   2.909   5.849  10.939 -0.6790  1.9568  1.2860
38516SOL    HW221386   3.051   5.864  10.988 -0.4400  0.9932  0.8902
38517SOL     OW21387   3.124   9.592   1.505  0.0894 -0.0061 -0.4117
38517SOL    HW121388   3.171   9.538   1.568 -0.0673 -0.6811 -0.8601
38517SOL    HW221389   3.053   9.633   1.556 -0.8241 -1.5429 -0.3864
38518SOL     OW21390   2.019   4.789   3.765 -0.3719 -0.2032 -0.3873
38518SOL    HW121391   2.059   4.873   3.789  0.5571 -0.3752 -1.2771
38518SOL    HW221392   1.999   4.747   3.849 -1.2536  1.0813  0.0790
38519SOL     OW21393   2.144  11.704   1.837  0.7732  0.0049 -0.0576
38519SOL    HW121394   2.197  11.626   1.821  4.2588  2.2790 -0.6481
38519SOL    HW221395   2.151  11.719   1.931  1.3610  0.4137 -0.1646
38520SOL     OW21396   5.462   9.361   5.828  0.7872 -0.0381 -0.2395
38520SOL    HW121397   5.419   9.446   5.824  0.5582 -0.1165  0.4295
38520SOL    HW221398   5.538   9.370   5.771  0.0372  0.1837 -1.2349
38521SOL     OW21399  10.762   9.939   0.996  0.5267 -0.1777  0.0054
38521SOL    HW121400  10.673   9.976   0.989  0.1319 -1.4154 -2.6434
38521SOL    HW221401  10.816  10.013   1.022 -0.4591  2.1145 -3.6370
38522SOL     OW21402   5.563   1.371   8.145 -0.3476  0.3134 -0.1396
38522SOL    HW121403   5.539   1.283   8.174  1.3638 -0.3080 -0.4785
38522SOL    HW221404   5.515   1.430   8.204 -1.2020 -0.8391  0.3553
38523SOL     OW21405  11.724   7.157   2.553  0.1669 -1.0058  0.2998
38523SOL    HW121406  11.647   7.114   2.514  0.2020 -1.5334  0.8098
38523SOL    HW221407  11.720   7.246   2.519 -0.3265 -1.1980 -0.1759
38524SOL     OW21408   1.323   9.730   7.759  0.1129 -0.4876 -0.5878
38524SOL    HW121409   1.314   9.811   7.808  1.4029 -0.6301 -0.0526
38524SOL    HW221410   1.269   9.741   7.682  1.3578  1.4655 -1.2401
38525SOL     OW21411   2.388   5.193   4.438 -0.3399  0.0443 -0.2902
38525SOL    HW121412   2.304   5.229   4.465  0.0991  1.4225 -0.7150
38525SOL    HW221413   2.427   5.159   4.519 -0.9492  0.1123  0.0369
38526SOL     OW21414   4.030   4.513   3.212 -0.1651 -0.1094 -0.3728
38526SOL    HW121415   3.981   4.448   3.162 -1.7047 -0.0588  1.0189
38526SOL    HW221416   4.109   4.528   3.159 -0.2463 -2.3142 -1.2479
38527SOL     OW21417   2.743   3.020   2.524 -0.2075 -0.2705  0.1500
38527SOL    HW121418   2.783   3.067   2.597  1.4113 -0.8185 -0.3248
38527SOL    HW221419   2.657   3.060   2.512 -0.0409  0.5646  1.6270
38528SOL     OW21420  11.556   9.783   3.943  0.4483  0.5549  0.3664
38528SOL    HW121421  11.586   9.694   3.924 -1.7750 -0.3731  0.8907
38528SOL    HW221422  11.461   9.779   3.931  0.3267  2.9791  0.0169
38529SOL     OW21423   8.244  10.066   5.338 -0.0133 -0.5911  0.2328
38529SOL    HW121424   8.150  10.064   5.319 -0.3475 -0.4160  1.7784
38529SOL    HW221425   8.262   9.985   5.384  0.8342 -1.1255 -0.9921
38530SOL     OW21426   5.548   8.333   1.897 -0.3762  0.2489  0.2560
38530SOL    HW121427   5.486   8.338   1.969 -1.0794  1.3160 -0.3996
38530SOL    HW221428   5.631   8.306   1.938 -0.8865  0.3332  1.3699
38531SOL     OW21429   5.299  12.231  10.105  0.3170  0.2464 -0.1689
38531SOL    HW121430   5.306  12.137  10.090 -0.2059  0.2478 -0.4598
38531SOL    HW221431   5.273  12.240  10.196 -0.2438  0.0814 -0.3086
38532SOL     OW21432   0.720   2.298   6.914  0.9823  0.1426 -0.2418
38532SOL    HW121433   0.688   2.388   6.919 -0.2038 -0.2941  0.3199
38532SOL    HW221434   0.650   2.246   6.952  1.4755 -1.0685 -0.9581
38533SOL     OW21435   9.523  11.857   9.070 -0.4488  0.2445  0.6009
38533SOL    HW121436   9.491  11.887   9.155  0.0729 -0.8251  1.2008
38533SOL    HW221437   9.595  11.917   9.049 -1.0999  1.0080  0.5192
38534SOL     OW21438   2.844  11.205   1.306  0.3352 -0.3876 -1.4229
38534SOL    HW121439   2.761  11.242   1.337 -0.7724 -2.0127 -2.3105
38534SOL    HW221440   2.907  11.226   1.375 -1.4299 -1.5392  0.6780
38535SOL     OW21441   6.020   3.511   9.977 -0.5639  0.0230 -0.0863
38535SOL    HW121442   6.020   3.588  10.033 -0.1352  0.7522 -1.0528
38535SOL    HW221443   6.087   3.530   9.911  0.2414 -1.5812  0.1971
38536SOL     OW21444   7.277  11.102   8.297  0.1621  0.1153 -0.3416
38536SOL    HW121445   7.240  11.186   8.325  0.0679  0.1334 -0.5192
38536SOL    HW221446   7.258  11.098   8.203  0.4140  0.0245 -0.3901
38537SOL     OW21447   8.670   9.196   1.155 -0.0002  0.0998  0.3407
38537SOL    HW121448   8.624   9.113   1.166  0.0568  0.2362  1.8171
38537SOL    HW221449   8.619   9.243   1.090 -0.9661 -0.4465  0.6778
38538SOL     OW21450  11.728   7.801   6.009 -0.1552  0.2975 -0.2373
38538SOL    HW121451  11.656   7.808   5.947 -1.3967 -0.5065  1.0602
38538SOL    HW221452  11.711   7.870   6.073 -0.3855 -0.5489  0.6446
38539SOL     OW21453   1.448   7.234   6.272  0.2463  0.2357 -0.6865
38539SOL    HW121454   1.417   7.309   6.322 -1.9319 -0.2539 -1.2228
38539SOL    HW221455   1.467   7.167   6.337  0.4211  0.6243 -0.3323
38540SOL     OW21456   0.208   5.717   2.882 -0.6238  0.7178 -0.2361
38540SOL    HW121457   0.230   5.661   2.808 -0.7504  0.1246  0.1674
38540SOL    HW221458   0.117   5.697   2.901 -0.5475  0.7513  0.1739
38541SOL     OW21459  11.504   3.012   8.964  0.1555 -0.0083 -0.2442
38541SOL    HW121460  11.460   2.950   9.022 -0.0377 -0.3817 -0.7754
38541SOL    HW221461  11.442   3.083   8.952  0.0554 -0.0993 -0.2652
38542SOL     OW21462   2.246   3.508   4.950  0.2719  0.0968 -0.3877
38542SOL    HW121463   2.263   3.420   4.914  2.6369 -0.3373  1.5224
38542SOL    HW221464   2.174   3.494   5.013 -0.0424 -0.2480 -0.8125
38543SOL     OW21465   1.748   6.864   5.335 -0.2280  0.1350 -0.0273
38543SOL    HW121466   1.706   6.871   5.420 -2.1477 -0.3329 -0.8728
38543SOL    HW221467   1.720   6.942   5.288 -0.1013 -0.1512 -0.5907
38544SOL     OW21468   4.007  10.843   3.772  0.1058  0.5939 -0.4119
38544SOL    HW121469   3.912  10.848   3.778  0.0395 -0.1354 -0.7961
38544SOL    HW221470   4.031  10.913   3.712 -0.3207 -0.1475 -1.4714
38545SOL     OW21471   1.742  10.314   0.314  0.2762  0.4015 -0.3964
38545SOL    HW121472   1.656  10.335   0.277  0.2854  1.2895  0.0668
38545SOL    HW221473   1.722  10.274   0.399  0.3296  0.8806 -0.1587
38546SOL     OW21474   0.501  12.113  11.209  0.2029  0.2696  0.2521
38546SOL    HW121475   0.501  12.205  11.236  0.7087  0.4714 -0.4109
38546SOL    HW221476   0.586  12.081  11.237  0.5222  0.3396 -0.6077
38547SOL     OW21477   5.594   6.278   3.777  0.4817 -0.8215 -0.1254
38547SOL    HW121478   5.601   6.237   3.863  2.5492  0.9732  0.6788
38547SOL    HW221479   5.500   6.278   3.757  0.1701 -3.5551  0.9029
38548SOL     OW21480   7.100   1.740   0.233 -0.3429 -0.4495  1.0106
38548SOL    HW121481   7.084   1.671   0.298 -0.8955 -1.0101  0.2966
38548SOL    HW221482   7.039   1.810   0.256 -0.3220 -0.5173  1.2765
38549SOL     OW21483  10.489   4.243   6.808  0.2614 -0.0677 -0.1604
38549SOL    HW121484  10.579   4.252   6.777 -0.7064 -0.1418 -3.2843
38549SOL    HW221485  10.447   4.326   6.786 -0.8850 -0.7145 -0.5071
38550SOL     OW21486   2.240   7.235   4.898  0.2851  0.0178  0.0044
38550SOL    HW121487   2.152   7.204   4.876  0.2397  1.0813 -1.5017
38550SOL    HW221488   2.297   7.191   4.835  0.7889 -0.3821  0.7327
38551SOL     OW21489   0.644   8.636   8.623 -0.2428 -0.1447  0.2155
38551SOL    HW121490   0.615   8.726   8.611  1.0801  0.5868  2.0346
38551SOL    HW221491   0.729   8.632   8.578 -0.5710 -0.6850 -0.3785
38552SOL     OW21492   3.675  11.250   9.384  0.2526  0.6363 -0.2096
38552SOL    HW121493   3.613  11.183   9.355 -0.7932  0.8267  1.4585
38552SOL    HW221494   3.761  11.208   9.377 -0.2715 -0.4418 -0.3750
38553SOL     OW21495   0.561   2.664  10.406  0.3381  0.2084 -0.2670
38553SOL    HW121496   0.576   2.713  10.325  0.4142  1.3135  0.3936
38553SOL    HW221497   0.466   2.665  10.417  0.3982  1.2058  0.3185
38554SOL     OW21498   8.835   9.255   9.190  0.1932  0.1308  1.0943
38554SOL    HW121499   8.742   9.275   9.199 -0.1503 -0.0652 -1.4393
38554SOL    HW221500   8.880   9.334   9.220 -0.8944  1.3623 -0.3771
38555SOL     OW21501   6.682   3.334   1.681 -0.5834 -0.2686 -0.2515
38555SOL    HW121502   6.735   3.269   1.727  0.5919  0.5467 -0.4272
38555SOL    HW221503   6.694   3.414   1.731 -1.2306  0.0602 -0.6136
38556SOL     OW21504   4.060   8.004  11.061  0.1564 -0.0099 -0.3412
38556SOL    HW121505   4.021   8.068  11.119  0.0976  0.2249 -0.6393
38556SOL    HW221506   4.011   7.923  11.077 -0.9668  0.4715 -1.2675
38557SOL     OW21507   6.359   0.920   1.663  0.3742 -0.0627  0.5464
38557SOL    HW121508   6.410   0.998   1.640  0.1170  0.2041  0.8725
38557SOL    HW221509   6.367   0.913   1.758 -0.6737  0.3289  0.6865
38558SOL     OW21510  12.057   9.702   6.101  0.1443 -0.0683  0.6191
38558SOL    HW121511  11.985   9.749   6.143 -2.3912 -2.7214 -0.4081
38558SOL    HW221512  12.093   9.646   6.170  0.2442  0.1999  0.7844
38559SOL     OW21513   5.443   7.055   2.947  0.1028  0.2870 -0.3308
38559SOL    HW121514   5.379   6.991   2.913  0.2064 -0.9499  1.6497
38559SOL    HW221515   5.450   7.034   3.040  2.0996  1.5537 -0.1522
38560SOL     OW21516  10.529   1.732   9.670  0.0353  0.2627 -0.3364
38560SOL    HW121517  10.592   1.768   9.733 -0.0279  0.0081 -0.1250
38560SOL    HW221518  10.458   1.797   9.668 -0.7215 -0.4552  1.0583
38561SOL     OW21519   2.548   6.090   2.109 -0.4495 -0.4329  0.0781
38561SOL    HW121520   2.479   6.129   2.162 -0.6028 -1.5343  0.7326
38561SOL    HW221521   2.540   5.995   2.124 -0.3407 -0.7755 -1.7348
38562SOL     OW21522   8.706   3.487   9.657  0.2163  0.0359  0.6568
38562SOL    HW121523   8.694   3.557   9.721  2.2421  0.9714  0.1101
38562SOL    HW221524   8.790   3.447   9.681  0.5096 -0.2625 -0.7572
38563SOL     OW21525   2.998   0.336   0.010 -0.2439 -0.3340 -0.8551
38563SOL    HW121526   3.039   0.267  -0.042 -0.9354 -0.9994 -0.5313
38563SOL    HW221527   2.905   0.331  -0.013 -0.5065 -0.3968  0.1708
38564SOL     OW21528   5.618  10.102   7.628 -0.0780 -0.0523  0.3239
38564SOL    HW121529   5.581  10.110   7.540 -1.0654 -0.0492  0.7235
38564SOL    HW221530   5.698  10.155   7.626 -1.1709  1.6661  0.0106
38565SOL     OW21531   2.822   4.454   0.424  0.3049  0.6524  0.5592
38565SOL    HW121532   2.865   4.463   0.339 -1.2385 -0.5875 -0.4118
38565SOL    HW221533   2.796   4.543   0.448  1.7989  1.1789  0.3510
38566SOL     OW21534   1.243   5.189   2.227  0.1289 -0.1317 -0.5808
38566SOL    HW121535   1.259   5.261   2.165  0.1838  0.4494  0.1007
38566SOL    HW221536   1.300   5.208   2.301 -0.4437 -0.4431 -0.0487
38567SOL     OW21537   6.618   8.034   1.960 -0.1406  0.6330  0.4682
38567SOL    HW121538   6.686   8.071   2.016  0.6994  1.0624 -0.8068
38567SOL    HW221539   6.549   8.101   1.957 -0.3718  0.4451  1.2767
38568SOL     OW21540   8.587   6.834   6.231 -0.1596  0.0649 -0.0336
38568SOL    HW121541   8.627   6.867   6.151 -0.2867 -0.7374 -0.4412
38568SOL    HW221542   8.659   6.824   6.293  0.7837 -3.5550 -1.4689
38569SOL     OW21543   6.036  10.332  10.465  0.0301 -0.0511  0.1449
38569SOL    HW121544   5.950  10.303  10.433 -0.5020  2.2226 -0.6705
38569SOL    HW221545   6.093  10.256  10.453 -2.1078 -2.1158  1.9994
38570SOL     OW21546   1.174  11.792   7.110  0.0725  0.2255  0.0261
38570SOL    HW121547   1.215  11.799   7.024  0.2825  0.5304  0.1475
38570SOL    HW221548   1.088  11.753   7.093 -1.1119  2.9008 -0.7149
38571SOL     OW21549   8.157   0.272   7.876  0.0526  0.5665  0.0628
38571SOL    HW121550   8.141   0.349   7.821 -0.7455  0.0175 -0.5021
38571SOL    HW221551   8.106   0.287   7.955  1.5936  1.5901  0.9253
38572SOL     OW21552   8.106  12.062   2.474 -0.6493  0.6923 -0.4318
38572SOL    HW121553   8.124  12.142   2.425  0.5969  1.4175  1.1163
38572SOL    HW221554   8.184  12.009   2.464 -0.7893  0.4149 -0.0886
38573SOL     OW21555   4.085   2.999   9.571  0.1479  0.1488 -0.1537
38573SOL    HW121556   4.089   3.010   9.476 -1.4176  1.5967 -0.0870
38573SOL    HW221557   4.092   2.904   9.584  0.6954 -0.0456 -1.6837
38574SOL     OW21558   9.930   2.250   7.715 -0.2788 -0.2036 -0.6077
38574SOL    HW121559   9.837   2.260   7.694 -0.2629  0.0557 -0.5617
38574SOL    HW221560   9.968   2.336   7.697 -0.3501  0.1583  0.8474
38575SOL     OW21561   6.215  11.907   5.934 -0.0194 -0.5466  0.5495
38575SOL    HW121562   6.142  11.847   5.913  0.3632 -0.4002 -1.3153
38575SOL    HW221563   6.288  11.848   5.954  0.0909 -0.7178 -0.3183
38576SOL     OW21564  10.114   0.437   5.877 -0.5923 -0.2248 -0.5565
38576SOL    HW121565  10.066   0.364   5.836 -1.2255  0.7424 -1.5861
38576SOL    HW221566  10.046   0.489   5.919 -0.1713 -0.0571 -0.0784
38577SOL     OW21567   4.062   5.291   2.440 -0.2199  0.1719  0.4270
38577SOL    HW121568   4.085   5.305   2.532 -0.4911  0.3439  0.4679
38577SOL    HW221569   3.993   5.354   2.422 -1.2411 -0.8852  0.5280
38578SOL     OW21570   4.823  12.305   8.565 -0.0709 -0.1791 -0.2365
38578SOL    HW121571   4.811  12.387   8.613 -0.2792 -0.8403  0.8879
38578SOL    HW221572   4.862  12.331   8.482  0.6175  0.9910  0.4201
38579SOL     OW21573   1.718   1.045   4.742 -0.2696 -0.1737  0.0462
38579SOL    HW121574   1.748   1.094   4.665 -0.0803 -0.1270  0.1490
38579SOL    HW221575   1.781   1.067   4.810 -0.2548 -0.4684  0.1273
38580SOL     OW21576   6.740   2.265   9.309  0.9040  0.2040 -0.0465
38580SOL    HW121577   6.720   2.287   9.218 -0.7529 -0.0729  0.2199
38580SOL    HW221578   6.684   2.189   9.328 -1.1208  2.0576  2.0794
38581SOL     OW21579   5.933   2.729   3.107 -0.0983 -0.6213 -0.4662
38581SOL    HW121580   5.890   2.804   3.147  1.1119 -0.9957  1.7115
38581SOL    HW221581   5.863   2.665   3.092 -0.7015 -0.1720  0.4111
38582SOL     OW21582   0.835   4.322   4.260 -0.4718 -0.2037 -0.1622
38582SOL    HW121583   0.861   4.275   4.180  1.4161 -0.9079  0.8009
38582SOL    HW221584   0.784   4.259   4.310  1.4680 -1.0908  0.8092
38583SOL     OW21585   0.184   4.253   9.254 -0.0816 -0.0514 -0.3538
38583SOL    HW121586   0.096   4.255   9.289 -0.2084 -0.1984 -0.6570
38583SOL    HW221587   0.241   4.242   9.330 -0.2692  0.8326 -0.0848
38584SOL     OW21588   4.936   9.848   3.139 -0.0695 -0.4905  0.1591
38584SOL    HW121589   4.933   9.859   3.044  0.5028 -0.7047  0.1128
38584SOL    HW221590   5.026   9.870   3.163 -0.6705  1.3936  0.8928
38585SOL     OW21591   7.379   5.452   7.592 -0.1409  0.1016 -0.1027
38585SOL    HW121592   7.284   5.443   7.600 -0.2981  1.6325 -0.0115
38585SOL    HW221593   7.414   5.382   7.647 -1.2015 -0.9919 -0.7720
38586SOL     OW21594   2.705  12.230   7.515  0.4059  0.5573 -0.0170
38586SOL    HW121595   2.752  12.236   7.432  1.6203  1.3323  0.6981
38586SOL    HW221596   2.774  12.237   7.581 -0.3100 -1.8436  1.0764
38587SOL     OW21597   2.742   5.591   0.991 -0.6133  0.2909  0.1639
38587SOL    HW121598   2.766   5.519   0.934 -1.1603  1.5192 -1.7285
38587SOL    HW221599   2.754   5.669   0.937 -1.0735  1.5375  1.7811
38588SOL     OW21600   8.551   4.392  11.890 -0.2559  0.4350  0.3605
38588SOL    HW121601   8.575   4.483  11.876 -0.8768  0.4461 -0.7946
38588SOL    HW221602   8.473   4.396  11.946  0.0530  0.5836  0.7811
38589SOL     OW21603   3.140   7.708   7.667 -0.5004 -0.0366  0.0008
38589SOL    HW121604   3.231   7.679   7.672 -0.8739 -1.2930 -0.1131
38589SOL    HW221605   3.109   7.705   7.757 -1.4743 -3.2850 -0.3220
38590SOL     OW21606   0.039   3.556   0.138  0.0757  0.2834  0.1674
38590SOL    HW121607   0.112   3.611   0.108  0.2495  0.0017  0.0684
38590SOL    HW221608   0.079   3.471   0.154 -0.1910  0.1898  0.3373
38591SOL     OW21609   4.588   9.914   0.470 -0.0875  0.2161  0.0890
38591SOL    HW121610   4.670   9.918   0.520 -0.2397 -1.3475  0.5059
38591SOL    HW221611   4.521   9.892   0.535 -0.1344 -2.9669 -0.8441
38592SOL     OW21612   7.810   2.211   7.490  0.0035  0.2898 -0.4333
38592SOL    HW121613   7.800   2.304   7.472  0.2392  0.6726  1.2220
38592SOL    HW221614   7.732   2.188   7.541  0.7570  0.0115  0.6373
38593SOL     OW21615   4.819   6.580   7.653  0.0902  0.2226 -0.0274
38593SOL    HW121616   4.794   6.671   7.638 -2.0737 -0.5381 -1.6306
38593SOL    HW221617   4.736   6.534   7.666  1.0891 -1.6090  0.2624
38594SOL     OW21618   6.648   9.297  11.320 -0.0429 -0.0166 -0.1870
38594SOL    HW121619   6.600   9.346  11.253  0.2669 -0.6073 -0.8487
38594SOL    HW221620   6.714   9.247  11.271  0.3959 -0.2156  0.5876
38595SOL     OW21621   1.426   7.665   1.204  0.6680 -0.0056 -0.0696
38595SOL    HW121622   1.452   7.592   1.261 -0.2006  0.4898  1.0049
38595SOL    HW221623   1.500   7.726   1.209 -0.0948  0.8597  2.0395
38596SOL     OW21624   2.746   1.286  12.157  0.6954 -0.0464  0.7590
38596SOL    HW121625   2.744   1.350  12.228 -1.0294  0.2254  0.5104
38596SOL    HW221626   2.768   1.337  12.079  0.1851  0.1060  0.7090
38597SOL     OW21627   3.646  11.860  11.920  0.1283 -0.0989  0.6368
38597SOL    HW121628   3.570  11.915  11.939  0.1058 -0.2182  0.8904
38597SOL    HW221629   3.718  11.902  11.966 -0.0693 -0.7966  1.6084
38598SOL     OW21630  10.756  11.522   7.332 -0.4307  0.4093 -0.0658
38598SOL    HW121631  10.672  11.539   7.376 -0.2675  1.9315 -0.2843
38598SOL    HW221632  10.744  11.558   7.244 -0.7481 -2.5765 -1.3669
38599SOL     OW21633   2.710   4.617   7.548  0.4091 -0.5729 -0.1197
38599SOL    HW121634   2.764   4.538   7.556  0.2094 -0.5514  2.5133
38599SOL    HW221635   2.772   4.689   7.549  0.5919 -0.6272 -2.5292
38600SOL     OW21636   0.801   4.003  11.275 -0.1903 -0.0340 -0.3100
38600SOL    HW121637   0.764   4.060  11.208 -1.2053 -0.2902  0.0162
38600SOL    HW221638   0.822   4.061  11.348  1.1758  0.2867 -0.9412
38601SOL     OW21639  10.193   6.918   2.439 -0.1454  0.4773 -0.1283
38601SOL    HW121640  10.125   6.934   2.374 -0.8952 -0.7179  0.3403
38601SOL    HW221641  10.182   6.989   2.502 -0.8207  0.4191 -0.1718
38602SOL     OW21642  11.695   1.277  11.991 -0.0280  0.1234  0.9126
38602SOL    HW121643  11.645   1.347  12.031 -3.3173 -0.4161 -1.8544
38602SOL    HW221644  11.683   1.202  12.051  1.3807  1.1207  2.5499
38603SOL     OW21645   9.545  11.750   3.289  0.4202  0.5583  0.5188
38603SOL    HW121646   9.577  11.839   3.275  1.5365  0.3629  1.6176
38603SOL    HW221647   9.485  11.758   3.363  0.0748  0.4851  0.2469
38604SOL     OW21648   2.138   6.338   5.529  0.5020 -0.4227  0.0808
38604SOL    HW121649   2.223   6.295   5.521  1.0526  0.8149 -1.2530
38604SOL    HW221650   2.101   6.333   5.441  0.5602  1.6803 -0.1176
38605SOL     OW21651  10.917   8.065   7.903 -0.5518 -0.1348  0.1787
38605SOL    HW121652  10.973   8.103   7.836 -1.3500  0.3593 -0.2227
38605SOL    HW221653  10.828   8.076   7.869 -0.9248 -0.4852  1.0136
38606SOL     OW21654   3.256   8.038  12.118 -0.2871 -0.5929  0.3470
38606SOL    HW121655   3.321   7.971  12.097  2.7612  1.6157  1.9842
38606SOL    HW221656   3.266   8.104  12.049 -0.0174  0.2550  1.1789
38607SOL     OW21657  11.075   7.508   2.683 -0.2590  0.0189  0.1791
38607SOL    HW121658  10.997   7.551   2.650 -0.7947 -0.3145  0.9800
38607SOL    HW221659  11.095   7.552   2.766  1.1276  0.9188 -0.5889
38608SOL     OW21660   0.165   5.064   7.283  0.3746  0.1448 -0.2194
38608SOL    HW121661   0.251   5.075   7.322  0.3923 -0.3593 -0.1082
38608SOL    HW221662   0.160   5.131   7.216  0.6198  0.5629  0.1752
38609SOL     OW21663  10.209   4.487   6.439  0.0484  0.1389  1.0520
38609SOL    HW121664  10.235   4.531   6.520  0.7521  0.6751  0.5408
38609SOL    HW221665  10.162   4.555   6.390 -0.9443 -0.3618  1.2641
38610SOL     OW21666   0.924   7.518   4.004  0.1339 -0.0753  0.1613
38610SOL    HW121667   0.913   7.459   3.929 -1.6195  0.5425 -0.1219
38610SOL    HW221668   1.010   7.557   3.992  0.5427 -1.1700 -0.6636
38611SOL     OW21669   5.096   2.553   5.660  0.0876 -0.1268 -0.2122
38611SOL    HW121670   5.175   2.506   5.686  0.0945  0.2498  0.4586
38611SOL    HW221671   5.075   2.609   5.735 -1.1275 -0.6276 -0.1540
38612SOL     OW21672   4.292   1.880   4.751 -0.5184 -0.2582 -0.0929
38612SOL    HW121673   4.354   1.876   4.823 -1.2738  2.0280  0.7874
38612SOL    HW221674   4.214   1.920   4.788 -1.1437  0.4745 -2.0409
38613SOL     OW21675   3.871  11.520   1.925  0.6122 -0.0275 -0.3919
38613SOL    HW121676   3.781  11.553   1.929  0.5073 -0.3185 -0.3466
38613SOL    HW221677   3.866  11.445   1.866  0.6896 -0.4823  0.1691
38614SOL     OW21678   4.282  11.289  10.522  0.0115 -0.3408  0.3304
38614SOL    HW121679   4.362  11.243  10.549 -0.8504 -2.1564 -0.0584
38614SOL    HW221680   4.296  11.309  10.430  0.6094  0.7203  0.6306
38615SOL     OW21681   5.475   3.001  10.595 -0.3353 -0.6920 -0.1448
38615SOL    HW121682   5.553   2.947  10.581 -0.5118 -0.6596 -1.3729
38615SOL    HW221683   5.507   3.078  10.641  0.6464 -0.0076 -1.8773
38616SOL     OW21684   3.256   4.900  11.407 -0.1935  0.0354 -0.6950
38616SOL    HW121685   3.277   4.949  11.486  0.6984 -0.2698 -0.7297
38616SOL    HW221686   3.281   4.958  11.335 -0.6292  0.1544 -0.7530
38617SOL     OW21687   4.139  11.875   4.350 -0.5007 -0.3558 -0.3505
38617SOL    HW121688   4.167  11.961   4.382  0.3474 -0.4859 -0.7220
38617SOL    HW221689   4.049  11.866   4.383 -0.7772  0.8673 -0.7009
38618SOL     OW21690   9.978   7.875   4.876 -0.3566 -0.2488  0.3071
38618SOL    HW121691   9.890   7.846   4.852  0.0621 -0.4784 -1.0529
38618SOL    HW221692   9.985   7.962   4.838 -0.2043  0.0292  0.9585
38619SOL     OW21693   1.441   4.474  10.549 -0.4768 -0.5121  0.0766
38619SOL    HW121694   1.367   4.465  10.609 -1.0458  0.5869 -0.4189
38619SOL    HW221695   1.466   4.566  10.557  0.0822 -0.5982 -0.6281
38620SOL     OW21696   4.716   4.325   4.568 -0.6590 -0.4624 -0.0749
38620SOL    HW121697   4.729   4.418   4.583 -0.8351 -0.7679  2.2561
38620SOL    HW221698   4.789   4.299   4.511  0.1349  0.8528  0.3081
38621SOL     OW21699  10.046   0.276   0.305  0.3424  0.2600  0.2490
38621SOL    HW121700  10.000   0.359   0.292 -1.5968 -1.0634 -2.3478
38621SOL    HW221701  10.013   0.219   0.235  2.6438 -2.2745  1.0491
38622SOL     OW21702   2.967   9.686  10.204 -0.6989 -0.9740  0.0123
38622SOL    HW121703   3.003   9.641  10.280 -0.9721 -1.2802 -0.0346
38622SOL    HW221704   2.919   9.760  10.241 -0.1205 -0.6265  0.0801
38623SOL     OW21705  11.869  10.840  10.768  0.1440  0.1775 -0.2839
38623SOL    HW121706  11.953  10.880  10.792  0.5119 -1.1928  0.8333
38623SOL    HW221707  11.814  10.850  10.845 -0.1530 -0.3975 -0.4123
38624SOL     OW21708   3.625   2.301   8.839 -0.2016  0.1896  0.8325
38624SOL    HW121709   3.605   2.217   8.798  3.7065 -0.5390  0.0190
38624SOL    HW221710   3.595   2.291   8.929  0.3813 -2.2220  0.8326
38625SOL     OW21711   8.713   5.586   6.832 -1.1809  0.3578 -0.1249
38625SOL    HW121712   8.792   5.640   6.837 -0.7500  0.0453 -2.2732
38625SOL    HW221713   8.651   5.641   6.784 -1.2501 -0.4392 -0.9895
38626SOL     OW21714   8.574   0.031   6.777 -0.0657  0.6636  0.2631
38626SOL    HW121715   8.566  -0.063   6.762 -0.8134  1.0129 -1.8928
38626SOL    HW221716   8.590   0.039   6.871 -0.3966 -1.5805  0.5674
38627SOL     OW21717   5.760   4.469  10.900  0.1975  0.0666 -0.2779
38627SOL    HW121718   5.705   4.544  10.921  0.3849  0.4015 -0.9496
38627SOL    HW221719   5.841   4.484  10.949  1.2649  1.6692 -2.3547
38628SOL     OW21720   7.964  12.287   9.713  0.3882 -0.2917  0.0230
38628SOL    HW121721   8.003  12.346   9.778 -0.4413  0.5232 -0.1978
38628SOL    HW221722   8.034  12.226   9.691  0.9634 -0.0113  1.0070
38629SOL     OW21723   7.407  11.881   1.213  0.0454  0.0986 -0.3885
38629SOL    HW121724   7.335  11.841   1.262 -1.3747  0.8797 -1.7343
38629SOL    HW221725   7.463  11.920   1.281  0.1184 -1.9193  0.7827
38630SOL     OW21726   0.209   1.347   2.843  0.4256  0.2965  0.4706
38630SOL    HW121727   0.124   1.354   2.887  0.4533 -0.2653  0.6221
38630SOL    HW221728   0.195   1.386   2.757  0.1283  0.5832  0.6473
38631SOL     OW21729   5.147   2.026   0.608  0.1890 -0.6156  0.0067
38631SOL    HW121730   5.203   2.048   0.682 -1.5274  1.6943  0.7462
38631SOL    HW221731   5.205   2.032   0.532  1.6540 -1.6110  0.9830
38632SOL     OW21732  11.986   6.437  11.032  0.4221 -0.0303 -0.0319
38632SOL    HW121733  11.896   6.465  11.018  0.4077  0.9868  1.7783
38632SOL    HW221734  11.978   6.359  11.087  0.6459 -0.0146  0.0243
38633SOL     OW21735   1.506  11.308   3.315 -0.0140 -0.2952 -0.3001
38633SOL    HW121736   1.457  11.281   3.237 -0.6622 -0.2368  0.0814
38633SOL    HW221737   1.439  11.324   3.381  0.2930  2.3419 -0.5107
38634SOL     OW21738   2.472   9.342   4.995  0.3687  0.2655  0.6280
38634SOL    HW121739   2.503   9.355   4.906  0.5871  1.6471  0.8885
38634SOL    HW221740   2.552   9.335   5.047  0.2788  1.7576  1.0129
38635SOL     OW21741   5.939   6.417  10.171  0.7815 -0.2486 -0.1546
38635SOL    HW121742   5.955   6.331  10.208 -1.3044 -0.7098 -0.1701
38635SOL    HW221743   5.859   6.406  10.119  2.2353  0.9499 -2.8602
38636SOL     OW21744   4.743   9.056   3.525 -0.3712 -0.2293  0.7373
38636SOL    HW121745   4.752   9.148   3.548  0.3602 -0.2705  0.6346
38636SOL    HW221746   4.830   9.019   3.538 -0.3340 -0.6202 -0.4919
38637SOL     OW21747   7.449   2.204  12.172 -0.4646 -0.1502 -0.0261
38637SOL    HW121748   7.515   2.256  12.126  0.0727 -0.5997  0.2153
38637SOL    HW221749   7.396   2.267  12.220 -0.5261  0.2595 -0.6188
38638SOL     OW21750   1.167   9.289   5.514  0.0408 -0.2110 -0.1891
38638SOL    HW121751   1.239   9.351   5.526 -0.6543  0.3715  1.2426
38638SOL    HW221752   1.089   9.344   5.515 -0.5533 -1.0467  0.6421
38639SOL     OW21753  11.746   0.765   5.215  0.1741  0.3335 -0.1948
38639SOL    HW121754  11.655   0.736   5.205  0.9775 -2.5353 -0.0184
38639SOL    HW221755  11.768   0.744   5.306  0.9829  1.1725 -0.1790
38640SOL     OW21756   8.135   4.040   6.660  0.3052 -0.1340  0.0318
38640SOL    HW121757   8.098   4.098   6.593  0.6673  0.7948  0.6258
38640SOL    HW221758   8.131   4.091   6.741 -2.9422 -2.2534  1.4276
38641SOL     OW21759   3.549   6.102   6.538  0.5279  0.1095  0.0722
38641SOL    HW121760   3.493   6.147   6.475  0.5379  0.0258  0.0039
38641SOL    HW221761   3.493   6.035   6.577  0.0913  1.0970  1.2050
38642SOL     OW21762   2.846   9.692   3.792  0.2119 -0.1529 -0.6164
38642SOL    HW121763   2.765   9.688   3.843  0.8252  2.0297  0.6804
38642SOL    HW221764   2.916   9.681   3.856  0.9999  2.4823 -0.9001
38643SOL     OW21765   0.694   4.328  11.335  0.5846  0.4255 -0.7842
38643SOL    HW121766   0.737   4.251  11.370  0.7412 -0.1874 -2.2569
38643SOL    HW221767   0.603   4.301  11.322  0.8287  0.1760 -2.1246
38644SOL     OW21768   9.861   0.066  10.099 -0.1666  0.0681  0.1449
38644SOL    HW121769   9.842   0.138  10.039  2.6679  1.3354  0.6181
38644SOL    HW221770   9.912   0.004  10.047  0.9774  0.4314  0.8163
38645SOL     OW21771   8.437  11.618   3.244 -0.0312  1.0204  0.6715
38645SOL    HW121772   8.439  11.603   3.149 -0.2792  1.4820  0.5905
38645SOL    HW221773   8.469  11.708   3.254 -0.9871  1.3398  0.9476
38646SOL     OW21774  11.093   7.597   1.670  0.0337  0.5349 -0.0031
38646SOL    HW121775  11.151   7.539   1.720  0.0602  2.3877  2.2924
38646SOL    HW221776  11.149   7.670   1.646 -1.0355  1.8420  1.3113
38647SOL     OW21777  11.993   0.057   8.193 -0.7718 -0.3006  0.7089
38647SOL    HW121778  12.068   0.053   8.253 -1.4094 -1.8470  1.4552
38647SOL    HW221779  12.027   0.103   8.116  0.9732 -0.9746  1.0143
38648SOL     OW21780   5.249  10.429   0.471 -0.2402  0.1747  0.0322
38648SOL    HW121781   5.189  10.422   0.545  2.3420  1.5526  2.4474
38648SOL    HW221782   5.322  10.481   0.504  1.0836  0.8746 -3.5369
38649SOL     OW21783   3.359   5.979   9.083  1.5869 -0.6455  0.1873
38649SOL    HW121784   3.359   5.885   9.067 -0.8722 -0.6801 -0.0060
38649SOL    HW221785   3.337   6.017   8.998  1.1588  0.0072  0.5814
38650SOL     OW21786   2.023  10.584  10.993 -0.3306  0.1630  0.1720
38650SOL    HW121787   1.997  10.559  11.082  1.0606  0.9494  0.8431
38650SOL    HW221788   2.103  10.534  10.977 -1.3197 -1.0662 -1.2388
38651SOL     OW21789  11.005   3.614   5.245 -0.1356 -0.0186 -0.0091
38651SOL    HW121790  10.929   3.672   5.255  0.7881  0.9132  2.5244
38651SOL    HW221791  11.066   3.664   5.191 -0.3459  0.2952  0.0381
38652SOL     OW21792   0.280   0.169  11.217 -0.2842  0.4179  0.1119
38652SOL    HW121793   0.228   0.236  11.260 -1.9777 -0.4829 -0.4578
38652SOL    HW221794   0.216   0.115  11.170  0.9954 -1.6910  0.6780
38653SOL     OW21795   2.594   1.133  10.010  0.5226  0.7793  0.3028
38653SOL    HW121796   2.606   1.146   9.916 -1.0320  0.6104  0.0560
38653SOL    HW221797   2.673   1.169  10.049  0.5537  2.2150 -0.9850
38654SOL     OW21798   1.611   6.136   0.675  0.3692  0.2205  0.0970
38654SOL    HW121799   1.564   6.102   0.751  2.2812  0.7282  1.5594
38654SOL    HW221800   1.554   6.204   0.640  0.0806  0.9856  1.9623
38655SOL     OW21801  11.916   1.926   1.065 -0.4542 -0.4298 -0.0751
38655SOL    HW121802  11.971   1.848   1.079  0.2948  0.4740  2.5351
38655SOL    HW221803  11.956   1.994   1.119 -1.5416  1.6012 -1.6716
38656SOL     OW21804   6.271   8.485   7.754 -0.1897 -0.4458 -0.7653
38656SOL    HW121805   6.182   8.475   7.788  0.2311  0.6947  0.7605
38656SOL    HW221806   6.285   8.579   7.750  1.6518 -0.5807  0.9964
38657SOL     OW21807   5.704   0.133   5.411  0.0996  0.4336 -0.0340
38657SOL    HW121808   5.744   0.168   5.332  0.6483  0.7159  0.3604
38657SOL    HW221809   5.690   0.040   5.392 -1.9258  0.9499 -1.3086
38658SOL     OW21810   8.101   6.185   8.319  0.1590  0.3095 -0.0230
38658SOL    HW121811   8.075   6.211   8.230  1.1446 -0.3918 -0.5509
38658SOL    HW221812   8.043   6.112   8.340 -1.0916  1.4303  0.5447
38659SOL     OW21813  12.084   1.952   1.922 -0.1605 -0.2860  0.0781
38659SOL    HW121814  12.130   2.028   1.959  0.5704 -0.8361  0.3108
38659SOL    HW221815  12.064   1.979   1.832 -0.3687  0.3752  0.3123
38660SOL     OW21816  11.202  11.817   8.976  0.3291  0.3209  0.5386
38660SOL    HW121817  11.115  11.847   8.999 -0.2316 -1.0679  0.3444
38660SOL    HW221818  11.204  11.820   8.880  0.3923  0.1008  0.5323
38661SOL     OW21819   2.868   3.249   5.745 -0.0902 -0.2462  0.6303
38661SOL    HW121820   2.785   3.286   5.772 -0.3311  0.5257 -1.0396
38661SOL    HW221821   2.865   3.158   5.774 -1.8810 -0.4567 -0.1080
38662SOL     OW21822   3.257   8.947   5.306 -0.9374 -0.4544  0.0324
38662SOL    HW121823   3.234   8.974   5.217 -0.3854 -0.2364 -0.0441
38662SOL    HW221824   3.212   8.863   5.317 -2.3416  0.2830  0.1330
38663SOL     OW21825   9.447   9.364   4.566  0.4680 -0.1952  0.5026
38663SOL    HW121826   9.465   9.336   4.476 -2.2697 -0.0077 -0.1946
38663SOL    HW221827   9.496   9.302   4.621 -0.5738 -2.6150 -1.0960
38664SOL     OW21828   0.178  10.824   0.693  0.3178 -0.3384  0.7119
38664SOL    HW121829   0.190  10.853   0.784  1.3374 -0.1614  0.5340
38664SOL    HW221830   0.240  10.877   0.643 -1.5098  0.9093 -0.3682
38665SOL     OW21831   8.286  10.462  11.132 -0.3552 -0.0423 -0.1182
38665SOL    HW121832   8.197  10.483  11.159 -0.6210  0.5287 -1.3592
38665SOL    HW221833   8.281  10.371  11.103 -0.4811 -0.0795  0.0151
38666SOL     OW21834   2.115  11.638   5.256  0.2694 -0.4217  0.6015
38666SOL    HW121835   2.163  11.705   5.306  3.4485 -1.6011 -0.6112
38666SOL    HW221836   2.118  11.560   5.311 -1.3645 -0.2454  0.9947
38667SOL     OW21837   6.327   9.842   0.738  0.0703 -0.5045 -0.3113
38667SOL    HW121838   6.398   9.877   0.685  0.2731 -0.8112 -0.2469
38667SOL    HW221839   6.248   9.882   0.702  0.4514  1.8835  1.2418
38668SOL     OW21840   7.139   1.818   7.050 -0.2010  0.5457 -0.1534
38668SOL    HW121841   7.168   1.884   6.987  0.2663  1.0448  0.5610
38668SOL    HW221842   7.044   1.817   7.042 -0.1752  0.9369 -0.5402
38669SOL     OW21843   8.973  10.232   1.403 -0.2539 -0.0662 -0.3007
38669SOL    HW121844   8.996  10.292   1.474 -3.4574  2.2704 -1.0029
38669SOL    HW221845   9.029  10.258   1.330 -0.0605  0.5861  0.0687
38670SOL     OW21846   4.464  10.220   8.429  0.5543  0.2217 -0.0249
38670SOL    HW121847   4.454  10.304   8.473  0.8926 -0.3433  1.1719
38670SOL    HW221848   4.550  10.188   8.456  0.3913 -0.5539 -0.3832
38671SOL     OW21849   8.402   1.795   4.662 -0.1689 -0.1495  0.5680
38671SOL    HW121850   8.445   1.880   4.665  2.5178 -1.1270 -3.0227
38671SOL    HW221851   8.419   1.756   4.748  1.1252  1.7813  1.2579
38672SOL     OW21852   2.992   3.575  11.719 -0.2584 -0.7393 -0.0161
38672SOL    HW121853   2.968   3.624  11.798 -0.8036 -1.4537  0.2760
38672SOL    HW221854   2.973   3.635  11.647  2.5891  0.8918  0.4455
38673SOL     OW21855   5.888   9.088   6.183  0.0928  0.5600 -0.4020
38673SOL    HW121856   5.934   9.016   6.139 -1.9008 -1.4804  0.6133
38673SOL    HW221857   5.801   9.090   6.142 -0.5473  1.0552  0.9013
38674SOL     OW21858   6.022  11.880   9.152 -0.1556  0.3320 -0.4664
38674SOL    HW121859   5.983  11.865   9.239  1.0090 -1.5802 -0.2226
38674SOL    HW221860   6.015  11.795   9.109  0.9485  0.7826 -1.5611
38675SOL     OW21861   9.717  11.594   3.982  0.0634 -0.2580  0.7192
38675SOL    HW121862   9.791  11.600   4.043  0.0955 -1.8177  0.8663
38675SOL    HW221863   9.648  11.551   4.032 -0.7915  0.7482  0.4259
38676SOL     OW21864   2.325   2.826  10.500  0.6564 -0.0929  0.2982
38676SOL    HW121865   2.245   2.784  10.530  0.3468  0.2825  0.0092
38676SOL    HW221866   2.334   2.800  10.408 -0.2028  1.4236 -0.2535
38677SOL     OW21867  11.659   4.886  12.109  0.7713  0.7576  0.3187
38677SOL    HW121868  11.745   4.844  12.112 -0.0907 -1.3704 -1.8262
38677SOL    HW221869  11.597   4.815  12.126 -0.7225  1.2959 -2.3019
38678SOL     OW21870   2.228   3.768   3.456 -0.4938 -0.0233  0.4345
38678SOL    HW121871   2.287   3.817   3.398 -2.4939  2.1848  0.1009
38678SOL    HW221872   2.277   3.757   3.537  1.3576 -0.7430 -0.7133
38679SOL     OW21873   8.501   9.449  10.876  0.4878  0.2427 -0.2532
38679SOL    HW121874   8.436   9.471  10.809  1.0939  2.0721 -0.3016
38679SOL    HW221875   8.501   9.353  10.880 -2.4124  0.1638 -0.0273
38680SOL     OW21876   3.129   1.938  10.542  0.2440 -0.1447 -0.5577
38680SOL    HW121877   3.069   1.994  10.493 -1.0621 -1.7256 -0.8315
38680SOL    HW221878   3.150   1.988  10.620 -2.1870  0.1117 -0.0018
38681SOL     OW21879   3.919  11.324   9.844  0.0416  0.6114  0.0234
38681SOL    HW121880   3.962  11.257   9.791 -1.1525  0.3591 -0.6558
38681SOL    HW221881   3.874  11.380   9.781  0.4038  1.6233  0.6370
38682SOL     OW21882  10.994   1.566   8.305  0.2557  0.0677  0.2677
38682SOL    HW121883  10.909   1.573   8.261  0.6412 -0.3112 -0.5464
38682SOL    HW221884  11.058   1.588   8.238  0.8608 -0.5873  0.6159
38683SOL     OW21885   7.502   6.207   5.134  0.2695 -0.4662  0.2419
38683SOL    HW121886   7.559   6.172   5.065  0.3265  0.8609 -0.4102
38683SOL    HW221887   7.519   6.151   5.210  2.3621 -0.1770  0.0366
38684SOL     OW21888   9.332   1.249   0.645 -0.4186 -0.0191  0.2617
38684SOL    HW121889   9.319   1.166   0.598 -1.1554  0.8994 -1.2455
38684SOL    HW221890   9.315   1.316   0.579  1.4923  1.3583  1.0634
38685SOL     OW21891   5.874   5.274   1.504  0.3579  0.0767 -0.1207
38685SOL    HW121892   5.799   5.321   1.541  0.0347 -1.2348  0.9713
38685SOL    HW221893   5.858   5.272   1.410  0.3848  2.1028 -0.2117
38686SOL     OW21894  10.520   7.864   8.247 -0.3271 -0.1434  0.4476
38686SOL    HW121895  10.532   7.952   8.282 -0.9009 -0.4467  1.4747
38686SOL    HW221896  10.568   7.807   8.307 -0.6703 -0.6031  0.2985
38687SOL     OW21897   4.973   1.729   6.691  0.2293  0.4713  0.2162
38687SOL    HW121898   4.984   1.638   6.660 -0.3690 -0.0900  1.5972
38687SOL    HW221899   4.922   1.771   6.622 -1.2074 -0.7954  0.4644
38688SOL     OW21900   1.498   5.996  10.258  0.0790  0.1241  0.6091
38688SOL    HW121901   1.531   6.075  10.302  0.4200  0.1288  0.3393
38688SOL    HW221902   1.412   5.981  10.299 -0.3986  1.1600  0.0276
38689SOL     OW21903   2.678   5.988  10.911 -0.5177 -0.1829  0.1289
38689SOL    HW121904   2.751   6.026  10.959 -0.1835  0.1462 -0.6310
38689SOL    HW221905   2.676   6.035  10.827 -1.2912 -0.5228 -0.0565
38690SOL     OW21906  11.600   0.597   9.228 -0.0117 -0.0272  0.2830
38690SOL    HW121907  11.582   0.546   9.307 -0.2929 -1.3281 -0.5800
38690SOL    HW221908  11.514   0.627   9.199  0.1812  1.2524  0.9551
38691SOL     OW21909  10.317  10.974   9.839  0.3001 -0.3125 -0.5628
38691SOL    HW121910  10.354  11.031   9.906 -1.1194 -1.2398  1.0764
38691SOL    HW221911  10.324  11.025   9.758  0.1092  1.7320  0.6312
38692SOL     OW21912   2.346   5.443   7.272  0.0065 -0.4048 -0.1138
38692SOL    HW121913   2.421   5.411   7.322  0.7165 -0.6106 -1.2548
38692SOL    HW221914   2.292   5.489   7.335  0.4540 -1.3497  0.9910
38693SOL     OW21915  10.736   7.954   6.255 -0.2277  0.0470  0.1481
38693SOL    HW121916  10.690   7.916   6.180  1.0751 -0.3879 -0.4584
38693SOL    HW221917  10.676   8.020   6.290 -1.7389 -1.2346  0.0424
38694SOL     OW21918   8.799   3.626   2.852  0.3474  0.1063 -0.2634
38694SOL    HW121919   8.718   3.656   2.811 -0.1128  1.7266  1.7026
38694SOL    HW221920   8.811   3.683   2.928  3.2139 -0.2337 -0.3376
38695SOL     OW21921  11.719   4.359  10.306 -0.7024  1.1966  0.2961
38695SOL    HW121922  11.717   4.352  10.402  0.8324  1.4341  0.3753
38695SOL    HW221923  11.739   4.451  10.290  0.0187  0.9615 -0.2152
38696SOL     OW21924  10.617   0.752   5.543  0.3510  0.1771  0.3597
38696SOL    HW121925  10.545   0.813   5.533 -0.6359 -0.5120  2.6195
38696SOL    HW221926  10.671   0.789   5.613  1.7341  0.2168 -0.6744
38697SOL     OW21927  10.103   2.023  12.213 -0.3406  0.2292 -0.6687
38697SOL    HW121928  10.096   2.107  12.168 -0.9640  0.6640  0.2194
38697SOL    HW221929  10.092   2.044  12.306 -2.8757 -1.0817 -0.5741
38698SOL     OW21930   8.436  12.072  11.878  0.7729 -0.1559 -0.3995
38698SOL    HW121931   8.476  12.013  11.814 -0.1439 -0.4557 -0.7087
38698SOL    HW221932   8.510  12.106  11.929  1.3315 -1.4465 -0.3170
38699SOL     OW21933   7.891   5.534   3.818  0.0440  0.6563 -0.1137
38699SOL    HW121934   7.981   5.520   3.788  0.2322  0.7199  0.4117
38699SOL    HW221935   7.876   5.464   3.883  1.3663  3.3130  3.3831
38700SOL     OW21936  11.570   8.270  11.548 -0.1518  0.3103 -0.1130
38700SOL    HW121937  11.592   8.213  11.474 -1.4788 -0.5878  0.1417
38700SOL    HW221938  11.543   8.352  11.508  0.6871  0.3910 -0.5421
38701SOL     OW21939   3.075   4.146   9.602 -0.8240  0.3967  0.7867
38701SOL    HW121940   3.158   4.133   9.557 -0.7130  0.6586  0.9160
38701SOL    HW221941   3.029   4.062   9.593 -0.1829 -0.0452  1.4698
38702SOL     OW21942  10.040   8.068   1.380  0.4415  0.1394 -0.0743
38702SOL    HW121943  10.053   8.158   1.411 -0.8487  0.3881 -0.2000
38702SOL    HW221944  10.098   8.015   1.436  3.0422  1.2368 -1.5296
38703SOL     OW21945   7.488   7.507   7.564  0.0571 -0.2711  0.8468
38703SOL    HW121946   7.396   7.484   7.552 -0.1477  0.6938  0.4699
38703SOL    HW221947   7.489   7.603   7.566  1.0931 -0.2620  0.5447
38704SOL     OW21948   5.811  11.354   5.417  0.2575 -0.0473  0.0555
38704SOL    HW121949   5.793  11.363   5.323  0.3720 -0.1285  0.0252
38704SOL    HW221950   5.831  11.261   5.428  1.0835  0.1207  0.0159
38705SOL     OW21951   6.830  10.147  11.160 -0.0994 -0.1611 -0.1219
38705SOL    HW121952   6.918  10.185  11.158  0.4131 -1.2898 -0.0771
38705SOL    HW221953   6.772  10.221  11.176  0.7106  0.8215 -1.4705
38706SOL     OW21954  10.937   8.517  11.023 -0.4866  0.2465 -0.2549
38706SOL    HW121955  10.942   8.544  11.115 -1.1361  2.5938 -0.8274
38706SOL    HW221956  10.951   8.423  11.025 -1.1682  0.1101  2.3079
38707SOL     OW21957  10.593   9.513  10.860 -0.0047 -0.4071  0.2481
38707SOL    HW121958  10.661   9.533  10.796 -1.0594  0.2945 -0.6735
38707SOL    HW221959  10.634   9.533  10.945  0.6805  0.7999 -0.3400
38708SOL     OW21960   3.937   4.848  10.222  0.5303 -0.0776  0.1506
38708SOL    HW121961   3.946   4.753  10.221 -0.4019 -0.1752  0.1307
38708SOL    HW221962   3.939   4.872  10.314 -0.2815 -0.2369  0.2181
38709SOL     OW21963   5.081   4.424  10.981  0.3854  0.0843  0.2694
38709SOL    HW121964   5.154   4.393  10.926  0.0994  1.4742 -0.9694
38709SOL    HW221965   5.107   4.513  11.006 -0.3271  0.1266  0.8728
38710SOL     OW21966   6.627   0.325  11.148 -0.0513 -0.4830  0.1842
38710SOL    HW121967   6.564   0.298  11.214  0.5575 -0.1874  0.8930
38710SOL    HW221968   6.578   0.319  11.065 -0.8828 -0.6467  0.6721
38711SOL     OW21969   3.851   0.695   8.139  0.3022  0.2122 -0.5825
38711SOL    HW121970   3.758   0.703   8.160  0.1144  1.6258 -1.8086
38711SOL    HW221971   3.865   0.601   8.128 -0.5236 -0.2041  1.4677
38712SOL     OW21972   7.972   1.939   1.039 -0.5907 -0.7539 -0.4033
38712SOL    HW121973   7.981   2.001   1.112  3.1338 -1.6681  0.1164
38712SOL    HW221974   7.988   1.992   0.961  0.1107 -0.5793 -0.1516
38713SOL     OW21975   6.421  11.347  11.513  0.8159 -0.6693 -1.1053
38713SOL    HW121976   6.500  11.395  11.538 -0.1670 -0.2202  1.3850
38713SOL    HW221977   6.418  11.355  11.418  2.9841  0.5266 -1.1450
38714SOL     OW21978   9.510   4.240   4.690 -0.3685 -0.2203 -0.2501
38714SOL    HW121979   9.477   4.330   4.690  1.3196  0.4544 -0.0356
38714SOL    HW221980   9.434   4.186   4.670 -1.6954  1.1469  0.8191
38715SOL     OW21981  12.275  11.998   9.284 -0.6518 -0.2874 -0.0285
38715SOL    HW121982  12.190  12.036   9.264 -1.5778 -0.7717  2.6416
38715SOL    HW221983  12.262  11.904   9.277 -0.4692 -0.3820  0.7394
38716SOL     OW21984   5.058   7.753  11.616  0.6530  0.0058 -0.4837
38716SOL    HW121985   5.037   7.844  11.639 -0.9230 -0.4507  0.0191
38716SOL    HW221986   5.013   7.738  11.533 -0.8709 -0.8971  0.4473
38717SOL     OW21987   6.276   3.801   7.329 -0.5696 -0.0887 -0.5978
38717SOL    HW121988   6.223   3.755   7.393  0.0543  0.3792  0.2673
38717SOL    HW221989   6.248   3.765   7.244 -0.1761 -1.9517  0.0273
38718SOL     OW21990   9.798   3.006   6.477 -0.1180 -0.0557  0.0081
38718SOL    HW121991   9.873   3.060   6.454  0.3883 -1.2307 -1.2207
38718SOL    HW221992   9.755   2.988   6.393 -1.3929  0.0312  0.6192
38719SOL     OW21993   2.952   8.472   3.638  0.2426 -0.3362  0.0410
38719SOL    HW121994   2.987   8.545   3.585  1.5896 -0.4633  0.6932
38719SOL    HW221995   2.999   8.395   3.607  0.5465 -0.5274  0.9295
38720SOL     OW21996   0.060   7.033   2.001 -0.3006 -0.0331 -0.3947
38720SOL    HW121997   0.059   6.993   2.088  1.4674 -1.2684 -0.8992
38720SOL    HW221998  -0.021   7.084   1.998 -0.0028  0.7702  2.2843
38721SOL     OW21999   7.221   9.648   0.474 -0.4387 -0.3052  0.1356
38721SOL    HW122000   7.144   9.699   0.496 -0.5741 -0.0244 -0.9342
38721SOL    HW222001   7.191   9.586   0.407  0.2933 -0.0793 -0.4145
38722SOL     OW22002   6.923   5.553  10.556 -0.3709 -0.2196  0.2067
38722SOL    HW122003   6.890   5.470  10.590 -0.0223  0.4163  2.2928
38722SOL    HW222004   6.858   5.582  10.493 -0.6511 -1.9083 -0.3148
38723SOL     OW22005   7.906   0.410   5.633 -0.4658 -0.2823  0.0074
38723SOL    HW122006   7.811   0.414   5.639 -0.4153 -0.3636  0.9486
38723SOL    HW222007   7.923   0.382   5.543 -1.3041  0.4201 -0.3844
38724SOL     OW22008  10.894   0.122   4.084 -0.4776 -0.1131  0.1088
38724SOL    HW122009  10.906   0.028   4.075  0.3108  0.0380 -0.5262
38724SOL    HW222010  10.982   0.159   4.070 -1.0760  0.8251 -1.3225
38725SOL     OW22011  11.465   1.510  10.772 -0.0394 -0.2906  0.6613
38725SOL    HW122012  11.372   1.490  10.765  0.2059 -1.2163 -0.2601
38725SOL    HW222013  11.496   1.452  10.842  0.2992 -1.8308 -0.7111
38726SOL     OW22014   9.895   8.766   8.186  0.1552 -0.3000  0.0300
38726SOL    HW122015   9.822   8.770   8.124 -0.3750  0.4185  0.6896
38726SOL    HW222016   9.854   8.762   8.272  0.8669  1.7996  0.5130
38727SOL     OW22017   3.755   9.389   7.563  0.0673  0.1351 -0.4325
38727SOL    HW122018   3.819   9.437   7.616 -1.8732  2.6308 -0.1986
38727SOL    HW222019   3.755   9.301   7.601 -0.2213  1.4289  2.8871
38728SOL     OW22020  10.723   3.115   5.169 -0.3619 -0.6118 -0.3910
38728SOL    HW122021  10.785   3.095   5.099 -1.5668  0.2854 -1.7794
38728SOL    HW222022  10.773   3.103   5.250  2.2628  2.0110 -1.4517
38729SOL     OW22023   5.554   9.715   2.436 -0.2404 -0.0755  0.4225
38729SOL    HW122024   5.464   9.711   2.404 -0.3377  0.6980  0.5727
38729SOL    HW222025   5.546   9.727   2.531 -0.0185  1.4414  0.2751
38730SOL     OW22026   3.954   2.397  10.365  0.1725 -1.0327  0.0998
38730SOL    HW122027   3.888   2.450  10.410  1.6238  1.1786 -0.2172
38730SOL    HW222028   3.973   2.325  10.425  0.4862  0.6391  2.0921
38731SOL     OW22029   7.340  10.901  12.148  0.0689 -0.3430 -0.8460
38731SOL    HW122030   7.359  10.813  12.182 -1.5715  0.0391  1.2588
38731SOL    HW222031   7.425  10.946  12.149  0.4387 -1.0127  0.8404
38732SOL     OW22032   3.087   1.624   3.545  0.0091  0.0437  0.4669
38732SOL    HW122033   3.057   1.607   3.455  1.7898  1.8580 -0.5629
38732SOL    HW222034   3.022   1.684   3.581 -0.3242 -0.0978  0.1103
38733SOL     OW22035   4.210   5.735   8.289 -0.0678  0.0229  0.5495
38733SOL    HW122036   4.305   5.743   8.299  0.1895 -1.4146 -0.4606
38733SOL    HW222037   4.184   5.667   8.350 -0.0758 -1.1576 -0.7057
38734SOL     OW22038  10.288  10.212   7.634  0.2336 -0.2167  0.2305
38734SOL    HW122039  10.207  10.240   7.592 -0.1223 -2.0232 -0.3560
38734SOL    HW222040  10.260  10.162   7.711  0.7937 -0.4666  0.2849
38735SOL     OW22041   9.559   7.624   3.935 -0.3301  0.2684  0.6633
38735SOL    HW122042   9.638   7.656   3.980 -0.7428  1.7579  0.3832
38735SOL    HW222043   9.572   7.647   3.844  0.5419 -2.8367 -0.1192
38736SOL     OW22044  11.424   2.857   3.129 -0.1875  0.2362  0.3011
38736SOL    HW122045  11.511   2.896   3.116 -0.1994  0.0952 -0.2408
38736SOL    HW222046  11.380   2.917   3.189  0.8693 -0.5847  1.9586
38737SOL     OW22047   1.965   6.585  11.913 -0.1645  0.5447  0.2232
38737SOL    HW122048   1.949   6.616  12.002 -1.7114  0.4370  0.0227
38737SOL    HW222049   2.056   6.557  11.912  0.5064  2.5237  1.1708
38738SOL     OW22050   6.470   4.615   1.734  0.1568 -0.2889 -0.1232
38738SOL    HW122051   6.400   4.608   1.799 -1.8599 -1.7302 -2.3137
38738SOL    HW222052   6.504   4.526   1.725 -0.7743 -0.4950 -2.1908
38739SOL     OW22053   8.698   4.088   0.243 -0.2534  0.1499 -0.0562
38739SOL    HW122054   8.786   4.068   0.211 -0.2795 -0.4807  0.2332
38739SOL    HW222055   8.690   4.036   0.324 -0.6991  0.6090  0.2007
38740SOL     OW22056  11.758   1.331   5.544  0.5954  0.3930 -0.0542
38740SOL    HW122057  11.668   1.310   5.518  0.1706  0.9815  0.8856
38740SOL    HW222058  11.751   1.356   5.636  1.3028  3.0990 -0.6603
38741SOL     OW22059  10.079   9.464   6.523  0.4758 -0.1382 -0.2133
38741SOL    HW122060  10.010   9.529   6.513 -0.3421 -0.8009  0.8896
38741SOL    HW222061  10.157   9.514   6.547 -0.2596  0.4039  1.1062
38742SOL     OW22062   6.856   1.765  11.549  0.2659  0.4187 -0.1756
38742SOL    HW122063   6.878   1.848  11.592  1.2749  0.6593 -1.1097
38742SOL    HW222064   6.924   1.704  11.577  0.4522  0.3537 -0.7513
38743SOL     OW22065   3.450   8.895   8.104 -0.6768 -0.0507 -0.2243
38743SOL    HW122066   3.419   8.846   8.180 -3.4107 -0.0715 -1.2322
38743SOL    HW222067   3.447   8.987   8.133 -1.1894 -0.0964 -0.1094
38744SOL     OW22068  12.040   2.673   4.663 -0.6321 -0.2289 -0.3591
38744SOL    HW122069  12.083   2.635   4.739 -2.4805 -1.1206  0.2863
38744SOL    HW222070  12.057   2.610   4.592  0.4531  0.2315 -0.5265
38745SOL     OW22071   5.231  11.756   6.610 -0.2222 -0.1545  0.2110
38745SOL    HW122072   5.168  11.684   6.614  0.8950 -1.1283  1.0070
38745SOL    HW222073   5.313  11.714   6.584  0.6259  0.7046  1.3930
38746SOL     OW22074   5.106  12.101   3.735 -0.6074 -0.2542  0.2559
38746SOL    HW122075   5.028  12.156   3.745  0.7707  1.8858 -0.0401
38746SOL    HW222076   5.176  12.163   3.714  1.0885 -2.1516  0.0347
38747SOL     OW22077   0.496   9.443   0.209 -0.0054 -0.5147  0.6477
38747SOL    HW122078   0.491   9.480   0.297 -1.1191 -1.2289  0.9060
38747SOL    HW222079   0.431   9.492   0.159  0.0943 -0.6198  0.4125
38748SOL     OW22080   3.020   1.733   7.972 -0.9981 -0.0915  0.4215
38748SOL    HW122081   2.976   1.817   7.974  0.4733  0.7145  0.4779
38748SOL    HW222082   2.968   1.677   8.031 -0.7833  1.4150  2.1179
38749SOL     OW22083   2.669  12.016   8.739 -0.4967  0.2048 -0.3451
38749SOL    HW122084   2.608  12.035   8.810 -0.6809 -0.6105 -0.2811
38749SOL    HW222085   2.678  12.100   8.693 -0.1406  0.8262  0.8033
38750SOL     OW22086   6.729   9.407   4.867 -0.4771  0.0962  0.1588
38750SOL    HW122087   6.785   9.476   4.830 -1.3751  1.9558  2.0748
38750SOL    HW222088   6.724   9.428   4.960 -3.4256 -0.6510  0.2383
38751SOL     OW22089   8.159   1.235   6.694 -0.0756 -0.0418  0.6071
38751SOL    HW122090   8.242   1.281   6.681 -0.0476  0.1675  1.4690
38751SOL    HW222091   8.179   1.168   6.760 -0.1977 -1.0914 -0.3765
38752SOL     OW22092   4.064   6.225   9.598 -0.0736 -0.4925  0.1980
38752SOL    HW122093   4.089   6.316   9.618  1.6846 -1.2834  1.9843
38752SOL    HW222094   3.968   6.226   9.597 -0.0953  1.4980 -0.5038
38753SOL     OW22095  10.048   4.724   6.620  0.3041  0.0781 -0.5212
38753SOL    HW122096   9.976   4.730   6.557  0.3152 -0.9566 -0.6439
38753SOL    HW222097  10.022   4.653   6.679  0.2221  1.1348  0.7526
38754SOL     OW22098   8.811  12.181   3.677  0.4902  0.0082 -0.1491
38754SOL    HW122099   8.722  12.214   3.671  1.2667  2.3050  0.0911
38754SOL    HW222100   8.808  12.095   3.635 -1.7926  0.0766 -0.2201
38755SOL     OW22101   7.992   0.965   4.634 -0.0337  0.4432 -0.5299
38755SOL    HW122102   8.018   0.882   4.595 -0.6962 -0.1934  0.3530
38755SOL    HW222103   8.075   1.012   4.646  0.2956  0.1293 -1.4994
38756SOL     OW22104   4.268  12.097  11.758  0.2062 -0.1600  0.7096
38756SOL    HW122105   4.264  12.073  11.665 -2.2412 -1.5638  1.0954
38756SOL    HW222106   4.258  12.192  11.758  2.4400  0.1500 -0.5070
38757SOL     OW22107   9.206   1.236  10.196  0.2507  0.0160  0.2062
38757SOL    HW122108   9.271   1.275  10.255  2.2571 -1.0831 -1.1356
38757SOL    HW222109   9.259   1.191  10.130 -1.9240 -0.3413 -1.3744
38758SOL     OW22110   6.774   6.296  12.204  0.3412  0.6868  0.1884
38758SOL    HW122111   6.727   6.268  12.125 -1.3844  3.4244  0.1207
38758SOL    HW222112   6.721   6.263  12.276 -0.4207  1.7497  0.1312
38759SOL     OW22113   4.141   9.701   7.662 -0.0300  0.4273 -0.2830
38759SOL    HW122114   4.143   9.765   7.732 -3.3077 -1.6713  2.0171
38759SOL    HW222115   4.164   9.618   7.704  0.3446 -0.5643 -2.2953
38760SOL     OW22116   6.584   1.251  11.190  0.3087 -0.1517  0.2297
38760SOL    HW122117   6.489   1.265  11.182  0.1253  0.2464  2.4049
38760SOL    HW222118   6.596   1.222  11.280  2.3111  0.1115  0.0903
38761SOL     OW22119   1.590   4.601   0.387  0.0758 -0.4486  0.0109
38761SOL    HW122120   1.552   4.580   0.472 -1.2620  0.4287 -0.3490
38761SOL    HW222121   1.682   4.575   0.395  0.0788 -0.0090  1.8562
38762SOL     OW22122   9.929   4.246   7.456  0.6913 -0.3899  0.5445
38762SOL    HW122123   9.839   4.219   7.436  0.4318  0.4375  0.5478
38762SOL    HW222124   9.951   4.309   7.388  1.4038 -0.8472  0.3420
38763SOL     OW22125   7.639  11.789   8.669 -0.3843  0.0985  0.4268
38763SOL    HW122126   7.603  11.827   8.589  0.9080  0.1743 -0.1448
38763SOL    HW222127   7.618  11.853   8.737 -1.0774  0.2595  0.0672
38764SOL     OW22128   9.965   4.148   0.554  0.2589  0.1008 -0.1167
38764SOL    HW122129  10.028   4.108   0.614  0.0667  0.5963  0.4175
38764SOL    HW222130   9.905   4.077   0.532  2.7829 -1.3547 -3.2098
38765SOL     OW22131   7.069  11.477  10.622 -0.6005 -0.0901  0.3182
38765SOL    HW122132   7.104  11.450  10.708 -0.5911 -0.3141  0.2453
38765SOL    HW222133   7.120  11.554  10.599  0.6082 -1.0417 -0.2891
38766SOL     OW22134   9.561   9.978   4.693  0.0823 -0.5850 -0.8134
38766SOL    HW122135   9.557   9.883   4.710 -0.4876 -0.9990 -2.9633
38766SOL    HW222136   9.498   9.992   4.622  1.6352  1.0795 -1.9482
38767SOL     OW22137   5.238   1.591   4.924  0.1286  0.3214 -0.1082
38767SOL    HW122138   5.287   1.510   4.938 -0.3955 -0.5281 -2.6840
38767SOL    HW222139   5.294   1.660   4.961  2.0676 -0.8887 -0.6451
38768SOL     OW22140   3.182  12.138   4.281 -0.2062 -0.1112 -0.7556
38768SOL    HW122141   3.189  12.234   4.288 -1.2069 -0.0298 -0.7389
38768SOL    HW222142   3.220  12.105   4.362 -3.5956  0.4561  1.2312
38769SOL     OW22143   9.504   2.637   1.273 -0.2971 -0.0247 -0.6462
38769SOL    HW122144   9.544   2.704   1.328  1.1322 -0.8449 -0.6234
38769SOL    HW222145   9.542   2.555   1.304 -1.9713 -0.8603 -0.6988
38770SOL     OW22146  11.901   4.218   7.420 -0.0167 -0.2032 -0.5140
38770SOL    HW122147  11.920   4.284   7.353 -0.0347 -1.7906 -2.1888
38770SOL    HW222148  11.806   4.209   7.418 -0.0509  0.0550  0.0375
38771SOL     OW22149   7.754   5.454   9.978  0.2387  0.0703  0.1818
38771SOL    HW122150   7.768   5.391  10.049 -1.3162 -0.5978 -0.0520
38771SOL    HW222151   7.806   5.530  10.003  2.0901 -1.2299  0.5380
38772SOL     OW22152  11.320   3.011   8.306  0.2222  0.3711 -0.7523
38772SOL    HW122153  11.241   2.960   8.289  0.0047  1.0790 -1.9334
38772SOL    HW222154  11.372   3.004   8.226  0.6843  1.1105 -0.5290
38773SOL     OW22155   4.251   1.497   5.302  0.4455  0.4021  0.1380
38773SOL    HW122156   4.202   1.550   5.365  2.2565  0.1542  1.8577
38773SOL    HW222157   4.319   1.454   5.354  1.5055 -0.5057 -1.8606
38774SOL     OW22158  10.554   0.704   0.861 -0.2787 -0.3789  0.6799
38774SOL    HW122159  10.524   0.737   0.776 -1.6518 -0.3711  1.1378
38774SOL    HW222160  10.484   0.647   0.891  0.2166 -0.4375  1.7833
38775SOL     OW22161   4.411  10.035  10.968  0.1075 -0.3898 -0.2986
38775SOL    HW122162   4.344   9.968  10.980 -0.6494  0.4988  0.5567
38775SOL    HW222163   4.429  10.035  10.874 -0.9653 -0.7689 -0.5048
38776SOL     OW22164   2.455   1.635   3.857 -0.1840  0.4727  0.1530
38776SOL    HW122165   2.405   1.636   3.776  0.8256  0.0340 -0.4999
38776SOL    HW222166   2.467   1.542   3.877 -0.2678  0.5776  0.7060
38777SOL     OW22167   4.840   0.623   8.289 -0.2104 -0.0821 -0.1172
38777SOL    HW122168   4.897   0.552   8.258 -1.1103 -0.9106  0.0948
38777SOL    HW222169   4.899   0.698   8.297  0.6850 -0.6896 -0.7284
38778SOL     OW22170   1.549   8.142   2.383 -0.2552  0.0886 -0.0104
38778SOL    HW122171   1.553   8.231   2.419  0.1043  0.0283  0.1048
38778SOL    HW222172   1.628   8.099   2.416  0.4065  0.2164 -1.3387
38779SOL     OW22173  10.942   3.746   0.683 -0.3724  0.2117  0.2667
38779SOL    HW122174  10.917   3.668   0.732 -0.8652 -0.2016 -0.6359
38779SOL    HW222175  10.865   3.803   0.687  0.7293  1.7237  2.9144
38780SOL     OW22176   8.677   7.646   8.920 -0.1531 -0.4578  0.6138
38780SOL    HW122177   8.636   7.599   8.847  0.7462 -2.4833  1.3469
38780SOL    HW222178   8.645   7.601   8.998  1.7155 -0.6655  1.3004
38781SOL     OW22179   1.594   7.562   6.544 -0.7165  0.4054 -0.0034
38781SOL    HW122180   1.657   7.620   6.587 -0.7662 -0.4058  1.1857
38781SOL    HW222181   1.630   7.550   6.456  0.9067 -0.1815  0.7024
38782SOL     OW22182   6.274  10.169  12.288 -0.2409 -0.4775 -0.0211
38782SOL    HW122183   6.212  10.238  12.311 -0.9779 -0.8919 -0.6830
38782SOL    HW222184   6.344  10.215  12.242 -0.9977 -0.2078 -0.9596
38783SOL     OW22185   6.508   6.962   0.519  0.4680  0.1192 -0.7734
38783SOL    HW122186   6.436   6.966   0.455  0.9781  1.0241 -1.3163
38783SOL    HW222187   6.530   7.054   0.536  0.2579 -0.0910  0.8295
38784SOL     OW22188   3.266  11.489   8.786  0.1513  0.1840  0.2247
38784SOL    HW122189   3.230  11.450   8.707 -0.2440  0.2942  0.3492
38784SOL    HW222190   3.346  11.534   8.757  0.4322 -0.4334  0.0275
38785SOL     OW22191   7.658   8.961   7.220  0.9007 -0.0371  0.8191
38785SOL    HW122192   7.677   8.983   7.129 -1.2705  0.1988  0.3761
38785SOL    HW222193   7.616   8.875   7.215 -0.4800  0.5724  1.4215
38786SOL     OW22194   0.970   9.714   5.615 -0.3620  0.4399 -0.8357
38786SOL    HW122195   0.888   9.685   5.574  0.1370 -0.4741 -1.2015
38786SOL    HW222196   0.990   9.797   5.571 -2.5123  2.1731  1.1653
38787SOL     OW22197   9.550   3.185   1.893  0.1601  0.0268 -0.0443
38787SOL    HW122198   9.535   3.095   1.924  0.4919  0.3751  1.2055
38787SOL    HW222199   9.606   3.224   1.960 -0.4441  1.3511 -0.2781
38788SOL     OW22200  10.935   1.554   9.145  0.0632  0.4067  0.2379
38788SOL    HW122201  10.966   1.540   9.056  0.8079  1.6870  0.2673
38788SOL    HW222202  10.841   1.538   9.140  0.5431 -3.1743  0.0607
38789SOL     OW22203   5.360   8.175   2.851 -0.5901 -0.6522  0.0318
38789SOL    HW122204   5.297   8.134   2.910 -1.6078 -0.3432 -0.8245
38789SOL    HW222205   5.442   8.129   2.868 -1.2436 -1.6638  0.5290
38790SOL     OW22206   7.331   2.193   0.236 -0.5557  0.0933  0.6951
38790SOL    HW122207   7.350   2.123   0.173  0.4510  0.2395  0.8231
38790SOL    HW222208   7.324   2.272   0.182  0.5925  0.2666  0.7833
38791SOL     OW22209   1.825  10.417   5.407  0.8076 -0.4668  0.0714
38791SOL    HW122210   1.775  10.348   5.363  2.3548 -1.2094 -0.5983
38791SOL    HW222211   1.780  10.429   5.491 -1.0397 -0.3972 -0.8768
38792SOL     OW22212   6.446   8.072   6.236 -0.4395 -0.1156 -0.0043
38792SOL    HW122213   6.429   8.136   6.166 -0.6219  1.4259  1.3942
38792SOL    HW222214   6.456   8.125   6.315 -0.1353 -1.8071  1.1370
38793SOL     OW22215   2.242   4.039   9.694  0.4059  0.6007  0.4384
38793SOL    HW122216   2.254   4.022   9.600 -2.2242  0.5285  0.0208
38793SOL    HW222217   2.218   4.132   9.699 -1.4823  0.1464  0.7331
38794SOL     OW22218  10.204  10.369   1.830  0.1118  0.1538 -0.4103
38794SOL    HW122219  10.119  10.396   1.795  0.4971 -0.6018 -2.0390
38794SOL    HW222220  10.245  10.320   1.758  0.9755 -1.4815  1.1185
38795SOL     OW22221   7.682   1.216   0.061 -0.7852 -0.5030  0.1025
38795SOL    HW122222   7.756   1.169   0.101  0.1739  0.9593  0.0912
38795SOL    HW222223   7.605   1.180   0.106  0.0367 -1.0137  1.1483
38796SOL     OW22224   8.956  12.248   7.227  0.0390  0.1990  0.0117
38796SOL    HW122225   9.031  12.205   7.269 -0.1891 -0.3191 -0.1025
38796SOL    HW222226   8.887  12.181   7.227 -0.3422  0.5881 -0.1131
38797SOL     OW22227  11.853  10.895   1.697 -0.3073 -0.5206  0.6203
38797SOL    HW122228  11.807  10.811   1.699  0.4986 -1.0521 -1.0536
38797SOL    HW222229  11.946  10.872   1.689 -0.1969  0.4132 -2.1730
38798SOL     OW22230  10.623   3.326   6.306 -0.0869 -0.1351  0.1169
38798SOL    HW122231  10.626   3.237   6.339 -0.4265 -0.1513  0.1100
38798SOL    HW222232  10.712   3.359   6.317  0.2652 -0.7753 -0.7077
38799SOL     OW22233   5.567   9.691   5.559 -0.4591  0.4118  0.4591
38799SOL    HW122234   5.601   9.613   5.515 -0.1672 -0.5776  2.3652
38799SOL    HW222235   5.606   9.764   5.510  0.1016 -0.6279 -0.7038
38800SOL     OW22236   7.472   0.469   3.982  0.4224 -0.4221 -0.1152
38800SOL    HW122237   7.444   0.462   4.074 -1.6027  2.0779 -0.4365
38800SOL    HW222238   7.530   0.394   3.970  0.4411 -1.0999  3.0772
38801SOL     OW22239   9.088   7.973  10.673  0.6932  0.1530 -0.3609
38801SOL    HW122240   9.172   8.003  10.637  0.2940 -0.4132 -1.8388
38801SOL    HW222241   9.044   7.932  10.599 -1.0022  0.6546  0.3240
38802SOL     OW22242   2.686   8.659  11.900  0.1005 -0.3967  0.1640
38802SOL    HW122243   2.671   8.739  11.949 -0.9738 -0.6938  0.3521
38802SOL    HW222244   2.744   8.607  11.955  1.2633  0.4793 -0.2218
38803SOL     OW22245   2.827   6.430   5.621  0.6569 -0.5258 -0.5779
38803SOL    HW122246   2.819   6.441   5.527 -0.3763  0.9055 -0.3602
38803SOL    HW222247   2.792   6.342   5.638 -1.1335 -0.0000 -1.3329
38804SOL     OW22248   4.329   3.018  11.913  0.4851  0.1349  0.1447
38804SOL    HW122249   4.351   2.930  11.883 -0.8662 -0.6425  1.3272
38804SOL    HW222250   4.396   3.039  11.978 -0.3946 -0.9502  1.4589
38805SOL     OW22251   0.162   3.034   3.001 -0.2628 -0.7644 -0.3319
38805SOL    HW122252   0.150   3.072   2.914 -2.3061  0.4211  0.3899
38805SOL    HW222253   0.178   3.109   3.058 -0.7987 -1.3293  0.5841
38806SOL     OW22254  10.881   1.955   7.687 -0.3633 -0.1566 -0.2659
38806SOL    HW122255  10.854   1.897   7.758  1.6953  0.1213  0.8232
38806SOL    HW222256  10.830   2.035   7.701 -0.7780 -0.5026  0.2368
38807SOL     OW22257   5.501  10.531   3.288  0.4350 -0.2039 -0.4600
38807SOL    HW122258   5.519  10.440   3.313 -1.2139 -0.6483 -0.7240
38807SOL    HW222259   5.544  10.583   3.356  1.2233 -1.1870 -0.1760
38808SOL     OW22260   3.494   4.252  10.718 -0.2358 -0.0879 -0.5899
38808SOL    HW122261   3.479   4.323  10.780 -4.8062 -0.7392 -0.6263
38808SOL    HW222262   3.511   4.175  10.773  2.7238  0.4642 -0.5245
38809SOL     OW22263   8.471  12.317   6.396 -0.2902  0.2330  0.0810
38809SOL    HW122264   8.428  12.262   6.461  0.0703  0.3624  0.4378
38809SOL    HW222265   8.421  12.305   6.316  0.5570 -1.6405 -0.2068
38810SOL     OW22266  10.883   0.536  11.821 -0.3242 -0.0286  0.3413
38810SOL    HW122267  10.842   0.499  11.899  0.4367 -1.3359  0.1587
38810SOL    HW222268  10.875   0.466  11.755  1.5533 -0.0597  0.0997
38811SOL     OW22269  10.343   8.028   3.607 -0.1469  0.3155  0.0358
38811SOL    HW122270  10.432   8.032   3.572 -0.2379  1.0490 -0.1426
38811SOL    HW222271  10.346   8.083   3.686  0.0890 -1.4173  1.2913
38812SOL     OW22272  10.408   1.034   2.572  0.4270 -0.8743  0.1459
38812SOL    HW122273  10.356   1.077   2.639  0.1401  0.1138 -0.6959
38812SOL    HW222274  10.346   0.979   2.524  0.7603 -2.1487  1.1076
38813SOL     OW22275   9.060   8.922  11.517  0.3631  0.0691 -0.1727
38813SOL    HW122276   9.021   9.005  11.488 -0.5162 -0.6426 -1.1316
38813SOL    HW222277   8.986   8.874  11.556  0.5292 -0.8228 -0.9202
38814SOL     OW22278   6.318   8.548   1.690  0.3626  0.3002 -0.6097
38814SOL    HW122279   6.380   8.477   1.674 -0.6865 -0.5155 -1.1119
38814SOL    HW222280   6.242   8.506   1.730 -1.8325  0.4702 -4.1984
38815SOL     OW22281   3.462   2.238   5.685 -0.0567  0.1968 -0.0756
38815SOL    HW122282   3.546   2.194   5.673 -0.5192 -0.9190  0.5674
38815SOL    HW222283   3.427   2.247   5.597 -0.5117 -1.9212 -0.1695
38816SOL     OW22284   4.948   0.067   7.200 -0.2356  0.1731 -0.4060
38816SOL    HW122285   4.881   0.015   7.156 -1.2513  1.7252 -0.7979
38816SOL    HW222286   4.936   0.048   7.293 -0.6326 -0.2313 -0.5356
38817SOL     OW22287   5.747   4.199   9.285 -0.2906 -0.4405 -0.0616
38817SOL    HW122288   5.802   4.173   9.359 -1.5665  0.6280  1.3460
38817SOL    HW222289   5.673   4.138   9.289 -0.1436 -0.6670 -0.7549
38818SOL     OW22290   9.705  10.901   9.272 -0.1175  0.2848  0.2467
38818SOL    HW122291   9.647  10.928   9.342  1.5983  0.3195  1.7165
38818SOL    HW222292   9.788  10.946   9.290  1.9082 -3.3952  1.0351
38819SOL     OW22293   4.956   2.660   4.709 -0.5833 -0.5305 -0.2509
38819SOL    HW122294   4.945   2.602   4.634 -2.1260  0.5871 -0.9249
38819SOL    HW222295   5.014   2.611   4.769 -1.8634 -2.7737 -0.7492
38820SOL     OW22296  10.984   0.094   7.884  0.9011  0.1226 -0.1495
38820SOL    HW122297  11.072   0.098   7.920  0.7340 -0.0278  0.2732
38820SOL    HW222298  10.939   0.169   7.922  1.2139  0.9791 -1.3759
38821SOL     OW22299   6.726   7.285  10.633 -0.0683  0.0479 -0.2191
38821SOL    HW122300   6.634   7.263  10.646 -0.7748  2.3926 -0.7580
38821SOL    HW222301   6.743   7.355  10.697  0.6848  1.1470 -1.5616
38822SOL     OW22302   7.728   3.671   0.042 -0.5586 -0.2024  0.0376
38822SOL    HW122303   7.784   3.697   0.116 -1.0123 -0.3380  0.4358
38822SOL    HW222304   7.739   3.576   0.037 -0.6333 -0.2096  0.0157
38823SOL     OW22305   4.043   5.960   2.901  0.5527 -0.4200 -0.2738
38823SOL    HW122306   4.114   6.019   2.876  1.0202  0.4792  2.7533
38823SOL    HW222307   4.076   5.872   2.883  0.9123  0.0890 -2.3347
38824SOL     OW22308  10.291  11.347   6.828  0.0562 -0.3761  0.1121
38824SOL    HW122309  10.287  11.405   6.905 -1.0205  2.2117 -1.7513
38824SOL    HW222310  10.337  11.269   6.860  1.7272  1.5092  2.7791
38825SOL     OW22311   2.707   0.170  10.873 -0.7485 -0.3246  0.7032
38825SOL    HW122312   2.795   0.195  10.844 -1.3062 -1.2327 -1.9762
38825SOL    HW222313   2.723   0.127  10.958  1.3568 -0.2703  0.4041
38826SOL     OW22314  12.249  11.749  10.961 -0.0467  0.7594 -0.4119
38826SOL    HW122315  12.183  11.781  11.022 -0.0800  1.5185 -0.8397
38826SOL    HW222316  12.243  11.654  10.967 -0.6584  0.8271  0.1102
38827SOL     OW22317   1.904   7.049   3.271 -0.4710 -0.0534  0.0373
38827SOL    HW122318   1.951   6.989   3.328 -0.3505 -0.7640 -0.7768
38827SOL    HW222319   1.942   7.135   3.289 -0.5367 -0.2370  1.1101
38828SOL     OW22320   1.462   3.981   3.672  0.9189 -0.9767  0.0584
38828SOL    HW122321   1.464   4.042   3.745 -2.2127 -0.3078 -0.2801
38828SOL    HW222322   1.500   4.030   3.599  0.1388 -0.0754  0.2378
38829SOL     OW22323  11.886   8.214   3.849  0.1379 -0.2228 -0.2105
38829SOL    HW122324  11.863   8.223   3.756 -1.5156 -2.1201 -0.0558
38829SOL    HW222325  11.808   8.245   3.895  0.5676 -0.2534  0.5427
38830SOL     OW22326   1.398   4.270   0.983 -0.7476  0.5716  0.4894
38830SOL    HW122327   1.331   4.289   0.917 -1.8018 -1.9348  0.6981
38830SOL    HW222328   1.352   4.219   1.049  0.8980  0.7344  1.8207
38831SOL     OW22329   4.179   8.548   6.545 -0.1909 -0.0349 -0.3248
38831SOL    HW122330   4.091   8.510   6.537  0.0990 -0.7948 -0.0661
38831SOL    HW222331   4.207   8.563   6.455 -0.0014 -1.2172 -0.4861
38832SOL     OW22332   6.440   8.211   2.244 -0.6078  0.2402 -0.2714
38832SOL    HW122333   6.405   8.236   2.158  0.4805  2.9377 -0.0342
38832SOL    HW222334   6.535   8.205   2.230 -0.5449 -0.5948  0.4739
38833SOL     OW22335   0.945   3.531  11.070  0.0638 -0.0194  0.3476
38833SOL    HW122336   0.993   3.454  11.042 -0.5655  0.4930 -2.5211
38833SOL    HW222337   1.008   3.603  11.062 -0.5719  0.3839 -1.6514
38834SOL     OW22338   7.757   3.059   4.948 -0.1587 -0.2557 -0.0392
38834SOL    HW122339   7.724   2.970   4.964 -1.2110  0.0783 -0.3308
38834SOL    HW222340   7.829   3.068   5.011  0.6595 -1.6826 -0.7042
38835SOL     OW22341   7.468   1.961   8.459 -0.0869  0.3857 -0.2038
38835SOL    HW122342   7.423   2.030   8.508  1.7022  1.2120  0.3568
38835SOL    HW222343   7.501   2.005   8.380  0.2001 -0.0619 -0.3346
38836SOL     OW22344  11.651   0.933  11.811  0.0305 -0.3172 -0.2904
38836SOL    HW122345  11.642   0.978  11.895 -0.6160 -0.1492 -0.4437
38836SOL    HW222346  11.583   0.866  11.811 -0.6320  0.3369 -1.0877
38837SOL     OW22347   7.567   2.819   3.786 -0.0003  0.7508 -0.0702
38837SOL    HW122348   7.661   2.806   3.798  0.1181  0.4607 -1.2647
38837SOL    HW222349   7.556   2.914   3.786  0.4562  0.8110 -1.0817
38838SOL     OW22350   9.123   7.325   6.606  0.1789  0.4093  0.4432
38838SOL    HW122351   9.108   7.238   6.644  1.8105  0.0782  0.4277
38838SOL    HW222352   9.217   7.340   6.618  0.1089  1.7390 -0.4738
38839SOL     OW22353   0.299   0.657   1.303  0.1068  0.0083 -0.7618
38839SOL    HW122354   0.246   0.694   1.374 -0.5276  0.9199 -1.6811
38839SOL    HW222355   0.235   0.630   1.237  0.7488  1.1713 -1.9200
38840SOL     OW22356  11.988   2.892   0.077 -0.2218 -0.1520 -0.0843
38840SOL    HW122357  11.984   2.798   0.060 -1.3551 -0.0935 -0.2506
38840SOL    HW222358  11.901   2.924   0.053 -0.4022  0.6674  1.5511
38841SOL     OW22359   2.248   9.528   1.150 -0.0476 -0.4890  0.2442
38841SOL    HW122360   2.226   9.576   1.070 -0.6336 -2.1835 -0.6646
38841SOL    HW222361   2.164   9.499   1.185  0.2982 -0.9853  0.6868
38842SOL     OW22362   9.511   6.372   4.083 -0.3946 -0.1452 -0.6707
38842SOL    HW122363   9.482   6.306   4.145 -0.6287  0.0614 -0.5603
38842SOL    HW222364   9.556   6.438   4.137  1.2789 -1.0093 -0.9590
38843SOL     OW22365   1.498   8.098   5.092 -0.2091  0.6583 -0.2281
38843SOL    HW122366   1.416   8.145   5.078 -1.1833 -1.0552 -0.5785
38843SOL    HW222367   1.473   8.022   5.146  1.2444  0.4031  0.1152
38844SOL     OW22368  11.915   0.841  11.671  0.2468  0.3367  0.3160
38844SOL    HW122369  11.827   0.807  11.688  0.7687 -1.4417 -0.2790
38844SOL    HW222370  11.912   0.873  11.580 -0.2145  1.8338  0.8387
38845SOL     OW22371   4.306  10.642   8.983 -0.0173  0.0195 -0.0698
38845SOL    HW122372   4.228  10.594   9.012 -0.9852  0.2407 -2.1256
38845SOL    HW222373   4.322  10.706   9.052 -0.7660 -0.9769  1.0816
38846SOL     OW22374  11.284  10.556  12.300  0.3847  0.1608 -0.5390
38846SOL    HW122375  11.349  10.532  12.367  1.2531 -1.3629 -1.8436
38846SOL    HW222376  11.205  10.507  12.324 -0.1982  1.6935  0.8191
38847SOL     OW22377   3.383   4.596   1.343  0.4078 -0.3455 -0.1051
38847SOL    HW122378   3.376   4.571   1.436  0.6791 -0.5234 -0.1301
38847SOL    HW222379   3.463   4.553   1.313 -0.0293 -0.8310 -0.5953
38848SOL     OW22380   6.484  10.291   0.723  0.3410  0.7702  0.4810
38848SOL    HW122381   6.509  10.210   0.766 -0.3236  0.5661  0.4829
38848SOL    HW222382   6.486  10.271   0.630 -0.0023  0.6988  0.4883
38849SOL     OW22383   1.544   0.256   5.273  0.3108 -0.3162 -0.4977
38849SOL    HW122384   1.471   0.294   5.322 -0.8473 -1.7747 -0.9996
38849SOL    HW222385   1.615   0.248   5.338 -0.5509 -0.4485  0.4641
38850SOL     OW22386   9.785   9.276  10.103  0.3414  0.2087 -0.8924
38850SOL    HW122387   9.716   9.329  10.143  1.5434  1.7492 -0.7201
38850SOL    HW222388   9.841   9.251  10.177  1.2222  0.9721 -1.2719
38851SOL     OW22389   7.780   1.137   4.694  0.3971 -0.1706 -0.1442
38851SOL    HW122390   7.830   1.055   4.688  1.3928  0.5366 -2.8894
38851SOL    HW222391   7.828   1.190   4.757  0.0948 -1.4042  1.1931
38852SOL     OW22392  10.318   0.286   4.202  0.3354 -0.1119 -0.1231
38852SOL    HW122393  10.274   0.314   4.282  1.5364 -0.5969  0.7258
38852SOL    HW222394  10.305   0.192   4.199  0.3424 -0.1030 -0.4710
38853SOL     OW22395  10.861   9.361   5.071 -0.0757  0.0706  0.3432
38853SOL    HW122396  10.784   9.360   5.128 -0.0048  0.5492  0.4474
38853SOL    HW222397  10.905   9.443   5.092 -0.6932  0.8648 -1.2791
38854SOL     OW22398   1.216   8.460   2.176 -0.5516  0.1291 -0.1004
38854SOL    HW122399   1.173   8.382   2.140  0.5216 -0.0521 -1.0538
38854SOL    HW222400   1.151   8.497   2.236 -1.8998 -0.3183 -1.2190
38855SOL     OW22401   7.443   6.990   9.465 -0.4155 -0.1739 -0.2477
38855SOL    HW122402   7.482   6.960   9.548  0.0504  0.4547 -0.2291
38855SOL    HW222403   7.517   7.028   9.417 -0.1198 -2.8158 -2.0762
38856SOL     OW22404   6.557   7.103   0.913 -0.3440  0.0558 -0.5307
38856SOL    HW122405   6.524   7.163   0.980  0.1130  0.7275 -0.8984
38856SOL    HW222406   6.480   7.084   0.858 -0.4710  0.3853 -0.4714
38857SOL     OW22407   9.766   2.237   6.586  0.0979 -0.2056  0.2202
38857SOL    HW122408   9.794   2.163   6.531 -3.0745 -1.2827 -0.1768
38857SOL    HW222409   9.746   2.307   6.523 -1.2299 -0.6171  0.1539
38858SOL     OW22410   3.603  10.589   2.762  0.1957  0.2571 -0.0747
38858SOL    HW122411   3.692  10.623   2.764 -0.9124  3.4542  0.7616
38858SOL    HW222412   3.576  10.587   2.854 -1.9442  3.7107 -0.4410
38859SOL     OW22413   4.312  10.307  12.026 -0.7536  0.1419 -0.0660
38859SOL    HW122414   4.382  10.293  12.089 -1.2807 -4.2690 -0.1525
38859SOL    HW222415   4.355  10.347  11.951  0.6725  1.8046  1.5429
38860SOL     OW22416   4.554   4.409   8.878 -0.0557 -0.4479  0.5435
38860SOL    HW122417   4.646   4.408   8.851 -0.2214  0.0199 -0.0661
38860SOL    HW222418   4.511   4.346   8.821 -0.2400 -0.1437  0.3459
38861SOL     OW22419   8.565   5.320   2.802  0.1548  0.3407  0.3897
38861SOL    HW122420   8.553   5.414   2.813 -2.4892  0.1888 -0.3242
38861SOL    HW222421   8.642   5.312   2.746  1.0367  2.0103  1.2985
38862SOL     OW22422   8.990  11.925   2.238  0.1624 -0.0566  0.5263
38862SOL    HW122423   8.903  11.887   2.249 -1.1503  2.1399 -1.2051
38862SOL    HW222424   9.037  11.863   2.183 -0.7694 -0.7002  0.4368
38863SOL     OW22425   4.051   2.234   0.290  0.2572  0.0155  0.1885
38863SOL    HW122426   4.056   2.283   0.208  0.1401 -0.2277  0.0365
38863SOL    HW222427   4.082   2.146   0.268 -0.3345 -0.2189  0.2705
38864SOL     OW22428   5.721   2.872  11.415  0.5260 -0.0700  0.3561
38864SOL    HW122429   5.689   2.786  11.386  0.7950 -0.1446  0.2750
38864SOL    HW222430   5.732   2.922  11.334  1.1338 -0.2283  0.3394
38865SOL     OW22431   8.030  11.185   1.797 -0.5120  0.1747  0.3286
38865SOL    HW122432   8.082  11.132   1.737 -0.2503  0.9674 -0.1533
38865SOL    HW222433   7.962  11.224   1.742  0.0078  1.2734  0.4448
38866SOL     OW22434   7.048   9.316  10.958  0.1579  0.3802  0.4450
38866SOL    HW122435   7.004   9.370  10.892 -0.5414 -0.6877  0.0050
38866SOL    HW222436   7.123   9.279  10.912 -0.8204 -1.0677 -0.0573
38867SOL     OW22437   3.023  11.593   5.450 -0.1068  0.0536 -0.1344
38867SOL    HW122438   3.107  11.607   5.493  0.7114 -1.0146 -1.3140
38867SOL    HW222439   3.023  11.500   5.427 -1.9135 -0.1324  0.4387
38868SOL     OW22440   7.624  11.973   4.219  0.6902  0.0094  0.5853
38868SOL    HW122441   7.701  11.957   4.274  0.2268 -0.4150  1.1299
38868SOL    HW222442   7.659  12.007   4.137  1.5011 -0.6438  0.6455
38869SOL     OW22443   0.600   7.855   7.513 -0.0855  0.6080  0.0396
38869SOL    HW122444   0.621   7.816   7.427  0.9817 -0.5325  0.7819
38869SOL    HW222445   0.524   7.806   7.543  0.8571 -0.5255  0.6785
38870SOL     OW22446   0.901   4.991   1.541 -0.3425 -0.0676  0.0885
38870SOL    HW122447   0.950   5.060   1.584 -0.6665  0.3577 -0.2216
38870SOL    HW222448   0.854   4.946   1.611  0.3788 -0.3956  0.3704
38871SOL     OW22449   1.028   5.135   6.829  0.2123  0.4973  0.1152
38871SOL    HW122450   1.034   5.040   6.838  1.9337  0.5985  0.2671
38871SOL    HW222451   1.049   5.151   6.737 -0.0547  0.7468  0.0970
38872SOL     OW22452   0.413   4.097   5.836  0.3699 -0.0879  0.5363
38872SOL    HW122453   0.436   4.041   5.762  0.6070 -0.3223  0.7848
38872SOL    HW222454   0.452   4.182   5.815  0.9361 -0.3134  0.6630
38873SOL     OW22455   1.525   4.247   0.414 -0.3069  0.2611 -0.2990
38873SOL    HW122456   1.505   4.189   0.487  1.0849  0.5489  0.3334
38873SOL    HW222457   1.620   4.250   0.411 -0.3078 -0.2909 -2.5842
38874SOL     OW22458   4.448   8.533   5.158 -0.7063  0.0515 -0.0871
38874SOL    HW122459   4.443   8.462   5.223 -1.4478  0.8417  0.7431
38874SOL    HW222460   4.532   8.519   5.115 -1.7246 -2.6137 -1.4456
38875SOL     OW22461  10.555   1.392   6.828 -0.6631  0.3196 -0.1396
38875SOL    HW122462  10.575   1.481   6.855  0.6753 -0.3557  1.3051
38875SOL    HW222463  10.613   1.376   6.753  1.0809 -0.1294  1.2221
38876SOL     OW22464   1.013   1.921   8.968  0.0611  0.0579  0.3061
38876SOL    HW122465   0.974   1.985   9.027 -0.3222  0.7582 -0.6838
38876SOL    HW222466   1.104   1.948   8.960 -0.2075  0.7571 -0.4631
38877SOL     OW22467  10.855   9.500   6.829  0.0713  0.3537  0.1513
38877SOL    HW122468  10.799   9.512   6.906  0.3065  0.7249  0.2672
38877SOL    HW222469  10.863   9.405   6.819  1.0858  0.2873  1.3531
38878SOL     OW22470   0.352   1.271   4.781  0.4040  0.0164 -0.7070
38878SOL    HW122471   0.314   1.349   4.741 -1.6711  0.6566  2.1677
38878SOL    HW222472   0.278   1.210   4.789  0.8286 -0.3040  1.4063
38879SOL     OW22473  10.480   9.714   4.828  0.2396  0.1247  0.3530
38879SOL    HW122474  10.518   9.764   4.900  0.0430 -0.6520  1.0110
38879SOL    HW222475  10.402   9.674   4.865 -1.3475  1.7899 -1.0176
38880SOL     OW22476  10.267   2.701   3.835 -0.0666  1.0922 -0.1603
38880SOL    HW122477  10.265   2.662   3.747 -0.7600 -2.7671  1.3600
38880SOL    HW222478  10.285   2.627   3.893 -0.4229  3.3489  3.0486
38881SOL     OW22479   8.366   6.796   1.952 -0.0954  0.5640 -0.4608
38881SOL    HW122480   8.440   6.750   1.992 -0.2499  0.4581 -0.2964
38881SOL    HW222481   8.327   6.846   2.024  1.1787  2.4251 -0.9876
38882SOL     OW22482   2.969   9.073  10.067 -0.2430  0.3808 -0.5671
38882SOL    HW122483   2.891   9.096  10.117 -0.2913 -1.0439  0.0450
38882SOL    HW222484   2.969   8.977  10.064  1.2613  0.3637 -0.8980
38883SOL     OW22485   8.688  11.482   1.001 -0.2765 -0.3506 -0.1576
38883SOL    HW122486   8.699  11.470   0.907  0.3552 -0.6521 -0.0514
38883SOL    HW222487   8.729  11.566   1.020  0.0654 -0.5358 -0.0722
38884SOL     OW22488   2.868   3.984   7.774 -0.2040  0.3795 -0.4595
38884SOL    HW122489   2.896   4.073   7.796  0.2409 -0.3118  2.0538
38884SOL    HW222490   2.844   3.989   7.681  1.1639  2.7633 -0.7761
38885SOL     OW22491   4.903   2.417   9.357  0.3222 -0.0412 -0.3080
38885SOL    HW122492   4.983   2.469   9.364  1.3396 -1.6529  0.9325
38885SOL    HW222493   4.853   2.440   9.436 -0.1928  0.5420 -0.7942
38886SOL     OW22494   6.804   3.296   8.698 -0.2002  0.0108 -0.0308
38886SOL    HW122495   6.719   3.259   8.673  0.3607 -1.4822  0.1471
38886SOL    HW222496   6.847   3.316   8.615 -0.6001  0.4798 -0.1272
38887SOL     OW22497   2.288   5.551   0.797 -0.0744 -0.0186 -0.7178
38887SOL    HW122498   2.318   5.605   0.870  0.6208  0.4409 -1.3314
38887SOL    HW222499   2.300   5.606   0.719  1.6979 -1.4285 -1.5004
38888SOL     OW22500   6.939   2.389   9.661  0.0148  0.1401 -0.5974
38888SOL    HW122501   6.955   2.377   9.567  0.2319 -0.2929 -0.5078
38888SOL    HW222502   6.843   2.386   9.669 -0.1171  1.8818 -1.0213
38889SOL     OW22503  12.148   0.067   5.172  0.1599  0.1486 -0.1142
38889SOL    HW122504  12.205   0.129   5.126  2.5166 -1.6754  0.1690
38889SOL    HW222505  12.120   0.005   5.105  2.5119 -1.7251  0.4744
38890SOL     OW22506   5.500   5.387  11.021  0.3812 -0.0759 -0.3099
38890SOL    HW122507   5.578   5.419  11.065 -0.2203  0.2266  0.5693
38890SOL    HW222508   5.496   5.436  10.939  1.6032 -0.7555 -0.7870
38891SOL     OW22509   2.456   8.252   0.091 -0.1279 -0.3093  0.0867
38891SOL    HW122510   2.445   8.157   0.094  1.1909 -0.4601  1.3252
38891SOL    HW222511   2.513   8.267   0.016  1.4712 -0.7548  1.1487
38892SOL     OW22512   8.371   9.036   0.207 -0.3258  0.4254 -0.2019
38892SOL    HW122513   8.440   9.102   0.202  0.0991  0.0979  1.0434
38892SOL    HW222514   8.298   9.080   0.251 -1.3343  1.0819 -2.3998
38893SOL     OW22515   0.413   9.928   4.114  0.2977  0.7213 -0.9360
38893SOL    HW122516   0.379   9.973   4.037 -0.9185  1.7202  0.1316
38893SOL    HW222517   0.367   9.844   4.116  0.6880  0.4895 -1.5466
38894SOL     OW22518   1.419   3.169   1.679 -0.0158 -0.2512  0.3968
38894SOL    HW122519   1.417   3.243   1.618 -1.3740 -0.6567 -0.0912
38894SOL    HW222520   1.426   3.209   1.766  0.6251  0.3878  0.0597
38895SOL     OW22521  10.562   1.895   4.156  0.2917 -0.5640  0.4324
38895SOL    HW122522  10.553   1.910   4.062  0.1181  0.2233  0.5626
38895SOL    HW222523  10.610   1.813   4.163  2.0208  0.3121 -0.3696
38896SOL     OW22524   7.534   7.250  11.070  0.2771  0.7837 -0.5757
38896SOL    HW122525   7.629   7.260  11.069  0.3758  0.1893 -3.5280
38896SOL    HW222526   7.520   7.156  11.081 -0.0858  1.0192  1.4613
38897SOL     OW22527   1.787   1.175   2.195 -0.2405  0.2889 -0.1706
38897SOL    HW122528   1.799   1.252   2.140 -2.2806  0.6272 -0.2212
38897SOL    HW222529   1.829   1.104   2.146  0.4937  1.1080 -0.7649
38898SOL     OW22530   5.235   9.058   7.433  0.2920 -0.4760 -0.0418
38898SOL    HW122531   5.186   9.063   7.351  0.3411  0.2771 -0.0330
38898SOL    HW222532   5.187   8.995   7.486 -1.7229  1.5179  0.6527
38899SOL     OW22533   3.539   8.850   4.917 -0.3105 -0.3504 -0.5712
38899SOL    HW122534   3.633   8.846   4.899 -0.1569  0.8839 -0.2051
38899SOL    HW222535   3.521   8.772   4.968  0.7776 -0.0359  0.3560
38900SOL     OW22536   0.561   4.858   0.100  0.1218  0.4194 -0.4754
38900SOL    HW122537   0.648   4.834   0.132 -0.0543 -1.0985 -1.0194
38900SOL    HW222538   0.537   4.936   0.149  0.7327 -0.5958  1.5616
38901SOL     OW22539  11.090  10.752   0.040  0.0892  0.3007 -0.1055
38901SOL    HW122540  11.126  10.816  -0.021 -1.2731  0.8848 -0.3345
38901SOL    HW222541  11.164  10.694   0.060  1.1531  1.4717 -0.4926
38902SOL     OW22542   3.339  10.077   3.814 -0.2608  0.2554 -0.0699
38902SOL    HW122543   3.273  10.145   3.824 -0.6907 -0.3543  1.4999
38902SOL    HW222544   3.289   9.998   3.793 -0.2799 -0.5889  2.7750
38903SOL     OW22545   3.252   8.202  11.104 -0.4462 -0.1066 -0.4126
38903SOL    HW122546   3.229   8.279  11.052 -2.7724  1.0168  2.0157
38903SOL    HW222547   3.299   8.238  11.180 -2.0245 -0.9387  1.0257
38904SOL     OW22548   9.117   6.562   1.912  0.6326  0.7830 -0.1045
38904SOL    HW122549   9.159   6.548   1.997 -1.2203  0.9663  0.8932
38904SOL    HW222550   9.109   6.657   1.904  0.3359  0.7464 -0.2494
38905SOL     OW22551   3.470   8.362   3.699  0.4954  0.2635 -0.1404
38905SOL    HW122552   3.463   8.425   3.770 -1.8378 -1.4866  1.3073
38905SOL    HW222553   3.388   8.371   3.650  0.2464 -1.3759 -0.0888
38906SOL     OW22554  11.621   8.226   4.350  0.2475  0.0997  0.1808
38906SOL    HW122555  11.562   8.197   4.281 -0.0423 -0.1828  0.5449
38906SOL    HW222556  11.651   8.312   4.322  0.1612 -0.0307 -0.3162
38907SOL     OW22557   5.116   8.616   7.744 -0.6283 -0.0389  0.4946
38907SOL    HW122558   5.104   8.711   7.750  1.3425  0.3018 -0.1432
38907SOL    HW222559   5.036   8.579   7.782 -1.5869  1.8641  0.4417
38908SOL     OW22560  10.777   4.788   4.242 -0.3579  0.3390  0.9492
38908SOL    HW122561  10.810   4.796   4.153 -1.6631  1.0355  0.5107
38908SOL    HW222562  10.790   4.695   4.264  1.7174  0.5359  0.7777
38909SOL     OW22563   9.031   6.908   8.508  0.2389 -0.0953  0.3820
38909SOL    HW122564   9.038   6.907   8.412  0.1021  1.8159  0.3070
38909SOL    HW222565   8.937   6.901   8.525  0.3289 -1.3843  0.4348
38910SOL     OW22566   6.748   5.837   7.147 -0.1126 -0.4341 -0.7666
38910SOL    HW122567   6.757   5.763   7.207 -1.8774  0.3702  0.5511
38910SOL    HW222568   6.834   5.843   7.103  0.8382 -1.7577  0.8147
38911SOL     OW22569  10.886  12.286   4.844  0.8285 -0.4590 -0.1402
38911SOL    HW122570  10.863  12.193   4.849 -0.6703 -0.1126 -0.2191
38911SOL    HW222571  10.889  12.315   4.935 -0.2417 -0.2330 -0.1731
38912SOL     OW22572   9.226  10.418   2.373 -0.2132 -0.2014 -0.1741
38912SOL    HW122573   9.241  10.513   2.373  1.9668 -0.5018 -0.6212
38912SOL    HW222574   9.283  10.384   2.441 -1.2078 -1.2015  0.2070
38913SOL     OW22575   6.545   8.619   5.706  0.4464 -0.9727 -0.5186
38913SOL    HW122576   6.462   8.651   5.743  1.3408 -0.5467  1.2650
38913SOL    HW222577   6.519   8.567   5.630 -1.4077 -0.3314 -0.3899
38914SOL     OW22578   9.764   0.450   3.751  0.1445 -0.1837 -0.0523
38914SOL    HW122579   9.827   0.377   3.752  1.0525  0.5579 -0.8111
38914SOL    HW222580   9.802   0.516   3.809 -0.0776  0.1501 -0.2827
38915SOL     OW22581   0.784   8.824   4.693  0.0334  0.5717 -0.0765
38915SOL    HW122582   0.865   8.847   4.738 -0.1135 -0.2394  0.6376
38915SOL    HW222583   0.736   8.769   4.756 -1.8116  2.3225  0.1722
38916SOL     OW22584  12.123   1.351   0.369 -0.1741  0.2236  0.4967
38916SOL    HW122585  12.081   1.421   0.319 -0.7129  0.1528  0.8439
38916SOL    HW222586  12.092   1.270   0.328 -0.7556  0.1609  1.0437
38917SOL     OW22587   4.910   3.571   7.620 -0.3427  0.6669 -0.3446
38917SOL    HW122588   4.983   3.613   7.576 -0.2239  0.9348  0.1017
38917SOL    HW222589   4.931   3.478   7.617  0.9595  0.8467  1.3909
38918SOL     OW22590   3.236   7.726   0.868  0.0934  0.4848  0.8662
38918SOL    HW122591   3.323   7.739   0.906  0.5744 -0.1244 -0.0088
38918SOL    HW222592   3.248   7.659   0.802 -1.2563 -0.3934  1.4627
38919SOL     OW22593   7.482   0.387   0.393  0.0078  0.0295 -0.0482
38919SOL    HW122594   7.449   0.305   0.430 -0.8265  0.9257  1.3083
38919SOL    HW222595   7.403   0.438   0.375  0.5426  1.4811  1.4598
38920SOL     OW22596   3.821  11.749   2.478  0.4244  0.3833 -0.6577
38920SOL    HW122597   3.799  11.758   2.385 -1.1810 -2.1549 -0.6118
38920SOL    HW222598   3.737  11.759   2.524  1.3042  2.3865  0.6572
38921SOL     OW22599   9.945  11.243   0.260 -0.1190  0.5848  0.2532
38921SOL    HW122600  10.025  11.214   0.216  0.4225  0.7519  1.1202
38921SOL    HW222601   9.975  11.294   0.335 -1.0246 -0.0207  1.0487
38922SOL     OW22602   6.741   3.251   9.489  0.0214  0.1047  0.8313
38922SOL    HW122603   6.749   3.319   9.422  1.4344 -0.2478  0.6052
38922SOL    HW222604   6.687   3.291   9.557  0.3973  1.2677  0.4718
38923SOL     OW22605  11.260   8.297   2.813  0.1004 -0.3188  0.0252
38923SOL    HW122606  11.350   8.282   2.839  0.1078 -0.1624  0.0962
38923SOL    HW222607  11.260   8.386   2.776  0.2884 -0.8783 -1.4094
38924SOL     OW22608   8.524   2.419   6.550  0.4939  0.4856  0.1270
38924SOL    HW122609   8.588   2.350   6.533  0.6775  0.3387  1.3001
38924SOL    HW222610   8.543   2.487   6.485 -1.0853 -1.4267 -2.5077
38925SOL     OW22611   4.138   6.184   0.131 -0.0629 -0.0516  0.3589
38925SOL    HW122612   4.084   6.244   0.079  2.0847  2.3193  0.6535
38925SOL    HW222613   4.209   6.159   0.073 -2.0027 -4.3070 -0.5167
38926SOL     OW22614   6.853   5.560   0.833  0.6498  0.2187 -0.0705
38926SOL    HW122615   6.829   5.594   0.747  3.0546 -2.0103 -1.7912
38926SOL    HW222616   6.889   5.473   0.815  0.6004 -0.6401  3.3079
38927SOL     OW22617   4.601   9.133   7.102  0.6907  0.3897 -0.0907
38927SOL    HW122618   4.601   9.094   7.190  0.5735  0.5732 -0.0078
38927SOL    HW222619   4.601   9.228   7.119 -0.0503  0.4291 -0.2876
38928SOL     OW22620   6.913   9.212   5.055 -0.0412  0.2337 -0.3966
38928SOL    HW122621   6.829   9.258   5.052 -0.6260 -0.7597  0.3748
38928SOL    HW222622   6.970   9.269   5.106 -1.3157 -0.7099  2.2343
38929SOL     OW22623  11.124   7.703   5.874 -0.5526  0.3132  0.1103
38929SOL    HW122624  11.046   7.724   5.926 -0.7064  1.0511 -0.3988
38929SOL    HW222625  11.092   7.701   5.784  0.0206  0.6323 -0.1008
38930SOL     OW22626   9.968   9.988   9.623  0.6032  0.5446  0.0640
38930SOL    HW122627   9.874   9.993   9.639  0.8000 -0.7179  1.9060
38930SOL    HW222628  10.001   9.926   9.688  2.7919  1.3189 -0.2036
38931SOL     OW22629   4.643   8.532   1.479  0.1111 -0.3336 -0.3521
38931SOL    HW122630   4.713   8.507   1.419  0.8259  1.5055 -0.3561
38931SOL    HW222631   4.641   8.627   1.476 -1.5636 -0.2884  0.6223
38932SOL     OW22632   4.200   5.497   8.112 -0.6978 -0.1769 -0.2120
38932SOL    HW122633   4.288   5.509   8.075 -1.5303  0.3701 -2.1008
38932SOL    HW222634   4.175   5.585   8.140 -0.6465 -0.3400  0.3585
38933SOL     OW22635  11.855   8.112   5.921 -0.5911 -0.0963 -0.0628
38933SOL    HW122636  11.849   8.020   5.898 -0.1758 -0.5356  1.4807
38933SOL    HW222637  11.905   8.152   5.849 -0.9828 -1.0158 -0.8539
38934SOL     OW22638  11.995   7.044   8.955 -0.3804 -0.0264  0.6558
38934SOL    HW122639  12.082   7.075   8.931 -0.3356 -1.2515 -0.9003
38934SOL    HW222640  12.001   6.949   8.956 -2.1281 -0.2422 -1.4337
38935SOL     OW22641   1.598   0.723   6.811  0.3531 -0.3855  0.2043
38935SOL    HW122642   1.660   0.795   6.810 -1.3680  1.1628 -0.7061
38935SOL    HW222643   1.592   0.697   6.903  1.4189  0.2252  0.4646
38936SOL     OW22644   5.212   7.215   8.903  0.7019  0.1080  0.1339
38936SOL    HW122645   5.214   7.227   8.808  0.1805 -3.9577 -0.5761
38936SOL    HW222646   5.286   7.158   8.922  0.6615  0.6519  2.1873
38937SOL     OW22647  10.874   7.276  10.735 -0.2544  0.0789  0.0827
38937SOL    HW122648  10.831   7.203  10.691  0.8367 -0.7068  0.2950
38937SOL    HW222649  10.829   7.354  10.702  0.2602 -0.4995 -2.1425
38938SOL     OW22650  11.984   7.205  10.629 -0.2411  0.2257 -0.2237
38938SOL    HW122651  11.901   7.204  10.582 -0.7263 -0.7682  0.6225
38938SOL    HW222652  12.026   7.122  10.605  0.0024  0.2171  0.2187
38939SOL     OW22653  12.275   5.301   8.452  0.6166  0.5685 -0.5317
38939SOL    HW122654  12.291   5.359   8.378  0.3665  1.4705  0.0996
38939SOL    HW222655  12.209   5.347   8.505  0.2893 -0.3672 -0.0938
38940SOL     OW22656   4.464   1.571   4.761  0.1321 -0.3340  0.7179
38940SOL    HW122657   4.394   1.506   4.773  0.0717 -0.1412  1.4875
38940SOL    HW222658   4.543   1.525   4.789  0.2270 -0.3681  0.3932
38941SOL     OW22659   5.812   0.597  11.270 -0.2089 -0.1156  0.3520
38941SOL    HW122660   5.746   0.621  11.335 -0.6522  1.4793 -0.6387
38941SOL    HW222661   5.881   0.554  11.320 -1.6078 -1.0652  1.5275
38942SOL     OW22662   6.857   1.142   5.029  0.1564 -0.1153 -0.1054
38942SOL    HW122663   6.947   1.146   4.998  0.8609  0.3779  1.9252
38942SOL    HW222664   6.863   1.147   5.124 -2.1115  1.5579  0.0252
38943SOL     OW22665   6.811   2.238   9.012 -0.4446 -0.1503  0.3294
38943SOL    HW122666   6.831   2.320   8.967 -0.4664 -0.5895 -0.4912
38943SOL    HW222667   6.795   2.175   8.942  0.3951 -1.0683  0.9338
38944SOL     OW22668  10.227   3.128   2.139 -0.2160  0.5496 -0.3242
38944SOL    HW122669  10.199   3.182   2.212  0.2567  0.3130  0.0315
38944SOL    HW222670  10.270   3.052   2.179 -1.6636 -0.5646 -0.7710
38945SOL     OW22671   6.947   3.757   5.697  0.1997 -1.2491  0.2703
38945SOL    HW122672   7.029   3.806   5.695  0.2452 -1.3019  0.6777
38945SOL    HW222673   6.973   3.667   5.719  0.1538 -1.5464 -0.8227
38946SOL     OW22674  11.149   1.073   8.222  0.1693 -0.2552 -0.9803
38946SOL    HW122675  11.236   1.095   8.189  0.6535  0.4866  0.7249
38946SOL    HW222676  11.119   1.151   8.268 -0.6756 -1.0755 -0.0854
38947SOL     OW22677   5.657   2.626   2.529  0.4002 -0.2327  0.8094
38947SOL    HW122678   5.579   2.590   2.487 -0.7092  2.1678  0.6217
38947SOL    HW222679   5.664   2.578   2.612 -1.2273 -0.5987  0.7749
38948SOL     OW22680   1.374   6.683   8.203  0.4020 -0.4311  0.0741
38948SOL    HW122681   1.362   6.734   8.123  1.0442 -0.5399 -0.0957
38948SOL    HW222682   1.295   6.701   8.255  0.2754  0.1412 -0.3065
38949SOL     OW22683   5.245   8.982  11.813  0.0934 -0.2585  0.4683
38949SOL    HW122684   5.190   9.047  11.770  0.6498 -0.7707 -1.0863
38949SOL    HW222685   5.319   9.032  11.849  1.2255 -0.1098 -1.8831
38950SOL     OW22686   2.431   1.240   8.013  0.2922  0.1157  0.3292
38950SOL    HW122687   2.374   1.282   7.948  0.0436 -1.0568 -0.2312
38950SOL    HW222688   2.455   1.156   7.974 -2.6631 -2.2637  3.0760
38951SOL     OW22689  11.909   8.904  10.759  0.1568 -0.5669 -0.7709
38951SOL    HW122690  11.841   8.953  10.805 -0.5641 -0.2936 -2.0699
38951SOL    HW222691  11.902   8.934  10.668  1.7982 -0.7773 -1.0002
38952SOL     OW22692   0.291   5.480   3.785 -0.5011  0.3308 -0.2562
38952SOL    HW122693   0.363   5.460   3.846  0.5591  2.6716 -0.6286
38952SOL    HW222694   0.286   5.403   3.728  3.3051  0.9284 -1.6608
38953SOL     OW22695   0.105  10.648   9.238  0.5238  0.4705 -0.2403
38953SOL    HW122696   0.035  10.711   9.224 -0.0458  0.6121  2.7708
38953SOL    HW222697   0.127  10.618   9.149 -0.7223  3.1644 -1.5837
38954SOL     OW22698   9.935  11.831   0.025  0.0335 -0.1582 -0.3733
38954SOL    HW122699   9.900  11.775  -0.045  0.1407 -1.7686  0.8122
38954SOL    HW222700   9.991  11.893  -0.021 -0.4796 -0.6841 -1.7985
38955SOL     OW22701   8.283   6.647   6.545 -0.1415  0.1992  0.3107
38955SOL    HW122702   8.241   6.619   6.463  1.0200 -0.3246 -0.1199
38955SOL    HW222703   8.288   6.742   6.537 -1.9597  0.3763  0.7374
38956SOL     OW22704  12.085   5.222  10.840  0.1541 -0.1741  0.9556
38956SOL    HW122705  12.065   5.129  10.830 -1.7571  0.3984 -1.5696
38956SOL    HW222706  12.026   5.252  10.908 -0.8947 -0.3971  0.1680
38957SOL     OW22707   3.439   9.933  12.297  0.5421  0.7009  0.0120
38957SOL    HW122708   3.409   9.893  12.215  0.3066  0.6219  0.1361
38957SOL    HW222709   3.492   9.865  12.339  0.2326  0.5567  0.1712
38958SOL     OW22710   0.878   0.116  11.110 -0.0605  0.2457 -0.3246
38958SOL    HW122711   0.901   0.208  11.097 -1.8397  0.6565 -0.7404
38958SOL    HW222712   0.877   0.079  11.022  2.4598 -0.6863 -0.0431
38959SOL     OW22713   6.310   0.421   8.568 -0.4366 -0.5007 -0.4253
38959SOL    HW122714   6.242   0.468   8.521 -0.1567  1.1455  0.7385
38959SOL    HW222715   6.264   0.376   8.638 -0.5722 -1.1552 -0.9230
38960SOL     OW22716   4.046   1.846   2.144  0.0952  0.4200  0.0301
38960SOL    HW122717   4.105   1.812   2.212  0.2796  4.6712  2.2974
38960SOL    HW222718   4.104   1.892   2.084 -0.4143 -0.6689 -1.3568
38961SOL     OW22719   6.428  11.194   9.235 -0.1868 -0.2197  0.3908
38961SOL    HW122720   6.400  11.283   9.254 -0.7503 -0.3690  0.2538
38961SOL    HW222721   6.396  11.176   9.147  1.7236  0.1853 -0.4552
38962SOL     OW22722   4.363   6.604   2.226 -0.6058 -0.6771  0.4468
38962SOL    HW122723   4.389   6.682   2.276 -1.5266  0.1080 -0.2785
38962SOL    HW222724   4.386   6.624   2.136 -0.7903 -1.2833  0.2601
38963SOL     OW22725   1.478   8.067   5.529  0.2982  0.1804 -0.5108
38963SOL    HW122726   1.521   8.153   5.530 -0.3818  0.5790  2.4417
38963SOL    HW222727   1.460   8.047   5.621 -1.1572 -2.3449 -1.2328
38964SOL     OW22728   2.917  10.522   3.124 -0.3732  0.0601 -0.8892
38964SOL    HW122729   2.825  10.519   3.100 -0.7830  1.7712  0.3297
38964SOL    HW222730   2.918  10.518   3.220  0.9163 -1.3013 -0.9215
38965SOL     OW22731   0.687   2.521   8.490 -0.0841 -0.0761  0.9391
38965SOL    HW122732   0.657   2.448   8.543  0.8341  0.3982  2.1713
38965SOL    HW222733   0.693   2.594   8.551 -0.7820  0.9811 -0.2241
38966SOL     OW22734   0.797   8.377   7.253  0.1785 -0.3637 -0.0177
38966SOL    HW122735   0.754   8.337   7.328  0.4616 -1.6321 -0.5106
38966SOL    HW222736   0.880   8.331   7.245 -0.5147 -1.3618 -2.0389
38967SOL     OW22737   4.067   2.934   8.492  0.0978 -0.2064 -0.0922
38967SOL    HW122738   4.073   2.845   8.527 -3.3279 -0.1889  0.9361
38967SOL    HW222739   3.994   2.930   8.430  1.8589  1.2747 -2.4427
38968SOL     OW22740   6.480   5.280  10.544 -0.6458 -0.5037 -0.3465
38968SOL    HW122741   6.507   5.361  10.588 -1.9446  0.1449 -0.6805
38968SOL    HW222742   6.469   5.305  10.452  1.6323 -1.7426 -1.0322
38969SOL     OW22743   7.434   9.601  11.741  0.7200 -0.2405 -0.1139
38969SOL    HW122744   7.352   9.614  11.788 -0.2718 -2.9995 -0.8760
38969SOL    HW222745   7.468   9.689  11.727 -1.8008  0.9723  0.7594
38970SOL     OW22746   6.309   5.474  12.247  0.1094  0.1702 -0.0065
38970SOL    HW122747   6.243   5.543  12.256 -2.0562 -1.9393  2.1130
38970SOL    HW222748   6.301   5.424  12.328  3.6070 -0.9011 -0.1950
38971SOL     OW22749   3.285   2.040   4.644 -0.2599  0.7935 -0.0805
38971SOL    HW122750   3.295   2.103   4.573  1.7558 -0.1792 -0.7326
38971SOL    HW222751   3.228   1.972   4.609  2.2926 -0.7034 -1.6141
38972SOL     OW22752   3.191  11.152  10.510 -0.0176 -0.1962 -0.2050
38972SOL    HW122753   3.107  11.198  10.513  0.5519  0.8341  1.3052
38972SOL    HW222754   3.176  11.072  10.559  0.5106  1.2420  2.5224
38973SOL     OW22755   3.973   0.792   0.429 -0.3988  0.2689 -0.7124
38973SOL    HW122756   4.013   0.806   0.514 -0.6645  0.1301 -0.5650
38973SOL    HW222757   3.916   0.715   0.440  1.3800 -1.2585 -1.6259
38974SOL     OW22758  10.277   7.484   6.589  0.1807  0.2481 -0.3478
38974SOL    HW122759  10.369   7.488   6.563  0.0425 -1.9387 -1.4461
38974SOL    HW222760  10.228   7.496   6.508 -0.4754  0.2685  0.0438
38975SOL     OW22761  11.432   8.779  10.643  0.3841 -0.4298 -0.2505
38975SOL    HW122762  11.439   8.686  10.665  2.0429 -0.2688  0.0177
38975SOL    HW222763  11.440   8.825  10.727  0.3297 -0.0197 -0.4651
38976SOL     OW22764   2.114   0.844   3.876 -0.2416 -0.4242  0.6250
38976SOL    HW122765   2.208   0.845   3.896  0.1512 -1.3033 -0.9597
38976SOL    HW222766   2.094   0.752   3.859 -0.9358 -0.0288 -0.8881
38977SOL     OW22767  12.320   1.820   4.010  0.8275  0.7609  0.4051
38977SOL    HW122768  12.398   1.769   3.990  0.8954  1.2759 -0.7220
38977SOL    HW222769  12.347   1.880   4.080  1.8585  1.8876 -0.9127
38978SOL     OW22770   3.106  12.139   2.563 -0.4126 -0.0416  0.7186
38978SOL    HW122771   3.086  12.177   2.477 -3.5196 -0.3107  1.2264
38978SOL    HW222772   3.072  12.050   2.558 -0.8871  0.0309  2.3128
38979SOL     OW22773  10.130  10.871   0.964  0.1779  0.2751 -0.4959
38979SOL    HW122774  10.206  10.921   0.935  1.6297 -2.4501 -1.8881
38979SOL    HW222775  10.059  10.934   0.968  1.5913  2.2485 -3.1879
38980SOL     OW22776   9.422   3.247   5.848  0.5548 -0.3366  0.5120
38980SOL    HW122777   9.333   3.226   5.878  0.3174 -0.4821 -0.2733
38980SOL    HW222778   9.415   3.253   5.753  1.4223 -0.5257  0.4224
38981SOL     OW22779  10.973   3.463   9.627 -0.4099 -0.0410  0.0028
38981SOL    HW122780  10.969   3.376   9.587 -1.5963 -0.1045  0.2112
38981SOL    HW222781  10.963   3.523   9.553  0.1919 -0.0817 -0.1149
38982SOL     OW22782   0.778   5.144   9.896 -0.0318 -0.1300  0.2718
38982SOL    HW122783   0.873   5.147   9.889 -0.0681 -1.7184 -1.6481
38982SOL    HW222784   0.762   5.129   9.989  1.7599 -2.8988  0.2529
38983SOL     OW22785   1.497   5.815   2.420 -0.0731  0.1302  0.3491
38983SOL    HW122786   1.554   5.779   2.489  1.8742  1.2016 -0.6242
38983SOL    HW222787   1.527   5.772   2.340 -1.9731 -0.7171  0.0519
38984SOL     OW22788   7.212   2.889  11.747 -0.0307  0.1112  0.3328
38984SOL    HW122789   7.220   2.794  11.750 -1.0375  0.0407  2.2510
38984SOL    HW222790   7.122   2.905  11.718  0.0560  0.4718  0.2593
38985SOL     OW22791  12.158   1.611   3.869  0.0723 -0.3729  0.5678
38985SOL    HW122792  12.149   1.618   3.774 -0.9139 -1.1667  0.5936
38985SOL    HW222793  12.230   1.548   3.882  0.3829 -0.0666  0.3620
38986SOL     OW22794  12.079   6.582   2.534 -0.2065 -0.1402 -0.2843
38986SOL    HW122795  12.047   6.574   2.624 -0.4147 -1.5783 -0.4626
38986SOL    HW222796  12.171   6.553   2.539 -0.7667 -2.2155 -0.8331
38987SOL     OW22797   5.599   9.344   1.785  0.2038  0.4135 -0.6730
38987SOL    HW122798   5.684   9.308   1.758  0.5541  0.6915  0.0412
38987SOL    HW222799   5.617   9.436   1.803  0.2966 -0.0180  1.7685
38988SOL     OW22800   4.613   7.655   1.525  0.7443  0.2919  0.6204
38988SOL    HW122801   4.674   7.729   1.532  1.9151 -0.6039  0.3041
38988SOL    HW222802   4.539   7.679   1.581  0.9308  1.8538  0.2266
38989SOL     OW22803  11.682   6.780  12.093 -0.7108 -0.7084 -1.2535
38989SOL    HW122804  11.764   6.827  12.078 -1.1173  0.2137 -0.6556
38989SOL    HW222805  11.691   6.744  12.181 -1.3392  0.2534 -0.7798
38990SOL     OW22806  10.551   8.905   2.039  0.5324  0.8417  0.0398
38990SOL    HW122807  10.573   8.842   1.970 -0.2230 -0.0119  0.5537
38990SOL    HW222808  10.635   8.938   2.070  1.0778 -1.4255  1.1310
38991SOL     OW22809   5.226   8.958   6.321  0.0415  0.0715 -0.4056
38991SOL    HW122810   5.245   9.030   6.381 -0.5520  0.7535 -1.0167
38991SOL    HW222811   5.261   8.987   6.237  1.8523 -1.3446 -0.1903
38992SOL     OW22812   4.788   9.743   5.688  0.0883  0.4198  0.2134
38992SOL    HW122813   4.845   9.813   5.719 -0.5587  1.7328 -1.3879
38992SOL    HW222814   4.701   9.783   5.685 -0.3190 -0.4736 -0.6157
38993SOL     OW22815  12.291   8.942   4.253 -1.1331 -0.4475 -0.5497
38993SOL    HW122816  12.347   8.864   4.250  1.9087  1.5521 -2.1370
38993SOL    HW222817  12.345   9.008   4.297 -1.9843  1.7625 -2.5613
38994SOL     OW22818   6.222   4.068   1.705 -0.6749 -0.2961  0.1100
38994SOL    HW122819   6.288   4.127   1.739 -1.6258  1.2823 -0.6719
38994SOL    HW222820   6.225   3.992   1.763  1.0882  0.1836  0.6944
38995SOL     OW22821   1.312   0.557  10.487 -0.4040 -0.3260  0.3751
38995SOL    HW122822   1.406   0.573  10.495 -0.3194 -0.0584 -0.9825
38995SOL    HW222823   1.272   0.641  10.508 -0.4141 -0.6617  1.8342
38996SOL     OW22824   5.906   8.675   4.541 -0.9193  0.0138 -0.5183
38996SOL    HW122825   5.896   8.627   4.458  0.2324  0.2355 -0.8088
38996SOL    HW222826   5.953   8.755   4.516  0.7236 -0.5854  0.5654
38997SOL     OW22827   8.343   6.456  11.861 -0.6935 -0.5096  0.5332
38997SOL    HW122828   8.290   6.532  11.885  0.5048  0.6242 -0.2620
38997SOL    HW222829   8.420   6.462  11.918 -0.6816 -1.2578  0.6012
38998SOL     OW22830  11.465   4.363   4.125  0.1094  0.1069 -0.2435
38998SOL    HW122831  11.469   4.458   4.112  0.4995 -0.1457 -2.2736
38998SOL    HW222832  11.556   4.335   4.128 -0.0013 -0.1525  0.8712
38999SOL     OW22833  11.004   4.815   0.277 -0.6213  0.4338 -0.0953
38999SOL    HW122834  10.909   4.820   0.267 -0.5425  1.2800 -0.4940
38999SOL    HW222835  11.026   4.886   0.336 -0.3168 -0.2844  0.6819
39000SOL     OW22836   6.291   6.609   1.750  0.0754 -0.2786 -0.0831
39000SOL    HW122837   6.368   6.661   1.726  0.3739  0.1120  1.6349
39000SOL    HW222838   6.304   6.525   1.707 -0.5170  1.0410 -3.1242
39001SOL     OW22839   9.574  10.831   9.970 -0.8321  0.1144 -0.0207
39001SOL    HW122840   9.510  10.839   9.900  1.5107  1.7465 -2.1440
39001SOL    HW222841   9.539  10.886  10.040 -1.6409  1.1975 -1.2335
39002SOL     OW22842   2.358   7.865   2.941 -0.0598  0.4457  0.4107
39002SOL    HW122843   2.426   7.801   2.961 -0.3607 -0.5508 -1.4790
39002SOL    HW222844   2.399   7.926   2.879 -0.5180  0.5866  0.2375
39003SOL     OW22845   9.981   3.909   7.124  0.4719  0.0338  0.4568
39003SOL    HW122846   9.892   3.901   7.159  0.3890  1.5198  0.6477
39003SOL    HW222847   9.968   3.932   7.032  0.6309  1.1126  0.6909
39004SOL     OW22848   2.925   2.444  10.137  0.8426 -0.0736 -0.1344
39004SOL    HW122849   2.965   2.421  10.053 -0.6485 -0.0256 -0.9031
39004SOL    HW222850   2.841   2.483  10.113  0.8703  0.9980  1.3526
39005SOL     OW22851   6.731   3.082   2.354  0.1873  0.1926  0.2126
39005SOL    HW122852   6.655   3.074   2.411 -0.8793 -1.0247 -1.2960
39005SOL    HW222853   6.738   3.176   2.337 -0.9768  0.3240  0.3965
39006SOL     OW22854  10.152   7.553   4.687 -0.4418  0.0903  0.1539
39006SOL    HW122855  10.177   7.640   4.718 -2.1521  0.8905 -0.5590
39006SOL    HW222856  10.102   7.570   4.607 -1.0177 -1.5333  0.1328
39007SOL     OW22857   3.971   4.083   6.500  0.1147  0.4735 -0.8635
39007SOL    HW122858   3.921   4.081   6.581 -1.7300 -2.7655 -1.8982
39007SOL    HW222859   3.973   4.175   6.475 -3.7585  1.0338  0.2723
39008SOL     OW22860   9.854  10.521  12.169 -0.4659 -0.8424  0.4289
39008SOL    HW122861   9.915  10.470  12.222  0.0184 -1.0158 -0.2803
39008SOL    HW222862   9.775  10.528  12.223  1.0947  1.8587  2.6267
39009SOL     OW22863   3.706   6.769   0.389 -0.7926 -0.2108  0.4354
39009SOL    HW122864   3.693   6.769   0.484  0.8115 -0.9783  0.6888
39009SOL    HW222865   3.750   6.687   0.371 -1.4965 -0.2931 -1.0707
39010SOL     OW22866   8.318   8.759   9.474  0.0231 -0.6222  0.2773
39010SOL    HW122867   8.244   8.734   9.418  0.1152 -1.3632  0.4754
39010SOL    HW222868   8.291   8.733   9.562  2.0370 -4.6810 -0.0732
39011SOL     OW22869   1.174   3.083   7.033 -0.4426 -0.1571  0.1799
39011SOL    HW122870   1.264   3.053   7.024 -0.6386 -1.0270  0.8975
39011SOL    HW222871   1.122   3.002   7.033 -1.0910  0.2472  1.0875
39012SOL     OW22872   0.284   7.536   8.045  0.3035 -0.0357 -0.1867
39012SOL    HW122873   0.280   7.496   8.132 -0.6098 -1.3993 -0.8183
39012SOL    HW222874   0.212   7.496   7.997  1.0456  0.3875 -1.7170
39013SOL     OW22875   9.694   5.351   4.447 -0.8455 -0.0769 -0.4556
39013SOL    HW122876   9.714   5.376   4.537  0.7759 -3.0127  0.1262
39013SOL    HW222877   9.598   5.352   4.443 -0.9547 -0.0791  1.3639
39014SOL     OW22878   8.965  11.952   5.992  0.5786  0.0267 -0.6559
39014SOL    HW122879   9.049  11.962   5.947  0.5826  0.8118 -0.4702
39014SOL    HW222880   8.923  12.037   5.983  1.2944  0.7834  2.3233
39015SOL     OW22881   3.512  10.568  12.291 -0.0012 -0.0522  0.5113
39015SOL    HW122882   3.577  10.639  12.299  0.1548 -0.2985  1.7567
39015SOL    HW222883   3.548  10.509  12.225  0.4132  0.4689  0.2648
39016SOL     OW22884   9.709   1.140  10.655 -0.5715  0.0507  0.2114
39016SOL    HW122885   9.723   1.234  10.656 -1.1971  0.1729  2.4174
39016SOL    HW222886   9.620   1.129  10.619  0.1463  0.1316 -1.7000
39017SOL     OW22887   7.198   6.610   8.510 -0.9932  0.1702  0.2543
39017SOL    HW122888   7.293   6.606   8.526 -0.8594  0.3284 -0.4928
39017SOL    HW222889   7.184   6.554   8.434 -1.5387 -0.0197  0.4860
39018SOL     OW22890   8.192   8.271   7.092  0.1402  0.1695 -0.2331
39018SOL    HW122891   8.171   8.350   7.142  1.7980  0.1613  0.5537
39018SOL    HW222892   8.166   8.199   7.149  2.0925  0.1598  0.7217
39019SOL     OW22893   0.024   4.581   5.127  0.0564  0.4602  0.2486
39019SOL    HW122894  -0.035   4.525   5.077  0.8707 -0.1349 -0.0576
39019SOL    HW222895   0.044   4.531   5.206 -0.6294  1.0822  0.8385
39020SOL     OW22896  10.480   7.335   4.343 -0.2693  0.6655 -0.3006
39020SOL    HW122897  10.387   7.325   4.325 -0.3935  2.8325 -1.1994
39020SOL    HW222898  10.524   7.299   4.265 -0.5174  2.2039 -1.2120
39021SOL     OW22899   0.865  10.267   5.983 -0.1951  0.3735  0.2540
39021SOL    HW122900   0.783  10.250   5.936  0.0141 -0.5037  0.1839
39021SOL    HW222901   0.860  10.214   6.062  0.0238  0.8233  0.5741
39022SOL     OW22902   1.437   3.153   3.504 -0.0077  0.1984  0.1942
39022SOL    HW122903   1.397   3.151   3.418 -0.2979  0.7703  0.3131
39022SOL    HW222904   1.397   3.079   3.551 -1.0801  0.8749  0.3730
39023SOL     OW22905   3.408   9.621  11.705  0.1896  0.1477  0.3961
39023SOL    HW122906   3.448   9.699  11.744  2.0731 -0.4787 -0.1996
39023SOL    HW222907   3.458   9.548  11.742 -2.8365 -1.0513  2.5992
39024SOL     OW22908   0.995   6.995   0.811 -0.0477  0.3421 -0.2261
39024SOL    HW122909   0.950   6.925   0.858  0.2158  0.4579  0.1973
39024SOL    HW222910   1.069   7.018   0.866  0.3876  0.3329 -0.7953
39025SOL     OW22911   1.377   9.624  10.756  0.0143  0.1498  0.2679
39025SOL    HW122912   1.420   9.703  10.789  2.0719 -1.3006  1.2177
39025SOL    HW222913   1.285   9.649  10.748  0.5899  2.6198  0.5830
39026SOL     OW22914   4.928   9.539   1.645  0.0616 -0.2934  0.3550
39026SOL    HW122915   4.926   9.621   1.694 -0.7308  0.4340 -0.8687
39026SOL    HW222916   4.908   9.472   1.711  2.7406  0.2068  1.8152
39027SOL     OW22917  11.589   3.575   1.640  0.6245  0.3008  0.4475
39027SOL    HW122918  11.649   3.560   1.714  0.7615 -0.9330  0.1112
39027SOL    HW222919  11.540   3.493   1.633 -0.7813  1.1244  0.4159
39028SOL     OW22920   1.900  10.484   0.643  0.1371 -0.0527 -0.1103
39028SOL    HW122921   1.957  10.430   0.697 -1.3953 -0.9666  0.6547
39028SOL    HW222922   1.906  10.444   0.556 -0.2086 -0.8695  0.2253
39029SOL     OW22923   5.033   7.358   4.140  0.0082 -0.4613 -0.0545
39029SOL    HW122924   4.998   7.436   4.097 -0.4343 -1.1089 -0.8892
39029SOL    HW222925   5.037   7.292   4.072  0.8548 -1.0373  0.5304
39030SOL     OW22926   3.716  10.450   3.611  0.0298  0.2512 -0.1443
39030SOL    HW122927   3.710  10.400   3.692 -0.0492 -0.7651 -0.7593
39030SOL    HW222928   3.627  10.482   3.596  0.2848  1.4656  0.7778
39031SOL     OW22929   8.685  11.370   1.653 -0.0581 -0.1752  0.1994
39031SOL    HW122930   8.651  11.380   1.741  0.1817 -0.3303  0.3107
39031SOL    HW222931   8.616  11.324   1.605 -0.0827 -0.3131  0.3709
39032SOL     OW22932   1.594   7.390   2.262  0.2995 -0.0504  0.3947
39032SOL    HW122933   1.660   7.322   2.251 -0.0946 -0.5452  1.0107
39032SOL    HW222934   1.555   7.372   2.348 -0.6378  0.2379  0.0419
39033SOL     OW22935   2.892   1.086   2.110 -0.5511  0.1991  0.0702
39033SOL    HW122936   2.955   1.132   2.165  0.5840 -0.0792 -0.9463
39033SOL    HW222937   2.806   1.106   2.148 -0.0539  2.6641  0.0101
39034SOL     OW22938  10.388   5.730   4.921  0.7521 -0.2844  0.3243
39034SOL    HW122939  10.415   5.639   4.936 -0.6934 -0.7360  0.2964
39034SOL    HW222940  10.314   5.724   4.861  1.8093  1.0478 -1.2131
39035SOL     OW22941   7.333   5.926   0.421 -0.6886 -0.8578  0.0709
39035SOL    HW122942   7.424   5.898   0.423  0.0660  0.9095 -2.7582
39035SOL    HW222943   7.289   5.863   0.364 -0.4727  0.0088 -1.0850
39036SOL     OW22944   8.718  12.059   7.135  0.1038  0.3726 -0.5379
39036SOL    HW122945   8.760  11.991   7.082 -0.8462 -1.6095  1.1020
39036SOL    HW222946   8.732  12.030   7.225 -3.1073  0.5947  0.1384
39037SOL     OW22947   6.577   5.371   4.077 -0.4123 -0.2118  0.1293
39037SOL    HW122948   6.589   5.443   4.016 -0.8728  0.2083  0.5251
39037SOL    HW222949   6.551   5.297   4.022 -0.1758 -0.0104 -0.2523
39038SOL     OW22950  11.206   4.091   8.420  0.1434  0.8848  0.0304
39038SOL    HW122951  11.295   4.062   8.439  0.3610  1.4678 -0.0749
39038SOL    HW222952  11.157   4.010   8.406  0.8484  0.5868 -0.7962
39039SOL     OW22953  11.820   9.023   2.945 -0.4286 -0.0157 -0.2026
39039SOL    HW122954  11.896   8.969   2.970 -0.6394 -0.4652 -0.5202
39039SOL    HW222955  11.799   8.994   2.856 -1.0931 -0.0304 -0.0434
39040SOL     OW22956   9.277   0.610   5.075 -0.0341  0.0841 -0.8642
39040SOL    HW122957   9.329   0.666   5.017 -1.3696  2.1771 -0.1674
39040SOL    HW222958   9.202   0.583   5.022  0.6121 -1.0991 -1.2007
39041SOL     OW22959   2.893   0.088  12.171  0.0059 -0.0513 -0.3093
39041SOL    HW122960   2.988   0.095  12.166 -0.0450  1.4600  0.2331
39041SOL    HW222961   2.876  -0.004  12.191  1.2201 -0.9127 -2.8608
39042SOL     OW22962  10.374   6.742   3.031 -0.0252  0.1003 -0.1372
39042SOL    HW122963  10.297   6.794   3.008 -0.4112  0.6170  2.1141
39042SOL    HW222964  10.339   6.654   3.045 -0.0137  0.0941 -0.1464
39043SOL     OW22965   6.008   8.134   0.955 -0.0055 -0.2313  0.1155
39043SOL    HW122966   6.001   8.039   0.963 -1.0236 -0.1235  0.5922
39043SOL    HW222967   6.028   8.164   1.043  1.8408 -0.1088 -0.3111
39044SOL     OW22968  10.369   6.112   2.747  0.1086  0.2277  0.6525
39044SOL    HW122969  10.372   6.192   2.695 -1.9251 -0.9342 -1.4760
39044SOL    HW222970  10.276   6.090   2.752  0.6349 -2.6789 -0.0361
39045SOL     OW22971   0.876   8.627   2.125  0.0239  0.2087 -0.0345
39045SOL    HW122972   0.794   8.654   2.167 -0.2556 -1.7949  0.8521
39045SOL    HW222973   0.936   8.613   2.198  0.3863 -0.6933 -0.4960
39046SOL     OW22974   3.594   4.693   4.208  0.1518 -0.9174 -0.3370
39046SOL    HW122975   3.588   4.650   4.293 -1.3347 -2.2326 -1.0690
39046SOL    HW222976   3.504   4.697   4.177  0.4116  1.4410 -0.9656
39047SOL     OW22977   1.787   8.417   0.954 -0.1557 -0.2459  0.0276
39047SOL    HW122978   1.866   8.401   0.903 -1.4090 -0.3153 -1.9885
39047SOL    HW222979   1.749   8.495   0.914 -1.0002 -0.0725  1.1266
39048SOL     OW22980   5.346   6.398  11.598  0.5720  0.4156  0.1049
39048SOL    HW122981   5.441   6.390  11.597  0.6564  1.3417 -0.9091
39048SOL    HW222982   5.325   6.447  11.519 -0.6667  1.3007  0.9444
39049SOL     OW22983   6.202   6.530  11.542  0.3359  0.1069 -0.7748
39049SOL    HW122984   6.226   6.534  11.449  0.2909 -1.5448 -0.9006
39049SOL    HW222985   6.254   6.457  11.576  0.4712  0.8028  0.5483
39050SOL     OW22986  12.073  10.113   7.752 -0.4834 -0.1216 -0.1594
39050SOL    HW122987  12.145  10.066   7.711  0.0826  0.6019 -0.0054
39050SOL    HW222988  12.051  10.182   7.689 -0.6298  0.0414  0.0669
39051SOL     OW22989  10.989   9.850  11.027  0.0075  1.1327 -0.1027
39051SOL    HW122990  11.064   9.802  10.993  0.0779  2.6074 -2.1904
39051SOL    HW222991  10.924   9.845  10.957 -1.4953  0.7463  1.2542
39052SOL     OW22992  12.203   1.358  11.285  0.6181  0.1014  0.0713
39052SOL    HW122993  12.185   1.412  11.361 -0.2807 -0.2043  0.0985
39052SOL    HW222994  12.251   1.415  11.225  1.6450  0.2355  0.9960
39053SOL     OW22995   2.464   8.470  10.223  0.5685  0.2519 -0.5338
39053SOL    HW122996   2.427   8.558  10.216 -0.5316 -0.2416 -1.0502
39053SOL    HW222997   2.404   8.423  10.281  0.4347 -0.5231 -1.2901
39054SOL     OW22998   3.437   6.434   6.498  0.8011  0.1886  0.1917
39054SOL    HW122999   3.469   6.352   6.461 -2.5515 -1.2902  0.1752
39054SOL    HW223000   3.460   6.501   6.434 -0.3780 -1.5177 -2.1522
39055SOL     OW23001   6.401   0.424  10.886  0.3957 -0.0578 -0.0623
39055SOL    HW123002   6.444   0.506  10.911 -0.1053  0.0868  0.3401
39055SOL    HW223003   6.407   0.423  10.790 -1.0062  1.2554 -0.1964
39056SOL     OW23004  11.856   1.120   9.841  0.2522  0.6059 -0.0395
39056SOL    HW123005  11.833   1.144   9.752 -1.5795 -1.2032 -0.1349
39056SOL    HW223006  11.835   1.198   9.893 -1.5084  0.7295 -0.8471
39057SOL     OW23007   6.556   4.353   3.222 -0.5570 -0.6716 -0.2060
39057SOL    HW123008   6.646   4.356   3.189 -0.4714 -1.5268 -0.0704
39057SOL    HW223009   6.506   4.311   3.152 -0.6421 -1.1865  0.1566
39058SOL     OW23010   5.664   7.206   3.010  0.6484 -0.1374  0.2801
39058SOL    HW123011   5.588   7.155   2.982  0.0386  0.8310  0.1497
39058SOL    HW223012   5.738   7.162   2.969  0.0487 -0.4355 -0.5179
39059SOL     OW23013   6.336   2.414   1.168 -0.4804 -0.7284  0.4188
39059SOL    HW123014   6.365   2.387   1.255  2.9520  1.2133  0.0301
39059SOL    HW223015   6.382   2.356   1.108 -1.1009 -0.6202 -0.1809
39060SOL     OW23016   4.106   1.560   7.898  0.0296 -0.6451 -0.6961
39060SOL    HW123017   4.021   1.592   7.929  0.2938 -0.7247  0.1239
39060SOL    HW223018   4.110   1.588   7.807 -0.5751 -0.0183 -0.5383
39061SOL     OW23019   9.294   8.574  11.736  0.4948 -0.4408 -0.0750
39061SOL    HW123020   9.217   8.615  11.774  0.4573 -0.3169 -0.2824
39061SOL    HW223021   9.366   8.633  11.759  0.6359 -0.9127  0.7123
39062SOL     OW23022  10.501  10.207   8.270 -0.3729 -0.6135 -0.0487
39062SOL    HW123023  10.447  10.129   8.260 -1.0244 -0.7602  3.5830
39062SOL    HW223024  10.440  10.280   8.263 -0.0924 -0.4824 -1.3725
39063SOL     OW23025   4.443   7.184   7.027 -0.4929  0.1224 -0.3083
39063SOL    HW123026   4.351   7.161   7.024 -0.1349 -1.3736 -1.6417
39063SOL    HW223027   4.485   7.111   7.074  0.0937  0.3890 -0.4005
39064SOL     OW23028   4.409   8.789   5.515 -0.1824 -0.1330  0.5587
39064SOL    HW123029   4.392   8.810   5.423 -1.1951 -0.8324  0.5789
39064SOL    HW223030   4.502   8.764   5.516  0.7085  2.7487  0.2765
39065SOL     OW23031   1.830   4.885  10.300  0.0977  0.1357 -0.6644
39065SOL    HW123032   1.890   4.915  10.231  3.1163 -0.4311  1.4781
39065SOL    HW223033   1.779   4.962  10.322  2.2728  1.6365 -0.5108
39066SOL     OW23034   0.094  11.720   5.961  0.3579 -0.3039 -0.5036
39066SOL    HW123035   0.099  11.806   5.919 -0.7041 -0.6326 -1.3449
39066SOL    HW223036   0.006  11.688   5.940  1.0302 -1.9547 -0.9282
39067SOL     OW23037   0.436  10.970  10.747  0.0441 -0.2167 -0.4186
39067SOL    HW123038   0.487  10.942  10.823 -0.5369 -0.4819 -0.1249
39067SOL    HW223039   0.501  11.011  10.689  0.1064  2.6668  1.4471
39068SOL     OW23040  12.209   3.269   2.790 -0.6020 -0.2681 -0.4762
39068SOL    HW123041  12.191   3.329   2.863 -1.6135  0.2936 -1.1701
39068SOL    HW223042  12.124   3.251   2.752 -0.3148 -2.1497 -0.3189
39069SOL     OW23043   1.621   4.262   2.363  0.3137 -0.1118 -0.2491
39069SOL    HW123044   1.698   4.319   2.374  0.7413 -0.6356 -0.4772
39069SOL    HW223045   1.559   4.294   2.428  0.9461 -0.0403  0.3360
39070SOL     OW23046   1.182   4.414   6.729 -0.0235  0.1088  0.3180
39070SOL    HW123047   1.215   4.495   6.691  0.1776 -1.0356 -2.1688
39070SOL    HW223048   1.261   4.364   6.750 -0.0537 -1.0066 -1.9183
39071SOL     OW23049   7.743   1.971   4.146  0.0654  0.0086  0.8602
39071SOL    HW123050   7.720   1.956   4.054  1.8026  0.8059  0.2353
39071SOL    HW223051   7.663   1.953   4.195 -0.8104 -0.7484 -0.7812
39072SOL     OW23052   7.365  11.348   7.353  0.5098 -0.0639  0.0822
39072SOL    HW123053   7.451  11.373   7.320 -0.1886  0.4978 -1.4320
39072SOL    HW223054   7.336  11.422   7.406  0.5799  0.1537 -0.1809
39073SOL     OW23055   4.064   0.896   6.932 -0.4895 -0.0147 -0.1900
39073SOL    HW123056   4.034   0.875   6.843 -0.7506 -0.4665  0.0004
39073SOL    HW223057   4.061   0.813   6.979  1.0682 -0.0878 -0.1533
39074SOL     OW23058   7.329   1.823   9.315  0.3433 -0.0039  0.0529
39074SOL    HW123059   7.405   1.856   9.267  1.5459  1.2347  2.6180
39074SOL    HW223060   7.254   1.845   9.260  1.6902  0.1854 -1.8135
39075SOL     OW23061   3.803   0.108  11.387 -0.2389 -0.1660  0.2419
39075SOL    HW123062   3.845   0.191  11.411  0.4204 -0.8534  1.5802
39075SOL    HW223063   3.713   0.132  11.367 -0.1021  0.8531  0.7637
39076SOL     OW23064   4.066  11.720   8.654  0.1896 -0.0534  0.4401
39076SOL    HW123065   4.042  11.783   8.585 -0.5817 -0.8852 -0.0855
39076SOL    HW223066   3.984  11.674   8.673 -0.2100  1.7305  3.6365
39077SOL     OW23067   1.394   6.033   8.309 -0.3068  0.0443  0.0146
39077SOL    HW123068   1.452   5.992   8.373  0.0599  0.6228  0.0663
39077SOL    HW223069   1.324   6.072   8.362 -0.1136  0.3466  0.0498
39078SOL     OW23070   5.620  12.142   2.243 -0.2172  0.1943  0.3789
39078SOL    HW123071   5.643  12.203   2.313  0.1726 -0.2180  0.6178
39078SOL    HW223072   5.574  12.071   2.288 -0.3903  0.1597  0.1489
39079SOL     OW23073   4.090   5.276  10.549  0.1823 -0.4188 -0.1052
39079SOL    HW123074   4.171   5.240  10.585  0.1841  0.5498  0.9238
39079SOL    HW223075   4.098   5.371  10.561 -2.1302 -0.4119  2.3967
39080SOL     OW23076   6.881   7.696   9.857  0.2089  0.1804 -0.1453
39080SOL    HW123077   6.924   7.729   9.937 -2.0943 -0.1304  1.3074
39080SOL    HW223078   6.857   7.775   9.809  0.7387  0.3934 -0.0731
39081SOL     OW23079   3.809   1.449   4.073  0.5198 -0.7880  0.0298
39081SOL    HW123080   3.768   1.391   4.009 -0.3225  0.5023 -0.6277
39081SOL    HW223081   3.736   1.488   4.121  1.0805 -0.3890  0.5762
39082SOL     OW23082  10.186  12.282   0.945  0.0701  0.2642  0.7682
39082SOL    HW123083  10.266  12.323   0.977  0.7961 -0.3797 -0.1761
39082SOL    HW223084  10.202  12.188   0.952  0.0827  0.1029 -0.9701
39083SOL     OW23085   1.326   2.835   7.153 -0.7098 -0.3150  0.3539
39083SOL    HW123086   1.389   2.794   7.212  1.2949  2.5227  0.3990
39083SOL    HW223087   1.314   2.771   7.082 -0.0225 -2.0915  1.7574
39084SOL     OW23088   0.647   1.808   1.872 -0.1160 -0.4344 -0.8140
39084SOL    HW123089   0.615   1.817   1.782  1.0091  0.2955 -1.1717
39084SOL    HW223090   0.651   1.899   1.904 -1.4471 -0.7507  0.3333
39085SOL     OW23091   1.943   6.270   5.325  0.5385 -0.2608  0.2070
39085SOL    HW123092   1.854   6.241   5.345  0.2148  0.4358 -0.1931
39085SOL    HW223093   1.974   6.207   5.259  0.2405 -0.3462  0.1436
39086SOL     OW23094   2.209   5.126   5.867  0.2385  0.1426 -0.3937
39086SOL    HW123095   2.233   5.092   5.781 -0.8330  0.6420 -0.9052
39086SOL    HW223096   2.116   5.103   5.876  0.6028 -0.8690  1.0974
39087SOL     OW23097  10.626   2.250  10.723 -0.2947 -0.0796  0.3080
39087SOL    HW123098  10.656   2.197  10.797  1.3381  0.2732 -0.0582
39087SOL    HW223099  10.642   2.340  10.751  0.1077  0.0630 -0.3653
39088SOL     OW23100   9.412  11.180   4.831  0.4135 -0.6036  0.0970
39088SOL    HW123101   9.414  11.151   4.922 -1.5145 -0.0508  0.3476
39088SOL    HW223102   9.434  11.273   4.835  1.3734 -0.8096 -0.1378
39089SOL     OW23103  11.112  11.869   9.503 -0.2983  0.0173  0.2280
39089SOL    HW123104  11.037  11.921   9.533  0.3219 -0.7549  3.4975
39089SOL    HW223105  11.187  11.908   9.547  0.7363 -1.3130 -0.2937
39090SOL     OW23106   4.579   9.853   1.125  0.1900  0.4234 -0.2407
39090SOL    HW123107   4.573   9.775   1.070  2.3437 -0.2510  0.3733
39090SOL    HW223108   4.593   9.818   1.214  1.1439  1.4737  0.0430
39091SOL     OW23109   2.215   3.401   2.123  0.7473  0.2095  0.5794
39091SOL    HW123110   2.130   3.412   2.166  0.8230  1.4251  0.4431
39091SOL    HW223111   2.254   3.488   2.124  1.2592  0.0194 -0.8952
39092SOL     OW23112  10.479   3.954   4.055 -0.0294  0.3594  0.3528
39092SOL    HW123113  10.522   3.892   4.115  4.2268  0.1845 -2.4259
39092SOL    HW223114  10.419   3.900   4.004  1.8488 -1.1413 -0.4217
39093SOL     OW23115   5.544   9.727   9.722 -0.5960 -1.0044 -0.0450
39093SOL    HW123116   5.592   9.794   9.772 -1.2555 -0.2388 -0.4207
39093SOL    HW223117   5.553   9.648   9.775  0.0511 -0.5806  0.5015
39094SOL     OW23118   2.109   9.541   7.210  0.0686 -0.3536  0.2310
39094SOL    HW123119   2.154   9.571   7.289 -0.1716  1.2144 -0.1965
39094SOL    HW223120   2.032   9.494   7.242 -0.7646  1.4375  0.9395
39095SOL     OW23121   6.486   0.219   8.599 -0.2567  0.5801 -0.3671
39095SOL    HW123122   6.553   0.282   8.572 -0.7125  0.4913 -1.7739
39095SOL    HW223123   6.406   0.270   8.606 -0.4912  0.2828 -0.8605
39096SOL     OW23124   8.370   5.325  12.216 -0.7151 -0.3697  0.3460
39096SOL    HW123125   8.424   5.402  12.195  0.0892 -0.9922  0.0750
39096SOL    HW223126   8.433   5.253  12.222 -1.5097 -1.0912  0.1452
39097SOL     OW23127   2.002   3.376   8.797  0.1376  0.0863 -0.0773
39097SOL    HW123128   1.975   3.297   8.749 -3.2633  0.3382  1.1571
39097SOL    HW223129   1.953   3.447   8.756  1.3853  1.2218  0.3234
39098SOL     OW23130  10.931   0.834   4.164 -0.2902 -0.2078  0.3558
39098SOL    HW123131  11.001   0.813   4.227  1.4629  0.1809 -1.3610
39098SOL    HW223132  10.963   0.800   4.081 -1.5966  1.1164 -0.7351
39099SOL     OW23133   4.926   2.163   6.301 -0.5969  0.0445 -0.5769
39099SOL    HW123134   4.975   2.140   6.380  0.1299 -0.0234 -1.0358
39099SOL    HW223135   4.944   2.091   6.241 -0.8609  0.2698 -0.9234
39100SOL     OW23136   0.614   8.218  10.691  0.0367 -0.1911  1.1409
39100SOL    HW123137   0.599   8.147  10.754  1.4475 -0.3875  1.2892
39100SOL    HW223138   0.690   8.190  10.640  0.0790  0.8253  0.6062
39101SOL     OW23139   8.633  11.564   8.447  0.3860 -0.6640 -0.1224
39101SOL    HW123140   8.599  11.627   8.510  0.7791 -0.2268 -0.3432
39101SOL    HW223141   8.715  11.534   8.484  1.4977  0.8664 -1.1831
39102SOL     OW23142   5.697   9.477   7.657 -0.4100 -0.2247 -0.4062
39102SOL    HW123143   5.772   9.469   7.598  0.1537 -0.0503  0.2554
39102SOL    HW223144   5.668   9.388   7.673  0.2283 -0.3663  0.0202
39103SOL     OW23145  11.205   2.819   8.878 -0.3799 -0.0483 -0.3074
39103SOL    HW123146  11.224   2.818   8.784  0.4422  0.7531 -0.1559
39103SOL    HW223147  11.290   2.808   8.921 -0.8850 -1.7207  0.3610
39104SOL     OW23148   4.495  11.857   7.130  0.3469 -0.1764 -0.2534
39104SOL    HW123149   4.516  11.768   7.156 -1.2566 -0.5076  0.0107
39104SOL    HW223150   4.533  11.912   7.198  1.5692 -0.6079 -0.5511
39105SOL     OW23151   1.337  11.729  11.133 -0.1660 -0.3243 -0.3336
39105SOL    HW123152   1.270  11.790  11.164 -1.1019 -0.9487 -1.1035
39105SOL    HW223153   1.385  11.779  11.067  0.1203  0.1029  0.1815
39106SOL     OW23154   5.266   4.475   2.800 -0.2552  0.4489 -0.6393
39106SOL    HW123155   5.182   4.446   2.835 -0.7668  0.4535 -1.7953
39106SOL    HW223156   5.281   4.560   2.840  0.2601 -0.4618  1.2109
39107SOL     OW23157   9.278   3.773   3.345 -0.0700  0.1311  0.7896
39107SOL    HW123158   9.292   3.689   3.389 -2.0428 -0.2948  0.6946
39107SOL    HW223159   9.232   3.826   3.410 -0.0043  0.6784  0.3888
39108SOL     OW23160  12.113   9.924   0.813  0.2074 -0.0479  0.4551
39108SOL    HW123161  12.166   9.874   0.751  0.1551 -3.2512  2.7226
39108SOL    HW223162  12.024   9.891   0.801 -0.3951  1.5963  0.1568
39109SOL     OW23163   0.730   0.848  10.978  0.5579 -0.0582  0.1685
39109SOL    HW123164   0.705   0.805  11.060 -0.9959 -0.9953 -0.7437
39109SOL    HW223165   0.788   0.919  11.005 -0.3633  0.0173  2.1209
39110SOL     OW23166   5.151  12.055   2.122 -0.3190  0.2958 -0.0232
39110SOL    HW123167   5.106  12.059   2.207 -1.5345  0.1069 -0.6326
39110SOL    HW223168   5.187  11.967   2.118  0.2155  0.4800  0.5145
39111SOL     OW23169  10.672   5.920   6.718  0.2919 -0.0202  0.5415
39111SOL    HW123170  10.752   5.970   6.735  1.4288 -1.4342 -0.3522
39111SOL    HW223171  10.614   5.942   6.791  2.4190 -0.7644  2.5971
39112SOL     OW23172   4.765   2.000   6.629  0.1412  0.0148 -0.2497
39112SOL    HW123173   4.689   2.051   6.656 -0.4624 -0.2315 -1.4246
39112SOL    HW223174   4.740   1.909   6.643  0.5024 -0.0469  0.0346
39113SOL     OW23175   1.300   7.231   6.066  0.2040 -0.1049  0.0499
39113SOL    HW123176   1.233   7.166   6.087  2.5362 -3.3393 -1.6673
39113SOL    HW223177   1.359   7.230   6.141  0.4820 -0.3483 -0.1683
39114SOL     OW23178   4.930   5.805   8.440 -0.1438  0.3560  0.4542
39114SOL    HW123179   4.937   5.727   8.386 -0.2713  1.6326 -1.5120
39114SOL    HW223180   4.838   5.830   8.435 -0.5460 -0.4351  2.7305
39115SOL     OW23181   1.803   3.240   0.611 -0.4274  0.4511 -0.6486
39115SOL    HW123182   1.784   3.182   0.685 -0.1540  1.7313  0.4628
39115SOL    HW223183   1.860   3.187   0.554 -0.7405 -0.5979 -0.0185
39116SOL     OW23184   0.916   5.476   4.429 -0.0983  0.0756 -0.1462
39116SOL    HW123185   0.959   5.431   4.501  0.6560  1.2749  0.1784
39116SOL    HW223186   0.842   5.521   4.470  0.0878  0.4190 -0.1820
39117SOL     OW23187   6.584   7.067  10.061  1.1262  0.3156  0.0198
39117SOL    HW123188   6.592   6.982  10.019  2.8056 -0.4890  1.8259
39117SOL    HW223189   6.563   7.127   9.989  2.6708 -1.1560 -1.7628
39118SOL     OW23190   1.266  10.164  11.351 -0.1083  0.4634  0.5734
39118SOL    HW123191   1.321  10.210  11.414 -0.9782  0.8812  1.0456
39118SOL    HW223192   1.311  10.175  11.267  1.7948 -1.2724  1.2818
39119SOL     OW23193   1.805   1.626   6.058  0.2626 -0.4062 -0.4046
39119SOL    HW123194   1.862   1.549   6.059  1.7268  0.6136  1.9544
39119SOL    HW223195   1.722   1.596   6.096  0.4765 -1.0127 -0.4139
39120SOL     OW23196   4.316   8.222   0.927  0.0459 -0.1411  0.1248
39120SOL    HW123197   4.275   8.252   0.846  1.1892 -1.1019 -0.8428
39120SOL    HW223198   4.407   8.250   0.919  0.2113 -0.4134  0.9966
39121SOL     OW23199   3.958   8.307   1.477  0.5403 -0.4487  0.0017
39121SOL    HW123200   4.018   8.368   1.434  0.1977 -1.0714 -1.4054
39121SOL    HW223201   3.938   8.241   1.411 -1.5570 -0.3651  0.4688
39122SOL     OW23202   0.558   0.038   0.228  0.0876 -0.4315  0.3786
39122SOL    HW123203   0.612  -0.037   0.201  1.5280  0.6221  0.2246
39122SOL    HW223204   0.516   0.067   0.147  1.6789  0.5737 -0.1341
39123SOL     OW23205  11.477  10.361   8.161 -0.2694  0.1776  0.3477
39123SOL    HW123206  11.431  10.400   8.086  0.0472  1.6001  0.8666
39123SOL    HW223207  11.409  10.312   8.208 -0.7186  0.2344 -0.2312
39124SOL     OW23208   1.788  11.683   5.807  0.3150  0.8292 -0.5792
39124SOL    HW123209   1.718  11.676   5.872 -1.4827 -1.1576 -2.5593
39124SOL    HW223210   1.866  11.706   5.858 -0.7208 -1.6818  2.4591
39125SOL     OW23211   7.737  12.167   5.755  0.1688  0.7372 -1.0003
39125SOL    HW123212   7.722  12.245   5.808  1.5826  0.0912  0.4389
39125SOL    HW223213   7.712  12.094   5.811  2.3669 -0.0023 -0.8922
39126SOL     OW23214   3.568   1.540  11.275  0.0896  0.1338 -0.2052
39126SOL    HW123215   3.634   1.484  11.233  1.7712  0.2039  2.1528
39126SOL    HW223216   3.514   1.479  11.326 -1.2402  0.1699 -1.5037
39127SOL     OW23217   3.882   0.099   5.666  0.0772  0.6675  0.1171
39127SOL    HW123218   3.788   0.118   5.673 -0.3528 -0.8244 -1.0952
39127SOL    HW223219   3.910   0.145   5.587  0.3049  0.8395  0.2959
39128SOL     OW23220   5.801   1.563   8.690  0.0071  0.2388 -0.4213
39128SOL    HW123221   5.858   1.636   8.711 -0.4314  1.1575 -2.2228
39128SOL    HW223222   5.860   1.488   8.677  0.4161  0.0787  1.9672
39129SOL     OW23223   9.951  11.561   4.818  0.0586 -0.1293  0.1238
39129SOL    HW123224   9.979  11.523   4.902  1.1867 -0.4506 -0.3691
39129SOL    HW223225   9.889  11.497   4.783  2.2012 -1.8093 -0.8556
39130SOL     OW23226   0.007   5.149   8.718 -0.0905 -0.0128  0.1488
39130SOL    HW123227  -0.026   5.062   8.697 -0.1500  0.0843 -0.1640
39130SOL    HW223228   0.081   5.162   8.659  0.8203 -0.4219  1.1620
39131SOL     OW23229   5.462   2.494  10.973 -0.1453  0.3170 -0.0564
39131SOL    HW123230   5.464   2.507  10.878 -0.8419 -1.1625 -0.2935
39131SOL    HW223231   5.372   2.515  10.997 -0.1147  0.1610  0.1918
39132SOL     OW23232  11.350   7.129   5.830  0.0224  0.0103  0.5748
39132SOL    HW123233  11.260   7.101   5.812 -1.1284  3.1342  0.7936
39132SOL    HW223234  11.386   7.060   5.886 -2.8150 -0.5658  1.8585
39133SOL     OW23235   6.968  10.460   5.620  0.0264 -0.3871  0.3174
39133SOL    HW123236   7.009  10.531   5.670 -1.1083  1.2875 -1.0177
39133SOL    HW223237   6.886  10.443   5.666  0.0129 -0.4077  0.2860
39134SOL     OW23238   9.450   7.702   3.035 -0.0937  0.2039  0.0582
39134SOL    HW123239   9.526   7.760   3.038  0.5454 -0.6297  0.2778
39134SOL    HW223240   9.484   7.617   3.064 -1.7076  0.4631  3.1722
39135SOL     OW23241  11.638  11.986   7.469  0.5969  0.3399 -0.2284
39135SOL    HW123242  11.594  11.986   7.554  2.9986 -0.0258  1.1046
39135SOL    HW223243  11.573  11.948   7.409 -0.6774 -0.7652  1.7200
39136SOL     OW23244   1.195   4.270   8.727 -0.8510 -0.1445 -0.0770
39136SOL    HW123245   1.242   4.219   8.661  1.9312  3.2564 -1.0259
39136SOL    HW223246   1.224   4.234   8.811  1.7374  0.3364 -0.6914
39137SOL     OW23247   1.611   6.452   0.657  0.1981  0.3310  0.3116
39137SOL    HW123248   1.702   6.465   0.684  0.5003 -0.0776 -0.4855
39137SOL    HW223249   1.617   6.407   0.573 -0.7478 -1.6645  1.2505
39138SOL     OW23250   8.371   9.473   8.694  0.2193 -0.5438  0.0595
39138SOL    HW123251   8.324   9.495   8.775  1.0822 -0.3473  0.5179
39138SOL    HW223252   8.303   9.440   8.636 -0.7370  1.0866  0.1925
39139SOL     OW23253   0.025   8.371   8.170  0.8357  0.1377  0.5979
39139SOL    HW123254   0.081   8.408   8.101  0.1993  0.6877  0.3686
39139SOL    HW223255  -0.059   8.356   8.127  0.6783 -0.2880  1.0516
39140SOL     OW23256  10.458   8.292  11.087 -0.3723 -0.4975  0.1851
39140SOL    HW123257  10.461   8.219  11.149  2.3415 -0.5917  0.0487
39140SOL    HW223258  10.396   8.354  11.126 -2.6135 -2.7323  0.3856
39141SOL     OW23259   4.006   6.818   8.237  0.8793  0.2745 -0.0412
39141SOL    HW123260   4.022   6.860   8.321 -1.2698 -0.5039  0.8442
39141SOL    HW223261   3.911   6.807   8.234  1.1807 -3.8698 -0.4688
39142SOL     OW23262   6.101  11.192   8.503 -0.3634  0.5987  0.3574
39142SOL    HW123263   6.099  11.251   8.578 -1.4901  0.8943  0.1040
39142SOL    HW223264   6.011  11.190   8.471 -0.1048 -0.3350 -0.3594
39143SOL     OW23265   2.759   4.142  10.612  0.2216 -0.4452  0.4110
39143SOL    HW123266   2.697   4.093  10.667 -0.8077  0.1671 -0.1740
39143SOL    HW223267   2.725   4.231  10.611 -1.9342 -1.0289 -4.0161
39144SOL     OW23268   9.712   1.696   9.192  0.4202  0.4277  0.1391
39144SOL    HW123269   9.784   1.712   9.253 -2.6968  0.4257  4.2434
39144SOL    HW223270   9.645   1.759   9.217 -2.1890 -1.5673 -1.3230
39145SOL     OW23271  12.303   3.942  11.113  0.8933 -0.4097 -0.0733
39145SOL    HW123272  12.305   3.846  11.105  0.1306 -0.3487 -1.3027
39145SOL    HW223273  12.210   3.963  11.116  1.0463  0.3290 -0.3707
39146SOL     OW23274   3.399   5.865   4.459 -0.6774  0.0002 -0.2819
39146SOL    HW123275   3.338   5.849   4.387 -1.1286 -0.3040  0.1612
39146SOL    HW223276   3.485   5.841   4.424 -0.8599  0.0729 -0.7902
39147SOL     OW23277   5.638   6.836   9.747  0.0935  0.3857 -0.3508
39147SOL    HW123278   5.635   6.825   9.652 -1.3731 -0.4453 -0.2347
39147SOL    HW223279   5.682   6.757   9.779  0.0176  0.3611 -0.3054
39148SOL     OW23280   6.730   8.832   4.366  0.6204 -0.8607  0.4731
39148SOL    HW123281   6.635   8.834   4.376  0.8240  1.0681  2.8980
39148SOL    HW223282   6.745   8.838   4.271 -1.6626  1.2266  0.1616
39149SOL     OW23283   1.284   5.155   3.575  0.1481  0.7402 -0.2314
39149SOL    HW123284   1.282   5.096   3.500 -0.1987  0.3583  0.0670
39149SOL    HW223285   1.221   5.224   3.554  0.0103  0.6032 -0.2636
39150SOL     OW23286   0.709   6.232   1.669 -0.2914  0.3762 -0.1013
39150SOL    HW123287   0.707   6.253   1.575  0.1452  2.0118  0.2311
39150SOL    HW223288   0.756   6.305   1.709  0.2237 -0.6934  1.3070
39151SOL     OW23289   5.836   2.017   8.907  0.4517  0.4487  0.7792
39151SOL    HW123290   5.824   2.112   8.911 -0.7145  0.2748  2.7475
39151SOL    HW223291   5.868   1.993   8.994  0.2596 -1.0203  0.4676
39152SOL     OW23292   3.026   4.630   2.335 -0.4756 -0.1335  0.3954
39152SOL    HW123293   3.058   4.636   2.425  1.0830  1.0731 -0.1940
39152SOL    HW223294   3.032   4.538   2.312  1.1735 -0.1544  0.8371
39153SOL     OW23295   3.085   4.591   2.607 -0.3545 -0.5040  0.2844
39153SOL    HW123296   3.132   4.665   2.645  0.3684 -0.5175 -0.5429
39153SOL    HW223297   3.093   4.521   2.672 -0.5036 -0.0481  0.7935
39154SOL     OW23298   8.986   7.870  11.380 -0.3189 -0.2102  0.6436
39154SOL    HW123299   9.075   7.850  11.349  0.0535 -0.2427  1.6688
39154SOL    HW223300   8.956   7.940  11.323  0.3417 -0.2518  0.2274
39155SOL     OW23301   4.752   6.010   9.522 -0.3334 -0.3148 -0.3386
39155SOL    HW123302   4.757   5.923   9.563  0.0719  0.2856  0.9483
39155SOL    HW223303   4.713   6.066   9.589 -0.0137  0.6343 -0.9240
39156SOL     OW23304  11.426   8.036   2.383 -0.7198  0.0921 -0.7398
39156SOL    HW123305  11.478   7.959   2.408 -0.2184  0.1482 -1.5770
39156SOL    HW223306  11.345   8.027   2.433  0.9843  1.2920  2.5027
39157SOL     OW23307   0.549   8.482   3.942  0.3619 -0.5805  0.0757
39157SOL    HW123308   0.610   8.556   3.938  0.9809 -1.1214 -0.9693
39157SOL    HW223309   0.470   8.513   3.898 -0.2871  0.2339  1.7152
39158SOL     OW23310  10.475   9.093   0.745 -0.1189  0.5638 -0.8449
39158SOL    HW123311  10.388   9.129   0.758 -0.7583 -0.9628 -0.6239
39158SOL    HW223312  10.487   9.032   0.817  1.4146  1.2181 -0.5019
39159SOL     OW23313   5.517   2.796   8.084 -0.0193  0.3004 -0.1553
39159SOL    HW123314   5.606   2.772   8.059 -0.4799 -0.3621 -1.2467
39159SOL    HW223315   5.463   2.763   8.013 -1.3453 -1.0486  1.3864
39160SOL     OW23316   7.053   0.282   1.961  0.0572 -0.4492  0.2621
39160SOL    HW123317   7.061   0.370   1.996  1.0324 -0.8600  1.1443
39160SOL    HW223318   7.039   0.227   2.038 -1.8263 -0.9455 -0.3822
39161SOL     OW23319   3.572   0.746  10.985  0.1480  0.0339  0.4886
39161SOL    HW123320   3.511   0.815  10.959  0.1141 -0.2392 -0.1575
39161SOL    HW223321   3.532   0.707  11.062 -2.1243 -2.2378 -1.6807
39162SOL     OW23322   5.299  10.734   1.818 -0.9535 -0.0804 -0.0653
39162SOL    HW123323   5.300  10.727   1.914 -0.2803  0.0035 -0.0553
39162SOL    HW223324   5.378  10.686   1.791  1.1818  3.2250 -0.3060
39163SOL     OW23325  10.788   3.503   1.337  0.3978  0.1194  0.3275
39163SOL    HW123326  10.765   3.566   1.269  2.8946  1.0796  0.2667
39163SOL    HW223327  10.776   3.418   1.296 -2.0324  0.4973  0.0704
39164SOL     OW23328   1.232   6.901   2.579 -0.0172  0.2376 -0.0254
39164SOL    HW123329   1.280   6.918   2.659 -0.7343  1.4041  0.1844
39164SOL    HW223330   1.276   6.826   2.539 -1.1963 -2.1076  2.7219
39165SOL     OW23331   4.070   0.671  10.524 -0.0427 -0.0618 -0.6332
39165SOL    HW123332   4.064   0.579  10.500 -1.4615 -0.4197  0.8652
39165SOL    HW223333   3.979   0.699  10.534  0.3620  1.5132 -1.0576
39166SOL     OW23334   3.310  10.946   9.533  0.0389 -0.1750  0.4523
39166SOL    HW123335   3.301  11.007   9.606  0.6836 -0.9580  1.2073
39166SOL    HW223336   3.305  10.859   9.573  1.1494 -0.6319 -0.3283
39167SOL     OW23337   0.331   4.390   7.343 -0.0792 -0.0525 -0.1221
39167SOL    HW123338   0.410   4.336   7.351  0.5929  0.9232 -0.0581
39167SOL    HW223339   0.355   4.474   7.381 -0.7556  0.6563 -1.1998
39168SOL     OW23340   3.579   3.259   3.496 -0.1649  0.1335  0.7686
39168SOL    HW123341   3.501   3.208   3.476 -0.0453 -0.3112  1.4035
39168SOL    HW223342   3.547   3.332   3.549 -0.1526 -0.0729  1.0660
39169SOL     OW23343   0.869   7.088   9.050 -0.0971 -0.0479  0.2720
39169SOL    HW123344   0.891   6.996   9.038  0.5930  0.0897  0.4405
39169SOL    HW223345   0.826   7.091   9.136 -2.3501 -0.5746 -0.7805
39170SOL     OW23346   9.597   9.444   7.337  0.1651  0.4879  0.4277
39170SOL    HW123347   9.512   9.470   7.372 -0.7649 -0.9822 -0.6208
39170SOL    HW223348   9.613   9.506   7.265  0.5050  1.4147  1.2756
39171SOL     OW23349   8.877   7.624  10.676 -0.0666 -0.0742 -0.4588
39171SOL    HW123350   8.932   7.660  10.746  2.8324 -1.5526 -1.7708
39171SOL    HW223351   8.914   7.537  10.660 -1.8183 -0.5065 -2.5778
39172SOL     OW23352   9.173  11.384   9.379  0.2985 -0.6641 -0.8382
39172SOL    HW123353   9.199  11.368   9.470 -0.2173 -2.8346 -1.0055
39172SOL    HW223354   9.251  11.360   9.328  0.0879 -0.9378 -1.0326
39173SOL     OW23355   1.982  12.255   6.699 -0.0589  0.0860 -0.3832
39173SOL    HW123356   1.898  12.219   6.670 -0.6583  0.0484  1.2899
39173SOL    HW223357   2.012  12.307   6.625 -0.8117 -1.1219 -1.5766
39174SOL     OW23358   8.275   2.875  11.226 -0.2230  0.0825  0.8604
39174SOL    HW123359   8.354   2.925  11.251  0.9405 -1.9789  1.5117
39174SOL    HW223360   8.303   2.822  11.152 -1.4313  0.3355  0.2027
39175SOL     OW23361   9.528   0.394   4.312 -0.3235 -0.1183  0.0474
39175SOL    HW123362   9.492   0.380   4.225  1.6776 -1.3621 -0.6608
39175SOL    HW223363   9.586   0.470   4.303 -0.3364 -0.0655  0.3706
39176SOL     OW23364   4.185   2.754  10.847  0.0083 -0.1725  0.3036
39176SOL    HW123365   4.192   2.744  10.942  0.3733 -1.2353  0.1751
39176SOL    HW223366   4.259   2.808  10.823 -0.2083  0.2827  0.6487
39177SOL     OW23367   0.572   7.753   6.008  0.3724  0.4531  0.1242
39177SOL    HW123368   0.484   7.779   5.980 -0.2398  0.1056  1.5960
39177SOL    HW223369   0.631   7.796   5.946 -0.8366  0.5629 -0.9856
39178SOL     OW23370   4.960   6.169   1.086  0.7014 -0.3188 -0.1683
39178SOL    HW123371   4.884   6.216   1.051 -0.0466 -0.6457  0.9712
39178SOL    HW223372   5.017   6.156   1.010 -0.5555 -0.4126 -1.1302
39179SOL     OW23373   3.607   9.863   0.992  0.9559 -0.5117 -0.1441
39179SOL    HW123374   3.676   9.805   0.960  0.1786 -1.5448  0.0160
39179SOL    HW223375   3.592   9.835   1.082  0.7991  0.1781  0.0556
39180SOL     OW23376   9.375   8.000   3.107  0.4643  0.0372  0.1377
39180SOL    HW123377   9.370   8.061   3.033  1.6346 -0.1370 -0.1060
39180SOL    HW223378   9.396   7.915   3.067 -1.1603 -0.5480  0.4744
39181SOL     OW23379   5.622   4.619   0.129  0.6177 -0.6291  0.0603
39181SOL    HW123380   5.550   4.596   0.071  0.8300 -0.3231 -0.3303
39181SOL    HW223381   5.590   4.692   0.181 -0.0337 -1.7243  1.2543
39182SOL     OW23382   1.254   6.622   9.878  0.6303 -0.1999 -0.0153
39182SOL    HW123383   1.342   6.609   9.845  0.1417 -0.3335 -1.3034
39182SOL    HW223384   1.248   6.563   9.954  2.0047  0.6798  0.8191
39183SOL     OW23385  10.885  11.447   8.957 -0.4510  0.2469  0.4330
39183SOL    HW123386  10.939  11.375   8.926 -0.2078  0.6997 -0.2219
39183SOL    HW223387  10.909  11.457   9.049  0.9817  0.7810  0.0289
39184SOL     OW23388  11.021  10.496   3.124  0.2160 -0.1514  0.0406
39184SOL    HW123389  11.102  10.458   3.156 -0.4220  0.2920  2.3827
39184SOL    HW223390  11.020  10.585   3.160 -0.5373  0.4222 -1.3415
39185SOL     OW23391   7.786   3.228  10.714  0.2915 -0.0947  0.2597
39185SOL    HW123392   7.837   3.193  10.641  1.1626 -0.5078  1.0354
39185SOL    HW223393   7.731   3.296  10.675  2.2996  1.2165 -0.4503
39186SOL     OW23394  11.844  11.562   4.406  0.2778  0.2645  0.3276
39186SOL    HW123395  11.914  11.504   4.435  2.2107  1.9199 -0.7358
39186SOL    HW223396  11.840  11.550   4.311 -2.1534 -1.0510  0.5086
39187SOL     OW23397   1.421   8.834   5.508 -0.5018 -0.4239 -0.4209
39187SOL    HW123398   1.353   8.825   5.575 -0.8263  0.8426 -0.5657
39187SOL    HW223399   1.416   8.925   5.481  0.3441 -0.6627 -1.4203
39188SOL     OW23400   4.818   4.062   9.722  0.1528 -0.1774  0.1967
39188SOL    HW123401   4.900   4.075   9.673  0.6989 -0.0063  1.1217
39188SOL    HW223402   4.776   3.988   9.679  0.3568  0.2991 -0.8586
39189SOL     OW23403   5.537   9.677   3.331  0.0885  0.5230 -0.7960
39189SOL    HW123404   5.615   9.731   3.323  1.3307 -0.9564  0.5339
39189SOL    HW223405   5.565   9.590   3.300 -1.3867  0.2295 -1.4152
39190SOL     OW23406   4.077   5.073   4.238  0.2846 -0.0714  0.8839
39190SOL    HW123407   4.158   5.025   4.251 -0.1511 -0.7750  1.0572
39190SOL    HW223408   4.022   5.049   4.313  0.6171  1.9071  1.8439
39191SOL     OW23409  10.890   7.446   7.575 -0.0025  0.0630  0.0077
39191SOL    HW123410  10.918   7.405   7.493  2.2620 -0.3409  0.9141
39191SOL    HW223411  10.944   7.524   7.582 -0.3943  0.2588  0.9799
39192SOL     OW23412   3.572   1.807   7.275  0.0239 -0.6686  0.2407
39192SOL    HW123413   3.579   1.751   7.353  0.6492 -0.5454  0.2796
39192SOL    HW223414   3.552   1.894   7.309 -0.2019 -0.7180  0.2325
39193SOL     OW23415   6.266  11.797  10.669  0.0749 -0.2871 -0.8289
39193SOL    HW123416   6.180  11.827  10.638  0.3086 -0.5470 -1.7762
39193SOL    HW223417   6.305  11.874  10.709 -0.5067 -0.1038 -0.6064
39194SOL     OW23418   1.854   9.788   0.954  0.0393 -0.3340  0.0932
39194SOL    HW123419   1.908   9.867   0.960  2.3375 -1.7442 -0.6815
39194SOL    HW223420   1.803   9.800   0.874  0.7420  0.1572 -0.2975
39195SOL     OW23421  11.057   2.199   0.654  0.2289 -0.1427  0.0458
39195SOL    HW123422  11.007   2.250   0.591  0.8711  0.9311  0.3863
39195SOL    HW223423  11.011   2.115   0.659 -0.7730  0.3541 -0.6180
39196SOL     OW23424   6.265   6.316   7.775 -0.5817 -0.2009  0.2638
39196SOL    HW123425   6.360   6.306   7.781 -0.8288 -2.0528  1.7567
39196SOL    HW223426   6.244   6.384   7.839 -0.3360 -0.1896  0.3332
39197SOL     OW23427   5.910  10.421  10.810  0.4970 -0.4991  0.1751
39197SOL    HW123428   5.893  10.420  10.904  0.9240 -0.4101  0.2580
39197SOL    HW223429   5.881  10.507  10.781  0.7644 -0.3656  0.3035
39198SOL     OW23430   3.660   9.467  11.573  0.8633 -0.2718 -0.7310
39198SOL    HW123431   3.642   9.431  11.660 -1.3200 -1.1014 -1.4749
39198SOL    HW223432   3.720   9.404  11.533  1.1016 -0.3895 -0.2117
39199SOL     OW23433   5.449   4.938   7.174 -0.6596 -0.3714  0.0959
39199SOL    HW123434   5.527   4.914   7.125 -0.7427 -0.6768  0.1103
39199SOL    HW223435   5.402   4.998   7.117 -0.7087 -0.6493 -0.1624
39200SOL     OW23436   1.953   5.498  12.320 -0.0377 -0.6484 -0.2398
39200SOL    HW123437   1.897   5.421  12.318  0.9742 -1.4149  0.3169
39200SOL    HW223438   2.005   5.488  12.400  0.4116  0.3949 -0.3828
39201SOL     OW23439   7.406   1.850  10.944 -0.0782  0.4098  0.5297
39201SOL    HW123440   7.405   1.940  10.912 -1.8462  0.1246 -0.3135
39201SOL    HW223441   7.326   1.842  10.996 -1.9411 -1.5869 -2.3225
39202SOL     OW23442   2.484   5.170   0.154 -0.0037  0.3909  0.4216
39202SOL    HW123443   2.507   5.083   0.185  0.4319  0.4577  0.2915
39202SOL    HW223444   2.395   5.184   0.185 -0.8173 -0.8761 -1.2257
39203SOL     OW23445   3.775   1.681  11.604  0.3013  0.7146 -0.0740
39203SOL    HW123446   3.847   1.673  11.666  0.4985  1.5672 -0.1817
39203SOL    HW223447   3.797   1.621  11.533 -0.2186 -0.7327  0.9323
39204SOL     OW23448   6.871   0.087   2.732 -0.0663  0.2504  0.6987
39204SOL    HW123449   6.791   0.136   2.710  0.2202  0.7296  0.7213
39204SOL    HW223450   6.884   0.103   2.825  0.0875  0.2095  0.6839
39205SOL     OW23451   1.818   1.721   2.150 -0.2623 -0.0316  0.5557
39205SOL    HW123452   1.791   1.657   2.085  0.4490 -0.0464  0.2712
39205SOL    HW223453   1.815   1.805   2.105  0.1872 -0.0365  0.5116
39206SOL     OW23454  10.641   6.428   9.760 -0.6148 -0.0374 -0.0246
39206SOL    HW123455  10.653   6.417   9.854  1.9690 -1.4655 -0.4277
39206SOL    HW223456  10.694   6.506   9.739 -0.9550  0.1098 -0.3316
39207SOL     OW23457   2.348   8.527  10.613 -0.2483 -0.0763 -0.7577
39207SOL    HW123458   2.353   8.478  10.695 -1.2936  0.1294 -0.5556
39207SOL    HW223459   2.306   8.465  10.552 -0.9459  0.3183 -0.6875
39208SOL     OW23460   8.388   0.639   6.086 -0.5267  0.9123  0.4102
39208SOL    HW123461   8.335   0.581   6.141 -1.1570  0.0770 -1.0393
39208SOL    HW223462   8.396   0.593   6.003 -0.4512  2.5866 -0.5593
39209SOL     OW23463   6.333   7.134   0.136  0.4826  0.0802 -0.0059
39209SOL    HW123464   6.295   7.061   0.087  1.4625 -0.7838  0.4726
39209SOL    HW223465   6.286   7.211   0.105 -0.9399 -0.8151 -0.1422
39210SOL     OW23466   7.851   0.173   4.681 -0.0303  0.2464 -0.3582
39210SOL    HW123467   7.873   0.081   4.699  1.2301  0.6175  0.1516
39210SOL    HW223468   7.758   0.172   4.658  0.0204 -1.1826 -0.5882
39211SOL     OW23469   0.951  10.925   4.651 -0.0685 -0.7187  0.0928
39211SOL    HW123470   0.899  10.887   4.722 -0.3798  0.5746  0.5862
39211SOL    HW223471   1.024  10.969   4.696 -0.9071  1.1175 -0.2664
39212SOL     OW23472   9.571   4.039   6.341  0.1739  0.1144  0.0434
39212SOL    HW123473   9.549   3.956   6.383 -0.5448 -0.3276 -1.1636
39212SOL    HW223474   9.513   4.103   6.383 -0.0476 -0.1892  0.2047
39213SOL     OW23475   1.662   0.194   4.547  0.3927 -0.3115 -0.2261
39213SOL    HW123476   1.751   0.211   4.578  0.5074 -1.3791  0.0877
39213SOL    HW223477   1.672   0.123   4.483  0.0787  1.4150 -2.3001
39214SOL     OW23478   4.127   4.699   5.926 -0.3147  0.3660 -0.0575
39214SOL    HW123479   4.176   4.647   5.862  0.5270  0.4236  0.5223
39214SOL    HW223480   4.071   4.755   5.873 -0.3350 -0.2709 -0.7224
39215SOL     OW23481   9.561   3.634   8.252  0.2517  0.0549  0.1691
39215SOL    HW123482   9.500   3.566   8.282 -0.4042  0.3242 -0.5038
39215SOL    HW223483   9.628   3.586   8.204 -0.9332 -0.0385 -1.4694
39216SOL     OW23484   5.740   8.156   9.969  0.3172 -0.2871  0.1786
39216SOL    HW123485   5.658   8.120  10.001  1.1583 -2.2090  0.3016
39216SOL    HW223486   5.741   8.247  10.001 -1.0513 -0.6869  1.4502
39217SOL     OW23487   8.406   3.386   6.440  0.4288 -0.4635  0.1084
39217SOL    HW123488   8.347   3.459   6.421  0.8459 -0.6362 -2.0859
39217SOL    HW223489   8.489   3.427   6.462  0.0666 -0.2671  1.1873
39218SOL     OW23490   6.698   4.732   0.947 -0.4018 -0.1779  0.0264
39218SOL    HW123491   6.746   4.722   1.029 -0.2248 -1.6055 -0.2330
39218SOL    HW223492   6.609   4.756   0.973 -0.1579  0.1373  0.5892
39219SOL     OW23493  10.583  10.978   8.122  0.6610  0.1461 -0.1549
39219SOL    HW123494  10.558  11.042   8.056  0.2462  1.3374  1.1218
39219SOL    HW223495  10.511  10.979   8.185  1.4487 -0.3119  0.7800
39220SOL     OW23496   6.780   8.282  10.244 -0.7132 -0.1530  0.4284
39220SOL    HW123497   6.850   8.337  10.280 -0.7983 -0.4432  1.0588
39220SOL    HW223498   6.761   8.220  10.314 -2.5886  0.8077  0.8341
39221SOL     OW23499   2.068  11.634   8.208  0.9242  0.2841  0.2665
39221SOL    HW123500   2.099  11.591   8.288  0.4240 -0.2078  0.2045
39221SOL    HW223501   2.059  11.562   8.145 -1.3190  0.2275  0.5894
39222SOL     OW23502  10.184   7.407   6.328  0.3155 -0.5940  0.3247
39222SOL    HW123503  10.150   7.336   6.275 -0.9396 -0.0915  0.4011
39222SOL    HW223504  10.106   7.456   6.355  1.0800  0.3476  0.9236
39223SOL     OW23505   5.386   0.027   1.264  0.4963 -0.0008  0.2519
39223SOL    HW123506   5.399   0.118   1.291  2.1542  0.3231 -1.5193
39223SOL    HW223507   5.377  -0.021   1.347  1.1652  1.5322  1.2557
39224SOL     OW23508   5.474   3.713   0.336 -0.1474 -0.1315 -0.7294
39224SOL    HW123509   5.512   3.662   0.407  0.0257 -0.7926 -1.2862
39224SOL    HW223510   5.382   3.724   0.361  0.2452  0.9944  0.3506
39225SOL     OW23511   0.555  10.992  11.832 -0.1110  0.2507 -0.6613
39225SOL    HW123512   0.469  10.988  11.791  0.5140  1.2558 -2.1258
39225SOL    HW223513   0.557  11.077  11.876  0.1469  0.2367 -0.6447
39226SOL     OW23514   5.873   0.766   5.134  0.0685 -0.7502  0.4046
39226SOL    HW123515   5.875   0.862   5.144 -0.9141 -0.6429 -0.1990
39226SOL    HW223516   5.897   0.751   5.043  1.2712 -1.1677  0.7739
39227SOL     OW23517   5.628   8.163  11.930  0.2054  0.4484 -0.4268
39227SOL    HW123518   5.701   8.101  11.931  0.8211  1.1040 -1.9153
39227SOL    HW223519   5.558   8.117  11.884  0.5450  0.7126 -1.2227
39228SOL     OW23520   3.250   8.015   8.214 -0.7267 -0.8755 -0.0753
39228SOL    HW123521   3.330   7.964   8.226 -0.6864 -0.6666  0.6064
39228SOL    HW223522   3.211   7.980   8.134 -0.4962 -1.7009  0.1603
39229SOL     OW23523  11.580   3.110   8.659 -0.3104 -0.2153 -0.1022
39229SOL    HW123524  11.500   3.145   8.697  0.7551  1.7763  0.4903
39229SOL    HW223525  11.592   3.159   8.578  0.3179 -0.4874 -0.1821
39230SOL     OW23526   1.196   6.091   9.619  0.3263 -0.3257  0.0895
39230SOL    HW123527   1.215   6.154   9.688 -1.1647  1.2639 -0.8694
39230SOL    HW223528   1.236   6.129   9.540  0.7269 -1.3684 -0.2318
39231SOL     OW23529   1.012  10.975  10.973  0.0943 -0.3805  0.0953
39231SOL    HW123530   0.986  10.993  10.883  2.1788 -0.5456 -0.5875
39231SOL    HW223531   1.015  11.062  11.015  0.5678 -0.1295 -0.4388
39232SOL     OW23532  10.408   0.742   7.073  0.1950 -0.1898 -0.1374
39232SOL    HW123533  10.315   0.762   7.072  0.0082 -0.7787  1.6334
39232SOL    HW223534  10.439   0.765   6.985 -1.1896  1.9172 -0.1361
39233SOL     OW23535   8.808  11.489   2.658 -0.0651 -0.2074 -0.0501
39233SOL    HW123536   8.727  11.508   2.610  0.6498  0.2120 -1.1230
39233SOL    HW223537   8.846  11.575   2.675  2.0935 -0.4418 -3.0003
39234SOL     OW23538   3.658   4.818   3.341  0.3431  0.3448 -0.1858
39234SOL    HW123539   3.707   4.788   3.264 -0.9596 -0.4607 -0.7431
39234SOL    HW223540   3.623   4.738   3.380  0.8485  0.7559  1.1712
39235SOL     OW23541   4.674   6.308   9.183 -0.4850  0.2837 -0.2515
39235SOL    HW123542   4.698   6.253   9.108 -1.4915 -1.3281  0.5576
39235SOL    HW223543   4.603   6.363   9.150 -0.8068 -0.2980 -0.5514
39236SOL     OW23544   1.776   8.881   0.747 -0.1052 -0.7318 -0.3023
39236SOL    HW123545   1.774   8.970   0.782 -2.5107 -0.9045  0.1566
39236SOL    HW223546   1.728   8.887   0.664 -1.0383 -1.7226  0.1432
39237SOL     OW23547  11.833  10.481   7.001  0.5624  0.1230 -0.0513
39237SOL    HW123548  11.766  10.485   7.069  0.0348 -0.6222 -0.5043
39237SOL    HW223549  11.805  10.410   6.944  1.9554 -0.4885 -0.0289
39238SOL     OW23550   1.299   6.772  11.907  0.2729 -0.1992 -0.2259
39238SOL    HW123551   1.329   6.682  11.923 -0.6781 -0.4988 -0.0851
39238SOL    HW223552   1.379   6.825  11.915  0.7881 -0.9875  0.0227
39239SOL     OW23553   8.960   3.949   4.315 -0.0401 -0.1003  0.1524
39239SOL    HW123554   8.972   3.955   4.409  0.7284 -0.3862  0.0777
39239SOL    HW223555   9.043   3.980   4.278  0.6360 -2.3714 -0.3750
39240SOL     OW23556   7.872   8.621   5.062  0.1640 -0.3217  0.6380
39240SOL    HW123557   7.869   8.587   4.973  0.6427 -0.8006  0.7956
39240SOL    HW223558   7.793   8.587   5.104 -0.4622  0.5286  0.1944
39241SOL     OW23559   4.978   4.954  11.018 -0.4245 -0.1973 -0.4648
39241SOL    HW123560   5.030   4.874  11.008 -0.7838 -0.2138 -2.5505
39241SOL    HW223561   4.890   4.929  10.987 -1.0513  0.5007  0.6747
39242SOL     OW23562   6.997   7.744   5.998  0.3545 -0.4368  0.3311
39242SOL    HW123563   6.936   7.691   5.946 -0.2266  0.7908 -0.2683
39242SOL    HW223564   7.035   7.806   5.936 -2.0729  2.6399  1.6467
39243SOL     OW23565   3.962   5.733   2.236  0.1308 -0.7557 -0.3466
39243SOL    HW123566   3.928   5.806   2.288  1.1354 -1.3471  1.2065
39243SOL    HW223567   3.903   5.660   2.254  0.7524 -1.0940  0.3801
39244SOL     OW23568   1.445   8.894   0.821  0.3916  0.0825 -0.4626
39244SOL    HW123569   1.452   8.948   0.743  1.5412 -0.3460 -0.6639
39244SOL    HW223570   1.484   8.947   0.891 -1.6493  0.9529  0.1236
39245SOL     OW23571   6.592   1.854   6.778 -0.1608 -0.1213  0.1354
39245SOL    HW123572   6.676   1.813   6.798 -0.2934 -0.5242 -0.1189
39245SOL    HW223573   6.612   1.948   6.771  0.2792 -0.2202  0.0164
39246SOL     OW23574   4.301   9.587   5.597 -0.3211 -0.3595 -0.3535
39246SOL    HW123575   4.261   9.634   5.670  0.3584 -0.2087 -0.0762
39246SOL    HW223576   4.227   9.563   5.541 -0.7705  0.1810 -0.0017
39247SOL     OW23577   0.492   6.342  12.157 -0.0229  0.9513 -0.4934
39247SOL    HW123578   0.473   6.403  12.086 -0.1472  2.1538  0.5301
39247SOL    HW223579   0.563   6.384  12.206 -0.3312  0.4359  0.4194
39248SOL     OW23580   3.097   6.490   3.545 -0.1829 -0.2789 -0.3432
39248SOL    HW123581   3.137   6.404   3.527  1.8499  0.5720 -0.1925
39248SOL    HW223582   3.004   6.478   3.525  0.1704 -2.3091 -1.0183
39249SOL     OW23583   8.381  11.720  11.363 -0.0304  0.1214 -0.5984
39249SOL    HW123584   8.351  11.691  11.449 -0.1737 -1.2029 -1.0682
39249SOL    HW223585   8.461  11.670  11.347 -1.1921 -1.4005 -2.1514
39250SOL     OW23586   1.572  11.258   2.672 -0.6654  0.1715 -0.1551
39250SOL    HW123587   1.656  11.227   2.706 -0.1287  0.0774 -1.4774
39250SOL    HW223588   1.509  11.241   2.742  0.4517  0.4744  0.9587
39251SOL     OW23589   3.132   0.161   3.169 -0.0691 -0.3717  1.0744
39251SOL    HW123590   3.091   0.183   3.086 -0.5520 -1.5099  0.9972
39251SOL    HW223591   3.145   0.246   3.213 -1.5126  0.0938  0.6463
39252SOL     OW23592  10.706   1.663   4.239  0.0740  0.0697  1.1773
39252SOL    HW123593  10.801   1.668   4.250  0.5895 -0.2800 -2.0029
39252SOL    HW223594  10.685   1.571   4.251  0.6241 -0.3370 -0.6802
39253SOL     OW23595   4.525   3.022   2.994 -0.1863 -0.7288 -0.3761
39253SOL    HW123596   4.503   3.113   2.971  0.1351 -0.0006  1.9137
39253SOL    HW223597   4.530   2.976   2.910 -1.4253  1.1226 -1.5343
39254SOL     OW23598  11.333  12.282   9.772  0.1115  0.3858  0.0427
39254SOL    HW123599  11.382  12.204   9.796 -0.4361 -0.2115 -0.7150
39254SOL    HW223600  11.390  12.330   9.713 -0.1348 -0.2149 -0.6927
39255SOL     OW23601   8.502   0.053  10.463  0.0736  0.4116  0.2615
39255SOL    HW123602   8.595   0.072  10.449 -0.5037  1.6182 -2.7711
39255SOL    HW223603   8.483   0.091  10.549  2.0632  1.4320  0.3280
39256SOL     OW23604  10.221   3.570   5.601  0.0530 -0.1345 -0.5809
39256SOL    HW123605  10.308   3.608   5.587  0.6345 -1.1145  0.2051
39256SOL    HW223606  10.211   3.567   5.697 -0.7983 -0.1394 -0.6623
39257SOL     OW23607   5.576  11.803   4.482 -0.2948 -0.0927 -0.4959
39257SOL    HW123608   5.520  11.857   4.426 -0.4034 -0.6791 -0.9696
39257SOL    HW223609   5.665  11.830   4.461 -0.3711  0.3392 -0.2704
39258SOL     OW23610   5.473   3.040   0.731 -0.1286  0.5892  0.2723
39258SOL    HW123611   5.531   3.042   0.655 -0.1928 -0.4077  0.1736
39258SOL    HW223612   5.527   3.071   0.804  0.0664  1.1279 -0.0989
39259SOL     OW23613  10.050   0.553   0.078  0.0593 -0.1878  0.1349
39259SOL    HW123614   9.984   0.564   0.147 -0.3862  0.7565 -0.4222
39259SOL    HW223615  10.090   0.468   0.097 -0.4945 -0.2370  1.1801
39260SOL     OW23616   7.917   3.251   2.247 -0.0226  0.3550  0.5196
39260SOL    HW123617   7.853   3.193   2.288  0.1024 -0.8733 -0.9499
39260SOL    HW223618   8.001   3.206   2.257  0.2314  0.7538  0.2299
39261SOL     OW23619   9.754   4.888   2.600  0.1258  0.4144 -0.5564
39261SOL    HW123620   9.675   4.840   2.573  1.3237 -0.9941 -1.7271
39261SOL    HW223621   9.745   4.898   2.695 -1.9210  1.1810 -0.7903
39262SOL     OW23622  10.446   4.675   0.006  0.0265  0.0023 -0.2301
39262SOL    HW123623  10.427   4.602   0.065 -0.8332 -0.5505 -1.1610
39262SOL    HW223624  10.520   4.720   0.046  0.4256 -1.2476  0.4730
39263SOL     OW23625   6.393   1.350   0.588 -0.9358  0.3031  0.1240
39263SOL    HW123626   6.456   1.396   0.532 -2.2676 -0.3623 -2.0774
39263SOL    HW223627   6.315   1.406   0.587 -1.4511 -0.3967  0.1366
39264SOL     OW23628   0.880   9.286  11.526 -0.2907  0.0376 -0.0578
39264SOL    HW123629   0.944   9.217  11.513 -0.1506  0.2919 -0.8010
39264SOL    HW223630   0.869   9.292  11.620  1.6795  0.7989  0.1747
39265SOL     OW23631   4.201  12.205   3.134  0.2627 -0.0299  0.1563
39265SOL    HW123632   4.248  12.217   3.051 -1.1370 -0.3998 -0.7208
39265SOL    HW223633   4.232  12.120   3.167 -1.5303 -1.4813 -1.6613
39266SOL     OW23634   6.268   1.178   2.522  0.3290  0.0817  0.0612
39266SOL    HW123635   6.353   1.218   2.542 -0.0915  1.6588 -1.2138
39266SOL    HW223636   6.290   1.096   2.478  1.1807  0.1192  0.3989
39267SOL     OW23637   9.905   4.368   6.131  0.0577 -0.1671 -0.4805
39267SOL    HW123638  10.000   4.357   6.137 -0.1404 -2.1554 -0.5135
39267SOL    HW223639   9.869   4.308   6.196 -1.1760  2.4067  1.4143
39268SOL     OW23640  12.131   3.924   8.102 -0.7382  0.6189  0.4118
39268SOL    HW123641  12.172   3.841   8.081 -1.5741  0.5178 -0.8948
39268SOL    HW223642  12.037   3.908   8.093 -0.9111  1.7178  0.0926
39269SOL     OW23643   2.005  10.710  10.072 -0.1301 -0.4961 -0.2148
39269SOL    HW123644   2.012  10.780  10.137  1.8913 -1.4121  0.6434
39269SOL    HW223645   1.913  10.687  10.071 -0.9559  2.3828 -0.8025
39270SOL     OW23646   0.195   4.093   4.081  0.0433 -0.1499 -0.6396
39270SOL    HW123647   0.123   4.156   4.084 -0.1583 -0.4180  1.0434
39270SOL    HW223648   0.209   4.078   3.987 -1.1167  0.9967 -1.0358
39271SOL     OW23649   8.214   5.735   5.136 -0.3709  0.3711  0.1640
39271SOL    HW123650   8.236   5.660   5.080 -0.9501 -0.2829  0.7874
39271SOL    HW223651   8.166   5.794   5.078  0.8482  0.6745 -0.5577
39272SOL     OW23652   3.471  11.024   6.442  0.2502 -0.4922  0.1644
39272SOL    HW123653   3.565  11.038   6.438  0.0673  1.5331  1.5665
39272SOL    HW223654   3.436  11.064   6.362  0.5171 -0.8567 -0.1386
39273SOL     OW23655  11.838   5.771   2.169  0.1865 -0.3667 -0.2610
39273SOL    HW123656  11.893   5.847   2.186 -0.9579  0.2633  0.8082
39273SOL    HW223657  11.766   5.805   2.116  0.1553 -0.9141 -0.5787
39274SOL     OW23658   3.498   9.275   9.121  0.1739 -0.0950  0.1346
39274SOL    HW123659   3.403   9.271   9.108 -0.0011  0.5971  1.1150
39274SOL    HW223660   3.531   9.194   9.083 -0.6832  0.1751 -1.2575
39275SOL     OW23661   5.823   4.749   5.944  0.1922 -0.1238 -0.3700
39275SOL    HW123662   5.800   4.757   6.036  0.2576  0.7824 -0.4292
39275SOL    HW223663   5.848   4.657   5.934  1.0377 -0.0275  0.7096
39276SOL     OW23664   6.833   1.878   4.205  0.7474  0.5535 -0.1133
39276SOL    HW123665   6.866   1.938   4.138  0.0576  0.1861 -0.7897
39276SOL    HW223666   6.849   1.791   4.170  1.1031  0.3436  0.5571
39277SOL     OW23667   7.279  11.308  12.151 -0.5335  0.2102 -0.4222
39277SOL    HW123668   7.276  11.367  12.227 -0.5387  1.3215 -1.2676
39277SOL    HW223669   7.228  11.232  12.178 -0.8567  0.7562  0.5547
39278SOL     OW23670   6.614   1.956   4.874 -0.5224  0.2782  0.0878
39278SOL    HW123671   6.579   2.017   4.809 -2.5512  0.2869  1.1149
39278SOL    HW223672   6.565   1.875   4.860  0.5628 -0.4279  0.2149
39279SOL     OW23673   9.197   9.758   1.097  0.2135  0.2945 -0.5939
39279SOL    HW123674   9.259   9.765   1.170  0.3629  0.7617 -0.7611
39279SOL    HW223675   9.200   9.844   1.055  0.4647 -0.1165 -1.4215
39280SOL     OW23676   9.825   0.584   5.861 -0.0289 -0.0928  0.4301
39280SOL    HW123677   9.766   0.514   5.833  2.2299 -1.7304 -0.5535
39280SOL    HW223678   9.841   0.636   5.782 -1.0722  1.1298  0.9792
39281SOL     OW23679  11.330   3.484   3.593 -0.4344  0.2516 -0.1627
39281SOL    HW123680  11.382   3.477   3.674  0.8483  0.8608 -0.9020
39281SOL    HW223681  11.243   3.453   3.618  0.7078 -2.6649  0.6814
39282SOL     OW23682  12.174   1.902  10.897 -0.0185  0.1450 -0.2026
39282SOL    HW123683  12.171   1.808  10.915 -2.3493  0.3637  0.9907
39282SOL    HW223684  12.087   1.922  10.862  0.4462  1.8610 -0.4620
39283SOL     OW23685  11.676   5.992   2.406  0.2959 -0.2321 -0.4338
39283SOL    HW123686  11.600   5.954   2.452  0.4777 -0.7263 -0.5372
39283SOL    HW223687  11.643   6.014   2.319 -0.3036  1.5867  0.2061
39284SOL     OW23688   8.253   2.948   8.898  0.5522  0.1782  0.1722
39284SOL    HW123689   8.243   3.018   8.962  1.5884  0.4954  0.0052
39284SOL    HW223690   8.208   2.980   8.819  2.6468  1.5544 -0.5598
39285SOL     OW23691   1.525   4.662  11.608  0.2916  0.0109  0.2705
39285SOL    HW123692   1.457   4.595  11.604 -0.1395  0.1859  2.7072
39285SOL    HW223693   1.483   4.742  11.576 -0.4698 -0.0431  1.0815
39286SOL     OW23694   1.762   4.483   9.500 -0.6212  0.1351  0.1598
39286SOL    HW123695   1.758   4.389   9.483 -0.4316 -0.0025  0.8253
39286SOL    HW223696   1.754   4.524   9.414  2.7734 -0.5763 -0.6533
39287SOL     OW23697   9.478   1.462  11.366  0.4593  0.4414 -0.5092
39287SOL    HW123698   9.487   1.381  11.316 -0.8898  0.8816 -1.5123
39287SOL    HW223699   9.393   1.454  11.410  1.1331  0.5379  0.8638
39288SOL     OW23700  12.056   1.760   9.607 -0.2403 -0.0925 -0.6062
39288SOL    HW123701  12.031   1.668   9.597  0.9010 -0.5023  0.1017
39288SOL    HW223702  12.039   1.779   9.700  2.7673 -0.6521  0.1493
39289SOL     OW23703   7.773  10.391   3.267  0.1080 -0.1053  0.0852
39289SOL    HW123704   7.805  10.340   3.342  0.0202  0.2888  0.3933
39289SOL    HW223705   7.679  10.375   3.265  0.0933 -0.0226  0.1298
39290SOL     OW23706   6.332   8.525   8.122  0.5356 -0.4178 -0.2413
39290SOL    HW123707   6.325   8.444   8.072  1.0918  0.0509 -1.1214
39290SOL    HW223708   6.282   8.589   8.071  2.0360  0.3371 -0.8299
39291SOL     OW23709  10.397  11.014   6.196  0.1592 -0.2661  0.0228
39291SOL    HW123710  10.400  10.958   6.274 -0.6735  1.9420  1.7596
39291SOL    HW223711  10.335  10.972   6.138  0.2623 -1.6144  0.8514
39292SOL     OW23712   1.178   3.899   7.384  0.1853  0.0828 -0.2754
39292SOL    HW123713   1.267   3.876   7.358  2.1027  4.2979  1.6922
39292SOL    HW223714   1.140   3.940   7.307 -0.1045 -1.5653 -1.0624
39293SOL     OW23715   0.390   2.531  12.114  0.0493  0.3782  0.0124
39293SOL    HW123716   0.381   2.626  12.116  2.2182  0.6505 -0.7944
39293SOL    HW223717   0.388   2.508  12.021  1.3670 -0.1071  0.0747
39294SOL     OW23718   0.232   4.955   5.785 -0.0835 -0.4833  0.1989
39294SOL    HW123719   0.169   4.885   5.773 -1.1440  0.2695  1.1024
39294SOL    HW223720   0.294   4.945   5.713  1.0274 -3.5853  1.4119
39295SOL     OW23721   3.117  10.762   1.051 -0.3245 -0.1292  0.8074
39295SOL    HW123722   3.074  10.713   0.980 -1.1237  0.3674  0.9356
39295SOL    HW223723   3.125  10.851   1.017  2.0642 -0.5091  0.1630
39296SOL     OW23724   9.007   5.173   9.934 -0.2371  0.1348  0.5125
39296SOL    HW123725   8.983   5.265   9.933 -0.2921  0.1202  0.1008
39296SOL    HW223726   9.026   5.152   9.842  1.8089  0.2490  0.8831
39297SOL     OW23727  11.595   8.905   0.652  0.5509  0.2784  0.1666
39297SOL    HW123728  11.563   8.992   0.625 -0.8210 -0.0672  0.5891
39297SOL    HW223729  11.526   8.871   0.709  0.5327 -1.5629 -0.8902
39298SOL     OW23730   8.506   0.775   7.890 -0.2337 -0.5580 -0.0144
39298SOL    HW123731   8.567   0.785   7.817  0.5674  0.5397  0.7694
39298SOL    HW223732   8.492   0.681   7.897 -1.0472 -0.6669 -2.1437
39299SOL     OW23733  11.245  10.582   2.056 -0.5644 -0.5460  0.1395
39299SOL    HW123734  11.175  10.646   2.039 -0.8104 -1.2381 -1.6246
39299SOL    HW223735  11.293  10.619   2.130 -1.3128  1.1880 -0.1838
39300SOL     OW23736   0.480  10.520  11.069  0.3220  0.2855 -0.0490
39300SOL    HW123737   0.416  10.576  11.026 -0.2527 -2.0331 -2.5002
39300SOL    HW223738   0.432  10.480  11.142  0.2982  1.7362  0.7613
39301SOL     OW23739   5.747   1.483  12.259 -0.0380 -0.3714  0.6945
39301SOL    HW123740   5.794   1.439  12.188  0.9723  0.4231  0.8465
39301SOL    HW223741   5.700   1.555  12.216  0.0964 -0.2543  0.7416
39302SOL     OW23742   1.339  12.280   5.693 -0.0139  0.1597  0.4147
39302SOL    HW123743   1.289  12.203   5.667  2.1202 -1.0055 -0.4871
39302SOL    HW223744   1.364  12.263   5.784 -1.8119  1.1129  1.1397
39303SOL     OW23745   7.347  10.650   1.043  0.4544  0.2509  0.1109
39303SOL    HW123746   7.436  10.666   1.074  2.1748 -4.1574 -1.6479
39303SOL    HW223747   7.312  10.585   1.104  0.0824 -1.0460 -1.4156
39304SOL     OW23748   6.614   6.083   5.685  0.0360  0.0569 -0.7727
39304SOL    HW123749   6.655   6.131   5.613 -0.0085  1.1114 -0.1160
39304SOL    HW223750   6.665   6.002   5.692  1.8912  1.2039 -0.1500
39305SOL     OW23751   4.597   3.969  11.762 -0.3570  0.4080 -0.0552
39305SOL    HW123752   4.664   4.020  11.807  0.3220 -0.5899  0.1015
39305SOL    HW223753   4.541   3.936  11.832 -0.4751  0.4963 -0.1089
39306SOL     OW23754   2.119   1.786  11.374  0.3614 -0.2358  0.0331
39306SOL    HW123755   2.148   1.698  11.395  1.8538 -0.3030 -2.0132
39306SOL    HW223756   2.028   1.776  11.346  0.4850 -1.1087 -0.0649
39307SOL     OW23757   0.941   4.616   9.519  0.0864 -0.2650  0.2898
39307SOL    HW123758   0.986   4.697   9.496 -0.4923  0.1070  0.4375
39307SOL    HW223759   0.962   4.603   9.612  0.4739 -0.4877  0.1762
39308SOL     OW23760   1.096   8.690   3.195  0.4452  0.2749  0.2003
39308SOL    HW123761   1.159   8.657   3.130 -0.1503 -1.4673  0.4717
39308SOL    HW223762   1.042   8.752   3.146 -0.3668 -1.4319 -1.1597
39309SOL     OW23763   2.312   6.301   7.544 -0.0728  0.3326  0.1232
39309SOL    HW123764   2.256   6.333   7.614 -3.3121  0.2810 -2.1963
39309SOL    HW223765   2.272   6.335   7.464  0.7053 -3.1884 -2.0042
39310SOL     OW23766   5.033  10.519  11.404 -0.5254 -0.3694 -0.4226
39310SOL    HW123767   5.030  10.608  11.369  1.2364 -0.3030 -0.4840
39310SOL    HW223768   5.030  10.531  11.499 -0.1006 -0.2232 -0.4244
39311SOL     OW23769   8.013   8.974   7.468 -0.4587 -0.2600 -0.2164
39311SOL    HW123770   8.009   8.946   7.376 -0.9231  0.2255 -0.3498
39311SOL    HW223771   7.973   9.061   7.468 -1.8738 -0.8603  0.6719
39312SOL     OW23772  12.092   5.235   5.359  0.2178  0.2911  0.1178
39312SOL    HW123773  12.144   5.233   5.279 -2.3449 -0.1340 -1.7019
39312SOL    HW223774  12.022   5.298   5.341 -1.5168 -1.1762  1.2206
39313SOL     OW23775   4.174   6.015   2.330  0.4493 -0.3675 -0.2848
39313SOL    HW123776   4.234   6.081   2.365 -1.6022  1.2948  0.2904
39313SOL    HW223777   4.152   6.047   2.242 -0.7094 -0.1725  0.0686
39314SOL     OW23778   2.703   0.159   3.329  0.0460  0.0111  0.4889
39314SOL    HW123779   2.656   0.081   3.360 -1.0522  0.5910  0.3512
39314SOL    HW223780   2.677   0.169   3.238 -0.4296  0.9547  0.7104
39315SOL     OW23781   6.158  12.027   8.483 -0.0290 -0.2564 -0.0815
39315SOL    HW123782   6.172  12.112   8.525  0.6684  0.3129 -1.4177
39315SOL    HW223783   6.121  12.048   8.398  2.6965 -1.1009 -1.5687
39316SOL     OW23784   1.884   4.835   3.515 -1.1765  0.2239  0.3895
39316SOL    HW123785   1.925   4.898   3.457 -2.1243 -0.5951 -1.2421
39316SOL    HW223786   1.927   4.848   3.600  1.5283  0.2590 -0.8819
39317SOL     OW23787   5.759   3.115   2.687 -0.4287  0.3210  0.0527
39317SOL    HW123788   5.747   3.118   2.782 -1.3071 -0.5994 -0.0149
39317SOL    HW223789   5.717   3.194   2.655 -0.4692  0.4428  0.4016
39318SOL     OW23790   6.989  10.654   6.569  0.0904  0.0266  0.1339
39318SOL    HW123791   7.071  10.702   6.559 -0.6267  1.6502  1.5625
39318SOL    HW223792   6.966  10.664   6.662 -1.3353 -1.0638 -0.0520
39319SOL     OW23793   5.024   8.608   6.098  0.0772 -0.6733  0.2152
39319SOL    HW123794   5.025   8.638   6.189 -2.5335  2.1238 -0.4892
39319SOL    HW223795   5.102   8.647   6.058 -0.2116  0.4069  0.6742
39320SOL     OW23796   4.977   5.113   7.969 -0.1554 -0.6464  0.6281
39320SOL    HW123797   4.886   5.142   7.963 -0.1938 -0.6089  1.3422
39320SOL    HW223798   4.975   5.042   8.033  0.3009 -0.7156  0.5674
39321SOL     OW23799   6.626  10.897   8.038 -0.2236  0.6470  1.3039
39321SOL    HW123800   6.564  10.964   8.010 -0.5873  0.3575  1.3948
39321SOL    HW223801   6.570  10.826   8.071  0.0949 -0.3306 -0.1693
39322SOL     OW23802  10.717   8.762   2.834  0.1894  0.3199 -0.1116
39322SOL    HW123803  10.674   8.827   2.778  0.4723  0.8725  0.3005
39322SOL    HW223804  10.794   8.735   2.783 -0.0033  0.2003 -0.3431
39323SOL     OW23805  12.237   7.201   2.557  0.0751  0.7801 -0.3716
39323SOL    HW123806  12.144   7.198   2.535  0.4828 -1.8301 -2.2679
39323SOL    HW223807  12.251   7.289   2.590 -2.9929  1.3567 -0.3013
39324SOL     OW23808   0.485  10.205   4.977 -0.2649 -0.1931 -0.2720
39324SOL    HW123809   0.484  10.153   5.057 -1.2512  0.6087  0.2728
39324SOL    HW223810   0.426  10.158   4.918  0.7376 -0.9744 -0.6741
39325SOL     OW23811  10.171   9.156   2.749 -0.1519 -0.1890  0.3365
39325SOL    HW123812  10.234   9.227   2.739  0.9064 -1.2514 -0.9376
39325SOL    HW223813  10.086   9.199   2.753  0.2596  1.1082 -2.6230
39326SOL     OW23814   7.007   3.847   0.253 -0.1584  0.4257 -0.2572
39326SOL    HW123815   6.997   3.754   0.232 -0.3611  0.1575  0.9537
39326SOL    HW223816   7.098   3.867   0.230 -0.3496  0.1489 -1.2986
39327SOL     OW23817   4.826   2.565   8.949 -0.3501  0.6374  0.0013
39327SOL    HW123818   4.840   2.470   8.943 -0.7439  0.5351  0.5814
39327SOL    HW223819   4.734   2.574   8.973 -0.0911  1.1386  0.8533
39328SOL     OW23820   7.171   2.475   2.617 -0.6464  0.3354 -0.4692
39328SOL    HW123821   7.131   2.523   2.544 -2.2317  1.7270  1.2211
39328SOL    HW223822   7.114   2.400   2.631  0.7277 -1.0310 -1.8217
39329SOL     OW23823   6.214   3.652  11.996 -0.8237  0.4786  0.1543
39329SOL    HW123824   6.291   3.600  12.020 -0.3557  0.6853 -0.8791
39329SOL    HW223825   6.229   3.736  12.039  0.0290  0.8593 -0.8618
39330SOL     OW23826   3.063   0.859   5.026 -0.3135 -0.6124 -0.3217
39330SOL    HW123827   3.137   0.916   5.007 -1.3554  1.0452  0.3161
39330SOL    HW223828   3.101   0.780   5.064  1.0700  0.8618  1.5481
39331SOL     OW23829   2.802   0.638   5.011  0.5734 -0.2033 -0.1308
39331SOL    HW123830   2.890   0.654   5.043  0.5581 -1.7018  0.7217
39331SOL    HW223831   2.745   0.686   5.071  0.8029  1.9670 -1.5017
39332SOL     OW23832   0.459   6.119  10.919 -0.5346  0.0021 -0.4831
39332SOL    HW123833   0.389   6.054  10.924 -1.1442  0.7449  1.4681
39332SOL    HW223834   0.426   6.185  10.859 -1.4598  0.2525  0.2747
39333SOL     OW23835   5.429   4.667   8.845 -0.4112  0.5530 -0.5786
39333SOL    HW123836   5.504   4.687   8.788  0.8875  1.7300  1.4102
39333SOL    HW223837   5.465   4.606   8.909 -0.8845  1.7731  0.8994
39334SOL     OW23838   8.594   1.798   3.557  0.3965 -0.2150 -0.0291
39334SOL    HW123839   8.544   1.873   3.591 -0.4659 -0.2920 -1.0552
39334SOL    HW223840   8.546   1.772   3.478  1.6019 -0.8419 -0.5728
39335SOL     OW23841  11.711  11.730   1.256 -0.0012 -0.0056 -0.2286
39335SOL    HW123842  11.654  11.797   1.221 -0.4397 -0.9751 -1.4556
39335SOL    HW223843  11.677  11.711   1.344  1.0339  2.3688  0.7832
39336SOL     OW23844   6.815   7.800   3.710  0.1066 -0.7107 -0.1794
39336SOL    HW123845   6.899   7.756   3.702 -0.3743 -1.2782 -3.7025
39336SOL    HW223846   6.753   7.732   3.736  0.1757 -1.0492 -0.8987
39337SOL     OW23847   7.249   6.672   7.408  0.0710 -0.3548  0.7860
39337SOL    HW123848   7.251   6.768   7.415  2.0934 -0.3971  1.3244
39337SOL    HW223849   7.306   6.653   7.333 -2.1819 -1.0882 -0.8631
39338SOL     OW23850   8.372   7.699  11.817  0.2567 -0.2408  0.3238
39338SOL    HW123851   8.410   7.676  11.902  1.5743  0.5430 -0.0257
39338SOL    HW223852   8.419   7.778  11.791 -1.2371  0.4458 -0.4106
39339SOL     OW23853   4.832   0.409   3.025 -0.0754 -0.2137 -0.5297
39339SOL    HW123854   4.804   0.455   2.946 -3.0679 -1.0564 -0.1009
39339SOL    HW223855   4.784   0.326   3.022 -0.0648 -0.3914  2.0070
39340SOL     OW23856   2.183   5.617   4.435  0.4355 -0.0310  0.3361
39340SOL    HW123857   2.196   5.531   4.475  1.6855  0.9871  2.2881
39340SOL    HW223858   2.272   5.645   4.410 -0.1212  0.0950 -1.7042
39341SOL     OW23859  10.379   7.159   2.179  0.2646 -0.1719  0.4681
39341SOL    HW123860  10.357   7.139   2.088 -1.9648  1.0301  0.6663
39341SOL    HW223861  10.471   7.133   2.188  0.0517 -1.9258 -1.6165
39342SOL     OW23862   5.979   9.886   3.998 -0.0257 -0.5210  0.0271
39342SOL    HW123863   5.928   9.890   3.917 -1.4989  1.7507  0.9545
39342SOL    HW223864   6.012   9.975   4.009  1.3303 -1.1401  1.2157
39343SOL     OW23865  11.977   6.971   5.121 -0.1007  0.3222 -0.5304
39343SOL    HW123866  11.967   7.060   5.087 -0.2549  0.5565  0.1239
39343SOL    HW223867  11.959   6.915   5.045 -0.9085  0.8268 -0.7229
39344SOL     OW23868   9.887   5.553   2.136  0.7233 -0.1576  0.0046
39344SOL    HW123869   9.801   5.591   2.120 -0.5820 -2.0849  1.9616
39344SOL    HW223870   9.944   5.597   2.072 -1.5057  1.7206 -0.8624
39345SOL     OW23871   7.411  10.499   6.043 -0.3602 -0.3979 -0.6092
39345SOL    HW123872   7.470  10.500   5.968 -0.9085 -0.6732 -1.0534
39345SOL    HW223873   7.436  10.576   6.095  1.3580 -1.3070 -0.0066
39346SOL     OW23874  11.252   3.136  10.479  0.6132 -0.2145  0.2048
39346SOL    HW123875  11.290   3.111  10.395  0.5296 -0.9265  0.3714
39346SOL    HW223876  11.281   3.068  10.539 -2.3438 -1.8681 -0.0211
39347SOL     OW23877   3.003   3.817   1.118  0.5626 -0.3048  0.3972
39347SOL    HW123878   3.092   3.810   1.083 -0.2165 -1.1694 -1.6269
39347SOL    HW223879   2.986   3.731   1.157  0.6158 -0.1340  0.8001
39348SOL     OW23880   1.231   9.418   2.318 -0.3022 -0.2758 -0.3261
39348SOL    HW123881   1.268   9.465   2.393 -1.6063 -0.1685  0.2726
39348SOL    HW223882   1.277   9.334   2.318 -0.7308 -0.5304  0.9999
39349SOL     OW23883   3.846   6.871  12.262 -0.5392 -0.1468  0.1643
39349SOL    HW123884   3.909   6.928  12.217 -0.4293  0.2241  0.7735
39349SOL    HW223885   3.884   6.784  12.256  0.0160  0.0646  0.4873
39350SOL     OW23886  10.843  10.644  12.320 -0.1088  0.0238 -0.1600
39350SOL    HW123887  10.855  10.560  12.276 -0.3588  0.4632 -1.0892
39350SOL    HW223888  10.932  10.678  12.332 -0.0938  1.0269 -2.5881
39351SOL     OW23889  10.543   0.783  10.426  0.1869 -0.2267  0.0118
39351SOL    HW123890  10.533   0.752  10.336  0.4829 -2.3617  0.6679
39351SOL    HW223891  10.453   0.797  10.457 -0.0447 -1.9127  0.1627
39352SOL     OW23892  11.041   2.219   5.380  0.1641  0.4311 -0.0792
39352SOL    HW123893  11.076   2.219   5.291 -0.6031 -2.4515 -0.4886
39352SOL    HW223894  11.059   2.131   5.413 -2.4565  0.3271  1.3938
39353SOL     OW23895   1.251   2.853   2.687 -0.5985 -0.3903  0.4098
39353SOL    HW123896   1.203   2.812   2.616  1.8361 -0.0364 -1.6082
39353SOL    HW223897   1.286   2.780   2.738 -0.5382 -0.7201 -0.0940
39354SOL     OW23898   1.209   0.270   7.935 -0.0805 -0.5829  0.2850
39354SOL    HW123899   1.295   0.309   7.949 -0.2097 -0.6730  1.4402
39354SOL    HW223900   1.183   0.238   8.021 -1.5949  0.0899  0.1091
39355SOL     OW23901   6.381  11.094   3.327 -0.0773 -0.7390  0.1544
39355SOL    HW123902   6.430  11.043   3.392  0.2878 -0.4416  0.1148
39355SOL    HW223903   6.417  11.182   3.334 -3.0374  0.4771  2.6991
39356SOL     OW23904   9.527  10.560   3.562  0.0986  0.3767 -0.3081
39356SOL    HW123905   9.493  10.502   3.631 -0.2946  1.3069  0.2987
39356SOL    HW223906   9.449  10.595   3.519  0.3175  0.8996 -0.2892
39357SOL     OW23907   6.559  10.931   1.910  0.7821  0.5894 -0.1152
39357SOL    HW123908   6.644  10.887   1.914  0.8767  0.5257 -2.0719
39357SOL    HW223909   6.543  10.946   1.817 -1.4924  0.3609  0.1690
39358SOL     OW23910   6.198   7.258  11.879  0.1876 -0.1382  0.5321
39358SOL    HW123911   6.219   7.285  11.969 -0.0899 -1.3438  0.9892
39358SOL    HW223912   6.104   7.273  11.871  0.6027  2.3959 -0.4754
39359SOL     OW23913   3.822   4.753   8.292  0.4542  0.0107 -0.7872
39359SOL    HW123914   3.842   4.730   8.383  0.5564 -1.8294 -1.2395
39359SOL    HW223915   3.732   4.725   8.279  0.6414 -0.3360 -1.4124
39360SOL     OW23916   9.350   2.476   5.071 -0.7646 -0.4570  0.3413
39360SOL    HW123917   9.317   2.407   5.128 -2.7705 -0.5474 -0.8454
39360SOL    HW223918   9.281   2.542   5.071  0.1559  0.5468 -0.2731
39361SOL     OW23919   5.911   2.459   6.513 -0.1223 -0.2149 -0.1815
39361SOL    HW123920   5.861   2.514   6.453 -2.6096 -1.9864  0.1065
39361SOL    HW223921   5.851   2.444   6.587  2.2522  0.6026  2.0483
39362SOL     OW23922   4.978   1.537   7.319  0.2817 -0.0674 -0.5561
39362SOL    HW123923   5.058   1.523   7.370 -1.5938 -1.2924  2.3499
39362SOL    HW223924   4.935   1.611   7.363 -1.0479 -0.6346 -0.8636
39363SOL     OW23925  10.284  11.103   5.532 -0.2158 -0.3201 -0.3953
39363SOL    HW123926  10.281  11.164   5.605 -0.2661  1.5701 -1.9059
39363SOL    HW223927  10.376  11.076   5.526 -0.0129  0.3513 -0.3015
39364SOL     OW23928   2.517   4.474   1.176  0.8813 -0.6766 -0.2964
39364SOL    HW123929   2.494   4.564   1.154  0.1261 -0.6884  0.3955
39364SOL    HW223930   2.465   4.420   1.117  0.0052 -0.6811  0.4621
39365SOL     OW23931   4.108   8.433   8.517  0.3020 -0.0869  0.0935
39365SOL    HW123932   4.064   8.349   8.524  1.1701 -0.7891 -1.9404
39365SOL    HW223933   4.038   8.498   8.512 -0.4084 -0.8434  0.2378
39366SOL     OW23934   8.398   5.086   2.820  0.0404 -0.1024 -0.5865
39366SOL    HW123935   8.446   5.169   2.816 -0.9595  0.5845  0.7408
39366SOL    HW223936   8.325   5.098   2.760  0.8053 -0.6793 -1.6627
39367SOL     OW23937   1.246   8.564  10.505 -0.3374  0.2821  0.2552
39367SOL    HW123938   1.196   8.485  10.526  0.8656 -0.7911 -0.8082
39367SOL    HW223939   1.332   8.533  10.479 -0.5526  1.7514 -2.5803
39368SOL     OW23940   8.354   2.109   3.443  0.3615  0.1744  0.5935
39368SOL    HW123941   8.352   2.049   3.518  1.5594 -0.4958  0.1257
39368SOL    HW223942   8.447   2.129   3.432  0.4136 -1.0198 -1.6727
39369SOL     OW23943  10.211   4.054  10.360 -0.2348  0.3681  0.2879
39369SOL    HW123944  10.255   4.067  10.276  1.7042  0.9657  1.3111
39369SOL    HW223945  10.233   3.964  10.385 -1.8436 -0.2361 -0.3723
39370SOL     OW23946   8.458   6.735   7.141  0.7338 -0.0583 -0.4245
39370SOL    HW123947   8.440   6.690   7.223 -0.0582  0.9918  0.0112
39370SOL    HW223948   8.372   6.741   7.098  1.1669 -0.7517 -1.4177
39371SOL     OW23949  10.746   2.836   9.366  0.1313  0.4332 -0.1305
39371SOL    HW123950  10.661   2.859   9.403 -0.7971 -0.4450 -1.5860
39371SOL    HW223951  10.755   2.893   9.289  0.1764 -0.4457 -0.7995
39372SOL     OW23952   1.381   3.463   3.469 -0.6453  0.4289  0.2252
39372SOL    HW123953   1.439   3.449   3.544 -0.4987 -0.2378  0.0014
39372SOL    HW223954   1.347   3.375   3.450 -0.5185  0.5575 -0.6146
39373SOL     OW23955   8.360  10.401   9.902  0.3431 -0.1858  0.1168
39373SOL    HW123956   8.319  10.401   9.815  1.1574  0.7399 -0.2865
39373SOL    HW223957   8.344  10.313   9.936 -0.4640 -0.3864 -0.7469
39374SOL     OW23958   7.898   3.128   7.829 -0.3441 -0.3238  0.2737
39374SOL    HW123959   7.869   3.219   7.827 -0.2035 -0.2879 -0.3667
39374SOL    HW223960   7.817   3.077   7.831 -0.4501 -0.2038 -0.5560
39375SOL     OW23961   8.023  12.233   8.686 -0.1278 -0.2254 -0.1703
39375SOL    HW123962   8.038  12.149   8.643 -0.3686 -1.7627  2.4851
39375SOL    HW223963   8.111  12.263   8.711 -0.1652 -0.6829  0.5447
39376SOL     OW23964   3.820   9.851  10.101 -0.3515  0.0072 -0.0353
39376SOL    HW123965   3.817   9.772  10.154 -0.6258  1.3263  2.0300
39376SOL    HW223966   3.786   9.920  10.158 -0.4936  1.5638 -1.8853
39377SOL     OW23967   0.847   4.326   0.398 -0.4204 -0.5175 -0.5491
39377SOL    HW123968   0.779   4.293   0.457 -2.0860  0.8358 -1.5820
39377SOL    HW223969   0.903   4.381   0.453 -2.2249  1.1272 -0.2308
39378SOL     OW23970   6.901   9.438   8.055 -0.2392 -0.4556  0.2507
39378SOL    HW123971   6.972   9.484   8.100  0.2805 -0.2464 -0.7545
39378SOL    HW223972   6.909   9.465   7.963  0.0623 -2.5161 -0.3797
39379SOL     OW23973   5.787   7.961   9.518 -0.0129  0.3448 -0.6289
39379SOL    HW123974   5.757   7.881   9.562  1.7241 -0.8884 -1.5514
39379SOL    HW223975   5.842   8.005   9.582 -0.4255  0.4589 -0.3494
39380SOL     OW23976  10.821   4.590  12.324  0.2995 -0.3246 -0.1644
39380SOL    HW123977  10.908   4.631  12.324 -0.5080  1.5579  1.7694
39380SOL    HW223978  10.763   4.656  12.361 -1.8480 -1.8391 -0.6304
39381SOL     OW23979   1.871  10.675   2.438 -0.6890 -0.4969 -0.6501
39381SOL    HW123980   1.961  10.707   2.432 -0.2824 -1.6429 -0.9992
39381SOL    HW223981   1.872  10.592   2.390 -1.3308 -1.7484  1.3718
39382SOL     OW23982   8.943   0.298  10.179  0.0016  0.0807  0.3466
39382SOL    HW123983   8.957   0.206  10.154  0.6202  0.4830 -0.8527
39382SOL    HW223984   8.851   0.302  10.205 -1.2436 -0.0883 -3.4422
39383SOL     OW23985  11.645   8.829  10.475  0.1998 -0.1082 -0.2845
39383SOL    HW123986  11.640   8.760  10.408 -0.1843 -0.4678  0.1120
39383SOL    HW223987  11.588   8.799  10.545  1.7966 -0.4788  0.9067
39384SOL     OW23988  10.984   4.423   7.880 -0.0171 -0.7498 -0.5811
39384SOL    HW123989  11.064   4.471   7.861  1.1912 -1.7764  1.5058
39384SOL    HW223990  10.993   4.397   7.972 -2.4052 -1.5586 -0.4978
39385SOL     OW23991  10.266   5.912   4.432  0.4213 -0.1059  0.6988
39385SOL    HW123992  10.353   5.915   4.391 -0.4465  0.1091 -1.2321
39385SOL    HW223993  10.278   5.958   4.516  1.8248  1.3148 -0.2074
39386SOL     OW23994   9.238   1.497  11.098  0.2181 -0.0029 -0.4161
39386SOL    HW123995   9.143   1.491  11.104  0.1272 -0.3758 -1.8100
39386SOL    HW223996   9.260   1.579  11.143 -0.7627  0.0705 -0.0580
39387SOL     OW23997   6.088   9.749   3.194 -0.0399 -0.2358 -0.0520
39387SOL    HW123998   6.002   9.756   3.235 -0.0336  2.1848 -0.2739
39387SOL    HW223999   6.147   9.791   3.257  0.3413  1.4451 -1.4386
39388SOL     OW24000   3.349  12.179  12.255  0.0685  0.4491  0.2142
39388SOL    HW124001   3.436  12.221  12.252 -0.1176  0.7869 -1.3666
39388SOL    HW224002   3.289  12.248  12.228 -0.5195 -0.2024 -0.1506
39389SOL     OW24003   9.026   8.782   2.920  0.2584  0.4224  0.6900
39389SOL    HW124004   9.006   8.856   2.862 -2.0218 -0.5016  0.1990
39389SOL    HW224005   9.071   8.719   2.864 -0.6640  0.1260  0.2650
39390SOL     OW24006   1.570   9.951  11.624  0.3826 -0.1112  0.1708
39390SOL    HW124007   1.514   9.980  11.696 -0.3463  0.3883 -0.5814
39390SOL    HW224008   1.651  10.000  11.636  0.6373 -0.7378  1.1929
39391SOL     OW24009   3.380   2.184   6.309 -0.0929 -0.6761  0.2355
39391SOL    HW124010   3.455   2.243   6.299 -0.6036  0.2255  1.3497
39391SOL    HW224011   3.381   2.160   6.402  0.0750 -2.4163 -0.1943
39392SOL     OW24012   5.351  11.062   0.126 -0.1474 -1.1234  0.3623
39392SOL    HW124013   5.291  11.136   0.129  0.5686 -0.5624  2.3106
39392SOL    HW224014   5.415  11.087   0.059  0.1922  0.1343  1.1173
39393SOL     OW24015   3.634   9.087   6.509  0.4047 -0.4107 -0.2831
39393SOL    HW124016   3.728   9.092   6.489  0.5804 -1.4686  0.2129
39393SOL    HW224017   3.613   8.994   6.500 -0.6582 -0.1530 -0.6178
39394SOL     OW24018   8.794   2.418   0.176 -0.0350 -0.1322 -0.4074
39394SOL    HW124019   8.827   2.335   0.141 -0.4836 -0.5185  0.0689
39394SOL    HW224020   8.718   2.438   0.122 -0.3086 -0.3644 -0.1092
39395SOL     OW24021   2.375   8.123   4.100 -0.5894  0.0493  0.0246
39395SOL    HW124022   2.321   8.166   4.033 -0.1867 -0.4765 -0.6479
39395SOL    HW224023   2.462   8.119   4.061 -0.2938 -0.0280  0.6939
39396SOL     OW24024   0.742   6.887   3.382  0.9902  0.1632  0.0728
39396SOL    HW124025   0.762   6.801   3.418  0.8760 -0.2223 -0.7645
39396SOL    HW224026   0.805   6.899   3.311  0.8102  0.6457 -0.0148
39397SOL     OW24027   9.074   4.099   2.919 -0.4776 -0.1815 -0.2003
39397SOL    HW124028   9.147   4.050   2.957 -0.4651 -1.1643 -1.4330
39397SOL    HW224029   9.051   4.163   2.987  2.9674  1.7086 -0.5448
39398SOL     OW24030  10.715   3.820  11.675 -0.0640 -0.6311  0.0939
39398SOL    HW124031  10.749   3.909  11.682  0.9475 -1.0723  1.1270
39398SOL    HW224032  10.621   3.829  11.689  0.0967  0.2286  0.6607
39399SOL     OW24033   3.150   5.125  10.632 -0.0645  0.7355  0.2271
39399SOL    HW124034   3.215   5.103  10.566  1.2590  2.5257  0.8608
39399SOL    HW224035   3.085   5.178  10.586 -1.1166 -1.0163 -0.3943
39400SOL     OW24036   6.507   4.557  10.813  0.0082  0.4530  0.2182
39400SOL    HW124037   6.514   4.463  10.830  2.3993  0.7424  1.1321
39400SOL    HW224038   6.501   4.563  10.718  1.5385 -0.5695  0.0267
39401SOL     OW24039   5.606   1.957  10.554  0.1688 -0.1993 -0.3727
39401SOL    HW124040   5.514   1.979  10.534 -0.3448 -2.1810 -0.3378
39401SOL    HW224041   5.645   1.938  10.469  0.2388 -0.5121 -0.2687
39402SOL     OW24042   2.222   2.042   6.540 -0.3066 -0.0792  0.3039
39402SOL    HW124043   2.152   2.094   6.501  0.6003 -0.7155 -2.3172
39402SOL    HW224044   2.292   2.042   6.475  0.5683 -2.8012  1.1031
39403SOL     OW24045   3.939   6.055   4.344 -0.0475  0.1362  0.2249
39403SOL    HW124046   3.961   6.004   4.266  1.0362 -0.5187  0.9414
39403SOL    HW224047   3.988   6.137   4.333  1.0117 -0.4087  0.7328
39404SOL     OW24048   2.173   7.041   0.891 -0.3421  0.2226  0.1651
39404SOL    HW124049   2.202   7.087   0.970 -0.1525  0.1155  0.1562
39404SOL    HW224050   2.080   7.024   0.907  0.0798 -1.3786  1.1502
39405SOL     OW24051   3.447   0.699   1.227  0.3578  0.2889  0.2180
39405SOL    HW124052   3.465   0.793   1.230  0.4030  0.2689  1.0188
39405SOL    HW224053   3.533   0.658   1.229  0.3248  0.2302  0.6924
39406SOL     OW24054   3.370   2.050   3.887 -0.6689 -0.3240  0.1800
39406SOL    HW124055   3.299   1.990   3.911 -1.2893  0.5996  0.7170
39406SOL    HW224056   3.344   2.084   3.801 -0.8653 -0.0064  0.3644
39407SOL     OW24057   9.414  11.211   9.990  0.2752 -0.1587 -0.2507
39407SOL    HW124058   9.497  11.222  10.036 -0.9345  0.4192  1.9239
39407SOL    HW224059   9.353  11.181  10.058 -1.8243  1.5823 -1.2436
39408SOL     OW24060  10.846  11.913   3.682  0.0263  0.3891  0.1665
39408SOL    HW124061  10.933  11.951   3.688 -0.5833  1.8961  0.0496
39408SOL    HW224062  10.840  11.853   3.756  1.4508 -0.4124 -0.3411
39409SOL     OW24063   1.217   5.501   3.235 -0.0981  0.1839  0.0926
39409SOL    HW124064   1.204   5.433   3.301 -0.0180  0.0680 -0.0084
39409SOL    HW224065   1.129   5.517   3.200 -0.3362  1.1201  1.0661
39410SOL     OW24066   6.313  11.513   4.691  0.1201  0.3791  0.6926
39410SOL    HW124067   6.301  11.420   4.671 -1.1950  0.9324 -1.3555
39410SOL    HW224068   6.373  11.544   4.624  0.0447  1.1555  0.9786
39411SOL     OW24069   9.617   7.547   6.962 -0.1936  0.2717  0.9676
39411SOL    HW124070   9.632   7.497   6.881 -1.0406  0.5782  0.6069
39411SOL    HW224071   9.596   7.481   7.027 -1.0904  0.1316  0.5472
39412SOL     OW24072  10.377   6.702   5.456 -0.3684 -0.1609  0.0908
39412SOL    HW124073  10.315   6.632   5.474  0.7736 -0.7405  2.0834
39412SOL    HW224074  10.398   6.692   5.363 -1.8352 -1.0882 -0.1731
39413SOL     OW24075   1.165   2.681  11.968 -1.0345  0.3771 -0.0507
39413SOL    HW124076   1.089   2.657  11.915 -1.3395 -0.5197  0.7662
39413SOL    HW224077   1.165   2.618  12.040  2.3447 -1.7775 -1.6812
39414SOL     OW24078   6.648  11.680   1.623  0.4687 -0.4164  0.4374
39414SOL    HW124079   6.656  11.675   1.528 -0.5516  0.8790  0.2531
39414SOL    HW224080   6.726  11.728   1.651  0.0620  0.4710  0.0856
39415SOL     OW24081   5.929   4.251   2.972  0.0844  0.7360  0.2131
39415SOL    HW124082   5.880   4.270   2.892 -0.1113  1.4437  0.4909
39415SOL    HW224083   6.004   4.200   2.942 -0.0262  0.9231 -0.4069
39416SOL     OW24084   8.924  10.423   6.282 -0.1305 -0.2358  0.7519
39416SOL    HW124085   8.831  10.408   6.299  0.0304 -0.9083  1.0851
39416SOL    HW224086   8.967  10.410   6.367  0.4226 -1.3818  0.3191
39417SOL     OW24087   1.763   3.272   1.242  0.1959  0.5626  0.4866
39417SOL    HW124088   1.853   3.273   1.210  0.0602  1.1812  0.0998
39417SOL    HW224089   1.768   3.230   1.328  0.9270  1.0112  0.6718
39418SOL     OW24090   3.453   7.997  12.331 -0.6002  0.6381  0.2076
39418SOL    HW124091   3.364   8.016  12.302 -0.6043  0.0668 -0.1619
39418SOL    HW224092   3.458   7.901  12.334 -0.6057  0.6600  2.1166
39419SOL     OW24093   1.664   2.762   1.366  0.3270  0.0254  0.3086
39419SOL    HW124094   1.590   2.705   1.342  0.0803  0.8575 -1.0101
39419SOL    HW224095   1.642   2.847   1.328  0.2319  1.3334  3.0242
39420SOL     OW24096   8.101   6.296   3.131  0.1591 -0.2302  0.1470
39420SOL    HW124097   8.075   6.206   3.152  0.3359 -0.1997  0.5097
39420SOL    HW224098   8.140   6.329   3.212 -0.5669  0.4243  0.2425
39421SOL     OW24099   8.540   8.710   0.997  0.4405 -0.2926  0.1201
39421SOL    HW124100   8.613   8.669   0.951  0.1607 -1.0443  0.3297
39421SOL    HW224101   8.496   8.638   1.041  0.4127  0.3450  1.1702
39422SOL     OW24102   4.246   3.342   8.958  0.6803  0.5257 -0.1836
39422SOL    HW124103   4.205   3.333   8.873 -0.8387  2.5741  0.2577
39422SOL    HW224104   4.328   3.292   8.951  1.5075  2.0825 -3.4196
39423SOL     OW24105   5.987   4.592   4.713  0.4742 -0.2140  0.7269
39423SOL    HW124106   6.077   4.559   4.703  0.4471 -0.1611  0.2717
39423SOL    HW224107   5.990   4.646   4.792  0.5406 -1.2170  1.4300
39424SOL     OW24108   1.600  11.566   6.125  0.0181 -0.0083 -0.5316
39424SOL    HW124109   1.597  11.476   6.093  0.5651 -0.7955  1.4811
39424SOL    HW224110   1.534  11.568   6.195 -0.4715  1.3582 -1.0112
39425SOL     OW24111   6.839   8.395   1.340 -0.2259  0.1699  0.5057
39425SOL    HW124112   6.875   8.333   1.403  1.4771 -0.1050 -0.6780
39425SOL    HW224113   6.912   8.453   1.319 -0.8449  0.4350 -1.0122
39426SOL     OW24114  11.598  11.437   4.481  0.3650 -0.2034 -0.2156
39426SOL    HW124115  11.666  11.502   4.463  1.6091 -0.7339  2.1700
39426SOL    HW224116  11.642  11.353   4.473 -0.4787 -0.6414 -0.3561
39427SOL     OW24117   6.058   0.455   1.155 -0.3470  0.2175  0.0806
39427SOL    HW124118   6.146   0.468   1.120 -1.2524  1.7252 -1.8523
39427SOL    HW224119   6.063   0.372   1.202  1.5669 -0.8994 -1.8812
39428SOL     OW24120   2.020   2.409  11.282 -0.0271 -0.2527  0.2254
39428SOL    HW124121   1.944   2.378  11.233 -0.5132 -0.1414  0.8863
39428SOL    HW224122   2.086   2.341  11.270  0.4631  0.5271 -1.9248
39429SOL     OW24123   2.299   5.651   8.474 -0.0930 -0.3138 -0.3893
39429SOL    HW124124   2.293   5.555   8.473  0.1854 -0.3305 -1.1649
39429SOL    HW224125   2.349   5.671   8.553 -2.9913 -0.6048  1.6888
39430SOL     OW24126   9.405   2.698   8.375 -0.4555  0.1005  0.5662
39430SOL    HW124127   9.310   2.687   8.384 -0.4194 -1.5495 -0.6933
39430SOL    HW224128   9.441   2.612   8.396  0.9705  1.1748  2.9467
39431SOL     OW24129   4.003   5.747   3.919  0.0720  0.4776 -0.5098
39431SOL    HW124130   4.001   5.687   3.845  1.1662  1.8757 -1.7460
39431SOL    HW224131   3.974   5.831   3.882 -1.6604  0.7179  1.2028
39432SOL     OW24132   4.229  11.954   8.746  0.4090 -0.1321 -0.2488
39432SOL    HW124133   4.186  11.869   8.735  1.3137 -0.6768  0.3002
39432SOL    HW224134   4.157  12.016   8.755 -0.2959 -1.0990  1.2465
39433SOL     OW24135   8.945   6.475   6.689  0.4968  0.2078 -0.5601
39433SOL    HW124136   8.886   6.426   6.632  0.0202 -0.7489  0.7081
39433SOL    HW224137   8.905   6.561   6.697 -1.6941 -0.9060  1.5783
39434SOL     OW24138   7.017   8.446   8.340 -0.2041 -0.6156 -0.2953
39434SOL    HW124139   6.934   8.451   8.293 -0.1694 -1.0109 -0.3971
39434SOL    HW224140   6.995   8.404   8.423 -0.7085  2.0948  1.0597
39435SOL     OW24141  11.599   4.192   9.763 -0.1082 -0.1460 -0.2134
39435SOL    HW124142  11.522   4.236   9.798  0.2686 -0.1889  0.6990
39435SOL    HW224143  11.671   4.221   9.820  0.7233  0.6155 -1.5933
39436SOL     OW24144   9.954   3.405   4.388 -0.7579 -1.0234  0.6605
39436SOL    HW124145   9.958   3.326   4.334  1.2132 -0.0396 -0.7833
39436SOL    HW224146  10.026   3.396   4.450  1.4830  0.8498 -1.4707
39437SOL     OW24147   9.813   0.415   3.210 -0.5390  0.1909  0.0265
39437SOL    HW124148   9.836   0.508   3.216 -3.0036  0.7904  1.6430
39437SOL    HW224149   9.719   0.415   3.189 -0.2831 -1.9796 -1.4321
39438SOL     OW24150  10.751  10.854   2.489 -0.3563  0.3909  0.1723
39438SOL    HW124151  10.672  10.853   2.544 -0.2967  1.3119  0.2825
39438SOL    HW224152  10.814  10.905   2.540  0.6176 -1.0758  0.4942
39439SOL     OW24153   4.089   5.425  10.252 -0.0132  0.1178 -0.4170
39439SOL    HW124154   4.006   5.405  10.297 -1.2288  1.0795 -2.1392
39439SOL    HW224155   4.114   5.511  10.284  1.1083 -0.7188  1.1249
39440SOL     OW24156   0.512   8.820   6.133  0.4046  0.1161  0.2205
39440SOL    HW124157   0.590   8.857   6.092  0.7707 -1.6289 -0.7692
39440SOL    HW224158   0.441   8.839   6.071  0.8103 -1.7901 -0.9138
39441SOL     OW24159   2.190   8.411   1.680  0.4433  0.1997  0.1845
39441SOL    HW124160   2.263   8.465   1.712  2.3026 -1.8119 -0.4622
39441SOL    HW224161   2.118   8.432   1.739  1.7800  1.6402  1.3971
39442SOL     OW24162   1.140  10.677  11.919  0.3865  0.0544  0.2475
39442SOL    HW124163   1.060  10.702  11.965 -0.7124  0.1839 -1.6110
39442SOL    HW224164   1.200  10.751  11.932  0.3538 -0.1922  1.9422
39443SOL     OW24165   9.322   0.185  11.865  0.6746 -0.5811 -0.0530
39443SOL    HW124166   9.293   0.127  11.794  1.1614  0.3454 -1.0340
39443SOL    HW224167   9.347   0.125  11.936  1.6093 -1.5900 -1.1983
39444SOL     OW24168   8.640   7.607   5.213 -0.4380 -1.4460 -0.9438
39444SOL    HW124169   8.581   7.619   5.288 -0.2356  0.8780 -1.0893
39444SOL    HW224170   8.727   7.596   5.252 -0.4678 -1.2034 -0.8064
39445SOL     OW24171   2.093  12.060  10.721 -0.3645 -0.3187  0.4122
39445SOL    HW124172   2.158  12.013  10.773 -1.5641 -0.9773  1.3456
39445SOL    HW224173   2.009  12.024  10.748 -1.1413  0.5549 -0.7358
39446SOL     OW24174   3.065   7.386   2.797 -0.1259  0.2153 -0.4696
39446SOL    HW124175   3.144   7.371   2.745  0.6757  1.0412  0.4657
39446SOL    HW224176   3.084   7.466   2.846 -2.1137  1.2542 -1.2785
39447SOL     OW24177   9.542  11.933   9.591 -0.7336 -0.8604 -0.0879
39447SOL    HW124178   9.618  11.879   9.615 -1.1617 -1.2403  0.4390
39447SOL    HW224179   9.529  11.991   9.666 -0.5981 -0.3878 -0.4318
39448SOL     OW24180   4.849   1.653   3.269 -0.4539 -0.3513 -0.1124
39448SOL    HW124181   4.897   1.702   3.202 -0.6202 -0.4762 -0.3244
39448SOL    HW224182   4.800   1.719   3.317 -0.6233 -0.3000 -0.3541
39449SOL     OW24183   6.005   0.331   5.035 -0.1266  0.1877 -0.0314
39449SOL    HW124184   5.990   0.327   5.130 -1.2558  0.2562 -0.2008
39449SOL    HW224185   5.999   0.240   5.006  3.0314 -0.2500  0.3340
39450SOL     OW24186   5.485   0.603   7.739 -0.2187  0.4229 -0.0375
39450SOL    HW124187   5.577   0.584   7.724 -0.2199 -1.4757  2.0030
39450SOL    HW224188   5.484   0.696   7.762  0.8690  0.9859 -1.9487
39451SOL     OW24189   9.893   8.981  10.643 -0.0405  0.4995  0.0579
39451SOL    HW124190   9.987   8.977  10.659 -0.0275  0.1280 -0.0815
39451SOL    HW224191   9.875   9.073  10.625  0.3353  0.5351 -0.1484
39452SOL     OW24192   5.465   4.260   9.693 -0.0350 -0.2918 -0.1760
39452SOL    HW124193   5.382   4.305   9.676  0.2187  0.2434 -0.0138
39452SOL    HW224194   5.451   4.172   9.659 -0.8322 -0.3465  0.2634
39453SOL     OW24195   5.191   6.280   2.013 -0.0871  0.0723 -0.4969
39453SOL    HW124196   5.131   6.212   1.983 -1.2218  1.0062 -0.4232
39453SOL    HW224197   5.214   6.329   1.934  1.2393 -0.7558 -0.6559
39454SOL     OW24198   1.347   5.131  10.475  0.2619 -0.0501 -0.2552
39454SOL    HW124199   1.373   5.056  10.422  1.9531  1.1661 -1.2695
39454SOL    HW224200   1.301   5.093  10.550  2.2321 -2.2228 -0.0069
39455SOL     OW24201   6.333   6.827   2.558 -0.4129  0.2658  0.2596
39455SOL    HW124202   6.414   6.776   2.568 -1.5365 -1.8439 -0.8329
39455SOL    HW224203   6.329   6.847   2.464 -2.1149 -1.3958 -0.0708
39456SOL     OW24204   6.203   9.344   1.321  0.3166 -0.1872  0.5661
39456SOL    HW124205   6.231   9.263   1.279  0.3882 -0.2037  0.6452
39456SOL    HW224206   6.254   9.348   1.402  1.2247  0.5499 -0.0182
39457SOL     OW24207  10.015   1.615   9.794  0.4288 -0.1977 -0.2989
39457SOL    HW124208   9.930   1.622   9.752  0.0669 -1.7529  0.1007
39457SOL    HW224209  10.076   1.601   9.722 -0.2334 -3.2015 -0.3961
39458SOL     OW24210   8.408   5.542   6.698  0.3501  0.3927 -0.0821
39458SOL    HW124211   8.317   5.514   6.688  0.2142  1.0079 -0.6254
39458SOL    HW224212   8.460   5.464   6.678 -0.0242  0.4619 -1.3675
39459SOL     OW24213   1.297   1.346   5.667 -0.1478  0.0422 -0.5053
39459SOL    HW124214   1.239   1.292   5.614 -0.4450  1.1130 -1.2993
39459SOL    HW224215   1.328   1.287   5.736 -3.2982 -0.2042  0.8453
39460SOL     OW24216  11.083  10.282  11.360  0.4159  0.0747  0.4586
39460SOL    HW124217  10.997  10.294  11.400 -0.3491 -1.1384 -0.7325
39460SOL    HW224218  11.069  10.215  11.293  2.0319  0.7244 -0.5922
39461SOL     OW24219   5.898   0.887  11.822 -0.0027  0.3368  0.0307
39461SOL    HW124220   5.858   0.803  11.800 -1.0336  0.9331 -0.4441
39461SOL    HW224221   5.930   0.921  11.738  0.4307  0.4139  0.2234
39462SOL     OW24222  10.973   6.076   5.400 -0.8811  0.0478  0.1098
39462SOL    HW124223  10.926   6.022   5.464 -0.0475  0.6627  1.2792
39462SOL    HW224224  11.028   6.015   5.352 -0.0291 -0.1913  1.3460
39463SOL     OW24225   6.677   7.251   0.646 -0.8339 -0.3527 -0.5468
39463SOL    HW124226   6.709   7.178   0.699 -2.9003 -0.5997  0.4802
39463SOL    HW224227   6.605   7.289   0.698 -0.3852  1.8872 -1.4451
39464SOL     OW24228   1.667   8.657   3.903 -0.0398 -0.1198  0.1421
39464SOL    HW124229   1.710   8.659   3.818 -1.0383  0.5110 -0.3628
39464SOL    HW224230   1.642   8.565   3.915  2.0946 -0.6662  0.8112
39465SOL     OW24231   6.089   9.188   9.103  0.0657  0.0173  0.2189
39465SOL    HW124232   6.173   9.230   9.118  0.2345 -0.3769  0.3943
39465SOL    HW224233   6.058   9.224   9.020  0.1207  0.6165  0.4608
39466SOL     OW24234   6.452   7.572  10.722 -0.7333  0.9359  0.0585
39466SOL    HW124235   6.547   7.583  10.716 -0.4194 -0.6893  1.3878
39466SOL    HW224236   6.416   7.645  10.671  1.2002  2.1631  0.3553
39467SOL     OW24237   8.878   4.341   0.562  0.1480 -0.3811 -0.1489
39467SOL    HW124238   8.815   4.333   0.633 -0.4512  0.0842 -0.6099
39467SOL    HW224239   8.962   4.356   0.605 -0.3206  0.5967  0.4556
39468SOL     OW24240   4.934   2.389   7.673  0.2005 -0.3767 -0.3831
39468SOL    HW124241   4.984   2.322   7.628  2.3597 -0.1568  1.5027
39468SOL    HW224242   4.870   2.341   7.725  0.7968 -0.9157 -0.1355
39469SOL     OW24243  11.271   4.600   0.964  0.1214  0.5275 -0.1347
39469SOL    HW124244  11.222   4.518   0.971  0.9900  0.0439  0.4362
39469SOL    HW224245  11.267   4.638   1.051  1.9702 -0.2527  0.3526
39470SOL     OW24246   7.714   7.266   6.128  0.3346  0.1801  0.0911
39470SOL    HW124247   7.705   7.361   6.122 -2.4916  0.0009 -0.0303
39470SOL    HW224248   7.672   7.244   6.212 -0.3750 -1.0585 -0.5709
39471SOL     OW24249   7.372   9.511   3.876  0.3862  0.0405 -0.0119
39471SOL    HW124250   7.289   9.558   3.875  0.4703  0.2003  0.3778
39471SOL    HW224251   7.438   9.578   3.894  0.6191 -0.0581 -0.4711
39472SOL     OW24252  12.254  11.692   8.635 -0.4814 -0.1784 -0.4025
39472SOL    HW124253  12.280  11.646   8.556  0.1480  1.3244 -1.0985
39472SOL    HW224254  12.277  11.784   8.619 -0.8904  0.2575  1.2795
39473SOL     OW24255   0.265  10.110   6.099  0.3524  0.1595 -0.4400
39473SOL    HW124256   0.263  10.054   6.021 -1.4241  1.0809 -1.1158
39473SOL    HW224257   0.223  10.191   6.071 -0.0210  0.6358  1.3766
39474SOL     OW24258   4.482   3.315   9.296 -0.0552 -0.2690  0.3794
39474SOL    HW124259   4.387   3.311   9.287  0.0650 -2.1506 -0.4463
39474SOL    HW224260   4.497   3.391   9.352 -1.8936  1.5676 -1.4221
39475SOL     OW24261   5.365   6.878   6.334  0.6098 -0.0625  0.1338
39475SOL    HW124262   5.390   6.855   6.424 -0.0428  0.9292  0.5903
39475SOL    HW224263   5.281   6.834   6.321 -0.1010  1.0859  0.6194
39476SOL     OW24264   3.406   5.893   7.014  0.6197  0.2042 -0.4814
39476SOL    HW124265   3.361   5.960   6.963 -1.2380 -0.5547  0.0759
39476SOL    HW224266   3.474   5.861   6.955  1.9517  2.9068 -0.5567
39477SOL     OW24267   0.169   2.103   3.600 -0.4351  0.6699 -0.3031
39477SOL    HW124268   0.228   2.178   3.603  1.7816 -0.9767  0.5124
39477SOL    HW224269   0.107   2.118   3.672  1.1278  0.8944  1.0665
39478SOL     OW24270   5.960   3.000   1.475  0.2467 -0.5164  0.1189
39478SOL    HW124271   6.028   2.993   1.409  1.0771 -0.8821  0.9924
39478SOL    HW224272   6.002   3.042   1.550 -0.9325  0.8077  0.0871
39479SOL     OW24273   0.147  12.072   5.329 -0.0464  0.3390  0.3844
39479SOL    HW124274   0.067  12.052   5.281 -0.0959 -0.3083  0.7139
39479SOL    HW224275   0.218  12.057   5.267 -0.1730  0.6958  0.1566
39480SOL     OW24276  10.530   8.468   1.615 -0.0612 -0.5249  0.0051
39480SOL    HW124277  10.618   8.497   1.589 -0.0609 -0.4738  0.0618
39480SOL    HW224278  10.546   8.388   1.665 -0.1014 -0.8971 -0.5767
39481SOL     OW24279   4.350  10.298   1.723  0.7243 -0.0424 -0.2836
39481SOL    HW124280   4.335  10.268   1.812 -1.5276  0.5474 -0.4214
39481SOL    HW224281   4.327  10.223   1.668 -1.8436  0.8152 -0.4901
39482SOL     OW24282   9.433  10.825   5.129 -0.0768 -0.0646 -0.1363
39482SOL    HW124283   9.510  10.802   5.076 -1.4209  0.9446 -2.6936
39482SOL    HW224284   9.466  10.825   5.219  3.1677  1.1974 -1.1563
39483SOL     OW24285   7.261   1.724   8.657 -0.5178 -0.3646  0.5971
39483SOL    HW124286   7.320   1.690   8.590 -1.0745  0.6670 -0.4563
39483SOL    HW224287   7.318   1.751   8.729  0.2369  0.0726 -0.1634
39484SOL     OW24288  12.156   8.158   3.905  0.3081  0.1801  0.1505
39484SOL    HW124289  12.165   8.237   3.958  0.0865 -0.1117  0.6268
39484SOL    HW224290  12.067   8.163   3.870  0.6967  0.7444 -0.8120
39485SOL     OW24291   3.935   7.443   1.041  0.1899 -0.4414 -0.2559
39485SOL    HW124292   3.964   7.353   1.057 -1.0406 -0.9449 -0.7286
39485SOL    HW224293   3.867   7.459   1.107  1.0101  0.4696  0.3966
39486SOL     OW24294   0.367   2.332   0.964 -0.2138 -0.1524  0.0410
39486SOL    HW124295   0.353   2.266   0.897 -1.4098  1.0063 -0.8981
39486SOL    HW224296   0.434   2.390   0.927  1.3643 -1.1620  1.1564
39487SOL     OW24297   0.962   2.452   8.364  0.4564 -0.5259 -0.2207
39487SOL    HW124298   0.985   2.478   8.275 -1.3421 -0.5653 -0.7341
39487SOL    HW224299   0.878   2.493   8.380  1.1836  0.2724  1.8618
39488SOL     OW24300   5.961   8.461   2.441 -0.2105  0.4051 -0.0357
39488SOL    HW124301   5.883   8.505   2.407 -0.7791 -1.4132 -1.2461
39488SOL    HW224302   5.935   8.428   2.527 -0.6549  0.1697 -0.2577
39489SOL     OW24303   7.106   2.856   3.485  0.3012 -0.1261 -0.4647
39489SOL    HW124304   7.080   2.777   3.438 -1.0106 -0.4098  0.6885
39489SOL    HW224305   7.079   2.928   3.427 -0.0840 -0.4965 -0.7473
39490SOL     OW24306   9.772   8.190  11.191  0.0260  0.0634 -0.3500
39490SOL    HW124307   9.704   8.251  11.220  0.8463  0.7397  0.2130
39490SOL    HW224308   9.823   8.239  11.127 -1.6975 -1.3778 -3.0340
39491SOL     OW24309   1.869   3.391   8.072 -0.2981 -0.4813  0.1188
39491SOL    HW124310   1.776   3.374   8.084 -0.4984 -0.0586 -0.7489
39491SOL    HW224311   1.910   3.361   8.153 -1.0368 -1.8329  0.0319
39492SOL     OW24312   3.311  10.600   7.778  0.4664  0.4943 -0.2212
39492SOL    HW124313   3.319  10.672   7.840 -2.2330 -0.2505  1.1353
39492SOL    HW224314   3.220  10.602   7.750  0.1560 -2.6300  0.2342
39493SOL     OW24315   6.616   9.856   0.696 -0.0492 -0.4847 -0.3606
39493SOL    HW124316   6.711   9.850   0.686  0.0715 -0.8758  0.8201
39493SOL    HW224317   6.591   9.772   0.734 -0.5504  0.3983  1.3826
39494SOL     OW24318   8.381   1.886   7.159 -0.3016  0.3279 -0.3251
39494SOL    HW124319   8.325   1.963   7.151 -1.8271 -0.7730 -0.6301
39494SOL    HW224320   8.470   1.922   7.160 -0.9159  2.0156 -1.4679
39495SOL     OW24321   2.159  10.235  11.165 -0.2456 -0.3401  0.8271
39495SOL    HW124322   2.117  10.234  11.079  1.0626  0.8502  0.1458
39495SOL    HW224323   2.220  10.162  11.164 -1.4413 -1.4022  1.4251
39496SOL     OW24324   2.729   8.734   4.039  0.0995 -0.2932  0.0462
39496SOL    HW124325   2.794   8.704   3.975  0.9184  1.1325  0.1592
39496SOL    HW224326   2.757   8.695   4.121 -0.9135 -2.0721 -0.4094
39497SOL     OW24327   7.729   9.471  12.018 -0.2132 -0.8715 -0.2135
39497SOL    HW124328   7.673   9.542  11.988  2.4547  0.1878 -3.2225
39497SOL    HW224329   7.751   9.494  12.109  0.3918  2.1224 -1.0104
39498SOL     OW24330   2.607   3.148   3.273 -0.0717  0.1270  0.1970
39498SOL    HW124331   2.617   3.237   3.307 -0.4355 -0.2504  1.3449
39498SOL    HW224332   2.565   3.100   3.345 -0.3584 -0.8429 -0.6042
39499SOL     OW24333   3.258   4.599   8.110 -0.0425  0.2656 -0.0274
39499SOL    HW124334   3.309   4.678   8.128 -0.9045  0.7476  0.3694
39499SOL    HW224335   3.184   4.604   8.171  0.6140 -1.5614  1.0113
39500SOL     OW24336  10.627   7.041  10.907 -0.4761  0.1850  0.1071
39500SOL    HW124337  10.716   7.027  10.876 -0.4004  1.8333 -0.5658
39500SOL    HW224338  10.627   7.132  10.938 -1.8277  0.0929  0.4246
39501SOL     OW24339   4.074  10.498   4.734  0.3353 -0.2448 -0.2205
39501SOL    HW124340   4.102  10.471   4.822 -2.4353 -0.6531  0.6130
39501SOL    HW224341   4.098  10.424   4.678 -0.1914 -1.1022  0.6600
39502SOL     OW24342   0.463   2.905   6.810  0.1553  0.0779 -0.1412
39502SOL    HW124343   0.393   2.859   6.763 -0.1056  2.2175 -2.0287
39502SOL    HW224344   0.488   2.845   6.880 -2.0038 -1.7248 -0.7827
39503SOL     OW24345   4.790   7.457   2.951  0.5493  0.2372 -0.0393
39503SOL    HW124346   4.754   7.368   2.945 -0.9556  0.7218  1.1659
39503SOL    HW224347   4.857   7.452   3.019 -0.8010  0.3811  1.3408
39504SOL     OW24348   3.654   0.243   6.139  0.2416  0.0187 -0.0261
39504SOL    HW124349   3.601   0.164   6.142  0.3641 -0.0337  2.2725
39504SOL    HW224350   3.609   0.305   6.196  1.6631  0.5858  0.5296
39505SOL     OW24351   5.286   7.754   0.787 -0.1362  0.4983 -0.3814
39505SOL    HW124352   5.197   7.779   0.813 -0.3568 -0.7022  0.0683
39505SOL    HW224353   5.294   7.662   0.814  1.0770  0.4528 -0.8491
39506SOL     OW24354   6.756   0.654  10.125  0.6902  0.3520  0.0543
39506SOL    HW124355   6.830   0.660  10.185  0.9557 -2.3622  0.1022
39506SOL    HW224356   6.680   0.639  10.181  0.7693 -1.0440 -0.1788
39507SOL     OW24357  11.958   1.265   6.058  0.1566  0.6635 -0.0648
39507SOL    HW124358  11.940   1.180   6.099 -1.5467  0.3061 -1.4616
39507SOL    HW224359  11.941   1.329   6.128 -1.0179 -0.0244  0.3108
39508SOL     OW24360   5.091   5.375  12.265  0.3418 -0.5417 -0.0308
39508SOL    HW124361   5.073   5.460  12.305  0.1800 -0.2602 -0.6804
39508SOL    HW224362   5.158   5.394  12.199  0.5929 -0.9912  0.0929
39509SOL     OW24363   2.751   7.137   8.806  0.3819  0.0563  0.8764
39509SOL    HW124364   2.700   7.096   8.876 -0.2054  1.7986  1.5115
39509SOL    HW224365   2.798   7.064   8.765  1.0373 -0.9917  3.3054
39510SOL     OW24366   0.851   7.115   2.725 -0.3360 -0.3977 -0.1748
39510SOL    HW124367   0.852   7.146   2.815 -0.0422 -1.5115  0.2190
39510SOL    HW224368   0.759   7.122   2.698 -0.2071  1.2919 -0.3020
39511SOL     OW24369   0.357   7.571  12.329  0.7217  0.2552  0.0811
39511SOL    HW124370   0.447   7.600  12.346  0.1346  1.2718  1.6921
39511SOL    HW224371   0.305   7.612  12.399 -1.0881  0.1546 -1.1436
39512SOL     OW24372   8.075   7.179   2.111  0.3771 -0.0121  0.0261
39512SOL    HW124373   8.095   7.273   2.118  0.9545 -0.1634  0.4848
39512SOL    HW224374   7.990   7.169   2.154  0.7113  0.1670  0.7347
39513SOL     OW24375   2.854  11.859   0.274  0.1697 -0.1972 -0.0870
39513SOL    HW124376   2.905  11.832   0.197 -1.4190 -2.3754 -0.4783
39513SOL    HW224377   2.767  11.879   0.239  0.4633  2.9430  0.6389
39514SOL     OW24378  10.332  10.998   8.573 -0.7858  0.2362  0.1792
39514SOL    HW124379  10.291  11.080   8.546 -0.3726  0.4104  0.0783
39514SOL    HW224380  10.417  10.998   8.529 -1.1079 -0.6257 -0.4684
39515SOL     OW24381   7.685  10.496   8.455  0.2230 -0.0895  0.3930
39515SOL    HW124382   7.720  10.579   8.423  2.4609 -1.1035  0.0191
39515SOL    HW224383   7.672  10.511   8.549  0.5372  0.6949  0.3243
39516SOL     OW24384   7.514  11.255  11.998  0.4702 -0.3932  0.3662
39516SOL    HW124385   7.428  11.268  12.038 -0.3132 -0.7098 -1.1552
39516SOL    HW224386   7.563  11.334  12.021 -0.8530  0.6551 -0.2845
39517SOL     OW24387  12.209   3.711   5.317  0.4084 -0.9832  0.5857
39517SOL    HW124388  12.174   3.635   5.270 -1.4202  0.5875 -0.7925
39517SOL    HW224389  12.137   3.739   5.374  0.6038  0.3123  0.2475
39518SOL     OW24390   5.250   5.762   2.369  0.1212  0.1530 -0.0576
39518SOL    HW124391   5.187   5.829   2.396 -0.4782 -0.2616 -0.3767
39518SOL    HW224392   5.304   5.747   2.446 -0.5069  0.1562  0.3917
39519SOL     OW24393   2.842   0.622   7.883  0.2046  0.1572 -0.0959
39519SOL    HW124394   2.793   0.589   7.807  1.4718 -2.3164  0.0521
39519SOL    HW224395   2.780   0.615   7.955  0.3275 -1.8636 -0.1183
39520SOL     OW24396   7.136   9.295  10.305 -0.2756 -0.0299 -0.0653
39520SOL    HW124397   7.091   9.356  10.247 -0.1065 -0.9582 -1.2273
39520SOL    HW224398   7.227   9.325  10.307 -0.2033 -0.2065 -0.5927
39521SOL     OW24399   5.442   2.350   8.440  0.0123  0.7658 -0.1582
39521SOL    HW124400   5.398   2.303   8.369 -0.9518  0.2693  0.7398
39521SOL    HW224401   5.523   2.382   8.401  0.0127 -0.4156 -1.1988
39522SOL     OW24402   4.817   9.928  10.562  0.0736  0.1260  0.3874
39522SOL    HW124403   4.897   9.881  10.587 -0.7573  0.4319  4.0907
39522SOL    HW224404   4.748   9.863  10.568 -0.2043  0.1781 -1.5721
39523SOL     OW24405   0.001   8.691   2.944 -0.0149 -0.5625 -0.4733
39523SOL    HW124406   0.060   8.617   2.961  1.6133  0.4526 -1.4386
39523SOL    HW224407  -0.019   8.684   2.851 -0.8916 -0.5098 -0.2917
39524SOL     OW24408   0.916  11.770  11.927 -0.3108 -0.3429  0.0418
39524SOL    HW124409   0.904  11.683  11.963  0.0086 -1.4777 -2.3686
39524SOL    HW224410   1.001  11.766  11.883 -1.3795  0.3125 -2.2433
39525SOL     OW24411   7.562   3.953   2.861  0.0238  0.3008 -0.0263
39525SOL    HW124412   7.519   4.012   2.799  0.9103  0.2358 -0.7183
39525SOL    HW224413   7.522   3.868   2.844  0.4099  0.2384 -0.6746
39526SOL     OW24414  10.962  11.819   8.198 -0.3267 -0.3082  0.4602
39526SOL    HW124415  10.996  11.793   8.113  0.1219 -0.4592  0.6811
39526SOL    HW224416  10.974  11.914   8.201  0.8359 -0.4479  0.8476
39527SOL     OW24417   4.337   9.574  10.769  1.0214 -0.3899  0.5102
39527SOL    HW124418   4.299   9.495  10.807 -2.3248  0.7155 -0.2276
39527SOL    HW224419   4.310   9.572  10.678  0.7426  1.6488  0.5112
39528SOL     OW24420   9.502   2.261   3.575  1.1619 -0.2008 -0.3236
39528SOL    HW124421   9.430   2.233   3.632  1.2604  0.9498  0.3946
39528SOL    HW224422   9.475   2.346   3.541  1.6841 -0.2878 -0.9780
39529SOL     OW24423  11.107   0.317  10.859  0.4837  0.1642 -0.0629
39529SOL    HW124424  11.032   0.288  10.807  0.2090 -0.3779  0.6144
39529SOL    HW224425  11.090   0.283  10.947  1.8740 -0.6061 -0.0555
39530SOL     OW24426   6.091   4.063   0.281  0.0349 -0.0924 -0.1701
39530SOL    HW124427   6.185   4.082   0.277  0.1466 -0.1058  1.6819
39530SOL    HW224428   6.049   4.140   0.242  0.7350  1.0646  1.2634
39531SOL     OW24429   0.609   2.335   4.517  0.9163  0.1167  0.3596
39531SOL    HW124430   0.687   2.383   4.541  1.8496 -0.2158 -1.8015
39531SOL    HW224431   0.552   2.399   4.475  0.6243  0.0609  0.6616
39532SOL     OW24432   3.586   9.709  10.297  0.4395  0.0224  0.1605
39532SOL    HW124433   3.593   9.753  10.381  0.1775  0.8441 -0.2361
39532SOL    HW224434   3.646   9.634  10.304  0.7031  0.2957  0.9360
39533SOL     OW24435   5.034   6.533  10.993  0.2298  0.4315  0.2605
39533SOL    HW124436   4.997   6.617  10.965  0.2016  0.2440 -0.2694
39533SOL    HW224437   4.992   6.515  11.077 -0.7647  0.2987 -0.2541
39534SOL     OW24438   1.732   6.216   1.189  0.2979 -0.4545  0.6688
39534SOL    HW124439   1.812   6.169   1.217  0.3681 -0.2658  0.7837
39534SOL    HW224440   1.751   6.244   1.100 -0.2603 -1.8287  0.0806
39535SOL     OW24441   6.732   2.229   9.944  0.0306  0.2567 -0.3399
39535SOL    HW124442   6.723   2.144   9.987 -3.4400  0.5803 -0.1926
39535SOL    HW224443   6.792   2.278  10.001  0.6312 -1.4534  0.5576
39536SOL     OW24444   0.124   5.129   4.534  0.4834  0.8797 -0.0810
39536SOL    HW124445   0.106   5.046   4.488  0.6026  1.5627 -1.4058
39536SOL    HW224446   0.039   5.155   4.570  0.3343  0.4635 -0.1217
39537SOL     OW24447   8.198  10.395   1.808  0.3129 -0.2349 -0.3589
39537SOL    HW124448   8.185  10.309   1.847 -2.0921  0.2243 -0.0049
39537SOL    HW224449   8.260  10.439   1.867 -0.9824 -0.5932  1.3473
39538SOL     OW24450   6.621   9.744   3.644 -0.6498  0.2563 -0.7726
39538SOL    HW124451   6.626   9.817   3.582 -0.7921  0.1939 -0.8567
39538SOL    HW224452   6.563   9.775   3.713 -0.6045  0.2724 -0.7415
39539SOL     OW24453   3.579  11.927   9.435 -0.1986 -0.2712 -0.2966
39539SOL    HW124454   3.510  11.866   9.412 -0.4812 -0.4619  1.0085
39539SOL    HW224455   3.541  12.014   9.419 -0.9382 -0.3583  0.9206
39540SOL     OW24456  11.575   1.196   6.755 -0.6923 -0.2240 -0.1407
39540SOL    HW124457  11.634   1.142   6.808 -1.9848  0.1398  1.7487
39540SOL    HW224458  11.630   1.225   6.681  0.7024 -2.0787  0.0852
39541SOL     OW24459   2.777   4.837   3.056  0.0465 -0.3472 -0.2179
39541SOL    HW124460   2.781   4.868   2.965 -0.5329  1.4483  0.3263
39541SOL    HW224461   2.819   4.751   3.054 -0.4531 -0.6004 -2.2814
39542SOL     OW24462   5.648   2.122   7.560  0.6401  0.0888  0.1412
39542SOL    HW124463   5.565   2.164   7.581  0.3090 -0.6857  0.4618
39542SOL    HW224464   5.655   2.051   7.625  1.6204  0.2364  0.2115
39543SOL     OW24465   1.549   0.032   9.702 -0.0432 -0.5094  0.0283
39543SOL    HW124466   1.625   0.041   9.760 -0.9999 -0.8387  1.3988
39543SOL    HW224467   1.574  -0.039   9.642  0.5145 -1.0315  0.8441
39544SOL     OW24468   6.776   9.565   1.306  0.4313  0.0435  0.8053
39544SOL    HW124469   6.736   9.499   1.249  0.5949  2.2450 -2.1192
39544SOL    HW224470   6.706   9.627   1.324 -0.0295 -1.3038  4.4650
39545SOL     OW24471   4.269   9.361   3.382 -0.4275 -0.1473  0.4091
39545SOL    HW124472   4.196   9.300   3.383 -0.2700 -0.3350  0.9084
39545SOL    HW224473   4.344   9.307   3.355 -0.4580  0.0298 -0.0392
39546SOL     OW24474   5.977   9.493  11.050  0.6728  0.2581 -0.1786
39546SOL    HW124475   5.908   9.445  11.004 -0.4631 -0.5011  2.1781
39546SOL    HW224476   6.010   9.431  11.115  2.4420  1.1779 -0.1500
39547SOL     OW24477   1.014   3.663  10.733  0.3132 -0.9338 -0.4178
39547SOL    HW124478   1.091   3.609  10.715 -0.2584 -1.7534 -0.4902
39547SOL    HW224479   1.044   3.730  10.794  0.3435 -3.3096  2.3864
39548SOL     OW24480   0.462   5.401   2.324 -0.7056  0.7865 -0.7006
39548SOL    HW124481   0.377   5.393   2.365 -0.9042  0.2516 -1.2001
39548SOL    HW224482   0.474   5.495   2.309 -0.6122  0.9883  0.5885
39549SOL     OW24483   9.226   8.088   3.340  0.3059  0.0098  0.4100
39549SOL    HW124484   9.285   8.054   3.273 -1.0713  0.8752 -1.3366
39549SOL    HW224485   9.195   8.171   3.305  0.7476  1.3364  2.8888
39550SOL     OW24486   5.921   3.558   7.374  0.2146  0.5388 -0.1845
39550SOL    HW124487   5.974   3.513   7.308  0.0040 -0.4859  0.3238
39550SOL    HW224488   5.927   3.503   7.451  1.4983  2.3565  1.1043
39551SOL     OW24489   1.367   3.318   9.082  0.0201  0.0341 -0.0200
39551SOL    HW124490   1.325   3.256   9.022  3.3330 -2.3684 -0.1518
39551SOL    HW224491   1.374   3.399   9.031 -1.5792 -0.4018 -1.0184
39552SOL     OW24492   9.527   4.462   5.425  0.2335 -0.1545 -0.6915
39552SOL    HW124493   9.580   4.535   5.457  0.5436 -0.0837 -1.3388
39552SOL    HW224494   9.492   4.421   5.504 -0.7138  1.2442 -0.3409
39553SOL     OW24495   9.658   2.563   1.064  0.4194  0.8517 -0.6166
39553SOL    HW124496   9.602   2.627   1.107  1.0482  0.8612  0.2127
39553SOL    HW224497   9.597   2.505   1.017 -0.0990  3.3391 -3.3238
39554SOL     OW24498   7.529   2.110   6.692 -0.3740  0.3930 -0.1687
39554SOL    HW124499   7.591   2.048   6.652 -2.7326 -0.6546 -2.4958
39554SOL    HW224500   7.476   2.142   6.618 -1.9059  2.0724  1.5528
39555SOL     OW24501   6.887   0.196   6.805 -0.7660 -0.0154 -0.3390
39555SOL    HW124502   6.815   0.211   6.744  0.4541  0.5955 -1.6616
39555SOL    HW224503   6.899   0.101   6.804 -0.0178  0.0622 -1.9670
39556SOL     OW24504   2.997   8.311   5.357  0.2950 -0.3198 -0.0495
39556SOL    HW124505   2.961   8.318   5.268 -1.8875  1.4217  0.8712
39556SOL    HW224506   3.061   8.241   5.351  0.4337 -0.0862 -3.0607
39557SOL     OW24507  10.268  10.410   3.167 -0.0164  0.4190  0.2033
39557SOL    HW124508  10.219  10.378   3.091  0.2347  1.3638 -0.3819
39557SOL    HW224509  10.208  10.471   3.211  0.0921  0.4266  0.3438
39558SOL     OW24510   4.476   0.969   9.990 -0.0369  0.6745  0.3269
39558SOL    HW124511   4.555   0.914   9.991 -0.1795  0.3836 -1.4450
39558SOL    HW224512   4.427   0.942  10.068  0.1348 -1.3861 -0.2104
39559SOL     OW24513   7.448   1.951   3.435  0.6438  0.2577 -0.2951
39559SOL    HW124514   7.498   1.938   3.355 -0.7656 -2.0742 -0.8862
39559SOL    HW224515   7.417   1.863   3.458 -0.0953  1.0722  2.0842
39560SOL     OW24516   0.814   0.527   4.755  0.1358  0.0178  0.9098
39560SOL    HW124517   0.760   0.464   4.707 -0.4719  1.8056 -0.9002
39560SOL    HW224518   0.904   0.501   4.735 -0.0595 -1.2327  1.5559
39561SOL     OW24519   3.538  12.222  10.240 -0.1304 -0.3649 -0.3999
39561SOL    HW124520   3.507  12.182  10.159 -0.2241 -0.4395 -0.3270
39561SOL    HW224521   3.461  12.267  10.276 -1.0951 -3.2343  1.4704
39562SOL     OW24522   0.486   0.292   7.077  0.2755  0.1987  0.5079
39562SOL    HW124523   0.412   0.323   7.129  0.7239  2.4374 -0.0970
39562SOL    HW224524   0.560   0.346   7.105  0.8267  0.5653 -1.4610
39563SOL     OW24525   8.720   0.720   8.222 -0.1591  0.6280  0.7262
39563SOL    HW124526   8.744   0.656   8.155  0.6988  1.0388  0.6219
39563SOL    HW224527   8.698   0.799   8.173 -0.3095  0.6926  0.8957
39564SOL     OW24528   1.825   7.001   4.570  0.1849 -0.1924  0.0093
39564SOL    HW124529   1.825   6.955   4.486  0.2868  0.2734 -0.2503
39564SOL    HW224530   1.917   7.020   4.587  0.1366 -0.0170  0.0773
39565SOL     OW24531   8.436   1.864   8.567 -0.1560  0.0123 -0.4157
39565SOL    HW124532   8.489   1.814   8.504  0.9797  1.0448 -0.3191
39565SOL    HW224533   8.360   1.893   8.516 -0.2228 -0.7900 -0.7879
39566SOL     OW24534   3.337   9.840   4.125 -0.2419 -0.7447 -0.1487
39566SOL    HW124535   3.245   9.861   4.136 -0.1035  0.4523 -1.0837
39566SOL    HW224536   3.377   9.921   4.094  0.9209 -1.5337 -0.7882
39567SOL     OW24537   8.342   7.996   0.094  0.1436 -0.0602  0.1827
39567SOL    HW124538   8.289   7.958   0.024  0.1719  0.0212  0.1160
39567SOL    HW224539   8.423   8.023   0.050  0.1811 -0.0537  0.2564
39568SOL     OW24540   6.865   1.868   7.052 -0.6809  0.2844  0.4708
39568SOL    HW124541   6.838   1.822   6.972 -1.9135 -1.1712  1.6663
39568SOL    HW224542   6.802   1.940   7.060 -0.5678  0.4204  0.1402
39569SOL     OW24543   2.215   6.439   2.379 -0.1225 -0.3091  0.2927
39569SOL    HW124544   2.224   6.349   2.347  0.8654 -0.3206  0.5589
39569SOL    HW224545   2.274   6.444   2.454  1.6070  1.1669 -1.0517
39570SOL     OW24546   0.477   9.244  10.418 -0.2463 -0.0390 -0.1575
39570SOL    HW124547   0.561   9.231  10.374 -0.4967 -1.2247 -0.3241
39570SOL    HW224548   0.487   9.326  10.466  0.4103  0.7398 -1.5625
39571SOL     OW24549   6.572   1.976   8.309 -0.2636 -0.5281 -0.1078
39571SOL    HW124550   6.527   1.913   8.253 -0.6767 -0.3575  0.0269
39571SOL    HW224551   6.656   1.935   8.329 -1.1983 -1.8141  1.3935
39572SOL     OW24552   1.157   0.161   6.648 -0.4812  0.5005  0.3197
39572SOL    HW124553   1.079   0.197   6.605 -1.3688 -1.5112  0.1375
39572SOL    HW224554   1.203   0.113   6.580 -0.9711 -1.2413  1.1645
39573SOL     OW24555   6.668   2.394   2.757  0.0201 -0.0915  0.2897
39573SOL    HW124556   6.689   2.326   2.693 -1.8187 -0.2520 -0.2021
39573SOL    HW224557   6.738   2.457   2.748  1.9379 -2.0086  0.9484
39574SOL     OW24558   4.967  12.083   2.943  0.3485 -0.0221  0.1458
39574SOL    HW124559   5.029  12.023   2.901  0.2181 -0.1374  0.1186
39574SOL    HW224560   4.881  12.044   2.928  0.0118  1.4187 -1.9904
39575SOL     OW24561   1.662   1.053   7.428 -0.2069 -0.2078 -0.2187
39575SOL    HW124562   1.702   1.078   7.345  0.4214 -0.2480  0.0683
39575SOL    HW224563   1.577   1.017   7.404 -0.2376  0.2441 -0.8043
39576SOL     OW24564   1.019   5.210   1.664  0.4276  0.1073  0.4205
39576SOL    HW124565   1.021   5.282   1.600  1.1007  0.4709  0.8330
39576SOL    HW224566   0.930   5.212   1.699  0.4227  0.7193  0.3964
39577SOL     OW24567   2.562   9.720   0.933  0.1602 -0.0498 -0.1288
39577SOL    HW124568   2.596   9.659   0.868  0.2674 -1.8189  1.5276
39577SOL    HW224569   2.520   9.789   0.881  0.6547 -1.1501 -2.0668
39578SOL     OW24570   2.533   4.845  11.295  0.4115  0.5932  0.7620
39578SOL    HW124571   2.532   4.861  11.201 -1.6187  2.8435  1.0616
39578SOL    HW224572   2.600   4.778  11.308  1.9296  1.4258 -2.0757
39579SOL     OW24573   6.223  10.765   1.012  0.1219  0.0222 -0.2112
39579SOL    HW124574   6.294  10.827   1.023 -1.5602  1.9546  0.3888
39579SOL    HW224575   6.237  10.699   1.080  0.6659  1.0334  0.6658
39580SOL     OW24576   1.603   9.534  11.064  0.5573 -0.1130 -0.7581
39580SOL    HW124577   1.554   9.534  11.146  2.5280  1.0785  0.5342
39580SOL    HW224578   1.581   9.452  11.021 -0.7265 -0.6476  0.8575
39581SOL     OW24579   5.444   7.837   8.183 -0.1665  0.3728  0.2579
39581SOL    HW124580   5.536   7.859   8.171 -0.2005  0.4734  0.1840
39581SOL    HW224581   5.421   7.789   8.103  0.3735 -1.4693  1.1407
39582SOL     OW24582  11.841   1.683   0.731 -0.3914 -0.0825 -0.1057
39582SOL    HW124583  11.903   1.637   0.787 -0.2540  0.4126  0.1595
39582SOL    HW224584  11.886   1.764   0.707 -0.9448  0.2951  0.1094
39583SOL     OW24585   9.375  11.617   7.248 -0.0498  0.3622  0.0186
39583SOL    HW124586   9.401  11.636   7.158  0.9120  0.7300  0.3593
39583SOL    HW224587   9.335  11.530   7.243 -0.8994  0.7928 -0.9153
39584SOL     OW24588  11.705   7.734   9.348  0.0495  0.6239 -0.2517
39584SOL    HW124589  11.793   7.697   9.338  0.3545  1.3778 -0.3863
39584SOL    HW224590  11.654   7.696   9.276  0.5234  0.9330 -0.7591
39585SOL     OW24591   3.214   0.583   9.625  0.3685  0.1105 -0.3847
39585SOL    HW124592   3.160   0.516   9.667 -1.3603  2.2326  1.0004
39585SOL    HW224593   3.301   0.570   9.661 -0.3575 -0.2431  1.3384
39586SOL     OW24594  10.371   4.935  10.630  0.0792  0.2455 -0.0109
39586SOL    HW124595  10.431   5.005  10.604 -0.7674  1.7547  1.8012
39586SOL    HW224596  10.411   4.899  10.710 -0.8648  0.5882  0.6395
39587SOL     OW24597   6.751   0.880   1.680  0.0106  0.4604 -0.0881
39587SOL    HW124598   6.706   0.959   1.651 -0.2991 -0.1395 -1.3185
39587SOL    HW224599   6.842   0.909   1.694 -0.5043  1.4454  1.4186
39588SOL     OW24600   8.488  11.462  11.136 -0.0703  0.1915  0.3261
39588SOL    HW124601   8.460  11.383  11.181  0.2134  0.8052  1.6209
39588SOL    HW224602   8.492  11.529  11.204 -1.0433  1.5281 -0.8502
39589SOL     OW24603  12.229   2.220  10.028 -0.0191 -0.1618 -0.4282
39589SOL    HW124604  12.151   2.270  10.005 -0.2857 -0.2976  0.1593
39589SOL    HW224605  12.297   2.287  10.042 -0.0081 -0.0501 -1.0162
39590SOL     OW24606   8.082   4.397   6.314 -0.0371 -0.6645 -0.2217
39590SOL    HW124607   8.119   4.310   6.300  1.1001 -0.1181 -0.6986
39590SOL    HW224608   8.145   4.457   6.275 -1.7176  0.2843 -1.6769
39591SOL     OW24609   4.275   7.340  10.015 -0.6291 -0.1092  0.0650
39591SOL    HW124610   4.187   7.321   9.983 -0.4613  1.8523 -1.7569
39591SOL    HW224611   4.333   7.296   9.953 -0.3262  2.6094 -1.7546
39592SOL     OW24612   8.758   1.329   1.627  0.2114 -0.0777  0.0669
39592SOL    HW124613   8.686   1.388   1.605 -0.0165 -0.4678 -0.2568
39592SOL    HW224614   8.714   1.247   1.650  0.5654 -0.4166 -0.4520
39593SOL     OW24615   2.662   4.469   6.950  0.8478 -0.1840 -0.1075
39593SOL    HW124616   2.649   4.505   7.038  1.3386 -1.7790  0.6593
39593SOL    HW224617   2.751   4.434   6.951  1.1480  0.4583 -1.5173
39594SOL     OW24618   2.577   4.627   9.374  0.6385 -0.6208  0.4020
39594SOL    HW124619   2.640   4.572   9.328  2.1390 -0.2247  1.8688
39594SOL    HW224620   2.627   4.703   9.403 -1.1880  1.1604 -0.8311
39595SOL     OW24621   5.107   6.410   3.089  0.2238  0.2995 -0.1734
39595SOL    HW124622   5.023   6.364   3.085  0.1784  0.1630  1.5644
39595SOL    HW224623   5.100   6.479   3.023 -1.3581  0.4479  0.1257
39596SOL     OW24624   8.273  11.381   0.862 -0.0651  0.6774 -0.3331
39596SOL    HW124625   8.292  11.298   0.819 -1.3695  0.9668 -1.5526
39596SOL    HW224626   8.331  11.383   0.938  0.3069 -1.1401 -0.5260
39597SOL     OW24627  10.454   7.010   4.394 -0.2610  0.3858 -0.4472
39597SOL    HW124628  10.499   6.997   4.478 -2.0681 -1.1499  0.3620
39597SOL    HW224629  10.497   6.950   4.334 -0.4699 -0.2685  0.0372
39598SOL     OW24630   3.246   0.457   2.217 -0.2927  0.0852  0.2248
39598SOL    HW124631   3.225   0.396   2.147 -1.9417  1.2612 -0.3777
39598SOL    HW224632   3.199   0.425   2.294  0.2986 -0.3650  0.4103
39599SOL     OW24633   5.553   7.407   3.759  0.3687  0.1314 -0.1241
39599SOL    HW124634   5.627   7.406   3.819 -1.0726 -1.4892  1.7672
39599SOL    HW224635   5.563   7.327   3.707 -0.9680 -1.1060  1.4330
39600SOL     OW24636   3.174   0.973  11.922 -0.2101 -0.2763 -0.0270
39600SOL    HW124637   3.156   0.940  12.010  0.5748  0.3149  0.3720
39600SOL    HW224638   3.252   0.925  11.893  0.9138  1.1188  0.5403
39601SOL     OW24639   5.824   4.045   1.318  0.3218  0.1818  0.3493
39601SOL    HW124640   5.878   4.009   1.248  0.2508 -0.1191  0.4496
39601SOL    HW224641   5.763   3.975   1.340  0.8379 -0.0043  1.2347
39602SOL     OW24642   1.435   4.347   2.173  0.4183  0.2582  0.3065
39602SOL    HW124643   1.499   4.300   2.226 -1.2972 -0.5198  1.8004
39602SOL    HW224644   1.363   4.285   2.162  0.6241  0.4385 -2.8910
39603SOL     OW24645   8.080   1.369   0.375  0.7693  0.2086 -0.3480
39603SOL    HW124646   7.985   1.379   0.370  0.6352 -0.7276  0.2010
39603SOL    HW224647   8.101   1.391   0.466  0.9758 -0.3503 -0.2589
39604SOL     OW24648   5.343   9.428   1.273  0.7887  0.0840  0.5464
39604SOL    HW124649   5.289   9.494   1.229  1.5082 -0.5825 -1.4420
39604SOL    HW224650   5.282   9.360   1.299  0.4004  0.2838  0.1682
39605SOL     OW24651   3.312   0.927   4.959  0.3807 -0.1003 -0.0428
39605SOL    HW124652   3.370   0.882   5.021 -1.3538 -0.6406  1.2564
39605SOL    HW224653   3.354   1.013   4.947 -0.7647  1.4301  4.5881
39606SOL     OW24654  10.062   8.692   6.904 -0.2064 -0.3683 -0.3625
39606SOL    HW124655  10.029   8.781   6.897 -0.8025 -0.5626 -0.1116
39606SOL    HW224656   9.992   8.644   6.950  0.3278 -0.8390 -0.0277
39607SOL     OW24657   2.831   4.030   7.516 -0.3614  0.7300  0.2618
39607SOL    HW124658   2.751   4.073   7.487 -1.0299  0.2313  1.3299
39607SOL    HW224659   2.897   4.057   7.452 -1.0751  2.1988  0.1047
39608SOL     OW24660   9.902   2.482   6.320 -0.2413 -1.0380 -0.3746
39608SOL    HW124661   9.983   2.493   6.370 -0.3176 -1.7327 -0.0807
39608SOL    HW224662   9.850   2.559   6.342 -0.3055 -1.3661  0.6939
39609SOL     OW24663   5.056  12.085   5.419  0.3787  0.1250  0.3338
39609SOL    HW124664   5.131  12.065   5.474  0.8884  0.0121 -0.3833
39609SOL    HW224665   5.039  12.003   5.371  1.5752  0.9228 -1.5672
39610SOL     OW24666   5.986   9.150   0.613  0.0233  1.0587  0.6154
39610SOL    HW124667   5.966   9.232   0.657 -2.6537  0.7367  0.1420
39610SOL    HW224668   5.913   9.136   0.552  1.0530 -1.0229 -0.2560
39611SOL     OW24669   0.632   6.350  10.703 -0.1451  0.5685  0.2275
39611SOL    HW124670   0.665   6.334  10.615 -0.8535 -1.2979  0.2550
39611SOL    HW224671   0.636   6.265  10.746 -3.0194  0.6518  0.8693
39612SOL     OW24672   4.054   0.196   3.405  0.1537  0.1868 -0.7350
39612SOL    HW124673   4.004   0.130   3.451  0.8563 -0.4827 -0.9158
39612SOL    HW224674   4.045   0.174   3.312  1.0653 -0.1598 -0.7517
39613SOL     OW24675   2.173  11.339  12.323 -0.5977 -0.5120  0.4909
39613SOL    HW124676   2.252  11.303  12.282 -0.3128 -0.3252  0.8725
39613SOL    HW224677   2.171  11.300  12.410 -0.4480  0.1469  0.8004
39614SOL     OW24678   0.838   8.798  10.747  0.3743  0.3503  0.0819
39614SOL    HW124679   0.909   8.775  10.808  0.8752  0.4296 -0.4570
39614SOL    HW224680   0.855   8.889  10.725  1.3205 -0.1800 -1.6113
39615SOL     OW24681  10.609   2.943   6.658 -0.5724  0.3357 -0.0050
39615SOL    HW124682  10.630   2.920   6.749 -3.5741  1.4413  1.0981
39615SOL    HW224683  10.563   2.866   6.625  0.0904  0.1259 -0.4609
39616SOL     OW24684   6.967   0.616   3.434  0.1560  0.0148 -0.0481
39616SOL    HW124685   6.951   0.607   3.340  0.6451  3.7912 -0.6349
39616SOL    HW224686   7.061   0.631   3.441 -0.1246  1.5574  0.7920
39617SOL     OW24687   1.676   3.883  10.932 -0.3293  0.4634 -0.4019
39617SOL    HW124688   1.597   3.867  10.880 -0.0146 -1.4098 -0.3619
39617SOL    HW224689   1.732   3.934  10.874 -0.7304 -0.0152 -1.2337
39618SOL     OW24690   9.448   8.738   6.885 -0.5562 -0.0731  0.0817
39618SOL    HW124691   9.492   8.797   6.945 -1.0560 -0.6090  0.9964
39618SOL    HW224692   9.511   8.723   6.815  0.7941 -0.9453  1.4368
39619SOL     OW24693   2.830  11.278   2.026  0.4855  0.5580 -0.2882
39619SOL    HW124694   2.847  11.234   2.109  0.3562  1.0830  0.0178
39619SOL    HW224695   2.735  11.280   2.018  0.4976 -0.8122 -1.1671
39620SOL     OW24696   0.959   4.141   0.255  0.1913 -0.8450 -0.4224
39620SOL    HW124697   0.998   4.072   0.309 -0.5472 -0.7196  0.2897
39620SOL    HW224698   0.918   4.201   0.318  1.6609  0.8034 -0.9468
39621SOL     OW24699   8.712   1.215   7.126 -0.0915  0.4414 -0.1785
39621SOL    HW124700   8.807   1.213   7.114 -0.1108  1.1788 -0.5310
39621SOL    HW224701   8.682   1.283   7.065 -1.0052 -0.7644 -1.0969
39622SOL     OW24702   9.193   5.894   6.255  0.8383  0.0459  0.4799
39622SOL    HW124703   9.179   5.945   6.335 -0.8969  0.5585 -0.1044
39622SOL    HW224704   9.229   5.957   6.192 -1.4861  0.6634 -0.3009
39623SOL     OW24705   1.644   2.575   9.597  0.2655 -0.5954  0.6601
39623SOL    HW124706   1.732   2.603   9.572 -0.9809  0.9503 -2.5982
39623SOL    HW224707   1.620   2.508   9.533 -1.5167  0.3312  0.2674
39624SOL     OW24708   3.421   1.141   3.945 -0.0144 -0.0539 -0.1775
39624SOL    HW124709   3.478   1.123   3.871 -0.4426 -0.0230 -0.5208
39624SOL    HW224710   3.348   1.080   3.935 -0.1810  0.0939  0.1004
39625SOL     OW24711   4.808   0.573   3.689 -0.0920  0.8917  0.0151
39625SOL    HW124712   4.841   0.564   3.779 -0.2866 -3.5243 -0.1539
39625SOL    HW224713   4.882   0.547   3.634 -0.9327  0.4576 -0.9332
39626SOL     OW24714   6.996  11.386   0.311  0.0224  0.3746  0.0460
39626SOL    HW124715   6.978  11.445   0.238  0.6538 -1.2071 -1.4530
39626SOL    HW224716   7.064  11.327   0.278 -1.8065 -2.3320  0.8158
39627SOL     OW24717  11.563   7.970   7.196  0.3603 -0.6269 -0.6054
39627SOL    HW124718  11.473   8.003   7.201 -0.4981 -2.9371  0.5458
39627SOL    HW224719  11.576   7.949   7.104 -1.3885 -2.9212 -0.4313
39628SOL     OW24720   5.613   7.674  10.551 -0.0985 -0.3912 -0.3236
39628SOL    HW124721   5.546   7.621  10.509  0.7871 -0.1878 -2.0942
39628SOL    HW224722   5.692   7.659  10.499  0.3085  2.2962 -0.6161
39629SOL     OW24723   2.237   5.412  11.648  0.0537 -0.4121  0.0509
39629SOL    HW124724   2.312   5.358  11.624 -0.4893 -0.6564 -1.1344
39629SOL    HW224725   2.251   5.495  11.602  0.3221  0.0760  0.9867
39630SOL     OW24726   9.721  11.937   6.203  0.2723 -0.5323 -0.0144
39630SOL    HW124727   9.658  12.002   6.234  0.5162 -0.6785  0.8302
39630SOL    HW224728   9.687  11.908   6.119  0.0754  0.5758 -0.3356
39631SOL     OW24729   0.384   1.032   6.253 -0.2993  0.9017 -0.3755
39631SOL    HW124730   0.457   1.001   6.306 -0.8651 -0.5681 -0.3981
39631SOL    HW224731   0.341   1.098   6.308  0.7300  1.4171 -0.1612
39632SOL     OW24732   2.610   1.592   8.257  0.0519  0.7384  0.4522
39632SOL    HW124733   2.526   1.574   8.215 -0.2818  3.9933 -0.5399
39632SOL    HW224734   2.637   1.508   8.293 -2.1880 -1.0678 -1.7502
39633SOL     OW24735   5.458   1.522   7.945  0.2463 -0.1740  0.3253
39633SOL    HW124736   5.511   1.465   8.000 -2.1596 -0.5856  2.4351
39633SOL    HW224737   5.431   1.593   8.004 -3.0445 -1.0181  0.0288
39634SOL     OW24738   4.189  10.100   2.826  0.2733 -0.0733  0.2742
39634SOL    HW124739   4.125  10.042   2.868  0.3797 -1.0877 -0.8951
39634SOL    HW224740   4.178  10.184   2.869  0.1813 -0.9813  2.1311
39635SOL     OW24741   5.808  10.288   1.913 -0.0914  0.6362 -0.8239
39635SOL    HW124742   5.813  10.381   1.938  2.1069  0.6565 -1.2047
39635SOL    HW224743   5.884  10.274   1.858 -0.0078 -1.5878 -0.2172
39636SOL     OW24744   9.368   0.307   4.516 -0.0673  0.0487  0.3139
39636SOL    HW124745   9.419   0.335   4.441 -0.3023  0.9184  0.4699
39636SOL    HW224746   9.407   0.351   4.591  0.5905 -1.3344  0.8226
39637SOL     OW24747   4.878   1.419   9.891  0.2164  0.6791  0.3133
39637SOL    HW124748   4.969   1.434   9.864  0.0026  0.8638 -0.3068
39637SOL    HW224749   4.826   1.478   9.837 -0.4344 -0.6514 -0.5712
39638SOL     OW24750  10.296   1.606  10.523 -0.1599 -0.5719  0.6493
39638SOL    HW124751  10.247   1.687  10.511 -0.4112 -1.0094 -1.9018
39638SOL    HW224752  10.370   1.630  10.577 -0.4293  1.2852  0.2527
39639SOL     OW24753   6.737   1.118  10.384 -0.1353  0.4384 -0.0105
39639SOL    HW124754   6.709   1.028  10.402 -0.4336  0.7053  0.9209
39639SOL    HW224755   6.763   1.153  10.469 -0.2114  1.3045 -0.3282
39640SOL     OW24756   0.495   4.528   4.867  0.1771  0.0776  0.1316
39640SOL    HW124757   0.459   4.451   4.911  1.3923 -1.0439 -0.7581
39640SOL    HW224758   0.587   4.529   4.893  1.0043 -0.7422 -2.4298
39641SOL     OW24759   2.367   2.483  11.744  0.1756  0.1244 -0.1651
39641SOL    HW124760   2.458   2.457  11.756  0.0000 -0.2611  0.3466
39641SOL    HW224761   2.368   2.536  11.664  0.9821  0.8331  0.3009
39642SOL     OW24762   2.578   0.305   2.526  0.1034 -0.0283  0.0203
39642SOL    HW124763   2.618   0.230   2.482  1.0706  0.0796  0.6895
39642SOL    HW224764   2.531   0.351   2.457  2.6163  0.8522 -1.2353
39643SOL     OW24765   2.436   6.443   6.300  0.4062  0.5297  0.4104
39643SOL    HW124766   2.447   6.425   6.393  2.1269 -1.7173 -0.1571
39643SOL    HW224767   2.392   6.529   6.297 -1.1187 -0.0326  3.2661
39644SOL     OW24768   1.356   5.414   2.117  0.1277  0.1138  0.0783
39644SOL    HW124769   1.292   5.444   2.053  0.5500 -0.8957 -0.8455
39644SOL    HW224770   1.440   5.445   2.084  0.4494 -1.1180 -0.3402
39645SOL     OW24771   2.994   1.511   6.024 -0.1906 -0.1713  0.1706
39645SOL    HW124772   3.030   1.599   6.034 -1.3582  0.4046 -0.4686
39645SOL    HW224773   2.929   1.503   6.095 -1.6285  0.3284 -1.0349
39646SOL     OW24774   9.837   6.449   2.962 -0.5198  0.3864 -0.0467
39646SOL    HW124775   9.884   6.375   3.001 -1.7850  0.3284  1.4626
39646SOL    HW224776   9.903   6.494   2.909  1.0177 -0.1655  1.3136
39647SOL     OW24777   6.014  11.408   8.848 -0.1916  0.2935 -0.6104
39647SOL    HW124778   6.067  11.332   8.873 -0.5237 -0.0554 -0.9349
39647SOL    HW224779   6.047  11.433   8.761 -1.2187 -0.5738 -1.2834
39648SOL     OW24780   4.798   1.745   6.451  0.0004  0.4867 -0.0437
39648SOL    HW124781   4.719   1.736   6.503  0.1389  0.5474  0.1772
39648SOL    HW224782   4.769   1.790   6.371 -0.6151 -1.4685 -0.9824
39649SOL     OW24783   0.884   8.853   8.692  0.4095  0.2208  0.1641
39649SOL    HW124784   0.890   8.787   8.623  1.4400  1.2191 -0.7414
39649SOL    HW224785   0.973   8.860   8.727  0.1485  0.5863  0.7803
39650SOL     OW24786   8.383   3.938   6.790  0.0417  0.0557  0.5385
39650SOL    HW124787   8.338   3.995   6.851 -0.1898 -0.5282  0.9171
39650SOL    HW224788   8.317   3.917   6.724 -0.6296 -1.7301  1.7072
39651SOL     OW24789   2.817   4.073  12.018  0.1753 -0.3074 -0.1559
39651SOL    HW124790   2.783   3.993  11.978  0.1732  0.4284 -1.6808
39651SOL    HW224791   2.739   4.119  12.049  0.1404 -0.6696  0.3051
39652SOL     OW24792   0.888   7.504   4.920 -0.4170 -0.4121 -0.1682
39652SOL    HW124793   0.861   7.594   4.936  0.4888 -0.1905  0.1929
39652SOL    HW224794   0.968   7.512   4.868 -0.0646 -0.9916  0.2740
39653SOL     OW24795   9.300   1.719   1.904 -0.1106 -0.5112 -0.1940
39653SOL    HW124796   9.373   1.670   1.941  0.8952  0.5581 -0.7040
39653SOL    HW224797   9.337   1.765   1.829 -1.1712  0.4756 -0.1411
39654SOL     OW24798  11.315   9.688   0.935 -0.4381  0.0809 -0.1995
39654SOL    HW124799  11.242   9.726   0.886  0.2296  1.0394 -0.4707
39654SOL    HW224800  11.389   9.689   0.874 -0.2167 -0.9947  0.0329
39655SOL     OW24801   9.299  10.617   0.456 -0.5443 -0.4863 -0.3092
39655SOL    HW124802   9.363  10.555   0.490  0.3471  0.6868  0.2324
39655SOL    HW224803   9.325  10.701   0.493 -1.6935  0.2268 -1.0487
39656SOL     OW24804  10.121   8.916   9.633  0.2483  0.6931 -0.2421
39656SOL    HW124805  10.104   8.861   9.556 -0.6996  1.2292 -0.4218
39656SOL    HW224806  10.190   8.976   9.604  1.0863 -0.1725 -0.1356
39657SOL     OW24807   9.565   5.098   2.113 -0.0980 -0.1948 -0.1731
39657SOL    HW124808   9.601   5.158   2.178  1.2619 -0.0064 -1.0498
39657SOL    HW224809   9.473   5.124   2.103  0.5322  1.9870 -0.7734
39658SOL     OW24810   5.760   0.936   0.056 -0.5669 -0.4544 -0.4814
39658SOL    HW124811   5.689   0.871   0.052 -0.4191 -0.5864 -1.0693
39658SOL    HW224812   5.716   1.018   0.077 -0.5881 -1.0049  2.0676
39659SOL     OW24813   3.264   6.286   0.531 -0.0355  0.4397  0.3574
39659SOL    HW124814   3.226   6.320   0.612 -0.2291 -0.1622  0.5281
39659SOL    HW224815   3.300   6.362   0.487 -1.0957  0.9723  0.3864
39660SOL     OW24816   3.220   5.579   5.197 -0.2745 -0.3633  0.1121
39660SOL    HW124817   3.248   5.670   5.184 -0.5255 -0.1634  0.9146
39660SOL    HW224818   3.286   5.542   5.256 -0.2171 -0.6847 -0.1483
39661SOL     OW24819   9.111  12.322  11.366 -0.2560  0.1350 -0.0926
39661SOL    HW124820   9.153  12.238  11.381 -1.5883 -0.3931  0.9874
39661SOL    HW224821   9.182  12.382  11.345  1.0016 -0.7654  1.3828
39662SOL     OW24822   1.506   6.242   4.900  0.4976 -0.3012 -0.1869
39662SOL    HW124823   1.493   6.171   4.962 -0.4011  0.7731  0.8921
39662SOL    HW224824   1.591   6.223   4.859  0.6278 -1.5631  0.6330
39663SOL     OW24825  11.399   4.317   2.452 -0.2210  0.4325  0.3144
39663SOL    HW124826  11.346   4.240   2.470 -0.2578  0.6710  1.2773
39663SOL    HW224827  11.392   4.330   2.357  1.3941 -1.9153 -0.2145
39664SOL     OW24828   0.127   8.174   9.842  0.0784 -0.3225 -0.2702
39664SOL    HW124829   0.032   8.162   9.853 -0.2435  1.0903 -1.1306
39664SOL    HW224830   0.149   8.244   9.903  0.3928 -0.0672 -0.6682
39665SOL     OW24831   4.835   7.176   3.207 -0.2432  0.1746 -0.3940
39665SOL    HW124832   4.866   7.095   3.247 -0.7977 -0.3673 -1.0502
39665SOL    HW224833   4.739   7.166   3.204 -0.3577  1.0581 -0.0397
39666SOL     OW24834  11.729   3.052   8.324 -0.1638 -0.3869 -0.3599
39666SOL    HW124835  11.664   3.101   8.274 -0.1304 -1.6633 -1.6950
39666SOL    HW224836  11.739   2.969   8.277  1.3246 -0.8307  0.6639
39667SOL     OW24837   8.314   1.366   4.512 -0.2491 -0.0628 -0.5134
39667SOL    HW124838   8.311   1.397   4.422  0.0426  0.8563 -0.2115
39667SOL    HW224839   8.376   1.424   4.556 -1.2551  0.2275  0.5565
39668SOL     OW24840  12.122   9.116   5.337 -0.2768  0.0881  0.7869
39668SOL    HW124841  12.079   9.037   5.370 -0.4698  0.0187  0.3745
39668SOL    HW224842  12.106   9.182   5.404 -2.2087  0.4429  0.0233
39669SOL     OW24843   4.354   6.187  12.293  0.2958  0.1055  0.1039
39669SOL    HW124844   4.306   6.262  12.257 -0.4932 -0.4958 -0.1228
39669SOL    HW224845   4.444   6.219  12.304 -0.3071  1.4938  1.2468
39670SOL     OW24846   0.274   6.322   5.531 -0.0361 -0.0300  0.9236
39670SOL    HW124847   0.217   6.397   5.542  0.1091  0.0233  1.3424
39670SOL    HW224848   0.315   6.310   5.617  2.1010  1.1666  0.1478
39671SOL     OW24849   7.107   8.307  10.930 -0.8194  0.1376 -0.2105
39671SOL    HW124850   7.076   8.229  10.885  1.9851 -2.2191  1.5544
39671SOL    HW224851   7.190   8.329  10.888 -1.4315  2.0625 -0.5031
39672SOL     OW24852  10.609   5.066   7.588  0.1314 -0.6268  0.0683
39672SOL    HW124853  10.535   5.120   7.616 -0.3338  0.2704 -2.5843
39672SOL    HW224854  10.570   4.981   7.569  0.2785 -0.9463  1.1479
39673SOL     OW24855   2.601  11.363  12.262  0.6364 -0.0327  0.5008
39673SOL    HW124856   2.621  11.378  12.170 -0.2728  1.9183  0.5692
39673SOL    HW224857   2.662  11.419  12.309  0.6789 -0.5445  1.0644
39674SOL     OW24858   8.762   9.171   5.191  0.3322 -0.8032 -0.5530
39674SOL    HW124859   8.707   9.151   5.115 -0.7751 -0.7286  0.2150
39674SOL    HW224860   8.835   9.110   5.183 -0.1892 -1.3581 -1.2429
39675SOL     OW24861   6.322   4.557   0.047  0.0996  0.0618 -0.5194
39675SOL    HW124862   6.294   4.577   0.136 -1.7930  0.8763 -1.2543
39675SOL    HW224863   6.372   4.634   0.019 -2.0032  1.2661 -1.2081
39676SOL     OW24864   5.141  11.732   7.091  0.1313 -0.2685 -0.0139
39676SOL    HW124865   5.195  11.774   7.158  0.5857 -2.1388  0.8731
39676SOL    HW224866   5.202  11.676   7.043 -0.5398 -0.3970 -0.7313
39677SOL     OW24867   3.144   6.536  11.424 -0.2516  0.5522  0.7377
39677SOL    HW124868   3.231   6.557  11.458 -0.4223  0.5755  1.1699
39677SOL    HW224869   3.095   6.504  11.501 -0.0119 -1.4450  0.1048
39678SOL     OW24870   4.111   9.844   7.888 -0.5133  0.3911  0.2852
39678SOL    HW124871   4.069   9.798   7.960 -2.6768  0.6775 -0.7062
39678SOL    HW224872   4.202   9.855   7.916 -1.1754  0.1599  2.7779
39679SOL     OW24873   7.095   5.763   0.573 -0.2552  0.8903  0.0797
39679SOL    HW124874   7.172   5.785   0.626  0.7231 -1.6446 -0.1387
39679SOL    HW224875   7.124   5.775   0.482 -0.5283  1.1582  0.0284
39680SOL     OW24876   0.542  11.935  10.142  0.1576 -0.4111  0.5080
39680SOL    HW124877   0.601  12.003  10.176 -1.1330  1.9445 -1.6340
39680SOL    HW224878   0.455  11.972  10.152 -0.4060 -0.0516 -3.8340
39681SOL     OW24879   4.715   5.047   4.950 -0.5719  0.3152 -0.5568
39681SOL    HW124880   4.762   5.130   4.943 -1.6747  1.3164  2.4262
39681SOL    HW224881   4.691   5.040   5.042 -1.4784 -2.8353 -0.8916
39682SOL     OW24882   0.390  12.148   8.186 -0.2155  0.0793  0.0580
39682SOL    HW124883   0.306  12.106   8.203 -0.2121  0.0421 -0.0194
39682SOL    HW224884   0.452  12.076   8.175  0.0000  0.1125  0.9833
39683SOL     OW24885   1.657  10.457  12.023 -0.2279 -0.1381 -0.1604
39683SOL    HW124886   1.680  10.406  11.945  1.8877  0.3650  0.0687
39683SOL    HW224887   1.659  10.393  12.094 -1.9221 -0.5493 -0.4423
39684SOL     OW24888   6.298   2.308   6.527 -0.0531 -0.3788  0.5733
39684SOL    HW124889   6.228   2.275   6.471  0.4238 -0.8726  0.2539
39684SOL    HW224890   6.259   2.315   6.614 -0.5875 -0.3282  0.3303
39685SOL     OW24891  11.066   4.936   4.037 -0.2412 -0.1606 -0.3989
39685SOL    HW124892  11.154   4.900   4.050 -0.8124 -1.3095  0.4954
39685SOL    HW224893  11.029   4.884   3.966 -0.2946  0.1181 -0.5731
39686SOL     OW24894   0.044   0.694   5.438 -0.1543 -0.3228  0.0783
39686SOL    HW124895  -0.021   0.634   5.474  0.5686 -0.5382  1.0490
39686SOL    HW224896   0.005   0.781   5.449 -0.1071 -0.4149  1.0437
39687SOL     OW24897  10.471   1.870   7.623  0.1103 -0.1189 -0.0045
39687SOL    HW124898  10.378   1.882   7.604  0.2880  0.9377 -0.2359
39687SOL    HW224899  10.492   1.940   7.684  0.3942 -1.3260  1.3611
39688SOL     OW24900   3.014  11.194  12.048  0.4396  0.3640  0.2127
39688SOL    HW124901   2.955  11.223  11.978  0.1167  0.7834  0.6569
39688SOL    HW224902   2.959  11.193  12.126  0.6063 -0.8166  0.3398
39689SOL     OW24903   4.836   4.032  10.700  0.3483  0.2849  1.0926
39689SOL    HW124904   4.747   4.002  10.681  0.8940 -0.3723 -0.6584
39689SOL    HW224905   4.848   4.108  10.643  0.7315  0.7195  1.7350
39690SOL     OW24906   4.896   6.350   5.081  0.5461  0.3133 -0.0034
39690SOL    HW124907   4.879   6.260   5.053  0.2614  0.0830  0.8947
39690SOL    HW224908   4.946   6.388   5.009  0.9955 -0.6730 -0.2279
39691SOL     OW24909   1.470  10.791   0.615  0.2363 -0.2833 -0.1745
39691SOL    HW124910   1.507  10.770   0.701 -1.2859  2.0706  1.1530
39691SOL    HW224911   1.397  10.730   0.605 -0.0795 -0.0443  0.5992
39692SOL     OW24912   8.020   1.572   5.430 -0.1251 -0.4110 -0.0068
39692SOL    HW124913   8.061   1.658   5.434 -0.2057 -0.3851  0.3415
39692SOL    HW224914   7.948   1.582   5.368  0.9320 -0.6947 -1.3265
39693SOL     OW24915  10.624  11.314   1.778 -0.4290  0.4425 -0.4779
39693SOL    HW124916  10.712  11.345   1.799  0.4661 -1.8093 -0.5641
39693SOL    HW224917  10.598  11.263   1.854 -0.6740 -0.7905 -1.3493
39694SOL     OW24918   4.204   7.991   9.554 -0.0389  0.3254 -0.3849
39694SOL    HW124919   4.234   7.918   9.607  0.2633  1.0353  0.4417
39694SOL    HW224920   4.212   7.959   9.463 -0.1907 -0.7526 -0.0341
39695SOL     OW24921  11.741   1.543   2.222 -0.3251  0.4115  0.7460
39695SOL    HW124922  11.694   1.536   2.139 -1.0169  0.5410  1.1149
39695SOL    HW224923  11.696   1.613   2.270  0.3861  0.6901  1.0259
39696SOL     OW24924   9.919  10.321   0.737  0.6933 -0.4943 -1.1237
39696SOL    HW124925   9.991  10.260   0.719  0.9560 -1.0341  1.4613
39696SOL    HW224926   9.953  10.406   0.711  1.4574 -1.0270 -1.9388
39697SOL     OW24927  11.782   4.470   7.561 -0.7821  0.1902  0.3030
39697SOL    HW124928  11.875   4.492   7.559 -0.8881  0.5803 -0.8615
39697SOL    HW224929  11.753   4.476   7.470 -1.7206 -0.9254  0.4960
39698SOL     OW24930   3.866   7.725   1.802 -0.5195 -0.5314 -0.2770
39698SOL    HW124931   3.875   7.633   1.779  0.7140 -0.5008  0.0178
39698SOL    HW224932   3.840   7.768   1.720 -0.0848 -0.9903 -0.6599
39699SOL     OW24933   3.261   7.397   8.742 -0.1398  0.2880  0.1530
39699SOL    HW124934   3.290   7.336   8.810 -0.5369  0.7602  0.7532
39699SOL    HW224935   3.205   7.345   8.685  0.0568 -0.0716  0.2873
39700SOL     OW24936   9.303   7.965   4.756 -0.4678  0.5347 -0.1607
39700SOL    HW124937   9.274   8.002   4.840  0.7560 -0.5076  0.7470
39700SOL    HW224938   9.384   8.011   4.736  0.4022 -0.7369  0.3486
39701SOL     OW24939   0.160   9.262   9.908 -0.0378  0.0584  0.1125
39701SOL    HW124940   0.246   9.236   9.875  0.0055  0.5280 -0.1543
39701SOL    HW224941   0.147   9.351   9.875 -0.0395  0.5152  1.2770
39702SOL     OW24942   7.184  11.879   6.743  0.4763 -0.4397 -0.3296
39702SOL    HW124943   7.198  11.798   6.791 -1.0108 -1.0475 -0.8627
39702SOL    HW224944   7.091  11.897   6.752  0.5142  0.4351 -1.4003
39703SOL     OW24945   5.827   2.668   7.441  0.0165 -0.6097 -0.5692
39703SOL    HW124946   5.774   2.601   7.398  0.2402 -1.2414  0.1180
39703SOL    HW224947   5.774   2.748   7.435 -1.6813 -1.5036  1.2924
39704SOL     OW24948  11.240  12.002   3.028 -0.5617  0.0602 -0.2055
39704SOL    HW124949  11.148  12.015   3.004 -1.0860 -1.3548  0.8534
39704SOL    HW224950  11.279  11.961   2.951 -0.7160  1.0188 -0.8024
39705SOL     OW24951  10.713   2.488  10.347 -0.3383  0.4958  0.6935
39705SOL    HW124952  10.780   2.423  10.365 -0.1890  0.2681 -0.5776
39705SOL    HW224953  10.740   2.528  10.264 -2.7798 -0.9726 -0.9230
39706SOL     OW24954   9.870   4.232   7.953 -0.2824  0.5862 -0.4365
39706SOL    HW124955   9.825   4.155   7.918  1.4343 -0.6123 -0.1217
39706SOL    HW224956   9.885   4.212   8.045  2.2113  0.2257 -0.8464
39707SOL     OW24957   9.707  11.328  11.842  0.8501  0.0790  0.3958
39707SOL    HW124958   9.619  11.300  11.868 -0.0198  0.7328 -1.6093
39707SOL    HW224959   9.756  11.332  11.924 -0.5847 -1.6101  1.4290
39708SOL     OW24960   8.204   2.818   5.311  0.1489 -0.0876  0.1765
39708SOL    HW124961   8.190   2.875   5.387 -0.7857  0.4512 -0.3819
39708SOL    HW224962   8.161   2.863   5.239 -0.6071 -1.5005 -0.2912
39709SOL     OW24963   2.053   4.879   9.915  0.1837 -0.4653 -0.1894
39709SOL    HW124964   2.032   4.926   9.996  2.4573  0.4849 -0.0585
39709SOL    HW224965   2.128   4.824   9.938  0.5385 -0.5716 -1.4982
39710SOL     OW24966   7.424  11.525   3.794 -0.1933 -0.3520  0.3400
39710SOL    HW124967   7.439  11.615   3.824  0.5452 -0.7266  1.1111
39710SOL    HW224968   7.353  11.492   3.850 -0.9926 -0.0200 -0.4424
39711SOL     OW24969   0.290   5.395   0.042  0.4680 -0.0475 -0.1605
39711SOL    HW124970   0.244   5.377  -0.041  0.8931 -0.7843 -0.2477
39711SOL    HW224971   0.242   5.344   0.107 -0.1193  0.8598  0.1301
39712SOL     OW24972   7.725   1.277   2.603  0.0055 -0.0102 -0.2640
39712SOL    HW124973   7.758   1.360   2.637  0.8609  0.0155 -1.1225
39712SOL    HW224974   7.648   1.301   2.552 -1.6894 -0.1085  2.0512
39713SOL     OW24975   0.869  11.618   1.926 -0.7424 -0.4082  0.0370
39713SOL    HW124976   0.808  11.690   1.914 -0.6109 -0.2658  0.2165
39713SOL    HW224977   0.923  11.618   1.847 -0.1052  0.3084  0.4543
39714SOL     OW24978   8.552   5.197   3.102 -0.2923  0.2315 -0.2766
39714SOL    HW124979   8.467   5.229   3.134  0.1581  0.8013  0.3760
39714SOL    HW224980   8.580   5.264   3.039  0.0228  0.4533  0.0891
39715SOL     OW24981  11.292   2.123   4.726 -0.0294 -0.2774 -0.2771
39715SOL    HW124982  11.335   2.205   4.747  0.7148 -0.9689  1.0400
39715SOL    HW224983  11.199   2.139   4.745  0.6011 -1.0150  4.6882
39716SOL     OW24984  11.975   8.128   0.341 -0.1457  0.0446  0.1349
39716SOL    HW124985  11.962   8.036   0.366  0.5502 -0.4547 -1.1985
39716SOL    HW224986  11.990   8.174   0.423  1.4558 -1.3837  0.7007
39717SOL     OW24987   7.672   1.640   2.600 -0.5980  0.0602 -0.1976
39717SOL    HW124988   7.662   1.728   2.563  1.9097  0.7160  0.4879
39717SOL    HW224989   7.659   1.581   2.526 -0.3309  1.1081 -1.1042
39718SOL     OW24990   9.684  11.166   6.441 -0.8395  0.0509  0.5976
39718SOL    HW124991   9.594  11.184   6.414 -0.3183  3.5184  0.6752
39718SOL    HW224992   9.737  11.194   6.367  0.2291 -2.0828  0.4993
39719SOL     OW24993   7.209   2.104   2.818  0.0004  0.8197  0.2799
39719SOL    HW124994   7.143   2.157   2.774  0.2112  1.5409  0.8069
39719SOL    HW224995   7.189   2.014   2.794 -0.9614  1.0620  0.1658
39720SOL     OW24996   8.732   1.863   8.707  0.1189  0.2767  0.5919
39720SOL    HW124997   8.770   1.795   8.651  1.4944  1.5097 -0.0462
39720SOL    HW224998   8.638   1.854   8.696  0.3028 -1.0294 -0.0647
39721SOL     OW24999   8.282  11.443   4.222  0.4307  0.3585  0.0363
39721SOL    HW125000   8.323  11.502   4.286 -0.1914  1.1157 -0.2493
39721SOL    HW225001   8.240  11.501   4.159 -0.5188 -0.3878 -0.0494
39722SOL     OW25002   4.751   5.102   8.743  0.2991 -0.9012 -0.4424
39722SOL    HW125003   4.816   5.165   8.711  2.8029 -2.2230  1.6090
39722SOL    HW225004   4.677   5.112   8.684  2.2278  0.9449 -2.7828
39723SOL     OW25005  10.911   2.259   9.215 -0.0011  0.1066 -0.4446
39723SOL    HW125006  10.959   2.332   9.176  1.2723 -0.9416 -0.8855
39723SOL    HW225007  10.842   2.301   9.267  2.0903  1.7221  1.2012
39724SOL     OW25008  11.431   9.857   6.590  0.0747  0.1503 -0.2191
39724SOL    HW125009  11.387   9.824   6.512  0.9951 -0.1931 -0.6055
39724SOL    HW225010  11.520   9.875   6.562  0.2350  0.6862  0.5888
39725SOL     OW25011   9.022   1.518   0.861  0.2044  0.7324  0.0909
39725SOL    HW125012   8.951   1.464   0.897 -0.5260  0.9523 -0.9656
39725SOL    HW225013   9.102   1.477   0.893 -0.2961 -1.3764 -1.1714
39726SOL     OW25014   9.575   4.396   7.195  0.0192 -0.0367 -0.1778
39726SOL    HW125015   9.499   4.419   7.249 -0.5783 -0.3605 -0.8623
39726SOL    HW225016   9.553   4.428   7.108 -0.3000 -2.0378 -0.8737
39727SOL     OW25017   0.158   2.904  10.842  0.9110  0.2011 -0.1011
39727SOL    HW125018   0.160   2.809  10.839  1.5603  0.1259  1.6048
39727SOL    HW225019   0.189   2.932  10.756  1.3534 -1.1231 -0.3913
39728SOL     OW25020   7.808   4.517   0.382  0.4145 -0.1798  0.1360
39728SOL    HW125021   7.821   4.424   0.359 -0.2400 -0.3634  0.5011
39728SOL    HW225022   7.881   4.538   0.440  0.1676 -0.6736  0.6357
39729SOL     OW25023   5.800   1.506   5.979 -0.4932  0.3782  0.1746
39729SOL    HW125024   5.792   1.449   6.056 -0.4500  1.7171  1.2018
39729SOL    HW225025   5.860   1.575   6.006  1.3904 -0.3256 -1.8388
39730SOL     OW25026  10.187   5.191   8.977  0.3444 -0.4091  0.1067
39730SOL    HW125027  10.211   5.283   8.983 -1.3704  0.0548  0.2655
39730SOL    HW225028  10.269   5.144   8.993  0.7180  1.0454  3.0786
39731SOL     OW25029   8.551   7.585   2.140  0.6401 -0.3692  0.4766
39731SOL    HW125030   8.636   7.617   2.172  0.8948 -0.5098 -0.0453
39731SOL    HW225031   8.571   7.502   2.098  0.3829 -0.0171 -0.3696
39732SOL     OW25032   0.771   3.649   0.631  0.0606  0.4948  0.1750
39732SOL    HW125033   0.814   3.598   0.699 -0.6879 -0.4589 -0.0614
39732SOL    HW225034   0.723   3.585   0.578 -0.3080  1.3486 -0.5613
39733SOL     OW25035   5.182   3.984   2.995  0.7117  0.1539  0.2128
39733SOL    HW125036   5.095   3.988   2.957  0.3169 -0.0230  1.0844
39733SOL    HW225037   5.228   3.919   2.941 -0.1195 -0.7567  0.5635
39734SOL     OW25038   3.676  11.245   5.775  0.5143 -0.8135  0.1685
39734SOL    HW125039   3.727  11.233   5.695 -1.4427 -2.5355 -0.9226
39734SOL    HW225040   3.710  11.179   5.836  0.5218 -1.0089 -0.0481
39735SOL     OW25041  11.929   9.705  11.089 -0.6482  0.1414 -0.1830
39735SOL    HW125042  11.899   9.697  11.179  1.3215  0.7754  0.5779
39735SOL    HW225043  11.923   9.615  11.054 -0.0318 -0.4071  1.0647
39736SOL     OW25044   3.580   0.755   4.178 -0.1668  0.3382  0.1685
39736SOL    HW125045   3.591   0.809   4.100 -0.7318  1.6270  0.9353
39736SOL    HW225046   3.573   0.818   4.250 -2.9793 -0.5962  0.8770
39737SOL     OW25047   1.889   6.383   3.184 -0.0980  0.0554 -0.4018
39737SOL    HW125048   1.801   6.391   3.221 -0.2756 -0.9877 -0.5725
39737SOL    HW225049   1.891   6.447   3.113 -0.7580  0.0166 -0.4622
39738SOL     OW25050   6.566   1.099   3.259 -0.5118 -0.1274 -0.0204
39738SOL    HW125051   6.494   1.137   3.209 -0.0707 -0.0046 -0.5617
39738SOL    HW225052   6.601   1.030   3.202  1.1364  1.1643 -0.6735
39739SOL     OW25053   9.984   0.370   8.528  0.5188 -0.4570  0.6149
39739SOL    HW125054   9.963   0.401   8.439  0.1200  0.5237  1.0321
39739SOL    HW225055  10.055   0.307   8.515 -0.0773 -0.9297 -0.4729
39740SOL     OW25056   5.726  11.929  11.972 -0.2964  0.2026 -0.5045
39740SOL    HW125057   5.683  11.846  11.951 -1.1305  0.4626  0.1468
39740SOL    HW225058   5.805  11.903  12.021 -0.2457 -0.2254 -0.8104
39741SOL     OW25059  11.455   7.730   2.226 -0.2729 -0.0680  0.8395
39741SOL    HW125060  11.525   7.678   2.186 -1.1199 -1.0617  0.5941
39741SOL    HW225061  11.414   7.776   2.153  1.8362  2.7909  1.2675
39742SOL     OW25062   1.120  10.658   0.766 -0.8101 -1.0847 -0.1022
39742SOL    HW125063   1.200  10.674   0.815 -1.8146 -1.8286  1.9457
39742SOL    HW225064   1.122  10.564   0.746 -1.4662 -1.2635  0.6063
39743SOL     OW25065  12.254   4.410   3.550  0.5369  1.1053  0.0771
39743SOL    HW125066  12.183   4.345   3.549  0.9322  0.6620 -1.2702
39743SOL    HW225067  12.214   4.490   3.517  0.5273  0.9856 -0.2099
39744SOL     OW25068   7.845  11.154   4.169 -0.6638 -0.0136  0.2944
39744SOL    HW125069   7.923  11.196   4.206 -1.1250  1.8785 -0.7471
39744SOL    HW225070   7.878  11.077   4.123  0.6513  0.9962 -0.4932
39745SOL     OW25071   0.489   6.893   5.935 -0.1176 -0.6453 -0.3947
39745SOL    HW125072   0.569   6.893   5.987 -0.0098  1.8921 -0.4517
39745SOL    HW225073   0.422   6.927   5.994 -0.1873  1.3802 -1.5638
39746SOL     OW25074   5.374   6.720   9.552 -0.5241  0.2823  0.2569
39746SOL    HW125075   5.402   6.802   9.513  0.4427 -0.1901 -0.0566
39746SOL    HW225076   5.311   6.684   9.490  0.1110  0.1078 -0.2889
39747SOL     OW25077   9.457  12.052   9.835 -0.6247  0.1921  0.5403
39747SOL    HW125078   9.404  12.130   9.815 -2.9397 -1.8963 -2.2951
39747SOL    HW225079   9.395  11.993   9.878  0.6855 -0.6955  1.2543
39748SOL     OW25080  11.190  11.300   9.568 -0.4928 -0.3187  0.8996
39748SOL    HW125081  11.185  11.351   9.487 -0.7278 -0.7249  0.6607
39748SOL    HW225082  11.173  11.364   9.637  0.7723  0.2575  0.7109
39749SOL     OW25083   2.541  10.888   7.587  0.5422 -0.0370  0.2551
39749SOL    HW125084   2.509  10.823   7.650  0.4991 -0.6219 -0.3693
39749SOL    HW225085   2.625  10.854   7.557  0.4603  0.1324 -0.1672
39750SOL     OW25086   4.758   6.795   9.180  0.1277  0.1134 -0.2653
39750SOL    HW125087   4.688   6.805   9.245  1.8960 -2.1384  2.1788
39750SOL    HW225088   4.825   6.858   9.207  0.7312 -0.5881 -0.1077
39751SOL     OW25089   5.495   7.733   4.193  0.2044  0.0088 -0.4876
39751SOL    HW125090   5.578   7.688   4.178  1.0226  0.4359  2.1507
39751SOL    HW225091   5.430   7.663   4.194  0.8328 -0.5888 -0.5895
39752SOL     OW25092   0.712  11.018   7.279  0.1929  0.1430  0.1604
39752SOL    HW125093   0.644  11.055   7.224 -0.8147  0.8730  1.8098
39752SOL    HW225094   0.716  11.077   7.354  1.3965 -0.8929  0.9505
39753SOL     OW25095  11.960   3.112   5.500 -0.1804 -0.3255 -0.3744
39753SOL    HW125096  11.887   3.174   5.491 -0.5277 -0.9559 -2.3431
39753SOL    HW225097  12.005   3.140   5.580 -1.4145  1.3075 -0.1900
39754SOL     OW25098   8.323   9.655   5.178  0.0218 -0.5277  0.3911
39754SOL    HW125099   8.239   9.611   5.191 -0.4055 -0.2196 -1.0753
39754SOL    HW225100   8.381   9.586   5.145 -0.2847 -0.3155 -0.6520
39755SOL     OW25101  10.396   2.751   6.014  0.2287 -0.6614  0.5253
39755SOL    HW125102  10.468   2.751   5.951  0.8092 -1.3038  1.1718
39755SOL    HW225103  10.325   2.703   5.970 -0.0649  0.5589 -0.3794
39756SOL     OW25104   3.010  12.234   3.250  0.3911  0.3471  0.2620
39756SOL    HW125105   3.089  12.284   3.229  0.6109  0.5883  1.5508
39756SOL    HW225106   2.967  12.220   3.166  0.5364  2.3254 -0.1858
39757SOL     OW25107   1.988  10.984   5.312 -0.6287 -0.0556  0.6884
39757SOL    HW125108   2.006  11.078   5.315 -2.2530  0.4009 -1.3477
39757SOL    HW225109   1.899  10.976   5.345 -0.3800 -0.9431  1.1708
39758SOL     OW25110   2.518  10.843  11.858 -0.4374  0.1399 -1.2270
39758SOL    HW125111   2.519  10.861  11.952 -1.3376  0.7622 -1.3257
39758SOL    HW225112   2.537  10.749  11.852  1.0090  0.3511 -0.5160
39759SOL     OW25113   0.427   8.973   9.023  0.6351 -0.4038 -0.4266
39759SOL    HW125114   0.511   8.965   9.069  0.9649 -0.7299 -1.0745
39759SOL    HW225115   0.428   8.902   8.959 -0.2007 -0.4973 -0.3473
39760SOL     OW25116   4.534  12.198   4.305 -0.1757  0.2071 -0.0791
39760SOL    HW125117   4.551  12.251   4.383 -2.4043 -0.1325  0.7227
39760SOL    HW225118   4.536  12.108   4.337 -0.5305  0.0360 -0.5222
39761SOL     OW25119   2.607   9.900   5.448  0.2912  0.7519  0.2938
39761SOL    HW125120   2.692   9.858   5.459  0.8019  1.5698 -0.3719
39761SOL    HW225121   2.597   9.954   5.526 -0.1000 -0.1219  0.8666
39762SOL     OW25122   8.482   1.428   2.367 -0.2649  0.1069 -0.2075
39762SOL    HW125123   8.537   1.355   2.336  1.8231  2.0800 -1.5013
39762SOL    HW225124   8.496   1.497   2.302 -0.8176  2.2504  1.8241
39763SOL     OW25125   6.980   9.304   1.125  0.4497  0.0832  0.2925
39763SOL    HW125126   6.893   9.276   1.098  1.0018 -1.5006  0.0767
39763SOL    HW225127   7.025   9.224   1.151  1.3522  1.0405  1.9098
39764SOL     OW25128  10.284   8.811  12.267 -0.0031  0.7170  0.1902
39764SOL    HW125129  10.274   8.906  12.261  1.5082  0.9804  1.3187
39764SOL    HW225130  10.284   8.781  12.176  2.5017  2.1674 -0.3588
39765SOL     OW25131   4.388   3.849   0.635 -0.4286  0.2100  0.6379
39765SOL    HW125132   4.380   3.905   0.712 -0.9455 -0.9737  1.4713
39765SOL    HW225133   4.412   3.909   0.564 -0.3779  1.3844  1.6191
39766SOL     OW25134  11.413   2.754   0.573  0.1993  0.2613 -0.4425
39766SOL    HW125135  11.432   2.660   0.571 -2.2053 -0.3313  0.8335
39766SOL    HW225136  11.371   2.769   0.658 -1.3625  2.0736 -1.4397
39767SOL     OW25137   4.481   1.083   9.545 -0.2531 -0.2566 -0.8632
39767SOL    HW125138   4.453   1.166   9.585  0.2072 -0.1385 -0.7753
39767SOL    HW225139   4.400   1.042   9.515 -0.7537 -0.9034  1.2133
39768SOL     OW25140   2.505   2.017   9.766 -0.1979 -0.6030  0.1245
39768SOL    HW125141   2.521   1.962   9.689 -0.7866 -1.4043  0.5640
39768SOL    HW225142   2.538   1.967   9.839  1.4732  0.6689  0.3098
39769SOL     OW25143   1.216  11.528  12.015  0.2916  0.5893  0.1846
39769SOL    HW125144   1.217  11.484  11.930 -2.0295 -1.8644  1.2737
39769SOL    HW225145   1.308  11.547  12.033  1.3079 -2.3248 -1.1974
39770SOL     OW25146   7.102   1.693   9.111  0.2038 -0.2176 -0.0025
39770SOL    HW125147   7.078   1.782   9.138 -1.4889 -0.7021  0.1847
39770SOL    HW225148   7.072   1.686   9.020  2.3222  0.0872 -0.7981
39771SOL     OW25149   6.166  11.257  10.555  0.2098  0.5330 -0.9751
39771SOL    HW125150   6.106  11.303  10.613  1.3881 -0.5891  1.2571
39771SOL    HW225151   6.112  11.190  10.513 -0.0235 -1.1324  1.7615
39772SOL     OW25152   0.188   7.452  10.053  0.3192  0.1116 -0.1335
39772SOL    HW125153   0.099   7.451  10.090  0.6582 -0.7559  0.7258
39772SOL    HW225154   0.222   7.538  10.075  0.3136 -0.1925  1.1362
39773SOL     OW25155   4.700   2.915   6.393  0.1494 -0.4445  0.0078
39773SOL    HW125156   4.621   2.907   6.447  0.8082 -0.3800  1.0210
39773SOL    HW225157   4.716   3.009   6.388  0.7669 -0.5048  0.7336
39774SOL     OW25158   4.426  10.604   0.774 -0.1157  0.2045 -0.4296
39774SOL    HW125159   4.334  10.583   0.786 -0.2862  1.6920  1.1468
39774SOL    HW225160   4.461  10.530   0.724 -2.4080  0.2152 -2.1956
39775SOL     OW25161   1.415  12.058   4.162 -0.0711 -0.0627  0.0296
39775SOL    HW125162   1.461  12.070   4.245  0.8027  0.0089 -0.4549
39775SOL    HW225163   1.480  12.018   4.104 -0.6278  0.0216 -0.6647
39776SOL     OW25164   5.843   0.380   5.566  0.1699 -0.3052 -0.1506
39776SOL    HW125165   5.844   0.284   5.564  1.4769 -0.3086 -0.6561
39776SOL    HW225166   5.772   0.402   5.627 -1.5836 -1.5342 -1.6491
39777SOL     OW25167  12.112   5.904   5.743 -0.1101 -0.1718 -0.2290
39777SOL    HW125168  12.101   5.998   5.728  0.7105 -0.1185 -0.5098
39777SOL    HW225169  12.119   5.866   5.656 -1.6970 -0.6751 -0.1818
39778SOL     OW25170   8.375   5.099   3.464 -0.3933  0.1529  0.3440
39778SOL    HW125171   8.383   5.134   3.553 -0.6033 -0.1017  0.4638
39778SOL    HW225172   8.311   5.157   3.422 -1.2756 -0.4872  0.7584
39779SOL     OW25173  12.029   8.745   7.094 -0.3741 -0.5201 -0.6611
39779SOL    HW125174  12.064   8.691   7.024 -0.9556 -0.6340 -0.8732
39779SOL    HW225175  12.105   8.769   7.147  0.2695  0.6120 -2.0257
39780SOL     OW25176   5.635   6.645   0.488 -0.0634 -0.0080 -0.3130
39780SOL    HW125177   5.556   6.591   0.500  0.0721  0.3442  3.1409
39780SOL    HW225178   5.705   6.581   0.476 -0.6163 -0.3671 -1.8600
39781SOL     OW25179   2.298   9.091  11.422 -0.5193 -0.2388 -0.3479
39781SOL    HW125180   2.240   9.132  11.486 -1.0075 -0.8021 -0.4195
39781SOL    HW225181   2.272   9.129  11.338  1.0653  1.5690 -0.0871
39782SOL     OW25182   9.647   3.462   2.100  0.7643 -0.0302 -0.2480
39782SOL    HW125183   9.645   3.367   2.112 -0.1042 -0.1239 -1.0050
39782SOL    HW225184   9.610   3.498   2.181  1.3414 -0.3203  0.1480
39783SOL     OW25185   6.433   2.534   2.466 -0.0698 -0.0913  0.0237
39783SOL    HW125186   6.409   2.622   2.437 -1.7077 -0.7215 -0.6303
39783SOL    HW225187   6.357   2.503   2.515  0.0007 -1.5760 -0.7595
39784SOL     OW25188  11.191   1.813   1.110  0.0770 -0.3011 -0.2107
39784SOL    HW125189  11.149   1.753   1.171  1.1350 -0.9887 -0.1296
39784SOL    HW225190  11.143   1.895   1.119  0.5449 -0.2157  1.9635
39785SOL     OW25191   5.331   0.504   3.504  0.0088 -0.4730 -0.0364
39785SOL    HW125192   5.366   0.513   3.593 -1.2777  2.6300  0.2662
39785SOL    HW225193   5.384   0.563   3.451 -0.1717 -1.2003 -1.0443
39786SOL     OW25194   3.359   1.684   0.199 -0.6869  0.4206  0.4920
39786SOL    HW125195   3.391   1.774   0.205  1.3724 -0.3298  3.2650
39786SOL    HW225196   3.422   1.640   0.142 -1.1351  0.5224 -0.0852
39787SOL     OW25197   0.545   8.602   9.487 -0.3934  0.1397 -0.4103
39787SOL    HW125198   0.635   8.572   9.483  0.1112  1.1723  1.6148
39787SOL    HW225199   0.494   8.522   9.501  0.6736 -0.1889  2.4193
39788SOL     OW25200  10.459   8.712  10.129 -0.0654 -0.0625 -0.6061
39788SOL    HW125201  10.530   8.661  10.090 -0.7105 -1.3244 -0.1997
39788SOL    HW225202  10.414   8.649  10.186 -0.7417  1.0456  0.1076
39789SOL     OW25203   1.463   7.334  11.322 -0.3347 -0.2246 -0.0457
39789SOL    HW125204   1.394   7.389  11.288 -1.0199 -0.1035  1.4528
39789SOL    HW225205   1.542   7.388  11.318 -0.6821  0.2821 -0.0831
39790SOL     OW25206   5.317  10.065   6.077 -0.0854 -0.4389  0.2374
39790SOL    HW125207   5.393  10.025   6.120  1.3898  2.0109  0.1335
39790SOL    HW225208   5.262  10.096   6.149  0.6315  0.5282  0.4069
39791SOL     OW25209   6.069  10.344   3.809  0.0175  0.4078  0.8425
39791SOL    HW125210   6.025  10.429   3.818 -0.8860  0.0038  0.3087
39791SOL    HW225211   6.098  10.342   3.718 -1.8221 -0.7046  0.2188
39792SOL     OW25212   4.735   6.832   6.007 -0.4695 -0.4247  0.2011
39792SOL    HW125213   4.680   6.754   6.009 -1.5268  0.2759 -0.9896
39792SOL    HW225214   4.788   6.822   5.928  0.5588 -0.6865  0.8962
39793SOL     OW25215   7.758   1.829   7.427  0.0129  0.9053  0.0881
39793SOL    HW125216   7.680   1.875   7.399 -0.7848  1.3079  2.7164
39793SOL    HW225217   7.822   1.898   7.446  0.2032  0.7178  0.1418
39794SOL     OW25218   4.380  10.837   1.331  0.7023  0.4278 -0.0743
39794SOL    HW125219   4.470  10.823   1.360  0.6637 -1.0177 -0.5488
39794SOL    HW225220   4.386  10.906   1.265  1.2356  1.3850  0.9362
39795SOL     OW25221   0.005   0.434   7.211  0.6000  0.2041 -0.4455
39795SOL    HW125222  -0.028   0.485   7.285 -1.0348 -1.4401  0.0488
39795SOL    HW225223  -0.074   0.399   7.169  1.4875  0.9634 -2.9112
39796SOL     OW25224   2.199  12.168   3.150  0.3864 -0.5183  0.5917
39796SOL    HW125225   2.262  12.171   3.222 -0.6202 -0.4201  1.4852
39796SOL    HW225226   2.251  12.142   3.074  1.8622  1.3307  0.8942
39797SOL     OW25227   3.917   0.891   7.985 -0.6636 -0.5404  0.1677
39797SOL    HW125228   3.900   0.818   8.044 -1.8162  0.8895  1.6888
39797SOL    HW225229   3.843   0.950   7.997 -0.2785  0.4442 -1.7635
39798SOL     OW25230   9.798   0.437  11.451  0.3222 -0.1684 -0.0511
39798SOL    HW125231   9.875   0.439  11.394  0.4431 -0.6239  0.0920
39798SOL    HW225232   9.814   0.506  11.515  0.5596 -0.1817 -0.0937
39799SOL     OW25233   8.869  10.736   3.501 -0.1677  0.8228  0.5770
39799SOL    HW125234   8.871  10.711   3.409 -3.2169  1.2314  0.3013
39799SOL    HW225235   8.882  10.654   3.549  1.9573  0.6812 -0.1476
39800SOL     OW25236   5.651   2.279  10.916 -0.2359 -0.0649 -0.4180
39800SOL    HW125237   5.653   2.287  10.820  0.6274 -0.4809 -0.4419
39800SOL    HW225238   5.629   2.367  10.947  1.3293  0.5323 -0.9400
39801SOL     OW25239   0.086   2.386   9.373  0.0660 -0.1853 -0.4687
39801SOL    HW125240   0.012   2.326   9.379 -0.9867  1.1012  0.0085
39801SOL    HW225241   0.153   2.337   9.325 -0.0802 -2.3466  1.3667
39802SOL     OW25242   5.201   1.728   9.067 -0.3295  0.0722  0.1379
39802SOL    HW125243   5.180   1.807   9.116 -1.1059 -0.6507  0.9985
39802SOL    HW225244   5.118   1.699   9.031 -0.0093 -0.2322 -0.3643
39803SOL     OW25245   2.547   0.287   7.585  0.2868 -0.0286  0.3746
39803SOL    HW125246   2.464   0.259   7.546 -0.0975  0.6114  0.7327
39803SOL    HW225247   2.560   0.227   7.658  0.5384 -0.6293 -0.1509
39804SOL     OW25248   3.349   8.168   6.466  0.5135 -0.0032 -0.1722
39804SOL    HW125249   3.282   8.193   6.529  1.7619  4.0304 -0.1622
39804SOL    HW225250   3.376   8.080   6.492  0.2731  1.0450  4.3820
39805SOL     OW25251   5.562   2.720   1.344 -0.9026 -0.1615 -0.2923
39805SOL    HW125252   5.628   2.760   1.400  0.3856 -1.8412 -0.5416
39805SOL    HW225253   5.600   2.722   1.256 -1.0355 -1.3633 -0.4008
39806SOL     OW25254   3.430   6.617   1.782 -0.0862  0.1952 -0.0709
39806SOL    HW125255   3.490   6.546   1.757  1.6960  0.6239  2.6285
39806SOL    HW225256   3.345   6.573   1.795  0.4333 -1.0234 -0.6413
39807SOL     OW25257   0.263   8.273   0.406  0.1349  0.0291 -0.1294
39807SOL    HW125258   0.333   8.240   0.350 -1.0502 -0.8959 -1.1070
39807SOL    HW225259   0.279   8.232   0.491  1.5275  0.8850  0.0550
39808SOL     OW25260  11.969  12.307  10.183 -0.1487  0.6833  0.1733
39808SOL    HW125261  12.058  12.280  10.205 -0.6198 -1.2318 -0.0623
39808SOL    HW225262  11.969  12.314  10.087 -0.4806 -0.3485  0.0809
39809SOL     OW25263   2.161   7.486   0.047 -0.1139  0.2486 -0.8638
39809SOL    HW125264   2.112   7.540  -0.014  0.6211  0.6371 -1.1299
39809SOL    HW225265   2.169   7.541   0.126  1.8913  1.1705 -1.6408
39810SOL     OW25266   9.059   5.549   3.110 -0.4809 -0.2256  0.2637
39810SOL    HW125267   8.965   5.557   3.094 -0.1210  0.3843 -1.8650
39810SOL    HW225268   9.080   5.459   3.085  0.0204  0.6262 -2.7880
39811SOL     OW25269  10.970   5.521  11.298 -0.3608  0.0084 -0.2577
39811SOL    HW125270  11.033   5.451  11.283  1.3795  2.0011 -3.2185
39811SOL    HW225271  11.009   5.574  11.367  0.6133  0.5064 -1.1634
39812SOL     OW25272   1.207  11.919   7.341 -0.4729 -0.2495 -1.1674
39812SOL    HW125273   1.195  11.869   7.260 -0.7930  0.8793 -1.8428
39812SOL    HW225274   1.259  11.862   7.397  1.3710 -0.3591 -2.8658
39813SOL     OW25275   0.290  10.644   3.486 -0.5495  0.5106  0.2329
39813SOL    HW125276   0.257  10.720   3.437 -2.0573  0.9153  1.7978
39813SOL    HW225277   0.374  10.673   3.521  1.0795 -0.1013 -2.7507
39814SOL     OW25278   1.365   7.835   7.835  0.4783 -0.7323  0.0311
39814SOL    HW125279   1.400   7.854   7.922  0.8893  1.9853 -0.6254
39814SOL    HW225280   1.418   7.762   7.803  2.5388  0.3403  0.8212
39815SOL     OW25281  10.411   4.378  12.237 -0.0121 -0.3994 -0.3342
39815SOL    HW125282  10.379   4.416  12.319 -1.5847  0.5971 -1.3771
39815SOL    HW225283  10.367   4.293  12.231 -0.2968 -0.2460 -0.4046
39816SOL     OW25284   7.624   1.701   2.185  0.3007  0.0262  0.6743
39816SOL    HW125285   7.632   1.720   2.092 -1.0046 -0.2328  0.4848
39816SOL    HW225286   7.698   1.745   2.225  1.1921 -0.3052 -0.5433
39817SOL     OW25287  11.443   8.935   8.667 -0.1130  0.7295 -0.0714
39817SOL    HW125288  11.520   8.880   8.652  0.8866  1.8194  0.8815
39817SOL    HW225289  11.437   8.989   8.588 -0.6571 -0.2149 -0.6870
39818SOL     OW25290   9.824  10.247   9.862 -0.2647 -0.8183 -0.0621
39818SOL    HW125291   9.829  10.337   9.896 -0.6643 -0.4050 -1.0771
39818SOL    HW225292   9.908  10.208   9.886  0.4824  0.2685 -0.8345
39819SOL     OW25293   4.600   8.282   0.862 -0.1387  0.0182  0.0722
39819SOL    HW125294   4.584   8.265   0.770  1.9892 -1.0367 -0.1568
39819SOL    HW225295   4.652   8.363   0.863  1.3798 -0.9232  0.1711
39820SOL     OW25296   3.991   6.407   7.035 -0.3095  0.0090  0.0896
39820SOL    HW125297   4.003   6.360   6.953  1.9112  0.3678  0.1622
39820SOL    HW225298   4.028   6.493   7.020 -0.9214  0.4773  1.1288
39821SOL     OW25299   4.340   3.538   6.609 -0.0608 -0.5520  0.3066
39821SOL    HW125300   4.272   3.582   6.659  0.2960  0.6166 -0.1977
39821SOL    HW225301   4.299   3.458   6.577 -1.8009  0.9221 -1.4280
39822SOL     OW25302  11.030   0.492   8.338  0.0707 -0.4619  0.2442
39822SOL    HW125303  10.990   0.407   8.324 -0.6803 -0.1500  0.4399
39822SOL    HW225304  11.052   0.524   8.250 -0.3697 -0.5128  0.1168
39823SOL     OW25305   2.040   6.659   4.635 -0.2083  0.4692  0.6071
39823SOL    HW125306   2.064   6.746   4.668  1.0030  0.6805 -0.7525
39823SOL    HW225307   1.960   6.637   4.683 -1.3881  2.9505 -0.0495
39824SOL     OW25308   1.455   4.263   9.844 -0.6033 -0.8353 -0.2155
39824SOL    HW125309   1.488   4.214   9.768  0.3732  0.5390 -0.7241
39824SOL    HW225310   1.457   4.354   9.816 -0.6135 -0.3308  1.3365
39825SOL     OW25311   5.393   9.815   7.368  0.5229 -0.4187 -0.1203
39825SOL    HW125312   5.443   9.762   7.430  0.9860  0.3800  0.1981
39825SOL    HW225313   5.332   9.753   7.328  1.3332 -1.2800 -0.0604
39826SOL     OW25314   4.690   1.621   6.960 -0.1305 -0.8314 -0.6838
39826SOL    HW125315   4.713   1.682   7.030 -3.4678 -1.1097  0.8445
39826SOL    HW225316   4.773   1.583   6.933  1.6643  1.7626  0.7556
39827SOL     OW25317   3.150  10.347   2.484 -0.1939  0.2886 -0.0720
39827SOL    HW125318   3.061  10.378   2.502 -0.6826 -1.1129  0.0161
39827SOL    HW225319   3.158  10.354   2.389 -0.5060  0.1555 -0.1106
39828SOL     OW25320   8.853   9.629   0.414 -0.1952  0.0741  0.1109
39828SOL    HW125321   8.770   9.615   0.460 -0.5490 -1.5146 -0.9150
39828SOL    HW225322   8.833   9.694   0.347 -0.7932 -0.7169 -0.5014
39829SOL     OW25323   7.166   8.139   3.079 -0.9593  0.0290 -0.5762
39829SOL    HW125324   7.186   8.055   3.038 -2.9206 -2.0286  2.2866
39829SOL    HW225325   7.245   8.192   3.065  1.6151 -3.3206  0.0157
39830SOL     OW25326   2.956   7.315   1.080 -0.3100  0.3237 -0.2672
39830SOL    HW125327   3.049   7.304   1.098 -0.4111  2.0417  1.6141
39830SOL    HW225328   2.912   7.275   1.155 -1.1227 -0.5987 -1.2054
39831SOL     OW25329   0.412   9.413   4.073 -0.6835 -0.1696 -0.0517
39831SOL    HW125330   0.359   9.334   4.078  1.3688 -1.5517  1.2316
39831SOL    HW225331   0.468   9.400   3.996 -0.9461  0.4437 -0.3525
39832SOL     OW25332   3.394  10.869   5.482 -0.1918  0.7372 -0.0849
39832SOL    HW125333   3.483  10.889   5.510  0.0628  2.3267 -1.8486
39832SOL    HW225334   3.350  10.839   5.562  1.9933 -0.4830  0.7500
39833SOL     OW25335   1.493   1.418   0.278 -0.7933 -0.1622 -0.4132
39833SOL    HW125336   1.439   1.390   0.204 -0.0470 -1.8539 -0.3746
39833SOL    HW225337   1.582   1.423   0.242 -0.2292 -2.1191  0.5597
39834SOL     OW25338   5.025   0.316   2.152  0.2300 -0.0085  0.7749
39834SOL    HW125339   4.965   0.389   2.161 -0.5037 -0.8375  3.5337
39834SOL    HW225340   4.968   0.241   2.131  0.9575  0.0802 -1.9353
39835SOL     OW25341   0.334   2.388  10.863  0.3036  0.3896  0.1395
39835SOL    HW125342   0.271   2.316  10.855 -1.1250  1.5044  0.9883
39835SOL    HW225343   0.377   2.391  10.777 -0.6958 -0.4754 -0.4181
39836SOL     OW25344   2.723   7.721   8.585 -0.1307 -0.3551  0.1847
39836SOL    HW125345   2.791   7.654   8.591 -1.3726 -1.6097  0.9482
39836SOL    HW225346   2.757   7.785   8.521  1.6226 -1.0536  0.3619
39837SOL     OW25347  12.155   1.994   8.330 -0.4775 -0.4997  0.1157
39837SOL    HW125348  12.238   1.987   8.378 -0.1735  0.0264 -0.3224
39837SOL    HW225349  12.088   1.991   8.399 -0.2347 -2.9596  0.3420
39838SOL     OW25350   3.674   3.786   4.082 -0.2664 -0.0315  0.3057
39838SOL    HW125351   3.685   3.879   4.103 -0.7183 -0.0441  0.6073
39838SOL    HW225352   3.756   3.762   4.038  0.2616  0.2647  1.1028
39839SOL     OW25353  11.011   0.926   5.540  0.4397 -0.4420  0.1488
39839SOL    HW125354  11.106   0.938   5.535  0.4532 -0.5158  0.2261
39839SOL    HW225355  10.993   0.848   5.487  0.4410 -0.5196  0.2628
39840SOL     OW25356  11.023  11.060   2.222 -0.1867 -0.1466  0.2717
39840SOL    HW125357  11.072  11.035   2.144  0.2181 -0.9955  0.7827
39840SOL    HW225358  11.086  11.109   2.275  0.2416 -1.4695  1.0521
39841SOL     OW25359   7.590   7.074   0.838 -0.1420 -0.0444  0.0524
39841SOL    HW125360   7.578   6.986   0.804  0.4654 -1.1109  2.3883
39841SOL    HW225361   7.675   7.102   0.804 -0.6151 -0.0633 -1.1991
39842SOL     OW25362   3.334   3.190  10.560 -0.3013  0.5685 -0.6165
39842SOL    HW125363   3.341   3.096  10.577 -2.1019  0.5257  0.1933
39842SOL    HW225364   3.388   3.230  10.628  1.0553  0.1347 -1.4018
39843SOL     OW25365   3.958   0.376   2.169 -0.4733  0.4125 -0.0593
39843SOL    HW125366   3.864   0.362   2.175 -0.3248 -2.4386 -2.1812
39843SOL    HW225367   3.996   0.318   2.235 -0.1552  0.7035  0.0200
39844SOL     OW25368   5.560   9.822   2.694 -0.5844 -0.0776  0.3913
39844SOL    HW125369   5.627   9.890   2.689 -0.0909 -0.6226 -0.8348
39844SOL    HW225370   5.479   9.870   2.714 -0.0298  0.7105  0.8071
39845SOL     OW25371   8.421   2.962   3.732 -0.4583 -0.3781 -0.4240
39845SOL    HW125372   8.353   2.943   3.668 -1.0070 -1.0193  0.3321
39845SOL    HW225373   8.495   2.994   3.679 -1.2538  0.1060 -1.2695
39846SOL     OW25374   2.129  12.125  11.654  0.2889 -0.2602  0.1257
39846SOL    HW125375   2.081  12.043  11.649  0.6652 -0.4263 -0.8602
39846SOL    HW225376   2.169  12.136  11.568 -1.2958  1.9228 -0.4169
39847SOL     OW25377   9.449   1.382   2.744  0.2681 -0.1637  0.1776
39847SOL    HW125378   9.481   1.471   2.736  0.5801 -0.3289 -0.4794
39847SOL    HW225379   9.357   1.391   2.766  0.7070  0.3239  2.0136
39848SOL     OW25380  11.262  11.761   8.709 -0.1147 -0.0301 -0.0221
39848SOL    HW125381  11.223  11.674   8.713 -0.8708  0.0704 -3.0959
39848SOL    HW225382  11.245  11.792   8.620  0.7130  3.0122  0.7431
39849SOL     OW25383   4.202  11.984   6.106 -0.1671 -0.4498  0.1247
39849SOL    HW125384   4.272  12.042   6.077  0.2437 -0.9234  0.1562
39849SOL    HW225385   4.233  11.896   6.083 -0.8588 -0.6424 -0.0802
39850SOL     OW25386   1.914   9.493   3.401 -0.5420  0.2710 -0.1951
39850SOL    HW125387   1.993   9.453   3.366 -1.5468  0.1561 -2.5266
39850SOL    HW225388   1.929   9.587   3.392 -1.0275  0.2373 -1.6227
39851SOL     OW25389  11.556   5.039   4.720 -0.9556 -0.8792 -0.8017
39851SOL    HW125390  11.651   5.054   4.713 -1.1217  0.0182 -1.3517
39851SOL    HW225391  11.548   4.955   4.765  0.0973  0.5305  2.3540
39852SOL     OW25392   2.239   2.248   9.501 -0.6234  0.4226 -0.3690
39852SOL    HW125393   2.317   2.227   9.451 -0.2715  0.5493  0.1181
39852SOL    HW225394   2.173   2.272   9.435 -0.6950 -1.0669 -0.8737
39853SOL     OW25395   9.641  12.119   1.868 -0.0635 -0.3504  0.5373
39853SOL    HW125396   9.561  12.097   1.916 -2.0819 -0.4306 -2.6130
39853SOL    HW225397   9.694  12.168   1.931 -2.2355 -0.9154  2.9614
39854SOL     OW25398  10.259  11.738   7.220 -0.6808 -0.7559 -0.2170
39854SOL    HW125399  10.274  11.799   7.292  0.3453 -1.2345  0.0011
39854SOL    HW225400  10.343  11.735   7.174 -1.1970 -0.7743 -1.1967
39855SOL     OW25401  11.176  11.892   1.669 -0.6055  0.3212 -0.0906
39855SOL    HW125402  11.089  11.865   1.638 -0.2041 -1.0215 -0.0638
39855SOL    HW225403  11.157  11.952   1.742 -1.5071  0.4076 -0.3825
39856SOL     OW25404   6.316  10.121   3.212  0.0496 -0.1550  0.0802
39856SOL    HW125405   6.325  10.036   3.168  0.8439  0.1139 -0.2973
39856SOL    HW225406   6.311  10.098   3.305 -1.6249 -0.7228 -0.1131
39857SOL     OW25407   9.137   3.541   3.080 -0.2317 -0.1784 -0.0150
39857SOL    HW125408   9.185   3.608   3.030 -0.5707  0.3432  0.3476
39857SOL    HW225409   9.059   3.586   3.113 -0.9633 -1.0040 -0.5585
39858SOL     OW25410   7.050   4.021   5.384  0.5502  0.1647  0.2157
39858SOL    HW125411   7.049   4.008   5.289  0.8021  2.0943 -0.0954
39858SOL    HW225412   7.003   3.945   5.419  1.1476 -1.0075 -1.3688
39859SOL     OW25413   6.584   6.081  11.252 -0.2439  0.5302  0.4483
39859SOL    HW125414   6.535   5.999  11.260 -1.5488  1.1925 -0.3903
39859SOL    HW225415   6.670   6.061  11.289 -0.5954 -1.1533  0.4563
39860SOL     OW25416  12.239   8.680   5.017 -0.1566  0.1013 -0.3617
39860SOL    HW125417  12.196   8.655   4.936  0.2207  1.3761 -0.9803
39860SOL    HW225418  12.169   8.687   5.081 -0.9596  2.4518 -1.4220
39861SOL     OW25419   4.331   9.647   5.080 -0.0994  0.1025 -0.3200
39861SOL    HW125420   4.331   9.569   5.024 -1.0970 -0.7424  0.8210
39861SOL    HW225421   4.413   9.691   5.059  0.8401 -1.6448 -0.4695
39862SOL     OW25422  10.972   7.681   8.137  0.8730 -0.2402 -0.4587
39862SOL    HW125423  10.941   7.755   8.189 -0.1784  0.3606 -1.8872
39862SOL    HW225424  11.011   7.720   8.059  1.4800 -1.1540 -0.6328
39863SOL     OW25425   4.294   7.605   9.363 -0.1890 -0.1863 -0.0409
39863SOL    HW125426   4.266   7.614   9.272 -1.7534 -0.8484  0.3422
39863SOL    HW225427   4.328   7.692   9.387 -0.6035  0.2393 -0.9753
39864SOL     OW25428   2.666   2.364  11.173 -0.1781  0.1393 -0.1477
39864SOL    HW125429   2.596   2.359  11.237 -1.3179  0.2007 -1.3557
39864SOL    HW225430   2.623   2.356  11.088  1.1191  1.5113 -0.9934
39865SOL     OW25431   3.968  12.073   1.372  0.9108 -0.3168  0.2528
39865SOL    HW125432   3.985  12.163   1.346  1.8292  0.1614  2.3183
39865SOL    HW225433   3.944  12.029   1.291  1.6918  1.4799 -1.0192
39866SOL     OW25434   6.109   6.755   0.209  0.5770 -0.0987 -0.2933
39866SOL    HW125435   6.024   6.755   0.254  0.7727  1.4305  0.1186
39866SOL    HW225436   6.172   6.731   0.277  0.7268  1.0061 -0.0244
39867SOL     OW25437   7.528  12.244  10.798 -0.1196 -0.3050  0.0141
39867SOL    HW125438   7.611  12.265  10.756 -0.8070  0.8536 -0.8099
39867SOL    HW225439   7.504  12.158  10.763  0.7354 -0.6695  0.2954
39868SOL     OW25440   0.764   2.385   5.553  0.3339  0.3739  0.2864
39868SOL    HW125441   0.792   2.412   5.640  0.9304  0.3332  0.1142
39868SOL    HW225442   0.797   2.296   5.543  0.7969  0.5857 -0.1971
39869SOL     OW25443   3.538   2.572   6.692  0.0911 -0.0645 -0.4785
39869SOL    HW125444   3.457   2.602   6.650 -1.4973 -1.9171  1.0675
39869SOL    HW225445   3.538   2.614   6.778  1.0723  0.3455 -0.6703
39870SOL     OW25446  10.698   2.872   7.525  0.2022  0.3485  0.4694
39870SOL    HW125447  10.689   2.857   7.619 -1.3393 -0.0359  0.2912
39870SOL    HW225448  10.666   2.961   7.511 -0.4844  0.0705  0.2029
39871SOL     OW25449  12.033   0.159   5.390 -0.4038 -0.6060 -0.2151
39871SOL    HW125450  12.076   0.113   5.318 -0.2359 -2.5350  1.0422
39871SOL    HW225451  12.087   0.140   5.467 -0.7624  1.1128  0.5012
39872SOL     OW25452   3.396   2.531   8.398  1.0781  0.0260  0.2661
39872SOL    HW125453   3.365   2.616   8.431  0.7584 -0.3641  1.0084
39872SOL    HW225454   3.488   2.528   8.424  0.9481 -0.0779  0.7333
39873SOL     OW25455   3.567  10.782   6.868 -0.0291 -0.1449  0.9014
39873SOL    HW125456   3.481  10.786   6.826  0.3909 -0.1568  0.0148
39873SOL    HW225457   3.628  10.763   6.796  0.5809 -1.2642  1.6831
39874SOL     OW25458   8.266   9.507   4.015  0.0040 -0.6739 -0.1377
39874SOL    HW125459   8.307   9.592   3.998 -0.5880 -0.0098  1.4993
39874SOL    HW225460   8.174   9.528   4.030 -1.0491 -2.1216 -3.6501
39875SOL     OW25461   7.582   9.857   5.211 -0.0426  0.4361 -0.2918
39875SOL    HW125462   7.675   9.854   5.190 -0.2223  1.0225 -1.2726
39875SOL    HW225463   7.570   9.942   5.254  0.0869 -0.1976  1.0412
39876SOL     OW25464   2.267   4.482   5.798 -0.3862  0.1097 -0.2881
39876SOL    HW125465   2.356   4.448   5.798 -0.5883 -0.5384 -2.0247
39876SOL    HW225466   2.268   4.553   5.862  0.8550 -1.1136  1.1111
39877SOL     OW25467   7.466   2.627   8.561  0.1242 -0.2661 -0.7358
39877SOL    HW125468   7.405   2.701   8.552 -1.6060 -1.4307  0.7749
39877SOL    HW225469   7.496   2.632   8.652  0.1263 -1.3018 -0.6715
39878SOL     OW25470   0.046   1.926  11.075  0.1770 -0.5495 -0.6025
39878SOL    HW125471   0.125   1.970  11.046 -0.2955  0.2842 -0.6725
39878SOL    HW225472  -0.016   1.937  11.003 -0.7847  0.9364  0.3710
39879SOL     OW25473   2.928   3.395   7.190  0.3904  0.2918  0.1932
39879SOL    HW125474   2.879   3.430   7.264  1.0810  1.0182  0.3305
39879SOL    HW225475   2.866   3.396   7.117 -0.4117 -0.7997  0.8407
39880SOL     OW25476   0.139   7.016   4.338  0.3903  0.0698  0.2913
39880SOL    HW125477   0.098   6.938   4.375 -1.0839  0.5813 -0.1800
39880SOL    HW225478   0.168   7.066   4.414  1.6191 -1.0413  0.5939
39881SOL     OW25479   7.374   2.185  11.537  0.2146  0.2818 -0.4483
39881SOL    HW125480   7.441   2.232  11.487 -0.3917  0.3582 -1.1984
39881SOL    HW225481   7.380   2.095  11.506  0.3473  0.1703 -0.1045
39882SOL     OW25482   3.885  11.589   5.084 -0.0767  0.6739  0.6264
39882SOL    HW125483   3.946  11.655   5.051  0.6102  0.0516  0.5963
39882SOL    HW225484   3.840  11.632   5.157 -0.4857  1.5433 -0.1208
39883SOL     OW25485  12.190   6.836   5.202 -0.1759 -0.0166 -0.2826
39883SOL    HW125486  12.125   6.902   5.179  1.0675  0.9425 -1.2006
39883SOL    HW225487  12.252   6.837   5.129  0.5660 -1.2949  0.2978
39884SOL     OW25488   5.018   4.544   9.598  0.1365  0.3465  0.2279
39884SOL    HW125489   5.037   4.627   9.554 -0.2852  0.7666  0.8149
39884SOL    HW225490   4.930   4.520   9.568  0.3395 -0.0040 -0.1014
39885SOL     OW25491   3.015   5.579  10.763 -0.2021  0.0204  0.2964
39885SOL    HW125492   3.084   5.529  10.806  0.1212 -1.2613 -1.6091
39885SOL    HW225493   3.040   5.670  10.776  0.1781 -0.3196  2.2680
39886SOL     OW25494   6.380   9.517   2.711  0.6678  0.6977  0.4267
39886SOL    HW125495   6.377   9.432   2.667  1.4521  0.6119  0.5286
39886SOL    HW225496   6.295   9.557   2.692  0.4462  0.0545  0.0526
39887SOL     OW25497   8.678   0.418   6.099 -0.5066  0.1599  0.0211
39887SOL    HW125498   8.673   0.493   6.158 -2.3288 -1.0954  1.6257
39887SOL    HW225499   8.675   0.342   6.158 -2.2704 -1.1643 -1.6424
39888SOL     OW25500   6.897   5.066   5.424 -0.3535 -0.2319 -0.5368
39888SOL    HW125501   6.939   5.079   5.340  1.6049  0.3994  0.4728
39888SOL    HW225502   6.894   5.153   5.463  0.4528 -0.7590  0.7744
39889SOL     OW25503  10.042  10.727   2.863 -0.2275 -0.3591 -0.1144
39889SOL    HW125504  10.108  10.746   2.929 -0.0856 -2.5345  0.4238
39889SOL    HW225505  10.036  10.808   2.812  2.5364  0.0648  0.0602
39890SOL     OW25506   7.163  10.684   9.401  0.4285 -0.6246 -0.3991
39890SOL    HW125507   7.149  10.635   9.320 -0.3252  1.0880 -1.3710
39890SOL    HW225508   7.244  10.733   9.386  1.7577 -2.3030  0.9743
39891SOL     OW25509   6.044   1.153   4.684  0.0738  0.2044 -0.0862
39891SOL    HW125510   6.032   1.115   4.771 -3.3040  1.4085  0.0950
39891SOL    HW225511   6.051   1.247   4.699 -1.2644  0.4986 -1.1060
39892SOL     OW25512  10.595   9.883   7.313 -0.2502  0.4759  0.1329
39892SOL    HW125513  10.560   9.878   7.402  1.6147 -1.7126  0.8507
39892SOL    HW225514  10.523   9.855   7.257 -0.9501  0.2872  1.1104
39893SOL     OW25515   8.672   2.676   0.956 -0.2831  0.7050 -0.8083
39893SOL    HW125516   8.731   2.672   1.032 -0.9754  2.8313 -0.0834
39893SOL    HW225517   8.683   2.591   0.913  0.8720 -0.1994  1.1077
39894SOL     OW25518   7.006   4.584   7.907  0.0056  0.0496 -0.4551
39894SOL    HW125519   7.053   4.629   7.977 -1.9262  1.6053 -0.0757
39894SOL    HW225520   7.068   4.518   7.875  1.6342  0.5955  1.3900
39895SOL     OW25521  10.888   9.520  11.372  0.2661  0.1222 -0.0506
39895SOL    HW125522  10.874   9.590  11.435 -0.5189  1.1917 -1.3702
39895SOL    HW225523  10.801   9.487  11.352  0.6575 -1.6602  0.9686
39896SOL     OW25524   5.352   0.090  11.675  0.5483  0.4917  0.0384
39896SOL    HW125525   5.380   0.043  11.597  0.2404  0.4212 -0.0300
39896SOL    HW225526   5.356   0.025  11.745 -0.3964  0.2081 -0.1549
39897SOL     OW25527   5.925   8.049   8.469  0.4690 -0.1170  0.0120
39897SOL    HW125528   5.868   7.972   8.483  0.3324 -0.0332 -0.0813
39897SOL    HW225529   6.013   8.012   8.460  0.3955 -0.2692 -0.0968
39898SOL     OW25530   4.897   4.722  10.110 -0.3901 -0.6748 -0.0383
39898SOL    HW125531   4.926   4.739  10.199  1.8355 -1.4933 -0.5281
39898SOL    HW225532   4.958   4.770  10.055 -1.5775 -0.3777 -1.1481
39899SOL     OW25533  11.396   6.748   7.481  0.0707 -0.0438 -0.8948
39899SOL    HW125534  11.337   6.730   7.408 -1.0843 -0.3158  0.0659
39899SOL    HW225535  11.463   6.805   7.445 -1.5412  1.3972 -1.7162
39900SOL     OW25536   7.060   9.063   2.552 -0.2291  0.2985 -0.0784
39900SOL    HW125537   7.004   9.133   2.586  0.2390 -0.1257  1.6401
39900SOL    HW225538   7.079   9.090   2.462 -1.0872  1.7411  0.1347
39901SOL     OW25539   0.164   4.435   2.053  0.6199  0.1006  0.0029
39901SOL    HW125540   0.246   4.391   2.032  0.2166 -0.3504 -0.6755
39901SOL    HW225541   0.100   4.364   2.061  0.2222  0.4751  0.1639
39902SOL     OW25542   0.121  10.749  11.588 -0.2865 -0.1066  0.7361
39902SOL    HW125543   0.062  10.822  11.569  0.0506 -0.2848 -1.1775
39902SOL    HW225544   0.208  10.788  11.586 -0.1882 -0.3078  1.0637
39903SOL     OW25545  11.989  10.274   8.362  0.0248  0.2307  0.8323
39903SOL    HW125546  12.052  10.308   8.298  0.3575  0.2398  1.1629
39903SOL    HW225547  11.904  10.287   8.320  0.2358  0.2916  0.4146
39904SOL     OW25548   3.235  11.113   5.728 -0.3054 -0.0206  0.1828
39904SOL    HW125549   3.200  11.139   5.643  1.9525  2.0287 -0.2386
39904SOL    HW225550   3.259  11.021   5.717 -2.2471 -0.4901 -0.5564
39905SOL     OW25551   1.195  10.467   5.542  0.1335 -0.4044 -0.1665
39905SOL    HW125552   1.160  10.469   5.631  0.6744 -0.7302  0.0600
39905SOL    HW225553   1.288  10.488   5.552  0.1590 -0.2550 -0.6760
39906SOL     OW25554   8.512  10.938   0.081 -0.3187  0.2987  0.4398
39906SOL    HW125555   8.579  10.886   0.124  0.7150  0.8003 -0.5216
39906SOL    HW225556   8.561  11.002   0.028 -1.5255 -0.2757 -1.4605
39907SOL     OW25557   0.814   1.309   2.391 -0.3667 -0.4324 -0.0084
39907SOL    HW125558   0.725   1.341   2.375 -1.2364 -1.9162  1.5410
39907SOL    HW225559   0.802   1.228   2.441  1.8638 -0.7737  0.0827
39908SOL     OW25560   4.789   8.504   0.839 -0.7444 -0.8253 -0.0745
39908SOL    HW125561   4.874   8.480   0.875 -0.3430  0.4408 -0.1398
39908SOL    HW225562   4.809   8.534   0.750 -1.3271 -0.9890 -0.2624
39909SOL     OW25563   5.541  11.371   3.888  0.0111  0.2132 -0.0915
39909SOL    HW125564   5.610  11.315   3.923  0.4853  1.1341  0.4587
39909SOL    HW225565   5.582  11.456   3.876 -0.9750  0.7223  0.0580
39910SOL     OW25566   0.809   6.110   0.996  0.0045 -0.1262 -0.1878
39910SOL    HW125567   0.802   6.028   1.045  1.1490 -0.5511 -0.6923
39910SOL    HW225568   0.898   6.141   1.015 -0.1577  0.5999 -0.5956
39911SOL     OW25569   3.946  10.851   6.298  0.0957  0.1021 -0.4914
39911SOL    HW125570   3.991  10.935   6.301  0.6697 -0.2061 -0.1561
39911SOL    HW225571   3.988  10.804   6.226 -0.3483  0.1722 -0.7967
39912SOL     OW25572   4.250   6.698   0.717  0.0048 -0.2390 -0.3216
39912SOL    HW125573   4.226   6.618   0.764  0.3258  0.3810  0.9132
39912SOL    HW225574   4.270   6.667   0.628 -2.0042 -1.2272 -0.4907
39913SOL     OW25575   9.143   0.837  11.180  0.1973 -0.1583 -0.1414
39913SOL    HW125576   9.217   0.838  11.119 -0.3043  1.6782 -0.7805
39913SOL    HW225577   9.086   0.768  11.147 -0.1401  0.9031 -1.9069
39914SOL     OW25578   6.018   0.355   2.271  0.4466  0.1306  0.3454
39914SOL    HW125579   5.935   0.402   2.264 -1.3475 -2.8184  0.0462
39914SOL    HW225580   6.018   0.319   2.359  0.8731 -0.8199 -0.0354
39915SOL     OW25581   8.042   4.103   0.233  0.3005 -0.2023  0.2658
39915SOL    HW125582   8.025   4.181   0.286  0.3601 -0.1259  0.1732
39915SOL    HW225583   8.064   4.035   0.296  1.9357  0.2791  0.2538
39916SOL     OW25584   2.713  11.578   7.200  0.8454  0.1197 -0.1249
39916SOL    HW125585   2.707  11.492   7.159 -1.9770 -0.7238  1.7682
39916SOL    HW225586   2.724  11.639   7.127 -1.0882 -1.5245 -1.9239
39917SOL     OW25587  10.611   7.932   2.591 -0.3311 -0.1745 -0.3100
39917SOL    HW125588  10.695   7.886   2.587 -0.1940 -0.1541  1.3745
39917SOL    HW225589  10.547   7.863   2.612 -0.3658  0.1410  0.6630
39918SOL     OW25590   9.223  10.922   6.712  0.5981  0.2027  0.4319
39918SOL    HW125591   9.154  10.965   6.763 -0.4342 -0.1699 -0.6029
39918SOL    HW225592   9.189  10.834   6.695  1.4535 -0.0797  0.1304
39919SOL     OW25593   5.647   9.936   6.623 -0.2525  0.0985  0.3959
39919SOL    HW125594   5.609   9.950   6.536 -1.4491 -1.9438  0.5432
39919SOL    HW225595   5.647  10.023   6.663 -2.3874  0.6134 -0.5869
39920SOL     OW25596   6.839   5.911  10.399  0.2770  0.3711  0.2103
39920SOL    HW125597   6.745   5.918  10.416  0.2100 -0.4488  0.2374
39920SOL    HW225598   6.877   5.887  10.484  0.3166 -0.7342 -0.0971
39921SOL     OW25599   5.521   9.252  10.224 -0.3612 -1.0276 -0.5172
39921SOL    HW125600   5.598   9.238  10.169  0.1790 -0.7834  0.1639
39921SOL    HW225601   5.508   9.168  10.267  1.3711 -0.2873  1.6579
39922SOL     OW25602   1.018   7.139   2.160 -0.2925  0.1125 -0.8021
39922SOL    HW125603   0.988   7.153   2.070 -0.4032  0.2339 -0.7478
39922SOL    HW225604   1.070   7.059   2.156 -1.3549 -0.6112 -0.7418
39923SOL     OW25605   8.114   7.286   5.996  0.2504  0.2899 -0.0200
39923SOL    HW125606   8.197   7.253   6.030  0.2176  0.2289  0.0020
39923SOL    HW225607   8.071   7.326   6.072  1.1442  2.1585 -0.4425
39924SOL     OW25608   5.318   4.948   6.694 -0.6578  0.0733  0.5660
39924SOL    HW125609   5.271   4.954   6.611  0.2391 -0.5130 -0.0041
39924SOL    HW225610   5.254   4.912   6.756 -1.0258 -0.5097 -0.1376
39925SOL     OW25611   3.041   7.788  11.314  0.1374 -0.1659  0.2798
39925SOL    HW125612   3.094   7.742  11.379 -1.0939  0.4621  1.7809
39925SOL    HW225613   3.102   7.849  11.272  0.8733 -0.2915  1.1301
39926SOL     OW25614  11.906   7.777   9.760  0.0353  0.3414  0.0851
39926SOL    HW125615  11.824   7.826   9.766  0.5192  1.2030 -0.1193
39926SOL    HW225616  11.915   7.732   9.844 -1.3453 -0.9181 -0.4070
39927SOL     OW25617   6.016  10.612  10.395 -0.0609  0.4007 -0.2275
39927SOL    HW125618   5.923  10.630  10.411  0.1960  1.8692 -0.3022
39927SOL    HW225619   6.033  10.531  10.443 -1.2135  0.4890  0.3555
39928SOL     OW25620   4.361   4.832   2.189  0.1865 -0.1303 -0.3306
39928SOL    HW125621   4.449   4.850   2.155  1.3226  1.1688  2.8921
39928SOL    HW225622   4.308   4.907   2.160  0.2214 -0.6393 -1.8110
39929SOL     OW25623   3.667   7.029   6.346  0.0065  0.3460  0.7181
39929SOL    HW125624   3.754   7.064   6.365 -0.1066  0.1629  1.6275
39929SOL    HW225625   3.665   6.943   6.390 -0.0157 -0.4359 -0.7679
39930SOL     OW25626   1.443   0.876   4.371  0.4239  0.1461 -0.0979
39930SOL    HW125627   1.532   0.874   4.336  0.0550 -0.4822 -1.0555
39930SOL    HW225628   1.410   0.963   4.347  0.5278  0.1010 -0.4051
39931SOL     OW25629   7.551   8.026   3.454  0.6160  0.0610  0.2073
39931SOL    HW125630   7.496   8.052   3.379  0.1684  0.4116  0.6503
39931SOL    HW225631   7.634   8.001   3.414 -0.2281 -1.6364 -0.5943
39932SOL     OW25632   8.286   2.574   2.264  0.1203 -0.4213  0.3310
39932SOL    HW125633   8.262   2.481   2.263  0.2258 -0.4632 -1.0226
39932SOL    HW225634   8.209   2.618   2.299  0.0227 -1.0107  0.8681
39933SOL     OW25635   2.489  10.657  10.688  0.4790  0.1846 -0.2596
39933SOL    HW125636   2.423  10.681  10.754  0.2182  1.4276 -0.9431
39933SOL    HW225637   2.439  10.645  10.608  0.8461 -0.9295 -0.3335
39934SOL     OW25638   0.246   8.033  10.259  0.3363  0.3862 -0.1189
39934SOL    HW125639   0.310   8.063  10.195  0.0551 -1.0251 -1.1164
39934SOL    HW225640   0.164   8.077  10.235  0.8053  1.8762  0.9071
39935SOL     OW25641   4.337   8.007   5.457  0.6316 -0.4116  0.1861
39935SOL    HW125642   4.245   8.020   5.433  1.0618  0.4735 -1.1314
39935SOL    HW225643   4.350   7.913   5.451 -0.3157 -0.6081  0.9441
39936SOL     OW25644   3.912   7.653   3.244 -0.6942 -0.6601  0.5017
39936SOL    HW125645   3.886   7.744   3.257  0.8848  0.1294 -1.3141
39936SOL    HW225646   3.989   7.642   3.299  2.4808  0.9277 -3.1459
39937SOL     OW25647   4.887   4.355   8.187 -1.0444 -0.1950 -0.7267
39937SOL    HW125648   4.811   4.298   8.174 -0.9701 -0.4653  0.0145
39937SOL    HW225649   4.854   4.443   8.169 -1.6948 -0.2379  0.2092
39938SOL     OW25650   2.292   0.766  11.589 -0.1369  0.0342 -0.4322
39938SOL    HW125651   2.223   0.822  11.553 -1.1879 -1.7790 -1.4095
39938SOL    HW225652   2.286   0.777  11.683  0.2587  2.1617 -0.6094
39939SOL     OW25653   0.821   5.583   6.150 -0.4360 -0.0496  0.2129
39939SOL    HW125654   0.801   5.593   6.057  0.6833 -0.5940 -0.1115
39939SOL    HW225655   0.777   5.503   6.176 -0.2439 -0.2347 -0.0195
39940SOL     OW25656   8.976   9.166   6.842  0.3406  0.3853 -0.1412
39940SOL    HW125657   8.988   9.251   6.799 -0.4600 -0.1796 -1.5495
39940SOL    HW225658   8.992   9.101   6.774  2.1115 -0.6779  1.2022
39941SOL     OW25659  11.391   7.008   4.167 -0.2933  0.2300 -0.2537
39941SOL    HW125660  11.299   7.029   4.148 -0.4345 -0.5286 -0.4260
39941SOL    HW225661  11.399   7.019   4.262  0.0535  2.6492 -0.4871
39942SOL     OW25662   2.160   2.429   5.866 -0.2845 -0.2007 -0.6500
39942SOL    HW125663   2.214   2.352   5.847 -0.4416 -0.8453  1.2584
39942SOL    HW225664   2.094   2.430   5.797  0.6030 -0.8974 -1.5479
39943SOL     OW25665   6.039   9.922   8.633 -0.9474  0.3396  0.3880
39943SOL    HW125666   5.955   9.904   8.592 -0.8473 -1.8116  1.0203
39943SOL    HW225667   6.018   9.978   8.708 -1.7230  0.3509  0.1659
39944SOL     OW25668   6.382   2.489   0.676  0.4069 -0.0115 -1.0356
39944SOL    HW125669   6.426   2.503   0.760  1.9816  1.5837 -2.0458
39944SOL    HW225670   6.403   2.398   0.653  0.3278 -0.3269  0.0636
39945SOL     OW25671   8.001   3.790   6.756  0.4157  0.7521  0.2878
39945SOL    HW125672   8.036   3.878   6.773 -0.0779  0.9554  0.2431
39945SOL    HW225673   7.996   3.784   6.661 -0.7912  1.1684  0.3085
39946SOL     OW25674   6.709   4.536   5.113  0.3842 -0.1107 -0.5514
39946SOL    HW125675   6.627   4.486   5.112  0.2099  0.1729 -0.9053
39946SOL    HW225676   6.682   4.626   5.096  0.8287 -0.1021 -1.2342
39947SOL     OW25677   8.666   4.179   6.281  0.0811  0.0193 -0.0686
39947SOL    HW125678   8.674   4.271   6.307  1.7029  0.3258 -1.4279
39947SOL    HW225679   8.599   4.180   6.212  0.8327  0.4064 -0.8271
39948SOL     OW25680  12.107   0.972   3.143 -0.0973  0.2758  0.2433
39948SOL    HW125681  12.053   0.894   3.135 -0.2848  0.4053  0.2505
39948SOL    HW225682  12.182   0.945   3.197  0.2863 -0.1343 -0.4879
39949SOL     OW25683   1.694   0.374   0.021  0.1072  0.0610 -0.1733
39949SOL    HW125684   1.620   0.431   0.040  0.6253  0.0551  2.2755
39949SOL    HW225685   1.713   0.331   0.105  1.6123 -1.4472 -1.2153
39950SOL     OW25686  11.789   4.531   5.103  0.0471  0.5452  0.5775
39950SOL    HW125687  11.730   4.522   5.178  1.0144  0.6402  1.3846
39950SOL    HW225688  11.783   4.447   5.058  1.6007 -0.6423  2.4304
39951SOL     OW25689   0.350   1.432   9.040 -0.0187  0.7839 -0.0331
39951SOL    HW125690   0.371   1.344   9.010  0.0423  0.5982  0.5460
39951SOL    HW225691   0.260   1.447   9.011 -0.3702  0.1550  0.7155
39952SOL     OW25692  10.892   8.447   4.189 -0.0383 -0.0737  0.3391
39952SOL    HW125693  10.829   8.519   4.190 -0.7298 -0.6573  0.5338
39952SOL    HW225694  10.842   8.373   4.154  0.9338 -0.2174 -0.7918
39953SOL     OW25695   2.351   9.535   5.609  0.2314  0.2233 -0.4341
39953SOL    HW125696   2.278   9.532   5.547 -0.4875  0.4871  0.3878
39953SOL    HW225697   2.340   9.617   5.657  0.7021 -0.0358  0.1357
39954SOL     OW25698   8.057  10.019   7.600  0.0552 -0.3159 -0.0320
39954SOL    HW125699   8.057  10.112   7.624  0.0019 -0.5173  0.7827
39954SOL    HW225700   8.012   9.976   7.673 -1.0581 -0.8343 -0.9935
39955SOL     OW25701  11.950  11.575   6.232  0.0421 -0.4285 -0.1157
39955SOL    HW125702  12.022  11.626   6.267 -1.1583  2.1905 -1.2295
39955SOL    HW225703  11.933  11.613   6.146 -2.5484 -1.0705  0.0312
39956SOL     OW25704   3.153  11.708   9.569 -0.1332  0.2493 -0.0849
39956SOL    HW125705   3.192  11.760   9.639 -0.0906  0.5689 -0.3460
39956SOL    HW225706   3.099  11.769   9.520 -0.6167 -0.0981  0.0064
39957SOL     OW25707   8.290   4.989   8.386 -0.7391 -0.7223  0.5385
39957SOL    HW125708   8.258   5.041   8.312  1.0835  1.1879  1.0193
39957SOL    HW225709   8.216   4.986   8.446 -0.7121  2.0033  0.8174
39958SOL     OW25710   3.583   9.939   9.141 -0.5676  0.5696 -0.9170
39958SOL    HW125711   3.665   9.926   9.093  0.3226 -0.6524  0.8113
39958SOL    HW225712   3.604  10.003   9.208 -0.8167 -0.2657 -0.0224
39959SOL     OW25713   8.049  10.811  10.532  0.1253  0.6042  0.2033
39959SOL    HW125714   7.962  10.782  10.561  0.6112 -0.8134  0.3353
39959SOL    HW225715   8.076  10.745  10.468  0.9789  1.1965 -0.0647
39960SOL     OW25716   2.353   2.340  10.534 -0.5379  0.0419  0.6241
39960SOL    HW125717   2.318   2.400  10.599 -2.7090 -0.9039  0.4136
39960SOL    HW225718   2.309   2.364  10.452 -0.0062 -0.6049  0.1299
39961SOL     OW25719   8.069   8.080   7.917 -0.1556 -0.3876 -0.1539
39961SOL    HW125720   8.062   8.079   7.821 -2.2527 -1.0146 -0.0415
39961SOL    HW225721   8.162   8.065   7.934  0.3889  0.4259 -2.0894
39962SOL     OW25722   6.496   0.895   9.144  0.1737 -0.4308  0.1995
39962SOL    HW125723   6.444   0.967   9.107  0.3354  0.4371  1.5786
39962SOL    HW225724   6.446   0.867   9.221  0.6530 -1.0838  0.2800
39963SOL     OW25725   3.834  11.157   9.113 -0.2740 -0.0780  0.2620
39963SOL    HW125726   3.807  11.247   9.096  1.7933  0.6657  0.6652
39963SOL    HW225727   3.826  11.114   9.028  1.2913  1.2507 -0.6334
39964SOL     OW25728   6.657   7.981  11.847 -0.1539 -0.3229  0.1817
39964SOL    HW125729   6.741   8.026  11.839 -0.4197  0.0933 -0.4162
39964SOL    HW225730   6.609   8.032  11.912 -1.2277  1.5783 -1.9421
39965SOL     OW25731   1.678   9.445   9.673 -0.6557  0.8766  0.4922
39965SOL    HW125732   1.773   9.448   9.683 -0.7316  2.0960  1.0407
39965SOL    HW225733   1.663   9.386   9.599  0.5523  1.0948  0.0569
39966SOL     OW25734   6.728   8.715   7.305  0.0074 -0.1376 -0.0938
39966SOL    HW125735   6.663   8.766   7.257  1.1208  0.7301 -0.7351
39966SOL    HW225736   6.776   8.668   7.238 -0.1211 -0.9811  0.3939
39967SOL     OW25737   6.662   7.021  11.621  0.3388  0.3915  0.1196
39967SOL    HW125738   6.645   6.967  11.698 -1.8088 -0.2928 -0.7630
39967SOL    HW225739   6.598   7.093  11.628  0.4047  0.5506 -0.7940
39968SOL     OW25740   4.060   0.896   4.550  0.1702 -0.0557 -0.2010
39968SOL    HW125741   4.013   0.815   4.530  1.2014 -0.2748 -1.9602
39968SOL    HW225742   4.035   0.916   4.640 -0.7144 -1.9020  0.0263
39969SOL     OW25743  12.041   0.564   1.672 -0.0446 -0.2558 -0.3172
39969SOL    HW125744  11.947   0.581   1.683  0.3636  0.7252  2.2877
39969SOL    HW225745  12.046   0.470   1.654 -1.5088 -0.3311 -0.4559
39970SOL     OW25746   3.334  11.435   2.898  0.3986 -0.0312 -0.0196
39970SOL    HW125747   3.377  11.501   2.953  0.0123 -0.6039  0.9904
39970SOL    HW225748   3.267  11.397   2.954 -0.7768  0.1467 -1.2456
39971SOL     OW25749   3.658   0.228   3.746  0.0627  0.0394 -0.0644
39971SOL    HW125750   3.583   0.286   3.734  0.5107  0.4715 -0.8589
39971SOL    HW225751   3.698   0.221   3.659 -0.0201 -1.5229 -0.0095
39972SOL     OW25752   9.360   5.716   0.709 -0.0912 -0.2995 -0.9466
39972SOL    HW125753   9.410   5.740   0.631  0.7044 -1.2956 -0.7754
39972SOL    HW225754   9.414   5.745   0.782 -1.2818  1.4952 -0.7383
39973SOL     OW25755   3.223   2.895  11.905  0.0532 -0.1575 -0.1566
39973SOL    HW125756   3.308   2.873  11.866  0.0671  0.4642 -0.4878
39973SOL    HW225757   3.194   2.972  11.857  1.3172  2.3788  2.7704
39974SOL     OW25758  11.669   2.738   4.972  0.3614 -0.7190 -0.2669
39974SOL    HW125759  11.734   2.801   4.942  1.8615 -1.8283  0.5187
39974SOL    HW225760  11.671   2.669   4.905  0.1697 -0.8871 -0.1007
39975SOL     OW25761   9.227   3.572   2.747 -0.6515 -0.0602 -0.2453
39975SOL    HW125762   9.291   3.541   2.683 -0.2777  2.0037 -0.9410
39975SOL    HW225763   9.205   3.494   2.798  0.9943 -1.2196 -1.1991
39976SOL     OW25764   9.613   1.031   8.095 -0.0773 -0.0288  0.2839
39976SOL    HW125765   9.580   0.952   8.053  2.7993 -0.9869 -0.3828
39976SOL    HW225766   9.537   1.087   8.104 -1.7359 -1.8341 -1.5869
39977SOL     OW25767  10.355   0.809   8.978 -0.1782 -0.2280  0.0462
39977SOL    HW125768  10.444   0.783   8.953 -0.0784  0.4642 -0.3474
39977SOL    HW225769  10.350   0.902   8.955 -1.1333 -0.3518 -0.3023
39978SOL     OW25770  10.948   6.108   0.954 -0.0255 -0.3075  0.2486
39978SOL    HW125771  11.033   6.116   0.912 -0.0533  0.2322  0.2967
39978SOL    HW225772  10.926   6.196   0.982 -0.2916 -0.5601  0.8474
39979SOL     OW25773   1.868   1.787   5.177  0.4015  0.0536  0.5249
39979SOL    HW125774   1.932   1.721   5.204  1.0668  0.6929  0.5514
39979SOL    HW225775   1.848   1.835   5.257 -0.4427 -0.4110  0.6002
39980SOL     OW25776   9.850   1.112   8.363  0.3334  0.0159 -0.2622
39980SOL    HW125777   9.813   1.031   8.328 -0.6488  0.4183 -0.1765
39980SOL    HW225778   9.844   1.174   8.291 -0.9173  0.6114  0.3349
39981SOL     OW25779   5.482   4.961   5.161 -0.2647  0.2414 -0.0619
39981SOL    HW125780   5.393   4.933   5.182 -0.2370  0.8109  0.9049
39981SOL    HW225781   5.530   4.953   5.244  1.1435 -1.9957 -0.9904
39982SOL     OW25782  11.198   9.440   6.644 -0.1212 -0.4599  0.1708
39982SOL    HW125783  11.135   9.490   6.593 -2.1081 -1.5117  1.4786
39982SOL    HW225784  11.257   9.506   6.681 -1.9507  0.8441  0.8854
39983SOL     OW25785   9.764   5.901   4.733 -0.6889 -0.6329 -0.7101
39983SOL    HW125786   9.701   5.933   4.798  1.0601  2.7429 -0.4751
39983SOL    HW225787   9.756   5.962   4.660  1.8349 -0.4430 -0.9055
39984SOL     OW25788  10.456  10.093   6.704 -0.4260  0.0897 -0.4378
39984SOL    HW125789  10.390  10.024   6.696 -0.5597 -0.0397  1.4011
39984SOL    HW225790  10.524  10.055   6.761  0.1874  0.9778 -0.5627
39985SOL     OW25791   0.314   0.810   5.328  0.3191 -0.3913 -0.0722
39985SOL    HW125792   0.242   0.870   5.347  0.3209 -0.3292 -0.2532
39985SOL    HW225793   0.358   0.849   5.253 -0.4364 -1.2547 -1.0004
39986SOL     OW25794  11.824   9.621   5.376  0.3107 -0.1285  0.1824
39986SOL    HW125795  11.869   9.544   5.413 -0.8079 -0.5047  0.7900
39986SOL    HW225796  11.879   9.647   5.302  1.7074 -0.3752  1.0991
39987SOL     OW25797   2.087   9.107   7.017  0.4317  0.2476 -0.0477
39987SOL    HW125798   2.029   9.182   7.011 -1.0726 -0.6544  2.0034
39987SOL    HW225799   2.148   9.130   7.087 -0.4592 -0.6500  1.0619
39988SOL     OW25800   5.588   1.599   5.832  0.8208  0.3640  0.2292
39988SOL    HW125801   5.573   1.527   5.771  0.3991  1.3856 -0.9234
39988SOL    HW225802   5.666   1.573   5.881 -0.2968 -1.6526  1.0808
39989SOL     OW25803  11.787   7.160  10.409  0.2760 -0.2345 -0.0826
39989SOL    HW125804  11.705   7.175  10.456  0.7846  0.7279  0.5216
39989SOL    HW225805  11.767   7.186  10.319 -0.0108  0.2460  0.1139
39990SOL     OW25806   6.378   8.956   0.268  0.3335 -0.0336 -0.0178
39990SOL    HW125807   6.298   8.928   0.313  0.0586  0.7932  0.0266
39990SOL    HW225808   6.446   8.898   0.303 -0.0378  0.0094  0.8097
39991SOL     OW25809  11.640  10.097   7.849  0.4110 -0.1731 -0.1775
39991SOL    HW125810  11.724  10.100   7.895 -0.1264 -0.1072  0.8120
39991SOL    HW225811  11.579  10.062   7.913 -0.7958  1.8401 -0.1414
39992SOL     OW25812   6.547   8.444   3.494 -0.7323 -0.3693  0.8958
39992SOL    HW125813   6.474   8.386   3.517 -1.5362 -0.1660 -0.9385
39992SOL    HW225814   6.523   8.479   3.408  1.1559  0.3557  0.6206
39993SOL     OW25815   9.816   7.593  10.839 -0.2149  0.0248 -0.0141
39993SOL    HW125816   9.834   7.632  10.925 -1.7230 -0.1924  0.4421
39993SOL    HW225817   9.780   7.664  10.788 -0.5309 -0.1503 -0.0367
39994SOL     OW25818  11.293   9.718  12.046  0.2638  0.8062 -0.7075
39994SOL    HW125819  11.306   9.786  11.980  1.3627  0.3794 -0.9563
39994SOL    HW225820  11.381   9.697  12.077 -0.0212 -0.6219 -0.7706
39995SOL     OW25821   5.718  10.527   0.098  0.7111 -0.2968  0.3838
39995SOL    HW125822   5.727  10.462   0.028  1.6154 -0.1599  0.3644
39995SOL    HW225823   5.673  10.480   0.168 -1.7599  0.0305 -0.8747
39996SOL     OW25824   1.293  11.563   1.628  0.0055 -0.3796  0.0622
39996SOL    HW125825   1.384  11.588   1.644  1.0201 -1.8728 -2.6390
39996SOL    HW225826   1.272  11.601   1.543 -1.2755 -1.5152 -0.1697
39997SOL     OW25827   5.991   9.320   8.886  0.0189  0.4732  0.4167
39997SOL    HW125828   6.001   9.412   8.910  0.8179  0.5457 -0.1523
39997SOL    HW225829   5.900   9.312   8.858  0.3393  1.4470 -0.9979
39998SOL     OW25830   5.261   2.644   3.979 -0.1508 -0.0571 -0.2761
39998SOL    HW125831   5.225   2.733   3.982 -2.9047 -1.0382 -0.5493
39998SOL    HW225832   5.209   2.601   3.911 -0.9710 -2.6469  1.8220
39999SOL     OW25833   2.838   6.342   9.920  0.0248  0.5007  0.2595
39999SOL    HW125834   2.775   6.407   9.951 -0.3153  0.1224  0.3580
39999SOL    HW225835   2.793   6.295   9.850 -0.3665 -0.7849  1.3294
40000SOL     OW25836  10.146  11.130   5.190 -0.1036  0.0142  0.6868
40000SOL    HW125837  10.105  11.192   5.131  3.9812  1.5772 -0.8387
40000SOL    HW225838  10.112  11.045   5.164 -2.6665  1.1803 -0.0006
40001SOL     OW25839   4.281  11.121   0.747 -0.4107 -0.5559 -0.6471
40001SOL    HW125840   4.226  11.054   0.707 -1.3624  1.1908 -2.4309
40001SOL    HW225841   4.304  11.179   0.675  1.1550  0.5497  0.6643
40002SOL     OW25842   4.442   0.103   8.711 -0.9753 -0.1974  0.7096
40002SOL    HW125843   4.461   0.009   8.715 -0.2056 -0.0152  2.2735
40002SOL    HW225844   4.528   0.144   8.702 -1.2722  0.3721  0.4371
40003SOL     OW25845  10.369   7.586   0.396  0.1863 -0.6442  0.2265
40003SOL    HW125846  10.287   7.623   0.363 -0.0927 -2.6559 -1.5640
40003SOL    HW225847  10.390   7.640   0.473 -1.3489  1.6505 -0.8343
40004SOL     OW25848   3.566   2.581  10.415  0.4487 -0.3295 -0.0860
40004SOL    HW125849   3.501   2.651  10.415  2.0615  1.3302  2.3957
40004SOL    HW225850   3.538   2.522  10.486  1.4059  0.2389  0.8008
40005SOL     OW25851   1.425   1.680   5.676 -0.6676 -0.0889  0.1711
40005SOL    HW125852   1.432   1.623   5.752  1.1107  0.8238  0.7610
40005SOL    HW225853   1.482   1.640   5.610 -0.5827  0.2128  0.0565
40006SOL     OW25854   1.531   0.002   7.260 -0.6079  0.1228 -0.5514
40006SOL    HW125855   1.607  -0.054   7.274 -0.4308 -0.5854 -3.5395
40006SOL    HW225856   1.475  -0.048   7.201 -1.2002  2.4064 -2.0931
40007SOL     OW25857   9.039   4.635   7.571 -0.3131  0.3872 -0.5033
40007SOL    HW125858   8.956   4.653   7.614 -1.0955 -1.8197 -0.9577
40007SOL    HW225859   9.096   4.708   7.596 -2.0983  1.4766  0.5425
40008SOL     OW25860   8.862  11.238   6.272 -0.6613  0.5319 -0.2734
40008SOL    HW125861   8.914  11.174   6.321 -1.3521  0.1980  0.0434
40008SOL    HW225862   8.785  11.188   6.243 -0.6867  0.9500 -0.9468
40009SOL     OW25863  11.996   6.357   6.527 -0.0151 -0.0585 -0.0193
40009SOL    HW125864  11.913   6.405   6.534 -0.3576 -0.5507 -0.5960
40009SOL    HW225865  12.051   6.393   6.597 -0.7124  0.2801  0.3616
40010SOL     OW25866   3.767   4.692   1.463 -0.2118  0.0881 -0.2521
40010SOL    HW125867   3.852   4.735   1.449 -0.3641 -0.1647 -2.2987
40010SOL    HW225868   3.763   4.677   1.557  2.1616 -0.1677 -0.1277
40011SOL     OW25869   6.562   6.640   2.892 -0.1727  0.3253  0.0757
40011SOL    HW125870   6.653   6.645   2.864 -0.4468 -0.4548 -1.0394
40011SOL    HW225871   6.511   6.645   2.811 -1.2049  2.0346  0.7668
40012SOL     OW25872   8.476   8.688   8.597  0.2005  0.1122  0.3928
40012SOL    HW125873   8.444   8.692   8.687 -1.5733 -0.0159 -0.1871
40012SOL    HW225874   8.557   8.739   8.598  1.1767 -1.3438  2.4135
40013SOL     OW25875  12.313   0.222   4.427 -0.5207 -0.2072 -0.0307
40013SOL    HW125876  12.277   0.171   4.354 -0.4979 -0.8169  0.3823
40013SOL    HW225877  12.240   0.231   4.488 -0.0615 -1.2070  0.6813
40014SOL     OW25878   5.166   3.224   4.331 -0.1257  0.3595  0.4300
40014SOL    HW125879   5.232   3.246   4.265 -0.0785  2.0608  0.9918
40014SOL    HW225880   5.095   3.287   4.317 -0.6436 -0.0247  1.2380
40015SOL     OW25881   2.914   1.954  12.037  0.1991 -0.1597  0.1633
40015SOL    HW125882   2.956   1.960  11.951  0.5632 -0.0687  0.3433
40015SOL    HW225883   2.987   1.956  12.099 -0.0933  0.2952  0.4973
40016SOL     OW25884   4.103   9.033  10.700  0.2331  0.2445  0.1716
40016SOL    HW125885   4.110   8.938  10.702 -1.2417  0.0892 -0.7724
40016SOL    HW225886   4.110   9.060  10.792 -1.0834 -0.9157  0.6444
40017SOL     OW25887   9.391   4.181   6.919  0.0485  0.4235 -0.5007
40017SOL    HW125888   9.299   4.164   6.901 -0.2352  0.8260  0.5414
40017SOL    HW225889   9.408   4.267   6.881 -0.4385  1.0818  0.7427
40018SOL     OW25890   4.706   2.660  10.905 -0.3454 -0.3971  0.3756
40018SOL    HW125891   4.794   2.683  10.876 -0.8377  0.6258 -0.3319
40018SOL    HW225892   4.719   2.582  10.960  1.2676  0.9733  2.0674
40019SOL     OW25893   0.766   2.669  10.843  0.2914 -0.6081  0.4588
40019SOL    HW125894   0.830   2.739  10.834  0.0756 -0.5355 -0.6488
40019SOL    HW225895   0.730   2.681  10.930  1.7501 -0.6306  1.0933
40020SOL     OW25896   6.277   0.314   9.297  0.1774 -0.4023  0.2735
40020SOL    HW125897   6.302   0.388   9.353 -2.5648  0.4917  0.4897
40020SOL    HW225898   6.307   0.339   9.210  0.5356  0.2949  0.5874
40021SOL     OW25899   0.258  10.655   7.873 -0.2197  0.1065  0.1056
40021SOL    HW125900   0.200  10.579   7.874 -2.5270  1.6561  3.3095
40021SOL    HW225901   0.223  10.711   7.803  0.4198 -0.9813 -1.1127
40022SOL     OW25902   3.622   5.472   9.721  0.0190 -0.3311 -0.1451
40022SOL    HW125903   3.662   5.554   9.750 -1.0646  0.1032  0.1778
40022SOL    HW225904   3.695   5.421   9.686  0.9022  0.2730  0.7595
40023SOL     OW25905   5.853   9.384  12.162 -0.1475 -0.4957 -0.1563
40023SOL    HW125906   5.905   9.412  12.238 -0.1662  1.0289 -0.6800
40023SOL    HW225907   5.889   9.298  12.140  0.7828 -0.3635  0.7404
40024SOL     OW25908   8.613   1.711   1.068 -0.5511  0.4282  0.5335
40024SOL    HW125909   8.668   1.758   1.006  0.8431 -0.8475  0.7390
40024SOL    HW225910   8.524   1.723   1.035  0.0299  0.8819 -0.9574
40025SOL     OW25911   0.826   2.604   5.974 -0.4598 -0.0275 -0.0059
40025SOL    HW125912   0.809   2.687   6.017  1.1863 -0.0002  0.6563
40025SOL    HW225913   0.906   2.571   6.015  0.5815 -0.5271 -2.2605
40026SOL     OW25914   2.260   3.005   8.307  0.2056 -0.3644 -0.1522
40026SOL    HW125915   2.277   3.099   8.306  0.0759 -0.3436 -0.4404
40026SOL    HW225916   2.189   2.994   8.371 -1.2826 -0.0001 -1.6614
40027SOL     OW25917   6.214   3.921  12.055 -0.7169 -0.0521  0.4796
40027SOL    HW125918   6.164   3.952  11.980  0.5136  1.5982  0.3063
40027SOL    HW225919   6.304   3.948  12.038 -0.0357 -1.4173  1.6153
40028SOL     OW25920   3.410  10.516  11.985  0.4142  0.0722 -0.3521
40028SOL    HW125921   3.392  10.429  11.951  0.8982 -0.3138  0.3509
40028SOL    HW225922   3.498  10.509  12.023  1.0813  1.2532 -1.5871
40029SOL     OW25923   7.697  10.060   9.794  0.4469 -0.3877  0.4607
40029SOL    HW125924   7.613  10.057   9.840 -0.9209  0.0438 -1.8491
40029SOL    HW225925   7.703   9.976   9.750  0.2031  0.3659 -1.0546
40030SOL     OW25926   4.470  11.402   0.067 -0.6696 -0.1086  0.3005
40030SOL    HW125927   4.557  11.382   0.101 -0.0508  0.5812 -0.7993
40030SOL    HW225928   4.486  11.446  -0.016 -2.1207 -2.1299 -1.1549
40031SOL     OW25929   5.416   2.998   1.189  0.1552  0.1851  0.1278
40031SOL    HW125930   5.436   2.938   1.261  1.9652  0.9012  0.2846
40031SOL    HW225931   5.322   2.989   1.175 -0.0982 -0.5673  2.0407
40032SOL     OW25932   3.382   0.633   0.758  0.3144  0.5394 -0.2033
40032SOL    HW125933   3.392   0.673   0.671  1.4244 -0.0299 -0.3534
40032SOL    HW225934   3.309   0.681   0.798 -0.1602  0.8621 -1.4132
40033SOL     OW25935  12.134  11.678   3.622  0.2337  0.0323  0.1248
40033SOL    HW125936  12.062  11.629   3.662  0.7795 -1.3755 -0.5246
40033SOL    HW225937  12.104  11.698   3.534  0.5342 -0.3770 -0.0777
40034SOL     OW25938   1.307   0.025   4.975 -0.4911  0.0499  0.1602
40034SOL    HW125939   1.341   0.024   4.886 -0.4936  2.4723  0.0908
40034SOL    HW225940   1.309  -0.067   5.002 -1.3999 -0.8868 -2.6460
40035SOL     OW25941   8.483   9.003   9.357  0.6333 -0.0278  0.8085
40035SOL    HW125942   8.438   8.942   9.416 -0.5583 -1.5028 -1.4800
40035SOL    HW225943   8.447   8.984   9.271  1.6606  2.6466 -0.3081
40036SOL     OW25944   1.879   2.928   1.167  0.2094  0.6628 -0.0529
40036SOL    HW125945   1.824   2.950   1.243  1.0005  2.2288  0.1124
40036SOL    HW225946   1.817   2.913   1.096 -0.6106 -1.7996  1.0669
40037SOL     OW25947   7.562   9.224   0.962 -0.1058 -0.1720 -0.5505
40037SOL    HW125948   7.582   9.132   0.975  0.1399 -0.3321 -1.9461
40037SOL    HW225949   7.552   9.234   0.867  0.9916  1.4517 -0.5479
40038SOL     OW25950   6.478   3.034   8.471 -0.1036 -0.2287  0.1311
40038SOL    HW125951   6.564   3.006   8.501  0.2186 -0.1302 -0.6917
40038SOL    HW225952   6.434   3.064   8.551  0.8545  0.3302  0.4665
40039SOL     OW25953   2.172   3.724   7.144 -0.0357  0.0452 -0.1757
40039SOL    HW125954   2.089   3.758   7.177  1.2196  1.1489  2.1022
40039SOL    HW225955   2.164   3.629   7.151 -0.7316  0.1785  1.0324
40040SOL     OW25956   5.687   0.683   9.659  0.8081 -0.3773 -0.0511
40040SOL    HW125957   5.709   0.619   9.592  0.7459  0.3918 -0.8166
40040SOL    HW225958   5.772   0.721   9.685  1.0608 -1.9468  1.6552
40041SOL     OW25959   4.995   0.472   1.907 -0.1704 -0.5776 -0.3692
40041SOL    HW125960   4.972   0.481   2.000  0.2019 -0.2252 -0.3077
40041SOL    HW225961   4.944   0.397   1.877 -0.1198 -0.8375  0.1773
40042SOL     OW25962   1.245   7.112   8.303 -0.4188 -0.4244 -0.3140
40042SOL    HW125963   1.261   7.126   8.396  1.4930  1.4480 -0.8561
40042SOL    HW225964   1.150   7.108   8.295 -0.6224 -0.2421  1.6644
40043SOL     OW25965   4.458   4.180   6.383 -0.6065  0.5213  0.0806
40043SOL    HW125966   4.547   4.152   6.362 -0.0131  1.4612  1.2115
40043SOL    HW225967   4.443   4.147   6.471 -0.6321  1.9824  0.6534
40044SOL     OW25968   3.264   5.161   2.773  0.4895 -0.3780 -0.1152
40044SOL    HW125969   3.173   5.189   2.767  0.2332 -1.2701 -0.7275
40044SOL    HW225970   3.296   5.198   2.855 -0.4866 -0.2303  0.2122
40045SOL     OW25971   0.895  10.650   5.775 -0.2593 -0.5279  0.1556
40045SOL    HW125972   0.890  10.558   5.750 -0.8441 -0.8659  1.4461
40045SOL    HW225973   0.985  10.663   5.805 -0.0792 -0.5819 -0.3534
40046SOL     OW25974   6.202   5.111   6.275 -0.0784  0.1161 -0.1551
40046SOL    HW125975   6.235   5.063   6.351  1.2561  0.5581 -0.4284
40046SOL    HW225976   6.280   5.147   6.234 -0.5379 -1.4753 -2.6902
40047SOL     OW25977   5.920   1.035   5.374 -0.6918  0.5738  0.0205
40047SOL    HW125978   5.947   0.975   5.443 -1.7760 -0.2171 -0.2238
40047SOL    HW225979   5.832   1.007   5.350 -0.5578  1.1721 -1.2965
40048SOL     OW25980  11.783  11.262   9.555  0.0083  0.0480 -0.3801
40048SOL    HW125981  11.831  11.290   9.632  1.1891 -0.8804 -0.7511
40048SOL    HW225982  11.766  11.343   9.506  0.0687  0.5283  0.3773
40049SOL     OW25983   6.985   3.469   5.741 -0.5736  0.1999  0.5725
40049SOL    HW125984   6.907   3.474   5.796 -0.7010 -0.8651  0.5093
40049SOL    HW225985   7.058   3.482   5.801 -0.7364 -0.4185  0.9095
40050SOL     OW25986   4.291   9.864  11.319  0.1848  0.5144  0.4892
40050SOL    HW125987   4.218   9.805  11.298 -2.5397  3.2235  1.5669
40050SOL    HW225988   4.323   9.834  11.404  1.0149 -1.2550 -0.4005
40051SOL     OW25989   6.700  11.867   1.108 -0.3232 -0.5477  0.4119
40051SOL    HW125990   6.744  11.950   1.124  0.6912 -1.1491  0.8743
40051SOL    HW225991   6.628  11.889   1.049  2.2749  0.1410 -2.8693
40052SOL     OW25992  11.465   2.824   1.369 -0.5613 -0.0079  1.1956
40052SOL    HW125993  11.504   2.821   1.456  1.4487  0.4176  0.3520
40052SOL    HW225994  11.475   2.735   1.335  0.6681  0.3552  0.5771
40053SOL     OW25995   3.436   3.762   2.579  0.1434  0.1836  0.7331
40053SOL    HW125996   3.508   3.703   2.559 -1.7844 -1.7126 -0.9730
40053SOL    HW225997   3.432   3.822   2.504  0.3518  0.7425  1.1577
40054SOL     OW25998   6.932  10.574   1.977 -0.1603  0.5081  0.6940
40054SOL    HW125999   6.859  10.522   1.944 -0.0455  0.9954 -0.3914
40054SOL    HW226000   6.898  10.664   1.979 -0.0475  0.5365  1.5931
40055SOL     OW26001   4.367   9.681  12.022 -0.2574  0.0145 -0.2367
40055SOL    HW126002   4.301   9.741  12.058 -1.1474  0.3255 -2.2095
40055SOL    HW226003   4.319   9.601  12.003 -0.0053  0.1014 -1.3235
40056SOL     OW26004  10.817   5.944   3.760  0.2740 -0.0794 -0.5414
40056SOL    HW126005  10.803   5.910   3.672  0.1882 -0.0609 -0.5352
40056SOL    HW226006  10.912   5.939   3.773  0.3518  0.4987 -0.8639
40057SOL     OW26007   2.169  10.307   2.500  0.1317  0.1006 -0.1151
40057SOL    HW126008   2.263  10.320   2.495  0.1451 -0.4792 -1.9563
40057SOL    HW226009   2.151  10.295   2.594  1.6290  1.8677  0.4438
40058SOL     OW26010  11.850   8.537   5.981  0.0572 -1.0035 -0.5626
40058SOL    HW126011  11.781   8.586   6.027  0.0820 -0.9552 -0.5761
40058SOL    HW226012  11.870   8.592   5.904 -0.2208 -1.2444 -0.8097
40059SOL     OW26013   7.037   6.287   6.185 -0.2881  0.0438 -0.4261
40059SOL    HW126014   7.094   6.344   6.133  0.1825  1.4235  1.4870
40059SOL    HW226015   7.095   6.215   6.213  0.2332  0.7626  0.4292
40060SOL     OW26016   2.839  10.387   6.270  0.4245 -0.0098 -0.1631
40060SOL    HW126017   2.908  10.438   6.227  0.5267 -0.2111 -0.2439
40060SOL    HW226018   2.848  10.299   6.232  0.6601 -0.2516  0.4336
40061SOL     OW26019   3.686   2.175   7.464 -0.1362 -0.6208  0.7087
40061SOL    HW126020   3.718   2.192   7.375  0.5666  1.1589  1.2627
40061SOL    HW226021   3.764   2.180   7.519 -0.7269 -0.5794  1.5589
40062SOL     OW26022  11.827   0.364   8.752 -0.1456  0.3483 -0.3792
40062SOL    HW126023  11.760   0.394   8.814 -0.9338 -1.2931 -0.4049
40062SOL    HW226024  11.836   0.270   8.769  1.7243  0.4069 -0.8063
40063SOL     OW26025   0.448   1.498   2.886 -0.0493 -0.2416  0.1395
40063SOL    HW126026   0.355   1.482   2.902 -0.0039 -1.2150 -0.5242
40063SOL    HW226027   0.472   1.437   2.816  1.1022 -0.0272  0.3241
40064SOL     OW26028  11.925  10.158   6.548  0.3534 -0.6046  1.2138
40064SOL    HW126029  11.965  10.239   6.517  0.3257 -0.3972  1.7121
40064SOL    HW226030  11.994  10.114   6.597  0.5478 -1.1683  0.4465
40065SOL     OW26031  11.330  11.120   8.949 -1.1501 -0.0350 -0.1481
40065SOL    HW126032  11.346  11.026   8.940  0.0844 -0.7073  5.2764
40065SOL    HW226033  11.404  11.161   8.904 -1.0986 -1.6496 -1.6658
40066SOL     OW26034   3.185   3.408   0.874  0.3325 -0.4491 -0.8191
40066SOL    HW126035   3.265   3.443   0.836 -0.3597  1.1835 -0.8292
40066SOL    HW226036   3.198   3.416   0.969 -0.2304  0.8430 -0.8331
40067SOL     OW26037   3.737   9.485   0.629  0.4107 -0.0780  0.1361
40067SOL    HW126038   3.754   9.411   0.570  2.2307  0.4785 -0.0754
40067SOL    HW226039   3.795   9.471   0.703 -0.4060  0.3063  0.8592
40068SOL     OW26040   7.425   7.860   7.279 -0.0159  0.0661 -0.4692
40068SOL    HW126041   7.393   7.948   7.261 -0.1486 -0.1123 -1.1365
40068SOL    HW226042   7.488   7.843   7.210  0.8142  0.0442  0.2823
40069SOL     OW26043   1.025   4.073   3.505 -0.1104  0.3878  0.5020
40069SOL    HW126044   1.007   4.104   3.416 -1.4717 -1.3910  0.1017
40069SOL    HW226045   1.106   4.022   3.497 -0.0537  0.5008  0.3551
40070SOL     OW26046   5.276   3.603   2.286  0.0233 -0.4928 -0.3908
40070SOL    HW126047   5.327   3.531   2.324  0.1626  0.7308  1.8906
40070SOL    HW226048   5.186   3.584   2.313  0.2750  1.0107  1.7767
40071SOL     OW26049   2.539   3.932   5.975  0.6823 -0.1780 -0.0213
40071SOL    HW126050   2.468   3.869   5.984 -0.2696  1.1061  2.3387
40071SOL    HW226051   2.586   3.905   5.896 -2.5113 -1.0033 -1.8169
40072SOL     OW26052   6.573  11.557   0.074 -0.2421  0.0882 -0.4446
40072SOL    HW126053   6.479  11.572   0.064 -0.7468 -1.3582  1.5647
40072SOL    HW226054   6.603  11.536  -0.015 -2.4325 -2.3677 -0.7378
40073SOL     OW26055   7.257  11.007   2.878  0.1229 -0.0523  0.0464
40073SOL    HW126056   7.274  11.021   2.785 -2.6383  0.9103 -0.3984
40073SOL    HW226057   7.247  11.095   2.914  0.5105 -0.4443  1.1526
40074SOL     OW26058   3.138   9.049  11.889 -0.1306 -0.2521 -0.1535
40074SOL    HW126059   3.130   8.977  11.951 -0.3149  1.4041  1.8336
40074SOL    HW226060   3.063   9.106  11.907  1.4038  1.7872  0.2411
40075SOL     OW26061   4.249   3.510   4.780  0.2428 -0.6693  0.1273
40075SOL    HW126062   4.269   3.538   4.869  0.3463  0.8427 -0.3431
40075SOL    HW226063   4.240   3.592   4.730 -0.8891 -1.4465 -1.0211
40076SOL     OW26064   1.987   9.464   9.735  0.0482  0.4764 -0.4369
40076SOL    HW126065   2.045   9.535   9.761  3.3590 -1.1873 -2.5616
40076SOL    HW226066   2.046   9.394   9.707 -2.8877 -3.5558  2.2199
40077SOL     OW26067   3.823  10.575   5.735  0.1820  0.1862  0.2183
40077SOL    HW126068   3.848  10.504   5.795 -0.0983  0.8821  1.1897
40077SOL    HW226069   3.739  10.547   5.699 -0.5324  0.5487  1.5295
40078SOL     OW26070   8.034  10.947   0.126 -0.0300  0.0328 -0.4426
40078SOL    HW126071   7.969  10.922   0.192 -1.4740  1.9229 -1.0691
40078SOL    HW226072   8.001  10.911   0.044 -0.6553  1.5035 -0.8678
40079SOL     OW26073   1.538   2.868   6.724  0.9533 -0.3582  0.3542
40079SOL    HW126074   1.583   2.898   6.645 -0.3391 -0.4246 -0.4534
40079SOL    HW226075   1.488   2.792   6.695 -1.1696  0.8251  0.6885
40080SOL     OW26076   7.124   0.663   1.352 -0.0815  0.0052  0.3978
40080SOL    HW126077   7.075   0.589   1.388  0.7428 -1.3571 -1.1261
40080SOL    HW226078   7.074   0.740   1.378 -1.0215 -1.0795  1.9766
40081SOL     OW26079  10.007   7.954  11.670 -0.2495  0.4831  0.0493
40081SOL    HW126080  10.006   7.861  11.648 -0.1359  0.4126  0.3268
40081SOL    HW226081   9.980   7.999  11.590  2.8400  0.4308 -1.1533
40082SOL     OW26082   4.210   3.441  10.348 -0.2989 -0.1563 -0.0605
40082SOL    HW126083   4.142   3.424  10.282  0.6110  0.3842 -1.1787
40082SOL    HW226084   4.286   3.468  10.297  0.1173  1.3623  1.2872
40083SOL     OW26085   8.537   4.096   6.036 -0.8800 -0.4877 -0.1013
40083SOL    HW126086   8.598   4.032   5.998 -0.1432  0.2117 -0.1065
40083SOL    HW226087   8.503   4.052   6.115  2.3813  0.4173  2.0180
40084SOL     OW26088  11.223  11.598   3.052  0.4677  0.1325 -1.0616
40084SOL    HW126089  11.216  11.516   3.004 -0.1063 -0.2074 -0.4036
40084SOL    HW226090  11.134  11.619   3.077  0.9418 -0.8668  1.7993
40085SOL     OW26091   5.045  10.045  11.766  0.1459 -0.1725  0.6293
40085SOL    HW126092   4.973   9.982  11.777 -0.2292  0.3146  1.0118
40085SOL    HW226093   5.124   9.995  11.788 -0.0522 -0.7536  0.0677
40086SOL     OW26094   4.208   7.653   1.463  0.1947  0.4732 -0.9243
40086SOL    HW126095   4.282   7.658   1.402 -0.4579  0.6607 -1.7272
40086SOL    HW226096   4.169   7.741   1.460  1.8643  1.4676  2.0310
40087SOL     OW26097   1.378   2.677   9.838 -0.2216 -0.4158  0.1208
40087SOL    HW126098   1.402   2.652   9.749 -1.2471  0.0030 -0.2922
40087SOL    HW226099   1.291   2.717   9.829  0.4598  1.3488  1.0561
40088SOL     OW26100  10.739   0.436  10.548 -0.2033 -0.2938  0.2703
40088SOL    HW126101  10.801   0.490  10.597 -1.9354 -0.1372  2.4134
40088SOL    HW226102  10.673   0.410  10.612 -2.0923 -0.9017 -1.7801
40089SOL     OW26103  11.742   0.060   7.819  0.5678  0.0773  0.2726
40089SOL    HW126104  11.761  -0.026   7.857  1.0501  0.1839  0.2813
40089SOL    HW226105  11.671   0.095   7.874 -1.2093 -1.2187 -1.0644
40090SOL     OW26106   6.264   1.853   2.032  0.3109 -0.1408  0.1283
40090SOL    HW126107   6.168   1.855   2.042  0.3904  1.7613  1.1190
40090SOL    HW226108   6.297   1.835   2.120  0.8695 -0.1294 -0.0742
40091SOL     OW26109   0.188   0.063   5.610  0.0126 -1.0040 -0.1709
40091SOL    HW126110   0.276   0.100   5.599 -1.0949  1.4689 -1.7925
40091SOL    HW226111   0.191   0.018   5.695  2.5059  0.0170  0.3734
40092SOL     OW26112   3.129  10.780   6.835  0.0512 -0.0273  0.1078
40092SOL    HW126113   3.035  10.789   6.819 -0.1824 -0.6030  1.0564
40092SOL    HW226114   3.135  10.757   6.928  1.2625  2.0867  0.6181
40093SOL     OW26115   5.830  10.457   1.383 -0.4820 -0.5638 -0.1723
40093SOL    HW126116   5.803  10.480   1.472 -0.9932 -0.1668 -0.4243
40093SOL    HW226117   5.753  10.414   1.344  0.0128 -1.5029 -0.1548
40094SOL     OW26118   4.378   4.723  10.287 -0.2650  0.3901  0.7767
40094SOL    HW126119   4.461   4.687  10.257 -0.7565  0.5714 -0.8916
40094SOL    HW226120   4.323   4.646  10.303 -0.1293  0.3030  0.8221
40095SOL     OW26121   0.210   8.195   4.062 -0.2717  0.3515  0.0364
40095SOL    HW126122   0.154   8.198   4.139  1.1670 -2.7341  1.3386
40095SOL    HW226123   0.161   8.144   3.998  0.0987 -0.4279  0.3621
40096SOL     OW26124   6.518   9.922   1.065  0.1376 -0.7277  0.2536
40096SOL    HW126125   6.503   9.982   1.139  0.9974 -0.8791  0.5606
40096SOL    HW226126   6.512   9.835   1.104  2.1230 -0.7959  0.4789
40097SOL     OW26127   5.501   5.634   6.590  0.6757  0.0117 -0.3084
40097SOL    HW126128   5.444   5.662   6.662 -1.1186  1.8219 -2.2654
40097SOL    HW226129   5.588   5.630   6.628 -0.1870  1.0285  1.9314
40098SOL     OW26130   1.964  10.320   5.041 -0.1857  0.0150 -0.1145
40098SOL    HW126131   1.882  10.313   5.090  0.8241  1.2772  1.8917
40098SOL    HW226132   2.015  10.244   5.070  0.1980  0.4538  0.3717
40099SOL     OW26133   1.332   2.288   0.496  0.1151 -0.3020  0.3570
40099SOL    HW126134   1.314   2.240   0.414 -1.1506  0.6157  0.0726
40099SOL    HW226135   1.312   2.379   0.475 -0.4536 -0.0894  1.7633
40100SOL     OW26136  11.955   6.681   3.594  0.3851  0.1450 -0.1504
40100SOL    HW126137  11.928   6.663   3.684  0.6997  0.5117  0.0204
40100SOL    HW226138  12.021   6.614   3.574 -0.1239 -0.3071 -0.3184
40101SOL     OW26139   1.175   9.571   5.686 -0.2179  0.0667 -0.1477
40101SOL    HW126140   1.255   9.618   5.709  0.0867 -1.3137  1.8905
40101SOL    HW226141   1.116   9.639   5.652  1.2261  1.3829 -0.1303
40102SOL     OW26142   1.375   7.156   8.847  0.4824  0.3630 -0.0814
40102SOL    HW126143   1.343   7.074   8.884 -2.0880  1.6255  0.6912
40102SOL    HW226144   1.468   7.157   8.869  0.0539 -1.1869  2.1172
40103SOL     OW26145   6.860   8.281   6.613 -0.1787  0.4206 -0.0138
40103SOL    HW126146   6.852   8.248   6.523  0.1134  1.6033 -0.4914
40103SOL    HW226147   6.859   8.376   6.603  2.2822  0.6023  1.0021
40104SOL     OW26148  10.243   0.351   5.436 -0.1210  1.1001 -0.1670
40104SOL    HW126149  10.171   0.288   5.443 -0.0514  1.1734  2.3972
40104SOL    HW226150  10.322   0.297   5.434 -0.1482  1.0420  0.1380
40105SOL     OW26151   1.103   6.212   8.206 -0.2159  0.1839 -0.0068
40105SOL    HW126152   1.074   6.125   8.179 -1.2791  0.8303 -1.0889
40105SOL    HW226153   1.145   6.249   8.128 -0.2334  0.8163  0.2768
40106SOL     OW26154   4.704   0.945   8.548 -0.0482 -0.1580 -0.1040
40106SOL    HW126155   4.758   1.001   8.493  2.6842 -1.6254  0.8873
40106SOL    HW226156   4.726   0.971   8.638 -1.6411 -0.2859  0.3638
40107SOL     OW26157   0.740   0.768   4.056 -0.0728  0.2553 -0.2271
40107SOL    HW126158   0.685   0.712   4.111 -1.6241  0.9555 -1.0122
40107SOL    HW226159   0.692   0.776   3.974  1.1541  1.0054 -0.9066
40108SOL     OW26160   2.560   3.944   1.099  0.5486 -0.6551  0.4101
40108SOL    HW126161   2.471   3.910   1.102  0.2056  0.0957 -0.6715
40108SOL    HW226162   2.576   3.976   1.188  0.0990 -1.6443  0.8666
40109SOL     OW26163   8.052   1.617   1.482  0.6400 -0.3289 -0.2788
40109SOL    HW126164   8.054   1.670   1.562  0.6231 -0.7913  0.0288
40109SOL    HW226165   7.959   1.607   1.461  0.6256 -0.6350 -0.0712
40110SOL     OW26166   3.177   9.291   4.844  0.8963 -0.0948 -0.6052
40110SOL    HW126167   3.141   9.212   4.803 -0.1290 -0.0593  0.2010
40110SOL    HW226168   3.237   9.327   4.778  3.0019 -2.6406 -0.2587
40111SOL     OW26169   1.421   0.885  11.048  0.1311  0.1399 -0.8147
40111SOL    HW126170   1.507   0.923  11.027  2.5818 -2.5487  3.1215
40111SOL    HW226171   1.434   0.791  11.037 -1.8778 -0.4356  1.2006
40112SOL     OW26172   0.853   1.013  11.692  0.1550 -0.3895  0.7245
40112SOL    HW126173   0.920   1.077  11.666 -0.2127 -0.7249 -1.2169
40112SOL    HW226174   0.841   0.959  11.614 -0.6780 -1.8508  1.8241
40113SOL     OW26175   5.019   3.712   2.562  0.0102  0.1450  0.1648
40113SOL    HW126176   5.008   3.744   2.651  0.0420 -1.7377  0.8908
40113SOL    HW226177   5.074   3.633   2.571 -0.6464 -0.5350 -1.3996
40114SOL     OW26178   5.673   0.755  10.394  0.2688 -0.3642  0.2191
40114SOL    HW126179   5.584   0.745  10.428  0.5949 -2.3085  0.6078
40114SOL    HW226180   5.661   0.770  10.300 -0.4643 -1.0182  0.2043
40115SOL     OW26181   8.761   6.978  12.299 -0.0091 -0.2136 -0.3216
40115SOL    HW126182   8.719   6.893  12.312  1.7111 -0.9164  0.9729
40115SOL    HW226183   8.734   7.030  12.374 -0.9283  0.3732 -1.0304
40116SOL     OW26184   0.744   5.332   8.006 -0.1860 -0.0781 -0.3211
40116SOL    HW126185   0.831   5.336   8.046 -0.5705 -0.7349  0.6142
40116SOL    HW226186   0.686   5.303   8.077 -0.9363 -1.0182 -1.2780
40117SOL     OW26187   3.530   1.171   5.840 -0.0521  0.2389 -0.2470
40117SOL    HW126188   3.529   1.170   5.744 -0.4587  0.3585 -0.2452
40117SOL    HW226189   3.602   1.113   5.864  0.6190  0.9151 -0.6347
40118SOL     OW26190   7.528   1.135   7.016 -0.2372 -0.3981 -0.4680
40118SOL    HW126191   7.513   1.064   7.079  0.7334  0.2815  0.5445
40118SOL    HW226192   7.529   1.214   7.069 -0.8980  0.3528 -1.5436
40119SOL     OW26193   7.884   2.825   6.643  0.2304 -0.3263  0.1826
40119SOL    HW126194   7.883   2.798   6.734 -0.2863  0.4442  0.4144
40119SOL    HW226195   7.936   2.905   6.642 -1.3300  0.7230  0.1298
40120SOL     OW26196   1.965   7.631   3.997 -0.1462 -0.3613 -0.7892
40120SOL    HW126197   1.961   7.536   3.988  1.2098 -0.6477  1.0345
40120SOL    HW226198   1.926   7.648   4.083  0.5857  0.6179 -0.6380
40121SOL     OW26199   0.144   8.426  10.959  0.2901 -0.5657 -0.4649
40121SOL    HW126200   0.061   8.443  10.913  0.3923 -1.1856 -0.8856
40121SOL    HW226201   0.185   8.512  10.966 -0.4933 -0.2102 -0.0451
40122SOL     OW26202  10.667   9.348   8.791  0.2126  0.5537  0.6021
40122SOL    HW126203  10.753   9.330   8.829 -0.1063 -0.6006  0.8018
40122SOL    HW226204  10.641   9.267   8.748 -0.7814  0.8785  0.5489
40123SOL     OW26205   6.384   9.901   7.914 -0.1822 -0.1632  0.2991
40123SOL    HW126206   6.301   9.871   7.877 -0.3076 -1.1447  1.3250
40123SOL    HW226207   6.451   9.861   7.858 -0.3846 -0.1446  0.0400
40124SOL     OW26208   3.733   4.376   2.471 -0.1642  0.2347 -0.4362
40124SOL    HW126209   3.687   4.366   2.555  2.6961  0.7382  1.3263
40124SOL    HW226210   3.782   4.294   2.461 -1.1334 -0.1975 -2.1533
40125SOL     OW26211   0.071  10.891  10.852  0.3216 -0.2483  0.0809
40125SOL    HW126212   0.007  10.922  10.789  1.0349 -1.4551 -1.2960
40125SOL    HW226213   0.124  10.827  10.804  0.0959 -2.2017  2.2251
40126SOL     OW26214   9.451   7.831   2.547  0.3767  0.0696 -0.4676
40126SOL    HW126215   9.433   7.795   2.634 -0.7282 -0.3474 -0.8488
40126SOL    HW226216   9.532   7.788   2.520  2.0352  1.9239  1.2610
40127SOL     OW26217   9.879   2.296  11.860  0.4001 -0.2782  0.0936
40127SOL    HW126218   9.883   2.371  11.919  0.9789 -0.6301  0.5170
40127SOL    HW226219   9.864   2.221  11.919  3.8004 -1.0560  0.2064
40128SOL     OW26220  10.070  11.282  10.409  0.0227 -0.0160 -0.3769
40128SOL    HW126221  10.095  11.292  10.317  0.5339  1.0915 -0.1351
40128SOL    HW226222   9.975  11.268  10.406  0.1822 -1.0851 -1.1204
40129SOL     OW26223  12.078   3.386   7.762  0.0281 -0.2019  0.5313
40129SOL    HW126224  12.010   3.451   7.746 -0.8484 -1.1044  0.4993
40129SOL    HW226225  12.073   3.327   7.687  0.5500 -0.5405  0.7563
40130SOL     OW26226  10.239   8.520   6.685  0.2644  0.3946 -0.2160
40130SOL    HW126227  10.167   8.529   6.748 -0.4156 -0.0050 -0.9181
40130SOL    HW226228  10.211   8.449   6.627  2.0955 -1.1148  0.6455
40131SOL     OW26229  10.349   3.841   2.411  0.1445  0.3322  0.1788
40131SOL    HW126230  10.429   3.799   2.442  1.2593  0.5157 -2.1878
40131SOL    HW226231  10.300   3.770   2.368 -1.2067  0.1363  1.9364
40132SOL     OW26232  11.646   3.635   9.539  0.8936  0.3579  0.0709
40132SOL    HW126233  11.680   3.581   9.467 -1.5608 -1.3082  0.0363
40132SOL    HW226234  11.695   3.606   9.616  0.1849 -1.4040 -0.1021
40133SOL     OW26235   5.011  10.090   0.776  0.6201 -0.5827  0.9320
40133SOL    HW126236   5.006  10.182   0.800 -0.7010  0.1401 -1.6420
40133SOL    HW226237   5.087  10.084   0.718 -0.7380 -0.4579 -0.9779
40134SOL     OW26238   3.087   3.354   0.428 -0.1632 -0.7935  0.7355
40134SOL    HW126239   3.089   3.448   0.444 -2.0215 -0.5574 -0.2337
40134SOL    HW226240   3.176   3.325   0.448  0.6827  1.2894  0.2511
40135SOL     OW26241   5.639   2.679   0.227 -0.0362 -0.0260  0.0225
40135SOL    HW126242   5.618   2.611   0.292  0.9930  0.7122  1.1478
40135SOL    HW226243   5.722   2.651   0.190 -0.1522  0.0554 -0.2969
40136SOL     OW26244   2.861   3.126   7.465 -0.0230  0.2997 -0.2592
40136SOL    HW126245   2.945   3.115   7.508 -0.7984  0.2734  1.3495
40136SOL    HW226246   2.870   3.082   7.381  1.4431 -0.0281  0.0545
40137SOL     OW26247   9.640   3.482   0.028  0.3103 -0.5214  0.5193
40137SOL    HW126248   9.676   3.563  -0.010  0.8419 -0.7640  0.4927
40137SOL    HW226249   9.577   3.451  -0.037 -0.1033  0.0231  0.6573
40138SOL     OW26250   1.559   8.881   4.295  0.2430 -0.3134 -0.1391
40138SOL    HW126251   1.584   8.794   4.325  0.4251  0.0012  0.6288
40138SOL    HW226252   1.494   8.864   4.226 -1.8080 -1.0454  1.8338
40139SOL     OW26253   8.818   1.177   0.408  0.2547 -0.0263  0.1689
40139SOL    HW126254   8.822   1.087   0.375 -2.4584  0.2393 -1.1946
40139SOL    HW226255   8.823   1.168   0.503 -0.1407 -1.6734  0.0606
40140SOL     OW26256   9.227   6.297   2.037  0.1984  0.1075  0.9802
40140SOL    HW126257   9.236   6.367   2.101 -0.0220 -0.3602  1.5409
40140SOL    HW226258   9.142   6.257   2.058 -0.5990  0.9124 -0.5953
40141SOL     OW26259  12.152   1.510   3.376 -0.0920 -0.9666 -0.1874
40141SOL    HW126260  12.118   1.427   3.409  0.6572 -1.8648 -1.5210
40141SOL    HW226261  12.233   1.485   3.331  0.2298  0.5223 -0.4735
40142SOL     OW26262   3.901   9.212  12.223  0.0632  0.3836 -0.1434
40142SOL    HW126263   3.891   9.219  12.318  1.7137  0.3192  0.0559
40142SOL    HW226264   3.830   9.153  12.196 -2.0462  2.4128  0.6710
40143SOL     OW26265   4.259   2.302   6.613 -0.2965 -0.7984 -0.2346
40143SOL    HW126266   4.289   2.239   6.548 -1.3380  0.8142 -2.3916
40143SOL    HW226267   4.175   2.267   6.642  0.4052 -1.7889  0.7074
40144SOL     OW26268   0.464   1.131   2.318 -0.0967  0.4586 -0.0982
40144SOL    HW126269   0.472   1.128   2.223 -1.7849  0.4315 -0.2566
40144SOL    HW226270   0.390   1.189   2.335 -1.8948 -1.9992  1.0434
40145SOL     OW26271  11.863  10.610   6.275 -0.4640 -0.2590  0.1416
40145SOL    HW126272  11.813  10.580   6.351  0.0205  1.0313  1.0119
40145SOL    HW226273  11.820  10.569   6.200 -2.9168  0.8406  0.8291
40146SOL     OW26274   4.639   6.635   2.919 -0.0830  0.4391  0.0925
40146SOL    HW126275   4.699   6.619   2.992 -0.3860  2.4934  0.8659
40146SOL    HW226276   4.607   6.724   2.934 -2.4423 -0.1755 -0.9419
40147SOL     OW26277   4.633   3.916   1.478 -0.5811 -0.0171  0.3322
40147SOL    HW126278   4.572   3.853   1.517 -2.2332  1.3514  0.0467
40147SOL    HW226279   4.612   3.915   1.385 -0.4836  0.7952  0.2953
40148SOL     OW26280   6.908   9.898  11.091 -0.2280 -0.8078 -0.0655
40148SOL    HW126281   6.941   9.905  11.002 -0.9074 -1.4377 -0.3672
40148SOL    HW226282   6.856   9.978  11.104 -1.2148 -1.3312 -0.6944
40149SOL     OW26283   8.461   9.551  10.409  0.3958 -0.5319 -0.4945
40149SOL    HW126284   8.492   9.544  10.319  2.9676 -0.9500  0.3368
40149SOL    HW226285   8.496   9.634  10.440  0.4913 -0.9028  0.4302
40150SOL     OW26286   5.594   7.908   5.529 -0.3125  0.2858  0.2361
40150SOL    HW126287   5.556   7.866   5.452 -1.0754  0.7383  0.3533
40150SOL    HW226288   5.648   7.840   5.570 -0.0799 -0.0254 -0.5684
40151SOL     OW26289   0.370   1.902   4.344  0.1937  0.1250 -0.5344
40151SOL    HW126290   0.399   1.897   4.435  0.9401  0.4246 -0.7453
40151SOL    HW226291   0.425   1.970   4.305  0.8604 -0.9592 -1.5596
40152SOL     OW26292   2.236   2.904  12.273  0.6002  0.1850 -0.3528
40152SOL    HW126293   2.261   2.989  12.238  0.2677  0.1017 -0.8049
40152SOL    HW226294   2.281   2.898  12.358 -1.3339  1.8821  0.8840
40153SOL     OW26295   6.471   6.619   7.693 -0.2234 -0.4709 -0.3256
40153SOL    HW126296   6.402   6.629   7.758 -0.4805  2.0078 -0.8814
40153SOL    HW226297   6.423   6.604   7.611 -0.0403 -0.2981 -0.4635
40154SOL     OW26298   2.407  11.418   8.781  0.3710 -0.2633 -0.2128
40154SOL    HW126299   2.412  11.344   8.843 -1.2544 -0.7399 -0.6161
40154SOL    HW226300   2.436  11.493   8.833 -1.3078 -0.5779  1.2996
40155SOL     OW26301   0.225   9.387   2.792 -0.6556 -0.1471  0.1792
40155SOL    HW126302   0.146   9.351   2.832 -0.9728 -3.0851 -2.7147
40155SOL    HW226303   0.270   9.432   2.864 -3.6737 -0.5370  2.4833
40156SOL     OW26304   5.678   5.490  12.330  0.2204  0.7234 -0.0992
40156SOL    HW126305   5.612   5.422  12.341  0.2890  0.5995 -0.4306
40156SOL    HW226306   5.714   5.503  12.417  0.2146  0.3275 -0.0342
40157SOL     OW26307   4.499   2.554   3.015 -0.5295  0.3873  0.1757
40157SOL    HW126308   4.490   2.648   3.030 -2.6415  0.2571 -0.0862
40157SOL    HW226309   4.593   2.537   3.026  0.0395  2.6733 -0.6929
40158SOL     OW26310   7.714  11.315   6.326  0.0267  0.4904 -0.3082
40158SOL    HW126311   7.669  11.256   6.387  0.9664  0.8100  0.7358
40158SOL    HW226312   7.764  11.257   6.269  1.3193  0.2500  1.0115
40159SOL     OW26313  10.417   2.922  10.631  0.1489  0.5045 -0.1897
40159SOL    HW126314  10.455   2.992  10.578  0.7131  0.7443  0.5018
40159SOL    HW226315  10.476   2.848  10.618 -0.1551  0.3197 -0.5125
40160SOL     OW26316   0.016   6.399  12.263 -0.1950 -0.6077  0.1908
40160SOL    HW126317   0.058   6.328  12.310 -0.3051 -1.1216 -0.4703
40160SOL    HW226318   0.087   6.459  12.241 -0.0296 -0.7524  0.3322
40161SOL     OW26319  10.241   5.476  11.548 -0.0394 -0.8439 -0.0991
40161SOL    HW126320  10.192   5.445  11.472 -1.0043  0.2947  0.0377
40161SOL    HW226321  10.309   5.534  11.512  0.0499 -0.9782 -0.1483
40162SOL     OW26322   1.511   6.505   4.632  0.0243  0.1789 -1.0654
40162SOL    HW126323   1.485   6.482   4.543 -0.3311 -0.2395 -0.8594
40162SOL    HW226324   1.607   6.504   4.630  0.0178  0.7046 -1.5753
40163SOL     OW26325   6.075   0.035   1.632 -0.2509 -0.2911 -0.8633
40163SOL    HW126326   6.115   0.091   1.698  2.0385 -0.7073 -1.8167
40163SOL    HW226327   6.001   0.086   1.599 -1.5120 -0.0922  1.9758
40164SOL     OW26328  10.058   6.940   0.866 -0.4806 -0.6016  0.6130
40164SOL    HW126329   9.966   6.965   0.854  0.1410  1.2490 -0.9407
40164SOL    HW226330  10.084   6.905   0.780  0.3434 -0.8158  0.9441
40165SOL     OW26331   5.078   7.060   7.285  0.5150 -0.4055 -0.0273
40165SOL    HW126332   5.157   7.042   7.336  0.3507 -0.2956  0.2719
40165SOL    HW226333   5.030   6.978   7.284  0.9443 -0.6557 -0.7720
40166SOL     OW26334  10.698   1.876  12.103  0.3173 -0.3659 -0.1039
40166SOL    HW126335  10.685   1.881  12.008  0.5851  0.6200 -0.0980
40166SOL    HW226336  10.649   1.798  12.129  1.0116 -1.1977 -1.1732
40167SOL     OW26337   9.751   4.940  11.440  0.3547 -0.6220  0.4395
40167SOL    HW126338   9.833   4.893  11.456  1.5517  1.3966  0.5863
40167SOL    HW226339   9.768   5.029  11.472 -1.8069 -0.0697  0.2022
40168SOL     OW26340   8.631  11.646   7.866 -0.6553 -1.0732 -0.0924
40168SOL    HW126341   8.690  11.625   7.794 -1.1971 -1.1302 -0.5300
40168SOL    HW226342   8.665  11.727   7.903  0.4916 -1.8114  0.5447
40169SOL     OW26343   9.161  11.976   1.947  1.0445 -0.3893 -0.0920
40169SOL    HW126344   9.139  11.883   1.949 -0.2365 -0.0972  1.8927
40169SOL    HW226345   9.111  12.015   2.019  0.7201  2.0275 -1.4844
40170SOL     OW26346   3.882   3.505   5.173  0.2988  0.0844 -0.3569
40170SOL    HW126347   3.908   3.486   5.083  1.4513  0.5966 -0.1569
40170SOL    HW226348   3.964   3.500   5.223 -0.2107  0.4702  0.5539
40171SOL     OW26349   1.827   3.861   0.097 -0.1807  0.4674 -0.1134
40171SOL    HW126350   1.896   3.809   0.055 -0.2806 -0.4927  0.8762
40171SOL    HW226351   1.855   3.869   0.188 -0.7059  1.2372 -0.0164
40172SOL     OW26352   5.321  11.936   3.515 -0.4319 -0.4190 -0.4171
40172SOL    HW126353   5.342  11.953   3.607 -1.4303 -0.5665 -0.1484
40172SOL    HW226354   5.249  11.873   3.518 -1.7314  0.9642 -1.2472
40173SOL     OW26355  12.112   8.362   4.265  0.1779 -0.1809  0.4315
40173SOL    HW126356  12.037   8.390   4.213 -0.1305 -1.8918 -0.0899
40173SOL    HW226357  12.099   8.268   4.278  1.8194 -0.3621  1.0057
40174SOL     OW26358   1.123  10.168   5.575  0.3200  0.0244  0.2870
40174SOL    HW126359   1.197  10.109   5.587 -0.0857 -0.4217  0.6701
40174SOL    HW226360   1.120  10.219   5.656  0.9034  0.8536 -0.1986
40175SOL     OW26361  11.088   5.678   6.949  0.1076  0.1901  0.1825
40175SOL    HW126362  11.162   5.654   7.004  0.4799  1.6549  0.3672
40175SOL    HW226363  11.030   5.727   7.008 -1.4059 -1.5887  0.2435
40176SOL     OW26364   8.384  10.456   5.829 -0.5009  0.2058  0.3133
40176SOL    HW126365   8.449  10.518   5.797 -1.2695  0.1983 -1.3758
40176SOL    HW226366   8.405  10.446   5.922  0.6354  1.7476  0.2791
40177SOL     OW26367   6.326  11.430   6.460 -0.1477  0.1483  0.7256
40177SOL    HW126368   6.406  11.392   6.495  0.5716  0.2765 -0.7328
40177SOL    HW226369   6.289  11.362   6.404  0.5729  1.1294 -1.0251
40178SOL     OW26370  10.559  12.045  10.104 -0.3853  0.0181  0.0201
40178SOL    HW126371  10.535  11.976  10.043 -2.8205 -0.1825  1.0716
40178SOL    HW226372  10.555  12.003  10.190 -0.2800  1.0744  0.5572
40179SOL     OW26373   8.197   9.631   4.735 -0.0242  0.1270 -0.3017
40179SOL    HW126374   8.215   9.595   4.648  1.5205  1.0336 -0.3898
40179SOL    HW226375   8.127   9.694   4.721 -0.5988 -0.5712 -0.6666
40180SOL     OW26376   9.877  10.887   8.272  0.1508 -0.1449  0.3588
40180SOL    HW126377   9.862  10.792   8.273  2.4717 -0.5845 -0.3167
40180SOL    HW226378   9.792  10.925   8.294 -1.5207 -2.2938 -1.8456
40181SOL     OW26379  10.456   6.524  10.499 -0.2473 -0.0425 -0.7907
40181SOL    HW126380  10.496   6.602  10.537 -0.5734 -0.5535  0.6797
40181SOL    HW226381  10.363   6.532  10.520 -0.4323 -0.3722 -1.4541
40182SOL     OW26382   9.932   0.572   4.200  0.5468  0.2800  0.4270
40182SOL    HW126383   9.842   0.586   4.232  1.0179  0.7665  1.5809
40182SOL    HW226384   9.949   0.480   4.219  0.7243  0.4961  1.3545
40183SOL     OW26385   0.267   3.573   6.709 -0.1877 -0.2937  0.3430
40183SOL    HW126386   0.307   3.638   6.767  2.4574 -2.3112  1.0116
40183SOL    HW226387   0.325   3.570   6.633 -0.8549 -1.0839 -0.1403
40184SOL     OW26388   4.299   3.815   6.796  0.2804 -0.1442  0.3807
40184SOL    HW126389   4.210   3.848   6.786  0.5855  0.4211 -0.6308
40184SOL    HW226390   4.354   3.880   6.752  1.4408  0.5973  2.7412
40185SOL     OW26391   2.612   8.640   5.441  0.0823 -0.4643 -0.3047
40185SOL    HW126392   2.541   8.587   5.477  1.5618 -1.3975  1.3856
40185SOL    HW226393   2.590   8.650   5.348 -1.4546 -2.0142 -0.1551
40186SOL     OW26394   4.249   4.530  12.249  0.7301  0.4298 -0.1491
40186SOL    HW126395   4.290   4.466  12.191 -2.4145 -0.8763 -1.1899
40186SOL    HW226396   4.263   4.614  12.207  1.9877  0.0153 -0.5968
40187SOL     OW26397  11.455   7.283  12.218  0.1313  0.4200  0.6184
40187SOL    HW126398  11.396   7.242  12.281  1.7428 -1.1980  1.1451
40187SOL    HW226399  11.530   7.311  12.270  0.2441  1.6237 -0.1710
40188SOL     OW26400   9.645   7.583   5.146 -0.2357 -0.2224 -0.0744
40188SOL    HW126401   9.587   7.576   5.070  0.0297  1.5247 -0.4677
40188SOL    HW226402   9.698   7.661   5.129 -0.3582  0.3695  2.0292
40189SOL     OW26403   7.343  10.559  11.247  0.3861  0.1883 -0.2185
40189SOL    HW126404   7.360  10.652  11.257  0.6953  0.4459 -2.5173
40189SOL    HW226405   7.297  10.552  11.164 -0.8946 -1.5997  0.5813
40190SOL     OW26406   8.165   1.657  12.326  0.9924  0.1249 -0.0813
40190SOL    HW126407   8.230   1.711  12.281  1.2625  0.4442  0.6702
40190SOL    HW226408   8.089   1.713  12.336  0.0693 -0.6681 -2.1545
40191SOL     OW26409   6.547   0.683   1.597  0.0896  0.2474  0.2422
40191SOL    HW126410   6.565   0.683   1.691  1.7094  0.7766 -0.0295
40191SOL    HW226411   6.605   0.751   1.561  0.5347 -0.8734 -1.2925
40192SOL     OW26412   0.650   1.412   0.133 -0.4056 -0.6208  0.3353
40192SOL    HW126413   0.740   1.384   0.155 -0.3142  0.4022  1.3544
40192SOL    HW226414   0.623   1.465   0.208 -1.7394 -0.6095 -0.1346
40193SOL     OW26415   0.896   0.719  11.537  0.1566  0.6713  0.1195
40193SOL    HW126416   0.859   0.637  11.568 -1.0096  0.4156 -1.7775
40193SOL    HW226417   0.987   0.699  11.516 -0.1284 -0.1726 -0.3707
40194SOL     OW26418   5.900   5.677  11.525 -0.3307 -0.2256  0.4022
40194SOL    HW126419   5.815   5.640  11.503 -1.0852  1.0698  1.0335
40194SOL    HW226420   5.951   5.673  11.444 -1.1635 -0.5470 -0.1095
40195SOL     OW26421  12.245  10.624   8.737  0.9874  0.2543  0.0524
40195SOL    HW126422  12.294  10.660   8.663  1.1929  0.6642  0.3837
40195SOL    HW226423  12.269  10.531   8.740  0.3928  0.0598 -0.8579
40196SOL     OW26424  11.362   5.258  10.449  0.3487 -0.5512  0.2243
40196SOL    HW126425  11.449   5.247  10.485  0.2241  1.1374  1.1205
40196SOL    HW226426  11.305   5.267  10.525 -0.2200  0.9643 -0.3419
40197SOL     OW26427   2.485  10.968   1.692 -0.1036  0.2509 -0.4915
40197SOL    HW126428   2.545  11.039   1.670  1.3189 -0.8205 -0.2360
40197SOL    HW226429   2.505  10.899   1.628 -0.5116 -0.4349  0.1059
40198SOL     OW26430   4.766   8.144   1.392  0.2072 -0.1415 -0.4930
40198SOL    HW126431   4.713   8.154   1.313  0.7292 -1.1311 -0.9919
40198SOL    HW226432   4.855   8.133   1.359  0.4713 -0.2339  0.2496
40199SOL     OW26433   7.121  10.428   3.134  0.1811 -0.4046 -0.6616
40199SOL    HW126434   7.130  10.442   3.228 -0.0678  1.2339 -0.8603
40199SOL    HW226435   7.211  10.418   3.103  0.3259 -0.0289 -0.3773
40200SOL     OW26436   3.386  10.902   4.845 -0.3879  0.2977 -0.2096
40200SOL    HW126437   3.336  10.823   4.864  1.0389 -1.0198 -1.6315
40200SOL    HW226438   3.474  10.883   4.878  1.1126 -0.4967 -4.1851
40201SOL     OW26439   7.093   4.080   0.611 -0.0029  0.4416 -0.1843
40201SOL    HW126440   7.180   4.058   0.576  0.8699  3.7953 -0.4692
40201SOL    HW226441   7.044   4.112   0.535 -0.7716  0.5877  0.3607
40202SOL     OW26442  10.847   1.971   2.981 -0.1272  0.6041 -0.2374
40202SOL    HW126443  10.907   2.045   2.967  1.6536 -0.4032  1.5391
40202SOL    HW226444  10.891   1.897   2.939 -1.0676  0.2036 -0.5320
40203SOL     OW26445   2.092  12.037   4.428  0.0549 -0.2419 -0.1131
40203SOL    HW126446   2.183  12.037   4.399 -0.2981 -0.5545 -1.2497
40203SOL    HW226447   2.085  11.959   4.483  0.4059 -0.3700 -0.2471
40204SOL     OW26448   8.721   1.734  10.951  0.0893 -0.0455  0.1993
40204SOL    HW126449   8.696   1.822  10.921 -0.1042 -0.2073 -0.1193
40204SOL    HW226450   8.773   1.698  10.879  0.8813  0.1216  0.6733
40205SOL     OW26451  12.187  10.535   3.350 -0.2689  0.0830  0.0912
40205SOL    HW126452  12.238  10.454   3.348  1.8610  1.2821  1.2116
40205SOL    HW226453  12.221  10.582   3.427  0.7702  3.3055 -2.1189
40206SOL     OW26454   9.603   1.488   8.662  0.5683 -0.2502  0.4473
40206SOL    HW126455   9.670   1.476   8.595  1.3079  1.9417  0.6908
40206SOL    HW226456   9.541   1.550   8.623  0.0593 -0.3019  1.1475
40207SOL     OW26457   7.414   7.703   0.331 -0.1588 -0.0536 -0.3028
40207SOL    HW126458   7.407   7.739   0.242  2.8500 -0.2936 -0.7354
40207SOL    HW226459   7.430   7.610   0.317  1.8266  0.1446  0.3656
40208SOL     OW26460  11.057   0.841  12.256 -0.2637 -0.5676 -0.5744
40208SOL    HW126461  11.098   0.773  12.203  0.0048 -0.9116  0.0669
40208SOL    HW226462  11.117   0.915  12.250  0.4267 -1.0404  0.2903
40209SOL     OW26463   8.483   2.516   2.651  0.2613 -0.7617 -0.3026
40209SOL    HW126464   8.551   2.470   2.700 -0.4114 -0.9162  0.5136
40209SOL    HW226465   8.438   2.448   2.601 -0.8100 -1.0414  0.9958
40210SOL     OW26466   0.526   4.740   1.763  0.0769  0.0585 -0.1445
40210SOL    HW126467   0.607   4.693   1.783  0.5331  0.0121 -1.9077
40210SOL    HW226468   0.532   4.821   1.814  1.6715  0.4618 -0.9044
40211SOL     OW26469   9.180   9.703   7.226 -0.4053  0.6347  0.5946
40211SOL    HW126470   9.106   9.741   7.274  0.3278  2.3653  0.4488
40211SOL    HW226471   9.191   9.616   7.263 -1.8747  0.7159  1.3062
40212SOL     OW26472   8.627   4.534   2.560  0.6955  0.3682  0.0790
40212SOL    HW126473   8.596   4.483   2.486  0.3312  0.0368  0.4550
40212SOL    HW226474   8.563   4.518   2.629 -0.0496  2.1993 -0.1212
40213SOL     OW26475   9.877   9.418   2.162  0.1425 -0.0251 -0.2046
40213SOL    HW126476   9.851   9.348   2.102  0.2336  0.1272 -0.4231
40213SOL    HW226477   9.927   9.479   2.108  1.3003 -0.5082  0.2783
40214SOL     OW26478   0.559   2.213   9.719  0.3246 -0.3967  0.4706
40214SOL    HW126479   0.573   2.277   9.788 -0.5142 -1.3102  1.5228
40214SOL    HW226480   0.494   2.153   9.755 -1.4948  0.0918 -1.7564
40215SOL     OW26481  11.289   5.988   7.603  0.1153 -0.0160 -0.4275
40215SOL    HW126482  11.231   5.938   7.546  1.0751  1.0931 -2.4829
40215SOL    HW226483  11.365   5.931   7.616 -0.5597 -0.6991  0.6857
40216SOL     OW26484  11.343   1.200   1.346 -0.3713 -0.0311 -0.0808
40216SOL    HW126485  11.311   1.160   1.265 -2.0489  0.8994  0.0836
40216SOL    HW226486  11.271   1.256   1.375  0.2565 -0.2081  1.9647
40217SOL     OW26487   2.842   9.251   5.935  0.2658 -0.1721 -0.4303
40217SOL    HW126488   2.765   9.234   5.881 -0.5420 -1.1409  0.9366
40217SOL    HW226489   2.915   9.252   5.874 -0.8657  1.2667 -1.8429
40218SOL     OW26490   0.052   3.245   6.153  0.8378 -0.0607  0.1444
40218SOL    HW126491   0.132   3.204   6.119  0.5305 -0.2667 -0.3497
40218SOL    HW226492   0.031   3.312   6.089 -0.2874 -1.0971 -0.6208
40219SOL     OW26493   2.276   8.103   2.697 -0.4510  0.2604 -0.3379
40219SOL    HW126494   2.207   8.073   2.756 -0.2479 -1.0022 -0.7120
40219SOL    HW226495   2.259   8.197   2.686 -0.6857  0.4569  1.4401
40220SOL     OW26496   0.185   7.556   9.774 -0.4485 -0.4751  0.3728
40220SOL    HW126497   0.122   7.529   9.841  0.1530 -0.0636  1.1147
40220SOL    HW226498   0.131   7.593   9.704 -1.1985 -2.2441 -0.0481
40221SOL     OW26499  11.697   9.426   3.174 -0.3102 -0.2373  0.1189
40221SOL    HW126500  11.685   9.331   3.168 -0.5284 -0.1748 -0.4661
40221SOL    HW226501  11.774   9.444   3.119  2.4003 -0.5779  3.4395
40222SOL     OW26502   0.664  10.900  12.077 -1.0409 -0.9293  0.0709
40222SOL    HW126503   0.590  10.933  12.128  1.0000  2.6217  1.0569
40222SOL    HW226504   0.645  10.925  11.987 -0.6245  0.9392  0.4706
40223SOL     OW26505   6.579   8.065   5.175  0.0753 -0.5042 -0.7814
40223SOL    HW126506   6.608   8.139   5.123 -0.0485 -0.0258 -0.1781
40223SOL    HW226507   6.552   8.103   5.258  3.1611 -1.5434  0.8490
40224SOL     OW26508   2.868   2.198   8.752 -0.0353 -0.3755 -0.8272
40224SOL    HW126509   2.937   2.181   8.816 -0.6925  0.2099  0.0696
40224SOL    HW226510   2.880   2.289   8.727  0.4064 -0.6895 -1.7914
40225SOL     OW26511   7.676   8.923   5.306  0.0568 -0.3696 -0.0299
40225SOL    HW126512   7.597   8.883   5.343 -1.4346  1.2783 -1.2713
40225SOL    HW226513   7.671   9.015   5.332  1.1511 -0.0760 -0.7924
40226SOL     OW26514   5.243   4.180   5.890  0.0970  0.1597 -0.0935
40226SOL    HW126515   5.316   4.144   5.840  0.7003  1.5124 -0.2443
40226SOL    HW226516   5.282   4.206   5.974 -0.0392  1.4615 -0.4059
40227SOL     OW26517   8.859   3.810   0.014  0.4202 -0.4344  0.3807
40227SOL    HW126518   8.801   3.788   0.087 -1.5245 -0.5219 -1.0924
40227SOL    HW226519   8.885   3.901   0.030  1.9145 -1.1389  2.3186
40228SOL     OW26520   5.819   9.668   9.769 -1.0293 -0.6558 -1.1937
40228SOL    HW126521   5.848   9.646   9.681  0.9791  0.4115 -0.8597
40228SOL    HW226522   5.859   9.602   9.825 -0.6723 -0.1975 -0.8980
40229SOL     OW26523  10.138   2.998  11.735  0.4118  0.3481 -0.1405
40229SOL    HW126524  10.139   2.907  11.764 -0.6631  0.8944  1.8328
40229SOL    HW226525  10.126   3.048  11.816 -4.8177  1.9760 -1.5594
40230SOL     OW26526  11.310   0.722   6.814 -1.1622  0.0500 -0.2864
40230SOL    HW126527  11.290   0.812   6.788 -1.9993 -0.1198 -0.2651
40230SOL    HW226528  11.262   0.710   6.896  0.0357  0.0081  0.4362
40231SOL     OW26529  11.717  11.309  10.411 -0.1681 -0.3708 -0.5079
40231SOL    HW126530  11.657  11.369  10.367 -0.5709  0.4558  1.0964
40231SOL    HW226531  11.723  11.234  10.352 -0.3325  0.8511 -2.1663
40232SOL     OW26532   8.587  11.757   6.680 -0.6313 -0.1247 -0.3501
40232SOL    HW126533   8.551  11.823   6.740  0.2699  1.3058 -1.3274
40232SOL    HW226534   8.511  11.716   6.640 -1.2251 -0.4403  1.0614
40233SOL     OW26535   0.226   0.024   0.756 -0.2415  0.2283  0.3956
40233SOL    HW126536   0.182  -0.055   0.725  0.0699  1.1058 -2.5553
40233SOL    HW226537   0.155   0.079   0.789 -0.9420  0.1612 -0.9315
40234SOL     OW26538   2.302   7.885   7.517 -0.0025 -0.5403 -0.6297
40234SOL    HW126539   2.355   7.915   7.590 -0.4595  1.8104 -1.1849
40234SOL    HW226540   2.286   7.792   7.535  0.8281 -0.2950  1.6454
40235SOL     OW26541   3.211   7.786   2.188 -0.3789  0.2906  0.2612
40235SOL    HW126542   3.210   7.718   2.121 -0.2210  1.7595 -1.3069
40235SOL    HW226543   3.201   7.868   2.140 -0.9261  1.3817  2.1100
40236SOL     OW26544   8.320   3.854   3.052 -0.7018  0.2957  0.0176
40236SOL    HW126545   8.366   3.878   2.972  1.0519  0.9524  1.1646
40236SOL    HW226546   8.284   3.936   3.085 -1.0410  0.1059  0.1250
40237SOL     OW26547   4.041   7.437   5.403 -0.1516  0.3620  0.0127
40237SOL    HW126548   4.017   7.506   5.342 -0.1274  0.3895  0.0342
40237SOL    HW226549   3.967   7.376   5.401  0.6363 -0.5939 -1.4265
40238SOL     OW26550   1.591   1.874  10.038  0.8443  0.0442  0.0644
40238SOL    HW126551   1.682   1.903  10.044  0.4718  1.5878 -0.9916
40238SOL    HW226552   1.540   1.949  10.069 -0.1075 -0.3200 -0.5677
40239SOL     OW26553   6.114   4.544   5.884 -0.4199 -0.8555 -0.6383
40239SOL    HW126554   6.040   4.508   5.835 -1.4548  0.9655 -0.4990
40239SOL    HW226555   6.138   4.623   5.836  1.5396 -1.4689 -0.7430
40240SOL     OW26556   8.232  11.998   1.593  0.7703 -0.3945  0.1066
40240SOL    HW126557   8.301  12.061   1.613 -0.2038  0.3719  1.1886
40240SOL    HW226558   8.194  12.029   1.510  1.9875 -1.0877 -0.7434
40241SOL     OW26559  11.935   4.482   0.364  0.4101 -0.0269  0.5281
40241SOL    HW126560  11.923   4.510   0.455  1.3602  0.6301  0.4682
40241SOL    HW226561  11.856   4.432   0.344 -1.3152  2.4217  0.7038
40242SOL     OW26562   5.098   8.262   4.767 -0.3958 -0.0104 -0.2683
40242SOL    HW126563   5.109   8.299   4.680  3.4651  0.6664  0.3105
40242SOL    HW226564   5.141   8.176   4.762  0.8645  0.4841  1.1357
40243SOL     OW26565   6.491   8.622   3.241  0.1275  0.0642 -0.0921
40243SOL    HW126566   6.422   8.683   3.269 -0.3797 -0.5182 -0.0432
40243SOL    HW226567   6.525   8.660   3.160 -0.3319  0.3028 -0.1772
40244SOL     OW26568  10.165  10.124  10.678 -0.5535  0.4264 -0.2498
40244SOL    HW126569  10.115  10.184  10.733  0.7465 -0.0938  1.5979
40244SOL    HW226570  10.209  10.065  10.740  0.8386 -0.3231 -1.8561
40245SOL     OW26571   0.579   8.925   6.402 -0.4585  0.0217 -0.5030
40245SOL    HW126572   0.658   8.899   6.450 -2.0377 -1.4812  1.4603
40245SOL    HW226573   0.575   8.865   6.328  0.0971 -0.0242 -0.5044
40246SOL     OW26574   7.099  11.676   0.009 -0.1713  0.2726 -0.0021
40246SOL    HW126575   7.096  11.769   0.032  0.9561  0.0463  1.1897
40246SOL    HW226576   7.187  11.647   0.035 -0.4237 -1.0744 -0.5470
40247SOL     OW26577   1.926   4.841   5.567  0.1737  0.6384 -0.3215
40247SOL    HW126578   1.836   4.813   5.581 -0.6246  2.1962 -2.0132
40247SOL    HW226579   1.960   4.781   5.501 -0.2081  1.1290 -0.9693
40248SOL     OW26580   5.114  10.070   9.253  0.9689  0.0364  0.4982
40248SOL    HW126581   5.205  10.066   9.283  1.2495 -1.8361 -0.4328
40248SOL    HW226582   5.080   9.981   9.268  0.2584 -0.1936 -1.9448
40249SOL     OW26583   4.156   5.084   3.044  0.2971  0.3184 -0.2592
40249SOL    HW126584   4.222   5.065   3.111  0.1360  0.2084 -0.1296
40249SOL    HW226585   4.140   5.179   3.052  0.4527  0.3482 -0.3048
40250SOL     OW26586   8.190   4.337  10.672  0.1237  0.6530 -0.3244
40250SOL    HW126587   8.136   4.408  10.638  0.4430  0.4078 -1.3617
40250SOL    HW226588   8.280   4.370  10.663  0.2516  0.2677 -0.4479
40251SOL     OW26589   9.556   7.160   2.464  0.1271 -0.6136 -0.2337
40251SOL    HW126590   9.539   7.254   2.476  1.2997 -0.4046 -0.1552
40251SOL    HW226591   9.489   7.132   2.402 -0.8272  0.0654  0.4492
40252SOL     OW26592  11.420   1.967   9.882  0.2504  0.4062 -0.1468
40252SOL    HW126593  11.413   2.062   9.886 -0.9373  0.3934 -1.1927
40252SOL    HW226594  11.418   1.946   9.789  0.7254 -0.6375  0.0584
40253SOL     OW26595   9.210   7.698   7.994  0.0494  0.5004 -0.2735
40253SOL    HW126596   9.288   7.669   7.945 -0.7477  0.8223 -1.8056
40253SOL    HW226597   9.181   7.620   8.041  1.7416  0.5761  0.9642
40254SOL     OW26598  11.459   1.754   2.773  0.8058  0.0095 -0.2936
40254SOL    HW126599  11.519   1.737   2.700  2.4281  1.3940  0.6491
40254SOL    HW226600  11.430   1.667   2.802  0.0620 -0.5777 -2.5741
40255SOL     OW26601   5.615   1.223   7.878  0.3783 -0.4504  0.2551
40255SOL    HW126602   5.659   1.282   7.940 -2.8645  2.9088 -0.2934
40255SOL    HW226603   5.573   1.157   7.933 -1.0611  1.4966  1.6217
40256SOL     OW26604   1.604   6.134   2.525  0.3291  0.0401  0.2563
40256SOL    HW126605   1.655   6.110   2.447  1.2003 -0.2011  0.8780
40256SOL    HW226606   1.515   6.108   2.505  0.5271  0.0778 -0.7065
40257SOL     OW26607   9.127   7.892   9.879  0.1295 -0.4730  0.4174
40257SOL    HW126608   9.047   7.921   9.923  0.1006 -0.0610  0.1062
40257SOL    HW226609   9.112   7.800   9.858 -1.3302  0.2251 -1.9506
40258SOL     OW26610   2.707   4.452   9.237  0.1360 -0.6715  0.0091
40258SOL    HW126611   2.800   4.431   9.226 -0.0910 -1.0469 -1.2993
40258SOL    HW226612   2.662   4.396   9.175 -0.7892  1.2468 -1.1360
40259SOL     OW26613   2.394   1.006   2.094 -0.7299 -0.5829 -0.2341
40259SOL    HW126614   2.410   1.013   2.000 -1.4166 -1.0566 -0.3948
40259SOL    HW226615   2.350   0.922   2.105 -1.9368  0.0836  0.3148
40260SOL     OW26616  11.133   6.110   2.408  0.2349 -0.6885 -0.1294
40260SOL    HW126617  11.076   6.086   2.481  0.7230 -2.1763 -0.1969
40260SOL    HW226618  11.169   6.027   2.377  2.3579  0.1778 -0.1715
40261SOL     OW26619  11.584  10.350   3.312 -0.0266  0.2856  0.2394
40261SOL    HW126620  11.586  10.350   3.216 -0.8087  1.9773  0.1837
40261SOL    HW226621  11.638  10.276   3.337 -1.9666 -1.8791 -1.5270
40262SOL     OW26622  10.397  11.471   0.186 -0.4287 -0.4468 -0.6164
40262SOL    HW126623  10.301  11.474   0.193 -0.5379  1.7900 -2.0451
40262SOL    HW226624  10.415  11.498   0.096  1.5890  1.1853  0.1989
40263SOL     OW26625   2.371   8.714  10.286  0.1276  0.0942 -0.1990
40263SOL    HW126626   2.339   8.781  10.226 -2.9784 -0.4639  0.6683
40263SOL    HW226627   2.357   8.750  10.373  2.9302  0.1681  0.3261
40264SOL     OW26628   6.906   2.119  10.705  0.1957 -0.7725  0.0753
40264SOL    HW126629   6.944   2.045  10.751 -0.6886 -1.2894 -0.0001
40264SOL    HW226630   6.887   2.183  10.773 -0.4948 -1.2641  0.3481
40265SOL     OW26631   2.810   1.627   5.842  0.6747  0.4782 -0.1466
40265SOL    HW126632   2.900   1.616   5.872  0.9086  1.0483 -0.6533
40265SOL    HW226633   2.757   1.592   5.915  1.2031  2.5954  1.3539
40266SOL     OW26634   1.010  11.569   0.512 -0.2826 -0.4404 -0.0850
40266SOL    HW126635   1.080  11.520   0.557 -0.3383 -0.8051 -0.3954
40266SOL    HW226636   0.929  11.536   0.551 -0.3152 -0.5191 -0.2207
40267SOL     OW26637  10.423  10.013  12.028 -0.1620 -0.7779  0.5105
40267SOL    HW126638  10.371  10.088  12.057  1.4763 -0.6072  3.4106
40267SOL    HW226639  10.376   9.979  11.951 -1.4200  2.6495 -0.3920
40268SOL     OW26640   8.153   2.217   9.314 -0.0213  0.2410 -0.4615
40268SOL    HW126641   8.226   2.188   9.260  0.1891  2.0376 -1.2107
40268SOL    HW226642   8.154   2.158   9.389  0.3476 -1.6298 -1.8715
40269SOL     OW26643   0.962   6.103   0.131  0.2537 -0.5039  0.0540
40269SOL    HW126644   0.989   6.047   0.204 -1.5103 -1.6990 -0.1292
40269SOL    HW226645   0.875   6.069   0.106  0.7339 -0.0774 -2.5198
40270SOL     OW26646   0.450  10.320   6.968  0.2941 -0.1243 -0.1182
40270SOL    HW126647   0.467  10.324   7.062  0.0380 -0.6086 -0.0457
40270SOL    HW226648   0.448  10.227   6.948 -2.8744 -0.2057  0.0163
40271SOL     OW26649   2.689  10.669   8.082  0.6504  0.6548 -0.3191
40271SOL    HW126650   2.727  10.683   8.168 -1.4696  0.5906  0.6769
40271SOL    HW226651   2.671  10.757   8.049  1.5234  0.6828 -0.7754
40272SOL     OW26652  12.210  10.110   8.434 -0.1080  0.1595  0.0358
40272SOL    HW126653  12.149  10.182   8.415 -1.5223 -1.4854 -2.1373
40272SOL    HW226654  12.186  10.081   8.522  1.0141  2.7216  1.3095
40273SOL     OW26655  10.376   1.076   8.832  0.1288  0.6129 -0.1753
40273SOL    HW126656  10.291   1.052   8.795  0.5408 -3.4884  1.1268
40273SOL    HW226657  10.358   1.152   8.886 -2.3851  0.7694 -1.1052
40274SOL     OW26658   9.540   7.330   5.897 -0.5173  0.3473  0.1319
40274SOL    HW126659   9.552   7.236   5.879  2.3315  0.7700 -0.5372
40274SOL    HW226660   9.609   7.373   5.848 -1.5056  2.8089  0.7751
40275SOL     OW26661  11.211   2.119   6.932 -0.1478  0.0772  0.1929
40275SOL    HW126662  11.259   2.150   6.855 -0.8634 -0.0890 -0.3242
40275SOL    HW226663  11.245   2.172   7.004 -0.3574  1.1006 -0.4470
40276SOL     OW26664   6.962   5.138   3.517  0.5022  0.2367 -0.3875
40276SOL    HW126665   7.057   5.135   3.505  0.5989  1.7827 -0.2717
40276SOL    HW226666   6.944   5.230   3.535 -1.2028  0.2224 -1.7934
40277SOL     OW26667   7.933   9.063   6.756  0.0579 -0.2674 -0.3046
40277SOL    HW126668   7.933   8.967   6.751 -2.1791 -0.4427  1.2349
40277SOL    HW226669   8.015   9.085   6.800  0.0981 -1.5904  0.3311
40278SOL     OW26670   6.137   5.970   5.892 -0.6757 -0.4100  0.4909
40278SOL    HW126671   6.075   5.906   5.856 -0.1982 -1.3913  1.3542
40278SOL    HW226672   6.099   5.996   5.975 -0.8647  0.4386  0.1414
40279SOL     OW26673   2.021   5.966   5.006  0.0027  0.3355  0.6477
40279SOL    HW126674   1.945   5.945   4.952 -0.3989  1.0903  0.9143
40279SOL    HW226675   2.047   5.881   5.043 -0.5844  0.0423  0.4067
40280SOL     OW26676   5.022  12.055   7.812 -0.4438  0.9422 -0.2145
40280SOL    HW126677   4.956  11.996   7.775  0.3028  0.6453 -1.1337
40280SOL    HW226678   4.983  12.089   7.892 -0.6825 -1.2684  0.6838
40281SOL     OW26679   4.801   4.879   7.606  0.1939  0.1248 -0.1961
40281SOL    HW126680   4.711   4.911   7.608 -0.4153 -1.2464 -2.3265
40281SOL    HW226681   4.792   4.783   7.609  1.5315 -0.0492 -1.0594
40282SOL     OW26682  10.429   5.714   7.715 -0.0700  0.0731 -0.0819
40282SOL    HW126683  10.433   5.762   7.798 -2.2014  1.7446 -0.8611
40282SOL    HW226684  10.513   5.666   7.711  0.9880  1.5832  2.0110
40283SOL     OW26685   5.709   5.435   7.394 -0.3671 -0.6953  0.2220
40283SOL    HW126686   5.638   5.372   7.409 -1.2020 -0.3003 -1.7938
40283SOL    HW226687   5.750   5.407   7.313 -0.9599  1.4843 -0.9156
40284SOL     OW26688   1.780   2.169   2.115  0.0320 -0.1200  0.2822
40284SOL    HW126689   1.731   2.229   2.172  1.0407 -0.4693  1.5724
40284SOL    HW226690   1.868   2.206   2.112 -0.0763  0.0612 -1.3572
40285SOL     OW26691   2.857   4.394   8.493  0.2261 -0.3080 -0.5879
40285SOL    HW126692   2.841   4.389   8.398 -0.6972  2.7326 -0.6807
40285SOL    HW226693   2.769   4.405   8.531  0.4784 -2.4225  0.7833
40286SOL     OW26694   3.866   8.560   8.429  0.2942  0.5373 -0.5957
40286SOL    HW126695   3.817   8.641   8.445 -1.2876 -0.5644  0.4036
40286SOL    HW226696   3.814   8.492   8.471  0.7903 -1.2481 -2.7113
40287SOL     OW26697   4.684   3.703   0.250 -0.4026  0.0635  0.1063
40287SOL    HW126698   4.650   3.634   0.306  0.3831 -1.5419 -1.2856
40287SOL    HW226699   4.661   3.676   0.161  0.7604  1.0857 -0.5507
40288SOL     OW26700  11.599   2.812   2.698  0.6240  0.4270  0.3335
40288SOL    HW126701  11.561   2.779   2.616 -1.6424  1.0783  1.0498
40288SOL    HW226702  11.634   2.899   2.675 -0.1591  0.6806  0.0827
40289SOL     OW26703   1.825   7.096   0.344  0.0675  0.3877  0.2641
40289SOL    HW126704   1.840   7.004   0.322 -0.1863  0.3406  0.2823
40289SOL    HW226705   1.863   7.107   0.430  0.0368  0.2805  0.2917
40290SOL     OW26706  11.622   8.491   7.706 -0.0056  0.6609  0.1001
40290SOL    HW126707  11.535   8.451   7.705 -1.3213  2.9673 -4.2274
40290SOL    HW226708  11.680   8.421   7.737 -2.9372 -2.1751 -0.2266
40291SOL     OW26709  10.259  11.267   4.530 -0.3460 -0.0419 -0.0207
40291SOL    HW126710  10.348  11.247   4.560 -0.7128 -0.9917  0.4522
40291SOL    HW226711  10.257  11.237   4.439 -0.7475 -1.8038  0.5384
40292SOL     OW26712   9.875  10.018   8.139 -0.5219 -0.4536 -0.0058
40292SOL    HW126713   9.793   9.985   8.175 -1.2303  0.9784 -0.2761
40292SOL    HW226714   9.870   9.998   8.046 -1.5010  1.4097 -0.3993
40293SOL     OW26715   7.507   1.703  10.174 -0.0352 -0.0562  0.1256
40293SOL    HW126716   7.419   1.733  10.152 -0.2164 -1.7869 -1.8458
40293SOL    HW226717   7.565   1.773  10.144 -0.5556 -0.5849 -2.3710
40294SOL     OW26718  12.281   4.496   6.337 -0.3262  0.6766  0.4167
40294SOL    HW126719  12.350   4.559   6.359 -0.9028  1.6321 -0.4531
40294SOL    HW226720  12.319   4.411   6.361  1.0975  1.1897  0.1253
40295SOL     OW26721   2.669   4.464   3.114  0.0637 -0.4714  0.2543
40295SOL    HW126722   2.711   4.464   3.028  0.8289 -2.7124  0.5473
40295SOL    HW226723   2.581   4.498   3.098  0.5995  0.3577 -1.1589
40296SOL     OW26724  10.525   7.953  11.098 -0.4468  0.3321  0.1355
40296SOL    HW126725  10.514   7.911  11.013  1.1449 -0.5005  0.2996
40296SOL    HW226726  10.476   7.898  11.159  1.0610 -0.9553  0.2395
40297SOL     OW26727   0.079   2.480   3.104 -0.2085  0.5941 -0.0125
40297SOL    HW126728   0.086   2.394   3.145 -0.8517  0.8463  0.6512
40297SOL    HW226729  -0.006   2.477   3.059  0.0830  0.6433 -0.5771
40298SOL     OW26730  12.041   7.345   1.531 -0.0758  0.2020  0.0175
40298SOL    HW126731  12.014   7.420   1.478  2.1788  1.9888  1.2546
40298SOL    HW226732  11.959   7.299   1.550 -1.2259  0.7933 -2.9486
40299SOL     OW26733   3.019   5.948   9.782 -0.4879 -0.2616  0.4729
40299SOL    HW126734   3.021   5.899   9.700  0.2762  0.0077  0.3234
40299SOL    HW226735   3.089   5.908   9.835 -0.6132 -0.0762  0.7810
40300SOL     OW26736   7.982  10.024   3.007 -0.1290 -0.7337  0.2048
40300SOL    HW126737   7.954  10.113   3.030  0.6034 -0.1277 -1.1444
40300SOL    HW226738   7.930   9.967   3.064 -0.5254  0.5555  1.1759
40301SOL     OW26739   4.817   8.563   0.068 -0.6140 -0.0561  0.9425
40301SOL    HW126740   4.810   8.529  -0.021 -1.2671 -0.4981  1.1563
40301SOL    HW226741   4.769   8.646   0.065  0.0299  0.3166  0.6971
40302SOL     OW26742  12.289   3.059   6.548  0.2025  0.9363 -0.2997
40302SOL    HW126743  12.324   3.134   6.500  0.5204  1.4391  0.6884
40302SOL    HW226744  12.315   3.075   6.639  2.9511 -1.8366 -0.4083
40303SOL     OW26745   8.570   9.283   1.396  0.3253  0.2271 -0.0105
40303SOL    HW126746   8.591   9.283   1.302  0.0418 -1.5777 -0.1201
40303SOL    HW226747   8.558   9.190   1.417 -0.3574  0.6607  1.6517
40304SOL     OW26748   8.878   2.610   4.575  0.1704  0.1829 -0.5276
40304SOL    HW126749   8.835   2.693   4.598 -0.5374 -0.4766  0.5613
40304SOL    HW226750   8.921   2.581   4.655 -1.2054 -1.4693 -0.3431
40305SOL     OW26751  12.221  11.204  10.946  0.2097  0.5083  0.4833
40305SOL    HW126752  12.170  11.208  10.865 -0.3683  1.8261  0.9005
40305SOL    HW226753  12.205  11.115  10.980  1.5635 -0.5922 -1.5119
40306SOL     OW26754   7.057   3.363   7.628 -0.0385  0.5533 -0.7663
40306SOL    HW126755   7.038   3.394   7.540  1.3119  0.3163 -1.1621
40306SOL    HW226756   7.151   3.346   7.628  0.0077  0.6601  0.7590
40307SOL     OW26757   3.620   6.950   9.579 -0.2690 -0.4219  0.4249
40307SOL    HW126758   3.634   6.997   9.496  1.7005  0.2362  1.0733
40307SOL    HW226759   3.590   6.863   9.553 -1.5822  0.3666 -0.8886
40308SOL     OW26760   4.471   4.535   0.340  0.1249  0.2919  0.2931
40308SOL    HW126761   4.423   4.455   0.321  0.7851 -0.0117 -0.1104
40308SOL    HW226762   4.563   4.512   0.327  0.3241  1.0958  0.2407
40309SOL     OW26763   2.398   7.119  11.629 -0.1593  0.1653  0.0562
40309SOL    HW126764   2.306   7.130  11.651  0.0817  0.7658  0.8224
40309SOL    HW226765   2.399   7.099  11.535 -1.0680  0.0029  0.0784
40310SOL     OW26766   2.998   8.821   2.983 -0.2633  0.1816 -0.5201
40310SOL    HW126767   3.052   8.788   2.912 -0.4635 -1.3673  0.0187
40310SOL    HW226768   2.982   8.913   2.960  0.1750 -0.1220 -2.1386
40311SOL     OW26769   6.736   5.715   3.368 -0.0549  0.9615 -0.3086
40311SOL    HW126770   6.691   5.788   3.325 -0.6344 -0.6526 -2.5734
40311SOL    HW226771   6.818   5.706   3.320 -0.0182  0.0721 -0.0898
40312SOL     OW26772  11.391   1.806  10.776  0.7848  0.1735  0.4638
40312SOL    HW126773  11.422   1.723  10.812 -0.2712 -0.3054  0.2951
40312SOL    HW226774  11.327   1.837  10.840  0.9628  0.7163  0.3798
40313SOL     OW26775   4.737   3.154  12.323  0.2027  0.3872 -0.4828
40313SOL    HW126776   4.830   3.143  12.343 -0.0351 -0.2012  0.3724
40313SOL    HW226777   4.725   3.249  12.317  0.3963  0.6131  1.8407
40314SOL     OW26778   8.950  10.200   6.773  0.1858  0.0518 -0.4331
40314SOL    HW126779   9.011  10.128   6.760  1.6813  0.9914  0.9713
40314SOL    HW226780   9.005  10.278   6.774 -0.6267  0.7576  3.1540
40315SOL     OW26781   6.109   1.021   0.486 -0.1554 -0.1607 -0.1533
40315SOL    HW126782   6.093   0.929   0.507  1.7191 -0.8547 -1.5012
40315SOL    HW226783   6.097   1.067   0.569 -0.8129 -1.6463  0.6084
40316SOL     OW26784  11.427   4.555   6.208  0.3596 -0.0590 -0.2887
40316SOL    HW126785  11.389   4.468   6.224  1.5897 -0.2363  2.0710
40316SOL    HW226786  11.521   4.540   6.202  0.6639  1.1737  0.9110
40317SOL     OW26787   3.189   9.853   3.737  0.1864 -0.5931  0.5586
40317SOL    HW126788   3.118   9.837   3.800 -1.3867 -1.6878 -1.3706
40317SOL    HW226789   3.221   9.765   3.714  0.4699 -0.2466 -0.4183
40318SOL     OW26790   8.268   8.913  10.579  0.4529 -0.6819 -0.0212
40318SOL    HW126791   8.187   8.875  10.545 -1.9126  1.2116  2.9700
40318SOL    HW226792   8.276   8.996  10.533 -0.5510  0.0676  1.0785
40319SOL     OW26793  11.861   2.628   7.948 -0.0360  0.5479  0.1425
40319SOL    HW126794  11.921   2.575   8.000 -1.7964 -1.2726  0.4327
40319SOL    HW226795  11.824   2.567   7.884 -0.7232  1.8732 -0.7703
40320SOL     OW26796   2.068  10.839   4.442  0.2986  0.1002 -0.1251
40320SOL    HW126797   2.088  10.767   4.503  2.2868 -0.2825 -1.1487
40320SOL    HW226798   1.981  10.819   4.408 -0.2910 -0.3834  1.5702
40321SOL     OW26799   4.013   0.728   5.758  0.0405 -0.1717 -0.4235
40321SOL    HW126800   4.021   0.823   5.763  0.1511 -0.1049 -1.7008
40321SOL    HW226801   3.945   0.712   5.693  1.1265 -0.9719 -1.3959
40322SOL     OW26802   6.444   4.702  10.576 -0.0232 -0.1800 -0.1137
40322SOL    HW126803   6.401   4.636  10.521 -0.7318  0.4615 -0.3373
40322SOL    HW226804   6.435   4.784  10.528 -1.3064  0.5451  1.2868
40323SOL     OW26805   1.795   2.900   5.737  0.4191 -0.3443 -0.0011
40323SOL    HW126806   1.827   2.944   5.658  0.3322 -1.7987 -0.8988
40323SOL    HW226807   1.874   2.879   5.787  0.5111  0.1439  0.0622
40324SOL     OW26808   0.782   8.643   7.278  0.4999 -0.4889  0.2027
40324SOL    HW126809   0.804   8.554   7.250  0.2166 -0.7524  0.7935
40324SOL    HW226810   0.782   8.638   7.374 -0.1405 -0.0052  0.2278
40325SOL     OW26811   7.893   2.355   8.121 -0.0153  0.1266  0.2920
40325SOL    HW126812   7.881   2.299   8.044  0.0241  0.7026 -0.1406
40325SOL    HW226813   7.818   2.413   8.120 -1.0091 -1.0641  1.7663
40326SOL     OW26814   3.824   3.447   6.276 -0.5726 -0.0664  0.2638
40326SOL    HW126815   3.892   3.481   6.217 -0.3010 -0.8316  0.1326
40326SOL    HW226816   3.773   3.525   6.300 -0.8547  0.2181 -1.1886
40327SOL     OW26817   5.922   1.398  10.684  0.0530 -0.2120 -0.2705
40327SOL    HW126818   5.987   1.410  10.753  0.5285  1.6891 -0.9909
40327SOL    HW226819   5.867   1.476  10.690 -2.0234 -1.6369  0.1234
40328SOL     OW26820   6.628  11.753   5.795 -0.5347  0.7485 -0.5512
40328SOL    HW126821   6.683  11.771   5.871  0.7743 -2.1606 -0.6919
40328SOL    HW226822   6.538  11.764   5.828  0.0375  2.4437  0.5558
40329SOL     OW26823   8.250   2.397   1.573  0.0767  0.2645 -0.1759
40329SOL    HW126824   8.271   2.447   1.494  0.3373  0.5151  0.0494
40329SOL    HW226825   8.290   2.312   1.558 -1.2190 -0.2254 -0.9940
40330SOL     OW26826   8.953   6.290   6.971  0.1666 -0.6996 -0.5765
40330SOL    HW126827   8.946   6.195   6.972 -1.6079 -0.6079  0.0277
40330SOL    HW226828   8.891   6.319   6.904 -0.1171  0.0532 -0.0141
40331SOL     OW26829   5.517   7.717   3.051  0.0974 -0.1209 -0.0978
40331SOL    HW126830   5.547   7.637   3.093 -0.2604  0.6837  1.8079
40331SOL    HW226831   5.596   7.770   3.040 -0.0009  0.3558  1.2223
40332SOL     OW26832   5.609  11.334   1.132 -0.5642 -0.0281  0.2888
40332SOL    HW126833   5.610  11.247   1.172 -2.4596 -0.8542 -1.2818
40332SOL    HW226834   5.559  11.388   1.194 -0.9561 -0.5283  0.4156
40333SOL     OW26835   6.654  10.056   6.633  0.1228 -0.2351 -0.6243
40333SOL    HW126836   6.650  10.150   6.614 -1.2627  0.0259  0.7402
40333SOL    HW226837   6.711  10.020   6.565  0.6826  1.5881 -1.1762
40334SOL     OW26838   0.574   6.191   6.547  0.1636  0.1516  0.4902
40334SOL    HW126839   0.513   6.250   6.592  1.6978  0.2440  2.5777
40334SOL    HW226840   0.599   6.239   6.468 -0.6395  1.1262  0.8039
40335SOL     OW26841   3.016   7.249   7.563  0.5146 -0.0333  0.2380
40335SOL    HW126842   2.995   7.170   7.613  1.0765  0.1193  0.7227
40335SOL    HW226843   3.110   7.243   7.548  0.4276  0.1499 -0.4135
40336SOL     OW26844   4.899   6.843   5.769 -1.0481 -0.7571  0.2334
40336SOL    HW126845   4.937   6.862   5.683 -0.0190  0.2907  0.8835
40336SOL    HW226846   4.806   6.830   5.753 -1.0537  0.5304 -0.8918
40337SOL     OW26847   7.396  12.233  11.256  0.3035 -0.1232  0.6725
40337SOL    HW126848   7.454  12.298  11.295 -0.6040 -0.1276  2.1224
40337SOL    HW226849   7.314  12.281  11.240  0.3643 -0.3559 -0.4198
40338SOL     OW26850  11.038   2.354   0.986  0.1047 -0.2920 -0.2829
40338SOL    HW126851  11.066   2.284   1.045 -0.8871 -0.6725 -0.2396
40338SOL    HW226852  11.066   2.435   1.029  0.4203 -0.6181  0.1300
40339SOL     OW26853   4.080   5.395   7.536 -0.1877  0.0739 -0.3584
40339SOL    HW126854   3.991   5.388   7.573  0.1006  0.7743  0.4887
40339SOL    HW226855   4.068   5.373   7.444 -1.1885 -0.1862 -0.1900
40340SOL     OW26856   3.977  11.024   7.918  0.3855  0.4584 -0.1139
40340SOL    HW126857   3.970  11.117   7.937 -1.2210  0.2104  0.6699
40340SOL    HW226858   4.007  11.020   7.827  1.3789  1.7159  0.1425
40341SOL     OW26859   6.680   9.705   4.000 -0.5525 -0.1785 -0.5170
40341SOL    HW126860   6.609   9.704   3.935 -0.2423  0.5270 -0.8812
40341SOL    HW226861   6.684   9.796   4.028 -0.8565 -0.5269  0.6967
40342SOL     OW26862   3.313  10.797   9.205 -0.0594  0.0102 -0.3435
40342SOL    HW126863   3.331  10.804   9.298  0.0641 -1.5115 -0.2308
40342SOL    HW226864   3.279  10.708   9.194 -1.7702  0.7551 -1.4729
40343SOL     OW26865   8.837  11.640   2.214  0.0264 -0.9071  0.0522
40343SOL    HW126866   8.777  11.574   2.247 -0.0570 -1.2460 -0.7548
40343SOL    HW226867   8.781  11.705   2.173  0.1131 -0.3509  0.7893
40344SOL     OW26868   0.903   9.812   1.857 -0.1147  0.2817  0.2033
40344SOL    HW126869   0.882   9.729   1.813 -1.0627  1.5908 -1.9737
40344SOL    HW226870   0.996   9.826   1.840 -0.2911  0.3719 -0.7685
40345SOL     OW26871   9.921   1.726   2.872  0.4214  0.3667 -0.3193
40345SOL    HW126872   9.953   1.687   2.791  0.0305  1.0907 -0.8351
40345SOL    HW226873   9.999   1.741   2.924  0.7216  0.3178 -0.7509
40346SOL     OW26874   6.012  12.263  10.506  0.2689 -0.1228 -0.4260
40346SOL    HW126875   6.083  12.263  10.441 -0.0005  1.0821 -0.7349
40346SOL    HW226876   5.938  12.223  10.460  0.3654 -0.1757 -0.5356
40347SOL     OW26877   2.945   5.630   8.900 -0.2988 -0.6152 -0.3747
40347SOL    HW126878   2.866   5.577   8.891 -0.8289  0.3406 -1.5731
40347SOL    HW226879   2.952   5.679   8.818  1.1078 -0.0862  0.0155
40348SOL     OW26880   2.057  10.673  11.653 -0.0902 -0.0730 -0.3049
40348SOL    HW126881   2.106  10.740  11.702 -1.5754  0.5235  0.4271
40348SOL    HW226882   2.102  10.668  11.569  0.0700  1.8724 -0.3963
40349SOL     OW26883  12.141   4.427   2.452 -0.5744 -0.0733 -0.3076
40349SOL    HW126884  12.207   4.485   2.491 -0.4061 -0.7529  0.4442
40349SOL    HW226885  12.192   4.353   2.417 -0.8097  0.0897 -1.0104
40350SOL     OW26886   6.888   0.245   5.373 -0.1304  0.2811 -0.8755
40350SOL    HW126887   6.853   0.162   5.407 -1.0628  1.0806  0.2015
40350SOL    HW226888   6.928   0.221   5.289  0.3086 -1.3897 -0.2436
40351SOL     OW26889   5.812   3.440   0.210  0.8633  0.2006 -0.0716
40351SOL    HW126890   5.778   3.455   0.298  0.4660 -1.3434  0.0597
40351SOL    HW226891   5.880   3.373   0.220  1.0956  0.2987 -0.8835
40352SOL     OW26892   9.716   5.388   0.775 -0.0099  0.0188  0.3579
40352SOL    HW126893   9.719   5.297   0.747 -0.6942  0.9391 -3.2686
40352SOL    HW226894   9.762   5.436   0.707  0.6935  2.4162  2.3609
40353SOL     OW26895   1.791   7.666   8.487 -0.7468  0.0008  0.2125
40353SOL    HW126896   1.801   7.694   8.578  0.9836 -1.7766  0.6631
40353SOL    HW226897   1.823   7.740   8.435 -1.0704  0.7601  1.0711
40354SOL     OW26898   1.213   1.639   3.301 -0.0035 -0.1129  0.3573
40354SOL    HW126899   1.307   1.648   3.319  0.3868  0.2632 -1.5857
40354SOL    HW226900   1.207   1.644   3.205 -2.0736  0.4343  0.4773
40355SOL     OW26901   3.435  10.605   9.410  0.4488 -0.5515  0.4114
40355SOL    HW126902   3.490  10.673   9.450 -1.1925 -0.2939  2.3847
40355SOL    HW226903   3.479  10.523   9.432  0.4189 -0.3164  1.3718
40356SOL     OW26904   2.640   1.763  10.601  0.7520  0.1483 -0.1606
40356SOL    HW126905   2.549   1.768  10.632  0.9858  0.9973  0.4174
40356SOL    HW226906   2.641   1.816  10.521  0.4802 -0.8312 -0.8226
40357SOL     OW26907   4.488   0.149   2.841 -0.2236  0.0048 -0.4135
40357SOL    HW126908   4.464   0.166   2.932  1.0846  0.5037 -0.1329
40357SOL    HW226909   4.584   0.144   2.843 -0.2737 -3.7758 -1.1128
40358SOL     OW26910   5.715  12.000   0.579 -0.5584 -0.0937 -0.4541
40358SOL    HW126911   5.751  11.911   0.583  1.4641  0.6007 -1.5190
40358SOL    HW226912   5.675  12.014   0.664  3.1299 -0.4622  1.5595
40359SOL     OW26913   1.889   0.514   8.533 -0.1198 -0.1436  0.0163
40359SOL    HW126914   1.949   0.474   8.470 -1.1340  0.5951 -1.4781
40359SOL    HW226915   1.861   0.596   8.492  0.1380  1.0116  1.9881
40360SOL     OW26916   6.341  11.448   3.066  0.4677  0.9087  0.0912
40360SOL    HW126917   6.340  11.543   3.054 -0.6923  0.7592 -1.2832
40360SOL    HW226918   6.254  11.419   3.037  1.2213 -0.6979 -0.7027
40361SOL     OW26919   5.211   0.856   0.887  0.3582 -0.7726 -0.4507
40361SOL    HW126920   5.275   0.824   0.951  1.5345  1.5598 -0.3535
40361SOL    HW226921   5.128   0.855   0.935  0.9573 -0.4911  0.6389
40362SOL     OW26922   7.534   6.585   5.258  0.2224 -0.3023 -0.4859
40362SOL    HW126923   7.467   6.648   5.234  0.1456 -0.3121 -0.2998
40362SOL    HW226924   7.556   6.540   5.176 -0.3257 -0.6198 -0.4589
40363SOL     OW26925   2.568   6.622   2.841  0.0430 -0.5449  0.0718
40363SOL    HW126926   2.487   6.672   2.849  0.0705 -0.5736  0.5768
40363SOL    HW226927   2.637   6.684   2.867  0.0508 -0.9185  0.9684
40364SOL     OW26928   8.117   1.173   3.426 -0.3217  0.0739 -1.0462
40364SOL    HW126929   8.202   1.216   3.431 -0.4963  0.3983 -0.8072
40364SOL    HW226930   8.137   1.083   3.402  0.1027  0.1057 -0.8261
40365SOL     OW26931   7.208   2.795  10.736  0.2557  0.7513 -0.0989
40365SOL    HW126932   7.264   2.814  10.661 -0.4790 -1.0563 -1.1841
40365SOL    HW226933   7.119   2.798  10.701 -0.0955 -0.2478  0.6521
40366SOL     OW26934   6.950   8.773   1.751 -0.4045  0.6331  0.0226
40366SOL    HW126935   6.901   8.701   1.789  0.4163 -0.1479 -0.3695
40366SOL    HW226936   6.903   8.795   1.671 -0.4606  0.3042 -0.0333
40367SOL     OW26937   7.290   5.993   7.565  0.4513 -0.7416  0.7483
40367SOL    HW126938   7.287   6.080   7.606  1.3071 -0.0850 -0.5147
40367SOL    HW226939   7.337   6.007   7.483 -1.4222 -1.9778 -0.5990
40368SOL     OW26940   2.469  11.827   5.280  0.2219 -0.3848 -0.4880
40368SOL    HW126941   2.388  11.877   5.282  0.8933  0.7133  0.7920
40368SOL    HW226942   2.536  11.889   5.309  0.9487 -2.2798  2.2394
40369SOL     OW26943   5.000  11.004   9.025  0.2961 -0.2875  0.1614
40369SOL    HW126944   4.996  11.098   9.009 -0.5100 -0.1820  0.8793
40369SOL    HW226945   4.988  10.964   8.938 -1.5843  0.2756  0.1207
40370SOL     OW26946  12.277   8.628   3.459 -0.1111 -0.0409  0.2010
40370SOL    HW126947  12.288   8.674   3.376 -0.0560 -1.3993 -0.5719
40370SOL    HW226948  12.288   8.695   3.526  1.5135  0.7764 -0.8387
40371SOL     OW26949   7.197   8.570   9.648 -0.3717  0.3683 -0.1396
40371SOL    HW126950   7.226   8.530   9.567  2.5867  0.0631  0.9435
40371SOL    HW226951   7.112   8.530   9.666 -0.6598 -0.2496 -2.5532
40372SOL     OW26952   9.455   7.221   3.022 -0.0659 -0.4264 -0.0467
40372SOL    HW126953   9.508   7.275   2.963  0.6336  1.1252  1.8730
40372SOL    HW226954   9.519   7.178   3.079 -0.7601 -0.4992  0.6979
40373SOL     OW26955   9.640  11.532   1.198 -0.7534  0.2967 -0.5474
40373SOL    HW126956   9.704  11.461   1.199  0.1664  1.0623 -2.2897
40373SOL    HW226957   9.675  11.596   1.260 -0.7419 -0.0194 -0.2166
40374SOL     OW26958   2.724  10.816   3.003  0.3070 -0.6392  0.2997
40374SOL    HW126959   2.657  10.751   3.025 -0.4022 -0.1577 -0.3806
40374SOL    HW226960   2.770  10.832   3.085 -2.9897  1.9976  1.8849
40375SOL     OW26961  10.826   3.053   1.389  0.6329 -0.0778  0.1130
40375SOL    HW126962  10.874   2.972   1.369  2.1762  0.8084  0.1013
40375SOL    HW226963  10.863   3.082   1.473  2.9495  2.6260 -1.6731
40376SOL     OW26964   1.147   8.647   0.717 -0.0679  0.1929 -0.2253
40376SOL    HW126965   1.061   8.661   0.677 -0.1079 -0.8617 -0.5460
40376SOL    HW226966   1.209   8.676   0.650 -0.1572  1.6773  0.2965
40377SOL     OW26967   6.769  11.934   9.792  0.5902 -0.1996  0.5684
40377SOL    HW126968   6.696  11.955   9.851  0.5007 -1.3858  0.9068
40377SOL    HW226969   6.772  12.007   9.731 -0.7693 -0.0322  0.6685
40378SOL     OW26970  11.332   6.783   3.979 -0.1423  0.3730 -0.5961
40378SOL    HW126971  11.348   6.871   4.012 -0.3140 -0.1708  1.0012
40378SOL    HW226972  11.390   6.726   4.031  0.5579 -0.3888 -2.1381
40379SOL     OW26973   6.082  10.577   6.392  0.1020 -0.0929 -0.0958
40379SOL    HW126974   6.139  10.647   6.423  0.0685  0.1654 -0.6097
40379SOL    HW226975   6.131  10.537   6.320  0.2703 -0.8218  0.4127
40380SOL     OW26976   2.073   6.732  10.096 -0.3732  0.4030  0.3386
40380SOL    HW126977   2.036   6.704  10.179 -0.7727 -1.6166 -0.4521
40380SOL    HW226978   2.166   6.743  10.113 -0.5810  0.9179  1.2338
40381SOL     OW26979   7.344   5.919  12.317 -0.0310  0.1490  0.3929
40381SOL    HW126980   7.428   5.874  12.328  0.6395  0.9149 -1.2751
40381SOL    HW226981   7.286   5.852  12.281  0.3651  0.0573 -0.0926
40382SOL     OW26982   5.277   0.008   4.551  0.7729  0.4237 -0.1092
40382SOL    HW126983   5.294   0.077   4.487 -1.6605  2.4492  1.2337
40382SOL    HW226984   5.323   0.037   4.630  1.7485 -0.8010 -0.2028
40383SOL     OW26985   7.904   4.829   6.417  0.1326 -0.7055 -0.2594
40383SOL    HW126986   7.983   4.827   6.472 -1.1966  2.2125  2.1139
40383SOL    HW226987   7.836   4.789   6.471 -1.0448  1.5133  0.0401
40384SOL     OW26988   2.327   6.938   3.239  0.1132 -0.0670 -0.5230
40384SOL    HW126989   2.410   6.984   3.251  0.9169 -1.3838 -0.8682
40384SOL    HW226990   2.343   6.850   3.273 -1.7556  0.1831  1.2541
40385SOL     OW26991   8.000   3.255   8.828  0.5368  0.2844 -0.1132
40385SOL    HW126992   7.990   3.334   8.775 -1.8160  0.4417  0.4312
40385SOL    HW226993   8.035   3.285   8.911 -1.9071  1.0862  0.6931
40386SOL     OW26994   0.442   0.080  12.324 -0.5624 -0.5506  0.3376
40386SOL    HW126995   0.513   0.062  12.262 -0.0949  1.4664  0.2206
40386SOL    HW226996   0.369   0.027  12.293  0.5824 -1.9254 -0.1137
40387SOL     OW26997  11.436   6.677   1.796 -1.1408 -0.0435  0.8564
40387SOL    HW126998  11.401   6.750   1.745 -1.4222  0.3776  1.6275
40387SOL    HW226999  11.483   6.623   1.733 -3.5169 -0.8607 -0.3252
40388SOL     OW27000   3.994   0.433   1.724 -0.2392 -0.3746  0.5189
40388SOL    HW127001   4.026   0.396   1.642 -0.1261  1.9553 -0.5589
40388SOL    HW227002   3.911   0.475   1.700  0.9773  2.4610  0.9719
40389SOL     OW27003   1.938   2.558   9.504 -0.0472  0.4255  0.1626
40389SOL    HW127004   1.864   2.576   9.446 -0.9226 -1.3806  0.6510
40389SOL    HW227005   1.997   2.503   9.453 -0.7851 -1.1111  0.8926
40390SOL     OW27006   9.521   0.345   1.624 -0.0799  0.0475  0.5575
40390SOL    HW127007   9.437   0.391   1.622 -0.3579 -0.4822  0.0301
40390SOL    HW227008   9.498   0.252   1.616  0.6652  0.0090 -1.6277
40391SOL     OW27009   7.033   8.877   1.353  0.4045 -0.0854 -0.1630
40391SOL    HW127010   7.119   8.873   1.395  0.2246  1.8519  0.5173
40391SOL    HW227011   7.044   8.944   1.285 -0.4705 -0.0918 -0.3168
40392SOL     OW27012   3.899   0.117  11.911 -0.2884  0.3316 -0.4396
40392SOL    HW127013   3.851   0.180  11.965 -2.1970  0.0035 -1.6720
40392SOL    HW227014   3.892   0.152  11.822  0.3455 -0.6011 -0.8704
40393SOL     OW27015   6.494   8.284  11.609 -0.5057 -0.6724  0.2973
40393SOL    HW127016   6.588   8.291  11.629 -0.4515 -0.8652  0.1211
40393SOL    HW227017   6.450   8.324  11.684 -0.3050 -1.4106  0.8270
40394SOL     OW27018   3.983  12.238  12.087 -0.1105 -0.3151 -0.0170
40394SOL    HW127019   4.009  12.164  12.033  1.7998 -0.4543  0.9926
40394SOL    HW227020   3.957  12.306  12.024  0.9854 -0.8474 -1.0882
40395SOL     OW27021   0.857  10.251   1.802 -0.2718 -0.0578  0.0332
40395SOL    HW127022   0.794  10.182   1.823 -0.9369 -0.0936 -1.8506
40395SOL    HW227023   0.892  10.279   1.887 -0.3558 -2.3390  0.8848
40396SOL     OW27024  11.561   2.186   2.782  0.1710  0.1862 -0.6307
40396SOL    HW127025  11.507   2.263   2.764 -0.0636 -0.0654 -1.0169
40396SOL    HW227026  11.648   2.210   2.752  0.2798  0.5882 -0.0220
40397SOL     OW27027   1.943   5.752   9.072  0.5302 -0.1337 -0.3772
40397SOL    HW127028   1.992   5.683   9.115  0.9170 -0.3302 -1.1153
40397SOL    HW227029   1.946   5.730   8.979  2.0839  1.7107 -0.8472
40398SOL     OW27030   9.519   1.712  11.834 -0.1595 -0.0093  0.2346
40398SOL    HW127031   9.515   1.731  11.740  0.0027  1.9000  0.5805
40398SOL    HW227032   9.533   1.797  11.875 -2.0873 -0.5274  2.1355
40399SOL     OW27033   7.772   3.558   6.515  0.0606  0.4371 -0.1033
40399SOL    HW127034   7.803   3.480   6.469 -0.7401  0.9356 -1.5495
40399SOL    HW227035   7.682   3.537   6.540  0.1934  0.5147  0.4628
40400SOL     OW27036   0.711   1.302   7.036  0.3352  0.5388 -0.1867
40400SOL    HW127037   0.669   1.372   6.986 -0.8216 -1.1603 -1.7131
40400SOL    HW227038   0.756   1.249   6.971  1.1486 -0.1880  0.9279
40401SOL     OW27039   7.563  11.191  11.686  0.3215  0.8379 -0.2022
40401SOL    HW127040   7.492  11.186  11.750 -0.1193  1.1529 -0.6632
40401SOL    HW227041   7.636  11.229  11.735 -0.3886  2.2455 -0.1960
40402SOL     OW27042   7.555   0.765   7.620 -0.8031  0.2559 -0.8171
40402SOL    HW127043   7.609   0.774   7.541  1.1768 -0.7262  0.3561
40402SOL    HW227044   7.571   0.846   7.669 -1.1915  0.3929 -0.9124
40403SOL     OW27045   2.975   1.000  12.164  0.1044  0.6926 -0.1315
40403SOL    HW127046   2.991   1.011  12.257  0.0098  0.8307 -0.1318
40403SOL    HW227047   2.880   1.003  12.155  0.0122 -0.9647 -0.0275
40404SOL     OW27048   6.838   5.256   6.646 -0.0333 -0.1444 -0.1843
40404SOL    HW127049   6.823   5.282   6.737 -1.8858 -0.9092 -0.2232
40404SOL    HW227050   6.918   5.204   6.648 -0.4473 -0.7607  1.1489
40405SOL     OW27051   4.212   2.134  11.985  0.2162  0.1033 -0.1732
40405SOL    HW127052   4.144   2.138  12.052  0.9325  1.5317  0.5285
40405SOL    HW227053   4.210   2.221  11.944 -0.5870 -0.9028 -2.4393
40406SOL     OW27054   3.730   3.904   1.877 -0.0723 -0.8532 -0.0097
40406SOL    HW127055   3.665   3.967   1.845  1.4302  1.0647  0.5015
40406SOL    HW227056   3.696   3.819   1.851 -2.1829  0.1602 -0.7901
40407SOL     OW27057   2.217   6.376   9.722 -0.3786  0.3062  0.0737
40407SOL    HW127058   2.210   6.407   9.631  1.1551 -0.5119 -0.3575
40407SOL    HW227059   2.249   6.453   9.770 -2.8594  1.2676  0.3039
40408SOL     OW27060   2.954   4.675  11.783  0.0968  0.6040  0.2358
40408SOL    HW127061   3.003   4.667  11.701 -0.0513  0.1379  0.1915
40408SOL    HW227062   2.992   4.610  11.841 -0.2240  0.4895  0.3223
40409SOL     OW27063   8.981  11.231   7.791  0.4196 -0.1715 -0.3743
40409SOL    HW127064   8.943  11.150   7.825  1.9717 -1.1073 -0.7649
40409SOL    HW227065   8.981  11.219   7.696 -1.0246  1.0986 -0.5749
40410SOL     OW27066   9.871   6.174   5.500 -0.2041  0.3668 -0.2917
40410SOL    HW127067   9.881   6.137   5.413 -2.2774  0.3739 -0.5776
40410SOL    HW227068   9.796   6.234   5.493 -0.3964  0.3966  1.4704
40411SOL     OW27069   0.823   6.264   6.636  0.1253 -0.2975  0.1641
40411SOL    HW127070   0.836   6.232   6.546 -0.3080  0.8719 -0.3468
40411SOL    HW227071   0.728   6.274   6.643  0.2052  0.2249  0.5311
40412SOL     OW27072   9.507   3.798   1.625  0.1296 -0.1314  0.1673
40412SOL    HW127073   9.523   3.874   1.681 -0.5300 -1.4394  2.2374
40412SOL    HW227074   9.595   3.766   1.602  0.4565  2.1078 -2.0892
40413SOL     OW27075   6.238   8.980   7.613  0.2056  0.2890  0.1715
40413SOL    HW127076   6.323   9.021   7.595  0.8803 -0.5401  1.3591
40413SOL    HW227077   6.185   9.050   7.652  1.2459  0.1691  1.9101
40414SOL     OW27078   6.113   3.295   4.701  0.0881  0.6368 -0.4310
40414SOL    HW127079   6.118   3.369   4.642 -1.7396  1.0312 -0.1386
40414SOL    HW227080   6.093   3.220   4.645  2.2716  0.2526 -0.7708
40415SOL     OW27081   0.951  11.737   2.175 -0.0369 -0.1662  0.0570
40415SOL    HW127082   0.920  11.678   2.105  1.6385 -2.1116  0.8513
40415SOL    HW227083   0.889  11.723   2.247 -1.1261  1.0285 -0.5917
40416SOL     OW27084   8.771  11.879   3.207  0.4652  0.9137 -0.3230
40416SOL    HW127085   8.848  11.854   3.258  0.3166  0.3458 -0.3780
40416SOL    HW227086   8.786  11.840   3.121 -0.8743 -1.0508  0.2729
40417SOL     OW27087   6.275  12.249   7.512 -0.0717  0.2556 -0.1807
40417SOL    HW127088   6.358  12.287   7.541  0.0983  0.1210 -0.4865
40417SOL    HW227089   6.300  12.169   7.466 -0.3884  0.0820 -0.0493
40418SOL     OW27090   3.287   4.652   4.738 -0.9538 -0.5031  0.1198
40418SOL    HW127091   3.221   4.713   4.706 -0.8176 -0.2857  0.2519
40418SOL    HW227092   3.297   4.588   4.668 -2.4314 -1.4310  0.7024
40419SOL     OW27093   8.335   2.132   1.076 -0.2023  0.1857 -0.0507
40419SOL    HW127094   8.332   2.112   1.170 -0.6592  0.6054  0.0255
40419SOL    HW227095   8.315   2.225   1.071  1.4274  0.5396 -0.4410
40420SOL     OW27096   8.026   1.858   4.744 -0.2124  0.2507 -0.1410
40420SOL    HW127097   8.058   1.839   4.832 -1.9849  0.2567  0.5541
40420SOL    HW227098   8.071   1.795   4.688  1.8468  1.0300  0.5555
40421SOL     OW27099   2.394   6.186   6.472  0.3284 -0.6003 -0.3211
40421SOL    HW127100   2.373   6.141   6.390 -1.0469  0.1557 -0.4022
40421SOL    HW227101   2.316   6.175   6.526  1.1381 -0.9127  0.8326
40422SOL     OW27102   9.349   3.825   6.673  0.2748 -0.0613 -0.9838
40422SOL    HW127103   9.279   3.869   6.624  1.7441  1.0949 -2.1573
40422SOL    HW227104   9.358   3.740   6.629 -1.4376 -0.9289  0.2211
40423SOL     OW27105  12.266  10.033   1.524  0.6686  0.3299  0.0242
40423SOL    HW127106  12.258  10.128   1.528  0.5982  0.2904  1.1240
40423SOL    HW227107  12.254  10.004   1.614 -0.2585 -0.8062 -0.4448
40424SOL     OW27108  11.054   0.837   8.128  0.2457  0.0550 -0.0388
40424SOL    HW127109  11.072   0.927   8.154 -0.4041  0.2926 -0.4009
40424SOL    HW227110  11.089   0.830   8.039  1.9952 -0.6086  0.6504
40425SOL     OW27111   6.702  10.153   5.804 -0.0068  0.0026  0.2307
40425SOL    HW127112   6.645  10.167   5.880 -1.0910 -0.4756 -0.4758
40425SOL    HW227113   6.642  10.145   5.730  0.9513 -0.9656 -0.4731
40426SOL     OW27114  10.614   0.173   0.640 -0.0822 -0.5832  0.1832
40426SOL    HW127115  10.532   0.202   0.681 -0.2344  0.5421 -0.9017
40426SOL    HW227116  10.653   0.116   0.706  0.4698  2.4012  2.6549
40427SOL     OW27117   8.311   8.882   4.958 -0.2427 -0.1652 -0.2750
40427SOL    HW127118   8.341   8.883   4.867 -1.2637 -1.4842 -0.6605
40427SOL    HW227119   8.232   8.936   4.957 -0.0339  0.1467 -0.0780
40428SOL     OW27120  11.853   7.743   1.318  0.7614 -0.3444 -0.4925
40428SOL    HW127121  11.798   7.791   1.379  1.7747  0.7623 -0.4145
40428SOL    HW227122  11.885   7.809   1.257 -0.0894 -1.3903 -2.1662
40429SOL     OW27123   1.501   5.485  12.274  0.1358  0.1987  0.3899
40429SOL    HW127124   1.541   5.571  12.288 -0.9252  0.6462  0.8116
40429SOL    HW227125   1.407   5.500  12.287 -0.0584 -1.0432  0.5619
40430SOL     OW27126  12.135   5.375   1.302  0.7384  0.4914 -0.0550
40430SOL    HW127127  12.085   5.398   1.381  2.2476 -0.3034  1.2047
40430SOL    HW227128  12.219   5.419   1.314  1.4692 -0.7177 -0.5488
40431SOL     OW27129   5.313   8.884   6.674  0.1907 -0.1837  0.2277
40431SOL    HW127130   5.321   8.909   6.766  1.2942 -0.4229  0.2156
40431SOL    HW227131   5.350   8.796   6.669  1.4334  0.3562 -0.6642
40432SOL     OW27132   3.314   2.211   6.071 -0.0598 -0.4427  0.0511
40432SOL    HW127133   3.347   2.188   6.158 -1.4742  0.5230  0.8952
40432SOL    HW227134   3.383   2.267   6.034 -0.1804  0.6016  1.3001
40433SOL     OW27135   7.382   3.074   2.915  0.0798  0.0894  0.0860
40433SOL    HW127136   7.428   2.993   2.938 -1.0448 -0.1908  1.5073
40433SOL    HW227137   7.312   3.080   2.980 -1.6384  0.7083 -1.7291
40434SOL     OW27138  10.396   4.210   9.405  0.0469  0.0585 -0.5088
40434SOL    HW127139  10.312   4.171   9.383 -0.8959  1.6111  0.1489
40434SOL    HW227140  10.446   4.208   9.324  0.3294 -3.0025 -0.3754
40435SOL     OW27141   2.167   0.155   9.046 -0.3471  0.1933  0.3213
40435SOL    HW127142   2.117   0.215   9.100 -2.2193 -0.0387 -1.0663
40435SOL    HW227143   2.156   0.070   9.088 -0.5036  0.2572  0.4078
40436SOL     OW27144   7.162  10.243   5.908  0.4134 -0.4635 -0.6511
40436SOL    HW127145   7.255  10.227   5.923  0.5182 -0.5457 -1.3571
40436SOL    HW227146   7.152  10.241   5.813  0.1028  1.8896 -0.7216
40437SOL     OW27147   3.406   6.203   6.298 -0.3710 -0.0504  0.4854
40437SOL    HW127148   3.389   6.140   6.228  1.7391 -0.4586  0.2687
40437SOL    HW227149   3.357   6.281   6.272 -0.2278 -0.4448 -1.0749
40438SOL     OW27150   7.000   1.150   3.739  0.2148 -0.3944  0.0367
40438SOL    HW127151   6.913   1.111   3.755  0.7001 -0.7918  2.0228
40438SOL    HW227152   6.991   1.240   3.770  0.4863 -0.4173  0.1799
40439SOL     OW27153   6.727  11.652   3.668 -0.6549 -0.1778  0.2245
40439SOL    HW127154   6.670  11.688   3.737  0.5574 -1.1031  1.7948
40439SOL    HW227155   6.810  11.637   3.712  0.3300 -0.3695 -1.6114
40440SOL     OW27156  10.508  11.895   3.867  0.6287 -0.3463  0.0335
40440SOL    HW127157  10.489  11.814   3.818  1.9660 -0.1503 -0.8471
40440SOL    HW227158  10.568  11.867   3.936  1.5038 -0.0370 -0.5872
40441SOL     OW27159   7.016   6.565   0.711 -0.1245 -0.4262 -0.2230
40441SOL    HW127160   7.052   6.650   0.737 -0.5470 -0.2166 -0.3234
40441SOL    HW227161   7.004   6.518   0.793  3.0144 -1.6033 -0.2791
40442SOL     OW27162  10.131  10.111   8.429 -0.3576  0.2499  0.0490
40442SOL    HW127163  10.112  10.069   8.512  1.2772  2.0072  1.4197
40442SOL    HW227164  10.155  10.201   8.452 -0.6040  1.0408 -2.4075
40443SOL     OW27165   0.517   0.511   3.774  0.0733 -0.6734  0.0322
40443SOL    HW127166   0.554   0.423   3.766 -0.2611 -0.6569 -3.4716
40443SOL    HW227167   0.434   0.498   3.818 -1.1068 -2.6374 -2.4840
40444SOL     OW27168  10.418   0.733  11.795  0.1035 -1.1189 -0.5100
40444SOL    HW127169  10.354   0.708  11.728 -0.1504 -1.9512  0.0386
40444SOL    HW227170  10.415   0.829  11.795  1.9553 -0.9094 -3.4917
40445SOL     OW27171   0.422   6.508   7.062 -0.0530  0.7556  0.4774
40445SOL    HW127172   0.450   6.526   7.152  0.8220 -0.1579  0.4143
40445SOL    HW227173   0.380   6.422   7.068  0.1851  0.6033 -0.0205
40446SOL     OW27174   9.294   0.873  10.308  0.1645 -0.5252  0.4401
40446SOL    HW127175   9.377   0.879  10.261  0.2123  1.4744  0.6646
40446SOL    HW227176   9.228   0.894  10.242  0.2261  2.2249  1.1038
40447SOL     OW27177   7.043  12.135   5.910  0.1486 -0.1787 -0.1651
40447SOL    HW127178   7.014  12.226   5.918  0.7707  0.0496 -0.4229
40447SOL    HW227179   7.078  12.129   5.821  0.0539 -0.6890 -0.1725
40448SOL     OW27180   1.120   9.084   2.455 -0.3551 -0.1605 -0.5231
40448SOL    HW127181   1.189   9.121   2.401  1.9515  0.0282  2.2959
40448SOL    HW227182   1.108   8.995   2.422  0.3203  0.2110 -1.8484
40449SOL     OW27183   8.992   2.959  12.006  0.5007 -0.0945  0.3488
40449SOL    HW127184   8.956   2.945  11.918  0.3804 -1.1235  0.5574
40449SOL    HW227185   9.087   2.947  11.995  0.6654  1.3016  0.0673
40450SOL     OW27186   3.239   2.290   0.224  0.4433  0.0671  0.1909
40450SOL    HW127187   3.180   2.319   0.155  0.0443 -0.4987  0.2884
40450SOL    HW227188   3.278   2.371   0.258 -0.8648  0.5323  0.6634
40451SOL     OW27189   6.044   6.278   8.876 -0.3930  0.0676 -0.4738
40451SOL    HW127190   6.116   6.335   8.849 -1.2613  0.8067 -1.2903
40451SOL    HW227191   6.001   6.326   8.946  0.2250 -0.6242  0.3943
40452SOL     OW27192   8.846  11.309   1.941  0.1498 -0.0925 -0.6704
40452SOL    HW127193   8.774  11.338   1.886  0.4122  1.7796 -0.0971
40452SOL    HW227194   8.805  11.249   2.004 -1.1583  1.6413  0.2364
40453SOL     OW27195   9.056   0.684   6.721  0.4752  0.2387 -0.3980
40453SOL    HW127196   9.028   0.676   6.813  0.3608 -0.4319 -0.4865
40453SOL    HW227197   8.974   0.683   6.671  0.6044 -1.4310 -0.6363
40454SOL     OW27198   9.034   9.410  10.077  0.2401 -0.1574  0.0465
40454SOL    HW127199   9.004   9.456   9.999  0.1006  1.4233  1.0037
40454SOL    HW227200   9.129   9.421  10.077  0.2333 -0.0948  0.1415
40455SOL     OW27201  11.534  12.025   8.418  0.2549  0.9225  0.8826
40455SOL    HW127202  11.521  12.117   8.398  2.0994  0.6569 -2.2268
40455SOL    HW227203  11.618  12.003   8.378 -0.4419 -2.2534  0.9019
40456SOL     OW27204   4.516   2.094   6.662  0.3613  0.9525 -0.1841
40456SOL    HW127205   4.473   2.109   6.578  0.6285 -1.2373 -0.7645
40456SOL    HW227206   4.479   2.012   6.695  2.1083  0.4069  0.5830
40457SOL     OW27207   3.873  11.741   5.311 -0.6467  0.5563 -0.0788
40457SOL    HW127208   3.801  11.798   5.337 -1.2958 -0.3789  0.2372
40457SOL    HW227209   3.948  11.799   5.303 -1.2789  1.4424  0.2747
40458SOL     OW27210   8.829   0.945   7.294  0.4497  0.3008  0.1846
40458SOL    HW127211   8.859   1.031   7.265  0.9772  0.8412  2.2035
40458SOL    HW227212   8.830   0.950   7.389  1.3739 -2.2473  0.3826
40459SOL     OW27213   3.367  11.787   9.367 -0.5507  0.0800  0.0823
40459SOL    HW127214   3.362  11.752   9.278 -1.3307 -1.8004  0.8245
40459SOL    HW227215   3.281  11.770   9.405 -0.4862  1.5355  0.9890
40460SOL     OW27216  12.025  10.773   8.611 -0.2354  0.0000 -0.3361
40460SOL    HW127217  12.116  10.749   8.625  0.1038  0.9041 -0.8485
40460SOL    HW227218  12.023  10.868   8.624 -0.6995  0.2926 -2.1309
40461SOL     OW27219   0.463   4.218   0.967  0.0803 -0.1937 -0.3088
40461SOL    HW127220   0.514   4.139   0.949  1.0549 -0.0534  1.5156
40461SOL    HW227221   0.514   4.264   1.034 -0.3350  2.1199 -1.4739
40462SOL     OW27222   6.337   4.325   8.634 -0.1239 -0.4333 -0.2174
40462SOL    HW127223   6.257   4.276   8.656 -0.0882 -0.5337 -0.3104
40462SOL    HW227224   6.331   4.338   8.539 -0.3737  0.1624 -0.1293
40463SOL     OW27225   4.367   1.517   3.848 -0.4079 -0.3702  0.1546
40463SOL    HW127226   4.406   1.495   3.764  2.4740 -1.4873  1.6287
40463SOL    HW227227   4.273   1.515   3.833 -0.0421  1.8295 -3.5297
40464SOL     OW27228   3.222  11.664   5.602  0.1858 -0.1477  0.5414
40464SOL    HW127229   3.292  11.638   5.661 -1.3052 -1.6162  1.7447
40464SOL    HW227230   3.197  11.752   5.633 -0.7205 -0.9736  2.3194
40465SOL     OW27231   1.282   2.866   6.264  0.0127  0.3027  0.5386
40465SOL    HW127232   1.375   2.844   6.260 -0.1560 -0.1842 -1.9404
40465SOL    HW227233   1.257   2.845   6.354  2.0525 -0.5578  0.9590
40466SOL     OW27234  10.172   7.330   0.132 -0.3750  0.1499 -0.3291
40466SOL    HW127235  10.102   7.266   0.144  0.0682 -0.3770 -0.5167
40466SOL    HW227236  10.245   7.296   0.185 -0.4108  0.9321  0.2394
40467SOL     OW27237   3.918   4.303   3.093  0.4008  0.1419  0.1109
40467SOL    HW127238   4.001   4.258   3.108  1.1711  1.0506 -1.1778
40467SOL    HW227239   3.897   4.285   3.001 -0.4986  0.4592  0.2375
40468SOL     OW27240   1.396  10.029  10.174  0.0476 -0.3837  0.1189
40468SOL    HW127241   1.375  10.001  10.085 -0.9421 -0.8785  0.4878
40468SOL    HW227242   1.413  10.123  10.167 -0.7698 -0.2744 -0.4742
40469SOL     OW27243   7.658   6.168   7.722  0.4159  0.1555  0.1744
40469SOL    HW127244   7.594   6.101   7.746 -1.4432  1.0980 -1.7846
40469SOL    HW227245   7.720   6.122   7.665 -0.4100 -0.1063 -0.5435
40470SOL     OW27246   4.024   1.929   5.341  0.3854  1.0350  0.0752
40470SOL    HW127247   3.938   1.952   5.376 -0.5544 -0.7056 -0.9755
40470SOL    HW227248   4.086   1.979   5.395 -1.2491  2.2032  0.9546
40471SOL     OW27249   5.243   5.903   1.823  0.1620 -0.9000  0.2280
40471SOL    HW127250   5.197   5.903   1.907 -0.7002 -0.0753 -0.2204
40471SOL    HW227251   5.250   5.811   1.799 -1.6443 -1.0530  0.1307
40472SOL     OW27252   5.904   3.103   0.625 -0.3065  0.0103 -0.5805
40472SOL    HW127253   5.930   3.047   0.698  1.4210 -0.1558 -1.2741
40472SOL    HW227254   5.956   3.183   0.637 -0.0699  0.0171 -1.5681
40473SOL     OW27255   3.748   1.504   2.860  0.0898 -0.4702 -0.2101
40473SOL    HW127256   3.675   1.566   2.862 -0.9270 -1.6348 -0.3691
40473SOL    HW227257   3.817   1.547   2.910 -1.1742  0.0719  1.1329
40474SOL     OW27258   0.122   4.884   3.652  0.1023  0.9644 -0.4513
40474SOL    HW127259   0.066   4.856   3.724 -0.7165  0.6630 -1.1946
40474SOL    HW227260   0.193   4.819   3.651 -0.9652 -0.2488 -1.1870
40475SOL     OW27261   0.278   3.676   1.657 -0.8156 -0.0773 -0.4408
40475SOL    HW127262   0.235   3.606   1.705 -0.4567  0.3812  0.5884
40475SOL    HW227263   0.280   3.750   1.718  1.5234 -0.1171 -0.3533
40476SOL     OW27264  11.933   3.408   9.158  0.2854 -0.0656 -0.0855
40476SOL    HW127265  11.925   3.396   9.064 -0.7087  0.8919 -0.1336
40476SOL    HW227266  11.968   3.324   9.190  0.8767 -0.3081 -1.3186
40477SOL     OW27267  11.593   8.479   2.631 -0.3164 -0.0805 -0.1331
40477SOL    HW127268  11.588   8.400   2.685  2.6500  0.6022  1.3358
40477SOL    HW227269  11.585   8.551   2.693  0.8239  0.7347 -0.8984
40478SOL     OW27270  11.059   9.371   1.585 -0.3250  0.4357  0.2467
40478SOL    HW127271  10.969   9.400   1.575 -1.3723 -2.3566  0.8081
40478SOL    HW227272  11.089   9.355   1.495 -1.0638 -0.3940  0.1302
40479SOL     OW27273   6.432  11.801   6.098 -0.1698  0.3861 -0.0040
40479SOL    HW127274   6.428  11.710   6.129 -0.9036  0.7422  1.0147
40479SOL    HW227275   6.361  11.845   6.145 -2.7237  0.5634 -3.6790
40480SOL     OW27276   9.075   7.378   1.461  0.6566 -0.0198  0.0112
40480SOL    HW127277   9.033   7.304   1.416  0.4994  0.4321 -0.5922
40480SOL    HW227278   9.164   7.347   1.479  0.1394 -0.9408  1.1927
40481SOL     OW27279   8.194   6.840   0.016 -0.4296  0.2574  0.5488
40481SOL    HW127280   8.253   6.765   0.025 -1.1201 -0.1710  1.9179
40481SOL    HW227281   8.107   6.801   0.015 -0.7756  1.0062  0.7804
40482SOL     OW27282   2.740   7.228   3.966 -0.5990 -0.7540  0.1233
40482SOL    HW127283   2.650   7.196   3.976 -1.0620  0.1507 -0.9197
40482SOL    HW227284   2.744   7.306   4.021 -1.5952  1.2738 -2.4751
40483SOL     OW27285   6.603   4.050   9.310  0.1897 -0.4276  0.2034
40483SOL    HW127286   6.653   4.041   9.390  1.7705  3.5673 -0.0686
40483SOL    HW227287   6.665   4.027   9.240 -0.1881 -0.9550  0.0416
40484SOL     OW27288   6.947   2.323  11.824 -0.1405  0.2430 -0.3964
40484SOL    HW127289   6.981   2.381  11.755 -1.4870 -1.0670 -2.2829
40484SOL    HW227290   6.981   2.237  11.800 -1.8098 -0.4799 -0.2925
40485SOL     OW27291   0.490   7.169   3.208  0.4348  0.0009  0.1947
40485SOL    HW127292   0.410   7.141   3.253 -0.2160  1.2640 -0.1164
40485SOL    HW227293   0.559   7.162   3.275  0.2375 -1.8388  0.2476
40486SOL     OW27294  10.107   2.282  12.155 -0.0179  0.0900 -0.2630
40486SOL    HW127295  10.076   2.352  12.098  0.4680  1.0167  0.5848
40486SOL    HW227296  10.199   2.303  12.170 -0.1545 -0.1074  0.9101
40487SOL     OW27297   6.894   3.092   8.868  0.5908 -0.3210  0.4331
40487SOL    HW127298   6.896   3.137   8.783  1.7562 -0.9828  0.0881
40487SOL    HW227299   6.814   3.039   8.865  0.2290  0.2383  0.0579
40488SOL     OW27300  11.330   3.604   8.466  0.1950 -0.7568  0.4023
40488SOL    HW127301  11.321   3.662   8.391  0.7677 -0.0660  0.8509
40488SOL    HW227302  11.282   3.525   8.442  2.8022 -1.7634 -1.9154
40489SOL     OW27303  10.018   7.883  10.997  0.1094 -0.0865  0.2902
40489SOL    HW127304  10.081   7.950  11.022  0.4339 -0.3096  0.0919
40489SOL    HW227305   9.932   7.922  11.013  0.2853 -0.6409  2.8941
40490SOL     OW27306   2.244   8.599   9.636  0.1507 -0.4268 -0.3078
40490SOL    HW127307   2.297   8.618   9.559  2.0267 -1.3336  0.6868
40490SOL    HW227308   2.206   8.684   9.660  3.1215  0.8717  0.3083
40491SOL     OW27309   0.212   1.678   4.356 -0.3734 -0.7220 -0.1674
40491SOL    HW127310   0.129   1.712   4.391 -0.2918 -0.6389 -0.0530
40491SOL    HW227311   0.258   1.756   4.326 -0.1658 -0.7270  0.1343
40492SOL     OW27312   2.705   5.494   3.397 -0.4474  0.3476  0.0489
40492SOL    HW127313   2.747   5.552   3.334 -2.1007 -0.1845 -1.6179
40492SOL    HW227314   2.711   5.542   3.480  1.5622  1.1742 -0.5068
40493SOL     OW27315   8.839   8.168   7.723  0.0549  0.0497 -0.1982
40493SOL    HW127316   8.777   8.189   7.792 -0.3612  0.0347 -0.5654
40493SOL    HW227317   8.827   8.074   7.707 -0.7106  0.2936 -1.1246
40494SOL     OW27318  11.853   3.455  10.980  0.5623 -0.0952 -0.0729
40494SOL    HW127319  11.919   3.405  10.933 -0.5348 -1.9069  0.2058
40494SOL    HW227320  11.791   3.483  10.913  1.0727  0.7615 -0.2026
40495SOL     OW27321   6.326   0.855  11.122  0.4057  0.3510  0.3299
40495SOL    HW127322   6.255   0.827  11.065  1.7813 -0.7330 -0.9069
40495SOL    HW227323   6.309   0.809  11.205 -0.3488  0.1777  0.0919
40496SOL     OW27324   3.168   2.597   0.547  0.1371 -0.4116  0.4447
40496SOL    HW127325   3.252   2.581   0.591  0.1719 -3.5163 -0.5086
40496SOL    HW227326   3.132   2.673   0.593  3.0159  0.4953  1.4890
40497SOL     OW27327   8.699   6.605   6.661 -0.2333 -0.0229  0.2797
40497SOL    HW127328   8.616   6.564   6.685 -0.4475  0.6786  0.7932
40497SOL    HW227329   8.692   6.694   6.696  0.8044 -0.0057  0.4807
40498SOL     OW27330   5.903   6.251   3.919  0.4576 -0.4649 -0.0460
40498SOL    HW127331   5.871   6.168   3.883  1.9006 -1.5779  1.1090
40498SOL    HW227332   5.907   6.310   3.844 -1.2240 -1.2343 -0.7696
40499SOL     OW27333   3.406   8.488   3.934  0.6271 -0.5802  0.2551
40499SOL    HW127334   3.340   8.545   3.972  2.3332  0.5454  1.7116
40499SOL    HW227335   3.395   8.405   3.979 -0.8586 -0.9618 -0.7477
40500SOL     OW27336   8.154   9.592   7.747 -0.0264 -0.7135 -0.3710
40500SOL    HW127337   8.069   9.562   7.778  0.5863  0.1303  2.5246
40500SOL    HW227338   8.171   9.672   7.798  2.3233 -0.6404 -1.1248
40501SOL     OW27339  11.289   7.530   3.733 -0.4551  0.5869  0.6538
40501SOL    HW127340  11.362   7.523   3.795 -0.4712 -1.6356  0.5260
40501SOL    HW227341  11.306   7.610   3.683  1.7748  0.2571  0.8065
40502SOL     OW27342   4.820   6.158   6.049 -0.3611 -0.1574 -0.1285
40502SOL    HW127343   4.802   6.205   5.968  0.3606  2.4594  1.0913
40502SOL    HW227344   4.754   6.190   6.111  0.1050 -0.8101  0.7284
40503SOL     OW27345   3.506   0.334   2.458  0.5564  0.3047 -0.1862
40503SOL    HW127346   3.454   0.409   2.489  0.6539 -0.5078  2.1800
40503SOL    HW227347   3.573   0.372   2.402 -1.5528  1.5556 -2.0309
40504SOL     OW27348   8.749   2.456   6.071  0.5218  0.1619 -0.0890
40504SOL    HW127349   8.727   2.546   6.095  0.5877  0.5247 -1.2988
40504SOL    HW227350   8.669   2.423   6.029  0.7890 -0.0272 -0.4612
40505SOL     OW27351   2.028  10.403   2.045 -0.0524 -0.2291  0.0850
40505SOL    HW127352   2.033  10.427   2.138  0.4201 -0.9359  0.2521
40505SOL    HW227353   1.935  10.382   2.031  0.0910 -1.4615  0.7708
40506SOL     OW27354   8.606   8.857   4.873 -0.5131  0.0814  0.3105
40506SOL    HW127355   8.628   8.788   4.935  0.0402 -1.4306 -1.4856
40506SOL    HW227356   8.513   8.843   4.852  0.3346 -2.4345 -2.6018
40507SOL     OW27357   5.255   6.463   7.279 -0.8315  0.0820 -0.3971
40507SOL    HW127358   5.227   6.383   7.325 -1.0121  1.4166  1.9564
40507SOL    HW227359   5.351   6.459   7.281 -0.7349  1.3670  2.6403
40508SOL     OW27360  10.866   8.160   2.646  0.4959 -0.0396 -0.5923
40508SOL    HW127361  10.776   8.189   2.660  0.7590  0.5054 -0.0053
40508SOL    HW227362  10.901   8.147   2.734  1.6709  1.8845 -0.7289
40509SOL     OW27363   8.989  11.735   1.716  0.0412 -0.7700 -0.2243
40509SOL    HW127364   8.942  11.682   1.651  0.2467 -1.4491  0.1689
40509SOL    HW227365   8.987  11.682   1.796 -1.6479  0.7366  0.8292
40510SOL     OW27366   9.427   3.541   3.105 -0.0574  0.0867  0.4422
40510SOL    HW127367   9.388   3.615   3.060  0.0660 -0.4747 -0.6149
40510SOL    HW227368   9.359   3.512   3.166 -0.2875  0.7552  0.5083
40511SOL     OW27369   5.840  10.825   9.073  0.1937 -0.3222  0.1368
40511SOL    HW127370   5.768  10.764   9.091 -0.5289  0.4604 -0.0325
40511SOL    HW227371   5.919  10.775   9.093 -0.4262 -0.7762  1.6539
40512SOL     OW27372   1.943  11.811   2.345  0.0509 -0.0202 -1.0200
40512SOL    HW127373   1.991  11.811   2.262 -0.1491  1.3411 -1.1598
40512SOL    HW227374   1.924  11.903   2.362 -1.0348 -0.3874 -0.1014
40513SOL     OW27375   4.935  10.244  11.411  0.0187  0.1955 -0.6456
40513SOL    HW127376   5.014  10.290  11.438  0.2968 -0.5918 -0.0756
40513SOL    HW227377   4.890  10.223  11.493 -0.9286  0.8670 -0.9717
40514SOL     OW27378   8.040   1.413   4.573  0.2519  0.7789 -0.1420
40514SOL    HW127379   8.135   1.417   4.566  0.1520  3.5969 -1.6255
40514SOL    HW227380   8.011   1.368   4.494  0.3260  1.2881 -0.4643
40515SOL     OW27381  11.070   5.524   6.042 -0.4705  0.7986 -0.3455
40515SOL    HW127382  11.017   5.529   5.962  0.0814 -0.7682 -0.8383
40515SOL    HW227383  11.131   5.452   6.026 -1.6675 -0.9385  2.2765
40516SOL     OW27384   2.398   2.899   0.182 -0.3691 -0.3712  0.3495
40516SOL    HW127385   2.363   2.884   0.270  0.6002  0.1074  0.8279
40516SOL    HW227386   2.489   2.870   0.186 -0.0119  0.6245 -0.2000
40517SOL     OW27387  11.515   8.575   9.642 -0.3680  0.0779  0.4652
40517SOL    HW127388  11.492   8.497   9.691  1.1701 -1.4210 -1.0802
40517SOL    HW227389  11.562   8.543   9.565  0.8144  2.5383  0.0414
40518SOL     OW27390  11.008   2.188   2.959  0.1258  0.4944  0.4541
40518SOL    HW127391  11.090   2.150   2.925  0.2877  1.5742 -0.4420
40518SOL    HW227392  11.034   2.275   2.990 -0.9539  1.6128 -1.5371
40519SOL     OW27393   5.218   8.860  10.852 -0.6839 -0.1991 -0.0149
40519SOL    HW127394   5.174   8.775  10.861  2.2346 -1.6610  1.9991
40519SOL    HW227395   5.283   8.846  10.784 -0.1101  0.3775  0.4097
40520SOL     OW27396   2.361   1.032  10.961  0.1669 -0.1792 -0.1725
40520SOL    HW127397   2.350   0.939  10.941  1.6931 -0.5098  0.4052
40520SOL    HW227398   2.455   1.043  10.974 -0.1228  1.1958  1.0235
40521SOL     OW27399   1.634   5.908   4.242  0.4961 -0.4804  0.3301
40521SOL    HW127400   1.625   5.968   4.315 -1.3734  0.0350 -0.2625
40521SOL    HW227401   1.579   5.833   4.266 -1.3457  0.3114 -1.0671
40522SOL     OW27402   8.649   0.624  10.380  0.0461  0.4704  0.2503
40522SOL    HW127403   8.687   0.648  10.465  1.4304  1.6132 -0.6482
40522SOL    HW227404   8.560   0.658  10.383 -0.2841 -0.4722  1.6549
40523SOL     OW27405  11.732   5.618   6.622  0.3268  0.5607 -0.4377
40523SOL    HW127406  11.747   5.588   6.712 -1.0757 -0.5107 -0.5340
40523SOL    HW227407  11.647   5.663   6.625  0.4404  0.8387 -1.1619
40524SOL     OW27408   7.293   9.365   6.058 -0.2152  0.2824  0.1702
40524SOL    HW127409   7.385   9.387   6.071  0.1242 -1.0551  0.1413
40524SOL    HW227410   7.295   9.285   6.005 -1.3202 -1.0252  1.9954
40525SOL     OW27411  11.464  11.857   1.967  0.0605  0.0246  0.1898
40525SOL    HW127412  11.383  11.810   1.983 -0.5050  1.0732  0.4745
40525SOL    HW227413  11.449  11.905   1.886 -0.2564  1.5501  1.1046
40526SOL     OW27414   6.259   4.152   3.726 -0.3008  0.1932 -0.4803
40526SOL    HW127415   6.226   4.171   3.638  0.5525  1.8516 -0.4883
40526SOL    HW227416   6.186   4.109   3.770 -0.6940 -0.8450 -2.0366
40527SOL     OW27417   8.639  11.450   6.963  0.3687 -0.3098  0.5756
40527SOL    HW127418   8.581  11.441   6.888 -0.7819  1.9319  1.0976
40527SOL    HW227419   8.700  11.376   6.956  1.4212  0.6920 -3.4859
40528SOL     OW27420   5.605   3.274   0.516  0.0522  0.3788 -0.2526
40528SOL    HW127421   5.666   3.200   0.510 -1.5946 -1.1736  0.8699
40528SOL    HW227422   5.661   3.352   0.516  2.0250 -0.9492  0.6187
40529SOL     OW27423   2.391   1.346   6.100  0.6428 -0.2438 -0.0155
40529SOL    HW127424   2.432   1.373   6.183 -0.1609  2.7224 -0.4758
40529SOL    HW227425   2.351   1.262   6.120 -0.1359  0.6957  2.8776
40530SOL     OW27426   8.543   1.588   2.126  0.0499  0.3629 -0.0501
40530SOL    HW127427   8.543   1.651   2.053 -2.1455 -1.7490 -2.0540
40530SOL    HW227428   8.574   1.506   2.087  0.7472 -0.3633  1.9276
40531SOL     OW27429   0.879   6.127  11.224 -0.2807  0.0975 -0.1879
40531SOL    HW127430   0.950   6.063  11.220  0.4450  0.9112 -0.4264
40531SOL    HW227431   0.919   6.206  11.259 -0.6237  1.1293 -1.9676
40532SOL     OW27432   3.271  10.198   4.131  0.2738  0.3906  0.0099
40532SOL    HW127433   3.222  10.253   4.070 -2.3710 -0.6784  1.0141
40532SOL    HW227434   3.271  10.247   4.214 -0.4558 -0.2516  0.4060
40533SOL     OW27435  10.652   9.164  10.445  0.3087  0.1760 -0.0126
40533SOL    HW127436  10.609   9.198  10.366  0.2850  0.2331  0.0246
40533SOL    HW227437  10.735   9.212  10.448  1.3243 -1.3940 -1.2189
40534SOL     OW27438  12.183  12.154   0.398  0.0446  0.1701  0.0682
40534SOL    HW127439  12.161  12.247   0.402  1.8702  0.6067  0.6405
40534SOL    HW227440  12.265  12.151   0.349 -0.6948 -1.2959 -1.1680
40535SOL     OW27441   3.214   5.547   0.515 -0.7482  0.4203  0.7788
40535SOL    HW127442   3.293   5.583   0.556  0.5388 -1.9105  0.5298
40535SOL    HW227443   3.149   5.617   0.522  1.2612  2.3560  1.1912
40536SOL     OW27444   4.443   3.571  10.016  0.4031  0.0660  0.4475
40536SOL    HW127445   4.510   3.523  10.065  0.5633  0.3258  0.4838
40536SOL    HW227446   4.483   3.656   9.997  0.8155 -0.4397 -1.1696
40537SOL     OW27447   6.283   4.970   2.607 -0.0645 -0.4904 -0.0205
40537SOL    HW127448   6.228   5.011   2.540  0.5185 -0.6843 -0.6302
40537SOL    HW227449   6.275   4.876   2.589 -0.1570 -0.5587  0.3829
40538SOL     OW27450   3.621  11.440   9.961  0.3245 -0.2880 -0.1928
40538SOL    HW127451   3.664  11.459  10.045  1.0475  1.0134 -0.8379
40538SOL    HW227452   3.610  11.345   9.962 -4.0196 -0.0929  3.4660
40539SOL     OW27453   3.649   6.051   7.909 -0.1326  0.1169  0.4049
40539SOL    HW127454   3.627   5.958   7.918  0.3710  0.1915  3.5058
40539SOL    HW227455   3.745   6.053   7.910 -0.1364  0.6634 -0.0785
40540SOL     OW27456  10.511   4.196   7.782 -0.0890  0.2318 -0.1665
40540SOL    HW127457  10.540   4.182   7.872  2.5410 -1.1824 -1.1435
40540SOL    HW227458  10.515   4.291   7.769  2.1377  0.2520  0.4382
40541SOL     OW27459   7.248   5.737   4.046 -0.0982 -0.0841  0.3846
40541SOL    HW127460   7.267   5.738   3.952 -1.4967 -0.7246  0.0693
40541SOL    HW227461   7.312   5.677   4.083 -0.6864 -1.2704 -0.4562
40542SOL     OW27462   0.471   5.788   6.472  0.0313  0.1520 -0.1556
40542SOL    HW127463   0.414   5.864   6.466  2.8588  2.4366 -0.4201
40542SOL    HW227464   0.538   5.813   6.536 -0.1463 -3.0821  1.5217
40543SOL     OW27465   6.356   1.620   1.119 -0.5409  0.4916  0.5463
40543SOL    HW127466   6.440   1.648   1.154  0.2036  0.7039 -1.2749
40543SOL    HW227467   6.306   1.701   1.107 -0.4829  0.5012  0.3668
40544SOL     OW27468   8.185   7.248   1.203  0.1822  0.0778  0.3431
40544SOL    HW127469   8.226   7.331   1.178  1.2208 -0.5025  0.0619
40544SOL    HW227470   8.134   7.269   1.281 -0.7563  1.2965 -0.5662
40545SOL     OW27471   5.525   9.885   2.025 -0.2369 -0.3894  0.2499
40545SOL    HW127472   5.440   9.852   1.994 -0.5388  1.4933 -1.0903
40545SOL    HW227473   5.506   9.921   2.112 -1.0006  0.6278 -0.3114
40546SOL     OW27474   0.570  12.066   7.416 -0.5032 -0.2330 -0.3142
40546SOL    HW127475   0.482  12.086   7.446 -1.1500 -2.4100 -0.6076
40546SOL    HW227476   0.559  12.030   7.328  0.8632  1.0382 -1.0629
40547SOL     OW27477   3.140   1.763   9.560  0.2461 -0.0178 -0.0509
40547SOL    HW127478   3.235   1.775   9.557  0.2871 -0.2148  0.3200
40547SOL    HW227479   3.115   1.798   9.646 -0.1211  0.7440 -0.4661
40548SOL     OW27480  11.397  12.105   3.888 -0.2709 -0.2672 -0.1021
40548SOL    HW127481  11.337  12.170   3.852 -0.5412 -1.1354 -1.2584
40548SOL    HW227482  11.368  12.022   3.851  0.3231 -1.0051  1.0306
40549SOL     OW27483   8.270   9.190   5.131  0.2605  0.3590 -0.0620
40549SOL    HW127484   8.203   9.143   5.080 -2.0314  1.8829  1.3313
40549SOL    HW227485   8.276   9.276   5.088  0.2818  0.7117  0.6428
40550SOL     OW27486   7.771   7.909   4.879 -0.6380  0.1243 -0.8322
40550SOL    HW127487   7.859   7.938   4.855 -0.8766  1.0852 -0.5769
40550SOL    HW227488   7.721   7.989   4.890 -1.3346 -0.3857 -0.1507
40551SOL     OW27489  10.091   2.034  11.489 -0.3098 -0.3867  0.0194
40551SOL    HW127490  10.001   2.065  11.500  0.1316  1.5755 -1.4028
40551SOL    HW227491  10.119   2.011  11.577 -1.5245  0.9649  0.8126
40552SOL     OW27492  12.242   7.556   1.507  0.1762  0.4234  0.0317
40552SOL    HW127493  12.323   7.545   1.557  1.3150 -0.8459 -1.9393
40552SOL    HW227494  12.193   7.476   1.522  0.7251 -0.1604 -1.1582
40553SOL     OW27495   4.783   9.065   6.059 -0.2823  0.1452  0.3243
40553SOL    HW127496   4.722   8.996   6.085  0.2574 -0.8835 -1.0319
40553SOL    HW227497   4.757   9.087   5.969  1.8664 -0.9653 -0.6384
40554SOL     OW27498   6.373   3.694  10.166 -0.0452 -0.4345 -0.0115
40554SOL    HW127499   6.345   3.738  10.246 -1.8904 -0.2582 -0.6846
40554SOL    HW227500   6.468   3.706  10.163  0.1064 -0.7108  2.2723
40555SOL     OW27501   5.602   5.505   4.569 -0.5075 -0.4101 -0.1793
40555SOL    HW127502   5.684   5.476   4.609  0.4629  1.2066 -0.8704
40555SOL    HW227503   5.590   5.446   4.494  0.0313 -0.6811 -0.0579
40556SOL     OW27504   2.692   4.145  11.154  0.1783  0.0391 -0.5130
40556SOL    HW127505   2.637   4.189  11.089 -0.0514  2.6656  1.2984
40556SOL    HW227506   2.767   4.203  11.166  0.7197 -0.8660  0.8356
40557SOL     OW27507   8.258   8.754   6.446  0.2955 -0.3397 -0.0498
40557SOL    HW127508   8.256   8.712   6.360  0.7695 -0.7725  0.1462
40557SOL    HW227509   8.329   8.819   6.438  2.7163 -2.6473  1.0157
40558SOL     OW27510   5.484   5.693   0.978  0.0712  0.2459  0.3136
40558SOL    HW127511   5.489   5.734   0.892 -0.5131 -1.2152 -0.4479
40558SOL    HW227512   5.556   5.630   0.979  0.0470  0.2247  0.8677
40559SOL     OW27513   3.741   5.224  10.675 -0.2650  0.0716  0.4012
40559SOL    HW127514   3.798   5.202  10.749 -0.2444 -0.4921  0.2209
40559SOL    HW227515   3.671   5.276  10.713 -1.2191 -1.6693  1.1509
40560SOL     OW27516   7.964   5.878   0.604  0.2130  0.1039 -0.4594
40560SOL    HW127517   8.009   5.807   0.650  2.4270  0.7508 -1.4758
40560SOL    HW227518   7.908   5.833   0.540  0.0519 -0.7390  0.2605
40561SOL     OW27519  10.957  12.021   2.672  0.1377  0.3554  0.4712
40561SOL    HW127520  11.023  12.057   2.613 -0.2243 -0.0338 -0.1810
40561SOL    HW227521  10.880  12.076   2.660  0.4127  0.9747  1.4276
40562SOL     OW27522   3.110   4.608   6.607 -0.3488  0.2833 -0.1344
40562SOL    HW127523   3.153   4.681   6.563 -1.9065  2.6062  1.8654
40562SOL    HW227524   3.179   4.566   6.659  0.8273 -0.5339 -2.2572
40563SOL     OW27525  10.163  12.056   8.642 -0.3635 -0.1957  0.2891
40563SOL    HW127526  10.158  11.965   8.614 -1.4384 -0.2643  0.6757
40563SOL    HW227527  10.074  12.090   8.633  0.3015  1.3068 -1.4163
40564SOL     OW27528   9.281   5.917   5.205 -0.4746 -0.7193  0.2347
40564SOL    HW127529   9.223   5.992   5.214  2.3021  1.3498  2.9243
40564SOL    HW227530   9.274   5.871   5.289  0.6924 -1.2410  0.0677
40565SOL     OW27531   4.301   4.963   3.856 -0.1757  0.9335 -0.4074
40565SOL    HW127532   4.281   4.873   3.884  1.2981  1.3919  2.5109
40565SOL    HW227533   4.224   5.014   3.882 -0.0118  0.8831  0.1887
40566SOL     OW27534   3.698  11.669   3.915 -0.3021 -0.0547  0.4655
40566SOL    HW127535   3.668  11.759   3.929 -0.6111  0.0173 -0.5662
40566SOL    HW227536   3.683  11.625   3.998 -1.9942  0.3473  0.4081
40567SOL     OW27537   8.897   4.356   2.728  0.5131  0.4775 -0.5636
40567SOL    HW127538   8.848   4.390   2.802  1.3007 -0.8048  0.5916
40567SOL    HW227539   8.938   4.275   2.760  1.8611  0.5168 -2.0134
40568SOL     OW27540   7.698   6.366   6.688  0.0414 -0.3004  0.5179
40568SOL    HW127541   7.762   6.296   6.678 -1.5329 -1.9563  1.4221
40568SOL    HW227542   7.616   6.329   6.656 -0.9311  0.9552  1.4452
40569SOL     OW27543   9.024   5.303   7.830  0.2958  0.3033 -0.0682
40569SOL    HW127544   9.093   5.339   7.885  0.9212  0.4637 -0.9284
40569SOL    HW227545   9.064   5.297   7.743 -0.6704  0.0745 -0.5072
40570SOL     OW27546   2.840   1.301   8.779  0.3139 -0.4452 -0.0447
40570SOL    HW127547   2.912   1.362   8.797 -0.3725 -0.2985  2.6911
40570SOL    HW227548   2.884   1.219   8.755  1.3218  0.2468 -0.6283
40571SOL     OW27549   4.717   0.254   1.310  0.1286 -0.1431  0.3242
40571SOL    HW127550   4.803   0.257   1.269 -0.1547  3.9486 -0.4306
40571SOL    HW227551   4.721   0.322   1.378 -2.5179  0.2145  0.2115
40572SOL     OW27552  12.155   3.129   4.548  0.5602 -0.1248  0.4388
40572SOL    HW127553  12.163   3.219   4.581  2.6808  0.3664 -1.2177
40572SOL    HW227554  12.220   3.080   4.598  1.9999  0.0963 -1.1197
40573SOL     OW27555   6.067   4.057  11.860  0.2682 -0.1799  0.2480
40573SOL    HW127556   6.007   4.036  11.789 -0.3587 -1.3182  1.0781
40573SOL    HW227557   6.019   4.119  11.915 -0.6178 -1.8439  1.4539
40574SOL     OW27558  10.122   9.276   9.972  0.1462  0.2820  0.5496
40574SOL    HW127559  10.052   9.300   9.911 -0.6035  0.1354  1.3215
40574SOL    HW227560  10.123   9.348  10.036  0.4858  0.1252  0.7205
40575SOL     OW27561   4.087   2.735   0.891  0.1529 -0.2304  0.2266
40575SOL    HW127562   4.074   2.737   0.797 -0.7776 -1.0161  0.3214
40575SOL    HW227563   4.155   2.669   0.905  0.0005 -0.4077  0.1307
40576SOL     OW27564   4.877   3.545   8.192 -0.1949  0.0497 -0.3483
40576SOL    HW127565   4.895   3.533   8.285  0.0681  0.4629 -0.3467
40576SOL    HW227566   4.789   3.509   8.180 -0.7361  1.1368  0.3026
40577SOL     OW27567   2.346  10.422  11.548  0.4222 -0.1926  0.7221
40577SOL    HW127568   2.324  10.408  11.640  0.8214 -1.3774  0.6427
40577SOL    HW227569   2.404  10.498  11.549  1.5001 -1.0051  1.5898
40578SOL     OW27570   7.421   8.482   9.243 -0.7706 -0.2046 -1.3230
40578SOL    HW127571   7.499   8.538   9.247 -0.0954 -1.1838  2.0738
40578SOL    HW227572   7.448   8.407   9.190 -0.3267  0.6378 -2.3526
40579SOL     OW27573   2.001   5.075   3.434  0.3950  0.1019 -0.1015
40579SOL    HW127574   1.946   5.111   3.503  0.0299  0.1302 -0.4077
40579SOL    HW227575   2.082   5.049   3.479 -0.0904 -0.4809  0.4456
40580SOL     OW27576   3.067  10.863  11.529 -0.0750 -0.3800 -0.6460
40580SOL    HW127577   3.079  10.888  11.621  0.2954  1.2437 -1.0945
40580SOL    HW227578   3.014  10.784  11.532  1.4625 -1.4202  1.0286
40581SOL     OW27579   9.625  11.187   2.719  0.4476  0.2146 -0.3103
40581SOL    HW127580   9.605  11.273   2.681  0.6227  0.2851 -0.2413
40581SOL    HW227581   9.645  11.205   2.810 -0.9548 -0.0756  0.0802
40582SOL     OW27582  11.698   8.975   4.472 -0.0831 -0.0869  0.3663
40582SOL    HW127583  11.623   8.965   4.413 -0.1258  0.9921  0.2173
40582SOL    HW227584  11.754   8.900   4.452 -0.5734 -0.2748 -0.3417
40583SOL     OW27585   0.683   1.914   0.677  0.3601 -0.3501 -0.2922
40583SOL    HW127586   0.676   1.865   0.759  0.4158 -0.5738 -0.4208
40583SOL    HW227587   0.723   1.997   0.703 -0.9828  0.1915  0.1466
40584SOL     OW27588   4.916  11.383   2.738 -0.3313 -0.5876  0.0084
40584SOL    HW127589   4.981  11.425   2.795 -1.5429  0.4748  0.6671
40584SOL    HW227590   4.927  11.289   2.754  1.1651 -0.4514 -0.0593
40585SOL     OW27591   4.489  10.906   0.611 -0.2906 -0.3829 -0.1473
40585SOL    HW127592   4.485  10.974   0.678  0.1928  0.2240 -0.7179
40585SOL    HW227593   4.420  10.844   0.635 -1.6636  0.9959 -0.3355
40586SOL     OW27594   8.613   3.556   8.150 -0.1243  0.3128 -0.4639
40586SOL    HW127595   8.634   3.627   8.211 -2.3160 -0.0872  0.8475
40586SOL    HW227596   8.678   3.488   8.170 -0.3142  0.5008  0.8874
40587SOL     OW27597   3.174  10.163   0.677 -0.5334  0.0391  1.1225
40587SOL    HW127598   3.130  10.109   0.742  0.0777  1.1851  2.5434
40587SOL    HW227599   3.208  10.101   0.613 -0.9357 -1.1382  2.0179
40588SOL     OW27600   9.359   6.927   0.935 -0.4721  0.5579  0.3093
40588SOL    HW127601   9.365   7.020   0.913 -1.8836  1.0733  1.9225
40588SOL    HW227602   9.305   6.924   1.013  1.8566 -1.3887  2.0080
40589SOL     OW27603   0.445  10.774   3.703  0.5797 -0.1202  0.3988
40589SOL    HW127604   0.462  10.866   3.722 -0.3207 -0.0943  1.1662
40589SOL    HW227605   0.466  10.728   3.784 -2.2943 -0.1463  1.2308
40590SOL     OW27606   2.600   8.906   9.946  0.2120  0.3991  0.3034
40590SOL    HW127607   2.634   8.869  10.028 -0.0339  1.0353  0.6968
40590SOL    HW227608   2.532   8.845   9.919  1.6280 -0.9094 -0.5006
40591SOL     OW27609  11.794  10.386   4.904  0.0851  0.4669  0.1616
40591SOL    HW127610  11.719  10.415   4.852  0.2449  1.9498  0.6976
40591SOL    HW227611  11.870  10.418   4.855  0.2257  2.1917  1.4191
40592SOL     OW27612   4.924   3.078   0.722 -0.5848 -0.2166 -0.4404
40592SOL    HW127613   5.008   3.035   0.703 -0.4564  0.0732 -0.5254
40592SOL    HW227614   4.946   3.169   0.740 -0.6054 -0.6261  1.9446
40593SOL     OW27615   0.435   5.820  11.958  0.1471  0.0617  0.0716
40593SOL    HW127616   0.389   5.774  11.888 -0.1185 -0.5230  0.6128
40593SOL    HW227617   0.466   5.900  11.918  0.8752 -0.7253 -0.9783
40594SOL     OW27618   1.018   7.418   1.052  0.0197  0.1140  0.3846
40594SOL    HW127619   1.006   7.511   1.073 -1.4326 -0.0218  0.2764
40594SOL    HW227620   1.108   7.412   1.020  1.0374  1.0049  2.8661
40595SOL     OW27621   9.681   2.207   0.333 -0.5459  0.0195 -0.0466
40595SOL    HW127622   9.639   2.203   0.420  1.6088  0.5858  1.0886
40595SOL    HW227623   9.636   2.280   0.289 -0.3720  1.0386  1.3747
40596SOL     OW27624   9.434   8.599   1.531 -0.5190  0.5489 -0.7256
40596SOL    HW127625   9.379   8.522   1.548 -1.8084  1.2757 -1.5014
40596SOL    HW227626   9.396   8.668   1.584 -0.2762  1.0323 -1.1735
40597SOL     OW27627   2.729   2.400   1.401 -0.2219 -0.7540  0.2504
40597SOL    HW127628   2.673   2.325   1.378 -0.6786 -0.1525 -0.6641
40597SOL    HW227629   2.818   2.368   1.388 -0.4048 -1.2334  0.1460
40598SOL     OW27630   7.495   4.016   1.480  0.3475  0.0772  0.2538
40598SOL    HW127631   7.459   3.929   1.466  1.6048 -0.9465  2.7884
40598SOL    HW227632   7.421   4.068   1.512  0.1944 -0.9194  1.6040
40599SOL     OW27633   8.418   7.704   3.634  0.2085  0.3326  0.3333
40599SOL    HW127634   8.440   7.611   3.636 -2.2380 -0.2852  0.4832
40599SOL    HW227635   8.425   7.733   3.725  0.3408  0.1449  0.3826
40600SOL     OW27636   4.316   5.020   0.334  0.1601  0.7579 -0.1270
40600SOL    HW127637   4.358   5.031   0.249  1.5681 -0.1119  0.4242
40600SOL    HW227638   4.296   5.110   0.362  2.3079  1.3082 -0.1399
40601SOL     OW27639  12.111   2.769   9.063 -0.1477 -0.2126  0.4436
40601SOL    HW127640  12.060   2.721   8.998 -1.3090  1.4037  0.0729
40601SOL    HW227641  12.200   2.734   9.055 -0.8415 -1.9658 -0.0653
40602SOL     OW27642  11.417   4.594   2.631  0.2528  0.2415  0.0866
40602SOL    HW127643  11.450   4.610   2.719  1.0265 -0.8979  0.0324
40602SOL    HW227644  11.443   4.672   2.581  1.4251  0.1099  0.4536
40603SOL     OW27645  10.871   9.954  10.080  0.3249 -0.4387  0.0296
40603SOL    HW127646  10.961   9.981  10.098  0.4936 -1.1748  0.3077
40603SOL    HW227647  10.817  10.016  10.128  0.7218 -0.9822  1.2081
40604SOL     OW27648  11.093   6.328   0.635 -0.0622  0.0594  0.1517
40604SOL    HW127649  11.129   6.332   0.724  0.5814  2.0764 -0.1303
40604SOL    HW227650  11.159   6.279   0.585  1.9223  2.7676 -0.1148
40605SOL     OW27651   8.686   8.837   8.627 -0.7889 -0.1691 -0.1117
40605SOL    HW127652   8.756   8.812   8.687  0.1991 -0.5397 -1.3776
40605SOL    HW227653   8.646   8.914   8.668  0.3272  0.0313  0.6457
40606SOL     OW27654   4.748  11.738  10.693  0.1239  0.3807 -0.7062
40606SOL    HW127655   4.709  11.792  10.625  0.1831  0.7310 -0.4621
40606SOL    HW227656   4.761  11.652  10.651 -2.0316 -0.1172 -0.4458
40607SOL     OW27657   6.239   0.534   5.990  0.6499  0.1728  0.7658
40607SOL    HW127658   6.271   0.623   6.001 -1.3758  1.0166  0.2866
40607SOL    HW227659   6.246   0.495   6.077 -0.1620  1.4317  1.4217
40608SOL     OW27660   0.029   6.648   3.517  0.1725  0.8528  0.4933
40608SOL    HW127661   0.067   6.735   3.526  1.0333  0.3732  1.9318
40608SOL    HW227662   0.104   6.589   3.516 -0.1126  0.2131 -3.9347
40609SOL     OW27663   6.271   0.810   1.405 -0.1838 -0.2815  0.0261
40609SOL    HW127664   6.194   0.755   1.421  0.5447 -1.3685 -0.0621
40609SOL    HW227665   6.291   0.850   1.490 -0.7270 -0.1387  0.0903
40610SOL     OW27666  11.201  10.594   5.336  0.6638 -0.6044  0.0205
40610SOL    HW127667  11.222  10.533   5.266  0.3939 -0.5751 -0.0860
40610SOL    HW227668  11.163  10.539   5.405 -0.8668 -0.3821 -0.6165
40611SOL     OW27669  11.420   8.745   1.346  0.2893 -0.0283  0.0965
40611SOL    HW127670  11.385   8.687   1.280  1.4502 -1.0849  0.3630
40611SOL    HW227671  11.344   8.794   1.378 -0.3524  0.2016 -1.6853
40612SOL     OW27672   4.529  11.571   9.282  0.1722  0.1018 -0.0982
40612SOL    HW127673   4.607  11.531   9.244 -0.3896 -0.7677 -0.3822
40612SOL    HW227674   4.544  11.567   9.376  1.3558  1.8187 -0.1804
40613SOL     OW27675   3.014   1.766   3.051  0.0539 -0.0419  0.2677
40613SOL    HW127676   3.024   1.721   2.967 -1.7798 -0.9009  0.4773
40613SOL    HW227677   2.936   1.820   3.041  1.6929  2.4981  0.3316
40614SOL     OW27678   6.539   4.954   6.858  0.2007 -0.2823  0.0021
40614SOL    HW127679   6.502   5.018   6.919 -0.4255  0.8800 -1.5276
40614SOL    HW227680   6.595   5.006   6.801  1.9210 -1.5639  0.4200
40615SOL     OW27681   0.887  12.183   7.661 -0.5215 -0.2602  0.3803
40615SOL    HW127682   0.928  12.136   7.588 -1.1932 -2.5899  1.4060
40615SOL    HW227683   0.868  12.115   7.726 -1.3139  1.5076  2.1053
40616SOL     OW27684   1.399   2.711   1.206 -0.0350 -0.6748 -0.2339
40616SOL    HW127685   1.339   2.781   1.183 -0.2245 -0.9038 -0.4483
40616SOL    HW227686   1.349   2.631   1.191  0.3832 -0.8743 -0.5929
40617SOL     OW27687   6.973  12.272  11.841  0.3586  0.0387 -0.4251
40617SOL    HW127688   6.923  12.345  11.877  0.4270  1.2942 -2.6975
40617SOL    HW227689   7.039  12.253  11.908  0.6932  2.4581  0.0255
40618SOL     OW27690   1.503   9.994   2.874  0.5236  0.2899 -0.2259
40618SOL    HW127691   1.447  10.071   2.880 -0.3449 -0.3282 -0.3411
40618SOL    HW227692   1.463   9.931   2.933  0.5696 -0.4896 -1.0209
40619SOL     OW27693   9.782   9.456   6.103  0.2410 -0.1876  0.5019
40619SOL    HW127694   9.728   9.377   6.103  0.4341 -0.3526  2.4241
40619SOL    HW227695   9.872   9.425   6.103  0.3288  0.0561  0.1341
40620SOL     OW27696   9.839   4.205   1.421  0.4897  0.3656 -0.6054
40620SOL    HW127697   9.792   4.260   1.358 -1.0779 -1.0951 -0.7929
40620SOL    HW227698   9.795   4.120   1.416 -0.5314  0.4661  3.2538
40621SOL     OW27699  10.927   2.149   3.260 -0.3586 -0.2778  0.5118
40621SOL    HW127700  10.935   2.171   3.167 -2.1513 -0.7096  0.1997
40621SOL    HW227701  11.007   2.182   3.300 -0.0121  0.8608 -1.0159
40622SOL     OW27702   8.550   3.786   3.561 -0.0507  0.1228 -0.4718
40622SOL    HW127703   8.491   3.788   3.485 -1.5167 -0.2228  0.5982
40622SOL    HW227704   8.601   3.706   3.549 -0.1023  0.1899 -1.2059
40623SOL     OW27705   4.550   4.792   3.747  0.1199  0.3825  0.3067
40623SOL    HW127706   4.502   4.742   3.680 -0.2271  0.3209  0.6002
40623SOL    HW227707   4.538   4.884   3.721 -0.0998  0.3639  0.3400
40624SOL     OW27708   4.282  10.539   7.850  0.0279  0.8917 -0.3380
40624SOL    HW127709   4.229  10.470   7.810 -1.4244  0.4962  2.1045
40624SOL    HW227710   4.344  10.492   7.906  1.5625  1.4648 -1.4803
40625SOL     OW27711   0.137   0.929   7.694  0.5053  0.0756  0.1042
40625SOL    HW127712   0.224   0.891   7.680 -0.0459 -0.6864 -1.4915
40625SOL    HW227713   0.110   0.959   7.607 -1.0294 -0.1536  0.4743
40626SOL     OW27714   5.319   8.529   1.813  0.2505  0.5601  0.1970
40626SOL    HW127715   5.353   8.441   1.830 -2.7608 -0.4408  1.9144
40626SOL    HW227716   5.280   8.556   1.896 -1.2109  2.4203 -1.0042
40627SOL     OW27717   0.388  11.107   3.721  0.1591 -0.9437  0.4907
40627SOL    HW127718   0.334  11.153   3.786  0.9709 -0.6154  0.9510
40627SOL    HW227719   0.455  11.170   3.697  0.8623 -1.6361  0.5868
40628SOL     OW27720   2.125   5.722  12.294 -0.0453 -0.0181  0.2986
40628SOL    HW127721   2.034   5.719  12.324  0.7526  0.4946  3.0394
40628SOL    HW227722   2.150   5.630  12.285 -0.5271 -0.1773  0.5442
40629SOL     OW27723  10.693  11.072   8.703 -0.3895 -0.1768  0.5646
40629SOL    HW127724  10.689  10.987   8.660  1.1799  0.3473 -0.7085
40629SOL    HW227725  10.670  11.135   8.634 -2.0733  0.4582  1.6115
40630SOL     OW27726   3.658   7.492  11.558 -0.2428 -0.3482  0.0242
40630SOL    HW127727   3.603   7.529  11.627 -0.7377  1.0854 -1.0741
40630SOL    HW227728   3.599   7.437  11.506 -0.3429  0.1367 -0.3841
40631SOL     OW27729   3.366   9.011   8.620  0.0462  0.2104 -0.6419
40631SOL    HW127730   3.345   8.918   8.613  0.9128 -0.0855  0.3981
40631SOL    HW227731   3.289   9.056   8.587 -0.9738 -0.8611  0.2046
40632SOL     OW27732   6.502   8.850   7.224 -0.6299  0.4396 -1.1357
40632SOL    HW127733   6.518   8.945   7.223 -1.9284  0.6873 -0.8755
40632SOL    HW227734   6.432   8.839   7.288  0.4298 -0.8777 -0.1581
40633SOL     OW27735   9.486   9.971   7.639  0.4748 -0.2586 -0.4709
40633SOL    HW127736   9.419  10.035   7.664  0.7032 -0.4074  0.5614
40633SOL    HW227737   9.568  10.019   7.645  0.6341 -0.6066  0.1803
40634SOL     OW27738   2.664   9.902   6.397 -0.2560  0.4283  0.3465
40634SOL    HW127739   2.632   9.820   6.436 -0.7716  0.6895  0.4797
40634SOL    HW227740   2.747   9.919   6.442 -0.6555  0.5242  1.0552
40635SOL     OW27741   5.761   8.397  10.080  0.1374 -0.1121 -0.0324
40635SOL    HW127742   5.748   8.439   9.995  1.9679  0.1226 -0.2371
40635SOL    HW227743   5.738   8.465  10.144 -1.2531 -0.2914 -0.3089
40636SOL     OW27744   6.138   7.101   5.533  0.5401 -0.0810  0.2133
40636SOL    HW127745   6.221   7.125   5.492  1.0411 -1.4700  0.3510
40636SOL    HW227746   6.139   7.145   5.618  0.3411  1.2813 -0.4535
40637SOL     OW27747  10.330   6.412   1.079  0.2868 -0.0631 -0.6859
40637SOL    HW127748  10.329   6.323   1.115  3.3618 -0.2838 -0.8598
40637SOL    HW227749  10.258   6.413   1.016 -0.6888 -1.9655  0.3194
40638SOL     OW27750   4.397   4.128   9.590 -0.0188  0.1607 -0.1385
40638SOL    HW127751   4.344   4.129   9.510 -0.6888 -0.6028  0.2833
40638SOL    HW227752   4.334   4.114   9.660  0.7692 -1.0496  0.3521
40639SOL     OW27753  12.060   4.308  11.167  0.5983  0.0402  0.0757
40639SOL    HW127754  12.023   4.221  11.181  0.0810  0.1884 -0.3712
40639SOL    HW227755  12.074   4.343  11.255 -0.3248 -0.0153  0.2463
40640SOL     OW27756  10.871   5.093   4.086 -0.3406 -0.9141 -0.6484
40640SOL    HW127757  10.928   5.021   4.060 -2.0346 -2.2828 -0.7889
40640SOL    HW227758  10.792   5.081   4.034 -0.1515  1.9799 -1.8010
40641SOL     OW27759   9.470   8.048   1.580 -0.5816  0.0362 -0.7218
40641SOL    HW127760   9.404   7.980   1.582  1.1207 -1.6734  0.2428
40641SOL    HW227761   9.500   8.056   1.670  1.2776 -0.0462 -1.2840
40642SOL     OW27762   4.589  10.403   0.667 -0.1089 -0.4999  0.0625
40642SOL    HW127763   4.545  10.349   0.601  0.0496 -2.3739  1.3973
40642SOL    HW227764   4.632  10.339   0.725  1.3246  1.1378  0.8893
40643SOL     OW27765   0.094   6.046   8.158  0.2570  0.6934  0.1209
40643SOL    HW127766   0.024   6.110   8.158  1.5597  2.1878  0.8686
40643SOL    HW227767   0.159   6.081   8.098  0.6477 -0.3422 -0.0851
40644SOL     OW27768   3.008   4.064  10.693 -0.4586 -0.0905 -0.0614
40644SOL    HW127769   2.939   4.119  10.655  0.1910  0.4092 -0.5578
40644SOL    HW227770   3.046   4.019  10.618 -0.0331 -0.1119  0.1636
40645SOL     OW27771   5.582   6.120   5.303  0.5731 -0.6180 -0.5617
40645SOL    HW127772   5.668   6.146   5.268  0.5261 -0.3724 -0.4962
40645SOL    HW227773   5.522   6.186   5.270  0.7247  0.3426  0.9751
40646SOL     OW27774  10.291  11.598   5.417 -0.2441 -0.6933  0.2263
40646SOL    HW127775  10.220  11.540   5.389  0.7093 -1.6289 -0.3257
40646SOL    HW227776  10.332  11.552   5.490 -0.5887  0.1443  0.9637
40647SOL     OW27777  10.658  10.880  12.295 -0.5275  0.6847  0.6963
40647SOL    HW127778  10.566  10.862  12.314 -0.7780  1.9771  0.7653
40647SOL    HW227779  10.704  10.802  12.325 -1.5572  0.1585  0.9676
40648SOL     OW27780   7.413   3.129   8.381  0.0692  0.2458  0.2755
40648SOL    HW127781   7.444   3.180   8.456  0.4819  0.8068 -0.2664
40648SOL    HW227782   7.337   3.178   8.348  0.6414  0.6924 -0.4220
40649SOL     OW27783   4.278   0.403   2.585 -0.0259 -0.2163 -0.3109
40649SOL    HW127784   4.187   0.394   2.614  0.6169  0.4999  2.2268
40649SOL    HW227785   4.286   0.495   2.560  0.4520  0.2702  1.4779
40650SOL     OW27786   2.186  10.600   7.186  0.0453  0.1370 -0.6639
40650SOL    HW127787   2.104  10.641   7.158  0.5463  0.6154 -1.4619
40650SOL    HW227788   2.241  10.674   7.212  0.2651 -0.1792 -0.2175
40651SOL     OW27789   6.749   3.533   5.087 -0.1534 -0.1466  0.2793
40651SOL    HW127790   6.682   3.531   5.019 -1.5740  0.3201  1.5751
40651SOL    HW227791   6.788   3.620   5.079 -0.0277 -0.2450 -0.1938
40652SOL     OW27792   6.034   5.145   1.845 -0.2368  0.0402 -0.0057
40652SOL    HW127793   6.043   5.234   1.878  1.7483 -0.2696  0.3833
40652SOL    HW227794   6.014   5.093   1.922 -0.9721  0.0690 -0.1685
40653SOL     OW27795   8.712   2.642   2.389 -0.2896  0.7000 -0.6323
40653SOL    HW127796   8.726   2.661   2.482  0.4778  1.0548 -0.8090
40653SOL    HW227797   8.773   2.701   2.344  0.0056 -0.1218 -1.3212
40654SOL     OW27798   9.169   2.633  10.772 -0.6882 -0.1934  0.5230
40654SOL    HW127799   9.191   2.604  10.683  1.8699 -0.5385  1.1836
40654SOL    HW227800   9.179   2.728  10.769  1.2918 -0.3508  0.8374
40655SOL     OW27801   9.719   0.128   5.289 -0.1061  0.4492 -0.1074
40655SOL    HW127802   9.799   0.077   5.307  0.3659  0.7872 -1.1498
40655SOL    HW227803   9.750   0.217   5.274 -0.3734  0.1943 -2.6860
40656SOL     OW27804   6.028  10.829   9.905  0.3262  0.3372 -0.0234
40656SOL    HW127805   6.097  10.849   9.968  1.2514 -1.3456 -0.4447
40656SOL    HW227806   5.950  10.869   9.942  1.2138  0.9661  1.2546
40657SOL     OW27807  11.426   5.973   5.795 -0.5561  0.6445  0.0840
40657SOL    HW127808  11.495   6.014   5.847 -1.9190  1.4220  1.3493
40657SOL    HW227809  11.393   5.902   5.851  0.7342 -1.3033 -1.4536
40658SOL     OW27810   0.307   7.882  10.494 -0.0535  0.2150  0.3389
40658SOL    HW127811   0.400   7.867  10.476  0.1876 -1.4922  2.5546
40658SOL    HW227812   0.278   7.941  10.424  2.2488 -0.6275 -1.4546
40659SOL     OW27813   8.016   7.669  10.722  0.4418 -0.0741 -0.2349
40659SOL    HW127814   7.940   7.702  10.770  1.0075  1.4230 -0.3267
40659SOL    HW227815   8.013   7.574  10.736 -0.8812  0.0598  0.5786
40660SOL     OW27816   2.924   5.543  11.488  0.3154 -0.4906  0.5683
40660SOL    HW127817   2.853   5.483  11.466  2.0490 -2.9923  1.3400
40660SOL    HW227818   2.921   5.550  11.584 -0.3759  1.4499  0.4632
40661SOL     OW27819   4.912   3.740   9.553  0.6744  0.0260  0.3668
40661SOL    HW127820   4.964   3.676   9.505  1.0050 -0.7366  1.6889
40661SOL    HW227821   4.823   3.705   9.551  0.7157 -0.0843  0.4391
40662SOL     OW27822   1.583   9.190   6.976  0.6345  0.0096  0.0787
40662SOL    HW127823   1.630   9.125   7.028 -0.3280 -0.5124  0.3149
40662SOL    HW227824   1.616   9.274   7.007  1.3623 -0.3434  0.2811
40663SOL     OW27825   6.986   9.442   5.996  0.3218 -0.0600 -0.2662
40663SOL    HW127826   6.956   9.392   6.071  1.7106  0.7164  0.8721
40663SOL    HW227827   7.072   9.405   5.975  1.8191  2.3049  1.1993
40664SOL     OW27828   2.184   8.727  11.606 -0.1864 -0.1142  0.6011
40664SOL    HW127829   2.246   8.730  11.533  1.2649 -1.9055  1.6671
40664SOL    HW227830   2.186   8.815  11.644 -0.2153  0.5552 -0.8763
40665SOL     OW27831   0.190   4.238   0.619  0.0554  0.0051  0.1462
40665SOL    HW127832   0.212   4.237   0.712 -0.1007  1.5007  0.2194
40665SOL    HW227833   0.133   4.162   0.607 -1.7559  1.0419  1.7384
40666SOL     OW27834   3.881   9.255  11.532  0.2996 -0.2295 -0.1719
40666SOL    HW127835   3.933   9.332  11.511 -0.9527  1.1487  1.5192
40666SOL    HW227836   3.931   9.210  11.600  0.7844 -0.6700 -0.8042
40667SOL     OW27837   5.704   3.182   5.117 -0.9592  0.6664  0.2268
40667SOL    HW127838   5.794   3.216   5.107 -1.2444  1.1864 -0.7455
40667SOL    HW227839   5.652   3.235   5.056 -1.1621 -2.6191 -2.8012
40668SOL     OW27840   7.858   2.729   0.195  0.0176  0.2879  0.2525
40668SOL    HW127841   7.860   2.663   0.265  0.7012 -0.6961 -0.6490
40668SOL    HW227842   7.802   2.690   0.128  0.0183  0.8547 -0.0787
40669SOL     OW27843   6.539   7.444   6.968  0.9145  0.1461  0.1853
40669SOL    HW127844   6.515   7.438   6.875  1.1672  2.4014 -0.0880
40669SOL    HW227845   6.461   7.415   7.015 -0.4199  1.9492 -0.7501
40670SOL     OW27846  10.445   4.594   6.148 -0.2729 -0.3496  1.2476
40670SOL    HW127847  10.481   4.533   6.085  0.3841  1.3194 -0.0670
40670SOL    HW227848  10.515   4.609   6.211  1.0362  1.9309 -0.6041
40671SOL     OW27849   4.406   9.952   5.732 -0.2174  0.2783 -0.2937
40671SOL    HW127850   4.438   9.908   5.811 -1.0224  0.5081  0.1734
40671SOL    HW227851   4.480  10.005   5.702  0.7251 -1.2581 -0.7798
40672SOL     OW27852   2.932   3.074   6.968 -0.4036 -0.4950  0.0999
40672SOL    HW127853   2.898   3.067   6.878 -1.0958 -1.4094  0.4163
40672SOL    HW227854   3.007   3.133   6.961 -0.1835 -0.9033 -1.1511
40673SOL     OW27855   4.650   1.415  11.978  0.0075 -0.3798  0.9445
40673SOL    HW127856   4.564   1.395  11.941  0.7495  0.0427 -1.1552
40673SOL    HW227857   4.706   1.428  11.902  1.4163  1.6315  2.2279
40674SOL     OW27858   4.077   2.681   8.926  0.2721 -0.0762 -0.1108
40674SOL    HW127859   4.155   2.626   8.912 -0.3821 -1.0055 -0.2073
40674SOL    HW227860   4.086   2.712   9.016  1.4086  0.9121 -0.5392
40675SOL     OW27861   4.963   3.023   9.538 -0.3400 -0.1951 -0.3292
40675SOL    HW127862   5.005   3.039   9.454  0.8863 -1.3796  0.0292
40675SOL    HW227863   5.000   2.940   9.569 -2.2680 -0.8335  0.4464
40676SOL     OW27864   1.793   5.207  12.059 -0.5056  0.5820 -0.3721
40676SOL    HW127865   1.771   5.212  12.152 -1.1896  1.0983 -0.5635
40676SOL    HW227866   1.769   5.292  12.023  1.4449  1.0534 -0.6724
40677SOL     OW27867   2.302   3.694   2.674 -0.0433 -0.2096 -0.7762
40677SOL    HW127868   2.380   3.703   2.620 -0.2412  2.8857 -0.7534
40677SOL    HW227869   2.230   3.685   2.611 -0.1467  2.2080 -1.0893
40678SOL     OW27870  10.159   0.838  10.826  0.2492  0.4236  0.0264
40678SOL    HW127871  10.108   0.825  10.747  0.3760 -0.7364  0.1227
40678SOL    HW227872  10.094   0.843  10.897  0.2334 -0.6977  0.1052
40679SOL     OW27873   9.974   9.616   2.008  0.2021  0.1470  0.5807
40679SOL    HW127874   9.993   9.630   1.915 -0.4311 -0.5086  0.3521
40679SOL    HW227875  10.061   9.609   2.049  0.5090  1.4393  0.2082
40680SOL     OW27876   7.582   3.185   7.533 -0.1856 -0.6920  0.3329
40680SOL    HW127877   7.662   3.217   7.491 -0.2549 -2.1325 -1.0233
40680SOL    HW227878   7.591   3.209   7.625  2.3009 -1.7065  0.4312
40681SOL     OW27879   1.732   2.480   1.240 -0.2279 -0.8353  0.0136
40681SOL    HW127880   1.668   2.444   1.301 -2.1947  0.4689 -1.1599
40681SOL    HW227881   1.760   2.562   1.279 -1.5983  0.0736 -0.8025
40682SOL     OW27882  10.436   2.084   7.196 -0.5921 -0.0662 -0.3038
40682SOL    HW127883  10.382   2.107   7.271  0.6132  0.8830  0.3137
40682SOL    HW227884  10.524   2.073   7.232 -0.1770 -0.5976 -1.4251
40683SOL     OW27885   0.056   9.261   8.264 -0.4130  0.1276  0.5853
40683SOL    HW127886   0.018   9.187   8.218 -0.6798  0.9207 -0.5281
40683SOL    HW227887   0.003   9.336   8.237  1.1738  1.0724 -0.0847
40684SOL     OW27888  11.642   9.462  11.813  0.0965  0.5762  1.1214
40684SOL    HW127889  11.633   9.383  11.760  0.6363  0.7365  0.7880
40684SOL    HW227890  11.573   9.520  11.783  2.4614  2.1108 -1.9527
40685SOL     OW27891   3.458   0.513  11.179  0.2628  0.7390 -0.1708
40685SOL    HW127892   3.392   0.528  11.111 -0.0963  1.0718  0.2415
40685SOL    HW227893   3.491   0.425  11.162 -1.2775  0.0096  0.4314
40686SOL     OW27894   2.439   8.078   7.287 -0.4428 -0.3406  0.5162
40686SOL    HW127895   2.390   8.160   7.292  0.9151  0.6439 -1.1055
40686SOL    HW227896   2.372   8.010   7.279 -1.6006  0.9475 -1.6274
40687SOL     OW27897   1.833   7.182   2.570 -0.2878  0.4938 -0.4166
40687SOL    HW127898   1.744   7.166   2.601  0.4375 -0.0456  1.5580
40687SOL    HW227899   1.865   7.254   2.625  1.0934 -0.5309  0.1711
40688SOL     OW27900   5.213   3.877   2.219  0.6250 -0.6030 -0.2795
40688SOL    HW127901   5.223   3.782   2.231 -0.3943 -0.8014 -0.8612
40688SOL    HW227902   5.263   3.896   2.140  0.4716 -0.7382 -0.4112
40689SOL     OW27903   1.564   5.676   6.435 -0.1522  0.3317 -0.2998
40689SOL    HW127904   1.516   5.606   6.479  0.0913 -0.4017 -1.1729
40689SOL    HW227905   1.650   5.676   6.478  0.5209 -1.2162 -1.5373
40690SOL     OW27906   5.507  10.121  11.040  0.1850  0.3761  0.1121
40690SOL    HW127907   5.460  10.063  11.100  2.0635  0.0658  1.3987
40690SOL    HW227908   5.593  10.132  11.081  0.4933  2.6778 -0.9842
40691SOL     OW27909   8.148   3.286   2.941 -0.3493 -0.1224  0.0184
40691SOL    HW127910   8.101   3.331   3.011 -1.1090  0.1747 -0.6613
40691SOL    HW227911   8.215   3.348   2.913  0.5211 -0.5788  1.0463
40692SOL     OW27912   4.251   4.438   3.883 -0.7949 -0.1575 -0.4096
40692SOL    HW127913   4.222   4.399   3.801 -0.9618 -1.4021  0.2133
40692SOL    HW227914   4.345   4.420   3.886 -0.8240 -0.2896 -0.2465
40693SOL     OW27915   9.522   9.939   5.981  0.1833  0.3944  0.5101
40693SOL    HW127916   9.544   9.848   5.960  0.4905  0.7311 -0.7258
40693SOL    HW227917   9.426   9.942   5.976  0.2466  0.5075 -1.2085
40694SOL     OW27918   2.533   7.064   4.892  0.1072 -0.4288 -0.1870
40694SOL    HW127919   2.486   7.065   4.809  0.7132  0.1866 -0.5269
40694SOL    HW227920   2.612   7.013   4.875 -0.1432 -0.9711  0.2301
40695SOL     OW27921   0.630   7.397  10.882  0.0750 -0.2492 -0.0456
40695SOL    HW127922   0.691   7.463  10.849  1.6147 -2.0523 -1.0039
40695SOL    HW227923   0.584   7.366  10.804 -0.4206 -0.5196  0.3496
40696SOL     OW27924   0.965  11.920   1.561  0.3028  0.3354  0.3363
40696SOL    HW127925   0.996  11.936   1.650 -0.7365 -0.5894  0.8950
40696SOL    HW227926   0.870  11.936   1.566  0.4777  2.1387 -1.0737
40697SOL     OW27927   0.682   2.557   0.958  0.0481  1.4970 -0.5307
40697SOL    HW127928   0.632   2.574   0.879 -1.8904  2.4588  0.8338
40697SOL    HW227929   0.674   2.637   1.009  0.4033  0.5509  1.0820
40698SOL     OW27930   5.646   6.373   7.539 -0.6045 -0.0620  0.2127
40698SOL    HW127931   5.602   6.326   7.610 -1.9842  0.5175 -0.2285
40698SOL    HW227932   5.589   6.447   7.520  0.5012  0.6427 -0.4993
40699SOL     OW27933   9.266  11.986   1.017 -0.5220 -0.4226  0.5683
40699SOL    HW127934   9.255  11.960   1.109 -0.4903  0.2269  0.7624
40699SOL    HW227935   9.348  12.036   1.016 -1.1959  0.7152  0.4459
40700SOL     OW27936   3.246   3.132   6.873  0.2537 -0.1337 -0.2997
40700SOL    HW127937   3.238   3.202   6.937 -1.0850  1.8962 -2.5389
40700SOL    HW227938   3.185   3.156   6.803  1.8604 -2.0375 -2.4947
40701SOL     OW27939   9.442   2.657   3.693 -0.4453 -0.3191  0.3698
40701SOL    HW127940   9.451   2.752   3.700 -0.6695 -0.2413 -0.3893
40701SOL    HW227941   9.457   2.637   3.601 -2.2650 -0.7970  0.1248
40702SOL     OW27942   5.577  11.903   3.966 -0.1319  0.2479  0.1545
40702SOL    HW127943   5.629  11.936   4.039 -0.4643  0.2168  0.4063
40702SOL    HW227944   5.604  11.956   3.891  1.5748 -0.9258 -0.1320
40703SOL     OW27945   0.408   8.311   3.649 -0.1682 -0.5071 -0.2554
40703SOL    HW127946   0.447   8.396   3.670  0.3286 -1.2243  1.9786
40703SOL    HW227947   0.333   8.332   3.594 -0.7206  1.5028  1.1496
40704SOL     OW27948   2.955   3.538   2.957 -0.8325 -0.0437  0.8250
40704SOL    HW127949   2.869   3.552   2.917 -0.5805 -2.3902 -0.7316
40704SOL    HW227950   3.014   3.523   2.883  0.2418 -1.7002  1.9487
40705SOL     OW27951   8.381   6.823   2.255  0.3528 -0.6116 -0.1260
40705SOL    HW127952   8.304   6.876   2.276  0.2759 -1.1369  0.9901
40705SOL    HW227953   8.381   6.754   2.320  2.3857 -0.0064  0.5931
40706SOL     OW27954   6.861  10.486   0.223 -0.5072 -0.5506  0.1031
40706SOL    HW127955   6.886  10.396   0.244  1.7241  0.2776  1.4071
40706SOL    HW227956   6.854  10.529   0.308  2.6854  1.4522 -0.4614
40707SOL     OW27957  11.327  11.949   9.204 -0.1437  0.2744 -0.3412
40707SOL    HW127958  11.253  11.939   9.144  0.1937  0.4809 -0.7950
40707SOL    HW227959  11.323  11.871   9.260 -0.1193 -0.2169 -1.0120
40708SOL     OW27960  11.556  10.671   0.756 -0.1998 -0.3260 -0.3101
40708SOL    HW127961  11.463  10.659   0.734 -0.2616 -0.7377  0.1544
40708SOL    HW227962  11.580  10.590   0.802  0.0026  0.3755  0.8486
40709SOL     OW27963  11.060   6.364   4.644  0.4487 -0.4283  0.5772
40709SOL    HW127964  11.098   6.312   4.714 -0.9246 -0.8946  1.0159
40709SOL    HW227965  11.011   6.433   4.689 -1.0003 -1.1249  0.1334
40710SOL     OW27966  12.300   5.928   9.254  0.2189 -0.4546  0.2486
40710SOL    HW127967  12.257   5.921   9.169 -2.2379 -0.3461  1.3820
40710SOL    HW227968  12.343   6.014   9.253  0.0360 -0.3683 -0.7893
40711SOL     OW27969   4.852   1.496   1.820  0.3130  0.2664  0.6399
40711SOL    HW127970   4.917   1.561   1.843  0.7804  0.1210 -0.2572
40711SOL    HW227971   4.769   1.532   1.852  0.4811  1.5486 -0.3318
40712SOL     OW27972   4.542  10.792  12.309  0.2825  0.2925  0.3129
40712SOL    HW127973   4.625  10.838  12.323  0.0863  0.8129 -0.1811
40712SOL    HW227974   4.495  10.802  12.391  1.5585 -1.8697  1.4096
40713SOL     OW27975   9.826   0.060  11.924 -0.2256 -0.5427 -0.4891
40713SOL    HW127976   9.839   0.058  12.018  0.9599 -1.3204 -0.6437
40713SOL    HW227977   9.801   0.150  11.904 -1.3787 -0.5853  0.6567
40714SOL     OW27978   7.824  10.552   7.465 -0.2711  0.2204 -0.0598
40714SOL    HW127979   7.841  10.594   7.381 -1.5251  0.5796 -0.1545
40714SOL    HW227980   7.745  10.595   7.498 -0.4876 -0.7401  0.7394
40715SOL     OW27981   3.901   1.275   5.012 -0.3458  0.0068  0.9320
40715SOL    HW127982   3.986   1.295   5.052  0.1040  1.0189 -0.4798
40715SOL    HW227983   3.900   1.325   4.931 -1.8551 -0.8462  0.3883
40716SOL     OW27984   4.680   6.671   1.546  0.8114 -0.0845 -0.0634
40716SOL    HW127985   4.755   6.689   1.603 -0.0665 -1.0719  1.4725
40716SOL    HW227986   4.696   6.583   1.512  0.4361 -0.2267  0.1260
40717SOL     OW27987   8.519  10.878   1.195  0.2026 -0.4839  0.1779
40717SOL    HW127988   8.507  10.815   1.266 -1.6373 -1.7997 -1.1974
40717SOL    HW227989   8.447  10.859   1.134  1.4157  0.9210 -1.7954
40718SOL     OW27990   5.155   8.017   2.455  0.1190  0.4766 -0.3864
40718SOL    HW127991   5.080   8.057   2.498 -1.2653 -2.0985 -0.1867
40718SOL    HW227992   5.200   7.969   2.524  0.3289 -0.2471 -1.0065
40719SOL     OW27993   7.030   3.989   6.004  0.0244 -0.0572 -0.3897
40719SOL    HW127994   7.074   4.074   6.006  1.7179 -0.8087 -2.2511
40719SOL    HW227995   7.083   3.934   6.062 -0.6153 -0.0499  0.2067
40720SOL     OW27996   7.115   9.369   9.754 -0.2491 -0.2887 -0.6747
40720SOL    HW127997   7.037   9.318   9.773 -0.2077 -0.2332 -0.3416
40720SOL    HW227998   7.175   9.348   9.826 -0.1723  0.0987 -0.6246
40721SOL     OW27999   2.406   3.947   3.912  0.1498 -0.5244 -0.3485
40721SOL    HW128000   2.336   3.962   3.976  0.7558 -1.6812  0.6314
40721SOL    HW228001   2.391   4.013   3.845 -2.2053 -1.0563 -0.4528
40722SOL     OW28002   3.343   8.357   8.965 -0.1353 -0.1055  0.3582
40722SOL    HW128003   3.420   8.309   8.996  1.5210  2.7618  1.0718
40722SOL    HW228004   3.285   8.361   9.041  1.0645  1.4532  1.2586
40723SOL     OW28005   4.943   0.257   1.662 -0.5242  0.0286  0.0777
40723SOL    HW128006   4.996   0.196   1.714 -0.3047 -0.1197 -0.3153
40723SOL    HW228007   4.864   0.271   1.715 -1.0520 -1.3990 -0.2723
40724SOL     OW28008   5.600   6.730  12.225  0.0233 -0.1650  0.1422
40724SOL    HW128009   5.653   6.794  12.177  0.6733 -0.1554  0.8434
40724SOL    HW228010   5.586   6.771  12.311 -0.6443 -0.4170  0.1565
40725SOL     OW28011   2.922  10.480   7.952  0.0808 -0.3186 -0.2962
40725SOL    HW128012   2.867  10.404   7.970 -0.8978 -0.2952 -2.6818
40725SOL    HW228013   2.862  10.555   7.957 -0.5150 -0.3773 -3.8578
40726SOL     OW28014   2.238  10.361   7.734 -0.1765  0.4339 -0.3588
40726SOL    HW128015   2.250  10.339   7.827  0.9268  0.7074 -0.4261
40726SOL    HW228016   2.315  10.324   7.691 -1.2716 -0.7839 -1.3762
40727SOL     OW28017  11.396   3.974   0.881  0.3289  0.4515  0.4005
40727SOL    HW128018  11.345   3.937   0.952 -1.6518 -2.5298 -2.2908
40727SOL    HW228019  11.486   3.945   0.898  0.0091  0.2715  1.9017
40728SOL     OW28020   7.557   7.059   3.392 -0.5216  0.1230  0.1093
40728SOL    HW128021   7.643   7.039   3.430 -0.0004 -2.1391 -1.9413
40728SOL    HW228022   7.570   7.143   3.348 -0.4485  1.5459  2.6832
40729SOL     OW28023   8.327   1.484   0.888 -0.2494  0.2263 -0.0827
40729SOL    HW128024   8.264   1.418   0.917 -1.5977  1.8562  0.8846
40729SOL    HW228025   8.306   1.562   0.940 -0.1299  2.0810 -2.6491
40730SOL     OW28026   4.175   8.027   8.975 -0.7774  0.4379  0.4588
40730SOL    HW128027   4.132   8.023   9.060  0.2886  0.4649  1.0178
40730SOL    HW228028   4.129   8.096   8.928 -2.5630 -0.7823  0.3126
40731SOL     OW28029   5.787   1.970   4.802 -0.3669  0.1495  0.1081
40731SOL    HW128030   5.829   1.992   4.719  0.4524 -0.3537  0.3814
40731SOL    HW228031   5.726   1.899   4.781 -0.6715  0.4902 -0.1792
40732SOL     OW28032  10.359  11.673   2.485 -0.6377 -0.8693  0.5097
40732SOL    HW128033  10.453  11.664   2.467 -0.8148 -2.7306  0.4181
40732SOL    HW228034  10.349  11.766   2.508  1.1028 -0.4732 -0.1256
40733SOL     OW28035   6.724   8.060  11.308  0.0327  0.1260  0.2325
40733SOL    HW128036   6.767   8.139  11.341 -0.4986  0.2978  0.5187
40733SOL    HW228037   6.792   8.016  11.257  0.5725  0.3537  0.7420
40734SOL     OW28038   5.916  10.922   0.649 -0.0348  0.2866  0.4510
40734SOL    HW128039   5.945  10.897   0.737 -0.2880  0.3057  0.5397
40734SOL    HW228040   5.881  10.842   0.611 -2.4858  0.8422  1.3804
40735SOL     OW28041   3.925  10.492   4.401 -0.1170  0.2556  0.2085
40735SOL    HW128042   3.890  10.558   4.342  0.4963  0.3768 -0.0221
40735SOL    HW228043   3.970  10.541   4.469 -1.3812  0.1437  1.1644
40736SOL     OW28044   0.464   1.190   7.505  0.2413  0.2032 -0.2535
40736SOL    HW128045   0.396   1.252   7.531 -1.5144 -1.8510  0.3180
40736SOL    HW228046   0.461   1.121   7.571  1.1982 -1.1690 -1.5484
40737SOL     OW28047   6.545   3.007   1.599 -0.0567 -0.2187 -0.4242
40737SOL    HW128048   6.563   2.975   1.688 -0.0066 -0.9386 -0.6826
40737SOL    HW228049   6.622   2.981   1.548  0.1823  0.7192 -0.5566
40738SOL     OW28050   3.314   9.648   3.590 -0.6912 -0.3693  0.1711
40738SOL    HW128051   3.348   9.694   3.513 -0.8783 -0.4652  0.0324
40738SOL    HW228052   3.393   9.616   3.635 -0.6256 -2.8689 -1.5373
40739SOL     OW28053   9.981   3.992   7.658  0.5687 -0.0969 -0.1659
40739SOL    HW128054  10.066   3.948   7.664  0.7596  0.3910  0.8693
40739SOL    HW228055  10.002   4.081   7.631  0.4517  0.2163  0.7552
40740SOL     OW28056   0.436   8.506   5.158 -0.0136  0.1455 -0.3167
40740SOL    HW128057   0.485   8.567   5.213  1.1734 -0.8934 -0.1625
40740SOL    HW228058   0.433   8.549   5.072 -0.3235  0.9805  0.1023
40741SOL     OW28059  11.677   1.321  11.243  0.1223 -0.3120  0.6588
40741SOL    HW128060  11.758   1.359  11.278 -0.2357 -0.1848  1.3726
40741SOL    HW228061  11.609   1.350  11.304 -0.4740 -0.3636  0.0301
40742SOL     OW28062   0.368  10.297   1.616  0.3564  0.2764  0.5093
40742SOL    HW128063   0.458  10.315   1.643  0.2675 -0.1743  1.1247
40742SOL    HW228064   0.321  10.378   1.637  0.3307  0.0152  1.5486
40743SOL     OW28065   3.818   7.076   9.075 -0.6176  0.1236 -1.1160
40743SOL    HW128066   3.871   7.024   9.016  1.8608 -0.1836  1.1529
40743SOL    HW228067   3.877   7.147   9.103 -0.8508 -0.8937  2.4330
40744SOL     OW28068   8.420  10.276   0.971  0.0740  0.6889 -0.4143
40744SOL    HW128069   8.507  10.299   0.937 -0.1586  4.2637  1.0380
40744SOL    HW228070   8.382  10.221   0.902  3.1180 -0.3706 -1.4446
40745SOL     OW28071   6.664  11.216   5.711  0.1280 -0.5264  0.7464
40745SOL    HW128072   6.728  11.278   5.675  0.2826 -0.6910  0.7390
40745SOL    HW228073   6.625  11.174   5.634  0.7488 -1.1709  0.7814
40746SOL     OW28074   6.954   5.817   7.844 -0.1556  0.4368  0.0472
40746SOL    HW128075   6.912   5.901   7.822  1.4102  1.6271  1.3558
40746SOL    HW228076   6.930   5.801   7.935  0.8814  0.3340  0.3190
40747SOL     OW28077  11.313   6.986   6.161 -0.4061 -0.2952  0.2365
40747SOL    HW128078  11.402   6.996   6.193  1.3044 -1.3630 -3.6803
40747SOL    HW228079  11.289   6.896   6.182  1.1203 -1.3431 -2.0964
40748SOL     OW28080  10.972   4.587   4.994 -0.0445  0.2727  0.1078
40748SOL    HW128081  10.958   4.558   4.904  0.0047  2.2818 -0.5920
40748SOL    HW228082  11.064   4.612   4.998  1.3986 -4.2638  2.1517
40749SOL     OW28083   9.095   7.641   6.518 -0.2806  0.6923 -0.2735
40749SOL    HW128084   9.160   7.570   6.521  1.0841  1.8868 -0.3347
40749SOL    HW228085   9.012   7.598   6.541  0.7473 -0.6475  1.2446
40750SOL     OW28086   5.988  10.848   0.145 -0.5565 -0.5584 -0.4767
40750SOL    HW128087   6.064  10.890   0.106  0.3336 -1.9633 -0.3191
40750SOL    HW228088   5.928  10.834   0.071 -0.5427  0.2786 -0.6516
40751SOL     OW28089  10.887   1.450   5.149  0.5860 -0.4323 -0.2586
40751SOL    HW128090  10.867   1.365   5.187  0.4648  0.4804  1.8509
40751SOL    HW228091  10.954   1.487   5.206  0.2029  1.1451 -0.7702
40752SOL     OW28092  10.198   7.782   0.694  0.0585 -0.2575  0.5180
40752SOL    HW128093  10.291   7.780   0.670  0.0592 -2.3776  0.5166
40752SOL    HW228094  10.187   7.710   0.756 -2.0879 -1.9397 -1.6230
40753SOL     OW28095   6.997  11.874  10.570 -0.0640  0.3502  0.0060
40753SOL    HW128096   7.016  11.844  10.481  1.1361 -0.9013  0.6486
40753SOL    HW228097   7.061  11.942  10.587  1.7029 -1.4287  0.9039
40754SOL     OW28098   0.758   8.401   6.988  0.2733 -0.7056 -0.2859
40754SOL    HW128099   0.662   8.401   6.997  0.1635 -0.7757 -1.2709
40754SOL    HW228100   0.790   8.376   7.074 -0.6767 -2.8406 -0.4672
40755SOL     OW28101  11.864   3.839   8.075 -0.2530 -0.2534  0.1843
40755SOL    HW128102  11.796   3.774   8.091 -0.9299  0.5995  0.9048
40755SOL    HW228103  11.862   3.853   7.980  0.7715 -2.1691 -0.1545
40756SOL     OW28104   4.263   3.970   1.767  0.2088 -0.3287 -0.1601
40756SOL    HW128105   4.357   3.951   1.773  0.2523  0.2423  1.4662
40756SOL    HW228106   4.224   3.916   1.835 -0.6939 -0.7650 -1.0123
40757SOL     OW28107  11.707   5.677   2.979  0.4171 -0.0647 -0.2637
40757SOL    HW128108  11.712   5.772   2.968 -2.6600  0.0381 -2.0899
40757SOL    HW228109  11.786   5.644   2.937  0.6124  1.6315 -1.3313
40758SOL     OW28110   6.646   6.878   7.651 -0.0082 -0.3328  0.4603
40758SOL    HW128111   6.732   6.837   7.660 -0.2999 -1.9668 -2.7509
40758SOL    HW228112   6.584   6.813   7.684 -0.1555 -0.1642  0.5218
40759SOL     OW28113   2.270   2.248   4.397  0.0571  0.4377  0.1779
40759SOL    HW128114   2.220   2.318   4.440  0.2173  0.3872  0.4452
40759SOL    HW228115   2.354   2.248   4.442 -0.2713 -0.5608  0.8222
40760SOL     OW28116   3.930   6.808   5.906 -0.4228  0.3067  0.9529
40760SOL    HW128117   3.851   6.842   5.948  0.5843 -0.2695  3.4848
40760SOL    HW228118   3.951   6.728   5.955 -0.6620 -2.0979 -2.4473
40761SOL     OW28119   4.474   5.831   8.350 -0.1699 -0.2320  0.0835
40761SOL    HW128120   4.477   5.923   8.323  1.4176  0.1846  1.4921
40761SOL    HW228121   4.562   5.798   8.329 -0.1716 -0.9449  1.1408
40762SOL     OW28122   6.317  12.089   0.576 -0.0139 -0.2557 -0.3198
40762SOL    HW128123   6.223  12.095   0.556 -0.7118  1.3632  2.7906
40762SOL    HW228124   6.325  12.012   0.631  0.1622  0.5098  0.7520
40763SOL     OW28125   1.178   1.868   4.008 -0.1346 -0.4494  0.1734
40763SOL    HW128126   1.171   1.933   3.939  0.9896 -0.8351 -0.3233
40763SOL    HW228127   1.122   1.902   4.078 -1.1748  0.0236 -0.8401
40764SOL     OW28128   5.254   5.235  10.573 -0.5083  0.2107 -0.2176
40764SOL    HW128129   5.158   5.235  10.574 -0.5311 -0.1006 -1.2797
40764SOL    HW228130   5.278   5.174  10.643 -1.1316 -1.0653 -1.0621
40765SOL     OW28131   3.834   2.287   0.462  0.3816 -0.0965 -0.2134
40765SOL    HW128132   3.916   2.263   0.419  0.3939 -0.8315  0.2037
40765SOL    HW228133   3.819   2.378   0.436  1.5661  0.2060  0.0883
40766SOL     OW28134   1.312   7.306   1.533 -0.6765 -0.0824  0.4081
40766SOL    HW128135   1.316   7.222   1.487 -0.9118  1.0122 -1.7633
40766SOL    HW228136   1.353   7.289   1.618 -0.7190 -2.3703  0.0429
40767SOL     OW28137   0.487   0.798   0.925  0.3557  0.2154  0.1338
40767SOL    HW128138   0.441   0.878   0.900 -0.3152 -0.0359  0.5574
40767SOL    HW228139   0.548   0.826   0.994 -1.0964  0.0701  1.5271
40768SOL     OW28140  11.181   7.534   3.204 -0.0900  0.3641 -0.1045
40768SOL    HW128141  11.126   7.579   3.269  1.4250  0.0548  1.4635
40768SOL    HW228142  11.151   7.443   3.207  1.1641 -0.0447  1.5740
40769SOL     OW28143   3.032  11.883   7.336  0.0306  0.5220  0.3402
40769SOL    HW128144   3.123  11.877   7.364  0.3693  1.7162 -0.4055
40769SOL    HW228145   3.029  11.964   7.285 -1.0551 -0.4066 -1.1326
40770SOL     OW28146   7.683   4.830   7.065  0.2811 -0.1962 -0.3269
40770SOL    HW128147   7.750   4.822   6.997  0.4008 -0.5240 -0.1747
40770SOL    HW228148   7.637   4.911   7.044 -0.8229 -1.1441 -1.8297
40771SOL     OW28149   0.188   0.374  11.839  0.0538  0.1574 -0.1178
40771SOL    HW128150   0.246   0.323  11.895  0.0741  0.2739 -0.0333
40771SOL    HW228151   0.239   0.391  11.760  0.5410  1.2272  0.4121
40772SOL     OW28152   1.948   4.865   5.210 -0.1069 -0.7382  0.6962
40772SOL    HW128153   2.000   4.933   5.252 -0.2867 -0.3558  0.3062
40772SOL    HW228154   1.968   4.785   5.260 -0.4174 -0.2744  1.5793
40773SOL     OW28155   8.710   0.733   6.927 -0.3461 -0.0665 -0.3726
40773SOL    HW128156   8.665   0.802   6.878 -2.3374 -1.0747 -0.0669
40773SOL    HW228157   8.752   0.779   6.999 -0.7383  0.9659 -0.7719
40774SOL     OW28158  11.404   0.736   6.482  0.0624  0.1602  0.2162
40774SOL    HW128159  11.319   0.723   6.440  0.6115  0.2460 -0.9519
40774SOL    HW228160  11.402   0.826   6.515 -0.7388 -0.2250  1.2577
40775SOL     OW28161   3.450   5.909   0.652  0.2779 -0.7999  0.0002
40775SOL    HW128162   3.475   5.926   0.742  0.4796 -1.8234  0.1472
40775SOL    HW228163   3.420   5.818   0.651 -3.7148  0.3166 -0.1018
40776SOL     OW28164   4.356   1.180   3.816 -0.3235  0.5338 -0.6613
40776SOL    HW128165   4.352   1.237   3.892 -1.5621  0.2339 -0.4777
40776SOL    HW228166   4.449   1.177   3.793 -0.2838  3.2037 -1.1531
40777SOL     OW28167   7.712   2.990   9.521 -0.2555  0.1365 -0.7177
40777SOL    HW128168   7.621   2.978   9.495 -0.6285 -1.0260  0.9307
40777SOL    HW228169   7.744   3.061   9.466 -1.7825 -0.2629 -2.2016
40778SOL     OW28170   3.411   4.542   9.163 -0.6895 -0.0733 -0.0916
40778SOL    HW128171   3.452   4.509   9.243  0.0175 -0.4258 -0.5968
40778SOL    HW228172   3.357   4.616   9.194 -1.8333 -1.2902  0.9538
40779SOL     OW28173   4.486   5.228  12.203 -0.6417 -0.2882  0.2267
40779SOL    HW128174   4.490   5.257  12.112  0.7830 -0.7281  0.1391
40779SOL    HW228175   4.487   5.310  12.254 -0.5486 -0.0752 -0.1164
40780SOL     OW28176  11.936   9.375   5.440  0.2080 -0.2419 -0.5383
40780SOL    HW128177  11.871   9.325   5.490 -0.8024  1.6961  0.1984
40780SOL    HW228178  12.006   9.393   5.503 -0.7894  1.6896  0.0928
40781SOL     OW28179   2.741   3.734   8.516 -0.0381 -0.4593 -0.2139
40781SOL    HW128180   2.730   3.827   8.535  1.5114 -0.4664  0.9025
40781SOL    HW228181   2.706   3.690   8.594 -0.5286 -0.8241 -0.6304
40782SOL     OW28182   1.695   1.209   5.862 -0.1827 -0.1668  0.2674
40782SOL    HW128183   1.753   1.188   5.935 -0.7671 -3.0664  0.0281
40782SOL    HW228184   1.744   1.182   5.784 -0.1913  1.4140 -0.3230
40783SOL     OW28185   9.213  10.549  12.293  0.0917  0.5518  0.3874
40783SOL    HW128186   9.226  10.590  12.379 -0.9232 -1.1476  1.4099
40783SOL    HW228187   9.118  10.538  12.287  0.2473 -0.5390 -0.3578
40784SOL     OW28188   2.180   9.734   5.754 -0.1370 -0.4559 -0.4789
40784SOL    HW128189   2.194   9.757   5.846  1.8467  0.0691 -0.8571
40784SOL    HW228190   2.091   9.701   5.751 -0.7812  0.9314  1.3540
40785SOL     OW28191   1.540   9.431   6.283 -0.4724 -0.1935 -0.0587
40785SOL    HW128192   1.542   9.525   6.269 -0.8232  0.0088  1.1455
40785SOL    HW228193   1.632   9.405   6.288 -0.3784  0.1062 -0.2397
40786SOL     OW28194   8.659   1.819   0.036 -0.0807  0.9423 -0.0776
40786SOL    HW128195   8.601   1.852   0.104 -0.5105  3.2609 -1.4643
40786SOL    HW228196   8.747   1.824   0.075 -0.4189  1.1519  0.6755
40787SOL     OW28197   1.484   8.523   5.612 -0.2075  0.2602 -0.0517
40787SOL    HW128198   1.496   8.587   5.681  1.4667  1.3339 -1.2634
40787SOL    HW228199   1.463   8.574   5.534 -5.0998 -1.0447  0.0770
40788SOL     OW28200  10.123   2.326   1.064  0.2381 -0.1837 -0.1689
40788SOL    HW128201  10.040   2.356   1.101  0.8346  0.6275  0.5650
40788SOL    HW228202  10.189   2.381   1.107  1.1221 -0.5603 -1.0184
40789SOL     OW28203  11.589   5.647   4.379  0.3781  0.1596  0.0993
40789SOL    HW128204  11.676   5.645   4.339  0.4356  0.3487  0.2122
40789SOL    HW228205  11.554   5.734   4.357  0.8226  0.6649  1.2999
40790SOL     OW28206  11.953   3.662   1.743 -0.2951 -0.6201  0.1571
40790SOL    HW128207  11.980   3.643   1.654  1.7754  0.6664  0.4674
40790SOL    HW228208  11.857   3.662   1.739 -0.2711 -1.7839 -1.7657
40791SOL     OW28209   0.483   5.906   3.045 -0.2323  0.1418  0.2578
40791SOL    HW128210   0.452   5.941   2.962  1.0354  0.8377  0.0451
40791SOL    HW228211   0.557   5.963   3.069 -0.0593 -0.5463  1.4415
40792SOL     OW28212   4.008   2.920  10.159  0.6149 -0.1097 -0.1213
40792SOL    HW128213   4.034   2.901  10.068 -0.2367  2.4310 -0.9722
40792SOL    HW228214   3.918   2.889  10.164  0.5761 -0.0164 -0.2279
40793SOL     OW28215   2.661  12.284   1.926  0.4650 -0.1496  0.7748
40793SOL    HW128216   2.668  12.376   1.899 -1.1699 -0.6444 -1.7191
40793SOL    HW228217   2.568  12.271   1.944  0.3634 -1.6662 -0.5901
40794SOL     OW28218   0.072   6.112   6.806 -0.2532 -0.1134 -0.4944
40794SOL    HW128219   0.105   6.202   6.816  0.9463 -0.6495  0.7022
40794SOL    HW228220   0.029   6.093   6.889 -0.0054 -0.8393 -0.5293
40795SOL     OW28221  12.197   1.325   7.497  0.4420  0.5027 -0.0853
40795SOL    HW128222  12.166   1.235   7.507 -0.7759  0.7826 -1.0553
40795SOL    HW228223  12.248   1.323   7.415  0.1771  0.7495 -0.2572
40796SOL     OW28224   2.822  11.744   2.221  0.6140  0.3707  0.6296
40796SOL    HW128225   2.797  11.751   2.313  3.3543 -2.4760  1.7953
40796SOL    HW228226   2.898  11.801   2.213  1.4180 -0.6548  0.6692
40797SOL     OW28227   7.938  11.138   6.173 -0.0158  0.6402  0.2275
40797SOL    HW128228   7.904  11.060   6.129  0.9859  0.1025  0.3956
40797SOL    HW228229   7.944  11.113   6.265  0.6135  0.8121  0.2348
40798SOL     OW28230   3.361   2.107   6.573 -0.4238  0.0799 -0.0311
40798SOL    HW128231   3.277   2.064   6.593 -0.4783  0.4879  0.6656
40798SOL    HW228232   3.427   2.039   6.589 -0.4822  0.3323  1.4317
40799SOL     OW28233   6.289   7.102   0.802 -0.2481  0.1007 -0.4730
40799SOL    HW128234   6.244   7.066   0.726  0.8615  0.9761 -1.5901
40799SOL    HW228235   6.244   7.185   0.819 -1.1607 -0.5734  0.4993
40800SOL     OW28236  11.918   0.474   3.105 -0.3554 -0.0635 -0.1658
40800SOL    HW128237  11.864   0.527   3.047 -0.0708  1.5194  0.9474
40800SOL    HW228238  11.980   0.430   3.047 -1.0742  0.2531 -1.1920
40801SOL     OW28239  10.465  10.288   2.286 -0.0541  0.1445  0.3804
40801SOL    HW128240  10.561  10.283   2.290  0.1685  1.6557 -1.4430
40801SOL    HW228241  10.444  10.366   2.339 -0.3719 -0.6020  1.3810
40802SOL     OW28242   0.563   7.117   8.634  0.4092 -0.2404 -0.0542
40802SOL    HW128243   0.572   7.212   8.642 -1.2198 -0.0917  0.3509
40802SOL    HW228244   0.555   7.087   8.724  0.3755 -0.7011 -0.2111
40803SOL     OW28245   3.569   8.192  11.770  0.0433  0.7602  0.6933
40803SOL    HW128246   3.561   8.100  11.794  1.4397  0.6097  0.6477
40803SOL    HW228247   3.660   8.214  11.788 -0.1504  2.0123  0.2595
40804SOL     OW28248  11.341  10.133   6.625 -0.3635  0.3317 -0.1326
40804SOL    HW128249  11.362  10.098   6.539 -1.0307  0.2733 -0.2811
40804SOL    HW228250  11.373  10.067   6.687  1.6202  1.1391 -0.2424
40805SOL     OW28251  10.427   2.381   6.639 -0.1859 -0.3679 -0.0983
40805SOL    HW128252  10.498   2.372   6.576 -1.3279  1.0777 -1.6723
40805SOL    HW228253  10.365   2.311   6.616 -0.0315 -0.6214  0.2428
40806SOL     OW28254   0.452   3.511   5.909 -0.6383 -0.3684  0.5072
40806SOL    HW128255   0.394   3.574   5.866 -0.2813 -1.6639 -2.0377
40806SOL    HW228256   0.464   3.441   5.845  3.4616 -0.3593  1.0301
40807SOL     OW28257   1.192   6.449   9.494 -0.4120 -0.0190  0.3218
40807SOL    HW128258   1.239   6.366   9.494 -3.0484 -1.6855 -1.8959
40807SOL    HW228259   1.255   6.512   9.459  1.4899 -1.1100  1.5818
40808SOL     OW28260   2.608   4.321  11.820 -0.3697  0.3226 -0.2132
40808SOL    HW128261   2.572   4.390  11.875 -1.4737 -0.8617  0.6064
40808SOL    HW228262   2.703   4.325  11.834 -0.6105  0.2054  1.5960
40809SOL     OW28263   0.791   6.206   5.002 -0.3533  0.0605  0.4430
40809SOL    HW128264   0.816   6.180   5.091 -0.8811 -2.5848 -0.1054
40809SOL    HW228265   0.703   6.170   4.991  0.0157 -0.3457 -1.4004
40810SOL     OW28266  10.161   6.829   0.655  0.5684  0.1837 -0.0818
40810SOL    HW128267  10.203   6.799   0.575  0.8421  0.9148 -0.2183
40810SOL    HW228268  10.097   6.761   0.676  0.8728 -0.2731 -0.6179
40811SOL     OW28269   6.486   5.535   7.557 -0.1180 -0.2815  0.2149
40811SOL    HW128270   6.487   5.534   7.653 -1.2417  0.0093  0.2492
40811SOL    HW228271   6.448   5.451   7.533  1.5149 -0.9792 -0.0402
40812SOL     OW28272   8.787   1.485   8.855  0.1731 -0.0223 -0.8928
40812SOL    HW128273   8.789   1.396   8.820  0.3714  0.3867 -1.9787
40812SOL    HW228274   8.868   1.524   8.822  0.3368  0.4142  0.0008
40813SOL     OW28275   5.226   3.816   8.937 -0.3895  0.1741  0.1305
40813SOL    HW128276   5.309   3.861   8.921 -1.0105  0.8257 -1.3884
40813SOL    HW228277   5.236   3.732   8.893 -1.0794  0.8764 -1.4441
40814SOL     OW28278   5.650   6.873   8.712  0.2391 -0.4492  0.2165
40814SOL    HW128279   5.558   6.881   8.684 -0.2720 -0.9663  1.6217
40814SOL    HW228280   5.700   6.919   8.645 -1.2457  1.8594  0.5644
40815SOL     OW28281   2.094  11.892  11.847 -0.0918  0.4879 -0.0291
40815SOL    HW128282   2.179  11.930  11.824 -1.2387  2.3912 -1.4189
40815SOL    HW228283   2.108  11.797  11.845  1.6271  0.7225 -1.7592
40816SOL     OW28284   6.148   4.966  11.006 -0.0743  0.1787  0.2342
40816SOL    HW128285   6.154   4.959  10.911 -1.2371  1.3595  0.0454
40816SOL    HW228286   6.230   4.926  11.038  0.3015 -0.2952 -1.2367
40817SOL     OW28287   3.555   1.704   2.807 -0.0654  0.3268 -0.0915
40817SOL    HW128288   3.485   1.640   2.818 -1.5873  1.8972 -0.2769
40817SOL    HW228289   3.510   1.788   2.800  1.8726  1.4619  0.3747
40818SOL     OW28290   7.903   7.115   3.754 -0.0732 -0.4780 -0.9193
40818SOL    HW128291   7.916   7.205   3.724  1.2951 -0.2331  0.2788
40818SOL    HW228292   7.987   7.073   3.740 -0.6370 -1.5245 -1.2539
40819SOL     OW28293  10.247   3.719   6.506  0.4214  0.0801 -0.0410
40819SOL    HW128294  10.305   3.722   6.429  0.5031  0.2062  0.0247
40819SOL    HW228295  10.160   3.704   6.470  0.4294  0.3375 -0.1731
40820SOL     OW28296   6.729  10.412   3.880  0.2090 -0.6000 -0.2157
40820SOL    HW128297   6.768  10.421   3.967  0.5112  1.4157 -0.5318
40820SOL    HW228298   6.781  10.469   3.824 -1.9775  0.7117 -1.0289
40821SOL     OW28299   0.677   6.221   2.236  0.2828  0.8642 -0.1535
40821SOL    HW128300   0.691   6.148   2.177 -0.4718  0.9472 -0.4547
40821SOL    HW228301   0.691   6.185   2.323  0.9407  0.6244 -0.3552
40822SOL     OW28302   6.089  11.343   0.337  0.4355  0.3875 -0.0883
40822SOL    HW128303   6.060  11.255   0.361  0.4768  0.3122 -0.3128
40822SOL    HW228304   6.142  11.372   0.412 -0.3190  0.5797  0.3901
40823SOL     OW28305   2.221   7.430   5.794 -0.5796  0.2481 -0.2136
40823SOL    HW128306   2.209   7.515   5.751  0.8008 -0.2458 -1.6851
40823SOL    HW228307   2.204   7.447   5.886  0.1525  2.2461 -0.3946
40824SOL     OW28308   4.983  10.205   7.696 -0.3858 -0.6437  0.3872
40824SOL    HW128309   5.075  10.189   7.718 -0.2513 -0.1054  0.2398
40824SOL    HW228310   4.984  10.227   7.603 -0.6513 -0.5192  0.4126
40825SOL     OW28311   1.169   1.464   6.081  0.3603 -0.1969 -0.0667
40825SOL    HW128312   1.101   1.483   6.145  0.4359  1.7884 -0.5002
40825SOL    HW228313   1.251   1.474   6.130  0.4709 -4.3280  0.9264
40826SOL     OW28314   0.209   8.048   9.482  0.4156 -0.0696  0.9713
40826SOL    HW128315   0.134   8.008   9.439  0.2060  0.3216  0.9642
40826SOL    HW228316   0.178   8.135   9.507  1.2765  0.6429 -0.2766
40827SOL     OW28317  11.886   0.563   4.216  0.3231 -0.6852  0.1796
40827SOL    HW128318  11.937   0.551   4.135  1.3968 -0.0034  0.7324
40827SOL    HW228319  11.806   0.513   4.201  1.3639 -2.2419 -0.5351
40828SOL     OW28320   5.468   8.306   3.434  0.1032  0.2292  0.1570
40828SOL    HW128321   5.476   8.320   3.339  0.6745 -1.4250 -0.0775
40828SOL    HW228322   5.518   8.226   3.450  2.0492  1.7641  2.2686
40829SOL     OW28323  10.805   9.583   9.284  0.3001 -0.3172 -0.1150
40829SOL    HW128324  10.753   9.525   9.340 -0.0285  0.0689 -0.0227
40829SOL    HW228325  10.882   9.604   9.337  0.6137 -0.9718 -0.2925
40830SOL     OW28326   5.413   1.269   2.306 -0.0584 -0.4843 -0.4790
40830SOL    HW128327   5.416   1.284   2.400  1.0266  0.1219 -0.6043
40830SOL    HW228328   5.402   1.356   2.268  1.3697 -0.5152 -0.9912
40831SOL     OW28329   4.788   2.482   3.268 -0.3465 -0.5191  0.3415
40831SOL    HW128330   4.756   2.535   3.341  2.2806 -1.2322  2.1754
40831SOL    HW228331   4.762   2.393   3.290 -1.7043 -0.4814 -0.9465
40832SOL     OW28332   8.307   4.955   6.572  0.2264 -0.2500  0.3983
40832SOL    HW128333   8.217   4.977   6.594  0.8673  2.6805  0.5065
40832SOL    HW228334   8.306   4.940   6.478 -0.1619  1.2535  0.1439
40833SOL     OW28335   5.147  12.273   0.492  0.3250 -0.0300 -0.3624
40833SOL    HW128336   5.214  12.282   0.425  0.6818  0.0423  0.0025
40833SOL    HW228337   5.170  12.339   0.558 -0.8917  0.9724 -0.8854
40834SOL     OW28338   8.487  10.146   8.026  1.1546  0.5404  0.3721
40834SOL    HW128339   8.440  10.097   8.093  3.8995 -2.6822  0.1739
40834SOL    HW228340   8.428  10.145   7.950  0.5212 -1.2895  0.8476
40835SOL     OW28341   3.661   0.916  11.689  0.5323  0.3853  0.1782
40835SOL    HW128342   3.587   0.969  11.720  0.6279  0.6634 -0.0622
40835SOL    HW228343   3.726   0.981  11.662  0.8629  0.1419  0.3832
40836SOL     OW28344   4.504   2.354   0.544 -0.2763 -0.1737  0.0965
40836SOL    HW128345   4.496   2.409   0.466  0.1989 -1.1837 -0.6886
40836SOL    HW228346   4.480   2.411   0.616 -1.1727  0.6621 -0.8323
40837SOL     OW28347   6.698   9.807  10.198  0.0926 -0.6183 -0.1535
40837SOL    HW128348   6.791   9.826  10.201 -0.2579  1.1841  0.4178
40837SOL    HW228349   6.670   9.834  10.111 -0.2840  1.0663  0.4424
40838SOL     OW28350   5.291   8.140   4.399 -0.4622  0.3060 -0.1073
40838SOL    HW128351   5.202   8.108   4.408 -0.7858  1.3865  0.6365
40838SOL    HW228352   5.341   8.091   4.465 -0.4691 -0.3889 -0.6102
40839SOL     OW28353   6.793   8.916   2.225 -0.7618 -0.1194  0.0724
40839SOL    HW128354   6.732   8.855   2.266 -1.2589  1.4999  1.8519
40839SOL    HW228355   6.872   8.864   2.212 -0.7402 -0.8841  2.6581
40840SOL     OW28356   3.363  10.657   6.724 -0.2084 -0.4448  0.0776
40840SOL    HW128357   3.351  10.707   6.643 -1.0331  1.1511  1.1171
40840SOL    HW228358   3.280  10.669   6.772 -0.6883 -3.3472  0.1485
40841SOL     OW28359   3.160   1.060   0.818  0.2892 -0.4064 -0.8890
40841SOL    HW128360   3.207   1.039   0.738  0.2102 -2.9152 -0.3341
40841SOL    HW228361   3.074   1.090   0.788  0.5824 -0.3979 -1.7424
40842SOL     OW28362  10.880  10.694   8.484  0.0539 -0.5394  0.3140
40842SOL    HW128363  10.927  10.760   8.433 -0.2752 -1.4205 -1.1860
40842SOL    HW228364  10.941  10.670   8.554  1.0241 -0.2031 -0.3920
40843SOL     OW28365   6.222   5.524   4.139  0.0855  0.1608 -0.1329
40843SOL    HW128366   6.272   5.537   4.059 -0.2102 -0.8192 -0.4852
40843SOL    HW228367   6.287   5.533   4.209  0.9432 -1.7681 -0.6117
40844SOL     OW28368   0.578   4.301   5.670  0.0223 -0.5264  0.0480
40844SOL    HW128369   0.580   4.391   5.704 -0.7304 -0.6718  0.4788
40844SOL    HW228370   0.668   4.270   5.680 -0.2719 -0.7741  2.4928
40845SOL     OW28371   5.879   0.518   0.567 -0.3697  0.0411  0.6939
40845SOL    HW128372   5.940   0.532   0.640 -1.8468  0.4194  1.9089
40845SOL    HW228373   5.878   0.423   0.555 -0.9293 -0.1303  1.9240
40846SOL     OW28374   6.813  11.084  11.720  0.1295  0.3645 -0.0130
40846SOL    HW128375   6.806  11.167  11.672  0.0758  0.5412  0.3029
40846SOL    HW228376   6.882  11.036  11.673  0.9711  1.0539  0.4878
40847SOL     OW28377   2.792  11.425   4.019 -0.1371 -0.1227 -0.0007
40847SOL    HW128378   2.845  11.366   3.965  1.1568  0.0889  0.9916
40847SOL    HW228379   2.799  11.510   3.977  2.0967  0.3744  1.2310
40848SOL     OW28380   7.463  10.039   2.473  0.3661 -0.8354  0.0650
40848SOL    HW128381   7.504   9.958   2.444 -0.7840 -0.4423 -3.0243
40848SOL    HW228382   7.524  10.108   2.448  0.4955 -0.6106  0.9686
40849SOL     OW28383   0.057  10.441   7.884 -0.1108 -0.0348  0.1641
40849SOL    HW128384   0.140  10.395   7.871 -1.6517 -2.3143 -3.0237
40849SOL    HW228385  -0.008  10.371   7.891 -2.3162  1.5249 -2.6470
40850SOL     OW28386   8.655  10.365  11.218  0.4820 -0.4306  0.1808
40850SOL    HW128387   8.623  10.381  11.129  1.6818 -1.2806 -0.4461
40850SOL    HW228388   8.624  10.277  11.240 -0.6630  0.1639  1.0299
40851SOL     OW28389   2.039   7.223   8.661 -0.2547 -0.3489 -0.0301
40851SOL    HW128390   2.004   7.202   8.575 -1.8186 -4.1706  1.3302
40851SOL    HW228391   1.983   7.293   8.694 -2.3817 -1.7089 -0.5824
40852SOL     OW28392   9.727   5.670   5.050 -0.1061  0.1114  0.0268
40852SOL    HW128393   9.635   5.696   5.050 -0.8295 -2.2457 -0.5718
40852SOL    HW228394   9.750   5.660   4.958 -0.2232 -2.3398  0.2160
40853SOL     OW28395   5.690  10.837   2.996 -0.1755 -0.3666  0.0731
40853SOL    HW128396   5.663  10.748   3.020 -0.6040  0.2227  1.9344
40853SOL    HW228397   5.783  10.829   2.977 -0.5436 -1.5072 -1.4953
40854SOL     OW28398   4.334   3.978   7.541  0.1629 -0.0573 -0.0609
40854SOL    HW128399   4.243   3.988   7.512  0.3019  1.2714 -0.1208
40854SOL    HW228400   4.378   3.936   7.468 -0.0277  0.9851 -0.7999
40855SOL     OW28401   9.373   8.582   7.826  0.2693 -0.3282 -0.4415
40855SOL    HW128402   9.294   8.632   7.845 -0.4651 -0.1717 -3.4149
40855SOL    HW228403   9.343   8.508   7.774  1.9499 -0.8604 -0.7248
40856SOL     OW28404   2.230   2.630   3.639  0.1922 -0.0738 -0.3438
40856SOL    HW128405   2.200   2.629   3.730  2.9490 -0.4091  0.6377
40856SOL    HW228406   2.260   2.719   3.624 -1.4840  0.3647 -1.4491
40857SOL     OW28407   5.859   0.343   2.615  0.0068  0.1433  0.6692
40857SOL    HW128408   5.821   0.268   2.570  0.3553  0.1435  0.3655
40857SOL    HW228409   5.794   0.367   2.681 -1.6778  1.6394 -1.3714
40858SOL     OW28410   7.950   2.167  10.135  0.5926  0.1932  0.2368
40858SOL    HW128411   7.864   2.166  10.177  0.7362  3.9698  1.0185
40858SOL    HW228412   7.933   2.197  10.046  1.0587  1.4986  0.5542
40859SOL     OW28413   8.177   6.724   3.359  0.1902  0.1125 -0.5595
40859SOL    HW128414   8.223   6.646   3.391 -1.1775 -0.6035 -0.2793
40859SOL    HW228415   8.193   6.725   3.265 -0.5585 -1.0660 -0.7187
40860SOL     OW28416  10.019   1.060   9.356 -0.3512 -0.3235 -0.1877
40860SOL    HW128417  10.017   1.153   9.377 -1.6820 -0.4929  0.5806
40860SOL    HW228418   9.947   1.048   9.293 -0.8116 -0.9704  0.4403
40861SOL     OW28419   7.685   4.001   1.191  0.4076  0.0549  0.1639
40861SOL    HW128420   7.592   3.980   1.182  0.0453  1.1809  1.1293
40861SOL    HW228421   7.690   4.062   1.264  2.0539 -0.8959  0.9167
40862SOL     OW28422   0.465   3.992   2.036 -0.0900  0.1345 -0.3259
40862SOL    HW128423   0.534   3.960   2.093  0.0473 -0.4454 -0.8074
40862SOL    HW228424   0.391   4.009   2.094  1.2181  3.3069  0.6482
40863SOL     OW28425   8.237   7.863   0.976  0.7238 -0.3574  0.5574
40863SOL    HW128426   8.330   7.844   0.965  0.3519 -2.5801  0.7028
40863SOL    HW228427   8.200   7.781   1.007 -1.4780  0.1591 -0.5229
40864SOL     OW28428   0.018   0.411  10.402  0.4054  0.1995 -0.1783
40864SOL    HW128429   0.020   0.507  10.401  1.2693  0.2153  1.3063
40864SOL    HW228430   0.107   0.385  10.378 -0.0230 -0.2744 -1.3403
40865SOL     OW28431   6.709   6.791   8.714  0.6760  0.2849 -0.5613
40865SOL    HW128432   6.792   6.781   8.667  1.9881  0.2211  1.6721
40865SOL    HW228433   6.730   6.845   8.790 -1.9057  2.5694 -1.2926
40866SOL     OW28434   3.489   7.052   1.650 -0.2935  0.0060 -0.3454
40866SOL    HW128435   3.528   7.074   1.734 -2.9280  1.3454  0.6398
40866SOL    HW228436   3.430   6.979   1.669 -2.0275  1.2527 -0.6077
40867SOL     OW28437   1.727   2.358   3.522 -0.0787  0.9626  0.9667
40867SOL    HW128438   1.636   2.331   3.535  0.0794 -0.1341 -0.0082
40867SOL    HW228439   1.721   2.435   3.466 -0.3782 -0.0511 -0.4463
40868SOL     OW28440   2.128   9.072   6.345 -0.3416  0.1127 -0.2408
40868SOL    HW128441   2.211   9.099   6.386 -0.2349 -0.1031 -0.3142
40868SOL    HW228442   2.076   9.039   6.418  0.4040 -1.6759 -0.4595
40869SOL     OW28443  10.581   8.199   2.660  0.7007 -0.6782 -0.0446
40869SOL    HW128444  10.609   8.115   2.624  0.7783 -1.0592  0.8880
40869SOL    HW228445  10.493   8.182   2.695  0.5052 -0.2404 -0.3217
40870SOL     OW28446   2.576   4.193   7.717  0.1525 -0.0618  0.3757
40870SOL    HW128447   2.644   4.182   7.783 -0.4665 -1.2448  0.8463
40870SOL    HW228448   2.555   4.286   7.719  0.5311  0.0133  1.4456
40871SOL     OW28449  10.453  11.422   1.203 -0.4197 -0.4779  0.0014
40871SOL    HW128450  10.537  11.460   1.230  0.3527 -1.0728 -1.4335
40871SOL    HW228451  10.470  11.327   1.199 -1.5084 -0.7271  0.8179
40872SOL     OW28452   2.847  10.624   5.693 -0.3715 -0.0016  0.0937
40872SOL    HW128453   2.927  10.613   5.643  0.4882  0.8982  1.1921
40872SOL    HW228454   2.790  10.677   5.637  0.5181  0.8790  0.0012
40873SOL     OW28455   4.039   9.625   8.080 -0.3532  0.1856 -0.3971
40873SOL    HW128456   4.060   9.684   8.153 -0.3169  0.3519 -0.5430
40873SOL    HW228457   4.020   9.542   8.122 -2.2942  0.7721 -0.0206
40874SOL     OW28458   0.309   6.655  11.768 -0.1501 -0.3217  0.0346
40874SOL    HW128459   0.319   6.747  11.741 -0.0142  0.3788  2.2864
40874SOL    HW228460   0.214   6.645  11.779 -0.2152 -0.6402 -0.7747
40875SOL     OW28461  12.025   8.345   8.464  0.1818  0.1179  0.2778
40875SOL    HW128462  12.070   8.426   8.441  1.6970 -1.2995 -2.2814
40875SOL    HW228463  11.933   8.362   8.443  0.2692  1.5114  0.8999
40876SOL     OW28464   7.316  11.094   2.635  0.4776 -0.3596  0.0024
40876SOL    HW128465   7.355  11.089   2.547  0.4169  0.8984 -0.1150
40876SOL    HW228466   7.247  11.160   2.626  1.0025  0.3662  1.1908
40877SOL     OW28467   5.433   5.995   9.790  0.3785  0.5914  0.8735
40877SOL    HW128468   5.356   6.050   9.805 -0.0582  0.6434 -1.3196
40877SOL    HW228469   5.427   5.970   9.698  3.4481  1.3001  0.3941
40878SOL     OW28470   2.755   8.670   1.788 -0.8651 -0.0283 -0.1403
40878SOL    HW128471   2.746   8.751   1.737  0.0448  1.8269  2.3873
40878SOL    HW228472   2.711   8.603   1.736 -0.1574  1.6945 -3.2065
40879SOL     OW28473   7.804   0.513   6.999  0.0742  0.0802 -0.5850
40879SOL    HW128474   7.755   0.581   6.952 -0.3989 -0.7935 -1.3811
40879SOL    HW228475   7.768   0.515   7.088  0.6194  1.3989 -0.3682
40880SOL     OW28476   6.525   4.832   6.595 -0.1388 -0.4452  0.2766
40880SOL    HW128477   6.575   4.826   6.514 -0.0515 -1.3986  0.3805
40880SOL    HW228478   6.586   4.801   6.663 -0.6220 -0.9057  0.5113
40881SOL     OW28479   2.176   2.637   8.147  0.0064 -0.0956  0.0001
40881SOL    HW128480   2.147   2.702   8.084 -0.0389 -0.8125 -0.7332
40881SOL    HW228481   2.103   2.627   8.208 -0.3504 -0.1435 -0.4370
40882SOL     OW28482   4.707   5.415   4.616 -0.1168 -0.1913  0.2603
40882SOL    HW128483   4.680   5.424   4.708 -2.0328 -2.8568  0.0893
40882SOL    HW228484   4.624   5.407   4.568  0.8748 -1.1130 -1.3678
40883SOL     OW28485   7.440  11.877   1.722  0.2062 -0.1967 -0.3458
40883SOL    HW128486   7.519  11.911   1.681 -0.2419  1.4613  0.0885
40883SOL    HW228487   7.471  11.828   1.797  0.8491  0.0641 -0.4322
40884SOL     OW28488   6.316   8.322   9.639 -0.2245 -0.2816  0.2381
40884SOL    HW128489   6.348   8.406   9.672 -0.2875 -0.4356  0.7044
40884SOL    HW228490   6.366   8.306   9.559  1.2331 -0.7659  1.2179
40885SOL     OW28491   1.284   5.917   7.237 -0.8805 -0.8715  0.4853
40885SOL    HW128492   1.246   5.831   7.218 -2.0544 -0.6610  1.7048
40885SOL    HW228493   1.263   5.932   7.329  0.0104  0.3880  0.5028
40886SOL     OW28494   4.763  12.320  11.964  0.7620 -1.0535  0.0999
40886SOL    HW128495   4.716  12.239  11.980 -0.4827 -0.6004 -1.0920
40886SOL    HW228496   4.720  12.385  12.019 -0.0325 -0.6490 -0.9574
40887SOL     OW28497   6.921   7.068   0.708  0.1831 -0.2670  0.0472
40887SOL    HW128498   6.872   7.037   0.632 -0.9757  1.4660  0.0306
40887SOL    HW228499   6.996   7.114   0.671  0.0147 -0.0500 -0.0243
40888SOL     OW28500   8.763  12.253   0.158 -0.2242  0.2485 -0.1279
40888SOL    HW128501   8.851  12.214   0.162  0.5400  1.8259 -0.5322
40888SOL    HW228502   8.757  12.305   0.238  0.1347  1.9102 -1.1286
40889SOL     OW28503  11.738   6.919   4.645  0.3628 -0.5763 -0.0661
40889SOL    HW128504  11.794   6.939   4.570 -2.0866 -1.6882 -2.3664
40889SOL    HW228505  11.752   6.992   4.706  1.5327  1.0374 -2.1363
40890SOL     OW28506   2.865   5.601   3.181  0.0673 -0.6361  0.1340
40890SOL    HW128507   2.817   5.664   3.127  1.5774  0.6888  0.2868
40890SOL    HW228508   2.942   5.579   3.130  0.7106 -0.5911  1.0650
40891SOL     OW28509   0.539   0.381   9.666  0.3372 -0.7052 -0.5893
40891SOL    HW128510   0.608   0.446   9.677 -0.2153 -0.4079  1.7476
40891SOL    HW228511   0.541   0.331   9.748 -1.7741 -1.0969 -0.7203
40892SOL     OW28512   2.544   3.911   2.925 -0.5450  0.5627 -0.2616
40892SOL    HW128513   2.458   3.949   2.942  0.0623  1.3858  1.1173
40892SOL    HW228514   2.602   3.986   2.915  0.3396  0.0201  0.6173
40893SOL     OW28515   8.972   7.598   0.394  0.0728 -0.6191  0.0860
40893SOL    HW128516   9.020   7.617   0.474  1.6004  1.4733 -1.2229
40893SOL    HW228517   9.037   7.608   0.324 -1.6971 -0.1109 -1.5831
40894SOL     OW28518  10.541   8.633   1.118 -0.1948  0.3442 -0.4245
40894SOL    HW128519  10.599   8.658   1.191  0.1116 -2.3134  0.3400
40894SOL    HW228520  10.600   8.624   1.043 -0.1525  0.8693 -0.4575
40895SOL     OW28521   6.964  11.229   0.771 -0.2612 -0.5436 -0.4837
40895SOL    HW128522   6.894  11.164   0.776 -0.2329 -0.4767  2.6614
40895SOL    HW228523   6.923  11.306   0.733 -1.3775 -1.0931 -0.4327
40896SOL     OW28524  11.840   8.697   5.752 -0.7026  0.0553 -0.5323
40896SOL    HW128525  11.747   8.714   5.734 -0.6511  1.4626  0.3661
40896SOL    HW228526  11.881   8.784   5.750  0.5069 -0.4984 -0.4371
40897SOL     OW28527   8.712   9.589   0.139 -0.1097  0.0352  0.2782
40897SOL    HW128528   8.803   9.559   0.147 -0.8773 -2.0686  1.8304
40897SOL    HW228529   8.673   9.532   0.073  0.3355  2.8416 -2.6620
40898SOL     OW28530  10.733   7.763   7.223 -0.9397  0.4076  0.1403
40898SOL    HW128531  10.699   7.674   7.226  0.6712 -0.2251  0.5367
40898SOL    HW228532  10.671   7.811   7.167 -1.6050 -1.0421 -0.4054
40899SOL     OW28533   7.272   0.256   7.465 -0.5341  1.1448 -0.3051
40899SOL    HW128534   7.182   0.261   7.497 -0.2691  1.1213  0.4766
40899SOL    HW228535   7.325   0.247   7.545 -0.0337 -1.5142 -0.8349
40900SOL     OW28536   8.610  10.043   2.587  0.3291  0.4711  0.0404
40900SOL    HW128537   8.701  10.073   2.580  0.1888  1.1895  1.0934
40900SOL    HW228538   8.587  10.014   2.498  1.6724 -0.0040 -0.1747
40901SOL     OW28539   4.661   3.667   9.472  0.5180  0.3566  0.5952
40901SOL    HW128540   4.664   3.674   9.376 -0.7675  1.6079  0.6105
40901SOL    HW228541   4.619   3.583   9.488 -2.1294  1.4410 -0.0536
40902SOL     OW28542   8.976   8.869   0.748 -0.0116  0.5471  0.3266
40902SOL    HW128543   9.014   8.802   0.690 -1.1188  0.6996 -0.6116
40902SOL    HW228544   9.051   8.920   0.777  0.7755 -0.6348  0.4588
40903SOL     OW28545  10.328   8.644   7.045 -0.3321  0.4708 -0.0003
40903SOL    HW128546  10.413   8.687   7.033 -0.2296  0.8860  1.9414
40903SOL    HW228547  10.289   8.645   6.958  1.7646 -0.0014 -1.0128
40904SOL     OW28548   6.289   4.903   5.008  0.0582  0.1264 -0.1965
40904SOL    HW128549   6.305   4.863   4.922 -1.1629 -0.2323 -0.2753
40904SOL    HW228550   6.194   4.912   5.013  0.2347  2.2430  0.1954
40905SOL     OW28551   4.358   6.554  10.521  0.0646 -0.4237 -0.3907
40905SOL    HW128552   4.380   6.548  10.613 -0.8320 -1.1800 -0.2098
40905SOL    HW228553   4.336   6.464  10.495  0.1289 -0.1935 -1.2898
40906SOL     OW28554   1.656   5.353   1.418 -0.5106  0.1889 -0.4434
40906SOL    HW128555   1.751   5.356   1.405 -0.4608  0.8171  0.0492
40906SOL    HW228556   1.637   5.425   1.477 -1.2937  0.0287 -0.4863
40907SOL     OW28557   2.058   7.572  10.675 -0.1379  0.5429  0.4656
40907SOL    HW128558   2.117   7.600  10.745  0.0448  2.2870 -0.3283
40907SOL    HW228559   2.013   7.652  10.648 -0.2532 -0.0869 -1.3608
40908SOL     OW28560   7.320   5.515   8.053 -0.4737  0.5084 -0.0286
40908SOL    HW128561   7.276   5.441   8.012 -0.1468  0.9592 -1.2116
40908SOL    HW228562   7.325   5.581   7.984  4.0312 -0.2693 -0.7067
40909SOL     OW28563   3.472   5.391   8.416  0.6210  0.0551  0.2971
40909SOL    HW128564   3.390   5.413   8.372  1.0761 -1.6655 -1.5985
40909SOL    HW228565   3.499   5.472   8.459 -2.1870  0.5955  1.2526
40910SOL     OW28566   2.570   9.029   0.674  0.1689 -0.6923  0.0441
40910SOL    HW128567   2.543   9.068   0.756  0.3193  0.9944 -0.6729
40910SOL    HW228568   2.621   8.952   0.699 -1.9269 -1.7008  1.4562
40911SOL     OW28569   6.050   7.514  12.315 -0.2762 -0.1170  0.3687
40911SOL    HW128570   6.089   7.471  12.238 -0.6741  0.9388 -0.4469
40911SOL    HW228571   6.084   7.464  12.389 -0.1015 -1.3482 -0.4921
40912SOL     OW28572   4.502   2.496   6.051 -0.1458 -0.3938 -0.1085
40912SOL    HW128573   4.439   2.434   6.014 -1.6223  1.0828 -0.1617
40912SOL    HW228574   4.530   2.550   5.977 -0.1405  0.0644  0.2192
40913SOL     OW28575   4.152   2.330   0.509  0.4566 -0.0247  0.3699
40913SOL    HW128576   4.089   2.314   0.439  1.0990  0.1675 -0.2606
40913SOL    HW228577   4.218   2.261   0.499 -0.7595 -1.6209  2.4006
40914SOL     OW28578   9.385  11.077  10.718  0.4823  0.4691  0.1350
40914SOL    HW128579   9.353  11.129  10.644 -0.4819  0.3766  0.4648
40914SOL    HW228580   9.318  11.088  10.785  1.7159  1.1855  1.2946
40915SOL     OW28581   3.594   3.374   9.056 -0.1856  0.1574  0.0768
40915SOL    HW128582   3.598   3.279   9.059 -0.1315  0.1498 -0.1742
40915SOL    HW228583   3.612   3.396   8.964 -0.2556  0.4052  0.1202
40916SOL     OW28584   4.425  10.837   8.613  0.8791 -0.0697 -0.1893
40916SOL    HW128585   4.458  10.889   8.686 -1.2848 -0.8822  1.4676
40916SOL    HW228586   4.387  10.901   8.553 -0.1268  0.4306  0.9486
40917SOL     OW28587   5.331   7.659   9.264 -0.1373 -0.7215 -0.3023
40917SOL    HW128588   5.361   7.717   9.194  0.3352 -0.3083  0.2364
40917SOL    HW228589   5.293   7.584   9.218  0.9564 -0.8640 -1.0134
40918SOL     OW28590   5.368   8.711   3.590  0.2425 -0.4586  0.1057
40918SOL    HW128591   5.428   8.637   3.596  0.7185 -0.0539  0.4477
40918SOL    HW228592   5.303   8.695   3.658  0.4671 -0.4551  0.3211
40919SOL     OW28593   4.137   0.746   6.306 -0.1237 -0.0666  0.3832
40919SOL    HW128594   4.110   0.755   6.397 -0.2515 -0.2237  0.3610
40919SOL    HW228595   4.181   0.661   6.303  0.7537  0.3696  0.5139
40920SOL     OW28596   1.256   4.651   0.282  0.0942  0.2855  0.4000
40920SOL    HW128597   1.174   4.656   0.233 -0.7412 -0.8243  1.6258
40920SOL    HW228598   1.323   4.642   0.215 -1.0586 -1.7322 -0.5660
40921SOL     OW28599   6.238   3.833   1.867  0.0410 -0.1667  1.1475
40921SOL    HW128600   6.217   3.774   1.795  0.2039 -0.1241  1.0631
40921SOL    HW228601   6.188   3.801   1.941  1.3725 -1.4058  1.5592
40922SOL     OW28602   5.507   5.367   4.103 -0.2751 -0.0459 -0.0596
40922SOL    HW128603   5.467   5.449   4.132 -2.3720 -0.7083 -0.8605
40922SOL    HW228604   5.461   5.346   4.021  1.1746 -1.3322 -0.5908
40923SOL     OW28605   9.816  12.255   6.764  0.0318 -0.1571  0.7424
40923SOL    HW128606   9.882  12.281   6.829 -0.1373 -2.2535  1.8469
40923SOL    HW228607   9.866  12.206   6.698 -0.1721 -0.2781  0.6781
40924SOL     OW28608   1.473   0.731   8.574  0.5332  0.3099  0.5554
40924SOL    HW128609   1.527   0.655   8.593 -1.9560 -1.8654 -0.4701
40924SOL    HW228610   1.398   0.722   8.632 -1.4850 -0.0088 -1.9239
40925SOL     OW28611   1.015   4.698   3.731  0.5005 -0.6410 -0.1640
40925SOL    HW128612   0.935   4.748   3.716 -0.2161 -1.9291 -0.8663
40925SOL    HW228613   1.068   4.715   3.653 -0.2979 -1.9316 -1.0393
40926SOL     OW28614   7.949   0.500   3.820 -0.2201 -0.0721  0.2647
40926SOL    HW128615   7.900   0.527   3.898 -0.5034 -0.5567  0.2604
40926SOL    HW228616   8.011   0.571   3.804  0.6816 -0.5117  1.6475
40927SOL     OW28617   1.454   4.233  12.306 -0.1193  0.1498 -0.4464
40927SOL    HW128618   1.404   4.302  12.351 -1.1154  0.7033 -2.2880
40927SOL    HW228619   1.423   4.152  12.346 -0.3187  0.6616  0.4697
40928SOL     OW28620   3.297  11.378   0.728  0.1701  0.2611 -0.0135
40928SOL    HW128621   3.390  11.359   0.717  0.1482  0.3979 -0.4447
40928SOL    HW228622   3.286  11.466   0.692 -0.3021 -0.1250 -0.8395
40929SOL     OW28623   2.029   7.280   3.207  0.1551 -0.5221  0.1280
40929SOL    HW128624   1.977   7.284   3.128 -0.8111 -2.5704  0.5959
40929SOL    HW228625   2.110   7.237   3.180 -0.1117 -1.0814  0.2039
40930SOL     OW28626   5.558  10.541   3.569  0.7211 -1.0435  0.4935
40930SOL    HW128627   5.640  10.556   3.616 -0.1894  0.3026  1.7430
40930SOL    HW228628   5.522  10.462   3.609  0.6593 -0.7426  1.0340
40931SOL     OW28629   7.772   6.419   5.299  0.2785  0.1794 -0.2389
40931SOL    HW128630   7.831   6.448   5.370  0.4184  0.8093 -0.6027
40931SOL    HW228631   7.699   6.481   5.304  0.9401  1.1087 -1.5160
40932SOL     OW28632   0.840  11.464   2.532  0.3211  0.7759  0.2381
40932SOL    HW128633   0.842  11.538   2.471  0.1879  0.2299 -0.4354
40932SOL    HW228634   0.861  11.503   2.617 -1.0040  1.8279  0.1241
40933SOL     OW28635   4.490   0.910  10.679 -0.2038  0.7203  0.1541
40933SOL    HW128636   4.427   0.959  10.626 -0.1231  1.3293  0.6038
40933SOL    HW228637   4.440   0.834  10.711  0.4626 -1.2044 -2.9435
40934SOL     OW28638   3.907   2.849   8.282  0.0037 -0.3005  0.0236
40934SOL    HW128639   3.882   2.899   8.205 -0.8679 -0.6046  0.1063
40934SOL    HW228640   3.953   2.773   8.247 -0.6429 -0.5858 -0.2161
40935SOL     OW28641   4.413   7.104   1.686  0.2625 -0.1965 -0.7759
40935SOL    HW128642   4.462   7.022   1.684  1.3452  0.4393 -1.1158
40935SOL    HW228643   4.448   7.152   1.761  0.0678  0.2108 -0.9365
40936SOL     OW28644   9.340   3.521   1.386  0.4599 -0.2065  0.3622
40936SOL    HW128645   9.388   3.447   1.350  1.1933 -0.1239  1.1288
40936SOL    HW228646   9.386   3.542   1.468 -1.1023 -0.3630  1.3282
40937SOL     OW28647   0.079   7.291   1.361 -0.2639 -0.7709  0.5477
40937SOL    HW128648   0.132   7.301   1.440  1.3013 -0.4238 -0.5059
40937SOL    HW228649   0.090   7.199   1.336  0.2217 -0.5972  0.0935
40938SOL     OW28650   6.138   1.830  10.082 -0.6378 -0.2777  0.3457
40938SOL    HW128651   6.117   1.903  10.024  0.9444  0.0951  0.1922
40938SOL    HW228652   6.111   1.859  10.169  0.4489  0.7370  0.3676
40939SOL     OW28653   7.460  10.051   7.666 -0.6247  0.1262 -0.1565
40939SOL    HW128654   7.540  10.040   7.717  0.5741 -0.6289 -2.1210
40939SOL    HW228655   7.452   9.970   7.616 -3.5577 -0.5513  1.1723
40940SOL     OW28656   3.315   1.181   9.316 -0.2615  0.2539 -0.3275
40940SOL    HW128657   3.389   1.175   9.376 -0.5532  0.6496  0.0827
40940SOL    HW228658   3.352   1.213   9.234  0.0391  0.3373 -0.1586
40941SOL     OW28659   3.279  10.100   3.166  0.3596  0.2549 -0.3187
40941SOL    HW128660   3.331  10.148   3.230  0.8052  1.0771 -1.2621
40941SOL    HW228661   3.195  10.146   3.163  0.1722 -0.0628  0.0006
40942SOL     OW28662   8.281   5.628   7.626 -0.0833  0.2487  0.0412
40942SOL    HW128663   8.373   5.606   7.613 -0.2277  0.1795 -0.9519
40942SOL    HW228664   8.279   5.679   7.707  0.7707 -0.0719  0.2722
40943SOL     OW28665   4.627   4.050  11.347 -0.1829 -0.3052 -0.1008
40943SOL    HW128666   4.662   3.981  11.403  0.6060  0.2367  0.0927
40943SOL    HW228667   4.667   4.034  11.261  0.8904  0.5618  0.2257
40944SOL     OW28668  11.175   1.392   6.480 -0.4200  0.0125  0.4087
40944SOL    HW128669  11.254   1.402   6.533 -0.0423  2.0304 -0.4368
40944SOL    HW228670  11.206   1.363   6.395 -0.3502  2.2292 -0.3885
40945SOL     OW28671   3.446   9.721   9.524  0.7322  0.1180  0.2446
40945SOL    HW128672   3.446   9.777   9.602  0.3701  1.5747 -0.7646
40945SOL    HW228673   3.534   9.729   9.488  0.6831  0.0214  0.0993
40946SOL     OW28674   0.098   9.018   4.741  0.8845 -0.1252 -0.0150
40946SOL    HW128675   0.092   8.930   4.704 -0.5485 -0.6033  1.2519
40946SOL    HW228676   0.069   9.075   4.670  0.5513 -0.7959 -0.4342
40947SOL     OW28677   5.816   3.410  10.327 -0.1940  0.0932 -0.5885
40947SOL    HW128678   5.785   3.391  10.238  0.2561 -0.8656 -0.5551
40947SOL    HW228679   5.858   3.329  10.355 -1.7605 -0.1762  1.1302
40948SOL     OW28680  11.258   9.248   1.072  0.1713 -0.1136  0.3345
40948SOL    HW128681  11.341   9.217   1.108  0.2082  1.6940  1.9535
40948SOL    HW228682  11.280   9.329   1.027 -0.7694  0.7409  1.3471
40949SOL     OW28683  11.781  11.830  11.533  0.8180 -0.2106  0.8404
40949SOL    HW128684  11.741  11.761  11.482  0.6136  0.6666 -0.2276
40949SOL    HW228685  11.874  11.806  11.539  1.0719  0.1849 -0.8902
40950SOL     OW28686   6.709   9.458   0.095 -0.7653  0.0936  0.0092
40950SOL    HW128687   6.736   9.367   0.096  2.9639  1.0337 -0.1520
40950SOL    HW228688   6.688   9.476   0.004 -1.5982 -0.5961  0.0563
40951SOL     OW28689  11.722   2.492   6.506 -0.4063 -0.4023 -0.3595
40951SOL    HW128690  11.652   2.547   6.542 -0.5243 -0.9357  0.2414
40951SOL    HW228691  11.789   2.491   6.575  0.2485  0.1941 -0.9767
40952SOL     OW28692   6.381  11.909   0.756  0.5977  0.6678 -0.0632
40952SOL    HW128693   6.474  11.923   0.772  0.2215  1.4465  1.7188
40952SOL    HW228694   6.361  11.826   0.802  0.0136  1.6243  1.5136
40953SOL     OW28695   5.726  10.772   4.081 -0.1800 -0.2607  0.1797
40953SOL    HW128696   5.729  10.864   4.053  0.7530 -0.3011  0.1334
40953SOL    HW228697   5.741  10.722   4.000 -0.5367 -0.4598  0.2318
40954SOL     OW28698   7.700   7.136   5.715 -0.5711  0.2806  0.1373
40954SOL    HW128699   7.662   7.192   5.648 -0.1942  0.2757 -0.0854
40954SOL    HW228700   7.661   7.050   5.699 -2.1856  0.7412  1.3160
40955SOL     OW28701   2.020  11.294  10.065  0.0846 -0.0322  0.0815
40955SOL    HW128702   2.051  11.380  10.096  0.0444  0.2059 -0.5178
40955SOL    HW228703   1.960  11.315   9.994 -1.0750 -0.5125  0.8924
40956SOL     OW28704   5.101   4.962   1.271  0.1033  0.2590 -0.0878
40956SOL    HW128705   5.176   4.934   1.324 -0.4265 -1.3830 -0.1847
40956SOL    HW228706   5.043   5.007   1.332  0.6666  0.6278  0.1885
40957SOL     OW28707   4.465   2.422   2.424  0.2731 -0.6936  0.0882
40957SOL    HW128708   4.388   2.407   2.369 -0.6110  0.4230  0.9581
40957SOL    HW228709   4.507   2.337   2.431 -1.4072 -1.5433  0.3480
40958SOL     OW28710   4.953   2.724  10.800  0.4598 -0.5095  0.1043
40958SOL    HW128711   5.014   2.714  10.727  2.6028 -1.2984  1.8850
40958SOL    HW228712   4.984   2.801  10.848 -0.1103 -0.7592  0.9064
40959SOL     OW28713  11.732  10.812   8.667 -0.3190 -0.0618 -0.7104
40959SOL    HW128714  11.712  10.866   8.743 -1.8930  0.2266 -1.2938
40959SOL    HW228715  11.826  10.822   8.655 -0.1752  0.5280  0.6986
40960SOL     OW28716   7.722  12.210   9.863  0.2475  0.1305  0.1509
40960SOL    HW128717   7.803  12.260   9.869 -0.6936  1.9972 -1.6588
40960SOL    HW228718   7.658  12.261   9.912 -0.4594  0.1206 -0.7247
40961SOL     OW28719   0.075  10.578  11.374  0.4233  0.0174  0.0189
40961SOL    HW128720   0.099  10.490  11.400 -0.7385 -0.3196  0.0170
40961SOL    HW228721   0.109  10.634  11.444  0.6089 -0.4946  0.3439
40962SOL     OW28722   9.286   9.916   8.347  0.1388 -0.7098  0.7093
40962SOL    HW128723   9.300   9.901   8.441 -1.7096  0.7747  1.2843
40962SOL    HW228724   9.211   9.975   8.343  0.3374 -0.5160 -1.7201
40963SOL     OW28725  11.964   9.418   3.118  0.1004  0.3909  0.2012
40963SOL    HW128726  11.984   9.391   3.208 -1.5776  1.1891  0.8547
40963SOL    HW228727  12.035   9.381   3.066 -0.8442 -3.4077  1.2708
40964SOL     OW28728  12.200   6.020   7.027 -0.0424 -0.0150  0.0251
40964SOL    HW128729  12.141   5.946   7.043  1.1433 -1.8350 -3.1842
40964SOL    HW228730  12.146   6.083   6.979 -0.0126 -0.6221 -0.8196
40965SOL     OW28731   5.455   9.195  11.523 -0.3631 -0.2062 -0.9712
40965SOL    HW128732   5.382   9.245  11.561  0.0576  0.6267 -1.2340
40965SOL    HW228733   5.413   9.123  11.475 -0.9286 -0.8483  0.4425
40966SOL     OW28734   7.318   6.778   5.309 -0.1702 -0.0765  0.6559
40966SOL    HW128735   7.281   6.772   5.397 -1.9763 -1.8021 -0.1110
40966SOL    HW228736   7.249   6.821   5.257  1.3353  2.0075  0.2583
40967SOL     OW28737   2.956   6.631   5.128 -0.1228  0.3737  0.5317
40967SOL    HW128738   2.866   6.664   5.128 -0.1655  0.2617  0.8859
40967SOL    HW228739   2.965   6.587   5.043 -1.0809 -1.4121  1.3118
40968SOL     OW28740   1.263   8.017  10.055 -1.0021 -0.6338 -0.1154
40968SOL    HW128741   1.240   7.926  10.073 -2.0099 -0.4099 -0.1812
40968SOL    HW228742   1.184   8.054  10.016 -0.5125  0.1985 -0.3375
40969SOL     OW28743   8.110  11.869   6.346  0.1683 -0.2027  0.1512
40969SOL    HW128744   8.026  11.871   6.299  0.1084 -0.7317  0.2261
40969SOL    HW228745   8.113  11.952   6.392 -0.3000 -0.1577  0.1137
40970SOL     OW28746  10.206   2.729   1.445  0.3945  0.8726  0.3717
40970SOL    HW128747  10.140   2.791   1.473  0.8080  0.9775  1.1236
40970SOL    HW228748  10.215   2.667   1.517 -0.5558 -0.5295 -0.6593
40971SOL     OW28749   8.871   9.552   0.703 -0.1719  0.6463  0.3144
40971SOL    HW128750   8.941   9.490   0.682 -0.4150  0.3401  0.4080
40971SOL    HW228751   8.810   9.545   0.629 -0.8272 -0.1416  0.9054
40972SOL     OW28752   5.185  12.176   7.496 -0.0212  0.2866  0.4780
40972SOL    HW128753   5.209  12.223   7.576  1.0528 -0.6302  0.7227
40972SOL    HW228754   5.232  12.222   7.427 -0.1732  0.4936  0.5138
40973SOL     OW28755   0.807   3.126   7.153 -0.5905 -0.3135  0.0524
40973SOL    HW128756   0.746   3.132   7.226 -0.3121 -0.0776  0.2689
40973SOL    HW228757   0.876   3.190   7.174  0.4524 -1.5324  0.5035
40974SOL     OW28758   9.664   5.602   2.350 -0.1106  0.1143  0.1313
40974SOL    HW128759   9.671   5.696   2.337 -0.1997 -0.0914 -1.7328
40974SOL    HW228760   9.673   5.589   2.444 -0.4756  2.0056  0.4513
40975SOL     OW28761   3.802   5.845   9.425 -0.5506  0.1043 -0.1431
40975SOL    HW128762   3.835   5.890   9.347  0.1081 -0.5240 -0.2461
40975SOL    HW228763   3.857   5.767   9.432 -1.8829 -0.8890 -0.1925
40976SOL     OW28764   1.758   2.451   0.294 -0.4673 -0.0593  0.2247
40976SOL    HW128765   1.785   2.362   0.273  2.4994  0.7783 -0.0682
40976SOL    HW228766   1.752   2.495   0.208  1.3356  0.7711  0.4757
40977SOL     OW28767   6.819  11.339   6.017  0.2044  0.3027 -0.4850
40977SOL    HW128768   6.873  11.318   5.940  0.3194 -0.3394 -0.2361
40977SOL    HW228769   6.848  11.426   6.042 -0.2437  0.7704 -1.5159
40978SOL     OW28770   3.430  11.926  10.522  0.1236 -0.7089 -0.5772
40978SOL    HW128771   3.512  11.911  10.570 -0.9138 -0.5817  1.3079
40978SOL    HW228772   3.459  11.961  10.438  2.0425 -1.4069 -0.2810
40979SOL     OW28773   5.183   3.487   2.552  0.0009  0.6263  0.2871
40979SOL    HW128774   5.139   3.406   2.526 -1.3187  1.1650  0.7742
40979SOL    HW228775   5.269   3.482   2.511 -0.9288  0.0956 -1.6798
40980SOL     OW28776  11.175   5.311   2.833 -0.3999 -0.2217 -0.1051
40980SOL    HW128777  11.164   5.230   2.883 -0.6635  0.2421  0.6165
40980SOL    HW228778  11.269   5.329   2.836 -0.0586 -1.4843 -1.8902
40981SOL     OW28779   0.409   9.992   8.899 -0.2402  0.5073 -0.1823
40981SOL    HW128780   0.459   9.998   8.981  0.1256  0.5283 -0.4071
40981SOL    HW228781   0.337  10.054   8.911 -0.7917 -0.2404  0.5405
40982SOL     OW28782   1.678   4.006   4.271 -0.5687  0.1690  0.1404
40982SOL    HW128783   1.695   3.929   4.217  2.1208 -1.8759  3.4322
40982SOL    HW228784   1.644   3.970   4.353 -2.0256  2.8140  0.8061
40983SOL     OW28785   2.971   2.290   7.306  0.2737  0.5128  0.8210
40983SOL    HW128786   3.043   2.328   7.255  1.5682  0.2743  2.3785
40983SOL    HW228787   2.952   2.356   7.372 -1.2560  0.7378  0.1925
40984SOL     OW28788   8.394   8.848   3.669 -0.4631 -0.3457 -0.5100
40984SOL    HW128789   8.392   8.924   3.611 -0.9010  0.2666  0.2909
40984SOL    HW228790   8.305   8.840   3.702  0.3842  1.3057  2.5729
40985SOL     OW28791   6.502   8.821   3.026 -0.9261 -0.3844  0.2798
40985SOL    HW128792   6.586   8.822   2.979 -0.8780 -1.0592  0.3547
40985SOL    HW228793   6.450   8.888   2.981 -0.4266 -0.1036  0.0989
40986SOL     OW28794   2.880  11.825   7.652  0.3232 -0.3149  0.0567
40986SOL    HW128795   2.931  11.761   7.602  1.3545 -0.2271  0.9429
40986SOL    HW228796   2.947  11.879   7.695 -0.5366  0.0321  0.9786
40987SOL     OW28797   9.018   8.982   6.153  0.3009 -0.1094 -0.5294
40987SOL    HW128798   8.967   8.902   6.144  1.6780 -0.9667 -0.9749
40987SOL    HW228799   9.006   9.008   6.245  0.5271 -1.3058 -0.1528
40988SOL     OW28800   3.116   8.632   6.027  0.5363  0.7137  0.1675
40988SOL    HW128801   3.076   8.579   6.095  2.0454  0.2259  0.7234
40988SOL    HW228802   3.049   8.639   5.958 -0.8727  0.8840  1.5026
40989SOL     OW28803   7.862   3.374   3.040 -1.0687 -0.3797  0.2587
40989SOL    HW128804   7.828   3.317   2.971  0.0914  0.2904 -0.9057
40989SOL    HW228805   7.841   3.462   3.011  0.9121  0.0036 -0.1046
40990SOL     OW28806   2.974   7.584   2.432 -0.8067  0.0473 -0.6574
40990SOL    HW128807   2.937   7.575   2.520 -1.0071 -1.5736 -0.8815
40990SOL    HW228808   2.988   7.678   2.422 -0.6315  0.2600  1.1653
40991SOL     OW28809  10.138   5.048   5.642 -0.2298  0.3584  0.1256
40991SOL    HW128810  10.053   5.083   5.669 -1.1598 -1.0889 -0.7873
40991SOL    HW228811  10.141   5.062   5.547 -1.4704 -3.4739 -0.6332
40992SOL     OW28812  10.152   4.833   0.779  0.4327  0.3475 -0.1601
40992SOL    HW128813  10.180   4.907   0.833 -2.5737  1.8841 -0.5163
40992SOL    HW228814  10.108   4.773   0.840 -2.0548  1.5982 -0.6069
40993SOL     OW28815  10.555   7.296   1.326 -0.2850 -0.5102  0.3243
40993SOL    HW128816  10.474   7.246   1.316 -0.2911 -0.1651 -1.9088
40993SOL    HW228817  10.625   7.231   1.312 -0.2861  0.0929 -4.0499
40994SOL     OW28818   1.299   8.290   1.037 -0.3493 -0.4351  0.2878
40994SOL    HW128819   1.278   8.198   1.029  0.3886 -0.5533 -0.4280
40994SOL    HW228820   1.227   8.336   0.993 -0.1605 -0.7238 -0.3233
40995SOL     OW28821   6.786   4.771   6.700  0.2927 -0.5479 -0.3608
40995SOL    HW128822   6.846   4.845   6.701  1.4416 -1.4290 -1.3200
40995SOL    HW228823   6.793   4.733   6.787  0.1975  0.0513 -0.0817
40996SOL     OW28824  11.349  10.188   4.600 -0.3691  0.2120 -0.1079
40996SOL    HW128825  11.286  10.145   4.658 -1.4236 -0.2042 -1.5083
40996SOL    HW228826  11.384  10.260   4.652 -1.9009  0.3565  0.7772
40997SOL     OW28827   1.553  11.111   4.231  0.0517 -0.3360 -0.2956
40997SOL    HW128828   1.502  11.033   4.254  0.3587 -0.1794  0.9874
40997SOL    HW228829   1.642  11.079   4.218  0.5129 -0.0481  1.7251
40998SOL     OW28830   9.329   9.525   6.492 -0.0082 -0.0938 -0.0806
40998SOL    HW128831   9.409   9.482   6.524  0.3654  1.4441  1.1324
40998SOL    HW228832   9.329   9.506   6.398  1.8568 -0.0265 -0.1342
40999SOL     OW28833  10.054   1.407   2.353  0.6204 -0.0267 -0.1583
40999SOL    HW128834  10.072   1.499   2.329  0.4665 -0.1028 -0.5851
40999SOL    HW228835  10.002   1.374   2.280 -0.5633 -0.0419  0.6703
41000SOL     OW28836   9.926   2.190   3.170  0.2198  0.7911 -0.3824
41000SOL    HW128837   9.930   2.211   3.264 -3.4113  1.8182 -0.3299
41000SOL    HW228838   9.917   2.095   3.168  0.4174  0.7502  0.2960
41001SOL     OW28839   1.792   4.818   1.389 -0.1790 -0.0073 -0.0612
41001SOL    HW128840   1.785   4.903   1.345  0.6816 -0.7953 -1.8170
41001SOL    HW228841   1.722   4.765   1.350 -0.7373 -0.1335  1.0493
41002SOL     OW28842   8.575  11.543   2.560 -0.4665  0.8563 -0.2484
41002SOL    HW128843   8.532  11.490   2.492  1.0153 -1.4810  0.5269
41002SOL    HW228844   8.531  11.517   2.641  0.1272  0.9840  0.1180
41003SOL     OW28845   6.928   8.354   9.435  0.4378  0.3704 -0.6874
41003SOL    HW128846   6.996   8.409   9.396  1.1205  0.0060 -0.0523
41003SOL    HW228847   6.977   8.284   9.479 -0.2386  1.0754  1.2818
41004SOL     OW28848   7.287   9.477   7.582 -0.1892  0.4356  0.4128
41004SOL    HW128849   7.223   9.426   7.533  0.2021 -1.4339  1.7369
41004SOL    HW228850   7.369   9.465   7.533  0.1683 -1.2941  1.3854
41005SOL     OW28851   7.127   1.933   8.478  0.3184 -0.4131  0.4339
41005SOL    HW128852   7.186   2.008   8.471  2.1710 -1.8070 -0.0034
41005SOL    HW228853   7.178   1.868   8.527 -0.9381 -1.6186  0.1894
41006SOL     OW28854   4.288   1.259   8.718 -0.3155 -0.0444 -0.1766
41006SOL    HW128855   4.258   1.189   8.776 -1.6550 -0.8048 -1.7099
41006SOL    HW228856   4.368   1.224   8.678 -0.7186 -0.5116 -0.5792
41007SOL     OW28857   4.454   1.482   6.979  0.5358  0.1073  0.4079
41007SOL    HW128858   4.527   1.540   6.959  0.0871  1.3880  2.2204
41007SOL    HW228859   4.493   1.411   7.030  0.9520 -0.8669 -1.1640
41008SOL     OW28860  10.159   3.467   6.241  0.7272  0.3063 -0.0008
41008SOL    HW128861  10.205   3.504   6.317 -0.1849  0.2857  0.5755
41008SOL    HW228862  10.225   3.465   6.172  1.8013 -0.3744  0.9994
41009SOL     OW28863   1.418   3.187   3.000 -0.6426  0.1700  0.5504
41009SOL    HW128864   1.490   3.167   2.942 -1.0205  1.5114 -0.4382
41009SOL    HW228865   1.341   3.146   2.960 -1.0524  1.7717 -0.4027
41010SOL     OW28866   2.127  11.236   1.212  0.1897 -0.5265 -0.4079
41010SOL    HW128867   2.073  11.284   1.275  0.0327 -1.4267  0.1669
41010SOL    HW228868   2.189  11.188   1.267  1.1485 -0.0307 -1.0277
41011SOL     OW28869   0.468   7.018   1.513  0.0330 -0.4753  0.0413
41011SOL    HW128870   0.377   7.004   1.538  0.0616  0.8478  1.0281
41011SOL    HW228871   0.464   7.051   1.424 -0.6828  1.7332  0.8177
41012SOL     OW28872   2.378   9.280  10.447  0.1040  0.4665  0.1823
41012SOL    HW128873   2.303   9.279  10.387  0.7005  0.3424 -0.5760
41012SOL    HW228874   2.402   9.372  10.455 -0.2435  0.5252  0.5764
41013SOL     OW28875  12.239  10.172   6.833  0.8772 -0.0346  0.0711
41013SOL    HW128876  12.192  10.215   6.904  2.5033  1.3183  0.3730
41013SOL    HW228877  12.172  10.120   6.788 -1.0663  2.3568  0.0233
41014SOL     OW28878   1.177  10.344   2.900 -0.4522 -0.0610  0.0357
41014SOL    HW128879   1.155  10.421   2.848 -1.7714  0.3093  1.0910
41014SOL    HW228880   1.140  10.362   2.986  0.6494 -1.1708  0.7748
41015SOL     OW28881   7.855   3.919   3.200 -0.0449  0.4668  0.4362
41015SOL    HW128882   7.790   3.985   3.175  0.0270  0.9563  1.4979
41015SOL    HW228883   7.804   3.845   3.231 -0.1358 -0.1422 -1.0700
41016SOL     OW28884   9.254   4.194   3.310  0.0064  0.0944  0.1806
41016SOL    HW128885   9.315   4.183   3.237 -0.0151  2.2040 -0.2292
41016SOL    HW228886   9.198   4.267   3.283 -1.9240 -0.9973  1.0781
41017SOL     OW28887   4.345   0.166   8.454  0.6552  0.1248  0.5794
41017SOL    HW128888   4.406   0.237   8.435  1.5139 -0.4583  1.0823
41017SOL    HW228889   4.366   0.141   8.544 -0.5252  0.0975  0.8651
41018SOL     OW28890  12.329  10.859   7.261  0.0205 -0.4569 -0.4326
41018SOL    HW128891  12.292  10.906   7.336  0.5982 -1.0947  0.2660
41018SOL    HW228892  12.288  10.900   7.185 -1.2058 -0.3535  0.2628
41019SOL     OW28893   1.525   5.926  12.077  0.1157  0.4485 -0.3812
41019SOL    HW128894   1.523   6.017  12.104  0.1078  0.7398 -1.3296
41019SOL    HW228895   1.445   5.888  12.113  0.0990  0.8193 -0.0198
41020SOL     OW28896   3.194   4.194   3.753 -0.1266 -0.2974  0.6920
41020SOL    HW128897   3.230   4.263   3.809  1.4651 -0.3994 -0.1337
41020SOL    HW228898   3.130   4.149   3.808  0.0234  0.7839  1.7973
41021SOL     OW28899   2.227   9.021   8.573 -0.0685  0.1603  0.1336
41021SOL    HW128900   2.139   8.995   8.545 -0.2948  0.2467  0.7479
41021SOL    HW228901   2.231   9.115   8.556  0.3360 -0.0449 -1.0012
41022SOL     OW28902  11.471   8.371  12.190 -0.5216 -0.0443  0.1419
41022SOL    HW128903  11.407   8.301  12.175  0.5646 -1.0670  0.0926
41022SOL    HW228904  11.488   8.368  12.284 -0.7235  0.4007  0.1961
41023SOL     OW28905   9.237   3.491   9.045 -0.6961  0.0524 -0.0753
41023SOL    HW128906   9.307   3.429   9.024  0.0210  0.6473  0.5081
41023SOL    HW228907   9.200   3.459   9.127 -0.4365  0.2925  0.1390
41024SOL     OW28908   1.324  10.163  10.610 -0.7039  0.3644  0.7711
41024SOL    HW128909   1.407  10.116  10.618 -1.8162 -2.1865 -1.3573
41024SOL    HW228910   1.329  10.207  10.525 -1.3843  0.5042  0.7959
41025SOL     OW28911   4.736   4.912   5.566  0.7344 -0.2419 -0.1645
41025SOL    HW128912   4.780   4.993   5.592 -0.2065  0.4083 -0.5343
41025SOL    HW228913   4.660   4.907   5.624  0.1087 -0.2011 -0.9665
41026SOL     OW28914   7.190   8.865   1.605  0.3787 -0.0090 -0.5667
41026SOL    HW128915   7.140   8.797   1.650 -0.9884 -1.0963 -3.4586
41026SOL    HW228916   7.275   8.823   1.587  0.3926 -0.0949 -0.3026
41027SOL     OW28917   4.598  11.539   6.736 -0.0847 -0.1899 -0.1687
41027SOL    HW128918   4.592  11.623   6.781 -1.9823  1.0368 -2.4909
41027SOL    HW228919   4.545  11.480   6.790 -2.7605  1.3616 -0.8939
41028SOL     OW28920   0.961   8.250   0.345  0.2497  0.1630  0.0652
41028SOL    HW128921   1.013   8.220   0.420  2.0358 -0.2644 -1.2838
41028SOL    HW228922   1.026   8.275   0.279 -1.2695  0.5934 -1.3336
41029SOL     OW28923   4.470   7.474   9.761 -0.4913 -0.4134  0.4001
41029SOL    HW128924   4.398   7.463   9.699  1.0544  1.9665 -2.0423
41029SOL    HW228925   4.533   7.407   9.737 -0.6125 -0.5770  0.5375
41030SOL     OW28926  12.296   8.497   4.399  0.6161  0.5425 -0.4588
41030SOL    HW128927  12.253   8.441   4.335  0.4747 -1.2103  1.0806
41030SOL    HW228928  12.280   8.454   4.484  0.4995  2.9384  0.8190
41031SOL     OW28929   7.421   2.556   3.791  0.5925 -0.2163  0.2053
41031SOL    HW128930   7.458   2.639   3.821  0.4036 -0.9395  2.6739
41031SOL    HW228931   7.391   2.513   3.871 -1.4264 -1.6773 -1.2402
41032SOL     OW28932  11.697   0.694   9.824 -0.0661 -0.2515  0.1901
41032SOL    HW128933  11.613   0.647   9.818  0.9015 -2.3429  1.9039
41032SOL    HW228934  11.690   0.746   9.904 -0.0097  0.2464 -0.1204
41033SOL     OW28935   8.384   4.419   7.400  1.1812 -0.6389  0.2477
41033SOL    HW128936   8.411   4.352   7.338 -2.7469 -2.8014  0.5669
41033SOL    HW228937   8.387   4.501   7.350  0.8482 -1.8823 -1.9342
41034SOL     OW28938   9.765   4.212   6.986  0.4178 -0.5081  0.8356
41034SOL    HW128939   9.707   4.286   6.968 -0.9694 -0.9967  2.8500
41034SOL    HW228940   9.713   4.155   7.043  1.0095 -3.6177 -1.4906
41035SOL     OW28941  11.174  10.137   9.179 -0.3807 -0.5540 -0.4266
41035SOL    HW128942  11.132  10.172   9.258  1.4088 -1.1138  0.8281
41035SOL    HW228943  11.103  10.133   9.115 -1.6654  0.8986  0.8062
41036SOL     OW28944  10.382  10.167   3.308  0.2391 -0.0566 -0.4319
41036SOL    HW128945  10.305  10.211   3.272  0.4530  0.0068 -0.8180
41036SOL    HW228946  10.350  10.122   3.386 -0.0803  0.3983 -0.2937
41037SOL     OW28947   5.341   1.344   5.024  0.0623  0.1249 -0.1691
41037SOL    HW128948   5.416   1.342   5.083  0.4069 -0.3763 -0.6111
41037SOL    HW228949   5.369   1.291   4.949 -1.1437 -1.0238  0.1561
41038SOL     OW28950   5.003  10.384  10.181 -0.2731 -0.4042  0.3625
41038SOL    HW128951   4.914  10.371  10.148  0.3015  0.5365 -1.7381
41038SOL    HW228952   5.043  10.297  10.176 -0.8910 -0.7258  0.8036
41039SOL     OW28953   4.625   6.523   5.970 -0.4683  0.1763 -0.2986
41039SOL    HW128954   4.640   6.437   5.931 -1.8285 -0.5574  0.6908
41039SOL    HW228955   4.536   6.546   5.944 -0.4408  0.8853  0.1904
41040SOL     OW28956   5.080   1.233   2.282  0.2770 -0.0403 -0.3760
41040SOL    HW128957   5.058   1.299   2.216  0.0181 -1.5154 -1.8052
41040SOL    HW228958   5.174   1.242   2.294  0.1938  0.8178 -0.2766
41041SOL     OW28959   3.188   6.341   3.159  0.8162  0.5977 -0.2431
41041SOL    HW128960   3.099   6.338   3.125  0.3466 -0.5787  0.9761
41041SOL    HW228961   3.177   6.330   3.254  2.1366  2.3609  0.1655
41042SOL     OW28962   6.304   4.469   0.854  0.6223  0.1097  0.3294
41042SOL    HW128963   6.217   4.479   0.892  0.5379  1.4525 -0.1618
41042SOL    HW228964   6.311   4.376   0.835 -0.9660  0.0681 -0.2241
41043SOL     OW28965  12.225   4.793   6.998  0.3665  0.0038  0.4685
41043SOL    HW128966  12.213   4.884   6.972  0.6623  0.3347  1.4718
41043SOL    HW228967  12.220   4.744   6.916  1.6742  1.0640 -0.2686
41044SOL     OW28968   3.293   2.587  11.095  0.0109  0.3296 -0.4345
41044SOL    HW128969   3.212   2.639  11.093 -0.1003  0.2246  0.6197
41044SOL    HW228970   3.263   2.497  11.089  0.0572  0.2996 -0.2262
41045SOL     OW28971  10.271   4.323  11.646 -0.5114  0.1960  0.1048
41045SOL    HW128972  10.224   4.297  11.567  1.6575 -2.3763 -0.4713
41045SOL    HW228973  10.310   4.242  11.679  2.3779  1.9037  1.2488
41046SOL     OW28974  10.272   9.896   5.364 -0.5852  0.4793  0.0391
41046SOL    HW128975  10.225   9.887   5.281 -0.1994  0.0534 -0.1386
41046SOL    HW228976  10.225   9.965   5.411 -1.8325 -0.4301  0.1819
41047SOL     OW28977  10.295   1.787  11.572 -0.4795 -0.0402 -0.4179
41047SOL    HW128978  10.221   1.826  11.619  0.0998  1.1566 -0.4454
41047SOL    HW228979  10.256   1.726  11.510 -1.4678  0.7362 -0.5790
41048SOL     OW28980   4.123   9.126   8.040 -0.4730  1.0473 -0.3697
41048SOL    HW128981   4.208   9.097   8.073 -0.6916  0.9356  0.1003
41048SOL    HW228982   4.059   9.077   8.092 -0.8543  2.3133  0.3866
41049SOL     OW28983   2.815   7.380   1.988 -0.1693  0.2387  0.3913
41049SOL    HW128984   2.809   7.407   2.080  1.2247  0.7406  0.3653
41049SOL    HW228985   2.753   7.307   1.981 -1.2802  1.0463  1.3834
41050SOL     OW28986   1.908   3.030   2.466  0.2704  0.5828 -0.5912
41050SOL    HW128987   1.991   2.985   2.484  0.5432  1.0716 -0.5849
41050SOL    HW228988   1.923   3.073   2.381  0.0332  0.6947 -0.5768
41051SOL     OW28989   6.301   0.806   5.250  0.1216  0.1247 -0.1335
41051SOL    HW128990   6.266   0.809   5.161  1.7596  0.5757 -0.8071
41051SOL    HW228991   6.248   0.870   5.299 -0.9196 -0.2684 -0.7116
41052SOL     OW28992   1.005   0.558   9.267  0.5306  0.3262  0.2152
41052SOL    HW128993   0.954   0.561   9.348 -0.5882 -0.0693 -0.4432
41052SOL    HW228994   0.959   0.618   9.208  0.9124  0.0808 -0.3424
41053SOL     OW28995   2.398   0.277  11.861  0.2304 -0.1927 -0.0505
41053SOL    HW128996   2.427   0.367  11.847 -2.9780  0.9872  0.0717
41053SOL    HW228997   2.386   0.270  11.956  2.2687 -1.4437  0.1718
41054SOL     OW28998   5.953   7.770  12.085 -0.6712  0.8436  0.0178
41054SOL    HW128999   5.887   7.704  12.063 -0.0182 -0.4188  1.6296
41054SOL    HW229000   5.959   7.767  12.180  1.2400  1.3826 -0.0376
41055SOL     OW29001   9.418  11.157   5.394 -0.0800  0.3337 -0.3132
41055SOL    HW129002   9.348  11.092   5.388  1.5153 -1.4409 -0.6550
41055SOL    HW229003   9.376  11.239   5.369 -1.8549 -0.7920 -1.2767
41056SOL     OW29004  10.597   5.675   0.756  1.2269  0.2386  0.8270
41056SOL    HW129005  10.504   5.657   0.737  0.8806 -0.1082  2.6772
41056SOL    HW229006  10.618   5.752   0.703  0.7716 -1.4362 -1.9684
41057SOL     OW29007  12.276   2.426  11.007 -0.4216 -0.0457  0.0023
41057SOL    HW129008  12.214   2.498  11.022 -0.8070 -0.0906 -1.2558
41057SOL    HW229009  12.221   2.347  11.005  0.2290 -0.7844  3.7410
41058SOL     OW29010   4.606   7.571   3.737 -0.2333  0.1643 -0.3040
41058SOL    HW129011   4.614   7.522   3.818  0.2433  1.0022  0.1688
41058SOL    HW229012   4.696   7.595   3.714 -0.3493 -0.1393 -1.1337
41059SOL     OW29013   0.982  10.421   0.272  0.0271  0.8905 -0.3999
41059SOL    HW129014   0.926  10.372   0.333  2.0878 -0.1008  0.8197
41059SOL    HW229015   0.946  10.401   0.186  0.2936 -2.3336  0.0856
41060SOL     OW29016   1.792  11.881  10.375 -0.5311 -0.1380 -0.0668
41060SOL    HW129017   1.720  11.830  10.337 -0.2671 -0.4044 -0.2120
41060SOL    HW229018   1.870  11.850  10.329 -0.2918 -0.0221  0.2582
41061SOL     OW29019  10.911   3.789   2.381  0.4898  0.4194 -0.4311
41061SOL    HW129020  10.975   3.792   2.310  1.6701 -0.6468  0.5419
41061SOL    HW229021  10.895   3.696   2.394 -0.3894  0.6401  0.1186
41062SOL     OW29022  10.453   4.351   9.134  0.0603 -0.5972  0.0294
41062SOL    HW129023  10.469   4.345   9.040 -2.6036 -2.6382 -0.4048
41062SOL    HW229024  10.360   4.370   9.142  0.1381 -0.8471  2.2867
41063SOL     OW29025   9.884  10.551   6.430  0.0067 -0.1023  0.6869
41063SOL    HW129026   9.904  10.460   6.454  1.8970  0.0118 -0.2474
41063SOL    HW229027   9.882  10.598   6.513  1.0344 -0.6626  1.0531
41064SOL     OW29028   7.112   7.991   9.740  0.3508 -0.0226 -0.4906
41064SOL    HW129029   7.072   8.006   9.826 -1.6475  0.6328 -1.4879
41064SOL    HW229030   7.203   8.020   9.751  0.4160 -0.7961  1.6207
41065SOL     OW29031   5.409   0.212   7.546 -0.4165  0.0960 -0.2258
41065SOL    HW129032   5.452   0.127   7.553  0.0238  0.1033 -2.1496
41065SOL    HW229033   5.323   0.200   7.587 -1.7188 -2.3151 -3.2685
41066SOL     OW29034   7.141   3.026  12.210  0.1290  0.1967 -0.6414
41066SOL    HW129035   7.059   3.013  12.162  1.1983 -1.4455 -2.1451
41066SOL    HW229036   7.126   2.983  12.294 -0.0931 -1.4011 -1.4635
41067SOL     OW29037   8.737   1.592   9.364  0.8047  0.4079 -0.4822
41067SOL    HW129038   8.724   1.594   9.270  1.5222 -1.4871 -0.6702
41067SOL    HW229039   8.831   1.604   9.376  1.0232 -1.3026 -0.1794
41068SOL     OW29040   8.409   9.358   2.337 -0.4978 -0.0354 -0.2504
41068SOL    HW129041   8.320   9.350   2.371  0.5963  0.1971  3.0835
41068SOL    HW229042   8.430   9.270   2.305 -1.6354 -0.2826 -0.3782
41069SOL     OW29043   8.625   8.760   9.853  0.3451 -0.0617  0.9033
41069SOL    HW129044   8.638   8.776   9.760  1.5035  0.0723  1.0785
41069SOL    HW229045   8.559   8.691   9.856 -0.8036  0.9558  0.0304
41070SOL     OW29046   3.068   7.255  10.604  0.0083 -0.4694  0.0526
41070SOL    HW129047   3.091   7.277  10.513  0.8251 -0.6505  0.2068
41070SOL    HW229048   3.140   7.289  10.656 -0.9358  0.5230  0.7526
41071SOL     OW29049   0.617   8.792  10.419 -0.4543  0.1242  0.5291
41071SOL    HW129050   0.650   8.844  10.492  1.3440  0.6695 -0.6209
41071SOL    HW229051   0.544   8.843  10.384 -1.4634 -0.2259  1.9853
41072SOL     OW29052   1.155   2.203   4.109 -0.0866  0.4759  0.3460
41072SOL    HW129053   1.130   2.233   4.021 -0.5111  0.3940  0.4339
41072SOL    HW229054   1.075   2.215   4.161  0.1448  0.4650  0.7050
41073SOL     OW29055   6.742   3.133  11.890 -0.2012  0.5180 -0.0507
41073SOL    HW129056   6.737   3.198  11.820 -0.9419  1.9095  1.2216
41073SOL    HW229057   6.694   3.057  11.857 -0.5961  1.1716 -1.0116
41074SOL     OW29058   6.140   5.826  10.131 -0.0315 -0.1348 -0.2712
41074SOL    HW129059   6.070   5.760  10.135 -0.4428  0.3557  2.5432
41074SOL    HW229060   6.114   5.884  10.060 -2.7978  0.3099  1.0042
41075SOL     OW29061   2.541  10.987  10.241 -0.5745  0.3115 -0.0902
41075SOL    HW129062   2.520  10.966  10.150 -1.0586  0.4960 -0.0258
41075SOL    HW229063   2.461  10.966  10.289 -0.0830 -0.4616  0.3982
41076SOL     OW29064   8.291   8.142   1.742 -0.2487  0.0534  0.2339
41076SOL    HW129065   8.324   8.055   1.718  0.0498  0.2402 -0.0491
41076SOL    HW229066   8.291   8.142   1.838 -0.4671 -0.3367  0.2372
41077SOL     OW29067   1.249  11.696   7.529  0.0907 -0.8959  0.3928
41077SOL    HW129068   1.165  11.655   7.507 -0.6636  0.3225  0.9174
41077SOL    HW229069   1.308  11.669   7.458 -1.1780 -0.4144 -0.8983
41078SOL     OW29070  11.978   9.406   0.983  0.1282  0.0967  0.1352
41078SOL    HW129071  11.897   9.441   0.946  0.3383  0.3746 -0.0678
41078SOL    HW229072  12.038   9.480   0.983  0.0378  0.1878  1.3400
41079SOL     OW29073   0.672  10.866   3.550  0.7276 -0.5918  0.1816
41079SOL    HW129074   0.675  10.770   3.550 -0.7100 -0.6519 -0.0191
41079SOL    HW229075   0.615  10.889   3.477 -0.3473  0.3524  1.2793
41080SOL     OW29076  10.095   5.071   8.390  0.6455 -0.2695 -0.0989
41080SOL    HW129077  10.139   5.002   8.340 -0.6156 -0.7497 -0.5834
41080SOL    HW229078  10.016   5.090   8.340  0.4194  0.7478  0.6199
41081SOL     OW29079   0.534  10.650   1.211  0.0988  0.3017 -0.0143
41081SOL    HW129080   0.521  10.585   1.280 -2.3560  2.2191  1.5109
41081SOL    HW229081   0.479  10.619   1.139 -1.1882  0.6653  0.7655
41082SOL     OW29082  11.023   1.723   0.473 -0.0297  0.3544 -0.2678
41082SOL    HW129083  10.944   1.678   0.443  0.2979 -1.0014  0.8269
41082SOL    HW229084  11.048   1.779   0.399  0.0297 -1.8933 -2.0681
41083SOL     OW29085   5.774  12.129   3.129 -0.3772  0.6499 -0.2319
41083SOL    HW129086   5.866  12.139   3.152 -0.0306  2.6050 -2.2067
41083SOL    HW229087   5.768  12.039   3.097  1.1790  0.9282 -1.4128
41084SOL     OW29088   1.615   6.302  10.389 -0.2409  0.1140  0.4684
41084SOL    HW129089   1.549   6.327  10.455  1.1855  0.9583  1.6300
41084SOL    HW229090   1.590   6.353  10.312  0.5352  2.5790  1.7145
41085SOL     OW29091   9.638  11.713   4.294  0.3262  0.3378  0.4295
41085SOL    HW129092   9.694  11.690   4.368 -1.7051 -1.2091  1.5848
41085SOL    HW229093   9.586  11.635   4.279 -0.9207  1.4172 -1.1748
41086SOL     OW29094   5.806  11.729   6.603  0.0535 -0.7699 -0.0578
41086SOL    HW129095   5.780  11.719   6.695  0.5375 -0.4168  0.1189
41086SOL    HW229096   5.899  11.752   6.606  0.5149 -2.3794 -0.6977
41087SOL     OW29097   0.186   1.812   3.693 -0.1044 -0.0111  0.4745
41087SOL    HW129098   0.118   1.880   3.697 -1.4413 -1.3424  0.9685
41087SOL    HW229099   0.245   1.833   3.766 -1.2509 -0.1210  1.4619
41088SOL     OW29100   9.204   5.803   7.287 -0.3945 -0.1565 -0.0789
41088SOL    HW129101   9.176   5.713   7.305 -1.2061  0.3736  1.5842
41088SOL    HW229102   9.296   5.795   7.263 -0.6975 -1.5089 -0.9030
41089SOL     OW29103   5.267   2.837   0.879 -0.1701  0.1780  0.2468
41089SOL    HW129104   5.303   2.872   0.797  0.3210 -1.0753 -0.1023
41089SOL    HW229105   5.223   2.911   0.920 -1.2375  0.6256 -1.6082
41090SOL     OW29106   6.067  12.033  10.326  0.1560 -0.8374  0.6514
41090SOL    HW129107   6.134  12.081  10.278  0.8833 -0.6302  1.8388
41090SOL    HW229108   6.067  11.945  10.287  0.4864 -0.5783  0.0601
41091SOL     OW29109   4.704   6.378   6.187 -0.0501  0.3724 -0.3509
41091SOL    HW129110   4.653   6.423   6.255 -0.9131  0.0177 -0.7479
41091SOL    HW229111   4.706   6.441   6.114 -1.3168 -0.2255 -0.9321
41092SOL     OW29112   7.680   1.556   1.599  0.1664 -0.2185  0.8787
41092SOL    HW129113   7.711   1.546   1.509 -0.2258 -1.3924  0.8653
41092SOL    HW229114   7.748   1.517   1.653 -1.1138 -2.6446  0.8591
41093SOL     OW29115   2.228   6.547   7.927 -0.3517  0.8493  0.2043
41093SOL    HW129116   2.186   6.462   7.913  0.7260  0.2991  0.2139
41093SOL    HW229117   2.159   6.611   7.912 -1.4836 -0.0643  1.3690
41094SOL     OW29118   4.837   9.495   5.444  0.2248  0.6300 -0.1036
41094SOL    HW129119   4.857   9.583   5.411  1.3386 -0.1786 -1.6970
41094SOL    HW229120   4.808   9.447   5.367 -0.1504 -0.4810  0.7056
41095SOL     OW29121   5.183   4.171   1.577 -0.6427  0.0483 -0.5055
41095SOL    HW129122   5.176   4.090   1.628  1.9312  1.0692  1.7585
41095SOL    HW229123   5.254   4.154   1.515  1.5463  1.1143  1.5157
41096SOL     OW29124   8.182   9.609  11.947 -0.3699  0.2603  0.6992
41096SOL    HW129125   8.165   9.678  12.011 -0.9147 -0.9381  1.8932
41096SOL    HW229126   8.239   9.547  11.993 -1.5322 -1.1008  0.3881
41097SOL     OW29127   5.409   8.791   3.124 -0.0895 -0.3022  0.1277
41097SOL    HW129128   5.388   8.791   3.031 -2.7711  0.0151  0.6615
41097SOL    HW229129   5.365   8.868   3.159  2.2597  0.5602  1.4405
41098SOL     OW29130   1.978   1.163  12.217  0.1590 -0.0547 -0.0642
41098SOL    HW129131   2.043   1.114  12.167  0.4283  0.6492 -0.4279
41098SOL    HW229132   2.018   1.249  12.229 -0.3846  0.1398  0.3892
41099SOL     OW29133   4.762   8.002   3.897  0.3195  0.0683  0.1888
41099SOL    HW129134   4.845   7.961   3.874  0.1334  0.0719 -0.4893
41099SOL    HW229135   4.702   7.980   3.826 -0.4702 -0.5286  1.0066
41100SOL     OW29136  11.002   9.787   5.674 -0.2838 -0.2123  0.0498
41100SOL    HW129137  10.942   9.836   5.617 -0.4328 -1.6399 -1.0666
41100SOL    HW229138  10.949   9.764   5.750 -0.2112  1.3150  0.5990
41101SOL     OW29139  10.357   7.777   6.477 -0.3984  0.4810 -0.5673
41101SOL    HW129140  10.400   7.696   6.503  1.7005  1.2234 -1.5562
41101SOL    HW229141  10.266   7.766   6.508  0.8516 -0.2945  3.5245
41102SOL     OW29142   2.659  12.080  10.416  0.1650 -0.0751  0.1926
41102SOL    HW129143   2.752  12.101  10.427 -0.0345  0.2596  1.2993
41102SOL    HW229144   2.639  12.109  10.327  0.7863  1.0939  0.4180
41103SOL     OW29145   3.978   2.306   2.834 -0.0753  0.3056 -0.5104
41103SOL    HW129146   4.021   2.227   2.800  2.4767  2.3150 -2.3503
41103SOL    HW229147   3.899   2.314   2.780 -0.0018 -0.6127 -0.7821
41104SOL     OW29148   9.259  12.324   1.429 -0.0894  0.3445 -0.4267
41104SOL    HW129149   9.176  12.312   1.475 -0.5800 -0.8075 -1.5407
41104SOL    HW229150   9.254  12.413   1.393 -0.2647  0.7623  0.6008
41105SOL     OW29151  10.274   0.337   9.256  0.2152  0.3342 -0.2783
41105SOL    HW129152  10.225   0.404   9.208 -1.8993 -0.2718  0.8666
41105SOL    HW229153  10.206   0.287   9.303  1.6188 -2.9803 -1.4762
41106SOL     OW29154  12.235  11.022   8.106  0.0112  0.1973  0.0898
41106SOL    HW129155  12.270  11.101   8.065  0.8947  0.0171  0.4942
41106SOL    HW229156  12.166  11.054   8.164 -0.1810  0.5938 -0.3533
41107SOL     OW29157   6.170   6.503  11.265 -0.6908  0.0486 -0.4005
41107SOL    HW129158   6.112   6.459  11.203 -1.3865  2.5006 -1.6412
41107SOL    HW229159   6.112   6.563  11.312 -0.1334 -1.5385  2.5554
41108SOL     OW29160   3.956   3.500   0.160  0.5302 -0.6231 -0.7550
41108SOL    HW129161   4.041   3.536   0.138  1.0023 -1.2098  0.0466
41108SOL    HW229162   3.957   3.412   0.123  0.7609 -1.0744  0.2740
41109SOL     OW29163   7.456   2.442   2.582 -0.2436 -0.1856  0.6160
41109SOL    HW129164   7.503   2.507   2.634 -1.1463  1.5297 -0.6102
41109SOL    HW229165   7.372   2.430   2.627  0.5999 -1.9402  1.8421
41110SOL     OW29166   6.453   7.671   4.799 -0.3264  0.1486  0.0048
41110SOL    HW129167   6.405   7.711   4.727 -2.2830 -1.0446  0.5387
41110SOL    HW229168   6.385   7.649   4.863  0.9824 -1.3701  0.9634
41111SOL     OW29169   1.237   7.759  10.392  0.1266  0.6480 -0.4437
41111SOL    HW129170   1.306   7.792  10.334  0.2458  0.7486 -0.2458
41111SOL    HW229171   1.158   7.803  10.361  0.5452  2.4943  0.8888
41112SOL     OW29172   7.562   2.682   9.600  0.4543 -0.7218 -0.3155
41112SOL    HW129173   7.493   2.747   9.589  0.4313 -0.8307 -0.8246
41112SOL    HW229174   7.624   2.722   9.661 -1.1975 -1.5204  2.0693
41113SOL     OW29175   1.198   3.268   1.934 -0.2954  0.1769 -0.5281
41113SOL    HW129176   1.292   3.253   1.942 -0.2141  0.7490 -0.3593
41113SOL    HW229177   1.158   3.205   1.995  0.0796  1.2058  0.8388
41114SOL     OW29178   7.242   0.018   3.270 -0.1500 -0.1411  0.0612
41114SOL    HW129179   7.248   0.104   3.228 -0.5920 -0.9557 -1.7525
41114SOL    HW229180   7.302   0.023   3.344 -1.1665  2.1656  0.8232
41115SOL     OW29181   8.072   8.392   0.758  0.1638  0.2690 -0.3951
41115SOL    HW129182   8.043   8.305   0.785 -0.3590  1.8557  5.2853
41115SOL    HW229183   8.168   8.385   0.756  0.1929 -0.1590  1.4005
41116SOL     OW29184  12.185  11.206   5.888 -0.5228  0.0073 -0.2774
41116SOL    HW129185  12.136  11.209   5.970 -1.2922  0.9105 -0.7499
41116SOL    HW229186  12.213  11.296   5.873  3.1460 -0.7439  1.0245
41117SOL     OW29187   5.605  10.453   6.547  0.7406 -0.0581  0.3873
41117SOL    HW129188   5.655  10.447   6.465  2.0892  1.4159  1.0363
41117SOL    HW229189   5.671  10.466   6.614 -0.3828 -0.7554  1.6614
41118SOL     OW29190  10.837   1.493   0.893  0.0696  0.0394 -0.1201
41118SOL    HW129191  10.883   1.577   0.896 -1.2103  0.7487  0.6627
41118SOL    HW229192  10.783   1.497   0.814 -1.8181  1.0202  1.1298
41119SOL     OW29193  11.099   3.526   8.174  0.4041 -0.2784 -0.1305
41119SOL    HW129194  11.031   3.587   8.143  0.6291  0.9304  1.5780
41119SOL    HW229195  11.167   3.530   8.108 -0.2277  0.2324 -0.7663
41120SOL     OW29196   7.261  10.167  11.778 -0.2667 -1.1463 -0.2880
41120SOL    HW129197   7.263  10.205  11.690 -1.4391  1.4263  0.6849
41120SOL    HW229198   7.188  10.212  11.822  1.5332 -0.7766  2.6143
41121SOL     OW29199   7.358   1.107   3.709  0.5122 -0.0120 -0.5227
41121SOL    HW129200   7.288   1.052   3.674  1.0949 -1.3427  0.3281
41121SOL    HW229201   7.347   1.102   3.804  1.4997  0.1161 -0.3971
41122SOL     OW29202   9.418   1.398  12.054  0.5645 -0.0849 -0.2346
41122SOL    HW129203   9.369   1.435  12.127  0.4127 -0.0723 -0.3411
41122SOL    HW229204   9.360   1.410  11.978  1.1137  0.7706 -0.5332
41123SOL     OW29205   3.711   7.497   4.173 -0.3321  0.0893 -0.1468
41123SOL    HW129206   3.642   7.435   4.197 -1.8897  1.3132 -1.2948
41123SOL    HW229207   3.713   7.560   4.245 -1.3211  0.7650 -0.6947
41124SOL     OW29208   3.899   4.909   8.056  0.9183  0.1513 -0.3422
41124SOL    HW129209   3.966   4.841   8.050  0.4649 -0.2952 -0.4270
41124SOL    HW229210   3.850   4.888   8.136 -2.5508 -2.7838 -2.9069
41125SOL     OW29211  11.804   0.513   6.538  0.3323  0.1525  0.1997
41125SOL    HW129212  11.828   0.569   6.465  0.4409  0.6174  0.5894
41125SOL    HW229213  11.732   0.559   6.582 -0.2607 -0.5015 -0.0711
41126SOL     OW29214   4.115   7.173   7.822 -0.5533  0.6604  0.4071
41126SOL    HW129215   4.128   7.167   7.727 -1.2786  1.7715  0.2102
41126SOL    HW229216   4.134   7.085   7.855  1.4706  0.6818 -0.5348
41127SOL     OW29217  11.136   9.585   5.372  0.3753  0.2829 -0.1169
41127SOL    HW129218  11.155   9.496   5.342  0.1994  0.3173 -0.3307
41127SOL    HW229219  11.206   9.638   5.334  0.2728  0.2927 -0.2955
41128SOL     OW29220  12.044   9.887  11.858  0.5124  0.6538 -0.0606
41128SOL    HW129221  12.002   9.961  11.813  1.6426 -0.0163 -2.3817
41128SOL    HW229222  11.984   9.814  11.845  1.4438  0.1368 -1.7747
41129SOL     OW29223   6.414   1.540   4.573  0.2119 -0.0057 -0.3617
41129SOL    HW129224   6.343   1.592   4.534 -2.4326 -2.3234  1.0041
41129SOL    HW229225   6.447   1.486   4.502 -1.3009 -0.8167 -0.4798
41130SOL     OW29226   1.410   8.854   7.228 -0.1086 -0.0500 -0.1107
41130SOL    HW129227   1.461   8.799   7.169 -0.4125 -0.2906 -0.1522
41130SOL    HW229228   1.340   8.889   7.172 -0.3172 -0.1683  0.0781
41131SOL     OW29229   3.558   3.514   3.631 -0.1378 -0.7349  0.1817
41131SOL    HW129230   3.555   3.539   3.723 -0.1916  0.4621 -0.1150
41131SOL    HW229231   3.630   3.566   3.594 -0.5614 -0.6667 -0.5773
41132SOL     OW29232   2.779  10.367   4.752  0.2011  0.1551  0.3160
41132SOL    HW129233   2.792  10.366   4.657 -1.4449  2.2170 -0.0122
41132SOL    HW229234   2.859  10.406   4.787  0.3935  0.3579 -0.3356
41133SOL     OW29235   1.544   4.506   0.887  0.2046 -0.0441  0.3907
41133SOL    HW129236   1.466   4.546   0.924 -1.1411 -1.2149 -1.0379
41133SOL    HW229237   1.527   4.412   0.891  1.1244 -0.2887 -0.7721
41134SOL     OW29238   0.116   9.130   3.889  0.0793 -0.5061 -0.1053
41134SOL    HW129239   0.156   9.158   3.971 -1.4968 -0.4812  0.6982
41134SOL    HW229240   0.108   9.035   3.897 -1.2320 -0.3767  0.3440
41135SOL     OW29241   4.100   2.140   1.347  0.2189  0.2514  0.2114
41135SOL    HW129242   4.149   2.217   1.315 -0.3627  0.3216 -0.5307
41135SOL    HW229243   4.160   2.098   1.408  1.9144 -0.5994 -1.8932
41136SOL     OW29244   2.431   8.184   0.654 -0.5948  0.0104 -0.3109
41136SOL    HW129245   2.482   8.169   0.574  1.1710  0.5339  0.6614
41136SOL    HW229246   2.408   8.096   0.684 -0.3292 -0.2400 -0.8134
41137SOL     OW29247   0.951   1.885   6.169  1.0751 -0.4356 -0.4246
41137SOL    HW129248   1.008   1.868   6.093  0.5321 -0.3797 -0.8523
41137SOL    HW229249   0.863   1.885   6.132  0.8961  1.0172 -0.0317
41138SOL     OW29250  10.420  11.768   7.466  0.3306 -0.9277  0.6706
41138SOL    HW129251  10.500  11.821   7.464  0.7070 -1.5071 -0.7007
41138SOL    HW229252  10.367  11.808   7.535  0.8519  0.8741  0.0983
41139SOL     OW29253  11.859   8.715   4.138 -0.4048  0.3706  0.3838
41139SOL    HW129254  11.861   8.754   4.226  0.8208 -1.1258  1.0622
41139SOL    HW229255  11.951   8.702   4.115 -0.5948 -3.8199  1.0835
41140SOL     OW29256   2.064  11.151   8.982 -0.2111 -0.3014 -0.7671
41140SOL    HW129257   2.013  11.077   8.949 -0.2055 -0.8103  0.3398
41140SOL    HW229258   2.090  11.199   8.903 -1.8428 -0.3900 -1.3887
41141SOL     OW29259   7.300   8.647   4.147  0.0787  0.0814 -0.4032
41141SOL    HW129260   7.241   8.589   4.099 -0.1418 -0.6231  0.6751
41141SOL    HW229261   7.270   8.641   4.238  0.7117  1.0856 -0.1092
41142SOL     OW29262   3.804   0.312   9.524  0.3293  0.0703  0.0829
41142SOL    HW129263   3.815   0.402   9.495 -0.2117  0.8295  2.0673
41142SOL    HW229264   3.893   0.275   9.523  0.5266  0.5364 -0.9261
41143SOL     OW29265   5.493   6.932   8.234 -0.5365  0.2659  0.1001
41143SOL    HW129266   5.542   7.014   8.230  0.9910 -0.5944  0.4505
41143SOL    HW229267   5.534   6.876   8.168 -0.0900 -0.9619  1.3684
41144SOL     OW29268   5.402  12.119   7.996  0.3864  0.3424  0.2424
41144SOL    HW129269   5.379  12.039   8.043  2.5987  0.2324  1.2218
41144SOL    HW229270   5.374  12.189   8.055 -0.2766  0.2971 -0.0017
41145SOL     OW29271   2.289   7.191   3.963  0.2629  0.5070  0.3850
41145SOL    HW129272   2.244   7.238   4.033 -0.4970 -2.1561  1.7940
41145SOL    HW229273   2.220   7.171   3.899  0.4216  0.6043  0.1815
41146SOL     OW29274   5.371   4.543   4.994  0.0772 -0.1032  0.0057
41146SOL    HW129275   5.325   4.615   4.950  1.2361  1.0621  0.6257
41146SOL    HW229276   5.301   4.484   5.022 -0.8894  0.6380 -0.7394
41147SOL     OW29277   6.145   3.117   4.271  0.4961  0.0351 -0.6608
41147SOL    HW129278   6.107   3.107   4.358 -0.3749  0.3660 -0.9962
41147SOL    HW229279   6.086   3.177   4.226 -0.6483 -2.2769 -2.4056
41148SOL     OW29280   0.956   4.939   7.083  0.0081  0.2534 -0.1886
41148SOL    HW129281   1.040   4.982   7.069  0.2633 -0.3211 -0.4534
41148SOL    HW229282   0.908   4.998   7.141  0.2114  1.0650 -0.8295
41149SOL     OW29283   6.532   1.763   8.831  0.1856  0.8295  0.3073
41149SOL    HW129284   6.460   1.786   8.890 -0.0855 -0.9841  0.7278
41149SOL    HW229285   6.509   1.676   8.798  1.5112  0.8148 -0.6366
41150SOL     OW29286   8.635   1.698   2.518  0.1145 -0.2462  0.1461
41150SOL    HW129287   8.674   1.721   2.434 -0.6207  1.5590  0.2612
41150SOL    HW229288   8.627   1.781   2.565 -0.1293 -1.1177  1.7369
41151SOL     OW29289   8.143   3.060   8.688 -0.6450 -0.5538  0.1536
41151SOL    HW129290   8.086   3.124   8.731 -0.0406  0.8086 -0.9861
41151SOL    HW229291   8.157   3.095   8.600  1.2436 -1.2851  0.1090
41152SOL     OW29292   5.121   4.720  10.956  0.2234  1.0881  0.0531
41152SOL    HW129293   5.203   4.733  11.004  0.5928 -1.6969  0.3622
41152SOL    HW229294   5.144   4.736  10.865  1.0386  0.7501  0.1857
41153SOL     OW29295  11.510   7.716   7.857  0.0964  0.0756 -0.6800
41153SOL    HW129296  11.503   7.759   7.942 -0.0476  0.1795 -0.7446
41153SOL    HW229297  11.491   7.785   7.793  1.0870  0.2269 -0.8350
41154SOL     OW29298   8.810   3.699   8.493 -0.1011  0.4810  0.0059
41154SOL    HW129299   8.882   3.754   8.462 -0.5188 -0.2478 -2.4190
41154SOL    HW229300   8.827   3.613   8.455 -1.0615 -0.3178  1.2930
41155SOL     OW29301  11.193   9.859   2.718 -0.2478  0.2035 -0.5381
41155SOL    HW129302  11.179   9.950   2.744 -0.6539  0.9787 -3.1777
41155SOL    HW229303  11.281   9.857   2.681 -0.5317 -0.2593 -1.2227
41156SOL     OW29304   3.237   1.574   4.250 -0.1111 -0.4924 -0.1285
41156SOL    HW129305   3.160   1.547   4.201  0.3628 -1.2619 -0.4677
41156SOL    HW229306   3.213   1.658   4.289 -1.2471 -0.9004  0.0832
41157SOL     OW29307   8.450   3.409   2.542 -0.6068  0.0688  0.3608
41157SOL    HW129308   8.533   3.394   2.497 -0.4941 -0.7052  0.8111
41157SOL    HW229309   8.396   3.333   2.519 -1.4252  0.8658 -0.4292
41158SOL     OW29310   5.587  10.107   1.589  0.2691 -0.5196 -0.1501
41158SOL    HW129311   5.514  10.045   1.595 -0.1457 -0.1133 -0.7712
41158SOL    HW229312   5.582  10.159   1.670  0.2713 -0.9265  0.1097
41159SOL     OW29313   6.618   7.738   1.413 -0.3277 -0.0862 -0.1739
41159SOL    HW129314   6.625   7.830   1.390 -0.1366 -0.3985 -1.4915
41159SOL    HW229315   6.700   7.719   1.460  0.3115  0.0880 -1.1811
41160SOL     OW29316   5.137   1.697   1.019  0.1114 -0.2625 -0.0573
41160SOL    HW129317   5.086   1.740   0.950  0.6445 -1.2900 -1.1268
41160SOL    HW229318   5.094   1.613   1.031  0.3835 -0.3305  0.4523
41161SOL     OW29319   2.463   8.352   8.084  0.2148 -0.5346  0.4088
41161SOL    HW129320   2.482   8.353   8.178  0.3627  0.4593  0.3777
41161SOL    HW229321   2.547   8.365   8.042 -0.1412  1.5867  0.2211
41162SOL     OW29322   4.735   7.782   9.428  0.0294  0.0254 -0.2034
41162SOL    HW129323   4.759   7.696   9.461  0.4396  0.3864  0.4783
41162SOL    HW229324   4.759   7.780   9.335 -0.2520 -0.6907 -0.2639
41163SOL     OW29325   6.103   5.612   0.216  0.0690 -0.2839 -0.0091
41163SOL    HW129326   6.103   5.615   0.121  0.4244  0.1135  0.0030
41163SOL    HW229327   6.040   5.679   0.243  0.5092  0.1075  0.0499
41164SOL     OW29328   8.447  12.249   0.253 -0.0176  0.3338  0.2090
41164SOL    HW129329   8.447  12.207   0.167 -2.4325  0.6276 -0.0179
41164SOL    HW229330   8.458  12.176   0.315 -1.0198 -0.2796 -0.2958
41165SOL     OW29331   2.321   2.676   1.708 -0.6663  0.4392  1.0514
41165SOL    HW129332   2.267   2.604   1.675  0.5114  0.5939 -1.4085
41165SOL    HW229333   2.302   2.749   1.649  0.7244  1.1086  1.3965
41166SOL     OW29334   7.415   8.043   9.513  0.8531  0.6670  0.3508
41166SOL    HW129335   7.356   8.027   9.440  1.6073 -0.1359 -0.1115
41166SOL    HW229336   7.438   8.136   9.506  1.3750  0.4681 -0.7983
41167SOL     OW29337  11.421   0.734  12.202  0.4524 -0.4314 -0.0848
41167SOL    HW129338  11.363   0.810  12.201 -0.0705 -0.8030  0.6221
41167SOL    HW229339  11.401   0.687  12.121  2.0133  1.0587 -1.3910
41168SOL     OW29340   0.385   1.141   1.436 -0.3094 -0.4047  0.6404
41168SOL    HW129341   0.446   1.072   1.410  1.0919  0.5827  1.1577
41168SOL    HW229342   0.353   1.114   1.522 -0.3778 -0.7855  0.4957
41169SOL     OW29343   0.628   1.089  11.329  0.2429 -0.3426 -0.1758
41169SOL    HW129344   0.679   1.011  11.350 -1.4984 -1.0315  1.9495
41169SOL    HW229345   0.581   1.067  11.249  0.1452 -1.3125  0.1365
41170SOL     OW29346   6.318   6.124   7.287  0.2348 -0.4045 -0.0619
41170SOL    HW129347   6.384   6.114   7.218  0.4703 -0.9084  0.2254
41170SOL    HW229348   6.286   6.213   7.277  1.8705  0.2875  0.5914
41171SOL     OW29349  10.391   9.443  11.054 -0.6884 -0.3240 -0.6317
41171SOL    HW129350  10.377   9.480  10.967 -0.5937  0.6907 -0.2256
41171SOL    HW229351  10.436   9.360  11.038 -1.2947 -0.4800 -1.5801
41172SOL     OW29352  12.286   9.717   9.019  0.2322 -0.3451 -0.3616
41172SOL    HW129353  12.378   9.717   8.992  0.1285  1.7149 -0.9510
41172SOL    HW229354  12.246   9.643   8.973  1.3958 -0.6814 -0.8473
41173SOL     OW29355   3.210   4.073   5.119  0.5056  0.0556  0.5439
41173SOL    HW129356   3.275   4.089   5.051  0.6447 -0.6333  0.5105
41173SOL    HW229357   3.253   4.099   5.200  1.2645 -1.4985  0.6656
41174SOL     OW29358   6.926   0.524   4.071  0.0076  0.2569  0.0098
41174SOL    HW129359   6.944   0.496   3.982  4.0118 -0.2477  0.8123
41174SOL    HW229360   6.870   0.455   4.107 -0.3770 -0.3047 -1.5865
41175SOL     OW29361  12.284  11.783   7.283  0.1396 -0.0268  0.2151
41175SOL    HW129362  12.322  11.870   7.270  0.5258 -0.5840 -3.2661
41175SOL    HW229363  12.357  11.722   7.270 -0.4389 -0.9404  1.0858
41176SOL     OW29364   1.214   7.935   3.780  0.2978 -0.4676 -0.0322
41176SOL    HW129365   1.213   8.030   3.794  1.4842 -0.6929  1.9460
41176SOL    HW229366   1.224   7.924   3.685  0.1141  1.3699 -0.2909
41177SOL     OW29367   5.547   1.865   2.410 -0.2402  0.3554  0.6399
41177SOL    HW129368   5.607   1.843   2.340  0.6059  0.6652  1.2551
41177SOL    HW229369   5.603   1.889   2.484 -1.1144  1.2885  1.0278
41178SOL     OW29370   5.810  10.658   2.489  0.0526  0.0797 -0.4662
41178SOL    HW129371   5.861  10.614   2.421 -1.0066 -0.1235 -1.1492
41178SOL    HW229372   5.830  10.751   2.478  0.6731 -0.0350 -0.3747
41179SOL     OW29373   2.149   5.389   5.801 -0.4993 -0.3562 -0.7337
41179SOL    HW129374   2.125   5.320   5.862 -0.8104 -0.4745 -0.9933
41179SOL    HW229375   2.221   5.352   5.750  2.1019  0.8723  1.7651
41180SOL     OW29376  11.873   7.828  12.244 -0.1391 -0.2989  0.1118
41180SOL    HW129377  11.925   7.902  12.213 -2.9318  1.1558 -1.5234
41180SOL    HW229378  11.817   7.805  12.169 -1.2985 -2.2649  1.4764
41181SOL     OW29379   1.146   5.902   6.850  0.4437  0.5167 -0.2153
41181SOL    HW129380   1.223   5.844   6.850 -0.2912 -0.5445 -1.7444
41181SOL    HW229381   1.180   5.987   6.822  1.1621  0.2071 -0.3074
41182SOL     OW29382   3.044   7.936   4.189  0.3704  0.3650  0.0626
41182SOL    HW129383   3.090   7.936   4.272 -1.4801  0.3587  1.1502
41182SOL    HW229384   3.049   7.846   4.158  0.8731  0.3196  0.2672
41183SOL     OW29385   9.192  11.868   4.881  0.0612  0.2076 -0.1373
41183SOL    HW129386   9.227  11.837   4.797  1.2800 -1.5425  0.9650
41183SOL    HW229387   9.264  11.858   4.943 -1.6003 -1.1185  1.7062
41184SOL     OW29388   3.259   5.146   7.167 -0.4028  0.2774 -0.1627
41184SOL    HW129389   3.288   5.087   7.237 -0.9481  0.2142  0.0145
41184SOL    HW229390   3.315   5.223   7.177  1.4202 -0.8072 -1.4020
41185SOL     OW29391   6.494   9.293  11.949 -0.4745 -0.2196  0.1374
41185SOL    HW129392   6.469   9.219  11.894  0.6617 -1.4146  1.1524
41185SOL    HW229393   6.571   9.329  11.906 -1.3618  0.7829 -0.6717
41186SOL     OW29394   7.263  12.123   0.701  0.0099 -0.2861 -0.0712
41186SOL    HW129395   7.192  12.138   0.637  0.5584 -1.5310 -1.0123
41186SOL    HW229396   7.247  12.035   0.735  0.1873  0.0589  0.9438
41187SOL     OW29397   5.496  11.297   8.230  0.3848  0.3975  0.1818
41187SOL    HW129398   5.461  11.340   8.308  1.4751  0.5301  0.6183
41187SOL    HW229399   5.499  11.367   8.164  1.0800  0.7264  0.5487
41188SOL     OW29400   3.858   7.871   8.485  0.1119  0.6705  0.1177
41188SOL    HW129401   3.792   7.939   8.477 -0.6570 -0.0900 -0.1602
41188SOL    HW229402   3.809   7.789   8.486  0.9777  0.1366  1.1001
41189SOL     OW29403   0.001   9.868   7.791 -0.2164 -0.2587 -0.3286
41189SOL    HW129404   0.080   9.816   7.776 -0.4236 -0.7043  0.0700
41189SOL    HW229405  -0.023   9.901   7.704  0.4033 -0.1164 -0.4506
41190SOL     OW29406   0.101   3.292   1.469  0.3109 -0.9130  0.0006
41190SOL    HW129407   0.010   3.263   1.478  0.0355 -0.1973 -0.4178
41190SOL    HW229408   0.096   3.388   1.466  1.1375 -0.8334  0.6274
41191SOL     OW29409   8.197  10.600  10.001 -0.4418  0.0043 -0.6224
41191SOL    HW129410   8.123  10.547   9.973  1.1260 -1.2813 -2.6436
41191SOL    HW229411   8.266  10.536  10.022  0.6151  1.1857 -0.3356
41192SOL     OW29412   0.525   2.211   1.777 -0.3878  0.0942 -0.1531
41192SOL    HW129413   0.549   2.180   1.690 -1.7059 -0.7595 -0.2399
41192SOL    HW229414   0.449   2.267   1.763  0.4472  1.3612  0.2848
41193SOL     OW29415  11.050   2.664   3.014 -0.1755 -0.3193 -0.0329
41193SOL    HW129416  11.120   2.625   2.963 -0.7958 -0.4159 -0.8356
41193SOL    HW229417  10.976   2.604   3.003 -1.6120  1.7337 -2.4928
41194SOL     OW29418  11.548   6.244   4.251  0.2732 -0.0125 -0.3697
41194SOL    HW129419  11.596   6.211   4.175  2.2088 -1.0364  1.2250
41194SOL    HW229420  11.497   6.170   4.282  1.4122 -0.3456  0.7650
41195SOL     OW29421   6.546   1.977   6.464  1.0191  0.1969 -0.2772
41195SOL    HW129422   6.557   1.996   6.371  3.9535  0.7190  0.0630
41195SOL    HW229423   6.624   1.925   6.487 -0.5025 -1.4553  1.5441
41196SOL     OW29424   9.547  10.662   5.644  0.6621 -0.9164 -0.2231
41196SOL    HW129425   9.538  10.747   5.687 -0.4174 -1.2693  0.2856
41196SOL    HW229426   9.633  10.630   5.672 -0.1772 -1.3356  2.0801
41197SOL     OW29427   6.971   1.841   6.086 -0.1140 -0.0617  0.4248
41197SOL    HW129428   7.059   1.861   6.056 -0.5752  1.4989  0.0101
41197SOL    HW229429   6.918   1.838   6.007 -0.4949 -0.7248  0.6923
41198SOL     OW29430   0.801  12.098   6.608  0.3546  0.0085  0.0432
41198SOL    HW129431   0.731  12.123   6.548  0.3038 -0.1215  0.0472
41198SOL    HW229432   0.824  12.179   6.653  1.0204  0.3079 -0.7950
41199SOL     OW29433  10.772   3.211   4.778 -0.4580  0.0058  0.4782
41199SOL    HW129434  10.701   3.268   4.749 -1.4328 -1.6868 -0.6973
41199SOL    HW229435  10.732   3.123   4.779  1.7883 -1.1093 -0.9725
41200SOL     OW29436   0.766   5.329   8.616  0.5023 -0.3715 -0.4421
41200SOL    HW129437   0.843   5.373   8.579 -0.3691  3.8264  2.0355
41200SOL    HW229438   0.693   5.362   8.564 -0.3547  2.9838  2.4698
41201SOL     OW29439  10.276   5.031   1.010 -0.1724 -0.0797  0.0400
41201SOL    HW129440  10.319   5.052   0.927  0.0372 -1.3766 -0.1933
41201SOL    HW229441  10.302   5.103   1.069  0.2626  0.4692 -0.8032
41202SOL     OW29442   5.513   1.339   6.640 -0.1100 -0.4429 -0.3089
41202SOL    HW129443   5.546   1.279   6.706  0.5386  0.5986  0.3429
41202SOL    HW229444   5.453   1.286   6.586  0.8395 -1.7776 -0.0890
41203SOL     OW29445  10.993  11.278   5.370  0.4497 -0.1471 -0.3619
41203SOL    HW129446  10.918  11.231   5.408  0.8923  0.3576  1.2365
41203SOL    HW229447  10.969  11.292   5.279 -1.1320 -0.5560 -0.0426
41204SOL     OW29448   9.882   5.547  10.697 -0.3027 -0.2476  0.7528
41204SOL    HW129449   9.832   5.467  10.680  0.4369 -0.4296 -0.6723
41204SOL    HW229450   9.941   5.523  10.769 -1.3237 -0.4259  1.5451
41205SOL     OW29451   9.820   5.165  12.130 -0.0209  0.8643 -0.1062
41205SOL    HW129452   9.899   5.172  12.184 -0.4065  1.2849  0.4094
41205SOL    HW229453   9.772   5.246  12.147 -0.6848  0.5012 -0.2298
41206SOL     OW29454  11.920   1.828   4.376  0.0139 -0.0008 -0.2792
41206SOL    HW129455  11.968   1.777   4.311  1.4593  0.7241  0.1692
41206SOL    HW229456  11.899   1.910   4.330  1.5001  0.7314  0.2639
41207SOL     OW29457  11.311   5.026   1.159 -0.1224  0.5121 -0.4194
41207SOL    HW129458  11.236   5.065   1.114 -0.6378 -0.8812 -0.8004
41207SOL    HW229459  11.350   5.099   1.208 -1.6390  1.2944 -0.3289
41208SOL     OW29460   9.698   7.485   6.700  0.0659 -0.2018 -0.3241
41208SOL    HW129461   9.784   7.510   6.734  0.5127 -1.2420 -0.6720
41208SOL    HW229462   9.712   7.401   6.656 -1.1454 -0.4316 -0.3087
41209SOL     OW29463   3.279   1.023   1.444  0.2243  0.5479 -0.2434
41209SOL    HW129464   3.223   1.035   1.368 -0.5075 -1.9551 -0.1925
41209SOL    HW229465   3.219   1.000   1.515  1.1608 -1.1014  0.0743
41210SOL     OW29466   0.022  12.251   5.789 -0.1129  0.1646 -0.1033
41210SOL    HW129467   0.005  12.157   5.796 -0.7856  0.3993  2.4980
41210SOL    HW229468  -0.060  12.288   5.757 -0.8229  0.1099  1.5585
41211SOL     OW29469   1.884  11.301   9.142 -0.0061  0.5039  0.0647
41211SOL    HW129470   1.945  11.343   9.204  0.4214  0.9594 -0.6475
41211SOL    HW229471   1.940  11.243   9.090 -0.1949  0.8770 -0.5556
41212SOL     OW29472   7.279   8.528   1.193  0.3525  0.2631 -0.3710
41212SOL    HW129473   7.233   8.501   1.114  0.6085 -2.0788  0.2076
41212SOL    HW229474   7.365   8.486   1.186 -0.7556 -3.0100  2.6366
41213SOL     OW29475   7.791   9.695   0.744 -0.0093 -0.5411 -0.1428
41213SOL    HW129476   7.828   9.731   0.825 -1.2975  0.6247 -0.0491
41213SOL    HW229477   7.850   9.725   0.675  0.4961 -0.6436  0.2375
41214SOL     OW29478   2.500   3.420   9.776  0.1648  0.2130  0.0920
41214SOL    HW129479   2.538   3.355   9.716  0.3895  0.1954  0.2488
41214SOL    HW229480   2.477   3.494   9.720 -0.9308 -0.3452 -0.2282
41215SOL     OW29481   3.332   2.906   0.124 -0.3832 -0.6232 -0.1029
41215SOL    HW129482   3.257   2.907   0.184 -0.7205  0.3837 -0.5117
41215SOL    HW229483   3.292   2.902   0.037 -0.1858  2.9073 -0.5176
41216SOL     OW29484   9.713   2.512   4.854  0.0582 -0.1943 -0.3575
41216SOL    HW129485   9.725   2.447   4.785  1.2674 -0.6817  0.2844
41216SOL    HW229486   9.648   2.573   4.819 -0.4320 -1.2507 -1.3250
41217SOL     OW29487   1.157   0.989  11.005 -0.0574  0.0190 -0.1754
41217SOL    HW129488   1.170   1.025  10.918  0.4455 -0.9280 -0.5039
41217SOL    HW229489   1.245   0.971  11.037 -0.2915 -0.7610  0.0435
41218SOL     OW29490  11.655   5.466   6.096 -0.3623 -0.3051 -0.0865
41218SOL    HW129491  11.737   5.418   6.108 -0.7214 -0.8026  0.4075
41218SOL    HW229492  11.646   5.519   6.176 -0.9010 -0.8344  0.2136
41219SOL     OW29493   4.872   3.138   3.847  0.2963 -0.0564 -0.7167
41219SOL    HW129494   4.911   3.099   3.925  0.6014  2.8875  0.7776
41219SOL    HW229495   4.882   3.072   3.779 -1.3135 -3.3627  2.0019
41220SOL     OW29496   4.913   8.029   0.965 -0.1854  0.6139 -0.1562
41220SOL    HW129497   4.888   7.939   0.984 -0.0028  0.2448 -1.5260
41220SOL    HW229498   5.006   8.033   0.984  0.0199  0.2218 -1.0449
41221SOL     OW29499   1.427   4.075   5.336 -0.0827  0.7553  0.3790
41221SOL    HW129500   1.478   4.099   5.413 -0.8119  0.3736  0.9969
41221SOL    HW229501   1.346   4.037   5.371  0.9345 -2.5863 -0.4808
41222SOL     OW29502   3.515   1.177   8.162 -0.3998  0.3623  0.3541
41222SOL    HW129503   3.471   1.173   8.247  1.8315  0.7492  1.6216
41222SOL    HW229504   3.464   1.240   8.112 -2.5342 -0.8444  0.8795
41223SOL     OW29505   9.096  10.335  10.139 -0.1076  0.5889  0.1608
41223SOL    HW129506   9.148  10.265  10.179 -0.1944  0.3442 -0.1473
41223SOL    HW229507   9.148  10.414  10.152  0.3427  0.3450 -0.1496
41224SOL     OW29508   3.950   8.075   9.615 -0.4713  0.6855  0.0930
41224SOL    HW129509   4.040   8.043   9.619 -0.5940  0.1975 -0.8256
41224SOL    HW229510   3.897   7.997   9.600 -1.1634  0.8422  1.5328
41225SOL     OW29511   6.859   8.214   3.677  0.3758 -0.4048  0.2688
41225SOL    HW129512   6.927   8.223   3.611  0.6948 -1.2937  0.4574
41225SOL    HW229513   6.838   8.304   3.703 -0.2710  0.0118 -1.5346
41226SOL     OW29514   7.371   9.427   8.833  0.6215 -0.2430  0.0608
41226SOL    HW129515   7.373   9.512   8.788  1.0824  0.7994  1.9458
41226SOL    HW229516   7.280   9.400   8.830  0.1716  1.0943  0.7568
41227SOL     OW29517  12.112   9.170   4.335 -0.2016 -0.4211 -0.3344
41227SOL    HW129518  12.174   9.105   4.301 -0.1494 -1.0389  0.8799
41227SOL    HW229519  12.063   9.199   4.258  1.0368 -0.5185 -1.1871
41228SOL     OW29520   9.610  12.269  11.291 -0.3060 -0.3634 -0.2611
41228SOL    HW129521   9.688  12.323  11.282  0.1452 -1.1147 -0.9309
41228SOL    HW229522   9.602  12.224  11.207 -0.3514 -1.7587  0.4688
41229SOL     OW29523   2.504   5.255   6.921 -0.3761 -0.0794  0.0087
41229SOL    HW129524   2.551   5.266   6.838  1.9051 -0.1021  1.2301
41229SOL    HW229525   2.569   5.276   6.988 -2.1224 -0.2034  1.8124
41230SOL     OW29526  10.085   8.852   3.820  0.2833  0.4353 -0.5790
41230SOL    HW129527  10.173   8.819   3.803  0.0239 -0.8441  0.3904
41230SOL    HW229528  10.097   8.944   3.844  1.3086  0.3679 -0.8219
41231SOL     OW29529   4.472   0.154   1.311 -0.3164  0.0491 -0.0581
41231SOL    HW129530   4.486   0.097   1.234 -0.2759  2.6337 -2.1081
41231SOL    HW229531   4.556   0.196   1.325 -0.7608  0.8080  0.3751
41232SOL     OW29532   6.019   5.935   1.617  0.2380  0.2471  0.2174
41232SOL    HW129533   6.035   5.945   1.523  0.3517  0.3262  0.2441
41232SOL    HW229534   5.978   5.849   1.626  1.7272 -0.4931  0.2707
41233SOL     OW29535   4.229   8.611   0.188 -0.0249 -0.1961 -0.3114
41233SOL    HW129536   4.264   8.681   0.132  2.2666 -0.8001  0.2638
41233SOL    HW229537   4.140   8.597   0.155  0.1299  1.6435 -1.7057
41234SOL     OW29538   6.887   0.224   3.305 -0.0914  0.3193 -0.0969
41234SOL    HW129539   6.886   0.162   3.378  1.5836  0.4935  0.1206
41234SOL    HW229540   6.972   0.269   3.313 -0.0689  0.6656 -1.8882
41235SOL     OW29541   5.547   2.869   3.331  0.2930 -0.1646  0.4411
41235SOL    HW129542   5.484   2.843   3.264 -0.3578  0.6095  0.7383
41235SOL    HW229543   5.622   2.902   3.282  0.3051 -0.6976  0.0910
41236SOL     OW29544   3.685   2.037   6.331 -1.0147  0.1261 -0.3606
41236SOL    HW129545   3.694   2.073   6.419  2.0012  0.7319 -0.8245
41236SOL    HW229546   3.687   1.942   6.344  3.3725  0.0897  0.1298
41237SOL     OW29547  11.650   6.123   1.407  0.7173 -0.2084 -0.5185
41237SOL    HW129548  11.701   6.049   1.374  2.2683 -0.3666  1.9271
41237SOL    HW229549  11.701   6.155   1.481 -1.0884  1.8581 -0.0744
41238SOL     OW29550   4.291   1.823   3.555 -0.5657 -0.0302 -0.0467
41238SOL    HW129551   4.365   1.771   3.587 -1.9451 -1.4218  1.0796
41238SOL    HW229552   4.318   1.853   3.468  1.5442  0.0477  0.5753
41239SOL     OW29553   8.539  12.228   3.736 -0.2434  0.1087 -0.2175
41239SOL    HW129554   8.455  12.270   3.716 -0.9023 -0.3680  1.3267
41239SOL    HW229555   8.528  12.139   3.704 -0.1601  0.1598 -0.3905
41240SOL     OW29556   0.526   9.124   5.766  0.1003 -0.1482 -0.4927
41240SOL    HW129557   0.590   9.193   5.781 -0.1162  0.0725 -0.5754
41240SOL    HW229558   0.565   9.070   5.697  0.3559 -0.2216 -0.2917
41241SOL     OW29559   8.781   2.100   8.314 -0.2370 -0.0814  0.1690
41241SOL    HW129560   8.739   2.155   8.248  1.0243  1.8847  0.9005
41241SOL    HW229561   8.864   2.073   8.273 -0.5125 -0.8409  0.0969
41242SOL     OW29562   0.088   8.304   9.184 -0.8234  0.0283  0.2830
41242SOL    HW129563   0.084   8.217   9.144 -1.4402 -0.3204  1.0770
41242SOL    HW229564   0.055   8.291   9.273 -2.0510  1.2963  0.0545
41243SOL     OW29565   6.039   9.742   5.494  0.0049  0.0390  0.5880
41243SOL    HW129566   6.070   9.736   5.585 -1.1878 -0.2457  0.9946
41243SOL    HW229567   6.090   9.676   5.447 -0.9389 -1.4006  1.5301
41244SOL     OW29568   3.176   2.985  11.050  0.0388  0.4638  0.2842
41244SOL    HW129569   3.138   3.073  11.049  0.3702  0.6018 -0.8882
41244SOL    HW229570   3.253   2.992  11.106  0.7527  1.2259 -0.7727
41245SOL     OW29571   4.989   0.470  10.744 -0.1178  0.0174 -0.2263
41245SOL    HW129572   5.049   0.543  10.728  0.5468 -0.3976  0.2586
41245SOL    HW229573   5.047   0.397  10.770 -0.7161 -0.8449 -1.2414
41246SOL     OW29574  10.537   3.444   2.859  0.2758 -0.4777 -0.0774
41246SOL    HW129575  10.632   3.446   2.846  0.4696 -0.3628  1.1697
41246SOL    HW229576  10.502   3.503   2.793  1.2538  1.0554  0.7060
41247SOL     OW29577   3.686  11.338   6.834  0.9646  0.2012 -0.3344
41247SOL    HW129578   3.651  11.254   6.863  2.6834 -1.1830 -2.0538
41247SOL    HW229579   3.609  11.387   6.805  0.1262 -1.7340 -1.5724
41248SOL     OW29580   5.486   7.511  12.179  0.2802 -0.1877 -0.2672
41248SOL    HW129581   5.449   7.548  12.259 -0.7194 -0.5483 -0.5544
41248SOL    HW229582   5.529   7.431  12.208  0.7312  0.1616  0.0475
41249SOL     OW29583   7.050  12.180   6.549 -0.6205  0.1969 -0.3055
41249SOL    HW129584   7.125  12.220   6.594 -0.7610  1.8274 -1.4358
41249SOL    HW229585   7.006  12.253   6.506 -0.8364 -1.1876 -2.5927
41250SOL     OW29586   2.083   9.161   4.646 -0.3628  0.1975  0.4981
41250SOL    HW129587   2.070   9.067   4.661  0.3616  0.3838  2.6595
41250SOL    HW229588   2.068   9.173   4.553 -1.1577 -1.9520  0.2954
41251SOL     OW29589   1.138   0.342  10.521 -0.4712  0.0613 -0.1198
41251SOL    HW129590   1.055   0.381  10.492 -0.7541  0.2491  0.8995
41251SOL    HW229591   1.197   0.417  10.529 -0.3390 -0.0138 -0.3868
41252SOL     OW29592   4.117   0.934   2.807  0.3470  0.1082 -0.1667
41252SOL    HW129593   4.123   0.966   2.898  0.9378  0.2017 -0.2358
41252SOL    HW229594   4.128   0.839   2.814 -1.0841 -0.0678  0.0050
41253SOL     OW29595   5.942   6.919   3.634 -0.3080  0.4537 -0.1200
41253SOL    HW129596   5.935   7.012   3.611 -1.4534  0.3866 -0.0838
41253SOL    HW229597   5.998   6.918   3.712 -0.5496  1.1516  0.0690
41254SOL     OW29598  12.267   1.840   5.821  0.3716  0.4556 -0.4533
41254SOL    HW129599  12.352   1.812   5.856 -0.7828  0.2794  2.5105
41254SOL    HW229600  12.209   1.766   5.837 -0.9689  1.6140  0.3212
41255SOL     OW29601   7.804   1.434   8.272 -0.0784 -0.4167  0.6289
41255SOL    HW129602   7.847   1.374   8.333  0.9794 -1.0973 -0.7376
41255SOL    HW229603   7.774   1.379   8.200  0.9102  0.6528 -0.6633
41256SOL     OW29604   8.589   0.818   2.585 -0.7529  0.4432 -0.5025
41256SOL    HW129605   8.514   0.818   2.644 -0.8229 -3.3022 -0.3600
41256SOL    HW229606   8.553   0.796   2.500 -0.0151  0.0813 -0.7353
41257SOL     OW29607   5.577   3.635   2.655  0.6112  0.2780  0.1716
41257SOL    HW129608   5.572   3.722   2.695 -4.2381  0.5062 -0.2936
41257SOL    HW229609   5.526   3.642   2.575 -0.1231 -3.0301  0.1882
41258SOL     OW29610   3.517  10.714   9.065 -0.1290 -0.1651  0.1255
41258SOL    HW129611   3.449  10.768   9.104 -1.0011 -2.0904  1.4668
41258SOL    HW229612   3.573  10.689   9.139 -0.4029 -1.9507 -0.2177
41259SOL     OW29613   8.099   6.413   4.888  0.1293 -0.4379  0.3665
41259SOL    HW129614   8.012   6.395   4.923 -0.1349 -0.7366 -0.4022
41259SOL    HW229615   8.154   6.427   4.964 -0.5881 -0.2873  0.8620
41260SOL     OW29616   3.453   2.761   4.319 -0.1733  0.4176  0.7487
41260SOL    HW129617   3.521   2.785   4.256 -0.2764 -0.3793  0.3229
41260SOL    HW229618   3.494   2.775   4.405  0.6291 -0.2980  0.4943
41261SOL     OW29619   6.783   8.790   1.453 -0.3828 -0.2910  0.2189
41261SOL    HW129620   6.713   8.826   1.398  0.6818  2.2892  0.3962
41261SOL    HW229621   6.862   8.837   1.425  0.5804 -0.4356  2.4804
41262SOL     OW29622   3.034  10.785   8.088 -0.5251 -0.3803 -0.5330
41262SOL    HW129623   2.999  10.748   8.169  0.7737  0.5200  0.4916
41262SOL    HW229624   2.960  10.787   8.028 -1.5979 -0.7934  0.7392
41263SOL     OW29625   2.161   9.802   6.007  0.2870 -0.4883 -0.0860
41263SOL    HW129626   2.227   9.811   6.075  0.6410 -0.1654 -0.4694
41263SOL    HW229627   2.082   9.840   6.045  0.7387  0.6072 -0.2178
41264SOL     OW29628   0.218   0.961   3.262  0.4443  0.7709  0.6061
41264SOL    HW129629   0.295   0.911   3.234 -0.0177  0.6065 -0.4366
41264SOL    HW229630   0.195   0.924   3.347 -0.3308 -1.3682 -0.4535
41265SOL     OW29631   6.099   4.746  11.598  0.0446 -0.1733 -0.3958
41265SOL    HW129632   6.119   4.763  11.506  1.1336  1.3192  0.0804
41265SOL    HW229633   6.038   4.672  11.596 -0.1978  0.0287 -2.3181
41266SOL     OW29634   0.618   2.808   1.132  0.3440  0.1992 -0.1295
41266SOL    HW129635   0.606   2.883   1.190 -0.6484 -1.9933  2.7724
41266SOL    HW229636   0.711   2.809   1.110  0.9101  0.8858  2.0122
41267SOL     OW29637  10.214   8.643   5.126 -0.3873  0.8329 -0.1184
41267SOL    HW129638  10.181   8.561   5.163 -0.5248  2.1609  3.0513
41267SOL    HW229639  10.156   8.662   5.053 -1.2155 -1.1868 -0.0528
41268SOL     OW29640   8.782   3.929  12.009  0.3675  0.5976 -0.3690
41268SOL    HW129641   8.863   3.965  11.972  0.8078  0.0197  0.0270
41268SOL    HW229642   8.750   3.998  12.067 -0.5293  1.6720 -2.0651
41269SOL     OW29643   8.969   4.997  11.468 -0.1719 -0.3728  0.0726
41269SOL    HW129644   8.886   4.950  11.463 -0.2410 -0.3160  0.6660
41269SOL    HW229645   8.986   5.023  11.378 -0.6534 -0.6336 -0.1016
41270SOL     OW29646   4.491  11.419   8.028 -0.0540 -0.4026 -0.7353
41270SOL    HW129647   4.478  11.449   7.938 -2.1679  1.9080  0.2402
41270SOL    HW229648   4.564  11.471   8.061  0.9695 -1.5110 -1.1440
41271SOL     OW29649   2.152  10.940   7.954 -0.7947 -0.2593 -0.2857
41271SOL    HW129650   2.171  11.029   7.923 -2.8921  0.4721  0.3466
41271SOL    HW229651   2.162  10.885   7.876  1.1215  0.3849 -0.5543
41272SOL     OW29652   8.151  10.435   6.736 -0.1204  0.0198 -0.1128
41272SOL    HW129653   8.210  10.365   6.766  0.7390  1.1498  0.9195
41272SOL    HW229654   8.201  10.516   6.749 -1.6362  0.9567  0.1089
41273SOL     OW29655   8.290   8.773   8.064 -0.6591 -0.3065  0.4847
41273SOL    HW129656   8.233   8.843   8.032 -0.3794  0.0922  0.8537
41273SOL    HW229657   8.379   8.808   8.055 -0.4166 -1.1430 -0.6380
41274SOL     OW29658   9.262   2.055   5.893  0.0656 -0.1703 -0.1480
41274SOL    HW129659   9.280   2.148   5.904 -0.3424 -0.2283  1.2982
41274SOL    HW229660   9.202   2.051   5.818 -2.1741  1.0569  1.4390
41275SOL     OW29661   1.519   8.752   2.001  0.2185  0.1259  0.2363
41275SOL    HW129662   1.567   8.678   2.038  2.4690  0.7148 -1.2831
41275SOL    HW229663   1.456   8.712   1.941  2.2913 -0.6656 -1.5892
41276SOL     OW29664   2.282   4.700   9.931 -0.0953 -0.2528  0.6057
41276SOL    HW129665   2.321   4.673   9.848 -2.1364  0.9724 -0.8592
41276SOL    HW229666   2.356   4.721   9.988  1.3578 -0.2570 -1.2110
41277SOL     OW29667   2.148   8.130   6.669 -0.0386  0.1055 -0.3378
41277SOL    HW129668   2.227   8.079   6.653 -0.1636  0.1807 -1.2342
41277SOL    HW229669   2.129   8.116   6.762 -0.5447 -2.1563 -0.7252
41278SOL     OW29670   1.355   3.245  10.461 -0.3989  0.1014 -0.8300
41278SOL    HW129671   1.333   3.164  10.507 -0.9271  0.1939 -0.9094
41278SOL    HW229672   1.450   3.243  10.452 -0.4001 -0.4669 -0.7489
41279SOL     OW29673   0.503   3.777   1.508  0.2860  0.4570 -0.0214
41279SOL    HW129674   0.420   3.756   1.553  0.5287  0.2629  0.3450
41279SOL    HW229675   0.571   3.745   1.568  0.7080  2.8055  0.8501
41280SOL     OW29676   9.865   8.020   5.143 -0.1237  0.0050  0.0469
41280SOL    HW129677   9.771   8.005   5.136 -0.0937 -0.1531 -0.0122
41280SOL    HW229678   9.901   7.982   5.063 -0.1483  1.2550 -0.5812
41281SOL     OW29679   5.096   1.219   5.055  0.2822 -0.5620 -0.7374
41281SOL    HW129680   5.050   1.178   4.981 -0.9444  0.8217 -0.7886
41281SOL    HW229681   5.163   1.273   5.014 -0.7805  0.6726 -0.9172
41282SOL     OW29682   4.263   8.076   7.425 -0.5826  0.5018  0.2498
41282SOL    HW129683   4.260   8.156   7.371 -3.5787  0.5625  0.3280
41282SOL    HW229684   4.304   8.011   7.369 -1.7247  1.1031 -1.3518
41283SOL     OW29685   0.922   3.858   3.094 -0.3783  0.4640  0.5246
41283SOL    HW129686   0.954   3.780   3.139  1.5597  1.1495  0.4346
41283SOL    HW229687   0.965   3.931   3.138 -0.0210  1.2852 -1.0961
41284SOL     OW29688   0.262  11.972   4.093  0.5051  0.1998  0.1258
41284SOL    HW129689   0.252  12.052   4.042  0.1244 -0.4245 -0.8024
41284SOL    HW229690   0.270  12.003   4.184  1.0239  1.3098 -0.2810
41285SOL     OW29691   5.582   7.031  10.335  0.2064 -0.4777  0.2543
41285SOL    HW129692   5.515   6.992  10.391 -0.7774  0.9244  0.0980
41285SOL    HW229693   5.557   7.007  10.246 -0.1847  0.1598  0.1861
41286SOL     OW29694   8.333  10.329   8.494  0.1811  0.2344 -0.1463
41286SOL    HW129695   8.411  10.383   8.502 -0.5068  1.1659  0.6517
41286SOL    HW229696   8.365  10.239   8.497  1.3163  0.5810 -1.0808
41287SOL     OW29697  11.731   2.373   7.802 -0.0392  0.1740  0.5693
41287SOL    HW129698  11.798   2.327   7.852 -0.9199 -0.3484  1.2978
41287SOL    HW229699  11.734   2.334   7.715  0.4257 -0.0195  0.6693
41288SOL     OW29700   8.157   3.360   9.065 -0.1280 -0.1185  0.3207
41288SOL    HW129701   8.157   3.438   9.120  1.2072 -0.2973  0.6146
41288SOL    HW229702   8.222   3.378   8.997  0.8726 -1.3139  0.9249
41289SOL     OW29703   3.371   6.926   9.933  0.4160  0.5405  0.1181
41289SOL    HW129704   3.397   7.007   9.976 -0.1968  0.0670  1.4499
41289SOL    HW229705   3.289   6.902   9.975  0.8211 -1.0104  0.0865
41290SOL     OW29706   6.159   4.972   3.700  0.0403  0.0735  0.0594
41290SOL    HW129707   6.145   4.889   3.746 -0.1390  0.7361  1.2225
41290SOL    HW229708   6.088   4.975   3.635 -0.2011 -0.4789  0.2901
41291SOL     OW29709  10.972   2.878   0.541  0.2188  0.6774 -0.6174
41291SOL    HW129710  10.907   2.945   0.518  1.5159  1.7349 -1.4089
41291SOL    HW229711  11.035   2.925   0.596  0.7491 -0.1008 -0.5513
41292SOL     OW29712   8.433   1.199   7.305 -0.0445  0.1224  0.2294
41292SOL    HW129713   8.401   1.273   7.357 -0.3810 -1.2852  2.0937
41292SOL    HW229714   8.526   1.215   7.295 -0.1407  0.8714  0.4693
41293SOL     OW29715  10.085   2.135   7.910 -0.5973 -0.0291  0.3004
41293SOL    HW129716  10.040   2.193   7.848  1.6747  1.2581 -0.2966
41293SOL    HW229717  10.141   2.194   7.961  0.3665 -1.4998  1.0238
41294SOL     OW29718   3.016  10.041   2.984  0.2283  0.0192  0.1913
41294SOL    HW129719   3.097  10.008   2.945 -0.7194 -1.2512 -0.7949
41294SOL    HW229720   2.982   9.967   3.034 -1.8302 -0.5070 -1.8684
41295SOL     OW29721   7.576   2.899   8.418  0.2665  0.3177 -0.3494
41295SOL    HW129722   7.664   2.923   8.448  0.4745  1.4065 -1.7414
41295SOL    HW229723   7.518   2.949   8.474  0.6170  1.3738 -0.8995
41296SOL     OW29724   6.154   4.231   3.495 -1.1987  0.1585 -0.4765
41296SOL    HW129725   6.150   4.325   3.475 -2.0100 -0.0005 -1.0932
41296SOL    HW229726   6.149   4.188   3.410 -1.4951 -0.4644 -0.1506
41297SOL     OW29727   8.737   8.530   1.904 -0.3824 -0.1545  0.5833
41297SOL    HW129728   8.829   8.513   1.888 -0.4086  1.0372 -1.0900
41297SOL    HW229729   8.690   8.461   1.856 -0.3844 -0.2330  0.6967
41298SOL     OW29730   9.707   3.888  11.872 -0.3058 -0.0012 -0.0089
41298SOL    HW129731   9.653   3.900  11.795 -1.0289 -0.3902  0.4232
41298SOL    HW229732   9.747   3.973  11.887  0.5832 -0.1580 -1.3452
41299SOL     OW29733   7.934   3.070  10.945  0.7345 -0.2292 -0.4413
41299SOL    HW129734   7.901   3.135  10.883  0.1818 -0.6300 -0.5639
41299SOL    HW229735   7.991   3.014  10.893  1.2174  0.1485 -0.3338
41300SOL     OW29736  12.282   4.147   6.159  0.0218  0.1306  0.2589
41300SOL    HW129737  12.366   4.177   6.193 -0.2502  1.8943 -0.5201
41300SOL    HW229738  12.236   4.228   6.135 -1.4806 -0.8537 -0.2879
41301SOL     OW29739   2.195   9.856   2.039 -0.1226 -0.2919  0.2327
41301SOL    HW129740   2.111   9.877   2.079 -0.6517 -0.7179 -0.6250
41301SOL    HW229741   2.198   9.911   1.961 -0.2187 -1.2506 -0.4603
41302SOL     OW29742  10.151   6.876   2.939  0.0225 -0.0658 -0.1964
41302SOL    HW129743  10.137   6.943   3.006 -0.1451 -0.1069 -0.1891
41302SOL    HW229744  10.081   6.813   2.954  0.2797 -0.3259 -0.0992
41303SOL     OW29745   2.626   5.009   4.358  0.0293  0.2168 -0.5971
41303SOL    HW129746   2.653   5.076   4.295 -0.0379 -1.4822 -2.5860
41303SOL    HW229747   2.647   4.926   4.314 -2.2928 -1.1034  0.5833
41304SOL     OW29748   6.781   6.774   7.063  0.4272  0.0720  0.1138
41304SOL    HW129749   6.834   6.743   7.137  0.2431  1.5570  0.9134
41304SOL    HW229750   6.741   6.854   7.095  0.0681  0.5698 -1.5081
41305SOL     OW29751   6.983  10.192   5.125  0.3699  0.6137 -0.2930
41305SOL    HW129752   6.977  10.174   5.219  1.8077  0.5541 -0.1780
41305SOL    HW229753   6.936  10.274   5.113  0.9197  1.0898  0.6497
41306SOL     OW29754   2.638   4.572   5.257 -0.3733 -0.0978  0.2825
41306SOL    HW129755   2.594   4.604   5.336 -0.0899 -0.8203  0.7409
41306SOL    HW229756   2.682   4.492   5.285 -0.6620 -0.6209 -0.7267
41307SOL     OW29757   9.635   8.657   0.082 -0.0443  0.1542  0.3035
41307SOL    HW129758   9.598   8.635  -0.004  1.0320 -0.1434 -0.0925
41307SOL    HW229759   9.643   8.573   0.127  1.1888  0.0577 -0.0508
41308SOL     OW29760   2.627   8.356   7.870  0.2692 -0.0849  1.1377
41308SOL    HW129761   2.694   8.423   7.876 -0.2032  0.5828 -0.5500
41308SOL    HW229762   2.593   8.363   7.781 -0.0298 -2.3493  0.9968
41309SOL     OW29763   6.097  10.134  10.005 -0.2320 -0.0313  0.0516
41309SOL    HW129764   6.082  10.215   9.956  0.0642  0.7291  1.1728
41309SOL    HW229765   6.192  10.124  10.005 -0.1741  0.3969  1.0946
41310SOL     OW29766   3.059   2.069   9.770  0.1868  0.1320  0.0599
41310SOL    HW129767   2.986   2.122   9.803 -0.0125 -0.1579  0.0845
41310SOL    HW229768   3.020   1.983   9.753  0.5265 -0.0264  0.0894
41311SOL     OW29769   7.135  11.217   5.612  0.2377 -0.4056  0.0291
41311SOL    HW129770   7.146  11.272   5.534  0.0728 -1.2707 -0.6211
41311SOL    HW229771   7.072  11.265   5.666 -0.8701 -0.5282 -1.0991
41312SOL     OW29772   6.665   0.015   3.194 -0.2059  0.1850  0.6411
41312SOL    HW129773   6.733   0.038   3.258  1.3883  0.6178 -1.1091
41312SOL    HW229774   6.586   0.055   3.227  0.8146  1.3286  1.7906
41313SOL     OW29775   1.885   6.619   1.276  0.6905  0.2792  0.6436
41313SOL    HW129776   1.952   6.579   1.221  0.3457 -0.8415  1.0179
41313SOL    HW229777   1.934   6.672   1.339  1.1698  0.1856  0.3573
41314SOL     OW29778   2.755   6.629   3.486  0.2820 -0.2626 -0.0810
41314SOL    HW129779   2.663   6.626   3.512  0.1861 -0.0077 -0.3853
41314SOL    HW229780   2.770   6.546   3.441  1.0848 -1.8113  2.8349
41315SOL     OW29781   8.040   6.564   6.886 -0.2161 -0.1516  0.9271
41315SOL    HW129782   8.018   6.550   6.979 -0.1185  0.3032  1.0214
41315SOL    HW229783   8.055   6.476   6.852  0.6209 -0.2671  1.5596
41316SOL     OW29784   1.705  11.924   4.027 -0.3024  0.2661 -0.6156
41316SOL    HW129785   1.714  12.019   4.020 -2.7167  0.7728  1.5804
41316SOL    HW229786   1.747  11.902   4.110 -2.6673  0.0457  0.6303
41317SOL     OW29787   5.357   7.612   0.060  0.8625  0.0156  0.4456
41317SOL    HW129788   5.287   7.554   0.089 -0.6669  0.8822 -1.3133
41317SOL    HW229789   5.385   7.658   0.139 -0.3871 -0.5267  1.2274
41318SOL     OW29790   2.681   2.806   3.480  0.0911  0.4802 -0.0846
41318SOL    HW129791   2.713   2.729   3.526 -0.0255 -1.1278 -2.5205
41318SOL    HW229792   2.760   2.859   3.465  0.9386 -1.1964 -1.9476
41319SOL     OW29793   2.457   4.743   4.560 -0.0491  0.0937 -0.5681
41319SOL    HW129794   2.465   4.838   4.570  1.7785 -0.1507  0.9608
41319SOL    HW229795   2.390   4.717   4.623 -0.0810  0.3124 -0.5128
41320SOL     OW29796  10.239   7.750   7.458 -0.0526  0.2311  0.8968
41320SOL    HW129797  10.277   7.718   7.376  2.1016 -0.9810  2.2504
41320SOL    HW229798  10.160   7.796   7.432  0.7381  0.2017 -1.8819
41321SOL     OW29799   1.494  11.095   2.177  0.6835  0.4390 -0.3619
41321SOL    HW129800   1.553  11.020   2.177  1.3731  0.9583  0.4775
41321SOL    HW229801   1.464  11.101   2.267 -1.3916 -0.3501 -0.9426
41322SOL     OW29802   9.693   3.294   9.077 -0.7544  0.3500 -0.5907
41322SOL    HW129803   9.740   3.224   9.032 -0.8770  0.7462 -1.3410
41322SOL    HW229804   9.656   3.348   9.007  0.2468  1.7953 -0.0631
41323SOL     OW29805   8.645   0.709   4.063 -0.0428 -0.5963 -0.6043
41323SOL    HW129806   8.724   0.659   4.046  0.4416 -0.3799  0.8612
41323SOL    HW229807   8.627   0.696   4.156 -0.2895  1.3819 -0.3271
41324SOL     OW29808  11.180  11.284  10.290  0.0437 -0.1057  0.4357
41324SOL    HW129809  11.146  11.240  10.213  0.3160  0.0196  0.2422
41324SOL    HW229810  11.136  11.242  10.364 -0.2412 -0.2017  0.2112
41325SOL     OW29811   1.428   9.810  10.351 -0.1614 -0.5811 -0.3793
41325SOL    HW129812   1.406   9.889  10.301  2.0746  0.8240  0.7021
41325SOL    HW229813   1.346   9.784  10.393 -0.4467  2.9147  1.5613
41326SOL     OW29814   6.203   9.830   4.312 -0.1514  0.2761  0.0727
41326SOL    HW129815   6.122   9.801   4.353  0.1262 -0.4596  0.1282
41326SOL    HW229816   6.254   9.868   4.384  1.1958 -2.8532  0.9492
41327SOL     OW29817   5.652   3.755   4.302  0.5738  0.0618 -0.1832
41327SOL    HW129818   5.669   3.760   4.207  0.6312 -0.1420 -0.1823
41327SOL    HW229819   5.671   3.843   4.334 -0.3671  0.4010 -0.5183
41328SOL     OW29820   0.199   5.084  11.249  0.2424  0.0286  0.1298
41328SOL    HW129821   0.223   4.992  11.253  2.9518  0.6582  0.4366
41328SOL    HW229822   0.138   5.097  11.322  1.9019 -1.0179  1.7911
41329SOL     OW29823   3.235   9.108   4.246  0.1301  0.3304  0.1210
41329SOL    HW129824   3.281   9.028   4.222  0.7962  1.3329 -2.2509
41329SOL    HW229825   3.163   9.115   4.183  1.4163  2.6533 -1.2744
41330SOL     OW29826   5.649   2.203   0.178 -0.1274 -0.3301 -0.4252
41330SOL    HW129827   5.618   2.159   0.257  1.1136 -1.4784 -0.5381
41330SOL    HW229828   5.657   2.133   0.114  0.7712  0.2597 -0.9717
41331SOL     OW29829   4.642   3.516   7.337  0.0229 -0.3603  0.5278
41331SOL    HW129830   4.663   3.423   7.344 -0.2989 -0.3986  1.0192
41331SOL    HW229831   4.606   3.526   7.249 -0.6596 -0.8464  0.7477
41332SOL     OW29832   4.447  10.105   0.753 -0.4401  0.1271  0.1540
41332SOL    HW129833   4.375  10.165   0.772 -1.0643  0.1452 -1.9698
41332SOL    HW229834   4.525  10.153   0.779 -1.1294  0.4147  1.8056
41333SOL     OW29835   3.526   2.915   4.921  0.0110  0.1393 -0.5603
41333SOL    HW129836   3.547   3.005   4.945  0.5884 -0.1604  0.0659
41333SOL    HW229837   3.542   2.911   4.827  1.0023  0.4068 -0.4082
41334SOL     OW29838   6.674   5.484   5.642  0.1116 -0.0393  0.1778
41334SOL    HW129839   6.586   5.517   5.658  0.6153  1.2593  0.4035
41334SOL    HW229840   6.662   5.406   5.588 -1.2295 -0.5294  1.1557
41335SOL     OW29841  11.574   8.319   8.261  0.0466  0.6507 -0.6502
41335SOL    HW129842  11.533   8.304   8.176  0.7859  1.0297 -1.0926
41335SOL    HW229843  11.562   8.413   8.277 -0.8487  0.4306  0.0894
41336SOL     OW29844   5.726  10.549   6.024  0.8588 -0.2571  0.1051
41336SOL    HW129845   5.750  10.582   6.110  0.3362 -1.3862  0.7031
41336SOL    HW229846   5.736  10.625   5.966  0.9084  0.6078  1.2029
41337SOL     OW29847   4.454   0.956   8.796 -0.4865 -0.0952 -0.4397
41337SOL    HW129848   4.363   0.927   8.800 -0.5074  0.0086 -0.0802
41337SOL    HW229849   4.503   0.889   8.843 -0.7603  1.2807  1.9699
41338SOL     OW29850   3.871   2.072   8.753  0.4477 -0.4958  0.3646
41338SOL    HW129851   3.802   2.123   8.711 -0.5164 -0.5691  1.7765
41338SOL    HW229852   3.936   2.057   8.684  0.4268  1.9961 -0.2965
41339SOL     OW29853   7.882   7.429   2.817  0.2762  0.5197 -0.1127
41339SOL    HW129854   7.943   7.497   2.849 -0.2248  0.6597  0.5661
41339SOL    HW229855   7.812   7.478   2.775  0.6464  0.3543 -0.9451
41340SOL     OW29856   5.315  11.228   3.813 -0.4565 -0.1950 -0.0097
41340SOL    HW129857   5.390  11.272   3.854 -0.2901 -1.8526  1.5988
41340SOL    HW229858   5.259  11.299   3.783  1.1702  1.0933 -0.1400
41341SOL     OW29859   2.813   0.471   4.794 -0.0909 -0.3603 -0.0368
41341SOL    HW129860   2.820   0.535   4.865  0.8104  1.0955 -1.3761
41341SOL    HW229861   2.858   0.393   4.827 -0.9490 -0.2323  1.5189
41342SOL     OW29862   1.142   9.453   4.867  0.0625 -0.1208 -0.2216
41342SOL    HW129863   1.233   9.437   4.841  0.8481  0.9697  1.6612
41342SOL    HW229864   1.149   9.494   4.953 -2.2441 -0.2865  0.0926
41343SOL     OW29865   1.338   1.979  10.469  0.2573 -0.3756 -0.1537
41343SOL    HW129866   1.285   2.051  10.502 -0.7787 -1.4275  0.5628
41343SOL    HW229867   1.333   1.912  10.538  0.7834 -1.3203 -1.0028
41344SOL     OW29868   9.416   2.684  12.296  0.3283 -0.3628  0.0913
41344SOL    HW129869   9.476   2.681  12.221 -0.9083 -0.4252 -0.9357
41344SOL    HW229870   9.438   2.765  12.342  1.1945 -0.3897 -0.2612
41345SOL     OW29871   0.052   8.680   8.142 -0.0482 -0.6968 -1.0378
41345SOL    HW129872   0.114   8.752   8.155  0.5935 -1.2124 -1.1771
41345SOL    HW229873   0.105   8.601   8.154 -1.1584 -1.1936  1.4049
41346SOL     OW29874   8.924  10.148   3.615 -0.0668  0.1310 -0.0191
41346SOL    HW129875   8.894  10.083   3.552 -0.9123 -0.8492  1.3231
41346SOL    HW229876   8.950  10.097   3.692 -1.8778  1.3594  1.5280
41347SOL     OW29877  11.337   7.218  11.525 -0.1477 -0.0405  0.0210
41347SOL    HW129878  11.287   7.251  11.450  0.3936 -2.8530 -1.7362
41347SOL    HW229879  11.273   7.164  11.573 -0.4328  1.5708  1.5504
41348SOL     OW29880   8.560   6.007   6.113  0.1044  0.1004 -0.2597
41348SOL    HW129881   8.642   5.985   6.157 -1.2501 -1.2908  1.7393
41348SOL    HW229882   8.587   6.052   6.033  2.8168 -0.9387 -0.0347
41349SOL     OW29883   3.447  10.438   7.986  0.1716 -0.2595  0.4539
41349SOL    HW129884   3.436  10.486   7.904  0.6114 -0.9147  0.0062
41349SOL    HW229885   3.541  10.432   7.998  0.1101  0.1224  1.1851
41350SOL     OW29886   2.271   3.364   2.482  0.1805  0.1900 -0.0510
41350SOL    HW129887   2.179   3.370   2.455 -0.2146  1.4046  1.3812
41350SOL    HW229888   2.310   3.447   2.454  0.8364 -0.2783 -0.5613
41351SOL     OW29889   8.676  10.703  10.879 -0.5420  0.0735  0.3010
41351SOL    HW129890   8.730  10.779  10.861 -3.5298  2.5029  0.7125
41351SOL    HW229891   8.593  10.721  10.834 -1.8350 -2.2838  1.5354
41352SOL     OW29892  10.472  10.510  11.366  0.2611  0.0470  0.2170
41352SOL    HW129893  10.489  10.481  11.456 -1.7779 -1.4223  0.2131
41352SOL    HW229894  10.509  10.598  11.361  2.6895 -0.7884  1.6771
41353SOL     OW29895   1.202   0.588   2.789  0.4300 -0.3553 -0.1564
41353SOL    HW129896   1.121   0.628   2.821  0.7231  0.2671 -0.1780
41353SOL    HW229897   1.246   0.556   2.868  0.6621  0.2510 -0.0388
41354SOL     OW29898   3.283   2.216   5.463  0.3784  0.6497  0.0528
41354SOL    HW129899   3.329   2.132   5.455  0.2269  0.2893  2.3262
41354SOL    HW229900   3.219   2.215   5.391  1.5023 -0.4082 -0.9898
41355SOL     OW29901   3.152   2.668  12.043 -0.3200 -0.4240 -0.1963
41355SOL    HW129902   3.110   2.614  11.976 -0.4288 -0.1551 -0.3504
41355SOL    HW229903   3.177   2.748  11.996  0.0911 -0.4597 -0.0346
41356SOL     OW29904   1.613   3.193   6.272 -0.1097 -0.4016 -0.3010
41356SOL    HW129905   1.521   3.217   6.259 -0.0411  0.6894  1.0372
41356SOL    HW229906   1.659   3.277   6.278  1.1235 -0.9286 -1.7474
41357SOL     OW29907   2.777   2.931  11.645 -0.1077  0.3990 -0.8370
41357SOL    HW129908   2.762   2.918  11.551 -0.3045 -0.2880 -0.7107
41357SOL    HW229909   2.833   2.858  11.671 -3.1966 -1.7527  0.3746
41358SOL     OW29910   7.509   9.613   2.023  0.1866  0.6718  0.4919
41358SOL    HW129911   7.499   9.533   2.075 -0.4941  0.3330 -0.1373
41358SOL    HW229912   7.436   9.669   2.051  1.0172  1.3487  1.3793
41359SOL     OW29913   9.172  12.285  10.128  0.4694  0.1432 -0.4364
41359SOL    HW129914   9.228  12.210  10.107  0.8896 -0.1948  1.6642
41359SOL    HW229915   9.232  12.352  10.159  0.0063  1.0915 -1.5050
41360SOL     OW29916   1.306   7.621   9.671  0.1533 -0.3185 -0.2409
41360SOL    HW129917   1.396   7.626   9.637 -0.3860 -0.0142 -1.7047
41360SOL    HW229918   1.261   7.564   9.608 -1.3766  1.8341 -1.1961
41361SOL     OW29919   1.215   1.003   5.161 -0.1502 -0.1050  0.0154
41361SOL    HW129920   1.276   0.966   5.098 -0.3915 -0.6500  0.0990
41361SOL    HW229921   1.251   1.090   5.181 -0.9614  0.7907 -2.1330
41362SOL     OW29922   8.347  12.087   2.797 -0.4860  0.1956  0.7683
41362SOL    HW129923   8.257  12.067   2.823 -1.4145  1.8834 -0.8624
41362SOL    HW229924   8.346  12.181   2.778  1.2159 -0.0457 -0.8016
41363SOL     OW29925   6.872  11.916  10.078  0.2227 -0.2610 -1.0232
41363SOL    HW129926   6.934  11.850  10.045  0.8037 -0.4554  0.3771
41363SOL    HW229927   6.829  11.874  10.152 -0.3457  0.4837 -0.9176
41364SOL     OW29928   6.680   0.563  11.343  0.4434 -0.0091  0.6812
41364SOL    HW129929   6.771   0.555  11.373  0.5387 -1.8642  0.0671
41364SOL    HW229930   6.677   0.510  11.264 -1.0732  0.4199  0.4268
41365SOL     OW29931   0.389   0.790  10.476 -0.0522  0.3532  0.0381
41365SOL    HW129932   0.346   0.708  10.453  1.1381 -0.1410 -0.4722
41365SOL    HW229933   0.383   0.843  10.397  0.6613  0.1070 -0.1896
41366SOL     OW29934   6.675   3.117   6.336  0.4932  0.0913  0.6157
41366SOL    HW129935   6.665   3.142   6.428  0.0132  1.9309  0.1001
41366SOL    HW229936   6.659   3.023   6.335  0.0494  0.1170  2.3562
41367SOL     OW29937   9.290  11.989   7.873 -0.2140 -0.0944  0.4999
41367SOL    HW129938   9.339  11.942   7.941  0.1452  0.1281  0.3991
41367SOL    HW229939   9.228  11.925   7.839 -0.1729 -0.3047  0.8107
41368SOL     OW29940   2.833   4.151   3.349 -0.2283  0.2411 -0.3601
41368SOL    HW129941   2.752   4.199   3.331 -0.0160  0.8079  0.1469
41368SOL    HW229942   2.805   4.063   3.374 -0.6035 -0.1280 -1.9702
41369SOL     OW29943   4.088   6.583   8.404  0.1460  0.3124  0.0950
41369SOL    HW129944   4.055   6.626   8.326  0.4845 -0.8582 -0.7176
41369SOL    HW229945   4.011   6.543   8.444  0.3209 -1.2973 -1.0827
41370SOL     OW29946   9.082   9.139  10.877 -0.3604  0.2151  0.1099
41370SOL    HW129947   9.073   9.208  10.943 -1.2103  1.8518 -1.6183
41370SOL    HW229948   9.044   9.177  10.797  2.3379 -0.9010 -1.8781
41371SOL     OW29949   6.120   1.918  11.566 -0.0663  0.0763  0.3258
41371SOL    HW129950   6.169   1.980  11.619 -2.8347  1.8523  1.0239
41371SOL    HW229951   6.108   1.962  11.482 -1.5930  0.3085  0.6418
41372SOL     OW29952  11.373   3.716   1.802 -0.0939 -0.1306 -0.4397
41372SOL    HW129953  11.435   3.646   1.784 -0.3457 -0.2829 -0.7133
41372SOL    HW229954  11.291   3.671   1.824  0.0926  0.0492  0.7027
41373SOL     OW29955  11.982   4.316   1.180 -0.5867 -0.1952 -0.8493
41373SOL    HW129956  11.939   4.389   1.223  1.1327  0.5092 -0.2446
41373SOL    HW229957  12.006   4.350   1.094  3.0373  1.1742  0.5028
41374SOL     OW29958   1.701   7.798   8.772 -0.1629  0.4005 -0.8807
41374SOL    HW129959   1.674   7.877   8.818  0.2032  0.4401 -0.7245
41374SOL    HW229960   1.620   7.760   8.738 -0.4886  0.1431  0.1528
41375SOL     OW29961  10.064   6.245  12.199  0.3248 -0.0115  0.1753
41375SOL    HW129962  10.042   6.338  12.210 -0.2737  0.3673 -3.1171
41375SOL    HW229963  10.141   6.246  12.142  1.5324 -1.5783  1.6785
41376SOL     OW29964   3.438  10.212   2.672 -0.1307  0.6841  0.0226
41376SOL    HW129965   3.410  10.138   2.619 -0.9481  1.4916 -0.6995
41376SOL    HW229966   3.530  10.225   2.649 -0.9060  2.1626 -2.6491
41377SOL     OW29967  10.060   8.374   0.635 -0.2128  0.2337  0.1933
41377SOL    HW129968  10.038   8.465   0.619 -0.0311 -0.0341 -2.0042
41377SOL    HW229969  10.065   8.335   0.547  0.4650 -1.7046  1.0248
41378SOL     OW29970   7.189  11.585   0.669 -0.1439 -0.1186  0.1508
41378SOL    HW129971   7.235  11.532   0.604  0.1300  0.4659 -0.1348
41378SOL    HW229972   7.225  11.557   0.753  1.9016  1.3954 -0.1351
41379SOL     OW29973   9.567   0.328   9.317 -0.1681 -0.3575 -0.4548
41379SOL    HW129974   9.539   0.343   9.227 -0.2004  3.6530  0.0470
41379SOL    HW229975   9.660   0.309   9.310 -0.5715 -2.2069 -1.3960
41380SOL     OW29976   8.619  10.073   9.826  0.1884  0.5885  0.5051
41380SOL    HW129977   8.636  10.160   9.790  0.9646  1.6934  3.2488
41380SOL    HW229978   8.673  10.014   9.775  1.9317  2.1685  0.4387
41381SOL     OW29979   2.429   7.326   3.323 -0.0898  0.2537 -0.2330
41381SOL    HW129980   2.511   7.313   3.369 -0.0141  1.4385  0.0227
41381SOL    HW229981   2.404   7.240   3.290  0.6370 -0.3291  0.7195
41382SOL     OW29982   3.459   3.612  10.398 -0.1594  0.2704  0.1143
41382SOL    HW129983   3.532   3.623  10.458  0.9342 -0.9331 -0.9303
41382SOL    HW229984   3.500   3.591  10.314 -1.7033 -0.2600 -0.5418
41383SOL     OW29985  12.000   8.398   9.277  0.2190 -0.1573  0.2220
41383SOL    HW129986  11.904   8.401   9.279  0.1791 -1.2357  1.6484
41383SOL    HW229987  12.027   8.489   9.267 -0.9557  0.2117  0.2931
41384SOL     OW29988   6.389   7.821   2.403 -0.3085  0.8391 -0.5160
41384SOL    HW129989   6.451   7.764   2.357  0.6593 -0.3056  2.0082
41384SOL    HW229990   6.309   7.817   2.350  1.1143  0.7277 -2.7708
41385SOL     OW29991   0.854   1.734   6.824  0.5890  0.2457 -0.6957
41385SOL    HW129992   0.792   1.804   6.839 -1.4459 -1.5624 -0.2732
41385SOL    HW229993   0.893   1.716   6.909  0.8191  0.5683 -0.7301
41386SOL     OW29994   4.402  12.019  10.291  0.4250  0.2255  0.5095
41386SOL    HW129995   4.473  11.958  10.271 -0.5633 -0.6834 -0.3242
41386SOL    HW229996   4.380  12.058  10.206 -0.0686  0.5179  0.7673
41387SOL     OW29997   7.521   1.778  12.161 -0.2567 -0.2171  0.0553
41387SOL    HW129998   7.499   1.843  12.228 -0.6606  2.3626 -2.3459
41387SOL    HW229999   7.436   1.752  12.125  0.0271  0.3080 -1.0337
41388SOL     OW30000   6.145   4.647  10.722 -0.0271  0.0564  0.1513
41388SOL    HW130001   6.090   4.719  10.690 -0.1028 -0.1969 -0.2895
41388SOL    HW230002   6.206   4.630  10.650 -1.1992 -1.5662 -0.5143
41389SOL     OW30003   7.041   7.876   4.986 -0.6514  0.2621  0.5728
41389SOL    HW130004   6.981   7.866   5.060 -3.3263  1.6580 -1.2626
41389SOL    HW230005   7.029   7.966   4.957  0.4829 -0.1805 -1.4409
41390SOL     OW30006  10.497   5.030   8.162  0.0128  0.0376 -0.0325
41390SOL    HW130007  10.551   5.104   8.134 -0.7647  0.0573 -1.6043
41390SOL    HW230008  10.428   5.025   8.096 -0.7948 -1.1818  0.8667
41391SOL     OW30009   1.566   4.767   3.573 -0.2536 -0.0181 -0.9854
41391SOL    HW130010   1.562   4.855   3.608  1.1269 -0.1375 -0.4416
41391SOL    HW230011   1.643   4.768   3.516 -0.6813 -0.6628 -1.5891
41392SOL     OW30012   8.424   4.301   8.819 -0.1558 -0.1803 -0.0544
41392SOL    HW130013   8.515   4.305   8.789 -0.1444 -2.1737 -0.4003
41392SOL    HW230014   8.431   4.297   8.914  0.1449 -0.6751 -0.0927
41393SOL     OW30015   5.598   7.947   6.288  0.4186 -0.5815  0.1200
41393SOL    HW130016   5.545   8.026   6.296  1.1025 -0.1046  0.0805
41393SOL    HW230017   5.543   7.877   6.324  0.1591  0.0631  1.0217
41394SOL     OW30018   4.963   1.233  10.100  0.2813 -0.2065 -0.3665
41394SOL    HW130019   4.917   1.158  10.063 -3.6105  1.2981  0.9208
41394SOL    HW230020   4.950   1.303  10.036 -0.7183  0.6588  0.7289
41395SOL     OW30021   6.042   5.693   9.255 -0.5470 -0.1417  0.0541
41395SOL    HW130022   6.108   5.727   9.194 -1.8660  1.9531 -0.3094
41395SOL    HW230023   6.002   5.619   9.209 -0.5013  0.4688 -0.9971
41396SOL     OW30024   8.325   0.946   9.200  0.4765  0.6793  0.1571
41396SOL    HW130025   8.419   0.960   9.191  0.6373 -0.7523 -0.6967
41396SOL    HW230026   8.296   1.015   9.260  1.6496  2.6134 -1.3821
41397SOL     OW30027   8.933   4.373   4.037 -0.5187 -0.1548  0.2180
41397SOL    HW130028   9.013   4.347   3.991 -0.3007 -0.3856  0.7164
41397SOL    HW230029   8.939   4.328   4.122 -0.7042  0.6027  0.6358
41398SOL     OW30030   7.737   9.633  11.494  0.3560  0.0599  0.5771
41398SOL    HW130031   7.729   9.589  11.579  0.1089 -0.2920  0.3775
41398SOL    HW230032   7.665   9.597  11.442  1.2379 -0.6547 -0.1761
41399SOL     OW30033   5.523  11.501   8.064  0.5779 -0.4547  0.7085
41399SOL    HW130034   5.536  11.466   7.976 -1.1918  2.8719 -1.0807
41399SOL    HW230035   5.592  11.566   8.075  0.4871 -0.4896  1.5936
41400SOL     OW30036   9.131  10.847   9.464  0.1331 -0.3205 -0.5228
41400SOL    HW130037   9.113  10.848   9.558  0.8590 -1.8098 -0.3402
41400SOL    HW230038   9.178  10.929   9.448 -0.5344  0.2380  0.2820
41401SOL     OW30039  12.304   4.547   5.438  0.2531  0.5010  0.0865
41401SOL    HW130040  12.215   4.579   5.424 -0.1820 -1.1690 -1.2618
41401SOL    HW230041  12.300   4.497   5.520 -0.0738  0.3455 -0.0251
41402SOL     OW30042   1.190   1.557   5.820  0.2264 -0.3613 -0.7513
41402SOL    HW130043   1.192   1.518   5.908 -2.9990 -0.6028 -0.6491
41402SOL    HW230044   1.233   1.492   5.764  0.4354 -1.2036  0.3445
41403SOL     OW30045   4.414   5.992   4.979  0.2258  0.5569  0.1198
41403SOL    HW130046   4.411   6.087   4.970  1.5621  0.6668  0.6352
41403SOL    HW230047   4.505   5.969   4.961 -0.3460 -0.7770 -1.2766
41404SOL     OW30048   0.993   7.523   2.994  0.5907 -0.1350  0.2481
41404SOL    HW130049   0.919   7.546   3.050  0.6970 -0.2169  0.4213
41404SOL    HW230050   0.970   7.559   2.908  0.2304 -0.3871  0.2363
41405SOL     OW30051  10.320   1.509   7.030  0.3507 -0.2813  0.9844
41405SOL    HW130052  10.409   1.535   7.053  0.4423 -1.5686  2.2576
41405SOL    HW230053  10.323   1.493   6.936  0.7607  2.2174  0.5023
41406SOL     OW30054   3.290   4.751   9.331 -0.6956  0.0259 -0.3094
41406SOL    HW130055   3.287   4.677   9.392 -1.6836 -0.9344 -1.4707
41406SOL    HW230056   3.319   4.825   9.385 -0.7293 -0.9652  1.1286
41407SOL     OW30057   0.593   4.662   0.868  0.1361  0.5278 -0.6863
41407SOL    HW130058   0.506   4.702   0.856  0.6162  2.1286  0.7676
41407SOL    HW230059   0.597   4.643   0.962  0.6100 -1.4424 -1.0660
41408SOL     OW30060  10.336   6.848   6.038 -0.0965  0.4499  0.4344
41408SOL    HW130061  10.310   6.763   6.071 -0.7751  0.5219  0.0993
41408SOL    HW230062  10.428   6.856   6.062  0.0551 -0.5015  0.2042
41409SOL     OW30063   2.503   9.322   3.903  0.1567  0.3578  0.0027
41409SOL    HW130064   2.452   9.341   3.981  0.2419  1.1345 -0.1208
41409SOL    HW230065   2.503   9.227   3.897  2.6682  0.0630  2.6205
41410SOL     OW30066  10.474  10.752  10.853 -0.4934 -0.3589  0.0326
41410SOL    HW130067  10.460  10.675  10.798  1.9182 -1.8004  1.2345
41410SOL    HW230068  10.555  10.791  10.819  0.5303 -0.7513  1.8758
41411SOL     OW30069   6.187  11.765   8.545  0.7476 -0.3216  0.3255
41411SOL    HW130070   6.211  11.746   8.636 -2.7594 -0.0749  1.4485
41411SOL    HW230071   6.196  11.860   8.538 -1.2523 -0.0163  1.2637
41412SOL     OW30072  10.219  12.329   8.097 -0.4114 -0.3520  0.1909
41412SOL    HW130073  10.272  12.273   8.154  0.0251 -1.4694 -1.2475
41412SOL    HW230074  10.160  12.268   8.052 -0.4555  0.4228 -0.8411
41413SOL     OW30075   7.859   5.890   3.794 -0.6690 -0.3374  0.4198
41413SOL    HW130076   7.808   5.848   3.725 -0.5050 -0.0515  0.1195
41413SOL    HW230077   7.896   5.818   3.844  2.5850 -0.7671 -2.2203
41414SOL     OW30078   7.945  10.681   1.422  0.2877 -0.1877  0.0172
41414SOL    HW130079   7.938  10.650   1.512 -2.2679 -1.6771 -0.5791
41414SOL    HW230080   7.940  10.602   1.368 -1.2468  0.8200 -1.4642
41415SOL     OW30081   1.644   7.560  11.277  0.2815 -0.0738  0.6300
41415SOL    HW130082   1.715   7.496  11.281  0.0842 -0.4089 -0.5886
41415SOL    HW230083   1.683   7.636  11.234  0.0567 -0.0516  0.4604
41416SOL     OW30084   5.881   7.243   1.833  0.1405  0.7559 -0.5477
41416SOL    HW130085   5.791   7.272   1.819 -0.0465  0.7846  0.6470
41416SOL    HW230086   5.915   7.227   1.744 -1.4567 -0.5430 -0.9787
41417SOL     OW30087  10.851   0.583   1.983  0.8614 -0.4195  0.4532
41417SOL    HW130088  10.880   0.671   1.962 -0.4182 -0.0521  0.2005
41417SOL    HW230089  10.762   0.593   2.015  0.7756 -1.6002  0.6471
41418SOL     OW30090   9.795   1.582   7.501  0.2659 -0.1015 -0.0315
41418SOL    HW130091   9.867   1.640   7.527 -0.1050  0.8516 -1.0251
41418SOL    HW230092   9.741   1.636   7.444 -1.5008 -0.6417  1.0367
41419SOL     OW30093   3.021  11.859  11.202 -0.2538  0.3719  0.2697
41419SOL    HW130094   2.927  11.846  11.191 -0.3123  1.7931 -1.5159
41419SOL    HW230095   3.030  11.953  11.218  0.8638  0.2765  0.2472
41420SOL     OW30096  10.129  11.115   3.664 -0.0654  0.1508  0.1923
41420SOL    HW130097  10.055  11.171   3.686 -1.5656 -0.9197 -1.8164
41420SOL    HW230098  10.113  11.034   3.714 -0.4486 -0.2005 -0.4888
41421SOL     OW30099  10.351   4.906   7.271  0.4951 -0.4805  0.2369
41421SOL    HW130100  10.286   4.847   7.233  0.8750  1.5939 -4.2098
41421SOL    HW230101  10.421   4.847   7.302 -1.4335 -2.5070  1.0084
41422SOL     OW30102   0.273   4.041   2.256 -0.4425 -0.3611  0.0892
41422SOL    HW130103   0.195   3.986   2.258  1.1997 -2.8389  0.0023
41422SOL    HW230104   0.328   4.007   2.326  2.1384 -1.2528 -2.2208
41423SOL     OW30105   7.084   0.256   7.222 -0.0067 -0.0782  0.4885
41423SOL    HW130106   7.072   0.187   7.287 -1.0698  0.9246  1.4069
41423SOL    HW230107   7.143   0.318   7.263 -0.1553  0.2383  0.2283
41424SOL     OW30108  10.438   9.216   4.051  0.0968  0.3282  0.3953
41424SOL    HW130109  10.477   9.303   4.040  0.8907 -0.0388  0.1871
41424SOL    HW230110  10.513   9.157   4.059 -0.4372 -0.2508  1.3073
41425SOL     OW30111   7.799  10.023   0.248 -0.0168 -0.0600 -0.0729
41425SOL    HW130112   7.709   9.998   0.266  0.5325 -1.5040  0.8573
41425SOL    HW230113   7.834  10.050   0.333  0.7870 -0.7607 -0.1662
41426SOL     OW30114   8.920   7.609   2.454  0.1939 -0.0336  0.0126
41426SOL    HW130115   8.855   7.540   2.448 -1.1602  1.2703 -1.0131
41426SOL    HW230116   8.942   7.613   2.547 -1.2563 -0.4804  0.4026
41427SOL     OW30117   8.015  11.761   8.027  0.7095 -0.2722  0.5871
41427SOL    HW130118   8.060  11.845   8.028  1.0891 -0.4704  0.4085
41427SOL    HW230119   8.080  11.699   8.059  0.3409 -0.4576  0.9994
41428SOL     OW30120   5.732   1.851  10.772  0.2875  0.1985 -0.0454
41428SOL    HW130121   5.785   1.922  10.808  0.5481  0.2281 -0.4745
41428SOL    HW230122   5.698   1.886  10.690 -0.1609  0.0749  0.0883
41429SOL     OW30123  10.168   7.350   6.804  0.3142  0.2642 -0.3097
41429SOL    HW130124  10.230   7.378   6.735  3.1013 -0.7424  1.6071
41429SOL    HW230125  10.221   7.346   6.883 -1.5410 -3.3966  0.9780
41430SOL     OW30126   5.321   3.452   4.526  0.2734  0.0918 -0.3200
41430SOL    HW130127   5.233   3.435   4.492  0.5631  0.9790 -1.5820
41430SOL    HW230128   5.311   3.449   4.621 -1.2644  0.8819 -0.4369
41431SOL     OW30129   7.847   3.815  10.736 -0.4864  0.1276 -0.1146
41431SOL    HW130130   7.916   3.841  10.797 -1.3913 -0.7929  1.3624
41431SOL    HW230131   7.876   3.731  10.700 -1.1417 -0.6513  1.0986
41432SOL     OW30132   6.509   0.070   7.560 -0.0126 -0.5430 -0.2656
41432SOL    HW130133   6.572   0.142   7.560 -0.6071 -0.0003 -0.9095
41432SOL    HW230134   6.436   0.101   7.614  0.8157 -1.7110  1.6508
41433SOL     OW30135   4.619   6.923   6.234  0.1617 -0.2330  0.3117
41433SOL    HW130136   4.670   6.992   6.276 -2.6253  0.4323  2.9383
41433SOL    HW230137   4.659   6.913   6.147  3.4506  1.4764  1.4708
41434SOL     OW30138   3.837   5.601   9.065 -0.2540  0.7000 -0.2859
41434SOL    HW130139   3.909   5.612   9.127  0.1300 -0.5917 -0.4881
41434SOL    HW230140   3.877   5.616   8.979 -0.2419  0.0766 -0.3915
41435SOL     OW30141   4.957   4.880   7.375  0.6777  0.0056  0.0107
41435SOL    HW130142   4.925   4.841   7.456  0.3503 -1.2291 -0.7001
41435SOL    HW230143   4.879   4.917   7.333  0.9873  1.5015  0.6913
41436SOL     OW30144   5.572   5.065   7.743  0.0013  0.3697 -0.6111
41436SOL    HW130145   5.526   5.076   7.826  1.3907 -0.1436  0.2662
41436SOL    HW230146   5.506   5.029   7.684 -0.7200 -0.4229  0.6207
41437SOL     OW30147   5.617   3.941   0.865 -0.3047 -0.0075  0.0259
41437SOL    HW130148   5.534   3.954   0.909 -0.7817  0.7024 -1.0356
41437SOL    HW230149   5.610   3.855   0.823  1.1289 -1.9186  3.3345
41438SOL     OW30150   8.432   4.697   1.136 -0.3813  0.2162 -0.1362
41438SOL    HW130151   8.465   4.721   1.050  0.5289  0.6610  0.3280
41438SOL    HW230152   8.343   4.733   1.138 -0.2581  0.5649 -0.7247
41439SOL     OW30153   8.756   9.162   7.275  0.2753 -0.2512 -1.0550
41439SOL    HW130154   8.843   9.147   7.310 -0.1538 -0.8037 -0.1873
41439SOL    HW230155   8.741   9.256   7.289  0.3547 -0.3439 -0.3013
41440SOL     OW30156  10.883   1.443  11.964  0.3800  0.0877  0.2664
41440SOL    HW130157  10.866   1.475  12.053 -1.3094  0.5081 -0.1680
41440SOL    HW230158  10.801   1.457  11.917  0.1970 -2.9180 -0.5529
41441SOL     OW30159   0.821   4.868  10.858  0.2310 -0.3114  0.2739
41441SOL    HW130160   0.758   4.931  10.823  1.6983  0.3772 -1.2611
41441SOL    HW230161   0.790   4.849  10.946 -2.4053 -0.4028 -0.5879
41442SOL     OW30162   2.177   9.286   7.756 -0.3432 -0.0403  0.3426
41442SOL    HW130163   2.257   9.281   7.704 -0.3706  0.1971  0.2765
41442SOL    HW230164   2.116   9.227   7.711 -0.7022  0.9477 -0.4930
41443SOL     OW30165   4.072   8.686   8.775 -0.4272  0.2641  0.6599
41443SOL    HW130166   4.135   8.756   8.757 -0.2660 -0.2868 -1.1879
41443SOL    HW230167   3.987   8.728   8.768 -0.3260  0.8004  2.1949
41444SOL     OW30168   8.683   7.173   0.171  0.2433  0.2100 -0.0236
41444SOL    HW130169   8.622   7.236   0.133 -0.1146  0.4048  0.8496
41444SOL    HW230170   8.756   7.225   0.203  0.6140  0.0316 -0.5619
41445SOL     OW30171   0.225   6.860   5.224 -0.0639  0.0324 -0.0881
41445SOL    HW130172   0.221   6.848   5.319 -0.6409  1.9549  0.1751
41445SOL    HW230173   0.313   6.830   5.200 -0.0434 -0.8297  0.9940
41446SOL     OW30174   7.414   8.962  11.142  0.3845 -0.0636  0.1727
41446SOL    HW130175   7.336   8.975  11.196  0.2505 -1.1237  0.2505
41446SOL    HW230176   7.487   8.983  11.200  0.1697  1.2809 -0.0018
41447SOL     OW30177   5.350  10.987   7.900  0.4386  0.1697  0.0219
41447SOL    HW130178   5.398  10.993   7.983  1.1238  0.1278 -0.3678
41447SOL    HW230179   5.361  10.896   7.873  2.2344  0.7351 -1.2997
41448SOL     OW30180  10.217   3.880   0.940 -0.3039 -0.7164 -0.1498
41448SOL    HW130181  10.254   3.952   0.992  0.9725 -0.9631 -0.6947
41448SOL    HW230182  10.246   3.801   0.985 -0.9607 -0.9075 -0.0574
41449SOL     OW30183  12.327  11.707   0.059  0.3328 -0.4723 -0.8668
41449SOL    HW130184  12.325  11.758   0.140  3.8255  0.6175 -1.3337
41449SOL    HW230185  12.358  11.621   0.086 -0.0810 -0.6150 -0.8415
41450SOL     OW30186   6.731  11.322  11.537  0.3561  0.0566  0.1652
41450SOL    HW130187   6.775  11.402  11.510 -0.5326  0.7131  0.6080
41450SOL    HW230188   6.675  11.349  11.610  1.1757 -1.2586  1.3380
41451SOL     OW30189  11.479   7.371   2.792  0.1968 -0.0163  0.3870
41451SOL    HW130190  11.405   7.335   2.744 -0.0269 -0.3206  0.9621
41451SOL    HW230191  11.442   7.406   2.873  0.6154  0.2359  0.4775
41452SOL     OW30192   6.337   6.787   4.554  0.8063  0.3659 -0.3404
41452SOL    HW130193   6.324   6.780   4.649 -0.8776  1.1467 -0.4721
41452SOL    HW230194   6.313   6.877   4.533  1.7378  0.3750 -1.4431
41453SOL     OW30195   7.895   3.942   4.185  0.4703 -0.2060 -0.1536
41453SOL    HW130196   7.941   4.024   4.169  0.0713 -0.1297 -0.9751
41453SOL    HW230197   7.948   3.876   4.139 -1.4252  0.2072 -3.2499
41454SOL     OW30198  11.227   8.356   5.706 -0.1807  0.1729  0.0436
41454SOL    HW130199  11.263   8.441   5.729  2.1869 -0.1461 -2.0607
41454SOL    HW230200  11.292   8.293   5.739 -0.1081 -0.5885 -1.4717
41455SOL     OW30201   4.708  11.325   4.243 -0.1796  0.0516  0.6504
41455SOL    HW130202   4.699  11.374   4.162  1.0900 -1.9451 -0.8075
41455SOL    HW230203   4.747  11.386   4.305 -1.8811  1.8408  0.0446
41456SOL     OW30204   0.014   2.437  11.981  0.1512 -0.5152  0.4858
41456SOL    HW130205   0.012   2.487  11.899  1.1150 -0.1200  0.6902
41456SOL    HW230206   0.091   2.471  12.028 -0.8383 -0.1809  1.9086
41457SOL     OW30207   7.737   0.031   1.495 -0.5799  0.0015 -0.0832
41457SOL    HW130208   7.796  -0.028   1.448 -0.6936  0.1935 -0.4772
41457SOL    HW230209   7.760   0.118   1.462  0.9504  0.4403  1.9146
41458SOL     OW30210  10.009   2.611   4.086  0.4402  0.5230  0.2473
41458SOL    HW130211   9.960   2.533   4.114 -3.0540  1.7493 -1.8405
41458SOL    HW230212  10.081   2.575   4.034 -0.8362 -1.3595 -0.3471
41459SOL     OW30213   8.025   2.605   1.121  0.7634 -0.4520  0.3178
41459SOL    HW130214   8.036   2.516   1.156  0.1292 -0.4957  0.4203
41459SOL    HW230215   7.967   2.648   1.183  1.3816  0.1651  0.4735
41460SOL     OW30216   4.484   7.675   2.972 -0.6404  0.4903  0.5567
41460SOL    HW130217   4.541   7.717   2.908 -0.0900 -0.5634  0.3236
41460SOL    HW230218   4.508   7.715   3.055  0.1345  0.3737  0.3975
41461SOL     OW30219   8.926   7.964  11.924  0.2211 -0.1459  0.6333
41461SOL    HW130220   8.936   7.882  11.973 -0.4720  0.0396  1.0985
41461SOL    HW230221   8.966   8.030  11.980 -1.6517  0.2644  1.5470
41462SOL     OW30222   7.009   1.366   8.814  0.0168 -0.2389  0.3708
41462SOL    HW130223   7.064   1.319   8.876 -1.5463 -0.7529  1.4273
41462SOL    HW230224   7.039   1.457   8.819  2.9359 -0.9732 -1.5468
41463SOL     OW30225   0.247  11.267   5.746 -0.1077 -0.0313  0.1909
41463SOL    HW130226   0.276  11.204   5.680  0.2347 -0.9812  1.2122
41463SOL    HW230227   0.273  11.352   5.712  0.2890 -0.5235 -0.7694
41464SOL     OW30228   4.735  10.556   3.246 -0.4896  0.0437  0.2211
41464SOL    HW130229   4.826  10.577   3.227 -0.3527  0.4252  1.2513
41464SOL    HW230230   4.685  10.628   3.210 -0.4075 -0.2671 -0.5291
41465SOL     OW30231   7.218   6.852   0.418  0.5382 -0.4390  0.1009
41465SOL    HW130232   7.129   6.821   0.400  0.1374 -0.2981  1.6727
41465SOL    HW230233   7.275   6.782   0.386 -0.1375 -0.5810 -0.8188
41466SOL     OW30234  10.521   5.912   1.469  0.0743 -0.9294 -0.5103
41466SOL    HW130235  10.462   5.975   1.511 -0.0650 -0.6216 -1.1547
41466SOL    HW230236  10.470   5.831   1.463 -0.5526 -0.4623 -1.7197
41467SOL     OW30237   1.382   8.796   4.100  0.2188  0.3490  0.3377
41467SOL    HW130238   1.388   8.700   4.096 -1.5353  0.1685  0.7365
41467SOL    HW230239   1.349   8.821   4.014 -0.9982  0.3818  0.7893
41468SOL     OW30240   3.046   9.255   5.777 -0.1022 -0.4719 -0.4017
41468SOL    HW130241   3.131   9.246   5.820  0.2326  2.8355 -0.1358
41468SOL    HW230242   3.060   9.224   5.688  1.4668  0.2558 -0.4307
41469SOL     OW30243   7.872   7.128   4.046 -0.2954 -0.3215 -0.4910
41469SOL    HW130244   7.890   7.113   3.953 -1.2783 -0.7445 -0.6263
41469SOL    HW230245   7.793   7.181   4.047  0.7423  1.3168  0.0912
41470SOL     OW30246   0.553   5.310   6.449 -0.1138  0.4243 -0.4060
41470SOL    HW130247   0.525   5.256   6.375 -0.9453  0.2530  0.0225
41470SOL    HW230248   0.481   5.372   6.462 -0.2184  0.1019  0.6028
41471SOL     OW30249   4.203   1.320   2.940  0.2112 -0.2855 -0.5819
41471SOL    HW130250   4.191   1.335   2.846  0.4144  2.5122 -0.2400
41471SOL    HW230251   4.295   1.294   2.948 -0.2906 -2.5423 -1.2774
41472SOL     OW30252   1.255   3.613   7.938 -0.1036  0.1427  0.3266
41472SOL    HW130253   1.282   3.551   8.006  0.0006 -1.2158 -0.9056
41472SOL    HW230254   1.332   3.668   7.924 -0.6010  1.4694  2.3312
41473SOL     OW30255   3.369   8.914  10.924  0.3130  0.0132  0.0122
41473SOL    HW130256   3.455   8.895  10.885  0.0902 -0.3784 -0.2996
41473SOL    HW230257   3.367   9.010  10.931  0.8606  0.0150  0.2226
41474SOL     OW30258  10.509   1.574   0.539 -0.3150  0.4669 -0.4498
41474SOL    HW130259  10.455   1.645   0.503 -2.1282 -0.7408 -0.2704
41474SOL    HW230260  10.446   1.518   0.585  1.5266  0.5724  2.4354
41475SOL     OW30261   5.686   5.490   0.278 -0.0624  0.3345 -0.7100
41475SOL    HW130262   5.619   5.550   0.309  0.1433  0.2912 -0.1735
41475SOL    HW230263   5.751   5.489   0.348 -0.8359 -1.7396  0.0666
41476SOL     OW30264   9.864   0.788   1.654 -0.1673  0.0469 -0.3343
41476SOL    HW130265   9.937   0.838   1.617 -0.2488  0.6433  0.2888
41476SOL    HW230266   9.897   0.698   1.660  0.7830  0.4404  0.6154
41477SOL     OW30267   9.480   2.837   1.551  0.0846 -0.6970  0.1335
41477SOL    HW130268   9.439   2.920   1.529 -0.8873 -1.4335 -0.9161
41477SOL    HW230269   9.566   2.841   1.509 -0.6158 -0.8845 -1.4029
41478SOL     OW30270   6.274   3.450   8.863 -0.3645  0.5670 -0.3019
41478SOL    HW130271   6.201   3.394   8.836 -0.9392  0.8867  0.5330
41478SOL    HW230272   6.332   3.392   8.913 -1.0584  0.7316  0.7300
41479SOL     OW30273   7.797   6.640  10.613  0.5352 -0.2059  0.5628
41479SOL    HW130274   7.817   6.722  10.568  0.8573 -0.8413 -0.4934
41479SOL    HW230275   7.774   6.580  10.543  0.4104 -1.0519  1.3159
41480SOL     OW30276  10.471   2.255   0.689  0.0759  0.1954  0.1188
41480SOL    HW130277  10.412   2.323   0.723  0.4344  1.3298 -1.4607
41480SOL    HW230278  10.517   2.296   0.617 -1.7871 -2.5182 -2.9131
41481SOL     OW30279   8.143   9.421   3.167 -0.1593  0.1635 -0.7834
41481SOL    HW130280   8.138   9.436   3.261 -0.4175 -1.1874 -0.5587
41481SOL    HW230281   8.226   9.460   3.141 -0.9583  2.2819 -0.3782
41482SOL     OW30282   3.318  11.793  11.495 -0.4688 -0.0540  0.1247
41482SOL    HW130283   3.408  11.800  11.463 -1.1992 -0.2322 -2.1237
41482SOL    HW230284   3.274  11.737  11.431 -2.2648  0.2669  1.0122
41483SOL     OW30285   7.444   5.094  12.076 -0.3346  0.1436  0.0495
41483SOL    HW130286   7.456   5.003  12.051  2.4543  0.5973 -0.6067
41483SOL    HW230287   7.382   5.091  12.149  1.0800 -2.4923  1.2979
41484SOL     OW30288  10.253  10.782   2.632  0.5375  0.1255 -0.5498
41484SOL    HW130289  10.226  10.812   2.545  0.1282 -3.1467 -1.7150
41484SOL    HW230290  10.171  10.761   2.676  0.7334 -2.5873 -1.2378
41485SOL     OW30291   5.952  10.936   9.625 -0.3437 -0.2634 -0.0142
41485SOL    HW130292   6.028  10.987   9.596  0.2537 -0.6032  0.8877
41485SOL    HW230293   5.956  10.940   9.721 -3.0774  2.0479  0.1375
41486SOL     OW30294   6.481   5.657  12.120  0.3326 -0.2308 -0.1013
41486SOL    HW130295   6.422   5.584  12.140 -0.1986 -0.5066 -2.4732
41486SOL    HW230296   6.433   5.734  12.152 -1.3467 -0.4600 -1.8610
41487SOL     OW30297   0.362   1.893   6.952 -0.1027 -0.6314 -0.5739
41487SOL    HW130298   0.431   1.833   6.979 -0.7455 -1.1240  0.0339
41487SOL    HW230299   0.342   1.944   7.031  0.7875  0.7649 -1.2087
41488SOL     OW30300  12.013   4.504   9.287 -0.4298 -0.2399  0.2689
41488SOL    HW130301  11.932   4.529   9.241 -0.3471 -0.5268 -0.0346
41488SOL    HW230302  12.080   4.563   9.252 -0.2987 -0.6723 -0.2220
41489SOL     OW30303   1.588   5.873   0.552  0.3778 -0.2318 -0.3350
41489SOL    HW130304   1.595   5.959   0.595 -0.0618 -1.4678  2.4711
41489SOL    HW230305   1.509   5.834   0.591  0.5095 -1.8693 -1.6337
41490SOL     OW30306   8.182   7.009   2.313 -0.1274  0.3483  0.2209
41490SOL    HW130307   8.110   7.011   2.375 -0.7779 -0.0214 -0.5007
41490SOL    HW230308   8.145   7.046   2.232  0.4867  0.1464 -0.1604
41491SOL     OW30309   1.568   5.194   3.324 -0.1432  0.0013  0.0902
41491SOL    HW130310   1.598   5.151   3.404  1.0904 -0.1210 -0.4259
41491SOL    HW230311   1.488   5.146   3.300 -0.4162 -0.0827  1.1259
41492SOL     OW30312   0.219   9.054  11.080 -0.0820  0.1009  0.3473
41492SOL    HW130313   0.221   9.020  11.170 -0.2223 -0.6087  0.0938
41492SOL    HW230314   0.160   8.994  11.034  0.0763  0.3937 -0.2417
41493SOL     OW30315   7.913   2.557   9.256 -0.0039  0.2245 -0.0874
41493SOL    HW130316   7.832   2.603   9.275 -1.7307 -1.4238 -2.8135
41493SOL    HW230317   7.940   2.521   9.341 -1.1300  2.1781  1.1974
41494SOL     OW30318   2.222   7.198   8.292  0.3091 -0.3292 -0.4791
41494SOL    HW130319   2.141   7.171   8.334 -0.6094  0.7911 -1.4430
41494SOL    HW230320   2.277   7.120   8.292 -2.1551 -2.2548 -3.1034
41495SOL     OW30321   5.761   0.247   0.842 -0.2957 -0.1662 -0.1343
41495SOL    HW130322   5.836   0.205   0.885 -1.1318 -1.1402  0.4210
41495SOL    HW230323   5.698   0.263   0.913 -0.7424  0.3473 -0.6374
41496SOL     OW30324   6.254  10.851   4.080  0.5484 -0.1389  0.2437
41496SOL    HW130325   6.312  10.776   4.071 -0.1958 -0.6477 -0.3882
41496SOL    HW230326   6.308  10.918   4.122  0.7541 -1.5480  2.3696
41497SOL     OW30327   3.288   2.063   4.925  0.0511  0.1611  0.4931
41497SOL    HW130328   3.204   2.031   4.957  1.7292 -3.0225  2.1617
41497SOL    HW230329   3.292   2.032   4.834 -0.0295 -0.9567  0.8544
41498SOL     OW30330   7.413   0.648   8.951 -0.3428 -0.4310 -0.3385
41498SOL    HW130331   7.357   0.652   8.873 -0.9018 -1.5002 -0.0168
41498SOL    HW230332   7.427   0.739   8.975 -3.2223 -0.0902  0.4486
41499SOL     OW30333   7.074   8.892   9.953  0.0597  0.0029  0.4047
41499SOL    HW130334   7.023   8.949  10.010  2.1541  2.1257  0.3514
41499SOL    HW230335   7.116   8.952   9.891 -1.1984 -2.0879 -2.7042
41500SOL     OW30336   2.807  12.116   0.204  0.6992  0.1798 -0.0761
41500SOL    HW130337   2.895  12.078   0.203  0.9189  0.5487  1.7235
41500SOL    HW230338   2.800  12.158   0.290 -0.5380  1.8184 -0.9111
41501SOL     OW30339   9.982   3.284   7.417 -0.5475  0.0238 -0.1739
41501SOL    HW130340   9.962   3.337   7.340 -0.6603  0.6873  0.3119
41501SOL    HW230341   9.897   3.264   7.455 -0.4137  0.9632  0.6285
41502SOL     OW30342  10.453  11.569   9.080  0.2024 -0.0344 -0.1542
41502SOL    HW130343  10.446  11.473   9.077  1.2926 -0.2432  2.1195
41502SOL    HW230344  10.527  11.589   9.023  0.6488 -0.6602  0.1914
41503SOL     OW30345   6.665   0.321   5.751 -0.1845  0.6435  0.6556
41503SOL    HW130346   6.721   0.311   5.827  1.1002  1.5944 -0.1218
41503SOL    HW230347   6.599   0.385   5.777  0.3053  1.0347  0.9468
41504SOL     OW30348  11.594  11.221   5.640 -0.2499 -0.0612 -0.0063
41504SOL    HW130349  11.593  11.190   5.550  0.2679  0.8247 -0.3322
41504SOL    HW230350  11.504  11.211   5.670 -0.6514  0.5717 -0.9598
41505SOL     OW30351   1.384   2.350   2.026  0.0381  0.3771  0.5526
41505SOL    HW130352   1.464   2.299   2.011  0.0146  0.5373 -0.1246
41505SOL    HW230353   1.335   2.298   2.090 -0.0319 -0.5077 -0.1914
41506SOL     OW30354   4.622   0.167   8.178  0.0093  0.0801 -0.1818
41506SOL    HW130355   4.527   0.165   8.190 -0.0671 -0.6124 -0.7658
41506SOL    HW230356   4.634   0.150   8.085  0.7164 -0.1533 -0.0537
41507SOL     OW30357   0.607  11.991   8.106 -0.8297  0.0518  0.3917
41507SOL    HW130358   0.603  11.923   8.172  1.0764 -0.6990 -0.1838
41507SOL    HW230359   0.700  12.001   8.087 -1.3039 -0.3700 -2.7532
41508SOL     OW30360   4.144   7.228  11.822  0.2346 -0.2810  0.4265
41508SOL    HW130361   4.228   7.224  11.866  0.5747  0.4219 -0.1327
41508SOL    HW230362   4.118   7.320  11.829 -0.2004 -0.3741  0.0778
41509SOL     OW30363  12.292   0.519   3.174 -0.1460  0.4264 -0.0212
41509SOL    HW130364  12.262   0.495   3.086  0.0646 -0.2404  0.0880
41509SOL    HW230365  12.330   0.606   3.163  1.6299 -0.4159 -0.9920
41510SOL     OW30366   9.920   3.677   7.402 -0.0682  0.4858 -0.2356
41510SOL    HW130367   9.863   3.753   7.393 -0.1527  0.5253  0.5595
41510SOL    HW230368   9.880   3.609   7.348  0.2932  1.1540 -1.3850
41511SOL     OW30369   1.515  11.285   0.328  0.2703  0.6205  0.6088
41511SOL    HW130370   1.446  11.301   0.393  0.6565 -0.0944  1.2023
41511SOL    HW230371   1.576  11.357   0.340  1.0337 -0.2074  1.9856
41512SOL     OW30372   6.916   4.185   0.433 -0.1431 -0.4473  0.6762
41512SOL    HW130373   6.948   4.211   0.346 -0.4627 -0.5476  0.5251
41512SOL    HW230374   6.861   4.258   0.460 -0.7980 -0.8249  0.3835
41513SOL     OW30375   9.384  11.356   0.153 -0.0638  0.5391  0.3382
41513SOL    HW130376   9.460  11.396   0.196 -0.2441 -0.9844  2.1821
41513SOL    HW230377   9.422  11.297   0.089  0.2195  2.0996 -1.0020
41514SOL     OW30378   3.059   0.157   4.317  0.0792  0.0828  0.0595
41514SOL    HW130379   3.072   0.127   4.227 -1.7066  2.5830 -1.1518
41514SOL    HW230380   3.133   0.215   4.334  1.5732 -1.9858  1.0859
41515SOL     OW30381   1.200   7.186   6.799 -0.2287 -0.1525  0.0152
41515SOL    HW130382   1.260   7.260   6.805 -2.1881  1.5295 -0.1044
41515SOL    HW230383   1.140   7.197   6.873 -3.0675  0.8076 -2.2476
41516SOL     OW30384   8.063   4.260   5.690 -0.3766  0.5869  0.0237
41516SOL    HW130385   8.053   4.354   5.707  0.9683  0.5685  1.1828
41516SOL    HW230386   7.982   4.221   5.721 -0.6300  1.2955  0.2726
41517SOL     OW30387   4.053   1.814   5.099  0.0918  0.0290 -0.1509
41517SOL    HW130388   4.048   1.841   5.190 -1.2027  1.9419 -0.7263
41517SOL    HW230389   3.966   1.779   5.079 -0.4017  1.7771 -1.2292
41518SOL     OW30390   8.582  12.079   8.648  0.0076  0.7074  0.8419
41518SOL    HW130391   8.549  12.098   8.736 -1.5904  0.6248  0.3011
41518SOL    HW230392   8.668  12.120   8.645  0.6921 -0.4474  2.8868
41519SOL     OW30393   6.085   4.667   6.536 -0.5221 -0.2175  0.2187
41519SOL    HW130394   6.050   4.642   6.621 -2.0536 -0.1501 -0.3570
41519SOL    HW230395   6.025   4.735   6.504  0.8350  0.7759 -0.3161
41520SOL     OW30396   2.057   8.063  11.354 -0.6199 -0.6386  0.3763
41520SOL    HW130397   2.094   8.152  11.354  0.3944 -1.0484  0.9247
41520SOL    HW230398   2.053   8.039  11.262 -1.6697  0.2677  0.1543
41521SOL     OW30399   3.287   9.858   0.795 -0.1018  0.7105 -0.3290
41521SOL    HW130400   3.308   9.764   0.793  1.9409  1.1303 -0.7312
41521SOL    HW230401   3.313   9.886   0.883  0.0204  1.0359 -0.4673
41522SOL     OW30402   5.243   6.252   3.982 -0.0836  0.2540 -0.1542
41522SOL    HW130403   5.289   6.261   3.898 -1.6264 -0.2599 -1.1081
41522SOL    HW230404   5.296   6.301   4.044 -0.2231  2.8918 -1.9381
41523SOL     OW30405  10.068   2.220   8.684 -0.5118 -0.9427  0.0206
41523SOL    HW130406  10.076   2.180   8.771  1.0117 -1.6904 -0.4345
41523SOL    HW230407  10.103   2.309   8.696  1.8412 -1.7764 -0.2886
41524SOL     OW30408   6.629   4.800   0.510  0.2379 -0.3533 -0.4669
41524SOL    HW130409   6.594   4.888   0.528 -1.0647 -0.6005 -1.5790
41524SOL    HW230410   6.577   4.769   0.435  1.1444 -1.8026 -0.5309
41525SOL     OW30411   3.235   9.935   2.104 -0.0193 -0.3252 -0.3170
41525SOL    HW130412   3.172   9.964   2.037  0.0568 -0.4224 -0.4316
41525SOL    HW230413   3.194   9.959   2.187 -0.9627 -1.8179 -0.3093
41526SOL     OW30414   9.892  11.118   8.965  0.2511 -0.2912 -0.3386
41526SOL    HW130415   9.895  11.207   9.001 -0.7119 -0.0223 -0.8778
41526SOL    HW230416   9.799  11.095   8.967  0.0879 -0.1141 -2.9640
41527SOL     OW30417   5.685   1.480   5.342 -0.1599  0.2364 -0.5880
41527SOL    HW130418   5.767   1.431   5.351 -0.2019 -0.2117 -2.2737
41527SOL    HW230419   5.622   1.415   5.310 -0.9376  0.7849 -0.2013
41528SOL     OW30420   6.918   9.815   3.871 -0.0438 -0.3538  0.5185
41528SOL    HW130421   6.859   9.884   3.903 -1.2581 -0.7295 -0.8238
41528SOL    HW230422   6.904   9.743   3.933 -1.7765 -0.7881 -0.3023
41529SOL     OW30423  10.369  12.120   9.174 -0.2172 -0.0081  0.3995
41529SOL    HW130424  10.458  12.154   9.162 -0.1944  0.1296  0.9368
41529SOL    HW230425  10.332  12.119   9.086  0.8888 -1.6817 -0.0853
41530SOL     OW30426  11.067   2.925   7.883  0.5841  0.3507 -0.4193
41530SOL    HW130427  10.978   2.932   7.916  0.1930 -1.7487 -0.8863
41530SOL    HW230428  11.059   2.936   7.789  0.8891  0.6767 -0.4088
41531SOL     OW30429   0.095   6.752  11.521  0.6410  0.2040  0.5024
41531SOL    HW130430   0.100   6.800  11.604  2.5537 -0.2661  0.7141
41531SOL    HW230431   0.118   6.817  11.454  0.7784  0.1793  0.5252
41532SOL     OW30432   1.781   2.247  11.834 -0.2662 -0.5567  0.5085
41532SOL    HW130433   1.727   2.178  11.873 -1.1163 -0.2300 -0.0734
41532SOL    HW230434   1.798   2.217  11.745 -0.1804 -0.2775  0.4310
41533SOL     OW30435   1.706   5.042   1.233  0.2723 -0.4563  0.0754
41533SOL    HW130436   1.630   5.099   1.249  0.7001 -0.1052  0.9007
41533SOL    HW230437   1.777   5.083   1.282  1.1515 -0.4616 -1.1531
41534SOL     OW30438   8.420  11.220   6.284 -0.4874  0.1554 -0.1638
41534SOL    HW130439   8.354  11.204   6.217 -0.1980  0.0571 -0.4323
41534SOL    HW230440   8.371  11.225   6.366 -0.9223  0.9594 -0.4609
41535SOL     OW30441   0.737   7.758   4.839 -0.1709 -0.4753 -0.0729
41535SOL    HW130442   0.690   7.834   4.806  0.2437  0.5396  1.5703
41535SOL    HW230443   0.669   7.705   4.882 -0.3357 -0.6821 -0.5774
41536SOL     OW30444  11.038   7.131   5.916  0.4479  0.6971  0.5083
41536SOL    HW130445  11.018   7.215   5.958  0.6115  2.0249 -1.9193
41536SOL    HW230446  10.981   7.128   5.840  1.5385 -0.6958 -0.2906
41537SOL     OW30447  12.057  11.404   9.477 -0.7950  0.6442 -0.9371
41537SOL    HW130448  12.057  11.346   9.553  0.8242  0.0106 -1.3693
41537SOL    HW230449  12.080  11.347   9.403 -0.0190  1.6594 -1.5126
41538SOL     OW30450   7.397   5.370  11.766  0.0545 -0.1527 -0.4250
41538SOL    HW130451   7.462   5.437  11.786  0.3341  0.0071 -1.7527
41538SOL    HW230452   7.443   5.287  11.780 -0.1880 -0.0911  0.8840
41539SOL     OW30453   7.560   2.995  10.686 -0.7037 -0.1222  0.3164
41539SOL    HW130454   7.520   3.044  10.615 -1.2856  0.4164  1.0055
41539SOL    HW230455   7.581   3.061  10.753 -1.0231 -0.7298  1.0356
41540SOL     OW30456   1.269  10.075   6.359 -0.6659 -0.9757  0.1923
41540SOL    HW130457   1.340  10.139   6.369 -0.2553 -1.5982  1.5609
41540SOL    HW230458   1.224  10.101   6.280  0.2194  0.3058  0.0820
41541SOL     OW30459   6.458  11.905   2.510  0.0537 -0.0220 -0.7259
41541SOL    HW130460   6.444  11.975   2.446 -1.6312 -0.4546 -0.8821
41541SOL    HW230461   6.372  11.863   2.519  0.6162 -0.9589  0.6705
41542SOL     OW30462   8.277   2.571   1.960 -0.2219 -0.1391  0.0079
41542SOL    HW130463   8.306   2.573   2.051  0.0627  0.0997 -0.0849
41542SOL    HW230464   8.317   2.649   1.920 -0.0292 -0.4510 -0.4163
41543SOL     OW30465   2.612   4.337   4.002  0.3120 -0.2275 -0.1153
41543SOL    HW130466   2.691   4.322   4.053  1.0307  1.0993 -0.7614
41543SOL    HW230467   2.637   4.314   3.912 -0.2292 -0.3847 -0.2299
41544SOL     OW30468   2.875   0.679   7.551  0.0948 -0.4779  0.0170
41544SOL    HW130469   2.832   0.763   7.567  0.4048 -0.0804 -1.0794
41544SOL    HW230470   2.812   0.613   7.579 -0.5381  0.1152  0.0203
41545SOL     OW30471   8.673   1.219   5.260 -0.2854  0.0818 -0.3470
41545SOL    HW130472   8.710   1.195   5.345  2.0154  1.3683 -0.9132
41545SOL    HW230473   8.645   1.136   5.221 -1.0745 -0.5563  1.5014
41546SOL     OW30474  11.525   1.568   1.990  0.0797 -0.1186  0.0190
41546SOL    HW130475  11.583   1.558   1.915  0.5275 -0.9087  0.4622
41546SOL    HW230476  11.437   1.556   1.954  0.2816 -0.3224 -0.4097
41547SOL     OW30477  10.553   6.827  10.488 -0.3092  0.2166  0.1850
41547SOL    HW130478  10.553   6.846  10.582  1.5304 -1.2994  0.5380
41547SOL    HW230479  10.563   6.912  10.446  0.2549  0.7711  1.4087
41548SOL     OW30480   1.761  12.057   6.222  0.1945 -0.3010  0.4082
41548SOL    HW130481   1.750  12.139   6.269  1.2141  0.1321 -0.0730
41548SOL    HW230482   1.714  12.070   6.139  0.4633 -0.1604  0.2793
41549SOL     OW30483   7.037   9.459  11.311 -0.2080  0.3592  1.2460
41549SOL    HW130484   6.988   9.540  11.297  0.3058  0.5519  0.5110
41549SOL    HW230485   7.126   9.480  11.282 -0.0917 -0.4874  0.9783
41550SOL     OW30486   5.868  11.446   4.130  0.2420 -0.0625 -0.4317
41550SOL    HW130487   5.832  11.533   4.113 -1.9972 -0.8998 -0.2634
41550SOL    HW230488   5.802  11.402   4.183  1.6305 -1.6590  0.0697
41551SOL     OW30489   0.686   2.966   7.437 -0.4442  0.2090 -0.0057
41551SOL    HW130490   0.774   2.980   7.474 -0.7668 -0.1081  0.8924
41551SOL    HW230491   0.628   3.012   7.497 -0.9688 -0.2091 -0.1936
41552SOL     OW30492   8.416   4.862   4.567 -0.1824 -0.7321  0.1722
41552SOL    HW130493   8.356   4.878   4.640 -0.8774 -0.8839 -0.3566
41552SOL    HW230494   8.376   4.791   4.517 -0.5953  0.4884 -1.3010
41553SOL     OW30495   5.480   5.969   4.345 -0.2018  0.5912 -0.1270
41553SOL    HW130496   5.561   5.997   4.302  0.4068 -1.6296 -0.5749
41553SOL    HW230497   5.414   5.971   4.277 -0.0024  0.2760 -0.3327
41554SOL     OW30498   7.278   5.944   2.950 -0.4170 -0.0004  0.3665
41554SOL    HW130499   7.308   5.952   2.860 -0.7163  1.1947  0.3591
41554SOL    HW230500   7.193   5.899   2.944 -0.2710 -0.2423  0.0957
41555SOL     OW30501   9.558   1.975   4.736  0.3258  0.7850 -0.0635
41555SOL    HW130502   9.556   2.033   4.812  0.5775 -0.5331  0.9819
41555SOL    HW230503   9.639   1.999   4.690  1.6836 -0.2578  1.6379
41556SOL     OW30504   9.496   5.293   6.527  0.0373  0.7127  0.5720
41556SOL    HW130505   9.512   5.200   6.510 -0.7723  0.5714  0.5289
41556SOL    HW230506   9.506   5.302   6.622  0.1005  0.5778  0.5776
41557SOL     OW30507   6.456  10.934   0.982  0.0510 -0.2396 -0.1526
41557SOL    HW130508   6.402  11.011   0.965 -0.8867 -1.0496 -0.9918
41557SOL    HW230509   6.540  10.969   1.009 -0.5377  1.0721  0.0733
41558SOL     OW30510   0.925   6.221   0.701  0.7819  0.3080  0.3124
41558SOL    HW130511   0.874   6.271   0.765  1.9485  0.1835  1.3579
41558SOL    HW230512   0.863   6.156   0.667 -0.2024  1.1922  0.3570
41559SOL     OW30513   0.898   3.146   3.844 -0.3842 -0.6133 -0.2553
41559SOL    HW130514   0.933   3.062   3.814  0.6435 -0.8553  1.4475
41559SOL    HW230515   0.826   3.165   3.785  0.4111 -1.8744 -1.7005
41560SOL     OW30516   1.170   5.785   4.459  0.0399 -0.0907 -0.5032
41560SOL    HW130517   1.113   5.811   4.531  0.5093 -1.7379  0.5302
41560SOL    HW230518   1.120   5.804   4.380 -1.0971  0.3770  0.3121
41561SOL     OW30519  11.912   0.004   1.697 -0.5323  0.5866  0.6620
41561SOL    HW130520  11.874  -0.082   1.683  1.1087 -0.1297  0.3476
41561SOL    HW230521  11.987   0.007   1.638 -0.2801  2.0573  1.0070
41562SOL     OW30522   2.410   7.266  11.080  0.6013  0.7589  0.3612
41562SOL    HW130523   2.341   7.326  11.111 -0.6777 -0.0788 -0.7619
41562SOL    HW230524   2.473   7.263  11.152  0.3164  2.8448  0.7577
41563SOL     OW30525   1.170   7.342   5.866  0.5357 -0.3329  0.0915
41563SOL    HW130526   1.245   7.374   5.815  0.9891 -3.0398 -1.0947
41563SOL    HW230527   1.210   7.305   5.945  0.0869  1.1461  1.0582
41564SOL     OW30528   3.880   9.733   0.908  0.0217 -0.3645  0.0422
41564SOL    HW130529   3.970   9.766   0.898  0.5965 -0.7980  2.8042
41564SOL    HW230530   3.891   9.641   0.931 -1.1822 -0.5892 -0.2381
41565SOL     OW30531   1.824   2.832  10.469  0.3710 -0.1959 -0.2363
41565SOL    HW130532   1.822   2.767  10.400 -0.8235 -1.0665  0.5664
41565SOL    HW230533   1.781   2.909  10.431  1.1667 -0.0953 -0.9607
41566SOL     OW30534   4.633   2.136   2.913 -0.1299 -0.0833  0.4625
41566SOL    HW130535   4.657   2.206   2.853  0.0695  0.3599  1.0553
41566SOL    HW230536   4.687   2.061   2.886  0.0419  0.1470  0.1686
41567SOL     OW30537   0.328   4.756   9.267  0.0824 -0.3547 -0.2965
41567SOL    HW130538   0.283   4.722   9.189  0.6299  1.8886 -1.6686
41567SOL    HW230539   0.341   4.849   9.249  0.8024  0.1103  2.2385
41568SOL     OW30540  10.581   2.060   2.994  0.1161 -0.2497  0.1649
41568SOL    HW130541  10.663   2.052   3.041  1.2214  1.3554 -1.3677
41568SOL    HW230542  10.523   1.995   3.035  1.8354 -0.7963  1.8602
41569SOL     OW30543   2.745   7.737   9.782 -0.1336 -0.6028  0.3846
41569SOL    HW130544   2.733   7.831   9.797 -0.7824 -0.6123 -0.0460
41569SOL    HW230545   2.740   7.728   9.687  1.7413 -0.8340  0.2753
41570SOL     OW30546  12.179   5.943   8.378 -0.2960  0.2270 -0.0292
41570SOL    HW130547  12.244   6.006   8.345 -0.4995 -0.1471 -1.2131
41570SOL    HW230548  12.224   5.896   8.447 -0.5987  2.6682  1.9905
41571SOL     OW30549   5.424   7.033   7.785  0.1842  0.2383 -0.2178
41571SOL    HW130550   5.395   7.123   7.771  2.0719  1.2470  1.8813
41571SOL    HW230551   5.353   6.993   7.836  0.0022  0.9792  0.1173
41572SOL     OW30552   1.888   7.761   7.469 -0.7074 -0.1676 -0.0056
41572SOL    HW130553   1.864   7.733   7.380 -1.4174 -0.2401  0.2110
41572SOL    HW230554   1.814   7.813   7.499  0.1791  1.1817 -0.0378
41573SOL     OW30555  10.978   0.183   0.795 -0.4314 -0.7512 -0.7122
41573SOL    HW130556  10.997   0.149   0.882 -2.6998  0.4137  0.3106
41573SOL    HW230557  10.904   0.131   0.764 -1.5569  0.7431 -0.6514
41574SOL     OW30558   3.337  10.701   4.035  0.5176  0.1721  0.0774
41574SOL    HW130559   3.309  10.675   4.123  0.2052 -0.7799 -0.2883
41574SOL    HW230560   3.432  10.697   4.038  0.4922 -1.2517 -0.0052
41575SOL     OW30561   7.499   3.156   9.107  0.0904  0.0024 -0.2861
41575SOL    HW130562   7.444   3.229   9.081 -1.4994 -0.7994  0.6760
41575SOL    HW230563   7.583   3.172   9.063 -0.5680  1.7896 -0.9756
41576SOL     OW30564  11.373   5.884   6.716 -0.0387 -0.3523 -0.0477
41576SOL    HW130565  11.453   5.926   6.684  2.0202 -2.4310  1.8907
41576SOL    HW230566  11.342   5.831   6.643  1.6087 -1.1265 -0.2268
41577SOL     OW30567   7.017   2.092   3.170  0.9113 -0.2382 -0.1046
41577SOL    HW130568   7.109   2.087   3.143  0.5442 -0.5059 -1.4103
41577SOL    HW230569   6.970   2.107   3.088 -0.2885 -1.0413  0.4225
41578SOL     OW30570   8.412   3.075   1.400 -0.4894  0.0727  0.1109
41578SOL    HW130571   8.414   3.170   1.408 -1.7701  0.1724 -0.5200
41578SOL    HW230572   8.353   3.046   1.469  1.4784 -0.4815  1.6670
41579SOL     OW30573   2.263  10.158   3.168  0.0094 -0.0741  0.1438
41579SOL    HW130574   2.278  10.156   3.263 -0.5619 -1.5474  0.2314
41579SOL    HW230575   2.327  10.097   3.132 -0.6657 -0.5539 -0.2700
41580SOL     OW30576   9.815   5.080   1.985 -0.2920  0.1230 -0.1408
41580SOL    HW130577   9.733   5.112   2.024  0.3943  0.5964  0.9578
41580SOL    HW230578   9.786   5.017   1.918 -1.6240  2.1064 -1.5293
41581SOL     OW30579  10.539  10.593  10.249  0.4957 -0.4825 -0.1327
41581SOL    HW130580  10.529  10.676  10.204  2.7554  0.7542  1.4520
41581SOL    HW230581  10.559  10.530  10.180  0.5916  0.6652 -1.1776
41582SOL     OW30582   1.886  10.909   2.669 -0.4476  0.0047  0.0315
41582SOL    HW130583   1.860  10.827   2.627 -0.0137 -0.7396  1.1736
41582SOL    HW230584   1.902  10.969   2.596 -1.0723 -0.8188 -0.8128
41583SOL     OW30585  11.238   7.818   1.653  0.3518 -0.4261  0.0279
41583SOL    HW130586  11.283   7.899   1.630 -1.2918 -0.0979 -2.4226
41583SOL    HW230587  11.165   7.846   1.707  0.6977 -0.4696  0.5209
41584SOL     OW30588   0.912   9.856   0.904 -0.1734  0.3653 -0.4433
41584SOL    HW130589   0.951   9.865   0.991 -1.1160 -0.0255  0.0383
41584SOL    HW230590   0.928   9.940   0.861 -0.1376  0.7430  0.2927
41585SOL     OW30591  11.164   2.088  10.182  0.7046 -0.5142  0.3425
41585SOL    HW130592  11.118   2.040  10.250 -1.2503  0.0245 -0.5507
41585SOL    HW230593  11.164   2.028  10.106  1.8485 -0.6549  0.4244
41586SOL     OW30594   3.082   4.706   5.473 -0.1755  0.5039 -0.2566
41586SOL    HW130595   3.132   4.723   5.393 -0.6913 -0.3405 -0.7771
41586SOL    HW230596   3.141   4.655   5.528 -0.0790  0.4596 -0.4013
41587SOL     OW30597   3.139   1.840   9.301 -0.0488 -0.0718 -0.3217
41587SOL    HW130598   3.143   1.764   9.243  2.1089 -1.0397  0.9849
41587SOL    HW230599   3.143   1.803   9.389  2.3322  1.5786  0.3412
41588SOL     OW30600   8.547   6.947   7.015  0.0868 -0.0955  0.0645
41588SOL    HW130601   8.522   7.033   7.047  3.2670  0.5086  1.2922
41588SOL    HW230602   8.513   6.886   7.081 -0.1771  0.4373  0.4236
41589SOL     OW30603   9.642   1.742   5.053 -0.5517 -0.5123 -0.3843
41589SOL    HW130604   9.737   1.734   5.045 -0.3436  0.5914  0.6795
41589SOL    HW230605   9.610   1.652   5.055  0.4084 -0.8983 -1.3387
41590SOL     OW30606  10.094   5.067   1.443  0.0767  0.2764 -0.5638
41590SOL    HW130607  10.018   5.066   1.501 -1.8783 -0.4250 -2.9840
41590SOL    HW230608  10.116   4.974   1.431  0.8688  0.4431 -0.4562
41591SOL     OW30609   8.842   8.504  11.686  0.6060 -0.5146  0.0637
41591SOL    HW130610   8.853   8.445  11.761 -1.1228 -1.2796 -0.2400
41591SOL    HW230611   8.793   8.452  11.622 -1.3104  1.3551 -0.0796
41592SOL     OW30612   6.636  11.260   0.834 -0.6927  0.1809 -0.0969
41592SOL    HW130613   6.621  11.204   0.910  0.0378  0.1089  0.0057
41592SOL    HW230614   6.679  11.203   0.770  0.4605  0.7208  0.1749
41593SOL     OW30615   1.615   4.103   8.625 -0.1866 -0.0235 -0.3893
41593SOL    HW130616   1.525   4.118   8.596  0.1393 -0.3419 -1.6259
41593SOL    HW230617   1.669   4.139   8.555  0.6422 -0.8866 -0.2150
41594SOL     OW30618   8.514  10.486   7.523 -0.0846  0.1722  0.3380
41594SOL    HW130619   8.562  10.456   7.600  0.7466  0.6727  0.0291
41594SOL    HW230620   8.467  10.409   7.491  0.9878 -0.4740  0.2983
41595SOL     OW30621   1.836   9.099   1.459  0.1969  0.0740  1.0355
41595SOL    HW130622   1.900   9.078   1.392  1.3739 -0.1820  2.2135
41595SOL    HW230623   1.885   9.146   1.526 -0.8229 -0.2010  2.0052
41596SOL     OW30624   3.282   7.790   8.527  0.0035 -0.4994  0.4522
41596SOL    HW130625   3.336   7.712   8.541  0.0149 -0.6385 -0.3097
41596SOL    HW230626   3.201   7.756   8.490 -0.1814 -0.1899  0.5718
41597SOL     OW30627   5.848   0.868  11.189  0.0184 -0.1410  0.0770
41597SOL    HW130628   5.811   0.879  11.276 -0.4094 -0.2766 -0.0860
41597SOL    HW230629   5.844   0.773  11.173  1.0210 -0.2415  0.3104
41598SOL     OW30630   1.705   0.083   8.765 -0.0507  0.0146 -0.4819
41598SOL    HW130631   1.789   0.128   8.772  1.1272 -2.1098 -0.3276
41598SOL    HW230632   1.651   0.122   8.834  1.1737  0.6330  0.1611
41599SOL     OW30633  10.672   9.522   8.545  0.4150 -0.8028  0.4740
41599SOL    HW130634  10.700   9.603   8.588 -0.9369 -0.0393 -0.0158
41599SOL    HW230635  10.653   9.462   8.617  1.6734 -0.7852  0.8395
41600SOL     OW30636   3.402   0.178   0.092 -0.0935 -0.3143  0.1167
41600SOL    HW130637   3.356   0.152   0.012 -1.6350 -0.3505  0.9980
41600SOL    HW230638   3.427   0.096   0.133  0.7064 -0.2952 -0.2934
41601SOL     OW30639  11.817   4.673  10.543 -0.0832 -0.0108  0.3202
41601SOL    HW130640  11.825   4.757  10.588  2.0339 -0.3894  0.7711
41601SOL    HW230641  11.750   4.625  10.592 -0.6032  1.0291  0.6543
41602SOL     OW30642   5.741   9.450   8.515 -0.2655 -0.0720  0.5301
41602SOL    HW130643   5.734   9.545   8.502 -0.7863 -0.1188  0.4668
41602SOL    HW230644   5.721   9.412   8.429  1.4066 -0.1983  0.1562
41603SOL     OW30645   6.532  11.136   3.925  0.1615  0.8760  0.8846
41603SOL    HW130646   6.471  11.202   3.958  0.9244  1.0568  1.9530
41603SOL    HW230647   6.585  11.184   3.860 -1.0391  0.6288 -0.3241
41604SOL     OW30648   4.371   0.886  10.233 -0.2703  0.0755 -0.3084
41604SOL    HW130649   4.371   0.790  10.232  1.6727 -0.0070  0.8144
41604SOL    HW230650   4.298   0.909  10.290 -0.5309 -0.7718 -0.2772
41605SOL     OW30651  11.372   5.785   4.083  0.0621 -0.0303 -0.0765
41605SOL    HW130652  11.359   5.736   4.002  1.0239  0.1965 -0.3786
41605SOL    HW230653  11.372   5.718   4.152  0.3893 -0.3545 -0.3864
41606SOL     OW30654   6.076   1.901   5.277  0.1426  0.1663  0.4780
41606SOL    HW130655   5.991   1.939   5.299  0.4689  1.2895 -0.1006
41606SOL    HW230656   6.057   1.810   5.253 -0.6812 -0.0300  1.8233
41607SOL     OW30657   4.390  10.702  11.734 -0.3207  0.0587  0.2421
41607SOL    HW130658   4.403  10.614  11.769  1.1151  0.0605 -0.2163
41607SOL    HW230659   4.411  10.760  11.807  1.4971  0.0379 -0.2033
41608SOL     OW30660  10.161   3.832  10.126  0.2795 -0.0229 -0.4854
41608SOL    HW130661  10.142   3.751  10.078 -1.2014 -0.2334  0.4110
41608SOL    HW230662  10.185   3.802  10.214 -1.9374  0.5392  0.3637
41609SOL     OW30663   2.239   3.352   5.805 -0.5114 -0.0532  0.0110
41609SOL    HW130664   2.209   3.288   5.869  1.3893 -0.7648  0.2380
41609SOL    HW230665   2.324   3.320   5.776 -0.2459  1.5201 -1.0946
41610SOL     OW30666  10.118   1.503   5.073 -0.3712  0.1820  0.4503
41610SOL    HW130667  10.208   1.523   5.047 -0.4027 -1.3566 -0.9615
41610SOL    HW230668  10.068   1.580   5.047  0.1356 -0.0046 -1.1518
41611SOL     OW30669   0.914   3.513   9.839  0.1196  0.1066  0.6159
41611SOL    HW130670   0.979   3.499   9.909  1.1559 -0.1201 -0.3604
41611SOL    HW230671   0.966   3.526   9.760 -0.9983 -2.7540 -0.7296
41612SOL     OW30672   5.157   1.753  11.556  0.0570  0.5381  0.4609
41612SOL    HW130673   5.160   1.793  11.469  0.0792 -0.8315 -0.1943
41612SOL    HW230674   5.236   1.785  11.599 -1.6149  3.9917  1.3114
41613SOL     OW30675   2.495  11.525  10.437 -0.2467 -1.0243 -0.0447
41613SOL    HW130676   2.512  11.501  10.528 -1.0525  0.7812  0.6136
41613SOL    HW230677   2.579  11.555  10.404 -0.4042  0.4024  0.7961
41614SOL     OW30678  10.336   9.041   5.052  0.5186 -0.5346  0.2205
41614SOL    HW130679  10.415   9.030   5.105  0.1983 -2.3699  0.3513
41614SOL    HW230680  10.274   9.084   5.111  1.0793  0.0006  0.4322
41615SOL     OW30681   4.059   9.690   3.642 -0.4549 -0.6288  0.6502
41615SOL    HW130682   4.098   9.637   3.573 -0.1222 -0.2648  0.5553
41615SOL    HW230683   4.133   9.714   3.698 -0.4855  0.3272  0.2984
41616SOL     OW30684   2.511   9.313   5.534  0.1496 -0.1457 -0.6069
41616SOL    HW130685   2.591   9.356   5.505  0.3623 -0.5637 -0.6494
41616SOL    HW230686   2.467   9.378   5.589  0.7766 -0.0960 -0.1510
41617SOL     OW30687   4.492   2.242   9.801 -0.4988 -0.1765 -0.0134
41617SOL    HW130688   4.576   2.201   9.781  0.6442  2.3562 -0.8744
41617SOL    HW230689   4.489   2.243   9.897 -0.6009 -2.2239  0.0324
41618SOL     OW30690   5.815   4.121  10.428 -0.0367  0.2107 -0.4352
41618SOL    HW130691   5.782   4.043  10.474 -0.0945  0.2241 -0.4542
41618SOL    HW230692   5.910   4.110  10.427 -0.0058  0.4050  0.0396
41619SOL     OW30693  11.316   5.634  11.318 -0.4618 -0.2698  0.2815
41619SOL    HW130694  11.237   5.626  11.372 -0.9208  2.1908  0.0817
41619SOL    HW230695  11.283   5.643  11.229 -0.0064  1.0624  0.2248
41620SOL     OW30696   6.767   3.642   0.356 -0.4124 -0.1990 -0.2230
41620SOL    HW130697   6.812   3.641   0.271 -0.0994 -3.2943 -0.1135
41620SOL    HW230698   6.730   3.730   0.362  0.7159  0.5665 -2.9319
41621SOL     OW30699   1.485  12.172   4.458 -0.0849  0.0126  0.0272
41621SOL    HW130700   1.462  12.221   4.537 -1.0982 -2.7277  1.5526
41621SOL    HW230701   1.578  12.152   4.468  0.4483  1.7932 -0.8063
41622SOL     OW30702  12.049   5.469   6.406  0.1791 -0.1259  0.5428
41622SOL    HW130703  12.023   5.514   6.326 -0.5817 -2.1486 -0.4349
41622SOL    HW230704  12.097   5.534   6.456  0.2561  1.3525 -1.3379
41623SOL     OW30705   1.851   4.359   2.633 -0.2924  0.1687  0.5859
41623SOL    HW130706   1.940   4.390   2.620  0.0042 -1.1318 -0.7101
41623SOL    HW230707   1.795   4.432   2.607  0.3917  0.2614 -0.6706
41624SOL     OW30708   5.338   0.525   7.518 -0.7145 -0.2756 -0.2262
41624SOL    HW130709   5.390   0.566   7.587  0.0489  1.1433 -1.5888
41624SOL    HW230710   5.331   0.434   7.545  1.5248 -0.2663  0.5699
41625SOL     OW30711   1.538   5.911   5.321  0.0074 -0.1436  0.1770
41625SOL    HW130712   1.614   5.870   5.280  0.5818  2.2905 -1.4079
41625SOL    HW230713   1.463   5.879   5.272  0.1381 -1.2959  0.6964
41626SOL     OW30714   9.933   8.779   1.929  0.0279  0.5954 -0.0415
41626SOL    HW130715   9.978   8.709   1.883 -0.4041 -0.0590  0.5063
41626SOL    HW230716   9.869   8.812   1.866 -0.2023  0.0607 -0.0933
41627SOL     OW30717   0.518   6.104  11.939  0.1980  0.1737  0.4565
41627SOL    HW130718   0.422   6.105  11.940  0.1519  0.6983 -1.0029
41627SOL    HW230719   0.543   6.165  12.008 -0.5468  0.7463  0.2389
41628SOL     OW30720   7.156   8.107   1.331  0.2589 -0.3291  0.3695
41628SOL    HW130721   7.198   8.134   1.413  0.8032 -3.1483  1.1305
41628SOL    HW230722   7.086   8.048   1.359  0.2326 -1.0635 -1.1835
41629SOL     OW30723   9.000   0.129  11.157 -0.1902 -0.2673 -0.2051
41629SOL    HW130724   9.027   0.082  11.236  1.8926  0.1956 -0.5668
41629SOL    HW230725   9.012   0.222  11.179 -1.4998 -0.0339 -0.4294
41630SOL     OW30726  12.172   1.170   6.563 -0.1509  0.1212 -0.4733
41630SOL    HW130727  12.192   1.113   6.638  0.5387 -0.4163 -1.0518
41630SOL    HW230728  12.080   1.151   6.543 -0.2305 -0.0111 -0.0031
41631SOL     OW30729   6.882   3.927   9.159 -0.9333 -0.1537 -0.0891
41631SOL    HW130730   6.944   3.928   9.232 -1.8978  1.1841  0.7704
41631SOL    HW230731   6.832   3.846   9.171 -1.1059  0.0726  0.7821
41632SOL     OW30732   7.816   5.135   1.739  0.1621 -0.4031 -0.8495
41632SOL    HW130733   7.853   5.150   1.826  0.2265  2.6271 -1.2887
41632SOL    HW230734   7.813   5.040   1.731 -1.1017 -0.8908  2.9657
41633SOL     OW30735   9.982   0.841  11.021 -0.3074 -0.6805  0.0657
41633SOL    HW130736   9.922   0.774  11.054 -1.5247  0.7017  0.7222
41633SOL    HW230737   9.955   0.921  11.065  0.2430  0.5343 -1.7403
41634SOL     OW30738   1.745  10.872   6.297  0.4072  0.4945 -0.3673
41634SOL    HW130739   1.806  10.808   6.335 -0.0770  0.1399 -0.1692
41634SOL    HW230740   1.685  10.893   6.369 -1.5434 -1.4172 -1.2952
41635SOL     OW30741   8.906   8.616   8.347  0.3262  0.1028  0.1679
41635SOL    HW130742   8.852   8.695   8.347  2.9599  2.0288  1.1333
41635SOL    HW230743   8.896   8.580   8.436 -0.0824 -0.0978  0.0444
41636SOL     OW30744   4.948   2.189   3.233  0.0166  0.1770  0.0560
41636SOL    HW130745   4.860   2.153   3.217  0.5162 -1.1718  0.2367
41636SOL    HW230746   4.946   2.217   3.324 -0.3260  0.4721 -0.0379
41637SOL     OW30747   0.448   5.649   8.810 -0.2452  0.5435  0.2569
41637SOL    HW130748   0.509   5.686   8.747  1.4705 -1.3988  0.6792
41637SOL    HW230749   0.437   5.717   8.876 -0.2406  1.7157 -0.9153
41638SOL     OW30750   1.224   2.086  11.206  0.0304  0.0185  0.0129
41638SOL    HW130751   1.142   2.051  11.242 -0.1372  0.3019 -0.0875
41638SOL    HW230752   1.248   2.022  11.138  0.2407 -0.4082  0.4826
41639SOL     OW30753   4.276   0.882   2.263 -0.1619  0.0828  0.1014
41639SOL    HW130754   4.291   0.815   2.330 -2.1331 -0.9298 -0.3880
41639SOL    HW230755   4.360   0.890   2.218  1.2260  0.7948  2.6354
41640SOL     OW30756  10.943   2.419   5.523 -0.4488 -0.3220  0.5136
41640SOL    HW130757  11.013   2.483   5.520 -1.0868  0.4202  0.9680
41640SOL    HW230758  10.974   2.346   5.470  0.4573  0.1924  0.3240
41641SOL     OW30759   6.436   2.608   1.000  0.2654 -0.0616 -0.0718
41641SOL    HW130760   6.377   2.552   1.050  0.7447  1.2580  2.0842
41641SOL    HW230761   6.519   2.604   1.047  0.9472  0.7177 -1.1583
41642SOL     OW30762   1.370   2.942   8.069 -0.2550  0.5015  0.0532
41642SOL    HW130763   1.376   2.961   8.162  2.8845 -0.0181  0.0496
41642SOL    HW230764   1.429   3.005   8.028 -1.5759  0.7195 -1.6327
41643SOL     OW30765   2.188  11.912   5.378 -0.1656  0.0308 -0.6390
41643SOL    HW130766   2.094  11.922   5.362  0.1634  0.9398 -2.2458
41643SOL    HW230767   2.213  11.990   5.427 -0.1386  0.0918 -0.7506
41644SOL     OW30768   6.080   5.960   3.470 -0.1622  0.0289 -0.2169
41644SOL    HW130769   6.076   6.011   3.551 -0.8654  1.7437 -1.2817
41644SOL    HW230770   6.164   5.915   3.475  0.8299  1.8513  0.4748
41645SOL     OW30771   2.340   9.247  11.899 -0.4422  0.5544  0.0806
41645SOL    HW130772   2.279   9.197  11.845  0.7683  0.1018 -0.9088
41645SOL    HW230773   2.398   9.181  11.937  0.0181  1.0493  0.2548
41646SOL     OW30774   6.089   6.279   1.900  0.4745  0.9493  0.4437
41646SOL    HW130775   6.166   6.327   1.932  2.0873  0.7517 -2.6829
41646SOL    HW230776   6.120   6.236   1.820 -2.5000 -0.5256 -0.0513
41647SOL     OW30777  10.679   7.174   5.944 -0.4520 -0.2043  0.1645
41647SOL    HW130778  10.703   7.196   6.034  0.1866  2.2614 -0.5165
41647SOL    HW230779  10.586   7.152   5.948 -0.7233  1.0415  1.2836
41648SOL     OW30780   9.368   9.279   5.089 -0.0134  0.4155  0.2990
41648SOL    HW130781   9.386   9.200   5.038 -1.6204 -0.2089  0.6762
41648SOL    HW230782   9.283   9.264   5.128  0.0903  1.9439  1.1696
41649SOL     OW30783   4.180  10.352   3.958  0.1788  0.2248 -0.0205
41649SOL    HW130784   4.210  10.413   3.890  2.0067 -0.7137 -0.1242
41649SOL    HW230785   4.241  10.366   4.031 -1.6801  1.1257  1.4385
41650SOL     OW30786   3.612   3.310  10.245  0.7835  0.0587 -0.1202
41650SOL    HW130787   3.631   3.402  10.231 -0.9354  0.6492  1.1047
41650SOL    HW230788   3.614   3.298  10.340 -0.9347 -0.6837 -0.1377
41651SOL     OW30789  10.417  11.975   6.299 -0.1229 -0.0024  0.3316
41651SOL    HW130790  10.365  11.903   6.262 -2.0825  0.8666  1.2473
41651SOL    HW230791  10.430  12.035   6.225  1.4530 -1.1891 -0.4178
41652SOL     OW30792   0.603   5.706   0.711  0.4032  0.1743  0.3728
41652SOL    HW130793   0.695   5.721   0.731  0.0710 -0.2510  2.4356
41652SOL    HW230794   0.585   5.620   0.747 -0.4246 -0.4816 -1.4961
41653SOL     OW30795   6.157   0.092   9.953  0.0380  0.0272  0.3090
41653SOL    HW130796   6.244   0.108   9.988 -0.1117 -0.6109  1.0007
41653SOL    HW230797   6.141   0.165   9.894  0.3047  1.1759  1.5944
41654SOL     OW30798   5.318   3.637   9.627  0.1434  0.3135  0.3514
41654SOL    HW130799   5.386   3.595   9.574 -0.1189 -2.7053  2.1510
41654SOL    HW230800   5.363   3.665   9.707 -0.3531  0.0293  0.7430
41655SOL     OW30801  10.612   3.791   1.662 -0.3129 -0.5275 -0.0914
41655SOL    HW130802  10.659   3.746   1.732 -1.4030 -1.0104  0.3553
41655SOL    HW230803  10.595   3.724   1.596 -1.6656 -0.7417  0.4354
41656SOL     OW30804   0.518   7.767   5.357 -0.2123 -0.5036  0.4066
41656SOL    HW130805   0.543   7.697   5.298 -0.0437 -0.8103  0.8351
41656SOL    HW230806   0.470   7.829   5.302  0.2005 -0.6348 -0.1096
41657SOL     OW30807   9.761  11.619   8.139 -0.0360 -0.2692 -0.3945
41657SOL    HW130808   9.773  11.527   8.113 -1.9123 -0.5370 -0.4873
41657SOL    HW230809   9.711  11.658   8.067 -0.9929  0.2820  0.5358
41658SOL     OW30810   4.705   9.081   9.720  0.0064  0.0535 -0.1741
41658SOL    HW130811   4.616   9.115   9.711  0.2026  0.6446  0.0450
41658SOL    HW230812   4.711   9.051   9.810 -0.2093 -0.7009 -0.4054
41659SOL     OW30813   0.517  12.255   9.755 -0.0735  0.5780  0.2872
41659SOL    HW130814   0.578  12.247   9.681  0.9009 -0.3573  1.1688
41659SOL    HW230815   0.431  12.248   9.715  0.4346  0.1591 -0.7748
41660SOL     OW30816   8.164   7.249   8.110 -0.5557  0.2155  0.4825
41660SOL    HW130817   8.161   7.156   8.133 -0.8626  0.1676  0.2484
41660SOL    HW230818   8.082   7.265   8.065  0.2234  0.2070 -1.0072
41661SOL     OW30819  10.480   2.643  10.821 -0.0949  0.1389 -0.5662
41661SOL    HW130820  10.504   2.658  10.729 -2.0193 -0.9275 -1.3038
41661SOL    HW230821  10.561   2.616  10.862  0.5864 -0.5570 -2.2541
41662SOL     OW30822   5.266   3.223  10.072  0.1155  0.3961  0.2921
41662SOL    HW130823   5.203   3.287  10.103 -0.9806 -1.2994  1.7454
41662SOL    HW230824   5.299   3.181  10.151 -0.1867 -1.7248 -0.6405
41663SOL     OW30825  11.972   1.486   2.377  0.3557 -0.3167 -0.2299
41663SOL    HW130826  11.988   1.392   2.367  1.8132  0.1304 -3.0165
41663SOL    HW230827  11.897   1.503   2.319  1.1500  0.4640 -1.0581
41664SOL     OW30828   1.470   4.443   5.543 -0.6209 -0.0147 -0.5606
41664SOL    HW130829   1.396   4.384   5.557 -1.6901  0.8799 -2.1655
41664SOL    HW230830   1.547   4.387   5.555 -1.3692 -0.4505  3.6229
41665SOL     OW30831   9.542   1.042   1.442 -0.2121  0.2668  0.0478
41665SOL    HW130832   9.554   0.973   1.507 -3.2306 -0.1936  0.2658
41665SOL    HW230833   9.571   1.122   1.486  1.6558 -0.5758  0.4202
41666SOL     OW30834   7.273   7.540   3.360 -0.0143 -0.7964  0.2009
41666SOL    HW130835   7.363   7.530   3.390 -0.2515 -1.3771  0.7439
41666SOL    HW230836   7.221   7.492   3.425 -0.6279 -1.2431 -0.6010
41667SOL     OW30837  12.233   5.594  12.096  0.3209  0.5356 -0.1906
41667SOL    HW130838  12.192   5.627  12.016  1.1454 -0.3122 -1.0022
41667SOL    HW230839  12.192   5.642  12.167 -1.7346  0.0284 -0.9820
41668SOL     OW30840   4.642  10.212   7.015  0.0629 -0.7920  0.0428
41668SOL    HW130841   4.689  10.246   6.939 -1.0888  0.4218 -0.1544
41668SOL    HW230842   4.657  10.277   7.083  0.4287 -1.4816  0.6333
41669SOL     OW30843  10.397   5.951   0.486 -0.2212  0.1687  0.0569
41669SOL    HW130844  10.405   5.857   0.505  0.3169  0.6365  2.5168
41669SOL    HW230845  10.389   5.956   0.391 -0.3725 -2.3695 -0.1271
41670SOL     OW30846   8.521   2.957   2.970 -0.0933  0.2039 -0.5922
41670SOL    HW130847   8.529   2.890   3.037  0.3804  0.3329 -0.5143
41670SOL    HW230848   8.437   2.939   2.928 -1.2790  1.2155  1.2060
41671SOL     OW30849   7.736   6.936   1.544 -0.0579  0.2801 -0.0137
41671SOL    HW130850   7.797   6.942   1.470 -0.1881  0.2893 -0.1206
41671SOL    HW230851   7.652   6.964   1.509 -0.2022 -0.0782  0.0380
41672SOL     OW30852   3.545   9.559   2.021  0.2572 -0.4206  0.3321
41672SOL    HW130853   3.559   9.638   2.073  0.2341 -0.1805 -0.0289
41672SOL    HW230854   3.464   9.575   1.973  0.8758 -0.1735 -0.6510
41673SOL     OW30855   7.664   9.895   8.920  0.2208 -1.0453 -0.2828
41673SOL    HW130856   7.735   9.859   8.973 -0.5633 -0.7251  1.0475
41673SOL    HW230857   7.696   9.980   8.890  0.7959 -1.3709 -0.6152
41674SOL     OW30858   5.141   0.164   4.140 -0.3421 -0.5088  0.9267
41674SOL    HW130859   5.141   0.069   4.133 -0.5375 -0.4200 -0.5735
41674SOL    HW230860   5.154   0.195   4.050 -2.0876  0.8936  1.0963
41675SOL     OW30861   7.742   9.821  10.521 -0.1538 -0.5187 -0.1001
41675SOL    HW130862   7.777   9.863  10.442  2.8958 -0.2976  1.2207
41675SOL    HW230863   7.812   9.763  10.550 -1.0344 -0.3687  2.5807
41676SOL     OW30864  11.153   6.490   4.222  0.6640  0.7891 -0.5923
41676SOL    HW130865  11.081   6.444   4.264  1.4032 -2.3666 -2.4670
41676SOL    HW230866  11.195   6.539   4.292 -0.5199 -1.0153  1.4918
41677SOL     OW30867   7.219   1.675   7.746  0.4017 -0.0779 -0.4175
41677SOL    HW130868   7.169   1.616   7.803  1.0581 -0.7915 -0.5670
41677SOL    HW230869   7.176   1.668   7.661 -1.0741  1.5834  0.1100
41678SOL     OW30870   9.001   7.633   9.804 -0.2925 -0.0087 -0.2877
41678SOL    HW130871   8.909   7.660   9.803 -0.8027 -1.6388 -1.5803
41678SOL    HW230872   8.998   7.537   9.795  1.5714  0.0444 -2.1396
41679SOL     OW30873   0.171   8.992   9.328  0.2359  0.4684 -0.6051
41679SOL    HW130874   0.155   9.027   9.416 -0.1348 -0.4862 -0.2714
41679SOL    HW230875   0.156   9.066   9.270 -2.2895  0.4910 -0.0692
41680SOL     OW30876   1.171   2.498  12.158 -0.6136  0.4248  0.1602
41680SOL    HW130877   1.240   2.436  12.182 -0.4697  0.0872 -1.0551
41680SOL    HW230878   1.108   2.493  12.231  0.0107 -0.2183  0.6708
41681SOL     OW30879   0.705   9.092   8.405  0.2622 -0.6080 -0.0713
41681SOL    HW130880   0.629   9.147   8.390  0.4689 -0.8674 -2.5790
41681SOL    HW230881   0.777   9.154   8.418  0.0528 -0.3254 -0.2414
41682SOL     OW30882  10.427   4.269   1.211 -0.1523 -0.3329 -0.3929
41682SOL    HW130883  10.513   4.270   1.253  0.5056 -1.4727 -1.6429
41682SOL    HW230884  10.402   4.361   1.207 -0.4648 -0.1539  2.7927
41683SOL     OW30885   1.263   7.204   2.488  0.7118 -0.5757 -0.2978
41683SOL    HW130886   1.255   7.109   2.477 -1.2118 -0.4651 -0.1860
41683SOL    HW230887   1.219   7.223   2.570  0.9762  0.4432 -0.3756
41684SOL     OW30888   8.465  11.824  10.468  1.0112 -0.2655  0.4542
41684SOL    HW130889   8.484  11.831  10.374 -0.7406  0.7335  0.1162
41684SOL    HW230890   8.435  11.912  10.492  1.2339 -0.5727  1.9105
41685SOL     OW30891   6.066   9.170  10.739 -0.1104 -0.2472  0.5760
41685SOL    HW130892   6.077   9.138  10.829 -2.6617 -0.3719  0.9206
41685SOL    HW230893   6.081   9.264  10.745  0.1970 -0.3207  1.0279
41686SOL     OW30894  10.603   6.604   6.004 -0.2610 -0.2799 -0.3283
41686SOL    HW130895  10.651   6.539   5.952 -1.4571 -0.1186 -1.6673
41686SOL    HW230896  10.518   6.562   6.022 -1.0216  0.8644 -1.1489
41687SOL     OW30897   8.489   3.154   0.388  0.4149 -0.1772  0.5299
41687SOL    HW130898   8.459   3.077   0.436  1.7647  0.5284  2.6360
41687SOL    HW230899   8.585   3.146   0.387  0.4879  0.4994 -0.9667
41688SOL     OW30900  10.826   7.730   1.046 -0.2842 -0.2616  0.1325
41688SOL    HW130901  10.859   7.700   0.961 -0.8694  0.9119 -0.5361
41688SOL    HW230902  10.816   7.650   1.097  0.6376 -0.9349 -0.6972
41689SOL     OW30903   9.411   3.551   3.436 -0.2230 -0.4196 -0.7313
41689SOL    HW130904   9.449   3.473   3.395  0.1485 -0.2277 -0.7616
41689SOL    HW230905   9.361   3.518   3.510  0.3274 -0.6499 -0.4576
41690SOL     OW30906   0.649   4.083   5.198 -0.0173 -0.2457 -0.4199
41690SOL    HW130907   0.560   4.105   5.225  0.7439  3.2857 -0.1722
41690SOL    HW230908   0.639   4.010   5.137 -2.9564 -0.5231  0.2341
41691SOL     OW30909   2.258   3.303   3.595 -0.2858 -0.2451 -0.5106
41691SOL    HW130910   2.346   3.264   3.600 -0.5464 -0.9320 -1.0654
41691SOL    HW230911   2.265   3.365   3.523 -0.0271  0.3290  0.0010
41692SOL     OW30912   3.228   4.549   7.247 -0.0514 -0.5157  0.1101
41692SOL    HW130913   3.180   4.631   7.251 -1.0483 -1.0770 -0.0024
41692SOL    HW230914   3.318   4.573   7.269 -0.2521  0.6546 -0.2846
41693SOL     OW30915  11.696   9.513   9.525 -0.0570 -0.5666 -0.4522
41693SOL    HW130916  11.749   9.589   9.547 -0.8804 -0.8782  3.4109
41693SOL    HW230917  11.624   9.548   9.473  0.4888  1.0062 -0.2092
41694SOL     OW30918   4.258   0.456   1.112 -0.1041 -0.4020 -0.3038
41694SOL    HW130919   4.328   0.466   1.177 -0.9253 -1.5701  0.8086
41694SOL    HW230920   4.240   0.545   1.083 -0.4569  0.3234  1.8952
41695SOL     OW30921  10.005  11.270   2.581 -0.0047  0.5832 -0.1379
41695SOL    HW130922  10.017  11.225   2.498  0.8956 -0.8627  0.7193
41695SOL    HW230923  10.049  11.214   2.645 -0.3913  1.8106  1.2683
41696SOL     OW30924   6.612  11.530   2.550  0.9515  0.1246 -0.1265
41696SOL    HW130925   6.701  11.534   2.584  0.9949 -0.8153 -0.0996
41696SOL    HW230926   6.560  11.495   2.622  0.5384  0.7769 -0.1024
41697SOL     OW30927   3.951   7.307   5.017  0.0194  0.4239  0.0533
41697SOL    HW130928   3.980   7.216   5.017  0.9533  0.6858 -1.1905
41697SOL    HW230929   3.866   7.306   5.061 -0.8170 -1.3371 -1.4509
41698SOL     OW30930  11.930   2.219  10.098  0.1077 -0.0076 -0.3908
41698SOL    HW130931  11.877   2.151  10.056 -0.7110  0.0313  0.5602
41698SOL    HW230932  11.976   2.262  10.025 -1.3920  0.1599 -1.2637
41699SOL     OW30933   2.633   2.687   4.215  0.0715 -0.2986  0.2760
41699SOL    HW130934   2.545   2.725   4.208  1.1585  2.3949 -0.2247
41699SOL    HW230935   2.627   2.603   4.169 -1.9402  0.3761 -0.8120
41700SOL     OW30936   4.992   6.480   1.642 -0.4719 -0.1703 -0.3358
41700SOL    HW130937   5.022   6.452   1.556  0.3099 -0.2487 -0.0522
41700SOL    HW230938   4.962   6.570   1.630 -0.8809 -0.3656 -0.7968
41701SOL     OW30939   9.296   5.234   0.621  0.1047  0.1626 -0.5713
41701SOL    HW130940   9.262   5.214   0.709  0.8968 -1.0265 -0.5086
41701SOL    HW230941   9.266   5.323   0.604  0.4914  0.6875  1.1960
41702SOL     OW30942   4.617   2.311   1.717 -0.2648 -0.1083 -0.7640
41702SOL    HW130943   4.570   2.234   1.684  0.7130 -0.4523 -1.4092
41702SOL    HW230944   4.700   2.276   1.749  0.8777  0.8324 -2.5241
41703SOL     OW30945   2.959   8.679   8.265  0.1447 -0.1699 -0.0346
41703SOL    HW130946   2.934   8.587   8.256  0.8664 -0.5643  1.7209
41703SOL    HW230947   2.897   8.726   8.209 -1.0383 -1.6011  0.0269
41704SOL     OW30948   0.564   4.659  11.454 -0.3610 -0.2375  1.1729
41704SOL    HW130949   0.570   4.570  11.489 -1.7420 -1.9199 -2.3466
41704SOL    HW230950   0.527   4.647  11.366  0.0676  3.7925  0.2712
41705SOL     OW30951   8.809  11.895   6.939 -0.1410  0.3405 -0.0515
41705SOL    HW130952   8.799  11.948   6.859  0.8407  0.2138 -0.2751
41705SOL    HW230953   8.904  11.886   6.949 -0.2787 -1.7957 -0.2902
41706SOL     OW30954   4.313   0.838   4.996  0.3200  0.6332  0.4724
41706SOL    HW130955   4.235   0.785   4.985 -0.6928  1.7218  1.9491
41706SOL    HW230956   4.356   0.803   5.075  0.9075  0.5454  0.1243
41707SOL     OW30957  10.897   0.896   0.147 -0.8665  0.4182 -0.1625
41707SOL    HW130958  10.970   0.857   0.099  0.0416  2.0916 -0.2247
41707SOL    HW230959  10.842   0.935   0.079 -0.5948  1.1258  0.0136
41708SOL     OW30960   6.536  10.886   7.087  0.4445 -0.4040 -0.0690
41708SOL    HW130961   6.527  10.841   7.171  0.3281 -1.5127 -0.6488
41708SOL    HW230962   6.563  10.817   7.026 -1.3283 -0.0420 -1.3440
41709SOL     OW30963   8.807  12.005   7.399  0.1837  0.0462  0.9079
41709SOL    HW130964   8.788  12.027   7.490  0.3909 -0.9985  1.2134
41709SOL    HW230965   8.793  11.910   7.394 -0.1279  0.1404 -0.2225
41710SOL     OW30966   3.365   4.154   0.391 -0.4111  0.1795  0.3119
41710SOL    HW130967   3.276   4.188   0.399 -0.8784 -0.2959 -2.0111
41710SOL    HW230968   3.356   4.060   0.401  0.0879  0.2400  1.5175
41711SOL     OW30969  12.187   2.114   5.897  0.0293  1.0681  0.2792
41711SOL    HW130970  12.263   2.172   5.905  0.7042  0.0429  1.7815
41711SOL    HW230971  12.225   2.028   5.877 -0.7431  0.5708  0.9225
41712SOL     OW30972   4.366   7.006   2.552  0.1368 -0.3195  0.3692
41712SOL    HW130973   4.366   6.936   2.617  0.6274  0.6606  1.4667
41712SOL    HW230974   4.295   7.065   2.579  1.1692  0.7688  0.8109
41713SOL     OW30975   2.054   0.776   2.638 -0.2603  0.7686 -0.0163
41713SOL    HW130976   2.111   0.788   2.562  0.7046  0.7982  0.6936
41713SOL    HW230977   2.035   0.682   2.639 -1.2745  0.9408 -0.9750
41714SOL     OW30978   4.944   9.279   6.114  0.1753  0.0562  0.0695
41714SOL    HW130979   5.007   9.301   6.046  0.1539  0.1267  0.0722
41714SOL    HW230980   4.906   9.195   6.087  1.8147 -1.1002  1.1414
41715SOL     OW30981   9.136   2.801   8.115  0.7675 -0.9166 -0.8621
41715SOL    HW130982   9.197   2.789   8.042  0.5963  1.2719 -1.4267
41715SOL    HW230983   9.152   2.890   8.146  0.1959 -1.4818  1.2055
41716SOL     OW30984   8.804   7.970   5.219 -0.3150 -0.6528  0.7578
41716SOL    HW130985   8.763   7.899   5.269  0.3567  0.1469  2.5365
41716SOL    HW230986   8.730   8.019   5.183 -0.9960  0.1278  2.9941
41717SOL     OW30987  10.833  10.566   2.516  0.5242 -0.1517  0.2513
41717SOL    HW130988  10.910  10.555   2.572  0.1468 -1.3185  0.5650
41717SOL    HW230989  10.813  10.660   2.521  1.6239  0.0769  0.5573
41718SOL     OW30990   2.609   7.022   0.871 -0.2179 -0.5316 -0.2326
41718SOL    HW130991   2.592   7.110   0.906  0.0688  0.2912 -2.0313
41718SOL    HW230992   2.705   7.019   0.862 -0.3309 -0.3608 -1.7240
41719SOL     OW30993   1.098   5.727   6.626  0.3478 -1.0489  0.0612
41719SOL    HW130994   1.083   5.763   6.714 -3.9618 -0.2632 -0.7536
41719SOL    HW230995   1.147   5.795   6.580 -0.4632  0.1459  0.9010
41720SOL     OW30996   0.581   2.309   8.070 -0.0487 -0.7034 -0.2689
41720SOL    HW130997   0.618   2.297   7.983 -1.7462 -0.5482 -1.0687
41720SOL    HW230998   0.589   2.224   8.112  3.1913 -0.1305  0.4844
41721SOL     OW30999   4.260  10.503   4.373  0.2540  0.1263  0.3411
41721SOL    HW131000   4.295  10.484   4.286 -0.6491 -1.1375  0.2227
41721SOL    HW231001   4.257  10.599   4.377  1.8358  0.2336 -0.3738
41722SOL     OW31002   7.325  10.067   3.113 -0.4448  0.2289  0.2476
41722SOL    HW131003   7.368   9.993   3.155  0.9708 -0.1228 -1.7093
41722SOL    HW231004   7.321  10.134   3.181  0.5294 -0.7756  1.3292
41723SOL     OW31005   6.843   8.915  11.810 -0.5096 -0.5525 -0.2150
41723SOL    HW131006   6.827   9.000  11.768 -0.1732 -0.5656 -0.3780
41723SOL    HW231007   6.757   8.884  11.836 -0.5970  0.0096  0.1719
41724SOL     OW31008   4.906  11.796   1.407 -0.5488  0.3509  0.3083
41724SOL    HW131009   4.900  11.885   1.372  0.1869  0.8080  1.2886
41724SOL    HW231010   4.984  11.760   1.366 -0.7853  0.1878 -0.0046
41725SOL     OW31011   0.153   3.904   4.490 -0.1417 -0.1901  0.2301
41725SOL    HW131012   0.212   3.853   4.435 -1.1451 -0.1980 -0.8831
41725SOL    HW231013   0.186   3.892   4.579  1.8365  0.2425 -0.3995
41726SOL     OW31014   8.192   1.516   8.968 -0.0975 -0.2668  0.7628
41726SOL    HW131015   8.253   1.481   8.904  0.3573  0.2376  0.9195
41726SOL    HW231016   8.232   1.597   9.000 -2.6486  2.4375 -2.1680
41727SOL     OW31017   5.205  11.447  11.066  0.1327 -0.1235 -0.4655
41727SOL    HW131018   5.290  11.418  11.033  0.0019 -1.0612 -0.0170
41727SOL    HW231019   5.171  11.505  10.998  0.6111 -0.6936 -1.2022
41728SOL     OW31020   1.285  11.873   8.273 -0.7744  0.1505 -0.7127
41728SOL    HW131021   1.348  11.926   8.223 -0.2246 -0.4111 -0.6324
41728SOL    HW231022   1.332  11.791   8.291  0.4923  1.6409  3.9684
41729SOL     OW31023  11.788   7.276   1.617  0.6584 -0.0862  0.6104
41729SOL    HW131024  11.789   7.185   1.646  1.5819  0.4232  2.3923
41729SOL    HW231025  11.702   7.308   1.642  0.7159 -0.2060  0.9775
41730SOL     OW31026  12.325   1.629   8.373  0.5930 -0.4150 -0.0724
41730SOL    HW131027  12.250   1.573   8.355 -0.5529 -0.8624  4.6905
41730SOL    HW231028  12.394   1.568   8.398  1.9006  0.1137 -2.1524
41731SOL     OW31029  10.487   6.855   4.180  0.0272 -0.2431 -0.6139
41731SOL    HW131030  10.573   6.837   4.218  0.7499  0.3228 -1.9273
41731SOL    HW231031  10.438   6.774   4.194  0.4874 -0.2811  0.8918
41732SOL     OW31032   7.228   6.107   6.238 -0.1154 -0.2410 -0.3992
41732SOL    HW131033   7.167   6.033   6.234 -1.7857  0.9212  1.4137
41732SOL    HW231034   7.281   6.099   6.159 -1.7259 -2.0958 -1.3821
41733SOL     OW31035   8.473  12.207   8.868  0.4630 -0.2451 -0.1989
41733SOL    HW131036   8.389  12.197   8.913  1.0200 -1.5605  0.5835
41733SOL    HW231037   8.538  12.208   8.937  1.2464 -1.1379 -0.8992
41734SOL     OW31038   4.622   3.890   9.626 -0.7449 -0.0441  0.5376
41734SOL    HW131039   4.535   3.905   9.590 -0.5690  0.9028  0.4849
41734SOL    HW231040   4.652   3.809   9.585 -0.3581  1.2236 -1.8585
41735SOL     OW31041   4.683   2.560   1.721 -0.2546  0.0008  0.0899
41735SOL    HW131042   4.668   2.466   1.720  0.1737 -0.0650 -0.4549
41735SOL    HW231043   4.717   2.580   1.634 -0.4917  0.6843  0.1498
41736SOL     OW31044   6.790  10.841   2.241 -0.7336 -0.2954  0.1816
41736SOL    HW131045   6.743  10.873   2.318  0.7589 -0.0074  1.0237
41736SOL    HW231046   6.847  10.772   2.275  1.1845  0.9763 -0.3101
41737SOL     OW31047  11.280   1.986  12.220 -0.4429 -0.1898  0.4389
41737SOL    HW131048  11.202   2.022  12.262 -0.6162  0.3269 -0.3284
41737SOL    HW231049  11.352   2.012  12.278 -0.6704  0.5928  0.3714
41738SOL     OW31050   7.305   5.828   3.557  0.6969  0.6477 -0.0530
41738SOL    HW131051   7.236   5.842   3.493  0.2548  0.4455  0.3724
41738SOL    HW231052   7.386   5.843   3.509  0.3939 -0.0241 -0.7945
41739SOL     OW31053   3.488   0.452   5.183 -0.3045 -0.0235  0.2840
41739SOL    HW131054   3.462   0.384   5.245 -0.1509 -1.4358 -1.1188
41739SOL    HW231055   3.583   0.449   5.182 -0.3112 -0.1507 -0.1556
41740SOL     OW31056   4.723   9.917   4.897 -0.7473 -0.0571  0.6391
41740SOL    HW131057   4.797   9.897   4.955 -0.1539  2.9209  1.0533
41740SOL    HW231058   4.759   9.906   4.808 -0.6855 -1.3512  0.7981
41741SOL     OW31059   4.000   1.545   5.827 -0.5618 -0.6409  0.5609
41741SOL    HW131060   4.074   1.514   5.775 -0.6249  0.3063 -0.1009
41741SOL    HW231061   3.928   1.551   5.765 -0.3033  1.7840  0.4171
41742SOL     OW31062   1.100  10.830   7.574  0.1553 -0.0393 -0.1479
41742SOL    HW131063   1.044  10.753   7.571  0.2651 -0.2201  1.4838
41742SOL    HW231064   1.042  10.901   7.601  0.4201  0.0592  0.1723
41743SOL     OW31065   1.184   1.366   8.350  0.0396 -0.2827 -0.2107
41743SOL    HW131066   1.197   1.334   8.439  0.5819  1.7443  0.4943
41743SOL    HW231067   1.239   1.310   8.295  0.6838 -0.7558  0.9065
41744SOL     OW31068  11.957  11.356   6.415 -0.1722  0.3622  0.0470
41744SOL    HW131069  11.946  11.433   6.360  1.6379  0.9471  0.4184
41744SOL    HW231070  11.902  11.289   6.375 -0.7633  1.4633 -1.0415
41745SOL     OW31071   1.877   1.663   4.338  0.2113  0.0464 -0.0490
41745SOL    HW131072   1.914   1.719   4.407 -0.0230 -0.2909  0.3530
41745SOL    HW231073   1.911   1.700   4.256  1.1672 -0.0613  0.2976
41746SOL     OW31074   5.632   3.106   2.148  0.1129  0.4803 -0.1599
41746SOL    HW131075   5.605   3.026   2.194  0.2780  0.1905 -0.5631
41746SOL    HW231076   5.573   3.113   2.074  0.3393  0.5297 -0.3364
41747SOL     OW31077   2.363   6.995   5.788 -0.1990  0.6798 -0.1426
41747SOL    HW131078   2.297   6.936   5.752 -0.1082 -0.0127  0.7641
41747SOL    HW231079   2.446   6.962   5.753 -0.3660  1.9779 -1.8435
41748SOL     OW31080   6.501  12.140   0.387 -0.0822  0.3321  0.1564
41748SOL    HW131081   6.574  12.087   0.417 -0.5683 -0.8390 -0.6278
41748SOL    HW231082   6.446  12.152   0.464  0.8371  1.0777  0.7096
41749SOL     OW31083   1.487  11.179   8.719 -0.2446  0.0533 -0.0373
41749SOL    HW131084   1.425  11.117   8.680 -0.6637 -1.0269  2.1959
41749SOL    HW231085   1.523  11.226   8.644 -2.8630 -0.0887 -1.5264
41750SOL     OW31086   4.754  10.309  10.164 -0.1556 -0.4916 -0.1296
41750SOL    HW131087   4.729  10.373  10.230 -0.2847  1.2164 -1.7349
41750SOL    HW231088   4.675  10.257  10.149 -0.3653 -0.3458  0.4421
41751SOL     OW31089   1.375   0.182   9.304 -0.1323  0.2826  0.6581
41751SOL    HW131090   1.405   0.193   9.394 -1.4142  0.8242  1.0310
41751SOL    HW231091   1.283   0.206   9.305 -0.6053 -1.2583 -0.4702
41752SOL     OW31092   9.499   9.245   2.924  0.2908  0.1608  0.6468
41752SOL    HW131093   9.570   9.230   2.862  1.0436  1.4526  1.1508
41752SOL    HW231094   9.514   9.334   2.956 -0.8116 -0.0180  1.7384
41753SOL     OW31095   5.680   6.235   1.581  0.4003  0.2285 -0.7132
41753SOL    HW131096   5.709   6.249   1.671  0.1520 -0.2016 -0.5660
41753SOL    HW231097   5.610   6.170   1.587  0.4375  0.1333 -1.2229
41754SOL     OW31098   4.863   7.999   2.829  0.2326  0.3828  0.2920
41754SOL    HW131099   4.890   7.943   2.756 -2.2777 -1.2408  0.4513
41754SOL    HW231100   4.814   7.940   2.887 -2.3440  2.6516  0.6394
41755SOL     OW31101  10.362   6.946   5.568  0.3568 -0.2686 -0.1157
41755SOL    HW131102  10.375   6.863   5.522 -0.0868 -1.3874  1.7074
41755SOL    HW231103  10.450   6.984   5.574  0.6163 -0.7764 -0.6388
41756SOL     OW31104   8.263   6.088   2.668 -0.0411  0.0045  0.0818
41756SOL    HW131105   8.182   6.112   2.624  0.1873 -2.7750 -2.1266
41756SOL    HW231106   8.239   6.077   2.760 -2.5720 -2.1236 -0.7338
41757SOL     OW31107   3.594   1.100   3.738  0.4019  0.3547  0.3543
41757SOL    HW131108   3.664   1.037   3.720 -0.2467 -0.1671 -0.4367
41757SOL    HW231109   3.580   1.145   3.655  0.1252  0.7919  0.6330
41758SOL     OW31110   9.314  11.327   4.032  0.2076  0.2790 -0.5380
41758SOL    HW131111   9.364  11.283   3.963  0.3411  0.2491 -0.4201
41758SOL    HW231112   9.304  11.261   4.101  0.7482  0.5552 -0.1912
41759SOL     OW31113   5.336  11.045   4.533 -0.5116  0.1300 -0.3975
41759SOL    HW131114   5.411  10.990   4.510  0.6578  1.6481 -0.3373
41759SOL    HW231115   5.321  11.026   4.626 -0.7804 -0.8210 -0.6207
41760SOL     OW31116   9.389   6.383   6.131 -0.0243  0.0323  0.0795
41760SOL    HW131117   9.412   6.371   6.223  2.3317 -2.4951 -0.7171
41760SOL    HW231118   9.473   6.391   6.086 -1.0425 -0.3388 -2.0090
41761SOL     OW31119   7.642   2.251   5.665 -0.1249  0.3821  0.1145
41761SOL    HW131120   7.634   2.334   5.618 -3.3592 -0.0983 -0.4205
41761SOL    HW231121   7.612   2.271   5.754 -0.2409 -0.0542  0.1751
41762SOL     OW31122   4.057  12.099   0.886 -0.5582  0.0915 -0.0085
41762SOL    HW131123   4.094  12.021   0.845  1.0058  0.2049  1.1027
41762SOL    HW231124   4.095  12.172   0.837  0.3989  0.1972  0.8515
41763SOL     OW31125   5.374   7.156  11.947  0.3032 -0.0985  0.0096
41763SOL    HW131126   5.308   7.086  11.955 -0.1211  0.3578  0.5356
41763SOL    HW231127   5.433   7.141  12.021  0.2598  0.0430  0.0740
41764SOL     OW31128   0.751   4.102   3.278  0.0317 -0.2704  0.1540
41764SOL    HW131129   0.716   4.169   3.219 -0.3038 -1.4233 -1.0120
41764SOL    HW231130   0.844   4.099   3.257 -0.2265 -1.2902 -1.0286
41765SOL     OW31131  11.839   2.121   0.363  0.8500 -0.2299 -0.5624
41765SOL    HW131132  11.771   2.120   0.295  0.1944  1.2717  0.0153
41765SOL    HW231133  11.822   2.043   0.415  0.5994 -0.7474 -1.4005
41766SOL     OW31134   5.838  10.906   4.343 -0.3152 -0.3402  0.9461
41766SOL    HW131135   5.899  10.980   4.338 -1.3903  0.6257  1.6686
41766SOL    HW231136   5.831  10.875   4.253  0.5390  0.1087  0.7082
41767SOL     OW31137   6.291   6.477   8.909 -0.0974 -0.0677 -0.0987
41767SOL    HW131138   6.285   6.457   9.003 -0.3562  0.1580 -0.0673
41767SOL    HW231139   6.343   6.557   8.905 -0.3551  0.1006 -0.1246
41768SOL     OW31140   2.516   7.044   4.055 -0.0786  0.0988 -0.4195
41768SOL    HW131141   2.435   7.083   4.024 -0.0358  0.9259  0.4734
41768SOL    HW231142   2.533   7.086   4.139  0.1873 -1.5514  0.3914
41769SOL     OW31143   7.632   7.550   6.058  0.3470  0.3649 -0.7966
41769SOL    HW131144   7.641   7.507   5.973  1.3889 -0.3392 -0.3577
41769SOL    HW231145   7.670   7.637   6.045  2.5625 -0.4789 -0.5520
41770SOL     OW31146   5.112  11.193   5.901  0.1928  0.2831  0.3250
41770SOL    HW131147   5.028  11.221   5.936 -0.0131  0.3650 -0.2126
41770SOL    HW231148   5.107  11.097   5.902  0.5013  0.2773  1.2408
41771SOL     OW31149   8.817   0.474  11.682  0.4632  0.2189  0.0035
41771SOL    HW131150   8.822   0.532  11.758 -3.0504  0.0728  0.5210
41771SOL    HW231151   8.850   0.390  11.714  3.0461  1.1437  0.0188
41772SOL     OW31152   6.067   6.059   4.870 -0.1589  0.1487 -0.0151
41772SOL    HW131153   6.132   6.090   4.932 -0.4596  0.0160  0.3745
41772SOL    HW231154   6.085   6.107   4.789  1.2322 -0.8127 -0.3141
41773SOL     OW31155   4.510   7.363   4.529  0.5465 -0.2702  0.1103
41773SOL    HW131156   4.537   7.272   4.540  0.5442 -0.6670 -2.5266
41773SOL    HW231157   4.584   7.414   4.561  2.2212 -1.2953 -1.8456
41774SOL     OW31158   9.906   9.680   6.211 -0.1988 -0.0052  0.6397
41774SOL    HW131159   9.856   9.598   6.212 -0.2402  0.0127  0.1241
41774SOL    HW231160   9.846   9.744   6.250 -0.9933  0.2387 -0.9042
41775SOL     OW31161   4.476   8.337   6.241  0.0902  0.1546 -0.0935
41775SOL    HW131162   4.398   8.374   6.202  0.2840 -1.1827 -1.8657
41775SOL    HW231163   4.544   8.404   6.228  0.0934 -0.1459 -1.9291
41776SOL     OW31164   2.448   1.001  11.526 -0.1714 -0.4557  0.2748
41776SOL    HW131165   2.510   0.967  11.590  0.1818 -1.8958 -0.7879
41776SOL    HW231166   2.378   0.936  11.524 -2.3335  1.6153  2.1842
41777SOL     OW31167   4.113   7.371   2.452 -0.0614  0.2725 -0.1330
41777SOL    HW131168   4.126   7.319   2.532  1.6103  2.9642  1.5035
41777SOL    HW231169   4.068   7.450   2.481 -0.4532  0.8223 -2.0917
41778SOL     OW31170   6.845   4.395  10.683  0.3010  0.0904  0.5195
41778SOL    HW131171   6.788   4.333  10.729  0.3408 -0.0124  0.4329
41778SOL    HW231172   6.850   4.361  10.593  0.0155  0.4300  0.3723
41779SOL     OW31173   2.118  12.157  10.455  0.2469  0.2157 -0.2070
41779SOL    HW131174   2.101  12.108  10.536 -0.2683  1.3725  0.3940
41779SOL    HW231175   2.212  12.142  10.439  0.2375 -0.4701  0.2941
41780SOL     OW31176  11.553   9.160   0.060  0.2165 -0.0786 -0.2827
41780SOL    HW131177  11.630   9.206   0.093  1.9964 -2.9823 -0.0297
41780SOL    HW231178  11.543   9.191  -0.030 -1.1235  3.5960  0.9766
41781SOL     OW31179   4.464  11.639   2.905  0.8932  0.2137  0.4337
41781SOL    HW131180   4.408  11.561   2.906  0.2782  0.6458  1.5398
41781SOL    HW231181   4.553  11.604   2.896  0.4974 -0.4904 -1.1227
41782SOL     OW31182   5.782   3.992   2.675 -0.1689 -0.2233 -0.3012
41782SOL    HW131183   5.800   4.023   2.587  0.2926  0.0305 -0.1185
41782SOL    HW231184   5.779   4.071   2.729 -3.4932 -0.0274 -0.5659
41783SOL     OW31185   9.796   2.603   9.948 -0.1870  0.2154 -0.3385
41783SOL    HW131186   9.868   2.631  10.004 -1.1592 -1.0483  1.6253
41783SOL    HW231187   9.780   2.512   9.972 -1.0358 -0.2145 -2.3031
41784SOL     OW31188   8.048   5.797   8.178 -0.0560  0.0639  0.6056
41784SOL    HW131189   8.127   5.852   8.175 -0.8498  1.2562  0.6458
41784SOL    HW231190   7.997   5.834   8.249 -0.7971 -0.4895  0.3652
41785SOL     OW31191  10.088   6.901   5.045 -0.6178  0.4731  0.4694
41785SOL    HW131192  10.115   6.813   5.072 -1.9843 -0.7501 -1.7969
41785SOL    HW231193  10.170   6.948   5.028  0.1314 -1.1991 -0.7068
41786SOL     OW31194   9.512   5.000   3.696 -0.0755 -0.3649  0.5315
41786SOL    HW131195   9.575   5.048   3.749 -1.1310 -0.4399  1.9041
41786SOL    HW231196   9.517   4.910   3.729 -0.2159 -0.5728 -0.0030
41787SOL     OW31197  10.951   3.869   8.087 -0.2090 -0.0579 -0.3913
41787SOL    HW131198  10.984   3.956   8.064  0.6184 -0.1127  0.5542
41787SOL    HW231199  10.893   3.884   8.161 -0.8180 -0.2109 -0.8234
41788SOL     OW31200   6.706   3.326  10.430  0.3917  0.0889  0.2719
41788SOL    HW131201   6.756   3.330  10.512 -0.8585  2.2610  0.9939
41788SOL    HW231202   6.657   3.244  10.435  2.4399 -1.2006  0.3583
41789SOL     OW31203   2.107   3.799   9.432  0.6017  0.2375 -0.5994
41789SOL    HW131204   2.029   3.768   9.387 -0.1693 -0.8260  1.3453
41789SOL    HW231205   2.078   3.875   9.482  1.6305  1.9057 -2.3870
41790SOL     OW31206  10.214   4.894   5.184 -0.0684 -0.5418  0.3145
41790SOL    HW131207  10.147   4.827   5.175  0.0396 -0.4568 -1.4728
41790SOL    HW231208  10.267   4.885   5.105  1.1704  0.3249  1.0222
41791SOL     OW31209   4.479   3.137   8.344 -0.0168 -0.7339  0.2295
41791SOL    HW131210   4.470   3.090   8.427 -0.0360 -1.6563 -0.2718
41791SOL    HW231211   4.388   3.155   8.317 -0.0065 -0.3168  0.4717
41792SOL     OW31212   1.107   2.374  10.993  0.1136  0.0666 -0.0781
41792SOL    HW131213   1.045   2.377  10.920  0.0577  1.1718 -0.0074
41792SOL    HW231214   1.158   2.455  10.984 -0.0874  0.3620  1.2566
41793SOL     OW31215  11.460  10.093   0.983  0.1961 -0.0534 -0.0151
41793SOL    HW131216  11.383  10.134   1.022  0.1866  1.2850 -1.3511
41793SOL    HW231217  11.505  10.052   1.057 -1.0045  0.4416  1.0254
41794SOL     OW31218   6.889   3.005  10.576  0.3941  0.0504 -0.5300
41794SOL    HW131219   6.932   3.037  10.496 -1.2502 -1.2376 -2.0377
41794SOL    HW231220   6.940   3.042  10.648  1.4958  1.8999 -2.1619
41795SOL     OW31221   1.624   0.409   2.871  0.4412  0.3218 -0.1276
41795SOL    HW131222   1.659   0.379   2.954  3.0792  0.8555 -0.9376
41795SOL    HW231223   1.557   0.346   2.848  0.0792 -0.1571  2.1036
41796SOL     OW31224   5.945   2.062   9.161 -0.4946 -0.2091  0.3012
41796SOL    HW131225   6.015   2.065   9.226  0.0743 -1.3091 -0.2373
41796SOL    HW231226   5.869   2.031   9.210 -0.3315 -0.0628  0.6544
41797SOL     OW31227   9.155   5.373   1.250 -0.4617 -0.1762 -0.1614
41797SOL    HW131228   9.247   5.398   1.241 -0.2146 -1.3934 -1.3217
41797SOL    HW231229   9.150   5.331   1.337 -0.5710  2.3806  1.1476
41798SOL     OW31230   2.438   0.210   9.736  0.1697  0.0091  0.0960
41798SOL    HW131231   2.372   0.259   9.785 -0.2747 -0.8858  0.4018
41798SOL    HW231232   2.520   0.230   9.781 -0.1190 -0.1381  0.6916
41799SOL     OW31233   5.676   6.154   2.754  0.3561  0.1284  0.1612
41799SOL    HW131234   5.692   6.233   2.806 -0.8937  0.6424 -0.1931
41799SOL    HW231235   5.631   6.094   2.814  0.2545  0.1409  0.0971
41800SOL     OW31236   4.066  10.222   8.645 -0.0423  0.8947  0.5115
41800SOL    HW131237   4.042  10.178   8.727 -0.1410  0.8027  0.4341
41800SOL    HW231238   4.130  10.288   8.671  1.4965 -0.4738  0.3913
41801SOL     OW31239   2.842   5.181  10.647  0.2485 -0.7508  0.3639
41801SOL    HW131240   2.857   5.091  10.676 -0.2801 -0.5202  1.3805
41801SOL    HW231241   2.781   5.173  10.574 -1.0737 -1.1211  1.4841
41802SOL     OW31242   8.503   3.265  11.039 -0.1187  0.9440 -0.1975
41802SOL    HW131243   8.576   3.321  11.012  1.1677 -0.9111 -0.7926
41802SOL    HW231244   8.531   3.228  11.123 -0.9495  1.1801  0.1918
41803SOL     OW31245   6.402   0.935   3.922  0.3053 -0.0558 -0.5306
41803SOL    HW131246   6.487   0.933   3.966  1.0789  1.2712 -1.8711
41803SOL    HW231247   6.364   1.019   3.948 -0.1756 -0.2158 -0.6988
41804SOL     OW31248   3.026   4.387   0.975 -0.3267  0.1388  0.0262
41804SOL    HW131249   2.994   4.349   0.894  0.0690 -1.4482  0.5791
41804SOL    HW231250   3.116   4.412   0.956  0.2576 -1.5655  0.3305
41805SOL     OW31251   3.371   8.054   1.712 -0.2667  0.2886  0.0187
41805SOL    HW131252   3.339   8.072   1.801  1.8146  0.7725  0.7579
41805SOL    HW231253   3.431   7.980   1.723  0.0960  0.4201 -0.9482
41806SOL     OW31254   7.259   6.009   3.819 -0.1135 -0.1215 -0.5233
41806SOL    HW131255   7.235   6.052   3.737  0.8936  0.8416 -0.3531
41806SOL    HW231256   7.331   5.951   3.796 -0.2101 -0.2810 -0.4227
41807SOL     OW31257  11.148  11.603   7.510 -0.9718  0.4359 -0.1964
41807SOL    HW131258  11.073  11.609   7.569 -0.9586  0.6165 -0.1968
41807SOL    HW231259  11.110  11.583   7.424 -0.8914 -1.4202  0.1506
41808SOL     OW31260   3.599   5.893   0.090  0.6940  0.2496 -0.5998
41808SOL    HW131261   3.600   5.905  -0.005 -0.2775 -0.9719 -0.7869
41808SOL    HW231262   3.511   5.920   0.117  0.7690  0.0346 -0.1254
41809SOL     OW31263   9.853   9.930  10.644 -0.4440 -0.2378  0.8322
41809SOL    HW131264   9.790  10.002  10.643  0.4917  0.6085  0.0662
41809SOL    HW231265   9.926   9.961  10.590  0.2048 -1.5718  0.8900
41810SOL     OW31266  10.903   5.803   1.058  0.0912 -0.2608  0.0400
41810SOL    HW131267  10.828   5.747   1.037  0.0607 -0.8155  1.5182
41810SOL    HW231268  10.879   5.889   1.023 -0.2226 -0.9478 -1.5292
41811SOL     OW31269  12.227   9.332   9.364  0.2266  0.0074 -0.2929
41811SOL    HW131270  12.196   9.396   9.428  1.1469  0.3519 -0.1662
41811SOL    HW231271  12.181   9.353   9.283 -0.6846 -0.2045  0.1595
41812SOL     OW31272   3.427   9.027   1.322 -0.1748  0.4215 -0.4411
41812SOL    HW131273   3.336   9.006   1.343  0.5705 -2.7183  0.2046
41812SOL    HW231274   3.433   9.020   1.227 -0.3216 -0.8698 -0.3638
41813SOL     OW31275   4.717  10.777   9.527 -0.4436  0.1104  0.3411
41813SOL    HW131276   4.806  10.807   9.542 -0.0578  0.8094 -2.6345
41813SOL    HW231277   4.678  10.769   9.614  2.1978  0.7127  1.6574
41814SOL     OW31278   7.734   7.722   3.708  0.7482 -0.0808 -0.1468
41814SOL    HW131279   7.828   7.706   3.702  0.9967  0.3960  1.9134
41814SOL    HW231280   7.720   7.756   3.796 -1.2550  0.6621 -0.6793
41815SOL     OW31281   4.271   4.709   3.967  0.1692 -0.1145  0.1054
41815SOL    HW131282   4.264   4.618   3.938  0.5751 -0.1588  0.1391
41815SOL    HW231283   4.355   4.713   4.014  1.4536  0.8682 -2.1226
41816SOL     OW31284   0.216   2.337   6.614 -0.1733 -0.1763 -0.3905
41816SOL    HW131285   0.161   2.415   6.616 -0.6903 -0.5419  0.2225
41816SOL    HW231286   0.223   2.315   6.521 -0.2701  0.4260 -0.5447
41817SOL     OW31287   5.704   0.838   8.195  0.1344  0.6484  0.6291
41817SOL    HW131288   5.797   0.823   8.205 -0.1636 -2.4276 -0.2108
41817SOL    HW231289   5.663   0.753   8.213 -2.1988  0.9969 -2.2100
41818SOL     OW31290   4.321   2.293   2.965  0.0350 -0.5924  0.6326
41818SOL    HW131291   4.405   2.275   3.008  0.9519  1.3612 -0.2347
41818SOL    HW231292   4.258   2.299   3.037  0.0237 -4.5651  1.1802
41819SOL     OW31293   0.960   1.024   0.241 -0.2732  0.6552 -0.0710
41819SOL    HW131294   0.931   0.987   0.158 -0.7281 -0.7453  0.6905
41819SOL    HW231295   0.962   0.950   0.302 -0.8313  1.8016  1.4125
41820SOL     OW31296   3.001   8.467  11.538 -0.3131 -0.0671 -0.3154
41820SOL    HW131297   2.912   8.457  11.503 -0.2090 -1.7301 -0.2029
41820SOL    HW231298   2.999   8.551  11.583 -1.8356 -0.0617 -0.3180
41821SOL     OW31299   6.908   6.070   7.780  0.3050 -0.0828  0.5008
41821SOL    HW131300   6.995   6.108   7.770  1.0359 -1.6411  0.6119
41821SOL    HW231301   6.857   6.107   7.708  0.9588  1.1136  0.6416
41822SOL     OW31302   7.622   4.090   4.861  0.2290 -0.0953 -0.2203
41822SOL    HW131303   7.675   4.081   4.782 -1.1449  0.0453 -1.1824
41822SOL    HW231304   7.534   4.064   4.834 -0.4505  0.7972  1.0456
41823SOL     OW31305   2.925   4.004  11.632 -0.1829  0.0779  0.4842
41823SOL    HW131306   2.970   4.066  11.575 -1.8238 -0.2172 -1.2533
41823SOL    HW231307   2.855   4.055  11.673 -1.0884 -0.4055 -0.3963
41824SOL     OW31308   6.243   7.262   2.207 -0.6391  0.0235  0.6548
41824SOL    HW131309   6.178   7.332   2.200 -0.8188 -0.1329  0.7490
41824SOL    HW231310   6.279   7.254   2.119 -0.3524  0.4878  0.7254
41825SOL     OW31311   5.784   1.496   4.421  0.5036  0.3621  0.8359
41825SOL    HW131312   5.692   1.470   4.413  0.9412 -0.6277 -2.1228
41825SOL    HW231313   5.832   1.414   4.428  1.3299  0.7660 -0.0175
41826SOL     OW31314   4.928   9.785   6.806  0.3358  0.0487  0.5178
41826SOL    HW131315   4.978   9.724   6.752  0.4510 -0.0745  0.7609
41826SOL    HW231316   4.854   9.732   6.839 -0.4348  0.4475 -0.5172
41827SOL     OW31317   8.736   1.307   8.027 -0.0579  0.2639  0.4862
41827SOL    HW131318   8.659   1.357   8.055  0.5601  1.3607  0.2964
41827SOL    HW231319   8.780   1.284   8.109 -0.8527 -0.8230  0.6202
41828SOL     OW31320   9.338   0.544   7.575 -0.2455 -0.5666 -0.2180
41828SOL    HW131321   9.403   0.565   7.508  0.0864 -1.6591 -0.2704
41828SOL    HW231322   9.271   0.494   7.528 -1.0186  0.3352 -0.1136
41829SOL     OW31323   2.033   6.864   5.041  0.2163 -0.0830 -0.4748
41829SOL    HW131324   1.979   6.844   4.964 -1.2546  0.5705  0.3521
41829SOL    HW231325   2.014   6.794   5.103  0.7050 -0.1142 -0.3551
41830SOL     OW31326   0.446  10.058   9.338 -0.4982 -0.1025 -0.7227
41830SOL    HW131327   0.506  10.059   9.263 -0.0070 -3.6086 -0.5758
41830SOL    HW231328   0.502  10.071   9.414 -0.7501  1.7735 -0.8273
41831SOL     OW31329   1.885   1.571   7.046  0.7845  0.2232 -0.1411
41831SOL    HW131330   1.839   1.655   7.046  0.1436 -0.0388 -2.5698
41831SOL    HW231331   1.854   1.527   7.125  0.9311  2.1214  1.0604
41832SOL     OW31332   3.795   7.374   3.764 -0.3030 -0.3314  0.0079
41832SOL    HW131333   3.847   7.451   3.744  0.3010 -0.8079 -0.2948
41832SOL    HW231334   3.710   7.390   3.723 -0.7795  0.9206  1.3989
41833SOL     OW31335   1.403   8.192  10.934  0.0668  0.1857 -0.3111
41833SOL    HW131336   1.312   8.165  10.930 -1.0704  3.0962  2.0100
41833SOL    HW231337   1.444   8.130  10.994 -0.5921 -0.6426 -0.7013
41834SOL     OW31338   8.023  12.193   3.523 -0.0813  0.6237  0.4957
41834SOL    HW131339   8.003  12.276   3.480  0.6039  0.3581 -0.3563
41834SOL    HW231340   8.099  12.159   3.476  0.9069  0.4828  2.1600
41835SOL     OW31341   4.101   5.616   9.973  0.0996  0.1624  0.1956
41835SOL    HW131342   4.021   5.624  10.024  0.6887 -0.0924  1.1850
41835SOL    HW231343   4.102   5.693   9.916 -0.3972  0.6338  0.8211
41836SOL     OW31344   6.432   6.322   5.639  0.0738  0.2675  0.1431
41836SOL    HW131345   6.470   6.254   5.583  1.1327  1.0149 -0.0658
41836SOL    HW231346   6.362   6.277   5.686 -0.1569 -0.6304 -1.0010
41837SOL     OW31347   6.706   6.343   2.250 -0.6830 -0.3318  0.0972
41837SOL    HW131348   6.715   6.429   2.290 -0.1489  0.1183 -0.9555
41837SOL    HW231349   6.680   6.361   2.159 -1.5824 -1.3106  0.1453
41838SOL     OW31350   3.315   0.745   7.774 -0.1820  0.0944  0.0101
41838SOL    HW131351   3.245   0.701   7.725  0.1810  0.3815 -0.7787
41838SOL    HW231352   3.334   0.686   7.846 -0.0355 -0.8328 -0.7635
41839SOL     OW31353   6.501   4.827   2.147 -0.7107  0.0946 -0.1211
41839SOL    HW131354   6.432   4.794   2.204  0.0935  0.5357  1.1476
41839SOL    HW231355   6.542   4.898   2.197  0.1812  0.3309 -1.1439
41840SOL     OW31356   1.125   9.782   6.137  0.2462  0.3638  0.3986
41840SOL    HW131357   1.136   9.878   6.136 -1.3593  0.5881  1.3847
41840SOL    HW231358   1.070   9.764   6.061 -0.1942  0.3334  0.7229
41841SOL     OW31359   7.428   3.880  10.872  0.1032 -0.5489  0.4037
41841SOL    HW131360   7.509   3.918  10.838  0.3846 -3.3411 -2.5821
41841SOL    HW231361   7.455   3.831  10.949  0.1900  2.6149  2.5914
41842SOL     OW31362   1.568  10.394   9.699  0.4474 -0.3592  0.1272
41842SOL    HW131363   1.607  10.328   9.641  1.0366  1.8999 -2.2450
41842SOL    HW231364   1.485  10.356   9.727  0.1040 -1.5827 -2.3109
41843SOL     OW31365   2.379   7.954   6.425  0.0468 -0.2812 -0.2900
41843SOL    HW131366   2.300   7.991   6.385  1.2002  0.5039 -1.9634
41843SOL    HW231367   2.346   7.897   6.494 -1.9265  1.2595  0.1462
41844SOL     OW31368  10.542  11.872   5.153 -0.1567 -0.4845 -0.0050
41844SOL    HW131369  10.507  11.945   5.101 -3.1462 -2.4387 -0.9935
41844SOL    HW231370  10.592  11.820   5.091 -0.3018 -0.6904  0.0506
41845SOL     OW31371   2.793   3.762   7.448 -0.4942 -0.3048  0.2190
41845SOL    HW131372   2.817   3.761   7.355 -1.5702 -0.2916 -0.0731
41845SOL    HW231373   2.789   3.855   7.470  0.5546 -0.3114  0.5114
41846SOL     OW31374   1.811  12.258   7.268  0.5333 -0.1053  0.2654
41846SOL    HW131375   1.778  12.226   7.352 -1.2794 -1.9526 -1.0368
41846SOL    HW231376   1.900  12.222   7.262  0.0302 -1.5005  0.6704
41847SOL     OW31377  11.793  10.903   5.573 -0.1777 -0.1125 -0.0253
41847SOL    HW131378  11.736  10.930   5.501  0.6776 -0.4732 -0.8541
41847SOL    HW231379  11.737  10.848   5.629 -0.4248 -1.1835 -1.2881
41848SOL     OW31380   1.013   0.824   8.967 -0.2030  0.6605 -0.0981
41848SOL    HW131381   1.098   0.866   8.972 -0.4442  0.9676  2.4355
41848SOL    HW231382   1.033   0.734   8.941  0.7032  1.1402 -1.1581
41849SOL     OW31383   2.355   7.000   5.433  0.3492 -0.6610 -0.6731
41849SOL    HW131384   2.331   6.912   5.464 -1.6770  0.0388 -0.0518
41849SOL    HW231385   2.315   7.006   5.346 -2.0010  0.5199  0.3690
41850SOL     OW31386  11.149   2.224   3.813 -0.0666  0.8794  0.3287
41850SOL    HW131387  11.176   2.265   3.731  0.9697  0.8623  0.6464
41850SOL    HW231388  11.065   2.183   3.792  1.0225 -0.7008 -1.2493
41851SOL     OW31389  10.454  10.470   1.362  0.4352 -0.5556  0.2157
41851SOL    HW131390  10.538  10.503   1.394 -0.0050 -0.4627  1.3518
41851SOL    HW231391  10.453  10.491   1.269  1.5085 -0.2237  0.2704
41852SOL     OW31392   6.772   2.140  11.914  0.1424  0.6581 -0.2733
41852SOL    HW131393   6.834   2.211  11.900  0.4211  0.0958 -2.0208
41852SOL    HW231394   6.748   2.148  12.007  0.9302  2.3872 -0.1810
41853SOL     OW31395   4.624   6.690  10.111  0.2348  0.1731  0.1973
41853SOL    HW131396   4.569   6.617  10.083  1.7434 -0.4098 -1.4524
41853SOL    HW231397   4.631   6.746  10.033  1.1927  0.7138  0.6551
41854SOL     OW31398   8.250   8.771  10.313  0.0797 -0.1017 -0.0560
41854SOL    HW131399   8.176   8.784  10.373 -1.3227  0.1729 -1.7781
41854SOL    HW231400   8.231   8.687  10.271  1.7696 -0.9752  0.8242
41855SOL     OW31401   6.634   0.933   4.043  0.6298  0.1098 -0.2860
41855SOL    HW131402   6.666   0.843   4.052 -1.9062 -0.9807 -1.2404
41855SOL    HW231403   6.679   0.982   4.111  3.3169 -1.4919 -0.7575
41856SOL     OW31404   1.840   3.394   3.437  0.9702  0.2090 -0.0176
41856SOL    HW131405   1.903   3.323   3.424  0.4859 -0.1344 -0.5212
41856SOL    HW231406   1.893   3.467   3.470  1.8365  0.2823 -1.4649
41857SOL     OW31407  11.352   0.870   2.713  0.0400  0.2020 -0.2605
41857SOL    HW131408  11.290   0.850   2.784 -0.3018  2.7481  0.2377
41857SOL    HW231409  11.349   0.792   2.657 -0.7850 -1.2824  1.7120
41858SOL     OW31410  11.931   2.024   3.651  0.2463  0.5731 -0.5406
41858SOL    HW131411  11.860   2.005   3.712  0.8385  2.3223  0.7682
41858SOL    HW231412  11.891   2.077   3.582  0.0474  0.4865 -0.4928
41859SOL     OW31413   1.295   1.002   0.077 -0.5993 -0.3462 -0.1946
41859SOL    HW131414   1.380   1.038   0.102 -0.3623 -0.5479 -0.7003
41859SOL    HW231415   1.269   0.948   0.151 -0.5976  0.2388  0.2397
41860SOL     OW31416  10.313   2.730   2.567  0.1450 -0.3576 -0.3303
41860SOL    HW131417  10.367   2.784   2.626 -1.0148  0.0606  0.3702
41860SOL    HW231418  10.350   2.642   2.575  0.4772 -0.1561  0.4431
41861SOL     OW31419   7.466   4.065   7.479 -0.5614  0.6087  0.4761
41861SOL    HW131420   7.374   4.073   7.454 -0.2820 -3.2119 -2.8076
41861SOL    HW231421   7.471   3.984   7.528  1.0636  0.6841  0.4991
41862SOL     OW31422   0.971   2.087   5.512 -0.2417 -0.2393 -0.0281
41862SOL    HW131423   1.015   2.171   5.529 -0.3520 -0.0256 -0.7761
41862SOL    HW231424   0.972   2.078   5.417  1.9881 -2.2731  0.1005
41863SOL     OW31425   9.330   7.499   9.544 -0.9852 -0.4963  0.4750
41863SOL    HW131426   9.271   7.448   9.600 -0.7364  0.1162  1.3124
41863SOL    HW231427   9.358   7.573   9.598 -3.4229  2.0974 -1.5327
41864SOL     OW31428   1.138   2.611   0.180 -0.7107  0.0054 -0.2372
41864SOL    HW131429   1.073   2.681   0.176  0.1776  0.8663  0.2117
41864SOL    HW231430   1.211   2.642   0.127 -0.4244 -0.7132 -0.2740
41865SOL     OW31431   0.798   3.658   2.761 -0.1150 -0.1853  0.4214
41865SOL    HW131432   0.810   3.592   2.828  0.3757  0.5835  1.1053
41865SOL    HW231433   0.854   3.629   2.688 -2.1733 -2.1078 -0.5270
41866SOL     OW31434   1.789   0.822   1.037 -0.0995  0.8362 -0.6991
41866SOL    HW131435   1.877   0.832   1.074  0.1093 -0.0275 -0.9465
41866SOL    HW231436   1.803   0.812   0.943 -0.4372  0.4021 -0.7091
41867SOL     OW31437   4.516   3.637  11.057 -0.4963  0.0307 -0.4233
41867SOL    HW131438   4.551   3.705  11.000  0.3434  1.1819  1.4125
41867SOL    HW231439   4.494   3.681  11.138 -2.6949 -1.3662 -0.1541
41868SOL     OW31440   1.953   8.617   7.079 -0.1471  0.1922 -0.2056
41868SOL    HW131441   1.892   8.598   7.008 -1.1226  2.2200  0.0384
41868SOL    HW231442   1.924   8.701   7.115 -0.4150 -1.2600  3.3872
41869SOL     OW31443   3.420   0.624   1.890  0.1366 -0.2118 -0.0376
41869SOL    HW131444   3.408   0.682   1.815 -0.1796 -2.0459 -1.4801
41869SOL    HW231445   3.359   0.657   1.956 -1.6403 -0.1717 -1.6127
41870SOL     OW31446   9.997  10.368   3.070  0.1619  0.2239 -0.6938
41870SOL    HW131447   9.920  10.424   3.074 -0.8972 -1.2185 -0.2311
41870SOL    HW231448  10.019  10.350   3.162  2.0254  1.8542 -0.7493
41871SOL     OW31449   4.400  10.815   2.471  0.3727  0.4875  0.4355
41871SOL    HW131450   4.379  10.906   2.490 -1.3780  0.3737 -0.7383
41871SOL    HW231451   4.413  10.812   2.377  0.0047 -0.5280  0.4029
41872SOL     OW31452  10.426  11.871  11.904  0.5221  0.2222  0.1066
41872SOL    HW131453  10.503  11.817  11.893  1.8161  1.9880  0.0326
41872SOL    HW231454  10.460  11.956  11.933 -1.2083  1.6493 -1.7159
41873SOL     OW31455   6.837   4.815   8.157  0.4641  0.2686  0.6518
41873SOL    HW131456   6.751   4.801   8.117  0.2548 -1.0756  1.5135
41873SOL    HW231457   6.860   4.905   8.134 -2.2297  1.5301  2.4027
41874SOL     OW31458   5.099  11.261   0.038 -0.6399 -0.0236  0.1205
41874SOL    HW131459   5.185  11.303   0.034 -1.0003  0.6655 -0.8094
41874SOL    HW231460   5.065  11.286   0.124 -0.0168 -0.0946  0.3933
41875SOL     OW31461   4.104  12.277   4.172  0.7972  0.2100 -0.2388
41875SOL    HW131462   4.093  12.254   4.264 -1.5706  1.8493 -0.0214
41875SOL    HW231463   4.199  12.281   4.159  1.2267  1.7388  2.6292
41876SOL     OW31464   1.607   2.594   7.019 -0.3900 -0.0766 -0.0140
41876SOL    HW131465   1.534   2.561   6.966 -0.1852 -1.5616  0.5735
41876SOL    HW231466   1.565   2.631   7.097 -0.5219 -1.9876  0.8853
41877SOL     OW31467   5.888  10.725   7.310 -0.1590 -0.4828  0.2315
41877SOL    HW131468   5.802  10.765   7.314 -0.0287 -0.1144 -0.4532
41877SOL    HW231469   5.874  10.634   7.339 -1.3604 -1.3110 -2.6038
41878SOL     OW31470   6.146   7.284  11.165 -0.4339 -0.0104  0.2187
41878SOL    HW131471   6.143   7.227  11.241  0.5287  0.4422  0.6125
41878SOL    HW231472   6.102   7.235  11.096  0.0805 -1.0814  0.6384
41879SOL     OW31473   2.077   5.324   6.283 -0.4185  0.1001  0.0914
41879SOL    HW131474   2.047   5.406   6.244 -0.9492 -0.5189 -0.8229
41879SOL    HW231475   2.079   5.342   6.377 -1.7597  0.7647  0.0127
41880SOL     OW31476   8.958   4.448   2.013 -0.3547 -0.1921  0.0062
41880SOL    HW131477   8.997   4.380   2.069  0.8252  1.5148  1.3598
41880SOL    HW231478   9.031   4.478   1.958 -0.8964 -0.0661 -0.6617
41881SOL     OW31479   0.420   3.115  10.856  0.0917 -0.0496 -0.3428
41881SOL    HW131480   0.507   3.132  10.820  1.0290 -0.8706  1.4355
41881SOL    HW231481   0.420   3.022  10.876 -1.1314 -0.0191 -0.1170
41882SOL     OW31482   9.794   1.575   9.582 -0.6281  0.1893 -0.4616
41882SOL    HW131483   9.857   1.532   9.524 -0.9506 -0.4163 -0.3832
41882SOL    HW231484   9.731   1.505   9.603 -0.5058  0.3985  0.6299
41883SOL     OW31485   1.371   9.855   1.123 -0.5410 -0.1110  0.0806
41883SOL    HW131486   1.378   9.830   1.031  0.0088 -0.2038  0.1470
41883SOL    HW231487   1.379   9.773   1.172 -0.1278  0.0198  0.2392
41884SOL     OW31488   2.694   6.003   6.881  0.3547 -0.2313  0.2654
41884SOL    HW131489   2.687   5.970   6.791 -1.9444 -0.1516  0.3455
41884SOL    HW231490   2.788   6.011   6.897  0.8530 -1.7917 -1.5570
41885SOL     OW31491  10.242   2.475   3.993 -0.1291  0.3149 -0.0095
41885SOL    HW131492  10.259   2.445   4.082  1.2524  0.5614 -0.1727
41885SOL    HW231493  10.258   2.398   3.938 -0.2939  0.3467 -0.1028
41886SOL     OW31494   2.602   1.594   1.146  0.1927  0.5172 -0.1177
41886SOL    HW131495   2.639   1.658   1.207 -0.5693 -0.5881  1.5603
41886SOL    HW231496   2.509   1.592   1.167  0.1831 -1.0448 -0.2263
41887SOL     OW31497   9.973   0.048   4.204  0.5978 -0.0255  0.4617
41887SOL    HW131498   9.902  -0.015   4.194  1.1123 -0.4159 -1.0017
41887SOL    HW231499   9.998   0.043   4.296  0.7480 -2.0942  0.3472
41888SOL     OW31500   2.831   8.529   7.867 -0.1105 -0.6133  0.0311
41888SOL    HW131501   2.884   8.600   7.830  0.1933  0.1474  1.8184
41888SOL    HW231502   2.893   8.458   7.885 -0.1065 -0.6465 -0.1186
41889SOL     OW31503   5.250  11.186  11.909 -0.4933  0.1582 -0.3793
41889SOL    HW131504   5.333  11.196  11.955 -0.0336  0.9561 -1.3526
41889SOL    HW231505   5.186  11.171  11.978  0.2259  1.0238  0.4947
41890SOL     OW31506   1.916   8.568   4.504 -0.3437  0.6037  0.0992
41890SOL    HW131507   1.902   8.476   4.482 -3.3490  0.5982  1.4922
41890SOL    HW231508   1.980   8.566   4.575  1.5142 -0.1400 -1.5090
41891SOL     OW31509   9.157   3.611   7.526 -0.1823 -0.2709 -0.2868
41891SOL    HW131510   9.078   3.638   7.572  0.8126 -0.1599  1.4322
41891SOL    HW231511   9.126   3.555   7.455 -1.6805 -2.7669  2.1502
41892SOL     OW31512   2.871   0.675   6.040  0.4758  0.0923 -0.2276
41892SOL    HW131513   2.914   0.615   5.978 -0.6445 -0.4690 -0.4820
41892SOL    HW231514   2.944   0.718   6.085  1.3331  0.5854 -1.9802
41893SOL     OW31515   8.968   9.159   9.969 -0.2632 -0.1162 -0.0086
41893SOL    HW131516   9.002   9.244   9.998 -0.6932 -0.2470  0.9424
41893SOL    HW231517   9.038   9.097   9.990  0.6710  0.1647 -2.0695
41894SOL     OW31518   6.043   0.219  11.829 -0.2573 -0.2154 -0.4011
41894SOL    HW131519   6.099   0.269  11.887  0.7901 -1.7764 -0.0037
41894SOL    HW231520   5.992   0.163  11.887 -0.0138 -0.9877 -0.9125
41895SOL     OW31521  10.287   7.089   5.328 -0.4075 -0.0925  0.0427
41895SOL    HW131522  10.370   7.115   5.368  0.8339 -0.2160 -2.2877
41895SOL    HW231523  10.274   6.999   5.357 -0.3468  0.3105  1.3683
41896SOL     OW31524  11.721   5.664  11.208 -0.1962  0.0793 -0.1783
41896SOL    HW131525  11.756   5.659  11.119 -2.2353 -1.2543 -0.9698
41896SOL    HW231526  11.767   5.596  11.256  0.5436  0.4613 -0.3222
41897SOL     OW31527   4.174   4.917   0.765 -0.8261 -0.1973  0.4293
41897SOL    HW131528   4.082   4.940   0.779 -0.5607  0.3553  1.3952
41897SOL    HW231529   4.186   4.923   0.671 -1.2736  1.7458  0.4477
41898SOL     OW31530   4.724   7.502   4.858 -0.0280 -0.0181 -0.1466
41898SOL    HW131531   4.706   7.551   4.778 -1.1328  0.7043  0.5259
41898SOL    HW231532   4.666   7.426   4.853 -0.0063 -0.0386 -0.0871
41899SOL     OW31533  11.035   9.253   0.548  0.0178  0.0641 -0.5608
41899SOL    HW131534  11.078   9.185   0.599 -0.9707  0.0123  0.2139
41899SOL    HW231535  10.963   9.209   0.503  1.6217 -0.1874 -3.1163
41900SOL     OW31536   5.077  11.029   1.152  0.0557  0.0815 -0.2799
41900SOL    HW131537   5.111  10.959   1.096 -0.6979 -0.5494  0.0312
41900SOL    HW231538   5.037  11.091   1.092  1.1470  0.5049 -0.5981
41901SOL     OW31539   5.166   0.492   4.333 -0.2674  0.7555  0.0998
41901SOL    HW131540   5.156   0.460   4.423 -1.0486  1.3606  0.2403
41901SOL    HW231541   5.261   0.491   4.318 -0.0813  1.1525  1.1212
41902SOL     OW31542   7.225  10.900   7.987  0.1487  0.7405  0.6617
41902SOL    HW131543   7.201  10.992   7.978  1.2454  1.0351  0.5885
41902SOL    HW231544   7.157  10.852   7.940 -0.5726  1.4996  0.9261
41903SOL     OW31545   8.810   3.302   3.624  0.0605  0.7567  0.2329
41903SOL    HW131546   8.846   3.335   3.542  0.5511 -2.8604 -1.1532
41903SOL    HW231547   8.866   3.340   3.692  0.0284  3.3306 -1.0671
41904SOL     OW31548   4.292   7.144   7.433 -0.2822  0.8604 -0.0223
41904SOL    HW131549   4.259   7.133   7.344 -3.0942  1.1039  0.8967
41904SOL    HW231550   4.315   7.236   7.439 -0.7024  0.9850 -0.3092
41905SOL     OW31551   8.771  10.142   9.422 -0.1670 -0.3372  0.5632
41905SOL    HW131552   8.798  10.074   9.360 -1.9298 -2.5837  2.0854
41905SOL    HW231553   8.844  10.149   9.483 -0.0631 -1.1098  0.5435
41906SOL     OW31554   5.070   0.099   6.455 -0.1130 -0.0441  0.2453
41906SOL    HW131555   5.128   0.146   6.515 -1.2757  0.8128  0.7623
41906SOL    HW231556   5.108   0.112   6.369 -1.1158  3.2141  0.1436
41907SOL     OW31557   7.540   8.410   4.897 -0.2060  0.1115 -0.2151
41907SOL    HW131558   7.555   8.443   4.986 -0.7292 -2.8620  1.0726
41907SOL    HW231559   7.452   8.443   4.875 -2.0233 -2.6086  2.2456
41908SOL     OW31560   7.689   3.806  12.088 -0.5663 -0.4266  0.9598
41908SOL    HW131561   7.773   3.776  12.122  0.3013  0.0340 -0.6556
41908SOL    HW231562   7.646   3.848  12.162  0.7867 -0.3566  1.7378
41909SOL     OW31563   3.859   2.743   5.516 -0.4669 -0.2366  0.5456
41909SOL    HW131564   3.908   2.817   5.553  0.2585 -0.7189  0.5673
41909SOL    HW231565   3.906   2.666   5.547 -0.1519 -0.6773 -0.9468
41910SOL     OW31566   2.511   8.382   8.367 -0.8523 -0.3105 -0.1094
41910SOL    HW131567   2.497   8.476   8.355 -0.5717 -0.0961  1.0986
41910SOL    HW231568   2.550   8.374   8.455  0.4180 -1.4383 -0.7324
41911SOL     OW31569   9.345   0.167   8.348  0.5562  0.0422 -0.1089
41911SOL    HW131570   9.274   0.222   8.381  2.1788  1.8955  0.4713
41911SOL    HW231571   9.355   0.098   8.413 -0.4132  0.0084  0.0188
41912SOL     OW31572  10.161  10.225  11.545 -0.0671 -0.0716 -0.6763
41912SOL    HW131573  10.093  10.284  11.514 -2.5781 -0.3292  3.5739
41912SOL    HW231574  10.130  10.138  11.521 -0.0229 -0.0788 -0.7099
41913SOL     OW31575   1.427   7.905  10.254  0.1344 -0.1874  0.1143
41913SOL    HW131576   1.424   7.952  10.170  0.6864  0.5562  0.5002
41913SOL    HW231577   1.520   7.896  10.273  0.0139 -0.5338  0.5492
41914SOL     OW31578   7.973   9.538   9.585  0.2183 -0.6055 -0.1045
41914SOL    HW131579   8.032   9.574   9.652  2.7577 -2.4368 -1.1730
41914SOL    HW231580   7.885   9.561   9.615  1.3357  0.3529  2.7901
41915SOL     OW31581   0.583   8.031   6.906  0.1332 -0.2842 -0.6834
41915SOL    HW131582   0.633   7.951   6.925  0.9138  0.4435  0.4468
41915SOL    HW231583   0.636   8.102   6.942 -1.5765  0.5533  0.2986
41916SOL     OW31584   2.233   2.144   4.681  0.2787 -0.5818 -1.2811
41916SOL    HW131585   2.302   2.208   4.663  0.1844 -0.5718 -1.6035
41916SOL    HW231586   2.265   2.062   4.643 -0.7444 -0.1481 -3.2057
41917SOL     OW31587   8.245   0.241  11.662 -0.0398  0.2219  0.1567
41917SOL    HW131588   8.176   0.290  11.708 -0.9392  0.4695 -1.3834
41917SOL    HW231589   8.268   0.170  11.722 -0.1023  1.3792  1.6045
41918SOL     OW31590   3.347   2.126   0.743  0.0845 -0.0299 -0.2087
41918SOL    HW131591   3.320   2.195   0.803 -0.6170 -0.5234  0.0537
41918SOL    HW231592   3.367   2.172   0.661 -0.3560  0.4894 -0.0323
41919SOL     OW31593  11.673  10.569   1.953 -0.2245  0.1677 -0.1547
41919SOL    HW131594  11.674  10.628   2.028  1.6554  0.0488 -0.0495
41919SOL    HW231595  11.679  10.628   1.877 -0.3042  0.2007 -0.1355
41920SOL     OW31596   3.897   4.672   4.129  0.4471  0.9075  0.2291
41920SOL    HW131597   3.927   4.739   4.068 -1.2714  0.5966 -0.9950
41920SOL    HW231598   3.802   4.676   4.125  0.3003 -1.3134  0.4628
41921SOL     OW31599  11.739   9.184   5.565 -0.2862 -0.2533  0.2035
41921SOL    HW131600  11.699   9.100   5.585  1.4439 -1.0029  0.7150
41921SOL    HW231601  11.679   9.249   5.602 -0.6968 -1.3414  1.5280
41922SOL     OW31602   7.122   3.685   7.277 -0.2239 -0.0943  0.3068
41922SOL    HW131603   7.104   3.774   7.245  0.7857 -0.2921 -0.9041
41922SOL    HW231604   7.209   3.690   7.315 -0.1029 -0.6033  0.1017
41923SOL     OW31605   1.388   8.870   4.818  0.2898 -0.2531 -0.2416
41923SOL    HW131606   1.368   8.960   4.791  0.1633  0.2431  1.4024
41923SOL    HW231607   1.464   8.879   4.876 -1.4135 -0.7867  2.2537
41924SOL     OW31608   4.575   7.269   4.876 -0.0130  0.2145 -0.1736
41924SOL    HW131609   4.654   7.217   4.865 -0.7540 -0.6149 -2.0117
41924SOL    HW231610   4.566   7.279   4.970  1.6487 -0.6484  0.1158
41925SOL     OW31611   8.397  10.151   9.959  0.6262 -0.3959  0.0561
41925SOL    HW131612   8.465  10.143   9.892 -0.0777  0.3112 -0.7709
41925SOL    HW231613   8.395  10.066  10.003  2.4416 -0.2501  0.5033
41926SOL     OW31614   3.109   9.415   0.298 -0.4157  0.5518 -0.0750
41926SOL    HW131615   3.178   9.350   0.312 -0.3558  0.4591 -0.7450
41926SOL    HW231616   3.099   9.458   0.383  0.9309  1.0071 -0.1250
41927SOL     OW31617   4.022   3.385   0.421 -0.2409 -0.3316  0.2415
41927SOL    HW131618   3.996   3.458   0.364 -0.2577 -1.4469 -1.2461
41927SOL    HW231619   3.945   3.328   0.422  0.9873 -2.2017 -1.7971
41928SOL     OW31620   1.366  11.469   6.785 -0.3333  0.0684 -0.0503
41928SOL    HW131621   1.443  11.489   6.731  0.5462 -2.2691  0.2045
41928SOL    HW231622   1.395  11.485   6.875 -0.6721  0.6398 -0.0349
41929SOL     OW31623   1.196  11.623   3.490 -0.1543 -0.1665  0.0996
41929SOL    HW131624   1.231  11.658   3.573 -0.0537  0.3916 -0.1704
41929SOL    HW231625   1.113  11.669   3.478 -1.4500 -2.0917  1.1606
41930SOL     OW31626   3.172   3.051  11.492 -0.6149 -0.4999 -0.1730
41930SOL    HW131627   3.094   3.091  11.452 -0.6055  1.6891  1.7577
41930SOL    HW231628   3.177   2.964  11.453 -2.7648  0.0843 -1.9822
41931SOL     OW31629   7.265   7.340   5.156  0.4290  1.1518 -0.5888
41931SOL    HW131630   7.201   7.393   5.204 -1.0815 -0.4305 -0.7918
41931SOL    HW231631   7.327   7.405   5.121 -1.1076  2.7514 -0.5072
41932SOL     OW31632   6.310   7.132   0.423 -1.0007  0.0115 -0.4318
41932SOL    HW131633   6.342   7.153   0.335  1.8559 -0.0134  0.4803
41932SOL    HW231634   6.280   7.215   0.458 -1.1122  0.2377 -1.0484
41933SOL     OW31635   7.106   6.426   5.000 -0.1428 -0.8284 -0.2580
41933SOL    HW131636   7.073   6.500   4.948 -0.1376 -1.5375 -1.3122
41933SOL    HW231637   7.040   6.358   4.986  0.6769 -1.5555 -0.6450
41934SOL     OW31638  10.671   4.796   0.132 -0.2648 -0.8035 -0.7574
41934SOL    HW131639  10.711   4.866   0.080  0.9196 -0.6401  0.3384
41934SOL    HW231640  10.663   4.832   0.220 -3.5844 -0.5554 -1.0189
41935SOL     OW31641   7.344   8.901   5.814  0.1854 -0.2277  0.5116
41935SOL    HW131642   7.370   8.991   5.794 -0.5808 -0.2777 -0.8361
41935SOL    HW231643   7.419   8.865   5.862  0.4846  1.1255  1.1076
41936SOL     OW31644  11.288   1.544   1.656  0.5538 -0.1553  0.5335
41936SOL    HW131645  11.319   1.634   1.647 -2.0201  0.7150 -0.4800
41936SOL    HW231646  11.264   1.536   1.749  1.2235  0.0072  0.7311
41937SOL     OW31647   8.474   5.354   4.600 -0.4737  0.2663 -0.0757
41937SOL    HW131648   8.414   5.327   4.670 -1.1684  0.8001 -0.4610
41937SOL    HW231649   8.552   5.385   4.647 -1.2409  1.3767  0.5108
41938SOL     OW31650   3.490  10.415   1.587 -0.1470 -0.2429 -0.1398
41938SOL    HW131651   3.571  10.407   1.638 -0.4531  1.0594  0.5856
41938SOL    HW231652   3.473  10.509   1.583 -0.8771 -0.4117 -1.4995
41939SOL     OW31653  10.573   1.869   7.054 -0.1824 -0.4717 -0.2535
41939SOL    HW131654  10.521   1.921   7.115  0.1126 -2.1208  1.4981
41939SOL    HW231655  10.656   1.854   7.099  0.4642 -0.8714 -1.5041
41940SOL     OW31656   7.872  10.232   4.015 -0.1707 -0.6172 -0.1503
41940SOL    HW131657   7.932  10.293   3.971 -0.0717 -1.0965 -0.6881
41940SOL    HW231658   7.786  10.255   3.982 -0.1478 -0.6911 -0.2606
41941SOL     OW31659   6.793   7.385   6.514 -0.6241 -0.0344 -0.3900
41941SOL    HW131660   6.792   7.289   6.521  1.2986 -0.2111 -1.7452
41941SOL    HW231661   6.801   7.415   6.605 -1.5249 -1.1229  0.0784
41942SOL     OW31662   3.413   7.889   2.038  0.1308  0.2078  0.1177
41942SOL    HW131663   3.370   7.957   1.986 -1.7478  0.5234  1.9146
41942SOL    HW231664   3.436   7.932   2.120 -1.2679 -1.2922  1.3823
41943SOL     OW31665   7.514  10.240   7.194 -0.1920 -0.4534  0.2407
41943SOL    HW131666   7.420  10.251   7.178 -0.3186  0.1128  1.3275
41943SOL    HW231667   7.519  10.208   7.284  0.6506 -0.7130  0.1064
41944SOL     OW31668   3.519  10.827   1.204 -0.1504 -0.0937  0.1286
41944SOL    HW131669   3.488  10.737   1.212  0.7889 -0.3768  0.7937
41944SOL    HW231670   3.528  10.858   1.294 -0.0937  0.5334 -0.0869
41945SOL     OW31671   8.389   2.694  11.067 -0.1998  0.3378 -0.4249
41945SOL    HW131672   8.477   2.718  11.096  0.1697 -1.9008  0.4925
41945SOL    HW231673   8.391   2.707  10.972  1.4381 -0.5275 -0.5419
41946SOL     OW31674   8.793   4.562   8.257 -0.1554 -0.0829 -0.1255
41946SOL    HW131675   8.776   4.470   8.277  0.1440 -0.0778  0.1753
41946SOL    HW231676   8.889   4.568   8.254 -0.0599 -0.6596 -4.3369
41947SOL     OW31677   4.034   8.654   9.458  0.2918 -0.1254  0.4188
41947SOL    HW131678   3.969   8.662   9.388  1.0996 -0.1521 -0.3474
41947SOL    HW231679   3.994   8.595   9.522  0.1069 -1.2134 -0.6750
41948SOL     OW31680   7.613  10.199  10.490  0.2971 -0.0732  0.5993
41948SOL    HW131681   7.649  10.111  10.492  0.7120 -0.2156 -3.9860
41948SOL    HW231682   7.522  10.188  10.463  0.3579  0.8960 -0.0685
41949SOL     OW31683  10.886   8.467   6.749 -0.4634  0.4133 -0.3363
41949SOL    HW131684  10.813   8.408   6.730 -2.0957  1.6960  1.5502
41949SOL    HW231685  10.917   8.438   6.835  1.2877 -0.0961 -1.1043
41950SOL     OW31686  10.652   2.982   3.362  0.2395 -0.3200 -0.2977
41950SOL    HW131687  10.703   3.001   3.283  1.8616  0.4305  0.8653
41950SOL    HW231688  10.579   2.929   3.332  1.2676 -0.7422 -2.1792
41951SOL     OW31689  11.273   5.463   6.837  0.0198  0.6165 -0.2328
41951SOL    HW131690  11.280   5.443   6.744  0.5757 -0.4407  0.0084
41951SOL    HW231691  11.193   5.514   6.846 -1.1583 -1.0126 -1.0318
41952SOL     OW31692   8.968  11.488   4.897  0.0804  0.2119 -0.3853
41952SOL    HW131693   8.920  11.570   4.906  0.4462  0.5527 -1.3549
41952SOL    HW231694   8.901  11.424   4.872 -0.5390 -0.2452  2.1976
41953SOL     OW31695   3.638   4.066   3.617  0.5646 -0.2337  0.7321
41953SOL    HW131696   3.720   4.033   3.653  1.6545  1.5861  0.0393
41953SOL    HW231697   3.627   4.152   3.658  0.2219  0.5335 -0.8718
41954SOL     OW31698   5.411  10.502   6.037 -0.5430  0.3336  0.7036
41954SOL    HW131699   5.496  10.477   6.002 -0.8258 -0.0521  0.2891
41954SOL    HW231700   5.402  10.595   6.016 -0.3750  0.2902  0.4370
41955SOL     OW31701   4.849  11.346   1.382  0.3770  0.4595 -0.3582
41955SOL    HW131702   4.789  11.374   1.452 -0.2412  0.4202 -0.8574
41955SOL    HW231703   4.791  11.306   1.316  1.0923 -0.6930 -0.3033
41956SOL     OW31704   4.400   7.917  12.191  0.2649  0.1375  1.3187
41956SOL    HW131705   4.380   7.973  12.116  2.1708 -1.8432 -0.8518
41956SOL    HW231706   4.315   7.880  12.216 -0.1781 -1.1881 -1.6973
41957SOL     OW31707   3.959   5.677   5.748 -0.5887  0.3804  0.0360
41957SOL    HW131708   3.895   5.623   5.701  0.4846 -2.5296  1.6661
41957SOL    HW231709   3.909   5.717   5.819 -1.2502  1.0448 -0.7681
41958SOL     OW31710   0.109  12.326   5.113 -0.5890  0.8256  0.0752
41958SOL    HW131711   0.044  12.350   5.179 -0.2495 -0.8404  1.0657
41958SOL    HW231712   0.193  12.328   5.159 -0.0607  1.6465 -0.8554
41959SOL     OW31713  10.499   2.174   1.425 -0.4702  0.1994  0.0507
41959SOL    HW131714  10.534   2.152   1.511  0.0602 -0.1794 -0.2476
41959SOL    HW231715  10.498   2.090   1.378 -1.5689  0.2479 -0.0316
41960SOL     OW31716  10.283   6.002   4.729 -0.6759  0.2410  0.8697
41960SOL    HW131717  10.238   6.022   4.812  0.5287  0.6664  1.4446
41960SOL    HW231718  10.369   6.043   4.738 -0.6786  0.6773 -0.7921
41961SOL     OW31719   9.696   2.184   4.138  0.7642  0.5574 -0.1559
41961SOL    HW131720   9.775   2.163   4.087  1.1008 -3.1949  1.5784
41961SOL    HW231721   9.683   2.108   4.194 -3.8269  1.2379  0.0898
41962SOL     OW31722  10.252  10.533   9.410 -0.7731 -0.0206  0.1473
41962SOL    HW131723  10.158  10.528   9.390 -0.5105  0.8049 -1.4451
41962SOL    HW231724  10.295  10.525   9.325  0.6152 -0.4026  0.8649
41963SOL     OW31725   7.553   6.726   2.851  0.0297  0.4886 -0.1202
41963SOL    HW131726   7.606   6.714   2.929  0.2316  0.0544 -0.3230
41963SOL    HW231727   7.581   6.656   2.791 -1.2852 -0.2255  0.0558
41964SOL     OW31728   3.206  11.261   6.131 -0.3759  0.0574  0.2858
41964SOL    HW131729   3.210  11.258   6.226  0.8045  0.9517  0.3019
41964SOL    HW231730   3.194  11.170   6.104  0.1963 -0.3287  1.2693
41965SOL     OW31731   7.807   6.949  11.116  0.2187 -0.4143 -0.1993
41965SOL    HW131732   7.876   6.976  11.055 -1.0598  2.8558 -0.4265
41965SOL    HW231733   7.760   6.879  11.071  0.8321  0.2303 -1.9175
41966SOL     OW31734  10.709  12.014   5.724 -0.1149 -0.0875 -0.0026
41966SOL    HW131735  10.637  11.961   5.759 -0.8555  0.7872 -0.1559
41966SOL    HW231736  10.703  12.003   5.629  0.3468 -0.5009  0.0136
41967SOL     OW31737   4.180   8.817   5.983 -0.4406 -0.2895  0.3261
41967SOL    HW131738   4.243   8.772   5.928 -1.0621 -1.2513  0.3740
41967SOL    HW231739   4.154   8.751   6.048 -1.0238  0.2814  0.6837
41968SOL     OW31740   3.173   1.651  11.401  0.2053 -0.1062 -0.0347
41968SOL    HW131741   3.211   1.679  11.484 -1.5217 -2.6218  1.7608
41968SOL    HW231742   3.141   1.563  11.418 -1.6194 -0.1388 -2.9580
41969SOL     OW31743   4.700   3.916   7.715 -0.7125 -0.1223 -0.1838
41969SOL    HW131744   4.683   3.909   7.809 -1.4653 -0.9761 -0.3659
41969SOL    HW231745   4.671   3.832   7.679 -0.8399  0.3546 -1.2367
41970SOL     OW31746   2.451   2.589   6.710 -0.3020  0.1529  0.0569
41970SOL    HW131747   2.497   2.509   6.682  0.5343  0.0265  1.6356
41970SOL    HW231748   2.370   2.589   6.660 -0.7153 -2.1462  0.6031
41971SOL     OW31749   5.196  10.682   7.524 -0.2212 -0.0066  0.1701
41971SOL    HW131750   5.183  10.642   7.610  1.5441  1.8070  1.3742
41971SOL    HW231751   5.290  10.697   7.519 -0.2361 -0.4124 -2.2845
41972SOL     OW31752   8.777   0.768   8.891  0.2261  0.2613  0.0507
41972SOL    HW131753   8.764   0.859   8.865  0.5525  0.5269  0.7675
41972SOL    HW231754   8.692   0.741   8.926 -0.1544 -0.0348 -1.0634
41973SOL     OW31755   3.733   1.236   8.309  0.3044  0.1562  0.5811
41973SOL    HW131756   3.667   1.196   8.251  0.5152 -2.7531  2.1498
41973SOL    HW231757   3.788   1.288   8.250 -1.4775  0.1012 -1.2591
41974SOL     OW31758   8.857  10.371  11.806  0.2554  0.1693  0.2064
41974SOL    HW131759   8.918  10.356  11.879  0.0399 -0.4842  0.2619
41974SOL    HW231760   8.773  10.389  11.848  0.3535  0.8536  0.1261
41975SOL     OW31761   7.906   0.803   9.993  0.3574 -0.0693  0.0469
41975SOL    HW131762   7.908   0.807  10.089 -1.1309 -3.3698  0.3820
41975SOL    HW231763   7.931   0.890   9.964  1.6360  0.8283  3.4173
41976SOL     OW31764   0.265  11.148   5.499  0.1217  0.1218  0.1238
41976SOL    HW131765   0.235  11.064   5.464  0.5903 -0.0709  0.1719
41976SOL    HW231766   0.342  11.169   5.446 -0.0981  0.6116 -0.0058
41977SOL     OW31767   7.704   7.752   9.923 -0.1473 -0.1282 -0.1710
41977SOL    HW131768   7.781   7.726   9.974  0.1432  0.6571 -0.1890
41977SOL    HW231769   7.712   7.704   9.841  1.0413  0.9128 -0.7026
41978SOL     OW31770   8.011  11.881   7.551  0.1102 -0.0570 -0.4542
41978SOL    HW131771   7.965  11.912   7.629  0.8806 -0.0593  0.0173
41978SOL    HW231772   7.942  11.864   7.487 -0.6267 -0.9923  0.5466
41979SOL     OW31773   8.362   8.900   0.917 -0.3198  0.2909  0.3112
41979SOL    HW131774   8.348   8.871   0.827 -0.7822  0.5830  0.2824
41979SOL    HW231775   8.426   8.839   0.953 -0.2398  0.0878 -0.1722
41980SOL     OW31776   7.484   4.836  12.020  0.4631  0.0828 -0.0873
41980SOL    HW131777   7.420   4.773  12.052 -2.2895  1.5312 -2.2761
41980SOL    HW231778   7.484   4.825  11.925 -0.5004  3.5205 -0.6369
41981SOL     OW31779   2.648   7.550  10.413  0.1611 -0.6248 -0.2535
41981SOL    HW131780   2.719   7.512  10.465  0.3481 -0.7630 -0.6056
41981SOL    HW231781   2.658   7.511  10.326  0.9598  0.9605 -0.9172
41982SOL     OW31782   3.191   7.945  10.137  0.3067  0.1104  0.1464
41982SOL    HW131783   3.235   7.881  10.193 -0.1835  1.2969  1.9985
41982SOL    HW231784   3.117   7.976  10.190 -0.5019  0.9321 -1.3852
41983SOL     OW31785   6.866   0.010   2.449  0.6842 -0.1310 -0.6469
41983SOL    HW131786   6.958   0.026   2.427  1.4107 -2.9864 -0.1150
41983SOL    HW231787   6.851   0.060   2.529  2.5914 -1.4407  0.6280
41984SOL     OW31788   9.029  11.068   4.806  0.0408 -0.8437  0.0597
41984SOL    HW131789   9.101  11.099   4.862  2.5310 -1.5738 -2.4648
41984SOL    HW231790   9.037  10.973   4.807 -1.4777 -0.9947  0.3431
41985SOL     OW31791   3.117   5.050   8.000  0.2417 -0.0226 -0.4478
41985SOL    HW131792   3.109   5.083   7.911 -0.4761  0.5790 -0.1657
41985SOL    HW231793   3.186   5.104   8.040 -0.1632  0.4048 -0.3232
41986SOL     OW31794   2.719   7.150   1.610 -0.1929  0.1407 -0.4429
41986SOL    HW131795   2.666   7.230   1.604 -0.4201  0.1900  1.5049
41986SOL    HW231796   2.807   7.181   1.630 -0.0573 -0.0694 -0.7062
41987SOL     OW31797   4.045   0.733   2.226  0.0491 -0.3413  0.2809
41987SOL    HW131798   4.007   0.692   2.149  2.0006 -1.2295 -0.2505
41987SOL    HW231799   4.133   0.758   2.200  1.3548 -2.0909  2.6344
41988SOL     OW31800   1.551   0.479   4.970 -0.2747 -0.0501  0.2337
41988SOL    HW131801   1.513   0.391   4.976 -0.6087  0.1198  0.6193
41988SOL    HW231802   1.515   0.526   5.045  0.9443  0.0244  0.7994
41989SOL     OW31803   4.866   7.834   6.062  0.2601 -0.0468 -0.4820
41989SOL    HW131804   4.872   7.897   6.133  0.9523 -0.6117 -0.0290
41989SOL    HW231805   4.782   7.789   6.077  0.7939 -0.7510  0.4840
41990SOL     OW31806   3.045  12.131  11.722  0.0043  0.2301 -0.1602
41990SOL    HW131807   3.042  12.163  11.812  0.3812  0.9946 -0.4078
41990SOL    HW231808   2.959  12.154  11.686  0.6205  1.9227 -0.6360
41991SOL     OW31809  12.163   1.835   0.463 -0.3635  0.3404  0.5154
41991SOL    HW131810  12.234   1.868   0.408  1.3142 -2.7517  0.5677
41991SOL    HW231811  12.089   1.824   0.403 -0.6535  2.9331  0.3092
41992SOL     OW31812   3.530   4.388   1.556 -0.4526 -0.1839 -0.0602
41992SOL    HW131813   3.544   4.308   1.608  0.6852  0.9934  1.5589
41992SOL    HW231814   3.582   4.374   1.477  0.2333 -0.8182  0.4832
41993SOL     OW31815   2.172   4.162  12.284  0.1130  0.2822  0.1260
41993SOL    HW131816   2.114   4.137  12.213 -1.0042 -0.3649  1.2434
41993SOL    HW231817   2.196   4.080  12.326  2.5138  0.4360 -0.7668
41994SOL     OW31818   2.889   3.149   1.127  0.8084 -0.6945 -0.0933
41994SOL    HW131819   2.966   3.149   1.070  1.1048 -0.9345  0.3050
41994SOL    HW231820   2.887   3.061   1.165  0.2416 -0.7459 -0.2276
41995SOL     OW31821  11.312   0.539  11.394  0.0633 -0.4089 -0.2141
41995SOL    HW131822  11.260   0.500  11.464  0.2787 -0.8946 -0.3237
41995SOL    HW231823  11.352   0.465  11.350  0.7901 -0.0421 -0.1791
41996SOL     OW31824   4.366   8.065   7.961  0.4302  0.3567 -0.2754
41996SOL    HW131825   4.373   8.078   7.867 -0.3209 -1.0711 -0.5560
41996SOL    HW231826   4.276   8.089   7.982 -0.1390 -1.5765 -0.3531
41997SOL     OW31827  10.572  11.293   2.346  0.3523  0.0294  0.0118
41997SOL    HW131828  10.554  11.219   2.288  1.1401  1.1896 -1.8222
41997SOL    HW231829  10.525  11.273   2.427 -0.8204 -1.6586 -1.0288
41998SOL     OW31830   9.902   6.294   2.603 -0.2095 -0.4176 -0.8451
41998SOL    HW131831   9.848   6.343   2.541 -0.5011 -0.1357 -0.3815
41998SOL    HW231832   9.946   6.362   2.655 -0.9454 -0.6208  0.0869
41999SOL     OW31833   6.921   2.873   2.866  0.0552 -0.0175 -0.0369
41999SOL    HW131834   6.873   2.940   2.915  0.1894 -0.2686  0.4407
41999SOL    HW231835   6.946   2.916   2.785 -0.8180  0.1768 -0.2144
42000SOL     OW31836   1.705   6.525  10.749  0.5930  0.5260 -0.0996
42000SOL    HW131837   1.645   6.542  10.822  0.3770 -0.8079  0.0606
42000SOL    HW231838   1.704   6.605  10.698  0.3714  1.3152  1.1093
42001SOL     OW31839   8.011  10.220   5.608  0.1818  0.4368  0.1223
42001SOL    HW131840   8.105  10.231   5.620  0.3146  0.6414 -1.0117
42001SOL    HW231841   7.972  10.269   5.680  0.9055  2.6738 -0.9213
42002SOL     OW31842   4.346  11.625   0.178 -0.3416 -0.3748  0.4370
42002SOL    HW131843   4.360  11.705   0.129 -1.0060 -0.0419  0.7785
42002SOL    HW231844   4.380  11.556   0.122  0.9232  0.2089  0.4614
42003SOL     OW31845   1.177   2.493   5.166  0.9925  0.1202 -0.1465
42003SOL    HW131846   1.110   2.554   5.135  1.1637  0.3605 -0.0417
42003SOL    HW231847   1.212   2.534   5.245  1.4193  0.0999 -0.3241
42004SOL     OW31848   5.821   6.175   5.593  0.3843 -0.5074  0.3867
42004SOL    HW131849   5.890   6.227   5.635  0.2408 -0.6368  0.7852
42004SOL    HW231850   5.760   6.155   5.663  0.6316 -1.5353  0.3221
42005SOL     OW31851   0.516   0.884   5.577 -0.3865  0.3914 -0.0077
42005SOL    HW131852   0.462   0.845   5.509 -0.4947 -0.7767  0.7300
42005SOL    HW231853   0.602   0.895   5.536 -0.2766 -0.8831 -0.1603
42006SOL     OW31854  11.223   7.594   7.182  0.0361 -0.0558 -0.1602
42006SOL    HW131855  11.219   7.517   7.125  1.7498  1.1579 -2.0371
42006SOL    HW231856  11.163   7.656   7.142  1.1235  0.7457 -0.5818
42007SOL     OW31857   4.160  10.973   8.326 -0.1278  0.5700  0.0705
42007SOL    HW131858   4.212  10.999   8.401  1.8554 -0.8082 -0.7408
42007SOL    HW231859   4.165  11.048   8.266 -1.5698  1.5967  1.1761
42008SOL     OW31860  10.740   5.352   5.671 -0.2019 -0.5001 -0.3901
42008SOL    HW131861  10.677   5.341   5.742  1.1906 -2.4139  0.6453
42008SOL    HW231862  10.692   5.323   5.593 -0.3560 -3.0125  0.5414
42009SOL     OW31863   0.520   3.017   3.603 -0.5083  0.0069  0.3614
42009SOL    HW131864   0.545   2.946   3.545 -1.5628  0.0550 -0.1668
42009SOL    HW231865   0.465   3.074   3.550  1.4805  2.0326  0.3209
42010SOL     OW31866   2.108   5.260   2.578  0.0963 -0.6736  0.0621
42010SOL    HW131867   2.086   5.221   2.663 -1.9958 -2.1094 -1.0555
42010SOL    HW231868   2.026   5.298   2.547  0.8430 -0.1011 -1.2884
42011SOL     OW31869   6.915   8.889   5.714  0.1305 -0.4533 -0.5160
42011SOL    HW131870   6.994   8.841   5.689 -0.0160 -0.1430 -1.6325
42011SOL    HW231871   6.908   8.875   5.808  1.1251 -1.0667 -0.5107
42012SOL     OW31872   7.043   7.927   2.004 -0.2403  0.1161 -0.0764
42012SOL    HW131873   7.122   7.903   2.053  0.0655  0.5551 -0.3484
42012SOL    HW231874   7.076   7.965   1.923 -0.7328  0.4061 -0.1431
42013SOL     OW31875   3.138   2.572   6.089  0.1355 -0.2724  0.2656
42013SOL    HW131876   3.127   2.489   6.042 -0.0069 -0.6478  0.9460
42013SOL    HW231877   3.048   2.605   6.100  0.2657  0.7289 -1.2946
42014SOL     OW31878   6.154   6.562   5.426  0.4604 -0.0533  0.2438
42014SOL    HW131879   6.193   6.589   5.343 -0.0579  1.5658  0.4987
42014SOL    HW231880   6.228   6.557   5.487  1.1792 -3.1959 -0.6762
42015SOL     OW31881   2.346   6.091   8.443  0.7422 -0.2250  0.2465
42015SOL    HW131882   2.280   6.022   8.442  0.1282  0.2565  2.5981
42015SOL    HW231883   2.417   6.056   8.496 -0.2060  1.3849  2.7702
42016SOL     OW31884   6.494   0.518   5.823 -0.1475 -0.5134  0.1167
42016SOL    HW131885   6.488   0.608   5.791 -2.5698 -0.7743 -0.3740
42016SOL    HW231886   6.403   0.490   5.832  0.5229 -3.2270 -0.5999
42017SOL     OW31887   9.182   2.521   6.919  0.4666  0.4181  0.7151
42017SOL    HW131888   9.207   2.472   6.841 -0.8156  1.1442 -0.1898
42017SOL    HW231889   9.116   2.467   6.962 -1.2991  1.4624 -0.5343
42018SOL     OW31890   4.794   3.290  10.581  0.3960 -0.0081  0.0987
42018SOL    HW131891   4.734   3.346  10.533 -0.2377  0.1239  1.0207
42018SOL    HW231892   4.852   3.253  10.514 -1.0676 -0.5846 -0.8874
42019SOL     OW31893   7.437  10.600   7.934  0.1082  0.4423  0.8919
42019SOL    HW131894   7.415  10.510   7.957  0.7342 -0.1939 -0.7932
42019SOL    HW231895   7.517  10.618   7.984  1.7174 -1.0678 -0.9522
42020SOL     OW31896   7.085   1.699  11.016 -0.5008 -0.2902  0.0788
42020SOL    HW131897   7.093   1.607  11.041 -3.3497 -0.2360  1.6633
42020SOL    HW231898   7.098   1.748  11.097 -1.9143  0.4603 -0.1076
42021SOL     OW31899   9.472   1.655   2.841  0.2681 -0.2861 -0.0549
42021SOL    HW131900   9.475   1.608   2.925  0.9135 -0.9306 -0.4381
42021SOL    HW231901   9.385   1.696   2.841  0.6791  0.6761  1.4347
42022SOL     OW31902  10.988   1.460   6.077  0.1030 -0.3357  0.4118
42022SOL    HW131903  10.943   1.394   6.025  1.3245 -0.9142  0.0699
42022SOL    HW231904  11.076   1.464   6.040  1.0697 -0.8835  2.5384
42023SOL     OW31905   1.237  11.482  11.051  0.0237  0.3333 -0.5665
42023SOL    HW131906   1.318  11.437  11.024  0.3119 -0.0825  0.8729
42023SOL    HW231907   1.268  11.559  11.098 -0.4712  1.9579 -2.7232
42024SOL     OW31908   7.252   3.187  12.016 -0.2572 -0.0865  0.4565
42024SOL    HW131909   7.218   3.135  12.088 -0.4608  1.6862  1.7063
42024SOL    HW231910   7.306   3.255  12.057  1.6578 -0.4641 -1.2244
42025SOL     OW31911   9.863  10.891   0.204  0.4208  0.0431 -0.1264
42025SOL    HW131912   9.880  10.937   0.286  1.6276  0.5198 -0.6189
42025SOL    HW231913   9.814  10.813   0.230  1.4918 -0.2377  1.1496
42026SOL     OW31914  12.082   2.775   5.507  0.2794  0.1395  0.2043
42026SOL    HW131915  12.107   2.839   5.441 -0.0894 -1.4492 -1.5730
42026SOL    HW231916  11.997   2.806   5.539  0.2657  0.7292 -0.3754
42027SOL     OW31917  10.435   4.408   4.237 -0.5966 -0.1008 -0.0615
42027SOL    HW131918  10.423   4.329   4.184 -2.1777  0.8244 -1.1864
42027SOL    HW231919  10.494   4.462   4.186  0.9244 -0.7345  0.9661
42028SOL     OW31920   6.720  10.349   0.923  0.6045  0.3719  0.1819
42028SOL    HW131921   6.660  10.285   0.884  0.5634  0.0649  0.7468
42028SOL    HW231922   6.689  10.359   1.013  1.0391  0.6604  0.2997
42029SOL     OW31923   6.801   1.425   1.443  0.0755 -0.4296  0.1504
42029SOL    HW131924   6.819   1.350   1.499  0.9617 -0.1683  0.2390
42029SOL    HW231925   6.783   1.388   1.357  0.8130 -0.7351  0.1229
42030SOL     OW31926   5.913   5.972   5.425 -0.4493 -0.4560 -0.7059
42030SOL    HW131927   5.864   5.906   5.474 -1.0281 -0.2100 -0.9439
42030SOL    HW231928   5.887   6.056   5.464 -0.6031 -0.2876 -1.1554
42031SOL     OW31929   5.213   8.087  11.863  0.8772  0.2523 -0.1062
42031SOL    HW131930   5.146   8.054  11.922 -0.4364  2.1171 -0.4407
42031SOL    HW231931   5.261   8.152  11.915 -0.1565  1.7573 -0.9337
42032SOL     OW31932   1.009   6.698   2.214  0.5380  0.0055  0.5318
42032SOL    HW131933   1.086   6.657   2.253  0.0749  0.7120  2.2886
42032SOL    HW231934   0.976   6.633   2.152  1.6784 -0.9138  0.8462
42033SOL     OW31935   5.277  11.681  10.301  0.0836 -0.2144 -0.0081
42033SOL    HW131936   5.249  11.769  10.326 -0.4700 -0.7362  1.3436
42033SOL    HW231937   5.372  11.687  10.294 -0.0160  0.6643 -0.7064
42034SOL     OW31938   4.668   5.945   4.888  0.3227 -0.0981  0.0989
42034SOL    HW131939   4.742   5.999   4.862 -0.2672  1.3798  1.3901
42034SOL    HW231940   4.676   5.867   4.833  1.7872  0.8151 -1.0725
42035SOL     OW31941   9.769   9.642   2.489 -0.1342  0.0098  0.7538
42035SOL    HW131942   9.841   9.683   2.441  0.2747  0.6917  1.9155
42035SOL    HW231943   9.749   9.563   2.438  0.2976  0.6806 -0.5002
42036SOL     OW31944   5.878   8.918   0.728  0.2242 -0.1009 -0.0058
42036SOL    HW131945   5.929   8.982   0.679  0.7604 -1.3813 -1.1887
42036SOL    HW231946   5.789   8.927   0.694  0.1809  0.3572  0.2135
42037SOL     OW31947   3.693   9.083   9.765 -0.4594 -0.2555  0.3392
42037SOL    HW131948   3.764   9.118   9.818 -0.5837  0.5828 -0.0364
42037SOL    HW231949   3.707   8.988   9.765 -0.2245 -0.2309  1.5220
42038SOL     OW31950   4.554   3.388   3.243 -0.2232  0.6462  0.2610
42038SOL    HW131951   4.570   3.447   3.169 -1.7533  0.1877 -0.4800
42038SOL    HW231952   4.492   3.436   3.298 -1.5988 -0.3031 -0.4267
42039SOL     OW31953   7.755  11.787   6.484 -0.1409  0.6914  0.5937
42039SOL    HW131954   7.663  11.776   6.456  0.3839 -1.0582 -0.6290
42039SOL    HW231955   7.758  11.751   6.572 -0.3446 -0.7684  0.0340
42040SOL     OW31956   3.274   6.268  12.087  0.8384 -0.1812 -0.2864
42040SOL    HW131957   3.178   6.275  12.087  0.8471 -0.0687 -0.3539
42040SOL    HW231958   3.300   6.301  12.001  0.8708 -1.0267 -0.6210
42041SOL     OW31959   5.512  11.786   0.185 -0.4413  0.2061 -0.1764
42041SOL    HW131960   5.465  11.732   0.248  0.5395 -1.1324 -0.5550
42041SOL    HW231961   5.563  11.846   0.240 -1.0808  0.3696  0.2591
42042SOL     OW31962   8.609   0.662   4.720 -0.0500  0.1939 -0.0897
42042SOL    HW131963   8.656   0.746   4.722  3.1326 -1.4264  0.7569
42042SOL    HW231964   8.654   0.612   4.652 -1.4589 -1.0771 -0.1333
42043SOL     OW31965   4.245   5.517   0.653  0.1744  0.5169 -0.2864
42043SOL    HW131966   4.194   5.495   0.731  0.3332 -1.8521 -0.7637
42043SOL    HW231967   4.224   5.608   0.635 -2.8345  0.0399  0.3306
42044SOL     OW31968   5.730  11.128   6.478  0.0107  0.0207  0.3013
42044SOL    HW131969   5.800  11.062   6.487  0.2622  0.2921  0.3379
42044SOL    HW231970   5.689  11.132   6.564  1.3326  1.4020  0.9058
42045SOL     OW31971  10.601   2.609   4.739 -0.1172 -0.1971 -0.7111
42045SOL    HW131972  10.687   2.645   4.716  0.2410  0.3625  1.3319
42045SOL    HW231973  10.541   2.649   4.676  0.6529  2.0564 -0.1139
42046SOL     OW31974   4.228   9.891   6.981 -0.0519  0.3413  0.3873
42046SOL    HW131975   4.221   9.973   7.030 -0.6313  0.7896 -0.4136
42046SOL    HW231976   4.322   9.871   6.981  0.3449  1.9452 -0.8659
42047SOL     OW31977   8.653   1.233   2.290  0.4671 -0.4131 -0.0187
42047SOL    HW131978   8.674   1.204   2.201 -0.1308 -1.2969  0.1169
42047SOL    HW231979   8.697   1.170   2.347 -1.0715 -1.2730  0.2782
42048SOL     OW31980   8.762   2.465   2.776  0.5586 -0.1728 -0.3407
42048SOL    HW131981   8.841   2.425   2.741  0.9813  0.8038 -0.5195
42048SOL    HW231982   8.766   2.557   2.748 -0.6642 -0.1178 -0.4159
42049SOL     OW31983   8.845   0.158   1.648  0.0326  0.5016  0.1065
42049SOL    HW131984   8.914   0.218   1.621 -0.0031  0.5603  0.1450
42049SOL    HW231985   8.886   0.103   1.715  0.6375 -0.7855 -1.2823
42050SOL     OW31986   6.183  12.002   6.532 -0.5485 -0.0642  0.3852
42050SOL    HW131987   6.122  11.967   6.597 -0.2742 -0.2343  0.5558
42050SOL    HW231988   6.251  12.044   6.584 -0.9941  0.9436  0.1745
42051SOL     OW31989   1.728   2.582  12.139  0.4705 -0.2120  0.5467
42051SOL    HW131990   1.811   2.560  12.097  0.3750  0.3815  0.0413
42051SOL    HW231991   1.663   2.530  12.093  0.4471 -0.0360  0.3836
42052SOL     OW31992   3.554   0.275   4.899  0.4224 -0.1066  0.0145
42052SOL    HW131993   3.501   0.355   4.899  1.1207  0.3825 -0.8913
42052SOL    HW231994   3.504   0.213   4.951 -0.7867  0.4976 -0.3759
42053SOL     OW31995   6.267   4.182   0.789 -0.1165 -0.0775  0.1490
42053SOL    HW131996   6.197   4.139   0.838  0.7930  0.8513  2.4176
42053SOL    HW231997   6.342   4.124   0.800  0.0975  0.1465 -0.1307
42054SOL     OW31998   8.811  11.526   0.327 -0.1152 -0.1737 -0.2925
42054SOL    HW131999   8.789  11.501   0.238  0.5253  0.6914 -0.7112
42054SOL    HW232000   8.890  11.579   0.318 -1.0701  1.4816  0.5878
42055SOL     OW32001   5.401   1.526  11.220  0.2870  0.2808  0.2521
42055SOL    HW132002   5.322   1.577  11.200  0.2475 -1.0759 -4.0938
42055SOL    HW232003   5.473   1.586  11.203  0.2004  0.2817 -0.1277
42056SOL     OW32004   3.736   9.673   1.602  0.7633 -0.0808  0.1049
42056SOL    HW132005   3.668   9.736   1.628  2.5558  2.9249 -1.8942
42056SOL    HW232006   3.687   9.594   1.578 -1.9385  1.5104 -0.1044
42057SOL     OW32007   8.212  11.483   0.276 -0.5001  0.2135  0.2246
42057SOL    HW132008   8.243  11.441   0.356  2.8790  0.3505 -0.8624
42057SOL    HW232009   8.236  11.575   0.286 -0.2695  0.2787 -0.8444
42058SOL     OW32010   5.749   5.606   3.032 -0.1357  0.1292 -0.1363
42058SOL    HW132011   5.808   5.681   3.033 -1.5779  1.3177  0.3386
42058SOL    HW232012   5.784   5.545   3.097 -0.4304  1.6504  1.5204
42059SOL     OW32013   2.295   1.280   1.851 -0.3128 -0.0812  0.1232
42059SOL    HW132014   2.281   1.375   1.850 -0.8391 -0.1333 -1.5720
42059SOL    HW232015   2.253   1.250   1.771 -0.1460 -1.7593  0.6432
42060SOL     OW32016   2.432   2.925   0.605 -0.0426 -0.5055  0.0090
42060SOL    HW132017   2.370   2.977   0.554 -0.0045  1.0622  1.4710
42060SOL    HW232018   2.378   2.857   0.647 -0.3171 -0.7950 -0.7856
42061SOL     OW32019   3.921  11.634   9.429  0.0568  0.9219 -0.4079
42061SOL    HW132020   3.842  11.616   9.377  0.4384  2.0655 -1.4274
42061SOL    HW232021   3.988  11.578   9.392 -0.6249 -1.3967  1.5996
42062SOL     OW32022   8.179  11.276   8.046 -0.1020 -0.1660  0.5594
42062SOL    HW132023   8.256  11.269   7.991  1.5266 -0.6017  2.7638
42062SOL    HW232024   8.114  11.218   8.006  0.2506  1.0411 -1.9480
42063SOL     OW32025  10.586   4.486   4.035 -0.2939 -0.1626  0.2055
42063SOL    HW132026  10.558   4.565   3.988  1.3837 -0.3126 -1.1589
42063SOL    HW232027  10.681   4.497   4.047 -0.2379 -1.4048  1.1245
42064SOL     OW32028   4.903   7.919  11.083  0.5058 -0.9423  0.6345
42064SOL    HW132029   4.855   7.846  11.123 -0.3392  0.1477  1.6646
42064SOL    HW232030   4.837   7.988  11.073  1.6848  0.3324  1.3997
42065SOL     OW32031   6.748   5.697   6.590 -0.4757 -0.0421 -0.1232
42065SOL    HW132032   6.693   5.701   6.669 -0.4186 -0.8182 -0.0314
42065SOL    HW232033   6.745   5.605   6.564 -1.0290  0.3087 -1.4146
42066SOL     OW32034   1.314   9.367   1.056  0.0023 -0.4266 -0.0583
42066SOL    HW132035   1.397   9.400   1.024 -0.5285  2.8655  1.5097
42066SOL    HW232036   1.336   9.319   1.136  0.3998  1.6449  1.1559
42067SOL     OW32037   7.829   7.293   7.558  0.4826 -0.0160  0.2914
42067SOL    HW132038   7.773   7.345   7.500  0.9810  1.2396  0.9085
42067SOL    HW232039   7.857   7.219   7.503 -0.4403  0.2156 -0.5275
42068SOL     OW32040   4.609   6.511   6.488 -0.1663 -0.7842 -0.4665
42068SOL    HW132041   4.563   6.432   6.518 -1.2107  0.2779  0.8668
42068SOL    HW232042   4.542   6.578   6.485  0.8588  0.2523 -0.8427
42069SOL     OW32043   0.995   3.915   8.223 -0.4027  0.3308 -0.1084
42069SOL    HW132044   0.914   3.964   8.207 -1.3040 -0.9998  0.2093
42069SOL    HW232045   1.017   3.876   8.139 -0.7686 -0.2752  0.0705
42070SOL     OW32046   3.110   5.222   0.185 -0.0375  0.5130 -0.4192
42070SOL    HW132047   3.086   5.285   0.253  0.5719 -0.7300  0.9911
42070SOL    HW232048   3.036   5.161   0.182 -0.1224  0.6353 -0.9911
42071SOL     OW32049   8.574   1.442   3.568  0.4479 -0.0674  0.0961
42071SOL    HW132050   8.619   1.499   3.506  0.1417  0.2831  0.1948
42071SOL    HW232051   8.562   1.495   3.646  0.3569 -0.3372  0.2692
42072SOL     OW32052  11.994  10.818   7.708 -0.0598 -0.0271 -0.2923
42072SOL    HW132053  12.023  10.818   7.617  0.5255 -1.7193 -0.1515
42072SOL    HW232054  11.905  10.783   7.706  0.5331 -1.6110 -0.0982
42073SOL     OW32055   1.854   2.365   5.116  0.1681  0.0363 -0.0519
42073SOL    HW132056   1.882   2.307   5.187 -0.7321 -2.5748 -1.6674
42073SOL    HW232057   1.767   2.396   5.143  0.9915  1.3555  1.1904
42074SOL     OW32058   2.977   9.417   2.426 -0.2254 -0.4189  0.2109
42074SOL    HW132059   3.006   9.340   2.378  0.0020 -1.1971  1.5409
42074SOL    HW232060   3.016   9.491   2.380 -0.3965 -1.0951 -1.0443
42075SOL     OW32061   1.433   7.688  12.160  0.3830  0.4410 -0.2941
42075SOL    HW132062   1.378   7.722  12.090 -0.7240 -0.7452 -0.0423
42075SOL    HW232063   1.372   7.656  12.227  1.3919  2.1349  1.5560
42076SOL     OW32064  12.081   8.113   4.377  0.1480 -0.4497  0.5197
42076SOL    HW132065  12.003   8.154   4.415  0.5535 -0.4088  1.3322
42076SOL    HW232066  12.053   8.026   4.350 -0.5389  0.0793 -0.5508
42077SOL     OW32067   0.385   2.485   6.265  0.1238  0.3185  0.2203
42077SOL    HW132068   0.336   2.408   6.293 -3.5843  2.2399 -0.3748
42077SOL    HW232069   0.371   2.488   6.170  2.1451  0.5709 -0.1102
42078SOL     OW32070   9.665   6.015   1.520 -1.2944  0.4930  0.5955
42078SOL    HW132071   9.608   5.949   1.558  0.9484 -2.1896 -0.3847
42078SOL    HW232072   9.700   5.974   1.440  1.0172  2.4455  0.4830
42079SOL     OW32073   5.346   1.802  11.922  0.0040 -0.3838  0.1753
42079SOL    HW132074   5.368   1.740  11.853 -1.3811  0.1513 -0.7980
42079SOL    HW232075   5.307   1.748  11.991 -2.0782 -0.5588 -1.0591
42080SOL     OW32076   6.520   0.795  12.024 -0.3021 -0.5133 -0.2308
42080SOL    HW132077   6.590   0.758  12.078 -0.2449  0.1882  0.1961
42080SOL    HW232078   6.439   0.763  12.065 -0.3944  2.3552  2.1826
42081SOL     OW32079   6.326   8.450  10.010 -0.9359  0.0300 -0.5550
42081SOL    HW132080   6.360   8.407  10.089  0.1770  0.1018 -0.9752
42081SOL    HW232081   6.402   8.457   9.952 -1.4141  1.2773 -1.0660
42082SOL     OW32082   0.313   6.603   0.994  0.0978  0.1766 -0.6979
42082SOL    HW132083   0.359   6.532   0.949  0.3913 -0.1705  0.1216
42082SOL    HW232084   0.220   6.584   0.980  0.1692 -0.4980 -0.3122
42083SOL     OW32085   5.315   6.758  11.570  0.0323 -0.7214  0.7601
42083SOL    HW132086   5.270   6.702  11.507 -0.3567 -1.0439  1.3166
42083SOL    HW232087   5.392   6.790  11.523 -0.3609 -0.7864  0.0543
42084SOL     OW32088   1.088   5.528   8.830  0.5948 -0.4367 -0.2757
42084SOL    HW132089   1.046   5.599   8.781  0.5622 -0.5560 -0.4221
42084SOL    HW232090   1.099   5.458   8.766 -0.4267 -0.9994  0.1449
42085SOL     OW32091  10.921   3.571   5.505  0.0578  0.0555 -0.4477
42085SOL    HW132092  10.860   3.502   5.477  1.1182 -0.7763 -0.7539
42085SOL    HW232093  10.988   3.572   5.437  1.1737 -0.0535  0.6263
42086SOL     OW32094   3.421  12.275   0.218  0.1889 -0.5394  0.4889
42086SOL    HW132095   3.402  12.216   0.145 -0.1120 -1.5189  1.3457
42086SOL    HW232096   3.387  12.230   0.295  1.2788  0.0933  1.3577
42087SOL     OW32097   4.270   8.839   9.200 -0.0457 -0.1482  0.2852
42087SOL    HW132098   4.224   8.852   9.117 -0.2741 -1.8704  0.1225
42087SOL    HW232099   4.201   8.834   9.266 -0.1186 -2.1389  0.1163
42088SOL     OW32100   1.328   8.347  12.294  0.1062  0.0471 -0.3967
42088SOL    HW132101   1.310   8.437  12.321 -0.1789 -0.3085  0.6295
42088SOL    HW232102   1.373   8.308  12.369 -0.8885 -1.0255 -0.3296
42089SOL     OW32103  11.557   0.542   7.980  0.0841  0.0316 -0.1942
42089SOL    HW132104  11.520   0.599   8.048  0.7142 -1.3844  1.4150
42089SOL    HW232105  11.486   0.483   7.956  0.0255  0.1674 -0.3569
42090SOL     OW32106  11.478   8.059   3.158  0.2539 -0.6511  0.2745
42090SOL    HW132107  11.549   8.070   3.095 -0.0161 -1.0256 -0.1012
42090SOL    HW232108  11.477   7.965   3.177  0.7195 -0.4568  1.2982
42091SOL     OW32109   0.597  10.831  10.943  0.0439  0.3743 -0.9683
42091SOL    HW132110   0.662  10.771  10.980 -0.3427  0.2203 -0.5320
42091SOL    HW232111   0.540  10.852  11.017 -2.2065 -1.8093 -1.9406
42092SOL     OW32112   3.142   8.969   1.300  0.6079 -0.0421  0.2043
42092SOL    HW132113   3.135   9.015   1.216  1.8182 -1.0278 -0.4624
42092SOL    HW232114   3.126   9.037   1.365  2.0546  1.2854 -0.7594
42093SOL     OW32115   7.678   6.281   3.246  0.2786  0.3471  0.0624
42093SOL    HW132116   7.752   6.304   3.301  0.6016 -0.7841  0.1211
42093SOL    HW232117   7.601   6.296   3.301  0.6039 -0.9552  0.9137
42094SOL     OW32118   5.752   2.342   3.724 -0.5627  0.2739  0.4468
42094SOL    HW132119   5.727   2.294   3.803 -1.4005 -0.5578 -0.2856
42094SOL    HW232120   5.731   2.282   3.652  3.7669 -0.6265 -0.3277
42095SOL     OW32121  12.032   1.436   6.945 -0.5313  0.7258 -0.0576
42095SOL    HW132122  12.088   1.491   6.890  0.1590  1.7718  1.6077
42095SOL    HW232123  11.997   1.496   7.011 -1.4610 -0.4419  0.5598
42096SOL     OW32124   1.907   2.364   0.846 -0.1900  0.4584  0.4431
42096SOL    HW132125   1.834   2.303   0.832 -0.5310  0.6103  1.4610
42096SOL    HW232126   1.969   2.344   0.777 -0.2377 -1.1262  0.8312
42097SOL     OW32127   0.488   6.449   1.208  0.0278 -0.8832 -0.2683
42097SOL    HW132128   0.543   6.385   1.164  1.8401  1.7326 -2.1233
42097SOL    HW232129   0.434   6.487   1.138  1.0676  1.5299  0.1129
42098SOL     OW32130   4.049   9.014  12.074 -0.2145 -0.4089 -0.1359
42098SOL    HW132131   4.017   9.050  12.157  1.2380 -1.1483  0.7955
42098SOL    HW232132   4.019   9.076  12.008 -0.2492  0.9569  1.0977
42099SOL     OW32133   7.941   6.531   3.049 -0.4360  0.4241  0.1291
42099SOL    HW132134   7.930   6.482   3.130 -1.1478 -0.4201 -0.4609
42099SOL    HW232135   7.906   6.474   2.981  2.9390 -0.2499 -1.2534
42100SOL     OW32136   1.472   6.261   3.889 -0.1146  0.2371 -0.6398
42100SOL    HW132137   1.557   6.284   3.928  0.1010 -1.6864  0.1138
42100SOL    HW232138   1.463   6.167   3.904 -2.8051  0.5293  0.1067
42101SOL     OW32139  11.084  10.415   5.516 -0.4998 -0.3261  0.3631
42101SOL    HW132140  11.137  10.371   5.582  0.8099  1.1066  0.3086
42101SOL    HW232141  10.994  10.409   5.549  0.1390  0.5331  2.3836
42102SOL     OW32142   0.594   5.473   9.585 -0.2229 -0.3457  0.1496
42102SOL    HW132143   0.625   5.391   9.624 -2.8098 -2.0524 -1.0877
42102SOL    HW232144   0.588   5.455   9.491 -1.8897  0.8331 -0.0299
42103SOL     OW32145  10.429  10.882   7.400 -0.0659  0.1771  0.4783
42103SOL    HW132146  10.466  10.920   7.480  1.1420 -0.1661  0.0928
42103SOL    HW232147  10.435  10.787   7.413  0.8455  0.1155 -0.3313
42104SOL     OW32148  12.222  11.116   2.431 -0.6604 -0.9389 -0.0337
42104SOL    HW132149  12.134  11.124   2.395 -0.8541  0.0536  0.6247
42104SOL    HW232150  12.260  11.041   2.385 -0.9719  0.1224 -2.1266
42105SOL     OW32151   8.918   5.264   3.543 -0.9343  0.3377 -0.3753
42105SOL    HW132152   8.845   5.221   3.588 -0.3791 -0.8171 -0.5573
42105SOL    HW232153   8.984   5.278   3.611 -0.3739 -0.7889 -0.6635
42106SOL     OW32154   6.507  10.303   3.570 -0.2848 -0.1149  0.6986
42106SOL    HW132155   6.457  10.356   3.632  1.6498  1.3147  1.1321
42106SOL    HW232156   6.579  10.268   3.622  0.0852 -0.7959 -0.2531
42107SOL     OW32157   8.836   0.304   8.226  0.4361  0.0526  0.3265
42107SOL    HW132158   8.883   0.298   8.309  1.8784 -0.5234 -0.4813
42107SOL    HW232159   8.889   0.364   8.173  0.6064 -1.0359 -0.8059
42108SOL     OW32160   4.017   8.764  10.701  0.3764 -0.7674 -0.1550
42108SOL    HW132161   4.068   8.688  10.671  0.7684 -0.6332  0.1549
42108SOL    HW232162   3.966   8.730  10.774  0.0177 -0.9004 -0.4612
42109SOL     OW32163   2.417   5.233   4.069 -0.5372 -0.5065  0.2091
42109SOL    HW132164   2.441   5.274   4.152 -1.0798 -1.6245  0.9479
42109SOL    HW232165   2.499   5.221   4.023 -0.3674  1.6305 -0.1815
42110SOL     OW32166   2.003   0.233   2.067 -0.6434 -0.4885 -0.8343
42110SOL    HW132167   2.024   0.318   2.107  1.3970 -1.3073 -0.0324
42110SOL    HW232168   1.970   0.181   2.140 -0.1130 -0.9485 -0.9209
42111SOL     OW32169   4.872   8.055   3.603 -0.6146  0.2055  0.2140
42111SOL    HW132170   4.859   8.043   3.509  1.8884 -0.3416 -0.1394
42111SOL    HW232171   4.916   8.139   3.612  0.6012 -0.4494  0.7030
42112SOL     OW32172  10.674   1.199   6.622 -0.3011 -0.5769 -0.5614
42112SOL    HW132173  10.761   1.204   6.660  0.6402  0.2844 -2.6432
42112SOL    HW232174  10.620   1.157   6.689  1.2805  0.5194  1.4890
42113SOL     OW32175   6.733  10.234   8.767 -0.9803  0.3523 -0.4290
42113SOL    HW132176   6.643  10.204   8.752 -1.1972  0.8831 -0.2037
42113SOL    HW232177   6.744  10.307   8.705 -0.0837 -0.8686 -1.7855
42114SOL     OW32178  10.028   9.274   8.600 -0.0700  0.3180  0.1647
42114SOL    HW132179   9.998   9.361   8.573 -0.2053  0.9679  2.2516
42114SOL    HW232180  10.088   9.290   8.673 -0.9225 -1.3612  1.3137
42115SOL     OW32181   6.578   7.207   8.754 -0.0904 -0.2197  0.1094
42115SOL    HW132182   6.557   7.120   8.789 -2.0132  0.2033  0.0975
42115SOL    HW232183   6.585   7.193   8.659  1.2301 -0.6374  0.2488
42116SOL     OW32184   3.301   1.708   9.901 -0.1335  0.2586 -0.0294
42116SOL    HW132185   3.356   1.664   9.835 -0.3603 -0.8814  0.5156
42116SOL    HW232186   3.356   1.779   9.934  0.4897  0.0048 -0.4856
42117SOL     OW32187   8.723   4.625   6.828 -0.1813 -0.1216  0.3031
42117SOL    HW132188   8.803   4.673   6.851  0.4565 -0.5968 -0.8350
42117SOL    HW232189   8.755   4.545   6.787 -1.2268  0.3647 -1.5756
42118SOL     OW32190   5.119   8.005  10.531  0.0107 -0.0305 -0.3714
42118SOL    HW132191   5.183   7.936  10.511  0.2636  0.2937 -0.7118
42118SOL    HW232192   5.052   7.996  10.464 -0.4274 -0.5294  0.1376
42119SOL     OW32193  10.473   3.105  11.437  0.2005 -0.7391 -0.2995
42119SOL    HW132194  10.467   3.010  11.444  1.3468 -0.7580  0.8990
42119SOL    HW232195  10.441   3.137  11.522 -0.2002 -0.0496 -0.7029
42120SOL     OW32196   4.223   8.516  10.763 -0.0140  0.3212  0.4451
42120SOL    HW132197   4.221   8.421  10.755 -0.1868  0.4349 -1.3295
42120SOL    HW232198   4.153   8.537  10.825 -0.3664 -0.6723  0.4011
42121SOL     OW32199   4.171   3.812   8.850 -0.4263  0.1340  0.8247
42121SOL    HW132200   4.223   3.734   8.872 -1.0594 -0.3680  0.5999
42121SOL    HW232201   4.212   3.883   8.898  1.9708  0.2515 -1.1992
42122SOL     OW32202   6.308   9.888  11.370  0.0864  1.1873 -0.1953
42122SOL    HW132203   6.317   9.796  11.345  0.5626  0.4218  2.5226
42122SOL    HW232204   6.378   9.933  11.321  0.5967 -0.0914 -0.6681
42123SOL     OW32205   8.688   5.136   5.936 -0.6830  0.5516 -0.1267
42123SOL    HW132206   8.764   5.083   5.959  0.5196  1.5030 -1.6725
42123SOL    HW232207   8.648   5.161   6.019 -0.6488 -1.8134  0.6615
42124SOL     OW32208   5.848   9.103   6.468  0.3685  0.1173 -0.7169
42124SOL    HW132209   5.882   9.090   6.380 -0.2067  1.3373 -1.1412
42124SOL    HW232210   5.753   9.113   6.456  0.1982 -0.4110  0.1174
42125SOL     OW32211   2.122   0.081   7.965 -0.3750  0.3879  0.7789
42125SOL    HW132212   2.157   0.105   7.879 -2.2327 -0.2984 -0.2191
42125SOL    HW232213   2.060   0.151   7.985 -0.9529 -0.1677  0.9320
42126SOL     OW32214   0.081   8.065   2.933 -0.3551 -0.2867 -0.3852
42126SOL    HW132215   0.079   7.995   2.998  1.3295  0.0963  0.1225
42126SOL    HW232216   0.126   8.027   2.858 -0.5592 -0.1303 -0.5876
42127SOL     OW32217   0.510  11.551   1.707 -0.8024 -0.4721 -0.3799
42127SOL    HW132218   0.567  11.482   1.673  0.7785  1.0359 -0.8978
42127SOL    HW232219   0.483  11.600   1.630 -0.6717  0.4149  0.1349
42128SOL     OW32220   1.000  12.314   9.911 -0.0912 -0.8285  0.7596
42128SOL    HW132221   1.056  12.252   9.958  2.6684  0.3506 -0.7740
42128SOL    HW232222   1.029  12.400   9.942 -1.1440 -0.1798 -0.0259
42129SOL     OW32223   7.456   9.111   0.081  0.0409  0.1669 -1.2194
42129SOL    HW132224   7.515   9.125   0.007  1.0786 -1.4406 -0.7225
42129SOL    HW232225   7.493   9.164   0.151  1.1021 -1.0776 -0.8171
42130SOL     OW32226   0.360  10.674   3.101 -0.0512 -0.2184  0.4953
42130SOL    HW132227   0.393  10.754   3.142 -0.5376  0.0348  0.4006
42130SOL    HW232228   0.285  10.648   3.156 -0.9620  0.3432 -0.4552
42131SOL     OW32229   0.064   5.358   1.410 -0.5090  0.7288 -0.6839
42131SOL    HW132230   0.149   5.364   1.366 -0.7016 -1.7940 -1.5588
42131SOL    HW232231   0.081   5.388   1.499  0.8744  1.9357 -1.3080
42132SOL     OW32232   0.798  10.850   9.852  0.2474  0.1266  0.0371
42132SOL    HW132233   0.869  10.909   9.876  0.0440  0.7600 -0.8601
42132SOL    HW232234   0.740  10.903   9.797  0.4348 -1.0752 -1.3911
42133SOL     OW32235   4.969   3.126  10.449  0.3153 -0.3828  1.0155
42133SOL    HW132236   4.933   3.056  10.396  1.2791  0.6973 -1.1875
42133SOL    HW232237   5.053   3.092  10.480  1.2197  0.0354 -0.8138
42134SOL     OW32238   9.734  11.518   1.492  0.2877  0.1614  0.3184
42134SOL    HW132239   9.748  11.596   1.439 -0.3862  1.1637  1.5589
42134SOL    HW232240   9.772  11.540   1.577  2.1419 -1.7341  0.0559
42135SOL     OW32241  10.418   0.833  11.307 -0.2032 -0.2498 -0.2956
42135SOL    HW132242  10.359   0.830  11.231  1.6949 -2.5589 -1.8348
42135SOL    HW232243  10.471   0.912  11.293 -1.3751  0.6084 -0.0795
42136SOL     OW32244   3.173   6.779   8.210  0.2295  0.2997  0.4335
42136SOL    HW132245   3.111   6.707   8.202  0.2292  0.2244  1.0549
42136SOL    HW232246   3.165   6.827   8.128 -1.6555  1.0881  1.0176
42137SOL     OW32247  10.109  11.617   3.888  0.1242 -0.5638  0.4128
42137SOL    HW132248  10.185  11.585   3.937  0.9347 -1.5163 -1.3694
42137SOL    HW232249  10.136  11.705   3.858  1.0165 -1.2951 -1.0832
42138SOL     OW32250   0.053   4.097  10.741  0.1418 -0.3150 -0.3682
42138SOL    HW132251   0.116   4.048  10.795  0.2764  1.2055  0.9481
42138SOL    HW232252  -0.025   4.102  10.795 -0.2797 -0.1032 -0.9950
42139SOL     OW32253   2.262   5.320   8.339 -0.1276  0.0136  0.7145
42139SOL    HW132254   2.335   5.297   8.281 -0.7316 -0.8086  0.2478
42139SOL    HW232255   2.209   5.381   8.288  0.5791  1.1667  1.3176
42140SOL     OW32256  10.700   7.826   5.602  0.2309 -0.2517  0.3133
42140SOL    HW132257  10.656   7.910   5.588  0.8979  0.0502 -0.0119
42140SOL    HW232258  10.793   7.847   5.604  0.6112 -1.2643 -2.3182
42141SOL     OW32259   6.615   3.187  12.324 -0.4517  0.1719 -0.6530
42141SOL    HW132260   6.583   3.225  12.242 -0.9002  1.3675  0.0378
42141SOL    HW232261   6.627   3.263  12.382  0.3319 -0.5989  0.2260
42142SOL     OW32262   7.879  10.638   6.991 -0.8085  0.6149  0.7874
42142SOL    HW132263   7.842  10.553   6.970 -2.3636  1.4471  0.0041
42142SOL    HW232264   7.832  10.667   7.069  0.7097  0.1823  1.9248
42143SOL     OW32265  11.612   7.252   5.371  0.3601 -0.3536 -0.3689
42143SOL    HW132266  11.594   7.308   5.295 -0.9054 -0.8648 -0.4580
42143SOL    HW232267  11.543   7.186   5.370 -0.3984  0.3136  1.9170
42144SOL     OW32268   7.797   4.166   5.644  0.0946  0.2102  0.2851
42144SOL    HW132269   7.737   4.108   5.691  2.0817 -1.1422  1.2718
42144SOL    HW232270   7.741   4.213   5.582 -2.2184  0.1262  2.1567
42145SOL     OW32271   6.770   8.768   8.666 -0.1245  0.0136  0.2636
42145SOL    HW132272   6.683   8.743   8.699  0.0682 -1.1407 -0.0603
42145SOL    HW232273   6.761   8.766   8.571  0.2482 -0.0718  0.2282
42146SOL     OW32274   8.210   8.379   3.621 -0.1046  0.8227  0.6577
42146SOL    HW132275   8.158   8.384   3.701 -0.7294  0.7419  0.2662
42146SOL    HW232276   8.174   8.447   3.564  0.1599  0.7031  0.3412
42147SOL     OW32277   1.111   9.412   0.734  0.4320  0.4293  0.1315
42147SOL    HW132278   1.083   9.503   0.730  1.3170  0.7128  0.3623
42147SOL    HW232279   1.075   9.373   0.654 -1.5015  0.5143  0.9014
42148SOL     OW32280  11.799   8.731   9.565 -0.5647  0.3290 -0.1508
42148SOL    HW132281  11.867   8.798   9.569 -0.5917  0.3097  1.9554
42148SOL    HW232282  11.797   8.695   9.654 -1.0581 -1.9568 -1.0214
42149SOL     OW32283   2.349   1.518   8.117  0.1382  0.0760 -0.7120
42149SOL    HW132284   2.323   1.502   8.027  0.7124  0.0613 -0.8824
42149SOL    HW232285   2.279   1.571   8.154 -0.5646 -0.7081 -0.8860
42150SOL     OW32286   8.161   6.074   2.909 -0.3160 -0.0014 -0.3113
42150SOL    HW132287   8.088   6.017   2.886 -1.4501  1.1749  0.1953
42150SOL    HW232288   8.197   6.037   2.989  0.7939 -1.5763 -1.4880
42151SOL     OW32289  10.671  11.588  12.310  0.1116  0.2084 -0.6645
42151SOL    HW132290  10.660  11.617  12.401  2.5801 -0.9596  0.0978
42151SOL    HW232291  10.590  11.615  12.267 -1.2467  0.6341  1.9107
42152SOL     OW32292   0.005   6.007   1.490 -0.3687 -0.0856  0.2473
42152SOL    HW132293  -0.012   5.969   1.404  0.1910  2.2760 -1.0037
42152SOL    HW232294   0.083   5.961   1.522 -0.3242 -0.6970 -0.7025
42153SOL     OW32295   9.573   9.644   5.963  0.1643  0.6558  0.1910
42153SOL    HW132296   9.618   9.592   5.896  1.0461  2.2095 -0.4900
42153SOL    HW232297   9.614   9.616   6.045 -0.9262 -1.2661  0.1421
42154SOL     OW32298   9.558   6.362   1.194 -0.1924  0.4615  0.0073
42154SOL    HW132299   9.637   6.411   1.172 -1.0335  1.6844 -0.4310
42154SOL    HW232300   9.569   6.337   1.285  0.2686  1.5047  0.2514
42155SOL     OW32301   5.954   5.161   2.277 -0.4046 -0.1225 -0.0031
42155SOL    HW132302   6.015   5.179   2.206  0.6571  3.1787  1.5520
42155SOL    HW232303   5.877   5.213   2.257  0.5565  2.2517  1.9154
42156SOL     OW32304   2.371   3.445  10.348 -0.0310  0.4340  0.0571
42156SOL    HW132305   2.290   3.449  10.296  0.5347  1.5366 -0.7918
42156SOL    HW232306   2.353   3.498  10.425 -0.2522  0.3800  0.0418
42157SOL     OW32307   7.241  12.170   6.207 -0.1380 -0.1626  0.2360
42157SOL    HW132308   7.275  12.215   6.284  0.0937  0.1140 -0.0237
42157SOL    HW232309   7.182  12.234   6.166  0.5814  0.1023 -0.4103
42158SOL     OW32310  11.323   4.481   4.495 -0.3454 -0.0671  0.2560
42158SOL    HW132311  11.373   4.554   4.531  1.3878 -0.2949 -1.4934
42158SOL    HW232312  11.294   4.511   4.409 -1.5550 -0.6516  0.4495
42159SOL     OW32313   7.563   2.147   7.618  0.3126  0.1630 -0.2615
42159SOL    HW132314   7.477   2.187   7.608  0.5490  0.7523  0.0499
42159SOL    HW232315   7.557   2.098   7.700  0.2712  0.1795 -0.2549
42160SOL     OW32316   2.634   2.693   0.480  0.0852 -0.5185  0.5055
42160SOL    HW132317   2.547   2.731   0.495 -0.1719 -0.3425 -1.2389
42160SOL    HW232318   2.674   2.691   0.567 -1.5342 -0.3009  1.3043
42161SOL     OW32319   8.748   1.149   0.722 -0.2151  0.1377 -0.0119
42161SOL    HW132320   8.779   1.099   0.797  1.4759  0.5725 -0.3882
42161SOL    HW232321   8.688   1.089   0.677 -0.0642 -0.6771  0.8330
42162SOL     OW32322   3.143   3.835  11.649  0.3354 -0.0531  0.6241
42162SOL    HW132323   3.168   3.870  11.563  1.0522  0.1240  0.8961
42162SOL    HW232324   3.061   3.880  11.669  0.8763  0.9667  0.6469
42163SOL     OW32325   8.855   2.821   4.118  0.4024  0.3061 -0.6300
42163SOL    HW132326   8.827   2.820   4.210  1.8531 -5.2860  0.1248
42163SOL    HW232327   8.774   2.814   4.068 -0.3668  2.9431  0.0712
42164SOL     OW32328   6.520   7.030   3.360 -0.0180  0.4628 -0.5811
42164SOL    HW132329   6.563   7.003   3.279  0.1892  1.3017 -0.7582
42164SOL    HW232330   6.579   7.000   3.429  0.3250  0.6660 -0.7822
42165SOL     OW32331   4.073   9.467  10.186  0.1470 -0.5367 -0.1134
42165SOL    HW132332   4.145   9.453  10.247 -0.5364 -0.2744  0.7842
42165SOL    HW232333   4.099   9.544  10.135 -0.9040  1.7428  2.5135
42166SOL     OW32334  10.802  10.312  11.487  0.2112  0.3272 -0.4529
42166SOL    HW132335  10.728  10.373  11.491  0.9567  1.1716  1.2104
42166SOL    HW232336  10.761  10.225  11.490 -0.8552  0.6666 -2.6946
42167SOL     OW32337  11.788   9.948   5.481 -0.2204 -0.2189  0.4436
42167SOL    HW132338  11.725   9.906   5.539  0.1254 -0.4619  0.6478
42167SOL    HW232339  11.858   9.884   5.470 -0.3224 -0.2086 -0.3179
42168SOL     OW32340   7.670  11.486  12.035  0.2544 -0.2457  0.3686
42168SOL    HW132341   7.701  11.459  11.949 -1.3880 -2.1660  0.2966
42168SOL    HW232342   7.601  11.549  12.016  0.4206 -0.0812  0.3098
42169SOL     OW32343   6.628   5.137   7.995 -0.9402  0.4742  0.2978
42169SOL    HW132344   6.618   5.167   7.905  0.3268 -0.1319 -0.0766
42169SOL    HW232345   6.550   5.085   8.013 -0.9196  0.1105 -0.6576
42170SOL     OW32346   2.856  11.310   6.024  0.2883  0.9253  0.1778
42170SOL    HW132347   2.837  11.266   6.107 -0.2734 -0.0174 -0.4240
42170SOL    HW232348   2.927  11.258   5.986  0.7961  1.5708  0.2303
42171SOL     OW32349   8.661   9.800   3.628 -0.6393 -0.0387  0.2662
42171SOL    HW132350   8.612   9.871   3.670  2.7005  1.9367  1.1682
42171SOL    HW232351   8.653   9.726   3.688 -3.1607 -0.1447 -0.0824
42172SOL     OW32352  11.621   7.718   6.678  0.5245  0.4145  0.0645
42172SOL    HW132353  11.580   7.659   6.615 -1.3895  2.5965 -0.8356
42172SOL    HW232354  11.605   7.677   6.763  0.1510 -0.8530 -0.5980
42173SOL     OW32355   2.500   7.726   2.693  0.3012 -0.2623 -0.1710
42173SOL    HW132356   2.423   7.674   2.671 -0.2620  1.0169 -1.3665
42173SOL    HW232357   2.522   7.699   2.783 -2.6175  0.6107  0.9117
42174SOL     OW32358   5.600   3.008  10.283  0.5378 -0.2070 -0.2312
42174SOL    HW132359   5.608   2.942  10.352 -0.5816  0.4372  0.5611
42174SOL    HW232360   5.690   3.028  10.259  0.9616 -0.5973  0.9265
42175SOL     OW32361   3.964   1.081   6.587 -0.5195 -0.1461  0.5625
42175SOL    HW132362   4.012   1.120   6.514  0.7392  1.5172  2.1825
42175SOL    HW232363   3.945   0.991   6.558 -0.5738  0.6184 -1.9855
42176SOL     OW32364   5.775   3.738   8.263 -0.0474  0.0234  0.1335
42176SOL    HW132365   5.711   3.667   8.260  1.1053 -1.1054  1.0898
42176SOL    HW232366   5.792   3.759   8.171 -1.0065 -0.3642 -0.1440
42177SOL     OW32367   1.957   1.366   4.991  0.1951 -0.4088  0.2119
42177SOL    HW132368   1.960   1.337   5.082  0.2251  0.7246  0.5841
42177SOL    HW232369   2.040   1.409   4.976 -0.0288 -0.1097 -0.1900
42178SOL     OW32370   8.223  11.246  11.973  0.0386 -0.1122 -0.2061
42178SOL    HW132371   8.145  11.285  12.013  0.5623 -1.1447  1.9719
42178SOL    HW232372   8.194  11.214  11.888 -1.8528 -0.2356  0.4565
42179SOL     OW32373   4.477   1.989   7.186  0.7233 -0.2445  0.3377
42179SOL    HW132374   4.445   2.032   7.266 -0.1973 -1.7188  0.8151
42179SOL    HW232375   4.414   1.918   7.171  2.0336 -1.2745 -0.5258
42180SOL     OW32376   2.763   8.204   0.738  0.3476 -0.2152  0.0709
42180SOL    HW132377   2.847   8.218   0.692 -0.1248  0.4978 -0.5953
42180SOL    HW232378   2.733   8.292   0.761  0.6657 -0.5690  1.9663
42181SOL     OW32379   3.453   6.955  12.250  0.2866 -0.0679 -0.2706
42181SOL    HW132380   3.498   6.978  12.331  0.3830  0.6504 -0.5200
42181SOL    HW232381   3.426   6.864  12.262  1.3259 -0.3360  0.1065
42182SOL     OW32382   6.135  12.091   7.694 -0.3074  0.0435 -0.0739
42182SOL    HW132383   6.135  12.013   7.639  0.0334 -0.0745  0.0914
42182SOL    HW232384   6.172  12.159   7.638 -0.7659  0.1294 -0.2756
42183SOL     OW32385  11.977   3.287   3.272  0.0757 -0.3235 -0.5342
42183SOL    HW132386  11.980   3.226   3.345  3.0979 -0.7915 -0.9198
42183SOL    HW232387  12.054   3.265   3.219  1.7579  4.1278 -0.3689
42184SOL     OW32388   1.718   0.192  10.962 -0.0432 -0.0545  0.6836
42184SOL    HW132389   1.761   0.113  10.928 -0.0470  0.9956 -1.9898
42184SOL    HW232390   1.774   0.220  11.034  1.0126 -1.4388  0.4557
42185SOL     OW32391   3.375   9.487   6.840 -0.0480  0.1258 -0.8386
42185SOL    HW132392   3.368   9.408   6.786 -0.7142  0.7733 -1.7052
42185SOL    HW232393   3.464   9.520   6.824  0.5323 -0.8741  0.1517
42186SOL     OW32394   3.809   5.538   1.884 -0.5899 -0.1438 -0.3575
42186SOL    HW132395   3.757   5.501   1.955 -1.1611  0.4363 -0.4682
42186SOL    HW232396   3.899   5.512   1.904 -0.8432 -0.6481  0.1528
42187SOL     OW32397   6.456   5.659   6.670 -0.2481  0.1389 -0.6236
42187SOL    HW132398   6.479   5.669   6.577 -0.5706  0.2612 -0.6913
42187SOL    HW232399   6.362   5.671   6.672 -0.1910  0.5230 -0.2212
42188SOL     OW32400   3.394   3.526   5.061 -0.2695  0.0481 -0.5872
42188SOL    HW132401   3.393   3.434   5.086 -1.0445  0.1771 -0.0682
42188SOL    HW232402   3.304   3.556   5.078 -0.0611  0.8654 -0.8629
42189SOL     OW32403   6.836   6.455   2.648  0.4657  0.2130 -0.3803
42189SOL    HW132404   6.818   6.361   2.652  3.5468 -0.4693 -0.0599
42189SOL    HW232405   6.837   6.483   2.739 -0.9375  0.7242 -0.4951
42190SOL     OW32406   5.949   9.290   4.464 -0.6350 -0.4004 -0.5930
42190SOL    HW132407   5.912   9.222   4.407 -0.8787  0.4268 -1.4582
42190SOL    HW232408   6.015   9.244   4.516  0.5621 -0.9652 -2.5015
42191SOL     OW32409   2.777   8.820   3.356  0.2762 -0.1736  0.0120
42191SOL    HW132410   2.781   8.910   3.323  0.6880  0.5506  1.8812
42191SOL    HW232411   2.864   8.804   3.393 -0.7221 -0.0561  2.6938
42192SOL     OW32412   1.890  10.174   8.040 -0.0337  0.6761  0.0120
42192SOL    HW132413   1.802  10.211   8.030 -0.1493  0.1927 -0.8690
42192SOL    HW232414   1.916  10.196   8.130 -0.6304  1.7295 -0.0597
42193SOL     OW32415   8.612   7.558   0.739  0.0834 -0.5911 -0.4095
42193SOL    HW132416   8.702   7.567   0.706  0.1422 -0.6842 -0.2814
42193SOL    HW232417   8.557   7.594   0.671  0.2127 -0.6304 -0.5357
42194SOL     OW32418   0.059   0.617   7.009 -0.0269  0.0057 -0.2504
42194SOL    HW132419   0.046   0.589   7.100 -0.1225  0.4136 -0.1363
42194SOL    HW232420   0.051   0.537   6.958 -0.0816 -0.2100  0.0928
42195SOL     OW32421  11.665  10.126   7.311  0.1416  0.2235 -0.0316
42195SOL    HW132422  11.604  10.079   7.255 -0.8623  1.3507  0.0862
42195SOL    HW232423  11.750  10.084   7.294 -0.6045 -1.1995 -0.3766
42196SOL     OW32424   4.856   0.968   1.711 -0.2622 -0.5688 -0.2069
42196SOL    HW132425   4.820   0.908   1.777 -0.3569 -0.4799 -0.1767
42196SOL    HW232426   4.914   1.026   1.761 -1.8925  0.8140  0.1637
42197SOL     OW32427  10.106   7.782   1.164 -0.6381  0.0524 -0.2180
42197SOL    HW132428  10.186   7.833   1.172 -0.3035 -0.4172 -0.5216
42197SOL    HW232429  10.096   7.768   1.070 -1.2069  0.3147 -0.2001
42198SOL     OW32430   8.726   8.075   0.666 -0.3611  0.0684  0.0528
42198SOL    HW132431   8.747   8.135   0.595 -0.9457 -0.9328 -1.0065
42198SOL    HW232432   8.636   8.047   0.649  0.3848 -2.3053 -0.4459
42199SOL     OW32433   9.988   2.163   4.086  0.4493  0.0749 -0.3927
42199SOL    HW132434  10.076   2.137   4.115  0.1233 -1.2128 -0.4823
42199SOL    HW232435   9.999   2.186   3.994  0.4057 -1.8987 -0.9448
42200SOL     OW32436   0.459   5.598   0.164 -0.4229  0.7300  0.4830
42200SOL    HW132437   0.520   5.626   0.095 -0.7155  0.9719  0.3204
42200SOL    HW232438   0.418   5.519   0.130  1.7276 -1.0300  1.6861
42201SOL     OW32439   3.555   9.467   2.487 -0.4074 -0.8525  0.5813
42201SOL    HW132440   3.528   9.554   2.459 -0.8140 -1.2539 -0.3281
42201SOL    HW232441   3.479   9.411   2.468 -0.4879 -1.2560  1.9874
42202SOL     OW32442   1.765   4.389   3.001 -0.1143 -0.1456  0.1280
42202SOL    HW132443   1.797   4.329   2.934 -0.9168  0.2872 -0.6673
42202SOL    HW232444   1.774   4.341   3.083  1.1205 -0.5895 -0.2466
42203SOL     OW32445  11.771   3.057   7.771 -0.7817  0.2276 -0.6802
42203SOL    HW132446  11.731   3.120   7.831 -0.6078  0.1775 -0.5139
42203SOL    HW232447  11.845   3.021   7.819  1.1924  2.3165 -1.9648
42204SOL     OW32448   3.306   7.662   9.327 -0.4701 -0.1853 -0.7989
42204SOL    HW132449   3.364   7.604   9.377 -2.6029 -0.3584  1.6651
42204SOL    HW232450   3.295   7.617   9.243 -0.3828 -2.2792  0.2539
42205SOL     OW32451   1.327   9.305   2.049  0.1973 -0.1213 -0.2936
42205SOL    HW132452   1.416   9.270   2.050 -0.3134 -1.4945  1.5506
42205SOL    HW232453   1.330   9.377   1.986  2.3567 -0.7605 -0.9860
42206SOL     OW32454  10.820   2.099   8.889  0.3669  0.2941  0.4377
42206SOL    HW132455  10.905   2.131   8.919  0.0794 -1.3571  3.3938
42206SOL    HW232456  10.764   2.177   8.889  1.2920  0.9811  0.7902
42207SOL     OW32457   4.179   8.460   8.875  0.0513  0.1997 -0.0095
42207SOL    HW132458   4.144   8.518   8.808 -0.4392  1.4754  1.2992
42207SOL    HW232459   4.234   8.517   8.929  1.6316 -1.1096 -0.1735
42208SOL     OW32460   4.870   5.278   5.940 -0.2896 -0.4520 -0.4699
42208SOL    HW132461   4.876   5.218   6.015  0.6499 -0.3239 -0.4285
42208SOL    HW232462   4.788   5.326   5.954  1.7518  2.5798  2.8005
42209SOL     OW32463   8.422  12.210   1.544  0.2086 -0.2609 -0.4603
42209SOL    HW132464   8.508  12.224   1.583 -0.3771  0.0822  0.7715
42209SOL    HW232465   8.426  12.256   1.460  0.9422  0.4949 -0.0297
42210SOL     OW32466   3.710   0.837   2.290  0.4161 -0.1664 -0.5740
42210SOL    HW132467   3.791   0.888   2.281  1.2068 -1.4240 -0.8684
42210SOL    HW232468   3.733   0.766   2.349  0.1358 -1.6695 -2.1819
42211SOL     OW32469   3.492   4.209   0.156 -0.6458 -0.4794 -0.0724
42211SOL    HW132470   3.519   4.297   0.181 -1.1336 -0.2455 -0.3786
42211SOL    HW232471   3.439   4.178   0.230  2.3999 -1.9073  1.7664
42212SOL     OW32472   5.206   6.921   0.739  0.2778  0.6364  0.0355
42212SOL    HW132473   5.138   6.906   0.805 -1.0691  0.4016 -1.3701
42212SOL    HW232474   5.260   6.842   0.743 -0.3593  0.1994  0.1965
42213SOL     OW32475   9.697   0.269   8.291 -0.0232  0.2486  0.1448
42213SOL    HW132476   9.764   0.201   8.287  1.0028  1.2518 -0.2495
42213SOL    HW232477   9.632   0.243   8.225  0.3370 -0.3676  0.0308
42214SOL     OW32478   7.848   3.390  11.143 -0.3229  0.0545  0.1301
42214SOL    HW132479   7.792   3.319  11.174  1.0367 -1.0376  0.1753
42214SOL    HW232480   7.927   3.384  11.196  0.5706  0.4349 -1.1016
42215SOL     OW32481   4.651   8.578   8.210  0.0960 -0.1508 -0.1880
42215SOL    HW132482   4.658   8.577   8.306  0.1710 -0.9688 -0.1899
42215SOL    HW232483   4.558   8.565   8.193 -0.1560  1.5644 -0.2237
42216SOL     OW32484   0.226  11.605   0.839  0.1525 -0.0570  0.1835
42216SOL    HW132485   0.316  11.590   0.812 -0.5198 -0.7359 -1.8505
42216SOL    HW232486   0.208  11.695   0.811 -0.4997 -0.7133 -1.6579
42217SOL     OW32487   2.492   3.321   4.233 -0.2534  0.1360  0.0510
42217SOL    HW132488   2.417   3.369   4.269 -0.4116 -0.7163  0.8994
42217SOL    HW232489   2.567   3.376   4.255 -0.5871  0.8597 -0.5582
42218SOL     OW32490   1.812   6.489   9.288 -0.1066  1.0677  0.5072
42218SOL    HW132491   1.809   6.580   9.258  0.3462  1.8101  2.5750
42218SOL    HW232492   1.739   6.481   9.349  0.1237  0.1668  0.6794
42219SOL     OW32493   8.231   8.081   6.049 -0.2812 -0.0192 -0.4765
42219SOL    HW132494   8.143   8.087   6.085 -0.2344  1.4914 -0.5629
42219SOL    HW232495   8.220   8.095   5.955  0.1464  1.2865 -0.3502
42220SOL     OW32496  10.724   7.477   5.850 -0.3210 -0.1986  0.4096
42220SOL    HW132497  10.707   7.384   5.867 -0.0474 -0.2518  0.3932
42220SOL    HW232498  10.641   7.510   5.814 -1.0079 -0.0146  2.0934
42221SOL     OW32499   7.928   2.618  12.207 -0.1405  0.3469  0.4096
42221SOL    HW132500   7.947   2.701  12.249 -0.0020 -0.2073  1.4632
42221SOL    HW232501   7.854   2.582  12.256  1.2653 -1.2145  1.4716
42222SOL     OW32502   5.751   7.003   2.174 -0.2021  0.0933  0.0624
42222SOL    HW132503   5.700   6.928   2.204  0.3992 -0.7728 -1.0075
42222SOL    HW232504   5.769   6.984   2.082  0.0563  1.5105 -0.2025
42223SOL     OW32505  11.549   2.639   7.522 -0.4981  0.4524  0.2944
42223SOL    HW132506  11.460   2.674   7.518 -0.1498  1.4076  0.7579
42223SOL    HW232507  11.579   2.640   7.431 -1.9222 -2.5422 -0.3646
42224SOL     OW32508   1.147   7.517   2.742 -0.7189 -0.1029  0.4093
42224SOL    HW132509   1.106   7.568   2.672 -0.2027 -0.4870 -0.1754
42224SOL    HW232510   1.134   7.570   2.821 -0.9153  0.5387 -0.0499
42225SOL     OW32511   0.224  10.899   3.303 -0.5272 -0.0349 -0.6306
42225SOL    HW132512   0.238  10.968   3.368 -1.8472 -2.2512  2.2344
42225SOL    HW232513   0.150  10.929   3.251 -2.8903 -0.3004  2.3316
42226SOL     OW32514   9.200   4.197   0.858  0.8862 -0.1552  0.8549
42226SOL    HW132515   9.217   4.258   0.787  0.8892  1.0252  1.8290
42226SOL    HW232516   9.197   4.252   0.937  2.0807 -1.5362  1.9352
42227SOL     OW32517   0.909   8.173  10.351 -0.3330  0.3032  0.2661
42227SOL    HW132518   0.874   8.114  10.418 -2.3179  0.2738 -0.7348
42227SOL    HW232519   0.895   8.127  10.268  2.2086  0.2725 -0.2412
42228SOL     OW32520   3.988   5.857   1.981 -0.3807  0.1409 -0.2928
42228SOL    HW132521   4.041   5.935   1.999  0.0355 -0.3357  0.5827
42228SOL    HW232522   3.979   5.814   2.066  0.4157 -1.4191 -0.9808
42229SOL     OW32523  12.251   2.163  11.197  0.3137 -0.1567 -0.3485
42229SOL    HW132524  12.208   2.215  11.129  0.6858 -0.1409 -0.5788
42229SOL    HW232525  12.254   2.075  11.162 -1.6522 -0.6695  0.6705
42230SOL     OW32526  10.212   2.754   4.974  0.2968 -0.1471  0.4544
42230SOL    HW132527  10.162   2.674   4.959  0.6786 -0.0670 -1.4294
42230SOL    HW232528  10.220   2.794   4.888 -0.5136  2.3330  1.4512
42231SOL     OW32529   7.457   8.857  12.100  0.0166 -0.4173 -0.0646
42231SOL    HW132530   7.477   8.941  12.058 -3.0281 -0.5713 -2.1307
42231SOL    HW232531   7.373   8.871  12.142  0.6190 -1.8100  1.6868
42232SOL     OW32532   3.952   4.441   8.167  0.3816  0.0808  0.0660
42232SOL    HW132533   3.978   4.457   8.258  0.4018  1.3397 -0.1405
42232SOL    HW232534   3.864   4.403   8.174  1.1951 -1.7729  0.6695
42233SOL     OW32535   3.327   8.201   0.829 -0.3202  0.3823  0.5546
42233SOL    HW132536   3.409   8.240   0.798  0.4155 -1.0796  0.5724
42233SOL    HW232537   3.309   8.132   0.766 -3.1643  2.4719 -1.1855
42234SOL     OW32538   1.837   5.207   5.465  0.3487 -0.1359 -0.0914
42234SOL    HW132539   1.780   5.244   5.397  1.3937  4.7982  1.3298
42234SOL    HW232540   1.782   5.203   5.543  0.6066 -0.4730  0.0753
42235SOL     OW32541  11.889   7.107   8.660 -0.6895 -0.5104 -0.0299
42235SOL    HW132542  11.913   7.056   8.737  0.4861 -2.3179 -1.4857
42235SOL    HW232543  11.941   7.187   8.667  0.6473 -1.3720  0.2701
42236SOL     OW32544   6.664   9.330   8.446  0.5337 -0.6054  0.2277
42236SOL    HW132545   6.673   9.361   8.356  1.5623  0.5519  0.6972
42236SOL    HW232546   6.571   9.312   8.456 -0.4720  3.6182  0.2462
42237SOL     OW32547   3.138   3.699   3.085  0.2426  0.2873 -0.1534
42237SOL    HW132548   3.078   3.636   3.046  0.4304 -0.1421  0.2389
42237SOL    HW232549   3.172   3.749   3.011 -0.6586  0.5951 -0.3735
42238SOL     OW32550   5.002   5.213   0.539 -0.0801 -0.1596 -0.0377
42238SOL    HW132551   5.065   5.171   0.597 -0.2232  0.0215  0.2557
42238SOL    HW232552   4.932   5.149   0.529  0.0703 -0.2948 -0.2268
42239SOL     OW32553   2.314   2.303   0.769 -0.3469 -0.1489  0.4593
42239SOL    HW132554   2.343   2.282   0.858 -1.7263 -0.3972  0.8659
42239SOL    HW232555   2.396   2.319   0.721  0.5056 -1.5685  1.3609
42240SOL     OW32556   0.157   9.395  10.705 -0.1410  0.5779 -0.0377
42240SOL    HW132557   0.136   9.332  10.774 -0.8166  0.1386 -0.6252
42240SOL    HW232558   0.112   9.475  10.731 -4.1133 -0.7213 -1.9749
42241SOL     OW32559   5.579   2.245  10.620  0.0774 -0.2534 -0.0117
42241SOL    HW132560   5.505   2.192  10.592 -0.3101 -0.6360  1.6386
42241SOL    HW232561   5.656   2.191  10.601 -0.2323 -0.8696  0.4677
42242SOL     OW32562   1.815   3.544   5.851 -0.1515  0.2101 -0.4931
42242SOL    HW132563   1.780   3.513   5.935 -0.9389  0.7143 -0.6288
42242SOL    HW232564   1.797   3.638   5.850  1.5606  0.5698 -0.4105
42243SOL     OW32565   5.203   6.566   9.099 -0.1619  0.1480 -0.1149
42243SOL    HW132566   5.279   6.591   9.047  0.5523  2.1726  1.7745
42243SOL    HW232567   5.146   6.519   9.037  1.4958  0.7126 -2.1761
42244SOL     OW32568  12.048   5.233   0.338  0.5475 -0.5239 -0.6224
42244SOL    HW132569  11.999   5.310   0.369  0.5968  0.1301 -2.1058
42244SOL    HW232570  12.021   5.222   0.247  0.5892 -2.2536 -0.4449
42245SOL     OW32571   2.528   6.852   6.766  0.2317 -0.0602  0.1219
42245SOL    HW132572   2.541   6.822   6.676 -1.2216 -1.7939  0.4247
42245SOL    HW232573   2.615   6.878   6.796  0.8753 -0.2572 -1.4986
42246SOL     OW32574   7.519   8.311   9.050 -0.1953 -0.1609  0.1207
42246SOL    HW132575   7.494   8.244   8.987  0.2380 -0.4516  0.2549
42246SOL    HW232576   7.583   8.366   9.004  0.2943 -0.5071  0.3696
42247SOL     OW32577   0.742   9.888   4.586 -0.1752  0.1366  0.4539
42247SOL    HW132578   0.711   9.871   4.497  2.0879 -0.7077 -0.2321
42247SOL    HW232579   0.801   9.963   4.578  1.0635 -0.7456  0.9673
42248SOL     OW32580   8.347   9.395   9.146  0.4063 -0.1064  0.2528
42248SOL    HW132581   8.319   9.332   9.081  0.4772 -0.7012  0.7853
42248SOL    HW232582   8.281   9.388   9.216  0.2561  0.6143  0.1909
42249SOL     OW32583   1.617   9.459   5.205  0.2899 -0.2101  0.1980
42249SOL    HW132584   1.702   9.456   5.160  1.4492  1.9104  2.0623
42249SOL    HW232585   1.618   9.384   5.264  1.0096 -0.0612  0.3863
42250SOL     OW32586   8.446   8.812   3.230 -0.4105 -0.3815 -0.3274
42250SOL    HW132587   8.352   8.817   3.250 -0.5583 -0.1866 -1.0554
42250SOL    HW232588   8.487   8.794   3.315 -1.0364  0.2556  0.1229
42251SOL     OW32589   1.668   0.720   1.992 -0.0241  0.3347 -0.0425
42251SOL    HW132590   1.706   0.792   2.042  1.1729 -0.6300  0.4851
42251SOL    HW232591   1.649   0.653   2.058  0.5280 -0.5238 -0.7371
42252SOL     OW32592  10.219   0.765   3.421 -0.5683  0.2373  0.1225
42252SOL    HW132593  10.161   0.722   3.359 -1.1893  1.0399  0.1253
42252SOL    HW232594  10.236   0.699   3.488 -2.1982  0.2315  0.5837
42253SOL     OW32595   3.478   4.797  12.210  0.0222 -0.4971  0.1846
42253SOL    HW132596   3.506   4.887  12.227  1.9841 -1.0632  0.1778
42253SOL    HW232597   3.458   4.796  12.117 -3.2739  0.6874  0.7309
42254SOL     OW32598   1.822   2.200   4.898  0.1722 -0.6590  0.0284
42254SOL    HW132599   1.869   2.126   4.936  0.2072 -1.0213 -0.7132
42254SOL    HW232600   1.847   2.275   4.953  2.1712 -0.6922 -0.7404
42255SOL     OW32601  12.002   5.354   1.684 -0.3157  0.0667 -0.2705
42255SOL    HW132602  12.092   5.383   1.666 -0.0680 -1.2547 -1.3341
42255SOL    HW232603  11.973   5.410   1.756  1.6127  0.0386  0.5908
42256SOL     OW32604   7.023   2.314   3.943 -0.0142  0.8380 -0.3954
42256SOL    HW132605   6.978   2.397   3.961  0.2819  1.2146 -1.3395
42256SOL    HW232606   7.012   2.300   3.849  0.4502  0.1142 -0.3478
42257SOL     OW32607   2.697  11.166   2.973  0.5424  0.3751  0.2460
42257SOL    HW132608   2.716  11.232   2.906  1.4085 -0.0100  0.0886
42257SOL    HW232609   2.781  11.153   3.017 -0.2486  1.4345  2.1827
42258SOL     OW32610   2.567   8.169   1.803  0.5709 -0.4474  0.0969
42258SOL    HW132611   2.510   8.160   1.726 -0.1089 -0.3676  0.5880
42258SOL    HW232612   2.611   8.253   1.791  1.2427 -0.8927 -0.7084
42259SOL     OW32613   4.360  11.183   7.990 -0.0299  0.0921  0.7546
42259SOL    HW132614   4.436  11.238   8.005  1.3207 -1.8366  1.4362
42259SOL    HW232615   4.359  11.167   7.896  0.3440  0.1983  0.7348
42260SOL     OW32616   2.583  11.125  11.081  0.1632  0.1679  0.4558
42260SOL    HW132617   2.524  11.124  11.156 -0.6311 -1.9698 -0.1082
42260SOL    HW232618   2.639  11.201  11.095 -0.9067  0.6535  2.4490
42261SOL     OW32619   6.461   6.453   4.402 -0.2339  0.2160 -0.8098
42261SOL    HW132620   6.517   6.518   4.444 -2.8811  1.1062  1.6335
42261SOL    HW232621   6.413   6.501   4.335 -0.7949  0.3665 -0.3091
42262SOL     OW32622  10.819   5.493   5.230 -0.4154  0.1149 -0.2513
42262SOL    HW132623  10.792   5.536   5.148  0.7815  0.4480 -0.4839
42262SOL    HW232624  10.745   5.507   5.289 -1.4076 -0.3512 -1.3468
42263SOL     OW32625  11.881   2.231   4.005  0.0739  0.1368 -0.2072
42263SOL    HW132626  11.834   2.304   3.964 -1.3001  0.7634  2.3103
42263SOL    HW232627  11.973   2.251   3.990 -0.2631 -0.4530 -4.1379
42264SOL     OW32628   9.781  11.670   6.807 -0.4100 -0.5665 -0.0936
42264SOL    HW132629   9.823  11.597   6.763 -0.7162 -0.2765 -0.8883
42264SOL    HW232630   9.727  11.629   6.874  1.0651 -0.9424  0.9071
42265SOL     OW32631   7.941   1.825   0.077 -0.5366  0.3859 -0.0518
42265SOL    HW132632   7.935   1.868  -0.009  0.5517  1.2716  0.2850
42265SOL    HW232633   7.859   1.777   0.086 -1.7156  2.2488 -0.5296
42266SOL     OW32634  10.197   5.715   3.155  0.1007 -0.0057 -0.2382
42266SOL    HW132635  10.113   5.718   3.109  0.2081 -0.0342 -0.4360
42266SOL    HW232636  10.236   5.801   3.140 -0.2703  0.3196  0.5726
42267SOL     OW32637   6.964   8.713   7.495 -0.0386  0.2419  0.1000
42267SOL    HW132638   7.047   8.730   7.450 -0.0676 -0.3767 -0.1927
42267SOL    HW232639   6.898   8.718   7.425 -0.4848  2.5138  0.6021
42268SOL     OW32640   1.469   8.055   8.359  0.3181 -0.3493 -0.3863
42268SOL    HW132641   1.410   8.102   8.301 -0.0947  0.3555  0.5947
42268SOL    HW232642   1.451   7.962   8.341  0.5882 -0.1652 -1.7556
42269SOL     OW32643   0.559   2.961   0.224 -0.1008  0.5855 -0.2618
42269SOL    HW132644   0.502   2.927   0.293  1.3161 -0.6458  0.3472
42269SOL    HW232645   0.556   2.894   0.155 -0.5107  1.2021 -0.8514
42270SOL     OW32646   9.966   6.537   4.366  0.5795 -0.0071  0.3737
42270SOL    HW132647  10.026   6.463   4.376  1.6454  0.6631 -0.7048
42270SOL    HW232648  10.021   6.614   4.380 -0.2754  0.6129  0.4001
42271SOL     OW32649   8.495   9.276   0.267  0.1543 -0.1755 -0.2956
42271SOL    HW132650   8.586   9.294   0.242  0.4117 -0.6020  0.2998
42271SOL    HW232651   8.495   9.283   0.362 -1.2122  3.2563 -0.4498
42272SOL     OW32652   5.752   5.488   9.772  0.3995  0.2530  0.1721
42272SOL    HW132653   5.779   5.579   9.786 -0.6509  0.4366  1.1155
42272SOL    HW232654   5.657   5.492   9.764  0.4669 -0.5964 -1.2839
42273SOL     OW32655   7.603   0.719  10.742 -0.4177 -0.2700 -0.1819
42273SOL    HW132656   7.635   0.773  10.669  0.6804  0.9849  1.1595
42273SOL    HW232657   7.509   0.738  10.746  0.1196  2.8027  1.1097
42274SOL     OW32658   6.056   1.203   2.679 -0.3589  0.1576 -0.3013
42274SOL    HW132659   6.122   1.195   2.611 -0.0961 -0.3042  0.0048
42274SOL    HW232660   6.076   1.133   2.741  0.9837  2.0607  1.5870
42275SOL     OW32661   6.202   8.116  11.812  0.6382  0.1128 -0.5331
42275SOL    HW132662   6.186   8.083  11.900 -0.1319  0.4152 -0.5541
42275SOL    HW232663   6.259   8.050  11.772  1.4755  0.2676  0.3772
42276SOL     OW32664   2.408   7.226   0.248  0.4600 -0.3220  0.5018
42276SOL    HW132665   2.352   7.215   0.171 -0.0269 -0.8424  0.9288
42276SOL    HW232666   2.397   7.318   0.273 -0.1464 -0.4039  0.5409
42277SOL     OW32667   5.195   0.539  11.091 -0.2022  0.4453 -0.0041
42277SOL    HW132668   5.235   0.459  11.055 -1.4996 -0.0031 -0.5142
42277SOL    HW232669   5.269   0.590  11.124  0.7609 -0.4615 -0.6834
42278SOL     OW32670   5.549  11.095   8.933 -0.5085 -0.0019  0.3336
42278SOL    HW132671   5.499  11.164   8.977 -0.7069 -0.3477  0.6610
42278SOL    HW232672   5.508  11.014   8.962 -0.0503 -0.2740  0.2365
42279SOL     OW32673   5.617   9.517   9.412  0.3463  0.3417 -0.3160
42279SOL    HW132674   5.601   9.466   9.492  0.8326  0.3342 -0.2203
42279SOL    HW232675   5.574   9.467   9.343  0.2030  0.1782 -0.1099
42280SOL     OW32676   4.067   6.688   4.884  0.6266 -0.3724 -0.1112
42280SOL    HW132677   4.061   6.673   4.790  0.7434  0.6111 -0.2961
42280SOL    HW232678   3.996   6.750   4.903  1.1980  0.1942  0.2539
42281SOL     OW32679   3.276   0.772   4.460 -0.3511  0.5971 -0.0378
42281SOL    HW132680   3.198   0.796   4.410  0.2595 -0.4055 -1.5417
42281SOL    HW232681   3.341   0.838   4.437  0.3417 -0.5763 -1.7034
42282SOL     OW32682   5.257   9.671   4.179 -0.0268 -0.2076 -0.4631
42282SOL    HW132683   5.200   9.603   4.214  0.8354 -0.2784  0.8606
42282SOL    HW232684   5.254   9.741   4.244  0.5654  0.2292 -0.8986
42283SOL     OW32685   0.512   6.445   3.789  0.1373  0.2828  0.2184
42283SOL    HW132686   0.426   6.407   3.775  1.1144 -2.1458  0.3234
42283SOL    HW232687   0.504   6.497   3.869 -0.8464 -1.2613  1.1634
42284SOL     OW32688   1.364   9.904   5.078  0.2705  0.4210  0.3894
42284SOL    HW132689   1.424   9.881   5.007 -0.2524 -0.9507  0.3704
42284SOL    HW232690   1.402   9.984   5.116  1.4934  0.2092 -0.3245
42285SOL     OW32691   1.537   3.321   9.885 -0.3294  0.1936 -0.0378
42285SOL    HW132692   1.604   3.329   9.953 -0.1408  0.3214 -0.2405
42285SOL    HW232693   1.581   3.277   9.812 -0.5138  0.1209 -0.1058
42286SOL     OW32694   4.698  10.391   7.224  0.8152 -0.0814 -0.3875
42286SOL    HW132695   4.645  10.468   7.203 -1.0120 -1.1799 -0.0144
42286SOL    HW232696   4.677  10.371   7.315  1.7198 -0.6916 -0.2970
42287SOL     OW32697   7.361   2.098  10.446 -0.2164 -0.0725  0.0471
42287SOL    HW132698   7.345   2.185  10.481 -1.4437  0.5208 -1.8435
42287SOL    HW232699   7.322   2.038  10.510 -0.7751  0.8461  0.5828
42288SOL     OW32700  11.646   0.275   2.815  0.5437 -0.5329  0.7612
42288SOL    HW132701  11.612   0.193   2.781  0.9661 -0.6157  0.5309
42288SOL    HW232702  11.725   0.292   2.763  0.5258 -0.0462  0.8880
42289SOL     OW32703   9.856   6.225   6.707 -0.2071  0.2100  0.2812
42289SOL    HW132704   9.847   6.278   6.785 -0.1455 -0.7994  0.9961
42289SOL    HW232705   9.937   6.174   6.721  0.6299  1.0800 -1.0941
42290SOL     OW32706   0.799   9.825   6.750  0.1105 -0.2421  0.1787
42290SOL    HW132707   0.883   9.780   6.745  1.2198  1.7318 -3.6612
42290SOL    HW232708   0.821   9.912   6.783 -0.5249  0.0636 -0.1815
42291SOL     OW32709  12.079   6.207   6.326  0.5005  0.3413 -0.2396
42291SOL    HW132710  12.154   6.171   6.374  2.0780  2.9438 -0.5777
42291SOL    HW232711  12.025   6.247   6.394 -0.5509 -1.3746 -0.0171
42292SOL     OW32712   1.163   6.693   8.362  0.1337  0.1887  0.5887
42292SOL    HW132713   1.100   6.754   8.401 -0.5575  0.2909 -0.6190
42292SOL    HW232714   1.114   6.611   8.353 -1.0851  1.1211 -3.4011
42293SOL     OW32715   5.128   6.150   7.843  0.3779 -0.1011  0.1564
42293SOL    HW132716   5.221   6.133   7.851  0.3169  0.2930  2.5194
42293SOL    HW232717   5.104   6.193   7.925 -1.5269  1.5498 -1.1507
42294SOL     OW32718   8.753   6.694   7.625 -0.6000  0.4927  0.2694
42294SOL    HW132719   8.775   6.787   7.614  0.4011  0.1208 -1.2556
42294SOL    HW232720   8.690   6.676   7.555  2.4064 -0.8931 -2.3314
42295SOL     OW32721   9.409  11.777   3.530 -0.5700 -0.6149  0.0937
42295SOL    HW132722   9.427  11.691   3.567  1.3649 -0.3018 -0.0122
42295SOL    HW232723   9.464  11.837   3.581 -2.6275  0.7576  0.8573
42296SOL     OW32724   7.973   4.144   7.623  0.1479  0.0690  0.0693
42296SOL    HW132725   7.914   4.097   7.682  0.9572 -0.3116  0.5884
42296SOL    HW232726   8.046   4.083   7.608 -0.7051 -0.4688 -2.5133
42297SOL     OW32727   4.060  11.763   7.308  0.2808  0.0515 -0.1313
42297SOL    HW132728   4.022  11.829   7.366 -0.7255  0.6986 -1.4886
42297SOL    HW232729   3.986  11.712   7.277  0.5568  0.6936 -2.0320
42298SOL     OW32730   0.764   6.155   2.497 -0.6086  0.3643 -0.6639
42298SOL    HW132731   0.817   6.234   2.512  0.5048 -0.6673  1.1797
42298SOL    HW232732   0.727   6.134   2.583  0.3414 -1.9416 -0.7438
42299SOL     OW32733   2.839   7.031   6.115 -0.0116 -0.0297  0.0345
42299SOL    HW132734   2.869   6.942   6.098  2.5332  0.9051 -0.7810
42299SOL    HW232735   2.869   7.082   6.040 -0.0692  1.7977  1.1730
42300SOL     OW32736   6.592   8.928  11.906  0.1754 -0.0096 -0.1572
42300SOL    HW132737   6.609   8.958  11.995  1.5419 -0.2411 -0.3138
42300SOL    HW232738   6.504   8.961  11.886 -0.0196  0.3239  1.1474
42301SOL     OW32739   8.992   4.625  12.157 -0.0254 -0.2553 -0.3362
42301SOL    HW132740   8.978   4.697  12.096  0.3964  1.1664  1.1598
42301SOL    HW232741   9.073   4.648  12.203 -1.5009 -0.0309  2.3517
42302SOL     OW32742   4.383   8.255   8.722  0.1969  0.1086  0.1357
42302SOL    HW132743   4.312   8.310   8.755  0.3435 -0.0001  0.6465
42302SOL    HW232744   4.462   8.294   8.759  0.2640 -0.7361  0.9331
42303SOL     OW32745   6.070  10.489   4.619 -0.5719  0.8049  0.6464
42303SOL    HW132746   6.035  10.410   4.578 -0.1633  0.7316  0.4289
42303SOL    HW232747   6.039  10.486   4.709 -0.5542  0.3949  0.6396
42304SOL     OW32748   2.029   8.502  11.436 -0.3295 -0.3182  0.1253
42304SOL    HW132749   2.101   8.562  11.419 -0.6387 -0.4026 -1.7381
42304SOL    HW232750   2.017   8.503  11.531  1.7719  0.0786  0.4135
42305SOL     OW32751   7.867  10.185  10.026 -0.4769 -0.0627 -0.2398
42305SOL    HW132752   7.795  10.121  10.031 -1.0015  0.4652 -0.8005
42305SOL    HW232753   7.900  10.177   9.937  1.5281 -1.7213  0.5830
42306SOL     OW32754   2.015   9.356   7.958 -0.4878  0.4657  0.0943
42306SOL    HW132755   1.978   9.441   7.932  0.6029  1.3162  1.2134
42306SOL    HW232756   2.072   9.331   7.885  0.2110  1.3514  0.3224
42307SOL     OW32757   3.101  10.014  11.795 -0.0379 -0.1079  0.6199
42307SOL    HW132758   3.055  10.064  11.727  0.6863 -1.8417 -1.2411
42307SOL    HW232759   3.192  10.014  11.768  0.2736 -0.8638  1.6037
42308SOL     OW32760  11.386   4.163   7.983  0.1148  0.0850  0.2979
42308SOL    HW132761  11.475   4.150   7.953 -0.5595  0.2790 -1.9416
42308SOL    HW232762  11.382   4.118   8.068  1.4791 -2.6829 -0.9948
42309SOL     OW32763   2.166   3.549   5.994  0.3026 -0.7979  0.1930
42309SOL    HW132764   2.190   3.469   5.949  0.1632 -0.7254 -0.0106
42309SOL    HW232765   2.125   3.519   6.075 -1.1220 -0.9681 -0.5619
42310SOL     OW32766  10.803   6.576   8.061  0.8116  0.1439 -0.2886
42310SOL    HW132767  10.850   6.547   7.983 -0.2155  1.0677 -1.2819
42310SOL    HW232768  10.728   6.624   8.027 -0.8304 -1.2358  1.2549
42311SOL     OW32769  11.958  10.713   3.663 -0.1204  0.5510  0.7761
42311SOL    HW132770  11.890  10.656   3.629 -1.8557  3.6369 -1.4814
42311SOL    HW232771  12.030  10.654   3.688 -2.1608 -2.5715 -0.2212
42312SOL     OW32772   0.692   4.063   1.229 -0.4102 -0.3729 -0.5161
42312SOL    HW132773   0.784   4.040   1.232 -0.2708  0.1080 -0.9893
42312SOL    HW232774   0.646   3.982   1.249  0.1219 -0.5105  0.1917
42313SOL     OW32775   5.077   5.862  10.497  1.4817 -0.7959  0.4691
42313SOL    HW132776   5.042   5.892  10.580  0.2481  0.2663 -0.3861
42313SOL    HW232777   5.069   5.767  10.499 -0.8273 -0.6348  0.6123
42314SOL     OW32778   6.924   1.829   2.132 -0.3321 -0.1210  0.5131
42314SOL    HW132779   6.900   1.736   2.132 -0.8574 -0.0396  2.9738
42314SOL    HW232780   6.841   1.875   2.126 -0.0683  0.2201 -0.7371
42315SOL     OW32781   2.599   5.584   6.791 -0.0462 -0.2978 -0.1737
42315SOL    HW132782   2.612   5.593   6.886  1.4987 -0.0586 -0.3852
42315SOL    HW232783   2.635   5.498   6.771  0.0566 -0.1494 -0.6192
42316SOL     OW32784   6.759   3.077   6.783  0.1503  0.6306  0.3492
42316SOL    HW132785   6.705   2.998   6.791  0.1776  0.6277  0.4968
42316SOL    HW232786   6.716   3.128   6.714 -1.0786  1.4701  1.6780
42317SOL     OW32787   1.886   9.500  11.528  0.3756  0.8435 -0.1393
42317SOL    HW132788   1.896   9.413  11.490  1.8354  0.4733  0.9971
42317SOL    HW232789   1.897   9.560  11.455 -1.0836  0.0971 -1.0201
42318SOL     OW32790   3.415   3.819   7.607  0.0229 -0.1371 -0.3215
42318SOL    HW132791   3.480   3.873   7.651 -0.6656  0.8459 -0.4737
42318SOL    HW232792   3.454   3.732   7.604  0.3624 -0.0865  1.6199
42319SOL     OW32793   1.203   3.214   8.874 -0.1180  0.1068  0.0850
42319SOL    HW132794   1.141   3.287   8.868 -0.7790 -0.0532  3.1026
42319SOL    HW232795   1.178   3.156   8.802  0.1023  2.5233 -2.0937
42320SOL     OW32796   6.226  11.885   6.297  0.1629 -0.0498 -0.4841
42320SOL    HW132797   6.155  11.821   6.285 -0.3522  0.8658 -2.8047
42320SOL    HW232798   6.205  11.929   6.379 -0.3723 -1.7170  0.3123
42321SOL     OW32799  12.119   4.934  12.193  0.3430  0.0882  0.4746
42321SOL    HW132800  12.166   4.861  12.154 -0.7758  0.5276 -1.8872
42321SOL    HW232801  12.052   4.893  12.248  0.1345 -0.6675 -0.3181
42322SOL     OW32802  11.982   0.094   2.219  0.3175  0.2329 -0.0478
42322SOL    HW132803  11.929   0.028   2.175  2.7376 -2.2270  0.4982
42322SOL    HW232804  12.070   0.083   2.184  1.1547  2.0879  1.2593
42323SOL     OW32805   0.092   0.936   5.814  0.1690  0.2214  0.1685
42323SOL    HW132806   0.063   0.945   5.723 -0.1877  0.6932  0.3274
42323SOL    HW232807   0.132   1.020   5.836  1.4547 -0.3258  0.0398
42324SOL     OW32808   1.520  10.414   7.770  0.0384  0.0150 -0.1372
42324SOL    HW132809   1.602  10.377   7.802 -0.1829 -0.6811 -0.3609
42324SOL    HW232810   1.524  10.506   7.795  0.1333 -0.3729  1.4061
42325SOL     OW32811   1.761   4.783   7.246 -0.3578  0.3313 -0.0860
42325SOL    HW132812   1.809   4.706   7.278  1.4564  1.3624 -0.2052
42325SOL    HW232813   1.829   4.846   7.223 -1.8067  2.1544  0.3839
42326SOL     OW32814   9.933  12.123   9.216 -0.1354  0.0214  0.3130
42326SOL    HW132815   9.919  12.206   9.262 -1.8997 -0.3263  0.4760
42326SOL    HW232816   9.922  12.056   9.283  1.6772 -0.3630  0.2658
42327SOL     OW32817   0.138   0.855   4.423  0.5114 -0.2540  0.2656
42327SOL    HW132818   0.089   0.931   4.454  0.3084  0.5972 -1.9063
42327SOL    HW232819   0.071   0.800   4.381  0.7054 -1.5271  1.5554
42328SOL     OW32820   2.518  10.315   3.066  0.2193 -0.1134 -0.7541
42328SOL    HW132821   2.524  10.220   3.069  0.4214 -0.0869 -0.3606
42328SOL    HW232822   2.425  10.332   3.051 -0.1094 -0.3395  0.8740
42329SOL     OW32823   4.374   3.380   7.820 -1.0122  0.1673 -0.1335
42329SOL    HW132824   4.311   3.350   7.755  0.4886  0.6655 -1.9080
42329SOL    HW232825   4.393   3.471   7.796  2.3768 -0.7259 -1.4794
42330SOL     OW32826   0.667   7.851   1.058  0.3068  0.3352 -0.5581
42330SOL    HW132827   0.602   7.817   0.997 -0.9596 -0.6617  1.2608
42330SOL    HW232828   0.695   7.775   1.109 -0.1588  1.4111  1.4156
42331SOL     OW32829   2.762  11.213   4.846 -0.3852  0.1506  0.2544
42331SOL    HW132830   2.699  11.257   4.903 -1.3026 -0.5688 -0.1997
42331SOL    HW232831   2.746  11.120   4.860  1.3916 -0.0872  1.0332
42332SOL     OW32832   1.116   5.466  11.184  0.1665 -0.0583  0.1298
42332SOL    HW132833   1.168   5.386  11.171 -0.1435 -0.1150 -0.8578
42332SOL    HW232834   1.128   5.516  11.103 -1.3124 -0.0819 -0.1294
42333SOL     OW32835   1.550  12.081   3.615 -0.3581 -0.5403  0.1461
42333SOL    HW132836   1.560  11.997   3.660 -0.2687 -1.2916 -1.2188
42333SOL    HW232837   1.632  12.127   3.630 -0.0842 -1.0472  0.2078
42334SOL     OW32838   4.578   3.695   5.208 -0.2941 -0.2337 -0.9267
42334SOL    HW132839   4.573   3.605   5.175 -0.4593  0.0970 -1.8077
42334SOL    HW232840   4.664   3.726   5.179  0.7297 -0.8238  1.2526
42335SOL     OW32841   3.200  11.986   9.515 -0.4514 -0.4969  0.1147
42335SOL    HW132842   3.216  12.002   9.422  1.7073  0.3842  0.5863
42335SOL    HW232843   3.286  11.993   9.556 -1.6673  2.2781  2.6224
42336SOL     OW32844   2.306   2.946   4.592 -0.0090  0.1932 -0.1185
42336SOL    HW132845   2.361   2.908   4.660 -0.7299  1.0917  0.9883
42336SOL    HW232846   2.226   2.972   4.637 -1.2335 -0.7632 -1.6291
42337SOL     OW32847  11.157   9.605  10.024 -0.2381 -0.3752  0.5626
42337SOL    HW132848  11.150   9.510  10.017  0.0846 -0.5949  2.5071
42337SOL    HW232849  11.087   9.639   9.969 -0.4628 -1.7333 -0.0275
42338SOL     OW32850   6.090  10.118   7.308 -0.1050  0.0096 -0.0242
42338SOL    HW132851   6.000  10.086   7.311 -0.2782  0.1449 -2.3132
42338SOL    HW232852   6.140  10.050   7.353 -1.0609 -1.2740 -0.8134
42339SOL     OW32853  11.177   1.184   7.183  0.4882 -0.2963 -0.3077
42339SOL    HW132854  11.246   1.249   7.169  0.0508  0.8579  2.4746
42339SOL    HW232855  11.188   1.156   7.274 -2.6962 -0.0886  0.2333
42340SOL     OW32856  10.542  11.196  12.088 -0.1272  1.1333  0.3943
42340SOL    HW132857  10.534  11.196  11.993  0.4798 -0.7629  0.3124
42340SOL    HW232858  10.636  11.207  12.104  0.0019 -0.3272  0.7132
42341SOL     OW32859   1.215   9.046  10.458  0.6280 -0.0707 -0.1749
42341SOL    HW132860   1.223   9.060  10.364 -0.8110  0.2265 -0.2754
42341SOL    HW232861   1.229   8.952  10.469 -0.4421 -0.3220 -0.8545
42342SOL     OW32862   1.428   5.123   0.973 -0.3343  0.4628  0.2181
42342SOL    HW132863   1.452   5.200   1.025 -1.2131  0.1073  1.1760
42342SOL    HW232864   1.342   5.097   1.006 -1.3852  0.7989 -2.0793
42343SOL     OW32865  10.131  11.095   8.847 -0.6624  0.3228  0.3566
42343SOL    HW132866  10.042  11.074   8.877 -0.3246 -0.7319  0.6519
42343SOL    HW232867  10.188  11.036   8.897 -0.0303 -1.0322 -1.8426
42344SOL     OW32868   7.113   2.700   4.961  0.3585  0.2769  0.3926
42344SOL    HW132869   7.051   2.635   4.995  0.2954 -0.2932 -0.7726
42344SOL    HW232870   7.148   2.742   5.039 -2.3705  1.4658  1.1135
42345SOL     OW32871   0.863   0.998   9.788 -0.2895 -0.3504  0.1253
42345SOL    HW132872   0.952   1.033   9.786 -0.0883 -0.6943  1.7406
42345SOL    HW232873   0.827   1.019   9.701  0.1898  2.8109  0.5711
42346SOL     OW32874   1.396   9.861   0.055 -0.3392 -0.0729 -0.0264
42346SOL    HW132875   1.448   9.790   0.016  0.4067 -0.4468  1.5431
42346SOL    HW232876   1.305   9.838   0.036 -0.0951 -1.3268  0.2174
42347SOL     OW32877   4.983   8.818   2.282  0.5701 -0.0579  0.2239
42347SOL    HW132878   4.968   8.912   2.291  2.5172  0.3797 -0.6400
42347SOL    HW232879   5.075   8.810   2.260  0.1201 -2.0788 -1.2479
42348SOL     OW32880   6.548  11.295   6.604 -0.0397  0.6527  0.4700
42348SOL    HW132881   6.571  11.334   6.688  1.5176  1.4177 -0.2568
42348SOL    HW232882   6.633  11.270   6.566 -0.8281 -1.2190 -0.1472
42349SOL     OW32883   2.063   2.199  11.876 -0.1026  0.2138  0.2271
42349SOL    HW132884   2.050   2.178  11.968  0.6694  2.6470  0.9735
42349SOL    HW232885   1.979   2.180  11.835 -0.5267 -0.7041  1.4629
42350SOL     OW32886  10.586  11.562   0.833  0.4329  0.3741 -0.1009
42350SOL    HW132887  10.564  11.609   0.913  0.3193 -0.1095  0.1527
42350SOL    HW232888  10.586  11.630   0.765 -0.4231  0.6241  0.1356
42351SOL     OW32889   3.148   7.222   1.786  0.2714 -0.4727  0.2247
42351SOL    HW132890   3.163   7.156   1.854  1.3303 -0.8630 -0.3643
42351SOL    HW232891   3.207   7.294   1.809 -0.0001 -0.2376  0.1923
42352SOL     OW32892   4.526   2.805   8.293 -0.1214  0.0490 -0.1913
42352SOL    HW132893   4.489   2.749   8.225 -1.3438  0.3827  0.1802
42352SOL    HW232894   4.523   2.893   8.256 -0.8125  0.2343  0.2997
42353SOL     OW32895   2.102  10.002   6.983  0.3641  0.0401  0.0045
42353SOL    HW132896   2.179   9.976   7.034  0.0693 -2.0401 -0.5262
42353SOL    HW232897   2.029   9.955   7.024 -0.6099  1.6849  0.2642
42354SOL     OW32898   6.070  11.260   1.715  0.0515 -0.3180  0.0190
42354SOL    HW132899   6.064  11.326   1.784  0.1912 -1.1211  0.8154
42354SOL    HW232900   6.060  11.309   1.634 -0.9122  0.5375  0.6402
42355SOL     OW32901   4.404   0.635   0.515 -0.4079 -0.5956 -0.0947
42355SOL    HW132902   4.450   0.588   0.446  0.6540 -0.7047  0.6594
42355SOL    HW232903   4.362   0.709   0.471  0.3929 -0.5676 -0.8351
42356SOL     OW32904  10.724   6.235   1.477 -0.0537  0.0599 -0.1209
42356SOL    HW132905  10.803   6.231   1.424  0.2284  1.3468  0.1664
42356SOL    HW232906  10.653   6.251   1.414  0.4279  2.8638 -0.0975
42357SOL     OW32907   6.853   3.885  11.989 -0.3588 -0.0342 -0.1516
42357SOL    HW132908   6.849   3.890  12.085 -0.4966 -1.3125 -0.0742
42357SOL    HW232909   6.923   3.946  11.965  1.2569 -1.3628  0.9586
42358SOL     OW32910   5.913   2.574   4.013 -0.3724  0.0940  0.1873
42358SOL    HW132911   5.939   2.494   3.968  0.3936  0.3056  0.2304
42358SOL    HW232912   5.970   2.577   4.091  0.2703  1.1424 -0.2970
42359SOL     OW32913  10.999  10.573  11.893 -0.3450  0.1519 -0.1252
42359SOL    HW132914  11.079  10.623  11.877 -0.1012  0.2660  1.3140
42359SOL    HW232915  10.983  10.526  11.811  3.0686 -2.5516  0.4979
42360SOL     OW32916   9.794   1.812  10.743 -0.3750  0.2086 -0.2600
42360SOL    HW132917   9.827   1.766  10.665 -0.0774  0.1291 -0.0899
42360SOL    HW232918   9.859   1.880  10.759 -1.5128  1.6259 -1.3486
42361SOL     OW32919   7.172   1.486   1.199 -0.0495  0.2486 -0.2873
42361SOL    HW132920   7.244   1.458   1.256 -0.3248 -1.2481 -0.6306
42361SOL    HW232921   7.104   1.421   1.213 -0.7764  0.8174 -1.0763
42362SOL     OW32922   8.418  10.762   7.984 -0.6791  0.0358 -0.0981
42362SOL    HW132923   8.507  10.783   7.958 -0.7714  1.3490  0.5719
42362SOL    HW232924   8.424  10.740   8.077 -1.2316  1.6452  0.3583
42363SOL     OW32925   9.981   3.315  12.074  0.0515  0.3854 -0.0555
42363SOL    HW132926   9.898   3.350  12.042  0.5202  1.2927 -0.3327
42363SOL    HW232927  10.028   3.391  12.108  1.3641  0.1463 -1.2351
42364SOL     OW32928   1.287   6.707   1.037 -0.2404  0.1205  0.2210
42364SOL    HW132929   1.344   6.732   0.964  0.4513 -1.8693  0.0108
42364SOL    HW232930   1.201   6.694   0.997  0.2504 -1.4740 -0.3953
42365SOL     OW32931   5.640  11.397   7.841 -0.2850 -0.1898  0.6301
42365SOL    HW132932   5.676  11.470   7.792  1.3832  0.6828  2.9836
42365SOL    HW232933   5.654  11.321   7.784 -1.4788  1.1237 -1.5899
42366SOL     OW32934  12.140   7.122   2.076 -0.2663  0.3374  0.5648
42366SOL    HW132935  12.072   7.185   2.100  0.3934  0.7563  1.3814
42366SOL    HW232936  12.140   7.058   2.147  0.9141  0.9394  1.1364
42367SOL     OW32937   6.203   6.639   5.170  0.1623 -0.3215 -0.0262
42367SOL    HW132938   6.169   6.725   5.143  0.0837 -1.0800 -2.6569
42367SOL    HW232939   6.200   6.587   5.090  0.6448 -2.6584  1.4006
42368SOL     OW32940   1.473   2.474   8.429 -0.1434  0.7089 -0.0375
42368SOL    HW132941   1.435   2.410   8.490 -0.4577  0.5730 -0.3692
42368SOL    HW232942   1.501   2.421   8.354  1.8544  0.6351  0.7072
42369SOL     OW32943  11.329  10.984   1.814  0.1113  0.2425  0.1294
42369SOL    HW132944  11.333  10.931   1.735 -0.0353 -1.4427  1.1944
42369SOL    HW232945  11.277  11.060   1.790  0.6975  0.1425 -1.5785
42370SOL     OW32946   5.336  11.299   7.547  0.1837 -0.3113 -0.2098
42370SOL    HW132947   5.343  11.323   7.455 -1.7155 -0.2835 -0.3899
42370SOL    HW232948   5.297  11.375   7.590  1.6258 -0.0803  0.7642
42371SOL     OW32949   5.479  11.610   4.197  0.5964  0.1118 -0.1706
42371SOL    HW132950   5.449  11.699   4.178 -0.6113 -0.0902  0.6546
42371SOL    HW232951   5.573  11.611   4.178  0.8239  1.8756  0.8499
42372SOL     OW32952   4.579  11.848  10.160  0.1578 -0.3353  0.0943
42372SOL    HW132953   4.625  11.887  10.086  0.3173  1.8570  1.2697
42372SOL    HW232954   4.498  11.814  10.123 -0.6292  2.3551 -0.8911
42373SOL     OW32955  12.115   4.983   8.880 -0.0447  0.2480  0.0429
42373SOL    HW132956  12.205   5.012   8.896  0.4275 -0.4493 -1.2225
42373SOL    HW232957  12.061   5.049   8.923  1.0669  0.5853  0.9917
42374SOL     OW32958   6.965   6.431   0.944 -0.4762 -0.0331 -0.3598
42374SOL    HW132959   6.918   6.424   1.027 -0.1294  0.3981 -0.1206
42374SOL    HW232960   7.021   6.353   0.942  1.6304  1.3097  1.1831
42375SOL     OW32961   9.329   1.629   4.181 -0.3688 -0.3492 -0.2232
42375SOL    HW132962   9.421   1.650   4.166 -1.0042  1.4876 -2.1506
42375SOL    HW232963   9.328   1.583   4.265  2.2296 -0.0218  0.0795
42376SOL     OW32964   7.638   9.823   1.537 -0.2291  0.4550 -0.4126
42376SOL    HW132965   7.671   9.801   1.450  3.1818  0.5906  0.6935
42376SOL    HW232966   7.694   9.773   1.597 -1.9621  0.9431  1.7417
42377SOL     OW32967   9.311   7.547   6.799  1.0936 -0.6867  0.7797
42377SOL    HW132968   9.390   7.601   6.798 -1.0457  2.8273  2.5273
42377SOL    HW232969   9.262   7.574   6.721  0.4704 -0.9328  1.0786
42378SOL     OW32970   3.945  11.347   5.051 -0.2651 -0.3948 -0.1897
42378SOL    HW132971   3.926  11.313   5.138 -0.2392  0.0638  0.0014
42378SOL    HW232972   3.942  11.442   5.061 -4.1933 -0.2060 -1.5209
42379SOL     OW32973  10.230  12.188   2.908  0.0978  0.3100 -0.2698
42379SOL    HW132974  10.214  12.221   2.997  0.5454 -2.5004  0.9668
42379SOL    HW232975  10.159  12.127   2.892 -0.5882  1.5617 -2.3686
42380SOL     OW32976   2.330   4.415   5.398  0.5691  0.4801 -0.3698
42380SOL    HW132977   2.276   4.342   5.429 -0.2844  1.4083  0.3847
42380SOL    HW232978   2.371   4.382   5.318  0.5777 -0.9871  0.2143
42381SOL     OW32979   6.372   5.304   2.268  0.5184 -0.0054 -0.3331
42381SOL    HW132980   6.357   5.324   2.361 -1.6979  1.4139 -0.9316
42381SOL    HW232981   6.458   5.343   2.250  0.5107  0.6410  0.8728
42382SOL     OW32982   9.835   8.902   3.339  0.6674 -0.1905 -0.4879
42382SOL    HW132983   9.771   8.835   3.316  0.3878  0.1709 -0.7779
42382SOL    HW232984   9.801   8.941   3.419  0.7740 -0.3221 -0.3784
42383SOL     OW32985  10.625   9.387   5.233 -0.1767 -0.6250  0.5202
42383SOL    HW132986  10.579   9.304   5.246  0.7117 -1.4335 -1.1625
42383SOL    HW232987  10.695   9.386   5.298  0.9241 -2.0666 -0.6127
42384SOL     OW32988   3.816   2.770   8.906  0.2043 -0.0274  0.6629
42384SOL    HW132989   3.901   2.731   8.887  0.1106 -0.1208  0.4280
42384SOL    HW232990   3.778   2.714   8.974 -0.3761 -0.9750 -0.4147
42385SOL     OW32991   6.796   8.329   9.113  0.2378  0.0063  0.0103
42385SOL    HW132992   6.737   8.401   9.138 -1.6657 -1.4471 -0.0736
42385SOL    HW232993   6.781   8.263   9.180  2.9522  0.1221  0.8505
42386SOL     OW32994  11.988   4.544   0.621  0.1938  0.3569  0.1104
42386SOL    HW132995  11.984   4.638   0.600 -1.6928  0.4275  0.6032
42386SOL    HW232996  11.975   4.540   0.716  3.6968 -0.2629  0.6840
42387SOL     OW32997   0.518   9.040  11.144 -0.6530  0.3018  0.6608
42387SOL    HW132998   0.562   8.996  11.072 -1.6690  1.1672 -0.5288
42387SOL    HW232999   0.433   9.066  11.109  0.4227  4.6374  0.6759
42388SOL     OW33000   5.955  11.002   1.623 -0.1592  0.0335 -0.2138
42388SOL    HW133001   6.036  10.973   1.583  0.0791 -3.8087  2.4894
42388SOL    HW233002   5.982  11.053   1.699 -0.3795  0.9479 -0.7401
42389SOL     OW33003   4.327   5.217   2.643 -0.1196  0.0085  0.0130
42389SOL    HW133004   4.306   5.160   2.568  0.5882  0.4577 -0.5467
42389SOL    HW233005   4.243   5.248   2.674 -0.3910  0.4798 -1.1413
42390SOL     OW33006   3.106  10.363   7.122  0.2664 -0.0137  0.4157
42390SOL    HW133007   3.183  10.311   7.099  1.1932 -0.0592  3.2226
42390SOL    HW233008   3.076  10.326   7.205 -1.3254  1.5463  0.6029
42391SOL     OW33009  10.183   9.492  10.161  0.0551  0.0246 -0.7145
42391SOL    HW133010  10.228   9.438  10.226  0.9006  0.4671 -0.9071
42391SOL    HW233011  10.124   9.548  10.212 -1.3323 -1.5120 -0.5677
42392SOL     OW33012   6.958   8.296   3.075  0.1670 -0.5457 -0.1601
42392SOL    HW133013   7.031   8.237   3.092  0.9077 -0.0268 -1.3929
42392SOL    HW233014   6.999   8.376   3.041 -0.8852  0.2739  0.4295
42393SOL     OW33015  10.530   8.744   7.493 -0.1957  0.3336  0.1818
42393SOL    HW133016  10.581   8.727   7.414 -0.2403 -0.2741  0.2778
42393SOL    HW233017  10.441   8.762   7.462 -0.1480  0.3857  0.0767
42394SOL     OW33018   0.317   3.849  10.810  0.2053 -0.4047 -0.2001
42394SOL    HW133019   0.249   3.830  10.745  0.1799 -0.8215 -0.0578
42394SOL    HW233020   0.280   3.920  10.863  0.0424 -0.3626 -0.3671
42395SOL     OW33021  11.557  11.471   8.426 -0.2953 -0.2352 -0.2495
42395SOL    HW133022  11.643  11.429   8.429  0.1707  0.7351  0.3099
42395SOL    HW233023  11.498  11.409   8.470 -0.1104 -1.3541 -1.4819
42396SOL     OW33024   7.595  10.971   1.712 -0.4978 -0.1249 -0.2217
42396SOL    HW133025   7.506  10.953   1.743  0.3271 -2.3421  1.0877
42396SOL    HW233026   7.636  10.885   1.705  1.4141  0.8069 -1.2883
42397SOL     OW33027   9.678   4.519   3.504  0.2459 -0.1520 -0.2874
42397SOL    HW133028   9.745   4.529   3.436 -0.2413 -0.4083 -0.8104
42397SOL    HW233029   9.595   4.525   3.458 -0.1194 -2.4733 -0.0739
42398SOL     OW33030   8.643   4.599  11.474 -0.3654 -0.6745  0.2083
42398SOL    HW133031   8.615   4.529  11.533 -0.0475 -1.8449 -0.9655
42398SOL    HW233032   8.702   4.556  11.412 -0.5170  0.5343 -0.8258
42399SOL     OW33033  12.209   9.933   9.966  0.2151  0.2952  0.3776
42399SOL    HW133034  12.217   9.838   9.953  0.1707  0.3127  0.2283
42399SOL    HW233035  12.231   9.946  10.058  1.2742  0.2656  0.1350
42400SOL     OW33036   3.206  10.435   0.907 -0.2734 -0.3456  0.0326
42400SOL    HW133037   3.240  10.365   0.963  0.0905  0.8044  1.2933
42400SOL    HW233038   3.277  10.499   0.903 -1.4054  1.0172  0.7936
42401SOL     OW33039   9.159   7.903   6.538  0.2944  0.1264  0.2056
42401SOL    HW133040   9.166   7.924   6.631  0.9618  0.8710 -0.0048
42401SOL    HW233041   9.149   7.808   6.536 -0.8881  0.2214  1.0866
42402SOL     OW33042   5.905   2.596  11.174  0.0108  0.2107 -0.4525
42402SOL    HW133043   5.854   2.598  11.255  1.2419  0.5294  0.3380
42402SOL    HW233044   5.994   2.615  11.202  0.7372 -1.2168 -1.6832
42403SOL     OW33045  10.742   2.470  10.821  0.0797 -0.1066  0.0136
42403SOL    HW133046  10.819   2.412  10.817 -0.0573 -0.2751 -0.2626
42403SOL    HW233047  10.763   2.542  10.762 -0.1670 -0.3923 -0.4249
42404SOL     OW33048   6.781   1.457   8.638  0.2065  0.3658 -0.5314
42404SOL    HW133049   6.853   1.497   8.685  0.1852 -0.1438 -0.0477
42404SOL    HW233050   6.779   1.367   8.669 -2.2900  1.0109  1.4985
42405SOL     OW33051   8.644   8.126   5.486 -0.1312  0.2325 -0.5068
42405SOL    HW133052   8.635   8.128   5.581  0.3127 -0.3186 -0.4452
42405SOL    HW233053   8.738   8.132   5.471 -0.1289 -0.5414 -0.8686
42406SOL     OW33054   1.452   5.784   3.902  0.1024  0.2226 -0.1340
42406SOL    HW133055   1.396   5.710   3.881  1.0908 -0.2957 -0.9979
42406SOL    HW233056   1.512   5.791   3.828  0.9444  0.9914  0.5984
42407SOL     OW33057   4.551   2.722   7.373  0.0673  0.1192  0.0895
42407SOL    HW133058   4.461   2.695   7.355  0.3396  0.0789 -1.2923
42407SOL    HW233059   4.594   2.642   7.404  0.1204 -0.3593 -1.1739
42408SOL     OW33060   2.943  11.896   7.986  0.3685 -0.1361  0.7397
42408SOL    HW133061   2.970  11.932   7.901 -2.0030  0.1492  0.0273
42408SOL    HW233062   2.897  11.968   8.029 -3.4890 -1.7277 -0.2459
42409SOL     OW33063  11.994   0.645   0.058  0.3204  0.3088 -0.4535
42409SOL    HW133064  12.075   0.607   0.091 -0.3853 -1.3890 -0.5919
42409SOL    HW233065  12.014   0.673  -0.031  1.6122  2.8846  0.5377
42410SOL     OW33066   5.793   3.775   3.595  0.5368 -0.7632  0.2301
42410SOL    HW133067   5.699   3.772   3.577 -0.0154  1.2706  2.3228
42410SOL    HW233068   5.804   3.726   3.676  1.0262  0.1997  0.7665
42411SOL     OW33069   3.423   0.130   9.086 -0.3073 -0.5676  0.5449
42411SOL    HW133070   3.478   0.206   9.070  0.2002 -1.0223  0.0800
42411SOL    HW233071   3.389   0.143   9.174  0.0849  0.0014  0.6189
42412SOL     OW33072   4.100   7.877   5.663 -0.1194 -0.2672 -0.2592
42412SOL    HW133073   4.164   7.867   5.734  0.4422  1.1089 -0.5383
42412SOL    HW233074   4.015   7.874   5.707  0.2400  1.1885  0.5814
42413SOL     OW33075   0.603   9.617   3.299 -0.5759  0.1144  0.4508
42413SOL    HW133076   0.640   9.555   3.362 -0.7029 -1.5141 -1.0212
42413SOL    HW233077   0.509   9.616   3.317 -0.8756 -1.7690 -0.8705
42414SOL     OW33078   3.978   4.755   2.978 -0.1277  0.4128 -0.2383
42414SOL    HW133079   4.060   4.769   3.027 -0.8938  2.4211  0.6046
42414SOL    HW233080   4.000   4.687   2.915  2.2590  0.9784 -0.1524
42415SOL     OW33081   3.356  11.363   4.039  0.8299 -0.2062  0.0546
42415SOL    HW133082   3.449  11.350   4.023  0.9461  1.2332 -0.6225
42415SOL    HW233083   3.346  11.354   4.134  1.6585 -0.3434  0.1365
42416SOL     OW33084  11.076   4.391   0.784  0.4200 -0.5137  0.2414
42416SOL    HW133085  11.052   4.326   0.718 -1.0540  1.0503 -0.8609
42416SOL    HW233086  11.143   4.445   0.742  0.0165  0.0267  0.2719
42417SOL     OW33087   5.967   6.508   4.690  0.0449  0.4189  0.1205
42417SOL    HW133088   5.895   6.445   4.692  1.0095 -0.7006  1.2617
42417SOL    HW233089   6.039   6.460   4.649  0.7428  0.8215  0.8545
42418SOL     OW33090   3.437  11.486   6.751  0.2635 -0.3609  0.5948
42418SOL    HW133091   3.478  11.501   6.666 -0.5352  0.8369  0.3926
42418SOL    HW233092   3.374  11.416   6.735  1.4428 -1.4732  0.6647
42419SOL     OW33093  11.237   4.050   1.142 -0.5052 -0.4096  0.0874
42419SOL    HW133094  11.193   4.113   1.086  1.7993  1.1473 -0.1396
42419SOL    HW233095  11.173   3.981   1.157 -2.3717  0.8776 -1.5271
42420SOL     OW33096  11.922  10.992   0.505 -0.0532 -0.3585 -0.1768
42420SOL    HW133097  11.880  10.944   0.434 -2.5765 -1.5394  1.9309
42420SOL    HW233098  11.990  10.933   0.537  0.0167 -0.4966 -0.5786
42421SOL     OW33099   5.858   7.314   5.034 -0.5605 -0.7865 -0.2302
42421SOL    HW133100   5.814   7.252   5.091 -0.9956 -0.4128 -0.1540
42421SOL    HW233101   5.879   7.264   4.955 -1.9568 -0.7451 -0.6500
42422SOL     OW33102   8.490   1.434  11.922  0.1482 -0.2927  0.0926
42422SOL    HW133103   8.452   1.517  11.950  1.3829  0.1461  0.5640
42422SOL    HW233104   8.450   1.369  11.979 -1.3503 -0.1397 -0.7422
42423SOL     OW33105   9.465   1.924   5.541 -0.3612  0.4348 -1.0853
42423SOL    HW133106   9.556   1.948   5.556 -0.6229 -0.0994  1.9160
42423SOL    HW233107   9.450   1.848   5.597 -3.4533  2.3777  1.0223
42424SOL     OW33108   8.084   1.649   6.985 -0.1259  0.1864  0.2739
42424SOL    HW133109   8.113   1.558   6.979 -1.5064 -0.1933 -2.7636
42424SOL    HW233110   8.124   1.682   7.065  1.0967 -2.8334  1.0506
42425SOL     OW33111   5.302   0.771   3.793 -0.2579  0.0117 -0.3832
42425SOL    HW133112   5.304   0.866   3.806  1.3299  0.1726 -1.5953
42425SOL    HW233113   5.273   0.759   3.703 -1.8950 -0.7510  0.1964
42426SOL     OW33114   8.475   8.953   6.443  0.0653  0.5365 -0.9109
42426SOL    HW133115   8.526   9.000   6.377  1.1404  0.0192 -0.4556
42426SOL    HW233116   8.513   8.978   6.527 -1.6438  1.6258 -0.3970
42427SOL     OW33117   2.565   5.928   5.168 -0.4523 -0.3152  0.2439
42427SOL    HW133118   2.560   5.885   5.254 -1.3554  0.9264  0.8527
42427SOL    HW233119   2.513   5.873   5.110  1.4951 -2.0697  0.0452
42428SOL     OW33120   6.248   2.797   6.054  0.4065  0.2081 -0.7621
42428SOL    HW133121   6.277   2.707   6.071 -0.3834  0.1901  0.5742
42428SOL    HW233122   6.330   2.846   6.046  0.8497 -0.2354  0.7652
42429SOL     OW33123   6.274   2.920   3.524 -0.1896  0.1476 -0.0122
42429SOL    HW133124   6.185   2.888   3.512 -0.3497  0.1998  0.9564
42429SOL    HW233125   6.320   2.893   3.445 -0.5385 -1.7271  0.3823
42430SOL     OW33126   9.936   8.306   7.979 -0.1355 -0.5812  0.1054
42430SOL    HW133127   9.933   8.368   8.052  1.5497 -0.4789  0.1161
42430SOL    HW233128   9.962   8.223   8.019  0.1719 -0.6797 -0.2905
42431SOL     OW33129   2.083  11.646   6.699 -0.3179  0.1262  0.0479
42431SOL    HW133130   2.149  11.708   6.731 -0.7064  0.3034  0.5066
42431SOL    HW233131   2.119  11.560   6.720  0.3923  0.1656 -0.9070
42432SOL     OW33132  11.442   4.119   5.020  0.4068 -0.5631  0.0080
42432SOL    HW133133  11.470   4.208   4.997  0.3455 -0.2677  1.0052
42432SOL    HW233134  11.350   4.129   5.045  0.7318 -0.6585  1.3333
42433SOL     OW33135  11.866   1.870   9.177 -0.7386 -0.3036  0.1325
42433SOL    HW133136  11.881   1.959   9.146 -0.5909 -0.3264  0.1369
42433SOL    HW233137  11.935   1.819   9.136 -1.7324 -0.6948 -1.1432
42434SOL     OW33138   5.017   0.362   2.769 -0.0628  0.1881 -0.3634
42434SOL    HW133139   5.073   0.437   2.754  0.7160 -0.3674 -0.2870
42434SOL    HW233140   5.077   0.290   2.787 -0.8283  0.2688  3.0854
42435SOL     OW33141   1.351   3.707   3.757  0.5258  0.2275  0.0633
42435SOL    HW133142   1.298   3.758   3.818 -1.8799 -1.3970 -0.5126
42435SOL    HW233143   1.409   3.770   3.716 -0.6293  2.0463  1.1045
42436SOL     OW33144   8.247   3.448   0.793 -0.3402  0.1351 -0.2233
42436SOL    HW133145   8.254   3.369   0.847 -0.8105  2.2143  3.2295
42436SOL    HW233146   8.155   3.473   0.799  0.0619  1.6964  0.0054
42437SOL     OW33147  10.467  12.271   6.152  0.1742 -0.0898  0.8187
42437SOL    HW133148  10.382  12.314   6.142 -0.5998 -0.5110  4.3453
42437SOL    HW233149  10.526  12.324   6.098 -1.8311  1.7001  0.1992
42438SOL     OW33150   1.943   8.338   7.969  0.6352 -0.0854 -0.6758
42438SOL    HW133151   2.015   8.374   8.020  2.2648  1.3893 -3.7472
42438SOL    HW233152   1.903   8.273   8.027 -1.2245  4.8845  4.5348
42439SOL     OW33153   2.132   1.436   3.563  0.0408 -0.7648 -0.7307
42439SOL    HW133154   2.226   1.442   3.579 -0.2208 -1.6694  1.7221
42439SOL    HW233155   2.102   1.526   3.556  1.0319 -0.4573 -1.1024
42440SOL     OW33156  12.328   2.435   1.518 -0.0288 -0.0332  0.2526
42440SOL    HW133157  12.258   2.388   1.564 -2.8554  1.1448 -2.4894
42440SOL    HW233158  12.371   2.367   1.466  0.9564 -0.7789  1.9845
42441SOL     OW33159   3.753   1.850   4.903  0.2949  0.5374  0.1322
42441SOL    HW133160   3.731   1.933   4.945  1.7662  1.3919 -0.7284
42441SOL    HW233161   3.759   1.787   4.976  0.4378  1.4623  0.9370
42442SOL     OW33162  12.030  11.394   4.507 -0.3300 -0.8512  0.0153
42442SOL    HW133163  12.063  11.344   4.433 -1.2892 -3.2256  1.0816
42442SOL    HW233164  12.107  11.411   4.561  0.3741  0.8963 -1.4305
42443SOL     OW33165   8.343   7.142  12.210 -0.0825 -0.3317  0.4089
42443SOL    HW133166   8.266   7.131  12.154 -0.5566 -1.2484  1.2063
42443SOL    HW233167   8.417   7.130  12.152 -0.5625 -2.1502  0.1198
42444SOL     OW33168   6.516   9.711   1.282 -0.0635 -0.2745  0.2882
42444SOL    HW133169   6.506   9.778   1.350  0.9047  0.1933 -0.0042
42444SOL    HW233170   6.439   9.656   1.291 -1.4985  1.5456 -0.2026
42445SOL     OW33171  10.956   5.133   8.506  0.1019  0.3387  0.3730
42445SOL    HW133172  11.021   5.078   8.463  0.9498  0.0195  1.9942
42445SOL    HW233173  10.884   5.139   8.443  1.7424  0.8604 -1.5609
42446SOL     OW33174   5.428   3.703  10.881 -0.8303 -0.1109  0.2847
42446SOL    HW133175   5.490   3.645  10.926 -1.8774 -1.2681  0.3018
42446SOL    HW233176   5.389   3.755  10.951 -1.2537 -0.7436  0.5344
42447SOL     OW33177   8.752   3.665   0.780 -0.1970 -0.1294  0.6798
42447SOL    HW133178   8.677   3.610   0.799 -1.5612  1.1377 -0.7366
42447SOL    HW233179   8.731   3.749   0.821  0.7787  0.0211  0.8890
42448SOL     OW33180   4.082   6.493   2.981  0.2080 -0.0167 -0.3766
42448SOL    HW133181   4.029   6.445   3.044  1.2697  1.0198  1.3818
42448SOL    HW233182   4.084   6.583   3.014  1.8575  0.2791 -1.1639
42449SOL     OW33183   9.305   2.663   1.042  0.2574 -0.4870 -0.3102
42449SOL    HW133184   9.220   2.627   1.064 -0.5774  2.0975  1.1430
42449SOL    HW233185   9.355   2.657   1.123  0.4976  0.4735 -0.3787
42450SOL     OW33186   7.531   0.088   5.274  0.3272 -0.0011 -0.3288
42450SOL    HW133187   7.462   0.128   5.220  0.6373 -0.5480 -1.1533
42450SOL    HW233188   7.503   0.103   5.364 -0.6853  0.1045 -0.6486
42451SOL     OW33189   3.168   8.869   1.674 -0.2915 -0.3635  0.3972
42451SOL    HW133190   3.251   8.916   1.679  0.2033 -1.3366  1.5082
42451SOL    HW233191   3.173   8.820   1.591  0.4633 -0.8113  0.7011
42452SOL     OW33192  11.658   8.815  11.513  0.4273 -0.1871  0.1748
42452SOL    HW133193  11.658   8.842  11.605  2.2336 -1.2908  0.5518
42452SOL    HW233194  11.746   8.836  11.482  0.6648 -2.0615 -0.5725
42453SOL     OW33195  11.947  10.200   6.213  0.0525  0.3679  0.3137
42453SOL    HW133196  11.893  10.239   6.281  0.2867  0.7371  0.2928
42453SOL    HW233197  12.017  10.154   6.261  1.2817  2.1568  0.3243
42454SOL     OW33198   7.357   9.531   7.860 -0.1652  0.4408 -0.3509
42454SOL    HW133199   7.381   9.623   7.847  0.3068  0.4112  0.2958
42454SOL    HW233200   7.326   9.503   7.774  1.6697  0.6106 -1.1027
42455SOL     OW33201   7.718  10.509   4.943  0.1555 -0.1483 -0.2557
42455SOL    HW133202   7.737  10.432   4.890  1.1461 -0.3426  0.3544
42455SOL    HW233203   7.726  10.479   5.034  0.9589  0.7531 -0.0039
42456SOL     OW33204  10.091   4.423   2.603 -0.1926  0.3180 -0.5560
42456SOL    HW133205  10.060   4.341   2.641 -2.0722  0.8282 -0.9069
42456SOL    HW233206  10.068   4.417   2.510 -1.9952  1.9411 -0.2646
42457SOL     OW33207   4.948   6.824   5.089  0.3840 -0.2664 -0.3721
42457SOL    HW133208   4.878   6.776   5.134 -0.1361  0.9843  0.2244
42457SOL    HW233209   4.957   6.781   5.004 -0.8759 -0.6725 -0.3193
42458SOL     OW33210   5.417   3.481   9.416  0.3455  0.1300  0.4293
42458SOL    HW133211   5.496   3.487   9.363  0.9402 -0.8101  1.1693
42458SOL    HW233212   5.394   3.388   9.413 -0.5932  0.3601  0.4196
42459SOL     OW33213  12.021   1.473  10.407  0.1287  0.9445  0.5524
42459SOL    HW133214  12.028   1.549  10.348 -0.1415 -0.0212 -0.7767
42459SOL    HW233215  11.999   1.400  10.349  0.0687 -0.0990  1.8464
42460SOL     OW33216   9.532   6.831   7.552 -0.7582  0.0668 -0.6666
42460SOL    HW133217   9.476   6.798   7.482 -2.3870  0.7562  0.2566
42460SOL    HW233218   9.560   6.917   7.523 -1.4532  0.3632 -0.4692
42461SOL     OW33219   0.580   7.189   5.474 -0.5691  0.1053 -0.4564
42461SOL    HW133220   0.592   7.159   5.564 -0.5258  0.4996 -0.3281
42461SOL    HW233221   0.593   7.284   5.478 -0.5610  0.1263 -0.8788
42462SOL     OW33222   3.126  11.134   1.152  0.0654  0.2005  0.7631
42462SOL    HW133223   3.204  11.081   1.139 -1.7005 -2.4214  0.2700
42462SOL    HW233224   3.098  11.115   1.241 -1.7682 -1.4834 -0.1000
42463SOL     OW33225   5.215   2.061   4.959 -0.2690  0.5387 -0.1571
42463SOL    HW133226   5.174   2.053   4.873  0.6528 -0.4260 -0.5369
42463SOL    HW233227   5.143   2.076   5.019 -1.2500 -1.5136 -0.7381
42464SOL     OW33228  12.041   0.122   1.027  0.4841  0.4977  0.0056
42464SOL    HW133229  12.039   0.064   1.103 -0.0142 -0.6887 -0.8837
42464SOL    HW233230  12.107   0.187   1.049 -0.0902  0.5557  1.7150
42465SOL     OW33231   2.908  10.516   3.394 -0.3218 -0.2408 -0.6286
42465SOL    HW133232   2.853  10.500   3.471 -0.2166  0.0117 -0.5001
42465SOL    HW233233   2.974  10.448   3.397  1.1879  1.2034  0.8929
42466SOL     OW33234  11.249   1.766   7.440  0.5711  0.1742 -0.3271
42466SOL    HW133235  11.201   1.765   7.358  2.1944 -0.4091 -1.3337
42466SOL    HW233236  11.315   1.835   7.429 -0.0777  1.0598  1.0624
42467SOL     OW33237   9.712  12.064  10.724 -1.0394 -0.7820 -0.3697
42467SOL    HW133238   9.656  11.988  10.738 -0.2899 -1.3398 -0.3031
42467SOL    HW233239   9.733  12.095  10.812  0.5600 -1.9534 -0.2920
42468SOL     OW33240   8.070   6.357   2.843  0.4533  0.6604 -0.0787
42468SOL    HW133241   8.058   6.281   2.786 -2.1339  0.5024  0.5514
42468SOL    HW233242   8.027   6.333   2.925  2.0212  1.7836  1.1262
42469SOL     OW33243   0.153   3.133   8.023  0.5911 -0.4215 -0.1518
42469SOL    HW133244   0.144   3.211   7.969  1.1565 -0.7530 -0.7360
42469SOL    HW233245   0.246   3.129   8.045  0.4195 -0.4616  0.5948
42470SOL     OW33246   0.222   0.576   2.348  0.3792  0.1259  0.1383
42470SOL    HW133247   0.293   0.624   2.391  1.1813 -0.8383 -0.0658
42470SOL    HW233248   0.198   0.630   2.273  2.5499 -0.6161 -1.1817
42471SOL     OW33249   5.371   1.683  10.879  0.3604  0.6465  0.3513
42471SOL    HW133250   5.348   1.694  10.971  2.1710 -0.8519  1.0431
42471SOL    HW233251   5.466   1.696  10.876  0.4958 -0.4801 -1.0952
42472SOL     OW33252  10.726   4.410  11.489 -0.2874 -0.6910 -0.1530
42472SOL    HW133253  10.633   4.393  11.473 -1.1051  0.8922  2.2399
42472SOL    HW233254  10.750   4.350  11.559  0.6473 -1.3502 -1.0101
42473SOL     OW33255   3.926   7.602   5.218 -0.1916 -0.2676  0.3847
42473SOL    HW133256   3.887   7.597   5.131 -1.7974  1.0709  0.9595
42473SOL    HW233257   3.945   7.695   5.231  0.0663 -0.4500  1.4306
42474SOL     OW33258   1.871   3.118   6.133  0.2189 -0.7095 -0.3068
42474SOL    HW133259   1.788   3.106   6.178 -0.1960  1.3705 -0.4175
42474SOL    HW233260   1.866   3.058   6.058 -1.7320  0.2064 -0.9966
42475SOL     OW33261   7.682  11.156  10.920 -0.7170  0.2613  0.0706
42475SOL    HW133262   7.770  11.150  10.883 -1.9487 -0.1631 -3.0320
42475SOL    HW233263   7.679  11.244  10.958  0.4191  1.0922 -1.6174
42476SOL     OW33264   2.812   4.899   7.254  0.3002  0.0959 -0.2665
42476SOL    HW133265   2.729   4.946   7.262  0.2229  0.0526 -0.7634
42476SOL    HW233266   2.819   4.847   7.334 -1.6516 -2.3199 -1.5339
42477SOL     OW33267   8.563   3.068   2.273  0.1396 -0.0878  0.1450
42477SOL    HW133268   8.639   3.045   2.220 -0.6350  0.4487 -1.2646
42477SOL    HW233269   8.515   2.986   2.284  0.9968 -0.4686  1.2197
42478SOL     OW33270   3.098   5.147   4.900 -0.0812  0.5330  0.2023
42478SOL    HW133271   3.169   5.087   4.876 -0.9179 -0.4822  0.1542
42478SOL    HW233272   3.023   5.089   4.914 -0.8313  1.5597  0.5033
42479SOL     OW33273   2.807   3.556   9.213 -0.0336  0.0772  0.3397
42479SOL    HW133274   2.862   3.513   9.148 -1.2441  0.8022 -1.2091
42479SOL    HW233275   2.850   3.640   9.229 -0.3711  0.4129 -0.4607
42480SOL     OW33276   7.082   0.014   5.642 -0.1795 -0.5232  0.1143
42480SOL    HW133277   7.006  -0.028   5.602 -0.8397  0.3751  0.3965
42480SOL    HW233278   7.155  -0.046   5.624 -0.6801 -0.7192 -1.3865
42481SOL     OW33279   9.595   4.187  12.196  0.1054 -0.2559  0.7868
42481SOL    HW133280   9.540   4.265  12.191  0.6768  0.0643 -1.2383
42481SOL    HW233281   9.542   4.123  12.244 -0.7310  1.0640  1.6771
42482SOL     OW33282   2.569   0.103  10.295  0.1589 -0.2675 -0.0529
42482SOL    HW133283   2.526   0.162  10.357 -0.9744  2.9451 -3.5085
42482SOL    HW233284   2.502   0.039  10.272  0.2401 -0.8068  1.1365
42483SOL     OW33285   0.797   9.010   7.086  0.1694  1.1811  0.6324
42483SOL    HW133286   0.704   9.022   7.066 -0.1717 -1.2210  0.4176
42483SOL    HW233287   0.801   9.014   7.181 -0.3507  0.3289  0.7033
42484SOL     OW33288  11.485   5.021   0.303  0.0824  0.1495 -0.0492
42484SOL    HW133289  11.513   4.929   0.311 -0.0394  0.2978  3.5159
42484SOL    HW233290  11.561   5.071   0.331 -0.9906  0.9158  1.6300
42485SOL     OW33291   2.287  11.885  10.815  0.8617 -0.3757  0.2533
42485SOL    HW133292   2.277  11.792  10.834 -1.3114 -0.4139 -0.7563
42485SOL    HW233293   2.351  11.916  10.879  0.6321 -2.2895  1.4870
42486SOL     OW33294   6.340   6.380   2.087 -0.1659  0.7666  0.1217
42486SOL    HW133295   6.293   6.310   2.133 -0.6362  0.6619 -0.5054
42486SOL    HW233296   6.346   6.450   2.152 -0.0484  0.2987  0.6265
42487SOL     OW33297   9.810   9.657   9.772  0.5976  0.1304 -0.1562
42487SOL    HW133298   9.896   9.655   9.731  0.1541  0.8072 -1.1657
42487SOL    HW233299   9.749   9.665   9.699 -0.2625  0.7747  0.6089
42488SOL     OW33300   1.815   7.762   1.021 -0.2778  0.1296  0.0423
42488SOL    HW133301   1.905   7.733   1.012  0.2202  1.2813  1.0316
42488SOL    HW233302   1.821   7.851   1.056 -1.7572  1.0669 -1.9028
42489SOL     OW33303   4.143   5.610   7.184  0.5927 -0.1359  0.1564
42489SOL    HW133304   4.172   5.687   7.233  2.9794 -1.1649  0.5126
42489SOL    HW233305   4.186   5.617   7.099  0.0818 -0.6181 -0.1498
42490SOL     OW33306   8.406  11.822   6.228  0.3917 -0.8371  0.0526
42490SOL    HW133307   8.329  11.826   6.284  0.4710 -2.1297  0.2820
42490SOL    HW233308   8.406  11.906   6.182 -0.2026 -0.1414  1.2754
42491SOL     OW33309   4.322   3.120   4.800  0.3045  0.0777  0.0623
42491SOL    HW133310   4.357   3.046   4.750  1.3426  0.7739 -0.2871
42491SOL    HW233311   4.293   3.183   4.733  1.1985  0.7830  0.3152
42492SOL     OW33312   3.736  11.680   8.335  0.3929 -0.1495 -0.3699
42492SOL    HW133313   3.668  11.652   8.274  0.9703 -1.6072 -0.3723
42492SOL    HW233314   3.699  11.757   8.378 -0.3027  0.5098 -2.0448
42493SOL     OW33315   2.227   2.740   9.462  0.1348 -0.3893  0.8201
42493SOL    HW133316   2.255   2.658   9.421 -0.7260 -0.3378  0.1048
42493SOL    HW233317   2.132   2.733   9.468 -0.2158  1.4654 -1.3436
42494SOL     OW33318   9.082   3.607  10.526  0.3920  0.7676 -0.6079
42494SOL    HW133319   9.028   3.528  10.534 -1.0974  1.7604 -0.4266
42494SOL    HW233320   9.119   3.602  10.438  2.8949 -1.6512  0.4349
42495SOL     OW33321   8.802   6.872   5.672 -0.1051  0.0871 -0.7656
42495SOL    HW133322   8.753   6.919   5.604 -0.6840  1.5003  0.5616
42495SOL    HW233323   8.840   6.942   5.726 -1.0556 -0.9354  1.3325
42496SOL     OW33324   5.088   4.931   4.846  0.0702  0.2103  0.1507
42496SOL    HW133325   5.167   4.946   4.794  0.8701 -0.1772  1.2175
42496SOL    HW233326   5.100   4.984   4.924  1.3148 -3.0083  2.3408
42497SOL     OW33327   1.265   6.447  10.158  0.0051  0.4651  0.2461
42497SOL    HW133328   1.272   6.386  10.232 -1.7157 -1.2939 -0.9417
42497SOL    HW233329   1.284   6.533  10.196  3.1826 -0.7853  1.8920
42498SOL     OW33330   2.451   2.975   4.916 -0.1977  0.3405  0.5609
42498SOL    HW133331   2.480   3.056   4.875 -0.5341 -0.0880 -0.5784
42498SOL    HW233332   2.497   2.906   4.868 -2.4190 -0.3121 -0.8216
42499SOL     OW33333   7.116   3.114   8.591  0.2733  0.8466 -0.2231
42499SOL    HW133334   7.053   3.059   8.544  0.2595  0.0021  0.7350
42499SOL    HW233335   7.095   3.203   8.564 -0.0074  0.4209 -1.4753
42500SOL     OW33336   5.291   3.858   7.319  0.2257 -0.9693 -0.5036
42500SOL    HW133337   5.346   3.882   7.393 -0.9465 -0.8728  0.3787
42500SOL    HW233338   5.320   3.915   7.247 -0.3297  0.8425  0.6326
42501SOL     OW33339   6.128   2.827   7.093  0.0829  0.3784  0.7672
42501SOL    HW133340   6.034   2.835   7.104  0.2882  0.1670  3.1211
42501SOL    HW233341   6.150   2.743   7.134  1.3472  0.6515  0.6856
42502SOL     OW33342   6.678   4.921   1.351  0.2300 -0.2413 -0.1662
42502SOL    HW133343   6.665   4.855   1.419  1.0950 -1.9463 -1.5798
42502SOL    HW233344   6.767   4.906   1.319  0.6164  1.9039 -0.2951
42503SOL     OW33345   8.796   8.815  10.117  0.2089  0.7257  0.5623
42503SOL    HW133346   8.878   8.838  10.072 -0.6131  2.3080 -0.2116
42503SOL    HW233347   8.816   8.733  10.162  2.1110  0.8803  0.1041
42504SOL     OW33348   1.545   0.175   5.030 -0.4676 -0.1060 -0.5658
42504SOL    HW133349   1.548   0.219   5.115  2.1795  1.0702 -1.1557
42504SOL    HW233350   1.463   0.126   5.031 -0.9867  0.6369  2.2629
42505SOL     OW33351  11.670   7.756   3.629  0.2157  0.0084  0.2942
42505SOL    HW133352  11.601   7.771   3.694  0.4604  0.5528  0.4307
42505SOL    HW233353  11.624   7.716   3.555 -0.6524  2.2474 -0.4612
42506SOL     OW33354   6.009   1.820   1.586 -0.1668  0.0625 -0.3768
42506SOL    HW133355   6.087   1.820   1.531 -0.2949  1.8904 -0.6334
42506SOL    HW233356   6.033   1.876   1.660 -0.2829 -1.6823  1.0369
42507SOL     OW33357   6.289   7.972   0.358  0.0017  0.2403 -0.2375
42507SOL    HW133358   6.316   8.035   0.291  0.8642 -1.2509 -1.3755
42507SOL    HW233359   6.207   7.936   0.324  0.7637 -0.9796 -0.8748
42508SOL     OW33360  11.144  10.651   7.978  0.0461  0.3406  0.7277
42508SOL    HW133361  11.135  10.745   7.964  2.1151  0.2376 -1.9982
42508SOL    HW233362  11.232  10.639   8.012 -0.8538 -0.5509  2.9768
42509SOL     OW33363   6.604   6.090   1.333 -0.2850  0.1200 -0.2869
42509SOL    HW133364   6.667   6.074   1.263 -0.8754  1.1330 -1.0691
42509SOL    HW233365   6.655   6.082   1.413  0.8126  0.7624 -0.8981
42510SOL     OW33366   3.221  11.307  11.210 -0.2306 -0.0286 -0.3474
42510SOL    HW133367   3.219  11.216  11.182  1.2810 -0.0696 -0.3650
42510SOL    HW233368   3.141  11.345  11.174 -2.6087 -2.0603  2.3012
42511SOL     OW33369  12.255   3.864  11.819 -0.1129  0.0491 -0.9281
42511SOL    HW133370  12.237   3.900  11.732  0.8511  1.4361 -0.5936
42511SOL    HW233371  12.187   3.902  11.875 -1.5565 -1.9046 -1.2773
42512SOL     OW33372   3.513   4.571   3.380  0.2949 -0.3732  0.4275
42512SOL    HW133373   3.481   4.492   3.425 -0.2785 -0.2463  0.2467
42512SOL    HW233374   3.554   4.538   3.300 -0.3316 -0.4546  0.1383
42513SOL     OW33375   8.863   3.331   2.939 -0.6536 -0.2008  0.2636
42513SOL    HW133376   8.878   3.417   2.978  2.7430  0.2051 -1.4910
42513SOL    HW233377   8.790   3.294   2.988  0.0530  2.2271  3.4698
42514SOL     OW33378   4.492  10.199   0.424 -0.3193  0.2398  0.5391
42514SOL    HW133379   4.571  10.147   0.408 -0.1166  1.0287 -1.3200
42514SOL    HW233380   4.454  10.162   0.503  1.1558 -1.0844  0.6710
42515SOL     OW33381  10.698   2.029   9.224 -0.7243 -1.1000 -0.2496
42515SOL    HW133382  10.686   2.040   9.318 -3.3156  0.5506 -0.6791
42515SOL    HW233383  10.793   2.019   9.213 -0.0353  1.3939  2.3062
42516SOL     OW33384   6.643   3.381   9.918  0.2870  0.0127 -0.5180
42516SOL    HW133385   6.638   3.396  10.013 -1.2359 -0.9821 -0.3975
42516SOL    HW233386   6.636   3.468   9.879 -2.3996  0.2267  0.2479
42517SOL     OW33387   0.663  11.183   1.916 -0.1354 -0.2442  0.1090
42517SOL    HW133388   0.712  11.110   1.954  0.9985  0.9223  0.9410
42517SOL    HW233389   0.599  11.208   1.983 -0.3761 -0.3159 -0.0895
42518SOL     OW33390   8.895   3.358   1.301  0.1372 -0.1384 -0.3856
42518SOL    HW133391   8.947   3.432   1.270 -0.3482  0.2486 -0.2773
42518SOL    HW233392   8.809   3.370   1.261  0.2174 -0.9598 -0.8307
42519SOL     OW33393   2.374   3.646  10.084  0.0035  0.0630 -0.4834
42519SOL    HW133394   2.325   3.711  10.034  2.3804  1.5500 -1.0523
42519SOL    HW233395   2.316   3.623  10.157 -1.0851  2.5830 -0.4452
42520SOL     OW33396   9.373   9.791   1.289 -0.0823  0.0528 -0.0417
42520SOL    HW133397   9.346   9.764   1.377  2.1913 -1.8580  0.1829
42520SOL    HW233398   9.465   9.764   1.283  0.0088  0.6794 -2.8055
42521SOL     OW33399   1.363   6.444   8.038  0.2055  0.0431 -0.3286
42521SOL    HW133400   1.363   6.519   8.097  0.5626  0.2692 -0.6089
42521SOL    HW233401   1.271   6.420   8.030  0.1986 -0.3595  0.7728
42522SOL     OW33402   5.447   3.779   2.436  0.7319 -1.0391 -0.2429
42522SOL    HW133403   5.383   3.723   2.391 -0.1809 -0.0347 -0.2458
42522SOL    HW233404   5.508   3.806   2.367  0.6869 -1.3557 -0.4097
42523SOL     OW33405  10.103  10.541   7.834  0.0294  0.0881 -0.2445
42523SOL    HW133406  10.159  10.505   7.904 -0.1228  1.0136  0.3685
42523SOL    HW233407  10.146  10.623   7.810 -0.3933  0.1885 -0.6497
42524SOL     OW33408   4.259   2.338   5.549 -0.2345  0.4037  0.5176
42524SOL    HW133409   4.263   2.296   5.463 -0.4183 -1.0057  1.1630
42524SOL    HW233410   4.169   2.370   5.556 -0.5684 -0.5309  0.6421
42525SOL     OW33411   6.941   4.888   1.312  0.0847  0.3387  0.2121
42525SOL    HW133412   7.014   4.948   1.293  0.9439 -0.2089  1.6060
42525SOL    HW233413   6.984   4.807   1.340 -1.0546 -0.9431 -1.5281
42526SOL     OW33414  11.178   4.162   7.648 -0.5073 -0.2928  0.1054
42526SOL    HW133415  11.091   4.160   7.688 -0.2062  0.0113  0.7957
42526SOL    HW233416  11.225   4.230   7.697  0.3153 -0.8992  0.1775
42527SOL     OW33417   1.860   5.701   1.524  0.1192 -0.2229  0.0095
42527SOL    HW133418   1.851   5.792   1.497 -0.1857  0.3428  1.9224
42527SOL    HW233419   1.949   5.677   1.498 -0.2633  0.1252 -1.7932
42528SOL     OW33420  10.810  12.093  10.028  0.7214 -0.5548 -0.4112
42528SOL    HW133421  10.851  12.013  10.061 -0.8857 -0.5404  1.7974
42528SOL    HW233422  10.717  12.084  10.049  0.4533  1.7983 -0.2979
42529SOL     OW33423   2.886   8.190   1.495 -0.2277 -0.6284 -0.2650
42529SOL    HW133424   2.793   8.168   1.486 -0.0596 -1.5347  0.1135
42529SOL    HW233425   2.928   8.145   1.422 -0.3247  1.4865 -1.7020
42530SOL     OW33426   9.611   3.445   8.848  0.6381  0.1292  0.1246
42530SOL    HW133427   9.597   3.539   8.852  0.0149  0.0908 -0.8885
42530SOL    HW233428   9.580   3.419   8.761 -0.2015 -1.1636  0.7702
42531SOL     OW33429   6.186   2.511   8.778 -0.3313 -0.2327 -0.0186
42531SOL    HW133430   6.194   2.416   8.770 -0.2419 -0.3088  0.8290
42531SOL    HW233431   6.140   2.538   8.699  0.7094 -0.8258 -0.8555
42532SOL     OW33432   0.019   9.138   0.892 -0.0807  0.1740  0.7594
42532SOL    HW133433  -0.067   9.180   0.903 -0.0249  0.3465  0.5485
42532SOL    HW233434  -0.002   9.048   0.868 -0.2435  0.7297 -1.4316
42533SOL     OW33435   2.557   9.976  11.696  0.1234 -0.0025  0.1558
42533SOL    HW133436   2.625   9.919  11.733 -1.1053 -1.3402  0.4743
42533SOL    HW233437   2.483   9.917  11.681 -0.6713  1.2344 -1.0134
42534SOL     OW33438   0.477   3.641   4.047  0.5841  0.3363 -0.8959
42534SOL    HW133439   0.420   3.624   3.973  0.5589 -0.7872 -0.6305
42534SOL    HW233440   0.560   3.599   4.025 -0.4329 -3.1140  1.1120
42535SOL     OW33441   4.263   9.712   5.345  0.0583 -1.1711 -0.2614
42535SOL    HW133442   4.288   9.768   5.272  0.9843  0.0643  0.9391
42535SOL    HW233443   4.343   9.705   5.398 -1.3985  1.0431  2.5309
42536SOL     OW33444   6.313   2.420   4.332 -0.0890 -0.0249  0.2078
42536SOL    HW133445   6.290   2.331   4.304 -3.1948  0.4228  0.8939
42536SOL    HW233446   6.364   2.407   4.412 -1.1887 -1.2618  0.7615
42537SOL     OW33447  12.065   5.367   2.133  0.2527  0.4689  0.1821
42537SOL    HW133448  12.047   5.274   2.144  0.4253  0.3201 -0.7387
42537SOL    HW233449  11.991   5.411   2.175 -0.6212 -0.1033 -0.7214
42538SOL     OW33450   1.023   3.912   9.952 -0.0422 -0.4363 -0.9385
42538SOL    HW133451   1.025   3.996   9.906  2.2546  1.4579  2.2070
42538SOL    HW233452   0.986   3.933  10.038  0.5755 -2.6467 -0.0695
42539SOL     OW33453   0.320   8.828   3.186  0.1747  0.0328 -0.0351
42539SOL    HW133454   0.379   8.900   3.209 -0.3991  0.8059 -0.8973
42539SOL    HW233455   0.350   8.799   3.100  1.3161 -1.7691  0.9252
42540SOL     OW33456   9.803   1.515   1.515  0.0193 -0.1224  0.0815
42540SOL    HW133457   9.790   1.434   1.565 -1.0891  0.1577  0.2716
42540SOL    HW233458   9.750   1.580   1.561 -0.2787  0.3622 -0.9255
42541SOL     OW33459   7.432  10.630  11.934  0.1459 -0.6125 -0.3832
42541SOL    HW133460   7.410  10.544  11.970  1.8846 -0.5514  0.9927
42541SOL    HW233461   7.493  10.667  11.998  0.7692  0.9370 -1.8100
42542SOL     OW33462   8.591  10.681   4.319  0.0050  0.8538 -0.1070
42542SOL    HW133463   8.579  10.755   4.379 -0.0062  0.4839  0.3552
42542SOL    HW233464   8.580  10.719   4.232 -2.1845  1.0032  0.1847
42543SOL     OW33465  10.529  12.011   0.744  0.0590  0.0351 -0.6325
42543SOL    HW133466  10.581  11.988   0.667  1.0308  1.7144 -0.5211
42543SOL    HW233467  10.438  12.007   0.715  0.3927  0.1619 -1.7116
42544SOL     OW33468   7.884   0.044  11.180  0.6677 -0.1731 -0.6819
42544SOL    HW133469   7.854   0.071  11.267  0.6530 -2.3036  0.0099
42544SOL    HW233470   7.957  -0.015  11.197 -0.1925 -1.6948 -2.0414
42545SOL     OW33471   1.019   5.052   9.343 -0.7064  0.0169  0.0700
42545SOL    HW133472   1.083   5.118   9.316 -1.6502  0.9871  0.1271
42545SOL    HW233473   0.971   5.031   9.263  0.4753 -1.6539 -0.2469
42546SOL     OW33474   0.242   8.074   5.550 -0.1346 -0.7007  0.0684
42546SOL    HW133475   0.336   8.056   5.542  0.0067 -0.2763  0.6427
42546SOL    HW233476   0.233   8.165   5.522 -0.4948 -0.9632 -0.6897
42547SOL     OW33477   0.741   5.218   3.401  0.3233 -0.4078 -0.0212
42547SOL    HW133478   0.699   5.248   3.321 -1.4441 -3.8096 -0.5705
42547SOL    HW233479   0.828   5.188   3.373  0.4259  0.1295 -0.2859
42548SOL     OW33480   1.252   9.877   5.322 -0.4519  0.0901 -0.1797
42548SOL    HW133481   1.285   9.787   5.328 -2.1302 -0.4885  1.0347
42548SOL    HW233482   1.299   9.914   5.247  0.7973 -1.5610 -0.2850
42549SOL     OW33483   9.429   6.761   6.150  0.0378 -0.5343  0.1484
42549SOL    HW133484   9.379   6.750   6.069  1.4004  1.0760 -0.9966
42549SOL    HW233485   9.402   6.846   6.184  2.1272  0.5696 -0.7142
42550SOL     OW33486   2.363   9.533   1.715 -0.0489 -0.0197  0.1090
42550SOL    HW133487   2.341   9.608   1.660  0.1763  0.1000  0.1807
42550SOL    HW233488   2.419   9.569   1.784  0.3994 -0.3248 -0.0927
42551SOL     OW33489   6.675  10.068   4.288  0.2811  0.0348  0.3430
42551SOL    HW133490   6.718  10.143   4.328 -0.3512  0.7070 -0.2138
42551SOL    HW233491   6.622  10.031   4.359  1.4485 -0.5701  0.9267
42552SOL     OW33492   2.702   7.822   4.698  0.1785 -0.0621 -1.1501
42552SOL    HW133493   2.615   7.799   4.665 -1.1658 -1.3790  2.7058
42552SOL    HW233494   2.743   7.737   4.717 -0.0562  0.4203  2.2213
42553SOL     OW33495   8.813   2.732   2.652  0.0143  0.1004 -0.4835
42553SOL    HW133496   8.761   2.788   2.710 -0.7217 -0.4196 -0.6248
42553SOL    HW233497   8.890   2.784   2.631 -0.0928  0.6040  0.3251
42554SOL     OW33498   8.943   0.860   5.719  0.4044 -0.4353  0.0361
42554SOL    HW133499   8.990   0.801   5.777  1.4647  1.5543  1.3364
42554SOL    HW233500   8.859   0.817   5.704  0.3845 -1.4101  2.4665
42555SOL     OW33501  12.046   4.522   7.492  0.6593  0.1678 -0.2149
42555SOL    HW133502  12.084   4.545   7.407 -0.5840  2.7213 -0.1707
42555SOL    HW233503  12.085   4.585   7.554 -2.0878  1.6791  0.1372
42556SOL     OW33504  11.933   1.479   0.224 -0.5709  0.3490 -0.3391
42556SOL    HW133505  11.929   1.451   0.133 -0.0437  0.8533 -0.5203
42556SOL    HW233506  11.847   1.456   0.260 -0.2833 -1.1667 -0.5755
42557SOL     OW33507   4.770   6.854   7.619  0.3560  0.0600  0.0469
42557SOL    HW133508   4.797   6.932   7.668 -0.6100  0.5201 -0.1365
42557SOL    HW233509   4.697   6.819   7.670 -1.2686  1.0495 -1.4853
42558SOL     OW33510   3.164   9.019   8.209  0.1148 -0.1611 -0.1266
42558SOL    HW133511   3.158   8.946   8.148  0.3887 -0.1391 -0.1806
42558SOL    HW233512   3.083   9.068   8.196  0.5464  0.3419 -1.1158
42559SOL     OW33513  10.439   2.036  12.199 -0.0627  0.4162  0.3830
42559SOL    HW133514  10.527   2.031  12.164  0.7909  1.6788  2.1855
42559SOL    HW233515  10.404   1.947  12.188  0.7281  0.3363 -1.9813
42560SOL     OW33516   5.464   5.148  11.173  0.1260  0.5501 -0.0059
42560SOL    HW133517   5.428   5.188  11.252 -0.9753  0.9327 -0.6891
42560SOL    HW233518   5.471   5.220  11.111 -0.4761 -0.0367 -0.7645
42561SOL     OW33519   2.682   7.058  12.003 -0.5198  0.0308  0.0388
42561SOL    HW133520   2.775   7.065  11.982  0.0510 -0.6533  2.0913
42561SOL    HW233521   2.671   7.106  12.085 -2.3510  1.4809 -0.9501
42562SOL     OW33522   1.611   4.221  10.093  0.4182  0.0722 -0.0277
42562SOL    HW133523   1.545   4.237  10.025 -1.1944  0.2097  1.4843
42562SOL    HW233524   1.649   4.307  10.109  0.7244  0.0614 -0.6470
42563SOL     OW33525   5.251   1.146   7.860 -0.6991 -0.3981  0.0599
42563SOL    HW133526   5.241   1.227   7.911  0.4618 -0.8683  1.0882
42563SOL    HW233527   5.291   1.174   7.778  0.7718 -0.0335  0.8669
42564SOL     OW33528   2.798   0.517   4.537 -0.3201 -0.3123 -0.3064
42564SOL    HW133529   2.835   0.441   4.492 -0.4892 -1.1120  0.8754
42564SOL    HW233530   2.826   0.507   4.628 -2.3493 -0.2538  0.3765
42565SOL     OW33531  11.389   1.450   0.133 -1.1152 -0.4761 -0.1142
42565SOL    HW133532  11.357   1.423   0.218  1.2546  1.1462  1.4286
42565SOL    HW233533  11.382   1.546   0.135  1.2905 -0.2274 -0.6543
42566SOL     OW33534   9.461  10.110  11.422 -0.2477  0.4989  0.1652
42566SOL    HW133535   9.475  10.110  11.328 -0.3438 -1.4514  0.0976
42566SOL    HW233536   9.545  10.137  11.459 -0.3947  1.8957 -0.4609
42567SOL     OW33537   7.539   8.413   1.151  0.2906 -0.2347  0.1290
42567SOL    HW133538   7.546   8.318   1.158  2.3144 -0.2039 -0.7488
42567SOL    HW233539   7.556   8.431   1.058 -2.1213  0.8813 -0.1776
42568SOL     OW33540  11.108   4.098   5.526  0.4718  0.3751 -0.6449
42568SOL    HW133541  11.032   4.138   5.568 -0.8902 -0.6357 -2.0340
42568SOL    HW233542  11.178   4.108   5.590 -0.7470  1.6003  0.5734
42569SOL     OW33543   7.472   7.833   5.710 -0.4133  0.2539  0.2960
42569SOL    HW133544   7.491   7.823   5.617 -1.0461 -2.3773  0.3775
42569SOL    HW233545   7.437   7.748   5.737 -0.0326  0.8571  2.9957
42570SOL     OW33546   7.451   5.023   5.175  0.2845  0.0291 -0.0415
42570SOL    HW133547   7.536   4.980   5.171  0.3082  0.1595 -1.9197
42570SOL    HW233548   7.403   4.990   5.099 -0.9785  0.7277  0.4075
42571SOL     OW33549   8.916   9.419   8.677 -0.0677  0.3620 -0.2494
42571SOL    HW133550   8.835   9.468   8.692 -0.5499 -0.3066 -0.6039
42571SOL    HW233551   8.985   9.483   8.691 -0.6756  1.0971 -0.5020
42572SOL     OW33552   1.947   6.276   8.205 -0.1941 -0.0340 -0.4181
42572SOL    HW133553   1.873   6.217   8.215 -0.6133  0.4094 -0.8707
42572SOL    HW233554   2.012   6.243   8.267 -0.6599 -0.5888 -0.2131
42573SOL     OW33555   9.997   0.312   4.233 -0.6693  0.3927 -0.1906
42573SOL    HW133556   9.951   0.287   4.313 -1.8423  1.0104 -0.6543
42573SOL    HW233557  10.024   0.228   4.194 -1.4886  0.0102  0.0443
42574SOL     OW33558   6.678   7.584   4.117 -0.2694 -0.6266  0.4086
42574SOL    HW133559   6.662   7.670   4.079 -0.5310 -1.8444 -2.4876
42574SOL    HW233560   6.772   7.580   4.131  0.0606 -0.6494 -1.6224
42575SOL     OW33561   7.658   4.036   7.257 -0.4003  0.3220 -0.1845
42575SOL    HW133562   7.581   4.049   7.311  0.4750  1.0504  0.9166
42575SOL    HW233563   7.693   3.951   7.285 -0.2715  0.4342 -0.0004
42576SOL     OW33564   3.555   6.781   9.785  0.1427 -0.3074  0.0834
42576SOL    HW133565   3.577   6.864   9.743 -0.7492 -1.0019 -1.9042
42576SOL    HW233566   3.479   6.801   9.839  0.8860  0.4757  0.8619
42577SOL     OW33567   7.105   6.940  10.439 -0.1721 -0.8554  0.3609
42577SOL    HW133568   7.091   6.846  10.422 -0.2669 -1.0907  1.6551
42577SOL    HW233569   7.113   6.946  10.534  1.5149  0.2276  0.1858
42578SOL     OW33570   2.146   7.274   0.449  0.1233 -0.0320  0.1850
42578SOL    HW133571   2.146   7.269   0.544 -0.3419 -1.1262  0.1520
42578SOL    HW233572   2.074   7.333   0.427  0.1511  0.1207  0.5086
42579SOL     OW33573   4.899   0.128  10.660  0.0242 -0.5629 -0.1942
42579SOL    HW133574   4.940   0.082  10.587  0.8194 -0.4766  0.1862
42579SOL    HW233575   4.826   0.071  10.686  0.3330 -1.0782 -0.4279
42580SOL     OW33576   6.443   3.076  10.986 -0.5745  0.2404 -0.2073
42580SOL    HW133577   6.426   2.998  11.038  1.3385 -0.0862 -0.0128
42580SOL    HW233578   6.396   3.061  10.904  0.6279 -1.6417 -0.6072
42581SOL     OW33579   8.061   1.939   6.859  0.2532 -0.0619 -0.8636
42581SOL    HW133580   8.054   1.871   6.792 -0.4978 -1.7952  0.8693
42581SOL    HW233581   8.153   1.965   6.859  0.9227 -2.2824 -0.5015
42582SOL     OW33582   0.817   4.160   0.860  0.2698  0.2657 -0.5666
42582SOL    HW133583   0.724   4.147   0.882  0.5361 -0.0024  0.4397
42582SOL    HW233584   0.836   4.090   0.797 -0.0697 -0.0209 -0.3567
42583SOL     OW33585   0.053   1.566   9.784  0.1191  0.1428 -0.1462
42583SOL    HW133586  -0.007   1.569   9.858  1.8219  0.8748  1.3027
42583SOL    HW233587   0.050   1.655   9.748 -0.0154  0.0563 -0.3433
42584SOL     OW33588   9.855  11.375   2.822 -0.0746  0.6265 -0.5994
42584SOL    HW133589   9.910  11.303   2.790 -0.5491 -0.2394  0.4376
42584SOL    HW233590   9.830  11.423   2.744  0.8570  0.0929 -1.2484
42585SOL     OW33591   6.551   9.814   1.846 -0.4871 -0.7409  0.3756
42585SOL    HW133592   6.529   9.905   1.868 -0.7288 -0.7176  0.0466
42585SOL    HW233593   6.628   9.794   1.900  1.3052  0.5613 -1.5330
42586SOL     OW33594  12.024  12.204   3.029  0.3390  0.0575  0.0168
42586SOL    HW133595  12.046  12.169   2.943  0.6258  0.6096 -0.1368
42586SOL    HW233596  12.106  12.201   3.079  0.5150  1.0676 -0.1944
42587SOL     OW33597   3.273   4.692   1.101  0.1785 -0.1665 -0.2922
42587SOL    HW133598   3.291   4.676   1.194 -1.7153  1.1994  0.3884
42587SOL    HW233599   3.314   4.776   1.083  1.1863 -0.7784 -0.9306
42588SOL     OW33600   7.237   6.432   6.518  0.3125 -0.2509 -0.5826
42588SOL    HW133601   7.210   6.344   6.544  0.4542  0.3977  2.0854
42588SOL    HW233602   7.157   6.475   6.490  0.4639 -1.6103 -3.4128
42589SOL     OW33603  11.474   2.329   9.067  0.1207 -0.4269  0.2180
42589SOL    HW133604  11.435   2.285   9.142 -0.7581  0.4586  0.3016
42589SOL    HW233605  11.436   2.284   8.991 -1.2601  0.5581  0.2966
42590SOL     OW33606   3.473   4.556   3.796  0.6228  0.3260 -0.4559
42590SOL    HW133607   3.499   4.648   3.807 -2.7642  1.2663  0.7384
42590SOL    HW233608   3.472   4.521   3.885 -0.3407 -0.1504 -0.6429
42591SOL     OW33609   9.343   4.178   7.724 -0.1051 -0.4306  0.2023
42591SOL    HW133610   9.414   4.152   7.665 -0.1839 -2.0066  0.7418
42591SOL    HW233611   9.277   4.217   7.666  0.0181 -1.5209 -0.7204
42592SOL     OW33612   9.053   0.817  11.822  0.3420 -0.3405  0.5944
42592SOL    HW133613   9.129   0.832  11.878 -0.6812  1.6170  1.5821
42592SOL    HW233614   9.010   0.740  11.859  1.7672 -1.4436  0.0489
42593SOL     OW33615   6.553   3.505   4.833  0.4421 -0.1566 -0.2118
42593SOL    HW133616   6.534   3.426   4.884  0.9897 -0.5296 -0.5711
42593SOL    HW233617   6.487   3.505   4.764  2.1633 -1.9405 -2.0043
42594SOL     OW33618   6.560  11.146  10.084  0.0115  0.1414 -0.3790
42594SOL    HW133619   6.615  11.069  10.080  0.7642  0.6221  0.3852
42594SOL    HW233620   6.541  11.167   9.992  0.1485 -0.6927 -0.6047
42595SOL     OW33621   0.915   4.964   8.199 -0.1209  0.2342  0.1343
42595SOL    HW133622   0.898   4.882   8.152 -1.5443  0.3560  0.4069
42595SOL    HW233623   0.987   5.004   8.151 -0.3258 -0.5203 -0.8415
42596SOL     OW33624   3.706  10.552  10.930  0.4472  0.2062  0.7439
42596SOL    HW133625   3.688  10.496  10.855  2.6099  0.4524 -0.0125
42596SOL    HW233626   3.687  10.641  10.899 -2.0118  0.0871  1.6383
42597SOL     OW33627  10.727   1.863   1.753 -0.6876 -0.4170 -0.4077
42597SOL    HW133628  10.819   1.839   1.762  0.3173  2.2631 -2.2907
42597SOL    HW233629  10.700   1.823   1.670  0.0109  1.8478 -1.8246
42598SOL     OW33630   3.722   7.038   0.360 -0.0620  0.5430 -0.1801
42598SOL    HW133631   3.815   7.022   0.342 -0.5290 -2.0268 -0.7884
42598SOL    HW233632   3.692   6.956   0.400 -2.2929  0.9148 -0.9623
42599SOL     OW33633   7.524   8.810   8.913  0.2295  0.3735 -0.4654
42599SOL    HW133634   7.607   8.858   8.903  2.1136 -2.4927 -0.0198
42599SOL    HW233635   7.495   8.830   9.002  1.9625 -0.5968  0.3840
42600SOL     OW33636   3.246   7.252   7.849  0.6681 -1.8617 -0.2009
42600SOL    HW133637   3.315   7.190   7.828  2.0997 -0.2002 -0.6638
42600SOL    HW233638   3.270   7.332   7.801 -0.0774 -0.3671  1.7615
42601SOL     OW33639   6.533  11.787   7.094  0.0199  0.1543 -0.4968
42601SOL    HW133640   6.555  11.716   7.154 -1.7040 -2.1498 -2.3704
42601SOL    HW233641   6.606  11.848   7.101  0.9558 -1.1204  2.1887
42602SOL     OW33642  10.482   0.370   6.672  0.3263 -0.1103 -0.5739
42602SOL    HW133643  10.551   0.397   6.612  0.4979 -0.8397 -0.7136
42602SOL    HW233644  10.526   0.361   6.756  0.0777  0.9540 -0.3047
42603SOL     OW33645   0.871   7.321   6.292  0.0238  0.1370 -0.3475
42603SOL    HW133646   0.807   7.391   6.303 -1.2374 -0.6856 -2.0589
42603SOL    HW233647   0.888   7.317   6.198  2.6019  0.2837  0.0180
42604SOL     OW33648   8.024   1.480   8.614 -0.7116  0.1970 -0.2781
42604SOL    HW133649   8.017   1.453   8.705 -1.9134 -2.1613 -0.9813
42604SOL    HW233650   8.046   1.573   8.617  0.9109 -0.1857  2.3848
42605SOL     OW33651  12.100   0.756   9.995 -0.0082 -0.5034 -0.1318
42605SOL    HW133652  12.026   0.777   9.939 -0.1734 -1.5386 -0.3150
42605SOL    HW233653  12.125   0.840  10.035 -0.6925  0.0075 -0.7661
42606SOL     OW33654   1.335   3.789  11.586  0.3840 -0.3192 -0.2374
42606SOL    HW133655   1.393   3.859  11.616 -0.2358 -0.0723  0.4184
42606SOL    HW233656   1.294   3.825  11.507 -1.1793  0.7690  0.9936
42607SOL     OW33657   8.097   1.253   2.358 -0.1272  0.4656  1.2351
42607SOL    HW133658   8.085   1.158   2.361  0.8001  0.3051  0.6361
42607SOL    HW233659   8.149   1.273   2.436 -0.5889  0.5245  1.5260
42608SOL     OW33660   4.517   2.227  12.119 -0.0804  0.1141  0.7860
42608SOL    HW133661   4.594   2.237  12.063  0.0897 -0.3706  0.9214
42608SOL    HW233662   4.469   2.309  12.110 -0.3258 -0.1455 -0.4768
42609SOL     OW33663   5.649   1.915   6.480 -0.1992  0.8150 -0.5489
42609SOL    HW133664   5.671   1.953   6.565  0.6378  1.6817 -1.1264
42609SOL    HW233665   5.555   1.895   6.486  0.0618 -0.0920  0.9127
42610SOL     OW33666  12.323   3.607   7.082  0.2428  0.2973 -0.0742
42610SOL    HW133667  12.402   3.583   7.130 -0.3572  1.5477  1.6635
42610SOL    HW233668  12.347   3.686   7.034  0.9692 -1.1880 -2.3203
42611SOL     OW33669  10.860   4.327   5.038  0.1276 -1.1366 -0.1497
42611SOL    HW133670  10.907   4.393   5.090  0.3818  0.0691 -1.8266
42611SOL    HW233671  10.769   4.356   5.040  0.4201  0.0921 -1.9493
42612SOL     OW33672   8.472   1.719   9.192  0.2372 -0.6476 -0.6737
42612SOL    HW133673   8.546   1.674   9.150  0.0840 -0.9506 -0.6188
42612SOL    HW233674   8.403   1.719   9.126  0.7851  1.0325 -1.3211
42613SOL     OW33675   2.346   6.030  10.627  0.3410  0.8149  0.0773
42613SOL    HW133676   2.330   6.077  10.545 -1.0727 -0.3386 -0.3555
42613SOL    HW233677   2.431   5.987  10.613 -0.2407 -0.0092 -1.1287
42614SOL     OW33678  12.109  10.027   6.340 -0.8041 -0.0680 -0.1697
42614SOL    HW133679  12.093   9.960   6.406 -0.2737 -1.2757 -1.2228
42614SOL    HW233680  12.203  10.047   6.349 -0.2865 -1.5282 -1.6437
42615SOL     OW33681   9.741   5.508   6.564  0.0184  0.4051  0.3678
42615SOL    HW133682   9.768   5.423   6.529  0.3727  0.0915  1.3453
42615SOL    HW233683   9.822   5.558   6.569 -0.2351  0.9105 -0.4726
42616SOL     OW33684   9.151   2.028   0.334  0.2760  0.2497 -0.4607
42616SOL    HW133685   9.088   2.080   0.385 -0.2197 -0.1790 -0.6232
42616SOL    HW233686   9.097   1.975   0.276  0.8022  0.0357 -0.7652
42617SOL     OW33687  10.000   7.603   4.465  0.5558 -0.3299  0.1831
42617SOL    HW133688   9.914   7.594   4.423  0.3199  3.7253 -0.6217
42617SOL    HW233689  10.063   7.582   4.396  0.4359 -4.5501  1.1041
42618SOL     OW33690   8.771  11.918   8.930 -0.3711  0.9296 -0.2485
42618SOL    HW133691   8.796  11.826   8.919  0.2220  1.0087  0.3521
42618SOL    HW233692   8.841  11.967   8.886  0.8281  1.1675  1.8010
42619SOL     OW33693   6.664   7.993  10.801 -0.6084  0.0158 -0.3583
42619SOL    HW133694   6.598   7.974  10.868  0.4639  1.5408  1.2247
42619SOL    HW233695   6.698   7.908  10.776 -1.5092 -0.6451  0.5573
42620SOL     OW33696   9.965   3.764   0.811  0.1754 -0.3413  1.1093
42620SOL    HW133697  10.022   3.817   0.866 -0.9547  1.6044  0.5024
42620SOL    HW233698  10.011   3.760   0.726  0.5421 -0.8606  1.3278
42621SOL     OW33699   7.775   6.459   8.250  0.1343 -0.0794  0.3711
42621SOL    HW133700   7.683   6.465   8.225  0.6991  2.2068 -1.5693
42621SOL    HW233701   7.781   6.508   8.332 -0.2870  0.3226  0.1658
42622SOL     OW33702   2.187   6.600   5.679  0.0841  0.4197 -0.3394
42622SOL    HW133703   2.241   6.561   5.747  0.9437  0.8618 -0.7532
42622SOL    HW233704   2.140   6.527   5.640  0.4817  0.0140 -0.0595
42623SOL     OW33705   5.137   0.078   9.027 -0.1911  0.1266 -0.4120
42623SOL    HW133706   5.099   0.062   9.113  1.0508  0.8459  0.2921
42623SOL    HW233707   5.096   0.160   8.998 -0.4341  0.0056 -0.4172
42624SOL     OW33708   8.562  11.583   5.035  0.3167 -0.1869  0.9597
42624SOL    HW133709   8.566  11.634   5.116 -1.2197 -0.9087  1.5217
42624SOL    HW233710   8.606  11.501   5.056  2.7069  0.7754  0.0814
42625SOL     OW33711   6.850   2.821   9.152  0.1672  0.0886  0.1995
42625SOL    HW133712   6.757   2.796   9.146  0.1150  0.2954  0.1512
42625SOL    HW233713   6.886   2.798   9.067  0.4048 -0.9824  0.5759
42626SOL     OW33714   6.685   1.520   3.361 -0.7636 -0.6846 -0.0964
42626SOL    HW133715   6.780   1.531   3.360 -0.6743 -1.4123 -1.3666
42626SOL    HW233716   6.668   1.466   3.438  0.0609 -2.1102 -0.8784
42627SOL     OW33717   1.708  11.715  10.984 -0.6279 -0.1020 -0.2012
42627SOL    HW133718   1.755  11.632  10.974  1.0492  0.7190  0.3762
42627SOL    HW233719   1.622  11.700  10.945 -0.3430 -2.0840 -0.1379
42628SOL     OW33720   2.019   0.700   1.467  0.2870 -0.8050 -0.7644
42628SOL    HW133721   1.938   0.677   1.420  0.0260 -0.4193 -0.5116
42628SOL    HW233722   2.016   0.648   1.547 -0.6618  0.6115  0.1531
42629SOL     OW33723   5.366   8.308  11.422  0.0342  0.0835 -0.1729
42629SOL    HW133724   5.400   8.375  11.361 -0.7109 -0.2835 -1.0092
42629SOL    HW233725   5.439   8.292  11.482  1.2697 -0.4521 -1.7249
42630SOL     OW33726   1.625   0.781  10.086 -0.5703 -0.0741 -0.0782
42630SOL    HW133727   1.675   0.715  10.037 -0.9823 -0.0365 -0.5544
42630SOL    HW233728   1.690   0.820  10.145 -0.3647 -1.0371  0.3594
42631SOL     OW33729  11.451   8.165   4.562  0.2981 -0.1724 -0.3663
42631SOL    HW133730  11.464   8.218   4.641  2.0848 -0.1964 -0.5868
42631SOL    HW233731  11.529   8.183   4.509 -0.7443 -0.3371 -2.0321
42632SOL     OW33732   8.302   3.657   0.248  0.0408  0.1309 -0.5454
42632SOL    HW133733   8.279   3.656   0.155 -1.9738  0.6873 -0.1033
42632SOL    HW233734   8.358   3.581   0.259 -0.9923 -0.8937 -1.9236
42633SOL     OW33735  10.991   1.616   7.251  0.1675  0.2712 -0.2302
42633SOL    HW133736  11.027   1.538   7.292  3.0407  1.3987 -0.4103
42633SOL    HW233737  10.936   1.655   7.319 -1.0089 -1.6145 -0.0044
42634SOL     OW33738   9.378  11.334   1.081  0.0258  0.4592 -0.3762
42634SOL    HW133739   9.432  11.257   1.065 -0.7004 -0.2977  0.7392
42634SOL    HW233740   9.288  11.304   1.066 -0.3391  0.8303  0.9272
42635SOL     OW33741   7.138   0.590   7.840  0.4859  0.2717  0.2755
42635SOL    HW133742   7.088   0.651   7.894 -1.9620  0.1167 -1.6076
42635SOL    HW233743   7.184   0.647   7.777  0.1794  0.2899  0.0661
42636SOL     OW33744   0.281  12.188  11.435 -0.1464 -0.2336 -0.1499
42636SOL    HW133745   0.193  12.173  11.402 -0.6821  2.0179  0.1416
42636SOL    HW233746   0.333  12.208  11.357 -0.1500 -0.4326 -0.2030
42637SOL     OW33747   3.415   0.763   5.394  0.4131  0.1230 -0.5676
42637SOL    HW133748   3.437   0.849   5.428  2.3132  0.4392 -2.4031
42637SOL    HW233749   3.324   0.749   5.421  1.0584  1.2696  2.5068
42638SOL     OW33750  10.594   6.161   3.529  0.1061  0.4584  0.3553
42638SOL    HW133751  10.605   6.256   3.527 -0.5251  0.5292 -1.4494
42638SOL    HW233752  10.563   6.138   3.441 -0.1230 -1.3768  0.8679
42639SOL     OW33753  11.665   3.016   4.395 -0.3054  0.5562 -0.3436
42639SOL    HW133754  11.745   2.964   4.405 -0.5185  0.2655 -0.1167
42639SOL    HW233755  11.630   2.990   4.309 -0.1668  0.6676 -0.4333
42640SOL     OW33756   5.684  11.990   9.341  0.0882 -0.6770  0.2280
42640SOL    HW133757   5.775  11.998   9.366  0.2212 -0.6341 -0.2626
42640SOL    HW233758   5.686  11.944   9.257 -0.3331 -0.5799  0.1622
42641SOL     OW33759   8.718   2.450   6.360  0.7206 -0.8993  0.6656
42641SOL    HW133760   8.693   2.498   6.281  0.9301  1.3867  1.9062
42641SOL    HW233761   8.793   2.397   6.333 -0.2749 -1.5159 -1.0553
42642SOL     OW33762   7.095   3.570   2.987 -0.0576  0.2070  0.5045
42642SOL    HW133763   7.024   3.614   3.034 -0.4376  0.6833 -0.5059
42642SOL    HW233764   7.155   3.639   2.963  0.6024 -0.1561  1.0611
42643SOL     OW33765   5.495   7.263   9.338 -0.5048 -0.0739 -0.1507
42643SOL    HW133766   5.589   7.246   9.349 -1.0748 -3.7978  0.3593
42643SOL    HW233767   5.485   7.282   9.245  0.8994  2.5843  0.1270
42644SOL     OW33768   1.100  10.664   9.349 -0.3023  0.0559  0.0465
42644SOL    HW133769   1.165  10.705   9.292  0.4588 -2.0891 -0.7459
42644SOL    HW233770   1.031  10.730   9.358  1.3664  1.9230 -0.1417
42645SOL     OW33771   3.213   6.314   9.417  0.3454  0.5173 -0.0368
42645SOL    HW133772   3.237   6.224   9.397 -0.3267  0.3468 -0.1194
42645SOL    HW233773   3.124   6.323   9.383  0.7226  1.4743 -0.8061
42646SOL     OW33774   4.948  12.298  11.566 -0.0272 -0.0012 -0.2798
42646SOL    HW133775   4.882  12.241  11.605  1.1308 -1.1532  0.0563
42646SOL    HW233776   4.978  12.352  11.638 -0.1750  0.1224 -0.3083
42647SOL     OW33777  10.084   5.875   3.812  0.1992  0.1950 -0.1367
42647SOL    HW133778  10.050   5.913   3.893  0.5216  1.7019 -0.6633
42647SOL    HW233779  10.009   5.874   3.753 -0.7570 -3.3616  0.8771
42648SOL     OW33780  11.471   3.321  10.582 -0.1973 -0.1851  0.6216
42648SOL    HW133781  11.407   3.252  10.563 -0.6758 -0.5885  3.3170
42648SOL    HW233782  11.426   3.379  10.643  1.2122  0.9147  0.6714
42649SOL     OW33783   9.382  11.113   0.354  0.2881 -0.6206  0.8793
42649SOL    HW133784   9.433  11.194   0.359 -1.2987  0.5118 -0.2209
42649SOL    HW233785   9.404  11.076   0.268  0.4907 -1.0051  1.0943
42650SOL     OW33786  10.098   9.823   9.838  0.5869 -0.4333 -0.4932
42650SOL    HW133787  10.115   9.728   9.838 -1.6496 -0.8915 -0.6587
42650SOL    HW233788  10.175   9.861   9.881  1.5147 -2.3182 -0.3679
42651SOL     OW33789   8.606   9.122   5.448 -0.0254 -0.0610 -0.8207
42651SOL    HW133790   8.561   9.204   5.470  2.2255  0.8964  0.6087
42651SOL    HW233791   8.631   9.131   5.357 -1.5532 -0.0906 -1.2747
42652SOL     OW33792  12.047  12.215  10.608  0.2994 -0.3248 -0.0949
42652SOL    HW133793  12.126  12.262  10.580  0.9211 -1.8951 -1.0940
42652SOL    HW233794  12.057  12.207  10.703  1.8242 -1.2536 -0.2925
42653SOL     OW33795   9.757   8.558  11.353 -0.2803 -0.0424  0.5091
42653SOL    HW133796   9.697   8.485  11.334 -1.1177  0.2433  1.8772
42653SOL    HW233797   9.766   8.603  11.270 -2.6328  0.3529  0.3849
42654SOL     OW33798   8.185   6.491   1.304  0.0069 -0.0503 -0.4551
42654SOL    HW133799   8.237   6.427   1.255 -1.9348 -1.9571 -0.1997
42654SOL    HW233800   8.118   6.520   1.241 -1.8199 -1.6732  0.6397
42655SOL     OW33801   4.198   7.891   3.754  0.2172  0.5389  0.8555
42655SOL    HW133802   4.259   7.962   3.732 -0.0338  0.3417 -0.6146
42655SOL    HW233803   4.199   7.834   3.676 -0.9591 -0.0914  1.2778
42656SOL     OW33804  11.325   1.955   2.661 -0.6570 -0.4062  0.4963
42656SOL    HW133805  11.243   1.924   2.622  1.0247 -1.6403 -2.3517
42656SOL    HW233806  11.366   1.876   2.696 -0.0434 -0.0278  0.6497
42657SOL     OW33807   6.143   1.696   8.527  0.0283 -0.4249  0.6205
42657SOL    HW133808   6.187   1.637   8.588 -0.0670 -1.4672 -0.3041
42657SOL    HW233809   6.057   1.711   8.567  0.5755  0.2999  1.5923
42658SOL     OW33810   4.718   8.030   7.933  0.0510  0.4226 -0.2976
42658SOL    HW133811   4.763   7.957   7.976  1.1651  1.6742  0.7705
42658SOL    HW233812   4.640   8.044   7.986 -0.1901 -0.0177 -0.5330
42659SOL     OW33813  12.143   3.027   9.538  0.1971  0.1013 -0.2795
42659SOL    HW133814  12.235   3.052   9.547  0.0482  1.2510 -1.6477
42659SOL    HW233815  12.140   2.971   9.461 -0.3419  0.5939 -0.6226
42660SOL     OW33816  11.352   5.735  12.120  0.4760  0.2436  0.0424
42660SOL    HW133817  11.323   5.826  12.108  0.3728  0.3901  1.2392
42660SOL    HW233818  11.375   5.706  12.032 -1.4200  0.7669 -0.6979
42661SOL     OW33819   3.698   9.104   0.890  0.1854 -0.0123 -0.5960
42661SOL    HW133820   3.603   9.107   0.898  0.0892 -0.2820 -1.4764
42661SOL    HW233821   3.727   9.191   0.917 -0.2575 -0.1338  0.2838
42662SOL     OW33822  11.516   0.836   1.844  0.2997 -0.4471  0.1253
42662SOL    HW133823  11.574   0.777   1.891  1.5963  0.6676 -0.0289
42662SOL    HW233824  11.540   0.825   1.752  0.0296 -0.2236  0.0265
42663SOL     OW33825   6.075   8.499   1.424 -0.6043 -0.4610  0.1706
42663SOL    HW133826   6.087   8.422   1.479 -2.3093 -0.9015 -0.0018
42663SOL    HW233827   5.981   8.519   1.430 -0.4006  0.9392 -0.6638
42664SOL     OW33828   4.629   7.553   4.047 -0.4150  0.3483 -0.2793
42664SOL    HW133829   4.692   7.557   4.119 -0.2868 -1.5964 -0.2400
42664SOL    HW233830   4.558   7.611   4.074 -1.1553 -1.5809  2.2508
42665SOL     OW33831   5.745  10.518   8.935  0.2418  0.1203  0.2663
42665SOL    HW133832   5.655  10.536   8.909  0.0278 -1.2274  0.0128
42665SOL    HW233833   5.798  10.574   8.879 -0.4096  0.3482 -0.1319
42666SOL     OW33834   8.365   5.988   1.282  0.2851 -0.5025 -0.1118
42666SOL    HW133835   8.311   6.053   1.326 -1.2656 -0.7355 -1.5649
42666SOL    HW233836   8.360   5.910   1.338 -0.9783 -0.5389 -0.2450
42667SOL     OW33837   5.665   5.138   6.319 -0.1474 -0.3696 -0.3252
42667SOL    HW133838   5.650   5.220   6.271 -0.6481  0.3037  0.9263
42667SOL    HW233839   5.760   5.130   6.325 -0.0822 -0.2517 -1.0297
42668SOL     OW33840   9.456   9.375   0.825 -0.2155  0.3040  1.1239
42668SOL    HW133841   9.382   9.329   0.865  1.2658 -2.4825  0.9741
42668SOL    HW233842   9.533   9.340   0.871  1.1416  1.5108 -0.1278
42669SOL     OW33843   1.303   9.417   6.469 -0.0932  0.7044 -0.5032
42669SOL    HW133844   1.227   9.474   6.460 -1.1681 -0.6547 -0.3346
42669SOL    HW233845   1.317   9.381   6.382 -1.5735 -1.3628  0.0271
42670SOL     OW33846   9.098  10.475   4.312  0.1155 -0.2921 -0.0808
42670SOL    HW133847   9.053  10.398   4.346 -0.2485 -0.2662 -0.4869
42670SOL    HW233848   9.034  10.516   4.253  0.3903  0.1828 -0.0568
42671SOL     OW33849   9.515   9.889   3.488  0.0623 -0.3218 -0.2912
42671SOL    HW133850   9.602   9.919   3.459 -0.2399 -0.5792 -1.5404
42671SOL    HW233851   9.458   9.904   3.413 -1.0658  0.1570  0.6344
42672SOL     OW33852   8.413   8.454   6.615 -0.4399 -0.0033  0.6068
42672SOL    HW133853   8.351   8.411   6.556  0.2669  0.3335 -0.4228
42672SOL    HW233854   8.376   8.442   6.702 -1.5232 -0.5129  0.0985
42673SOL     OW33855   3.948  11.942   8.497  0.2044  0.4688  0.5376
42673SOL    HW133856   3.957  11.973   8.407 -1.6533 -0.0386  0.1382
42673SOL    HW233857   3.989  12.011   8.550  4.3630 -0.7331 -0.7749
42674SOL     OW33858   2.614   3.462   4.650  0.4164 -0.1659  0.3004
42674SOL    HW133859   2.528   3.462   4.608  0.6316  1.7732 -0.2784
42674SOL    HW233860   2.596   3.467   4.743 -0.0671 -3.4484  0.5001
42675SOL     OW33861   7.314   3.400  12.170 -0.4177 -0.8962 -0.1830
42675SOL    HW133862   7.284   3.484  12.134  1.4915  0.2410  0.7004
42675SOL    HW233863   7.250   3.379  12.238 -1.7526 -0.9563 -1.4166
42676SOL     OW33864   1.411   7.946   9.356 -0.5642 -0.1885  0.3162
42676SOL    HW133865   1.460   7.868   9.327 -0.4554 -0.5943  1.5463
42676SOL    HW233866   1.437   7.957   9.447 -1.1482  0.8697  0.3591
42677SOL     OW33867   3.096   8.656   7.034 -0.4376 -0.0722  0.0510
42677SOL    HW133868   3.127   8.727   6.978  0.8217 -0.5411  0.1090
42677SOL    HW233869   3.027   8.695   7.087 -1.6840  0.3789 -1.8093
42678SOL     OW33870   5.508   1.927   2.850 -0.2203 -0.0853 -0.2875
42678SOL    HW133871   5.456   1.847   2.848 -0.5605  0.1430 -1.1173
42678SOL    HW233872   5.470   1.982   2.782 -0.2018  0.9218  0.5006
42679SOL     OW33873   3.737   3.024   8.899 -0.1599  0.0135  0.3518
42679SOL    HW133874   3.774   2.940   8.924  1.4247  0.8595  0.9741
42679SOL    HW233875   3.760   3.035   8.807  0.0532 -0.0244  0.4003
42680SOL     OW33876   9.117   1.851   3.239  0.1247  0.2843  0.2286
42680SOL    HW133877   9.063   1.925   3.266 -0.8762 -0.0472 -0.7828
42680SOL    HW233878   9.187   1.848   3.303  1.2363  3.2089 -0.6855
42681SOL     OW33879   7.033   9.519  11.622 -0.2629  0.0400  0.8166
42681SOL    HW133880   7.043   9.424  11.619 -0.2132  0.0326  1.1364
42681SOL    HW233881   7.091   9.547  11.693  1.3926  0.5533 -0.6672
42682SOL     OW33882   4.327   4.757   0.219  0.3838 -0.4799 -0.0207
42682SOL    HW133883   4.365   4.835   0.259 -3.2347  1.4660  0.0288
42682SOL    HW233884   4.358   4.685   0.273  2.0260  1.1568  1.3413
42683SOL     OW33885   0.431  10.429   6.271  0.2130  0.4238  0.2902
42683SOL    HW133886   0.458  10.521   6.279 -0.3789  0.5134  1.4932
42683SOL    HW233887   0.337  10.430   6.289 -0.2371 -0.1595 -1.7813
42684SOL     OW33888   7.026   9.973   7.412 -0.2345  0.3706  0.1582
42684SOL    HW133889   7.001  10.036   7.480  0.5584 -0.1130  0.9097
42684SOL    HW233890   7.098   9.923   7.450 -0.2299 -0.3718 -0.7835
42685SOL     OW33891   8.404   0.015   3.314  0.1121  0.9183  0.4350
42685SOL    HW133892   8.473   0.035   3.251  0.1799 -0.9203 -0.1451
42685SOL    HW233893   8.440   0.043   3.398  0.6050  2.0997 -0.1401
42686SOL     OW33894   6.412   2.480  11.217  0.4320 -0.4434 -0.3205
42686SOL    HW133895   6.335   2.431  11.247  0.1800  0.6678  0.9144
42686SOL    HW233896   6.480   2.413  11.205 -0.6460 -1.4158 -1.2364
42687SOL     OW33897   0.928  11.301   9.181 -0.1693 -0.4751  0.0404
42687SOL    HW133898   0.939  11.246   9.103 -0.2852  0.5642 -0.7350
42687SOL    HW233899   0.853  11.357   9.160  1.5774  1.8483 -0.3561
42688SOL     OW33900   8.507   6.989   3.455 -0.0396  0.0809 -0.3383
42688SOL    HW133901   8.430   6.950   3.496  0.7093 -0.5059  0.5438
42688SOL    HW233902   8.548   6.917   3.407  0.7658  0.0185  0.4215
42689SOL     OW33903   2.103   9.440   9.437 -0.0249  0.1293 -0.3688
42689SOL    HW133904   2.057   9.520   9.465 -0.1112 -1.0818  3.5761
42689SOL    HW233905   2.035   9.373   9.433  0.5245 -0.4490 -0.2302
42690SOL     OW33906   8.212   8.673  11.546 -0.3237 -0.9173  0.4652
42690SOL    HW133907   8.159   8.752  11.558  1.6366  0.3536  1.3252
42690SOL    HW233908   8.222   8.665  11.451  0.5849  0.7350  0.3701
42691SOL     OW33909   9.476   5.356   0.960  0.1812  0.5418  0.1999
42691SOL    HW133910   9.531   5.343   0.883  0.9276  1.3623  0.5799
42691SOL    HW233911   9.403   5.296   0.948  1.6952 -1.3689  0.2011
42692SOL     OW33912   2.275   1.845   5.935  0.0705  0.8674  0.1463
42692SOL    HW133913   2.256   1.752   5.933  1.2000  0.6355 -1.4357
42692SOL    HW233914   2.352   1.853   5.991 -0.2320  0.9024  0.5613
42693SOL     OW33915  10.548   1.494   2.695 -0.1112 -0.2751  0.2762
42693SOL    HW133916  10.456   1.477   2.675 -0.1869  0.3793  0.0175
42693SOL    HW233917  10.597   1.431   2.641 -0.3940 -0.2780  0.0193
42694SOL     OW33918   5.664   7.679  11.190  0.2296 -0.5249 -0.5055
42694SOL    HW133919   5.681   7.622  11.115  3.0579 -0.3795 -0.0671
42694SOL    HW233920   5.724   7.753  11.179  0.5178 -0.3572  1.7268
42695SOL     OW33921   4.690   2.861   4.129  0.1667 -0.0419 -0.0767
42695SOL    HW133922   4.740   2.941   4.143 -0.6070  0.6395 -1.0213
42695SOL    HW233923   4.756   2.792   4.124  0.7658  0.3155  2.0291
42696SOL     OW33924   3.034   5.776   3.621 -0.0302  0.9657  0.0389
42696SOL    HW133925   2.999   5.859   3.589  0.3241  1.6012  1.2107
42696SOL    HW233926   2.984   5.758   3.701 -2.0294 -1.3952 -1.6111
42697SOL     OW33927   3.117   0.785   0.625  0.3865  0.1243 -0.1207
42697SOL    HW133928   3.133   0.769   0.532 -0.5529 -2.0332  0.0284
42697SOL    HW233929   3.197   0.828   0.656  0.2511  1.9776 -2.1275
42698SOL     OW33930   7.984   5.014   5.452 -0.3638  0.8694  0.1298
42698SOL    HW133931   8.072   4.982   5.432 -0.4314  1.2633 -0.8698
42698SOL    HW233932   7.992   5.059   5.536  0.3268  0.6606  0.1781
42699SOL     OW33933   5.702   7.410   6.281  0.0583  0.2269  0.5197
42699SOL    HW133934   5.671   7.337   6.334  1.6015 -0.2946  0.7384
42699SOL    HW233935   5.740   7.471   6.344 -3.8599  2.7569  0.7462
42700SOL     OW33936   2.893   8.443   6.985  0.1050  0.4121  0.4944
42700SOL    HW133937   2.970   8.494   7.009  0.6946 -0.0144 -0.4461
42700SOL    HW233938   2.841   8.501   6.930 -0.5340  0.8897  1.5708
42701SOL     OW33939   7.697   8.021   9.905 -0.3537 -0.0406 -0.1019
42701SOL    HW133940   7.682   8.051   9.815 -1.3072 -0.9875 -0.2769
42701SOL    HW233941   7.692   7.925   9.899 -0.3660 -0.1156  0.9535
42702SOL     OW33942   4.771   3.203   0.284 -0.2879 -0.7706  0.1520
42702SOL    HW133943   4.838   3.137   0.303  2.2670  1.7669  0.6382
42702SOL    HW233944   4.759   3.199   0.189  2.5102  0.3585 -0.3253
42703SOL     OW33945   4.292   4.848   8.550  0.4382  0.0979  0.2660
42703SOL    HW133946   4.375   4.818   8.512  0.1247 -0.3024 -0.1084
42703SOL    HW233947   4.229   4.780   8.526 -0.9877  2.3660 -3.0872
42704SOL     OW33948   2.721   0.591   3.271 -0.1544 -0.1989  0.1765
42704SOL    HW133949   2.677   0.674   3.255 -0.8956 -0.6138  0.0001
42704SOL    HW233950   2.725   0.549   3.186 -0.0399 -0.4629  0.3112
42705SOL     OW33951   1.203   2.319   4.487  0.4823 -0.5840  0.2491
42705SOL    HW133952   1.275   2.359   4.537  2.0716 -1.2218 -1.4306
42705SOL    HW233953   1.245   2.251   4.435 -1.5835 -1.8775  0.1891
42706SOL     OW33954   2.469   8.756   2.508  0.2031  0.0666 -0.1466
42706SOL    HW133955   2.404   8.701   2.465 -0.8150 -1.9411  3.5689
42706SOL    HW233956   2.541   8.696   2.531 -0.4717  0.2938  3.0830
42707SOL     OW33957  12.054   8.662   5.203 -0.1197 -0.0336 -0.1386
42707SOL    HW133958  11.964   8.633   5.184 -0.0885 -0.3969  0.2586
42707SOL    HW233959  12.077   8.618   5.284  0.2060  0.5301  0.0806
42708SOL     OW33960   7.944   8.470   4.407 -0.1267 -0.3055  0.2207
42708SOL    HW133961   7.974   8.497   4.320 -3.0874  1.6675 -0.3075
42708SOL    HW233962   7.890   8.392   4.390 -1.0512  0.3284  0.2018
42709SOL     OW33963  10.486  11.890   5.837  0.2568  0.7338  0.6223
42709SOL    HW133964  10.410  11.877   5.781  1.9449 -0.0246 -1.6533
42709SOL    HW233965  10.452  11.935   5.914 -2.6559 -0.6139  0.2441
42710SOL     OW33966   2.768  11.907   5.892 -0.3864 -0.4079 -0.1175
42710SOL    HW133967   2.721  11.916   5.809 -0.6939 -0.0738  0.0903
42710SOL    HW233968   2.852  11.949   5.876 -0.2884 -0.6930 -0.3791
42711SOL     OW33969   8.860  10.837   8.498  0.7505 -0.6502  0.1811
42711SOL    HW133970   8.929  10.887   8.454  0.7738 -0.1152  0.8214
42711SOL    HW233971   8.801  10.903   8.533  1.0416 -1.0437  1.4680
42712SOL     OW33972   0.083   7.209   3.749 -0.1227 -0.3444 -0.4288
42712SOL    HW133973   0.007   7.226   3.805 -1.4062  0.5955 -2.3365
42712SOL    HW233974   0.106   7.118   3.768 -0.4899 -0.0630  1.5868
42713SOL     OW33975   0.175   3.483  10.104 -0.5264 -0.4142  0.0216
42713SOL    HW133976   0.269   3.471  10.113 -0.5237 -0.0949  0.4109
42713SOL    HW233977   0.163   3.506  10.011 -0.2763 -0.9285 -0.1431
42714SOL     OW33978   2.074  11.649   0.912 -0.0349 -0.6281 -0.4690
42714SOL    HW133979   2.154  11.632   0.962 -0.0041 -0.1969 -0.3725
42714SOL    HW233980   2.014  11.579   0.939 -0.4433  0.2760  1.0909
42715SOL     OW33981   7.346   5.690   2.380  0.0104  0.2785 -0.0728
42715SOL    HW133982   7.312   5.605   2.408  2.2171 -0.3635  0.8620
42715SOL    HW233983   7.397   5.670   2.301 -2.9396  1.4858 -2.4916
42716SOL     OW33984   5.077   5.598   3.976 -0.0258  0.0717 -0.0832
42716SOL    HW133985   5.161   5.563   3.948  0.6786  0.3893  1.5538
42716SOL    HW233986   5.031   5.524   4.015  0.1997  0.2646  0.5621
42717SOL     OW33987  11.489  11.730   0.091 -0.0316  0.7399  0.3274
42717SOL    HW133988  11.498  11.785   0.168 -0.0706  0.1260  0.7770
42717SOL    HW233989  11.477  11.792   0.019 -1.1910  1.2976  0.9674
42718SOL     OW33990   0.491  10.906   5.772 -0.1721 -0.6524  0.3654
42718SOL    HW133991   0.440  10.980   5.739  1.4378  0.3935  0.0877
42718SOL    HW233992   0.517  10.933   5.860  2.7741  0.4529 -0.7254
42719SOL     OW33993   1.629   3.525   6.749 -0.0011  0.0302 -0.6915
42719SOL    HW133994   1.594   3.583   6.681  1.7972  0.8221 -1.0248
42719SOL    HW233995   1.632   3.579   6.828  2.9512  0.9813 -1.3140
42720SOL     OW33996   8.562  10.797   9.047  0.0976 -0.0519 -0.0051
42720SOL    HW133997   8.625  10.764   8.983 -1.5956 -1.1674 -1.1765
42720SOL    HW233998   8.570  10.893   9.042 -0.3116 -0.0963 -2.2480
42721SOL     OW33999   0.496  12.222   1.428  0.0629 -0.2303  0.0380
42721SOL    HW134000   0.438  12.276   1.375  1.2067  1.1026  0.0875
42721SOL    HW234001   0.476  12.247   1.518 -2.5025 -3.1140  0.4570
42722SOL     OW34002   7.897   0.230  10.106  1.0993 -0.4299  0.1314
42722SOL    HW134003   7.875   0.281  10.184  1.1135  0.0805 -0.1874
42722SOL    HW234004   7.917   0.143  10.138 -0.8124 -0.7730  0.5051
42723SOL     OW34005   1.828   1.674   2.900 -0.6774 -1.0395  0.0360
42723SOL    HW134006   1.777   1.683   2.819  0.5283 -1.2553 -0.7685
42723SOL    HW234007   1.898   1.613   2.878  0.9678  0.5664  0.5770
42724SOL     OW34008   2.335   3.467   1.050 -0.0217  0.8541  0.4186
42724SOL    HW134009   2.413   3.496   1.003  1.1544 -1.4843  0.7273
42724SOL    HW234010   2.347   3.500   1.139  0.2968  1.0770  0.2940
42725SOL     OW34011   8.332   8.162  11.932  0.2076 -0.0507 -0.3460
42725SOL    HW134012   8.250   8.116  11.915  0.3108 -1.0658  1.5778
42725SOL    HW234013   8.337   8.167  12.027  1.2562  2.1239 -0.4650
42726SOL     OW34014   7.825   8.922   0.767  0.1890  0.2349 -0.2774
42726SOL    HW134015   7.796   8.831   0.771  0.3391  0.1775 -0.4380
42726SOL    HW234016   7.812   8.956   0.855  1.2546 -0.2895  0.1011
42727SOL     OW34017   5.302   7.565   7.031 -0.3203 -0.0924 -0.1774
42727SOL    HW134018   5.328   7.481   7.069 -0.6032  0.4494  1.2715
42727SOL    HW234019   5.374   7.587   6.971 -0.1092 -1.2203 -0.3580
42728SOL     OW34020   0.583   0.774   2.399 -0.1411  0.0830  0.1222
42728SOL    HW134021   0.596   0.805   2.489 -1.6872 -0.2910  0.4952
42728SOL    HW234022   0.494   0.799   2.377 -0.6958 -2.0772 -0.3539
42729SOL     OW34023   1.328   6.022   3.398  0.2144  0.2966  0.1943
42729SOL    HW134024   1.401   6.004   3.339 -0.5206  0.8452 -0.9148
42729SOL    HW234025   1.366   6.075   3.468  0.9173  0.4283 -0.2793
42730SOL     OW34026   0.826   6.656   7.715  0.0641  0.5914  0.2609
42730SOL    HW134027   0.871   6.699   7.643 -0.5511 -2.1078 -1.8851
42730SOL    HW234028   0.780   6.727   7.760  0.7852  2.4331 -1.7323
42731SOL     OW34029   4.223  11.586  10.364  0.3999 -0.0345  0.0978
42731SOL    HW134030   4.143  11.595  10.415  0.1979 -0.1946 -0.1888
42731SOL    HW234031   4.291  11.624  10.419 -0.3014  2.6706 -0.7424
42732SOL     OW34032   2.461  11.044   5.025  0.0079  0.6124 -0.1001
42732SOL    HW134033   2.496  11.062   5.112  0.2233 -1.6008  0.3211
42732SOL    HW234034   2.538  11.026   4.971 -0.2637 -1.9117  0.2513
42733SOL     OW34035   0.542   1.581   3.755  0.6566  0.2507 -0.0560
42733SOL    HW134036   0.572   1.652   3.698  0.0544  0.9624  0.4880
42733SOL    HW234037   0.598   1.588   3.833  1.4038 -0.6489 -0.4876
42734SOL     OW34038   8.940   0.500   3.683  0.0979 -0.2904  0.0513
42734SOL    HW134039   8.979   0.418   3.711  0.9173 -0.2607 -0.9430
42734SOL    HW234040   9.000   0.534   3.616  0.0420  1.3558  0.7791
42735SOL     OW34041  10.307   8.828   6.787 -0.0619  0.0239  0.0660
42735SOL    HW134042  10.365   8.768   6.741 -0.5385 -0.8375  0.5808
42735SOL    HW234043  10.220   8.790   6.779 -0.4586  0.9122 -0.0428
42736SOL     OW34044   0.810   4.248   4.781  0.1972  0.7281  0.4578
42736SOL    HW134045   0.870   4.318   4.756  0.6944 -0.0387 -0.5609
42736SOL    HW234046   0.812   4.248   4.877  0.3870  1.9222  0.4698
42737SOL     OW34047   6.186  12.311   8.580  0.2792  0.0812 -0.1790
42737SOL    HW134048   6.111  12.264   8.615  0.9782  0.6479  2.2533
42737SOL    HW234049   6.168  12.403   8.597  0.6125  0.4240 -1.5015
42738SOL     OW34050   6.511   1.629   8.080 -0.5072 -0.0332  0.4199
42738SOL    HW134051   6.582   1.693   8.077 -0.4270 -0.1468 -0.3845
42738SOL    HW234052   6.432   1.681   8.091 -0.6181  0.3791 -1.8163
42739SOL     OW34053   7.308  10.407  12.320  0.2532 -0.3026 -0.0519
42739SOL    HW134054   7.218  10.440  12.316 -0.1981 -1.4406  0.1234
42739SOL    HW234055   7.326  10.400  12.414  1.0205  1.1552 -0.0695
42740SOL     OW34056   8.954   9.180  11.492  0.1558 -0.0867  0.1987
42740SOL    HW134057   8.997   9.260  11.522  1.9615 -0.2536 -1.7270
42740SOL    HW234058   8.908   9.206  11.412  0.0460 -0.8019  0.0247
42741SOL     OW34059   4.148   4.452  11.723 -0.3094 -0.5683  0.0276
42741SOL    HW134060   4.144   4.522  11.658  0.5268 -1.3646 -0.9153
42741SOL    HW234061   4.241   4.444  11.744 -0.3556 -1.5800 -0.1005
42742SOL     OW34062  11.032   7.431  11.920 -0.0909  0.2514  0.5090
42742SOL    HW134063  11.000   7.465  11.837 -1.4986  0.0800  0.9525
42742SOL    HW234064  11.124   7.457  11.923 -0.4155  1.5755 -0.4092
42743SOL     OW34065  10.660   7.893   9.819 -0.1477 -0.0276 -0.0389
42743SOL    HW134066  10.683   7.815   9.768  1.2522 -0.6256  1.3919
42743SOL    HW234067  10.691   7.966   9.766 -0.3369 -0.5231 -0.8468
42744SOL     OW34068   9.268   1.896   4.159 -0.9720  0.1219 -0.0825
42744SOL    HW134069   9.292   1.803   4.154  1.5924  0.7578 -0.8842
42744SOL    HW234070   9.228   1.905   4.246  0.9338 -1.2853  1.0133
42745SOL     OW34071   1.623   0.961   2.878  0.0705 -0.2610 -0.3184
42745SOL    HW134072   1.634   0.878   2.926  1.4848 -0.1920 -0.4595
42745SOL    HW234073   1.701   0.966   2.822 -0.4175  0.7674 -0.9265
42746SOL     OW34074   0.162   8.055   7.023 -0.5957  0.0667  0.6281
42746SOL    HW134075   0.254   8.034   7.042  0.0035  1.0816 -0.9231
42746SOL    HW234076   0.123   7.971   7.000  0.2527 -0.2403  0.2260
42747SOL     OW34077   2.671   7.437  10.856 -0.6723  0.2466  0.3349
42747SOL    HW134078   2.608   7.467  10.791 -0.7942  1.5092  0.9924
42747SOL    HW234079   2.751   7.420  10.807 -0.8274  0.9563 -0.1709
42748SOL     OW34080   5.844   1.327   6.621  0.0074  0.0287 -0.2264
42748SOL    HW134081   5.782   1.395   6.593 -0.8435  0.7538  3.0535
42748SOL    HW234082   5.914   1.376   6.665  0.8363 -1.0835 -0.2601
42749SOL     OW34083   9.226   5.405   8.017  0.6691 -0.0859  0.1061
42749SOL    HW134084   9.292   5.347   8.057 -0.3265 -2.5045 -1.5127
42749SOL    HW234085   9.169   5.431   8.089  0.2469 -2.4624  0.7043
42750SOL     OW34086   1.913   8.484  11.954  0.2428 -0.2336 -0.4211
42750SOL    HW134087   1.821   8.482  11.929  0.2735 -1.1142 -0.5020
42750SOL    HW234088   1.914   8.449  12.043  0.2198  2.1624  0.5970
42751SOL     OW34089   6.577  11.184  11.919 -0.2761 -0.1016 -0.1760
42751SOL    HW134090   6.508  11.148  11.862  0.6169  0.5830 -1.7733
42751SOL    HW234091   6.658  11.153  11.879  0.3891 -0.8824  1.6624
42752SOL     OW34092   0.676  11.939   8.593  0.1405  0.0417 -0.0051
42752SOL    HW134093   0.618  11.872   8.629 -0.4929  0.5719 -0.0147
42752SOL    HW234094   0.737  11.959   8.664  0.2260 -0.4108  0.0557
42753SOL     OW34095   0.557   7.502   1.871 -0.5679  0.0433  0.7842
42753SOL    HW134096   0.629   7.519   1.811 -1.3896  0.5910 -0.0729
42753SOL    HW234097   0.581   7.549   1.951 -0.1261  0.4919  0.3969
42754SOL     OW34098   8.257   5.764   6.230  0.3026  0.3890  0.7647
42754SOL    HW134099   8.352   5.760   6.239  0.2539 -0.7506  0.8412
42754SOL    HW234100   8.230   5.834   6.290  1.1175  0.9888  0.4522
42755SOL     OW34101  11.062   1.078   6.052  0.5761  0.3296 -0.6157
42755SOL    HW134102  11.153   1.061   6.028  0.5842 -0.2698 -0.1905
42755SOL    HW234103  11.049   1.028   6.133  0.1225  1.1097 -0.1974
42756SOL     OW34104   2.315   4.024   8.368  0.0349  0.7417 -0.5746
42756SOL    HW134105   2.257   4.012   8.293 -1.0531 -0.0678  0.3507
42756SOL    HW234106   2.303   3.945   8.420  0.5081  1.4142  0.6049
42757SOL     OW34107   5.599   4.455   3.908 -0.2145  0.9729  0.1301
42757SOL    HW134108   5.625   4.365   3.886  0.5636  0.7192  1.9536
42757SOL    HW234109   5.513   4.446   3.948  1.0738  0.5857  3.0883
42758SOL     OW34110   5.226  10.719   6.334 -0.1131  0.2177 -0.4090
42758SOL    HW134111   5.167  10.754   6.401  0.4417  0.3629  0.0109
42758SOL    HW234112   5.196  10.629   6.320  0.7337 -0.3451  1.1905
42759SOL     OW34113   1.583   6.123  11.835 -0.3951 -0.2458  0.0830
42759SOL    HW134114   1.589   6.163  11.922 -2.7993 -0.3629  0.3779
42759SOL    HW234115   1.503   6.070  11.838  0.3369 -1.5751 -1.6982
42760SOL     OW34116   4.789  10.019  10.861  0.1238  0.3674  0.4442
42760SOL    HW134117   4.862  10.060  10.815  0.7210  0.2473  1.2698
42760SOL    HW234118   4.768   9.941  10.809  0.1727  0.7304 -0.1309
42761SOL     OW34119   0.933   9.422   5.222 -0.3305  0.3689  0.1070
42761SOL    HW134120   1.026   9.398   5.222 -0.2820  0.5510  0.1520
42761SOL    HW234121   0.898   9.384   5.141  0.0059  1.1196 -0.4067
42762SOL     OW34122   0.120   3.770  11.985 -0.1674  0.1498 -0.1443
42762SOL    HW134123   0.058   3.820  11.932  0.0778  0.8382  0.2086
42762SOL    HW234124   0.085   3.681  11.985 -1.5994  0.6881  0.7099
42763SOL     OW34125   6.590   0.970   6.687 -0.3867  0.3798  0.2413
42763SOL    HW134126   6.600   0.942   6.778 -0.6805  1.4650  0.6205
42763SOL    HW234127   6.678   0.996   6.660 -0.7144  2.5996  1.1044
42764SOL     OW34128  11.924  11.031   8.340  0.2546 -0.0755 -0.2545
42764SOL    HW134129  11.984  11.104   8.322  1.0831 -0.6494  0.1037
42764SOL    HW234130  11.916  11.029   8.435  0.0468 -0.3084 -0.2759
42765SOL     OW34131   1.705   4.372   4.360 -0.3148 -0.4191  0.0684
42765SOL    HW134132   1.751   4.451   4.333 -1.1119  0.0210 -0.0531
42765SOL    HW234133   1.673   4.334   4.279 -0.7570 -0.3372  0.2001
42766SOL     OW34134   9.838   8.838   0.188  0.2140  0.0767  0.3514
42766SOL    HW134135   9.767   8.784   0.151  0.6441 -1.0493  1.0938
42766SOL    HW234136   9.800   8.925   0.195 -1.3287 -0.6095  1.2746
42767SOL     OW34137  10.734  11.119   0.020 -0.0151  0.3967  0.0738
42767SOL    HW134138  10.649  11.136   0.060 -0.9094  0.6191 -1.7988
42767SOL    HW234139  10.727  11.029  -0.011  1.3674 -0.4325  2.0283
42768SOL     OW34140   2.337   8.852  10.993  0.1428  0.1856  0.2727
42768SOL    HW134141   2.275   8.854  11.067 -1.7371  1.3028 -1.2410
42768SOL    HW234142   2.300   8.913  10.929  0.7603 -1.9808 -2.3334
42769SOL     OW34143   2.308   7.136   7.578 -0.0653  0.3600 -0.7930
42769SOL    HW134144   2.220   7.165   7.601 -0.4163 -2.1558  1.6277
42769SOL    HW234145   2.295   7.070   7.509 -0.2429 -0.7671  0.2847
42770SOL     OW34146   4.902   6.843   0.291 -0.3905 -0.0729 -0.0337
42770SOL    HW134147   4.810   6.819   0.299 -1.1857  2.7683  0.1946
42770SOL    HW234148   4.907   6.893   0.209  0.2050  2.6477  1.5717
42771SOL     OW34149   1.495   4.531   7.483 -0.0479 -0.1223  0.3120
42771SOL    HW134150   1.544   4.609   7.509 -0.9855  0.5949 -0.0178
42771SOL    HW234151   1.419   4.529   7.542 -1.0411  0.3001 -0.9037
42772SOL     OW34152   5.379   8.229   0.728 -0.7397  0.3651 -0.4808
42772SOL    HW134153   5.347   8.265   0.811 -0.7213  1.3161 -0.8749
42772SOL    HW234154   5.418   8.145   0.752 -1.2812  0.3441  0.3786
42773SOL     OW34155   5.395   1.851   4.465 -0.3130  0.0126  0.7973
42773SOL    HW134156   5.316   1.883   4.422  0.7447 -0.0143 -1.2673
42773SOL    HW234157   5.440   1.799   4.399  1.7231  0.4745  1.7231
42774SOL     OW34158   3.550   5.996   5.844  0.0612 -0.0270 -0.3215
42774SOL    HW134159   3.519   5.929   5.782 -0.0348  1.7210 -2.2730
42774SOL    HW234160   3.644   6.000   5.830  0.2270 -0.4780  0.5833
42775SOL     OW34161   6.440  10.543   3.436 -0.6678  0.6990 -0.0931
42775SOL    HW134162   6.470  10.458   3.467 -2.0617 -0.0724 -0.7707
42775SOL    HW234163   6.470  10.548   3.345 -0.4732  1.0006 -0.0160
42776SOL     OW34164  10.736   7.633  11.479  0.5329  0.9406 -0.1305
42776SOL    HW134165  10.688   7.552  11.462  1.6163  0.1660  0.3714
42776SOL    HW234166  10.730   7.645  11.574  0.3071  1.5148 -0.2094
42777SOL     OW34167   4.769   5.953   5.861  0.5196 -0.0274  0.0859
42777SOL    HW134168   4.805   5.989   5.942  0.1090 -1.1513  0.7855
42777SOL    HW234169   4.799   5.862   5.860  0.6663  0.0150 -1.1260
42778SOL     OW34170  11.455   3.451   1.847  0.0281  0.4167 -0.0102
42778SOL    HW134171  11.544   3.462   1.880  0.4344 -1.4782 -0.3531
42778SOL    HW234172  11.464   3.389   1.774 -1.8339 -1.9890  1.6379
42779SOL     OW34173   2.278   5.993   4.744 -0.3938 -0.5951  0.0773
42779SOL    HW134174   2.249   6.066   4.689  0.5202 -1.0726 -1.0764
42779SOL    HW234175   2.241   5.915   4.703 -0.1506 -0.9110  0.4467
42780SOL     OW34176   9.471   4.734   0.636 -0.8287  0.0830 -0.0697
42780SOL    HW134177   9.557   4.704   0.667 -1.4240 -1.1719  0.4497
42780SOL    HW234178   9.474   4.829   0.645 -0.2934 -0.0903  2.1340
42781SOL     OW34179  10.048   9.821   0.448  0.5606  0.2181  0.0783
42781SOL    HW134180  10.119   9.862   0.498  0.5581 -0.2658  0.4859
42781SOL    HW234181   9.968   9.850   0.492  0.6025 -2.2932  2.0730
42782SOL     OW34182  11.606   9.601   6.837  0.3501 -0.2086 -0.9748
42782SOL    HW134183  11.593   9.652   6.917 -1.6545 -1.3526 -0.5040
42782SOL    HW234184  11.701   9.587   6.833  0.7748  2.0546 -0.2388
42783SOL     OW34185   8.683   3.663   3.933  0.6131 -0.1481 -0.2707
42783SOL    HW134186   8.732   3.738   3.897  0.5578  0.6312  1.2135
42783SOL    HW234187   8.750   3.607   3.972  0.4565  0.2545  0.5890
42784SOL     OW34188   4.941   3.511   8.451  0.3171  0.1383  0.2998
42784SOL    HW134189   4.852   3.488   8.476  0.0235 -0.2011 -0.9993
42784SOL    HW234190   4.996   3.474   8.520 -0.4201 -1.2448  0.1645
42785SOL     OW34191   3.003   0.201   0.907  0.2459 -0.4711 -0.2316
42785SOL    HW134192   3.060   0.164   0.975  1.1555  2.1971  0.5899
42785SOL    HW234193   3.049   0.279   0.878 -1.3282 -0.2170 -2.2114
42786SOL     OW34194   4.085  10.725   4.890  0.2412  0.2361 -0.4785
42786SOL    HW134195   4.075  10.643   4.842 -0.0687 -0.3236  0.5186
42786SOL    HW234196   4.136  10.781   4.832 -0.6983 -0.1706 -1.7535
42787SOL     OW34197   2.443  11.811   2.673  0.2064 -0.4416  0.4405
42787SOL    HW134198   2.360  11.853   2.651  1.3112  1.5734 -0.1253
42787SOL    HW234199   2.499  11.882   2.704  1.9762 -1.6070  0.0812
42788SOL     OW34200   5.366   3.684   5.366 -0.4461 -0.1961  0.4625
42788SOL    HW134201   5.432   3.618   5.346  1.3306  0.9188  2.2512
42788SOL    HW234202   5.356   3.734   5.285  0.6368 -0.6189  0.0538
42789SOL     OW34203   0.896   2.315   7.145 -0.1131 -0.8250 -0.6362
42789SOL    HW134204   0.853   2.270   7.217 -0.1455  0.6684  0.3238
42789SOL    HW234205   0.831   2.316   7.075 -0.5862 -1.1009 -0.2070
42790SOL     OW34206  11.980  10.724   9.171 -0.0994 -0.5966 -0.1666
42790SOL    HW134207  11.961  10.728   9.077 -0.5708  0.0466 -0.0471
42790SOL    HW234208  11.966  10.632   9.193 -1.6490 -0.4430 -0.3959
42791SOL     OW34209  11.026   8.233   4.673  0.2779  0.5083 -0.7330
42791SOL    HW134210  10.988   8.270   4.593  0.2491  0.6715 -0.6446
42791SOL    HW234211  11.101   8.289   4.693  1.2639 -0.4741 -1.5330
42792SOL     OW34212   7.722  10.812   3.044  0.6044 -0.0298  0.4123
42792SOL    HW134213   7.684  10.899   3.056  0.5742 -0.0152  0.2040
42792SOL    HW234214   7.786  10.804   3.115  2.2289  1.0368 -0.8447
42793SOL     OW34215   8.784   2.600   9.036  0.5167 -0.3267 -0.2634
42793SOL    HW134216   8.752   2.603   8.946  0.8106  0.9866 -0.3402
42793SOL    HW234217   8.711   2.564   9.086  0.4573 -1.3556 -1.0587
42794SOL     OW34218   4.278   6.718  11.376 -0.0630  0.1501  0.0972
42794SOL    HW134219   4.244   6.629  11.370 -0.1007  0.2586 -1.6058
42794SOL    HW234220   4.207   6.768  11.416  0.5305 -0.8304  2.5830
42795SOL     OW34221   4.236   1.017   9.817 -0.1560 -0.6061  0.0717
42795SOL    HW134222   4.266   0.928   9.800 -1.3347 -0.9107 -0.5115
42795SOL    HW234223   4.156   1.006   9.869  0.2444  0.1559  0.8839
42796SOL     OW34224   0.203   9.865   7.068 -0.5869  0.1124  0.1456
42796SOL    HW134225   0.220   9.778   7.103 -1.2761  0.5098  1.5591
42796SOL    HW234226   0.281   9.915   7.091  0.5492 -0.4797 -2.1112
42797SOL     OW34227   2.621   2.570   1.722  0.4246 -0.3450 -0.1232
42797SOL    HW134228   2.528   2.574   1.744  0.6813 -0.7970  1.1625
42797SOL    HW234229   2.641   2.477   1.720  1.1942 -0.2450  1.3194
42798SOL     OW34230   2.338   2.569   7.127  0.4320 -0.3281  0.0530
42798SOL    HW134231   2.338   2.509   7.202  1.1381  1.8862  1.9448
42798SOL    HW234232   2.246   2.587   7.111  0.2739 -0.6979  0.4964
42799SOL     OW34233   3.281  10.251  10.547 -0.1972  0.2724  0.3241
42799SOL    HW134234   3.358  10.243  10.492 -0.2835 -0.8953  0.3598
42799SOL    HW234235   3.236  10.329  10.514  0.2520  0.1427 -0.6194
42800SOL     OW34236   1.874  11.777   8.117  0.8307 -0.1678 -0.6446
42800SOL    HW134237   1.960  11.741   8.141  0.5219 -0.1931  0.4617
42800SOL    HW234238   1.821  11.701   8.096  1.0017 -0.1644 -1.1153
42801SOL     OW34239  11.988   0.364  10.840  0.1805  0.8194 -0.8230
42801SOL    HW134240  12.003   0.368  10.746 -2.0653 -1.6315 -1.3762
42801SOL    HW234241  11.912   0.420  10.855 -0.3891  0.0291 -0.7204
42802SOL     OW34242  12.035   3.795   6.815  0.5634 -0.0703 -0.8132
42802SOL    HW134243  12.116   3.827   6.778  0.0884  1.1213 -0.8604
42802SOL    HW234244  11.987   3.874   6.840 -0.1952 -0.7773  0.0313
42803SOL     OW34245   3.340   9.452  11.007  0.0599 -0.1533  0.4872
42803SOL    HW134246   3.283   9.529  11.011  0.9084  0.4888  0.3770
42803SOL    HW234247   3.325   9.407  11.090 -0.0162  0.4383  0.7978
42804SOL     OW34248   7.500  10.853   5.364  0.3116  0.2636 -0.0081
42804SOL    HW134249   7.439  10.783   5.342 -0.8463  1.0655  0.5272
42804SOL    HW234250   7.517  10.842   5.458 -0.1743  0.9039  0.1628
42805SOL     OW34251   5.274   8.592  10.720 -0.0662 -0.7057  0.0392
42805SOL    HW134252   5.265   8.572  10.627 -2.5232 -1.7099  0.4137
42805SOL    HW234253   5.310   8.512  10.758  3.5204  0.5608 -0.2870
42806SOL     OW34254   6.188   2.654   2.210  0.4517  0.4737 -0.0427
42806SOL    HW134255   6.251   2.709   2.258  1.1260 -0.0754 -0.2896
42806SOL    HW234256   6.227   2.566   2.212 -0.4058  0.0860 -0.0331
42807SOL     OW34257   4.733   7.666   7.612  0.0819  0.0762  0.3168
42807SOL    HW134258   4.666   7.732   7.626 -1.2677 -0.5777 -2.3369
42807SOL    HW234259   4.804   7.713   7.568 -0.9880 -0.2042 -1.8117
42808SOL     OW34260  10.863   6.088   2.774  0.4389  0.0048  0.3872
42808SOL    HW134261  10.815   6.019   2.820  1.6969  0.2398  2.1707
42808SOL    HW234262  10.926   6.041   2.720 -0.0135 -0.2661  0.0927
42809SOL     OW34263   4.325   3.009   8.591  0.0041 -0.3771 -0.3145
42809SOL    HW134264   4.298   2.990   8.681 -1.1627 -0.8015 -0.7313
42809SOL    HW234265   4.245   2.998   8.539  0.4299  0.8101 -1.2829
42810SOL     OW34266   5.229   8.456   6.760 -0.2970 -0.1437 -0.0548
42810SOL    HW134267   5.156   8.505   6.798 -0.2374 -1.9136  2.5758
42810SOL    HW234268   5.307   8.494   6.799 -0.1618 -1.2552  0.8264
42811SOL     OW34269   8.261  11.954   9.084 -0.1443 -0.3476 -0.4008
42811SOL    HW134270   8.242  11.860   9.079  1.9011 -0.7479 -1.5577
42811SOL    HW234271   8.351  11.959   9.117 -0.9104  1.3280  1.7058
42812SOL     OW34272  10.676   8.436  11.472  0.5949 -0.3667  0.1241
42812SOL    HW134273  10.683   8.351  11.428  0.6759  0.1591 -0.8945
42812SOL    HW234274  10.597   8.428  11.526  0.9785 -1.3219  0.5696
42813SOL     OW34275   5.786  11.146   5.090  0.2577 -0.0254 -0.0139
42813SOL    HW134276   5.760  11.233   5.121  0.9798  0.6322 -1.1565
42813SOL    HW234277   5.826  11.162   5.004 -1.8469 -1.7432 -1.4529
42814SOL     OW34278   5.042   7.393   6.497  0.2434  0.0382  0.2977
42814SOL    HW134279   5.135   7.398   6.474  0.2410 -0.3147  0.1975
42814SOL    HW234280   5.033   7.448   6.575  0.3028  1.0356 -0.3922
42815SOL     OW34281   0.276   2.306   1.674 -0.6520 -0.1819 -0.3215
42815SOL    HW134282   0.343   2.345   1.618 -0.1971  0.1433  0.4209
42815SOL    HW234283   0.259   2.220   1.636 -0.2014 -0.0469 -0.8310
42816SOL     OW34284   8.733   4.137  11.754  0.1218  0.4079 -0.1745
42816SOL    HW134285   8.761   4.195  11.826 -0.6480 -2.5944  2.8158
42816SOL    HW234286   8.639   4.153  11.747  0.0415  0.1060  0.1459
42817SOL     OW34287   0.471   9.515   7.457 -0.5164  0.0048  0.0268
42817SOL    HW134288   0.380   9.516   7.427 -0.5458 -0.2594  0.1037
42817SOL    HW234289   0.467   9.474   7.544 -0.0516 -2.0829 -0.8767
42818SOL     OW34290   8.041  11.962   5.551  0.2584  0.1714  0.1445
42818SOL    HW134291   7.976  12.030   5.531  0.1246 -0.7544 -2.9387
42818SOL    HW234292   7.996  11.905   5.614 -1.7021 -0.0438 -1.3600
42819SOL     OW34293   9.640   2.311   5.496 -0.3124 -0.4389  0.2854
42819SOL    HW134294   9.653   2.348   5.583  0.9543 -1.1581  0.4271
42819SOL    HW234295   9.555   2.267   5.501 -1.1410  1.1389  0.5535
42820SOL     OW34296  11.658   3.627   6.911  0.6854  0.0354 -0.3761
42820SOL    HW134297  11.750   3.602   6.906  0.5106 -0.4491 -2.7541
42820SOL    HW234298  11.610   3.548   6.882 -0.6072 -0.1388  1.9761
42821SOL     OW34299   0.733   0.794   6.623 -0.0379  0.1573 -0.1350
42821SOL    HW134300   0.759   0.757   6.539 -1.1380 -1.1857  0.0814
42821SOL    HW234301   0.812   0.837   6.655  0.6636 -0.1057 -1.4289
42822SOL     OW34302   4.001   9.598  10.646 -0.1502  0.3949 -0.7924
42822SOL    HW134303   4.034   9.532  10.585 -0.6823 -0.8755  0.2561
42822SOL    HW234304   3.907   9.598  10.633 -0.0495  2.1231 -1.8979
42823SOL     OW34305   3.416   9.918   5.534 -0.6033 -0.6528 -0.3488
42823SOL    HW134306   3.340   9.942   5.480 -0.9209 -2.0815 -0.5699
42823SOL    HW234307   3.457   9.846   5.487  0.3768 -0.4997  0.2481
42824SOL     OW34308   1.226   2.713  11.545 -0.2296 -0.2095  0.2495
42824SOL    HW134309   1.145   2.719  11.595 -0.8234 -1.7053 -0.4770
42824SOL    HW234310   1.223   2.788  11.485 -0.4116  0.5073  1.1352
42825SOL     OW34311  11.986   1.545   8.189 -0.0620  0.4858 -0.0045
42825SOL    HW134312  11.997   1.491   8.110 -0.3311 -0.7994  0.7992
42825SOL    HW234313  12.036   1.624   8.171  0.4752 -0.0934 -1.1857
42826SOL     OW34314   9.142   0.311  12.172 -0.0541 -0.0086  0.3800
42826SOL    HW134315   9.180   0.375  12.113  0.4464 -0.6786 -0.0370
42826SOL    HW234316   9.098   0.248  12.115  1.3429 -1.2621  0.6214
42827SOL     OW34317   1.238   3.701   8.565 -0.3287  0.4587  0.6724
42827SOL    HW134318   1.162   3.754   8.589 -0.6225  1.3315 -1.8257
42827SOL    HW234319   1.206   3.611   8.568 -0.6590  0.6043  2.2012
42828SOL     OW34320  12.273   2.956   6.235  0.0226  0.0634  0.1511
42828SOL    HW134321  12.218   2.981   6.161  0.6148  0.8245 -0.0472
42828SOL    HW234322  12.360   2.943   6.197  0.1217 -0.5008  0.5604
42829SOL     OW34323   7.667   0.515   5.129  0.2985 -0.0601  0.0134
42829SOL    HW134324   7.642   0.542   5.041 -1.1299 -0.1863  0.3566
42829SOL    HW234325   7.702   0.426   5.118 -0.0928 -0.1668 -0.3974
42830SOL     OW34326  10.551  11.165   1.201 -0.0251  0.0888 -0.0019
42830SOL    HW134327  10.580  11.097   1.140  0.3491  0.7406 -0.5702
42830SOL    HW234328  10.596  11.145   1.283  1.0066  0.3149 -0.4978
42831SOL     OW34329  11.285   4.485   4.919 -0.1202 -0.6821  0.3492
42831SOL    HW134330  11.235   4.494   4.837  1.4306 -1.6429 -0.7688
42831SOL    HW234331  11.279   4.571   4.960 -0.9435 -0.1752 -0.7667
42832SOL     OW34332   0.606   3.616   3.269 -0.2837 -0.0822 -0.0581
42832SOL    HW134333   0.619   3.601   3.175 -0.4767 -1.5570  0.1241
42832SOL    HW234334   0.660   3.692   3.289  0.0293  0.0404 -1.3045
42833SOL     OW34335   1.554   6.269   9.648  0.1535  0.3787  0.2927
42833SOL    HW134336   1.550   6.274   9.552 -1.7112 -2.4258  0.1389
42833SOL    HW234337   1.640   6.230   9.666  0.6451  1.2077 -0.1775
42834SOL     OW34338   8.098   2.875   4.178  0.2890  0.0059  0.0400
42834SOL    HW134339   8.080   2.801   4.235  0.1770  0.2826  0.3636
42834SOL    HW234340   8.020   2.881   4.121  0.4743 -0.3713 -0.2560
42835SOL     OW34341   9.497   4.825   3.430 -0.0123 -0.8986 -0.5343
42835SOL    HW134342   9.407   4.796   3.446 -0.2073  0.0497  0.1252
42835SOL    HW234343   9.525   4.863   3.513 -0.3457  2.3454 -1.7968
42836SOL     OW34344   7.120  12.091   8.098 -0.4622  0.1825  0.0564
42836SOL    HW134345   7.168  12.054   8.024 -0.4492 -0.7232  0.5049
42836SOL    HW234346   7.028  12.086   8.071 -0.3625  1.6132 -0.6654
42837SOL     OW34347   8.658  11.923   4.061 -0.0648  0.2718  0.0929
42837SOL    HW134348   8.660  11.882   3.974  0.2241 -0.3776  0.4023
42837SOL    HW234349   8.627  12.012   4.044  0.8734  0.4561 -0.7980
42838SOL     OW34350   4.081   2.264   4.493  0.0778 -0.3444 -0.6466
42838SOL    HW134351   4.126   2.320   4.556 -0.7852 -0.8782  0.4981
42838SOL    HW234352   4.035   2.324   4.435  0.7827  0.1595 -0.6854
42839SOL     OW34353   3.058   5.986   0.054 -0.4087 -0.2216 -1.1715
42839SOL    HW134354   3.097   5.941   0.129 -1.9438  1.9785  1.0980
42839SOL    HW234355   3.128   5.986  -0.012  2.2391  0.5735  1.4076
42840SOL     OW34356  11.096   5.850   3.435  0.2872  0.5899  0.1526
42840SOL    HW134357  11.109   5.944   3.423  2.8060  0.3674  0.6245
42840SOL    HW234358  11.163   5.825   3.498 -0.7856 -1.4312  0.5595
42841SOL     OW34359   6.880  11.613   9.132 -0.0843 -0.6277  0.0687
42841SOL    HW134360   6.965  11.656   9.122 -0.3044 -0.3859 -0.7875
42841SOL    HW234361   6.863  11.574   9.047 -0.6896 -0.9418  0.3355
42842SOL     OW34362   3.378   0.279   8.026  0.3490 -0.3026  0.1674
42842SOL    HW134363   3.447   0.214   8.042  1.1737  0.7421  0.9633
42842SOL    HW234364   3.389   0.303   7.934  0.2319 -1.0443 -0.0520
42843SOL     OW34365   6.926  11.782   8.763 -0.6165  0.3098  0.6389
42843SOL    HW134366   6.927  11.878   8.768  1.5047  0.4192 -0.9461
42843SOL    HW234367   6.982  11.754   8.835  2.2570  0.5174 -1.3634
42844SOL     OW34368  10.098   1.674   4.375  0.1164 -0.1542  0.0331
42844SOL    HW134369  10.106   1.756   4.424 -1.1523 -0.0371  0.0799
42844SOL    HW234370  10.184   1.633   4.382  0.8099  1.2238 -0.0916
42845SOL     OW34371   0.988   9.873   8.673 -0.3387  0.3306  0.0631
42845SOL    HW134372   1.053   9.943   8.663  2.1680 -1.8839 -0.1742
42845SOL    HW234373   0.969   9.846   8.583 -0.6566  0.1420  0.1870
42846SOL     OW34374   8.157   7.899   2.041  0.2101  0.3247 -0.6150
42846SOL    HW134375   8.145   7.939   2.127 -0.4362 -1.2001  0.0538
42846SOL    HW234376   8.103   7.820   2.044  2.7320 -1.5536 -1.2023
42847SOL     OW34377   8.725   4.659   8.794  0.0761  0.1332  0.1076
42847SOL    HW134378   8.656   4.679   8.858  2.1115  1.9834  1.8632
42847SOL    HW234379   8.678   4.617   8.722 -2.5972 -0.4880  2.0267
42848SOL     OW34380  10.552   6.421   0.759  0.2645 -0.3985 -0.7522
42848SOL    HW134381  10.471   6.376   0.737 -1.2888  0.2014  3.0354
42848SOL    HW234382  10.542   6.508   0.719 -1.1124 -0.2620 -0.1840
42849SOL     OW34383   3.182   6.497   8.403  0.2400  0.5814  0.0779
42849SOL    HW134384   3.193   6.408   8.435  1.3445 -0.0067 -1.7909
42849SOL    HW234385   3.097   6.524   8.436  0.4348 -0.6839  1.7309
42850SOL     OW34386   7.023   4.298   3.083 -0.0926 -0.0508  0.1058
42850SOL    HW134387   6.952   4.251   3.126  0.8225 -1.0393  0.5763
42850SOL    HW234388   6.979   4.363   3.027 -1.3294  1.2683  2.4700
42851SOL     OW34389   3.656   2.583   9.755 -0.5814  0.1373 -0.2620
42851SOL    HW134390   3.567   2.617   9.758 -1.2307 -1.3940 -0.8054
42851SOL    HW234391   3.702   2.640   9.693 -1.1124  1.0559  0.1762
42852SOL     OW34392   4.379   5.393   9.761  0.0542 -0.0651 -0.0398
42852SOL    HW134393   4.465   5.427   9.786 -0.3232  0.9737 -0.1150
42852SOL    HW234394   4.344   5.354   9.841  1.1999 -1.8962 -0.3492
42853SOL     OW34395  11.626   3.173  10.997  0.1672 -0.5129 -0.0660
42853SOL    HW134396  11.562   3.211  11.057 -1.1727 -0.0885 -1.6679
42853SOL    HW234397  11.696   3.237  10.992 -0.2027 -0.0820  0.2624
42854SOL     OW34398   1.561   2.112   9.068  0.6664 -0.1386  0.3345
42854SOL    HW134399   1.651   2.108   9.100 -0.1500  0.2369  2.8825
42854SOL    HW234400   1.508   2.120   9.146 -1.5226  1.0713 -1.1628
42855SOL     OW34401  10.271   0.860   4.463 -0.2666 -0.3338  0.3163
42855SOL    HW134402  10.248   0.794   4.397 -1.0634 -0.1812  0.4304
42855SOL    HW234403  10.365   0.847   4.477 -0.3064 -1.1116 -0.0305
42856SOL     OW34404   4.745   9.599   6.887  0.2953 -0.6516  0.4685
42856SOL    HW134405   4.759   9.519   6.836  1.3378 -0.5635  0.5893
42856SOL    HW234406   4.787   9.581   6.971  0.5032  0.0048  0.5127
42857SOL     OW34407   3.782   4.102  11.588  0.2107 -0.1187 -0.5493
42857SOL    HW134408   3.748   4.107  11.678 -0.4064 -0.2307 -0.7702
42857SOL    HW234409   3.824   4.186  11.573  0.7805 -0.2938  0.0259
42858SOL     OW34410   1.279   6.240  10.833  0.0793  0.7926  0.2121
42858SOL    HW134411   1.326   6.295  10.895 -0.3127  0.4346  0.8291
42858SOL    HW234412   1.302   6.151  10.857 -0.3277  0.6414  0.0542
42859SOL     OW34413   6.047   4.699   4.340 -0.1129 -0.3397 -0.5727
42859SOL    HW134414   6.130   4.653   4.357 -0.1775 -0.1890  0.1482
42859SOL    HW234415   6.059   4.786   4.377 -0.7276 -0.4388 -0.1167
42860SOL     OW34416  10.079   0.365   7.556  0.8389  0.0178 -0.4754
42860SOL    HW134417  10.129   0.396   7.632  0.0761  2.2011 -0.8001
42860SOL    HW234418  10.102   0.425   7.486  0.2580 -0.9700 -1.5517
42861SOL     OW34419  11.617   9.760   6.158  0.4121  0.4012  0.8969
42861SOL    HW134420  11.692   9.789   6.208  0.5286  0.9714  0.4126
42861SOL    HW234421  11.556   9.834   6.161 -0.8619 -0.6284  2.6487
42862SOL     OW34422   0.442   3.762   4.293  0.1689 -0.5907  0.0074
42862SOL    HW134423   0.405   3.688   4.245 -0.6386  0.0464 -0.3659
42862SOL    HW234424   0.537   3.753   4.281  0.0125  1.1798 -4.3075
42863SOL     OW34425   6.507   1.949  11.238 -0.0776  0.2278 -0.0349
42863SOL    HW134426   6.556   1.934  11.157  0.4099  0.1709  0.2648
42863SOL    HW234427   6.422   1.983  11.209  0.0116 -0.0041 -0.5778
42864SOL     OW34428   7.475   0.818   6.899 -0.1952  0.0295 -0.1352
42864SOL    HW134429   7.564   0.803   6.929  0.5025  0.4025 -1.8940
42864SOL    HW234430   7.445   0.733   6.867  0.6288  0.4766 -2.2189
42865SOL     OW34431   7.215  10.212   7.704  0.2175 -0.0534  0.4934
42865SOL    HW134432   7.154  10.211   7.631  0.8721 -1.8119 -0.0817
42865SOL    HW234433   7.286  10.154   7.677  0.9005 -0.0642  2.1746
42866SOL     OW34434   5.224   0.144   3.885 -0.3617 -0.1996 -0.0922
42866SOL    HW134435   5.270   0.076   3.835 -1.5673 -0.2455 -1.1820
42866SOL    HW234436   5.293   0.207   3.908  0.3273 -0.4452 -1.3658
42867SOL     OW34437   6.377   1.622   0.309 -0.2325 -0.0591  0.2905
42867SOL    HW134438   6.349   1.609   0.219 -0.9922 -0.0066  0.5142
42867SOL    HW234439   6.449   1.561   0.322  0.4342  0.5164 -0.6026
42868SOL     OW34440  11.466   4.278   2.755 -0.5550  0.3404 -0.8171
42868SOL    HW134441  11.477   4.196   2.707  0.2240  0.5252 -0.9680
42868SOL    HW234442  11.542   4.282   2.814 -1.3207  0.2795  0.2068
42869SOL     OW34443   4.616   8.612   1.119 -0.2343  0.2687  0.0192
42869SOL    HW134444   4.654   8.683   1.172 -1.1229  0.6964  0.1027
42869SOL    HW234445   4.643   8.532   1.163  0.4871  0.5599  0.1261
42870SOL     OW34446   4.662  10.961  12.059  0.0320 -0.0913 -0.4660
42870SOL    HW134447   4.686  10.938  12.149  0.8536  0.6423 -0.4839
42870SOL    HW234448   4.681  11.054  12.052  3.4308 -0.7384 -2.4299
42871SOL     OW34449   9.514   2.982   9.117 -0.1327 -0.0328  0.4390
42871SOL    HW134450   9.575   3.051   9.091 -0.4320 -0.1999 -0.7351
42871SOL    HW234451   9.513   2.922   9.043 -1.5078 -0.1855  0.5635
42872SOL     OW34452   6.619   1.175   0.734  0.2144  0.1925 -0.5138
42872SOL    HW134453   6.605   1.235   0.807  1.5058  1.3000 -1.1157
42872SOL    HW234454   6.549   1.195   0.672 -0.4793 -0.2677  0.1211
42873SOL     OW34455  10.661   5.261   8.100  0.0199  0.5484  0.4925
42873SOL    HW134456  10.681   5.224   8.014 -0.6166  0.7080  0.2691
42873SOL    HW234457  10.638   5.353   8.081 -0.2564  0.5483  0.8133
42874SOL     OW34458   8.180   2.636   3.373  0.4138 -0.4167  0.0560
42874SOL    HW134459   8.187   2.642   3.277  0.9019 -0.3642  0.0945
42874SOL    HW234460   8.162   2.544   3.389  0.1297 -0.3896 -0.0995
42875SOL     OW34461   4.421   4.442  11.771  0.0770  0.1341 -0.1535
42875SOL    HW134462   4.486   4.510  11.751  1.0064 -0.7521 -0.1948
42875SOL    HW234463   4.450   4.366  11.722 -0.7431 -0.4155  0.1984
42876SOL     OW34464   0.529   9.278   2.844  0.7325  0.0483 -0.0380
42876SOL    HW134465   0.524   9.188   2.877 -1.9889 -0.3377 -1.2587
42876SOL    HW234466   0.487   9.274   2.758  3.0532  1.9904 -1.4015
42877SOL     OW34467   1.435   2.842   4.003 -0.3518 -0.0930  0.6501
42877SOL    HW134468   1.446   2.763   4.056 -1.1990  0.7735  2.1733
42877SOL    HW234469   1.460   2.913   4.061 -0.3331  0.8361 -0.4615
42878SOL     OW34470   7.292  10.435   4.941 -0.1691  0.2193  0.1660
42878SOL    HW134471   7.335  10.499   4.884  0.1054  0.3313  0.4972
42878SOL    HW234472   7.344  10.435   5.021 -1.1645  0.8561  0.8435
42879SOL     OW34473  11.613   0.510   5.400 -0.4940  0.3096 -0.1277
42879SOL    HW134474  11.657   0.515   5.485  1.9187  3.8989 -1.3650
42879SOL    HW234475  11.682   0.484   5.339 -1.6908 -0.1347 -1.3273
42880SOL     OW34476   2.643   2.185   3.657 -0.0723  0.5072 -0.0885
42880SOL    HW134477   2.727   2.209   3.696 -0.5166 -0.0879  1.2734
42880SOL    HW234478   2.608   2.268   3.624  0.9750  0.7852 -0.5607
42881SOL     OW34479   1.838   7.812  10.855 -0.0597  0.9282  0.0327
42881SOL    HW134480   1.887   7.747  10.906  0.5116  1.7543  0.5555
42881SOL    HW234481   1.903   7.849  10.794 -0.4858  0.7004 -0.5686
42882SOL     OW34482   2.790   2.484   0.307 -0.4566 -0.3448 -0.3789
42882SOL    HW134483   2.758   2.397   0.332 -1.3300 -0.2299 -1.0461
42882SOL    HW234484   2.764   2.541   0.379 -2.1878 -0.1747 -1.1009
42883SOL     OW34485  12.244   8.844   2.665  0.0398 -0.0069 -0.3057
42883SOL    HW134486  12.167   8.875   2.713  0.1633  1.9546 -1.3013
42883SOL    HW234487  12.244   8.894   2.583  3.3241  1.4827  0.4110
42884SOL     OW34488   2.899  12.264   0.850 -0.2787  0.2062  0.1988
42884SOL    HW134489   2.853  12.259   0.934  1.1459  0.0394  1.0004
42884SOL    HW234490   2.989  12.287   0.874 -0.6034  3.9359 -1.5090
42885SOL     OW34491   1.178   1.958   6.529  0.2202 -0.1090  0.4692
42885SOL    HW134492   1.131   1.892   6.478 -2.7328  1.9532  0.2871
42885SOL    HW234493   1.226   2.009   6.464  2.8727 -2.1206  0.6432
42886SOL     OW34494   4.101   9.458   4.946  0.2732  0.1710  0.7871
42886SOL    HW134495   4.059   9.421   4.869  1.7248  1.5187 -0.7351
42886SOL    HW234496   4.195   9.441   4.933  0.4818 -0.4777  2.7804
42887SOL     OW34497   3.041   7.150   2.449  0.1284  0.3741 -0.3434
42887SOL    HW134498   2.986   7.111   2.381 -0.4448  2.5307 -1.1824
42887SOL    HW234499   3.070   7.233   2.412  1.3910  0.7345  1.3220
42888SOL     OW34500  11.416   5.582   5.944 -0.3074  0.2373  0.8371
42888SOL    HW134501  11.474   5.511   5.973  0.8088  0.6216 -0.3607
42888SOL    HW234502  11.340   5.537   5.906 -0.4167 -0.2856  1.6643
42889SOL     OW34503   6.191   7.949   5.004 -0.3171  0.1187  0.0716
42889SOL    HW134504   6.267   8.000   4.978 -0.5803  1.0309  1.0215
42889SOL    HW234505   6.122   7.976   4.944  0.2373 -1.1567 -1.1828
42890SOL     OW34506   3.904  11.256   6.988  0.2768 -0.5962 -0.0283
42890SOL    HW134507   3.887  11.227   7.078  2.2122 -0.2467  0.5071
42890SOL    HW234508   3.833  11.317   6.968  0.3889  0.1585  1.6930
42891SOL     OW34509   8.411   0.957   8.304 -0.6805  0.0881  0.4152
42891SOL    HW134510   8.435   0.865   8.317  0.0421  0.2911  0.5711
42891SOL    HW234511   8.421   0.971   8.210  0.6821  0.3891  0.5780
42892SOL     OW34512   8.872   1.565   1.582  0.3801 -0.7347  0.0712
42892SOL    HW134513   8.847   1.562   1.490  0.3136 -1.4918  0.1082
42892SOL    HW234514   8.825   1.492   1.623  0.1959 -0.2478  0.7631
42893SOL     OW34515   2.944   6.298   9.273 -0.3220  0.3138 -0.2909
42893SOL    HW134516   2.867   6.337   9.230 -0.8534 -0.8475 -0.4397
42893SOL    HW234517   2.961   6.218   9.223  0.3944  0.0643  0.3371
42894SOL     OW34518   4.314   1.222  11.627  0.3873 -0.0735  0.0114
42894SOL    HW134519   4.255   1.149  11.643 -0.3257  0.7556  1.2868
42894SOL    HW234520   4.336   1.215  11.534 -3.8278  1.0984 -1.2572
42895SOL     OW34521   8.417   7.554   1.846 -0.3764  0.3836  0.5783
42895SOL    HW134522   8.470   7.631   1.824 -0.7578  0.1610 -1.2095
42895SOL    HW234523   8.470   7.479   1.820 -1.7929  0.1697 -1.9589
42896SOL     OW34524   3.224   7.987   1.462 -0.2938  0.4188 -0.4621
42896SOL    HW134525   3.135   7.959   1.484  0.2626 -0.7655  0.4469
42896SOL    HW234526   3.263   8.009   1.547  0.3752  0.5975 -0.8098
42897SOL     OW34527  12.095   4.209  12.331  0.0541  0.0189 -0.6374
42897SOL    HW134528  12.058   4.123  12.349 -1.1903  0.5449 -0.5790
42897SOL    HW234529  12.095   4.253  12.416  0.1062  0.2923 -0.7768
42898SOL     OW34530   8.750   7.768   0.315  0.3226 -0.6371 -0.1555
42898SOL    HW134531   8.707   7.725   0.241  2.4540  0.5230 -2.2011
42898SOL    HW234532   8.819   7.707   0.341 -1.0832 -1.5269  1.6786
42899SOL     OW34533   2.246   4.863  11.188 -0.2299 -0.2710  0.3343
42899SOL    HW134534   2.296   4.945  11.189 -0.5612 -0.0076 -1.1939
42899SOL    HW234535   2.310   4.797  11.161  0.4131 -0.8426  3.0537
42900SOL     OW34536   5.678   9.699   4.208 -0.2984  0.0674  0.1970
42900SOL    HW134537   5.608   9.764   4.219 -2.2495 -1.2288 -3.1870
42900SOL    HW234538   5.634   9.615   4.216  1.3033 -0.8133  0.0769
42901SOL     OW34539  11.928   7.871   0.378 -0.3997 -0.2093  0.0701
42901SOL    HW134540  11.886   7.862   0.464  0.9097 -0.4529  0.7117
42901SOL    HW234541  11.966   7.784   0.362  1.2930  0.4641  0.3015
42902SOL     OW34542   3.277  12.299  10.286 -0.1416  0.3162 -0.0534
42902SOL    HW134543   3.237  12.239  10.349  0.2305 -0.7562 -0.7977
42902SOL    HW234544   3.220  12.296  10.210  0.3222  0.2668 -0.4052
42903SOL     OW34545   4.689   6.567   0.027 -0.2053  0.0652 -0.3314
42903SOL    HW134546   4.664   6.649   0.070 -0.5563 -0.8750  1.3582
42903SOL    HW234547   4.679   6.585  -0.066 -1.1279  1.6756  0.0340
42904SOL     OW34548   8.835   4.075   1.017  0.0214 -0.0021  0.3206
42904SOL    HW134549   8.911   4.078   1.076  0.9588  1.1812 -0.8875
42904SOL    HW234550   8.870   4.039   0.936 -0.3922  1.7410 -0.6702
42905SOL     OW34551   8.325   7.528  10.265  0.6465  0.4873  0.3462
42905SOL    HW134552   8.398   7.499  10.318 -1.0789 -1.1524  1.9851
42905SOL    HW234553   8.256   7.463  10.281 -1.6651  2.6834  0.0486
42906SOL     OW34554   5.772   2.443   2.311  0.5452 -0.1354  0.3764
42906SOL    HW134555   5.726   2.514   2.356 -0.1461 -0.2752 -0.0912
42906SOL    HW234556   5.792   2.478   2.224  0.7406 -0.3056  0.3519
42907SOL     OW34557   2.796   5.739   1.241 -0.7298  0.3888 -0.3399
42907SOL    HW134558   2.705   5.730   1.268 -1.4466  0.9395 -2.4201
42907SOL    HW234559   2.802   5.692   1.158  1.1211 -0.4066  0.1965
42908SOL     OW34560   4.716   4.128   6.321  0.1367 -0.1843 -0.3947
42908SOL    HW134561   4.708   4.041   6.281 -0.4416 -0.4707  0.3342
42908SOL    HW234562   4.801   4.127   6.364 -0.0372 -0.5340 -0.0530
42909SOL     OW34563   3.823   2.652   4.885  0.3711  0.1762 -0.1866
42909SOL    HW134564   3.817   2.651   4.789  0.5815  1.1057 -0.2185
42909SOL    HW234565   3.888   2.584   4.905  1.0953  0.6709 -0.7714
42910SOL     OW34566   1.564   3.593  11.306  0.4342 -0.0675  0.4962
42910SOL    HW134567   1.545   3.508  11.266 -0.7700  0.7100 -0.7040
42910SOL    HW234568   1.479   3.624  11.336  0.8065  0.8490  0.6179
42911SOL     OW34569   0.476   1.299   3.359  0.1632 -0.3293  0.2323
42911SOL    HW134570   0.410   1.266   3.297 -0.0034 -0.9735  0.7382
42911SOL    HW234571   0.424   1.327   3.435  0.3446  0.6891 -0.0096
42912SOL     OW34572   3.611   4.715   0.964 -0.3633 -0.8115  0.3440
42912SOL    HW134573   3.638   4.649   1.028 -2.5093 -1.6182  0.4802
42912SOL    HW234574   3.560   4.779   1.015  1.3036  0.7889  0.1355
42913SOL     OW34575   3.182  10.896  11.801 -0.4955 -0.2029  0.1691
42913SOL    HW134576   3.165  10.910  11.894  0.6428 -0.5544  0.4511
42913SOL    HW234577   3.220  10.808  11.796 -1.7828 -0.7350 -0.8039
42914SOL     OW34578   0.023   4.898  10.444 -0.3426  0.2085 -0.3553
42914SOL    HW134579   0.017   4.811  10.484  2.8626  0.0044 -0.0302
42914SOL    HW234580   0.010   4.882  10.351 -1.4451 -0.3108 -0.1380
42915SOL     OW34581  10.902   2.163  10.579  0.2652  0.5730  0.6187
42915SOL    HW134582  10.925   2.246  10.537  1.1278  1.1214  2.0728
42915SOL    HW234583  10.890   2.101  10.507  1.0363  1.6168 -0.4359
42916SOL     OW34584   5.798   2.513   8.146  0.1646 -0.0471  0.4227
42916SOL    HW134585   5.866   2.449   8.124  0.2800 -0.1094  0.9416
42916SOL    HW234586   5.788   2.566   8.067  0.0238 -0.7458 -0.0402
42917SOL     OW34587  11.361  10.273  10.035  0.4332 -0.1835 -0.0332
42917SOL    HW134588  11.304  10.255   9.960  1.9293  1.4322 -1.6888
42917SOL    HW234589  11.434  10.211  10.025 -0.1233 -1.0372  1.0392
42918SOL     OW34590  12.184   7.300   3.869  0.2503  0.4606  0.1887
42918SOL    HW134591  12.146   7.333   3.788  0.7542 -1.8400 -1.0834
42918SOL    HW234592  12.110   7.292   3.929 -0.2158  1.7053 -0.1869
42919SOL     OW34593  11.592  11.292   4.789  0.2516 -0.1388  0.1851
42919SOL    HW134594  11.600  11.222   4.724  0.0318 -0.3396  0.3769
42919SOL    HW234595  11.650  11.361   4.756 -0.7023  0.2172 -0.8260
42920SOL     OW34596  11.136   8.452   7.920 -0.2444  0.3807  0.2190
42920SOL    HW134597  11.071   8.441   7.851 -1.7142  1.4982  1.3605
42920SOL    HW234598  11.119   8.539   7.956  1.4853  0.4445  0.9897
42921SOL     OW34599   9.763   9.748   0.352  0.1258 -0.6046 -0.0499
42921SOL    HW134600   9.711   9.811   0.402 -0.9856 -1.9289  0.5419
42921SOL    HW234601   9.775   9.674   0.412  1.9706 -0.7133 -0.4888
42922SOL     OW34602   5.683   5.448   1.551 -0.3059  0.0386  0.2986
42922SOL    HW134603   5.679   5.542   1.571 -1.9217  0.1546 -0.4189
42922SOL    HW234604   5.625   5.437   1.476  1.8932 -1.1481 -1.3564
42923SOL     OW34605   1.393  10.440   1.891 -0.0354 -0.6974 -0.1192
42923SOL    HW134606   1.393  10.356   1.936  0.5469 -0.2276  0.7965
42923SOL    HW234607   1.457  10.493   1.939 -0.1786  0.1747 -0.8547
42924SOL     OW34608  11.784   8.932   8.980  0.2141  0.0659  0.3678
42924SOL    HW134609  11.749   9.017   8.953  0.3644 -0.1678 -0.5860
42924SOL    HW234610  11.866   8.953   9.024 -0.1646  0.4747  0.8922
42925SOL     OW34611   4.089  11.980   7.529  0.4659  0.4374 -0.2745
42925SOL    HW134612   4.058  12.066   7.560  1.7091  1.1714 -0.9601
42925SOL    HW234613   4.146  11.949   7.599  3.4535  2.1977 -1.7291
42926SOL     OW34614   2.866   8.657   5.590  0.0989 -0.2082 -0.3035
42926SOL    HW134615   2.861   8.640   5.496  0.0366 -0.8931 -0.1818
42926SOL    HW234616   2.807   8.732   5.604 -2.5979 -2.1694 -0.3309
42927SOL     OW34617   0.462   9.648   0.910 -0.3537 -0.0462  0.1294
42927SOL    HW134618   0.532   9.693   0.862  0.0085 -0.5788  0.1476
42927SOL    HW234619   0.422   9.716   0.964  0.5166  0.1554  0.5323
42928SOL     OW34620   3.083   1.057   8.022 -0.6645 -0.3110  0.3198
42928SOL    HW134621   3.090   1.148   8.050 -2.0759 -0.2178  0.4172
42928SOL    HW234622   3.158   1.045   7.964  1.7817 -0.2267  3.2088
42929SOL     OW34623  11.156   4.964   7.505  0.6644 -0.2847 -0.1678
42929SOL    HW134624  11.175   5.052   7.472 -1.2334  1.0430  2.0415
42929SOL    HW234625  11.224   4.948   7.571  1.1120 -0.5915 -0.6904
42930SOL     OW34626   5.065   7.662  10.486 -0.1207 -0.0313 -0.2976
42930SOL    HW134627   5.142   7.716  10.503  0.4089 -1.2696  1.4973
42930SOL    HW234628   5.100   7.582  10.447 -0.7867  0.4192 -1.8962
42931SOL     OW34629   2.053   7.708   6.438 -0.6582  0.7717  0.2688
42931SOL    HW134630   1.966   7.716   6.399 -0.2612 -0.1169 -0.8566
42931SOL    HW234631   2.113   7.735   6.368  0.1026 -1.3384  0.0369
42932SOL     OW34632  11.605   6.549  11.257  0.1342 -0.1412  0.3896
42932SOL    HW134633  11.575   6.636  11.283 -0.4604 -0.9806  2.8066
42932SOL    HW234634  11.526   6.506  11.224  0.1051 -0.2347  0.5811
42933SOL     OW34635   4.556   3.348   6.581 -0.6448 -0.1491  0.3520
42933SOL    HW134636   4.546   3.432   6.626  0.4661  0.3768 -0.3466
42933SOL    HW234637   4.512   3.285   6.638 -0.8259  0.7836  1.2707
42934SOL     OW34638   3.209   5.312   3.538 -0.1311  0.2332  0.3664
42934SOL    HW134639   3.293   5.344   3.506 -0.6209 -0.2692 -1.5230
42934SOL    HW234640   3.146   5.378   3.510 -0.8142 -1.1068 -1.4331
42935SOL     OW34641   2.203   4.806   5.034  0.0223 -0.0014  0.0641
42935SOL    HW134642   2.109   4.799   5.048  0.3521 -2.1980  1.6748
42935SOL    HW234643   2.237   4.842   5.116  0.6591 -0.0212 -0.1828
42936SOL     OW34644  12.161  10.143   9.741 -0.0806  0.5231 -0.5685
42936SOL    HW134645  12.213  10.063   9.748  1.5013  1.3299 -2.1900
42936SOL    HW234646  12.080  10.115   9.699  0.0515 -0.3742 -0.2575
42937SOL     OW34647   5.895   4.937   9.627  0.2175 -0.0638 -0.2610
42937SOL    HW134648   5.821   4.962   9.571 -0.4965 -0.2956  0.5626
42937SOL    HW234649   5.878   4.846   9.650  1.7878 -0.7600 -1.6491
42938SOL     OW34650   4.018   6.328   4.622  0.2172  0.3728  0.3016
42938SOL    HW134651   4.110   6.352   4.628 -0.1499  2.2526 -0.8014
42938SOL    HW234652   3.996   6.336   4.529 -0.6627 -1.7914  0.2516
42939SOL     OW34653  10.592   3.492   3.527 -1.1542 -0.5975  0.1494
42939SOL    HW134654  10.664   3.430   3.515  1.2682  1.9957  0.2414
42939SOL    HW234655  10.630   3.577   3.506 -3.7267  1.1345  1.9297
42940SOL     OW34656   8.387  10.564   6.099  0.5079  0.5999 -0.7082
42940SOL    HW134657   8.405  10.657   6.083  2.1603  0.2352 -1.1632
42940SOL    HW234658   8.295  10.562   6.125  0.3004  2.3083 -1.1482
42941SOL     OW34659   1.612   5.543   1.627  0.2061 -0.4198 -0.2213
42941SOL    HW134660   1.671   5.612   1.597  1.1698 -2.2399 -2.9104
42941SOL    HW234661   1.524   5.581   1.617  0.7045  0.4201 -1.7757
42942SOL     OW34662   5.854   3.459   6.968  0.3199  0.0179  0.3135
42942SOL    HW134663   5.784   3.430   6.908  1.3813 -0.8030 -0.5834
42942SOL    HW234664   5.817   3.535   7.013 -2.1477 -1.9350  1.8384
42943SOL     OW34665   7.813  10.900  11.898 -0.2872 -0.2486  0.0871
42943SOL    HW134666   7.786  10.813  11.867  0.3182  0.4526 -2.6645
42943SOL    HW234667   7.902  10.888  11.930 -0.1737 -0.6195 -0.3645
42944SOL     OW34668   9.906   8.235   3.066  0.1379 -0.2988  0.0673
42944SOL    HW134669   9.909   8.142   3.044  0.2887 -0.6369  1.4089
42944SOL    HW234670   9.849   8.240   3.143  0.2324  0.7007  0.0898
42945SOL     OW34671   5.077   6.182   0.124  0.1181  0.6331 -0.5798
42945SOL    HW134672   5.116   6.262   0.088 -2.6041  1.6573 -1.5600
42945SOL    HW234673   5.011   6.156   0.059  0.1643 -1.8214  0.2409
42946SOL     OW34674   6.360   5.382   1.914  0.0854  0.5085 -0.0832
42946SOL    HW134675   6.407   5.299   1.908 -1.4954 -0.4499  0.2165
42946SOL    HW234676   6.428   5.448   1.914  1.3681 -0.7493 -0.9708
42947SOL     OW34677   6.466   0.901   8.746 -0.3502 -0.4135  0.3194
42947SOL    HW134678   6.393   0.839   8.748 -0.8433  0.1479  0.0932
42947SOL    HW234679   6.465   0.936   8.657  0.0942 -0.2819  0.3641
42948SOL     OW34680   1.576   0.020  11.254 -0.4718 -0.1927  0.5256
42948SOL    HW134681   1.582   0.060  11.167  0.5190  1.0491  1.1214
42948SOL    HW234682   1.601  -0.071  11.240  0.8323  0.2541 -0.3393
42949SOL     OW34683   1.293   4.529   1.403 -0.4652  0.1734 -0.1025
42949SOL    HW134684   1.339   4.475   1.339  1.4276  0.9654  0.4960
42949SOL    HW234685   1.326   4.617   1.388  0.5900  0.2867  2.3274
42950SOL     OW34686  11.398   0.989  10.344  0.4265  0.2589  0.1826
42950SOL    HW134687  11.474   0.941  10.377  3.2822  1.7539 -3.5094
42950SOL    HW234688  11.341   0.922  10.307  2.5450 -0.6410 -1.6136
42951SOL     OW34689   2.990   6.663   4.488  0.5537  0.4759 -0.0639
42951SOL    HW134690   2.976   6.671   4.393  0.4468  1.3016  0.0164
42951SOL    HW234691   3.070   6.611   4.496  0.4496  0.2219 -0.5993
42952SOL     OW34692   2.032   0.932  10.991  0.3873 -0.1965  0.0907
42952SOL    HW134693   2.080   0.934  11.074 -0.1852  0.7974  0.4157
42952SOL    HW234694   1.947   0.894  11.014  0.2249  0.0914 -0.0360
42953SOL     OW34695   1.608   0.457   1.539  0.2244  0.3340  0.3800
42953SOL    HW134696   1.666   0.394   1.583 -1.0448 -0.4722  0.9683
42953SOL    HW234697   1.562   0.501   1.610  0.1994  1.0453 -0.0706
42954SOL     OW34698   8.469   1.492   5.489 -0.1031  0.1959  0.1522
42954SOL    HW134699   8.564   1.488   5.491  0.0826  1.2358 -2.3475
42954SOL    HW234700   8.444   1.428   5.422 -1.2555 -0.6804  1.3776
42955SOL     OW34701   6.735  10.373  10.428  0.3949  0.4296  0.2797
42955SOL    HW134702   6.734  10.379  10.332  1.1180  0.4576  0.2674
42955SOL    HW234703   6.670  10.306  10.449  0.1226  0.5302 -0.2175
42956SOL     OW34704   2.436   0.913   1.353  0.2478  0.7978  0.9053
42956SOL    HW134705   2.473   0.863   1.426  0.0645  0.7645  0.9736
42956SOL    HW234706   2.461   1.003   1.371 -1.3275  1.0485  1.9478
42957SOL     OW34707   6.175   9.889   1.352 -0.3238  0.2008 -0.1721
42957SOL    HW134708   6.213   9.815   1.398  0.7492  0.6097 -0.3817
42957SOL    HW234709   6.195   9.873   1.260 -0.2053  0.6871 -0.2334
42958SOL     OW34710   9.964  11.875  11.370 -0.3539  0.5111 -0.2501
42958SOL    HW134711   9.999  11.963  11.387 -1.3771  0.5302  2.3410
42958SOL    HW234712   9.980  11.827  11.452 -0.4727 -1.5048 -1.3467
42959SOL     OW34713   2.346   1.558   3.313  0.8767 -0.1308  0.5355
42959SOL    HW134714   2.380   1.646   3.301  2.1979 -0.0617  3.7418
42959SOL    HW234715   2.257   1.571   3.347 -0.0118 -0.1732 -1.6324
42960SOL     OW34716   6.388   7.450   2.019 -0.2809 -0.1061 -0.0595
42960SOL    HW134717   6.403   7.432   2.112 -0.9249 -0.4479 -0.0152
42960SOL    HW234718   6.470   7.489   1.989 -0.1411  0.2061  0.7018
42961SOL     OW34719   2.846  10.754   2.768 -0.1960  0.1069 -0.5088
42961SOL    HW134720   2.863  10.845   2.743 -1.1781  0.1995 -0.8747
42961SOL    HW234721   2.813  10.759   2.857  1.0231 -0.0231 -0.0275
42962SOL     OW34722   9.019  11.872   7.705  0.4051  0.4535  0.1237
42962SOL    HW134723   9.078  11.911   7.640  1.7445  0.9052  1.5560
42962SOL    HW234724   8.992  11.789   7.665  0.6165  1.0370 -1.3068
42963SOL     OW34725   1.776   9.956   2.992  0.1778 -0.3567  0.1480
42963SOL    HW134726   1.700   9.959   2.934  0.1701  1.2885  0.2014
42963SOL    HW234727   1.799   9.863   2.996 -0.3921 -0.6234 -1.7199
42964SOL     OW34728   1.081   3.204   9.578  0.7637  0.4799  0.0630
42964SOL    HW134729   1.091   3.280   9.635  0.7056  1.4209 -1.1282
42964SOL    HW234730   1.009   3.227   9.520 -0.6255 -1.3528  0.9633
42965SOL     OW34731   2.695   7.924   7.890 -0.0142  0.3846 -0.7701
42965SOL    HW134732   2.728   7.836   7.875  0.2937 -0.1962  2.4951
42965SOL    HW234733   2.744   7.979   7.829  0.6466 -1.5272 -2.0387
42966SOL     OW34734   7.988   9.173   3.067  0.3046  0.1663  0.0522
42966SOL    HW134735   8.069   9.182   3.118  0.4421  1.5291 -0.3658
42966SOL    HW234736   8.002   9.095   3.013  0.4741 -0.8328  1.4986
42967SOL     OW34737   2.445  11.958   1.428  0.2737 -0.1874 -0.6657
42967SOL    HW134738   2.411  11.914   1.506  2.6701 -1.0212  0.0054
42967SOL    HW234739   2.456  12.049   1.455  3.0268 -0.8512  0.7631
42968SOL     OW34740   9.835   0.057  11.221  0.1256  0.1546  0.3372
42968SOL    HW134741   9.826   0.138  11.170 -1.0982  0.6458  1.2958
42968SOL    HW234742   9.880  -0.003  11.161 -0.1070  1.1164 -0.8588
42969SOL     OW34743   1.826   2.174  11.576  0.1922  0.2263  0.2799
42969SOL    HW134744   1.908   2.157  11.530  0.7597 -1.0576  1.6611
42969SOL    HW234745   1.760   2.123  11.530  0.2751  0.7677 -0.4546
42970SOL     OW34746   9.493   8.762   6.330 -0.0209  0.2474  0.0983
42970SOL    HW134747   9.446   8.837   6.366 -0.4936 -0.7090  1.5717
42970SOL    HW234748   9.445   8.686   6.362  0.9964 -0.6976 -0.5625
42971SOL     OW34749   7.327   8.886   1.196 -0.3286 -0.0979  0.6469
42971SOL    HW134750   7.359   8.832   1.123 -1.6989  1.2406 -1.0278
42971SOL    HW234751   7.367   8.847   1.273 -0.1743 -2.6698 -0.6123
42972SOL     OW34752   4.550   8.040   8.142 -0.1110  0.1338 -0.1802
42972SOL    HW134753   4.575   8.116   8.195 -0.8748  0.0957  0.2500
42972SOL    HW234754   4.468   8.066   8.100 -0.8605 -0.7605  0.6762
42973SOL     OW34755   8.585   3.723  12.103 -0.7683 -0.4950 -0.7826
42973SOL    HW134756   8.666   3.769  12.084 -0.8351 -0.5213 -1.1350
42973SOL    HW234757   8.601   3.679  12.187 -0.7901  0.3715 -0.3102
42974SOL     OW34758   3.556   9.571  10.854 -0.5105  0.2344  0.3051
42974SOL    HW134759   3.522   9.490  10.892 -0.5433 -0.4039 -1.0077
42974SOL    HW234760   3.621   9.602  10.917 -1.3307 -0.1856  1.3764
42975SOL     OW34761   1.243   2.552   3.630 -0.5882  0.1251 -0.3450
42975SOL    HW134762   1.219   2.599   3.549 -0.3014  0.5280 -0.1987
42975SOL    HW234763   1.182   2.479   3.633 -0.1639 -0.2882 -1.2823
42976SOL     OW34764   3.062   7.207   3.941  0.4483 -0.6286  0.5546
42976SOL    HW134765   3.102   7.197   4.028  0.0189 -2.7248  0.5682
42976SOL    HW234766   2.973   7.236   3.959  0.2328 -1.4496  0.8593
42977SOL     OW34767   7.169   9.448   2.919  0.2184  0.5112 -0.1384
42977SOL    HW134768   7.188   9.519   2.857 -2.0984  1.6837  0.3538
42977SOL    HW234769   7.221   9.374   2.888  0.7421  1.6692 -2.2350
42978SOL     OW34770   9.207   0.951   2.814  0.1056  0.0929  0.5994
42978SOL    HW134771   9.232   1.009   2.742  1.9478  0.4425  1.4602
42978SOL    HW234772   9.236   0.864   2.786 -1.4505 -0.2361 -0.1134
42979SOL     OW34773  11.698  11.103   7.812  0.1562 -0.0273  0.3267
42979SOL    HW134774  11.699  11.009   7.792  0.2300  0.0447 -0.0079
42979SOL    HW234775  11.605  11.126   7.816  0.1199 -0.2836  1.2260
42980SOL     OW34776   2.171   6.473   3.512 -0.2723 -0.0323  0.3333
42980SOL    HW134777   2.174   6.501   3.421  0.2725  0.8460  0.6041
42980SOL    HW234778   2.189   6.553   3.562  0.0110 -0.6166  1.1914
42981SOL     OW34779   9.305   9.776  11.494  0.1183  0.0061  0.0210
42981SOL    HW134780   9.344   9.819  11.570 -0.8622 -0.6314  0.9273
42981SOL    HW234781   9.221   9.821  11.481 -0.0446 -0.3559 -0.2185
42982SOL     OW34782   7.209   5.769   7.799 -0.0071  0.3427 -0.1731
42982SOL    HW134783   7.219   5.727   7.713 -0.2389  0.7044 -0.3805
42982SOL    HW234784   7.121   5.806   7.796  0.2874  1.0527 -0.0846
42983SOL     OW34785   7.908  10.528   4.365 -0.3940  0.1875  0.2243
42983SOL    HW134786   7.816  10.545   4.384 -0.3891 -0.2588  0.6905
42983SOL    HW234787   7.919  10.434   4.384  0.0073  0.1005 -0.4325
42984SOL     OW34788   6.839   0.831   0.327  0.4035 -0.5997  0.2181
42984SOL    HW134789   6.849   0.789   0.413  0.6956 -0.6066  0.1844
42984SOL    HW234790   6.757   0.879   0.332  1.3498  1.0277  1.1916
42985SOL     OW34791   9.856   6.945   4.527 -0.0845 -0.2436 -0.0448
42985SOL    HW134792   9.858   6.964   4.621  0.0213 -1.0722  0.1357
42985SOL    HW234793   9.896   7.021   4.486  2.6157 -1.1146  0.8066
42986SOL     OW34794  11.105  11.908   6.979 -0.6963  0.3082  0.1861
42986SOL    HW134795  11.083  11.869   6.894 -0.7137  1.8874 -0.5742
42986SOL    HW234796  11.163  11.981   6.957 -0.4876  0.5837  1.5701
42987SOL     OW34797   4.286   5.110   4.536 -0.3927 -0.3458  0.8116
42987SOL    HW134798   4.380   5.094   4.531 -0.2742  0.4373  0.3507
42987SOL    HW234799   4.272   5.188   4.482 -1.3041 -0.4474  0.8856
42988SOL     OW34800   8.695  11.324  11.654 -0.6445 -0.7450 -0.3010
42988SOL    HW134801   8.652  11.322  11.739 -0.6024 -0.3699 -0.2681
42988SOL    HW234802   8.640  11.270  11.598 -0.6937 -0.9625 -0.0451
42989SOL     OW34803   8.103   8.584   7.556 -0.3791  0.7084 -0.4800
42989SOL    HW134804   8.126   8.673   7.581 -1.5930  0.6431  0.9528
42989SOL    HW234805   8.073   8.542   7.636 -2.4427 -0.1510 -1.6150
42990SOL     OW34806   3.173   3.743   0.697 -0.3423  0.3032 -0.7539
42990SOL    HW134807   3.232   3.670   0.714 -0.2423 -0.2959 -3.2758
42990SOL    HW234808   3.153   3.779   0.783 -0.6003 -2.8427  0.6270
42991SOL     OW34809   5.871   5.737   0.271 -0.1001  0.1061 -0.5292
42991SOL    HW134810   5.879   5.831   0.285  0.3444 -0.0483  0.3520
42991SOL    HW234811   5.786   5.725   0.229  0.3794  1.0084 -1.8045
42992SOL     OW34812   9.934   3.317   5.952  0.0675  0.9542  0.0348
42992SOL    HW134813   9.977   3.283   6.030  0.5078  0.9962 -0.1890
42992SOL    HW234814   9.855   3.360   5.985  0.9364  2.1733  0.6000
42993SOL     OW34815   8.547  12.156   9.561  0.4885  0.2002  0.7420
42993SOL    HW134816   8.510  12.186   9.644 -0.1387  1.2934  0.0868
42993SOL    HW234817   8.473  12.160   9.499  0.8998 -0.7608  0.1640
42994SOL     OW34818  11.379  11.797   7.390 -0.2284  0.2082  0.2013
42994SOL    HW134819  11.416  11.748   7.316  0.6012  0.6983  0.2760
42994SOL    HW234820  11.300  11.748   7.414  0.3315 -0.8417 -0.0156
42995SOL     OW34821   0.720   0.604   2.736  0.6299  0.3818 -0.2696
42995SOL    HW134822   0.691   0.567   2.819 -1.0651  1.1009 -0.5003
42995SOL    HW234823   0.651   0.665   2.711  0.3740 -0.8377 -2.9038
42996SOL     OW34824   9.272   0.150   7.192  0.4238  0.0421 -0.4651
42996SOL    HW134825   9.328   0.220   7.226  0.7412 -0.8401  0.8922
42996SOL    HW234826   9.327   0.071   7.198 -0.8092 -0.7785  0.5303
42997SOL     OW34827   2.798   1.843   5.025  0.2999 -0.4707  0.0462
42997SOL    HW134828   2.726   1.901   4.999 -0.1206 -1.3339 -0.7406
42997SOL    HW234829   2.809   1.861   5.119 -1.5141 -0.9220  0.3905
42998SOL     OW34830   5.105   0.941   5.157  0.7072 -0.3298  1.0047
42998SOL    HW134831   5.113   1.031   5.125 -1.4155 -0.2833  0.4216
42998SOL    HW234832   5.099   0.888   5.077  0.8206 -0.8555  1.3420
42999SOL     OW34833  10.884  11.802   8.707 -0.1642  0.0019  0.1544
42999SOL    HW134834  10.855  11.886   8.743  0.9930  0.4877  0.0060
42999SOL    HW234835  10.941  11.826   8.634 -1.6997 -0.9518 -1.4045
43000SOL     OW34836   7.727  10.168   7.426  0.0800 -0.5904  0.5966
43000SOL    HW134837   7.813  10.202   7.453  0.8580  0.4265 -2.7214
43000SOL    HW234838   7.729  10.076   7.451  1.9191 -0.4656  1.1007
43001SOL     OW34839   8.287   1.391   1.394 -0.2261 -0.1223  0.3679
43001SOL    HW134840   8.360   1.396   1.333  0.8305  0.5711  1.6466
43001SOL    HW234841   8.209   1.390   1.339  0.6721  1.0051 -0.9722
43002SOL     OW34842   7.344   6.626   4.523  0.3017 -0.1585 -0.0502
43002SOL    HW134843   7.270   6.584   4.566 -2.6173  2.6485 -1.9473
43002SOL    HW234844   7.337   6.600   4.431  2.8393 -1.2629 -0.0097
43003SOL     OW34845   5.621  10.758  12.016  0.2535  0.2940 -0.1279
43003SOL    HW134846   5.677  10.688  11.983  0.1678  0.3060 -0.2965
43003SOL    HW234847   5.618  10.744  12.111 -2.1056 -1.6544 -0.3974
43004SOL     OW34848   4.815   8.459  12.150 -0.3043  0.4890 -0.3901
43004SOL    HW134849   4.787   8.527  12.089 -2.2675 -0.5803 -0.7651
43004SOL    HW234850   4.776   8.378  12.116  0.5678 -0.5605  0.9658
43005SOL     OW34851   2.958   1.950   4.110 -0.2254 -0.1309  0.1918
43005SOL    HW134852   2.893   1.967   4.043 -0.6976 -1.0999  0.3896
43005SOL    HW234853   2.972   2.035   4.153  1.2891  0.9001 -2.1430
43006SOL     OW34854  10.180   6.591   2.310  0.4940 -0.1683  0.2244
43006SOL    HW134855  10.204   6.684   2.309  0.5371 -0.1794  0.0906
43006SOL    HW234856  10.141   6.576   2.224  0.3585 -0.2406  0.2992
43007SOL     OW34857   4.647   2.452   8.192 -0.2021 -0.2589  0.0949
43007SOL    HW134858   4.659   2.495   8.277 -0.5648 -0.4501  0.2475
43007SOL    HW234859   4.553   2.436   8.186 -0.1169 -0.7129 -0.1113
43008SOL     OW34860   6.818   5.764   3.977 -0.5230 -0.6131 -0.4159
43008SOL    HW134861   6.854   5.723   4.056  0.9929  0.8693 -0.2694
43008SOL    HW234862   6.894   5.800   3.932 -1.5728  0.2563 -1.5737
43009SOL     OW34863   7.689   4.891   5.622 -0.4508  0.3434  0.0507
43009SOL    HW134864   7.776   4.886   5.662 -0.2480  1.1422 -0.2630
43009SOL    HW234865   7.654   4.976   5.652 -0.0728  1.2349 -1.8840
43010SOL     OW34866   2.221  11.204  11.542 -0.0025 -0.0895 -0.1120
43010SOL    HW134867   2.226  11.114  11.509  1.5076  0.0052 -0.1940
43010SOL    HW234868   2.140  11.238  11.504 -0.8134 -1.5212  0.2450
43011SOL     OW34869   1.800  10.346   2.972 -0.4615  0.5570 -0.2905
43011SOL    HW134870   1.713  10.370   3.003 -0.3734  0.7776 -0.2088
43011SOL    HW234871   1.826  10.272   3.028 -1.8910 -1.6631 -2.3874
43012SOL     OW34872  10.361   8.855   8.820  0.2843 -0.3100  0.0593
43012SOL    HW134873  10.289   8.825   8.876  0.0030 -0.0753 -0.1716
43012SOL    HW234874  10.323   8.926   8.769  0.8111  0.1164  0.2546
43013SOL     OW34875   2.444   6.040   7.562  0.1776  0.3545 -0.1892
43013SOL    HW134876   2.403   6.126   7.573 -0.0905  0.2848 -0.6084
43013SOL    HW234877   2.428   6.018   7.470  1.1918  0.3326 -0.3686
43014SOL     OW34878   7.141   8.749   5.669  0.6523  0.2428 -0.0045
43014SOL    HW134879   7.211   8.789   5.720  0.1123 -0.7343  1.5402
43014SOL    HW234880   7.176   8.664   5.643  0.0267 -0.2830  0.8430
43015SOL     OW34881   5.474   5.356   7.620  0.0798  0.0657  0.0738
43015SOL    HW134882   5.434   5.359   7.533 -0.1632  3.2414  0.1944
43015SOL    HW234883   5.546   5.294   7.611 -0.4160 -0.2776 -2.1541
43016SOL     OW34884  10.171   7.985   6.760 -0.4154  0.1572  0.7626
43016SOL    HW134885  10.103   7.920   6.779 -0.6338  0.2738  0.3838
43016SOL    HW234886  10.229   7.983   6.837 -0.3193 -0.6151  0.6774
43017SOL     OW34887  11.266   0.298   7.654  0.2504 -0.0452 -0.3578
43017SOL    HW134888  11.182   0.251   7.649  0.7467 -1.1491  0.9130
43017SOL    HW234889  11.242   0.390   7.643 -1.2998 -0.2241  1.0144
43018SOL     OW34890   6.695   9.404   3.816 -0.7907 -0.1898 -0.2961
43018SOL    HW134891   6.715   9.323   3.768  2.5738  0.9437 -1.1194
43018SOL    HW234892   6.622   9.443   3.768 -1.6083 -2.0542 -0.6683
43019SOL     OW34893   3.154  11.820   6.233  0.2117  0.4309  0.4061
43019SOL    HW134894   3.119  11.778   6.312 -0.6420  1.1514  0.4151
43019SOL    HW234895   3.239  11.778   6.220  0.0290 -0.2342  1.2750
43020SOL     OW34896  11.236   6.214   6.879  0.0591  0.0162 -0.3603
43020SOL    HW134897  11.237   6.255   6.965 -0.1010 -0.1460 -0.2798
43020SOL    HW234898  11.236   6.120   6.897 -2.1370 -0.0623 -0.4756
43021SOL     OW34899  12.000   1.525   5.176  0.0168 -0.3926  0.1349
43021SOL    HW134900  12.012   1.606   5.226 -0.7249 -0.7678  0.9463
43021SOL    HW234901  12.077   1.473   5.198  0.3068 -0.0651 -0.0876
43022SOL     OW34902   1.458   9.252   0.400 -0.2080  0.4298 -0.1626
43022SOL    HW134903   1.468   9.336   0.444  0.7244 -1.3185  3.3803
43022SOL    HW234904   1.519   9.256   0.326 -1.0145  3.1543 -0.8108
43023SOL     OW34905   9.914   8.990   7.290 -0.3553  0.8011 -0.2607
43023SOL    HW134906   9.841   9.047   7.268  0.2226  0.5096 -3.2777
43023SOL    HW234907   9.988   9.049   7.303 -0.4849  0.9197 -0.0550
43024SOL     OW34908   0.218   0.343   7.580  0.5598 -0.1944  0.1488
43024SOL    HW134909   0.252   0.326   7.667  0.3431 -1.2573  0.0406
43024SOL    HW234910   0.234   0.262   7.531 -0.6664 -0.1638 -0.3575
43025SOL     OW34911   8.338   9.906  11.563  0.1369  0.4366  0.6136
43025SOL    HW134912   8.276   9.979  11.566  1.4660  1.5742  1.6330
43025SOL    HW234913   8.340   9.873  11.653 -1.4238 -1.7669 -0.0812
43026SOL     OW34914   9.825   4.522  11.674 -0.0013 -0.1860 -0.4953
43026SOL    HW134915   9.780   4.442  11.702 -0.2439 -0.4135 -1.5049
43026SOL    HW234916   9.819   4.521  11.579 -0.4596  1.2897 -0.5098
43027SOL     OW34917   3.599  12.326   8.934  0.1951 -0.1662 -0.0054
43027SOL    HW134918   3.522  12.362   8.978  0.5302 -0.7535  1.1157
43027SOL    HW234919   3.669  12.333   8.999  0.7016 -1.0883 -0.4309
43028SOL     OW34920   6.453   4.063   4.487 -0.4684  0.2231 -0.3144
43028SOL    HW134921   6.365   4.028   4.498 -0.3654  0.3154  1.0797
43028SOL    HW234922   6.504   3.992   4.449 -0.5133 -0.8430  1.4765
43029SOL     OW34923   5.328   4.198   6.890  0.1005 -0.3075  0.2015
43029SOL    HW134924   5.266   4.210   6.962 -0.9485 -0.6613 -0.6114
43029SOL    HW234925   5.363   4.110   6.903 -0.9149 -0.8080 -0.3092
43030SOL     OW34926   5.237   9.533   5.008 -0.1189  0.3358 -0.7606
43030SOL    HW134927   5.302   9.568   4.947 -1.1674  3.3768 -0.3059
43030SOL    HW234928   5.287   9.501   5.082  1.0082 -0.5186 -1.8642
43031SOL     OW34929   3.217   6.993   2.584  0.2777  0.3658 -0.4364
43031SOL    HW134930   3.181   6.925   2.527  0.9483  0.0909 -0.5444
43031SOL    HW234931   3.170   7.072   2.558 -1.1201 -0.1884  0.2714
43032SOL     OW34932   6.273   2.693  12.308 -0.2563  0.4196  0.0804
43032SOL    HW134933   6.200   2.653  12.356  0.2665 -1.1613 -0.3701
43032SOL    HW234934   6.337   2.715  12.375  0.5628 -1.9758  0.1768
43033SOL     OW34935   7.912  10.552   6.596 -0.1073 -0.5242  0.0654
43033SOL    HW134936   7.838  10.565   6.655  0.8041  1.4739  0.8570
43033SOL    HW234937   7.985  10.529   6.653  0.7453  1.2454 -0.2461
43034SOL     OW34938   5.161   3.922   0.835 -0.3194  0.0923  0.4401
43034SOL    HW134939   5.149   3.845   0.781  1.8154 -0.4682  0.6694
43034SOL    HW234940   5.173   3.888   0.924 -1.2538  0.8382  0.8791
43035SOL     OW34941   4.475  10.710   1.669  0.0805  0.6317  0.0696
43035SOL    HW134942   4.528  10.738   1.594 -0.1996  1.1174  0.0510
43035SOL    HW234943   4.429  10.632   1.637  0.8701  0.1216  0.1273
43036SOL     OW34944  11.966   2.796   0.675  0.3615  0.4111 -0.1353
43036SOL    HW134945  12.027   2.801   0.601  0.3976  1.4070 -0.0421
43036SOL    HW234946  11.943   2.703   0.680  2.4501 -0.1369  0.3003
43037SOL     OW34947  11.267   2.029  11.711  0.0306  0.0060  0.1924
43037SOL    HW134948  11.279   2.060  11.621  0.3378  0.1737  0.2910
43037SOL    HW234949  11.296   1.938  11.709  1.4830  0.4364  0.4560
43038SOL     OW34950   0.894   8.485   4.404 -0.0420  0.1846  0.0410
43038SOL    HW134951   0.870   8.578   4.410  0.1665  0.3148 -1.0569
43038SOL    HW234952   0.846   8.444   4.476 -0.0911  1.1532  0.5794
43039SOL     OW34953   8.089   7.882   3.471  0.0644  0.3504  0.6545
43039SOL    HW134954   8.087   7.788   3.451 -1.1233  0.2844  0.9812
43039SOL    HW234955   8.001   7.913   3.448  0.3298  1.3149  0.8881
43040SOL     OW34956  11.678   6.966   9.085 -0.4108  0.4285  0.1768
43040SOL    HW134957  11.652   6.996   8.998 -1.9624  1.2124  0.8766
43040SOL    HW234958  11.719   7.042   9.125 -1.2292  0.6033  0.7139
43041SOL     OW34959   2.739  11.176   5.263 -0.0164  0.7657 -0.0518
43041SOL    HW134960   2.709  11.085   5.260  3.0103 -0.3564 -0.6399
43041SOL    HW234961   2.709  11.214   5.181 -2.2082  0.6568  0.6569
43042SOL     OW34962   6.874  11.220   6.735 -0.1689  0.1523  0.5708
43042SOL    HW134963   6.794  11.178   6.769  1.0241 -0.7140  2.4725
43042SOL    HW234964   6.940  11.203   6.802  1.1890  2.4017 -0.0956
43043SOL     OW34965   3.688   3.497   7.203  0.9945 -0.4674  1.1285
43043SOL    HW134966   3.709   3.551   7.127  1.9539 -0.9825  1.0213
43043SOL    HW234967   3.759   3.434   7.208 -0.0135 -1.6197  1.3549
43044SOL     OW34968   2.208   2.416   1.675  0.2150 -0.3261 -0.1203
43044SOL    HW134969   2.235   2.367   1.752  0.3217  1.4187  1.0069
43044SOL    HW234970   2.149   2.357   1.628 -0.9857 -0.9328  2.0332
43045SOL     OW34971  11.454   2.955   8.051 -0.1246  0.4561  0.5531
43045SOL    HW134972  11.378   2.898   8.038 -0.9909  1.4283  1.2268
43045SOL    HW234973  11.525   2.909   8.007 -0.6078 -1.5275  1.6760
43046SOL     OW34974   2.489  10.269  10.002 -0.9546  0.3263 -0.2968
43046SOL    HW134975   2.561  10.313   9.958 -0.8026 -0.1446 -0.5269
43046SOL    HW234976   2.411  10.296   9.954 -0.8177  0.0209 -0.7008
43047SOL     OW34977   9.493   2.829  10.802  0.3867 -0.0334 -0.2787
43047SOL    HW134978   9.444   2.910  10.813 -1.5544 -1.2065  0.2548
43047SOL    HW234979   9.496   2.815  10.708  0.4872  0.5016 -0.3589
43048SOL     OW34980  10.658   5.409   2.116  0.3550 -0.0051  0.6901
43048SOL    HW134981  10.743   5.452   2.102 -1.1438  2.5994 -1.2950
43048SOL    HW234982  10.620   5.456   2.190  0.0356 -0.1233  0.5982
43049SOL     OW34983   5.309   4.308  10.750  0.0946 -0.1613 -0.5196
43049SOL    HW134984   5.230   4.326  10.698  0.3485 -0.7136 -1.1085
43049SOL    HW234985   5.342   4.225  10.716  0.6000 -0.2320  0.1294
43050SOL     OW34986   7.291  11.428   4.292  0.7248 -0.1538  0.9187
43050SOL    HW134987   7.241  11.499   4.253  0.2482 -1.1503 -0.3449
43050SOL    HW234988   7.374  11.428   4.245  0.5413 -0.7192  0.5842
43051SOL     OW34989   4.669  10.630   0.498  0.0138 -0.0019 -0.0822
43051SOL    HW134990   4.583  10.670   0.490 -0.0275 -0.2762 -1.1082
43051SOL    HW234991   4.662  10.572   0.573 -0.3883  0.7352  0.4609
43052SOL     OW34992   2.163   3.589   0.744  0.3101 -0.9407  0.4229
43052SOL    HW134993   2.098   3.563   0.809 -0.5827  0.9066  0.3429
43052SOL    HW234994   2.210   3.662   0.784 -0.9689  0.9587 -1.2904
43053SOL     OW34995   0.072   0.064  11.028 -0.2989  0.7455  0.2514
43053SOL    HW134996   0.053   0.123  10.954  2.7209  0.6079 -0.7674
43053SOL    HW234997   0.055   0.117  11.106 -0.4833  1.9915 -0.5974
43054SOL     OW34998   3.736  11.487   0.548 -0.2693 -0.0546  0.1637
43054SOL    HW134999   3.799  11.478   0.620  0.7445  0.8533 -0.5762
43054SOL    HW235000   3.739  11.580   0.525 -0.6595 -0.3090 -0.9767
43055SOL     OW35001  11.325   1.257   7.873 -0.3991 -0.1166 -0.1945
43055SOL    HW135002  11.331   1.174   7.826  0.0547  0.4395 -1.1462
43055SOL    HW235003  11.332   1.233   7.966  3.4268 -0.8847 -0.4976
43056SOL     OW35004   8.139   8.562   5.075 -0.0461 -0.4388 -0.4808
43056SOL    HW135005   8.162   8.576   5.167 -1.2902 -0.2893 -0.1757
43056SOL    HW235006   8.044   8.569   5.073  0.0516  0.9006 -2.0187
43057SOL     OW35007   2.366   2.876   6.003  0.4444  0.1583  0.2008
43057SOL    HW135008   2.288   2.838   5.963 -1.3141  2.1939  1.4603
43057SOL    HW235009   2.386   2.818   6.077  0.9168 -1.0537 -0.8529
43058SOL     OW35010   9.605   9.422   2.203  0.6607 -0.3053 -0.3879
43058SOL    HW135011   9.698   9.403   2.188  1.1292  1.5432 -0.0319
43058SOL    HW235012   9.592   9.401   2.296  0.8699 -0.0678 -0.3020
43059SOL     OW35013   4.058   3.961   4.211  0.2054 -0.2990 -0.3393
43059SOL    HW135014   4.002   3.903   4.263  0.6906  0.5766  1.2568
43059SOL    HW235015   4.138   3.911   4.197  0.4935 -0.1693  0.7390
43060SOL     OW35016   1.722   0.665   7.647 -0.3306 -0.1874  0.1751
43060SOL    HW135017   1.788   0.615   7.600  0.3685 -0.6013  1.5424
43060SOL    HW235018   1.770   0.707   7.719 -1.2338  0.9798  0.1356
43061SOL     OW35019   5.152   8.387   6.277 -0.0627 -0.0683  0.0691
43061SOL    HW135020   5.237   8.424   6.301  0.0047  0.5970 -1.0838
43061SOL    HW235021   5.089   8.437   6.328  0.1591  0.3638 -0.0735
43062SOL     OW35022   0.432   5.530   1.134  0.3213  0.1282  0.0756
43062SOL    HW135023   0.445   5.523   1.040 -1.3521  0.5134 -0.2114
43062SOL    HW235024   0.395   5.618   1.147 -1.4347 -0.6724  0.8125
43063SOL     OW35025   8.299   3.109   5.865  0.5728  0.0133 -0.5096
43063SOL    HW135026   8.306   3.014   5.861  1.6139  0.1094 -1.6015
43063SOL    HW235027   8.389   3.140   5.852  0.0953  1.1600 -1.2649
43064SOL     OW35028   8.721   5.726   0.202  0.1781 -0.4381 -0.1476
43064SOL    HW135029   8.788   5.663   0.225 -1.3240 -2.3415 -0.7331
43064SOL    HW235030   8.657   5.720   0.273  0.1318  0.6442 -0.0778
43065SOL     OW35031   9.197   7.928   6.807 -0.5062 -0.2503  0.0794
43065SOL    HW135032   9.257   7.935   6.881  0.9989  1.2882 -1.2264
43065SOL    HW235033   9.115   7.896   6.846  0.5417 -0.5148  2.2114
43066SOL     OW35034   9.072   8.298   2.426 -0.4995 -0.0546  0.1071
43066SOL    HW135035   9.164   8.303   2.398 -1.2543 -0.6777 -2.8071
43066SOL    HW235036   9.034   8.380   2.396 -1.1041 -0.1899  0.4960
43067SOL     OW35037   9.661   7.552   3.119  0.0962 -0.1428  0.4066
43067SOL    HW135038   9.740   7.580   3.075  0.4495  0.0965  1.1783
43067SOL    HW235039   9.691   7.490   3.185 -0.6136 -1.9695 -0.9132
43068SOL     OW35040   3.599  12.312   2.481  0.2990  0.4153  0.2240
43068SOL    HW135041   3.549  12.352   2.552 -0.4654 -0.8630  0.4392
43068SOL    HW235042   3.565  12.223   2.476 -0.5984  0.8277 -2.6044
43069SOL     OW35043   5.723   9.573  10.867  0.0408 -0.1232  0.0508
43069SOL    HW135044   5.643   9.555  10.818 -1.5029 -0.7693  2.6030
43069SOL    HW235045   5.763   9.488  10.881  0.7875  0.1173 -0.5435
43070SOL     OW35046  11.762   0.902   8.760 -0.3397 -0.5295 -0.2873
43070SOL    HW135047  11.708   0.968   8.718 -2.1992 -1.8870 -0.1299
43070SOL    HW235048  11.729   0.897   8.850 -0.9938 -2.4041 -0.5910
43071SOL     OW35049   4.082   4.687  10.552  0.5789 -0.3480  0.0600
43071SOL    HW135050   4.070   4.673  10.646 -1.7064  2.2995  0.2673
43071SOL    HW235051   4.146   4.758  10.545  1.8864 -1.5133 -0.5223
43072SOL     OW35052   5.892   9.293   5.353  0.0499 -0.0228  0.1811
43072SOL    HW135053   5.863   9.271   5.264 -0.2848 -0.8945  0.5027
43072SOL    HW235054   5.847   9.231   5.409 -1.4305  1.8726  1.1993
43073SOL     OW35055   0.556   1.367   5.850 -0.6775  0.1018  0.1273
43073SOL    HW135056   0.625   1.302   5.867 -1.8852 -1.2485  0.0848
43073SOL    HW235057   0.511   1.334   5.772  0.0796  2.2344 -1.3036
43074SOL     OW35058   6.017  10.595   2.288 -0.3702  0.1211  0.1499
43074SOL    HW135059   6.085  10.658   2.311 -0.1664  0.1513 -0.5022
43074SOL    HW235060   6.064  10.515   2.266 -0.5536  0.0851 -0.1248
43075SOL     OW35061   9.257   8.432   6.422  0.3778  0.5505 -0.6265
43075SOL    HW135062   9.259   8.362   6.357 -0.3570  0.4368 -0.5344
43075SOL    HW235063   9.210   8.394   6.497 -0.8206  1.4056 -0.9121
43076SOL     OW35064   6.290   7.859   6.373  0.0689 -0.0583 -0.2181
43076SOL    HW135065   6.307   7.947   6.339  0.5498  0.3654  1.0618
43076SOL    HW235066   6.269   7.872   6.465 -0.3676 -1.2444 -0.1338
43077SOL     OW35067   8.006   2.719   4.972 -1.0953 -0.1837  0.5386
43077SOL    HW135068   7.925   2.738   5.018 -1.7972 -1.0564 -0.2977
43077SOL    HW235069   8.012   2.624   4.973 -0.2214 -0.1379  0.3461
43078SOL     OW35070   8.019   0.838  10.259 -0.0998 -0.3902 -0.2164
43078SOL    HW135071   8.029   0.926  10.224 -0.6070 -1.0788 -2.2368
43078SOL    HW235072   8.034   0.847  10.353  0.5726  1.7052 -0.4850
43079SOL     OW35073   8.686   8.531   6.079 -0.4037  0.1517  0.3690
43079SOL    HW135074   8.670   8.448   6.124 -1.2264  0.4338  0.6105
43079SOL    HW235075   8.599   8.560   6.050 -0.1031  0.8460  0.1397
43080SOL     OW35076   5.906  12.243   3.513  0.4840  0.4216 -0.1068
43080SOL    HW135077   5.984  12.270   3.562 -1.0738  1.3352  2.0686
43080SOL    HW235078   5.883  12.320   3.461  0.1278  0.7554  0.5295
43081SOL     OW35079   3.610   5.280   8.635  0.3125  0.4086 -0.5748
43081SOL    HW135080   3.549   5.305   8.565 -0.9559 -2.2569 -0.5630
43081SOL    HW235081   3.587   5.338   8.708 -2.1794 -0.3628 -0.6379
43082SOL     OW35082   9.162   5.245   4.319 -0.0043  0.7127 -0.8785
43082SOL    HW135083   9.077   5.216   4.353  2.1336 -2.9122  2.1339
43082SOL    HW235084   9.150   5.339   4.303 -4.4263  0.4438 -0.3984
43083SOL     OW35085   3.806   4.433   9.780  0.5032 -0.1164 -0.2631
43083SOL    HW135086   3.728   4.393   9.819 -0.6379 -0.9082 -3.1056
43083SOL    HW235087   3.843   4.487   9.850 -2.2590 -0.1406  1.3560
43084SOL     OW35088   6.311   5.821   3.417 -0.2071 -0.0331 -0.1529
43084SOL    HW135089   6.321   5.798   3.325  1.1241 -1.9312  0.3913
43084SOL    HW235090   6.387   5.876   3.436  0.7483 -1.4358  0.2720
43085SOL     OW35091  12.071   1.847   1.539 -0.1594  0.1962 -0.1321
43085SOL    HW135092  11.978   1.844   1.519 -0.4619 -1.1167  1.2751
43085SOL    HW235093  12.106   1.766   1.502 -0.1494 -0.7110  1.7573
43086SOL     OW35094   2.641   9.654   6.444  0.4104  0.4610  0.0965
43086SOL    HW135095   2.566   9.596   6.460  2.3444 -1.8584  1.5805
43086SOL    HW235096   2.679   9.623   6.362  0.4248  0.8193 -0.0333
43087SOL     OW35097   8.664   8.399   7.262 -0.0850 -0.0705  0.5638
43087SOL    HW135098   8.714   8.367   7.337  1.6468  1.0729 -0.0306
43087SOL    HW235099   8.647   8.321   7.210  1.0163 -0.5237  0.8436
43088SOL     OW35100   5.183   8.047   3.695 -0.1799  0.1140  0.3939
43088SOL    HW135101   5.216   8.132   3.664  2.0911 -0.2962  1.4806
43088SOL    HW235102   5.170   7.996   3.615 -2.8445  1.8081 -0.4012
43089SOL     OW35103   1.773   0.531  11.664 -0.4443 -0.3476 -0.4052
43089SOL    HW135104   1.858   0.535  11.620 -0.0634 -0.0105  0.3451
43089SOL    HW235105   1.791   0.490  11.749 -0.7529  1.0774  0.3757
43090SOL     OW35106   4.144   4.309   7.458 -0.3051  0.1748 -0.1403
43090SOL    HW135107   4.134   4.214   7.459  0.1165  0.1077 -1.1500
43090SOL    HW235108   4.073   4.341   7.514 -1.6491 -0.6364 -1.3036
43091SOL     OW35109   4.675   4.481   9.297  0.3640 -0.0845 -0.3630
43091SOL    HW135110   4.737   4.436   9.240  0.9543  1.1842 -0.7538
43091SOL    HW235111   4.590   4.446   9.273  0.8529 -1.3684 -0.2835
43092SOL     OW35112   7.831   7.642  11.855 -0.0240 -0.0679 -0.0849
43092SOL    HW135113   7.927   7.647  11.859 -0.0965  0.7798  1.2765
43092SOL    HW235114   7.810   7.658  11.763  1.1001  1.0772 -0.1804
43093SOL     OW35115   3.966   8.175   3.661  0.5415  0.3068 -0.2236
43093SOL    HW135116   3.901   8.240   3.687 -2.8338 -3.1571  0.7490
43093SOL    HW235117   3.941   8.150   3.572  0.7121 -0.8678  0.0454
43094SOL     OW35118   7.859   6.946   6.427  0.5489 -0.2981 -0.4025
43094SOL    HW135119   7.872   6.867   6.480 -0.4271 -0.3132 -0.1572
43094SOL    HW235120   7.940   6.955   6.377  2.0686  0.4526  2.0235
43095SOL     OW35121   9.251  10.762  10.429  0.6317  0.7649 -0.5645
43095SOL    HW135122   9.258  10.738  10.522 -0.8786 -0.6128 -0.7656
43095SOL    HW235123   9.331  10.813  10.411  1.7882 -0.3975  1.0395
43096SOL     OW35124  12.175   2.309   6.957 -0.3366  0.1130 -0.2725
43096SOL    HW135125  12.221   2.227   6.939  0.5137  1.1331 -3.3630
43096SOL    HW235126  12.097   2.305   6.901 -0.8507  1.0026  0.3507
43097SOL     OW35127  10.908   1.447   1.331  0.0233  0.3172 -0.2460
43097SOL    HW135128  10.959   1.393   1.391  1.6954  0.8485 -1.1213
43097SOL    HW235129  10.825   1.461   1.376  0.7856 -0.2461  1.4131
43098SOL     OW35130   6.959   7.205   1.113  0.5195 -0.4102 -0.3876
43098SOL    HW135131   7.025   7.274   1.114 -1.3151  1.4662  1.1067
43098SOL    HW235132   6.962   7.168   1.202 -0.1802 -0.5538 -0.4207
43099SOL     OW35133   5.611  11.401  10.018 -0.2498  0.0545  0.2421
43099SOL    HW135134   5.584  11.319   9.976 -1.1707  0.2416  0.4291
43099SOL    HW235135   5.688  11.429   9.970 -0.6055 -0.3323 -0.5737
43100SOL     OW35136   2.110   7.780   8.153  0.0921 -0.2961 -0.6295
43100SOL    HW135137   2.119   7.836   8.230  0.8463 -1.6417  0.2900
43100SOL    HW235138   2.198   7.774   8.116 -0.1626 -0.1090 -1.2802
43101SOL     OW35139   0.806   5.013   9.518  0.5757  0.1119  0.1760
43101SOL    HW135140   0.885   5.008   9.464  1.3746 -0.7939  1.3745
43101SOL    HW235141   0.819   4.947   9.586 -1.9970 -1.2910 -0.5619
43102SOL     OW35142   2.066   7.239   0.102  0.2764 -0.2802  0.1762
43102SOL    HW135143   2.109   7.314   0.143 -1.1728 -0.0259  1.3160
43102SOL    HW235144   2.079   7.253   0.008  1.6321  0.3948  0.4374
43103SOL     OW35145  10.469   2.753   6.553 -0.2310  0.5933 -0.2786
43103SOL    HW135146  10.404   2.711   6.610 -0.6315  3.4359  1.5215
43103SOL    HW235147  10.424   2.763   6.469 -0.3696 -1.7570 -0.5561
43104SOL     OW35148  11.619   6.064   6.920  0.4332 -0.3906  0.4900
43104SOL    HW135149  11.658   6.133   6.974  2.3329 -0.2322 -0.9722
43104SOL    HW235150  11.562   6.111   6.858 -3.2106 -0.6855  3.2562
43105SOL     OW35151   2.193   0.329   0.743  1.0566 -0.1988  0.5602
43105SOL    HW135152   2.286   0.320   0.724  0.8881  0.4306 -0.7127
43105SOL    HW235153   2.159   0.240   0.740  1.3176 -0.2788 -0.7711
43106SOL     OW35154   2.507   0.856  10.107  0.0075 -0.0586  0.1229
43106SOL    HW135155   2.573   0.922  10.088  0.0271  0.2687  1.2691
43106SOL    HW235156   2.423   0.900  10.090  0.0273  0.2045  0.6822
43107SOL     OW35157   7.413   4.503   5.943 -0.5128  0.0275 -0.1397
43107SOL    HW135158   7.417   4.578   5.884  0.2829  0.4567  0.4410
43107SOL    HW235159   7.492   4.452   5.922 -0.1107  0.2921  0.6735
43108SOL     OW35160  12.128   5.850   5.478  0.3512  0.3740 -0.6721
43108SOL    HW135161  12.196   5.914   5.456 -1.7649  2.0071 -3.1048
43108SOL    HW235162  12.046   5.893   5.454 -1.3809 -2.4058 -0.1677
43109SOL     OW35163   6.268   7.764   8.743 -0.2274 -0.3291 -0.3889
43109SOL    HW135164   6.307   7.783   8.828  0.4824  1.0339 -0.9792
43109SOL    HW235165   6.199   7.700   8.761  0.3620 -0.5715  1.0977
43110SOL     OW35166   2.819   2.759   5.290  0.1901  0.1399  0.2013
43110SOL    HW135167   2.880   2.760   5.363  0.1299 -0.1957  0.2583
43110SOL    HW235168   2.732   2.764   5.330  0.1521 -0.1802  0.1618
43111SOL     OW35169   0.972  10.450   6.187  0.2304 -0.1133  0.0656
43111SOL    HW135170   0.899  10.452   6.248  1.6573  0.4265  1.8258
43111SOL    HW235171   0.941  10.396   6.114 -2.2034  0.8192  0.3344
43112SOL     OW35172   1.306   1.098   1.185 -0.0801 -0.0486 -0.0038
43112SOL    HW135173   1.334   1.007   1.196  1.0561  0.2212 -0.4733
43112SOL    HW235174   1.387   1.149   1.194 -0.6435  0.8819 -0.1075
43113SOL     OW35175   6.778   7.288   3.803 -0.1274 -0.1750  0.5206
43113SOL    HW135176   6.841   7.330   3.746  0.7720 -0.1409  1.5111
43113SOL    HW235177   6.813   7.200   3.816 -0.0804 -0.0326  1.3816
43114SOL     OW35178   7.404   4.047   1.032  0.3923 -0.4100 -0.0742
43114SOL    HW135179   7.415   4.136   1.067 -0.5218 -0.8107  1.3083
43114SOL    HW235180   7.334   4.055   0.968  0.4476 -0.0998 -0.0974
43115SOL     OW35181   4.799   1.040   9.965  0.0225 -0.1793  0.5297
43115SOL    HW135182   4.778   0.999   9.881 -1.9148  0.4038  0.6641
43115SOL    HW235183   4.832   0.968  10.019  0.3850 -0.7543 -0.4340
43116SOL     OW35184   3.659   9.116   7.158 -0.1621 -0.1034 -0.0306
43116SOL    HW135185   3.679   9.097   7.250 -2.8855 -0.2725  0.6394
43116SOL    HW235186   3.723   9.181   7.132  0.3506  0.3738  2.1930
43117SOL     OW35187   7.540   9.657   9.218  0.5948  0.8394  0.0598
43117SOL    HW135188   7.522   9.573   9.177  2.1634  1.1171 -1.2899
43117SOL    HW235189   7.546   9.637   9.312 -0.2462 -0.3044 -0.1039
43118SOL     OW35190   3.769   9.490   6.481  0.3280  0.1112  0.3866
43118SOL    HW135191   3.754   9.397   6.464 -0.7496  0.3375 -0.0167
43118SOL    HW235192   3.861   9.504   6.461  0.3347 -0.7215 -0.2282
43119SOL     OW35193   5.774   4.009   9.860 -0.8334 -0.4013 -0.2949
43119SOL    HW135194   5.807   3.983   9.946 -1.4744 -0.2481  0.0031
43119SOL    HW235195   5.731   3.931   9.826  0.3700 -0.7954 -0.9613
43120SOL     OW35196  11.088   4.965   1.688  0.5313  0.3795 -0.4891
43120SOL    HW135197  11.036   5.035   1.727 -0.4877  0.1000 -1.3277
43120SOL    HW235198  11.024   4.900   1.659  1.4197 -0.6049 -0.3244
43121SOL     OW35199   7.485   7.650   6.316 -0.0744 -0.4926  0.1786
43121SOL    HW135200   7.450   7.625   6.230 -0.7187 -0.7487  0.5126
43121SOL    HW235201   7.409   7.651   6.374  0.3688 -0.3951  0.7663
43122SOL     OW35202  10.734   4.742   8.356 -0.2107  0.2066  0.0508
43122SOL    HW135203  10.805   4.681   8.373 -1.2398 -1.2055 -0.5291
43122SOL    HW235204  10.764   4.795   8.283  0.4937  0.0531  0.2238
43123SOL     OW35205   3.676   0.981   6.955  0.3498 -0.4747 -0.0961
43123SOL    HW135206   3.686   1.042   6.881 -1.4777 -0.4520 -0.3688
43123SOL    HW235207   3.648   0.899   6.915 -0.9009 -0.3949  0.5814
43124SOL     OW35208   5.628   3.425   5.463 -0.0294 -0.6900 -0.2255
43124SOL    HW135209   5.596   3.461   5.380  1.6178 -1.3262 -1.1955
43124SOL    HW235210   5.570   3.350   5.481 -1.0023  0.0370 -0.2703
43125SOL     OW35211  11.947   8.810   3.818 -0.4300 -0.3609 -0.2469
43125SOL    HW135212  11.954   8.905   3.829  2.0556 -0.0951 -2.9271
43125SOL    HW235213  12.007   8.773   3.882  1.6200  0.2064 -1.7213
43126SOL     OW35214   4.083   5.340   8.314  0.2696 -0.0059 -0.0369
43126SOL    HW135215   4.102   5.425   8.273  1.3013 -1.0797 -1.9315
43126SOL    HW235216   4.155   5.284   8.286 -0.6772 -1.6531  0.7344
43127SOL     OW35217  11.023   5.957   1.654  0.1725  0.0822 -0.2277
43127SOL    HW135218  11.058   5.896   1.589  0.4822  1.0581 -1.0221
43127SOL    HW235219  10.937   5.923   1.676 -0.4719  0.3624 -2.0943
43128SOL     OW35220   3.643   5.100   5.843  0.0660 -0.2317 -0.2085
43128SOL    HW135221   3.562   5.149   5.825 -1.6170 -2.4025  0.9730
43128SOL    HW235222   3.644   5.030   5.778  0.5057 -0.7608  0.3547
43129SOL     OW35223  12.293   4.198   7.450  0.7270 -0.0026 -0.6347
43129SOL    HW135224  12.203   4.202   7.419 -0.2310 -0.1351  1.8914
43129SOL    HW235225  12.334   4.278   7.416 -1.0095  1.2124  0.0233
43130SOL     OW35226   4.500   3.938  12.286 -0.1722 -0.7781  0.2635
43130SOL    HW135227   4.554   4.013  12.308 -1.0569 -0.1987  0.4995
43130SOL    HW235228   4.473   3.902  12.370  0.2696 -1.3920  0.1545
43131SOL     OW35229   3.661  11.774   0.509 -0.0078  0.2408  0.3702
43131SOL    HW135230   3.640  11.806   0.421 -0.6160 -1.6882 -0.2419
43131SOL    HW235231   3.575  11.755   0.547  0.3026  0.1437  1.0182
43132SOL     OW35232   0.005   6.566   6.189 -0.3027  0.5275  0.5589
43132SOL    HW135233  -0.084   6.601   6.182 -0.8830 -0.3736  2.5513
43132SOL    HW235234   0.060   6.642   6.205 -0.9672  0.9313  0.9877
43133SOL     OW35235   8.627  11.334   7.584  0.3177  0.2005 -0.8491
43133SOL    HW135236   8.538  11.369   7.580  0.4194  0.7719  0.8830
43133SOL    HW235237   8.616  11.244   7.612  0.3133  0.9705  1.9598
43134SOL     OW35238  11.039   5.073   0.084 -0.5079  0.4099 -0.0136
43134SOL    HW135239  11.081   4.990   0.063 -1.2865 -0.5086  1.8124
43134SOL    HW235240  11.027   5.116  -0.001  1.0766 -0.7504 -0.8756
43135SOL     OW35241   9.947   4.208   0.087 -0.5866 -0.1059 -0.0830
43135SOL    HW135242  10.017   4.170   0.034 -1.7187 -1.1351 -0.9096
43135SOL    HW235243   9.912   4.279   0.032  1.1445  1.8860  1.2172
43136SOL     OW35244   1.501  10.808   0.078  0.5312 -0.4868 -0.3864
43136SOL    HW135245   1.440  10.788   0.006 -1.5246 -2.7616  1.7839
43136SOL    HW235246   1.575  10.749   0.063  0.4311 -0.4679 -0.9842
43137SOL     OW35247   1.025   8.999   6.514 -0.7403 -0.1459  0.1222
43137SOL    HW135248   1.113   8.963   6.517 -1.2459 -1.4796 -0.2711
43137SOL    HW235249   0.972   8.930   6.475 -1.9621  0.6401  0.3243
43138SOL     OW35250   5.428   7.088   1.888 -0.2280  0.6350  0.1214
43138SOL    HW135251   5.475   7.171   1.894 -1.5367  1.3400  1.0792
43138SOL    HW235252   5.473   7.040   1.819  2.0723  1.1323  1.1941
43139SOL     OW35253   5.691  10.748   0.563  0.3601 -0.0970 -0.3285
43139SOL    HW135254   5.666  10.839   0.545  1.3558  0.1178 -0.6824
43139SOL    HW235255   5.730  10.717   0.481 -0.2840 -0.9607 -0.3220
43140SOL     OW35256  12.209   4.090   9.734  0.2808 -0.2523 -0.2425
43140SOL    HW135257  12.290   4.079   9.783  1.1293  1.1635 -1.2424
43140SOL    HW235258  12.192   4.184   9.738  0.4357 -0.0594 -2.6819
43141SOL     OW35259   1.604  10.042   4.684  0.1799  0.5280 -0.2757
43141SOL    HW135260   1.551   9.964   4.668  0.9313 -0.6151  2.2302
43141SOL    HW235261   1.541  10.108   4.711 -0.4159  0.6946 -1.9572
43142SOL     OW35262   5.400   1.139   5.441  0.4366  0.1702 -0.2204
43142SOL    HW135263   5.323   1.082   5.443  0.5892 -0.0682 -0.8872
43142SOL    HW235264   5.374   1.216   5.491  0.9764 -1.4088  2.7327
43143SOL     OW35265   9.972   0.226   5.791 -0.2094  0.0990  0.3202
43143SOL    HW135266   9.947   0.171   5.716  0.0296  0.6100 -0.1476
43143SOL    HW235267   9.970   0.167   5.866  0.7331 -0.7294 -0.2751
43144SOL     OW35268   3.360   0.363   9.901 -0.4692 -0.1513 -0.0923
43144SOL    HW135269   3.386   0.340   9.990  0.9000  0.1304 -0.3961
43144SOL    HW235270   3.268   0.337   9.896  0.2528 -3.2952  0.3627
43145SOL     OW35271   9.477   0.358   0.408  0.0454  0.0146 -0.4132
43145SOL    HW135272   9.532   0.426   0.446 -0.5027  0.4144 -0.3232
43145SOL    HW235273   9.537   0.285   0.391  0.8818  0.9457 -1.6525
43146SOL     OW35274   6.062  10.691   9.110  0.6468  0.2612  0.0821
43146SOL    HW135275   6.116  10.690   9.031  3.2459 -0.4639  1.7520
43146SOL    HW235276   6.030  10.602   9.118  0.9371  0.1683  0.2076
43147SOL     OW35277   9.712   9.821   9.010 -0.2180 -0.0238 -0.4715
43147SOL    HW135278   9.795   9.849   8.973 -0.2087  1.0573  0.3191
43147SOL    HW235279   9.647   9.881   8.972 -0.6429 -0.8287 -1.0514
43148SOL     OW35280   8.344   7.600   4.529 -0.2658  0.0247 -0.4421
43148SOL    HW135281   8.340   7.686   4.486  1.4298 -0.7099 -2.2155
43148SOL    HW235282   8.312   7.539   4.463 -0.0273 -0.8873  0.2623
43149SOL     OW35283   8.494   7.072   8.523  0.0439 -0.1146  0.2983
43149SOL    HW135284   8.482   7.163   8.497  2.1566  0.0181 -0.3492
43149SOL    HW235285   8.483   7.072   8.618 -0.7920  0.6471  0.2158
43150SOL     OW35286   9.036  11.675   7.295 -0.1383 -0.3987 -0.2038
43150SOL    HW135287   9.094  11.751   7.297 -0.2912 -0.1971 -1.7499
43150SOL    HW235288   9.022  11.659   7.202 -0.9277 -1.7019  0.1199
43151SOL     OW35289   9.457   9.364   8.544 -0.0986  0.1221 -0.4682
43151SOL    HW135290   9.539   9.403   8.512  0.4283 -0.7301 -0.2036
43151SOL    HW235291   9.390   9.430   8.525  0.6213  0.7704 -0.8389
43152SOL     OW35292   2.738   6.410   9.121 -0.5870  0.3038  0.1035
43152SOL    HW135293   2.644   6.389   9.119 -0.4779 -0.1883 -1.5760
43152SOL    HW235294   2.743   6.504   9.105 -0.8288  0.5842  1.5572
43153SOL     OW35295   8.071  11.003   9.760  0.2903  0.4189  0.2105
43153SOL    HW135296   8.078  10.916   9.721  0.5067  0.6589 -0.2860
43153SOL    HW235297   8.030  10.988   9.846  2.0631 -0.4170  0.9514
43154SOL     OW35298   2.977   4.062   1.598 -0.6213  0.3197 -0.0751
43154SOL    HW135299   2.981   4.092   1.689 -2.4569 -1.0510  0.5220
43154SOL    HW235300   2.986   4.142   1.546  3.0358  0.9047  1.1565
43155SOL     OW35301   1.414  11.698   7.322  0.0342 -0.0473  0.2293
43155SOL    HW135302   1.487  11.642   7.346  0.7718  1.4508  1.6537
43155SOL    HW235303   1.451  11.762   7.262 -0.6083 -0.5230 -0.7018
43156SOL     OW35304   1.194  11.667   2.290 -0.1161 -0.0820 -0.0743
43156SOL    HW135305   1.114  11.666   2.237  1.3510  1.2946 -2.5401
43156SOL    HW235306   1.244  11.592   2.257  1.0396  1.0971 -1.1157
43157SOL     OW35307   6.485   7.966   0.559 -0.1939 -0.6601 -0.2355
43157SOL    HW135308   6.537   7.957   0.479 -1.3902 -1.0046 -0.9921
43157SOL    HW235309   6.395   7.973   0.529 -0.5230  1.0739  0.9996
43158SOL     OW35310   9.194   5.304  12.230 -0.0189 -0.6047 -0.1002
43158SOL    HW135311   9.256   5.300  12.158 -0.6540 -0.3319 -0.6823
43158SOL    HW235312   9.221   5.236  12.291  0.7815 -0.5471 -0.3897
43159SOL     OW35313   6.616   6.754   5.381 -0.1402  0.0666 -0.0381
43159SOL    HW135314   6.683   6.691   5.403 -0.3768 -0.4141 -0.6491
43159SOL    HW235315   6.551   6.747   5.451 -0.3755 -0.6849 -0.3251
43160SOL     OW35316   9.113  11.116   9.431 -0.0357 -0.2656  0.5015
43160SOL    HW135317   9.124  11.190   9.371  1.0790 -0.5390  0.3335
43160SOL    HW235318   9.055  11.149   9.500 -1.5274 -0.0234 -0.8270
43161SOL     OW35319   5.133   2.296  10.149  0.5991 -0.5068  0.3348
43161SOL    HW135320   5.082   2.253  10.218 -1.6438  0.2477 -0.7516
43161SOL    HW235321   5.141   2.387  10.179 -0.9165 -0.0253 -0.6052
43162SOL     OW35322   9.268   2.748   5.775  0.3806 -0.0781  0.3300
43162SOL    HW135323   9.235   2.804   5.846  1.0789 -0.6065  1.0888
43162SOL    HW235324   9.362   2.763   5.775  0.2381  1.3020 -1.7203
43163SOL     OW35325  11.659  10.426  11.291 -0.2757  0.4449 -0.5745
43163SOL    HW135326  11.712  10.397  11.365 -0.1232  1.2436 -0.3678
43163SOL    HW235327  11.716  10.415  11.215  0.0332  0.8790 -0.4082
43164SOL     OW35328  11.763   4.949   0.650 -0.4889 -0.2329  0.1504
43164SOL    HW135329  11.816   4.986   0.579 -1.6338  0.7180 -0.2509
43164SOL    HW235330  11.813   4.967   0.729 -0.2855  0.8549 -0.2001
43165SOL     OW35331   2.916   8.682   3.861 -0.6050 -0.3147  0.3000
43165SOL    HW135332   2.899   8.614   3.796 -0.5641  1.1688 -1.3115
43165SOL    HW235333   2.896   8.764   3.817  0.4881  0.8206  1.8087
43166SOL     OW35334   4.289   4.810   7.882  0.3890  0.5147 -0.3810
43166SOL    HW135335   4.232   4.860   7.822 -0.7740 -0.3910 -0.0659
43166SOL    HW235336   4.228   4.761   7.937  1.4810  0.1523  0.5342
43167SOL     OW35337   2.073  10.653   8.615  0.0740 -0.1899 -0.1171
43167SOL    HW135338   2.096  10.734   8.570 -0.4604 -0.3411 -0.6721
43167SOL    HW235339   2.073  10.676   8.708  2.0685 -0.0970 -0.1057
43168SOL     OW35340   1.331   0.608   5.095  0.2729  0.4719  0.3126
43168SOL    HW135341   1.247   0.573   5.065  1.7158 -1.9679 -1.2682
43168SOL    HW235342   1.339   0.692   5.049 -1.1025  0.5345  0.1463
43169SOL     OW35343   0.149   3.918  10.163  0.5991  0.4663 -0.2356
43169SOL    HW135344   0.148   3.855  10.091  3.4567 -1.5564  1.2551
43169SOL    HW235345   0.082   3.886  10.224  0.8772 -0.1859 -0.2595
43170SOL     OW35346   5.534   1.095  10.030 -0.0716 -0.3581  0.3588
43170SOL    HW135347   5.490   1.180  10.031 -3.2407 -1.8226 -1.2724
43170SOL    HW235348   5.614   1.110   9.979 -2.2847  1.0102 -2.9883
43171SOL     OW35349   9.442   2.396   0.949 -0.1304  0.1499  0.5155
43171SOL    HW135350   9.442   2.301   0.939  0.1321  0.0671  1.2668
43171SOL    HW235351   9.351   2.421   0.932  0.0482 -0.0902 -0.9114
43172SOL     OW35352  10.502   0.517   7.218 -0.0558 -0.1808  0.1056
43172SOL    HW135353  10.461   0.531   7.303  0.0322 -2.0474  0.5043
43172SOL    HW235354  10.493   0.601   7.173 -0.7759  0.6245  1.6588
43173SOL     OW35355   5.224   9.061   8.425  0.1726 -0.3070 -0.0329
43173SOL    HW135356   5.155   9.001   8.399  1.8694 -2.0878 -0.6149
43173SOL    HW235357   5.253   9.102   8.344 -0.5926  0.9441  0.2903
43174SOL     OW35358   7.415   6.131   3.116  0.0748  0.5333 -0.0284
43174SOL    HW135359   7.378   6.064   3.059 -0.8554  1.4254 -0.5110
43174SOL    HW235360   7.388   6.214   3.076  1.1961  1.2068  0.5479
43175SOL     OW35361   6.948  10.855   4.891 -0.1607  0.5640  0.1335
43175SOL    HW135362   6.954  10.906   4.810  0.5115 -1.7700 -1.4046
43175SOL    HW235363   6.854  10.837   4.900 -0.3378  1.5315  0.3804
43176SOL     OW35364   5.263   9.562  10.978  0.0526  0.2817  0.6729
43176SOL    HW135365   5.252   9.636  11.037 -0.9636  0.8080 -0.1485
43176SOL    HW235366   5.322   9.503  11.025 -2.5360 -0.4530  3.3010
43177SOL     OW35367   4.919   2.821   7.287  0.1179 -0.6836  0.0956
43177SOL    HW135368   4.925   2.728   7.267 -3.9196 -0.6352 -2.3859
43177SOL    HW235369   4.963   2.864   7.214  0.1439 -0.6433  0.1351
43178SOL     OW35370   1.683   9.501   4.875 -0.0797  0.0146  0.1447
43178SOL    HW135371   1.772   9.536   4.876  0.5000 -1.3544 -0.7237
43178SOL    HW235372   1.627   9.578   4.868  1.0307  0.8932  0.6141
43179SOL     OW35373  10.248   0.214   3.537 -0.0805 -0.7200 -0.2399
43179SOL    HW135374  10.168   0.251   3.499  0.7536  0.4249 -0.9490
43179SOL    HW235375  10.245   0.239   3.629 -0.3238 -0.3053 -0.3571
43180SOL     OW35376   6.152   4.340   9.176 -0.2584  0.0134 -0.0510
43180SOL    HW135377   6.218   4.271   9.188 -0.0680 -0.0989 -1.5514
43180SOL    HW235378   6.072   4.302   9.212 -0.1530 -1.0145 -0.8296
43181SOL     OW35379   0.700   0.651  10.521 -0.2724 -0.4005 -0.1520
43181SOL    HW135380   0.737   0.708  10.454  1.5570  0.7869  1.7194
43181SOL    HW235381   0.628   0.702  10.559 -0.2601 -0.3835 -0.1515
43182SOL     OW35382   7.236  11.687   2.999 -0.6415  0.2792 -0.2730
43182SOL    HW135383   7.320  11.694   3.044 -1.8857 -0.0350  2.2743
43182SOL    HW235384   7.256  11.643   2.916  1.7116  0.4604  0.1474
43183SOL     OW35385   8.031   1.128  10.191 -1.0610 -0.5726  0.2421
43183SOL    HW135386   8.004   1.220  10.186 -2.3071 -0.7861  2.1344
43183SOL    HW235387   8.111   1.129  10.243 -0.1130 -0.4450 -1.1465
43184SOL     OW35388   8.135  11.688   0.794  0.5153 -0.2372  0.0332
43184SOL    HW135389   8.097  11.718   0.876 -2.0008 -0.2988 -1.0122
43184SOL    HW235390   8.172  11.602   0.814 -0.3451 -0.3879  1.0267
43185SOL     OW35391   2.473   7.685   0.078 -0.2438 -0.4240  0.0255
43185SOL    HW135392   2.434   7.715  -0.005  0.2550 -0.9373 -0.4021
43185SOL    HW235393   2.431   7.740   0.145  0.0111  0.6286 -0.6491
43186SOL     OW35394   3.496   0.716   9.446  0.5106  0.4280  0.4085
43186SOL    HW135395   3.440   0.666   9.387  0.3001  0.7086  0.3663
43186SOL    HW235396   3.475   0.682   9.533  0.2648  0.5355  0.3939
43187SOL     OW35397  11.543   2.403   9.836 -0.0422  1.0287  0.0518
43187SOL    HW135398  11.465   2.373   9.883 -0.3806  1.2702 -0.3598
43187SOL    HW235399  11.515   2.483   9.792  0.2434  0.7329 -0.6667
43188SOL     OW35400  11.815   8.697   7.683 -0.2787 -0.0598 -0.6154
43188SOL    HW135401  11.751   8.627   7.675 -0.4098  0.1388 -1.2849
43188SOL    HW235402  11.819   8.715   7.777  0.1868 -1.3637 -0.3575
43189SOL     OW35403  12.252   6.464   1.352  0.2888 -0.8232 -0.0725
43189SOL    HW135404  12.174   6.514   1.378  1.4965  0.2010  1.8132
43189SOL    HW235405  12.293   6.518   1.285 -0.2031 -0.9908 -0.5175
43190SOL     OW35406  10.064   2.098  10.268 -0.1500 -0.0618  0.7782
43190SOL    HW135407  10.141   2.154  10.280 -0.9876  1.6042 -1.0669
43190SOL    HW235408  10.095   2.010  10.290  3.1759  0.0345 -2.6161
43191SOL     OW35409   4.565   3.345   3.847  0.4147  0.6070  0.4112
43191SOL    HW135410   4.657   3.358   3.822 -0.1576 -0.4293 -2.6962
43191SOL    HW235411   4.562   3.255   3.879  0.0218 -0.6129 -2.7287
43192SOL     OW35412  11.106   9.486   7.615 -0.2006 -0.9287  0.1401
43192SOL    HW135413  11.149   9.446   7.690  2.8164  2.3586  0.4286
43192SOL    HW235414  11.152   9.451   7.539 -0.5963 -1.3117  0.0719
43193SOL     OW35415  10.614   5.902   2.456 -0.3748 -0.1676  0.1429
43193SOL    HW135416  10.697   5.900   2.409 -0.4313  0.7935 -0.0155
43193SOL    HW235417  10.617   5.983   2.507 -1.5777  0.3336 -0.5529
43194SOL     OW35418   7.881   7.641   3.340 -0.5447 -0.2869  0.6984
43194SOL    HW135419   7.825   7.638   3.262  0.4150  0.0085 -0.0224
43194SOL    HW235420   7.932   7.560   3.336  1.7526  1.1034 -0.7467
43195SOL     OW35421   0.373   8.981   4.816  0.0127  0.1343  0.7001
43195SOL    HW135422   0.357   8.910   4.879 -1.1299  0.3700  0.6837
43195SOL    HW235423   0.287   9.020   4.801  0.4683  0.8565 -0.0968
43196SOL     OW35424   3.515   2.275   2.141 -0.5376  0.1100 -1.1676
43196SOL    HW135425   3.571   2.285   2.064  1.1201  1.2565  0.1302
43196SOL    HW235426   3.574   2.283   2.216 -2.2588  0.1808  0.2608
43197SOL     OW35427   3.470   6.663  10.709  0.1082  0.3685 -0.0943
43197SOL    HW135428   3.438   6.695  10.794  0.4398  0.6828 -0.0847
43197SOL    HW235429   3.565   6.664  10.718  0.2313 -3.9093  1.1502
43198SOL     OW35430   5.792  11.906   8.615  0.1872 -0.1629 -0.5482
43198SOL    HW135431   5.703  11.873   8.605  0.2666 -0.2663 -0.9672
43198SOL    HW235432   5.810  11.949   8.531 -0.0703  1.3366  0.1345
43199SOL     OW35433   4.841   9.357   5.190 -0.3070 -0.2462  0.1247
43199SOL    HW135434   4.842   9.439   5.141 -0.6618  0.2225  0.8905
43199SOL    HW235435   4.870   9.291   5.127  0.7845  0.5825 -0.2626
43200SOL     OW35436   4.640  10.960  10.391  0.0676 -0.1371 -0.1360
43200SOL    HW135437   4.700  11.033  10.373 -1.1934  0.8188 -0.5568
43200SOL    HW235438   4.639  10.954  10.487 -0.0804  0.6321 -0.0806
43201SOL     OW35439   7.228   0.916   6.958  0.2423  0.2571  0.0848
43201SOL    HW135440   7.315   0.884   6.935  0.7521  1.0515  0.8429
43201SOL    HW235441   7.240   1.010   6.971 -0.5049  0.2090  1.2355
43202SOL     OW35442   6.809  10.464   4.691  0.8653 -0.0144  0.3888
43202SOL    HW135443   6.751  10.389   4.671 -0.8204  1.0051  1.2227
43202SOL    HW235444   6.889  10.445   4.642  0.3581 -2.1773  0.2636
43203SOL     OW35445   3.024   6.953  10.584  0.0769 -0.0773 -0.0864
43203SOL    HW135446   3.079   7.032  10.585  1.4148 -0.9763 -0.5158
43203SOL    HW235447   3.078   6.885  10.625 -1.1318 -0.7424  0.4580
43204SOL     OW35448  10.453   2.375  10.235  0.5598  0.2794  0.4430
43204SOL    HW135449  10.503   2.311  10.184 -0.4640 -0.9622  0.9395
43204SOL    HW235450  10.501   2.382  10.318  0.8934  0.4766  0.2383
43205SOL     OW35451  10.410   6.858   1.175 -0.4429 -0.3662  0.3302
43205SOL    HW135452  10.397   6.939   1.124 -2.0724 -1.0148 -0.3759
43205SOL    HW235453  10.489   6.874   1.226 -0.2952  1.3807 -0.3670
43206SOL     OW35454  11.567   9.122   2.042 -0.0077  0.2663  0.3020
43206SOL    HW135455  11.475   9.105   2.024 -0.1752 -0.8371  1.9140
43206SOL    HW235456  11.607   9.035   2.047  0.6778  0.6145  1.6149
43207SOL     OW35457   1.180   2.971   5.185 -0.1996  0.4986  0.1322
43207SOL    HW135458   1.110   2.983   5.122 -0.6906 -0.0270  0.5729
43207SOL    HW235459   1.159   3.032   5.256  0.9759  1.9591 -0.7025
43208SOL     OW35460  10.669   6.605  10.698 -0.1060  0.0743  0.6561
43208SOL    HW135461  10.592   6.648  10.736 -1.3391  0.3531 -1.9262
43208SOL    HW235462  10.661   6.513  10.724 -0.7017  0.3225  1.3564
43209SOL     OW35463   9.670   5.969   6.482  0.0584  0.2312 -0.4433
43209SOL    HW135464   9.605   6.026   6.440 -0.5490 -1.2860 -1.6628
43209SOL    HW235465   9.687   5.900   6.417  1.2347 -0.6343  0.7273
43210SOL     OW35466   4.667  11.660   7.140 -0.1128  0.0756  0.1911
43210SOL    HW135467   4.655  11.569   7.169 -1.3236  0.0307 -0.3829
43210SOL    HW235468   4.711  11.703   7.213 -1.3341 -0.4945  1.2907
43211SOL     OW35469   4.389   0.011   4.112  0.3092  0.0176 -0.2659
43211SOL    HW135470   4.402  -0.037   4.030 -0.2638  0.8707 -0.8671
43211SOL    HW235471   4.438  -0.040   4.177 -0.4272 -1.5030 -0.8370
43212SOL     OW35472   4.383   1.382   2.118 -0.2920  0.5411 -0.1551
43212SOL    HW135473   4.472   1.394   2.150 -0.4344  0.4131  0.3010
43212SOL    HW235474   4.331   1.369   2.197 -0.3265 -1.9185 -0.4956
43213SOL     OW35475   8.098   5.617   2.936 -0.0148 -0.0997  0.2133
43213SOL    HW135476   8.013   5.632   2.896 -0.9529 -1.1991  1.7019
43213SOL    HW235477   8.082   5.550   3.003  1.7432  0.6132  1.4268
43214SOL     OW35478   8.986   0.392  11.314 -0.1006 -0.0600  0.2905
43214SOL    HW135479   8.906   0.376  11.363 -0.3019 -1.9382 -0.5580
43214SOL    HW235480   9.029   0.463  11.361 -0.7643 -1.0922  2.6038
43215SOL     OW35481   8.363   8.001   6.533  0.2064  0.0642 -0.0176
43215SOL    HW135482   8.443   8.051   6.516  0.0532  0.3252  0.0135
43215SOL    HW235483   8.347   8.011   6.627 -1.4275  2.4577 -0.4292
43216SOL     OW35484   7.522   3.879   7.671  0.3514  0.0284  0.4327
43216SOL    HW135485   7.616   3.864   7.682  0.4815  0.1837 -0.3760
43216SOL    HW235486   7.492   3.905   7.758  1.0834  0.1302  0.6690
43217SOL     OW35487   4.581  11.947   4.070  0.1691 -0.2652  0.7120
43217SOL    HW135488   4.629  11.932   4.151  0.9653  1.3677  0.5701
43217SOL    HW235489   4.490  11.928   4.093  0.7325 -2.8839  1.1255
43218SOL     OW35490   1.963   3.190  10.760  0.4560  0.1202  0.4822
43218SOL    HW135491   1.972   3.176  10.855  0.2726 -2.2839  0.2138
43218SOL    HW235492   2.047   3.164  10.724 -0.1260 -1.0163 -0.1436
43219SOL     OW35493  10.155   3.531  10.797  0.1135 -0.1583  0.2405
43219SOL    HW135494  10.082   3.471  10.783 -0.0202 -0.0843  0.6445
43219SOL    HW235495  10.155   3.549  10.891  0.5961 -0.0907  0.2316
43220SOL     OW35496   9.435  12.001   6.015  0.1126 -0.1470  0.1685
43220SOL    HW135497   9.513  12.041   5.977  0.5958 -1.0312  0.1910
43220SOL    HW235498   9.381  12.075   6.042 -0.0037  0.5088 -1.7271
43221SOL     OW35499   8.473   4.750   0.837  0.3803 -0.1226 -0.1881
43221SOL    HW135500   8.473   4.826   0.779 -0.1447 -0.1440 -0.2215
43221SOL    HW235501   8.448   4.677   0.780 -4.6772  0.4879  0.8189
43222SOL     OW35502  11.356   0.123   3.457  0.1807 -0.0242 -0.4132
43222SOL    HW135503  11.366   0.111   3.551  0.5653 -0.9699 -0.5596
43222SOL    HW235504  11.433   0.173   3.430 -1.1559  2.5071  0.1205
43223SOL     OW35505   7.330   9.116   7.341  0.1465 -0.3855  0.6201
43223SOL    HW135506   7.328   9.189   7.279  0.2805 -1.0102 -0.1314
43223SOL    HW235507   7.416   9.124   7.383 -0.1101  0.2835  1.0434
43224SOL     OW35508   7.280   3.023   4.625 -0.2805  0.1326  0.1018
43224SOL    HW135509   7.218   3.091   4.600  1.5732  1.4043 -1.4127
43224SOL    HW235510   7.256   3.000   4.715 -1.9423  1.6835  0.1107
43225SOL     OW35511   7.815   8.047   7.978  0.3173  0.3240  0.1181
43225SOL    HW135512   7.783   8.097   8.052 -0.0961  0.9246 -0.4534
43225SOL    HW235513   7.908   8.070   7.971  0.8862 -1.2934  1.6742
43226SOL     OW35514   5.348   2.380  12.142 -0.0219 -0.6798  0.0346
43226SOL    HW135515   5.381   2.304  12.190  1.9627  1.3477  2.1549
43226SOL    HW235516   5.352   2.452  12.205 -4.3414  0.7879 -1.0305
43227SOL     OW35517   1.046   6.768   4.763 -0.1983  0.2018  0.3121
43227SOL    HW135518   1.003   6.697   4.716 -0.0145  0.9092 -0.9973
43227SOL    HW235519   0.978   6.806   4.818 -0.6363 -0.1658  0.0304
43228SOL     OW35520   5.345   5.640  10.480  0.7380 -0.3296  0.5773
43228SOL    HW135521   5.292   5.633  10.560  0.7869  0.5963  0.7089
43228SOL    HW235522   5.341   5.733  10.458  0.0916 -0.6980 -0.9467
43229SOL     OW35523   4.518   1.685   5.137  0.1720 -0.1311 -0.2433
43229SOL    HW135524   4.566   1.619   5.187 -0.6707 -0.2521  0.4310
43229SOL    HW235525   4.477   1.740   5.204 -0.3469  0.1745 -0.8041
43230SOL     OW35526   1.428   4.803   0.755  1.0692  0.3826  0.0532
43230SOL    HW135527   1.506   4.857   0.765 -0.4212  2.9071 -0.9487
43230SOL    HW235528   1.407   4.807   0.662  0.1736 -0.8749  0.1784
43231SOL     OW35529   8.443  11.604   6.517 -0.4897  0.2245  0.1109
43231SOL    HW135530   8.494  11.646   6.448  1.1041 -0.9750  0.5180
43231SOL    HW235531   8.395  11.534   6.473 -0.6448  0.4028 -0.0106
43232SOL     OW35532  11.135   3.909   0.413 -1.0523  0.6786  0.0065
43232SOL    HW135533  11.135   3.922   0.508  1.6427  4.1475 -0.2476
43232SOL    HW235534  11.092   3.987   0.378 -1.4672 -0.2521 -1.6492
43233SOL     OW35535   1.894   4.624  10.952  0.0056 -0.1242  0.6517
43233SOL    HW135536   1.802   4.652  10.948 -0.4837 -1.6223  0.7934
43233SOL    HW235537   1.940   4.700  10.988 -1.3185  0.3686  1.3992
43234SOL     OW35538   8.226  10.329  11.838 -0.6007  0.3027  0.1061
43234SOL    HW135539   8.238  10.235  11.854  1.4226  0.6555  0.9519
43234SOL    HW235540   8.159  10.333  11.770  0.5029 -1.8227 -1.1965
43235SOL     OW35541  11.562   7.990   8.272 -0.0828 -0.5147  0.2781
43235SOL    HW135542  11.501   8.064   8.263 -2.5382 -2.4788 -0.2829
43235SOL    HW235543  11.602   8.002   8.358 -1.2964  0.8462  0.6835
43236SOL     OW35544   2.722   5.101   8.483  0.1361  0.7958  0.1106
43236SOL    HW135545   2.744   5.009   8.472 -0.5785  0.3924  1.7635
43236SOL    HW235546   2.807   5.146   8.484  0.4299  0.4605 -2.6472
43237SOL     OW35547   5.934  11.015   6.118 -0.5515 -0.9657  0.9071
43237SOL    HW135548   6.000  11.015   6.187 -0.5492 -0.1615  0.9068
43237SOL    HW235549   5.973  10.963   6.048  0.0810 -0.5119  0.9143
43238SOL     OW35550   2.913   4.730   4.302 -0.1491 -0.0393  0.1687
43238SOL    HW135551   2.950   4.755   4.387 -0.4924  1.8343 -0.1925
43238SOL    HW235552   2.822   4.706   4.321 -0.4562  1.1316  0.2526
43239SOL     OW35553  10.976   5.180   4.939  0.1306 -0.5104 -0.2367
43239SOL    HW135554  10.957   5.250   4.877 -1.3039 -0.5954  0.0664
43239SOL    HW235555  11.000   5.105   4.885 -1.1306 -0.5902 -0.7150
43240SOL     OW35556   9.974  10.540   4.472  0.3893  0.0614  0.3473
43240SOL    HW135557  10.038  10.502   4.533  1.9106 -1.0232 -1.7826
43240SOL    HW235558   9.916  10.467   4.449  0.1426  0.3236  0.1223
43241SOL     OW35559  11.263   5.402  11.944 -0.1192  0.1018 -0.4472
43241SOL    HW135560  11.334   5.341  11.922  1.1411  0.0608  2.9633
43241SOL    HW235561  11.303   5.488  11.937  0.7614  0.0477  2.3607
43242SOL     OW35562   9.311   1.186  11.568 -0.3620 -0.3545  0.5403
43242SOL    HW135563   9.219   1.157  11.571 -0.2233 -0.8024  0.5471
43242SOL    HW235564   9.361   1.105  11.558  0.1127 -0.2437  1.7965
43243SOL     OW35565   7.192   6.556   8.024 -0.6536  0.3087 -0.8510
43243SOL    HW135566   7.154   6.595   7.945  0.2541 -1.5406 -2.2704
43243SOL    HW235567   7.285   6.581   8.020  0.4908 -3.5019 -2.9832
43244SOL     OW35568   2.510  11.893   3.276 -0.2693 -0.0102 -0.2190
43244SOL    HW135569   2.476  11.845   3.351 -1.6840 -1.3717 -1.6286
43244SOL    HW235570   2.506  11.830   3.204  0.1923  1.4895 -1.6225
43245SOL     OW35571   9.051   4.448  11.115 -0.0755  0.0503  0.2308
43245SOL    HW135572   9.082   4.469  11.204  0.6978 -0.6335  0.1350
43245SOL    HW235573   9.005   4.366  11.125 -0.4013  0.2150  0.0766
43246SOL     OW35574   1.957   7.627  11.019  0.7720  0.4227 -0.4795
43246SOL    HW135575   2.007   7.651  11.097  1.6404  0.0888 -0.9261
43246SOL    HW235576   1.973   7.533  11.008  1.9287  0.7631 -1.9441
43247SOL     OW35577   0.192   5.833   4.223 -0.6397  0.1544  0.2811
43247SOL    HW135578   0.272   5.858   4.270 -0.8775  0.6340  0.4449
43247SOL    HW235579   0.183   5.739   4.239  0.4270 -0.1161 -0.5712
43248SOL     OW35580   3.710   3.720   5.142  0.3135 -0.1625  0.4969
43248SOL    HW135581   3.773   3.789   5.120  0.0362  0.2528  0.9957
43248SOL    HW235582   3.763   3.654   5.187  0.4499  0.0540  0.6566
43249SOL     OW35583   5.289   5.579   6.961 -0.0384  0.2056  0.1591
43249SOL    HW135584   5.252   5.540   6.881  1.6330 -0.7745 -0.1807
43249SOL    HW235585   5.232   5.654   6.979 -2.0104 -1.0596 -0.4664
43250SOL     OW35586   1.038   6.063   1.521 -0.3322 -0.7237  0.2200
43250SOL    HW135587   1.129   6.037   1.539 -0.4378  0.0359  2.0755
43250SOL    HW235588   1.045   6.151   1.484 -0.3618  0.0024  1.8864
43251SOL     OW35589   4.176   0.281  12.051 -0.0349  0.6220 -0.4753
43251SOL    HW135590   4.081   0.288  12.065  0.0157  0.5231 -0.0687
43251SOL    HW235591   4.185   0.265  11.958 -0.3355  2.6264 -0.9010
43252SOL     OW35592   0.267  12.178   3.918 -0.0501 -0.1704 -0.2604
43252SOL    HW135593   0.223  12.201   3.836 -0.8776 -1.5061 -0.2143
43252SOL    HW235594   0.281  12.263   3.961  1.5431  0.6949 -2.3097
43253SOL     OW35595   8.426   3.198   6.905 -0.2553 -0.0677  0.4916
43253SOL    HW135596   8.341   3.213   6.947  0.1923 -1.9413  2.2047
43253SOL    HW235597   8.486   3.256   6.952 -0.4284  0.6952 -0.2095
43254SOL     OW35598   1.493   6.541   9.391 -0.4209 -0.0223  0.2046
43254SOL    HW135599   1.480   6.629   9.424 -0.1490 -0.4539  1.5062
43254SOL    HW235600   1.506   6.487   9.469  0.5910 -1.0216 -0.6154
43255SOL     OW35601   2.342   2.575   5.615 -0.0309  0.6534 -0.3660
43255SOL    HW135602   2.247   2.561   5.615  0.1819 -0.9939 -0.3253
43255SOL    HW235603   2.354   2.658   5.569 -1.4129  0.3240 -1.3888
43256SOL     OW35604   1.473   6.054   0.890 -0.6062  0.0395  0.0368
43256SOL    HW135605   1.425   6.123   0.935 -0.8365  1.6180 -2.4324
43256SOL    HW235606   1.476   5.982   0.953 -0.5725  2.1619  2.6673
43257SOL     OW35607   7.533   9.904   6.856  0.6056 -0.5264  0.2357
43257SOL    HW135608   7.562   9.928   6.944  0.2732  0.4483  0.0815
43257SOL    HW235609   7.480   9.825   6.870 -0.5213  0.3393  1.0899
43258SOL     OW35610  11.950   2.485  11.853  0.2323  0.0087 -0.2931
43258SOL    HW135611  11.905   2.567  11.833  1.7371  0.4384 -2.1382
43258SOL    HW235612  12.013   2.509  11.921 -0.6824 -0.0974  0.6240
43259SOL     OW35613   9.103   9.318   4.636 -0.3430 -0.0214 -0.0274
43259SOL    HW135614   9.047   9.307   4.714 -0.9207 -0.2051 -0.4583
43259SOL    HW235615   9.174   9.375   4.665 -0.7973  0.2776  0.5156
43260SOL     OW35616   4.023   1.532   2.357  0.3457 -0.5088 -0.1844
43260SOL    HW135617   3.997   1.578   2.277  2.1042  0.7121 -0.1404
43260SOL    HW235618   3.943   1.492   2.390 -0.7128  0.2122 -1.7642
43261SOL     OW35619   1.511   4.183  10.871  0.0317 -0.1363  0.4854
43261SOL    HW135620   1.452   4.141  10.808  0.9811  0.8421 -1.1406
43261SOL    HW235621   1.598   4.160  10.840  0.5859 -1.6500  2.9173
43262SOL     OW35622  10.753   3.829  11.065  0.3710  0.8076 -0.2840
43262SOL    HW135623  10.695   3.759  11.094 -1.4849  1.6806 -1.6469
43262SOL    HW235624  10.825   3.784  11.022  0.9767 -0.3224  1.7949
43263SOL     OW35625  11.494   2.210   8.218 -0.6044 -0.3132  0.0169
43263SOL    HW135626  11.452   2.278   8.165  1.3834  1.3475  0.4076
43263SOL    HW235627  11.476   2.236   8.308 -2.1114 -1.8814  0.1979
43264SOL     OW35628   4.941   9.041  10.912  0.0704  0.3594 -0.7920
43264SOL    HW135629   4.918   8.965  10.857 -0.1975  0.6585 -1.0963
43264SOL    HW235630   4.998   9.005  10.980 -0.6386 -0.2429 -0.5099
43265SOL     OW35631  11.139   1.235   9.657 -0.0190  0.0280  0.0917
43265SOL    HW135632  11.194   1.312   9.657 -0.6041  0.4556 -0.1383
43265SOL    HW235633  11.067   1.257   9.598  0.0050 -0.8362 -0.2678
43266SOL     OW35634   3.699   6.662   6.137  0.2248  0.3980 -0.1945
43266SOL    HW135635   3.764   6.596   6.114  1.3384  1.4344 -0.0789
43266SOL    HW235636   3.667   6.635   6.223 -0.3812 -0.7653 -0.7616
43267SOL     OW35637   7.353   6.830  12.195 -0.1601 -0.6154 -0.1530
43267SOL    HW135638   7.263   6.862  12.200 -0.3865 -1.2437 -0.0849
43267SOL    HW235639   7.344   6.735  12.184  0.5069 -0.8637  1.3044
43268SOL     OW35640   6.760   8.447   0.153 -0.2613  0.0987  0.2355
43268SOL    HW135641   6.830   8.421   0.212  0.0898  0.9503  0.2172
43268SOL    HW235642   6.725   8.365   0.119  0.2063 -0.3627  0.8456
43269SOL     OW35643  12.082   8.324   8.094  0.2169 -0.0617  0.2401
43269SOL    HW135644  12.082   8.395   8.159  1.3400  1.5473 -1.4162
43269SOL    HW235645  11.993   8.289   8.098  0.5179 -0.8227  3.3886
43270SOL     OW35646   4.416   1.981   9.062  0.2480 -0.1098 -0.2473
43270SOL    HW135647   4.404   2.066   9.020 -1.9047  0.5788  1.5380
43270SOL    HW235648   4.484   1.996   9.128 -0.6319  0.4968  0.5613
43271SOL     OW35649   6.130   5.657  10.394 -0.0264 -0.6020  0.2781
43271SOL    HW135650   6.054   5.715  10.391  0.8790  0.5627 -1.1798
43271SOL    HW235651   6.127   5.608  10.312  0.8622 -0.4513  0.1427
43272SOL     OW35652  10.292   2.828   4.133  0.4898 -0.4887 -0.2597
43272SOL    HW135653  10.268   2.921   4.131 -0.2423 -0.6627  0.0704
43272SOL    HW235654  10.284   2.799   4.043  4.3794  0.6275 -1.1570
43273SOL     OW35655   2.803   9.105   1.182 -0.2545  0.1276 -0.0510
43273SOL    HW135656   2.710   9.105   1.156 -0.5070  2.5875  0.6158
43273SOL    HW235657   2.803   9.071   1.271 -0.4975 -0.0532 -0.1192
43274SOL     OW35658   8.409   0.935   7.319 -0.3907  0.8205  0.0163
43274SOL    HW135659   8.414   1.031   7.328  0.8393  0.6444  1.8099
43274SOL    HW235660   8.317   0.917   7.303 -1.0851  2.1926  2.0196
43275SOL     OW35661   3.077  11.165   2.758  0.2229  0.1196  0.4570
43275SOL    HW135662   3.045  11.208   2.838 -0.0151 -0.2621  0.5697
43275SOL    HW235663   3.022  11.087   2.749  2.1796 -1.5115  1.6299
43276SOL     OW35664   3.042   0.711  12.109  0.1319 -0.2190 -0.2826
43276SOL    HW135665   3.031   0.797  12.149  0.4416  0.0697 -0.8051
43276SOL    HW235666   3.083   0.658  12.177  0.8918  0.3409 -0.2805
43277SOL     OW35667   4.239   7.989   1.049  0.3093 -0.5949 -0.3534
43277SOL    HW135668   4.268   8.074   1.015  0.3420 -0.3759  0.1967
43277SOL    HW235669   4.148   7.981   1.019  0.5153 -0.6657 -0.9550
43278SOL     OW35670   8.781   6.861   7.928  0.7084 -0.4521 -0.1619
43278SOL    HW135671   8.756   6.864   8.020 -1.1553 -1.8704 -0.5585
43278SOL    HW235672   8.706   6.899   7.882  2.1619  1.4512 -1.0443
43279SOL     OW35673   5.904  11.703   1.134  0.0569 -0.2927  0.5174
43279SOL    HW135674   5.835  11.729   1.072 -0.9878 -0.5861  1.5273
43279SOL    HW235675   5.925  11.613   1.108 -0.5731 -0.5125  0.7440
43280SOL     OW35676  10.436   2.275   5.326  0.3417  0.2938  1.1986
43280SOL    HW135677  10.420   2.362   5.288  1.4426 -0.8193 -2.2630
43280SOL    HW235678  10.348   2.237   5.336 -0.0661  1.1086  0.8487
43281SOL     OW35679   7.034   4.885  12.305  0.3757  0.0955  0.7613
43281SOL    HW135680   6.999   4.804  12.271 -0.3384 -0.7297  3.2291
43281SOL    HW235681   7.020   4.949  12.235  0.3632 -1.7171 -0.9812
43282SOL     OW35682   4.710   2.370   1.348 -0.1908  0.3087  0.2714
43282SOL    HW135683   4.782   2.434   1.349  0.8725 -0.8377 -0.0473
43282SOL    HW235684   4.750   2.290   1.314 -1.9943  0.0584 -1.4267
43283SOL     OW35685   5.415   6.049   6.134  0.0041  0.0321 -0.0766
43283SOL    HW135686   5.382   6.139   6.123  0.5321  0.6019  2.3711
43283SOL    HW235687   5.506   6.053   6.104  0.3732  0.6459  1.0517
43284SOL     OW35688   8.616   3.532   3.448 -0.2885 -0.5045  0.2317
43284SOL    HW135689   8.541   3.475   3.462  0.2770 -1.2610  0.2385
43284SOL    HW235690   8.631   3.529   3.353 -1.4633  1.2110 -0.0573
43285SOL     OW35691   2.748   3.512   9.501  0.6240  0.2763  0.4552
43285SOL    HW135692   2.816   3.554   9.449  0.4770  0.6116  0.5331
43285SOL    HW235693   2.750   3.558   9.585 -0.5986  1.1956  0.0131
43286SOL     OW35694   7.453   6.996   5.963 -0.2132 -0.6656 -0.1597
43286SOL    HW135695   7.457   7.058   6.036  0.4841  0.0839 -0.8088
43286SOL    HW235696   7.532   6.943   5.973 -0.2335 -0.7099 -0.2397
43287SOL     OW35697   0.509   6.901   4.487  0.2879 -0.3026  0.0019
43287SOL    HW135698   0.575   6.971   4.491  0.1169 -0.1528  0.2973
43287SOL    HW235699   0.539   6.843   4.418  0.8325 -0.3337  0.2610
43288SOL     OW35700   2.072  11.807   8.944 -1.1760 -0.2890 -0.1238
43288SOL    HW135701   2.139  11.867   8.975 -0.5294 -0.7789 -0.5556
43288SOL    HW235702   1.996  11.863   8.924 -1.1258  0.1850  0.9826
43289SOL     OW35703   9.763   8.985   1.301 -0.5559  0.0442  0.2721
43289SOL    HW135704   9.720   8.997   1.216 -0.3092  1.2651  0.3103
43289SOL    HW235705   9.854   8.965   1.279 -0.2940  1.1839  0.2361
43290SOL     OW35706   2.459   8.155   5.595 -0.3561  0.1658 -0.1942
43290SOL    HW135707   2.495   8.127   5.510 -0.4743 -0.1215 -0.1506
43290SOL    HW235708   2.531   8.203   5.636  0.8387 -2.3863  0.8985
43291SOL     OW35709   1.040   7.571   2.489 -0.6393 -0.0850 -0.3444
43291SOL    HW135710   0.969   7.521   2.529  0.5085 -0.9820  0.6238
43291SOL    HW235711   1.055   7.529   2.405 -0.7187 -0.4115 -0.1976
43292SOL     OW35712   4.821   0.375  11.878 -0.0876 -0.2274  0.5322
43292SOL    HW135713   4.726   0.367  11.881 -0.0010 -1.2366  1.6910
43292SOL    HW235714   4.848   0.371  11.970  1.1266 -0.9576  0.1756
43293SOL     OW35715  11.555   4.907  11.845  0.2666  0.5387  0.1637
43293SOL    HW135716  11.624   4.870  11.790 -1.8240 -1.3649 -1.3470
43293SOL    HW235717  11.594   4.913  11.932  2.0967 -1.2028 -0.4644
43294SOL     OW35718   2.474   5.304   9.056 -0.7698 -0.7329 -0.3858
43294SOL    HW135719   2.496   5.231   8.997 -0.5047 -0.6427 -0.4012
43294SOL    HW235720   2.448   5.261   9.137 -0.9192 -0.8538 -0.4965
43295SOL     OW35721   1.232   3.621   2.469  0.0169 -0.3029  0.4128
43295SOL    HW135722   1.148   3.637   2.511 -0.5414 -0.9376 -0.4526
43295SOL    HW235723   1.228   3.530   2.440  0.0908  0.3145 -1.6953
43296SOL     OW35724   8.093   9.503   9.150 -0.3178 -0.1483  0.4324
43296SOL    HW135725   8.083   9.429   9.091  2.7474 -0.3024 -0.0615
43296SOL    HW235726   8.004   9.523   9.179 -1.5884 -2.0239 -1.8118
43297SOL     OW35727   9.436   3.289   3.378 -0.2706  0.0024 -0.6318
43297SOL    HW135728   9.356   3.271   3.428 -0.1161  0.0461 -0.3694
43297SOL    HW235729   9.504   3.300   3.444  0.0233 -0.3745 -0.8672
43298SOL     OW35730   0.347   9.331   9.422 -0.5943  0.2268  0.0090
43298SOL    HW135731   0.405   9.353   9.494 -0.0723  0.0813 -0.3650
43298SOL    HW235732   0.291   9.261   9.456  0.0806 -0.2900  0.0630
43299SOL     OW35733   4.591  11.274   9.013 -0.5743  0.1477  0.3915
43299SOL    HW135734   4.633  11.349   9.057  0.5109 -0.1243 -0.1582
43299SOL    HW235735   4.512  11.311   8.975 -0.4367  0.8568  0.7612
43300SOL     OW35736   2.226   7.755  11.136  0.0760  0.4748 -0.1322
43300SOL    HW135737   2.209   7.769  11.229  1.0589  1.5648 -0.0857
43300SOL    HW235738   2.317   7.727  11.132 -0.5307 -1.5943 -0.6393
43301SOL     OW35739   1.720   0.118   5.962  0.3738  0.7910 -0.0619
43301SOL    HW135740   1.788   0.102   5.896 -0.7542 -1.3796 -0.8138
43301SOL    HW235741   1.642   0.140   5.911 -0.0454  1.0023  0.6637
43302SOL     OW35742  10.288  11.861   3.049  0.0218  0.3712 -0.0370
43302SOL    HW135743  10.366  11.807   3.040  1.8813  2.4918  2.1342
43302SOL    HW235744  10.265  11.885   2.959  2.1196  0.0112 -0.7250
43303SOL     OW35745   6.571   2.418   4.801  0.1388 -1.0826 -0.5209
43303SOL    HW135746   6.540   2.328   4.811 -1.3405 -0.4806  0.7040
43303SOL    HW235747   6.491   2.471   4.805  0.8949  0.2604 -1.9556
43304SOL     OW35748   1.361  10.438   8.922  0.2694 -0.1344  0.3808
43304SOL    HW135749   1.313  10.449   9.005 -1.1937 -1.0514 -0.3129
43304SOL    HW235750   1.368  10.344   8.910 -0.7477 -0.0567 -1.1774
43305SOL     OW35751   0.772  11.198  11.245 -0.4261 -0.1008 -0.2168
43305SOL    HW135752   0.796  11.106  11.235 -0.0475  0.0720 -0.9353
43305SOL    HW235753   0.775  11.213  11.340 -1.9652 -1.2054  0.0533
43306SOL     OW35754   3.203   7.307  12.066  0.0776 -0.0723 -0.0788
43306SOL    HW135755   3.264   7.299  12.140  0.9821  2.0307 -0.5161
43306SOL    HW235756   3.234   7.244  12.002 -0.0558 -1.1533  0.8970
43307SOL     OW35757  10.228   2.057   6.945  0.3903  0.1199  0.1296
43307SOL    HW135758  10.287   2.131   6.961  0.6324  0.5114 -2.3009
43307SOL    HW235759  10.286   1.986   6.918 -0.0030 -0.4398  0.7331
43308SOL     OW35760   5.860   6.409   9.602  0.4222 -0.5111  0.3337
43308SOL    HW135761   5.780   6.371   9.568  0.4026 -0.3539  0.1993
43308SOL    HW235762   5.906   6.337   9.644 -1.0780 -0.0804  2.8898
43309SOL     OW35763   5.765   9.926   0.111 -0.3449  0.0744  0.3558
43309SOL    HW135764   5.789  10.016   0.087  0.3321 -0.3080 -0.4663
43309SOL    HW235765   5.672   9.920   0.089 -0.6086  0.8204  1.2072
43310SOL     OW35766   7.137   2.299   2.350 -0.0451 -0.0349 -0.2085
43310SOL    HW135767   7.094   2.267   2.271 -2.1798 -0.0682  0.8798
43310SOL    HW235768   7.152   2.392   2.334  1.8396 -0.5199 -1.5589
43311SOL     OW35769   8.096   5.245   8.489 -0.0591  0.2426  0.0872
43311SOL    HW135770   8.054   5.304   8.551 -2.2207 -1.5688  0.5067
43311SOL    HW235771   8.180   5.285   8.469 -0.8327  2.6871  1.4116
43312SOL     OW35772   7.370   3.650   2.321 -0.1754  0.4034 -0.6687
43312SOL    HW135773   7.460   3.643   2.351 -0.4361 -0.8557 -0.1194
43312SOL    HW235774   7.372   3.624   2.229  0.0250  0.3734 -0.6547
43313SOL     OW35775   1.538   6.388  10.131 -0.0018  0.0499 -0.1716
43313SOL    HW135776   1.572   6.464  10.083 -0.2399  1.5558  1.8713
43313SOL    HW235777   1.445   6.385  10.109  0.2198 -0.3425 -1.0978
43314SOL     OW35778   3.935  10.872   9.710  0.6679 -0.0016 -0.1229
43314SOL    HW135779   3.920  10.802   9.646  0.9670  2.4874 -3.1295
43314SOL    HW235780   3.859  10.930   9.701  0.7595  0.4854  1.7942
43315SOL     OW35781   7.359   8.882   3.572  0.5255 -0.0861  0.0457
43315SOL    HW135782   7.280   8.836   3.602 -0.4128  1.1594 -0.4359
43315SOL    HW235783   7.428   8.848   3.629 -0.4998 -0.6112  1.0453
43316SOL     OW35784   7.392   6.346   1.766 -0.1252 -0.1630  0.3739
43316SOL    HW135785   7.303   6.314   1.750 -0.8952  1.5658  0.9791
43316SOL    HW235786   7.392   6.370   1.859  0.8045  0.3658  0.2448
43317SOL     OW35787  11.653   5.124   6.304  0.6258 -0.5713  0.2965
43317SOL    HW135788  11.584   5.190   6.299  0.5778 -0.6197  0.3268
43317SOL    HW235789  11.633   5.075   6.383 -0.7028 -2.1415 -0.9471
43318SOL     OW35790   2.567   1.631   1.962  0.3361 -0.1860  0.4374
43318SOL    HW135791   2.630   1.657   2.029 -0.3833 -1.0062  1.4732
43318SOL    HW235792   2.490   1.684   1.980  0.1211 -0.4455  0.2932
43319SOL     OW35793  10.240   3.805   5.908  0.8518  0.4067  0.2274
43319SOL    HW135794  10.304   3.838   5.970  1.6804 -0.8053  0.0638
43319SOL    HW235795  10.225   3.714   5.935  3.3884 -1.1347 -2.9087
43320SOL     OW35796   4.044   9.201   7.782 -0.3568  0.2072  0.8376
43320SOL    HW135797   3.998   9.129   7.738  0.2365  0.4325 -0.1786
43320SOL    HW235798   4.079   9.161   7.862  0.3088 -0.7643  0.1011
43321SOL     OW35799   6.588   6.337   1.457  0.1636 -0.4111  0.5024
43321SOL    HW135800   6.576   6.255   1.410 -0.6507 -0.1464  0.2236
43321SOL    HW235801   6.681   6.357   1.448 -0.3612  1.0508 -3.3935
43322SOL     OW35802   0.560   4.109   6.061 -0.0085  0.5022  0.3612
43322SOL    HW135803   0.570   4.204   6.070  0.5733  0.5327 -0.4647
43322SOL    HW235804   0.526   4.097   5.972  0.8255 -0.1007  0.1058
43323SOL     OW35805   8.510   4.808   0.352  0.3853 -0.0509 -0.1477
43323SOL    HW135806   8.562   4.766   0.283 -0.7818  0.8157 -1.6050
43323SOL    HW235807   8.503   4.899   0.325  1.4327  0.7598  2.0950
43324SOL     OW35808   0.660   4.903   8.858  0.5713 -0.5307  0.2800
43324SOL    HW135809   0.734   4.868   8.809 -1.0802 -1.3636 -1.7822
43324SOL    HW235810   0.587   4.844   8.837 -0.7981  0.4830  1.8905
43325SOL     OW35811   2.679   9.800   8.999 -0.4680  0.0999 -0.3549
43325SOL    HW135812   2.733   9.771   8.926 -2.2963  0.8569 -2.0938
43325SOL    HW235813   2.677   9.896   8.991 -1.9969  0.0936 -0.3134
43326SOL     OW35814   2.318   2.005  10.153  0.0180  0.0575 -0.1579
43326SOL    HW135815   2.291   2.051  10.233 -0.2519  2.0947 -1.3598
43326SOL    HW235816   2.383   2.061  10.114  0.1343 -0.9085 -1.4063
43327SOL     OW35817  10.360   0.529   5.777 -0.0610  0.5837  0.0042
43327SOL    HW135818  10.272   0.501   5.801 -0.2121  1.8973  1.1096
43327SOL    HW235819  10.373   0.610   5.826  1.8975  0.2221  0.1549
43328SOL     OW35820  11.196   0.033   5.610  0.3077 -0.5637  0.0941
43328SOL    HW135821  11.235  -0.004   5.531  0.4412  1.0708 -0.6395
43328SOL    HW235822  11.137   0.101   5.579 -0.9521 -1.0467  1.3373
43329SOL     OW35823   1.629   5.538   9.682  0.1542  0.0231 -1.1170
43329SOL    HW135824   1.716   5.505   9.658 -0.3378 -1.6168 -0.8138
43329SOL    HW235825   1.604   5.485   9.758 -1.1533  0.3829 -1.2772
43330SOL     OW35826   7.940   8.060   3.878  0.0548 -0.3108  0.2217
43330SOL    HW135827   8.009   8.078   3.942 -0.6060 -1.3630  1.2829
43330SOL    HW235828   7.983   8.010   3.809  0.6823  0.4255  0.0736
43331SOL     OW35829   2.048   2.238   6.881  0.3372 -0.1882  0.3356
43331SOL    HW135830   1.992   2.160   6.879 -0.0845  0.1270 -1.2972
43331SOL    HW235831   2.128   2.212   6.835  0.5900  0.0555  0.6337
43332SOL     OW35832   8.495   9.020   0.652 -0.5837  0.4986 -0.2958
43332SOL    HW135833   8.511   9.013   0.746 -1.4493 -1.3901 -0.2485
43332SOL    HW235834   8.505   8.930   0.619  0.3640  1.2293 -2.1314
43333SOL     OW35835   9.758   3.055   5.585  0.4118 -0.1926  0.7740
43333SOL    HW135836   9.767   3.138   5.633  2.3631 -1.1827  2.2594
43333SOL    HW235837   9.827   3.057   5.520 -0.5296 -0.0213 -0.2501
43334SOL     OW35838   5.973   3.106   2.459  0.2568  0.0713  0.1588
43334SOL    HW135839   6.051   3.152   2.490  0.2639  0.6298 -0.6512
43334SOL    HW235840   5.951   3.149   2.376 -1.7422  0.8965  1.0361
43335SOL     OW35841   9.574   8.364   1.305  0.3194 -0.4875 -0.4077
43335SOL    HW135842   9.600   8.278   1.272  0.6172 -0.1495 -1.0955
43335SOL    HW235843   9.572   8.419   1.227 -0.7514 -0.0801 -0.1032
43336SOL     OW35844   4.258   2.763   1.908 -0.4629  0.3784  0.1060
43336SOL    HW135845   4.336   2.708   1.911 -1.1522 -0.6771 -0.4374
43336SOL    HW235846   4.291   2.852   1.901  0.6967 -0.0914 -0.8117
43337SOL     OW35847   9.822   3.679   4.416 -0.3360 -0.1801  0.2946
43337SOL    HW135848   9.805   3.671   4.322  0.9226 -1.1099  0.1211
43337SOL    HW235849   9.870   3.600   4.438  1.0461  0.9035  1.3248
43338SOL     OW35850   7.875   4.590   1.820  0.7546  0.4042  0.1636
43338SOL    HW135851   7.896   4.533   1.895  0.7838  0.6465  0.3390
43338SOL    HW235852   7.817   4.656   1.856  0.9316  0.6392  0.0165
43339SOL     OW35853   7.575   2.970   5.250  0.0001 -0.0512 -0.0963
43339SOL    HW135854   7.665   2.979   5.217  0.1914 -0.7669  0.1966
43339SOL    HW235855   7.520   2.973   5.171  0.2035  1.1891 -0.2120
43340SOL     OW35856   0.580  10.891   7.811  0.0979 -0.0903 -0.2445
43340SOL    HW135857   0.633  10.812   7.796  0.1265 -0.4801  1.7195
43340SOL    HW235858   0.643  10.962   7.806  0.1703 -0.2194 -1.4605
43341SOL     OW35859  10.908   3.517  11.477  0.0881 -0.0913 -0.1210
43341SOL    HW135860  10.892   3.461  11.401 -2.0458  0.0398  0.1856
43341SOL    HW235861  10.897   3.606  11.445  1.4569  0.0926 -0.1429
43342SOL     OW35862   0.487   6.897   3.415 -0.0927  0.2496 -0.2139
43342SOL    HW135863   0.460   6.909   3.324  1.7155  2.6727 -0.5135
43342SOL    HW235864   0.580   6.919   3.416  0.3923 -1.5027  1.9354
43343SOL     OW35865   3.763   7.720   5.958 -0.4840  0.4191 -0.0614
43343SOL    HW135866   3.712   7.797   5.982 -2.1134 -0.0585 -1.7581
43343SOL    HW235867   3.779   7.730   5.864  1.0250 -0.3571  0.0740
43344SOL     OW35868   7.331  10.517   9.984 -0.2492 -0.2441  0.1668
43344SOL    HW135869   7.239  10.523   9.958 -0.3495  0.6670  0.7163
43344SOL    HW235870   7.333  10.448  10.050 -1.1474  1.9533  2.6582
43345SOL     OW35871  10.093   8.116   5.235 -0.1376 -0.1156 -0.0515
43345SOL    HW135872  10.025   8.109   5.169  0.9938 -1.9096 -1.1013
43345SOL    HW235873  10.052   8.087   5.316 -0.5022 -1.7554 -0.7889
43346SOL     OW35874   9.946   9.678   8.175  0.2024 -0.3972 -0.0432
43346SOL    HW135875   9.875   9.640   8.227 -0.8316 -1.1495 -1.9020
43346SOL    HW235876   9.911   9.681   8.086  2.4366 -0.5773 -0.9846
43347SOL     OW35877  10.867   1.445  11.297 -0.7902  0.1304  0.3252
43347SOL    HW135878  10.918   1.364  11.288 -0.1524  0.2223  2.5284
43347SOL    HW235879  10.801   1.439  11.227  1.6875 -0.3658 -2.1686
43348SOL     OW35880   8.682   3.624   9.082  0.0603  0.7089 -0.6025
43348SOL    HW135881   8.713   3.602   8.995 -1.3834  0.6146 -1.1292
43348SOL    HW235882   8.756   3.666   9.125  0.9729  0.2276 -1.6694
43349SOL     OW35883   1.234   7.496   0.641 -0.2851  0.2399 -0.7783
43349SOL    HW135884   1.283   7.539   0.570 -0.5243  1.0966 -0.4376
43349SOL    HW235885   1.292   7.504   0.717 -1.3997  2.3188 -0.0794
43350SOL     OW35886   4.541   2.145   2.089 -0.2977 -0.5502 -0.2593
43350SOL    HW135887   4.472   2.078   2.093 -0.2051 -0.6877 -0.8194
43350SOL    HW235888   4.505   2.213   2.033  0.0841 -0.7056 -0.7018
43351SOL     OW35889   1.923   8.783  11.678  0.5473 -0.3173  0.5082
43351SOL    HW135890   2.017   8.780  11.696  0.2115 -0.6150  2.4022
43351SOL    HW235891   1.883   8.811  11.760 -1.0221  0.0072 -0.3209
43352SOL     OW35892   6.032  11.098   0.480  0.3064 -0.5825  0.0259
43352SOL    HW135893   5.985  11.047   0.545 -0.2712 -1.0835 -0.7690
43352SOL    HW235894   6.122  11.064   0.483 -0.0983 -1.7539 -0.5883
43353SOL     OW35895   7.358   7.996   4.724  0.2654 -0.1242 -0.0346
43353SOL    HW135896   7.320   8.014   4.638  0.8509  0.2141 -0.2295
43353SOL    HW235897   7.391   8.081   4.754  2.4760 -0.6783 -0.6792
43354SOL     OW35898   5.939  10.857  11.553 -0.1734  0.0078 -1.0896
43354SOL    HW135899   5.855  10.848  11.598  0.7839 -1.7511  0.4847
43354SOL    HW235900   5.955  10.951  11.551 -0.9208  0.2444  1.1250
43355SOL     OW35901  10.066   3.572   7.012 -0.4304 -0.0344 -0.4183
43355SOL    HW135902  10.130   3.623   7.062  1.2865 -3.0074  0.6927
43355SOL    HW235903   9.991   3.631   7.000  1.5002  2.7565  0.4408
43356SOL     OW35904   6.399   6.161   0.852  0.6812 -0.0406  0.0310
43356SOL    HW135905   6.443   6.226   0.906  0.4965 -1.1688  1.5872
43356SOL    HW235906   6.465   6.135   0.787  1.4252  0.2164  0.6683
43357SOL     OW35907   8.653   7.803   1.081  0.2144  0.0170 -0.4140
43357SOL    HW135908   8.723   7.761   1.031 -0.2877 -1.0386 -0.2575
43357SOL    HW235909   8.577   7.800   1.023 -0.4910 -1.6135  0.5133
43358SOL     OW35910  10.999   8.891   8.350  0.2669 -0.0160 -0.3261
43358SOL    HW135911  11.017   8.982   8.327 -1.7762  1.3360  2.7834
43358SOL    HW235912  11.083   8.858   8.383  0.8046  1.0225 -0.6075
43359SOL     OW35913  11.772  10.539   1.434  0.0363 -0.3111  0.4232
43359SOL    HW135914  11.713  10.547   1.360 -0.1712  0.4199  0.6513
43359SOL    HW235915  11.787  10.445   1.444 -0.9574 -0.4928  0.2619
43360SOL     OW35916  10.129   5.077   5.382 -0.0365  0.1216 -0.2673
43360SOL    HW135917  10.178   4.999   5.356 -1.8627 -1.5346  1.0369
43360SOL    HW235918  10.056   5.081   5.320 -1.1430 -0.4958  0.9469
43361SOL     OW35919   9.476   1.518   5.106  0.4513  0.1969 -0.0822
43361SOL    HW135920   9.463   1.533   5.200 -1.3566  1.3983 -0.4700
43361SOL    HW235921   9.450   1.427   5.092 -1.9708  0.7960  0.1931
43362SOL     OW35922   0.672   0.604   4.506 -0.7320  0.5647 -0.5385
43362SOL    HW135923   0.746   0.664   4.498  0.2391 -0.4455  0.5795
43362SOL    HW235924   0.619   0.641   4.577 -1.6163  1.5674 -1.6756
43363SOL     OW35925   2.806   3.814   5.285 -0.2695 -0.4195  0.5702
43363SOL    HW135926   2.901   3.812   5.280 -0.3318 -0.6724 -1.8109
43363SOL    HW235927   2.781   3.725   5.309  0.0908 -0.6345  0.1697
43364SOL     OW35928   2.797   7.612   6.688 -0.5536  0.2832 -0.0700
43364SOL    HW135929   2.849   7.545   6.732 -1.7584 -0.2937  0.5222
43364SOL    HW235930   2.809   7.595   6.595 -2.0143 -1.7550  0.0564
43365SOL     OW35931   9.557   1.290   0.811  0.4013 -0.3271  0.4697
43365SOL    HW135932   9.605   1.336   0.742 -0.1468 -0.8531 -0.2878
43365SOL    HW235933   9.467   1.286   0.779  0.3688 -1.6354  0.6527
43366SOL     OW35934   3.398   9.867   8.976  0.5701 -0.8078 -0.0785
43366SOL    HW135935   3.475   9.911   9.012 -1.0105  0.7055  1.6569
43366SOL    HW235936   3.388   9.904   8.888  0.7988  0.3763  0.3738
43367SOL     OW35937   0.371   7.452  11.938  0.5584 -0.4496  0.4529
43367SOL    HW135938   0.408   7.374  11.981 -3.1884 -1.3896  2.4223
43367SOL    HW235939   0.329   7.418  11.859 -0.0751 -0.2216  0.6900
43368SOL     OW35940   4.796   2.707   2.780  0.2270  0.4025 -0.4502
43368SOL    HW135941   4.889   2.685   2.781  0.3707  0.9906  0.8014
43368SOL    HW235942   4.771   2.712   2.873 -0.9181  0.7906 -0.7605
43369SOL     OW35943   7.313   7.909   2.944 -0.3663 -0.0591  0.1962
43369SOL    HW135944   7.394   7.880   2.901 -2.2398 -0.2958 -3.5741
43369SOL    HW235945   7.276   7.829   2.981 -0.5032 -0.6327 -1.1200
43370SOL     OW35946   9.076   9.095   0.163 -0.5821 -0.1082 -0.7643
43370SOL    HW135947   9.127   9.132   0.235 -2.6579  0.2831  0.5723
43370SOL    HW235948   9.139   9.039   0.117  1.8976  2.7178 -1.1277
43371SOL     OW35949   7.773   4.250   1.951 -0.2879  0.5320 -0.2988
43371SOL    HW135950   7.833   4.305   2.002  1.1572 -1.6006  0.4181
43371SOL    HW235951   7.791   4.273   1.860  0.5669  0.9639 -0.0343
43372SOL     OW35952   2.946  10.367   6.797  0.0755 -0.1118  0.2842
43372SOL    HW135953   2.867  10.414   6.824  0.9988  1.5920  0.1457
43372SOL    HW235954   3.010  10.436   6.780  0.7069 -1.2601 -2.5390
43373SOL     OW35955   8.277   0.314   0.915  0.1781 -0.1025 -0.0435
43373SOL    HW135956   8.280   0.248   0.846 -1.7858  0.0277 -0.2983
43373SOL    HW235957   8.259   0.265   0.995 -1.9627  0.1330 -0.3352
43374SOL     OW35958   0.481   9.909   7.665  0.6148 -0.2472  0.1017
43374SOL    HW135959   0.527   9.972   7.720 -1.7640  1.0470  0.7941
43374SOL    HW235960   0.519   9.919   7.578  0.3244  2.2033  0.1967
43375SOL     OW35961   9.189   9.673   2.718 -0.0992 -0.0264 -0.4623
43375SOL    HW135962   9.150   9.697   2.634 -2.6418 -1.1623  0.2825
43375SOL    HW235963   9.184   9.577   2.720  1.8137 -0.1394  0.1635
43376SOL     OW35964   5.155   1.782  10.014  0.3420 -0.0950  0.2025
43376SOL    HW135965   5.197   1.703  10.047 -1.0072 -2.1961 -2.5782
43376SOL    HW235966   5.076   1.792  10.068  0.3002 -0.9596  0.3205
43377SOL     OW35967   2.308   2.099   0.408  0.5651 -0.5237 -0.7158
43377SOL    HW135968   2.328   2.115   0.316  1.1075 -0.1678 -0.5405
43377SOL    HW235969   2.242   2.165   0.430 -1.2696 -2.0333 -1.4348
43378SOL     OW35970   2.610  11.755   0.119  0.4208 -0.4306  0.5873
43378SOL    HW135971   2.597  11.751   0.024 -0.2896 -0.5138  0.6820
43378SOL    HW235972   2.522  11.757   0.155  0.6836  0.2557  1.2263
43379SOL     OW35973   7.762   0.903   9.658  0.0094 -0.5231  0.2960
43379SOL    HW135974   7.685   0.920   9.604 -0.5546 -0.2958  1.1537
43379SOL    HW235975   7.829   0.962   9.623 -0.5582  0.1283  0.2757
43380SOL     OW35976   9.347   0.302   2.686  0.1281 -0.0337 -0.0441
43380SOL    HW135977   9.430   0.315   2.732  0.0437  0.1862  0.0510
43380SOL    HW235978   9.298   0.241   2.741  1.0804 -1.9148 -1.1918
43381SOL     OW35979  11.609   9.722  10.222  0.1792  0.0512 -0.1919
43381SOL    HW135980  11.631   9.735  10.314  0.3725 -0.5009 -0.1541
43381SOL    HW235981  11.688   9.745  10.175  0.3998 -0.5822 -0.1488
43382SOL     OW35982   9.515   3.558   5.513 -0.0974 -0.3177 -0.4491
43382SOL    HW135983   9.590   3.606   5.479 -0.5365  0.7561  0.0176
43382SOL    HW235984   9.454   3.554   5.440 -0.0020 -0.2729 -0.5316
43383SOL     OW35985   9.718   3.309   2.475 -0.0624  0.1929 -0.1717
43383SOL    HW135986   9.632   3.340   2.504  0.3718  0.9117  0.3919
43383SOL    HW235987   9.758   3.272   2.554 -0.1932 -0.9546 -0.6295
43384SOL     OW35988   5.240   0.851   1.324 -0.4414  0.2718  0.2437
43384SOL    HW135989   5.147   0.870   1.308  0.5373  3.0971 -3.8293
43384SOL    HW235990   5.260   0.779   1.264  0.1718  0.2817  0.4369
43385SOL     OW35991   0.635   7.489   6.005 -0.3284  0.3943 -0.0035
43385SOL    HW135992   0.603   7.578   6.015  1.3792  1.2226 -1.3702
43385SOL    HW235993   0.730   7.498   6.001 -0.0704 -1.5851  0.5628
43386SOL     OW35994   0.668   7.545   7.710  0.6234 -0.1528 -0.1151
43386SOL    HW135995   0.620   7.612   7.760  0.5455 -0.3573  0.0882
43386SOL    HW235996   0.603   7.477   7.693  0.4534  0.2492 -1.1490
43387SOL     OW35997  10.772  11.612   5.209  0.1058  0.1472  0.8006
43387SOL    HW135998  10.688  11.604   5.165  0.6138  1.0492 -0.4055
43387SOL    HW235999  10.758  11.576   5.296 -1.3315 -0.3483  0.3793
43388SOL     OW36000  11.210   6.664   1.060 -0.1778 -0.4643  0.3735
43388SOL    HW136001  11.157   6.594   1.098 -0.6129  0.5780  1.7935
43388SOL    HW236002  11.146   6.727   1.027  0.1815 -0.0848  0.3928
43389SOL     OW36003  11.432   0.653   9.809  0.3603  0.3626 -0.5079
43389SOL    HW136004  11.396   0.569   9.782  0.6761 -0.0613  0.3418
43389SOL    HW236005  11.356   0.710   9.818  0.3205  0.9911 -3.6470
43390SOL     OW36006   3.473  10.938   9.860 -0.2824 -0.5420  0.1930
43390SOL    HW136007   3.452  11.027   9.833  0.7315  0.2227  1.8047
43390SOL    HW236008   3.568  10.936   9.868 -0.2622 -1.8539 -0.0511
43391SOL     OW36009   6.037  11.402   5.210  0.1142  0.5377  0.1718
43391SOL    HW136010   6.077  11.316   5.225  1.1904  0.7819 -1.1045
43391SOL    HW236011   6.110  11.464   5.220 -0.4713  1.2291  0.2164
43392SOL     OW36012  11.263   1.371   6.217 -0.3291  0.0723 -0.5579
43392SOL    HW136013  11.204   1.396   6.145  2.0813  0.8589 -2.4110
43392SOL    HW236014  11.308   1.452   6.239 -1.2682 -0.0678  2.2272
43393SOL     OW36015   4.154   1.054   5.143 -0.3971 -0.0455  0.1371
43393SOL    HW136016   4.225   1.034   5.082 -0.8330 -0.1907 -0.3236
43393SOL    HW236017   4.150   1.150   5.144 -1.4731 -0.0435 -1.3451
43394SOL     OW36018   4.656   5.467   4.888 -0.0565 -0.4844  0.0270
43394SOL    HW136019   4.587   5.434   4.946 -1.0467  0.7216 -0.4272
43394SOL    HW236020   4.736   5.461   4.940 -0.7573 -0.4092  1.1407
43395SOL     OW36021   3.486   3.103   5.489 -0.0650 -0.4330 -0.0405
43395SOL    HW136022   3.582   3.106   5.495 -0.0203 -0.4603 -0.7125
43395SOL    HW236023   3.460   3.192   5.469 -0.1478 -0.5284 -0.3525
43396SOL     OW36024   1.055   0.928   4.824  0.7402 -0.2983  0.1463
43396SOL    HW136025   0.999   1.005   4.818  0.9183 -0.2733 -1.9560
43396SOL    HW236026   0.995   0.853   4.818  0.7216 -0.2933  0.2814
43397SOL     OW36027   8.452   1.713   4.910 -0.1270  0.1359  0.3701
43397SOL    HW136028   8.494   1.642   4.958  0.2768 -0.6908 -1.1652
43397SOL    HW236029   8.497   1.792   4.941  1.0937 -0.5200  0.3450
43398SOL     OW36030   5.860   5.283   1.227  0.2908  0.1907 -0.0847
43398SOL    HW136031   5.936   5.251   1.177  0.7114 -0.4066  0.8970
43398SOL    HW236032   5.788   5.227   1.199  0.6307 -0.4575  0.3214
43399SOL     OW36033  11.671   8.757   3.295 -0.1457  0.3722 -0.3763
43399SOL    HW136034  11.614   8.789   3.225  0.6958  0.0108 -1.2647
43399SOL    HW236035  11.690   8.834   3.348  0.3158  0.9555 -1.3622
43400SOL     OW36036   4.682  11.000   1.062  0.2508  0.3872 -0.1729
43400SOL    HW136037   4.606  10.976   1.009  0.4732  3.2941 -2.0331
43400SOL    HW236038   4.756  10.957   1.020 -0.1788 -1.7618  1.1416
43401SOL     OW36039   1.547   4.672   4.536  0.2946 -0.2850 -0.5585
43401SOL    HW136040   1.543   4.700   4.628  1.4881  0.5979 -0.7474
43401SOL    HW236041   1.632   4.628   4.528  1.1442  1.4369 -1.6814
43402SOL     OW36042   1.200  11.613   2.698 -0.5119  0.3349  0.0179
43402SOL    HW136043   1.182  11.522   2.723 -1.9347 -0.4332 -3.3372
43402SOL    HW236044   1.281  11.608   2.648  0.3046  1.2473  1.1887
43403SOL     OW36045   8.730   2.081   0.350 -0.2595 -0.0230 -0.7822
43403SOL    HW136046   8.696   2.054   0.436 -0.9504  0.6462 -0.8375
43403SOL    HW236047   8.798   2.016   0.330  0.8283  0.5681  0.8578
43404SOL     OW36048   1.950   8.875   6.912  0.1331  0.2541  0.3392
43404SOL    HW136049   1.862   8.910   6.929 -0.2733  0.2903 -1.6468
43404SOL    HW236050   2.009   8.940   6.951 -0.6555  2.2647 -1.6311
43405SOL     OW36051   4.986  11.985   6.732 -0.2764  0.2433 -0.2987
43405SOL    HW136052   4.920  11.926   6.767 -0.4650 -0.2440 -1.4106
43405SOL    HW236053   4.954  12.008   6.645 -0.1194  1.8705  0.0491
43406SOL     OW36054   8.550   8.900  10.994 -0.5985  0.2580  0.6183
43406SOL    HW136055   8.641   8.889  11.024 -0.4245 -0.7380 -0.2450
43406SOL    HW236056   8.551   8.874  10.902 -1.8057  0.0513  0.6475
43407SOL     OW36057   8.833   2.740   3.657  0.3120  0.3900 -0.0878
43407SOL    HW136058   8.902   2.694   3.703  0.0111  0.2389  0.2173
43407SOL    HW236059   8.866   2.749   3.567 -0.1877 -1.6992 -0.5444
43408SOL     OW36060   7.378   5.209   3.843  0.0695  0.3905 -0.5656
43408SOL    HW136061   7.413   5.183   3.758  2.5014  2.4864 -0.3174
43408SOL    HW236062   7.455   5.220   3.899 -1.3791  0.3037  1.5722
43409SOL     OW36063  11.211   2.278   2.580 -0.4511 -0.0646 -0.0871
43409SOL    HW136064  11.203   2.198   2.631  2.6307  0.0094  0.7048
43409SOL    HW236065  11.175   2.256   2.494  0.3140 -2.3062  0.1170
43410SOL     OW36066   9.343   6.360   4.831 -0.1567  0.4700 -0.4286
43410SOL    HW136067   9.386   6.331   4.911 -2.0445 -2.7121 -0.3799
43410SOL    HW236068   9.410   6.352   4.763  0.6220  0.2202  0.3505
43411SOL     OW36069   6.873   4.111   3.278  0.9165 -0.9049  0.4458
43411SOL    HW136070   6.962   4.087   3.304  0.9532 -1.4772 -0.1700
43411SOL    HW236071   6.829   4.135   3.360  1.8437  0.1097  0.6751
43412SOL     OW36072   6.489   3.937   1.496  0.3775 -0.3910  0.1508
43412SOL    HW136073   6.476   3.912   1.404 -0.5970  0.6689 -0.0099
43412SOL    HW236074   6.416   3.994   1.516 -0.5487 -2.1568  2.2128
43413SOL     OW36075   4.895   0.687   8.580  0.3542  0.4255  0.0659
43413SOL    HW136076   4.954   0.688   8.655  1.3782 -0.3731 -0.6916
43413SOL    HW236077   4.885   0.779   8.556  0.8458  0.6090  0.5458
43414SOL     OW36078  10.662   0.113   4.653 -0.4278  0.5532  0.4260
43414SOL    HW136079  10.730   0.056   4.619 -0.4804  0.8124 -0.1307
43414SOL    HW236080  10.589   0.103   4.591 -0.2612  1.5790  0.0431
43415SOL     OW36081   1.982   1.407   7.874 -0.9401 -0.0333  0.2536
43415SOL    HW136082   2.011   1.366   7.792 -1.0865  0.9374 -0.2992
43415SOL    HW236083   1.933   1.339   7.919 -1.6714 -0.3028 -0.9103
43416SOL     OW36084   4.483   3.586   1.558 -0.0337  0.0533  0.2538
43416SOL    HW136085   4.441   3.501   1.575 -0.1885  0.3900  1.6165
43416SOL    HW236086   4.575   3.573   1.582  0.3457 -0.2237 -1.2381
43417SOL     OW36087   2.615   5.985  10.129  0.1094 -0.0734 -0.5188
43417SOL    HW136088   2.672   5.963  10.056  1.8239 -1.2063  1.0539
43417SOL    HW236089   2.667   5.965  10.207 -1.1400  2.2855  1.0661
43418SOL     OW36090   8.889   2.004  12.026 -0.3063  0.0367 -0.6096
43418SOL    HW136091   8.947   1.958  12.087 -0.2740  0.8696  0.0057
43418SOL    HW236092   8.938   2.006  11.943  0.2516  0.1266 -0.2851
43419SOL     OW36093  10.291   2.305   9.594  0.1100  0.1871  0.4701
43419SOL    HW136094  10.236   2.272   9.524 -1.1168  0.7652  1.1172
43419SOL    HW236095  10.369   2.339   9.550 -0.2849 -0.1660 -0.5256
43420SOL     OW36096  11.699   2.502   4.499  0.2840  0.6510 -0.2745
43420SOL    HW136097  11.680   2.551   4.419  3.7940  2.0675 -0.4255
43420SOL    HW236098  11.706   2.411   4.471 -0.9903  0.7690 -1.0430
43421SOL     OW36099  10.762   6.497   5.299  0.4208  0.0308  0.3864
43421SOL    HW136100  10.684   6.444   5.316  1.5204 -2.0367 -0.6539
43421SOL    HW236101  10.832   6.433   5.286  1.8235  1.7375 -0.9437
43422SOL     OW36102   1.499   7.958   1.987  0.6524  0.0450  0.1307
43422SOL    HW136103   1.551   7.966   2.067  0.9293 -1.1117  0.0857
43422SOL    HW236104   1.493   7.863   1.972 -0.7949  0.1858 -0.3066
43423SOL     OW36105   6.122   2.335  10.451  0.3164  0.6599  0.0973
43423SOL    HW136106   6.206   2.379  10.436 -0.3576  1.5624 -1.2835
43423SOL    HW236107   6.143   2.260  10.506  2.0306  0.8568 -0.2406
43424SOL     OW36108   3.145  11.647  11.303  0.1850  0.1973 -0.3794
43424SOL    HW136109   3.097  11.569  11.333  0.7852  0.4504  1.3239
43424SOL    HW236110   3.080  11.697  11.253 -0.9698 -0.1364  0.7316
43425SOL     OW36111   6.081   1.739  12.327  0.2261 -0.2662  0.3129
43425SOL    HW136112   6.019   1.793  12.279  1.9631  2.7798  1.1839
43425SOL    HW236113   6.153   1.798  12.348  3.7658 -3.6182 -1.0646
43426SOL     OW36114   0.619  11.239   8.176  0.0174 -0.2465 -0.2772
43426SOL    HW136115   0.665  11.166   8.135  1.1670  0.6268 -0.6359
43426SOL    HW236116   0.574  11.282   8.104  1.5413  0.9321 -0.5915
43427SOL     OW36117  10.937   1.176   4.928 -0.6054  0.6247 -0.4022
43427SOL    HW136118  10.934   1.177   4.832  1.5886 -1.3181 -0.5708
43427SOL    HW236119  11.028   1.155   4.949 -1.2873 -0.1768  2.0923
43428SOL     OW36120   3.491  11.846   1.512 -0.4507  0.4305 -0.1521
43428SOL    HW136121   3.558  11.914   1.520  1.0036 -1.0435  0.9497
43428SOL    HW236122   3.438  11.873   1.437  1.2601  1.7490 -0.9665
43429SOL     OW36123   4.201  10.278  10.809 -0.0946 -0.5310  0.3877
43429SOL    HW136124   4.209  10.281  10.904 -1.2168  1.6859  0.4880
43429SOL    HW236125   4.290  10.293  10.777 -0.0030  0.7310  1.1459
43430SOL     OW36126   5.224   1.120   2.613 -0.0838  0.2231 -0.0171
43430SOL    HW136127   5.312   1.119   2.650  0.0574  1.2227 -0.2887
43430SOL    HW236128   5.230   1.063   2.536 -0.5571 -2.4575  1.7745
43431SOL     OW36129   5.470   8.263   6.052  0.1441  0.1764  0.3994
43431SOL    HW136130   5.386   8.291   6.014  0.5832 -1.5558 -2.1286
43431SOL    HW236131   5.475   8.170   6.031  3.0629  0.4064 -0.2997
43432SOL     OW36132   1.780   8.690  10.740  0.1894 -0.2151 -0.8175
43432SOL    HW136133   1.755   8.704  10.831 -0.8453 -0.4573 -1.0513
43432SOL    HW236134   1.838   8.763  10.719  0.1937  0.0029 -0.0547
43433SOL     OW36135   0.190   2.980   5.112 -0.3043 -0.5609  0.7624
43433SOL    HW136136   0.276   3.016   5.089  0.0846 -1.5265  0.6385
43433SOL    HW236137   0.207   2.887   5.126 -1.5076 -0.9598 -0.2495
43434SOL     OW36138  11.014   4.301  11.150 -0.1808 -0.4086  0.1208
43434SOL    HW136139  11.059   4.324  11.069 -2.3159  0.5250 -0.8876
43434SOL    HW236140  10.991   4.209  11.140  1.0569 -0.7674  0.4506
43435SOL     OW36141   8.932   4.517   5.105  0.2146 -0.2791  0.0090
43435SOL    HW136142   8.916   4.563   5.022  0.3506 -0.4189 -0.0974
43435SOL    HW236143   8.884   4.567   5.170  1.8003  1.0901  0.2052
43436SOL     OW36144   5.440   9.359   5.196  0.3418 -0.1705 -0.6308
43436SOL    HW136145   5.506   9.376   5.262  1.6596 -1.2749 -1.6070
43436SOL    HW236146   5.365   9.323   5.245  0.4463  1.0811  0.4780
43437SOL     OW36147   5.731   8.859   3.991 -0.7722 -0.0469  0.0641
43437SOL    HW136148   5.737   8.840   4.085  0.4668  0.5828  0.1364
43437SOL    HW236149   5.768   8.947   3.983 -0.1080 -0.4217 -1.1281
43438SOL     OW36150   1.783   2.298   2.752  0.1989 -0.0080 -0.2799
43438SOL    HW136151   1.818   2.266   2.836  0.7543  1.9503  0.3098
43438SOL    HW236152   1.861   2.325   2.703 -0.1535 -0.8067 -1.2982
43439SOL     OW36153   5.339   5.609   1.586  0.0665 -0.2761  0.0968
43439SOL    HW136154   5.263   5.668   1.584 -0.5407 -1.0627 -1.2861
43439SOL    HW236155   5.307   5.531   1.631  0.1313 -0.4992 -0.2419
43440SOL     OW36156   9.918   1.271   3.198  0.0607  0.0828  1.0546
43440SOL    HW136157   9.896   1.271   3.291 -0.4469 -1.6844  0.9734
43440SOL    HW236158   9.998   1.324   3.192  0.8848 -0.8938  2.7047
43441SOL     OW36159   4.147   7.644   8.057  0.5723 -0.3810 -0.4488
43441SOL    HW136160   4.228   7.686   8.085  0.4847  0.1749 -1.0129
43441SOL    HW236161   4.094   7.641   8.137  0.9344 -0.2445 -0.2011
43442SOL     OW36162   2.564   4.584   5.001  0.0529  0.5271 -0.7310
43442SOL    HW136163   2.590   4.584   5.093  0.3752  0.2288 -0.8190
43442SOL    HW236164   2.482   4.533   5.000 -0.0272  0.6507 -0.5916
43443SOL     OW36165  11.441   5.178   1.342  0.1522  0.6356  0.2078
43443SOL    HW136166  11.496   5.110   1.382 -0.5190  0.8211  1.5055
43443SOL    HW236167  11.423   5.239   1.414 -1.0538  1.0236 -0.3953
43444SOL     OW36168   2.424   3.440  11.512  0.0879  0.7342  0.3417
43444SOL    HW136169   2.471   3.408  11.589  0.1975 -0.5882 -0.2476
43444SOL    HW236170   2.364   3.370  11.490  0.7650  0.6408 -1.3744
43445SOL     OW36171   1.091   1.544   8.791 -0.0380  0.6235  0.0458
43445SOL    HW136172   1.022   1.492   8.834  0.1453  1.2120  1.0918
43445SOL    HW236173   1.061   1.634   8.800  0.2906  0.7971 -0.5810
43446SOL     OW36174   7.738   3.418   6.213  0.3945  0.5057  0.7645
43446SOL    HW136175   7.814   3.394   6.266  0.8543 -1.1217 -0.5386
43446SOL    HW236176   7.687   3.338   6.204 -0.3496  1.0495 -0.1525
43447SOL     OW36177   3.673   2.439  10.137 -0.0786 -0.0548 -0.2394
43447SOL    HW136178   3.602   2.380  10.159  0.7898 -1.1938 -0.4120
43447SOL    HW236179   3.634   2.527  10.143 -1.4702 -0.6448 -0.3076
43448SOL     OW36180  11.164   8.436  10.586  0.2844  0.1144 -0.3440
43448SOL    HW136181  11.151   8.342  10.583  1.3934 -0.0776  0.4155
43448SOL    HW236182  11.106   8.470  10.517 -2.8003 -0.7787  1.6184
43449SOL     OW36183  11.812   4.459  11.544 -0.0403  0.0306  0.3474
43449SOL    HW136184  11.906   4.440  11.541 -0.2505 -1.2822  1.2111
43449SOL    HW236185  11.806   4.545  11.586  0.7409 -0.3153  1.2054
43450SOL     OW36186   7.319   6.366   9.886 -0.8587 -0.2197  1.4345
43450SOL    HW136187   7.382   6.331   9.823 -2.9888 -2.5082  0.3673
43450SOL    HW236188   7.286   6.446   9.845 -1.7451 -1.3409 -0.1906
43451SOL     OW36189   9.762   0.912  10.213  0.2355 -0.6903 -0.4204
43451SOL    HW136190   9.793   0.963  10.288  0.3825 -3.1533  1.2926
43451SOL    HW236191   9.807   0.951  10.138  1.6691  0.5889  1.0238
43452SOL     OW36192   9.698   2.975   6.800 -0.5769 -0.6391  0.4214
43452SOL    HW136193   9.691   3.023   6.718 -0.6671 -1.1657  0.1119
43452SOL    HW236194   9.787   2.989   6.830 -0.2501 -1.2120 -0.2574
43453SOL     OW36195   2.362   9.661   8.418  0.1879  0.3060 -0.4120
43453SOL    HW136196   2.314   9.683   8.338  0.5489  0.9278 -0.4596
43453SOL    HW236197   2.419   9.736   8.434  0.9913 -0.3306 -0.2303
43454SOL     OW36198   7.821   8.635   2.769  0.1301 -0.2573  0.1391
43454SOL    HW136199   7.884   8.635   2.842 -0.8274  0.7283  1.0050
43454SOL    HW236200   7.739   8.608   2.809 -0.4774  0.5788 -0.5177
43455SOL     OW36201   1.981   0.219   5.787 -0.3965  0.3781 -0.0493
43455SOL    HW136202   2.065   0.177   5.770 -0.4993  0.5080 -0.9478
43455SOL    HW236203   1.919   0.171   5.732 -1.4065 -1.3183  2.3687
43456SOL     OW36204   1.531   0.545   7.524  0.6267 -0.1320 -0.1295
43456SOL    HW136205   1.587   0.594   7.584  1.7475 -0.4726 -0.8698
43456SOL    HW236206   1.527   0.457   7.561  0.1950  0.0071  0.1649
43457SOL     OW36207   8.811  11.514   3.169 -0.4134  0.4331  0.8770
43457SOL    HW136208   8.875  11.480   3.106  0.3270  1.5086  1.0235
43457SOL    HW236209   8.811  11.450   3.240 -0.8942 -0.5369  0.0404
43458SOL     OW36210   3.343   9.337   3.223  0.1621  0.0718  0.4514
43458SOL    HW136211   3.315   9.346   3.132  0.2453  0.3554  0.4529
43458SOL    HW236212   3.322   9.247   3.246  0.5575 -0.1418  0.0053
43459SOL     OW36213   5.085   7.633   3.227  0.1317  0.5360  0.2293
43459SOL    HW136214   5.066   7.540   3.231  0.9211  0.3357 -0.4605
43459SOL    HW236215   4.999   7.675   3.217 -0.0484 -0.3218 -2.5139
43460SOL     OW36216  11.236  10.830   4.364 -1.0628 -0.8176 -0.3277
43460SOL    HW136217  11.216  10.921   4.343  1.7614  0.3995  1.6297
43460SOL    HW236218  11.158  10.797   4.409 -1.5850  1.1209  0.2472
43461SOL     OW36219   0.356   8.297   9.649  0.2574  0.3541  0.2295
43461SOL    HW136220   0.330   8.347   9.727 -1.2490 -0.2147  0.1213
43461SOL    HW236221   0.319   8.210   9.663  0.8177 -0.0400 -0.6838
43462SOL     OW36222   4.532   1.681   3.608  0.4802  0.0136 -0.6106
43462SOL    HW136223   4.548   1.588   3.626  0.0210  0.1728  0.7269
43462SOL    HW236224   4.616   1.714   3.575  0.4855 -0.9908 -1.6698
43463SOL     OW36225  11.110   7.895   3.194  0.0181  0.1413 -0.4177
43463SOL    HW136226  11.032   7.949   3.180 -0.4314 -0.7753 -1.6213
43463SOL    HW236227  11.143   7.878   3.106  0.0135 -1.7339 -0.0913
43464SOL     OW36228   3.409   3.191   2.685 -0.1170  0.0482 -0.2537
43464SOL    HW136229   3.349   3.255   2.723  0.2998 -0.1289  0.7501
43464SOL    HW236230   3.360   3.109   2.683  0.7459 -0.6973  2.8148
43465SOL     OW36231   1.633  10.132   3.191 -0.5520  0.1611  0.1825
43465SOL    HW136232   1.722  10.145   3.221 -0.8640 -1.7085  2.2186
43465SOL    HW236233   1.639  10.060   3.129 -0.6860 -0.4336  0.8409
43466SOL     OW36234   5.371   1.613   3.332 -0.1229 -0.7679  0.3899
43466SOL    HW136235   5.413   1.614   3.418 -2.2928 -0.6544  1.5246
43466SOL    HW236236   5.286   1.573   3.348 -1.2900  0.8610 -1.3663
43467SOL     OW36237  10.944   2.321   9.838  0.5072  0.0290 -0.6776
43467SOL    HW136238  10.937   2.313   9.742 -0.5810 -0.3272 -0.5826
43467SOL    HW236239  10.965   2.232   9.867 -0.7407 -0.2121 -0.4716
43468SOL     OW36240   6.663   0.697   8.701 -0.4660 -0.3303  0.3273
43468SOL    HW136241   6.592   0.751   8.735 -0.6351 -0.7901  0.7238
43468SOL    HW236242   6.630   0.663   8.617 -0.1824  0.5313 -0.1412
43469SOL     OW36243   4.020   2.575   6.804 -0.1575  0.2878 -0.9336
43469SOL    HW136244   4.105   2.539   6.829 -0.5100  0.5039  0.6989
43469SOL    HW236245   4.005   2.647   6.866 -2.2945 -0.8854  0.0224
43470SOL     OW36246  11.139   3.303   5.595  0.3402 -0.2603  0.0736
43470SOL    HW136247  11.070   3.249   5.632 -0.4908  0.6762 -0.0770
43470SOL    HW236248  11.157   3.264   5.510 -0.6535  0.0187 -0.2780
43471SOL     OW36249   5.426  11.585   6.558  0.5415 -0.0322  0.3786
43471SOL    HW136250   5.470  11.535   6.628  1.4168 -0.4415 -0.4382
43471SOL    HW236251   5.495  11.601   6.494 -0.3303  0.0407 -0.5558
43472SOL     OW36252   5.642   8.179   9.274  0.5584  0.4799 -0.1854
43472SOL    HW136253   5.585   8.227   9.213 -0.8223 -1.6073 -0.6614
43472SOL    HW236254   5.600   8.191   9.360  1.6070  2.0961  0.1365
43473SOL     OW36255   9.210   8.145   3.888 -0.2974 -0.5449  0.1545
43473SOL    HW136256   9.249   8.232   3.878 -1.0561 -0.2875 -0.5989
43473SOL    HW236257   9.119   8.162   3.913 -0.7029 -1.1095 -0.9050
43474SOL     OW36258  10.981   9.442   3.730  0.0733  0.1656  0.1101
43474SOL    HW136259  10.900   9.424   3.681  0.4287  0.4715 -0.6119
43474SOL    HW236260  10.989   9.369   3.791  0.6033 -1.2648 -1.5955
43475SOL     OW36261   9.340   5.981   5.639 -0.6576  0.1223 -0.2849
43475SOL    HW136262   9.408   5.928   5.680  0.8501  1.2079 -1.2407
43475SOL    HW236263   9.283   6.007   5.711 -0.5301 -1.4597  0.4282
43476SOL     OW36264   8.428   6.187   9.230  0.1817 -0.1607  0.4025
43476SOL    HW136265   8.434   6.171   9.325 -1.5239 -0.8533  0.4337
43476SOL    HW236266   8.445   6.101   9.191  1.0187  0.1535  0.0549
43477SOL     OW36267   6.330   0.270   5.713  0.0167  0.1666  0.3347
43477SOL    HW136268   6.255   0.326   5.693  0.0863  0.0470 -0.2772
43477SOL    HW236269   6.291   0.185   5.733 -0.0664  0.3369  0.9016
43478SOL     OW36270   7.616   8.557   4.251 -0.1277 -0.1727  0.2138
43478SOL    HW136271   7.522   8.547   4.237 -0.2153  1.0265 -0.1880
43478SOL    HW236272   7.657   8.510   4.179 -0.4910  1.7990 -1.3519
43479SOL     OW36273   5.328   1.445   7.705  0.5363 -0.1326  0.5428
43479SOL    HW136274   5.344   1.475   7.795 -1.8929 -0.1556  1.0504
43479SOL    HW236275   5.245   1.485   7.681 -0.1814 -2.2260 -0.7121
43480SOL     OW36276   0.206  11.047  11.350 -0.1678 -0.3162 -0.3162
43480SOL    HW136277   0.123  11.001  11.361 -1.3968  1.3797 -1.9056
43480SOL    HW236278   0.246  11.046  11.437 -1.8836 -1.0752  0.5074
43481SOL     OW36279   3.222   0.231   2.606 -0.0504 -0.1182  0.3253
43481SOL    HW136280   3.248   0.167   2.539  1.6478 -0.7168  1.4842
43481SOL    HW236281   3.149   0.278   2.567  0.9464 -0.3586 -2.0029
43482SOL     OW36282  10.206   7.322   2.347  0.2582 -0.5799  0.0947
43482SOL    HW136283  10.247   7.291   2.267 -0.0271  0.0876 -0.3244
43482SOL    HW236284  10.195   7.416   2.333  0.6672 -0.3640  1.1272
43483SOL     OW36285   9.594   6.406  12.171  0.9130 -0.3501  0.4292
43483SOL    HW136286   9.659   6.400  12.102  0.2685  3.6623 -0.7551
43483SOL    HW236287   9.520   6.355  12.139  1.1469  0.3037 -1.2300
43484SOL     OW36288   9.744  12.026   9.036 -0.5392 -0.2068  0.0453
43484SOL    HW136289   9.712  12.110   9.004 -1.2015 -0.9253 -1.2292
43484SOL    HW236290   9.817  12.049   9.094  1.0939  1.1403 -2.3832
43485SOL     OW36291  10.364   6.136   5.626  0.1754  0.0386 -0.2514
43485SOL    HW136292  10.276   6.098   5.625 -0.5912  1.7432 -0.2301
43485SOL    HW236293  10.353   6.222   5.587  2.1849 -0.3726 -1.8785
43486SOL     OW36294   6.231   6.616  10.703  0.2814  0.2097 -0.0443
43486SOL    HW136295   6.251   6.647  10.791 -2.1720 -0.3356  0.7864
43486SOL    HW236296   6.253   6.690  10.646  1.1844  0.8426  1.0835
43487SOL     OW36297   0.051   8.737   3.201  0.2518 -0.5126 -0.5224
43487SOL    HW136298   0.137   8.771   3.228 -0.2232 -0.1142  0.5545
43487SOL    HW236299   0.057   8.730   3.106  0.5124  2.2378 -0.8010
43488SOL     OW36300   9.891   2.528   4.567  0.0816 -0.1822 -0.1769
43488SOL    HW136301   9.950   2.469   4.521  1.3943  1.5510 -0.8229
43488SOL    HW236302   9.812   2.476   4.583  0.9952 -1.9347 -1.1197
43489SOL     OW36303   5.852   0.815   6.828  0.2355 -0.1901 -0.0451
43489SOL    HW136304   5.832   0.853   6.743 -1.0694  0.3013  0.4515
43489SOL    HW236305   5.918   0.874   6.865 -0.9031  0.9883  0.2204
43490SOL     OW36306   5.207   9.627   5.960 -0.1283 -0.6230  0.6217
43490SOL    HW136307   5.251   9.625   5.876  0.6484  1.0887  0.9438
43490SOL    HW236308   5.124   9.580   5.946 -0.9162  1.2800 -1.6324
43491SOL     OW36309   0.851  11.919  10.934 -0.1821 -0.6032 -0.3502
43491SOL    HW136310   0.765  11.960  10.929  0.6848  1.2023 -1.2324
43491SOL    HW236311   0.846  11.864  11.012 -1.5053  0.9826  0.7621
43492SOL     OW36312   7.433   0.266   6.285 -0.1194  0.0241 -0.3177
43492SOL    HW136313   7.524   0.297   6.282  0.2852 -0.9735  0.9641
43492SOL    HW236314   7.391   0.320   6.352 -0.5735  0.6665 -1.0939
43493SOL     OW36315   5.211   2.611   0.677 -0.2692 -0.1594  0.3432
43493SOL    HW136316   5.280   2.545   0.681  0.5872  0.7164  0.1988
43493SOL    HW236317   5.239   2.679   0.738 -0.9705  0.2432  0.2250
43494SOL     OW36318   1.590   0.076   1.100  0.4933  0.1465 -0.4701
43494SOL    HW136319   1.558   0.082   1.190  1.0343 -1.3427 -0.1403
43494SOL    HW236320   1.541   0.003   1.062 -0.3301  1.3001 -1.6719
43495SOL     OW36321   9.838  10.002   2.385 -0.1511  0.1263 -0.1657
43495SOL    HW136322   9.787   9.956   2.318  0.0045  1.0605 -0.9426
43495SOL    HW236323   9.913   9.945   2.400  1.2562  1.1290 -2.8022
43496SOL     OW36324   1.701   2.205  10.329  0.2397 -0.0308 -0.1059
43496SOL    HW136325   1.614   2.176  10.358  0.2109  0.2103  0.0475
43496SOL    HW236326   1.761   2.140  10.366  0.0750 -0.5601 -0.7335
43497SOL     OW36327   1.567   3.480   7.986 -0.0113  0.1246  0.7922
43497SOL    HW136328   1.611   3.562   8.006 -1.8329  2.1872 -2.6047
43497SOL    HW236329   1.588   3.463   7.894 -1.5942 -1.8966  0.7179
43498SOL     OW36330   6.499  10.610   2.178 -1.0238  0.2760  0.2989
43498SOL    HW136331   6.456  10.691   2.206 -0.7150 -0.0435  1.7798
43498SOL    HW236332   6.540  10.632   2.095 -0.5375  1.7923  0.9078
43499SOL     OW36333   9.500   8.273   3.312  0.0281  0.1068  0.2315
43499SOL    HW136334   9.447   8.210   3.263 -0.8976 -0.4846  1.9431
43499SOL    HW236335   9.590   8.256   3.282 -0.5214 -0.0103 -1.4610
43500SOL     OW36336  10.109   5.162   4.632 -0.0546  0.2202 -0.6587
43500SOL    HW136337  10.203   5.173   4.644 -0.3120  1.7472  0.2210
43500SOL    HW236338  10.073   5.251   4.636 -1.8189 -0.4986  1.8838
43501SOL     OW36339   2.571   6.277   6.640  0.2253  0.3976  0.5274
43501SOL    HW136340   2.511   6.246   6.572 -0.3941  0.7428  0.9080
43501SOL    HW236341   2.514   6.316   6.706  0.8504  0.4179  1.0609
43502SOL     OW36342   6.961   4.987   7.781  0.5082  0.5405 -0.3148
43502SOL    HW136343   6.961   4.913   7.721 -0.6131 -0.6512  1.0896
43502SOL    HW236344   7.050   5.022   7.776  1.1924 -1.1668 -0.6914
43503SOL     OW36345   6.306   9.189  12.151  0.2020 -0.1235  0.2576
43503SOL    HW136346   6.400   9.177  12.145  0.5227  1.1432  2.0330
43503SOL    HW236347   6.291   9.279  12.122 -0.4736 -0.2784  0.0898
43504SOL     OW36348   0.500   8.880  10.911  0.1159  1.0302  0.5921
43504SOL    HW136349   0.523   8.797  10.869  0.3253  0.4519  1.7821
43504SOL    HW236350   0.538   8.948  10.855 -0.9148  0.3814 -0.9362
43505SOL     OW36351   0.682   7.099   4.580  0.0272 -0.5399  0.0289
43505SOL    HW136352   0.695   7.178   4.528 -0.7786  0.3288  1.0953
43505SOL    HW236353   0.679   7.130   4.670  0.4264 -1.8882  0.5296
43506SOL     OW36354   3.462   8.021   0.667 -0.4746 -0.4338  0.1775
43506SOL    HW136355   3.549   8.054   0.690 -0.8046  0.7412 -0.1895
43506SOL    HW236356   3.460   8.025   0.571 -0.9468 -0.4006  0.1876
43507SOL     OW36357   8.351   4.119   0.878  0.1777  0.1449  0.4489
43507SOL    HW136358   8.400   4.194   0.911 -1.3180  1.1829  0.4195
43507SOL    HW236359   8.278   4.109   0.939 -0.9352  0.1941 -0.8333
43508SOL     OW36360   3.510   8.775   9.389  0.4600  0.6870  0.0433
43508SOL    HW136361   3.596   8.759   9.350  0.5162  0.5414  0.2263
43508SOL    HW236362   3.517   8.863   9.427  0.1266  1.1895 -1.0273
43509SOL     OW36363   9.738  11.895   1.115 -0.2442 -0.2425  0.1620
43509SOL    HW136364   9.762  11.816   1.066  1.4324 -0.4451  1.2510
43509SOL    HW236365   9.816  11.949   1.114 -0.4119  0.0798  1.9515
43510SOL     OW36366   3.234   6.299   1.435  0.5953 -0.8103 -0.5540
43510SOL    HW136367   3.166   6.304   1.503  1.9972  0.0087  0.8539
43510SOL    HW236368   3.185   6.289   1.353 -1.2805  0.6960  0.2936
43511SOL     OW36369  12.232   6.912   5.474 -0.0869  0.1459 -0.1257
43511SOL    HW136370  12.176   6.856   5.528 -0.9771  1.3973  0.2954
43511SOL    HW236371  12.214   6.884   5.385  0.8377 -1.4396  0.1419
43512SOL     OW36372   8.917  12.092   2.802  0.4012  0.1195 -0.2719
43512SOL    HW136373   8.918  12.176   2.848  0.5205  0.6475 -1.2082
43512SOL    HW236374   8.834  12.052   2.826 -1.5977  2.2827 -2.8622
43513SOL     OW36375   7.987   8.446  11.340 -0.0109  0.1376  0.0789
43513SOL    HW136376   8.067   8.434  11.288 -0.8282  1.7478 -1.6745
43513SOL    HW236377   7.945   8.523  11.302 -0.8357  1.2690  3.0266
43514SOL     OW36378  12.070   1.209  10.230 -0.0504  0.5474 -0.6425
43514SOL    HW136379  11.994   1.171  10.275 -0.5080  2.3601  0.2432
43514SOL    HW236380  12.066   1.173  10.142 -0.5088 -1.2875  0.0704
43515SOL     OW36381   4.681  12.224   7.138  0.4457  0.0793 -0.5122
43515SOL    HW136382   4.628  12.291   7.182  0.3690 -0.5778  0.4106
43515SOL    HW236383   4.643  12.218   7.050  0.5443  1.3359 -0.6550
43516SOL     OW36384   0.154   6.941  11.295 -0.0465  0.2571 -0.3854
43516SOL    HW136385   0.238   6.973  11.328  0.6958 -1.2240 -0.7664
43516SOL    HW236386   0.167   6.935  11.200 -0.2673 -0.8000 -0.3604
43517SOL     OW36387  10.624   8.546   0.824 -0.1674 -0.1165 -0.5811
43517SOL    HW136388  10.537   8.522   0.794  0.9710 -1.7962 -2.8316
43517SOL    HW236389  10.671   8.463   0.832  0.8408  0.6183  2.0475
43518SOL     OW36390  10.963   4.578   8.329 -0.1995 -0.6379  0.8076
43518SOL    HW136391  10.915   4.544   8.253 -1.9439  1.5584  0.8159
43518SOL    HW236392  11.050   4.598   8.296 -1.1113  0.8760 -0.8908
43519SOL     OW36393   1.520   4.293   2.847  0.0357 -0.5279  0.1248
43519SOL    HW136394   1.599   4.271   2.896 -0.7160  0.3733  1.8341
43519SOL    HW236395   1.448   4.277   2.909 -1.2860 -2.6133 -1.8010
43520SOL     OW36396   1.945   5.331   1.728  0.2623  0.1260  0.0393
43520SOL    HW136397   1.904   5.374   1.653 -0.7184  0.7406  0.8954
43520SOL    HW236398   1.872   5.299   1.781  0.8886  0.6012  1.2345
43521SOL     OW36399   8.598   7.975   4.216  0.0690  0.2595  0.3199
43521SOL    HW136400   8.638   8.036   4.277  0.1445 -0.5301  1.0781
43521SOL    HW236401   8.540   8.029   4.162 -0.9098  0.8165  1.8543
43522SOL     OW36402   5.770   0.943   6.566 -0.8147  0.1824  0.2264
43522SOL    HW136403   5.682   0.904   6.561 -0.0886 -1.7302  1.3278
43522SOL    HW236404   5.806   0.930   6.478 -1.6454  1.1026 -0.2781
43523SOL     OW36405   1.449   6.448   5.102 -0.0266 -0.6376  0.1088
43523SOL    HW136406   1.479   6.414   5.186 -0.4200 -0.3429  0.3731
43523SOL    HW236407   1.419   6.371   5.054  2.8844 -1.2509 -0.9389
43524SOL     OW36408   1.385   2.924   0.427  0.0126  0.6798 -0.5349
43524SOL    HW136409   1.440   2.850   0.400  0.6043  0.8331  0.2276
43524SOL    HW236410   1.376   2.976   0.347  1.3057  0.8557 -0.5890
43525SOL     OW36411   2.014   9.857   6.239 -0.3450 -1.0526  0.5061
43525SOL    HW136412   2.061   9.923   6.290  1.3474 -0.9804 -1.0309
43525SOL    HW236413   1.922   9.882   6.245  0.2131  1.2906  0.2427
43526SOL     OW36414   8.370   3.914   1.211 -0.3311 -0.1231  0.0544
43526SOL    HW136415   8.277   3.935   1.225  0.1128  0.6497  2.1497
43526SOL    HW236416   8.414   3.998   1.216  0.3904 -0.2586 -2.5489
43527SOL     OW36417   2.892   7.144   5.874 -0.2012 -0.2303  0.5012
43527SOL    HW136418   2.838   7.168   5.799  1.6446  0.3305 -0.7224
43527SOL    HW236419   2.947   7.073   5.842 -0.4197 -1.0174  1.8136
43528SOL     OW36420   9.704  11.066   8.118  0.0159  0.1266 -0.5186
43528SOL    HW136421   9.668  11.008   8.052 -0.7611  1.4995 -1.3485
43528SOL    HW236422   9.655  11.046   8.198  1.3273 -1.9178 -0.1493
43529SOL     OW36423   7.063   4.632   1.682  0.4573 -0.0499 -0.0207
43529SOL    HW136424   7.103   4.562   1.733 -1.0429 -1.0357 -0.1473
43529SOL    HW236425   7.066   4.709   1.740  2.4882 -0.0801 -0.0374
43530SOL     OW36426  11.862   3.727  10.849  0.1451 -0.6334  0.2350
43530SOL    HW136427  11.925   3.708  10.919 -0.2683  0.8450  1.0551
43530SOL    HW236428  11.804   3.651  10.847  0.1959 -0.7262  1.4835
43531SOL     OW36429   7.148   8.448   8.066 -0.6386  0.4935  0.6188
43531SOL    HW136430   7.201   8.494   8.131 -0.6607  0.0523  0.9521
43531SOL    HW236431   7.158   8.500   7.986  1.7398 -0.4857  0.1774
43532SOL     OW36432   3.980   9.585   0.303  0.3327  0.2896 -0.0818
43532SOL    HW136433   3.973   9.511   0.243  0.7720  0.4654 -0.3556
43532SOL    HW236434   3.944   9.553   0.386 -0.2178  0.0257 -0.4164
43533SOL     OW36435   9.000   3.660   1.942 -0.4949  0.0233 -0.1181
43533SOL    HW136436   8.975   3.619   1.860  1.2426  3.2353 -2.4892
43533SOL    HW236437   9.056   3.596   1.986 -1.2251 -1.6511 -1.5176
43534SOL     OW36438   8.792   7.218  11.945 -0.1992  0.1978 -0.0350
43534SOL    HW136439   8.836   7.287  11.994 -1.1395 -0.4061  1.7473
43534SOL    HW236440   8.849   7.201  11.870  1.0030  1.5552  0.5332
43535SOL     OW36441   8.736   1.402   0.637 -0.2300 -0.2621  0.7829
43535SOL    HW136442   8.827   1.433   0.628 -0.2090  0.2681  2.4844
43535SOL    HW236443   8.743   1.318   0.682 -0.6057  0.0063  1.3488
43536SOL     OW36444   6.221   7.335   9.916 -0.0499  0.3182 -0.6109
43536SOL    HW136445   6.195   7.256   9.964 -0.0532  0.1272 -0.9257
43536SOL    HW236446   6.230   7.307   9.825  0.6539  0.5168 -0.6144
43537SOL     OW36447   2.966   1.255  11.670 -0.0551  0.3776 -0.3930
43537SOL    HW136448   2.959   1.161  11.690  1.3140  0.0210 -1.4342
43537SOL    HW236449   2.992   1.294  11.754 -0.6940 -0.1453  0.0673
43538SOL     OW36450   0.250   7.375   5.440  0.3573  0.4415 -0.5017
43538SOL    HW136451   0.278   7.316   5.510  1.1786  1.4976  0.1002
43538SOL    HW236452   0.214   7.318   5.373 -1.2315 -0.5580  1.1228
43539SOL     OW36453   4.364   3.140   3.248 -0.2425 -0.4378 -0.1526
43539SOL    HW136454   4.425   3.203   3.210 -0.1860 -1.3295 -1.6067
43539SOL    HW236455   4.400   3.054   3.225 -0.7110 -1.0105  1.1516
43540SOL     OW36456   8.949   8.787   7.316 -0.2628 -0.1435  0.4729
43540SOL    HW136457   8.963   8.792   7.222 -1.2386  0.9184  0.3523
43540SOL    HW236458   8.985   8.869   7.350 -0.5690 -0.1922  0.9278
43541SOL     OW36459   8.225   0.798   7.844 -0.0070 -0.3086 -0.5273
43541SOL    HW136460   8.318   0.814   7.864  0.1373  0.0736 -1.4592
43541SOL    HW236461   8.196   0.877   7.799 -1.3992  0.5237  1.6685
43542SOL     OW36462   5.809   9.702   3.034  0.0979  0.0053 -0.1784
43542SOL    HW136463   5.895   9.674   3.004  0.5264 -0.9442  1.7821
43542SOL    HW236464   5.819   9.796   3.051  0.9684 -0.2304  0.6939
43543SOL     OW36465   3.970   5.713   5.372 -0.0605  0.8449  0.5494
43543SOL    HW136466   4.022   5.648   5.324 -0.8226  0.5415  0.1134
43543SOL    HW236467   3.902   5.740   5.310  1.2082  3.3384  0.1119
43544SOL     OW36468   3.717   7.459   7.165  0.1302 -0.2867  0.1679
43544SOL    HW136469   3.782   7.493   7.227  1.0581 -0.9652 -0.4094
43544SOL    HW236470   3.652   7.529   7.158  1.0878  0.6516  0.3480
43545SOL     OW36471  10.633  11.275   4.567 -0.6987 -0.6411  0.2784
43545SOL    HW136472  10.659  11.255   4.477  0.0534  0.1186  0.3104
43545SOL    HW236473  10.607  11.191   4.604 -1.3144 -0.9108 -0.7397
43546SOL     OW36474   6.052  11.442   9.365  0.1496  0.0074  0.3897
43546SOL    HW136475   6.024  11.351   9.358  0.3044 -0.0923  1.0514
43546SOL    HW236476   5.991  11.490   9.308  0.0243 -0.4995  0.0968
43547SOL     OW36477   0.997   7.285   5.070 -0.0391  0.1526  0.7345
43547SOL    HW136478   1.065   7.271   5.136 -0.2676 -2.6080  0.5317
43547SOL    HW236479   0.986   7.380   5.066  2.9154  0.6487  1.6376
43548SOL     OW36480   4.788  10.929   9.938 -0.2194 -0.2801 -0.0855
43548SOL    HW136481   4.829  11.004   9.895  0.8204 -0.5468  0.3928
43548SOL    HW236482   4.854  10.899  10.000 -0.8007 -1.3115  0.0531
43549SOL     OW36483   2.261   9.987   1.774 -0.5029 -0.3077 -0.7116
43549SOL    HW136484   2.320  10.062   1.765 -0.1685 -0.6840 -1.8662
43549SOL    HW236485   2.179  10.016   1.733 -0.1626 -0.7662 -1.7738
43550SOL     OW36486  12.027  10.191  10.346 -0.3901  0.1931 -0.0913
43550SOL    HW136487  12.086  10.264  10.363 -1.5794  1.4324 -1.1468
43550SOL    HW236488  12.082  10.124  10.306  0.4740  0.9965 -0.2689
43551SOL     OW36489  10.893  11.085   4.637  0.3214  0.3134 -0.5311
43551SOL    HW136490  10.806  11.044   4.635  0.5715 -0.2909  0.5332
43551SOL    HW236491  10.887  11.157   4.574 -0.7443 -0.1323 -0.9608
43552SOL     OW36492   3.393   7.461   7.773  0.2620  0.0001  0.0676
43552SOL    HW136493   3.401   7.539   7.717 -1.3956  1.7871  2.1427
43552SOL    HW236494   3.471   7.463   7.827 -0.1657  0.7615  0.6866
43553SOL     OW36495   4.881   5.922   1.744  0.8714 -0.5112 -0.3645
43553SOL    HW136496   4.841   5.889   1.663  0.4334 -2.2121  0.5010
43553SOL    HW236497   4.916   6.008   1.720 -1.9036  0.3833 -1.5653
43554SOL     OW36498  11.506   8.623   5.236 -0.1901 -0.0773 -0.2050
43554SOL    HW136499  11.473   8.646   5.149  0.4206 -0.8405 -0.6554
43554SOL    HW236500  11.484   8.530   5.246  2.2668 -0.8158 -0.7926
43555SOL     OW36501   2.852   2.082   9.566  0.2219 -0.3603  0.1342
43555SOL    HW136502   2.915   2.146   9.531 -0.1620 -0.7735 -1.3765
43555SOL    HW236503   2.797   2.133   9.625  1.6209  0.1228  1.0593
43556SOL     OW36504  11.023  11.358  11.214 -0.0393  0.2477  0.3156
43556SOL    HW136505  11.010  11.421  11.284  1.4932  1.2638 -0.2417
43556SOL    HW236506  11.008  11.272  11.254  0.1249  0.8518  1.7023
43557SOL     OW36507   5.954  10.793   5.047 -0.0331  0.2331  0.4424
43557SOL    HW136508   5.885  10.815   5.110  0.4895 -0.4098  1.2683
43557SOL    HW236509   5.907  10.769   4.967 -0.6718  2.2939  0.1364
43558SOL     OW36510   9.688   0.645   4.322 -0.0639 -0.7044  0.0946
43558SOL    HW136511   9.733   0.698   4.387 -0.8881 -0.0970  0.1808
43558SOL    HW236512   9.605   0.690   4.307 -1.2340 -2.4709  0.9050
43559SOL     OW36513   1.776   1.907   3.812 -0.0876  0.0789  0.2481
43559SOL    HW136514   1.868   1.886   3.794 -0.0679  0.2460  0.1497
43559SOL    HW236515   1.774   2.002   3.815 -0.5115  0.1449 -1.1479
43560SOL     OW36516   5.502   9.592  11.496 -0.3780  0.1502 -1.0205
43560SOL    HW136517   5.570   9.526  11.485 -0.8100 -0.8362  1.5905
43560SOL    HW236518   5.551   9.673  11.512  0.2105 -0.3212 -0.3287
43561SOL     OW36519  10.556   4.155  10.173  0.2397  0.4774  0.1972
43561SOL    HW136520  10.466   4.187  10.171  0.0443  0.0174  1.2026
43561SOL    HW236521  10.550   4.065  10.140  0.4545  0.6998 -0.4674
43562SOL     OW36522   1.006   0.439   7.333 -0.0994 -0.5353  0.4246
43562SOL    HW136523   1.048   0.510   7.381 -0.9073  0.8367 -0.7811
43562SOL    HW236524   1.044   0.359   7.368  1.7125  0.5426  1.0331
43563SOL     OW36525   2.435   2.201   4.132 -0.5746  0.6556 -0.4591
43563SOL    HW136526   2.463   2.147   4.058  0.9123 -1.4799  1.5289
43563SOL    HW236527   2.495   2.177   4.203 -0.9842  3.6931  1.0718
43564SOL     OW36528  10.477   7.718   1.039  0.2568 -0.3565 -0.0908
43564SOL    HW136529  10.533   7.725   1.116 -2.4153 -0.0487  1.9747
43564SOL    HW236530  10.476   7.806   1.002  0.1475 -0.0333  0.6511
43565SOL     OW36531   4.510   8.592   0.788  0.0335 -0.1765  0.2324
43565SOL    HW136532   4.514   8.505   0.747  1.8806  0.2363 -0.5751
43565SOL    HW236533   4.422   8.597   0.824  0.2283 -2.8693  1.3569
43566SOL     OW36534   7.451   2.113   9.319 -0.0414 -0.1199  0.4177
43566SOL    HW136535   7.442   2.141   9.410 -1.2188  0.8926  0.0221
43566SOL    HW236536   7.377   2.153   9.274  0.8316 -0.1186 -1.1103
43567SOL     OW36537   8.375   7.262   6.058 -0.0411 -0.0907  0.1382
43567SOL    HW136538   8.352   7.344   6.101 -2.4981 -1.4957  1.7066
43567SOL    HW236539   8.471   7.265   6.050  0.2217  1.6463  2.8287
43568SOL     OW36540  12.164   0.473   6.781 -0.0572 -0.1487  0.0965
43568SOL    HW136541  12.248   0.427   6.783 -0.5796 -1.1358 -0.0208
43568SOL    HW236542  12.117   0.434   6.707 -0.9107 -0.1385  0.6190
43569SOL     OW36543   9.517  12.289   7.454 -0.1031  0.2679  0.3515
43569SOL    HW136544   9.477  12.251   7.532  1.4323  0.0552  1.0698
43569SOL    HW236545   9.502  12.224   7.386 -2.2485  0.8412  0.1763
43570SOL     OW36546  12.291  10.117  11.975  0.5312  0.3770  0.3452
43570SOL    HW136547  12.378  10.076  11.980  0.2517 -0.0995  1.9261
43570SOL    HW236548  12.241  10.074  12.045  0.0586  3.0531  1.7573
43571SOL     OW36549   1.420   1.918   7.361 -0.2540  0.0995 -0.1749
43571SOL    HW136550   1.471   1.925   7.441  1.1991 -2.7171 -0.7311
43571SOL    HW236551   1.484   1.925   7.291 -1.1944  0.2056 -1.0470
43572SOL     OW36552   4.828   7.791   8.071  0.0535  0.3000  0.2903
43572SOL    HW136553   4.759   7.734   8.037  2.0177 -2.0770  0.0295
43572SOL    HW236554   4.809   7.799   8.164 -1.7096  1.4828 -0.1069
43573SOL     OW36555   7.350   0.134   5.079  0.9950 -0.3654  0.3373
43573SOL    HW136556   7.293   0.210   5.090  0.0979 -0.5395 -2.3948
43573SOL    HW236557   7.302   0.062   5.122  1.2557  0.3060  1.8169
43574SOL     OW36558   1.213   7.501   4.616 -0.1423 -0.0186 -0.6309
43574SOL    HW136559   1.179   7.547   4.540 -1.4926  0.8274  0.4339
43574SOL    HW236560   1.190   7.557   4.691 -0.7544 -1.7904  0.5974
43575SOL     OW36561   1.517   5.804   8.504 -0.4507  0.2085  0.0020
43575SOL    HW136562   1.549   5.739   8.441 -0.4664 -0.5503  0.7689
43575SOL    HW236563   1.586   5.870   8.508  0.0184 -0.2804 -0.0247
43576SOL     OW36564   8.593   0.635  12.124 -0.3809 -0.0848 -0.2426
43576SOL    HW136565   8.551   0.710  12.165  0.9298  0.9927 -0.7828
43576SOL    HW236566   8.572   0.642  12.031  1.4097  0.8276 -0.6231
43577SOL     OW36567   2.794   0.780  11.981 -0.1218  0.0740  0.2528
43577SOL    HW136568   2.887   0.758  11.991 -0.5005 -1.2998  0.9648
43577SOL    HW236569   2.789   0.873  12.004  0.8439 -0.2243  1.8803
43578SOL     OW36570   5.856   7.167   0.850 -0.0304 -0.5016 -0.0049
43578SOL    HW136571   5.899   7.117   0.781  0.8167 -0.6585  0.6110
43578SOL    HW236572   5.798   7.104   0.894  0.0652 -0.6158 -0.0436
43579SOL     OW36573   4.719   7.044   4.025  0.9926  0.0350  0.0923
43579SOL    HW136574   4.694   7.130   3.992  0.7206 -0.0557  0.0573
43579SOL    HW236575   4.691   7.045   4.117  0.7934 -0.0935  0.0337
43580SOL     OW36576  11.428   0.256   3.705 -0.7049  0.3907  0.0682
43580SOL    HW136577  11.375   0.327   3.742 -0.3741  0.6454  0.0689
43580SOL    HW236578  11.451   0.287   3.617 -0.8802  0.1121 -0.0763
43581SOL     OW36579   0.331   8.051   3.162  0.3259  0.3511  0.2809
43581SOL    HW136580   0.362   7.998   3.088 -1.4073 -0.3653  0.0051
43581SOL    HW236581   0.237   8.033   3.165  0.4521 -0.2239  3.1436
43582SOL     OW36582   4.340   2.375   9.428 -0.6712  0.3518 -0.3270
43582SOL    HW136583   4.302   2.301   9.474 -1.1003  0.9292  0.2750
43582SOL    HW236584   4.428   2.347   9.404 -0.3283  0.1517  1.1203
43583SOL     OW36585  11.989   3.517   6.834  0.4778 -0.1019 -0.2972
43583SOL    HW136586  12.055   3.499   6.902  0.6408  0.0873 -0.4049
43583SOL    HW236587  11.991   3.612   6.824 -2.1349  0.3188  2.0628
43584SOL     OW36588   0.354  11.610   8.805 -0.5698 -0.1485  0.1555
43584SOL    HW136589   0.331  11.555   8.730 -1.4811  0.6357 -0.1560
43584SOL    HW236590   0.290  11.586   8.872  0.0186 -0.5875  0.5669
43585SOL     OW36591   0.045   3.660   9.350 -0.5998  0.1578 -0.3245
43585SOL    HW136592  -0.041   3.641   9.312 -1.1691 -0.2379  1.1030
43585SOL    HW236593   0.037   3.633   9.441  0.7748  0.9349  0.0467
43586SOL     OW36594   1.846   5.735   6.253  0.5317  0.3380 -0.2330
43586SOL    HW136595   1.811   5.744   6.341  0.2469 -0.9648 -0.1911
43586SOL    HW236596   1.932   5.777   6.257 -0.0459  1.5324  0.2717
43587SOL     OW36597   8.438   6.868   8.068 -0.4757  0.4820 -0.0985
43587SOL    HW136598   8.469   6.950   8.028 -0.0488  0.4769  0.2156
43587SOL    HW236599   8.437   6.806   7.996 -0.1016  0.5792 -0.1914
43588SOL     OW36600   2.147   6.289   3.106 -0.2614  0.6915  0.0091
43588SOL    HW136601   2.133   6.235   3.028  1.3969  1.2711 -0.7531
43588SOL    HW236602   2.059   6.311   3.137 -0.9561 -0.2662 -1.1917
43589SOL     OW36603   1.590  10.305   8.594 -0.2471 -0.0944 -0.2417
43589SOL    HW136604   1.660  10.293   8.530 -0.2624  1.7847 -0.6391
43589SOL    HW236605   1.510  10.311   8.543 -0.2054  1.9168 -0.1334
43590SOL     OW36606   7.430  10.158  12.300  0.1624 -0.4333  0.1471
43590SOL    HW136607   7.345  10.200  12.311  0.6418  0.4786  0.4108
43590SOL    HW236608   7.416  10.069  12.333 -0.1962  0.2714  2.0469
43591SOL     OW36609   4.324   3.670   7.035  0.0616 -0.5003  0.5071
43591SOL    HW136610   4.318   3.722   6.955  0.0609 -1.8183 -0.3695
43591SOL    HW236611   4.268   3.717   7.098 -0.9670 -0.1455 -0.6420
43592SOL     OW36612   0.329   4.621   5.668 -0.0006  0.5659 -0.2520
43592SOL    HW136613   0.314   4.582   5.583 -1.4725  0.9828 -0.2030
43592SOL    HW236614   0.403   4.681   5.654 -0.2290  0.6311 -1.2272
43593SOL     OW36615  10.301   4.284   3.008 -0.3510  0.1396  0.5181
43593SOL    HW136616  10.205   4.287   3.011 -0.5947 -2.3414 -1.4956
43593SOL    HW236617  10.324   4.342   2.936 -0.3093  0.7334  0.9999
43594SOL     OW36618  10.050  11.263  10.113 -0.5000  0.0915  0.1309
43594SOL    HW136619  10.039  11.281  10.019 -1.3253 -0.1316  0.1793
43594SOL    HW236620  10.002  11.182  10.127  2.1821 -1.6212  0.1465
43595SOL     OW36621   9.845   1.765   6.994  0.0165 -0.5502 -0.4467
43595SOL    HW136622   9.793   1.759   6.914  0.2052 -3.5119 -0.4674
43595SOL    HW236623   9.900   1.686   6.992  1.2911  0.2112  1.7542
43596SOL     OW36624   7.028   4.039   3.795  0.2574  0.1870  0.3877
43596SOL    HW136625   6.952   3.994   3.759 -1.0564  1.0331  1.9639
43596SOL    HW236626   6.991   4.103   3.856  2.1763  1.6004  0.1460
43597SOL     OW36627   0.446   3.131  10.352  0.2840 -0.0537  0.0777
43597SOL    HW136628   0.388   3.150  10.278  1.0417  0.1771 -0.4678
43597SOL    HW236629   0.395   3.072  10.408 -0.8828  0.9924  0.1616
43598SOL     OW36630   2.722   2.894   8.482  0.3377 -0.5501  0.0136
43598SOL    HW136631   2.696   2.802   8.476  1.1182 -0.9641  2.0870
43598SOL    HW236632   2.802   2.893   8.535  1.7060  1.1286 -1.8532
43599SOL     OW36633   2.103  10.443   1.783 -0.0064  0.4134  0.8046
43599SOL    HW136634   2.091  10.425   1.876 -2.4123  1.1718  0.7228
43599SOL    HW236635   2.014  10.451   1.748  0.8200  0.5703 -1.4923
43600SOL     OW36636   7.232   1.043   9.411 -0.1988  0.0021  0.0442
43600SOL    HW136637   7.145   1.029   9.448 -0.9651 -0.6700 -1.8651
43600SOL    HW236638   7.265   0.955   9.392  1.4675  0.1643  1.8440
43601SOL     OW36639   9.453   8.096   6.669 -0.5599  0.1042  0.1578
43601SOL    HW136640   9.365   8.070   6.697 -1.1151  1.1104 -0.5947
43601SOL    HW236641   9.460   8.189   6.693  0.5445 -0.1188  0.7876
43602SOL     OW36642   7.091   6.913   6.915 -0.0464  0.0024  0.0357
43602SOL    HW136643   7.090   6.850   6.987 -0.9932 -0.6395 -0.5131
43602SOL    HW236644   7.147   6.984   6.946  0.7477 -0.9319  0.8170
43603SOL     OW36645   0.998   2.683   5.046 -0.3459 -0.1323  0.0693
43603SOL    HW136646   0.979   2.742   5.118  2.0747 -0.8031  1.3570
43603SOL    HW236647   1.016   2.741   4.972 -1.8545  0.5877  0.2295
43604SOL     OW36648   3.176   5.130  10.905 -0.1197 -0.0977  0.2771
43604SOL    HW136649   3.189   5.219  10.936  1.1079 -0.3216  0.4607
43604SOL    HW236650   3.167   5.138  10.810 -0.6499  0.2695  0.3526
43605SOL     OW36651   8.581   0.146   8.818  0.5261 -0.2517 -0.4379
43605SOL    HW136652   8.571   0.055   8.846  0.8634 -0.0959  0.2119
43605SOL    HW236653   8.659   0.176   8.863  0.1278  0.5172 -0.2452
43606SOL     OW36654   0.057   1.278   3.480  0.3166  0.1801  0.5759
43606SOL    HW136655  -0.033   1.268   3.513  0.1259 -1.7000 -0.3988
43606SOL    HW236656   0.111   1.241   3.549  0.0874 -1.5531 -0.1337
43607SOL     OW36657   8.929   3.623   6.659 -0.6839 -0.5511  0.0357
43607SOL    HW136658   8.889   3.682   6.595  0.0320 -0.3995 -0.2868
43607SOL    HW236659   8.867   3.620   6.731 -0.4418  1.1559  0.3622
43608SOL     OW36660  11.198  12.313  11.649  0.2063  0.0975  0.0855
43608SOL    HW136661  11.259  12.364  11.596  0.7105  0.3856  0.9203
43608SOL    HW236662  11.216  12.341  11.739  0.5601 -1.6233  0.5773
43609SOL     OW36663   0.884   0.855   1.154  0.2095 -0.0965  0.0290
43609SOL    HW136664   0.948   0.852   1.083  0.0451  0.6284 -0.1622
43609SOL    HW236665   0.937   0.857   1.234  0.4466  0.7976 -0.1357
43610SOL     OW36666   9.681   9.334   0.046  0.3142 -0.1997  0.1770
43610SOL    HW136667   9.669   9.383  -0.035 -1.2242 -1.0584 -0.1555
43610SOL    HW236668   9.593   9.304   0.069  0.8571 -0.7119  1.6928
43611SOL     OW36669   2.496   8.541   4.187  0.0973  0.1142 -0.1077
43611SOL    HW136670   2.553   8.561   4.113  0.5448 -1.2048 -0.1408
43611SOL    HW236671   2.435   8.614   4.190 -0.8181 -0.4214 -2.6500
43612SOL     OW36672   6.879   8.468   7.868 -0.0857 -0.2867 -0.0588
43612SOL    HW136673   6.949   8.406   7.847 -0.8023 -1.1560  0.0666
43612SOL    HW236674   6.808   8.414   7.900  0.1162  0.7886  2.4007
43613SOL     OW36675   0.741   8.718   2.549  0.5039  0.4740 -0.2508
43613SOL    HW136676   0.816   8.739   2.604 -0.3941 -0.0705  1.2381
43613SOL    HW236677   0.732   8.623   2.554  0.3702  0.4190 -1.3045
43614SOL     OW36678   6.924   3.030   7.095 -0.0451 -0.4864  0.0612
43614SOL    HW136679   6.931   3.045   7.001 -2.8361 -0.5558 -0.2434
43614SOL    HW236680   6.975   2.951   7.110  2.0014  0.5608 -1.0194
43615SOL     OW36681   6.862   0.761  10.812 -0.3564  0.3640 -0.2870
43615SOL    HW136682   6.875   0.667  10.824 -0.8817  0.3287  0.0123
43615SOL    HW236683   6.835   0.770  10.720  0.0971  0.2690 -0.4350
43616SOL     OW36684   7.786   2.771   2.725 -0.0380  0.3331 -0.4241
43616SOL    HW136685   7.822   2.770   2.814  2.2531  0.8244 -1.2672
43616SOL    HW236686   7.754   2.860   2.714 -3.3980 -0.5610  0.9408
43617SOL     OW36687  10.443   4.724   3.088  0.0597 -0.2026  0.0232
43617SOL    HW136688  10.375   4.658   3.078 -1.2653  0.7689  2.0529
43617SOL    HW236689  10.462   4.753   2.998 -0.4190 -2.1969 -0.7696
43618SOL     OW36690   3.131   9.486   0.570 -0.1140  0.4102  0.0595
43618SOL    HW136691   3.092   9.545   0.634  0.2574  1.3856 -0.5797
43618SOL    HW236692   3.183   9.544   0.514  1.1314 -0.6653  0.0614
43619SOL     OW36693   1.902   6.553   8.403 -0.4540  0.2120  0.3212
43619SOL    HW136694   1.884   6.513   8.318 -0.6931  1.6500 -0.3253
43619SOL    HW236695   1.962   6.492   8.446 -0.4858 -0.6283 -0.7950
43620SOL     OW36696   6.764   7.955   5.994 -1.0892  0.2883 -0.2599
43620SOL    HW136697   6.747   7.915   6.080 -0.5634 -0.0690 -0.3236
43620SOL    HW236698   6.843   8.008   6.007  0.4792 -1.7164 -1.1275
43621SOL     OW36699   7.634   2.546   2.759  0.0771  0.9798  0.9035
43621SOL    HW136700   7.596   2.551   2.848  1.2490  1.2035  1.4077
43621SOL    HW236701   7.671   2.633   2.745  0.1814  0.8412  0.3130
43622SOL     OW36702  10.071   4.624   2.818 -0.7141 -0.8712 -0.0757
43622SOL    HW136703  10.052   4.577   2.737 -2.4211 -1.0408  0.3720
43622SOL    HW236704  10.035   4.568   2.887  0.9968 -0.8938  0.8595
43623SOL     OW36705   9.602   4.855   1.288 -0.1315  0.2609  0.6833
43623SOL    HW136706   9.515   4.819   1.306 -0.1432  0.4209  0.9526
43623SOL    HW236707   9.653   4.780   1.257 -0.1659  0.0204  1.2035
43624SOL     OW36708   6.989   1.301  11.997 -0.4014  0.0392 -0.0589
43624SOL    HW136709   6.923   1.356  11.954 -0.8846 -0.5454 -0.0792
43624SOL    HW236710   7.043   1.268  11.926  0.6369  1.4307  0.0553
43625SOL     OW36711   9.195  12.289  10.626 -0.1026 -0.1652  0.0109
43625SOL    HW136712   9.246  12.209  10.610 -1.3341 -0.9055 -0.3324
43625SOL    HW236713   9.190  12.295  10.721  0.5716 -0.1095  0.0499
43626SOL     OW36714   8.213   2.260   8.063  0.9610  0.7196 -0.5514
43626SOL    HW136715   8.125   2.255   8.100  1.3538  1.2288  0.4799
43626SOL    HW236716   8.198   2.265   7.968 -0.0697 -0.2256 -0.4590
43627SOL     OW36717   3.953   6.988   6.453  0.0041 -0.4635  0.2930
43627SOL    HW136718   3.897   6.960   6.526 -0.4466 -1.2183 -0.3242
43627SOL    HW236719   3.996   6.908   6.423  0.7406 -0.0355  0.1826
43628SOL     OW36720   7.750   5.182   1.411  0.5692 -0.1597 -0.4662
43628SOL    HW136721   7.754   5.106   1.355 -0.4798 -0.3644 -0.2896
43628SOL    HW236722   7.664   5.220   1.394  0.8926  0.7193 -0.2138
43629SOL     OW36723   4.252   7.255   4.466  0.1363  0.2423 -0.3802
43629SOL    HW136724   4.228   7.217   4.551  1.1032  0.3233 -0.0514
43629SOL    HW236725   4.337   7.296   4.482  0.3192  0.2815 -1.3872
43630SOL     OW36726   1.676   2.663   3.254  0.3644 -0.3155  0.2072
43630SOL    HW136727   1.743   2.720   3.293 -0.4085  1.0630 -0.4226
43630SOL    HW236728   1.600   2.674   3.311 -0.3138  0.5912 -0.8405
43631SOL     OW36729   6.169   0.428  11.064  1.0391 -0.3792 -0.1648
43631SOL    HW136730   6.254   0.414  11.021  2.0247  1.5913  0.9956
43631SOL    HW236731   6.119   0.480  11.002  1.3917  0.0354 -0.1088
43632SOL     OW36732   0.333   2.119   1.256 -0.5396  0.3635  0.0866
43632SOL    HW136733   0.360   2.043   1.308  1.3636  1.6253  1.0453
43632SOL    HW236734   0.415   2.160   1.228 -1.5207  1.7297 -0.9245
43633SOL     OW36735  11.957   4.091   1.327 -0.2220  0.1669  0.0553
43633SOL    HW136736  12.005   4.130   1.401  0.7448 -0.3878 -0.2528
43633SOL    HW236737  11.955   4.159   1.261  0.6304  0.0413 -0.1228
43634SOL     OW36738   1.277   8.806   3.799  0.0236  0.9218 -0.3698
43634SOL    HW136739   1.282   8.750   3.721 -2.0299  1.1772 -0.7332
43634SOL    HW236740   1.241   8.889   3.767 -2.3138  0.5309  1.0262
43635SOL     OW36741   6.219  10.610  11.029 -0.4525  0.5910 -0.0893
43635SOL    HW136742   6.239  10.551  10.956  0.3683 -0.3378  0.8522
43635SOL    HW236743   6.129  10.588  11.054  0.2942 -1.3349  1.1543
43636SOL     OW36744   0.741   1.600   5.735  0.6052 -1.1459 -0.5768
43636SOL    HW136745   0.727   1.574   5.826  2.0800  2.7839  1.0050
43636SOL    HW236746   0.830   1.570   5.715  1.3254  0.2377  0.3371
43637SOL     OW36747  11.996   6.659   6.552  0.3606  0.5222  0.7976
43637SOL    HW136748  11.998   6.633   6.460  0.5827  0.1748  0.8960
43637SOL    HW236749  11.914   6.706   6.563  0.4370  0.7578  0.3683
43638SOL     OW36750   9.965  11.615  11.222 -0.4455 -1.1364 -0.2179
43638SOL    HW136751   9.958  11.708  11.241 -1.7001 -1.0485 -1.0119
43638SOL    HW236752   9.905  11.572  11.283 -0.7072 -1.3141 -0.5944
43639SOL     OW36753   4.220  10.940   9.514 -0.0799  0.2031  0.0377
43639SOL    HW136754   4.142  10.986   9.548  0.1325  2.1171 -1.8377
43639SOL    HW236755   4.292  10.978   9.563 -0.1641 -0.4254  0.6650
43640SOL     OW36756   7.192   0.454  12.165  0.3000 -0.1734 -0.0524
43640SOL    HW136757   7.109   0.454  12.213  0.2303 -1.3538 -0.1414
43640SOL    HW236758   7.218   0.362  12.161  2.5631  0.2954  1.5639
43641SOL     OW36759   0.734   5.519   5.226 -0.0720  0.0647 -0.5428
43641SOL    HW136760   0.824   5.551   5.223  0.6779 -1.8602  0.2031
43641SOL    HW236761   0.741   5.426   5.246 -2.2810  0.2509  1.6543
43642SOL     OW36762  11.177   8.071  11.215  0.4640 -0.5591  0.2493
43642SOL    HW136763  11.127   8.148  11.191 -1.3662 -1.8200 -0.1713
43642SOL    HW236764  11.204   8.087  11.305 -0.8479  0.1074  0.5448
43643SOL     OW36765   4.013  10.794   6.691  0.5073  0.7137  0.7272
43643SOL    HW136766   4.033  10.830   6.605 -1.6324 -0.5267 -0.3824
43643SOL    HW236767   4.027  10.867   6.751  1.9315  1.6443 -0.6709
43644SOL     OW36768   8.306   3.716   0.800  0.4985 -0.4088 -1.1987
43644SOL    HW136769   8.255   3.744   0.725  0.6567 -0.4803 -1.3332
43644SOL    HW236770   8.297   3.620   0.802  0.5036 -0.4085 -1.1331
43645SOL     OW36771   2.357  10.200   8.934  0.1613  0.4482 -0.1664
43645SOL    HW136772   2.277  10.151   8.953  1.1500 -1.3018 -0.3568
43645SOL    HW236773   2.357  10.209   8.838  1.4304 -1.8599 -0.4483
43646SOL     OW36774   7.771   3.796   7.842  0.0422 -0.1543  0.2459
43646SOL    HW136775   7.769   3.875   7.895  0.1949  0.5623 -0.7857
43646SOL    HW236776   7.860   3.793   7.807 -0.5870  0.4697 -1.5216
43647SOL     OW36777   9.665   5.228   7.378 -0.3969 -0.0256  0.1346
43647SOL    HW136778   9.688   5.160   7.442 -0.3213 -0.8299 -0.7206
43647SOL    HW236779   9.743   5.237   7.323  0.2765  2.0872  1.3265
43648SOL     OW36780   2.561   9.192  11.517 -0.3370  1.0537 -0.3745
43648SOL    HW136781   2.563   9.109  11.566  0.6037  0.9053 -0.6568
43648SOL    HW236782   2.476   9.191  11.473 -1.0566  1.0248  0.9548
43649SOL     OW36783   7.592   8.363  10.528 -0.3713  0.3240  0.3670
43649SOL    HW136784   7.656   8.294  10.545 -1.3347 -0.5798  0.3499
43649SOL    HW236785   7.638   8.444  10.551  0.9501 -0.2622 -0.1199
43650SOL     OW36786   7.847   5.522   3.263 -0.1166  0.3502  0.1403
43650SOL    HW136787   7.890   5.604   3.237 -1.8443  1.7284  1.4074
43650SOL    HW236788   7.905   5.453   3.230  1.6743  2.0729 -0.4997
43651SOL     OW36789   0.551   2.033  11.289  0.1697  0.5000 -0.6594
43651SOL    HW136790   0.457   2.018  11.292  0.4133 -0.9033  0.9278
43651SOL    HW236791   0.575   2.057  11.378  1.3397  0.7012 -1.0071
43652SOL     OW36792  12.226   6.296  11.550  0.2238 -0.4103 -0.3611
43652SOL    HW136793  12.162   6.286  11.480  1.5802 -0.4980 -1.6503
43652SOL    HW236794  12.279   6.371  11.523  1.4224 -1.0885  0.0236
43653SOL     OW36795   1.326   3.343   0.451 -0.4883 -0.1830 -0.2338
43653SOL    HW136796   1.385   3.283   0.495 -0.1772 -0.2092 -0.6862
43653SOL    HW236797   1.257   3.361   0.516 -0.6048 -1.0519 -0.1132
43654SOL     OW36798   6.009  10.265   5.643  0.0583  0.2928 -0.1274
43654SOL    HW136799   5.963  10.294   5.722 -0.2800 -0.5372 -0.0157
43654SOL    HW236800   6.015  10.170   5.651  2.5812  0.4077  0.2825
43655SOL     OW36801   1.642   1.261   6.936 -0.5429 -0.2481  0.2114
43655SOL    HW136802   1.550   1.289   6.933 -0.0162  1.5343 -0.5587
43655SOL    HW236803   1.674   1.275   6.847  0.0193 -2.6559 -0.0412
43656SOL     OW36804   7.870   8.311   9.539 -0.5961  0.2858  0.4446
43656SOL    HW136805   7.962   8.283   9.532 -0.9034 -0.4687 -1.1094
43656SOL    HW236806   7.875   8.406   9.552  0.4260  0.5663 -1.5419
43657SOL     OW36807  12.297   7.233  10.699 -0.3506  0.2174 -0.1092
43657SOL    HW136808  12.237   7.286  10.647  0.3399 -1.6689 -3.0506
43657SOL    HW236809  12.265   7.143  10.690  1.6732 -0.5687 -0.0270
43658SOL     OW36810   9.271   8.447   0.993  0.3435  0.5007 -0.3650
43658SOL    HW136811   9.263   8.442   1.088  2.8815 -0.9253 -0.1534
43658SOL    HW236812   9.192   8.404   0.960 -1.1149  1.9860  1.0208
43659SOL     OW36813   8.821   5.912   3.317  0.1936 -0.1031  0.2659
43659SOL    HW136814   8.803   6.005   3.327  0.3984 -0.0124 -0.1547
43659SOL    HW236815   8.857   5.884   3.401 -1.8096 -0.2782  1.1201
43660SOL     OW36816   2.701   1.967   7.192  0.1095  0.4225  0.1390
43660SOL    HW136817   2.708   1.898   7.126 -3.7889 -0.2428  0.1979
43660SOL    HW236818   2.654   2.038   7.148 -0.7661  0.7893  1.5926
43661SOL     OW36819   9.979   0.738  10.302 -0.1025 -0.7867 -0.0768
43661SOL    HW136820  10.043   0.757  10.233 -0.8861 -0.6197 -0.7765
43661SOL    HW236821   9.899   0.782  10.273 -1.1322 -2.6510 -0.2716
43662SOL     OW36822   2.686  10.242  10.331 -0.4366  0.4317 -0.7095
43662SOL    HW136823   2.693  10.302  10.256 -0.9604  0.4017 -0.7867
43662SOL    HW236824   2.644  10.164  10.295 -1.7366  0.8396 -0.1601
43663SOL     OW36825   4.827   3.402   2.408  0.1964 -0.0175  0.6968
43663SOL    HW136826   4.797   3.479   2.456  0.1504 -0.3604  1.2166
43663SOL    HW236827   4.747   3.355   2.387  0.0419  0.9777 -1.2053
43664SOL     OW36828   1.525   2.199  10.566  0.5243  0.1188 -0.2216
43664SOL    HW136829   1.584   2.269  10.594  0.9923  0.2490 -1.4707
43664SOL    HW236830   1.576   2.118  10.579  1.0268  0.2342 -1.3447
43665SOL     OW36831   2.049   2.953   3.792 -0.5153 -0.0433 -0.4604
43665SOL    HW136832   2.018   2.923   3.877  0.1949  0.7029  0.0753
43665SOL    HW236833   2.050   3.048   3.799 -2.0861  0.1249 -1.8982
43666SOL     OW36834   9.155   3.992   2.317 -0.3515 -0.1751  0.0628
43666SOL    HW136835   9.103   3.981   2.396  0.3121 -1.1649  0.3807
43666SOL    HW236836   9.132   3.917   2.263 -1.1979  0.7687 -0.9435
43667SOL     OW36837   8.650   3.020  12.119  0.3803 -0.3969  0.0007
43667SOL    HW136838   8.650   3.086  12.049  1.7325  0.8177  1.0821
43667SOL    HW236839   8.615   2.942  12.077  1.2032  0.2511 -2.0737
43668SOL     OW36840   8.450   5.134   9.490  0.5641  0.1419  0.0380
43668SOL    HW136841   8.449   5.229   9.482 -0.8803  0.1538  0.1268
43668SOL    HW236842   8.485   5.118   9.577  1.0290  0.5730 -0.0621
43669SOL     OW36843   8.312  10.453   4.595 -0.2099 -1.0061  0.2546
43669SOL    HW136844   8.387  10.430   4.650  0.6472 -0.4870 -0.6641
43669SOL    HW236845   8.322  10.401   4.516  1.5782  2.0268 -1.7124
43670SOL     OW36846  10.393   1.990   1.992 -1.0949 -0.1757 -0.4275
43670SOL    HW136847  10.319   2.048   1.973 -0.7322  0.8855  1.1754
43670SOL    HW236848  10.392   1.925   1.921 -2.0438  1.2743 -1.8049
43671SOL     OW36849  11.473   3.996   0.227  0.1456 -0.0775 -0.3192
43671SOL    HW136850  11.417   4.055   0.278 -0.3633  0.1167 -1.0808
43671SOL    HW236851  11.439   3.909   0.245 -0.6980  0.0721 -1.1075
43672SOL     OW36852   9.530   5.767   7.727 -0.0641 -0.0225 -0.0929
43672SOL    HW136853   9.511   5.832   7.795 -1.2948 -0.8339  0.3907
43672SOL    HW236854   9.443   5.735   7.701  0.4369 -0.2795 -1.5026
43673SOL     OW36855   2.426   0.582   5.277 -0.0539 -0.2834  0.4368
43673SOL    HW136856   2.371   0.569   5.200 -0.0287  0.3551  0.3078
43673SOL    HW236857   2.463   0.495   5.296  0.8895 -0.2199 -0.9859
43674SOL     OW36858  11.589   9.202   2.973 -0.2591 -0.5069  0.3525
43674SOL    HW136859  11.617   9.238   2.888  0.0930  0.5031  0.8799
43674SOL    HW236860  11.642   9.123   2.984  0.3551 -0.1503  0.0437
43675SOL     OW36861   7.368  11.643   8.740  0.1718 -0.1858 -0.1048
43675SOL    HW136862   7.376  11.581   8.812  1.7567  2.0193  1.7835
43675SOL    HW236863   7.454  11.642   8.698 -0.8811 -1.8366 -2.4482
43676SOL     OW36864   5.980   0.550   9.286  0.2306  0.1359  0.0625
43676SOL    HW136865   5.901   0.521   9.240 -1.2903 -1.8541  3.4999
43676SOL    HW236866   6.045   0.482   9.269  0.2094  0.2443 -0.4431
43677SOL     OW36867   3.921  10.353   6.928 -0.3236  0.1002 -0.3960
43677SOL    HW136868   3.982  10.425   6.939 -1.6789  1.0573  1.2384
43677SOL    HW236869   3.940  10.319   6.840  0.4036  2.3701 -1.1773
43678SOL     OW36870   2.343   3.515  12.190  0.7569 -0.4518  0.1569
43678SOL    HW136871   2.382   3.451  12.250 -0.3127 -0.7414  0.5611
43678SOL    HW236872   2.274   3.467  12.145 -0.0553  0.4010  0.4519
43679SOL     OW36873   7.469   9.441   2.358 -0.5008 -0.1185 -0.0115
43679SOL    HW136874   7.457   9.535   2.376 -0.3412 -0.2513  0.8634
43679SOL    HW236875   7.554   9.421   2.397 -1.1302 -0.9094  0.9980
43680SOL     OW36876   0.485   0.694   4.702  0.2510 -0.2378  0.1987
43680SOL    HW136877   0.484   0.790   4.706 -0.8569 -0.1489 -1.4785
43680SOL    HW236878   0.524   0.668   4.785  0.3514  1.6542  0.8032
43681SOL     OW36879   5.393   5.844  11.608 -0.5605 -1.3440 -0.0356
43681SOL    HW136880   5.449   5.834  11.531 -0.1126  0.6005 -0.0143
43681SOL    HW236881   5.306   5.861  11.572 -0.3406 -0.3760 -0.1606
43682SOL     OW36882   0.293   9.990   3.879 -0.2595 -0.1147 -0.3613
43682SOL    HW136883   0.247   9.906   3.879 -0.1262 -0.1880  0.0543
43682SOL    HW236884   0.240  10.046   3.822 -0.9488 -0.1557  0.2270
43683SOL     OW36885   7.373   7.216  10.819  0.5606 -0.2734 -0.1536
43683SOL    HW136886   7.400   7.286  10.878  2.3843  0.0906 -1.3632
43683SOL    HW236887   7.385   7.136  10.870 -1.7076  0.2062  1.2966
43684SOL     OW36888   3.466   6.706   0.883  1.3019  0.7632 -0.5674
43684SOL    HW136889   3.445   6.797   0.906 -0.7898  0.3012 -0.4733
43684SOL    HW236890   3.491   6.665   0.966 -1.1923  0.4040  0.0635
43685SOL     OW36891   8.731   6.060   8.093 -0.0645 -0.2176  0.0990
43685SOL    HW136892   8.796   6.097   8.034 -0.3510 -1.4381 -1.0180
43685SOL    HW236893   8.651   6.109   8.073  0.1638  0.3284  0.4888
43686SOL     OW36894   4.825   6.008   7.507 -0.3200  0.3581  0.0059
43686SOL    HW136895   4.801   5.936   7.448 -1.2448  1.1996 -0.6781
43686SOL    HW236896   4.896   5.972   7.560  0.0797 -0.6625 -1.1511
43687SOL     OW36897  12.314   4.248   4.365  0.0658 -0.3461 -0.1427
43687SOL    HW136898  12.270   4.198   4.297 -4.1566  0.0027  1.9992
43687SOL    HW236899  12.335   4.332   4.324 -0.5925 -0.8296 -1.5073
43688SOL     OW36900   3.308   1.869   2.667  0.4023  0.2186  0.2257
43688SOL    HW136901   3.287   1.889   2.576 -2.0891 -0.1211  0.6772
43688SOL    HW236902   3.294   1.951   2.714 -4.0079 -0.7783  1.1135
43689SOL     OW36903   5.347   6.611   7.540  0.1043 -0.4186  0.1127
43689SOL    HW136904   5.387   6.568   7.464 -0.4948 -3.1848  1.2306
43689SOL    HW236905   5.398   6.691   7.552  0.3401  0.0219 -3.0277
43690SOL     OW36906   8.434   1.645  10.781 -0.1817  0.3815  0.2929
43690SOL    HW136907   8.354   1.659  10.832 -0.6376  1.5571 -0.6762
43690SOL    HW236908   8.495   1.604  10.842 -1.4251 -0.2827  1.1347
43691SOL     OW36909   4.457   4.196  11.624 -0.0191  0.1157  0.2877
43691SOL    HW136910   4.368   4.163  11.640  0.0235 -0.3710 -0.4637
43691SOL    HW236911   4.514   4.121  11.636  0.1899  0.1793 -0.2798
43692SOL     OW36912   4.701   7.699   2.443  0.8356 -0.1420  0.2444
43692SOL    HW136913   4.618   7.659   2.467  1.4474 -0.2603  2.3576
43692SOL    HW236914   4.747   7.631   2.393  0.3104 -0.6837  0.4835
43693SOL     OW36915  10.418   2.851   3.540  0.0676 -0.0500 -0.1658
43693SOL    HW136916  10.355   2.781   3.554 -1.7658  1.5848  0.2349
43693SOL    HW236917  10.431   2.853   3.445 -0.3311 -0.5424 -0.2330
43694SOL     OW36918  10.318   4.847   4.479 -0.1694  0.6094  0.0440
43694SOL    HW136919  10.279   4.782   4.538 -0.7000 -0.0444 -1.0153
43694SOL    HW236920  10.405   4.864   4.516 -0.9476  1.1715  1.7407
43695SOL     OW36921   6.614   9.695   1.602 -0.2739 -0.3858 -0.5884
43695SOL    HW136922   6.559   9.746   1.543  0.4382  0.0982 -0.8334
43695SOL    HW236923   6.610   9.742   1.685  0.9524  0.4877 -1.0015
43696SOL     OW36924   0.911  10.912   3.289 -0.1053  0.1690 -0.3684
43696SOL    HW136925   0.897  10.984   3.227 -2.6625  1.1164  1.1762
43696SOL    HW236926   0.906  10.953   3.375 -1.2450 -1.7777  0.5487
43697SOL     OW36927  10.363  11.685   1.247 -0.5932  0.0673 -0.0797
43697SOL    HW136928  10.391  11.598   1.273 -0.6271  0.0390 -0.1360
43697SOL    HW236929  10.435  11.743   1.271 -0.9251  0.1464  0.7477
43698SOL     OW36930   5.326   8.975   2.267  0.4696  0.1075  0.4960
43698SOL    HW136931   5.246   8.988   2.215 -0.2407  0.1543  1.5711
43698SOL    HW236932   5.397   9.005   2.210 -0.3954  1.2131 -0.0354
43699SOL     OW36933   8.922   5.038   7.907  0.3056  0.0887 -0.1964
43699SOL    HW136934   9.008   4.996   7.912  1.0706  1.5667 -0.3541
43699SOL    HW236935   8.941   5.132   7.918 -1.0615  0.6464 -2.1704
43700SOL     OW36936   9.936   1.190   5.316  0.6347 -0.3727 -0.3201
43700SOL    HW136937  10.014   1.238   5.288  0.3759  1.0366  1.2310
43700SOL    HW236938   9.869   1.257   5.325 -0.0887 -1.1956  0.6795
43701SOL     OW36939   6.068   5.772   7.058  0.0513 -0.3612 -0.3939
43701SOL    HW136940   6.058   5.826   7.137  1.0270  3.0794 -2.4380
43701SOL    HW236941   6.162   5.762   7.047 -0.0457 -0.0824 -1.5691
43702SOL     OW36942  11.179   0.192   3.959 -0.1180  0.0962 -0.0922
43702SOL    HW136943  11.207   0.125   4.022 -1.1664 -0.9775 -0.7065
43702SOL    HW236944  11.238   0.265   3.973  0.5029 -0.6234  1.2326
43703SOL     OW36945   1.863   8.993   6.194  0.3506 -0.4807 -0.1154
43703SOL    HW136946   1.872   9.087   6.208 -0.1990 -0.4843  0.2795
43703SOL    HW236947   1.805   8.963   6.264  0.5407 -1.1196 -0.2200
43704SOL     OW36948   4.144   4.603   5.257 -0.3341  0.5226  0.1130
43704SOL    HW136949   4.060   4.572   5.292 -0.0947 -0.1758  0.0925
43704SOL    HW236950   4.181   4.526   5.214  0.9263  0.4603  1.2745
43705SOL     OW36951   0.839   7.125   0.606 -1.0580  0.0631 -0.6775
43705SOL    HW136952   0.869   7.082   0.687 -0.5455 -1.1920 -1.4996
43705SOL    HW236953   0.919   7.164   0.570 -1.3837  1.0767 -0.3274
43706SOL     OW36954  12.320  11.854   0.278  0.3221 -0.3384 -0.1714
43706SOL    HW136955  12.314  11.947   0.301 -0.3795 -0.2097 -0.8357
43706SOL    HW236956  12.342  11.811   0.361 -1.7829  0.1476  0.7069
43707SOL     OW36957   1.679   4.552   5.780 -0.2350  0.6921  0.0298
43707SOL    HW136958   1.587   4.541   5.803 -0.2473 -0.0321 -0.3135
43707SOL    HW236959   1.677   4.598   5.696 -0.3258 -0.1824 -0.4588
43708SOL     OW36960   7.785  11.566   1.889 -0.1721  0.3275 -0.4136
43708SOL    HW136961   7.831  11.548   1.807 -0.6399 -0.3940 -0.5356
43708SOL    HW236962   7.850  11.608   1.945  0.1610  0.7984 -1.1423
43709SOL     OW36963   8.375  10.968   5.082  0.3089  0.2357  0.0453
43709SOL    HW136964   8.384  11.013   4.998  2.0280 -2.3831 -1.2948
43709SOL    HW236965   8.449  10.998   5.134  0.1213  0.6977  0.0473
43710SOL     OW36966   4.864   8.951   1.949 -0.1989  0.0823 -0.0104
43710SOL    HW136967   4.930   8.883   1.939  0.8294  0.8227  1.4262
43710SOL    HW236968   4.789   8.906   1.989  0.3577 -0.2891  0.6367
43711SOL     OW36969   1.509   3.212  12.063  0.3527 -0.4382 -0.1762
43711SOL    HW136970   1.519   3.181  12.153 -2.9128 -0.7398  0.2007
43711SOL    HW236971   1.482   3.304  12.071  1.6446  0.0427 -0.9589
43712SOL     OW36972   2.667   7.206   9.696 -0.2366  0.3685 -0.2823
43712SOL    HW136973   2.633   7.213   9.607 -0.6008 -1.3508 -0.3129
43712SOL    HW236974   2.590   7.218   9.752 -0.0212  1.3678 -0.1702
43713SOL     OW36975   8.910   7.231   8.493  0.0829  0.2420 -0.2545
43713SOL    HW136976   8.820   7.205   8.512 -0.2562  1.9622  0.6436
43713SOL    HW236977   8.908   7.260   8.401 -0.1696 -0.1611 -0.3774
43714SOL     OW36978   2.443   0.531  10.851 -0.8265  0.2551  0.0870
43714SOL    HW136979   2.410   0.458  10.903 -2.6774 -0.0572 -1.4291
43714SOL    HW236980   2.488   0.489  10.777 -1.4436  0.6264 -0.5099
43715SOL     OW36981   3.288   3.909   3.510 -0.0611 -0.3701  0.0660
43715SOL    HW136982   3.263   3.833   3.563 -1.1776 -2.3709 -3.0389
43715SOL    HW236983   3.218   3.917   3.445 -1.5166  5.1767  1.7995
43716SOL     OW36984   4.791   8.873   6.482  0.2633  0.2429  1.2226
43716SOL    HW136985   4.739   8.900   6.558 -0.4342 -0.1434  0.8853
43716SOL    HW236986   4.873   8.841   6.520  0.5642  1.5404  1.7110
43717SOL     OW36987   6.692   4.681   9.758 -0.1374  0.1479 -0.1650
43717SOL    HW136988   6.644   4.601   9.735 -2.3136  1.0647  0.9005
43717SOL    HW236989   6.781   4.665   9.726 -0.4332 -2.7574  0.1374
43718SOL     OW36990   3.254   5.739  11.507  0.1358  0.2437 -0.2964
43718SOL    HW136991   3.220   5.778  11.587  1.4164  0.3084  0.2506
43718SOL    HW236992   3.246   5.644  11.521 -1.2992  0.2626 -0.8656
43719SOL     OW36993   7.956   0.514   6.327 -0.7087 -0.1363 -0.3633
43719SOL    HW136994   7.969   0.599   6.368  1.0475 -1.5349  2.2787
43719SOL    HW236995   7.872   0.483   6.361 -1.0521  0.2706 -0.8339
43720SOL     OW36996   8.733   6.142   1.693 -0.2357 -0.3466 -0.3294
43720SOL    HW136997   8.667   6.078   1.666 -0.0699 -0.3266 -0.7821
43720SOL    HW236998   8.802   6.090   1.734 -0.8056 -0.3137  0.6895
43721SOL     OW36999   1.553   3.139   7.370 -0.3520  0.6701 -0.0251
43721SOL    HW137000   1.571   3.087   7.292 -1.2612  2.0719 -1.2322
43721SOL    HW237001   1.479   3.095   7.412 -1.0279  0.8772 -0.9542
43722SOL     OW37002  11.166   1.146   4.345 -0.5719 -0.4019 -0.1161
43722SOL    HW137003  11.249   1.188   4.367 -0.9264  0.5482 -0.5370
43722SOL    HW237004  11.099   1.205   4.379 -1.0922 -0.3680 -1.1393
43723SOL     OW37005   9.927   8.628   6.006  0.6722 -0.2909  0.6749
43723SOL    HW137006   9.873   8.707   6.011 -0.2246 -0.8498  0.1097
43723SOL    HW237007   9.945   8.616   5.913 -0.2643 -1.4277  0.6150
43724SOL     OW37008   1.244   3.928   2.985 -0.3411  0.0602 -0.1118
43724SOL    HW137009   1.203   3.854   2.940  0.1491  0.2390 -0.8613
43724SOL    HW237010   1.175   3.963   3.041 -0.5248 -1.0854  0.4053
43725SOL     OW37011  10.999   0.772  11.343 -0.5803 -0.2409  0.1431
43725SOL    HW137012  10.955   0.793  11.260 -3.0376  0.3657  1.4998
43725SOL    HW237013  10.969   0.684  11.364 -1.0703  0.1220  1.0208
43726SOL     OW37014   2.536   5.102  12.059 -0.7521  0.4630  0.3564
43726SOL    HW137015   2.550   5.029  11.999 -1.8526  0.4706  0.0650
43726SOL    HW237016   2.446   5.131  12.041 -0.5139  1.5551  0.8250
43727SOL     OW37017   3.303   7.290   8.281  0.2737 -0.3372  0.1815
43727SOL    HW137018   3.265   7.254   8.201  2.0940 -0.2221 -0.7850
43727SOL    HW237019   3.229   7.333   8.325 -1.2766 -2.5084 -0.1676
43728SOL     OW37020   8.159   9.452   8.506  0.3517  0.0002 -0.0752
43728SOL    HW137021   8.198   9.456   8.419 -0.2116  0.0189 -0.3311
43728SOL    HW237022   8.146   9.544   8.531  2.0520  0.0542  0.7449
43729SOL     OW37023   0.142   5.099   2.950 -0.5232 -0.2628  0.3220
43729SOL    HW137024   0.212   5.073   2.889 -0.7844 -1.1827  0.3905
43729SOL    HW237025   0.082   5.152   2.897  0.5039  1.0253  0.4056
43730SOL     OW37026   6.410  11.387  10.648 -0.1395 -0.0069  0.1105
43730SOL    HW137027   6.410  11.436  10.565  1.0139  1.2804  0.8305
43730SOL    HW237028   6.349  11.315  10.633  0.6310 -0.2686 -2.1389
43731SOL     OW37029   6.576   1.381   0.340 -0.2278  0.1817  0.1025
43731SOL    HW137030   6.566   1.315   0.271  0.7042  0.7616 -0.6188
43731SOL    HW237031   6.668   1.407   0.334 -0.2847  0.6605  1.1965
43732SOL     OW37032   3.637   7.941   6.076 -0.1641  0.1864  0.2939
43732SOL    HW137033   3.673   7.924   6.163 -0.8012 -0.7516  0.3908
43732SOL    HW237034   3.572   8.010   6.090 -1.3131 -0.9557  0.8451
43733SOL     OW37035  10.484   4.799   7.879 -0.6970 -0.0248  0.4637
43733SOL    HW137036  10.434   4.881   7.883 -0.3419  0.1696  1.0919
43733SOL    HW237037  10.427   4.734   7.920 -2.3502 -0.8595 -2.8301
43734SOL     OW37038   7.591   2.194  10.620  0.0373  0.0865 -0.7586
43734SOL    HW137039   7.640   2.268  10.657  0.2609 -0.4252 -0.0112
43734SOL    HW237040   7.520   2.234  10.571  0.9710  0.8430 -1.5382
43735SOL     OW37041   4.817   4.308   9.111 -0.1826  0.2111  0.1075
43735SOL    HW137042   4.795   4.226   9.156  0.7403  0.2827  0.6976
43735SOL    HW237043   4.733   4.337   9.075 -1.0609  0.3750  2.1503
43736SOL     OW37044   4.252  10.048   5.048 -0.1395 -0.1382 -0.3364
43736SOL    HW137045   4.302   9.989   4.992 -0.5261  1.4180 -2.4503
43736SOL    HW237046   4.174  10.069   4.997 -0.4493  1.4659  0.7198
43737SOL     OW37047  10.241   8.550   2.606  0.2183  0.6203  0.5327
43737SOL    HW137048  10.246   8.584   2.695  0.0764 -0.2801  0.8984
43737SOL    HW237049  10.333   8.541   2.578  0.3945  5.1310 -1.1485
43738SOL     OW37050  12.102   1.118   9.958 -0.6520  0.5323 -0.2667
43738SOL    HW137051  12.157   1.075   9.893 -0.7052  1.5721 -1.0237
43738SOL    HW237052  12.014   1.087   9.940 -0.5884  0.3892 -0.3311
43739SOL     OW37053  11.863   0.630   7.705 -0.3601  0.6251 -0.0622
43739SOL    HW137054  11.949   0.588   7.696  0.4785  2.5889 -1.9975
43739SOL    HW237055  11.839   0.614   7.796  1.6836 -0.6436  0.3366
43740SOL     OW37056   8.984   1.235   7.440 -0.0457  0.3663 -0.0445
43740SOL    HW137057   9.054   1.246   7.375 -0.8460 -0.2235 -1.0326
43740SOL    HW237058   9.005   1.299   7.508  0.9679  0.8140 -0.7464
43741SOL     OW37059   8.250  10.436   2.160  0.7841  0.9336  0.7974
43741SOL    HW137060   8.252  10.340   2.165  1.9573  0.9207  0.4362
43741SOL    HW237061   8.314  10.458   2.092  0.9366  2.0037  1.2691
43742SOL     OW37062   9.582   6.874   0.163  0.3685  0.3452 -0.1512
43742SOL    HW137063   9.550   6.956   0.126  2.7247  1.8237  0.8808
43742SOL    HW237064   9.607   6.821   0.087  0.4753  1.2963 -0.7891
43743SOL     OW37065   1.310   2.876   9.016  0.5410 -0.2574 -0.7858
43743SOL    HW137066   1.342   2.966   9.027  1.5528 -0.6483 -0.4427
43743SOL    HW237067   1.295   2.845   9.105 -0.9546 -0.0443 -0.9434
43744SOL     OW37068  11.303  10.567   3.945 -0.2907  0.1726 -0.3053
43744SOL    HW137069  11.312  10.643   3.888 -4.2732  1.8456  0.9340
43744SOL    HW237070  11.372  10.578   4.011  0.7360  1.3614 -1.5252
43745SOL     OW37071   4.095  10.923   1.132 -0.0244 -0.1508  0.4811
43745SOL    HW137072   4.144  11.005   1.142 -1.2518  0.6517  0.0873
43745SOL    HW237073   4.003  10.949   1.140 -0.4718 -1.3753 -0.4336
43746SOL     OW37074   6.140  10.352   2.266 -0.0151  0.2096 -0.4867
43746SOL    HW137075   6.235  10.357   2.263  0.0081 -0.4685 -1.2314
43746SOL    HW237076   6.116  10.296   2.192 -0.8984 -0.8305  0.5469
43747SOL     OW37077   4.425   5.521  10.112 -0.1000  0.7476 -0.0567
43747SOL    HW137078   4.490   5.488  10.050  0.2908  2.1705 -0.4509
43747SOL    HW237079   4.371   5.445  10.133  2.3431 -0.7648  1.1601
43748SOL     OW37080   8.624   7.531   4.906  0.2214 -0.0593  0.0471
43748SOL    HW137081   8.662   7.572   4.983 -0.7111  1.2395 -0.1254
43748SOL    HW237082   8.532   7.561   4.907 -0.0032 -0.6608 -1.1221
43749SOL     OW37083   5.110   2.696  11.735 -0.0619 -0.6278 -0.0716
43749SOL    HW137084   5.022   2.724  11.709 -0.0882  0.3993  1.0359
43749SOL    HW237085   5.098   2.644  11.814  0.1450 -2.5054 -1.2281
43750SOL     OW37086  11.113   2.268   8.559 -0.2900 -0.0746  0.7465
43750SOL    HW137087  11.043   2.242   8.499 -1.0559  1.0084  1.1323
43750SOL    HW237088  11.159   2.187   8.580  0.3614 -0.4292 -1.7195
43751SOL     OW37089   2.801   0.326   1.033 -0.4681 -0.1864 -0.0971
43751SOL    HW137090   2.849   0.245   1.017 -1.4079 -0.8577  0.3625
43751SOL    HW237091   2.850   0.393   0.985  1.1399 -0.7513  0.6880
43752SOL     OW37092   9.035   9.621   2.142 -0.4726 -0.7271 -0.1289
43752SOL    HW137093   9.113   9.587   2.097  0.1180  0.7021 -0.2571
43752SOL    HW237094   9.047   9.597   2.233  0.1311 -0.5359 -0.1517
43753SOL     OW37095   6.386   8.566   9.721 -0.4356 -0.0536  0.0013
43753SOL    HW137096   6.470   8.550   9.678 -1.3369 -0.7104 -1.6312
43753SOL    HW237097   6.395   8.653   9.760  0.6206  0.3822 -1.1317
43754SOL     OW37098   8.974   4.610   8.937  0.3920 -0.0466  0.5808
43754SOL    HW137099   8.890   4.617   8.892  0.7429 -1.2703 -0.3255
43754SOL    HW237100   9.040   4.615   8.868  0.9347 -2.2036  0.8407
43755SOL     OW37101   4.089   9.388   4.144 -0.1910  0.2205  0.4108
43755SOL    HW137102   4.048   9.365   4.061 -0.6330  0.9952  0.4003
43755SOL    HW237103   4.021   9.372   4.210  0.6705 -1.9627  0.8563
43756SOL     OW37104   4.427   2.679   8.535 -0.0918 -0.1516  0.5704
43756SOL    HW137105   4.409   2.738   8.462 -0.6957 -0.3975  0.5170
43756SOL    HW237106   4.376   2.715   8.608 -2.3847 -1.9000 -0.0600
43757SOL     OW37107   5.288   1.668   1.244 -0.3454  0.3588 -0.0729
43757SOL    HW137108   5.225   1.674   1.173  0.9096  0.5623 -1.2208
43757SOL    HW237109   5.338   1.588   1.226  0.2917  0.6589  0.3014
43758SOL     OW37110   6.114   0.967   4.128 -0.0842  0.3540 -0.4014
43758SOL    HW137111   6.169   1.035   4.090 -1.1334  1.3578 -0.2076
43758SOL    HW237112   6.174   0.913   4.180  0.5742  1.9985  0.6081
43759SOL     OW37113   0.046   4.509   6.034 -0.0387  0.0727  0.1761
43759SOL    HW137114  -0.010   4.573   5.990 -1.1073  0.1764  1.6234
43759SOL    HW237115   0.010   4.502   6.122  1.9288 -0.2303  1.0116
43760SOL     OW37116   1.839   5.685   6.530 -0.3302  0.9136  0.4405
43760SOL    HW137117   1.898   5.758   6.550  1.7623 -0.5654  0.0978
43760SOL    HW237118   1.898   5.612   6.510 -2.1864  0.4526 -4.5915
43761SOL     OW37119   1.922   6.412   7.434 -0.5865  0.2308 -0.0066
43761SOL    HW137120   2.003   6.462   7.448  0.0174 -0.2940 -1.4630
43761SOL    HW237121   1.873   6.463   7.369 -1.7544  0.8751  1.3269
43762SOL     OW37122  12.116   1.950   2.529  0.2317 -0.2317 -0.1355
43762SOL    HW137123  12.155   1.879   2.477 -0.6422 -0.6738 -0.2063
43762SOL    HW237124  12.094   1.909   2.612  2.5310  0.7027  1.0393
43763SOL     OW37125   4.339   6.886  10.093 -0.0403 -0.7872  0.7041
43763SOL    HW137126   4.275   6.947  10.130  0.1609  0.1936 -0.5017
43763SOL    HW237127   4.291   6.804  10.084 -0.4552 -0.7003  1.8943
43764SOL     OW37128   9.301  12.099   1.735 -0.9897  0.0822  0.8731
43764SOL    HW137129   9.353  12.028   1.697  0.0841  0.5808  1.3636
43764SOL    HW237130   9.268  12.062   1.817 -2.8004 -0.7845 -0.1856
43765SOL     OW37131   8.019   4.003  11.728 -0.1243 -0.5338 -0.0420
43765SOL    HW137132   8.079   4.067  11.765 -0.7009  0.8337 -1.3668
43765SOL    HW237133   8.075   3.934  11.693  0.7500  0.9056 -1.5955
43766SOL     OW37134   1.846   1.460   8.821 -0.2730  0.5477 -0.4420
43766SOL    HW137135   1.761   1.436   8.785  0.3521 -0.7328 -1.1157
43766SOL    HW237136   1.904   1.469   8.745 -0.1447  3.0280 -0.1290
43767SOL     OW37137   4.129   9.388   1.607 -0.4111 -0.0038  0.2707
43767SOL    HW137138   4.068   9.324   1.645  0.3716 -0.5766  0.5805
43767SOL    HW237139   4.076   9.435   1.543 -0.6108 -2.1930 -1.3149
43768SOL     OW37140   5.233   4.924   5.175 -0.0737 -0.1007 -0.0902
43768SOL    HW137141   5.173   4.852   5.196 -1.2693  0.3246 -1.8117
43768SOL    HW237142   5.176   4.999   5.157  1.1650  1.4953  2.1994
43769SOL     OW37143   9.235   3.255   3.809 -0.3553 -0.1402  0.3636
43769SOL    HW137144   9.230   3.160   3.802  0.3062 -0.1176 -0.6590
43769SOL    HW237145   9.295   3.270   3.883 -1.1115 -0.4891  1.0702
43770SOL     OW37146   6.203   9.896   3.428 -0.7286 -0.4053 -0.5062
43770SOL    HW137147   6.264   9.961   3.464  0.7435 -1.4787 -0.9716
43770SOL    HW237148   6.233   9.813   3.465  0.2419 -1.4262 -3.3223
43771SOL     OW37149   2.554   8.182  10.591 -0.2475 -0.4688  0.3110
43771SOL    HW137150   2.506   8.168  10.673 -0.5535 -0.2961  0.1637
43771SOL    HW237151   2.486   8.183  10.524 -0.0370 -0.2053  0.1008
43772SOL     OW37152   3.346   2.008   1.145 -0.5553  0.1165 -0.2281
43772SOL    HW137153   3.435   1.995   1.178 -0.9567 -0.3667  0.6918
43772SOL    HW237154   3.335   1.940   1.079 -0.1684  0.3194 -0.5094
43773SOL     OW37155   7.528   3.467   6.592  0.3592  0.0195  0.1918
43773SOL    HW137156   7.499   3.398   6.532  1.0825 -0.7868  0.7497
43773SOL    HW237157   7.453   3.484   6.648 -0.6633  1.4507 -1.4999
43774SOL     OW37158   1.290   4.320   4.072 -0.1901  0.2099  0.3477
43774SOL    HW137159   1.283   4.291   4.163 -1.0238  0.1343  0.2673
43774SOL    HW237160   1.309   4.240   4.023  0.6016  0.3042  0.4907
43775SOL     OW37161  11.770   7.731   3.030 -0.6981  0.2776 -0.0670
43775SOL    HW137162  11.835   7.723   2.961 -0.1776  0.4453  0.3993
43775SOL    HW237163  11.713   7.803   3.001 -0.9748 -0.1857 -0.7033
43776SOL     OW37164  11.158   4.222   3.366 -0.1648 -0.2478  0.1952
43776SOL    HW137165  11.114   4.304   3.386 -0.5876 -0.0599 -1.3866
43776SOL    HW237166  11.107   4.183   3.295  0.9815 -1.0696 -0.2161
43777SOL     OW37167  11.452   9.336  12.123 -0.3066  0.1551  0.2027
43777SOL    HW137168  11.434   9.295  12.039 -0.2258  1.7195 -0.6095
43777SOL    HW237169  11.367   9.341  12.167 -0.6229  0.7113 -0.4513
43778SOL     OW37170   9.827   2.645   1.242 -0.2520  0.0580  0.5051
43778SOL    HW137171   9.907   2.594   1.258  0.9804  1.1466 -1.8126
43778SOL    HW237172   9.781   2.596   1.173  0.4805  1.5025 -1.0681
43779SOL     OW37173  12.265   9.567   4.296 -0.7034  0.4841  0.0495
43779SOL    HW137174  12.326   9.494   4.306  0.3536  1.3087 -0.2045
43779SOL    HW237175  12.185   9.527   4.261 -0.8020 -0.8179  1.6532
43780SOL     OW37176  12.086   3.361  10.065 -0.1718 -0.2607  0.1870
43780SOL    HW137177  12.157   3.307  10.101 -0.9207 -0.8380  0.8261
43780SOL    HW237178  12.098   3.446  10.108 -0.0303 -0.4363  0.5038
43781SOL     OW37179   6.155   7.890   3.295 -0.1432  0.3488 -0.0276
43781SOL    HW137180   6.087   7.906   3.360  0.8955  1.3026  0.8745
43781SOL    HW237181   6.185   7.801   3.313 -1.0637 -0.0440 -0.3731
43782SOL     OW37182   5.852   5.990  11.004 -0.7213  0.2678  0.0105
43782SOL    HW137183   5.846   5.989  10.908  0.3181  1.4965 -0.1075
43782SOL    HW237184   5.887   5.905  11.027 -1.4310 -0.2191 -0.6589
43783SOL     OW37185   7.474   2.464   7.319 -0.3113 -0.7543 -0.1505
43783SOL    HW137186   7.399   2.520   7.301 -0.0139  0.1614  1.2590
43783SOL    HW237187   7.448   2.415   7.397 -0.0710 -1.6555 -0.6290
43784SOL     OW37188   0.482   5.057  12.039 -0.1770 -0.1373 -0.0659
43784SOL    HW137189   0.564   5.027  12.077  1.4027  1.5581 -1.9157
43784SOL    HW237190   0.457   5.132  12.092 -0.4234 -0.5017  0.3429
43785SOL     OW37191   6.253   7.280   3.629  0.3954  0.7836  0.4496
43785SOL    HW137192   6.343   7.297   3.658  0.3002  1.2255  0.4959
43785SOL    HW237193   6.263   7.222   3.553  0.6379 -0.5633  1.4765
43786SOL     OW37194   1.875   5.218  11.164 -0.5098 -0.2654 -0.0590
43786SOL    HW137195   1.884   5.221  11.259 -0.3833  2.2594 -0.0787
43786SOL    HW237196   1.801   5.276  11.146 -0.2754 -0.3936 -1.5207
43787SOL     OW37197   1.281   5.337   4.711  0.1708  0.0172  0.8548
43787SOL    HW137198   1.210   5.376   4.660  1.6454  0.4580 -0.9464
43787SOL    HW237199   1.340   5.410   4.729  0.2386 -0.3592  2.2709
43788SOL     OW37200   3.805  11.153   2.842  0.4387 -0.1946 -0.3954
43788SOL    HW137201   3.806  11.175   2.935 -0.3269  0.5934 -0.5658
43788SOL    HW237202   3.717  11.176   2.812  1.2907  1.5123 -1.7730
43789SOL     OW37203   3.855   6.566   0.056  0.4278 -0.6571  0.0878
43789SOL    HW137204   3.779   6.528   0.100  0.2618 -0.8376 -0.3475
43789SOL    HW237205   3.916   6.586   0.126 -0.1774 -0.1574  0.4870
43790SOL     OW37206   0.168   5.728   9.341  0.3508  0.0205  0.5550
43790SOL    HW137207   0.131   5.794   9.282 -1.9781 -0.4904  1.3841
43790SOL    HW237208   0.200   5.779   9.416 -1.4850  0.2461  1.2195
43791SOL     OW37209   5.612   1.628   3.845 -0.0453 -0.0069  0.0464
43791SOL    HW137210   5.689   1.684   3.833  0.4627 -0.5400  0.7780
43791SOL    HW237211   5.647   1.547   3.880 -0.8664 -0.5294 -0.3199
43792SOL     OW37212  10.152   0.436   4.737 -0.1854 -0.3672  0.7742
43792SOL    HW137213  10.070   0.475   4.767 -0.0901  1.5638 -1.2391
43792SOL    HW237214  10.129   0.394   4.654  0.7026 -0.6130  0.6450
43793SOL     OW37215   4.744   4.117   1.086 -0.5783  0.3361  0.0409
43793SOL    HW137216   4.723   4.209   1.071  0.9441  0.5365 -1.1653
43793SOL    HW237217   4.822   4.101   1.032 -0.9145 -1.7109  0.0780
43794SOL     OW37218   7.980   7.700   2.096 -0.3728 -0.4372  0.3964
43794SOL    HW137219   8.013   7.646   2.024 -0.1275 -0.5355  0.5771
43794SOL    HW237220   7.885   7.693   2.090 -0.3421 -1.2726  0.6951
43795SOL     OW37221  11.534   5.239   7.160  0.1336 -0.1289 -0.0086
43795SOL    HW137222  11.467   5.280   7.105  0.7274  0.2480 -0.4638
43795SOL    HW237223  11.521   5.145   7.146  1.4053 -0.0392 -2.2280
43796SOL     OW37224   0.906   2.148   6.282  0.1090 -0.1865  0.1633
43796SOL    HW137225   0.828   2.096   6.264 -1.0682  1.7807 -0.8176
43796SOL    HW237226   0.979   2.092   6.256 -1.0039 -1.8305  0.4699
43797SOL     OW37227  11.230   9.578   2.815 -0.0526  0.0053 -0.0058
43797SOL    HW137228  11.323   9.578   2.841  0.3681  0.7843 -1.4168
43797SOL    HW237229  11.213   9.667   2.785 -1.0704 -0.3181 -0.4387
43798SOL     OW37230   0.937   9.665   9.745  0.6541 -0.4580 -0.0390
43798SOL    HW137231   1.006   9.604   9.719  1.0197 -0.7699  1.5611
43798SOL    HW237232   0.979   9.722   9.810 -0.1279  0.4601 -0.3172
43799SOL     OW37233   4.822   0.722   1.131 -0.1108 -0.1869 -0.0309
43799SOL    HW137234   4.782   0.701   1.047 -2.0535 -1.7277  1.1962
43799SOL    HW237235   4.748   0.729   1.192  1.1614  1.7663  1.4118
43800SOL     OW37236   0.136   2.204   5.379 -0.1132  0.0255  0.0904
43800SOL    HW137237   0.059   2.221   5.326  0.4296  0.0593 -0.7036
43800SOL    HW237238   0.124   2.115   5.412 -0.7421  0.2300  0.4142
43801SOL     OW37239  11.766   2.400   0.157 -0.5262  1.0569 -0.4215
43801SOL    HW137240  11.750   2.418   0.249 -0.6317  0.0043 -0.2200
43801SOL    HW237241  11.727   2.314   0.142  1.0987  0.3744 -0.9767
43802SOL     OW37242   6.897   0.537   3.156  0.1845  0.1013 -0.7384
43802SOL    HW137243   6.860   0.495   3.078  0.2103  0.9726 -1.2345
43802SOL    HW237244   6.902   0.630   3.133  1.7962  0.1434 -0.3345
43803SOL     OW37245   1.551   3.317   3.684 -0.5437 -0.3346  0.0583
43803SOL    HW137246   1.556   3.261   3.606  2.2366  0.9997 -0.8926
43803SOL    HW237247   1.485   3.276   3.739 -0.7498 -2.8519 -1.8527
43804SOL     OW37248  10.370   6.342   6.824  0.6622 -0.3150  0.0762
43804SOL    HW137249  10.405   6.394   6.751 -0.1863  0.9035  0.4997
43804SOL    HW237250  10.284   6.380   6.840 -0.0583 -1.9890  0.3151
43805SOL     OW37251   9.902   2.224  10.074 -0.2404  0.3542 -0.0987
43805SOL    HW137252   9.809   2.206  10.088  0.0543 -0.3792  0.9782
43805SOL    HW237253   9.946   2.193  10.153  0.7195  2.6268  0.3676
43806SOL     OW37254  10.591   6.397   9.065 -0.3133  0.7821 -0.5488
43806SOL    HW137255  10.529   6.325   9.079 -0.4571  0.1452 -3.6608
43806SOL    HW237256  10.673   6.366   9.104 -0.8120 -0.3145 -0.3195
43807SOL     OW37257   4.921   1.284  10.595 -0.4920 -0.4226 -0.2103
43807SOL    HW137258   5.003   1.320  10.628  0.1574 -1.3771 -0.7391
43807SOL    HW237259   4.855   1.313  10.659 -0.0899  1.9242 -0.7549
43808SOL     OW37260   9.901  12.277   2.588 -0.1586  1.2009  0.1819
43808SOL    HW137261   9.888  12.271   2.683  1.7383  1.9618  0.5333
43808SOL    HW237262   9.994  12.262   2.575 -0.6462 -0.6869 -1.7822
43809SOL     OW37263   2.605  10.094   8.112 -0.4192  0.0970 -0.2637
43809SOL    HW137264   2.572  10.169   8.163  0.6724 -0.7008  1.7072
43809SOL    HW237265   2.699  10.111   8.103  0.0260 -1.4717  1.0617
43810SOL     OW37266   1.968   2.100   0.693  0.3680  0.8607 -0.5539
43810SOL    HW137267   1.995   2.189   0.668  2.2525  1.0502  1.7835
43810SOL    HW237268   1.886   2.114   0.742 -0.1636  1.1151 -1.4946
43811SOL     OW37269   0.681   6.086   0.319  0.0591 -0.3960  0.1027
43811SOL    HW137270   0.694   6.180   0.307 -0.3926 -0.2448  0.7558
43811SOL    HW237271   0.672   6.052   0.230  0.5136  0.1327 -0.1510
43812SOL     OW37272   9.231   3.131   2.031  0.0799 -0.2349 -0.1904
43812SOL    HW137273   9.314   3.172   2.053  0.5803 -0.0157 -2.3437
43812SOL    HW237274   9.212   3.160   1.942 -3.9084  2.3675  1.1813
43813SOL     OW37275   7.277   7.844   7.673 -0.3558 -0.5030 -0.2007
43813SOL    HW137276   7.332   7.817   7.747  0.1319  1.5526  0.2466
43813SOL    HW237277   7.336   7.848   7.599 -0.2603  0.0590 -0.0962
43814SOL     OW37278   6.171   9.432   6.892 -0.1202 -0.1292 -0.1618
43814SOL    HW137279   6.143   9.493   6.960 -0.5776  0.8432 -1.2006
43814SOL    HW237280   6.089   9.395   6.858 -0.0498  0.9486 -1.5872
43815SOL     OW37281  10.129   3.263   6.677  0.2220 -0.4668  0.0317
43815SOL    HW137282  10.069   3.237   6.608  0.0633  0.3669 -0.1519
43815SOL    HW237283  10.184   3.186   6.692 -0.7604 -1.1722  0.0750
43816SOL     OW37284   9.611   1.828   3.175  0.6517 -0.2615 -0.1625
43816SOL    HW137285   9.646   1.867   3.255  2.3326  0.0324 -0.9965
43816SOL    HW237286   9.576   1.902   3.126  0.0256 -0.3824  0.0966
43817SOL     OW37287   2.159   2.503   5.359  0.0421  0.0652  0.3213
43817SOL    HW137288   2.184   2.533   5.272 -0.3107  1.8322  0.7801
43817SOL    HW237289   2.229   2.443   5.385  1.2355  1.0999 -0.3736
43818SOL     OW37290   6.686   6.128   0.075  0.4270  0.0191  0.1646
43818SOL    HW137291   6.778   6.138   0.098  1.0750 -1.1405 -1.7361
43818SOL    HW237292   6.683   6.050   0.021 -1.7756 -0.2424  0.5690
43819SOL     OW37293   4.259   3.964   1.199 -0.2667 -0.0809 -0.2492
43819SOL    HW137294   4.320   3.923   1.137  0.6100  1.8622 -0.7360
43819SOL    HW237295   4.295   3.942   1.285 -0.7584 -1.6963 -0.4268
43820SOL     OW37296   2.756   5.318  11.800  0.2270  0.3260  0.0580
43820SOL    HW137297   2.719   5.364  11.875  0.9999 -0.1608  0.7594
43820SOL    HW237298   2.823   5.377  11.766  1.0298 -0.1327  0.7916
43821SOL     OW37299   3.389   5.266   3.052 -0.7971  0.3269  0.1687
43821SOL    HW137300   3.392   5.360   3.031 -1.0691  0.1532 -0.6819
43821SOL    HW237301   3.470   5.250   3.101 -0.4247  0.8740 -0.2526
43822SOL     OW37302   3.541   4.437   8.394 -0.2521  0.3470  0.3009
43822SOL    HW137303   3.480   4.373   8.431  0.7555 -0.6125  0.3432
43822SOL    HW237304   3.598   4.461   8.467  0.3838  0.0678 -0.0920
43823SOL     OW37305   2.803   3.988   4.298 -0.7059 -0.5619 -0.5234
43823SOL    HW137306   2.825   4.001   4.390 -2.9606  1.1025 -0.1320
43823SOL    HW237307   2.729   3.928   4.299 -0.3432 -1.0406 -1.3135
43824SOL     OW37308   3.892   5.354   5.303  0.2561 -0.0231 -0.0236
43824SOL    HW137309   3.900   5.348   5.398 -0.5860 -0.7166  0.0091
43824SOL    HW237310   3.974   5.317   5.270 -0.6890 -2.6478  0.3915
43825SOL     OW37311   3.666   2.309   4.443  0.5118  0.7942 -0.0906
43825SOL    HW137312   3.631   2.345   4.361  0.1565 -1.6480 -1.0781
43825SOL    HW237313   3.605   2.340   4.510 -0.6957  0.6978 -1.1086
43826SOL     OW37314   5.639   4.221  11.797 -0.5787  0.1633 -0.6670
43826SOL    HW137315   5.717   4.186  11.840 -0.3127  1.2587 -0.2194
43826SOL    HW237316   5.610   4.151  11.738 -0.5754 -1.1079  0.7972
43827SOL     OW37317   0.380  10.701   2.813  0.3457 -0.2576 -0.4538
43827SOL    HW137318   0.408  10.670   2.899 -0.4871 -2.1728 -0.8137
43827SOL    HW237319   0.287  10.678   2.808  0.5143 -0.7382 -2.0662
43828SOL     OW37320  10.967  12.284   2.932  0.5486  0.3199  0.0189
43828SOL    HW137321  10.994  12.306   3.021 -0.9184 -0.0779  0.5840
43828SOL    HW237322  10.985  12.190   2.924  0.1396  0.2362  0.0910
43829SOL     OW37323   6.347   4.779   1.284 -0.5797  0.4521  0.5053
43829SOL    HW137324   6.345   4.745   1.194 -2.2017  1.0480  0.2797
43829SOL    HW237325   6.396   4.861   1.278 -1.6468  1.0691 -0.0811
43830SOL     OW37326   0.603   8.325   9.538 -0.1886  0.1417  0.0659
43830SOL    HW137327   0.585   8.293   9.449 -0.4768 -0.0521  0.1943
43830SOL    HW237328   0.519   8.317   9.584 -0.5667  2.0803 -0.1892
43831SOL     OW37329   3.361   8.679  10.072  0.6647  0.4493  0.4977
43831SOL    HW137330   3.436   8.739  10.074  1.1437  0.0454 -2.1828
43831SOL    HW237331   3.390   8.605  10.019 -1.1648 -0.4099  0.6163
43832SOL     OW37332  11.942   3.126  10.156 -0.6063 -0.0520 -0.1245
43832SOL    HW137333  11.947   3.130  10.061 -1.1290  0.0961 -0.1476
43832SOL    HW237334  11.955   3.216  10.186 -2.8622  0.3647 -0.1877
43833SOL     OW37335   7.670   7.842   6.408 -0.2104  0.1115  0.5369
43833SOL    HW137336   7.613   7.916   6.427 -0.7193  0.4426 -1.9835
43833SOL    HW237337   7.610   7.768   6.397 -0.1097  0.2493 -1.1312
43834SOL     OW37338   0.402   1.774   6.235 -0.3498  0.9439 -0.3508
43834SOL    HW137339   0.353   1.692   6.223  0.7408  0.6176 -3.8148
43834SOL    HW237340   0.487   1.746   6.269 -0.3830  0.7466 -0.4276
43835SOL     OW37341   9.505  10.606   7.805 -0.2307 -0.0380  0.1086
43835SOL    HW137342   9.542  10.531   7.758 -0.2770 -1.0962  1.6796
43835SOL    HW237343   9.420  10.621   7.764 -0.5239 -1.3149  0.2260
43836SOL     OW37344   6.372   9.642  10.302 -0.3941 -0.2537 -0.4645
43836SOL    HW137345   6.321   9.685  10.233 -1.4854 -2.5998 -1.2219
43836SOL    HW237346   6.446   9.603  10.255  0.2643  0.2957  0.1096
43837SOL     OW37347  10.666   5.915   1.252 -0.3568  0.4363 -0.0579
43837SOL    HW137348  10.597   5.882   1.195  0.7055 -1.5697 -0.2647
43837SOL    HW237349  10.629   5.915   1.340 -0.5775 -0.8011 -0.1422
43838SOL     OW37350  11.556   3.256   7.464  0.2086  0.2261 -0.0048
43838SOL    HW137351  11.590   3.343   7.445 -2.3312  0.5794 -4.3228
43838SOL    HW237352  11.594   3.200   7.396 -0.0960 -1.5246  1.1894
43839SOL     OW37353  11.727   2.216   9.762 -0.0981  0.1497 -0.1887
43839SOL    HW137354  11.659   2.265   9.807  0.1637  0.9920 -0.6886
43839SOL    HW237355  11.720   2.127   9.797 -2.7310 -0.3064 -1.6134
43840SOL     OW37356  10.037   5.374   3.810 -0.5741 -0.4574  0.0898
43840SOL    HW137357  10.036   5.406   3.720 -1.0824  2.3883  0.9855
43840SOL    HW237358  10.120   5.328   3.819  0.5852  1.2521 -1.2473
43841SOL     OW37359   3.760   5.833   5.232 -0.1871 -0.0875 -0.1632
43841SOL    HW137360   3.673   5.825   5.194 -0.5674  1.6357  0.2430
43841SOL    HW237361   3.762   5.922   5.268  0.9615 -0.8476  1.7936
43842SOL     OW37362   6.491   3.116   2.475 -0.5982 -0.1017 -0.0602
43842SOL    HW137363   6.469   3.127   2.567  0.3282  1.5348  0.0088
43842SOL    HW237364   6.446   3.036   2.449 -0.6073 -0.7932  1.8927
43843SOL     OW37365   5.571   8.052   4.518  0.1191  0.2669  0.3926
43843SOL    HW137366   5.559   8.068   4.425 -1.5686  0.9920  0.6977
43843SOL    HW237367   5.526   7.970   4.535  0.6847 -0.0227  0.5249
43844SOL     OW37368   4.018   3.367  10.149 -0.1246 -0.2250  0.6443
43844SOL    HW137369   4.056   3.279  10.155  0.2673 -0.0960  0.0787
43844SOL    HW237370   3.945   3.357  10.088  1.2603  0.2772 -1.1850
43845SOL     OW37371   1.367   7.252   0.872 -0.2968 -0.2299 -0.0154
43845SOL    HW137372   1.422   7.184   0.834  0.6309  0.5172 -0.0326
43845SOL    HW237373   1.409   7.335   0.846 -0.0339  0.3298  2.0197
43846SOL     OW37374   7.302   0.335   8.974  0.0937  0.2236 -0.1368
43846SOL    HW137375   7.213   0.305   8.992 -0.6850  3.3085  2.0063
43846SOL    HW237376   7.296   0.380   8.890 -0.3940  0.4078 -0.0067
43847SOL     OW37377   7.728  11.081   7.498  0.3956 -0.0798  0.0364
43847SOL    HW137378   7.653  11.122   7.540 -0.0694  1.1095 -1.8377
43847SOL    HW237379   7.802  11.139   7.516  0.0577  0.7950 -1.3027
43848SOL     OW37380   8.100  11.395   0.637  0.5360 -0.4240 -0.1672
43848SOL    HW137381   8.134  11.418   0.724  0.2905 -0.0925 -0.1561
43848SOL    HW237382   8.178  11.393   0.581  0.9411 -2.4231  0.4157
43849SOL     OW37383   8.783   2.108   2.706  0.2142  0.1440  0.4580
43849SOL    HW137384   8.743   2.161   2.775  2.3412  2.1952  0.2076
43849SOL    HW237385   8.865   2.153   2.685 -1.2048  0.8448 -4.8470
43850SOL     OW37386   6.856   1.593   4.071 -0.4611 -0.7252  0.2764
43850SOL    HW137387   6.851   1.551   4.158 -0.2606  0.1437  0.7182
43850SOL    HW237388   6.949   1.588   4.049 -0.3050  0.2018  0.6977
43851SOL     OW37389   1.454   8.404  11.675 -0.5196 -0.4097 -0.0542
43851SOL    HW137390   1.537   8.452  11.669 -0.2608 -0.9795 -1.1902
43851SOL    HW237391   1.475   8.315  11.647 -1.1953 -0.9766  1.1334
43852SOL     OW37392  11.167   7.081   6.964 -0.1398  0.7001 -0.6998
43852SOL    HW137393  11.088   7.078   6.910  0.8774 -0.5303 -2.2134
43852SOL    HW237394  11.229   7.022   6.920  1.6820  1.7247  0.3372
43853SOL     OW37395  11.035   0.148   7.583  0.6047  0.2871 -0.1450
43853SOL    HW137396  11.024   0.108   7.669 -1.1022  1.3478  0.1742
43853SOL    HW237397  10.984   0.092   7.524 -0.8939  1.3358  0.1170
43854SOL     OW37398   5.242   2.976   5.726 -0.1607 -0.0028  0.3760
43854SOL    HW137399   5.195   3.054   5.758 -1.1908 -0.1910 -0.5998
43854SOL    HW237400   5.232   2.980   5.631 -1.0501 -1.8138  0.3544
43855SOL     OW37401   0.743   5.618  11.670 -0.1066 -0.2273 -0.0545
43855SOL    HW137402   0.671   5.557  11.684 -0.0915 -0.5213 -1.1497
43855SOL    HW237403   0.711   5.677  11.601 -0.0692  0.9112  0.8763
43856SOL     OW37404   2.527  12.020   6.996 -0.6769  0.5688 -0.0075
43856SOL    HW137405   2.591  12.091   7.003  1.0794 -0.9997  0.7672
43856SOL    HW237406   2.475  12.026   7.077 -0.8271  1.2328 -0.1542
43857SOL     OW37407   2.728  12.052   3.876  0.1819  0.1808  0.0670
43857SOL    HW137408   2.719  12.022   3.785  0.2990 -0.4030  0.2488
43857SOL    HW237409   2.654  12.112   3.888 -0.5879 -0.7280 -0.0206
43858SOL     OW37410  10.235   7.616   5.607  0.2668 -0.6153  0.2201
43858SOL    HW137411  10.194   7.642   5.524  0.7029  0.6951  0.3968
43858SOL    HW237412  10.165   7.622   5.672 -0.0572 -1.5694 -0.0335
43859SOL     OW37413  11.308   2.932   4.667  0.4112 -0.0585  0.2590
43859SOL    HW137414  11.344   2.845   4.680  1.5107 -0.4160 -3.9801
43859SOL    HW237415  11.384   2.990   4.663  0.1703  0.1982 -2.1887
43860SOL     OW37416   0.251   8.842   6.051  0.5376 -0.4694 -0.0566
43860SOL    HW137417   0.200   8.822   6.130  0.3583 -0.5974 -0.2027
43860SOL    HW237418   0.186   8.876   5.989  0.8461  0.6413  0.2064
43861SOL     OW37419   3.121   6.136   8.887  0.2832 -0.2388  0.2144
43861SOL    HW137420   3.044   6.128   8.944  0.3271  0.6699  0.4081
43861SOL    HW237421   3.084   6.153   8.800  0.2145 -1.6686 -0.0680
43862SOL     OW37422   7.582   1.801   5.619  0.1535  0.2576 -0.0654
43862SOL    HW137423   7.545   1.748   5.689  1.4738  1.2147  1.4252
43862SOL    HW237424   7.527   1.878   5.614 -0.6783 -0.3682 -0.9783
43863SOL     OW37425   2.362   6.458   6.729 -0.2377 -0.2933 -0.3905
43863SOL    HW137426   2.323   6.513   6.661 -1.4969 -0.3051  0.3034
43863SOL    HW237427   2.342   6.503   6.811 -1.0613 -1.6276  0.1698
43864SOL     OW37428   7.330  10.119   8.735 -0.0533  0.3831 -0.7982
43864SOL    HW137429   7.336  10.064   8.657  0.9117  0.4149 -0.7632
43864SOL    HW237430   7.332  10.209   8.702 -0.7262  0.4014 -0.7980
43865SOL     OW37431   3.219   0.033   5.030 -0.0896 -0.1004  0.1543
43865SOL    HW137432   3.174  -0.027   5.090  0.0602  0.6599  1.0468
43865SOL    HW237433   3.307   0.041   5.066  0.1352  0.0340 -0.4175
43866SOL     OW37434  11.924   1.318   7.620 -0.3406 -0.1391  0.2571
43866SOL    HW137435  11.847   1.361   7.655 -1.2454 -1.0918 -0.5009
43866SOL    HW237436  11.996   1.379   7.636 -1.3706  1.0692  0.3354
43867SOL     OW37437   9.776   2.365   8.223  0.2333 -0.2364 -0.0762
43867SOL    HW137438   9.787   2.274   8.194  0.2185  0.3488 -2.0558
43867SOL    HW237439   9.723   2.358   8.302  0.0486 -1.9412 -0.3041
43868SOL     OW37440   6.814   4.774   2.184 -0.9002 -0.1375  0.2091
43868SOL    HW137441   6.801   4.845   2.247 -0.4552  0.4143 -0.2994
43868SOL    HW237442   6.908   4.775   2.165 -1.2535  0.9263 -1.8128
43869SOL     OW37443  11.307   1.836   0.452 -0.3764 -0.0145 -0.1432
43869SOL    HW137444  11.273   1.768   0.510 -0.4465 -0.1746 -0.3675
43869SOL    HW237445  11.262   1.916   0.479  0.5729  0.1806  0.8931
43870SOL     OW37446   9.317  11.787   9.581 -0.5535  0.3058 -0.2779
43870SOL    HW137447   9.399  11.836   9.580 -0.1665 -0.3202 -1.2172
43870SOL    HW237448   9.308  11.755   9.491 -1.2263 -0.6113  0.1003
43871SOL     OW37449   1.609   8.893   8.110 -0.6272 -0.0283  0.4866
43871SOL    HW137450   1.553   8.833   8.160 -1.6222 -0.0576 -0.6354
43871SOL    HW237451   1.552   8.966   8.087  0.7156  1.7802  2.4095
43872SOL     OW37452   6.054   8.309  10.071  0.5815 -0.2762 -0.1891
43872SOL    HW137453   5.973   8.358  10.058  0.1201 -1.4139 -1.7796
43872SOL    HW237454   6.123   8.369  10.041  0.2054  0.1261 -0.2638
43873SOL     OW37455   0.346   4.335   2.483  0.3213  0.0554 -0.9561
43873SOL    HW137456   0.328   4.292   2.399 -1.2332 -0.3253 -0.4712
43873SOL    HW237457   0.328   4.428   2.467 -2.6896 -0.3229 -0.4439
43874SOL     OW37458   1.613   2.791  10.002 -0.0204  0.2285 -0.1189
43874SOL    HW137459   1.592   2.788   9.908  0.2345  0.7349 -0.1980
43874SOL    HW237460   1.627   2.884  10.020 -2.2218  0.4113  0.9251
43875SOL     OW37461   2.472   4.159   9.265 -0.1350  0.0121 -0.0369
43875SOL    HW137462   2.417   4.085   9.240 -0.9548  0.7104 -0.3424
43875SOL    HW237463   2.410   4.230   9.283  0.5828  0.3909  1.0819
43876SOL     OW37464   8.161   5.833   4.466  0.3860 -0.3981  0.0812
43876SOL    HW137465   8.148   5.760   4.405  1.7807 -0.2135 -0.4643
43876SOL    HW237466   8.242   5.875   4.437  0.0562  0.8634  0.9069
43877SOL     OW37467   4.206   6.191   7.831 -0.3707  0.0225  0.3405
43877SOL    HW137468   4.247   6.150   7.907  1.1459  1.3648  0.2733
43877SOL    HW237469   4.257   6.270   7.815 -2.2095  1.0926 -0.5457
43878SOL     OW37470   2.066   9.238   9.662 -0.3122 -0.2507  0.0425
43878SOL    HW137471   2.046   9.217   9.570 -0.5119 -0.6700  0.1800
43878SOL    HW237472   2.151   9.196   9.677  0.1857  0.6357 -0.2299
43879SOL     OW37473   8.430   7.869   6.305 -0.0955  0.1370 -0.3057
43879SOL    HW137474   8.435   7.787   6.354  1.5697  1.5253  2.0405
43879SOL    HW237475   8.392   7.931   6.367  1.3514  1.8068 -1.0151
43880SOL     OW37476   7.507   1.530   0.543 -0.3023  0.2119 -0.6026
43880SOL    HW137477   7.552   1.606   0.507 -1.7912  1.4945  0.1381
43880SOL    HW237478   7.462   1.563   0.621  0.8597 -1.9365  1.1331
43881SOL     OW37479   1.703  10.933   3.315  0.5242 -0.1568 -0.1038
43881SOL    HW137480   1.745  10.963   3.234  0.0158 -1.2015 -0.7738
43881SOL    HW237481   1.621  10.894   3.287  0.7244 -1.3021  0.8221
43882SOL     OW37482  11.998   4.084   8.468  0.1102 -0.3037  0.4695
43882SOL    HW137483  12.035   4.160   8.513  2.6014 -0.8238 -0.5614
43882SOL    HW237484  11.947   4.039   8.536  0.8528  0.8249  1.8281
43883SOL     OW37485   7.519   8.862   6.019  0.0274 -0.5886  0.1804
43883SOL    HW137486   7.588   8.928   6.015  0.8286 -1.2796  1.4863
43883SOL    HW237487   7.492   8.861   6.111 -1.5260 -0.5556 -0.2466
43884SOL     OW37488   9.072  11.454  10.219  0.4897 -0.7465  0.8368
43884SOL    HW137489   9.065  11.527  10.158  0.7629 -1.0141  0.4810
43884SOL    HW237490   8.981  11.433  10.241  0.4180 -0.1467  1.1275
43885SOL     OW37491  11.420   3.941   6.602 -0.1117  0.2671  0.1305
43885SOL    HW137492  11.463   3.889   6.534 -0.3814 -0.3537  0.4309
43885SOL    HW237493  11.328   3.942   6.577 -0.4612 -1.1693  1.2266
43886SOL     OW37494  12.285  10.073   7.953 -0.7185  0.3895 -0.3038
43886SOL    HW137495  12.290  10.002   7.889 -1.4843  1.3092 -1.4414
43886SOL    HW237496  12.200  10.114   7.936 -1.2143  0.2855  1.7380
43887SOL     OW37497   0.345   4.679   2.008  0.3649  0.0466 -0.2432
43887SOL    HW137498   0.277   4.614   2.022  1.2021 -0.8144 -0.1025
43887SOL    HW237499   0.381   4.659   1.922  0.3096  0.6197 -0.4033
43888SOL     OW37500   6.880   9.164   0.216  0.3755  0.2513  0.2618
43888SOL    HW137501   6.785   9.158   0.215  0.0341  2.2554  3.9456
43888SOL    HW237502   6.908   9.096   0.278  1.1200  1.1752  0.9579
43889SOL     OW37503   3.106  11.700  10.919  0.2983  0.0650  0.1537
43889SOL    HW137504   3.176  11.766  10.919 -0.1047  0.5204  1.2026
43889SOL    HW237505   3.025  11.751  10.912  0.0430 -0.4346 -0.6608
43890SOL     OW37506   5.844   5.196   5.260  0.2730 -0.4891  0.0905
43890SOL    HW137507   5.798   5.222   5.180 -1.2912 -1.3509  0.6592
43890SOL    HW237508   5.797   5.118   5.290  2.5475 -1.8663  0.3611
43891SOL     OW37509   6.091   7.408   3.296 -0.2768  0.4432  0.6588
43891SOL    HW137510   6.172   7.360   3.312 -0.7272 -0.3118  0.6832
43891SOL    HW237511   6.118   7.481   3.239  0.0122 -1.2075 -1.4412
43892SOL     OW37512   7.596  11.143   8.308 -0.2421 -0.2083  0.9573
43892SOL    HW137513   7.525  11.112   8.365 -0.8178 -0.8536 -0.0744
43892SOL    HW237514   7.559  11.218   8.262  0.1415  0.1620  1.2403
43893SOL     OW37515   3.001   3.900   6.908  0.3396 -0.4422  0.3190
43893SOL    HW137516   2.934   3.959   6.943 -2.0766 -3.6018  1.4524
43893SOL    HW237517   2.983   3.895   6.814  1.4181  1.4908 -0.0494
43894SOL     OW37518  10.664   5.228   1.046 -0.0308 -0.3786 -0.1571
43894SOL    HW137519  10.734   5.164   1.055  0.8903  0.8444  2.3672
43894SOL    HW237520  10.673   5.261   0.956  1.9133 -1.0598 -0.2616
43895SOL     OW37521   2.437   2.728   6.952  0.5096 -0.3143  0.8008
43895SOL    HW137522   2.453   2.673   6.875 -0.5381 -0.4328  0.6419
43895SOL    HW237523   2.405   2.667   7.019 -1.6110  0.1704  0.3191
43896SOL     OW37524  10.864   9.088  12.204 -0.2123 -0.3813 -0.0352
43896SOL    HW137525  10.768   9.093  12.205 -0.2617 -1.1742  0.2528
43896SOL    HW237526  10.892   9.171  12.166 -1.0496 -0.6591 -1.3109
43897SOL     OW37527   8.697   1.694   0.315  0.0254  0.4156 -0.4332
43897SOL    HW137528   8.778   1.732   0.283 -0.1147 -0.8662 -2.5226
43897SOL    HW237529   8.631   1.762   0.301  0.4243  0.7928 -0.4810
43898SOL     OW37530  10.446   3.483  10.837 -0.5569 -0.2024 -0.2063
43898SOL    HW137531  10.448   3.543  10.762 -0.2359  0.7703  0.5459
43898SOL    HW237532  10.359   3.495  10.875 -0.3071  0.2161  0.2578
43899SOL     OW37533   6.858  11.085   4.034  0.3479  0.3863  0.2581
43899SOL    HW137534   6.859  11.083   3.938 -0.0553 -0.1438  0.2638
43899SOL    HW237535   6.789  11.147   4.057 -0.9286 -0.9867  0.2122
43900SOL     OW37536   7.837   5.142   3.747  0.5993 -0.8889  0.2042
43900SOL    HW137537   7.774   5.198   3.701  2.1332  1.0693  0.3416
43900SOL    HW237538   7.795   5.056   3.750 -3.2184  0.8017  2.5034
43901SOL     OW37539  10.844  12.299   4.529  0.5043 -0.3024  0.4775
43901SOL    HW137540  10.933  12.285   4.495  0.5074  1.7375 -0.4987
43901SOL    HW237541  10.821  12.215   4.569  3.6780 -0.3188  2.7010
43902SOL     OW37542   0.602   0.063   5.303  0.4178 -0.0459 -0.2153
43902SOL    HW137543   0.602   0.006   5.227 -1.3559  2.2557 -2.0713
43902SOL    HW237544   0.690   0.103   5.303  1.0038 -1.2980 -0.0131
43903SOL     OW37545   9.844   2.621   7.709  0.7126  0.0244 -0.0363
43903SOL    HW137546   9.786   2.640   7.635  1.0716 -0.6042 -0.4913
43903SOL    HW237547   9.795   2.650   7.786  0.2029  0.3980 -0.4952
43904SOL     OW37548   4.767  10.047   6.268 -0.0804 -0.2505 -0.0203
43904SOL    HW137549   4.783  10.073   6.177  2.0557  2.0436  0.9303
43904SOL    HW237550   4.706   9.973   6.260 -1.4599  1.0358 -3.2117
43905SOL     OW37551   8.152   3.145   4.741  0.5327 -0.0969  0.1783
43905SOL    HW137552   8.231   3.180   4.783 -1.7715  0.2410  4.8998
43905SOL    HW237553   8.161   3.050   4.750 -0.0978 -0.0182  1.9782
43906SOL     OW37554   9.707   4.673   4.241  0.1630  0.6340 -0.1106
43906SOL    HW137555   9.786   4.646   4.193  1.1086  1.8438  0.6994
43906SOL    HW237556   9.659   4.729   4.179  0.3459  0.5406 -0.3374
43907SOL     OW37557   0.873   9.406   4.147 -0.2387  0.5204 -0.2015
43907SOL    HW137558   0.885   9.403   4.242 -2.2876  1.5053  0.1543
43907SOL    HW237559   0.896   9.496   4.123  0.8019  0.1208 -0.7416
43908SOL     OW37560  12.172   1.333   7.178 -0.4625 -0.5737 -0.6267
43908SOL    HW137561  12.083   1.363   7.159 -0.2607  0.0766 -0.5718
43908SOL    HW237562  12.228   1.406   7.151  0.0059 -0.7271 -0.0909
43909SOL     OW37563   1.868  11.893  12.227  0.4035  0.1830 -0.2721
43909SOL    HW137564   1.922  11.964  12.191  0.2462  1.3790  1.6805
43909SOL    HW237565   1.805  11.938  12.284 -0.8099 -1.4222 -0.2770
43910SOL     OW37566   0.080  11.357   1.694  0.2340 -0.4405  0.3051
43910SOL    HW137567   0.071  11.432   1.635  1.3045  0.4538  1.2190
43910SOL    HW237568   0.082  11.281   1.636 -0.4119  0.2731 -0.6809
43911SOL     OW37569  11.458   3.914   3.830 -0.2694  0.5115 -0.4552
43911SOL    HW137570  11.530   3.867   3.872  0.8996  3.0962  0.6360
43911SOL    HW237571  11.413   3.847   3.778  2.7456 -1.2860 -1.0043
43912SOL     OW37572   6.650  11.387   4.942 -0.1453 -0.4618  0.0299
43912SOL    HW137573   6.626  11.469   4.899 -2.5531 -1.7528 -1.2769
43912SOL    HW237574   6.640  11.406   5.036  2.4086  1.5674 -0.0200
43913SOL     OW37575   1.164   9.054   8.147  0.1916 -0.0359 -0.3897
43913SOL    HW137576   1.237   9.087   8.095  0.8217 -0.4551  0.2068
43913SOL    HW237577   1.097   9.032   8.083  0.7964 -0.1504 -0.9926
43914SOL     OW37578   0.746   0.309   7.177  0.2670 -0.0893  0.1192
43914SOL    HW137579   0.805   0.318   7.251  1.6239 -0.7491 -0.8445
43914SOL    HW237580   0.790   0.248   7.118 -1.1229 -0.1614 -0.8937
43915SOL     OW37581   5.612   9.428  12.309  0.3899 -0.1719 -0.7251
43915SOL    HW137582   5.633   9.475  12.228  2.5833  0.8607  0.3578
43915SOL    HW237583   5.578   9.343  12.279  0.8694  0.2804 -2.7224
43916SOL     OW37584   1.235  12.176  11.167  0.1745  0.2107  0.0744
43916SOL    HW137585   1.186  12.213  11.239 -0.2234  0.1259 -0.1478
43916SOL    HW237586   1.207  12.225  11.090 -1.6480 -1.6019 -0.5188
43917SOL     OW37587  10.509   7.641   5.754  0.0162  0.0350  0.1205
43917SOL    HW137588  10.448   7.623   5.682  1.3304 -0.0146 -1.0316
43917SOL    HW237589  10.567   7.710   5.720  0.4490  0.2744  1.2760
43918SOL     OW37590   1.861   8.685   5.068 -0.3806  0.4345 -0.0399
43918SOL    HW137591   1.867   8.618   4.999 -1.8928 -1.0710  1.2008
43918SOL    HW237592   1.933   8.746   5.049 -0.1999 -0.4129 -2.4015
43919SOL     OW37593   1.588   8.474   1.964 -0.3037 -0.3337 -0.7982
43919SOL    HW137594   1.523   8.487   1.896  0.4566 -0.9684 -1.6667
43919SOL    HW237595   1.630   8.391   1.942  1.4320  0.5083 -0.8082
43920SOL     OW37596   8.499   8.712   3.874  0.2854  0.0776 -0.1224
43920SOL    HW137597   8.472   8.762   3.797  0.0871  1.0074  0.5380
43920SOL    HW237598   8.502   8.776   3.944  1.1753 -0.6240  0.4937
43921SOL     OW37599   8.781  11.705   4.879  0.3750  0.1274  0.5590
43921SOL    HW137600   8.701  11.675   4.922  0.1652 -1.0656 -0.5921
43921SOL    HW237601   8.755  11.722   4.789  1.2967  0.3360  0.3174
43922SOL     OW37602   6.510  10.404  11.558  0.1134  1.1206 -0.3856
43922SOL    HW137603   6.418  10.426  11.575 -0.2527 -0.4431 -0.2396
43922SOL    HW237604   6.507  10.336  11.492  1.1199  0.4096  0.2755
43923SOL     OW37605   0.311  10.923   7.896  0.2435  0.9429 -0.3885
43923SOL    HW137606   0.381  10.896   7.837 -2.6027 -0.4227 -3.4203
43923SOL    HW237607   0.285  10.843   7.941 -1.7168  0.5836 -2.0539
43924SOL     OW37608   9.256   1.404   0.984 -0.2508 -0.1327 -0.1074
43924SOL    HW137609   9.302   1.392   1.067 -1.0840  1.0861  0.5647
43924SOL    HW237610   9.277   1.325   0.933  1.6496 -0.1219  0.5781
43925SOL     OW37611  12.167   0.934   0.957  0.4500  0.6115  0.0560
43925SOL    HW137612  12.166   1.015   0.906 -0.6600 -0.3836 -1.5902
43925SOL    HW237613  12.126   0.956   1.040 -1.0704  1.4437 -0.8885
43926SOL     OW37614  11.742   1.229   7.127  0.1588 -0.1489  0.4232
43926SOL    HW137615  11.745   1.138   7.157  1.3291  0.0595  0.9638
43926SOL    HW237616  11.784   1.279   7.196 -1.9864  1.0554  0.9390
43927SOL     OW37617   3.295   2.632   6.606 -0.1793  0.0893  0.1287
43927SOL    HW137618   3.275   2.596   6.519 -0.6279  0.4745  0.0743
43927SOL    HW237619   3.259   2.720   6.605  2.1937  1.1427 -0.2657
43928SOL     OW37620   4.945   6.981   9.284  0.3673  0.6774 -0.5671
43928SOL    HW137621   5.007   6.919   9.247  0.5227  1.3060 -1.3696
43928SOL    HW237622   4.999   7.044   9.330  0.1961  0.1133  0.4472
43929SOL     OW37623   1.105  10.729   8.576  0.4719 -0.2223  0.0181
43929SOL    HW137624   1.200  10.736   8.565  0.3278  0.9220 -0.6982
43929SOL    HW237625   1.087  10.635   8.574  1.2662 -0.3950 -2.8449
43930SOL     OW37626  10.128   9.927   9.157 -0.3203  0.3970 -0.8010
43930SOL    HW137627  10.198   9.874   9.121 -1.9535 -0.6986 -2.4837
43930SOL    HW237628  10.159  10.017   9.148  1.3451 -0.1104 -0.3916
43931SOL     OW37629  12.087   4.961   6.676 -0.1351 -0.4564  0.3954
43931SOL    HW137630  12.003   4.963   6.631  0.9092 -0.8021 -1.7154
43931SOL    HW237631  12.113   4.869   6.673 -0.0631 -0.5009  1.8245
43932SOL     OW37632   6.400   2.379   5.084 -0.6262 -0.1420 -0.3439
43932SOL    HW137633   6.343   2.420   5.019 -1.0176 -0.5062 -0.2347
43932SOL    HW237634   6.409   2.444   5.153  0.7989  0.7418 -1.3116
43933SOL     OW37635   3.209  10.318   9.578  0.3407  0.8116  0.1048
43933SOL    HW137636   3.296  10.302   9.615  1.0976  1.4750 -1.3365
43933SOL    HW237637   3.169  10.231   9.575  0.0528  0.7442  2.7922
43934SOL     OW37638   4.357  12.064   3.653  0.0820 -0.1186 -0.5117
43934SOL    HW137639   4.276  12.103   3.621  0.2518  0.3231 -0.4162
43934SOL    HW237640   4.420  12.081   3.583  0.3241  0.3875 -0.1798
43935SOL     OW37641   2.798  10.744   9.610  0.0602 -0.4223 -0.0897
43935SOL    HW137642   2.872  10.798   9.583  0.2935 -0.9542 -0.5290
43935SOL    HW237643   2.726  10.771   9.553  0.4769 -1.3495 -1.0775
43936SOL     OW37644   9.411   2.382  11.939  0.5947  0.1525  0.1499
43936SOL    HW137645   9.447   2.410  12.023 -0.1850  1.0779  0.1933
43936SOL    HW237646   9.325   2.346  11.960 -0.6445  2.5129 -0.4306
43937SOL     OW37647  11.364   7.916   8.015 -0.4425 -0.6496  0.1991
43937SOL    HW137648  11.296   7.852   7.995 -0.9621 -0.0872  0.1483
43937SOL    HW237649  11.324   7.973   8.080 -0.0353 -0.2880  0.1306
43938SOL     OW37650   1.281   7.317   8.150 -0.1574  0.1873  0.1941
43938SOL    HW137651   1.279   7.254   8.222  2.4964 -1.5678 -1.1213
43938SOL    HW237652   1.374   7.333   8.134 -0.7176  2.3971 -1.3027
43939SOL     OW37653  11.446   6.932   4.691  0.0978  0.6677 -0.3741
43939SOL    HW137654  11.448   6.975   4.776  0.9468  0.0896 -0.0867
43939SOL    HW237655  11.536   6.936   4.660 -0.1620  0.6864 -1.1537
43940SOL     OW37656   8.915  11.883   0.866 -0.0935  0.5315  0.7602
43940SOL    HW137657   8.872  11.806   0.902  1.6889  0.0078  1.8700
43940SOL    HW237658   8.870  11.957   0.908 -1.5018  0.1285  0.0381
43941SOL     OW37659  12.176   8.487   0.389 -0.0800  0.3578 -0.2902
43941SOL    HW137660  12.124   8.536   0.453  0.6475  1.2145 -0.3390
43941SOL    HW237661  12.169   8.537   0.308 -0.9272 -0.6804 -0.8781
43942SOL     OW37662   3.279   6.237   2.132 -0.2053 -0.3087 -0.3968
43942SOL    HW137663   3.273   6.145   2.107  0.6177 -0.6255  0.5147
43942SOL    HW237664   3.288   6.236   2.227 -2.0302  0.8208 -0.1703
43943SOL     OW37665   1.996   9.005   2.174  0.6957 -0.6825 -0.1582
43943SOL    HW137666   2.011   9.034   2.084  1.5248 -0.2284  0.1146
43943SOL    HW237667   1.943   8.926   2.166 -2.0158  1.0471 -0.9278
43944SOL     OW37668   9.521   2.022   0.722  0.1322 -0.2604 -0.0345
43944SOL    HW137669   9.573   1.969   0.782 -0.4679  0.2117  0.9478
43944SOL    HW237670   9.487   2.093   0.777 -0.3186  0.2744 -0.9779
43945SOL     OW37671   1.526   2.327   2.808 -0.1058  0.0177  0.4134
43945SOL    HW137672   1.618   2.298   2.809 -0.1434 -0.1659 -0.7884
43945SOL    HW237673   1.496   2.312   2.898  1.1876  0.5523  0.9627
43946SOL     OW37674   2.623   1.838   8.964 -0.0705 -0.3467 -0.0755
43946SOL    HW137675   2.611   1.766   8.902  1.7302 -0.1157 -0.7656
43946SOL    HW237676   2.539   1.883   8.965 -1.4179 -2.7082  0.7709
43947SOL     OW37677   1.501  11.539   2.853 -0.3188  0.7834  0.0229
43947SOL    HW137678   1.551  11.509   2.777 -0.6409 -2.1566  0.8401
43947SOL    HW237679   1.443  11.465   2.873 -0.5818  1.6676  2.8232
43948SOL     OW37680   5.239  12.219   8.585 -0.3376  0.4887  0.7978
43948SOL    HW137681   5.210  12.288   8.526 -2.1672 -0.5631  0.3749
43948SOL    HW237682   5.163  12.203   8.641 -0.1790 -1.5684  0.4841
43949SOL     OW37683   0.484   9.535   6.841  0.0369 -0.0675 -0.7918
43949SOL    HW137684   0.441   9.619   6.826 -1.0766 -0.3694  0.5083
43949SOL    HW237685   0.543   9.551   6.915  1.1459 -0.0095 -1.6674
43950SOL     OW37686   9.529   2.888   5.768  0.1156  0.1117 -0.0911
43950SOL    HW137687   9.465   2.917   5.703 -0.6464 -0.5134  0.3596
43950SOL    HW237688   9.614   2.904   5.727 -0.2775  2.1333 -0.2037
43951SOL     OW37689   3.685   1.739   6.087 -0.2590  0.6311  0.0204
43951SOL    HW137690   3.668   1.825   6.048 -2.2802  0.8544  1.2323
43951SOL    HW237691   3.667   1.677   6.017 -0.3571  1.1417 -0.4162
43952SOL     OW37692   9.371   7.406   2.710 -0.7978 -0.3332 -0.5325
43952SOL    HW137693   9.316   7.329   2.721  0.8053 -1.8028 -2.1014
43952SOL    HW237694   9.388   7.411   2.616  0.8902  0.6376 -0.2293
43953SOL     OW37695   7.430   2.761   3.551  0.1863 -0.4969 -0.3437
43953SOL    HW137696   7.459   2.785   3.639  1.3022 -0.4292 -0.7175
43953SOL    HW237697   7.464   2.673   3.538 -2.5572 -1.7666  0.4194
43954SOL     OW37698  10.921  11.250   8.539 -0.1937 -0.0530  0.1154
43954SOL    HW137699  10.979  11.206   8.601  1.6511  0.0779 -1.4000
43954SOL    HW237700  10.907  11.186   8.469 -0.3547  0.5633 -0.4298
43955SOL     OW37701   2.481   3.767   1.735 -0.2017  0.3869 -0.5297
43955SOL    HW137702   2.461   3.845   1.787 -0.6583  0.5519 -0.9437
43955SOL    HW237703   2.543   3.718   1.788 -0.6287  0.5709  0.1571
43956SOL     OW37704   8.314  10.531  10.236  0.2645 -0.4742 -0.1254
43956SOL    HW137705   8.273  10.470  10.297  0.0658  1.5806  1.9457
43956SOL    HW237706   8.243  10.561  10.180 -0.0195 -0.7312  0.0937
43957SOL     OW37707   8.957   7.057  11.502 -0.3524 -0.0414 -0.3751
43957SOL    HW137708   9.037   7.087  11.460 -0.0214 -1.0180 -0.4799
43957SOL    HW237709   8.914   7.002  11.435 -0.1806 -1.0235  0.2966
43958SOL     OW37710   7.898   9.286   2.370  1.1886 -0.0506 -0.6025
43958SOL    HW137711   7.884   9.212   2.430 -1.2828  0.3270 -0.6209
43958SOL    HW237712   7.902   9.245   2.283  2.4088 -0.3711 -0.4155
43959SOL     OW37713   6.699   8.291   8.022 -0.1713 -0.0547  0.3334
43959SOL    HW137714   6.682   8.213   8.076 -0.2261 -0.4960 -0.2966
43959SOL    HW237715   6.643   8.278   7.945  2.1079 -0.9543 -1.2608
43960SOL     OW37716  10.615   3.427   7.251 -0.1209  0.1325  0.0007
43960SOL    HW137717  10.618   3.411   7.345  1.0218  2.6956  0.4953
43960SOL    HW237718  10.580   3.346   7.213 -1.9213 -0.4901  2.7211
43961SOL     OW37719   2.846   2.498   7.486  0.1196 -0.0015 -0.1280
43961SOL    HW137720   2.760   2.539   7.494  0.1740 -0.0678  0.9465
43961SOL    HW237721   2.886   2.510   7.572  1.4028  0.5024 -0.7689
43962SOL     OW37722   5.010   0.492   6.917  0.4410  0.3460  0.0019
43962SOL    HW137723   4.996   0.460   6.828  0.0652  0.4038  0.0381
43962SOL    HW237724   4.925   0.528   6.943  0.4800  0.1045  0.4752
43963SOL     OW37725  12.108   7.792   5.145  0.1915 -0.3810  0.2454
43963SOL    HW137726  12.187   7.744   5.165  0.4389  0.0099  0.2186
43963SOL    HW237727  12.110   7.804   5.050  0.0734 -0.4222  0.2374
43964SOL     OW37728   5.683   9.407   5.674 -0.6632 -0.4823 -0.4089
43964SOL    HW137729   5.701   9.314   5.684  0.4837 -0.1222  1.3121
43964SOL    HW237730   5.769   9.449   5.678 -0.9201  0.5393 -3.3436
43965SOL     OW37731   7.040   9.127  12.308 -0.1653  0.3659  0.0392
43965SOL    HW137732   6.996   9.191  12.252 -2.6826 -2.4376 -1.4742
43965SOL    HW237733   6.998   9.136  12.393  1.3596  2.3700  0.6751
43966SOL     OW37734   6.854   8.172  11.800  0.0843 -0.1471  0.6802
43966SOL    HW137735   6.835   8.213  11.715 -0.4007  0.6532  1.1681
43966SOL    HW237736   6.795   8.215  11.861  0.2197 -0.9392  1.3780
43967SOL     OW37737   2.236   5.888  10.851 -0.4364  0.0089 -0.1714
43967SOL    HW137738   2.258   5.945  10.778 -1.9125  2.1765  0.9843
43967SOL    HW237739   2.256   5.800  10.819 -0.3566  0.9274 -2.8983
43968SOL     OW37740   1.741   2.156   0.828 -0.4021 -0.0607 -0.2588
43968SOL    HW137741   1.665   2.180   0.776 -0.3160  0.1562 -0.2837
43968SOL    HW237742   1.716   2.074   0.870 -0.8460  0.2854  0.1567
43969SOL     OW37743   2.876   0.258   4.486  0.2691  0.0227 -0.6731
43969SOL    HW137744   2.932   0.199   4.435 -0.3165 -3.0146  1.8826
43969SOL    HW237745   2.787   0.227   4.468 -0.1233  0.6431  0.1444
43970SOL     OW37746   8.555   8.240   3.199 -0.4045  0.3077  0.0717
43970SOL    HW137747   8.568   8.333   3.179  1.7960 -0.1638 -1.0756
43970SOL    HW237748   8.604   8.194   3.131  0.6118 -1.6185  1.9727
43971SOL     OW37749   0.415   8.391   6.741  0.0888 -0.3499 -0.1498
43971SOL    HW137750   0.467   8.457   6.696 -2.3986  1.1007 -1.0974
43971SOL    HW237751   0.446   8.307   6.705  3.4893  0.1300  1.2673
43972SOL     OW37752   6.316   6.005   2.304  1.0147 -0.0147  0.0580
43972SOL    HW137753   6.285   6.031   2.218  0.6787 -0.0250  0.1737
43972SOL    HW237754   6.360   6.084   2.338  0.5418  0.2075  0.1569
43973SOL     OW37755   9.023   2.212   0.545 -0.3421  0.2199 -0.9234
43973SOL    HW137756   9.002   2.163   0.625 -0.6682 -2.3247 -2.4422
43973SOL    HW237757   8.950   2.272   0.534 -1.2910 -0.7750 -0.3128
43974SOL     OW37758   2.198   7.978   7.163  0.3802 -0.0578  0.2391
43974SOL    HW137759   2.129   8.014   7.218  0.2984  0.0965  0.0349
43974SOL    HW237760   2.217   8.047   7.099 -0.8870 -0.9542 -1.1776
43975SOL     OW37761   7.961  11.976   8.514 -0.2822 -0.8101 -0.2249
43975SOL    HW137762   8.006  11.900   8.478  0.3602  0.3774 -2.0953
43975SOL    HW237763   7.888  11.992   8.454 -0.3781  0.0632  0.1095
43976SOL     OW37764   3.074   5.493   1.217  0.3188 -0.4696  0.3938
43976SOL    HW137765   3.128   5.571   1.205  1.6902 -1.3315  0.6627
43976SOL    HW237766   3.028   5.507   1.300  0.6024  0.0170  0.4710
43977SOL     OW37767  10.649  11.112   6.579  0.1506 -0.3649  0.0214
43977SOL    HW137768  10.554  11.125   6.581 -0.1413 -2.1674  1.3484
43977SOL    HW237769  10.672  11.112   6.487 -1.0958  0.3060 -0.3126
43978SOL     OW37770  11.568   3.582   6.005  0.1875 -0.2793  0.1330
43978SOL    HW137771  11.540   3.644   5.938 -0.6202 -1.2971 -0.5011
43978SOL    HW237772  11.593   3.504   5.956 -3.0988 -2.0846  1.0749
43979SOL     OW37773   4.748   7.157   7.379  0.0752 -0.2979 -0.0505
43979SOL    HW137774   4.829   7.105   7.377  1.5939  1.9214 -2.4721
43979SOL    HW237775   4.760   7.216   7.454  0.8119  0.0996 -0.4632
43980SOL     OW37776   6.308   5.790   5.323  0.2882  0.0894  0.1791
43980SOL    HW137777   6.384   5.735   5.306 -0.3217 -0.6466 -0.1929
43980SOL    HW237778   6.243   5.764   5.258 -0.6882 -0.0782  1.1894
43981SOL     OW37779  11.872  11.181   2.859 -0.6526 -0.1499 -0.5086
43981SOL    HW137780  11.893  11.261   2.907  0.9742 -1.8567  1.8313
43981SOL    HW237781  11.947  11.167   2.802 -1.9373  1.0939 -2.6233
43982SOL     OW37782  11.330   8.794   3.829  0.3504  0.2344 -0.1556
43982SOL    HW137783  11.369   8.712   3.859  0.8527 -0.5844 -2.8393
43982SOL    HW237784  11.388   8.825   3.760 -1.5511  1.1645 -1.4252
43983SOL     OW37785   2.081  11.527  11.229 -0.5064 -0.2720 -0.4599
43983SOL    HW137786   2.082  11.519  11.133  2.1113 -0.3964 -0.4864
43983SOL    HW237787   2.163  11.487  11.257 -1.0392  0.1193  1.8392
43984SOL     OW37788   9.362   0.403   7.264  0.7458  0.2428 -0.1067
43984SOL    HW137789   9.409   0.470   7.314  0.7409 -0.8553  1.3998
43984SOL    HW237790   9.280   0.446   7.237  0.6640  0.7953  0.9895
43985SOL     OW37791   2.318   5.269   9.916 -0.4758  0.6637 -0.0284
43985SOL    HW137792   2.317   5.180   9.952 -0.2631 -0.1121 -1.8363
43985SOL    HW237793   2.402   5.276   9.871 -0.2578  1.9962  0.5315
43986SOL     OW37794   7.838   0.919   2.125  0.0480  0.0750  0.3151
43986SOL    HW137795   7.887   1.001   2.119 -1.7238  1.1808  0.1958
43986SOL    HW237796   7.750   0.946   2.151 -0.2570 -1.9280  1.5777
43987SOL     OW37797   0.820   0.651  12.253 -0.0707 -0.3735  0.1679
43987SOL    HW137798   0.835   0.641  12.348 -2.6081 -1.1084  0.5551
43987SOL    HW237799   0.843   0.566  12.216 -2.3010 -1.2454  0.6519
43988SOL     OW37800   5.364   5.057   0.153 -0.0030 -0.2018  0.4943
43988SOL    HW137801   5.372   5.018   0.066 -1.1353 -2.9108  1.5004
43988SOL    HW237802   5.282   5.105   0.151 -0.8432 -1.6036  0.5112
43989SOL     OW37803   6.998   1.588   7.236 -0.3181  0.5788  0.0639
43989SOL    HW137804   7.010   1.653   7.166 -1.2299  0.8894  0.1812
43989SOL    HW237805   7.039   1.509   7.202  0.1032  0.9950 -0.4180
43990SOL     OW37806  10.685   9.756   2.913 -1.0413  0.2155  0.1619
43990SOL    HW137807  10.771   9.740   2.874 -1.0959 -2.0832  0.8415
43990SOL    HW237808  10.634   9.794   2.842  0.6412  2.2004 -0.0937
43991SOL     OW37809   4.228   4.345   3.005  0.1847 -0.0334 -0.0767
43991SOL    HW137810   4.216   4.336   2.911 -1.4650  0.3065  0.0691
43991SOL    HW237811   4.298   4.410   3.015 -0.9688  1.4164 -1.0706
43992SOL     OW37812   8.153   4.134  11.125  0.0231  0.2535  0.0361
43992SOL    HW137813   8.113   4.172  11.047  1.1366 -0.4870 -0.9314
43992SOL    HW237814   8.214   4.202  11.155 -0.8745  0.7991  0.6623
43993SOL     OW37815  10.611   2.064   5.318 -0.3080 -0.7083  0.5272
43993SOL    HW137816  10.550   1.999   5.282 -0.9096 -0.1908  0.5882
43993SOL    HW237817  10.556   2.140   5.338  0.7466  0.8910 -2.1356
43994SOL     OW37818   0.424   0.149   3.772  0.0065 -0.3110  0.0509
43994SOL    HW137819   0.517   0.145   3.793 -0.4942 -3.1851  2.4038
43994SOL    HW237820   0.380   0.144   3.858 -2.3015 -0.2747 -1.0540
43995SOL     OW37821  10.730   0.428   9.675 -0.0378 -0.3817 -0.3496
43995SOL    HW137822  10.804   0.404   9.731  0.0744  1.6714  0.4533
43995SOL    HW237823  10.659   0.447   9.735 -0.5176 -0.0600 -1.0098
43996SOL     OW37824   5.738   7.596   6.030  0.3546  0.0571 -0.1912
43996SOL    HW137825   5.694   7.511   6.028  1.3074 -0.5329  1.4549
43996SOL    HW237826   5.812   7.583   6.089  1.0799  1.7876 -0.6521
43997SOL     OW37827   0.871   6.345   2.839  0.5208  0.1100  0.7509
43997SOL    HW137828   0.807   6.320   2.905  1.4298 -1.4258  1.0935
43997SOL    HW237829   0.890   6.437   2.858 -3.2389  1.4269 -0.8035
43998SOL     OW37830   5.786   1.327   2.642 -0.2073  0.1587 -0.6058
43998SOL    HW137831   5.749   1.272   2.574  0.6601 -0.3127 -0.6988
43998SOL    HW237832   5.880   1.312   2.638 -0.0706  0.7161  0.1802
43999SOL     OW37833  12.004  10.424  12.270  0.0066  0.4168 -0.6743
43999SOL    HW137834  11.948  10.363  12.224 -0.1254 -0.5672  0.7143
43999SOL    HW237835  11.990  10.508  12.227 -2.7486  0.2792 -0.2318
44000SOL     OW37836   2.249   5.639   4.132  0.5107 -0.0792  0.1942
44000SOL    HW137837   2.190   5.643   4.207 -1.5051  1.1003 -1.3447
44000SOL    HW237838   2.202   5.588   4.067  0.7563  1.5964 -1.3853
44001SOL     OW37839   6.284   7.414   8.809  0.0387  0.0662 -0.0951
44001SOL    HW137840   6.244   7.327   8.816 -0.9648  0.4916 -0.2631
44001SOL    HW237841   6.230   7.469   8.865  1.2094  0.4134  0.7052
44002SOL     OW37842   8.425   6.336   7.595 -0.4688  0.2316 -0.0098
44002SOL    HW137843   8.499   6.296   7.641 -0.2227 -0.2222 -0.7861
44002SOL    HW237844   8.376   6.262   7.558  0.0396  0.6277 -1.5404
44003SOL     OW37845   7.381   8.774   6.959 -0.2977  0.1995  0.2984
44003SOL    HW137846   7.319   8.812   7.021  0.0904 -1.9887  2.1734
44003SOL    HW237847   7.339   8.693   6.929  0.6758 -0.1410 -0.2190
44004SOL     OW37848   8.357   8.672   4.226  0.3355  0.3389  0.2925
44004SOL    HW137849   8.262   8.661   4.223  0.4072 -0.7886  1.4238
44004SOL    HW237850   8.375   8.738   4.160 -1.2794  0.8328  0.2918
44005SOL     OW37851   6.112   6.383   3.491  0.3867 -0.1806  0.0191
44005SOL    HW137852   6.115   6.475   3.519  0.1084 -0.4630  0.9834
44005SOL    HW237853   6.175   6.338   3.547  1.0230 -0.4767 -0.9070
44006SOL     OW37854   6.121   4.379   6.666 -0.1022 -0.1480  0.3411
44006SOL    HW137855   6.131   4.463   6.711  1.0682 -0.1804  0.1611
44006SOL    HW237856   6.210   4.350   6.649 -0.5035 -1.2004 -0.0394
44007SOL     OW37857   4.028   8.501  10.076 -0.3939 -0.6062  0.0005
44007SOL    HW137858   4.117   8.493  10.041 -0.8235 -0.8506 -1.0846
44007SOL    HW237859   3.988   8.571  10.024  0.3506  2.3732  3.1170
44008SOL     OW37860  11.939   4.543  10.873  0.5544  0.0218 -0.6687
44008SOL    HW137861  12.026   4.507  10.855  0.4526  0.0445 -1.2412
44008SOL    HW237862  11.955   4.633  10.901  0.9138 -0.8376  2.1497
44009SOL     OW37863   2.834   1.408   5.419 -0.0688 -0.1783 -0.4730
44009SOL    HW137864   2.769   1.466   5.380 -0.4244  0.4328  0.9614
44009SOL    HW237865   2.903   1.467   5.450  0.0907 -0.6266  0.0328
44010SOL     OW37866   5.367  11.988  10.038  0.0851  0.3357  1.0558
44010SOL    HW137867   5.438  12.007  10.100 -0.5012  0.6663  1.6421
44010SOL    HW237868   5.412  11.963   9.957  0.8714  0.8399  1.3216
44011SOL     OW37869   6.892   9.360   6.799 -0.0395 -0.1847  0.1244
44011SOL    HW137870   6.862   9.269   6.795  1.3650 -0.8874  2.8545
44011SOL    HW237871   6.878   9.394   6.711 -3.1665 -2.1700 -0.3144
44012SOL     OW37872  11.066   8.158   1.294  0.4533  0.3973  0.0537
44012SOL    HW137873  11.047   8.067   1.272 -0.7338  0.8223 -0.7635
44012SOL    HW237874  11.091   8.198   1.211 -1.9193  1.4958 -0.1877
44013SOL     OW37875   2.212   2.767   4.945 -0.3696 -0.0683 -0.3472
44013SOL    HW137876   2.139   2.818   4.981 -0.3063 -1.4475  1.9840
44013SOL    HW237877   2.280   2.831   4.925 -1.2912  0.9941 -0.1628
44014SOL     OW37878   1.070   1.686   3.545 -0.3385 -0.1900 -0.4363
44014SOL    HW137879   1.094   1.678   3.453  3.0692  2.0233  0.0910
44014SOL    HW237880   1.126   1.624   3.590 -2.0691 -1.3450  0.2124
44015SOL     OW37881   9.429   5.982   7.865 -0.5918 -0.0691 -0.3004
44015SOL    HW137882   9.337   6.005   7.848 -0.8523 -0.2449  0.7535
44015SOL    HW237883   9.433   5.973   7.960  0.9568  1.7830 -0.1209
44016SOL     OW37884   1.642   0.469   9.958  0.1994 -0.1179 -0.3065
44016SOL    HW137885   1.558   0.454   9.914 -0.7736  0.1610  1.3916
44016SOL    HW237886   1.656   0.390  10.010  1.3774 -0.4741 -1.1007
44017SOL     OW37887   5.523  11.742   8.334  0.3321 -0.2258  0.6008
44017SOL    HW137888   5.461  11.680   8.295  2.0225 -1.1079 -0.8960
44017SOL    HW237889   5.547  11.702   8.418 -1.0709  0.1175  1.1786
44018SOL     OW37890   6.457   6.894   9.803  0.7976  0.0335  1.2844
44018SOL    HW137891   6.403   6.902   9.881  0.4168  1.5719  0.9026
44018SOL    HW237892   6.396   6.907   9.730  1.3309 -0.2630  0.7762
44019SOL     OW37893   2.765   6.798  10.557  0.9939 -0.2060  0.1949
44019SOL    HW137894   2.832   6.860  10.584  1.0670 -1.1079  2.3014
44019SOL    HW237895   2.814   6.724  10.520  0.9239  0.7308 -1.9161
44020SOL     OW37896   0.924   8.202   6.820  0.9834  0.6547  0.3054
44020SOL    HW137897   0.969   8.247   6.749  0.6683  0.4532 -0.0278
44020SOL    HW237898   0.889   8.272   6.875 -0.0181  0.8288 -0.5330
44021SOL     OW37899   4.716   2.447   4.111  0.2624  0.2944 -0.6938
44021SOL    HW137900   4.623   2.464   4.096  0.0678 -0.8155 -0.8294
44021SOL    HW237901   4.747   2.409   4.029  0.2610 -1.5674  0.1110
44022SOL     OW37902   3.193   5.315   0.654  0.0319 -0.5051 -0.0432
44022SOL    HW137903   3.109   5.271   0.641 -0.6557  0.7030  0.0517
44022SOL    HW237904   3.180   5.402   0.615  2.0221 -1.0437 -2.0941
44023SOL     OW37905   7.971   0.122   3.438 -0.2619  0.9288 -0.0292
44023SOL    HW137906   7.949   0.145   3.347  0.9335  0.6573 -0.3989
44023SOL    HW237907   8.048   0.175   3.459 -1.0812  1.7059  1.1769
44024SOL     OW37908   0.679   9.672   8.726 -0.4714  0.2916 -0.0598
44024SOL    HW137909   0.597   9.719   8.714  0.8346  2.6849 -0.1943
44024SOL    HW237910   0.747   9.738   8.716  1.4706 -1.3465  1.2979
44025SOL     OW37911   8.495   0.579   3.823  0.1854  0.3077  0.1709
44025SOL    HW137912   8.451   0.522   3.759  1.3645 -1.2829  0.7083
44025SOL    HW237913   8.448   0.565   3.905  1.1759 -0.8396  0.5756
44026SOL     OW37914   2.322  11.881   1.188 -0.6877 -0.0029  0.1674
44026SOL    HW137915   2.324  11.905   1.281  0.6528 -1.5545  0.5789
44026SOL    HW237916   2.377  11.946   1.145 -0.0823 -0.1664  0.6908
44027SOL     OW37917  11.520   0.587   0.954 -0.4168 -0.6026 -0.6526
44027SOL    HW137918  11.481   0.626   0.876 -0.0821  2.3718  0.5681
44027SOL    HW237919  11.613   0.579   0.933 -0.6671 -2.0239 -1.3525
44028SOL     OW37920   6.798   2.567   0.679 -0.2181 -0.4263  0.2602
44028SOL    HW137921   6.881   2.591   0.720  0.1682  1.3946 -1.4454
44028SOL    HW237922   6.820   2.550   0.588 -1.6511 -0.4006 -0.1108
44029SOL     OW37923   5.749  11.359   1.733  0.2960 -0.0899 -0.3609
44029SOL    HW137924   5.714  11.277   1.768  0.2923  0.0719  0.0270
44029SOL    HW237925   5.816  11.385   1.796 -1.3209  1.4212  0.8333
44030SOL     OW37926   1.557   7.322   2.531 -0.1647  0.2181 -0.4498
44030SOL    HW137927   1.507   7.396   2.565 -1.0275 -0.4112 -0.2804
44030SOL    HW237928   1.594   7.280   2.609  0.2489  0.4209 -0.5368
44031SOL     OW37929   3.803  12.318   6.210 -0.1326 -0.2891  0.5508
44031SOL    HW137930   3.794  12.236   6.259  1.5911 -0.7233  0.1936
44031SOL    HW237931   3.845  12.292   6.128  1.2573  1.0548  0.8011
44032SOL     OW37932   4.533   2.158   2.386 -0.0875  0.4378  0.6100
44032SOL    HW137933   4.452   2.114   2.412  0.0567 -0.1294  0.1314
44032SOL    HW237934   4.550   2.126   2.297 -0.7968  2.6068 -0.3838
44033SOL     OW37935   0.112   7.588   8.783  0.5188 -0.0275 -0.7801
44033SOL    HW137936   0.122   7.509   8.836  0.0725  1.1406  1.1716
44033SOL    HW237937   0.024   7.620   8.804  0.9909  1.4067 -0.9100
44034SOL     OW37938   4.282   7.130  10.232 -0.5623  0.3779  0.1023
44034SOL    HW137939   4.189   7.148  10.247 -0.4079 -0.2538  2.0894
44034SOL    HW237940   4.305   7.184  10.156 -2.0527  2.1362  0.8350
44035SOL     OW37941   2.695   3.495   8.956  0.4171 -0.2349  0.2704
44035SOL    HW137942   2.789   3.485   8.973  0.3394  0.7325  1.4398
44035SOL    HW237943   2.664   3.552   9.027 -0.6923  1.0290 -1.1587
44036SOL     OW37944   5.149   5.025   8.981  0.2734  0.5478  0.0451
44036SOL    HW137945   5.216   4.957   8.990  0.3900  0.7675  0.8874
44036SOL    HW237946   5.069   4.977   8.961 -0.3135 -0.1727  3.5309
44037SOL     OW37947   9.980   9.366   2.770 -0.3390  0.1940  0.2419
44037SOL    HW137948  10.022   9.401   2.848 -0.4190  0.7569  0.0363
44037SOL    HW237949   9.919   9.435   2.742 -0.5460 -0.1338 -0.1282
44038SOL     OW37950   2.885   7.172  11.762 -0.3888  0.1046 -0.1571
44038SOL    HW137951   2.885   7.220  11.845 -0.3650 -2.0595  1.1694
44038SOL    HW237952   2.950   7.218  11.708  1.1512  0.3355  1.7769
44039SOL     OW37953   2.714   4.053  10.049  0.1549 -0.1178  0.1926
44039SOL    HW137954   2.803   4.019  10.036  0.8480  0.6730  2.2743
44039SOL    HW237955   2.665   3.979  10.084  0.9822  0.2341  2.3015
44040SOL     OW37956   4.549   7.496   0.571  0.1703  0.1548  0.4985
44040SOL    HW137957   4.520   7.486   0.661 -0.3961  0.3185  0.3393
44040SOL    HW237958   4.638   7.531   0.578 -0.1991  1.0363  0.9894
44041SOL     OW37959   9.610   9.533   7.977 -0.2531 -0.0700 -0.1067
44041SOL    HW137960   9.557   9.593   7.925 -0.5485 -2.0136 -2.2548
44041SOL    HW237961   9.592   9.447   7.939  2.2384 -1.1703  0.9799
44042SOL     OW37962  10.892  10.243   6.639  0.0276 -0.1494  0.4437
44042SOL    HW137963  10.833  10.243   6.714  0.6833 -1.7384  1.0040
44042SOL    HW237964  10.970  10.291   6.669 -0.2034  0.2838  0.3534
44043SOL     OW37965   8.806   5.745   5.650 -0.1807 -0.7413  0.4508
44043SOL    HW137966   8.869   5.813   5.628 -2.4412  1.6443  0.7938
44043SOL    HW237967   8.827   5.672   5.592  0.9519  1.1248 -1.6249
44044SOL     OW37968   3.852   1.407   9.018 -0.0820  0.1699  0.1190
44044SOL    HW137969   3.816   1.392   9.106  1.7183 -0.4263  0.7862
44044SOL    HW237970   3.834   1.326   8.970  0.7160 -0.2931  0.5834
44045SOL     OW37971   0.067  11.963   5.780 -0.4704  0.0500  0.0234
44045SOL    HW137972  -0.018  11.958   5.737 -0.5349 -1.3198  0.2731
44045SOL    HW237973   0.130  11.967   5.709 -0.7169  0.7234 -0.1645
44046SOL     OW37974  11.022   3.210   0.378  0.6337  0.0041 -0.0356
44046SOL    HW137975  10.950   3.155   0.347 -0.8839  2.1706 -0.6043
44046SOL    HW237976  10.991   3.245   0.461  1.7884 -0.3672  0.5713
44047SOL     OW37977  10.793   3.864   4.506 -0.4321  0.0891 -0.1288
44047SOL    HW137978  10.880   3.896   4.485  0.2598 -1.1873  0.6514
44047SOL    HW237979  10.735   3.939   4.492  1.0892  1.6424  1.4997
44048SOL     OW37980   2.553   8.279   4.708 -0.9886 -0.5128 -0.4503
44048SOL    HW137981   2.644   8.251   4.706 -0.1634  1.8825 -0.2370
44048SOL    HW237982   2.503   8.199   4.725  1.0733 -1.8457 -0.3204
44049SOL     OW37983   2.649   8.582   9.888 -0.6558  0.6608 -0.1191
44049SOL    HW137984   2.567   8.564   9.843 -1.2702  0.0209  1.2032
44049SOL    HW237985   2.631   8.659   9.942 -0.0985  1.0898 -0.5344
44050SOL     OW37986   5.809  11.146   0.263  0.1250 -0.1022 -0.0957
44050SOL    HW137987   5.882  11.103   0.306 -0.4639 -1.0700 -0.0150
44050SOL    HW237988   5.849  11.214   0.209  0.8237  1.9087  2.7398
44051SOL     OW37989  10.528   7.083   4.690 -0.3008  0.3669  0.0600
44051SOL    HW137990  10.529   7.177   4.670 -0.0796  0.1055 -1.2524
44051SOL    HW237991  10.458   7.072   4.754  0.1395  1.5217  0.7778
44052SOL     OW37992  11.196  11.433   6.496 -0.0311 -0.0140  0.4098
44052SOL    HW137993  11.155  11.350   6.472  0.5738 -0.1701 -0.0854
44052SOL    HW237994  11.135  11.472   6.559 -0.4386 -0.7146  0.4563
44053SOL     OW37995  10.608   1.435  11.611 -0.3787 -0.8552 -0.3668
44053SOL    HW137996  10.682   1.495  11.600 -0.1561 -1.1491 -0.4623
44053SOL    HW237997  10.606   1.416  11.704 -0.5449 -0.5818 -0.3108
44054SOL     OW37998   6.857   6.799  10.157 -0.6810 -0.3270 -0.5801
44054SOL    HW137999   6.862   6.893  10.141  0.3873 -0.3329 -0.3501
44054SOL    HW238000   6.874   6.789  10.250 -0.9499 -0.7376 -0.5728
44055SOL     OW38001  11.177   9.211  10.899 -0.7589 -0.1506  0.3281
44055SOL    HW138002  11.175   9.242  10.990  0.7484  0.3181  0.2301
44055SOL    HW238003  11.154   9.288  10.847 -0.1381 -0.0177  0.2443
44056SOL     OW38004   0.575   4.761   5.614  0.1298 -0.2531  0.1313
44056SOL    HW138005   0.634   4.779   5.541 -0.2946 -0.6299 -0.3054
44056SOL    HW238006   0.546   4.847   5.644 -1.8868 -0.1416 -1.9351
44057SOL     OW38007   3.660   0.751  11.331  0.1614  0.3293 -0.6078
44057SOL    HW138008   3.680   0.677  11.274  1.3042  0.1281  0.0227
44057SOL    HW238009   3.724   0.818  11.307 -0.2322  0.7573 -0.4893
44058SOL     OW38010   9.875   2.374   3.790  0.6813 -0.0527 -0.2220
44058SOL    HW138011   9.794   2.397   3.836  0.0050 -0.3370 -1.2373
44058SOL    HW238012   9.894   2.285   3.819 -1.4558 -1.4741 -2.6994
44059SOL     OW38013   4.914   6.886   8.051 -0.1118  0.1338  0.2502
44059SOL    HW138014   4.999   6.924   8.028 -0.4081  0.2611 -0.7077
44059SOL    HW238015   4.934   6.795   8.075  0.4847  0.6275  1.6701
44060SOL     OW38016   3.851   7.930  11.298  0.6055 -0.2339  0.3971
44060SOL    HW138017   3.866   7.874  11.222 -0.3716 -0.6001  0.4560
44060SOL    HW238018   3.819   7.870  11.365  0.7609  0.2031  0.8636
44061SOL     OW38019   5.559   3.405   0.032  0.1066 -0.0180  0.1538
44061SOL    HW138020   5.521   3.319   0.048 -0.9431  0.0003 -1.9422
44061SOL    HW238021   5.632   3.411   0.094  0.9390 -2.8915 -0.4001
44062SOL     OW38022   1.839   3.883   0.365 -0.2889 -0.2295  0.0677
44062SOL    HW138023   1.759   3.916   0.405 -0.2237 -0.1624  0.1432
44062SOL    HW238024   1.881   3.832   0.434  0.1253  0.3823  0.2781
44063SOL     OW38025   0.040   4.261   2.685  0.3603 -0.2738  0.5461
44063SOL    HW138026   0.047   4.286   2.777 -3.1070  0.5891  0.7378
44063SOL    HW238027   0.062   4.341   2.637  0.6923 -0.2900  0.6676
44064SOL     OW38028   4.852   2.022   7.937  0.1453  0.2901  0.5578
44064SOL    HW138029   4.802   1.945   7.960 -0.4301  0.6756  0.6163
44064SOL    HW238030   4.817   2.092   7.993  0.1190  0.7702 -0.0437
44065SOL     OW38031  11.296   8.797   0.613  0.2248  0.4728 -0.2261
44065SOL    HW138032  11.342   8.759   0.539  0.2063  0.2360 -0.1175
44065SOL    HW238033  11.303   8.731   0.682 -0.9969  0.0532 -0.4761
44066SOL     OW38034   9.456   7.866   5.964  0.4964 -0.4183  0.5602
44066SOL    HW138035   9.383   7.925   5.986 -0.3924 -0.8598 -1.0435
44066SOL    HW238036   9.518   7.877   6.036  0.2994  2.3668  0.4174
44067SOL     OW38037  11.022   0.346   7.183 -0.1502 -0.1307 -0.3098
44067SOL    HW138038  11.091   0.325   7.119 -0.6421 -1.1405 -0.5291
44067SOL    HW238039  10.943   0.307   7.146 -0.3587 -1.1539  1.1517
44068SOL     OW38040  12.238   7.742   8.888 -0.3508  0.0309 -0.0735
44068SOL    HW138041  12.202   7.828   8.908 -0.5258 -0.2220  0.7065
44068SOL    HW238042  12.317   7.736   8.942 -0.4970 -0.4135  0.0944
44069SOL     OW38043   4.107  10.569   6.861 -0.3888  0.2896 -0.0445
44069SOL    HW138044   4.181  10.561   6.921 -0.0662 -0.6706 -0.5613
44069SOL    HW238045   4.146  10.572   6.774 -0.9538 -0.3588 -0.3337
44070SOL     OW38046  10.104   7.217   1.735 -0.5321 -0.0802 -0.3145
44070SOL    HW138047  10.061   7.145   1.781 -0.2921  0.8253  1.3991
44070SOL    HW238048  10.081   7.295   1.786  0.4619  0.8538 -1.2509
44071SOL     OW38049   5.225   0.775   1.591  0.0250  0.6648 -0.7257
44071SOL    HW138050   5.258   0.806   1.506 -0.5797  0.8558 -0.8972
44071SOL    HW238051   5.298   0.726   1.628  0.8749  1.9543 -0.6209
44072SOL     OW38052   4.066   5.809   8.921  0.2999 -0.1690  0.0409
44072SOL    HW138053   4.089   5.899   8.895  0.4605 -0.2989 -0.2700
44072SOL    HW238054   4.083   5.757   8.843  2.5859 -0.8657  0.9215
44073SOL     OW38055  12.303   0.656   4.701  0.9594 -0.1626 -0.0173
44073SOL    HW138056  12.226   0.618   4.657  0.6396 -0.3864  0.7192
44073SOL    HW238057  12.280   0.748   4.713  0.4990 -0.3795  0.8396
44074SOL     OW38058  11.102  11.920   7.892  0.5304 -0.1391  0.5373
44074SOL    HW138059  11.068  12.002   7.928  0.0645 -0.6840  1.3707
44074SOL    HW238060  11.024  11.874   7.860  0.9772  0.6243 -1.8949
44075SOL     OW38061   6.077   3.852   3.380 -0.4209  0.1517  0.3897
44075SOL    HW138062   6.066   3.763   3.415  0.7514  0.1307  0.7558
44075SOL    HW238063   6.011   3.904   3.426 -0.4449 -0.3398  0.9214
44076SOL     OW38064   4.437   7.618   6.774  0.5924  0.6416  0.0702
44076SOL    HW138065   4.371   7.669   6.822  0.5324  0.5650  0.0688
44076SOL    HW238066   4.517   7.629   6.825 -0.0983 -1.7956  1.8484
44077SOL     OW38067   4.839   4.308  11.037  0.2073  0.1674 -0.0340
44077SOL    HW138068   4.796   4.331  10.955 -0.5421  0.8509  0.5420
44077SOL    HW238069   4.930   4.337  11.025  0.2185 -0.1336 -0.7748
44078SOL     OW38070   9.572  10.604  12.058 -0.0024 -0.0603 -0.0944
44078SOL    HW138071   9.581  10.509  12.047 -1.3814 -0.1766 -0.4040
44078SOL    HW238072   9.598  10.619  12.149  0.7914 -0.6477 -0.2105
44079SOL     OW38073  11.889   0.128   9.686  0.1155 -0.0074  0.0453
44079SOL    HW138074  11.935   0.200   9.730  0.5177  0.6925 -1.4660
44079SOL    HW238075  11.824   0.100   9.750 -1.8370  3.4145 -0.1659
44080SOL     OW38076  10.676   5.411   3.916 -0.9822 -0.6739  0.0650
44080SOL    HW138077  10.706   5.497   3.943 -0.5100 -0.9071  0.3019
44080SOL    HW238078  10.748   5.375   3.865 -0.7681 -1.3112  0.7926
44081SOL     OW38079  10.211   5.867   5.083 -0.3945 -0.4261  0.0060
44081SOL    HW138080  10.205   5.961   5.063  0.8328 -0.3782 -0.2132
44081SOL    HW238081  10.280   5.835   5.025 -1.8855 -1.8251 -1.1228
44082SOL     OW38082   5.037   6.840   1.182 -0.1796  0.2532  0.0273
44082SOL    HW138083   4.949   6.806   1.165 -0.6066  1.3914 -0.1386
44082SOL    HW238084   5.071   6.784   1.251 -1.1507 -0.0239  0.3061
44083SOL     OW38085   2.549   1.649   8.809 -0.3387  0.4170 -0.2065
44083SOL    HW138086   2.614   1.614   8.748 -1.8904  0.1934 -1.8114
44083SOL    HW238087   2.491   1.575   8.827  0.7923  0.0943  2.6568
44084SOL     OW38088  12.319  10.616   5.161 -0.1449  0.2329  0.7099
44084SOL    HW138089  12.282  10.582   5.242  0.5328  0.4358  1.1084
44084SOL    HW238090  12.242  10.641   5.108 -0.7780 -2.9301 -0.0898
44085SOL     OW38091   1.419   9.214   7.769  0.2202  0.2298  0.1754
44085SOL    HW138092   1.391   9.305   7.776 -0.5218 -0.0484  0.8919
44085SOL    HW238093   1.355   9.172   7.712  1.8858  0.6636 -2.1919
44086SOL     OW38094  10.367   4.507   7.945  0.4672  0.4733 -0.5824
44086SOL    HW138095  10.277   4.474   7.953  0.1355  0.9414 -2.1193
44086SOL    HW238096  10.419   4.450   8.002 -1.0315  1.2481  1.7177
44087SOL     OW38097   6.825   9.851  11.439  0.3424 -0.8929  0.6166
44087SOL    HW138098   6.739   9.841  11.480 -2.2308  3.8691 -2.5722
44087SOL    HW238099   6.813   9.819  11.350  0.0517  3.6233 -1.2838
44088SOL     OW38100   4.493  10.556   7.355 -0.2043  0.3137 -0.3306
44088SOL    HW138101   4.525  10.644   7.334  0.1135  0.4419  0.6594
44088SOL    HW238102   4.459  10.564   7.444 -1.5750 -0.2046 -0.7833
44089SOL     OW38103  11.506   7.957  10.523  0.4771  0.0130 -0.6230
44089SOL    HW138104  11.487   7.983  10.613  2.1753 -0.4676 -0.0867
44089SOL    HW238105  11.581   8.011  10.498  0.9346 -0.8775 -1.2229
44090SOL     OW38106   8.401   4.335   9.135  0.0087  0.0174 -0.4026
44090SOL    HW138107   8.485   4.365   9.170  0.3298 -1.3145  0.0154
44090SOL    HW238108   8.339   4.404   9.160  0.7343  0.3899  0.4250
44091SOL     OW38109  10.484   8.706   5.099  0.0723  0.4110  0.4497
44091SOL    HW138110  10.462   8.753   5.019  0.7347 -1.2589 -0.7760
44091SOL    HW238111  10.400   8.673   5.131  0.1241 -2.7353 -2.1281
44092SOL     OW38112   2.337  10.271   4.186  0.2452  0.6810 -0.3236
44092SOL    HW138113   2.243  10.285   4.181 -0.0579 -0.8081  0.6600
44092SOL    HW238114   2.359  10.284   4.279  0.2443 -2.9562  0.3242
44093SOL     OW38115   4.309   1.727   0.520 -0.2879 -0.1265 -0.1122
44093SOL    HW138116   4.219   1.756   0.537 -0.1127  0.3820 -0.0413
44093SOL    HW238117   4.304   1.632   0.527 -0.2333 -0.0188  2.8985
44094SOL     OW38118  10.795   7.798   3.173 -0.3453 -0.3175 -0.4848
44094SOL    HW138119  10.845   7.879   3.185 -0.4651 -0.3453  0.2561
44094SOL    HW238120  10.726   7.803   3.240 -1.2568 -0.3414 -1.3876
44095SOL     OW38121   0.434   0.038   0.457 -0.3889  0.1588 -0.8448
44095SOL    HW138122   0.482   0.050   0.375  2.0176  0.7052  0.5606
44095SOL    HW238123   0.459   0.113   0.511 -0.4279 -1.1219  1.0659
44096SOL     OW38124   6.460   1.924   4.555 -0.7647 -0.0555  0.3140
44096SOL    HW138125   6.432   1.837   4.584  1.8801 -0.8965  0.6355
44096SOL    HW238126   6.498   1.908   4.469  1.0695  0.4685  0.9878
44097SOL     OW38127   9.132   2.167   6.526  0.0877 -0.1420 -0.0391
44097SOL    HW138128   9.213   2.149   6.575 -0.4599 -1.6318  0.3568
44097SOL    HW238129   9.064   2.170   6.592 -0.4640 -0.8227 -0.5653
44098SOL     OW38130   4.757  10.312  10.491  0.3276  0.3238 -0.7116
44098SOL    HW138131   4.776  10.405  10.503  3.0835 -0.1507 -0.8332
44098SOL    HW238132   4.712  10.286  10.571  1.5417  1.3132  0.3380
44099SOL     OW38133  11.603   1.040  12.077 -0.2135  0.0190 -0.1930
44099SOL    HW138134  11.602   1.047  12.172  0.6471 -0.2176 -0.1549
44099SOL    HW238135  11.517   1.072  12.049 -0.5022  0.0047  0.6647
44100SOL     OW38136   0.586   2.763   4.492 -0.1780 -1.0150 -0.7116
44100SOL    HW138137   0.661   2.801   4.446 -0.4012  1.2648  0.6357
44100SOL    HW238138   0.624   2.704   4.557  0.2751 -1.9034 -1.7524
44101SOL     OW38139   8.278   2.889   6.770  0.3464 -0.0434 -0.1683
44101SOL    HW138140   8.253   2.808   6.725  1.9103 -0.9739  0.5437
44101SOL    HW238141   8.207   2.905   6.832  0.0685 -0.9508 -0.2327
44102SOL     OW38142  10.643   2.062   6.630 -0.2527 -0.0502  0.0512
44102SOL    HW138143  10.672   2.104   6.549 -1.2800  1.1384  0.2706
44102SOL    HW238144  10.720   2.063   6.687  0.7516 -1.7184 -1.1855
44103SOL     OW38145   7.209   0.104   6.954  0.2184  0.3251 -0.5258
44103SOL    HW138146   7.176   0.173   6.895  0.9414 -0.0310 -1.3780
44103SOL    HW238147   7.158   0.115   7.034 -2.2128 -0.4176 -1.8781
44104SOL     OW38148   0.694   1.203   9.277  0.4123 -0.2258 -0.0172
44104SOL    HW138149   0.622   1.264   9.290  0.0471 -0.7168  0.2790
44104SOL    HW238150   0.652   1.119   9.259  0.9106 -0.4279 -0.2760
44105SOL     OW38151   1.567   5.191   6.418 -0.0587 -0.2185  0.2724
44105SOL    HW138152   1.587   5.283   6.401  1.3857 -0.8116 -1.5597
44105SOL    HW238153   1.490   5.173   6.364  0.5085 -0.4051 -0.5011
44106SOL     OW38154   3.115  11.314   5.871  0.0026  0.1535 -0.4210
44106SOL    HW138155   3.167  11.251   5.821  1.8370  1.4315 -0.2302
44106SOL    HW238156   3.156  11.315   5.958 -0.8685  0.6099 -0.0085
44107SOL     OW38157   8.107   4.020   5.223 -0.2338 -0.1794 -0.2021
44107SOL    HW138158   8.084   3.947   5.281  0.9726  0.3711  1.0129
44107SOL    HW238159   8.189   4.054   5.258 -0.7252  1.7260 -0.7905
44108SOL     OW38160   6.792   3.970   0.373 -0.5305  0.1279 -0.2312
44108SOL    HW138161   6.862   3.924   0.328 -1.3594  0.3693 -1.8245
44108SOL    HW238162   6.827   4.058   0.388 -0.7255  0.4674 -1.6614
44109SOL     OW38163  11.184   1.559   8.095 -0.2658 -0.0722 -0.1114
44109SOL    HW138164  11.279   1.550   8.087 -0.2447  0.8899 -1.2597
44109SOL    HW238165  11.159   1.611   8.018 -1.9528 -1.7309 -0.7393
44110SOL     OW38166   0.585   4.405   7.930 -0.1127 -0.5581 -0.4158
44110SOL    HW138167   0.590   4.493   7.968  0.1332 -1.6259  2.2359
44110SOL    HW238168   0.516   4.362   7.979  2.4480 -3.0800  1.2798
44111SOL     OW38169   9.248   4.957  11.702 -0.0253  0.5000 -0.0949
44111SOL    HW138170   9.340   4.934  11.717  0.3370  1.8113 -0.1700
44111SOL    HW238171   9.200   4.877  11.721  1.0364  0.1048  1.1037
44112SOL     OW38172   4.774   1.278   2.494  0.4018 -0.0117 -0.5993
44112SOL    HW138173   4.810   1.194   2.466  0.0600 -0.3527 -0.0374
44112SOL    HW238174   4.834   1.343   2.457  0.4885 -0.4792 -1.3135
44113SOL     OW38175   3.064  11.518   1.502 -0.2389  0.2359  0.0933
44113SOL    HW138176   3.014  11.497   1.580 -1.1293  1.4185 -0.1316
44113SOL    HW238177   3.129  11.448   1.495 -0.8896 -0.5039  1.2342
44114SOL     OW38178  10.753  12.250   9.488 -0.2751 -0.9148 -0.7972
44114SOL    HW138179  10.661  12.234   9.504 -0.0495 -0.2988  1.4810
44114SOL    HW238180  10.758  12.275   9.395 -2.4372 -0.4469 -0.8234
44115SOL     OW38181   1.513  11.387   7.763 -0.0076  0.2494  0.5265
44115SOL    HW138182   1.527  11.318   7.698 -2.0005 -0.5950  0.9224
44115SOL    HW238183   1.422  11.413   7.751  0.7562  3.0909  0.1811
44116SOL     OW38184  10.428   6.792   0.195 -0.1944  0.6711  0.3377
44116SOL    HW138185  10.505   6.849   0.189  1.5384 -1.5183  0.3286
44116SOL    HW238186  10.432   6.739   0.115 -0.4603 -0.9389  1.3447
44117SOL     OW38187   7.019   1.301  10.825  0.2874 -0.0600 -0.2775
44117SOL    HW138188   7.038   1.364  10.894  3.1880  0.7567 -1.6559
44117SOL    HW238189   7.072   1.224  10.847 -1.4906 -1.1931  0.2036
44118SOL     OW38190   3.021   6.353   7.784  0.1073  0.4182  0.7491
44118SOL    HW138191   2.978   6.400   7.712 -0.1558 -1.1171 -0.1256
44118SOL    HW238192   2.950   6.332   7.845 -0.1328 -0.6839  0.1029
44119SOL     OW38193   8.918   7.452   8.916  0.3085  0.0608 -0.1431
44119SOL    HW138194   8.875   7.537   8.913  0.0894 -0.0636 -0.5778
44119SOL    HW238195   9.010   7.471   8.898  0.6247  0.4399  1.6815
44120SOL     OW38196   5.644   1.603  10.781 -0.2657  0.1169 -0.2502
44120SOL    HW138197   5.700   1.580  10.856 -0.5289 -0.9737 -0.3680
44120SOL    HW238198   5.674   1.690  10.755  0.9246 -0.1499  0.1217
44121SOL     OW38199   1.138   3.184   9.874  0.0090 -0.1913  0.3503
44121SOL    HW138200   1.209   3.244   9.897  0.2046  0.4157 -1.7226
44121SOL    HW238201   1.162   3.150   9.788 -1.8805 -0.5173 -0.0829
44122SOL     OW38202   0.897  11.808  10.682  0.2536  0.7320  0.0556
44122SOL    HW138203   0.972  11.748  10.677 -0.2223  0.1142  0.2624
44122SOL    HW238204   0.904  11.848  10.768 -0.0461  0.1423  0.3636
44123SOL     OW38205   7.847   4.396   6.901  0.3387 -0.1043 -0.2831
44123SOL    HW138206   7.894   4.441   6.971 -0.1355  0.3067 -0.2165
44123SOL    HW238207   7.866   4.449   6.823  0.1141 -0.0223 -0.2834
44124SOL     OW38208   7.817   6.569   0.815  0.0491  0.9881  0.1398
44124SOL    HW138209   7.731   6.595   0.782  0.6880  1.0449 -1.6053
44124SOL    HW238210   7.814   6.473   0.817 -0.4154  1.0146  1.1629
44125SOL     OW38211   0.852   6.206   5.262  0.0091 -0.0635  0.3591
44125SOL    HW138212   0.812   6.197   5.349 -0.8522  1.9494  0.2341
44125SOL    HW238213   0.921   6.270   5.274 -1.2758  1.6237 -0.7193
44126SOL     OW38214   0.025   3.814   4.982 -0.0690  0.3587 -0.7995
44126SOL    HW138215  -0.006   3.859   5.062  0.2059 -0.2198 -0.3621
44126SOL    HW238216  -0.055   3.795   4.933 -0.1499  2.1582 -1.4672
44127SOL     OW38217   7.154  11.623   7.213 -0.1450 -0.0335  0.3563
44127SOL    HW138218   7.077  11.582   7.252 -0.3000 -1.3271 -1.2108
44127SOL    HW238219   7.119  11.677   7.143  0.2969  0.3338  0.4153
44128SOL     OW38220   0.210   1.435   4.592 -0.7226 -0.2135 -0.2112
44128SOL    HW138221   0.177   1.516   4.632 -1.1410 -0.3285 -0.3218
44128SOL    HW238222   0.166   1.431   4.507 -1.0474 -0.7943 -0.0189
44129SOL     OW38223  11.237  11.295   2.952  0.2664  0.1777  0.1483
44129SOL    HW138224  11.286  11.325   2.875 -0.5982  0.8586 -0.1452
44129SOL    HW238225  11.274  11.209   2.970  1.2853  0.4879 -0.3217
44130SOL     OW38226   9.801   5.241   2.967  0.1272  0.0776 -0.2663
44130SOL    HW138227   9.832   5.306   3.029  0.9093 -1.3410  0.8955
44130SOL    HW238228   9.755   5.177   3.020 -0.7322 -0.2743 -1.3923
44131SOL     OW38229   8.128   8.947   9.872  0.1739  0.0792  0.1855
44131SOL    HW138230   8.066   8.993   9.816  0.6405  1.3827  0.7031
44131SOL    HW238231   8.211   8.993   9.860  0.5021 -0.2118  1.2194
44132SOL     OW38232  11.494   1.774   9.629  0.2297  0.1025 -0.1708
44132SOL    HW138233  11.450   1.730   9.701 -0.4777 -0.5382 -0.9756
44132SOL    HW238234  11.493   1.710   9.557  1.4491  0.4990 -0.5716
44133SOL     OW38235  10.121   4.305   1.259 -0.2076  0.4040  0.0593
44133SOL    HW138236  10.212   4.289   1.234 -0.4625 -0.5954 -0.2608
44133SOL    HW238237  10.085   4.218   1.277 -1.0186  0.8142  0.4875
44134SOL     OW38238  12.074   9.150   2.772 -0.2282 -0.1306  0.0344
44134SOL    HW138239  12.061   9.215   2.842  1.0814 -0.9496  1.0903
44134SOL    HW238240  12.018   9.077   2.797 -2.2599  0.8052 -1.5361
44135SOL     OW38241   4.387   8.735  10.423  0.2925  0.5293  0.0474
44135SOL    HW138242   4.291   8.732  10.428  0.2970 -1.0957 -0.1744
44135SOL    HW238243   4.410   8.660  10.369  1.7339  0.5237  0.6247
44136SOL     OW38244   6.553   7.106   6.027 -0.0808  0.2861 -0.0623
44136SOL    HW138245   6.551   7.110   5.931  0.7510 -0.0774 -0.1029
44136SOL    HW238246   6.481   7.162   6.055 -0.0603  0.7454 -0.8976
44137SOL     OW38247   4.156   2.869   8.139 -0.1797  0.6797 -0.0529
44137SOL    HW138248   4.207   2.834   8.212  0.5648  0.5158 -0.6318
44137SOL    HW238249   4.157   2.964   8.152 -0.4424  0.6236  0.3962
44138SOL     OW38250   4.380  11.053   9.687  0.0409  0.7471 -0.2299
44138SOL    HW138251   4.353  11.135   9.728  1.1153  0.5096  1.0268
44138SOL    HW238252   4.394  10.994   9.761 -0.2914 -0.4435 -1.0954
44139SOL     OW38253  10.746   9.967   6.966  0.0621 -0.2126 -0.3187
44139SOL    HW138254  10.832   9.986   7.004  0.0796  0.3903 -0.6478
44139SOL    HW238255  10.764   9.938   6.877 -0.0747 -0.1379 -0.3710
44140SOL     OW38256  10.181   0.218   7.927 -0.0984  0.5830  0.1220
44140SOL    HW138257  10.201   0.148   7.990 -1.2888  0.8615  0.8429
44140SOL    HW238258  10.087   0.209   7.909  0.7382 -1.8789 -4.5999
44141SOL     OW38259   2.075   9.548  10.358  0.1736 -0.0628 -0.3749
44141SOL    HW138260   2.121   9.630  10.376  0.6166 -0.1933 -0.8909
44141SOL    HW238261   2.005   9.573  10.298  1.1516 -0.2731 -1.6372
44142SOL     OW38262   6.886  11.848   5.424  0.1743  0.1747  0.4198
44142SOL    HW138263   6.972  11.859   5.466  0.5685  0.2657 -0.3950
44142SOL    HW238264   6.833  11.918   5.461  0.7492  0.7379  0.1992
44143SOL     OW38265  10.695   3.390   2.636  0.2116  0.5291  0.3628
44143SOL    HW138266  10.766   3.402   2.699  0.0441  0.7703  0.5063
44143SOL    HW238267  10.710   3.303   2.599 -0.4452 -0.1967  1.7143
44144SOL     OW38268   1.026  12.318   5.488  0.3333  0.0658 -0.2410
44144SOL    HW138269   0.941  12.309   5.530 -0.5084  1.3495 -1.5810
44144SOL    HW238270   1.031  12.411   5.464  2.2269  0.0802  0.0284
44145SOL     OW38271   0.019  10.243  12.243  0.0382 -1.0453 -0.1330
44145SOL    HW138272  -0.027  10.233  12.159 -0.8117 -1.1593  0.3270
44145SOL    HW238273   0.112  10.239  12.221 -0.1807 -1.5669 -1.0081
44146SOL     OW38274   6.873   1.683  11.925 -0.3192 -0.2240 -0.6076
44146SOL    HW138275   6.872   1.688  12.020 -0.8534 -1.7937 -0.5067
44146SOL    HW238276   6.930   1.756  11.898 -0.6904  0.6472  0.8538
44147SOL     OW38277   3.972   4.429   2.134 -0.5929 -0.1226 -0.4740
44147SOL    HW138278   4.013   4.369   2.197  0.4335  0.6866 -0.3424
44147SOL    HW238279   4.038   4.496   2.119 -2.2122  1.7968  0.4793
44148SOL     OW38280   1.901   3.898   0.675 -0.1457 -0.4572 -0.1723
44148SOL    HW138281   1.878   3.986   0.645  0.8574  0.6550  2.0536
44148SOL    HW238282   1.997   3.897   0.675 -0.1019 -2.1759 -1.7012
44149SOL     OW38283   4.498  11.229   8.309 -0.0446  0.2952  0.1746
44149SOL    HW138284   4.462  11.171   8.242  1.1128  0.0443 -0.2529
44149SOL    HW238285   4.421  11.273   8.346 -0.7521  0.0421 -0.9381
44150SOL     OW38286   0.714  11.219   9.484  0.3135  0.2070 -0.5206
44150SOL    HW138287   0.697  11.309   9.456  1.0507  0.4733 -0.1200
44150SOL    HW238288   0.667  11.165   9.419 -1.2704  0.8829  0.0048
44151SOL     OW38289   5.076  10.305   4.807  0.3970 -0.0535 -0.1282
44151SOL    HW138290   5.095  10.373   4.873 -1.6184  0.6168 -0.1466
44151SOL    HW238291   4.993  10.333   4.769  0.8711 -1.1432 -2.0523
44152SOL     OW38292   9.179   9.362   7.656  0.4860  0.0510  0.0845
44152SOL    HW138293   9.089   9.332   7.669 -0.4454  3.0040  1.1317
44152SOL    HW238294   9.233   9.292   7.692 -1.4474 -0.9843  1.1256
44153SOL     OW38295   5.195  10.813   0.797 -0.2436  0.0424 -0.3148
44153SOL    HW138296   5.283  10.830   0.765  0.0953 -0.3490  0.3870
44153SOL    HW238297   5.163  10.898   0.826 -0.2261  0.2413 -0.8578
44154SOL     OW38298   7.967   3.457   9.432  0.9153 -0.1533 -0.6941
44154SOL    HW138299   7.964   3.534   9.489  1.4109 -0.8732  0.3315
44154SOL    HW238300   7.915   3.482   9.356  0.9612  1.1480 -0.3256
44155SOL     OW38301   3.917   3.312   9.686  0.1427  0.0841  0.2482
44155SOL    HW138302   3.890   3.263   9.607  1.0276  0.2941 -0.1973
44155SOL    HW238303   3.916   3.403   9.659 -1.1235  0.3035  0.9690
44156SOL     OW38304  11.225   2.822   6.451 -0.3368 -1.1247  0.4619
44156SOL    HW138305  11.276   2.865   6.383  0.0494 -0.7948  0.9586
44156SOL    HW238306  11.167   2.763   6.403  0.2797 -1.2668 -0.1283
44157SOL     OW38307   6.154   4.518   5.016 -0.2277 -0.5306  0.1633
44157SOL    HW138308   6.146   4.578   5.090 -0.1724 -0.7117  0.3166
44157SOL    HW238309   6.075   4.464   5.020 -0.4207 -0.2733 -0.1484
44158SOL     OW38310   6.951   8.714   0.968  0.4192 -0.1260  0.4658
44158SOL    HW138311   6.947   8.679   0.880 -0.8426  0.4430  0.2626
44158SOL    HW238312   7.001   8.795   0.960  1.2234 -0.6151  0.4816
44159SOL     OW38313   7.362   1.676   6.949  0.6901 -0.1207 -0.1093
44159SOL    HW138314   7.274   1.706   6.974  0.0511 -1.7544 -0.2586
44159SOL    HW238315   7.404   1.754   6.912 -0.7024  0.7017 -0.0443
44160SOL     OW38316  10.911   9.678   1.812  0.3042 -0.3741 -0.2225
44160SOL    HW138317  10.854   9.746   1.776 -1.0642 -2.2822 -1.8970
44160SOL    HW238318  10.872   9.596   1.781  1.0251 -2.0415  2.8937
44161SOL     OW38319   1.221   9.574   7.377 -0.2589 -0.3266  0.0619
44161SOL    HW138320   1.306   9.542   7.344  0.3311  0.9152  0.2983
44161SOL    HW238321   1.196   9.512   7.444  0.7911 -0.3805  0.4254
44162SOL     OW38322   9.498  11.284   2.390 -0.2530 -0.0485  0.0365
44162SOL    HW138323   9.536  11.198   2.406  0.5172  0.4338  0.9379
44162SOL    HW238324   9.459  11.308   2.474 -2.0571 -0.2621 -0.6948
44163SOL     OW38325   5.751   7.246   9.405  0.1565 -0.3873 -0.0089
44163SOL    HW138326   5.744   7.324   9.459 -0.3879  0.2943 -1.0139
44163SOL    HW238327   5.836   7.254   9.362  0.4969 -0.8189  0.5797
44164SOL     OW38328   3.949  10.343   6.364 -0.0666 -0.4267  0.2155
44164SOL    HW138329   3.865  10.320   6.404 -1.2589  1.2339 -1.1915
44164SOL    HW238330   3.976  10.422   6.410  0.0180 -0.1590 -0.2971
44165SOL     OW38331   6.972   6.648   4.845  0.1960  0.3082  0.1705
44165SOL    HW138332   6.955   6.730   4.800 -0.0323  0.5464  0.6772
44165SOL    HW238333   6.892   6.597   4.835  0.2767  0.2157 -0.0016
44166SOL     OW38334   9.419   0.443   7.828  0.3607 -0.0578  0.1351
44166SOL    HW138335   9.465   0.519   7.863  0.9164  0.1038 -0.9183
44166SOL    HW238336   9.377   0.474   7.748  0.3043 -0.7680 -0.1219
44167SOL     OW38337  10.223  10.814   7.168 -0.9165  0.0578 -0.1436
44167SOL    HW138338  10.314  10.797   7.193 -0.4731  2.5961  0.2685
44167SOL    HW238339  10.172  10.789   7.245 -0.1650  1.8044  1.0019
44168SOL     OW38340  10.646   5.173   6.361 -0.1803 -0.3033  0.1514
44168SOL    HW138341  10.601   5.098   6.401  1.7336 -0.8666  1.4026
44168SOL    HW238342  10.674   5.140   6.276  0.3469 -0.9065  0.5497
44169SOL     OW38343   6.342   4.950  10.479  0.5378 -0.1074 -0.2551
44169SOL    HW138344   6.285   5.023  10.500  0.4298 -0.1647 -0.3524
44169SOL    HW238345   6.406   4.986  10.417 -0.2159 -0.3786 -1.2228
44170SOL     OW38346  10.919   6.087   2.164  0.3767 -0.0491  0.0493
44170SOL    HW138347  10.865   6.011   2.186  1.4559 -1.6508 -2.4100
44170SOL    HW238348  10.902   6.150   2.234 -3.3346 -1.1178  0.2944
44171SOL     OW38349   8.680   8.796   8.115  0.5813  0.2999  0.1481
44171SOL    HW138350   8.603   8.848   8.091 -0.5979 -1.0551  0.8424
44171SOL    HW238351   8.676   8.790   8.211  1.1784 -0.3226  0.1444
44172SOL     OW38352   4.189   5.530   5.810  0.3031  0.2678 -0.3376
44172SOL    HW138353   4.264   5.578   5.775 -0.0539  1.3888  0.3916
44172SOL    HW238354   4.113   5.577   5.776 -0.0807 -0.6679 -0.8038
44173SOL     OW38355   6.793   9.190  11.715 -0.3149 -0.0270 -0.1075
44173SOL    HW138356   6.756   9.277  11.728  1.5143  0.7625  0.1015
44173SOL    HW238357   6.743   9.153  11.642 -1.7862  0.7802  0.4593
44174SOL     OW38358   3.217  11.577  11.982  0.3189  0.2080 -0.6233
44174SOL    HW138359   3.235  11.620  11.898 -0.3776 -1.2502 -1.5565
44174SOL    HW238360   3.129  11.606  12.005  0.2736  0.1389 -0.7080
44175SOL     OW38361   9.426   1.321   9.735 -0.5689  0.2350  0.4566
44175SOL    HW138362   9.484   1.362   9.800 -0.6342 -0.2467  0.8210
44175SOL    HW238363   9.360   1.388   9.717 -0.0674  0.6846  0.2493
44176SOL     OW38364   4.044   8.260   2.779 -0.4520 -0.4767  0.1644
44176SOL    HW138365   4.133   8.280   2.809 -0.0069 -1.2231 -0.6311
44176SOL    HW238366   4.054   8.238   2.687 -1.3947 -1.0694  0.1944
44177SOL     OW38367   1.696   4.946  12.065  0.0250 -0.4852  0.4573
44177SOL    HW138368   1.602   4.931  12.056  0.4201 -1.8899 -2.2195
44177SOL    HW238369   1.712   5.027  12.015  0.0840  0.6035  2.1606
44178SOL     OW38370   6.996   4.240   0.163 -0.0224  0.4303  0.0302
44178SOL    HW138371   7.004   4.330   0.133 -0.1616  0.4946  0.1842
44178SOL    HW238372   7.082   4.202   0.148  0.8571  1.3193  2.3954
44179SOL     OW38373   6.867   0.938   1.364 -0.0602  0.0936 -0.2723
44179SOL    HW138374   6.827   0.935   1.451  0.4304 -1.8328 -0.0597
44179SOL    HW238375   6.806   0.891   1.308  0.6942 -0.6779 -0.4702
44180SOL     OW38376   7.343   3.120  10.513 -0.0590 -0.0991  0.4216
44180SOL    HW138377   7.350   3.095  10.421 -0.8785  0.4567  0.1965
44180SOL    HW238378   7.270   3.182  10.516  0.1535  0.1322  1.3971
44181SOL     OW38379  11.599   2.298   5.154  0.1449  0.3699  0.0201
44181SOL    HW138380  11.618   2.232   5.088  2.1555  1.6594 -0.7756
44181SOL    HW238381  11.678   2.302   5.208 -0.3874  1.3099  0.7714
44182SOL     OW38382   7.596   1.387   0.798  0.6384  0.5378  0.2352
44182SOL    HW138383   7.578   1.452   0.729 -1.8222  1.3655  1.5525
44182SOL    HW238384   7.656   1.431   0.858  0.7452  0.7473 -0.0227
44183SOL     OW38385   2.033   6.178   2.327  0.0332  0.4527 -0.5551
44183SOL    HW138386   1.994   6.190   2.413  0.1671 -0.9596 -0.2715
44183SOL    HW238387   2.127   6.170   2.343  0.4891  3.3528 -1.1889
44184SOL     OW38388   7.993  11.335   3.982 -1.0667 -0.3255 -0.0757
44184SOL    HW138389   7.947  11.270   4.035 -1.9015 -0.7599 -1.2824
44184SOL    HW238390   8.086  11.313   3.993 -0.9966  0.9969  2.9559
44185SOL     OW38391   5.834   4.080   5.694  0.5146  0.0032 -0.0553
44185SOL    HW138392   5.763   4.142   5.709  0.0959 -0.0114 -1.7223
44185SOL    HW238393   5.835   4.024   5.772 -0.3642  0.8865  0.6096
44186SOL     OW38394   4.583   9.552   3.468  0.0862  0.0700  0.2115
44186SOL    HW138395   4.566   9.531   3.376  0.4241 -2.4134  0.6302
44186SOL    HW238396   4.674   9.580   3.470  0.5973 -1.4375 -0.0710
44187SOL     OW38397  10.536   9.409   6.875  0.0210  0.4496  0.2417
44187SOL    HW138398  10.562   9.491   6.915  0.3867  0.3173  0.2788
44187SOL    HW238399  10.592   9.401   6.798  0.7715 -0.2934  0.8377
44188SOL     OW38400   8.471  10.898  12.053  0.3731 -0.8621 -0.7754
44188SOL    HW138401   8.478  10.812  12.094  0.5396 -0.6865 -0.4389
44188SOL    HW238402   8.396  10.939  12.095  2.2689  0.4963  1.5411
44189SOL     OW38403   6.114  10.846   2.776  0.1269 -0.1617  0.1872
44189SOL    HW138404   6.109  10.940   2.760  0.6330  0.3915  2.8022
44189SOL    HW238405   6.207  10.827   2.782  0.0533 -1.0010 -1.0168
44190SOL     OW38406   6.927   7.684  10.323 -0.3757  0.7187  0.0674
44190SOL    HW138407   6.890   7.603  10.287 -0.7579  1.6549 -1.7422
44190SOL    HW238408   6.987   7.654  10.391  0.6982 -1.2162 -1.6185
44191SOL     OW38409   5.684   3.565   8.991 -0.4192  0.8557 -0.2973
44191SOL    HW138410   5.694   3.495   8.926 -0.9501  0.5126 -0.0178
44191SOL    HW238411   5.589   3.577   8.998 -0.3207  1.9912 -0.7473
44192SOL     OW38412   8.245   9.108   2.514 -0.1030 -0.3975  0.2040
44192SOL    HW138413   8.288   9.173   2.569  1.6466 -0.9933 -0.3845
44192SOL    HW238414   8.314   9.046   2.492 -1.4573 -1.8157 -0.2101
44193SOL     OW38415   7.796   5.648   6.443 -0.0056  0.4166  0.1208
44193SOL    HW138416   7.804   5.569   6.497 -0.4276 -0.0381 -0.4756
44193SOL    HW238417   7.856   5.633   6.370  0.0609  0.7366  0.1086
44194SOL     OW38418   6.420   9.486   3.691 -0.1718 -0.4135  0.3431
44194SOL    HW138419   6.382   9.399   3.705 -1.1557 -0.0408  0.0872
44194SOL    HW238420   6.399   9.534   3.771 -1.2017  0.1204 -0.2294
44195SOL     OW38421  11.056   3.976   1.478  0.3899  0.2630  0.2056
44195SOL    HW138422  11.054   4.026   1.559  1.5937  2.7506 -1.1836
44195SOL    HW238423  10.992   4.020   1.421 -0.0502 -1.0979 -0.3943
44196SOL     OW38424   8.619   5.614   9.690  0.3777  0.5029  0.2923
44196SOL    HW138425   8.700   5.582   9.649 -0.9627 -1.6759 -0.8994
44196SOL    HW238426   8.581   5.673   9.625 -0.6591 -1.2558 -0.8191
44197SOL     OW38427   2.826   0.268   9.623  0.1266  0.1576  0.2564
44197SOL    HW138428   2.904   0.216   9.605  0.1074  0.2731 -0.1745
44197SOL    HW238429   2.782   0.276   9.538 -0.1410  0.4355  0.4171
44198SOL     OW38430   6.338   7.930   7.922  0.1484 -0.3753  0.1162
44198SOL    HW138431   6.377   7.985   7.990 -0.4905 -0.2342  0.3726
44198SOL    HW238432   6.406   7.924   7.854  0.3803  0.3902  0.2711
44199SOL     OW38433   5.764   4.905   1.448  0.4611  0.4007 -0.0148
44199SOL    HW138434   5.858   4.891   1.435  0.6744  2.0251 -0.4134
44199SOL    HW238435   5.757   4.948   1.533  0.0108 -0.3295  0.3249
44200SOL     OW38436   0.602  11.932   4.482 -0.6105 -0.1725 -0.0092
44200SOL    HW138437   0.590  11.915   4.575  2.5847  1.6830  0.9288
44200SOL    HW238438   0.534  11.995   4.460  0.4013  1.7729  2.0027
44201SOL     OW38439   4.950   1.790   0.837 -0.0778  0.1406  0.3994
44201SOL    HW138440   4.875   1.849   0.833  0.2985  0.6695  0.9626
44201SOL    HW238441   4.988   1.793   0.749  0.7493  1.8398  0.7607
44202SOL     OW38442   3.273   6.407   6.752 -0.0829 -0.2369  0.1675
44202SOL    HW138443   3.231   6.361   6.679  0.0610 -0.9306  0.5139
44202SOL    HW238444   3.344   6.456   6.712  0.5757 -1.3402 -0.0438
44203SOL     OW38445   8.282   1.300   2.106  0.3293  0.7062  0.5265
44203SOL    HW138446   8.349   1.367   2.121  1.9256 -1.1151  2.0473
44203SOL    HW238447   8.250   1.278   2.193  1.1876 -1.7780  0.2867
44204SOL     OW38448   4.456   2.505   7.768 -0.1773 -0.0683 -0.0243
44204SOL    HW138449   4.375   2.453   7.772 -0.5127  0.5236  2.0269
44204SOL    HW238450   4.428   2.591   7.736 -0.5182  0.3127  1.2108
44205SOL     OW38451   3.643   1.586   5.857 -0.2279 -0.5362  0.1586
44205SOL    HW138452   3.697   1.554   5.785 -0.5708 -1.2663  0.2217
44205SOL    HW238453   3.602   1.665   5.822  1.4726  0.4939  0.3799
44206SOL     OW38454   0.197  10.045  10.091 -0.1096 -0.4889 -0.1995
44206SOL    HW138455   0.114  10.063  10.046  0.3778 -0.1435 -0.9767
44206SOL    HW238456   0.176   9.973  10.151 -1.2143  0.2640  0.3467
44207SOL     OW38457   9.109   6.960   9.211 -0.0631  0.0446  0.6470
44207SOL    HW138458   9.043   6.907   9.166  1.3822 -0.6292 -0.8016
44207SOL    HW238459   9.146   7.016   9.143  0.4872  0.7829  1.5322
44208SOL     OW38460   1.356   3.191  11.425 -0.5567  0.3307  0.1584
44208SOL    HW138461   1.449   3.184  11.445 -0.2947 -4.4965 -1.3224
44208SOL    HW238462   1.316   3.229  11.503  2.4310  1.1518  1.4037
44209SOL     OW38463   3.127   2.325   6.358 -0.4038 -0.0473 -0.2063
44209SOL    HW138464   3.165   2.411   6.340 -0.7378 -0.2007 -1.8735
44209SOL    HW238465   3.194   2.263   6.329 -0.8349 -0.3272 -0.6234
44210SOL     OW38466   7.323  10.211   5.253 -0.5950  0.5352 -0.1425
44210SOL    HW138467   7.350  10.303   5.265 -1.0067  1.0639 -2.6610
44210SOL    HW238468   7.296  10.206   5.161  0.3991 -2.3751 -0.3771
44211SOL     OW38469  11.592   8.673   7.978 -0.5071 -0.3193 -0.3091
44211SOL    HW138470  11.515   8.672   7.922 -0.9316  0.5874  0.2524
44211SOL    HW238471  11.623   8.582   7.976 -0.7348 -0.3991 -1.6848
44212SOL     OW38472   4.106  11.033   7.251  0.4110 -0.0562  0.1068
44212SOL    HW138473   4.048  10.963   7.222  1.8911 -1.5309  0.5473
44212SOL    HW238474   4.108  11.095   7.178 -0.6621 -0.6137 -0.4217
44213SOL     OW38475   8.378  10.686  10.462 -0.2183  0.2344  0.4999
44213SOL    HW138476   8.451  10.746  10.452  0.0986 -0.0295  1.1856
44213SOL    HW238477   8.363  10.652  10.373  1.6949 -1.0937  0.6300
44214SOL     OW38478   1.676   5.837   2.997  0.6675 -0.3234  0.1300
44214SOL    HW138479   1.630   5.792   2.926 -0.8083  0.6399  0.4249
44214SOL    HW238480   1.768   5.819   2.981  0.3281 -0.7252 -1.6135
44215SOL     OW38481  11.590   0.834   1.598  0.1517  0.3186  0.6411
44215SOL    HW138482  11.647   0.793   1.533 -1.6123 -0.7288 -0.3332
44215SOL    HW238483  11.579   0.924   1.566 -0.6581 -0.1669 -0.5189
44216SOL     OW38484   2.990   2.779  12.249 -0.1508  0.3897  0.0396
44216SOL    HW138485   2.941   2.713  12.297  2.0856 -0.2794  1.5500
44216SOL    HW238486   3.052   2.729  12.195  1.6398  1.1591  1.2668
44217SOL     OW38487  11.392   3.490   4.765 -0.1154 -0.1501  0.0190
44217SOL    HW138488  11.428   3.569   4.805  0.4207 -0.9692  1.2231
44217SOL    HW238489  11.338   3.522   4.693  0.5262  1.2768  0.1377
44218SOL     OW38490   3.272   0.991  12.307 -0.8024 -0.2640 -0.4356
44218SOL    HW138491   3.352   0.972  12.356  0.1388 -0.2581 -1.8978
44218SOL    HW238492   3.220   0.911  12.315 -0.7397 -0.2051  0.6760
44219SOL     OW38493   5.063   7.779   6.946 -0.0254 -0.1300 -0.1273
44219SOL    HW138494   5.150   7.779   6.986  1.0036  0.4376 -2.2362
44219SOL    HW238495   5.033   7.869   6.954  0.1044 -0.0557 -0.4782
44220SOL     OW38496   9.125  10.732   6.400  0.4494 -0.2126 -0.5416
44220SOL    HW138497   9.036  10.710   6.373  0.4848 -0.6658 -0.3044
44220SOL    HW238498   9.181  10.676   6.347  0.5075 -1.3214  0.6215
44221SOL     OW38499   0.794   8.031  10.154  0.3793  0.1734 -0.0675
44221SOL    HW138500   0.713   8.042  10.204  0.7216 -1.2221  0.8540
44221SOL    HW238501   0.768   7.985  10.074  0.4089 -1.5238  0.8520
44222SOL     OW38502   7.747   1.252  11.071  0.0831 -0.3383  0.0028
44222SOL    HW138503   7.700   1.243  10.988  0.0227  1.0441 -0.1350
44222SOL    HW238504   7.808   1.177  11.072  1.0190  0.3173 -1.9140
44223SOL     OW38505   3.184   7.649   1.139  1.0101 -0.1323  0.0825
44223SOL    HW138506   3.182   7.681   1.049 -3.3704  1.2388  0.4378
44223SOL    HW238507   3.188   7.554   1.131 -1.4273 -0.1765 -1.7785
44224SOL     OW38508   3.324   9.297  11.854  0.4052 -0.2996  0.5070
44224SOL    HW138509   3.312   9.202  11.860 -1.3204 -0.5418 -3.5665
44224SOL    HW238510   3.239   9.333  11.880  0.3532 -0.0535  0.0116
44225SOL     OW38511  10.074   4.661   8.056 -0.1229  0.1304  0.5278
44225SOL    HW138512  10.012   4.665   8.129  0.7262  0.6510  1.2414
44225SOL    HW238513  10.061   4.575   8.018 -0.3060 -0.3046  1.5399
44226SOL     OW38514   0.648  10.566   4.515  0.0256  0.2512  0.5065
44226SOL    HW138515   0.579  10.631   4.499 -1.6208 -1.1325  1.5824
44226SOL    HW238516   0.729  10.617   4.517 -0.9571  1.9618 -0.7100
44227SOL     OW38517   4.992   5.669   5.640  0.0907  0.2230 -0.0959
44227SOL    HW138518   5.055   5.606   5.674  0.4241  0.5079 -0.1756
44227SOL    HW238519   5.005   5.669   5.545  0.9691  1.3092 -0.0013
44228SOL     OW38520  11.770  10.197  11.862 -0.7018 -0.4119 -0.7572
44228SOL    HW138521  11.694  10.139  11.854 -0.4575 -0.8054 -0.3057
44228SOL    HW238522  11.829  10.169  11.793 -0.0204 -1.5974  0.2530
44229SOL     OW38523   8.037   8.467   7.772  0.1182 -0.5054 -0.0327
44229SOL    HW138524   8.002   8.537   7.828 -1.4635 -1.6816  0.5307
44229SOL    HW238525   8.058   8.396   7.833 -0.2451 -1.2609 -0.7707
44230SOL     OW38526   6.638   4.586  11.770 -0.1033 -0.3313 -0.0322
44230SOL    HW138527   6.640   4.530  11.848  1.0160 -1.4801 -0.8509
44230SOL    HW238528   6.731   4.597  11.747 -0.4394 -0.2608 -1.3839
44231SOL     OW38529   7.687   3.437   2.471  0.5001 -0.4947  0.7911
44231SOL    HW138530   7.660   3.351   2.440  0.1186 -0.5794  1.3391
44231SOL    HW238531   7.628   3.455   2.544  1.9525 -0.6772  2.0460
44232SOL     OW38532  11.975   3.258   2.660  0.3493  0.5393  1.1992
44232SOL    HW138533  11.979   3.271   2.566  2.7928  1.3654  1.3304
44232SOL    HW238534  11.936   3.339   2.694  0.3377  0.6443  0.9364
44233SOL     OW38535   9.757   8.056  10.575  0.0557  0.2059 -0.1326
44233SOL    HW138536   9.701   8.014  10.510  1.3297 -2.7516  0.4834
44233SOL    HW238537   9.700   8.119  10.619 -2.0301 -0.7819 -1.2571
44234SOL     OW38538   1.739   2.147   4.414 -0.1712  0.1058  0.0043
44234SOL    HW138539   1.793   2.105   4.348 -0.1877  1.9512 -1.2534
44234SOL    HW238540   1.793   2.148   4.493  1.1238  0.7220 -0.8578
44235SOL     OW38541   3.577   8.071   0.382  0.3960 -0.3397  0.1538
44235SOL    HW138542   3.669   8.072   0.405  0.6912 -2.1183 -0.6967
44235SOL    HW238543   3.566   8.144   0.322  0.4715  1.8962  2.7027
44236SOL     OW38544   0.354   6.780  10.842 -0.0597  0.7163 -0.1992
44236SOL    HW138545   0.313   6.694  10.843  1.1060  0.1170 -1.0169
44236SOL    HW238546   0.361   6.802  10.749  0.2027  1.4144 -0.0201
44237SOL     OW38547   4.817   3.712   8.683  0.5727  0.1631 -0.0846
44237SOL    HW138548   4.855   3.797   8.707  0.1025  0.2288  0.4439
44237SOL    HW238549   4.761   3.732   8.608  0.1873  0.3835  0.2606
44238SOL     OW38550   4.346   7.090   9.110 -0.4507 -0.4386 -0.5060
44238SOL    HW138551   4.412   7.151   9.143 -1.7025  1.6310 -1.6522
44238SOL    HW238552   4.383   7.004   9.129  2.6245  0.5985 -1.1261
44239SOL     OW38553   3.096   6.821   1.887  0.2692  0.0683  0.0291
44239SOL    HW138554   3.141   6.765   1.951 -0.3720  0.3341  0.7278
44239SOL    HW238555   3.120   6.910   1.912 -1.1195  0.2506  0.8040
44240SOL     OW38556   6.722   2.579   5.822 -0.6750 -0.0143 -0.1369
44240SOL    HW138557   6.793   2.640   5.842 -0.9716 -0.0361  1.0321
44240SOL    HW238558   6.760   2.492   5.833 -0.7660 -0.0289  0.0640
44241SOL     OW38559   1.095   6.397   1.962 -0.4529  0.1183  0.1063
44241SOL    HW138560   1.173   6.398   2.017 -0.1674  2.5057 -0.2290
44241SOL    HW238561   1.128   6.388   1.873 -0.7160 -0.6955  0.0791
44242SOL     OW38562   8.003   6.353   6.055  0.1502 -0.3258  0.2717
44242SOL    HW138563   8.083   6.301   6.064  1.6487  1.8082  0.0954
44242SOL    HW238564   8.032   6.433   6.010 -1.5797  1.5397  2.2744
44243SOL     OW38565   0.874   3.269   6.926  0.5842  0.0163  0.1288
44243SOL    HW138566   0.918   3.290   7.008  0.4377  1.3960 -0.1234
44243SOL    HW238567   0.896   3.177   6.910  1.8529  0.1574  0.9391
44244SOL     OW38568  10.314   7.099   1.923 -0.5347 -0.5474 -0.1854
44244SOL    HW138569  10.395   7.126   1.879  0.4038 -1.4294  0.9509
44244SOL    HW238570  10.245   7.114   1.857  0.7414 -1.3116 -1.7845
44245SOL     OW38571   6.938   6.621  11.361 -0.3694 -0.2459  0.1083
44245SOL    HW138572   6.952   6.709  11.393 -0.8124 -0.3802  0.6816
44245SOL    HW238573   6.872   6.630  11.293  0.2911 -0.0140 -0.5166
44246SOL     OW38574   0.049   8.192  10.151  0.0577  0.0553 -0.2464
44246SOL    HW138575  -0.015   8.224  10.214 -0.9154 -0.7397 -0.8122
44246SOL    HW238576   0.083   8.272  10.109  0.1059  0.5361  0.6766
44247SOL     OW38577   3.645   6.672   2.600 -0.2616 -0.0833  0.2802
44247SOL    HW138578   3.691   6.719   2.669  0.1911 -2.8020  1.9805
44247SOL    HW238579   3.709   6.663   2.530 -0.2324  1.3839  0.0802
44248SOL     OW38580   0.059  10.758   1.329  0.5476 -0.2724  0.7857
44248SOL    HW138581   0.115  10.801   1.393  1.1201 -0.6312  0.5290
44248SOL    HW238582  -0.011  10.717   1.381 -0.8251  2.1114  0.9587
44249SOL     OW38583   7.240   0.185   8.723  0.5805 -0.8092  0.5531
44249SOL    HW138584   7.305   0.186   8.794  1.1211 -0.2168  0.0628
44249SOL    HW238585   7.249   0.270   8.681 -3.5971  1.2410  3.2026
44250SOL     OW38586   0.620   2.677   3.708 -0.1478 -0.2550  0.0005
44250SOL    HW138587   0.612   2.597   3.760 -0.3028  0.0144  0.4016
44250SOL    HW238588   0.572   2.658   3.627 -0.5448 -0.4245  0.2706
44251SOL     OW38589   8.608   6.649   3.781  0.0130  0.4190 -0.0391
44251SOL    HW138590   8.635   6.685   3.865 -0.3284  1.2264 -0.2611
44251SOL    HW238591   8.684   6.662   3.724  0.2577 -0.1620  0.1413
44252SOL     OW38592  11.247   0.582  10.173 -0.4458  0.2711  0.2942
44252SOL    HW138593  11.207   0.538  10.248  1.0292  0.9117  1.5103
44252SOL    HW238594  11.268   0.512  10.112 -1.2007 -0.3165  0.6843
44253SOL     OW38595   7.494  10.626   4.857 -0.5208 -0.7081  0.2911
44253SOL    HW138596   7.460  10.714   4.876 -1.1436 -1.2076  1.6304
44253SOL    HW238597   7.575  10.620   4.907 -1.7882 -1.7708  2.3453
44254SOL     OW38598   6.300   3.186   3.122 -0.1486 -0.3462 -0.1810
44254SOL    HW138599   6.217   3.178   3.170  1.2447 -0.6279  2.3960
44254SOL    HW238600   6.291   3.129   3.046 -1.9424 -1.1494  0.5916
44255SOL     OW38601   2.391   5.646   5.242  0.2988 -0.7904  0.7398
44255SOL    HW138602   2.335   5.608   5.310 -1.1928  2.9185  1.8511
44255SOL    HW238603   2.453   5.701   5.290 -0.5131  1.5929 -0.7484
44256SOL     OW38604   3.575   0.276  11.200  0.2467 -0.1180 -0.0947
44256SOL    HW138605   3.537   0.246  11.282 -0.9834 -1.8698 -1.2395
44256SOL    HW238606   3.647   0.334  11.226 -2.0534  1.9699  2.1803
44257SOL     OW38607   6.557   1.675   9.361 -0.1926  0.0060  0.4287
44257SOL    HW138608   6.611   1.753   9.362 -1.1830  0.7290  1.8138
44257SOL    HW238609   6.608   1.610   9.313  1.2032  1.1155  0.3651
44258SOL     OW38610   8.567  11.100  10.955 -0.1496  0.0298 -0.6430
44258SOL    HW138611   8.607  11.061  10.877 -0.6204 -0.7786 -0.4924
44258SOL    HW238612   8.637  11.152  10.995  0.5898 -0.8836 -0.7128
44259SOL     OW38613   9.722   2.688   3.483 -0.4041  1.1194  0.8164
44259SOL    HW138614   9.651   2.658   3.425 -0.1406  0.5837  0.7720
44259SOL    HW238615   9.792   2.715   3.424  0.1544 -0.1271  0.8835
44260SOL     OW38616   0.544   5.353  10.665 -0.2111 -0.3655  0.0491
44260SOL    HW138617   0.620   5.376  10.720  0.3775 -0.6972 -0.6060
44260SOL    HW238618   0.519   5.434  10.623 -0.0181 -0.3161  0.0265
44261SOL     OW38619   6.860   2.062   8.781 -0.1822 -0.0369  0.0840
44261SOL    HW138620   6.943   2.033   8.818 -0.4101  0.3930  0.9566
44261SOL    HW238621   6.813   1.981   8.758  0.4999 -0.2779 -0.4950
44262SOL     OW38622   8.370   5.344   6.431  0.0939 -0.3204 -0.2018
44262SOL    HW138623   8.449   5.368   6.479 -1.4842  0.9388  1.9265
44262SOL    HW238624   8.384   5.380   6.343  1.2238  1.2872  0.5844
44263SOL     OW38625   8.716   7.564   4.345 -0.3447 -0.0588  0.6637
44263SOL    HW138626   8.753   7.476   4.357 -0.4378 -0.1795  0.0798
44263SOL    HW238627   8.690   7.567   4.253  1.0162  1.0974  0.2784
44264SOL     OW38628   4.861   7.023   7.081 -0.2777 -0.2252  0.4421
44264SOL    HW138629   4.913   6.968   7.022  0.1189  1.1362 -0.5015
44264SOL    HW238630   4.919   7.041   7.154 -0.4196 -1.0489  0.7788
44265SOL     OW38631   3.787   9.649   3.588  0.2115 -0.2530  0.3143
44265SOL    HW138632   3.881   9.664   3.577  0.2715 -0.3993  0.6395
44265SOL    HW238633   3.753   9.646   3.498  0.7582 -1.8187  0.1330
44266SOL     OW38634   6.815   5.081  12.108  0.2427 -0.0794  0.7683
44266SOL    HW138635   6.805   5.173  12.131  1.6253  0.3034 -0.0604
44266SOL    HW238636   6.725   5.049  12.098 -0.2897  1.7871 -1.2926
44267SOL     OW38637   0.157   2.544   0.275 -0.2525 -0.1648 -0.3371
44267SOL    HW138638   0.064   2.547   0.297 -0.4459 -2.0495 -0.7863
44267SOL    HW238639   0.160   2.530   0.180  0.4274 -1.9060 -0.1006
44268SOL     OW38640   2.302   8.785   4.745 -0.5223 -0.2656  0.2569
44268SOL    HW138641   2.330   8.829   4.665 -1.2683  2.4977  1.3607
44268SOL    HW238642   2.380   8.780   4.800 -0.3200 -0.8341 -0.0799
44269SOL     OW38643   3.549   2.526   4.680 -0.0994 -0.5410  0.5175
44269SOL    HW138644   3.488   2.491   4.745 -0.2891  0.4190  0.8835
44269SOL    HW238645   3.502   2.602   4.643  0.0488 -1.0081 -0.6589
44270SOL     OW38646   7.813   0.905  11.849  0.5517  0.3820  0.0315
44270SOL    HW138647   7.800   0.823  11.896 -0.6546  0.3545 -0.3157
44270SOL    HW238648   7.851   0.964  11.914  1.6709 -0.5145  0.2094
44271SOL     OW38649   8.191   8.000   8.693  0.5404 -0.3814 -0.3962
44271SOL    HW138650   8.143   8.061   8.637 -0.5622 -1.1009 -0.2715
44271SOL    HW238651   8.149   7.916   8.678  1.5380 -0.9700  0.0149
44272SOL     OW38652   5.617   9.478   4.008  0.2224  0.0766  0.2317
44272SOL    HW138653   5.620   9.382   4.015  0.0945  0.0884  0.4437
44272SOL    HW238654   5.709   9.505   4.008  0.2487 -0.0126  0.6189
44273SOL     OW38655   8.475   2.712  10.776  0.6907 -0.5471 -0.1782
44273SOL    HW138656   8.530   2.777  10.821  1.5155 -1.2797 -0.1015
44273SOL    HW238657   8.415   2.764  10.723 -0.0392  0.3447  1.4282
44274SOL     OW38658   1.235  10.277   3.218  0.5244  0.1581  0.3894
44274SOL    HW138659   1.233  10.187   3.185 -0.1955  0.2230  0.2196
44274SOL    HW238660   1.151  10.314   3.190 -0.4596  0.0052  2.8466
44275SOL     OW38661   8.779   7.251   7.757  0.2930 -0.7362 -0.2478
44275SOL    HW138662   8.838   7.200   7.701  2.6745  0.8615  0.6671
44275SOL    HW238663   8.711   7.282   7.698  0.8424 -1.9002 -1.5565
44276SOL     OW38664  10.299   5.397   6.277 -0.7650 -0.5438 -0.1647
44276SOL    HW138665  10.279   5.359   6.362  0.2979 -0.1632  0.2768
44276SOL    HW238666  10.370   5.343   6.243 -1.1123 -0.6313 -0.7698
44277SOL     OW38667   8.997   1.255  10.015 -0.4082  0.0677  1.0884
44277SOL    HW138668   8.946   1.310  10.074  0.5324 -0.2641  2.2545
44277SOL    HW238669   9.079   1.240  10.061  1.4793  1.9200 -1.3896
44278SOL     OW38670   2.676   7.681   0.567  0.4608  0.2931  0.0433
44278SOL    HW138671   2.626   7.607   0.600  1.9013  0.0207  1.7455
44278SOL    HW238672   2.615   7.728   0.511 -1.0455 -1.1463  0.3998
44279SOL     OW38673   9.126  11.448   5.455  0.1570  0.1998 -0.2372
44279SOL    HW138674   9.085  11.489   5.532  2.1122 -0.6612  1.3681
44279SOL    HW238675   9.131  11.519   5.391  0.1877  1.5255  1.1468
44280SOL     OW38676   6.944  12.084   5.143  0.3398 -0.0487  0.1449
44280SOL    HW138677   6.993  12.007   5.171  0.8787 -0.3169 -1.4431
44280SOL    HW238678   6.883  12.051   5.077 -0.9408  0.5404  0.9983
44281SOL     OW38679   6.115   8.701   0.777  0.4525  0.4765 -0.0151
44281SOL    HW138680   6.103   8.782   0.825 -2.2136  0.2073 -0.0877
44281SOL    HW238681   6.073   8.634   0.831  1.1883 -0.5874 -0.7082
44282SOL     OW38682  11.526   8.032  10.018 -0.2003 -0.5488  0.0431
44282SOL    HW138683  11.524   7.977  10.097 -1.3193 -2.5577 -1.2826
44282SOL    HW238684  11.502   8.120  10.049  0.5968 -1.0050  2.1032
44283SOL     OW38685  11.989   9.545   6.602  0.0785  0.6978 -0.0776
44283SOL    HW138686  12.029   9.568   6.686  0.0301 -2.3978  0.9298
44283SOL    HW238687  11.935   9.467   6.621 -2.4477  1.6914 -2.3868
44284SOL     OW38688  10.279   8.671   1.042 -0.1412  1.1889  0.4311
44284SOL    HW138689  10.263   8.738   1.109 -1.0576 -1.6606  3.3794
44284SOL    HW238690  10.373   8.657   1.044 -0.2282  0.6373  1.7643
44285SOL     OW38691   4.209   0.177   5.141 -0.0471  0.5047 -0.0490
44285SOL    HW138692   4.164   0.257   5.113  0.6019 -0.2109 -3.6118
44285SOL    HW238693   4.149   0.106   5.119  1.7019 -0.3043 -2.7918
44286SOL     OW38694  11.276   0.017   9.209 -0.0189  0.3297 -0.0597
44286SOL    HW138695  11.312  -0.040   9.277  0.9711  1.6233  0.5460
44286SOL    HW238696  11.206   0.065   9.253 -0.0628  0.4184 -0.2292
44287SOL     OW38697   2.511   7.639   8.092 -0.0595 -0.5140 -0.5578
44287SOL    HW138698   2.459   7.642   8.172 -0.1974 -1.4688 -0.6026
44287SOL    HW238699   2.547   7.551   8.090  0.2967 -0.3573 -1.3281
44288SOL     OW38700   7.291  11.311   5.385  0.2259  0.6511  0.2388
44288SOL    HW138701   7.215  11.322   5.328  0.3525  0.4003  0.0185
44288SOL    HW238702   7.339  11.237   5.347 -0.5299 -0.5820  1.5840
44289SOL     OW38703   5.455  10.503   1.742 -0.4030  0.6151 -0.4731
44289SOL    HW138704   5.534  10.555   1.756  0.7562 -0.6941 -1.8702
44289SOL    HW238705   5.475  10.417   1.779 -2.9057  1.4241  3.3594
44290SOL     OW38706   8.204   5.584   4.317  0.1929 -0.6936  0.7555
44290SOL    HW138707   8.172   5.526   4.248  0.3931 -0.6273  0.6024
44290SOL    HW238708   8.294   5.556   4.332  1.5836  1.7852 -1.8517
44291SOL     OW38709   4.566   3.149  11.222  0.1626  0.2126  0.1111
44291SOL    HW138710   4.500   3.216  11.205 -1.2023 -1.2230 -0.5989
44291SOL    HW238711   4.556   3.129  11.315 -0.4058  0.0290  0.0168
44292SOL     OW38712   0.471  10.850   1.713 -0.6115 -0.3916  0.1475
44292SOL    HW138713   0.471  10.945   1.705 -2.7849 -0.3301  0.3236
44292SOL    HW238714   0.464  10.834   1.807 -1.2511 -0.7005  0.0497
44293SOL     OW38715   4.686   8.157   6.467  0.1522 -0.2906  0.9425
44293SOL    HW138716   4.722   8.193   6.548 -2.5413 -0.2327  2.2283
44293SOL    HW238717   4.649   8.233   6.422  1.8783 -0.2758 -0.5583
44294SOL     OW38718   9.326   9.919   2.596  0.4642 -0.0517  0.0435
44294SOL    HW138719   9.377   9.970   2.659 -1.3279  0.3277  1.2971
44294SOL    HW238720   9.317   9.833   2.637 -1.0514  0.3154  0.5690
44295SOL     OW38721   0.521  11.810   8.786  0.2083  0.4651 -0.1851
44295SOL    HW138722   0.471  11.731   8.766  1.2759  0.6032 -4.3634
44295SOL    HW238723   0.458  11.867   8.831 -1.0235 -2.0590  1.5382
44296SOL     OW38724   9.257   6.019   2.729  0.2004 -0.2927  0.3541
44296SOL    HW138725   9.336   5.966   2.715  0.5688  0.1483  0.7318
44296SOL    HW238726   9.205   5.968   2.792  0.7843  0.0209  1.1082
44297SOL     OW38727  10.208  11.401  12.249  0.2979 -0.1019  0.3376
44297SOL    HW138728  10.182  11.477  12.303  1.2015  1.1474 -0.9126
44297SOL    HW238729  10.146  11.403  12.176 -0.5106 -1.3999  0.9571
44298SOL     OW38730   4.796   7.626   9.672  0.1823  0.1687  0.1065
44298SOL    HW138731   4.872   7.613   9.729  0.2557  1.5246  0.3467
44298SOL    HW238732   4.803   7.557   9.606  0.4209 -1.0731  1.3714
44299SOL     OW38733   5.590   8.802  11.902  0.0408  0.1314  0.4097
44299SOL    HW138734   5.529   8.760  11.964  0.4403  1.2355  1.5880
44299SOL    HW238735   5.543   8.802  11.819  0.3389 -3.4154  0.0850
44300SOL     OW38736  11.757   6.527   0.334 -0.0086  0.7235 -0.2802
44300SOL    HW138737  11.750   6.599   0.272 -1.5989 -0.6577 -1.7943
44300SOL    HW238738  11.781   6.451   0.281 -0.3614 -0.2734  0.9356
44301SOL     OW38739   3.816   9.649   4.748 -0.0736  0.1995  0.5344
44301SOL    HW138740   3.771   9.666   4.666 -0.0695  0.1798  0.5280
44301SOL    HW238741   3.900   9.610   4.722 -1.2159 -2.5282  0.6344
44302SOL     OW38742   4.391   8.947   3.001 -0.8978  0.3936  0.0992
44302SOL    HW138743   4.398   8.936   3.095  0.8025 -0.3395 -0.0697
44302SOL    HW238744   4.310   8.903   2.977  0.1037 -2.0389  0.8834
44303SOL     OW38745   8.195   6.595   0.282 -0.0075  0.0362  0.1124
44303SOL    HW138746   8.253   6.527   0.317  0.1672 -0.1130 -0.4466
44303SOL    HW238747   8.200   6.584   0.187 -0.6781  0.2564  0.0460
44304SOL     OW38748   6.553   4.324   6.018  0.1249  0.0710  0.3345
44304SOL    HW138749   6.517   4.328   6.106 -2.0371 -1.4471 -0.3833
44304SOL    HW238750   6.569   4.231   6.002 -0.7887  0.1486 -1.3129
44305SOL     OW38751   1.117   5.011   8.047  0.1141 -0.0704 -0.1175
44305SOL    HW138752   1.127   5.089   7.993  0.7492  0.0411  0.1521
44305SOL    HW238753   1.200   5.003   8.094 -0.2637 -0.4186  0.5102
44306SOL     OW38754   7.691   3.914   3.766  0.1494 -0.1388  0.1196
44306SOL    HW138755   7.689   3.875   3.853  0.5617  0.2422  0.3034
44306SOL    HW238756   7.782   3.905   3.737  0.8743  2.7100  1.1179
44307SOL     OW38757   2.929   3.176  10.785 -0.1273 -0.0429 -0.3344
44307SOL    HW138758   2.862   3.239  10.761  0.4950  0.7153 -0.1553
44307SOL    HW238759   2.967   3.211  10.866 -0.3956 -1.1425  0.2949
44308SOL     OW38760   2.696   8.388   7.174 -0.1248 -0.2759 -0.3460
44308SOL    HW138761   2.667   8.303   7.142 -1.1811  0.3367 -1.0794
44308SOL    HW238762   2.762   8.417   7.110 -0.5673 -0.0642 -0.7108
44309SOL     OW38763   5.501   2.187   2.426  0.4381  0.2125  0.1609
44309SOL    HW138764   5.467   2.267   2.386  2.4260  0.8593 -0.3602
44309SOL    HW238765   5.511   2.126   2.353 -0.3184 -0.2529  0.4345
44310SOL     OW38766   1.537  11.334  11.399 -0.0094  0.0559 -0.1086
44310SOL    HW138767   1.551  11.397  11.328 -0.5676 -0.2371 -0.4883
44310SOL    HW238768   1.540  11.387  11.479 -1.4380  0.7324 -0.4823
44311SOL     OW38769   6.881   4.103   6.513 -0.6783 -0.4188 -0.4956
44311SOL    HW138770   6.877   4.019   6.468 -1.2326 -0.8382  0.3284
44311SOL    HW238771   6.792   4.119   6.543 -0.4336  0.1275 -0.0412
44312SOL     OW38772   8.651   5.367   6.692 -0.3708 -0.0411  0.3085
44312SOL    HW138773   8.679   5.437   6.752 -1.3245 -0.1106  0.8554
44312SOL    HW238774   8.671   5.286   6.740 -1.4926 -0.0905  0.7153
44313SOL     OW38775   3.562   4.197   7.578 -0.1470  0.1158 -0.2433
44313SOL    HW138776   3.503   4.146   7.523  0.6901  1.1340 -2.2021
44313SOL    HW238777   3.549   4.288   7.550  2.5450  0.3439 -1.0385
44314SOL     OW38778   9.826   7.993   6.928 -0.0653 -0.0151 -0.7013
44314SOL    HW138779   9.760   7.933   6.960 -0.9540  1.2334 -0.1241
44314SOL    HW238780   9.899   7.937   6.900 -0.9813 -1.3472 -0.4708
44315SOL     OW38781   7.816   3.380   7.933  0.1027 -0.0842  0.4251
44315SOL    HW138782   7.882   3.447   7.950 -1.0006  0.5257  2.7458
44315SOL    HW238783   7.774   3.366   8.018 -1.7741 -1.4948 -0.6592
44316SOL     OW38784   4.345   8.121   4.799 -0.3287  0.0880  0.0157
44316SOL    HW138785   4.324   8.213   4.818  0.9373  0.2987  0.4838
44316SOL    HW238786   4.353   8.080   4.884 -0.2167 -0.3002 -0.1804
44317SOL     OW38787   0.306   3.658   2.031  0.2653 -0.3795 -0.0018
44317SOL    HW138788   0.220   3.688   2.001 -0.0278 -1.4546 -0.2663
44317SOL    HW238789   0.296   3.645   2.125 -0.2714 -1.8308 -0.2471
44318SOL     OW38790   0.282   4.096   2.637  0.1298  0.2515  0.2275
44318SOL    HW138791   0.243   4.117   2.722 -0.3683  0.0208  0.0603
44318SOL    HW238792   0.310   4.180   2.602  0.2974  0.3535  0.5984
44319SOL     OW38793   2.010   1.222   3.457  0.2782 -0.1134 -0.2934
44319SOL    HW138794   1.921   1.209   3.491 -0.3368 -0.2874 -1.8545
44319SOL    HW238795   2.042   1.300   3.502 -0.8649  0.2418 -0.0573
44320SOL     OW38796   2.971  11.949   8.711  0.2798  0.1175 -0.2729
44320SOL    HW138797   2.888  11.996   8.709 -0.0236 -0.3045  1.0915
44320SOL    HW238798   3.011  11.973   8.795  0.9976 -0.5793 -0.3967
44321SOL     OW38799   8.373   3.393   1.729  0.1110  0.4614  0.1308
44321SOL    HW138800   8.340   3.443   1.803 -0.7778 -0.9125  0.7175
44321SOL    HW238801   8.398   3.308   1.766  0.3315 -0.0047 -1.0239
44322SOL     OW38802   9.991   7.168   1.512  0.2807 -0.1412  0.0715
44322SOL    HW138803  10.027   7.188   1.598  0.2746  0.5872 -0.0900
44322SOL    HW238804  10.037   7.226   1.452  0.6547 -1.0002 -0.4972
44323SOL     OW38805   1.302  11.029   8.569 -0.9567 -0.4134  0.4472
44323SOL    HW138806   1.259  11.056   8.488 -0.3730  0.2278  0.3455
44323SOL    HW238807   1.230  10.998   8.625 -1.2612 -1.9940 -0.7290
44324SOL     OW38808   7.492   1.922   4.266  0.6438 -1.0293 -0.3461
44324SOL    HW138809   7.418   1.885   4.217  0.1629  0.3899 -0.7298
44324SOL    HW238810   7.456   1.997   4.312  1.4952 -1.3070  0.8301
44325SOL     OW38811   8.621   3.745   1.198  0.2029 -0.1247 -0.6410
44325SOL    HW138812   8.527   3.765   1.204  0.1381 -0.6730  0.2948
44325SOL    HW238813   8.630   3.660   1.241  0.9218 -0.7755 -2.0199
44326SOL     OW38814  10.804   8.785   5.629 -0.5027 -0.2445  0.1195
44326SOL    HW138815  10.745   8.799   5.703  0.7918  0.3675  1.0850
44326SOL    HW238816  10.826   8.692   5.633 -2.1588 -0.7186 -0.8781
44327SOL     OW38817   7.691   1.739  11.235 -0.2387 -0.1557  0.3657
44327SOL    HW138818   7.717   1.744  11.327  3.5468 -1.3740 -0.4800
44327SOL    HW238819   7.683   1.646  11.217  0.0921  0.0195 -0.7624
44328SOL     OW38820  10.727   5.625   1.351 -0.3222 -0.0035 -0.2804
44328SOL    HW138821  10.733   5.705   1.300 -0.0433 -0.5331 -1.0922
44328SOL    HW238822  10.761   5.557   1.293  0.6239 -0.5131  0.8346
44329SOL     OW38823   8.993   3.986   0.819 -0.3152  0.1283  0.0340
44329SOL    HW138824   9.047   4.064   0.838 -1.7978  1.1985  0.0245
44329SOL    HW238825   9.010   3.967   0.727  0.5639  0.0159  0.2071
44330SOL     OW38826   0.271   5.916  10.964  0.2066  0.3799  0.2343
44330SOL    HW138827   0.274   5.821  10.975 -0.2198  0.4458  0.9348
44330SOL    HW238828   0.211   5.930  10.890 -0.6552  0.1564  0.8839
44331SOL     OW38829  12.145   1.639   6.777  0.0729  0.4263  0.3089
44331SOL    HW138830  12.176   1.573   6.714  0.5289  0.8603  0.0714
44331SOL    HW238831  12.186   1.721   6.748 -0.2648  0.7617  0.7682
44332SOL     OW38832  10.637  10.940   7.585 -0.5595 -0.3581 -0.0430
44332SOL    HW138833  10.621  10.910   7.674 -0.9545  2.1682  0.8272
44332SOL    HW238834  10.730  10.962   7.584 -0.2529 -1.6317 -0.6905
44333SOL     OW38835   5.031   2.770   0.575  0.0607  0.5698 -0.1636
44333SOL    HW138836   4.976   2.762   0.653 -2.9319 -0.4509 -2.2045
44333SOL    HW238837   5.089   2.693   0.579 -1.7249 -0.8456 -0.0712
44334SOL     OW38838   1.702  10.243   5.118  0.1245 -0.4117  0.2954
44334SOL    HW138839   1.644  10.172   5.146 -1.1951  0.0993 -1.0314
44334SOL    HW238840   1.646  10.321   5.120  0.6773  0.0476 -1.2637
44335SOL     OW38841   9.838   6.950   2.065 -0.2728 -0.3529  0.5556
44335SOL    HW138842   9.776   7.023   2.061 -0.1093 -0.2112  0.5654
44335SOL    HW238843   9.843   6.929   2.159 -2.0190 -1.8657  0.3679
44336SOL     OW38844  11.280   7.818   5.003 -0.1037 -0.1317  0.6023
44336SOL    HW138845  11.236   7.741   5.038 -0.2102 -0.1028  0.5329
44336SOL    HW238846  11.358   7.829   5.058  0.3495 -0.7721  0.1065
44337SOL     OW38847   9.942   8.810   4.551  0.2857 -0.3829  0.0205
44337SOL    HW138848   9.865   8.762   4.519 -0.6710 -0.1671  1.8510
44337SOL    HW238849   9.956   8.879   4.486  0.2170 -1.6688 -1.4071
44338SOL     OW38850   8.166  11.793   5.974  0.2559 -0.1013 -0.2149
44338SOL    HW138851   8.111  11.850   6.027 -1.2063 -1.7959  0.1718
44338SOL    HW238852   8.182  11.843   5.894 -2.7022  0.0973 -0.7871
44339SOL     OW38853   7.702   5.589   6.851  0.3790  0.3102 -0.6476
44339SOL    HW138854   7.729   5.571   6.941  0.9028  1.0721 -0.6384
44339SOL    HW238855   7.640   5.661   6.859 -3.1508 -2.4784 -0.4967
44340SOL     OW38856  12.033   2.901   2.787  0.2187  0.4484  0.1529
44340SOL    HW138857  12.051   2.807   2.790  2.2412  0.7728 -0.2811
44340SOL    HW238858  12.031   2.928   2.879  0.1586  0.0776  0.2601
44341SOL     OW38859   1.650   8.938   3.792 -0.9438 -0.1847  0.5584
44341SOL    HW138860   1.599   8.857   3.793 -0.2305 -0.6726 -0.4130
44341SOL    HW238861   1.667   8.954   3.699  2.4747 -1.2172  0.8630
44342SOL     OW38862   1.525   6.800   6.582  0.3023  0.0406 -0.2527
44342SOL    HW138863   1.563   6.740   6.519  0.6437  0.2379 -0.2377
44342SOL    HW238864   1.573   6.782   6.664 -1.1773 -1.3017  0.3703
44343SOL     OW38865   9.386   3.165   5.191 -0.1970 -0.2456 -0.4353
44343SOL    HW138866   9.448   3.131   5.255 -0.6616  0.3931  0.3750
44343SOL    HW238867   9.302   3.164   5.237 -0.4738  0.5643 -0.9100
44344SOL     OW38868   1.772   0.814   7.163 -0.0789 -0.2084 -0.4242
44344SOL    HW138869   1.829   0.776   7.230  0.3025  0.9360 -0.0796
44344SOL    HW238870   1.783   0.908   7.173 -1.6728  0.0363 -0.6675
44345SOL     OW38871   3.038   3.517   1.884 -0.3440 -0.0640  0.4984
44345SOL    HW138872   3.131   3.504   1.871 -0.5536  0.7407 -2.4520
44345SOL    HW238873   3.009   3.439   1.932  1.9476  0.1836  2.4747
44346SOL     OW38874   3.435   0.612   7.557 -0.0159 -0.7282 -0.1236
44346SOL    HW138875   3.419   0.664   7.636  0.3481  1.1093 -1.1973
44346SOL    HW238876   3.517   0.566   7.574  0.9454  0.9585 -0.0460
44347SOL     OW38877   2.812   0.380   0.636  0.5104  0.2718 -0.1352
44347SOL    HW138878   2.845   0.358   0.723 -0.2242 -0.3445 -0.0090
44347SOL    HW238879   2.832   0.303   0.582  0.6103  0.4937 -0.4229
44348SOL     OW38880   4.890   9.040   7.685 -0.0237  0.0623 -0.4876
44348SOL    HW138881   4.825   9.079   7.625  1.4313  1.4136 -1.2562
44348SOL    HW238882   4.937   9.115   7.721  1.0366 -0.8906  0.1507
44349SOL     OW38883  10.234   9.586   2.952 -0.4203 -0.6010 -0.0207
44349SOL    HW138884  10.275   9.566   3.036 -1.8209 -0.6010  0.6749
44349SOL    HW238885  10.231   9.682   2.948  0.1272 -0.5903 -0.3240
44350SOL     OW38886   6.077  10.810  11.286 -0.0291  0.1344 -0.1548
44350SOL    HW138887   6.033  10.854  11.358  0.1697  0.6484 -0.3438
44350SOL    HW238888   6.170  10.830  11.297  0.0072  0.1882 -0.5276
44351SOL     OW38889   1.614   9.735   2.184  0.6025 -0.0345 -0.3161
44351SOL    HW138890   1.648   9.666   2.241 -0.2070 -1.0253 -0.9987
44351SOL    HW238891   1.519   9.725   2.187  0.5303  0.1556 -1.4958
44352SOL     OW38892  10.807   8.732   9.860  0.2633  0.7550 -0.4675
44352SOL    HW138893  10.761   8.813   9.838  0.2366  0.7404 -0.4666
44352SOL    HW238894  10.863   8.715   9.785  0.0883  0.6444 -0.5759
44353SOL     OW38895   3.178   9.620   6.706 -0.2782  0.2355 -0.1059
44353SOL    HW138896   3.193   9.704   6.751  0.8015  0.4980 -0.9068
44353SOL    HW238897   3.255   9.568   6.726 -1.2367 -0.8462  0.9253
44354SOL     OW38898   9.233   8.996   2.208  0.3149 -0.1003  0.2317
44354SOL    HW138899   9.318   8.953   2.202  0.1390 -0.3891 -0.2043
44354SOL    HW238900   9.251   9.079   2.252  0.8251 -0.1458  0.1116
44355SOL     OW38901  12.273   6.165  10.114 -0.5304 -0.3040  0.1141
44355SOL    HW138902  12.306   6.192  10.028  1.9142  3.2704  1.9262
44355SOL    HW238903  12.341   6.193  10.176 -1.8463 -3.3106  3.2639
44356SOL     OW38904   4.300   3.633   5.335 -0.4667 -0.4093  0.3643
44356SOL    HW138905   4.391   3.635   5.305 -0.2794  0.8385  0.9452
44356SOL    HW238906   4.261   3.714   5.300 -1.5192 -1.1822 -0.3242
44357SOL     OW38907  10.964   2.783   6.737  0.2629  0.5477 -0.1432
44357SOL    HW138908  11.059   2.790   6.748  0.2756 -0.5712  0.5414
44357SOL    HW238909  10.936   2.872   6.713  1.7680  0.3995 -2.7525
44358SOL     OW38910   4.008   7.718   2.384 -0.1725  0.4542 -0.1699
44358SOL    HW138911   4.079   7.695   2.324 -1.0942  1.0483 -1.5275
44358SOL    HW238912   4.026   7.666   2.463  0.6846 -0.8966 -1.2102
44359SOL     OW38913   9.233   6.115   4.371 -0.5026  0.3441 -0.7067
44359SOL    HW138914   9.322   6.118   4.338  0.1641  0.4670  1.0069
44359SOL    HW238915   9.202   6.206   4.366  0.2512  0.6995  0.6663
44360SOL     OW38916   5.781   3.981   4.019  0.1986 -0.1899 -0.1273
44360SOL    HW138917   5.865   3.965   3.975  0.9889 -0.1966  1.3057
44360SOL    HW238918   5.731   3.900   4.006  1.0802 -0.8429  0.4121
44361SOL     OW38919   1.690  11.139  11.951  0.2137  0.3978  0.3199
44361SOL    HW138920   1.679  11.089  12.032  1.8986 -1.9867 -0.8041
44361SOL    HW238921   1.632  11.215  11.961 -2.0132 -1.4337  2.4009
44362SOL     OW38922   9.711   8.342   8.269 -0.4124 -0.1655  0.1264
44362SOL    HW138923   9.794   8.389   8.257 -0.5388  0.0751  0.1903
44362SOL    HW238924   9.674   8.380   8.348 -1.0413  0.3990 -0.4297
44363SOL     OW38925   0.458   1.451  11.290 -0.1516 -0.0717 -0.0281
44363SOL    HW138926   0.415   1.391  11.228 -2.2112  0.3037  0.9418
44363SOL    HW238927   0.499   1.394  11.355 -0.6044 -0.4468 -0.0706
44364SOL     OW38928  10.039   0.965   6.348 -0.7174  0.5863 -0.1586
44364SOL    HW138929  10.032   1.054   6.315 -0.6829 -0.3663 -2.9512
44364SOL    HW238930   9.961   0.921   6.315 -0.1383 -0.7125  0.1523
44365SOL     OW38931   0.045   4.946   9.842 -0.3741  0.7120  0.5007
44365SOL    HW138932  -0.007   4.880   9.888 -0.3189  1.0625  1.0741
44365SOL    HW238933   0.133   4.937   9.877 -0.4232  1.2659  0.7848
44366SOL     OW38934  11.096   9.145   8.275  0.1037  0.4740  0.0107
44366SOL    HW138935  11.164   9.211   8.290  0.5577 -0.1521  0.8268
44366SOL    HW238936  11.070   9.157   8.184  0.7692  1.2259 -0.0900
44367SOL     OW38937   9.238  12.282   6.454  0.6574  0.6903  0.6219
44367SOL    HW138938   9.207  12.273   6.364  0.8885  1.0975  0.4997
44367SOL    HW238939   9.189  12.357   6.489  0.5708  0.5355  0.8345
44368SOL     OW38940  12.322   9.628   2.859  0.1662 -0.0084  0.0339
44368SOL    HW138941  12.284   9.701   2.908 -0.0284 -0.3005  0.3233
44368SOL    HW238942  12.388   9.669   2.803  0.5650  0.3042  0.7147
44369SOL     OW38943  10.095   7.175   2.555  0.2570 -0.2056  0.5048
44369SOL    HW138944  10.086   7.224   2.637  0.3181  0.8158 -0.0914
44369SOL    HW238945  10.144   7.233   2.497  0.5289 -1.0605 -0.1560
44370SOL     OW38946   6.784   7.354   8.092  0.5052  0.6491 -0.2291
44370SOL    HW138947   6.753   7.286   8.152  2.9826 -1.3046 -0.9828
44370SOL    HW238948   6.720   7.354   8.021 -0.1713 -0.0459  0.3538
44371SOL     OW38949   4.246  10.537   9.567  0.4107  0.4426  1.0816
44371SOL    HW138950   4.312  10.573   9.508 -0.3215 -0.4856 -0.3665
44371SOL    HW238951   4.163  10.562   9.528 -0.1104 -1.5696  0.7652
44372SOL     OW38952   9.666   0.511   8.776 -0.3034  0.1119 -0.5376
44372SOL    HW138953   9.748   0.502   8.825  0.8649  1.4862 -2.1392
44372SOL    HW238954   9.613   0.569   8.830  1.3729  2.4902 -1.2798
44373SOL     OW38955   5.652   7.226   6.476 -0.0708  0.4411  0.0280
44373SOL    HW138956   5.599   7.207   6.553 -0.1882  0.8675  0.0568
44373SOL    HW238957   5.666   7.141   6.435 -0.0025  0.2125  0.5212
44374SOL     OW38958   5.670  10.015   5.239 -0.2835  0.0070  0.1574
44374SOL    HW138959   5.725  10.007   5.318 -3.4520 -0.0165  2.5778
44374SOL    HW238960   5.650   9.924   5.215 -0.2296  0.0371 -0.0009
44375SOL     OW38961   2.903   6.023   7.698  0.1650  0.1185  0.0385
44375SOL    HW138962   2.914   6.082   7.623 -1.0823 -0.7093 -0.8287
44375SOL    HW238963   2.810   6.002   7.698 -0.0564  0.8369  2.4164
44376SOL     OW38964   6.913   3.534   2.599  0.1549 -0.0011 -0.5831
44376SOL    HW138965   6.918   3.615   2.548 -1.7828 -0.0535 -0.9206
44376SOL    HW238966   6.834   3.544   2.653  1.1809 -0.6897  1.1547
44377SOL     OW38967   0.969   4.471   6.916 -0.1640 -0.6799  0.4121
44377SOL    HW138968   1.056   4.452   6.882  0.2850 -0.6031  1.4768
44377SOL    HW238969   0.937   4.544   6.862  0.8309 -0.0567  0.6517
44378SOL     OW38970   7.538   0.361   4.239  0.0308  0.3871  0.5420
44378SOL    HW138971   7.521   0.272   4.270 -0.5907  0.2755 -0.0826
44378SOL    HW238972   7.531   0.415   4.317  0.6003 -0.1339  0.9613
44379SOL     OW38973   2.469   6.825   3.791 -0.0686  0.0062 -1.3128
44379SOL    HW138974   2.402   6.814   3.859  1.2621 -3.1146 -0.3181
44379SOL    HW238975   2.552   6.824   3.840  0.9273 -2.2706 -2.8872
44380SOL     OW38976   5.411   4.254   3.490 -0.1961  0.3834 -0.2769
44380SOL    HW138977   5.424   4.326   3.427 -0.8609 -0.1164 -1.0077
44380SOL    HW238978   5.393   4.298   3.573 -0.0652  1.0640 -0.6002
44381SOL     OW38979  11.802   6.568   0.834  0.2086 -0.0177 -0.0104
44381SOL    HW138980  11.841   6.579   0.747  1.8086 -3.5519  0.0888
44381SOL    HW238981  11.717   6.527   0.817 -0.2256  0.8432  0.0547
44382SOL     OW38982   7.876   9.961  11.563  0.4268 -0.1634  0.2054
44382SOL    HW138983   7.826  10.042  11.569  0.4646 -0.1335  0.1186
44382SOL    HW238984   7.878   9.941  11.469  0.0588 -0.4839  0.2617
44383SOL     OW38985  10.898   9.328   3.462  0.4199 -0.0879  0.0857
44383SOL    HW138986  10.868   9.374   3.384  0.9934 -0.4167 -0.3385
44383SOL    HW238987  10.925   9.242   3.431  0.4016 -0.3224  0.6920
44384SOL     OW38988  11.550   7.974   1.817 -0.3617  0.3387  0.4004
44384SOL    HW138989  11.485   7.965   1.747 -1.8756  0.2075  1.7831
44384SOL    HW238990  11.544   8.065   1.844 -0.1321  0.2693  0.6910
44385SOL     OW38991   0.336   4.054   7.058 -0.3767 -0.0473 -0.5164
44385SOL    HW138992   0.314   4.009   7.139 -0.6732  1.6505  0.3734
44385SOL    HW238993   0.258   4.104   7.036  0.3659  0.9970 -0.8219
44386SOL     OW38994   4.806   2.513   6.027 -0.1979  0.2191 -0.0580
44386SOL    HW138995   4.811   2.580   5.958  1.2982 -0.1940 -0.3986
44386SOL    HW238996   4.897   2.504   6.057 -0.8141  0.3192  1.9254
44387SOL     OW38997   5.586   8.180   4.000  0.3742  0.1776  0.2075
44387SOL    HW138998   5.578   8.269   3.968 -0.6826 -0.6335 -1.9699
44387SOL    HW238999   5.506   8.136   3.971  0.3982 -1.2447  2.0907
44388SOL     OW39000   4.902   3.279   5.543 -0.1430  0.4226  0.2310
44388SOL    HW139001   4.944   3.334   5.610  2.3790  0.3638 -1.1560
44388SOL    HW239002   4.874   3.201   5.590  0.3664  0.9412  1.4486
44389SOL     OW39003   9.755   3.304   8.543  0.2601  0.3053 -0.0752
44389SOL    HW139004   9.755   3.278   8.635  1.9332  1.6778  0.3803
44389SOL    HW239005   9.703   3.238   8.498  0.8016 -1.3270  1.6198
44390SOL     OW39006   1.169   7.081   3.054 -0.0833 -0.1165  0.1434
44390SOL    HW139007   1.233   7.052   3.119  0.2698 -0.8764 -0.5418
44390SOL    HW239008   1.141   7.167   3.086  1.6693  0.4802  0.1750
44391SOL     OW39009   2.729   2.009  11.642  0.2329  0.6974 -0.4323
44391SOL    HW139010   2.728   1.914  11.651  0.0367  0.6688 -0.7589
44391SOL    HW239011   2.717   2.025  11.549 -1.6979  1.0771 -0.1600
44392SOL     OW39012   4.616   4.732   6.752 -0.4959  0.0598 -0.3059
44392SOL    HW139013   4.581   4.768   6.833  0.4384 -0.4273  0.3213
44392SOL    HW239014   4.710   4.722   6.768 -0.2455  0.2363 -1.5488
44393SOL     OW39015   7.442   9.346   1.470 -0.7286 -0.3200  0.2158
44393SOL    HW139016   7.423   9.427   1.518 -0.6623 -0.1683 -0.0126
44393SOL    HW239017   7.404   9.360   1.384 -0.3581 -0.3716  0.0448
44394SOL     OW39018   4.438   3.689  12.093  0.3117  0.3416 -0.3836
44394SOL    HW139019   4.427   3.779  12.063  1.1928  1.1432  1.5272
44394SOL    HW239020   4.371   3.640  12.046 -0.9625  2.1855 -0.6046
44395SOL     OW39021   2.072  11.021  11.963  0.2919 -0.0281 -0.8219
44395SOL    HW139022   2.006  10.953  11.972 -1.0802  1.0714 -1.9363
44395SOL    HW239023   2.112  11.028  12.049 -1.5702 -0.2630  0.1075
44396SOL     OW39024  11.303   2.589   7.856 -0.2139  0.3988 -0.6294
44396SOL    HW139025  11.265   2.501   7.860 -1.9248  1.0850  3.5063
44396SOL    HW239026  11.394   2.576   7.881 -0.9776 -0.1534  2.2959
44397SOL     OW39027   8.686  10.380   0.987  0.1781  0.3798  0.0798
44397SOL    HW139028   8.733  10.399   0.905 -0.3587 -1.8358 -0.8224
44397SOL    HW239029   8.699  10.286   1.000 -1.7347  0.2416  1.2753
44398SOL     OW39030   8.788   6.371   7.920 -0.9385  0.2763  0.2122
44398SOL    HW139031   8.723   6.434   7.950 -0.0998  1.8574 -1.1195
44398SOL    HW239032   8.747   6.327   7.845 -1.7082 -1.1731  1.4336
44399SOL     OW39033   5.808  11.738   0.799 -0.2929  0.2930 -0.3192
44399SOL    HW139034   5.759  11.725   0.880  0.6184 -1.1692  0.0506
44399SOL    HW239035   5.755  11.696   0.731  0.7137 -2.0339  0.2096
44400SOL     OW39036   2.058   7.815  10.014  0.3405  0.6892  0.0295
44400SOL    HW139037   2.110   7.849  10.087  1.0196 -0.3051  0.0202
44400SOL    HW239038   2.119   7.810   9.941  0.1601 -0.1560 -0.0756
44401SOL     OW39039  10.465   7.300   6.398  0.0518  0.6468  0.5016
44401SOL    HW139040  10.371   7.320   6.396 -0.3830 -1.2477 -1.8999
44401SOL    HW239041  10.476   7.228   6.337  3.1887  1.1235  0.3306
44402SOL     OW39042   2.301   9.789  11.062  0.2572  0.0834 -0.0059
44402SOL    HW139043   2.279   9.723  10.996 -0.5133  2.7313 -2.5749
44402SOL    HW239044   2.305   9.739  11.144 -0.0957 -3.1527 -1.7718
44403SOL     OW39045  10.617   9.553  12.155  0.0909  0.0591 -0.2470
44403SOL    HW139046  10.697   9.604  12.149  1.5660 -2.1952 -1.1196
44403SOL    HW239047  10.559   9.592  12.089  1.1084  0.6878 -0.7934
44404SOL     OW39048   6.209   1.311   8.065 -0.4399 -0.0051  0.0029
44404SOL    HW139049   6.228   1.402   8.089 -1.3805  0.1670  0.1476
44404SOL    HW239050   6.238   1.303   7.974 -0.0240  0.3356  0.1044
44405SOL     OW39051   9.163   0.022  10.897  0.1419  0.3801 -0.8661
44405SOL    HW139052   9.095  -0.023  10.948  0.5263  1.6935  0.8961
44405SOL    HW239053   9.245  -0.007  10.936  0.4184  1.9949 -0.1573
44406SOL     OW39054   1.806   1.419   9.924 -0.2938 -0.1541 -0.2490
44406SOL    HW139055   1.873   1.416   9.856  0.0499 -0.4970  0.1048
44406SOL    HW239056   1.811   1.508   9.958 -1.4327  0.4747 -1.6307
44407SOL     OW39057   9.964   4.134   8.212  0.8241  0.5991 -0.2491
44407SOL    HW139058   9.937   4.055   8.165  1.6336  0.5571 -0.6649
44407SOL    HW239059   9.989   4.102   8.299  0.6948  0.4638 -0.2611
44408SOL     OW39060   0.800   0.096   0.323 -0.1366 -0.6878  0.1071
44408SOL    HW139061   0.790   0.150   0.402  0.2073 -1.4662  0.6968
44408SOL    HW239062   0.712   0.089   0.287 -0.0325  1.1943 -0.6274
44409SOL     OW39063   6.107   1.830   2.792  0.5149 -0.2039  0.4635
44409SOL    HW139064   6.104   1.739   2.765 -0.6380 -0.2451  0.7054
44409SOL    HW239065   6.171   1.871   2.733 -0.4354 -0.7237 -0.9548
44410SOL     OW39066  12.029   1.604   7.532 -0.2690  0.2591 -0.0677
44410SOL    HW139067  12.052   1.638   7.618 -1.1819  0.5065  0.0897
44410SOL    HW239068  12.095   1.536   7.514  0.1466  0.4705  0.6521
44411SOL     OW39069   2.890   4.957   0.967  0.0673  0.0363 -0.0418
44411SOL    HW139070   2.907   4.913   0.883  0.7936  0.1702  0.0221
44411SOL    HW239071   2.846   4.891   1.020  1.3763 -0.7298  0.1436
44412SOL     OW39072   9.725   0.667   9.111  0.2688  0.0844  0.1406
44412SOL    HW139073   9.768   0.605   9.170  0.2196 -0.1675 -0.0901
44412SOL    HW239074   9.735   0.629   9.024  1.8079  1.2543 -0.2435
44413SOL     OW39075   1.809   1.749   9.743 -0.2530  0.1407  0.1113
44413SOL    HW139076   1.746   1.715   9.679  0.1940  2.4022 -1.6428
44413SOL    HW239077   1.894   1.723   9.709 -0.0959 -0.9974  1.3021
44414SOL     OW39078  10.708   2.896   7.801 -0.5762 -0.1318  0.5291
44414SOL    HW139079  10.743   2.924   7.885  2.9810 -2.0289 -0.1126
44414SOL    HW239080  10.714   2.800   7.803 -0.1217 -0.2241 -1.8927
44415SOL     OW39081   8.977   3.771   4.790 -0.9401  0.0554  0.9831
44415SOL    HW139082   8.977   3.808   4.878 -0.3899  3.4957 -0.2848
44415SOL    HW239083   8.974   3.848   4.732 -3.2534 -2.0498 -2.0166
44416SOL     OW39084   9.803   0.640   8.558 -0.2284 -0.4465  0.0405
44416SOL    HW139085   9.766   0.579   8.622 -1.4840 -0.0610 -0.2897
44416SOL    HW239086   9.747   0.717   8.564 -0.1580 -0.2689 -1.2799
44417SOL     OW39087   7.168   1.744   0.755 -0.0326  0.0246  0.3191
44417SOL    HW139088   7.089   1.788   0.786 -0.0484  0.4005 -0.2522
44417SOL    HW239089   7.136   1.676   0.695  0.1189  0.7233 -0.5659
44418SOL     OW39090   0.029   5.564   3.731 -0.7486 -0.4441 -0.5163
44418SOL    HW139091   0.116   5.541   3.762 -0.6537 -0.4096 -0.7586
44418SOL    HW239092   0.024   5.659   3.739 -1.7079 -0.6277  1.9997
44419SOL     OW39093   1.444  11.100  11.537  0.2692  0.1105  0.8680
44419SOL    HW139094   1.470  11.188  11.508  0.6651  0.6949  2.8596
44419SOL    HW239095   1.503  11.041  11.491 -0.2365  0.8288 -0.7837
44420SOL     OW39096   9.286   8.958  12.320 -0.4604 -0.4417  0.2456
44420SOL    HW139097   9.272   8.886  12.258  1.6314 -0.2148 -0.5767
44420SOL    HW239098   9.380   8.974  12.318 -0.6379  1.1661  1.7402
44421SOL     OW39099   4.331   0.725  10.981  0.7887 -0.8427  0.2878
44421SOL    HW139100   4.324   0.763  10.894 -2.1690 -1.3154  0.2154
44421SOL    HW239101   4.273   0.649  10.979 -1.1495  0.3693  3.2038
44422SOL     OW39102   6.740   4.627   7.609  0.3835 -0.0406  0.7631
44422SOL    HW139103   6.744   4.677   7.690 -0.5410  0.3058  0.6168
44422SOL    HW239104   6.800   4.554   7.622  1.2841  0.7635  1.2203
44423SOL     OW39105   0.578   0.717   9.494  0.1357 -0.1271 -0.2855
44423SOL    HW139106   0.503   0.704   9.436  0.8774 -3.2738 -0.7227
44423SOL    HW239107   0.550   0.786   9.554 -2.8458 -0.6562 -0.9044
44424SOL     OW39108   1.127   7.541   8.139  0.3198 -0.2418 -0.2740
44424SOL    HW139109   1.191   7.470   8.144 -0.7444 -1.1242  3.0831
44424SOL    HW239110   1.045   7.498   8.115 -0.1743 -0.0603  1.0429
44425SOL     OW39111   9.545  11.779   6.020  0.7878  0.3497 -0.1342
44425SOL    HW139112   9.483  11.849   6.002  1.0066  0.7229  0.5220
44425SOL    HW239113   9.527  11.753   6.111  0.8758 -0.2743 -0.2890
44426SOL     OW39114   1.107   0.952   2.048  0.4795  0.3506  0.0282
44426SOL    HW139115   1.144   0.871   2.082 -0.2998  0.3405  0.8887
44426SOL    HW239116   1.094   1.007   2.126  1.6523  1.5985 -0.5949
44427SOL     OW39117   2.564  12.106   0.548 -0.2057  0.2527  0.1937
44427SOL    HW139118   2.535  12.062   0.628 -0.2355  1.1906  0.7200
44427SOL    HW239119   2.529  12.195   0.556  1.1536  0.8322 -0.0932
44428SOL     OW39120   2.584   7.240   1.974 -0.6232  0.4033 -0.3006
44428SOL    HW139121   2.576   7.170   1.909  0.1905 -0.7218  0.7660
44428SOL    HW239122   2.529   7.211   2.048  1.0232  0.0319  0.8316
44429SOL     OW39123   8.893   4.379   1.648  0.6343 -0.0441 -0.1758
44429SOL    HW139124   8.808   4.370   1.604  0.3161 -0.8881  0.5836
44429SOL    HW239125   8.902   4.473   1.663  0.6554  0.2427 -1.8354
44430SOL     OW39126   6.426   8.527   0.726  0.0418  0.2317  0.2659
44430SOL    HW139127   6.388   8.553   0.642  1.0999  0.1868 -0.2484
44430SOL    HW239128   6.445   8.434   0.715 -0.2811  0.1125  0.7363
44431SOL     OW39129   8.408   1.542   9.517 -0.2226  0.0594  0.0859
44431SOL    HW139130   8.426   1.569   9.606  0.0056  2.0818 -0.5284
44431SOL    HW239131   8.327   1.588   9.494  0.9380  1.4376 -1.4790
44432SOL     OW39132   1.908   0.612   2.832  0.2877 -0.1342 -0.0149
44432SOL    HW139133   1.948   0.642   2.913  0.7036 -0.6745 -0.0134
44432SOL    HW239134   1.816   0.637   2.839  0.2697 -0.4056  0.7343
44433SOL     OW39135   0.116   8.022   0.979  0.3486  0.6411  0.1730
44433SOL    HW139136   0.028   7.987   0.991  0.7880 -0.1476  1.2873
44433SOL    HW239137   0.137   8.064   1.062  1.3946 -0.0553  0.2852
44434SOL     OW39138   7.931   0.857  11.613  0.6075 -0.0962 -0.2414
44434SOL    HW139139   7.851   0.869  11.563  1.1675  2.8371 -0.6370
44434SOL    HW239140   7.906   0.878  11.703  0.6518 -0.6103 -0.1030
44435SOL     OW39141   2.563   4.755   6.402  0.1672 -0.6427 -0.0534
44435SOL    HW139142   2.572   4.850   6.412  0.4330  0.1800 -5.1237
44435SOL    HW239143   2.484   4.744   6.348  1.4881 -2.9734 -1.7446
44436SOL     OW39144   2.231   8.696   3.864  0.0705 -0.0407 -0.2435
44436SOL    HW139145   2.321   8.725   3.878 -0.2371 -0.2644  2.8039
44436SOL    HW239146   2.212   8.639   3.939 -3.3199  1.7411  0.4426
44437SOL     OW39147   0.409   6.371   0.830  0.6902 -0.2000  0.5465
44437SOL    HW139148   0.361   6.326   0.761 -1.1078  0.2360  1.4571
44437SOL    HW239149   0.480   6.311   0.853  0.3132 -1.0894 -0.5257
44438SOL     OW39150   2.316   3.704   9.707  0.6231  0.1244  0.2105
44438SOL    HW139151   2.393   3.761   9.708  1.3575 -0.8547  0.6837
44438SOL    HW239152   2.276   3.716   9.793  0.2349  0.6318 -0.0342
44439SOL     OW39153   3.071   9.232   8.888  0.6448  0.4604  0.0383
44439SOL    HW139154   3.016   9.306   8.865  2.0682  0.9286 -2.0812
44439SOL    HW239155   3.056   9.168   8.818 -0.9477 -1.5734  2.0668
44440SOL     OW39156   2.498   9.444   2.146 -0.1314  0.8814 -0.2084
44440SOL    HW139157   2.433   9.403   2.203 -0.4924  0.4410 -0.9246
44440SOL    HW239158   2.517   9.378   2.080  0.7061  1.1791 -0.2770
44441SOL     OW39159   3.649   4.810   2.373  0.8456 -0.1473  0.0118
44441SOL    HW139160   3.587   4.755   2.421 -0.9667 -0.3822 -2.3607
44441SOL    HW239161   3.727   4.755   2.363  0.4643 -0.8709  0.8510
44442SOL     OW39162   7.009  11.811   2.438 -0.8724  0.0617  0.3689
44442SOL    HW139163   7.028  11.769   2.522 -0.3068 -1.5720 -0.5127
44442SOL    HW239164   7.080  11.781   2.381 -0.1609  2.6889 -0.2165
44443SOL     OW39165   1.973   2.828  10.101 -0.4480  0.4694 -0.3630
44443SOL    HW139166   2.061   2.861  10.117 -0.1158 -0.6155  0.1739
44443SOL    HW239167   1.955   2.850  10.009  1.0686 -0.7849 -0.9940
44444SOL     OW39168  11.328  10.968  11.545 -0.4811  0.9545  0.3530
44444SOL    HW139169  11.276  10.914  11.603  0.8566 -1.0198 -0.1942
44444SOL    HW239170  11.397  11.004  11.601  1.4416 -1.7953 -0.0799
44445SOL     OW39171   3.093   0.598   7.692  0.0976  0.0862 -0.0704
44445SOL    HW139172   3.023   0.641   7.643 -0.5896  0.0103  0.8316
44445SOL    HW239173   3.055   0.578   7.777  1.2423  0.0962  0.4616
44446SOL     OW39174   3.801   5.987   5.772 -0.0648  0.3544  0.1682
44446SOL    HW139175   3.818   5.966   5.680 -0.7939 -1.2575  0.3705
44446SOL    HW239176   3.856   5.926   5.821  1.1742  1.9321  0.8575
44447SOL     OW39177  12.321   3.548   9.586  0.1228  0.1732  0.3373
44447SOL    HW139178  12.355   3.458   9.579  0.8665  0.3800  1.1193
44447SOL    HW239179  12.262   3.545   9.661 -0.7266  0.0795 -0.3316
44448SOL     OW39180   5.004   6.521   7.857 -0.0668  0.1113 -0.2309
44448SOL    HW139181   5.092   6.510   7.821  0.2807  0.5375  0.4689
44448SOL    HW239182   4.950   6.542   7.781  0.5149  0.2549 -0.6162
44449SOL     OW39183   3.822   6.251   0.809  0.2112  0.5907 -0.0712
44449SOL    HW139184   3.863   6.337   0.800  1.6876 -0.1267 -0.4464
44449SOL    HW239185   3.866   6.196   0.744  0.2443 -0.7891  1.0681
44450SOL     OW39186   7.715  11.983  12.180 -0.0836 -0.1099 -0.4894
44450SOL    HW139187   7.803  11.966  12.213  0.3393  1.0347 -0.9672
44450SOL    HW239188   7.687  12.062  12.226 -1.6363 -1.4698  1.0419
44451SOL     OW39189   6.956   3.901   4.515 -0.3687 -0.1104 -0.5624
44451SOL    HW139190   6.971   3.915   4.608  1.3250  0.6302 -0.9049
44451SOL    HW239191   7.031   3.848   4.486 -0.4566  0.3259 -1.6461
44452SOL     OW39192   6.996  10.589   1.006 -0.4242 -0.1269 -0.3652
44452SOL    HW139193   6.995  10.555   1.096  1.3723 -0.2702 -0.3642
44452SOL    HW239194   6.973  10.681   1.014  0.8327  0.1323  0.3905
44453SOL     OW39195   0.428   4.036   8.301 -0.0033 -0.3139 -0.4946
44453SOL    HW139196   0.337   4.046   8.329 -0.1448 -1.5098 -0.4917
44453SOL    HW239197   0.430   4.076   8.214 -0.5806 -0.4658 -0.5871
44454SOL     OW39198   0.213   9.574   4.795 -0.5824 -0.0225 -0.4392
44454SOL    HW139199   0.137   9.590   4.739 -0.7515 -1.5984 -0.6924
44454SOL    HW239200   0.178   9.529   4.871  0.0989 -0.8704 -0.6084
44455SOL     OW39201  11.074  11.182   6.434 -0.4355  0.0344  0.4167
44455SOL    HW139202  11.013  11.132   6.488 -0.8380  0.1354  0.0517
44455SOL    HW239203  11.124  11.115   6.387 -0.5130 -0.0366  0.4361
44456SOL     OW39204   8.542   8.840  10.433  0.1453 -0.3633 -0.0799
44456SOL    HW139205   8.499   8.762  10.399 -0.0231 -0.1659 -0.3241
44456SOL    HW239206   8.472   8.906  10.437  0.0004 -0.5746  1.3005
44457SOL     OW39207  10.471   8.840   3.329  0.5763  0.0758 -0.3911
44457SOL    HW139208  10.526   8.913   3.303 -1.2637  2.0637  0.9448
44457SOL    HW239209  10.386   8.859   3.289 -0.0688 -1.0776  0.3790
44458SOL     OW39210   1.176   3.816   1.192  0.6348  0.2942 -0.2645
44458SOL    HW139211   1.243   3.785   1.132  0.3712  0.1257 -0.4763
44458SOL    HW239212   1.132   3.736   1.222  0.0580  0.4483 -0.6838
44459SOL     OW39213   0.999  11.803   9.404 -0.0930 -0.0154 -0.7697
44459SOL    HW139214   0.982  11.756   9.323  0.7353 -1.0854 -0.3445
44459SOL    HW239215   1.092  11.827   9.399 -0.3837  1.1497 -0.7575
44460SOL     OW39216   9.091   0.503   9.118  0.1598  0.3385  0.2498
44460SOL    HW139217   9.029   0.543   9.056 -0.7335 -3.2127 -1.4229
44460SOL    HW239218   9.037   0.481   9.194 -0.0122 -0.1344 -0.0011
44461SOL     OW39219   3.555   8.760  10.374  0.5348  0.4754 -0.4051
44461SOL    HW139220   3.510   8.844  10.370 -1.9090 -0.6930  0.1984
44461SOL    HW239221   3.634   8.772  10.322 -1.2719  2.2611 -2.9596
44462SOL     OW39222   2.109  10.201   9.921 -0.3215 -0.1099  0.3982
44462SOL    HW139223   2.202  10.218   9.938 -0.4075  0.2494  0.5295
44462SOL    HW239224   2.108  10.129   9.858  0.0298 -0.9924  1.3623
44463SOL     OW39225  10.466   2.857   0.111  0.2213  0.1277  0.4080
44463SOL    HW139226  10.516   2.866   0.030  1.2504  0.8113  1.0885
44463SOL    HW239227  10.472   2.764   0.133  1.4008  0.2260  0.5816
44464SOL     OW39228   0.631   9.426   8.592  0.1126  0.1868  0.5056
44464SOL    HW139229   0.617   9.515   8.627 -1.1773 -0.8004  2.7216
44464SOL    HW239230   0.600   9.368   8.662  0.7379 -2.0282 -0.9650
44465SOL     OW39231   5.401  10.004   9.934 -0.0912  0.2897 -0.4231
44465SOL    HW139232   5.317   9.986   9.891 -0.7824  1.2872  0.4737
44465SOL    HW239233   5.427   9.920   9.970  0.3786 -0.5352 -2.5055
44466SOL     OW39234   9.818   8.539   7.424  0.2043 -0.5416  0.0886
44466SOL    HW139235   9.885   8.528   7.492  1.4874  2.9485 -0.3968
44466SOL    HW239236   9.847   8.485   7.352  1.6457 -0.3540  0.5009
44467SOL     OW39237   1.843   6.007   3.880  0.3011  0.3651  0.1059
44467SOL    HW139238   1.797   6.078   3.924  2.1620  1.7345 -0.0403
44467SOL    HW239239   1.839   5.934   3.942  1.0835  1.6009  1.6864
44468SOL     OW39240  10.608   9.942   4.271  0.0510 -0.1605  0.0322
44468SOL    HW139241  10.619   9.899   4.355 -0.8243 -1.0744 -0.3106
44468SOL    HW239242  10.513   9.946   4.258  0.1731  0.1197 -0.8348
44469SOL     OW39243   3.785   2.858   1.641 -0.2835 -0.1924 -0.1119
44469SOL    HW139244   3.779   2.778   1.694  1.0437 -0.1078  0.1974
44469SOL    HW239245   3.774   2.827   1.551 -0.2430 -0.6627  0.0421
44470SOL     OW39246   5.724   0.223   1.237  0.0841 -0.6588 -0.2044
44470SOL    HW139247   5.809   0.224   1.195 -0.4777  2.0615 -1.5031
44470SOL    HW239248   5.667   0.273   1.178 -1.9936 -0.9629  1.4143
44471SOL     OW39249   8.091   7.614   8.558 -0.2066 -0.0660 -0.5281
44471SOL    HW139250   8.049   7.529   8.573 -1.3461  0.2911 -1.5340
44471SOL    HW239251   8.079   7.662   8.640  1.5099 -1.2672  0.4899
44472SOL     OW39252   6.705  11.777   0.571  0.1444 -0.1716 -0.3166
44472SOL    HW139253   6.790  11.737   0.557  0.5610  0.9937 -1.2955
44472SOL    HW239254   6.710  11.861   0.526 -0.6499  1.0585  1.7472
44473SOL     OW39255   5.556   6.381   6.449 -0.1225 -0.0357  0.6045
44473SOL    HW139256   5.469   6.408   6.419  0.1214  0.9314  0.7336
44473SOL    HW239257   5.576   6.301   6.399  0.7162  2.0137 -2.6093
44474SOL     OW39258   4.656   1.268  10.017 -0.4036  0.4963  0.4921
44474SOL    HW139259   4.724   1.332  10.000 -0.7411  0.2667 -2.0775
44474SOL    HW239260   4.697   1.184   9.996 -1.8236  0.4723 -2.7853
44475SOL     OW39261   7.152   0.940   8.340  0.1365  0.2240  0.0336
44475SOL    HW139262   7.129   1.033   8.340 -0.5914  0.0562 -1.0925
44475SOL    HW239263   7.098   0.902   8.271  1.1384 -0.8633 -0.1693
44476SOL     OW39264   7.594   9.660  10.313 -0.2264  0.5941  0.4779
44476SOL    HW139265   7.563   9.583  10.362  0.1476  0.1305  0.0089
44476SOL    HW239266   7.517   9.716  10.305 -0.0515  1.1955  2.5096
44477SOL     OW39267   8.208   0.902   1.590 -0.7734  0.1951  0.0857
44477SOL    HW139268   8.227   0.983   1.542 -1.7696  0.0041 -0.6548
44477SOL    HW239269   8.136   0.862   1.542 -0.9575 -0.6376  1.0252
44478SOL     OW39270   5.033   8.663   4.935 -0.3445 -0.3322 -0.1619
44478SOL    HW139271   5.004   8.674   4.845 -1.1685  0.9140  0.2285
44478SOL    HW239272   5.054   8.570   4.943 -1.6851 -0.7481 -1.2195
44479SOL     OW39273  10.469  11.417   1.582  0.4044 -0.1363  0.0993
44479SOL    HW139274  10.514  11.388   1.661 -1.1710 -1.1043  0.6827
44479SOL    HW239275  10.535  11.409   1.513  1.0366 -1.8725  0.8534
44480SOL     OW39276   9.257   7.008  11.117 -0.3526  0.1143  0.1374
44480SOL    HW139277   9.352   7.022  11.114  0.0296 -2.3241 -1.6314
44480SOL    HW239278   9.234   6.983  11.028 -2.3706 -1.0430  0.9370
44481SOL     OW39279   3.031   5.504   6.281  0.8063 -0.6591 -0.4939
44481SOL    HW139280   2.980   5.580   6.306  1.1007 -0.2722 -1.0543
44481SOL    HW239281   3.077   5.479   6.362  0.4546 -0.4536 -0.2240
44482SOL     OW39282   6.144   9.535   1.866  0.1349  0.3166  0.2464
44482SOL    HW139283   6.213   9.472   1.882  0.1425  0.5060  1.0133
44482SOL    HW239284   6.090   9.495   1.797  0.6843 -0.0782  0.0403
44483SOL     OW39285   2.031   4.321   9.371 -0.0388  0.0780 -0.1760
44483SOL    HW139286   1.981   4.310   9.290  0.8950  2.3679 -1.1489
44483SOL    HW239287   2.040   4.415   9.382  1.7050 -0.2018  1.4423
44484SOL     OW39288   6.245   6.087   0.199 -0.1763  0.0631 -0.4025
44484SOL    HW139289   6.192   6.058   0.273 -2.3777 -1.8134 -2.5191
44484SOL    HW239290   6.335   6.089   0.232 -0.6916 -3.3303  1.6538
44485SOL     OW39291   5.236   6.262   0.671 -0.1104 -0.2653  0.4653
44485SOL    HW139292   5.216   6.209   0.593  0.5881  0.3309 -0.1312
44485SOL    HW239293   5.161   6.320   0.680  1.4668  2.5119 -2.2261
44486SOL     OW39294   1.011   5.298   1.162 -0.2574  0.3649 -0.1387
44486SOL    HW139295   0.945   5.363   1.188  0.7363  1.8108 -1.0416
44486SOL    HW239296   1.073   5.348   1.108 -0.1037 -1.6092 -1.9115
44487SOL     OW39297   7.698   2.797   4.995  0.1574  0.5279 -0.8520
44487SOL    HW139298   7.603   2.795   5.004  0.0316  4.3691  0.9786
44487SOL    HW239299   7.730   2.741   5.066 -0.8363  1.8028  0.6844
44488SOL     OW39300  11.900   5.993   4.500  0.5078 -0.3881  0.0126
44488SOL    HW139301  11.845   5.948   4.564  1.4017 -0.6371  0.6329
44488SOL    HW239302  11.877   6.086   4.509 -0.7444 -0.6127 -0.6838
44489SOL     OW39303   4.449   6.864  11.739  0.1222 -0.3502 -0.0789
44489SOL    HW139304   4.426   6.886  11.829  1.9993  0.6501  0.2213
44489SOL    HW239305   4.431   6.944  11.690 -0.0055 -0.5825 -0.4107
44490SOL     OW39306   4.248   7.151   6.217  0.3133  0.0290 -0.3111
44490SOL    HW139307   4.162   7.110   6.209 -0.0177  0.9409 -1.7010
44490SOL    HW239308   4.307   7.078   6.238 -0.5657 -0.8538 -0.8032
44491SOL     OW39309  10.655   1.949   7.916 -0.2577 -0.2429 -0.3854
44491SOL    HW139310  10.661   2.032   7.868  0.5307 -0.3837 -0.5554
44491SOL    HW239311  10.664   1.973   8.008  1.4233 -0.2381 -0.5057
44492SOL     OW39312   5.239   2.276   1.469  0.1088  0.0693  0.0466
44492SOL    HW139313   5.250   2.336   1.395  1.6592 -1.3675 -0.9458
44492SOL    HW239314   5.326   2.267   1.506 -0.4672 -0.0669  1.4324
44493SOL     OW39315   5.607   6.002   1.948 -0.2924  0.1926  0.0654
44493SOL    HW139316   5.565   6.070   2.001  0.6621  0.8488 -0.0010
44493SOL    HW239317   5.567   6.011   1.861 -0.9147 -0.0212  0.3257
44494SOL     OW39318   4.817   0.454   1.513  0.0682  0.6098  0.0618
44494SOL    HW139319   4.852   0.367   1.536  0.6374  0.1445 -2.3057
44494SOL    HW239320   4.857   0.513   1.577  2.2385 -0.4357 -0.2395
44495SOL     OW39321   8.766   8.472   8.938  0.4278  0.2830 -0.0641
44495SOL    HW139322   8.701   8.443   9.001  2.3520 -2.9644  0.6835
44495SOL    HW239323   8.773   8.566   8.951 -2.2999  0.3580  1.4749
44496SOL     OW39324   5.906   8.954  10.077  0.2241 -0.0630 -0.2972
44496SOL    HW139325   5.877   8.864  10.086 -0.2172  0.0195 -0.8205
44496SOL    HW239326   5.932   8.981  10.165 -0.4937 -0.4089  0.0213
44497SOL     OW39327   8.152   7.960   4.124 -0.8649 -0.5976  0.6634
44497SOL    HW139328   8.120   8.004   4.203 -0.0517  1.5298 -0.1203
44497SOL    HW239329   8.245   7.982   4.120 -0.5873 -1.8039 -0.1956
44498SOL     OW39330   9.288   1.728   1.415 -0.3421  0.2940 -0.0604
44498SOL    HW139331   9.241   1.780   1.480  0.0216 -0.9556  1.2539
44498SOL    HW239332   9.223   1.712   1.346 -1.5400 -0.4150  1.1707
44499SOL     OW39333   4.955  10.186   1.239  0.1622 -0.0860  0.2733
44499SOL    HW139334   4.884  10.171   1.301 -0.8921 -0.6698 -1.0346
44499SOL    HW239335   4.934  10.131   1.164  1.5273  0.4171 -0.5140
44500SOL     OW39336   3.944   2.384  10.917 -0.3983  0.1325  0.3021
44500SOL    HW139337   3.889   2.460  10.933 -0.1133  0.6105 -0.8598
44500SOL    HW239338   3.902   2.313  10.966 -0.3965  1.1191  1.8052
44501SOL     OW39339   3.731   2.768   9.514 -0.1120 -0.3938 -0.1353
44501SOL    HW139340   3.688   2.830   9.455 -1.8656 -1.1577  0.2666
44501SOL    HW239341   3.801   2.729   9.462 -1.8870 -1.3698 -1.8979
44502SOL     OW39342   8.531   3.804  11.423  0.1195 -0.2198 -0.5475
44502SOL    HW139343   8.505   3.714  11.402 -1.1586  0.0719 -0.3058
44502SOL    HW239344   8.460   3.858  11.389  0.0543  0.5697  0.7915
44503SOL     OW39345   8.788  11.595   9.600 -0.6761  0.4783 -0.0315
44503SOL    HW139346   8.881  11.608   9.580 -0.1965 -0.7699  1.1963
44503SOL    HW239347   8.774  11.638   9.684 -1.2702  0.8205 -0.2957
44504SOL     OW39348   5.594  10.327   7.160 -0.0274  0.5989  0.4781
44504SOL    HW139349   5.545  10.256   7.119  1.2961  0.6684 -1.3504
44504SOL    HW239350   5.544  10.348   7.240 -0.5631 -2.2028  0.9846
44505SOL     OW39351   1.583  11.563  11.244  0.5729  0.9485  0.0143
44505SOL    HW139352   1.656  11.608  11.201  0.9118  0.7124  0.3318
44505SOL    HW239353   1.512  11.627  11.245  0.5538  0.9547 -0.9013
44506SOL     OW39354   2.870   3.358   1.299  0.8880 -0.3911 -0.3740
44506SOL    HW139355   2.859   3.275   1.251 -1.2405 -0.8611  0.8009
44506SOL    HW239356   2.932   3.336   1.369  0.4582 -0.9499 -0.1617
44507SOL     OW39357   6.683   6.939   0.144 -0.1690  0.2042 -0.1292
44507SOL    HW139358   6.608   6.972   0.193  1.6438  1.7684  1.8071
44507SOL    HW239359   6.714   7.014   0.093  2.5455  1.0255  2.4361
44508SOL     OW39360   5.855   4.752   7.391 -0.1321  0.0516 -0.0771
44508SOL    HW139361   5.897   4.668   7.372 -0.5522  0.0866 -1.2500
44508SOL    HW239362   5.761   4.732   7.394 -0.2426  0.4865 -0.4674
44509SOL     OW39363   4.247   9.769  10.283 -0.0916  0.1232  0.2641
44509SOL    HW139364   4.254   9.865  10.287 -2.3764  0.3249  1.4423
44509SOL    HW239365   4.297   9.739  10.359 -2.0055  0.6900  1.8614
44510SOL     OW39366   4.203   2.395   7.741  0.5076  0.5255  0.1904
44510SOL    HW139367   4.186   2.302   7.727  1.1961  0.4775 -0.3819
44510SOL    HW239368   4.150   2.439   7.675 -2.1686  0.7525  2.3083
44511SOL     OW39369   7.796   7.353   0.651 -0.1724 -0.6687  0.1867
44511SOL    HW139370   7.808   7.286   0.718  0.3228 -1.0851 -0.3103
44511SOL    HW239371   7.815   7.309   0.569 -1.6278 -0.3875 -0.3205
44512SOL     OW39372   1.405   0.671   0.729  0.2421 -0.0955 -0.0171
44512SOL    HW139373   1.496   0.652   0.754  0.4228  1.6951  0.8183
44512SOL    HW239374   1.382   0.601   0.669  2.0272 -0.8524  0.1200
44513SOL     OW39375   7.092   9.826  11.338  0.0713  0.1175  0.2536
44513SOL    HW139376   7.025   9.831  11.407 -1.4049 -1.7107 -0.9289
44513SOL    HW239377   7.063   9.890  11.273 -1.1328 -1.2639 -0.6564
44514SOL     OW39378   1.808   1.668   1.268 -0.5537  0.1619 -0.0116
44514SOL    HW139379   1.777   1.711   1.347  0.7394  1.4566 -0.1663
44514SOL    HW239380   1.789   1.575   1.282 -2.5253  0.6393  0.7552
44515SOL     OW39381   3.688   7.221   7.452  0.0293 -0.0756 -0.0799
44515SOL    HW139382   3.775   7.191   7.478  0.5265 -0.1796 -1.7455
44515SOL    HW239383   3.668   7.172   7.372 -2.3492 -1.3916  1.1942
44516SOL     OW39384   1.829   6.824   6.297  0.6624  0.1202 -0.3926
44516SOL    HW139385   1.902   6.854   6.242  0.0493 -0.6524 -1.6754
44516SOL    HW239386   1.807   6.738   6.262 -0.8615  0.3406 -0.0373
44517SOL     OW39387   8.692   2.506   3.025 -0.3169  0.0779  0.2369
44517SOL    HW139388   8.728   2.592   3.043  0.3437 -0.1025 -0.2190
44517SOL    HW239389   8.731   2.479   2.942 -3.0264  0.7496 -1.3841
44518SOL     OW39390  11.284   0.260   9.419  0.4760  0.2330 -0.5148
44518SOL    HW139391  11.208   0.315   9.404  0.2907 -0.4902 -2.5153
44518SOL    HW239392  11.275   0.231   9.510 -1.4984  0.3677 -0.6288
44519SOL     OW39393   8.352   0.437   5.020 -0.3405 -0.2283  0.2598
44519SOL    HW139394   8.401   0.424   4.939 -0.2728 -0.0141  0.2648
44519SOL    HW239395   8.278   0.493   4.994 -2.4329 -3.0745 -0.4466
44520SOL     OW39396   8.559   4.899   4.838  0.4904  0.3247 -0.5102
44520SOL    HW139397   8.638   4.884   4.787  0.5019  0.2908 -0.4825
44520SOL    HW239398   8.487   4.877   4.778  0.4714  1.2300 -0.8362
44521SOL     OW39399   9.807   3.918   0.470 -0.9137 -0.2078  0.0454
44521SOL    HW139400   9.776   3.893   0.557 -0.1471  0.3673  0.5007
44521SOL    HW239401   9.752   3.869   0.409  0.6893 -3.3340  0.8855
44522SOL     OW39402   7.293  11.875   4.087  0.2159  0.1253 -0.2430
44522SOL    HW139403   7.353  11.881   4.012  0.6060 -0.2166  0.0412
44522SOL    HW239404   7.326  11.802   4.139 -0.1168  0.2957  0.2131
44523SOL     OW39405   1.037  11.424  12.204 -0.4105  0.2280 -0.0086
44523SOL    HW139406   1.084  11.360  12.257  0.5655  1.7983  1.1124
44523SOL    HW239407   1.100  11.450  12.136 -0.9421 -0.2739 -0.7077
44524SOL     OW39408   3.048   7.547  10.426  0.0837  0.0584  0.0617
44524SOL    HW139409   3.035   7.583  10.338  2.4210  0.1622 -0.2869
44524SOL    HW239410   3.065   7.454  10.412  1.7924  0.3213  0.2542
44525SOL     OW39411   1.834   6.371   9.992 -0.0728  0.4831  0.3356
44525SOL    HW139412   1.827   6.464  10.011 -1.8070  0.5934 -0.6575
44525SOL    HW239413   1.760   6.331  10.037  0.5567 -0.4149  0.6180
44526SOL     OW39414   5.158   8.967   2.542 -0.1637 -0.0416 -0.2886
44526SOL    HW139415   5.070   8.936   2.523 -0.7425  1.5998 -0.5125
44526SOL    HW239416   5.171   9.039   2.480  0.8200  0.5702  0.5971
44527SOL     OW39417  12.026   1.664   2.120 -0.0262 -0.5602  0.0303
44527SOL    HW139418  11.956   1.645   2.183  0.3094  1.0148  0.9256
44527SOL    HW239419  11.990   1.735   2.066  1.8135  2.3631  2.3424
44528SOL     OW39420   0.606   2.102   7.103 -0.2297 -0.3255 -0.6300
44528SOL    HW139421   0.695   2.101   7.140 -0.8023  0.1118  0.8280
44528SOL    HW239422   0.549   2.083   7.177 -1.6467  3.2728 -0.5680
44529SOL     OW39423   9.137   2.202   4.899 -0.5230  0.7755 -0.3465
44529SOL    HW139424   9.228   2.212   4.872 -0.2810  2.3761  0.8823
44529SOL    HW239425   9.086   2.224   4.821  0.1337  0.1768 -0.9564
44530SOL     OW39426  11.431   3.323  11.168  0.4451 -0.1281  0.1991
44530SOL    HW139427  11.472   3.322  11.254  1.2527  0.7751 -0.1624
44530SOL    HW239428  11.379   3.404  11.167  0.0111 -0.4076  0.0393
44531SOL     OW39429   7.797   3.341   0.605  0.2789  0.0241 -0.4935
44531SOL    HW139430   7.862   3.272   0.590  0.5298  0.2279 -0.3648
44531SOL    HW239431   7.790   3.347   0.700 -0.6161 -0.6289 -0.5174
44532SOL     OW39432   6.473   6.398   0.151  0.5178 -0.1897  0.2847
44532SOL    HW139433   6.482   6.457   0.225  1.1560 -1.8646  1.6050
44532SOL    HW239434   6.406   6.335   0.178 -0.8102  0.3856 -1.4508
44533SOL     OW39435  11.102   8.205   0.996 -0.0078 -0.6056  0.1947
44533SOL    HW139436  11.104   8.278   0.934  0.0682 -0.2946  0.5558
44533SOL    HW239437  11.186   8.162   0.985  0.3399 -0.0571  0.6563
44534SOL     OW39438  12.301   5.443   6.950 -0.3521 -0.1175  0.3788
44534SOL    HW139439  12.291   5.366   7.006  0.4799  0.1680  0.9324
44534SOL    HW239440  12.267   5.516   7.003  0.8205  0.2183  0.6834
44535SOL     OW39441   2.773  11.196  10.068 -0.4527  0.0559 -0.6981
44535SOL    HW139442   2.785  11.183   9.974  0.7032  2.3347 -0.9426
44535SOL    HW239443   2.840  11.142  10.109 -0.1199  0.0332 -1.2614
44536SOL     OW39444   0.479   0.576   5.951  0.3383 -0.4013 -0.0338
44536SOL    HW139445   0.500   0.624   6.031 -0.0413  0.6123 -0.5283
44536SOL    HW239446   0.412   0.628   5.908  0.8881 -0.6629 -1.2677
44537SOL     OW39447  10.190   2.976   5.938  0.4513  1.1111 -0.0550
44537SOL    HW139448  10.246   2.902   5.963 -1.6239 -0.4578  0.2096
44537SOL    HW239449  10.170   3.019   6.022 -0.0345  0.6867  0.0515
44538SOL     OW39450   6.624  12.162   2.636 -0.0092  0.4473 -0.1849
44538SOL    HW139451   6.616  12.241   2.583 -1.2353  1.1243  0.9394
44538SOL    HW239452   6.667  12.098   2.579 -1.9870  0.8673 -2.2610
44539SOL     OW39453   4.945   1.311   0.484 -0.0574 -0.2071 -0.3577
44539SOL    HW139454   5.021   1.302   0.426 -0.2186  3.2012 -1.3225
44539SOL    HW239455   4.967   1.384   0.542 -1.2097 -1.4787  1.8137
44540SOL     OW39456   2.921   8.782   1.254 -0.3272  0.5546 -0.3326
44540SOL    HW139457   2.973   8.723   1.199 -0.5400 -0.8401  0.8853
44540SOL    HW239458   2.986   8.838   1.297  0.0436 -0.0299 -0.1184
44541SOL     OW39459  12.294   0.890  10.775 -0.1139  0.0731 -0.0626
44541SOL    HW139460  12.250   0.968  10.741 -0.3421 -0.5513 -1.2362
44541SOL    HW239461  12.226   0.841  10.819  0.4527  1.6069  2.7922
44542SOL     OW39462   4.770  11.183  11.865 -0.1565  0.0671  0.5975
44542SOL    HW139463   4.728  11.105  11.828 -2.5830  0.4459  2.3705
44542SOL    HW239464   4.842  11.148  11.918 -1.2125 -1.0004  1.3706
44543SOL     OW39465   6.941   3.576  11.874 -0.1364 -0.2175 -0.3876
44543SOL    HW139466   6.942   3.597  11.968  1.1690  0.0452 -0.4423
44543SOL    HW239467   6.863   3.621  11.841  0.1223  0.8114  0.3355
44544SOL     OW39468   1.104   7.256   2.719 -0.3006 -0.7665 -0.8893
44544SOL    HW139469   1.011   7.234   2.716 -0.3851 -0.8861  1.1090
44544SOL    HW239470   1.105   7.351   2.733 -0.0557 -0.5209 -2.3659
44545SOL     OW39471  11.493  11.541  11.842  0.0522 -0.5462  0.1406
44545SOL    HW139472  11.438  11.549  11.920  1.4700 -0.1055  1.1402
44545SOL    HW239473  11.466  11.613  11.786  0.0546  0.0711  0.9083
44546SOL     OW39474  10.738   7.576  12.174  0.1435 -0.3132 -0.2707
44546SOL    HW139475  10.704   7.626  12.248  0.3271 -1.8463  0.9130
44546SOL    HW239476  10.812   7.627  12.143 -0.8492  1.1141 -0.3916
44547SOL     OW39477  11.049  11.046   5.911 -0.5956  0.3631 -0.1395
44547SOL    HW139478  11.024  11.066   5.821  2.0406  2.2754 -0.5660
44547SOL    HW239479  11.141  11.021   5.906 -0.1049  1.4344  2.1106
44548SOL     OW39480  10.492   8.868  11.815 -0.2473  0.5122  0.0651
44548SOL    HW139481  10.571   8.834  11.855 -1.1706 -0.0711  1.4439
44548SOL    HW239482  10.503   8.963  11.818  1.0240  0.4364 -1.1143
44549SOL     OW39483   1.488   3.713   0.695 -0.3081  0.1909 -0.2457
44549SOL    HW139484   1.514   3.624   0.674 -0.1376  0.2282 -0.1928
44549SOL    HW239485   1.562   3.749   0.745 -0.0738  0.5983 -0.8804
44550SOL     OW39486   9.731   3.961   1.434 -0.2588  0.0710  0.1318
44550SOL    HW139487   9.659   3.915   1.392 -0.9766  0.2611  1.1025
44550SOL    HW239488   9.764   3.899   1.500 -0.9850  0.7656  1.1884
44551SOL     OW39489   5.396   9.631  12.324 -0.3333  0.0997  0.0198
44551SOL    HW139490   5.457   9.565  12.355 -1.3631 -0.3223  1.2411
44551SOL    HW239491   5.450   9.709  12.310  0.6251 -0.5254  0.1703
44552SOL     OW39492   3.917   1.647   6.742  0.1193  0.1701  0.3040
44552SOL    HW139493   3.891   1.729   6.783 -1.6997 -0.2408  0.0996
44552SOL    HW239494   3.875   1.579   6.796  0.2777 -0.5240 -0.4247
44553SOL     OW39495  10.531   8.970   6.256 -0.0873 -0.0257  1.0195
44553SOL    HW139496  10.454   9.003   6.302 -0.0383  2.4698 -0.4850
44553SOL    HW239497  10.496   8.925   6.179 -0.1288  0.8665  0.4864
44554SOL     OW39498   6.505   4.328   5.253  0.1157 -0.6327  0.2844
44554SOL    HW139499   6.420   4.371   5.262  0.5452  0.6726 -1.3003
44554SOL    HW239500   6.554   4.356   5.330  0.1729  1.3465 -0.3992
44555SOL     OW39501   9.074   7.660   1.533  0.5940  0.1573 -0.0975
44555SOL    HW139502   9.116   7.574   1.535  1.4790  0.5725 -0.3330
44555SOL    HW239503   9.108   7.702   1.453 -1.0380  0.1359 -0.8377
44556SOL     OW39504   9.033   6.605   3.189  0.3101 -0.8896  0.3166
44556SOL    HW139505   9.076   6.544   3.130  0.7240 -0.9758  0.7032
44556SOL    HW239506   8.950   6.626   3.146 -0.4336 -2.7223  0.7851
44557SOL     OW39507   5.913   2.315   6.987 -0.1517  0.1065  0.0016
44557SOL    HW139508   6.005   2.330   6.966  0.0121 -0.0672  0.5566
44557SOL    HW239509   5.892   2.231   6.946 -0.3868  0.6758 -1.0693
44558SOL     OW39510   9.835   0.889   3.845  0.1513  0.1382  0.0519
44558SOL    HW139511   9.825   0.923   3.757  0.8126 -0.2939 -0.1989
44558SOL    HW239512   9.774   0.816   3.850 -0.6345  0.7976  0.3024
44559SOL     OW39513  10.853  10.791  12.059 -0.1902 -0.1883  0.3523
44559SOL    HW139514  10.908  10.736  12.004  0.0404  1.0843 -0.7303
44559SOL    HW239515  10.834  10.737  12.135  0.2724 -1.6520 -0.5292
44560SOL     OW39516   1.323   5.372   5.577 -0.2941 -0.5667  0.0615
44560SOL    HW139517   1.297   5.462   5.560  0.5812 -0.1734  0.7311
44560SOL    HW239518   1.315   5.362   5.672  2.1668 -0.3262  0.3683
44561SOL     OW39519   2.884   5.239   5.558  0.2763 -0.2803 -0.2148
44561SOL    HW139520   2.922   5.213   5.642  2.5991  0.6250 -0.9337
44561SOL    HW239521   2.878   5.157   5.509  2.1344 -0.3643 -0.3683
44562SOL     OW39522   2.528   9.812   3.308 -0.3394  0.1441  0.8274
44562SOL    HW139523   2.507   9.768   3.390  0.7970  0.5149  1.3474
44562SOL    HW239524   2.624   9.813   3.306 -0.3260  2.2455  0.6679
44563SOL     OW39525   4.445   6.589  11.949  0.0854 -0.0862  0.1651
44563SOL    HW139526   4.438   6.510  12.002 -1.6602 -0.8533 -1.1277
44563SOL    HW239527   4.397   6.569  11.869 -0.4267  2.2734 -0.2007
44564SOL     OW39528  11.521   8.622   7.064 -0.1803  0.6629 -0.1719
44564SOL    HW139529  11.614   8.612   7.081 -0.1475 -1.0432 -1.1917
44564SOL    HW239530  11.516   8.677   6.986 -0.0080  0.3205 -0.4244
44565SOL     OW39531   3.226   4.838   2.545  0.1109  0.4688  0.0545
44565SOL    HW139532   3.233   4.886   2.463  0.9909  1.5698  0.7511
44565SOL    HW239533   3.140   4.861   2.580  0.3822  1.2724  0.2072
44566SOL     OW39534   6.321   6.837   9.471 -0.4554 -0.0914 -1.1640
44566SOL    HW139535   6.373   6.765   9.436 -1.2626 -0.0520 -2.5019
44566SOL    HW239536   6.377   6.914   9.462  0.6868 -0.5930  0.9144
44567SOL     OW39537   7.572   1.484  10.652  0.1385 -0.6298 -0.0707
44567SOL    HW139538   7.528   1.562  10.685 -0.7794 -1.2685  0.2384
44567SOL    HW239539   7.527   1.463  10.570 -0.1027 -1.2411  0.2072
44568SOL     OW39540   7.198   6.158   6.510  0.0113 -0.6161  0.1738
44568SOL    HW139541   7.272   6.103   6.537 -1.5030 -3.1641 -0.5743
44568SOL    HW239542   7.206   6.163   6.414  0.9412  1.8249  0.2986
44569SOL     OW39543   4.092  11.622   1.797 -0.1604  0.1831 -0.0415
44569SOL    HW139544   4.006  11.598   1.831 -0.1052  1.9487  1.5336
44569SOL    HW239545   4.082  11.712   1.765  1.1456  0.5405  0.4658
44570SOL     OW39546   8.612   3.484  11.945  0.1399 -0.1181  0.2257
44570SOL    HW139547   8.692   3.435  11.960 -0.1120 -0.9597 -1.0632
44570SOL    HW239548   8.619   3.560  12.003  1.6771 -0.3805  0.4118
44571SOL     OW39549   9.119   7.797   8.756 -0.1227 -0.0179  0.0885
44571SOL    HW139550   9.137   7.889   8.735  0.1889  0.0291  0.5578
44571SOL    HW239551   9.036   7.799   8.803 -1.3507 -0.2174 -1.9185
44572SOL     OW39552  11.050   1.795   2.908 -1.2346  0.6498  0.3504
44572SOL    HW139553  11.107   1.859   2.867 -1.2138  0.8926  0.7527
44572SOL    HW239554  11.097   1.768   2.987 -1.8105  1.1004  0.8650
44573SOL     OW39555   7.571  10.233   5.789 -0.1161  0.1613 -0.5043
44573SOL    HW139556   7.517  10.186   5.853  1.4645  0.9535  1.5410
44573SOL    HW239557   7.545  10.198   5.704 -3.1726 -0.1049  0.4400
44574SOL     OW39558  10.877   5.348   2.391  0.3269 -0.7634  0.9489
44574SOL    HW139559  10.792   5.355   2.433 -0.9878 -1.1512 -1.4554
44574SOL    HW239560  10.880   5.424   2.332  1.9050 -0.4574  1.3804
44575SOL     OW39561  10.451   7.682   1.677 -0.1690 -0.0242 -0.3709
44575SOL    HW139562  10.360   7.653   1.684  0.4261 -2.0910 -0.5835
44575SOL    HW239563  10.495   7.612   1.629  1.4731  1.1078 -0.6016
44576SOL     OW39564   1.699   5.633   8.292 -0.0489 -0.2670 -0.0921
44576SOL    HW139565   1.697   5.664   8.202 -1.7383  2.6212  0.8213
44576SOL    HW239566   1.620   5.579   8.301 -0.0861 -0.2334 -0.2197
44577SOL     OW39567  10.909   4.839  10.906  0.2366 -0.1244  0.4456
44577SOL    HW139568  11.002   4.845  10.927  1.3127 -6.8690 -0.3802
44577SOL    HW239569  10.866   4.823  10.990 -0.2243  2.1288  0.7083
44578SOL     OW39570  11.807   6.328   3.359  0.1850 -0.0531  0.4966
44578SOL    HW139571  11.863   6.271   3.412  0.3324  0.3113  0.7331
44578SOL    HW239572  11.742   6.361   3.421  0.7801  0.9341  0.6094
44579SOL     OW39573   8.766   6.493   6.173 -0.1321  0.0729 -0.4434
44579SOL    HW139574   8.744   6.425   6.110 -0.4045  0.5398 -0.8638
44579SOL    HW239575   8.804   6.563   6.120 -2.0170  1.2259 -0.3884
44580SOL     OW39576   8.550   8.239   3.510 -0.3722  0.1720 -0.5520
44580SOL    HW139577   8.486   8.182   3.553  0.4635 -0.8675 -0.6344
44580SOL    HW239578   8.552   8.208   3.420 -0.1547  0.5687 -0.6855
44581SOL     OW39579   8.509   0.813   1.411  0.4910  0.5324 -0.2180
44581SOL    HW139580   8.448   0.799   1.484 -0.9483  0.4127 -1.3826
44581SOL    HW239581   8.582   0.861   1.449  0.9610 -1.6169  1.8233
44582SOL     OW39582   6.430   3.218   8.965 -0.2543 -0.0365 -0.0754
44582SOL    HW139583   6.504   3.164   8.938 -0.1485  0.3351 -0.5313
44582SOL    HW239584   6.379   3.161   9.022 -0.2555 -0.6844 -0.7114
44583SOL     OW39585   7.152  12.212  10.368 -0.0472 -0.6477  0.6957
44583SOL    HW139586   7.181  12.139  10.313 -0.4502 -2.5320  2.8493
44583SOL    HW239587   7.230  12.236  10.419 -0.0699  0.0760  0.4064
44584SOL     OW39588   9.006   7.907   9.429  0.7953 -0.3475  0.4145
44584SOL    HW139589   9.026   7.816   9.450  2.5708 -0.2061 -0.4274
44584SOL    HW239590   8.995   7.907   9.334 -0.7856  0.0742  0.5699
44585SOL     OW39591   4.501   4.716   8.354  0.1067  0.0848 -0.1977
44585SOL    HW139592   4.539   4.639   8.396  0.4586 -0.1153 -0.8720
44585SOL    HW239593   4.447   4.682   8.283  1.3765  0.4875 -1.4027
44586SOL     OW39594   5.593   5.886  11.977  0.1170  0.3183 -0.8956
44586SOL    HW139595   5.549   5.969  11.996  0.4557  0.6221 -1.4155
44586SOL    HW239596   5.661   5.879  12.045 -0.7443 -0.1800 -0.0591
44587SOL     OW39597   5.964   1.606   1.740 -0.4605  0.1886  0.3474
44587SOL    HW139598   5.975   1.677   1.677 -0.4535  0.7345  0.9503
44587SOL    HW239599   5.976   1.526   1.689  0.6532  0.6347 -0.1240
44588SOL     OW39600   6.034  11.092   4.312  0.2739 -0.0378  0.3400
44588SOL    HW139601   6.128  11.077   4.302  0.2837  0.7110 -1.0003
44588SOL    HW239602   6.027  11.156   4.383  0.7585 -0.2255  0.5593
44589SOL     OW39603   9.039  11.053  11.931  0.4349  0.2026 -0.1281
44589SOL    HW139604   9.076  11.019  12.012  1.2776  0.9357 -0.1910
44589SOL    HW239605   9.045  11.148  11.939  0.5813  0.2847 -1.0594
44590SOL     OW39606  11.800  10.754   2.626 -0.0279  0.0252 -0.5131
44590SOL    HW139607  11.836  10.843   2.625  0.6233 -0.2312 -1.8252
44590SOL    HW239608  11.846  10.711   2.698  0.0160  0.5981 -0.1912
44591SOL     OW39609   8.360   7.368  11.627 -0.0611  0.3832  0.2371
44591SOL    HW139610   8.416   7.437  11.593 -1.0731  1.1652  0.1347
44591SOL    HW239611   8.347   7.308  11.554 -1.2504  1.4267 -0.4281
44592SOL     OW39612   9.219   0.548   4.788 -0.0609 -0.0231  0.0790
44592SOL    HW139613   9.293   0.590   4.743  0.2992  0.3468  1.0021
44592SOL    HW239614   9.145   0.605   4.771  0.0046 -0.0377 -0.2762
44593SOL     OW39615   2.828   3.717   4.228 -0.1414 -0.2066 -0.2170
44593SOL    HW139616   2.750   3.720   4.282 -0.2533 -0.1304 -0.3816
44593SOL    HW239617   2.862   3.807   4.230 -0.1438 -0.2042 -0.2696
44594SOL     OW39618   6.375   2.706   1.714 -0.8065  0.3031 -0.1687
44594SOL    HW139619   6.353   2.615   1.735 -0.9660  0.8087  2.0308
44594SOL    HW239620   6.423   2.700   1.631  0.5014 -1.9555  0.6550
44595SOL     OW39621   7.772   2.087   8.909 -0.0716 -0.2695  0.6695
44595SOL    HW139622   7.832   2.056   8.841  1.5360  0.1663  1.8105
44595SOL    HW239623   7.762   2.012   8.968  0.1176 -0.0593  0.9752
44596SOL     OW39624  11.937   2.008   3.206 -0.2032  0.2343  0.0419
44596SOL    HW139625  11.985   1.986   3.286 -2.8110  0.3436  1.7530
44596SOL    HW239626  11.981   2.087   3.173  0.4233  0.6984  1.8695
44597SOL     OW39627   0.206   2.888   6.133 -0.3155 -0.5058 -0.1835
44597SOL    HW139628   0.245   2.959   6.083 -1.3158  0.8809  0.9291
44597SOL    HW239629   0.273   2.864   6.197  0.5386 -1.5314 -1.4104
44598SOL     OW39630   7.529   4.201   7.701 -0.3755 -0.0472 -0.8716
44598SOL    HW139631   7.469   4.142   7.748  1.2912 -2.1290 -1.2113
44598SOL    HW239632   7.528   4.170   7.611  0.8356  0.2026 -0.9845
44599SOL     OW39633   3.875   5.743   7.113 -0.1582 -0.1601 -0.3273
44599SOL    HW139634   3.837   5.656   7.121  0.0746 -0.4777 -2.1493
44599SOL    HW239635   3.864   5.783   7.199 -0.9048 -1.7285  0.3315
44600SOL     OW39636   9.635  11.791   5.531  0.4486  0.1994  0.7007
44600SOL    HW139637   9.715  11.739   5.522  1.2503  1.1529  1.9777
44600SOL    HW239638   9.603  11.803   5.442  2.1707  0.4825  0.0974
44601SOL     OW39639   6.873   4.827   7.224  0.3881  0.3082 -0.5892
44601SOL    HW139640   6.794   4.793   7.266  0.7917  1.0578  0.8777
44601SOL    HW239641   6.841   4.893   7.163 -0.1115  1.6400  1.0245
44602SOL     OW39642   2.694  11.029   3.624 -0.1745 -0.6930 -0.3330
44602SOL    HW139643   2.720  10.960   3.563  0.1765 -1.0304  0.1935
44602SOL    HW239644   2.604  11.007   3.648 -0.2656 -0.6379 -0.6146
44603SOL     OW39645   5.839  12.274   6.496  0.5292  0.1107  0.2736
44603SOL    HW139646   5.761  12.220   6.509  1.7541 -1.1983  3.0657
44603SOL    HW239647   5.904  12.213   6.463  0.6155  1.0404 -1.3571
44604SOL     OW39648   7.732   8.764   8.556  0.1592  0.8616  0.5942
44604SOL    HW139649   7.708   8.674   8.534  1.2911  0.3512  1.3453
44604SOL    HW239650   7.692   8.818   8.487  1.4921 -0.4284 -1.2783
44605SOL     OW39651  11.530   9.660   2.919 -0.0919 -0.6630 -0.1681
44605SOL    HW139652  11.512   9.642   3.011  0.8384  1.1602  0.4179
44605SOL    HW239653  11.574   9.745   2.919 -1.1651 -0.0155 -2.4007
44606SOL     OW39654   0.799  11.064   7.862 -0.0412  0.3629 -0.2000
44606SOL    HW139655   0.795  11.034   7.953  1.6794  0.2753 -0.1328
44606SOL    HW239656   0.796  11.159   7.868  0.8711  0.3848  0.0113
44607SOL     OW39657   8.539   9.990   3.766 -0.3507  0.1964 -0.9277
44607SOL    HW139658   8.454  10.033   3.760 -0.7041 -0.4529 -0.6361
44607SOL    HW239659   8.585  10.038   3.835 -0.0265  1.2998 -1.8910
44608SOL     OW39660  10.312   0.775   5.156 -0.5765  0.0023  0.3783
44608SOL    HW139661  10.400   0.806   5.134 -0.9667 -1.0261 -3.3768
44608SOL    HW239662  10.254   0.845   5.125 -1.1906  0.6111  2.6880
44609SOL     OW39663  10.060   7.288   1.244 -1.1248 -0.9263 -0.6643
44609SOL    HW139664  10.111   7.337   1.181 -0.5224  2.8631  2.3811
44609SOL    HW239665   9.969   7.303   1.220 -0.9034 -0.9732 -1.5457
44610SOL     OW39666   4.811   3.139   5.243 -0.2375 -0.3619 -0.1452
44610SOL    HW139667   4.752   3.067   5.267  0.9931 -1.3748 -0.0332
44610SOL    HW239668   4.856   3.161   5.325 -0.0526  0.0132 -0.3455
44611SOL     OW39669   0.399   9.802   7.356 -0.1552  0.0425 -0.2280
44611SOL    HW139670   0.363   9.730   7.304 -1.9972  0.2464  0.7017
44611SOL    HW239671   0.470   9.763   7.406 -2.4954 -1.7670  1.9291
44612SOL     OW39672  11.891   0.262   9.301 -0.1450 -0.0297 -0.3775
44612SOL    HW139673  11.954   0.197   9.332  1.0769  1.0481 -0.5715
44612SOL    HW239674  11.881   0.322   9.374 -1.6207 -0.6418 -0.0330
44613SOL     OW39675  10.781   1.801   2.286  0.0528  0.0116 -0.3630
44613SOL    HW139676  10.711   1.778   2.346  1.4404 -2.9471  0.2943
44613SOL    HW239677  10.861   1.778   2.332  1.3223  0.3713 -2.2561
44614SOL     OW39678   1.712  12.211   7.821  0.0395  1.0186  0.1446
44614SOL    HW139679   1.742  12.166   7.899  3.2785  1.3719 -0.7531
44614SOL    HW239680   1.661  12.145   7.773  1.5271 -0.5272  0.6047
44615SOL     OW39681   7.647  10.074   4.154 -0.2212 -0.1017  0.8241
44615SOL    HW139682   7.728  10.120   4.135  1.8723 -3.8999 -0.4761
44615SOL    HW239683   7.670  10.013   4.225 -1.0116 -3.0688 -1.2449
44616SOL     OW39684   0.493   9.123   7.239  0.2736  0.0026  0.0373
44616SOL    HW139685   0.523   9.033   7.232 -0.0018 -0.1393  0.6182
44616SOL    HW239686   0.501   9.144   7.332 -0.3127  0.3416  0.0161
44617SOL     OW39687   4.918   6.953   0.010  0.0334 -0.0455  0.4822
44617SOL    HW139688   4.858   7.028   0.013  1.1085  0.9034 -0.6944
44617SOL    HW239689   5.000   6.989  -0.023  0.6941 -1.6882  0.2432
44618SOL     OW39690   8.167   0.320   3.929  0.2330  0.0057  0.0111
44618SOL    HW139691   8.089   0.369   3.902 -0.3663 -0.8721  0.1366
44618SOL    HW239692   8.215   0.381   3.985 -0.6701  0.3393  0.4350
44619SOL     OW39693   5.914   3.223   8.986 -0.1289  0.0559  0.2419
44619SOL    HW139694   5.860   3.163   8.935  0.5111 -0.6492  0.3609
44619SOL    HW239695   5.903   3.308   8.944  1.3559 -0.7190 -1.9215
44620SOL     OW39696  11.127  12.106  11.118 -0.5498 -0.0891  0.3455
44620SOL    HW139697  11.081  12.028  11.150  0.7609 -0.8911  0.3671
44620SOL    HW239698  11.217  12.076  11.106 -0.7713  0.3029 -3.4423
44621SOL     OW39699   1.187   2.966   3.141  0.3502  0.5296  0.2335
44621SOL    HW139700   1.133   3.021   3.084  0.3715  0.4533  0.1395
44621SOL    HW239701   1.134   2.953   3.219  0.7044  1.4392  0.6426
44622SOL     OW39702   2.878   2.568  11.446 -0.1426  0.4670  0.0021
44622SOL    HW139703   2.973   2.579  11.453  0.0854  1.8048 -3.3654
44622SOL    HW239704   2.866   2.493  11.388 -1.1061  1.1870 -0.7547
44623SOL     OW39705  10.019   0.753   3.218  0.0834  0.2604 -0.2289
44623SOL    HW139706   9.931   0.751   3.255  0.6963 -0.3214  1.2471
44623SOL    HW239707  10.024   0.675   3.163 -0.2773  0.2384 -0.2311
44624SOL     OW39708   1.079   5.217   0.800 -0.3440 -0.5462  0.2335
44624SOL    HW139709   0.996   5.176   0.823 -0.5163 -0.7914 -0.7916
44624SOL    HW239710   1.066   5.310   0.818 -1.1618 -0.4521 -0.7547
44625SOL     OW39711  10.642   7.011   5.513  0.9613 -0.7646  1.0966
44625SOL    HW139712  10.647   6.943   5.446 -0.3878 -1.2913  1.4923
44625SOL    HW239713  10.615   7.090   5.466 -0.5579 -1.2677  1.0535
44626SOL     OW39714   1.026   3.815   5.703  0.0317 -0.1950  0.0474
44626SOL    HW139715   1.056   3.906   5.704  2.4119 -0.9139  1.7274
44626SOL    HW239716   1.071   3.775   5.629  0.5711 -0.4465  0.4985
44627SOL     OW39717  10.504   5.740   3.168  0.0015  0.8963  0.1759
44627SOL    HW139718  10.498   5.701   3.255  2.2950 -0.6934 -0.2789
44627SOL    HW239719  10.452   5.682   3.112 -0.5926  1.3045  0.3022
44628SOL     OW39720  12.142  10.400   9.121  0.0810  0.8540 -0.6017
44628SOL    HW139721  12.169  10.328   9.178  0.3817  1.0096 -0.5470
44628SOL    HW239722  12.176  10.479   9.164 -0.6016  1.0684 -0.4482
44629SOL     OW39723  10.089   1.273  11.960  0.5257  0.1933  0.0330
44629SOL    HW139724  10.067   1.208  12.026  1.7693  0.4435  0.7120
44629SOL    HW239725  10.060   1.356  11.997 -0.3434  0.1401 -0.4952
44630SOL     OW39726   8.066   7.866   4.497 -0.4056 -0.2842  0.3673
44630SOL    HW139727   8.154   7.846   4.466 -1.1240 -1.6161 -0.9792
44630SOL    HW239728   8.009   7.807   4.447 -2.0295  0.2680  1.4688
44631SOL     OW39729   7.317   7.662   1.869  0.9518  0.4049  0.1418
44631SOL    HW139730   7.392   7.722   1.871  0.8740  0.5850 -1.3509
44631SOL    HW239731   7.308   7.637   1.777 -0.2101 -0.4031  0.4465
44632SOL     OW39732   3.208  11.622   9.046  0.1252 -0.5631  0.1566
44632SOL    HW139733   3.287  11.673   9.027 -0.2215 -0.1183 -0.1242
44632SOL    HW239734   3.203  11.559   8.975 -0.5769  0.3875 -0.6644
44633SOL     OW39735   1.449   2.556  10.069 -0.5500 -0.6779 -0.1714
44633SOL    HW139736   1.443   2.596   9.982  0.4985  0.0632  0.0901
44633SOL    HW239737   1.530   2.505  10.066  0.3353  0.6273  0.8840
44634SOL     OW39738   1.100   2.176   7.644 -0.9777 -0.0860 -0.1181
44634SOL    HW139739   1.090   2.133   7.559  0.6320 -0.2454 -0.2410
44634SOL    HW239740   1.070   2.266   7.630 -0.8440 -0.1469 -0.8048
44635SOL     OW39741   0.284   3.059   6.481 -0.5196  0.2533  0.3553
44635SOL    HW139742   0.263   3.134   6.424 -0.7285  0.1624  0.3113
44635SOL    HW239743   0.207   3.051   6.538 -0.9761 -0.6073 -0.3599
44636SOL     OW39744  12.251   9.990  10.260  0.0932  0.6414 -0.5675
44636SOL    HW139745  12.302  10.068  10.283  0.4788  0.1056  0.5159
44636SOL    HW239746  12.314   9.918  10.269 -1.4816 -0.4874  4.1780
44637SOL     OW39747   8.622   2.385  12.316  0.3759  0.4147  0.4174
44637SOL    HW139748   8.624   2.290  12.305  1.2369  0.4249  0.4379
44637SOL    HW239749   8.634   2.420  12.227 -0.8047  0.5213  0.2762
44638SOL     OW39750   2.291   6.610   8.619 -0.0783  0.0746  0.4480
44638SOL    HW139751   2.301   6.515   8.622  0.9606  0.1643  0.1876
44638SOL    HW239752   2.347   6.642   8.689  2.2467  0.6432 -1.5453
44639SOL     OW39753   5.386   0.696  11.833 -0.4585  0.6571 -0.0697
44639SOL    HW139754   5.414   0.786  11.851  0.3142  0.5424 -0.6547
44639SOL    HW239755   5.308   0.684  11.887 -0.3354  1.5444  0.3217
44640SOL     OW39756   9.591   1.048   1.156 -0.0314  0.3555  0.4064
44640SOL    HW139757   9.684   1.050   1.177 -0.4025 -2.2709  2.8971
44640SOL    HW239758   9.547   1.073   1.237 -1.5518  0.8947 -0.5248
44641SOL     OW39759   0.247   7.293  10.707 -0.2241 -0.4597  0.0303
44641SOL    HW139760   0.242   7.363  10.771 -1.4696  0.3363 -0.9046
44641SOL    HW239761   0.169   7.240  10.722 -0.1613 -0.6717 -0.3629
44642SOL     OW39762   7.726  11.843   2.110  0.3085  0.2845  0.2549
44642SOL    HW139763   7.811  11.841   2.067 -0.1704  0.5795 -0.7187
44642SOL    HW239764   7.744  11.811   2.199  1.5154  0.8365  0.2260
44643SOL     OW39765   2.176   9.294   5.689 -0.1385 -0.3049  0.0365
44643SOL    HW139766   2.203   9.386   5.679  1.2217 -0.4821  1.6074
44643SOL    HW239767   2.112   9.280   5.620  0.6572  1.4323 -1.1234
44644SOL     OW39768   2.374  11.377   1.350  0.0237  0.2897  0.3209
44644SOL    HW139769   2.305  11.425   1.396  1.1812  1.8349  0.5486
44644SOL    HW239770   2.349  11.379   1.258 -0.7976 -0.1741  0.5276
44645SOL     OW39771   5.646   7.810   9.717 -0.3040 -0.0195  0.0539
44645SOL    HW139772   5.667   7.846   9.803 -0.0023  1.3424 -0.5615
44645SOL    HW239773   5.674   7.719   9.721 -0.8694 -0.1547  1.5878
44646SOL     OW39774  10.544   5.784   4.048  0.8891 -0.3230  0.5207
44646SOL    HW139775  10.544   5.731   3.968 -2.0159  0.0301  0.1657
44646SOL    HW239776  10.552   5.874   4.018 -0.0136 -0.2020  0.6141
44647SOL     OW39777  10.537   4.182   8.075  0.2324  0.3188 -0.0861
44647SOL    HW139778  10.606   4.209   8.134  2.9749 -0.0362 -2.8885
44647SOL    HW239779  10.529   4.087   8.089 -0.0117  0.4295  0.5405
44648SOL     OW39780   7.023   6.311   9.859 -0.3815  0.6380  0.3287
44648SOL    HW139781   6.978   6.323   9.943  0.9632 -1.6616  1.4993
44648SOL    HW239782   7.090   6.379   9.858 -1.6958  1.9645  0.1399
44649SOL     OW39783   8.080   0.453   7.069 -0.0490  0.0344 -0.2861
44649SOL    HW139784   8.069   0.371   7.117 -0.3278 -0.7693 -1.6614
44649SOL    HW239785   7.997   0.465   7.023  0.3602  0.5352 -0.9075
44650SOL     OW39786   5.413   9.752  10.777 -0.3574  0.1028 -0.6658
44650SOL    HW139787   5.406   9.684  10.844 -1.4614  0.4932 -0.3503
44650SOL    HW239788   5.447   9.707  10.700 -0.1552 -0.5989 -0.1732
44651SOL     OW39789   4.851  10.283  11.076  0.1407 -0.1429 -0.5533
44651SOL    HW139790   4.866  10.324  10.991 -2.2898  1.6941 -0.2028
44651SOL    HW239791   4.773  10.228  11.063 -0.8281  0.8727  0.6406
44652SOL     OW39792  11.669   1.587   3.245 -0.1806  0.2638 -0.1987
44652SOL    HW139793  11.756   1.623   3.229  0.5950 -0.3680  2.2038
44652SOL    HW239794  11.633   1.640   3.316 -1.9147  0.6713 -1.3126
44653SOL     OW39795   7.014   3.399   5.040  0.2391  0.2400 -0.4352
44653SOL    HW139796   7.075   3.455   5.088 -0.3771  0.9925 -0.5137
44653SOL    HW239797   6.938   3.455   5.023 -1.0977 -1.0895  0.9271
44654SOL     OW39798   8.693   3.847   7.450  0.5275 -0.2284 -0.3000
44654SOL    HW139799   8.695   3.793   7.371  1.4534  0.1381 -0.5441
44654SOL    HW239800   8.710   3.936   7.418  2.8114 -0.3130  0.4920
44655SOL     OW39801   9.925   2.645   3.048 -0.0825  0.0670 -0.6013
44655SOL    HW139802   9.880   2.695   2.980 -0.3059 -0.7438 -1.0644
44655SOL    HW239803   9.909   2.694   3.129 -3.1650 -0.9332 -0.4475
44656SOL     OW39804   4.424   5.211   0.726  0.9738  0.2080 -0.1902
44656SOL    HW139805   4.338   5.249   0.743  0.7997  0.9210 -2.2897
44656SOL    HW239806   4.485   5.274   0.764  0.6045  1.3585 -1.3909
44657SOL     OW39807   5.353   3.429   0.469 -0.4271  0.0879  0.7728
44657SOL    HW139808   5.384   3.463   0.553  1.5741  0.5105 -0.0778
44657SOL    HW239809   5.417   3.362   0.445 -1.0368 -0.1204 -0.3671
44658SOL     OW39810   0.416  11.539   9.367 -0.2983  0.3697 -0.6646
44658SOL    HW139811   0.501  11.513   9.404 -0.6051 -0.2472 -0.3901
44658SOL    HW239812   0.413  11.496   9.282  0.3354  1.6575 -1.3768
44659SOL     OW39813  10.774   5.004  10.741 -0.1954  0.8090 -0.1688
44659SOL    HW139814  10.756   5.075  10.803  1.6084  1.1975 -0.0410
44659SOL    HW239815  10.819   4.937  10.792 -1.4416 -0.2505 -0.4010
44660SOL     OW39816   2.893   4.391   7.593  0.0121  0.5610 -0.0935
44660SOL    HW139817   2.977   4.428   7.617  0.5609  0.0369 -1.1116
44660SOL    HW239818   2.874   4.326   7.661  0.3391  0.8057  0.2327
44661SOL     OW39819   4.840   7.405   6.727  0.0116  0.3929 -0.7277
44661SOL    HW139820   4.767   7.464   6.746  1.2968  1.5840  0.7418
44661SOL    HW239821   4.918   7.452   6.757  0.9590 -2.8144  2.7115
44662SOL     OW39822   8.590  10.893   4.483 -0.3974  0.3995  0.2487
44662SOL    HW139823   8.614  10.849   4.564  3.3195  2.4998  0.5164
44662SOL    HW239824   8.599  10.987   4.502 -0.7155  1.0157 -2.2205
44663SOL     OW39825   5.034   1.120  12.242  0.1508  0.0458 -0.3350
44663SOL    HW139826   5.013   1.144  12.151  0.8408 -1.3448 -0.9025
44663SOL    HW239827   4.950   1.097  12.281 -0.0699 -0.0613 -0.8613
44664SOL     OW39828   6.105  11.284   7.758 -0.1381 -0.0497  0.8467
44664SOL    HW139829   6.036  11.342   7.789  0.2506  0.3939  0.8785
44664SOL    HW239830   6.180  11.341   7.743 -0.3005 -0.2265 -0.8927
44665SOL     OW39831   2.461   0.190   8.926 -0.1909 -0.0910  0.2654
44665SOL    HW139832   2.428   0.279   8.916 -0.7106 -0.0531  1.9853
44665SOL    HW239833   2.410   0.154   8.998  1.3877 -1.1020  0.9339
44666SOL     OW39834  10.494   0.212   3.023  0.0372  0.4161 -0.1530
44666SOL    HW139835  10.572   0.159   3.039 -0.0269  0.1048 -0.8145
44666SOL    HW239836  10.434   0.188   3.094  0.1118 -0.2017 -0.2921
44667SOL     OW39837  10.399   8.719   8.519 -0.0355 -0.4230  0.0606
44667SOL    HW139838  10.308   8.718   8.490 -0.1198  1.9692  0.0329
44667SOL    HW239839  10.393   8.736   8.614  0.3373  1.6128 -0.2270
44668SOL     OW39840   2.464   0.550  11.831 -0.1625  0.4227  0.2859
44668SOL    HW139841   2.508   0.619  11.781 -2.2738 -0.5620 -3.2860
44668SOL    HW239842   2.390   0.593  11.873 -0.8575  0.5675 -1.0553
44669SOL     OW39843   5.843  12.000   8.376 -0.0293 -0.4784 -0.2981
44669SOL    HW139844   5.757  12.017   8.339  1.3557  2.8452 -2.4702
44669SOL    HW239845   5.890  11.952   8.308  0.2826 -1.0664  0.3137
44670SOL     OW39846   1.298   9.198   1.325 -1.5396  0.0656  0.0049
44670SOL    HW139847   1.365   9.139   1.292 -1.3058 -0.2139  0.9590
44670SOL    HW239848   1.261   9.153   1.401 -2.2325  0.5884 -0.0082
44671SOL     OW39849   7.772  10.630   9.555 -0.6549  0.3416  0.0791
44671SOL    HW139850   7.788  10.672   9.640  2.6078 -0.8452  0.2319
44671SOL    HW239851   7.757  10.538   9.577 -0.7449  0.1988 -0.5641
44672SOL     OW39852   7.130   4.442  10.547 -0.0187 -0.0556  0.4621
44672SOL    HW139853   7.084   4.417  10.627  1.3143 -0.0828  1.2594
44672SOL    HW239854   7.171   4.360  10.517  0.3972  0.1818  0.3809
44673SOL     OW39855   0.429   8.464   7.598  0.1634  0.2209 -0.1289
44673SOL    HW139856   0.444   8.466   7.692 -1.4490  0.9456  0.1601
44673SOL    HW239857   0.356   8.525   7.585 -0.1868 -0.4994 -1.7392
44674SOL     OW39858   4.033   5.881   5.564  0.2648 -0.0423 -0.0856
44674SOL    HW139859   4.037   5.821   5.639  1.1270  0.4436  0.2808
44674SOL    HW239860   4.010   5.826   5.490  0.7768 -0.7853  0.2924
44675SOL     OW39861   9.142  10.659   5.825  0.3668 -0.0083 -0.0788
44675SOL    HW139862   9.088  10.642   5.902  1.5060 -2.7661  0.2484
44675SOL    HW239863   9.204  10.726   5.854  0.5108 -0.7026  1.2940
44676SOL     OW39864  11.198   3.266   3.775 -0.2065 -1.1267 -0.2584
44676SOL    HW139865  11.133   3.231   3.836 -0.7259  0.5478  0.2030
44676SOL    HW239866  11.148   3.326   3.719  0.7710 -0.5095 -0.4871
44677SOL     OW39867  11.480   4.959   1.934 -0.5322 -0.6689  0.1760
44677SOL    HW139868  11.419   5.029   1.912  0.6765  0.3624  0.0070
44677SOL    HW239869  11.449   4.927   2.019 -1.4081 -0.2994  0.0096
44678SOL     OW39870   8.946   0.556   8.887  0.2559  0.4276 -0.2636
44678SOL    HW139871   8.887   0.631   8.900 -0.0614  0.5547 -2.1225
44678SOL    HW239872   8.934   0.533   8.795  2.7470  0.1191 -0.5530
44679SOL     OW39873   4.716  11.660   6.508 -0.3801 -0.6609  0.5363
44679SOL    HW139874   4.691  11.603   6.435 -3.4914 -0.3615  1.2342
44679SOL    HW239875   4.699  11.608   6.586  1.4847 -0.4466  1.1327
44680SOL     OW39876   6.993   8.734   4.832 -0.2027 -1.4008  0.2528
44680SOL    HW139877   6.970   8.719   4.924 -0.1671 -1.1374  0.3050
44680SOL    HW239878   6.922   8.788   4.798 -0.1759 -1.4319  0.1481
44681SOL     OW39879   5.748   8.191   2.636 -0.0983  0.1316 -0.0377
44681SOL    HW139880   5.653   8.199   2.632 -0.0323  0.9977  0.0357
44681SOL    HW239881   5.764   8.140   2.715 -0.5340 -0.9268 -0.5966
44682SOL     OW39882   1.966   2.917   9.568  0.5005  0.2020  0.3775
44682SOL    HW139883   2.004   2.941   9.483  1.5819  1.2806  1.1465
44682SOL    HW239884   1.872   2.915   9.551  0.7337 -0.5849 -1.0786
44683SOL     OW39885   5.636  11.853   1.066  0.4307 -0.1221  0.5394
44683SOL    HW139886   5.655  11.897   1.149 -2.0596 -1.5918  2.0150
44683SOL    HW239887   5.590  11.919   1.014  1.0204  0.4655  0.7524
44684SOL     OW39888   3.023   9.459   9.234  0.2111  0.1847  0.3678
44684SOL    HW139889   3.043   9.527   9.170 -0.8299 -0.0217 -0.2116
44684SOL    HW239890   3.077   9.385   9.208 -0.9245 -0.2430 -0.9406
44685SOL     OW39891   0.060   6.000   0.865  0.2840 -0.3635  0.4771
44685SOL    HW139892   0.086   6.092   0.861  2.5373 -0.9617 -0.0663
44685SOL    HW239893   0.055   5.981   0.959  1.1188 -0.0193  0.5977
44686SOL     OW39894  12.017   6.378   9.487 -0.2243  0.4475 -0.3951
44686SOL    HW139895  12.045   6.306   9.543 -0.5267  1.3032  0.9122
44686SOL    HW239896  12.028   6.456   9.541  1.3485  1.5696 -2.2092
44687SOL     OW39897   6.934   5.458   9.850 -0.7850 -0.4845 -0.3357
44687SOL    HW139898   6.845   5.451   9.818 -0.9291 -0.7167  0.1017
44687SOL    HW239899   6.968   5.539   9.811 -1.4258 -0.0105  0.0681
44688SOL     OW39900   8.428   9.980  10.242  0.3253 -0.0513  0.8827
44688SOL    HW139901   8.522   9.996  10.240  0.5019 -0.9237  1.5641
44688SOL    HW239902   8.409   9.941  10.156  0.1588  2.1952 -0.1580
44689SOL     OW39903   7.241   1.188  11.374  0.0935  0.6103 -0.1505
44689SOL    HW139904   7.165   1.219  11.423 -0.0150 -0.7295  0.5757
44689SOL    HW239905   7.207   1.163  11.288 -0.2673  0.1499  0.1252
44690SOL     OW39906  11.792   2.403   3.358 -0.4097  0.2672 -0.4451
44690SOL    HW139907  11.884   2.431   3.363 -0.5088  0.4155  2.3659
44690SOL    HW239908  11.753   2.462   3.294  0.9063  2.0688  0.3087
44691SOL     OW39909   1.891   1.376   2.015 -0.4954 -0.1136 -0.3769
44691SOL    HW139910   1.973   1.327   2.024  0.1157  1.0204  0.3393
44691SOL    HW239911   1.918   1.467   2.006 -1.5737  0.0668 -2.5054
44692SOL     OW39912   1.168   6.992   0.491  0.4259  0.3508  0.6839
44692SOL    HW139913   1.258   6.982   0.522  0.0561 -0.5592  1.5227
44692SOL    HW239914   1.141   7.077   0.524  0.5427  0.0439  1.5976
44693SOL     OW39915   4.161  12.185  11.306 -0.0869  0.1180 -0.3713
44693SOL    HW139916   4.075  12.195  11.347 -0.1876 -0.3678 -0.4577
44693SOL    HW239917   4.164  12.255  11.240 -0.1841  0.4946  0.0142
44694SOL     OW39918  11.053   1.412  10.359 -0.0972  0.2843 -0.9377
44694SOL    HW139919  11.141   1.377  10.368 -0.6085 -1.0906 -1.1242
44694SOL    HW239920  10.999   1.337  10.334 -1.1195  1.3303 -1.9767
44695SOL     OW39921  12.118   8.635   9.265 -0.3537 -0.7942 -0.1224
44695SOL    HW139922  12.178   8.618   9.193 -0.6917 -0.5449 -0.4721
44695SOL    HW239923  12.172   8.633   9.343  0.2529  0.1742 -0.4963
44696SOL     OW39924   7.464  11.745   3.150  0.8035 -0.1661 -0.0229
44696SOL    HW139925   7.508  11.685   3.210  0.1120 -0.3896  0.2645
44696SOL    HW239926   7.405  11.795   3.206 -0.4058 -0.8985 -0.6267
44697SOL     OW39927   2.779  10.963   1.970  0.1709 -0.0971 -0.6841
44697SOL    HW139928   2.757  11.031   1.906  0.2128  1.3615  0.7704
44697SOL    HW239929   2.751  10.881   1.929 -1.4060  0.9535 -1.8242
44698SOL     OW39930   5.946   5.000   8.545  0.0893 -0.5410 -0.0269
44698SOL    HW139931   5.910   5.084   8.516  0.0006 -0.5506  0.0544
44698SOL    HW239932   6.034   4.997   8.507 -0.8302 -1.5995 -2.3069
44699SOL     OW39933   6.760  11.394   1.965  0.4063 -0.0178 -0.0474
44699SOL    HW139934   6.728  11.315   2.008 -1.1166  0.5420 -0.0691
44699SOL    HW239935   6.690  11.419   1.905  1.5208  0.4961 -1.1854
44700SOL     OW39936  10.405   3.614  10.110  0.6706  0.0955  0.2015
44700SOL    HW139937  10.321   3.594  10.068  0.7419  3.1114 -1.6369
44700SOL    HW239938  10.383   3.627  10.202 -0.1264 -2.9371  0.5714
44701SOL     OW39939  11.526   8.983  11.338  0.1349 -0.4340  0.1012
44701SOL    HW139940  11.585   8.966  11.265  1.5776 -1.3928  1.4238
44701SOL    HW239941  11.527   8.903  11.390 -1.1636  0.0778  0.9823
44702SOL     OW39942   2.420   9.875   8.611  0.1368 -0.1640  0.0871
44702SOL    HW139943   2.336   9.916   8.590  0.4600  0.3635 -0.1849
44702SOL    HW239944   2.478   9.948   8.633  0.4094 -0.5547  0.7028
44703SOL     OW39945   8.714  10.509   6.841 -0.1760  0.1433  0.6450
44703SOL    HW139946   8.652  10.451   6.886 -2.3324  1.3440 -0.6083
44703SOL    HW239947   8.761  10.553   6.911 -2.2788  0.7557  1.7792
44704SOL     OW39948   7.406   5.641   0.990  0.6150 -0.0291  0.2362
44704SOL    HW139949   7.501   5.624   0.990  0.7997  0.8050  1.5246
44704SOL    HW239950   7.396   5.716   1.049 -1.0289 -1.1924  1.5159
44705SOL     OW39951   2.304   7.973   0.055  0.2039 -0.0479 -0.4304
44705SOL    HW139952   2.213   7.984   0.082  0.4390  1.6401 -0.2274
44705SOL    HW239953   2.348   7.936   0.132 -0.3104 -0.9571 -0.5633
44706SOL     OW39954   4.459   4.126  10.954  1.0318  0.1447 -0.1638
44706SOL    HW139955   4.541   4.090  10.989  0.4710 -1.6702 -0.6094
44706SOL    HW239956   4.391   4.093  11.013  0.4639  0.3013 -0.7203
44707SOL     OW39957   1.160   7.489   8.856 -0.0520 -0.3962 -0.3099
44707SOL    HW139958   1.128   7.402   8.880  3.9449 -2.1997 -0.7921
44707SOL    HW239959   1.196   7.478   8.768  1.6475  1.4319  0.0929
44708SOL     OW39960   8.493   6.435   0.231 -0.1569  0.3172 -0.3654
44708SOL    HW139961   8.455   6.478   0.154 -1.6112  1.2957  0.8400
44708SOL    HW239962   8.444   6.353   0.239  0.2454  0.0417 -0.6715
44709SOL     OW39963  10.403   6.328   1.688  0.0840 -0.0430 -0.2041
44709SOL    HW139964  10.470   6.397   1.687 -0.6093  0.6570 -1.2697
44709SOL    HW239965  10.324   6.373   1.720 -0.1009 -0.6284  0.1667
44710SOL     OW39966   1.062   5.927  10.587 -0.8506 -0.0346 -0.4238
44710SOL    HW139967   1.062   5.834  10.564  0.1030 -0.1766  0.0748
44710SOL    HW239968   0.978   5.960  10.555 -1.5892 -1.2556  0.1741
44711SOL     OW39969   6.299   2.121   5.646 -0.1972  0.4747  0.1878
44711SOL    HW139970   6.301   2.106   5.741  2.2304 -0.2472  0.0959
44711SOL    HW239971   6.207   2.136   5.626 -1.6242 -4.3216  1.8934
44712SOL     OW39972   2.010  10.216   3.620  0.2587 -0.3211  0.3941
44712SOL    HW139973   2.090  10.268   3.607 -0.1369  0.5214  1.2799
44712SOL    HW239974   1.940  10.271   3.586 -0.1109 -0.4722  0.9117
44713SOL     OW39975  10.869   0.843   6.823 -0.1397 -0.0611  0.1237
44713SOL    HW139976  10.949   0.832   6.771 -0.7609  1.6529 -1.2696
44713SOL    HW239977  10.900   0.875   6.908  0.6691  0.2577 -0.2851
44714SOL     OW39978   3.548   7.849   1.747  0.4790  0.0382 -0.2249
44714SOL    HW139979   3.531   7.833   1.839  0.4785  0.5216 -0.1368
44714SOL    HW239980   3.521   7.769   1.703  0.7351 -0.2949  0.2210
44715SOL     OW39981   7.100   7.331   6.541 -0.3513  0.8178 -0.4223
44715SOL    HW139982   7.110   7.318   6.446 -2.1698 -0.0947 -0.5251
44715SOL    HW239983   7.055   7.415   6.548  0.6785  1.3753 -0.2961
44716SOL     OW39984  10.698   8.741   6.357 -0.1482  0.4766  0.7862
44716SOL    HW139985  10.782   8.782   6.338  1.0233 -2.4122 -0.9876
44716SOL    HW239986  10.634   8.812   6.350  1.7620  2.1137 -1.5976
44717SOL     OW39987  10.266  11.079  11.867 -0.4727 -0.2903 -0.0190
44717SOL    HW139988  10.243  11.016  11.935  1.4893  0.7747  1.7500
44717SOL    HW239989  10.216  11.157  11.889  0.8446  0.3619  0.8514
44718SOL     OW39990   5.563   9.096   9.195  0.2943 -0.9623  0.1917
44718SOL    HW139991   5.496   9.049   9.147 -0.3784  0.7007 -0.5792
44718SOL    HW239992   5.626   9.029   9.222 -0.6400 -2.2719 -0.7965
44719SOL     OW39993   6.729   1.049   9.347 -0.0491  0.1630 -0.8508
44719SOL    HW139994   6.663   0.980   9.360  1.8456 -1.8032 -1.1232
44719SOL    HW239995   6.729   1.064   9.253 -0.3637  0.4695 -0.8065
44720SOL     OW39996   9.315   5.534   7.111  0.3689  0.1284  0.1989
44720SOL    HW139997   9.244   5.519   7.173  0.2513  0.3045  0.1094
44720SOL    HW239998   9.367   5.605   7.150 -0.0951  0.7157 -0.2230
44721SOL     OW39999   8.469   5.480   2.573  0.3264 -0.4692  0.0294
44721SOL    HW140000   8.392   5.481   2.630  0.2320 -1.5266 -0.0593
44721SOL    HW240001   8.515   5.400   2.597 -0.3900 -1.6301 -2.2429
44722SOL     OW40002   1.222  10.893   5.183  0.2825 -0.2026 -0.0079
44722SOL    HW140003   1.290  10.920   5.245 -1.0685  1.3506  0.8580
44722SOL    HW240004   1.146  10.874   5.237 -0.0769 -1.7260 -0.9823
44723SOL     OW40005   9.612   4.848   4.034 -0.1317  0.0352 -0.2577
44723SOL    HW140006   9.562   4.810   3.962 -1.3932 -0.0210  0.6173
44723SOL    HW240007   9.678   4.903   3.991 -0.4747 -0.4585 -1.4552
44724SOL     OW40008   3.085   6.826   7.399  0.0362  0.2427 -0.2915
44724SOL    HW140009   3.126   6.849   7.483  0.5384  0.3636 -0.5647
44724SOL    HW240010   3.114   6.896   7.340  1.0744 -0.7459 -0.9899
44725SOL     OW40011  10.112   0.907   3.800  0.2974 -0.4184  0.4746
44725SOL    HW140012  10.025   0.911   3.840  0.3929 -1.6299  0.8658
44725SOL    HW240013  10.134   0.814   3.803  1.0892 -0.2774 -0.7625
44726SOL     OW40014   8.871   5.580   0.656 -0.5972  0.2385 -0.2539
44726SOL    HW140015   8.891   5.490   0.681 -0.6966  0.0639 -0.7898
44726SOL    HW240016   8.923   5.634   0.716 -0.3689 -0.1767 -0.0777
44727SOL     OW40017   7.273   3.426   3.925 -0.4020 -0.0697  0.0839
44727SOL    HW140018   7.323   3.446   4.004  1.4761 -2.3863 -0.3897
44727SOL    HW240019   7.296   3.495   3.864  0.0799  0.3982  0.7761
44728SOL     OW40020   9.602   3.544   3.838 -0.2222 -0.0666  0.6457
44728SOL    HW140021   9.637   3.483   3.903 -2.5679 -1.2952  0.8617
44728SOL    HW240022   9.581   3.489   3.762 -0.4017  0.8384  0.0252
44729SOL     OW40023   0.920   3.689  10.296 -0.2319  0.4896 -0.0021
44729SOL    HW140024   0.847   3.702  10.356 -0.3698  1.9390 -0.4487
44729SOL    HW240025   0.888   3.624  10.233 -2.4897  3.4405 -2.1851
44730SOL     OW40026   4.771   4.451   9.558  0.2587 -0.0002  0.0870
44730SOL    HW140027   4.727   4.379   9.604  0.0742  1.2701  2.0081
44730SOL    HW240028   4.746   4.440   9.467 -1.5068 -1.1442  0.6543
44731SOL     OW40029   2.654  11.447   3.461 -0.1003  0.2868 -0.1069
44731SOL    HW140030   2.714  11.415   3.528  0.3559  1.9167  0.2971
44731SOL    HW240031   2.624  11.531   3.494 -1.5107  0.1530 -0.9826
44732SOL     OW40032   1.135   6.991  11.973  0.0186 -0.5913  0.5066
44732SOL    HW140033   1.109   7.072  12.017 -1.4536 -0.3357 -0.7565
44732SOL    HW240034   1.082   6.923  12.016 -1.4122 -0.3429 -0.7858
44733SOL     OW40035   6.289   8.620   2.115 -0.2195  0.0656  0.5769
44733SOL    HW140036   6.221   8.628   2.047  0.0013 -0.2952  0.3109
44733SOL    HW240037   6.254   8.556   2.177 -0.1050 -0.1542  0.4160
44734SOL     OW40038   3.094   0.264   5.106  0.3051 -0.2207  0.1350
44734SOL    HW140039   3.151   0.328   5.150  0.3955 -0.8632  0.9806
44734SOL    HW240040   3.154   0.204   5.063  0.2845 -0.8267  0.9240
44735SOL     OW40041   5.241   1.765  11.144  0.4522  0.4199 -0.3285
44735SOL    HW140042   5.157   1.810  11.140  0.8122  1.3701  1.9246
44735SOL    HW240043   5.296   1.819  11.201  2.1837 -0.8575 -0.6930
44736SOL     OW40044   2.812   6.447   0.108  0.1797  0.3266 -0.0646
44736SOL    HW140045   2.762   6.372   0.076 -0.0761  0.2656  0.4675
44736SOL    HW240046   2.865   6.474   0.033  1.7952 -1.6152  0.2995
44737SOL     OW40047   1.337  12.222   1.404  0.1553 -0.0370 -0.9196
44737SOL    HW140048   1.384  12.229   1.487 -2.6100 -1.5452  0.9304
44737SOL    HW240049   1.374  12.144   1.362  0.7235  0.0088 -0.5128
44738SOL     OW40050   4.544   7.302   3.470  0.0131 -0.1998  0.2585
44738SOL    HW140051   4.601   7.330   3.399  1.2937 -0.5000  1.1226
44738SOL    HW240052   4.590   7.228   3.510 -2.1766 -2.0891 -0.5224
44739SOL     OW40053   7.401   0.675   5.141  0.3120  0.1069  0.2275
44739SOL    HW140054   7.431   0.697   5.230  0.4265 -0.2019  0.2689
44739SOL    HW240055   7.474   0.700   5.084  0.0681  0.7048  0.1732
44740SOL     OW40056  10.572   6.651   2.431 -0.4969 -0.8143 -0.4355
44740SOL    HW140057  10.529   6.590   2.370 -0.4171 -1.0799 -0.2248
44740SOL    HW240058  10.652   6.606   2.458 -0.5958 -0.7498 -0.0306
44741SOL     OW40059   0.767   4.677   3.378 -0.5007  0.6457 -0.1813
44741SOL    HW140060   0.843   4.628   3.409 -0.1881  1.5499  0.5191
44741SOL    HW240061   0.804   4.756   3.339 -1.1146  1.8672  1.5934
44742SOL     OW40062   3.988   8.981  11.139 -0.6521  0.1795 -0.0524
44742SOL    HW140063   3.926   8.910  11.122  0.0040 -1.1080  2.4345
44742SOL    HW240064   3.935   9.051  11.176 -1.0358  0.3030 -0.8158
44743SOL     OW40065   7.600   1.294   6.736  0.1168  0.3435 -0.2731
44743SOL    HW140066   7.542   1.312   6.811  0.9222 -1.9604  0.9934
44743SOL    HW240067   7.580   1.204   6.711  0.6536  0.7065 -2.1685
44744SOL     OW40068   7.733   9.480   2.509  0.0230 -0.1640  0.0770
44744SOL    HW140069   7.780   9.520   2.583  2.7578 -1.2207 -0.9492
44744SOL    HW240070   7.802   9.452   2.450 -2.0413 -0.4719 -2.3443
44745SOL     OW40071   5.399  11.453  11.873  0.3254  0.1473 -0.0788
44745SOL    HW140072   5.331  11.495  11.926  0.2635  0.0541 -0.0838
44745SOL    HW240073   5.427  11.378  11.924  1.0083  0.6448  0.2954
44746SOL     OW40074   8.079   9.459   6.828 -0.3303  0.4778  0.1420
44746SOL    HW140075   8.002   9.477   6.774  0.8512  1.3245 -1.3144
44746SOL    HW240076   8.119   9.544   6.843  1.1763 -0.0961 -0.4347
44747SOL     OW40077  12.205   4.579   9.613 -0.2136 -0.1700 -0.4167
44747SOL    HW140078  12.279   4.575   9.552 -0.0867  0.5483 -0.3178
44747SOL    HW240079  12.199   4.671   9.638 -0.6501 -0.3534  0.1889
44748SOL     OW40080  12.253   4.728   9.967 -1.1225  0.3904  1.0711
44748SOL    HW140081  12.320   4.668   9.999 -0.7391 -0.5523 -1.2703
44748SOL    HW240082  12.173   4.675   9.967 -0.4564 -0.9336 -2.7128
44749SOL     OW40083  12.059   7.706   8.060  0.3296  0.0950  0.1951
44749SOL    HW140084  12.126   7.773   8.071 -0.8940  1.3922  0.0282
44749SOL    HW240085  11.977   7.750   8.084 -0.5612 -1.2020 -0.3721
44750SOL     OW40086   3.832   1.194   9.378  0.2442 -0.8516 -0.1140
44750SOL    HW140087   3.760   1.193   9.316  0.5047 -1.0930 -0.4183
44750SOL    HW240088   3.907   1.226   9.327  0.0558  0.7288  0.5485
44751SOL     OW40089   7.288  10.923   1.390  0.4966  0.6202 -0.0988
44751SOL    HW140090   7.361  10.960   1.339  0.3852  2.1509  0.7723
44751SOL    HW240091   7.225  10.894   1.324  0.8852  1.4403 -0.8602
44752SOL     OW40092   5.568   6.062   1.121 -0.5185  0.2580 -0.5323
44752SOL    HW140093   5.551   6.000   1.192 -1.2526  0.5668 -0.4297
44752SOL    HW240094   5.655   6.038   1.088  0.5092  1.0620  1.4345
44753SOL     OW40095   7.469   3.126   0.417  0.2842 -0.0484 -0.5152
44753SOL    HW140096   7.530   3.058   0.389 -0.0724 -0.3128 -0.6649
44753SOL    HW240097   7.463   3.115   0.511  0.9939  0.4251 -0.4101
44754SOL     OW40098  11.895   3.537  11.431 -0.5711 -0.3679  0.0895
44754SOL    HW140099  11.975   3.515  11.384 -0.5365  0.6397 -0.3409
44754SOL    HW240100  11.857   3.452  11.454  0.1415 -0.8614 -0.5035
44755SOL     OW40101   6.849  11.657   2.760 -0.4242 -0.5017  0.6645
44755SOL    HW140102   6.789  11.729   2.738  1.7856  1.9700  2.2236
44755SOL    HW240103   6.822  11.629   2.848  0.3162  0.2068  1.1222
44756SOL     OW40104   9.267  12.305   0.103 -0.3656  0.4514 -0.5902
44756SOL    HW140105   9.270  12.268   0.191  1.6451 -1.0584 -1.2229
44756SOL    HW240106   9.316  12.386   0.108  1.5014 -0.6283 -0.6972
44757SOL     OW40107   2.870   3.143  11.876 -0.2534 -0.0032 -0.2193
44757SOL    HW140108   2.926   3.127  11.800  1.3165 -0.5693  1.0073
44757SOL    HW240109   2.872   3.061  11.925 -0.1174  0.7888  1.1325
44758SOL     OW40110  10.746  10.760  10.400 -0.8502 -0.2960 -0.7004
44758SOL    HW140111  10.652  10.749  10.411 -0.6378 -3.1533 -0.8730
44758SOL    HW240112  10.784  10.682  10.442  1.5436  1.4113  0.5478
44759SOL     OW40113   1.551   8.157   6.335  1.0277  0.3589 -0.0879
44759SOL    HW140114   1.548   8.187   6.426 -1.3334  3.0114 -0.9072
44759SOL    HW240115   1.607   8.079   6.337 -0.2048 -0.6190  3.8747
44760SOL     OW40116  10.846   0.957  11.965 -0.8445 -0.2004 -0.5494
44760SOL    HW140117  10.792   0.898  11.912  2.4454 -2.1714 -2.0195
44760SOL    HW240118  10.936   0.929  11.948  0.9348  4.4572 -0.3092
44761SOL     OW40119   4.131   8.223   1.834 -0.3228 -0.0658 -0.1683
44761SOL    HW140120   4.179   8.194   1.757 -1.2266  0.6251 -1.0175
44761SOL    HW240121   4.055   8.164   1.839 -0.5915  0.2800 -0.1612
44762SOL     OW40122  10.207   5.108   5.911 -0.3730 -0.1069  0.2337
44762SOL    HW140123  10.123   5.102   5.957 -0.1728 -1.8746  0.4615
44762SOL    HW240124  10.187   5.081   5.822 -0.1677  0.1662  0.1043
44763SOL     OW40125   5.984   9.098   3.121 -0.0908 -0.2180 -0.5619
44763SOL    HW140126   5.966   9.013   3.161 -1.1742  0.3146  0.1276
44763SOL    HW240127   5.972   9.083   3.027  2.3151 -1.4406 -0.7437
44764SOL     OW40128   4.095   0.971   2.022  0.6361 -0.3182 -0.0488
44764SOL    HW140129   4.027   1.030   1.989  0.5465 -0.9483 -1.0267
44764SOL    HW240130   4.119   1.008   2.108 -1.6722 -0.6753  0.8190
44765SOL     OW40131   0.631   5.824   4.485 -0.1691 -0.0628  0.0169
44765SOL    HW140132   0.714   5.872   4.488 -0.0730 -0.0205 -1.9260
44765SOL    HW240133   0.654   5.735   4.509  0.4187  0.0006 -0.2846
44766SOL     OW40134  11.486   8.562   3.868 -0.0358  0.5329 -0.3901
44766SOL    HW140135  11.450   8.504   3.802  2.3828 -1.1776 -0.3739
44766SOL    HW240136  11.564   8.599   3.827  0.5377  0.7969  0.8796
44767SOL     OW40137   0.189   0.038   3.345  0.0463  0.1132 -0.0657
44767SOL    HW140138   0.176  -0.019   3.270  0.3250  0.5310 -0.4354
44767SOL    HW240139   0.101   0.051   3.382  0.0908 -1.4158  0.6761
44768SOL     OW40140   2.027   8.248  12.197  0.5996 -0.1192  0.0218
44768SOL    HW140141   2.046   8.207  12.113 -0.2502  1.8171 -1.1724
44768SOL    HW240142   2.110   8.286  12.224  0.3612  1.3735 -1.2072
44769SOL     OW40143   3.844   9.587  11.210  0.0764 -0.0096 -0.4731
44769SOL    HW140144   3.757   9.565  11.243 -0.7814  0.1436 -2.4985
44769SOL    HW240145   3.827   9.635  11.128  2.0452  1.2750 -0.1844
44770SOL     OW40146   9.179   4.712   0.204  0.2126  0.0132 -0.5435
44770SOL    HW140147   9.220   4.707   0.118 -0.0533  0.9968 -0.7440
44770SOL    HW240148   9.231   4.776   0.252  0.2532 -0.3986 -0.0328
44771SOL     OW40149   2.965   4.080   8.119 -0.5945  0.3577  0.1027
44771SOL    HW140150   2.969   4.166   8.161 -0.4329  0.6880 -0.5853
44771SOL    HW240151   2.877   4.075   8.081 -0.2155  0.6974 -0.8481
44772SOL     OW40152   7.490   7.893   1.313 -0.1778 -0.8372 -0.2930
44772SOL    HW140153   7.516   7.809   1.353  1.4004  0.4942  1.6624
44772SOL    HW240154   7.394   7.890   1.313 -0.1828 -2.1093  0.9691
44773SOL     OW40155   5.631  12.030   6.122 -0.6562 -0.0162  0.2329
44773SOL    HW140156   5.617  12.020   6.216 -2.0431 -0.0803  0.0477
44773SOL    HW240157   5.655  12.121   6.110 -1.8407  0.3634  0.5391
44774SOL     OW40158   2.624   5.498  11.290  0.8118  0.3521  0.3501
44774SOL    HW140159   2.621   5.470  11.381 -0.8342 -0.0623  0.2011
44774SOL    HW240160   2.634   5.416  11.241 -0.2796  0.3556  0.0898
44775SOL     OW40161   7.404   6.408   7.008 -0.1162 -0.5348 -0.3455
44775SOL    HW140162   7.426   6.476   6.945 -0.4042 -0.8813 -0.8297
44775SOL    HW240163   7.489   6.380   7.044  0.2234 -1.3771 -1.6857
44776SOL     OW40164   6.922   4.844   6.124 -0.4431  0.0721 -0.2378
44776SOL    HW140165   7.003   4.860   6.076 -1.3669  2.3142 -1.1817
44776SOL    HW240166   6.884   4.767   6.082  0.2501  0.1779 -1.0760
44777SOL     OW40167   1.866  10.445   0.088 -0.0176 -0.4767  0.1799
44777SOL    HW140168   1.834  10.404   0.168 -1.8388 -1.1094 -0.8151
44777SOL    HW240169   1.941  10.391   0.062  0.6456 -0.2139  1.4588
44778SOL     OW40170  10.043   7.913   0.504 -0.2409  0.6822 -0.3885
44778SOL    HW140171  10.116   7.881   0.557 -1.4504  0.1478  1.0229
44778SOL    HW240172  10.077   7.991   0.461  0.5983  1.6212  1.8085
44779SOL     OW40173   6.193   5.601   4.898 -0.1583  0.2864  0.3529
44779SOL    HW140174   6.165   5.574   4.810 -0.2564  0.6139  0.2815
44779SOL    HW240175   6.265   5.662   4.882 -0.6881  0.9578  0.4677
44780SOL     OW40176  11.058   7.616   2.954  0.2692  0.3383  0.4122
44780SOL    HW140177  11.131   7.590   3.010 -0.7629  0.4856  1.8704
44780SOL    HW240178  11.067   7.711   2.945  0.9068  0.2184 -0.4007
44781SOL     OW40179   4.111  11.870  10.103 -0.1369 -0.3925 -0.2216
44781SOL    HW140180   4.105  11.838  10.013  0.8732  2.3987 -1.3871
44781SOL    HW240181   4.189  11.827  10.138  0.5699 -0.0822 -1.3548
44782SOL     OW40182   7.814   4.474   6.614  0.0752  0.3343  0.0173
44782SOL    HW140183   7.733   4.489   6.565  0.5931  1.4933 -0.5204
44782SOL    HW240184   7.871   4.547   6.590  1.0142 -0.0525  0.9681
44783SOL     OW40185   4.270   1.656   6.204  0.0959  0.4334  0.1677
44783SOL    HW140186   4.340   1.644   6.268  0.6212  0.9575 -0.3053
44783SOL    HW240187   4.303   1.723   6.144 -1.1514  1.3128  0.4257
44784SOL     OW40188   1.538   6.125   6.651  0.2430  0.2144 -0.1599
44784SOL    HW140189   1.612   6.115   6.711  0.7922  0.1047 -0.8414
44784SOL    HW240190   1.537   6.044   6.600 -0.0314  0.4197 -0.4916
44785SOL     OW40191   7.184   8.331   4.275  0.4310  0.6409 -0.0320
44785SOL    HW140192   7.149   8.243   4.288  0.9799  0.3622 -0.4061
44785SOL    HW240193   7.278   8.318   4.268  0.3072  0.8505 -3.3317
44786SOL     OW40194   4.235   1.239  10.294 -0.1645  0.0049  0.1806
44786SOL    HW140195   4.162   1.263  10.351 -0.3288  0.8141 -0.3676
44786SOL    HW240196   4.206   1.158  10.252 -1.0521  0.6924 -0.5687
44787SOL     OW40197   9.744   7.559  12.093 -0.4325  0.5095  0.0189
44787SOL    HW140198   9.803   7.634  12.091 -0.4252  0.5802  1.5913
44787SOL    HW240199   9.667   7.587  12.043 -1.0664  2.1639  1.8035
44788SOL     OW40200   6.536   4.885  11.834  0.0867  0.2361 -0.4829
44788SOL    HW140201   6.534   4.789  11.829  0.3399  0.2743 -1.9669
44788SOL    HW240202   6.473   4.913  11.767 -2.0109  1.1299  1.7247
44789SOL     OW40203   5.326   1.416   4.305 -0.1155 -0.1528 -0.2440
44789SOL    HW140204   5.283   1.489   4.351 -0.4150 -1.2776  1.3495
44789SOL    HW240205   5.416   1.416   4.339 -0.3266 -0.9746  0.3233
44790SOL     OW40206   5.144   0.126  10.222 -0.0751  0.0824 -0.3477
44790SOL    HW140207   5.135   0.215  10.188 -0.9625 -0.2792 -1.1078
44790SOL    HW240208   5.214   0.087  10.169  0.5104  0.4000  0.1749
44791SOL     OW40209   3.028   7.878   6.544 -1.0187 -0.3105 -0.4040
44791SOL    HW140210   3.018   7.943   6.614  0.0097 -0.1886 -0.3444
44791SOL    HW240211   3.015   7.927   6.463  0.0566  0.0606 -0.3714
44792SOL     OW40212   1.060   4.454   4.385  0.6258  0.7363 -0.1849
44792SOL    HW140213   1.144   4.454   4.337  1.2287 -0.2933  0.8082
44792SOL    HW240214   0.997   4.418   4.322  1.3525 -0.3547 -0.3240
44793SOL     OW40215  10.610   0.137   4.061 -0.6998 -1.0431 -0.2700
44793SOL    HW140216  10.567   0.124   4.146 -0.9498  1.4931  0.0518
44793SOL    HW240217  10.697   0.101   4.073 -0.8135 -0.9472  1.0012
44794SOL     OW40218   3.793   7.005   2.623 -0.4946 -0.5920  0.5069
44794SOL    HW140219   3.743   7.084   2.642 -0.4419 -0.3662 -0.2740
44794SOL    HW240220   3.760   6.941   2.686 -0.9408 -0.1116  0.7705
44795SOL     OW40221  11.277   1.303   0.840 -0.1475 -0.9860  0.5316
44795SOL    HW140222  11.214   1.292   0.769  0.4796 -0.5398 -0.1136
44795SOL    HW240223  11.229   1.348   0.909  0.0112  1.4513 -0.8300
44796SOL     OW40224  11.734  10.883   4.448  0.1672  0.0067  0.1976
44796SOL    HW140225  11.783  10.805   4.472  0.1538  0.6096  2.4877
44796SOL    HW240226  11.766  10.907   4.362 -1.4460 -3.7556 -1.6669
44797SOL     OW40227   3.221   1.393   8.892  0.9011 -0.5454  0.1313
44797SOL    HW140228   3.303   1.440   8.876  1.3754 -1.7932 -1.2543
44797SOL    HW240229   3.154   1.450   8.855  1.4809 -0.9487 -1.6190
44798SOL     OW40230   4.616  10.196  10.718  0.2491  0.6179  0.3437
44798SOL    HW140231   4.674  10.134  10.762  3.2195  3.2784  0.5339
44798SOL    HW240232   4.557  10.226  10.787  0.8603  0.3122  1.0153
44799SOL     OW40233   2.064  10.409   5.932 -0.2863 -0.0026  0.4468
44799SOL    HW140234   2.066  10.350   5.856 -0.8388 -1.7582  1.7215
44799SOL    HW240235   2.086  10.495   5.896 -2.9219 -0.2562 -2.1202
44800SOL     OW40236   8.455   2.441   1.080  0.3970  0.3942  0.3251
44800SOL    HW140237   8.542   2.403   1.068 -0.6109 -1.9070 -0.1167
44800SOL    HW240238   8.432   2.476   0.994  0.4975  0.1695  0.2075
44801SOL     OW40239   3.048  11.742   0.086  0.5359  0.4063 -0.0043
44801SOL    HW140240   3.086  11.742   0.173  0.6682 -1.1332 -0.0318
44801SOL    HW240241   3.112  11.694   0.032 -0.4230 -0.3321 -0.5120
44802SOL     OW40242  10.019   0.859   0.292 -0.4576  0.1626  0.3352
44802SOL    HW140243   9.932   0.845   0.255 -0.4995  0.4821  0.3122
44802SOL    HW240244  10.069   0.901   0.222  0.1803 -1.4152 -0.1966
44803SOL     OW40245   4.771  11.165   8.370  0.2028 -0.5800 -0.6096
44803SOL    HW140246   4.680  11.194   8.362  0.7244  2.0352  1.4396
44803SOL    HW240247   4.770  11.075   8.339 -3.3743 -1.1589  0.6482
44804SOL     OW40248   8.084   2.408   4.122  0.3355  0.3774  0.4335
44804SOL    HW140249   8.031   2.468   4.069 -0.7830 -0.4676  0.5422
44804SOL    HW240250   8.029   2.388   4.197  0.7422 -0.6542  0.4777
44805SOL     OW40251   9.234   2.205  11.698  0.0438  0.4075  0.1761
44805SOL    HW140252   9.325   2.188  11.677  0.0318 -0.9864  1.1273
44805SOL    HW240253   9.236   2.279  11.760  0.3633  1.5842 -1.1867
44806SOL     OW40254   0.575   6.904   6.725  0.1427  0.1227 -0.0142
44806SOL    HW140255   0.500   6.946   6.682  0.2504 -0.0383 -0.3678
44806SOL    HW240256   0.557   6.810   6.715  0.2521  0.0848  0.1525
44807SOL     OW40257   7.421   5.466   6.347 -0.0829 -0.3768  0.6543
44807SOL    HW140258   7.354   5.531   6.327  0.2010 -0.5654 -1.0431
44807SOL    HW240259   7.407   5.444   6.439  1.5948  4.1783  2.2751
44808SOL     OW40260   3.612   9.375   8.414  0.1924 -0.0294 -0.1681
44808SOL    HW140261   3.656   9.447   8.369  0.5452 -1.3033 -1.9702
44808SOL    HW240262   3.520   9.399   8.413  0.4288  0.9350  0.3134
44809SOL     OW40263   0.442   5.669   3.212 -0.0725 -0.3327 -0.1845
44809SOL    HW140264   0.460   5.750   3.163 -0.9771 -0.9885 -1.6627
44809SOL    HW240265   0.379   5.622   3.158 -1.5820 -0.8412  1.9204
44810SOL     OW40266   3.876   5.699   1.247 -0.1173 -0.3441  0.3624
44810SOL    HW140267   3.900   5.618   1.292 -0.4814  0.0603  1.3142
44810SOL    HW240268   3.782   5.707   1.263 -0.5257 -0.8000 -1.4989
44811SOL     OW40269   2.214   2.151   1.398 -0.0972  0.6271  0.5617
44811SOL    HW140270   2.134   2.149   1.450  1.0818 -0.4517  2.4940
44811SOL    HW240271   2.243   2.242   1.400 -0.5778  0.7696  1.0153
44812SOL     OW40272   3.655   2.348   4.928  0.3357  0.2616 -0.0519
44812SOL    HW140273   3.569   2.319   4.898  0.8181 -1.2799 -0.0604
44812SOL    HW240274   3.710   2.344   4.849  0.9125 -0.9273  0.3863
44813SOL     OW40275   9.193   7.572  12.263  0.2035  0.3866 -0.2389
44813SOL    HW140276   9.217   7.656  12.223  0.1622  0.7884  0.5663
44813SOL    HW240277   9.240   7.507  12.211 -0.0282  0.8800 -1.0802
44814SOL     OW40278   4.085   1.916  11.863 -0.2070 -0.3701 -0.1986
44814SOL    HW140279   4.162   1.860  11.879  0.3487 -0.7802 -3.6560
44814SOL    HW240280   4.120   2.005  11.863 -0.0412 -0.4353 -0.2702
44815SOL     OW40281  11.899   2.374   0.840  0.2202 -0.0025  0.2813
44815SOL    HW140282  11.877   2.402   0.929  0.8386  1.9297 -0.1235
44815SOL    HW240283  11.874   2.282   0.837  1.0372 -0.3870  2.7608
44816SOL     OW40284   0.464   1.726  11.288  0.0392 -0.3983  0.3931
44816SOL    HW140285   0.472   1.631  11.293 -1.6458 -0.6633 -0.9790
44816SOL    HW240286   0.372   1.743  11.308  0.1075  0.8584 -0.2778
44817SOL     OW40287   8.778   1.111   3.837  0.3420 -0.2363 -0.3328
44817SOL    HW140288   8.799   1.201   3.863 -0.5576 -0.0711 -0.1372
44817SOL    HW240289   8.704   1.087   3.892  0.6971 -1.1797 -0.2376
44818SOL     OW40290   6.836  11.513   4.766  0.2155  0.2060  0.0110
44818SOL    HW140291   6.820  11.512   4.671  0.8376 -0.0745 -0.0979
44818SOL    HW240292   6.885  11.432   4.782 -0.0330  0.1718  0.6009
44819SOL     OW40293   4.356   4.483   1.562 -0.0472 -0.3733 -0.0687
44819SOL    HW140294   4.276   4.527   1.534  0.3129  0.6293  0.4329
44819SOL    HW240295   4.327   4.395   1.585 -1.2538  0.3207  1.2527
44820SOL     OW40296   1.707   3.777   4.159  0.2322  0.2816 -0.0622
44820SOL    HW140297   1.644   3.746   4.095  1.5049  1.8231 -2.1894
44820SOL    HW240298   1.761   3.700   4.179 -1.0397 -0.5480  0.2694
44821SOL     OW40299  10.927   1.189   9.025 -0.1782 -0.2446 -0.1990
44821SOL    HW140300  10.945   1.096   9.011 -1.0189 -0.2454 -1.5202
44821SOL    HW240301  10.840   1.190   9.066 -0.5918 -0.0484 -1.0393
44822SOL     OW40302   0.205   4.517   4.006 -0.5912  0.0289 -0.3819
44822SOL    HW140303   0.207   4.523   4.102  0.5968 -0.3664 -0.3774
44822SOL    HW240304   0.111   4.519   3.985 -0.9184 -0.8606  0.8448
44823SOL     OW40305   4.939   2.192   0.184  0.2376  0.4655  0.6737
44823SOL    HW140306   4.908   2.277   0.153 -0.0452  0.8791  2.0286
44823SOL    HW240307   4.905   2.184   0.274  0.0514 -1.1855  0.5038
44824SOL     OW40308   6.531   7.399   3.514  0.0605 -0.0269 -0.5616
44824SOL    HW140309   6.608   7.455   3.521 -0.0052 -0.0571  0.6825
44824SOL    HW240310   6.559   7.317   3.555 -0.6328 -0.0324 -0.0924
44825SOL     OW40311   6.674   9.904   2.782  0.1688 -0.3810 -0.2098
44825SOL    HW140312   6.760   9.943   2.763  0.3630 -1.1904 -1.0308
44825SOL    HW240313   6.635   9.964   2.846  1.4796 -0.1841  0.4499
44826SOL     OW40314  12.210   6.727   7.619  0.1849  0.0205  0.4113
44826SOL    HW140315  12.151   6.777   7.675 -1.4908  0.1534 -1.3422
44826SOL    HW240316  12.168   6.641   7.612  0.0801  0.1596 -0.9789
44827SOL     OW40317   4.045  10.110   4.615  0.1326 -0.7826  0.2474
44827SOL    HW140318   3.955  10.140   4.633  0.0461 -0.7634 -0.1951
44827SOL    HW240319   4.091  10.190   4.589  0.0933 -0.9085 -0.2143
44828SOL     OW40320  11.089   2.871   1.477 -0.2604 -0.3216  0.2567
44828SOL    HW140321  11.161   2.856   1.538  0.7501 -1.3870 -1.1208
44828SOL    HW240322  11.108   2.957   1.438 -0.3103 -0.1369  0.6331
44829SOL     OW40323   4.963   9.233   8.944 -0.0463 -0.1594 -0.0211
44829SOL    HW140324   4.991   9.204   9.031  1.2018 -1.5735 -0.8445
44829SOL    HW240325   4.868   9.237   8.949  0.0303  0.1278  1.5021
44830SOL     OW40326   6.352   5.422   1.023  0.3393 -0.7749  0.8575
44830SOL    HW140327   6.296   5.486   0.979  3.7692  0.8879 -1.5357
44830SOL    HW240328   6.380   5.467   1.103 -1.1146 -1.3401  1.7108
44831SOL     OW40329   5.870   1.505   9.069 -0.4325  0.7898 -0.3660
44831SOL    HW140330   5.777   1.520   9.082 -0.5898  0.0639 -0.6018
44831SOL    HW240331   5.874   1.426   9.015  0.3427  0.1148  0.6482
44832SOL     OW40332   3.904   2.618   9.371 -0.2265 -0.2709 -0.2378
44832SOL    HW140333   3.960   2.672   9.316 -0.0123 -0.6096 -0.3570
44832SOL    HW240334   3.926   2.528   9.346 -1.3533 -0.4012 -0.8281
44833SOL     OW40335   7.585   7.285  12.148  0.4093 -0.5544 -0.6346
44833SOL    HW140336   7.565   7.371  12.184 -0.2600 -1.1684  0.5139
44833SOL    HW240337   7.663   7.299  12.094  0.7798  0.6124  0.1630
44834SOL     OW40338   7.105   2.195  10.212  0.0818  0.0996  0.0633
44834SOL    HW140339   7.192   2.156  10.214  0.1366  0.1484 -1.0047
44834SOL    HW240340   7.076   2.194  10.304  0.0216 -2.5750  0.0780
44835SOL     OW40341   3.226   1.894   4.276 -0.2820  0.2250 -0.2959
44835SOL    HW140342   3.280   1.971   4.258 -1.5030  1.0273 -0.6978
44835SOL    HW240343   3.147   1.908   4.224 -1.6732  0.0003  1.6720
44836SOL     OW40344   4.569   2.625   5.089 -0.1991 -0.2391 -0.1072
44836SOL    HW140345   4.483   2.612   5.129  0.0260  1.3875  1.0100
44836SOL    HW240346   4.564   2.711   5.047  0.9305 -0.0284  0.1529
44837SOL     OW40347  10.096   6.709   1.255  0.1295  0.3387  0.2346
44837SOL    HW140348  10.089   6.804   1.243 -1.5040  0.1373 -0.8598
44837SOL    HW240349  10.062   6.673   1.173 -1.2899 -1.1900  1.4345
44838SOL     OW40350   8.406   5.753   7.975  0.0855  0.1001 -0.0808
44838SOL    HW140351   8.451   5.806   7.909  0.9540  0.8495  1.0645
44838SOL    HW240352   8.322   5.731   7.935 -0.4012  2.5147 -0.5705
44839SOL     OW40353   5.450   7.953   0.749 -0.5603 -0.4711  0.1412
44839SOL    HW140354   5.534   7.938   0.792  0.1721 -0.6400 -1.2972
44839SOL    HW240355   5.398   7.875   0.768  0.0144 -0.8648  0.0989
44840SOL     OW40356   4.437   3.795   4.326  0.1013 -0.1891  0.2689
44840SOL    HW140357   4.371   3.813   4.259 -1.1120  0.5756  1.5960
44840SOL    HW240358   4.479   3.880   4.341 -1.5214  0.3235  2.3460
44841SOL     OW40359   2.497   0.319   1.799 -0.0241  0.6137 -0.1284
44841SOL    HW140360   2.590   0.298   1.809  0.1698  1.6136  0.3548
44841SOL    HW240361   2.478   0.299   1.707  0.2952 -0.9304  0.1174
44842SOL     OW40362   5.253   3.471   3.352 -0.4037 -0.0026 -0.0938
44842SOL    HW140363   5.187   3.471   3.283  0.4578  0.8331 -0.9398
44842SOL    HW240364   5.295   3.557   3.346  1.7518 -1.0210 -0.5499
44843SOL     OW40365   5.223   6.440   6.719 -0.0534  0.0015 -0.1309
44843SOL    HW140366   5.199   6.486   6.799 -1.3161 -0.5538 -0.1669
44843SOL    HW240367   5.294   6.492   6.682  0.0480  0.6692  0.9682
44844SOL     OW40368   7.181  11.421   1.312  0.1497  0.1257  0.3497
44844SOL    HW140369   7.180  11.332   1.277  1.3215  0.3760 -0.4016
44844SOL    HW240370   7.107  11.465   1.269  0.4462 -0.0919 -0.3968
44845SOL     OW40371   8.781  10.079   5.056 -0.4571  0.8372 -0.2007
44845SOL    HW140372   8.751  10.075   5.146  3.7345 -0.5614  1.3576
44845SOL    HW240373   8.756   9.995   5.018  0.4169  0.1439  0.7029
44846SOL     OW40374   1.286  11.622   9.992  0.2555  0.9634 -0.2930
44846SOL    HW140375   1.325  11.689  10.048  0.8569  0.8522 -0.5707
44846SOL    HW240376   1.279  11.545  10.048  2.3909  0.3455 -0.7849
44847SOL     OW40377   3.392   6.669   6.290  0.2717 -0.0514  0.1175
44847SOL    HW140378   3.310   6.717   6.307  0.4241  0.0032  0.7151
44847SOL    HW240379   3.368   6.605   6.223 -0.5118 -0.6951  0.9848
44848SOL     OW40380   2.037   0.343   7.334 -0.1910 -0.7255 -0.8465
44848SOL    HW140381   2.049   0.306   7.246 -1.9251 -0.1872 -1.3507
44848SOL    HW240382   1.948   0.316   7.359 -0.2465  0.3208  0.1504
44849SOL     OW40383   1.304  11.388   2.393 -0.1493 -0.1000 -0.4442
44849SOL    HW140384   1.359  11.312   2.375  0.3120  0.3808 -1.1010
44849SOL    HW240385   1.243  11.392   2.320 -1.3673 -0.8894  0.5023
44850SOL     OW40386  10.905   7.200   1.950  0.5658  0.0329  0.2670
44850SOL    HW140387  10.901   7.119   2.001  2.1033 -1.1552 -1.3792
44850SOL    HW240388  10.820   7.204   1.906  0.2058 -0.2738  0.9025
44851SOL     OW40389  12.030   9.420   9.223 -0.1210  0.4337  0.2950
44851SOL    HW140390  11.962   9.362   9.188  0.7158 -0.1955 -0.3292
44851SOL    HW240391  12.011   9.506   9.183 -1.1332  0.5228  0.9204
44852SOL     OW40392   9.988   6.312   2.296  0.0164 -0.1624  0.1254
44852SOL    HW140393   9.973   6.353   2.381 -0.9740 -0.5763  0.1630
44852SOL    HW240394  10.019   6.382   2.240 -0.6645  0.4142  0.4605
44853SOL     OW40395   8.069   4.317  10.917  0.0270 -0.1364  0.0259
44853SOL    HW140396   8.115   4.396  10.948 -0.1634  0.0565 -0.1754
44853SOL    HW240397   8.099   4.306  10.827 -0.8681  0.4257 -0.3665
44854SOL     OW40398   2.899  11.464  12.296 -0.1860 -0.5905  0.2246
44854SOL    HW140399   2.987  11.440  12.326 -0.1325  0.8863  1.3647
44854SOL    HW240400   2.914  11.509  12.213 -0.1036 -2.3858 -0.7831
44855SOL     OW40401   7.602   7.727   2.559  0.3152  0.4706 -0.4743
44855SOL    HW140402   7.691   7.761   2.572  1.3898 -2.2725  0.1261
44855SOL    HW240403   7.593   7.720   2.464  0.1798  2.0204 -0.5992
44856SOL     OW40404   9.831   8.393  12.268  0.1611  0.1586 -0.3177
44856SOL    HW140405   9.827   8.444  12.349  0.3716  1.7574 -1.2579
44856SOL    HW240406   9.909   8.425  12.223 -0.6225  0.2221 -1.7031
44857SOL     OW40407  10.710  11.786   5.535  0.1566  0.0771 -0.4952
44857SOL    HW140408  10.764  11.774   5.457  1.1551 -0.7503  0.2927
44857SOL    HW240409  10.623  11.805   5.501  0.6370  0.0418 -1.8105
44858SOL     OW40410   5.575   4.833   2.726  0.0246 -0.4683  0.8355
44858SOL    HW140411   5.606   4.858   2.639 -0.9987  0.5137  0.7284
44858SOL    HW240412   5.645   4.779   2.762 -0.2033 -2.2838 -1.2194
44859SOL     OW40413   0.121  10.320   5.947  0.2278  0.3301 -0.0538
44859SOL    HW140414   0.136  10.321   5.852  0.9349 -0.7297  0.0192
44859SOL    HW240415   0.066  10.396   5.964 -0.7346 -0.0100 -1.4544
44860SOL     OW40416  11.934   6.388   8.313  0.7214 -0.6786 -0.1223
44860SOL    HW140417  11.989   6.409   8.389  0.6437 -1.6008  0.2015
44860SOL    HW240418  11.931   6.469   8.263  0.8981 -0.0923  0.7823
44861SOL     OW40419   6.700   5.366   8.150 -0.2782 -0.0237  0.0908
44861SOL    HW140420   6.701   5.443   8.093 -0.2785 -0.6867 -0.8418
44861SOL    HW240421   6.669   5.295   8.093 -0.8870 -0.5903  1.0926
44862SOL     OW40422   8.330   3.568   5.039  0.0685  0.2656 -0.6014
44862SOL    HW140423   8.420   3.580   5.068 -0.1715 -0.5387  0.5366
44862SOL    HW240424   8.287   3.651   5.059  0.3780  0.4045 -0.5030
44863SOL     OW40425   9.970  11.422   5.094  0.1939 -0.0209  0.3328
44863SOL    HW140426   9.903  11.354   5.103 -0.3440  0.3130 -0.9044
44863SOL    HW240427  10.051  11.374   5.078 -0.0225 -0.3998  0.3548
44864SOL     OW40428   4.299   3.091   2.155  0.0094 -0.2583  0.4401
44864SOL    HW140429   4.300   3.162   2.219 -1.5729 -0.5669  0.8453
44864SOL    HW240430   4.333   3.131   2.075  1.4934  0.2740  1.3020
44865SOL     OW40431   6.459   1.783   5.870  0.3503  0.3447  0.2711
44865SOL    HW140432   6.434   1.870   5.900 -0.0043  0.5118 -0.4840
44865SOL    HW240433   6.429   1.779   5.780 -0.4543 -0.8822  0.5560
44866SOL     OW40434   7.171  10.885   9.715  0.5448  0.0355 -0.8626
44866SOL    HW140435   7.096  10.932   9.751  1.4924  1.2110 -0.3521
44866SOL    HW240436   7.214  10.948   9.658  1.6647 -0.3034 -0.4151
44867SOL     OW40437   9.182  10.204   1.857  0.2522 -0.1139 -0.1738
44867SOL    HW140438   9.123  10.130   1.848  2.7233 -2.2249 -0.3710
44867SOL    HW240439   9.194  10.214   1.952  0.8688 -0.8192 -0.1715
44868SOL     OW40440   8.757   8.940   6.650  0.4597 -0.5448  0.2128
44868SOL    HW140441   8.751   9.030   6.619  0.1528 -0.5281  0.3244
44868SOL    HW240442   8.851   8.927   6.667  0.8426 -0.8986 -1.7926
44869SOL     OW40443   1.289   8.791   8.542  0.0881  0.1498  0.0552
44869SOL    HW140444   1.243   8.784   8.458 -1.3891 -0.5958  0.8791
44869SOL    HW240445   1.284   8.703   8.580  1.9573  0.1336  0.3348
44870SOL     OW40446   5.130   9.432  12.138  0.2414  0.0926  0.1013
44870SOL    HW140447   5.139   9.371  12.212  2.1292 -0.3971 -0.4531
44870SOL    HW240448   5.091   9.379  12.069 -0.7486  0.3161  0.4841
44871SOL     OW40449   6.421   5.997   2.027  0.2400 -0.0539  0.6513
44871SOL    HW140450   6.460   6.083   2.013  1.6924 -0.9338 -1.1960
44871SOL    HW240451   6.331   6.006   1.994  0.9511  0.3071 -1.3781
44872SOL     OW40452   6.462   0.976   5.648  0.1497 -0.2491  0.6634
44872SOL    HW140453   6.405   0.969   5.725 -0.5048  0.4298  0.2641
44872SOL    HW240454   6.437   0.902   5.593 -1.0326  0.5487  0.0764
44873SOL     OW40455   2.640   1.442   6.562 -0.4695 -0.0614  0.4083
44873SOL    HW140456   2.545   1.437   6.547 -0.2601 -1.2121 -0.7063
44873SOL    HW240457   2.653   1.401   6.648 -0.7340 -2.6641 -0.6866
44874SOL     OW40458  11.614  11.000   1.077  0.5478  0.4458 -0.4630
44874SOL    HW140459  11.522  11.020   1.058 -0.9053 -3.3378  1.5565
44874SOL    HW240460  11.651  10.974   0.992 -0.5941  0.7707 -1.0815
44875SOL     OW40461   1.268  12.214   9.524  0.0760 -0.5022 -0.1827
44875SOL    HW140462   1.333  12.163   9.571  0.7703  2.0375  1.8347
44875SOL    HW240463   1.229  12.272   9.590 -1.0523  1.1677 -2.1600
44876SOL     OW40464  10.172   9.157   5.235 -0.1386 -0.4448 -0.0790
44876SOL    HW140465  10.201   9.164   5.325 -0.5457 -0.7206  0.0766
44876SOL    HW240466  10.092   9.105   5.239  0.5190 -1.5648 -0.7280
44877SOL     OW40467   2.478   2.202  10.083 -0.0401  0.3134 -0.2103
44877SOL    HW140468   2.500   2.189  10.175  1.6842  1.2494 -0.4398
44877SOL    HW240469   2.488   2.296  10.068 -0.2194  0.1727 -1.3701
44878SOL     OW40470   6.376   4.950   5.546  0.7921  0.1373  0.4706
44878SOL    HW140471   6.297   4.897   5.532  0.9607 -0.3328  1.2631
44878SOL    HW240472   6.374   5.014   5.475  0.0800 -0.3289  0.0530
44879SOL     OW40473  10.530  11.028   7.190  0.0474  0.0603  0.5236
44879SOL    HW140474  10.489  10.978   7.260  2.0284 -1.0750  0.9424
44879SOL    HW240475  10.513  11.120   7.213  1.4152 -0.2368  3.0660
44880SOL     OW40476   9.185   5.282   7.323 -0.5990  0.7241  0.5197
44880SOL    HW140477   9.255   5.218   7.329  0.0348  1.3721  0.2409
44880SOL    HW240478   9.143   5.263   7.239  0.2982  1.3643 -0.0909
44881SOL     OW40479   7.039   0.330   9.706 -0.2682  0.0718 -0.0991
44881SOL    HW140480   7.129   0.349   9.680 -0.2188  0.8524  0.6127
44881SOL    HW240481   7.047   0.261   9.773 -0.2008  0.1524 -0.0243
44882SOL     OW40482   5.771   7.177   1.553  0.2872  0.4269  0.3598
44882SOL    HW140483   5.702   7.190   1.619 -0.1820  0.0350 -0.0440
44882SOL    HW240484   5.726   7.135   1.480  1.1066 -0.4596  0.3596
44883SOL     OW40485   9.287  10.502   8.951 -0.2987 -0.2648  0.2310
44883SOL    HW140486   9.348  10.557   8.901 -0.9423  0.0231 -0.2524
44883SOL    HW240487   9.203  10.548   8.946 -0.5822 -0.7074  0.8020
44884SOL     OW40488   5.488  11.189   4.914 -0.8698  0.5935 -0.4146
44884SOL    HW140489   5.400  11.163   4.886 -0.6204  0.0857 -0.7601
44884SOL    HW240490   5.476  11.228   5.000 -1.1512 -1.8879  0.7765
44885SOL     OW40491  10.225   1.302   6.382  0.1251  0.4546 -0.3789
44885SOL    HW140492  10.247   1.210   6.399 -2.6905 -0.5295 -1.4247
44885SOL    HW240493  10.262   1.350   6.456 -0.9884 -1.9374  1.8913
44886SOL     OW40494   5.708   6.525   2.705  0.3828 -0.6106 -0.1460
44886SOL    HW140495   5.732   6.486   2.788  0.4086  1.3615  0.8462
44886SOL    HW240496   5.658   6.604   2.729 -0.1067 -0.3096 -1.9996
44887SOL     OW40497   5.596  10.799   1.313 -0.0750 -0.1452 -0.0786
44887SOL    HW140498   5.611  10.737   1.241  0.0527  1.3911 -1.4110
44887SOL    HW240499   5.548  10.747   1.378  0.2073 -1.7096 -1.0474
44888SOL     OW40500  10.329  10.242   6.912 -0.1596 -0.2454 -0.4327
44888SOL    HW140501  10.346  10.187   6.836  0.7005 -0.9108  0.2199
44888SOL    HW240502  10.243  10.280   6.895  0.2682  0.0967 -2.0056
44889SOL     OW40503   0.158   1.150  10.107  0.3608 -0.2808 -0.4786
44889SOL    HW140504   0.219   1.166  10.035  1.2125  0.8781  0.4501
44889SOL    HW240505   0.207   1.096  10.169 -0.5646 -1.7721 -1.0006
44890SOL     OW40506   1.889   0.278   9.992 -0.2405 -0.0165  0.2019
44890SOL    HW140507   1.961   0.305  10.049  1.6020 -0.0088 -2.0135
44890SOL    HW240508   1.897   0.334   9.915 -2.7173  0.0441 -0.0880
44891SOL     OW40509   6.358   4.748   4.013 -0.6736  0.0771 -0.0280
44891SOL    HW140510   6.441   4.703   4.034 -1.5968 -1.8911 -0.3679
44891SOL    HW240511   6.378   4.801   3.936  0.5013  0.3774  0.4598
44892SOL     OW40512  11.394   0.267   4.790  0.4279  1.0109 -0.4456
44892SOL    HW140513  11.320   0.325   4.773  0.5323  0.6849 -2.2218
44892SOL    HW240514  11.433   0.252   4.704  2.0511  0.4817  0.3284
44893SOL     OW40515   2.769   5.379   2.168  0.5143 -0.8850 -0.5585
44893SOL    HW140516   2.734   5.290   2.170 -0.5296 -0.4762 -0.2997
44893SOL    HW240517   2.763   5.406   2.076 -1.1210 -0.3360 -0.3123
44894SOL     OW40518   6.898   6.653   5.620 -0.0530 -0.0390  0.2150
44894SOL    HW140519   6.838   6.701   5.677 -0.7412  0.0328 -0.5390
44894SOL    HW240520   6.984   6.662   5.661 -0.2510  1.3744  0.3790
44895SOL     OW40521   4.391   6.546  10.784  0.1193  0.5016 -0.4960
44895SOL    HW140522   4.430   6.532  10.870  0.7202  2.1264 -0.4573
44895SOL    HW240523   4.317   6.604  10.800 -1.7345 -1.6993 -0.7122
44896SOL     OW40524   5.956   5.341  10.782 -0.3475 -0.3245  0.7672
44896SOL    HW140525   5.982   5.421  10.737 -1.6116  0.2002  0.9447
44896SOL    HW240526   5.976   5.271  10.720  0.0516  0.1847  0.3083
44897SOL     OW40527   0.016  11.219   7.933  0.1949  0.1849 -0.3249
44897SOL    HW140528   0.006  11.308   7.899 -0.7510  0.2762  0.1562
44897SOL    HW240529   0.049  11.169   7.858  0.4173  0.8693 -0.6941
44898SOL     OW40530   2.980   1.136   5.938 -0.6764  0.0663 -0.7709
44898SOL    HW140531   2.945   1.085   6.011 -0.6678  0.9420 -0.1312
44898SOL    HW240532   2.909   1.195   5.914 -1.9723 -2.4308 -3.7674
44899SOL     OW40533   5.272   0.681   0.653  0.0684 -0.0992 -0.2412
44899SOL    HW140534   5.248   0.728   0.733  1.3926 -0.1589  0.2212
44899SOL    HW240535   5.200   0.620   0.638 -0.6474  0.5796  0.3621
44900SOL     OW40536  10.311   1.477   4.400  0.1503  0.0639  0.3380
44900SOL    HW140537  10.404   1.458   4.415  0.4263  0.3166 -0.9028
44900SOL    HW240538  10.287   1.421   4.327 -0.2424  1.1397 -0.3861
44901SOL     OW40539   6.426   7.365   9.343  0.2946  0.0511  0.1508
44901SOL    HW140540   6.362   7.426   9.305 -0.2642 -1.7075 -1.9583
44901SOL    HW240541   6.510   7.409   9.333 -0.2438  1.0918  0.0546
44902SOL     OW40542   4.022   1.743  12.140 -0.3450  0.3971 -0.4194
44902SOL    HW140543   4.078   1.782  12.207 -1.3490  1.0698  0.0379
44902SOL    HW240544   3.978   1.817  12.098 -1.1113 -0.1407 -0.5871
44903SOL     OW40545   0.348   6.477  11.553 -0.2791 -0.5880  0.2248
44903SOL    HW140546   0.354   6.535  11.629 -0.1401 -0.1142 -0.1452
44903SOL    HW240547   0.402   6.518  11.486 -1.6912 -0.1452 -0.6881
44904SOL     OW40548   5.620   6.653   1.753  0.1883  0.5973 -0.5473
44904SOL    HW140549   5.663   6.625   1.834 -0.5089  1.5452  0.1803
44904SOL    HW240550   5.685   6.638   1.684  0.0313 -2.2650 -0.1678
44905SOL     OW40551   1.440   5.938  11.316 -0.4167  0.0950  0.1109
44905SOL    HW140552   1.500   5.969  11.384 -0.6368 -0.2185  0.4584
44905SOL    HW240553   1.455   5.844  11.312 -0.6437  0.0644 -0.0383
44906SOL     OW40554   2.818   9.969   8.300 -0.8975  0.4794  0.7228
44906SOL    HW140555   2.730   9.930   8.301 -1.2399  1.2068  2.9869
44906SOL    HW240556   2.877   9.894   8.308 -1.2276 -0.0454 -1.1012
44907SOL     OW40557  11.458   8.727   2.585  0.1767  0.1101  0.2271
44907SOL    HW140558  11.497   8.808   2.552 -0.3043  0.4308  0.4493
44907SOL    HW240559  11.511   8.658   2.544  1.2889  0.5286  0.8918
44908SOL     OW40560   1.632   7.868   2.198 -0.4123 -0.2202 -0.2355
44908SOL    HW140561   1.671   7.794   2.244 -1.5125 -0.6066  0.1058
44908SOL    HW240562   1.550   7.885   2.245 -0.8620  0.2938 -1.1810
44909SOL     OW40563   5.673   9.072   6.775  0.2998  1.0311  0.2240
44909SOL    HW140564   5.679   9.000   6.713 -0.3246  1.5657 -0.4664
44909SOL    HW240565   5.738   9.051   6.843  0.8729  0.3702 -0.5206
44910SOL     OW40566   4.149   9.706  10.026  0.3067 -0.7299 -0.4301
44910SOL    HW140567   4.204   9.710   9.947  1.6058 -3.0512  0.2338
44910SOL    HW240568   4.205   9.740  10.096 -0.0995 -0.5536 -0.1906
44911SOL     OW40569   2.800   2.991   3.167  0.1497 -0.5135 -0.4027
44911SOL    HW140570   2.856   2.978   3.243  2.3102 -0.6988 -1.9323
44911SOL    HW240571   2.726   3.043   3.200  1.3000 -0.0877  1.6692
44912SOL     OW40572   3.732   3.557   6.693 -0.5120 -0.2199  0.2997
44912SOL    HW140573   3.722   3.625   6.759  0.3684  0.7137 -0.4946
44912SOL    HW240574   3.665   3.575   6.628 -0.9684 -0.7605  0.6129
44913SOL     OW40575   7.980   1.167   8.895  1.0472  0.3280 -0.4747
44913SOL    HW140576   7.941   1.104   8.955  1.1435  0.9633  0.2676
44913SOL    HW240577   8.038   1.115   8.840  1.7716 -0.1128  0.6747
44914SOL     OW40578   4.751   6.601   7.264  0.2516  0.0464  0.4018
44914SOL    HW140579   4.659   6.619   7.282  0.8033  1.3043  2.2288
44914SOL    HW240580   4.751   6.513   7.225 -1.6406 -0.3107  1.1165
44915SOL     OW40581   2.724  12.053   9.909 -0.5466 -0.6376 -0.2454
44915SOL    HW140582   2.759  11.989   9.847 -1.7282 -0.2798 -1.3504
44915SOL    HW240583   2.636  12.072   9.875 -0.9368  0.1413  1.1398
44916SOL     OW40584   5.359   9.234   3.315  0.1631  0.1318 -0.2529
44916SOL    HW140585   5.378   9.166   3.380 -1.6634 -0.1419  0.0543
44916SOL    HW240586   5.312   9.301   3.365  0.1182  0.6517 -0.9853
44917SOL     OW40587   1.665   2.556   6.404 -0.9234 -0.3014  0.1640
44917SOL    HW140588   1.637   2.477   6.450 -0.2556 -0.5610  0.1415
44917SOL    HW240589   1.761   2.552   6.407 -0.8730  0.9895  0.9933
44918SOL     OW40590   9.469   8.508   3.928 -0.0748  0.2147 -0.1115
44918SOL    HW140591   9.530   8.526   3.857  0.6228 -0.3686  0.3280
44918SOL    HW240592   9.392   8.471   3.885 -0.3810  1.5141 -0.7326
44919SOL     OW40593   0.191   7.071   1.241 -0.1948 -0.2622  0.2428
44919SOL    HW140594   0.282   7.057   1.215 -0.3063  0.7584 -0.7735
44919SOL    HW240595   0.145   6.994   1.206 -0.2389  0.7805 -2.1978
44920SOL     OW40596  10.666   3.618   0.496 -0.0722 -0.1882 -0.2786
44920SOL    HW140597  10.656   3.557   0.569 -0.3093  0.6206  0.3804
44920SOL    HW240598  10.760   3.618   0.478  0.3352  1.2515  1.5133
44921SOL     OW40599   9.072  12.147   2.374  0.0939 -0.8322  0.4622
44921SOL    HW140600   9.034  12.084   2.313 -0.6698  0.6229 -0.6512
44921SOL    HW240601   9.011  12.148   2.448 -0.6143 -0.4784 -0.1054
44922SOL     OW40602   6.693   3.840   2.707  0.5428  0.1505 -0.3013
44922SOL    HW140603   6.689   3.752   2.746  1.6276  0.5236  0.6887
44922SOL    HW240604   6.751   3.889   2.764 -0.6086  1.7460 -0.4470
44923SOL     OW40605  12.253   9.774   0.659  0.3326 -0.0230  0.3063
44923SOL    HW140606  12.344   9.794   0.683  0.8277 -2.7371  1.1253
44923SOL    HW240607  12.250   9.678   0.657 -2.0782  0.0011 -1.5703
44924SOL     OW40608   0.914   3.755   7.260 -0.4639  0.2054 -0.7531
44924SOL    HW140609   0.956   3.736   7.176 -3.5373 -1.3858 -2.1054
44924SOL    HW240610   0.877   3.842   7.250 -1.9925 -0.5060 -1.6697
44925SOL     OW40611  11.327   8.653   2.818  0.4477  0.4291 -0.0986
44925SOL    HW140612  11.340   8.706   2.739 -0.2559  1.6294  0.5531
44925SOL    HW240613  11.270   8.707   2.873  2.5853  0.5793  2.1179
44926SOL     OW40614   3.936   1.340   9.978 -0.2345  0.2169 -0.2685
44926SOL    HW140615   3.867   1.355   9.913  0.6169  2.4137 -0.7685
44926SOL    HW240616   4.016   1.329   9.927  0.3234  1.2121  0.3466
44927SOL     OW40617   3.171   2.128  10.145 -0.1786  0.4457 -0.3768
44927SOL    HW140618   3.137   2.183  10.215  1.3449  0.5841  0.2948
44927SOL    HW240619   3.117   2.049  10.148 -0.0578  0.3944  1.0593
44928SOL     OW40620  10.926   5.900   5.060 -0.2783 -0.0187 -0.0786
44928SOL    HW140621  10.987   5.846   5.010  0.0091  0.0076  0.2383
44928SOL    HW240622  10.961   5.899   5.149  0.3032  1.5041 -0.2635
44929SOL     OW40623   7.153   0.061   8.498  0.4779  0.0388  0.0987
44929SOL    HW140624   7.226   0.059   8.435  0.5430 -2.5760  0.1135
44929SOL    HW240625   7.191   0.098   8.577  1.1804  0.7596 -0.5619
44930SOL     OW40626   2.710  11.482   6.479  0.2359 -0.0921  0.2708
44930SOL    HW140627   2.782  11.425   6.506  0.8112  0.4406 -0.1034
44930SOL    HW240628   2.700  11.464   6.385  0.1264  0.0936  0.2460
44931SOL     OW40629   7.634   9.814  11.753 -0.5898  0.3145  0.3769
44931SOL    HW140630   7.612   9.829  11.661 -0.5845 -0.1694  0.2911
44931SOL    HW240631   7.616   9.897  11.796 -3.3084 -0.2137  0.4513
44932SOL     OW40632   8.967   3.747  11.534  0.0620  0.2968  0.1697
44932SOL    HW140633   8.885   3.772  11.577  0.5418 -1.6654  2.3940
44932SOL    HW240634   9.002   3.830  11.500 -2.4188  1.3051 -0.1935
44933SOL     OW40635   7.113   8.648   1.985 -0.4179  0.4930  0.6695
44933SOL    HW140636   7.083   8.686   1.903 -1.7917 -1.0295  0.4043
44933SOL    HW240637   7.181   8.586   1.960 -1.3154 -0.4745  0.5816
44934SOL     OW40638   9.325   1.574   9.161  0.2585  0.2347 -0.4020
44934SOL    HW140639   9.257   1.526   9.114 -0.0564 -1.1143  1.3690
44934SOL    HW240640   9.336   1.527   9.244 -0.2679  3.3595  1.5912
44935SOL     OW40641   3.568   5.755   6.102 -0.1340  0.1166  0.1696
44935SOL    HW140642   3.547   5.843   6.071  0.5063  0.1238 -0.2571
44935SOL    HW240643   3.503   5.699   6.061 -1.1535  0.4945  1.2014
44936SOL     OW40644   9.410   3.318   5.572  0.4145 -0.7094  0.1441
44936SOL    HW140645   9.452   3.400   5.549  0.3749 -1.0826 -1.3543
44936SOL    HW240646   9.332   3.315   5.517  1.6638 -2.8268 -1.7220
44937SOL     OW40647   7.788   6.715   8.412  0.8075  0.1106  0.3408
44937SOL    HW140648   7.749   6.784   8.466  0.8846  1.7372 -1.5280
44937SOL    HW240649   7.766   6.741   8.322  0.0614 -2.8336 -0.4172
44938SOL     OW40650   1.799  11.463  10.932  0.0706  0.2766 -0.6158
44938SOL    HW140651   1.888  11.451  10.900  0.1818  1.0486 -0.6212
44938SOL    HW240652   1.778  11.382  10.977  0.3440 -0.3651 -1.6201
44939SOL     OW40653   5.029   7.361   3.486  0.2290 -0.5029 -0.1144
44939SOL    HW140654   4.968   7.340   3.415  2.1524  1.1662 -2.3855
44939SOL    HW240655   5.022   7.456   3.497  3.4573  0.0521 -1.6337
44940SOL     OW40656  11.755   3.004   9.110  0.9400 -0.1197 -0.1781
44940SOL    HW140657  11.743   3.062   9.185  0.9860  1.0547 -1.0426
44940SOL    HW240658  11.670   3.003   9.066  0.5595 -1.7830  0.5366
44941SOL     OW40659   0.270   9.683   4.082  0.1203  0.5732  0.4334
44941SOL    HW140660   0.324   9.604   4.092 -0.5329 -0.0390 -0.6208
44941SOL    HW240661   0.264   9.695   3.987  0.8443  2.3587  0.5719
44942SOL     OW40662   2.053  11.447   9.417 -0.0059  0.2644  0.9088
44942SOL    HW140663   2.103  11.401   9.484  0.3685  0.7779  0.9919
44942SOL    HW240664   2.030  11.530   9.458 -0.4290  0.2674  0.6653
44943SOL     OW40665   6.819  11.701  11.425 -0.1118  0.6199  0.5777
44943SOL    HW140666   6.867  11.781  11.404 -1.3696  1.4227  0.6724
44943SOL    HW240667   6.885  11.643  11.463  1.1559  0.9987 -0.9315
44944SOL     OW40668   0.451   9.985   2.648  0.1945 -0.5175  0.4470
44944SOL    HW140669   0.437   9.938   2.730 -1.0428 -0.4679  0.2871
44944SOL    HW240670   0.544   9.972   2.628 -0.0149 -2.5982  0.5923
44945SOL     OW40671   9.175   6.186   6.078  0.0806  0.6255 -0.2617
44945SOL    HW140672   9.250   6.244   6.092  0.5711  0.0457 -0.4828
44945SOL    HW240673   9.113   6.210   6.148  0.2177  1.4978 -0.4186
44946SOL     OW40674   2.226   4.140   7.091  0.4253  0.0041 -0.4817
44946SOL    HW140675   2.197   4.062   7.045 -0.9551 -0.3439  0.9066
44946SOL    HW240676   2.320   4.127   7.104  0.8332  0.0532 -2.9796
44947SOL     OW40677   8.185   0.680   0.975  0.0699  0.3380  0.2378
44947SOL    HW140678   8.200   0.714   0.886  1.6913 -0.5040  0.1368
44947SOL    HW240679   8.270   0.689   1.018 -0.7203  0.8159  1.7524
44948SOL     OW40680   2.910   9.495   6.787 -0.0733 -0.1693  0.1733
44948SOL    HW140681   2.986   9.552   6.793 -0.7505  0.9921 -1.4671
44948SOL    HW240682   2.891   9.491   6.693 -1.8721 -0.6387  0.5252
44949SOL     OW40683   0.467   4.813   4.896 -0.4058 -0.2753 -0.1729
44949SOL    HW140684   0.457   4.718   4.902  1.2488 -0.4614  0.1044
44949SOL    HW240685   0.546   4.825   4.844 -0.6376  0.9573 -0.2560
44950SOL     OW40686  10.477   3.216   3.734 -0.2039  0.2185  0.0001
44950SOL    HW140687  10.444   3.204   3.824  0.6363 -0.1441  0.2697
44950SOL    HW240688  10.401   3.247   3.685 -0.9179 -0.4698  0.6308
44951SOL     OW40689   4.334   4.902   7.485 -0.6970 -0.3170 -0.0551
44951SOL    HW140690   4.328   4.979   7.428  0.3683  0.7787  1.2291
44951SOL    HW240691   4.369   4.833   7.429  1.8485  1.1466 -0.4272
44952SOL     OW40692   6.826   9.235  11.120  0.2644 -0.0693  0.0538
44952SOL    HW140693   6.895   9.259  11.059  1.0478  0.0014  0.9304
44952SOL    HW240694   6.777   9.166  11.076 -1.4331  2.3386 -2.1345
44953SOL     OW40695   0.578   2.060  11.558 -0.0236 -0.2075 -0.5145
44953SOL    HW140696   0.570   2.119  11.633  1.2422 -0.4090 -0.1903
44953SOL    HW240697   0.591   1.974  11.597  1.9086 -0.1412 -0.9127
44954SOL     OW40698   3.968  11.190   4.294 -0.5989 -0.2752 -0.0652
44954SOL    HW140699   3.877  11.162   4.300 -1.3510  1.4678 -2.1141
44954SOL    HW240700   3.968  11.282   4.320  0.6858 -0.3887  0.4295
44955SOL     OW40701   9.626   3.151  11.997  0.0105 -0.2247  0.1578
44955SOL    HW140702   9.672   3.212  11.938 -0.1595  0.7773  1.0380
44955SOL    HW240703   9.541   3.137  11.955 -0.3286  0.9287  0.4279
44956SOL     OW40704   5.626   3.799   2.230 -0.0467  0.5711 -0.0362
44956SOL    HW140705   5.549   3.834   2.185 -1.0542 -2.1329 -0.6315
44956SOL    HW240706   5.663   3.736   2.168 -0.1980 -1.6849  2.0048
44957SOL     OW40707   9.994   4.697   0.953 -0.2289 -0.1477 -0.0659
44957SOL    HW140708   9.963   4.624   0.898 -1.0388 -0.6851  1.0490
44957SOL    HW240709   9.990   4.662   1.042  1.8072  0.4357  0.3068
44958SOL     OW40710   0.493  10.727   1.963 -0.0039  0.3903 -0.2343
44958SOL    HW140711   0.414  10.676   1.975  0.7715 -0.3825  2.0687
44958SOL    HW240712   0.468  10.816   1.987 -0.6257  0.5609 -1.4319
44959SOL     OW40713   6.436  10.307   9.100 -0.6310  0.4975  0.8688
44959SOL    HW140714   6.345  10.322   9.127 -0.7499 -1.9020  2.0459
44959SOL    HW240715   6.483  10.291   9.182  0.4732 -0.1220  0.1284
44960SOL     OW40716   0.385   2.583   8.590 -0.1605 -0.4704 -1.1573
44960SOL    HW140717   0.366   2.634   8.668  0.4408 -1.0316 -0.6227
44960SOL    HW240718   0.365   2.641   8.517 -0.7610  0.0530 -0.5870
44961SOL     OW40719   5.346   4.969   9.839 -0.4960 -0.1965  0.2085
44961SOL    HW140720   5.371   4.886   9.798 -0.4063  0.3407 -0.8523
44961SOL    HW240721   5.256   4.984   9.809 -0.9892 -0.5552  1.4641
44962SOL     OW40722   5.317   2.657   1.977  0.1609  0.7081  0.6347
44962SOL    HW140723   5.411   2.670   1.968  0.2272  0.0612  0.3132
44962SOL    HW240724   5.308   2.568   2.012 -0.3862 -0.7628 -2.8099
44963SOL     OW40725   0.907   2.949   2.028 -0.3032  0.7177  0.3303
44963SOL    HW140726   0.927   3.038   2.057 -0.1564  0.9045 -0.3184
44963SOL    HW240727   0.859   2.910   2.100  1.0517  0.7758  1.3087
44964SOL     OW40728   1.379   6.390   0.807 -0.0616  0.7948  0.1124
44964SOL    HW140729   1.353   6.321   0.747 -0.6164 -0.3752  1.6222
44964SOL    HW240730   1.466   6.416   0.778  1.1076 -2.0514  0.7207
44965SOL     OW40731   6.144   3.686   5.463  0.5271 -0.1645 -0.1576
44965SOL    HW140732   6.195   3.735   5.528  0.5926 -1.9171  1.1972
44965SOL    HW240733   6.188   3.703   5.380  0.8659  1.5845  0.3392
44966SOL     OW40734  10.486   5.887   5.392 -0.4361  0.1573  0.5628
44966SOL    HW140735  10.418   5.953   5.409 -0.9526  0.2232 -1.5239
44966SOL    HW240736  10.532   5.878   5.476  1.1364  4.8254  0.4822
44967SOL     OW40737   2.019   3.291  11.790 -0.1117 -0.4333 -0.0256
44967SOL    HW140738   2.026   3.209  11.741 -0.0528 -0.3250 -0.1999
44967SOL    HW240739   1.966   3.269  11.866  2.2210 -1.3263  1.4183
44968SOL     OW40740   0.571  11.076   6.200 -0.7502  0.0834  0.1918
44968SOL    HW140741   0.553  11.019   6.125  1.1569  0.2383 -0.4371
44968SOL    HW240742   0.590  11.162   6.161  2.0787 -0.2486  0.6149
44969SOL     OW40743   0.302   9.773   5.495 -0.1893  0.1772 -0.5040
44969SOL    HW140744   0.365   9.794   5.563 -0.7575  2.7671 -0.6778
44969SOL    HW240745   0.345   9.706   5.442  1.1771 -0.2288  1.0253
44970SOL     OW40746  10.586   4.239   0.738 -0.2130  0.0982  0.6243
44970SOL    HW140747  10.498   4.266   0.712 -1.3209 -1.9256  1.9847
44970SOL    HW240748  10.576   4.149   0.769  2.5351 -0.5727 -0.0945
44971SOL     OW40749  12.012   0.770   4.388  0.5241 -0.5508  0.3832
44971SOL    HW140750  11.952   0.761   4.314 -0.3672  0.2383  0.9935
44971SOL    HW240751  12.024   0.864   4.398 -0.1821 -0.5974  1.8755
44972SOL     OW40752   3.563   1.645  11.992  0.4510  0.6295 -0.4203
44972SOL    HW140753   3.627   1.583  12.028  0.2261  1.5659  1.7315
44972SOL    HW240754   3.497   1.654  12.061 -0.4826  1.8851 -1.4272
44973SOL     OW40755   7.432   1.209   7.573  0.0220 -0.0009 -0.0233
44973SOL    HW140756   7.484   1.157   7.511 -1.5550 -2.8749  0.8731
44973SOL    HW240757   7.349   1.225   7.527  0.1703  0.9989  0.0412
44974SOL     OW40758   9.964   1.477   1.124  0.1577  0.0603 -0.0557
44974SOL    HW140759   9.965   1.557   1.178 -2.4811  0.1473 -0.0232
44974SOL    HW240760   9.938   1.507   1.037 -0.1818 -0.6839 -0.2129
44975SOL     OW40761   5.163   6.888  11.894  0.1484 -0.2434 -0.1042
44975SOL    HW140762   5.166   6.893  11.799 -0.4357 -2.5252 -0.3204
44975SOL    HW240763   5.073   6.909  11.917 -0.1050 -1.1235 -0.2311
44976SOL     OW40764   8.577   9.994   4.218  0.1946  0.0529 -0.7950
44976SOL    HW140765   8.522   9.998   4.296 -0.8451 -0.7244 -1.4710
44976SOL    HW240766   8.666   9.988   4.252 -0.2906 -1.0496  0.3460
44977SOL     OW40767   7.868  12.243   8.233 -0.2129  0.5859 -0.2672
44977SOL    HW140768   7.839  12.291   8.156  0.3445  1.8113  0.2651
44977SOL    HW240769   7.887  12.310   8.298  0.8849 -0.3337  0.4021
44978SOL     OW40770   9.532   3.034   4.232  0.4735 -0.0070  0.0946
44978SOL    HW140771   9.539   2.982   4.152 -1.7076  0.9410 -0.8101
44978SOL    HW240772   9.613   3.085   4.235  0.4479  0.2248 -1.7668
44979SOL     OW40773   5.851   4.052  10.737 -0.2003  0.1354  0.3721
44979SOL    HW140774   5.816   3.981  10.684  1.6506  1.0241 -2.2010
44979SOL    HW240775   5.946   4.039  10.737 -0.0479  0.7254  2.7569
44980SOL     OW40776   5.887  11.724   9.350  0.1521  0.0316  0.0654
44980SOL    HW140777   5.888  11.644   9.297  0.1165  0.2037 -0.2000
44980SOL    HW240778   5.811  11.714   9.406 -0.8680  0.6347 -1.1548
44981SOL     OW40779   7.956   0.170   7.058 -0.1342 -0.2947  0.4161
44981SOL    HW140780   7.888   0.120   7.014 -0.5269  1.2914 -0.8434
44981SOL    HW240781   7.909   0.219   7.126 -0.2625  0.7581 -0.4176
44982SOL     OW40782   4.908  10.688   3.540  0.2817  0.0334  0.3278
44982SOL    HW140783   4.830  10.729   3.577  0.3114 -0.4443  0.9365
44982SOL    HW240784   4.891  10.685   3.446 -0.8669 -0.9368  0.5378
44983SOL     OW40785   2.760  10.985  10.663  0.6551 -0.2068 -0.2974
44983SOL    HW140786   2.676  11.027  10.640  0.6741  0.6252  1.0694
44983SOL    HW240787   2.739  10.928  10.736  1.5521  1.2629  1.1683
44984SOL     OW40788   6.728   9.789   7.396  0.5801  0.5299  0.0608
44984SOL    HW140789   6.734   9.764   7.488  1.1080  0.7428  0.0897
44984SOL    HW240790   6.797   9.738   7.353 -0.5403 -0.5825 -0.4497
44985SOL     OW40791   9.073   5.163  11.665  0.5813  0.2110 -0.0494
44985SOL    HW140792   9.148   5.103  11.663 -1.6023 -2.7268  0.1112
44985SOL    HW240793   9.026   5.145  11.584 -1.4023 -0.1262  1.1045
44986SOL     OW40794   7.581   5.833   3.473 -0.3702  0.4171 -0.7226
44986SOL    HW140795   7.615   5.748   3.446 -0.3127  0.5889 -1.2016
44986SOL    HW240796   7.600   5.891   3.400  0.8553  1.1798  0.1531
44987SOL     OW40797   6.521   7.607   3.137  0.2927 -0.5422 -0.2436
44987SOL    HW140798   6.578   7.536   3.109  0.5775 -0.4844  0.1746
44987SOL    HW240799   6.580   7.681   3.150  0.4009 -0.9301  1.8109
44988SOL     OW40800   3.635   7.796   0.469 -0.2602  0.1631  0.0681
44988SOL    HW140801   3.698   7.811   0.539  0.2789 -2.8508  0.3350
44988SOL    HW240802   3.663   7.855   0.398  3.8485 -2.0178 -0.3811
44989SOL     OW40803   2.380   6.118  10.958 -0.2879 -0.2658  0.5941
44989SOL    HW140804   2.352   6.045  10.903  2.8251 -0.8928 -0.3739
44989SOL    HW240805   2.374   6.086  11.047 -2.8408 -0.1909  0.5070
44990SOL     OW40806  10.140   3.751  11.008 -0.0101 -0.4926 -0.0362
44990SOL    HW140807  10.048   3.777  11.003  0.2963  0.5354 -0.3200
44990SOL    HW240808  10.189   3.827  10.980  1.0093 -0.4645  1.6678
44991SOL     OW40809   3.217   9.451   1.226 -0.0016 -0.2869 -0.6470
44991SOL    HW140810   3.289   9.391   1.209 -0.8107 -1.4402 -0.1591
44991SOL    HW240811   3.164   9.407   1.292  0.3474  1.7926  1.1212
44992SOL     OW40812  11.961   5.600  11.876 -0.2727  0.6056 -0.4516
44992SOL    HW140813  12.027   5.668  11.887 -1.0909  1.0753  2.5599
44992SOL    HW240814  11.980   5.561  11.791  3.4774  1.0858  0.0070
44993SOL     OW40815   9.888  10.529   2.307 -0.1344 -0.1804  0.2426
44993SOL    HW140816   9.889  10.588   2.382  0.8499 -0.9817  0.8900
44993SOL    HW240817   9.976  10.491   2.306 -0.6518 -1.3980 -0.3409
44994SOL     OW40818   1.952   8.011  11.637 -0.1830 -0.1972  0.2031
44994SOL    HW140819   2.030   8.038  11.685 -1.3704  2.3103  0.8885
44994SOL    HW240820   1.971   8.033  11.546  0.0684  0.0594  0.3139
44995SOL     OW40821   4.243   0.680   1.423  0.6150  0.1062 -0.0418
44995SOL    HW140822   4.229   0.767   1.461  0.3204 -0.2598  0.7020
44995SOL    HW240823   4.248   0.621   1.499 -1.1038 -0.8143 -0.6083
44996SOL     OW40824  10.503   8.545   2.004 -0.2672 -0.6896 -0.5268
44996SOL    HW140825  10.505   8.630   1.960 -0.2400 -0.5618 -0.2839
44996SOL    HW240826  10.544   8.561   2.089  0.8978 -1.2330 -0.9738
44997SOL     OW40827   5.240  10.285  11.620  0.5685  0.0549  0.5410
44997SOL    HW140828   5.200  10.236  11.692 -0.7596  1.4292  0.7905
44997SOL    HW240829   5.232  10.377  11.647  0.7299  0.5564 -1.0282
44998SOL     OW40830   3.909   4.098   7.309  0.4490  0.2820 -0.9388
44998SOL    HW140831   3.991   4.082   7.355  1.4563 -0.4919 -2.8712
44998SOL    HW240832   3.851   4.026   7.335  0.8622  0.0736 -0.5961
44999SOL     OW40833   7.306   6.791   5.583  0.1683 -0.2684  0.0619
44999SOL    HW140834   7.367   6.863   5.603  0.5406 -1.2510  2.9896
44999SOL    HW240835   7.275   6.762   5.669 -1.3296 -2.4570 -1.1336
45000SOL     OW40836   1.303   0.854   9.695  0.6076 -0.5721 -0.3919
45000SOL    HW140837   1.233   0.865   9.760  1.2957  2.8533 -0.0535
45000SOL    HW240838   1.384   0.862   9.746  1.2301 -1.0617 -1.2747
45001SOL     OW40839   6.605   6.929   1.726  0.5914  1.0523  0.1557
45001SOL    HW140840   6.513   6.954   1.733  0.4592  0.6324 -0.1105
45001SOL    HW240841   6.634   6.964   1.642  0.1103 -0.6308 -0.7359
45002SOL     OW40842  11.282   3.740   2.548  0.5542  0.1204 -0.2793
45002SOL    HW140843  11.344   3.695   2.491  2.1263  0.4068  1.1354
45002SOL    HW240844  11.310   3.719   2.637 -1.1420  0.6036  0.4107
45003SOL     OW40845   5.340  10.306   5.038 -0.1500  0.1173 -0.5282
45003SOL    HW140846   5.378  10.343   4.958  0.1249  1.2804  0.1073
45003SOL    HW240847   5.394  10.230   5.058  1.6437  1.4635  0.0977
45004SOL     OW40848  11.507   0.041  10.447 -0.0697 -0.1001 -0.1048
45004SOL    HW140849  11.553   0.059  10.529 -1.2097  1.4374  0.2452
45004SOL    HW240850  11.465  -0.044  10.462 -0.1095  0.0729  0.8414
45005SOL     OW40851   9.354   9.756   7.512  0.0248  0.0008 -0.2279
45005SOL    HW140852   9.412   9.830   7.533 -0.3356  0.5768 -1.2162
45005SOL    HW240853   9.266   9.790   7.528 -0.2428  0.3427 -2.2477
45006SOL     OW40854  11.342   6.959   3.454 -0.0455  0.3394 -0.3168
45006SOL    HW140855  11.402   6.885   3.459  0.4745  0.8266  1.4904
45006SOL    HW240856  11.301   6.963   3.541  0.0676  2.2531 -0.3000
45007SOL     OW40857   3.405   0.740   3.755 -0.4101 -0.0678  0.1070
45007SOL    HW140858   3.364   0.706   3.676 -0.6655 -1.8719  0.9737
45007SOL    HW240859   3.494   0.705   3.753 -0.1826  0.4833  0.2697
45008SOL     OW40860   3.956   7.953   7.706  0.1733  0.4240 -0.4504
45008SOL    HW140861   3.914   8.033   7.673 -1.1212 -0.3795 -0.8425
45008SOL    HW240862   3.971   7.900   7.629 -1.4891 -0.8303  0.0221
45009SOL     OW40863   2.709   9.103   8.225 -0.2518  0.1499 -0.3611
45009SOL    HW140864   2.646   9.068   8.287 -0.0337  0.4914  0.0623
45009SOL    HW240865   2.684   9.195   8.215  1.1769  0.7616  1.1334
45010SOL     OW40866   4.366  10.755   4.655 -0.0180 -0.1590 -0.2924
45010SOL    HW140867   4.385  10.845   4.684  0.8873  0.3377 -2.2289
45010SOL    HW240868   4.447  10.707   4.673  0.3575  0.0239 -1.4327
45011SOL     OW40869   2.741  11.200  10.347  0.0090  0.3822  0.1784
45011SOL    HW140870   2.735  11.230  10.256  2.0227 -1.4716 -0.6469
45011SOL    HW240871   2.668  11.139  10.357  0.9409 -0.9624 -0.8969
45012SOL     OW40872   6.067   1.159   6.072  0.5772 -0.3547 -0.2638
45012SOL    HW140873   6.153   1.188   6.102  0.8562 -2.9191  1.7706
45012SOL    HW240874   6.086   1.085   6.014 -0.2188 -0.2067 -0.7167
45013SOL     OW40875   5.834   7.126   0.085 -0.0389  0.0595 -0.1574
45013SOL    HW140876   5.912   7.157   0.039  0.2737 -1.8695 -1.0510
45013SOL    HW240877   5.807   7.048   0.036 -1.2278 -0.5940  1.4450
45014SOL     OW40878   9.579  10.053  11.981  0.3051 -0.3193  0.2358
45014SOL    HW140879   9.491  10.015  11.975 -0.3243  1.2211 -0.7267
45014SOL    HW240880   9.564  10.144  12.006  1.6413 -0.0294  0.0418
45015SOL     OW40881   7.290   1.394   9.876 -0.3779  0.8532 -0.4218
45015SOL    HW140882   7.264   1.317   9.825  2.2795 -0.6640  0.3073
45015SOL    HW240883   7.264   1.374   9.966  0.5643  0.6443 -0.1834
45016SOL     OW40884  11.535   1.880  10.308  0.3789  0.1464 -0.4505
45016SOL    HW140885  11.561   1.921  10.390 -2.1259  0.9946  0.0133
45016SOL    HW240886  11.492   1.950  10.259  0.1233 -0.8165 -1.6471
45017SOL     OW40887   9.296   0.268   0.079  0.2418  0.0591 -0.2834
45017SOL    HW140888   9.250   0.340   0.124 -0.2289  0.4512 -1.3410
45017SOL    HW240889   9.232   0.235   0.015 -0.3379 -2.7673  1.5982
45018SOL     OW40890   0.744   6.157   9.215 -0.2025  0.0312 -0.1966
45018SOL    HW140891   0.729   6.079   9.269 -0.0704  0.4136  0.4052
45018SOL    HW240892   0.839   6.162   9.205 -0.2368 -0.1268 -0.5992
45019SOL     OW40893   7.911   8.383  11.608  0.0122  0.2962  0.0033
45019SOL    HW140894   7.961   8.375  11.527 -0.3249  1.6764 -0.3644
45019SOL    HW240895   7.870   8.469  11.603 -0.2076  0.3131  1.5396
45020SOL     OW40896   2.469   5.505  10.209  0.1875 -0.1856 -0.9340
45020SOL    HW140897   2.405   5.576  10.210 -0.7047 -0.8905  2.2547
45020SOL    HW240898   2.521   5.521  10.130 -0.6534  3.3507 -0.9361
45021SOL     OW40899   6.595   2.381   1.566  0.2569 -0.4137  0.1540
45021SOL    HW140900   6.584   2.341   1.653  2.7109 -0.5337  0.4844
45021SOL    HW240901   6.507   2.382   1.529 -0.7704 -0.9115  2.4012
45022SOL     OW40902   2.324  10.866   0.442 -0.2218 -0.3235 -0.0075
45022SOL    HW140903   2.369  10.942   0.405  0.7320 -1.5675 -1.4988
45022SOL    HW240904   2.390  10.797   0.444 -1.2454 -1.3261  0.6869
45023SOL     OW40905   2.943  10.185   9.498  0.3614  0.3773 -0.7311
45023SOL    HW140906   2.923  10.268   9.455 -0.8270  0.0792 -0.7775
45023SOL    HW240907   2.903  10.119   9.442  0.7141 -0.1869 -0.3306
45024SOL     OW40908   8.793   7.892   7.778  0.2509  0.0333 -0.1858
45024SOL    HW140909   8.736   7.918   7.851 -0.9503 -0.5469 -0.8846
45024SOL    HW240910   8.881   7.902   7.812 -0.1667  2.8210  0.3309
45025SOL     OW40911   8.700  11.767   4.631  0.2932 -0.7450 -0.0108
45025SOL    HW140912   8.652  11.692   4.597 -1.1423 -0.0594  0.4173
45025SOL    HW240913   8.675  11.840   4.573  0.7937 -0.3639  0.2446
45026SOL     OW40914   6.806   2.032   6.743 -0.4821 -0.3289 -0.7527
45026SOL    HW140915   6.838   2.028   6.653 -1.3116  0.1374 -1.0744
45026SOL    HW240916   6.880   2.066   6.794 -0.2958  0.2359 -1.3999
45027SOL     OW40917   8.418   8.743   6.703 -0.8966 -0.1498  0.2010
45027SOL    HW140918   8.339   8.762   6.653 -1.7546 -0.8919  1.2540
45027SOL    HW240919   8.463   8.676   6.651 -1.1782 -0.0691 -0.1549
45028SOL     OW40920   3.459   6.662  10.427 -0.3988  0.1221 -0.0066
45028SOL    HW140921   3.449   6.685  10.519  1.5980  1.8202 -0.1510
45028SOL    HW240922   3.485   6.570  10.428  0.4476  0.3568  1.1985
45029SOL     OW40923   5.761  10.664   6.278  0.5818  0.1297  0.5169
45029SOL    HW140924   5.713  10.665   6.361 -0.3962 -0.9579 -0.0141
45029SOL    HW240925   5.851  10.644   6.302  0.3100 -0.1576  1.3183
45030SOL     OW40926   3.724  11.800   8.981 -0.1206  0.1849 -0.4304
45030SOL    HW140927   3.771  11.718   8.964  1.4947  1.3099 -1.6947
45030SOL    HW240928   3.747  11.823   9.071  0.0162 -0.3727 -0.3195
45031SOL     OW40929   2.362   7.950   0.838 -0.0291 -0.0677 -0.1816
45031SOL    HW140930   2.289   7.893   0.863 -0.7865  0.7790 -0.4012
45031SOL    HW240931   2.364   8.018   0.906  0.7707 -0.2626  0.0009
45032SOL     OW40932   8.779   4.713   1.431  0.7919  0.8675  0.1564
45032SOL    HW140933   8.805   4.691   1.521  0.3822 -0.2613  0.0218
45032SOL    HW240934   8.854   4.686   1.378  0.0944 -0.7918 -0.0605
45033SOL     OW40935   4.909   3.443   1.238 -0.4939 -0.6406 -0.1118
45033SOL    HW140936   4.843   3.390   1.282 -0.0350  0.4934  2.1572
45033SOL    HW240937   4.864   3.526   1.219 -0.1896 -0.4504 -0.0177
45034SOL     OW40938  12.033   2.529   3.880  0.0302 -0.3577  0.1182
45034SOL    HW140939  12.127   2.532   3.864 -0.3426 -0.4908 -2.6864
45034SOL    HW240940  12.022   2.558   3.970  2.7358 -0.2558  0.4761
45035SOL     OW40941   2.250   0.750   5.438 -0.1793 -0.5869  0.1411
45035SOL    HW140942   2.327   0.729   5.385  0.2694  0.3431  0.4124
45035SOL    HW240943   2.176   0.737   5.379  0.3857  1.7651 -1.1693
45036SOL     OW40944   7.336   4.070   8.865 -1.1945 -0.4296  0.3957
45036SOL    HW140945   7.417   4.103   8.902 -1.8106 -1.1328  2.5063
45036SOL    HW240946   7.270   4.135   8.889 -1.2024  0.5513 -1.9907
45037SOL     OW40947   3.021  11.328   7.484 -0.0457 -0.5832  0.1738
45037SOL    HW140948   3.026  11.241   7.524 -1.6663 -3.0651 -4.1915
45037SOL    HW240949   2.930  11.356   7.499 -0.5386 -1.3386 -1.1372
45038SOL     OW40950   0.209  11.953   8.263 -0.1851  0.4965  0.4469
45038SOL    HW140951   0.238  11.891   8.330 -0.7645 -2.4817 -1.8530
45038SOL    HW240952   0.126  11.988   8.297 -0.2253 -0.5709  1.4891
45039SOL     OW40953   3.813   3.435   1.196  0.1772 -0.2610  0.0145
45039SOL    HW140954   3.796   3.426   1.102  1.9817 -0.1695 -0.3464
45039SOL    HW240955   3.906   3.453   1.202 -0.1822  1.3772  1.7403
45040SOL     OW40956   1.889   2.172   5.306 -0.0189  0.5548 -0.3031
45040SOL    HW140957   1.951   2.116   5.352  1.1574  2.1339  0.0920
45040SOL    HW240958   1.818   2.113   5.280 -0.0511 -0.6401  2.2740
45041SOL     OW40959   1.746   1.542   0.611 -0.4020  0.7444 -0.3723
45041SOL    HW140960   1.830   1.497   0.615 -0.0380  1.4216 -0.2017
45041SOL    HW240961   1.683   1.480   0.648 -0.1313 -0.0924 -1.2645
45042SOL     OW40962  10.869  11.130   9.215 -0.1202  0.4371  0.2424
45042SOL    HW140963  10.957  11.154   9.186  1.4306 -2.2436  2.3216
45042SOL    HW240964  10.861  11.168   9.302 -0.2490 -0.9055  0.8341
45043SOL     OW40965   2.956   2.833   0.952 -0.1037  0.6474 -0.8422
45043SOL    HW140966   2.868   2.855   0.920 -0.1157 -0.6312 -1.7650
45043SOL    HW240967   2.940   2.780   1.029 -0.1581  0.2153 -1.1460
45044SOL     OW40968  11.889   0.366   4.697 -0.2184  0.0886  0.3019
45044SOL    HW140969  11.953   0.437   4.685 -1.9901  1.4252 -2.0512
45044SOL    HW240970  11.927   0.292   4.650  0.8634 -0.0569  1.3454
45045SOL     OW40971   5.497   2.089   0.969 -0.0653 -0.2125 -0.6668
45045SOL    HW140972   5.527   2.169   1.013  1.1916 -0.7724 -0.4554
45045SOL    HW240973   5.481   2.027   1.040  0.9435 -0.7820 -0.9130
45046SOL     OW40974   2.107  11.137  11.240 -0.0609 -0.0516 -0.0230
45046SOL    HW140975   2.067  11.056  11.273  0.1719  0.6262  2.0914
45046SOL    HW240976   2.090  11.136  11.146 -4.5809 -0.0946  0.5907
45047SOL     OW40977   0.596   2.911   3.836 -0.3227 -0.5959  0.1048
45047SOL    HW140978   0.604   2.828   3.790 -0.5785  0.6569 -2.3841
45047SOL    HW240979   0.599   2.977   3.766  0.3559  1.5132  2.0239
45048SOL     OW40980  10.668   3.290   5.740  0.6033 -0.0633  0.2702
45048SOL    HW140981  10.634   3.221   5.684  1.7697 -0.2261 -0.2705
45048SOL    HW240982  10.628   3.274   5.826 -0.4748 -0.3661 -0.2765
45049SOL     OW40983   5.651   3.159   7.127  0.3902  0.4251  0.2446
45049SOL    HW140984   5.710   3.152   7.202  1.9653  0.8185 -0.9007
45049SOL    HW240985   5.673   3.084   7.071 -1.7162 -0.6674  0.7545
45050SOL     OW40986   9.279  11.770  11.473  0.1329 -0.4499 -0.3588
45050SOL    HW140987   9.334  11.780  11.551 -0.2446 -1.2895  0.0253
45050SOL    HW240988   9.337  11.735  11.406  0.3412 -0.2089 -0.3049
45051SOL     OW40989   7.359  10.638   9.055  0.0664 -0.0239 -0.2645
45051SOL    HW140990   7.349  10.733   9.064  0.5429  0.1580 -1.4823
45051SOL    HW240991   7.450  10.621   9.081 -0.0413 -0.1671  0.0289
45052SOL     OW40992   1.467   4.463  10.955  0.2626 -0.2627  0.4717
45052SOL    HW140993   1.489   4.385  10.904 -1.9547 -0.3234 -0.5187
45052SOL    HW240994   1.427   4.428  11.035  0.0262 -0.1586  0.4001
45053SOL     OW40995  11.593   0.263   5.577  0.2972  0.5788 -0.1457
45053SOL    HW140996  11.557   0.283   5.491  1.5294 -0.9858 -1.0694
45053SOL    HW240997  11.682   0.298   5.575 -0.1677  1.9330  1.1032
45054SOL     OW40998   2.484   5.363  10.768  0.1721  0.2052  0.2629
45054SOL    HW140999   2.484   5.383  10.674 -1.0788 -0.4096  0.1156
45054SOL    HW241000   2.576   5.371  10.794  0.3510  1.6578 -0.7216
45055SOL     OW41001   0.688   4.213   2.442 -0.3932 -0.4636  0.2793
45055SOL    HW141002   0.631   4.229   2.517 -0.5306 -0.3837  0.1588
45055SOL    HW241003   0.647   4.261   2.370  0.9449  1.3706  0.6490
45056SOL     OW41004   3.030  10.827   6.393  0.0907  0.3047  0.4761
45056SOL    HW141005   2.949  10.875   6.376 -0.6936 -1.5016 -1.2746
45056SOL    HW241006   3.005  10.755   6.451  0.7132  0.4588  0.9559
45057SOL     OW41007   8.717   3.907  11.234  0.4633 -0.1707 -0.2093
45057SOL    HW141008   8.642   3.879  11.285  0.1475  0.6986 -0.1825
45057SOL    HW241009   8.724   3.842  11.164  0.6642 -1.1466  0.7005
45058SOL     OW41010   1.804   0.667   9.466 -0.0496 -0.1024  0.4374
45058SOL    HW141011   1.736   0.615   9.424  1.6368 -1.3738 -0.8426
45058SOL    HW241012   1.881   0.657   9.410  1.0934  1.6630  1.5723
45059SOL     OW41013   7.162   6.397  10.101  0.1645  0.0955 -0.6782
45059SOL    HW141014   7.224   6.388  10.173  0.6136  0.7018 -0.9817
45059SOL    HW241015   7.214   6.379  10.022 -0.4872 -1.2863 -0.8150
45060SOL     OW41016   6.561   3.508   7.588  0.3586  0.0824 -0.0851
45060SOL    HW141017   6.620   3.455   7.534  0.0100  0.0871 -0.4784
45060SOL    HW241018   6.487   3.527   7.530 -0.4683 -0.7109  0.6876
45061SOL     OW41019   3.046  10.172   7.332 -0.2823 -0.4805  0.6761
45061SOL    HW141020   2.971  10.113   7.331 -0.2390 -0.5217 -0.2021
45061SOL    HW241021   3.111  10.129   7.277  0.3334 -0.3660  1.2935
45062SOL     OW41022  11.743   8.347   0.364  0.0608 -0.1557  0.0440
45062SOL    HW141023  11.708   8.407   0.429  0.5849  1.0210 -0.7369
45062SOL    HW241024  11.801   8.289   0.414 -1.7370 -1.1395  1.0840
45063SOL     OW41025   4.782   1.969   8.247  0.0555  0.0870  0.3761
45063SOL    HW141026   4.863   2.008   8.281 -0.0171 -1.4179  2.4803
45063SOL    HW241027   4.716   1.989   8.312 -0.7622 -0.5903 -0.2171
45064SOL     OW41028  11.590   5.181   0.640  0.4987  0.5555  0.5936
45064SOL    HW141029  11.606   5.248   0.707  2.5810  1.1493 -0.3954
45064SOL    HW241030  11.618   5.099   0.681 -2.3702  0.1362  1.9281
45065SOL     OW41031   6.767   9.044  10.941  0.2556  0.3023  0.5053
45065SOL    HW141032   6.762   9.071  10.849 -0.9531  0.5369  0.6122
45065SOL    HW241033   6.819   8.964  10.940 -0.4320 -0.1535 -0.5054
45066SOL     OW41034   4.158   3.577  10.583 -0.4273 -0.2277 -0.7013
45066SOL    HW141035   4.173   3.528  10.502  0.9695  3.0963 -2.7113
45066SOL    HW241036   4.072   3.618  10.571  0.8897  2.4282 -1.9294
45067SOL     OW41037  12.008   2.178   8.848 -0.4156 -0.4300  0.2300
45067SOL    HW141038  11.948   2.171   8.922  1.0801 -1.0607  1.4373
45067SOL    HW241039  12.064   2.253   8.869 -0.2402 -0.3523 -0.4706
45068SOL     OW41040   5.300  11.825   2.087 -0.4589 -0.2321 -0.1165
45068SOL    HW141041   5.395  11.823   2.099 -0.3874 -0.6117 -0.6888
45068SOL    HW241042   5.270  11.740   2.120 -0.5647 -0.2158 -0.1718
45069SOL     OW41043   2.855   2.261   6.258 -0.1461  0.0198  0.2791
45069SOL    HW141044   2.876   2.249   6.165 -0.4028 -1.9071  0.4384
45069SOL    HW241045   2.938   2.288   6.298 -0.2340  1.7884 -0.6146
45070SOL     OW41046   5.799   4.890   8.099  0.7515  0.2740 -0.0673
45070SOL    HW141047   5.887   4.888   8.062  0.8265  0.6801  0.0744
45070SOL    HW241048   5.770   4.981   8.086 -0.0296 -0.0853 -0.9858
45071SOL     OW41049   4.231   3.718  10.937  0.5730 -0.4546  0.0821
45071SOL    HW141050   4.237   3.623  10.948 -0.7631 -0.5725 -0.0138
45071SOL    HW241051   4.291   3.738  10.865  0.2770 -1.3343 -0.4128
45072SOL     OW41052   3.185   0.605   1.677 -0.4132  0.1429  0.7160
45072SOL    HW141053   3.186   0.697   1.702  2.2418  0.0840  1.1338
45072SOL    HW241054   3.191   0.605   1.582  0.0296  0.4050  0.7439
45073SOL     OW41055   4.957   3.800   1.218 -0.1229  0.1422 -0.6287
45073SOL    HW141056   5.052   3.798   1.203 -0.1707 -1.1384 -0.9296
45073SOL    HW241057   4.937   3.892   1.233  1.2991  0.3375  0.2806
45074SOL     OW41058   8.575   2.887   8.491 -0.2004  0.1914  0.0366
45074SOL    HW141059   8.653   2.931   8.458  1.3902 -1.3421  1.5563
45074SOL    HW241060   8.597   2.861   8.580 -2.6337  0.0786  0.6965
45075SOL     OW41061   2.667   7.188  11.574  0.0834 -0.4346  0.2117
45075SOL    HW141062   2.727   7.162  11.644  0.0669 -1.2435 -0.0685
45075SOL    HW241063   2.582   7.196  11.616  0.3889  0.8714  0.6461
45076SOL     OW41064   7.321   9.801   5.098  0.2601  0.0189  0.4835
45076SOL    HW141065   7.401   9.849   5.077  0.9119 -0.6911  1.2460
45076SOL    HW241066   7.281   9.851   5.169  0.5068 -0.1045  0.7133
45077SOL     OW41067   5.460  11.236   0.836 -0.3259 -0.4826  0.5915
45077SOL    HW141068   5.439  11.312   0.890 -0.3623  0.6013 -0.8870
45077SOL    HW241069   5.491  11.273   0.753  3.1382 -2.0289  1.0256
45078SOL     OW41070   7.530   1.272  11.928  0.1209 -0.5343  0.0654
45078SOL    HW141071   7.480   1.199  11.965  0.0446 -0.3522  0.3272
45078SOL    HW241072   7.465   1.340  11.912  0.2845 -0.2881  0.4316
45079SOL     OW41073   6.257   5.477   3.002 -0.1518 -0.2073 -0.1394
45079SOL    HW141074   6.325   5.530   2.961  0.1954 -0.8153 -0.3612
45079SOL    HW241075   6.279   5.387   2.979  0.1342 -0.5932  1.5186
45080SOL     OW41076  11.392   6.559   5.101 -0.1955  0.2732  0.4334
45080SOL    HW141077  11.356   6.508   5.174 -1.6846  0.6219 -0.0179
45080SOL    HW241078  11.355   6.518   5.023  1.1456  0.0889 -0.1220
45081SOL     OW41079   3.278   0.667   6.195 -1.3230  0.2408 -0.2882
45081SOL    HW141080   3.225   0.613   6.254 -2.9703  1.9680 -0.0687
45081SOL    HW241081   3.245   0.647   6.108 -2.1055  0.9903 -0.1874
45082SOL     OW41082   4.020   7.873   6.546  0.8114 -0.2909 -0.0164
45082SOL    HW141083   4.114   7.867   6.563  0.8020  0.8603  0.5529
45082SOL    HW241084   4.009   7.835   6.459  2.3653  2.6641 -1.6735
45083SOL     OW41085  10.088   6.188   5.882 -0.4823  0.3701  0.2139
45083SOL    HW141086  10.098   6.157   5.792  3.1359  0.4506  0.4653
45083SOL    HW241087  10.131   6.273   5.883 -1.5986  0.9575  1.7677
45084SOL     OW41088   3.650   2.076   8.457  0.3565 -0.5243 -0.6986
45084SOL    HW141089   3.674   2.154   8.407  1.1685  0.2685  0.8543
45084SOL    HW241090   3.555   2.083   8.468  0.5540  0.9208  0.4236
45085SOL     OW41091   2.763   9.177   0.345  0.2994  0.4084 -0.8285
45085SOL    HW141092   2.734   9.122   0.418 -0.0865  2.2030  0.4329
45085SOL    HW241093   2.699   9.161   0.276  0.2398 -0.7530 -0.5237
45086SOL     OW41094   6.320   8.670   4.774 -0.7622  0.1032 -0.5721
45086SOL    HW141095   6.334   8.642   4.865 -1.2451 -0.1304 -0.5653
45086SOL    HW241096   6.376   8.747   4.764  0.6423 -0.9105 -0.6192
45087SOL     OW41097   2.968   1.632   3.838 -0.1304 -0.2091  0.1274
45087SOL    HW141098   2.882   1.640   3.797 -0.2800 -0.6069  0.3590
45087SOL    HW241099   3.025   1.600   3.769  0.0603  0.9984 -0.3006
45088SOL     OW41100   8.525  12.133   5.200  0.0197 -0.7366 -0.3008
45088SOL    HW141101   8.458  12.200   5.185 -0.3011 -1.3071 -1.5168
45088SOL    HW241102   8.594  12.154   5.137  0.6217 -0.6461  0.3750
45089SOL     OW41103  12.168  11.295   7.666 -0.1196  0.3149  0.0091
45089SOL    HW141104  12.097  11.315   7.727 -1.3612 -1.5546 -0.7193
45089SOL    HW241105  12.160  11.201   7.651  1.5324  0.3532 -1.3471
45090SOL     OW41106  10.675   4.961   3.962 -0.5348 -0.1102  0.2332
45090SOL    HW141107  10.602   5.023   3.973 -0.1952  0.8360 -2.2003
45090SOL    HW241108  10.633   4.875   3.961 -1.0624  0.0036  3.2220
45091SOL     OW41109  10.220   9.131   3.877 -0.2563 -0.1548  0.7812
45091SOL    HW141110  10.298   9.133   3.933  0.2432  0.8888  0.1020
45091SOL    HW241111  10.255   9.147   3.789 -1.2610  0.5233  0.4934
45092SOL     OW41112   0.409   9.371  12.097 -0.6659  0.0901 -0.0264
45092SOL    HW141113   0.447   9.325  12.172  0.8454  0.9592 -0.2055
45092SOL    HW241114   0.472   9.357  12.026 -2.1510 -0.8467 -1.2113
45093SOL     OW41115  11.863  12.089   6.891  0.4735 -0.7096 -0.6462
45093SOL    HW141116  11.815  12.016   6.931  1.1956 -0.2542  1.1551
45093SOL    HW241117  11.820  12.102   6.807 -1.9483 -0.9582  0.4490
45094SOL     OW41118   1.176   6.123   8.786 -0.1296  0.1957  0.1049
45094SOL    HW141119   1.227   6.201   8.807  1.0197 -1.0015  2.0132
45094SOL    HW241120   1.240   6.062   8.749 -0.7210 -0.3784  0.0156
45095SOL     OW41121   9.691   1.066  11.269  0.3995 -0.2308  0.3015
45095SOL    HW141122   9.650   1.082  11.184 -0.4290  1.0786  0.9210
45095SOL    HW241123   9.621   1.078  11.333  1.5625  1.4084  1.3388
45096SOL     OW41124   5.550  10.983   4.372 -0.0424  0.7035 -0.6697
45096SOL    HW141125   5.547  11.003   4.279  1.9583 -0.9955 -1.1731
45096SOL    HW241126   5.643  10.974   4.392 -0.4933 -1.6770  0.8458
45097SOL     OW41127  11.649   6.763   5.416 -0.4722  0.1480  0.0869
45097SOL    HW141128  11.700   6.840   5.391  0.8104 -0.4755  0.6666
45097SOL    HW241129  11.603   6.738   5.336 -1.5617  1.9731  0.0981
45098SOL     OW41130   7.552   9.934  10.861  0.4191  0.0667 -0.1142
45098SOL    HW141131   7.517   9.957  10.774  0.9346 -0.8378 -0.5779
45098SOL    HW241132   7.554   9.839  10.861  0.2721  0.0579  0.9705
45099SOL     OW41133   5.344  10.258  11.905  0.1449 -0.7330  0.4084
45099SOL    HW141134   5.351  10.329  11.842 -1.4536  0.7452  1.8007
45099SOL    HW241135   5.401  10.189  11.870  0.5472  0.6175 -1.7775
45100SOL     OW41136  11.090   5.100  11.729 -0.0721  0.3574 -0.3466
45100SOL    HW141137  11.173   5.062  11.701 -0.9713 -2.4507  0.4644
45100SOL    HW241138  11.087   5.084  11.823 -1.5500  0.3527 -0.3727
45101SOL     OW41139   7.381  10.334   8.558 -0.2515  0.5805  0.4322
45101SOL    HW141140   7.309  10.387   8.523 -0.6614  0.0318  0.4245
45101SOL    HW241141   7.426  10.393   8.618 -0.1451  1.2184 -0.2548
45102SOL     OW41142  12.229   9.798  12.045 -0.2113  0.1444 -0.3243
45102SOL    HW141143  12.251   9.857  12.117  1.1621  1.0839 -1.4521
45102SOL    HW241144  12.158   9.842  11.998  0.7617  0.9232 -1.1209
45103SOL     OW41145   0.778   2.595  12.271 -0.0386 -0.7275 -0.3629
45103SOL    HW141146   0.703   2.629  12.320  1.0969 -0.4259  1.2586
45103SOL    HW241147   0.844   2.664  12.277  1.0276 -1.7323 -0.1017
45104SOL     OW41148   5.347  10.686  11.962  0.0232  0.1663 -0.1254
45104SOL    HW141149   5.442  10.703  11.960  0.1102 -0.2614  0.2312
45104SOL    HW241150   5.330  10.655  12.050 -0.2159 -1.0369 -0.5753
45105SOL     OW41151   0.374  12.135  10.188  0.5020  0.2705  0.0269
45105SOL    HW141152   0.417  12.170  10.267  3.0670 -1.4840 -0.4426
45105SOL    HW241153   0.438  12.149  10.118 -0.4625 -0.9008 -1.1361
45106SOL     OW41154   5.016   4.147   7.968  0.2153 -0.2222 -0.0166
45106SOL    HW141155   5.103   4.111   7.948  0.6866 -0.1764  1.7475
45106SOL    HW241156   5.034   4.219   8.029 -1.0726 -0.4230  0.6325
45107SOL     OW41157   2.180   5.514   1.503  0.2894 -0.1304 -0.3508
45107SOL    HW141158   2.192   5.512   1.598 -0.0419  0.6737 -0.2897
45107SOL    HW241159   2.258   5.470   1.468  0.9898  0.5997  0.2509
45108SOL     OW41160   9.808  11.904   5.748 -0.2296  0.0979 -0.5634
45108SOL    HW141161   9.855  11.825   5.775 -0.3245  0.7298  1.6567
45108SOL    HW241162   9.729  11.872   5.705  0.9574 -0.9763 -2.0507
45109SOL     OW41163   2.745   2.866   3.916  0.3556  0.5424 -0.0690
45109SOL    HW141164   2.730   2.772   3.904  0.4745  0.3697  1.0414
45109SOL    HW241165   2.790   2.893   3.836  2.1006 -0.7568  0.4209
45110SOL     OW41166  11.391   4.365  11.957  0.8971 -0.2106 -0.2539
45110SOL    HW141167  11.467   4.337  12.008  0.5734 -0.1609  0.2549
45110SOL    HW241168  11.415   4.451  11.924  0.3812  0.5937  1.3676
45111SOL     OW41169   7.846   9.665   8.988  0.5874 -0.6770  0.3032
45111SOL    HW141170   7.756   9.637   9.005 -0.3223  2.2400  0.7637
45111SOL    HW241171   7.885   9.592   8.940 -2.0051 -2.0247  0.0897
45112SOL     OW41172   3.824   1.688   7.933 -0.3745 -0.2362  0.2120
45112SOL    HW141173   3.853   1.717   8.020  1.6008  1.2526 -0.8569
45112SOL    HW241174   3.784   1.766   7.894 -0.5093 -0.6620 -0.5232
45113SOL     OW41175   2.638   6.588   1.701 -0.0221 -0.0418  0.7295
45113SOL    HW141176   2.570   6.522   1.716 -0.0884  0.2148  1.6148
45113SOL    HW241177   2.714   6.555   1.748 -0.0577  0.5027  1.1895
45114SOL     OW41178   3.079   6.372  11.702 -0.7765  0.2220  0.0911
45114SOL    HW141179   3.088   6.296  11.645  1.2200  0.5083 -0.0718
45114SOL    HW241180   3.000   6.355  11.753 -0.5021 -1.8707 -0.0805
45115SOL     OW41181   6.784   3.506   5.921 -0.3244  0.4039 -0.5203
45115SOL    HW141182   6.799   3.572   5.989 -1.8164  0.4965 -0.2424
45115SOL    HW241183   6.696   3.474   5.939  0.3871 -1.7258 -0.6264
45116SOL     OW41184   6.987   1.157   2.395 -0.0537  0.0797 -0.4483
45116SOL    HW141185   6.999   1.070   2.433 -1.4988  0.8127  1.9003
45116SOL    HW241186   7.063   1.207   2.425  1.6557 -0.6883 -3.1565
45117SOL     OW41187   2.646   4.308  11.401  0.8101  0.3501  0.5859
45117SOL    HW141188   2.591   4.357  11.340  1.6721  1.1339  0.4126
45117SOL    HW241189   2.584   4.263  11.458 -0.0066  0.7293  0.0233
45118SOL     OW41190   0.682   6.912   3.871  0.3631  0.2656  0.6848
45118SOL    HW141191   0.752   6.847   3.876  0.1437  0.0564  1.0907
45118SOL    HW241192   0.627   6.893   3.946  0.2971  0.9264  0.8086
45119SOL     OW41193  12.284  11.755  11.606 -0.2635 -0.4026  0.1634
45119SOL    HW141194  12.286  11.681  11.546 -2.3069  0.5067 -1.1251
45119SOL    HW241195  12.370  11.797  11.597  0.6279 -2.1259  0.3399
45120SOL     OW41196   3.513   9.063   3.003 -0.4693 -0.0004  0.8888
45120SOL    HW141197   3.485   9.031   2.918  0.1264  0.6564  0.4320
45120SOL    HW241198   3.432   9.076   3.052 -0.8654  0.2875  0.1723
45121SOL     OW41199   2.754   9.479   3.309  0.2527 -0.0705  0.2352
45121SOL    HW141200   2.765   9.460   3.403  1.9975  0.2189  0.1145
45121SOL    HW241201   2.825   9.538   3.288  0.3257 -0.7139 -1.4591
45122SOL     OW41202   3.210  11.036   0.017 -0.2267  0.5753 -0.6739
45122SOL    HW141203   3.236  10.983  -0.058 -0.0984  0.8811 -0.8428
45122SOL    HW241204   3.125  11.072  -0.007 -0.0615  0.8928 -0.7822
45123SOL     OW41205   9.316   3.609   4.575 -0.2017  0.5657  0.4383
45123SOL    HW141206   9.404   3.572   4.573 -0.2362  0.4005 -2.1435
45123SOL    HW241207   9.325   3.693   4.530 -1.2704  0.7580  0.5652
45124SOL     OW41208   5.910   2.688   4.731 -0.1431  0.4834 -0.9480
45124SOL    HW141209   5.927   2.668   4.823 -0.8023 -1.6170 -1.2375
45124SOL    HW241210   5.861   2.770   4.734  0.2236  0.6851  0.5345
45125SOL     OW41211   7.817   7.573   1.791  0.5312  0.1676  0.4410
45125SOL    HW141212   7.828   7.542   1.701  2.6076 -0.1154  0.7358
45125SOL    HW241213   7.832   7.667   1.786  0.9385  0.1104  0.5136
45126SOL     OW41214   0.686   7.982   3.098  0.3666  0.0369  0.7372
45126SOL    HW141215   0.715   8.007   3.010  1.2813 -1.9630  0.4084
45126SOL    HW241216   0.591   7.992   3.096  0.3654 -0.0916 -0.5235
45127SOL     OW41217   1.550   4.025   2.990 -0.2102 -0.3246  0.6671
45127SOL    HW141218   1.471   4.055   3.035 -0.4193 -0.8541  0.6616
45127SOL    HW241219   1.517   3.986   2.908  0.0430 -0.6880  0.7386
45128SOL     OW41220   7.381   6.102   5.996  0.4498  0.2438  0.4612
45128SOL    HW141221   7.361   6.196   5.988  1.8010  0.5600  0.5191
45128SOL    HW241222   7.360   6.065   5.911 -0.7995  0.4317  0.6546
45129SOL     OW41223   0.697   1.818   2.952 -0.3183  0.0719 -0.2091
45129SOL    HW141224   0.714   1.796   3.044  1.2567  0.6721 -0.3302
45129SOL    HW241225   0.773   1.784   2.905 -1.1602 -0.3147 -1.3226
45130SOL     OW41226   7.245   6.404  11.211 -0.4962  0.4633  0.3344
45130SOL    HW141227   7.226   6.450  11.292  2.0450 -0.9607  1.8700
45130SOL    HW241228   7.199   6.320  11.219 -2.4666  1.3345 -1.0100
45131SOL     OW41229   4.105   4.049  11.395  0.1096 -0.2346  0.3135
45131SOL    HW141230   4.094   3.968  11.346  0.4534 -0.0596 -0.0551
45131SOL    HW241231   4.090   4.119  11.331  1.1237  0.0009  0.3123
45132SOL     OW41232   3.998   1.715   9.617 -0.7900 -0.2411 -0.0771
45132SOL    HW141233   4.043   1.797   9.597 -1.3376  0.6192  1.9424
45132SOL    HW241234   3.947   1.696   9.539 -0.1492  0.9898 -0.8325
45133SOL     OW41235  10.979  11.225  10.978 -0.2621  0.2645  0.6777
45133SOL    HW141236  10.966  11.261  11.066 -0.3806  0.8541  0.4241
45133SOL    HW241237  11.074  11.228  10.965 -0.2673  0.4640  0.6737
45134SOL     OW41238   7.220   5.479   4.669  0.0189  0.7067 -0.4716
45134SOL    HW141239   7.148   5.526   4.627 -0.3236 -0.5282 -1.3064
45134SOL    HW241240   7.179   5.402   4.707  1.0954 -0.8000 -2.2394
45135SOL     OW41241  10.266   3.617   1.002  0.1269  0.2126  0.2624
45135SOL    HW141242  10.345   3.563   1.009 -0.8315 -1.0757  1.7820
45135SOL    HW241243  10.200   3.558   0.967 -0.6526  0.7205  0.8373
45136SOL     OW41244   3.762   2.793   6.227  0.3220 -0.2268 -0.0705
45136SOL    HW141245   3.700   2.864   6.218 -0.3709 -1.0021 -2.1469
45136SOL    HW241246   3.744   2.755   6.313  1.2931  2.5398  1.4763
45137SOL     OW41247   7.534  12.032   5.570  0.6753  0.5097  0.2357
45137SOL    HW141248   7.600  12.067   5.629  1.6491 -1.3933  0.3481
45137SOL    HW241249   7.523  11.941   5.598 -1.9212  0.7230  0.1435
45138SOL     OW41250   8.749   7.546   5.779 -0.1391 -0.2230 -0.2782
45138SOL    HW141251   8.656   7.544   5.803 -0.3260 -1.3873 -1.0458
45138SOL    HW241252   8.795   7.531   5.861 -0.6912 -1.6273 -0.2072
45139SOL     OW41253   6.669   3.277   0.624 -0.2376 -0.2543  0.1816
45139SOL    HW141254   6.671   3.341   0.553 -0.3294 -0.5395 -0.0807
45139SOL    HW241255   6.583   3.289   0.665 -0.0664  0.1143  0.4358
45140SOL     OW41256   9.882   6.746   7.431  0.3266 -0.0639  0.7031
45140SOL    HW141257   9.922   6.758   7.517  0.8585  0.2972  0.4053
45140SOL    HW241258   9.925   6.669   7.395 -0.5079 -0.7444  1.1025
45141SOL     OW41259   0.424   7.584   6.305 -0.0675 -0.6777  0.7503
45141SOL    HW141260   0.517   7.585   6.283  0.1311  0.1027  1.5503
45141SOL    HW241261   0.387   7.655   6.253 -0.4658 -1.7922 -0.5223
45142SOL     OW41262   5.704   0.259   7.069 -0.4323  0.3356 -0.1463
45142SOL    HW141263   5.714   0.247   6.975  0.5568 -0.2745  0.0250
45142SOL    HW241264   5.789   0.237   7.106 -0.7008  0.9179  0.8660
45143SOL     OW41265   0.862   4.430   7.916  0.0067  0.6068 -0.6192
45143SOL    HW141266   0.766   4.426   7.914  0.0206  0.1429 -0.6153
45143SOL    HW241267   0.886   4.385   7.998  0.1964  1.5069 -0.1680
45144SOL     OW41268   5.381   6.206   4.806  0.7855  0.4794 -0.1172
45144SOL    HW141269   5.429   6.282   4.772 -1.4396  1.2806 -1.6600
45144SOL    HW241270   5.434   6.131   4.780  1.9478  1.3687 -0.4549
45145SOL     OW41271   5.675   9.061   9.897  0.3771  0.1103  0.1249
45145SOL    HW141272   5.724   8.984   9.928 -1.3901 -1.5942 -1.0813
45145SOL    HW241273   5.742   9.121   9.865  1.7411 -1.7688 -0.7142
45146SOL     OW41274   3.553   1.041   8.644  0.3399 -0.2057 -0.1072
45146SOL    HW141275   3.555   0.956   8.601 -0.6150 -0.6603  0.7200
45146SOL    HW241276   3.522   1.023   8.733 -0.7034  1.1074 -0.1736
45147SOL     OW41277   2.205   6.029   0.014 -0.2283  0.4882 -0.6669
45147SOL    HW141278   2.158   5.950  -0.014  1.4193 -1.3250  1.3715
45147SOL    HW241279   2.138   6.083   0.055 -1.0653 -0.7519 -0.3455
45148SOL     OW41280   3.979  10.574  10.289 -0.1974 -0.4840 -0.2487
45148SOL    HW141281   4.013  10.536  10.370 -0.9413 -1.3484 -0.3197
45148SOL    HW241282   4.054  10.575  10.230  0.7465  1.6147  0.9150
45149SOL     OW41283   4.359   3.677   7.445  0.0253 -0.7874  0.3709
45149SOL    HW141284   4.402   3.738   7.385 -0.2602 -0.6256  0.3286
45149SOL    HW241285   4.268   3.707   7.448 -0.3584 -1.8189 -0.4438
45150SOL     OW41286   3.134   7.342   4.914  0.2509  0.6543 -0.3516
45150SOL    HW141287   3.110   7.336   5.006  0.9638  1.7162 -0.0798
45150SOL    HW241288   3.102   7.260   4.875 -1.1065  0.7172  0.5786
45151SOL     OW41289   7.367   5.656   5.373  0.0268 -0.5623 -0.3071
45151SOL    HW141290   7.365   5.691   5.462 -1.6196 -1.7869  0.2022
45151SOL    HW241291   7.397   5.566   5.383 -0.3602 -0.7731 -0.9497
45152SOL     OW41292   9.696   1.409   0.597 -0.3010 -0.7254 -0.6340
45152SOL    HW141293   9.751   1.354   0.541 -1.3770 -0.8746 -1.6018
45152SOL    HW241294   9.666   1.479   0.540  0.3587  0.4021  0.3692
45153SOL     OW41295  11.558   4.040  10.375  0.0808 -0.4778 -0.1520
45153SOL    HW141296  11.594   4.097  10.307 -0.6834 -0.4722 -0.5587
45153SOL    HW241297  11.635   4.008  10.422  0.5593  0.4414 -0.2714
45154SOL     OW41298   0.985   2.401   7.556 -0.3840  0.5476 -0.6078
45154SOL    HW141299   1.018   2.479   7.512 -1.4434  0.9991 -0.6323
45154SOL    HW241300   0.890   2.411   7.556 -0.4774 -0.0626  0.6460
45155SOL     OW41301   3.373   5.647   9.655 -0.0172  0.0889 -0.3040
45155SOL    HW141302   3.445   5.625   9.713 -1.2591  0.3195  1.4343
45155SOL    HW241303   3.381   5.741   9.642 -0.7312  0.3653  1.0226
45156SOL     OW41304   2.013  10.390  11.982 -0.1195 -0.2230  0.0771
45156SOL    HW141305   1.948  10.443  12.028 -0.4608 -0.2923 -0.3150
45156SOL    HW241306   2.049  10.332  12.049 -0.9418 -0.6445  0.1659
45157SOL     OW41307  11.653   4.790   0.407  0.0845 -0.4265  0.0143
45157SOL    HW141308  11.698   4.706   0.396  1.3727  0.3391 -0.8261
45157SOL    HW241309  11.719   4.856   0.385 -1.5721  0.7531 -1.8021
45158SOL     OW41310   0.181  12.302   8.950  0.1246 -0.7758 -0.4692
45158SOL    HW141311   0.262  12.294   8.900  0.0477  0.7482 -0.8799
45158SOL    HW241312   0.160  12.395   8.947 -1.3814 -1.0731  0.0600
45159SOL     OW41313   2.738  10.500   7.104  0.1495 -0.1343  0.0893
45159SOL    HW141314   2.729  10.523   7.012  0.2514  0.0525  0.1267
45159SOL    HW241315   2.736  10.404   7.105  1.7886 -0.2038 -0.2746
45160SOL     OW41316   9.593   2.768  10.190  0.1424  0.2498  0.2029
45160SOL    HW141317   9.517   2.822  10.169  0.5232  0.3279 -1.0493
45160SOL    HW241318   9.659   2.831  10.221 -0.7082  0.0407  2.5860
45161SOL     OW41319   5.597   4.053  10.248 -0.0090  0.3668  0.1615
45161SOL    HW141320   5.571   4.026  10.160  0.8976 -1.4265  0.3926
45161SOL    HW241321   5.527   4.021  10.305 -0.9091  2.0655  0.0865
45162SOL     OW41322   1.054  11.204  11.383 -0.4391 -0.0873  0.1074
45162SOL    HW141323   1.073  11.118  11.422 -2.2368 -0.3851  0.3956
45162SOL    HW241324   0.982  11.239  11.436  0.4235  1.7254  0.1372
45163SOL     OW41325   5.041   4.712   2.330 -0.5188 -0.3009 -0.2651
45163SOL    HW141326   5.016   4.727   2.239 -0.1248  5.5166  0.2063
45163SOL    HW241327   5.132   4.741   2.335 -0.3389 -1.0567  1.8810
45164SOL     OW41328  10.836   0.264   8.286  0.2148 -0.0812 -0.1401
45164SOL    HW141329  10.860   0.278   8.195 -0.1657  2.1591  0.0492
45164SOL    HW241330  10.756   0.210   8.281  0.1490  0.0856 -1.1163
45165SOL     OW41331   9.607   3.859   3.801  0.0768  0.9785  0.2031
45165SOL    HW141332   9.606   3.810   3.719 -1.9337 -0.6697  1.1094
45165SOL    HW241333   9.516   3.887   3.813  0.0276 -0.0016  2.5150
45166SOL     OW41334   7.893  11.507   6.343  0.6362  0.1433 -0.2456
45166SOL    HW141335   7.833  11.565   6.391 -0.7639 -1.3673 -0.0758
45166SOL    HW241336   7.839  11.431   6.320  2.3419 -0.9834 -0.6754
45167SOL     OW41337   7.046  10.327   8.880 -0.0243  0.9223  0.2960
45167SOL    HW141338   7.096  10.392   8.830 -1.3115  1.2817 -0.5644
45167SOL    HW241339   7.008  10.269   8.813 -0.3971  0.3899  0.9552
45168SOL     OW41340   3.864  10.770   3.030 -0.3044 -0.2271 -0.0185
45168SOL    HW141341   3.859  10.682   3.067  0.0387 -0.4963 -0.6027
45168SOL    HW241342   3.929  10.815   3.083 -1.1154 -0.0353  0.8484
45169SOL     OW41343   4.064   6.717   1.753 -0.2636  0.0135  0.3458
45169SOL    HW141344   3.982   6.725   1.802  0.0965  1.7731  0.7511
45169SOL    HW241345   4.132   6.715   1.821  0.0775 -0.7682 -0.0054
45170SOL     OW41346   3.367  11.158   9.127  0.3270  0.0257  0.0735
45170SOL    HW141347   3.419  11.228   9.087  0.7981 -0.5331 -0.3072
45170SOL    HW241348   3.415  11.137   9.208  1.8894 -1.8598 -1.2281
45171SOL     OW41349   3.317   1.292   5.165  0.0773 -0.1243 -0.6344
45171SOL    HW141350   3.227   1.273   5.138 -0.3529  0.8607  0.0581
45171SOL    HW241351   3.327   1.246   5.248 -0.2276  0.8418 -0.0593
45172SOL     OW41352  10.977   6.476   8.963  0.2240  0.2948  0.4216
45172SOL    HW141353  11.067   6.461   8.990  0.3033 -0.0262 -0.0081
45172SOL    HW241354  10.959   6.406   8.900 -0.0367  0.8821 -0.1624
45173SOL     OW41355   4.657  11.209   2.942 -0.7352 -0.0709 -0.4034
45173SOL    HW141356   4.597  11.158   2.888 -0.4771 -0.8366  0.0260
45173SOL    HW241357   4.615  11.211   3.028 -0.6138  0.2305 -0.3481
45174SOL     OW41358   1.508   0.088   0.463  0.2225 -0.1743  0.1169
45174SOL    HW141359   1.469   0.053   0.543  1.3591 -0.7428  0.4431
45174SOL    HW241360   1.480   0.028   0.394 -0.2259 -0.0545  0.1937
45175SOL     OW41361   2.951   9.657   8.256  0.1900  0.3986 -0.1973
45175SOL    HW141362   3.028   9.709   8.275 -0.1870  0.2006  2.1756
45175SOL    HW241363   2.936   9.606   8.336 -4.4018  3.0037  0.9888
45176SOL     OW41364  11.630   0.862  10.371 -0.0752 -0.1945 -0.5110
45176SOL    HW141365  11.689   0.831  10.302  1.9068  0.2500  0.9147
45176SOL    HW241366  11.608   0.784  10.421  1.0285 -0.0605  0.2050
45177SOL     OW41367   3.971   4.905   3.676 -0.0627  1.0421 -0.1786
45177SOL    HW141368   4.030   4.842   3.634 -0.9098 -1.2928  1.9095
45177SOL    HW241369   4.013   4.990   3.661  2.2948 -0.2003 -1.2588
45178SOL     OW41370   5.387   5.004   2.537  0.1711  0.8707  0.6181
45178SOL    HW141371   5.311   4.967   2.492  1.6349  0.6391 -1.7893
45178SOL    HW241372   5.380   4.969   2.626 -2.2341  0.4352  0.3308
45179SOL     OW41373   3.772  11.033   2.049 -0.0453  0.0763  0.1697
45179SOL    HW141374   3.806  10.944   2.044 -0.9240 -0.2040 -1.5274
45179SOL    HW241375   3.692  11.025   2.101 -0.6375 -0.3248 -0.7745
45180SOL     OW41376   9.094   5.799   4.597 -0.6707 -0.3249 -0.2882
45180SOL    HW141377   9.054   5.811   4.511 -0.0338  0.1527 -0.5230
45180SOL    HW241378   9.184   5.827   4.586 -0.9112  1.0520  0.8763
45181SOL     OW41379  11.858   8.513   6.293  0.1673  0.4764 -0.0478
45181SOL    HW141380  11.803   8.487   6.367  2.3104 -0.6213  1.2537
45181SOL    HW241381  11.833   8.454   6.222 -1.2524  0.9224  0.0468
45182SOL     OW41382   5.509   0.664   5.087  0.0740  0.9334  0.3640
45182SOL    HW141383   5.418   0.637   5.079  0.7640 -1.5959 -0.1658
45182SOL    HW241384   5.555   0.613   5.019  2.1959  0.2149  2.1827
45183SOL     OW41385   1.316   5.458   1.655 -0.4607  0.4899 -0.1822
45183SOL    HW141386   1.283   5.430   1.569 -0.3762  0.6402 -0.2644
45183SOL    HW241387   1.334   5.376   1.701  1.4443  0.3581 -1.0540
45184SOL     OW41388   1.267   5.889   6.460 -0.0336  0.7044 -0.0762
45184SOL    HW141389   1.356   5.921   6.476  1.3953 -2.0896 -1.5655
45184SOL    HW241390   1.246   5.920   6.372 -0.4262  1.1068  0.1568
45185SOL     OW41391   4.823   6.581   8.491  0.7686 -0.1391  0.3772
45185SOL    HW141392   4.894   6.537   8.445  1.2067 -0.1746  1.0805
45185SOL    HW241393   4.766   6.613   8.422  1.6765  0.2457 -0.2061
45186SOL     OW41394   5.563   7.383   8.778  0.1836  0.3149 -0.3502
45186SOL    HW141395   5.601   7.469   8.797  2.4484  0.1620 -3.3437
45186SOL    HW241396   5.492   7.402   8.717 -0.6494  0.1588  0.5528
45187SOL     OW41397   0.859   5.025   5.480 -0.3533  0.4458  0.1539
45187SOL    HW141398   0.817   5.104   5.448  0.8151  1.5316  1.2071
45187SOL    HW241399   0.826   4.955   5.423 -0.3824  1.8753 -1.6530
45188SOL     OW41400   2.409   6.186   9.656  0.1397 -0.4513  0.4321
45188SOL    HW141401   2.387   6.104   9.701  0.2684 -0.3878  0.6108
45188SOL    HW241402   2.363   6.254   9.704 -0.0172 -0.4244  0.2448
45189SOL     OW41403   5.647  12.094  10.950 -0.4840 -0.5187 -0.4142
45189SOL    HW141404   5.599  12.132  11.024 -0.1009  0.0201 -0.4332
45189SOL    HW241405   5.683  12.170  10.904  0.6365 -0.9113 -0.2260
45190SOL     OW41406   2.393  11.498   7.270  0.1361 -0.5935 -0.0236
45190SOL    HW141407   2.469  11.487   7.327 -0.7468 -0.7708  1.1621
45190SOL    HW241408   2.340  11.564   7.314 -0.2158 -0.1902 -1.0366
45191SOL     OW41409   2.796   0.005   1.442  0.1929  1.0849 -0.8573
45191SOL    HW141410   2.887   0.011   1.415 -0.0002  3.3156 -1.2092
45191SOL    HW241411   2.797  -0.055   1.517  1.7124 -0.0002 -1.7048
45192SOL     OW41412  10.287   2.218   1.684 -0.2153 -0.3485  0.5154
45192SOL    HW141413  10.364   2.264   1.718 -0.3752 -0.3343  0.8559
45192SOL    HW241414  10.283   2.137   1.735 -1.1679  0.2343  1.3913
45193SOL     OW41415  11.840   0.912  10.654  0.2635  0.1948  0.2867
45193SOL    HW141416  11.821   0.840  10.595  1.0740 -0.5939  0.9547
45193SOL    HW241417  11.826   0.876  10.742  0.1048  1.0283  0.6213
45194SOL     OW41418   6.620  11.870   2.030  0.6879  0.1111  0.1198
45194SOL    HW141419   6.545  11.925   2.009  1.3743  1.2296  0.4538
45194SOL    HW241420   6.634  11.884   2.124  0.2232 -1.5070  0.4616
45195SOL     OW41421   1.950   6.575   2.528 -0.4002 -0.5450  0.4427
45195SOL    HW141422   1.874   6.573   2.471  0.8136  1.3818 -1.4148
45195SOL    HW241423   1.993   6.490   2.515  0.6233  0.3324 -2.7943
45196SOL     OW41424   1.168   2.945   4.227 -0.6761 -0.7483  0.2724
45196SOL    HW141425   1.104   2.895   4.176  1.3762 -2.0720 -1.1206
45196SOL    HW241426   1.229   2.879   4.261 -0.2447  0.4286  1.9277
45197SOL     OW41427   4.281   3.621   9.008 -0.1476 -0.2125  0.4427
45197SOL    HW141428   4.329   3.638   9.090 -0.7775  0.5578  0.6592
45197SOL    HW241429   4.249   3.531   9.018 -1.1399  0.2430  1.5238
45198SOL     OW41430   5.712   0.085   2.583 -0.2389 -0.0946  0.0055
45198SOL    HW141431   5.624   0.057   2.558  0.0051 -3.2382  2.0970
45198SOL    HW241432   5.708   0.096   2.678  1.6693 -0.8283  0.2323
45199SOL     OW41433   0.906   1.025  11.093  0.6692 -0.1493  0.1501
45199SOL    HW141434   0.898   1.112  11.132 -0.1814 -0.6545  1.1761
45199SOL    HW241435   0.998   1.017  11.069  1.0258  0.5413  1.2371
45200SOL     OW41436   1.522   7.881  10.682  0.1817 -0.5527 -0.6733
45200SOL    HW141437   1.552   7.963  10.722 -0.2925 -0.5312 -0.3423
45200SOL    HW241438   1.426   7.889  10.682  0.1585 -0.8007 -1.3013
45201SOL     OW41439   6.388   9.461   6.348  0.0654  0.2203 -0.3997
45201SOL    HW141440   6.478   9.470   6.319 -0.1524 -0.4194 -1.3152
45201SOL    HW241441   6.350   9.548   6.338  0.3648  0.3130 -0.7334
45202SOL     OW41442  12.211   2.446   4.164  0.5876 -0.3998  0.1504
45202SOL    HW141443  12.193   2.525   4.112  0.3325 -0.0834  0.7041
45202SOL    HW241444  12.259   2.479   4.240 -0.6832 -0.5730  1.0617
45203SOL     OW41445   9.252   7.980   3.615  0.0299 -1.2324  0.4480
45203SOL    HW141446   9.202   8.021   3.686  0.1401 -1.0422  0.4161
45203SOL    HW241447   9.190   7.976   3.542 -0.0553 -1.3461  0.5252
45204SOL     OW41448   7.142   7.521   2.243  0.6585  0.0321  0.2732
45204SOL    HW141449   7.186   7.597   2.204  0.5218  0.0398  0.1329
45204SOL    HW241450   7.199   7.494   2.314  0.8435  0.1015  0.1520
45205SOL     OW41451   9.855   0.199   4.488  0.7713  0.6101 -0.5266
45205SOL    HW141452   9.786   0.135   4.471 -1.4147  2.2721  1.4102
45205SOL    HW241453   9.936   0.147   4.490 -0.8460 -2.0795  0.7552
45206SOL     OW41454   4.985   4.744   5.901 -0.1954  0.9584 -0.1694
45206SOL    HW141455   4.928   4.691   5.845 -0.8588  1.6863 -0.1872
45206SOL    HW241456   4.939   4.827   5.912  0.4743  1.2536  0.5039
45207SOL     OW41457  11.472   1.994   4.561  0.3542  0.0711  0.3921
45207SOL    HW141458  11.407   2.044   4.611  1.1413 -0.2303  1.7989
45207SOL    HW241459  11.537   2.060   4.535  0.0938  0.1854  0.0378
45208SOL     OW41460   3.393   2.204   1.839  0.4719  0.5097 -0.3204
45208SOL    HW141461   3.365   2.258   1.765  0.3880  0.9549  0.0322
45208SOL    HW241462   3.359   2.250   1.916  0.0012 -0.2839 -0.0447
45209SOL     OW41463   2.974   2.195   4.226 -0.2989  0.1327  0.1134
45209SOL    HW141464   2.934   2.230   4.305 -0.1392  1.2125 -0.2678
45209SOL    HW241465   3.017   2.270   4.185  1.5461 -0.8191  0.1583
45210SOL     OW41466   2.136   4.656   7.309 -0.2759 -0.1519 -0.9694
45210SOL    HW141467   2.126   4.699   7.394 -0.7182 -0.5391 -0.8246
45210SOL    HW241468   2.185   4.719   7.256  1.5488 -0.6017  0.0962
45211SOL     OW41469  10.443   8.289   6.964  0.7356  0.3350  0.4152
45211SOL    HW141470  10.454   8.294   6.869  0.3683 -1.0511  0.2794
45211SOL    HW241471  10.512   8.345   6.999  1.0935  0.5958 -0.6627
45212SOL     OW41472   3.530   1.805  10.833 -0.2221  0.3378  0.0329
45212SOL    HW141473   3.493   1.874  10.779 -2.3005 -1.6757 -1.3120
45212SOL    HW241474   3.611   1.781  10.790 -1.3327 -0.5223 -1.6983
45213SOL     OW41475   7.433   3.137   7.306 -0.4621 -0.1737 -0.0425
45213SOL    HW141476   7.411   3.044   7.311 -2.1997  0.2053  0.0485
45213SOL    HW241477   7.478   3.155   7.389 -0.5201 -0.8277  0.1403
45214SOL     OW41478   8.422   2.289   0.664  0.2011 -0.5001 -0.6837
45214SOL    HW141479   8.350   2.226   0.663 -0.3067  0.0137  1.0566
45214SOL    HW241480   8.416   2.332   0.579 -2.6194  0.6581 -0.0189
45215SOL     OW41481   3.782  11.075   4.540  0.5325 -0.0725 -0.4012
45215SOL    HW141482   3.712  11.082   4.475  0.3099  1.2390 -0.0507
45215SOL    HW241483   3.840  11.007   4.505 -1.2534 -1.6938 -0.3370
45216SOL     OW41484   2.462   3.598  11.005  0.0933  0.5905  0.0490
45216SOL    HW141485   2.432   3.675  10.957 -1.2910  1.3341  1.9784
45216SOL    HW241486   2.535   3.629  11.058 -1.2470  0.9561  1.7633
45217SOL     OW41487   6.442  10.643   6.567 -0.1519  0.0822  0.0472
45217SOL    HW141488   6.531  10.673   6.587  0.0587 -0.6344  0.1831
45217SOL    HW241489   6.429  10.668   6.476 -1.4349  4.1660  1.1355
45218SOL     OW41490   5.445   5.766  11.124  0.5181 -0.2199 -0.3146
45218SOL    HW141491   5.504   5.767  11.199  0.1019  0.0448  0.0109
45218SOL    HW241492   5.381   5.698  11.145 -0.1889  0.5435  0.0303
45219SOL     OW41493   8.632   2.358   2.048 -0.1935  0.0510  0.5817
45219SOL    HW141494   8.636   2.289   1.981 -1.7077  1.9708 -1.6673
45219SOL    HW241495   8.583   2.429   2.006 -0.6927  1.6425  3.5723
45220SOL     OW41496   1.773   9.298  12.089  0.1869  0.1496 -0.1977
45220SOL    HW141497   1.740   9.387  12.082  1.3805  0.7319  1.1092
45220SOL    HW241498   1.826   9.286  12.010 -0.0394  0.5697 -0.4134
45221SOL     OW41499   1.012   3.400   6.436  0.3309 -0.6749 -0.4776
45221SOL    HW141500   0.934   3.345   6.445 -1.5072  2.0769  2.2046
45221SOL    HW241501   0.982   3.475   6.386  1.7035 -0.2284 -0.6605
45222SOL     OW41502   2.609  10.892  12.135 -0.1184 -0.3080  0.3171
45222SOL    HW141503   2.545  10.827  12.164  0.0436 -0.0228  1.3252
45222SOL    HW241504   2.611  10.958  12.204  0.6389  0.1300 -0.1020
45223SOL     OW41505   2.310   8.174   9.770  0.5824  0.1851  0.1950
45223SOL    HW141506   2.288   8.148   9.681 -0.7375 -0.1865  0.6053
45223SOL    HW241507   2.340   8.093   9.812  0.4751  0.1950  0.2927
45224SOL     OW41508   9.275   4.259   1.976  0.3746  0.6235  0.5616
45224SOL    HW141509   9.346   4.206   2.012  2.1953  3.0314  0.7628
45224SOL    HW241510   9.288   4.255   1.882  1.1072  1.4022  0.6121
45225SOL     OW41511   3.147   0.497   6.769 -0.1260  0.9270  0.0745
45225SOL    HW141512   3.079   0.436   6.796 -0.8232  1.9911  0.8509
45225SOL    HW241513   3.198   0.513   6.849  0.9078  0.3302 -0.4396
45226SOL     OW41514   9.374   7.392   4.384 -0.0099 -0.0680  0.0328
45226SOL    HW141515   9.380   7.337   4.462  1.5037 -0.1477 -0.1206
45226SOL    HW241516   9.414   7.475   4.409  1.3320 -0.4022 -0.9135
45227SOL     OW41517   9.133   4.051   2.645  0.3064 -0.8848 -0.4708
45227SOL    HW141518   9.064   3.992   2.618 -0.5986  0.4052 -1.0957
45227SOL    HW241519   9.135   4.045   2.740 -2.6227  1.1002 -0.1812
45228SOL     OW41520   5.976   9.343   6.206  0.0079  0.0788 -0.1649
45228SOL    HW141521   5.905   9.386   6.158 -0.7277 -0.4547  0.4128
45228SOL    HW241522   5.952   9.250   6.206 -0.1535  0.0936  1.4234
45229SOL     OW41523   1.161   6.889   2.076 -0.1039 -0.0136  0.6508
45229SOL    HW141524   1.141   6.848   1.992  1.1942  1.7902 -0.6270
45229SOL    HW241525   1.107   6.842   2.140 -1.9569 -0.7471 -1.3458
45230SOL     OW41526  10.782   8.151  11.948 -0.0448  0.3966  0.0333
45230SOL    HW141527  10.758   8.133  11.857  0.0632  0.3747  0.0092
45230SOL    HW241528  10.746   8.077  11.997 -1.9824  1.4426  0.3006
45231SOL     OW41529   7.321   5.393  12.126 -0.1239  0.5432 -0.5489
45231SOL    HW141530   7.360   5.474  12.092 -0.2176  1.1401  0.6929
45231SOL    HW241531   7.348   5.325  12.064  0.0664  1.5002 -1.5413
45232SOL     OW41532   3.871   4.694   6.092 -0.1526  0.3198  0.0668
45232SOL    HW141533   3.951   4.640   6.086 -0.4156 -0.1753  0.8312
45232SOL    HW241534   3.894   4.776   6.048  0.0511 -0.6483 -1.7365
45233SOL     OW41535   3.748   6.115   4.056 -0.2958  0.4588 -0.1178
45233SOL    HW141536   3.751   6.190   3.996 -0.5941 -0.5088 -1.3898
45233SOL    HW241537   3.655   6.092   4.060 -0.2258  0.2696  0.4007
45234SOL     OW41538  10.112  10.290   2.569 -0.0780 -0.2313  0.2693
45234SOL    HW141539  10.115  10.348   2.645  0.4807  0.8949 -0.5655
45234SOL    HW241540  10.031  10.241   2.579 -0.3588  0.3924  1.2351
45235SOL     OW41541   7.247   7.341   7.782  0.3112 -0.9242 -0.2119
45235SOL    HW141542   7.175   7.346   7.845  1.9180 -1.1613  1.7515
45235SOL    HW241543   7.264   7.433   7.758 -0.0835 -0.7976 -0.0172
45236SOL     OW41544   1.826   4.987   7.773 -0.0319  0.4292 -0.6794
45236SOL    HW141545   1.870   4.956   7.852 -2.4366  0.7032  0.8764
45236SOL    HW241546   1.818   4.910   7.718  0.3118 -0.1185  0.0269
45237SOL     OW41547   7.494   5.693   3.173  0.2120  0.1221 -0.0173
45237SOL    HW141548   7.554   5.699   3.099 -0.0263 -0.8729 -0.2985
45237SOL    HW241549   7.481   5.784   3.200  0.1403  0.5316 -1.3317
45238SOL     OW41550   6.954   5.560   7.756 -0.0793  0.4308 -0.2361
45238SOL    HW141551   7.029   5.526   7.806 -0.3877 -1.9250 -1.2484
45238SOL    HW241552   6.962   5.655   7.764  1.0234  0.2068  2.5539
45239SOL     OW41553   4.066   2.184   1.953  0.1316  0.1511  0.4488
45239SOL    HW141554   4.117   2.105   1.973 -0.4223  0.1910  2.1572
45239SOL    HW241555   4.086   2.203   1.861  0.2824 -1.9743 -0.0044
45240SOL     OW41556  11.040  10.255   8.889 -0.0649  0.6014 -0.0485
45240SOL    HW141557  11.102  10.316   8.928  1.4091 -1.4179  0.9964
45240SOL    HW241558  10.964  10.308   8.867  1.4509  2.9258 -0.0187
45241SOL     OW41559   9.432   9.890   7.238 -0.1017  0.1274  0.4175
45241SOL    HW141560   9.345   9.850   7.237 -0.0752 -0.0119 -1.8138
45241SOL    HW241561   9.419   9.974   7.282 -0.9368 -0.7036  1.8285
45242SOL     OW41562   6.679  10.287   2.619  0.7832  0.0700  0.3692
45242SOL    HW141563   6.636  10.219   2.671 -0.4388 -0.7548 -1.6232
45242SOL    HW241564   6.675  10.365   2.675 -1.1837 -0.5729  1.2356
45243SOL     OW41565   1.650   7.072   8.691 -0.3118 -0.6202 -0.8504
45243SOL    HW141566   1.613   7.020   8.619  1.2882 -1.4634 -1.1286
45243SOL    HW241567   1.731   7.027   8.713 -0.2515  0.2337  0.8000
45244SOL     OW41568   7.433   1.473   5.589  0.8477 -0.2984  0.2068
45244SOL    HW141569   7.513   1.465   5.538  1.1523 -1.6172  0.8378
45244SOL    HW241570   7.462   1.475   5.680  0.3504  2.4969  0.3973
45245SOL     OW41571   4.703   8.212   1.718 -0.1264 -0.2881 -0.0332
45245SOL    HW141572   4.750   8.200   1.636  0.4174 -1.3972  0.4197
45245SOL    HW241573   4.745   8.151   1.779 -0.4426  0.5962  1.1063
45246SOL     OW41574   4.829   5.790   2.916 -0.3276  0.7049 -0.2447
45246SOL    HW141575   4.876   5.772   2.834  0.4280 -1.7235  0.6479
45246SOL    HW241576   4.803   5.704   2.948 -1.5254  1.6815  1.5792
45247SOL     OW41577  11.596   7.570   6.101  0.1841 -0.3736  0.4075
45247SOL    HW141578  11.510   7.564   6.060  1.4663 -1.4215 -2.3874
45247SOL    HW241579  11.623   7.661   6.087 -1.0832  0.4789  2.8846
45248SOL     OW41580   2.332   2.002  11.800  0.3985 -0.0922 -0.7510
45248SOL    HW141581   2.312   1.941  11.729 -0.2620 -0.9077  0.1180
45248SOL    HW241582   2.399   1.958  11.852 -0.4256 -0.3273  0.1559
45249SOL     OW41583   1.063   4.512   7.770 -0.2377  0.6425 -0.9575
45249SOL    HW141584   1.089   4.590   7.819 -0.5060  1.0356 -1.4238
45249SOL    HW241585   1.000   4.467   7.826  1.4819 -0.3839  0.2396
45250SOL     OW41586   4.707   0.402   0.727  0.1772 -0.0032  0.5210
45250SOL    HW141587   4.709   0.368   0.638 -0.4916  1.8621 -0.2671
45250SOL    HW241588   4.645   0.345   0.773 -0.6678 -0.0653 -0.6470
45251SOL     OW41589   0.874   7.453   9.657  0.4869 -0.5697  0.1630
45251SOL    HW141590   0.791   7.429   9.616  0.6472 -1.9993  0.6002
45251SOL    HW241591   0.863   7.544   9.684 -0.5163 -0.3897 -0.7981
45252SOL     OW41592  10.324   1.583   1.552  0.0734 -0.1140  0.2654
45252SOL    HW141593  10.231   1.570   1.536  0.2151  0.1930 -0.9257
45252SOL    HW241594  10.366   1.504   1.516  0.3167  0.0808  0.1085
45253SOL     OW41595   6.693  11.083   1.027 -0.2805 -0.3962  0.2483
45253SOL    HW141596   6.758  11.034   0.976  0.6200  0.2680  0.7397
45253SOL    HW241597   6.745  11.137   1.086 -1.2755  0.5357  0.2962
45254SOL     OW41598  11.790   1.425   4.251 -0.7950 -0.3244  0.2212
45254SOL    HW141599  11.878   1.408   4.216 -0.3126 -0.2872  1.3726
45254SOL    HW241600  11.744   1.341   4.240 -0.6399 -0.3298 -0.4346
45255SOL     OW41601  11.403   9.159   6.184  0.5344 -0.2897  0.3922
45255SOL    HW141602  11.485   9.111   6.200  1.8192  0.4549 -3.0393
45255SOL    HW241603  11.356   9.105   6.121 -0.0101  0.8736 -0.2192
45256SOL     OW41604   2.745   9.133   0.896  0.2536  0.5494  0.5523
45256SOL    HW141605   2.722   9.201   0.833 -0.1799 -0.0585  0.0472
45256SOL    HW241606   2.774   9.181   0.974 -0.1078  1.3082  0.2247
45257SOL     OW41607   4.004   2.034   8.042 -0.4726  0.1579 -0.0680
45257SOL    HW141608   4.042   1.964   7.989 -0.7833  0.5031 -0.7538
45257SOL    HW241609   3.958   1.988   8.112 -0.7000 -0.3226 -0.5278
45258SOL     OW41610   7.424   7.430   0.359  0.4327 -0.0250 -0.2813
45258SOL    HW141611   7.389   7.368   0.421 -0.6724  0.6277 -0.2323
45258SOL    HW241612   7.362   7.431   0.286  0.3687  1.0803 -0.2376
45259SOL     OW41613   0.116   9.693   5.711  0.7932 -0.0473 -0.6480
45259SOL    HW141614   0.048   9.760   5.703  0.3728 -0.4336 -0.3799
45259SOL    HW241615   0.140   9.672   5.621 -0.1322 -0.5857 -0.7912
45260SOL     OW41616   0.302  10.951   9.581  0.4682  0.6549 -0.3924
45260SOL    HW141617   0.269  10.862   9.567  1.3783  0.4696 -1.5405
45260SOL    HW241618   0.324  10.981   9.493  0.2487  1.9952 -0.0036
45261SOL     OW41619   0.599   7.106   8.921 -0.3909 -0.2066 -0.5294
45261SOL    HW141620   0.673   7.055   8.954 -0.6743 -0.4529 -0.2765
45261SOL    HW241621   0.632   7.196   8.920 -0.0321 -0.3341 -0.5773
45262SOL     OW41622   6.095   8.900   2.752  0.5486  0.5420 -0.1746
45262SOL    HW141623   6.127   8.917   2.663  0.3986 -0.7586 -0.4908
45262SOL    HW241624   6.008   8.863   2.739  0.5401  0.3156  0.5210
45263SOL     OW41625   3.842   0.112   8.622 -0.3844  0.0926 -0.0502
45263SOL    HW141626   3.929   0.127   8.586 -0.9455  0.2389 -1.3864
45263SOL    HW241627   3.782   0.139   8.553 -1.5153  0.9260  1.2012
45264SOL     OW41628   2.672   1.956   3.508  0.2914  0.2181 -0.3466
45264SOL    HW141629   2.736   1.975   3.439  1.8200  1.4881  1.3187
45264SOL    HW241630   2.657   2.040   3.550 -0.2240 -0.6129  1.1793
45265SOL     OW41631   1.740   3.591  11.971  0.6452  0.4094  0.0843
45265SOL    HW141632   1.774   3.577  11.882  1.1078  0.5906  0.2299
45265SOL    HW241633   1.649   3.618  11.957 -0.7241 -3.6715 -0.1914
45266SOL     OW41634   0.566   2.241   9.124 -0.0500  0.0623 -0.4771
45266SOL    HW141635   0.544   2.242   9.217 -0.6321  2.2618 -0.5805
45266SOL    HW241636   0.621   2.164   9.113 -0.7986 -0.8061  1.4778
45267SOL     OW41637   5.419   4.950  12.224 -0.5204 -0.7385 -0.1592
45267SOL    HW141638   5.487   4.897  12.183 -0.1865  0.7036 -1.5889
45267SOL    HW241639   5.399   5.017  12.159  0.5841  2.2039  2.2705
45268SOL     OW41640   5.281  11.880   8.139  0.1672  0.1755 -0.0614
45268SOL    HW141641   5.281  11.816   8.211  1.5585  0.6806  0.4177
45268SOL    HW241642   5.195  11.921   8.144  0.1397  0.0234  1.1729
45269SOL     OW41643   8.620  10.329   3.037 -0.3905  0.7239  0.4556
45269SOL    HW141644   8.576  10.393   2.981  1.9716  2.4585  0.4283
45269SOL    HW241645   8.651  10.261   2.977 -1.8615  0.1271  0.3296
45270SOL     OW41646   5.743   2.681   7.943  0.2524 -0.5595 -0.0043
45270SOL    HW141647   5.812   2.742   7.914  1.7553 -0.6867  2.9489
45270SOL    HW241648   5.687   2.670   7.866  1.6820  2.1108 -1.5742
45271SOL     OW41649  10.213   4.593   3.122  0.3985 -0.0258  0.5169
45271SOL    HW141650  10.195   4.536   3.197 -0.0762 -0.2535  0.2317
45271SOL    HW241651  10.134   4.645   3.113  0.2499 -0.3619 -0.1494
45272SOL     OW41652  10.251   6.702   0.987 -0.0169  0.8772  0.0143
45272SOL    HW141653  10.295   6.733   1.066 -0.1800  0.9447  0.0796
45272SOL    HW241654  10.316   6.648   0.943  0.1238  0.9604  0.1195
45273SOL     OW41655  11.548   2.186   5.780  0.2203 -0.1647 -0.8482
45273SOL    HW141656  11.576   2.211   5.692 -0.8629  1.3265 -0.8120
45273SOL    HW241657  11.593   2.248   5.838 -1.0676  0.5721 -0.5963
45274SOL     OW41658   3.121   0.530   9.093 -0.3550 -0.2902  0.0908
45274SOL    HW141659   3.039   0.499   9.130 -0.0266 -1.9907 -0.5125
45274SOL    HW241660   3.097   0.565   9.007 -0.3895 -1.3549 -0.3461
45275SOL     OW41661   8.258   0.476   6.281  0.2488  0.1641  0.0056
45275SOL    HW141662   8.191   0.539   6.307 -1.4617 -1.9399  0.9351
45275SOL    HW241663   8.318   0.472   6.355 -0.7259 -0.7117  0.7559
45276SOL     OW41664   1.118   3.390   0.645  0.2418  0.0856  0.3783
45276SOL    HW141665   1.084   3.453   0.709  1.7192  0.9106  0.4167
45276SOL    HW241666   1.075   3.308   0.666  0.5806  0.3725  2.3563
45277SOL     OW41667   4.936   1.008   6.684  0.1117  0.1275  0.2051
45277SOL    HW141668   4.847   0.999   6.719  0.7988 -0.2913  1.9524
45277SOL    HW241669   4.955   0.924   6.643 -0.3072  0.2407 -0.2326
45278SOL     OW41670   7.857   2.900  12.088 -0.0945 -0.1612  0.4790
45278SOL    HW141671   7.917   2.919  12.161 -0.6229  2.2336  0.3775
45278SOL    HW241672   7.824   2.812  12.107  0.4155  0.0483  2.6908
45279SOL     OW41673  10.720   1.032   4.084  0.3801 -0.3684  0.1061
45279SOL    HW141674  10.648   0.970   4.075 -0.9393  0.8604  1.6351
45279SOL    HW241675  10.798   0.982   4.059 -0.6169 -2.6604  1.3028
45280SOL     OW41676   1.633   6.376   7.581 -0.1424 -0.2956  0.5718
45280SOL    HW141677   1.590   6.435   7.643 -1.2346  1.3125 -1.5526
45280SOL    HW241678   1.562   6.346   7.524  1.0364 -0.2292 -1.0138
45281SOL     OW41679   9.056  10.451   0.651  0.1416 -0.3074  0.0656
45281SOL    HW141680   9.072  10.544   0.666  1.4404 -0.6169  0.6998
45281SOL    HW241681   8.962  10.441   0.665 -0.0334  0.9232 -0.1108
45282SOL     OW41682   1.628   9.578   4.531 -0.2488 -0.1951  0.6404
45282SOL    HW141683   1.563   9.508   4.539  0.8253 -1.3579 -0.3324
45282SOL    HW241684   1.579   9.653   4.499 -1.3507 -0.6261  1.2557
45283SOL     OW41685   5.178   8.090   8.565  0.4920 -0.0664 -0.0955
45283SOL    HW141686   5.253   8.146   8.549  0.1754  0.2190 -0.6116
45283SOL    HW241687   5.139   8.076   8.479 -0.8175  0.8902  0.3064
45284SOL     OW41688   6.380  10.684   5.051 -0.1423  0.3375  0.4053
45284SOL    HW141689   6.432  10.763   5.038 -0.1244  0.3024  0.2664
45284SOL    HW241690   6.417  10.643   5.129  0.8291 -0.3363 -0.3954
45285SOL     OW41691  11.855   7.587   2.138  0.1101 -0.1390 -0.0233
45285SOL    HW141692  11.911   7.511   2.151  1.0708  0.5884  0.2243
45285SOL    HW241693  11.820   7.605   2.225 -1.2341 -1.1166 -0.3360
45286SOL     OW41694   0.654  11.488   9.500 -0.8513 -0.1538  0.0802
45286SOL    HW141695   0.742  11.523   9.489  0.1816 -2.2380  1.0289
45286SOL    HW241696   0.642  11.484   9.595 -0.8668 -2.2813  0.0471
45287SOL     OW41697   7.216   0.621  11.941  0.0517  0.0843 -0.0585
45287SOL    HW141698   7.292   0.582  11.898 -0.9900 -0.9225 -1.0864
45287SOL    HW241699   7.204   0.570  12.021  0.8940  0.7582  0.5214
45288SOL     OW41700  11.963  11.860   5.698 -0.3817 -0.3262  0.0760
45288SOL    HW141701  12.053  11.869   5.666 -0.3279 -0.7720  0.0933
45288SOL    HW241702  11.911  11.844   5.619 -0.7265  1.6975 -0.1634
45289SOL     OW41703  11.751  10.165   9.758 -0.6429  0.2252  0.3253
45289SOL    HW141704  11.666  10.197   9.788  0.5916  2.6296  1.5923
45289SOL    HW241705  11.807  10.168   9.836  1.3004  1.4202 -1.0101
45290SOL     OW41706   2.044   2.767   7.027  0.0840  0.1604  0.6415
45290SOL    HW141707   2.050   2.710   7.104  0.0981 -0.3157  0.2930
45290SOL    HW241708   2.043   2.707   6.953 -0.7788  0.5820  0.3041
45291SOL     OW41709   4.418  11.960   9.398  0.0442  0.4629  0.6451
45291SOL    HW141710   4.400  12.051   9.372 -0.6113  0.1411 -0.0578
45291SOL    HW241711   4.435  11.966   9.492 -0.8050  1.2172  0.7766
45292SOL     OW41712   1.872   6.992   2.062  0.3043  0.3787  0.5017
45292SOL    HW141713   1.896   6.919   2.004  1.1382  0.5760  0.5762
45292SOL    HW241714   1.929   6.981   2.138 -1.9334 -0.8749  2.1211
45293SOL     OW41715   0.436   3.913   1.780 -0.3527 -0.3964 -0.4500
45293SOL    HW141716   0.452   3.946   1.868  0.1262 -0.1314 -0.6295
45293SOL    HW241717   0.390   3.985   1.736 -0.5448 -0.5080 -0.4320
45294SOL     OW41718   1.419  11.477   1.256 -0.3797  0.3357 -0.3810
45294SOL    HW141719   1.511  11.488   1.282 -0.4953  1.1128 -0.2724
45294SOL    HW241720   1.395  11.391   1.290  0.1293  0.3950  0.1555
45295SOL     OW41721   0.345   2.643   6.848  0.5954  0.1007  0.1851
45295SOL    HW141722   0.372   2.581   6.916  1.4558  0.1649 -0.0810
45295SOL    HW241723   0.407   2.629   6.776 -1.3148 -1.1187 -1.2955
45296SOL     OW41724   8.370   7.089   5.773 -0.5917  0.1860  0.2499
45296SOL    HW141725   8.428   7.028   5.819 -0.4993  0.0311 -0.0680
45296SOL    HW241726   8.285   7.078   5.815 -0.7444 -0.6647 -0.2425
45297SOL     OW41727   8.681   4.183   8.645 -0.0765  0.2155  0.0129
45297SOL    HW141728   8.679   4.099   8.691 -2.1376  0.2042  0.0276
45297SOL    HW241729   8.711   4.246   8.711  1.2145 -0.4483  0.0804
45298SOL     OW41730   0.992   9.413   3.486 -0.0067  0.2931  0.0364
45298SOL    HW141731   1.057   9.432   3.418  0.3400  2.3427  0.8935
45298SOL    HW241732   1.042   9.406   3.567 -0.7560  1.2333  0.6016
45299SOL     OW41733   9.949   4.707   3.765  0.0528 -0.5421  0.4322
45299SOL    HW141734  10.014   4.728   3.697 -1.4091 -0.7711 -1.1117
45299SOL    HW241735   9.986   4.743   3.845  1.9035 -0.3323 -0.4556
45300SOL     OW41736   9.505   5.660   6.598  0.0039  0.1297 -0.4260
45300SOL    HW141737   9.448   5.648   6.522  0.6465 -2.3531 -0.5922
45300SOL    HW241738   9.588   5.620   6.572  1.0827  1.5305  0.6955
45301SOL     OW41739  11.320   7.887   2.042 -0.0167 -0.1788 -0.0073
45301SOL    HW141740  11.234   7.890   2.000  0.0524  1.5625 -0.1060
45301SOL    HW241741  11.321   7.962   2.101  1.3705 -0.2564  0.1105
45302SOL     OW41742  10.142   8.042  11.310 -0.0606  0.7123 -0.3460
45302SOL    HW141743  10.071   8.099  11.342  0.7497 -0.1113  3.4653
45302SOL    HW241744  10.111   7.953  11.327  2.1506  0.3344  2.6054
45303SOL     OW41745   9.088  11.651   6.470  0.5124 -0.3879 -0.1901
45303SOL    HW141746   9.158  11.691   6.521  0.1118 -0.6730  0.5961
45303SOL    HW241747   9.007  11.679   6.513  0.2099 -1.5911  0.0478
45304SOL     OW41748   8.325   1.935   6.812 -0.2219 -0.3451  0.0182
45304SOL    HW141749   8.397   1.947   6.874  0.2609  1.0294 -0.7563
45304SOL    HW241750   8.369   1.922   6.728 -0.8290  1.2045 -0.5857
45305SOL     OW41751  11.415  11.193   8.167  0.3938 -0.3897  0.1589
45305SOL    HW141752  11.350  11.214   8.234 -1.0483  0.1029 -1.3315
45305SOL    HW241753  11.490  11.248   8.188 -0.1464 -0.0226  1.1880
45306SOL     OW41754   2.235   0.057   9.911 -0.1334 -0.3088 -0.3006
45306SOL    HW141755   2.225   0.149   9.887 -0.7089 -0.2310  0.1976
45306SOL    HW241756   2.199   0.008   9.838  0.7245 -0.1621 -0.8352
45307SOL     OW41757   6.722   5.863   7.550  0.3267  0.3678  0.4691
45307SOL    HW141758   6.759   5.788   7.595  0.9688  1.2226  1.4074
45307SOL    HW241759   6.697   5.830   7.464  0.6473 -0.8953  0.8478
45308SOL     OW41760   4.977   4.767   3.534 -0.4658 -0.2263  0.3309
45308SOL    HW141761   4.943   4.740   3.620 -0.2648 -0.2095  0.4168
45308SOL    HW241762   5.046   4.703   3.515 -2.4806 -2.0956 -1.2101
45309SOL     OW41763   2.496   8.614   8.269  0.3857  0.7412 -0.3085
45309SOL    HW141764   2.569   8.628   8.209  1.0048  0.9484  0.4811
45309SOL    HW241765   2.432   8.681   8.245 -0.7311 -1.0288 -2.7369
45310SOL     OW41766   2.139   3.198  12.267 -0.3816  0.1670  0.4892
45310SOL    HW141767   2.050   3.222  12.290 -1.2175 -0.8110 -1.4985
45310SOL    HW241768   2.147   3.218  12.174  1.2315 -0.4520  0.4521
45311SOL     OW41769   1.008   0.120   1.296 -0.0631 -0.0243  0.5602
45311SOL    HW141770   0.980   0.198   1.344  1.6751 -1.4345  4.1913
45311SOL    HW241771   1.103   0.129   1.290  0.0513 -1.3877  0.1035
45312SOL     OW41772   9.314  11.572   4.374 -0.4864  0.1039  0.5562
45312SOL    HW141773   9.331  11.503   4.437  1.2299  0.4858  0.5460
45312SOL    HW241774   9.326  11.653   4.423 -1.7075  0.4289  0.3692
45313SOL     OW41775   3.158   2.467   1.090 -0.4405 -0.1352  0.1174
45313SOL    HW141776   3.080   2.521   1.105  1.0808  1.8058  1.5771
45313SOL    HW241777   3.174   2.424   1.175 -0.5472 -1.4527 -0.5026
45314SOL     OW41778   9.426   9.095  11.104 -0.1523  0.2712 -0.1937
45314SOL    HW141779   9.461   9.158  11.040  0.8930 -1.4605 -1.4151
45314SOL    HW241780   9.364   9.042  11.054  1.6597 -1.9727 -0.2326
45315SOL     OW41781   2.078  12.314   5.454  0.5797  0.0586 -0.4209
45315SOL    HW141782   2.054  12.407   5.454 -0.1869 -0.1014  1.0540
45315SOL    HW241783   2.005  12.270   5.497 -0.0378 -1.5486 -2.9152
45316SOL     OW41784   4.460  12.064   8.255 -0.0571  0.0649  0.1854
45316SOL    HW141785   4.383  12.017   8.223  0.1859 -0.4085  0.2754
45316SOL    HW241786   4.532  12.030   8.202  0.0458  0.7304 -0.1068
45317SOL     OW41787   9.393  11.856   5.052  0.3825  0.1377  0.1974
45317SOL    HW141788   9.449  11.928   5.023 -1.6216  1.0528 -1.7642
45317SOL    HW241789   9.409  11.785   4.989 -1.8488  1.0757 -1.5973
45318SOL     OW41790   5.186   8.086   5.190 -0.0441  0.2935 -0.0026
45318SOL    HW141791   5.280   8.075   5.207 -0.5550 -2.7213  1.6716
45318SOL    HW241792   5.169   8.031   5.114 -0.5498  0.3424  0.0710
45319SOL     OW41793   1.074   3.162   2.143  0.0138  1.0086 -0.7191
45319SOL    HW141794   1.109   3.132   2.226 -0.0411 -1.4453 -1.5056
45319SOL    HW241795   1.044   3.252   2.160  0.7003  0.8476  1.6539
45320SOL     OW41796   7.555  10.256  11.148  0.1375  0.5417  0.3394
45320SOL    HW141797   7.521  10.215  11.228  0.6812 -0.1454  0.2291
45320SOL    HW241798   7.645  10.224  11.141  0.1075  0.6205 -0.5331
45321SOL     OW41799   1.347   2.122   1.199  0.0012  0.0481 -0.2544
45321SOL    HW141800   1.384   2.162   1.278 -2.2827  1.8719 -0.0145
45321SOL    HW241801   1.316   2.036   1.229 -0.6372  0.6243  0.8080
45322SOL     OW41802   8.517   9.797   0.053  0.0000  0.3742  0.2823
45322SOL    HW141803   8.477   9.767   0.135  0.4870 -0.6571  0.1679
45322SOL    HW241804   8.584   9.731   0.035 -1.1758 -0.3251 -1.8025
45323SOL     OW41805   6.079  10.376   8.855  0.0711 -0.4079 -0.1973
45323SOL    HW141806   6.083  10.335   8.769 -0.4572  1.8377 -1.3552
45323SOL    HW241807   6.124  10.459   8.845  0.0809 -0.1209  1.7484
45324SOL     OW41808   8.647   2.689   7.154  0.3043 -0.3485 -0.3641
45324SOL    HW141809   8.666   2.782   7.166  0.8630 -0.5489  0.3713
45324SOL    HW241810   8.565   2.687   7.105 -1.4598  0.5529  2.3512
45325SOL     OW41811   7.086   2.641   3.331  0.0892 -0.2398 -0.5612
45325SOL    HW141812   7.042   2.557   3.341 -0.3908 -0.0920 -1.3485
45325SOL    HW241813   7.063   2.670   3.243  2.0277 -0.3194 -1.1436
45326SOL     OW41814   7.034   5.517   2.532 -0.1921 -0.0645 -0.2299
45326SOL    HW141815   7.010   5.490   2.621 -0.7533  0.5165 -0.1967
45326SOL    HW241816   7.053   5.610   2.539 -3.1276  0.7399 -1.1918
45327SOL     OW41817   0.772   4.449   8.232 -0.2904 -0.2441  0.6555
45327SOL    HW141818   0.724   4.389   8.290 -1.0492 -0.0104  0.2922
45327SOL    HW241819   0.816   4.391   8.170 -1.6295 -0.4399 -0.1641
45328SOL     OW41820   1.635   2.527   3.968 -0.3387  0.0277  0.0204
45328SOL    HW141821   1.573   2.491   3.905 -1.4144 -0.3200  1.2388
45328SOL    HW241822   1.704   2.565   3.914 -2.6042  2.3115 -1.5096
45329SOL     OW41823   8.443   7.729   5.053  0.4907  0.2317  0.0311
45329SOL    HW141824   8.381   7.667   5.091  0.5334  0.3299  0.2666
45329SOL    HW241825   8.512   7.736   5.119  0.4312  0.6128  0.0521
45330SOL     OW41826   1.868  11.161   6.556  0.2624  0.1575 -0.3574
45330SOL    HW141827   1.918  11.142   6.635 -0.6969 -1.3509 -0.0637
45330SOL    HW241828   1.927  11.214   6.502  0.8932  1.3273  1.3962
45331SOL     OW41829   2.015  10.446   2.317  0.3846  0.2898  0.2247
45331SOL    HW141830   1.935  10.395   2.329  0.7778 -0.5388 -0.5451
45331SOL    HW241831   2.077  10.409   2.380  1.1961 -1.3643 -1.4609
45332SOL     OW41832   2.104   9.120   5.478 -0.3373  0.5446  0.1787
45332SOL    HW141833   2.054   9.114   5.397 -0.0031 -2.8778  0.0573
45332SOL    HW241834   2.195   9.133   5.450 -0.5862  2.4760  0.1966
45333SOL     OW41835   2.876   3.477   6.735  0.7374  0.0567  0.1727
45333SOL    HW141836   2.945   3.515   6.789 -0.2441  1.1224  0.7275
45333SOL    HW241837   2.890   3.514   6.648  0.6457  0.5791  0.3760
45334SOL     OW41838   2.602   8.999   5.335  0.2866 -0.2691  0.5283
45334SOL    HW141839   2.668   9.047   5.385 -0.7439  1.2456  0.4826
45334SOL    HW241840   2.640   8.989   5.248  0.9128 -0.4056  0.8117
45335SOL     OW41841   6.916   6.768   6.354  0.4555 -0.1850 -0.2515
45335SOL    HW141842   7.004   6.746   6.324  0.5975 -0.0515  0.0518
45335SOL    HW241843   6.916   6.864   6.359  0.6270 -0.2216  0.7069
45336SOL     OW41844   8.840  11.127   5.009 -0.0021 -0.1127 -0.2909
45336SOL    HW141845   8.788  11.050   5.031 -0.2624  0.6093  1.8373
45336SOL    HW241846   8.908  11.094   4.950 -1.3819 -1.5378 -1.1442
45337SOL     OW41847  10.302   1.290   3.836  0.1227  0.1813  0.1245
45337SOL    HW141848  10.338   1.372   3.869  0.1853 -0.6810  2.3879
45337SOL    HW241849  10.209   1.307   3.825  0.6861  1.8847 -4.0564
45338SOL     OW41850   9.241   4.956   6.414 -0.0414 -0.0806  0.1825
45338SOL    HW141851   9.253   5.006   6.494 -1.5759  1.0564 -0.2496
45338SOL    HW241852   9.264   5.016   6.344 -0.9534 -0.2764 -0.3038
45339SOL     OW41853   8.762   5.248   1.109 -0.4191 -0.3258  0.2736
45339SOL    HW141854   8.828   5.276   1.046  1.0487  3.6116  3.1590
45339SOL    HW241855   8.810   5.192   1.170 -0.5926 -0.2120  0.5141
45340SOL     OW41856   9.506   9.712   2.444  0.6822 -0.6031 -0.1574
45340SOL    HW141857   9.523   9.769   2.370  0.4434 -1.3817 -0.8276
45340SOL    HW241858   9.592   9.698   2.484  0.8921 -0.6127 -0.6086
45341SOL     OW41859   8.500   8.925   7.887  0.0475  0.1535 -0.4836
45341SOL    HW141860   8.431   8.982   7.855  0.2767  0.1485 -0.9901
45341SOL    HW241861   8.538   8.885   7.809  1.1486  0.7646 -0.2874
45342SOL     OW41862   5.724  11.605   3.528  0.0145 -0.3596 -0.6731
45342SOL    HW141863   5.727  11.594   3.433 -1.1044  2.0755 -1.0773
45342SOL    HW241864   5.659  11.541   3.557 -0.0053 -0.7943 -1.6217
45343SOL     OW41865   6.584  11.758   9.320  0.2299  0.3728 -0.0559
45343SOL    HW141866   6.590  11.663   9.322 -0.2053  0.3293 -0.5572
45343SOL    HW241867   6.675  11.788   9.317  0.4450  0.0332  1.7797
45344SOL     OW41868   1.578   4.804   2.058  0.1506  0.0558 -0.0915
45344SOL    HW141869   1.618   4.818   1.973 -0.8234 -2.6168 -1.0968
45344SOL    HW241870   1.564   4.892   2.093  1.8118  1.1872 -2.0650
45345SOL     OW41871   5.655   4.701  11.000 -0.0084 -0.0212  0.1476
45345SOL    HW141872   5.722   4.769  11.009  0.1234  0.0303 -0.9699
45345SOL    HW241873   5.572   4.748  11.003  0.0781  0.1844 -0.4469
45346SOL     OW41874   0.914  11.049   0.708  0.4154 -0.3056  0.1978
45346SOL    HW141875   0.854  11.055   0.634 -0.7847  0.1833  1.1716
45346SOL    HW241876   0.858  11.021   0.782  1.1689  1.1438  1.3570
45347SOL     OW41877   9.367   9.482  11.206  0.1129 -0.2622 -0.2642
45347SOL    HW141878   9.460   9.463  11.217 -0.2941 -2.5378 -0.2760
45347SOL    HW241879   9.323   9.409  11.249 -1.6497 -0.1447 -1.7617
45348SOL     OW41880  11.592   9.286   3.514  0.4108  0.1740  0.4074
45348SOL    HW141881  11.642   9.283   3.433  1.1517 -1.4839  0.8961
45348SOL    HW241882  11.510   9.241   3.494  0.1889  0.6088  0.3244
45349SOL     OW41883  10.699   8.058   4.932  0.7605  0.5316 -0.1327
45349SOL    HW141884  10.633   7.997   4.898 -0.2771  2.1587 -1.1685
45349SOL    HW241885  10.670   8.144   4.901  3.0214  1.3781 -0.0428
45350SOL     OW41886   7.113   0.631   6.359 -0.3616  0.3591  0.1108
45350SOL    HW141887   7.020   0.651   6.364 -0.8059 -1.4014 -0.4085
45350SOL    HW241888   7.143   0.676   6.280 -1.2134 -0.5463 -0.7638
45351SOL     OW41889  10.280   7.650   6.909 -0.2405 -0.2856 -0.0318
45351SOL    HW141890  10.312   7.728   6.866 -1.7219  0.2332 -0.2586
45351SOL    HW241891  10.294   7.579   6.846  2.0352 -0.4403  0.5640
45352SOL     OW41892  10.594   4.318  11.132 -0.2052  0.0121 -0.1753
45352SOL    HW141893  10.595   4.224  11.148  1.2281  0.0343 -0.0665
45352SOL    HW241894  10.679   4.349  11.162 -1.1867  1.5971  1.2140
45353SOL     OW41895   5.306   8.029   9.282 -0.7308  0.2098  0.6203
45353SOL    HW141896   5.343   8.110   9.245 -0.2882  0.2460  1.1227
45353SOL    HW241897   5.280   7.977   9.206  0.0719  0.3216  0.2576
45354SOL     OW41898   5.767   8.050   2.405  0.1636  0.5288  0.0976
45354SOL    HW141899   5.766   8.133   2.454 -0.0774  1.7771 -1.9041
45354SOL    HW241900   5.842   8.002   2.441  1.7742  2.6217 -0.2162
45355SOL     OW41901   0.672   5.795   6.271 -0.5686  0.2103 -0.4091
45355SOL    HW141902   0.606   5.760   6.330 -0.0941 -0.0206 -0.0036
45355SOL    HW241903   0.714   5.718   6.233  0.1344  0.3321  0.0996
45356SOL     OW41904  11.416   2.784  10.301  0.2668  0.0793 -0.1796
45356SOL    HW141905  11.398   2.749  10.213 -0.0447 -0.6582  0.1703
45356SOL    HW241906  11.343   2.753  10.355 -1.2916  3.1655 -0.2925
45357SOL     OW41907   9.573   6.476   2.579  0.0350 -0.1425  0.2369
45357SOL    HW141908   9.550   6.393   2.535  0.4088  0.3445 -0.9035
45357SOL    HW241909   9.650   6.507   2.533  0.8791  0.0456  1.7208
45358SOL     OW41910   1.094   3.070   8.304 -1.0010  0.4757 -0.0461
45358SOL    HW141911   1.182   3.038   8.324 -1.4975 -1.3315 -0.5923
45358SOL    HW241912   1.036   3.009   8.349 -1.9943  0.7326 -0.9540
45359SOL     OW41913   4.288   1.372   6.091 -0.0560  0.0260  0.6682
45359SOL    HW141914   4.271   1.356   6.184 -1.3378  1.8753  0.7985
45359SOL    HW241915   4.220   1.433   6.064  1.1871  0.6897 -1.1316
45360SOL     OW41916   6.728   2.977   0.454  0.0561 -0.2119  0.1079
45360SOL    HW141917   6.681   3.042   0.401  1.0937  0.6436  0.2263
45360SOL    HW241918   6.750   3.023   0.535 -0.2608 -1.0902  0.7142
45361SOL     OW41919   5.019   1.320   4.121  0.4698 -0.1335 -0.4126
45361SOL    HW141920   4.962   1.266   4.065 -0.9558  1.2052 -0.3494
45361SOL    HW241921   4.958   1.363   4.181  1.7643  0.0872  0.7789
45362SOL     OW41922   6.347   7.430   3.913 -0.3073  0.0785 -0.1393
45362SOL    HW141923   6.335   7.480   3.994 -0.0307 -1.1173  0.6652
45362SOL    HW241924   6.280   7.465   3.853  0.2402  1.7777  0.1805
45363SOL     OW41925   4.588   2.534   9.193  0.4727  0.5697  0.1430
45363SOL    HW141926   4.500   2.543   9.157 -0.2700 -0.9425  1.4979
45363SOL    HW241927   4.590   2.595   9.267  0.6222  0.6815  0.0497
45364SOL     OW41928  11.632   3.788   7.159  0.2621 -0.0228 -0.5518
45364SOL    HW141929  11.636   3.738   7.078 -0.4892  0.0329 -0.6275
45364SOL    HW241930  11.666   3.875   7.136  1.9403 -0.5936 -0.3263
45365SOL     OW41931   0.025   6.066   5.502 -0.0025 -0.2896  0.4029
45365SOL    HW141932   0.085   6.124   5.456 -0.4276  1.2772  1.7383
45365SOL    HW241933   0.082   6.008   5.553  0.4003  0.0973  0.3960
45366SOL     OW41934  12.018  11.982   4.561  0.0165  0.7611 -0.6249
45366SOL    HW141935  11.986  12.050   4.620  0.4155  0.1944  0.2574
45366SOL    HW241936  11.952  11.913   4.565 -0.2654  0.9810 -1.3285
45367SOL     OW41937   3.935   8.443   5.828  0.1375  0.3143  0.0296
45367SOL    HW141938   3.846   8.475   5.843  0.4100  0.8803  0.4325
45367SOL    HW241939   3.964   8.488   5.749  0.4907  1.0034  0.5501
45368SOL     OW41940   8.312  10.018   6.769 -0.7384  0.6229 -0.9672
45368SOL    HW141941   8.308  10.053   6.680  0.3563  0.5385 -1.0606
45368SOL    HW241942   8.375   9.946   6.763 -1.6913 -0.2737 -0.4109
45369SOL     OW41943   9.187   2.712   0.504 -0.0432 -0.1135  0.1237
45369SOL    HW141944   9.240   2.777   0.457  0.5350 -1.6003 -1.3732
45369SOL    HW241945   9.149   2.761   0.576  3.5306  1.0441  1.4615
45370SOL     OW41946   6.937   8.263   1.092  0.1358 -0.4541 -0.9544
45370SOL    HW141947   6.906   8.305   1.172  2.8442 -1.1797  0.5910
45370SOL    HW241948   6.859   8.222   1.055 -1.3203  0.4147  0.9630
45371SOL     OW41949   2.492   1.931   5.546 -0.0320  0.5766  0.4773
45371SOL    HW141950   2.488   1.887   5.461 -0.4420  0.4978  0.5384
45371SOL    HW241951   2.549   1.876   5.598  0.8338  1.0172  0.0231
45372SOL     OW41952   6.099   7.021   7.225 -0.1514 -0.0398 -0.2791
45372SOL    HW141953   6.118   6.927   7.221  1.5418  0.3119 -3.0927
45372SOL    HW241954   6.025   7.032   7.166  1.9186  0.7461 -2.9072
45373SOL     OW41955   1.935   0.517   2.196 -0.2279 -0.6294 -0.1962
45373SOL    HW141956   1.918   0.609   2.177  1.7381 -0.2663 -0.3207
45373SOL    HW241957   1.848   0.477   2.196 -1.1612  1.2700  0.1976
45374SOL     OW41958   8.660   2.928   4.940  0.3028 -0.1300 -0.4818
45374SOL    HW141959   8.589   2.939   4.876 -0.7689 -0.0026  0.6834
45374SOL    HW241960   8.628   2.974   5.018  0.0839 -3.0078  1.2571
45375SOL     OW41961  10.880  10.846   4.855 -0.1848 -0.1401 -0.2407
45375SOL    HW141962  10.971  10.848   4.825  0.6199 -0.9337  1.9563
45375SOL    HW241963  10.876  10.914   4.923 -0.8191 -1.1172  0.7159
45376SOL     OW41964   2.537   4.324   9.045 -0.5659 -0.4142 -0.5398
45376SOL    HW141965   2.520   4.245   9.097  0.4414 -0.9833 -1.0247
45376SOL    HW241966   2.477   4.389   9.079 -2.0561 -1.6439 -0.7088
45377SOL     OW41967   4.743   0.101   4.017 -0.2130  0.2034 -0.0343
45377SOL    HW141968   4.674   0.167   4.015  0.9875  1.5117 -0.1710
45377SOL    HW241969   4.815   0.141   3.967  0.7950 -0.9302  0.4678
45378SOL     OW41970   8.270  11.228   6.507  0.0457  0.7112  0.4416
45378SOL    HW141971   8.235  11.309   6.469 -0.1497  0.7297  0.6601
45378SOL    HW241972   8.195  11.188   6.550 -0.5532 -0.9624 -1.9510
45379SOL     OW41973   8.673   0.274   4.206  0.0009  0.2659  0.5590
45379SOL    HW141974   8.744   0.242   4.260  0.5810  2.0792  0.9439
45379SOL    HW241975   8.684   0.228   4.122  1.0725 -0.1366  0.9010
45380SOL     OW41976   5.659   1.070   5.585 -0.0327  0.3260 -0.2669
45380SOL    HW141977   5.639   0.986   5.626 -0.3874  1.1147  1.2476
45380SOL    HW241978   5.603   1.074   5.508  0.0054 -0.8202 -0.3670
45381SOL     OW41979   2.996  10.350   0.634 -0.2129  0.0648  0.3494
45381SOL    HW141980   3.065  10.287   0.656  0.1101 -0.2595 -1.4959
45381SOL    HW241981   3.000  10.415   0.705  1.1601 -0.6029  0.9139
45382SOL     OW41982   4.675   1.437   1.469  0.2168 -0.1891 -0.1073
45382SOL    HW141983   4.736   1.506   1.492 -1.1323  0.6170  1.2659
45382SOL    HW241984   4.609   1.480   1.414 -0.6551 -0.3229  0.7880
45383SOL     OW41985   7.655   8.541   8.933  0.4350 -0.3370 -0.2107
45383SOL    HW141986   7.644   8.566   9.025 -2.5106 -1.7908 -0.0408
45383SOL    HW241987   7.620   8.615   8.884  1.8604  0.3730 -0.1948
45384SOL     OW41988   1.230   6.956  11.311 -0.4639 -0.1877  0.1631
45384SOL    HW141989   1.203   6.972  11.220  0.5425 -0.9436 -0.2847
45384SOL    HW241990   1.320   6.989  11.314  0.2350 -2.0363  0.3146
45385SOL     OW41991  10.006   0.660  10.010 -0.3788  0.1890  0.6218
45385SOL    HW141992   9.913   0.674   9.996 -1.0033 -1.7526  2.3228
45385SOL    HW241993  10.016   0.565  10.016  1.8438  0.2930 -0.1627
45386SOL     OW41994   9.621   5.001   8.161  0.0625  0.5078  0.2419
45386SOL    HW141995   9.545   4.947   8.141  0.1363 -0.2143  1.8027
45386SOL    HW241996   9.587   5.091   8.161 -0.0233  0.5760 -2.5284
45387SOL     OW41997   6.117   6.811   6.467  0.1434  0.8915 -0.3238
45387SOL    HW141998   6.139   6.757   6.391  0.3895  1.6677 -0.8279
45387SOL    HW241999   6.073   6.887   6.429  0.2679  1.2882  0.3147
45388SOL     OW42000  11.611  10.087  11.591  0.5526 -0.2292  0.7010
45388SOL    HW142001  11.621  10.017  11.527 -0.8324 -0.3685  0.5934
45388SOL    HW242002  11.606  10.042  11.675 -3.3945 -0.6791  0.4236
45389SOL     OW42003   2.320   6.512   8.333 -0.2303 -0.3379  0.0306
45389SOL    HW142004   2.278   6.427   8.320 -0.0201 -0.6682  1.4049
45389SOL    HW242005   2.273   6.551   8.406 -0.4567  0.8417 -0.7106
45390SOL     OW42006  10.358   2.774   6.275 -0.5518  0.8422  0.2336
45390SOL    HW142007  10.295   2.703   6.263 -1.5024  1.8382 -0.9373
45390SOL    HW242008  10.400   2.783   6.189  1.7079 -0.2184  1.1451
45391SOL     OW42009  11.915   5.067   2.100  0.3932 -0.1036  0.2637
45391SOL    HW142010  11.951   5.020   2.025  1.9618  1.5905 -0.1219
45391SOL    HW242011  11.858   5.133   2.063 -1.0869 -1.0636  0.7541
45392SOL     OW42012   2.810   6.294  10.414  0.9327 -1.0273  0.0908
45392SOL    HW142013   2.734   6.247  10.448  0.2394  0.5729  0.8853
45392SOL    HW242014   2.830   6.252  10.331 -0.6495 -1.6637  0.0018
45393SOL     OW42015   2.838  11.216   9.643 -0.3984 -0.7520  0.5901
45393SOL    HW142016   2.883  11.291   9.682  0.6666 -0.1700 -1.6158
45393SOL    HW242017   2.789  11.177   9.716  0.1651  1.2138  2.1044
45394SOL     OW42018  12.314   3.517   2.499 -0.0356 -0.1889  0.5324
45394SOL    HW142019  12.391   3.570   2.515  0.3676  0.3467 -2.4869
45394SOL    HW242020  12.244   3.580   2.483 -0.6624 -0.6436  1.4318
45395SOL     OW42021   4.278   5.811   4.418  0.2169  0.2999  0.1333
45395SOL    HW142022   4.252   5.867   4.492 -1.0474  1.6251 -1.2535
45395SOL    HW242023   4.227   5.731   4.429 -1.5088  1.2898 -0.3589
45396SOL     OW42024   3.300   5.823  10.306 -0.3061 -0.2087 -0.6429
45396SOL    HW142025   3.299   5.891  10.374 -2.0076 -1.2558  0.4520
45396SOL    HW242026   3.298   5.741  10.355 -0.4103 -1.0207 -1.9779
45397SOL     OW42027  12.080   5.341   5.634 -1.0111 -0.2028  0.3010
45397SOL    HW142028  12.099   5.432   5.612  0.1336 -0.0452  1.8321
45397SOL    HW242029  12.079   5.296   5.549 -3.3717  1.4972 -0.6664
45398SOL     OW42030   7.829   2.741   7.881  0.4340  0.5387 -0.2110
45398SOL    HW142031   7.857   2.698   7.962  0.3737 -0.0179 -0.4784
45398SOL    HW242032   7.904   2.794   7.855  0.2349  1.2049  0.5283
45399SOL     OW42033   0.659   6.580   2.554  0.7761 -0.4406  0.0216
45399SOL    HW142034   0.696   6.662   2.588 -0.0822 -0.1158  0.2013
45399SOL    HW242035   0.715   6.556   2.481  0.7716  0.5548 -0.3147
45400SOL     OW42036   5.632   2.492   7.386 -0.5172  0.4052 -0.0296
45400SOL    HW142037   5.661   2.406   7.355  1.1598  0.8509  0.2129
45400SOL    HW242038   5.585   2.529   7.311  0.7084  0.1736 -0.9562
45401SOL     OW42039  11.134   5.387   0.735 -0.2273 -0.2491 -0.0031
45401SOL    HW142040  11.150   5.407   0.643  1.1815 -0.3087  0.2028
45401SOL    HW242041  11.042   5.408   0.749 -1.9563 -4.6743 -2.5956
45402SOL     OW42042   9.957  10.768   3.975 -0.2552  0.4938  0.6112
45402SOL    HW142043   9.978  10.754   4.067 -0.4822  0.6450  0.6856
45402SOL    HW242044   9.916  10.854   3.972  1.9307  1.5780  0.0277
45403SOL     OW42045   0.256   9.640   8.328 -0.2340  0.0814  0.2982
45403SOL    HW142046   0.276   9.556   8.286  2.5794 -0.3682  2.2567
45403SOL    HW242047   0.295   9.705   8.269  1.0951 -0.3353  0.6679
45404SOL     OW42048   3.375   7.408   2.729  0.3656  0.1824  0.1516
45404SOL    HW142049   3.354   7.338   2.790 -0.2057 -2.0180 -2.4018
45404SOL    HW242050   3.462   7.387   2.696  0.5762  1.2086 -0.0028
45405SOL     OW42051   9.893   1.462   6.913 -0.3726  0.2470 -0.1915
45405SOL    HW142052   9.946   1.447   6.991 -1.6346 -0.8579  0.4924
45405SOL    HW242053   9.957   1.467   6.841  0.6706 -0.7959  0.6243
45406SOL     OW42054   9.426  10.638  11.421  0.7289  0.3948 -0.0161
45406SOL    HW142055   9.446  10.556  11.465  0.3380  0.0933 -0.3833
45406SOL    HW242056   9.499  10.696  11.441  1.4895 -0.3630 -0.5569
45407SOL     OW42057   6.657   8.280   7.117 -0.2679 -0.1379 -0.4956
45407SOL    HW142058   6.569   8.314   7.107 -0.6812 -1.1985 -0.5811
45407SOL    HW242059   6.692   8.324   7.195 -0.8285  0.3671 -0.5293
45408SOL     OW42060   5.483   1.380   0.428  0.4416 -0.0168 -0.6909
45408SOL    HW142061   5.469   1.344   0.516  0.7411 -0.4828 -0.8265
45408SOL    HW242062   5.519   1.467   0.443 -0.2137  0.2015 -0.3522
45409SOL     OW42063   0.284   9.901   0.198 -0.3983  0.1659  0.3047
45409SOL    HW142064   0.217   9.856   0.251 -0.9406  1.3462  0.6458
45409SOL    HW242065   0.253   9.991   0.191  0.8070  0.5646 -0.1504
45410SOL     OW42066   7.858   2.524   5.962 -0.2906 -0.1619  0.3134
45410SOL    HW142067   7.889   2.441   5.926 -0.7249 -0.1011 -0.2272
45410SOL    HW242068   7.937   2.570   5.989 -0.0464 -0.7754  0.6861
45411SOL     OW42069   2.194  11.875   6.299 -0.1307 -0.0982  0.1546
45411SOL    HW142070   2.230  11.845   6.215  0.2193 -1.4850  0.7880
45411SOL    HW242071   2.102  11.850   6.296 -0.0136 -0.5680  0.3634
45412SOL     OW42072   3.939   3.716   6.289 -0.6190  0.3000 -0.3168
45412SOL    HW142073   3.987   3.638   6.260  0.1773  0.0866  1.4424
45412SOL    HW242074   3.977   3.788   6.241  2.8118  0.4087  2.1993
45413SOL     OW42075   8.690   0.537   9.109  0.6129  0.2360  0.4280
45413SOL    HW142076   8.644   0.573   9.033 -0.7749 -1.5249  0.3637
45413SOL    HW242077   8.704   0.612   9.167 -0.9059  1.1295 -0.2938
45414SOL     OW42078  12.029   1.902  11.492 -0.3802 -0.4001  0.7043
45414SOL    HW142079  12.124   1.901  11.505  0.1048 -0.3271 -2.2076
45414SOL    HW242080  12.003   1.993  11.505  0.2738 -0.0585 -0.3540
45415SOL     OW42081   1.550   2.214   8.172 -0.7215 -0.5709  0.6370
45415SOL    HW142082   1.547   2.127   8.132  1.2610 -0.4420  0.1198
45415SOL    HW242083   1.478   2.262   8.131  0.6449 -0.7299 -2.1990
45416SOL     OW42084   3.593   9.816   0.158 -0.3167 -0.2370 -0.1064
45416SOL    HW142085   3.669   9.780   0.113 -0.1522  1.3725 -1.2184
45416SOL    HW242086   3.627   9.855   0.238  0.1454  0.8622 -0.8083
45417SOL     OW42087   6.352   6.425   9.168  0.3659  0.1067  0.2568
45417SOL    HW142088   6.444   6.429   9.196  0.8569  0.3634 -1.2577
45417SOL    HW242089   6.310   6.499   9.212 -0.2728 -2.4758  4.5342
45418SOL     OW42090   8.275   1.871   2.911  0.1951  0.0972  0.0457
45418SOL    HW142091   8.261   1.806   2.842  1.9984 -1.9742  1.4906
45418SOL    HW242092   8.360   1.909   2.891 -0.6414  1.7515 -0.5245
45419SOL     OW42093   9.375   9.908  10.434  0.1350  0.6069 -0.2735
45419SOL    HW142094   9.353   9.909  10.528  0.3741 -0.5123 -0.1961
45419SOL    HW242095   9.294   9.933  10.390  0.0004  1.0718  0.2271
45420SOL     OW42096   2.427   4.906   4.863  0.0340  0.5126  0.7717
45420SOL    HW142097   2.358   4.853   4.823  0.6124  1.2671 -1.3677
45420SOL    HW242098   2.395   4.925   4.951 -1.2407 -1.3919  0.7720
45421SOL     OW42099   1.818   7.368  12.145  0.3685  0.0897 -0.4708
45421SOL    HW142100   1.862   7.285  12.126  1.8637  0.1163  2.3110
45421SOL    HW242101   1.729   7.343  12.168  0.9871 -0.8696  0.9850
45422SOL     OW42102   5.185   3.800   5.519  0.7177  0.2345 -0.1825
45422SOL    HW142103   5.210   3.848   5.598 -0.0328  0.9856 -0.3864
45422SOL    HW242104   5.268   3.767   5.484  1.1703  0.7691  0.3659
45423SOL     OW42105   5.002  11.002  12.323  0.4875  0.1418 -0.1242
45423SOL    HW142106   5.040  11.086  12.349 -0.1352  0.3477  0.1318
45423SOL    HW242107   5.021  10.943  12.396  0.9929  0.0391 -0.3380
45424SOL     OW42108   9.658   8.650   6.723  0.1587  0.2293 -0.2544
45424SOL    HW142109   9.712   8.594   6.667 -0.5478  0.3106 -1.0352
45424SOL    HW242110   9.716   8.675   6.795  0.4904 -1.5339  0.1453
45425SOL     OW42111  10.961   8.261   3.097 -0.2251  0.4614 -0.0568
45425SOL    HW142112  10.884   8.312   3.124 -0.4660  0.1878 -0.2232
45425SOL    HW242113  11.035   8.322   3.109 -0.5072  0.8456 -0.2402
45426SOL     OW42114   6.255  11.426   1.936 -0.4894  0.2188 -0.2211
45426SOL    HW142115   6.184  11.467   1.887 -0.6027 -0.0105 -0.2533
45426SOL    HW242116   6.298  11.498   1.982  0.0162  0.5278 -1.1580
45427SOL     OW42117   6.383  11.596   4.064 -0.0555 -0.0616  0.1181
45427SOL    HW142118   6.293  11.618   4.090 -0.3090 -1.1974  0.2719
45427SOL    HW242119   6.373  11.523   4.003  0.7691 -0.3755  0.3459
45428SOL     OW42120   0.080   0.757   5.150 -0.2956  0.3170 -0.0545
45428SOL    HW142121  -0.014   0.769   5.134 -0.0995  0.0615 -1.5751
45428SOL    HW242122   0.089   0.763   5.245 -2.4513 -3.9704  0.6681
45429SOL     OW42123   8.832   3.635   8.802  0.5328 -0.6663  0.4327
45429SOL    HW142124   8.840   3.638   8.707  1.6425  0.3340  0.5384
45429SOL    HW242125   8.918   3.604   8.833 -0.2217 -2.2472  1.0674
45430SOL     OW42126   0.847   2.509   1.716 -0.2866  0.2597 -0.6696
45430SOL    HW142127   0.784   2.517   1.788  0.3661 -0.7749  0.0624
45430SOL    HW242128   0.877   2.598   1.700  0.1609  0.4433  0.9417
45431SOL     OW42129   1.985  12.246  10.201 -0.0514  0.6142 -0.5749
45431SOL    HW142130   2.054  12.277  10.142  0.6634 -1.0400 -0.6812
45431SOL    HW242131   2.030  12.231  10.284 -0.7207  1.4164 -0.0538
45432SOL     OW42132   1.804  11.504  10.435 -0.2827  0.3139  0.3494
45432SOL    HW142133   1.881  11.455  10.463  0.6264  2.9228  2.9241
45432SOL    HW242134   1.742  11.495  10.508 -2.0206 -0.7623 -1.1712
45433SOL     OW42135  11.529   1.165  10.156 -0.0779 -0.2412  0.0301
45433SOL    HW142136  11.529   1.130  10.245 -0.2945  0.6925  0.4043
45433SOL    HW242137  11.494   1.093  10.103 -1.1764 -0.3648  0.8733
45434SOL     OW42138   4.601   3.155   4.619  0.0988  0.3338  0.3472
45434SOL    HW142139   4.552   3.237   4.633  0.8152  0.7264  0.6419
45434SOL    HW242140   4.691   3.178   4.641  0.5114 -0.2401 -0.6741
45435SOL     OW42141   3.373   3.833   9.304 -0.6382 -0.0528 -0.0734
45435SOL    HW142142   3.467   3.813   9.299 -1.1078 -2.5763 -0.4899
45435SOL    HW242143   3.340   3.817   9.215 -1.6158 -0.2273  0.3064
45436SOL     OW42144   4.590  11.731   4.580  0.3259  0.4267 -0.0632
45436SOL    HW142145   4.679  11.730   4.617  0.6316  1.7044 -0.7159
45436SOL    HW242146   4.551  11.812   4.613  0.0878  0.8453 -1.3254
45437SOL     OW42147   4.337   5.780  12.211 -0.0415 -0.1045 -0.1312
45437SOL    HW142148   4.280   5.832  12.267 -2.1132  0.3790 -2.4940
45437SOL    HW242149   4.346   5.696  12.257  0.6012  1.1287  2.1268
45438SOL     OW42150   5.715   1.027   0.698 -0.0633 -0.1024 -0.5478
45438SOL    HW142151   5.758   1.080   0.631 -0.0446  1.3693  0.5725
45438SOL    HW242152   5.780   1.022   0.769  0.1904 -2.2092 -0.8665
45439SOL     OW42153   2.902  10.851   7.113 -0.9914  0.0838 -0.5307
45439SOL    HW142154   2.899  10.922   7.177 -1.6285  2.0278 -2.5885
45439SOL    HW242155   2.993  10.850   7.083 -0.6419 -0.9651  0.4762
45440SOL     OW42156   6.300   0.377   0.073 -0.6044 -0.3954  0.0193
45440SOL    HW142157   6.304   0.450   0.011  1.3938  0.6329  1.2451
45440SOL    HW242158   6.207   0.355   0.078 -1.2142  1.7205 -0.8190
45441SOL     OW42159   5.023   8.726   1.456 -0.2224  0.1909  0.0488
45441SOL    HW142160   5.108   8.691   1.483 -1.0140 -1.5380  0.4624
45441SOL    HW242161   5.008   8.799   1.516  1.7812  1.7796 -1.2541
45442SOL     OW42162   7.076   8.958   4.478 -0.1114 -0.7087 -0.1621
45442SOL    HW142163   7.137   8.994   4.541 -0.4871  0.1500 -0.2737
45442SOL    HW242164   7.131   8.917   4.411  0.3619  0.2631 -0.3834
45443SOL     OW42165   2.475  11.663  12.166 -0.1275  0.6019 -0.3562
45443SOL    HW142166   2.409  11.676  12.235  1.3843  3.0653  0.7639
45443SOL    HW242167   2.433  11.603  12.104 -2.8339  0.8765  1.0422
45444SOL     OW42168   2.316   5.790   1.406  0.1417  0.1738 -0.2504
45444SOL    HW142169   2.285   5.776   1.495  0.2676 -2.2315 -0.5312
45444SOL    HW242170   2.289   5.712   1.357  2.2079  0.2692 -1.7058
45445SOL     OW42171  10.778   4.095   7.577  0.5249 -0.7015 -0.3018
45445SOL    HW142172  10.827   4.081   7.658  0.7986 -1.3670 -0.5749
45445SOL    HW242173  10.687   4.088   7.602  0.4411  2.2177  0.5419
45446SOL     OW42174  11.688   2.222   8.573  0.2152  0.0604 -0.1956
45446SOL    HW142175  11.683   2.170   8.653 -0.6641  0.5843  0.1007
45446SOL    HW242176  11.618   2.188   8.517 -0.4894  1.0234  0.0744
45447SOL     OW42177  10.445   9.964   5.811 -0.1329 -0.3807  0.0621
45447SOL    HW142178  10.431   9.909   5.734  0.1522 -0.7764  0.2906
45447SOL    HW242179  10.362   9.959   5.859  0.8316 -3.0834  1.6444
45448SOL     OW42180  12.003   0.619   8.527  0.3732  0.3712  0.1360
45448SOL    HW142181  12.022   0.536   8.483 -1.7795 -0.1189  0.0433
45448SOL    HW242182  12.026   0.604   8.618  2.8576  0.7110 -0.3566
45449SOL     OW42183  11.042   9.351   1.851  0.5547 -0.1700 -0.2385
45449SOL    HW142184  11.044   9.352   1.755  0.8231  0.2672 -0.2322
45449SOL    HW242185  11.132   9.328   1.876  0.3995 -0.6255 -0.0926
45450SOL     OW42186   7.547   1.234   3.583 -0.0572 -0.1726 -0.0305
45450SOL    HW142187   7.530   1.312   3.636 -1.1499  0.4915 -1.3034
45450SOL    HW242188   7.494   1.166   3.623 -0.0125  0.0343  0.3888
45451SOL     OW42189   8.090  11.253  11.522  0.2369  0.6821 -0.0175
45451SOL    HW142190   8.127  11.336  11.554 -1.0810  1.4877 -0.4758
45451SOL    HW242191   7.997  11.273  11.509  0.5825  0.4196 -4.2790
45452SOL     OW42192   7.903   1.875   9.668  0.1347 -0.6953  0.2980
45452SOL    HW142193   7.969   1.871   9.737  0.9574  0.8637 -0.3561
45452SOL    HW242194   7.943   1.826   9.595 -0.2970 -1.4527  0.5573
45453SOL     OW42195   1.771   3.728   1.494  0.1079 -0.1385 -0.2108
45453SOL    HW142196   1.850   3.736   1.548  1.0682  1.4814 -1.7283
45453SOL    HW242197   1.804   3.723   1.404 -1.5004  3.0841 -1.1149
45454SOL     OW42198   8.278   8.429  10.860  0.0420  0.3694  0.6681
45454SOL    HW142199   8.306   8.511  10.900 -0.2746  1.3294 -0.9752
45454SOL    HW242200   8.227   8.456  10.784  2.7722 -1.2582 -1.9608
45455SOL     OW42201  10.547  11.030   3.832 -0.1314 -0.0735 -0.0567
45455SOL    HW142202  10.489  10.976   3.778  0.1461 -1.0557  0.6000
45455SOL    HW242203  10.634  10.994   3.817  0.1195  0.4829  0.0526
45456SOL     OW42204  11.280   5.859   3.658 -0.0986 -0.1894  0.3304
45456SOL    HW142205  11.339   5.885   3.586  1.0110  0.2196  1.3485
45456SOL    HW242206  11.330   5.794   3.707 -1.6956 -2.1255 -0.4698
45457SOL     OW42207   3.601  10.174   5.276 -0.7272  0.2242 -0.0726
45457SOL    HW142208   3.578  10.087   5.244 -0.3540 -0.0663  0.4492
45457SOL    HW242209   3.616  10.225   5.196  0.7156 -0.6401 -0.3752
45458SOL     OW42210   9.498   4.336   4.366  0.4788 -0.2002 -0.4503
45458SOL    HW142211   9.502   4.241   4.356 -0.3272 -0.1951 -0.8604
45458SOL    HW242212   9.518   4.369   4.278  1.7660  0.0414 -0.0863
45459SOL     OW42213   9.583   2.147   4.942 -0.1977  0.1080 -0.2118
45459SOL    HW142214   9.535   2.078   4.988 -2.1205  1.1081 -0.6496
45459SOL    HW242215   9.609   2.208   5.011 -2.6899  1.3757 -0.2943
45460SOL     OW42216   6.554   9.294   9.395 -0.2908 -0.3253 -0.4035
45460SOL    HW142217   6.579   9.229   9.330  0.6209  0.8388 -1.2564
45460SOL    HW242218   6.592   9.375   9.364 -0.4277  0.4082  1.2277
45461SOL     OW42219  10.532  10.799   2.652  0.0627  0.9019  0.1037
45461SOL    HW142220  10.551  10.892   2.662  0.1124  0.9856 -0.6782
45461SOL    HW242221  10.436  10.795   2.651  0.0532  0.8348  1.0403
45462SOL     OW42222   4.287   7.277   5.401  0.0674  0.7134 -0.3359
45462SOL    HW142223   4.265   7.185   5.419  0.1992  0.5850 -0.8034
45462SOL    HW242224   4.212   7.327   5.432 -0.0339  0.4404 -0.1374
45463SOL     OW42225   1.248   2.801   1.765 -0.6238 -0.5005 -0.0680
45463SOL    HW142226   1.264   2.709   1.742 -0.7188 -1.0957  2.0058
45463SOL    HW242227   1.306   2.850   1.707  1.1837 -2.0270  0.3412
45464SOL     OW42228   9.808   7.033   5.980 -0.0353 -0.1538 -0.4089
45464SOL    HW142229   9.780   6.975   6.050 -0.6866 -0.6870 -1.0939
45464SOL    HW242230   9.853   6.976   5.918 -0.9344  0.0014 -1.2316
45465SOL     OW42231  12.171   0.303   3.340  0.3311 -0.3899  0.7335
45465SOL    HW142232  12.173   0.376   3.279  0.4164 -1.7329 -0.9466
45465SOL    HW242233  12.222   0.333   3.416  2.5126  0.4140 -0.9569
45466SOL     OW42234  10.785   0.525   5.981 -0.3429  0.0458  0.9185
45466SOL    HW142235  10.830   0.604   6.012  0.1980  0.4379 -0.7486
45466SOL    HW242236  10.843   0.489   5.914 -0.6067 -1.7661  1.6016
45467SOL     OW42237  11.931   3.423  10.423  0.2238 -0.3432 -0.5891
45467SOL    HW142238  11.843   3.392  10.405 -0.8471  1.4110  1.2655
45467SOL    HW242239  11.969   3.357  10.480  0.7415 -1.8806 -2.6091
45468SOL     OW42240   5.804   6.869   1.650 -0.1107 -0.2031  0.1447
45468SOL    HW142241   5.876   6.925   1.622  0.3417  0.2994  2.1474
45468SOL    HW242242   5.822   6.785   1.609  2.6756 -0.6313  1.9213
45469SOL     OW42243   0.030   5.654   8.921 -0.1155 -0.1631 -0.2709
45469SOL    HW142244  -0.012   5.587   8.867  0.0082 -0.8999  0.5400
45469SOL    HW242245  -0.021   5.733   8.904 -1.0611 -0.7577 -0.2533
45470SOL     OW42246   6.702   7.055   5.412  0.0304 -0.1655 -0.0029
45470SOL    HW142247   6.717   7.102   5.330  0.0940  0.0534  0.1314
45470SOL    HW242248   6.741   7.112   5.479  1.1297 -0.9368  0.0443
45471SOL     OW42249   6.358  12.181   4.505 -0.5754 -0.2804  0.0472
45471SOL    HW142250   6.376  12.250   4.442  1.7216  0.0743  0.9804
45471SOL    HW242251   6.306  12.117   4.457 -0.9024  1.0750 -1.4810
45472SOL     OW42252   0.871   0.702   5.933 -0.0781  0.6462  0.2147
45472SOL    HW142253   0.877   0.606   5.939  1.0149  0.7411  0.8903
45472SOL    HW242254   0.956   0.728   5.897 -0.5789  1.3273 -0.4890
45473SOL     OW42255   8.265  11.650   7.744 -0.3238 -0.2963  0.1149
45473SOL    HW142256   8.273  11.742   7.771 -0.0362 -0.7882  1.8302
45473SOL    HW242257   8.172  11.630   7.753 -0.5470  0.0814 -1.2104
45474SOL     OW42258   8.464  11.817   2.271 -0.0885  0.2859 -0.0617
45474SOL    HW142259   8.422  11.890   2.316  1.6854  1.7427 -0.5811
45474SOL    HW242260   8.544  11.856   2.235  2.1112 -2.4265  1.5117
45475SOL     OW42261   6.302   8.935  10.687  0.4710  0.4152  0.3133
45475SOL    HW142262   6.329   8.985  10.610 -1.3665  0.9576 -0.0398
45475SOL    HW242263   6.275   8.850  10.653  2.0533 -0.2870  0.7172
45476SOL     OW42264  11.936  10.650  10.386  0.6737  0.0171  0.1801
45476SOL    HW142265  11.908  10.562  10.362  0.4640 -0.0647  0.7184
45476SOL    HW242266  11.898  10.706  10.318  0.5292 -0.2667  0.0229
45477SOL     OW42267   0.813  10.852   0.486  0.0079  0.5123 -0.6782
45477SOL    HW142268   0.750  10.857   0.414 -0.0331 -0.0723 -0.6883
45477SOL    HW242269   0.898  10.845   0.443 -0.1649 -2.1218 -0.7394
45478SOL     OW42270   4.733   6.194   0.191  0.0090  0.3743 -0.4832
45478SOL    HW142271   4.729   6.106   0.229  1.2129 -0.0002 -1.1808
45478SOL    HW242272   4.729   6.253   0.266  0.3755 -0.3080  0.0831
45479SOL     OW42273   2.664   9.192   6.382 -0.0404  0.1105 -0.3764
45479SOL    HW142274   2.638   9.276   6.420 -1.2689 -0.6200  0.4815
45479SOL    HW242275   2.731   9.214   6.317  1.3113  1.5218  1.4103
45480SOL     OW42276  11.989   7.152   2.472  0.3167 -0.0564 -0.4623
45480SOL    HW142277  11.923   7.201   2.520  0.6008  0.5991 -0.7265
45480SOL    HW242278  11.945   7.071   2.447 -1.2441  1.3848 -2.7864
45481SOL     OW42279   3.461   5.582   1.931 -0.0949  0.1373  0.6714
45481SOL    HW142280   3.507   5.623   2.005  1.4153 -0.5079  0.1257
45481SOL    HW242281   3.514   5.603   1.855  0.4410 -2.3152  0.2804
45482SOL     OW42282   1.276   9.334   0.137  0.4204  0.2199 -0.3869
45482SOL    HW142283   1.287   9.246   0.170 -0.3688 -0.5358 -2.0084
45482SOL    HW242284   1.236   9.382   0.209 -0.9496 -1.2557 -0.1169
45483SOL     OW42285   4.645   0.530   7.884 -0.2069 -0.3633  0.2100
45483SOL    HW142286   4.641   0.558   7.975  1.3233  0.7376 -0.0072
45483SOL    HW242287   4.700   0.596   7.841 -1.2401 -0.6097 -1.6098
45484SOL     OW42288   1.293  12.092   2.268  0.5293  0.2601  0.9630
45484SOL    HW142289   1.348  12.016   2.253  0.7607  0.8384 -1.5540
45484SOL    HW242290   1.225  12.062   2.328  0.4655 -2.0046 -0.1570
45485SOL     OW42291   9.437   6.757   8.088 -0.0321 -0.6135 -0.2479
45485SOL    HW142292   9.434   6.761   7.993  0.8883  2.0246 -0.2721
45485SOL    HW242293   9.530   6.747   8.109 -0.1987 -0.9224  0.3798
45486SOL     OW42294   7.536   8.706   7.193 -0.1943 -0.0131 -0.4269
45486SOL    HW142295   7.483   8.731   7.118 -0.0205 -1.4959 -1.0720
45486SOL    HW242296   7.503   8.620   7.219  1.1246 -0.4605 -0.1406
45487SOL     OW42297   2.011   4.169  11.065 -0.3691  0.3101 -0.0563
45487SOL    HW142298   2.078   4.202  11.125 -0.9173  0.2510  0.5913
45487SOL    HW242299   1.955   4.244  11.047 -1.1640 -0.0616  0.8121
45488SOL     OW42300   8.653   6.475   8.637 -0.0379 -0.5031 -0.0823
45488SOL    HW142301   8.652   6.485   8.732 -0.3646  0.0896 -0.1473
45488SOL    HW242302   8.672   6.382   8.623 -3.6599 -1.5109  0.6213
45489SOL     OW42303   7.713   5.443   0.370  0.4006 -0.5093  0.2682
45489SOL    HW142304   7.782   5.380   0.350  0.3950 -0.6216  0.5845
45489SOL    HW242305   7.640   5.390   0.402  0.5091 -0.3280  0.8475
45490SOL     OW42306   3.720   4.723   6.333  0.0564 -0.0266 -0.0659
45490SOL    HW142307   3.650   4.781   6.303 -0.9337 -1.5935 -0.9014
45490SOL    HW242308   3.766   4.697   6.253  0.5359 -0.3476  0.3058
45491SOL     OW42309   1.480   7.477   1.378  0.0722  0.5771 -0.4379
45491SOL    HW142310   1.416   7.446   1.442 -1.1870 -0.6011 -2.1579
45491SOL    HW242311   1.564   7.441   1.407 -0.6363 -0.7382  0.0454
45492SOL     OW42312   4.306  12.281   0.572  0.1725  0.6849  0.1303
45492SOL    HW142313   4.329  12.189   0.577 -1.1656  0.2679 -0.9488
45492SOL    HW242314   4.355  12.314   0.497  0.3710  0.7757  0.2977
45493SOL     OW42315   6.911   0.492   2.258 -0.0570 -0.1623  0.0959
45493SOL    HW142316   6.901   0.422   2.193  2.1992 -1.7602  1.3182
45493SOL    HW242317   6.823   0.507   2.292 -0.8377 -1.2473 -1.3356
45494SOL     OW42318   1.309   0.799   8.996 -0.1576 -0.5676  0.0472
45494SOL    HW142319   1.326   0.716   9.040  2.4964  0.0175  0.2828
45494SOL    HW242320   1.323   0.865   9.064  0.8869  0.2051 -0.8999
45495SOL     OW42321  10.613   3.378   7.535 -0.0536 -0.2813  0.3285
45495SOL    HW142322  10.550   3.434   7.581 -0.2651 -0.2001 -0.0539
45495SOL    HW242323  10.699   3.408   7.564 -0.0497  1.7410 -1.5259
45496SOL     OW42324   1.880   4.946   8.627 -0.1408  0.1986 -0.0176
45496SOL    HW142325   1.801   4.911   8.587  0.6683 -1.9503  0.1670
45496SOL    HW242326   1.933   4.975   8.553  0.2032 -1.2571 -0.3662
45497SOL     OW42327   6.138   7.761  11.786 -0.0277 -0.1882 -0.1072
45497SOL    HW142328   6.129   7.738  11.694 -0.3283  0.1871 -0.1762
45497SOL    HW242329   6.225   7.802  11.792 -0.6220  1.2065 -0.5407
45498SOL     OW42330   1.684   5.410  11.082  0.1626  0.3500  0.1984
45498SOL    HW142331   1.639   5.468  11.143 -0.8353  0.0356 -0.2071
45498SOL    HW242332   1.774   5.442  11.080 -0.3556  1.8825 -0.0081
45499SOL     OW42333   4.476   0.740  11.207 -0.8467  0.0126  0.3457
45499SOL    HW142334   4.569   0.729  11.225 -0.4778  0.3514 -1.2117
45499SOL    HW242335   4.465   0.710  11.116 -1.6427  2.8793 -0.6165
45500SOL     OW42336   3.835  10.228   1.269  0.2656 -0.2303 -0.0152
45500SOL    HW142337   3.825  10.316   1.306  0.4756 -0.7395  1.3101
45500SOL    HW242338   3.792  10.170   1.332  1.2293 -1.2126 -0.2251
45501SOL     OW42339   6.627   2.954   4.530  0.1821  0.4334  0.2401
45501SOL    HW142340   6.615   2.964   4.436 -0.6165 -2.3667 -0.0462
45501SOL    HW242341   6.715   2.918   4.540  0.8811  2.1485  0.7597
45502SOL     OW42342  10.522  10.722   1.559 -0.4239 -0.1259 -0.0784
45502SOL    HW142343  10.440  10.681   1.585 -0.7083  1.3332  1.5021
45502SOL    HW242344  10.589  10.674   1.606 -0.5334 -0.2578 -0.0565
45503SOL     OW42345   1.008   6.400   4.178  0.2205 -0.5370  0.1960
45503SOL    HW142346   0.930   6.426   4.129  0.2325 -0.5664  0.1613
45503SOL    HW242347   1.050   6.482   4.203  1.8348 -0.4910 -2.3544
45504SOL     OW42348   8.105   1.832   7.836 -0.2772 -0.0051  0.0865
45504SOL    HW142349   8.195   1.802   7.833  0.4832  2.1092  0.1215
45504SOL    HW242350   8.063   1.776   7.901  1.3104 -0.2736  0.9254
45505SOL     OW42351  10.044   2.795   2.581 -0.3846 -0.0575  0.3175
45505SOL    HW142352  10.006   2.803   2.493  1.7392  2.4240 -0.5063
45505SOL    HW242353  10.138   2.786   2.566 -0.1104 -1.0280  2.3563
45506SOL     OW42354   0.193  11.800   1.575 -0.7127 -0.2090  0.0895
45506SOL    HW142355   0.103  11.800   1.545  0.0938 -0.2474 -2.6088
45506SOL    HW242356   0.192  11.747   1.655 -3.4085  1.8318  1.5669
45507SOL     OW42357   6.478   4.076  11.957 -0.5641 -0.3682 -0.0870
45507SOL    HW142358   6.422   4.094  11.881  0.2254 -1.8439 -1.0548
45507SOL    HW242359   6.567   4.080  11.923 -0.1082  0.4278  1.1167
45508SOL     OW42360  11.238   0.260   6.114 -0.4402 -0.4854  0.2330
45508SOL    HW142361  11.217   0.292   6.026  0.8478  1.3180  0.5202
45508SOL    HW242362  11.309   0.316   6.144  1.7350 -3.4289  1.0109
45509SOL     OW42363  10.761   5.173   0.424  0.3930 -0.6028 -0.2155
45509SOL    HW142364  10.731   5.252   0.469  0.8833  1.2743 -2.9276
45509SOL    HW242365  10.838   5.145   0.475  0.5726  1.0330  0.4892
45510SOL     OW42366   9.677   8.928   7.595  0.1498  0.2243 -0.1419
45510SOL    HW142367   9.694   9.021   7.610 -0.5134  0.3353 -0.0485
45510SOL    HW242368   9.764   8.890   7.581  0.3463  1.1462 -1.8209
45511SOL     OW42369   4.516   4.683   7.922  0.0741 -0.5801 -0.3057
45511SOL    HW142370   4.507   4.612   7.858 -0.2593 -0.8877  0.0843
45511SOL    HW242371   4.437   4.735   7.912  0.2083 -0.3967 -0.4231
45512SOL     OW42372   3.925   5.099   8.375 -0.1318 -0.5333 -0.1571
45512SOL    HW142373   3.999   5.114   8.435 -0.9656  1.6530  0.4290
45512SOL    HW242374   3.865   5.044   8.425  0.6753 -1.5560 -0.2905
45513SOL     OW42375   0.513   4.973   4.301 -0.7744 -0.1198 -0.4588
45513SOL    HW142376   0.596   4.924   4.300  0.9998  2.4724  2.2918
45513SOL    HW242377   0.464   4.936   4.375 -0.7479  0.2857 -0.2376
45514SOL     OW42378   0.887   9.084   6.730  0.1402  0.0199  0.0023
45514SOL    HW142379   0.934   9.077   6.647 -0.6625  2.9909 -0.8325
45514SOL    HW242380   0.797   9.107   6.705 -0.7221 -1.2668  1.6656
45515SOL     OW42381   2.293  10.459   2.952  0.6515 -0.1058  0.0849
45515SOL    HW142382   2.203  10.447   2.983  1.0250  1.8298  2.0765
45515SOL    HW242383   2.284  10.465   2.856 -0.9943 -2.3396  0.0136
45516SOL     OW42384   0.061   1.921   7.301 -0.5228  0.2064 -0.3321
45516SOL    HW142385   0.008   1.910   7.380 -0.2067 -1.0955 -0.2858
45516SOL    HW242386  -0.002   1.913   7.229 -0.4938 -0.6508 -0.2618
45517SOL     OW42387   7.649   1.539   6.598 -0.0991 -0.6455 -0.2057
45517SOL    HW142388   7.738   1.551   6.631  0.4185 -0.2240 -1.6810
45517SOL    HW242389   7.621   1.455   6.635 -0.1952  0.5176  2.5746
45518SOL     OW42390  11.281   9.703  10.346 -0.1174 -0.1227 -0.1614
45518SOL    HW142391  11.324   9.776  10.302 -2.8802  1.0541 -1.1218
45518SOL    HW242392  11.304   9.626  10.294 -0.5304  0.7374 -1.6688
45519SOL     OW42393   5.566  11.667   5.470  0.1587  0.2712 -1.0084
45519SOL    HW142394   5.529  11.645   5.385 -0.7028 -1.4443 -0.2215
45519SOL    HW242395   5.494  11.656   5.532  1.5848 -1.9759  0.3969
45520SOL     OW42396   8.419   4.480   3.298 -0.2444 -0.4250  0.3510
45520SOL    HW142397   8.391   4.555   3.350 -0.5260 -0.4926  0.3022
45520SOL    HW242398   8.387   4.498   3.210  0.4401 -0.1980  0.1425
45521SOL     OW42399   8.458  11.183  10.038  0.1360 -0.1402 -0.0677
45521SOL    HW142400   8.441  11.274  10.063  1.0772 -0.3842  1.5643
45521SOL    HW242401   8.418  11.131  10.108  1.8101 -0.8927  0.3675
45522SOL     OW42402  12.034   9.194   1.629 -0.9172  0.1762 -0.1759
45522SOL    HW142403  11.982   9.166   1.553 -0.1693 -1.7134 -0.0507
45522SOL    HW242404  11.972   9.194   1.702 -1.4399  1.1422 -0.5938
45523SOL     OW42405   7.870   8.173   8.969  0.0210 -0.0044 -0.5185
45523SOL    HW142406   7.777   8.192   8.956 -0.1264  0.7770  1.3208
45523SOL    HW242407   7.913   8.214   8.894 -0.9392  1.5551 -0.2768
45524SOL     OW42408   0.371   1.599   6.835  0.5348  0.0335 -0.1328
45524SOL    HW142409   0.424   1.640   6.903  0.2855 -0.0175  0.0943
45524SOL    HW242410   0.332   1.523   6.877  1.7592 -1.0147 -0.8159
45525SOL     OW42411   4.456   5.303  11.930 -0.2501  0.2945 -0.2623
45525SOL    HW142412   4.367   5.271  11.940 -0.1889  0.3381  0.5722
45525SOL    HW242413   4.448   5.382  11.877 -0.6643  0.1116 -0.4739
45526SOL     OW42414   5.673   7.569   8.164  0.2118 -0.1163  0.4185
45526SOL    HW142415   5.758   7.564   8.119  0.4692  1.2641  0.6809
45526SOL    HW242416   5.696   7.588   8.255 -0.3709  1.7885  0.2135
45527SOL     OW42417   4.685   7.968   5.304  0.4668  0.1049 -0.1102
45527SOL    HW142418   4.698   8.045   5.249  1.6447 -0.0540 -0.0747
45527SOL    HW242419   4.627   7.911   5.253  0.1726  0.6961 -0.4405
45528SOL     OW42420   8.381   4.105   0.184  0.3701  0.1772  0.0950
45528SOL    HW142421   8.465   4.104   0.139  0.2513  0.0928 -0.1252
45528SOL    HW242422   8.402   4.085   0.275  0.6411  0.6293  0.1335
45529SOL     OW42423   7.601   7.286   0.120 -0.4222 -0.2541 -0.3200
45529SOL    HW142424   7.605   7.238   0.037  0.5336  0.1552 -0.5337
45529SOL    HW242425   7.637   7.225   0.185  0.0457 -0.1241 -0.4494
45530SOL     OW42426   2.249   1.907   3.593 -0.4686 -0.1094 -0.3198
45530SOL    HW142427   2.226   1.981   3.537 -1.1273 -0.4200 -0.4683
45530SOL    HW242428   2.330   1.873   3.556  0.8062  1.5755  0.7645
45531SOL     OW42429   7.913   9.406  10.923 -0.1872  0.3137  0.0631
45531SOL    HW142430   7.999   9.368  10.939  0.9367  3.0711  1.3142
45531SOL    HW242431   7.883   9.365  10.842  2.8426  0.1101 -1.0824
45532SOL     OW42432   3.296   1.689   6.608 -0.3025  0.6620 -0.1958
45532SOL    HW142433   3.293   1.600   6.573  2.4852  0.7066 -0.8122
45532SOL    HW242434   3.264   1.681   6.697 -0.0440 -0.9981 -0.2108
45533SOL     OW42435   9.079  10.288   2.883 -0.5444 -0.0097  0.1508
45533SOL    HW142436   9.024  10.359   2.851  1.1550  1.3257  0.0213
45533SOL    HW242437   9.029  10.248   2.954 -0.7065  2.6927  1.6796
45534SOL     OW42438  10.404   7.626   2.895  0.2285 -0.0354  1.0572
45534SOL    HW142439  10.312   7.599   2.903  0.5481 -1.5001  0.2371
45534SOL    HW242440  10.453   7.552   2.932  1.0744  1.1502  2.4032
45535SOL     OW42441  10.392   1.537   9.463 -0.3126 -0.4124 -0.2611
45535SOL    HW142442  10.415   1.515   9.553 -1.0930  3.6609  1.1379
45535SOL    HW242443  10.463   1.594   9.433 -1.9151  1.4847 -0.6951
45536SOL     OW42444   4.803   3.963   8.034 -0.1209 -0.1726 -0.3799
45536SOL    HW142445   4.880   4.015   8.011  0.6844 -0.4020  1.6333
45536SOL    HW242446   4.837   3.877   8.058 -0.9304 -0.1351  1.0036
45537SOL     OW42447  12.182   1.790  10.426 -0.2515 -0.1338 -0.1536
45537SOL    HW142448  12.210   1.747  10.507 -0.2505  0.1624  0.0030
45537SOL    HW242449  12.158   1.879  10.452  0.7797  0.3119 -0.6534
45538SOL     OW42450   2.932   7.702   7.471 -0.3410 -0.0567 -0.1335
45538SOL    HW142451   2.985   7.712   7.550 -0.0304  0.4473 -0.3985
45538SOL    HW242452   2.979   7.637   7.419  0.2656  0.6996 -0.5577
45539SOL     OW42453  10.762   1.006  11.535 -0.5631 -0.1379 -0.3480
45539SOL    HW142454  10.805   1.092  11.536 -0.4746 -0.1655  1.9268
45539SOL    HW242455  10.724   1.000  11.447  0.8180  1.5071 -1.1304
45540SOL     OW42456  12.136   7.455   6.731 -0.0112  0.3021 -0.5445
45540SOL    HW142457  12.224   7.434   6.762 -0.1453  0.2107 -0.2191
45540SOL    HW242458  12.144   7.543   6.694  0.4666 -0.1657 -1.5730
45541SOL     OW42459   7.990   9.271  11.435 -0.0396 -0.9209  0.0565
45541SOL    HW142460   8.030   9.340  11.488 -2.4051  1.1461 -0.6553
45541SOL    HW242461   7.932   9.225  11.495 -0.8567 -0.1872 -0.1562
45542SOL     OW42462   4.472   2.286   5.083 -0.5295 -0.0125  0.5844
45542SOL    HW142463   4.560   2.288   5.122 -0.7567 -0.1887  1.1224
45542SOL    HW242464   4.424   2.223   5.137 -0.5777 -1.0286 -0.5944
45543SOL     OW42465   1.037   2.710   2.089  0.0978 -0.0251  0.0507
45543SOL    HW142466   0.983   2.782   2.059 -1.5184 -1.0756  0.3219
45543SOL    HW242467   0.991   2.631   2.060  1.4484 -0.9701  0.3488
45544SOL     OW42468   7.950   6.048   4.367  0.5392 -0.1490  0.2394
45544SOL    HW142469   7.906   6.096   4.437  1.1605  1.1609 -0.2403
45544SOL    HW242470   8.042   6.074   4.373  0.5352  0.3262 -1.3081
45545SOL     OW42471  11.690  10.468   9.599 -0.1315 -0.7912 -0.0210
45545SOL    HW142472  11.764  10.529   9.598  0.2733 -1.2626  0.5282
45545SOL    HW242473  11.726  10.387   9.635 -0.7820 -1.2058 -0.2843
45546SOL     OW42474   3.391   8.677   5.762 -0.3443  0.1373 -0.2653
45546SOL    HW142475   3.408   8.701   5.671  0.3894  2.0197  0.3139
45546SOL    HW242476   3.296   8.674   5.770 -0.4084 -0.6154 -1.2113
45547SOL     OW42477   8.213   3.036   1.605 -0.2613  0.5086  0.4482
45547SOL    HW142478   8.181   3.107   1.660 -1.8217  0.1688  0.0249
45547SOL    HW242479   8.237   2.966   1.666 -1.9204  0.1567  0.7333
45548SOL     OW42480   6.666  10.855   5.622  0.3703 -0.2095 -0.1059
45548SOL    HW142481   6.660  10.796   5.697  0.0610 -1.3841 -1.0321
45548SOL    HW242482   6.759  10.856   5.599  1.0356  2.5805  2.1299
45549SOL     OW42483  12.271   2.415   3.761 -0.0515  0.0084 -0.1052
45549SOL    HW142484  12.351   2.393   3.714  0.1384  1.0675 -0.3077
45549SOL    HW242485  12.216   2.459   3.696 -0.5412 -0.1421  0.1948
45550SOL     OW42486   4.671   8.609  10.219 -0.2504 -0.5718 -0.2813
45550SOL    HW142487   4.617   8.580  10.293 -0.1440  1.8821  0.8412
45550SOL    HW242488   4.628   8.570  10.142 -2.6170 -0.1163  0.7260
45551SOL     OW42489   6.136   8.883   0.375  0.0326  0.0973  0.2124
45551SOL    HW142490   6.099   8.799   0.405 -0.3597  0.2959  0.2926
45551SOL    HW242491   6.059   8.935   0.351  0.3168 -0.9581 -3.6942
45552SOL     OW42492   8.551   4.693   8.265 -0.1609 -0.0701  0.1475
45552SOL    HW142493   8.504   4.636   8.327 -0.5133 -0.9321 -0.8751
45552SOL    HW242494   8.640   4.659   8.263 -0.4989 -0.9464 -0.8493
45553SOL     OW42495   2.685   0.287   6.926 -0.5762  0.4788  0.1076
45553SOL    HW142496   2.686   0.303   7.020  1.2754  0.1452  0.1832
45553SOL    HW242497   2.710   0.195   6.917 -2.1943  0.0731 -0.6770
45554SOL     OW42498   3.042  11.232   9.908  0.0093  0.1570 -0.3060
45554SOL    HW142499   3.023  11.297   9.840 -0.6650 -0.5076 -0.7653
45554SOL    HW242500   3.091  11.281   9.974 -0.2076  1.0599 -0.7926
45555SOL     OW42501   3.848  10.075   0.940 -0.0203 -0.4981 -0.2070
45555SOL    HW142502   3.757  10.059   0.967 -0.3258  1.8489  0.3705
45555SOL    HW242503   3.843  10.084   0.845 -0.1656 -1.6105 -0.3160
45556SOL     OW42504   8.550   0.597   0.551 -0.2282  0.0241 -0.6028
45556SOL    HW142505   8.571   0.646   0.472 -1.8299  0.8336 -0.5711
45556SOL    HW242506   8.459   0.571   0.539 -1.1231  1.7539  1.7433
45557SOL     OW42507   3.625   1.349   2.075  0.2546 -0.6352  0.1617
45557SOL    HW142508   3.568   1.406   2.023  1.0174 -0.3270 -0.3424
45557SOL    HW242509   3.675   1.409   2.130  0.8435 -0.8348 -0.1522
45558SOL     OW42510   8.158   6.382   3.968 -0.1749  0.0940  0.4173
45558SOL    HW142511   8.132   6.323   4.040 -1.7540 -0.2655 -0.3966
45558SOL    HW242512   8.094   6.453   3.972 -0.9117 -0.4328 -1.2049
45559SOL     OW42513   9.828   4.192   6.299 -0.1600  0.3288 -0.3420
45559SOL    HW142514   9.888   4.119   6.316 -0.7736 -0.2503 -0.6148
45559SOL    HW242515   9.741   4.151   6.294 -0.4249  0.9688 -1.2742
45560SOL     OW42516   4.448   9.252   6.694 -0.1931  0.2031 -0.9014
45560SOL    HW142517   4.446   9.159   6.717  0.2649  1.0238  3.2483
45560SOL    HW242518   4.534   9.265   6.653  1.1238 -0.7377  1.3733
45561SOL     OW42519   6.191   2.287   9.485 -0.1866 -0.1112 -0.3839
45561SOL    HW142520   6.186   2.383   9.490 -1.7542 -0.1621 -0.2884
45561SOL    HW242521   6.215   2.260   9.573 -1.7008  0.1453  0.1499
45562SOL     OW42522   1.389   9.055   3.107  0.5339 -1.0461  0.0675
45562SOL    HW142523   1.460   9.004   3.069  0.8470 -1.1012  0.7132
45562SOL    HW242524   1.413   9.065   3.199 -0.1055 -0.7377  0.2078
45563SOL     OW42525   1.819   1.106   0.092 -0.2161 -0.3742  0.1987
45563SOL    HW142526   1.852   1.180   0.143  0.9430 -0.3000 -0.6341
45563SOL    HW242527   1.874   1.104   0.014 -0.4950 -1.8932  0.0224
45564SOL     OW42528   6.411   3.281   0.739 -0.8195 -0.4790  0.5742
45564SOL    HW142529   6.390   3.203   0.687 -0.0850 -0.2353 -0.1095
45564SOL    HW242530   6.350   3.348   0.706  0.2516 -0.0679 -0.6575
45565SOL     OW42531  10.019   8.811  12.020  0.0564  0.1147 -0.1753
45565SOL    HW142532  10.112   8.815  11.998  0.6676 -1.1137  1.9370
45565SOL    HW242533  10.003   8.892  12.069 -0.6471  1.5135 -2.5449
45566SOL     OW42534   5.646   8.497   7.338  0.2523 -0.1550  0.3051
45566SOL    HW142535   5.552   8.489   7.357  0.0525  0.8018 -0.2073
45566SOL    HW242536   5.672   8.579   7.381  0.4753  0.4505 -0.9447
45567SOL     OW42537   8.831   0.629   5.276  0.3022 -0.1000 -0.0209
45567SOL    HW142538   8.767   0.653   5.343  0.5860  0.1627  0.1587
45567SOL    HW242539   8.801   0.544   5.244 -0.6808  0.4670 -0.6276
45568SOL     OW42540  10.045   2.965  12.238 -0.2470 -0.3317 -0.2865
45568SOL    HW142541  10.131   3.006  12.244 -0.6768  0.6477 -0.5149
45568SOL    HW242542   9.985   3.037  12.218 -0.8546 -1.2522 -2.0685
45569SOL     OW42543   1.104  10.102   0.216 -0.0088 -0.4551  0.4555
45569SOL    HW142544   1.060  10.100   0.132  1.0239  0.0997 -0.1148
45569SOL    HW242545   1.198  10.106   0.195  0.3350 -1.4277  1.6241
45570SOL     OW42546   5.375   3.727   7.929 -0.1254  0.3148 -0.2852
45570SOL    HW142547   5.355   3.720   8.023 -1.2409  1.5569 -0.4170
45570SOL    HW242548   5.304   3.680   7.886  0.1018  0.2024 -0.5365
45571SOL     OW42549   3.710   4.501   7.038  0.4963 -0.1233 -0.3634
45571SOL    HW142550   3.641   4.445   7.073 -0.3967  0.7079 -0.7508
45571SOL    HW242551   3.790   4.471   7.081 -0.3449 -0.0665  1.2934
45572SOL     OW42552  11.453  10.864   3.375 -0.2556  0.3808 -0.1379
45572SOL    HW142553  11.530  10.910   3.341 -0.4673  0.2043 -0.8683
45572SOL    HW242554  11.378  10.915   3.342 -0.4709  1.4359  1.7873
45573SOL     OW42555   8.285   4.905  10.488  0.1139  0.3284  0.1176
45573SOL    HW142556   8.349   4.974  10.507  0.2063  0.1552  0.4313
45573SOL    HW242557   8.276   4.857  10.570 -0.1494  0.1282 -0.0273
45574SOL     OW42558   7.162   7.518   0.883 -0.1100  0.4553 -0.2146
45574SOL    HW142559   7.110   7.440   0.864  0.4070 -0.4499  1.7953
45574SOL    HW242560   7.251   7.494   0.861 -0.0993  0.8612 -0.6153
45575SOL     OW42561   8.884  10.864   1.896  0.0552 -0.1749 -0.2121
45575SOL    HW142562   8.835  10.790   1.932 -1.0685  0.2387 -0.8628
45575SOL    HW242563   8.825  10.905   1.834  1.0165  0.7055 -0.5816
45576SOL     OW42564   6.005  11.217   1.206  0.2842  0.0637 -0.1684
45576SOL    HW142565   5.966  11.158   1.142 -0.7109  0.3548  0.1615
45576SOL    HW242566   5.945  11.216   1.280 -0.4564  2.4939 -0.6601
45577SOL     OW42567   7.070   5.967   2.411  0.1030  0.4009  0.4091
45577SOL    HW142568   7.131   6.036   2.435  0.6840 -0.2339  0.7867
45577SOL    HW242569   7.037   5.933   2.494 -0.4047  0.4169  0.2201
45578SOL     OW42570   6.301   0.016   3.907  0.8872 -0.2911  0.4902
45578SOL    HW142571   6.213   0.051   3.889  0.8337 -0.2071  0.8923
45578SOL    HW242572   6.289  -0.079   3.907  0.9374 -0.3007 -0.1422
45579SOL     OW42573   0.104   1.656   1.488  0.0846 -0.1925 -0.2198
45579SOL    HW142574   0.132   1.568   1.461  1.2219  0.5745 -1.7065
45579SOL    HW242575   0.014   1.644   1.518 -0.6366 -1.5241 -2.5797
45580SOL     OW42576   4.918   5.813   4.141 -0.3802  0.0691  0.4197
45580SOL    HW142577   4.942   5.896   4.101  0.5063 -0.3896 -0.0226
45580SOL    HW242578   4.966   5.747   4.091 -0.8954 -0.6928  0.9047
45581SOL     OW42579  12.038   1.521   8.887 -0.0981 -0.3675  0.5959
45581SOL    HW142580  12.075   1.534   8.799  0.1483  1.0298  0.8740
45581SOL    HW242581  11.949   1.491   8.871 -0.3253  0.6348 -0.1650
45582SOL     OW42582  11.028   1.073   7.787  0.1502  0.4695  0.5951
45582SOL    HW142583  11.013   1.055   7.694  1.3996 -0.0211  0.4783
45582SOL    HW242584  10.956   1.132   7.811 -2.7404 -2.6712  0.3979
45583SOL     OW42585   4.812   8.452   4.383 -0.0583  0.6403 -0.0496
45583SOL    HW142586   4.727   8.449   4.427  0.0263 -1.8975  0.0772
45583SOL    HW242587   4.812   8.377   4.324  1.6050  1.3483 -1.0333
45584SOL     OW42588  11.891  10.691   4.833  0.1463  0.6371 -0.2248
45584SOL    HW142589  11.796  10.683   4.843 -0.0035 -0.5988 -2.0150
45584SOL    HW242590  11.914  10.770   4.881 -1.9483  1.5530 -0.6094
45585SOL     OW42591   0.277   7.744   0.210  0.3449 -0.1828  0.0928
45585SOL    HW142592   0.226   7.820   0.180  0.4781  0.8210  2.2029
45585SOL    HW242593   0.333   7.780   0.279  2.1404 -1.7605 -0.4944
45586SOL     OW42594   2.642   9.801   2.578  0.4257  0.1591  0.7841
45586SOL    HW142595   2.575   9.734   2.589  0.7768 -0.4163 -0.3592
45586SOL    HW242596   2.625   9.838   2.491  2.1944 -0.7528 -0.0148
45587SOL     OW42597   2.029   3.826  12.229 -0.4484 -0.7156  0.1891
45587SOL    HW142598   1.946   3.859  12.195 -0.1802  1.1405  1.1977
45587SOL    HW242599   2.086   3.821  12.153 -1.0170 -0.4713 -0.2588
45588SOL     OW42600   4.649   6.041   8.555  0.2601  0.2927 -0.0347
45588SOL    HW142601   4.622   6.132   8.563  1.1744  0.5108  0.8118
45588SOL    HW242602   4.659   6.011   8.646  1.3391 -0.2182 -0.3089
45589SOL     OW42603  10.082   6.606   3.301 -0.6118  0.1782  0.3561
45589SOL    HW142604  10.018   6.537   3.314  0.2569 -0.4470  1.5075
45589SOL    HW242605  10.166   6.566   3.324  0.2533  0.8958 -1.2963
45590SOL     OW42606   9.388   9.156   3.424  0.3492 -0.6421  0.1023
45590SOL    HW142607   9.358   9.145   3.334 -0.5299  0.6254  0.2133
45590SOL    HW242608   9.356   9.242   3.450  2.9666  0.2339  0.7032
45591SOL     OW42609  11.823   9.319   6.640  0.2611 -0.0098  0.1507
45591SOL    HW142610  11.742   9.287   6.598  1.5990 -1.4761 -1.4756
45591SOL    HW242611  11.830   9.267   6.720  0.3287 -0.9306 -0.4403
45592SOL     OW42612   5.524   5.367   5.507  0.0840 -0.2650  0.2010
45592SOL    HW142613   5.508   5.456   5.536  0.0279 -0.6475  1.3842
45592SOL    HW242614   5.619   5.361   5.499  0.0960 -0.1383  0.2484
45593SOL     OW42615   0.683  12.148   4.147  0.0218 -0.0279  0.0843
45593SOL    HW142616   0.598  12.187   4.168  1.0093  2.1504  0.3536
45593SOL    HW242617   0.663  12.086   4.077 -2.0821 -1.2478  1.6392
45594SOL     OW42618   2.850   3.750  11.557 -0.0079  0.2491  0.2219
45594SOL    HW142619   2.883   3.752  11.467  1.4133  1.5029  0.7456
45594SOL    HW242620   2.859   3.840  11.588  0.4784 -0.3706  1.9631
45595SOL     OW42621  10.527   2.631   4.066 -0.0908  0.2835 -0.0983
45595SOL    HW142622  10.531   2.567   4.138 -1.4772 -0.0955 -0.3320
45595SOL    HW242623  10.459   2.692   4.092 -2.7537 -1.5171 -2.3454
45596SOL     OW42624   8.372   4.387   7.739  0.6149 -0.4608 -0.2436
45596SOL    HW142625   8.374   4.465   7.794 -0.2467  0.0538 -0.9111
45596SOL    HW242626   8.347   4.316   7.799 -0.1218  0.0580  0.0826
45597SOL     OW42627  11.734   0.540   6.109 -0.6718  0.1049  0.2604
45597SOL    HW142628  11.740   0.516   6.016 -1.1744  2.1608 -0.3471
45597SOL    HW242629  11.665   0.606   6.112  0.5202  1.3481  1.8305
45598SOL     OW42630   5.444   7.303   7.964 -0.3829  0.2149  0.3548
45598SOL    HW142631   5.352   7.280   7.948  0.0643 -0.6436 -1.2415
45598SOL    HW242632   5.446   7.399   7.956 -1.1159  0.2301  0.2980
45599SOL     OW42633   4.902   0.509   7.248 -0.1617 -0.2311 -0.1529
45599SOL    HW142634   4.923   0.415   7.246  0.6576 -0.0678  0.4674
45599SOL    HW242635   4.869   0.524   7.337 -1.7266 -0.2134 -0.7018
45600SOL     OW42636   1.622   5.766   6.069  0.2623  0.3615 -0.8391
45600SOL    HW142637   1.526   5.764   6.074  0.2828 -0.0246 -0.5554
45600SOL    HW242638   1.651   5.723   6.149  0.7056  2.7980  0.4073
45601SOL     OW42639   4.001   4.851   2.412 -0.4295  0.1147  0.1231
45601SOL    HW142640   4.083   4.837   2.458 -0.8851  1.9125  1.5717
45601SOL    HW242641   3.957   4.765   2.414  0.9449 -0.6078  0.1895
45602SOL     OW42642  11.252   0.508   3.676 -0.3795  0.1105 -0.5727
45602SOL    HW142643  11.225   0.541   3.761  0.4689 -1.3927  0.3311
45602SOL    HW242644  11.184   0.444   3.653  0.9163 -1.7773  0.5022
45603SOL     OW42645   8.979  11.092   3.876  0.3724  0.4418  0.5740
45603SOL    HW142646   9.072  11.084   3.852 -0.1564  1.5070 -2.1254
45603SOL    HW242647   8.967  11.185   3.893 -0.4620  0.5167 -0.3774
45604SOL     OW42648   9.976   1.180   2.837  0.2583 -0.0686 -0.2580
45604SOL    HW142649   9.947   1.098   2.878 -1.8744 -0.7234 -2.7977
45604SOL    HW242650   9.906   1.242   2.854  2.3835  1.7567  2.6684
45605SOL     OW42651   3.930   6.342   3.150 -0.7865  0.3396  0.1224
45605SOL    HW142652   3.908   6.323   3.241  1.0987  0.0805  0.5663
45605SOL    HW242653   3.905   6.264   3.102 -0.0425 -0.3046  0.7510
45606SOL     OW42654   7.685   8.623  10.565 -0.3027 -0.2181  0.0198
45606SOL    HW142655   7.631   8.659  10.495  1.3547 -3.1575 -2.9892
45606SOL    HW242656   7.766   8.675  10.562 -0.9209  0.8700  1.1243
45607SOL     OW42657   8.621  11.004   2.681  0.7027 -0.2393 -0.4549
45607SOL    HW142658   8.590  11.094   2.687  2.4472  0.3038  1.2238
45607SOL    HW242659   8.541  10.951   2.685 -0.1881  1.1604  1.1333
45608SOL     OW42660  10.585   7.008   8.476 -0.0353  0.1277  0.1929
45608SOL    HW142661  10.537   7.039   8.552 -1.1286 -1.3945  0.1757
45608SOL    HW242662  10.634   6.932   8.509 -0.2844 -0.3574 -0.5309
45609SOL     OW42663   2.826   2.166  11.851 -0.1403  0.0809 -0.0509
45609SOL    HW142664   2.787   2.116  11.778 -0.7342  0.4732 -0.0085
45609SOL    HW242665   2.907   2.203  11.814  0.5789 -1.3107  0.0623
45610SOL     OW42666  10.069   8.861   8.928  0.1122  0.4391  0.2631
45610SOL    HW142667  10.041   8.816   9.007 -0.9837  0.8315  0.1051
45610SOL    HW242668   9.990   8.869   8.875 -0.0579  3.6621  0.8131
45611SOL     OW42669   0.203  11.951   8.871 -0.3274 -0.4187 -0.1427
45611SOL    HW142670   0.250  11.957   8.954 -0.5552  2.7790 -0.1361
45611SOL    HW242671   0.261  11.990   8.807 -1.9097  1.4252 -0.5605
45612SOL     OW42672  11.907   1.483  11.996  0.2936  0.3836 -0.2243
45612SOL    HW142673  11.891   1.536  12.074  0.7181  1.4165 -0.8147
45612SOL    HW242674  11.859   1.402  12.011 -2.7532  1.9894 -0.4847
45613SOL     OW42675   2.417   7.623   1.547  0.0155 -0.5137 -0.4591
45613SOL    HW142676   2.379   7.675   1.477 -0.8399 -1.7778 -0.9837
45613SOL    HW242677   2.434   7.685   1.617 -0.6833  0.5123 -1.1717
45614SOL     OW42678   2.275   4.811   2.755  0.7127  0.4127 -0.3994
45614SOL    HW142679   2.322   4.796   2.674  1.5453  3.3230 -0.5392
45614SOL    HW242680   2.303   4.898   2.785 -1.6129  0.6080  1.5791
45615SOL     OW42681   3.890   1.609   2.118  0.3348  0.4721  0.2457
45615SOL    HW142682   3.927   1.695   2.100  0.8648 -0.0276 -1.2119
45615SOL    HW242683   3.802   1.613   2.082  0.2164  0.5202  0.5351
45616SOL     OW42684   3.638   1.630   0.540 -0.3405 -0.4402  0.4362
45616SOL    HW142685   3.562   1.674   0.501  1.1437  0.1688 -1.9200
45616SOL    HW242686   3.690   1.701   0.577  1.6255 -0.1168 -2.6146
45617SOL     OW42687   4.945   1.130   3.576  0.1499  0.8146  0.8592
45617SOL    HW142688   4.979   1.213   3.610  0.2329  0.2049  2.3465
45617SOL    HW242689   4.884   1.155   3.507  0.2204  2.1110  1.2465
45618SOL     OW42690  11.415   8.582   8.698  0.1871 -0.3304  0.2119
45618SOL    HW142691  11.490   8.632   8.665  1.0293 -0.4367  1.8607
45618SOL    HW242692  11.455   8.515   8.755 -1.0347 -1.6814 -0.4568
45619SOL     OW42693   6.026   7.571   6.733 -0.5438  0.5305 -0.0130
45619SOL    HW142694   5.976   7.494   6.760 -0.7538  0.0997 -1.5504
45619SOL    HW242695   5.982   7.601   6.654 -0.7056  2.4884  0.7648
45620SOL     OW42696   7.511   0.366  10.078  1.0031 -0.1127  0.6622
45620SOL    HW142697   7.439   0.302  10.083  1.0142 -0.0342  2.3817
45620SOL    HW242698   7.576   0.324  10.022 -1.1780  0.7031 -2.8171
45621SOL     OW42699   7.860   7.770   0.071 -0.2617 -0.4462  0.5429
45621SOL    HW142700   7.802   7.712   0.120 -0.6011  0.3952  1.1611
45621SOL    HW242701   7.830   7.764  -0.020 -1.5365  0.2121  0.8996
45622SOL     OW42702   8.656   4.105   7.335  0.0061  0.0699  0.0737
45622SOL    HW142703   8.628   4.105   7.244 -1.0290 -0.2319  0.3777
45622SOL    HW242704   8.649   4.196   7.363 -1.5595 -0.1156  0.3879
45623SOL     OW42705  11.411   9.398   2.527 -0.0310  0.0230 -0.0913
45623SOL    HW142706  11.380   9.382   2.437  1.0505 -0.9633 -0.3158
45623SOL    HW242707  11.469   9.474   2.518  3.3119 -2.3988 -1.0778
45624SOL     OW42708   5.567   7.390   7.224  0.1107 -0.1521 -0.0206
45624SOL    HW142709   5.620   7.312   7.208  2.5139  1.1617  0.9758
45624SOL    HW242710   5.508   7.395   7.149  1.8227 -1.4075 -1.5472
45625SOL     OW42711   8.659   4.017   6.501  0.0968 -0.3723 -0.1663
45625SOL    HW142712   8.648   4.060   6.417  1.6379  1.6041  0.5571
45625SOL    HW242713   8.588   4.051   6.555 -0.4509 -1.0695 -0.4348
45626SOL     OW42714   9.155   2.647  12.312 -0.0813  0.4100 -0.3502
45626SOL    HW142715   9.102   2.610  12.242 -0.7173 -0.0185  0.3447
45626SOL    HW242716   9.245   2.647  12.277 -0.5273  1.1916 -1.5473
45627SOL     OW42717   5.674  10.946  10.439 -0.4584 -0.5478  0.5065
45627SOL    HW142718   5.703  10.999  10.512 -1.3364 -1.2362  1.3802
45627SOL    HW242719   5.603  10.997  10.398 -0.3068 -0.3888  0.4417
45628SOL     OW42720   4.827   8.842  11.736 -0.1523 -0.4105  0.3384
45628SOL    HW142721   4.785   8.906  11.793  0.0080  0.8698 -0.9200
45628SOL    HW242722   4.755   8.803  11.686  0.0476  2.1341 -2.1706
45629SOL     OW42723   3.969   1.686  11.772 -0.3239  0.6916  0.1776
45629SOL    HW142724   3.993   1.774  11.802  1.3234 -0.3631  2.1868
45629SOL    HW242725   3.976   1.631  11.850 -3.5485 -0.8824 -0.4948
45630SOL     OW42726   1.398  11.609   2.522 -0.2399  0.3539 -0.4973
45630SOL    HW142727   1.487  11.605   2.486 -0.2762 -0.6311 -0.5078
45630SOL    HW242728   1.351  11.539   2.477 -0.7263  0.1755  0.2704
45631SOL     OW42729   0.037   5.748   8.599 -0.2098  0.0625 -0.1083
45631SOL    HW142730   0.115   5.719   8.553 -1.7624 -0.4944 -2.5820
45631SOL    HW242731   0.052   5.842   8.615  0.2218  0.4306 -2.2994
45632SOL     OW42732   3.155   4.648   3.935  0.4912 -0.0582 -0.2207
45632SOL    HW142733   3.095   4.702   3.986  1.7355  1.1496  0.0066
45632SOL    HW242734   3.101   4.614   3.863 -0.7644 -0.0886  0.7033
45633SOL     OW42735   1.725  11.977   8.652  0.4712  0.0133  0.2639
45633SOL    HW142736   1.638  11.941   8.637  0.1370  1.0665 -0.5286
45633SOL    HW242737   1.746  11.954   8.742  0.6947 -2.9170 -0.4565
45634SOL     OW42738   7.018   1.282  11.503  0.1922  0.1452 -0.2657
45634SOL    HW142739   6.946   1.236  11.546  0.3489  0.1916  0.0451
45634SOL    HW242740   6.979   1.363  11.471 -0.0153 -0.0672 -0.5562
45635SOL     OW42741  11.443   9.624  11.740 -0.0050  0.1350  0.3004
45635SOL    HW142742  11.420   9.714  11.762 -0.3473  0.3715 -0.9890
45635SOL    HW242743  11.456   9.625  11.645  2.4818 -0.6131  0.5524
45636SOL     OW42744   1.931  10.068  10.647 -0.2456 -0.7111  0.1246
45636SOL    HW142745   1.968  10.026  10.569 -1.4879 -0.5933 -0.5573
45636SOL    HW242746   1.866  10.129  10.612 -0.6930 -0.5250  1.2529
45637SOL     OW42747   7.344   4.657   7.991  0.1175 -0.3201  0.0345
45637SOL    HW142748   7.413   4.721   8.012 -0.9592  1.4273 -1.4783
45637SOL    HW242749   7.270   4.684   8.046 -0.3442 -0.2358 -0.6180
45638SOL     OW42750  11.547   4.963   6.567 -0.2899 -0.3064  0.2033
45638SOL    HW142751  11.504   4.894   6.517 -3.1236  1.1916  0.3527
45638SOL    HW242752  11.571   4.923   6.650 -1.9015 -1.1162  0.2957
45639SOL     OW42753   3.921   5.236   6.544 -0.1991  0.0429 -0.0974
45639SOL    HW142754   3.831   5.258   6.522 -0.0141  0.5711 -0.3384
45639SOL    HW242755   3.932   5.146   6.512 -0.8499 -0.2896  0.5780
45640SOL     OW42756  12.217  12.028   7.478 -0.4302  0.4440  0.2331
45640SOL    HW142757  12.176  11.942   7.483 -0.4488  0.4446  0.0977
45640SOL    HW242758  12.174  12.079   7.547 -0.1932  0.2516  0.5275
45641SOL     OW42759  10.862   0.696   8.301 -0.2659 -0.2325 -0.3550
45641SOL    HW142760  10.938   0.752   8.285  0.1357 -0.3462  1.0024
45641SOL    HW242761  10.900   0.612   8.329 -0.8637 -1.1804 -2.2371
45642SOL     OW42762   2.756   4.726   1.064  0.1153  0.0173  0.3517
45642SOL    HW142763   2.726   4.635   1.056 -0.4238  0.0807  1.4763
45642SOL    HW242764   2.847   4.719   1.090 -0.6665 -0.3031  3.4248
45643SOL     OW42765   5.234   7.204   3.665 -0.0336 -0.2666 -0.4674
45643SOL    HW142766   5.172   7.258   3.616  0.6498  1.3487  0.3544
45643SOL    HW242767   5.227   7.117   3.626 -2.1000  0.1000 -1.0280
45644SOL     OW42768   9.014   1.764   5.471 -0.1206 -0.3301 -0.0889
45644SOL    HW142769   9.080   1.729   5.411  0.3108 -0.2763  0.3452
45644SOL    HW242770   9.000   1.854   5.441  2.5237  0.8586  1.8041
45645SOL     OW42771   6.034   2.931   8.054 -0.0461  0.2437 -0.5901
45645SOL    HW142772   5.959   2.945   8.112  0.2752  1.0254 -0.3573
45645SOL    HW242773   6.001   2.874   7.985 -0.9117  0.7692 -0.6113
45646SOL     OW42774   8.856   4.026   7.658 -0.7925 -0.0219  0.6256
45646SOL    HW142775   8.883   3.977   7.736 -1.3481 -2.5260 -0.6548
45646SOL    HW242776   8.876   4.117   7.679  1.8986 -0.9289  2.4992
45647SOL     OW42777   6.854   8.443   4.698  0.1967  0.6592  0.3685
45647SOL    HW142778   6.789   8.473   4.762 -0.1746  0.8360 -0.0863
45647SOL    HW242779   6.919   8.513   4.695 -1.2091  2.0079 -1.4812
45648SOL     OW42780   8.425   8.510   8.949  0.2181  0.0564 -0.4408
45648SOL    HW142781   8.461   8.453   8.881  1.4339  0.0774  0.1566
45648SOL    HW242782   8.465   8.479   9.030 -0.7680  0.3989  0.2000
45649SOL     OW42783   2.473   7.958   9.615  0.4652  0.0213  0.5266
45649SOL    HW142784   2.468   7.971   9.709  0.4155 -0.7423  0.6379
45649SOL    HW242785   2.566   7.953   9.595  0.4691 -0.1447  0.5858
45650SOL     OW42786   5.561   2.577   9.664  0.3508  0.3569 -0.5447
45650SOL    HW142787   5.539   2.573   9.758  1.5610  0.6909 -0.2367
45650SOL    HW242788   5.607   2.495   9.647 -1.4665 -0.5803 -1.3145
45651SOL     OW42789   7.741   4.441   5.306 -0.1991  0.1198 -0.3670
45651SOL    HW142790   7.720   4.419   5.216 -3.5422 -1.1694  0.5719
45651SOL    HW242791   7.715   4.533   5.315 -0.5964  0.0263 -0.5427
45652SOL     OW42792   1.385   2.076   0.327  0.1232 -0.5648  0.1098
45652SOL    HW142793   1.358   2.154   0.278 -1.6434 -0.9586  0.3998
45652SOL    HW242794   1.369   2.003   0.267 -0.6367 -0.9163  0.7245
45653SOL     OW42795   6.953   6.272   3.563 -0.2624 -0.0259 -0.4574
45653SOL    HW142796   6.885   6.322   3.608 -0.6726 -0.8735 -0.1283
45653SOL    HW242797   6.955   6.187   3.607  1.0172 -0.0230 -0.4608
45654SOL     OW42798  11.820   9.175  11.083  0.0982  0.2082 -0.0040
45654SOL    HW142799  11.870   9.169  11.164 -1.7332  0.9281  1.2578
45654SOL    HW242800  11.822   9.268  11.060 -1.6154  0.4788  0.7723
45655SOL     OW42801   2.264   5.700  10.176  0.1968 -0.1406 -0.3335
45655SOL    HW142802   2.288   5.755  10.251  0.2052  0.1546 -0.5480
45655SOL    HW242803   2.232   5.762  10.111 -1.2463 -0.5303 -0.0275
45656SOL     OW42804   3.774   0.493   3.348 -0.5657 -0.3829  0.5492
45656SOL    HW142805   3.835   0.541   3.405  2.0882 -0.5128 -1.9441
45656SOL    HW242806   3.757   0.411   3.395  1.5312 -0.5014  1.2015
45657SOL     OW42807  10.424  10.610   5.017  0.1772 -0.1370 -0.3766
45657SOL    HW142808  10.503  10.604   5.072 -1.0953  0.2301  1.5857
45657SOL    HW242809  10.452  10.664   4.942  2.3206 -1.7270 -0.8316
45658SOL     OW42810   9.771  10.921   7.244 -0.2745 -0.5849 -0.0910
45658SOL    HW142811   9.777  10.828   7.269 -1.6117 -0.9303 -0.9637
45658SOL    HW242812   9.797  10.922   7.152  0.6392  0.0681  0.1611
45659SOL     OW42813   7.577   5.189   1.019 -0.3789 -0.1075  0.1656
45659SOL    HW142814   7.534   5.215   1.100  1.1052 -0.0601  0.9712
45659SOL    HW242815   7.662   5.232   1.021 -0.7096  0.7869 -1.9554
45660SOL     OW42816  10.028   6.963   1.159 -0.0596 -0.3508  0.0982
45660SOL    HW142817  10.035   6.963   1.063  0.7633 -1.5574  0.1364
45660SOL    HW242818   9.935   6.978   1.176 -0.1274  0.4430 -0.8712
45661SOL     OW42819   9.938   5.793   1.828  0.0266 -0.2131 -0.0835
45661SOL    HW142820   9.962   5.766   1.740 -0.1751 -0.6635 -0.0067
45661SOL    HW242821   9.892   5.717   1.864 -1.5052  0.6025 -0.2205
45662SOL     OW42822   9.280  10.248  12.222 -0.4921  0.3282 -0.0292
45662SOL    HW142823   9.189  10.225  12.242 -0.3966 -0.9434 -0.8947
45662SOL    HW242824   9.295  10.330  12.268 -1.8800  0.2302  0.6550
45663SOL     OW42825   2.066   2.659  10.305 -0.0347  0.2558 -0.4416
45663SOL    HW142826   2.066   2.564  10.304 -0.3581  0.2135  1.3367
45663SOL    HW242827   2.050   2.684  10.213 -2.0040 -1.3953 -0.6092
45664SOL     OW42828   8.894   2.334   5.752 -0.4532 -0.2677  0.3491
45664SOL    HW142829   8.971   2.387   5.731 -1.2863  1.0003  0.3723
45664SOL    HW242830   8.899   2.260   5.692  0.2907  0.2784 -0.2914
45665SOL     OW42831  11.621   0.367   9.998  0.5163  0.2634 -0.3861
45665SOL    HW142832  11.530   0.395   9.983  0.9923  1.4514 -1.1912
45665SOL    HW242833  11.622   0.335  10.088 -0.8581 -0.4342 -0.5831
45666SOL     OW42834   1.665   4.228   5.601  0.3917  0.1913  0.0779
45666SOL    HW142835   1.749   4.252   5.640  0.9458 -0.4920 -0.6839
45666SOL    HW242836   1.623   4.173   5.668  0.1199  1.2851  0.8502
45667SOL     OW42837  11.540   7.703  11.044 -0.2315 -0.2308  0.6048
45667SOL    HW142838  11.589   7.778  11.078  0.0070 -0.3187  0.4572
45667SOL    HW242839  11.606   7.651  10.997 -0.7793  0.4733 -0.9849
45668SOL     OW42840   8.430  10.569   3.412  0.1634  0.0147 -0.3547
45668SOL    HW142841   8.432  10.662   3.388  0.2042  0.1663  0.2217
45668SOL    HW242842   8.415  10.523   3.329 -1.2936  0.6191 -0.4602
45669SOL     OW42843   8.655   9.526   7.633  0.0913  0.3068  0.2098
45669SOL    HW142844   8.580   9.520   7.691  1.3483 -3.0340  1.7357
45669SOL    HW242845   8.620   9.510   7.545 -0.9832 -1.5117  0.9260
45670SOL     OW42846   2.723  11.872   5.621 -0.6979 -0.4893 -0.0339
45670SOL    HW142847   2.674  11.949   5.590  0.4127  0.4081  0.3819
45670SOL    HW242848   2.664  11.798   5.603 -2.2613  0.5519  0.5759
45671SOL     OW42849   0.688  10.606   2.127  0.0561 -0.4200  0.0624
45671SOL    HW142850   0.633  10.560   2.190 -0.6055 -1.8373 -1.4863
45671SOL    HW242851   0.626  10.656   2.074  0.5478  0.2437  0.1043
45672SOL     OW42852  12.149   8.991  11.706  0.7260  0.7692 -0.4853
45672SOL    HW142853  12.215   8.943  11.755 -1.0079 -0.5857  0.6534
45672SOL    HW242854  12.174   9.083  11.715  1.2444  0.4574  1.8011
45673SOL     OW42855   7.984   3.336   4.919 -0.6683  0.2255 -0.3955
45673SOL    HW142856   8.073   3.319   4.889 -0.5646  0.5990 -0.3037
45673SOL    HW242857   7.963   3.422   4.884 -0.5232  0.6969  0.6291
45674SOL     OW42858   6.556   7.742   8.188 -0.7866 -0.0903 -0.2035
45674SOL    HW142859   6.498   7.818   8.190 -0.1093  0.4223  0.7745
45674SOL    HW242860   6.525   7.686   8.259 -0.6120 -0.2147 -0.2247
45675SOL     OW42861   3.356  10.101   0.333 -0.5217 -0.3677 -0.3119
45675SOL    HW142862   3.307  10.055   0.401 -1.7876 -0.8497 -1.5126
45675SOL    HW242863   3.434  10.046   0.320 -1.4221 -1.5614 -0.8786
45676SOL     OW42864   8.616   8.669   2.768  0.0025 -0.4967  0.4484
45676SOL    HW142865   8.525   8.677   2.796 -0.4966  0.6805 -1.3444
45676SOL    HW242866   8.625   8.731   2.695  3.0576  1.7606  2.4759
45677SOL     OW42867   7.355   4.431   8.453 -0.1393 -0.1009  0.2266
45677SOL    HW142868   7.416   4.368   8.493  0.4521 -0.1600 -0.7288
45677SOL    HW242869   7.403   4.465   8.377 -1.4793 -0.5396 -0.8628
45678SOL     OW42870  11.416   5.188   6.660 -0.1080 -0.6406 -0.6558
45678SOL    HW142871  11.457   5.119   6.606  0.8292  0.0576 -0.8740
45678SOL    HW242872  11.490   5.237   6.696 -0.7518 -0.2741  0.2026
45679SOL     OW42873   4.392  10.625  12.137 -0.0377  0.0929 -0.0011
45679SOL    HW142874   4.464  10.643  12.198  0.0343  0.8053 -0.2922
45679SOL    HW242875   4.436  10.602  12.055 -0.1295  1.0805 -0.3408
45680SOL     OW42876   8.540   1.469   8.116 -0.7609 -0.1036  0.1256
45680SOL    HW142877   8.501   1.556   8.106 -0.5926 -0.2444 -2.4251
45680SOL    HW242878   8.529   1.448   8.208 -2.2588  1.9479  0.4768
45681SOL     OW42879   0.382   7.135  11.774 -0.0575 -0.1819 -1.1495
45681SOL    HW142880   0.426   7.217  11.751  1.1458 -0.8835 -1.4595
45681SOL    HW242881   0.309   7.161  11.830  1.4553  0.9475  0.3812
45682SOL     OW42882   8.904  11.913   5.025  0.6162 -0.1078  0.3113
45682SOL    HW142883   8.995  11.919   4.996  0.5169 -1.5230 -0.3566
45682SOL    HW242884   8.865  11.845   4.970 -1.0265  0.9053  0.1476
45683SOL     OW42885  11.413   5.306   6.303 -0.0256  0.2414  0.1224
45683SOL    HW142886  11.454   5.360   6.370  0.7552  0.0894 -0.2253
45683SOL    HW242887  11.358   5.245   6.353  0.2834  0.3486  0.6060
45684SOL     OW42888  11.527   4.665   2.883  0.0140 -0.6421  0.4320
45684SOL    HW142889  11.473   4.738   2.915  0.1604 -1.5892  3.0644
45684SOL    HW242890  11.601   4.708   2.840 -1.1468  0.6975 -0.3448
45685SOL     OW42891  11.882   1.902   5.953 -0.2715  0.3239  0.0575
45685SOL    HW142892  11.915   1.882   6.040  0.5790  0.0004 -0.3207
45685SOL    HW242893  11.922   1.987   5.932  2.0374 -0.9719 -1.1967
45686SOL     OW42894  10.696   1.680   7.717  0.4016 -0.2518 -0.0504
45686SOL    HW142895  10.675   1.653   7.806 -1.0439 -0.1044 -0.3139
45686SOL    HW242896  10.616   1.723   7.686  0.5353 -1.1300 -1.7345
45687SOL     OW42897   9.869   6.959   4.836  0.2427  0.7816 -0.2839
45687SOL    HW142898   9.950   6.945   4.884 -0.8696 -1.7291  1.0571
45687SOL    HW242899   9.801   6.957   4.903 -1.1712 -0.3544 -1.6938
45688SOL     OW42900  11.801  11.787  10.145  0.2079 -0.1923 -0.0312
45688SOL    HW142901  11.736  11.726  10.111 -0.8467  0.5401  0.5961
45688SOL    HW242902  11.782  11.869  10.099  0.7375  0.0070  0.1045
45689SOL     OW42903   0.957   5.517   1.786 -0.1587  0.2735 -0.3880
45689SOL    HW142904   1.012   5.441   1.809  0.4833 -0.0430 -2.6840
45689SOL    HW242905   0.868   5.485   1.795  0.0568 -0.0538  0.7891
45690SOL     OW42906  11.392   6.523   1.445  0.0473 -0.4786 -0.3641
45690SOL    HW142907  11.446   6.532   1.366 -0.7769  0.3609 -0.8583
45690SOL    HW242908  11.342   6.443   1.431 -0.9974  0.2962 -1.2976
45691SOL     OW42909   4.819   2.305   4.319  0.0995  0.4895 -0.6068
45691SOL    HW142910   4.774   2.357   4.253 -1.1789  0.1791 -0.0095
45691SOL    HW242911   4.751   2.281   4.382  1.5154  2.1147  1.7163
45692SOL     OW42912   0.590   6.077   3.741  0.8680  1.0959 -0.6031
45692SOL    HW142913   0.542   6.147   3.697  0.3247  0.3611 -1.1858
45692SOL    HW242914   0.531   6.046   3.809  0.1528 -0.3738 -1.8586
45693SOL     OW42915   3.285   6.987   5.666 -0.2864  0.0479 -0.0542
45693SOL    HW142916   3.298   6.980   5.761 -1.3384  0.0659  0.1020
45693SOL    HW242917   3.366   7.028   5.634  0.0910  0.0193  0.8260
45694SOL     OW42918   6.344   8.093  10.424  0.4444 -0.8280  0.3866
45694SOL    HW142919   6.254   8.080  10.456 -0.4599  0.0596 -1.6215
45694SOL    HW242920   6.368   8.010  10.383  0.0224 -0.6582 -0.2182
45695SOL     OW42921   5.291   8.939   6.969 -0.0474  0.4903 -0.0310
45695SOL    HW142922   5.351   8.869   6.994  0.5131  0.4282 -1.4614
45695SOL    HW242923   5.341   9.019   6.979  0.4819  0.4015 -1.7071
45696SOL     OW42924  11.758   2.202  11.256  0.7107  0.0968  0.1853
45696SOL    HW142925  11.728   2.117  11.224  1.6199 -0.6855  1.3067
45696SOL    HW242926  11.825   2.229  11.194 -0.9052  0.9522 -1.2619
45697SOL     OW42927   8.744   8.617   3.768 -0.7073 -0.3648  0.3993
45697SOL    HW142928   8.695   8.687   3.811 -1.2685  0.8117 -1.9826
45697SOL    HW242929   8.685   8.585   3.700  1.4206  0.5240 -2.0140
45698SOL     OW42930  11.837   4.447  12.104  0.5698 -0.8596 -0.0633
45698SOL    HW142931  11.852   4.458  12.011  0.5770 -1.5659 -0.1510
45698SOL    HW242932  11.924   4.453  12.144  0.3653  1.6777  0.1686
45699SOL     OW42933   7.994   1.957   5.346  0.2746 -0.2321 -0.0832
45699SOL    HW142934   7.939   2.035   5.353  1.1793  0.5373 -1.2004
45699SOL    HW242935   7.960   1.898   5.413 -3.4887 -0.8426 -2.2797
45700SOL     OW42936  10.277  10.367   1.560 -0.1210  0.2585 -0.5402
45700SOL    HW142937  10.342  10.434   1.539  0.0484  0.0943 -0.5504
45700SOL    HW242938  10.197  10.397   1.518  0.0788  0.2101 -0.9687
45701SOL     OW42939   9.085   2.608   7.677 -0.3360  0.7107 -0.0939
45701SOL    HW142940   9.062   2.533   7.622  0.9205  0.2021  0.0474
45701SOL    HW242941   9.015   2.611   7.742 -0.2825 -0.5060  0.0538
45702SOL     OW42942   8.812   9.563   1.950 -0.0079 -0.1351  0.5013
45702SOL    HW142943   8.831   9.504   1.877  1.0688 -0.4261  1.0049
45702SOL    HW242944   8.894   9.610   1.966  0.0283 -0.6619  2.0426
45703SOL     OW42945  11.871   2.387   1.102  0.2123 -0.2592  0.3720
45703SOL    HW142946  11.929   2.311   1.111 -0.8648 -1.8712 -3.8082
45703SOL    HW242947  11.796   2.366   1.158  1.5574 -0.3417  2.2431
45704SOL     OW42948   8.807   9.554   5.706 -0.2227 -0.8299 -0.4446
45704SOL    HW142949   8.796   9.573   5.612 -1.3360 -0.0578 -0.1767
45704SOL    HW242950   8.892   9.512   5.712  0.5335  0.4517 -1.6274
45705SOL     OW42951   7.367   1.386   0.007  0.5233 -0.4136  0.2683
45705SOL    HW142952   7.454   1.394  -0.032  0.5195 -0.2256  0.2973
45705SOL    HW242953   7.308   1.425  -0.057  0.2927 -1.7556 -0.3576
45706SOL     OW42954   9.673   1.095   2.894 -0.3560 -0.2260  0.0439
45706SOL    HW142955   9.694   1.183   2.926  1.7764 -0.0453 -1.6532
45706SOL    HW242956   9.645   1.109   2.804  1.4950 -1.3822 -0.7564
45707SOL     OW42957   2.561  10.729   0.275 -0.0583  0.4485  0.1847
45707SOL    HW142958   2.625  10.792   0.310  1.4192 -0.6020 -0.5028
45707SOL    HW242959   2.590  10.712   0.185  1.1588 -3.0513  1.0641
45708SOL     OW42960   2.966   1.335   8.146 -0.0262  0.0346 -0.5228
45708SOL    HW142961   2.916   1.405   8.104 -1.0080 -0.4117 -0.1216
45708SOL    HW242962   3.056   1.368   8.149 -0.1522  0.5452 -1.9129
45709SOL     OW42963   6.586   8.235   1.275  0.3541 -0.9669 -0.0395
45709SOL    HW142964   6.656   8.298   1.293  0.1557 -1.0894  1.2562
45709SOL    HW242965   6.560   8.253   1.184  0.1834  0.9093  0.3421
45710SOL     OW42966   8.722   7.379   3.845 -0.0463 -0.2236  0.0531
45710SOL    HW142967   8.799   7.433   3.829  0.6465 -0.7946  1.2881
45710SOL    HW242968   8.754   7.289   3.841 -0.7157 -0.4787  0.2107
45711SOL     OW42969   9.903  11.180   5.409  0.2282 -0.3114  0.1214
45711SOL    HW142970   9.996  11.181   5.387 -0.0955 -0.9673 -1.4051
45711SOL    HW242971   9.858  11.185   5.325 -1.1267  0.3258  0.8549
45712SOL     OW42972   4.499  10.095   7.612 -0.4889  0.7127  0.0852
45712SOL    HW142973   4.443  10.142   7.674  0.5907 -0.2855  1.8900
45712SOL    HW242974   4.439  10.035   7.567 -1.5299  2.4117 -0.9011
45713SOL     OW42975   2.126   5.060  11.505  0.0795 -0.0112 -0.7803
45713SOL    HW142976   2.200   5.109  11.469  0.7860 -0.8441 -0.5050
45713SOL    HW242977   2.053   5.122  11.502  1.0965  1.3250  0.2245
45714SOL     OW42978  11.578   9.065   8.215  0.4169 -0.2611  0.1323
45714SOL    HW142979  11.533   9.094   8.136  1.6763 -1.3179 -1.0296
45714SOL    HW242980  11.664   9.107   8.211  0.4707 -0.2630  0.9903
45715SOL     OW42981   5.345   5.462   0.419 -0.7536 -0.0596 -0.0756
45715SOL    HW142982   5.413   5.427   0.476 -0.2887 -0.5793 -0.9147
45715SOL    HW242983   5.302   5.384   0.383 -0.2266  0.2158 -1.3671
45716SOL     OW42984  10.872   2.495   4.113 -0.5949  0.2267 -0.3304
45716SOL    HW142985  10.880   2.402   4.095  1.7395  0.1726  0.6535
45716SOL    HW242986  10.832   2.500   4.200 -0.5145  0.1351 -0.2885
45717SOL     OW42987  10.065   5.069   9.888  0.5116  0.0507  0.1470
45717SOL    HW142988  10.105   5.150   9.857 -1.4835  0.5618 -1.2194
45717SOL    HW242989  10.050   5.018   9.809 -2.7698  0.4986  0.3635
45718SOL     OW42990   2.104   7.998  11.096  0.1298 -0.6244  0.3588
45718SOL    HW142991   2.158   8.071  11.065 -0.5954  0.5161  1.6762
45718SOL    HW242992   2.160   7.921  11.085  0.4008 -0.1574 -2.4479
45719SOL     OW42993   9.167   1.544   3.401 -0.2420 -0.0180 -0.3182
45719SOL    HW142994   9.088   1.491   3.412  0.2677 -0.6733  0.2863
45719SOL    HW242995   9.183   1.582   3.487  0.0418  0.2093 -0.4671
45720SOL     OW42996   2.322   0.771  10.840 -0.1154 -0.1626 -0.1244
45720SOL    HW142997   2.266   0.774  10.763 -0.3366 -0.5626  0.0194
45720SOL    HW242998   2.365   0.686  10.835 -1.1503 -0.7764  0.9032
45721SOL     OW42999   8.962   9.644   1.246 -0.2705  0.5167 -0.2149
45721SOL    HW143000   9.003   9.692   1.174 -0.2240 -0.1728 -0.6539
45721SOL    HW243001   8.988   9.693   1.325  0.8792  0.4631 -0.5386
45722SOL     OW43002   0.115   2.688   1.495  0.6772 -0.1401 -0.3031
45722SOL    HW143003   0.048   2.630   1.533 -0.5663  1.6292  0.3106
45722SOL    HW243004   0.096   2.688   1.401 -1.2893  1.5643  0.0139
45723SOL     OW43005   0.807   5.051   3.086 -0.3492  0.0976 -0.0287
45723SOL    HW143006   0.789   4.972   3.035  1.6167 -1.0548  0.9472
45723SOL    HW243007   0.792   5.123   3.025 -1.1867 -1.0740 -1.2516
45724SOL     OW43008   0.769  11.767   1.260  0.2055  0.2996 -0.4266
45724SOL    HW143009   0.843  11.827   1.267 -0.2596  0.6847  3.1521
45724SOL    HW243010   0.692  11.823   1.269 -0.3480 -0.4886 -0.1325
45725SOL     OW43011  11.887  10.870   3.461  0.2139 -0.2689 -0.6870
45725SOL    HW143012  11.943  10.821   3.522  0.9583  0.8223 -0.4710
45725SOL    HW243013  11.822  10.913   3.517  0.8888  0.7215 -0.6421
45726SOL     OW43014  12.226   0.324   1.044 -0.6666 -0.2918  0.1032
45726SOL    HW143015  12.253   0.349   0.956 -2.2239  0.8760 -0.0840
45726SOL    HW243016  12.239   0.403   1.097 -1.2803 -0.4902  0.5609
45727SOL     OW43017  10.989   4.349   5.294 -0.2096 -0.1709 -0.0330
45727SOL    HW143018  10.971   4.260   5.264  0.2365  0.2617 -1.6202
45727SOL    HW243019  11.076   4.369   5.261 -0.4278  0.9737  0.0577
45728SOL     OW43020   8.084   9.115  10.239  0.0506 -0.1791 -0.5959
45728SOL    HW143021   8.003   9.065  10.234  0.1140 -0.5253  1.2939
45728SOL    HW243022   8.062   9.200  10.203 -0.7736 -0.7065 -1.3728
45729SOL     OW43023   5.027   8.530  11.235 -0.2276  0.2237 -0.2373
45729SOL    HW143024   5.109   8.570  11.261  0.5219 -1.0244 -0.6142
45729SOL    HW243025   5.038   8.510  11.142 -1.0867  0.3203 -0.3765
45730SOL     OW43026   9.387   9.846   0.863  0.3099  0.1148  0.1320
45730SOL    HW143027   9.356   9.854   0.773 -0.2760 -0.2404  0.2953
45730SOL    HW243028   9.345   9.919   0.909 -0.4112 -0.4421  0.3816
45731SOL     OW43029   3.038  11.575   5.817  0.0928  0.2806 -0.0182
45731SOL    HW143030   3.016  11.562   5.909 -0.1552  1.4348  0.0997
45731SOL    HW243031   3.110  11.514   5.801 -1.5296 -1.7943  0.2351
45732SOL     OW43032   8.945   0.555   0.374  0.2605  0.1723  0.1028
45732SOL    HW143033   9.007   0.483   0.387  1.9208  1.8131  1.9710
45732SOL    HW243034   8.900   0.564   0.457  0.3731  1.5066  0.0496
45733SOL     OW43035   0.340   7.382  11.639  0.0811  0.0604  0.1158
45733SOL    HW143036   0.291   7.463  11.652 -0.0297 -0.1152  0.8473
45733SOL    HW243037   0.273   7.314  11.640  0.3781 -0.2668  1.9778
45734SOL     OW43038   3.071   4.180   4.038 -0.2412 -0.2360 -0.9138
45734SOL    HW143039   3.138   4.132   4.086 -0.0325  0.3709 -0.5871
45734SOL    HW243040   3.114   4.261   4.011 -1.8726  2.1168  2.7916
45735SOL     OW43041   8.275   0.408   9.280 -0.2140  0.4350 -0.9264
45735SOL    HW143042   8.219   0.364   9.344 -0.5680 -0.0267 -1.5360
45735SOL    HW243043   8.272   0.500   9.305 -3.1283  0.8313 -2.2493
45736SOL     OW43044   7.341   5.637   0.362  0.5148  0.2303 -0.2361
45736SOL    HW143045   7.406   5.641   0.292  0.6268 -0.5203 -0.1853
45736SOL    HW243046   7.258   5.658   0.320  0.2663 -2.0571 -1.0352
45737SOL     OW43047   4.374   9.313   8.190  0.5076  0.4499  0.8412
45737SOL    HW143048   4.382   9.404   8.163 -2.8459  0.7768  0.5232
45737SOL    HW243049   4.444   9.300   8.254  0.2685  3.6810  1.9182
45738SOL     OW43050  12.304   3.263   2.248 -0.1596  0.0995 -0.3357
45738SOL    HW143051  12.289   3.295   2.337  0.6186 -1.9403  0.5920
45738SOL    HW243052  12.359   3.330   2.208 -0.3409  0.9534  0.7822
45739SOL     OW43053  11.550   5.343   2.101 -0.1326  0.1598  0.1841
45739SOL    HW143054  11.549   5.367   2.194 -0.4919 -1.6125  0.6840
45739SOL    HW243055  11.539   5.426   2.054  0.1064  1.0968  1.7148
45740SOL     OW43056  10.439   9.171   8.202  0.1426 -0.5708  0.5018
45740SOL    HW143057  10.481   9.119   8.134 -1.0598  1.5203 -1.9949
45740SOL    HW243058  10.504   9.239   8.223  0.0813 -0.5517  0.6261
45741SOL     OW43059   5.317   5.846   7.575 -0.1792  0.4208  0.8464
45741SOL    HW143060   5.292   5.766   7.621  0.5402  0.8402  2.0333
45741SOL    HW243061   5.373   5.816   7.503 -1.9057 -0.3040 -0.2484
45742SOL     OW43062   9.949   0.080   8.265  0.1913 -0.0540  0.1301
45742SOL    HW143063   9.982   0.110   8.350 -3.4424  0.5400  1.5394
45742SOL    HW243064   9.980   0.145   8.203 -0.7890  2.1673  1.8301
45743SOL     OW43065   5.895   2.563  12.218  0.1665  0.4029  0.2629
45743SOL    HW143066   5.832   2.635  12.208  1.0129  1.3899  1.6912
45743SOL    HW243067   5.841   2.487  12.239 -0.6981  0.7770 -0.5320
45744SOL     OW43068   9.140   6.329   5.438 -0.1756 -0.1870  0.1082
45744SOL    HW143069   9.055   6.365   5.463  0.4609  1.5375 -0.1084
45744SOL    HW243070   9.197   6.345   5.513 -0.1975 -1.9942  0.5436
45745SOL     OW43071   8.332   0.669   3.479 -0.2676  0.5583  0.0862
45745SOL    HW143072   8.378   0.751   3.462  0.6965  0.1462  0.6355
45745SOL    HW243073   8.240   0.694   3.489  0.3613  1.9832  3.0652
45746SOL     OW43074   3.050   4.096   7.376 -0.0285 -0.3619  0.1488
45746SOL    HW143075   3.080   4.114   7.465  1.5232  1.0494 -0.6000
45746SOL    HW243076   3.056   4.181   7.331 -1.9020 -0.7655 -1.0177
45747SOL     OW43077   2.091   0.206  11.523 -0.1454 -0.4503  0.3730
45747SOL    HW143078   2.093   0.254  11.606  2.5723 -0.0993  0.1742
45747SOL    HW243079   2.034   0.258  11.467 -3.7604 -1.7339  2.5067
45748SOL     OW43080   1.418   7.588   3.943 -0.6798  0.4592  0.8245
45748SOL    HW143081   1.345   7.529   3.962 -0.4859 -0.4966 -1.1487
45748SOL    HW243082   1.476   7.578   4.019 -0.0226 -3.0114  0.0733
45749SOL     OW43083   1.375   1.936   7.873  0.5469 -0.1023  0.1409
45749SOL    HW143084   1.378   1.986   7.791 -1.4006  1.7620  1.1210
45749SOL    HW243085   1.369   1.844   7.845  2.3038  0.2884 -1.7297
45750SOL     OW43086   8.511   2.834  11.953 -0.5022  0.8434  0.0025
45750SOL    HW143087   8.510   2.842  11.858  0.1847 -1.8848 -0.3372
45750SOL    HW243088   8.471   2.748  11.970  3.6083 -0.9884  1.7571
45751SOL     OW43089   8.548   8.490   3.615  0.5043 -0.2341  0.0253
45751SOL    HW143090   8.490   8.466   3.687  0.8658 -0.1810  0.3379
45751SOL    HW243091   8.538   8.418   3.552 -1.9760  1.0842 -1.2077
45752SOL     OW43092  11.158   1.080   1.650  0.0781  0.1110 -0.4586
45752SOL    HW143093  11.096   1.061   1.579 -1.3725  0.1017  0.7581
45752SOL    HW243094  11.228   1.016   1.638 -0.6735 -0.5876 -1.2717
45753SOL     OW43095   2.461   9.625   9.294  0.1590 -0.1567 -0.2998
45753SOL    HW143096   2.375   9.647   9.330 -0.5114 -1.6764 -0.8902
45753SOL    HW243097   2.442   9.576   9.213  1.5990  1.1038 -1.4711
45754SOL     OW43098   0.803   3.241   9.996 -0.0285 -0.2000 -0.2063
45754SOL    HW143099   0.770   3.299   9.928 -1.4529  0.8672  1.3156
45754SOL    HW243100   0.885   3.282  10.024 -1.8345  2.2105  2.0352
45755SOL     OW43101   5.620   0.132   2.848  0.3185 -0.7434 -0.5017
45755SOL    HW143102   5.610   0.227   2.834  0.7330 -0.9469 -2.4849
45755SOL    HW243103   5.652   0.125   2.938  2.7729  1.2014 -1.0969
45756SOL     OW43104   5.225   5.692   3.548  0.1264 -0.2600 -0.4604
45756SOL    HW143105   5.286   5.661   3.616  0.0552 -0.1518 -0.3464
45756SOL    HW243106   5.241   5.635   3.473 -1.9372 -2.5051  0.6376
45757SOL     OW43107   9.456   0.064   1.646 -0.1400  0.3509 -0.6309
45757SOL    HW143108   9.390   0.020   1.592 -0.8861  0.6006  0.0684
45757SOL    HW243109   9.498  -0.007   1.695  0.1012  0.1932 -1.0645
45758SOL     OW43110   3.804   8.122   8.937 -0.1842 -0.0469  0.5474
45758SOL    HW143111   3.887   8.158   8.905 -1.3808  0.7096 -1.8882
45758SOL    HW243112   3.826   8.032   8.961  1.5234  0.3987  0.8584
45759SOL     OW43113  10.681   1.622   9.453  0.0164 -0.5844  0.4596
45759SOL    HW143114  10.664   1.533   9.423 -0.8663 -0.8285  1.5978
45759SOL    HW243115  10.677   1.617   9.549 -0.8385  0.8042  0.5345
45760SOL     OW43116   4.559   6.856   0.433 -0.2980 -0.6818 -0.1994
45760SOL    HW143117   4.612   6.860   0.513 -1.6060  0.3479  0.6722
45760SOL    HW243118   4.503   6.934   0.439 -1.0081 -1.0586 -1.7124
45761SOL     OW43119   4.319   6.740   0.129  0.1057 -0.2863  0.0632
45761SOL    HW143120   4.260   6.815   0.135  2.0320  1.3233 -0.0340
45761SOL    HW243121   4.330   6.725   0.036 -1.2979 -1.6004  0.0713
45762SOL     OW43122  11.067   6.456   1.177  0.9119 -0.6580 -0.3659
45762SOL    HW143123  11.104   6.397   1.243 -2.6059 -1.2556  1.2917
45762SOL    HW243124  11.023   6.524   1.228 -0.1316  0.0616 -2.1325
45763SOL     OW43125   7.797   3.634   8.204 -0.6517  0.2227  0.0487
45763SOL    HW143126   7.861   3.564   8.215  1.0077  1.6044 -0.4450
45763SOL    HW243127   7.756   3.616   8.120  2.2581  1.6516 -1.8388
45764SOL     OW43128  11.885   8.942   8.305 -0.1564 -0.2158  0.4739
45764SOL    HW143129  11.841   8.888   8.238  0.7683 -0.0795 -0.2654
45764SOL    HW243130  11.913   8.879   8.371 -1.0517 -0.3580  0.7336
45765SOL     OW43131   3.598   2.424   5.469  0.5644 -0.5063  0.8587
45765SOL    HW143132   3.601   2.398   5.377 -3.5760 -3.9483  1.3797
45765SOL    HW243133   3.559   2.512   5.468 -0.1630 -0.8107 -0.6867
45766SOL     OW43134   8.941   9.469   2.862  0.5250 -0.0503 -0.2747
45766SOL    HW143135   8.975   9.459   2.951 -1.1630  0.4850  0.4662
45766SOL    HW243136   8.889   9.550   2.865  0.8433  0.2437 -1.8860
45767SOL     OW43137   3.580  10.487   5.950  0.3925 -0.5786 -0.1350
45767SOL    HW143138   3.664  10.483   5.905 -0.7091 -1.8935 -2.2757
45767SOL    HW243139   3.554  10.395   5.960 -1.7251 -0.1989 -1.5180
45768SOL     OW43140   7.046   1.614  10.770 -0.2359  0.1632  0.3115
45768SOL    HW143141   7.061   1.646  10.859  0.5210 -0.5065  0.4433
45768SOL    HW243142   6.955   1.636  10.751  0.0211  1.6585  0.6785
45769SOL     OW43143   4.069   6.150   5.486 -0.4510  0.0334  0.6193
45769SOL    HW143144   4.083   6.060   5.515  1.2831  0.7739  2.3277
45769SOL    HW243145   3.974   6.162   5.490 -0.5688 -1.1212  2.4357
45770SOL     OW43146   8.826   8.983   9.288 -0.3227 -0.1743  0.2668
45770SOL    HW143147   8.836   9.072   9.256 -0.5226  0.1748  1.1600
45770SOL    HW243148   8.846   8.928   9.212 -0.3152  0.6250 -0.3218
45771SOL     OW43149   3.036   2.241   3.503  0.1287  0.2055  0.2555
45771SOL    HW143150   2.997   2.325   3.479  0.2912  0.5473  1.1459
45771SOL    HW243151   2.982   2.209   3.575  0.0112 -0.5030 -0.1430
45772SOL     OW43152   4.543   6.106   2.872 -0.1818 -0.3953 -0.1738
45772SOL    HW143153   4.579   6.049   2.940  1.6320  0.9276  0.0195
45772SOL    HW243154   4.451   6.079   2.865 -0.4610 -0.5195  2.8624
45773SOL     OW43155  11.851   3.999   8.722  0.4472 -0.1825  0.4976
45773SOL    HW143156  11.898   3.916   8.720  0.9675  0.1101 -0.2300
45773SOL    HW243157  11.840   4.019   8.815  0.4136 -1.0094  0.6737
45774SOL     OW43158   2.576  10.786   2.464  0.7734 -0.2024  0.6961
45774SOL    HW143159   2.516  10.767   2.392  1.0955 -0.8355  0.5825
45774SOL    HW243160   2.553  10.722   2.532  1.7633 -0.9176  0.3844
45775SOL     OW43161   7.789   5.002  11.375  0.1835  0.1847 -0.2636
45775SOL    HW143162   7.791   5.097  11.369 -0.0429  0.2562  0.6181
45775SOL    HW243163   7.737   4.984  11.454 -0.4792 -0.6819 -0.8815
45776SOL     OW43164   2.059   3.020  11.348  0.0693 -0.2060  0.4028
45776SOL    HW143165   1.976   3.026  11.394  0.7595  0.1669  1.6381
45776SOL    HW243166   2.052   3.084  11.277 -0.7997 -0.3892  0.3197
45777SOL     OW43167   2.002  10.063   1.640  0.2892 -0.4604  0.2762
45777SOL    HW143168   1.917  10.085   1.678 -1.0949 -2.4829 -1.4286
45777SOL    HW243169   1.990   9.977   1.601  2.1171  0.5335 -2.9028
45778SOL     OW43170   2.319   1.615   1.227 -0.2431 -0.7368  0.3136
45778SOL    HW143171   2.258   1.672   1.274  0.7477  0.7186 -0.0962
45778SOL    HW243172   2.329   1.539   1.283  1.2169  1.1053  2.7457
45779SOL     OW43173   9.855   9.968   1.144 -0.2675  0.0640  0.0199
45779SOL    HW143174   9.883   9.951   1.054 -1.3800  0.2811 -0.3789
45779SOL    HW243175   9.759   9.962   1.141 -0.2959 -0.3017  1.2685
45780SOL     OW43176   4.125   2.404   1.618  0.5002 -0.3541 -0.7507
45780SOL    HW143177   4.038   2.393   1.580  0.3757 -1.2202 -0.2529
45780SOL    HW243178   4.132   2.498   1.636 -0.3861 -0.2967 -0.6636
45781SOL     OW43179  11.033   3.420  10.987  0.3113  0.2231 -0.2652
45781SOL    HW143180  11.085   3.401  10.909  1.8500 -1.6143  1.0856
45781SOL    HW243181  11.019   3.334  11.027  0.7346  1.1962  2.1403
45782SOL     OW43182   8.964   6.293  10.011 -0.2669 -0.0720  0.4295
45782SOL    HW143183   8.988   6.269  10.101  0.2814  0.8782  0.5457
45782SOL    HW243184   8.894   6.357  10.022 -1.0653 -0.8607  0.1372
45783SOL     OW43185   8.999   2.885   6.173  0.5192  0.5250 -0.5688
45783SOL    HW143186   8.984   2.818   6.240 -0.7736 -0.1394 -1.4865
45783SOL    HW243187   9.074   2.935   6.206  1.5393 -1.3594  0.1401
45784SOL     OW43188   9.260   3.690  11.680  0.6757  0.0944  0.7650
45784SOL    HW143189   9.209   3.765  11.648  1.2852  1.0048  1.8374
45784SOL    HW243190   9.230   3.616  11.627  0.3211  1.1612 -0.5851
45785SOL     OW43191   1.882   9.145   3.203 -0.1092  0.2359 -0.2791
45785SOL    HW143192   1.914   9.168   3.291  0.3543 -2.5867  0.3665
45785SOL    HW243193   1.856   9.054   3.210 -0.8682  0.1865 -2.9061
45786SOL     OW43194   1.620  10.905   6.026  0.3104 -0.6731 -0.4115
45786SOL    HW143195   1.664  10.843   5.967  2.7689  1.5420 -1.1325
45786SOL    HW243196   1.652  10.882   6.113  0.4704 -0.9867 -0.5514
45787SOL     OW43197  12.138   7.933   2.946  0.2600  0.1088  0.5191
45787SOL    HW143198  12.133   7.844   2.981  0.2505  0.7173  2.1523
45787SOL    HW243199  12.184   7.983   3.013  2.4660  0.8749 -1.4048
45788SOL     OW43200   8.942  10.370   5.149  0.2582  0.1249  0.2526
45788SOL    HW143201   9.007  10.440   5.158  2.6529 -1.9745  0.7156
45788SOL    HW243202   8.919  10.348   5.239  1.3126 -1.1519  0.2412
45789SOL     OW43203   9.005  11.907   0.057  0.0854 -0.0316 -0.9588
45789SOL    HW143204   8.922  11.891   0.012  0.1781  0.4162 -1.3045
45789SOL    HW243205   9.017  12.002   0.051  0.2673 -0.0058 -0.2810
45790SOL     OW43206   7.207   1.199   2.599  0.3187 -0.0165 -0.4162
45790SOL    HW143207   7.207   1.293   2.616 -0.9885  0.0513 -0.6933
45790SOL    HW243208   7.228   1.158   2.683 -2.1138  0.4420  0.4865
45791SOL     OW43209  11.009   9.533   5.938 -0.1172 -0.8135 -0.0894
45791SOL    HW143210  10.942   9.602   5.945 -0.4013 -1.1009  0.0317
45791SOL    HW243211  11.041   9.522   6.027  1.1902  0.4000 -0.3771
45792SOL     OW43212   1.275   5.606  11.372 -0.1169 -0.2483 -0.0944
45792SOL    HW143213   1.219   5.564  11.307  0.6951 -2.1262  0.3540
45792SOL    HW243214   1.275   5.546  11.446  0.5606  0.8979  0.8748
45793SOL     OW43215   7.117   3.309  11.804  0.0925 -0.0989  0.1726
45793SOL    HW143216   7.053   3.361  11.852  1.3703  0.8834  0.8976
45793SOL    HW243217   7.156   3.251  11.871  1.3560  0.7455  0.1954
45794SOL     OW43218   5.115   5.509  10.319 -0.5926 -0.8516 -0.3002
45794SOL    HW143219   5.053   5.516  10.392 -2.2786  0.6147 -1.7459
45794SOL    HW243220   5.199   5.488  10.359 -1.4559 -0.0986  2.0508
45795SOL     OW43221   9.921   5.114   5.209 -1.0355 -0.4615  0.3311
45795SOL    HW143222   9.872   5.195   5.198  0.5008  0.0714 -4.9300
45795SOL    HW243223   9.878   5.052   5.150  1.1881 -1.6644 -0.1080
45796SOL     OW43224   2.369  10.162   5.102 -0.5416 -0.0082 -0.1202
45796SOL    HW143225   2.393  10.081   5.147 -1.6795 -0.3464 -0.0856
45796SOL    HW243226   2.305  10.134   5.036  0.0510  0.6833 -0.9967
45797SOL     OW43227   6.033   9.510   7.734  0.3569  0.1942 -0.2760
45797SOL    HW143228   6.002   9.576   7.796 -0.8934 -0.8355  0.2392
45797SOL    HW243229   5.992   9.429   7.762  0.1464 -0.4125 -2.1566
45798SOL     OW43230   4.617   6.192   9.676 -0.1053 -0.1198  0.0363
45798SOL    HW143231   4.572   6.210   9.594 -0.8654 -0.8998  0.2568
45798SOL    HW243232   4.687   6.257   9.681 -0.9735  0.8891 -0.5062
45799SOL     OW43233   2.023   0.996   5.204  0.3188 -0.3370 -0.3227
45799SOL    HW143234   2.118   0.988   5.209  0.4058  0.2685 -0.8162
45799SOL    HW243235   2.002   1.063   5.270  0.1277 -1.1145  0.4219
45800SOL     OW43236   1.458   5.357   1.120 -0.3858 -0.2518  0.0378
45800SOL    HW143237   1.386   5.409   1.157 -0.5433  0.4747 -1.2135
45800SOL    HW243238   1.527   5.361   1.187 -0.6981  0.9145  0.3240
45801SOL     OW43239  10.615   9.350   1.296 -0.0731 -0.2850 -0.3318
45801SOL    HW143240  10.534   9.309   1.266  0.0616  0.0315 -1.1662
45801SOL    HW243241  10.679   9.331   1.227  0.0034  1.2479 -0.7327
45802SOL     OW43242   2.378   6.603  10.371  0.0883 -0.0645 -0.2344
45802SOL    HW143243   2.344   6.543  10.437 -2.3886  1.1355 -0.3178
45802SOL    HW243244   2.375   6.552  10.290 -0.3088 -0.3924 -0.0224
45803SOL     OW43245   2.366   4.553   9.065  0.2835  0.5784 -0.1635
45803SOL    HW143246   2.397   4.636   9.029 -1.2508  0.2324 -2.4513
45803SOL    HW243247   2.289   4.531   9.013 -0.4547 -1.3775  1.6130
45804SOL     OW43248   8.730  10.473   9.040  0.1022 -0.5779 -0.1926
45804SOL    HW143249   8.741  10.464   9.135 -1.0135  1.6955  0.2134
45804SOL    HW243250   8.666  10.406   9.017 -1.5486  0.4753  1.1323
45805SOL     OW43251  11.961   4.505   8.011  0.4199  0.0741  0.2529
45805SOL    HW143252  11.927   4.421   7.978  2.4516  0.0166 -2.0081
45805SOL    HW243253  11.930   4.569   7.947  1.9689  0.4305 -0.1899
45806SOL     OW43254   9.172   3.885   3.121 -0.5005 -0.5600  0.1966
45806SOL    HW143255   9.195   3.842   3.203  0.0698  0.4403  0.5838
45806SOL    HW243256   9.177   3.816   3.055 -2.9976 -1.8788  1.2718
45807SOL     OW43257   9.750   2.041   1.644 -0.4940  0.0073 -0.1426
45807SOL    HW143258   9.715   2.118   1.689  0.3067  0.1517  0.2562
45807SOL    HW243259   9.791   1.990   1.714 -0.2559 -0.3480 -0.5418
45808SOL     OW43260   3.918   5.931   2.408 -0.6136  0.1337  0.3900
45808SOL    HW143261   3.996   5.981   2.383 -1.5281  0.5470 -1.7870
45808SOL    HW243262   3.892   5.969   2.492  0.9390  0.6665  0.6598
45809SOL     OW43263  10.752   1.095   2.480 -0.0470  0.2548 -0.0893
45809SOL    HW143264  10.774   1.004   2.462 -1.7655 -0.0639 -0.8066
45809SOL    HW243265  10.657   1.098   2.474  0.0210  2.2897 -1.0676
45810SOL     OW43266   4.638  10.605   4.781  0.0616 -0.3230  0.1024
45810SOL    HW143267   4.685  10.660   4.844 -0.8647 -0.1755  0.6681
45810SOL    HW243268   4.575  10.555   4.833 -1.4740  0.5906 -0.8119
45811SOL     OW43269  10.139   0.563   7.378  0.3489  0.2607  0.1191
45811SOL    HW143270  10.151   0.541   7.285  2.5571  0.9875  0.1719
45811SOL    HW243271  10.097   0.649   7.376  0.2901  0.2281 -0.2156
45812SOL     OW43272  12.251  11.939   3.232  0.2992 -0.0388  0.1695
45812SOL    HW143273  12.194  11.937   3.155 -0.6922 -1.0570  0.9020
45812SOL    HW243274  12.259  12.031   3.253 -0.3410  0.1832 -0.4972
45813SOL     OW43275   1.769   9.981  11.888  0.4118  0.0424  0.2110
45813SOL    HW143276   1.735   9.894  11.906  0.6719 -0.0021  0.5121
45813SOL    HW243277   1.834   9.969  11.819 -1.5340  0.4011 -1.7579
45814SOL     OW43278   9.971   3.655   6.483 -0.1524 -0.6392 -0.0689
45814SOL    HW143279   9.958   3.643   6.389 -0.3320  1.2724 -0.3226
45814SOL    HW243280   9.884   3.668   6.518  0.0788  0.7193  0.0299
45815SOL     OW43281   4.109  11.449   5.396  0.2975 -0.0036  0.3506
45815SOL    HW143282   4.138  11.493   5.477  2.9494 -1.2817  0.2148
45815SOL    HW243283   4.157  11.495   5.326  0.1127 -0.6242 -0.1869
45816SOL     OW43284   6.638   9.584   7.952  0.4638  0.3205 -0.4012
45816SOL    HW143285   6.579   9.529   7.900 -0.2610  0.8493 -0.1628
45816SOL    HW243286   6.691   9.631   7.888  0.8207 -0.3682 -0.6130
45817SOL     OW43287   2.349   1.407   8.535 -0.3709  0.0269 -0.7313
45817SOL    HW143288   2.285   1.450   8.593 -1.3245 -0.3513 -1.4925
45817SOL    HW243289   2.433   1.430   8.573 -0.8385  2.4513 -0.9781
45818SOL     OW43290   5.300   6.597  11.074 -0.1559  0.7048  0.0359
45818SOL    HW143291   5.218   6.588  11.024 -0.2239 -0.3165  0.2991
45818SOL    HW243292   5.369   6.579  11.010 -0.2886 -1.9682  0.5359
45819SOL     OW43293   0.313   5.752   7.483  0.0171 -0.6164 -0.0653
45819SOL    HW143294   0.391   5.734   7.430  1.4373  1.4409  1.2034
45819SOL    HW243295   0.302   5.673   7.536  2.9661  0.0230  1.7045
45820SOL     OW43296  10.970   0.045  12.135  0.0092  0.7559  0.0696
45820SOL    HW143297  10.951   0.020  12.225  1.0856 -0.3897  0.0098
45820SOL    HW243298  10.996   0.136  12.139 -1.6056  1.2275  0.6617
45821SOL     OW43299   2.772  11.624   5.805  0.0788  0.2114  0.3828
45821SOL    HW143300   2.770  11.706   5.855 -0.3547 -0.4780  1.5278
45821SOL    HW243301   2.864  11.614   5.780 -0.0355  1.6044 -0.7603
45822SOL     OW43302   6.929   9.726   1.673 -0.5233 -0.1705 -0.8426
45822SOL    HW143303   6.975   9.695   1.751 -1.5452  1.5080  0.4982
45822SOL    HW243304   6.846   9.678   1.674 -0.3277 -0.5255 -1.2106
45823SOL     OW43305   1.448   5.191   6.175 -0.3703  0.8764  0.0031
45823SOL    HW143306   1.439   5.285   6.160  0.4674  0.7913 -1.1375
45823SOL    HW243307   1.371   5.153   6.133 -0.3063  0.9938 -0.2241
45824SOL     OW43308   2.608   4.426   2.380 -0.8962 -0.3775 -0.3027
45824SOL    HW143309   2.594   4.368   2.305 -0.4582  0.3015 -0.9151
45824SOL    HW243310   2.630   4.511   2.342 -1.1264  0.0960  0.5919
45825SOL     OW43311   0.734  11.040   9.268 -0.2146  0.1667 -0.0972
45825SOL    HW143312   0.796  11.084   9.210 -0.3299 -0.1209 -0.4479
45825SOL    HW243313   0.662  11.014   9.210  0.4477 -1.6456 -0.1876
45826SOL     OW43314   3.031   0.923   6.206  0.0003  0.5260  0.2104
45826SOL    HW143315   3.039   0.985   6.278  2.6662  1.1583 -0.5395
45826SOL    HW243316   3.011   0.839   6.249  1.5659  0.8778  1.7251
45827SOL     OW43317   8.886   1.710   1.834  0.7706  0.2048 -0.2917
45827SOL    HW143318   8.958   1.773   1.838 -1.5623  3.1665 -0.8854
45827SOL    HW243319   8.873   1.695   1.741 -0.6092  1.3629 -0.3229
45828SOL     OW43320   9.951   6.041   0.736  0.0682  0.2925  0.1067
45828SOL    HW143321   9.910   5.955   0.745 -0.4748  0.7249  2.4652
45828SOL    HW243322  10.036   6.031   0.778  0.9005  0.3977 -1.4748
45829SOL     OW43323   8.170   2.602  10.513 -0.2203  0.0553  0.3803
45829SOL    HW143324   8.128   2.686  10.526  0.6502  0.5125  0.3392
45829SOL    HW243325   8.250   2.622  10.464 -0.3868 -0.8874 -0.3171
45830SOL     OW43326   4.190   1.251  12.289 -0.0622 -0.8201  0.1785
45830SOL    HW143327   4.104   1.212  12.277 -0.2639 -0.3553  0.1239
45830SOL    HW243328   4.225   1.260  12.200  0.3457 -1.6819  0.2409
45831SOL     OW43329   8.204   2.847   4.808  0.2723  0.1239 -0.0959
45831SOL    HW143330   8.167   2.822   4.893 -0.6117  0.3015 -0.4172
45831SOL    HW243331   8.211   2.764   4.761 -1.7015  0.2997 -0.7873
45832SOL     OW43332  12.182   0.877   8.819  0.1928 -0.7193  0.3898
45832SOL    HW143333  12.176   0.955   8.875  1.3418 -1.0776  1.0249
45832SOL    HW243334  12.128   0.899   8.743  0.4405  0.6699  0.5903
45833SOL     OW43335   4.308  10.646  10.583  0.3894  0.0065 -0.0411
45833SOL    HW143336   4.236  10.687  10.630  0.1016  1.2631 -1.5112
45833SOL    HW243337   4.298  10.675  10.492  0.0768 -3.4049 -1.2585
45834SOL     OW43338  11.975   0.269  10.218 -0.3406 -0.2717 -0.0443
45834SOL    HW143339  12.055   0.314  10.190 -1.5706  0.2931 -2.9751
45834SOL    HW243340  11.990   0.177  10.195  0.6158 -0.8188  2.3686
45835SOL     OW43341   4.878   0.918   5.977 -0.0692 -0.2992 -0.2632
45835SOL    HW143342   4.816   0.960   6.036 -0.1279 -0.7368 -0.0035
45835SOL    HW243343   4.854   0.825   5.981 -0.9567 -0.1873 -2.0136
45836SOL     OW43344   9.887   1.242   6.674 -0.0509 -0.5239 -0.4413
45836SOL    HW143345   9.978   1.224   6.694 -0.2940 -0.8194  0.4700
45836SOL    HW243346   9.839   1.168   6.712 -0.7791  0.3624  0.4407
45837SOL     OW43347   2.150   4.589   3.607 -0.8476  0.3659 -0.0857
45837SOL    HW143348   2.108   4.597   3.522 -0.7072  0.1627 -0.1728
45837SOL    HW243349   2.105   4.654   3.662  0.9017  2.4723 -1.0345
45838SOL     OW43350  10.609   8.154   3.125  0.0278  0.1306  0.0428
45838SOL    HW143351  10.579   8.219   3.063  0.1969  1.1127  0.9561
45838SOL    HW243352  10.620   8.074   3.073 -0.7083  0.6761 -0.9848
45839SOL     OW43353   1.066   6.319   5.977  0.0992  0.4223  0.3263
45839SOL    HW143354   1.142   6.284   6.025  0.8786  2.0504  0.3382
45839SOL    HW243355   1.058   6.262   5.901  0.1969 -0.8783  1.2460
45840SOL     OW43356   6.611   9.173   0.290 -0.0273  0.0284 -0.7867
45840SOL    HW143357   6.567   9.207   0.368  0.2159  1.3953 -1.2254
45840SOL    HW243358   6.542   9.158   0.226 -0.0892  0.0786 -0.7308
45841SOL     OW43359   9.764   0.152   9.554 -0.2118 -0.3467 -0.6600
45841SOL    HW143360   9.836   0.095   9.580 -1.5134 -0.8301  2.2907
45841SOL    HW243361   9.714   0.100   9.491  0.8698 -0.7958 -1.1770
45842SOL     OW43362   5.768  11.430   5.147  0.1515  0.0318 -0.4605
45842SOL    HW143363   5.751  11.518   5.113  0.2656  0.2522  0.0513
45842SOL    HW243364   5.863  11.423   5.148  0.1715  0.3262  0.5680
45843SOL     OW43365   4.000   3.030   1.250 -0.4276  0.1961 -0.2551
45843SOL    HW143366   4.005   2.936   1.268  2.3716  0.0351 -1.4131
45843SOL    HW243367   3.915   3.056   1.286  0.2424 -2.0169  3.4880
45844SOL     OW43368   7.215   0.235   2.965  0.5715  0.1395  0.0729
45844SOL    HW143369   7.258   0.173   2.906  1.6248  1.0802 -0.1853
45844SOL    HW243370   7.122   0.211   2.961  0.8285 -0.7927 -0.7673
45845SOL     OW43371   4.537   8.777   0.594 -0.0491  0.2021 -0.0370
45845SOL    HW143372   4.517   8.745   0.682 -1.6953  1.5215  0.1345
45845SOL    HW243373   4.626   8.748   0.577  0.4131  0.1468  2.1776
45846SOL     OW43374   6.938   1.492   5.342 -0.4405 -0.3858 -0.0508
45846SOL    HW143375   6.846   1.507   5.324 -0.4097 -0.2196 -0.0797
45846SOL    HW243376   6.952   1.399   5.325 -0.8655 -0.6782  1.0927
45847SOL     OW43377   8.875  10.510   2.937  0.0383  0.8028  0.0873
45847SOL    HW143378   8.809  10.528   2.870 -2.1175 -0.9582  1.5751
45847SOL    HW243379   8.890  10.595   2.979 -0.5934  1.4105 -0.8665
45848SOL     OW43380   4.161   1.278   3.220 -0.4803 -0.4754 -0.1467
45848SOL    HW143381   4.134   1.245   3.305  0.9048  0.1902  0.5810
45848SOL    HW243382   4.232   1.339   3.239 -1.8538  1.7026 -1.5753
45849SOL     OW43383  11.515   0.714  11.523 -0.0423 -0.6382  0.4710
45849SOL    HW143384  11.537   0.771  11.449  0.3055 -1.1297  0.1960
45849SOL    HW243385  11.460   0.646  11.485  1.2099 -1.6408  0.3996
45850SOL     OW43386   8.424   3.949   6.267  0.0129  0.3441 -0.1860
45850SOL    HW143387   8.460   3.868   6.229 -1.6324 -0.4597 -0.0944
45850SOL    HW243388   8.346   3.921   6.315  0.2833  1.7829  1.1880
45851SOL     OW43389   5.217  10.299   5.926 -0.2310  0.0231  0.0828
45851SOL    HW143390   5.226  10.221   5.981 -0.3581  0.5116  0.8101
45851SOL    HW243391   5.289  10.356   5.953  0.6057 -0.3181 -1.2914
45852SOL     OW43392   9.763   3.858   0.952  0.1777  0.2650 -0.0065
45852SOL    HW143393   9.825   3.843   0.881  0.4690  1.1473  0.0537
45852SOL    HW243394   9.718   3.774   0.963 -0.3349  0.2913 -1.6576
45853SOL     OW43395  11.178   9.726   3.071 -0.0003  0.5202 -0.4034
45853SOL    HW143396  11.202   9.638   3.043  0.4969  1.0648 -1.7886
45853SOL    HW243397  11.179   9.723   3.167 -0.3242 -1.0525 -0.4282
45854SOL     OW43398   7.094  11.059  11.864 -0.1935  0.1471  0.3067
45854SOL    HW143399   7.002  11.078  11.884  0.2085  1.9036  0.6369
45854SOL    HW243400   7.101  10.964  11.872 -1.8893  0.0176  0.6464
45855SOL     OW43401   2.170   3.325  12.019 -0.3571  0.1742 -0.2920
45855SOL    HW143402   2.183   3.283  11.933  0.5724 -0.2433  0.0382
45855SOL    HW243403   2.118   3.403  12.000  0.2957  0.3839 -1.3212
45856SOL     OW43404   2.714  11.177   5.639 -0.4276 -0.4302  0.3084
45856SOL    HW143405   2.738  11.110   5.703  0.7289 -0.4355 -0.1021
45856SOL    HW243406   2.791  11.234   5.636 -0.6498 -0.1785 -0.7483
45857SOL     OW43407   4.550   4.686  10.620 -0.5455 -0.2416  0.0195
45857SOL    HW143408   4.620   4.751  10.619  0.6931 -1.5393 -0.9140
45857SOL    HW243409   4.591   4.605  10.591 -2.3940 -1.1117 -0.3460
45858SOL     OW43410  10.464   5.200  11.557  0.6283  0.0873 -0.1618
45858SOL    HW143411  10.529   5.269  11.554 -0.2104  0.8651 -1.8746
45858SOL    HW243412  10.469   5.158  11.471 -1.2058  0.3059 -0.4356
45859SOL     OW43413   2.442   5.667   4.602  0.0722  0.2220  0.3781
45859SOL    HW143414   2.455   5.632   4.514 -1.4725  0.5890 -0.0193
45859SOL    HW243415   2.506   5.738   4.609  1.6812 -1.1696  0.3729
45860SOL     OW43416   3.480   9.017  10.557  0.2033 -1.3054 -0.6208
45860SOL    HW143417   3.476   9.060  10.471  2.4275 -0.5691 -0.4257
45860SOL    HW243418   3.403   9.049  10.604  0.8631  1.1557 -1.0967
45861SOL     OW43419   2.165   5.007   7.854 -0.7451  0.0425  0.3798
45861SOL    HW143420   2.111   4.992   7.776  0.5586  0.0086 -0.5509
45861SOL    HW243421   2.123   4.956   7.923 -0.5614 -1.9781 -0.9117
45862SOL     OW43422   2.985   6.489  10.195 -0.2540  0.2532 -0.6041
45862SOL    HW143423   2.895   6.519  10.186 -0.1090  1.5729  1.5556
45862SOL    HW243424   2.980   6.394  10.192 -2.3966  0.0271  3.5429
45863SOL     OW43425   2.494   7.374  11.917  0.0077  0.2659  0.0352
45863SOL    HW143426   2.564   7.377  11.981 -1.5415  0.9475  1.7766
45863SOL    HW243427   2.519   7.438  11.850  1.2683  0.1166  0.3441
45864SOL     OW43428  12.211  10.785   2.875 -0.3796 -0.1146 -0.1140
45864SOL    HW143429  12.140  10.727   2.848  0.1367 -0.9097  0.1922
45864SOL    HW243430  12.273  10.782   2.802  0.0988 -0.7201  0.3071
45865SOL     OW43431   0.196   3.270   7.327  0.2645  0.0384 -0.1127
45865SOL    HW143432   0.135   3.197   7.312 -1.0503  0.6086  2.0631
45865SOL    HW243433   0.280   3.237   7.295 -0.8218 -1.3768 -1.7387
45866SOL     OW43434   3.325   5.763   8.316  0.0849  0.2594 -0.0413
45866SOL    HW143435   3.324   5.669   8.301 -0.0162  0.3686 -0.7714
45866SOL    HW243436   3.248   5.795   8.269 -0.0732  0.6632  0.4898
45867SOL     OW43437   3.789   6.265   9.591 -0.3477  0.0331 -0.4708
45867SOL    HW143438   3.718   6.267   9.656 -0.1190  0.7972 -0.2295
45867SOL    HW243439   3.751   6.303   9.512 -0.2059  0.4582 -0.3365
45868SOL     OW43440  10.621   5.300   2.456 -0.0500 -0.2226  0.3981
45868SOL    HW143441  10.546   5.317   2.399 -0.1991  0.6139  0.8217
45868SOL    HW243442  10.668   5.228   2.414 -0.6867 -0.2652 -0.2594
45869SOL     OW43443   0.840  10.161  11.448  0.0941  0.6667 -0.3085
45869SOL    HW143444   0.906  10.200  11.505  0.6590  2.3630 -2.0011
45869SOL    HW243445   0.881  10.158  11.362 -1.0923 -0.8223 -0.8668
45870SOL     OW43446   7.870   7.852   7.110  0.6157  0.8863 -0.1110
45870SOL    HW143447   7.922   7.778   7.144  0.5201  0.2257 -1.3353
45870SOL    HW243448   7.779   7.824   7.121  0.5865  0.6256 -0.9764
45871SOL     OW43449   0.788   7.460  11.442 -0.5582  0.3408 -0.0914
45871SOL    HW143450   0.721   7.394  11.461 -0.1744 -0.1734 -0.4762
45871SOL    HW243451   0.765   7.534  11.497 -0.6772 -0.3262  0.7832
45872SOL     OW43452   5.512   0.597   2.942  0.1082  0.3706  0.4185
45872SOL    HW143453   5.579   0.652   2.983 -0.5754  1.1220  0.5338
45872SOL    HW243454   5.430   0.645   2.953 -0.3101 -0.0706 -0.5879
45873SOL     OW43455   5.943   7.097   5.363  0.5202 -0.3464  0.4948
45873SOL    HW143456   6.002   7.094   5.439 -0.9342 -1.0701  1.6432
45873SOL    HW243457   5.902   7.183   5.368  0.0564 -0.5805  0.8466
45874SOL     OW43458   2.463   0.492   8.281 -0.0642  0.4365 -0.5360
45874SOL    HW143459   2.517   0.569   8.299 -0.6999  1.3136 -2.1666
45874SOL    HW243460   2.473   0.437   8.358 -0.2775  2.5403  1.0669
45875SOL     OW43461  11.855   2.363  12.091 -0.6423 -0.6291  0.2003
45875SOL    HW143462  11.871   2.391  12.001 -1.3239 -2.6108 -0.5900
45875SOL    HW243463  11.942   2.343  12.125 -0.5782 -2.6171 -1.0135
45876SOL     OW43464  12.225   2.232   8.194  0.2778 -0.3483 -0.1457
45876SOL    HW143465  12.194   2.304   8.249 -1.3509 -1.7961  0.9568
45876SOL    HW243466  12.193   2.153   8.238 -1.9214 -1.5825 -3.5681
45877SOL     OW43467   7.313   8.116  11.147  0.2072 -0.5883  0.1654
45877SOL    HW143468   7.305   8.160  11.232  0.9139 -1.1628  0.5454
45877SOL    HW243469   7.279   8.179  11.084 -1.6812 -0.7111  1.0121
45878SOL     OW43470   9.063   4.776   4.242 -0.6823  0.1546  0.4942
45878SOL    HW143471   9.019   4.822   4.314 -0.9039  0.7854 -0.0369
45878SOL    HW243472   9.124   4.840   4.206 -1.4121  0.2407 -0.6268
45879SOL     OW43473   9.709  12.012   2.215  0.2450  0.0474  0.2635
45879SOL    HW143474   9.660  12.055   2.145  1.6591 -0.2267 -0.9422
45879SOL    HW243475   9.701  12.071   2.290  1.0357  1.7725 -0.9601
45880SOL     OW43476   4.051  10.704  10.720  0.1872  0.2831  0.3250
45880SOL    HW143477   4.019  10.624  10.679 -0.6011  0.4795  0.5429
45880SOL    HW243478   4.081  10.676  10.807 -1.8931  0.5050  1.1791
45881SOL     OW43479   4.563   4.943  11.141  0.1752 -0.3102 -0.1650
45881SOL    HW143480   4.615   4.877  11.186 -1.2933 -0.6355  1.1297
45881SOL    HW243481   4.536   4.900  11.059  1.9844 -0.0805 -0.9356
45882SOL     OW43482   4.577   0.966   2.471 -0.2382 -0.1504  0.8721
45882SOL    HW143483   4.499   0.924   2.509  0.7402 -2.3247  0.6009
45882SOL    HW243484   4.641   0.896   2.463  1.3897  1.3508  0.0139
45883SOL     OW43485   9.071   9.516   2.407 -0.8015  0.2511 -0.5858
45883SOL    HW143486   9.163   9.504   2.428 -0.6737  0.2732 -1.1164
45883SOL    HW243487   9.039   9.577   2.474 -0.6771 -0.5119  0.1855
45884SOL     OW43488  10.211  10.739   4.370  0.0022  0.5394 -0.0877
45884SOL    HW143489  10.149  10.777   4.433 -1.2452 -0.9249 -0.3523
45884SOL    HW243490  10.155  10.694   4.306  1.2675 -3.2470  1.1646
45885SOL     OW43491   9.370   1.400   5.775  0.1078  0.3168 -0.2055
45885SOL    HW143492   9.455   1.406   5.819  0.4089 -0.3448 -0.6865
45885SOL    HW243493   9.339   1.312   5.795 -0.4432  0.5402 -0.0790
45886SOL     OW43494   1.865   5.305   2.408  0.4376 -0.0647  0.0794
45886SOL    HW143495   1.826   5.393   2.406  0.1246 -0.2216 -1.0480
45886SOL    HW243496   1.802   5.250   2.361  1.2530 -0.6387 -0.3553
45887SOL     OW43497   5.527   1.336   2.944  0.3185 -0.0286 -0.1146
45887SOL    HW143498   5.594   1.392   2.905 -0.5635  1.9108  0.9723
45887SOL    HW243499   5.570   1.298   3.021  0.6564 -0.0773 -0.3265
45888SOL     OW43500   5.721  11.404   6.957 -0.1959 -0.0468  0.3027
45888SOL    HW143501   5.747  11.414   7.049 -2.0473 -0.4291  0.9228
45888SOL    HW243502   5.791  11.446   6.907  0.6739  0.4997  1.9083
45889SOL     OW43503   8.165  10.129  11.580  0.1585  0.0451 -0.0317
45889SOL    HW143504   8.170  10.223  11.563 -1.2365 -0.0052 -0.8154
45889SOL    HW243505   8.096  10.120  11.645  0.4304 -0.4322  0.1994
45890SOL     OW43506   1.688   5.552   3.873 -0.0035  0.1609  0.0656
45890SOL    HW143507   1.774   5.528   3.838  0.3031  1.0114  0.2091
45890SOL    HW243508   1.701   5.552   3.968 -0.7213 -1.7321  0.2079
45891SOL     OW43509   5.886   3.497   0.971 -0.3818  0.4625  0.3808
45891SOL    HW143510   5.794   3.476   0.986 -0.3184  0.0857  0.2519
45891SOL    HW243511   5.916   3.535   1.054 -0.5701  0.2867  0.5301
45892SOL     OW43512  11.491   0.852   9.417 -0.3123 -0.3375 -0.0210
45892SOL    HW143513  11.426   0.916   9.445 -1.3467 -0.3712 -2.2107
45892SOL    HW243514  11.536   0.893   9.344  0.2531 -1.4072 -0.3007
45893SOL     OW43515  11.010   4.784  11.948 -0.2093 -0.0605 -0.1370
45893SOL    HW143516  11.046   4.784  11.859  1.9833  1.2803  0.6761
45893SOL    HW243517  10.954   4.706  11.951  0.3159 -0.6040 -2.4059
45894SOL     OW43518   7.216   5.738   7.518  0.0696 -0.3819 -0.1272
45894SOL    HW143519   7.301   5.699   7.498  0.2576 -0.9342  1.6167
45894SOL    HW243520   7.236   5.830   7.539 -0.1849  0.3463 -2.6426
45895SOL     OW43521   2.473   3.750   7.802 -0.0544  0.1114  0.2009
45895SOL    HW143522   2.549   3.697   7.777  0.2596  0.0579  1.2004
45895SOL    HW243523   2.495   3.838   7.773 -1.4346 -0.5357 -3.3198
45896SOL     OW43524   1.052   3.888   4.278  0.5465  0.4280  0.5153
45896SOL    HW143525   1.141   3.883   4.245  0.0875  0.0889 -0.7583
45896SOL    HW243526   0.997   3.889   4.199 -0.5287  1.9272  1.2150
45897SOL     OW43527   8.694   8.778   2.018  0.3105 -0.1965 -1.2177
45897SOL    HW143528   8.715   8.686   2.008  0.4330 -0.2477 -0.5307
45897SOL    HW243529   8.598   8.781   2.019  0.2891 -0.1747 -2.4530
45898SOL     OW43530   8.611   8.943   5.910 -0.0505 -0.2503  1.2493
45898SOL    HW143531   8.607   8.952   6.005 -1.0686 -1.4547  1.3513
45898SOL    HW243532   8.533   8.892   5.887  0.0975  0.1300 -0.2500
45899SOL     OW43533   2.404  10.313   4.431  0.0109  0.5652  0.1828
45899SOL    HW143534   2.443  10.400   4.442 -0.2427  0.7746 -0.5207
45899SOL    HW243535   2.479  10.254   4.424  0.2296  1.0068 -1.4964
45900SOL     OW43536   5.843   8.321   1.191  0.0909  1.0756  0.1048
45900SOL    HW143537   5.821   8.404   1.235 -2.7526 -0.2276  1.4043
45900SOL    HW243538   5.939   8.318   1.192  0.2335  3.4474  1.7420
45901SOL     OW43539   1.956   2.994   0.559  0.9168  0.4334 -0.1843
45901SOL    HW143540   1.964   2.908   0.598  4.1978 -0.5251 -2.5809
45901SOL    HW243541   2.010   3.051   0.613  0.9852  0.3656 -0.1819
45902SOL     OW43542   1.504   7.935   9.606 -0.6367  0.1405  0.3729
45902SOL    HW143543   1.487   7.873   9.676 -0.8895 -0.3455 -0.1093
45902SOL    HW243544   1.599   7.937   9.598 -0.5526  0.8550  1.2945
45903SOL     OW43545   1.703   8.183   8.328 -0.5360 -0.1408  0.4562
45903SOL    HW143546   1.690   8.275   8.353 -2.3225  0.1383 -1.2385
45903SOL    HW243547   1.615   8.146   8.328  0.0378 -1.5582  0.0199
45904SOL     OW43548   5.168   1.453  10.049 -0.0890  0.9806  0.2027
45904SOL    HW143549   5.172   1.420   9.960 -1.6948  3.3131 -0.8363
45904SOL    HW243550   5.252   1.429  10.088  0.4968 -0.4029 -1.8010
45905SOL     OW43551   6.949   2.720   5.868 -0.0689  0.4787  0.2307
45905SOL    HW143552   6.968   2.742   5.959  0.2397 -2.1823  0.8951
45905SOL    HW243553   7.034   2.696   5.830 -0.2401  1.2301 -0.6694
45906SOL     OW43554   0.027   9.222   8.644 -0.1598 -0.3807 -0.0128
45906SOL    HW143555  -0.069   9.215   8.645 -0.1317 -1.1262  2.0010
45906SOL    HW243556   0.045   9.284   8.573 -2.0864 -0.6775 -0.8401
45907SOL     OW43557  11.659   1.964   8.734 -0.4584  0.3014  0.3652
45907SOL    HW143558  11.743   1.950   8.691 -0.2894  0.7598  0.5442
45907SOL    HW243559  11.667   1.918   8.818 -0.8322 -0.6962 -0.1219
45908SOL     OW43560   7.425   8.599   3.122  0.6441  0.1274 -0.8318
45908SOL    HW143561   7.482   8.607   3.198  2.2418  0.4548 -2.0219
45908SOL    HW243562   7.371   8.678   3.124  2.3857  1.3927 -1.3503
45909SOL     OW43563   7.739   0.636   3.670 -0.2762  0.3227  0.0828
45909SOL    HW143564   7.808   0.584   3.712 -0.6823  0.1101  0.4957
45909SOL    HW243565   7.677   0.656   3.741 -1.4548 -0.8252 -0.5895
45910SOL     OW43566   9.373   3.775   8.107 -0.0287 -0.3444 -0.4994
45910SOL    HW143567   9.432   3.710   8.145 -1.5037 -1.3390  0.1326
45910SOL    HW243568   9.338   3.734   8.029 -0.4479 -0.0305 -0.4787
45911SOL     OW43569   3.188   5.275   9.535  0.2487  0.3253  0.0803
45911SOL    HW143570   3.108   5.233   9.505  0.6866  0.1235 -0.8417
45911SOL    HW243571   3.182   5.274   9.631 -0.7011  0.0462  0.0228
45912SOL     OW43572   0.399   5.032  10.540 -0.5268 -0.6853  0.5996
45912SOL    HW143573   0.431   5.024  10.451  0.9589  3.4631  0.5779
45912SOL    HW243574   0.310   4.998  10.537 -0.4571 -0.8222 -2.4042
45913SOL     OW43575   2.576   0.959   3.484  0.0474 -0.4302 -0.2465
45913SOL    HW143576   2.667   0.968   3.513 -0.3292  1.2758  0.4812
45913SOL    HW243577   2.530   1.033   3.522 -1.3893 -0.4990 -1.7121
45914SOL     OW43578   4.047  12.289   1.243  0.0219 -0.2849 -0.3627
45914SOL    HW143579   4.078  12.374   1.276 -0.6232  0.2934 -1.2126
45914SOL    HW243580   4.105  12.269   1.169 -0.8544  0.2316 -1.2118
45915SOL     OW43581   9.935   4.070   5.567 -0.0192  0.1587  0.1266
45915SOL    HW143582  10.017   4.070   5.617 -0.5811 -1.5457  1.1687
45915SOL    HW243583   9.907   3.978   5.569 -2.6143  0.8842  0.9881
45916SOL     OW43584   9.442   3.229   8.585  0.2644  0.1575 -0.5229
45916SOL    HW143585   9.413   3.186   8.504  0.7182 -1.2795  0.0372
45916SOL    HW243586   9.429   3.162   8.653  3.3552 -0.0527 -0.0006
45917SOL     OW43587   6.225   2.566   3.332 -0.1510 -0.2390  0.2697
45917SOL    HW143588   6.178   2.629   3.387 -1.0362 -1.1884  0.6362
45917SOL    HW243589   6.156   2.512   3.294  0.4218  0.4611 -1.9182
45918SOL     OW43590   3.408   2.120   7.732 -0.4452  0.2206  0.1566
45918SOL    HW143591   3.334   2.177   7.712  0.0701 -0.0775 -3.1500
45918SOL    HW243592   3.374   2.056   7.794 -1.6770  2.6234  2.1508
45919SOL     OW43593   9.338   1.067   9.766 -0.3272 -0.6055  0.2774
45919SOL    HW143594   9.332   1.070   9.861  1.7684 -0.1537  0.4318
45919SOL    HW243595   9.377   1.151   9.741 -1.3740 -0.4704 -1.0517
45920SOL     OW43596   4.443   6.421   1.696  0.1277  0.1939 -0.7814
45920SOL    HW143597   4.364   6.463   1.662 -2.2219 -3.3473 -0.2866
45920SOL    HW243598   4.498   6.407   1.619 -1.2566 -0.1445 -1.7548
45921SOL     OW43599   8.740   1.036   0.995  0.1175  0.0225  0.1945
45921SOL    HW143600   8.827   1.040   1.034 -0.0587  0.9836  0.5010
45921SOL    HW243601   8.686   0.990   1.060  0.4756 -0.9402 -0.1712
45922SOL     OW43602   3.627   7.015  10.157 -0.2484 -0.1770 -0.1284
45922SOL    HW143603   3.693   7.004  10.226  0.2755  3.0616  0.0865
45922SOL    HW243604   3.549   6.971  10.191  1.3816 -3.0361  0.1716
45923SOL     OW43605   5.337   9.799   5.178  0.3641  0.0944  0.4723
45923SOL    HW143606   5.272   9.730   5.162  1.6264 -0.6542 -1.9226
45923SOL    HW243607   5.308   9.840   5.260 -1.6257 -1.8755  0.8726
45924SOL     OW43608   7.758   5.770   7.121  0.6145 -0.3863  0.4861
45924SOL    HW143609   7.672   5.730   7.105  1.0802 -1.8946  1.5179
45924SOL    HW243610   7.758   5.849   7.067 -0.7743 -1.2187 -0.8245
45925SOL     OW43611   8.648   7.095   2.676 -1.1953  0.5533 -0.4398
45925SOL    HW143612   8.666   7.112   2.584  0.3756  0.6451 -0.1482
45925SOL    HW243613   8.724   7.047   2.707 -2.0582 -0.1669  0.6354
45926SOL     OW43614   4.558   1.122   3.577  0.1567  0.3234  0.3056
45926SOL    HW143615   4.583   1.030   3.566 -1.0409  0.1847 -1.8047
45926SOL    HW243616   4.587   1.164   3.496  1.3929  2.0340  1.5593
45927SOL     OW43617  11.196   9.324   3.539 -0.2868  0.3108  0.2033
45927SOL    HW143618  11.103   9.338   3.555 -0.3732  1.9729 -1.3709
45927SOL    HW243619  11.240   9.374   3.608 -0.5711  0.5180  0.2357
45928SOL     OW43620   7.023  10.953  10.683 -0.3756 -0.2992 -0.3336
45928SOL    HW143621   7.045  10.910  10.766 -1.6317 -0.1044  0.1282
45928SOL    HW243622   7.103  10.998  10.657  0.0940 -0.5116  0.6836
45929SOL     OW43623  12.008   5.870   7.138 -0.1242 -0.1543 -0.3353
45929SOL    HW143624  12.036   5.789   7.096  0.9820  0.0078  0.0630
45929SOL    HW243625  11.980   5.844   7.226 -0.3964 -0.1911 -0.4315
45930SOL     OW43626   4.834  10.418   8.203 -0.1045  0.6091  0.7509
45930SOL    HW143627   4.758  10.474   8.195 -1.2491 -0.7608  1.5844
45930SOL    HW243628   4.874  10.443   8.287 -1.0480 -0.2842  1.4951
45931SOL     OW43629   3.566   9.308   4.871 -0.1817  0.0823 -0.1223
45931SOL    HW143630   3.542   9.234   4.927 -2.1132  0.1233 -0.8165
45931SOL    HW243631   3.493   9.317   4.811 -0.4630  3.1086  0.5030
45932SOL     OW43632  12.001   7.941  10.840  0.0743  0.3772 -0.4886
45932SOL    HW143633  11.914   7.965  10.872 -0.6853 -0.3368 -1.9334
45932SOL    HW243634  12.037   7.886  10.910 -0.3746  1.1425  0.3785
45933SOL     OW43635   4.615   5.445   9.866 -0.3595  0.0117  0.1850
45933SOL    HW143636   4.653   5.358   9.864 -1.0214 -0.3041 -2.0619
45933SOL    HW243637   4.690   5.505   9.861  0.0262 -0.4800  0.0769
45934SOL     OW43638   6.381   4.861   0.050 -0.1667 -0.5675 -0.4458
45934SOL    HW143639   6.291   4.865   0.019 -0.4792 -0.8435  0.4016
45934SOL    HW243640   6.378   4.896   0.140  0.8797  1.1645 -1.0291
45935SOL     OW43641   6.708   3.392   7.893 -0.1539 -0.5089  0.0925
45935SOL    HW143642   6.620   3.429   7.899 -0.1251 -0.5883  1.1871
45935SOL    HW243643   6.766   3.465   7.913  0.0655 -0.3481 -1.0641
45936SOL     OW43644   0.756   5.831   5.060  0.0949 -0.1414 -0.3951
45936SOL    HW143645   0.757   5.829   4.964  0.5456 -0.8576 -0.3840
45936SOL    HW243646   0.812   5.758   5.086  0.0213  0.0810  0.4177
45937SOL     OW43647   1.978   8.100   9.660 -0.8218  0.1408  0.0833
45937SOL    HW143648   2.057   8.069   9.616 -1.0081  0.9011 -0.8541
45937SOL    HW243649   1.993   8.194   9.672 -1.6350  0.3301 -0.2642
45938SOL     OW43650  10.598   2.616   0.119  0.0065  0.4008  0.4558
45938SOL    HW143651  10.623   2.588   0.208 -1.2396 -2.5657 -0.0103
45938SOL    HW243652  10.680   2.617   0.070  0.6632  1.7592  1.5081
45939SOL     OW43653   9.633   9.557  12.191 -0.1939 -0.5948  0.6163
45939SOL    HW143654   9.654   9.642  12.230 -1.1696  0.4432 -1.0004
45939SOL    HW243655   9.543   9.565  12.161  0.4259 -1.3112 -1.7061
45940SOL     OW43656   7.053   3.357   9.855 -0.1063 -0.0366 -0.6010
45940SOL    HW143657   7.083   3.364   9.945 -1.5143  1.9125 -0.2301
45940SOL    HW243658   7.133   3.352   9.803  0.7378 -0.2941  0.6814
45941SOL     OW43659   6.364   1.573  11.168 -0.5340  0.2134 -0.4413
45941SOL    HW143660   6.356   1.570  11.073 -0.1649  1.0898 -0.5132
45941SOL    HW243661   6.450   1.535  11.187 -0.7293 -0.2281 -0.4298
45942SOL     OW43662   6.493   7.267  12.164 -0.1422  0.4119 -0.1778
45942SOL    HW143663   6.557   7.252  12.234  0.2467  1.3876 -0.3087
45942SOL    HW243664   6.546   7.275  12.085 -0.5059  0.2599 -0.4376
45943SOL     OW43665   2.217  12.316   9.284  0.3388 -0.6298  0.2696
45943SOL    HW143666   2.224  12.245   9.347  0.4476 -0.4349  0.4813
45943SOL    HW243667   2.208  12.395   9.338  0.5080 -0.4548  0.0438
45944SOL     OW43668   5.635   6.502   0.898 -0.2145 -0.4963  0.0428
45944SOL    HW143669   5.679   6.419   0.914  0.4861 -0.5975 -2.1515
45944SOL    HW243670   5.570   6.483   0.831  0.0236  0.7253 -0.5736
45945SOL     OW43671   1.255   7.929   1.171 -0.2743  0.2815 -0.1398
45945SOL    HW143672   1.212   7.976   1.099  0.5545  0.7637 -0.3295
45945SOL    HW243673   1.295   7.852   1.129  1.0564  1.0833 -0.3872
45946SOL     OW43674   1.426   1.831   6.334 -0.4720 -0.2303  0.2860
45946SOL    HW143675   1.436   1.789   6.249 -4.1525  0.6288 -0.7472
45946SOL    HW243676   1.348   1.790   6.372 -0.2753  1.0272  2.1898
45947SOL     OW43677   3.346   0.169   6.694  0.5511  0.0872  0.1784
45947SOL    HW143678   3.352   0.240   6.758  2.1649  1.4716 -1.3754
45947SOL    HW243679   3.435   0.135   6.688  0.4902  0.1309 -1.4396
45948SOL     OW43680   4.440   8.857   8.530  0.6152  0.0924  0.1450
45948SOL    HW143681   4.455   8.768   8.562  2.1152 -0.5976 -2.2742
45948SOL    HW243682   4.386   8.847   8.452  0.1959  1.3800  0.2332
45949SOL     OW43683   3.286   4.879   8.215 -0.1178  0.1510  0.1832
45949SOL    HW143684   3.320   4.896   8.127 -0.3382  0.5440  0.1737
45949SOL    HW243685   3.352   4.916   8.274  0.8607 -1.5800  0.2317
45950SOL     OW43686   9.981   6.762   0.147 -0.2689  0.0873  0.1422
45950SOL    HW143687   9.955   6.853   0.133 -0.7354  0.0139  0.5128
45950SOL    HW243688   9.912   6.725   0.202 -0.6360 -0.7829 -0.8583
45951SOL     OW43689   0.848   9.081   7.363 -0.0686  0.8798 -0.2229
45951SOL    HW143690   0.833   9.175   7.376 -0.9727  0.8423 -0.8893
45951SOL    HW243691   0.941   9.075   7.341 -0.2855  1.7940 -1.5284
45952SOL     OW43692  10.748  11.017   8.969 -0.7751  0.2531 -0.1818
45952SOL    HW143693  10.714  11.089   9.022 -1.7465 -0.6526  0.4713
45952SOL    HW243694  10.738  11.048   8.879 -3.7062 -0.0227 -0.0610
45953SOL     OW43695   6.959   4.923   6.385  0.1656  0.1234 -0.0016
45953SOL    HW143696   6.928   4.903   6.296  0.0277  0.5743 -0.0566
45953SOL    HW243697   6.968   4.837   6.427  0.6892 -0.1277 -0.6035
45954SOL     OW43698   6.822  11.790   7.255 -0.0280 -0.0777  0.8309
45954SOL    HW143699   6.899  11.833   7.218 -0.5987 -0.3243 -0.7399
45954SOL    HW243700   6.806  11.835   7.337  1.5490  0.2397  0.9960
45955SOL     OW43701   0.574   2.098  11.849 -0.7064 -0.2011 -0.0832
45955SOL    HW143702   0.661   2.121  11.883 -0.8879 -0.3660  0.5163
45955SOL    HW243703   0.573   2.002  11.851 -0.8464 -0.2016 -0.2300
45956SOL     OW43704   0.204  10.045  11.073 -0.0191 -0.7953  0.3182
45956SOL    HW143705   0.294  10.074  11.090 -0.0054 -0.6895  0.0694
45956SOL    HW243706   0.183   9.989  11.148 -0.0497 -0.1451  0.8078
45957SOL     OW43707  10.078   2.654   7.472  0.4157  0.2268  0.3255
45957SOL    HW143708  10.076   2.738   7.519 -0.6478  0.5145 -0.1856
45957SOL    HW243709  10.046   2.590   7.536  1.2092  0.2111  0.7114
45958SOL     OW43710   7.952   6.662  12.315 -0.5793 -0.5817  0.4900
45958SOL    HW143711   7.941   6.615  12.398  4.0493  0.4084  1.9597
45958SOL    HW243712   7.973   6.593  12.252 -1.9688 -1.1528  0.6242
45959SOL     OW43713   9.469   0.667   6.286 -0.1229  0.1380 -0.4066
45959SOL    HW143714   9.552   0.654   6.331 -0.6494 -1.1451  0.2394
45959SOL    HW243715   9.493   0.706   6.203  1.0693  0.4150  0.0468
45960SOL     OW43716   5.604   2.045   1.650  0.6571  0.2738  0.4985
45960SOL    HW143717   5.598   1.975   1.585  0.5015  0.0534  0.7455
45960SOL    HW243718   5.582   2.002   1.733  0.3874  0.6550  0.6257
45961SOL     OW43719   5.371  12.223   6.373  0.1080 -0.5015 -0.0125
45961SOL    HW143720   5.338  12.134   6.383 -2.0464  0.2672  0.3377
45961SOL    HW243721   5.293  12.278   6.385  0.9877  1.3535 -2.2289
45962SOL     OW43722   9.665   2.351   4.635 -0.6885 -0.3678 -0.3898
45962SOL    HW143723   9.580   2.386   4.610 -0.4737 -0.2131 -0.9142
45962SOL    HW243724   9.662   2.259   4.610  0.3144  0.2471 -3.1306
45963SOL     OW43725   1.475   4.810   9.114  0.5321 -0.2120 -0.7956
45963SOL    HW143726   1.534   4.881   9.088  0.5889 -0.4539 -1.3433
45963SOL    HW243727   1.391   4.854   9.130  0.8470  0.1347 -0.0067
45964SOL     OW43728   9.553   8.111   1.829  0.0019 -0.7824  0.1828
45964SOL    HW143729   9.646   8.116   1.810 -0.2479 -1.0134 -1.2649
45964SOL    HW243730   9.526   8.202   1.841  0.3701 -0.7010  0.3954
45965SOL     OW43731   4.652  11.939   9.239 -0.1758 -0.7136  0.1066
45965SOL    HW143732   4.592  11.973   9.306  1.3912  1.6384  0.4511
45965SOL    HW243733   4.734  11.924   9.287  0.1707 -1.6867 -0.7768
45966SOL     OW43734   8.003   4.648  11.321 -0.1651  0.2236  0.1015
45966SOL    HW143735   7.999   4.717  11.255  0.8856  1.0137  0.8391
45966SOL    HW243736   7.930   4.668  11.380 -1.4314 -0.7776 -1.0414
45967SOL     OW43737   4.915   8.494   0.581  0.0662 -0.6240  0.2357
45967SOL    HW143738   4.999   8.495   0.625  0.1753  0.6189  0.0287
45967SOL    HW243739   4.933   8.528   0.493 -0.5897 -0.6620  0.0762
45968SOL     OW43740   3.299  11.266   4.291  0.2000 -0.4079  0.4274
45968SOL    HW143741   3.314  11.174   4.315 -2.7912 -1.0444  0.1572
45968SOL    HW243742   3.245  11.301   4.362 -0.2270  0.6281 -0.3892
45969SOL     OW43743   0.694   4.785   4.737 -0.2105  0.2628 -0.5263
45969SOL    HW143744   0.724   4.874   4.718  0.3597  0.0204 -0.7665
45969SOL    HW243745   0.773   4.731   4.731 -0.7179 -0.4081 -1.3232
45970SOL     OW43746   3.157   4.524   5.767  0.0768 -0.2597  0.3631
45970SOL    HW143747   3.244   4.500   5.800  0.4898  0.2366 -0.3241
45970SOL    HW243748   3.099   4.455   5.800  1.1871 -2.2153 -1.4794
45971SOL     OW43749  10.764   3.695   7.957 -0.5585 -0.2317  0.2716
45971SOL    HW143750  10.841   3.644   7.933  0.4685  1.3280  0.0574
45971SOL    HW243751  10.798   3.764   8.015 -1.6412  0.9800 -0.4589
45972SOL     OW43752   3.049   3.196   6.676  0.4054  0.9122 -0.0895
45972SOL    HW143753   2.986   3.264   6.651  1.2765  2.2120  1.0605
45972SOL    HW243754   3.080   3.160   6.594 -1.5549  0.4731 -0.6968
45973SOL     OW43755   8.411  10.843  10.208  0.1752  0.4471  0.0967
45973SOL    HW143756   8.468  10.817  10.136  0.2320 -1.9040  0.8862
45973SOL    HW243757   8.323  10.827  10.175  0.0941  1.4093 -0.1662
45974SOL     OW43758   3.644   9.211   2.584  0.4619 -0.2061 -0.1292
45974SOL    HW143759   3.644   9.186   2.491 -3.3795  0.1077 -0.3470
45974SOL    HW243760   3.649   9.306   2.583  3.7812 -0.2571  0.2628
45975SOL     OW43761   3.920   9.992   3.881 -0.2046 -0.3161  0.0534
45975SOL    HW143762   3.929   9.982   3.786  2.9412  1.2107  0.0584
45975SOL    HW243763   3.916  10.087   3.894  0.8358 -0.4443  1.5002
45976SOL     OW43764  10.236   3.351   6.975  0.0540  0.4760 -0.0380
45976SOL    HW143765  10.232   3.266   7.019  0.5866  0.5485  0.1510
45976SOL    HW243766  10.267   3.412   7.041 -0.0199  0.7625 -0.2620
45977SOL     OW43767   1.253   4.962   4.130 -0.2507  0.3460  0.8155
45977SOL    HW143768   1.263   4.892   4.194 -0.1512 -0.3172  0.1013
45977SOL    HW243769   1.323   4.947   4.066 -1.4746 -0.1720 -0.4764
45978SOL     OW43770   6.874   9.911   6.051 -0.0830 -0.3870 -0.1283
45978SOL    HW143771   6.885   9.874   5.964  0.8272  0.0550 -0.2036
45978SOL    HW243772   6.963   9.923   6.084 -0.4082 -0.0288  0.6424
45979SOL     OW43773   9.636   9.491   3.931 -0.2542 -0.0464  0.2691
45979SOL    HW143774   9.632   9.524   3.841 -1.0620 -1.6595 -0.3224
45979SOL    HW243775   9.580   9.414   3.931  0.2037 -0.4248  2.0212
45980SOL     OW43776   0.554   7.081   0.703 -0.0732 -0.0318  0.2535
45980SOL    HW143777   0.588   7.092   0.792  2.4040  1.7943 -0.8092
45980SOL    HW243778   0.632   7.061   0.650 -1.0143  1.6675 -1.9291
45981SOL     OW43779   2.600  11.688   3.568  0.2055  0.2030  0.3397
45981SOL    HW143780   2.657  11.764   3.580  0.4591  0.0694 -0.0100
45981SOL    HW243781   2.511  11.725   3.564  0.1736  0.3163  1.8469
45982SOL     OW43782  10.597  11.729   2.835  0.4559  0.3304  0.2167
45982SOL    HW143783  10.547  11.716   2.916  0.4607  0.3035  0.2151
45982SOL    HW243784  10.532  11.754   2.770  0.1709 -1.5051 -0.2475
45983SOL     OW43785   3.819   6.325   4.821  0.3732  0.5189  0.1197
45983SOL    HW143786   3.859   6.344   4.906  0.1076  0.5087  0.2500
45983SOL    HW243787   3.887   6.345   4.757  0.7278  0.0971  0.3595
45984SOL     OW43788   5.274   5.222   8.437  0.0228 -0.2080  0.0108
45984SOL    HW143789   5.220   5.207   8.514 -0.9565 -0.6627 -0.7427
45984SOL    HW243790   5.213   5.215   8.363  0.8345  0.7349 -0.7778
45985SOL     OW43791   4.040   0.770   6.656 -0.4661 -0.0114 -0.6961
45985SOL    HW143792   4.033   0.678   6.632  1.4025 -0.1510 -0.8921
45985SOL    HW243793   4.124   0.798   6.619 -0.7830  1.6475 -0.2490
45986SOL     OW43794   5.434   2.824  12.194  0.6029  0.0074 -0.3756
45986SOL    HW143795   5.417   2.784  12.109 -0.4107  0.0765 -0.2131
45986SOL    HW243796   5.372   2.897  12.199  0.1705 -0.4217  0.7168
45987SOL     OW43797   8.057   7.638   2.964  0.2917  0.5997  0.4196
45987SOL    HW143798   8.078   7.602   3.050 -0.0505  0.7040  0.5463
45987SOL    HW243799   8.038   7.731   2.980 -1.9366  0.1644  0.5712
45988SOL     OW43800   4.879   9.310   6.836 -0.5487 -0.3006  0.5447
45988SOL    HW143801   4.950   9.332   6.776 -0.9491 -1.1392 -0.2613
45988SOL    HW243802   4.913   9.238   6.889 -0.3964  0.0662  0.9521
45989SOL     OW43803   4.965   3.811   6.391 -0.0331 -0.3627 -0.0533
45989SOL    HW143804   4.886   3.765   6.364 -1.8029  3.0574 -1.1748
45989SOL    HW243805   4.934   3.891   6.433  2.8434  0.3945  0.8804
45990SOL     OW43806   7.336   9.826   2.080 -0.3884  0.3660  0.5408
45990SOL    HW143807   7.282   9.830   2.001 -2.5435 -0.9406  1.8441
45990SOL    HW243808   7.335   9.915   2.115 -0.5390  0.6560 -0.1926
45991SOL     OW43809   3.265   2.856   9.981  0.4399  0.0636 -0.0451
45991SOL    HW143810   3.308   2.927  10.029 -1.9194  1.6586 -0.0990
45991SOL    HW243811   3.191   2.832  10.037 -0.1250 -0.7460 -1.1156
45992SOL     OW43812   3.794   2.715   3.789  0.6261 -0.6717 -0.2894
45992SOL    HW143813   3.713   2.704   3.739  0.8046 -0.5931 -0.6034
45992SOL    HW243814   3.779   2.793   3.843  0.5817 -0.5046 -0.5369
45993SOL     OW43815  11.302   0.713  10.455 -0.0494  0.0538 -0.3016
45993SOL    HW143816  11.245   0.636  10.457  1.7935 -1.4042 -0.8281
45993SOL    HW243817  11.267   0.771  10.522 -1.6707 -1.1246 -0.0869
45994SOL     OW43818   0.738   4.496   8.899 -0.0775 -0.1786 -0.0686
45994SOL    HW143819   0.681   4.502   8.976 -1.5120  5.3915 -1.0498
45994SOL    HW243820   0.827   4.500   8.934 -0.6711  1.3208  1.4267
45995SOL     OW43821  12.280   9.503  12.189 -0.1091 -0.3149  0.3027
45995SOL    HW143822  12.290   9.593  12.160 -1.0087 -0.0243  0.8592
45995SOL    HW243823  12.301   9.504  12.282 -0.7213 -0.5524  0.4510
45996SOL     OW43824  10.409   0.937   7.280  0.3866  0.4465  0.0974
45996SOL    HW143825  10.346   0.985   7.226  0.9443  0.7328 -0.3218
45996SOL    HW243826  10.447   0.873   7.220  1.3439  1.0713  0.0183
45997SOL     OW43827   3.011   1.951   6.805 -0.0009 -0.0698  0.2318
45997SOL    HW143828   3.004   1.863   6.842  0.7020 -0.5145 -0.6556
45997SOL    HW243829   3.082   1.993   6.853 -0.6110  0.1790  0.9425
45998SOL     OW43830   0.037   9.937   6.335 -0.0604  0.6711  0.2726
45998SOL    HW143831   0.008   9.906   6.249 -0.3392  0.8279  0.3102
45998SOL    HW243832   0.095  10.010   6.316 -1.0683  1.4821  0.2559
45999SOL     OW43833   8.298  11.053   9.241  0.2432 -0.4429  0.1637
45999SOL    HW143834   8.327  11.138   9.274  1.6338 -0.4326 -0.9657
45999SOL    HW243835   8.230  11.025   9.302 -0.4126  1.5718  0.4346
46000SOL     OW43836  11.905   6.884   2.446 -0.0728  0.4225  0.2541
46000SOL    HW143837  11.886   6.853   2.535  2.7230 -0.6693  0.5591
46000SOL    HW243838  11.848   6.831   2.390  1.1443 -1.9886  1.1536
46001SOL     OW43839   7.128   4.123   2.005  0.1094  0.3357  0.1588
46001SOL    HW143840   7.210   4.077   2.023 -0.6930 -1.2181  0.0297
46001SOL    HW243841   7.089   4.138   2.091  0.5123  1.0685  0.2196
46002SOL     OW43842   8.112   2.781   8.700 -0.6004  0.3956 -0.0669
46002SOL    HW143843   8.198   2.793   8.741 -0.0994 -0.4547 -0.8486
46002SOL    HW243844   8.086   2.869   8.674 -0.0216  0.6775  0.2768
46003SOL     OW43845   5.530   7.098   1.376  0.7840  0.2632  0.6189
46003SOL    HW143846   5.508   7.121   1.286  1.3661 -2.8486 -0.4369
46003SOL    HW243847   5.447   7.073   1.415  0.6987  0.5140  0.6017
46004SOL     OW43848  10.948  11.438   5.116 -0.2054  0.0870  0.1923
46004SOL    HW143849  11.032  11.479   5.137 -0.4046  0.2393  0.7166
46004SOL    HW243850  10.882  11.503   5.143 -0.4802  0.3102 -0.9603
46005SOL     OW43851   7.652   3.867   1.884  0.0231 -0.2929  0.1756
46005SOL    HW143852   7.677   3.930   1.817 -0.8044  0.0971  0.2342
46005SOL    HW243853   7.736   3.838   1.921  0.3997  1.3698  0.7084
46006SOL     OW43854   9.799  11.758   8.991 -0.1810  0.1691 -0.0367
46006SOL    HW143855   9.762  11.844   8.975 -0.1936  0.2468  0.3898
46006SOL    HW243856   9.822  11.758   9.084 -4.1220 -1.7457  1.1574
46007SOL     OW43857   0.597  10.607   0.414  0.3452  0.1872 -0.0874
46007SOL    HW143858   0.611  10.690   0.369 -1.5308  0.6294  0.0615
46007SOL    HW243859   0.529  10.627   0.479 -1.2226 -1.7862 -1.0411
46008SOL     OW43860   7.189   5.464   3.446  0.1133 -0.5914 -0.1242
46008SOL    HW143861   7.237   5.467   3.363 -0.6086  1.1743 -0.5063
46008SOL    HW243862   7.185   5.554   3.476 -0.0149 -1.1436  1.6449
46009SOL     OW43863   2.567  10.764   8.577  0.0152  0.3638 -0.2293
46009SOL    HW143864   2.501  10.831   8.596  0.6627  1.1246 -0.6093
46009SOL    HW243865   2.639  10.812   8.536  0.3089 -0.6323 -0.9295
46010SOL     OW43866   1.786   0.058   8.026 -0.2594  0.1861 -0.0385
46010SOL    HW143867   1.805   0.150   8.009 -1.9435  0.9829  1.9609
46010SOL    HW243868   1.818   0.012   7.948 -0.3526  2.5570 -1.5815
46011SOL     OW43869   3.320   3.194   9.687  0.4109  0.3135 -0.0567
46011SOL    HW143870   3.292   3.218   9.775  1.2263  1.0989  0.0043
46011SOL    HW243871   3.410   3.164   9.699  0.2221 -0.4585 -0.5008
46012SOL     OW43872   1.732  10.324   4.269 -0.3062 -0.5548 -0.0984
46012SOL    HW143873   1.775  10.260   4.214 -0.2072 -0.8403  0.3065
46012SOL    HW243874   1.702  10.275   4.346  1.8791  0.2709  1.3732
46013SOL     OW43875   0.480   6.397  10.440 -0.0841  0.1222  0.1775
46013SOL    HW143876   0.412   6.464  10.444 -0.2312 -0.0256  0.1396
46013SOL    HW243877   0.523   6.411  10.355 -0.3337 -0.0443  0.0212
46014SOL     OW43878  12.208   8.111   2.194  0.5629 -0.0256 -0.3020
46014SOL    HW143879  12.118   8.084   2.214  0.6060  0.1119  0.0886
46014SOL    HW243880  12.234   8.055   2.120 -0.3070  0.8587 -1.2961
46015SOL     OW43881   3.778   6.388   8.128 -0.2054  0.0757  0.0360
46015SOL    HW143882   3.870   6.409   8.114  0.8060 -1.5571  3.2582
46015SOL    HW243883   3.770   6.295   8.105 -0.9332  0.0732  0.2561
46016SOL     OW43884   0.916   1.520   2.636  0.2691 -0.2615 -0.0215
46016SOL    HW143885   0.921   1.611   2.665  0.8498 -0.1457 -0.4533
46016SOL    HW243886   0.865   1.524   2.555  1.7929 -0.0499 -1.0174
46017SOL     OW43887   9.665  12.331   4.475  0.2080 -0.0116 -0.0522
46017SOL    HW143888   9.644  12.287   4.557  1.0585  0.5776  0.4860
46017SOL    HW243889   9.582  12.369   4.447  0.2183  1.1104  1.3462
46018SOL     OW43890   3.102   3.116   8.512 -0.4568 -0.0487  0.2996
46018SOL    HW143891   3.152   3.041   8.545 -0.6783 -0.0875  0.5577
46018SOL    HW243892   3.082   3.094   8.421  1.6658  0.8288 -0.4343
46019SOL     OW43893  12.131  10.968   3.389  0.3167  0.4142 -0.1161
46019SOL    HW143894  12.064  10.903   3.410  1.3197 -0.4572  0.5088
46019SOL    HW243895  12.092  11.051   3.414 -1.4757  0.2456 -2.0955
46020SOL     OW43896  11.095   1.385   7.837  0.1962 -0.4741  0.3847
46020SOL    HW143897  11.187   1.360   7.828  0.1563 -0.4378 -0.1435
46020SOL    HW243898  11.067   1.345   7.919  0.7182 -0.3773  0.6138
46021SOL     OW43899   8.206   0.060   4.639 -0.3553 -0.3767  0.3271
46021SOL    HW143900   8.153  -0.010   4.676  0.6643 -1.8040 -0.7882
46021SOL    HW243901   8.168   0.075   4.552  0.7286 -1.0852 -0.2913
46022SOL     OW43902   6.115   0.761   3.655 -0.5567  0.3262 -0.3377
46022SOL    HW143903   6.039   0.813   3.682 -0.6861 -0.2438  0.4411
46022SOL    HW243904   6.170   0.822   3.605 -0.8978  1.0912  0.2028
46023SOL     OW43905   7.913   0.393   2.540  0.5590 -0.1814  0.0807
46023SOL    HW143906   7.931   0.451   2.614  1.4432 -0.9105  0.4609
46023SOL    HW243907   7.982   0.413   2.476 -0.6338  0.9818 -0.9094
46024SOL     OW43908   6.475   5.764  10.915  0.2929  0.4657  0.3405
46024SOL    HW143909   6.480   5.851  10.874  0.6347  0.4626  0.3695
46024SOL    HW243910   6.417   5.776  10.990  0.9431  0.8487  0.7880
46025SOL     OW43911  11.620   6.357   5.048 -0.1881 -0.0016 -0.4134
46025SOL    HW143912  11.534   6.397   5.058 -0.3474 -0.7975  2.0011
46025SOL    HW243913  11.601   6.269   5.015 -0.3196 -0.2424  0.3011
46026SOL     OW43914   0.904   6.624   5.843  0.4266 -0.2644 -0.8572
46026SOL    HW143915   0.917   6.687   5.915  0.3686 -1.1647 -0.0455
46026SOL    HW243916   0.935   6.671   5.765 -0.1238  0.9714 -0.3591
46027SOL     OW43917   3.413   5.919   7.277 -0.6434  0.3782 -0.2086
46027SOL    HW143918   3.440   5.908   7.186  0.1444  1.1607 -0.0849
46027SOL    HW243919   3.371   6.005   7.279 -1.6301 -0.1044 -0.0494
46028SOL     OW43920   7.770   0.403  11.133 -0.0702 -0.4370 -0.3040
46028SOL    HW143921   7.749   0.347  11.058  2.6723  1.1200 -2.4226
46028SOL    HW243922   7.723   0.484  11.117  0.7004 -0.0175 -0.4956
46029SOL     OW43923   0.178  10.206   7.115  0.3385  0.3335 -0.0038
46029SOL    HW143924   0.185  10.153   7.035  0.7846  1.3519 -0.6534
46029SOL    HW243925   0.254  10.181   7.167  0.4963  0.2679 -0.2643
46030SOL     OW43926   5.918   8.790   5.507  0.1592  0.3463 -0.4991
46030SOL    HW143927   6.000   8.777   5.459 -1.2965  0.3187 -3.1875
46030SOL    HW243928   5.920   8.882   5.534  1.0650  0.3362 -0.4974
46031SOL     OW43929  10.425   3.578   3.710 -0.2200 -0.1010 -0.0989
46031SOL    HW143930  10.403   3.497   3.757  0.1440 -0.8450 -1.1728
46031SOL    HW243931  10.489   3.551   3.645  0.9769  1.3240  0.4322
46032SOL     OW43932   7.600  11.050   0.467 -0.0483  0.6755  0.6290
46032SOL    HW143933   7.580  11.143   0.456  0.7699  0.9634  1.4887
46032SOL    HW243934   7.579  11.032   0.559 -0.8195 -0.1504  0.3000
46033SOL     OW43935  11.875   9.213   5.840  0.0036  0.7263  0.3746
46033SOL    HW143936  11.795   9.231   5.888 -0.8241 -1.8992  0.1554
46033SOL    HW243937  11.935   9.283   5.865 -1.6009  1.4852  2.3413
46034SOL     OW43938   4.883  12.274   3.812 -0.3076 -0.1882 -0.1685
46034SOL    HW143939   4.876  12.285   3.907  1.5438 -1.4696  0.1784
46034SOL    HW243940   4.792  12.264   3.783 -0.9954  1.3371  1.2897
46035SOL     OW43941  11.763  10.302   8.171 -0.5199 -0.1450 -0.2379
46035SOL    HW143942  11.782  10.213   8.141 -0.6210 -0.0280 -0.6563
46035SOL    HW243943  11.667  10.305   8.175 -0.5148 -0.0663 -0.1718
46036SOL     OW43944   6.351   3.243   6.512  0.3743 -0.0380 -0.2266
46036SOL    HW143945   6.420   3.185   6.542  1.0233  1.1714  0.6970
46036SOL    HW243946   6.396   3.318   6.473 -0.4399  0.0028 -1.1479
46037SOL     OW43947  10.084   9.271   6.957 -0.1663 -0.0216 -0.0714
46037SOL    HW143948  10.061   9.291   7.048  1.4463  2.1674 -0.0594
46037SOL    HW243949  10.124   9.184   6.961  0.1883  0.1824  1.3760
46038SOL     OW43950   6.538   4.539   0.609  0.0671  0.0574  0.1478
46038SOL    HW143951   6.571   4.620   0.572  0.0998 -0.8194 -1.8878
46038SOL    HW243952   6.612   4.502   0.657  0.4189  0.6268  0.0484
46039SOL     OW43953   1.092   6.692   9.202 -0.3138  0.3866  0.1867
46039SOL    HW143954   1.063   6.779   9.229  0.5157  0.2703  1.5084
46039SOL    HW243955   1.187   6.698   9.198  0.0219 -1.1577  3.0745
46040SOL     OW43956  11.621  10.266   0.393 -0.1858 -0.5230  0.2773
46040SOL    HW143957  11.674  10.233   0.321 -0.5745 -1.0175  0.2112
46040SOL    HW243958  11.619  10.361   0.380 -0.4536 -0.6316 -0.4980
46041SOL     OW43959   8.944   7.251   4.231  1.0874  0.1997 -0.2080
46041SOL    HW143960   8.961   7.270   4.139  1.7074  0.8342  0.0245
46041SOL    HW243961   9.005   7.307   4.279  2.1458 -1.5025  0.5622
46042SOL     OW43962   1.283   6.858  11.589  0.7627  0.2844  0.2187
46042SOL    HW143963   1.308   6.769  11.564  1.6416  0.2635  1.1517
46042SOL    HW243964   1.252   6.898  11.507  0.1541 -0.9313 -0.1657
46043SOL     OW43965  10.008  11.088   0.637  0.0768 -0.0738 -0.1746
46043SOL    HW143966  10.075  11.126   0.580  1.8614 -1.5672  0.8179
46043SOL    HW243967  10.032  11.117   0.725 -0.3552 -0.9197  0.2330
46044SOL     OW43968   1.616  11.574   3.102 -0.4628  0.8004  0.2797
46044SOL    HW143969   1.572  11.496   3.137 -0.1928  0.0153 -1.0578
46044SOL    HW243970   1.559  11.605   3.032 -0.9509  2.2957  1.3005
46045SOL     OW43971   1.897   0.955   8.726 -0.5863  0.4438  0.0688
46045SOL    HW143972   1.930   0.868   8.745  0.0525  1.0013  1.6857
46045SOL    HW243973   1.802   0.948   8.734 -0.4331  0.3052  2.1751
46046SOL     OW43974  10.476   5.337  12.229 -0.0453 -0.4416  0.1378
46046SOL    HW143975  10.450   5.389  12.153 -0.4947  2.1788  1.9418
46046SOL    HW243976  10.570   5.353  12.239 -0.2218  0.2617  0.8093
46047SOL     OW43977   1.681   8.724   9.420  0.3358 -0.6619 -0.3259
46047SOL    HW143978   1.684   8.695   9.329 -1.1558 -0.2370 -0.5393
46047SOL    HW243979   1.596   8.692   9.452 -0.1731  1.1368  0.2180
46048SOL     OW43980  10.559   7.567   6.468  0.1569 -0.0593  0.5322
46048SOL    HW143981  10.589   7.622   6.396 -0.9031  0.9223  0.8224
46048SOL    HW243982  10.552   7.479   6.430  2.0341 -0.0761  0.1107
46049SOL     OW43983   7.447   1.061   4.887 -0.6175 -0.4519  0.4719
46049SOL    HW143984   7.462   1.152   4.909 -0.2268 -0.7313  1.4018
46049SOL    HW243985   7.371   1.062   4.829 -1.2790  0.3654  1.3305
46050SOL     OW43986   2.662   8.267   5.758 -0.3129 -0.2201  0.0318
46050SOL    HW143987   2.612   8.341   5.791  0.3443  0.1327  0.2458
46050SOL    HW243988   2.750   8.302   5.743  0.3896 -1.3018  1.4825
46051SOL     OW43989   2.865   9.571  10.899 -0.4317 -0.1785  0.0272
46051SOL    HW143990   2.809   9.643  10.927  1.3345  0.6153  1.7524
46051SOL    HW243991   2.883   9.589  10.807 -1.2963  0.6970  0.0202
46052SOL     OW43992  11.248   9.782   0.626  0.7497 -0.3270 -0.6404
46052SOL    HW143993  11.258   9.688   0.613  2.3815  0.0416 -2.6228
46052SOL    HW243994  11.194   9.811   0.552 -1.5724  0.0795  1.0835
46053SOL     OW43995   5.491   4.815   1.069 -0.4661 -0.0951  0.3051
46053SOL    HW143996   5.448   4.737   1.035  0.4490 -0.6483  0.3956
46053SOL    HW243997   5.527   4.788   1.153  0.3606  0.2535  0.0715
46054SOL     OW43998   6.573   5.498   3.198 -0.5848 -0.4991  0.1617
46054SOL    HW143999   6.607   5.414   3.166 -2.6030 -1.0634 -0.6712
46054SOL    HW244000   6.649   5.557   3.197 -0.0297 -0.9889 -3.9265
46055SOL     OW44001   9.073  11.849  10.715  0.0718  0.6945 -0.2350
46055SOL    HW144002   8.977  11.858  10.717  0.1872  1.8736  0.3647
46055SOL    HW244003   9.087  11.757  10.692 -1.2037  0.5404 -0.4887
46056SOL     OW44004  10.672   4.276   9.305  0.1258 -0.6445 -0.3400
46056SOL    HW144005  10.604   4.319   9.252  0.3472 -1.2066 -1.1110
46056SOL    HW244006  10.688   4.335   9.378 -1.5439 -0.7105  0.1202
46057SOL     OW44007   5.831  12.205  10.007 -0.3605 -0.1597  0.3105
46057SOL    HW144008   5.742  12.230   9.981 -0.1460 -0.0197 -0.3083
46057SOL    HW244009   5.853  12.133   9.949  0.1058  0.1164  0.1408
46058SOL     OW44010   3.360   1.928   0.533 -0.0275  0.4950  0.4419
46058SOL    HW144011   3.360   1.832   0.533  1.9854  0.4294 -0.3657
46058SOL    HW244012   3.339   1.953   0.623 -1.9466 -0.6446  0.3558
46059SOL     OW44013   8.063   9.270   8.985  0.1535  0.3383  0.1520
46059SOL    HW144014   8.104   9.249   8.901  0.7255  1.7868  0.0453
46059SOL    HW244015   7.983   9.217   8.987  1.0475 -1.1031 -0.4748
46060SOL     OW44016   0.774   6.800   0.054 -0.5485  0.3027  0.0909
46060SOL    HW144017   0.830   6.830  -0.017 -0.2854 -0.8426 -0.1980
46060SOL    HW244018   0.827   6.737   0.102 -0.5138  1.4833  1.6790
46061SOL     OW44019   7.763   7.705   9.199 -0.4394 -0.3742 -0.6015
46061SOL    HW144020   7.695   7.737   9.139 -1.5247 -1.3592  0.0789
46061SOL    HW244021   7.761   7.766   9.272 -0.8355 -0.6026 -0.4207
46062SOL     OW44022   6.049   2.322   9.816  0.1465  0.3529 -0.2983
46062SOL    HW144023   6.131   2.299   9.771 -0.4406  1.3083 -1.9729
46062SOL    HW244024   6.056   2.281   9.902  1.4892 -1.3049 -1.1353
46063SOL     OW44025   1.132   5.561   4.876 -0.7767 -0.0020 -0.0541
46063SOL    HW144026   1.222   5.578   4.847 -0.3389  0.6189  1.5694
46063SOL    HW244027   1.121   5.467   4.862 -0.0667  0.0004 -0.7493
46064SOL     OW44028  10.700   8.659   4.184  0.5735  0.3876  0.0491
46064SOL    HW144029  10.670   8.659   4.274  0.3152  1.0899 -0.0306
46064SOL    HW244030  10.621   8.674   4.132  0.9658  1.7450 -0.1900
46065SOL     OW44031   6.421   8.067   4.931  0.0573 -0.2348  0.1617
46065SOL    HW144032   6.464   8.051   5.015  0.4462 -1.6306 -0.2819
46065SOL    HW244033   6.441   8.158   4.910  0.0903  0.0818  1.4923
46066SOL     OW44034  11.364   8.859   1.696 -0.5022  0.3960 -0.3776
46066SOL    HW144035  11.389   8.945   1.731  0.9747 -0.1940  0.1163
46066SOL    HW244036  11.277   8.843   1.733 -0.4699  1.3477  0.1561
46067SOL     OW44037   1.912   1.277   9.014  0.2115  0.2082 -0.4933
46067SOL    HW144038   1.876   1.293   9.101  2.5222  1.2961  0.3420
46067SOL    HW244039   1.886   1.353   8.962  0.3631  0.4501 -0.2156
46068SOL     OW44040   0.897   8.703   0.598  0.0837 -0.2416 -0.1692
46068SOL    HW144041   0.822   8.678   0.653 -0.0166 -1.9678 -1.0019
46068SOL    HW244042   0.878   8.662   0.513  0.3520  2.1273 -1.4431
46069SOL     OW44043   5.436   7.385   3.132 -0.0762 -0.1011  0.0140
46069SOL    HW144044   5.383   7.347   3.202 -0.4405 -1.3062 -0.8827
46069SOL    HW244045   5.376   7.443   3.085 -0.0849 -0.0165  0.1293
46070SOL     OW44046   0.829   0.225   6.895 -0.2564 -0.0198 -0.4361
46070SOL    HW144047   0.904   0.223   6.954  0.4870 -0.4787 -1.3585
46070SOL    HW244048   0.848   0.296   6.834  0.0145 -0.8854 -1.3889
46071SOL     OW44049   7.575   3.558   7.523  0.1248  0.0435  0.5936
46071SOL    HW144050   7.606   3.528   7.438 -0.8152 -0.1205  0.2975
46071SOL    HW244051   7.650   3.546   7.581 -0.0011 -2.3330  0.3666
46072SOL     OW44052   8.003   3.728   1.789  0.2078  0.3431 -0.3727
46072SOL    HW144053   7.935   3.691   1.845  1.4503 -1.8083 -0.1508
46072SOL    HW244054   8.073   3.753   1.850  0.0568  1.5332 -0.6766
46073SOL     OW44055   3.797  11.037   6.491 -0.1145  0.2407 -0.3136
46073SOL    HW144056   3.881  10.994   6.477 -0.2723 -0.8192  1.5369
46073SOL    HW244057   3.795  11.110   6.429  1.1918 -1.0274 -1.9244
46074SOL     OW44058   9.500  11.934   8.555  1.0360 -0.0610  0.0411
46074SOL    HW144059   9.479  11.856   8.607 -1.2279 -0.5665 -1.4748
46074SOL    HW244060   9.512  12.003   8.620 -0.4335 -0.9288  1.3204
46075SOL     OW44061   5.759   7.647  11.930 -0.3249 -0.5571  0.5209
46075SOL    HW144062   5.712   7.564  11.924 -1.9578  0.3462  0.2406
46075SOL    HW244063   5.757   7.682  11.841  0.0325 -0.0519  0.7059
46076SOL     OW44064   3.885   7.482   6.927 -0.5842 -0.2036  0.2043
46076SOL    HW144065   3.918   7.393   6.927  2.0918  0.7080  0.7223
46076SOL    HW244066   3.856   7.497   7.017  0.0249 -0.1965  0.4024
46077SOL     OW44067   5.269   3.533   1.938  0.1766  0.7166 -0.2959
46077SOL    HW144068   5.311   3.581   2.010 -0.8473  2.4535 -0.7977
46077SOL    HW244069   5.311   3.567   1.859  0.8285 -0.7030 -0.5942
46078SOL     OW44070   1.294   3.193   7.755 -0.1435 -0.0709  0.0246
46078SOL    HW144071   1.350   3.163   7.827  2.2575  1.0839 -1.2358
46078SOL    HW244072   1.306   3.288   7.753 -0.3780 -0.0445 -1.7086
46079SOL     OW44073   3.147  10.545  11.235  0.7571 -0.1649  0.2056
46079SOL    HW144074   3.234  10.585  11.245  0.5687 -0.0038  1.3795
46079SOL    HW244075   3.099  10.605  11.178  0.6418  1.0576  1.5325
46080SOL     OW44076   1.936   0.289   7.981 -0.3299  0.2376 -0.6726
46080SOL    HW144077   1.914   0.354   8.047 -2.0832  1.8142 -2.6797
46080SOL    HW244078   1.930   0.335   7.898  0.1759 -2.0447 -2.0789
46081SOL     OW44079   8.704   6.638   7.041  0.0773 -0.8535  0.1000
46081SOL    HW144080   8.633   6.680   7.091  0.6683  2.0386 -1.2543
46081SOL    HW244081   8.659   6.583   6.977 -0.9235 -0.1403  0.1637
46082SOL     OW44082   3.238   7.341   3.171 -0.0262  0.2764  0.0672
46082SOL    HW144083   3.276   7.419   3.132 -1.1937  0.5846 -0.5004
46082SOL    HW244084   3.176   7.374   3.237  1.4374 -0.2224  1.7917
46083SOL     OW44085  11.650   7.309   7.400  0.1743 -0.3921  0.3491
46083SOL    HW144086  11.690   7.389   7.435 -1.1566  1.0317 -1.1713
46083SOL    HW244087  11.561   7.336   7.375 -0.4357 -2.4481  0.0990
46084SOL     OW44088   7.950   1.326   9.957  0.6619  0.0684 -0.9637
46084SOL    HW144089   7.861   1.354   9.978  0.9344  0.0786  0.2474
46084SOL    HW244090   7.947   1.230   9.961  0.4149 -0.0003 -2.2374
46085SOL     OW44091   7.627   8.051  11.456  0.3542  0.2603 -0.3388
46085SOL    HW144092   7.689   8.046  11.529 -1.2365  0.5383  1.1166
46085SOL    HW244093   7.566   8.121  11.481 -2.7738 -2.3961  0.2477
46086SOL     OW44094   9.079   3.089   9.285  0.0475  0.5208 -0.4885
46086SOL    HW144095   9.008   3.059   9.228 -0.7512 -0.5991  1.0277
46086SOL    HW244096   9.108   3.010   9.331  1.2780  1.2297 -0.0131
46087SOL     OW44097   9.834  11.778   1.986 -0.0678 -0.4064 -0.3526
46087SOL    HW144098   9.757  11.773   2.043 -0.5233  2.2462 -0.6094
46087SOL    HW244099   9.905  11.743   2.040 -0.9518 -0.3139  0.9216
46088SOL     OW44100   6.205   7.848   4.576 -0.0142  0.2541  0.6143
46088SOL    HW144101   6.131   7.909   4.572 -1.0221 -0.9419  0.3206
46088SOL    HW244102   6.182   7.788   4.647  0.1146 -0.8266 -0.2320
46089SOL     OW44103   9.047  11.816   8.158  0.4075 -0.3410  0.4744
46089SOL    HW144104   9.082  11.763   8.230 -2.8500 -1.2991  1.5739
46089SOL    HW244105   9.015  11.896   8.200  1.0078  0.3822 -0.4118
46090SOL     OW44106   1.338   2.628   6.950  0.1949 -0.2204 -0.3976
46090SOL    HW144107   1.268   2.563   6.955  1.2899 -1.4710 -0.7610
46090SOL    HW244108   1.345   2.648   6.857  0.1487  0.1274 -0.3304
46091SOL     OW44109  10.959   6.245   6.001 -0.0777 -0.0620  0.3520
46091SOL    HW144110  10.985   6.334   5.976 -0.6162  0.3049  1.0376
46091SOL    HW244111  11.039   6.194   5.997 -0.0781  0.0153 -1.8618
46092SOL     OW44112   6.366   9.894   9.883  0.1399 -0.7039 -0.9970
46092SOL    HW144113   6.389   9.982   9.854 -0.4500 -0.2446 -0.1261
46092SOL    HW244114   6.286   9.873   9.834 -0.1370 -0.4519 -0.6523
46093SOL     OW44115   8.354   6.865   0.697  0.1443 -0.0880 -0.3255
46093SOL    HW144116   8.399   6.941   0.658 -0.3206 -0.0418 -0.7873
46093SOL    HW244117   8.355   6.799   0.627  2.3488 -1.2829  0.7209
46094SOL     OW44118  10.970  10.164   2.059  0.1367  0.1146 -0.1374
46094SOL    HW144119  11.044  10.222   2.077 -0.2060  0.7142 -0.6334
46094SOL    HW244120  10.992  10.123   1.975 -0.0218  0.1714 -0.2063
46095SOL     OW44121   1.817   8.680   9.982 -0.5385 -0.6446  0.0874
46095SOL    HW144122   1.831   8.642  10.069 -1.4468 -0.7984  0.1844
46095SOL    HW244123   1.818   8.774   9.997  2.3110 -0.5442 -0.2490
46096SOL     OW44124   1.935   3.791   6.545 -0.1738 -0.9948 -0.1991
46096SOL    HW144125   2.015   3.784   6.597  0.0239 -0.2671 -0.4065
46096SOL    HW244126   1.952   3.862   6.483  0.1221 -2.7181 -2.2086
46097SOL     OW44127   1.646   5.227   4.424 -0.2043  0.3447 -0.0937
46097SOL    HW144128   1.565   5.185   4.453 -0.1842 -0.0883 -0.6392
46097SOL    HW244129   1.715   5.184   4.474 -0.3297  0.9073  0.5755
46098SOL     OW44130   4.047   5.871  12.330 -0.1114 -0.7063  0.2422
46098SOL    HW144131   4.007   5.788  12.356 -1.7616  0.3663  1.2915
46098SOL    HW244132   4.058   5.920  12.411  0.3590  0.3116 -0.4069
46099SOL     OW44133   3.070  11.374   4.436 -0.4518 -0.2790  0.0717
46099SOL    HW144134   3.014  11.403   4.364  0.7099  0.5747 -0.5246
46099SOL    HW244135   3.105  11.455   4.473  1.9773 -0.7999 -0.8950
46100SOL     OW44136   3.756   0.456   9.061 -0.4440 -0.0618 -0.3885
46100SOL    HW144137   3.756   0.531   9.002 -0.5082 -1.0874 -1.7636
46100SOL    HW244138   3.668   0.454   9.098 -0.5371  0.3782 -0.5827
46101SOL     OW44139   3.862  11.293   1.634  0.1665  0.4060 -0.2953
46101SOL    HW144140   3.920  11.223   1.665  1.8030  2.0946  0.6944
46101SOL    HW244141   3.805  11.312   1.709 -0.3532  0.0754 -0.6004
46102SOL     OW44142   5.657   6.459   5.388 -0.0584 -0.1637  0.0004
46102SOL    HW144143   5.728   6.517   5.360 -1.6837  1.5049 -0.8209
46102SOL    HW244144   5.702   6.388   5.435  2.0135  2.0597  1.6756
46103SOL     OW44145   5.516   0.485   2.098 -0.1026 -0.3299 -0.0843
46103SOL    HW144146   5.460   0.420   2.141  1.9544 -1.0570  1.6754
46103SOL    HW244147   5.467   0.567   2.104 -2.9646 -1.6285 -2.7185
46104SOL     OW44148  10.933   7.267   3.473  0.1256  0.3391  0.2429
46104SOL    HW144149  11.027   7.259   3.493 -0.1121 -1.2478  0.8807
46104SOL    HW244150  10.907   7.178   3.447 -1.1440  0.8283 -0.2113
46105SOL     OW44151   3.859   4.245   7.071 -0.0180 -0.5052 -0.1657
46105SOL    HW144152   3.781   4.204   7.032 -0.1957 -0.2066 -0.1232
46105SOL    HW244153   3.876   4.194   7.150 -1.1311  0.4381  0.6937
46106SOL     OW44154  10.871  10.389   7.107 -0.3030 -0.9002 -0.3069
46106SOL    HW144155  10.916  10.452   7.163 -0.4018 -1.0724 -0.0322
46106SOL    HW244156  10.928  10.312   7.107 -1.5140 -1.8790  1.6597
46107SOL     OW44157   4.617   8.687   4.784 -0.1333  0.2655 -0.4991
46107SOL    HW144158   4.639   8.780   4.791 -1.2864  0.4460  2.2587
46107SOL    HW244159   4.523   8.685   4.768 -0.5277 -0.3353  1.5416
46108SOL     OW44160   9.470   0.312   0.795 -0.0625 -0.3791  0.2062
46108SOL    HW144161   9.462   0.227   0.751  3.2651 -1.3165  1.0715
46108SOL    HW244162   9.485   0.374   0.724  0.6495 -1.0856 -0.2859
46109SOL     OW44163   0.204   8.907   8.430  0.3111  0.8201 -0.3401
46109SOL    HW144164   0.215   8.861   8.347 -0.7998 -0.8016  0.3695
46109SOL    HW244165   0.266   8.980   8.425  0.1602  0.8560 -2.6367
46110SOL     OW44166  11.631   4.249   3.731  0.0284 -0.1828  0.6946
46110SOL    HW144167  11.680   4.302   3.794  0.0870  1.8930 -0.9730
46110SOL    HW244168  11.673   4.268   3.647 -1.8073 -0.6181 -0.3758
46111SOL     OW44169   0.764   6.489   5.014 -0.0969  0.2105 -0.5167
46111SOL    HW144170   0.714   6.491   4.932 -0.4208 -0.5891 -0.3463
46111SOL    HW244171   0.806   6.403   5.015  0.8793  0.6849 -0.4123
46112SOL     OW44172   9.815   5.062   6.537 -0.4947 -1.0158 -1.0738
46112SOL    HW144173   9.879   5.083   6.469  0.8763 -3.2989 -0.5968
46112SOL    HW244174   9.732   5.055   6.490  0.4051 -2.5030 -2.5824
46113SOL     OW44175   0.613   1.526   1.102  0.9873 -0.0134 -0.1274
46113SOL    HW144176   0.649   1.485   1.181  0.8134  1.5728  0.8214
46113SOL    HW244177   0.527   1.557   1.129  0.3627 -0.6069 -1.3540
46114SOL     OW44178   8.504   6.425   9.098  0.2019  0.2536 -0.2527
46114SOL    HW144179   8.532   6.445   9.187  1.9991 -0.2665 -0.6569
46114SOL    HW244180   8.427   6.369   9.109 -0.0804  0.8530  0.9510
46115SOL     OW44181   4.608   5.419   8.479  0.1245 -0.4171 -0.0268
46115SOL    HW144182   4.697   5.389   8.492  0.2287 -0.0830  0.0545
46115SOL    HW244183   4.608   5.509   8.513  0.6854  0.9277 -3.2399
46116SOL     OW44184   7.023   7.693   7.196 -0.3749  0.1044  1.1673
46116SOL    HW144185   7.114   7.700   7.225 -0.1850  1.0050  0.4170
46116SOL    HW244186   7.017   7.754   7.123 -1.1498 -1.1993  0.0999
46117SOL     OW44187   9.782   2.155   6.846 -0.7967  0.3457 -0.1388
46117SOL    HW144188   9.779   2.199   6.761  2.6216  0.4677 -0.3315
46117SOL    HW244189   9.796   2.063   6.825  0.8191  0.4787  0.2252
46118SOL     OW44190  10.773   1.479   8.165 -0.2038 -0.1088  0.1418
46118SOL    HW144191  10.708   1.434   8.218 -1.1837  0.5363 -0.4822
46118SOL    HW244192  10.726   1.552   8.125  1.0523  0.7697  0.1825
46119SOL     OW44193   2.082   7.723  12.266 -0.3528 -0.4950 -0.1521
46119SOL    HW144194   2.016   7.722  12.196  0.2195  0.5194 -0.7368
46119SOL    HW244195   2.072   7.809  12.306  0.9842 -0.1050 -0.6259
46120SOL     OW44196   2.480   9.225   2.790 -0.1243  0.3556  0.7606
46120SOL    HW144197   2.448   9.188   2.708 -2.1483  0.1726  1.5768
46120SOL    HW244198   2.568   9.257   2.769 -0.0637 -0.8778 -1.1137
46121SOL     OW44199   6.830   7.892   7.878  0.1718  0.1085 -0.2110
46121SOL    HW144200   6.796   7.804   7.894 -0.8791  0.5366  0.0128
46121SOL    HW244201   6.898   7.904   7.943 -0.9368  0.1301  0.9833
46122SOL     OW44202   4.657   1.841   3.058  0.2666  0.4400  0.1759
46122SOL    HW144203   4.707   1.789   2.996  0.7375  1.9484 -0.7595
46122SOL    HW244204   4.721   1.872   3.122  0.0073  0.0085  0.6594
46123SOL     OW44205  12.256   1.431   6.620  0.2802  0.4639  0.2429
46123SOL    HW144206  12.217   1.354   6.579  1.2226  0.0116  0.1833
46123SOL    HW244207  12.328   1.397   6.673  0.2746  1.2377  0.7588
46124SOL     OW44208   4.306   1.251   6.772  0.4323  0.2108 -0.2580
46124SOL    HW144209   4.235   1.275   6.712  0.0808  0.5837  0.2928
46124SOL    HW244210   4.329   1.334   6.815 -2.5269 -0.7030  3.5630
46125SOL     OW44211  10.150  10.682   1.311 -0.0119  0.0481  0.3934
46125SOL    HW144212  10.114  10.709   1.396 -1.4250 -0.0221 -0.1486
46125SOL    HW244213  10.077  10.692   1.250  1.5460  2.2735 -1.2901
46126SOL     OW44214   9.564   8.309  12.058 -0.2548  0.0038  0.3659
46126SOL    HW144215   9.503   8.326  11.987  0.1921  0.3393  0.0528
46126SOL    HW244216   9.609   8.392  12.072 -1.3882  0.3712  2.0833
46127SOL     OW44217   9.854   5.621   0.901 -0.1010 -0.3997 -0.7994
46127SOL    HW144218   9.813   5.679   0.836 -2.2340 -1.8279 -0.8392
46127SOL    HW244219   9.828   5.533   0.874  1.8968 -1.3151  0.0460
46128SOL     OW44220   0.439   6.350   7.720  0.4889  0.0724  0.2437
46128SOL    HW144221   0.438   6.320   7.811 -0.9874 -1.4868 -0.2216
46128SOL    HW244222   0.516   6.406   7.714  2.1785 -1.8848  1.8156
46129SOL     OW44223  10.096  12.085   4.054 -0.1664  0.0593  0.0565
46129SOL    HW144224  10.162  12.063   3.988  0.0085  0.7488 -0.0059
46129SOL    HW244225  10.046  12.004   4.066  0.3578 -0.3205 -0.2794
46130SOL     OW44226   4.386   4.467   0.627 -0.1169 -0.2059  0.3382
46130SOL    HW144227   4.406   4.516   0.547  1.9634 -0.2231  0.7806
46130SOL    HW244228   4.317   4.518   0.670  0.5441  1.2240 -0.2230
46131SOL     OW44229   2.000  11.010   3.996  0.3966 -0.0477 -0.1467
46131SOL    HW144230   1.942  11.086   3.986 -0.3608 -0.6006 -0.0470
46131SOL    HW244231   2.088  11.048   4.004 -0.0255  0.8567  0.4575
46132SOL     OW44232   1.724   5.758   2.603 -0.5052 -0.4603  0.2576
46132SOL    HW144233   1.762   5.733   2.687 -0.5395  1.2484  0.8196
46132SOL    HW244234   1.797   5.794   2.552 -0.6760 -0.5457 -0.0538
46133SOL     OW44235  10.358   5.071   1.865 -0.5218  0.2694  0.2815
46133SOL    HW144236  10.352   5.151   1.916 -0.4526  1.1688 -1.0684
46133SOL    HW244237  10.272   5.060   1.825 -0.9656 -1.1052  1.5372
46134SOL     OW44238  11.052  10.764   6.509  0.2374 -0.2896  0.1491
46134SOL    HW144239  11.141  10.764   6.544 -0.1645  0.4062  1.2048
46134SOL    HW244240  11.056  10.825   6.435  0.1805  1.4261  1.4873
46135SOL     OW44241   7.640   9.632   0.100 -0.0746 -0.2699 -0.3693
46135SOL    HW144242   7.710   9.696   0.083  1.5751 -1.6342  0.9671
46135SOL    HW244243   7.606   9.656   0.186  0.5422 -1.1445  0.1325
46136SOL     OW44244   9.830   0.582   9.374  0.8309 -0.3829  0.5013
46136SOL    HW144245   9.886   0.659   9.376 -0.9789  0.9970  1.0503
46136SOL    HW244246   9.759   0.602   9.436 -1.3910 -1.1071 -1.6120
46137SOL     OW44247   8.709   0.910   4.788 -0.1521  0.2841 -0.3803
46137SOL    HW144248   8.695   0.999   4.757 -1.7143 -0.0425 -0.7163
46137SOL    HW244249   8.670   0.909   4.876  0.3932  0.0746 -0.1316
46138SOL     OW44250   3.365   2.459   8.130 -0.0945  0.2481 -0.3875
46138SOL    HW144251   3.390   2.367   8.123 -0.6719  0.2030 -2.3152
46138SOL    HW244252   3.359   2.475   8.225 -0.2818 -1.7678 -0.0234
46139SOL     OW44253  11.802   0.678   1.745  0.0759  0.0737 -0.3882
46139SOL    HW144254  11.832   0.759   1.703  0.9214  0.2202  0.4828
46139SOL    HW244255  11.806   0.696   1.839  0.2792 -0.9865 -0.1845
46140SOL     OW44256   2.156   6.577   0.259  0.0060  0.5640 -0.1059
46140SOL    HW144257   2.086   6.523   0.222 -0.8743  0.9679  0.9165
46140SOL    HW244258   2.187   6.630   0.185  1.3814 -1.7778 -1.3106
46141SOL     OW44259   2.883   4.415   5.561 -0.0087 -0.2895 -0.0189
46141SOL    HW144260   2.815   4.464   5.608  1.0945  1.0289  0.2438
46141SOL    HW244261   2.964   4.461   5.582  0.6754 -0.4185 -2.2206
46142SOL     OW44262  10.197   7.002   4.778 -0.7006 -0.6783  0.4365
46142SOL    HW144263  10.242   7.037   4.855 -1.1504 -0.7296  0.7300
46142SOL    HW244264  10.161   7.078   4.734 -0.7626 -0.6784  0.4863
46143SOL     OW44265   0.268   7.431   6.839  0.2687  0.2538  0.4330
46143SOL    HW144266   0.314   7.351   6.862  0.5245  0.5379  0.9299
46143SOL    HW244267   0.286   7.491   6.912 -1.7210  0.0445  1.1522
46144SOL     OW44268   7.511   4.496   1.523 -0.1376  0.1486 -0.2292
46144SOL    HW144269   7.446   4.515   1.456 -1.7992 -3.5652  0.0518
46144SOL    HW244270   7.595   4.518   1.483 -1.0473 -1.8736 -3.6412
46145SOL     OW44271   4.557   9.902   7.878 -0.0741  0.1075 -0.0713
46145SOL    HW144272   4.519   9.985   7.849  0.4847  0.9087  1.3468
46145SOL    HW244273   4.631   9.928   7.933 -0.9335 -1.2571  1.8716
46146SOL     OW44274   3.650   3.928   6.530 -0.0279  0.0390  0.5202
46146SOL    HW144275   3.583   3.973   6.583  0.9905  0.3479  1.5956
46146SOL    HW244276   3.703   3.999   6.493  0.5019 -0.2233  0.7599
46147SOL     OW44277   0.864   7.312   5.412 -0.5120  0.3415 -0.1134
46147SOL    HW144278   0.840   7.378   5.477  0.7768  1.3041 -0.5728
46147SOL    HW244279   0.818   7.338   5.333  0.4482  1.0493 -0.4539
46148SOL     OW44280   5.813   5.864   9.280  0.4415  0.3234 -0.2766
46148SOL    HW144281   5.875   5.804   9.238  0.7844  1.9980 -2.2907
46148SOL    HW244282   5.867   5.934   9.315  0.0924 -0.6629  2.5163
46149SOL     OW44283   2.204   9.770   9.362 -0.4972 -0.2812 -0.0288
46149SOL    HW144284   2.113   9.750   9.385 -0.2068 -0.6735  0.7970
46149SOL    HW244285   2.250   9.773   9.445  0.0090  1.2068 -0.3221
46150SOL     OW44286   6.092  11.042   6.350  0.2539 -0.3755 -0.4461
46150SOL    HW144287   6.165  10.979   6.347 -1.0332 -1.9098 -3.0445
46150SOL    HW244288   6.050  11.025   6.434  0.5996 -2.3131 -0.6057
46151SOL     OW44289   8.028   9.904   2.489 -0.2052 -0.3487  0.0331
46151SOL    HW144290   8.106   9.955   2.512  0.4339 -0.0540 -2.3990
46151SOL    HW244291   8.009   9.851   2.566  1.4741  0.7197  1.2400
46152SOL     OW44292   2.722   6.871   2.887 -0.1640  0.0788  0.4527
46152SOL    HW144293   2.724   6.962   2.856  0.2324 -0.5153 -1.4048
46152SOL    HW244294   2.758   6.875   2.975 -1.1405  1.8647  0.8203
46153SOL     OW44295   8.160   8.382   4.845  0.1848 -0.5303 -0.3572
46153SOL    HW144296   8.155   8.433   4.926  1.4921  0.3607 -0.8055
46153SOL    HW244297   8.167   8.291   4.874  0.3869 -0.2391  0.5267
46154SOL     OW44298   9.000  11.780  10.305  0.5749  0.6656 -0.1381
46154SOL    HW144299   9.009  11.769  10.210 -1.0068  1.2149 -0.3891
46154SOL    HW244300   8.981  11.873  10.316  0.8158  0.6130  0.7320
46155SOL     OW44301   6.892  11.235   4.835 -0.7568  0.0238  0.0641
46155SOL    HW144302   6.959  11.233   4.904 -0.8374  0.6505  0.1645
46155SOL    HW244303   6.811  11.256   4.881 -0.9212 -0.1776 -0.1353
46156SOL     OW44304   9.231  10.219   7.877 -0.3784 -0.2333 -0.2504
46156SOL    HW144305   9.210  10.312   7.881 -1.6725 -0.5462  1.0748
46156SOL    HW244306   9.240  10.192   7.968 -0.4862 -1.5096 -0.5912
46157SOL     OW44307   7.593  10.885   6.273 -0.4329 -0.2622  0.5113
46157SOL    HW144308   7.577  10.964   6.325 -0.6881 -0.6855  1.0855
46157SOL    HW244309   7.637  10.825   6.334 -1.0663 -0.9009  0.3564
46158SOL     OW44310   4.058   1.991   3.097  0.2651 -0.2545  0.2822
46158SOL    HW144311   4.029   2.038   3.175 -0.7292 -0.2425 -0.0714
46158SOL    HW244312   4.002   2.025   3.027  0.9927 -0.4245 -0.3878
46159SOL     OW44313   1.228   3.486  10.699  0.1652  0.2467 -0.6151
46159SOL    HW144314   1.195   3.484  10.609 -0.6972 -1.5929 -0.2931
46159SOL    HW244315   1.274   3.402  10.709  0.7867  0.7046  0.4796
46160SOL     OW44316  12.050  12.167   7.640 -0.0182 -0.0482  0.3977
46160SOL    HW144317  11.970  12.207   7.607 -0.5435 -0.8044  0.7336
46160SOL    HW244318  12.074  12.221   7.716 -1.0675 -0.7033  1.2301
46161SOL     OW44319   7.713   4.677   0.623 -0.0533  0.2934 -0.3171
46161SOL    HW144320   7.790   4.732   0.637 -0.2427  0.3503  0.5085
46161SOL    HW244321   7.725   4.642   0.535  0.4734  1.0092 -0.5405
46162SOL     OW44322   3.037  10.753   4.089  0.1120 -0.0239  0.0723
46162SOL    HW144323   3.098  10.708   4.146  0.8961 -0.4977 -1.1002
46162SOL    HW244324   3.075  10.840   4.077  1.1512 -0.6629 -1.4998
46163SOL     OW44325   8.417   0.968  10.363 -0.2844 -0.0803 -0.1921
46163SOL    HW144326   8.466   1.016  10.296 -0.1724  1.1677  0.7467
46163SOL    HW244327   8.475   0.966  10.439 -0.9541 -0.2170  0.3284
46164SOL     OW44328   6.765  11.464   4.494 -0.1692  0.0714 -0.2190
46164SOL    HW144329   6.846  11.489   4.449  1.0676 -0.7681  1.4215
46164SOL    HW244330   6.755  11.371   4.476  0.8382 -0.5036  1.8193
46165SOL     OW44331   5.733   6.641   8.512  0.3277  0.5748 -0.1798
46165SOL    HW144332   5.784   6.720   8.528  1.2473 -0.1003  0.3131
46165SOL    HW244333   5.755   6.583   8.585 -0.4900 -0.0697 -0.4229
46166SOL     OW44334   2.483   7.341   0.529  0.1754  0.5314  0.8165
46166SOL    HW144335   2.400   7.303   0.500  1.3083 -0.6180 -1.1350
46166SOL    HW244336   2.477   7.433   0.503 -0.2279  0.2979  0.0368
46167SOL     OW44337   6.693   8.296   5.517 -0.2813  0.6871  0.1441
46167SOL    HW144338   6.779   8.303   5.559 -0.5036  0.4272  0.6442
46167SOL    HW244339   6.643   8.370   5.552 -0.6243  0.1903  0.7134
46168SOL     OW44340   0.196   5.792   5.829 -0.7541  0.2128  0.3680
46168SOL    HW144341   0.111   5.819   5.865 -1.3804 -2.3340  1.0162
46168SOL    HW244342   0.257   5.801   5.903 -0.3556  2.1816 -0.1365
46169SOL     OW44343   6.736   1.214   1.268  0.2919  0.1073  0.0833
46169SOL    HW144344   6.740   1.123   1.299  1.9248  0.1249 -0.0101
46169SOL    HW244345   6.643   1.236   1.272 -0.5277 -2.4058 -2.3524
46170SOL     OW44346   9.160   9.565  10.441 -0.2179 -0.1500  0.3168
46170SOL    HW144347   9.106   9.545  10.517  3.2185 -2.9259  2.3210
46170SOL    HW244348   9.181   9.480  10.403  2.1487  0.7964 -0.6914
46171SOL     OW44349   4.959   5.507   0.616 -0.1970  0.3949  0.4589
46171SOL    HW144350   4.972   5.540   0.527  2.0987  0.3205  0.6833
46171SOL    HW244351   4.970   5.412   0.608  3.2479  0.5837  1.1456
46172SOL     OW44352   9.274  10.141   3.847  0.0994  0.2583  0.0584
46172SOL    HW144353   9.204  10.078   3.865  1.5033 -0.8454  2.0990
46172SOL    HW244354   9.231  10.227   3.851 -1.3999 -0.4473 -0.2768
46173SOL     OW44355   3.261   8.181   5.656  0.1220  0.2298 -0.0915
46173SOL    HW144356   3.238   8.165   5.564  0.8957  1.0224 -0.4379
46173SOL    HW244357   3.332   8.244   5.652 -0.9595  1.5784  1.1217
46174SOL     OW44358  10.785   9.276   1.080 -0.1976  0.4650 -0.6169
46174SOL    HW144359  10.790   9.260   0.986 -0.1591  0.9489 -0.6957
46174SOL    HW244360  10.830   9.201   1.119 -0.5875  0.0449 -0.9635
46175SOL     OW44361  12.041   5.737   3.644  0.2943  0.2895 -0.2784
46175SOL    HW144362  11.955   5.774   3.666  1.3280  2.8394 -0.1521
46175SOL    HW244363  12.098   5.765   3.715  1.8721  1.3424 -1.8766
46176SOL     OW44364   7.694  10.210  11.556  0.9093 -0.3706  0.5085
46176SOL    HW144365   7.732  10.238  11.473  0.5701 -1.8242 -0.1686
46176SOL    HW244366   7.658  10.290  11.595  0.8136  0.2834 -0.8862
46177SOL     OW44367   4.417   2.864   5.259  0.0380  0.1415 -0.1188
46177SOL    HW144368   4.336   2.824   5.226 -0.7659  0.6720  1.1076
46177SOL    HW244369   4.437   2.933   5.195 -0.6506  0.1967 -0.2852
46178SOL     OW44370   0.799   4.898   6.603 -0.5288 -0.1209 -0.1560
46178SOL    HW144371   0.887   4.860   6.598 -0.1727  0.6830 -0.2330
46178SOL    HW244372   0.789   4.922   6.695 -1.7218 -2.5887  0.4212
46179SOL     OW44373   9.221   2.993   1.447  0.3523  0.3238  0.0239
46179SOL    HW144374   9.147   3.048   1.472  0.9720  1.7572 -1.1344
46179SOL    HW244375   9.298   3.038   1.481  0.8257 -0.2172 -0.3103
46180SOL     OW44376   7.440   0.963  11.385  0.5022 -0.2734  0.3248
46180SOL    HW144377   7.434   0.960  11.289 -0.9304 -1.4312  0.4098
46180SOL    HW244378   7.382   1.036  11.410  1.2806  0.3669  0.3069
46181SOL     OW44379   9.810   6.011   9.118  0.5831  0.4742  0.0840
46181SOL    HW144380   9.880   5.952   9.093  2.5118  2.2890  0.8951
46181SOL    HW244381   9.783   5.982   9.205  2.3816  1.4706  1.0127
46182SOL     OW44382   2.787   6.374  10.933 -0.7062  0.3313  0.2557
46182SOL    HW144383   2.695   6.375  10.958 -0.6280  1.7991  0.5474
46182SOL    HW244384   2.822   6.294  10.973 -2.0291 -0.7159 -0.6067
46183SOL     OW44385   2.246   4.512  10.140 -0.1640 -0.0526  0.4102
46183SOL    HW144386   2.252   4.577  10.070  1.4038 -0.2785  0.3015
46183SOL    HW244387   2.302   4.440  10.111 -2.1656 -1.6751  0.3375
46184SOL     OW44388   5.017  11.977   7.096 -0.2198 -0.0750 -0.5001
46184SOL    HW144389   5.059  11.891   7.091 -2.8275 -1.4821  0.0815
46184SOL    HW244390   5.031  12.016   7.009  3.0099  0.0305 -0.0625
46185SOL     OW44391   6.152   6.668   2.960  0.4102 -0.4421  0.1579
46185SOL    HW144392   6.221   6.710   3.011  0.2442  1.1253 -0.8318
46185SOL    HW244393   6.077   6.727   2.970  0.4600  0.0814 -2.0939
46186SOL     OW44394   3.099   9.454   3.601  0.1566  0.5209 -0.3915
46186SOL    HW144395   3.160   9.381   3.604  0.1017  0.3803 -1.8246
46186SOL    HW244396   3.155   9.532   3.605  0.2708  0.4029  0.3739
46187SOL     OW44397  11.315   2.306   6.230  0.6901 -0.3198 -0.5311
46187SOL    HW144398  11.272   2.221   6.218 -0.0993 -0.0432  0.2017
46187SOL    HW244399  11.398   2.298   6.184  0.5097 -1.4024 -0.6941
46188SOL     OW44400   6.208  11.965   1.664  0.0144  0.6026 -0.4251
46188SOL    HW144401   6.176  12.012   1.742 -0.5816 -1.0370  0.3498
46188SOL    HW244402   6.231  12.035   1.603  1.2362  1.9748  1.4893
46189SOL     OW44403   2.177  11.781   7.445 -0.3020  0.5992  0.2917
46189SOL    HW144404   2.155  11.850   7.507  0.5737 -0.0245  1.3209
46189SOL    HW244405   2.272  11.771   7.453 -0.3427 -0.3481 -0.2379
46190SOL     OW44406  10.991   6.128   1.404 -0.3835 -0.2245 -0.1509
46190SOL    HW144407  10.994   6.059   1.337 -0.2705 -0.7261  0.3596
46190SOL    HW244408  11.014   6.083   1.485  0.9332  0.6678 -0.0073
46191SOL     OW44409   4.280   8.052  11.420 -0.0389  0.4623  0.1198
46191SOL    HW144410   4.221   8.123  11.444  1.2482  1.4536  0.4609
46191SOL    HW244411   4.344   8.093  11.362 -0.8827 -1.0492 -2.0314
46192SOL     OW44412   5.870   3.662   1.530  0.4820 -0.1780  0.2336
46192SOL    HW144413   5.892   3.750   1.560  0.6604 -0.0348 -0.3202
46192SOL    HW244414   5.804   3.631   1.593 -0.7862  0.9547 -0.4998
46193SOL     OW44415   6.592   2.200   4.573  0.1066  0.2176 -0.4437
46193SOL    HW144416   6.631   2.182   4.488 -1.5090 -0.2906 -1.1058
46193SOL    HW244417   6.543   2.120   4.594 -0.2996  0.7059  0.5204
46194SOL     OW44418   9.249   7.726  11.681 -0.4085 -0.1708 -0.4909
46194SOL    HW144419   9.175   7.785  11.693  0.8254  1.4701 -0.5538
46194SOL    HW244420   9.224   7.672  11.606 -0.5377  2.0783 -2.1710
46195SOL     OW44421  11.791   2.133   3.446  0.4174 -0.2774 -0.6532
46195SOL    HW144422  11.768   2.223   3.422  2.5239  0.3537 -0.5103
46195SOL    HW244423  11.820   2.094   3.363 -0.7102 -0.9493 -0.7627
46196SOL     OW44424   3.600   2.786   8.732  0.5531 -0.5552  0.3352
46196SOL    HW144425   3.685   2.793   8.777  1.2986 -1.9152 -0.7929
46196SOL    HW244426   3.621   2.794   8.639 -0.7547  0.4909  0.1026
46197SOL     OW44427   7.968   9.825   8.292 -0.5706 -0.0363  0.1170
46197SOL    HW144428   7.947   9.735   8.268 -1.2514  0.8205 -3.0748
46197SOL    HW244429   7.887   9.859   8.329 -1.9246  0.4253 -2.9210
46198SOL     OW44430   3.646   8.209   4.007 -0.5352  0.4818  0.2129
46198SOL    HW144431   3.551   8.219   4.006 -0.7251 -0.9550  0.9861
46198SOL    HW244432   3.660   8.121   4.041  1.0462  0.1298 -1.2593
46199SOL     OW44433  10.410   5.085   1.410  0.4820  0.1182  0.1305
46199SOL    HW144434  10.324   5.049   1.431  1.1308 -1.2465  0.5519
46199SOL    HW244435  10.402   5.115   1.320 -0.9696  1.7467  0.7288
46200SOL     OW44436  10.262   6.502  10.712  0.3167 -0.5211 -0.4042
46200SOL    HW144437  10.179   6.543  10.690  0.6336 -0.5428 -1.7256
46200SOL    HW244438  10.239   6.433  10.774 -0.5318  0.0263 -0.0929
46201SOL     OW44439   6.364   4.346   7.804  0.6761 -0.1144  0.1969
46201SOL    HW144440   6.316   4.328   7.885  0.9537  0.6101  0.5298
46201SOL    HW244441   6.299   4.334   7.735  0.6576 -1.6238  0.4375
46202SOL     OW44442  10.632   2.546   1.354 -0.3471 -0.1021 -0.3197
46202SOL    HW144443  10.696   2.475   1.350 -0.2313  0.0280 -0.8922
46202SOL    HW244444  10.646   2.585   1.440  0.4039 -0.0254 -0.4661
46203SOL     OW44445  10.144   1.370   8.846 -0.9933  0.0992 -0.4832
46203SOL    HW144446  10.220   1.384   8.903 -1.6450  1.7725  0.0276
46203SOL    HW244447  10.074   1.346   8.905 -0.9914 -1.0037 -0.9102
46204SOL     OW44448   9.292   4.281   8.865 -0.1829  0.0737 -0.0639
46204SOL    HW144449   9.251   4.195   8.872 -0.1360  0.0730  0.2130
46204SOL    HW244450   9.370   4.267   8.811 -0.5312  0.0714 -0.5738
46205SOL     OW44451   6.384   6.792  10.571 -0.1896 -0.0451 -0.1997
46205SOL    HW144452   6.473   6.823  10.555 -0.2570  1.0520  1.3835
46205SOL    HW244453   6.335   6.819  10.493 -0.0041  3.0029  0.6225
46206SOL     OW44454   2.875   8.331   2.513  0.6435 -0.0453 -0.7995
46206SOL    HW144455   2.961   8.290   2.522  0.3408 -0.4665  0.3786
46206SOL    HW244456   2.853   8.359   2.601 -0.8212 -0.7426 -0.9180
46207SOL     OW44457  10.053   0.890   5.770 -0.2338 -0.1478 -0.2543
46207SOL    HW144458  10.049   0.807   5.722  0.6045  0.2425 -1.0223
46207SOL    HW244459  10.057   0.957   5.702  0.0913  0.4722  0.3657
46208SOL     OW44460   2.455   8.853   5.018  0.0717 -0.3978 -0.0998
46208SOL    HW144461   2.387   8.796   5.052  1.0016 -0.7843  1.2182
46208SOL    HW244462   2.448   8.933   5.070 -0.1136  0.0245 -0.7561
46209SOL     OW44463   7.935  11.187   0.349  0.8588 -0.2057 -0.1535
46209SOL    HW144464   7.969  11.221   0.267  0.8377 -2.1938 -1.0536
46209SOL    HW244465   7.899  11.101   0.326  1.7476 -1.2611  2.1078
46210SOL     OW44466   3.883   6.964   9.638 -0.2370 -0.1631  0.3927
46210SOL    HW144467   3.790   6.970   9.618 -0.2405  0.8504  0.6522
46210SOL    HW244468   3.925   7.019   9.571  0.4556 -2.6685 -1.3752
46211SOL     OW44469   0.603   5.562   7.886 -0.6346  0.4438  0.1913
46211SOL    HW144470   0.517   5.573   7.929 -0.5138  0.5383  0.4147
46211SOL    HW244471   0.657   5.522   7.953 -1.0402 -1.4897 -0.5902
46212SOL     OW44472   7.580   3.614   1.101  0.0261 -0.3878  0.4864
46212SOL    HW144473   7.645   3.621   1.170  1.5868 -0.1423 -0.9575
46212SOL    HW244474   7.566   3.520   1.089  3.0345 -0.6861 -1.7381
46213SOL     OW44475  10.950   3.707   1.013  0.4131 -0.3793 -0.0520
46213SOL    HW144476  11.026   3.710   1.071 -0.5370  0.3270  1.1950
46213SOL    HW244477  10.929   3.799   0.996  0.7341 -0.5642 -1.6424
46214SOL     OW44478   0.924   1.287   8.304  0.3113 -0.2790  0.4309
46214SOL    HW144479   0.936   1.282   8.209  0.4533  0.0110  0.4324
46214SOL    HW244480   0.990   1.350   8.333 -0.3511  0.3393  0.6049
46215SOL     OW44481   9.337   8.760   8.289 -0.3061 -0.4998 -0.2507
46215SOL    HW144482   9.282   8.686   8.262  1.3362 -1.1169 -2.1321
46215SOL    HW244483   9.299   8.836   8.244 -2.0265 -0.1035  1.7261
46216SOL     OW44484   4.442   7.118   3.973  0.4243  0.0513 -0.5122
46216SOL    HW144485   4.504   7.172   4.022 -0.4276  0.3109  0.3171
46216SOL    HW244486   4.392   7.072   4.040 -1.4801  1.2021 -1.0737
46217SOL     OW44487   4.578   1.974   8.486 -0.2313  0.6126  0.0655
46217SOL    HW144488   4.648   2.008   8.542 -0.1919 -0.4525  0.7052
46217SOL    HW244489   4.537   1.905   8.539  0.9144 -1.6742 -1.8174
46218SOL     OW44490   5.301   4.588   0.978  0.2336  0.0021  0.5268
46218SOL    HW144491   5.228   4.526   0.983 -0.7551  1.1901  1.3236
46218SOL    HW244492   5.288   4.634   0.895 -0.5158  0.9009  1.1289
46219SOL     OW44493   1.993  11.698   9.532  0.2013 -0.1917  0.4735
46219SOL    HW144494   1.903  11.670   9.543  0.0280  0.9311  2.3709
46219SOL    HW244495   1.987  11.786   9.495  0.5943 -0.6044 -0.6342
46220SOL     OW44496  10.039   5.784   0.451  0.0429  0.0191 -0.2605
46220SOL    HW144497  10.109   5.849   0.451  0.3409 -0.2860 -0.6982
46220SOL    HW244498  10.066   5.720   0.516 -0.7464  0.8268  0.8910
46221SOL     OW44499   6.955  10.719   8.115 -0.2916  0.1360  0.5540
46221SOL    HW144500   6.937  10.776   8.040  2.6857  0.4349 -0.0481
46221SOL    HW244501   6.904  10.639   8.097 -0.4764  0.6128 -1.2457
46222SOL     OW44502   5.785   1.805   5.766 -0.4609 -0.7510  0.4972
46222SOL    HW144503   5.777   1.714   5.738  0.6151 -1.3000  1.8596
46222SOL    HW244504   5.761   1.805   5.858  0.6409  0.1366  0.8096
46223SOL     OW44505   8.173   9.130   0.590 -0.2302  0.2974  0.0932
46223SOL    HW144506   8.222   9.205   0.624 -0.8426  0.3564  0.8506
46223SOL    HW244507   8.220   9.053   0.623 -0.1133  0.3512  0.0515
46224SOL     OW44508   8.434   0.134  11.428 -0.4387  0.3221  0.0110
46224SOL    HW144509   8.355   0.116  11.378  0.2991  1.0334 -1.4692
46224SOL    HW244510   8.406   0.129  11.520 -2.0025 -0.2209 -0.4671
46225SOL     OW44511   4.991   8.849  11.535  0.2184  0.3770  0.1255
46225SOL    HW144512   4.974   8.808  11.620  1.4281  0.1053  0.2479
46225SOL    HW244513   5.003   8.942  11.556  2.2297  0.0770  0.5344
46226SOL     OW44514  12.318   9.492   7.759  0.2643 -0.0112 -0.5250
46226SOL    HW144515  12.404   9.509   7.796 -0.0181  0.5789 -0.1308
46226SOL    HW244516  12.293   9.407   7.795  0.5692 -0.0624 -0.4330
46227SOL     OW44517  11.452   6.528   0.868 -0.1352  0.0797  0.1863
46227SOL    HW144518  11.369   6.490   0.897 -1.7785  0.1931 -3.7945
46227SOL    HW244519  11.508   6.453   0.849 -0.6136 -0.1441 -0.3811
46228SOL     OW44520   9.331   4.915   0.386 -0.2336 -0.3488 -0.2879
46228SOL    HW144521   9.241   4.933   0.415 -0.0921 -0.0009 -0.0500
46228SOL    HW244522   9.368   4.861   0.456  0.2409  0.8375  0.4156
46229SOL     OW44523   0.351   1.219  11.185  0.6859 -0.1147 -0.1026
46229SOL    HW144524   0.264   1.181  11.173  0.0812  0.7459  1.2884
46229SOL    HW244525   0.411   1.152  11.154 -0.4685 -0.7048 -1.1437
46230SOL     OW44526   0.484  10.302   3.667  0.2514 -0.2194 -0.3154
46230SOL    HW144527   0.501  10.273   3.578  1.9089 -0.2186 -0.0411
46230SOL    HW244528   0.562  10.352   3.691  0.4062 -1.2426  1.5342
46231SOL     OW44529  11.272   2.458   7.044  0.3550 -0.1999  0.1784
46231SOL    HW144530  11.298   2.470   7.136  0.1572  1.7623  0.0211
46231SOL    HW244531  11.343   2.498   6.994 -0.9941  1.6257 -0.3858
46232SOL     OW44532  11.285   3.768   8.261  0.2470  0.0476 -0.0254
46232SOL    HW144533  11.299   3.779   8.166 -1.5654 -2.1865 -0.6362
46232SOL    HW244534  11.216   3.831   8.282  0.5976  0.4965 -0.1926
46233SOL     OW44535   0.161   5.462   1.792  0.3489 -0.4625  0.2958
46233SOL    HW144536   0.250   5.456   1.826 -0.2160 -1.2805  1.7463
46233SOL    HW244537   0.106   5.473   1.870 -0.5958  3.8904 -0.7387
46234SOL     OW44538   5.189   8.583   7.070  0.4458  0.1544  0.6596
46234SOL    HW144539   5.269   8.602   7.118  1.2049 -0.8076 -0.1659
46234SOL    HW244540   5.169   8.492   7.090 -0.4741  0.3881  0.8815
46235SOL     OW44541   3.987  11.908   6.231  0.1913 -0.1162 -0.5986
46235SOL    HW144542   4.072  11.933   6.194  0.5520 -1.3314 -0.6392
46235SOL    HW244543   3.935  11.882   6.155 -0.1007  0.2869 -0.5383
46236SOL     OW44544   9.250   1.153   0.877  0.4637 -0.3280 -0.2129
46236SOL    HW144545   9.324   1.092   0.875 -0.1449 -1.0692 -0.8656
46236SOL    HW244546   9.249   1.191   0.789 -0.6151 -1.1751 -0.5822
46237SOL     OW44547   2.943   8.160   7.039  0.6493 -0.2483 -0.4051
46237SOL    HW144548   2.942   8.255   7.029 -0.3960 -0.3434 -1.3543
46237SOL    HW244549   2.860   8.139   7.080  0.8095 -0.7705 -0.3425
46238SOL     OW44550   1.026   8.284   7.193 -0.1186  0.3458 -0.4907
46238SOL    HW144551   1.098   8.301   7.253 -0.8851 -2.1119  1.3093
46238SOL    HW244552   1.050   8.329   7.112  3.5789 -0.6334 -0.1024
46239SOL     OW44553  11.085   0.271  11.842  0.5071 -0.0484  0.2156
46239SOL    HW144554  11.001   0.225  11.836  0.0951  0.4875  1.5086
46239SOL    HW244555  11.076   0.327  11.919 -0.3347  4.8718 -3.0426
46240SOL     OW44556   8.197   9.926   9.230 -0.4538 -0.0888  0.5571
46240SOL    HW144557   8.167   9.882   9.309 -0.9072 -0.9146 -0.0609
46240SOL    HW244558   8.285   9.891   9.215 -0.8777 -0.9590 -0.0280
46241SOL     OW44559   3.902   4.043   2.057 -0.6825  0.0828  0.2219
46241SOL    HW144560   3.828   4.002   2.011  0.0621 -0.9279 -0.1080
46241SOL    HW244561   3.927   4.116   2.000  0.6950 -1.5847 -1.4388
46242SOL     OW44562   2.785   1.420  10.478 -0.4365  0.1009 -0.4089
46242SOL    HW144563   2.877   1.420  10.452 -0.6185  0.8799 -1.0942
46242SOL    HW244564   2.780   1.478  10.553 -0.2147 -0.7216  0.2583
46243SOL     OW44565   7.307   9.325   9.957  0.2230  0.1359 -0.1302
46243SOL    HW144566   7.285   9.249  10.010  1.9742 -1.0521 -1.0130
46243SOL    HW244567   7.320   9.396  10.020 -3.4668  0.3630  0.5912
46244SOL     OW44568   4.089   0.818   0.664 -0.4024 -0.0894  0.4089
46244SOL    HW144569   4.149   0.744   0.668  0.7920  0.7836 -0.3152
46244SOL    HW244570   4.063   0.833   0.755 -0.0085 -0.8791  0.6626
46245SOL     OW44571   7.506   2.382   1.486  1.1860 -0.1108 -0.4400
46245SOL    HW144572   7.491   2.331   1.406 -0.4565  1.3646 -1.1424
46245SOL    HW244573   7.477   2.324   1.557  1.7942 -1.0883 -0.9559
46246SOL     OW44574   8.084   6.947   4.721 -0.4163 -0.1584  0.3099
46246SOL    HW144575   8.072   6.980   4.810  0.5861  0.9662  0.0593
46246SOL    HW244576   8.142   7.011   4.679 -1.0909 -0.5018 -1.2437
46247SOL     OW44577   6.176   1.307   9.837  0.2384 -0.0251  0.3876
46247SOL    HW144578   6.152   1.232   9.891 -0.5810 -0.4509 -0.5202
46247SOL    HW244579   6.092   1.345   9.811  0.4764 -1.1021 -2.2825
46248SOL     OW44580   9.661   2.338   2.628  0.5690 -0.2448 -0.1141
46248SOL    HW144581   9.746   2.335   2.671  0.7541  2.6180 -0.0519
46248SOL    HW244582   9.598   2.323   2.699  0.9004  3.5858  1.2509
46249SOL     OW44583   1.415   6.316   6.518  0.4092  0.4671  0.5253
46249SOL    HW144584   1.469   6.252   6.565  1.9034  1.4043  0.1507
46249SOL    HW244585   1.478   6.368   6.468 -1.0064  0.4511 -1.3718
46250SOL     OW44586   6.068   1.065   6.465  0.2327 -0.3139 -0.9433
46250SOL    HW144587   6.079   1.039   6.556  0.2552  2.1119 -0.1744
46250SOL    HW244588   5.997   1.010   6.433 -0.4427 -0.5774  0.8522
46251SOL     OW44589   8.884   8.405  12.136  0.9173  0.2085  0.1068
46251SOL    HW144590   8.927   8.486  12.109 -1.0185  1.8977  1.8088
46251SOL    HW244591   8.904   8.343  12.066  1.9652  2.3130 -1.5596
46252SOL     OW44592   6.405   6.137   3.666 -0.1902 -0.0633  0.2330
46252SOL    HW144593   6.474   6.155   3.730  1.0541  0.4465 -1.1887
46252SOL    HW244594   6.405   6.214   3.608 -2.6005  0.3811  0.7080
46253SOL     OW44595   5.187   5.393   8.662 -0.3589 -0.8229  0.0036
46253SOL    HW144596   5.265   5.431   8.622  0.9793 -1.8882  1.4645
46253SOL    HW244597   5.214   5.372   8.751 -2.6751 -0.2030  0.9114
46254SOL     OW44598   1.868   3.055   6.896  0.3076 -0.3342  0.0180
46254SOL    HW144599   1.943   3.007   6.862  1.0755  0.3866  0.6673
46254SOL    HW244600   1.803   2.988   6.916  1.1146 -1.0408  0.2931
46255SOL     OW44601   0.541   9.229   1.944  0.1491  0.3275  0.6965
46255SOL    HW144602   0.460   9.278   1.934  0.4290  0.5284 -0.9494
46255SOL    HW244603   0.607   9.295   1.963  0.5164  0.6532 -1.4672
46256SOL     OW44604   7.187  11.745  10.377 -0.5594 -0.0703  0.0087
46256SOL    HW144605   7.141  11.759  10.294 -0.7740  0.9249  0.2784
46256SOL    HW244606   7.211  11.652  10.376 -1.2562 -0.2573 -0.8100
46257SOL     OW44607   0.183  10.901   1.525 -0.3013  0.5830  0.5866
46257SOL    HW144608   0.241  10.878   1.597  1.5623 -0.7345 -1.2130
46257SOL    HW244609   0.207  10.991   1.502 -1.9499  1.5674  2.4837
46258SOL     OW44610   7.725   6.536  10.369  0.3264  0.2206 -0.1575
46258SOL    HW144611   7.717   6.624  10.332 -0.7186 -0.2914 -1.2299
46258SOL    HW244612   7.692   6.478  10.300  1.8029 -1.1000  0.1883
46259SOL     OW44613   4.399   5.464   1.403  0.2652 -0.1066 -0.1859
46259SOL    HW144614   4.374   5.542   1.353  1.4017  0.3378 -0.1031
46259SOL    HW244615   4.442   5.498   1.481 -0.5818 -0.8124  0.5969
46260SOL     OW44616   8.362   2.903   7.955 -0.5744 -0.5316 -0.5109
46260SOL    HW144617   8.398   2.817   7.978 -0.9505 -0.4788  0.3095
46260SOL    HW244618   8.397   2.962   8.022 -1.0500 -0.2192 -0.5356
46261SOL     OW44619   2.442   7.126   6.995  0.0080  0.1964 -0.0793
46261SOL    HW144620   2.386   7.200   7.015 -1.3073 -0.8473  0.2944
46261SOL    HW244621   2.497   7.156   6.922  1.1646  2.2795  1.5458
46262SOL     OW44622   8.259   2.584   2.793 -0.1007 -0.4310  0.2569
46262SOL    HW144623   8.268   2.525   2.868  1.5873 -2.4390 -1.3865
46262SOL    HW244624   8.329   2.557   2.733 -0.1812  2.3647 -1.2306
46263SOL     OW44625  11.037   8.988   4.618  0.1902 -0.6852 -0.5150
46263SOL    HW144626  11.087   8.920   4.663  1.7118 -0.4684 -1.8190
46263SOL    HW244627  11.049   9.066   4.672  2.3634 -0.3216 -1.4287
46264SOL     OW44628   9.866   3.875   1.196  0.2669 -0.3664  0.0234
46264SOL    HW144629   9.844   3.888   1.104 -0.5010  1.3235  0.4021
46264SOL    HW244630   9.782   3.880   1.242  0.4915 -2.3440  0.7490
46265SOL     OW44631   4.190   7.069   5.524  0.0827  0.3860  0.7716
46265SOL    HW144632   4.147   7.042   5.605 -0.6920  1.8987  0.9146
46265SOL    HW244633   4.148   7.016   5.456 -2.1144  1.7993  0.9095
46266SOL     OW44634   5.213   6.768  10.826 -0.2770  0.4338 -0.6270
46266SOL    HW144635   5.128   6.758  10.867  0.1920  1.1491  0.5738
46266SOL    HW244636   5.216   6.859  10.798  0.2474  0.5263 -0.2838
46267SOL     OW44637  12.239   2.929  12.272  0.3225 -0.1265  0.5051
46267SOL    HW144638  12.207   2.960  12.187  0.5869 -0.2864  0.3435
46267SOL    HW244639  12.166   2.943  12.332  0.9254  2.2447  0.7819
46268SOL     OW44640   4.686   9.608   2.810  0.2372 -0.0761  0.7658
46268SOL    HW144641   4.738   9.688   2.801 -0.9384  0.7265  0.7681
46268SOL    HW244642   4.728   9.560   2.881  0.8832  0.6152  0.8683
46269SOL     OW44643   1.889   7.441   2.408 -0.7591 -0.7152 -0.2677
46269SOL    HW144644   1.961   7.390   2.370  0.0656  0.0137  0.2904
46269SOL    HW244645   1.820   7.377   2.422 -0.4625 -1.3215 -1.3949
46270SOL     OW44646   1.471   4.592   7.778  0.2083 -0.2213  0.7281
46270SOL    HW144647   1.396   4.606   7.836 -0.5801  0.6238 -0.4576
46270SOL    HW244648   1.515   4.678   7.774  0.6835 -0.4617  0.6425
46271SOL     OW44649   1.939   2.513   1.963  0.1599 -0.8211 -0.2351
46271SOL    HW144650   1.978   2.600   1.954  2.9075 -1.9774 -0.5107
46271SOL    HW244651   1.857   2.528   2.010  0.8233  1.8285  0.2388
46272SOL     OW44652   1.467   1.001   2.653 -0.2875 -0.0051  0.0637
46272SOL    HW144653   1.518   0.996   2.734 -0.4535 -1.4623  0.1160
46272SOL    HW244654   1.408   0.925   2.658 -1.2547  0.6617 -0.7967
46273SOL     OW44655  10.682   2.994   5.978  0.0640 -0.1553 -0.5435
46273SOL    HW144656  10.777   2.993   5.987  0.1078  0.8167 -0.8756
46273SOL    HW244657  10.654   2.908   6.011  0.9477 -0.0111  0.6432
46274SOL     OW44658   4.319   7.280   0.133 -0.2043  0.1069  0.2646
46274SOL    HW144659   4.305   7.371   0.158 -0.4388  0.0173  0.4613
46274SOL    HW244660   4.384   7.284   0.063  0.6081  0.3495  1.0207
46275SOL     OW44661   3.429   6.169   5.687  0.1810  0.0510  0.0661
46275SOL    HW144662   3.334   6.152   5.686 -0.2286  2.0174  1.1818
46275SOL    HW244663   3.465   6.096   5.737 -0.9062 -0.0908  0.6765
46276SOL     OW44664   8.378   8.739   6.170 -0.0296 -0.2736 -0.5326
46276SOL    HW144665   8.402   8.705   6.084 -1.5315 -1.6310 -0.4481
46276SOL    HW244666   8.442   8.700   6.229  1.1341  0.8223 -1.0208
46277SOL     OW44667   9.888   0.931   2.928  0.2977  0.3215  0.1724
46277SOL    HW144668   9.805   0.978   2.939  0.4124  0.3762  0.8391
46277SOL    HW244669   9.862   0.842   2.907  0.0685  0.3322  0.4008
46278SOL     OW44670   8.037  10.151   6.623 -0.0813  0.2363  0.1030
46278SOL    HW144671   8.037  10.154   6.527  2.3666 -1.3282 -0.0069
46278SOL    HW244672   8.053  10.242   6.649 -3.2369  1.2027 -0.7891
46279SOL     OW44673   1.454   7.847  11.283 -0.0833 -0.0522  0.0039
46279SOL    HW144674   1.528   7.873  11.338 -0.7770  1.1990  0.3989
46279SOL    HW244675   1.379   7.848  11.342 -0.9355  1.8468 -1.0043
46280SOL     OW44676  11.227   7.194   5.117  0.2486 -0.3942 -1.3458
46280SOL    HW144677  11.134   7.203   5.097  0.2556 -0.9184 -1.6335
46280SOL    HW244678  11.230   7.126   5.185  0.0916  2.3169  1.5976
46281SOL     OW44679  10.345  11.909   2.192 -0.3531  0.4367 -0.6153
46281SOL    HW144680  10.356  11.838   2.128 -1.2358 -0.2371 -0.0441
46281SOL    HW244681  10.257  11.896   2.227 -0.2334  1.3590  0.0723
46282SOL     OW44682   2.780   8.325  10.523  0.1674 -0.3287 -0.1568
46282SOL    HW144683   2.740   8.411  10.512  0.4711 -0.3497 -1.6873
46282SOL    HW244684   2.726   8.282  10.589 -0.0007  1.0142  0.6089
46283SOL     OW44685   7.123  11.627   4.192  0.5363  0.2065 -0.1528
46283SOL    HW144686   7.042  11.661   4.155  1.2958  0.5939 -1.4955
46283SOL    HW244687   7.158  11.700   4.243  0.1964  0.1330  0.1921
46284SOL     OW44688  10.326   1.512   5.475  0.2505  0.8963  0.4081
46284SOL    HW144689  10.289   1.452   5.410 -0.7415  0.8796  0.9706
46284SOL    HW244690  10.347   1.456   5.550  0.5904  1.0487  0.4296
46285SOL     OW44691   9.190   2.653   2.648 -0.6981  0.4080 -0.1463
46285SOL    HW144692   9.172   2.592   2.576  1.6684  1.0141 -1.3597
46285SOL    HW244693   9.161   2.738   2.614  0.0121  0.6215 -0.2429
46286SOL     OW44694   1.594   5.448   1.939  0.0923  0.3710  0.1921
46286SOL    HW144695   1.603   5.454   1.844 -1.0697  0.6871  0.0844
46286SOL    HW244696   1.638   5.366   1.962 -1.4655 -0.8485 -0.8960
46287SOL     OW44697   3.819  10.693   9.963  0.0925 -0.5791 -0.1541
46287SOL    HW144698   3.876  10.769   9.960 -0.8698  0.1295 -1.4047
46287SOL    HW244699   3.763  10.708  10.040  2.9005 -2.3589  2.4879
46288SOL     OW44700   8.427   2.696   6.442 -0.3482 -0.4158 -0.3077
46288SOL    HW144701   8.378   2.680   6.523  1.0950 -0.2405  0.6450
46288SOL    HW244702   8.361   2.726   6.380 -1.2413  1.4971  1.4117
46289SOL     OW44703   8.420   8.166   4.867 -0.5588  0.1109 -0.1685
46289SOL    HW144704   8.388   8.187   4.955 -0.0719 -0.0463  0.0514
46289SOL    HW244705   8.347   8.120   4.826 -0.3712 -0.9042  0.5900
46290SOL     OW44706   9.221   7.438   1.917  0.6189  0.0808 -0.1848
46290SOL    HW144707   9.245   7.510   1.976 -0.1969  0.6903 -0.5690
46290SOL    HW244708   9.231   7.475   1.829  0.0399 -0.2126 -0.3835
46291SOL     OW44709  10.737   5.865   2.861  0.1216  0.0193 -0.5235
46291SOL    HW144710  10.642   5.860   2.853 -0.0285 -1.9753  1.4934
46291SOL    HW244711  10.769   5.786   2.818  0.5390 -1.1486  1.7875
46292SOL     OW44712  11.793   1.763  11.639 -0.1023  0.1863 -0.1892
46292SOL    HW144713  11.810   1.670  11.624  1.1470  0.2478  0.6747
46292SOL    HW244714  11.854   1.809  11.581 -1.9044  0.5152 -1.8990
46293SOL     OW44715   8.585   7.324   4.726 -0.0689  0.0092  0.1136
46293SOL    HW144716   8.634   7.385   4.781 -1.1893  1.1594 -0.1154
46293SOL    HW244717   8.634   7.321   4.644 -0.4735  1.3387 -0.2013
46294SOL     OW44718   0.323   8.963   0.086  0.5398 -0.9778 -0.0195
46294SOL    HW144719   0.283   8.890   0.132 -2.1764  0.0424 -0.5738
46294SOL    HW244720   0.315   8.941  -0.007  1.0977 -0.6462 -0.1541
46295SOL     OW44721   5.183   4.246   7.150  0.2877 -0.1876 -0.7087
46295SOL    HW144722   5.229   4.279   7.227  0.5277  1.3613 -1.4773
46295SOL    HW244723   5.138   4.167   7.180 -2.4632  2.1588  1.9734
46296SOL     OW44724   1.581   9.074   8.394 -0.6935 -0.2240 -0.0218
46296SOL    HW144725   1.568   9.087   8.300 -0.8609  0.6433  0.1045
46296SOL    HW244726   1.497   9.100   8.433 -0.5551 -0.3746  0.3800
46297SOL     OW44727   5.263   8.783   0.939 -0.5436 -0.3540 -0.6420
46297SOL    HW144728   5.321   8.724   0.892 -0.1284  0.4898 -1.1894
46297SOL    HW244729   5.192   8.726   0.970 -0.1756 -1.1303 -1.1990
46298SOL     OW44730   9.424  11.160  12.271  0.1452 -0.0887 -0.2582
46298SOL    HW144731   9.519  11.163  12.267  0.1545  2.8293 -0.2056
46298SOL    HW244732   9.396  11.196  12.187 -0.8923 -0.0812  0.0775
46299SOL     OW44733   6.310  10.930   9.863 -0.0259  1.0243 -0.3339
46299SOL    HW144734   6.313  10.953   9.771  0.4674  0.4154 -0.4822
46299SOL    HW244735   6.301  11.013   9.909 -1.9043  1.2263 -0.9841
46300SOL     OW44736  10.903   8.244   5.890  0.4884 -0.0797 -0.5471
46300SOL    HW144737  10.853   8.163   5.896  1.1745 -0.4569  0.4823
46300SOL    HW244738  10.990   8.221   5.923  0.0401  1.5802  2.1372
46301SOL     OW44739  10.517  11.399  10.909 -0.4079 -0.4014 -0.0153
46301SOL    HW144740  10.612  11.404  10.923 -0.4971 -0.5626  0.7142
46301SOL    HW244741  10.481  11.385  10.997 -1.0935 -0.5678 -0.3176
46302SOL     OW44742   6.342   2.056   0.752 -0.3081  0.0867 -0.2354
46302SOL    HW144743   6.310   2.077   0.840  0.1484  1.9110 -0.4658
46302SOL    HW244744   6.264   2.023   0.705 -0.9418  0.7225  0.3499
46303SOL     OW44745   8.103   6.850   4.273  0.4967  0.2524  0.3566
46303SOL    HW144746   8.169   6.919   4.268  0.5199  0.1817 -0.4663
46303SOL    HW244747   8.063   6.861   4.360 -0.4204  2.1408 -0.2477
46304SOL     OW44748   6.448   7.639   0.388 -0.2681 -0.1040 -0.8668
46304SOL    HW144749   6.377   7.665   0.447  0.4558  0.1186 -0.0831
46304SOL    HW244750   6.409   7.643   0.301 -0.5706  2.2812 -0.6747
46305SOL     OW44751   8.808  11.970   1.798  0.5280 -0.4042 -0.1326
46305SOL    HW144752   8.864  11.902   1.836 -0.4756 -2.2994 -1.8343
46305SOL    HW244753   8.823  11.964   1.704 -0.5648  0.8737 -0.4146
46306SOL     OW44754  10.878   4.981   5.822 -0.6942 -0.1103 -0.2193
46306SOL    HW144755  10.907   5.002   5.734  1.3406 -2.1376 -0.1224
46306SOL    HW244756  10.948   5.012   5.879 -0.6490 -1.2885  0.4144
46307SOL     OW44757   2.355   4.440   6.978  0.0942 -0.0368 -0.3477
46307SOL    HW144758   2.286   4.374   6.975  0.0080 -0.3173  3.5174
46307SOL    HW244759   2.435   4.390   6.996  0.2833  0.7576  1.0890
46308SOL     OW44760   5.547   8.489   3.600  0.1111  0.0884  0.7440
46308SOL    HW144761   5.503   8.456   3.679 -1.8580  0.2823 -0.2025
46308SOL    HW244762   5.533   8.420   3.535 -0.1838  0.8468 -0.0185
46309SOL     OW44763   2.380   8.839  11.392  0.0427  0.2922 -0.0306
46309SOL    HW144764   2.467   8.826  11.428 -0.7641  0.3791  2.1268
46309SOL    HW244765   2.353   8.926  11.425 -1.0461  0.0391 -0.1992
46310SOL     OW44766   5.229   7.230   3.941 -0.0117 -0.1050 -0.1629
46310SOL    HW144767   5.314   7.198   3.972  0.6932  1.3909 -0.4315
46310SOL    HW244768   5.238   7.231   3.846 -0.6188 -0.6838 -0.2261
46311SOL     OW44769   7.100   8.735   8.452  0.3595  0.1777  0.6309
46311SOL    HW144770   7.182   8.772   8.420  0.2433  1.2834  1.5570
46311SOL    HW244771   7.127   8.658   8.502  0.7051 -0.2834 -0.2382
46312SOL     OW44772   5.414   3.509   9.016 -0.1977  0.2542  0.3346
46312SOL    HW144773   5.326   3.516   9.052  0.6219 -0.3527  2.6639
46312SOL    HW244774   5.416   3.422   8.976 -0.9922  0.7613 -0.8738
46313SOL     OW44775   9.812   2.708   0.834  0.3114  0.2004  0.3811
46313SOL    HW144776   9.792   2.731   0.925  0.0055 -2.2182  0.9908
46313SOL    HW244777   9.726   2.702   0.792  0.4531  1.3372 -0.1100
46314SOL     OW44778   9.503   2.198   2.811  0.2757 -0.0244 -0.2295
46314SOL    HW144779   9.478   2.114   2.772 -0.6411  0.1508 -0.0357
46314SOL    HW244780   9.427   2.255   2.797  1.0535  0.9167 -0.7469
46315SOL     OW44781   3.575   3.222   5.917  0.0396 -0.3325 -0.1114
46315SOL    HW144782   3.614   3.150   5.868  0.6515  0.3201 -0.5959
46315SOL    HW244783   3.635   3.238   5.989 -0.1607 -0.3906  0.0692
46316SOL     OW44784   6.013   7.888   0.030  0.4514  0.3338 -0.4475
46316SOL    HW144785   6.051   7.925   0.110 -1.9509  0.8584  0.5541
46316SOL    HW244786   5.991   7.798   0.053  0.8464  0.1131 -0.9229
46317SOL     OW44787   8.434   2.385   9.650  0.2536 -0.5634  0.3517
46317SOL    HW144788   8.487   2.315   9.612 -0.3450  0.2543 -2.2491
46317SOL    HW244789   8.365   2.399   9.585 -0.9987  0.8797  1.9136
46318SOL     OW44790   5.702   6.082   9.812  0.0924  0.3726 -0.2492
46318SOL    HW144791   5.621   6.030   9.815 -0.3817  0.9973 -1.5689
46318SOL    HW244792   5.731   6.084   9.903 -0.8406 -0.6903  0.1099
46319SOL     OW44793   9.274  11.897  10.009  0.3537 -0.3990 -0.2719
46319SOL    HW144794   9.206  11.884   9.942 -1.4901 -1.6843  1.7064
46319SOL    HW244795   9.293  11.809  10.040  1.2651  0.1604  0.7934
46320SOL     OW44796   8.140  11.744   3.810  0.2879  0.0667  0.3001
46320SOL    HW144797   8.230  11.731   3.841  0.1872 -0.1007  0.5232
46320SOL    HW244798   8.140  11.711   3.721  0.5524  0.4486  0.1552
46321SOL     OW44799   0.335   0.947   7.978  0.1881 -0.2221 -0.3658
46321SOL    HW144800   0.278   1.002   7.924  1.4678  0.3235 -1.2286
46321SOL    HW244801   0.278   0.877   8.009 -0.9159  0.2173 -1.2991
46322SOL     OW44802   6.739   7.710   0.850  0.5611 -0.2511  0.3700
46322SOL    HW144803   6.660   7.707   0.796  1.2026 -1.9558 -0.5416
46322SOL    HW244804   6.706   7.718   0.939 -0.5728  0.9043 -0.1277
46323SOL     OW44805   6.541   2.417   6.409  0.1252  0.3662  0.3784
46323SOL    HW144806   6.499   2.503   6.402 -1.7664 -0.4652  0.8098
46323SOL    HW244807   6.475   2.362   6.452  0.6647 -1.7220 -1.3208
46324SOL     OW44808   3.891   4.961  11.853  0.3198  0.8056  0.4782
46324SOL    HW144809   3.922   5.008  11.931  0.3236  0.4872  0.6696
46324SOL    HW244810   3.853   5.029  11.798 -2.0136  0.7493  1.8791
46325SOL     OW44811   8.239  10.919   4.275 -0.5474 -0.1108 -0.1481
46325SOL    HW144812   8.146  10.934   4.261 -0.3603  0.2205 -1.1297
46325SOL    HW244813   8.246  10.825   4.294 -1.2875  0.2264  1.9925
46326SOL     OW44814   1.813   7.830   4.932  0.5507  0.4632 -0.2287
46326SOL    HW144815   1.819   7.736   4.946  0.1456  0.7491  2.5842
46326SOL    HW244816   1.770   7.840   4.847 -2.7432 -1.9769  0.9275
46327SOL     OW44817   2.194   7.304   9.062 -0.6407 -0.3911 -0.3636
46327SOL    HW144818   2.283   7.274   9.080 -1.6961 -3.3018  0.7336
46327SOL    HW244819   2.204   7.375   9.000  2.4338 -0.5812 -0.2346
46328SOL     OW44820   7.379   4.437   8.185  0.9739  0.1823 -0.1060
46328SOL    HW144821   7.365   4.346   8.158  1.0906  0.5674 -1.5525
46328SOL    HW244822   7.352   4.489   8.109  1.0701  1.3517  0.6374
46329SOL     OW44823   6.408   6.238   6.812 -0.2099 -0.3665  0.3447
46329SOL    HW144824   6.335   6.179   6.827  0.1814 -1.1887 -0.8010
46329SOL    HW244825   6.481   6.180   6.787  0.3154  0.5576 -0.3473
46330SOL     OW44826   2.680   2.673   1.962 -0.4740 -0.6145  0.3519
46330SOL    HW144827   2.666   2.659   1.869  0.4501  1.5247 -0.1858
46330SOL    HW244828   2.679   2.586   2.001  0.4841 -1.6873 -1.8623
46331SOL     OW44829   9.439  11.361   8.940 -0.0286  0.2916 -0.2996
46331SOL    HW144830   9.460  11.453   8.952  1.1968  0.0379 -0.3625
46331SOL    HW244831   9.511  11.327   8.886 -0.6456 -0.6192 -0.5716
46332SOL     OW44832   5.755   6.163  10.700  0.5468 -0.3340 -0.1695
46332SOL    HW144833   5.814   6.228  10.739  2.2576 -0.2039 -2.7307
46332SOL    HW244834   5.793   6.079  10.726 -0.5318 -0.3530  1.4996
46333SOL     OW44835   5.682   3.143  11.032 -0.1681  0.0731  0.2961
46333SOL    HW144836   5.777   3.153  11.028 -0.1950 -0.0835 -0.8740
46333SOL    HW244837   5.660   3.161  11.124  1.2771 -2.4675  1.2449
46334SOL     OW44838  10.277   6.631   6.941 -0.1440 -0.0265 -0.3758
46334SOL    HW144839  10.361   6.629   6.895  0.5919  1.5109  0.7747
46334SOL    HW244840  10.218   6.578   6.888  1.1671  0.0903 -2.0145
46335SOL     OW44841   7.444   3.253   4.323  0.1154 -0.1311 -0.0510
46335SOL    HW144842   7.357   3.280   4.293  0.0010 -0.8222 -0.3706
46335SOL    HW244843   7.489   3.225   4.244  0.4449 -0.2829  0.1870
46336SOL     OW44844   4.000   9.819  10.479 -0.2767 -0.1502 -0.3391
46336SOL    HW144845   4.003   9.744  10.539 -0.5379 -1.3700 -1.7818
46336SOL    HW244846   4.057   9.794  10.406 -0.6254  0.9250 -1.0126
46337SOL     OW44847   7.037   2.451   0.437  0.2034  0.3324 -0.1015
46337SOL    HW144848   7.071   2.414   0.355  1.0522 -0.4660  0.5887
46337SOL    HW244849   6.947   2.418   0.442 -0.1482  1.0707 -1.1071
46338SOL     OW44850   4.584   8.343   2.399  0.7194 -0.6648 -0.2379
46338SOL    HW144851   4.674   8.326   2.371  1.4695  0.9696  0.9750
46338SOL    HW244852   4.541   8.382   2.323  0.9021 -1.8098 -0.9453
46339SOL     OW44853  11.584   5.663   5.221 -0.4917  0.7884  0.3035
46339SOL    HW144854  11.556   5.668   5.312 -1.6332 -0.6737  0.0856
46339SOL    HW244855  11.545   5.581   5.189  1.7977  0.0634 -0.8574
46340SOL     OW44856   2.997   7.887   4.592  0.6256  0.4050 -0.1878
46340SOL    HW144857   3.073   7.931   4.554  0.8685 -0.5018 -0.7888
46340SOL    HW244858   3.016   7.884   4.686 -0.5360  3.7485  0.2823
46341SOL     OW44859   0.570   7.448   8.037  0.1260 -0.0896  0.0443
46341SOL    HW144860   0.500   7.514   8.033 -0.6742 -0.9657 -1.4019
46341SOL    HW244861   0.649   7.499   8.055 -0.6814  1.0889  0.4061
46342SOL     OW44862   9.676   8.146   5.355 -0.2655 -0.2801 -0.1090
46342SOL    HW144863   9.703   8.186   5.438  0.5614  1.5368 -1.2028
46342SOL    HW244864   9.746   8.168   5.294 -1.0956 -1.1663 -1.4305
46343SOL     OW44865   1.411   3.737   1.091 -0.5152 -0.8411  0.1886
46343SOL    HW144866   1.369   3.701   1.013 -0.6299 -0.9609  0.3044
46343SOL    HW244867   1.504   3.736   1.071 -0.5000 -1.3721  0.2549
46344SOL     OW44868   4.200  11.230  11.718  0.3572 -0.2422 -0.0941
46344SOL    HW144869   4.195  11.230  11.814  1.6683 -0.4441 -0.0173
46344SOL    HW244870   4.291  11.248  11.698 -0.1834  1.3517 -1.3534
46345SOL     OW44871  11.543   4.088   6.801  0.4238  0.2453  0.1568
46345SOL    HW144872  11.495   4.048   6.728 -0.8410 -0.3715  1.2871
46345SOL    HW244873  11.476   4.135   6.851  1.3290  0.9325  0.7465
46346SOL     OW44874   5.793   4.321   2.740  0.3221  0.6299 -0.2748
46346SOL    HW144875   5.819   4.365   2.659  0.2961  0.3009 -0.4627
46346SOL    HW244876   5.700   4.343   2.751  0.4776  1.1725 -0.0110
46347SOL     OW44877   8.758   9.215   6.556 -0.2060  0.2570 -0.4722
46347SOL    HW144878   8.663   9.224   6.565 -0.0107  1.0662  1.3251
46347SOL    HW244879   8.788   9.302   6.530  0.1193  0.2800 -0.0383
46348SOL     OW44880   0.197   8.771   0.212  0.0086 -0.6666  0.1330
46348SOL    HW144881   0.179   8.822   0.291  0.3569  0.4001 -0.4682
46348SOL    HW244882   0.174   8.681   0.236  0.6849 -0.4666  1.6557
46349SOL     OW44883   9.392   5.420   2.247 -0.3207 -0.1192  0.4458
46349SOL    HW144884   9.337   5.348   2.215 -1.6464  0.5276  1.1916
46349SOL    HW244885   9.480   5.381   2.255 -0.0425 -0.5547 -3.0199
46350SOL     OW44886   7.025  11.357   5.319 -0.2513  0.1174  0.6069
46350SOL    HW144887   6.958  11.301   5.359 -2.1006  0.6959 -1.4786
46350SOL    HW244888   7.004  11.445   5.351  0.1925  0.1655  0.7747
46351SOL     OW44889  11.752   0.604  11.626 -0.5492 -0.2703 -0.2762
46351SOL    HW144890  11.681   0.651  11.582 -0.4562 -0.5697 -0.7486
46351SOL    HW244891  11.729   0.608  11.719 -1.3203 -0.5788 -0.4446
46352SOL     OW44892  11.300   9.228   3.948  0.1657  0.3456 -0.0001
46352SOL    HW144893  11.286   9.296   4.014 -2.0354 -2.2661  2.4915
46352SOL    HW244894  11.369   9.173   3.985  0.0356 -0.2625 -0.6409
46353SOL     OW44895   1.256  12.004   0.629  0.2941 -0.3008 -0.2463
46353SOL    HW144896   1.313  11.952   0.686  0.6768 -2.2848 -2.2565
46353SOL    HW244897   1.178  11.949   0.617  0.1115  0.1688 -1.3591
46354SOL     OW44898   1.478   9.827   3.295  0.4200 -0.2435 -0.6775
46354SOL    HW144899   1.392   9.867   3.287  0.1959 -0.3141  1.0199
46354SOL    HW244900   1.462   9.733   3.284  0.1666 -0.3200  0.2944
46355SOL     OW44901   8.863   6.387   7.528 -0.3989  0.0250  0.6959
46355SOL    HW144902   8.952   6.406   7.557  0.4671  1.4313 -2.4558
46355SOL    HW244903   8.816   6.470   7.538 -0.9536 -0.3253  1.0215
46356SOL     OW44904   9.819   6.950   0.345  0.0012  0.0390  0.0949
46356SOL    HW144905   9.786   7.038   0.326  0.8890 -0.0966 -2.5343
46356SOL    HW244906   9.743   6.893   0.331 -0.0394  0.2166 -0.4539
46357SOL     OW44907   7.483   6.364   8.315 -0.4449  0.0403 -0.1738
46357SOL    HW144908   7.436   6.283   8.331  0.3993 -0.1373  1.5665
46357SOL    HW244909   7.481   6.411   8.398  0.1896  1.2327 -0.7884
46358SOL     OW44910   9.570   2.695  11.267 -0.1804  0.1205 -0.5059
46358SOL    HW144911   9.580   2.600  11.260  0.3025  0.0139  1.2141
46358SOL    HW244912   9.659   2.729  11.260 -0.4331  0.5601 -2.0572
46359SOL     OW44913   5.787  12.100  10.632  0.1394  0.4279 -0.5303
46359SOL    HW144914   5.861  12.039  10.626  1.7429  2.2984 -1.2937
46359SOL    HW244915   5.803  12.148  10.714  0.4708  1.6310 -1.2733
46360SOL     OW44916  10.008  11.629   5.278  0.2387  0.2976  0.0466
46360SOL    HW144917   9.976  11.566   5.214  0.9526 -1.1395  1.0536
46360SOL    HW244918  10.100  11.644   5.253 -0.0467  1.2969 -0.4476
46361SOL     OW44919   9.129   1.759   8.736 -0.1072 -0.2636 -0.1345
46361SOL    HW144920   9.075   1.835   8.718 -0.2569 -0.5535 -0.9595
46361SOL    HW244921   9.111   1.738   8.828 -0.3854  0.4308 -0.0226
46362SOL     OW44922   5.374   9.627   8.034 -0.3883  0.6184 -0.1598
46362SOL    HW144923   5.286   9.608   8.066 -0.0517 -0.1209  0.3625
46362SOL    HW244924   5.369   9.717   8.003 -1.3264  0.5903 -0.1373
46363SOL     OW44925   7.861   0.348   6.758  0.0897 -0.2516  0.4516
46363SOL    HW144926   7.947   0.373   6.725  0.1853 -1.1137  0.0134
46363SOL    HW244927   7.848   0.402   6.836 -0.3983  2.3488 -1.2962
46364SOL     OW44928   8.200   8.981  11.353  0.4297  0.4181 -0.2684
46364SOL    HW144929   8.244   9.056  11.393  0.3865 -0.3281  1.2703
46364SOL    HW244930   8.269   8.935  11.306  1.0802 -0.0575  1.0826
46365SOL     OW44931   0.408   9.677   2.347 -0.3533  0.1554 -0.0121
46365SOL    HW144932   0.426   9.652   2.256 -0.1911  0.6028 -0.1085
46365SOL    HW244933   0.491   9.663   2.393  0.1874  1.9075 -0.3872
46366SOL     OW44934   4.977  12.262  10.051  0.1368 -0.1394  0.0497
46366SOL    HW144935   4.952  12.229  10.138 -0.3740  2.0572  0.8017
46366SOL    HW244936   5.073  12.260  10.052  0.1708  0.9265  1.1365
46367SOL     OW44937   1.837   8.730   0.127  0.3625 -0.1804  0.0474
46367SOL    HW144938   1.891   8.807   0.144  1.2652 -0.2307 -2.3311
46367SOL    HW244939   1.767   8.761   0.071  0.8768 -1.1046 -1.1476
46368SOL     OW44940  10.848   3.436   6.348 -0.3602 -0.3402  0.1997
46368SOL    HW144941  10.937   3.425   6.381 -1.0304 -1.0924  1.8840
46368SOL    HW244942  10.859   3.466   6.258  1.5985  1.0152  0.8137
46369SOL     OW44943   2.914   5.395   3.751 -0.0117  0.1449 -0.0371
46369SOL    HW144944   2.877   5.339   3.819 -0.3993 -0.5499 -0.8006
46369SOL    HW244945   2.954   5.467   3.799 -2.5742  1.0976  0.8746
46370SOL     OW44946   2.242   4.222   1.471  0.1634 -0.0477  0.0121
46370SOL    HW144947   2.148   4.206   1.472  0.5389 -2.8548 -1.3739
46370SOL    HW244948   2.257   4.281   1.545 -2.4151 -1.1879  1.5741
46371SOL     OW44949   9.184   4.423  11.901 -0.3259 -0.3843  0.4710
46371SOL    HW144950   9.107   4.373  11.926 -0.0359 -0.3467  1.4817
46371SOL    HW244951   9.237   4.428  11.981 -0.0775  1.0411  0.2435
46372SOL     OW44952   3.925   9.271   8.741  0.2165 -0.4832  0.5823
46372SOL    HW144953   3.832   9.292   8.734  0.3132 -0.2037  0.1523
46372SOL    HW244954   3.953   9.255   8.651  0.6711 -0.2035  0.6726
46373SOL     OW44955  10.785   0.614   3.167 -0.3163 -0.0005  0.0260
46373SOL    HW144956  10.769   0.625   3.073  0.6736  1.8067  0.0296
46373SOL    HW244957  10.766   0.521   3.184 -0.4258 -0.3851 -1.9611
46374SOL     OW44958  10.360   2.688   2.870  0.5516  0.1577  0.1454
46374SOL    HW144959  10.333   2.642   2.790  0.3388 -0.0340  0.3241
46374SOL    HW244960  10.373   2.778   2.842  2.3149 -0.2608 -0.5141
46375SOL     OW44961  11.010   7.423   8.120  0.3150 -0.1679  0.3740
46375SOL    HW144962  11.045   7.400   8.206  1.2514  1.5509  0.4980
46375SOL    HW244963  10.998   7.518   8.123  0.6821 -0.0187 -1.4896
46376SOL     OW44964   1.657   3.949  10.381  0.0366  0.1045 -0.3048
46376SOL    HW144965   1.657   3.945  10.286  0.6610  1.2246 -0.3646
46376SOL    HW244966   1.656   4.042  10.402  1.0016 -0.0956  0.7784
46377SOL     OW44967   9.977   0.031   5.976 -0.1884 -0.1874  0.2388
46377SOL    HW144968   9.979  -0.063   5.962 -0.5791 -0.1596 -0.0062
46377SOL    HW244969  10.069   0.055   5.990  0.1823 -0.3211 -1.6285
46378SOL     OW44970   9.355  11.872   2.308 -0.1908 -0.3551  0.5097
46378SOL    HW144971   9.378  11.786   2.344 -1.2321  0.3252  3.0338
46378SOL    HW244972   9.268  11.859   2.271  0.4548 -0.8077 -0.9241
46379SOL     OW44973  11.217   8.431   5.393 -0.2780  0.0203  0.2755
46379SOL    HW144974  11.219   8.336   5.396 -1.2093  0.0071  1.0092
46379SOL    HW244975  11.137   8.455   5.440  0.0352  1.1699  0.2585
46380SOL     OW44976  11.240   5.537   6.554  0.6395 -0.0468  0.0398
46380SOL    HW144977  11.250   5.540   6.459 -0.6445  0.5877 -0.0987
46380SOL    HW244978  11.148   5.561   6.569  0.1984 -2.2139  1.3091
46381SOL     OW44979   1.568  12.307  10.228  0.5345 -0.2276  0.2172
46381SOL    HW144980   1.519  12.312  10.310  1.8827  0.8880  0.9891
46381SOL    HW244981   1.657  12.333  10.251  0.8199  0.6710 -1.7140
46382SOL     OW44982   6.618   4.573  12.092  0.3674 -0.1775  0.5230
46382SOL    HW144983   6.531   4.581  12.055  1.0161 -0.4757 -1.1457
46382SOL    HW244984   6.612   4.499  12.153 -0.3906 -0.5804 -0.0323
46383SOL     OW44985   6.336   1.072  10.947  0.0885 -0.3765  0.8208
46383SOL    HW144986   6.350   1.004  11.013  1.0760  0.3532  1.3971
46383SOL    HW244987   6.304   1.147  10.996 -0.9078 -0.3704  0.2014
46384SOL     OW44988  10.989  11.852   5.629  0.4324  0.2522 -0.3672
46384SOL    HW144989  10.998  11.946   5.640 -0.8230  0.1986  1.7841
46384SOL    HW244990  10.897  11.834   5.645  0.3011 -1.1985 -2.3629
46385SOL     OW44991  11.863   7.656   3.294  1.0705  0.0835 -0.1587
46385SOL    HW144992  11.802   7.730   3.300  0.9066 -0.0786  0.1334
46385SOL    HW244993  11.882   7.650   3.200  1.4097  0.7612 -0.1448
46386SOL     OW44994   9.088   1.920   8.404 -0.1749  0.6457 -0.2728
46386SOL    HW144995   9.096   1.946   8.495 -0.7323  0.8726 -0.2843
46386SOL    HW244996   9.088   2.003   8.355  1.0605  0.4922 -0.5642
46387SOL     OW44997  11.892   5.101   0.854 -0.4436 -0.1547 -0.2913
46387SOL    HW144998  11.918   5.193   0.852  1.0349 -0.5353  0.2648
46387SOL    HW244999  11.966   5.054   0.814 -1.0921 -1.1225 -0.3927
46388SOL     OW45000  12.039   1.596   7.171  0.2398 -0.2306 -0.3847
46388SOL    HW145001  11.965   1.617   7.227  1.0256  1.1712  0.2056
46388SOL    HW245002  12.116   1.606   7.228  0.9374 -0.6156 -1.2314
46389SOL     OW45003  11.388  10.371   0.514  0.5504 -0.0606  0.2286
46389SOL    HW145004  11.318  10.310   0.491 -0.0264  1.2986 -1.9520
46389SOL    HW245005  11.466  10.338   0.469 -0.0044  1.2651 -1.8509
46390SOL     OW45006   9.796   5.229   3.593  0.0858 -0.1191 -0.4070
46390SOL    HW145007   9.807   5.305   3.536 -1.6547 -0.2342 -0.9418
46390SOL    HW245008   9.743   5.260   3.665  0.6978 -0.4531  0.2000
46391SOL     OW45009   4.994   7.336  12.041  0.5207  0.3327 -0.0546
46391SOL    HW145010   5.083   7.354  12.012  0.5438  0.9265  0.3614
46391SOL    HW245011   4.942   7.408  12.006  0.3598  0.4562  0.4343
46392SOL     OW45012   4.413   6.412   0.340  0.2969  0.0545  0.1207
46392SOL    HW145013   4.367   6.361   0.407  0.8025 -1.0411 -0.3546
46392SOL    HW245014   4.506   6.390   0.352  0.3098 -1.0623 -1.6562
46393SOL     OW45015   1.088   1.587   9.864 -0.0234  0.0643 -0.1432
46393SOL    HW145016   1.120   1.643   9.793  0.7708 -1.3729 -0.9836
46393SOL    HW245017   1.161   1.582   9.925  0.8314 -1.8433 -1.2183
46394SOL     OW45018   8.412   7.348   8.051 -0.0127  0.4015 -0.5434
46394SOL    HW145019   8.366   7.430   8.072  1.1828  0.7985  0.6298
46394SOL    HW245020   8.347   7.280   8.067 -0.9962  1.0856 -1.4446
46395SOL     OW45021   4.515   7.996   4.632  0.8281  0.3599 -0.0387
46395SOL    HW145022   4.439   8.034   4.675  0.3829  0.0957 -0.5814
46395SOL    HW245023   4.516   7.905   4.662 -0.4484 -0.2977 -1.8148
46396SOL     OW45024   9.180   2.250  11.972  0.1123 -0.2083 -0.3009
46396SOL    HW145025   9.215   2.165  12.000  0.5300  0.2614  0.6712
46396SOL    HW245026   9.085   2.243  11.987  0.1991 -0.3583  0.2253
46397SOL     OW45027   6.644   1.634   1.529 -0.1840  0.0667  0.4920
46397SOL    HW145028   6.672   1.547   1.500 -0.4017  0.8649 -2.3459
46397SOL    HW245029   6.683   1.643   1.616  1.2215 -2.2122  0.1830
46398SOL     OW45030   7.659   0.105   4.099 -0.7054  1.1644  0.3850
46398SOL    HW145031   7.706   0.035   4.145 -0.2075  1.4253  0.2763
46398SOL    HW245032   7.678   0.184   4.149  0.6733  1.6344 -0.8248
46399SOL     OW45033   5.486   3.256   7.336  0.1072  0.2660 -0.2293
46399SOL    HW145034   5.419   3.310   7.295  0.0359  0.3110 -0.0558
46399SOL    HW245035   5.540   3.225   7.264  1.2961  2.1004 -0.1860
46400SOL     OW45036   1.688   3.447   6.318  0.5961 -1.0274 -0.2257
46400SOL    HW145037   1.747   3.467   6.391 -1.4127 -1.5276  1.6300
46400SOL    HW245038   1.747   3.432   6.243  2.7302 -0.4773  1.2498
46401SOL     OW45039  10.202   9.442   0.078 -0.3297 -0.8728 -0.4611
46401SOL    HW145040  10.161   9.483   0.155 -0.6395 -2.8082  0.4626
46401SOL    HW245041  10.274   9.501   0.055 -1.0895  0.4646  0.4369
46402SOL     OW45042   2.652   3.528   7.808  0.0237 -0.4030  0.2772
46402SOL    HW145043   2.676   3.497   7.896 -0.1673  0.3759  0.6094
46402SOL    HW245044   2.736   3.538   7.763  0.2866  1.2792  1.0844
46403SOL     OW45045   7.657   0.517   2.596 -0.4557 -0.2239  0.0026
46403SOL    HW145046   7.700   0.452   2.542 -1.4217 -0.4316 -0.5321
46403SOL    HW245047   7.725   0.546   2.658  1.4152  1.7113 -2.7406
46404SOL     OW45048   8.526   0.294   8.290 -0.8157 -0.3096  0.2546
46404SOL    HW145049   8.477   0.305   8.208  0.5257  1.6655 -0.3425
46404SOL    HW245050   8.618   0.292   8.262 -0.4082 -2.2734  1.5087
46405SOL     OW45051   4.912   8.695   4.426  0.1638  0.1585 -0.0284
46405SOL    HW145052   4.882   8.605   4.413  0.1514  0.0509  0.7220
46405SOL    HW245053   4.837   8.749   4.399  0.2602 -0.0400 -0.7248
46406SOL     OW45054   2.682   4.547   5.691  0.4389 -0.1362 -0.2258
46406SOL    HW145055   2.670   4.614   5.758 -2.6087 -2.0977  1.3863
46406SOL    HW245056   2.609   4.560   5.631  0.9161 -0.8444 -0.9707
46407SOL     OW45057   7.316  11.506   7.887  0.3000 -0.0176 -0.1074
46407SOL    HW145058   7.309  11.563   7.963 -0.1687 -1.3965  0.9417
46407SOL    HW245059   7.240  11.528   7.833  0.5155  0.8281 -0.0671
46408SOL     OW45060   1.921   7.301  10.948  0.4577  0.1489 -0.7739
46408SOL    HW145061   1.942   7.208  10.934  1.2758 -0.1053  1.6900
46408SOL    HW245062   1.827   7.307  10.928  0.1272 -1.4670  0.0846
46409SOL     OW45063   3.297  10.836   5.754  0.2521 -0.2843 -0.2403
46409SOL    HW145064   3.382  10.876   5.772 -0.3510  1.4721 -1.0949
46409SOL    HW245065   3.290  10.766   5.819  1.4064  0.9310  1.2870
46410SOL     OW45066  10.658   6.800   4.722 -0.4714  0.3041 -0.0932
46410SOL    HW145067  10.631   6.890   4.704 -0.3062  0.2821 -0.4675
46410SOL    HW245068  10.753   6.802   4.714 -0.4050  0.2523  0.6280
46411SOL     OW45069  11.797   3.275   1.553  0.8667 -0.1664  0.2640
46411SOL    HW145070  11.862   3.303   1.618 -0.9049  1.5838  1.3746
46411SOL    HW245071  11.815   3.182   1.541  2.0669 -0.2645  2.3306
46412SOL     OW45072  11.577   1.652   0.427 -0.0905  0.2569 -0.3204
46412SOL    HW145073  11.614   1.740   0.434 -0.0861  0.1688  1.1251
46412SOL    HW245074  11.493   1.658   0.474 -0.1189 -0.4848 -0.2700
46413SOL     OW45075  10.142   9.943   5.736 -0.4392 -0.1212  0.0406
46413SOL    HW145076  10.084   9.998   5.788 -1.1639 -0.5455 -0.3086
46413SOL    HW245077  10.144   9.985   5.650  0.7818  0.5975  0.3827
46414SOL     OW45078  12.123   6.606   5.837  0.0403  0.1608 -0.6939
46414SOL    HW145079  12.029   6.594   5.850  0.1800 -0.9198 -0.5847
46414SOL    HW245080  12.152   6.654   5.914 -0.3873  0.3291 -0.6345
46415SOL     OW45081   9.103   5.541   6.390  0.1552 -0.3953 -0.1530
46415SOL    HW145082   9.107   5.484   6.313  0.9333  0.6261 -0.8926
46415SOL    HW245083   9.126   5.484   6.463  0.2975 -1.1705 -0.7865
46416SOL     OW45084   7.018  12.292   7.253 -0.3033 -0.2821  0.2384
46416SOL    HW145085   6.952  12.342   7.205  1.0013  1.8935  0.6311
46416SOL    HW245086   6.976  12.273   7.337 -1.2568 -0.9732 -0.3659
46417SOL     OW45087   7.924   2.602  11.928  0.2364 -0.6788  0.1733
46417SOL    HW145088   7.977   2.682  11.922  0.9252 -1.1292  0.0700
46417SOL    HW245089   7.936   2.572  12.018 -2.1936  0.7632  1.0712
46418SOL     OW45090   4.983   6.304   3.764 -0.3846  0.2117 -0.3421
46418SOL    HW145091   5.048   6.235   3.780  0.8453  1.6493  1.2678
46418SOL    HW245092   4.900   6.265   3.790  0.5127 -0.1529  2.2220
46419SOL     OW45093   6.167   3.653   6.064  0.5070  0.1952  0.1517
46419SOL    HW145094   6.209   3.736   6.088  0.8540 -0.2097  0.9704
46419SOL    HW245095   6.200   3.634   5.976  1.2022  0.4301  0.3528
46420SOL     OW45096   2.473   2.243   4.567  0.1612 -0.1309 -0.2440
46420SOL    HW145097   2.560   2.207   4.583  0.1855 -0.9235 -1.8767
46420SOL    HW245098   2.488   2.336   4.547  0.8194 -0.5245 -1.7354
46421SOL     OW45099   9.078   3.591   1.280 -0.4295 -0.5715  0.0574
46421SOL    HW145100   9.164   3.564   1.310 -0.4266  0.3124  0.8784
46421SOL    HW245101   9.094   3.648   1.205 -0.3996 -1.9633 -1.0405
46422SOL     OW45102  10.267  10.551  11.853  0.1349  0.5449 -0.1764
46422SOL    HW145103  10.263  10.486  11.923  0.5312  0.6067 -0.0891
46422SOL    HW245104  10.311  10.627  11.894 -1.0645  1.1905 -0.0337
46423SOL     OW45105   3.975   4.124   8.610 -0.1285  0.4021  0.2652
46423SOL    HW145106   3.964   4.030   8.616  1.3543  0.0792 -1.2231
46423SOL    HW245107   3.919   4.160   8.679 -0.6037 -1.5552  0.9509
46424SOL     OW45108   1.285  10.070   8.377  0.1601  0.3035  0.8189
46424SOL    HW145109   1.304   9.987   8.333  3.5868  0.8934  0.9225
46424SOL    HW245110   1.277  10.047   8.469  0.7121  0.0254  0.8028
46425SOL     OW45111   8.323   8.016   3.428 -0.1390 -0.1257  0.3739
46425SOL    HW145112   8.237   7.975   3.433 -0.0854 -0.3062 -0.1276
46425SOL    HW245113   8.320   8.070   3.349  0.2484 -0.2321  0.2815
46426SOL     OW45114   9.777   8.881   3.906 -0.2292 -0.5330 -0.4469
46426SOL    HW145115   9.753   8.974   3.906 -0.5978 -0.6247 -0.2944
46426SOL    HW245116   9.872   8.880   3.916 -0.1507 -0.1546 -1.0730
46427SOL     OW45117   7.864   6.280   6.954  0.2514  0.2383 -0.7914
46427SOL    HW145118   7.942   6.300   7.005  0.6741  0.7297 -1.5978
46427SOL    HW245119   7.887   6.306   6.864 -0.4756 -0.5531 -1.2284
46428SOL     OW45120   6.766   1.146   9.096 -0.4035  0.2866 -0.5363
46428SOL    HW145121   6.778   1.241   9.108  0.1378 -0.0066  1.7680
46428SOL    HW245122   6.854   1.110   9.104 -0.8571 -0.5779  0.9525
46429SOL     OW45123  11.671  11.664  11.004 -0.3645  0.4226 -0.2150
46429SOL    HW145124  11.708  11.596  11.061  0.1427 -0.9163 -2.0555
46429SOL    HW245125  11.626  11.723  11.064 -0.0866 -1.0639  1.5547
46430SOL     OW45126   1.409   0.511   9.449  0.2889 -0.0112  0.4036
46430SOL    HW145127   1.427   0.423   9.483  1.6665  0.2613  0.4156
46430SOL    HW245128   1.337   0.542   9.504 -0.4692 -1.2525  0.1629
46431SOL     OW45129   6.766  10.273   1.744 -0.3416  0.0079  0.0246
46431SOL    HW145130   6.751  10.324   1.665 -2.3040 -0.5197 -0.0120
46431SOL    HW245131   6.817  10.197   1.716  1.3367  1.1775 -0.1887
46432SOL     OW45132   8.816  11.242   8.479 -0.0103  0.4240 -0.7282
46432SOL    HW145133   8.908  11.224   8.501  0.6764  1.3203 -2.6010
46432SOL    HW245134   8.796  11.322   8.527  0.3668  0.5231 -0.7295
46433SOL     OW45135   9.308   2.871   0.333  0.2797 -0.2442 -0.1443
46433SOL    HW145136   9.248   2.901   0.265  1.2582  0.7554 -0.6003
46433SOL    HW245137   9.381   2.832   0.285  1.5950  1.6220  0.2233
46434SOL     OW45138  10.326   3.918   1.701  0.4889  0.2578  0.2871
46434SOL    HW145139  10.360   3.978   1.634 -0.4789  1.3145  0.7090
46434SOL    HW245140  10.239   3.894   1.669  0.8918 -0.9965  0.0925
46435SOL     OW45141   2.950   2.726  11.727  0.1515  0.5856 -0.1892
46435SOL    HW145142   2.963   2.793  11.794  0.1383  0.0828  0.3293
46435SOL    HW245143   2.955   2.643  11.775 -0.4761  0.2370 -0.7129
46436SOL     OW45144   3.412   2.327   0.531 -0.2724 -0.4115 -0.0703
46436SOL    HW145145   3.445   2.405   0.575  0.2714  0.0770 -1.2898
46436SOL    HW245146   3.470   2.315   0.455 -0.7992 -1.5672 -0.3221
46437SOL     OW45147   5.158  10.152   7.299  0.1215  0.1353 -0.2504
46437SOL    HW145148   5.077  10.186   7.336  1.0076  1.3524  0.6562
46437SOL    HW245149   5.140  10.140   7.206 -0.4329  2.5329 -0.4984
46438SOL     OW45150   6.600   2.246  10.906  0.4261 -0.1442  0.6031
46438SOL    HW145151   6.564   2.311  10.845 -0.8612 -1.0508  0.3757
46438SOL    HW245152   6.695   2.252  10.893  0.2667  0.8649 -0.2619
46439SOL     OW45153   6.241   6.717  12.176  0.4376 -0.1320  0.4605
46439SOL    HW145154   6.189   6.723  12.096  0.1911 -0.5321  0.5903
46439SOL    HW245155   6.290   6.636  12.167  0.1079 -0.3790  0.8967
46440SOL     OW45156   9.564  11.014   2.419 -0.1356  0.0236 -0.0306
46440SOL    HW145157   9.477  11.008   2.460 -0.1989 -1.0268 -0.3007
46440SOL    HW245158   9.566  10.942   2.357  1.5176 -0.9228  1.0612
46441SOL     OW45159   9.262   5.144   3.917 -0.1621  0.0569  0.2475
46441SOL    HW145160   9.357   5.144   3.908 -0.2011  1.7106 -0.5361
46441SOL    HW245161   9.240   5.232   3.948 -1.5179  0.1632 -0.8864
46442SOL     OW45162   5.000   4.061   6.039  0.0597  0.1080  0.2511
46442SOL    HW145163   4.905   4.050   6.040  0.0292  0.3821  0.6333
46442SOL    HW245164   5.030   4.009   5.965 -0.3949  0.0538  0.1051
46443SOL     OW45165   9.548   8.470   3.517 -0.3978 -0.2287  0.1632
46443SOL    HW145166   9.525   8.414   3.443 -0.3318 -1.2395  0.8851
46443SOL    HW245167   9.464   8.498   3.554 -0.4316  0.3618 -0.3400
46444SOL     OW45168   6.101   8.704   7.087  0.3358 -0.4428  0.3023
46444SOL    HW145169   6.035   8.758   7.130  0.2421  1.0864 -1.5760
46444SOL    HW245170   6.183   8.752   7.100  0.6696 -1.0752  0.5754
46445SOL     OW45171   9.342   5.568   8.322 -0.1705 -0.8234  0.5821
46445SOL    HW145172   9.256   5.592   8.357 -1.5934 -2.4033 -1.5707
46445SOL    HW245173   9.345   5.611   8.236  0.6464 -1.7567  0.1235
46446SOL     OW45174   6.682   7.606   7.821  0.1932 -0.1389  0.2365
46446SOL    HW145175   6.643   7.661   7.753 -0.0957 -0.1091  0.4268
46446SOL    HW245176   6.748   7.554   7.774  0.1172  0.0062 -0.0348
46447SOL     OW45177   6.224  10.129   2.096 -0.1111 -0.2936  0.1685
46447SOL    HW145178   6.159  10.070   2.058 -1.2528  0.1409  1.3779
46447SOL    HW245179   6.260  10.176   2.020 -1.4922 -0.2606 -0.4998
46448SOL     OW45180   9.000  10.698   8.699 -0.1307 -0.1436 -0.3363
46448SOL    HW145181   8.938  10.735   8.636 -1.0442 -2.0815 -0.6568
46448SOL    HW245182   8.973  10.607   8.708  1.8397 -0.6887  0.6017
46449SOL     OW45183   4.223   9.851   8.372 -0.2860 -0.3610 -0.4451
46449SOL    HW145184   4.225   9.932   8.424 -2.6098  1.0980 -2.4008
46449SOL    HW245185   4.131   9.823   8.375 -0.2457 -0.8942 -2.6976
46450SOL     OW45186   5.539   2.267  11.527  0.5012  0.2948 -0.7956
46450SOL    HW145187   5.589   2.325  11.584 -3.1055  2.1403  0.7661
46450SOL    HW245188   5.519   2.321  11.450 -0.7127  0.2805 -0.5020
46451SOL     OW45189  10.579   8.663   5.353 -0.0397  0.0746  0.2739
46451SOL    HW145190  10.552   8.744   5.397 -0.6659 -0.4540  0.8951
46451SOL    HW245191  10.568   8.681   5.260 -1.4181  0.2877  0.4539
46452SOL     OW45192   0.816  11.249  11.514  0.1788 -0.5442 -0.3442
46452SOL    HW145193   0.860  11.199  11.583  3.5444  3.3632  0.7909
46452SOL    HW245194   0.774  11.321  11.560  0.6405  0.9643 -2.1733
46453SOL     OW45195   7.789   4.076   2.761  0.2184  0.3848  0.6443
46453SOL    HW145196   7.861   4.014   2.774  1.2270  0.8095 -2.1890
46453SOL    HW245197   7.718   4.043   2.815  2.5195  0.0003  3.6857
46454SOL     OW45198  11.883   7.628   6.748 -0.1443 -0.0687  0.2233
46454SOL    HW145199  11.803   7.675   6.726  0.0510  0.7391  1.1341
46454SOL    HW245200  11.853   7.543   6.780 -0.5082 -0.5574 -1.3736
46455SOL     OW45201   3.376   5.149   9.001 -0.0189  0.5526  0.5954
46455SOL    HW145202   3.445   5.216   8.992 -0.9697  1.3096 -2.1362
46455SOL    HW245203   3.346   5.157   9.091  2.4992  1.1254  1.4781
46456SOL     OW45204   8.226   0.747   0.710 -0.2724 -0.0599 -0.3439
46456SOL    HW145205   8.246   0.833   0.672 -1.0087  0.7344  0.9800
46456SOL    HW245206   8.131   0.739   0.701 -0.1836 -0.8408 -0.6408
46457SOL     OW45207   4.437   3.205   8.004  0.0830  0.4134  0.3338
46457SOL    HW145208   4.400   3.269   7.943  0.8410 -1.3471 -2.1056
46457SOL    HW245209   4.449   3.126   7.952  0.7275 -1.2392  2.8261
46458SOL     OW45210   6.650  10.831   2.484  0.5148 -0.0306  0.2724
46458SOL    HW145211   6.580  10.774   2.515  1.8233 -1.7109  0.2847
46458SOL    HW245212   6.682  10.875   2.562  1.5713 -1.7179  0.8533
46459SOL     OW45213   0.781   5.369   6.315  0.0953  0.5009  0.0384
46459SOL    HW145214   0.704   5.364   6.372  0.2212  0.4492  0.2056
46459SOL    HW245215   0.845   5.419   6.365  0.1339  0.6318 -0.1432
46460SOL     OW45216   4.565   0.352   7.357 -0.3454  0.0855  0.4870
46460SOL    HW145217   4.564   0.423   7.293  1.9740  0.7807  1.1186
46460SOL    HW245218   4.477   0.353   7.394 -1.1923  0.8280 -1.4183
46461SOL     OW45219   8.945   6.012   1.826  0.2249 -0.1279 -0.0359
46461SOL    HW145220   9.021   6.065   1.805  0.5950 -0.5735  0.1562
46461SOL    HW245221   8.926   6.031   1.917 -0.0938  0.2256 -0.1747
46462SOL     OW45222   4.893   9.804   2.115 -0.2019 -0.3699 -0.4402
46462SOL    HW145223   4.922   9.822   2.204  1.3391  2.3627 -1.3699
46462SOL    HW245224   4.798   9.800   2.121 -0.1309 -0.0966  1.3138
46463SOL     OW45225   1.697   0.189  11.433 -0.2233 -0.1817  0.4600
46463SOL    HW145226   1.641   0.121  11.395  0.8641 -0.0400 -1.5124
46463SOL    HW245227   1.635   0.253  11.468 -1.4165  0.3000 -2.2450
46464SOL     OW45228   7.500   6.784   3.503  0.0191  0.3630 -0.0226
46464SOL    HW145229   7.526   6.830   3.583 -3.1000  0.5067  1.0671
46464SOL    HW245230   7.504   6.851   3.434  0.0010  1.0126  0.6004
46465SOL     OW45231   2.690   5.122   2.086  0.0438 -0.2591 -0.0079
46465SOL    HW145232   2.619   5.109   2.149  1.5626  0.7680  2.0232
46465SOL    HW245233   2.646   5.154   2.007 -1.6966  1.2195  1.4669
46466SOL     OW45234  10.284  11.617   1.735 -0.1186  0.2815 -0.0663
46466SOL    HW145235  10.209  11.571   1.773  0.1236  0.6966  0.9549
46466SOL    HW245236  10.341  11.547   1.703  0.0531 -0.1388  1.0946
46467SOL     OW45237   6.944   9.684   7.255 -0.3510  0.3349 -0.3183
46467SOL    HW145238   6.934   9.627   7.179 -1.4568  1.4395 -1.0363
46467SOL    HW245239   7.032   9.721   7.244  0.5185 -1.4043  0.3302
46468SOL     OW45240   0.041  11.751   4.162  1.0314  0.2597  0.1902
46468SOL    HW145241   0.044  11.784   4.073  0.5767  1.3733  0.5644
46468SOL    HW245242   0.098  11.810   4.212  0.4747  0.2867  0.8153
46469SOL     OW45243  11.052   8.078   7.445  0.0947 -0.2801 -0.1044
46469SOL    HW145244  10.967   8.036   7.435 -0.2736  0.1281  1.1565
46469SOL    HW245245  11.115   8.007   7.442 -0.3018 -0.6204 -0.6889
46470SOL     OW45246  11.155   6.915   0.149 -0.6378 -0.0689 -0.2348
46470SOL    HW145247  11.116   6.934   0.235 -2.7124  0.0932 -1.1524
46470SOL    HW245248  11.219   6.985   0.136 -1.2451  0.6745  0.6181
46471SOL     OW45249   6.106   5.279  12.120  0.1436  0.5869  0.2313
46471SOL    HW145250   6.169   5.339  12.080 -0.1483  0.0296 -1.1473
46471SOL    HW245251   6.027   5.287  12.065 -0.5939  0.4288  1.2369
46472SOL     OW45252   1.237   6.567   5.337  0.2970 -0.2363  0.0947
46472SOL    HW145253   1.331   6.556   5.355  0.6594 -0.3559 -1.6615
46472SOL    HW245254   1.212   6.645   5.387  0.7169 -1.5501  2.5283
46473SOL     OW45255   1.887   7.715   6.186  0.1216 -0.4908  0.6346
46473SOL    HW145256   1.860   7.742   6.098 -0.1589 -3.2185 -0.2105
46473SOL    HW245257   1.982   7.724   6.186 -0.0420  1.6845  0.8958
46474SOL     OW45258   3.064   2.430   4.137  0.5590  0.0097  1.0239
46474SOL    HW145259   3.137   2.421   4.076  0.4228 -0.1945  0.8910
46474SOL    HW245260   3.081   2.513   4.182 -0.2926  1.1130 -0.5719
46475SOL     OW45261   8.667   5.992   4.888 -0.1586 -0.2694 -0.3120
46475SOL    HW145262   8.761   5.984   4.905 -0.4010 -4.2365 -0.0841
46475SOL    HW245263   8.628   6.001   4.975 -0.1404 -1.9369 -0.0984
46476SOL     OW45264   0.194   8.323  10.459 -0.3765  0.7991 -0.2234
46476SOL    HW145265   0.178   8.265  10.534  1.4809 -0.0551 -0.4333
46476SOL    HW245266   0.120   8.307  10.400 -1.5109  0.9861  1.0984
46477SOL     OW45267   2.960   2.878  10.087  0.2163  0.5160  0.3056
46477SOL    HW145268   2.922   2.920  10.164  1.1173  1.1224  0.4263
46477SOL    HW245269   2.943   2.938  10.015  0.6159  0.6153  0.2921
46478SOL     OW45270  11.639  10.702   9.074 -0.7648 -0.2025  0.1770
46478SOL    HW145271  11.725  10.735   9.046 -1.1293  0.7577  0.1362
46478SOL    HW245272  11.593  10.682   8.992 -0.8284 -0.0390  0.1702
46479SOL     OW45273   2.222   0.699   8.544 -0.2939 -0.3257  0.3912
46479SOL    HW145274   2.224   0.673   8.452  1.4618 -1.9730  0.8291
46479SOL    HW245275   2.311   0.730   8.562 -0.2812 -1.0912  1.7938
46480SOL     OW45276   8.368   6.439   7.152 -0.0668  0.7695 -0.2326
46480SOL    HW145277   8.336   6.477   7.233  0.2025  1.1027 -0.2822
46480SOL    HW245278   8.459   6.415   7.171 -0.6637 -1.3205  0.3104
46481SOL     OW45279  10.874   3.408   7.604  0.5058 -0.6634 -0.4891
46481SOL    HW145280  10.962   3.398   7.640  1.0699 -3.2421 -2.3130
46481SOL    HW245281  10.884   3.471   7.532 -0.0783  2.2723  1.7953
46482SOL     OW45282   7.431   3.036  11.826  0.2406 -0.1758 -0.3218
46482SOL    HW145283   7.407   3.117  11.873  0.7886 -1.9660  3.4010
46482SOL    HW245284   7.347   3.003  11.793 -0.1768  1.2071 -0.7383
46483SOL     OW45285   1.546   8.415   8.797  0.3452 -0.3333  0.0742
46483SOL    HW145286   1.588   8.496   8.767  1.2245 -0.8305 -0.0464
46483SOL    HW245287   1.559   8.415   8.892  0.0301 -0.1638  0.1204
46484SOL     OW45288   8.625   6.375   7.225 -0.2666  0.1122 -0.4288
46484SOL    HW145289   8.582   6.296   7.259  1.5810 -0.1725  1.4443
46484SOL    HW245290   8.704   6.342   7.182 -0.8864  0.7590 -2.1115
46485SOL     OW45291   2.136   3.217   4.196 -0.0941 -0.2941 -0.0840
46485SOL    HW145292   2.173   3.180   4.276  0.7921 -0.0726 -0.3793
46485SOL    HW245293   2.092   3.143   4.154  0.0457 -0.5776  0.2607
46486SOL     OW45294  10.208  11.554   2.957  0.2047 -0.4701 -0.0717
46486SOL    HW145295  10.150  11.531   3.030  1.0704  0.8128  1.0832
46486SOL    HW245296  10.153  11.605   2.898 -0.5935 -1.8030 -0.5237
46487SOL     OW45297   9.093   3.670   6.979 -0.1500 -0.4918 -0.1468
46487SOL    HW145298   9.142   3.613   7.039 -2.0367  0.7335  2.7918
46487SOL    HW245299   9.023   3.614   6.944 -1.6035 -0.3080  2.2247
46488SOL     OW45300   5.759   2.943   4.713 -0.1161  0.0529 -0.2301
46488SOL    HW145301   5.769   2.976   4.803 -0.5709  0.8961 -0.4781
46488SOL    HW245302   5.705   3.009   4.670  1.6128  0.6294 -1.6377
46489SOL     OW45303   2.407   8.820   5.334  0.1603  0.4833  0.7034
46489SOL    HW145304   2.472   8.889   5.320  2.7341 -2.1664 -2.0447
46489SOL    HW245305   2.453   8.753   5.385 -0.1521 -1.6048 -1.5710
46490SOL     OW45306   4.740   3.045  10.682 -0.0299  0.3277  0.1675
46490SOL    HW145307   4.786   3.126  10.661  0.8709 -0.1963  0.0797
46490SOL    HW245308   4.707   3.059  10.771  0.7671  0.5088  0.4387
46491SOL     OW45309   1.270  10.556   4.109 -0.3786  0.1170  0.3452
46491SOL    HW145310   1.356  10.516   4.119  0.0159 -0.0230 -2.6681
46491SOL    HW245311   1.211  10.499   4.157  0.9014 -1.0500  0.5947
46492SOL     OW45312   1.295  11.038   7.943  0.2747  0.2675  0.5346
46492SOL    HW145313   1.388  11.013   7.942 -0.4610 -2.9426  0.9052
46492SOL    HW245314   1.251  10.962   7.981 -2.5334  1.6864  0.3233
46493SOL     OW45315   7.705   8.182   8.197  0.0291  0.2842 -0.5680
46493SOL    HW145316   7.666   8.156   8.280  0.7497  1.4602  0.1671
46493SOL    HW245317   7.696   8.277   8.195 -1.1235  0.1844 -2.4403
46494SOL     OW45318  11.632   6.205  11.538 -0.1026  0.0308  0.2242
46494SOL    HW145319  11.705   6.143  11.538 -0.1303 -0.0070  0.7344
46494SOL    HW245320  11.559   6.157  11.499 -0.5093 -0.7365  1.8489
46495SOL     OW45321   5.971   7.870   8.205 -0.1722 -0.3400 -0.0922
46495SOL    HW145322   6.055   7.824   8.211 -0.3338 -0.4543  2.1824
46495SOL    HW245323   5.983   7.932   8.133  2.4930  0.8786  1.2598
46496SOL     OW45324   2.259   2.796   9.058 -0.1157  0.5839 -0.0355
46496SOL    HW145325   2.347   2.796   9.021  0.2663  1.3553  0.8202
46496SOL    HW245326   2.263   2.731   9.128 -0.5057 -0.0514 -0.5928
46497SOL     OW45327   8.906   3.187  10.792  0.1937  0.1471 -0.0314
46497SOL    HW145328   8.953   3.186  10.709 -0.4856 -0.0177 -0.4139
46497SOL    HW245329   8.975   3.184  10.858  0.7259  0.0405 -0.5875
46498SOL     OW45330   4.996   4.105   0.517 -0.0769 -0.3232 -0.1638
46498SOL    HW145331   4.938   4.028   0.510 -0.0371 -0.5174  1.3994
46498SOL    HW245332   4.945   4.176   0.478 -1.2808 -0.5463  0.9311
46499SOL     OW45333   8.165   3.303   6.995  0.2569 -0.2849  0.6840
46499SOL    HW145334   8.168   3.374   6.932  2.4713  0.5152  1.5961
46499SOL    HW245335   8.072   3.294   7.017 -0.2715  1.0257 -0.8370
46500SOL     OW45336   4.576   8.308   5.882 -0.2094 -0.2444 -0.4251
46500SOL    HW145337   4.629   8.287   5.958 -2.1667  1.7691  1.6771
46500SOL    HW245338   4.492   8.265   5.898 -0.2875 -0.8277 -2.1322
46501SOL     OW45339  12.151   2.599   5.702 -0.1803 -0.3096  0.0907
46501SOL    HW145340  12.159   2.655   5.624  3.9317 -0.4184  0.1764
46501SOL    HW245341  12.126   2.660   5.772 -1.2373  0.3153 -0.8025
46502SOL     OW45342   8.544   7.496   9.133  0.4900  0.1879  0.1299
46502SOL    HW145343   8.604   7.437   9.179  0.5999  0.5368  0.4414
46502SOL    HW245344   8.466   7.443   9.117  0.2493  0.2133  1.1816
46503SOL     OW45345   3.424   9.203   0.899 -0.3500  0.0804  0.0996
46503SOL    HW145346   3.363   9.246   0.840 -0.4428 -0.2498 -0.0483
46503SOL    HW245347   3.405   9.240   0.986  0.8541  1.7483 -0.2988
46504SOL     OW45348  11.588  10.923   8.276  0.4971  0.2969 -0.4725
46504SOL    HW145349  11.623  10.836   8.296 -0.9774 -0.4457 -1.0126
46504SOL    HW245350  11.646  10.956   8.207  0.8929 -0.3795 -0.4752
46505SOL     OW45351  11.854   3.738   6.136  0.3498 -0.4684  0.6980
46505SOL    HW145352  11.798   3.687   6.077 -0.1354  0.0024  0.7422
46505SOL    HW245353  11.943   3.721   6.107  0.0607  1.5263 -1.6705
46506SOL     OW45354  10.617   1.952   3.457 -0.2396  0.2834  0.3596
46506SOL    HW145355  10.531   1.913   3.474 -0.6796  1.0224 -0.1673
46506SOL    HW245356  10.648   1.908   3.378 -0.4271  0.5029  0.1651
46507SOL     OW45357   1.580   7.096   0.748  0.2550 -0.8942  0.1579
46507SOL    HW145358   1.619   7.149   0.678 -0.1021  0.8045  1.1872
46507SOL    HW245359   1.609   7.137   0.829 -0.7114 -1.7969  0.9987
46508SOL     OW45360   3.608   7.501  12.158  0.3539  0.6056 -0.2181
46508SOL    HW145361   3.581   7.503  12.250  0.6248  1.8423 -0.1463
46508SOL    HW245362   3.639   7.412  12.144  0.8145  0.5458  1.0444
46509SOL     OW45363   2.727  10.034   0.950 -0.3748 -0.1337 -0.3124
46509SOL    HW145364   2.667   9.961   0.970 -0.1314 -1.2283 -3.0584
46509SOL    HW245365   2.765  10.058   1.034 -2.9298 -0.9384  1.1979
46510SOL     OW45366  12.038   4.868   5.113 -0.5487 -0.4894 -0.0800
46510SOL    HW145367  11.993   4.802   5.165 -0.4449  0.3396  1.0785
46510SOL    HW245368  12.021   4.841   5.022 -0.2631 -2.2634  0.3516
46511SOL     OW45369  10.581   4.459   5.953  0.2013  0.5401 -0.0453
46511SOL    HW145370  10.633   4.496   5.881  1.1497  0.3685  0.5439
46511SOL    HW245371  10.514   4.407   5.909  1.1258 -0.0422 -0.7964
46512SOL     OW45372  11.404  10.781   2.188 -0.1465  0.0585  0.6164
46512SOL    HW145373  11.476  10.844   2.177 -0.0413 -0.1129  0.2871
46512SOL    HW245374  11.430  10.728   2.263  1.2301 -1.5054 -0.8628
46513SOL     OW45375   8.208   7.795   6.712 -0.6725 -0.0038  0.5290
46513SOL    HW145376   8.161   7.872   6.745 -0.3653  0.5071 -0.1901
46513SOL    HW245377   8.147   7.755   6.650 -0.1392  0.7450 -0.5191
46514SOL     OW45378   5.496   9.083  11.938 -0.2235 -0.1388  0.0764
46514SOL    HW145379   5.570   9.024  11.925 -0.0598 -0.0167  0.4485
46514SOL    HW245380   5.534   9.171  11.935 -0.2653 -0.0895  0.7903
46515SOL     OW45381   3.655   4.371   9.213  0.7998  0.4462 -0.2079
46515SOL    HW145382   3.603   4.369   9.133  0.5047  1.9924 -0.0798
46515SOL    HW245383   3.642   4.284   9.252 -1.2463  0.5914 -0.4647
46516SOL     OW45384   4.364   5.603   1.687  0.8800  0.2344 -0.2477
46516SOL    HW145385   4.338   5.685   1.646 -0.6410 -1.1112 -2.1568
46516SOL    HW245386   4.296   5.587   1.753 -0.4524 -0.7913 -1.7883
46517SOL     OW45387   5.183   3.262   1.869  0.3251  0.2069 -0.0368
46517SOL    HW145388   5.170   3.342   1.920  0.8240  0.8055 -0.8354
46517SOL    HW245389   5.175   3.290   1.778  0.0482 -0.7409 -0.3198
46518SOL     OW45390   6.469   2.397   8.535  0.2204  0.4090 -0.6428
46518SOL    HW145391   6.441   2.320   8.485  0.6124  0.7431 -1.3883
46518SOL    HW245392   6.389   2.450   8.542 -0.0264 -0.0107 -0.2156
46519SOL     OW45393   0.626   2.055   8.177  0.1307  0.3281  1.0076
46519SOL    HW145394   0.720   2.041   8.170  0.3322  2.2002 -1.0471
46519SOL    HW245395   0.611   2.074   8.270  2.1567  2.2171  1.0292
46520SOL     OW45396   6.942   9.788  10.763 -0.2171 -0.2576  0.3561
46520SOL    HW145397   6.954   9.833  10.679  1.3429 -0.5221  0.4049
46520SOL    HW245398   6.849   9.766  10.766 -0.1771 -0.8709 -1.6327
46521SOL     OW45399   5.638   6.849   1.240 -0.3236  0.0925 -0.1945
46521SOL    HW145400   5.723   6.889   1.226 -0.8883  2.2051  1.7432
46521SOL    HW245401   5.577   6.923   1.244 -1.9707 -1.2198  0.2862
46522SOL     OW45402   8.967   3.560   9.417 -0.2073  0.1698 -0.2414
46522SOL    HW145403   8.886   3.510   9.409  1.0172 -1.8734 -0.5398
46522SOL    HW245404   8.961   3.602   9.503 -0.2875 -2.4553  1.1421
46523SOL     OW45405   4.658   8.692   8.720  0.3680  0.7935 -0.2328
46523SOL    HW145406   4.747   8.710   8.752  0.3662 -0.2872  0.4256
46523SOL    HW245407   4.601   8.715   8.793  0.2329 -0.0058 -0.0774
46524SOL     OW45408   9.623   1.480   6.928 -0.4309  0.5300 -0.2038
46524SOL    HW145409   9.715   1.474   6.904 -0.3210  0.9283  0.0970
46524SOL    HW245410   9.623   1.517   7.016 -0.8255 -0.9026  0.4244
46525SOL     OW45411   0.163   1.199   7.721 -0.1974 -0.3580  0.0662
46525SOL    HW145412   0.232   1.216   7.785  0.1832 -1.0874 -0.1371
46525SOL    HW245413   0.134   1.110   7.739 -1.1661 -0.0309  0.2056
46526SOL     OW45414   6.694  10.154   2.116  0.3153 -0.3992 -0.3674
46526SOL    HW145415   6.674  10.163   2.209 -1.4196  1.1044 -0.8351
46526SOL    HW245416   6.623  10.100   2.081  0.1937  0.1907 -1.0503
46527SOL     OW45417   8.302  10.222   8.879  0.5760  0.0661 -0.1153
46527SOL    HW145418   8.244  10.218   8.955  2.1349 -1.0905  1.0933
46527SOL    HW245419   8.287  10.140   8.832 -0.4041  0.7914 -1.1235
46528SOL     OW45420   8.514   3.543   0.617 -0.1667 -0.0704  0.6813
46528SOL    HW145421   8.494   3.519   0.707  1.1220 -2.1610  0.4878
46528SOL    HW245422   8.555   3.465   0.580 -1.5097  0.3666 -2.0138
46529SOL     OW45423   2.763   5.092   8.066  0.1866 -0.1155  0.4842
46529SOL    HW145424   2.823   5.036   8.114 -0.1899 -1.0211 -0.0779
46529SOL    HW245425   2.798   5.093   7.976 -0.0789  0.1545  0.3826
46530SOL     OW45426   0.814   6.113   9.825  0.2299  0.4355  0.1262
46530SOL    HW145427   0.892   6.151   9.866 -1.4913  2.5633  1.6762
46530SOL    HW245428   0.796   6.169   9.749  0.3856 -0.2601 -0.4354
46531SOL     OW45429   5.077  10.099   8.947  0.5606  0.3440  0.2740
46531SOL    HW145430   5.130  10.134   9.018 -1.6941  0.4610  2.0209
46531SOL    HW245431   4.992  10.142   8.957 -0.5910 -1.4979 -0.9481
46532SOL     OW45432   3.072   8.790   0.670  0.2479 -0.1110 -0.4350
46532SOL    HW145433   3.068   8.800   0.575 -1.6575 -0.6603 -0.4591
46532SOL    HW245434   2.992   8.833   0.701  1.1510  0.6113  0.9892
46533SOL     OW45435   8.200   7.563   4.073 -0.3375  0.1368  0.1195
46533SOL    HW145436   8.243   7.497   4.018 -0.0061  0.6094 -0.1884
46533SOL    HW245437   8.271   7.601   4.125 -0.5986 -0.0688  0.6371
46534SOL     OW45438   6.748   5.183   7.698 -0.6092 -0.3376 -0.6606
46534SOL    HW145439   6.798   5.229   7.631  0.5567 -1.1509 -0.3684
46534SOL    HW245440   6.805   5.112   7.727 -1.5645 -0.7257  0.3505
46535SOL     OW45441   6.255   3.899   9.947 -0.3716 -0.1690  0.2991
46535SOL    HW145442   6.327   3.862   9.998  0.6720  0.2189 -0.8431
46535SOL    HW245443   6.268   3.994   9.951 -0.9834 -0.0814  0.3178
46536SOL     OW45444   9.073   1.507   1.926  0.3766  0.2695 -0.0220
46536SOL    HW145445   9.145   1.569   1.939 -0.6081  0.9564  2.9721
46536SOL    HW245446   9.003   1.560   1.887  0.2642  0.5727  0.5632
46537SOL     OW45447   1.094   2.520   4.284  0.2971  0.4748  0.1032
46537SOL    HW145448   1.082   2.523   4.189 -2.3474  1.1943  0.3961
46537SOL    HW245449   1.116   2.429   4.302  0.4259  0.2322 -1.1571
46538SOL     OW45450   7.877   0.024  11.706 -0.4049  0.2579  0.0320
46538SOL    HW145451   7.877   0.005  11.800  0.7325 -0.2924 -0.0668
46538SOL    HW245452   7.828  -0.049  11.667  0.8087 -0.5755  0.0194
46539SOL     OW45453   8.920   1.361   3.563 -0.2917  0.3191  0.5129
46539SOL    HW145454   8.851   1.428   3.559 -0.0455  0.5523  0.0866
46539SOL    HW245455   8.872   1.278   3.569 -0.5941  0.5573  1.6822
46540SOL     OW45456   8.765   0.944   2.928  0.3231  0.4524 -0.0482
46540SOL    HW145457   8.806   0.883   2.990 -0.9919 -0.1404  0.2725
46540SOL    HW245458   8.788   0.910   2.842 -0.8504 -0.8853  0.1145
46541SOL     OW45459   2.239   0.170   7.731 -0.1755 -0.0863 -0.6962
46541SOL    HW145460   2.327   0.133   7.730 -0.0494  0.0010  1.6792
46541SOL    HW245461   2.217   0.182   7.638  3.3128  2.2720 -1.4197
46542SOL     OW45462   5.540   3.913   3.257  0.2328  0.2473  0.9092
46542SOL    HW145463   5.569   3.996   3.295  1.2564 -0.2420  1.2330
46542SOL    HW245464   5.597   3.900   3.181 -0.8298  0.4991  0.0540
46543SOL     OW45465   5.796   9.860   8.497  0.4532 -0.4401 -0.7831
46543SOL    HW145466   5.708   9.830   8.517 -0.2074  0.5036 -2.1186
46543SOL    HW245467   5.824   9.807   8.422  0.3688  0.3561 -1.3900
46544SOL     OW45468   3.796   9.533   8.282  0.2221 -0.3094  0.1594
46544SOL    HW145469   3.750   9.546   8.200  2.5436  1.4848 -0.9937
46544SOL    HW245470   3.870   9.476   8.260  1.4362  0.9863  0.7291
46545SOL     OW45471   0.423   3.169   8.092  0.4921  0.1658  0.3639
46545SOL    HW145472   0.423   3.084   8.137 -1.3793 -0.8399 -1.3417
46545SOL    HW245473   0.465   3.151   8.008  0.7420  1.1116  0.2791
46546SOL     OW45474  10.610   7.569   4.872 -0.8178 -0.0165 -0.7652
46546SOL    HW145475  10.668   7.513   4.820  0.8817  0.6560  0.2902
46546SOL    HW245476  10.652   7.573   4.958 -1.7850  1.5191 -0.3142
46547SOL     OW45477   6.604   7.407   2.980 -0.2524  0.3998  0.8382
46547SOL    HW145478   6.556   7.397   2.898  1.6153  1.7349 -0.4867
46547SOL    HW245479   6.667   7.335   2.979 -2.5206 -1.8423  2.9534
46548SOL     OW45480   8.699   4.462   4.508  0.3524 -0.0041  0.7206
46548SOL    HW145481   8.730   4.547   4.539 -1.6705  0.9773  0.2413
46548SOL    HW245482   8.681   4.476   4.415 -1.5851 -0.4615  0.9956
46549SOL     OW45483   1.152   0.377   1.678  0.1622 -0.0704  0.3233
46549SOL    HW145484   1.098   0.299   1.667  1.2533 -0.6586 -1.2121
46549SOL    HW245485   1.227   0.347   1.729  0.4694  0.0165 -0.0735
46550SOL     OW45486   4.633   5.168   9.911 -0.5061  0.2730 -0.7972
46550SOL    HW145487   4.716   5.203   9.877  0.5838 -0.3126  1.1011
46550SOL    HW245488   4.620   5.087   9.863  1.4269 -0.9578  0.6297
46551SOL     OW45489   1.870   8.312   5.888 -0.4920 -0.1436  0.2022
46551SOL    HW145490   1.794   8.260   5.915 -0.7098  0.1149  0.1019
46551SOL    HW245491   1.919   8.327   5.969 -0.8644  0.1883  0.3712
46552SOL     OW45492   5.907   7.165   8.333 -0.4003  0.2825 -0.0708
46552SOL    HW145493   5.993   7.128   8.313 -0.1521  1.2049 -0.7687
46552SOL    HW245494   5.905   7.249   8.286 -1.6888  0.2671 -0.0799
46553SOL     OW45495  10.394   7.208   0.211 -0.0222  0.5558 -0.4818
46553SOL    HW145496  10.445   7.172   0.283 -1.9563 -1.7077 -0.0871
46553SOL    HW245497  10.459   7.239   0.148  1.8289 -1.5312  0.2767
46554SOL     OW45498   9.797   9.304   6.393 -0.3949 -0.5196  0.5175
46554SOL    HW145499   9.766   9.374   6.335  0.1703  0.2302  1.1014
46554SOL    HW245500   9.826   9.350   6.473 -0.1882 -1.4357  0.9833
46555SOL     OW45501   3.012   8.936  11.077 -0.4499 -0.0351  0.3645
46555SOL    HW145502   3.093   8.901  11.114 -0.8592 -1.5151 -0.0932
46555SOL    HW245503   3.032   8.950  10.985 -0.5726  0.0693  0.3533
46556SOL     OW45504   5.093   3.963  10.676  0.1749 -0.1569 -0.0335
46556SOL    HW145505   5.089   3.880  10.630  1.9164 -1.7949  2.5000
46556SOL    HW245506   5.002   3.993  10.680 -0.3584 -1.3840 -1.8956
46557SOL     OW45507   5.208   3.009   6.130 -0.0473  0.1271  0.6232
46557SOL    HW145508   5.256   3.081   6.088 -0.3186  0.0227  0.1333
46557SOL    HW245509   5.236   2.930   6.083 -1.3594  0.1607 -0.2774
46558SOL     OW45510   5.196   5.316   9.313 -0.1060 -0.5490 -0.2021
46558SOL    HW145511   5.112   5.359   9.330  0.2812  0.0864  0.1374
46558SOL    HW245512   5.236   5.367   9.243  0.4594 -0.2061  0.3595
46559SOL     OW45513   4.742   6.876   1.215 -0.3488 -0.4359  0.2586
46559SOL    HW145514   4.766   6.967   1.196  0.2265 -0.7191 -0.4465
46559SOL    HW245515   4.753   6.868   1.310 -0.3059  0.2050  0.3125
46560SOL     OW45516  11.026  11.314   4.498 -0.0070  0.5687 -0.7744
46560SOL    HW145517  11.121  11.303   4.505 -0.0839  0.0566 -0.4816
46560SOL    HW245518  10.996  11.319   4.589 -0.5080 -1.5892 -0.7642
46561SOL     OW45519   9.411   7.492   5.333  0.0164 -0.4234 -0.2553
46561SOL    HW145520   9.445   7.492   5.244 -0.0709 -0.6897 -0.2915
46561SOL    HW245521   9.467   7.553   5.381 -0.3305  0.2073 -0.6411
46562SOL     OW45522   8.733   5.573   8.361 -0.2808  0.1587 -0.0967
46562SOL    HW145523   8.778   5.658   8.354  1.4506 -0.8062 -1.2911
46562SOL    HW245524   8.665   5.577   8.294  0.5862  0.1528 -0.9907
46563SOL     OW45525   1.769   6.551  10.237 -0.2440 -0.3010 -0.2975
46563SOL    HW145526   1.729   6.571  10.321  0.0607  0.7057 -0.3791
46563SOL    HW245527   1.846   6.497  10.259 -0.6902 -0.8322 -0.0167
46564SOL     OW45528   0.074   2.302   1.832  0.7122  0.0682  0.0454
46564SOL    HW145529   0.129   2.292   1.754  1.7738 -1.7055  0.9513
46564SOL    HW245530   0.133   2.283   1.905 -0.8147 -0.6778  1.1387
46565SOL     OW45531   2.392   0.079  11.614  0.1420  0.0598 -0.4541
46565SOL    HW145532   2.320   0.111  11.668 -0.1439 -2.0806  0.5109
46565SOL    HW245533   2.417  -0.005  11.653  3.6490  0.9983 -0.2753
46566SOL     OW45534  10.518  12.025   1.857 -0.0927  0.6794  0.4389
46566SOL    HW145535  10.527  12.059   1.767 -1.4557 -1.4448 -0.5786
46566SOL    HW245536  10.568  11.943   1.856 -0.1560  0.6192  1.6197
46567SOL     OW45537  10.070   0.072   9.839 -0.2908  0.0259  0.1561
46567SOL    HW145538  10.019   0.146   9.871  0.7952  0.5528  0.6975
46567SOL    HW245539  10.161   0.101   9.844  0.0610 -0.8126 -1.0104
46568SOL     OW45540  10.094   0.549  11.955 -0.2912 -0.0010  0.4544
46568SOL    HW145541  10.080   0.507  11.870  1.5295  0.3272 -0.0533
46568SOL    HW245542  10.019   0.522  12.008 -0.9831 -0.9788 -0.9541
46569SOL     OW45543   0.282   1.103   2.740 -0.1376 -0.3449 -0.4955
46569SOL    HW145544   0.357   1.100   2.799  0.0014 -2.0089 -0.7099
46569SOL    HW245545   0.251   1.193   2.745  1.6713  0.2995 -0.1501
46570SOL     OW45546   7.141   3.566  10.820 -0.0623  0.1448 -0.3697
46570SOL    HW145547   7.113   3.634  10.882  1.3713 -0.4558  0.9909
46570SOL    HW245548   7.230   3.591  10.796  0.2295 -0.8762 -0.3974
46571SOL     OW45549   1.182   6.723   0.279  0.6111  0.5461  0.2816
46571SOL    HW145550   1.276   6.740   0.288  0.4643  1.2460  0.5311
46571SOL    HW245551   1.162   6.665   0.352  1.1562 -0.9355 -0.7015
46572SOL     OW45552   8.796   7.719   9.213 -0.1249  0.5911 -0.4715
46572SOL    HW145553   8.776   7.643   9.158  0.1367  0.2449 -0.0921
46572SOL    HW245554   8.734   7.713   9.285  0.8452 -0.0839  0.3308
46573SOL     OW45555   0.516   7.203  11.059  0.6824  0.0295  0.0004
46573SOL    HW145556   0.491   7.166  10.974 -1.7177  1.0298  0.2068
46573SOL    HW245557   0.488   7.138  11.123 -1.3434  1.0276  0.2130
46574SOL     OW45558   6.462   8.925   4.843  0.1221 -0.2521  0.0305
46574SOL    HW145559   6.409   8.960   4.913  0.8111  0.9871 -0.0394
46574SOL    HW245560   6.449   8.985   4.770  1.6106  0.1051  0.0209
46575SOL     OW45561  11.363   4.877   1.435 -0.5335 -0.0127 -0.1370
46575SOL    HW145562  11.355   4.855   1.528 -0.4588 -1.0935 -0.3675
46575SOL    HW245563  11.421   4.953   1.432 -1.0645  0.4396  0.7358
46576SOL     OW45564   7.350   0.027   6.425 -0.0881 -0.0275 -0.5350
46576SOL    HW145565   7.313   0.056   6.508 -0.7915  1.1198 -1.2369
46576SOL    HW245566   7.370   0.107   6.377  0.6793 -0.6622 -1.3259
46577SOL     OW45567   1.297  10.398   2.427  0.0580 -0.1396 -0.2639
46577SOL    HW145568   1.202  10.386   2.425  0.0543 -1.0824  2.6167
46577SOL    HW245569   1.308  10.491   2.449 -0.1761 -0.1617 -0.0530
46578SOL     OW45570   8.209   7.364   5.369  0.4124 -0.3820 -0.3273
46578SOL    HW145571   8.261   7.340   5.292  2.5924  0.6964  0.7345
46578SOL    HW245572   8.233   7.300   5.436 -1.0172 -0.9477 -0.3198
46579SOL     OW45573   7.962   0.745   0.750  0.3425  0.4066 -0.5463
46579SOL    HW145574   7.935   0.784   0.832 -0.4501 -0.2641 -0.4794
46579SOL    HW245575   7.945   0.813   0.684  0.3495  0.6932 -0.2561
46580SOL     OW45576   4.892  10.551  10.963  0.1809 -0.1342  0.5218
46580SOL    HW145577   4.876  10.637  10.924 -2.3191 -0.3427  0.9070
46580SOL    HW245578   4.964  10.514  10.911 -0.7807  0.9446 -1.7183
46581SOL     OW45579   2.885   0.910   6.686 -0.1513 -0.4790  0.0824
46581SOL    HW145580   2.888   0.845   6.756  2.6701  0.5648  1.0810
46581SOL    HW245581   2.968   0.898   6.639 -0.7004  0.7680 -1.2729
46582SOL     OW45582   4.650  11.286   1.199 -0.5219 -0.2067  0.1592
46582SOL    HW145583   4.639  11.191   1.209 -1.0491 -0.0676  0.9573
46582SOL    HW245584   4.661  11.298   1.104 -0.4624 -1.0568  0.0417
46583SOL     OW45585   3.670   3.615  11.029  0.6139  0.2249  0.0101
46583SOL    HW145586   3.581   3.605  10.994  0.7899 -0.0571 -0.3563
46583SOL    HW245587   3.675   3.707  11.054 -0.0343  0.0780  0.7229
46584SOL     OW45588   2.669   3.170   0.163  0.4865  0.2398 -0.3180
46584SOL    HW145589   2.652   3.076   0.152  1.2710  0.1396 -0.7817
46584SOL    HW245590   2.745   3.173   0.221  0.1584  0.6052  0.0913
46585SOL     OW45591   0.691   8.966   5.959 -0.4938 -0.1111 -0.3662
46585SOL    HW145592   0.654   9.021   5.890 -0.6120 -0.3594 -0.5022
46585SOL    HW245593   0.762   8.918   5.916  0.9151  1.3642  0.2076
46586SOL     OW45594   9.531   0.495  12.040  0.6491 -0.2489 -0.5097
46586SOL    HW145595   9.531   0.572  12.097 -2.8197  1.0771 -2.0726
46586SOL    HW245596   9.526   0.421  12.100 -2.2976  1.0634  1.0687
46587SOL     OW45597   3.344  11.339  10.649 -0.1976  0.2256 -0.3790
46587SOL    HW145598   3.281  11.279  10.609 -1.3245 -0.3537  2.0730
46587SOL    HW245599   3.291  11.413  10.678  0.1706 -0.2627  1.7042
46588SOL     OW45600   7.977   4.103  12.031 -0.1339 -0.0246 -0.4427
46588SOL    HW145601   8.071   4.119  12.023  0.0007 -0.0276  0.9442
46588SOL    HW245602   7.946   4.101  11.941  1.1731  0.1014 -0.9223
46589SOL     OW45603   4.526   3.937   1.807 -0.0858 -0.1889  0.4972
46589SOL    HW145604   4.571   3.863   1.846  0.4734  0.2519  0.7036
46589SOL    HW245605   4.591   3.977   1.749 -0.0335  0.7655  1.1983
46590SOL     OW45606   4.434   7.715  11.564  0.1029  0.6167 -0.0139
46590SOL    HW145607   4.364   7.748  11.621 -1.0294 -1.0491 -0.3822
46590SOL    HW245608   4.427   7.769  11.484 -1.1712  0.0798 -0.2869
46591SOL     OW45609   8.435   2.189  11.925 -0.2346 -0.2107  0.1777
46591SOL    HW145610   8.355   2.137  11.915  0.0956 -1.1820  2.0559
46591SOL    HW245611   8.500   2.144  11.872 -0.4932 -0.4595  0.0685
46592SOL     OW45612  10.783   9.069   5.915  0.0032 -0.2158 -0.4659
46592SOL    HW145613  10.875   9.091   5.901  0.1713  0.7122  1.7542
46592SOL    HW245614  10.781   8.973   5.913  1.1184 -0.2620 -0.0539
46593SOL     OW45615   0.073   9.452   2.176  0.1859 -0.8258 -0.8656
46593SOL    HW145616   0.121   9.526   2.213  0.1253 -0.8431 -0.7513
46593SOL    HW245617   0.051   9.479   2.087  0.4420 -0.8347 -0.9310
46594SOL     OW45618   4.937   7.614   7.311  0.6928  0.3862 -0.0278
46594SOL    HW145619   4.951   7.559   7.233  1.1785  1.5700 -0.8129
46594SOL    HW245620   4.920   7.552   7.381  0.1045 -0.7211 -1.1068
46595SOL     OW45621   3.299   8.675  11.870 -0.5057  0.3344  0.3744
46595SOL    HW145622   3.326   8.653  11.781  1.1002 -0.7699  1.0807
46595SOL    HW245623   3.211   8.637  11.878 -0.8634  0.8581 -0.8723
46596SOL     OW45624   9.716  11.256   1.491 -0.3143 -0.1589 -0.0773
46596SOL    HW145625   9.720  11.351   1.486 -1.3888 -0.0128  1.4536
46596SOL    HW245626   9.636  11.237   1.540  1.5590 -1.7212  2.6598
46597SOL     OW45627   9.441   7.921   2.035 -1.0678 -0.4348  0.4329
46597SOL    HW145628   9.477   7.990   1.980  0.9750 -1.6760  0.1142
46597SOL    HW245629   9.384   7.967   2.096 -0.3068  1.4544 -0.1986
46598SOL     OW45630   8.027   5.623   5.297 -0.0283 -0.2884 -0.2497
46598SOL    HW145631   8.094   5.682   5.263 -0.8495 -0.2952 -2.0053
46598SOL    HW245632   7.980   5.593   5.220 -2.0161 -0.3354  0.8979
46599SOL     OW45633   8.590  11.615   1.315 -0.3202 -0.1046  0.2867
46599SOL    HW145634   8.587  11.702   1.355  0.6505 -0.9180  2.3042
46599SOL    HW245635   8.684  11.599   1.299 -0.2004 -1.6309  2.1115
46600SOL     OW45636   7.935   1.887   0.378 -0.3325  0.0452 -0.4189
46600SOL    HW145637   8.018   1.935   0.380 -1.1752  1.6153 -1.1061
46600SOL    HW245638   7.916   1.876   0.285 -0.7547 -0.5975 -0.2666
46601SOL     OW45639   8.790   1.462   7.594 -0.2467  0.0989 -0.0273
46601SOL    HW145640   8.756   1.382   7.633 -0.4869 -0.2445 -0.9125
46601SOL    HW245641   8.885   1.456   7.605 -0.1195 -1.0331 -1.3593
46602SOL     OW45642   9.337  12.054   0.003 -0.0488 -0.1512  0.4044
46602SOL    HW145643   9.331  12.149   0.014 -1.9623 -0.2234  0.2464
46602SOL    HW245644   9.420  12.041  -0.042 -0.4863  1.6011 -1.0338
46603SOL     OW45645   0.360   6.086   8.746  0.0484 -0.0248  0.1706
46603SOL    HW145646   0.283   6.030   8.735  0.4258 -0.5853  0.3489
46603SOL    HW245647   0.434   6.025   8.748  0.6691  0.6029 -1.6124
46604SOL     OW45648  10.114   7.001   6.038  0.1217 -0.1373 -0.1583
46604SOL    HW145649  10.092   6.969   6.125  0.0531 -0.8503 -0.4331
46604SOL    HW245650  10.195   6.956   6.015  1.0987  1.3380  0.2233
46605SOL     OW45651   9.740   0.076   7.579  0.2834 -0.1665  0.1576
46605SOL    HW145652   9.655   0.053   7.541  0.2934  1.4838 -0.9597
46605SOL    HW245653   9.724   0.158   7.625  1.4394  0.6026 -0.7714
46606SOL     OW45654   4.253   0.346   9.723  0.1896  0.0037 -0.5021
46606SOL    HW145655   4.300   0.262   9.723 -1.8819 -1.2336 -0.5666
46606SOL    HW245656   4.233   0.362   9.816  0.2690  0.2398 -0.5259
46607SOL     OW45657   7.567  11.837   7.519  0.5535 -0.0738 -0.3828
46607SOL    HW145658   7.510  11.849   7.443  0.9693  2.4452 -0.3600
46607SOL    HW245659   7.517  11.779   7.576 -1.4799  1.0769 -0.8939
46608SOL     OW45660   4.316   9.380   2.195 -0.6313  0.0183  0.1290
46608SOL    HW145661   4.333   9.409   2.106 -1.0631 -2.0604 -0.6918
46608SOL    HW245662   4.224   9.353   2.195 -0.2624 -1.3411  0.7817
46609SOL     OW45663   6.127  11.807   9.472 -0.0168 -0.9807  0.4681
46609SOL    HW145664   6.190  11.805   9.399 -0.5072  0.4223 -0.0182
46609SOL    HW245665   6.049  11.765   9.436 -0.1726 -0.5214  0.2710
46610SOL     OW45666   5.161   5.813   7.021 -0.6576  0.5498 -0.1173
46610SOL    HW145667   5.210   5.856   7.091 -0.0159  0.3488 -0.4318
46610SOL    HW245668   5.106   5.749   7.066  0.2549 -0.0524  0.1600
46611SOL     OW45669   5.761   7.558   1.396 -1.0681 -0.1683 -0.8387
46611SOL    HW145670   5.671   7.531   1.379 -1.5597  1.7191 -1.5523
46611SOL    HW245671   5.775   7.632   1.336  0.1520  1.1084  0.9185
46612SOL     OW45672   6.096   6.328   0.060 -0.4638  0.3393 -0.7087
46612SOL    HW145673   6.155   6.320  -0.015  0.5254  2.5215 -0.2551
46612SOL    HW245674   6.113   6.249   0.112  1.0751  0.2469 -1.2793
46613SOL     OW45675   3.590   6.375   3.327 -0.1383  0.7646  0.3072
46613SOL    HW145676   3.684   6.387   3.316 -0.1158  1.8212  1.4374
46613SOL    HW245677   3.582   6.319   3.405 -0.4290 -1.1377 -1.0177
46614SOL     OW45678   8.590  10.438   8.454 -0.1009 -0.1399  0.6638
46614SOL    HW145679   8.622  10.355   8.418  3.3718  0.7461  1.3245
46614SOL    HW245680   8.650  10.504   8.419 -0.8156  1.6574  2.6148
46615SOL     OW45681   6.619   7.772   4.518 -0.1342 -0.1637  0.3823
46615SOL    HW145682   6.650   7.682   4.512  2.2143  0.4845  1.3642
46615SOL    HW245683   6.615   7.790   4.612 -1.8874  0.3850  0.2377
46616SOL     OW45684  11.898   5.430   0.450 -0.5482  0.1977 -0.0734
46616SOL    HW145685  11.803   5.432   0.444 -0.6738  0.6017  1.5359
46616SOL    HW245686  11.916   5.401   0.540  0.7923  2.2130  0.3826
46617SOL     OW45687  10.057   6.302   1.665 -0.4548 -0.2515  0.2189
46617SOL    HW145688  10.116   6.320   1.592  0.0998 -0.7645  0.5301
46617SOL    HW245689  10.039   6.209   1.659  1.9448 -0.9528  2.4055
46618SOL     OW45690  11.390   1.604   4.383  0.0216  0.2905  0.7526
46618SOL    HW145691  11.395   1.509   4.396  0.7616  0.3514  1.0129
46618SOL    HW245692  11.481   1.630   4.367 -0.1943  0.9368  0.5577
46619SOL     OW45693   3.170   0.971   6.473 -0.5022  0.1302  0.5554
46619SOL    HW145694   3.148   0.894   6.422 -1.2209  0.5903  0.1447
46619SOL    HW245695   3.258   0.996   6.443  0.1572 -1.0835  1.4080
46620SOL     OW45696   4.408  11.862   5.602  0.7724 -0.1346 -0.5823
46620SOL    HW145697   4.414  11.833   5.693  2.1366  0.9367 -0.2944
46620SOL    HW245698   4.322  11.904   5.596  1.1824  0.9435  0.6042
46621SOL     OW45699   2.177   9.666   9.798 -0.4288 -0.0844  0.1669
46621SOL    HW145700   2.205   9.730   9.863  0.7179 -1.0945  0.7188
46621SOL    HW245701   2.253   9.653   9.742 -0.9388 -0.3061 -0.4887
46622SOL     OW45702   8.298   7.828   9.477  0.0593  0.3777  0.3195
46622SOL    HW145703   8.257   7.758   9.528 -0.4339  0.7303  0.4140
46622SOL    HW245704   8.247   7.906   9.498  1.0057  0.9093  0.7301
46623SOL     OW45705   2.951  11.429   9.735 -0.1110 -0.4104  0.6162
46623SOL    HW145706   2.887  11.491   9.771 -0.3579  0.0979 -0.6623
46623SOL    HW245707   2.965  11.458   9.645  1.9319 -0.5125  0.8562
46624SOL     OW45708   0.417   2.406  10.571 -0.2219 -0.1079  0.2296
46624SOL    HW145709   0.355   2.468  10.534 -0.4344  0.1717  1.0336
46624SOL    HW245710   0.478   2.388  10.500  0.3487  1.6711  0.2179
46625SOL     OW45711   9.791   9.248  11.713 -0.5245  0.1612 -0.7380
46625SOL    HW145712   9.862   9.300  11.750 -1.7420  1.2046  0.2254
46625SOL    HW245713   9.732   9.313  11.674 -1.3824 -0.6097 -0.7436
46626SOL     OW45714   1.248   9.674  11.454 -0.2601  0.3672 -0.5639
46626SOL    HW145715   1.259   9.622  11.534 -1.1754 -1.4231 -1.5477
46626SOL    HW245716   1.244   9.765  11.485 -2.0215 -0.3563  1.5676
46627SOL     OW45717  11.018   2.434  10.929  0.3120  0.0210 -0.1518
46627SOL    HW145718  11.045   2.498  10.994 -0.7050  0.8722 -0.5387
46627SOL    HW245719  11.049   2.350  10.963 -0.3208  0.4321  1.5072
46628SOL     OW45720   4.461  12.052   1.050 -0.3881  0.1891  0.2451
46628SOL    HW145721   4.432  12.143   1.038 -2.1119 -0.1296  1.6798
46628SOL    HW245722   4.398  12.015   1.112  1.1744 -1.5663  0.8431
46629SOL     OW45723   9.514   4.711   7.183  0.1756  0.0067 -0.1694
46629SOL    HW145724   9.537   4.636   7.128 -1.6076 -1.1646  0.5991
46629SOL    HW245725   9.588   4.771   7.173  1.9906 -2.1155 -0.3266
46630SOL     OW45726   9.368   1.481   4.416 -0.1689  0.3680  0.3855
46630SOL    HW145727   9.326   1.559   4.453 -1.4255 -0.8087  1.5914
46630SOL    HW245728   9.461   1.502   4.415 -0.3611  1.4683  1.7997
46631SOL     OW45729   1.999   3.712   1.703 -0.2517  0.0719 -0.5964
46631SOL    HW145730   2.040   3.784   1.655  0.3389  0.3914  0.3431
46631SOL    HW245731   2.065   3.643   1.705 -0.0934  0.2324  0.1202
46632SOL     OW45732  10.007   8.138  10.869 -0.1966  0.0427 -0.2442
46632SOL    HW145733   9.975   8.049  10.851 -1.1146 -0.0636  1.6287
46632SOL    HW245734  10.092   8.124  10.910 -0.1982  0.0406 -0.2406
46633SOL     OW45735   2.864   6.918   3.138  0.0987  0.1372  0.4350
46633SOL    HW145736   2.855   6.885   3.227  3.2715 -1.4226  0.3040
46633SOL    HW245737   2.924   6.992   3.147 -0.2394  0.5107 -0.3352
46634SOL     OW45738   5.909   1.324  12.064 -0.3560 -0.4302 -0.2883
46634SOL    HW145739   5.879   1.248  12.015  0.3641 -1.2774  0.5448
46634SOL    HW245740   5.934   1.290  12.150 -1.1323  0.9394  0.5201
46635SOL     OW45741   7.309   6.339   5.392 -0.0976  0.0338  0.2548
46635SOL    HW145742   7.358   6.406   5.440 -1.0126  0.4796  0.5832
46635SOL    HW245743   7.333   6.353   5.300  1.0477 -0.3158  0.4753
46636SOL     OW45744   9.988   3.014   4.644 -0.4256 -0.3109 -0.0998
46636SOL    HW145745   9.919   3.070   4.680 -0.7623 -1.6492  1.4548
46636SOL    HW245746   9.944   2.933   4.620  0.4978 -0.9622  0.3324
46637SOL     OW45747   8.775  10.984  11.260 -0.0005 -0.2903 -0.2244
46637SOL    HW145748   8.863  10.996  11.226 -0.4199  0.1544 -1.2051
46637SOL    HW245749   8.732  11.068  11.245 -0.7773 -0.6936 -0.3302
46638SOL     OW45750   0.703   6.920   0.466 -0.2366 -0.1179  0.1524
46638SOL    HW145751   0.786   6.905   0.511 -0.6277 -0.2851  0.8341
46638SOL    HW245752   0.695   7.015   0.462  0.4535 -0.0857 -0.8066
46639SOL     OW45753   5.137   6.459   9.734  0.1136  0.4126  0.2934
46639SOL    HW145754   5.202   6.530   9.737  0.4236  0.1739 -0.4570
46639SOL    HW245755   5.106   6.451   9.824  1.3833  0.3051  0.7420
46640SOL     OW45756   2.050   6.718   8.999  0.3538 -0.2737 -0.2924
46640SOL    HW145757   2.003   6.799   8.983 -2.9231 -1.6819  1.3110
46640SOL    HW245758   2.039   6.668   8.917  0.3566  0.0015 -0.4606
46641SOL     OW45759   1.736   8.486   9.627  0.5220  0.5557  0.0181
46641SOL    HW145760   1.818   8.438   9.619 -0.5562 -1.3434 -0.0516
46641SOL    HW245761   1.719   8.520   9.540  0.5290 -0.2748 -0.3139
46642SOL     OW45762   3.720   6.814   2.801 -0.2880 -0.3047 -0.0213
46642SOL    HW145763   3.640   6.841   2.844 -0.2450  0.0214 -0.1432
46642SOL    HW245764   3.762   6.755   2.863 -0.7151 -0.6297 -0.0378
46643SOL     OW45765   4.881   2.780   9.093 -0.7522 -0.1356 -0.0246
46643SOL    HW145766   4.934   2.781   9.173  0.8365  0.1697 -1.0374
46643SOL    HW245767   4.866   2.688   9.074 -0.7623 -0.2185  0.3866
46644SOL     OW45768   9.294  10.876   0.531 -0.0942  0.0421 -0.3109
46644SOL    HW145769   9.239  10.907   0.603 -0.3158 -0.0784 -0.4268
46644SOL    HW245770   9.285  10.943   0.463 -3.0985 -1.6879 -1.8485
46645SOL     OW45771   6.794   4.716   4.216  0.9601  0.2585 -0.1354
46645SOL    HW145772   6.820   4.638   4.263 -0.9335  0.4531  1.3610
46645SOL    HW245773   6.875   4.765   4.203  1.7631 -0.5762  1.4817
46646SOL     OW45774  10.061   0.229   9.404  0.0809 -0.4633  0.3842
46646SOL    HW145775   9.987   0.216   9.464 -1.1302  0.4496 -0.8267
46646SOL    HW245776  10.131   0.176   9.440 -1.4462 -2.0920  1.1262
46647SOL     OW45777   8.354   9.612   1.071  0.3983 -0.3347 -0.9248
46647SOL    HW145778   8.313   9.526   1.064 -1.7195  0.5227  0.1455
46647SOL    HW245779   8.395   9.611   1.157 -0.7792  0.1516 -0.3347
46648SOL     OW45780   1.692   6.720   8.963 -0.3577  0.6991 -0.2118
46648SOL    HW145781   1.611   6.758   8.928  0.0859  0.7681 -1.1909
46648SOL    HW245782   1.711   6.773   9.040 -2.7014 -1.0106  1.6971
46649SOL     OW45783   2.154   1.547   1.021  0.1081 -0.5323 -0.2829
46649SOL    HW145784   2.218   1.592   1.076  0.4114 -1.0331 -0.2263
46649SOL    HW245785   2.074   1.598   1.032 -0.0649 -1.0821  1.2728
46650SOL     OW45786   1.187   1.472   1.827 -0.5503  0.1264  0.3894
46650SOL    HW145787   1.097   1.455   1.801 -0.4422 -1.2641  0.8573
46650SOL    HW245788   1.207   1.405   1.893  0.7802  0.4947  0.3995
46651SOL     OW45789   7.143   0.002   7.885  0.1553 -0.1090 -0.4637
46651SOL    HW145790   7.187  -0.083   7.878  0.2653 -0.1152  0.2193
46651SOL    HW245791   7.198   0.062   7.834  0.2178 -0.3935 -0.7342
46652SOL     OW45792   4.912   7.488   7.798  0.4339 -0.3189  0.0587
46652SOL    HW145793   4.954   7.538   7.728  0.9709  1.4724  1.5768
46652SOL    HW245794   4.821   7.516   7.795  0.6764  0.5911  0.7273
46653SOL     OW45795   3.303   5.977   2.047  0.0607  0.0112  0.3130
46653SOL    HW145796   3.260   5.897   2.017 -0.1538  0.0702  0.4644
46653SOL    HW245797   3.396   5.954   2.052 -0.0152 -0.2625  0.4744
46654SOL     OW45798  10.431   7.827   6.747 -0.7510 -1.1976 -0.2269
46654SOL    HW145799  10.403   7.822   6.655  1.2341 -0.0222 -0.9748
46654SOL    HW245800  10.449   7.919   6.762 -1.2496 -1.3408  1.4533
46655SOL     OW45801   5.871   1.302   2.906 -0.2164 -0.3765  0.3238
46655SOL    HW145802   5.933   1.373   2.923  1.6021 -2.0047  0.8724
46655SOL    HW245803   5.848   1.311   2.814  1.0754  0.1128  0.0258
46656SOL     OW45804  10.304  11.892  10.465  0.0032 -0.2677 -0.1373
46656SOL    HW145805  10.252  11.812  10.475  0.6159 -0.6851 -0.2295
46656SOL    HW245806  10.287  11.942  10.544  0.1998 -0.8405  0.2760
46657SOL     OW45807   6.672   5.677   1.449 -0.0395  0.1411  0.2806
46657SOL    HW145808   6.759   5.662   1.410 -0.0668 -0.1976  0.3432
46657SOL    HW245809   6.663   5.606   1.513  0.1401  0.8807  1.1380
46658SOL     OW45810   1.685  11.825   3.622 -0.3307 -0.2692  0.0610
46658SOL    HW145811   1.639  11.746   3.595 -2.2620  0.3677  1.2839
46658SOL    HW245812   1.738  11.798   3.697  0.0897 -0.6819 -0.3816
46659SOL     OW45813  10.679   1.197  12.022  0.3262 -0.2507 -0.1790
46659SOL    HW145814  10.750   1.137  11.998 -0.6883 -1.1121 -1.1464
46659SOL    HW245815  10.603   1.141  12.035 -0.6070  0.7926 -0.9015
46660SOL     OW45816   3.576   0.026   3.042  0.7795  0.5577  0.2927
46660SOL    HW145817   3.564   0.121   3.048 -0.9467  0.4305 -0.4290
46660SOL    HW245818   3.487  -0.009   3.036  1.4233 -0.9244 -1.6451
46661SOL     OW45819   4.931  10.990  11.279  0.0910 -0.1342 -0.2537
46661SOL    HW145820   4.868  11.015  11.346 -1.2813  1.1262 -1.9458
46661SOL    HW245821   4.990  11.064  11.272  0.1716 -0.2209 -0.5082
46662SOL     OW45822   9.244  11.284   5.233  0.3739  0.3423 -0.0586
46662SOL    HW145823   9.250  11.358   5.172  0.3264  0.3967  0.0025
46662SOL    HW245824   9.248  11.207   5.177 -1.7406  0.3849 -0.3513
46663SOL     OW45825   0.978   6.819  11.174  0.0739  0.1382  0.4553
46663SOL    HW145826   1.020   6.808  11.089 -0.5569 -1.3129  0.3033
46663SOL    HW245827   0.915   6.890  11.160 -0.7750 -0.7804 -0.6084
46664SOL     OW45828   2.391   1.926  12.217  0.1448  0.2401 -0.0143
46664SOL    HW145829   2.476   1.938  12.175  0.2415 -1.2882 -0.3238
46664SOL    HW245830   2.387   1.994  12.284  1.7099  0.1998  0.1589
46665SOL     OW45831   0.198  10.411   6.709  0.5167  0.4809  0.6320
46665SOL    HW145832   0.157  10.494   6.734  1.0396  0.6265  1.0240
46665SOL    HW245833   0.261  10.394   6.779  0.9526  0.1399  0.1600
46666SOL     OW45834   9.319   8.973   5.628 -0.8409 -0.5797  0.3805
46666SOL    HW145835   9.305   8.986   5.722  0.3343  0.2728  0.4585
46666SOL    HW245836   9.254   8.907   5.603 -0.1797 -1.9684  2.1042
46667SOL     OW45837   4.032  11.008   6.869  0.0748 -0.2083  0.0070
46667SOL    HW145838   4.038  10.980   6.960  1.6211  2.8055  0.9319
46667SOL    HW245839   3.958  11.068   6.866 -0.9362 -1.4138 -1.1554
46668SOL     OW45840   4.454   5.400   5.049  0.5890 -0.1789 -0.4429
46668SOL    HW145841   4.366   5.428   5.024  0.5308  0.1367  0.0942
46668SOL    HW245842   4.476   5.456   5.124  1.2621 -0.2284 -0.6009
46669SOL     OW45843   8.442  11.125   1.227  0.2195 -0.1339 -0.1109
46669SOL    HW145844   8.480  11.183   1.293 -0.2353 -0.5613  0.5388
46669SOL    HW245845   8.489  11.042   1.237  0.1910 -0.1825 -0.3690
46670SOL     OW45846   1.066   1.585   4.086  0.1413 -0.3978 -0.4369
46670SOL    HW145847   1.081   1.680   4.083 -0.6147 -0.1052  2.4507
46670SOL    HW245848   1.048   1.561   3.995  0.2563  2.2406 -1.2366
46671SOL     OW45849   2.224   8.525   4.104  0.4126  0.0196 -0.3680
46671SOL    HW145850   2.232   8.527   4.200 -0.9509  0.3035 -0.2459
46671SOL    HW245851   2.265   8.442   4.079 -0.5265 -0.7673  0.6083
46672SOL     OW45852   4.169   3.144  10.183  0.4901  0.1032  0.1962
46672SOL    HW145853   4.262   3.129  10.197  0.6844  1.3901  0.4534
46672SOL    HW245854   4.132   3.057  10.167  1.7944 -0.3799 -0.3040
46673SOL     OW45855  11.358   5.454   0.029  0.6673 -0.1587 -0.1079
46673SOL    HW145856  11.441   5.464   0.076  0.7533 -0.1977 -0.2519
46673SOL    HW245857  11.315   5.380   0.072 -0.1507  1.0233  1.2201
46674SOL     OW45858  11.131   0.896  10.600 -0.1997 -0.3650  0.1740
46674SOL    HW145859  11.134   0.986  10.634  3.5130  0.2588 -1.2755
46674SOL    HW245860  11.066   0.899  10.530  0.1325  1.3454 -0.1054
46675SOL     OW45861   2.552   0.822   3.261 -0.0364 -0.5073  0.0181
46675SOL    HW145862   2.567   0.844   3.352  1.8657 -1.1682 -0.0914
46675SOL    HW245863   2.469   0.864   3.239  1.0260  2.3841  1.1253
46676SOL     OW45864   0.062   2.331   0.031  0.4897 -0.3890  0.8282
46676SOL    HW145865   0.113   2.409   0.010 -1.8599  0.7571 -1.0676
46676SOL    HW245866   0.125   2.260   0.029  2.4339  1.2316  1.0814
46677SOL     OW45867   8.862   0.718   3.078  0.0773 -0.1373 -0.2738
46677SOL    HW145868   8.919   0.762   3.142 -0.2447  1.1346 -0.8319
46677SOL    HW245869   8.910   0.639   3.053  0.1602 -0.7495  1.6177
46678SOL     OW45870   9.088   6.719   4.917  0.4680  0.1117  0.0616
46678SOL    HW145871   9.026   6.733   4.989  1.1536 -0.1080  0.7162
46678SOL    HW245872   9.162   6.674   4.958  0.8677 -0.0282 -0.7933
46679SOL     OW45873   0.359   5.635   9.658  0.2006 -0.3911  0.7742
46679SOL    HW145874   0.425   5.569   9.680  0.0977 -1.4437 -1.7071
46679SOL    HW245875   0.283   5.583   9.630 -1.3320  0.8028  2.5288
46680SOL     OW45876  11.168  10.789   5.133 -0.6370 -0.3174  0.1285
46680SOL    HW145877  11.204  10.738   5.205  1.5782 -2.1706 -2.0687
46680SOL    HW245878  11.127  10.724   5.076 -2.0213  1.0320 -0.4893
46681SOL     OW45879   8.561   2.220   2.286 -0.1137 -0.2478  0.5923
46681SOL    HW145880   8.628   2.229   2.353  2.0793 -4.4056 -0.7373
46681SOL    HW245881   8.587   2.282   2.217  0.3109  0.6372  1.5207
46682SOL     OW45882   4.833   0.237   2.458 -0.0616 -0.2771 -0.2216
46682SOL    HW145883   4.791   0.295   2.521  0.5165  0.3309 -0.3790
46682SOL    HW245884   4.764   0.214   2.396 -0.2456  0.4589 -0.2982
46683SOL     OW45885   7.182   1.747   4.817 -0.0134 -0.1157  0.4845
46683SOL    HW145886   7.276   1.757   4.804 -0.3100  0.1176 -1.8888
46683SOL    HW245887   7.158   1.819   4.875  1.0722  0.6846 -0.0108
46684SOL     OW45888   1.974  10.034   3.424 -0.1223  0.0050 -0.0536
46684SOL    HW145889   2.062   9.996   3.426 -0.6055 -1.1829 -0.5686
46684SOL    HW245890   1.974  10.098   3.495  1.1902  0.1082 -0.1157
46685SOL     OW45891   1.455  10.678  10.266 -0.1150 -0.1713 -0.3076
46685SOL    HW145892   1.381  10.733  10.294  1.2359  1.7335 -0.2526
46685SOL    HW245893   1.516  10.739  10.225  2.5765 -1.1401  1.8745
46686SOL     OW45894   3.245   0.611   7.349 -0.2208 -0.1990  0.4936
46686SOL    HW145895   3.300   0.618   7.426 -0.6349  0.8389  0.7088
46686SOL    HW245896   3.169   0.561   7.378 -0.7415  0.8516  0.9831
46687SOL     OW45897   3.872   1.941   2.889 -0.0435  0.1072  0.6387
46687SOL    HW145898   3.822   1.911   2.965 -0.0558  0.1145  0.6336
46687SOL    HW245899   3.864   1.869   2.826 -1.3193  0.7197  0.0522
46688SOL     OW45900  12.260   1.567   2.630  0.4469  0.4246 -0.2517
46688SOL    HW145901  12.186   1.583   2.688 -0.8057 -2.3351 -0.8940
46688SOL    HW245902  12.237   1.612   2.549 -0.6061 -0.4307 -0.4562
46689SOL     OW45903  12.311   0.972   5.557  0.4672 -0.2082 -0.0584
46689SOL    HW145904  12.245   1.040   5.570 -0.4858 -1.0228 -0.4986
46689SOL    HW245905  12.366   1.005   5.486  2.3442  1.7646  2.1123
46690SOL     OW45906   9.350  12.154   2.430 -0.4100  0.0497 -0.0913
46690SOL    HW145907   9.369  12.068   2.390  0.2966  0.1227  0.0745
46690SOL    HW245908   9.256  12.165   2.419 -0.1505  0.4106 -2.4553
46691SOL     OW45909   9.110  11.823   6.722  0.0348 -0.3466 -0.0179
46691SOL    HW145910   9.041  11.887   6.704 -1.5472 -1.5893  1.2939
46691SOL    HW245911   9.187  11.857   6.676 -0.7252  2.4610  0.5922
46692SOL     OW45912   8.176   4.402   8.188  0.3335  0.1287 -0.0770
46692SOL    HW145913   8.124   4.446   8.121  1.4627  1.1829 -0.2932
46692SOL    HW245914   8.135   4.429   8.271  0.1018  0.3722 -0.2694
46693SOL     OW45915  11.164   4.802   1.234  0.0624  0.5798 -0.5971
46693SOL    HW145916  11.175   4.817   1.328 -1.1575  1.7775 -0.6148
46693SOL    HW245917  11.203   4.878   1.192  1.1023 -0.2077 -1.1273
46694SOL     OW45918   3.195  10.778   8.868 -0.7297 -0.2081  0.7219
46694SOL    HW145919   3.217  10.736   8.951  0.2644  0.6726  0.9152
46694SOL    HW245920   3.107  10.744   8.847  0.3315 -3.0473  0.4088
46695SOL     OW45921   4.972   5.722   5.918  0.6728 -0.0011  0.1786
46695SOL    HW145922   4.964   5.703   5.824  0.5815 -3.9064  0.7802
46695SOL    HW245923   5.063   5.699   5.939  0.0193 -1.6838  1.4051
46696SOL     OW45924   9.644  10.596  12.329 -0.3046 -0.0972 -0.1729
46696SOL    HW145925   9.614  10.686  12.322 -1.4048 -0.2850  1.4063
46696SOL    HW245926   9.672  10.587  12.421  1.1949 -0.9656 -0.6722
46697SOL     OW45927   6.836   5.477   7.251  0.1833  0.0568 -0.0141
46697SOL    HW145928   6.919   5.523   7.256  0.7204 -0.8841 -0.0839
46697SOL    HW245929   6.859   5.388   7.221 -1.0864  0.4926 -2.6028
46698SOL     OW45930   3.015   5.016   8.682 -0.2576 -0.0922  0.2617
46698SOL    HW145931   3.094   5.043   8.727 -0.5912  0.1419  0.7128
46698SOL    HW245932   3.012   5.071   8.603  0.6920 -0.9932 -0.4210
46699SOL     OW45933   1.854   1.194   4.072 -0.0673 -0.4124  0.4347
46699SOL    HW145934   1.948   1.178   4.061  0.2957  1.6255  0.1331
46699SOL    HW245935   1.841   1.190   4.167  0.5849  0.4324  0.5786
46700SOL     OW45936   6.175   1.987   8.825 -0.0867  0.0374  0.0220
46700SOL    HW145937   6.196   1.973   8.733 -1.2309 -1.2754 -0.0645
46700SOL    HW245938   6.162   2.082   8.832 -0.9637  0.0564 -1.4001
46701SOL     OW45939   9.657  11.604   8.550  0.1588  0.1619 -0.2797
46701SOL    HW145940   9.747  11.612   8.582  0.0370  1.3607 -0.1585
46701SOL    HW245941   9.603  11.598   8.629  0.1043 -0.1975 -0.3424
46702SOL     OW45942   6.286  11.613   9.108  0.2121 -0.2911  0.2892
46702SOL    HW145943   6.211  11.632   9.052  1.1571 -0.1035 -0.9675
46702SOL    HW245944   6.329  11.539   9.065  3.0562  2.1501 -1.4430
46703SOL     OW45945   4.022   4.319  10.920 -0.0117  0.0795 -1.0509
46703SOL    HW145946   4.103   4.328  10.971  0.8947 -1.3933 -2.1699
46703SOL    HW245947   3.966   4.264  10.974 -0.5940  1.6607  0.0427
46704SOL     OW45948   3.647   1.821   9.966  0.1552 -0.4625 -0.3638
46704SOL    HW145949   3.741   1.836   9.965  0.3091 -1.2099 -2.3991
46704SOL    HW245950   3.609   1.907   9.947  0.3717 -0.0737  0.8555
46705SOL     OW45951   4.139   4.112   3.534  0.1887  0.4917 -0.3330
46705SOL    HW145952   4.168   4.031   3.575  0.6223  0.4733 -0.6678
46705SOL    HW245953   4.092   4.084   3.455 -0.9172  0.5139  0.3032
46706SOL     OW45954   1.368   4.589   5.755  0.4607 -0.3119  0.0694
46706SOL    HW145955   1.400   4.540   5.679 -2.5650 -0.1066 -1.5234
46706SOL    HW245956   1.341   4.674   5.718 -1.5969 -0.4121  1.1923
46707SOL     OW45957   9.117  11.767   5.495 -0.0884  0.0219  0.1727
46707SOL    HW145958   9.029  11.801   5.514 -0.6344 -1.6629  0.8520
46707SOL    HW245959   9.115  11.747   5.402 -0.4468 -0.0351  0.1897
46708SOL     OW45960  12.175   7.091   4.187 -0.3271 -0.2688 -0.6086
46708SOL    HW145961  12.117   7.120   4.117 -1.0148 -0.5945 -0.1845
46708SOL    HW245962  12.254   7.145   4.177 -1.4913  1.6330  0.0744
46709SOL     OW45963   2.798   2.358   2.321  0.4862 -0.0571  0.0204
46709SOL    HW145964   2.765   2.331   2.407  1.0550  0.3477  0.3742
46709SOL    HW245965   2.779   2.452   2.317 -3.1067 -0.6863 -1.9271
46710SOL     OW45966   6.339   7.300   3.282 -0.3259 -0.9976  1.0252
46710SOL    HW145967   6.335   7.207   3.259 -0.8350 -0.8142  0.3208
46710SOL    HW245968   6.424   7.311   3.325  1.0169 -1.2496 -1.3793
46711SOL     OW45969   7.426   8.462  11.058  0.1124 -0.1721 -0.2065
46711SOL    HW145970   7.433   8.404  10.983 -1.1014 -0.7786  0.1239
46711SOL    HW245971   7.463   8.545  11.028 -0.7311 -0.2759 -1.6242
46712SOL     OW45972   5.509   1.289   8.671 -0.3948 -0.1639 -0.5948
46712SOL    HW145973   5.532   1.239   8.593  0.8129 -0.6530  0.0534
46712SOL    HW245974   5.511   1.380   8.643 -2.3588 -0.4154 -1.7247
46713SOL     OW45975   1.496   7.988   1.040 -0.3732 -0.4893  0.2148
46713SOL    HW145976   1.545   8.062   1.002 -0.2100 -0.0814  1.1938
46713SOL    HW245977   1.404   8.011   1.025 -0.3056 -0.7997 -0.7747
46714SOL     OW45978  10.813   2.359   5.868 -0.0571 -0.2027  0.6334
46714SOL    HW145979  10.822   2.428   5.803  0.5588 -1.1442 -0.3197
46714SOL    HW245980  10.783   2.283   5.818  0.5203 -0.9684  1.4254
46715SOL     OW45981   3.505   1.324   1.265 -0.2786  0.1072 -0.0148
46715SOL    HW145982   3.545   1.261   1.326  1.3065  1.8043  0.8203
46715SOL    HW245983   3.541   1.301   1.180  1.1337  0.4762  0.4499
46716SOL     OW45984  10.059   0.342  10.006  0.0871 -0.2514 -0.2717
46716SOL    HW145985  10.109   0.315  10.083  0.6641 -0.8577 -0.8490
46716SOL    HW245986  10.125   0.367   9.941 -0.3986  0.5017 -0.4924
46717SOL     OW45987   4.265   7.374   8.763  0.4500 -0.2361 -0.0240
46717SOL    HW145988   4.357   7.378   8.790  0.3062 -0.4798  0.5125
46717SOL    HW245989   4.226   7.454   8.799  0.3403 -0.3759  0.1657
46718SOL     OW45990   4.551   2.614  10.041 -0.1953 -0.2222 -0.5848
46718SOL    HW145991   4.632   2.635  10.086 -0.5273  1.0501 -0.5688
46718SOL    HW245992   4.570   2.630   9.948 -0.5567  0.5034 -0.5369
46719SOL     OW45993   0.578   5.093   0.259 -0.0991 -0.3768 -0.5102
46719SOL    HW145994   0.631   5.171   0.241  1.2384 -0.2619  3.0914
46719SOL    HW245995   0.518   5.121   0.328  1.9308 -2.9238  2.5711
46720SOL     OW45996  10.745   9.108   7.909 -0.2285  0.0238 -0.3367
46720SOL    HW145997  10.665   9.059   7.931  0.1305 -0.7138 -0.6418
46720SOL    HW245998  10.799   9.046   7.861  0.1152  0.8256 -1.0140
46721SOL     OW45999   0.678   1.645  12.090 -0.3587 -0.3257  0.0382
46721SOL    HW146000   0.639   1.566  12.127  0.2188 -0.6703 -0.0890
46721SOL    HW246001   0.749   1.614  12.034 -0.4205  0.2578 -0.3803
46722SOL     OW46002   1.075   0.242   0.834  0.0453  0.6918  0.4738
46722SOL    HW146003   1.056   0.335   0.848  0.2322  0.9230 -0.7277
46722SOL    HW246004   1.113   0.238   0.747  1.6417 -0.3079  1.1803
46723SOL     OW46005   2.574   4.341  10.987  0.0340 -0.7611 -0.4368
46723SOL    HW146006   2.486   4.327  10.951  0.1084  3.3953 -2.8057
46723SOL    HW246007   2.562   4.405  11.056  1.1269 -0.6665 -0.3201
46724SOL     OW46008  11.894  11.891   1.081 -0.3819 -0.3860  0.1899
46724SOL    HW146009  11.862  11.938   1.157 -0.0374  0.6468 -0.2753
46724SOL    HW246010  11.868  11.800   1.095 -1.4828  0.0203  0.8934
46725SOL     OW46011   3.822  10.953   0.828 -1.0780  0.4419 -0.5934
46725SOL    HW146012   3.871  11.031   0.802 -1.4682  0.7954 -0.2842
46725SOL    HW246013   3.783  10.921   0.746  1.3919 -1.1212 -1.2826
46726SOL     OW46014  10.504  11.051   2.947 -0.4862  0.5712  0.6149
46726SOL    HW146015  10.528  11.126   2.893  1.2023  1.1176  2.0401
46726SOL    HW246016  10.490  11.088   3.035 -0.1607 -0.6948  1.2218
46727SOL     OW46017   2.669   1.492  10.109  0.0421 -0.0403 -0.0560
46727SOL    HW146018   2.609   1.433  10.156  1.0792 -0.6760  0.4903
46727SOL    HW246019   2.674   1.569  10.165  0.5233 -0.4078  0.4260
46728SOL     OW46020   5.048   2.506   6.828  0.1539 -0.4316  0.1467
46728SOL    HW146021   4.961   2.504   6.868  0.4515 -0.5488  0.8016
46728SOL    HW246022   5.037   2.461   6.744 -0.8141  1.1021 -0.5905
46729SOL     OW46023   7.871   8.971   4.517  0.0334 -0.2728 -0.0451
46729SOL    HW146024   7.943   8.932   4.566 -0.5772 -0.2123  0.9155
46729SOL    HW246025   7.795   8.918   4.538 -0.4774  0.4586  0.0119
46730SOL     OW46026   3.429   6.943   7.439  0.0015  1.0134  0.0944
46730SOL    HW146027   3.417   6.856   7.402  0.5645  1.0958 -0.3024
46730SOL    HW246028   3.510   6.975   7.399  1.3069  0.6583  2.2693
46731SOL     OW46029  11.635   0.579   7.020 -0.4970  0.5272  0.1856
46731SOL    HW146030  11.608   0.646   7.083 -0.3872 -0.2962  1.1267
46731SOL    HW246031  11.554   0.538   6.992 -0.5954  1.2746 -0.6641
46732SOL     OW46032   7.121   1.506   7.966 -0.2221 -0.2567  0.4404
46732SOL    HW146033   7.200   1.462   7.997  0.2189  0.5440  0.4733
46732SOL    HW246034   7.072   1.525   8.046 -0.1331 -0.1655  0.4738
46733SOL     OW46035   1.890   8.957   1.759  0.0063  0.1999  0.1680
46733SOL    HW146036   1.805   9.001   1.765  0.9762  2.2482 -0.1266
46733SOL    HW246037   1.952   9.021   1.794  1.2965 -1.7672  1.7035
46734SOL     OW46038   0.928   5.281  10.662 -0.4090  0.3274  0.0449
46734SOL    HW146039   1.008   5.246  10.623 -0.9784  0.6910 -1.5484
46734SOL    HW246040   0.874   5.203  10.678 -0.0851  0.1549  0.3167
46735SOL     OW46041  12.123   2.444   6.110  0.1312  0.0578 -0.5050
46735SOL    HW146042  12.205   2.399   6.090 -0.3523 -1.2302  0.3583
46735SOL    HW246043  12.073   2.382   6.162 -1.8065  0.4553 -1.7946
46736SOL     OW46044   6.151   7.054   8.301  0.2882  0.0782 -0.3499
46736SOL    HW146045   6.158   6.999   8.223 -0.2710 -1.7690  0.8505
46736SOL    HW246046   6.238   7.051   8.340 -0.1442 -1.3261  0.5688
46737SOL     OW46047   6.383   8.040   8.605 -0.0110 -0.2325  0.5621
46737SOL    HW146048   6.403   8.131   8.626  0.8700 -0.8039  2.4279
46737SOL    HW246049   6.467   8.002   8.581 -0.3414 -0.6143 -0.0175
46738SOL     OW46050   0.218   7.943  10.746  0.4713 -0.2520 -0.0260
46738SOL    HW146051   0.301   7.917  10.704  0.4325  0.0585 -0.2943
46738SOL    HW246052   0.177   8.003  10.683 -0.6180 -1.4769 -0.5359
46739SOL     OW46053   4.157   4.361   4.118  0.5117  0.4317  0.2207
46739SOL    HW146054   4.144   4.448   4.158 -2.3122  1.5271 -2.6520
46739SOL    HW246055   4.182   4.380   4.028 -0.3311 -1.7566 -0.5317
46740SOL     OW46056   6.779  12.192   9.996  0.0295  0.2684 -0.2336
46740SOL    HW146057   6.730  12.177   9.915 -1.7900 -0.2242  0.8929
46740SOL    HW246058   6.816  12.106  10.018  0.3917  0.3668 -0.4545
46741SOL     OW46059  10.163   6.437   0.473  0.2710  0.2856 -0.1350
46741SOL    HW146060  10.249   6.397   0.485  0.2245  0.2085 -0.0539
46741SOL    HW246061  10.165   6.474   0.385  0.0826 -0.4604 -0.4545
46742SOL     OW46062   1.439   3.118   4.480  0.5102  0.3511  0.7324
46742SOL    HW146063   1.436   3.131   4.574  0.0162  1.2353  0.6033
46742SOL    HW246064   1.530   3.134   4.456  0.1265  2.9279  0.7029
46743SOL     OW46065  11.961   1.831   6.228 -0.7486 -0.5528 -0.6050
46743SOL    HW146066  12.050   1.857   6.250 -0.7853 -0.2334 -0.8328
46743SOL    HW246067  11.971   1.763   6.161 -0.7025  0.2568 -1.4289
46744SOL     OW46068  11.026   8.767   0.358 -0.0925  0.6846 -0.5331
46744SOL    HW146069  10.978   8.844   0.327 -1.3602  0.1170 -0.0462
46744SOL    HW246070  10.976   8.693   0.325  0.6984  0.0612 -0.3686
46745SOL     OW46071   5.853   4.840   9.162  0.6776  0.4918  0.1307
46745SOL    HW146072   5.794   4.825   9.089  1.4834  0.3084 -0.5061
46745SOL    HW246073   5.888   4.928   9.147  1.2055  0.2686  0.0197
46746SOL     OW46074   4.150   3.311   7.623  0.0810 -0.5183 -0.3597
46746SOL    HW146075   4.206   3.320   7.546 -0.1327 -1.5311 -0.6375
46746SOL    HW246076   4.145   3.217   7.639 -1.0073 -0.4091  0.0490
46747SOL     OW46077   1.199   1.346   4.202 -0.0591  0.1378  0.1285
46747SOL    HW146078   1.116   1.309   4.169 -0.5880  0.3720  1.1777
46747SOL    HW246079   1.179   1.438   4.219  0.4382  0.2037  0.3553
46748SOL     OW46080   5.873   8.701  10.493 -0.2565 -0.2633 -0.6241
46748SOL    HW146081   5.889   8.607  10.495 -2.5410 -0.7012 -0.1117
46748SOL    HW246082   5.929   8.736  10.563 -0.5780 -1.4598  0.2748
46749SOL     OW46083   2.480   8.578   3.685 -0.1295 -0.4059  0.2558
46749SOL    HW146084   2.505   8.644   3.749 -2.3287 -0.3682  1.1479
46749SOL    HW246085   2.526   8.499   3.714  0.3746  0.0584  0.7633
46750SOL     OW46086  12.106   1.771   9.009  0.3361 -0.2199 -0.3172
46750SOL    HW146087  12.149   1.829   8.946 -0.3861  1.0190  0.2868
46750SOL    HW246088  12.088   1.691   8.960  1.8337 -0.1506 -1.0266
46751SOL     OW46089   0.663   5.216   6.869 -0.3242 -0.0144  0.2101
46751SOL    HW146090   0.681   5.306   6.841 -0.0098 -0.4069 -0.9075
46751SOL    HW246091   0.716   5.204   6.948 -0.6745  0.9012  0.5890
46752SOL     OW46092   7.559   1.451   6.140  0.3580  0.9241  0.1637
46752SOL    HW146093   7.502   1.528   6.153 -1.1404  0.0075 -0.6669
46752SOL    HW246094   7.550   1.401   6.222  1.4905  1.6950  0.7848
46753SOL     OW46095   6.272   0.822   7.082  0.0934 -0.3106  0.4655
46753SOL    HW146096   6.191   0.807   7.034 -0.3608  0.6262  0.9168
46753SOL    HW246097   6.337   0.770   7.035 -0.2711  0.7864 -1.3822
46754SOL     OW46098   1.789  10.302  11.012 -0.6629  0.3680  0.0861
46754SOL    HW146099   1.853  10.237  10.984 -1.1225 -0.3630  0.7234
46754SOL    HW246100   1.836  10.357  11.074 -0.8973 -0.7520  1.2933
46755SOL     OW46101   6.687   0.862  11.356 -0.5262 -0.5765  0.3268
46755SOL    HW146102   6.696   0.767  11.356  0.0953 -0.5947 -2.3028
46755SOL    HW246103   6.660   0.883  11.266 -0.8191  1.7178  0.8979
46756SOL     OW46104   8.939   5.769   8.943 -0.0671  0.3611 -0.2506
46756SOL    HW146105   8.873   5.706   8.915  0.2930 -0.1322  0.0131
46756SOL    HW246106   8.926   5.844   8.884 -0.7136  0.1839 -0.3449
46757SOL     OW46107   7.764  10.656   2.809  0.8874  0.2947  0.1620
46757SOL    HW146108   7.738  10.696   2.892 -1.9333 -1.3436  0.1908
46757SOL    HW246109   7.823  10.720   2.769  2.8641  0.8907  3.6183
46758SOL     OW46110   5.913   6.096   6.877  0.1982  0.2239 -0.4299
46758SOL    HW146111   5.865   6.136   6.949  0.4362  0.2770 -0.2993
46758SOL    HW246112   5.861   6.019   6.852 -0.2852  0.6421 -0.7183
46759SOL     OW46113   4.012   6.424   3.653  0.5795 -0.5385  0.3321
46759SOL    HW146114   3.975   6.472   3.727 -2.0289 -0.3652 -0.9431
46759SOL    HW246115   4.052   6.491   3.598 -1.4760  0.0492 -0.5567
46760SOL     OW46116  10.367   8.062   5.252 -0.0273  0.1330  0.4216
46760SOL    HW146117  10.395   8.068   5.343  0.8990  2.4821  0.0641
46760SOL    HW246118  10.275   8.088   5.253 -1.1289 -3.3652  1.0573
46761SOL     OW46119  11.480   9.955   2.026  0.7089  0.1705  0.3350
46761SOL    HW146120  11.475  10.030   2.086 -1.0441  1.2979 -1.1339
46761SOL    HW246121  11.426   9.888   2.067  0.3733  0.5554  0.5333
46762SOL     OW46122   5.500   7.932   2.479  0.4760  0.2653 -0.3650
46762SOL    HW146123   5.574   7.964   2.427  0.2482  1.8224  0.2178
46762SOL    HW246124   5.468   8.009   2.526 -0.0754 -0.8469  1.1761
46763SOL     OW46125   3.265  11.850   2.695  0.0730  0.7181  0.4236
46763SOL    HW146126   3.178  11.863   2.658  0.1995  0.7282  0.1240
46763SOL    HW246127   3.259  11.883   2.784 -0.5966 -0.4938  0.8543
46764SOL     OW46128   0.552   4.261   2.693 -0.2101  0.1873 -0.7409
46764SOL    HW146129   0.494   4.297   2.627 -1.2717 -0.6797 -0.3230
46764SOL    HW246130   0.543   4.319   2.768  0.7677  1.0027 -1.2380
46765SOL     OW46131  10.736   6.738   0.458 -0.0480 -0.0435 -0.3631
46765SOL    HW146132  10.648   6.728   0.495  0.6181 -1.1622  1.0212
46765SOL    HW246133  10.735   6.682   0.380 -0.2027 -1.0875  0.3634
46766SOL     OW46134   8.306   0.168   8.456  0.2683 -0.4867  0.1818
46766SOL    HW146135   8.220   0.210   8.460  0.3352 -0.1653 -1.1483
46766SOL    HW246136   8.366   0.238   8.428  1.1268 -0.5164  1.8159
46767SOL     OW46137   1.797   9.629   7.593 -0.1986 -0.0659 -0.6455
46767SOL    HW146138   1.877   9.578   7.576  0.0393 -0.2781  0.8951
46767SOL    HW246139   1.728   9.564   7.601 -0.6064  0.1371 -2.2404
46768SOL     OW46140   6.042   7.489   7.041  0.3773 -0.3611 -0.2933
46768SOL    HW146141   5.980   7.495   7.114  1.3318  1.3412  0.4341
46768SOL    HW246142   6.001   7.428   6.980 -0.3187 -2.1112  1.7908
46769SOL     OW46143  10.187   0.064  11.429 -0.1507 -0.0881  0.6397
46769SOL    HW146144  10.112   0.008  11.409  0.5201 -0.9927  0.6323
46769SOL    HW246145  10.252   0.005  11.467  1.2280  0.3493 -0.9105
46770SOL     OW46146   1.334   3.003  10.562  0.0590  0.5893 -0.2590
46770SOL    HW146147   1.323   2.995  10.467 -0.2207 -0.0692 -0.1771
46770SOL    HW246148   1.269   2.943  10.599  0.0030  1.0163  0.3587
46771SOL     OW46149   3.183   6.533  12.153  0.0464  0.5006 -0.5053
46771SOL    HW146150   3.231   6.456  12.185  2.0072  1.3746 -1.1903
46771SOL    HW246151   3.097   6.526  12.195  0.8493 -0.9831  1.0371
46772SOL     OW46152  10.688   2.408   6.094  0.4187  0.1757  0.1555
46772SOL    HW146153  10.599   2.376   6.078  0.9937 -0.6996 -1.5482
46772SOL    HW246154  10.735   2.391   6.013  1.7778  2.0026  0.4910
46773SOL     OW46155   7.852   4.619   6.236  0.1663 -0.0419  0.0278
46773SOL    HW146156   7.810   4.670   6.167  0.4016 -1.2824 -1.0882
46773SOL    HW246157   7.894   4.683   6.292 -2.6373  1.2385  0.8449
46774SOL     OW46158   8.367  10.914   1.522  0.1658 -0.3516 -0.0701
46774SOL    HW146159   8.291  10.970   1.535 -0.8094 -2.0977  2.5607
46774SOL    HW246160   8.364  10.892   1.428 -2.1205  0.2792 -0.2131
46775SOL     OW46161   3.784   5.726   4.098 -0.4432 -0.3101  0.0134
46775SOL    HW146162   3.787   5.633   4.121 -2.5696 -0.1155  1.3797
46775SOL    HW246163   3.849   5.736   4.029  0.6295 -2.5755  0.6178
46776SOL     OW46164   0.103   2.444   6.071 -0.6534  0.2782 -0.3791
46776SOL    HW146165   0.115   2.495   5.991  1.8331  1.0733  0.4067
46776SOL    HW246166   0.141   2.359   6.052 -2.8244 -0.6234 -0.9701
46777SOL     OW46167  11.786  10.045  12.176 -0.6562  0.2197  0.1411
46777SOL    HW146168  11.763   9.962  12.134 -0.5210  0.1842  0.1352
46777SOL    HW246169  11.799  10.023  12.268  0.3657  0.0395 -0.0325
46778SOL     OW46170   2.814   4.082   8.518 -0.5251  0.4126  0.2705
46778SOL    HW146171   2.899   4.082   8.473  0.0513  0.3580  1.3357
46778SOL    HW246172   2.750   4.067   8.448  0.4068 -0.4738 -0.4200
46779SOL     OW46173   6.394  11.800   7.781 -1.0011  0.7942 -0.7322
46779SOL    HW146174   6.397  11.893   7.802 -0.4394  0.7598 -0.6450
46779SOL    HW246175   6.450  11.790   7.704 -0.7409  0.4747 -0.5100
46780SOL     OW46176  11.470  11.103   4.408 -0.3032 -0.2243 -0.1007
46780SOL    HW146177  11.493  11.087   4.316 -0.2144  0.3441 -0.1776
46780SOL    HW246178  11.553  11.127   4.450 -0.4303  0.0006  0.0222
46781SOL     OW46179   9.360   4.480   4.849 -0.2371 -0.3634 -0.2628
46781SOL    HW146180   9.400   4.522   4.772 -1.4480  1.9409  0.2808
46781SOL    HW246181   9.266   4.495   4.839 -0.4331 -0.1106  1.6081
46782SOL     OW46182   7.292   1.813   7.296  0.2142  0.3358  0.5500
46782SOL    HW146183   7.262   1.827   7.206 -0.5535 -0.3110  0.6969
46782SOL    HW246184   7.266   1.893   7.342 -0.0272  0.3663  0.3627
46783SOL     OW46185   6.764   0.346   4.217 -0.3110  0.7237  0.4603
46783SOL    HW146186   6.794   0.331   4.307  1.5715  0.3558 -0.1770
46783SOL    HW246187   6.748   0.259   4.182 -0.1291  0.8133  0.1518
46784SOL     OW46188  11.134   0.834   7.874  0.4158 -0.1057 -0.1342
46784SOL    HW146189  11.212   0.822   7.820  0.0102 -0.2761 -0.6945
46784SOL    HW246190  11.088   0.907   7.833 -0.3931 -0.8710 -0.6227
46785SOL     OW46191   0.051  11.115   3.967  0.2409  0.5592 -0.0686
46785SOL    HW146192   0.120  11.049   3.958  0.9058  1.0103  1.4968
46785SOL    HW246193  -0.003  11.104   3.888  1.6693 -0.2913 -0.9681
46786SOL     OW46194   9.840  10.936   5.521  0.0579  0.2102  0.3250
46786SOL    HW146195   9.848  11.031   5.520 -1.6323  0.4344 -2.3425
46786SOL    HW246196   9.914  10.905   5.469  0.7717  0.0015  1.4313
46787SOL     OW46197  12.146   2.076  10.527 -0.0698  0.0877  0.3605
46787SOL    HW146198  12.230   2.087  10.572 -0.4049  1.8865  0.6188
46787SOL    HW246199  12.139   2.152  10.469 -1.9729  0.5560  1.1206
46788SOL     OW46200  11.963   8.958   5.740  0.0791 -0.0725 -0.0342
46788SOL    HW146201  11.936   9.046   5.768 -1.8963 -1.2194  2.0651
46788SOL    HW246202  12.007   8.922   5.817 -0.7720 -1.5241 -0.1891
46789SOL     OW46203   4.166   3.680  11.951  0.4596 -0.3183  0.4736
46789SOL    HW146204   4.208   3.636  11.877 -0.2664  0.3455 -0.3563
46789SOL    HW246205   4.162   3.613  12.019  0.8864 -1.0277 -0.1773
46790SOL     OW46206   1.577   9.050   2.032 -0.5669  0.7175 -0.2664
46790SOL    HW146207   1.611   9.068   2.120  0.1632  1.1799 -0.6281
46790SOL    HW246208   1.564   8.955   2.031  0.8423  0.4966 -0.1360
46791SOL     OW46209   2.863   6.164   9.006 -0.1922  0.7353 -0.0269
46791SOL    HW146210   2.799   6.101   9.039 -0.0852  0.4420 -0.3717
46791SOL    HW246211   2.822   6.249   9.020 -0.7441  0.5405 -0.4251
46792SOL     OW46212   0.826   8.318   8.166  0.8163  0.6671  0.2758
46792SOL    HW146213   0.903   8.262   8.157  0.0884 -0.4216  0.6201
46792SOL    HW246214   0.774   8.300   8.088  0.4490  0.6547  0.5221
46793SOL     OW46215   7.586  11.345   5.819  0.7435  0.0350  0.4345
46793SOL    HW146216   7.679  11.323   5.829  1.4678  1.0516 -2.8307
46793SOL    HW246217   7.560  11.301   5.738 -1.1968  1.0151  0.4807
46794SOL     OW46218   4.580   1.396  11.144  0.3789  0.5021  0.3342
46794SOL    HW146219   4.553   1.317  11.098  0.0726 -0.2263  1.7334
46794SOL    HW246220   4.673   1.406  11.123  0.1372  0.4670 -0.8164
46795SOL     OW46221   0.357   2.009   2.108  0.1080 -0.1009  0.2306
46795SOL    HW146222   0.421   2.025   2.176  0.6360 -0.2378 -0.2280
46795SOL    HW246223   0.369   1.917   2.085 -0.1715 -0.0962  0.0599
46796SOL     OW46224   9.835   5.271   5.570 -0.0252 -0.3147  0.3782
46796SOL    HW146225   9.833   5.192   5.515  0.3976 -0.1252  0.0818
46796SOL    HW246226   9.882   5.335   5.517  0.8665 -0.2838  1.1725
46797SOL     OW46227   8.470   2.339  10.426  1.0508 -0.4846 -0.6255
46797SOL    HW146228   8.561   2.338  10.396  0.5482  1.2829 -2.4454
46797SOL    HW246229   8.418   2.349  10.346 -0.7289 -0.8998  0.4179
46798SOL     OW46230   4.815   0.802   5.096 -0.0169  0.7595  0.1248
46798SOL    HW146231   4.790   0.891   5.121  2.7990  2.0051 -1.1015
46798SOL    HW246232   4.785   0.794   5.005 -0.7352  0.2201  0.3985
46799SOL     OW46233   8.654   1.717   5.333 -0.4725 -0.5529 -0.1667
46799SOL    HW146234   8.690   1.747   5.250  3.6936  0.2238  1.6871
46799SOL    HW246235   8.626   1.627   5.316  1.4150 -0.8428 -2.1429
46800SOL     OW46236   2.649   3.706  10.464  0.3706 -0.1956  0.7139
46800SOL    HW146237   2.724   3.765  10.459  0.7301 -0.7509 -1.2872
46800SOL    HW246238   2.667   3.638  10.399 -2.3312  0.2504 -0.6470
46801SOL     OW46239   8.423   1.834  10.027 -0.6551 -0.5154  0.2947
46801SOL    HW146240   8.339   1.820  10.072  0.2364 -0.7479  1.9694
46801SOL    HW246241   8.470   1.896  10.083 -0.3758  1.0686 -1.5615
46802SOL     OW46242   3.655   7.837   9.439  0.3673 -0.1621  0.0012
46802SOL    HW146243   3.655   7.814   9.347  0.2196 -0.8186  0.1577
46802SOL    HW246244   3.590   7.907   9.447 -0.2041 -0.6556 -0.2603
46803SOL     OW46245   2.110   7.832   9.719  0.4347 -0.1249  0.4269
46803SOL    HW146246   2.120   7.831   9.624  0.7855 -0.4123  0.4593
46803SOL    HW246247   2.070   7.916   9.739  1.9755  0.7044  0.1659
46804SOL     OW46248   4.584   3.221   9.794 -0.3939  0.0259 -0.2150
46804SOL    HW146249   4.564   3.135   9.830 -1.0971  0.4091  0.3296
46804SOL    HW246250   4.612   3.274   9.869 -0.3359  0.3846 -0.4824
46805SOL     OW46251   9.188   8.101   0.987 -0.0736 -0.2226  0.0677
46805SOL    HW146252   9.100   8.109   0.951 -0.0416  2.0193  0.3138
46805SOL    HW246253   9.245   8.131   0.916  0.2635  0.8213  0.7635
46806SOL     OW46254   5.907   0.628   2.043 -0.3608 -0.2569  0.8214
46806SOL    HW146255   5.914   0.692   2.114 -1.0518  1.4517 -0.5836
46806SOL    HW246256   5.997   0.599   2.030 -0.0332  0.3630  1.5469
46807SOL     OW46257   8.160   5.533   3.687  0.2100  0.2856  0.2124
46807SOL    HW146258   8.171   5.584   3.768  0.6932 -0.6580  0.7662
46807SOL    HW246259   8.247   5.494   3.672 -0.3851 -1.1843  0.3939
46808SOL     OW46260   8.214   9.814  11.281  0.2363 -0.1857 -0.1559
46808SOL    HW146261   8.228   9.731  11.325 -0.8842 -0.1778  0.2533
46808SOL    HW246262   8.273   9.812  11.206  1.6703 -0.4933  0.9438
46809SOL     OW46263   5.771  12.244   6.021 -0.3589  0.2267  0.1773
46809SOL    HW146264   5.750  12.299   6.096 -1.0596 -0.2557  0.3494
46809SOL    HW246265   5.751  12.299   5.945 -1.0404  0.2248  0.3462
46810SOL     OW46266   7.005   7.811   4.311 -0.5620  0.0225  0.0054
46810SOL    HW146267   7.054   7.763   4.378 -2.2373 -1.4035  0.2841
46810SOL    HW246268   6.963   7.742   4.259 -2.9941  1.1677  0.3411
46811SOL     OW46269   2.714   8.253   6.255 -0.4426  0.0062 -0.3904
46811SOL    HW146270   2.681   8.331   6.210  0.5786  0.4595 -0.3803
46811SOL    HW246271   2.739   8.193   6.185 -1.2484 -0.3257 -0.3984
46812SOL     OW46272   0.139   1.245   5.844  0.0030 -0.5821  0.5560
46812SOL    HW146273   0.209   1.216   5.903  0.5595 -1.5562 -0.5440
46812SOL    HW246274   0.183   1.263   5.761 -1.0060 -1.0224 -0.0955
46813SOL     OW46275   2.126   6.328   7.739  0.0137 -0.2203 -0.2315
46813SOL    HW146276   2.044   6.376   7.727  0.6999  0.9208 -0.5295
46813SOL    HW246277   2.125   6.301   7.831 -0.3582  0.4453 -0.0310
46814SOL     OW46278   7.649   8.972   5.648  0.4038  0.4007 -0.2888
46814SOL    HW146279   7.637   9.014   5.563 -0.5921  1.3612  0.2928
46814SOL    HW246280   7.734   9.003   5.679  0.9817 -0.3184 -1.1167
46815SOL     OW46281   1.608  11.743  10.244  0.0178  0.2697  0.5754
46815SOL    HW146282   1.536  11.680  10.246 -0.6879  1.0790  1.7254
46815SOL    HW246283   1.616  11.766  10.151 -0.1775 -0.9546  0.2317
46816SOL     OW46284   6.301   1.908   9.802  0.5508  0.6719  0.0440
46816SOL    HW146285   6.324   1.889   9.711 -0.4827  1.1668 -0.3308
46816SOL    HW246286   6.303   1.822   9.845  1.3616  0.4744 -0.3557
46817SOL     OW46287   0.548   9.362   7.125 -0.7345 -0.3690  0.4855
46817SOL    HW146288   0.539   9.281   7.175 -0.0496 -0.8172 -0.0985
46817SOL    HW246289   0.492   9.425   7.172  1.9776  0.0593  3.5261
46818SOL     OW46290   3.849  10.685   2.757 -0.2052  0.5338 -0.6847
46818SOL    HW146291   3.879  10.727   2.838  0.8651  3.7405 -2.5727
46818SOL    HW246292   3.852  10.755   2.691  0.1795 -2.1948 -3.8065
46819SOL     OW46293   6.103   4.772  10.021  0.7949 -0.0110 -0.7093
46819SOL    HW146294   6.039   4.837  10.048 -0.9237 -1.4691 -1.0332
46819SOL    HW246295   6.179   4.788  10.077  1.4162  3.7072 -2.3176
46820SOL     OW46296   3.215   3.874  11.141  0.0570  0.3074 -0.3678
46820SOL    HW146297   3.170   3.857  11.058  1.3739 -0.4998 -0.9457
46820SOL    HW246298   3.270   3.950  11.123  0.9010 -0.3170 -0.4683
46821SOL     OW46299   8.332   8.540   8.394 -0.0348 -0.5149 -0.4243
46821SOL    HW146300   8.408   8.505   8.347 -0.1031 -0.9475 -0.2192
46821SOL    HW246301   8.369   8.578   8.474 -0.0748 -1.1148 -0.1134
46822SOL     OW46302   4.832   2.660   8.611  0.0829 -0.1771 -0.2129
46822SOL    HW146303   4.919   2.676   8.573  1.0446 -1.4246  1.3267
46822SOL    HW246304   4.844   2.583   8.666 -2.0871 -0.5113 -0.1295
46823SOL     OW46305   4.996   6.501  11.560  0.9366 -0.0251 -0.2896
46823SOL    HW146306   4.983   6.592  11.534  2.5818  0.3875  0.1432
46823SOL    HW246307   5.039   6.460  11.485 -0.3955 -0.6540 -0.7409
46824SOL     OW46308   2.738   3.702   5.010 -0.2091  0.2791 -0.0839
46824SOL    HW146309   2.747   3.716   5.104  1.9884 -0.7610 -0.0600
46824SOL    HW246310   2.790   3.772   4.970 -0.4687  0.2429 -0.4949
46825SOL     OW46311   2.500   2.143  11.449  0.2259 -0.3649  0.2663
46825SOL    HW146312   2.435   2.092  11.401 -1.2941 -0.8518  2.6527
46825SOL    HW246313   2.491   2.232  11.414 -2.9425 -0.0553  1.5437
46826SOL     OW46314   7.094   8.169   8.464 -0.2523  0.0429 -0.0489
46826SOL    HW146315   7.064   8.232   8.530  1.4858 -1.3683  2.2245
46826SOL    HW246316   7.168   8.213   8.422 -1.3922  0.9635 -1.2028
46827SOL     OW46317   4.062   1.918  10.295 -0.0755  0.2638  0.5313
46827SOL    HW146318   4.074   1.970  10.216 -0.3352  1.1060  1.0344
46827SOL    HW246319   4.110   1.966  10.363 -0.9945  0.2826  1.1792
46828SOL     OW46320   2.505   3.571   5.956  0.6017 -0.0550 -0.6085
46828SOL    HW146321   2.434   3.602   6.012 -0.0249 -1.2308 -0.7346
46828SOL    HW246322   2.584   3.611   5.994  0.0188  0.3432  0.2188
46829SOL     OW46323   7.519   2.008   1.169  0.0387  0.2300  0.1268
46829SOL    HW146324   7.594   1.954   1.144  0.5693  0.2316  1.6157
46829SOL    HW246325   7.448   1.978   1.113  0.4594 -1.6816  0.5471
46830SOL     OW46326   5.667   4.637   5.246  0.0893 -0.2652 -0.1791
46830SOL    HW146327   5.665   4.666   5.155 -0.8006 -0.8469 -0.3604
46830SOL    HW246328   5.575   4.632   5.272  0.0566 -3.5925 -0.4173
46831SOL     OW46329   8.940   5.919   2.587 -0.4693 -0.5219 -0.6782
46831SOL    HW146330   8.974   5.961   2.666 -1.3387  0.3143 -0.7311
46831SOL    HW246331   8.953   5.825   2.602  1.8369 -0.2677 -0.6940
46832SOL     OW46332  11.163   0.212   6.948  0.3044 -0.7379  0.0306
46832SOL    HW146333  11.227   0.158   6.995  0.2023 -0.5572  0.3795
46832SOL    HW246334  11.145   0.163   6.868  0.6592 -0.9321  0.0686
46833SOL     OW46335   9.203   6.327   6.718 -0.2847  0.6013 -0.3630
46833SOL    HW146336   9.209   6.259   6.651  2.5177  0.4246 -0.0309
46833SOL    HW246337   9.112   6.358   6.712 -1.1534 -1.8916 -1.7304
46834SOL     OW46338   9.428  11.983   2.693 -0.0198 -0.0924 -0.2667
46834SOL    HW146339   9.332  11.989   2.691 -0.0716 -0.8704 -2.1717
46834SOL    HW246340   9.458  12.072   2.678 -0.4017  0.3468  1.3535
46835SOL     OW46341   4.734  11.424   5.293  1.0215 -0.0368  0.0448
46835SOL    HW146342   4.774  11.338   5.307 -1.8969 -1.4387  0.6558
46835SOL    HW246343   4.641  11.405   5.280 -0.2010  3.1690  2.6104
46836SOL     OW46344   4.307   5.271   7.690  0.2385  0.2065 -0.0396
46836SOL    HW146345   4.241   5.264   7.621 -0.0191  0.5475  0.1680
46836SOL    HW246346   4.256   5.269   7.772  0.7052 -4.0951  0.4070
46837SOL     OW46347   2.193   0.916   9.062 -0.3804  0.3963 -0.2589
46837SOL    HW146348   2.279   0.890   9.029 -0.3132  0.2268  0.0505
46837SOL    HW246349   2.165   0.987   9.003 -0.0628  0.4017 -0.4043
46838SOL     OW46350  11.865   4.395   3.865 -0.0855 -0.4041  0.0689
46838SOL    HW146351  11.790   4.453   3.877 -0.1456 -0.2601 -0.9283
46838SOL    HW246352  11.885   4.363   3.953 -1.3994 -0.5395  0.3370
46839SOL     OW46353  12.312   3.520   6.711 -0.3571 -0.1597 -1.0900
46839SOL    HW146354  12.329   3.466   6.788 -0.7380  0.8881 -0.2362
46839SOL    HW246355  12.398   3.536   6.672  0.0090  0.4065 -0.0902
46840SOL     OW46356  11.134   9.749   7.550  0.5654  0.5999  0.0743
46840SOL    HW146357  11.129   9.671   7.604 -1.2999 -0.0574 -0.9661
46840SOL    HW246358  11.141   9.821   7.612  0.0664 -0.2419  1.1269
46841SOL     OW46359   1.407   1.104  11.655 -0.4569 -0.2950  0.1168
46841SOL    HW146360   1.352   1.104  11.577 -0.4052  2.7846 -0.0412
46841SOL    HW246361   1.495   1.127  11.623 -0.2127 -0.0393  0.9289
46842SOL     OW46362   0.718   5.236   2.878  0.5396 -0.6225 -0.8762
46842SOL    HW146363   0.762   5.223   2.794 -2.1225  1.1688 -2.7034
46842SOL    HW246364   0.666   5.316   2.867 -0.5965 -0.7720  2.2013
46843SOL     OW46365   2.382   8.640   0.532 -0.9797 -0.1700 -0.1658
46843SOL    HW146366   2.430   8.562   0.562 -0.9461 -1.1952 -2.6235
46843SOL    HW246367   2.293   8.627   0.563 -1.2162 -1.7607 -1.3933
46844SOL     OW46368   0.101   7.931   0.131 -0.3529  0.7139 -0.1315
46844SOL    HW146369   0.056   7.943   0.215  0.3131 -0.3652  0.3955
46844SOL    HW246370   0.030   7.915   0.068 -0.7507 -1.0098  0.6972
46845SOL     OW46371   7.170   2.011   1.057  0.3192  0.0190  0.1690
46845SOL    HW146372   7.151   2.102   1.037  1.2670  0.1040 -0.3835
46845SOL    HW246373   7.253   1.993   1.014  0.9693 -0.6329  1.6286
46846SOL     OW46374   0.976   9.586   2.841  0.1287  0.1777 -0.2105
46846SOL    HW146375   0.928   9.639   2.778 -0.9726  0.9907  1.2366
46846SOL    HW246376   0.920   9.511   2.858 -0.0498  0.4770  0.5423
46847SOL     OW46377   5.836  10.025   7.410 -0.3114 -0.5869  0.4264
46847SOL    HW146378   5.852   9.980   7.327  0.3182 -0.3076  0.3865
46847SOL    HW246379   5.812   9.955   7.471  0.3787 -0.9422  0.2993
46848SOL     OW46380   4.043   5.427   0.894  0.0136 -0.4279 -0.2335
46848SOL    HW146381   4.005   5.453   0.810 -2.5839  0.9115  1.2374
46848SOL    HW246382   4.065   5.509   0.937  3.9341 -1.1022 -0.5535
46849SOL     OW46383  11.895   2.706  12.106 -0.2574  0.0568  0.0181
46849SOL    HW146384  11.946   2.773  12.060  0.1761  0.4406  1.0467
46849SOL    HW246385  11.960   2.641  12.132 -0.1294  0.9505  2.0638
46850SOL     OW46386   5.337   4.149   4.743  0.2205  0.2413  0.1962
46850SOL    HW146387   5.416   4.184   4.701  0.0038  0.9723  0.3925
46850SOL    HW246388   5.345   4.174   4.835  1.0172 -1.9102  0.7905
46851SOL     OW46389   6.630   5.499   0.513  0.2966 -0.4491  0.1768
46851SOL    HW146390   6.680   5.564   0.563  1.3716 -0.5082 -0.7794
46851SOL    HW246391   6.542   5.501   0.551  0.8943  0.0066  1.5877
46852SOL     OW46392   9.811   9.184   1.667 -0.3815  0.2757 -0.2652
46852SOL    HW146393   9.902   9.182   1.636  0.1527  0.0430  1.2304
46852SOL    HW246394   9.765   9.122   1.610  0.5369 -0.0582 -0.6607
46853SOL     OW46395   8.371   2.361  10.179 -0.2960 -0.1013  0.0964
46853SOL    HW146396   8.294   2.315  10.213 -0.9588 -1.1930 -2.6163
46853SOL    HW246397   8.337   2.414  10.107  1.6084 -1.8245 -2.2304
46854SOL     OW46398   4.484   3.294  10.627 -0.0039 -0.6066 -0.1583
46854SOL    HW146399   4.522   3.342  10.701 -0.2835  0.4102 -0.6524
46854SOL    HW246400   4.390   3.291  10.646 -0.5107  2.0212 -1.6784
46855SOL     OW46401   3.414   5.340  10.560  0.1300 -0.1557 -0.0351
46855SOL    HW146402   3.331   5.322  10.516  0.6846 -0.2733 -1.0462
46855SOL    HW246403   3.413   5.281  10.636 -0.6757 -0.1980 -0.0639
46856SOL     OW46404   6.410   3.800   6.327 -0.0035 -0.3442  0.1736
46856SOL    HW146405   6.388   3.793   6.420 -2.1707 -0.5635 -0.2871
46856SOL    HW246406   6.403   3.710   6.294 -0.0573 -0.1540 -0.3510
46857SOL     OW46407   9.341   4.236   1.710 -0.1142  0.3877 -0.7846
46857SOL    HW146408   9.289   4.193   1.642  1.0599  0.4837 -1.7690
46857SOL    HW246409   9.427   4.249   1.670  0.2738  1.4529  0.3385
46858SOL     OW46410   3.485   8.441  10.780 -0.6531 -0.7731  0.1164
46858SOL    HW146411   3.563   8.392  10.754 -0.2669 -0.5568  0.8339
46858SOL    HW246412   3.498   8.460  10.873 -0.2791  1.5970 -0.3618
46859SOL     OW46413  11.672   9.825   2.279  0.4053  0.1714  0.4402
46859SOL    HW146414  11.661   9.920   2.286 -1.8508  0.2789 -2.3941
46859SOL    HW246415  11.761   9.813   2.247  0.6871  1.3227  0.7574
46860SOL     OW46416   1.740   6.134   7.415  0.2639 -0.3265  0.2915
46860SOL    HW146417   1.817   6.077   7.406 -0.2717 -0.9774 -0.3516
46860SOL    HW246418   1.674   6.078   7.455  0.3520  0.4589  1.5575
46861SOL     OW46419   3.263   9.230   3.603  0.2565 -0.4494  0.0119
46861SOL    HW146420   3.286   9.140   3.581  0.4910 -0.3515 -0.1489
46861SOL    HW246421   3.260   9.232   3.699  2.4197 -0.1077  0.1081
46862SOL     OW46422   7.601   4.589   1.001 -0.0910 -1.0940  0.1206
46862SOL    HW146423   7.600   4.537   1.081 -0.6185  1.3848  1.8253
46862SOL    HW246424   7.535   4.657   1.015  1.4241  0.8424 -1.4280
46863SOL     OW46425  10.756   0.254   1.546 -0.1565  0.1353  0.1332
46863SOL    HW146426  10.699   0.303   1.606  0.4926  1.6005 -0.4154
46863SOL    HW246427  10.830   0.312   1.530 -0.1385 -0.3604 -1.8219
46864SOL     OW46428   1.933   7.806   5.617 -0.6049  0.0126 -0.4868
46864SOL    HW146429   1.882   7.887   5.622 -0.3084  0.1489  0.7673
46864SOL    HW246430   1.868   7.736   5.614 -0.8990  0.1858  1.0855
46865SOL     OW46431   7.720   2.902   7.217 -0.3644 -0.0983 -0.0862
46865SOL    HW146432   7.730   2.951   7.299  0.2994 -1.1099  0.4530
46865SOL    HW246433   7.752   2.814   7.237 -0.1816 -0.3660 -1.4379
46866SOL     OW46434   2.152   2.728   0.872 -0.1123 -0.2934  0.1737
46866SOL    HW146435   2.094   2.751   0.799 -0.2828  0.4414  0.5191
46866SOL    HW246436   2.211   2.803   0.880  1.0942 -1.1664 -0.3577
46867SOL     OW46437   4.623   4.580  10.238 -0.4377 -0.2455  0.8666
46867SOL    HW146438   4.676   4.658  10.222  1.1774 -1.3957  0.3139
46867SOL    HW246439   4.632   4.528  10.158 -2.9446 -0.2462  0.4936
46868SOL     OW46440   2.379   7.349  12.286  0.0269 -0.0797 -0.3861
46868SOL    HW146441   2.397   7.404  12.210  1.4965  0.5720  0.3930
46868SOL    HW246442   2.299   7.388  12.324  1.0618  1.6261  0.1810
46869SOL     OW46443   5.258   2.139   4.134 -0.6815 -0.4031  0.1006
46869SOL    HW146444   5.281   2.232   4.127 -1.6843 -0.1532 -0.0058
46869SOL    HW246445   5.323   2.103   4.195 -0.1199  0.3013 -0.0622
46870SOL     OW46446   9.137   3.274   6.930 -0.4664 -0.5001  0.0102
46870SOL    HW146447   9.103   3.296   6.843 -1.0393 -0.1342  0.3162
46870SOL    HW246448   9.216   3.223   6.913 -0.5136 -0.3409 -0.7234
46871SOL     OW46449   6.456   7.906   2.922  0.1413 -0.5435  0.3213
46871SOL    HW146450   6.383   7.845   2.909  1.5064 -2.1519 -0.1436
46871SOL    HW246451   6.435   7.981   2.866 -1.2467 -0.8659  0.3693
46872SOL     OW46452   3.424  10.839   6.123  0.6630 -0.3347 -0.0896
46872SOL    HW146453   3.364  10.906   6.155  0.5592 -0.6966  0.4945
46872SOL    HW246454   3.509  10.882   6.119  0.2475  0.4278 -1.7135
46873SOL     OW46455   8.738   6.077   2.451  0.3152  0.1169 -0.5086
46873SOL    HW146456   8.789   6.010   2.497 -2.0293 -0.5017  1.3989
46873SOL    HW246457   8.647   6.055   2.469 -0.5991  3.6992  0.1329
46874SOL     OW46458   7.269   2.322   3.670  0.4421 -0.2313 -0.1006
46874SOL    HW146459   7.312   2.397   3.627 -1.5841  1.2474  0.3172
46874SOL    HW246460   7.284   2.336   3.763 -0.5704  0.1001  0.0261
46875SOL     OW46461   3.997   2.092  11.064  0.0301  0.7602  0.5809
46875SOL    HW146462   3.937   2.063  10.995  1.9481 -0.0403 -0.8440
46875SOL    HW246463   3.945   2.088  11.144 -1.8876  0.4014 -0.6137
46876SOL     OW46464  10.318   2.634   0.408 -0.2977  0.2398 -0.6266
46876SOL    HW146465  10.337   2.654   0.499  1.1241  0.0062 -0.8502
46876SOL    HW246466  10.353   2.707   0.358 -0.5350  0.0848 -1.0329
46877SOL     OW46467  10.256  11.362   4.980  0.0264 -0.4106 -0.2921
46877SOL    HW146468  10.310  11.435   4.948 -0.3880  0.9056  1.8004
46877SOL    HW246469  10.195  11.344   4.908  2.5487 -1.3202 -2.3526
46878SOL     OW46470   3.584   8.788   3.612  0.5326 -0.4283 -0.6351
46878SOL    HW146471   3.517   8.742   3.663 -0.3847 -0.7115 -2.0443
46878SOL    HW246472   3.663   8.784   3.666 -1.1892  2.4568  2.5232
46879SOL     OW46473   1.584  11.811   5.995 -0.2972  0.4866  0.2378
46879SOL    HW146474   1.561  11.729   6.037 -0.3968  0.1208 -0.5113
46879SOL    HW246475   1.662  11.841   6.040  0.6031 -0.7633 -0.4306
46880SOL     OW46476   1.240  10.854  10.288  0.2645 -0.4740 -0.5920
46880SOL    HW146477   1.240  10.929  10.228  3.2825  0.4283  0.3395
46880SOL    HW246478   1.222  10.893  10.374  0.7313 -1.0017 -0.2527
46881SOL     OW46479   7.602   3.114   6.535  0.0929  0.2370 -0.0594
46881SOL    HW146480   7.692   3.147   6.532 -0.5600  2.0454 -1.0277
46881SOL    HW246481   7.605   3.046   6.602  2.2894 -0.1134 -0.4170
46882SOL     OW46482   7.355   3.815   7.136  0.2463  0.1919  0.0887
46882SOL    HW146483   7.280   3.837   7.079  0.2991 -0.3903 -0.2140
46882SOL    HW246484   7.414   3.766   7.079 -0.2397 -1.4583  0.9235
46883SOL     OW46485   6.052   4.507  10.959 -0.1305  0.8562 -0.1270
46883SOL    HW146486   6.064   4.415  10.937  0.0264  0.8099  0.1593
46883SOL    HW246487   6.083   4.554  10.881 -0.2321  0.6673 -0.2807
46884SOL     OW46488   1.765  10.737  10.398  0.2898  0.4911 -0.1236
46884SOL    HW146489   1.844  10.791  10.408 -0.1558  0.9297  1.2814
46884SOL    HW246490   1.692  10.799  10.407 -0.3243 -0.5184  4.2049
46885SOL     OW46491   9.441  10.444   0.612 -0.3258  0.3204  0.3975
46885SOL    HW146492   9.401  10.357   0.612 -0.8575  0.5273 -1.3191
46885SOL    HW246493   9.519  10.435   0.668  0.3924 -1.6335 -0.8364
46886SOL     OW46494   0.186   7.202  11.980 -0.7078  0.4655  0.1553
46886SOL    HW146495   0.186   7.273  12.045  1.0868 -0.2838  1.0515
46886SOL    HW246496   0.197   7.122  12.033 -3.4579 -0.6329 -0.7444
46887SOL     OW46497  11.816   0.467   9.508  0.7627  0.5355 -0.1860
46887SOL    HW146498  11.786   0.432   9.591 -1.3613  0.0282 -1.0987
46887SOL    HW246499  11.782   0.557   9.506 -1.2465 -0.1728 -1.4014
46888SOL     OW46500  10.510   3.272   5.150  0.3032 -0.7845 -0.2655
46888SOL    HW146501  10.435   3.217   5.124  0.0285 -0.0069 -1.1513
46888SOL    HW246502  10.581   3.210   5.164 -0.7513 -1.6668  1.6479
46889SOL     OW46503   9.394   8.373   1.801  0.1323 -0.2077 -0.2630
46889SOL    HW146504   9.328   8.369   1.870  0.1603 -0.1438 -0.2329
46889SOL    HW246505   9.345   8.368   1.720  0.1133 -0.4796 -0.2359
46890SOL     OW46506   4.657   7.286   9.666  0.1586  0.6225  0.6878
46890SOL    HW146507   4.692   7.320   9.584  0.4079 -1.0274  0.0835
46890SOL    HW246508   4.649   7.192   9.652  0.1765  0.3066  2.5502
46891SOL     OW46509   0.425   8.602   3.032  0.0965  0.0890 -0.3161
46891SOL    HW146510   0.499   8.647   2.991  0.4078 -0.4744 -0.3890
46891SOL    HW246511   0.464   8.524   3.072  0.0735  1.3026  2.2971
46892SOL     OW46512   9.173   1.877   9.452  0.4913 -0.2183  0.5325
46892SOL    HW146513   9.183   1.970   9.432  1.5783 -0.1551  1.2597
46892SOL    HW246514   9.157   1.875   9.546 -1.7823 -0.6619  0.1901
46893SOL     OW46515   7.270   9.270  12.270 -0.8697 -0.5487 -0.2663
46893SOL    HW146516   7.201   9.204  12.261 -0.0357 -1.3968 -0.6072
46893SOL    HW246517   7.326   9.237  12.341 -0.7898  0.1192 -0.0063
46894SOL     OW46518   5.436   1.927   9.632 -0.1980 -0.2636  0.0115
46894SOL    HW146519   5.345   1.912   9.657 -0.0539 -2.2398 -0.5087
46894SOL    HW246520   5.487   1.865   9.684  0.8120  0.4852 -0.0473
46895SOL     OW46521   4.859   1.748   7.462  0.0261  0.2906  0.5162
46895SOL    HW146522   4.854   1.832   7.508 -0.6801  1.7484 -2.0321
46895SOL    HW246523   4.797   1.692   7.509 -0.5038  1.6157  1.4736
46896SOL     OW46524   6.902   7.605   3.372 -0.0814  0.3315  0.4980
46896SOL    HW146525   6.965   7.657   3.323  0.3148  0.0783  0.7359
46896SOL    HW246526   6.832   7.667   3.394 -0.2632  0.4485 -0.3695
46897SOL     OW46527   8.155   0.437   2.792 -0.1020  0.2254  0.8345
46897SOL    HW146528   8.199   0.518   2.767 -0.6823  0.2652 -0.1155
46897SOL    HW246529   8.209   0.368   2.754 -1.1624  0.2971 -0.9313
46898SOL     OW46530   5.901   7.398   8.915 -0.3224 -0.0021  0.3928
46898SOL    HW146531   5.876   7.308   8.938  0.2039 -0.4790 -0.8230
46898SOL    HW246532   5.822   7.436   8.877 -0.0743 -0.5537 -0.7314
46899SOL     OW46533   5.250   7.545   2.259 -0.7502  0.0958  0.3729
46899SOL    HW146534   5.300   7.469   2.291 -0.5155 -0.6602 -1.6506
46899SOL    HW246535   5.256   7.609   2.330 -0.1524 -1.4120  1.7530
46900SOL     OW46536   2.790  11.890   3.420  0.2115 -0.8374  0.0175
46900SOL    HW146537   2.842  11.818   3.456 -1.7956 -2.1488  0.4618
46900SOL    HW246538   2.815  11.894   3.328  0.7491 -1.7629  0.1114
46901SOL     OW46539   2.575   0.793   9.385  0.0107 -0.4156 -0.6543
46901SOL    HW146540   2.562   0.711   9.338  1.1937  0.1903 -2.1269
46901SOL    HW246541   2.629   0.769   9.461 -0.5917 -1.1654 -0.4618
46902SOL     OW46542   8.684   1.272   4.942 -0.1299  0.1257 -0.5360
46902SOL    HW146543   8.608   1.224   4.975  0.1594 -0.2496 -0.4046
46902SOL    HW246544   8.741   1.281   5.018 -0.2427  0.8096 -0.5258
46903SOL     OW46545   7.979   9.315   2.817 -0.2444  0.0941  0.4549
46903SOL    HW146546   8.005   9.276   2.901  0.3903  0.2131  0.3175
46903SOL    HW246547   8.011   9.253   2.751 -1.3608 -0.3545  0.3154
46904SOL     OW46548  12.086   4.768  11.592 -0.6288 -0.6852  0.5758
46904SOL    HW146549  11.996   4.770  11.623 -0.7579  1.2615  0.2394
46904SOL    HW246550  12.131   4.707  11.651 -3.0468 -5.7205 -2.1931
46905SOL     OW46551   2.132   2.286   3.627  0.4985  0.0530  0.3439
46905SOL    HW146552   2.181   2.251   3.702 -1.0615 -0.0629  1.3640
46905SOL    HW246553   2.043   2.252   3.639  0.3279 -0.4357 -1.8935
46906SOL     OW46554   6.070   7.217   6.075 -0.1676 -0.7336  0.1970
46906SOL    HW146555   6.027   7.296   6.109 -0.4351 -0.7821 -0.0180
46906SOL    HW246556   6.143   7.201   6.134  0.0756 -0.1452  0.0642
46907SOL     OW46557   5.435   4.201   4.992 -0.0341 -0.0175  0.6638
46907SOL    HW146558   5.394   4.207   5.078  1.5046 -1.1847  1.5406
46907SOL    HW246559   5.528   4.188   5.011  0.3773 -0.0418 -1.1836
46908SOL     OW46560  10.235   9.713   4.970  0.2613  0.3339 -0.0041
46908SOL    HW146561  10.232   9.793   5.022  0.0777  0.1623  0.2525
46908SOL    HW246562  10.187   9.734   4.890  1.1164  0.8057 -0.4002
46909SOL     OW46563   2.808   3.905  11.124  0.0075 -0.0429 -0.4188
46909SOL    HW146564   2.733   3.861  11.084  0.2449  0.4576 -1.4362
46909SOL    HW246565   2.784   3.998  11.125 -0.6027 -0.1465  1.9592
46910SOL     OW46566   5.221   8.566  11.967 -0.4112 -0.0589  0.2961
46910SOL    HW146567   5.248   8.485  12.011  1.3823 -0.0528 -0.7322
46910SOL    HW246568   5.268   8.635  12.012 -0.5370  0.2242 -0.0008
46911SOL     OW46569  11.678   6.113   4.022 -0.0406  0.1531 -0.0131
46911SOL    HW146570  11.706   6.035   4.069  1.8037  0.5626 -0.3540
46911SOL    HW246571  11.603   6.084   3.971 -1.4724 -0.5543  2.3362
46912SOL     OW46572   5.799  11.749   8.293 -0.2165  0.3877  0.2317
46912SOL    HW146573   5.703  11.749   8.298 -0.2801 -1.2536 -0.2491
46912SOL    HW246574   5.818  11.748   8.199  0.2250 -0.4044  0.3133
46913SOL     OW46575   3.760   0.284   4.495 -0.0679  0.4707 -0.3754
46913SOL    HW146576   3.779   0.344   4.423  0.9621  0.1940 -0.3418
46913SOL    HW246577   3.804   0.203   4.471 -1.5980 -0.3632 -0.5046
46914SOL     OW46578   7.586   2.490  12.091 -0.1780 -0.4998 -0.1472
46914SOL    HW146579   7.603   2.496  11.997  1.7671 -2.1592  0.0294
46914SOL    HW246580   7.588   2.580  12.122  0.0932 -0.0042 -1.5552
46915SOL     OW46581  11.930   7.597  11.346 -0.3199  0.0086 -0.2378
46915SOL    HW146582  11.928   7.590  11.250 -1.1812  0.1745 -0.2430
46915SOL    HW246583  11.876   7.674  11.365  0.8932  0.7469  0.3270
46916SOL     OW46584  11.331   1.541   8.458 -0.1447  0.4430 -0.0633
46916SOL    HW146585  11.322   1.515   8.549  0.1530 -0.1876 -0.2121
46916SOL    HW246586  11.248   1.517   8.417 -0.9208  2.1936  0.3751
46917SOL     OW46587   3.776   6.893   4.652 -0.2629 -0.2783 -0.6084
46917SOL    HW146588   3.814   6.844   4.725  1.0371 -0.6659 -1.5154
46917SOL    HW246589   3.762   6.981   4.687 -1.1787 -0.8729  0.5733
46918SOL     OW46590   2.276   8.826   2.186 -0.0616 -0.0380 -0.5306
46918SOL    HW146591   2.338   8.896   2.165 -0.7939  0.7065 -0.2711
46918SOL    HW246592   2.232   8.808   2.103  0.0646 -0.1342 -0.5775
46919SOL     OW46593   4.965   2.247   0.671 -0.0548 -0.4540  0.0417
46919SOL    HW146594   5.020   2.307   0.619 -1.4295  0.6575 -0.1975
46919SOL    HW246595   5.016   2.166   0.675  1.5642  0.4929 -0.2211
46920SOL     OW46596   8.734   0.904   1.880 -0.2265  0.4824  0.2063
46920SOL    HW146597   8.683   0.855   1.817  0.7356 -0.6190  0.2491
46920SOL    HW246598   8.822   0.908   1.842 -0.5163  3.2728 -0.3865
46921SOL     OW46599   5.832   9.830   2.212 -0.2231  0.0342  0.2413
46921SOL    HW146600   5.839   9.897   2.144  2.6038  1.2343  1.5509
46921SOL    HW246601   5.780   9.871   2.281 -1.7293 -0.5972 -0.4737
46922SOL     OW46602   3.142   1.735   6.104  0.0023  0.4060  0.3579
46922SOL    HW146603   3.162   1.817   6.060  0.3811  1.2447  2.0310
46922SOL    HW246604   3.226   1.702   6.136  0.1300 -1.5833 -1.7839
46923SOL     OW46605   4.615  10.050   1.922 -0.1772 -0.3061 -0.0002
46923SOL    HW146606   4.672  10.036   1.846  1.7241  0.1128  1.2715
46923SOL    HW246607   4.535  10.002   1.901  0.9959 -1.7480 -1.4802
46924SOL     OW46608   1.315   0.840  12.147 -0.0340 -0.1277  0.2962
46924SOL    HW146609   1.315   0.868  12.239 -1.0841 -0.5622  0.4431
46924SOL    HW246610   1.318   0.922  12.097 -1.6755  0.2379  0.7251
46925SOL     OW46611   3.951   5.446   1.379 -0.2664  0.1708  0.1927
46925SOL    HW146612   4.008   5.438   1.456 -0.7251 -0.4113  0.4778
46925SOL    HW246613   3.880   5.383   1.394 -1.0264  0.9208 -0.1225
46926SOL     OW46614   0.138   2.068  10.053 -0.3848  0.6698 -0.2238
46926SOL    HW146615   0.169   2.114  10.131  0.4090  1.2937 -0.8925
46926SOL    HW246616   0.043   2.078  10.055 -0.7540 -1.8513  2.2383
46927SOL     OW46617   6.098   0.439   2.598  0.4144  0.0578 -0.0894
46927SOL    HW146618   6.070   0.511   2.542  1.0120  0.2768 -0.1140
46927SOL    HW246619   6.019   0.387   2.613  0.2622 -0.0431 -1.1917
46928SOL     OW46620   6.762  10.867   8.636  0.2410 -0.3381  0.8623
46928SOL    HW146621   6.799  10.929   8.698  0.1131  0.5663  0.0556
46928SOL    HW246622   6.741  10.790   8.689  0.2444  0.3620  1.9131
46929SOL     OW46623   0.998   7.687   7.161 -0.6887  0.0614  0.4352
46929SOL    HW146624   0.978   7.779   7.179  0.4229  0.3551  0.1996
46929SOL    HW246625   0.926   7.657   7.105 -1.4570  0.5669  1.1332
46930SOL     OW46626   4.770   7.436  10.219 -0.1284  0.2949 -0.5635
46930SOL    HW146627   4.818   7.402  10.295 -1.1937  0.0750  0.0393
46930SOL    HW246628   4.701   7.371  10.204 -1.4010  1.5024 -0.2118
46931SOL     OW46629   1.726  12.306   0.138 -0.0686 -0.6147  0.1582
46931SOL    HW146630   1.682  12.391   0.134 -1.4532 -1.2856  0.4131
46931SOL    HW246631   1.675  12.250   0.080  1.1641 -1.1431 -0.4347
46932SOL     OW46632  11.173   6.369   0.915 -0.0126 -0.4904 -0.5121
46932SOL    HW146633  11.230   6.298   0.946 -2.3355 -1.7855  1.2021
46932SOL    HW246634  11.132   6.403   0.995 -1.9017  0.0813 -1.6613
46933SOL     OW46635   3.237  10.393   1.819 -0.4252  0.5797  0.2313
46933SOL    HW146636   3.282  10.319   1.860 -1.0806 -0.6404 -1.1772
46933SOL    HW246637   3.148  10.363   1.805 -0.4811  1.3009 -1.1689
46934SOL     OW46638   0.647   9.630   9.016 -0.4656 -0.3705  0.3763
46934SOL    HW146639   0.688   9.557   8.970 -0.1958 -0.0928  0.1837
46934SOL    HW246640   0.654   9.704   8.957 -0.1439 -0.0196  0.8456
46935SOL     OW46641   7.765   7.531   8.700  0.0263  0.3851 -0.0481
46935SOL    HW146642   7.834   7.474   8.666  0.9260  1.4020  0.0070
46935SOL    HW246643   7.706   7.545   8.625 -1.1412 -1.8960  0.3680
46936SOL     OW46644   4.300   6.180   4.092 -0.2049 -0.1445 -0.1572
46936SOL    HW146645   4.214   6.141   4.078 -0.0267 -0.3049 -0.8335
46936SOL    HW246646   4.355   6.106   4.120 -0.4329  0.0762  0.9107
46937SOL     OW46647   8.520   0.674  11.148  0.4580 -0.0251  0.5009
46937SOL    HW146648   8.539   0.671  11.055  0.9618  1.6429  0.5067
46937SOL    HW246649   8.429   0.704  11.153  0.4114 -0.1742  0.5424
46938SOL     OW46650  11.226   2.219   7.565 -0.0499 -0.0087  0.4766
46938SOL    HW146651  11.174   2.200   7.487 -1.1609  0.8216  0.9887
46938SOL    HW246652  11.310   2.250   7.531 -0.2223 -0.4544 -0.3761
46939SOL     OW46653   3.090   4.927   1.382  0.2947  0.4178  0.3405
46939SOL    HW146654   3.106   4.883   1.465  0.6184  3.1719  1.8425
46939SOL    HW246655   3.174   4.966   1.359  0.1248 -0.0423 -1.1513
46940SOL     OW46656  11.894  10.600   2.413 -0.0603  0.0215 -0.1452
46940SOL    HW146657  11.853  10.651   2.483  0.5538  2.2666 -1.3164
46940SOL    HW246658  11.988  10.615   2.425  0.1096 -0.5326 -0.7335
46941SOL     OW46659   9.798   4.926   9.799 -0.5256 -0.4936 -0.3563
46941SOL    HW146660   9.882   4.909   9.841 -0.8341 -0.9654  0.0800
46941SOL    HW246661   9.733   4.892   9.860 -0.9790 -1.3801 -1.3084
46942SOL     OW46662   4.669   4.434   7.068  0.0284 -0.6005  0.1494
46942SOL    HW146663   4.653   4.363   7.006  0.9470 -2.1777  1.6004
46942SOL    HW246664   4.588   4.441   7.118 -0.1516 -0.4451 -0.1620
46943SOL     OW46665   1.189   2.809   3.885 -0.7913 -0.4534  0.0958
46943SOL    HW146666   1.273   2.822   3.929 -0.6954 -1.2512  0.1606
46943SOL    HW246667   1.124   2.814   3.955 -0.9647  1.6497 -0.1417
46944SOL     OW46668   1.160   6.971   6.617 -0.3683  0.0442  0.2812
46944SOL    HW146669   1.182   7.008   6.702  0.0817 -1.8821  1.0542
46944SOL    HW246670   1.139   7.047   6.562  0.7576  1.4268  1.6786
46945SOL     OW46671   6.378  10.206   5.256  0.4234  0.4152  0.1701
46945SOL    HW146672   6.322  10.131   5.239  1.7202 -0.6124  0.2900
46945SOL    HW246673   6.318  10.280   5.261 -1.1485 -0.8856  2.2730
46946SOL     OW46674   8.670   2.243   7.631  0.0962  0.2490  0.1226
46946SOL    HW146675   8.588   2.207   7.665  1.1111 -1.1114  1.2243
46946SOL    HW246676   8.690   2.190   7.554  0.2009  0.2630  0.1396
46947SOL     OW46677   8.971   6.221   5.038  0.0279  0.2496  0.5701
46947SOL    HW146678   9.008   6.260   4.959 -0.0257  1.1870  0.9967
46947SOL    HW246679   8.955   6.130   5.014  1.5944  0.0766  0.0332
46948SOL     OW46680   1.004   0.503  11.677  0.0815 -0.1012 -0.3169
46948SOL    HW146681   1.012   0.561  11.753 -0.1489  1.0080 -1.1234
46948SOL    HW246682   1.047   0.422  11.705 -1.6200 -0.4121  1.6635
46949SOL     OW46683  11.080   7.888   0.066 -0.1322  0.6644 -0.1086
46949SOL    HW146684  11.064   7.839  -0.016 -0.4857  0.2720  0.1879
46949SOL    HW246685  11.143   7.834   0.114  0.4545  1.1419 -0.3321
46950SOL     OW46686   2.734   2.081   4.668 -0.0452 -0.1073 -0.0752
46950SOL    HW146687   2.794   2.012   4.643  0.1642 -0.8660  2.2582
46950SOL    HW246688   2.790   2.154   4.695 -0.1931 -0.2510  0.6345
46951SOL     OW46689  12.101   7.778   4.881  0.4288  0.1702 -0.0118
46951SOL    HW146690  12.033   7.806   4.821 -1.1796 -1.9067  0.7203
46951SOL    HW246691  12.163   7.728   4.827 -1.0196 -1.7035 -0.0358
46952SOL     OW46692  11.654  11.922  11.153 -0.1259  0.4224  0.5277
46952SOL    HW146693  11.638  12.008  11.191 -0.4674  0.5039  0.2057
46952SOL    HW246694  11.743  11.927  11.119  0.5228  0.0559  2.0945
46953SOL     OW46695   5.858   3.522   6.328  0.0376 -0.1843 -0.1792
46953SOL    HW146696   5.788   3.525   6.393  1.6645 -1.5398  1.7259
46953SOL    HW246697   5.878   3.429   6.318  0.6564  0.0871 -1.7288
46954SOL     OW46698  10.623   5.159   3.660  0.1356  0.3234 -0.3722
46954SOL    HW146699  10.547   5.188   3.609  0.4767 -0.8585 -1.6325
46954SOL    HW246700  10.632   5.066   3.637  2.1584  0.5217 -0.5230
46955SOL     OW46701   1.877  10.990   5.904 -0.3385 -0.1625 -0.3268
46955SOL    HW146702   1.897  11.072   5.859 -0.0329  0.3173  0.6549
46955SOL    HW246703   1.790  11.004   5.943  0.1275  0.0790  0.6691
46956SOL     OW46704  11.143  11.940   6.118  0.4029  0.2392  0.5416
46956SOL    HW146705  11.142  11.868   6.055  0.3768  0.7515 -0.0517
46956SOL    HW246706  11.142  12.019   6.065 -0.0902  0.6854  1.1926
46957SOL     OW46707   9.304  11.024   8.480  1.3554  0.2139 -0.1105
46957SOL    HW146708   9.310  10.980   8.565 -0.7305 -1.3345 -0.6938
46957SOL    HW246709   9.394  11.023   8.446  2.2202  0.7891  1.9879
46958SOL     OW46710   5.309   1.819   5.051  0.1452  0.0583  0.2159
46958SOL    HW146711   5.367   1.838   5.125  0.5673  0.6896 -0.2634
46958SOL    HW246712   5.276   1.905   5.024  0.8433 -0.0404 -1.0082
46959SOL     OW46713   8.222  10.406  11.526 -0.6298 -0.2948 -0.5232
46959SOL    HW146714   8.182  10.459  11.456  2.4508  3.8786  0.4837
46959SOL    HW246715   8.225  10.465  11.601  1.3438 -2.6612  1.4096
46960SOL     OW46716   8.595  10.446   0.020  0.5717 -0.2633  1.0672
46960SOL    HW146717   8.651  10.444   0.098 -1.5924 -0.4498  2.7206
46960SOL    HW246718   8.537  10.371   0.031  0.1110 -0.1966 -0.6891
46961SOL     OW46719   7.262   9.053   1.790 -0.0874  0.2755  0.0307
46961SOL    HW146720   7.207   9.129   1.809  2.1462  2.0969 -0.3628
46961SOL    HW246721   7.221   9.011   1.715 -3.1715 -0.9055  2.1555
46962SOL     OW46722  10.100   4.940   0.305  0.1472  0.5271  0.2129
46962SOL    HW146723  10.094   4.876   0.376 -1.0286  0.8848  0.4691
46962SOL    HW246724  10.191   4.937   0.277  0.6106  0.2656  1.6458
46963SOL     OW46725   6.671   0.543   7.070 -0.4813  0.5871 -0.8398
46963SOL    HW146726   6.748   0.488   7.057 -1.3293 -0.5264 -1.3021
46963SOL    HW246727   6.705   0.623   7.110  0.7703 -0.3034 -0.0456
46964SOL     OW46728   1.306  10.746   4.625 -0.1866 -0.0517 -0.3630
46964SOL    HW146729   1.290  10.698   4.706 -1.3957 -1.1102 -1.2012
46964SOL    HW246730   1.290  10.837   4.648 -1.6970 -0.4633  0.3024
46965SOL     OW46731   8.087   1.183  11.765  0.1892  0.7377  0.2137
46965SOL    HW146732   7.996   1.157  11.746  0.5958 -0.5699 -0.0310
46965SOL    HW246733   8.108   1.140  11.847  0.4235  1.4769  0.5464
46966SOL     OW46734   5.424   1.954   3.158 -0.0745 -0.2775  0.5364
46966SOL    HW146735   5.407   1.950   3.064 -0.2546 -0.6334  0.5838
46966SOL    HW246736   5.351   1.907   3.198 -0.0965  0.0289  0.8673
46967SOL     OW46737   9.575   2.912   6.031  0.0345  0.6968  0.0820
46967SOL    HW146738   9.566   2.889   5.939  2.2106 -0.3125  0.0500
46967SOL    HW246739   9.540   2.836   6.078 -0.1973  0.8075  0.0923
46968SOL     OW46740   8.767   3.960   0.501 -0.3076  0.6364 -0.0117
46968SOL    HW146741   8.788   3.872   0.472  1.1454  1.0332 -0.2717
46968SOL    HW246742   8.672   3.961   0.511 -0.6568 -0.1309 -2.6954
46969SOL     OW46743   3.021  10.820   9.387  0.0355  0.2679 -0.3106
46969SOL    HW146744   2.996  10.774   9.307  2.7651  1.2318 -1.8420
46969SOL    HW246745   3.033  10.750   9.451 -4.5605 -0.3907  0.1841
46970SOL     OW46746   3.529   8.795  11.423 -0.0858 -0.0192 -0.0297
46970SOL    HW146747   3.607   8.827  11.467  0.3123 -0.8620 -0.1146
46970SOL    HW246748   3.509   8.861  11.357  1.0525 -0.2074 -0.5783
46971SOL     OW46749   9.625   2.956   6.292 -0.2382 -0.2336 -0.1627
46971SOL    HW146750   9.594   2.875   6.333 -1.0270  0.1179 -0.0395
46971SOL    HW246751   9.604   2.946   6.199 -1.4280  0.2942  0.0213
46972SOL     OW46752   0.209   2.517   7.458  0.2060 -0.4366  0.2415
46972SOL    HW146753   0.232   2.491   7.547  1.7330 -0.3190 -0.0808
46972SOL    HW246754   0.216   2.612   7.458  0.5051 -0.4542 -0.0573
46973SOL     OW46755  11.220   4.832   0.730  0.6096 -0.0096  0.1254
46973SOL    HW146756  11.198   4.895   0.798 -2.1894 -1.0214  0.2870
46973SOL    HW246757  11.250   4.885   0.656  3.5135  1.1220  1.9196
46974SOL     OW46758  10.172  11.113   3.369  0.1358  0.2961 -0.0370
46974SOL    HW146759  10.257  11.083   3.337 -0.1155  0.6284 -1.0346
46974SOL    HW246760  10.177  11.101   3.464  0.4406 -1.8685 -0.2847
46975SOL     OW46761   9.325   9.378   5.932 -0.2939 -0.3500 -0.2610
46975SOL    HW146762   9.305   9.471   5.918 -0.1710 -0.5678 -2.2081
46975SOL    HW246763   9.257   9.348   5.992 -1.3290  0.6308 -0.8965
46976SOL     OW46764   3.289   3.391  11.003 -0.5297 -0.2328  0.3634
46976SOL    HW146765   3.373   3.348  11.021 -0.0293  0.3074 -0.6193
46976SOL    HW246766   3.308   3.450  10.931 -2.1066 -1.1740 -0.8746
46977SOL     OW46767   8.912   2.821   4.869  0.3347  0.1243 -0.2434
46977SOL    HW146768   8.830   2.852   4.909  0.2062 -0.7196  0.1645
46977SOL    HW246769   8.923   2.876   4.791 -0.4570  0.4484 -0.1377
46978SOL     OW46770   4.711   0.580   6.469 -0.8020  0.8924 -0.4940
46978SOL    HW146771   4.699   0.611   6.559  0.0362  1.2859 -0.5089
46978SOL    HW246772   4.625   0.594   6.427 -1.6027 -0.5221  0.5834
46979SOL     OW46773   1.918   6.579   3.005 -0.0886  0.3020  0.1098
46979SOL    HW146774   1.935   6.661   3.050  1.0814  0.5816 -0.7938
46979SOL    HW246775   1.918   6.602   2.912  2.1437 -0.9924 -0.2800
46980SOL     OW46776   3.508   7.958  10.006 -0.3127 -0.1554  0.1561
46980SOL    HW146777   3.492   8.019  10.078 -0.8824  1.2894 -1.1438
46980SOL    HW246778   3.575   7.999   9.953  0.2600 -1.3041 -0.0493
46981SOL     OW46779   8.604  10.366   8.033  0.2003  0.1076  0.0915
46981SOL    HW146780   8.562  10.282   8.018 -0.1460  0.6670 -2.7134
46981SOL    HW246781   8.532  10.429   8.036  0.5524  0.4988  0.5709
46982SOL     OW46782   9.403   9.860  10.102 -0.0230  1.0661 -0.5642
46982SOL    HW146783   9.313   9.831  10.089  0.6031 -0.8316 -0.9810
46982SOL    HW246784   9.416   9.930  10.038 -0.6010 -0.0178 -1.8940
46983SOL     OW46785  10.335   6.464   3.194 -0.2188 -0.1529 -0.5326
46983SOL    HW146786  10.354   6.445   3.286 -1.7343 -2.0987 -0.5769
46983SOL    HW246787  10.421   6.463   3.152  0.3607 -0.6524  0.6132
46984SOL     OW46788   4.726   2.107   7.233  0.6750 -0.3675  0.3871
46984SOL    HW146789   4.638   2.068   7.236  0.1487  0.7504  3.1299
46984SOL    HW246790   4.738   2.134   7.142 -1.5133 -1.2347 -0.2179
46985SOL     OW46791   6.585   2.793   6.323 -0.6956  0.1455 -0.1364
46985SOL    HW146792   6.650   2.738   6.279  1.7405  1.5621  1.3920
46985SOL    HW246793   6.517   2.732   6.351 -0.1984 -1.3943 -2.0561
46986SOL     OW46794  11.318   0.122  11.880 -0.2805  0.3437  0.5211
46986SOL    HW146795  11.356   0.120  11.968 -0.7253 -0.2162  0.7106
46986SOL    HW246796  11.244   0.184  11.888  0.0509  0.7637  0.3775
46987SOL     OW46797   7.827   9.332   1.777  0.4653 -0.5324  0.0432
46987SOL    HW146798   7.889   9.260   1.764  0.7676 -0.0109 -1.6342
46987SOL    HW246799   7.742   9.289   1.783  0.7225 -1.0883 -0.2016
46988SOL     OW46800   5.886   6.641   5.431 -0.5534  0.0598  0.2980
46988SOL    HW146801   5.977   6.611   5.431 -0.2329  0.9864  0.4956
46988SOL    HW246802   5.879   6.699   5.356 -1.5365 -1.5251 -0.8956
46989SOL     OW46803   2.475   0.888   0.001  0.4338  0.0195  0.0217
46989SOL    HW146804   2.466   0.796   0.024  0.7493  0.6617  3.0803
46989SOL    HW246805   2.387   0.924   0.010  0.0216 -0.1718 -2.5344
46990SOL     OW46806   7.729   8.915   2.131 -0.4072  0.3920  0.3939
46990SOL    HW146807   7.813   8.931   2.175  1.3548  2.7930 -3.3142
46990SOL    HW246808   7.674   8.988   2.156  0.0339  0.9034 -0.0889
46991SOL     OW46809   6.995  11.161  10.983 -0.0913  0.1680 -0.3096
46991SOL    HW146810   7.075  11.122  10.948 -0.4916  0.0669 -1.1508
46991SOL    HW246811   6.927  11.095  10.965 -1.0148  1.6493 -2.8428
46992SOL     OW46812   5.680   7.463   3.148 -0.0876  0.3656  0.2956
46992SOL    HW146813   5.587   7.451   3.170 -0.7889  1.9097 -1.6247
46992SOL    HW246814   5.700   7.390   3.089  0.5140 -1.0705  2.1653
46993SOL     OW46815  10.900   9.513   0.308  0.5514  0.1276 -0.0496
46993SOL    HW146816  10.905   9.457   0.231 -0.0835  0.4245 -0.3170
46993SOL    HW246817  10.990   9.541   0.323  1.3286 -2.8574  1.5506
46994SOL     OW46818   1.828   6.648  12.153  0.1782 -0.3525  0.7405
46994SOL    HW146819   1.805   6.739  12.171 -0.6098 -0.8531  2.5196
46994SOL    HW246820   1.744   6.602  12.148  0.5574 -0.9495 -0.3773
46995SOL     OW46821  11.375   9.153   2.645  0.0685  0.3680  0.4427
46995SOL    HW146822  11.406   9.227   2.593  1.6724 -0.1027  0.6747
46995SOL    HW246823  11.344   9.089   2.581  0.5317  0.4484  0.1346
46996SOL     OW46824   7.422   1.549   5.110  0.4263 -0.0168  0.2488
46996SOL    HW146825   7.501   1.576   5.065  0.6326  1.4585  1.4199
46996SOL    HW246826   7.410   1.614   5.179 -1.8616 -0.1371  0.0498
46997SOL     OW46827   2.875  10.803  12.137 -0.2845  0.0723 -0.4641
46997SOL    HW146828   2.786  10.836  12.141  0.2264  1.4380  1.5065
46997SOL    HW246829   2.869  10.712  12.167 -0.8336  0.6810  1.3959
46998SOL     OW46830   3.105   5.091   1.993 -0.0782  0.0579 -0.8289
46998SOL    HW146831   3.062   5.169   1.958  1.1371  0.7482 -0.8271
46998SOL    HW246832   3.051   5.065   2.068  0.2353  1.6997  0.0040
46999SOL     OW46833   8.385  10.108   6.030  0.7664  0.1580 -0.2612
46999SOL    HW146834   8.439  10.030   6.037  1.0398  0.4196  0.6636
46999SOL    HW246835   8.426  10.172   6.088  0.0173  0.6805 -0.2831
47000SOL     OW46836   5.988   1.848   9.846  0.2505 -0.3306  0.3016
47000SOL    HW146837   5.958   1.763   9.814  0.4768  0.2126 -1.4406
47000SOL    HW246838   6.060   1.871   9.788 -1.2306  2.0583 -0.7510
47001SOL     OW46839   0.329   8.439   9.314  0.4993  0.6815  0.4498
47001SOL    HW146840   0.255   8.422   9.256  0.2208  0.1160  0.9608
47001SOL    HW246841   0.394   8.373   9.290  0.4701  0.5866  0.6297
47002SOL     OW46842   4.874  12.178  10.280 -0.2870 -0.1112  0.1704
47002SOL    HW146843   4.891  12.085  10.294 -1.2207 -0.5569 -1.4000
47002SOL    HW246844   4.779  12.185  10.277 -0.2194  0.8329 -0.1025
47003SOL     OW46845   3.216   3.519  11.382 -0.2436 -0.6329  0.0205
47003SOL    HW146846   3.211   3.424  11.391  1.1516 -0.7326 -0.0995
47003SOL    HW246847   3.256   3.549  11.464  3.3358 -0.6058 -1.5591
47004SOL     OW46848  10.641   9.406   3.652 -0.6590 -0.6264 -0.2003
47004SOL    HW146849  10.573   9.463   3.688  0.0089 -0.0623  0.1840
47004SOL    HW246850  10.692   9.462   3.594 -0.3925 -1.0005 -0.3330
47005SOL     OW46851   2.040   5.150   0.639  0.2122  0.4633  0.5084
47005SOL    HW146852   1.956   5.105   0.654  0.0616  1.3054  2.4417
47005SOL    HW246853   2.094   5.125   0.714  1.1399  1.2147  0.1071
47006SOL     OW46854  11.051  10.868   8.823  0.4901 -0.5312 -0.1234
47006SOL    HW146855  10.982  10.856   8.889  1.5384  1.3624  1.4180
47006SOL    HW246856  11.128  10.825   8.861  0.9054 -0.1285 -0.5072
47007SOL     OW46857  10.379   4.924   2.335  0.2152  0.6262 -0.2793
47007SOL    HW146858  10.403   4.911   2.243 -0.3527  3.4201 -0.9196
47007SOL    HW246859  10.309   4.990   2.332 -0.0251  0.5572  2.1587
47008SOL     OW46860   6.463   3.979   2.018 -0.6197 -0.1873  0.1757
47008SOL    HW146861   6.394   3.915   2.000 -0.1436 -0.2797 -1.4731
47008SOL    HW246862   6.422   4.064   2.000 -0.7554 -0.1265  0.7440
47009SOL     OW46863   2.810   2.415   9.305  0.5720  0.2232  0.1521
47009SOL    HW146864   2.760   2.493   9.326  2.2835  1.1434  1.0326
47009SOL    HW246865   2.901   2.445   9.298  0.9297 -1.0693 -2.8327
47010SOL     OW46866   1.083   5.549   0.125  0.6003  0.5416 -0.0745
47010SOL    HW146867   1.040   5.494   0.059  1.7449 -0.3563 -0.1091
47010SOL    HW246868   1.046   5.636   0.112 -0.7476 -0.0653 -0.4927
47011SOL     OW46869   9.028   1.398  10.531 -0.0031 -0.2846  0.3922
47011SOL    HW146870   8.996   1.318  10.491 -2.5098 -0.2030  1.9956
47011SOL    HW246871   8.971   1.467  10.496  1.0573  0.5695  0.2748
47012SOL     OW46872   3.604   3.763  11.378 -0.4389  0.1570 -0.2463
47012SOL    HW146873   3.557   3.821  11.438  0.7576  1.0460 -0.1496
47012SOL    HW246874   3.535   3.725  11.324 -1.5601 -0.7184  1.6957
47013SOL     OW46875   4.522  10.181  10.113  0.1660 -0.0363 -0.2584
47013SOL    HW146876   4.497  10.123  10.185 -1.1824 -0.0482 -0.7084
47013SOL    HW246877   4.504  10.130  10.034  0.2393  0.5002 -0.6231
47014SOL     OW46878   3.907   7.005   9.905  0.3849 -0.1959 -0.2754
47014SOL    HW146879   3.904   6.998   9.809 -0.1671 -1.1835 -0.1985
47014SOL    HW246880   3.850   6.935   9.936  0.0653  0.5049  0.7716
47015SOL     OW46881   3.136   1.126  11.239  0.9097 -0.4706  0.2987
47015SOL    HW146882   3.188   1.060  11.284  0.8318  0.6247  2.0603
47015SOL    HW246883   3.187   1.207  11.246 -0.3310  0.3086  0.7937
47016SOL     OW46884   9.174   3.477   2.066  0.2585  0.1718  0.0152
47016SOL    HW146885   9.173   3.403   2.005 -0.5913  0.8306 -0.8033
47016SOL    HW246886   9.145   3.440   2.149 -0.7507 -0.2997 -0.5355
47017SOL     OW46887   9.291   4.092  10.906 -0.3774 -0.0592  0.1980
47017SOL    HW146888   9.250   4.173  10.874 -0.5657  0.0412  0.6826
47017SOL    HW246889   9.384   4.101  10.881  0.1136  1.3945  2.2613
47018SOL     OW46890   7.095   9.516   3.600  0.0803  0.2031 -0.4217
47018SOL    HW146891   7.021   9.575   3.588  0.0568  0.4020  0.6074
47018SOL    HW246892   7.056   9.435   3.634  0.4228  0.7077  1.2793
47019SOL     OW46893   6.939   9.646  10.443  0.1113  0.3591 -0.1320
47019SOL    HW146894   6.851   9.611  10.433  0.9331 -1.7502 -0.3729
47019SOL    HW246895   6.925   9.739  10.463 -2.1726 -0.0670  0.6017
47020SOL     OW46896   7.583   0.865   4.995  0.4054  0.3287  0.1545
47020SOL    HW146897   7.647   0.906   5.054  0.6346  0.2891 -0.0668
47020SOL    HW246898   7.533   0.938   4.960  1.4849  0.5324 -1.0395
47021SOL     OW46899   2.674   9.790  10.388  0.1656 -0.0397 -0.3381
47021SOL    HW146900   2.751   9.842  10.364 -0.2265 -0.3695 -2.5347
47021SOL    HW246901   2.709   9.702  10.405  0.4944  0.2715  0.6178
47022SOL     OW46902   1.009  11.971  12.278  0.5111  0.3575 -0.8392
47022SOL    HW146903   1.014  11.933  12.366 -4.3101 -1.6198 -1.1357
47022SOL    HW246904   1.031  11.899  12.219  1.0935  0.9244 -1.3284
47023SOL     OW46905   4.418   4.666   8.901 -0.0417 -0.5789 -0.2804
47023SOL    HW146906   4.462   4.743   8.865  0.9611 -0.3908  1.2395
47023SOL    HW246907   4.487   4.600   8.908  0.1865 -0.1863  2.4154
47024SOL     OW46908   0.699   9.979   2.342  0.6576  0.0458 -0.4039
47024SOL    HW146909   0.700   9.940   2.254 -0.3143 -0.3573 -0.2555
47024SOL    HW246910   0.664  10.067   2.329 -0.3983 -0.3413 -0.3222
47025SOL     OW46911   1.693   4.603  11.818 -0.4477  0.2978 -0.1255
47025SOL    HW146912   1.642   4.637  11.744  0.9656  0.6699 -0.9520
47025SOL    HW246913   1.782   4.593  11.784  0.6436  2.0447  1.9357
47026SOL     OW46914  10.756   4.340   0.940 -0.5326 -0.5679 -0.0764
47026SOL    HW146915  10.794   4.416   0.897  0.7075 -2.0423 -1.7587
47026SOL    HW246916  10.672   4.327   0.895 -0.2738 -0.7721 -0.5121
47027SOL     OW46917  11.759   5.474  11.511 -0.0925  0.3464  0.1900
47027SOL    HW146918  11.767   5.401  11.572  0.4154 -1.2910 -1.7031
47027SOL    HW246919  11.668   5.472  11.483 -0.0231  0.2731 -0.0365
47028SOL     OW46920   0.501  11.036   2.546 -0.0625  0.2913  0.0770
47028SOL    HW146921   0.564  11.039   2.619  0.4932  2.6073 -0.4126
47028SOL    HW246922   0.554  11.049   2.468 -1.0836  2.6564 -0.3273
47029SOL     OW46923   0.065   4.258   2.388 -0.2591 -0.0903  0.6412
47029SOL    HW146924   0.049   4.176   2.340 -0.6861 -0.2208  1.0019
47029SOL    HW246925   0.078   4.230   2.479  0.7973  0.1288  0.5691
47030SOL     OW46926   1.128  12.079   5.640 -0.4081  0.4095  0.2007
47030SOL    HW146927   1.097  12.136   5.569  1.6856  0.0167 -1.1080
47030SOL    HW246928   1.161  12.001   5.595  2.8842  1.0009  1.3342
47031SOL     OW46929   5.664  10.543   3.005 -0.5593 -0.3715  0.3500
47031SOL    HW146930   5.727  10.543   2.933 -1.0820 -0.5753 -0.1164
47031SOL    HW246931   5.706  10.492   3.074  0.3657  0.6487  0.5811
47032SOL     OW46932  10.555  10.374   6.984 -0.3583  0.2499 -0.1824
47032SOL    HW146933  10.549  10.331   7.069  1.1272 -3.0735 -1.6016
47032SOL    HW246934  10.470  10.358   6.942 -0.2801 -0.1278 -0.1954
47033SOL     OW46935   6.432  11.905   8.154 -0.3054 -0.2487 -0.1151
47033SOL    HW146936   6.414  11.994   8.185 -1.8251 -0.7022  0.3999
47033SOL    HW246937   6.456  11.856   8.232 -1.7982 -0.8263  0.0141
47034SOL     OW46938   0.215   8.559   6.644  0.4001 -0.0443 -0.2577
47034SOL    HW146939   0.199   8.510   6.563  1.8066  1.7340 -1.6870
47034SOL    HW246940   0.290   8.515   6.684  1.4457  0.6407 -1.3670
47035SOL     OW46941  10.889  10.066   2.681  0.6219 -0.0124 -0.4530
47035SOL    HW146942  10.980  10.093   2.674  0.4991  0.8761  1.1144
47035SOL    HW246943  10.839  10.147   2.689 -0.2960 -0.4928 -1.0262
47036SOL     OW46944   9.558   9.100   2.490  0.5236  0.2104  0.0206
47036SOL    HW146945   9.618   9.037   2.451  0.7546  0.9501 -0.8438
47036SOL    HW246946   9.496   9.047   2.539  0.3309 -0.7296 -1.2140
47037SOL     OW46947   7.438  10.352   2.306 -0.6874  0.3743  0.4327
47037SOL    HW146948   7.506  10.298   2.265 -0.8410 -0.1584  0.8689
47037SOL    HW246949   7.386  10.291   2.358 -1.4749  0.7869  0.1506
47038SOL     OW46950   7.702  11.325   9.202 -0.0646  0.0009 -0.2731
47038SOL    HW146951   7.732  11.377   9.277 -0.5004 -1.1867  0.7603
47038SOL    HW246952   7.699  11.388   9.129  2.8183  0.6606  0.0549
47039SOL     OW46953  10.984   1.920   6.329 -0.4466 -0.2836 -0.6974
47039SOL    HW146954  10.989   1.897   6.422  0.4142 -1.0134 -0.9026
47039SOL    HW246955  10.891   1.919   6.308 -0.7171  0.7099  0.3443
47040SOL     OW46956   6.531   6.621   1.569  0.4595  0.3954  0.2390
47040SOL    HW146957   6.572   6.562   1.506  0.6072 -1.9509  2.4016
47040SOL    HW246958   6.603   6.653   1.623  0.0475  0.1082  0.9845
47041SOL     OW46959  10.119   2.141   8.936 -0.3773  0.3373 -0.2236
47041SOL    HW146960  10.180   2.210   8.963 -0.4510  0.5545 -0.6110
47041SOL    HW246961  10.034   2.169   8.971 -0.5846  0.9116 -1.1548
47042SOL     OW46962   1.664  10.591  12.325  0.1191 -0.3830  0.2804
47042SOL    HW146963   1.595  10.533  12.292  0.7867 -0.6499 -0.7100
47042SOL    HW246964   1.736  10.532  12.346  0.0816 -0.0992  1.2124
47043SOL     OW46965  12.255   2.487  11.501  0.1351 -0.0373  0.0330
47043SOL    HW146966  12.237   2.398  11.470 -0.5419 -0.7038  2.1377
47043SOL    HW246967  12.337   2.479  11.550  0.0664  0.4794  0.2357
47044SOL     OW46968   4.189   3.044   7.770 -0.5173 -0.1863 -0.2827
47044SOL    HW146969   4.248   3.039   7.694 -0.1124 -0.7473  0.0576
47044SOL    HW246970   4.222   2.977   7.830 -0.3438  0.7658  0.7296
47045SOL     OW46971   3.399  11.793   0.652  0.5693 -0.1075 -0.0406
47045SOL    HW146972   3.429  11.757   0.735  1.9621  0.1735 -0.4014
47045SOL    HW246973   3.324  11.739   0.627  0.4999 -0.5533  1.1064
47046SOL     OW46974   9.385   0.054   9.030  0.0145 -0.2141  0.1418
47046SOL    HW146975   9.292   0.060   9.054  0.3750  0.5285  1.4072
47046SOL    HW246976   9.384   0.049   8.934 -1.2834  1.0880  0.0516
47047SOL     OW46977   8.895   8.730   5.445  0.6967  0.0821  0.5696
47047SOL    HW146978   8.844   8.688   5.515  1.1608 -2.2849 -0.4085
47047SOL    HW246979   8.831   8.783   5.397 -0.2376 -0.5367  1.1051
47048SOL     OW46980   0.646  11.628  10.299 -0.3478 -0.4070 -0.8198
47048SOL    HW146981   0.577  11.647  10.363 -0.1564  1.7177 -1.1724
47048SOL    HW246982   0.599  11.594  10.223 -1.0017  0.6034 -0.8962
47049SOL     OW46983   6.387   9.675   2.149  0.8046 -0.1423 -0.1550
47049SOL    HW146984   6.445   9.598   2.144 -0.0838 -0.8836  0.6377
47049SOL    HW246985   6.299   9.640   2.135  0.2222  0.4689  1.6502
47050SOL     OW46986   5.640   0.662   2.534 -0.1073 -0.4641  0.4575
47050SOL    HW146987   5.629   0.737   2.477  1.3860 -0.5185  0.0726
47050SOL    HW246988   5.682   0.696   2.612 -0.2847 -0.7350  0.6744
47051SOL     OW46989   9.695   1.787   2.722  0.2754  0.0136 -0.1223
47051SOL    HW146990   9.633   1.750   2.784 -0.0568  2.3770  1.0742
47051SOL    HW246991   9.778   1.791   2.771  0.9939 -1.5296 -1.1354
47052SOL     OW46992   0.868   7.163   6.685 -0.3166 -0.2916 -0.1818
47052SOL    HW146993   0.929   7.156   6.612  2.4282  0.1047  1.9134
47052SOL    HW246994   0.859   7.257   6.699 -3.1363 -0.2096 -1.6463
47053SOL     OW46995   7.766   5.956   1.645  0.7259 -0.1532  0.0845
47053SOL    HW146996   7.818   5.929   1.570  1.6997  0.6224  0.4657
47053SOL    HW246997   7.709   6.025   1.612  0.6449 -0.3138 -0.1073
47054SOL     OW46998   7.390  11.686   9.972  0.1044 -0.3459  0.2679
47054SOL    HW146999   7.327  11.726   9.911  0.4896 -1.9006 -1.2341
47054SOL    HW247000   7.341  11.616  10.015  0.2336 -0.1812  0.6885
47055SOL     OW47001  10.903   3.189   7.081  0.2601  0.2650  0.1684
47055SOL    HW147002  10.908   3.198   7.176  0.1484 -2.0113  0.4413
47055SOL    HW247003  10.811   3.201   7.060 -0.4522 -2.9333  0.9063
47056SOL     OW47004   7.366   9.992   8.042  0.4015  0.5345 -0.6048
47056SOL    HW147005   7.271   9.995   8.053  0.4539  1.3723 -0.3391
47056SOL    HW247006   7.385  10.060   7.978  0.9129  1.0092  0.0440
47057SOL     OW47007   5.235   0.858   0.238  0.4138  0.7038  0.5515
47057SOL    HW147008   5.245   0.916   0.313 -0.6979  0.0430  1.2441
47057SOL    HW247009   5.268   0.774   0.268 -2.7035 -0.3733  1.4134
47058SOL     OW47010   5.566  10.106   2.974  0.1290 -0.4801  0.1884
47058SOL    HW147011   5.511  10.172   3.017  0.4343 -0.3231  0.3369
47058SOL    HW247012   5.503  10.048   2.930 -0.1014  0.3187 -0.5417
47059SOL     OW47013   9.007  10.574   1.481  0.3746 -0.1808  0.2361
47059SOL    HW147014   9.069  10.522   1.533  1.8490 -0.9002 -2.0714
47059SOL    HW247015   9.063  10.631   1.427 -1.0456  0.4251 -0.6541
47060SOL     OW47016   6.319   0.735  11.772  0.2771 -0.1405 -0.1510
47060SOL    HW147017   6.357   0.680  11.704 -1.6163 -0.2628 -1.1555
47060SOL    HW247018   6.318   0.823  11.735 -1.7337 -0.3833 -0.7432
47061SOL     OW47019   4.623   5.353   0.887 -0.1796 -0.5999 -0.0524
47061SOL    HW147020   4.701   5.299   0.900 -1.0598 -1.4438  2.3151
47061SOL    HW247021   4.653   5.427   0.833  2.8842  0.3645  2.6503
47062SOL     OW47022   5.455   5.743   5.994 -0.1731 -0.2401  0.4032
47062SOL    HW147023   5.528   5.707   5.942 -1.6293 -0.4397 -1.6200
47062SOL    HW247024   5.496   5.811   6.048  1.5027 -0.2006 -0.8251
47063SOL     OW47025   2.744   9.425   0.478 -0.1495 -0.3740 -0.0321
47063SOL    HW147026   2.737   9.357   0.546  1.8760 -0.0370  0.5929
47063SOL    HW247027   2.795   9.384   0.409 -0.6210 -0.1120 -0.5386
47064SOL     OW47028   0.480   4.438   0.509  0.5204 -0.1925  0.2650
47064SOL    HW147029   0.534   4.383   0.452  0.2782 -0.2872  0.1262
47064SOL    HW247030   0.495   4.403   0.597  0.7869 -0.1348  0.2431
47065SOL     OW47031   2.847   0.528   8.482 -0.0456  0.2388  0.1593
47065SOL    HW147032   2.850   0.465   8.554  0.5420  0.1423  0.0533
47065SOL    HW247033   2.936   0.530   8.448 -0.5601 -0.5915 -1.3250
47066SOL     OW47034   2.924   7.152  11.456 -0.5131 -0.7043 -0.8091
47066SOL    HW147035   2.947   7.062  11.431 -1.9797 -1.6735  1.0694
47066SOL    HW247036   2.829   7.150  11.467 -0.4414  0.8005  0.2868
47067SOL     OW47037   0.196   5.937   3.161  0.2935  0.4353 -0.0052
47067SOL    HW147038   0.190   6.030   3.139  0.9789  0.2723 -0.9848
47067SOL    HW247039   0.281   5.910   3.124  0.3751 -0.4393  0.7904
47068SOL     OW47040   9.303   7.757   1.843 -0.1078  0.3397 -0.0469
47068SOL    HW147041   9.223   7.803   1.817 -1.5367 -0.5751  2.3736
47068SOL    HW247042   9.348   7.818   1.901 -0.4157 -0.1083  0.6777
47069SOL     OW47043   8.480   7.787   0.899 -0.2508  0.4878 -0.1151
47069SOL    HW147044   8.506   7.697   0.878  0.8230  0.8558 -0.3736
47069SOL    HW247045   8.463   7.828   0.814 -3.1187 -0.1263  0.0567
47070SOL     OW47046   6.064   4.972   5.547  0.2314 -0.0253  0.1126
47070SOL    HW147047   6.034   4.896   5.596  1.7110 -0.2562  0.6880
47070SOL    HW247048   6.051   4.948   5.455  1.4650 -1.3403  0.2442
47071SOL     OW47049   6.644   1.775   7.234  0.2947 -0.1983  0.2501
47071SOL    HW147050   6.696   1.747   7.158  0.9230  1.9810 -0.1902
47071SOL    HW247051   6.704   1.768   7.308  0.5590  0.3050  0.0855
47072SOL     OW47052   3.670   5.330   6.545  0.1737  0.2148  0.4781
47072SOL    HW147053   3.590   5.276   6.540 -0.1028  0.5317  1.3161
47072SOL    HW247054   3.653   5.392   6.616  0.7119  1.0557 -0.1056
47073SOL     OW47055   5.041  11.003   8.064  0.3409  0.2401 -1.3878
47073SOL    HW147056   5.096  10.924   8.062  0.9000  0.3983  1.7124
47073SOL    HW247057   4.964  10.976   8.113  1.0841  1.8141  0.8179
47074SOL     OW47058   7.284   2.215   3.934  0.3498 -0.5129  0.2760
47074SOL    HW147059   7.205   2.267   3.947  0.4638 -0.7371  2.1909
47074SOL    HW247060   7.265   2.160   3.858 -1.2158 -0.3547  0.5240
47075SOL     OW47061   7.242  10.637   4.498  0.4750  0.0195  0.0627
47075SOL    HW147062   7.200  10.635   4.584 -0.2371 -1.6468 -0.2759
47075SOL    HW247063   7.170  10.650   4.437  0.8821  0.4672 -0.3250
47076SOL     OW47064   6.057   4.630   8.218 -0.1163  0.2467  0.4654
47076SOL    HW147065   6.091   4.702   8.271  1.2045 -0.4875  0.6745
47076SOL    HW247066   6.050   4.557   8.279 -1.6317  0.2228  0.2978
47077SOL     OW47067   1.118   2.502   4.010 -0.4642  0.0336 -0.1110
47077SOL    HW147068   1.146   2.553   3.934 -0.5027 -0.1739 -0.2642
47077SOL    HW247069   1.094   2.417   3.974 -1.9328  0.4098 -0.0822
47078SOL     OW47070   3.139   0.791   5.443  0.2849  0.5134  0.0498
47078SOL    HW147071   3.115   0.880   5.415 -0.2909  0.6360  0.8749
47078SOL    HW247072   3.100   0.783   5.530 -0.1542 -0.7638 -0.2505
47079SOL     OW47073   0.618   0.863  12.324  0.2851 -0.1158  0.1268
47079SOL    HW147074   0.708   0.876  12.295  0.0057  0.8349 -0.3780
47079SOL    HW247075   0.599   0.939  12.379  0.8255 -1.9168  3.0162
47080SOL     OW47076   6.040   0.942   8.838  0.1650  0.4596 -0.3867
47080SOL    HW147077   6.000   0.881   8.899 -0.5644  1.4699  0.1907
47080SOL    HW247078   6.084   1.006   8.894  0.3029  0.8595 -0.9440
47081SOL     OW47079   9.676   8.571   2.769 -0.0949  0.4754  0.5399
47081SOL    HW147080   9.759   8.525   2.778 -0.2432  0.6058  3.4854
47081SOL    HW247081   9.628   8.522   2.702  0.9542 -1.7745  1.3554
47082SOL     OW47082   4.504  10.455  11.167 -0.5398 -0.1171  0.0464
47082SOL    HW147083   4.424  10.459  11.219 -0.1512 -0.0154  0.6497
47082SOL    HW247084   4.521  10.362  11.155 -0.2751 -0.1579  0.6772
47083SOL     OW47085  11.863   9.837   6.759 -0.3197  0.0017  0.0245
47083SOL    HW147086  11.782   9.834   6.708 -1.0060  0.9974  1.0309
47083SOL    HW247087  11.863   9.754   6.808  0.0629 -0.7015 -1.1222
47084SOL     OW47088   7.754   7.171   2.683  0.6810 -0.2399  0.0863
47084SOL    HW147089   7.765   7.114   2.759  2.6472 -0.2613 -0.1368
47084SOL    HW247090   7.768   7.260   2.717 -0.4778 -0.0589  0.1011
47085SOL     OW47091  12.027  11.719  11.541  0.1412 -0.2344  0.1512
47085SOL    HW147092  12.021  11.626  11.562  0.0648 -0.0933  0.7734
47085SOL    HW247093  12.118  11.742  11.561  0.1159 -0.1399  0.1567
47086SOL     OW47094   3.975   3.812   6.550  0.0419 -0.7967 -0.7791
47086SOL    HW147095   3.999   3.902   6.529  1.7047 -1.1058 -0.3191
47086SOL    HW247096   3.965   3.769   6.465  1.5815 -0.7437 -1.0136
47087SOL     OW47097   0.993   7.176  12.094 -0.0697 -0.5235 -0.7438
47087SOL    HW147098   0.993   7.271  12.082  1.3584 -0.7658 -3.4211
47087SOL    HW247099   0.903   7.155  12.119 -1.0983  1.3155 -2.5707
47088SOL     OW47100   0.542   5.639   7.403  0.2171 -0.1341  0.5260
47088SOL    HW147101   0.560   5.581   7.478  1.9628  1.2514  1.2748
47088SOL    HW247102   0.614   5.702   7.405  0.6616 -0.3972 -2.7268
47089SOL     OW47103  11.867  11.569   1.010 -0.1810  0.3088 -0.2781
47089SOL    HW147104  11.900  11.505   1.073  0.1952  1.5562  0.8442
47089SOL    HW247105  11.773  11.551   1.004 -0.3820  0.6775  1.3084
47090SOL     OW47106   4.709  11.442  11.970 -0.3369 -0.7814 -1.2584
47090SOL    HW147107   4.731  11.358  11.929  0.6352 -0.8394 -0.6707
47090SOL    HW247108   4.768  11.447  12.045 -2.9146 -1.3232  0.9692
47091SOL     OW47109   9.988   2.041   3.813 -0.0966  0.9637  0.0706
47091SOL    HW147110   9.897   2.009   3.810 -0.0741  0.9667 -1.0298
47091SOL    HW247111  10.021   2.026   3.725  0.2987  2.9507 -0.1556
47092SOL     OW47112  10.458   7.298  12.070  0.3828 -0.1286 -0.2930
47092SOL    HW147113  10.401   7.367  12.104  0.7332  0.6447 -1.2390
47092SOL    HW247114  10.403   7.219  12.072 -0.2243  0.2990  0.2096
47093SOL     OW47115   9.814   6.265   3.570 -0.3952  0.6139 -0.0139
47093SOL    HW147116   9.753   6.338   3.556  0.4527  1.3084 -0.1583
47093SOL    HW247117   9.843   6.275   3.661 -1.2949 -0.3485  0.3998
47094SOL     OW47118   5.164   1.015   8.505  0.2399 -0.3450  0.0549
47094SOL    HW147119   5.095   1.077   8.528  1.0156  0.7490 -0.4852
47094SOL    HW247120   5.182   0.968   8.587 -2.0076 -1.5784 -0.0838
47095SOL     OW47121   5.558  12.043   2.518 -0.0822  0.4431 -0.1621
47095SOL    HW147122   5.464  12.027   2.521  0.0635 -0.2677  1.0956
47095SOL    HW247123   5.574  12.112   2.582  0.0678  1.6629 -1.4742
47096SOL     OW47124   9.146   9.238   7.118  0.5400  0.1440 -0.5875
47096SOL    HW147125   9.103   9.295   7.055 -0.6005 -0.5098 -0.4233
47096SOL    HW247126   9.106   9.259   7.202  0.2602 -0.7332 -0.4919
47097SOL     OW47127   8.229   5.001   7.825 -0.1264 -0.2220 -0.0813
47097SOL    HW147128   8.254   5.089   7.798  0.1594  0.0862  1.0959
47097SOL    HW247129   8.289   4.980   7.897 -0.7310 -1.0360  0.2084
47098SOL     OW47130  10.876   1.113   5.333 -0.1431  0.0763  0.6054
47098SOL    HW147131  10.942   1.182   5.331  0.4003 -0.4108  1.3683
47098SOL    HW247132  10.926   1.032   5.337 -0.7119 -0.5190 -2.1018
47099SOL     OW47133   3.645   2.513   8.521 -0.1012 -0.5858  0.1177
47099SOL    HW147134   3.676   2.509   8.611 -0.9267  1.9536  0.5890
47099SOL    HW247135   3.667   2.601   8.491 -1.1944 -0.8537 -1.6412
47100SOL     OW47136  10.466   0.874   3.665 -0.0183 -0.2298 -0.0223
47100SOL    HW147137  10.457   0.849   3.757  0.2612 -0.2150  0.0117
47100SOL    HW247138  10.547   0.831   3.637 -0.3293 -0.5901 -0.3825
47101SOL     OW47139  10.721   0.349   7.346  0.0177 -0.5979 -0.4623
47101SOL    HW147140  10.802   0.333   7.299 -0.2477  0.1933 -1.2261
47101SOL    HW247141  10.706   0.443   7.337 -0.9477 -0.7192 -0.2893
47102SOL     OW47142   9.077   3.757  10.764 -0.0693 -0.3353 -0.0913
47102SOL    HW147143   9.073   3.831  10.704  0.8647 -0.7237 -0.6509
47102SOL    HW247144   9.078   3.680  10.708 -0.2034 -0.7503  0.4605
47103SOL     OW47145   4.460   8.384   8.990 -0.3390  0.5283 -0.1417
47103SOL    HW147146   4.465   8.381   9.085 -0.4984  1.3416 -0.1035
47103SOL    HW247147   4.401   8.457   8.971 -0.3502  0.3421 -0.8646
47104SOL     OW47148   8.116  10.620   4.889 -0.3547  0.2896  0.8285
47104SOL    HW147149   8.144  10.533   4.916  0.1766  0.2349  0.1364
47104SOL    HW247150   8.057  10.649   4.958  0.9141  0.1379  2.0260
47105SOL     OW47151   3.105  11.469   8.270 -0.2606 -0.1211 -0.0755
47105SOL    HW147152   3.177  11.426   8.223 -1.2161 -0.6678 -1.1057
47105SOL    HW247153   3.081  11.542   8.214  0.1906  0.7172  0.8042
47106SOL     OW47154   4.534   6.905   8.695 -0.2820  0.7391 -0.2118
47106SOL    HW147155   4.579   6.881   8.614 -0.9453  1.4802 -0.8178
47106SOL    HW247156   4.508   6.996   8.682 -0.5412  0.8212  0.7745
47107SOL     OW47157  11.543  11.689   0.713  0.2837  0.3586 -0.2919
47107SOL    HW147158  11.631  11.660   0.736  0.3557  2.1667  2.1646
47107SOL    HW247159  11.487  11.613   0.729  1.3177 -0.7087 -1.5705
47108SOL     OW47160   6.299   2.748   6.612 -0.5356  0.2607  0.4392
47108SOL    HW147161   6.316   2.840   6.632  0.1788  0.0942  0.6215
47108SOL    HW247162   6.375   2.701   6.647 -0.2678 -0.2638 -0.7877
47109SOL     OW47163   9.627   9.918  10.280  0.1352  0.1283  0.3056
47109SOL    HW147164   9.547   9.887  10.238  0.8540  1.5317 -2.2847
47109SOL    HW247165   9.601   9.937  10.370 -2.5164  0.7031 -0.5071
47110SOL     OW47166   8.676   7.972  12.055 -0.2460 -0.2628  0.0775
47110SOL    HW147167   8.748   7.913  12.036 -0.2068 -0.3885  0.6125
47110SOL    HW247168   8.681   8.038  11.986  0.7051  0.0301  0.4104
47111SOL     OW47169   7.540   3.499   3.332  0.2704  0.3808  0.4136
47111SOL    HW147170   7.485   3.464   3.262 -0.2811  0.7976  0.6293
47111SOL    HW247171   7.581   3.422   3.371  0.6105  0.1491 -0.3895
47112SOL     OW47172   4.903  10.221   6.747 -0.0142  0.1492  0.1008
47112SOL    HW147173   4.841  10.148   6.755 -0.4190  0.5785  1.0357
47112SOL    HW247174   4.882  10.279   6.821 -0.1725  1.5812 -1.0186
47113SOL     OW47175   3.976   2.757  11.172  0.4459 -0.6387 -0.5857
47113SOL    HW147176   4.071   2.755  11.163  0.7692 -1.7265  2.0240
47113SOL    HW247177   3.960   2.825  11.238 -0.4327 -1.5173  0.1311
47114SOL     OW47178   5.858   4.818   5.687  0.3322  0.2316 -0.1023
47114SOL    HW147179   5.833   4.775   5.769  0.5244 -0.6090 -0.4726
47114SOL    HW247180   5.786   4.799   5.627  0.9751 -0.6234 -0.6266
47115SOL     OW47181  10.503   1.850   9.107  0.2624 -0.0904 -0.2383
47115SOL    HW147182  10.451   1.842   9.187  0.8580  2.0924  0.4509
47115SOL    HW247183  10.586   1.888   9.136  1.0649 -0.6188 -1.7191
47116SOL     OW47184   2.465   6.776   4.102 -0.1413 -0.4396 -0.1594
47116SOL    HW147185   2.451   6.868   4.084  1.1924 -0.3109 -0.6462
47116SOL    HW247186   2.401   6.755   4.171 -2.6233  0.0354 -2.1829
47117SOL     OW47187   3.590   1.830  11.464  0.0778 -0.1095 -0.1421
47117SOL    HW147188   3.501   1.795  11.467  0.6601 -1.7102 -0.1350
47117SOL    HW247189   3.640   1.774  11.524  1.0562  0.8705 -0.0056
47118SOL     OW47190   6.847   8.895   9.181  0.6617 -0.0663 -0.1737
47118SOL    HW147191   6.785   8.845   9.128  0.1401 -1.0974  1.3325
47118SOL    HW247192   6.925   8.902   9.127 -0.2485 -0.0189 -1.5369
47119SOL     OW47193   2.047   5.699   1.088 -0.5552 -0.2525  0.3345
47119SOL    HW147194   1.985   5.731   1.154  0.4181  2.9016 -0.1228
47119SOL    HW247195   2.011   5.731   1.005  0.6557 -0.0804 -0.1404
47120SOL     OW47196   3.468  10.102   0.877  0.2654 -0.3046 -0.4539
47120SOL    HW147197   3.375  10.088   0.857  0.1139 -0.6910  0.4659
47120SOL    HW247198   3.479  10.065   0.964  1.1174  0.4206 -0.2420
47121SOL     OW47199   8.408   4.282   8.161  0.6501 -0.4487  0.2483
47121SOL    HW147200   8.336   4.346   8.161  0.4297 -0.6534 -1.3905
47121SOL    HW247201   8.426   4.267   8.254 -0.9236  0.1729  0.6948
47122SOL     OW47202  11.115  10.764   8.320 -0.1249 -0.3895  0.0666
47122SOL    HW147203  11.126  10.810   8.236 -3.3156 -1.0405 -0.8524
47122SOL    HW247204  11.195  10.784   8.369  0.7474  2.1295 -2.1282
47123SOL     OW47205   9.838   1.055   9.154 -0.4494  0.0317 -0.5775
47123SOL    HW147206   9.780   0.985   9.181  1.5326 -1.4266  0.1389
47123SOL    HW247207   9.858   1.035   9.062 -0.4793  0.0993 -0.5987
47124SOL     OW47208  10.939   3.300   8.139 -0.1965  0.7068  0.0272
47124SOL    HW147209  10.991   3.221   8.156 -0.3259  0.7331  0.5631
47124SOL    HW247210  10.995   3.372   8.169  0.0772  0.8493 -0.8137
47125SOL     OW47211   4.232   4.338   2.740  0.3637  0.4790  0.1769
47125SOL    HW147212   4.256   4.252   2.705  1.7489  0.8444  0.1643
47125SOL    HW247213   4.309   4.392   2.725 -0.8774  2.0482 -0.8142
47126SOL     OW47214   6.908   5.409   3.545  0.6868 -1.0506 -0.0213
47126SOL    HW147215   6.996   5.448   3.543  1.3903 -2.5545 -1.9227
47126SOL    HW247216   6.871   5.437   3.629  2.7941  0.0202  0.6224
47127SOL     OW47217   8.470  10.672   1.356  0.4927 -0.2517  0.5069
47127SOL    HW147218   8.563  10.647   1.349  0.9375  1.1630  0.9694
47127SOL    HW247219   8.432  10.603   1.411  0.8971 -1.6837 -0.9110
47128SOL     OW47220   6.447  11.606   9.836  0.1216 -0.4978 -0.2939
47128SOL    HW147221   6.507  11.582   9.765  0.6890  1.3355 -0.4738
47128SOL    HW247222   6.366  11.631   9.792  0.5776  0.9466 -0.3413
47129SOL     OW47223   6.036   2.944   5.286 -0.5703 -0.1967  0.6390
47129SOL    HW147224   5.944   2.917   5.285 -0.4963 -0.4258  0.0795
47129SOL    HW247225   6.083   2.872   5.244 -0.2804  0.4367 -0.1489
47130SOL     OW47226   6.332   3.146   0.488 -0.0881 -0.0106  0.6970
47130SOL    HW147227   6.397   3.084   0.454 -0.1820 -0.3939  1.1900
47130SOL    HW247228   6.317   3.207   0.417 -0.1331 -0.6714  0.1292
47131SOL     OW47229   5.649  11.438   7.487  0.5571  0.0605  0.4539
47131SOL    HW147230   5.634  11.348   7.515  0.5893  0.5387  2.0618
47131SOL    HW247231   5.574  11.487   7.520  2.3508  1.3000  2.9730
47132SOL     OW47232   3.707   5.155   0.809  0.3247 -0.1529  0.0892
47132SOL    HW147233   3.614   5.163   0.790 -0.0856 -2.0093  1.0959
47132SOL    HW247234   3.716   5.189   0.898  0.0629 -2.4668  1.0676
47133SOL     OW47235   7.706   3.363   8.454  0.5272 -0.1430 -0.2550
47133SOL    HW147236   7.653   3.314   8.517  0.7893  0.4099  0.4148
47133SOL    HW247237   7.675   3.453   8.462  0.5946 -0.0640 -0.8886
47134SOL     OW47238  10.363  12.302   0.711 -0.0827 -0.4019 -0.2078
47134SOL    HW147239  10.436  12.255   0.753  0.2360  0.2467 -0.0257
47134SOL    HW247240  10.369  12.391   0.746 -0.3335 -0.0730 -0.9965
47135SOL     OW47241   8.770  10.612   0.427  0.5859 -0.4534 -0.0408
47135SOL    HW147242   8.853  10.657   0.441  0.4052 -0.6738  2.0707
47135SOL    HW247243   8.724  10.619   0.511 -1.8434  0.2529 -1.3180
47136SOL     OW47244   7.356   9.323   9.560 -0.3424  0.3033 -0.3368
47136SOL    HW147245   7.324   9.249   9.509  1.1563  0.1982 -1.1774
47136SOL    HW247246   7.287   9.340   9.624 -0.0631 -2.8393  0.9707
47137SOL     OW47247   1.598   5.055  11.808 -0.2281  0.0513  0.4759
47137SOL    HW147248   1.662   4.991  11.776 -0.0463  1.1715 -1.5676
47137SOL    HW247249   1.513   5.017  11.786 -0.1038  1.1318 -2.2574
47138SOL     OW47250   8.456   2.281   7.191 -0.0292  0.3201  0.0345
47138SOL    HW147251   8.366   2.253   7.208  0.4875 -0.5602  1.4843
47138SOL    HW247252   8.452   2.324   7.105 -1.9141  0.7403  0.2953
47139SOL     OW47253   9.711  10.848   6.167 -0.2227 -0.2992 -0.1809
47139SOL    HW147254   9.788  10.890   6.207 -0.0822  0.4543 -1.2030
47139SOL    HW247255   9.746  10.799   6.093 -0.8356  1.2309 -1.5581
47140SOL     OW47256   5.072   4.618  11.280 -0.2875  0.0863  0.0659
47140SOL    HW147257   5.012   4.595  11.210  0.3752 -0.2613 -0.4014
47140SOL    HW247258   5.067   4.713  11.287  0.4239  0.2432 -1.1931
47141SOL     OW47259   2.064   9.237   7.419  0.5860 -0.0370 -0.4351
47141SOL    HW147260   1.986   9.247   7.365 -0.1742 -0.3885  0.5761
47141SOL    HW247261   2.036   9.184   7.493  1.3106  1.3321  0.8829
47142SOL     OW47262   1.407   9.748   6.888 -0.1104 -0.3712 -0.5346
47142SOL    HW147263   1.326   9.785   6.854  0.4244 -0.9843 -2.6389
47142SOL    HW247264   1.413   9.780   6.978 -2.5352 -0.1081 -0.4126
47143SOL     OW47265   8.684   4.539   2.031  0.3949 -0.5057  0.1361
47143SOL    HW147266   8.684   4.602   1.960  0.3096  1.5463  1.8549
47143SOL    HW247267   8.774   4.507   2.036 -0.1293 -2.8108 -2.5506
47144SOL     OW47268  11.978   7.217   5.019  0.1768 -0.6345 -0.3585
47144SOL    HW147269  11.890   7.253   5.029  0.8012  0.7783  0.4717
47144SOL    HW247270  12.011   7.258   4.939  1.1263  1.2942  0.9342
47145SOL     OW47271   8.054   4.560   0.549 -0.1544 -0.1478  0.4761
47145SOL    HW147272   8.111   4.637   0.548 -1.8817  1.1919 -0.2617
47145SOL    HW247273   8.038   4.543   0.642  0.2610  0.3742  0.6480
47146SOL     OW47274   6.306   2.300  11.973  0.3933  0.1256 -0.4915
47146SOL    HW147275   6.295   2.334  12.062 -1.4604 -1.0848 -0.2131
47146SOL    HW247276   6.358   2.221  11.983  1.3615  0.7156 -0.6837
47147SOL     OW47277  10.054   8.671   3.055 -0.3824  0.1348  0.1286
47147SOL    HW147278  10.066   8.729   3.130  1.1622 -1.9566  1.6006
47147SOL    HW247279   9.959   8.669   3.041 -0.6501  1.0309  1.6225
47148SOL     OW47280   9.022   0.331   0.220 -0.1737  0.4381  0.0484
47148SOL    HW147281   8.962   0.329   0.146  0.3656 -1.1993 -0.4074
47148SOL    HW247282   8.969   0.303   0.295 -0.6787  1.9304  0.2754
47149SOL     OW47283   5.139   8.297  10.202  0.2613 -0.1611 -0.2165
47149SOL    HW147284   5.085   8.290  10.123  0.6366 -1.7408 -0.3448
47149SOL    HW247285   5.078   8.332  10.268 -0.1667  0.7629 -1.0657
47150SOL     OW47286  12.113   0.545  10.360  0.3382  0.8175 -0.5392
47150SOL    HW147287  12.174   0.475  10.334  1.0184  1.8411 -1.7988
47150SOL    HW247288  12.150   0.624  10.322 -1.9322  1.4458 -1.5805
47151SOL     OW47289   4.276  11.381  10.967 -1.3318 -0.3279 -0.1255
47151SOL    HW147290   4.290  11.432  10.887 -0.0804 -1.1007 -0.4221
47151SOL    HW247291   4.182  11.366  10.970 -1.4907  0.4024 -1.0222
47152SOL     OW47292   9.337   4.770   1.230  0.4341 -0.3040 -0.2754
47152SOL    HW147293   9.340   4.720   1.148 -0.7287 -0.3844 -0.2883
47152SOL    HW247294   9.286   4.848   1.209  0.1545 -0.3088  0.3593
47153SOL     OW47295   8.418   8.456   3.858 -0.1103 -0.2404  0.2902
47153SOL    HW147296   8.369   8.436   3.937 -1.2057  0.5485 -0.1719
47153SOL    HW247297   8.454   8.543   3.873 -2.1346  0.8691 -0.8938
47154SOL     OW47298   4.743   7.308   2.467 -0.2701 -0.2215 -0.3030
47154SOL    HW147299   4.836   7.318   2.447 -0.4359 -2.4303 -2.7117
47154SOL    HW247300   4.736   7.331   2.560  2.4156  1.2577 -0.3589
47155SOL     OW47301   4.031   2.111   9.780 -0.1026 -0.5871 -0.4695
47155SOL    HW147302   4.024   2.110   9.875  0.2585  0.6026 -0.4166
47155SOL    HW247303   3.946   2.077   9.750  0.0942 -1.7692  0.2664
47156SOL     OW47304   1.493   5.935   2.111  0.0662  0.6269 -0.5137
47156SOL    HW147305   1.538   5.871   2.056  0.0456  0.8119 -0.7477
47156SOL    HW247306   1.414   5.889   2.141  1.1150 -0.2075  1.0971
47157SOL     OW47307   1.637  11.250   1.555  0.0673  0.1604  0.0251
47157SOL    HW147308   1.550  11.226   1.588 -0.4735  1.6264 -0.2264
47157SOL    HW247309   1.618  11.309   1.481  1.2304  2.2329  1.2826
47158SOL     OW47310   7.219   2.196   4.821 -0.0985 -0.8586 -0.1598
47158SOL    HW147311   7.223   2.232   4.909  1.2357 -0.9616 -0.1653
47158SOL    HW247312   7.286   2.128   4.819  1.1777  0.3728 -1.7861
47159SOL     OW47313   9.775   9.954   3.115  0.3772 -0.1737  0.2037
47159SOL    HW147314   9.740  10.005   3.189  1.4867  0.0391  0.6093
47159SOL    HW247315   9.836   9.893   3.156  2.3514  1.1304 -0.6614
47160SOL     OW47316   8.204  10.020   3.949 -0.2087 -0.5798 -0.2365
47160SOL    HW147317   8.280   9.963   3.960  0.4087  0.3163  0.3907
47160SOL    HW247318   8.183  10.015   3.856  0.2409 -1.3119 -0.3067
47161SOL     OW47319   3.491  11.160   1.534  0.5266  0.2556 -0.2557
47161SOL    HW147320   3.472  11.093   1.468 -0.9225 -0.0637  0.4616
47161SOL    HW247321   3.523  11.111   1.610 -1.8853  0.1781  0.7858
47162SOL     OW47322   3.137   8.809   3.211 -0.4651  0.1749  0.9389
47162SOL    HW147323   3.096   8.808   3.124  0.4640  2.3990  0.4085
47162SOL    HW247324   3.228   8.781   3.195  0.2000  2.2117  0.8298
47163SOL     OW47325   0.542   4.766   6.646 -0.2131  0.1624  0.5206
47163SOL    HW147326   0.533   4.711   6.569  0.9229 -1.4804  1.4875
47163SOL    HW247327   0.569   4.851   6.612 -1.5735  0.0322 -0.9903
47164SOL     OW47328   5.557  11.002   3.224  0.2292  0.2246 -0.0631
47164SOL    HW147329   5.513  10.938   3.167 -0.4152  0.7684 -0.1795
47164SOL    HW247330   5.651  10.987   3.208  0.1525 -1.6916  1.0123
47165SOL     OW47331   0.555  10.377   6.559 -0.5179 -0.8752 -0.2122
47165SOL    HW147332   0.626  10.319   6.584  0.9819  1.9772  3.0098
47165SOL    HW247333   0.475  10.330   6.583  0.6482 -1.4396  3.0360
47166SOL     OW47334   6.316   5.137   4.705 -0.1094 -1.0963 -0.2099
47166SOL    HW147335   6.323   5.208   4.642  1.2270 -1.5353 -0.5935
47166SOL    HW247336   6.406   5.122   4.735 -0.8713  0.2220  3.1121
47167SOL     OW47337   2.537   4.649   8.490  0.1966  0.3697  0.0177
47167SOL    HW147338   2.552   4.555   8.500  1.4234  0.6472  1.0643
47167SOL    HW247339   2.471   4.670   8.555  1.0905  0.4783  0.9262
47168SOL     OW47340   8.570   0.131   9.933 -0.2294  0.3775  0.0035
47168SOL    HW147341   8.638   0.146   9.866  0.2794  0.3299  0.5071
47168SOL    HW247342   8.575   0.209   9.989  0.1415 -0.1185  0.6685
47169SOL     OW47343  11.855   5.775  10.686 -0.2663  0.5062  0.1387
47169SOL    HW147344  11.900   5.838  10.630 -0.5028  0.7277  0.1976
47169SOL    HW247345  11.798   5.726  10.625  0.1794  0.1111  0.0372
47170SOL     OW47346   1.775   2.978  11.397  0.4354  0.0617  0.1882
47170SOL    HW147347   1.801   2.889  11.374 -1.4758 -0.4929  0.0168
47170SOL    HW247348   1.758   2.975  11.491  0.5630  0.3005  0.2195
47171SOL     OW47349   4.183   4.800   6.957 -0.4820  0.0594  0.0088
47171SOL    HW147350   4.149   4.873   6.905  0.2597  1.1326  0.9723
47171SOL    HW247351   4.164   4.722   6.905 -0.7465  0.9884 -1.3302
47172SOL     OW47352   9.216   9.269   0.930 -0.0405  0.1672 -0.1781
47172SOL    HW147353   9.208   9.176   0.952  0.9147  0.0794 -0.1627
47172SOL    HW247354   9.175   9.315   1.004  1.1551 -0.1968  0.7233
47173SOL     OW47355   5.720   2.808   5.037 -0.2485  0.1205  0.4274
47173SOL    HW147356   5.784   2.736   5.035 -1.0005 -0.5404 -0.5596
47173SOL    HW247357   5.726   2.843   5.126  0.4828 -0.8465  0.7715
47174SOL     OW47358  10.233   9.032   8.682  0.0441  0.0340  0.5130
47174SOL    HW147359  10.140   9.014   8.691  0.1008 -0.0582  0.9419
47174SOL    HW247360  10.241   9.080   8.600 -0.4894  0.8318  0.9231
47175SOL     OW47361  10.435   8.880   5.444 -0.1915 -0.0761  0.1701
47175SOL    HW147362  10.434   8.875   5.540  0.5586 -1.2912  0.1208
47175SOL    HW247363  10.343   8.868   5.419 -0.5264  1.0897  0.7532
47176SOL     OW47364  10.956   0.025   5.120  0.2762 -0.1317 -0.1258
47176SOL    HW147365  10.915  -0.016   5.196  0.4713  1.4098  0.8462
47176SOL    HW247366  10.983   0.111   5.150  0.6553  0.4057 -1.8655
47177SOL     OW47367  10.781   8.540   1.531 -0.9072  1.4046 -0.1812
47177SOL    HW147368  10.827   8.482   1.471 -0.4266 -0.0691  1.5410
47177SOL    HW247369  10.850   8.578   1.586 -1.5496  0.0358  1.6845
47178SOL     OW47370  11.646   5.703  11.886 -0.1826 -0.2426  0.3265
47178SOL    HW147371  11.691   5.782  11.916  1.5616 -0.8617 -0.5170
47178SOL    HW247372  11.676   5.634  11.946 -0.3487 -0.5852  0.0186
47179SOL     OW47373   7.789   5.490   0.804 -0.3966 -0.0440  0.0804
47179SOL    HW147374   7.763   5.521   0.717  1.2377  0.4282 -0.2654
47179SOL    HW247375   7.832   5.406   0.788  0.0539  0.1194  0.4066
47180SOL     OW47376   1.971   6.654   7.909 -0.2528 -0.1765 -0.1441
47180SOL    HW147377   1.901   6.609   7.957  0.7562 -0.4504  1.1224
47180SOL    HW247378   1.942   6.745   7.904 -0.6436 -0.2577  0.5001
47181SOL     OW47379   5.114   6.684   1.382  0.0659  0.1022  0.1247
47181SOL    HW147380   5.119   6.602   1.431 -0.2761 -0.4657 -0.7657
47181SOL    HW247381   5.205   6.706   1.362  0.0746 -1.2977 -1.5947
47182SOL     OW47382   5.065   3.664   4.688  0.6512 -0.3101 -0.3921
47182SOL    HW147383   5.088   3.756   4.700  1.4336 -0.5978  0.3984
47182SOL    HW247384   5.003   3.645   4.758 -0.2706 -0.1380 -1.1451
47183SOL     OW47385   0.103   9.003   7.888 -0.3224  0.6639  0.3687
47183SOL    HW147386   0.069   8.978   7.802 -1.8274 -1.4793  1.4677
47183SOL    HW247387   0.071   9.092   7.902 -2.7562 -0.0703 -0.0489
47184SOL     OW47388   1.803  11.124  10.514 -0.8679 -0.0920  0.2282
47184SOL    HW147389   1.727  11.119  10.456 -1.4127  0.4420  0.8608
47184SOL    HW247390   1.804  11.041  10.560 -1.2566  0.0124  0.4300
47185SOL     OW47391   9.022   7.389  10.624  0.7270  0.4903 -0.0167
47185SOL    HW147392   8.963   7.377  10.699 -1.4396  1.7957 -1.3908
47185SOL    HW247393   9.108   7.402  10.663 -0.3598  1.4111  2.2882
47186SOL     OW47394   0.951   1.255   2.166 -0.1978 -0.0249 -0.0994
47186SOL    HW147395   0.997   1.178   2.199 -1.3892 -0.5119  0.4486
47186SOL    HW247396   0.902   1.289   2.240  0.2959  1.2845 -0.3287
47187SOL     OW47397   8.850   8.763  11.582  0.5901  1.2345 -0.4599
47187SOL    HW147398   8.796   8.790  11.508 -1.5999 -0.3812  0.4309
47187SOL    HW247399   8.833   8.669  11.591 -0.3550  1.6036  2.9327
47188SOL     OW47400   9.670   9.197   1.155 -0.4062  0.2340  0.0365
47188SOL    HW147401   9.673   9.292   1.165 -0.3014  0.1636  0.7209
47188SOL    HW247402   9.748   9.165   1.201  0.3473 -0.1000 -1.3975
47189SOL     OW47403   7.354   0.406   7.907  0.0715 -0.0171 -0.4637
47189SOL    HW147404   7.284   0.457   7.866  2.7014  1.7203 -3.1892
47189SOL    HW247405   7.410   0.472   7.949  0.7591 -1.2234  0.5838
47190SOL     OW47406   0.176  10.481   8.447  0.0306 -0.0226 -0.2991
47190SOL    HW147407   0.157  10.389   8.425  1.7588 -1.1235  2.3097
47190SOL    HW247408   0.254  10.501   8.396  1.3942 -1.0672  1.2738
47191SOL     OW47409   6.721   7.204   1.807 -0.5120 -0.3709 -0.0055
47191SOL    HW147410   6.678   7.149   1.871  1.0673  0.3487  1.7622
47191SOL    HW247411   6.651   7.259   1.771 -1.2058  0.4113  2.3835
47192SOL     OW47412   2.918  12.022   5.437 -0.0892 -0.5160  0.0951
47192SOL    HW147413   2.838  11.974   5.456  0.1359 -0.7563  0.4484
47192SOL    HW247414   2.958  11.976   5.364 -0.8922  0.3296 -0.8999
47193SOL     OW47415   8.845   1.314   8.601 -0.1223 -0.0396  0.8610
47193SOL    HW147416   8.827   1.282   8.513  0.0167  1.7486  0.1474
47193SOL    HW247417   8.861   1.235   8.653  1.1538 -1.0766 -1.0114
47194SOL     OW47418  11.569   7.702   9.587 -0.0438  0.4737  0.1368
47194SOL    HW147419  11.566   7.607   9.580  0.4082  0.3308  1.5107
47194SOL    HW247420  11.640   7.728   9.528 -1.5182  0.1830 -1.8416
47195SOL     OW47421   3.639   2.635   0.882 -0.7399 -0.3101  0.6209
47195SOL    HW147422   3.726   2.672   0.900  0.0802  0.3551 -3.5379
47195SOL    HW247423   3.581   2.711   0.877 -0.8658 -0.4223  0.3316
47196SOL     OW47424   7.882   2.241  10.446 -0.2317  0.1213  0.3525
47196SOL    HW147425   7.889   2.225  10.540 -2.7027  1.2039  0.7891
47196SOL    HW247426   7.926   2.325  10.433 -2.4113  1.4671  1.1330
47197SOL     OW47427  10.018   0.809  11.707 -0.9151  0.0724 -0.0847
47197SOL    HW147428  10.108   0.834  11.727 -0.0629 -3.0937  0.4893
47197SOL    HW247429   9.996   0.860  11.629  1.5491  0.5750 -0.5211
47198SOL     OW47430   3.123   4.678   7.622  0.5473 -0.2865  0.1795
47198SOL    HW147431   3.159   4.589   7.620 -0.2381 -0.6235 -1.9343
47198SOL    HW247432   3.139   4.709   7.711  0.8950 -2.5222  0.9549
47199SOL     OW47433   4.703   7.482   3.286 -0.1015 -0.3117  0.3158
47199SOL    HW147434   4.646   7.483   3.209 -1.0333  0.0598  0.9907
47199SOL    HW247435   4.752   7.565   3.281  2.4948 -1.7976 -1.7412
47200SOL     OW47436   6.780   7.047  11.979  0.1313 -0.1466 -0.7114
47200SOL    HW147437   6.874   7.063  11.975  0.0081  0.4496 -1.6256
47200SOL    HW247438   6.768   6.962  11.938  0.3690 -0.7336  0.3977
47201SOL     OW47439   2.122  11.257   0.261 -0.3146 -0.4456 -0.2807
47201SOL    HW147440   2.137  11.264   0.356 -1.0298 -1.4454 -0.0735
47201SOL    HW247441   2.171  11.179   0.236  2.5079  1.5138 -1.3646
47202SOL     OW47442  11.994   9.177  11.315  0.2409 -0.2899  0.5692
47202SOL    HW147443  12.024   9.268  11.317  1.6225 -0.7303  0.5528
47202SOL    HW247444  12.002   9.148  11.406  0.2353 -0.5312  0.4922
47203SOL     OW47445  10.132  11.557   2.373 -0.3595 -0.3032  0.2928
47203SOL    HW147446  10.212  11.576   2.421 -1.4206  0.5247  1.8153
47203SOL    HW247447  10.065  11.547   2.441 -2.1238  1.8667 -1.0143
47204SOL     OW47448   9.767   7.841   7.960 -0.4624 -0.4537  0.0146
47204SOL    HW147449   9.729   7.882   7.882 -0.5665 -0.5023  0.0399
47204SOL    HW247450   9.694   7.836   8.023 -0.2240  0.1833  0.3527
47205SOL     OW47451   6.145  10.953   2.339 -0.0694 -0.2983 -0.2944
47205SOL    HW147452   6.115  10.929   2.251 -0.7177 -2.0606  0.3646
47205SOL    HW247453   6.111  11.042   2.352 -1.0930 -0.5033 -1.3341
47206SOL     OW47454  10.960   5.009   6.790 -0.2284  0.5633 -0.4755
47206SOL    HW147455  11.041   5.043   6.752 -0.6525  2.8511  0.5148
47206SOL    HW247456  10.891   5.045   6.736 -0.6577 -0.6551 -0.7762
47207SOL     OW47457   9.669   7.130   3.177  0.1813 -0.6697 -0.2474
47207SOL    HW147458   9.627   7.157   3.259 -0.7577  1.9069 -1.5024
47207SOL    HW247459   9.759   7.108   3.203 -0.1154  0.0275  1.4820
47208SOL     OW47460   6.472   4.805   6.005  0.0222  0.0467 -0.4663
47208SOL    HW147461   6.551   4.853   6.029 -0.3328  0.4481 -0.0681
47208SOL    HW247462   6.489   4.715   6.033  0.9244 -0.2024 -1.7488
47209SOL     OW47463   4.089   2.327   3.147 -0.3076 -0.6639  0.1774
47209SOL    HW147464   4.104   2.322   3.241  0.2689  0.4158  0.1572
47209SOL    HW247465   4.010   2.275   3.133 -0.8826 -0.1623  1.3804
47210SOL     OW47466   0.242   2.020  11.564  0.3029 -0.2232 -0.1677
47210SOL    HW147467   0.245   2.072  11.484 -0.2387 -1.1904 -0.8434
47210SOL    HW247468   0.295   1.943  11.544  0.2019 -0.4520  0.4217
47211SOL     OW47469   4.081   0.233   4.133  0.1132  0.0182  0.5337
47211SOL    HW147470   4.049   0.237   4.043  2.8750  1.4605 -0.5005
47211SOL    HW247471   4.117   0.145   4.141 -0.0117 -0.0692  0.1690
47212SOL     OW47472   8.509   8.473   2.356 -0.6193  0.3310  0.0167
47212SOL    HW147473   8.528   8.480   2.449 -0.0029 -0.9962  0.0229
47212SOL    HW247474   8.458   8.392   2.348  0.6708 -0.4311 -0.9513
47213SOL     OW47475   5.753   3.941   8.511  0.0711 -1.1345 -0.0622
47213SOL    HW147476   5.781   3.898   8.592 -0.0729 -1.3502 -0.1271
47213SOL    HW247477   5.747   3.871   8.447 -2.6624 -1.5010  0.4562
47214SOL     OW47478   4.244   2.487   8.007 -0.0615  0.0633 -0.5259
47214SOL    HW147479   4.290   2.423   8.061  1.0500  0.2115 -1.2688
47214SOL    HW247480   4.225   2.439   7.926  0.4484  0.5504 -0.9395
47215SOL     OW47481   5.971  10.820   3.029 -0.0169 -0.1572 -0.0572
47215SOL    HW147482   6.029  10.793   2.957 -0.1562 -0.1096 -0.1884
47215SOL    HW247483   5.980  10.915   3.032  0.1509 -0.1789  0.1278
47216SOL     OW47484   0.565   3.417   4.443  0.0222 -0.1688  0.2216
47216SOL    HW147485   0.617   3.496   4.455  0.6816 -1.0028  4.2915
47216SOL    HW247486   0.626   3.353   4.405  0.1897  0.4900 -0.6657
47217SOL     OW47487   9.245  10.928  10.116  0.4995  0.0917  0.2826
47217SOL    HW147488   9.233  10.888  10.202  0.1137 -1.2131 -0.3574
47217SOL    HW247489   9.197  11.011  10.121  0.4068 -0.0157  1.2927
47218SOL     OW47490   2.112   7.877   5.928  0.3105  0.7401 -0.8893
47218SOL    HW147491   2.145   7.930   5.855  1.4691  0.5246 -0.5460
47218SOL    HW247492   2.122   7.786   5.897  1.8858  0.5979 -0.0596
47219SOL     OW47493   2.324   2.412   1.442  0.3137  0.0614 -0.2933
47219SOL    HW147494   2.323   2.504   1.418  0.2821 -0.1385 -1.1085
47219SOL    HW247495   2.314   2.411   1.537  1.1363  0.9220 -0.1850
47220SOL     OW47496   1.124   7.048  11.061  0.1404  0.2863 -0.0797
47220SOL    HW147497   1.136   7.130  11.109  0.3877 -0.0764  0.4920
47220SOL    HW247498   1.031   7.048  11.036  0.1201  0.6965  0.0032
47221SOL     OW47499   2.671   0.500   3.866 -0.3413 -0.0232 -0.4151
47221SOL    HW147500   2.701   0.410   3.852 -0.4071 -0.4582  1.8189
47221SOL    HW247501   2.616   0.520   3.790 -1.5693 -2.4291 -0.2290
47222SOL     OW47502   1.391   3.189  11.147  0.4403 -0.2351  0.0906
47222SOL    HW147503   1.384   3.164  11.239  1.0091 -0.0939  0.1764
47222SOL    HW247504   1.369   3.109  11.099 -1.1134  0.0224  0.3245
47223SOL     OW47505   7.347   9.776   9.871  0.4447 -0.4972  0.9430
47223SOL    HW147506   7.292   9.711   9.827  1.6541 -1.8599  1.3364
47223SOL    HW247507   7.298   9.799   9.950 -1.8109  2.0875 -1.0492
47224SOL     OW47508   1.464   0.994   4.845  0.2861 -0.5234  0.2689
47224SOL    HW147509   1.424   0.965   4.763  2.1504 -1.0817 -0.4980
47224SOL    HW247510   1.553   1.020   4.821  0.6574 -0.0230  2.0044
47225SOL     OW47511   7.663   3.567   2.245 -0.1074  0.2134 -0.6400
47225SOL    HW147512   7.692   3.653   2.275  0.7535  0.3270 -1.7748
47225SOL    HW247513   7.654   3.516   2.326  0.3302  1.0644 -0.0388
47226SOL     OW47514   5.137   9.100   2.074 -0.0761  0.7102  0.4325
47226SOL    HW147515   5.213   9.148   2.041 -0.4658 -0.1022 -1.7892
47226SOL    HW247516   5.073   9.105   2.003 -0.6017 -1.9686  0.6428
47227SOL     OW47517   5.033   2.059   6.545  0.6592 -0.2906  0.0927
47227SOL    HW147518   5.090   2.014   6.608  0.2919 -1.5805 -0.4719
47227SOL    HW247519   4.949   2.015   6.553  0.2539  0.3724 -0.4172
47228SOL     OW47520   6.380   8.810   9.814  0.2398  0.4517 -0.1971
47228SOL    HW147521   6.455   8.870   9.816 -1.0020  2.0791  0.3909
47228SOL    HW247522   6.325   8.838   9.887 -0.6694 -1.0841 -0.2512
47229SOL     OW47523  11.377   7.034   1.114 -0.0517  0.2062  0.5158
47229SOL    HW147524  11.415   7.002   1.032  2.0385  2.7590  0.3615
47229SOL    HW247525  11.392   6.963   1.177  2.1997 -0.1355 -0.3301
47230SOL     OW47526   5.332  10.426   6.534 -0.1508 -0.2770  0.0923
47230SOL    HW147527   5.294  10.426   6.446  0.2597  0.1374 -0.0875
47230SOL    HW247528   5.425  10.441   6.520 -0.2549  1.0315  0.6713
47231SOL     OW47529  12.120   3.578  12.317  0.3296 -0.0721  0.8970
47231SOL    HW147530  12.158   3.666  12.314  1.2305 -0.4464  1.0050
47231SOL    HW247531  12.079   3.572  12.403  1.5671 -0.2746  1.4846
47232SOL     OW47532   8.078   9.035   5.007 -0.1182  0.1431 -0.0019
47232SOL    HW147533   8.028   9.063   4.931 -1.0984  1.7964  1.1905
47232SOL    HW247534   8.012   9.006   5.070  0.7493 -3.6808 -0.5744
47233SOL     OW47535  12.263   6.282   2.894 -0.5129 -0.0688  0.1793
47233SOL    HW147536  12.306   6.367   2.896 -0.9211  0.1195  1.1468
47233SOL    HW247537  12.174   6.298   2.926 -0.0476 -1.1473  2.1513
47234SOL     OW47538   6.823   0.891   8.176  0.6123 -0.7359  0.5384
47234SOL    HW147539   6.730   0.872   8.192  0.4955  0.2587  1.1314
47234SOL    HW247540   6.822   0.971   8.122  1.1010 -1.7499 -1.0273
47235SOL     OW47541  10.773   9.470   1.694  0.0385 -0.0007 -0.5731
47235SOL    HW147542  10.803   9.395   1.642 -0.5036 -0.8417  0.3054
47235SOL    HW247543  10.678   9.472   1.682  0.1384  1.1571 -1.3667
47236SOL     OW47544   3.805   0.614   8.474  0.7782  0.0989  0.1346
47236SOL    HW147545   3.866   0.615   8.547  0.6454 -0.5360  0.2562
47236SOL    HW247546   3.845   0.557   8.409 -0.0012 -0.8911  0.4971
47237SOL     OW47547   4.405   0.146  10.851 -0.5218 -0.3841 -0.2124
47237SOL    HW147548   4.455   0.227  10.843  0.0704 -0.9119 -2.8454
47237SOL    HW247549   4.460   0.089  10.905 -0.6944  0.7287  1.1910
47238SOL     OW47550   2.347   2.347   5.471 -0.0446 -0.0481 -0.1961
47238SOL    HW147551   2.428   2.295   5.474  0.8526  1.3067  2.4371
47238SOL    HW247552   2.372   2.431   5.509 -2.7028  0.3830  0.8144
47239SOL     OW47553   9.811  11.857   2.790  0.1027 -0.1417  0.0542
47239SOL    HW147554   9.738  11.809   2.828  0.9219 -0.5510  1.1398
47239SOL    HW247555   9.781  11.878   2.701 -1.3371 -0.2677  0.4818
47240SOL     OW47556   6.318   2.031   6.577  0.4507  0.0538  0.2814
47240SOL    HW147557   6.350   1.957   6.629 -0.6602 -0.5053  0.2114
47240SOL    HW247558   6.387   2.047   6.513  0.6329 -1.0714  0.1617
47241SOL     OW47559   2.251   4.030  11.214 -0.1427 -0.1226 -0.1877
47241SOL    HW147560   2.344   4.034  11.191  0.1639  2.7490  1.0365
47241SOL    HW247561   2.223   4.122  11.214 -2.4701 -0.7374  1.3767
47242SOL     OW47562   7.706   5.765   7.653 -0.2821 -0.7326 -0.6627
47242SOL    HW147563   7.650   5.833   7.691 -0.6200 -1.3038 -0.1203
47242SOL    HW247564   7.672   5.683   7.689  1.0257 -1.0813 -0.1613
47243SOL     OW47565   3.280   9.191   5.921 -0.5221 -0.4223 -0.5575
47243SOL    HW147566   3.354   9.219   5.974 -1.4540  0.6449  0.2076
47243SOL    HW247567   3.254   9.107   5.958 -0.2255 -0.3987 -0.2949
47244SOL     OW47568   9.209   6.822   9.672 -0.2807  0.6372 -0.0329
47244SOL    HW147569   9.240   6.735   9.695 -1.2424  0.4197  0.4956
47244SOL    HW247570   9.187   6.817   9.579 -0.2063  0.3535 -0.0346
47245SOL     OW47571   6.695   7.731   9.476  0.2779 -0.6983 -0.2348
47245SOL    HW147572   6.735   7.790   9.540  1.2290 -0.9239 -0.6094
47245SOL    HW247573   6.665   7.656   9.528 -0.0066 -0.3562  0.0986
47246SOL     OW47574   1.665  11.411  10.212 -0.3449 -0.3766 -0.1641
47246SOL    HW147575   1.711  11.445  10.136 -0.2308 -0.4620 -0.1330
47246SOL    HW247576   1.723  11.429  10.286 -0.5268 -0.1513 -0.0768
47247SOL     OW47577  11.619   3.666  11.691  0.0908  0.0583 -0.8538
47247SOL    HW147578  11.576   3.693  11.772  1.3672 -0.5488  0.0691
47247SOL    HW247579  11.615   3.571  11.692  1.5638 -0.0266 -0.6463
47248SOL     OW47580   8.887   6.097   4.380 -0.0167  0.0133 -0.0873
47248SOL    HW147581   8.938   6.172   4.411 -0.6619  0.7136 -0.6703
47248SOL    HW247582   8.947   6.023   4.385  0.8390  0.6926 -0.1032
47249SOL     OW47583   5.923   8.413   5.617 -0.1982  0.2033  0.1068
47249SOL    HW147584   5.899   8.417   5.710 -0.4188  1.7768  0.0112
47249SOL    HW247585   6.018   8.426   5.616 -0.2080  0.2784  0.1192
47250SOL     OW47586   3.419   1.177   8.427 -0.0681 -0.2626 -0.0537
47250SOL    HW147587   3.412   1.272   8.437 -0.4765 -0.4825  2.5309
47250SOL    HW247588   3.495   1.153   8.481  0.7442 -1.3090 -1.6166
47251SOL     OW47589   5.462   3.135   0.067  0.0963  0.3472  0.3515
47251SOL    HW147590   5.478   3.062   0.127 -0.1526 -0.2499 -0.3078
47251SOL    HW247591   5.374   3.120   0.034  0.9907 -0.5239 -1.8140
47252SOL     OW47592   3.045   8.332   7.934  0.5723  0.0307 -0.3664
47252SOL    HW147593   3.093   8.341   8.016 -2.8559 -1.5707  2.0508
47252SOL    HW247594   3.039   8.237   7.920 -0.3992  0.2302 -1.4916
47253SOL     OW47595   6.722  10.680   4.880 -0.2814 -0.3565  0.4916
47253SOL    HW147596   6.705  10.605   4.936 -3.1935  0.1622  0.4161
47253SOL    HW247597   6.744  10.642   4.795 -2.4007 -1.1803  0.2713
47254SOL     OW47598   3.466   7.812   2.520 -0.4553  0.0372 -0.6276
47254SOL    HW147599   3.445   7.723   2.492  1.1371  0.1436 -2.3697
47254SOL    HW247600   3.384   7.860   2.510 -0.6823 -0.6463 -2.2861
47255SOL     OW47601  10.674   9.918  12.007  0.4040  0.0843  0.0530
47255SOL    HW147602  10.728   9.997  11.999 -0.4114  0.6576  0.1162
47255SOL    HW247603  10.586   9.951  12.024 -0.3537 -0.7758 -1.9380
47256SOL     OW47604  10.526   1.780   0.256  0.2411 -0.7071 -0.3690
47256SOL    HW147605  10.549   1.692   0.225  0.3219 -1.1312  0.8312
47256SOL    HW247606  10.606   1.832   0.242  0.6639 -1.1903  0.1876
47257SOL     OW47607   6.403   0.194  10.371  0.3114 -0.2042 -0.2130
47257SOL    HW147608   6.490   0.223  10.398  0.1618  0.6737 -0.6477
47257SOL    HW247609   6.407   0.099  10.374  0.6695 -0.1735  1.7589
47258SOL     OW47610   2.195   3.516   1.716  0.2681  0.4508  0.3306
47258SOL    HW147611   2.287   3.537   1.733  0.2526  0.6072  0.2177
47258SOL    HW247612   2.189   3.510   1.620  0.0994  0.7196  0.3227
47259SOL     OW47613   5.788   8.163   8.220 -0.0544  0.3859 -0.0625
47259SOL    HW147614   5.858   8.193   8.162  0.3280 -0.5351 -0.0944
47259SOL    HW247615   5.834   8.131   8.298 -0.5878  2.1669  1.0405
47260SOL     OW47616   0.453   2.213   7.490 -0.1899  0.3300 -0.0657
47260SOL    HW147617   0.493   2.149   7.549 -0.9554 -0.4810 -0.4121
47260SOL    HW247618   0.432   2.287   7.546  0.5792  0.2343  0.3697
47261SOL     OW47619   0.124   5.425   4.051  0.2238 -0.1527 -0.7671
47261SOL    HW147620   0.204   5.442   4.001  0.9220 -3.3360 -0.9510
47261SOL    HW247621   0.151   5.362   4.119 -1.4802  1.1877  1.3019
47262SOL     OW47622   9.717   1.371  11.533 -0.5231  0.3382 -0.0432
47262SOL    HW147623   9.648   1.406  11.476 -0.9979  0.4844  0.6083
47262SOL    HW247624   9.796   1.375  11.480 -0.6666  1.9201 -0.1657
47263SOL     OW47625  11.604   7.149   2.892  0.2601 -0.1692 -0.4394
47263SOL    HW147626  11.575   7.232   2.853  1.5294  2.6723  3.9098
47263SOL    HW247627  11.700   7.156   2.892  0.5498 -2.8581 -2.0009
47264SOL     OW47628   3.450   5.343   1.019  0.3860 -0.5559  0.3184
47264SOL    HW147629   3.387   5.407   0.985  2.0100  0.9635 -0.0237
47264SOL    HW247630   3.492   5.388   1.092  0.7075 -1.7279  0.8642
47265SOL     OW47631   9.008   3.268   1.574 -0.0406  0.0555  0.1247
47265SOL    HW147632   8.994   3.295   1.483  0.0387  2.3519  0.7267
47265SOL    HW247633   8.924   3.229   1.600 -0.1927 -0.2739 -0.8158
47266SOL     OW47634   3.417   2.429  10.586  0.2266 -0.1254 -0.1180
47266SOL    HW147635   3.459   2.461  10.666 -0.7799 -0.3743  0.5270
47266SOL    HW247636   3.325   2.422  10.608 -0.0820 -0.1546 -1.3284
47267SOL     OW47637  10.577   5.248  11.133 -0.4212  0.2431  0.3659
47267SOL    HW147638  10.629   5.291  11.201  0.8833 -2.0434  0.9029
47267SOL    HW247639  10.537   5.173  11.178  0.0783 -1.0395 -1.2645
47268SOL     OW47640  10.012   1.270   3.842  0.2977 -0.6459 -0.3581
47268SOL    HW147641   9.949   1.234   3.780 -0.4928 -0.6861  0.4345
47268SOL    HW247642  10.015   1.204   3.912  0.1445  0.0098  0.2802
47269SOL     OW47643   0.129  11.282   6.191  0.3133 -0.3137  0.4661
47269SOL    HW147644   0.136  11.309   6.100 -2.1509 -1.4246 -0.1248
47269SOL    HW247645   0.185  11.205   6.198  1.8035  0.7151  0.3731
47270SOL     OW47646   8.536   1.295   9.892  0.0261  0.2381  0.1436
47270SOL    HW147647   8.531   1.386   9.918 -2.8477  0.2296 -0.1255
47270SOL    HW247648   8.546   1.298   9.796  1.1257  0.2272  0.2396
47271SOL     OW47649   1.333   0.686   5.668  0.1217  0.2805 -0.5372
47271SOL    HW147650   1.300   0.616   5.612 -1.3477  1.0303 -0.6498
47271SOL    HW247651   1.256   0.717   5.716  0.6004  2.2157 -0.9190
47272SOL     OW47652  11.347   3.136   7.578 -0.2826  0.3390 -0.5764
47272SOL    HW147653  11.414   3.203   7.567  0.9425 -0.4209  1.5504
47272SOL    HW247654  11.396   3.056   7.597 -1.7265 -0.1404  1.5345
47273SOL     OW47655   4.836  10.046   6.005  0.2460 -0.0568  0.0296
47273SOL    HW147656   4.909   9.989   5.979  0.1476 -0.7539  1.1941
47273SOL    HW247657   4.869  10.135   5.993  0.8341 -0.3551 -0.6626
47274SOL     OW47658   1.213  10.479   9.130  0.0973  0.4070  0.4085
47274SOL    HW147659   1.244  10.422   9.200  2.5532  1.5513  0.3959
47274SOL    HW247660   1.155  10.541   9.173 -1.5536 -1.2428  0.6489
47275SOL     OW47661   2.151   7.837   4.332  0.0592 -0.4162 -0.3982
47275SOL    HW147662   2.087   7.765   4.334 -3.1112  2.2109  0.4843
47275SOL    HW247663   2.128   7.887   4.254 -0.4558  1.7792  1.0945
47276SOL     OW47664   1.046   5.574  11.707 -0.3673 -0.1883 -0.5073
47276SOL    HW147665   0.965   5.571  11.657 -1.3713 -1.5628  1.1240
47276SOL    HW247666   1.039   5.654  11.759  0.1579  0.6158 -1.6080
47277SOL     OW47667   3.081   3.188   0.038 -0.0889  0.6741  0.3068
47277SOL    HW147668   3.092   3.237  -0.043  1.4691  0.4553  0.3511
47277SOL    HW247669   3.168   3.151   0.056 -0.0313  1.8042  2.7513
47278SOL     OW47670   8.262   2.967   1.049 -0.1052 -0.3213  0.0599
47278SOL    HW147671   8.249   2.914   1.128  0.5868 -0.8531 -0.1697
47278SOL    HW247672   8.203   2.928   0.985  1.4685 -1.8417 -0.5666
47279SOL     OW47673   9.177  12.292   8.167  0.3689  0.4959  0.1371
47279SOL    HW147674   9.265  12.329   8.170  0.4320  0.3954 -0.3346
47279SOL    HW247675   9.191  12.197   8.163  0.2155  0.4198  1.1659
47280SOL     OW47676   5.983   7.432  10.682  0.1186 -0.5911  0.3358
47280SOL    HW147677   5.967   7.339  10.672 -3.4488 -0.0936  0.0459
47280SOL    HW247678   5.930   7.473  10.613  0.9512  1.6793  0.9397
47281SOL     OW47679   9.515   5.880   2.746  0.9006  0.3282 -0.2053
47281SOL    HW147680   9.586   5.944   2.747 -0.4863  1.9417  1.3247
47281SOL    HW247681   9.518   5.839   2.833 -0.0954  0.5034 -0.0771
47282SOL     OW47682   6.191   5.169   2.125  0.3446 -0.1159 -0.2354
47282SOL    HW147683   6.168   5.241   2.067  1.2216  0.1077 -0.3175
47282SOL    HW247684   6.257   5.205   2.185  0.8844 -0.8668 -0.3500
47283SOL     OW47685   7.215  10.192   0.219 -0.0122  0.3001  0.0036
47283SOL    HW147686   7.246  10.114   0.266  1.5801  1.8858  1.7706
47283SOL    HW247687   7.121  10.194   0.236 -0.6082 -2.5461 -2.2254
47284SOL     OW47688   7.608   9.191   9.609 -0.0571  0.0017 -0.5284
47284SOL    HW147689   7.691   9.238   9.617  0.0099 -0.3378  1.2525
47284SOL    HW247690   7.541   9.258   9.614  0.0880  0.2328 -1.5309
47285SOL     OW47691   0.656   2.021   4.587  0.1055 -0.4261  0.4113
47285SOL    HW147692   0.699   1.952   4.536  0.8956  1.0400 -0.9734
47285SOL    HW247693   0.723   2.088   4.599 -0.9228  0.5535  0.8550
47286SOL     OW47694   0.912   0.277  10.264  0.1184  0.1678 -0.1836
47286SOL    HW147695   0.951   0.342  10.323  0.5204  0.8217 -1.1432
47286SOL    HW247696   0.963   0.197  10.279  1.3721  0.8106 -0.8865
47287SOL     OW47697   7.325   8.053   5.451  0.2508 -0.0558  0.1208
47287SOL    HW147698   7.394   8.101   5.495 -1.5062 -0.5880  3.7945
47287SOL    HW247699   7.314   7.973   5.503 -2.7223 -0.2510 -0.6218
47288SOL     OW47700   6.137   5.932   7.338 -0.3166 -0.4990 -0.0928
47288SOL    HW147701   6.205   5.999   7.327 -2.0758  1.2758 -0.7977
47288SOL    HW247702   6.153   5.896   7.425  0.2943  1.3817  0.6316
47289SOL     OW47703   4.581   2.883   2.075 -0.5003 -0.0820  0.0411
47289SOL    HW147704   4.544   2.835   2.000  3.3103 -1.7262 -1.0259
47289SOL    HW247705   4.536   2.846   2.151 -1.1779 -1.8014 -1.1141
47290SOL     OW47706   1.297   7.834   6.205  0.9533 -0.3337  0.9390
47290SOL    HW147707   1.235   7.888   6.255 -0.2458 -2.1475  1.5245
47290SOL    HW247708   1.341   7.896   6.147 -1.3700  1.0915  0.5420
47291SOL     OW47709  10.762   0.410   8.846 -0.0854  0.2853 -0.4897
47291SOL    HW147710  10.759   0.315   8.845 -1.0859  0.2160  1.9822
47291SOL    HW247711  10.671   0.437   8.833  0.2585  0.9432 -1.6508
47292SOL     OW47712   0.017   3.239   5.626  0.2356 -0.0407  0.5206
47292SOL    HW147713   0.094   3.203   5.583 -0.7680  0.1939 -1.5543
47292SOL    HW247714  -0.035   3.162   5.650 -0.2507 -0.1076 -0.7234
47293SOL     OW47715   5.742   2.244   7.349  0.2565 -0.3483 -0.2596
47293SOL    HW147716   5.727   2.165   7.297  0.2995 -0.9298  0.5859
47293SOL    HW247717   5.716   2.219   7.438  0.4643  0.5321  0.0568
47294SOL     OW47718   2.125   8.144   0.392  0.1300  0.3431  0.4803
47294SOL    HW147719   2.186   8.157   0.319 -0.3510  1.1962  0.2221
47294SOL    HW247720   2.099   8.052   0.385  0.4111  0.3080 -0.1731
47295SOL     OW47721   4.970  11.256   7.202 -0.4315 -0.3639  0.5375
47295SOL    HW147722   5.001  11.315   7.134  0.1815  0.0444  1.1581
47295SOL    HW247723   4.950  11.175   7.156  2.2442 -0.9131  0.1487
47296SOL     OW47724   4.990   7.555   9.857  0.0053  0.1488  0.3479
47296SOL    HW147725   5.052   7.485   9.877  1.0441  0.6713 -0.9335
47296SOL    HW247726   4.965   7.590   9.943  1.4104 -0.1334  0.9004
47297SOL     OW47727   3.756   9.483   9.817 -0.5131  0.2127 -0.3196
47297SOL    HW147728   3.682   9.538   9.843 -1.4219 -1.7585  1.5174
47297SOL    HW247729   3.790   9.525   9.738 -1.6234  2.9324  0.5316
47298SOL     OW47730   9.951   5.133   8.169  0.2998  0.7335  0.1541
47298SOL    HW147731  10.010   5.147   8.094 -0.1247  0.6359 -0.2031
47298SOL    HW247732   9.892   5.209   8.167  0.0183  0.5164  0.1300
47299SOL     OW47733   7.142   0.875   0.740  0.6557  0.1027  0.6806
47299SOL    HW147734   7.176   0.823   0.813  2.1081 -0.6753 -0.4997
47299SOL    HW247735   7.217   0.925   0.709 -0.3035  1.5535  0.6244
47300SOL     OW47736   3.330   3.589   5.952  0.4951 -0.0977  0.5340
47300SOL    HW147737   3.354   3.655   6.017  0.5429 -0.6718  1.1206
47300SOL    HW247738   3.410   3.539   5.938  0.2284 -0.6160  0.8120
47301SOL     OW47739   1.991   0.302   7.705 -0.0127  0.0611  0.6073
47301SOL    HW147740   2.083   0.289   7.728  0.5546  0.6936 -1.1006
47301SOL    HW247741   1.956   0.213   7.696  0.2730 -0.1843  1.7887
47302SOL     OW47742   4.897   9.034   3.842 -0.1941 -0.3290  0.1004
47302SOL    HW147743   4.965   9.100   3.829 -0.4080 -0.1321 -0.0082
47302SOL    HW247744   4.937   8.952   3.811 -0.0993 -0.1668 -0.2097
47303SOL     OW47745   1.054   7.073  11.655 -0.2595  0.0985  0.1648
47303SOL    HW147746   1.041   7.048  11.563  0.0269 -0.4142  0.2599
47303SOL    HW247747   1.079   7.166  11.650  0.3939 -0.0907 -0.3323
47304SOL     OW47748   9.819   3.061   4.295 -0.0394  0.6210  0.4990
47304SOL    HW147749   9.850   2.973   4.321 -1.2283 -0.3157 -1.1157
47304SOL    HW247750   9.864   3.078   4.213  1.1190  2.1058  1.3965
47305SOL     OW47751   1.455   3.089   6.913 -0.4526  0.4547 -0.2575
47305SOL    HW147752   1.531   3.148   6.916 -0.1438  0.1070 -0.9542
47305SOL    HW247753   1.487   3.012   6.867 -0.7924 -0.3532  0.8172
47306SOL     OW47754   0.132  11.173   6.817  0.4759  0.1526  0.1647
47306SOL    HW147755   0.226  11.165   6.831  0.4177 -1.0312 -0.0555
47306SOL    HW247756   0.120  11.261   6.782  1.7855 -0.4768 -2.0398
47307SOL     OW47757   4.227  11.709   6.107 -0.5988  0.1869 -0.4911
47307SOL    HW147758   4.134  11.693   6.122 -0.4280  0.2009  0.6530
47307SOL    HW247759   4.270  11.675   6.185  0.3413  0.3856 -0.9122
47308SOL     OW47760  10.005   9.889  10.931 -0.0826  0.0827 -0.4468
47308SOL    HW147761   9.953   9.940  10.869  1.5608 -0.7853 -2.6482
47308SOL    HW247762  10.089   9.934  10.935 -0.5416  0.9058  2.3205
47309SOL     OW47763   0.268   1.214   3.674 -0.7245 -0.7212 -0.1524
47309SOL    HW147764   0.319   1.134   3.680 -1.5948 -1.2231  0.6975
47309SOL    HW247765   0.297   1.267   3.748 -0.7902 -0.6216 -0.1974
47310SOL     OW47766   0.452   6.865   3.739  0.1079  0.5427  0.1239
47310SOL    HW147767   0.532   6.917   3.748  1.4851 -1.3705 -0.3795
47310SOL    HW247768   0.428   6.874   3.647  0.0112  0.7713  0.1727
47311SOL     OW47769   6.993   3.225   1.532 -0.1553  0.1906 -0.0031
47311SOL    HW147770   7.052   3.199   1.602 -0.1234 -0.5865 -0.3112
47311SOL    HW247771   6.905   3.208   1.566 -0.1294 -0.4900 -0.2631
47312SOL     OW47772   3.447  11.044   6.698 -0.3570  0.1947 -0.0883
47312SOL    HW147773   3.456  11.024   6.605  0.7225 -0.2679  0.1028
47312SOL    HW247774   3.355  11.069   6.708 -0.9724 -1.5318 -0.9519
47313SOL     OW47775   9.820   2.775   4.674 -0.0949 -0.3686  0.2307
47313SOL    HW147776   9.730   2.745   4.686 -0.6316  1.2829  0.6055
47313SOL    HW247777   9.866   2.699   4.638 -1.2827 -1.7063  1.4130
47314SOL     OW47778   7.915   1.322   1.643 -0.5008  0.3033 -0.6601
47314SOL    HW147779   8.003   1.359   1.649 -0.4113 -0.0118  0.0119
47314SOL    HW247780   7.903   1.273   1.724 -1.7766  1.3758 -0.1553
47315SOL     OW47781   7.072   8.880   3.302 -0.2852  0.4590 -0.2271
47315SOL    HW147782   7.079   8.888   3.397  3.0356  2.5304 -0.4928
47315SOL    HW247783   7.013   8.951   3.277 -0.3808  0.5326  0.1865
47316SOL     OW47784   1.583   1.116   6.445 -0.0880 -0.4105  0.0171
47316SOL    HW147785   1.557   1.164   6.366  1.6615  0.6311  0.0146
47316SOL    HW247786   1.510   1.129   6.506 -0.5807  0.4845 -0.7346
47317SOL     OW47787   4.814   7.216   4.284  0.2691 -0.1499  0.1994
47317SOL    HW147788   4.769   7.296   4.257  0.7310  0.7405  1.9154
47317SOL    HW247789   4.907   7.235   4.269  0.2638 -1.2311 -1.4554
47318SOL     OW47790   4.529  11.512  12.178  0.1855 -0.3656  0.0489
47318SOL    HW147791   4.591  11.492  12.108  0.5056 -0.0973  0.2556
47318SOL    HW247792   4.477  11.584  12.143  2.4746  2.0458  1.3002
47319SOL     OW47793   1.566   5.058   4.675  0.2140 -0.0541  0.2250
47319SOL    HW147794   1.494   5.090   4.729 -0.1546 -1.1826  0.4153
47319SOL    HW247795   1.641   5.113   4.700 -0.6373  1.4038 -0.2525
47320SOL     OW47796   7.515   0.084  11.423 -0.1806 -0.3909 -0.5718
47320SOL    HW147797   7.435   0.096  11.475 -0.3422  0.3810 -0.9829
47320SOL    HW247798   7.554   0.171  11.419 -0.0710 -0.4751 -1.5642
47321SOL     OW47799  11.856   7.131   2.817  0.3629  0.9902  0.1841
47321SOL    HW147800  11.802   7.111   2.741 -1.0390  0.5561  1.2629
47321SOL    HW247801  11.912   7.053   2.828 -0.7502  0.2263  0.6813
47322SOL     OW47802   1.797   3.097   0.852  0.3323 -0.1165 -0.1791
47322SOL    HW147803   1.775   3.008   0.878  2.1219 -0.2739  1.0412
47322SOL    HW247804   1.889   3.092   0.825  0.4070  1.3076 -0.2945
47323SOL     OW47805   2.484  11.415   8.496  0.4844  0.2109  0.3895
47323SOL    HW147806   2.556  11.355   8.482 -1.9974 -2.7312 -1.0435
47323SOL    HW247807   2.446  11.389   8.580 -1.0979 -0.9077 -0.6195
47324SOL     OW47808   5.804  10.970   3.427  0.3346 -0.0402 -0.6969
47324SOL    HW147809   5.730  11.029   3.412 -0.3069 -0.7951 -0.5837
47324SOL    HW247810   5.779  10.920   3.505  0.3172 -1.2908 -1.4725
47325SOL     OW47811  10.850   0.853   1.941 -0.1473  0.0375 -0.3800
47325SOL    HW147812  10.845   0.872   1.848  3.9551 -0.8604 -0.9647
47325SOL    HW247813  10.765   0.813   1.962 -0.2520 -2.4444 -4.4535
47326SOL     OW47814  12.226   0.007   2.418  0.3172 -0.0018  0.0235
47326SOL    HW147815  12.249  -0.078   2.456  0.5256  0.2636  0.5058
47326SOL    HW247816  12.132   0.000   2.399  0.1468 -0.0513  0.8412
47327SOL     OW47817   1.803   3.763  11.376  0.2751 -0.3510  0.6557
47327SOL    HW147818   1.736   3.704  11.341 -0.6680 -0.3281  2.3077
47327SOL    HW247819   1.885   3.730  11.341 -0.4810 -1.0598 -0.5324
47328SOL     OW47820   4.016   9.384   0.729 -0.2384  0.7520  0.1128
47328SOL    HW147821   3.981   9.404   0.816 -0.1410  1.5118 -0.0144
47328SOL    HW247822   4.108   9.362   0.744 -0.3885  0.2262  0.2748
47329SOL     OW47823   7.731  10.851   5.230  0.0116 -0.6183  0.4334
47329SOL    HW147824   7.650  10.819   5.270 -0.8584 -0.6985 -1.3135
47329SOL    HW247825   7.744  10.795   5.154  1.3556 -0.1669  0.3163
47330SOL     OW47826   5.326  11.011   5.433  0.3579 -0.2308 -0.2340
47330SOL    HW147827   5.322  11.013   5.337  1.2321  0.2772 -0.2636
47330SOL    HW247828   5.303  11.099   5.460  1.8787  0.1339 -0.0591
47331SOL     OW47829   1.836   5.708  10.589 -0.1031  1.0801 -0.2489
47331SOL    HW147830   1.925   5.714  10.624  0.3724  0.2375 -1.2515
47331SOL    HW247831   1.819   5.794  10.551  1.1862  0.5799 -2.0672
47332SOL     OW47832   0.349   3.117   6.962  0.0741 -0.1955  0.1541
47332SOL    HW147833   0.369   3.066   6.884 -1.6817 -1.0263  0.2075
47332SOL    HW247834   0.313   3.199   6.930 -2.5056 -1.3060  0.0245
47333SOL     OW47835   8.150   6.578   5.969 -0.3718 -0.8330  0.4608
47333SOL    HW147836   8.148   6.628   6.051 -0.0724 -1.3337  0.7751
47333SOL    HW247837   8.184   6.640   5.904 -3.1635  0.4685  0.0730
47334SOL     OW47838   6.660   2.939   0.058  0.3138  0.2479 -0.3554
47334SOL    HW147839   6.643   3.028   0.026  0.5706  0.2733 -0.4251
47334SOL    HW247840   6.663   2.885  -0.021 -2.3712 -0.2871 -0.1951
47335SOL     OW47841   6.603   3.974   4.164 -0.4412  0.3112  0.0082
47335SOL    HW147842   6.564   4.062   4.160 -2.1464 -0.3347  1.2715
47335SOL    HW247843   6.689   3.989   4.205  1.0597  1.8270 -3.3052
47336SOL     OW47844   7.099   2.711   5.426 -0.4982 -0.5939  0.3671
47336SOL    HW147845   7.162   2.763   5.475  0.1986  0.5596 -1.6232
47336SOL    HW247846   7.139   2.624   5.421  1.0639  0.1513 -0.9658
47337SOL     OW47847   9.498   0.748  11.208  0.4460  0.5227  0.0183
47337SOL    HW147848   9.479   0.708  11.123 -0.6781  0.7296  0.1529
47337SOL    HW247849   9.429   0.716  11.266  0.2870  1.6075  0.4521
47338SOL     OW47850   9.205  12.259   5.137  0.3652 -0.3533  0.0783
47338SOL    HW147851   9.176  12.345   5.105 -2.0708 -1.1259  0.0485
47338SOL    HW247852   9.253  12.279   5.218  0.7523  1.0972 -0.4756
47339SOL     OW47853  11.015   0.924   7.036 -0.3265 -0.2363  0.2329
47339SOL    HW147854  11.068   0.982   6.982  0.1968  0.2133  1.2051
47339SOL    HW247855  11.077   0.858   7.069 -0.8542 -1.1896 -0.6134
47340SOL     OW47856   0.638   2.601   7.087 -0.1118 -0.4750  0.7136
47340SOL    HW147857   0.623   2.669   7.021 -2.0429 -2.0721 -0.6019
47340SOL    HW247858   0.726   2.620   7.120  0.5446  1.0018 -1.5928
47341SOL     OW47859  11.205  10.001   5.649 -0.0491 -0.2942 -0.1480
47341SOL    HW147860  11.247  10.003   5.735  2.0435 -3.8945 -0.8766
47341SOL    HW247861  11.142   9.929   5.655  1.1126 -1.5449 -1.9039
47342SOL     OW47862   3.406   8.604   1.127  0.4064 -0.2398 -0.2151
47342SOL    HW147863   3.320   8.591   1.089  0.4246 -2.9668  0.4788
47342SOL    HW247864   3.390   8.607   1.222  1.0884 -1.3356 -0.0458
47343SOL     OW47865   8.277   6.376   6.612  0.0617 -0.1492 -0.0145
47343SOL    HW147866   8.370   6.353   6.618  0.9182  1.6650 -3.6222
47343SOL    HW247867   8.276   6.469   6.590 -2.6257 -0.1047 -0.1064
47344SOL     OW47868   4.395   6.891   1.986 -0.2082  0.1710 -0.8440
47344SOL    HW147869   4.323   6.837   1.955  0.3935 -1.7238  0.7848
47344SOL    HW247870   4.360   6.937   2.062  0.2509 -0.7760 -0.0313
47345SOL     OW47871   4.039   4.294   4.592  0.4370 -0.3834  0.2066
47345SOL    HW147872   4.039   4.282   4.497 -0.0617  1.6435 -0.1034
47345SOL    HW247873   3.951   4.326   4.612  1.1271  1.1194  1.0307
47346SOL     OW47874  11.522   0.325   3.399  0.1016  0.7366 -0.3734
47346SOL    HW147875  11.469   0.355   3.325  1.3458  0.6267 -1.3439
47346SOL    HW247876  11.611   0.354   3.377  0.5510  0.3677  0.9033
47347SOL     OW47877  10.173   0.943   3.079 -0.3227 -1.0299  0.1472
47347SOL    HW147878  10.110   0.887   3.125 -1.4641 -0.1935 -0.3609
47347SOL    HW247879  10.132   0.961   2.995  0.8812 -0.9476 -0.4370
47348SOL     OW47880   3.660   9.459  10.416 -0.6190 -0.4858  0.2433
47348SOL    HW147881   3.712   9.486  10.492  0.2693 -2.5148  0.4255
47348SOL    HW247882   3.570   9.454  10.449 -0.7581  1.5787  0.3225
47349SOL     OW47883   9.722   1.542   4.015 -0.0767 -0.0996  0.3072
47349SOL    HW147884   9.812   1.575   4.017  0.1051 -0.4739 -0.9297
47349SOL    HW247885   9.704   1.526   3.923 -1.0803 -0.9476  0.6248
47350SOL     OW47886   9.969   9.105   9.298  0.2249  0.4252 -0.6439
47350SOL    HW147887   9.910   9.088   9.372  1.5150 -2.0397 -0.0551
47350SOL    HW247888   9.915   9.091   9.221 -0.5261  0.5252 -0.1526
47351SOL     OW47889   7.394   6.928   3.934 -0.1849  0.5084  0.7388
47351SOL    HW147890   7.472   6.934   3.878 -0.9117  1.0239 -0.2570
47351SOL    HW247891   7.341   6.860   3.892 -0.1383 -0.0692  1.5988
47352SOL     OW47892   2.945   8.311  10.273 -0.7617  0.4758 -0.1393
47352SOL    HW147893   2.886   8.325  10.347 -2.4950 -1.0095 -1.1701
47352SOL    HW247894   2.898   8.343  10.197 -0.2208 -0.6254 -0.9761
47353SOL     OW47895   8.791  11.413   9.974  0.0609  0.3625  0.0149
47353SOL    HW147896   8.858  11.470  10.011  0.3095 -1.5345  2.7313
47353SOL    HW247897   8.819  11.400   9.883  1.6252  2.1121  0.1878
47354SOL     OW47898   8.303   0.460   5.849  0.4272 -0.0318  0.3207
47354SOL    HW147899   8.369   0.394   5.873 -0.3762 -0.7926  0.4890
47354SOL    HW247900   8.278   0.437   5.760 -0.2271 -0.2901  0.5610
47355SOL     OW47901   1.190   4.481  10.670 -0.6230 -0.2588  0.0214
47355SOL    HW147902   1.130   4.471  10.596 -0.9408 -1.0185  0.3754
47355SOL    HW247903   1.152   4.428  10.740 -1.3457  1.9318  1.3767
47356SOL     OW47904   4.507   4.272   9.097  0.0299  0.2789  0.5797
47356SOL    HW147905   4.516   4.316   9.013  0.9169  0.4221  0.7450
47356SOL    HW247906   4.423   4.303   9.131  0.5468  1.7149  0.6148
47357SOL     OW47907   2.484  11.544  10.123  0.1156  0.1388 -0.1507
47357SOL    HW147908   2.536  11.472  10.086  1.5326  0.3834  1.2539
47357SOL    HW247909   2.489  11.613  10.056 -1.4193 -1.0697 -1.6027
47358SOL     OW47910   3.076  12.271   9.098 -0.6413 -0.3065  0.7595
47358SOL    HW147911   3.049  12.206   9.162  0.6571 -0.1265  1.5180
47358SOL    HW247912   3.066  12.355   9.143 -0.2478 -0.1377  0.5392
47359SOL     OW47913   0.014  11.903  12.016  0.2774 -0.5135 -0.2369
47359SOL    HW147914  -0.010  11.967  12.083  0.5601 -1.5577  0.8855
47359SOL    HW247915  -0.043  11.828  12.032 -0.2953 -0.4387 -1.7630
47360SOL     OW47916   0.940   7.845   2.530 -0.1030  0.0119  0.1596
47360SOL    HW147917   0.935   7.870   2.438 -0.6376  0.1952  0.2355
47360SOL    HW247918   1.000   7.770   2.531 -1.1335 -0.8522 -0.5218
47361SOL     OW47919   9.556   1.036   5.955 -0.3545  0.7748 -0.3366
47361SOL    HW147920   9.528   0.985   5.879 -0.7867 -1.3255  1.1377
47361SOL    HW247921   9.649   1.015   5.966 -0.0848  1.7134 -0.7400
47362SOL     OW47922   3.757  10.273  10.001 -0.3589  0.5341 -0.9137
47362SOL    HW147923   3.839  10.239  10.036  0.2185  1.6874 -1.0985
47362SOL    HW247924   3.746  10.228   9.917 -0.0294  0.2219 -0.7908
47363SOL     OW47925   8.292   4.875   0.007 -0.4041 -0.1246 -0.3347
47363SOL    HW147926   8.301   4.801   0.067  1.2828 -0.2933 -0.7468
47363SOL    HW247927   8.198   4.881  -0.010 -0.7963 -0.8521  1.3288
47364SOL     OW47928   5.596   1.295   3.723 -0.0973 -0.3159 -0.1155
47364SOL    HW147929   5.504   1.308   3.746 -0.6030  0.3185 -2.3037
47364SOL    HW247930   5.613   1.203   3.745 -1.1474 -0.3450  0.6467
47365SOL     OW47931   6.212   4.761   2.000  0.4603  0.5810  0.1004
47365SOL    HW147932   6.176   4.849   1.990  0.8464  0.8605  1.0306
47365SOL    HW247933   6.178   4.712   1.925 -1.0716  1.0854  0.4344
47366SOL     OW47934   0.444   0.993   5.159  0.0206 -0.0813 -0.2708
47366SOL    HW147935   0.376   1.024   5.099  1.4863 -1.2607 -2.7178
47366SOL    HW247936   0.516   1.054   5.149  0.1532 -0.0683  0.6404
47367SOL     OW47937   5.607   8.949   0.593 -0.5004 -0.5239  0.3689
47367SOL    HW147938   5.530   8.988   0.636 -0.3078 -0.4320  0.6305
47367SOL    HW247939   5.571   8.878   0.540 -1.3318  2.0052 -2.7822
47368SOL     OW47940   0.080   3.582   4.690 -0.2493  0.1813 -0.2159
47368SOL    HW147941   0.127   3.657   4.725  0.1981  0.3561 -1.1711
47368SOL    HW247942   0.106   3.509   4.746 -0.9354  0.7726  0.9235
47369SOL     OW47943   6.333   3.705   9.769 -0.1406  0.0709 -0.4357
47369SOL    HW147944   6.325   3.622   9.817 -3.4338  0.3111 -0.3518
47369SOL    HW247945   6.309   3.772   9.832  1.2620  1.0286 -0.8683
47370SOL     OW47946   7.739   3.684   3.266 -0.0925  0.1598  0.2905
47370SOL    HW147947   7.662   3.628   3.283 -0.2212 -0.2402 -1.4677
47370SOL    HW247948   7.791   3.676   3.346 -0.6931 -1.5265  0.5653
47371SOL     OW47949   1.584   2.914   8.728  0.1796 -0.3438 -0.8642
47371SOL    HW147950   1.608   2.914   8.821  0.6168  0.6611 -0.9731
47371SOL    HW247951   1.503   2.863   8.725  0.5043 -0.9361 -0.0259
47372SOL     OW47952   7.539   6.399   7.424 -0.4385 -0.0614  0.2250
47372SOL    HW147953   7.566   6.489   7.410 -2.8575  0.5339 -0.9420
47372SOL    HW247954   7.513   6.396   7.516 -0.0365  0.3181  0.3557
47373SOL     OW47955   8.854   5.908   6.845 -0.4061 -0.2976 -0.6845
47373SOL    HW147956   8.933   5.882   6.799  0.6146  0.9808  0.2795
47373SOL    HW247957   8.885   5.948   6.926 -2.1213 -2.5242  1.2186
47374SOL     OW47958   7.193   1.136   7.842  0.1581 -0.7464  0.1521
47374SOL    HW147959   7.246   1.215   7.848  0.4305 -0.9341  0.2221
47374SOL    HW247960   7.105   1.165   7.866 -0.0673 -0.1410 -1.3019
47375SOL     OW47961   8.154  10.882  10.781 -0.3361 -0.9677 -0.3160
47375SOL    HW147962   8.091  10.951  10.799 -0.3596 -0.8036 -0.9726
47375SOL    HW247963   8.157  10.877  10.685  2.1461  0.4442 -0.4145
47376SOL     OW47964   6.280   7.412   0.171 -0.0099 -0.2318  0.3456
47376SOL    HW147965   6.206   7.416   0.232  0.2293 -1.5863  0.7770
47376SOL    HW247966   6.304   7.503   0.155 -0.6409  0.1713  1.5939
47377SOL     OW47967   6.745   7.136  12.238  0.7614  0.1733  0.1710
47377SOL    HW147968   6.831   7.167  12.266  1.3962  0.2760 -1.7603
47377SOL    HW247969   6.758   7.104  12.149 -0.9702 -0.8753  0.2351
47378SOL     OW47970   4.811   0.718  11.613  0.9486  0.0270  0.1740
47378SOL    HW147971   4.755   0.673  11.677  0.9376  0.6330  0.5944
47378SOL    HW247972   4.752   0.778  11.567  0.7413 -1.0994 -1.1096
47379SOL     OW47973   0.097   6.122  11.577 -0.2097 -0.0766  0.0402
47379SOL    HW147974   0.080   6.062  11.505  1.3750  0.9583 -1.2560
47379SOL    HW247975   0.055   6.204  11.551  0.6140  0.3906  0.1377
47380SOL     OW47976  12.225   0.844   6.429  0.2157  0.2649  0.0674
47380SOL    HW147977  12.227   0.876   6.339  1.0993  0.8444  0.2865
47380SOL    HW247978  12.158   0.898   6.472 -0.7887 -0.5523 -0.4215
47381SOL     OW47979   1.317   7.484   6.792  0.2338 -0.4619 -0.4372
47381SOL    HW147980   1.245   7.502   6.731 -0.8861  2.3604  1.5010
47381SOL    HW247981   1.358   7.569   6.806  0.5120 -0.9946  2.6066
47382SOL     OW47982   3.359   2.659   5.453  0.2986 -0.1612  0.5255
47382SOL    HW147983   3.333   2.642   5.544 -1.0655  0.6607  0.3163
47382SOL    HW247984   3.450   2.689   5.460  0.2149 -0.1102  1.6260
47383SOL     OW47985   7.792  10.415  11.979  0.7109  0.1288  0.1041
47383SOL    HW147986   7.708  10.371  11.991  1.1428 -0.4187  1.3193
47383SOL    HW247987   7.857  10.345  11.989  1.3069  0.4126 -1.5159
47384SOL     OW47988   8.151   2.525   0.633  0.0465 -0.8905 -0.7087
47384SOL    HW147989   8.142   2.430   0.618  0.8349 -0.8064 -1.9277
47384SOL    HW247990   8.202   2.531   0.714  2.1615 -1.6112 -1.8893
47385SOL     OW47991  12.263   6.340   3.858 -0.2009 -0.2600 -0.3263
47385SOL    HW147992  12.301   6.327   3.771  1.6251 -0.0772  0.4003
47385SOL    HW247993  12.289   6.429   3.882 -2.4623  0.4877 -0.3889
47386SOL     OW47994   6.480   8.514   5.474 -0.0730 -0.0669  0.3554
47386SOL    HW147995   6.553   8.548   5.422  0.8267 -1.3252  0.7674
47386SOL    HW247996   6.417   8.484   5.409 -0.3544  1.2246 -0.0051
47387SOL     OW47997   2.523   0.863   6.560 -0.0754 -0.1856  0.8880
47387SOL    HW147998   2.440   0.851   6.514  1.9435  2.5700 -4.2537
47387SOL    HW247999   2.515   0.950   6.601  0.3355  0.1824  0.1911
47388SOL     OW48000   6.455   6.886   6.674 -0.0021  0.0638  0.0560
47388SOL    HW148001   6.517   6.827   6.632 -0.5109 -0.1548 -0.3998
47388SOL    HW248002   6.403   6.830   6.732 -0.7856 -0.0292 -0.7148
47389SOL     OW48003   2.351   6.280   9.272  0.1708  0.1511  0.1039
47389SOL    HW148004   2.298   6.360   9.271 -0.8722 -0.5226  0.1570
47389SOL    HW248005   2.398   6.282   9.189  0.7733  1.2073  0.4435
47390SOL     OW48006   1.791  11.014   9.911 -0.4818  0.4169 -0.2461
47390SOL    HW148007   1.822  10.975   9.993  0.4857 -0.0024 -0.7870
47390SOL    HW248008   1.742  10.943   9.869  0.2897  0.1419 -0.6998
47391SOL     OW48009   4.063   2.650   8.586  0.5202 -0.1136  0.7693
47391SOL    HW148010   4.033   2.591   8.655 -0.6511 -0.1552  0.2399
47391SOL    HW248011   4.076   2.594   8.509  1.7900 -0.0640  0.9243
47392SOL     OW48012   8.404   9.590  11.129 -0.3525 -0.2175 -0.8252
47392SOL    HW148013   8.385   9.525  11.196 -0.7643 -1.3558 -1.9984
47392SOL    HW248014   8.445   9.540  11.058  1.2691  1.1450 -0.9336
47393SOL     OW48015   9.106   4.908   1.942  0.1511 -0.1310  0.3121
47393SOL    HW148016   9.023   4.953   1.929  0.3374  0.6915  1.7568
47393SOL    HW248017   9.090   4.847   2.013  0.6027 -0.4312  0.1620
47394SOL     OW48018   3.425   3.588   0.512 -0.3920 -0.2588 -0.0008
47394SOL    HW148019   3.520   3.586   0.511 -0.4012 -1.5310  0.0270
47394SOL    HW248020   3.398   3.512   0.460 -1.3994  0.1858 -0.1749
47395SOL     OW48021   5.851   8.135   1.861  0.6315 -0.0054 -0.2288
47395SOL    HW148022   5.836   8.084   1.940  0.6880 -0.0915 -0.2741
47395SOL    HW248023   5.798   8.092   1.793  0.3191  0.2652 -0.1624
47396SOL     OW48024   9.140   2.922   6.502  0.3015 -0.0965 -0.2619
47396SOL    HW148025   9.120   2.841   6.549  1.6547  0.4409  1.3344
47396SOL    HW248026   9.107   2.991   6.559 -1.4030  0.5240 -1.8914
47397SOL     OW48027   2.278   9.438   2.813 -0.2472 -0.4539  0.1677
47397SOL    HW148028   2.350   9.378   2.832 -0.3372 -0.1532  1.5350
47397SOL    HW248029   2.225   9.439   2.892  0.5660  2.5809  0.8163
47398SOL     OW48030   6.298   5.509   6.276  0.5131  0.2726  0.6390
47398SOL    HW148031   6.374   5.545   6.323  0.6305 -1.3884  1.8264
47398SOL    HW248032   6.241   5.476   6.346 -0.7169  0.3601 -0.2945
47399SOL     OW48033   0.461   8.152   6.247 -0.4280 -0.3137  0.0452
47399SOL    HW148034   0.518   8.213   6.293  0.5263 -1.1082 -0.0461
47399SOL    HW248035   0.497   8.066   6.266 -0.3879 -0.7085 -1.6358
47400SOL     OW48036   6.405   0.568   5.192  0.5837 -0.0200 -0.1279
47400SOL    HW148037   6.501   0.564   5.197  0.6391  0.6812 -0.5134
47400SOL    HW248038   6.384   0.658   5.217  0.0933  0.0977 -0.9258
47401SOL     OW48039  11.520   4.165   7.371  0.1605 -0.2941  0.0716
47401SOL    HW148040  11.493   4.246   7.416 -1.0301  0.0359 -1.1812
47401SOL    HW248041  11.466   4.097   7.411 -0.3492 -0.1204 -0.3050
47402SOL     OW48042   9.672   5.389   1.890  0.3811 -0.2541  0.3938
47402SOL    HW148043   9.606   5.324   1.865 -0.6892  0.3218  1.6385
47402SOL    HW248044   9.715   5.411   1.808 -1.7889  0.2409 -0.6826
47403SOL     OW48045   4.228   4.108   9.396  0.3085  0.6146 -0.0347
47403SOL    HW148046   4.189   4.022   9.378  3.2056 -0.3876 -2.2658
47403SOL    HW248047   4.175   4.169   9.344  0.7445 -0.4784 -1.8333
47404SOL     OW48048   3.612   8.400   1.258 -0.0620 -0.0111 -0.1154
47404SOL    HW148049   3.594   8.404   1.352 -1.2827  0.9832 -0.3615
47404SOL    HW248050   3.553   8.465   1.220  1.0712  0.2671 -1.4778
47405SOL     OW48051  11.966   2.370   9.181  0.4202 -0.0005 -0.0533
47405SOL    HW148052  11.886   2.422   9.168  0.7722  0.7968  0.8169
47405SOL    HW248053  12.029   2.406   9.119  0.2604 -0.2735 -0.3723
47406SOL     OW48054   2.911   1.474   9.378 -0.4357 -0.1114  0.3625
47406SOL    HW148055   2.891   1.471   9.284 -0.8646 -0.8071  0.4683
47406SOL    HW248056   2.842   1.529   9.415  0.3324  1.0591  0.1433
47407SOL     OW48057  10.474   7.500   7.190 -0.0772 -0.4281  0.0907
47407SOL    HW148058  10.516   7.516   7.274  1.7329 -0.1786 -0.8242
47407SOL    HW248059  10.447   7.587   7.160 -0.8998 -0.5390  0.4797
47408SOL     OW48060   7.561   8.120   9.267 -0.4827 -0.1278 -0.2711
47408SOL    HW148061   7.473   8.118   9.230 -1.5159 -0.9969  2.0244
47408SOL    HW248062   7.590   8.211   9.257 -2.3554  0.5914  0.4171
47409SOL     OW48063   1.017   5.872   4.202 -0.3749  0.5750 -0.0827
47409SOL    HW148064   0.981   5.874   4.113  2.0733  1.0316 -1.1652
47409SOL    HW248065   1.078   5.946   4.204  2.1177 -1.3447  0.7933
47410SOL     OW48066   3.066   9.515   2.985  0.3409 -0.3020 -0.3933
47410SOL    HW148067   3.161   9.499   2.979  0.1563 -1.0644 -1.6983
47410SOL    HW248068   3.037   9.522   2.894 -0.5076  2.3009 -0.0033
47411SOL     OW48069  10.428   9.743   5.540  0.0934 -0.0980  0.1511
47411SOL    HW148070  10.456   9.687   5.468  1.7808  0.0696  0.6347
47411SOL    HW248071  10.350   9.788   5.507 -0.6735 -1.8973 -0.6264
47412SOL     OW48072   9.785   8.797   4.814 -0.5721  0.2153  0.0164
47412SOL    HW148073   9.846   8.810   4.742 -0.6801  0.2473 -0.0690
47412SOL    HW248074   9.775   8.885   4.852  0.8158 -0.0649  1.1535
47413SOL     OW48075   7.668   9.481   1.367  0.0623  0.6452  0.4873
47413SOL    HW148076   7.734   9.480   1.436 -0.1577 -0.3273  0.7007
47413SOL    HW248077   7.594   9.432   1.405  0.0843 -0.2389 -0.5678
47414SOL     OW48078   4.701   2.270   5.916 -0.1653  0.4834  0.3624
47414SOL    HW148079   4.788   2.238   5.893 -0.5009  1.1006 -1.9676
47414SOL    HW248080   4.717   2.347   5.970  0.7099  0.2517  0.4482
47415SOL     OW48081   1.659   9.185   7.607 -0.0542 -0.1686 -0.0439
47415SOL    HW148082   1.726   9.152   7.667  1.0312  2.3802  0.2673
47415SOL    HW248083   1.576   9.165   7.651  0.5105 -1.9428  0.3277
47416SOL     OW48084   9.930   2.275   7.031  0.2048  0.2753  0.2259
47416SOL    HW148085   9.874   2.233   6.966 -2.3780  0.7110  2.0476
47416SOL    HW248086   9.956   2.204   7.089 -0.3853  0.4360  0.6928
47417SOL     OW48087   7.880   9.076   5.775 -0.3072 -0.4706  0.3227
47417SOL    HW148088   7.908   9.011   5.839  0.7516 -0.4962 -0.1475
47417SOL    HW248089   7.944   9.146   5.782 -0.1566 -0.4933 -0.7336
47418SOL     OW48090   7.249   4.099   6.528  0.0504  0.2589 -0.0773
47418SOL    HW148091   7.185   4.060   6.587  0.2345 -0.4552 -0.3420
47418SOL    HW248092   7.230   4.060   6.442  0.9783 -0.1284 -0.1156
47419SOL     OW48093   4.969  10.335   6.498 -0.3825  0.1831 -0.2738
47419SOL    HW148094   4.946  10.294   6.581 -0.5225  0.5010 -0.1553
47419SOL    HW248095   4.891  10.325   6.443 -0.1182 -0.4731 -0.5452
47420SOL     OW48096  10.741  11.375   3.353  0.3080  0.2356 -0.2445
47420SOL    HW148097  10.666  11.426   3.322 -0.7581 -0.9534  0.2578
47420SOL    HW248098  10.708  11.331   3.431  0.5841 -2.5491 -1.5726
47421SOL     OW48099  11.964  10.482   2.112 -0.1353 -0.1297  0.1427
47421SOL    HW148100  11.949  10.513   2.022  0.0148  2.7145  1.0208
47421SOL    HW248101  11.878  10.452   2.141 -0.7588  1.3073 -0.1333
47422SOL     OW48102   8.119  10.694   6.845  0.1177 -0.0004  0.8041
47422SOL    HW148103   8.204  10.678   6.886 -0.6359 -1.9039  1.7970
47422SOL    HW248104   8.056  10.652   6.905 -1.3353 -0.1237 -0.7403
47423SOL     OW48105  11.833   2.067   0.868 -0.1535 -0.4662  0.2015
47423SOL    HW148106  11.853   2.003   0.936  0.8952  0.0526  0.4081
47423SOL    HW248107  11.745   2.045   0.839 -0.8464 -0.3520  2.1033
47424SOL     OW48108   1.308   8.771   0.530 -0.2928  0.2622 -0.1942
47424SOL    HW148109   1.275   8.802   0.445 -0.4983 -1.0989 -0.6297
47424SOL    HW248110   1.343   8.850   0.571 -1.3030  1.1777 -1.0148
47425SOL     OW48111   3.282   9.144   0.221 -0.5890  0.3945  0.3605
47425SOL    HW148112   3.222   9.078   0.186  1.6313 -1.2061 -0.6938
47425SOL    HW248113   3.344   9.095   0.273  1.0220  1.6542 -0.2830
47426SOL     OW48114   0.044   9.373   3.368 -0.0366  0.4092 -0.3017
47426SOL    HW148115   0.059   9.336   3.455  0.2636  1.2783  0.0239
47426SOL    HW248116   0.020   9.465   3.384 -0.8811  0.3443 -1.0865
47427SOL     OW48117   1.723   1.728   5.666  0.2350  0.8167 -0.1377
47427SOL    HW148118   1.773   1.759   5.742 -1.5021 -0.5468  1.6536
47427SOL    HW248119   1.718   1.633   5.677 -0.0894  0.5784 -1.9789
47428SOL     OW48120  10.266  11.505   0.987  0.3615  0.1910  0.2784
47428SOL    HW148121  10.227  11.428   0.946 -0.9328  0.5777  0.7240
47428SOL    HW248122  10.313  11.471   1.063 -2.3907  0.0239  2.0304
47429SOL     OW48123   6.762   0.330   9.343 -0.1228  0.2206 -0.2361
47429SOL    HW148124   6.750   0.342   9.249 -0.3845  0.1989 -0.2074
47429SOL    HW248125   6.708   0.255   9.365  0.2883 -0.0490 -0.1421
47430SOL     OW48126   6.075   4.683   9.012 -0.0505 -0.0219  0.2305
47430SOL    HW148127   5.997   4.728   9.046 -0.1643  0.2696 -0.4106
47430SOL    HW248128   6.124   4.658   9.091 -0.4804  0.3464  0.6204
47431SOL     OW48129  10.708  12.265   5.504 -0.1134 -0.0336  0.3755
47431SOL    HW148130  10.663  12.230   5.580  0.9718 -1.3629  0.4491
47431SOL    HW248131  10.646  12.256   5.432  0.2674 -2.6510  0.2902
47432SOL     OW48132   9.481   9.503  10.949  0.6153 -1.0120 -0.5196
47432SOL    HW148133   9.429   9.467  10.877  0.3456 -1.6380 -0.0204
47432SOL    HW248134   9.431   9.482  11.028 -0.4907  2.0011 -0.2775
47433SOL     OW48135   7.910   9.288   0.633 -0.5433 -0.3800 -0.7111
47433SOL    HW148136   7.967   9.364   0.620 -0.9306 -0.0921 -0.7523
47433SOL    HW248137   7.958   9.215   0.594 -0.4554 -0.0358 -1.2563
47434SOL     OW48138   3.057   6.832   9.898  0.3506  0.1514  0.4101
47434SOL    HW148139   3.004   6.897   9.851  0.6080  0.4518  0.5353
47434SOL    HW248140   3.072   6.871   9.984  0.7199  0.0350  0.3990
47435SOL     OW48141   6.266   5.507   7.341  0.5871  0.4507 -0.4145
47435SOL    HW148142   6.341   5.534   7.287 -0.1804  0.5677 -1.4482
47435SOL    HW248143   6.196   5.489   7.278 -0.2013  0.1545  0.5228
47436SOL     OW48144   3.926  10.995  11.502 -0.1326  0.4218 -0.5505
47436SOL    HW148145   3.989  10.936  11.543  0.5103 -0.1084 -2.2292
47436SOL    HW248146   3.859  10.937  11.466 -0.8511  0.8974  0.0045
47437SOL     OW48147   0.597   9.895  11.444 -0.5847  0.1548 -0.1562
47437SOL    HW148148   0.639   9.829  11.388 -0.7449 -0.3039  0.2518
47437SOL    HW248149   0.503   9.881  11.432 -0.6215 -0.0515  0.3397
47438SOL     OW48150   6.297   3.194   2.716 -0.0207 -0.0609 -0.3808
47438SOL    HW148151   6.217   3.229   2.756  0.9247  0.7403  0.8589
47438SOL    HW248152   6.284   3.100   2.714 -0.1821 -0.1185  1.6898
47439SOL     OW48153   0.074  11.686   0.511 -0.0223  0.3300  0.5222
47439SOL    HW148154   0.167  11.668   0.501  0.0189  0.5256  0.5479
47439SOL    HW248155   0.045  11.629   0.582 -0.4244 -1.4694 -0.9896
47440SOL     OW48156   3.901   6.546   8.857 -0.4182 -0.3409  0.0070
47440SOL    HW148157   3.810   6.576   8.852 -0.4160 -0.3174  0.1232
47440SOL    HW248158   3.951   6.615   8.813 -0.3104  0.2518  1.0437
47441SOL     OW48159  11.516  11.358   6.387 -0.3570  0.2535  0.7214
47441SOL    HW148160  11.457  11.334   6.316  0.1376 -0.5834  0.5771
47441SOL    HW248161  11.560  11.437   6.356  0.5912 -0.6588 -0.3697
47442SOL     OW48162  11.726  11.662   8.931  0.0321 -0.3371 -0.0176
47442SOL    HW148163  11.712  11.685   8.839  1.4213  0.0737 -0.1448
47442SOL    HW248164  11.787  11.728   8.964 -0.6763 -0.2913  1.2992
47443SOL     OW48165   8.836  11.454   4.464 -0.0919 -0.9364  0.1711
47443SOL    HW148166   8.889  11.436   4.386 -1.0127 -1.2285 -0.4038
47443SOL    HW248167   8.753  11.411   4.447 -0.3666 -0.8602  1.2557
47444SOL     OW48168  10.257   6.220   9.275 -0.6775 -0.0735 -0.4755
47444SOL    HW148169  10.232   6.142   9.224 -1.2742 -1.0335  1.2009
47444SOL    HW248170  10.223   6.203   9.363  2.1243  0.5336  0.8318
47445SOL     OW48171   0.304   8.153   4.854 -0.4095  0.2038 -0.8215
47445SOL    HW148172   0.306   8.193   4.941 -1.4635 -1.7729  0.1842
47445SOL    HW248173   0.309   8.226   4.793  0.7973  1.6233  0.8890
47446SOL     OW48174   1.197   7.756  11.998  0.4956  0.2111  0.0811
47446SOL    HW148175   1.119   7.778  12.049  0.6472  0.1631  0.3345
47446SOL    HW248176   1.163   7.717  11.918  0.2593 -2.9186  1.5407
47447SOL     OW48177   7.435   1.536   7.616  0.1675 -0.2448  0.0350
47447SOL    HW148178   7.473   1.477   7.682 -0.8326 -1.5790 -0.5284
47447SOL    HW248179   7.348   1.557   7.651 -0.9907 -2.1784 -1.4799
47448SOL     OW48180   6.476   8.289   8.680 -0.3428  0.0681  0.3454
47448SOL    HW148181   6.557   8.299   8.729  0.1279 -0.7937 -0.2360
47448SOL    HW248182   6.484   8.351   8.607  1.4915 -2.5296 -1.8567
47449SOL     OW48183   1.089   4.064   8.410 -0.2115 -0.1872  0.0509
47449SOL    HW148184   1.021   4.075   8.476  1.1323 -3.4224  2.2205
47449SOL    HW248185   1.062   3.985   8.362  0.9221 -0.2263 -0.5479
47450SOL     OW48186   8.534   4.434   5.098 -0.0524 -0.1719 -0.5920
47450SOL    HW148187   8.485   4.365   5.052  0.0508 -0.6272 -0.0238
47450SOL    HW248188   8.617   4.393   5.121 -1.5850 -1.3890  3.6891
47451SOL     OW48189   9.054   9.388   6.689  0.1354  0.2475 -0.6600
47451SOL    HW148190   9.125   9.448   6.665 -0.5883  2.1035  1.4688
47451SOL    HW248191   8.974   9.435   6.666 -0.4466 -1.1601 -1.6044
47452SOL     OW48192  11.434   4.003   4.222 -0.2344 -0.9151 -0.3002
47452SOL    HW148193  11.389   4.077   4.262  0.4930 -0.1008 -0.9450
47452SOL    HW248194  11.379   3.977   4.149 -0.9900 -1.6685  0.5132
47453SOL     OW48195   6.264   4.199   8.363  0.2334  0.2460 -0.2749
47453SOL    HW148196   6.331   4.263   8.335  0.7367 -0.0363  0.2603
47453SOL    HW248197   6.275   4.126   8.303  1.1450 -0.2523  0.4618
47454SOL     OW48198   0.222   8.964   2.421 -0.4200 -0.1494 -0.1522
47454SOL    HW148199   0.270   9.021   2.481 -0.7212  1.1706 -1.1309
47454SOL    HW248200   0.132   8.997   2.424 -0.6737 -0.7865 -0.4887
47455SOL     OW48201   5.142   0.655  11.970 -0.1820 -0.4705 -0.1205
47455SOL    HW148202   5.058   0.611  11.986  0.1155 -0.7024  0.8533
47455SOL    HW248203   5.163   0.697  12.054  1.1416 -1.2041 -0.0641
47456SOL     OW48204   3.862   4.916   1.060 -0.4953 -0.5638 -0.3673
47456SOL    HW148205   3.857   4.934   0.966  0.1277  1.6374 -0.0412
47456SOL    HW248206   3.776   4.940   1.094  0.3087  1.9514  0.0575
47457SOL     OW48207   0.896   5.723  11.426  0.0335 -0.0097  0.2316
47457SOL    HW148208   0.920   5.754  11.339  0.3692  0.0688  0.3534
47457SOL    HW248209   0.815   5.770  11.447  0.0402  0.0891  0.0312
47458SOL     OW48210  11.900   4.833  11.326 -0.5043  0.4325 -0.2686
47458SOL    HW148211  11.955   4.789  11.391  0.6544 -1.2278 -2.2628
47458SOL    HW248212  11.811   4.802  11.345 -0.0286 -0.9202 -0.1511
47459SOL     OW48213   1.475   6.073  10.008 -0.0470 -0.2998  0.4886
47459SOL    HW148214   1.477   6.024  10.090  0.5281  1.3752  1.5461
47459SOL    HW248215   1.566   6.075   9.979  0.6246  2.8804  2.2972
47460SOL     OW48216  10.752   3.476   3.855 -0.1099  0.1296  0.0560
47460SOL    HW148217  10.666   3.455   3.819 -0.6141  1.3963  0.4575
47460SOL    HW248218  10.777   3.557   3.810 -0.1649  1.0276  1.5912
47461SOL     OW48219   4.458   0.861   6.355  0.0983  0.2673 -0.1774
47461SOL    HW148220   4.544   0.893   6.383  0.8162 -0.2551 -1.6640
47461SOL    HW248221   4.466   0.765   6.359 -0.8052  0.2140  0.7350
47462SOL     OW48222  12.120   8.578  11.737  0.3892  0.1041  0.7082
47462SOL    HW148223  12.121   8.640  11.665  1.3908 -0.8777 -0.1527
47462SOL    HW248224  12.043   8.602  11.788 -0.8382  0.2970 -1.1494
47463SOL     OW48225   1.183   5.240   7.139  0.2536 -0.3631  0.0257
47463SOL    HW148226   1.118   5.290   7.090 -0.1310 -0.1627  0.7261
47463SOL    HW248227   1.134   5.200   7.210  0.7468 -0.9059  0.0688
47464SOL     OW48228   7.806   0.995   2.525  0.3256 -0.0560  0.2198
47464SOL    HW148229   7.884   0.995   2.470 -0.4362 -1.2521 -0.9139
47464SOL    HW248230   7.762   1.078   2.504  0.8683  0.2442  0.2580
47465SOL     OW48231  10.369  10.785   0.310  0.0547  0.0332  0.2964
47465SOL    HW148232  10.451  10.831   0.295 -0.1506 -0.3090 -2.2646
47465SOL    HW248233  10.392  10.692   0.304 -0.7975 -0.0940 -3.0697
47466SOL     OW48234   7.680  11.944   9.355 -0.0189  0.1593 -0.4448
47466SOL    HW148235   7.662  11.969   9.445 -0.2904  0.8692 -0.6879
47466SOL    HW248236   7.664  11.850   9.352 -0.0588  0.1440  0.2330
47467SOL     OW48237   3.071   3.447  10.596 -0.2441  0.2360 -0.2983
47467SOL    HW148238   3.124   3.371  10.619  1.1998  0.2595 -3.1798
47467SOL    HW248239   2.988   3.410  10.567  0.0341 -0.1707 -0.5886
47468SOL     OW48240   3.270   3.650   7.788 -0.0130 -0.1057  0.5078
47468SOL    HW148241   3.319   3.722   7.748 -1.5016  1.0761  0.7227
47468SOL    HW248242   3.335   3.602   7.840  1.0126  1.0581  0.3319
47469SOL     OW48243   5.234   3.956   2.610  0.4872  0.1815 -0.2765
47469SOL    HW148244   5.151   3.970   2.565 -0.4888 -0.7107  1.1700
47469SOL    HW248245   5.289   3.911   2.545 -0.2440  0.5363 -1.1599
47470SOL     OW48246   6.116   2.678  10.637 -0.6412 -0.0109 -0.1113
47470SOL    HW148247   6.086   2.703  10.550  0.8569 -2.3666 -1.4338
47470SOL    HW248248   6.157   2.757  10.672  0.7404  0.4391 -2.5286
47471SOL     OW48249  10.910   7.721  11.259  0.4497 -0.5830 -0.3858
47471SOL    HW148250  10.849   7.708  11.331  1.3070 -0.0958  0.4503
47471SOL    HW248251  10.900   7.643  11.204 -1.5257 -0.1433 -0.7483
47472SOL     OW48252   1.152   7.506   9.474  0.3313  0.2373 -0.2644
47472SOL    HW148253   1.057   7.504   9.486  0.2792  0.1067 -0.6886
47472SOL    HW248254   1.165   7.541   9.386  0.6363 -0.7825 -0.6465
47473SOL     OW48255   4.654   6.656  12.105 -0.2144 -0.1042 -0.2585
47473SOL    HW148256   4.679   6.749  12.103  1.0825 -0.4365 -1.8196
47473SOL    HW248257   4.570   6.653  12.060  0.8629  0.0844 -2.4342
47474SOL     OW48258  11.214   4.999   4.785 -0.4148 -0.3869  0.8391
47474SOL    HW148259  11.305   5.025   4.770 -0.4402 -0.6299  0.1982
47474SOL    HW248260  11.173   5.006   4.699 -1.1740  0.3430  1.2449
47475SOL     OW48261   4.254  10.845  11.019 -0.3137  0.3545  0.0664
47475SOL    HW148262   4.210  10.764  10.992 -0.0741  0.7855 -1.7427
47475SOL    HW248263   4.340  10.816  11.051  0.5709 -0.0279 -2.4145
47476SOL     OW48264   0.034  11.871   6.277  0.2880  0.7046 -0.1917
47476SOL    HW148265   0.046  11.944   6.216 -1.4627  1.4345  0.2933
47476SOL    HW248266   0.108  11.813   6.258  1.2291  2.1461 -1.2138
47477SOL     OW48267   3.401   7.052   8.463 -0.2315  0.1517 -0.8755
47477SOL    HW148268   3.363   7.116   8.402  0.1118  1.2283  0.0014
47477SOL    HW248269   3.464   7.003   8.411  1.0239  1.9394 -1.1276
47478SOL     OW48270   2.922   1.140   0.699  0.0835  0.0130  0.1945
47478SOL    HW148271   2.857   1.101   0.758  1.0828  0.3154  1.5337
47478SOL    HW248272   2.892   1.231   0.690 -0.9886 -0.4411 -1.1261
47479SOL     OW48273   1.702   3.817   5.927  0.5570 -0.2681 -0.0145
47479SOL    HW148274   1.784   3.867   5.918  0.3706  0.0272 -0.0819
47479SOL    HW248275   1.635   3.875   5.891  0.0032  0.3249  1.8775
47480SOL     OW48276   4.958  11.104  11.634 -0.0083  0.5126 -0.8031
47480SOL    HW148277   5.044  11.079  11.600  0.8381 -0.0417  1.5460
47480SOL    HW248278   4.977  11.151  11.715 -1.9275 -1.3125  0.8114
47481SOL     OW48279   5.903   1.234   4.462  0.1871  0.2553 -0.0204
47481SOL    HW148280   5.969   1.230   4.532  0.3928  0.4511 -0.1988
47481SOL    HW248281   5.820   1.216   4.505  0.4502 -0.7450  0.0728
47482SOL     OW48282   1.887   7.142   4.164  0.3563 -0.6203  0.2695
47482SOL    HW148283   1.861   7.085   4.092 -1.2055 -0.0792  0.3569
47482SOL    HW248284   1.830   7.115   4.237  1.2716 -0.5475  1.0364
47483SOL     OW48285   5.001   6.753  11.473  0.2717 -0.3932  0.5994
47483SOL    HW148286   5.011   6.830  11.530  0.6054 -0.1956  0.2764
47483SOL    HW248287   4.989   6.789  11.386 -1.2386 -0.6752  0.6663
47484SOL     OW48288   1.517   2.754   8.415  0.0061 -0.3088  0.1249
47484SOL    HW148289   1.565   2.778   8.494 -3.1229 -1.0438  2.4408
47484SOL    HW248290   1.512   2.658   8.418 -1.0426 -0.2870 -0.3696
47485SOL     OW48291   8.971  12.113   8.813  0.2821  0.7885  0.3714
47485SOL    HW148292   8.994  12.186   8.870 -0.5048  0.7774  0.7311
47485SOL    HW248293   8.957  12.153   8.727 -1.1090  1.2393  0.7797
47486SOL     OW48294   9.267   1.436  11.549  0.1810  0.4593  0.1802
47486SOL    HW148295   9.174   1.455  11.563  0.5700  1.8584  1.0651
47486SOL    HW248296   9.270   1.341  11.537 -1.1929  0.1702  1.6757
47487SOL     OW48297   8.461   9.926   5.170 -0.0729  0.5783 -0.4952
47487SOL    HW148298   8.398   9.995   5.192 -0.2408  0.2024  0.2196
47487SOL    HW248299   8.408   9.850   5.147  0.1132  0.6653 -1.2503
47488SOL     OW48300   9.957   8.090   7.369 -0.5091 -0.3548 -0.0568
47488SOL    HW148301   9.961   7.995   7.363  0.0320 -0.2321 -2.1880
47488SOL    HW248302   9.874   8.108   7.412 -1.2404 -1.7633 -0.8313
47489SOL     OW48303   8.645   1.777   1.950 -0.1672 -0.1304 -0.3561
47489SOL    HW148304   8.714   1.723   1.911 -0.2486 -0.6823  0.2533
47489SOL    HW248305   8.692   1.836   2.009 -0.0169  0.8801 -1.4550
47490SOL     OW48306   8.950   9.299   5.897 -0.1039  0.1902  0.0588
47490SOL    HW148307   9.002   9.300   5.816 -0.3349  1.4150 -0.0828
47490SOL    HW248308   8.870   9.252   5.874  0.2084 -0.2391 -0.1724
47491SOL     OW48309   7.493   3.096   0.688  0.1549  0.3838  0.7992
47491SOL    HW148310   7.451   3.043   0.756  0.5350  0.8529  1.4117
47491SOL    HW248311   7.580   3.115   0.723  0.2646  0.8361  0.2894
47492SOL     OW48312  11.260   6.481   0.232 -0.0866 -0.4144 -0.2298
47492SOL    HW148313  11.180   6.438   0.198 -0.9272 -0.5595  1.7906
47492SOL    HW248314  11.299   6.521   0.155 -1.4602 -1.3732 -1.5105
47493SOL     OW48315   9.661   1.277  11.931 -0.0651 -0.3874  0.0757
47493SOL    HW148316   9.610   1.349  11.968  0.5193  0.9003 -1.4756
47493SOL    HW248317   9.638   1.278  11.837  3.5520  0.9802 -0.9436
47494SOL     OW48318  12.001   5.361  12.197 -0.3830  0.1605 -0.4076
47494SOL    HW148319  12.023   5.451  12.176  0.3112  0.1525  0.2169
47494SOL    HW248320  11.967   5.324  12.115  1.0183  0.4774 -1.1664
47495SOL     OW48321   3.211   5.743   9.307 -0.0111 -0.2249  0.7508
47495SOL    HW148322   3.223   5.654   9.340  0.1676  0.2070  1.8890
47495SOL    HW248323   3.296   5.785   9.319  0.1615 -0.1483 -0.6120
47496SOL     OW48324   4.215   9.476  11.927  0.2297 -0.1370  0.3640
47496SOL    HW148325   4.129   9.464  11.966  0.6744  0.4156  1.5549
47496SOL    HW248326   4.222   9.405  11.863 -1.2302  0.0140  0.0025
47497SOL     OW48327   3.025   5.139   6.726  0.3424 -0.2255 -0.0808
47497SOL    HW148328   3.107   5.115   6.768 -0.9086 -0.1762  2.6168
47497SOL    HW248329   3.051   5.190   6.650  2.8008 -0.9234  0.2010
47498SOL     OW48330   2.431   3.064   6.956  0.1637 -0.6788 -0.2067
47498SOL    HW148331   2.455   3.116   7.033  2.8535 -0.1015 -1.3405
47498SOL    HW248332   2.457   2.975   6.978 -2.0834 -1.1828  0.7291
47499SOL     OW48333   1.890   6.363   4.196 -0.5575  0.3585  0.5428
47499SOL    HW148334   1.886   6.443   4.143 -1.9093 -0.2233 -0.2943
47499SOL    HW248335   1.981   6.358   4.226 -0.5334  2.4030  0.9476
47500SOL     OW48336   3.662  10.159   6.279 -0.2806  0.5563 -0.1622
47500SOL    HW148337   3.669  10.221   6.351 -1.4127 -0.4989  0.8974
47500SOL    HW248338   3.603  10.091   6.311 -1.1658  0.2629 -2.2303
47501SOL     OW48339   8.085   3.992   1.160 -0.2367  0.2392  0.9098
47501SOL    HW148340   8.028   4.057   1.117 -1.0701 -0.2993  1.1778
47501SOL    HW248341   8.027   3.918   1.178 -0.0061  0.5478  3.2551
47502SOL     OW48342   1.992  10.787   1.398 -0.5146  0.2078  0.0591
47502SOL    HW148343   2.015  10.800   1.490  0.3014  0.4091 -0.1589
47502SOL    HW248344   1.912  10.735   1.400  1.2178 -2.6217  0.8739
47503SOL     OW48345  12.250   2.699  11.731  0.8057 -0.2297  0.0139
47503SOL    HW148346  12.320   2.759  11.704  0.0311  0.8092  0.2368
47503SOL    HW248347  12.272   2.616  11.690  2.4941 -0.0974  0.5702
47504SOL     OW48348   4.334   3.468   9.798  0.2427  0.2447  0.1769
47504SOL    HW148349   4.369   3.530   9.862  2.4749 -0.0263 -0.6927
47504SOL    HW248350   4.377   3.385   9.819  0.2759 -0.0775 -1.0688
47505SOL     OW48351  11.504   9.129   7.508 -0.0777 -0.3319 -0.2519
47505SOL    HW148352  11.592   9.154   7.536  0.1909 -0.5046 -0.9299
47505SOL    HW248353  11.446   9.175   7.569  0.4558  0.5043 -0.3601
47506SOL     OW48354   6.584   5.184   6.634 -0.5744 -0.2792 -0.1936
47506SOL    HW148355   6.671   5.218   6.614 -0.5717  0.2240  0.6318
47506SOL    HW248356   6.546   5.162   6.548  0.7323 -1.4585 -0.5042
47507SOL     OW48357  11.508   3.732   4.478 -0.3691  0.5336 -0.3199
47507SOL    HW148358  11.488   3.674   4.405  2.1612 -0.9425  0.0164
47507SOL    HW248359  11.533   3.673   4.549  0.3996  1.9812  0.6694
47508SOL     OW48360  11.698   2.577   1.459  0.0735 -0.0016 -0.1446
47508SOL    HW148361  11.683   2.501   1.515  1.7446  0.1154  0.5236
47508SOL    HW248362  11.696   2.542   1.370 -0.7967 -0.5228  0.0767
47509SOL     OW48363   8.192   4.343   1.800  0.2455 -0.3396  0.2934
47509SOL    HW148364   8.285   4.321   1.797  0.6801  1.3848 -0.1317
47509SOL    HW248365   8.164   4.317   1.887  1.1920 -0.6084  0.5357
47510SOL     OW48366   6.783   7.350   7.475 -0.0600  0.0725  0.3447
47510SOL    HW148367   6.772   7.321   7.566 -0.9532 -1.1052 -0.1013
47510SOL    HW248368   6.737   7.283   7.424  0.8559  0.4449 -1.0122
47511SOL     OW48369   2.899   2.333   4.459 -0.1510 -0.3143  0.0236
47511SOL    HW148370   2.950   2.413   4.449  1.3053 -1.1189  0.6345
47511SOL    HW248371   2.862   2.339   4.547  2.0032 -1.3609  1.0858
47512SOL     OW48372   0.406   6.525   2.552 -0.1879  0.0279  0.7164
47512SOL    HW148373   0.500   6.543   2.549 -0.1805 -0.1236 -0.8949
47512SOL    HW248374   0.378   6.527   2.461 -1.5792 -0.8681  1.0829
47513SOL     OW48375   5.403  11.836   6.266  0.1095  0.0489  0.0526
47513SOL    HW148376   5.358  11.885   6.335  2.3462 -0.5673  2.0799
47513SOL    HW248377   5.333  11.787   6.222 -1.6236  1.8981  0.6173
47514SOL     OW48378   0.554   8.542   6.574  0.6065  0.0557  0.3205
47514SOL    HW148379   0.635   8.593   6.576  1.1955 -0.7852 -0.7414
47514SOL    HW248380   0.505   8.578   6.499  0.8855 -0.6947 -0.2398
47515SOL     OW48381   1.507   1.511   3.264 -0.0647  0.0891 -0.0059
47515SOL    HW148382   1.502   1.543   3.354 -0.1204  2.7841 -0.8889
47515SOL    HW248383   1.586   1.457   3.263 -0.9796 -1.4148  2.0064
47516SOL     OW48384   4.789   6.380   9.746 -0.5715  0.2128 -0.4034
47516SOL    HW148385   4.771   6.457   9.692 -1.0994  1.0239  0.8690
47516SOL    HW248386   4.884   6.380   9.757 -0.6841  1.6512  0.9062
47517SOL     OW48387  12.068   7.909   6.536  0.2185  0.2065  0.3295
47517SOL    HW148388  12.043   7.994   6.501 -0.6845  0.7387  2.1115
47517SOL    HW248389  12.105   7.928   6.622 -0.6887 -1.2246  1.0859
47518SOL     OW48390   2.584   7.240   3.033  0.1926  0.1097 -0.6251
47518SOL    HW148391   2.598   7.190   2.953  2.4811  1.9042 -1.4471
47518SOL    HW248392   2.542   7.321   3.004  1.3194  0.9080 -0.0793
47519SOL     OW48393   2.210   0.918   4.561 -0.1858  0.0588  0.5425
47519SOL    HW148394   2.119   0.887   4.567  0.0244 -0.5362  0.8063
47519SOL    HW248395   2.262   0.841   4.584  0.3397  0.8320  2.0924
47520SOL     OW48396   4.492   8.013  10.268  0.1233 -0.1899  0.3228
47520SOL    HW148397   4.537   7.961  10.202 -1.7054 -1.6760  0.1813
47520SOL    HW248398   4.552   8.013  10.343  0.7032 -1.4304 -0.1275
47521SOL     OW48399   0.496   2.840  10.714  0.4142 -0.8825 -0.2811
47521SOL    HW148400   0.551   2.784  10.660 -0.6634 -1.3060 -0.9731
47521SOL    HW248401   0.430   2.875  10.653 -2.2948 -3.2200  1.0896
47522SOL     OW48402   6.761   1.689   8.963 -0.1934  0.0605  0.4602
47522SOL    HW148403   6.769   1.619   9.029  1.9333 -0.5517 -0.3665
47522SOL    HW248404   6.679   1.668   8.918 -0.4596 -0.9111  1.3252
47523SOL     OW48405   5.731   1.758   0.652  0.3522 -0.3623  0.1772
47523SOL    HW148406   5.739   1.852   0.636 -0.0515 -0.3258  0.1880
47523SOL    HW248407   5.639   1.744   0.673  0.3702 -0.7900 -0.0064
47524SOL     OW48408   8.449   0.199   2.324 -0.5980 -0.0557  0.2941
47524SOL    HW148409   8.381   0.233   2.267  0.7297  1.0101 -0.7389
47524SOL    HW248410   8.522   0.179   2.265  0.6610  0.6465  1.5454
47525SOL     OW48411   2.173   3.881   7.743  0.0531 -0.2953 -0.4746
47525SOL    HW148412   2.102   3.936   7.709  2.4264  2.9358 -0.6591
47525SOL    HW248413   2.239   3.879   7.674  1.6374 -0.2233  0.9614
47526SOL     OW48414   1.160  10.719   1.333  0.2754  0.1054 -0.2311
47526SOL    HW148415   1.111  10.721   1.415  1.7756 -1.2772  0.7644
47526SOL    HW248416   1.226  10.651   1.346  1.3934  0.7465 -2.1162
47527SOL     OW48417   1.401   9.542   3.657  0.8287 -0.4096 -0.1620
47527SOL    HW148418   1.409   9.521   3.750 -0.8710 -0.1260  0.0910
47527SOL    HW248419   1.471   9.604   3.640  1.6262 -1.0261  0.7383
47528SOL     OW48420  10.192   4.026  10.945 -0.3812  0.6905 -0.6684
47528SOL    HW148421  10.227   4.113  10.927  0.9134  0.1507 -0.8962
47528SOL    HW248422  10.118   4.041  11.004  1.2920  1.7770  1.2798
47529SOL     OW48423   9.502   9.302   5.316  0.0973 -0.0150  0.1957
47529SOL    HW148424   9.541   9.388   5.335  0.0571  0.0247  0.1009
47529SOL    HW248425   9.460   9.314   5.231  0.8373 -0.3686 -0.2339
47530SOL     OW48426   5.006   2.804   9.337 -0.2634 -0.1988 -0.4488
47530SOL    HW148427   5.056   2.876   9.298  0.1875  0.8498  1.8505
47530SOL    HW248428   5.073   2.740   9.361 -0.2083  0.2885  0.7803
47531SOL     OW48429   6.884   5.466   3.182  0.2813  0.0239 -0.0434
47531SOL    HW148430   6.842   5.430   3.260 -1.2670 -0.5462 -1.0708
47531SOL    HW248431   6.870   5.399   3.115  0.9542  0.7929 -0.9797
47532SOL     OW48432   5.047  10.383   0.652 -0.1137 -0.2286  0.1797
47532SOL    HW148433   4.996  10.383   0.733 -1.6084 -0.2102 -0.7251
47532SOL    HW248434   4.991  10.337   0.589  0.7889  0.2408 -0.9821
47533SOL     OW48435  11.754  10.681   4.100  0.1877  0.2174 -0.3306
47533SOL    HW148436  11.845  10.655   4.082  1.4491  3.4556  0.5756
47533SOL    HW248437  11.753  10.701   4.193 -1.6640 -0.3364 -0.1978
47534SOL     OW48438   7.652   6.441   8.865  0.3250 -0.1551  0.5329
47534SOL    HW148439   7.631   6.351   8.891  3.0186 -0.3563  2.3918
47534SOL    HW248440   7.700   6.431   8.783 -1.7528 -0.0978 -0.7770
47535SOL     OW48441   0.441   7.417   7.758 -0.1512  0.3662 -0.4931
47535SOL    HW148442   0.484   7.414   7.844 -1.4908  2.2869  0.3296
47535SOL    HW248443   0.363   7.362   7.769  1.2853 -2.0490 -1.5764
47536SOL     OW48444   6.485   7.823   7.693  0.3215 -0.0277 -0.1011
47536SOL    HW148445   6.446   7.744   7.730  0.4610  0.0650  0.2506
47536SOL    HW248446   6.421   7.854   7.629 -0.1962  0.1428  0.4969
47537SOL     OW48447   0.263  11.443   8.564 -0.1985  0.0589  0.4998
47537SOL    HW148448   0.306  11.361   8.586 -0.6997 -0.6091 -0.8708
47537SOL    HW248449   0.275  11.452   8.469 -2.2121  0.3118  0.2164
47538SOL     OW48450  11.476   6.612   1.189 -0.5085 -0.4307 -0.2952
47538SOL    HW148451  11.551   6.628   1.131 -1.7026  1.7896 -1.3784
47538SOL    HW248452  11.400   6.611   1.130 -1.4001 -2.3258  0.7973
47539SOL     OW48453   4.357  10.876   5.623  0.6912  0.2364  0.0686
47539SOL    HW148454   4.367  10.951   5.564  0.3168 -0.2295 -0.6003
47539SOL    HW248455   4.401  10.903   5.704  0.6913  1.1179 -0.2130
47540SOL     OW48456   7.010   8.030   5.388 -0.3625 -0.1912  0.2516
47540SOL    HW148457   7.000   8.064   5.477  1.1282 -1.3004  0.8739
47540SOL    HW248458   7.104   8.033   5.371 -0.6210 -0.0472 -1.2801
47541SOL     OW48459   2.578   5.087   9.384  0.9069  0.0853  0.1320
47541SOL    HW148460   2.646   5.102   9.318 -0.2487 -0.9640 -1.3774
47541SOL    HW248461   2.501   5.062   9.333  0.0362 -1.0570  1.9184
47542SOL     OW48462   5.156   5.425   5.378  0.4867 -0.5258  0.4117
47542SOL    HW148463   5.124   5.515   5.382  0.5186 -0.4543 -0.7798
47542SOL    HW248464   5.093   5.375   5.431  0.3023  0.1381  0.8368
47543SOL     OW48465  12.084   1.802   2.775 -0.0747  0.3257  0.5535
47543SOL    HW148466  12.004   1.763   2.811  0.5611  0.1789  1.8868
47543SOL    HW248467  12.076   1.895   2.797 -0.7688  0.6784 -1.0605
47544SOL     OW48468   6.957   7.429   9.788  0.3920 -0.2789  0.1160
47544SOL    HW148469   6.991   7.444   9.700 -1.1152  1.1971 -0.2463
47544SOL    HW248470   6.946   7.516   9.826 -4.5161 -0.4169 -0.4277
47545SOL     OW48471   2.064   2.089   0.142 -0.1544  0.0018 -1.1984
47545SOL    HW148472   2.069   2.085   0.238 -0.9530  0.0235 -1.1493
47545SOL    HW248473   1.971   2.106   0.124 -0.2803 -1.4636 -2.0290
47546SOL     OW48474   1.822  11.859   0.250 -0.3652  0.6070  0.1019
47546SOL    HW148475   1.835  11.789   0.314  1.6116  1.7637  1.0560
47546SOL    HW248476   1.907  11.901   0.243 -1.1382  2.0227 -1.5522
47547SOL     OW48477   5.973  11.422   3.710 -0.8387 -0.3261  0.0366
47547SOL    HW148478   6.010  11.357   3.649  0.3861  0.6951 -0.3473
47547SOL    HW248479   6.012  11.505   3.683  0.2749  0.0876  2.6095
47548SOL     OW48480   3.760   3.175   1.379  0.3153 -0.2700 -0.0244
47548SOL    HW148481   3.764   3.263   1.342  1.0286 -0.8620 -1.4313
47548SOL    HW248482   3.765   3.188   1.473 -1.7600  1.3151 -0.0743
47549SOL     OW48483  10.911   7.294   2.207  0.0822 -0.1111  0.5150
47549SOL    HW148484  10.921   7.329   2.119 -1.7915  0.0853  0.3319
47549SOL    HW248485  10.875   7.366   2.258 -0.4723 -0.7263  1.0163
47550SOL     OW48486   6.022   1.505   1.105  0.4884 -0.4642  0.0273
47550SOL    HW148487   6.028   1.531   1.197  0.9115 -1.1463  0.2017
47550SOL    HW248488   5.937   1.463   1.098  1.0877 -1.8074  0.4906
47551SOL     OW48489   6.676  10.745   7.345  0.4123 -0.4319 -0.1036
47551SOL    HW148490   6.726  10.821   7.377 -0.3949  0.1956 -0.3109
47551SOL    HW248491   6.598  10.743   7.400  0.3923 -1.0731 -0.1506
47552SOL     OW48492   7.712   2.365  11.240  0.2934  0.1192  0.6512
47552SOL    HW148493   7.787   2.423  11.249  0.0129  0.5824  0.1050
47552SOL    HW248494   7.643   2.407  11.291  0.4618 -0.4173  1.3299
47553SOL     OW48495   9.057   8.076   8.393  0.0864 -0.2497  0.5051
47553SOL    HW148496   9.080   8.147   8.333 -0.9022 -0.9517 -0.7457
47553SOL    HW248497   9.102   7.999   8.358 -1.8351 -1.0392 -0.3661
47554SOL     OW48498  12.223   1.134   3.788  0.4088  0.0329 -0.0638
47554SOL    HW148499  12.159   1.127   3.717  0.1943 -0.0582  0.1410
47554SOL    HW248500  12.271   1.051   3.785  0.4400  0.0535 -0.1407
47555SOL     OW48501   7.064   2.526   7.663  0.6108  0.2654 -0.3860
47555SOL    HW148502   7.143   2.570   7.631  1.0120  1.6657  2.2329
47555SOL    HW248503   7.096   2.443   7.698  0.9939  0.8842  0.7856
47556SOL     OW48504   5.447   7.359   2.360  0.4580 -0.2322 -0.3735
47556SOL    HW148505   5.421   7.276   2.400 -0.3278  0.6722  1.0943
47556SOL    HW248506   5.527   7.339   2.311  0.4552 -1.7716  0.2109
47557SOL     OW48507   8.417   4.265   5.479  0.3433  0.1220 -0.5194
47557SOL    HW148508   8.353   4.201   5.448  0.0997 -0.0184  0.2677
47557SOL    HW248509   8.410   4.263   5.574  2.5861 -1.0502 -0.3105
47558SOL     OW48510  10.128   6.983   3.654  0.2540  0.0513  0.1254
47558SOL    HW148511  10.223   6.990   3.641  0.2636  0.3596  0.3557
47558SOL    HW248512  10.101   6.914   3.593  0.3635  1.1955 -1.2740
47559SOL     OW48513   6.687   2.946   1.077 -0.0845 -0.1313 -0.4550
47559SOL    HW148514   6.639   2.926   0.996  0.0984 -1.1338 -0.3375
47559SOL    HW248515   6.625   2.930   1.147  0.7795 -2.9812 -0.2076
47560SOL     OW48516   1.177   0.225   4.643 -0.0054 -0.6949  0.2608
47560SOL    HW148517   1.169   0.228   4.548 -1.3271 -3.4252  0.1794
47560SOL    HW248518   1.268   0.249   4.660  0.1631  0.1876 -1.6430
47561SOL     OW48519   8.463   3.430   0.239 -0.2864  0.4529 -0.1528
47561SOL    HW148520   8.492   3.376   0.165  0.3974  1.4210 -0.6072
47561SOL    HW248521   8.480   3.377   0.316 -0.7220 -0.4516 -0.6621
47562SOL     OW48522   1.190  10.954  10.528 -0.0532 -0.1915 -0.5201
47562SOL    HW148523   1.207  11.023  10.592  1.1364 -1.9371  1.1227
47562SOL    HW248524   1.103  10.922  10.550  0.2027 -0.5398 -0.0179
47563SOL     OW48525   4.874   7.317   6.256  0.2460 -0.2264 -0.0520
47563SOL    HW148526   4.783   7.321   6.283  0.6958 -1.1152  1.8589
47563SOL    HW248527   4.923   7.343   6.335  1.6521 -1.2916 -0.5301
47564SOL     OW48528   6.419   8.696  10.218 -0.0840 -0.1352 -0.6726
47564SOL    HW148529   6.500   8.713  10.267  0.5783  2.2578 -2.3638
47564SOL    HW248530   6.443   8.629  10.155  1.2698  1.8275 -2.3945
47565SOL     OW48531   7.876   3.083   0.626 -0.0113 -0.3415 -0.4063
47565SOL    HW148532   7.852   3.048   0.712  0.8898  0.4261  0.1843
47565SOL    HW248533   7.812   3.045   0.565 -2.2933  1.0706  0.9651
47566SOL     OW48534   3.834   8.839   1.310 -0.1504 -0.6362  0.4421
47566SOL    HW148535   3.789   8.830   1.226  0.3427  0.0051  0.0955
47566SOL    HW248536   3.897   8.767   1.311  1.0312  0.3209 -0.5297
47567SOL     OW48537   8.333  10.320   4.370 -0.3344 -0.8185 -0.1522
47567SOL    HW148538   8.295  10.265   4.302 -1.9684  0.7777 -0.5734
47567SOL    HW248539   8.426  10.326   4.347 -0.6779 -1.0760 -1.6948
47568SOL     OW48540  10.246   0.853  11.541 -0.4770 -0.3321  0.2606
47568SOL    HW148541  10.161   0.838  11.500 -0.4273 -0.3738  0.1715
47568SOL    HW248542  10.309   0.846  11.469 -0.3173 -1.1347  0.4729
47569SOL     OW48543   2.326  12.317  10.694  0.5940  0.1984 -0.2676
47569SOL    HW148544   2.295  12.396  10.649 -1.1450 -1.0507 -1.4014
47569SOL    HW248545   2.421  12.323  10.690  0.5030  1.6322 -1.4073
47570SOL     OW48546   5.980   6.766   9.891  0.1642 -0.0085  0.0567
47570SOL    HW148547   6.050   6.815   9.849 -0.7340 -0.3020 -1.8906
47570SOL    HW248548   6.021   6.727   9.969  1.9259  0.5005 -0.5745
47571SOL     OW48549   0.555   8.836   5.678  0.3264 -0.0561 -0.4752
47571SOL    HW148550   0.586   8.779   5.748  1.5580  0.3520 -0.6681
47571SOL    HW248551   0.459   8.834   5.686  0.4443  0.1731  1.3683
47572SOL     OW48552   1.793   9.898  12.260  0.0519 -0.0996 -0.2155
47572SOL    HW148553   1.859   9.937  12.203  0.3282 -0.7999 -0.3902
47572SOL    HW248554   1.843   9.855  12.329 -0.1859 -1.0498 -0.6110
47573SOL     OW48555   5.529   4.361   2.747  0.2650  0.6456  0.2711
47573SOL    HW148556   5.446   4.406   2.765 -0.0082  0.9503 -1.5593
47573SOL    HW248557   5.503   4.272   2.724  0.6055  0.2629  1.2908
47574SOL     OW48558   5.637  11.017   0.453 -0.1975  0.0792  0.0359
47574SOL    HW148559   5.548  11.009   0.418 -0.2979  0.3063  0.2363
47574SOL    HW248560   5.682  11.074   0.390 -0.7363  1.5458  0.9140
47575SOL     OW48561   1.400   3.162  10.164 -0.3408  0.5302  0.3163
47575SOL    HW148562   1.370   3.076  10.193  2.1513 -0.1641  1.1295
47575SOL    HW248563   1.403   3.215  10.244  0.0419  0.7417  0.1662
47576SOL     OW48564   6.569   8.659   7.613 -0.7248  0.2720  0.6934
47576SOL    HW148565   6.596   8.748   7.592 -2.6863  0.9618  0.8987
47576SOL    HW248566   6.520   8.629   7.536 -0.4474 -0.4800  0.7979
47577SOL     OW48567  10.659  11.540   1.355 -0.2252  0.6897  0.1827
47577SOL    HW148568  10.711  11.478   1.407  0.2820 -0.7679 -1.9759
47577SOL    HW248569  10.683  11.626   1.391  1.7784 -0.1122  0.9201
47578SOL     OW48570  10.015  10.215  11.815 -0.0253  0.1003  0.1795
47578SOL    HW148571  10.005  10.310  11.824 -2.7880  0.2080 -2.3958
47578SOL    HW248572  10.084  10.203  11.750  0.0057  0.3525  0.1680
47579SOL     OW48573  11.922   1.188   5.206 -0.7033 -0.3095  0.2744
47579SOL    HW148574  11.837   1.185   5.251  0.2952 -0.8658  2.2225
47579SOL    HW248575  11.925   1.276   5.168 -2.3221 -0.4372 -0.2392
47580SOL     OW48576   4.149   6.343   6.769  0.1565 -0.0899 -0.3158
47580SOL    HW148577   4.113   6.378   6.688  0.3177 -1.6422 -1.0946
47580SOL    HW248578   4.100   6.262   6.785  1.0052 -0.4804  0.4240
47581SOL     OW48579   1.442   2.114   4.744 -0.3168 -0.1202 -0.5519
47581SOL    HW148580   1.531   2.098   4.715  0.1727  1.1993  0.1260
47581SOL    HW248581   1.414   2.191   4.695 -0.4751  0.4496  0.3968
47582SOL     OW48582   4.854   9.112   4.641  0.3677 -0.4820 -0.1597
47582SOL    HW148583   4.832   9.083   4.552  0.1277  0.0903 -0.2879
47582SOL    HW248584   4.950   9.114   4.642  0.4524 -2.5669  0.2675
47583SOL     OW48585  11.005   5.038  11.485 -0.5729 -0.8195 -0.2882
47583SOL    HW148586  11.019   5.063  11.576  0.5932  1.2731 -0.9826
47583SOL    HW248587  11.077   4.979  11.465 -1.4710 -2.2237  0.4120
47584SOL     OW48588   9.717   8.026   4.225 -0.2767 -0.1486 -0.1190
47584SOL    HW148589   9.653   8.059   4.162 -0.5511 -0.7027 -0.1403
47584SOL    HW248590   9.692   8.067   4.308  2.6538  4.0966 -1.0238
47585SOL     OW48591   6.329   5.673  11.236 -0.3935  0.0108  0.1188
47585SOL    HW148592   6.283   5.734  11.178  0.0292  0.0568 -0.1772
47585SOL    HW248593   6.326   5.589  11.190 -0.1615  0.0201  0.0853
47586SOL     OW48594  11.427   7.378   4.147  0.6211  0.0543 -0.4420
47586SOL    HW148595  11.467   7.323   4.079 -0.4432 -0.4181 -0.7238
47586SOL    HW248596  11.476   7.460   4.144  1.5497 -0.4967 -0.7607
47587SOL     OW48597   2.525   6.754   9.264 -0.2973  0.1554 -0.5237
47587SOL    HW148598   2.496   6.695   9.334  2.2212  0.0741  0.5707
47587SOL    HW248599   2.491   6.716   9.184  1.6755 -3.2378  0.0462
47588SOL     OW48600   5.384   7.564   3.593  0.3350 -0.1411  0.3718
47588SOL    HW148601   5.432   7.493   3.635 -0.5180  0.0238  1.6961
47588SOL    HW248602   5.427   7.644   3.624  0.9153 -0.0344 -0.6407
47589SOL     OW48603   4.299   2.730   7.654  0.2679  0.1071 -0.3052
47589SOL    HW148604   4.235   2.736   7.725  0.6272 -1.8103  0.2212
47589SOL    HW248605   4.250   2.697   7.579  0.7667 -2.4021  0.3896
47590SOL     OW48606   4.675   7.158   8.304  0.2802  0.2866 -0.0095
47590SOL    HW148607   4.590   7.148   8.347  0.7968  1.1117  1.2433
47590SOL    HW248608   4.686   7.077   8.254 -0.9457 -0.1058  0.3225
47591SOL     OW48609  11.220   3.994  12.303 -0.5406  0.2490  0.2409
47591SOL    HW148610  11.271   4.067  12.339 -1.0643  0.8213 -0.1546
47591SOL    HW248611  11.226   3.926  12.369  0.3499  0.4769  0.4107
47592SOL     OW48612   7.754   9.410   0.421 -0.3382 -0.4428  0.2114
47592SOL    HW148613   7.717   9.473   0.483 -2.9033 -0.6846 -0.9400
47592SOL    HW248614   7.774   9.333   0.474  1.7446  0.8499  1.4318
47593SOL     OW48615   3.550   7.158   0.130 -0.5964  0.3534 -0.5396
47593SOL    HW148616   3.558   7.076   0.178  0.9688  0.5964 -0.3113
47593SOL    HW248617   3.537   7.224   0.197  0.4171  0.5459 -0.5058
47594SOL     OW48618   9.014   1.055   8.490  0.2134 -0.2950 -0.0216
47594SOL    HW148619   9.024   1.059   8.585  2.0248 -1.9162 -0.0857
47594SOL    HW248620   8.971   0.971   8.475 -1.5705  0.6622 -0.6064
47595SOL     OW48621   3.333   2.639   3.858 -0.2341 -0.4472 -0.3796
47595SOL    HW148622   3.297   2.622   3.771  1.7613  0.5059 -1.4533
47595SOL    HW248623   3.296   2.724   3.883  0.4411  0.0465 -1.0262
47596SOL     OW48624   7.872   5.210   4.467 -0.4544  0.0954  0.9543
47596SOL    HW148625   7.934   5.281   4.482 -0.6938  0.7152 -0.7547
47596SOL    HW248626   7.919   5.131   4.494  1.4856  0.4430 -1.0886
47597SOL     OW48627   6.978   2.298   5.397 -0.2938  0.7411  0.7126
47597SOL    HW148628   6.998   2.313   5.304  1.1372 -1.8329  0.4961
47597SOL    HW248629   6.900   2.351   5.414 -0.0678  1.9989 -1.6940
47598SOL     OW48630   0.840   1.471   5.409 -1.0261  0.0393 -0.0739
47598SOL    HW148631   0.857   1.382   5.378 -0.7943 -0.4909  1.4596
47598SOL    HW248632   0.922   1.498   5.452 -1.7841  0.1027  1.4138
47599SOL     OW48633  11.648   1.832   1.130  0.5140 -0.4678  0.0826
47599SOL    HW148634  11.743   1.822   1.140  0.7465 -1.7341 -2.4253
47599SOL    HW248635  11.618   1.746   1.100 -1.3297  0.1171  0.1354
47600SOL     OW48636  12.152  11.449   3.331 -0.1427 -0.0666  0.3198
47600SOL    HW148637  12.182  11.457   3.241  1.1913 -2.1802  0.5196
47600SOL    HW248638  12.190  11.525   3.376  0.3666  0.2303 -0.5979
47601SOL     OW48639   2.691   9.687   1.497  0.0073 -0.2056 -0.2423
47601SOL    HW148640   2.687   9.746   1.572 -0.8553  1.1602 -1.3101
47601SOL    HW248641   2.746   9.732   1.434 -2.2516  0.4707 -1.8597
47602SOL     OW48642   1.800   8.588   3.679  0.0158  0.0655  0.2430
47602SOL    HW148643   1.741   8.525   3.638 -0.3065  0.6736 -0.2307
47602SOL    HW248644   1.861   8.612   3.610 -0.3963  0.9308  0.1688
47603SOL     OW48645  10.218   7.185   4.321  0.7206  0.2912 -0.0116
47603SOL    HW148646  10.233   7.137   4.239 -0.6939 -2.4389  1.1839
47603SOL    HW248647  10.273   7.139   4.385 -1.1085 -0.1705  1.2956
47604SOL     OW48648   9.640   9.144   3.930 -1.1106  0.1711 -0.1659
47604SOL    HW148649   9.546   9.163   3.923 -1.0040  0.2995 -1.5433
47604SOL    HW248650   9.666   9.184   4.012 -2.1710  0.5666 -0.0039
47605SOL     OW48651   3.090   5.280   7.416 -0.5515 -0.5834  0.1342
47605SOL    HW148652   3.038   5.349   7.457  1.3508  0.5473  0.8050
47605SOL    HW248653   3.054   5.271   7.328 -1.7485  0.2590  0.5253
47606SOL     OW48654   9.260   3.476  11.527  0.1372  0.4740 -0.7491
47606SOL    HW148655   9.295   3.397  11.568 -2.4990  0.1270  1.0979
47606SOL    HW248656   9.295   3.475  11.437  3.3333 -0.6066  0.3693
47607SOL     OW48657  11.999   3.190  10.577 -0.1993 -0.5612  0.2649
47607SOL    HW148658  11.938   3.120  10.554 -1.5901  0.9281 -0.8448
47607SOL    HW248659  12.083   3.160  10.544 -1.1774 -0.8359 -2.2177
47608SOL     OW48660   5.212   1.180   3.315  0.3153  0.3571  0.2639
47608SOL    HW148661   5.237   1.246   3.250 -1.2040  1.9299  1.1873
47608SOL    HW248662   5.273   1.195   3.388 -0.1517  0.9365  0.5538
47609SOL     OW48663   9.601   9.906   1.132  0.2332 -0.3003 -0.3897
47609SOL    HW148664   9.577   9.824   1.088 -1.7169  0.3731 -0.6517
47609SOL    HW248665   9.519   9.954   1.141  1.4302  1.9484 -0.8360
47610SOL     OW48666   5.291   9.094   2.836  0.3050 -1.0054  0.5542
47610SOL    HW148667   5.335   9.176   2.816  2.4213 -2.2017 -0.0569
47610SOL    HW248668   5.198   9.115   2.836  0.4703  0.6274 -3.4823
47611SOL     OW48669   5.308   9.117  10.913  0.1161  0.3229 -0.3615
47611SOL    HW148670   5.331   9.101  11.004 -0.2726  2.2993  0.1234
47611SOL    HW248671   5.248   9.046  10.890  0.8234 -0.6264  0.6730
47612SOL     OW48672   5.198   6.210   5.755 -0.0973 -0.6946  0.5098
47612SOL    HW148673   5.156   6.126   5.740 -1.5455  0.0055  0.4573
47612SOL    HW248674   5.143   6.273   5.708 -0.3699  0.5661  2.4339
47613SOL     OW48675   1.717   6.645  10.000  0.2262  0.3525  0.0224
47613SOL    HW148676   1.719   6.740  10.013  0.3175  0.2088  1.1724
47613SOL    HW248677   1.736   6.609  10.087  0.1239 -0.7203 -0.3895
47614SOL     OW48678   7.619   2.853  10.383  0.1381  0.2321  0.0628
47614SOL    HW148679   7.551   2.873  10.447  1.9864  2.2257  1.5869
47614SOL    HW248680   7.661   2.773  10.416  1.5350  1.6257  1.8867
47615SOL     OW48681  11.180   7.853   2.944  0.1115  0.1831  0.0780
47615SOL    HW148682  11.133   7.914   2.887 -1.4653 -1.2691 -0.2588
47615SOL    HW248683  11.264   7.840   2.901 -0.2876  0.6376 -0.8737
47616SOL     OW48684  11.911  11.930   7.485 -0.3000  0.1985  0.2720
47616SOL    HW148685  11.821  11.953   7.460 -0.8137 -2.6088 -0.8054
47616SOL    HW248686  11.918  11.960   7.576 -1.6759  2.0765 -0.1730
47617SOL     OW48687   7.448   2.753   2.601  0.0391  0.1054  0.3091
47617SOL    HW148688   7.363   2.718   2.626  0.1024 -0.5633 -0.3805
47617SOL    HW248689   7.505   2.677   2.595  0.7092  0.5462  0.7883
47618SOL     OW48690   7.121   9.700   7.534 -0.0727  0.5304  0.4093
47618SOL    HW148691   7.069   9.679   7.456 -0.7383 -0.0879  1.0090
47618SOL    HW248692   7.166   9.619   7.555 -1.0869  0.2466  1.5586
47619SOL     OW48693  10.577   4.886   7.081 -0.1999  0.6561  0.3747
47619SOL    HW148694  10.537   4.917   7.000 -0.4036  1.9869  0.9566
47619SOL    HW248695  10.511   4.829   7.120 -0.7196  1.2075  0.3232
47620SOL     OW48696   0.675   1.116   5.106  0.1939  0.2412 -0.5357
47620SOL    HW148697   0.727   1.085   5.032  0.0681  1.3849 -1.1262
47620SOL    HW248698   0.739   1.143   5.171  0.3165  0.1329 -0.6115
47621SOL     OW48699   2.101   7.132   5.792 -0.2964 -0.2974 -0.2317
47621SOL    HW148700   2.105   7.040   5.769 -0.5029  0.0055 -1.5678
47621SOL    HW248701   2.044   7.171   5.726 -0.7284  0.6805  0.6781
47622SOL     OW48702   6.526  10.593   1.823  0.2157 -0.1363  0.0697
47622SOL    HW148703   6.576  10.528   1.872  1.3151 -0.1565 -1.0506
47622SOL    HW248704   6.585  10.624   1.755 -0.3222  1.9629  0.4860
47623SOL     OW48705   1.912   7.374   4.037 -0.0578  0.1240  0.4724
47623SOL    HW148706   1.882   7.334   3.955 -0.9219  0.2190  0.7275
47623SOL    HW248707   1.882   7.314   4.105  1.2266 -0.2854  0.6895
47624SOL     OW48708   3.225   6.870  10.935  0.1877 -0.8247  0.1548
47624SOL    HW148709   3.205   6.835  10.848  0.4023 -1.8649  0.5000
47624SOL    HW248710   3.300   6.928  10.921  0.8053 -1.6805 -0.2470
47625SOL     OW48711   9.659   2.282   6.218  0.1617  0.1948  0.5963
47625SOL    HW148712   9.644   2.187   6.212 -2.5137  0.5013  1.2383
47625SOL    HW248713   9.741   2.296   6.170  0.3298 -2.3460 -0.0287
47626SOL     OW48714   4.358   5.804   2.286  0.1163 -0.5500 -0.4095
47626SOL    HW148715   4.331   5.724   2.240 -0.9327 -0.5235  0.1311
47626SOL    HW248716   4.277   5.851   2.302  0.5903  0.0263  0.3874
47627SOL     OW48717  11.209   5.079   3.016  0.3568 -0.8040  0.1274
47627SOL    HW148718  11.141   5.013   3.028 -0.8011  0.2883 -0.0872
47627SOL    HW248719  11.213   5.124   3.101 -0.9113  0.6428 -0.5139
47628SOL     OW48720  10.458   9.645   0.602  0.1822 -0.4442 -0.4332
47628SOL    HW148721  10.410   9.628   0.521 -0.1058 -1.4378 -0.0695
47628SOL    HW248722  10.550   9.642   0.577  0.0822  0.3981 -0.9331
47629SOL     OW48723   6.560   1.925   4.286 -0.4305 -0.7704 -0.3195
47629SOL    HW148724   6.642   1.882   4.262 -0.9268 -0.8894 -1.9378
47629SOL    HW248725   6.577   2.018   4.274 -0.1579 -0.6967  0.5931
47630SOL     OW48726   4.884   2.422   6.426 -0.2332 -0.5320 -0.1816
47630SOL    HW148727   4.844   2.350   6.377 -1.1917  0.4488 -0.8877
47630SOL    HW248728   4.913   2.381   6.508 -2.3787 -1.3991  0.2213
47631SOL     OW48729   9.096   3.638   8.361 -0.4668 -0.2258  0.6768
47631SOL    HW148730   9.040   3.674   8.292  0.0795  0.6501  0.6601
47631SOL    HW248731   9.157   3.710   8.381  0.9700 -1.3080  0.3391
47632SOL     OW48732   0.252   6.316   4.522  0.4006 -0.0282  0.2095
47632SOL    HW148733   0.180   6.376   4.542  1.3401  1.2842 -0.2096
47632SOL    HW248734   0.209   6.234   4.500 -0.8900  0.0849  2.0352
47633SOL     OW48735   9.199   0.384   0.949  0.2313 -0.3898 -0.1739
47633SOL    HW148736   9.228   0.372   0.859 -0.2190 -0.6373 -0.2871
47633SOL    HW248737   9.159   0.301   0.973  1.5499 -0.8037  0.7216
47634SOL     OW48738   6.119   3.657   0.417 -0.4251  0.5305 -0.2449
47634SOL    HW148739   6.053   3.719   0.387 -2.1526 -1.4309 -0.7216
47634SOL    HW248740   6.123   3.591   0.349  0.3626 -0.6034  0.8464
47635SOL     OW48741  10.363   6.603   1.382 -0.2099  0.3478  0.2969
47635SOL    HW148742  10.345   6.674   1.320 -1.1059 -0.0425  0.0869
47635SOL    HW248743  10.329   6.635   1.466  1.0935  0.9171  0.6236
47636SOL     OW48744   3.026   1.353   1.059 -0.1155 -0.4015 -0.3875
47636SOL    HW148745   2.957   1.296   1.092  1.5199 -1.3873  1.5167
47636SOL    HW248746   2.980   1.416   1.003 -2.4059 -1.5432  0.0827
47637SOL     OW48747  11.326   2.835   3.756 -0.2973  0.5538  0.0375
47637SOL    HW148748  11.377   2.793   3.687 -0.6387 -0.5866  0.4599
47637SOL    HW248749  11.280   2.907   3.712  1.1134  1.1633 -0.4851
47638SOL     OW48750   1.367   7.428  12.313 -0.4263 -0.4952 -0.3786
47638SOL    HW148751   1.342   7.501  12.369  1.8328  0.5286 -0.5910
47638SOL    HW248752   1.319   7.353  12.348 -2.2432  0.9193  0.3048
47639SOL     OW48753  11.683   3.468   3.938 -0.2439 -0.5470 -0.6095
47639SOL    HW148754  11.635   3.437   4.015 -0.4839  0.1436 -0.4716
47639SOL    HW248755  11.624   3.452   3.865 -0.6205  0.1337 -0.4628
47640SOL     OW48756   5.280   0.654   1.159 -0.3573 -0.0335  0.3095
47640SOL    HW148757   5.314   0.589   1.220  1.1326 -0.3798 -0.8158
47640SOL    HW248758   5.218   0.605   1.104 -0.8031 -0.0004  0.7789
47641SOL     OW48759   3.267   9.246   3.858  0.1652  0.0029  0.3068
47641SOL    HW148760   3.305   9.320   3.903  1.6418  0.1148 -1.0374
47641SOL    HW248761   3.320   9.171   3.884  1.6236  0.2025 -1.7693
47642SOL     OW48762   5.566   6.015   4.821 -0.0876  0.1898 -0.3292
47642SOL    HW148763   5.546   5.923   4.840 -0.8792 -0.2022 -2.6748
47642SOL    HW248764   5.658   6.025   4.845 -1.0403  0.1834  4.4159
47643SOL     OW48765   9.082   1.767   3.999  0.1596 -0.1596  0.7598
47643SOL    HW148766   9.041   1.719   4.070  2.4231 -1.4115  1.3096
47643SOL    HW248767   9.148   1.822   4.042  0.7474 -0.0343 -0.2602
47644SOL     OW48768   3.943   1.954   6.869  0.2636  0.3651 -0.0820
47644SOL    HW148769   3.864   1.958   6.923 -0.4619  0.8779 -1.1353
47644SOL    HW248770   3.975   2.044   6.866  0.1317  0.4001 -0.7102
47645SOL     OW48771   2.817   2.433   8.468 -0.0329  0.4108 -0.4033
47645SOL    HW148772   2.825   2.450   8.562 -0.6403 -0.5400 -0.1663
47645SOL    HW248773   2.903   2.456   8.432  0.4523  0.0702  0.5011
47646SOL     OW48774   2.965  11.316   5.651 -0.3303 -0.0781 -0.8124
47646SOL    HW148775   3.007  11.314   5.738 -3.2041 -0.4612  0.6889
47646SOL    HW248776   2.995  11.399   5.613  1.4555 -0.1659  0.2665
47647SOL     OW48777  11.594   3.035   5.985 -0.0357 -0.7007  1.1113
47647SOL    HW148778  11.560   2.946   5.989 -1.8186 -0.2908 -1.8327
47647SOL    HW248779  11.553   3.073   5.907  1.5799  2.3274  1.5752
47648SOL     OW48780   9.675  11.615   6.301 -0.0872 -0.3002  0.6020
47648SOL    HW148781   9.753  11.592   6.250 -0.2099 -1.0504  0.7417
47648SOL    HW248782   9.702  11.604   6.392 -0.4008 -0.7048  0.6468
47649SOL     OW48783   2.977   0.241   6.098 -0.1805 -0.2707  0.4272
47649SOL    HW148784   3.021   0.241   6.013 -0.5328  1.3387  0.2194
47649SOL    HW248785   2.933   0.156   6.102 -1.5817  0.2980 -1.7679
47650SOL     OW48786   1.730  10.175   0.552 -0.3977  0.1046  0.0991
47650SOL    HW148787   1.742  10.085   0.585 -0.7834 -0.0456 -0.1670
47650SOL    HW248788   1.680  10.219   0.620 -1.2659 -0.2288 -0.3064
47651SOL     OW48789  10.731   7.317   9.650  0.2969 -0.2898  0.0539
47651SOL    HW148790  10.734   7.318   9.555  1.3138  0.4318  0.0776
47651SOL    HW248791  10.686   7.236   9.672  0.1259 -0.5020 -1.0354
47652SOL     OW48792   0.328   0.329   6.806  0.2345 -0.2128  0.0655
47652SOL    HW148793   0.404   0.272   6.794  0.3289  0.0041 -0.3681
47652SOL    HW248794   0.365   0.414   6.829  0.1168 -0.1381 -0.0219
47653SOL     OW48795   2.636   4.995   2.840  0.1229  0.4296  0.2483
47653SOL    HW148796   2.604   5.081   2.813 -0.7191 -0.6350 -2.4620
47653SOL    HW248797   2.629   4.941   2.762  1.2001 -1.9789  1.7007
47654SOL     OW48798   3.093   6.890   4.879  0.6046  0.1758 -0.0808
47654SOL    HW148799   3.110   6.930   4.793 -0.0104 -1.5095 -1.0388
47654SOL    HW248800   3.124   6.800   4.870 -0.1329 -0.2354  1.2494
47655SOL     OW48801  10.689   4.094  10.733 -0.4190  0.3821 -0.1873
47655SOL    HW148802  10.652   4.113  10.647 -0.5647 -0.9652 -0.4452
47655SOL    HW248803  10.663   4.169  10.787 -0.2340  1.2969 -1.3276
47656SOL     OW48804   9.246   7.194  11.948  0.1618  0.4862  0.0163
47656SOL    HW148805   9.193   7.139  11.891 -0.9101  1.5185 -0.0305
47656SOL    HW248806   9.254   7.277  11.901  3.1305 -0.0731 -0.6716
47657SOL     OW48807   3.450   3.033   8.233  0.5265  0.3305  0.0946
47657SOL    HW148808   3.383   3.089   8.194  0.3806 -0.9054 -1.5545
47657SOL    HW248809   3.505   3.093   8.283 -1.1634  1.5275  0.5967
47658SOL     OW48810   9.799   0.990   3.579  0.2847  0.2741  0.5194
47658SOL    HW148811   9.754   1.013   3.498  1.8004 -2.4945 -1.2852
47658SOL    HW248812   9.892   0.986   3.555  0.6174 -2.3735  1.8581
47659SOL     OW48813   8.651   0.635  11.516 -0.2597  0.0950  0.2286
47659SOL    HW148814   8.705   0.578  11.571 -1.8410 -0.6155  1.1316
47659SOL    HW248815   8.633   0.711  11.570  1.3991  1.2680 -0.7827
47660SOL     OW48816   5.163   1.516   6.831 -0.0811  0.5756 -0.2025
47660SOL    HW148817   5.125   1.461   6.763 -2.7201  2.1832 -0.1635
47660SOL    HW248818   5.127   1.481   6.913  2.4620 -0.8642  0.4075
47661SOL     OW48819   3.860  12.310   0.824 -0.2296  0.4225  0.2983
47661SOL    HW148820   3.798  12.241   0.798  0.0344  0.0913  0.5337
47661SOL    HW248821   3.946  12.268   0.818 -0.1796  0.1666  2.1540
47662SOL     OW48822   8.832   0.847   8.447 -0.1837 -0.5143  0.0090
47662SOL    HW148823   8.801   0.785   8.514 -0.5360 -0.8144 -0.4212
47662SOL    HW248824   8.789   0.817   8.366 -0.1138  0.1123 -0.2609
47663SOL     OW48825  11.642   0.658   0.577 -0.4793 -0.0212  0.1988
47663SOL    HW148826  11.628   0.752   0.592  0.8860  0.7511 -2.5807
47663SOL    HW248827  11.708   0.633   0.641  0.6549  1.4614 -0.3304
47664SOL     OW48828   9.202   2.517  10.498  0.0370 -0.3021 -0.2209
47664SOL    HW148829   9.173   2.428  10.481  1.4942 -0.7574 -0.5217
47664SOL    HW248830   9.248   2.543  10.417 -0.6580  0.8493 -0.2664
47665SOL     OW48831   0.300   5.242   5.445 -0.2992 -0.4024 -0.3177
47665SOL    HW148832   0.392   5.225   5.461  0.1264  2.1503  0.3661
47665SOL    HW248833   0.286   5.216   5.354  1.4358  0.4223 -0.8461
47666SOL     OW48834   9.910   8.306   1.452 -0.3203  0.2385 -0.0422
47666SOL    HW148835   9.926   8.373   1.385  2.2100  0.0783  0.3191
47666SOL    HW248836   9.930   8.350   1.534 -0.0295 -0.5433  0.3129
47667SOL     OW48837   9.049   0.240   9.586  0.3766  0.2957 -0.1828
47667SOL    HW148838   8.976   0.283   9.629 -0.7405  0.6373 -2.3107
47667SOL    HW248839   9.015   0.154   9.561  1.2692 -0.2144  0.2897
47668SOL     OW48840   2.909   6.175   8.237  0.5471  0.1786 -0.9435
47668SOL    HW148841   2.904   6.191   8.142 -1.8238  0.8576 -0.7584
47668SOL    HW248842   2.912   6.262   8.276  0.3620 -0.0833 -0.3427
47669SOL     OW48843   5.436   8.679   5.062  0.4772  0.3386 -0.2528
47669SOL    HW148844   5.367   8.742   5.044  0.0706  1.1798  3.4664
47669SOL    HW248845   5.443   8.677   5.158  3.5232 -2.0042 -0.3578
47670SOL     OW48846   0.335   3.441   4.274 -0.6198  0.2612 -0.1365
47670SOL    HW148847   0.415   3.454   4.326 -0.6494  0.3893 -0.1232
47670SOL    HW248848   0.331   3.347   4.260 -0.5528  0.2374  0.0006
47671SOL     OW48849  11.294   7.787   3.987  0.0414  0.0980  0.3450
47671SOL    HW148850  11.223   7.822   3.933  1.1081  0.2979 -0.9881
47671SOL    HW248851  11.283   7.830   4.072 -0.3880  1.4927 -0.3866
47672SOL     OW48852   0.469   5.186  12.304  0.4759 -0.3274 -0.0700
47672SOL    HW148853   0.455   5.280  12.294  1.9533 -0.1031 -0.3093
47672SOL    HW248854   0.539   5.180  12.369 -0.4228 -1.3179  0.8262
47673SOL     OW48855   3.618   9.554   6.746 -0.0377 -0.0561  0.3237
47673SOL    HW148856   3.611   9.474   6.694 -0.0111 -0.0510  0.3117
47673SOL    HW248857   3.711   9.559   6.769 -0.2330 -0.6481  1.3036
47674SOL     OW48858   5.832  11.303   5.832 -0.4603  0.0026 -0.2708
47674SOL    HW148859   5.850  11.285   5.924 -0.0776  1.6492  0.0215
47674SOL    HW248860   5.756  11.362   5.835 -1.5810 -1.3343 -1.1300
47675SOL     OW48861   9.736   3.310   3.640 -0.1749  0.0085 -1.0327
47675SOL    HW148862   9.680   3.232   3.645 -1.3139  0.8700  0.7220
47675SOL    HW248863   9.735   3.335   3.548 -1.2936 -1.0017 -1.3135
47676SOL     OW48864  11.483   9.457  10.289 -0.1214 -0.7179 -0.0084
47676SOL    HW148865  11.507   9.550  10.289  1.8878 -1.1858 -0.4218
47676SOL    HW248866  11.461   9.438  10.380  4.0111 -0.8330  1.1622
47677SOL     OW48867  11.780   0.766   0.198 -0.0851 -0.2055 -0.2572
47677SOL    HW148868  11.807   0.704   0.130 -0.6752 -0.6893 -0.0570
47677SOL    HW248869  11.688   0.783   0.179  0.1699  0.9284 -0.5481
47678SOL     OW48870   2.152   8.203   2.182  0.1236 -0.3134 -0.0153
47678SOL    HW148871   2.208   8.135   2.218 -0.4438 -0.5867  0.3672
47678SOL    HW248872   2.095   8.158   2.119  0.1011 -0.0996 -0.1529
47679SOL     OW48873   0.686   2.425   3.152 -0.0451 -0.4547 -0.1989
47679SOL    HW148874   0.740   2.417   3.231  0.3252 -1.4816 -0.5484
47679SOL    HW248875   0.685   2.519   3.134  0.6994 -0.3066  0.4530
47680SOL     OW48876   3.302   9.355  11.311  0.0214  0.4657 -0.1537
47680SOL    HW148877   3.242   9.426  11.334  1.3665  1.8594 -0.7976
47680SOL    HW248878   3.345   9.332  11.394  0.9944  1.7835 -0.2656
47681SOL     OW48879   6.377   2.538   3.058 -0.0661 -0.0659 -0.5956
47681SOL    HW148880   6.339   2.574   3.138  2.9364 -0.4219  1.1409
47681SOL    HW248881   6.309   2.481   3.022 -1.0839 -0.9125  2.4184
47682SOL     OW48882   3.919   9.893   6.803  0.1483  0.1709  0.2559
47682SOL    HW148883   4.006   9.926   6.779 -0.0299  0.9679  0.6759
47682SOL    HW248884   3.892   9.947   6.878 -1.1118  0.5820 -0.4598
47683SOL     OW48885   0.117   8.976   9.862  0.1870 -0.2820 -0.2867
47683SOL    HW148886   0.085   9.064   9.880  1.1559 -0.2190  1.2985
47683SOL    HW248887   0.160   8.984   9.777 -1.1200  0.3701 -0.9189
47684SOL     OW48888   0.300   1.078  10.352  0.2353  0.0149 -0.4899
47684SOL    HW148889   0.244   1.010  10.390  0.8634  0.1301  0.6754
47684SOL    HW248890   0.260   1.160  10.378  0.8072  0.0966  0.1513
47685SOL     OW48891   9.457   1.940   1.778  0.5357  0.1346  0.3511
47685SOL    HW148892   9.545   1.976   1.767  1.0094 -1.4178 -1.5310
47685SOL    HW248893   9.400   2.004   1.735  0.4865  1.8993  2.8730
47686SOL     OW48894   4.253   9.264   5.540 -0.2433 -0.3572  0.4677
47686SOL    HW148895   4.212   9.206   5.476 -0.3697  0.5499 -0.2961
47686SOL    HW248896   4.232   9.353   5.510  2.6499  0.1786 -0.2496
47687SOL     OW48897   0.072   6.090  11.024  0.6966 -0.2255 -0.3470
47687SOL    HW148898   0.093   6.168  10.972 -0.1893 -0.4317 -1.0427
47687SOL    HW248899   0.070   6.018  10.961  0.8953 -0.7074  0.1897
47688SOL     OW48900   5.404  12.089   5.982 -0.6087 -0.3202  0.6302
47688SOL    HW148901   5.461  12.047   6.045  0.6811 -0.0709 -0.3335
47688SOL    HW248902   5.439  12.064   5.897 -1.6447  0.2316  0.0144
47689SOL     OW48903  10.674   1.345  10.801  0.0726  0.0065 -0.7659
47689SOL    HW148904  10.695   1.435  10.828  0.4434  0.3174 -2.0207
47689SOL    HW248905  10.580   1.346  10.787 -0.2505 -0.3393  1.0648
47690SOL     OW48906   7.383   2.849   7.777 -0.0014  0.1741 -0.2116
47690SOL    HW148907   7.337   2.930   7.756 -1.0332 -0.1756  0.6200
47690SOL    HW248908   7.334   2.812   7.850  0.2730 -1.3664 -0.7819
47691SOL     OW48909   7.739   5.609   1.298  0.6284 -0.5569 -0.0778
47691SOL    HW148910   7.660   5.578   1.342  0.4772 -1.7966 -1.1567
47691SOL    HW248911   7.732   5.574   1.209  2.5658 -0.9858 -0.0925
47692SOL     OW48912   6.538   4.417   7.307  0.4444 -0.3342 -0.0500
47692SOL    HW148913   6.520   4.333   7.264 -0.5798 -2.2492  3.6391
47692SOL    HW248914   6.453   4.448   7.336  0.9768  1.3121 -0.1399
47693SOL     OW48915  10.221  12.256   3.198  0.1517  0.3080  0.8556
47693SOL    HW148916  10.131  12.274   3.226  0.6241  0.6860  2.1624
47693SOL    HW248917  10.273  12.326   3.237  0.7469  1.5035 -1.8085
47694SOL     OW48918  11.135  10.082   4.814 -0.1938 -0.3528 -0.0758
47694SOL    HW148919  11.144  10.012   4.879  0.9050 -0.4197 -0.2841
47694SOL    HW248920  11.045  10.074   4.783 -0.6127 -0.5843  1.1329
47695SOL     OW48921   7.648  10.214   2.260  0.7917 -0.1225 -0.0482
47695SOL    HW148922   7.717  10.262   2.306 -0.3299 -0.5310  2.1844
47695SOL    HW248923   7.693  10.138   2.223  1.8999  0.7016 -0.4694
47696SOL     OW48924   5.499   1.458  11.963  0.0058  0.0818  0.2485
47696SOL    HW148925   5.411   1.471  11.999 -0.2495  2.9185 -1.1157
47696SOL    HW248926   5.558   1.497  12.028  0.0254  0.3168  0.0925
47697SOL     OW48927   3.146   1.028   6.826  0.1988  0.7348 -0.0937
47697SOL    HW148928   3.096   1.086   6.883 -0.1759  1.2464 -0.9248
47697SOL    HW248929   3.093   1.022   6.746  1.1855  0.8133 -0.7691
47698SOL     OW48930   3.774   3.081   6.688  0.4996  0.2938 -0.1619
47698SOL    HW148931   3.800   3.145   6.622  0.6878 -1.9642 -2.4668
47698SOL    HW248932   3.848   3.021   6.694 -0.4561 -0.8928  0.3143
47699SOL     OW48933   0.610   9.669   9.438 -0.6191  0.1345  0.8180
47699SOL    HW148934   0.516   9.663   9.424 -1.2763  4.1026  2.0930
47699SOL    HW248935   0.621   9.665   9.533  0.1611  1.6755  0.8361
47700SOL     OW48936   8.018   1.684   2.278  0.3038 -0.4454  0.2109
47700SOL    HW148937   8.100   1.732   2.267 -0.5182  0.7653 -1.0333
47700SOL    HW248938   8.000   1.648   2.191 -1.0584  0.3277  0.1405
47701SOL     OW48939   7.928   2.354   1.178  0.2651 -0.1537 -0.4901
47701SOL    HW148940   7.931   2.375   1.271  2.5377  1.1890 -0.8130
47701SOL    HW248941   7.960   2.264   1.173 -1.2022 -0.7422  0.1042
47702SOL     OW48942  10.257   4.698   7.478  0.2737 -0.0555  0.3523
47702SOL    HW148943  10.278   4.685   7.385 -0.8942  0.3169  0.0109
47702SOL    HW248944  10.236   4.611   7.511 -0.1295 -0.0799  0.0403
47703SOL     OW48945   5.316   2.782   6.001  0.3768 -0.4561 -0.0450
47703SOL    HW148946   5.352   2.706   6.048 -0.9771 -0.7613  0.5308
47703SOL    HW248947   5.391   2.816   5.951  2.3633  0.7514  3.3900
47704SOL     OW48948   9.293   7.016   3.020 -0.5793  0.5687 -0.6344
47704SOL    HW148949   9.206   7.046   2.993 -0.6659  0.0445 -0.9630
47704SOL    HW248950   9.354   7.070   2.972 -0.6985 -1.5695 -3.4524
47705SOL     OW48951   8.753   9.196   2.175  0.1219 -0.1922  0.3867
47705SOL    HW148952   8.786   9.186   2.085  0.6383  1.0581  0.4136
47705SOL    HW248953   8.762   9.290   2.193  0.6728 -0.5171  1.9854
47706SOL     OW48954   3.962  10.958   8.784 -0.1316 -0.8571 -0.3670
47706SOL    HW148955   3.938  10.969   8.692 -0.9137 -0.1848 -0.0928
47706SOL    HW248956   4.038  10.900   8.782 -1.3887 -2.5472 -1.3085
47707SOL     OW48957   9.687   3.597   0.984 -0.3046 -0.5038  0.3429
47707SOL    HW148958   9.598   3.591   1.018 -0.6059 -1.3856 -0.5470
47707SOL    HW248959   9.725   3.510   0.998 -0.3071 -0.7794 -1.1366
47708SOL     OW48960   4.412   3.614   3.090  0.2301 -0.2999  0.0527
47708SOL    HW148961   4.347   3.544   3.103  1.2065 -1.1906  0.2559
47708SOL    HW248962   4.408   3.633   2.997 -2.3250  1.6773  0.4436
47709SOL     OW48963   0.908   5.421   9.992  0.1063  0.4876  0.3758
47709SOL    HW148964   0.955   5.466   9.922  1.8844 -1.0933  0.4466
47709SOL    HW248965   0.824   5.397   9.954  0.3831  1.1087 -0.6545
47710SOL     OW48966   2.770   3.670   1.002 -0.3776 -0.3146 -0.0437
47710SOL    HW148967   2.789   3.763   1.010 -3.1803  0.4142 -0.7450
47710SOL    HW248968   2.785   3.635   1.089  0.8186  0.7446  0.2087
47711SOL     OW48969   4.733  10.484  11.309  0.8400 -0.2391  0.7195
47711SOL    HW148970   4.650  10.486  11.261  0.5885 -1.7986  1.0291
47711SOL    HW248971   4.719  10.542  11.384  0.7386  1.0771 -0.2966
47712SOL     OW48972   5.388   6.433   5.516  0.4091 -0.2708  0.7076
47712SOL    HW148973   5.460   6.450   5.455  0.8254 -0.7422  1.0527
47712SOL    HW248974   5.432   6.415   5.600 -0.2053  2.4681  1.6972
47713SOL     OW48975  11.317   1.642   1.312 -0.5558  0.1861  0.2378
47713SOL    HW148976  11.235   1.675   1.349 -0.6937  1.4764 -1.1367
47713SOL    HW248977  11.368   1.720   1.291  1.4481 -0.5971  1.8809
47714SOL     OW48978   3.402   2.302   4.816 -0.1998 -0.1432 -0.0331
47714SOL    HW148979   3.340   2.233   4.840 -0.8560  0.5312  0.2421
47714SOL    HW248980   3.353   2.358   4.755  0.3064  0.1069 -0.2119
47715SOL     OW48981   1.108   8.769   8.984  0.0562  0.1595  0.0640
47715SOL    HW148982   1.157   8.688   8.991 -0.3875 -0.1292 -0.1440
47715SOL    HW248983   1.113   8.792   8.891  1.6714  1.3138  0.3884
47716SOL     OW48984   5.832   8.462   9.468 -0.3838 -0.3082 -0.1829
47716SOL    HW148985   5.811   8.443   9.377  0.9848  0.8334 -0.7736
47716SOL    HW248986   5.875   8.383   9.500 -0.9424 -0.7445 -0.4844
47717SOL     OW48987   3.103   0.751  10.851  0.7851  0.4478  0.3322
47717SOL    HW148988   3.086   0.778  10.761  3.1814 -2.3484 -1.0928
47717SOL    HW248989   3.195   0.774  10.866  1.0751 -1.1635  1.2252
47718SOL     OW48990  11.847   7.254   1.251 -0.3277  0.5080 -0.1003
47718SOL    HW148991  11.782   7.323   1.265  0.5545  1.0030  1.9633
47718SOL    HW248992  11.800   7.185   1.204 -2.0446  1.2629  0.4365
47719SOL     OW48993   0.839   1.227   6.274  0.1265  0.7855 -0.0614
47719SOL    HW148994   0.853   1.155   6.336 -2.3158  1.6945  1.7024
47719SOL    HW248995   0.920   1.230   6.222  2.1287 -0.3638  2.7195
47720SOL     OW48996   5.416   8.466   6.354  0.2181 -0.1371  0.1912
47720SOL    HW148997   5.414   8.392   6.414  0.6802 -0.6631 -0.4192
47720SOL    HW248998   5.509   8.476   6.330  0.0823  0.2399 -0.2090
47721SOL     OW48999   3.353   6.001  10.533 -0.7050 -0.0829 -0.4351
47721SOL    HW149000   3.423   5.953  10.578 -0.8302 -0.9984 -1.1815
47721SOL    HW249001   3.279   5.996  10.593 -0.2942  0.4294  0.1262
47722SOL     OW49002   8.539   4.488   0.547 -0.6761  0.2206 -0.5859
47722SOL    HW149003   8.592   4.460   0.472 -2.0279  0.2194 -1.5698
47722SOL    HW249004   8.568   4.433   0.619  0.3657 -0.0659 -1.2024
47723SOL     OW49005   1.295   1.975   1.718  0.5014 -0.3260  0.1665
47723SOL    HW149006   1.302   1.899   1.775 -0.2729 -1.9198 -1.7682
47723SOL    HW249007   1.202   1.998   1.718  0.7432  0.7606  0.8472
47724SOL     OW49008  12.213   1.123   5.122  0.3301  0.0630  0.0893
47724SOL    HW149009  12.177   1.065   5.189  1.0495 -0.3392  0.1346
47724SOL    HW249010  12.212   1.210   5.162  0.5464 -0.1404  0.5310
47725SOL     OW49011   9.952   2.833   5.201  0.1905 -0.3832  0.2692
47725SOL    HW149012   9.918   2.842   5.112  0.3859 -2.3554 -0.0476
47725SOL    HW249013   9.963   2.739   5.213  3.3110 -0.0146  1.2024
47726SOL     OW49014   8.923   7.834  10.506  0.0847 -0.2508 -0.6003
47726SOL    HW149015   8.897   7.838  10.414 -1.2051  1.1926 -0.2047
47726SOL    HW249016   8.871   7.762  10.542 -0.6665  0.2590 -0.6431
47727SOL     OW49017   7.066   7.379   0.626 -0.3555 -0.5270  0.5822
47727SOL    HW149018   7.102   7.302   0.583  0.1139 -0.0045  0.0246
47727SOL    HW249019   7.129   7.449   0.608 -2.0344  0.6548 -1.2208
47728SOL     OW49020   9.936   5.312   4.312  0.5680 -0.1456 -0.7385
47728SOL    HW149021   9.849   5.291   4.347  0.1548  0.6607 -1.2611
47728SOL    HW249022   9.985   5.346   4.387  0.3872 -0.4680 -0.4745
47729SOL     OW49023   9.767   2.396  10.975 -0.0531 -0.2563 -0.0758
47729SOL    HW149024   9.817   2.450  11.036 -0.6246 -0.0369  0.2088
47729SOL    HW249025   9.686   2.446  10.961 -0.9424 -1.3926  0.8010
47730SOL     OW49026   4.339   2.710   5.462 -0.1124  0.1366  1.0920
47730SOL    HW149027   4.364   2.766   5.388  0.5917  0.5432  1.6280
47730SOL    HW249028   4.308   2.629   5.421 -1.0123  0.8487  0.3038
47731SOL     OW49029   3.753   8.971  11.511 -0.2474  0.6189  0.2721
47731SOL    HW149030   3.799   9.037  11.459 -0.8735 -0.0044 -1.1219
47731SOL    HW249031   3.691   9.021  11.564  0.4371  1.2724  0.4724
47732SOL     OW49032   0.203   1.518   2.612 -1.0933 -0.4140 -0.6315
47732SOL    HW149033   0.109   1.523   2.628 -0.7643  0.9201  1.1720
47732SOL    HW249034   0.215   1.562   2.527 -2.1606 -1.3532 -1.2902
47733SOL     OW49035   6.750  11.782  10.608 -0.2658  0.1279 -0.2602
47733SOL    HW149036   6.701  11.862  10.628 -1.1371 -0.4039 -0.2183
47733SOL    HW249037   6.838  11.813  10.586 -0.4531  1.0580  0.2370
47734SOL     OW49038  11.119   5.811   2.857  0.0766 -0.4922  0.1850
47734SOL    HW149039  11.104   5.876   2.925  0.7209 -1.2974  1.1243
47734SOL    HW249040  11.151   5.733   2.904 -0.1260 -1.2990 -0.9589
47735SOL     OW49041   7.294  11.134   6.208  0.2804 -0.2531  0.0557
47735SOL    HW149042   7.234  11.079   6.158 -0.6917 -0.3116  1.2471
47735SOL    HW249043   7.319  11.204   6.147 -1.5356  0.1627 -0.2585
47736SOL     OW49044   2.362  10.238   1.314  0.4575  0.1074  0.1162
47736SOL    HW149045   2.417  10.293   1.371 -1.2104  0.4756  1.4676
47736SOL    HW249046   2.272  10.258   1.342 -0.4451  0.1973 -2.5993
47737SOL     OW49047   7.839   9.542   9.255  0.1781 -0.1361  0.2238
47737SOL    HW149048   7.792   9.558   9.174 -0.6103 -0.5917  0.5829
47737SOL    HW249049   7.775   9.502   9.313  1.0456 -0.9134  0.6750
47738SOL     OW49050   7.464   2.970   4.357  0.4380  0.2945 -0.4540
47738SOL    HW149051   7.465   3.062   4.384 -1.2671  0.2217 -0.0184
47738SOL    HW249052   7.385   2.962   4.303  0.7673 -0.8430 -0.7910
47739SOL     OW49053   5.096   5.356   2.221  0.9679  0.2636 -0.4799
47739SOL    HW149054   5.178   5.327   2.181  0.2589 -2.2445 -0.2275
47739SOL    HW249055   5.058   5.416   2.157  2.1677  0.1595 -1.3327
47740SOL     OW49056  11.515   3.202   2.609 -0.0444  0.0657 -0.0821
47740SOL    HW149057  11.584   3.208   2.674 -0.6742  1.0804  0.5073
47740SOL    HW249058  11.561   3.213   2.525  0.4733  1.0453  0.3159
47741SOL     OW49059   2.029   1.847  11.686  0.8007  0.1016  0.1470
47741SOL    HW149060   2.078   1.887  11.614  0.1829 -0.0201 -0.3530
47741SOL    HW249061   2.096   1.805  11.740  1.1622 -1.1298 -1.2019
47742SOL     OW49062   9.894   9.535   7.389 -0.4029  0.0127 -0.0452
47742SOL    HW149063   9.822   9.544   7.326  0.3727  0.0480 -0.9476
47742SOL    HW249064   9.948   9.612   7.375  0.1061 -0.2826  0.2410
47743SOL     OW49065   0.973   4.254   2.709  0.1629 -0.0980 -0.2326
47743SOL    HW149066   0.881   4.237   2.726  0.6138 -2.0432  0.4908
47743SOL    HW249067   1.006   4.174   2.667  1.3466  0.8787 -1.2576
47744SOL     OW49068   1.003   2.809   6.244 -0.6867 -0.3269 -0.6477
47744SOL    HW149069   0.950   2.822   6.165  0.9281  1.5702 -1.4850
47744SOL    HW249070   1.091   2.837   6.219  0.0454 -0.4308  1.6123
47745SOL     OW49071  12.330   6.883   7.405  0.0905  0.1774 -0.0292
47745SOL    HW149072  12.276   6.866   7.482 -0.8285 -0.0598 -0.7071
47745SOL    HW249073  12.412   6.837   7.423 -0.5126 -0.7927  0.3498
47746SOL     OW49074   6.327   2.551   5.757  0.1306 -0.1598  0.0175
47746SOL    HW149075   6.260   2.614   5.731  0.4904 -0.1601 -0.9601
47746SOL    HW249076   6.369   2.590   5.834 -0.4710  0.2012  0.1617
47747SOL     OW49077  11.132  12.170   5.965 -0.6443 -0.5578 -0.7585
47747SOL    HW149078  11.200  12.196   5.902 -1.7806 -0.1152 -1.8620
47747SOL    HW249079  11.049  12.186   5.918 -1.5220 -0.6887  0.6861
47748SOL     OW49080   7.647   8.389  12.190 -0.7152  0.8549 -0.2774
47748SOL    HW149081   7.569   8.370  12.242 -0.5517  0.1684 -0.2723
47748SOL    HW249082   7.707   8.430  12.251 -0.8292  0.7922 -0.1222
47749SOL     OW49083  10.576   9.281   2.302 -0.3314  0.2966 -0.3336
47749SOL    HW149084  10.524   9.344   2.252 -2.5210 -0.0420  1.3531
47749SOL    HW249085  10.627   9.335   2.363  0.6976  0.5881 -1.4230
47750SOL     OW49086  12.059   6.818   0.571 -0.1009 -0.0226 -0.1763
47750SOL    HW149087  12.012   6.735   0.576 -0.9443  0.5044  1.2520
47750SOL    HW249088  12.125   6.805   0.502  0.1637 -2.0660  0.4115
47751SOL     OW49089   7.333   6.992   2.754 -0.4932  0.0546  0.4860
47751SOL    HW149090   7.366   6.929   2.690 -0.1448 -0.4260  1.1166
47751SOL    HW249091   7.280   7.053   2.703 -0.9959 -0.8559 -0.1222
47752SOL     OW49092   6.111   4.465   3.392  0.6009  0.0258  0.2993
47752SOL    HW149093   6.023   4.498   3.374  0.2562 -1.7736 -1.6255
47752SOL    HW249094   6.161   4.544   3.414 -1.1575  1.2606  0.1607
47753SOL     OW49095   6.280   6.749  11.187 -0.6365 -0.4038 -0.0444
47753SOL    HW149096   6.247   6.662  11.209  1.7473 -1.4980 -0.4414
47753SOL    HW249097   6.334   6.773  11.262  0.7750 -0.4418 -1.0136
47754SOL     OW49098   2.524  10.674  11.518  0.4759  0.3341  0.3551
47754SOL    HW149099   2.458  10.734  11.484  0.7316  0.7352  0.5632
47754SOL    HW249100   2.598  10.730  11.541  1.5769 -0.2926 -1.5029
47755SOL     OW49101   4.638   5.889   5.323 -0.1077  0.0246 -0.3367
47755SOL    HW149102   4.669   5.816   5.378  2.2204  2.1958  1.4949
47755SOL    HW249103   4.614   5.957   5.386  1.7884  2.3123 -1.9194
47756SOL     OW49104   7.995   2.620   8.062  0.0468 -0.0057  0.5014
47756SOL    HW149105   8.067   2.582   8.013  0.4754  0.7249  0.5548
47756SOL    HW249106   7.965   2.549   8.120 -1.1105 -1.2135 -1.4572
47757SOL     OW49107   9.662   8.255   2.850  0.0284  0.6646 -0.1639
47757SOL    HW149108   9.610   8.323   2.893 -2.8644 -1.8636  0.7079
47757SOL    HW249109   9.740   8.246   2.904 -0.1630  2.3675  0.4407
47758SOL     OW49110   7.215   1.243   1.723 -0.2451 -0.5595  0.2352
47758SOL    HW149111   7.244   1.172   1.666 -0.2917 -0.9626  0.7020
47758SOL    HW249112   7.293   1.297   1.737  0.0711 -1.1435  0.7753
47759SOL     OW49113  11.393   2.972   0.203 -0.2055  0.4761  0.2880
47759SOL    HW149114  11.332   3.015   0.143 -0.8190  2.7883  2.3934
47759SOL    HW249115  11.337   2.934   0.270  0.5522 -0.1122  0.5950
47760SOL     OW49116  10.599   0.135   7.502  0.0101 -0.0288  0.3360
47760SOL    HW149117  10.631   0.210   7.452  1.3879 -2.1961 -2.3226
47760SOL    HW249118  10.504   0.142   7.500  0.1004  1.0365 -0.8443
47761SOL     OW49119   9.964   2.773  12.081  0.4183  0.2845 -0.1821
47761SOL    HW149120   9.991   2.827  12.155 -0.2396  1.1809 -0.5860
47761SOL    HW249121   9.921   2.833  12.021 -0.9544 -0.8081 -0.3392
47762SOL     OW49122   0.929   9.388   8.493  0.5930 -0.5562  0.4479
47762SOL    HW149123   0.849   9.362   8.539  0.1169  2.1567  1.3220
47762SOL    HW249124   0.933   9.328   8.418 -2.4091 -0.6507  0.2155
47763SOL     OW49125   0.916   9.652   1.196  0.6982  0.2354 -0.6672
47763SOL    HW149126   0.831   9.641   1.153  0.5809 -0.0261 -0.3659
47763SOL    HW249127   0.916   9.587   1.266  0.6954  0.9783  0.0331
47764SOL     OW49128   8.568   1.020   8.509  0.2460 -0.5048 -0.3924
47764SOL    HW149129   8.518   0.977   8.440 -0.9333  0.4758 -0.1937
47764SOL    HW249130   8.650   0.971   8.515 -0.1174 -1.2968 -1.6940
47765SOL     OW49131  10.381  10.695   6.292 -0.4114 -0.1559 -0.0365
47765SOL    HW149132  10.333  10.612   6.302 -0.4822 -0.1319 -0.1753
47765SOL    HW249133  10.450  10.676   6.229 -0.7137  0.0099 -0.4281
47766SOL     OW49134   9.769  10.263   7.269  0.4714 -0.4265 -0.2277
47766SOL    HW149135   9.682  10.255   7.229 -0.3141 -0.5111  1.4360
47766SOL    HW249136   9.828  10.271   7.194 -1.1816  2.0957 -1.4122
47767SOL     OW49137  10.731   8.417   1.863  0.6276  0.3785 -0.0787
47767SOL    HW149138  10.659   8.468   1.900  1.1266  1.0184  0.0219
47767SOL    HW249139  10.695   8.330   1.851 -0.2063  0.7283 -0.1558
47768SOL     OW49140  12.075   0.380  10.589  0.0616  0.1627 -0.3895
47768SOL    HW149141  12.068   0.438  10.513 -1.4749 -0.2849 -0.6356
47768SOL    HW249142  12.155   0.330  10.574 -0.9512 -0.9693 -2.5115
47769SOL     OW49143   4.111   1.070   4.306  0.2316 -0.2611  0.2503
47769SOL    HW149144   4.025   1.056   4.265 -0.1382  0.3175  0.8065
47769SOL    HW249145   4.111   1.012   4.383  0.7204 -0.9621 -0.2638
47770SOL     OW49146   6.058   5.458   7.156  0.5275 -0.6132 -0.2485
47770SOL    HW149147   6.042   5.551   7.138 -0.0520 -0.2624  1.8470
47770SOL    HW249148   5.974   5.416   7.137  0.4650 -0.5336 -0.1516
47771SOL     OW49149   1.134   2.241   2.148 -0.2779  0.2497 -0.5024
47771SOL    HW149150   1.075   2.211   2.079 -0.2178 -2.1075  0.4033
47771SOL    HW249151   1.076   2.280   2.214 -0.7869 -1.2436 -0.0305
47772SOL     OW49152  11.784   1.082   6.912 -0.0552  0.2365 -0.3433
47772SOL    HW149153  11.754   1.122   6.994 -0.6063  0.9879 -0.8976
47772SOL    HW249154  11.779   0.988   6.928 -1.1391  0.3626  0.1489
47773SOL     OW49155   0.363   4.724  10.495 -0.2187  0.9057 -0.3775
47773SOL    HW149156   0.404   4.790  10.439  1.7369  1.4249  1.5357
47773SOL    HW249157   0.366   4.762  10.583 -0.6046 -1.0324  0.5239
47774SOL     OW49158   9.410  11.882  11.733 -0.2857 -0.0807  0.4622
47774SOL    HW149159   9.383  11.841  11.815 -1.2321  0.5761  0.5062
47774SOL    HW249160   9.343  11.949  11.718 -1.0394 -1.2189 -1.6421
47775SOL     OW49161   5.919  11.499   6.794  0.7464  0.0732 -0.1876
47775SOL    HW149162   5.966  11.419   6.817  0.7385  0.2248  0.3621
47775SOL    HW249163   5.912  11.496   6.699 -2.6131 -2.4849 -0.0211
47776SOL     OW49164   2.220   0.428  11.229 -0.5189 -0.1386  0.0708
47776SOL    HW149165   2.217   0.510  11.178 -0.7443 -0.0159  0.2782
47776SOL    HW249166   2.296   0.438  11.286 -0.8205  0.1268  0.4281
47777SOL     OW49167   9.893  12.038   4.447  0.1751  0.7620 -0.4907
47777SOL    HW149168   9.988  12.053   4.441  0.3309  0.7029  1.3157
47777SOL    HW249169   9.856  12.098   4.382  1.4193  1.0573 -0.9690
47778SOL     OW49170   9.336   9.190   3.156 -0.6207 -0.2365  0.0605
47778SOL    HW149171   9.274   9.150   3.095 -1.2776  1.2360 -0.2647
47778SOL    HW249172   9.416   9.202   3.105 -0.8663  0.1411 -0.2318
47779SOL     OW49173   9.767   9.912   8.468  0.3975 -0.3078  0.4035
47779SOL    HW149174   9.846   9.869   8.502  0.4892 -0.1632  0.3715
47779SOL    HW249175   9.731   9.958   8.543  2.0443  2.2326 -0.2346
47780SOL     OW49176   4.390   6.535   0.965 -0.2649 -0.3535 -0.3034
47780SOL    HW149177   4.417   6.627   0.969 -1.4393 -0.0359  1.3944
47780SOL    HW249178   4.441   6.492   1.034 -2.1692 -0.2510  1.2302
47781SOL     OW49179   4.642   4.524   5.981  0.3443  0.1345 -0.0020
47781SOL    HW149180   4.713   4.461   5.991 -0.0158 -0.2281  0.2904
47781SOL    HW249181   4.600   4.498   5.898 -0.4134 -0.6373  0.6043
47782SOL     OW49182  12.258   7.663   0.873  0.4306  0.1079 -0.4452
47782SOL    HW149183  12.196   7.591   0.867 -0.3855  0.2806  3.3427
47782SOL    HW249184  12.342   7.621   0.891  0.3004  0.0034 -0.0575
47783SOL     OW49185   6.709   1.382  12.275 -0.0359  0.2156  0.2500
47783SOL    HW149186   6.778   1.444  12.298 -1.5842  2.0330  0.1834
47783SOL    HW249187   6.659   1.371  12.356 -0.6114  0.1610 -0.1136
47784SOL     OW49188   8.799  10.260   4.167  0.0043 -0.1702 -0.0015
47784SOL    HW149189   8.710  10.293   4.175  0.0353 -0.4910  2.2925
47784SOL    HW249190   8.823  10.232   4.255  1.9066 -1.3369 -0.8077
47785SOL     OW49191  11.284   0.417   4.089  0.5234 -0.4139 -0.1808
47785SOL    HW149192  11.274   0.389   4.180 -0.6940  0.5911  0.0283
47785SOL    HW249193  11.209   0.475   4.074 -0.4751 -2.1434 -2.4316
47786SOL     OW49194   9.497   6.845   3.248  0.3987 -0.0019  0.2255
47786SOL    HW149195   9.411   6.812   3.274 -0.3581  2.9521  1.9337
47786SOL    HW249196   9.485   6.876   3.158  0.4537 -1.8605 -0.4743
47787SOL     OW49197   8.852   8.197   0.421 -0.1559  0.2658  0.2849
47787SOL    HW149198   8.886   8.108   0.413 -1.2810 -0.2395  0.8703
47787SOL    HW249199   8.857   8.233   0.333  1.8015  0.2076  0.3340
47788SOL     OW49200   0.464  10.759   4.481 -0.4361  0.0100 -0.1615
47788SOL    HW149201   0.463  10.826   4.549 -0.7134 -1.3889  1.2895
47788SOL    HW249202   0.382  10.710   4.495  0.0499 -1.0008 -0.7653
47789SOL     OW49203   8.732   6.791   4.825 -0.2967 -0.5678 -0.0623
47789SOL    HW149204   8.808   6.814   4.878  1.7441 -1.9506 -2.1270
47789SOL    HW249205   8.709   6.702   4.853 -1.5037  0.0175  0.8731
47790SOL     OW49206   3.409   6.673  12.272  0.2143  0.0498  0.8400
47790SOL    HW149207   3.362   6.654  12.191  0.3271  0.4751  0.6695
47790SOL    HW249208   3.343   6.708  12.331 -0.2133 -1.8060  1.5204
47791SOL     OW49209   6.813   0.120   1.529 -0.1508 -0.1247  0.3824
47791SOL    HW149210   6.815   0.172   1.609 -1.8667 -0.2565  0.5569
47791SOL    HW249211   6.862   0.171   1.465  2.1890 -0.5163  1.7538
47792SOL     OW49212   1.452   4.393   2.571  0.4652 -0.7834  0.3386
47792SOL    HW149213   1.478   4.350   2.652  2.6677  1.5300  0.9664
47792SOL    HW249214   1.360   4.416   2.585  0.2475 -2.1420  1.3520
47793SOL     OW49215   6.056   2.679   9.700 -0.0984 -0.1412 -0.2461
47793SOL    HW149216   6.006   2.757   9.676  0.1379 -0.4676 -1.9424
47793SOL    HW249217   6.082   2.694   9.791 -1.9835  0.7069  0.1996
47794SOL     OW49218   8.767   5.697   3.110 -0.0230 -0.1209  0.2907
47794SOL    HW149219   8.752   5.716   3.017  1.8326  0.4091  0.0582
47794SOL    HW249220   8.751   5.780   3.154 -0.0533 -0.1489  0.3320
47795SOL     OW49221  12.282  10.756   1.836 -0.0585  0.2706 -0.2319
47795SOL    HW149222  12.285  10.800   1.751 -1.3992 -2.0213 -1.5920
47795SOL    HW249223  12.203  10.701   1.831  0.6665 -1.0727  1.8902
47796SOL     OW49224   8.958   0.942   8.022 -0.3001 -0.3036  0.4371
47796SOL    HW149225   8.987   1.030   8.046 -0.6856 -0.3100  0.9693
47796SOL    HW249226   9.035   0.887   8.034  0.3569  0.1871 -1.3510
47797SOL     OW49227   0.235  10.564   4.487 -0.0346  0.4200 -0.0777
47797SOL    HW149228   0.204  10.514   4.411  1.7273  1.3354 -1.4710
47797SOL    HW249229   0.265  10.497   4.548  1.2667 -0.3395 -1.4527
47798SOL     OW49230   5.159   1.328   5.312 -0.2368 -0.2570 -0.1658
47798SOL    HW149231   5.159   1.306   5.219 -3.7320  1.2340 -0.6882
47798SOL    HW249232   5.131   1.248   5.356  0.6737 -0.7476 -0.4642
47799SOL     OW49233   2.874   0.623  11.461 -0.5544  1.2035 -0.4323
47799SOL    HW149234   2.813   0.579  11.521 -0.4894  2.6960  0.7901
47799SOL    HW249235   2.884   0.711  11.498  2.4868  0.9615 -0.4943
47800SOL     OW49236   5.323   9.145   6.524  0.2356  0.4068 -0.3083
47800SOL    HW149237   5.341   9.063   6.569 -1.1392 -0.0934 -0.6184
47800SOL    HW249238   5.228   9.149   6.518  0.2788  2.0371 -0.2983
47801SOL     OW49239   3.866   4.612   2.449 -0.6803 -0.1696  0.4375
47801SOL    HW149240   3.849   4.609   2.543  1.1738  0.9233  0.8766
47801SOL    HW249241   3.822   4.536   2.413 -1.6801 -0.4383  2.1515
47802SOL     OW49242   8.054  11.303  11.036 -0.2812  0.2545 -0.0976
47802SOL    HW149243   8.078  11.263  11.119  0.4693 -1.3657 -1.0515
47802SOL    HW249244   8.095  11.248  10.969 -2.1008  0.6179 -1.6176
47803SOL     OW49245   2.601   7.206   7.627  0.1475 -0.3475 -0.6706
47803SOL    HW149246   2.641   7.253   7.554 -1.7604  1.3750 -0.7033
47803SOL    HW249247   2.509   7.231   7.624 -0.5264 -2.3545  0.7332
47804SOL     OW49248   6.986   8.527  11.058  0.5496  0.1257 -0.1947
47804SOL    HW149249   7.051   8.464  11.027  1.9431  0.9898  0.8516
47804SOL    HW249250   6.915   8.522  10.994 -0.1515 -3.5974  0.5865
47805SOL     OW49251  10.274   3.367   8.020 -0.1654 -0.5660 -0.4336
47805SOL    HW149252  10.368   3.365   8.002 -0.1411 -1.7391 -0.2608
47805SOL    HW249253  10.234   3.327   7.943 -0.5125 -0.2683 -0.4107
47806SOL     OW49254   7.152   1.443  12.167 -0.2129 -0.2093 -0.0829
47806SOL    HW149255   7.093   1.486  12.229  0.3652  0.0507  0.3055
47806SOL    HW249256   7.095   1.390  12.111 -1.0106  1.5111 -0.9608
47807SOL     OW49257   2.389   7.908   6.938  0.5089 -0.5800  0.6853
47807SOL    HW149258   2.475   7.868   6.948  0.8879  0.4517  1.6847
47807SOL    HW249259   2.358   7.922   7.027 -0.1740  0.1599  0.3463
47808SOL     OW49260   6.901   8.639   0.720 -0.0360 -0.0497 -0.1755
47808SOL    HW149261   6.961   8.675   0.655 -1.1436 -0.3562 -1.4323
47808SOL    HW249262   6.817   8.680   0.700 -0.3636 -0.0056  1.2103
47809SOL     OW49263   8.244   9.309   7.596  0.4932 -0.5839  0.0509
47809SOL    HW149264   8.160   9.303   7.641  0.1312 -2.9036 -0.8128
47809SOL    HW249265   8.234   9.383   7.537  0.0564  0.8658  1.8523
47810SOL     OW49266   2.891   3.894   9.624 -0.0127  0.4630 -0.4755
47810SOL    HW149267   2.858   3.962   9.564 -1.8168  0.4522  0.4252
47810SOL    HW249268   2.855   3.813   9.590 -1.3022  0.4890  0.7184
47811SOL     OW49269   9.295   7.352   9.035 -0.2800  0.5164  0.1809
47811SOL    HW149270   9.276   7.439   8.998  0.2720  0.4486 -0.2885
47811SOL    HW249271   9.302   7.367   9.129 -0.3486  0.9527  0.1203
47812SOL     OW49272   5.296   2.385   9.189 -0.2079  0.6606 -0.0482
47812SOL    HW149273   5.280   2.340   9.272 -0.2825  0.1364 -0.3431
47812SOL    HW249274   5.220   2.362   9.135  1.2772 -1.5834 -1.3509
47813SOL     OW49275   6.112   0.435   8.396 -0.0399 -0.2236  0.2486
47813SOL    HW149276   6.118   0.467   8.306 -2.0828  1.0533  0.5055
47813SOL    HW249277   6.084   0.344   8.388 -0.9412  0.1027 -0.4058
47814SOL     OW49278   1.998  11.753   9.985  0.2539 -0.1198 -0.1303
47814SOL    HW149279   1.943  11.831   9.988 -0.0419 -0.3257 -0.2261
47814SOL    HW249280   2.034  11.753   9.896 -0.4520 -0.5811 -0.4165
47815SOL     OW49281  10.184   0.312   2.909  0.4593 -0.5249 -0.2574
47815SOL    HW149282  10.151   0.238   2.857 -0.8190 -0.9552  1.1034
47815SOL    HW249283  10.279   0.305   2.902  0.3420 -1.4697 -1.2757
47816SOL     OW49284   1.051   0.886   7.832 -0.1468  0.5885  0.1227
47816SOL    HW149285   1.131   0.860   7.878 -0.4489 -1.2055 -0.2930
47816SOL    HW249286   1.013   0.954   7.889  1.3372  1.0698  0.6223
47817SOL     OW49287   2.613   4.980   6.582  0.8973 -0.1160 -0.1878
47817SOL    HW149288   2.576   4.999   6.497  1.3110 -0.1537 -0.3806
47817SOL    HW249289   2.542   4.996   6.644  0.0765 -1.7412 -0.6745
47818SOL     OW49290  10.796   7.854   7.485  0.0963  0.2373 -0.1934
47818SOL    HW149291  10.711   7.851   7.529 -0.0158  1.4761 -0.2982
47818SOL    HW249292  10.776   7.835   7.393 -0.2443  1.5984 -0.4240
47819SOL     OW49293   9.104   0.647   1.061 -0.1725  0.6151 -0.2267
47819SOL    HW149294   9.032   0.661   0.999  0.1215 -0.4757 -0.8347
47819SOL    HW249295   9.163   0.587   1.016  2.3022  3.1694 -0.6519
47820SOL     OW49296   6.816   1.823   9.361  0.0212  0.0974 -0.0616
47820SOL    HW149297   6.855   1.749   9.408  0.0267 -0.4967 -0.9696
47820SOL    HW249298   6.880   1.845   9.293 -0.0999  0.7671  0.0404
47821SOL     OW49299   1.339   1.671   8.904 -0.0723  0.8201  0.3996
47821SOL    HW149300   1.350   1.652   8.997  3.5443 -1.2787 -0.2632
47821SOL    HW249301   1.273   1.609   8.874  1.2056 -0.9471  1.0354
47822SOL     OW49302   3.743   5.995   9.652 -0.0114  0.4688 -0.5826
47822SOL    HW149303   3.814   6.058   9.660  0.3157 -0.0972  1.6064
47822SOL    HW249304   3.765   5.943   9.575  1.2649  1.1212 -0.6770
47823SOL     OW49305   9.551   5.983   4.877 -0.3319 -0.4462  0.5033
47823SOL    HW149306   9.474   6.028   4.843 -0.3018 -0.3769  0.5261
47823SOL    HW249307   9.524   5.891   4.884 -1.0151 -0.1538  2.2066
47824SOL     OW49308  11.672   3.221   0.845  0.4626  0.1732  0.0986
47824SOL    HW149309  11.611   3.151   0.824  0.1344  0.2190  0.8495
47824SOL    HW249310  11.749   3.205   0.790 -0.6188  0.7032 -1.6195
47825SOL     OW49311   0.566   1.559   6.577 -0.3952  0.4726  0.4957
47825SOL    HW149312   0.506   1.626   6.610  0.0735  0.6009  1.1035
47825SOL    HW249313   0.646   1.607   6.557  0.6368 -0.1688  2.8127
47826SOL     OW49314  12.319   0.709   6.025  0.3541 -0.1526 -0.1574
47826SOL    HW149315  12.299   0.653   5.950 -0.4205  0.5102 -0.4657
47826SOL    HW249316  12.356   0.788   5.986 -0.8512  0.5552  0.0598
47827SOL     OW49317   7.476   4.671   6.367 -0.0707 -0.1997  0.0485
47827SOL    HW149318   7.397   4.653   6.317  0.0522  0.1858 -0.2926
47827SOL    HW249319   7.527   4.730   6.311  0.3338 -0.2292  0.3785
47828SOL     OW49320   4.550   6.077   5.522 -0.3161 -0.1905 -0.0455
47828SOL    HW149321   4.495   6.069   5.600  1.4428  3.2347  1.7590
47828SOL    HW249322   4.503   6.139   5.466 -0.1811 -0.3696 -0.3602
47829SOL     OW49323   3.847  10.201   2.902 -0.2501  0.1608 -0.1429
47829SOL    HW149324   3.802  10.222   2.983 -0.9616  0.2806 -0.5641
47829SOL    HW249325   3.886  10.283   2.873  2.3276 -0.3704  1.4432
47830SOL     OW49326   3.967   2.179   5.541  0.3571  0.0889  0.6274
47830SOL    HW149327   3.906   2.106   5.550  0.0998  0.2653  0.3708
47830SOL    HW249328   4.050   2.146   5.574  0.1108 -0.1439  1.0188
47831SOL     OW49329   7.999   3.142  11.423 -0.0015 -0.1724  0.6890
47831SOL    HW149330   7.968   3.230  11.445  0.4046 -0.1287  1.1304
47831SOL    HW249331   7.922   3.086  11.430 -0.2262  0.1227  0.5759
47832SOL     OW49332   9.441  11.057   6.650 -0.1390  0.0022  0.1049
47832SOL    HW149333   9.410  11.145   6.630 -1.2026 -0.3788  0.0282
47832SOL    HW249334   9.364  11.012   6.685  0.3511 -0.9531 -0.0282
47833SOL     OW49335  11.963   0.920   9.069  0.1976 -0.0099 -0.4794
47833SOL    HW149336  11.900   0.980   9.110  0.4540 -0.7817  1.1321
47833SOL    HW249337  12.017   0.977   9.014 -1.6233  0.7274 -1.5950
47834SOL     OW49338   5.457   9.089   1.060  0.0345  0.6601  0.1152
47834SOL    HW149339   5.492   9.008   1.023 -0.3975  0.6638 -0.3215
47834SOL    HW249340   5.511   9.106   1.137 -0.9836 -1.0186  1.2689
47835SOL     OW49341   4.634   7.628   7.977 -0.0665 -0.6157  0.1743
47835SOL    HW149342   4.544   7.642   8.005 -0.2277 -0.4163 -0.4312
47835SOL    HW249343   4.662   7.549   8.023 -0.6832 -0.9115  0.0519
47836SOL     OW49344   5.912   6.767   9.555 -0.1273 -0.6187 -0.4892
47836SOL    HW149345   5.878   6.856   9.563 -0.1408 -0.6489 -0.1701
47836SOL    HW249346   5.841   6.718   9.513 -0.3048 -0.5793 -0.2415
47837SOL     OW49347   3.844   9.255   1.669  0.1798  0.2151  0.6982
47837SOL    HW149348   3.804   9.326   1.719  0.0096 -1.1545  2.6356
47837SOL    HW249349   3.787   9.180   1.685  2.5559 -1.4123  2.2530
47838SOL     OW49350   1.925   2.716  10.968 -0.0017  0.3462  0.3243
47838SOL    HW149351   1.916   2.692  11.060  1.6300 -1.4266  0.1008
47838SOL    HW249352   1.960   2.805  10.970 -1.9515  1.1490  1.3272
47839SOL     OW49353   6.697   6.473   7.726 -0.0211  0.2082  0.0826
47839SOL    HW149354   6.760   6.496   7.657 -0.1242 -1.1942 -0.5098
47839SOL    HW249355   6.621   6.527   7.708 -0.0304 -0.1095 -0.8988
47840SOL     OW49356   5.336   9.021   4.849 -0.3901 -0.2516 -0.2146
47840SOL    HW149357   5.296   8.979   4.925 -1.0928  1.2514  0.2851
47840SOL    HW249358   5.338   9.114   4.872  1.6263 -0.0459 -1.0418
47841SOL     OW49359   7.295   8.131   9.233  0.1231 -0.2950 -0.2133
47841SOL    HW149360   7.242   8.182   9.172  0.0030 -1.7737 -1.4209
47841SOL    HW249361   7.231   8.077   9.280  0.4699 -1.7628 -1.3586
47842SOL     OW49362   1.786   1.485  12.230  0.0202  0.2502 -0.3921
47842SOL    HW149363   1.860   1.530  12.271 -0.2642  1.5222 -1.2045
47842SOL    HW249364   1.820   1.458  12.144 -0.0630 -0.3785 -0.2318
47843SOL     OW49365   9.422  11.415   6.496  0.1176 -0.2018  0.0252
47843SOL    HW149366   9.376  11.492   6.530  1.0689 -0.2150  1.3968
47843SOL    HW249367   9.514  11.429   6.519  0.6010 -0.9086 -1.3138
47844SOL     OW49368   2.634  11.449   1.686  0.0908  0.2330  0.2007
47844SOL    HW149369   2.605  11.440   1.595  0.3956 -1.6006  0.2286
47844SOL    HW249370   2.612  11.539   1.710 -0.3556  0.6363 -1.5553
47845SOL     OW49371   4.497   2.408   1.133 -0.5662  0.0025 -0.3247
47845SOL    HW149372   4.574   2.411   1.189 -1.3537 -1.7516  0.9722
47845SOL    HW249373   4.510   2.331   1.078 -1.0670  0.1013 -0.5897
47846SOL     OW49374  12.280   8.048   0.607  0.3743  0.2677 -0.1354
47846SOL    HW149375  12.299   8.132   0.565  0.6838  0.3221  0.1182
47846SOL    HW249376  12.224   8.002   0.543  0.9379  0.3030 -0.6721
47847SOL     OW49377   7.752   7.857   3.952  0.4353  0.2045  0.4037
47847SOL    HW149378   7.771   7.933   3.898  0.5991  0.2486  0.5232
47847SOL    HW249379   7.834   7.838   3.998  0.2304  0.3145  0.8189
47848SOL     OW49380   1.930   0.863   6.269  0.4272  0.1056 -0.1675
47848SOL    HW149381   1.947   0.880   6.177  1.1064 -0.4388 -0.1523
47848SOL    HW249382   1.882   0.780   6.270  1.5446 -0.5613  0.0230
47849SOL     OW49383   7.211   5.193   5.718 -0.0190  0.4234  0.6100
47849SOL    HW149384   7.124   5.221   5.748 -0.6233 -2.7584  2.2725
47849SOL    HW249385   7.193   5.128   5.649  1.0061 -0.2618  0.9594
47850SOL     OW49386  12.255   9.842   1.989  0.2685 -0.4343 -0.6280
47850SOL    HW149387  12.189   9.894   2.035 -0.9031 -1.0286 -1.5797
47850SOL    HW249388  12.286   9.897   1.918  0.9763 -0.0834 -0.0696
47851SOL     OW49389  11.674   9.232   9.167 -0.3401 -0.2919 -0.7084
47851SOL    HW149390  11.682   9.325   9.189 -0.0853 -0.7842  1.5244
47851SOL    HW249391  11.592   9.205   9.206 -0.7000 -0.9078 -1.8475
47852SOL     OW49392   4.851   5.219  10.304 -0.3676 -0.0442 -0.0957
47852SOL    HW149393   4.772   5.184  10.262  0.1226 -1.7515  0.3373
47852SOL    HW249394   4.924   5.182  10.253  0.1839 -0.5029  0.9916
47853SOL     OW49395  11.946   7.623   9.301 -0.3651 -0.2516  0.4280
47853SOL    HW149396  12.022   7.583   9.342  0.5647  1.2417  0.2346
47853SOL    HW249397  11.954   7.602   9.208  0.0712  0.2764  0.3409
47854SOL     OW49398   4.139   2.141   7.688  1.0843 -0.0371 -0.4378
47854SOL    HW149399   4.212   2.127   7.748  0.2910 -1.2408  0.2957
47854SOL    HW249400   4.111   2.053   7.664 -0.1057  0.4056 -0.7350
47855SOL     OW49401   5.964   4.880   1.118 -0.4235  0.4863  0.4047
47855SOL    HW149402   5.931   4.965   1.145 -0.6011  0.8976 -1.0432
47855SOL    HW249403   5.891   4.840   1.070 -0.6064 -0.8030  1.6953
47856SOL     OW49404   8.092   8.812   0.109 -0.5227 -0.0780  0.0314
47856SOL    HW149405   8.017   8.757   0.086 -0.0372 -0.5422 -0.4593
47856SOL    HW249406   8.071   8.898   0.074 -0.7267 -0.2667 -0.3152
47857SOL     OW49407   2.121   8.622   7.828  0.3960  0.4940 -0.0845
47857SOL    HW149408   2.207   8.600   7.863  0.9394 -0.2780 -1.8094
47857SOL    HW249409   2.092   8.543   7.783 -0.8645  1.0108 -0.2230
47858SOL     OW49410   1.432   7.596   6.207 -0.0826  0.3590  0.1704
47858SOL    HW149411   1.378   7.675   6.208  0.4102  0.6945  0.5588
47858SOL    HW249412   1.395   7.540   6.275 -0.6759  0.0802 -0.3658
47859SOL     OW49413   1.259   3.746   1.592 -0.5136 -0.3143  0.2067
47859SOL    HW149414   1.280   3.714   1.680  0.5118 -0.1957  0.0207
47859SOL    HW249415   1.318   3.698   1.534 -0.3318  0.4860 -0.2880
47860SOL     OW49416  10.442  11.455   2.000  0.1059  0.0390  0.0668
47860SOL    HW149417  10.385  11.532   2.000  0.5927  0.4099 -0.6355
47860SOL    HW249418  10.518  11.481   2.051  0.0624 -0.1418  0.2260
47861SOL     OW49419  11.482   0.941  10.030 -0.1293 -0.4029 -0.3015
47861SOL    HW149420  11.561   0.889  10.047  0.6741  0.7526 -0.4030
47861SOL    HW249421  11.416   0.903  10.087  0.9946 -0.2282  1.1734
47862SOL     OW49422   2.039   7.575   2.001 -0.0736 -0.3238  0.2792
47862SOL    HW149423   1.988   7.509   1.956  0.6879 -0.1991 -0.8048
47862SOL    HW249424   2.128   7.564   1.967  0.2579  0.6167  0.8013
47863SOL     OW49425   9.775   3.370   3.395  0.2811 -0.7265 -0.2440
47863SOL    HW149426   9.818   3.448   3.360 -0.2355  0.0022  0.7037
47863SOL    HW249427   9.735   3.328   3.318 -0.2240  0.4391 -0.6346
47864SOL     OW49428   9.175   3.286   6.354  0.4537  0.2855  0.5485
47864SOL    HW149429   9.110   3.356   6.344 -0.3764 -0.1780  2.3525
47864SOL    HW249430   9.169   3.259   6.445  2.2447 -0.7277  0.4238
47865SOL     OW49431   0.633   5.758   1.967  0.2647 -0.7575 -0.3450
47865SOL    HW149432   0.634   5.673   2.011  2.3466 -0.3196  0.5499
47865SOL    HW249433   0.580   5.743   1.889 -1.3769 -2.2438  0.9636
47866SOL     OW49434   5.321   1.870   7.594  0.8887  0.4947  0.4585
47866SOL    HW149435   5.408   1.909   7.586  0.4803  1.4022  0.3491
47866SOL    HW249436   5.261   1.944   7.590  0.1836  0.0661  2.1953
47867SOL     OW49437   2.249  10.432   6.357 -0.1682 -0.1572 -0.4459
47867SOL    HW149438   2.341  10.451   6.340 -0.0439 -0.3377  0.0117
47867SOL    HW249439   2.211  10.518   6.377 -0.0593 -0.1093 -0.4400
47868SOL     OW49440   1.443   6.465  10.957 -0.2289  0.1577 -0.2419
47868SOL    HW149441   1.470   6.523  11.028  0.7257  0.0637 -0.5110
47868SOL    HW249442   1.357   6.496  10.932  0.2016  1.3593 -0.2783
47869SOL     OW49443   4.317  11.112  11.316  0.2157  0.1076 -0.2639
47869SOL    HW149444   4.330  11.017  11.318 -0.9878 -0.0577  1.2095
47869SOL    HW249445   4.237  11.127  11.366  0.2747  1.8963 -0.6262
47870SOL     OW49446   0.096   9.960   5.453  0.2003 -0.3811 -0.3396
47870SOL    HW149447   0.109   9.986   5.361 -0.7884 -0.7527 -0.5944
47870SOL    HW249448   0.173   9.907   5.473 -0.2121 -1.4258 -1.3843
47871SOL     OW49449   5.595   7.160   8.139  0.0811 -0.3056 -0.3046
47871SOL    HW149450   5.542   7.192   8.066 -1.0186 -0.8245  0.2464
47871SOL    HW249451   5.684   7.157   8.104  0.1206  2.4889 -0.6469
47872SOL     OW49452   4.862  10.164   1.528 -0.2948 -0.0117 -0.2339
47872SOL    HW149453   4.836  10.072   1.525  1.0103 -0.6669  3.4864
47872SOL    HW249454   4.782  10.213   1.511 -1.1876 -1.8044 -1.4228
47873SOL     OW49455   0.459   6.588   7.304  0.2089 -0.1950 -0.0931
47873SOL    HW149456   0.514   6.590   7.382 -0.0437  0.9159  0.0798
47873SOL    HW249457   0.371   6.612   7.335 -0.3576 -1.8086 -0.3912
47874SOL     OW49458   0.989   1.257  10.864  0.1191  0.1224 -0.0605
47874SOL    HW149459   1.017   1.348  10.857 -0.5104  0.2752 -0.6998
47874SOL    HW249460   0.935   1.253  10.943 -0.6894  0.5292 -0.5886
47875SOL     OW49461   2.302   6.962  10.611  0.0095  0.3759  0.0506
47875SOL    HW149462   2.293   7.012  10.692 -3.0093  0.1723 -0.0578
47875SOL    HW249463   2.355   6.886  10.636 -0.5469  0.4999  1.7618
47876SOL     OW49464  12.301   6.457   4.964  0.5689 -0.5306  0.6249
47876SOL    HW149465  12.293   6.542   4.920  1.0260 -0.9234 -0.2457
47876SOL    HW249466  12.349   6.476   5.044  0.3546  0.0880  0.6135
47877SOL     OW49467   1.739   0.182   4.824 -0.6561  0.3750  0.0492
47877SOL    HW149468   1.685   0.166   4.902 -3.5653  0.6211 -1.7336
47877SOL    HW249469   1.793   0.257   4.848  1.3184 -1.7672  2.9975
47878SOL     OW49470   7.485   6.576   9.274 -0.0754  0.4043  0.3918
47878SOL    HW149471   7.394   6.581   9.303 -0.0713  0.4302  0.3994
47878SOL    HW249472   7.480   6.587   9.179  0.1316  3.1186  0.6004
47879SOL     OW49473  10.834   3.872   3.786 -0.0038 -0.0644  0.1710
47879SOL    HW149474  10.742   3.864   3.761 -0.2009  1.5718  0.2650
47879SOL    HW249475  10.834   3.928   3.863  1.0974  0.2071 -0.0076
47880SOL     OW49476   5.309  11.063   6.981  0.0029  0.4708  0.1823
47880SOL    HW149477   5.309  11.102   6.894 -0.4294 -1.2261 -0.6245
47880SOL    HW249478   5.273  10.975   6.968 -2.1487  0.9132  2.4335
47881SOL     OW49479  10.361   1.850   6.844 -0.5707 -0.2721 -0.5917
47881SOL    HW149480  10.376   1.879   6.754  1.4373 -1.5234 -0.7143
47881SOL    HW249481  10.448   1.851   6.884 -1.2592 -0.8784  0.9880
47882SOL     OW49482   4.071   9.693   5.070  0.2281 -0.5549 -0.3497
47882SOL    HW149483   4.045   9.601   5.077 -0.0162 -0.5908 -1.4825
47882SOL    HW249484   4.167   9.691   5.068  0.2364 -1.0080 -2.3849
47883SOL     OW49485   6.133  12.330   3.621  0.0444 -0.3626  0.1032
47883SOL    HW149486   6.226  12.352   3.612  0.5279 -1.8037  1.1986
47883SOL    HW249487   6.111  12.360   3.709 -0.6517  0.2947 -0.2829
47884SOL     OW49488   3.234  10.593   1.630  0.2466  0.0705  0.1272
47884SOL    HW149489   3.141  10.604   1.610 -0.0370  0.2570  1.4624
47884SOL    HW249490   3.237  10.524   1.696  1.1501 -0.5335 -0.5133
47885SOL     OW49491   7.587   1.473   2.807 -0.1070 -0.4082 -0.2617
47885SOL    HW149492   7.635   1.549   2.772  0.4143 -0.1095  1.0129
47885SOL    HW249493   7.497   1.486   2.777 -0.0671  0.8279  0.0647
47886SOL     OW49494   3.896   9.700   2.611  0.7392  0.0985  0.0592
47886SOL    HW149495   3.991   9.702   2.626  0.4714  0.8565  2.0675
47886SOL    HW249496   3.862   9.768   2.670 -1.1488 -1.0037  0.3040
47887SOL     OW49497   5.730   7.720  10.186 -0.3151  0.9929  0.4282
47887SOL    HW149498   5.697   7.635  10.216 -0.2889  0.6491 -0.4855
47887SOL    HW249499   5.809   7.698  10.135  0.3952  1.6660  1.2045
47888SOL     OW49500  12.117   9.225   5.069 -0.7948 -0.2615 -0.1797
47888SOL    HW149501  12.119   9.168   4.992  1.2954 -0.4920 -0.0060
47888SOL    HW249502  12.121   9.165   5.143  1.4711  0.0305  0.0052
47889SOL     OW49503   2.801   2.091   6.730 -0.1625 -0.2479 -0.0669
47889SOL    HW149504   2.877   2.043   6.763 -1.2167 -1.7887  0.1987
47889SOL    HW249505   2.837   2.147   6.661  1.6370  1.0488  1.7869
47890SOL     OW49506   9.405   2.846   3.487 -0.0847  0.4608 -0.2681
47890SOL    HW149507   9.328   2.890   3.449  0.2380  1.1091 -0.1744
47890SOL    HW249508   9.405   2.873   3.578  0.4877  0.7886 -0.3628
47891SOL     OW49509   3.767   0.759   6.719  0.1646  0.4308 -0.6765
47891SOL    HW149510   3.740   0.708   6.795 -1.4450  1.7656 -0.3004
47891SOL    HW249511   3.862   0.745   6.713  0.1248 -0.6792  0.8068
47892SOL     OW49512  11.078   3.328  10.424 -0.1037 -0.2560  0.0108
47892SOL    HW149513  11.134   3.254  10.445 -0.4915 -0.2822  1.0214
47892SOL    HW249514  11.103   3.395  10.488 -0.0371  0.3370 -0.6321
47893SOL     OW49515   9.183   9.067   2.954  0.3414  0.2498  0.2290
47893SOL    HW149516   9.128   9.092   2.880  0.0767  0.0960  0.3710
47893SOL    HW249517   9.251   9.013   2.915 -0.2101 -0.4376  0.1882
47894SOL     OW49518   9.388   0.816   4.914 -0.1480  0.1633 -0.1206
47894SOL    HW149519   9.461   0.855   4.961  0.2521  1.8941 -2.0515
47894SOL    HW249520   9.311   0.864   4.944 -0.4194 -1.0536  1.2411
47895SOL     OW49521  10.108   2.878   8.872 -0.3391  0.5512 -0.2620
47895SOL    HW149522  10.162   2.940   8.823 -0.5424  2.5978  1.9187
47895SOL    HW249523  10.145   2.880   8.961 -1.6579 -0.9209  0.3658
47896SOL     OW49524   6.963   7.443   0.091  0.4039  0.3797  0.4621
47896SOL    HW149525   6.887   7.493   0.122  0.6492  0.9132  0.2256
47896SOL    HW249526   6.935   7.408   0.006  0.7196  1.3321 -0.0551
47897SOL     OW49527   2.836   7.430   7.750  0.1792  0.2326  0.6183
47897SOL    HW149528   2.861   7.348   7.794 -1.0929 -0.8087 -0.4942
47897SOL    HW249529   2.859   7.415   7.658 -0.4327  0.9756  0.3351
47898SOL     OW49530   6.518   1.825   0.819  0.1702 -0.5551  0.3189
47898SOL    HW149531   6.451   1.758   0.828 -0.4787 -0.1466 -1.2098
47898SOL    HW249532   6.469   1.907   0.813  0.8104 -0.2151 -0.4624
47899SOL     OW49533   0.828   7.648   3.152  0.0490 -0.1219 -0.2138
47899SOL    HW149534   0.765   7.664   3.223  1.1021  0.7502  0.5575
47899SOL    HW249535   0.855   7.736   3.124  0.9048 -0.4839 -0.5572
47900SOL     OW49536   1.618   2.519   5.115  0.0336  0.0834  0.0187
47900SOL    HW149537   1.561   2.458   5.162  0.2075 -0.1687 -0.0994
47900SOL    HW249538   1.578   2.605   5.132  0.6970  0.1305  1.5217
47901SOL     OW49539   4.420  10.310   1.043 -0.3914  0.2770 -0.1611
47901SOL    HW149540   4.398  10.217   1.040 -1.3242  0.4589  0.5450
47901SOL    HW249541   4.341  10.354   1.011 -0.6010  0.8902  1.1338
47902SOL     OW49542  10.199   9.999   5.099  0.6866  0.0970 -0.8765
47902SOL    HW149543  10.275  10.035   5.054  0.2568  2.3594  0.0656
47902SOL    HW249544  10.125  10.048   5.063  0.1817  0.9225  1.1576
47903SOL     OW49545   5.910  10.534   4.871  0.0462  0.4398 -0.2825
47903SOL    HW149546   5.999  10.551   4.902  0.3336 -0.6322 -0.5020
47903SOL    HW249547   5.857  10.527   4.950  0.5426 -0.9818 -0.0484
47904SOL     OW49548   1.949   9.067   5.265 -0.6878 -0.6360 -0.3133
47904SOL    HW149549   2.017   8.999   5.269 -0.9082 -0.7877  1.7561
47904SOL    HW249550   1.867   9.020   5.276 -1.0996 -0.3341 -1.8331
47905SOL     OW49551   0.975  12.122   0.565  0.1386 -0.2272 -0.1041
47905SOL    HW149552   1.046  12.159   0.513 -0.2694 -0.5031 -0.8587
47905SOL    HW249553   0.979  12.028   0.548  1.0301 -0.5615  1.6275
47906SOL     OW49554   3.976   0.190   1.879  1.1075  0.0511 -0.0526
47906SOL    HW149555   4.046   0.139   1.837  0.7790 -0.0495 -0.4877
47906SOL    HW249556   3.898   0.172   1.826  0.3213 -1.2891  1.4985
47907SOL     OW49557   9.664   4.278   3.956 -0.7280 -0.4411 -0.3842
47907SOL    HW149558   9.682   4.201   4.010 -2.3600  0.0926  1.0053
47907SOL    HW249559   9.740   4.335   3.970  0.1882 -1.5079 -0.9207
47908SOL     OW49560   9.894   6.407   3.332  0.7215  0.0634  0.4087
47908SOL    HW149561   9.919   6.339   3.269 -0.2095 -0.0216  0.1100
47908SOL    HW249562   9.926   6.374   3.416 -0.4446 -1.1887  0.4125
47909SOL     OW49563  11.121   4.597   7.683  0.0962 -0.2870  0.1108
47909SOL    HW149564  11.036   4.639   7.670 -0.5426 -1.4257  0.4556
47909SOL    HW249565  11.146   4.565   7.597 -0.1178 -0.4804  0.1195
47910SOL     OW49566   3.297  10.935   8.472  0.0457 -0.0760  0.0686
47910SOL    HW149567   3.343  11.018   8.460  1.1816 -0.9428 -2.1732
47910SOL    HW249568   3.336  10.876   8.408 -1.0615 -2.2352  1.2587
47911SOL     OW49569   4.526   9.562   8.601  0.0660 -0.2120  0.4318
47911SOL    HW149570   4.574   9.566   8.683  0.3719  1.1680  0.2205
47911SOL    HW249571   4.495   9.651   8.587  2.0326  0.2170 -2.0972
47912SOL     OW49572  12.206   1.422   1.005 -0.1837 -0.2924 -0.1069
47912SOL    HW149573  12.174   1.493   0.949 -0.3667 -0.7895 -0.6397
47912SOL    HW249574  12.225   1.351   0.944  0.9919 -0.3505  0.2993
47913SOL     OW49575   4.627  12.199   2.462  0.7051 -0.1805 -0.2784
47913SOL    HW149576   4.535  12.203   2.489  1.0509 -1.3641  1.2031
47913SOL    HW249577   4.627  12.145   2.383 -0.0030  0.9816 -1.1088
47914SOL     OW49578   7.028   5.654   5.275 -0.0152 -0.1275 -0.0612
47914SOL    HW149579   7.005   5.740   5.311  1.5221  0.1922  0.2099
47914SOL    HW249580   6.944   5.609   5.266 -0.7071  0.8468  1.2198
47915SOL     OW49581   2.428  11.436   9.447 -0.2746  0.0511 -0.4914
47915SOL    HW149582   2.371  11.359   9.446  2.1652 -1.8577 -0.3694
47915SOL    HW249583   2.444  11.455   9.354 -1.3574  0.8385 -0.5354
47916SOL     OW49584   4.989   8.479   2.908 -0.4777 -0.1498  0.2367
47916SOL    HW149585   4.933   8.423   2.855 -1.3208  1.8511 -1.1223
47916SOL    HW249586   5.078   8.464   2.874 -0.5982 -1.0307  0.2832
47917SOL     OW49587   1.906  10.879   8.053 -0.5443 -0.4571  0.4725
47917SOL    HW149588   1.984  10.908   8.006 -0.7102 -1.5911 -0.5494
47917SOL    HW249589   1.871  10.807   8.000 -3.6287  1.4849 -0.4056
47918SOL     OW49590   9.878  11.175  11.405 -0.2390  0.1357 -0.0283
47918SOL    HW149591   9.963  11.137  11.382  0.6892  1.7041  0.6186
47918SOL    HW249592   9.872  11.164  11.500 -1.2203 -0.8171 -0.1849
47919SOL     OW49593   7.736  10.112   8.035 -0.1947 -0.0071  0.3626
47919SOL    HW149594   7.710  10.167   8.108  1.0111  1.3577 -0.1821
47919SOL    HW249595   7.694  10.027   8.052  0.5016  0.0834  2.9192
47920SOL     OW49596  11.252   9.689   1.288 -0.0614 -0.3138 -0.3080
47920SOL    HW149597  11.199   9.637   1.229  0.2877 -1.1609  0.1036
47920SOL    HW249598  11.304   9.746   1.231  0.6280 -1.4644 -0.8456
47921SOL     OW49599   4.657   0.158   4.296  0.3566  0.2085  0.0362
47921SOL    HW149600   4.725   0.117   4.242  0.3523 -0.1383  0.2909
47921SOL    HW249601   4.589   0.184   4.234  0.4613  0.0343 -0.1524
47922SOL     OW49602   7.503   8.650   2.690 -0.1463  0.2976 -0.1776
47922SOL    HW149603   7.440   8.623   2.623 -0.3499  0.1039  0.0902
47922SOL    HW249604   7.530   8.737   2.663  0.4296 -0.1148 -0.9959
47923SOL     OW49605   6.117  10.743   7.833  0.5875 -0.0855  0.0862
47923SOL    HW149606   6.075  10.747   7.747 -0.3259 -0.9592  0.4682
47923SOL    HW249607   6.128  10.649   7.849  3.1816  0.0958 -0.2023
47924SOL     OW49608   5.640  11.949   5.151  0.2344  0.1163  0.3180
47924SOL    HW149609   5.725  11.907   5.136 -0.0398 -0.0886 -0.7620
47924SOL    HW249610   5.651  12.038   5.118 -0.1531 -0.1063 -0.4359
47925SOL     OW49611  10.541   1.856   7.365  0.2140  0.5044 -0.3630
47925SOL    HW149612  10.537   1.876   7.459 -0.6896  0.6507 -0.4279
47925SOL    HW249613  10.532   1.761   7.361  0.2101  0.5020 -0.3052
47926SOL     OW49614   7.441   8.003   6.317 -0.0668  0.2984 -0.0186
47926SOL    HW149615   7.377   7.937   6.290  0.2058  0.2845 -0.6417
47926SOL    HW249616   7.471   8.042   6.235  2.3265 -1.1597  0.0762
47927SOL     OW49617  12.137   2.008   7.985  0.3630 -0.2684 -0.9932
47927SOL    HW149618  12.185   1.987   7.905  1.0736  1.4298 -1.0482
47927SOL    HW249619  12.205   2.019   8.051 -0.1020  0.0971 -0.5739
47928SOL     OW49620   2.164   7.812   9.435 -0.0739 -0.4281 -0.0033
47928SOL    HW149621   2.181   7.816   9.341 -0.0944  2.5911  0.0473
47928SOL    HW249622   2.245   7.778   9.473 -0.1389 -1.8881 -1.0665
47929SOL     OW49623   5.990   1.542   2.952 -0.7455  0.3420  0.9544
47929SOL    HW149624   6.005   1.578   2.865 -1.4581 -1.2229  0.1249
47929SOL    HW249625   6.077   1.526   2.988 -0.3813 -1.6037 -0.6524
47930SOL     OW49626   1.573   6.037   5.754  0.5005  0.4606  0.0478
47930SOL    HW149627   1.619   6.017   5.836 -0.5471 -0.5161  0.4362
47930SOL    HW249628   1.485   6.062   5.782  0.5481  1.5609 -0.7187
47931SOL     OW49629   6.411   5.927   6.367 -0.0925 -0.3278 -0.0994
47931SOL    HW149630   6.368   6.006   6.399  0.9124 -0.0103  0.5176
47931SOL    HW249631   6.504   5.944   6.379  0.1194 -1.8513  0.6515
47932SOL     OW49632   7.939   0.368  10.808 -0.1607 -0.0206  0.0705
47932SOL    HW149633   7.929   0.457  10.843 -0.6965 -0.0136 -0.0860
47932SOL    HW249634   8.003   0.327  10.866 -0.5651  0.1906  0.6785
47933SOL     OW49635   0.756   4.736   5.391  0.0691  0.2479 -0.3871
47933SOL    HW149636   0.694   4.683   5.341 -1.0490 -0.7947  1.9117
47933SOL    HW249637   0.811   4.673   5.437  1.6429  1.1584 -0.9334
47934SOL     OW49638   5.972   8.378   8.129 -0.1210  0.2748  0.0121
47934SOL    HW149639   5.948   8.424   8.210 -0.5274  0.2067 -0.0638
47934SOL    HW249640   6.044   8.320   8.154 -1.6269 -1.3538  0.8671
47935SOL     OW49641   6.733   2.001   0.315 -0.5241 -0.7099  0.1712
47935SOL    HW149642   6.755   1.954   0.235  0.6233 -0.7579  0.4982
47935SOL    HW249643   6.646   1.968   0.339 -1.1231 -0.2861 -1.3358
47936SOL     OW49644  11.112   0.461   6.876 -0.1852  0.0962 -0.5719
47936SOL    HW149645  11.143   0.370   6.878 -1.6171 -0.4556  2.5728
47936SOL    HW249646  11.157   0.504   6.948 -1.1154  1.2761 -0.6635
47937SOL     OW49647   2.333   1.087   6.245 -0.6120  0.3400  0.7790
47937SOL    HW149648   2.358   1.012   6.191 -1.0466  0.5298  0.3064
47937SOL    HW249649   2.287   1.048   6.320  0.0645  0.0716  1.0633
47938SOL     OW49650   8.488   0.740   9.637 -0.0960 -0.1731 -0.3340
47938SOL    HW149651   8.464   0.650   9.660  0.8214 -0.0745  1.1275
47938SOL    HW249652   8.584   0.741   9.636 -0.0302  1.1744  1.4824
47939SOL     OW49653   1.089   9.317   5.830  0.3337 -0.1083  0.0851
47939SOL    HW149654   1.114   9.370   5.754  1.7331  2.1218  1.9431
47939SOL    HW249655   1.090   9.227   5.798  1.4664  0.6795 -2.3763
47940SOL     OW49656   9.771   4.849   0.965 -0.5128 -0.0241  0.2443
47940SOL    HW149657   9.706   4.814   1.026 -0.2759 -0.4440  0.2558
47940SOL    HW249658   9.848   4.795   0.977 -0.2872  0.2241 -0.0547
47941SOL     OW49659  10.455   3.769   5.324 -0.6133  0.1500 -0.1537
47941SOL    HW149660  10.516   3.698   5.344  0.6420  0.8797 -1.1868
47941SOL    HW249661  10.418   3.793   5.408  0.2871 -0.5375  0.4630
47942SOL     OW49662   3.860   8.781   7.319 -0.2745  0.7244 -0.1656
47942SOL    HW149663   3.882   8.688   7.316  4.0359  1.4509  1.4214
47942SOL    HW249664   3.887   8.814   7.233  0.5278  0.8330  0.1138
47943SOL     OW49665   6.530   1.960   0.531  0.2002  0.0719  0.3933
47943SOL    HW149666   6.528   1.932   0.622  2.4232 -0.8638  0.2187
47943SOL    HW249667   6.616   2.000   0.520 -1.1443  3.0846 -0.5481
47944SOL     OW49668   0.149   8.096  11.146 -0.1601  0.3296 -0.6276
47944SOL    HW149669   0.075   8.115  11.204  0.7900  0.1926  0.6749
47944SOL    HW249670   0.220   8.149  11.182  1.5252 -2.6433  0.7516
47945SOL     OW49671   5.987   1.508   7.419  0.0098 -0.8038 -0.1419
47945SOL    HW149672   5.997   1.544   7.331 -2.1226  0.2190 -0.0380
47945SOL    HW249673   6.050   1.556   7.473 -0.0637 -0.0074 -0.7516
47946SOL     OW49674   4.804  11.961  10.013 -0.0078  1.0849  0.8034
47946SOL    HW149675   4.823  12.028   9.947 -3.2926  2.1751  0.7695
47946SOL    HW249676   4.889  11.935  10.046  1.6002  2.7689 -1.6454
47947SOL     OW49677   7.589  12.001   1.364 -0.3904 -0.4827  0.0494
47947SOL    HW149678   7.624  12.068   1.305 -0.6513 -1.3507 -1.1240
47947SOL    HW249679   7.624  12.024   1.450  0.9633  0.1492 -0.6377
47948SOL     OW49680   4.576   8.507   4.499  0.1290 -0.2248 -0.1182
47948SOL    HW149681   4.498   8.486   4.449  2.3263 -4.5172 -2.3752
47948SOL    HW249682   4.578   8.441   4.569  0.2690  1.7982  1.8878
47949SOL     OW49683   5.907   2.866  11.616 -0.4264 -0.0417 -0.4448
47949SOL    HW149684   5.972   2.937  11.613 -1.3216  0.8213  0.1881
47949SOL    HW249685   5.849   2.883  11.543 -0.2172 -0.5665 -0.7433
47950SOL     OW49686   0.729   4.910   4.004 -0.1203  0.1919 -0.4013
47950SOL    HW149687   0.635   4.919   3.988 -0.7139 -1.6632  1.5166
47950SOL    HW249688   0.744   4.959   4.086  0.2315 -0.9036  0.2023
47951SOL     OW49689   4.314   2.039   2.436  0.8393 -0.2671 -0.1852
47951SOL    HW149690   4.263   1.976   2.488  1.2408 -0.4455 -0.0082
47951SOL    HW249691   4.248   2.101   2.404  0.6881  0.4187  1.3349
47952SOL     OW49692   1.906   3.052   5.520  0.0892 -0.0799  0.4343
47952SOL    HW149693   1.966   3.079   5.590 -0.2558 -1.6736  1.3823
47952SOL    HW249694   1.893   3.132   5.468  0.7875  1.0105  1.8572
47953SOL     OW49695  10.180  10.920   2.418  0.5014 -0.1258 -0.4614
47953SOL    HW149696  10.129  10.987   2.372 -0.4039  0.3649  1.1486
47953SOL    HW249697  10.175  10.843   2.362 -1.3733  0.1613 -0.7599
47954SOL     OW49698   2.691   2.876   1.186 -0.0804 -0.1126 -0.0523
47954SOL    HW149699   2.786   2.880   1.174  0.0177  0.8293  0.9351
47954SOL    HW249700   2.680   2.849   1.277 -0.7589  0.5729  0.0704
47955SOL     OW49701  10.476   3.744  10.674  0.3728  0.0521 -0.2207
47955SOL    HW149702  10.394   3.793  10.672  1.5745  2.1588 -1.0361
47955SOL    HW249703  10.498   3.731  10.582  0.6170 -1.1640 -0.0092
47956SOL     OW49704  11.079   5.155   1.089 -0.0357  0.5537 -0.2682
47956SOL    HW149705  10.985   5.140   1.079 -0.1566  1.5037 -0.6003
47956SOL    HW249706  11.086   5.229   1.149  0.5209  0.2429  0.0673
47957SOL     OW49707   7.560  11.678   8.310 -0.2726 -0.0658  0.3687
47957SOL    HW149708   7.601  11.742   8.253  1.7702 -0.4232  1.3552
47957SOL    HW249709   7.522  11.729   8.382  2.0809  0.0807  1.6019
47958SOL     OW49710   8.887   2.672   2.021  0.6223  0.2999 -0.4049
47958SOL    HW149711   8.793   2.685   2.025  0.2684 -1.8684 -0.6145
47958SOL    HW249712   8.918   2.739   1.959 -0.7492  1.0948 -0.2629
47959SOL     OW49713  11.630   7.860   3.359  0.0919 -0.3595  0.3523
47959SOL    HW149714  11.592   7.822   3.280  1.0199 -0.2789 -0.1550
47959SOL    HW249715  11.634   7.954   3.340 -0.0990 -0.2835  0.6826
47960SOL     OW49716   4.609  10.584  10.850 -1.1890  0.1618  0.0497
47960SOL    HW149717   4.628  10.546  10.935 -0.3666 -0.7500 -0.5197
47960SOL    HW249718   4.607  10.679  10.866 -1.9529 -0.0352  1.2315
47961SOL     OW49719   9.271  10.998   0.091  0.2880 -0.0204 -0.0552
47961SOL    HW149720   9.184  11.036   0.100  0.1695  0.0622 -1.3008
47961SOL    HW249721   9.317  11.058   0.031  1.6114  0.5836  1.4938
47962SOL     OW49722   3.977   6.806   0.624 -0.0213 -0.1539 -0.1016
47962SOL    HW149723   4.061   6.840   0.654  0.8391 -2.0719 -0.1957
47962SOL    HW249724   3.996   6.768   0.538 -1.3982  0.9806 -0.9419
47963SOL     OW49725   5.160   2.687  10.039 -0.3267 -0.5237 -0.2038
47963SOL    HW149726   5.106   2.669  10.115  1.1442 -1.8002  0.5937
47963SOL    HW249727   5.174   2.781  10.041 -1.1605 -0.4046  0.5017
47964SOL     OW49728   6.665   4.441   5.445 -0.0348 -0.4149  0.1651
47964SOL    HW149729   6.643   4.483   5.528 -0.8715  1.0825 -0.7777
47964SOL    HW249730   6.731   4.498   5.407  0.1781 -0.9765 -0.3209
47965SOL     OW49731   5.339   2.106   7.293 -0.0356 -0.2771  0.1229
47965SOL    HW149732   5.408   2.054   7.335 -0.3398  0.5857  1.7900
47965SOL    HW249733   5.268   2.108   7.358 -0.8922  0.3853 -0.8097
47966SOL     OW49734   7.494   7.796   5.430 -0.0898 -0.1645  0.4595
47966SOL    HW149735   7.538   7.812   5.347  0.6677 -0.2758  0.8361
47966SOL    HW249736   7.439   7.719   5.413  1.8568 -1.6737  0.6932
47967SOL     OW49737   1.771  11.238   3.929 -0.2075  0.2958 -0.8754
47967SOL    HW149738   1.861  11.261   3.905 -0.2975  0.2171 -1.2942
47967SOL    HW249739   1.722  11.320   3.920 -0.2781  0.2257 -1.1455
47968SOL     OW49740  10.486   2.201   6.865  0.1767  0.1833 -0.4980
47968SOL    HW149741  10.525   2.135   6.807  0.3262  1.4318 -1.8874
47968SOL    HW249742  10.474   2.277   6.809  1.7464  1.9979  1.4749
47969SOL     OW49743  10.115  11.191   7.995 -0.3084 -0.5968  0.6978
47969SOL    HW149744  10.149  11.235   7.918 -3.8498 -0.5718 -1.0554
47969SOL    HW249745  10.116  11.098   7.972 -1.2247 -0.6052  0.6640
47970SOL     OW49746   9.415   6.466   5.292  0.3529 -0.1824  0.0096
47970SOL    HW149747   9.400   6.382   5.336  0.0238 -0.4851 -0.6508
47970SOL    HW249748   9.485   6.447   5.229 -1.4661 -0.6853 -1.9862
47971SOL     OW49749   3.221   1.481   2.234 -0.9381 -0.5698  0.3748
47971SOL    HW149750   3.292   1.546   2.230 -3.5900  2.7094  1.9217
47971SOL    HW249751   3.239   1.432   2.314  0.0945 -0.4897  0.2145
47972SOL     OW49752   9.869   8.509   9.090  0.3154 -0.6681 -0.2355
47972SOL    HW149753   9.853   8.560   9.010  0.0859  0.6488  0.6340
47972SOL    HW249754   9.790   8.457   9.100  0.0917 -0.3965 -0.5442
47973SOL     OW49755   8.184   2.999   9.750  0.1431 -0.2872 -0.1222
47973SOL    HW149756   8.167   3.054   9.673  1.6210  2.2781  1.2406
47973SOL    HW249757   8.276   2.974   9.741  0.5789  0.7424  1.1511
47974SOL     OW49758   2.280   4.493   2.907 -0.2092 -0.1571  0.3263
47974SOL    HW149759   2.349   4.550   2.940 -1.8305  1.4306  1.2194
47974SOL    HW249760   2.205   4.552   2.894 -0.8066 -1.4041 -2.6625
47975SOL     OW49761   8.597   3.065   5.180  0.1764 -0.3337  0.0114
47975SOL    HW149762   8.526   3.116   5.219  0.5058 -1.6703  2.5707
47975SOL    HW249763   8.677   3.106   5.212  0.4479 -1.7080  1.2346
47976SOL     OW49764   0.784   1.024   0.593  0.1635 -0.5278 -0.1426
47976SOL    HW149765   0.830   1.027   0.676  0.4285  0.7414 -0.3240
47976SOL    HW249766   0.801   1.108   0.552 -0.3985 -0.9281 -1.2547
47977SOL     OW49767   2.709  10.673   9.138 -0.2084 -0.1044 -0.1222
47977SOL    HW149768   2.686  10.674   9.045  1.9727 -0.9955 -0.7362
47977SOL    HW249769   2.782  10.734   9.145 -0.7272  0.4043  1.1424
47978SOL     OW49770   5.803   3.288   9.231 -0.6178 -0.1785 -0.5359
47978SOL    HW149771   5.846   3.246   9.157  0.0380  0.4041 -0.4972
47978SOL    HW249772   5.872   3.338   9.274 -0.9200 -0.7513  0.6530
47979SOL     OW49773   5.766   9.847   3.339 -0.3335  0.3039  0.1433
47979SOL    HW149774   5.780   9.852   3.244 -0.5286 -1.5510 -0.0355
47979SOL    HW249775   5.822   9.775   3.367 -0.9173  0.2787  1.2985
47980SOL     OW49776   3.792   1.297   2.448 -0.5167  0.4024  0.2938
47980SOL    HW149777   3.732   1.243   2.396  1.5477 -0.8902 -0.9005
47980SOL    HW249778   3.858   1.235   2.480 -0.0700  1.6762  1.9937
47981SOL     OW49779   5.305   8.552  11.542 -0.0385 -0.2127 -0.4450
47981SOL    HW149780   5.368   8.611  11.584  0.0028 -1.3892  1.3003
47981SOL    HW249781   5.351   8.467  11.539 -0.9136 -0.6880 -0.7452
47982SOL     OW49782  11.373   9.388   0.410  0.4897 -0.0533  0.2722
47982SOL    HW149783  11.445   9.325   0.407  1.2357  0.7399  1.1301
47982SOL    HW249784  11.405   9.465   0.363  0.9613  1.0175  2.2335
47983SOL     OW49785   4.491   7.456  11.633 -0.3470 -0.2316 -0.1757
47983SOL    HW149786   4.497   7.532  11.574  1.1374 -2.0230 -2.5414
47983SOL    HW249787   4.571   7.460  11.685 -0.6581  0.2459  0.2692
47984SOL     OW49788   5.959   0.649   6.505  0.3015  0.5345  0.2275
47984SOL    HW149789   5.919   0.697   6.433  1.4665  2.5804  0.8632
47984SOL    HW249790   5.976   0.716   6.572  1.8162 -0.7966  1.2563
47985SOL     OW49791   1.312   1.588  10.423 -0.3180 -0.4750 -0.5638
47985SOL    HW149792   1.406   1.592  10.410  0.1837 -0.2392  2.4014
47985SOL    HW249793   1.293   1.494  10.433 -0.3840 -0.5146 -1.0567
47986SOL     OW49794   8.867   1.923   8.086  1.1182 -0.0419  0.0477
47986SOL    HW149795   8.958   1.948   8.070  0.7504  0.6378 -1.1078
47986SOL    HW249796   8.872   1.844   8.140  2.3686  0.7464  1.1394
47987SOL     OW49797   1.292   1.944   8.924  0.2281 -0.4793 -0.0477
47987SOL    HW149798   1.321   1.862   8.885 -0.1215 -0.8572  0.4751
47987SOL    HW249799   1.361   1.968   8.986  0.4924 -0.1953 -0.4457
47988SOL     OW49800  11.168   4.874  10.998 -0.2303  0.2810 -0.1760
47988SOL    HW149801  11.213   4.904  10.919  0.7432  2.0763  0.9652
47988SOL    HW249802  11.233   4.820  11.043  0.7776  2.5640  1.2885
47989SOL     OW49803   4.647   7.848   8.312  0.3867  0.4821 -0.1391
47989SOL    HW149804   4.611   7.919   8.259  1.5618  2.0478  1.0956
47989SOL    HW249805   4.571   7.813   8.359  0.0040  1.8632  0.3049
47990SOL     OW49806   5.434   4.121   3.856  0.2031 -0.2500  0.0035
47990SOL    HW149807   5.421   4.043   3.911  1.6868 -1.6097 -1.4537
47990SOL    HW249808   5.397   4.096   3.771 -0.3544  1.1073 -0.1807
47991SOL     OW49809   8.482  11.698   9.875 -0.1047  0.1536  0.0572
47991SOL    HW149810   8.529  11.770   9.918  0.9975 -0.0923 -0.6960
47991SOL    HW249811   8.496  11.712   9.782  1.4269 -1.8401 -0.0888
47992SOL     OW49812   8.995   6.475   2.375  0.4228 -0.1331 -0.2057
47992SOL    HW149813   8.945   6.551   2.346  2.3260  0.5855 -1.8312
47992SOL    HW249814   8.937   6.401   2.360 -1.3473  0.9101  1.0878
47993SOL     OW49815  11.364   9.218  11.883  0.0299  0.3199 -0.0221
47993SOL    HW149816  11.288   9.184  11.929  0.6190 -1.0673 -0.0048
47993SOL    HW249817  11.332   9.239  11.795 -0.0740 -1.8206 -0.5494
47994SOL     OW49818   1.821   1.605   1.681 -0.3772  0.0351 -0.2007
47994SOL    HW149819   1.794   1.667   1.612 -1.8061  2.1154  2.0691
47994SOL    HW249820   1.892   1.650   1.726 -0.4203 -0.6529  0.5549
47995SOL     OW49821   3.840   2.469   9.058 -0.2304 -0.1565  0.7913
47995SOL    HW149822   3.932   2.476   9.032 -0.9009 -1.5960 -2.4612
47995SOL    HW249823   3.840   2.410   9.133  1.4448 -0.8844  0.2622
47996SOL     OW49824   7.109  11.679  11.429 -0.3835 -0.1265 -0.1278
47996SOL    HW149825   7.116  11.771  11.455  0.4771 -0.1828 -0.1064
47996SOL    HW249826   7.133  11.678  11.336  1.1748 -0.5067  0.2438
47997SOL     OW49827   8.510   0.623   7.110 -0.6546 -0.0739  0.7110
47997SOL    HW149828   8.542   0.535   7.089  1.3058  0.3613  1.6834
47997SOL    HW249829   8.568   0.682   7.061 -1.1349  0.7175  1.0794
47998SOL     OW49830   4.613   5.664   2.143  0.0329  0.3932  0.7664
47998SOL    HW149831   4.643   5.718   2.070 -0.1487 -0.7757 -0.2105
47998SOL    HW249832   4.626   5.719   2.220  1.2169  1.2794 -0.0203
47999SOL     OW49833  11.767   2.997   2.559 -0.4551 -0.5818  0.8755
47999SOL    HW149834  11.727   2.981   2.474  0.0131  1.2266  0.2818
47999SOL    HW249835  11.858   3.019   2.539 -0.5653  0.7735  1.7443
48000SOL     OW49836   2.772   6.116   3.651  0.2474 -0.0036  0.4894
48000SOL    HW149837   2.801   6.202   3.683 -0.6896 -0.7984  3.9500
48000SOL    HW249838   2.803   6.055   3.718 -0.1390 -2.2338 -1.2779
48001SOL     OW49839  10.189   7.628   1.660  0.1791  0.5482  0.4122
48001SOL    HW149840  10.106   7.647   1.704 -0.2684 -0.5469  0.0769
48001SOL    HW249841  10.168   7.556   1.600  1.4982 -0.1357  0.7387
48002SOL     OW49842   4.356   6.657   3.224  0.1136 -0.0363 -0.7276
48002SOL    HW149843   4.442   6.684   3.257  1.0715 -2.0296 -1.4320
48002SOL    HW249844   4.331   6.725   3.162  0.6014  1.1881  0.3760
48003SOL     OW49845   5.881   5.460   3.240 -0.0128 -0.0526  0.0416
48003SOL    HW149846   5.960   5.507   3.215  1.7312 -2.5045  0.6696
48003SOL    HW249847   5.877   5.468   3.335 -0.9393  0.6087 -0.0322
48004SOL     OW49848   8.175   2.035  11.938  0.6254  0.3020  0.0939
48004SOL    HW149849   8.120   2.111  11.917  1.7640  1.2617  0.4551
48004SOL    HW249850   8.201   2.000  11.853 -1.2900 -0.7711 -0.1022
48005SOL     OW49851   0.899   0.777   2.596 -0.3818 -0.0301  0.0107
48005SOL    HW149852   0.830   0.842   2.613  0.4056  0.9572 -0.4689
48005SOL    HW249853   0.860   0.694   2.621 -1.1887  0.7056  1.2936
48006SOL     OW49854   8.222   3.086  10.175 -0.4683 -0.4391  0.3604
48006SOL    HW149855   8.158   3.036  10.226 -1.4398  0.1184 -0.2721
48006SOL    HW249856   8.181   3.096  10.089  0.9973 -1.0925 -0.4546
48007SOL     OW49857  11.245   0.710   8.658  0.6379  0.4795 -0.4145
48007SOL    HW149858  11.222   0.641   8.596  1.2568 -0.7899  0.7138
48007SOL    HW249859  11.341   0.712   8.658  0.6623  0.2069  0.7426
48008SOL     OW49860   4.096   4.881   8.877 -0.3134  0.1958 -0.4572
48008SOL    HW149861   4.139   4.797   8.892  1.5787  1.3805  1.2359
48008SOL    HW249862   4.002   4.861   8.882  0.0833 -1.7990 -0.0673
48009SOL     OW49863   0.982   6.517  10.564 -0.4494  0.0243  0.3836
48009SOL    HW149864   0.962   6.544  10.474 -1.6168 -2.2213 -0.1217
48009SOL    HW249865   0.922   6.443  10.580 -0.1945  0.3049  2.9824
48010SOL     OW49866   5.739   8.259   6.779  0.6753 -0.0116  0.5005
48010SOL    HW149867   5.797   8.319   6.827 -2.3913  1.7647  2.2884
48010SOL    HW249868   5.661   8.252   6.833 -2.4482  0.8330 -3.3654
48011SOL     OW49869   6.006   5.521   6.018  0.6535  0.3067 -0.5143
48011SOL    HW149870   6.025   5.436   6.057 -2.3652  0.3633  1.3950
48011SOL    HW249871   5.969   5.500   5.932 -0.5459 -0.3701  0.1499
48012SOL     OW49872   4.821   6.717   3.216 -0.1567  0.0045 -0.2488
48012SOL    HW149873   4.864   6.644   3.261 -1.2305 -1.8246 -1.9890
48012SOL    HW249874   4.874   6.732   3.138 -0.6575  0.2281 -0.5488
48013SOL     OW49875   4.612   6.588   3.786  0.5600 -0.4997 -0.0379
48013SOL    HW149876   4.649   6.592   3.698  1.1151 -2.6378  0.0253
48013SOL    HW249877   4.540   6.524   3.778 -1.2042  1.3042  0.5098
48014SOL     OW49878   1.281   9.547   4.331  0.3806 -0.4146 -0.5498
48014SOL    HW149879   1.272   9.638   4.303 -1.5892 -0.9438 -1.7675
48014SOL    HW249880   1.193   9.519   4.353  0.9551 -2.0319 -0.1487
48015SOL     OW49881   9.306   0.645   6.934 -0.5586 -0.6160  0.3489
48015SOL    HW149882   9.247   0.715   6.962  0.0384 -1.0108  2.7910
48015SOL    HW249883   9.329   0.668   6.843 -4.7216 -0.6820 -0.9211
48016SOL     OW49884  10.357   2.922   7.454 -0.0229  0.3254 -0.1214
48016SOL    HW149885  10.417   2.931   7.379 -1.4978 -1.5479 -1.6187
48016SOL    HW249886  10.274   2.955   7.423 -0.5229  0.0864  0.9106
48017SOL     OW49887   9.286  10.193   7.614  0.5785  0.2620 -0.3292
48017SOL    HW149888   9.243  10.216   7.696  0.6250 -1.1488  0.1061
48017SOL    HW249889   9.229  10.231   7.546 -0.5270 -0.2575  0.2881
48018SOL     OW49890   1.329   0.838   8.018  0.1885  0.4524 -0.4818
48018SOL    HW149891   1.409   0.821   7.968 -0.0815 -0.2321 -0.6859
48018SOL    HW249892   1.317   0.760   8.071  0.2196  0.9828  0.3270
48019SOL     OW49893   3.793   8.290   1.679 -0.1435 -0.3867 -0.3204
48019SOL    HW149894   3.708   8.286   1.634  0.8437 -0.4190 -2.3093
48019SOL    HW249895   3.857   8.295   1.608  1.5242 -0.1780  1.1326
48020SOL     OW49896   5.432   2.208   5.018  0.9264 -0.5671  0.4986
48020SOL    HW149897   5.367   2.140   5.000  1.7778 -1.5232  0.9145
48020SOL    HW249898   5.382   2.282   5.052  0.1428 -1.6373  1.7630
48021SOL     OW49899   2.064   1.525   2.845  0.4404 -0.0282 -0.2106
48021SOL    HW149900   2.103   1.541   2.932  0.0699 -1.1030  0.1731
48021SOL    HW249901   2.139   1.520   2.786  0.6308  1.9282 -0.1791
48022SOL     OW49902   3.688  11.517   2.977 -0.1929  0.4573 -0.1855
48022SOL    HW149903   3.715  11.427   2.997 -3.2510  0.1968  3.8765
48022SOL    HW249904   3.753  11.572   3.021  0.6930  0.2912 -1.2247
48023SOL     OW49905  11.682   1.290  10.544  1.0181  0.3663  0.4357
48023SOL    HW149906  11.674   1.382  10.568 -0.7788  0.1483  0.7950
48023SOL    HW249907  11.683   1.243  10.627  0.3955 -0.0258  0.2324
48024SOL     OW49908   5.158   3.618  11.572 -0.0252 -0.2231  0.3267
48024SOL    HW149909   5.149   3.527  11.601 -0.8321 -0.3462 -0.2747
48024SOL    HW249910   5.209   3.613  11.492 -0.1886 -0.1634  0.2180
48025SOL     OW49911   0.004   4.094   3.408  0.4965  0.1463  0.4341
48025SOL    HW149912  -0.080   4.114   3.366  0.8368  1.9396  0.5273
48025SOL    HW249913  -0.019   4.077   3.500  0.0987 -0.8078  0.1737
48026SOL     OW49914   8.692   5.140   0.749  0.3234 -0.1169  0.2908
48026SOL    HW149915   8.750   5.200   0.795  1.2144 -2.1475  1.9693
48026SOL    HW249916   8.741   5.058   0.743 -1.5134 -1.2414 -0.2823
48027SOL     OW49917   6.820   1.212  11.694 -0.0453  0.4716  0.1354
48027SOL    HW149918   6.841   1.128  11.737 -1.7235 -0.5703 -0.9513
48027SOL    HW249919   6.798   1.270  11.767 -1.9817 -0.9987  0.8085
48028SOL     OW49920  10.814   5.025  11.297  0.6541  0.2754  0.4357
48028SOL    HW149921  10.866   5.022  11.377  0.1931 -1.2991  0.7126
48028SOL    HW249922  10.842   4.949  11.247 -0.1629  0.3714 -0.1978
48029SOL     OW49923   1.144   9.462   8.295  0.5833 -0.1627  1.0772
48029SOL    HW149924   1.150   9.456   8.200  0.7543 -0.2183  1.0904
48029SOL    HW249925   1.089   9.389   8.321  0.0024  0.2239  0.9660
48030SOL     OW49926   0.291  11.714   5.544  1.0071 -0.7673 -0.1555
48030SOL    HW149927   0.260  11.804   5.535  2.4272 -0.1693  0.6619
48030SOL    HW249928   0.353  11.703   5.472  2.0642 -0.5247  0.6910
48031SOL     OW49929  11.965   1.269   5.783  0.2854 -0.0579 -0.3466
48031SOL    HW149930  11.965   1.287   5.877  0.3650 -0.6689 -0.2258
48031SOL    HW249931  11.974   1.355   5.742 -1.5370  0.4241  0.1710
48032SOL     OW49932   4.153  12.158   3.518  0.3124  0.3601  0.0841
48032SOL    HW149933   4.161  12.123   3.430  0.0294  0.6933 -0.0766
48032SOL    HW249934   4.073  12.211   3.516  0.1260  0.1153  0.6263
48033SOL     OW49935   0.234   5.608  10.658 -0.1349  0.1115  0.2838
48033SOL    HW149936   0.139   5.613  10.670  0.0203  1.1193  1.2278
48033SOL    HW249937   0.270   5.662  10.728  1.1220  0.3806 -0.5406
48034SOL     OW49938  11.879  10.923   9.333 -0.1343  0.0601 -0.1916
48034SOL    HW149939  11.929  10.859   9.282 -2.3455 -0.2353 -2.1747
48034SOL    HW249940  11.795  10.879   9.351 -1.4498  2.0806 -0.9872
48035SOL     OW49941   1.918  10.163  12.331  0.3390  0.2455  0.1050
48035SOL    HW149942   2.010  10.178  12.309  0.1993  0.0316 -0.6432
48035SOL    HW249943   1.921  10.131  12.421  1.1675 -1.4218 -0.4541
48036SOL     OW49944   2.433   1.880   1.816 -0.8188 -0.2467  0.5378
48036SOL    HW149945   2.366   1.869   1.884 -0.2600  1.6016  1.4665
48036SOL    HW249946   2.486   1.953   1.847  0.9571 -0.9209 -0.7319
48037SOL     OW49947  10.204   8.206   2.543  0.1607  0.2636 -0.6409
48037SOL    HW149948  10.244   8.247   2.620  0.9702  0.2209 -1.0242
48037SOL    HW249949  10.110   8.210   2.559  0.2301  1.9506 -0.5037
48038SOL     OW49950   9.434   0.079   3.928 -0.1959  0.7495  0.1106
48038SOL    HW149951   9.362   0.032   3.970  0.1439  1.8730  2.1134
48038SOL    HW249952   9.491   0.104   4.001  1.8132  0.5950 -1.3290
48039SOL     OW49953   2.523  12.283   9.848 -0.7353  0.2592  0.0183
48039SOL    HW149954   2.444  12.337   9.856 -0.6481  0.1815  1.7048
48039SOL    HW249955   2.584  12.338   9.799 -2.1374 -0.0766 -2.2893
48040SOL     OW49956  11.472   2.467   8.724  0.5553 -0.0191 -0.1551
48040SOL    HW149957  11.539   2.535   8.729  1.8084 -1.2361  0.2450
48040SOL    HW249958  11.424   2.475   8.807  1.5132 -0.4111  0.4574
48041SOL     OW49959   0.612   4.588  10.400 -0.5390  0.6255 -0.0623
48041SOL    HW149960   0.533   4.584  10.453  1.4061 -3.1000  3.0730
48041SOL    HW249961   0.593   4.532  10.325 -1.1930  0.5541  0.1490
48042SOL     OW49962  10.093  10.700   7.377 -0.1758 -0.0764  0.0405
48042SOL    HW149963  10.130  10.615   7.354  0.5309  0.8336 -2.6064
48042SOL    HW249964   9.998  10.687   7.372 -0.0863 -0.8040  0.1140
48043SOL     OW49965   5.561   2.575  10.127 -0.3447  0.1588  0.0769
48043SOL    HW149966   5.625   2.619  10.071 -0.5108  0.8452  0.4158
48043SOL    HW249967   5.509   2.646  10.165 -1.9531 -0.4199 -0.9407
48044SOL     OW49968   2.832  11.836   3.149 -0.3030  0.7263 -0.3722
48044SOL    HW149969   2.854  11.754   3.193 -1.4188  0.7648  0.2658
48044SOL    HW249970   2.797  11.808   3.064  1.3331  0.6382 -1.0600
48045SOL     OW49971   4.510   9.756   1.407 -0.0540 -0.4876  1.2935
48045SOL    HW149972   4.591   9.720   1.445  0.1576  0.2191  1.5491
48045SOL    HW249973   4.440   9.721   1.462  0.3596  1.8776  3.5460
48046SOL     OW49974   3.527   1.655   8.186 -0.0506  0.0694 -0.0455
48046SOL    HW149975   3.575   1.594   8.130  0.1557 -0.5387  0.7739
48046SOL    HW249976   3.435   1.644   8.160 -0.1658 -1.4900  0.8918
48047SOL     OW49977  12.123   2.668   4.942  0.0411  0.2510  0.1650
48047SOL    HW149978  12.209   2.686   4.903 -0.7391  1.8384 -0.9247
48047SOL    HW249979  12.124   2.712   5.027  0.6886 -0.7141  0.6773
48048SOL     OW49980   1.063   7.243   9.673 -0.1605 -0.1007  0.2611
48048SOL    HW149981   1.000   7.316   9.674  1.6495  1.5618  1.5799
48048SOL    HW249982   1.015   7.170   9.634 -2.2402  1.6447 -0.6570
48049SOL     OW49983   9.953   9.298   4.620  0.3092  0.2246  0.4225
48049SOL    HW149984  10.023   9.279   4.683 -0.7396  0.3023  1.6392
48049SOL    HW249985   9.999   9.314   4.538  1.8096  1.2366  1.4101
48050SOL     OW49986   9.282  11.982  10.584  0.3613 -0.3902 -0.3554
48050SOL    HW149987   9.189  11.958  10.583  1.0612 -3.5389 -0.8726
48050SOL    HW249988   9.315  11.943  10.665  1.1486  1.1972  0.1155
48051SOL     OW49989   4.377   9.323  10.135 -0.5140  0.5705  0.4572
48051SOL    HW149990   4.369   9.354  10.226 -1.8112  0.7552  0.3067
48051SOL    HW249991   4.394   9.229  10.143 -0.1238  0.6752  0.8980
48052SOL     OW49992   7.773   8.396   4.113 -0.2964  0.1834 -0.4578
48052SOL    HW149993   7.780   8.371   4.020  2.4362  1.1962 -0.6078
48052SOL    HW249994   7.797   8.317   4.161 -2.8517 -0.7003 -0.4884
48053SOL     OW49995   3.353   5.662   8.696  0.1632 -0.0135 -0.3837
48053SOL    HW149996   3.331   5.702   8.780 -1.4915  2.3741 -1.8217
48053SOL    HW249997   3.277   5.608   8.673 -0.4817  1.2449 -1.3627
48054SOL     OW49998   2.518   3.223   3.644  0.7711  0.1455  0.0661
48054SOL    HW149999   2.586   3.281   3.610  0.1846  0.6132 -0.3203
48054SOL    HW250000   2.526   3.144   3.590  2.3651 -0.6448  1.3813
48055SOL     OW50001   0.014   8.588   2.681  0.0493  0.2846  0.5042
48055SOL    HW150002  -0.028   8.664   2.640 -0.0445  0.6468  1.2457
48055SOL    HW250003   0.001   8.517   2.619  0.1988  0.8905 -0.2393
48056SOL     OW50004   8.895   5.202   6.190 -0.5015 -0.2081 -0.5100
48056SOL    HW150005   8.906   5.107   6.181 -1.4105 -0.3595 -0.1223
48056SOL    HW250006   8.807   5.213   6.225 -0.3875  0.7844 -0.5004
48057SOL     OW50007   9.170  12.139   2.704 -0.2902 -0.2651  0.3147
48057SOL    HW150008   9.168  12.234   2.714 -1.4173 -0.1189 -0.9705
48057SOL    HW250009   9.090  12.109   2.745 -0.7700 -0.4692 -0.7284
48058SOL     OW50010   0.123   8.500   0.750  0.0876 -0.5061  0.2706
48058SOL    HW150011   0.171   8.418   0.763  0.5247 -0.1561  0.9252
48058SOL    HW250012   0.037   8.484   0.788  0.4495 -0.3993  1.1671
48059SOL     OW50013  11.438   0.231  10.751  0.1660  0.4004  0.4409
48059SOL    HW150014  11.532   0.225  10.735 -0.1583  0.3644 -1.7425
48059SOL    HW250015  11.427   0.315  10.794  1.1616  0.6291  0.2832
48060SOL     OW50016   1.449   3.983   7.963  0.0018  0.3586 -0.0419
48060SOL    HW150017   1.504   3.941   7.897  0.6550  1.1730 -0.0265
48060SOL    HW250018   1.404   4.054   7.917 -0.6826  0.0026  0.0589
48061SOL     OW50019   5.757   2.499   1.836  1.0902  0.2104 -0.9350
48061SOL    HW150020   5.742   2.405   1.825 -2.5192  0.5195 -0.1164
48061SOL    HW250021   5.744   2.536   1.749 -0.8654  0.1909 -0.6943
48062SOL     OW50022   7.173   5.501   2.079  0.3955 -0.0832  0.1215
48062SOL    HW150023   7.111   5.480   2.149  2.9563 -4.3673  1.4728
48062SOL    HW250024   7.120   5.500   1.999 -1.9229  0.9669  1.5419
48063SOL     OW50025   3.694   6.115   3.755  0.2868  0.4467 -0.4334
48063SOL    HW150026   3.693   6.208   3.777  0.8212  0.6212 -1.0930
48063SOL    HW250027   3.652   6.110   3.669  0.8152  0.1748 -0.6867
48064SOL     OW50028   8.372   9.674   7.606  0.0285 -0.0472 -0.5990
48064SOL    HW150029   8.294   9.632   7.642 -0.0924  1.0541  0.5026
48064SOL    HW250030   8.357   9.676   7.512  0.5861 -3.5176 -0.9142
48065SOL     OW50031   5.194  10.937   6.142  0.3986  0.7221  0.6893
48065SOL    HW150032   5.220  11.015   6.191  0.8100 -0.3449  2.2689
48065SOL    HW250033   5.205  10.865   6.205  0.9814 -0.7429 -1.0057
48066SOL     OW50034   4.807   2.645   3.799  0.3757  0.6082 -0.5511
48066SOL    HW150035   4.836   2.657   3.890  0.3159  2.1043 -0.7207
48066SOL    HW250036   4.748   2.570   3.804  0.0832  0.8930  0.7153
48067SOL     OW50037   5.949   3.795   7.501 -0.5156  0.1937 -0.1577
48067SOL    HW150038   5.930   3.710   7.463 -0.7885 -0.1800  0.7961
48067SOL    HW250039   5.882   3.807   7.568  0.2537  0.6033  0.5595
48068SOL     OW50040  11.076   2.405  11.225 -0.2754  0.3499  0.4779
48068SOL    HW150041  11.076   2.326  11.172  0.7206  0.1401  0.7687
48068SOL    HW250042  11.163   2.407  11.265 -0.4345  1.3710  0.8029
48069SOL     OW50043   7.951   9.737   0.507 -0.0537  0.1993  0.5892
48069SOL    HW150044   7.991   9.824   0.511  0.3026  0.1256 -0.7953
48069SOL    HW250045   7.927   9.726   0.414 -2.2607 -0.2177  1.1426
48070SOL     OW50046   1.162   0.268  11.737 -0.2449  0.2046 -0.3537
48070SOL    HW150047   1.255   0.244  11.730  0.2664  2.0118 -0.1855
48070SOL    HW250048   1.136   0.237  11.823  0.6600  1.1145  0.2607
48071SOL     OW50049   8.019   3.578   6.018 -0.2308 -0.2323 -0.3998
48071SOL    HW150050   8.058   3.557   5.933 -1.8803 -2.7597 -0.6560
48071SOL    HW250051   8.027   3.497   6.069 -2.6559 -0.0586  0.4246
48072SOL     OW50052  11.068   1.406   7.378 -0.4970 -0.2824 -0.0488
48072SOL    HW150053  11.004   1.400   7.449 -1.5072  0.6178 -0.8398
48072SOL    HW250054  11.145   1.358   7.410 -1.6636 -1.6625  0.8107
48073SOL     OW50055   9.372   2.361   1.494 -0.1749 -0.3045 -0.3200
48073SOL    HW150056   9.350   2.451   1.517 -0.4744 -0.4884  0.1322
48073SOL    HW250057   9.451   2.369   1.439  0.1525  0.1936  0.2057
48074SOL     OW50058   7.229   5.627   8.540 -0.0377  0.5164  0.2718
48074SOL    HW150059   7.140   5.662   8.548  0.2552  1.0420  1.3550
48074SOL    HW250060   7.227   5.574   8.460 -0.8765  1.8678 -0.6432
48075SOL     OW50061  12.085   0.371   9.141  0.4330 -0.4228  0.1759
48075SOL    HW150062  12.098   0.295   9.083 -1.0880 -1.0531  0.5863
48075SOL    HW250063  12.029   0.337   9.211 -0.8215  1.2320  0.0258
48076SOL     OW50064   5.539   9.349   6.092  0.2150  0.0048  0.5287
48076SOL    HW150065   5.498   9.353   6.006 -0.0421  0.5848  0.6715
48076SOL    HW250066   5.482   9.403   6.148  0.8828  0.3947  0.8454
48077SOL     OW50067   5.870   5.654  12.163 -0.3286 -0.1033 -0.1785
48077SOL    HW150068   5.850   5.747  12.179 -1.2441 -0.6268  2.1819
48077SOL    HW250069   5.793   5.607  12.197 -0.6629 -1.7055 -2.8990
48078SOL     OW50070   1.885   3.353  12.272  0.0493 -0.3617 -0.3075
48078SOL    HW150071   1.892   3.400  12.190 -0.9754 -0.3624 -0.4071
48078SOL    HW250072   1.880   3.421  12.339 -1.7991 -0.2827 -0.4800
48079SOL     OW50073   3.774   3.540  11.435 -1.0655 -0.4652  0.5862
48079SOL    HW150074   3.812   3.569  11.518  0.4297  0.0809 -0.2605
48079SOL    HW250075   3.710   3.609  11.413  1.9027  2.0573 -1.0182
48080SOL     OW50076  11.274   7.802   1.368 -0.1990 -0.0008  0.1017
48080SOL    HW150077  11.242   7.792   1.458 -1.6849  0.2561 -0.3726
48080SOL    HW250078  11.200   7.840   1.320  0.5203 -0.2614 -1.2646
48081SOL     OW50079   3.231   6.798   9.425 -0.0999  0.3550  0.2015
48081SOL    HW150080   3.243   6.721   9.481  0.2619 -0.4916 -1.0100
48081SOL    HW250081   3.149   6.837   9.456 -0.3920 -0.6259  0.7156
48082SOL     OW50082   1.508  10.330   0.194 -0.2166 -0.0155  0.1494
48082SOL    HW150083   1.468  10.249   0.163  1.7311 -1.5170  1.3263
48082SOL    HW250084   1.505  10.389   0.119 -1.2716 -1.3232 -0.8719
48083SOL     OW50085   9.242  11.933   1.302  0.9273 -0.4046 -0.1753
48083SOL    HW150086   9.209  11.898   1.385  0.8620  1.9570  0.8706
48083SOL    HW250087   9.311  11.994   1.328  0.8123  0.4791 -1.8445
48084SOL     OW50088   3.087   0.086   1.147  0.0806 -0.4880 -0.2642
48084SOL    HW150089   3.132   0.112   1.228 -0.2556 -1.4951  0.2671
48084SOL    HW250090   2.998   0.066   1.175 -1.1638  2.6473 -1.4864
48085SOL     OW50091   8.915   8.304   0.165 -0.3569 -0.0493  0.2472
48085SOL    HW150092   8.850   8.339   0.104 -1.1080 -1.3410  0.2666
48085SOL    HW250093   8.997   8.345   0.138 -0.8138  0.0241 -1.1284
48086SOL     OW50094   4.891   5.748   9.041 -0.0513 -0.0195  0.6367
48086SOL    HW150095   4.814   5.711   8.998 -0.6078  0.3697  1.2936
48086SOL    HW250096   4.965   5.703   9.000 -0.6132 -0.2367 -0.1545
48087SOL     OW50097   5.847   6.886   7.107  0.4454 -0.0171 -0.0105
48087SOL    HW150098   5.780   6.836   7.061  1.2990  0.5769 -1.9870
48087SOL    HW250099   5.920   6.825   7.120 -0.3238 -0.6040  1.9563
48088SOL     OW50100   8.469   6.017   7.055  0.2998 -0.2125 -0.6944
48088SOL    HW150101   8.411   6.091   7.036  1.3173  0.4200 -1.4012
48088SOL    HW250102   8.500   6.033   7.144 -2.0251 -1.5453  0.4631
48089SOL     OW50103   5.186   7.738   6.294  0.3650  0.1275  0.0201
48089SOL    HW150104   5.200   7.832   6.286 -0.0250  0.2148  0.2696
48089SOL    HW250105   5.273   7.699   6.290  0.6096  0.5696  0.7597
48090SOL     OW50106   7.210   0.973   5.210 -0.0577  0.1945  0.4179
48090SOL    HW150107   7.268   0.908   5.169  1.3205  2.0066 -0.6524
48090SOL    HW250108   7.216   0.955   5.304 -0.9178 -2.1494  0.0848
48091SOL     OW50109  12.221  11.481   7.311 -0.1457  0.7652  0.4051
48091SOL    HW150110  12.187  11.536   7.240 -1.3727 -0.7210 -0.2301
48091SOL    HW250111  12.154  11.487   7.380 -0.6383 -0.3807  0.0646
48092SOL     OW50112   0.633   1.659  10.994 -0.3658  0.5009  0.8467
48092SOL    HW150113   0.654   1.567  11.011 -0.0165  0.6785  1.3889
48092SOL    HW250114   0.538   1.664  11.003 -0.5478 -0.0742 -0.4903
48093SOL     OW50115   9.099   1.168   0.231  0.1308  0.0964 -0.5286
48093SOL    HW150116   9.119   1.243   0.287  1.3678  0.0824 -0.9036
48093SOL    HW250117   9.004   1.160   0.233  0.1739 -1.2772  3.3310
48094SOL     OW50118   2.917  11.780   6.452 -0.6817  0.3301 -0.1189
48094SOL    HW150119   2.910  11.685   6.461 -0.1625  0.2437 -0.5838
48094SOL    HW250120   2.920  11.812   6.542 -1.3310 -0.0505  0.0485
48095SOL     OW50121  11.593   4.023   4.832 -0.0144  0.6732  0.0072
48095SOL    HW150122  11.523   4.021   4.897  0.9535 -0.6989  1.0643
48095SOL    HW250123  11.611   4.116   4.819  0.2842  0.9809  2.2887
48096SOL     OW50124   5.075   0.617   9.513 -0.5081 -0.6163 -0.4407
48096SOL    HW150125   5.073   0.711   9.501 -0.3482 -0.5928 -0.2751
48096SOL    HW250126   5.164   0.591   9.491 -1.2135 -1.0901 -3.2040
48097SOL     OW50127   2.621   2.620   9.372  0.0000  0.4330 -0.4257
48097SOL    HW150128   2.593   2.707   9.345  1.1231  0.6395 -0.9744
48097SOL    HW250129   2.605   2.618   9.466 -0.9362  0.8805 -0.5685
48098SOL     OW50130  11.217   7.599   0.831 -0.0078 -0.3131  0.0574
48098SOL    HW150131  11.268   7.538   0.778 -2.0792 -2.4302  0.3241
48098SOL    HW250132  11.194   7.670   0.770  0.6895 -0.8648 -0.8808
48099SOL     OW50133   3.821   2.775   1.364 -0.3942  0.3504  0.6589
48099SOL    HW150134   3.778   2.718   1.300 -0.6713  0.4977  0.7127
48099SOL    HW250135   3.901   2.728   1.387  0.1575  0.6973 -0.4495
48100SOL     OW50136   3.336   0.287   3.994 -0.1978 -0.8294  0.5861
48100SOL    HW150137   3.341   0.357   4.059 -0.0990 -0.7699  0.5139
48100SOL    HW250138   3.364   0.328   3.912  0.2140 -1.0436  0.6151
48101SOL     OW50139   1.035   7.017   8.675  0.8725  0.0651  0.0717
48101SOL    HW150140   1.107   7.070   8.638  1.0667  1.0554  1.7634
48101SOL    HW250141   1.034   7.039   8.768 -2.4000  1.0016 -0.0558
48102SOL     OW50142   9.304  10.780  10.701 -0.0708  0.5861  0.3285
48102SOL    HW150143   9.357  10.852  10.736 -0.2449  0.5782  0.6117
48102SOL    HW250144   9.219  10.791  10.743  0.8464 -1.8000  3.1722
48103SOL     OW50145   3.438   7.789   8.974 -0.2125 -0.5776 -0.1403
48103SOL    HW150146   3.500   7.729   8.934  0.5325  1.1415 -1.7393
48103SOL    HW250147   3.353   7.764   8.936 -0.1370 -1.4455  0.2469
48104SOL     OW50148   0.252   8.694   2.424 -0.3381 -0.4385  0.3167
48104SOL    HW150149   0.233   8.788   2.421  3.1950  0.3749 -0.8003
48104SOL    HW250150   0.305   8.682   2.503 -0.9010 -1.5630  0.5483
48105SOL     OW50151   5.369   4.210   6.123  0.1902 -0.2547  0.0899
48105SOL    HW150152   5.342   4.298   6.149  0.7994 -0.1198  0.2807
48105SOL    HW250153   5.375   4.162   6.206 -0.9854 -0.7225 -0.0845
48106SOL     OW50154   9.617  11.082  11.497  0.4085  0.0117  0.9538
48106SOL    HW150155   9.700  11.127  11.484 -0.6969  1.4078 -2.4105
48106SOL    HW250156   9.637  10.990  11.487  1.5268  0.3581 -0.2319
48107SOL     OW50157   1.346   8.219   7.186 -0.2511  0.3290 -0.4646
48107SOL    HW150158   1.414   8.197   7.122 -0.8116  0.1478 -1.0053
48107SOL    HW250159   1.367   8.308   7.213  0.2053  0.2754 -0.6252
48108SOL     OW50160   6.699  11.974   7.440  0.3839  0.6381 -0.4265
48108SOL    HW150161   6.690  12.048   7.500 -2.5115  0.1399 -0.1116
48108SOL    HW250162   6.648  11.999   7.363  0.9170 -0.2994 -1.1033
48109SOL     OW50163   6.586   2.743   7.587 -0.5021 -0.0772 -0.0846
48109SOL    HW150164   6.593   2.807   7.658 -1.7372 -2.1771  2.0938
48109SOL    HW250165   6.492   2.730   7.577 -0.2960 -0.8234 -1.1922
48110SOL     OW50166   4.161   6.775  11.094 -0.3026 -0.0766 -0.1259
48110SOL    HW150167   4.206   6.727  11.163 -1.8477 -1.2915  0.0805
48110SOL    HW250168   4.072   6.738  11.092  0.0448 -1.1428 -3.6920
48111SOL     OW50169   9.676  11.314   9.217  0.1200 -0.6002 -0.0541
48111SOL    HW150170   9.654  11.244   9.279 -0.3168  0.2452  0.7791
48111SOL    HW250171   9.594  11.331   9.170 -0.1646  0.2630  0.7104
48112SOL     OW50172  11.493   0.853   7.119 -0.4036 -0.1783 -0.3378
48112SOL    HW150173  11.414   0.814   7.155 -0.6386  0.9852  0.4823
48112SOL    HW250174  11.461   0.927   7.067  0.0805 -0.3496 -0.8829
48113SOL     OW50175   3.049   5.736   1.677 -0.1559 -0.0630  0.8621
48113SOL    HW150176   3.135   5.740   1.636 -1.0700 -1.6794 -1.4170
48113SOL    HW250177   2.991   5.778   1.614 -1.6159 -2.5384  0.4488
48114SOL     OW50178   7.013   1.118   0.629 -0.1824  0.3491  0.0117
48114SOL    HW150179   7.100   1.158   0.628 -0.7563  1.6817 -1.6784
48114SOL    HW250180   7.027   1.031   0.665  1.6607  0.9323  0.8004
48115SOL     OW50181   2.629   5.349   9.486  0.0343 -0.8159 -0.3873
48115SOL    HW150182   2.707   5.381   9.440 -1.0480 -0.1051 -1.7712
48115SOL    HW250183   2.624   5.256   9.463 -0.6953 -0.3915 -2.0464
48116SOL     OW50184   0.888   1.874   5.656  0.0748  0.8047  0.3708
48116SOL    HW150185   0.879   1.831   5.571  0.6665 -1.6259  1.4547
48116SOL    HW250186   0.935   1.955   5.638 -0.7884  0.8934 -1.7345
48117SOL     OW50187  11.105   3.640   1.898 -0.3114 -0.1010 -0.0442
48117SOL    HW150188  11.081   3.715   1.953  0.2021  0.2883 -0.3462
48117SOL    HW250189  11.055   3.653   1.817  1.2753  1.0066 -0.8942
48118SOL     OW50190   6.930   6.939   5.514 -0.1010  0.1263  0.2602
48118SOL    HW150191   6.971   6.903   5.435  0.3885  0.2620  0.4505
48118SOL    HW250192   6.837   6.940   5.493 -0.1439 -1.2826  0.2567
48119SOL     OW50193   3.467   6.240   9.768  0.1401  0.1366 -0.2147
48119SOL    HW150194   3.411   6.223   9.693 -0.7675 -0.8811  0.6656
48119SOL    HW250195   3.444   6.329   9.795 -0.0971  0.2136 -0.6641
48120SOL     OW50196   6.357   5.204   8.417 -0.5471 -0.7192 -0.5071
48120SOL    HW150197   6.347   5.177   8.325  0.1258 -0.9034 -0.5336
48120SOL    HW250198   6.421   5.275   8.414 -0.4401 -0.8024 -0.1710
48121SOL     OW50199   2.742  10.465  10.104  0.9503 -0.0772 -0.2377
48121SOL    HW150200   2.674  10.532  10.101  0.9170 -0.0989  0.0195
48121SOL    HW250201   2.740  10.425  10.017 -0.5168 -1.2271  0.2988
48122SOL     OW50202   7.307  12.114  11.915 -0.1321  0.2896 -0.2101
48122SOL    HW150203   7.365  12.188  11.933  0.4965 -0.2021 -0.1595
48122SOL    HW250204   7.288  12.122  11.821 -1.1985  1.2941  0.0687
48123SOL     OW50205   2.245   2.101   3.332 -0.2935  0.3831  0.1943
48123SOL    HW150206   2.292   2.145   3.403 -3.1004  1.4541  1.5227
48123SOL    HW250207   2.255   2.160   3.258 -0.8384  1.3826  0.9000
48124SOL     OW50208   0.532   2.802  11.663 -0.3831  0.6397 -0.2047
48124SOL    HW150209   0.524   2.842  11.576  0.1687 -0.0009 -0.5648
48124SOL    HW250210   0.588   2.862  11.712 -0.6468  0.9738 -0.3093
48125SOL     OW50211   9.987  10.306   3.369 -0.2876  0.0999 -0.0416
48125SOL    HW150212   9.917  10.368   3.389  0.0013 -0.1327  1.8425
48125SOL    HW250213   9.963  10.226   3.417  1.0733 -0.0994  0.3465
48126SOL     OW50214   6.326  10.687   9.965  0.0923  0.6456 -0.2321
48126SOL    HW150215   6.336  10.780   9.945  3.2786  0.3323 -0.7249
48126SOL    HW250216   6.367  10.643   9.891 -2.4473 -1.2793 -0.6104
48127SOL     OW50217   6.070   6.875  10.690 -0.0101 -0.4847  0.1556
48127SOL    HW150218   6.058   6.823  10.769  0.3507  0.9564  1.1854
48127SOL    HW250219   5.981   6.888  10.656 -0.3210  0.1669  1.1748
48128SOL     OW50220   2.891  11.885   4.002 -0.3497  0.2204  0.3773
48128SOL    HW150221   2.836  11.946   3.954 -1.8006 -1.0509  0.3750
48128SOL    HW250222   2.916  11.934   4.081  0.5900  1.6752 -0.7520
48129SOL     OW50223   6.843   1.407   6.001 -0.1367  0.0285  0.2771
48129SOL    HW150224   6.880   1.455   5.927  0.2320 -0.2112  0.3042
48129SOL    HW250225   6.775   1.465   6.036  0.9737  0.9582  0.9288
48130SOL     OW50226   6.635   5.530   3.847  0.0032 -0.2194 -0.1474
48130SOL    HW150227   6.714   5.484   3.820  0.4726 -0.0708  0.9110
48130SOL    HW250228   6.653   5.622   3.831  0.4277 -0.0946  0.9596
48131SOL     OW50229  10.318  11.726   6.191  0.2741  0.0163  0.8523
48131SOL    HW150230  10.271  11.727   6.107  1.6544  1.8799  0.0537
48131SOL    HW250231  10.409  11.711   6.167  1.1032  3.0509  1.7083
48132SOL     OW50232   7.739   7.940   9.358  0.4600 -0.2247 -0.0616
48132SOL    HW150233   7.670   8.004   9.341  0.4502 -0.4559 -0.9427
48132SOL    HW250234   7.817   7.977   9.317  1.1736  0.5622  1.8433
48133SOL     OW50235   3.207   0.473   6.386 -0.3780 -0.2126  0.5358
48133SOL    HW150236   3.121   0.455   6.424 -1.5813  0.4410 -1.7102
48133SOL    HW250237   3.263   0.490   6.462 -1.1757 -4.3919  2.3657
48134SOL     OW50238   8.006   9.109   1.753  0.0477 -0.2794  0.7792
48134SOL    HW150239   8.029   9.080   1.665 -1.6522  1.2577 -0.2546
48134SOL    HW250240   8.089   9.108   1.802  0.7232 -2.8578 -0.2683
48135SOL     OW50241   5.866   8.554   4.291 -0.1385 -0.2984  0.1336
48135SOL    HW150242   5.956   8.520   4.295 -0.0411 -0.0504  0.0981
48135SOL    HW250243   5.842   8.546   4.198  1.0615  2.6688 -0.5577
48136SOL     OW50244  10.823  12.028  11.344  0.4405 -0.1973  0.1665
48136SOL    HW150245  10.861  12.084  11.276 -0.5614 -0.6989 -0.8537
48136SOL    HW250246  10.863  11.942  11.329  0.6309 -0.1827  0.5778
48137SOL     OW50247   2.506   6.262   9.045  0.1576 -0.0930 -0.0458
48137SOL    HW150248   2.569   6.190   9.046  2.0302  1.4491 -0.9527
48137SOL    HW250249   2.506   6.292   8.954 -0.9937  0.7376  0.2104
48138SOL     OW50250  10.389  12.212   4.001 -0.3308 -0.3178  0.3881
48138SOL    HW150251  10.420  12.278   3.938 -1.4179 -1.7202 -1.7654
48138SOL    HW250252  10.307  12.181   3.963  0.2023 -2.9888  1.2476
48139SOL     OW50253   7.290   4.178   1.597  0.2241 -0.0270  0.3309
48139SOL    HW150254   7.308   4.235   1.672  0.0749 -0.2159  0.5108
48139SOL    HW250255   7.223   4.225   1.548  2.9133  1.9594 -1.7454
48140SOL     OW50256  11.095   8.333   7.023  0.0348 -0.1699  0.3298
48140SOL    HW150257  11.096   8.307   7.115 -3.2710 -0.3745  0.4491
48140SOL    HW250258  11.155   8.408   7.018 -0.0928  0.1625  2.7827
48141SOL     OW50259  12.174   7.407   4.229  0.5066 -0.2443 -0.3439
48141SOL    HW150260  12.175   7.437   4.320 -1.4124  1.2460 -0.7549
48141SOL    HW250261  12.265   7.384   4.210  0.8272 -1.4153  2.1935
48142SOL     OW50262   6.670   7.144   4.751  0.4623  0.0040 -0.1958
48142SOL    HW150263   6.757   7.164   4.715  1.0915  0.3135  1.4147
48142SOL    HW250264   6.663   7.199   4.829  0.1653 -2.3731  1.5464
48143SOL     OW50265   0.482   2.748   9.576 -0.0040 -0.1261  0.1936
48143SOL    HW150266   0.404   2.704   9.544 -0.0915  0.7447 -0.8670
48143SOL    HW250267   0.555   2.693   9.545 -0.1465 -0.0869 -0.2153
48144SOL     OW50268   4.903   7.816  10.334 -0.2284  0.3494  0.0237
48144SOL    HW150269   4.818   7.783  10.362 -1.0165 -1.1949 -3.6171
48144SOL    HW250270   4.967   7.755  10.370 -1.1444 -1.3471 -1.0967
48145SOL     OW50271   0.480   4.410   7.675  0.0483  0.1374  0.3485
48145SOL    HW150272   0.504   4.428   7.766  2.1993  0.5075 -0.2413
48145SOL    HW250273   0.420   4.335   7.681 -0.5996  0.7400  2.1056
48146SOL     OW50274   5.554   4.282   3.101  0.2933 -0.0091  0.1206
48146SOL    HW150275   5.539   4.327   3.018  1.1431 -0.5650 -0.3485
48146SOL    HW250276   5.476   4.228   3.115  0.2745 -0.1334 -0.4684
48147SOL     OW50277   5.918  11.509  10.313 -0.1042 -0.4415  0.2705
48147SOL    HW150278   5.951  11.563  10.241 -1.6773 -0.9262 -0.8671
48147SOL    HW250279   5.991  11.503  10.374  1.0832  0.4685 -1.0069
48148SOL     OW50280   3.118   1.922  10.898 -0.2406  0.3851 -0.1417
48148SOL    HW150281   3.163   1.840  10.919  1.8016  0.9482 -1.9056
48148SOL    HW250282   3.059   1.899  10.826 -0.5337  0.2524  0.1374
48149SOL     OW50283   8.662   6.818   8.219 -0.3547 -0.1954  0.0995
48149SOL    HW150284   8.589   6.850   8.166 -0.6969 -0.4184  0.4334
48149SOL    HW250285   8.640   6.727   8.238  0.7192 -0.7250 -1.0339
48150SOL     OW50286   0.474   9.899   2.031 -0.2180 -0.2954 -0.4264
48150SOL    HW150287   0.436   9.979   2.068 -1.3325 -0.4688 -1.1698
48150SOL    HW250288   0.562   9.894   2.070 -0.3623  0.9582  0.0903
48151SOL     OW50289  10.101   1.872  11.284  0.4575 -0.2847 -0.6673
48151SOL    HW150290  10.039   1.807  11.317  0.6504 -0.5159 -0.7519
48151SOL    HW250291  10.108   1.937  11.354  0.1973 -0.3118 -0.6186
48152SOL     OW50292  11.129   5.426   5.047 -0.1292 -1.3632  0.7651
48152SOL    HW150293  11.193   5.453   4.981  0.6071  0.3360  2.0852
48152SOL    HW250294  11.112   5.334   5.028  0.6620 -1.1390 -1.2720
48153SOL     OW50295  12.208   5.219   3.523  0.1469 -0.1889  0.2469
48153SOL    HW150296  12.184   5.306   3.555  2.2449  0.0439  1.3426
48153SOL    HW250297  12.241   5.235   3.434 -0.1392  0.0218  0.1746
48154SOL     OW50298   0.233   3.131   4.499 -0.0609 -0.2012 -0.2289
48154SOL    HW150299   0.327   3.140   4.483  0.2888  0.6061  2.0137
48154SOL    HW250300   0.226   3.099   4.589 -1.9378  0.9837  0.1154
48155SOL     OW50301   6.045   5.341   8.232  0.3450 -0.1234 -0.1961
48155SOL    HW150302   6.003   5.299   8.157 -0.1343 -1.0247  0.5535
48155SOL    HW250303   6.117   5.283   8.255  0.8075  0.4133 -0.2740
48156SOL     OW50304   2.724   4.629  11.601 -0.1623  0.0868  0.0395
48156SOL    HW150305   2.744   4.722  11.594  1.4291 -0.2609 -0.5338
48156SOL    HW250306   2.764   4.602  11.684 -0.7866 -0.0483  0.3004
48157SOL     OW50307  10.893  11.123   5.016 -0.1441 -0.0436 -0.7320
48157SOL    HW150308  10.984  11.137   5.042 -0.2708 -0.5005 -0.0060
48157SOL    HW250309  10.858  11.064   5.083 -1.4145  1.3331 -0.1294
48158SOL     OW50310   5.546  10.770   8.794  0.1642  0.5074 -0.0386
48158SOL    HW150311   5.467  10.720   8.816 -0.2006  1.7408  1.6314
48158SOL    HW250312   5.579  10.801   8.879  1.7806  1.0234 -0.8187
48159SOL     OW50313   8.214   8.777   2.734 -0.2638  0.3931  0.7266
48159SOL    HW150314   8.247   8.789   2.823  1.8816 -2.4196  0.4651
48159SOL    HW250315   8.290   8.794   2.678  0.3045 -3.6489 -0.0807
48160SOL     OW50316   6.079   1.923   4.012 -0.1715 -0.1252  0.1013
48160SOL    HW150317   6.033   1.966   4.085  0.4337  0.2936  0.2415
48160SOL    HW250318   6.138   1.861   4.055 -0.9951 -1.0774 -0.0982
48161SOL     OW50319   3.111   2.648  10.100 -0.1766 -0.6183 -0.6311
48161SOL    HW150320   3.038   2.707  10.084 -0.4393 -0.5480  0.7303
48161SOL    HW250321   3.073   2.574  10.146  0.4574 -1.0102 -0.7159
48162SOL     OW50322  10.705   5.089   7.876  0.1418  0.5557  0.2161
48162SOL    HW150323  10.799   5.072   7.867  0.6983  3.6661 -0.9262
48162SOL    HW250324  10.669   5.077   7.789 -0.4343 -0.0169  0.5223
48163SOL     OW50325   6.408   9.559   0.698 -0.1727 -0.2086  0.2472
48163SOL    HW150326   6.365   9.487   0.652 -0.4471  0.6314 -0.8532
48163SOL    HW250327   6.357   9.636   0.674  2.1011  0.8772 -1.3512
48164SOL     OW50328   2.849   5.384   4.414  0.6649  0.3386  0.2756
48164SOL    HW150329   2.856   5.294   4.382 -0.4394  0.0909  0.6867
48164SOL    HW250330   2.934   5.424   4.394  1.1422 -0.7750  0.0422
48165SOL     OW50331   0.510   3.705   7.195  0.2345  0.0597  0.4710
48165SOL    HW150332   0.577   3.769   7.170 -0.3469  0.5307  0.1112
48165SOL    HW250333   0.432   3.756   7.212 -0.3324 -0.5834 -0.1523
48166SOL     OW50334   1.725   2.943   8.185  0.0055  0.4909 -0.4529
48166SOL    HW150335   1.710   2.945   8.279  0.3917 -0.3650 -0.3617
48166SOL    HW250336   1.730   3.035   8.159 -0.8053  0.7458  0.2395
48167SOL     OW50337   9.499  10.679   7.161  0.9941 -0.1294  0.2948
48167SOL    HW150338   9.505  10.766   7.122 -0.1903  0.6032  1.6344
48167SOL    HW250339   9.560  10.625   7.110 -0.2260  0.8086 -2.3015
48168SOL     OW50340   3.496   5.268   5.100  0.2716  0.3002  0.2133
48168SOL    HW150341   3.478   5.352   5.056  0.1830  0.0444 -0.2512
48168SOL    HW250342   3.413   5.221   5.095  1.1141 -1.0998 -2.4034
48169SOL     OW50343  11.564  11.885   5.823  0.6127 -0.2544 -0.4453
48169SOL    HW150344  11.500  11.815   5.838 -0.9915  1.0605 -0.7930
48169SOL    HW250345  11.571  11.930   5.907  1.6329 -0.8083 -0.2241
48170SOL     OW50346   6.147  11.466   8.612 -0.1329 -0.1177 -0.3317
48170SOL    HW150347   6.223  11.521   8.632  1.1459 -1.9067  0.0011
48170SOL    HW250348   6.128  11.483   8.520  0.1230  0.9890 -0.1890
48171SOL     OW50349   4.190   2.797   6.615  0.3203  0.5745  0.2673
48171SOL    HW150350   4.266   2.762   6.662  1.1451  2.1101  0.1206
48171SOL    HW250351   4.185   2.745   6.535  0.5407 -0.2643  0.7892
48172SOL     OW50352   8.809   5.057   7.507  0.0679 -0.2476 -0.1091
48172SOL    HW150353   8.803   5.151   7.519  0.4570 -0.3121  0.6502
48172SOL    HW250354   8.738   5.036   7.446 -0.3813  0.4502  0.1606
48173SOL     OW50355   7.336  10.601   2.210 -0.3018 -0.1651 -0.1762
48173SOL    HW150356   7.383  10.526   2.173  0.6937  0.8797 -1.0987
48173SOL    HW250357   7.377  10.615   2.296  1.8338  1.3253 -1.3554
48174SOL     OW50358   7.433   0.176  10.817  0.1916  0.0541  0.1377
48174SOL    HW150359   7.440   0.082  10.801 -0.3264  0.2451 -1.3823
48174SOL    HW250360   7.373   0.184  10.890  1.2322 -0.8322  1.1250
48175SOL     OW50361   3.892   7.437  11.428  0.3727  0.2520 -0.2092
48175SOL    HW150362   3.862   7.416  11.340  0.1298  0.7361 -0.2444
48175SOL    HW250363   3.818   7.480  11.469  0.4365 -0.1006  0.2836
48176SOL     OW50364   1.023   2.826   8.969  0.0785  0.7072 -0.2434
48176SOL    HW150365   0.987   2.844   9.055  0.9503  0.0871  0.2686
48176SOL    HW250366   1.116   2.850   8.975  0.4941 -0.7164 -0.5337
48177SOL     OW50367   9.612   1.981   8.964 -0.0281 -0.4998  0.0806
48177SOL    HW150368   9.669   1.981   9.041  1.2142  0.2153 -0.8115
48177SOL    HW250369   9.633   1.899   8.919 -1.3612 -1.3317  0.9007
48178SOL     OW50370   4.589   2.060  10.953  0.5357  0.0898 -0.0538
48178SOL    HW150371   4.569   2.063  11.047  0.2155  0.7207 -0.1389
48178SOL    HW250372   4.684   2.053  10.949  0.5665  0.2803  0.3160
48179SOL     OW50373   2.400   4.029   1.887  0.0021  0.2082 -0.3545
48179SOL    HW150374   2.320   4.068   1.853 -1.1285  0.0544  1.9317
48179SOL    HW250375   2.468   4.092   1.868 -1.1927  1.7398  0.2498
48180SOL     OW50376   1.336   1.013   8.806 -0.2191 -0.4006  0.4144
48180SOL    HW150377   1.266   1.010   8.741  1.2730 -2.3183 -1.2283
48180SOL    HW250378   1.312   0.946   8.870 -0.0998 -0.7747  0.0724
48181SOL     OW50379   6.832   2.130   1.713 -0.1400  0.6899 -0.0884
48181SOL    HW150380   6.758   2.186   1.737 -0.0200  0.5607  0.5906
48181SOL    HW250381   6.793   2.057   1.665 -0.7105 -0.3433  1.8222
48182SOL     OW50382  11.478   9.583   4.588  0.2520  0.2873 -0.0595
48182SOL    HW150383  11.430   9.601   4.670 -0.4217  1.3908 -0.6725
48182SOL    HW250384  11.514   9.667   4.562 -1.0548  0.3521 -1.8330
48183SOL     OW50385  10.468   9.775   8.700  0.0899 -0.1602 -0.0629
48183SOL    HW150386  10.549   9.742   8.737  0.4259  0.9966  0.2806
48183SOL    HW250387  10.491   9.803   8.612  0.2005  0.6601  0.2185
48184SOL     OW50388  10.906   4.244   9.150  0.6784  0.2431  0.1766
48184SOL    HW150389  10.837   4.222   9.212  0.8121  2.3927  1.1763
48184SOL    HW250390  10.987   4.227   9.197  0.8202 -0.1289 -0.1938
48185SOL     OW50391   9.103   0.106   4.117 -0.1951  0.9391 -0.0307
48185SOL    HW150392   9.127   0.108   4.209 -0.9549 -0.2284  0.2053
48185SOL    HW250393   9.142   0.026   4.083 -0.7239  0.8697 -0.4908
48186SOL     OW50394  12.004  10.070   0.225 -0.1056 -1.1217 -0.2613
48186SOL    HW150395  12.078  10.015   0.196 -0.2918 -0.9250 -1.1616
48186SOL    HW250396  12.034  10.160   0.209 -0.6916 -1.0543 -1.0512
48187SOL     OW50397  10.100   9.818   3.637 -0.1057 -0.6005  0.1869
48187SOL    HW150398  10.011   9.805   3.668  0.1961 -1.4610  0.7204
48187SOL    HW250399  10.154   9.768   3.698  0.5784 -1.7254 -1.2980
48188SOL     OW50400   6.176   3.175   6.319  0.5664  0.2926  0.1899
48188SOL    HW150401   6.224   3.199   6.398 -2.1829  1.5302  1.6256
48188SOL    HW250402   6.183   3.080   6.315  1.9095  0.3219  1.1039
48189SOL     OW50403   8.931  10.712   7.923  0.1205  0.0954 -0.7919
48189SOL    HW150404   8.878  10.698   7.844  0.8154 -0.7655 -1.1133
48189SOL    HW250405   8.868  10.709   7.995 -0.5093  0.8039 -1.2958
48190SOL     OW50406   9.208  10.396   3.447  0.1339  0.3512  0.3623
48190SOL    HW150407   9.123  10.397   3.492 -0.2474  0.4207 -0.3452
48190SOL    HW250408   9.272  10.398   3.518 -0.4542  0.6309  0.9039
48191SOL     OW50409   7.458  11.325   8.154 -0.7334  0.0600  0.1772
48191SOL    HW150410   7.471  11.299   8.063  1.3910  0.1264  0.3984
48191SOL    HW250411   7.396  11.398   8.150 -1.4229 -0.5668 -1.0986
48192SOL     OW50412   4.125   3.773   7.220 -0.5091  0.1008 -0.1478
48192SOL    HW150413   4.105   3.697   7.275 -1.0401 -0.1722 -0.7086
48192SOL    HW250414   4.062   3.767   7.148  0.5183  0.1578 -1.0708
48193SOL     OW50415   0.057   3.724   7.515 -0.3203  0.0622 -0.0759
48193SOL    HW150416   0.123   3.743   7.581  0.4419  1.0883 -1.0844
48193SOL    HW250417  -0.003   3.799   7.518 -0.8723 -0.3801  0.1465
48194SOL     OW50418   1.301   1.331   0.065 -0.0669  0.3074 -0.2370
48194SOL    HW150419   1.314   1.255   0.008  0.1187 -0.1962  0.4613
48194SOL    HW250420   1.254   1.296   0.141 -0.6991  1.0528 -0.2698
48195SOL     OW50421   1.297   2.178   9.196  0.3810 -0.0884  0.0206
48195SOL    HW150422   1.300   2.158   9.290  0.8002 -1.3431 -0.2381
48195SOL    HW250423   1.346   2.260   9.187 -0.0469  0.2771  0.9551
48196SOL     OW50424   8.711   2.779   5.231 -0.2703 -0.2861  0.3467
48196SOL    HW150425   8.625   2.756   5.265 -0.0089 -0.1411  1.1145
48196SOL    HW250426   8.704   2.873   5.211 -0.2990 -0.2815  0.3788
48197SOL     OW50427   8.967   8.463   7.920 -0.0103 -0.0211  0.5442
48197SOL    HW150428   8.894   8.487   7.978  0.4171 -0.3339  1.2221
48197SOL    HW250429   8.926   8.416   7.848 -0.3193 -1.8775  1.8505
48198SOL     OW50430   1.605   3.817   7.768 -0.0659  0.1609 -0.0234
48198SOL    HW150431   1.550   3.758   7.717 -0.6463  0.3202  0.4020
48198SOL    HW250432   1.658   3.759   7.823 -0.9435  0.0338  0.7069
48199SOL     OW50433   1.608   5.292  10.577 -0.5478  0.1726  0.1351
48199SOL    HW150434   1.567   5.339  10.649 -0.2558 -1.6593  1.5709
48199SOL    HW250435   1.536   5.248  10.532 -0.6467  0.7303 -0.2656
48200SOL     OW50436   0.575   5.446   4.149  0.5194 -0.3944  0.5139
48200SOL    HW150437   0.552   5.531   4.111 -1.3779 -0.6495  0.9776
48200SOL    HW250438   0.522   5.383   4.101  1.3973 -1.2532  0.6389
48201SOL     OW50439   9.737   1.461   7.750 -0.0705  0.7320 -0.5966
48201SOL    HW150440   9.778   1.535   7.795  0.9832  0.0649 -0.4204
48201SOL    HW250441   9.767   1.469   7.660  0.0070  0.5525 -0.5872
48202SOL     OW50442   1.372  12.267   1.772  0.6113 -0.8557 -0.3373
48202SOL    HW150443   1.369  12.208   1.847  1.2237  0.2704  0.6024
48202SOL    HW250444   1.424  12.342   1.802  0.0058  0.0896 -1.5459
48203SOL     OW50445  12.120   7.429   7.269 -0.4867  0.1901 -0.1303
48203SOL    HW150446  12.137   7.387   7.354  1.4056  1.4105  0.1649
48203SOL    HW250447  12.196   7.408   7.216 -0.6488  1.1885 -0.7933
48204SOL     OW50448   4.035  12.139   8.687  0.0178 -0.2563  0.7815
48204SOL    HW150449   4.079  12.222   8.705 -0.7969  0.5175 -0.5760
48204SOL    HW250450   3.948  12.148   8.727 -0.9291  0.5347 -1.2933
48205SOL     OW50451   1.878   5.823   4.099  0.0131 -0.1050 -0.2201
48205SOL    HW150452   1.881   5.728   4.088 -2.2033 -0.2798  0.1798
48205SOL    HW250453   1.797   5.839   4.148  0.8575  1.9255  0.6159
48206SOL     OW50454  11.204  12.262   6.269  0.2875  0.4038 -0.3785
48206SOL    HW150455  11.248  12.244   6.185 -0.1907 -1.0445 -0.3540
48206SOL    HW250456  11.131  12.320   6.246  0.9513  1.1155 -0.7397
48207SOL     OW50457   3.976   8.990   5.927  0.4413  0.0244  0.3637
48207SOL    HW150458   4.062   8.951   5.945  1.2141  0.5965 -1.7351
48207SOL    HW250459   3.991   9.045   5.851 -0.9653  3.1601  2.1683
48208SOL     OW50460   3.369   2.845   5.796 -0.2078 -0.5686  0.5589
48208SOL    HW150461   3.355   2.928   5.751 -0.4770 -1.3002 -0.7413
48208SOL    HW250462   3.453   2.814   5.763 -0.6578 -1.3696  0.1393
48209SOL     OW50463  12.245   8.813  11.250  0.1287  0.3503 -0.4981
48209SOL    HW150464  12.246   8.848  11.161  0.8411  0.4795 -0.4419
48209SOL    HW250465  12.325   8.847  11.290  0.5351 -0.8457 -0.2468
48210SOL     OW50466   5.151  11.059   3.653 -0.1918  0.2379  0.1026
48210SOL    HW150467   5.218  11.112   3.696 -1.5069  2.0251  0.0779
48210SOL    HW250468   5.143  11.097   3.565 -0.7396 -0.3884 -0.1279
48211SOL     OW50469   7.802   8.496   6.704  0.0103 -0.1677 -0.2780
48211SOL    HW150470   7.870   8.553   6.669 -0.6427 -0.7878 -2.7194
48211SOL    HW250471   7.846   8.441   6.768  1.5283  0.2634 -0.9241
48212SOL     OW50472   7.249   8.192  10.491  0.8014  0.4551 -0.4796
48212SOL    HW150473   7.172   8.136  10.502  1.1566  0.0160 -0.2151
48212SOL    HW250474   7.307   8.143  10.432  1.2587  0.3859  0.0202
48213SOL     OW50475  11.654   9.215  11.685  0.4528  0.6519 -0.0665
48213SOL    HW150476  11.647   9.131  11.731 -0.7874  0.5184 -0.4382
48213SOL    HW250477  11.633   9.194  11.594  0.9269  1.2360 -0.3177
48214SOL     OW50478   2.475   9.188   3.064  0.1972  0.4040  0.0816
48214SOL    HW150479   2.451   9.172   2.972  0.3528  1.4454 -0.1520
48214SOL    HW250480   2.416   9.132   3.114 -1.5654  1.6234 -0.5541
48215SOL     OW50481   4.041   9.642  12.263 -0.2953  0.0961  0.5233
48215SOL    HW150482   4.113   9.704  12.252  0.6905 -1.0006  0.6514
48215SOL    HW250483   4.037   9.594  12.181  0.6577 -1.4051  1.3014
48216SOL     OW50484  12.291   2.892  10.565  0.1442  0.1075  0.3595
48216SOL    HW150485  12.256   2.890  10.476 -1.8393  1.0559  1.0553
48216SOL    HW250486  12.370   2.838  10.561 -0.0343 -0.0827 -1.9010
48217SOL     OW50487   7.899   3.766   5.666 -0.1781  0.3139 -0.1434
48217SOL    HW150488   7.882   3.794   5.755 -1.5881  1.1431 -0.6336
48217SOL    HW250489   7.967   3.825   5.633 -0.2641  0.5514  0.1092
48218SOL     OW50490   3.358  11.530   1.759 -0.1589  0.0571 -0.0737
48218SOL    HW150491   3.300  11.605   1.756 -1.5824 -1.0306 -0.8003
48218SOL    HW250492   3.445  11.567   1.744 -0.6817  1.6622  0.6207
48219SOL     OW50493   8.466   2.876   4.412  0.5368 -0.3885  0.0406
48219SOL    HW150494   8.391   2.936   4.415  0.4036 -0.5942  2.3181
48219SOL    HW250495   8.429   2.791   4.437  1.2874 -0.7642 -0.1099
48220SOL     OW50496   1.303   5.880   0.646  0.0933  0.3227 -0.2044
48220SOL    HW150497   1.329   5.925   0.727 -2.3061 -0.9710  1.4215
48220SOL    HW250498   1.214   5.910   0.630  0.8988  1.5156 -3.2177
48221SOL     OW50499   8.103  11.904   9.646  0.0758 -0.3723 -0.2535
48221SOL    HW150500   8.039  11.887   9.577 -0.2232 -0.1903 -0.0188
48221SOL    HW250501   8.163  11.829   9.641 -0.5700 -0.9225 -0.0014
48222SOL     OW50502  10.150   9.790  11.270 -0.5105 -0.1323 -0.8993
48222SOL    HW150503  10.155   9.695  11.268 -0.8817 -0.2245  0.8338
48222SOL    HW250504  10.096   9.813  11.194 -0.6201 -1.3147 -1.1987
48223SOL     OW50505  11.795  11.194   8.599  0.4303  0.0707 -0.1197
48223SOL    HW150506  11.791  11.281   8.559  1.2910 -0.4136 -1.3420
48223SOL    HW250507  11.709  11.156   8.580  0.3767  0.3230 -0.4009
48224SOL     OW50508   0.722  10.486  11.253 -0.0704 -0.5308 -0.0177
48224SOL    HW150509   0.765  10.522  11.176 -0.8635 -1.1182 -0.7493
48224SOL    HW250510   0.628  10.499  11.238 -0.2809 -1.4036  0.4511
48225SOL     OW50511   8.048   7.391  12.221 -0.3245  0.5188  0.2725
48225SOL    HW150512   8.036   7.296  12.214 -0.2679  0.5556 -0.4347
48225SOL    HW250513   7.971   7.422  12.269  1.3301 -0.2748  3.7529
48226SOL     OW50514   8.534   1.931   7.865 -0.3094  0.4441 -0.3482
48226SOL    HW150515   8.591   1.974   7.801  0.4619  1.0205  0.6968
48226SOL    HW250516   8.561   1.839   7.863  0.0039  0.5382 -0.5309
48227SOL     OW50517  10.529  11.249   0.181 -0.1511 -0.2774  0.6326
48227SOL    HW150518  10.481  11.216   0.105 -1.9220  0.0435  1.5533
48227SOL    HW250519  10.488  11.333   0.200  0.9177  0.0909  1.3651
48228SOL     OW50520  10.278   9.049   4.514 -0.4547 -0.0850  0.2309
48228SOL    HW150521  10.326   9.103   4.577 -0.3763 -0.5990  0.6115
48228SOL    HW250522  10.300   8.959   4.537 -0.6172 -0.2850 -0.3803
48229SOL     OW50523   4.055   9.665   7.390  0.2264  0.1080  0.2445
48229SOL    HW150524   4.099   9.676   7.474  3.2754 -0.5788 -1.1107
48229SOL    HW250525   4.117   9.699   7.326 -1.7417  0.0647 -1.8011
48230SOL     OW50526   2.577   5.726  10.895 -0.3685 -0.4527  0.1309
48230SOL    HW150527   2.618   5.689  10.817 -0.8702 -1.3592  0.2840
48230SOL    HW250528   2.621   5.810  10.907  1.0298 -1.1327 -0.0351
48231SOL     OW50529  11.540   9.688   0.478 -0.1239 -0.1914  0.3960
48231SOL    HW150530  11.546   9.633   0.400 -1.0735  1.8539 -1.2261
48231SOL    HW250531  11.630   9.716   0.495  0.1149 -0.8135  0.1781
48232SOL     OW50532   6.825   6.241  10.938 -0.3963 -0.2542 -0.5301
48232SOL    HW150533   6.859   6.236  11.027 -0.1265  0.2585 -0.5984
48232SOL    HW250534   6.857   6.325  10.905  0.8906 -1.1358 -1.6619
48233SOL     OW50535   8.474  11.802   2.876 -0.1927  0.7743 -0.0398
48233SOL    HW150536   8.390  11.827   2.914  0.3793 -1.3788  3.0902
48233SOL    HW250537   8.457  11.717   2.835 -0.0233  1.4587 -1.5669
48234SOL     OW50538   5.993   8.972   4.980 -0.1246 -0.2358 -0.2790
48234SOL    HW150539   6.009   8.910   5.052  0.3243  0.7551  0.5118
48234SOL    HW250540   5.900   8.965   4.962 -0.2594 -0.4501  0.4643
48235SOL     OW50541   3.433   0.355   1.849  0.0385  0.0114  0.2783
48235SOL    HW150542   3.450   0.448   1.863 -0.5305  0.1080  0.3204
48235SOL    HW250543   3.342   0.343   1.874 -0.0829 -0.4325 -0.3682
48236SOL     OW50544   6.354  11.398   8.917 -0.6065  0.2626 -0.6635
48236SOL    HW150545   6.287  11.338   8.884 -0.3757  0.9577 -2.5782
48236SOL    HW250546   6.437  11.358   8.890 -0.3501  0.4791 -0.2067
48237SOL     OW50547  10.873   0.866  11.054  0.0747 -0.7090 -0.3988
48237SOL    HW150548  10.851   0.884  10.962  0.4132  1.1463 -0.1624
48237SOL    HW250549  10.960   0.906  11.065 -1.0408  1.4137  1.3581
48238SOL     OW50550   4.340   5.322  10.336 -0.0466  0.1368 -0.1384
48238SOL    HW150551   4.250   5.353  10.332  0.1995  0.7216 -2.8103
48238SOL    HW250552   4.387   5.390  10.385 -0.6200  1.0065 -0.7776
48239SOL     OW50553   4.382   2.667   3.343  0.1354 -0.3513 -0.5028
48239SOL    HW150554   4.292   2.639   3.357  0.1616  0.3416  1.4577
48239SOL    HW250555   4.379   2.721   3.265 -1.5603  1.2059  0.5551
48240SOL     OW50556   0.375   4.041   9.214  0.5727 -0.0276 -0.8316
48240SOL    HW150557   0.289   4.017   9.248 -0.5053 -0.0551 -3.3593
48240SOL    HW250558   0.367   4.133   9.191  0.4340 -0.5458 -3.1042
48241SOL     OW50559   1.903   9.293   2.026  0.3623  0.1384  0.8815
48241SOL    HW150560   1.849   9.308   2.104 -0.6354  0.8118  0.0982
48241SOL    HW250561   1.852   9.333   1.955  1.0311 -0.8706 -0.1829
48242SOL     OW50562   8.273  12.195   6.805 -0.2917  0.1324 -0.2088
48242SOL    HW150563   8.329  12.146   6.865  0.6015 -0.4557 -1.4857
48242SOL    HW250564   8.272  12.284   6.840  0.8867 -0.0089  0.2277
48243SOL     OW50565   6.331   7.912  10.178  0.8851 -0.0838  0.1267
48243SOL    HW150566   6.389   7.838  10.192  0.3622 -0.3898  0.7299
48243SOL    HW250567   6.247   7.884  10.213  0.4494  0.4661 -0.4601
48244SOL     OW50568   5.152   8.583   2.037 -0.2428  0.7185 -0.0720
48244SOL    HW150569   5.236   8.585   2.083 -0.4895  0.6449  0.3851
48244SOL    HW250570   5.097   8.526   2.090 -1.0234  1.8806  0.4120
48245SOL     OW50571   2.036   6.899   8.039 -0.2905 -0.6656 -0.1766
48245SOL    HW150572   2.114   6.891   7.983 -1.1392 -0.8695 -1.3638
48245SOL    HW250573   1.990   6.975   8.005 -0.9621 -0.9548  0.0803
48246SOL     OW50574   2.189   0.502   2.294  0.0735  0.3088 -0.0481
48246SOL    HW150575   2.094   0.500   2.278  0.3264  0.0715 -1.7091
48246SOL    HW250576   2.226   0.447   2.224  1.3184 -1.1251  1.6606
48247SOL     OW50577   8.857   2.536  11.689  0.1891 -0.2830  0.0438
48247SOL    HW150578   8.842   2.490  11.771  0.0440 -0.0323  0.1607
48247SOL    HW250579   8.888   2.469  11.628  2.7967 -0.0420  0.9914
48248SOL     OW50580  11.589   6.725   5.143  0.2655  0.5009 -0.9560
48248SOL    HW150581  11.669   6.675   5.130 -0.1772 -0.6999  0.6252
48248SOL    HW250582  11.518   6.662   5.132 -0.5297  1.6150 -2.6944
48249SOL     OW50583   1.427   5.718   4.537 -0.5081 -0.0330 -0.4953
48249SOL    HW150584   1.331   5.723   4.535 -0.7583 -2.9703  0.0294
48249SOL    HW250585   1.453   5.725   4.445 -1.2935 -0.1853 -0.7355
48250SOL     OW50586   5.506   9.468   9.854  0.4706 -0.4447 -0.2399
48250SOL    HW150587   5.587   9.437   9.895  0.2602 -3.6675 -1.9345
48250SOL    HW250588   5.448   9.487   9.927  1.8587 -0.7090  0.9797
48251SOL     OW50589   5.737   1.588   2.557 -0.1139 -0.1011 -0.0891
48251SOL    HW150590   5.773   1.528   2.622  2.2914  1.8060  0.4372
48251SOL    HW250591   5.759   1.548   2.473  2.5801  0.5326  0.2333
48252SOL     OW50592   7.067   3.763  10.304 -0.2075  0.7142 -0.2605
48252SOL    HW150593   7.069   3.681  10.353 -0.1292  0.6233 -0.4119
48252SOL    HW250594   6.998   3.750  10.238  0.6413  0.2869 -1.0971
48253SOL     OW50595  10.551   0.610  11.296 -0.6037  0.0984 -0.1089
48253SOL    HW150596  10.627   0.638  11.347 -0.8098  0.5803 -0.0545
48253SOL    HW250597  10.488   0.681  11.307 -1.9189 -1.2429  1.6200
48254SOL     OW50598   6.306   5.593  11.692  0.5826  0.3627  0.4341
48254SOL    HW150599   6.216   5.587  11.724 -0.0671 -1.6419 -1.4537
48254SOL    HW250600   6.311   5.679  11.651 -0.7782  0.2006 -0.1514
48255SOL     OW50601   2.042   8.863   6.560  0.1995  0.4243  0.1527
48255SOL    HW150602   1.948   8.858   6.574  0.4140  0.8922  1.9868
48255SOL    HW250603   2.080   8.819   6.636  1.4758  1.3512  0.0814
48256SOL     OW50604   9.293   1.003   0.507 -0.3672  0.1008 -0.0962
48256SOL    HW150605   9.290   0.937   0.576 -0.2238  0.0627 -0.1258
48256SOL    HW250606   9.350   0.965   0.440 -0.0334  0.3851  0.0225
48257SOL     OW50607   6.943   5.245   5.832  0.0582  0.5396 -0.5754
48257SOL    HW150608   6.896   5.329   5.831 -0.3872  0.2921 -0.9521
48257SOL    HW250609   6.968   5.233   5.924 -1.0370  0.4551 -0.2671
48258SOL     OW50610   7.779   6.611   7.641 -0.2502 -0.4994 -0.5993
48258SOL    HW150611   7.800   6.596   7.733 -0.2681 -2.1816 -0.8342
48258SOL    HW250612   7.860   6.647   7.604 -0.2358  0.1666  0.0580
48259SOL     OW50613  11.076   0.159   3.446 -0.0279  0.0842  0.3146
48259SOL    HW150614  11.172   0.156   3.449 -0.0163 -0.9341 -0.5798
48259SOL    HW250615  11.054   0.245   3.483  1.2152  0.2682  0.6849
48260SOL     OW50616   4.234   0.352   0.187  0.0086 -0.0083 -0.3304
48260SOL    HW150617   4.169   0.303   0.135 -0.7975  1.2050 -0.4970
48260SOL    HW250618   4.294   0.284   0.219  0.2431 -0.8659 -2.4143
48261SOL     OW50619   7.250   8.495  11.895 -0.3216 -0.3621  0.2312
48261SOL    HW150620   7.324   8.495  11.955  0.7883  2.0104 -1.0172
48261SOL    HW250621   7.248   8.405  11.861  1.7490 -0.5926  0.5641
48262SOL     OW50622   2.317  10.431   6.617  0.0385 -0.4477  0.3180
48262SOL    HW150623   2.255  10.495   6.650  0.1936 -0.5744  0.8646
48262SOL    HW250624   2.283  10.405   6.532 -2.5842 -3.0989  1.9993
48263SOL     OW50625   4.252   6.832   6.031 -0.2679 -0.2669 -0.0499
48263SOL    HW150626   4.276   6.873   6.114  0.3959  1.1305 -0.9042
48263SOL    HW250627   4.304   6.877   5.965 -1.2740 -0.8818 -1.3267
48264SOL     OW50628  10.504   6.123   9.186  0.7260 -0.3096 -0.0925
48264SOL    HW150629  10.537   6.151   9.271  0.3952  0.6206 -0.2585
48264SOL    HW250630  10.416   6.161   9.181  0.4061 -1.0801 -0.4936
48265SOL     OW50631  11.414   1.145   8.408 -0.4935 -0.3370 -0.3240
48265SOL    HW150632  11.338   1.106   8.451 -0.9575  0.5652 -0.2926
48265SOL    HW250633  11.444   1.079   8.345 -1.4855 -0.5745 -0.5538
48266SOL     OW50634   6.383   4.762   9.761  0.3923 -0.2147  0.0918
48266SOL    HW150635   6.305   4.816   9.748 -0.3799 -0.4720  2.8584
48266SOL    HW250636   6.393   4.713   9.680 -0.4817  2.0452 -1.4869
48267SOL     OW50637   5.510   3.642   6.210  0.0951 -0.5765  0.1589
48267SOL    HW150638   5.527   3.712   6.147  2.9912 -0.2348  1.1199
48267SOL    HW250639   5.475   3.571   6.158 -1.2588  0.9648 -1.1509
48268SOL     OW50640   3.054  11.030   0.566  0.1696 -0.5816  0.1910
48268SOL    HW150641   2.997  11.106   0.578  1.2038  0.1513  0.5992
48268SOL    HW250642   3.014  10.982   0.493 -1.1753 -0.3082  0.7121
48269SOL     OW50643   1.335   4.839   5.646  0.3183  0.2194 -0.5589
48269SOL    HW150644   1.243   4.863   5.657  0.3845 -0.6317  3.5212
48269SOL    HW250645   1.384   4.915   5.677  0.7257 -1.0464  2.2774
48270SOL     OW50646   7.106   9.829   7.952 -0.1878 -0.0794 -0.8340
48270SOL    HW150647   7.108   9.899   8.016  0.3325 -0.0343 -0.8965
48270SOL    HW250648   7.140   9.752   7.999 -1.6210 -0.5315 -0.4887
48271SOL     OW50649   8.240   2.300   4.598 -0.3460 -0.1668  1.0759
48271SOL    HW150650   8.268   2.248   4.673  1.5545  1.0898  1.3192
48271SOL    HW250651   8.287   2.262   4.524 -0.4857 -0.0238  0.9119
48272SOL     OW50652   5.870   1.941   8.368  0.4870  0.1004 -0.0549
48272SOL    HW150653   5.803   1.932   8.301 -1.5035  1.7165  1.5983
48272SOL    HW250654   5.825   1.981   8.442  2.3456 -2.3817  2.6307
48273SOL     OW50655   8.096   0.560   1.214  0.0515 -0.5368 -0.1456
48273SOL    HW150656   8.168   0.615   1.245 -2.1176  1.2654  2.1851
48273SOL    HW250657   8.080   0.589   1.124  1.3803 -0.0489 -0.2449
48274SOL     OW50658   9.334   1.727   2.526 -0.3162 -0.0461 -0.1822
48274SOL    HW150659   9.293   1.793   2.471 -1.2512 -0.0235  0.5273
48274SOL    HW250660   9.264   1.666   2.547  0.5113 -1.2242 -0.7385
48275SOL     OW50661   0.521   9.502   1.696 -0.3449  0.1464 -0.7993
48275SOL    HW150662   0.524   9.565   1.624 -0.0524  0.6221 -0.3754
48275SOL    HW250663   0.464   9.543   1.761  1.3461  0.8631  0.2990
48276SOL     OW50664   0.821   6.864  10.374  0.1541 -0.9224 -0.2977
48276SOL    HW150665   0.784   6.911  10.299 -0.4602 -0.4389  0.2859
48276SOL    HW250666   0.767   6.786  10.383  0.3541 -1.0837 -0.4718
48277SOL     OW50667   5.214   6.753   6.079 -0.2379  1.0105 -0.3225
48277SOL    HW150668   5.190   6.693   6.008  1.0264 -0.8141  0.6989
48277SOL    HW250669   5.133   6.768   6.127 -0.6681  0.4728 -0.8686
48278SOL     OW50670   2.279   5.708   0.571 -0.3198  0.2358  0.1704
48278SOL    HW150671   2.299   5.664   0.488 -1.3353 -0.0228  0.0584
48278SOL    HW250672   2.332   5.788   0.568  0.6813 -0.4107 -0.1237
48279SOL     OW50673   5.359   2.795  11.908 -0.6272  0.3344 -0.1200
48279SOL    HW150674   5.437   2.825  11.862  0.2397  0.3919  1.3456
48279SOL    HW250675   5.362   2.700  11.900 -0.3867  0.3344 -0.0434
48280SOL     OW50676   9.828   9.336   0.566 -0.1975 -0.2417 -0.1294
48280SOL    HW150677   9.739   9.369   0.561 -0.0652  0.2134  0.4143
48280SOL    HW250678   9.883   9.412   0.547  0.0861 -0.3863  0.0954
48281SOL     OW50679   8.853   8.336   3.197 -0.2306 -0.1881  0.6541
48281SOL    HW150680   8.827   8.381   3.117  0.2348 -1.4878 -0.2473
48281SOL    HW250681   8.827   8.397   3.267 -4.2577 -0.6388 -0.1908
48282SOL     OW50682   2.251   9.978  11.381 -0.0402 -0.6027 -0.4625
48282SOL    HW150683   2.276  10.009  11.294  1.0185  1.1422  0.4232
48282SOL    HW250684   2.319  10.010  11.439 -1.3812 -0.6490  1.2247
48283SOL     OW50685  10.186  10.620   5.725 -0.2635  0.2403  0.1189
48283SOL    HW150686  10.217  10.657   5.808  1.0334 -0.8364  0.1565
48283SOL    HW250687  10.101  10.661   5.710 -0.9346 -0.1808  2.4188
48284SOL     OW50688   1.931   6.175   8.695 -0.0246  0.0613 -0.0903
48284SOL    HW150689   1.839   6.152   8.679  0.4804 -2.8774  0.5956
48284SOL    HW250690   1.930   6.217   8.781 -0.7131 -0.1430  0.0131
48285SOL     OW50691   4.364   7.402   8.243  0.1228 -0.1262 -0.1491
48285SOL    HW150692   4.294   7.444   8.193  0.7072 -0.1904 -1.0302
48285SOL    HW250693   4.402   7.339   8.183 -0.0666 -1.2119  0.8273
48286SOL     OW50694   1.113   9.779   3.901 -0.2912  0.2722 -0.2794
48286SOL    HW150695   1.134   9.829   3.822 -3.0137  1.4267 -0.3818
48286SOL    HW250696   1.197   9.769   3.947  0.8704  2.1164 -1.8757
48287SOL     OW50697   5.177   0.302   5.358 -0.0599 -0.0766 -0.4925
48287SOL    HW150698   5.193   0.396   5.351  0.2709 -0.0959  0.0065
48287SOL    HW250699   5.100   0.295   5.414 -0.1227 -0.1030 -0.5812
48288SOL     OW50700   5.642   7.133   7.281  0.8990 -0.3218 -0.4549
48288SOL    HW150701   5.693   7.061   7.318 -0.0070 -0.9674 -0.4115
48288SOL    HW250702   5.551   7.105   7.291  0.4749  1.2816  0.4584
48289SOL     OW50703   6.920   5.786   1.634  0.1269  0.2307  0.1023
48289SOL    HW150704   6.840   5.834   1.655 -0.4364 -1.4058  2.1149
48289SOL    HW250705   6.978   5.804   1.708  0.8874 -0.0763 -0.4140
48290SOL     OW50706   1.888   4.173   4.996  0.3087 -0.5043  0.0018
48290SOL    HW150707   1.848   4.118   5.063 -1.7151  0.0527 -0.6870
48290SOL    HW250708   1.928   4.111   4.935  0.8506 -1.0653  0.9060
48291SOL     OW50709   0.799   4.735   9.081  0.2893 -0.2139 -0.2092
48291SOL    HW150710   0.799   4.831   9.082 -2.1445 -0.1532  0.2861
48291SOL    HW250711   0.831   4.712   8.994 -1.1504  1.1505 -1.1623
48292SOL     OW50712   0.885   1.137   8.846 -0.1094  0.3261 -0.2532
48292SOL    HW150713   0.858   1.220   8.885 -0.1915  0.0052  0.3786
48292SOL    HW250714   0.811   1.079   8.859  0.4021 -0.1984  0.3865
48293SOL     OW50715   0.127   5.559   6.753 -0.4671 -0.1593  0.4772
48293SOL    HW150716   0.067   5.624   6.717 -0.5961  0.4168  1.6538
48293SOL    HW250717   0.079   5.521   6.827  0.0423 -0.7744  0.5002
48294SOL     OW50718   2.151   5.849   3.131 -0.7084  0.5573  0.2375
48294SOL    HW150719   2.182   5.922   3.184 -1.0253  0.9472 -0.1044
48294SOL    HW250720   2.207   5.849   3.054 -1.0684  0.7923 -0.0267
48295SOL     OW50721   5.651   2.702   5.973  0.1761  0.1633  0.0883
48295SOL    HW150722   5.682   2.789   5.945 -1.2619  0.1447 -1.7410
48295SOL    HW250723   5.647   2.651   5.893 -2.4191 -0.4815  0.5435
48296SOL     OW50724   7.793   8.880  12.050 -0.1209  0.2771  0.2626
48296SOL    HW150725   7.888   8.876  12.041  0.3387 -3.9466  3.5427
48296SOL    HW250726   7.761   8.812  11.991 -0.9178  0.4857  0.4432
48297SOL     OW50727   5.051   1.389   3.600 -0.0151  0.0034 -0.3416
48297SOL    HW150728   5.082   1.403   3.689  0.4318 -0.7502 -0.3636
48297SOL    HW250729   5.131   1.380   3.548 -0.2701 -0.1915 -0.7056
48298SOL     OW50730  11.344   4.865   4.038 -0.9111 -0.5674  0.8398
48298SOL    HW150731  11.332   4.954   4.004 -1.5458 -0.2912  1.7382
48298SOL    HW250732  11.437   4.847   4.025 -0.6280  0.4953  1.2476
48299SOL     OW50733   8.915   7.130   9.376  0.1729 -0.0516  0.2151
48299SOL    HW150734   8.906   7.142   9.281  1.1174 -0.6168  0.0401
48299SOL    HW250735   8.977   7.198   9.403  0.6744 -0.5229  0.2588
48300SOL     OW50736   6.270   3.003   5.789 -0.3461  0.0210  0.3320
48300SOL    HW150737   6.309   2.943   5.726 -1.6268 -1.6472  1.0311
48300SOL    HW250738   6.255   3.084   5.740  3.5977  0.7052 -0.0384
48301SOL     OW50739   7.956  12.312  10.224 -0.2269 -0.2062  0.3745
48301SOL    HW150740   7.931  12.256  10.297 -1.2188 -1.6256 -0.9929
48301SOL    HW250741   8.005  12.255  10.165  0.5778  0.9180 -0.0720
48302SOL     OW50742   2.431  12.244   8.084 -0.0397  0.1309 -0.8485
48302SOL    HW150743   2.463  12.208   8.166 -0.8584  2.3427  0.5445
48302SOL    HW250744   2.351  12.194   8.065  1.0885 -1.5677 -1.2878
48303SOL     OW50745   4.080   1.243   7.504  0.1965  0.0995  0.4265
48303SOL    HW150746   4.112   1.320   7.456 -1.1226 -0.2490 -1.1204
48303SOL    HW250747   4.102   1.261   7.595 -0.1082  2.3597  0.1333
48304SOL     OW50748   8.478   9.775   6.746 -0.1081 -0.4233  0.0339
48304SOL    HW150749   8.527   9.753   6.666 -0.4963  0.1472 -0.3764
48304SOL    HW250750   8.545   9.808   6.806  0.2096 -0.9896 -0.0078
48305SOL     OW50751   2.342   5.599   5.836  0.3190  0.4519 -0.2987
48305SOL    HW150752   2.258   5.566   5.804  1.6013 -3.7957  0.0815
48305SOL    HW250753   2.404   5.577   5.767  1.4587  1.4950  0.3579
48306SOL     OW50754   6.656   5.228   2.572 -0.1216  0.2031  0.2237
48306SOL    HW150755   6.697   5.314   2.569  1.2265 -0.4350 -1.8134
48306SOL    HW250756   6.565   5.244   2.546  0.0909  1.0107 -0.0646
48307SOL     OW50757   8.071  10.511   6.160  0.2769  0.4717 -0.6413
48307SOL    HW150758   8.078  10.566   6.238 -0.4670 -1.0732  0.5870
48307SOL    HW250759   8.017  10.437   6.189  2.4613 -1.6560 -1.7463
48308SOL     OW50760   9.874   1.432   4.308  0.2909 -0.1181  0.0030
48308SOL    HW150761   9.937   1.486   4.356 -1.1398  1.5988  0.0592
48308SOL    HW250762   9.897   1.445   4.216 -0.1032  0.6845  0.0121
48309SOL     OW50763   9.442   7.693   5.717  0.1756 -0.3106 -0.2572
48309SOL    HW150764   9.494   7.733   5.647 -0.6988  0.3320 -0.5607
48309SOL    HW250765   9.477   7.731   5.797  0.9724 -0.8055 -0.3682
48310SOL     OW50766  12.237   0.238   7.561 -0.2478 -0.7000  0.1304
48310SOL    HW150767  12.214   0.175   7.629  0.7890  0.1108  1.2924
48310SOL    HW250768  12.313   0.199   7.518 -0.0728 -0.5988  0.3446
48311SOL     OW50769   2.643   6.792   8.797  0.0043 -0.3800  0.0175
48311SOL    HW150770   2.732   6.808   8.766  0.6063 -0.5687  1.5276
48311SOL    HW250771   2.621   6.871   8.846  0.1310 -1.1154  1.3028
48312SOL     OW50772   2.467   9.963  10.419  0.1427 -0.3514 -0.0312
48312SOL    HW150773   2.541   9.903  10.424  1.1237  0.8461  0.4033
48312SOL    HW250774   2.469   9.996  10.329  0.4614  0.0555  0.1201
48313SOL     OW50775  10.199   9.725   6.263  0.7805 -0.2233 -0.2757
48313SOL    HW150776  10.108   9.718   6.233  0.7525  2.6426 -1.1346
48313SOL    HW250777  10.251   9.698   6.188  0.6543 -0.4483 -0.2829
48314SOL     OW50778   0.743   8.321   4.100 -0.5055 -0.2479  0.5553
48314SOL    HW150779   0.678   8.351   4.037  0.2072 -2.4093 -1.3565
48314SOL    HW250780   0.810   8.389   4.099 -0.7373 -0.0127 -0.7166
48315SOL     OW50781   6.870   6.146   6.410  0.4315  0.0343  0.0618
48315SOL    HW150782   6.882   6.172   6.501  0.6473 -1.5308  0.5064
48315SOL    HW250783   6.890   6.225   6.360 -1.6581  1.5251  1.4158
48316SOL     OW50784   4.988   2.086   2.280  0.0767 -0.0852  0.2702
48316SOL    HW150785   5.044   2.026   2.231 -1.3630 -1.5435  0.3024
48316SOL    HW250786   4.940   2.135   2.214 -0.4144 -0.6264  0.2204
48317SOL     OW50787   0.231   0.365   4.315 -0.6394 -0.4172 -0.6704
48317SOL    HW150788   0.154   0.317   4.345 -0.6868  0.6685  1.0547
48317SOL    HW250789   0.235   0.442   4.371  1.5309 -0.2860 -0.9174
48318SOL     OW50790   9.657  11.084   8.525  0.2048 -0.1698  0.0776
48318SOL    HW150791   9.717  11.073   8.598 -0.5205 -0.7029  0.6139
48318SOL    HW250792   9.651  11.178   8.512  3.4848 -0.0992 -1.9937
48319SOL     OW50793  11.202   8.826  10.462  0.0471  0.2901  0.1747
48319SOL    HW150794  11.270   8.817  10.528  0.8709  0.1803 -0.6752
48319SOL    HW250795  11.249   8.847  10.381 -0.9075  0.0572 -0.4599
48320SOL     OW50796   1.571   7.793   4.173  0.3842  0.4361  0.2715
48320SOL    HW150797   1.603   7.853   4.106  0.2206 -0.3484 -0.5317
48320SOL    HW250798   1.619   7.712   4.157  1.2794  0.6120  1.9185
48321SOL     OW50799  11.423   1.652   9.859  0.9501  0.1036 -0.3236
48321SOL    HW150800  11.482   1.694   9.921 -1.0175  0.3578  1.5089
48321SOL    HW250801  11.389   1.576   9.906  1.5435 -1.4045 -2.1856
48322SOL     OW50802   6.285   0.221   6.116  0.1288  0.4465 -0.1102
48322SOL    HW150803   6.286   0.157   6.187  0.9498  0.3493 -0.2083
48322SOL    HW250804   6.320   0.175   6.040 -0.9349  0.4865 -0.6552
48323SOL     OW50805   3.663   0.264   5.711 -0.5981 -0.1909  0.0489
48323SOL    HW150806   3.599   0.321   5.668  0.0737  0.8648  0.3937
48323SOL    HW250807   3.610   0.207   5.767 -1.2962  0.1344 -0.2628
48324SOL     OW50808   2.674   7.769   9.496 -0.2269 -0.1105  0.0787
48324SOL    HW150809   2.722   7.686   9.497  0.0958  0.0761  0.9681
48324SOL    HW250810   2.730   7.828   9.446  0.0093 -0.1638  0.2782
48325SOL     OW50811   9.328   7.609   3.328 -0.1538 -0.3440  0.3441
48325SOL    HW150812   9.234   7.628   3.320  0.0281 -0.0143 -1.3327
48325SOL    HW250813   9.370   7.695   3.320  0.3059 -0.4863  1.1429
48326SOL     OW50814   9.214   8.185   4.353  0.2910 -0.2002 -0.1264
48326SOL    HW150815   9.190   8.229   4.435  0.1998 -2.6677  1.2816
48326SOL    HW250816   9.246   8.255   4.297 -1.7171  1.9348  1.1970
48327SOL     OW50817   2.654   0.864   7.626  0.8833  0.5606  0.2633
48327SOL    HW150818   2.611   0.922   7.563  0.4512 -1.8125 -1.7548
48327SOL    HW250819   2.585   0.805   7.655  1.6304  0.0813  1.0988
48328SOL     OW50820   5.022   7.596   2.570 -0.3067  0.2973  0.9567
48328SOL    HW150821   5.066   7.678   2.546 -0.4574  0.2763  0.5954
48328SOL    HW250822   5.084   7.528   2.542 -1.4871  0.1740 -1.6888
48329SOL     OW50823  11.697  11.348   8.163 -0.2101 -0.1014 -0.0226
48329SOL    HW150824  11.737  11.297   8.092 -0.0777  0.1364 -0.1183
48329SOL    HW250825  11.768  11.361   8.225 -0.4099 -0.5945  0.3143
48330SOL     OW50826   0.556  10.576   2.629  0.1720  0.1223  0.1601
48330SOL    HW150827   0.510  10.628   2.695  0.0192  0.9410 -0.5767
48330SOL    HW250828   0.490  10.515   2.596  0.3178 -0.4672  0.9339
48331SOL     OW50829   2.309   8.195   8.356 -1.0438 -0.9683 -0.1225
48331SOL    HW150830   2.240   8.237   8.406 -1.5719 -0.2734 -1.3742
48331SOL    HW250831   2.388   8.244   8.377 -0.5785 -2.5669  2.3260
48332SOL     OW50832   3.940   3.261   3.193  0.6167 -0.3322  0.3306
48332SOL    HW150833   4.007   3.278   3.259  1.2164 -0.8553 -0.1220
48332SOL    HW250834   3.910   3.347   3.165  1.4429 -0.0785  0.2069
48333SOL     OW50835  11.698   5.140   1.720 -0.1229  1.0507 -0.4267
48333SOL    HW150836  11.718   5.093   1.801  0.0165 -0.3444 -1.2289
48333SOL    HW250837  11.670   5.227   1.748  1.4475  1.1283  1.0336
48334SOL     OW50838   9.706   0.691   0.483  0.0941 -0.5431  0.0575
48334SOL    HW150839   9.731   0.772   0.528 -2.2462  0.9095 -1.0331
48334SOL    HW250840   9.612   0.700   0.469  0.3143 -1.9423 -3.0441
48335SOL     OW50841   8.360   3.381   8.863 -0.5559 -0.3916  0.3542
48335SOL    HW150842   8.425   3.324   8.905  1.3658  0.7048 -1.0054
48335SOL    HW250843   8.411   3.453   8.826 -2.4752  0.1630 -1.4013
48336SOL     OW50844   1.682   5.482  12.023 -0.0390  0.2692 -0.0963
48336SOL    HW150845   1.696   5.549  12.091 -0.5821  1.8143 -1.4408
48336SOL    HW250846   1.606   5.513  11.974  0.4680 -0.6847 -1.5570
48337SOL     OW50847   4.060   8.050  10.269  0.2136  0.1269 -0.0879
48337SOL    HW150848   4.103   8.038  10.185  0.0789 -1.3444  0.0281
48337SOL    HW250849   4.128   8.033  10.334 -0.1533 -0.7060  0.0908
48338SOL     OW50850   8.675   1.344   6.049 -0.4355 -0.3056 -0.8293
48338SOL    HW150851   8.748   1.401   6.072 -0.8533 -0.5478  1.2840
48338SOL    HW250852   8.644   1.378   5.965  1.2724  0.5931 -1.1419
48339SOL     OW50853   5.508   7.748   5.772  0.2036  0.4922  0.5348
48339SOL    HW150854   5.593   7.721   5.735 -0.5951  0.1574 -1.1625
48339SOL    HW250855   5.456   7.774   5.696 -1.6298 -0.4435  1.4013
48340SOL     OW50856   4.060   4.334   5.783 -0.4235 -0.5110 -0.3826
48340SOL    HW150857   4.011   4.412   5.811  0.3343  0.1875 -0.9407
48340SOL    HW250858   4.048   4.272   5.854 -0.3124  0.4424  0.5004
48341SOL     OW50859   4.956   9.730   0.160  0.4476 -0.2261  0.1462
48341SOL    HW150860   4.888   9.780   0.116 -0.2432  0.4759  1.8943
48341SOL    HW250861   4.921   9.717   0.249  3.7896  2.8753  2.1815
48342SOL     OW50862   9.032   1.510   4.889  0.2009 -0.2183 -0.4918
48342SOL    HW150863   9.115   1.492   4.933 -0.5020  0.0125  0.9864
48342SOL    HW250864   9.057   1.556   4.809  1.5076 -0.2661 -0.1339
48343SOL     OW50865   9.796   4.791   1.771 -0.0008 -0.6645 -0.2358
48343SOL    HW150866   9.776   4.704   1.736  0.4857 -2.0673  2.7168
48343SOL    HW250867   9.710   4.830   1.790 -0.2310 -0.2831 -1.8373
48344SOL     OW50868   4.928   7.666   9.013 -0.5370  1.1141 -0.6187
48344SOL    HW150869   4.887   7.580   9.006  2.2343 -0.2841 -0.9331
48344SOL    HW250870   5.008   7.658   8.961 -0.8951  4.3832 -1.8878
48345SOL     OW50871   9.083   6.862   6.523  0.8101  0.0732 -0.0022
48345SOL    HW150872   9.132   6.794   6.569  2.9028  0.9329 -0.8094
48345SOL    HW250873   9.083   6.834   6.431 -1.8067 -0.7617  0.1670
48346SOL     OW50874  11.667   3.357  10.392  0.4107  0.7653  0.4884
48346SOL    HW150875  11.589   3.321  10.434  0.3254 -1.1347 -1.1210
48346SOL    HW250876  11.639   3.378  10.303  1.9251 -1.0582 -0.4944
48347SOL     OW50877   7.591   8.660   2.044  0.0903  0.4899  1.4036
48347SOL    HW150878   7.620   8.750   2.058 -0.4573  0.5771  1.9841
48347SOL    HW250879   7.530   8.642   2.115 -0.5962  0.0062  0.7142
48348SOL     OW50880   1.896   9.209   8.457  0.0511 -0.3860 -0.1269
48348SOL    HW150881   1.936   9.205   8.371  2.7332 -2.5254  1.0583
48348SOL    HW250882   1.826   9.143   8.454 -0.4894  0.2042 -0.8943
48349SOL     OW50883   9.711  10.941   5.053 -0.0230 -0.5463  0.3703
48349SOL    HW150884   9.691  10.850   5.034 -2.9488  0.0210  0.0962
48349SOL    HW250885   9.718  10.945   5.149 -0.3916 -0.9906  0.4169
48350SOL     OW50886   7.066  10.540  12.291  0.7041  0.0436  0.0192
48350SOL    HW150887   7.066  10.634  12.271  1.1659 -0.0034 -0.2108
48350SOL    HW250888   7.026  10.535  12.378  0.8662  0.4755  0.1252
48351SOL     OW50889   5.643   1.559   1.502 -0.0650  0.2058 -0.7997
48351SOL    HW150890   5.688   1.487   1.547  1.0074  1.7461  0.7438
48351SOL    HW250891   5.628   1.526   1.414  1.2863 -1.5459 -0.4452
48352SOL     OW50892   6.446   9.639   7.112  0.5618  0.0133  0.2781
48352SOL    HW150893   6.447   9.616   7.019 -0.9462 -1.2293  0.5246
48352SOL    HW250894   6.436   9.734   7.113  1.1421  0.1079 -0.8092
48353SOL     OW50895   1.422   4.979   2.213 -0.2863 -0.5234 -0.0830
48353SOL    HW150896   1.356   5.047   2.226 -1.9762 -1.6810 -2.0140
48353SOL    HW250897   1.439   4.945   2.301 -1.8474  0.1904  0.5326
48354SOL     OW50898   3.223   0.648   1.385  0.5208 -0.3308  0.1805
48354SOL    HW150899   3.296   0.693   1.343 -0.7462  1.8167  0.1628
48354SOL    HW250900   3.207   0.572   1.329  0.8991  0.7302 -1.4248
48355SOL     OW50901   7.696   7.550   0.266  0.2966 -0.1584 -0.5032
48355SOL    HW150902   7.672   7.601   0.343  1.1217 -1.4755  0.6668
48355SOL    HW250903   7.637   7.474   0.268  0.0751 -0.0222 -1.3819
48356SOL     OW50904  11.109   3.234   2.990  0.8693 -0.1642 -0.2066
48356SOL    HW150905  11.042   3.250   3.056  0.4961  0.7368 -0.7854
48356SOL    HW250906  11.125   3.139   2.994  1.2131 -0.0697  1.5011
48357SOL     OW50907   4.087   4.176   5.296  0.3494 -0.0430 -0.5166
48357SOL    HW150908   4.137   4.123   5.357  1.9770  4.0431  2.0866
48357SOL    HW250909   4.013   4.210   5.347 -0.2304  0.7809 -1.8346
48358SOL     OW50910   1.827   0.602   5.288 -0.3842  0.2123  0.2353
48358SOL    HW150911   1.744   0.624   5.246 -1.0722 -0.0183  1.4402
48358SOL    HW250912   1.805   0.590   5.380  0.6398 -1.8184  0.2637
48359SOL     OW50913  12.081   4.264   2.240 -0.0966  0.5131 -0.1164
48359SOL    HW150914  12.065   4.176   2.273  1.1919 -0.5762 -2.1449
48359SOL    HW250915  12.072   4.321   2.317 -0.5970 -1.4057  1.3276
48360SOL     OW50916   1.230   5.625   6.317  0.3598  0.6260 -0.5279
48360SOL    HW150917   1.168   5.645   6.247  0.1633 -1.4282 -1.0198
48360SOL    HW250918   1.209   5.687   6.387 -0.2322  1.9282 -1.8141
48361SOL     OW50919   5.363   9.693  12.051  0.3254  0.1320  0.1515
48361SOL    HW150920   5.348   9.635  12.125 -0.0472  0.7130  0.5373
48361SOL    HW250921   5.345   9.781  12.085  1.5163  0.5505 -0.2328
48362SOL     OW50922   4.675   1.312   9.343  0.5930  0.2859  0.2828
48362SOL    HW150923   4.740   1.382   9.337  0.9420 -0.0500  0.1016
48362SOL    HW250924   4.660   1.302   9.437  0.5907  0.5547  0.3134
48363SOL     OW50925   6.313   7.813   5.838  0.2513 -0.2863 -0.0987
48363SOL    HW150926   6.321   7.898   5.795  0.4626 -0.0739  0.3485
48363SOL    HW250927   6.337   7.830   5.929  0.2658 -0.8203  0.0020
48364SOL     OW50928   9.641   7.885   6.693 -0.4046  0.1105 -0.2647
48364SOL    HW150929   9.596   7.967   6.673  1.2314  1.1306 -0.0242
48364SOL    HW250930   9.692   7.904   6.772  1.4086 -0.5346 -1.2117
48365SOL     OW50931   8.714   9.781   5.032 -0.2020 -0.3208  0.7195
48365SOL    HW150932   8.703   9.690   5.004 -0.5462  0.4911 -2.0748
48365SOL    HW250933   8.625   9.811   5.051 -0.1893 -0.2755  0.7051
48366SOL     OW50934   3.812   3.632  12.104  0.2255 -0.0384 -0.0772
48366SOL    HW150935   3.753   3.702  12.076  0.3477 -0.0825 -0.4527
48366SOL    HW250936   3.755   3.567  12.146  0.0437  0.0478 -0.1915
48367SOL     OW50937  11.264   8.271   6.300 -0.4824  0.2445  0.2893
48367SOL    HW150938  11.355   8.253   6.321  0.6544  2.0213 -2.4552
48367SOL    HW250939  11.265   8.298   6.208 -3.4832  2.2353  0.6671
48368SOL     OW50940   7.142   5.413   7.133 -0.3031  0.6412  0.0315
48368SOL    HW150941   7.215   5.375   7.181 -0.6440  0.8586  0.7335
48368SOL    HW250942   7.183   5.479   7.076 -0.0324  1.3155  0.9919
48369SOL     OW50943   2.244  12.200   0.180 -0.2446  0.4804  0.1357
48369SOL    HW150944   2.233  12.206   0.085  0.4937 -0.7341 -0.0532
48369SOL    HW250945   2.339  12.200   0.194 -0.2768 -1.2786  0.6805
48370SOL     OW50946   6.407  11.017   5.276  0.0161  0.3508  0.4357
48370SOL    HW150947   6.364  10.942   5.318 -0.3726  0.0565 -0.4587
48370SOL    HW250948   6.337  11.058   5.225  0.6847  0.1651 -0.6452
48371SOL     OW50949   1.705   7.861  10.286 -0.3633  0.1643 -0.5758
48371SOL    HW150950   1.781   7.822  10.243 -1.1690 -0.7407 -1.2028
48371SOL    HW250951   1.670   7.792  10.342  0.6715  1.3157  1.6188
48372SOL     OW50952   0.056   3.382   7.871  0.2991 -0.3277 -0.0558
48372SOL    HW150953  -0.038   3.397   7.885 -0.0049 -1.2573 -0.9405
48372SOL    HW250954   0.099   3.457   7.912 -0.8492  0.2600  0.1174
48373SOL     OW50955   0.064   3.484   4.951  0.1520 -0.3925  0.1068
48373SOL    HW150956  -0.015   3.507   5.000 -0.9595 -2.1584 -0.7637
48373SOL    HW250957   0.135   3.527   4.999 -1.1566  0.0196  1.7819
48374SOL     OW50958   2.825   0.325   7.802  0.5022  0.4217  0.8943
48374SOL    HW150959   2.917   0.313   7.823 -0.1184 -2.0202  2.6014
48374SOL    HW250960   2.778   0.285   7.875 -1.9444  1.3582 -0.0451
48375SOL     OW50961   7.698   9.128   3.422  0.5553  0.6220  0.1560
48375SOL    HW150962   7.685   9.213   3.464  1.5430  0.5179  0.7043
48375SOL    HW250963   7.701   9.066   3.495 -2.9425 -0.3361 -0.3278
48376SOL     OW50964   7.123   6.008   6.770 -0.4308 -0.2128 -0.4580
48376SOL    HW150965   7.101   6.041   6.683 -0.6571 -0.3681 -0.4620
48376SOL    HW250966   7.134   6.087   6.823  2.7971  0.0171 -1.3133
48377SOL     OW50967   6.875   6.167   0.483  0.3987  0.4694 -0.9039
48377SOL    HW150968   6.860   6.241   0.424 -2.8400  0.6324 -0.0650
48377SOL    HW250969   6.921   6.205   0.558 -0.2191  1.3957 -0.9861
48378SOL     OW50970  11.495   5.151   3.131  0.2608  0.0776 -0.0586
48378SOL    HW150971  11.447   5.073   3.161  0.3617  0.1902  0.4144
48378SOL    HW250972  11.544   5.179   3.209  1.9341 -0.6618 -0.8046
48379SOL     OW50973   1.137   9.079  10.866 -0.1201  0.5420 -0.0221
48379SOL    HW150974   1.195   9.133  10.813  0.5277 -0.9143 -0.8266
48379SOL    HW250975   1.084   9.143  10.915  2.3006  1.9351  0.9583
48380SOL     OW50976   6.238   7.557   3.048 -0.1522 -0.0050  0.2035
48380SOL    HW150977   6.315   7.553   3.106  1.9221 -1.5288 -2.4378
48380SOL    HW250978   6.237   7.473   3.003 -3.3409  0.0330 -0.0429
48381SOL     OW50979   3.480   4.243   6.582  0.7757 -0.5360 -0.7785
48381SOL    HW150980   3.529   4.320   6.552 -3.2209  2.2507 -1.0888
48381SOL    HW250981   3.460   4.195   6.502  0.5825 -0.0424 -1.0345
48382SOL     OW50982   7.061   2.118   9.505 -0.3229  0.8000 -0.0159
48382SOL    HW150983   7.059   2.206   9.468  2.4882  0.3358 -1.5437
48382SOL    HW250984   7.145   2.112   9.550 -0.7142 -0.9407  0.5809
48383SOL     OW50985  11.297   6.416   8.692  0.0296 -0.0101  0.9983
48383SOL    HW150986  11.297   6.485   8.758 -1.1642  0.6180  0.3753
48383SOL    HW250987  11.365   6.444   8.629 -1.6692  1.6491 -0.2365
48384SOL     OW50988   1.681   7.584   6.300 -0.1686 -0.2843 -0.8019
48384SOL    HW150989   1.602   7.600   6.248 -0.2176  0.7604 -0.4141
48384SOL    HW250990   1.748   7.638   6.258 -0.5851  1.9101  1.1498
48385SOL     OW50991   0.495   5.156   3.022  0.1347 -0.7768  0.1350
48385SOL    HW150992   0.580   5.155   2.978 -0.3882  2.5733 -1.2301
48385SOL    HW250993   0.441   5.096   2.971  1.3218 -2.2265  0.4654
48386SOL     OW50994   0.295   4.840   9.815 -0.1848 -0.0843 -0.3679
48386SOL    HW150995   0.363   4.902   9.787  0.4413 -0.7935 -0.4809
48386SOL    HW250996   0.265   4.800   9.733 -1.4310  0.8975 -0.4146
48387SOL     OW50997   4.314   4.851  10.582 -0.4187 -0.2025  0.5735
48387SOL    HW150998   4.351   4.921  10.528 -1.7590 -1.1485 -1.7594
48387SOL    HW250999   4.389   4.799  10.610  0.3216 -0.1871 -1.2258
48388SOL     OW51000   6.527   8.577  10.503  0.3015 -0.6267 -0.9061
48388SOL    HW151001   6.591   8.611  10.566  0.4287 -1.5318 -0.5283
48388SOL    HW251002   6.574   8.576  10.419  0.6863 -0.9902 -0.6899
48389SOL     OW51003  10.373  11.175  12.303 -0.3324 -0.2886  0.1132
48389SOL    HW151004  10.440  11.187  12.236 -0.6038  1.7872  0.1580
48389SOL    HW251005  10.295  11.214  12.265 -0.3386  1.4849  1.8388
48390SOL     OW51006  10.383  12.330   5.056  0.6411 -0.0098 -0.1053
48390SOL    HW151007  10.319  12.394   5.025 -0.7163 -0.0002  2.3882
48390SOL    HW251008  10.458  12.340   4.998  0.2873  3.4637 -0.1604
48391SOL     OW51009   2.470   2.490   0.351  0.5594  0.2041 -0.0814
48391SOL    HW151010   2.512   2.446   0.277  1.3805 -1.1600  1.1415
48391SOL    HW251011   2.503   2.579   0.348  1.1066 -0.0138 -0.9499
48392SOL     OW51012   1.585   1.289  10.219  0.6913  0.1399 -0.2165
48392SOL    HW151013   1.595   1.264  10.127  1.5840  0.0271 -0.0981
48392SOL    HW251014   1.598   1.384  10.219 -0.2779  0.2904 -0.3259
48393SOL     OW51015   2.799   3.172   5.004 -0.0369  0.5110 -0.3165
48393SOL    HW151016   2.798   3.133   5.091  1.7368  1.5105  0.2000
48393SOL    HW251017   2.818   3.265   5.019  2.5007  0.3204 -1.8304
48394SOL     OW51018   0.389   4.280  10.553 -0.2505  0.4065  0.3583
48394SOL    HW151019   0.309   4.330  10.537  0.0734  1.0690  0.7710
48394SOL    HW251020   0.435   4.329  10.622  0.2086 -0.3078  0.5745
48395SOL     OW51021   2.196   8.165  11.728 -0.4552 -0.2413  0.0851
48395SOL    HW151022   2.203   8.260  11.732  0.9041 -0.3251  0.1006
48395SOL    HW251023   2.286   8.133  11.738 -1.0112 -1.5759  1.4039
48396SOL     OW51024   1.384   2.476   9.470  0.1338 -0.2067  0.0596
48396SOL    HW151025   1.412   2.462   9.379 -0.4582 -0.9645 -0.0169
48396SOL    HW251026   1.294   2.507   9.462  0.7002  1.6010  0.3271
48397SOL     OW51027   5.014   3.915  10.268  0.1726  0.1486  0.4089
48397SOL    HW151028   4.976   3.889  10.351  3.6268 -1.3459  1.7439
48397SOL    HW251029   5.074   3.987  10.291  1.8224 -0.8540 -0.5177
48398SOL     OW51030   0.662   3.580   1.662  0.2926 -0.4938  0.2944
48398SOL    HW151031   0.680   3.641   1.734 -0.6876  0.9304 -0.6072
48398SOL    HW251032   0.707   3.500   1.686  1.8945  0.6816  1.3948
48399SOL     OW51033   2.773   8.821   6.513 -0.0346 -0.4204  0.3768
48399SOL    HW151034   2.760   8.736   6.556 -1.2494  0.8924  2.7960
48399SOL    HW251035   2.765   8.802   6.419 -2.0973 -2.6866  0.9167
48400SOL     OW51036  10.166  10.525   0.234  0.1240  0.2934  0.5460
48400SOL    HW151037  10.251  10.556   0.265  0.5496  1.0717 -1.2642
48400SOL    HW251038  10.103  10.561   0.297  0.7906  3.3215 -0.3659
48401SOL     OW51039   9.081   4.029  11.108 -0.2583 -0.1515 -0.6460
48401SOL    HW151040   9.064   3.937  11.087 -0.1334 -0.1303 -0.8428
48401SOL    HW251041   9.140   4.059  11.039  1.1176 -0.4045  0.3796
48402SOL     OW51042  10.580   5.676   5.667 -0.5231 -0.3907 -0.4712
48402SOL    HW151043  10.568   5.767   5.694 -0.8798 -0.9485  1.3448
48402SOL    HW251044  10.492   5.638   5.670 -0.1442 -1.2358  0.4890
48403SOL     OW51045   9.163   6.163   5.202 -0.1111  0.3697 -0.2413
48403SOL    HW151046   9.093   6.190   5.143 -0.7046 -0.1514  0.2178
48403SOL    HW251047   9.165   6.231   5.269  0.8817  1.2219 -1.0815
48404SOL     OW51048   7.588  11.606   1.514 -0.0739 -0.8720  0.2131
48404SOL    HW151049   7.554  11.555   1.588 -0.7404 -2.0855 -0.8866
48404SOL    HW251050   7.553  11.561   1.437  0.4051  0.5078 -0.8350
48405SOL     OW51051  11.480  10.760   4.485 -0.3115  0.7468  0.0961
48405SOL    HW151052  11.405  10.802   4.443  0.4661  1.1053 -0.9766
48405SOL    HW251053  11.555  10.817   4.463  0.4004 -0.0086  0.5052
48406SOL     OW51054   7.059   2.325   6.386  0.6445  0.4880  0.1745
48406SOL    HW151055   6.988   2.369   6.433  1.0596  0.4840  0.8283
48406SOL    HW251056   7.017   2.283   6.312 -0.0250  0.5262  0.5269
48407SOL     OW51057  10.506  10.383   3.711  0.3263 -0.1314 -0.3018
48407SOL    HW151058  10.562  10.444   3.759  1.5642 -1.0241 -0.5688
48407SOL    HW251059  10.503  10.305   3.766 -0.4128 -0.2017 -0.4402
48408SOL     OW51060   3.308   1.864   8.346  0.4025  0.1205 -0.7168
48408SOL    HW151061   3.246   1.932   8.371  1.8498  0.7313  1.6541
48408SOL    HW251062   3.367   1.907   8.284  1.4934  1.2192  0.9997
48409SOL     OW51063   4.515   6.291   3.602 -0.5895  0.6927  0.1058
48409SOL    HW151064   4.448   6.258   3.662  0.1474  0.4964  0.8515
48409SOL    HW251065   4.598   6.274   3.647  0.0070  0.3466 -1.0696
48410SOL     OW51066   3.693   3.830   6.777  0.5252 -0.4181 -0.2223
48410SOL    HW151067   3.599   3.845   6.790  0.2065 -1.4751 -1.1627
48410SOL    HW251068   3.709   3.862   6.688  1.2956  0.7306  0.3056
48411SOL     OW51069   5.397   1.837  10.128  0.0214 -0.0513 -0.5216
48411SOL    HW151070   5.410   1.914  10.183 -0.0301 -1.7465  2.0044
48411SOL    HW251071   5.308   1.847  10.093 -1.5964 -0.7364  2.9680
48412SOL     OW51072   6.886   3.414   2.911  0.3337  0.1205 -0.5064
48412SOL    HW151073   6.920   3.327   2.894  0.3116 -0.1346  0.6422
48412SOL    HW251074   6.962   3.464   2.942  0.1385  0.2094 -0.1643
48413SOL     OW51075  10.747   2.809  11.546 -0.4092 -0.3282 -0.0768
48413SOL    HW151076  10.658   2.827  11.516 -0.3520  1.3103  0.5933
48413SOL    HW251077  10.803   2.843  11.476 -0.3103  1.6859  0.8931
48414SOL     OW51078   8.124   0.343   5.150 -0.4524 -0.3362 -0.0592
48414SOL    HW151079   8.213   0.368   5.124 -0.7696  0.4418 -0.4397
48414SOL    HW251080   8.067   0.403   5.102 -1.3328 -2.3685 -1.6917
48415SOL     OW51081   7.801   0.626   5.854  0.7068  0.4582 -0.8041
48415SOL    HW151082   7.860   0.573   5.800 -2.1991 -2.8514 -1.0380
48415SOL    HW251083   7.758   0.563   5.912 -2.4279  2.6352 -0.5226
48416SOL     OW51084   7.462  10.985   0.713 -0.7195 -0.0467  0.1000
48416SOL    HW151085   7.380  11.015   0.675 -1.6841 -2.4985  0.0292
48416SOL    HW251086   7.439  10.966   0.805 -0.1498 -0.4337  0.1625
48417SOL     OW51087   8.173  10.049  11.912 -0.3221 -0.2039 -0.1115
48417SOL    HW151088   8.263  10.050  11.879  0.0814 -0.8596  0.9238
48417SOL    HW251089   8.129   9.981  11.861 -0.7844  1.3968 -1.9523
48418SOL     OW51090  11.739   2.288   4.858 -0.1252 -0.0791 -0.0821
48418SOL    HW151091  11.782   2.217   4.906  0.9481  1.4414  1.3128
48418SOL    HW251092  11.676   2.244   4.801 -1.0360 -2.0567  2.2694
48419SOL     OW51093   4.030   3.944   1.074 -0.2172  0.4725 -0.2378
48419SOL    HW151094   4.052   3.929   0.981  0.6362  1.5854 -0.2392
48419SOL    HW251095   4.115   3.943   1.118 -0.3866  2.1909  0.1799
48420SOL     OW51096   6.474   4.036  10.622  0.0097  0.5289 -0.3948
48420SOL    HW151097   6.480   3.977  10.697 -0.5453 -0.4041 -1.0724
48420SOL    HW251098   6.565   4.052  10.597  0.1478 -1.2922 -1.1602
48421SOL     OW51099  11.396  10.744   9.879 -0.2437  0.1934  0.6032
48421SOL    HW151100  11.449  10.704   9.948  3.9067  3.2125 -0.4935
48421SOL    HW251101  11.423  10.699   9.799 -0.6835  0.6334  0.1994
48422SOL     OW51102   3.144  11.574   4.884 -0.3482 -0.1694 -0.0147
48422SOL    HW151103   3.144  11.484   4.849  0.8956 -0.3489  0.3836
48422SOL    HW251104   3.076  11.619   4.834 -0.1449 -1.0116 -1.0988
48423SOL     OW51105  12.197   2.240  11.462  0.3205  0.0432 -0.3072
48423SOL    HW151106  12.112   2.204  11.485 -0.2205  1.1249 -0.5391
48423SOL    HW251107  12.215   2.205  11.374  1.5252 -2.5735  0.8683
48424SOL     OW51108   4.898   3.805  11.869  0.5895  0.1599 -0.0847
48424SOL    HW151109   4.913   3.825  11.777 -1.3016 -0.5561 -0.6104
48424SOL    HW251110   4.878   3.890  11.909 -0.0963  0.2955 -0.6908
48425SOL     OW51111   6.949   9.232   7.817 -0.0101 -0.4458 -0.5517
48425SOL    HW151112   6.923   9.196   7.902  1.0997  0.5242  0.2338
48425SOL    HW251113   6.899   9.181   7.753 -2.1068 -0.1334  0.7414
48426SOL     OW51114   6.266   1.362   6.753 -0.1721 -0.8480  0.0018
48426SOL    HW151115   6.324   1.289   6.733 -0.4509 -0.5589 -2.1288
48426SOL    HW251116   6.289   1.430   6.689 -1.9988 -0.2670 -0.1212
48427SOL     OW51117   8.305   4.807   3.705 -0.1737 -0.0103 -0.3317
48427SOL    HW151118   8.362   4.873   3.744 -1.7541  2.1724 -1.5038
48427SOL    HW251119   8.242   4.786   3.773 -0.7110  1.0346 -0.4886
48428SOL     OW51120   7.945  11.960   3.858  0.0249  0.6969 -0.2409
48428SOL    HW151121   8.006  11.890   3.836 -1.3932 -0.3535 -0.9478
48428SOL    HW251122   7.921  11.999   3.774  0.2965  1.6375  0.0944
48429SOL     OW51123  10.689   9.624   1.132 -0.1369  0.7153  0.1300
48429SOL    HW151124  10.606   9.652   1.170  0.0225  1.0729  0.2129
48429SOL    HW251125  10.693   9.530   1.151  0.4388  1.0669  1.9822
48430SOL     OW51126   0.810   7.026  11.103  0.2120 -0.3847  0.0189
48430SOL    HW151127   0.801   7.121  11.103  2.3981  0.0572 -3.6169
48430SOL    HW251128   0.736   6.995  11.051  0.1016 -0.5556  0.2771
48431SOL     OW51129   6.112   6.031   3.723 -0.5080 -0.0742  0.1206
48431SOL    HW151130   6.205   6.052   3.731 -0.4855  0.1525 -0.6532
48431SOL    HW251131   6.083   6.016   3.813  0.2189  0.0904  0.3909
48432SOL     OW51132  10.303   8.819   1.772  0.2235  0.2960  0.0782
48432SOL    HW151133  10.277   8.903   1.734  1.4040  0.8293  0.3894
48432SOL    HW251134  10.279   8.754   1.707 -0.6578  0.8794 -0.1918
48433SOL     OW51135  10.450  11.362  11.200 -0.0912 -0.1531  0.4428
48433SOL    HW151136  10.423  11.418  11.273  0.9629  0.9203  0.0558
48433SOL    HW251137  10.540  11.336  11.222 -0.6111 -1.8178  0.6690
48434SOL     OW51138   6.867   3.511   8.056  0.1153  0.5792  0.0085
48434SOL    HW151139   6.929   3.466   8.113 -2.0775 -0.3304  1.8791
48434SOL    HW251140   6.904   3.599   8.045  1.8729 -0.0199  0.7313
48435SOL     OW51141  11.813  11.821   2.451 -0.0385  0.1937 -0.0701
48435SOL    HW151142  11.768  11.774   2.522 -1.6201  1.8270  0.0883
48435SOL    HW251143  11.767  11.794   2.372  2.4724 -2.5432 -0.7703
48436SOL     OW51144   2.833  10.374  11.799 -0.3053 -0.2804 -0.1692
48436SOL    HW151145   2.794  10.290  11.826 -0.4454 -0.0239  0.4440
48436SOL    HW251146   2.896  10.394  11.868  0.2532 -0.2328 -0.6830
48437SOL     OW51147   5.163   5.194  11.562  0.0089 -0.2687  0.1890
48437SOL    HW151148   5.178   5.283  11.529  0.0265 -0.6149 -0.7565
48437SOL    HW251149   5.202   5.194  11.649  0.3273  0.5454  0.0536
48438SOL     OW51150   6.408   2.028   7.502  0.3466 -0.3763 -0.2886
48438SOL    HW151151   6.354   2.020   7.580  1.4543 -0.2930  0.5156
48438SOL    HW251152   6.350   2.065   7.436 -0.2004  1.1052  0.9539
48439SOL     OW51153   9.731  11.527  11.053  0.0426  0.9633  0.5746
48439SOL    HW151154   9.808  11.584  11.065 -0.3526  1.7679 -0.5671
48439SOL    HW251155   9.663  11.569  11.105  0.5886 -0.2659  2.3560
48440SOL     OW51156   2.345  10.482  11.055  0.1596 -0.1519 -1.3353
48440SOL    HW151157   2.298  10.418  11.108  0.1791  0.3485 -0.7045
48440SOL    HW251158   2.424  10.436  11.026 -0.3905 -0.7878 -1.8682
48441SOL     OW51159   5.969   4.591   9.869 -0.2963  0.0114  0.0548
48441SOL    HW151160   6.019   4.663   9.907  0.8001 -0.0340 -1.2370
48441SOL    HW251161   5.897   4.633   9.824 -0.4256  0.1975  0.4284
48442SOL     OW51162   4.242   4.215   1.615  0.0262  0.3434  0.3551
48442SOL    HW151163   4.273   4.142   1.669 -1.0788 -0.6530 -0.2852
48442SOL    HW251164   4.147   4.216   1.629 -0.6498 -1.2319 -2.9304
48443SOL     OW51165   0.976   1.586   1.610 -0.0812 -0.1954  0.3622
48443SOL    HW151166   0.972   1.506   1.558 -0.0303  0.4622 -0.6894
48443SOL    HW251167   1.068   1.611   1.608 -0.4024  1.0538 -1.1978
48444SOL     OW51168   2.489  11.621   8.939 -0.4664 -0.2065  0.4925
48444SOL    HW151169   2.420  11.679   8.907 -0.0912  0.1023  0.2253
48444SOL    HW251170   2.569  11.674   8.935 -0.0961 -0.7688  0.1346
48445SOL     OW51171   2.664   9.041  11.836 -0.2429 -0.6255 -0.0060
48445SOL    HW151172   2.631   9.109  11.895  0.0689 -0.6031  0.1418
48445SOL    HW251173   2.690   8.969  11.894  0.5485 -0.4000 -0.0786
48446SOL     OW51174   7.836   8.891   1.873 -0.1111 -0.0192 -0.3613
48446SOL    HW151175   7.887   8.970   1.856  0.4849 -0.2924  0.1231
48446SOL    HW251176   7.796   8.906   1.959  1.8912 -1.1750  0.8461
48447SOL     OW51177   5.306   9.493   6.171  0.4582 -0.2753 -0.0806
48447SOL    HW151178   5.286   9.541   6.091 -1.4356  1.5508  1.3977
48447SOL    HW251179   5.221   9.477   6.212  1.4571  1.7596  3.1435
48448SOL     OW51180   1.522   3.145   0.543  0.4855  0.0357 -0.0852
48448SOL    HW151181   1.592   3.162   0.480  0.3205  1.6876  0.1510
48448SOL    HW251182   1.478   3.067   0.508  1.5575 -0.1884 -0.9975
48449SOL     OW51183   9.720  10.080   3.351  0.3218 -0.5586 -0.3994
48449SOL    HW151184   9.661  10.155   3.360  1.4982  0.3273  0.3931
48449SOL    HW251185   9.758  10.069   3.438  1.0768 -1.2961 -0.8048
48450SOL     OW51186   5.147   0.454  11.575  0.3907 -0.2269 -0.7279
48450SOL    HW151187   5.172   0.442  11.484  1.6500  0.1001 -0.4447
48450SOL    HW251188   5.053   0.436  11.577  0.4776 -0.8989 -1.9562
48451SOL     OW51189   4.952   9.886   5.063 -0.3117 -0.1540  0.1930
48451SOL    HW151190   4.953   9.914   5.155  0.4573 -1.1379  0.4985
48451SOL    HW251191   5.019   9.939   5.021 -1.0437  0.6940  0.0599
48452SOL     OW51192   3.156  11.219   7.247 -0.4439 -0.0407  0.0405
48452SOL    HW151193   3.248  11.196   7.232 -0.6521 -0.4659 -0.5891
48452SOL    HW251194   3.159  11.275   7.325  0.7175  2.6772 -1.7972
48453SOL     OW51195   5.745   5.036   3.513 -0.2894 -0.6562  0.1085
48453SOL    HW151196   5.784   5.089   3.444 -2.1195  0.2140 -0.3369
48453SOL    HW251197   5.817   4.983   3.546  1.0200  0.1523 -1.2840
48454SOL     OW51198   4.058   4.871   9.815  0.3743 -0.3467  0.2970
48454SOL    HW151199   4.129   4.820   9.856  0.9833  1.4330  1.5846
48454SOL    HW251200   4.071   4.960   9.847 -0.1467  0.8402 -2.5676
48455SOL     OW51201  10.671   8.168   1.491  0.1414 -0.3604  0.2886
48455SOL    HW151202  10.740   8.234   1.481 -0.8738  0.7983  0.6597
48455SOL    HW251203  10.671   8.120   1.409 -0.6668  1.6867 -0.9995
48456SOL     OW51204   4.102   1.648   4.694 -0.2687 -0.4441  0.3356
48456SOL    HW151205   4.060   1.668   4.610  1.8948 -2.1455 -1.2470
48456SOL    HW251206   4.155   1.725   4.714  0.1259 -0.4992 -0.4847
48457SOL     OW51207   2.125   2.220   4.136 -0.7836  0.4404  0.1684
48457SOL    HW151208   2.082   2.167   4.203 -0.1183  0.4364  0.6141
48457SOL    HW251209   2.217   2.221   4.163 -0.1437 -1.0753 -1.7335
48458SOL     OW51210   1.749  10.834   1.097 -0.8250 -0.1863 -0.1161
48458SOL    HW151211   1.705  10.851   1.181  1.1741  0.3534  0.8737
48458SOL    HW251212   1.841  10.855   1.113 -0.4923  0.6664 -2.6717
48459SOL     OW51213   3.404   1.092   0.394 -0.1579 -0.2648  0.5358
48459SOL    HW151214   3.324   1.047   0.368  1.1985 -1.8486 -1.1429
48459SOL    HW251215   3.464   1.022   0.419  1.2814  0.7394  0.0274
48460SOL     OW51216  10.474  11.514   5.211 -0.5476  0.2174  0.0776
48460SOL    HW151217  10.462  11.422   5.236 -1.0349  0.0033 -0.9055
48460SOL    HW251218  10.401  11.559   5.254  0.0176  0.2460  1.0319
48461SOL     OW51219  10.839  10.873   8.234  0.4169 -0.0523  0.1185
48461SOL    HW151220  10.864  10.800   8.178 -1.2865 -0.7444  0.1791
48461SOL    HW251221  10.763  10.911   8.191  0.6516  1.0292  0.6391
48462SOL     OW51222   4.014   3.900  10.923  0.0511  0.4938 -0.0940
48462SOL    HW151223   4.005   3.909  10.829 -0.3382 -1.7675 -0.3312
48462SOL    HW251224   4.078   3.830  10.935 -0.5958  0.0940  1.2798
48463SOL     OW51225  11.210   1.656   4.794  0.8443  0.4099  0.0809
48463SOL    HW151226  11.228   1.700   4.711  1.2110 -0.0551 -0.0906
48463SOL    HW251227  11.182   1.726   4.852 -0.6120  0.5822 -0.7724
48464SOL     OW51228  11.512   1.869   1.372 -0.8593  0.7088  0.9422
48464SOL    HW151229  11.508   1.965   1.374  3.7938  1.1735  0.2196
48464SOL    HW251230  11.544   1.848   1.285 -1.0096 -1.4510  1.3586
48465SOL     OW51231   9.658  11.390   7.987  0.3171  0.0354 -0.1606
48465SOL    HW151232   9.583  11.335   8.013 -0.9305  0.7649 -2.0430
48465SOL    HW251233   9.719  11.329   7.945 -1.4295  0.0768 -3.0183
48466SOL     OW51234   3.490   4.674   4.922  0.3845 -0.2802  0.5357
48466SOL    HW151235   3.442   4.651   5.002  1.3888 -1.2813  0.8844
48466SOL    HW251236   3.423   4.674   4.853 -0.5274  0.7770  1.3842
48467SOL     OW51237   3.865   7.547  10.237  0.4582 -0.2433  0.2007
48467SOL    HW151238   3.806   7.521  10.308  0.0307 -0.4856 -0.2363
48467SOL    HW251239   3.926   7.609  10.278 -1.6383  2.0488  0.1318
48468SOL     OW51240  11.940   6.115   8.337  0.2006  0.0978  0.6549
48468SOL    HW151241  11.929   6.209   8.323 -1.8014 -0.2411 -0.3046
48468SOL    HW251242  11.946   6.078   8.249 -1.9432 -0.9509  0.8817
48469SOL     OW51243   3.068   5.146   8.432  0.2170  0.3167  0.6506
48469SOL    HW151244   3.049   5.236   8.405  0.7542 -0.1992 -1.5830
48469SOL    HW251245   3.157   5.130   8.402  0.0207 -1.0733  0.7522
48470SOL     OW51246   0.502   5.829  10.756  0.1351 -0.7677  0.4275
48470SOL    HW151247   0.451   5.839  10.675 -0.6016 -3.3177  0.4982
48470SOL    HW251248   0.463   5.891  10.817  0.8989  1.4385 -1.1955
48471SOL     OW51249   4.780   1.319   5.744 -0.2124  0.3766 -0.2799
48471SOL    HW151250   4.867   1.359   5.743 -0.4743  0.9693 -1.5350
48471SOL    HW251251   4.723   1.386   5.781 -0.1435 -0.0297  0.5880
48472SOL     OW51252   8.162   5.230  11.878  0.1396  0.0369 -0.2760
48472SOL    HW151253   8.120   5.144  11.874  0.8928 -0.5156  2.0472
48472SOL    HW251254   8.173   5.247  11.972 -0.5280  2.9675 -0.6295
48473SOL     OW51255  12.072   1.959   4.069  0.1298 -0.3979 -0.3298
48473SOL    HW151256  12.099   2.044   4.035 -2.3885 -0.1529 -2.0132
48473SOL    HW251257  12.018   1.979   4.145  2.3224 -0.7496  1.4134
48474SOL     OW51258   3.270   5.510   9.429 -0.3151  0.3484 -0.3158
48474SOL    HW151259   3.343   5.536   9.485  0.0373 -0.1206 -0.5451
48474SOL    HW251260   3.229   5.438   9.476  0.0658 -0.1393 -0.7137
48475SOL     OW51261   5.112   5.287   6.985  0.0124  0.1919 -0.2667
48475SOL    HW151262   5.125   5.361   6.927 -0.0150  0.8084  0.4953
48475SOL    HW251263   5.055   5.227   6.936 -1.7124  1.6237 -0.0950
48476SOL     OW51264  11.840   5.120   7.721 -0.0802  0.0195  0.2395
48476SOL    HW151265  11.842   5.071   7.803  0.3556 -0.1451  0.1377
48476SOL    HW251266  11.853   5.054   7.653  2.3537  0.4438  0.1913
48477SOL     OW51267   2.341   3.793   8.540 -0.4924 -0.1299 -0.5840
48477SOL    HW151268   2.261   3.762   8.584  0.3830  0.4210  1.5066
48477SOL    HW251269   2.385   3.712   8.513  1.2703 -0.9819  3.9208
48478SOL     OW51270   2.727   3.752   0.700  0.5050  0.1906 -0.2139
48478SOL    HW151271   2.741   3.816   0.769  1.5950  2.6419 -2.5259
48478SOL    HW251272   2.804   3.694   0.704  0.5502  0.3079  0.6159
48479SOL     OW51273   9.099  10.182   0.753 -0.2481  0.3308  0.3436
48479SOL    HW151274   9.100  10.275   0.729 -2.6955  0.7634  1.5658
48479SOL    HW251275   9.007  10.156   0.745  0.0128 -1.3708  2.0935
48480SOL     OW51276   5.707   2.769  12.174 -0.2850  0.3724  0.0736
48480SOL    HW151277   5.626   2.796  12.217  0.2123  1.6419  0.2355
48480SOL    HW251278   5.688   2.681  12.141 -1.5118  0.3970  0.6670
48481SOL     OW51279   1.719   3.540   3.199  0.0708  0.3993 -0.4681
48481SOL    HW151280   1.717   3.467   3.261  1.1708 -1.6513 -2.6972
48481SOL    HW251281   1.810   3.567   3.198  0.1577  0.0855 -1.5179
48482SOL     OW51282   4.398   2.134   0.402  0.0277  0.3930 -0.7493
48482SOL    HW151283   4.382   2.170   0.314 -1.3010  1.4614 -0.1178
48482SOL    HW251284   4.458   2.197   0.442 -2.2363  2.0107  0.3294
48483SOL     OW51285   5.738   9.708   8.835 -0.3617 -0.0153 -0.1623
48483SOL    HW151286   5.713   9.623   8.799 -0.2850  0.3852 -1.1863
48483SOL    HW251287   5.833   9.706   8.840 -0.2230  0.6997 -1.9939
48484SOL     OW51288   1.323  10.174  11.077  0.5662  0.0378 -0.3927
48484SOL    HW151289   1.400  10.169  11.020  0.2397  0.7365 -0.9173
48484SOL    HW251290   1.250  10.154  11.019  0.2985 -0.0247 -0.0329
48485SOL     OW51291   9.730   9.478   8.524  0.0381  0.0983 -0.4589
48485SOL    HW151292   9.685   9.537   8.463  0.0987  0.4766 -0.1458
48485SOL    HW251293   9.813   9.456   8.480 -0.5070 -0.7244 -1.1046
48486SOL     OW51294   3.365   9.367   2.317 -0.0835  0.3310  0.2280
48486SOL    HW151295   3.341   9.447   2.270 -1.1913 -0.3500 -0.4373
48486SOL    HW251296   3.395   9.307   2.248 -2.4414 -0.9442  0.2097
48487SOL     OW51297   8.471   4.214   3.323 -0.2280 -0.6116 -0.1560
48487SOL    HW151298   8.448   4.307   3.318  2.0672  0.1025  1.0455
48487SOL    HW251299   8.549   4.206   3.269  0.7384 -1.3931  1.2853
48488SOL     OW51300   4.894   0.087   5.605  0.0291 -0.5356 -0.5429
48488SOL    HW151301   4.862   0.019   5.546 -2.3465  1.5968 -1.8671
48488SOL    HW251302   4.923   0.158   5.548 -1.1231  1.0766  0.7716
48489SOL     OW51303   4.638   9.174   3.888 -0.1441 -0.0539  0.0720
48489SOL    HW151304   4.716   9.122   3.869 -0.9967 -0.9275 -1.2907
48489SOL    HW251305   4.632   9.175   3.983  0.6885 -1.2617  0.1606
48490SOL     OW51306  11.414   3.919   8.475  0.2639 -0.0109 -0.0351
48490SOL    HW151307  11.465   3.971   8.538  2.7017 -0.8009 -1.2226
48490SOL    HW251308  11.417   3.830   8.510 -0.8887  0.0433  0.2127
48491SOL     OW51309   2.208   8.248  10.685 -0.3441  0.4286 -0.5288
48491SOL    HW151310   2.254   8.216  10.607 -0.9292 -1.6803 -0.0712
48491SOL    HW251311   2.120   8.270  10.653 -0.0612  1.2176 -0.7743
48492SOL     OW51312   1.976   1.958   8.932  0.3309  0.1828 -0.2675
48492SOL    HW151313   2.034   2.034   8.929 -0.4113  0.8186  0.9296
48492SOL    HW251314   1.969   1.929   8.841  3.0441 -0.3372 -0.3798
48493SOL     OW51315   2.011   0.996   7.929  0.0419  0.1491 -0.0336
48493SOL    HW151316   2.090   1.047   7.949  0.3540 -0.0265 -0.7843
48493SOL    HW251317   1.940   1.059   7.934  0.1073  0.1432  1.4805
48494SOL     OW51318   5.276   9.913   8.188  0.7775 -0.1050  0.0497
48494SOL    HW151319   5.265  10.002   8.153  0.7242  0.3627  1.2022
48494SOL    HW251320   5.204   9.863   8.149  0.0814  0.6572  0.3260
48495SOL     OW51321   2.961   0.518  10.313 -0.2814 -0.2536  0.5350
48495SOL    HW151322   2.937   0.610  10.301  1.9637  0.3711  0.4554
48495SOL    HW251323   2.931   0.497  10.401  0.0559  0.8688  0.9405
48496SOL     OW51324  11.821   6.903   4.367 -0.2483 -0.3112  0.4597
48496SOL    HW151325  11.761   6.829   4.359 -0.5630 -0.0664  0.5188
48496SOL    HW251326  11.796   6.962   4.295 -1.2025  0.5736  1.4775
48497SOL     OW51327   1.086   2.352   6.430  0.4050  0.0826 -0.4344
48497SOL    HW151328   1.006   2.368   6.379  0.2698  0.7047 -0.0411
48497SOL    HW251329   1.148   2.317   6.367 -0.2009 -0.4764 -0.7350
48498SOL     OW51330   4.555   4.067  10.698  0.0021 -0.0393 -0.4187
48498SOL    HW151331   4.504   4.098  10.773  0.6040  0.2388 -0.1131
48498SOL    HW251332   4.493   4.063  10.626 -0.8245 -1.2880  0.3224
48499SOL     OW51333  10.243   2.085   4.180 -0.6820  0.4078 -0.3169
48499SOL    HW151334  10.239   2.128   4.266 -3.3413 -0.1776 -0.0615
48499SOL    HW251335  10.336   2.062   4.170  0.0954  2.4247  1.3859
48500SOL     OW51336   2.263   3.046   9.204  0.2542  0.0223  0.2340
48500SOL    HW151337   2.232   2.977   9.144 -0.2156  0.7005 -0.3202
48500SOL    HW251338   2.187   3.104   9.215  1.0089  1.1542 -0.3319
48501SOL     OW51339   9.240   2.905   5.993 -0.2077  0.0401 -0.5807
48501SOL    HW151340   9.245   2.916   6.088  0.2553 -2.0415 -0.3005
48501SOL    HW251341   9.304   2.966   5.958  1.2694 -0.7532  0.6160
48502SOL     OW51342   9.481   5.784   1.536  0.0040  0.7426  0.4954
48502SOL    HW151343   9.485   5.714   1.471  2.6253  1.0284  0.2444
48502SOL    HW251344   9.400   5.831   1.516 -0.1745 -0.2699 -1.3980
48503SOL     OW51345   4.222  10.714   2.773 -0.0648  0.3620  0.6301
48503SOL    HW151346   4.168  10.724   2.694  0.3281  1.8892  0.5250
48503SOL    HW251347   4.286  10.647   2.749 -0.4875  0.1871 -0.0475
48504SOL     OW51348   3.076   0.051   2.807 -0.2513  0.5280 -0.2411
48504SOL    HW151349   3.137   0.023   2.875 -1.1386 -2.9655 -0.6587
48504SOL    HW251350   3.132   0.077   2.734  0.7190  0.0407  0.3146
48505SOL     OW51351  10.472   4.890   3.282 -0.5239  0.4485  0.1548
48505SOL    HW151352  10.548   4.943   3.260 -0.1470  0.2525  0.9636
48505SOL    HW251353  10.464   4.829   3.209  0.3238  0.2289  0.2297
48506SOL     OW51354   2.169   5.242   9.616  0.0230  0.0779  0.1311
48506SOL    HW151355   2.123   5.242   9.700  2.4106  3.3483  1.6517
48506SOL    HW251356   2.244   5.185   9.629 -0.5654 -0.8647 -0.4730
48507SOL     OW51357   8.702  11.211   2.149 -0.3271 -0.2007 -0.1983
48507SOL    HW151358   8.633  11.152   2.118  0.5316 -1.1479 -0.3273
48507SOL    HW251359   8.662  11.298   2.146 -1.3236 -0.6705 -0.8279
48508SOL     OW51360   7.462   0.470   1.533  0.3214 -0.3043  0.2405
48508SOL    HW151361   7.520   0.421   1.592  2.1703 -0.2941 -1.4508
48508SOL    HW251362   7.508   0.552   1.516 -0.1888 -0.2703 -1.1278
48509SOL     OW51363   0.097  11.730   2.580 -0.3272  0.2773 -0.5439
48509SOL    HW151364   0.100  11.721   2.485  0.3330  0.3798 -0.5401
48509SOL    HW251365   0.096  11.640   2.613  1.3437  0.2034 -0.6153
48510SOL     OW51366  10.318   1.603   3.441 -0.0259  0.0463  0.5493
48510SOL    HW151367  10.393   1.545   3.429 -0.2376 -0.6338  2.2131
48510SOL    HW251368  10.356   1.690   3.452  0.3456  0.1241 -1.1225
48511SOL     OW51369   1.322   2.544  11.265 -0.0672  0.4067  0.5568
48511SOL    HW151370   1.299   2.491  11.341 -0.7512 -1.2231 -0.7322
48511SOL    HW251371   1.243   2.593  11.245 -0.3973 -0.3713 -0.0537
48512SOL     OW51372   5.574   3.124   9.246 -0.2902 -0.1877  0.0533
48512SOL    HW151373   5.526   3.130   9.328  0.1571  1.0359  0.2432
48512SOL    HW251374   5.653   3.176   9.260  0.4118 -1.0002 -0.7349
48513SOL     OW51375   4.324  11.572   7.411 -0.2842  0.0521  0.2906
48513SOL    HW151376   4.277  11.649   7.381 -0.4432 -0.3230 -0.4748
48513SOL    HW251377   4.406  11.606   7.447  0.6302  0.4796 -1.9860
48514SOL     OW51378   4.306   0.931   2.565 -0.4303 -0.8339  0.6098
48514SOL    HW151379   4.257   0.922   2.647  1.4785  1.2180  2.1197
48514SOL    HW251380   4.260   1.000   2.517 -0.4500 -0.6607  0.8734
48515SOL     OW51381   6.517   0.610  10.493 -0.0209  0.1554 -0.1394
48515SOL    HW151382   6.501   0.569  10.578  0.8474  1.2332  0.5663
48515SOL    HW251383   6.446   0.578  10.438  0.6066 -2.3066  0.3478
48516SOL     OW51384  10.978   7.893   5.627 -0.3047 -0.7491 -0.2002
48516SOL    HW151385  11.023   7.864   5.548 -1.4778  2.0453 -2.0851
48516SOL    HW251386  11.000   7.986   5.634 -1.0440 -0.6838  2.2395
48517SOL     OW51387  10.277   4.710   5.833 -0.1219 -0.7397  0.2721
48517SOL    HW151388  10.225   4.633   5.808 -0.6689  0.0069 -0.9946
48517SOL    HW251389  10.274   4.711   5.928 -3.6307  0.0136  0.3150
48518SOL     OW51390   5.952   3.457   6.062 -0.3215 -0.2329  0.0837
48518SOL    HW151391   5.988   3.545   6.046 -0.2395 -0.3615 -0.4436
48518SOL    HW251392   5.922   3.461   6.153  0.3386  0.1155  0.2993
48519SOL     OW51393   9.880  11.143   4.599  0.9664 -0.5493  0.2685
48519SOL    HW151394   9.881  11.235   4.575  0.2883 -0.5001  0.4059
48519SOL    HW251395   9.833  11.140   4.682 -0.7228 -1.2052 -0.6504
48520SOL     OW51396   5.072   8.656   8.790  0.2559  0.2520 -0.4390
48520SOL    HW151397   5.166   8.674   8.799  0.6364 -0.6888 -2.0928
48520SOL    HW251398   5.030   8.731   8.832  1.7313  0.5659  0.5880
48521SOL     OW51399   5.801   0.238  11.367 -0.1357  0.4233  0.7911
48521SOL    HW151400   5.882   0.285  11.347 -0.1798  1.4442  2.7842
48521SOL    HW251401   5.824   0.180  11.439 -1.0898  0.4576  1.1354
48522SOL     OW51402   9.151   9.256  11.848  0.3968  0.4195  0.7545
48522SOL    HW151403   9.079   9.208  11.891 -0.8655 -0.6278 -2.2089
48522SOL    HW251404   9.227   9.200  11.860  0.2385  0.4378  2.0256
48523SOL     OW51405   2.937   9.862   6.563 -0.2246 -0.2530 -0.2076
48523SOL    HW151406   2.893   9.851   6.647  0.0951  0.8969  0.1183
48523SOL    HW251407   3.008   9.798   6.565 -0.5803 -0.6489  0.1371
48524SOL     OW51408   4.037   4.664   0.469 -0.2164 -0.1919 -0.2389
48524SOL    HW151409   4.062   4.634   0.557 -0.9169 -0.5199 -0.1406
48524SOL    HW251410   4.072   4.753   0.463 -0.1890 -0.1549  0.3863
48525SOL     OW51411   7.095  11.593   9.382  0.1616 -0.1478 -0.6984
48525SOL    HW151412   7.009  11.570   9.417 -0.1343  0.6968 -0.8514
48525SOL    HW251413   7.110  11.683   9.411  1.1299 -0.3804 -0.4282
48526SOL     OW51414   7.859  11.005   8.638 -0.5143 -0.0016 -0.2425
48526SOL    HW151415   7.928  10.988   8.574 -1.5171 -2.8548 -0.7280
48526SOL    HW251416   7.783  11.029   8.586 -0.6307  0.3649  0.0924
48527SOL     OW51417   0.441   0.295   3.025  0.7378 -0.3221  0.0841
48527SOL    HW151418   0.513   0.327   2.971  1.0704  1.2530  1.3605
48527SOL    HW251419   0.468   0.317   3.115 -1.3542  0.3816  0.5855
48528SOL     OW51420   3.845   4.230   2.823 -0.4068  0.6602 -0.3118
48528SOL    HW151421   3.779   4.233   2.754  0.1881 -1.7380 -1.0965
48528SOL    HW251422   3.929   4.232   2.776  0.0417  0.8363  0.4729
48529SOL     OW51423   9.769   8.948   2.356  0.0507  0.1542 -0.5958
48529SOL    HW151424   9.797   8.985   2.272  1.3414 -1.5382 -0.9851
48529SOL    HW251425   9.778   8.853   2.344 -0.1189 -0.1452  1.3356
48530SOL     OW51426   7.628   6.675   2.433  0.3342 -0.3536 -0.3937
48530SOL    HW151427   7.546   6.633   2.406  0.3414 -0.1175 -0.7964
48530SOL    HW251428   7.686   6.664   2.358  1.0267 -1.4433  0.2876
48531SOL     OW51429  10.953   0.222   6.514 -0.1008  0.3836 -0.0765
48531SOL    HW151430  11.035   0.176   6.495 -0.2345  0.0168  0.2196
48531SOL    HW251431  10.901   0.213   6.434 -0.0094  0.2755 -0.1243
48532SOL     OW51432  11.592   1.654   3.499 -0.0226 -0.1175  0.3157
48532SOL    HW151433  11.686   1.636   3.505 -0.1622 -0.8420  0.3905
48532SOL    HW251434  11.550   1.576   3.534 -0.6521  0.4587  0.8895
48533SOL     OW51435   9.561   1.880  10.962 -0.1323 -0.2210 -0.7255
48533SOL    HW151436   9.533   1.972  10.957 -1.1573 -0.4539  0.2753
48533SOL    HW251437   9.637   1.875  10.904  1.8973  1.9680  1.5227
48534SOL     OW51438   3.826   2.394   6.105  0.1772 -0.2423  0.0206
48534SOL    HW151439   3.747   2.445   6.088  0.5180  0.4702  0.5387
48534SOL    HW251440   3.848   2.354   6.021 -0.4528 -0.0542 -0.2378
48535SOL     OW51441   1.520   5.185   4.157 -0.3073 -0.6347 -0.3615
48535SOL    HW151442   1.587   5.193   4.224  1.5850  0.2328 -2.2425
48535SOL    HW251443   1.438   5.174   4.206  0.9788 -0.2318  2.0360
48536SOL     OW51444   8.260   4.774   2.691  0.8733 -0.2668 -0.1511
48536SOL    HW151445   8.234   4.865   2.702  0.0239 -0.3210 -1.4494
48536SOL    HW251446   8.296   4.748   2.776 -0.3135  0.8126  0.7058
48537SOL     OW51447   0.951  11.429   1.176 -0.6137  0.2353 -0.1079
48537SOL    HW151448   0.981  11.356   1.122 -3.0151 -0.8174 -0.1483
48537SOL    HW251449   0.865  11.453   1.140 -1.0139  1.3981  1.4741
48538SOL     OW51450   7.756  11.418  10.800  0.0980 -0.0580 -0.2752
48538SOL    HW151451   7.814  11.343  10.783 -0.3850 -0.5450  0.1689
48538SOL    HW251452   7.797  11.464  10.873 -0.4085 -0.7838  0.4849
48539SOL     OW51453   9.641  11.719  11.721  0.4005 -0.0970  0.1016
48539SOL    HW151454   9.675  11.719  11.632  1.3329 -0.6046  0.4437
48539SOL    HW251455   9.585  11.797  11.726 -1.0441 -0.9699 -1.4149
48540SOL     OW51456  11.040   4.720   5.236  0.3068  0.1612  0.2253
48540SOL    HW151457  11.012   4.670   5.313  1.5415 -2.4901 -0.9125
48540SOL    HW251458  10.980   4.694   5.167 -1.2055  3.0207  0.3186
48541SOL     OW51459  10.958   1.060  10.419 -0.4016 -0.0481 -0.0226
48541SOL    HW151460  10.911   1.108  10.352 -0.8199  0.5007  0.6487
48541SOL    HW251461  10.951   1.115  10.498 -0.4511 -0.9638  0.6282
48542SOL     OW51462  10.348  10.630   3.851  0.1768 -0.2377  0.4891
48542SOL    HW151463  10.271  10.585   3.817  0.5288 -0.6293  0.2087
48542SOL    HW251464  10.420  10.601   3.795  0.4886  0.3234  0.5864
48543SOL     OW51465  10.552   6.378   1.309 -0.0117  0.3817  0.2468
48543SOL    HW151466  10.539   6.374   1.214  0.4508 -1.8941  0.2150
48543SOL    HW251467  10.512   6.461   1.335 -1.5539  0.3552 -1.7307
48544SOL     OW51468   9.359   3.102   6.728 -0.1593  0.0343 -0.2812
48544SOL    HW151469   9.354   3.014   6.690  0.0295 -0.3905  0.6409
48544SOL    HW251470   9.445   3.135   6.702  0.1511 -0.4289  0.1422
48545SOL     OW51471   0.017   0.324   1.510  0.1200  0.2978  0.4520
48545SOL    HW151472  -0.065   0.279   1.492 -0.8883  1.9196  0.7726
48545SOL    HW251473   0.055   0.341   1.424 -0.9201  1.3377  0.1737
48546SOL     OW51474   9.302   1.564   9.686 -0.2492  0.2308  0.1018
48546SOL    HW151475   9.353   1.618   9.626 -0.0970  1.8429  1.6025
48546SOL    HW251476   9.318   1.602   9.773 -1.0956 -1.5023  1.0797
48547SOL     OW51477   2.989   8.320   9.297 -0.2639 -0.1741 -0.2927
48547SOL    HW151478   2.910   8.368   9.273 -0.2068  0.0792  0.0191
48547SOL    HW251479   3.005   8.344   9.388  0.2712 -0.0892 -0.4055
48548SOL     OW51480   7.495  11.485   0.750  0.1146  0.3470  0.3181
48548SOL    HW151481   7.586  11.500   0.727  0.0413  0.6353  0.2156
48548SOL    HW251482   7.456  11.449   0.670  0.0704  0.4993  0.2710
48549SOL     OW51483   4.949   3.761  10.932 -0.5172  0.2765 -0.4028
48549SOL    HW151484   5.019   3.704  10.963 -0.7700  0.7737  1.1660
48549SOL    HW251485   4.968   3.846  10.972 -1.2916  0.7503 -1.0229
48550SOL     OW51486   7.259  10.240  11.481  0.5416  0.1182  0.0403
48550SOL    HW151487   7.313  10.202  11.412  0.1245  0.8622 -0.7112
48550SOL    HW251488   7.305  10.319  11.507  0.6064 -0.0679  0.4891
48551SOL     OW51489   2.335  11.971   3.843 -0.0880  0.1832  0.2944
48551SOL    HW151490   2.349  12.022   3.763 -0.4375 -0.7739 -0.3982
48551SOL    HW251491   2.392  11.895   3.832 -1.7780 -1.0847 -0.1013
48552SOL     OW51492   0.345   5.958   2.810  0.6555  0.2321  0.2766
48552SOL    HW151493   0.290   6.034   2.796 -0.0829 -0.7642 -3.2118
48552SOL    HW251494   0.285   5.889   2.839  1.0030  0.4474  1.5648
48553SOL     OW51495   5.207   0.128   0.667 -0.6019  0.0092  0.0145
48553SOL    HW151496   5.243   0.202   0.618  0.8154 -0.9101 -0.3890
48553SOL    HW251497   5.144   0.167   0.728  0.4544  1.5869  0.1311
48554SOL     OW51498   9.822   5.321   6.320 -0.0846 -0.2350 -0.0344
48554SOL    HW151499   9.741   5.369   6.340 -0.3837 -1.0410  0.7782
48554SOL    HW251500   9.805   5.279   6.236  0.5615  1.8696 -1.2936
48555SOL     OW51501  10.271  10.054   3.975  0.5211 -0.2895  0.2192
48555SOL    HW151502  10.248  10.080   3.886  0.4888  0.1101  0.3453
48555SOL    HW251503  10.258  10.132   4.028  1.4259 -0.2625  0.4281
48556SOL     OW51504   1.548   9.859  11.351  0.2954 -0.3712 -0.0363
48556SOL    HW151505   1.549   9.900  11.438  0.4007 -1.0000  0.2634
48556SOL    HW251506   1.571   9.930  11.291 -1.9389  0.6373  0.1954
48557SOL     OW51507  10.835   6.091   6.832 -0.1805 -0.9140  0.5438
48557SOL    HW151508  10.767   6.147   6.869  0.8454 -0.4797  1.8426
48557SOL    HW251509  10.879   6.147   6.767  0.5243 -0.3551  1.4840
48558SOL     OW51510   8.497  10.483   3.656  0.1178  0.4655 -0.2032
48558SOL    HW151511   8.583  10.446   3.675  0.6829  1.2865 -1.0758
48558SOL    HW251512   8.502  10.511   3.565 -1.7582 -1.3154 -0.9312
48559SOL     OW51513   3.188   5.016   6.922 -0.5872 -0.3557 -0.1967
48559SOL    HW151514   3.139   4.937   6.948  1.4267 -0.6922  3.1821
48559SOL    HW251515   3.196   5.066   7.003  1.3907  1.5178 -1.4629
48560SOL     OW51516   5.864   8.445  10.470  0.1616 -0.1065 -0.1208
48560SOL    HW151517   5.871   8.386  10.394  0.6094  0.0516 -0.2059
48560SOL    HW251518   5.853   8.386  10.544  1.6147 -0.3707 -0.0787
48561SOL     OW51519   0.527   7.641   4.966  0.0580 -0.6013  0.3513
48561SOL    HW151520   0.476   7.561   4.955 -0.8348  0.2001 -1.9569
48561SOL    HW251521   0.464   7.705   4.999  0.4364 -0.4991  0.8782
48562SOL     OW51522   7.349   8.796   0.375 -0.0877 -0.1870  0.2541
48562SOL    HW151523   7.327   8.879   0.419 -1.0741 -0.5974  0.5759
48562SOL    HW251524   7.353   8.819   0.282  1.7045  0.6260  0.4838
48563SOL     OW51525   3.443   1.697   2.211 -0.4169  0.2486 -0.2373
48563SOL    HW151526   3.464   1.690   2.304 -1.0235 -2.1312 -0.2355
48563SOL    HW251527   3.527   1.685   2.167 -0.3098  0.2118 -0.0252
48564SOL     OW51528   7.766   6.672   8.961 -0.2073 -0.0875 -0.3560
48564SOL    HW151529   7.821   6.652   9.036  0.1221 -1.5676 -0.9431
48564SOL    HW251530   7.721   6.590   8.942  0.7189 -0.1836 -2.5507
48565SOL     OW51531   1.554   2.008   6.526  0.0590 -0.2083 -0.0132
48565SOL    HW151532   1.641   1.974   6.542 -0.3377 -1.4000 -0.2750
48565SOL    HW251533   1.518   1.952   6.457 -0.3175  1.2780 -1.0887
48566SOL     OW51534   6.065  12.081   0.892  0.3132 -0.6621  0.2674
48566SOL    HW151535   6.129  12.140   0.853  0.0696 -0.9752 -0.6324
48566SOL    HW251536   6.069  12.002   0.838 -1.3433 -0.4131 -0.2753
48567SOL     OW51537   9.020   9.055   4.278 -0.3797 -0.0183  0.2669
48567SOL    HW151538   8.974   8.993   4.222 -1.3036 -0.4716  1.4780
48567SOL    HW251539   8.959   9.127   4.290 -0.3695 -0.1181  1.0033
48568SOL     OW51540  11.370  11.480   4.652  0.4674  0.1824  0.3168
48568SOL    HW151541  11.451  11.481   4.602 -0.5878 -0.0810 -1.5112
48568SOL    HW251542  11.316  11.413   4.609 -1.0262  0.9322  0.9288
48569SOL     OW51543   4.552   7.111   3.195  0.1056  0.0881 -0.2401
48569SOL    HW151544   4.483   7.163   3.155  0.7846  1.5148  0.3861
48569SOL    HW251545   4.507   7.036   3.233 -0.7580 -0.4105 -2.1365
48570SOL     OW51546   9.851   3.593   0.476 -0.2569 -0.0629 -0.2935
48570SOL    HW151547   9.786   3.606   0.545 -0.0921 -2.3675  0.3855
48570SOL    HW251548   9.801   3.559   0.402 -0.0589 -0.2679 -0.3360
48571SOL     OW51549   5.184   9.579   2.632 -0.3383  0.1493 -0.3863
48571SOL    HW151550   5.260   9.582   2.690 -0.8802  0.5978  0.3200
48571SOL    HW251551   5.219   9.601   2.546  0.5565 -0.9717 -0.3391
48572SOL     OW51552   4.655   1.732   6.700  0.0152 -0.5298 -0.0252
48572SOL    HW151553   4.675   1.695   6.787 -1.1795 -0.5162  0.2645
48572SOL    HW251554   4.567   1.768   6.709  0.1559  0.0967 -1.0584
48573SOL     OW51555   0.126   7.208   8.807  0.0798 -0.0975 -0.3289
48573SOL    HW151556   0.208   7.160   8.813  2.2711  3.1539 -1.4119
48573SOL    HW251557   0.106   7.209   8.713 -1.1736 -0.7692 -0.0840
48574SOL     OW51558   8.490  11.578   0.151 -0.1362  0.0653  0.3427
48574SOL    HW151559   8.511  11.492   0.116 -1.5709 -0.8654  1.6687
48574SOL    HW251560   8.480  11.564   0.245  1.4790  2.0685  0.8952
48575SOL     OW51561   7.167   2.367   5.849  0.2489  0.0615 -0.3590
48575SOL    HW151562   7.075   2.339   5.853 -0.0401  0.9895 -0.2379
48575SOL    HW251563   7.162   2.462   5.839  1.1982  0.0742 -0.7659
48576SOL     OW51564   5.962   5.302   3.021  0.2997 -0.1915 -0.2529
48576SOL    HW151565   6.050   5.275   3.049 -0.5436 -0.4017  2.5655
48576SOL    HW251566   5.934   5.363   3.090 -1.0194  1.4774 -2.1688
48577SOL     OW51567   6.064   4.450   9.494 -0.0076  0.7128  0.0346
48577SOL    HW151568   6.064   4.356   9.480 -0.7844  0.2300  2.7869
48577SOL    HW251569   6.021   4.486   9.416  2.1352 -0.9422 -2.0449
48578SOL     OW51570   7.601   2.497   6.057  0.0282 -0.0856 -0.2445
48578SOL    HW151571   7.694   2.514   6.041  0.0288  0.7650  0.5912
48578SOL    HW251572   7.594   2.402   6.056  0.6997 -0.1441 -1.4333
48579SOL     OW51573  11.432   5.463   0.386  0.6351 -0.3377  0.4257
48579SOL    HW151574  11.447   5.557   0.382  0.0319 -0.2412  0.2367
48579SOL    HW251575  11.459   5.431   0.300  0.2517 -0.2397  0.2650
48580SOL     OW51576   4.462   4.006   5.970 -0.1546  0.6454 -0.3452
48580SOL    HW151577   4.375   4.046   5.961 -1.0532 -0.9126  0.9156
48580SOL    HW251578   4.446   3.912   5.964  1.2154  0.2448  1.4949
48581SOL     OW51579   2.606   2.939   6.757  0.0401 -0.2407 -0.6307
48581SOL    HW151580   2.513   2.946   6.734  0.4216  0.9008 -1.9331
48581SOL    HW251581   2.608   2.872   6.826 -1.5314 -1.7030 -1.8964
48582SOL     OW51582   7.805   4.042   4.685 -1.1540 -0.5402  0.4018
48582SOL    HW151583   7.760   4.027   4.602 -1.2411 -2.4984  0.7435
48582SOL    HW251584   7.893   4.007   4.671 -0.1426  1.8729  0.2240
48583SOL     OW51585   8.667   8.260  10.864  0.0842 -0.6933 -0.9200
48583SOL    HW151586   8.580   8.219  10.868  0.1933 -0.8500  0.7370
48583SOL    HW251587   8.726   8.188  10.844  0.0128 -0.9140 -0.3572
48584SOL     OW51588   4.831   3.065   5.688 -0.1369  0.1238  0.4223
48584SOL    HW151589   4.737   3.050   5.686  0.0724 -1.2483 -0.8685
48584SOL    HW251590   4.858   3.038   5.776 -0.9819  0.9949  0.9753
48585SOL     OW51591   5.942   5.687   1.517  0.1305 -0.1221 -0.6292
48585SOL    HW151592   5.880   5.740   1.466 -1.4979 -0.0679  1.2681
48585SOL    HW251593   5.929   5.598   1.486 -1.5837 -0.2397  0.2967
48586SOL     OW51594   1.958   0.376  11.078 -0.0810  0.3548 -0.1394
48586SOL    HW151595   2.043   0.406  11.109  0.3563 -1.9040  1.1101
48586SOL    HW251596   1.945   0.421  10.995  2.9459 -0.1660 -1.0313
48587SOL     OW51597   6.049   1.538   2.690 -0.4349  0.1221 -0.2481
48587SOL    HW151598   6.122   1.527   2.629 -1.2654  0.7627 -1.3954
48587SOL    HW251599   5.971   1.520   2.637 -1.2071  1.0969  0.5302
48588SOL     OW51600   6.807  10.562  10.124  0.6876 -0.0884  0.0398
48588SOL    HW151601   6.868  10.575  10.197  0.9539 -0.4253 -0.1174
48588SOL    HW251602   6.843  10.615  10.054  0.3199  0.3954  0.2138
48589SOL     OW51603   2.210   3.501   4.143 -1.0044 -0.1339 -0.4985
48589SOL    HW151604   2.168   3.421   4.174 -1.6193  0.3829  0.0321
48589SOL    HW251605   2.270   3.525   4.214 -1.3898  0.2869 -0.3073
48590SOL     OW51606   2.020  11.270   7.953 -0.3774  0.0936 -0.3969
48590SOL    HW151607   1.989  11.349   7.997 -1.3558  1.9412 -4.0235
48590SOL    HW251608   2.105  11.252   7.993 -0.3698  2.6655  0.9441
48591SOL     OW51609   6.054   9.681   8.474 -0.2483  0.1163 -0.5835
48591SOL    HW151610   6.061   9.773   8.499 -0.4319  0.0013 -0.0933
48591SOL    HW251611   5.995   9.681   8.398  0.8208  0.5349 -1.4373
48592SOL     OW51612   4.007   5.045   4.495  0.6151  0.2516  0.1183
48592SOL    HW151613   3.950   5.062   4.570  0.9551 -2.0358  0.9816
48592SOL    HW251614   4.092   5.081   4.521  0.4823  0.3340  0.4406
48593SOL     OW51615   8.918  12.293   4.859 -0.0942  0.1795 -0.4052
48593SOL    HW151616   8.953  12.345   4.932  0.4622  0.8297 -1.1224
48593SOL    HW251617   8.990  12.235   4.835 -0.5707 -0.6484  0.1124
48594SOL     OW51618   2.259   1.858   0.580  0.0891 -0.5227  0.1330
48594SOL    HW151619   2.246   1.893   0.668 -2.0408  0.9153 -0.6525
48594SOL    HW251620   2.267   1.936   0.524 -2.9483 -1.1798 -1.4484
48595SOL     OW51621   8.401   2.189   3.745 -0.0167 -0.0401  0.1477
48595SOL    HW151622   8.340   2.130   3.701 -1.1869  0.8742  0.4894
48595SOL    HW251623   8.396   2.270   3.696  0.5606  0.1972  0.4778
48596SOL     OW51624   3.383   9.624   0.176  0.5114 -0.1337  0.0255
48596SOL    HW151625   3.317   9.671   0.125 -0.0778 -0.5555  0.3810
48596SOL    HW251626   3.455   9.685   0.185  0.6584 -0.0745 -1.3706
48597SOL     OW51627   4.496   0.273   4.106  0.3468 -0.2594 -0.0729
48597SOL    HW151628   4.424   0.331   4.129  1.9127  1.3477  1.0020
48597SOL    HW251629   4.455   0.187   4.094 -1.6504  0.4831  1.0402
48598SOL     OW51630   3.223  11.515   7.589 -0.6722 -0.1936 -0.6450
48598SOL    HW151631   3.291  11.449   7.595 -1.1768 -0.7204 -0.6847
48598SOL    HW251632   3.141  11.466   7.581 -1.1518  0.4214  0.2909
48599SOL     OW51633   7.600   3.294  12.009 -1.2315 -0.0789 -0.2747
48599SOL    HW151634   7.554   3.332  12.084  0.0321 -0.3308  0.6572
48599SOL    HW251635   7.633   3.210  12.041  0.8516  0.5912 -0.5032
48600SOL     OW51636   1.579   7.727   3.353  0.7128 -0.0390 -0.0389
48600SOL    HW151637   1.504   7.777   3.321  1.5579  2.6786  1.9209
48600SOL    HW251638   1.612   7.681   3.276 -2.3837 -0.6876 -1.1458
48601SOL     OW51639  11.939   4.043  11.286 -0.3174  0.0899 -0.3760
48601SOL    HW151640  11.934   3.969  11.347  2.1000 -0.0135 -0.1855
48601SOL    HW251641  11.852   4.082  11.288 -0.4503 -0.0785  2.9347
48602SOL     OW51642   3.675   4.204   1.389 -0.0504 -0.4115 -0.0980
48602SOL    HW151643   3.727   4.139   1.435  1.2174 -0.6348 -1.7402
48602SOL    HW251644   3.739   4.252   1.335 -1.1273  1.3400  0.1042
48603SOL     OW51645   8.171   6.653   6.253 -0.0402  0.0924 -0.1475
48603SOL    HW151646   8.119   6.733   6.248 -0.2453 -0.0597 -0.5055
48603SOL    HW251647   8.109   6.585   6.277  0.0522 -0.0337 -0.2630
48604SOL     OW51648   7.319  10.043   6.775  0.4616  0.5727 -0.2783
48604SOL    HW151649   7.315  10.135   6.749 -0.3170  1.0037  1.2641
48604SOL    HW251650   7.410  10.029   6.799  1.1567  0.2307 -2.7919
48605SOL     OW51651   0.475   5.376   8.863  0.0031 -0.0243  0.5743
48605SOL    HW151652   0.509   5.332   8.785 -0.7670 -0.1977  0.3259
48605SOL    HW251653   0.476   5.469   8.841  0.8499  0.0268  0.7885
48606SOL     OW51654   2.082   4.176   3.707  0.5591  0.0836 -0.3914
48606SOL    HW151655   2.084   4.149   3.616 -0.0508  0.0512 -0.4022
48606SOL    HW251656   2.022   4.114   3.749 -0.4137  1.0515 -0.2979
48607SOL     OW51657   8.697   8.879   5.306  1.0645 -0.0916  0.7992
48607SOL    HW151658   8.606   8.898   5.328  1.0679  1.4222 -0.3718
48607SOL    HW251659   8.730   8.959   5.265  1.6171 -2.0091 -2.8943
48608SOL     OW51660  10.472   3.313  12.145  0.3450 -0.1339  0.0026
48608SOL    HW151661  10.488   3.343  12.235  0.8491 -0.9804  0.2123
48608SOL    HW251662  10.495   3.388  12.090  2.8947 -0.4978  0.4310
48609SOL     OW51663   2.807   0.914  11.515  0.4945 -0.3015 -0.0070
48609SOL    HW151664   2.790   0.912  11.421 -1.2419 -2.4004  0.2666
48609SOL    HW251665   2.765   0.994  11.546 -0.2661 -0.3747 -0.8181
48610SOL     OW51666   1.647   7.340   8.686  0.1821 -0.2624 -0.1029
48610SOL    HW151667   1.624   7.364   8.597  1.4628  0.1205 -0.3517
48610SOL    HW251668   1.639   7.245   8.689 -1.8320 -0.1246 -0.0266
48611SOL     OW51669   1.790  10.562  10.004  0.3818  0.1065  0.6098
48611SOL    HW151670   1.788  10.466  10.006 -1.2817  0.1029 -0.1686
48611SOL    HW251671   1.748  10.586   9.922 -1.8619  1.5439  2.0712
48612SOL     OW51672   0.046   0.187   8.956  0.2647  0.0794 -0.3171
48612SOL    HW151673  -0.019   0.230   8.900 -0.4176 -0.8117 -0.2347
48612SOL    HW251674   0.006   0.185   9.043  0.5136 -0.2258 -0.2048
48613SOL     OW51675   6.121   4.182   2.634  0.2898 -0.6483  0.0240
48613SOL    HW151676   6.040   4.137   2.658  0.2901 -0.3875  0.5273
48613SOL    HW251677   6.190   4.128   2.672  0.2105  1.0841  2.9557
48614SOL     OW51678  11.063   8.222   8.090 -0.6392  0.0856  0.4034
48614SOL    HW151679  11.091   8.296   8.037 -0.6787  0.2372  0.5939
48614SOL    HW251680  11.002   8.174   8.034 -1.4416  0.7844  0.6517
48615SOL     OW51681  11.040   8.140   5.598  0.0203 -0.0154  0.2215
48615SOL    HW151682  11.003   8.213   5.547  1.0516  0.3487 -0.0286
48615SOL    HW251683  11.069   8.180   5.680 -4.6390 -1.0898  2.7823
48616SOL     OW51684   2.928   6.240   9.558  1.2681 -0.5756  0.5790
48616SOL    HW151685   2.932   6.335   9.568 -3.2234 -0.0208 -0.4424
48616SOL    HW251686   2.919   6.227   9.463 -2.3534 -1.4200  0.8652
48617SOL     OW51687   2.558   8.989   9.223 -0.0601  0.0831 -0.0840
48617SOL    HW151688   2.625   8.975   9.289 -0.1318  0.5460  0.0920
48617SOL    HW251689   2.554   8.906   9.175  0.3051 -0.1047  0.2026
48618SOL     OW51690   0.409   1.658   1.209 -0.3439 -0.4239 -0.5709
48618SOL    HW151691   0.333   1.630   1.158 -0.5192  1.0479 -1.1558
48618SOL    HW251692   0.386   1.745   1.243  1.7240  0.9105 -2.2833
48619SOL     OW51693   2.781   4.209   6.733  1.0939 -0.1462 -0.1051
48619SOL    HW151694   2.767   4.302   6.748 -1.2037 -0.0355 -2.3042
48619SOL    HW251695   2.871   4.203   6.702  0.7290  1.6328 -1.6648
48620SOL     OW51696  12.182   3.503   5.127  0.7502 -0.0178  0.1034
48620SOL    HW151697  12.181   3.412   5.100  2.2431  0.2967 -1.1428
48620SOL    HW251698  12.092   3.533   5.114  0.2875 -1.2382  0.3496
48621SOL     OW51699   8.081   4.264   3.280  0.6783 -0.4443  0.7617
48621SOL    HW151700   8.089   4.359   3.287  1.0349 -0.4169  0.1108
48621SOL    HW251701   8.013   4.241   3.343  0.7321  0.2159  1.0780
48622SOL     OW51702   9.573   8.188   8.785  0.1913  0.5094  0.3284
48622SOL    HW151703   9.608   8.158   8.701 -0.1136  0.8394  0.0803
48622SOL    HW251704   9.649   8.191   8.843  0.1365 -1.4268  0.5794
48623SOL     OW51705   1.165   0.628   1.315 -0.1657 -0.1811  0.4186
48623SOL    HW151706   1.074   0.600   1.314 -0.1645 -0.1765  0.1874
48623SOL    HW251707   1.187   0.634   1.408 -1.3035  2.7322  0.6090
48624SOL     OW51708   0.253   4.519  10.907 -0.3503  0.2693  0.0650
48624SOL    HW151709   0.228   4.612  10.914  0.2989  0.4534  0.0203
48624SOL    HW251710   0.188   4.481  10.849  0.3438  1.0770 -1.2971
48625SOL     OW51711   1.208   9.400  10.320 -0.3894 -0.2533 -0.0229
48625SOL    HW151712   1.297   9.382  10.351 -0.1107  1.3960  0.2333
48625SOL    HW251713   1.206   9.363  10.231  0.1832 -1.2645  0.3735
48626SOL     OW51714   1.891   7.546   2.992 -0.0673 -0.2612 -0.5618
48626SOL    HW151715   1.906   7.452   2.982 -1.4293 -0.5326 -0.2779
48626SOL    HW251716   1.975   7.586   2.971  0.4464 -1.5212 -1.0171
48627SOL     OW51717   0.568   6.762   8.651 -0.7692  0.2436  0.0384
48627SOL    HW151718   0.630   6.833   8.633  0.8212 -0.0697  3.5206
48627SOL    HW251719   0.601   6.688   8.599  0.2050  0.8114 -0.1871
48628SOL     OW51720   7.849   7.500   1.541 -0.0592  0.0732 -0.1973
48628SOL    HW151721   7.873   7.577   1.488  0.7106 -1.0332 -1.5213
48628SOL    HW251722   7.781   7.456   1.489 -0.6015 -0.0917  0.6261
48629SOL     OW51723  10.466   3.491   3.976 -0.0251  0.1707  0.0969
48629SOL    HW151724  10.385   3.540   3.963 -1.1753 -1.5125  0.5056
48629SOL    HW251725  10.530   3.557   4.003 -1.1110  1.6192 -0.6992
48630SOL     OW51726   8.189   1.314   0.667  0.8483 -0.0470  0.8661
48630SOL    HW151727   8.233   1.399   0.671  0.3058  0.4058 -1.2837
48630SOL    HW251728   8.097   1.333   0.686  1.0090 -0.4804  2.1833
48631SOL     OW51729  12.173   4.161   5.444 -0.5194 -0.3922  0.3345
48631SOL    HW151730  12.150   4.068   5.441 -1.4689 -0.1333 -0.8392
48631SOL    HW251731  12.269   4.161   5.444 -0.3728 -1.3577 -3.1156
48632SOL     OW51732   1.797   6.994   3.830 -0.4166  0.3349  0.5622
48632SOL    HW151733   1.886   7.019   3.804 -1.7591  3.1793 -2.0263
48632SOL    HW251734   1.787   6.905   3.796  0.6806  0.8779 -1.3526
48633SOL     OW51735   6.235   8.985   0.039 -0.4935 -0.1462  0.9189
48633SOL    HW151736   6.313   8.983   0.094  0.0053 -1.0440  0.2044
48633SOL    HW251737   6.241   9.069  -0.007  1.5951 -1.3769 -1.2597
48634SOL     OW51738   1.143   4.238   9.270  0.5026 -0.3336  0.0820
48634SOL    HW151739   1.082   4.172   9.237 -0.8298  0.5916  0.5680
48634SOL    HW251740   1.209   4.247   9.202  0.4287 -1.7757 -0.2125
48635SOL     OW51741  11.298   0.784  11.293  0.6260 -0.4103  0.4307
48635SOL    HW151742  11.206   0.809  11.286  0.9349  0.5266 -0.6421
48635SOL    HW251743  11.296   0.691  11.314 -0.5845 -0.7640 -1.0279
48636SOL     OW51744   8.483   1.443   7.772  0.1575 -0.4593  0.1960
48636SOL    HW151745   8.526   1.528   7.759 -0.2126  0.1902  2.5992
48636SOL    HW251746   8.553   1.379   7.758  1.1732  0.4165  1.0081
48637SOL     OW51747   7.911   4.749   4.284  0.2325  0.2164  0.0171
48637SOL    HW151748   7.992   4.732   4.235  0.5118 -0.7370  0.7793
48637SOL    HW251749   7.941   4.773   4.372 -0.2665  1.9181 -0.2474
48638SOL     OW51750   0.883   2.378   2.580 -0.2575  0.2495 -0.3041
48638SOL    HW151751   0.910   2.402   2.669  1.3672 -2.1345 -0.0404
48638SOL    HW251752   0.829   2.300   2.592 -1.1403  0.6774 -1.3556
48639SOL     OW51753  11.119   2.576   9.753 -0.1782 -0.4063 -0.5103
48639SOL    HW151754  11.127   2.519   9.677  0.8153 -0.0967 -0.6435
48639SOL    HW251755  11.046   2.634   9.732  0.9182  0.5577 -1.8228
48640SOL     OW51756  11.548  10.391   7.809  0.0882  0.0086  0.0091
48640SOL    HW151757  11.534  10.297   7.818  1.7833 -0.3877 -0.9109
48640SOL    HW251758  11.633  10.406   7.851  0.3173  0.9293 -0.7622
48641SOL     OW51759  12.204   3.853   9.186 -0.2828 -0.3810  0.0251
48641SOL    HW151760  12.289   3.895   9.174 -0.0664 -0.7039  0.4040
48641SOL    HW251761  12.223   3.759   9.179 -1.2044 -0.4571 -3.9264
48642SOL     OW51762   5.727  11.688   6.126  0.0566 -0.1211 -0.1519
48642SOL    HW151763   5.684  11.655   6.205  0.3823  0.2072  0.1686
48642SOL    HW251764   5.669  11.758   6.095 -0.8274 -1.2168 -1.0449
48643SOL     OW51765   7.370   3.355   1.489 -0.7221  0.6680  0.4717
48643SOL    HW151766   7.457   3.381   1.458 -1.5334  0.2246 -2.4183
48643SOL    HW251767   7.370   3.260   1.482 -1.2232  0.6087  1.1681
48644SOL     OW51768   8.654   1.529  12.269 -0.2324  0.7294  0.1394
48644SOL    HW151769   8.668   1.559  12.179  1.0019  0.9543  0.3961
48644SOL    HW251770   8.674   1.605  12.323 -3.4029  1.4090  0.5547
48645SOL     OW51771   4.327   7.477   1.872 -0.2019  0.0010  0.4935
48645SOL    HW151772   4.248   7.434   1.840  0.4478 -0.1411 -1.0152
48645SOL    HW251773   4.339   7.552   1.814  1.5476 -0.8101 -0.2831
48646SOL     OW51774  10.863   0.623   0.088 -0.4684 -0.6480  0.0101
48646SOL    HW151775  10.810   0.655   0.161 -1.1458 -0.7021 -0.4452
48646SOL    HW251776  10.869   0.697   0.028  1.0466 -0.2369  0.6140
48647SOL     OW51777   3.032  12.111   1.315  0.0385 -0.0699  0.3906
48647SOL    HW151778   2.958  12.071   1.269  1.3222 -2.1650  0.0158
48647SOL    HW251779   2.995  12.189   1.358 -1.7976  0.3942 -1.8675
48648SOL     OW51780   3.615   8.838   0.744 -0.6013 -0.2531  0.5697
48648SOL    HW151781   3.605   8.927   0.778 -1.9073 -0.1228 -0.1244
48648SOL    HW251782   3.670   8.848   0.667  1.8683 -0.4762  2.1759
48649SOL     OW51783   8.228  10.346   0.708 -0.0277 -0.5431  0.0306
48649SOL    HW151784   8.284  10.394   0.647  0.1825  0.1121  0.7266
48649SOL    HW251785   8.213  10.262   0.665  1.0328 -0.5221 -0.4239
48650SOL     OW51786  10.569   4.802   1.151  0.3799 -0.2326  0.0807
48650SOL    HW151787  10.617   4.838   1.077  0.1086 -0.4298 -0.1937
48650SOL    HW251788  10.634   4.798   1.222  0.1093  1.9243  0.4965
48651SOL     OW51789   7.886   7.975  10.882  0.1774 -0.2223 -0.3570
48651SOL    HW151790   7.926   7.951  10.966 -0.0991  1.2575  0.2275
48651SOL    HW251791   7.825   7.903  10.863  0.6388 -0.8367  0.4354
48652SOL     OW51792   0.111  12.054  11.781 -0.0013 -0.4778  0.5042
48652SOL    HW151793   0.084  12.140  11.812  1.3955 -0.1776  0.9538
48652SOL    HW251794   0.061  11.992  11.834 -1.7623  0.0114 -0.4940
48653SOL     OW51795   1.832  11.391   0.707 -0.0015 -0.8288 -0.2657
48653SOL    HW151796   1.857  11.416   0.618 -2.0968  0.4176 -0.5610
48653SOL    HW251797   1.758  11.448   0.729 -1.4588 -3.0876  1.1417
48654SOL     OW51798   6.994   8.165   4.953  0.2833  0.1934  0.3054
48654SOL    HW151799   7.089   8.177   4.951  0.2250  0.9044  1.2802
48654SOL    HW251800   6.959   8.251   4.975 -0.4900 -0.4103  1.5520
48655SOL     OW51801   6.921   8.155   7.573  0.0673  0.0840 -0.2992
48655SOL    HW151802   6.828   8.177   7.567  1.0275  5.0063 -1.4147
48655SOL    HW251803   6.945   8.124   7.486 -0.3694 -0.6508 -0.1655
48656SOL     OW51804   1.975  10.958   1.186  0.0807 -0.1473 -0.2214
48656SOL    HW151805   1.980  10.890   1.253 -0.6487  1.3099  1.3976
48656SOL    HW251806   2.035  11.026   1.217 -0.6657  0.7768 -0.7627
48657SOL     OW51807   2.861  10.001   9.315  0.1841  0.0471 -0.0820
48657SOL    HW151808   2.825  10.075   9.266 -1.6842  0.2695  1.4792
48657SOL    HW251809   2.797   9.931   9.304  1.6010 -1.1593 -0.9840
48658SOL     OW51810   6.972   9.636   8.738 -0.2666 -0.0168 -0.4299
48658SOL    HW151811   7.026   9.714   8.728 -1.0825  1.1546  2.8984
48658SOL    HW251812   6.883   9.667   8.725 -0.5540 -0.5115  0.2988
48659SOL     OW51813   1.654   3.492   1.659 -0.4887 -0.0759 -0.5336
48659SOL    HW151814   1.738   3.459   1.689  0.3849  1.5055 -1.1261
48659SOL    HW251815   1.676   3.559   1.595 -2.2199  0.0412 -1.0507
48660SOL     OW51816   1.935  10.874   3.438  0.4145  0.2170 -0.1790
48660SOL    HW151817   1.860  10.883   3.379  0.0550 -1.5380 -0.0243
48660SOL    HW251818   1.950  10.780   3.444  1.6116  0.4600  1.0902
48661SOL     OW51819   0.843   7.984   6.639 -0.0040  0.6816  0.1957
48661SOL    HW151820   0.781   7.936   6.694  0.1350  0.7417  0.4079
48661SOL    HW251821   0.862   8.064   6.689  1.5725 -0.1205  0.9655
48662SOL     OW51822  10.256   3.079   0.199 -0.0939  0.1159 -0.0526
48662SOL    HW151823  10.325   3.013   0.189 -0.0056  0.1505  0.3021
48662SOL    HW251824  10.207   3.075   0.117  0.2387 -0.0142 -0.2484
48663SOL     OW51825   4.421  12.066   7.890 -0.7181  0.2344 -0.1206
48663SOL    HW151826   4.490  12.132   7.888 -0.7333  0.2306 -1.5873
48663SOL    HW251827   4.461  11.990   7.932  0.0651  0.3410 -0.6704
48664SOL     OW51828   6.611   4.435   7.838  0.3084 -1.0118 -0.2533
48664SOL    HW151829   6.659   4.410   7.759 -1.5804 -0.8510 -1.5057
48664SOL    HW251830   6.520   4.413   7.820 -0.6397  1.6483  0.7203
48665SOL     OW51831   2.039   4.068   3.464  0.4692  0.5522  0.3196
48665SOL    HW151832   1.989   3.995   3.501  0.6043  0.2711 -0.0529
48665SOL    HW251833   1.973   4.122   3.420  0.2879  0.9515  1.0496
48666SOL     OW51834   9.917   5.859   8.444 -0.4888  0.3503 -0.0977
48666SOL    HW151835   9.905   5.869   8.350 -1.8874  0.5487  0.0875
48666SOL    HW251836   9.834   5.886   8.483 -0.6354 -1.5692  1.0921
48667SOL     OW51837   9.944   0.651   6.927  0.2392  0.8434  0.4861
48667SOL    HW151838   9.858   0.664   6.966  0.2102 -0.9422  1.1186
48667SOL    HW251839   9.927   0.599   6.849  0.3217  4.1930 -1.9812
48668SOL     OW51840  12.265   9.028   2.396  0.7654 -0.7029 -0.0178
48668SOL    HW151841  12.238   9.088   2.327 -1.0934 -0.1141  1.1432
48668SOL    HW251842  12.246   8.941   2.360 -0.5771 -0.3870 -0.1264
48669SOL     OW51843   9.211   9.586   9.873 -0.4965  0.6418  0.0630
48669SOL    HW151844   9.269   9.585   9.797  0.4257  0.0867  0.7438
48669SOL    HW251845   9.269   9.568   9.947 -1.4587  0.6455  0.8351
48670SOL     OW51846   0.426   4.788  11.741 -0.0270 -0.0011  0.1528
48670SOL    HW151847   0.400   4.761  11.828  0.8561  0.1655  0.4827
48670SOL    HW251848   0.453   4.707  11.698  0.1662  0.0015  0.2659
48671SOL     OW51849   7.392   0.282   5.627  0.5402  0.0274 -0.4959
48671SOL    HW151850   7.370   0.308   5.717 -0.6277 -0.7056 -0.5465
48671SOL    HW251851   7.311   0.298   5.578  1.3256  0.9259 -1.5463
48672SOL     OW51852  11.398   0.427   7.354 -0.2102 -0.2609 -0.0253
48672SOL    HW151853  11.306   0.453   7.351 -0.2431 -0.4804 -1.0242
48672SOL    HW251854  11.397   0.333   7.333  0.0912 -0.6824  1.6364
48673SOL     OW51855   7.145   2.849   2.665  0.1345  0.3529 -0.2790
48673SOL    HW151856   7.173   2.927   2.616  0.0744  0.3814 -0.2684
48673SOL    HW251857   7.082   2.806   2.608 -2.0730  1.8554  0.8693
48674SOL     OW51858  10.221   1.379   8.261  0.0051 -0.4761  0.0870
48674SOL    HW151859  10.169   1.422   8.329  0.5337  0.9317 -0.3647
48674SOL    HW251860  10.309   1.373   8.298 -0.1179 -1.4677  0.2524
48675SOL     OW51861   6.159   7.676   2.022 -0.3619  0.2018 -0.1403
48675SOL    HW151862   6.145   7.588   2.059 -1.0376  0.1975 -0.3907
48675SOL    HW251863   6.204   7.661   1.939 -1.7170 -0.0185 -0.8604
48676SOL     OW51864  11.780   2.604   1.839  0.0992 -0.0940  0.4299
48676SOL    HW151865  11.692   2.583   1.807  0.3695 -2.1090  0.8990
48676SOL    HW251866  11.780   2.573   1.930  1.3542 -0.2579  0.3851
48677SOL     OW51867   3.128   2.846   6.658  0.0542 -0.3180  0.3905
48677SOL    HW151868   3.049   2.898   6.648  0.2624  0.0532  0.6604
48677SOL    HW251869   3.136   2.831   6.752 -0.0670 -0.9443  0.3087
48678SOL     OW51870   4.741   9.946   2.495  0.3517 -0.0155 -0.1543
48678SOL    HW151871   4.656   9.913   2.468 -0.2285  0.2562  1.2806
48678SOL    HW251872   4.787   9.870   2.531 -0.1539  0.2638  1.1305
48679SOL     OW51873   2.825   0.209   8.565 -0.0005 -0.1318  0.0990
48679SOL    HW151874   2.913   0.173   8.559  0.4550  1.0828 -0.9932
48679SOL    HW251875   2.774   0.160   8.501  0.1425 -0.1404 -0.0077
48680SOL     OW51876   5.358   3.324   3.569  0.5106 -0.8063  0.5483
48680SOL    HW151877   5.443   3.365   3.550 -0.0861  0.7091  1.0241
48680SOL    HW251878   5.299   3.361   3.504 -0.3501  0.2212  1.8645
48681SOL     OW51879   0.537   1.673   7.102  0.5395  0.6305  0.2486
48681SOL    HW151880   0.468   1.652   7.166  1.9046 -1.0253  1.2530
48681SOL    HW251881   0.582   1.590   7.087  1.2908  1.3317 -1.6644
48682SOL     OW51882   2.977  11.727  10.342 -0.1891 -0.0999 -0.2416
48682SOL    HW151883   3.033  11.792  10.384 -0.9756  0.9670 -0.7889
48682SOL    HW251884   3.035  11.655  10.320  0.8026  0.6242 -0.0434
48683SOL     OW51885   8.056   6.454   6.435 -0.3885 -0.1746 -0.0340
48683SOL    HW151886   7.984   6.432   6.377  0.4785 -1.0343 -0.8272
48683SOL    HW251887   8.105   6.372   6.445  0.1075  0.2230  1.0228
48684SOL     OW51888   2.930   8.768   5.143  0.2709  0.5418  0.1781
48684SOL    HW151889   2.949   8.697   5.081 -1.1796  2.2862 -2.4880
48684SOL    HW251890   2.921   8.725   5.228  0.1783 -2.3527 -1.1833
48685SOL     OW51891  11.355   3.558   6.938  0.7320 -0.1950  0.0196
48685SOL    HW151892  11.278   3.510   6.969 -0.6170  3.0540  2.2799
48685SOL    HW251893  11.430   3.512   6.977 -0.2468 -1.8804 -0.0133
48686SOL     OW51894   1.645   4.035   6.206  0.1179  0.3543  0.2720
48686SOL    HW151895   1.700   3.957   6.219  4.1779  2.6153 -1.3123
48686SOL    HW251896   1.574   4.005   6.150  1.2416 -2.3407  0.1186
48687SOL     OW51897   7.511  11.128   6.383  0.4288 -0.3070 -0.0679
48687SOL    HW151898   7.491  11.131   6.477  1.5633  0.6225  0.1725
48687SOL    HW251899   7.428  11.149   6.340  0.2823  0.9930  0.7940
48688SOL     OW51900   5.293   2.849   4.155 -0.4151 -0.6245  0.1765
48688SOL    HW151901   5.321   2.852   4.247 -0.9455 -0.1706  0.3257
48688SOL    HW251902   5.326   2.765   4.123  0.0677 -0.6361  0.6884
48689SOL     OW51903   0.913   2.070   6.549  0.3113  0.2433 -0.0044
48689SOL    HW151904   0.910   2.130   6.474  1.0213  0.0748 -0.1796
48689SOL    HW251905   0.999   2.028   6.542 -0.1992 -0.8474  0.0701
48690SOL     OW51906   4.215   4.070  11.630 -0.0482 -0.3509  0.2931
48690SOL    HW151907   4.169   4.055  11.547 -3.1652  0.3276  1.7663
48690SOL    HW251908   4.184   4.000  11.688  0.5722  0.2978  1.4564
48691SOL     OW51909   8.042   0.284   1.180  0.0474 -0.0654 -0.7702
48691SOL    HW151910   8.021   0.243   1.264 -0.2370 -0.7863 -1.1847
48691SOL    HW251911   8.062   0.376   1.202 -1.1824  0.0478 -0.0692
48692SOL     OW51912   2.203   3.802   4.361  0.1156  0.0042  0.8277
48692SOL    HW151913   2.181   3.890   4.393  1.0395  1.1200 -1.3407
48692SOL    HW251914   2.123   3.773   4.316  0.2361  0.3214  0.4021
48693SOL     OW51915   7.260   5.271   1.077  0.9613 -0.3624 -0.1836
48693SOL    HW151916   7.347   5.304   1.097  1.2041  0.5257 -2.4171
48693SOL    HW251917   7.201   5.339   1.109  1.1682 -0.2529 -0.0354
48694SOL     OW51918   6.457  11.229   7.917 -0.4762 -0.0923 -0.5473
48694SOL    HW151919   6.409  11.184   7.986 -0.6813  1.0433  0.0731
48694SOL    HW251920   6.440  11.322   7.932  0.3220  0.2297 -1.5031
48695SOL     OW51921   0.179   1.894   9.079 -0.0869 -0.1283 -0.4203
48695SOL    HW151922   0.161   1.977   9.121  0.6880 -0.2732  0.2226
48695SOL    HW251923   0.205   1.917   8.990  1.7225  0.4579  0.2270
48696SOL     OW51924   0.948  10.608  10.076  0.2821 -0.1241  0.0942
48696SOL    HW151925   1.042  10.590  10.082  0.1141 -0.7218  1.1205
48696SOL    HW251926   0.909  10.523  10.055  0.0152  0.2499 -1.0191
48697SOL     OW51927  10.336   4.035   8.407  0.1075  0.2653 -0.1056
48697SOL    HW151928  10.384   4.000   8.332  1.9433  0.3996  0.9474
48697SOL    HW251929  10.377   4.120   8.425 -3.0344  2.2190 -1.4487
48698SOL     OW51930   6.356   3.942   5.915  0.8149 -0.9051  0.1430
48698SOL    HW151931   6.440   3.973   5.949  1.4703 -3.2618  0.8690
48698SOL    HW251932   6.291   3.975   5.978  1.3367 -0.2565  0.3598
48699SOL     OW51933  11.309   1.692   0.882 -0.1043  0.4890  0.0108
48699SOL    HW151934  11.279   1.752   0.951  0.6568  2.1334 -1.0352
48699SOL    HW251935  11.404   1.704   0.880 -0.0510 -0.0247 -0.8856
48700SOL     OW51936   5.511  10.525   5.550  0.1668 -0.0378 -0.0637
48700SOL    HW151937   5.455  10.596   5.581 -0.3926 -0.8804  0.9035
48700SOL    HW251938   5.495  10.453   5.611  1.5435 -0.6403 -0.3648
48701SOL     OW51939   0.693  11.891   7.580 -0.2448  0.1277  0.3039
48701SOL    HW151940   0.648  11.953   7.523 -0.1957 -0.1668 -0.0595
48701SOL    HW251941   0.776  11.875   7.537 -0.5278 -0.6954  0.0513
48702SOL     OW51942   6.349  10.622   5.814  0.5321 -0.2229 -0.7838
48702SOL    HW151943   6.443  10.635   5.803  0.4974  0.6270 -0.2173
48702SOL    HW251944   6.309  10.701   5.777  0.0131 -0.7356 -1.3447
48703SOL     OW51945   0.241   7.636  12.086  0.5708 -0.2267 -0.2197
48703SOL    HW151946   0.305   7.597  12.026 -0.1906 -1.5825 -0.1896
48703SOL    HW251947   0.280   7.624  12.173  0.7956  0.0051 -0.2846
48704SOL     OW51948   7.879   0.246   4.207  0.4941  0.5156  0.2730
48704SOL    HW151949   7.909   0.275   4.293  1.4267  2.3233 -0.6066
48704SOL    HW251950   7.875   0.326   4.155 -0.5071 -0.4792 -1.2418
48705SOL     OW51951   5.580   3.233   8.385  0.0594 -0.0610 -0.1689
48705SOL    HW151952   5.635   3.161   8.356  0.7618  0.2361  0.4223
48705SOL    HW251953   5.595   3.302   8.320  0.8610  0.2412  0.3319
48706SOL     OW51954   6.626  10.198   5.125  0.0537  0.4875 -0.3432
48706SOL    HW151955   6.540  10.196   5.168 -0.9984 -0.1211 -2.3960
48706SOL    HW251956   6.613  10.153   5.042  1.8830  2.1046 -1.5783
48707SOL     OW51957   8.392   3.663   7.375  0.3654 -0.0396 -0.2705
48707SOL    HW151958   8.382   3.758   7.375  0.7842  0.0099  0.4906
48707SOL    HW251959   8.415   3.641   7.285 -0.2113  0.5239 -0.5625
48708SOL     OW51960   4.404  10.419  10.686 -0.1157 -0.5995  0.3963
48708SOL    HW151961   4.474  10.447  10.744  0.4334  0.1082 -0.5840
48708SOL    HW251962   4.372  10.500  10.646 -0.8070 -1.0233  0.0679
48709SOL     OW51963   3.482   8.792   7.292  0.1376  0.7158 -0.2919
48709SOL    HW151964   3.397   8.748   7.293 -0.4982  1.8545 -1.6278
48709SOL    HW251965   3.488   8.832   7.205  1.8889  0.9676 -0.0930
48710SOL     OW51966   7.802   9.196   9.228 -0.0652  0.1621 -0.1889
48710SOL    HW151967   7.759   9.205   9.143  2.1865  3.1314 -1.1907
48710SOL    HW251968   7.748   9.248   9.287 -0.1926  0.3062 -0.4283
48711SOL     OW51969   7.577   1.056  10.609 -0.2428 -0.2903 -0.3149
48711SOL    HW151970   7.626   1.133  10.582  0.3427 -0.8694 -0.9764
48711SOL    HW251971   7.485   1.080  10.597 -0.2499  1.3044  2.2837
48712SOL     OW51972   2.289   9.854  10.006 -0.5702  0.0756 -0.6994
48712SOL    HW151973   2.221   9.909  10.045  1.2661  1.4110  0.8257
48712SOL    HW251974   2.296   9.779  10.064 -0.2760  0.2904 -0.4537
48713SOL     OW51975  12.096   4.921   0.738 -0.0715 -0.2391  0.2580
48713SOL    HW151976  12.113   4.962   0.653 -0.0044 -0.0344  0.3679
48713SOL    HW251977  12.178   4.932   0.787 -0.2999  0.1627  0.5559
48714SOL     OW51978   2.053   4.704  10.577 -0.0363 -0.5185 -0.0106
48714SOL    HW151979   2.129   4.679  10.524 -0.6232 -0.5525 -0.8478
48714SOL    HW251980   1.978   4.679  10.524 -0.6498 -1.2856  1.1825
48715SOL     OW51981  10.810   9.273   6.636  0.1336  0.1697  0.1190
48715SOL    HW151982  10.750   9.344   6.613 -2.4595 -1.8567  0.1210
48715SOL    HW251983  10.753   9.197   6.650  2.7252 -1.8987  0.2710
48716SOL     OW51984   2.070   1.254  10.556 -0.6592  0.2052  0.1084
48716SOL    HW151985   2.093   1.313  10.484 -0.7438 -1.5111 -1.3856
48716SOL    HW251986   2.143   1.263  10.618 -0.9821  2.3245  0.2662
48717SOL     OW51987  11.635   5.326   3.797 -0.0277  0.2730  0.2748
48717SOL    HW151988  11.704   5.392   3.786 -0.3090  0.2596 -2.2404
48717SOL    HW251989  11.560   5.362   3.750  0.0802 -2.1333 -1.9928
48718SOL     OW51990   7.518  10.467   8.793  0.3112 -0.2789 -0.1333
48718SOL    HW151991   7.524  10.411   8.870 -0.4725  0.0643  0.1851
48718SOL    HW251992   7.583  10.536   8.808 -0.3656  0.2164  0.5866
48719SOL     OW51993   1.759   8.623   2.683 -0.0172  0.7491  0.5954
48719SOL    HW151994   1.758   8.568   2.605  0.7757  0.3502  0.8544
48719SOL    HW251995   1.769   8.712   2.650 -1.0886  0.7364  0.1850
48720SOL     OW51996   5.326   8.076   3.946  0.1278  0.2194  0.1946
48720SOL    HW151997   5.274   8.100   3.869 -0.6971  1.6506  1.1427
48720SOL    HW251998   5.276   8.005   3.988 -1.0830  1.5058  1.0369
48721SOL     OW51999   6.936   5.294   2.940 -0.0751  0.0533 -0.2167
48721SOL    HW152000   7.004   5.288   3.007 -0.1134  1.8511  0.0185
48721SOL    HW252001   6.981   5.275   2.858  0.4526  0.0865  0.0656
48722SOL     OW52002   2.484   1.491  10.794 -0.2652 -0.1369  0.0020
48722SOL    HW152003   2.419   1.471  10.862 -1.3619 -1.2748 -1.3345
48722SOL    HW252004   2.510   1.406  10.760  2.0351  0.2750  0.5306
48723SOL     OW52005   5.314   6.729   0.301  0.3281  0.3047 -0.2617
48723SOL    HW152006   5.278   6.714   0.213 -0.4607  2.1102 -0.2810
48723SOL    HW252007   5.250   6.785   0.344  0.6618 -0.6089  1.5318
48724SOL     OW52008   2.636   0.598   9.595  0.2827 -0.2674  0.1404
48724SOL    HW152009   2.705   0.584   9.530  0.1482 -1.1618  0.1778
48724SOL    HW252010   2.612   0.510   9.623 -0.5970  0.0599  0.4243
48725SOL     OW52011   2.458   9.714   5.948  0.0679  0.8281  0.0658
48725SOL    HW152012   2.485   9.623   5.960  0.7688  1.1242  0.8260
48725SOL    HW252013   2.416   9.738   6.031 -1.2114  0.8443 -0.5597
48726SOL     OW52014   0.343   1.141   4.219  0.5195  0.2537  0.3426
48726SOL    HW152015   0.279   1.187   4.164 -1.0808 -0.5570  1.4462
48726SOL    HW252016   0.343   1.189   4.302  0.5829 -0.3396  0.6940
48727SOL     OW52017   9.349   9.898   0.609  0.2319  0.1710 -0.5390
48727SOL    HW152018   9.280   9.847   0.568  0.4180  0.0398 -0.6944
48727SOL    HW252019   9.416   9.908   0.541  0.7650 -0.4681 -0.1288
48728SOL     OW52020   6.727   4.035   8.144 -0.0508  0.8043  0.1869
48728SOL    HW152021   6.767   4.031   8.231 -0.1809  0.4005  0.2267
48728SOL    HW252022   6.796   4.005   8.084  0.2582  1.7034  0.0755
48729SOL     OW52023   5.605   2.872   4.069 -0.5330 -0.2300  0.1606
48729SOL    HW152024   5.622   2.779   4.053 -3.1062 -0.8953  0.7861
48729SOL    HW252025   5.595   2.909   3.981 -1.7481 -1.0865 -0.1022
48730SOL     OW52026   7.296   4.876   2.204 -0.6208 -0.2025  0.0324
48730SOL    HW152027   7.201   4.880   2.209 -0.5853 -0.5978  1.4947
48730SOL    HW252028   7.316   4.783   2.214 -0.0546 -0.0570  0.2755
48731SOL     OW52029   8.887   8.987   3.409 -0.1708  0.0001 -0.1703
48731SOL    HW152030   8.892   8.972   3.314 -1.5370 -0.7916 -0.1434
48731SOL    HW252031   8.937   8.915   3.447 -1.0054 -0.6378 -0.2540
48732SOL     OW52032  12.287  10.320   7.237  0.0996 -0.3617 -0.4957
48732SOL    HW152033  12.370  10.273   7.226  0.3360  0.3079 -1.6274
48732SOL    HW252034  12.249  10.324   7.149 -1.0399 -0.4786 -0.0239
48733SOL     OW52035   2.542  11.754   8.647 -0.3902  0.4153  0.2218
48733SOL    HW152036   2.578  11.667   8.667 -0.0084  0.4196 -0.4079
48733SOL    HW252037   2.618  11.812   8.647 -0.9580  1.2961  3.3208
48734SOL     OW52038   9.920   6.655   6.088  0.4970  0.1620 -0.4881
48734SOL    HW152039   9.980   6.726   6.110  1.4345 -0.9537  0.6743
48734SOL    HW252040   9.974   6.591   6.042  0.0169 -0.4777 -0.1751
48735SOL     OW52041   2.926   6.913   6.612 -0.5994  0.9590  0.4202
48735SOL    HW152042   2.853   6.959   6.569 -0.8242  0.8352  0.6754
48735SOL    HW252043   3.000   6.928   6.553 -1.0191  0.3680 -0.2792
48736SOL     OW52044   1.049   3.860  12.257  0.2203 -0.1469 -0.3645
48736SOL    HW152045   1.133   3.908  12.259  0.7479 -1.0818  0.9896
48736SOL    HW252046   0.988   3.919  12.301  0.1810  0.4824 -1.2350
48737SOL     OW52047   8.221   4.514  11.398 -0.2525 -0.6921 -0.1649
48737SOL    HW152048   8.138   4.560  11.388 -0.4572 -1.1654 -0.6781
48737SOL    HW252049   8.279   4.554  11.333 -0.7098 -1.7680 -1.2796
48738SOL     OW52050   7.992   2.224   5.487  0.3465 -0.3245 -0.0050
48738SOL    HW152051   7.923   2.284   5.460 -1.6470 -1.3402  2.3864
48738SOL    HW252052   8.066   2.280   5.508 -1.2506  1.3171  1.5795
48739SOL     OW52053   4.166  11.732  11.140 -0.5245  0.4375 -0.3878
48739SOL    HW152054   4.106  11.721  11.066  1.1675  1.9501 -2.0807
48739SOL    HW252055   4.183  11.827  11.144 -0.4418  0.3972  1.8852
48740SOL     OW52056   7.761   5.680  10.442 -0.0858 -0.0911  0.2397
48740SOL    HW152057   7.701   5.616  10.403 -1.0865  0.7781  0.3285
48740SOL    HW252058   7.762   5.656  10.535  1.5732 -1.5732 -0.0984
48741SOL     OW52059   1.682   8.177   0.919  0.0661 -0.3415  0.2750
48741SOL    HW152060   1.708   8.146   0.832 -0.8247 -0.6985  0.1262
48741SOL    HW252061   1.723   8.263   0.928 -0.1200 -0.1526 -0.6381
48742SOL     OW52062   6.490   4.663   0.295 -0.4796  0.1574 -0.3598
48742SOL    HW152063   6.452   4.575   0.302  1.7317 -0.7447  2.2346
48742SOL    HW252064   6.584   4.647   0.282 -0.1738  2.1626 -0.8445
48743SOL     OW52065   4.684   2.277   6.227  0.0953 -0.3617 -0.4251
48743SOL    HW152066   4.770   2.236   6.228 -0.7421 -2.2303 -1.0191
48743SOL    HW252067   4.633   2.230   6.293 -0.6247  0.4025 -0.4101
48744SOL     OW52068   8.712   8.019   4.526  0.4271  0.3198  0.0599
48744SOL    HW152069   8.781   8.056   4.471  0.8549  0.1588  0.4930
48744SOL    HW252070   8.755   7.994   4.607 -0.2102  0.5732  0.4890
48745SOL     OW52071   9.289   3.093   7.564 -0.2983 -0.3199  0.4907
48745SOL    HW152072   9.378   3.072   7.591 -0.5813 -0.5037  1.3175
48745SOL    HW252073   9.239   3.013   7.582 -0.3383 -0.7829 -1.4681
48746SOL     OW52074   0.622  12.085   8.935  0.2045 -0.0363 -0.8637
48746SOL    HW152075   0.599  12.178   8.940  0.4078  0.0597 -1.4864
48746SOL    HW252076   0.539  12.040   8.926 -0.0051 -0.0496  0.8688
48747SOL     OW52077   3.653   5.128  11.999  0.4775 -0.2982 -1.0082
48747SOL    HW152078   3.746   5.143  12.017  0.3146 -0.6122  0.1969
48747SOL    HW252079   3.612   5.213  12.009  0.3181 -0.5508  0.6866
48748SOL     OW52080   1.707   0.897   4.308  0.1133 -0.4505  0.4579
48748SOL    HW152081   1.760   0.964   4.352 -0.3221  0.6435 -0.6019
48748SOL    HW252082   1.755   0.877   4.228  0.0149 -1.0933  0.5531
48749SOL     OW52083   4.817   1.402   3.191  0.5774  0.3315  0.0385
48749SOL    HW152084   4.821   1.488   3.234 -0.9384 -0.4923  1.9489
48749SOL    HW252085   4.743   1.410   3.130  1.1549  0.7071 -0.6333
48750SOL     OW52086   7.617   1.219  10.829  0.6270 -0.0692 -0.4609
48750SOL    HW152087   7.699   1.239  10.783  0.4113  0.6860 -0.5404
48750SOL    HW252088   7.597   1.129  10.804  1.7471 -0.4802  0.0431
48751SOL     OW52089   3.230   2.132  10.780  0.1002 -0.0407  0.3110
48751SOL    HW152090   3.184   2.074  10.840  1.1644 -1.7034 -0.4188
48751SOL    HW252091   3.267   2.200  10.837 -2.4449  0.8662  0.9979
48752SOL     OW52092   6.392   9.085  11.783 -0.0252 -0.2810  0.2803
48752SOL    HW152093   6.304   9.055  11.805  0.3406 -0.9970  0.8438
48752SOL    HW252094   6.395   9.085  11.687 -2.1051  4.2058 -0.0237
48753SOL     OW52095   3.509   9.104  10.280 -0.0569  0.1988  0.2761
48753SOL    HW152096   3.603   9.084  10.283  0.0807  0.6619 -0.5543
48753SOL    HW252097   3.502   9.174  10.214 -0.4829  2.9181  2.9771
48754SOL     OW52098   2.466   6.338   1.630 -0.6795 -0.1000  0.2440
48754SOL    HW152099   2.464   6.325   1.535 -1.1721 -0.2805  0.2796
48754SOL    HW252100   2.501   6.256   1.665 -1.6475 -0.5060  0.3012
48755SOL     OW52101   5.877   0.096   5.633 -0.0818  0.1983 -0.0093
48755SOL    HW152102   5.810   0.108   5.566 -0.3649 -2.0111 -0.1863
48755SOL    HW252103   5.828   0.096   5.716 -0.2359 -0.8168 -0.0945
48756SOL     OW52104   8.310   8.284   4.407  0.4657  0.1286 -0.1042
48756SOL    HW152105   8.369   8.213   4.432 -0.4510 -0.8470 -0.6151
48756SOL    HW252106   8.309   8.343   4.482  0.6788 -0.7823  0.6307
48757SOL     OW52107   5.139   0.922   3.259  0.3999  0.3097 -0.4153
48757SOL    HW152108   5.187   0.991   3.305  1.2549 -0.2436 -0.4654
48757SOL    HW252109   5.157   0.937   3.167 -1.4393  1.5116 -0.6402
48758SOL     OW52110   5.510   9.646   7.532 -0.2731 -0.1212 -0.1963
48758SOL    HW152111   5.425   9.604   7.545 -0.4809  0.0426 -0.9674
48758SOL    HW252112   5.573   9.580   7.560 -0.5047 -1.8281 -3.2411
48759SOL     OW52113   0.677   9.591   1.483 -0.2361 -0.2298 -0.5298
48759SOL    HW152114   0.629   9.633   1.412 -1.7743 -2.0798 -0.6431
48759SOL    HW252115   0.717   9.514   1.443 -0.1228 -0.6345  0.3442
48760SOL     OW52116   7.776   2.124   8.563  0.4138  0.7229  0.4122
48760SOL    HW152117   7.711   2.179   8.607  0.7575  2.3594 -0.9995
48760SOL    HW252118   7.746   2.034   8.577 -0.2907  1.2387  2.6363
48761SOL     OW52119   4.559   8.572   5.863  0.2346 -0.7632  0.4708
48761SOL    HW152120   4.654   8.573   5.876  0.2914 -2.6504  0.5381
48761SOL    HW252121   4.539   8.481   5.840 -1.1139  0.2647 -3.1972
48762SOL     OW52122   6.726   8.773   6.675  0.2542 -0.0001  0.3402
48762SOL    HW152123   6.699   8.864   6.678  1.4360  0.4651 -1.2282
48762SOL    HW252124   6.792   8.765   6.744 -0.9119 -0.0891  1.4728
48763SOL     OW52125   9.238   9.413   3.017  0.0539  0.5931  0.2199
48763SOL    HW152126   9.218   9.431   2.925 -0.1259  2.1298  0.5160
48763SOL    HW252127   9.306   9.347   3.015 -0.8797 -0.3807 -0.9839
48764SOL     OW52128   6.080   8.644   9.162  0.2482  0.4548 -0.1333
48764SOL    HW152129   6.062   8.607   9.075  1.6787  0.3148 -0.3965
48764SOL    HW252130   6.081   8.738   9.148  1.7804  0.4035 -0.5810
48765SOL     OW52131   9.404   8.042  10.215  0.4097 -0.2309 -0.0237
48765SOL    HW152132   9.336   8.067  10.276  0.7260  0.3050  0.1202
48765SOL    HW252133   9.374   8.075  10.130  1.4233  1.9168  0.3639
48766SOL     OW52134   5.001   1.482  12.320 -0.5716  0.2454  0.1001
48766SOL    HW152135   4.945   1.446  12.252 -0.2114  0.7044 -0.4496
48766SOL    HW252136   5.079   1.428  12.318 -1.2438 -0.8287  1.3308
48767SOL     OW52137   5.791   8.535   9.183  0.1948  0.3541 -0.2924
48767SOL    HW152138   5.792   8.617   9.133 -1.6102  0.1097 -0.7927
48767SOL    HW252139   5.865   8.485   9.149  0.3686  1.1343 -1.0975
48768SOL     OW52140   3.451   9.335   1.153  0.2446  0.3457 -0.2036
48768SOL    HW152141   3.512   9.378   1.093  1.3363 -1.1244 -0.2034
48768SOL    HW252142   3.507   9.290   1.216 -0.8765  0.1793  0.7074
48769SOL     OW52143   7.574  11.303   3.063 -0.1695  0.5400  0.1939
48769SOL    HW152144   7.655  11.341   3.099 -1.3856  4.1138 -0.4774
48769SOL    HW252145   7.505  11.337   3.119 -1.3493 -2.3156  0.6423
48770SOL     OW52146   1.932   5.796   1.942  0.0884 -0.1979  0.0909
48770SOL    HW152147   1.874   5.842   1.882  1.8307 -1.1335 -2.4993
48770SOL    HW252148   1.907   5.704   1.934 -0.2673 -0.2648  1.5998
48771SOL     OW52149   4.966   6.461   4.564  0.0593  0.1279  0.5219
48771SOL    HW152150   4.989   6.427   4.477 -0.4402  0.8049  0.1185
48771SOL    HW252151   4.875   6.436   4.576 -0.2634  1.1549  0.2962
48772SOL     OW52152   2.534   2.964   7.694  0.5207 -0.1030 -0.1915
48772SOL    HW152153   2.561   3.028   7.629  0.4797 -0.0317 -0.1383
48772SOL    HW252154   2.485   3.015   7.759  1.6646  0.0582  0.5768
48773SOL     OW52155   0.394  11.841   0.111  0.5278 -0.0157 -0.7522
48773SOL    HW152156   0.486  11.867   0.099  0.3643  0.3133 -1.3188
48773SOL    HW252157   0.370  11.800   0.027 -0.0928  0.6554 -0.9070
48774SOL     OW52158   2.702  10.621   5.267 -0.0818  0.7878 -0.1487
48774SOL    HW152159   2.700  10.525   5.275  0.5770  0.5376 -2.3107
48774SOL    HW252160   2.791  10.640   5.236 -0.1805  2.1129  0.3489
48775SOL     OW52161   7.305   2.186   6.024  0.0009 -0.5092 -0.4734
48775SOL    HW152162   7.259   2.244   5.963  1.9411 -0.9274 -2.4551
48775SOL    HW252163   7.345   2.245   6.088  0.3097  0.1846 -1.2956
48776SOL     OW52164   3.369   0.823   1.678  0.1943 -0.3167 -0.1458
48776SOL    HW152165   3.342   0.910   1.709 -1.0112 -1.6362  2.9498
48776SOL    HW252166   3.428   0.841   1.605 -0.3775  3.0728  0.0545
48777SOL     OW52167   5.257   2.887  10.807 -0.2216 -0.4565  0.1185
48777SOL    HW152168   5.310   2.966  10.823  0.3371 -0.7959 -0.0249
48777SOL    HW252169   5.222   2.865  10.893  1.0660 -1.0625  0.5156
48778SOL     OW52170  12.103  10.263   3.760 -0.0526  0.0342  0.2000
48778SOL    HW152171  12.092  10.204   3.685  0.2581 -2.0591  1.7043
48778SOL    HW252172  12.039  10.231   3.823  1.0587  0.4603  1.5741
48779SOL     OW52173   5.226   6.947   6.847  0.1878 -0.1076  0.4180
48779SOL    HW152174   5.154   6.886   6.860  0.9206 -0.6188  2.5901
48779SOL    HW252175   5.239   6.988   6.933  0.9862  1.6769 -0.4946
48780SOL     OW52176   2.876   3.303   8.597  0.4201  0.7235  0.0584
48780SOL    HW152177   2.915   3.252   8.526  1.8926  2.6458 -0.5932
48780SOL    HW252178   2.900   3.255   8.677  1.5951  0.2835 -0.5392
48781SOL     OW52179   8.492  10.186   0.161  0.3847 -0.0072  0.1963
48781SOL    HW152180   8.577  10.148   0.140  0.0914  0.6213 -2.5128
48781SOL    HW252181   8.428  10.121   0.131 -0.0795  0.4014  0.2745
48782SOL     OW52182   8.175   3.736   6.161 -0.4510  0.3054 -0.5563
48782SOL    HW152183   8.112   3.688   6.106 -0.8533  0.8593 -0.5922
48782SOL    HW252184   8.232   3.780   6.098  0.9867 -1.4417 -0.5437
48783SOL     OW52185   5.045   2.336   1.250  0.1985 -0.0070  0.0934
48783SOL    HW152186   5.096   2.258   1.271 -0.1605 -0.3655 -0.3410
48783SOL    HW252187   5.051   2.391   1.328  0.6127 -0.3862  0.3296
48784SOL     OW52188   8.721   9.757   4.036 -0.0798  0.0956  0.5943
48784SOL    HW152189   8.701   9.850   4.028 -0.9799 -0.1879 -0.7480
48784SOL    HW252190   8.702   9.736   4.127 -1.5765  0.8667  0.4966
48785SOL     OW52191  12.090   0.175   0.087  0.4342 -0.1509  1.0499
48785SOL    HW152192  12.006   0.194   0.046  0.8296 -0.7861 -0.0916
48785SOL    HW252193  12.154   0.219   0.031  0.9018 -0.0101  1.6841
48786SOL     OW52194   6.244   1.714   9.287 -0.3539 -0.0385  0.6917
48786SOL    HW152195   6.322   1.688   9.336 -0.5472  0.5761  1.3321
48786SOL    HW252196   6.247   1.809   9.284 -0.7536 -0.0326  0.1649
48787SOL     OW52197   0.661   3.007   6.253 -0.0554  0.5367 -0.2259
48787SOL    HW152198   0.680   3.096   6.222  0.6573  0.1916 -0.7866
48787SOL    HW252199   0.729   2.989   6.318 -0.7935  0.7709  0.6393
48788SOL     OW52200   9.959   3.281   6.231  0.1385  0.0870 -0.0994
48788SOL    HW152201   9.866   3.306   6.227 -0.3405 -1.6625 -0.8813
48788SOL    HW252202  10.006   3.364   6.237 -1.4124  1.0804 -1.0683
48789SOL     OW52203  10.863   0.918   2.728  0.6273 -0.2978  0.3438
48789SOL    HW152204  10.854   1.007   2.763  1.7030  0.1961 -0.6086
48789SOL    HW252205  10.774   0.895   2.700 -0.1075 -0.3628  2.4721
48790SOL     OW52206  11.336   1.530   2.473 -0.4975  0.1260 -0.1321
48790SOL    HW152207  11.313   1.449   2.429  0.5727  0.5518 -1.5632
48790SOL    HW252208  11.258   1.554   2.523 -1.7803 -0.3806 -1.8114
48791SOL     OW52209   6.533   3.660   5.584  0.7698  0.2293 -0.4619
48791SOL    HW152210   6.555   3.716   5.510  1.7340  0.4654 -0.0163
48791SOL    HW252211   6.466   3.709   5.632  1.1559  0.7257 -0.4215
48792SOL     OW52212   1.960   9.105   7.691 -0.2836  0.1193  0.2524
48792SOL    HW152213   1.976   9.011   7.695 -1.2768 -0.0291  2.0688
48792SOL    HW252214   1.889   9.119   7.755 -0.9040  1.9378 -0.7779
48793SOL     OW52215  10.180   4.007  11.835 -0.5243 -0.0938 -0.3447
48793SOL    HW152216  10.102   4.014  11.781 -0.3806 -2.0098 -0.8732
48793SOL    HW252217  10.241   3.955  11.782  0.7445  0.5596  0.4408
48794SOL     OW52218   8.647   6.998   7.636  0.1616  0.0532  0.7083
48794SOL    HW152219   8.627   7.054   7.561 -1.8554 -0.6699  0.6422
48794SOL    HW252220   8.737   7.020   7.659  0.2911  1.4399 -0.9189
48795SOL     OW52221   7.523   2.726   7.049 -0.1957 -0.5900 -0.6785
48795SOL    HW152222   7.508   2.820   7.043 -0.2680 -0.4695  0.9062
48795SOL    HW252223   7.436   2.686   7.045 -0.1756 -0.5739 -1.2182
48796SOL     OW52224  11.388  10.004   3.242 -0.2876  0.0244  0.1891
48796SOL    HW152225  11.409  10.094   3.268 -1.2660  0.0680  0.8698
48796SOL    HW252226  11.472   9.958   3.245  0.2021  0.8865 -0.0449
48797SOL     OW52227   2.151   2.265   5.135 -0.0725 -0.5157  0.1100
48797SOL    HW152228   2.168   2.359   5.133  1.2996 -0.6894  1.7229
48797SOL    HW252229   2.089   2.253   5.206  0.6707 -0.9262  0.7106
48798SOL     OW52230   0.560   5.205   5.411  0.5483  0.4733  0.2933
48798SOL    HW152231   0.638   5.251   5.441  1.3755 -0.7469  0.1148
48798SOL    HW252232   0.569   5.201   5.316 -0.0142  0.8060  0.2225
48799SOL     OW52233   0.505   5.892   8.522  0.1917  0.3440 -0.1847
48799SOL    HW152234   0.578   5.865   8.466 -0.5538 -1.6214 -0.3053
48799SOL    HW252235   0.442   5.931   8.462  0.9826  1.7742 -0.1219
48800SOL     OW52236   5.213   6.542   2.368  0.4404  0.3023  0.2059
48800SOL    HW152237   5.123   6.510   2.374 -0.4896  2.1441 -2.3644
48800SOL    HW252238   5.250   6.525   2.455 -2.5377 -0.0331  1.5236
48801SOL     OW52239   4.602   5.802   4.167  0.0903  0.3365 -0.8326
48801SOL    HW152240   4.673   5.802   4.103  1.2093  1.2142  0.3580
48801SOL    HW252241   4.571   5.712   4.169  1.5368 -0.1901 -0.9947
48802SOL     OW52242  11.717   7.048   8.202 -0.2457 -0.7493  0.5545
48802SOL    HW152243  11.662   7.076   8.129  1.2858  1.9100  0.2817
48802SOL    HW252244  11.741   6.958   8.182 -0.7378 -0.4347 -1.6700
48803SOL     OW52245   3.177   4.671   1.808 -0.6923  0.0038  0.1555
48803SOL    HW152246   3.209   4.746   1.858  0.8700 -0.8706  0.5230
48803SOL    HW252247   3.176   4.599   1.871  0.8634 -1.0089 -0.9212
48804SOL     OW52248  10.303  12.181   9.617 -0.2522  0.1948 -0.0289
48804SOL    HW152249  10.299  12.088   9.597 -1.4657  0.1745  0.1864
48804SOL    HW252250  10.262  12.189   9.703  1.5499  0.7263  0.8160
48805SOL     OW52251   3.320   8.647  10.999  0.1193  0.2248 -0.0528
48805SOL    HW152252   3.313   8.738  10.970  0.0397  0.5034  0.8129
48805SOL    HW252253   3.414   8.632  11.009  0.0835  0.5854  0.9230
48806SOL     OW52254   2.527   1.982   2.463 -0.3348 -0.3852 -0.4585
48806SOL    HW152255   2.595   1.924   2.428 -0.1803  0.3261 -1.3711
48806SOL    HW252256   2.445   1.940   2.439 -0.2222 -0.3118 -0.9843
48807SOL     OW52257   0.686   4.929  12.179  0.0944 -0.1550  0.2437
48807SOL    HW152258   0.747   4.993  12.215 -1.1324  0.9688  0.4107
48807SOL    HW252259   0.639   4.895  12.256  2.3994 -3.1749  0.4884
48808SOL     OW52260   3.149  11.976   6.587 -0.1219  0.1692  0.3229
48808SOL    HW152261   3.230  12.024   6.570  0.5020 -1.0496 -0.2038
48808SOL    HW252262   3.175  11.900   6.638 -0.9592 -0.1664  0.2650
48809SOL     OW52263   3.524  11.989   6.234  0.1223  0.2189 -0.1610
48809SOL    HW152264   3.615  12.016   6.242 -0.5323  2.7158 -0.4223
48809SOL    HW252265   3.509  11.980   6.140  0.6171 -2.3742 -0.0616
48810SOL     OW52266   0.271   1.521   6.203  0.5353 -0.0960 -0.4503
48810SOL    HW152267   0.180   1.491   6.206  1.0312 -1.6011  0.5651
48810SOL    HW252268   0.285   1.544   6.111 -1.4354  2.1212 -0.2835
48811SOL     OW52269  11.386   8.708   7.793  0.3215  0.4935  0.0582
48811SOL    HW152270  11.306   8.676   7.835  0.9265 -0.6155  0.3983
48811SOL    HW252271  11.390   8.660   7.711  1.6475 -0.9690  0.9240
48812SOL     OW52272   0.717   5.932   0.065 -0.2574  0.1808  0.0396
48812SOL    HW152273   0.771   5.908  -0.011  0.7750 -2.4205  1.4931
48812SOL    HW252274   0.627   5.929   0.032  0.2459  0.8951 -1.5026
48813SOL     OW52275   6.786  10.450   5.818  0.2606  0.1745  0.3216
48813SOL    HW152276   6.825  10.476   5.902  0.6262 -1.6230  0.7438
48813SOL    HW252277   6.768  10.357   5.827 -1.5857  0.3492 -0.8896
48814SOL     OW52278   8.254   1.576   7.790  0.2379  0.3379 -0.0654
48814SOL    HW152279   8.325   1.516   7.768 -0.0533  0.0879 -0.3477
48814SOL    HW252280   8.182   1.550   7.732  0.0719  0.8947 -0.1151
48815SOL     OW52281   0.442   3.432  10.014  0.0074 -0.3421  0.7773
48815SOL    HW152282   0.504   3.456   9.945  0.2985  0.7989  1.4001
48815SOL    HW252283   0.459   3.339  10.030  1.2280 -0.1665  0.6007
48816SOL     OW52284   0.466  11.679   7.439  0.0617 -0.6265 -0.6351
48816SOL    HW152285   0.540  11.704   7.494 -0.0740  1.8962 -1.4662
48816SOL    HW252286   0.390  11.689   7.496  0.1376 -0.8678 -0.4843
48817SOL     OW52287   6.330   9.907   5.588  0.2021  0.6370 -0.2626
48817SOL    HW152288   6.329   9.868   5.500  2.4410  1.0881 -0.5499
48817SOL    HW252289   6.337   9.832   5.647 -3.1262  0.1900 -0.2616
48818SOL     OW52290  11.095   4.652   1.830 -0.0317 -0.3010 -0.7210
48818SOL    HW152291  11.084   4.701   1.912  3.8887  1.2939 -0.9695
48818SOL    HW252292  11.085   4.560   1.856 -0.0242  0.2111  1.2949
48819SOL     OW52293   8.046   0.978  11.397 -0.4895 -0.0863 -0.4010
48819SOL    HW152294   8.011   0.918  11.462  0.3207 -0.3970 -0.2395
48819SOL    HW252295   8.139   0.955  11.391 -0.6851 -0.5296 -2.1805
48820SOL     OW52296  12.303   1.151   6.087 -0.3852 -0.4985 -0.4096
48820SOL    HW152297  12.392   1.163   6.053  0.4021  0.5259  1.8673
48820SOL    HW252298  12.262   1.237   6.078 -1.3878 -1.0777 -1.8984
48821SOL     OW52299   4.804   0.095   3.536  0.1940 -0.2579 -0.6169
48821SOL    HW152300   4.862   0.084   3.612  3.0930  0.3161 -2.5665
48821SOL    HW252301   4.777   0.186   3.539 -0.5750 -0.4928  0.2310
48822SOL     OW52302   3.826  12.177   5.773 -0.4549 -0.3302  0.2655
48822SOL    HW152303   3.860  12.185   5.863  1.1487  0.3467 -0.3643
48822SOL    HW252304   3.837  12.264   5.736 -1.5796 -0.4756 -0.4625
48823SOL     OW52305   9.852   5.595   2.813 -0.5296 -0.5956  0.3312
48823SOL    HW152306   9.877   5.533   2.745  0.2976 -1.2494  1.1977
48823SOL    HW252307   9.757   5.602   2.805 -0.3089  0.7924 -2.0809
48824SOL     OW52308   6.241   3.188  10.105  0.9832 -0.5399 -0.1999
48824SOL    HW152309   6.255   3.276  10.139 -0.2433  0.3704 -1.9048
48824SOL    HW252310   6.325   3.161  10.069  1.4254 -0.1695  0.5515
48825SOL     OW52311  11.016   3.141   4.927  0.3066  0.0492  0.0040
48825SOL    HW152312  11.050   3.213   4.979 -0.4929  1.1516 -0.9614
48825SOL    HW252313  10.953   3.181   4.868 -0.2750 -1.4671 -0.4551
48826SOL     OW52314   4.755   0.869  10.573 -0.3603 -0.2275 -0.1701
48826SOL    HW152315   4.668   0.875  10.611  0.7411  1.4015  2.3724
48826SOL    HW252316   4.815   0.876  10.648  1.9680 -0.2790 -1.9051
48827SOL     OW52317  10.994   9.848   3.590  0.2549 -0.1394  0.0270
48827SOL    HW152318  11.020   9.787   3.660 -0.2261 -0.6990 -0.2746
48827SOL    HW252319  11.003   9.797   3.510 -2.0831 -0.4727 -0.0772
48828SOL     OW52320   9.722  10.121   9.642  0.8144  0.1637  0.5146
48828SOL    HW152321   9.627  10.106   9.641  0.8432 -0.7470 -2.9720
48828SOL    HW252322   9.734  10.194   9.703 -2.1861  0.6099  0.7366
48829SOL     OW52323   3.444   1.702   2.485  0.2852  0.3072 -0.0927
48829SOL    HW152324   3.520   1.654   2.517  3.5141  3.9386 -1.5248
48829SOL    HW252325   3.415   1.754   2.560  0.7777  0.7028 -0.1764
48830SOL     OW52326   4.499   6.548   7.566 -0.4332  0.0106  0.0375
48830SOL    HW152327   4.520   6.612   7.498  0.3242  0.1271  0.3720
48830SOL    HW252328   4.491   6.465   7.519 -0.3870  0.1707 -0.2564
48831SOL     OW52329   1.293   2.734   7.765 -0.1460 -0.5696 -0.1067
48831SOL    HW152330   1.270   2.819   7.804 -2.1653 -0.9378 -0.4179
48831SOL    HW252331   1.328   2.683   7.838 -1.9956 -0.5679  0.8177
48832SOL     OW52332   8.029   8.284   8.259 -0.2072  0.4320  0.2052
48832SOL    HW152333   8.056   8.221   8.326  0.2775  0.0093 -0.3834
48832SOL    HW252334   7.935   8.273   8.252 -0.1875  0.1064  0.4460
48833SOL     OW52335   7.734   7.134   4.588 -0.3976  0.2765 -0.5307
48833SOL    HW152336   7.725   7.135   4.493 -0.1963 -2.0110 -0.6174
48833SOL    HW252337   7.726   7.042   4.612  1.3916  0.5604  1.4807
48834SOL     OW52338   9.519  10.639   2.473 -0.3530 -0.2872  0.5132
48834SOL    HW152339   9.496  10.548   2.487 -1.0530  0.1071  2.1683
48834SOL    HW252340   9.565  10.665   2.553  1.4074  0.3629 -0.6291
48835SOL     OW52341   1.872   9.232  11.389 -0.3066 -0.1361  0.1792
48835SOL    HW152342   1.844   9.151  11.431 -1.9851 -0.1870 -0.9434
48835SOL    HW252343   1.920   9.204  11.311 -0.8360 -0.0667 -0.1782
48836SOL     OW52344   1.678   5.698   5.796  0.3021  0.0087 -0.2374
48836SOL    HW152345   1.666   5.603   5.798  3.1625 -0.4755  2.5973
48836SOL    HW252346   1.681   5.723   5.888  2.1514  2.4056 -0.8513
48837SOL     OW52347   7.867   0.554   8.574 -0.0335 -0.4122 -0.0471
48837SOL    HW152348   7.861   0.492   8.647  1.1112 -0.6819 -0.1590
48837SOL    HW252349   7.850   0.639   8.614 -2.2084 -0.8266 -0.0013
48838SOL     OW52350   8.906   7.147   6.883 -0.4522  0.3926  0.2341
48838SOL    HW152351   8.886   7.067   6.931 -2.2916 -0.0068 -1.1079
48838SOL    HW252352   8.989   7.129   6.838 -0.9211 -0.8025 -0.1618
48839SOL     OW52353   3.762   9.541   4.124  0.0782 -0.5513 -1.2411
48839SOL    HW152354   3.808   9.586   4.196  1.1655 -0.3747 -2.0069
48839SOL    HW252355   3.730   9.460   4.163 -2.4467  1.0847  0.3401
48840SOL     OW52356   7.305   6.075   5.492 -0.3758  0.1335 -0.5532
48840SOL    HW152357   7.384   6.049   5.444  1.6337 -0.3966  2.7517
48840SOL    HW252358   7.297   6.169   5.474  1.1382  0.2438 -0.7989
48841SOL     OW52359   3.048   8.157  12.242  0.2865  0.1365  0.1862
48841SOL    HW152360   3.118   8.116  12.192  1.2863 -0.2163  1.7998
48841SOL    HW252361   3.042   8.106  12.322 -1.1200  0.8067  0.5466
48842SOL     OW52362   2.976  11.270   0.250 -0.0827  0.4184  0.1760
48842SOL    HW152363   3.026  11.350   0.268  1.3862  0.0584 -1.9577
48842SOL    HW252364   3.042  11.201   0.252 -0.6564 -0.2183 -1.7208
48843SOL     OW52365   0.090   4.860   1.344 -0.2479 -0.1190 -0.5568
48843SOL    HW152366   0.008   4.909   1.353 -0.2464 -0.4463  4.6612
48843SOL    HW252367   0.063   4.769   1.332 -0.6585 -0.0963  0.1407
48844SOL     OW52368   8.926   4.106   5.572 -0.0136  0.8061 -0.1862
48844SOL    HW152369   8.942   4.200   5.567  0.5677  0.6472 -1.8497
48844SOL    HW252370   8.945   4.082   5.663  1.5863  1.9822 -0.1840
48845SOL     OW52371   2.889  10.845   3.251 -0.0553  0.4215 -0.5036
48845SOL    HW152372   2.848  10.783   3.310 -0.9533  1.0135 -0.4749
48845SOL    HW252373   2.869  10.931   3.289  1.3768  0.7362 -0.3990
48846SOL     OW52374  11.911   7.613   5.273  0.3293  1.1028  0.1918
48846SOL    HW152375  11.984   7.661   5.235  1.8712 -2.2767 -1.4684
48846SOL    HW252376  11.935   7.601   5.365  1.8429  0.1631 -0.3021
48847SOL     OW52377   9.247  10.003   9.334 -0.5826  0.1761  0.0307
48847SOL    HW152378   9.227   9.989   9.426  1.8977  1.1546  0.8239
48847SOL    HW252379   9.288  10.090   9.332 -1.4769  0.6186 -2.1704
48848SOL     OW52380   2.301  10.017   9.561  0.4154 -0.2850 -0.2512
48848SOL    HW152381   2.347  10.002   9.479 -1.4891  0.2148 -1.4666
48848SOL    HW252382   2.362   9.986   9.629  2.1326 -0.4652 -1.8054
48849SOL     OW52383   9.730   7.293   6.497 -0.2789 -0.1519  0.2620
48849SOL    HW152384   9.695   7.345   6.425  1.7652 -0.7690 -1.2496
48849SOL    HW252385   9.735   7.204   6.463 -0.1272 -0.6356  1.4963
48850SOL     OW52386  11.196   3.609  11.914 -0.4855  0.0067 -0.1080
48850SOL    HW152387  11.135   3.682  11.915  1.4356  1.6737 -0.1083
48850SOL    HW252388  11.168   3.556  11.839 -0.6748  1.8485 -1.4000
48851SOL     OW52389   8.067   0.031   7.776 -0.0067 -0.2571 -0.2412
48851SOL    HW152390   8.094   0.102   7.834 -0.3933  0.1692 -0.5843
48851SOL    HW252391   8.136   0.026   7.710  1.0217 -1.4760  0.8503
48852SOL     OW52392   6.775   2.333   6.557  0.1942  0.2649 -0.1367
48852SOL    HW152393   6.721   2.348   6.479 -2.1977  2.7551  1.8102
48852SOL    HW252394   6.717   2.287   6.618  2.0284 -1.6715  0.2768
48853SOL     OW52395  11.186   0.442  10.427  0.7297 -0.1210  0.2060
48853SOL    HW152396  11.245   0.367  10.439  1.1395  0.0566 -0.6234
48853SOL    HW252397  11.163   0.468  10.516 -0.9354 -2.3914  0.5483
48854SOL     OW52398   3.940  11.508  10.039 -0.4495 -0.3624 -0.1847
48854SOL    HW152399   3.929  11.454   9.961 -1.4123  0.2874 -0.5149
48854SOL    HW252400   3.887  11.464  10.106 -2.2009  0.7510 -0.7675
48855SOL     OW52401   2.223   4.783   2.375  0.0742  0.3295 -0.1134
48855SOL    HW152402   2.269   4.710   2.415  0.7841  1.0647  0.4470
48855SOL    HW252403   2.131   4.770   2.398  0.2881 -0.0329  0.5315
48856SOL     OW52404   9.964   0.549   1.650 -0.7592  0.7393  0.4055
48856SOL    HW152405   9.873   0.519   1.638 -0.4215 -0.3614  0.5086
48856SOL    HW252406  10.014   0.499   1.586 -0.2074  1.3072  0.3885
48857SOL     OW52407  10.450   3.459   0.333  0.2826  0.4725 -0.5103
48857SOL    HW152408  10.386   3.527   0.355 -1.0145 -0.8583  0.0274
48857SOL    HW252409  10.535   3.502   0.342 -0.4722  1.9205  0.1168
48858SOL     OW52410   6.576   5.927   4.452  0.4957  0.5133  0.4438
48858SOL    HW152411   6.589   6.020   4.436  1.9728  0.3896  0.7817
48858SOL    HW252412   6.654   5.885   4.416 -0.5397 -0.7079 -0.5105
48859SOL     OW52413   6.735   5.315   3.372 -0.2077  0.0772 -0.4949
48859SOL    HW152414   6.808   5.347   3.425 -0.4751 -0.7265  0.3858
48859SOL    HW252415   6.657   5.354   3.412 -0.3542  0.0866 -0.7837
48860SOL     OW52416   8.786   9.612   5.447 -0.2568  0.0590  0.0689
48860SOL    HW152417   8.822   9.529   5.416  3.1437  1.3491  0.2349
48860SOL    HW252418   8.782   9.668   5.369 -0.5380  0.4228  0.3362
48861SOL     OW52419   0.501   2.170   3.484  0.3925  0.0613 -0.7157
48861SOL    HW152420   0.471   2.087   3.521 -2.0315  1.1003 -0.1505
48861SOL    HW252421   0.510   2.153   3.390 -0.8543 -0.6353 -0.7253
48862SOL     OW52422   2.218   0.417   9.201  0.0464 -0.2239 -0.2171
48862SOL    HW152423   2.184   0.457   9.121 -2.0177 -3.1630 -0.9794
48862SOL    HW252424   2.303   0.379   9.175 -0.1782 -0.3526 -0.7768
48863SOL     OW52425   9.231   4.314   4.555 -0.0689  0.0215 -0.3001
48863SOL    HW152426   9.301   4.378   4.543  0.2030 -0.2740 -0.2853
48863SOL    HW252427   9.199   4.297   4.466  0.8250 -0.9018 -0.4651
48864SOL     OW52428  11.719  11.007   8.873 -0.4031  0.0883 -0.5261
48864SOL    HW152429  11.669  11.088   8.868 -0.3254  0.3098  1.4096
48864SOL    HW252430  11.784  11.023   8.941  0.9659 -0.9092 -1.5473
48865SOL     OW52431  11.359   9.450   1.907  0.3025  0.0190  0.2008
48865SOL    HW152432  11.438   9.415   1.867 -0.7831 -1.4620 -0.7721
48865SOL    HW252433  11.341   9.391   1.981 -1.8773 -2.0783 -1.8151
48866SOL     OW52434   2.519   6.703   5.361 -0.4465 -0.3121  0.1115
48866SOL    HW152435   2.581   6.693   5.433  2.0862  3.1165 -1.2666
48866SOL    HW252436   2.440   6.738   5.402  0.7881  1.1677  1.3583
48867SOL     OW52437  11.947   9.286  10.725  0.2171  0.4088  0.4467
48867SOL    HW152438  11.859   9.260  10.698  0.9701 -1.5884 -0.2767
48867SOL    HW252439  12.003   9.259  10.653  1.4189  1.9918  0.7279
48868SOL     OW52440  10.267  10.851  11.270  0.1676  0.0712  0.1547
48868SOL    HW152441  10.259  10.938  11.311 -0.8367 -1.4183  3.4985
48868SOL    HW252442  10.181  10.835  11.232  0.3083  0.4505 -0.3380
48869SOL     OW52443   6.870   2.072   4.409  0.1489 -0.1627  0.1746
48869SOL    HW152444   6.899   2.041   4.495  0.7330  0.2295  0.1270
48869SOL    HW252445   6.844   1.992   4.363  2.7454 -0.8117 -0.3705
48870SOL     OW52446   3.853   0.034   4.419  0.3839 -0.0161 -0.0704
48870SOL    HW152447   3.849   0.007   4.328 -1.9212  0.6294 -0.2151
48870SOL    HW252448   3.871  -0.047   4.467 -2.3591 -1.1723 -0.8153
48871SOL     OW52449   4.389   2.773  11.848 -0.3295 -0.1501  0.6833
48871SOL    HW152450   4.336   2.735  11.778 -0.6501 -0.6918  1.2121
48871SOL    HW252451   4.445   2.701  11.877 -1.1292 -0.3288  1.8756
48872SOL     OW52452  10.178  11.254   0.473 -0.2548 -0.6372 -0.3852
48872SOL    HW152453  10.216  11.217   0.393  0.9091 -2.3679  0.8963
48872SOL    HW252454  10.249  11.302   0.514 -0.8473  0.2503 -0.3566
48873SOL     OW52455  11.150   1.859   4.987 -0.0501 -0.7084  0.1905
48873SOL    HW152456  11.172   1.951   4.978 -1.1510 -0.2306  1.8657
48873SOL    HW252457  11.116   1.851   5.076 -1.2224 -2.4612 -0.3564
48874SOL     OW52458   8.111   1.325   1.868 -0.2486 -0.4805  0.2087
48874SOL    HW152459   8.145   1.386   1.803  1.2489 -2.0307 -0.5398
48874SOL    HW252460   8.186   1.306   1.925 -0.8683 -1.0835  0.8406
48875SOL     OW52461   5.806   8.662   6.105  0.6790 -0.1080  0.4600
48875SOL    HW152462   5.882   8.603   6.100 -0.6543 -1.8160 -1.4074
48875SOL    HW252463   5.730   8.604   6.093 -0.6572  2.0823 -3.7190
48876SOL     OW52464   0.713  10.253   5.267 -0.3709 -0.6530  0.0212
48876SOL    HW152465   0.788  10.220   5.317  0.2293 -1.2800 -1.2560
48876SOL    HW252466   0.650  10.182   5.270 -0.6999 -0.3461  0.6101
48877SOL     OW52467   6.868   0.489   9.834 -0.1158  0.4292 -0.0859
48877SOL    HW152468   6.914   0.426   9.779  0.3953 -0.2946  1.1097
48877SOL    HW252469   6.854   0.442   9.917 -0.9037  1.4494  0.3831
48878SOL     OW52470   7.829   0.247  11.912 -0.3126  0.1341 -0.4430
48878SOL    HW152471   7.849   0.186  11.841  1.2321  0.2881 -0.1566
48878SOL    HW252472   7.799   0.191  11.984 -0.6516 -0.1245 -0.7796
48879SOL     OW52473   8.212   4.938   3.303  0.1216 -0.6547 -0.2019
48879SOL    HW152474   8.272   4.996   3.350 -0.3962 -0.3754  0.1279
48879SOL    HW252475   8.181   4.992   3.230 -0.8579 -0.2755  0.4728
48880SOL     OW52476   5.793   1.517  10.372 -0.3571 -0.2343  0.1961
48880SOL    HW152477   5.723   1.571  10.336  0.2075  0.8128  0.6185
48880SOL    HW252478   5.834   1.572  10.439  2.4063  0.1600 -1.6445
48881SOL     OW52479   8.989   1.863   2.766  0.0053 -0.2769  0.0130
48881SOL    HW152480   9.051   1.932   2.742 -0.5610  0.2766  0.1232
48881SOL    HW252481   8.910   1.910   2.792 -1.2949 -0.9782 -2.3198
48882SOL     OW52482   6.181  12.091   5.728  0.3147 -0.4908 -0.0286
48882SOL    HW152483   6.219  12.041   5.801 -0.9463 -2.1708 -0.4616
48882SOL    HW252484   6.111  12.035   5.695 -0.3362  1.0508 -1.3779
48883SOL     OW52485  11.055   7.170  11.797 -0.6211  0.1501  0.1305
48883SOL    HW152486  11.125   7.210  11.848 -0.7955  1.3416 -0.5035
48883SOL    HW252487  11.059   7.077  11.818 -0.6148  0.5839  2.1827
48884SOL     OW52488   7.088   8.246   9.077  0.2826  0.0970 -0.3513
48884SOL    HW152489   6.993   8.242   9.089  0.3213 -0.1585 -0.1182
48884SOL    HW252490   7.105   8.338   9.058  0.0269  0.2144 -0.0414
48885SOL     OW52491   2.801   7.998   6.157 -0.2347 -0.2204 -0.1753
48885SOL    HW152492   2.853   7.991   6.237  0.2074  1.0737 -0.3301
48885SOL    HW252493   2.756   7.913   6.150 -1.9536  0.3382  2.6111
48886SOL     OW52494   2.698   7.689  10.070 -0.2247 -0.4992  0.6981
48886SOL    HW152495   2.709   7.680   9.976 -0.1742 -0.6016  0.7129
48886SOL    HW252496   2.754   7.763  10.094 -1.6973  0.7758  0.3691
48887SOL     OW52497   2.233   9.305   1.830  0.0322  0.3522 -0.1917
48887SOL    HW152498   2.291   9.364   1.782  0.7396 -0.2475 -0.0897
48887SOL    HW252499   2.171   9.363   1.875  0.6161  1.0084 -0.2213
48888SOL     OW52500  11.223  10.162   6.091 -0.3994 -0.5650  0.4195
48888SOL    HW152501  11.217  10.234   6.028 -2.7483 -1.0713 -0.0393
48888SOL    HW252502  11.231  10.084   6.037 -1.7087 -0.9383  0.7345
48889SOL     OW52503   1.498   4.381   6.226  0.0434  0.4512  0.2626
48889SOL    HW152504   1.547   4.461   6.245  0.5540  0.1223  0.3632
48889SOL    HW252505   1.499   4.374   6.131  1.3606 -0.2458  0.2988
48890SOL     OW52506   2.925  10.124   6.490 -0.4017 -0.0061 -0.1899
48890SOL    HW152507   2.978  10.155   6.417  0.6886  1.4800  1.1375
48890SOL    HW252508   2.941  10.030   6.494  0.5016  0.0964 -1.1000
48891SOL     OW52509  11.564   8.727   5.693 -0.5134 -0.5164  0.0893
48891SOL    HW152510  11.508   8.654   5.668 -1.8016  0.0359  1.1951
48891SOL    HW252511  11.555   8.790   5.622 -0.4397 -0.8772 -0.2436
48892SOL     OW52512   5.733   7.884   3.153  0.5550 -0.4031  0.0696
48892SOL    HW152513   5.733   7.858   3.246  1.2655  0.9147  0.4720
48892SOL    HW252514   5.824   7.870   3.125 -0.1903 -3.3818 -1.2601
48893SOL     OW52515   2.901  11.303  11.389 -0.1223  0.5256 -0.2623
48893SOL    HW152516   2.918  11.395  11.409  0.4295  0.1952  0.8268
48893SOL    HW252517   2.986  11.267  11.366 -0.0501 -0.1002  0.9369
48894SOL     OW52518   5.229   6.021   6.429 -0.3659  0.1228  0.0322
48894SOL    HW152519   5.155   5.961   6.427 -0.0570 -0.2643  0.0442
48894SOL    HW252520   5.298   5.975   6.381  0.4661 -0.3392  1.5926
48895SOL     OW52521  12.114   0.243   7.143  0.1323  0.5435  0.4327
48895SOL    HW152522  12.054   0.310   7.111 -1.0277 -0.3153  0.7497
48895SOL    HW252523  12.068   0.203   7.217  1.1599 -0.0499  0.7653
48896SOL     OW52524   1.967   5.619   8.381 -0.7968  0.1898  0.1224
48896SOL    HW152525   1.920   5.694   8.418 -1.7430 -0.0416 -0.5722
48896SOL    HW252526   1.899   5.567   8.337 -0.3386 -1.5994  1.3923
48897SOL     OW52527   5.556   0.057  11.341  0.5481 -0.2223  0.0456
48897SOL    HW152528   5.612   0.132  11.362  3.3765 -1.6066 -1.9527
48897SOL    HW252529   5.567  -0.002  11.415  1.9996 -0.5832 -0.4351
48898SOL     OW52530  11.146   1.738   4.144 -0.3926  0.3933  0.5240
48898SOL    HW152531  11.122   1.830   4.146  0.9076  0.7552  0.7105
48898SOL    HW252532  11.227   1.736   4.092 -0.4671 -0.6605  0.4288
48899SOL     OW52533  11.948  11.685   1.968 -0.5453  0.2198 -0.4539
48899SOL    HW152534  11.911  11.765   1.931  2.7773  0.6414 -3.3600
48899SOL    HW252535  11.949  11.623   1.895  1.3605 -0.8200  0.3829
48900SOL     OW52536   2.662   8.781  11.436  0.0052  0.3213 -0.0745
48900SOL    HW152537   2.738   8.777  11.378  0.5193 -1.0208  0.6263
48900SOL    HW252538   2.692   8.832  11.511  0.0156  0.2919 -0.0589
48901SOL     OW52539   1.357   6.179   5.198  0.3091  0.7196  0.0616
48901SOL    HW152540   1.351   6.085   5.216  0.4043  0.9419  1.3384
48901SOL    HW252541   1.271   6.202   5.164 -1.0255  0.8161  3.1376
48902SOL     OW52542   1.173  10.059   0.950 -0.2757  0.4404  0.1653
48902SOL    HW152543   1.148  10.000   1.021 -1.3446 -0.4016 -0.8675
48902SOL    HW252544   1.179  10.145   0.991 -2.3550  0.2385  0.9998
48903SOL     OW52545   2.146  10.784   7.720 -0.3571 -0.4211 -0.1508
48903SOL    HW152546   2.119  10.717   7.783 -1.7077  0.5613  0.3461
48903SOL    HW252547   2.122  10.749   7.635 -0.2166 -0.9535  0.0260
48904SOL     OW52548   7.495   0.512   4.455 -0.2338  0.0972 -0.2351
48904SOL    HW152549   7.465   0.596   4.490  1.1886  0.4507  0.1910
48904SOL    HW252550   7.429   0.449   4.483  0.1222  0.6111  1.9104
48905SOL     OW52551   5.418   8.725   0.568  0.3812 -0.1848 -0.5541
48905SOL    HW152552   5.439   8.652   0.510  2.7760  0.1417 -0.1639
48905SOL    HW252553   5.410   8.685   0.654 -1.3026 -0.3796 -0.7599
48906SOL     OW52554  10.351   6.211  12.206 -0.0940  0.4261  0.0478
48906SOL    HW152555  10.350   6.166  12.121  0.8847  1.6471 -0.6419
48906SOL    HW252556  10.442   6.233  12.221 -0.2145  0.0356  1.5608
48907SOL     OW52557   4.982  11.319   9.404 -0.4177 -0.5039  0.2707
48907SOL    HW152558   4.987  11.374   9.483 -1.1653 -0.2520  0.1505
48907SOL    HW252559   4.908  11.261   9.421 -1.8106  0.7858 -0.9932
48908SOL     OW52560   1.305  11.341   3.479  0.2642  0.1381  0.0540
48908SOL    HW152561   1.347  11.417   3.518  1.3265 -1.0824  1.4030
48908SOL    HW252562   1.251  11.304   3.549  2.4514 -2.2729  0.6369
48909SOL     OW52563   5.678   2.432   6.732  0.0789  0.2237 -0.3944
48909SOL    HW152564   5.653   2.343   6.757  1.1912  0.5420  2.2521
48909SOL    HW252565   5.634   2.448   6.649 -1.2196 -2.3097 -0.2728
48910SOL     OW52566  11.098   5.070  10.383 -0.8365  0.6331 -0.1387
48910SOL    HW152567  11.146   5.149  10.357 -1.0294  0.3705 -1.3172
48910SOL    HW252568  11.104   5.012  10.307 -0.7058 -0.4972  0.7030
48911SOL     OW52569   5.286   8.112   7.890  0.5747  0.1793 -0.6843
48911SOL    HW152570   5.204   8.118   7.939  0.9497 -2.4566  0.4575
48911SOL    HW252571   5.354   8.107   7.956  1.4776  0.3002 -1.5780
48912SOL     OW52572   1.676   9.892   0.756 -0.5688  0.2141 -0.5786
48912SOL    HW152573   1.589   9.929   0.767 -0.0702  0.9422  1.4809
48912SOL    HW252574   1.661   9.800   0.737 -1.8134  0.0179  1.1098
48913SOL     OW52575   0.621   7.663   0.048  0.3164  0.1985  0.6818
48913SOL    HW152576   0.585   7.751   0.058  0.2105  0.1609  0.6405
48913SOL    HW252577   0.700   7.675  -0.004  0.5722  0.3306  1.0963
48914SOL     OW52578   9.675  10.691   2.692 -0.4969  0.6117  0.2814
48914SOL    HW152579   9.624  10.772   2.701 -0.2289  0.9982 -1.3029
48914SOL    HW252580   9.736  10.693   2.765 -1.8094  0.8266  1.4262
48915SOL     OW52581   7.663   2.163   4.488 -0.3682  0.0903  0.2941
48915SOL    HW152582   7.686   2.073   4.512  0.5890 -0.0586 -1.0441
48915SOL    HW252583   7.568   2.161   4.474 -0.5591 -0.3867  1.5201
48916SOL     OW52584   6.762   9.730   6.668  0.1002 -0.2241 -0.1802
48916SOL    HW152585   6.771   9.820   6.637 -1.4507 -0.6113 -1.9537
48916SOL    HW252586   6.702   9.734   6.741  1.0008  0.3012  0.5475
48917SOL     OW52587   9.858   1.340   6.099  0.6137  0.8365  0.1148
48917SOL    HW152588   9.874   1.394   6.177  0.8157 -0.2238  0.8218
48917SOL    HW252589   9.914   1.263   6.112 -0.8719 -0.3117 -0.0877
48918SOL     OW52590  12.064   3.198  12.103  0.0318  0.1719  0.1636
48918SOL    HW152591  11.976   3.161  12.103  0.4194 -0.7980 -0.4188
48918SOL    HW252592  12.051   3.291  12.083 -0.8551  0.0507  0.1296
48919SOL     OW52593   8.568  11.026   9.462  0.1502  0.0379 -0.1660
48919SOL    HW152594   8.480  11.027   9.502 -0.1475  1.5643 -0.8140
48919SOL    HW252595   8.564  10.953   9.400  0.2978 -1.7372  1.7895
48920SOL     OW52596   1.048   8.767   1.384 -0.4801 -0.6232 -0.8862
48920SOL    HW152597   1.030   8.769   1.478 -0.7970 -0.4934 -0.9464
48920SOL    HW252598   0.985   8.829   1.347  0.7765  0.6387 -1.0102
48921SOL     OW52599  10.603  10.701   3.679  0.3697  0.1137 -0.1187
48921SOL    HW152600  10.525  10.757   3.687 -0.3854 -0.7771 -0.9545
48921SOL    HW252601  10.599  10.668   3.590  0.0944 -2.2368  0.6981
48922SOL     OW52602   9.821   4.913   8.006  0.2447  0.0425  0.2820
48922SOL    HW152603   9.735   4.921   8.049 -0.3654  1.5438 -1.1066
48922SOL    HW252604   9.872   4.986   8.042  1.2528 -1.2755  1.6571
48923SOL     OW52605   5.888   8.489   3.879  0.3612 -0.5927  0.2081
48923SOL    HW152606   5.823   8.490   3.950 -0.8623 -0.5459 -0.8789
48923SOL    HW252607   5.922   8.400   3.877  1.6114 -0.2099  1.8753
48924SOL     OW52608   4.677   5.988   3.454  0.0158 -0.0136 -0.0817
48924SOL    HW152609   4.700   5.919   3.391 -0.0684  0.2756 -0.4297
48924SOL    HW252610   4.595   5.957   3.493  0.1085 -0.2318 -0.0538
48925SOL     OW52611   6.264  10.043   8.616  0.2376 -0.4614  0.2102
48925SOL    HW152612   6.312  10.030   8.698  2.4069 -1.0238 -1.0669
48925SOL    HW252613   6.191   9.981   8.620 -0.7757  0.7488  2.4264
48926SOL     OW52614   0.244   1.524   3.094 -0.3562  0.2900 -0.1561
48926SOL    HW152615   0.221   1.523   3.187 -0.5583 -0.0330 -0.2087
48926SOL    HW252616   0.264   1.433   3.073  1.8084  0.6619  0.0762
48927SOL     OW52617   4.923   7.279   5.649  0.3742  0.4928 -0.3434
48927SOL    HW152618   4.990   7.338   5.615 -0.4342  1.0599 -1.0168
48927SOL    HW252619   4.971   7.215   5.702  1.1793  2.3713  1.3316
48928SOL     OW52620   2.172   3.765   6.757 -0.4164 -0.0254  0.7505
48928SOL    HW152621   2.159   3.853   6.791 -0.6519 -0.7963  2.8379
48928SOL    HW252622   2.238   3.774   6.689 -0.8254  1.8110  0.5493
48929SOL     OW52623   6.325   8.941  10.951  0.6515  0.6409  0.2994
48929SOL    HW152624   6.313   8.902  10.865  0.2381 -1.8888  1.4186
48929SOL    HW252625   6.237   8.964  10.979  0.9524  3.3762 -0.6842
48930SOL     OW52626   0.056   2.176  11.678 -0.2678 -0.6969 -0.7258
48930SOL    HW152627  -0.003   2.187  11.604 -0.6913  0.1165 -0.2929
48930SOL    HW252628   0.137   2.140  11.641 -0.4400 -0.2126 -1.5912
48931SOL     OW52629   7.014   0.180   0.434 -0.1483 -0.1570  0.1935
48931SOL    HW152630   7.022   0.228   0.352 -1.4691  2.1494  1.2990
48931SOL    HW252631   7.098   0.194   0.478 -0.7127  1.7469  0.7488
48932SOL     OW52632   6.021   4.247  10.035 -0.5170  0.1534 -0.0504
48932SOL    HW152633   6.025   4.274   9.944 -2.0747 -2.0281 -0.8661
48932SOL    HW252634   6.095   4.290  10.077  0.7055  0.5958 -2.5082
48933SOL     OW52635  10.895   8.458   8.604  0.7076  0.5263  0.4574
48933SOL    HW152636  10.935   8.545   8.601  0.3073  0.7370  1.0301
48933SOL    HW252637  10.875   8.438   8.513  0.7408  1.0679  0.3264
48934SOL     OW52638   3.528   9.039   9.547  0.9319  0.0796  0.3254
48934SOL    HW152639   3.524   9.118   9.493 -2.2636  0.7958  1.3629
48934SOL    HW252640   3.579   9.065   9.624  1.7175  0.4455 -0.3139
48935SOL     OW52641  10.233   4.824  11.722 -0.0183  0.1912  0.1523
48935SOL    HW152642  10.172   4.751  11.731  0.4238 -0.0857  1.0083
48935SOL    HW252643  10.297   4.794  11.658 -0.8289  0.5272 -0.8363
48936SOL     OW52644   0.894  11.120   8.670  0.6211 -0.1080 -0.4425
48936SOL    HW152645   0.976  11.072   8.685  0.8124 -0.0580 -1.2841
48936SOL    HW252646   0.921  11.212   8.672  0.5057 -0.0774 -0.2931
48937SOL     OW52647   0.093   2.231  10.899 -0.2300 -0.5429 -0.1488
48937SOL    HW152648   0.011   2.214  10.854 -1.0893 -0.0537  1.1723
48937SOL    HW252649   0.073   2.303  10.959  0.4709 -2.0860  2.0384
48938SOL     OW52650  10.654   2.339   7.508 -0.3860  0.2436 -0.6748
48938SOL    HW152651  10.713   2.414   7.513 -0.1393 -0.0610  2.3452
48938SOL    HW252652  10.581   2.362   7.566 -0.5527 -1.6297 -0.0844
48939SOL     OW52653   2.857   2.954   0.108 -0.2791 -0.4368  0.0375
48939SOL    HW152654   2.883   2.919   0.022  2.8715  2.4243 -0.4138
48939SOL    HW252655   2.939   2.958   0.157 -1.3647  1.4218  1.8325
48940SOL     OW52656   1.707   6.549   8.580  0.2053 -0.2936 -0.4125
48940SOL    HW152657   1.638   6.590   8.527 -1.5441 -0.8216  1.3202
48940SOL    HW252658   1.785   6.553   8.525 -1.0924  0.7297 -2.3091
48941SOL     OW52659   2.583   6.440   5.829  0.1834 -0.3132  0.2892
48941SOL    HW152660   2.567   6.349   5.852  0.1313 -0.1984  0.7076
48941SOL    HW252661   2.676   6.454   5.847  0.2220 -0.3192  0.0997
48942SOL     OW52662  12.193   9.131   5.675  0.0372 -0.3931  0.1347
48942SOL    HW152663  12.279   9.107   5.639 -0.0114  0.0857 -0.3177
48942SOL    HW252664  12.150   9.048   5.691  0.4327 -0.6337 -0.0238
48943SOL     OW52665   9.531   2.089   3.122  0.1827 -0.2935 -0.6894
48943SOL    HW152666   9.478   2.106   3.044 -0.0449  2.6412 -0.0393
48943SOL    HW252667   9.484   2.134   3.192  1.2802 -1.4026  0.8214
48944SOL     OW52668   7.405   8.361  12.305 -0.2275  0.2760 -0.2515
48944SOL    HW152669   7.322   8.345  12.349 -0.0932 -1.2123 -0.4989
48944SOL    HW252670   7.436   8.444  12.342 -1.7423  0.7817 -0.0573
48945SOL     OW52671   3.756   3.907   2.283 -0.1274  0.3194 -0.0826
48945SOL    HW152672   3.829   3.845   2.289 -0.7476 -0.4736 -0.5777
48945SOL    HW252673   3.782   3.968   2.214  0.7549  1.0016  0.8189
48946SOL     OW52674  10.738   2.428  10.044 -0.2357 -0.5279 -0.2459
48946SOL    HW152675  10.808   2.393   9.988 -0.4625  2.5380 -2.7617
48946SOL    HW252676  10.685   2.352  10.067  1.4847 -2.3527 -1.8708
48947SOL     OW52677  11.144   8.698   4.483  0.3998 -0.3192 -0.5144
48947SOL    HW152678  11.060   8.663   4.511  0.3497 -1.4208 -1.9575
48947SOL    HW252679  11.201   8.621   4.475  1.4671  0.3685  0.1093
48948SOL     OW52680   5.758  10.786  10.188  0.2763  0.0247  0.1964
48948SOL    HW152681   5.757  10.882  10.196 -0.8859 -0.0950  2.1722
48948SOL    HW252682   5.732  10.755  10.274 -0.7309 -2.0621 -0.7880
48949SOL     OW52683  11.988  10.671   7.245 -0.1167 -0.8775 -0.3608
48949SOL    HW152684  11.909  10.724   7.243  0.1661 -0.3976  0.9220
48949SOL    HW252685  11.959  10.583   7.219 -0.9749 -0.6037 -0.3239
48950SOL     OW52686   0.184   1.401   4.116 -1.1761 -0.2205 -0.0417
48950SOL    HW152687   0.104   1.398   4.064 -1.1267 -0.9558 -0.0911
48950SOL    HW252688   0.238   1.467   4.073 -0.3073 -2.1661 -2.1982
48951SOL     OW52689   6.275   7.105   4.932 -0.0233 -0.3675  0.2499
48951SOL    HW152690   6.327   7.071   4.859 -1.7849 -2.0173 -0.2962
48951SOL    HW252691   6.238   7.187   4.899 -0.8940 -1.1547 -0.7775
48952SOL     OW52692   6.403   9.527   3.042  0.0021 -0.1522  0.4694
48952SOL    HW152693   6.497   9.544   3.045  0.3380 -1.6453 -0.5052
48952SOL    HW252694   6.364   9.614   3.035  1.4090  0.4363 -0.6823
48953SOL     OW52695   3.625  10.629  10.542  0.2061  0.0797 -0.0020
48953SOL    HW152696   3.619  10.613  10.448  0.5751  3.7338 -0.8329
48953SOL    HW252697   3.717  10.653  10.556  0.1145 -0.2246  1.2638
48954SOL     OW52698   1.909   7.454   7.416  0.3914  0.3294 -0.3672
48954SOL    HW152699   1.898   7.549   7.411  0.6918  0.3138 -1.6412
48954SOL    HW252700   1.836   7.419   7.365  0.8230 -0.0990 -0.6932
48955SOL     OW52701   6.105  11.358   2.962 -0.6579 -0.7047  0.2408
48955SOL    HW152702   6.150  11.307   2.895 -0.4845 -0.9826  0.5622
48955SOL    HW252703   6.044  11.295   3.003  0.1305 -0.8775  1.1784
48956SOL     OW52704  12.046   1.687   5.401 -0.3149 -0.3907 -0.2425
48956SOL    HW152705  12.033   1.609   5.456 -0.8285 -1.0506 -1.2657
48956SOL    HW252706  12.095   1.747   5.457  0.2740 -1.5225  0.5040
48957SOL     OW52707   8.738   0.183   8.596 -0.8084  0.3509 -0.1114
48957SOL    HW152708   8.658   0.167   8.646 -0.9300  0.7481 -0.1784
48957SOL    HW252709   8.723   0.266   8.552  0.4271  1.4696  1.4523
48958SOL     OW52710   4.101   6.036   6.546  0.3814 -0.5696  0.1818
48958SOL    HW152711   4.025   6.094   6.554  1.6661  1.1319  0.7965
48958SOL    HW252712   4.105   5.990   6.630 -0.4596 -1.3587 -0.1895
48959SOL     OW52713   0.564   7.140   1.269  0.3984 -0.1273  0.0465
48959SOL    HW152714   0.582   7.053   1.234  1.4880 -0.3292  1.0069
48959SOL    HW252715   0.651   7.182   1.275 -0.0057  0.6952  0.4026
48960SOL     OW52716   3.013   1.743   0.501  0.6339  0.3603 -0.2992
48960SOL    HW152717   3.107   1.723   0.493  0.6907  0.0702  0.8417
48960SOL    HW252718   3.011   1.832   0.536  0.4476  0.8967 -1.6447
48961SOL     OW52719   9.110   8.681   5.789 -0.2788  0.7364 -0.0527
48961SOL    HW152720   9.041   8.699   5.853  0.4123  3.2511  0.0736
48961SOL    HW252721   9.189   8.670   5.843 -0.2816 -0.7162 -0.2938
48962SOL     OW52722   0.786   1.109   6.632 -0.1446  0.4522 -0.0975
48962SOL    HW152723   0.721   1.177   6.646 -0.5339  0.2800 -0.9739
48962SOL    HW252724   0.853   1.125   6.698 -1.9851 -0.5154  2.1545
48963SOL     OW52725   0.197   0.521   4.742 -0.2884 -0.5967 -0.2324
48963SOL    HW152726   0.225   0.564   4.823 -1.0206  0.5796 -0.5738
48963SOL    HW252727   0.140   0.586   4.699  1.3262 -0.5392 -2.4595
48964SOL     OW52728   7.610   9.867   8.040 -0.1830 -0.4238 -0.8759
48964SOL    HW152729   7.521   9.898   8.056  0.2084  0.1408  0.3307
48964SOL    HW252730   7.635   9.822   8.121  0.5346 -0.8252 -1.3013
48965SOL     OW52731   7.011  10.859   1.544 -0.7456  0.6061 -0.0167
48965SOL    HW152732   7.086  10.812   1.579 -0.1070  0.7294 -1.1607
48965SOL    HW252733   7.012  10.944   1.588 -0.8173  0.2430  0.7013
48966SOL     OW52734  11.260  11.180  11.997  0.0341  0.4193 -0.3332
48966SOL    HW152735  11.171  11.175  11.962  0.1947 -0.4069 -0.6381
48966SOL    HW252736  11.311  11.221  11.927 -0.1308  1.0651 -0.0877
48967SOL     OW52737   8.359   8.213   9.649  0.3586 -0.0929 -0.4540
48967SOL    HW152738   8.335   8.268   9.574 -2.3168 -0.6979 -0.1360
48967SOL    HW252739   8.296   8.236   9.717  0.4544 -2.1120  0.3766
48968SOL     OW52740  11.569  12.239   0.847 -0.7434  0.6200 -0.7173
48968SOL    HW152741  11.587  12.161   0.794  1.4498 -0.7878  1.8599
48968SOL    HW252742  11.538  12.204   0.931 -0.8975  2.6034  0.1031
48969SOL     OW52743   0.360   8.197   8.870  0.2059  0.3144 -0.2348
48969SOL    HW152744   0.452   8.205   8.845  0.1226 -0.2460 -0.7460
48969SOL    HW252745   0.342   8.275   8.921  1.6611 -0.7478  2.0811
48970SOL     OW52746   7.633   2.755   0.897 -0.2603 -0.1605  0.1078
48970SOL    HW152747   7.570   2.732   0.829 -0.0945 -3.0395  0.7919
48970SOL    HW252748   7.583   2.755   0.978 -0.3860  2.9121  0.1537
48971SOL     OW52749  10.684   5.138  11.807  0.3170 -0.1379 -0.3958
48971SOL    HW152750  10.730   5.059  11.836 -2.1090 -0.5581  2.9242
48971SOL    HW252751  10.617   5.106  11.748  0.9529 -0.1860 -1.1065
48972SOL     OW52752   7.375   8.822   0.106  0.2202 -0.0409  0.3270
48972SOL    HW152753   7.415   8.900   0.068  0.9037 -0.4385  0.2045
48972SOL    HW252754   7.307   8.797   0.043  2.4803 -1.7008 -1.6471
48973SOL     OW52755  10.905   2.901   5.655  0.3602  0.1078  0.2871
48973SOL    HW152756  10.978   2.852   5.616  1.9292  2.3171  0.2590
48973SOL    HW252757  10.888   2.857   5.738  3.1899  0.7194  1.2961
48974SOL     OW52758   4.081  11.183   9.673 -0.3435 -0.1674  0.6825
48974SOL    HW152759   4.028  11.179   9.593  0.0230  0.5910  0.3948
48974SOL    HW252760   4.150  11.246   9.653 -1.6752  1.9692  2.4500
48975SOL     OW52761   9.340   9.557   9.108 -0.2344 -0.0740  0.0721
48975SOL    HW152762   9.421   9.527   9.067 -0.2420 -0.7507  0.5498
48975SOL    HW252763   9.351   9.652   9.116  0.0294 -0.0069 -0.9182
48976SOL     OW52764   4.839   1.138   7.120  0.0778 -0.1962  0.2667
48976SOL    HW152765   4.929   1.165   7.103 -0.3960  1.6251  0.4710
48976SOL    HW252766   4.847   1.074   7.190  1.2426 -0.4256 -0.0447
48977SOL     OW52767  10.953   5.645   6.327 -0.1500 -0.0863 -0.1270
48977SOL    HW152768  11.045   5.664   6.307 -0.0742 -0.7198 -0.4163
48977SOL    HW252769  10.928   5.711   6.391  0.0961  0.9499 -1.0672
48978SOL     OW52770   5.798   1.984   9.996  0.0656  0.4299 -0.1553
48978SOL    HW152771   5.857   1.925   9.948 -2.3951 -1.6415 -0.8597
48978SOL    HW252772   5.853   2.058  10.021  3.0269 -1.5149 -0.4415
48979SOL     OW52773   5.039   5.250   8.208  0.2066 -0.4143  0.0907
48979SOL    HW152774   5.022   5.217   8.120  1.3679 -0.7196 -0.0380
48979SOL    HW252775   5.103   5.320   8.196 -0.5350  0.3578  0.5834
48980SOL     OW52776  10.511   0.363   6.965 -0.1722  0.1300 -0.0164
48980SOL    HW152777  10.594   0.319   6.946  1.5240  3.8746 -2.7423
48980SOL    HW252778  10.529   0.414   7.044  0.5368  1.5103 -1.0082
48981SOL     OW52779   9.175   2.274  11.242 -0.1595 -0.2134  0.0387
48981SOL    HW152780   9.139   2.202  11.295 -0.6659  0.1138  0.1407
48981SOL    HW252781   9.222   2.229  11.171  0.7402 -0.6631  0.8835
48982SOL     OW52782   2.809   8.017   1.965  0.3244  0.2969 -0.3951
48982SOL    HW152783   2.869   8.036   1.892 -0.5687 -0.6376 -1.4099
48982SOL    HW252784   2.722   8.036   1.929 -0.1623 -0.5893  0.2899
48983SOL     OW52785   8.353   5.402   3.138 -0.0356 -0.3908 -0.0916
48983SOL    HW152786   8.293   5.358   3.197 -1.3929  2.3177  0.7285
48983SOL    HW252787   8.313   5.488   3.123  2.6064  0.7655 -1.2059
48984SOL     OW52788   5.103   7.009   2.611 -0.1293  0.2687 -0.0092
48984SOL    HW152789   5.095   6.951   2.535 -1.7008  0.9807 -0.4247
48984SOL    HW252790   5.167   7.075   2.584  2.4421 -1.7178  0.8182
48985SOL     OW52791   3.514   1.735   3.212 -0.0039 -0.5038 -0.1555
48985SOL    HW152792   3.432   1.735   3.162  0.8073 -1.6243 -1.5408
48985SOL    HW252793   3.548   1.646   3.203  1.8202  0.1776 -0.3838
48986SOL     OW52794  11.962   0.318   1.723 -0.5685  0.2542 -0.0644
48986SOL    HW152795  11.988   0.338   1.813  0.8978 -0.9132 -0.1935
48986SOL    HW252796  11.891   0.254   1.732 -1.8349  1.6378  0.2530
48987SOL     OW52797   4.704   3.876   6.190  0.3733 -0.2449  0.0098
48987SOL    HW152798   4.705   3.781   6.203  2.7511 -0.3077 -0.1052
48987SOL    HW252799   4.687   3.887   6.097 -1.3128 -0.4480  0.2540
48988SOL     OW52800   1.120   0.326  11.398 -0.3181 -0.1231  0.1236
48988SOL    HW152801   1.168   0.282  11.327 -0.6330 -1.3316  0.6420
48988SOL    HW252802   1.143   0.418  11.388 -1.9335  0.0755 -2.8065
48989SOL     OW52803   5.569   0.857   0.327 -0.4132  0.1046 -0.1314
48989SOL    HW152804   5.576   0.771   0.285 -0.2419 -0.2095  0.5380
48989SOL    HW252805   5.542   0.839   0.416 -0.2426  0.7407  0.0572
48990SOL     OW52806   6.911   0.948   0.072  0.2933  0.1178 -0.1608
48990SOL    HW152807   6.827   0.957   0.028  0.4869  0.4668 -0.4633
48990SOL    HW252808   6.890   0.940   0.165 -0.0358  0.8756 -0.1650
48991SOL     OW52809   3.373   0.691  11.753  0.5283 -0.2304 -0.1440
48991SOL    HW152810   3.458   0.658  11.724 -0.5070 -1.9600 -1.3943
48991SOL    HW252811   3.343   0.626  11.817  0.6219  0.9861  1.1763
48992SOL     OW52812   8.747   5.274   7.248 -0.2692  0.6423  0.7916
48992SOL    HW152813   8.683   5.217   7.291 -0.4606  0.9877  0.9704
48992SOL    HW252814   8.758   5.348   7.308  0.5388  0.4304  0.9025
48993SOL     OW52815   8.222   6.824   7.776 -0.8430  0.4651 -0.2669
48993SOL    HW152816   8.179   6.909   7.778 -0.8145  0.5115 -1.1288
48993SOL    HW252817   8.152   6.762   7.755 -1.1433  0.0684  1.7637
48994SOL     OW52818   8.028  10.961   9.334 -0.2831  0.2582 -0.3633
48994SOL    HW152819   7.933  10.963   9.321 -0.5149  0.1513  1.0908
48994SOL    HW252820   8.048  10.868   9.347 -0.0072  0.3014 -0.4766
48995SOL     OW52821   4.610   0.503   1.815 -0.0212 -0.0992  0.1828
48995SOL    HW152822   4.527   0.456   1.820  1.0308 -1.8976  2.6303
48995SOL    HW252823   4.642   0.486   1.726 -1.8480 -0.0243 -0.5383
48996SOL     OW52824   9.906  11.302   7.740 -0.2493  0.1000  0.1204
48996SOL    HW152825  10.000  11.314   7.758  0.2146  0.0461 -1.9889
48996SOL    HW252826   9.880  11.382   7.696 -1.0567 -0.1562  0.1180
48997SOL     OW52827  11.027  12.276   8.923 -0.2112 -1.0218  0.2390
48997SOL    HW152828  11.105  12.226   8.945 -0.8284 -1.9637  0.3522
48997SOL    HW252829  11.059  12.349   8.871  0.7828 -1.1727  0.6108
48998SOL     OW52830   3.698   0.562   1.255 -0.0875  0.0556 -0.0975
48998SOL    HW152831   3.757   0.567   1.331 -0.0051 -0.4771 -0.1187
48998SOL    HW252832   3.704   0.471   1.227 -2.4696 -0.5671  1.1249
48999SOL     OW52833   7.561   9.703   3.807  0.1029  0.3837  0.3539
48999SOL    HW152834   7.592   9.783   3.849 -1.1613  0.9314  0.2760
48999SOL    HW252835   7.550   9.727   3.715  0.9292 -0.2450  0.0833
49000SOL     OW52836   4.494   5.207   1.276 -0.2167  0.5517  0.0976
49000SOL    HW152837   4.504   5.293   1.318  1.9737  1.2401 -1.6218
49000SOL    HW252838   4.436   5.224   1.201 -3.1899 -0.4375  2.0033
49001SOL     OW52839   3.007   5.516   1.472  0.0594  0.4144 -0.0732
49001SOL    HW152840   3.069   5.458   1.516 -1.5443 -0.3208  1.2914
49001SOL    HW252841   3.023   5.603   1.510 -0.2368  0.0886  0.7979
49002SOL     OW52842  12.227   3.331   6.997 -0.0385  0.2878  0.3167
49002SOL    HW152843  12.179   3.312   7.077 -2.4412  2.1885 -0.5313
49002SOL    HW252844  12.295   3.393   7.023 -1.2810  1.4831  0.8061
49003SOL     OW52845   6.713   2.966   8.637  0.9001 -0.1798 -0.0639
49003SOL    HW152846   6.716   2.883   8.684  0.2155 -0.0986  0.1403
49003SOL    HW252847   6.744   2.945   8.549  1.0602 -0.5764  0.0842
49004SOL     OW52848   3.625   3.166   7.124  0.0940 -0.0651 -0.3043
49004SOL    HW152849   3.547   3.194   7.173 -1.0693  0.2309 -2.2072
49004SOL    HW252850   3.591   3.108   7.056  1.4071  0.7511 -1.7221
49005SOL     OW52851  12.041   1.441   4.138 -0.2059  0.0822 -0.0712
49005SOL    HW152852  12.079   1.366   4.092 -0.4090 -0.1124  0.0762
49005SOL    HW252853  12.117   1.485   4.177 -0.2353 -1.0318  1.3051
49006SOL     OW52854  10.934   0.835   2.407  0.4575 -0.1335  0.4170
49006SOL    HW152855  10.875   0.762   2.425 -1.3719  0.8071 -1.4220
49006SOL    HW252856  11.018   0.793   2.385 -1.0838 -1.9195 -2.7091
49007SOL     OW52857   0.353   6.531   0.553 -0.1476  0.7877 -0.5793
49007SOL    HW152858   0.352   6.435   0.552  0.3000  0.7043  1.7697
49007SOL    HW252859   0.378   6.555   0.463  0.1192 -1.2907 -1.1234
49008SOL     OW52860   8.174  10.295   0.280  0.1520  0.2794 -0.3141
49008SOL    HW152861   8.131  10.273   0.197 -0.1752  1.1876 -0.4045
49008SOL    HW252862   8.108  10.347   0.327  0.7170  0.6631  0.0644
49009SOL     OW52863   6.612   9.663  11.333  0.7221  0.5987 -0.2543
49009SOL    HW152864   6.675   9.675  11.262  3.0900  1.0488  1.7804
49009SOL    HW252865   6.659   9.611  11.398 -1.7833 -0.8628  0.5197
49010SOL     OW52866   0.047   9.235   4.563  0.4583 -0.0498 -0.4939
49010SOL    HW152867  -0.041   9.235   4.600  0.1343 -1.8017 -1.1722
49010SOL    HW252868   0.044   9.301   4.494  0.2819  1.2957  0.7381
49011SOL     OW52869   7.192   4.808   0.173 -0.2355  0.5459  0.2457
49011SOL    HW152870   7.147   4.828   0.091  1.0402 -1.9916 -1.1952
49011SOL    HW252871   7.158   4.873   0.235 -1.7349  2.1674 -2.0800
49012SOL     OW52872   4.525   6.952   3.720 -0.3127  0.2763 -0.1786
49012SOL    HW152873   4.477   6.870   3.731  0.9720 -0.3370  1.1197
49012SOL    HW252874   4.490   7.009   3.788  0.7059 -0.1444  0.7168
49013SOL     OW52875   8.621  10.621   4.915 -0.2040 -0.0968 -0.1330
49013SOL    HW152876   8.536  10.652   4.946 -1.7751 -2.3312 -1.8712
49013SOL    HW252877   8.644  10.551   4.976 -0.0350 -0.0858 -0.1842
49014SOL     OW52878   5.114  10.364   9.733  0.2363  0.1879 -0.0752
49014SOL    HW152879   5.049  10.337   9.669  0.8317 -0.7974 -0.2894
49014SOL    HW252880   5.151  10.445   9.698 -0.5994  0.5531 -0.1348
49015SOL     OW52881   3.713  10.268   8.287 -0.8050 -0.1135 -0.2000
49015SOL    HW152882   3.634  10.291   8.337 -0.6521  1.2151 -0.5242
49015SOL    HW252883   3.686  10.275   8.196 -0.7984 -1.5098 -0.3292
49016SOL     OW52884   8.830   8.807  10.642 -0.0647 -0.1627 -0.2255
49016SOL    HW152885   8.751   8.754  10.641 -0.1693 -0.0158  0.1006
49016SOL    HW252886   8.804   8.890  10.602 -0.0873 -0.0980 -0.0757
49017SOL     OW52887  10.589   0.372   6.076 -0.1260  0.0189  0.3996
49017SOL    HW152888  10.530   0.429   6.125 -1.6236 -0.8104 -0.3737
49017SOL    HW252889  10.638   0.431   6.020 -0.6771  0.6799  0.5948
49018SOL     OW52890   7.940   2.447   0.849  0.4306 -0.3629 -0.4149
49018SOL    HW152891   7.937   2.498   0.768  3.4550 -0.0320 -0.4191
49018SOL    HW252892   7.969   2.510   0.915  3.3237 -1.7594 -0.2292
49019SOL     OW52893   7.377   2.515   0.396  0.1544  0.3437  0.2111
49019SOL    HW152894   7.309   2.476   0.450 -3.0369 -0.4919 -3.9385
49019SOL    HW252895   7.385   2.605   0.430 -1.6546 -0.0925  2.0010
49020SOL     OW52896  11.301  12.018   5.438  0.0775 -0.1634  0.2117
49020SOL    HW152897  11.369  12.015   5.505  0.8157 -2.2344 -0.5532
49020SOL    HW252898  11.348  12.003   5.356 -1.1621 -0.5841 -0.4441
49021SOL     OW52899   1.292  11.468   6.060  0.6526 -0.1700 -0.0505
49021SOL    HW152900   1.272  11.429   5.975 -2.0573  0.5309  0.1679
49021SOL    HW252901   1.374  11.426   6.088  1.0086 -1.2214 -2.4760
49022SOL     OW52902   6.409   5.255   3.384 -0.3986  0.1464  0.9658
49022SOL    HW152903   6.448   5.342   3.389 -0.9500  0.3413  2.5949
49022SOL    HW252904   6.331   5.260   3.440 -0.4861 -1.3595  1.0314
49023SOL     OW52905   3.289   3.856   1.796  0.1821 -0.4225 -0.0617
49023SOL    HW152906   3.249   3.852   1.710  0.6700  1.9238 -0.4661
49023SOL    HW252907   3.359   3.791   1.793 -1.5398 -2.3591 -0.4040
49024SOL     OW52908   7.600   6.321  11.010 -0.0643  1.0612 -0.0195
49024SOL    HW152909   7.618   6.317  10.916 -1.7071  1.7471 -0.4063
49024SOL    HW252910   7.631   6.237  11.044  0.3518  0.7051 -1.2049
49025SOL     OW52911   6.957   3.850   6.262  0.6870 -0.1643  0.4902
49025SOL    HW152912   6.943   3.938   6.229  0.2716 -0.4015  0.0274
49025SOL    HW252913   7.033   3.858   6.320  0.8565  0.4273  0.1923
49026SOL     OW52914  10.502   1.801   8.518  0.0403  0.2017  0.4877
49026SOL    HW152915  10.527   1.710   8.533  0.5872  0.3268  0.3517
49026SOL    HW252916  10.536   1.848   8.594  0.1142  0.3543  0.3612
49027SOL     OW52917  11.739   5.511   5.807  0.2191 -0.3508  0.9281
49027SOL    HW152918  11.726   5.494   5.900  0.9967 -2.9017  0.6498
49027SOL    HW252919  11.805   5.581   5.804  0.3819 -0.4183  2.2865
49028SOL     OW52920   7.894  11.648   8.681  0.0933 -0.4074 -0.0354
49028SOL    HW152921   7.813  11.697   8.698 -0.0415 -0.7686  0.3836
49028SOL    HW252922   7.898  11.642   8.585 -0.7737 -1.0330 -0.0409
49029SOL     OW52923   0.623   0.584   7.017 -0.3893  0.1865  0.5950
49029SOL    HW152924   0.534   0.586   6.982  0.1222 -0.7319 -0.8445
49029SOL    HW252925   0.611   0.582   7.112 -2.0113 -2.3083  0.4396
49030SOL     OW52926   6.585   5.472   0.053 -0.2283  0.2352  0.4611
49030SOL    HW152927   6.537   5.486  -0.029 -0.1460 -2.2826 -0.1146
49030SOL    HW252928   6.516   5.467   0.119 -0.5099  0.0090  0.1604
49031SOL     OW52929   4.144   7.487   5.057 -0.3150 -0.0125 -0.0996
49031SOL    HW152930   4.108   7.536   5.131 -1.5812  0.3641 -0.9375
49031SOL    HW252931   4.069   7.438   5.023 -0.0567  0.8350 -1.9443
49032SOL     OW52932   3.249   9.104   9.451  0.6742 -0.5144 -0.7707
49032SOL    HW152933   3.339   9.110   9.420  1.1063  0.4254  0.5898
49032SOL    HW252934   3.222   9.194   9.464 -0.5221 -0.7876 -1.2806
49033SOL     OW52935   2.112  11.556   4.824 -0.4820  0.0154  0.2370
49033SOL    HW152936   2.146  11.509   4.900 -0.0920  0.1757  0.1627
49033SOL    HW252937   2.100  11.488   4.758  0.4709  0.0725 -0.0067
49034SOL     OW52938   0.292   5.460   8.305 -0.7111 -0.0695 -0.6238
49034SOL    HW152939   0.197   5.463   8.297 -0.7647  0.0106 -0.0085
49034SOL    HW252940   0.320   5.396   8.240 -1.1391  0.2976 -1.1785
49035SOL     OW52941   2.057   6.335   8.506 -0.3605  0.6405 -0.0702
49035SOL    HW152942   2.149   6.322   8.530 -0.3000  0.4208 -0.4022
49035SOL    HW252943   2.009   6.270   8.557 -0.1211 -0.5492 -1.2876
49036SOL     OW52944  12.098   8.600   6.111  0.0127 -0.0080 -0.4988
49036SOL    HW152945  12.024   8.553   6.073 -0.0157  0.6172 -1.2305
49036SOL    HW252946  12.065   8.688   6.129 -0.2236 -0.5029  1.7971
49037SOL     OW52947   2.200   9.826   3.093 -0.4451 -0.1149 -0.0365
49037SOL    HW152948   2.239   9.845   3.007  1.1392 -0.5571  0.5416
49037SOL    HW252949   2.218   9.904   3.145  0.7324 -0.7546  0.5650
49038SOL     OW52950   1.082   3.072   8.032  0.4941  0.1287 -0.3466
49038SOL    HW152951   1.077   3.089   8.126 -1.7877 -3.7187  0.4402
49038SOL    HW252952   1.176   3.059   8.014  0.7409 -2.5028  2.2456
49039SOL     OW52953   9.385  11.984   5.428  0.2603  0.6610  0.1613
49039SOL    HW152954   9.328  12.043   5.478  1.8371  0.4913  2.3258
49039SOL    HW252955   9.467  11.985   5.477  1.2766 -1.0755 -1.4216
49040SOL     OW52956   9.025   8.432   4.808  0.4904  0.2072 -0.3293
49040SOL    HW152957   9.068   8.401   4.888  0.4603  0.1668 -0.3293
49040SOL    HW252958   8.937   8.393   4.812  0.5961 -0.0527 -0.5413
49041SOL     OW52959   2.434   9.709   7.644 -0.6974 -0.3782 -0.0840
49041SOL    HW152960   2.427   9.672   7.732 -0.2912 -2.2387 -0.7934
49041SOL    HW252961   2.399   9.798   7.653  0.0658 -0.2316  2.1120
49042SOL     OW52962   5.381  10.031   5.048 -0.0827  0.3071 -0.3871
49042SOL    HW152963   5.367   9.937   5.054 -0.7525  0.3745 -0.7838
49042SOL    HW252964   5.402  10.047   4.956 -0.1693  0.5686 -0.3635
49043SOL     OW52965   6.826   9.853   1.136 -0.1052 -0.0191 -0.3183
49043SOL    HW152966   6.784   9.908   1.203  0.2401  2.5780 -2.0984
49043SOL    HW252967   6.753   9.815   1.088 -0.3779 -2.5035  1.8338
49044SOL     OW52968   0.347  10.938  11.574 -0.4120  0.4535 -0.3388
49044SOL    HW152969   0.408  11.012  11.571 -1.0115  0.9443 -0.5234
49044SOL    HW252970   0.396  10.866  11.533 -0.4904  1.2469 -1.9190
49045SOL     OW52971   1.883   6.381   9.593 -0.1148  0.4137 -0.6835
49045SOL    HW152972   1.831   6.462   9.591 -0.4139  0.2397 -0.2359
49045SOL    HW252973   1.970   6.409   9.620  0.1959  0.7889 -2.0063
49046SOL     OW52974   7.197   4.292   2.813  0.0167 -0.2470  0.2973
49046SOL    HW152975   7.184   4.369   2.868  0.6748  0.8141 -0.9652
49046SOL    HW252976   7.120   4.290   2.756  0.5278  0.1576 -0.4267
49047SOL     OW52977   2.911   6.422   6.492  0.9565  0.1861  0.5921
49047SOL    HW152978   2.849   6.480   6.536  1.5776  1.7023 -0.4465
49047SOL    HW252979   2.876   6.334   6.505 -0.7972  0.9105  0.9867
49048SOL     OW52980   0.208   6.182   1.273  0.1140 -0.5093  0.0624
49048SOL    HW152981   0.198   6.246   1.202  0.5400  0.5201  0.8999
49048SOL    HW252982   0.167   6.223   1.349  1.7025 -0.5413  0.9964
49049SOL     OW52983   2.143   3.982   8.176 -0.2271 -0.0303  0.5755
49049SOL    HW152984   2.150   4.055   8.115 -1.2204  0.4705  1.0461
49049SOL    HW252985   2.129   3.905   8.121  2.2211 -0.1367 -0.0233
49050SOL     OW52986   0.762   3.833   3.359  0.2465 -0.5785 -0.3185
49050SOL    HW152987   0.759   3.925   3.330 -0.0654  0.1196  1.7982
49050SOL    HW252988   0.841   3.827   3.411 -0.1735 -1.3034  0.2472
49051SOL     OW52989   3.258   9.268  10.314  0.3635 -0.4351  0.0454
49051SOL    HW152990   3.330   9.245  10.255 -1.3430 -2.6581 -1.3590
49051SOL    HW252991   3.227   9.183  10.348 -2.2792  0.2790 -0.3338
49052SOL     OW52992   0.788   9.347   1.419  0.1625  0.3015 -0.4224
49052SOL    HW152993   0.745   9.320   1.500 -0.6495 -0.3367 -1.0528
49052SOL    HW252994   0.843   9.273   1.394 -1.7089 -0.6763 -1.9012
49053SOL     OW52995   8.051   2.625   2.424 -0.0514 -0.0316 -0.4764
49053SOL    HW152996   7.999   2.555   2.464  0.0391  1.2568  2.1324
49053SOL    HW252997   8.003   2.705   2.445  0.4006  0.8300 -2.4741
49054SOL     OW52998   8.931   7.528   5.188 -0.6345  0.0306 -0.1423
49054SOL    HW152999   8.964   7.541   5.098  2.2523 -0.5794  0.7135
49054SOL    HW253000   8.917   7.433   5.194 -0.8709  0.0788  0.0421
49055SOL     OW53001   5.486   2.398  11.262  0.8324 -0.3463  0.4695
49055SOL    HW153002   5.400   2.392  11.304  0.7415 -3.0213  0.0779
49055SOL    HW253003   5.466   2.399  11.168  1.2092  0.3519  0.3910
49056SOL     OW53004   2.173   5.815   8.789  0.6195  0.2109 -0.9284
49056SOL    HW153005   2.177   5.851   8.701 -1.7982 -0.3475 -1.3464
49056SOL    HW253006   2.173   5.892   8.846 -1.3955  0.8414 -1.6624
49057SOL     OW53007  10.239   3.639   5.064 -0.2611 -0.1137  0.2607
49057SOL    HW153008  10.226   3.722   5.110 -1.4581  1.5097 -2.7360
49057SOL    HW253009  10.334   3.627   5.061 -0.1085  0.5075  1.6743
49058SOL     OW53010   5.936   9.989   3.509  0.1701 -0.8089  0.1049
49058SOL    HW153011   5.871   9.946   3.454 -1.1210  1.6737 -0.4743
49058SOL    HW253012   6.020   9.959   3.475 -0.6140 -2.6420 -0.3572
49059SOL     OW53013   6.323   9.731   9.197 -0.3514 -0.4015  0.3676
49059SOL    HW153014   6.261   9.659   9.201  2.0977 -2.7498 -1.0370
49059SOL    HW253015   6.355   9.731   9.107 -0.7158  2.9265  0.1165
49060SOL     OW53016   4.768   2.592  10.296 -0.7558 -0.0571  0.9117
49060SOL    HW153017   4.749   2.559  10.384 -1.4275 -0.1150  0.7479
49060SOL    HW253018   4.743   2.685  10.300  0.0371  0.1647  1.0301
49061SOL     OW53019   4.790  11.284   6.274 -0.7317  0.1704 -0.2981
49061SOL    HW153020   4.851  11.265   6.345  0.0218 -0.2868 -1.0443
49061SOL    HW253021   4.741  11.360   6.304  0.2595  0.5986  0.2927
49062SOL     OW53022   1.173   5.056   3.173  0.8090  0.0690  0.0233
49062SOL    HW153023   1.106   5.122   3.157  0.5454  0.0478  0.9861
49062SOL    HW253024   1.125   4.973   3.175  0.7140  0.1426  1.6047
49063SOL     OW53025  10.627   5.993   7.114 -0.0149  0.6428 -0.3830
49063SOL    HW153026  10.601   5.961   7.200 -0.7442  1.6650 -0.1990
49063SOL    HW253027  10.557   6.054   7.089  0.7327  1.1939 -1.2063
49064SOL     OW53028   8.389  12.101  10.453 -0.1072 -0.1614 -0.4713
49064SOL    HW153029   8.441  12.181  10.458  0.3358 -0.4892  0.7210
49064SOL    HW253030   8.300  12.130  10.436  0.4407  0.4108 -2.6842
49065SOL     OW53031   7.015   7.958   8.074  0.1603 -0.1769  0.3269
49065SOL    HW153032   7.017   8.046   8.111  1.6090 -0.4460  0.9385
49065SOL    HW253033   7.080   7.909   8.124 -1.3350 -1.8885  0.6889
49066SOL     OW53034   0.767   8.149   4.901 -0.6311  0.2547 -0.5509
49066SOL    HW153035   0.764   8.236   4.940 -2.0252 -0.9047  2.1627
49066SOL    HW253036   0.848   8.149   4.849  0.9318  2.2519  1.6715
49067SOL     OW53037   1.551   8.395   6.047  0.2506 -0.0385  0.3940
49067SOL    HW153038   1.509   8.445   5.977 -0.3867 -1.2022 -0.0747
49067SOL    HW253039   1.571   8.310   6.008  2.7742  0.3357  0.6936
49068SOL     OW53040  11.366   6.180   1.062  0.5751 -0.2498 -0.2236
49068SOL    HW153041  11.353   6.146   1.150  0.6569  0.2421 -0.0198
49068SOL    HW253042  11.329   6.113   1.004  0.3710 -0.4938  0.1901
49069SOL     OW53043   1.137   9.348  12.236  0.4232 -0.4569 -0.1703
49069SOL    HW153044   1.178   9.345  12.323 -0.4671 -0.6346  0.2550
49069SOL    HW253045   1.078   9.272  12.235  0.8287 -0.7758 -1.1432
49070SOL     OW53046   4.697  11.765  11.701  0.7641 -0.4970 -0.1594
49070SOL    HW153047   4.721  11.752  11.609 -1.0285  1.8829 -1.0596
49070SOL    HW253048   4.735  11.849  11.724  0.8567 -0.8829  1.1863
49071SOL     OW53049  10.602   4.934   1.846  0.1010 -0.5009  0.2411
49071SOL    HW153050  10.611   4.909   1.754 -0.4996 -2.2548  0.6220
49071SOL    HW253051  10.519   4.982   1.850  0.5702  0.3871 -0.2618
49072SOL     OW53052   7.825   0.227   1.806 -0.0262 -0.1509  0.7482
49072SOL    HW153053   7.807   0.190   1.892  0.4671 -1.2565  0.4032
49072SOL    HW253054   7.795   0.160   1.744  0.9139 -0.0047  0.0951
49073SOL     OW53055   6.606   8.630   8.327 -0.2664  0.5362 -0.2927
49073SOL    HW153056   6.683   8.590   8.286  0.5653  1.3290  0.4454
49073SOL    HW253057   6.548   8.652   8.254  1.4261  2.4407 -1.1403
49074SOL     OW53058   3.423   9.500   9.354 -0.1729  0.3756 -0.2347
49074SOL    HW153059   3.458   9.559   9.287  0.6011  0.4504  0.2172
49074SOL    HW253060   3.430   9.550   9.436 -1.4121  0.4047 -0.1399
49075SOL     OW53061  10.990   1.273   2.696 -0.5014  0.3566 -0.0184
49075SOL    HW153062  10.967   1.244   2.784  0.4094  0.8601  0.4067
49075SOL    HW253063  11.030   1.196   2.654  1.1576  0.7205  0.8177
49076SOL     OW53064   3.806   8.830   0.295 -0.0704  0.1266 -0.4357
49076SOL    HW153065   3.725   8.866   0.258  0.0531  2.1831  1.1097
49076SOL    HW253066   3.871   8.840   0.225  0.2747  4.3238  0.2457
49077SOL     OW53067   0.996  11.529   7.392  0.7929 -0.5258  0.2808
49077SOL    HW153068   0.956  11.462   7.446  0.1153  0.7228  1.3924
49077SOL    HW253069   1.018  11.485   7.310  0.6094 -2.1389  1.0674
49078SOL     OW53070   8.221  10.332   9.608  0.2391  0.1075  0.2079
49078SOL    HW153071   8.266  10.272   9.548 -1.7100 -0.1140 -1.1087
49078SOL    HW253072   8.187  10.401   9.552 -2.2679 -0.4888  0.8919
49079SOL     OW53073   9.014   2.572   8.691 -0.0518 -0.1405 -0.4677
49079SOL    HW153074   8.919   2.582   8.700 -0.0054  0.4980 -0.6422
49079SOL    HW253075   9.045   2.658   8.663  0.9775  0.6369  2.6787
49080SOL     OW53076   9.913   3.137  10.614  0.5937  0.0386  0.2805
49080SOL    HW153077   9.838   3.100  10.661 -0.1905 -0.9421 -1.6073
49080SOL    HW253078   9.985   3.077  10.633 -0.0963 -1.2257 -0.9099
49081SOL     OW53079  10.842   7.165   5.701  0.3950  0.2230  0.1812
49081SOL    HW153080  10.788   7.159   5.779  0.7222  1.1679  0.4851
49081SOL    HW253081  10.780   7.153   5.628  0.0231 -0.2014  0.5598
49082SOL     OW53082   2.759   0.322   2.784 -0.0212 -0.0826  0.5174
49082SOL    HW153083   2.725   0.310   2.695 -0.7142  0.1274  0.7481
49082SOL    HW253084   2.684   0.353   2.835 -0.1483 -1.9971  1.6097
49083SOL     OW53085   6.454   4.600   9.299  0.0630 -0.2294  0.3504
49083SOL    HW153086   6.494   4.670   9.247 -0.6165 -0.2701 -0.2266
49083SOL    HW253087   6.524   4.536   9.309  1.6233  1.6423  3.1691
49084SOL     OW53088   4.898   0.074   1.068  0.0977 -0.3371  0.2578
49084SOL    HW153089   4.928   0.130   0.997  0.0667 -0.0380  0.4834
49084SOL    HW253090   4.973   0.018   1.088 -0.3380 -1.4198 -0.9931
49085SOL     OW53091   7.282   9.717   8.858 -0.1000  0.1915 -0.0054
49085SOL    HW153092   7.248   9.643   8.908  0.7659  0.5129  1.1112
49085SOL    HW253093   7.219   9.787   8.873 -0.7716 -0.2218 -0.8325
49086SOL     OW53094   4.711   7.402   5.257  0.0648  0.4844  0.4790
49086SOL    HW153095   4.760   7.460   5.199  0.9461 -0.2791  0.4327
49086SOL    HW253096   4.775   7.373   5.323  0.0719 -1.5306 -0.3172
49087SOL     OW53097  11.904   7.882   0.669  0.5791 -0.0024  0.2799
49087SOL    HW153098  11.984   7.837   0.641  0.5585  0.0248  0.1777
49087SOL    HW253099  11.892   7.855   0.760  0.5141 -0.2777  0.1888
49088SOL     OW53100   0.845   3.280  11.196 -0.2508 -0.1805  1.1962
49088SOL    HW153101   0.845   3.335  11.118 -0.4232 -0.9655  0.6344
49088SOL    HW253102   0.903   3.325  11.257 -0.5067  0.7020  0.8063
49089SOL     OW53103   7.983  10.781  12.238 -0.0485 -0.2053 -0.3630
49089SOL    HW153104   8.004  10.801  12.146  0.2973 -2.9261 -0.9706
49089SOL    HW253105   7.901  10.732  12.234 -1.5014  1.9798  1.0995
49090SOL     OW53106   8.325   8.471   1.444 -0.0263 -0.1564  0.3311
49090SOL    HW153107   8.262   8.421   1.496 -2.2628  1.4987 -0.6050
49090SOL    HW253108   8.271   8.524   1.384  2.3028  0.5588 -1.3166
49091SOL     OW53109   9.902   7.964   3.040 -0.4776  0.9973 -0.0449
49091SOL    HW153110   9.935   7.940   3.127  0.1206  2.5895  0.2108
49091SOL    HW253111   9.945   7.903   2.980  0.6270  1.1061  0.6009
49092SOL     OW53112  12.144   9.317  12.054 -0.5828  0.3360 -0.2896
49092SOL    HW153113  12.222   9.269  12.023 -0.6626  0.4534 -0.6847
49092SOL    HW253114  12.179   9.386  12.109 -0.4930 -0.4804  0.7107
49093SOL     OW53115   6.045  10.399   0.426  0.2174  0.3086 -0.0212
49093SOL    HW153116   5.965  10.349   0.409  2.0955 -2.2426 -2.1503
49093SOL    HW253117   6.045  10.466   0.358  0.4864 -0.5291 -0.8709
49094SOL     OW53118   0.793   1.521   7.781 -0.1444  0.1596 -0.4166
49094SOL    HW153119   0.876   1.475   7.767  1.3702  1.6844  2.5581
49094SOL    HW253120   0.818   1.603   7.823 -3.1291  1.2845 -0.5944
49095SOL     OW53121   1.534   5.066   9.801  0.0103 -0.2633 -0.0290
49095SOL    HW153122   1.597   5.067   9.729 -0.2848  1.8819 -0.3214
49095SOL    HW253123   1.560   5.139   9.856  0.0437 -1.6905  1.9373
49096SOL     OW53124   5.183   1.252   0.350  0.1496 -0.1288  0.0281
49096SOL    HW153125   5.209   1.165   0.381  0.1535 -0.3733 -0.6456
49096SOL    HW253126   5.261   1.286   0.306 -0.4497 -0.6254 -1.4871
49097SOL     OW53127  11.946  11.591   7.425 -0.0629  0.0612  0.1057
49097SOL    HW153128  11.863  11.610   7.382  0.2831  1.3491 -0.0472
49097SOL    HW253129  11.925  11.585   7.518 -0.5169 -0.8828 -0.0484
49098SOL     OW53130   1.767  10.084   3.720 -0.3600  0.6736 -0.1910
49098SOL    HW153131   1.718  10.074   3.639 -0.7221  0.2709  0.0757
49098SOL    HW253132   1.855  10.112   3.691 -0.3632  0.1315 -0.7402
49099SOL     OW53133   2.939   9.638   0.075  0.4336 -0.5196 -0.7964
49099SOL    HW153134   2.857   9.647   0.124  1.0264 -2.7186  0.7711
49099SOL    HW253135   2.915   9.652  -0.016 -1.4948 -0.1513 -0.2701
49100SOL     OW53136   8.016  12.183   5.817 -1.3353 -0.0437 -0.7921
49100SOL    HW153137   8.002  12.257   5.759  0.0531  0.6769 -0.2694
49100SOL    HW253138   7.928  12.155   5.843 -1.9211  0.5585 -2.0424
49101SOL     OW53139   6.709   2.785  12.155  0.0931 -0.5711 -0.6733
49101SOL    HW153140   6.758   2.703  12.163 -0.8701 -1.1988 -0.9670
49101SOL    HW253141   6.656   2.774  12.076 -0.2204  0.2465 -0.5883
49102SOL     OW53142   7.082   0.340  10.860 -0.1149  0.1269  0.0536
49102SOL    HW153143   7.127   0.424  10.853  0.9049 -0.4310 -0.3171
49102SOL    HW253144   7.146   0.282  10.900 -0.5675 -0.6484 -0.3258
49103SOL     OW53145   6.578   8.951   3.541  0.2351  0.3363  0.3706
49103SOL    HW153146   6.534   8.871   3.569  1.3273 -1.2677 -2.1342
49103SOL    HW253147   6.529   8.980   3.464  1.5960  0.2965 -0.5551
49104SOL     OW53148   6.983   1.496   5.636 -0.9120  0.4104 -0.3311
49104SOL    HW153149   7.050   1.429   5.644  1.1907  2.4753  0.6037
49104SOL    HW253150   6.970   1.507   5.542 -0.8367 -0.8419 -0.5030
49105SOL     OW53151   8.782   9.529  10.460  0.1362  0.3960  0.2945
49105SOL    HW153152   8.713   9.463  10.470 -0.5299  0.7439 -1.5782
49105SOL    HW253153   8.735   9.609  10.436  1.0748  1.1092  0.7696
49106SOL     OW53154   3.671   4.030   0.023 -0.3164  0.1325 -0.2609
49106SOL    HW153155   3.752   4.028   0.073  1.1188  1.5754 -2.3422
49106SOL    HW253156   3.612   4.087   0.073 -0.3515 -1.4244  1.5823
49107SOL     OW53157   2.115  10.137   0.393  0.1855  0.1432 -0.2228
49107SOL    HW153158   2.158  10.159   0.475 -2.0117  0.1917  0.9840
49107SOL    HW253159   2.061  10.060   0.413  0.1484 -0.2987 -1.8248
49108SOL     OW53160   5.814   1.098  11.927 -0.3416  0.3327  0.2984
49108SOL    HW153161   5.850   1.016  11.895 -0.6047  0.9090 -1.5667
49108SOL    HW253162   5.761   1.131  11.855  0.0344  2.3089  0.8700
49109SOL     OW53163   3.349   1.088   6.030 -0.2051 -0.1810  0.1503
49109SOL    HW153164   3.399   1.113   5.952  1.1753  1.6935  1.5643
49109SOL    HW253165   3.294   1.164   6.049  0.1879 -0.2139  1.5278
49110SOL     OW53166   1.252  10.027   9.174  0.2691  0.0384  0.0733
49110SOL    HW153167   1.281   9.982   9.253  0.2684  0.4155  0.2911
49110SOL    HW253168   1.165   9.990   9.157  0.6099 -0.6470 -0.2342
49111SOL     OW53169   7.490   8.430   6.979  0.1034  0.2587 -0.2400
49111SOL    HW153170   7.487   8.466   7.067  0.0361 -2.0482  0.7481
49111SOL    HW253171   7.573   8.383   6.974  0.4571  0.9511 -1.6899
49112SOL     OW53172   2.713   9.413  12.255 -0.5153 -1.0226  0.1985
49112SOL    HW153173   2.749   9.377  12.336 -0.6708  0.2737  0.8648
49112SOL    HW253174   2.636   9.463  12.282  0.3181  0.7389 -0.5138
49113SOL     OW53175   4.678   5.778   1.074 -0.0046  0.0159  0.4261
49113SOL    HW153176   4.634   5.693   1.078  0.0842 -0.0554 -0.0287
49113SOL    HW253177   4.607   5.842   1.066 -0.2500  0.2404  3.4914
49114SOL     OW53178  11.630   9.581   2.495 -0.4069  0.1355 -0.3455
49114SOL    HW153179  11.646   9.595   2.401 -0.6506  1.1466 -0.2512
49114SOL    HW253180  11.717   9.578   2.534 -0.2757  2.9848 -0.1897
49115SOL     OW53181   1.132   5.995   0.878 -0.1461 -0.5149 -0.4188
49115SOL    HW153182   1.112   6.035   0.962 -0.0689  1.6404 -1.3662
49115SOL    HW253183   1.194   5.925   0.898 -0.0553  0.0207  1.2817
49116SOL     OW53184   4.156   7.927   2.923 -0.1942 -0.7312 -0.4275
49116SOL    HW153185   4.216   7.944   2.851  2.1252 -0.3737  1.4685
49116SOL    HW253186   4.088   7.994   2.914  0.4527 -0.2302 -1.8301
49117SOL     OW53187   8.489   8.814  10.744 -0.3500 -0.3834  0.1707
49117SOL    HW153188   8.518   8.734  10.699  0.3652 -0.3768  0.5944
49117SOL    HW253189   8.412   8.843  10.696 -0.2515 -0.9931 -0.3621
49118SOL     OW53190  12.142  11.075   1.421 -0.0519 -0.5933  0.2053
49118SOL    HW153191  12.163  11.168   1.412 -0.1862 -0.5066  0.7402
49118SOL    HW253192  12.107  11.050   1.336  0.9195 -0.3999 -0.2653
49119SOL     OW53193   1.838   4.183   2.826 -0.0194  0.4456  0.2167
49119SOL    HW153194   1.860   4.246   2.757  3.5417 -0.3825  0.4246
49119SOL    HW253195   1.785   4.117   2.781  3.4909 -0.9226 -2.3574
49120SOL     OW53196   0.650   6.061   2.715  0.1239  0.6710 -0.1940
49120SOL    HW153197   0.623   6.108   2.794 -1.0414  1.1105 -0.8417
49120SOL    HW253198   0.628   5.969   2.734 -0.0137  0.7529  0.0472
49121SOL     OW53199   4.441   9.758   7.219 -0.0557 -0.2828  0.4379
49121SOL    HW153200   4.483   9.809   7.150 -0.2677 -0.8356 -0.1192
49121SOL    HW253201   4.369   9.812   7.250 -0.2444 -0.2219 -0.1059
49122SOL     OW53202   4.703   6.308  11.044 -0.2432  0.1765 -0.4188
49122SOL    HW153203   4.753   6.299  11.125  1.6289  1.3659 -1.3608
49122SOL    HW253204   4.652   6.228  11.038 -0.8262  0.2467  2.1499
49123SOL     OW53205   2.161  10.133   1.056 -0.2950 -0.3057 -0.3366
49123SOL    HW153206   2.238  10.080   1.075  1.6345  1.7156 -2.1005
49123SOL    HW253207   2.186  10.222   1.079 -2.4118  0.3104 -0.2172
49124SOL     OW53208   2.554   6.647  11.018  0.5650 -0.2306 -0.1536
49124SOL    HW153209   2.505   6.581  10.969  0.7073 -0.7497  0.3878
49124SOL    HW253210   2.580   6.602  11.098 -1.1859  1.1159  1.2341
49125SOL     OW53211   7.708  10.070   6.663  0.1671 -0.7858 -0.5094
49125SOL    HW153212   7.751  10.012   6.726 -0.1301 -0.5775 -0.1104
49125SOL    HW253213   7.775  10.135   6.641  0.2608 -0.8418 -0.3922
49126SOL     OW53214   6.726   5.174   4.207 -0.4384  0.1945 -1.0720
49126SOL    HW153215   6.690   5.258   4.176  1.8018  1.5985 -0.1085
49126SOL    HW253216   6.662   5.144   4.272  0.3842  3.0857  1.2884
49127SOL     OW53217   5.585   7.909   8.759  0.2692  0.2215 -0.3624
49127SOL    HW153218   5.594   8.001   8.783  1.8553  0.0131 -0.1103
49127SOL    HW253219   5.580   7.909   8.663 -0.6519  0.6190 -0.3266
49128SOL     OW53220   7.420   9.296   8.027  0.2999 -0.2132  0.2708
49128SOL    HW153221   7.359   9.254   7.967  0.4208  0.2209 -0.1557
49128SOL    HW253222   7.406   9.390   8.015  0.8336 -0.1144  0.3890
49129SOL     OW53223   7.348  11.337   1.879  0.2288 -0.5956  0.0913
49129SOL    HW153224   7.319  11.265   1.935 -0.9959  0.8458  1.3980
49129SOL    HW253225   7.268  11.368   1.836  0.6936  0.1223 -0.2819
49130SOL     OW53226   6.235   8.267   8.851  0.7564 -0.0809 -0.4718
49130SOL    HW153227   6.307   8.301   8.798  2.6033 -1.8418  0.7064
49130SOL    HW253228   6.201   8.193   8.801  0.2657  0.2723 -0.6702
49131SOL     OW53229   4.973   9.885   7.330  0.0115 -0.3786 -0.8549
49131SOL    HW153230   4.972   9.907   7.424  0.5113  1.5520 -1.2649
49131SOL    HW253231   4.891   9.922   7.297  0.8185  0.8379 -1.5498
49132SOL     OW53232   4.419   7.787   0.168 -0.6050 -0.0498  0.3671
49132SOL    HW153233   4.359   7.835   0.111  1.4271  2.4255  0.1552
49132SOL    HW253234   4.497   7.842   0.173  1.9072 -3.2982  0.2316
49133SOL     OW53235   6.472  11.064  10.628  0.7392  0.1214  0.1577
49133SOL    HW153236   6.472  11.070  10.532  2.9992  0.6174  0.1311
49133SOL    HW253237   6.563  11.079  10.653 -0.0002  1.2484  2.4863
49134SOL     OW53238   5.245  10.616   9.333  0.3659 -0.0305  0.0192
49134SOL    HW153239   5.149  10.623   9.337  0.3454 -0.4878  0.5294
49134SOL    HW253240   5.269  10.581   9.419  0.9026 -0.8665 -0.4701
49135SOL     OW53241   0.069  10.463   4.819  0.4194 -0.0549 -0.5043
49135SOL    HW153242   0.065  10.511   4.901  2.9153  0.4512 -0.5952
49135SOL    HW253243   0.000  10.503   4.765  1.4596  2.5122 -0.0891
49136SOL     OW53244   3.765  10.901   3.892 -0.2896  0.1519  0.2516
49136SOL    HW153245   3.684  10.927   3.849 -0.3727 -0.7442 -0.1567
49136SOL    HW253246   3.820  10.979   3.889 -0.9303  0.6014  0.0425
49137SOL     OW53247   5.667  10.580   8.577 -0.4483 -0.5535 -0.3925
49137SOL    HW153248   5.606  10.621   8.516  0.7891  1.7429 -0.1670
49137SOL    HW253249   5.683  10.646   8.644  1.8692 -1.2730 -0.1493
49138SOL     OW53250   5.110   8.898   7.602  0.4860 -0.3000 -0.0729
49138SOL    HW153251   5.034   8.934   7.647  0.5919 -0.0069 -0.1286
49138SOL    HW253252   5.075   8.828   7.547  0.2537 -0.1482 -0.1189
49139SOL     OW53253   7.185   6.999   5.866  0.1680 -0.3250  0.4751
49139SOL    HW153254   7.281   6.998   5.867  0.2132 -2.1119 -0.8215
49139SOL    HW253255   7.159   6.959   5.949  0.4707  1.5850  1.5481
49140SOL     OW53256  10.739   2.181   7.775 -0.5289  0.0934 -0.0559
49140SOL    HW153257  10.825   2.221   7.762 -0.5649  0.0977 -0.2821
49140SOL    HW253258  10.678   2.237   7.726 -0.4979 -0.5665 -0.8756
49141SOL     OW53259   5.309   5.705   0.543 -0.8319 -0.4853  0.2776
49141SOL    HW153260   5.327   5.622   0.499  1.8025  0.3174 -0.3544
49141SOL    HW253261   5.380   5.714   0.607 -0.3591  1.7716 -0.4625
49142SOL     OW53262  11.880   9.775   0.215  0.3307  0.0577 -0.3165
49142SOL    HW153263  11.955   9.834   0.208 -0.6684  1.2284 -1.9159
49142SOL    HW253264  11.914   9.689   0.193  1.6008  0.1827  1.0193
49143SOL     OW53265  11.318   1.212   0.544  0.1031  0.2770 -0.3306
49143SOL    HW153266  11.349   1.122   0.548 -0.0120  0.2229 -0.6076
49143SOL    HW253267  11.235   1.211   0.591 -0.0673  0.1620 -0.6285
49144SOL     OW53268  11.508  10.179   9.356  0.3096  0.4499  0.0096
49144SOL    HW153269  11.600  10.196   9.336  0.8136  1.0354  2.5612
49144SOL    HW253270  11.510  10.116   9.427 -1.3485 -0.8457 -1.0143
49145SOL     OW53271   8.409   0.584  11.425  0.1644  0.1112  0.5165
49145SOL    HW153272   8.477   0.605  11.489  1.2400  0.1906 -0.5981
49145SOL    HW253273   8.447   0.611  11.341 -1.9904  1.9641  0.0390
49146SOL     OW53274   4.982  11.847  12.276 -0.1177  0.2386  0.0739
49146SOL    HW153275   5.044  11.824  12.206  2.0518  1.2715  1.5544
49146SOL    HW253276   4.929  11.768  12.287 -2.0805  0.6827 -4.1150
49147SOL     OW53277   1.031   5.912   0.335 -0.0388  0.1575  0.2229
49147SOL    HW153278   1.112   5.861   0.326  0.0210  0.1659  0.6869
49147SOL    HW253279   1.038   5.953   0.421 -1.4483 -1.4695  1.1739
49148SOL     OW53280   6.410   9.130   6.646 -0.0465  0.4009 -0.2350
49148SOL    HW153281   6.321   9.128   6.681  1.0893 -0.4461  2.9439
49148SOL    HW253282   6.432   9.223   6.641  0.2019  0.6227  2.9693
49149SOL     OW53283  12.016  10.390   4.718 -0.3425  0.3112  0.0450
49149SOL    HW153284  12.052  10.477   4.701  0.7893 -0.2605 -0.5980
49149SOL    HW253285  12.090  10.340   4.751 -0.8532 -0.5473 -0.1027
49150SOL     OW53286   8.300   3.959   7.884  0.0022 -0.0614 -0.2238
49150SOL    HW153287   8.315   4.054   7.894 -0.1092  0.0717 -1.2935
49150SOL    HW253288   8.374   3.919   7.931  0.5200  0.5643 -0.4817
49151SOL     OW53289   6.078   9.053   2.450 -0.4826 -0.2860  0.3693
49151SOL    HW153290   6.107   9.143   2.434 -0.1439 -0.6003 -0.9437
49151SOL    HW253291   6.151   8.999   2.419  0.0607 -1.0298  2.7201
49152SOL     OW53292   5.965   9.579   3.903 -0.4497  0.0613  0.0294
49152SOL    HW153293   5.969   9.493   3.946  2.1894  0.3250  0.4601
49152SOL    HW253294   5.972   9.642   3.974  0.0547  0.5743 -0.4654
49153SOL     OW53295   1.133   9.635   6.491  0.1813 -0.0736 -0.1563
49153SOL    HW153296   1.198   9.691   6.533  1.1927 -1.7598  0.6215
49153SOL    HW253297   1.136   9.661   6.399  0.2480  1.4780  0.2560
49154SOL     OW53298   9.042   1.303   5.553 -0.3397 -0.0388 -0.1136
49154SOL    HW153299   8.994   1.226   5.523  1.0643 -0.7716 -0.5354
49154SOL    HW253300   9.070   1.282   5.641 -0.3586  0.1907 -0.0505
49155SOL     OW53301   2.800  12.246   4.741  0.2244 -0.4150  0.1576
49155SOL    HW153302   2.891  12.267   4.765  0.4334  1.4476 -1.9601
49155SOL    HW253303   2.808  12.191   4.663 -0.4853 -0.7448  0.3154
49156SOL     OW53304   5.602  10.430   7.769  0.0789  0.4911 -0.1880
49156SOL    HW153305   5.678  10.386   7.807 -1.4554 -0.3993  1.9944
49156SOL    HW253306   5.616  10.423   7.674  1.8317 -1.1843  0.1320
49157SOL     OW53307   9.178  10.843  11.689  0.2856  0.3330  0.3033
49157SOL    HW153308   9.258  10.790  11.697 -0.4388 -0.9570 -0.5957
49157SOL    HW253309   9.137  10.812  11.608 -1.3582  0.6551  0.9710
49158SOL     OW53310   0.659   4.199   9.569  0.1541 -0.2966  0.1874
49158SOL    HW153311   0.638   4.245   9.651 -0.5699 -0.6033  0.1841
49158SOL    HW253312   0.636   4.261   9.500 -0.8808 -0.6708  0.1810
49159SOL     OW53313   2.856   5.772   2.115 -0.2023 -0.0103 -0.3126
49159SOL    HW153314   2.880   5.854   2.157  0.3230  0.2257 -1.0430
49159SOL    HW253315   2.924   5.710   2.142 -1.5188 -0.7016  1.6272
49160SOL     OW53316   0.880   7.590  10.332 -0.5065 -0.1439  0.0042
49160SOL    HW153317   0.818   7.658  10.303 -1.2076 -0.4817  0.6641
49160SOL    HW253318   0.824   7.517  10.359  0.2325 -0.8848 -0.4303
49161SOL     OW53319   1.883   4.348   5.850 -0.1094  0.2052  0.2302
49161SOL    HW153320   1.951   4.389   5.905  0.1978  1.8077 -1.2575
49161SOL    HW253321   1.824   4.420   5.828  0.5119 -0.0541 -2.6142
49162SOL     OW53322  10.077   2.154   6.715 -0.0308  0.0710 -0.7449
49162SOL    HW153323  10.132   2.105   6.776  0.1387 -1.2964 -1.9625
49162SOL    HW253324  10.009   2.092   6.689 -0.6867  0.9528 -1.1900
49163SOL     OW53325   9.101   6.595   1.079  0.3640  0.1178 -0.3791
49163SOL    HW153326   9.115   6.641   1.161  0.0944 -2.7347  1.4078
49163SOL    HW253327   9.181   6.542   1.067 -0.3620 -0.8994 -0.9196
49164SOL     OW53328   6.297   8.701   6.265  0.1401  0.1489  0.7945
49164SOL    HW153329   6.230   8.764   6.290  1.5640  1.1783  2.2344
49164SOL    HW253330   6.276   8.678   6.174 -1.4172  1.3527  0.8068
49165SOL     OW53331   8.667  11.302  11.313  0.1513 -0.0276  0.2558
49165SOL    HW153332   8.584  11.256  11.327  0.7933 -0.8349  1.7161
49165SOL    HW253333   8.651  11.391  11.346  0.3155 -0.6491  2.1040
49166SOL     OW53334   3.336   1.346   8.032 -0.3786  0.5709 -0.2763
49166SOL    HW153335   3.306   1.341   7.941 -0.1444  1.1504 -0.3907
49166SOL    HW253336   3.289   1.420   8.069 -1.7656 -0.6695  0.5895
49167SOL     OW53337   5.281   1.591   6.137  0.2894 -0.7364 -1.0239
49167SOL    HW153338   5.283   1.654   6.066  1.6308  1.1042  0.5395
49167SOL    HW253339   5.300   1.642   6.216 -1.6200 -2.5680  0.7745
49168SOL     OW53340   8.757   1.213   4.186 -0.2349 -0.3423  0.2634
49168SOL    HW153341   8.691   1.223   4.117 -1.1092 -1.4352  0.9169
49168SOL    HW253342   8.744   1.288   4.244 -1.2245 -0.8064  0.6482
49169SOL     OW53343  11.015   9.742   1.531 -0.4243 -0.1881  0.4431
49169SOL    HW153344  10.982   9.782   1.612 -1.3806  0.8089 -0.4023
49169SOL    HW253345  10.938   9.734   1.475  0.6021  1.4879 -1.3192
49170SOL     OW53346   9.484   5.025   0.645 -0.0685  0.2039 -0.1573
49170SOL    HW153347   9.442   5.110   0.627 -0.2316  0.4102  1.1239
49170SOL    HW253348   9.578   5.042   0.632 -0.0999  0.5826  0.0806
49171SOL     OW53349   6.519   4.109  11.637  0.3672 -0.0753 -0.0056
49171SOL    HW153350   6.476   4.030  11.605 -1.5246  0.3033  1.4147
49171SOL    HW253351   6.449   4.174  11.641  1.8141  1.5970 -0.8327
49172SOL     OW53352   6.126   8.240   0.729 -0.4817  0.0468  0.0984
49172SOL    HW153353   6.111   8.220   0.822 -1.0803 -0.5091 -0.1067
49172SOL    HW253354   6.039   8.249   0.692 -0.2463  0.2070 -0.4287
49173SOL     OW53355   0.913  11.749   9.962 -0.6014  0.7253  0.0431
49173SOL    HW153356   0.962  11.674   9.994 -0.4642  0.2825 -1.1457
49173SOL    HW253357   0.821  11.725   9.973 -0.5565  0.6380  0.2255
49174SOL     OW53358  11.102   2.942  10.223  0.3646 -0.4316  0.5409
49174SOL    HW153359  11.030   2.879  10.216 -0.0731  0.2230 -1.4610
49174SOL    HW253360  11.062   3.019  10.263 -0.0308 -0.1254 -0.4221
49175SOL     OW53361  10.380   8.923   2.940 -0.9333  0.7383  0.1583
49175SOL    HW153362  10.427   8.960   3.015 -0.2417  0.0802  0.0541
49175SOL    HW253363  10.424   8.960   2.863 -0.6074  0.1618  0.0610
49176SOL     OW53364   9.280   0.204   9.727 -0.1434 -0.5945  0.5623
49176SOL    HW153365   9.226   0.233   9.653  0.2245 -1.8506 -0.2491
49176SOL    HW253366   9.311   0.285   9.768 -1.3417  0.1351  0.0833
49177SOL     OW53367   6.784   4.668  10.709 -0.3700  0.1085  0.1274
49177SOL    HW153368   6.752   4.579  10.720  1.4015 -0.4780  0.8065
49177SOL    HW253369   6.736   4.720  10.773 -0.3151 -0.6509  0.7874
49178SOL     OW53370   4.583   9.529  11.243 -0.4673  0.3147 -0.1368
49178SOL    HW153371   4.502   9.478  11.243 -0.0851 -0.3146  0.1916
49178SOL    HW253372   4.561   9.609  11.196 -1.2641  0.1310 -0.1010
49179SOL     OW53373   5.215  10.112   1.394  0.0094  0.3001 -0.2072
49179SOL    HW153374   5.126  10.102   1.360 -0.0375 -0.3020  0.0842
49179SOL    HW253375   5.206  10.170   1.469 -0.1003  0.4555 -0.3405
49180SOL     OW53376   8.261  11.940   7.841 -0.5318 -0.9239 -0.2664
49180SOL    HW153377   8.301  11.923   7.926  0.2765  1.5601 -0.0606
49180SOL    HW253378   8.180  11.987   7.862 -0.3561 -0.3482 -0.8393
49181SOL     OW53379   0.335   7.222   9.098  0.5548 -0.4942  0.1898
49181SOL    HW153380   0.424   7.196   9.076  0.2214 -1.3759 -0.1936
49181SOL    HW253381   0.283   7.195   9.023  0.0948  0.9520 -0.0429
49182SOL     OW53382   5.785   5.133   8.293  0.2064 -0.1174  0.0483
49182SOL    HW153383   5.856   5.128   8.230 -0.1213 -1.2575 -0.2458
49182SOL    HW253384   5.767   5.042   8.317 -0.8538  0.1810  0.4480
49183SOL     OW53385   3.502   1.999   7.520  0.3959 -0.9412 -0.3980
49183SOL    HW153386   3.566   2.062   7.488 -0.8392  0.9752  0.6507
49183SOL    HW253387   3.456   2.046   7.590 -1.6592 -2.4607 -0.6298
49184SOL     OW53388  11.104  10.376   4.302 -0.0901 -0.3548 -0.3060
49184SOL    HW153389  11.158  10.308   4.264 -1.8183 -2.8685  1.4140
49184SOL    HW253390  11.089  10.438   4.231 -0.0762 -2.8068 -2.5765
49185SOL     OW53391   7.802   1.216   1.420 -0.8522 -0.1079 -0.5783
49185SOL    HW153392   7.843   1.237   1.504 -2.4647  0.5338  0.0988
49185SOL    HW253393   7.814   1.295   1.368  0.2705 -0.5556 -1.0351
49186SOL     OW53394  12.058   1.431   1.728  0.3647  0.7454  0.9151
49186SOL    HW153395  12.098   1.357   1.772  0.0182  0.5574  0.9156
49186SOL    HW253396  11.964   1.417   1.736  0.2586 -0.0078 -1.0508
49187SOL     OW53397   7.162  10.123   6.978 -0.0539 -0.2235 -0.2112
49187SOL    HW153398   7.087  10.072   6.947 -0.7891  0.2379  0.7496
49187SOL    HW253399   7.224  10.121   6.905 -1.2090 -0.1889 -1.2360
49188SOL     OW53400  10.160   7.244   4.655 -0.1264  0.0470 -0.0532
49188SOL    HW153401  10.174   7.339   4.652  0.7044 -0.0818 -1.0489
49188SOL    HW253402  10.103   7.225   4.580 -0.7803 -0.1777  0.4909
49189SOL     OW53403   8.145   5.191  11.376  0.1816  0.2175 -0.1133
49189SOL    HW153404   8.096   5.201  11.457 -2.2260  1.6756 -1.5893
49189SOL    HW253405   8.206   5.265  11.375  1.4263 -0.7496  1.0569
49190SOL     OW53406  10.485   0.436   8.837  0.2627 -0.2815  0.5911
49190SOL    HW153407  10.447   0.401   8.756  0.4775  0.1718  0.2934
49190SOL    HW253408  10.459   0.373   8.904 -3.9125  1.5709  1.0410
49191SOL     OW53409   2.899   6.779   0.857 -0.2046  0.1877 -0.0201
49191SOL    HW153410   2.972   6.841   0.859  1.7012 -1.8979 -0.3674
49191SOL    HW253411   2.889   6.757   0.765 -0.0366 -0.8581  0.1921
49192SOL     OW53412   5.947   6.518   2.577  0.3253  0.5143 -0.4013
49192SOL    HW153413   5.862   6.519   2.622  0.8879  0.0657  0.7107
49192SOL    HW253414   5.988   6.601   2.601 -0.5611  1.6682 -2.5459
49193SOL     OW53415  11.432   5.705   7.291  0.1173 -0.5739  0.2253
49193SOL    HW153416  11.484   5.766   7.238 -0.5697  0.4322  0.6927
49193SOL    HW253417  11.387   5.650   7.227  0.9093 -0.7603 -0.1966
49194SOL     OW53418   0.812   1.840   1.578 -0.6524  0.1804 -0.0864
49194SOL    HW153419   0.777   1.844   1.489  0.4566 -0.1898 -0.5429
49194SOL    HW253420   0.864   1.760   1.581  0.8814  1.1456  0.3012
49195SOL     OW53421   9.132  11.471   4.666 -0.3645 -0.2161  0.0199
49195SOL    HW153422   9.122  11.556   4.622  1.0429  0.2220  0.4819
49195SOL    HW253423   9.092  11.484   4.752 -1.6506 -0.5585 -0.5165
49196SOL     OW53424   9.602   8.996   4.511 -0.1181 -0.0192 -0.0334
49196SOL    HW153425   9.623   9.068   4.570  0.6713  0.0164 -0.3443
49196SOL    HW253426   9.526   8.953   4.551 -0.1483  0.5440  0.5284
49197SOL     OW53427   7.651  12.121   0.259 -0.5748  0.3498 -0.3308
49197SOL    HW153428   7.653  12.148   0.350 -1.6203 -0.0091 -0.1856
49197SOL    HW253429   7.680  12.030   0.260 -1.3178  0.1035 -0.2433
49198SOL     OW53430   9.843   9.072   8.627  0.2699 -0.2714 -0.4724
49198SOL    HW153431   9.780   9.089   8.557 -0.5342 -1.3093 -0.0253
49198SOL    HW253432   9.905   9.145   8.622 -0.3348  0.1821 -1.6294
49199SOL     OW53433  10.504  11.792   9.955  0.0209 -0.0612 -0.1144
49199SOL    HW153434  10.571  11.723   9.949  0.2192  0.0603  0.6341
49199SOL    HW253435  10.423  11.745   9.972 -0.3260 -0.3083 -2.1484
49200SOL     OW53436   2.558   7.172  10.669  0.2094 -0.5130 -0.0180
49200SOL    HW153437   2.477   7.216  10.646  1.2499  1.1641 -0.6274
49200SOL    HW253438   2.627   7.237  10.654  1.8023 -2.2461 -0.7008
49201SOL     OW53439  10.017   8.786  10.797  0.2651 -0.1813 -0.2171
49201SOL    HW153440  10.072   8.863  10.810  0.9477 -0.0861 -3.0797
49201SOL    HW253441  10.066   8.713  10.835  1.0225  0.3433 -0.1848
49202SOL     OW53442   5.016  12.126  12.000 -0.3500 -0.0935  1.0644
49202SOL    HW153443   5.058  12.128  12.086 -1.2784  0.2675  1.5316
49202SOL    HW253444   5.037  12.211  11.960  2.7415 -1.4056 -0.4512
49203SOL     OW53445   6.973  11.837   3.021 -0.4437  0.3591 -0.3458
49203SOL    HW153446   7.024  11.768   3.065  0.3204  2.2581  1.9805
49203SOL    HW253447   6.888  11.836   3.066 -0.3919  0.9877 -0.2267
49204SOL     OW53448   5.328   0.168   7.940 -0.2951  0.2413  0.4376
49204SOL    HW153449   5.321   0.257   7.905  0.4849  0.1585  0.0407
49204SOL    HW253450   5.421   0.147   7.933 -0.5591 -0.8496 -0.0883
49205SOL     OW53451  10.129   3.540   5.888  0.5544 -0.2602 -0.1602
49205SOL    HW153452  10.051   3.485   5.883  0.8665 -0.6996 -0.2136
49205SOL    HW253453  10.198   3.481   5.917  0.5292  0.4643  1.5235
49206SOL     OW53454   1.005  11.922  10.152  0.2868  0.2332  0.2958
49206SOL    HW153455   0.976  11.868  10.078 -0.1977  1.4196 -0.4045
49206SOL    HW253456   0.930  11.925  10.211 -0.4169  1.7583 -0.6241
49207SOL     OW53457  11.513  10.609   8.319 -0.2931  0.0541 -0.3416
49207SOL    HW153458  11.600  10.585   8.286  0.3882  0.2243  1.2390
49207SOL    HW253459  11.455  10.542   8.283  0.7450 -0.9617 -0.1963
49208SOL     OW53460   9.240  10.533  11.925 -0.5491 -0.1577 -0.1892
49208SOL    HW153461   9.254  10.581  11.843  3.9419 -1.8248 -0.6686
49208SOL    HW253462   9.243  10.600  11.993  1.6075  0.7480 -1.0889
49209SOL     OW53463   9.192  10.099   2.170 -0.2581  0.5226 -0.3892
49209SOL    HW153464   9.276  10.144   2.172 -0.3981  0.7857 -0.4663
49209SOL    HW253465   9.213  10.011   2.137  0.2968 -0.1025  1.5196
49210SOL     OW53466   3.288   1.838   0.958  0.0674 -0.0224 -0.2112
49210SOL    HW153467   3.249   1.768   1.011 -1.5428 -0.3879 -1.7437
49210SOL    HW253468   3.362   1.796   0.914 -1.2132 -0.9915 -1.5398
49211SOL     OW53469   2.511  11.752   0.538  0.0347 -0.1005 -0.0439
49211SOL    HW153470   2.435  11.695   0.546 -0.0301 -0.1133 -0.6808
49211SOL    HW253471   2.582  11.694   0.509 -0.3652  0.3398 -2.0775
49212SOL     OW53472  12.158  10.313   0.380 -0.7506  0.2851  0.0926
49212SOL    HW153473  12.165  10.336   0.287 -0.3085  0.7335  0.2329
49212SOL    HW253474  12.165  10.397   0.425 -1.3898  0.1174  0.5172
49213SOL     OW53475   1.470   3.048   4.148 -0.2947  0.1655 -0.0756
49213SOL    HW153476   1.383   3.086   4.161 -0.1794  0.2246  0.5492
49213SOL    HW253477   1.514   3.058   4.232  0.0125 -0.6526 -0.1271
49214SOL     OW53478   3.559   2.110  12.160  1.3820 -0.0294 -0.3896
49214SOL    HW153479   3.531   2.191  12.203  0.4727 -1.2393  1.4090
49214SOL    HW253480   3.501   2.103  12.083  0.4361  0.2761  0.2747
49215SOL     OW53481  10.216   4.755   6.263  0.2609  0.4190  0.1127
49215SOL    HW153482  10.258   4.824   6.314  0.6222 -0.0321  0.4286
49215SOL    HW253483  10.287   4.715   6.213 -0.2176  1.4243 -1.4242
49216SOL     OW53484   4.581   5.310   5.442 -0.1837  0.3828 -1.2352
49216SOL    HW153485   4.576   5.372   5.368 -0.0235  0.5182 -1.1340
49216SOL    HW253486   4.589   5.366   5.519  1.5746  0.2153 -1.2747
49217SOL     OW53487  10.413   7.679   4.673  0.6949 -0.1430 -0.7279
49217SOL    HW153488  10.343   7.712   4.730 -0.3883 -1.7052 -1.0879
49217SOL    HW253489  10.491   7.677   4.728  0.2827  0.8770 -0.0805
49218SOL     OW53490   4.485   4.519   7.704  1.2939  0.4815 -0.0095
49218SOL    HW153491   4.526   4.433   7.715  1.3253  0.7774  2.9814
49218SOL    HW253492   4.393   4.505   7.727  0.8982  0.9269 -1.2540
49219SOL     OW53493  12.026  11.793   9.953  0.3790  0.2706 -0.2523
49219SOL    HW153494  11.982  11.809  10.037  0.8302 -0.2184  0.0830
49219SOL    HW253495  12.063  11.705   9.962 -0.1449 -0.0618 -1.2204
49220SOL     OW53496   8.711   7.038   8.763  0.3953  0.1738 -0.3241
49220SOL    HW153497   8.681   7.117   8.808 -1.0001  0.4872 -1.7091
49220SOL    HW253498   8.806   7.037   8.775  0.3782  1.7894  0.1448
49221SOL     OW53499   8.630  12.184   4.712 -0.4776 -0.0696  0.1706
49221SOL    HW153500   8.655  12.136   4.791 -0.6512 -0.4159  0.0189
49221SOL    HW253501   8.617  12.274   4.741  3.5345  0.7889 -0.1652
49222SOL     OW53502  12.169   8.033   4.888  0.3065 -0.4044 -0.2849
49222SOL    HW153503  12.262   8.017   4.901  0.0575 -0.4309  2.0419
49222SOL    HW253504  12.128   7.947   4.899  0.0767 -0.7287 -3.0416
49223SOL     OW53505   4.636   9.314  11.813 -1.0485  0.1099  0.0107
49223SOL    HW153506   4.626   9.340  11.904 -1.6267  0.7603 -0.2241
49223SOL    HW253507   4.619   9.220  11.812 -1.4903  0.1836  0.5014
49224SOL     OW53508   9.832  10.439   8.534  0.2248  0.2093  0.7927
49224SOL    HW153509   9.765  10.435   8.602  0.5313  1.1022  1.1661
49224SOL    HW253510   9.850  10.348   8.512 -0.7218 -0.0561  1.0629
49225SOL     OW53511   7.999   9.457   5.672 -0.5597  0.2559 -0.1193
49225SOL    HW153512   8.022   9.400   5.746  1.9968  2.0433  0.6075
49225SOL    HW253513   7.989   9.543   5.712  1.4718  1.3808 -1.8703
49226SOL     OW53514   4.184   2.203   4.080  0.6591 -0.5453 -0.4013
49226SOL    HW153515   4.195   2.111   4.057  3.4719 -0.1889 -0.7824
49226SOL    HW253516   4.219   2.210   4.169 -1.5788 -0.1797  0.5264
49227SOL     OW53517   3.232   6.875   8.607  0.2423  0.4786 -0.2739
49227SOL    HW153518   3.275   6.790   8.598  0.0390  0.3886 -0.4036
49227SOL    HW253519   3.271   6.930   8.538  0.8784  0.7060  0.2496
49228SOL     OW53520   7.566   2.781  10.081 -0.1444 -0.3102 -0.2860
49228SOL    HW153521   7.615   2.750  10.158 -0.4821 -0.6682 -0.2137
49228SOL    HW253522   7.628   2.839  10.036  0.0745 -0.1297  0.2292
49229SOL     OW53523   5.366   3.435  10.250  0.0999 -0.1171  0.0293
49229SOL    HW153524   5.372   3.341  10.266  0.3607 -0.0152  0.5704
49229SOL    HW253525   5.411   3.449  10.167 -0.0839 -0.4941 -0.1305
49230SOL     OW53526   6.326   8.721  11.587  0.5257  0.3857 -0.0753
49230SOL    HW153527   6.420   8.726  11.606  0.3973  1.7687  0.3121
49230SOL    HW253528   6.318   8.651  11.523  1.5658 -1.1901  1.4208
49231SOL     OW53529   1.932   4.434   5.127  0.3950  0.1939 -0.0970
49231SOL    HW153530   2.025   4.421   5.112  0.1522 -2.1873  0.0812
49231SOL    HW253531   1.890   4.357   5.088 -1.4992  1.1310 -0.0454
49232SOL     OW53532   9.889   0.882   4.420 -0.4768 -0.1363 -0.6212
49232SOL    HW153533   9.853   0.966   4.392  0.0432  0.0033 -0.8898
49232SOL    HW253534   9.948   0.857   4.349  1.3793  0.5479  0.5874
49233SOL     OW53535   8.277  11.754   0.366  0.3582  0.4089  0.2045
49233SOL    HW153536   8.347  11.774   0.304  0.2250 -1.2088 -0.5213
49233SOL    HW253537   8.211  11.822   0.351 -0.1226 -0.4771 -2.1765
49234SOL     OW53538   1.184   5.000  10.693  0.1707  0.2216  0.6072
49234SOL    HW153539   1.157   4.912  10.667  0.1574  0.3737  0.0893
49234SOL    HW253540   1.166   5.005  10.787 -2.7482  0.7333  0.1084
49235SOL     OW53541   6.333  11.175   8.181  0.9920 -0.1618  0.9865
49235SOL    HW153542   6.356  11.136   8.265 -0.3326  0.1873  1.5390
49235SOL    HW253543   6.237  11.166   8.175  0.7566  1.9845  0.6482
49236SOL     OW53544   2.794   9.394   1.913 -0.1141  0.2439  0.2557
49236SOL    HW153545   2.781   9.404   1.819  1.2178  1.5140  0.1638
49236SOL    HW253546   2.736   9.460   1.953 -0.5577 -0.1834  0.3221
49237SOL     OW53547   1.926  10.188   4.710  0.2750 -0.0330  0.0611
49237SOL    HW153548   1.899  10.137   4.787  0.4055 -1.2524 -0.6751
49237SOL    HW253549   2.015  10.215   4.730 -0.2305  1.0172  1.0010
49238SOL     OW53550   8.638   4.466   3.449  0.6733  0.2170 -1.1431
49238SOL    HW153551   8.560   4.485   3.397  0.1813  0.0037 -0.4985
49238SOL    HW253552   8.622   4.378   3.485  0.6963  0.6234 -0.1011
49239SOL     OW53553  11.585  11.248   8.843  0.0484  0.3727  0.7448
49239SOL    HW153554  11.616  11.307   8.912  2.0874 -0.7181  0.8320
49239SOL    HW253555  11.595  11.299   8.762  0.7819  0.5228  0.9257
49240SOL     OW53556   8.858   8.127   6.175 -0.4507  0.2649  0.5983
49240SOL    HW153557   8.809   8.182   6.237  0.4220  0.0626  1.4904
49240SOL    HW253558   8.901   8.061   6.230 -1.0760 -1.0211 -0.4018
49241SOL     OW53559   6.382   3.737   0.984 -0.6316 -0.2286 -0.3340
49241SOL    HW153560   6.287   3.743   0.978 -0.6676 -0.6630 -0.2354
49241SOL    HW253561   6.398   3.657   1.033 -0.2280  0.3772  0.5530
49242SOL     OW53562   6.889  11.783   4.132 -0.8963  0.1173 -0.4958
49242SOL    HW153563   6.882  11.860   4.189  0.0033 -0.9703  1.1824
49242SOL    HW253564   6.815  11.728   4.158 -1.5673  0.4074 -1.7240
49243SOL     OW53565   1.155   5.292   6.119  0.0705 -0.1991  0.2830
49243SOL    HW153566   1.117   5.345   6.049  0.8990  0.7145  0.5000
49243SOL    HW253567   1.136   5.342   6.199  3.3202  1.3463  0.2484
49244SOL     OW53568   8.265   1.025   9.782  0.4590 -0.4367 -0.3312
49244SOL    HW153569   8.221   0.948   9.745 -0.5767 -0.3871  0.7273
49244SOL    HW253570   8.272   1.005   9.876  1.8474 -0.0143 -0.3282
49245SOL     OW53571  11.972   2.885   9.704 -0.1157  0.3411  0.1291
49245SOL    HW153572  11.898   2.836   9.667 -1.6033  2.5773 -0.0694
49245SOL    HW253573  12.012   2.929   9.628  2.0864 -1.5483  0.0901
49246SOL     OW53574   7.204   3.241   7.223 -0.0070 -0.5654 -0.9358
49246SOL    HW153575   7.141   3.177   7.255 -0.1615 -0.2431 -0.5933
49246SOL    HW253576   7.289   3.207   7.251  0.1228 -1.7440 -2.6195
49247SOL     OW53577   7.155  10.952   2.335 -0.1135 -0.0233  0.5906
49247SOL    HW153578   7.123  10.909   2.414  2.3920 -0.6779  1.3340
49247SOL    HW253579   7.134  10.891   2.264  0.0580 -0.7414  1.1417
49248SOL     OW53580  11.979   0.344   9.812  0.0879  0.2256  0.1106
49248SOL    HW153581  11.954   0.416   9.870 -0.1699  0.0290  0.2414
49248SOL    HW253582  12.018   0.279   9.870 -0.1707  0.0279  0.0637
49249SOL     OW53583   8.271  11.318   4.813 -0.0101  0.6066  0.2449
49249SOL    HW153584   8.317  11.256   4.756 -0.7061 -0.6157  0.9637
49249SOL    HW253585   8.222  11.263   4.874 -2.8656  1.8229 -0.8099
49250SOL     OW53586   1.465   4.437   8.767  0.1874  0.2457  0.1013
49250SOL    HW153587   1.529   4.437   8.696 -0.3544  0.4846 -0.3950
49250SOL    HW253588   1.406   4.365   8.745  0.3311 -0.0270  0.5998
49251SOL     OW53589   7.056   0.466   0.673  0.1525  0.1362  0.5510
49251SOL    HW153590   7.092   0.532   0.614 -0.3844  2.3143  2.5279
49251SOL    HW253591   7.127   0.402   0.684  0.5671  0.1315 -1.6596
49252SOL     OW53592   4.328   2.519   7.278 -0.6595 -0.3229  0.0262
49252SOL    HW153593   4.397   2.462   7.313 -0.0512 -0.7960 -1.8633
49252SOL    HW253594   4.251   2.496   7.330  0.1715 -1.0291  1.0062
49253SOL     OW53595   4.436  11.760   8.273  0.2458 -0.0203  0.4578
49253SOL    HW153596   4.501  11.811   8.225 -0.8821  0.8403 -0.2224
49253SOL    HW253597   4.485  11.687   8.311  1.5016  0.3178 -0.4530
49254SOL     OW53598   9.513   1.625   7.621  0.0527 -0.1299  0.0690
49254SOL    HW153599   9.524   1.658   7.532 -0.0388 -0.8704 -0.2291
49254SOL    HW253600   9.602   1.606   7.651  0.0706 -0.0459  0.0687
49255SOL     OW53601   4.767   8.436   1.256  0.6401 -0.2985  0.4950
49255SOL    HW153602   4.840   8.419   1.315  0.6813 -0.3105  0.4409
49255SOL    HW253603   4.768   8.362   1.195  1.5853  0.5135 -0.5149
49256SOL     OW53604   9.547   3.639  11.950  0.8450 -0.6376 -0.3427
49256SOL    HW153605   9.626   3.606  11.993  1.7069  0.6775 -0.8197
49256SOL    HW253606   9.575   3.723  11.912 -0.7915 -0.1522 -0.5347
49257SOL     OW53607  11.786   3.699   0.014 -0.1774 -0.2115 -0.8638
49257SOL    HW153608  11.785   3.604   0.004  2.4413 -0.7231  2.1081
49257SOL    HW253609  11.725   3.716   0.087  2.3080 -0.2654  1.3951
49258SOL     OW53610   4.026   3.777   7.803 -0.3796 -0.5453  0.1127
49258SOL    HW153611   4.000   3.688   7.779  2.5215 -1.9307  1.6829
49258SOL    HW253612   3.974   3.798   7.880  0.3013 -1.7128  0.9112
49259SOL     OW53613   5.233  11.958  11.007  0.0506 -0.6078 -0.0477
49259SOL    HW153614   5.274  11.880  10.968  1.4147 -0.2984  0.7104
49259SOL    HW253615   5.234  11.940  11.101 -1.0382 -0.3247  0.0218
49260SOL     OW53616   8.052   4.620   6.514 -0.1639 -0.1066 -0.2015
49260SOL    HW153617   8.143   4.635   6.541 -0.1707  2.4869 -1.3637
49260SOL    HW253618   8.059   4.590   6.424 -0.4468 -0.8668  0.0243
49261SOL     OW53619   8.753   9.253   2.803 -0.3665 -0.5556 -0.2213
49261SOL    HW153620   8.771   9.255   2.709 -0.7314 -0.6386 -0.2955
49261SOL    HW253621   8.798   9.330   2.838 -1.6153  0.4272 -0.7124
49262SOL     OW53622  11.973   5.135   9.055 -0.0009 -0.0801 -0.0364
49262SOL    HW153623  11.963   5.065   9.119 -0.4389 -1.6191 -1.7215
49262SOL    HW253624  11.883   5.156   9.029  0.1769  0.4807 -0.2094
49263SOL     OW53625   4.671   3.212   0.786  0.3922  0.8561  0.3187
49263SOL    HW153626   4.597   3.192   0.843 -1.6568 -1.4501 -2.7924
49263SOL    HW253627   4.730   3.138   0.798  0.4842  0.9192  0.2527
49264SOL     OW53628   4.271   6.805   9.376 -0.1527  0.3638  0.3999
49264SOL    HW153629   4.261   6.889   9.420 -2.5999  0.0523  0.5418
49264SOL    HW253630   4.214   6.745   9.424  1.0610 -1.2653 -0.0806
49265SOL     OW53631  10.894  11.484   5.850 -0.0699 -0.3733 -0.3695
49265SOL    HW153632  10.841  11.546   5.800 -0.5827 -0.8735 -0.4519
49265SOL    HW253633  10.836  11.455   5.921  1.0362  1.2637  1.2838
49266SOL     OW53634  11.360   2.647   2.959 -0.3531 -0.7463 -0.2776
49266SOL    HW153635  11.385   2.714   3.023  0.2023 -1.6864  0.5111
49266SOL    HW253636  11.328   2.697   2.884 -0.3825  0.3942  0.4657
49267SOL     OW53637   8.794   7.185   9.642 -0.4445 -0.0581  0.5363
49267SOL    HW153638   8.818   7.107   9.692 -3.0461 -1.2747  0.0602
49267SOL    HW253639   8.837   7.174   9.558 -1.2252 -1.3042  0.2793
49268SOL     OW53640   4.488   1.376   3.640  0.1398 -0.3092 -0.1766
49268SOL    HW153641   4.485   1.282   3.618  0.3293  0.1596 -2.4549
49268SOL    HW253642   4.582   1.397   3.638  0.0645  0.0298 -0.1005
49269SOL     OW53643   7.087   7.414   4.421  0.8809  0.1220 -0.1246
49269SOL    HW153644   7.173   7.386   4.390  0.2122 -0.7612 -1.2224
49269SOL    HW253645   7.039   7.438   4.342 -0.6497 -1.5619  0.2329
49270SOL     OW53646  10.331   1.407  11.636 -0.2965 -0.1741  0.2555
49270SOL    HW153647  10.326   1.312  11.636 -0.1382 -0.1849  0.6071
49270SOL    HW253648  10.424   1.426  11.624 -0.3692 -0.0585 -0.1480
49271SOL     OW53649   5.382  11.552   7.034 -0.0458 -0.3466 -0.3377
49271SOL    HW153650   5.438  11.597   6.971 -0.0475  1.3906  0.8326
49271SOL    HW253651   5.442  11.495   7.083  0.4577  0.3284 -0.1394
49272SOL     OW53652  10.845  11.349   1.412 -0.7811  0.1585  0.0446
49272SOL    HW153653  10.930  11.343   1.455 -1.8406  1.9896  2.6210
49272SOL    HW253654  10.800  11.269   1.437 -0.2101 -0.3531 -0.5148
49273SOL     OW53655   4.163   3.915   6.249 -0.1227 -0.1565  0.0331
49273SOL    HW153656   4.079   3.961   6.252 -0.1239 -0.1993  2.0347
49273SOL    HW253657   4.228   3.984   6.237 -0.4080 -0.1198 -1.4918
49274SOL     OW53658   0.773   7.432  11.179 -0.2036  0.1484  0.0128
49274SOL    HW153659   0.829   7.354  11.177  0.9492  0.9655 -1.1454
49274SOL    HW253660   0.775   7.460  11.271  0.5315 -0.3749  0.1697
49275SOL     OW53661   2.503   6.424  10.859  0.0825  0.2662  0.5531
49275SOL    HW153662   2.545   6.443  10.776 -0.7742  0.3702  0.1255
49275SOL    HW253663   2.476   6.332  10.852 -1.1783  0.6346  0.1471
49276SOL     OW53664   5.262   1.523  12.071 -0.6790 -0.3583  0.3560
49276SOL    HW153665   5.251   1.483  12.157 -1.0368 -1.0999 -0.0246
49276SOL    HW253666   5.174   1.526  12.034 -0.7070  1.0976  0.5017
49277SOL     OW53667   5.152   8.851   5.291 -0.1284 -0.6554  0.6596
49277SOL    HW153668   5.087   8.782   5.305  0.4274 -1.3887 -0.2364
49277SOL    HW253669   5.155   8.899   5.373 -1.0384 -1.2704  1.0610
49278SOL     OW53670   5.872   5.322  11.507  0.2234 -0.1521  0.0727
49278SOL    HW153671   5.941   5.388  11.510 -0.0167  0.1034  0.0862
49278SOL    HW253672   5.913   5.242  11.540  0.0957  0.3767  1.6066
49279SOL     OW53673   0.856   5.919   9.528 -0.2494 -0.0365  0.3746
49279SOL    HW153674   0.920   5.871   9.476  1.5436  1.1309  1.4163
49279SOL    HW253675   0.784   5.857   9.542  0.2288 -1.0926 -1.5561
49280SOL     OW53676   4.409   4.663   5.529  0.1181  0.3711 -0.2714
49280SOL    HW153677   4.424   4.671   5.624 -2.2428  2.8073  0.0222
49280SOL    HW253678   4.329   4.611   5.521  0.9440 -0.8223 -1.0284
49281SOL     OW53679   8.437   1.233   8.584  0.5443 -0.2137 -0.5927
49281SOL    HW153680   8.356   1.230   8.533  1.0635  1.3210 -1.5909
49281SOL    HW253681   8.494   1.168   8.542  0.1162 -0.7454 -0.3675
49282SOL     OW53682   0.146   8.957   3.496 -0.4243  0.2347 -0.1629
49282SOL    HW153683   0.116   9.047   3.507 -2.3712 -0.3361 -0.5361
49282SOL    HW253684   0.072   8.902   3.522 -0.1633 -1.2407 -2.2110
49283SOL     OW53685   9.079   6.343   4.814  0.0710  0.6325 -0.5321
49283SOL    HW153686   9.041   6.410   4.758  1.0686 -0.2203 -2.3321
49283SOL    HW253687   9.169   6.373   4.829 -0.1133  0.7248  0.4099
49284SOL     OW53688   0.135   7.682  10.557  0.0348  0.1450 -0.4009
49284SOL    HW153689   0.060   7.714  10.606  0.2330 -1.1263  0.7887
49284SOL    HW253690   0.190   7.759  10.544  0.1766  0.4632  1.7574
49285SOL     OW53691   7.502   2.332   4.820 -0.4342 -0.1664  0.1561
49285SOL    HW153692   7.463   2.268   4.762 -0.2118  0.3628 -0.6008
49285SOL    HW253693   7.446   2.410   4.811  0.0907  0.1972 -0.0139
49286SOL     OW53694   9.841   3.166   2.993 -0.0015 -0.4291  0.4476
49286SOL    HW153695   9.861   3.259   2.984 -0.4033 -0.4025 -0.1973
49286SOL    HW253696   9.881   3.125   2.916 -0.0910 -0.7520  0.5684
49287SOL     OW53697   1.980   8.982   1.007  0.0333  0.3702 -0.4205
49287SOL    HW153698   2.016   8.906   1.052  0.0359  0.8752  0.4425
49287SOL    HW253699   2.021   8.980   0.920  0.6314 -0.1629 -0.1311
49288SOL     OW53700  11.936  11.816  10.960 -0.2994 -0.3800 -0.4134
49288SOL    HW153701  11.928  11.783  10.871  1.2008 -1.8382 -0.0474
49288SOL    HW253702  11.945  11.738  11.015  1.8371  0.5172  0.6649
49289SOL     OW53703   6.628   4.879   5.440 -0.1543 -0.0369  0.3879
49289SOL    HW153704   6.543   4.901   5.480  0.0750  1.3105  0.1963
49289SOL    HW253705   6.605   4.840   5.356 -0.5972 -0.4837  0.7076
49290SOL     OW53706   9.025   0.407   5.661  0.3884 -0.1570  0.1006
49290SOL    HW153707   9.053   0.390   5.572 -2.3949 -0.0726 -0.9055
49290SOL    HW253708   9.058   0.333   5.712  0.1557 -1.3786 -1.4537
49291SOL     OW53709   0.477   0.762  11.183  0.6272 -0.2043 -0.5474
49291SOL    HW153710   0.448   0.688  11.129  0.3558 -0.0631 -0.6013
49291SOL    HW253711   0.483   0.726  11.272 -4.2934  0.7123  0.5039
49292SOL     OW53712   3.695  11.891   2.886  0.1877  0.0069 -0.1915
49292SOL    HW153713   3.732  11.977   2.866 -1.8013  1.1734  0.8530
49292SOL    HW253714   3.645  11.867   2.808  1.6957 -0.8033 -0.9507
49293SOL     OW53715  10.013   0.792   2.192 -0.2233  0.6768  0.5187
49293SOL    HW153716   9.980   0.882   2.191  0.2394  0.8644  1.4981
49293SOL    HW253717   9.978   0.754   2.272 -2.3793 -0.7943 -1.0386
49294SOL     OW53718  11.616  10.582   7.164 -0.2552  0.3021  0.5381
49294SOL    HW153719  11.653  10.552   7.248 -1.0017 -1.5629  0.2594
49294SOL    HW253720  11.643  10.673   7.157  1.4262 -0.0383  1.9141
49295SOL     OW53721  11.971   3.035   5.243 -0.5828 -0.0884  0.2161
49295SOL    HW153722  11.967   3.061   5.335 -0.1842  0.6737  0.0191
49295SOL    HW253723  11.917   3.099   5.197  0.1861  0.2555 -0.2330
49296SOL     OW53724  12.241   7.149   6.592  0.2293  0.3587  0.0962
49296SOL    HW153725  12.333   7.152   6.566  0.1879 -0.7338 -0.2496
49296SOL    HW253726  12.242   7.111   6.680 -0.0102 -2.6258 -1.0477
49297SOL     OW53727  11.561   1.746   4.628 -1.0061 -0.1766 -0.2173
49297SOL    HW153728  11.528   1.833   4.605 -0.2604  0.6506  1.6698
49297SOL    HW253729  11.587   1.708   4.544  0.8292  2.3652 -0.9393
49298SOL     OW53730  10.146   2.071   4.757  0.5511 -0.0342 -0.3403
49298SOL    HW153731  10.085   2.104   4.823  0.7867 -0.4064  0.0725
49298SOL    HW253732  10.203   2.011   4.806  0.9559 -0.0360 -0.8122
49299SOL     OW53733   4.598   7.356   6.276  0.0241 -0.4657 -0.1482
49299SOL    HW153734   4.521   7.356   6.219 -0.2739 -1.0838  0.2452
49299SOL    HW253735   4.564   7.382   6.362  0.4891  0.5671 -0.2684
49300SOL     OW53736   0.482   1.794   7.950  0.1363 -0.3512  0.0427
49300SOL    HW153737   0.418   1.754   7.891 -1.2101  0.8293  0.6495
49300SOL    HW253738   0.436   1.804   8.033  2.6548 -4.0290  2.1227
49301SOL     OW53739   7.951   0.053   0.700  0.1171  0.6265 -0.4549
49301SOL    HW153740   8.032   0.053   0.751 -0.4897 -1.0227  0.5864
49301SOL    HW253741   7.884   0.085   0.761 -0.6797 -1.6874 -0.0302
49302SOL     OW53742  10.761   3.848   5.594  0.1812  0.1861 -0.0127
49302SOL    HW153743  10.818   3.771   5.604  1.3868  0.7833 -1.8465
49302SOL    HW253744  10.809   3.918   5.639  0.8629  0.6566 -1.4301
49303SOL     OW53745   9.162   9.431   1.443 -0.2917  1.0670 -0.1048
49303SOL    HW153746   9.076   9.416   1.481 -0.7598 -1.0011 -1.7897
49303SOL    HW253747   9.144   9.460   1.353  0.7789  2.1180 -0.0050
49304SOL     OW53748   0.754   9.706   5.996 -0.6298  0.0724 -0.0471
49304SOL    HW153749   0.702   9.781   6.026  0.5530  0.4631  1.1749
49304SOL    HW253750   0.708   9.673   5.919 -2.4055  0.6617  0.7199
49305SOL     OW53751   5.046   6.318   3.499 -0.2752  0.5917 -0.2899
49305SOL    HW153752   5.041   6.225   3.476 -0.9661  0.9131 -1.4593
49305SOL    HW253753   5.016   6.321   3.590 -0.0206 -0.3512 -0.1600
49306SOL     OW53754   6.031   1.897  11.896 -0.0598 -0.2428  0.2862
49306SOL    HW153755   5.987   1.887  11.980 -0.8714  1.2895  0.0845
49306SOL    HW253756   6.116   1.856  11.908  0.1803  0.6899  2.1279
49307SOL     OW53757   8.663   8.934   1.063  0.2023 -0.0162 -0.4092
49307SOL    HW153758   8.732   8.915   1.127 -0.7759 -0.0584  0.6677
49307SOL    HW253759   8.619   8.850   1.049 -0.8058  0.3546  0.3612
49308SOL     OW53760   8.559   8.396   8.256 -0.4241 -0.6248 -0.1014
49308SOL    HW153761   8.522   8.400   8.168  0.0025  0.8722 -0.2516
49308SOL    HW253762   8.653   8.396   8.242 -0.3594 -0.7688  0.3388
49309SOL     OW53763   6.534  11.655  10.889 -0.2619 -0.5265  0.3313
49309SOL    HW153764   6.519  11.567  10.854  1.2683 -1.2547  1.4058
49309SOL    HW253765   6.482  11.712  10.833 -1.1473 -2.0890 -0.5059
49310SOL     OW53766   8.112  11.339   9.348  0.2065  0.1537  0.2908
49310SOL    HW153767   8.126  11.292   9.430  0.2359 -1.0882 -0.4054
49310SOL    HW253768   8.050  11.284   9.299  0.8304  0.4508 -0.8571
49311SOL     OW53769   3.785   0.569   9.460  0.3381 -0.1736  0.6152
49311SOL    HW153770   3.733   0.634   9.414  0.8674 -0.8942 -1.0567
49311SOL    HW253771   3.833   0.619   9.526 -0.1866  0.9296  0.1730
49312SOL     OW53772  11.044   6.238   6.681  0.8897 -0.0945 -0.2738
49312SOL    HW153773  11.081   6.221   6.767 -2.2194  0.4462  1.3368
49312SOL    HW253774  11.087   6.318   6.650  1.3865  0.2318  1.2184
49313SOL     OW53775   7.269   3.621  11.218 -0.8218  0.4001  0.2928
49313SOL    HW153776   7.271   3.659  11.306 -1.4615 -0.5865  0.7414
49313SOL    HW253777   7.240   3.531  11.230 -0.1021 -0.0104 -0.8507
49314SOL     OW53778   7.697   9.208   3.138  0.0219  0.2879  0.4411
49314SOL    HW153779   7.776   9.155   3.128  0.4356  1.0082 -0.1961
49314SOL    HW253780   7.663   9.184   3.224  2.2728  1.7275  1.8341
49315SOL     OW53781   9.650   3.964   2.925 -0.0438 -0.3548  0.1533
49315SOL    HW153782   9.647   3.915   3.007  1.2276  0.1627  0.5369
49315SOL    HW253783   9.743   3.974   2.906 -0.3115 -0.7734 -1.5623
49316SOL     OW53784   1.828  12.015   9.219 -0.2987 -0.6138  0.5514
49316SOL    HW153785   1.747  12.043   9.262 -0.2389 -0.7799  0.7727
49316SOL    HW253786   1.834  12.071   9.142 -0.7306 -0.7352  0.4267
49317SOL     OW53787  11.554   6.456   1.658  0.4443  0.4267 -0.3480
49317SOL    HW153788  11.534   6.366   1.686  0.1219  1.2775  2.5478
49317SOL    HW253789  11.503   6.468   1.578  0.5065 -1.9544 -0.8261
49318SOL     OW53790   4.314   6.655   8.646 -0.4988  0.5172  0.3050
49318SOL    HW153791   4.373   6.616   8.710 -0.2210  1.3822  0.5979
49318SOL    HW253792   4.254   6.585   8.622 -1.1192  0.3836  2.1119
49319SOL     OW53793   2.487   2.875   1.796 -0.6871 -0.7525  0.4610
49319SOL    HW153794   2.431   2.951   1.812 -0.7270 -0.8310  0.6944
49319SOL    HW253795   2.425   2.801   1.789 -1.1208 -0.2453 -3.8959
49320SOL     OW53796   2.840   6.947   2.361 -0.4801 -0.2407 -0.1618
49320SOL    HW153797   2.771   7.009   2.338 -0.8610 -1.0211 -1.2134
49320SOL    HW253798   2.891   6.937   2.281  0.1743 -0.5319  0.2827
49321SOL     OW53799  10.387   3.196   4.003  0.2547 -0.0733 -0.1558
49321SOL    HW153800  10.325   3.153   4.063 -2.2519  1.0896 -1.7617
49321SOL    HW253801  10.396   3.284   4.038  0.7884 -0.1437 -0.1108
49322SOL     OW53802   8.195   9.575  11.407 -0.4783 -0.4327  0.1579
49322SOL    HW153803   8.107   9.568  11.370 -0.5760  0.8341  0.1038
49322SOL    HW253804   8.182   9.587  11.501 -0.3709 -0.1440  0.1373
49323SOL     OW53805   5.888   0.918   3.555 -0.0101  0.0097  0.1756
49323SOL    HW153806   5.911   0.968   3.632 -1.0501  0.6702  0.0792
49323SOL    HW253807   5.831   0.848   3.588 -1.3925  0.9605 -0.0953
49324SOL     OW53808   4.043   1.810   4.318 -0.7107 -0.2126  0.8135
49324SOL    HW153809   4.004   1.897   4.319 -0.2089  0.0665 -0.6783
49324SOL    HW253810   3.969   1.750   4.329 -1.6857  0.2916 -2.2003
49325SOL     OW53811   4.670   7.001   9.602 -0.1948  0.0610  0.1286
49325SOL    HW153812   4.648   6.943   9.530  2.5234  1.5786 -2.1119
49325SOL    HW253813   4.730   6.951   9.656 -0.3326 -0.2552 -0.0093
49326SOL     OW53814   7.359  10.093   2.105  0.2732  0.1961  0.6963
49326SOL    HW153815   7.430  10.145   2.069 -2.0362  3.3266  0.2139
49326SOL    HW253816   7.327  10.144   2.180 -1.7878 -0.7578  0.5363
49327SOL     OW53817   2.059   5.037   6.542  0.7669  0.4330 -0.4050
49327SOL    HW153818   1.992   4.998   6.486  1.2735 -0.5780 -0.3334
49327SOL    HW253819   2.036   5.130   6.547  1.2139  0.7623 -3.0270
49328SOL     OW53820   8.020   4.165   4.169 -0.0622 -0.0250  0.0527
49328SOL    HW153821   8.019   4.233   4.237 -0.3623 -1.0499  1.1097
49328SOL    HW253822   8.025   4.214   4.087  0.6536  1.2516  0.8099
49329SOL     OW53823   1.078  12.331   5.976  0.6498  0.2523  0.1317
49329SOL    HW153824   1.048  12.250   6.017  1.2038  0.1589  0.3501
49329SOL    HW253825   1.158  12.307   5.929  0.9755  0.7275  0.4304
49330SOL     OW53826   5.705   6.374  10.042 -0.2804 -0.0624 -0.6231
49330SOL    HW153827   5.721   6.415   9.957  0.2505  1.4249  0.1574
49330SOL    HW253828   5.620   6.407  10.069  0.1369  0.5243  0.0013
49331SOL     OW53829   7.017   4.762   0.738 -0.2018  0.3810 -0.3764
49331SOL    HW153830   6.976   4.732   0.656  0.3362  0.4811 -0.6901
49331SOL    HW253831   6.959   4.830   0.771 -1.4473 -0.9661  0.3354
49332SOL     OW53832   6.702   2.508   0.019  0.4872  0.3022  0.0032
49332SOL    HW153833   6.737   2.567   0.086 -0.6992  0.9955  0.0441
49332SOL    HW253834   6.610   2.496   0.044  0.4571 -0.7564 -0.5787
49333SOL     OW53835   2.947   2.671   5.532  0.3102  0.2795  0.2604
49333SOL    HW153836   2.867   2.640   5.574 -1.2274  0.9087 -1.9778
49333SOL    HW253837   2.996   2.714   5.602 -1.3197 -0.0896  1.7099
49334SOL     OW53838   3.475   3.321   1.134 -0.0465 -0.4257  0.0420
49334SOL    HW153839   3.516   3.236   1.153 -0.8929 -0.6955  0.7091
49334SOL    HW253840   3.470   3.365   1.219 -0.4003 -0.0628 -0.1624
49335SOL     OW53841   6.781   4.633   6.025 -0.4334 -0.0083  0.1118
49335SOL    HW153842   6.732   4.574   5.967  0.6400 -1.5579  0.6911
49335SOL    HW253843   6.813   4.576   6.094  0.3110  1.3724  0.9441
49336SOL     OW53844   6.673   2.051   7.899  0.1007  0.0044 -0.2149
49336SOL    HW153845   6.718   2.025   7.980 -1.4628  0.4397  0.8383
49336SOL    HW253846   6.629   2.133   7.922 -2.2120 -1.0044 -0.8038
49337SOL     OW53847   9.752   6.987   6.397 -0.0833  0.7238  0.2678
49337SOL    HW153848   9.819   6.930   6.434 -0.6785  0.2245  0.5835
49337SOL    HW253849   9.712   6.935   6.327 -1.0051  0.5401  0.9275
49338SOL     OW53850   7.889   9.535   7.496 -0.1322 -0.3887 -0.5251
49338SOL    HW153851   7.820   9.543   7.562 -0.4284 -1.0838 -0.7405
49338SOL    HW253852   7.873   9.608   7.436 -0.3947 -0.2721 -0.3162
49339SOL     OW53853  10.698   4.646   2.288  0.3533  0.2304 -0.1709
49339SOL    HW153854  10.723   4.738   2.292  1.0541  0.0212  0.5507
49339SOL    HW253855  10.608   4.644   2.323  0.3620  0.6280 -0.1268
49340SOL     OW53856   7.106   4.173   4.819  0.1551 -0.4824 -0.5174
49340SOL    HW153857   7.039   4.233   4.852  0.2950 -1.0769  0.9430
49340SOL    HW253858   7.061   4.119   4.754 -0.2346  0.4981 -1.0819
49341SOL     OW53859   0.092   3.414   1.028 -0.2392 -0.0563  0.4938
49341SOL    HW153860   0.106   3.332   1.075 -1.4969 -0.6490 -0.1361
49341SOL    HW253861   0.015   3.399   0.973  0.5063  0.9752 -0.9296
49342SOL     OW53862   0.664   5.875   3.966 -0.1348 -0.1021 -0.3534
49342SOL    HW153863   0.711   5.801   3.928  0.3846 -0.3579  0.7646
49342SOL    HW253864   0.731   5.925   4.012 -0.7615  0.1436  0.3020
49343SOL     OW53865   7.300   6.741   8.254 -0.0169 -0.0229 -0.2047
49343SOL    HW153866   7.229   6.772   8.197 -0.9111 -1.3314  0.1341
49343SOL    HW253867   7.255   6.696   8.326  1.0719 -4.0003 -1.7247
49344SOL     OW53868   0.800   9.113   8.683 -0.2571  0.2654 -0.4321
49344SOL    HW153869   0.812   9.020   8.667 -0.0806  0.1035  0.5634
49344SOL    HW253870   0.884   9.143   8.717 -0.5682  0.5983  0.0574
49345SOL     OW53871   9.006   1.230   9.051 -0.4427  0.3983  0.1554
49345SOL    HW153872   8.961   1.146   9.057 -1.5387  0.8661 -1.0781
49345SOL    HW253873   9.093   1.213   9.087 -0.6423 -1.2507 -0.0712
49346SOL     OW53874   1.309  10.324   9.759 -1.0381  0.1397 -0.5104
49346SOL    HW153875   1.232  10.377   9.783 -1.6025 -0.2175 -1.4414
49346SOL    HW253876   1.279  10.234   9.767 -0.1610 -0.0603  0.8040
49347SOL     OW53877   5.554   5.366   8.398  0.7600 -0.2944  0.0728
49347SOL    HW153878   5.460   5.369   8.413  0.6295 -0.3662 -0.6573
49347SOL    HW253879   5.593   5.398   8.479  0.0744  0.6394  0.0499
49348SOL     OW53880   6.612   8.716   2.309  0.4724 -0.1647  0.4430
49348SOL    HW153881   6.652   8.678   2.387  0.2426  1.2965  1.3192
49348SOL    HW253882   6.529   8.753   2.341 -0.8423 -1.7217 -1.0102
49349SOL     OW53883   5.354  10.479   5.266 -0.5277  0.4535  0.3106
49349SOL    HW153884   5.330  10.440   5.182 -2.1418 -0.4322  1.1324
49349SOL    HW253885   5.282  10.539   5.285 -0.2530  0.5356  1.1151
49350SOL     OW53886   2.624   7.785   2.015  0.4390  0.7907  0.0400
49350SOL    HW153887   2.578   7.868   2.024  1.1885  1.1785  0.4521
49350SOL    HW253888   2.716   7.809   2.006  0.4377  0.1324 -2.6239
49351SOL     OW53889   4.511   7.436   2.802 -0.4159 -0.2908 -0.1313
49351SOL    HW153890   4.479   7.505   2.860 -1.4803 -0.8974  0.0359
49351SOL    HW253891   4.571   7.480   2.742 -0.4548  0.6190  0.4794
49352SOL     OW53892   0.300  10.144   9.849  0.4064  0.1921  0.0437
49352SOL    HW153893   0.262  10.107   9.929 -0.2248  1.3242  0.2961
49352SOL    HW253894   0.373  10.086   9.828  0.7810  0.0249  1.6335
49353SOL     OW53895   7.770   0.835   4.506  0.1869 -0.2184  0.1670
49353SOL    HW153896   7.829   0.860   4.577 -0.4773  0.2343  0.5653
49353SOL    HW253897   7.690   0.885   4.522  0.2798  0.4745 -1.3150
49354SOL     OW53898   3.629   7.812   2.755  0.4121  0.0804 -0.0739
49354SOL    HW153899   3.535   7.827   2.746  0.4509  0.3478 -0.0349
49354SOL    HW253900   3.660   7.801   2.665  0.1477 -1.2278 -0.0232
49355SOL     OW53901   6.205   8.488   2.701  0.4489  0.0867 -0.1827
49355SOL    HW153902   6.160   8.404   2.700 -1.1561  0.8994  0.2826
49355SOL    HW253903   6.180   8.529   2.618  1.6325 -0.0892 -0.6387
49356SOL     OW53904  10.657   6.827   9.188 -0.0973 -0.2119 -0.1085
49356SOL    HW153905  10.709   6.763   9.138  0.8272  1.1429 -0.9652
49356SOL    HW253906  10.625   6.779   9.263  1.2076 -1.4921 -0.3309
49357SOL     OW53907   9.608   0.807   8.364 -0.2261 -0.6617 -0.2334
49357SOL    HW153908   9.525   0.837   8.327  0.2180  0.4020 -0.4108
49357SOL    HW253909   9.592   0.802   8.459  0.4059  2.8695  0.1953
49358SOL     OW53910  12.208   2.924   4.200  0.6857  0.3125  0.2007
49358SOL    HW153911  12.147   2.988   4.163 -0.1855 -0.8037 -0.3272
49358SOL    HW253912  12.188   2.924   4.294 -1.5741 -1.4541 -0.1883
49359SOL     OW53913   0.198   9.640   1.242  0.2256  0.5622  0.6790
49359SOL    HW153914   0.187   9.586   1.320  2.9289 -0.0982  0.6967
49359SOL    HW253915   0.144   9.596   1.175 -0.9270  0.2823  1.7594
49360SOL     OW53916  10.812   6.276   8.072 -0.6863  0.0929  0.3399
49360SOL    HW153917  10.827   6.307   7.982 -2.2606  0.4873  0.1781
49360SOL    HW253918  10.895   6.291   8.117 -0.4310  1.5855 -0.5772
49361SOL     OW53919   3.263   2.354   2.616  0.0904 -0.0276  0.0442
49361SOL    HW153920   3.216   2.301   2.551 -0.5705  0.3732  0.1910
49361SOL    HW253921   3.299   2.427   2.566 -1.2602  0.8306  0.2588
49362SOL     OW53922   0.712   4.533   7.062  0.0775 -0.1632 -0.0476
49362SOL    HW153923   0.728   4.606   7.121  0.9363  1.1062 -1.7689
49362SOL    HW253924   0.617   4.522   7.064  0.1163 -0.6061  2.0098
49363SOL     OW53925  10.246   9.447   5.031 -0.3571 -0.2463 -0.2765
49363SOL    HW153926  10.224   9.531   4.989 -0.7349 -0.2257 -0.0426
49363SOL    HW253927  10.241   9.465   5.125 -2.0467 -0.9221 -0.2037
49364SOL     OW53928   6.927   3.689   3.617 -0.1966 -0.2042  0.0098
49364SOL    HW153929   6.877   3.632   3.558  0.6345  0.8962 -1.8471
49364SOL    HW253930   6.871   3.766   3.629  0.2184  0.1799 -0.4925
49365SOL     OW53931   0.048   6.409  11.194 -0.6407 -0.2417 -0.3090
49365SOL    HW153932   0.063   6.439  11.284 -0.4226 -0.0654 -0.4059
49365SOL    HW253933  -0.003   6.329  11.205 -0.0156 -0.6113  0.0075
49366SOL     OW53934   0.810   2.852   0.602  0.4798  0.0774  0.0533
49366SOL    HW153935   0.764   2.772   0.628  1.1539 -0.5948 -0.7378
49366SOL    HW253936   0.841   2.890   0.684 -0.0250 -0.3609  0.4567
49367SOL     OW53937   3.757   1.218   4.677  0.6891 -0.4320 -0.2268
49367SOL    HW153938   3.775   1.291   4.736  4.1890 -0.5933 -0.8826
49367SOL    HW253939   3.768   1.254   4.589 -0.4489 -1.1061 -0.6672
49368SOL     OW53940   4.191   4.297  10.696  0.4026 -0.0553 -0.2867
49368SOL    HW153941   4.141   4.362  10.745 -0.6791 -0.5382 -0.7210
49368SOL    HW253942   4.237   4.347  10.628  3.0288  0.8317  1.9523
49369SOL     OW53943   3.329   3.345  12.060  0.1649 -0.3830 -0.5874
49369SOL    HW153944   3.239   3.312  12.053  0.2826 -0.4542 -2.3426
49369SOL    HW253945   3.330   3.422  12.002  1.1751 -0.2403 -0.4002
49370SOL     OW53946   0.440   2.250   6.074 -0.0433 -0.7742  0.3245
49370SOL    HW153947   0.517   2.284   6.119 -0.9935 -0.3721  1.6840
49370SOL    HW253948   0.427   2.309   6.000  0.0842  0.0542  0.9565
49371SOL     OW53949  11.449   9.014   4.074 -0.2652  0.0300 -0.1606
49371SOL    HW153950  11.382   8.949   4.097  1.4259 -1.3821  1.0090
49371SOL    HW253951  11.505   8.968   4.011  1.6203 -0.1186  1.5492
49372SOL     OW53952   4.631   3.122   9.195 -0.4594 -0.2152 -0.5995
49372SOL    HW153953   4.635   3.079   9.280 -0.6770 -1.3319 -1.1272
49372SOL    HW253954   4.611   3.213   9.214  2.6115  0.3094  0.7445
49373SOL     OW53955   8.993  11.450   6.658  0.2005  0.6278  0.3140
49373SOL    HW153956   9.043  11.496   6.590 -1.6211 -0.6971 -2.0923
49373SOL    HW253957   8.944  11.520   6.702 -1.4985  1.3024 -2.3658
49374SOL     OW53958   0.945   2.419  10.767 -0.3364  0.2661  0.6457
49374SOL    HW153959   0.915   2.499  10.723 -1.5930 -0.4317  0.1668
49374SOL    HW253960   0.867   2.385  10.810 -0.1314 -1.3445 -0.1719
49375SOL     OW53961   4.030   7.620   9.641 -0.2728 -0.2366 -0.3699
49375SOL    HW153962   3.979   7.548   9.679 -2.3380  0.8356 -0.9441
49375SOL    HW253963   3.987   7.638   9.557  1.6897  0.1089 -1.3695
49376SOL     OW53964   0.023   0.026   0.924 -0.1534  0.0541 -0.1731
49376SOL    HW153965  -0.071   0.042   0.913 -0.2288 -1.3825 -2.0651
49376SOL    HW253966   0.028  -0.059   0.969  0.2854  1.4724  2.6673
49377SOL     OW53967   1.141   3.972  11.973  0.3995  0.1075 -0.7517
49377SOL    HW153968   1.137   3.891  11.921 -1.3206  0.6533 -1.5460
49377SOL    HW253969   1.053   3.982  12.008  0.6005  1.6112 -0.6178
49378SOL     OW53970   9.970   7.526   6.861  0.6182 -0.0590  0.0299
49378SOL    HW153971   9.977   7.504   6.953  0.5710  0.0825  0.0688
49378SOL    HW253972  10.038   7.474   6.818 -0.3127 -1.2509 -0.0555
49379SOL     OW53973   2.534   3.586   3.384 -0.5273  0.2298  0.5356
49379SOL    HW153974   2.543   3.623   3.296  1.2659 -1.7075 -0.2005
49379SOL    HW253975   2.567   3.653   3.443 -2.3698  1.8192 -0.1635
49380SOL     OW53976   7.688   6.846   4.664 -0.3485 -0.1123  0.0002
49380SOL    HW153977   7.659   6.839   4.755  0.2779  1.3664  0.3268
49380SOL    HW253978   7.607   6.841   4.613 -0.8443  0.5056  0.7158
49381SOL     OW53979   6.873   2.531   3.066 -0.1504 -0.4713  0.4725
49381SOL    HW153980   6.825   2.577   2.997  1.0966  0.3359  0.1018
49381SOL    HW253981   6.951   2.585   3.080  0.0085 -1.0492  1.9671
49382SOL     OW53982   3.015   0.812  10.614  0.0313  0.0822 -0.3571
49382SOL    HW153983   3.012   0.901  10.580  0.3714  0.0839 -0.3898
49382SOL    HW253984   3.029   0.757  10.537 -0.7350 -0.0501 -0.4040
49383SOL     OW53985   7.732   6.702   5.549  0.5518  0.0115 -0.0524
49383SOL    HW153986   7.725   6.784   5.500  0.6117 -0.3110 -0.6055
49383SOL    HW253987   7.802   6.654   5.504 -0.7591 -1.1563 -0.9094
49384SOL     OW53988   1.786   8.556   6.853 -0.2043  0.2794 -0.4599
49384SOL    HW153989   1.698   8.566   6.817  0.3130 -0.4565 -1.9810
49384SOL    HW253990   1.844   8.562   6.778  0.9911 -0.1736  0.4017
49385SOL     OW53991   6.409   1.236   3.094 -0.4129  0.0372 -0.0409
49385SOL    HW153992   6.328   1.245   3.143 -0.6185 -0.3826 -0.2926
49385SOL    HW253993   6.385   1.254   3.003 -0.6243 -1.7907 -0.4035
49386SOL     OW53994   1.443   2.374   6.672 -0.3457  0.0561 -0.1200
49386SOL    HW153995   1.361   2.325   6.672 -2.0209  2.6720 -0.5174
49386SOL    HW253996   1.485   2.352   6.589 -0.3307 -1.6857  0.2992
49387SOL     OW53997   6.304   2.062   1.687 -0.0278  0.0997 -0.0792
49387SOL    HW153998   6.287   2.127   1.619  0.1512 -1.5942 -1.8135
49387SOL    HW253999   6.219   2.020   1.702 -0.0215  0.3138  0.6369
49388SOL     OW54000   8.756   6.323   5.942 -0.2818  0.3450 -0.1335
49388SOL    HW154001   8.759   6.228   5.942 -0.8325  0.3193  0.5798
49388SOL    HW254002   8.675   6.345   5.897 -1.5863  0.3776  2.0687
49389SOL     OW54003   8.980   0.706   7.393 -0.0916  0.0305  0.3567
49389SOL    HW154004   8.929   0.686   7.314  2.5693  1.0987 -1.7719
49389SOL    HW254005   8.999   0.620   7.431 -2.3873 -0.4463  0.5963
49390SOL     OW54006   1.192  10.171  12.225  0.7468 -0.9267 -0.3568
49390SOL    HW154007   1.224  10.222  12.150  0.3623 -2.0252 -1.3036
49390SOL    HW254008   1.139  10.102  12.186  1.8754 -2.5315  0.7923
49391SOL     OW54009   6.158   6.023   2.027  0.3227 -0.3465 -0.2687
49391SOL    HW154010   6.100   5.950   2.048  0.2406 -0.3012 -0.3391
49391SOL    HW254011   6.100   6.090   1.990  0.4912 -0.4969 -0.8081
49392SOL     OW54012   2.170  10.687   2.530 -0.0656  0.1004  0.5457
49392SOL    HW154013   2.136  10.606   2.568 -2.4766  2.1008  2.9893
49392SOL    HW254014   2.224  10.725   2.600  0.7079  0.8217 -0.4227
49393SOL     OW54015  12.283   3.882   4.286 -0.0701 -0.5914  0.1485
49393SOL    HW154016  12.325   3.825   4.221  0.0068 -0.0444 -0.2840
49393SOL    HW254017  12.348   3.890   4.356 -0.1299 -1.1336  0.2754
49394SOL     OW54018   2.069  10.257   3.889  0.2651 -0.2077 -0.8386
49394SOL    HW154019   2.153  10.213   3.902  1.1896  0.7303 -3.0739
49394SOL    HW254020   2.044  10.237   3.799 -1.6145  0.0639 -0.4285
49395SOL     OW54021   6.921   6.010   4.225 -0.2285  0.2730 -0.2019
49395SOL    HW154022   6.873   5.929   4.211  0.6852 -0.0658 -1.4572
49395SOL    HW254023   7.013   5.987   4.215  0.0293  1.5416 -1.0345
49396SOL     OW54024   5.774   9.889   1.916 -0.3874  0.0571  0.1469
49396SOL    HW154025   5.691   9.924   1.946  0.3913  1.0907  1.1872
49396SOL    HW254026   5.760   9.794   1.912 -1.1932  0.0887  1.6826
49397SOL     OW54027  11.408   3.065  10.255  0.0660 -0.2586 -0.0517
49397SOL    HW154028  11.388   2.971  10.261  0.9923 -0.5877 -1.4862
49397SOL    HW254029  11.504   3.069  10.260  0.3763  0.1747 -3.7823
49398SOL     OW54030   4.678   3.124  10.973  0.5378 -0.6077  0.1324
49398SOL    HW154031   4.650   3.126  11.064 -0.2826 -0.1807 -0.1223
49398SOL    HW254032   4.645   3.206  10.936 -1.7094 -2.0553 -1.2707
49399SOL     OW54033   7.500   0.242   6.004 -0.0767 -0.5616  0.0142
49399SOL    HW154034   7.415   0.256   5.963  1.4776  1.6664 -2.7946
49399SOL    HW254035   7.485   0.262   6.097 -2.3913  0.8997 -0.5917
49400SOL     OW54036   9.243   8.746   5.065  0.3484  0.2563 -0.4735
49400SOL    HW154037   9.246   8.668   5.121 -2.0446  1.5459  1.6398
49400SOL    HW254038   9.332   8.781   5.068  0.9004 -1.1384  0.3787
49401SOL     OW54039   3.076   3.636   0.425  0.2724 -0.2657  0.0906
49401SOL    HW154040   2.981   3.622   0.419  0.1834 -0.2446  1.2756
49401SOL    HW254041   3.088   3.689   0.504  1.0964  1.6650 -1.2638
49402SOL     OW54042   5.938   4.301   4.061  0.2271  0.5456  0.0626
49402SOL    HW154043   5.918   4.265   4.147 -1.7903  0.2140 -0.4901
49402SOL    HW254044   5.938   4.225   4.003 -1.3974  1.0663 -0.6757
49403SOL     OW54045   1.943   6.696   2.760  0.2550  0.2243 -0.4605
49403SOL    HW154046   1.973   6.783   2.736 -2.0204  1.0565 -0.5763
49403SOL    HW254047   1.938   6.648   2.677 -0.0981  0.5429 -0.6246
49404SOL     OW54048   7.982   2.485   2.055  0.1328 -0.3828  0.9156
49404SOL    HW154049   8.037   2.475   2.133  0.6247 -1.4214  0.4542
49404SOL    HW254050   8.033   2.444   1.985 -0.6311 -0.1188  0.1974
49405SOL     OW54051   0.046   4.395  10.683  0.1277 -0.0130 -0.2349
49405SOL    HW154052  -0.035   4.401  10.733 -0.2638 -0.1787 -0.8349
49405SOL    HW254053   0.064   4.301  10.677  0.6520  0.0447  0.3402
49406SOL     OW54054   0.598   1.320  11.503  0.1329  0.1772 -0.0961
49406SOL    HW154055   0.610   1.247  11.442 -1.5767  0.4774 -0.8322
49406SOL    HW254056   0.553   1.281  11.578  2.1339 -0.1682  0.9964
49407SOL     OW54057   2.088   2.352   0.625 -0.0726  0.5121 -0.0453
49407SOL    HW154058   2.124   2.371   0.539  2.1835  0.0182  0.7340
49407SOL    HW254059   2.164   2.331   0.680 -1.6007 -1.4184  1.4948
49408SOL     OW54060   2.447   8.357   0.361 -0.5511  0.3104 -0.1990
49408SOL    HW154061   2.473   8.354   0.269  1.4278  0.3823  0.3289
49408SOL    HW254062   2.491   8.282   0.401  0.1640  1.3547  1.0465
49409SOL     OW54063   5.814   6.936   2.569 -0.2910  0.8419 -0.0831
49409SOL    HW154064   5.796   6.968   2.657  0.6610  0.8063  0.1332
49409SOL    HW254065   5.908   6.950   2.557  0.1938 -1.8099  0.0273
49410SOL     OW54066   3.908  12.038  10.028 -0.5541  0.0791 -0.1117
49410SOL    HW154067   3.965  11.971  10.064  1.2682  0.0398 -2.8116
49410SOL    HW254068   3.870  12.081  10.105  1.8957 -0.9190  1.7867
49411SOL     OW54069   6.613  11.433  11.785 -0.5104 -0.1323  0.2391
49411SOL    HW154070   6.602  11.520  11.822  1.7119  0.0004  0.7548
49411SOL    HW254071   6.584  11.373  11.854  0.4548  0.1746  0.9238
49412SOL     OW54072   2.343   7.730  12.190  0.1206  0.0775  0.1293
49412SOL    HW154073   2.253   7.725  12.224  0.2782 -0.9752  0.4152
49412SOL    HW254074   2.348   7.659  12.126  0.5576  0.5492 -0.3624
49413SOL     OW54075  11.968  10.748   1.355 -0.3537 -0.2656 -0.2072
49413SOL    HW154076  11.888  10.699   1.373  0.4340 -1.5933 -0.1717
49413SOL    HW254077  11.939  10.824   1.303 -1.5865 -0.8809 -0.4521
49414SOL     OW54078   2.416   6.329   3.440  0.3258  0.1370  0.2774
49414SOL    HW154079   2.454   6.290   3.361 -0.0242  0.0635  0.1461
49414SOL    HW254080   2.362   6.401   3.408 -1.0930 -0.8696  0.3225
49415SOL     OW54081   1.245   8.430   5.222 -0.3202 -0.5319 -0.3734
49415SOL    HW154082   1.289   8.503   5.265 -0.1897  0.1306 -1.5856
49415SOL    HW254083   1.219   8.372   5.294  0.4528  0.2102  0.5335
49416SOL     OW54084   8.576   1.924   5.032 -0.1464 -0.0761 -0.3636
49416SOL    HW154085   8.528   1.988   5.084  0.0868 -1.9599  2.3931
49416SOL    HW254086   8.653   1.904   5.084  1.3794 -0.3985 -2.6010
49417SOL     OW54087   7.400   9.867   4.279 -0.3499  0.3424 -0.3783
49417SOL    HW154088   7.356   9.860   4.364 -0.8208  2.3740 -0.4083
49417SOL    HW254089   7.463   9.795   4.279 -1.2947 -0.5497  1.0999
49418SOL     OW54090  12.017   3.470  12.077 -0.0915 -0.2158  0.2689
49418SOL    HW154091  12.038   3.501  12.165 -1.0910  0.2443  0.3601
49418SOL    HW254092  12.036   3.545  12.020  0.7046 -0.5634  0.0568
49419SOL     OW54093   8.594   0.400   8.534  0.7939 -0.3417  0.3322
49419SOL    HW154094   8.566   0.372   8.447  0.3778  0.6557  0.1321
49419SOL    HW254095   8.617   0.493   8.524 -2.0495  0.6595  1.8503
49420SOL     OW54096   8.276   9.337   9.586  0.1147  0.2852 -0.3349
49420SOL    HW154097   8.230   9.395   9.527  1.1527  0.7765 -0.6887
49420SOL    HW254098   8.363   9.326   9.547  0.7613  0.4531  0.9725
49421SOL     OW54099   6.642  10.003   6.212  0.3826 -0.2488 -0.5110
49421SOL    HW154100   6.610  10.089   6.185 -1.3839 -1.0033 -0.9773
49421SOL    HW254101   6.716   9.986   6.153 -0.8931 -0.1308 -2.2303
49422SOL     OW54102   2.451   5.580   9.227  0.2185  0.1204  0.6773
49422SOL    HW154103   2.367   5.535   9.232  0.3104 -0.0165  1.0682
49422SOL    HW254104   2.497   5.538   9.154  0.0502  0.0176  0.6297
49423SOL     OW54105   5.256   8.958  10.173  0.1780 -0.3268  0.6390
49423SOL    HW154106   5.188   8.901  10.138 -1.0552  1.0296  0.7293
49423SOL    HW254107   5.299   8.995  10.096 -1.7864  1.7807  0.4453
49424SOL     OW54108  10.986   8.533   5.499  0.5706 -0.0617 -0.3526
49424SOL    HW154109  10.941   8.496   5.575  1.9011  0.5659  0.7597
49424SOL    HW254110  10.922   8.523   5.428 -1.1611  0.3821  1.0550
49425SOL     OW54111  11.597   3.712  10.341  0.3902  0.3471 -0.0995
49425SOL    HW154112  11.609   3.654  10.266  1.8557 -0.2492  0.5622
49425SOL    HW254113  11.681   3.758  10.349  0.3607  0.1930  1.3270
49426SOL     OW54114  11.681   4.051   2.589  1.0744  0.1435  0.2018
49426SOL    HW154115  11.657   3.966   2.625  1.4146 -0.2186 -0.4092
49426SOL    HW254116  11.769   4.067   2.622  0.5327  0.8656  1.3678
49427SOL     OW54117   1.881   6.196   1.589  0.2969  0.0701  0.4457
49427SOL    HW154118   1.811   6.249   1.626 -1.3867 -1.6962 -0.0840
49427SOL    HW254119   1.959   6.221   1.640 -0.7463  1.8751  1.2277
49428SOL     OW54120   7.372   1.234   8.224 -0.4161 -0.2602 -0.2142
49428SOL    HW154121   7.436   1.202   8.288  0.5582 -1.3220 -1.6718
49428SOL    HW254122   7.416   1.227   8.140 -1.9705  0.3157 -1.1204
49429SOL     OW54123  11.644   0.537   4.681  0.5519  0.3303  0.0293
49429SOL    HW154124  11.668   0.558   4.591  0.7088 -0.7727 -0.2030
49429SOL    HW254125  11.700   0.463   4.704  0.0894  0.2127  0.8235
49430SOL     OW54126   1.943  10.998  11.471 -0.2246  0.4804 -0.1814
49430SOL    HW154127   1.995  10.919  11.455  0.3273  0.7029  0.4575
49430SOL    HW254128   1.925  10.996  11.565 -1.6753  0.2397 -0.4422
49431SOL     OW54129   7.776  11.557   9.675 -0.1745  0.0515  0.6035
49431SOL    HW154130   7.849  11.616   9.694  0.1504 -0.3664  0.6753
49431SOL    HW254131   7.755  11.516   9.759 -0.6631  0.3534  0.6343
49432SOL     OW54132   2.742   4.056   6.111  0.4342  0.5622  0.1141
49432SOL    HW154133   2.698   4.137   6.136 -0.5944  0.3097 -0.8021
49432SOL    HW254134   2.672   3.996   6.085  1.0753 -1.0084  1.7492
49433SOL     OW54135   1.501   5.480   3.251 -0.2973  0.2659  0.3614
49433SOL    HW154136   1.557   5.530   3.310 -0.1185 -1.6071  1.8946
49433SOL    HW254137   1.412   5.502   3.277 -0.4786  3.3587 -2.1726
49434SOL     OW54138   8.611   2.119   1.882 -0.0674  0.5374  0.2754
49434SOL    HW154139   8.651   2.035   1.858 -0.0338  0.5927  0.1397
49434SOL    HW254140   8.543   2.133   1.817  0.2761  0.8722 -0.0107
49435SOL     OW54141   4.072   2.053   3.724 -0.1880  0.4052 -0.8258
49435SOL    HW154142   4.162   2.086   3.720 -0.3772  1.2171  1.0293
49435SOL    HW254143   4.082   1.958   3.731  0.4682  0.3998 -1.5735
49436SOL     OW54144   8.140   5.694   7.879 -0.2420  0.2554 -0.0207
49436SOL    HW154145   8.095   5.633   7.937 -0.8573  2.2617  1.7139
49436SOL    HW254146   8.080   5.767   7.870  1.5505  1.8108  0.1748
49437SOL     OW54147  12.085  12.132   9.540  0.0723 -0.0796 -0.3919
49437SOL    HW154148  12.043  12.052   9.571  1.1998 -0.2207  0.9019
49437SOL    HW254149  12.013  12.186   9.507 -0.9893 -0.7363  0.7459
49438SOL     OW54150   5.875   9.470   0.306  0.0730 -0.1828  0.2767
49438SOL    HW154151   5.830   9.421   0.375 -1.2262  1.7765  0.9148
49438SOL    HW254152   5.808   9.529   0.272  1.2380  0.2613 -1.3269
49439SOL     OW54153  10.837   6.558   2.523  0.5377 -0.7368 -0.2900
49439SOL    HW154154  10.828   6.648   2.555  0.4922 -1.6790  2.6966
49439SOL    HW254155  10.929   6.551   2.498  0.3321  0.3571 -1.4933
49440SOL     OW54156   6.153   7.696   3.644  0.6433 -0.5470 -0.6666
49440SOL    HW154157   6.246   7.674   3.640  0.9756  0.9871 -2.2674
49440SOL    HW254158   6.144   7.747   3.724  1.2759 -0.2630 -0.7752
49441SOL     OW54159   1.303   7.126   7.819  0.4525  0.1901 -0.1474
49441SOL    HW154160   1.244   7.078   7.761 -0.4113 -1.0087  1.6219
49441SOL    HW254161   1.304   7.215   7.784 -2.5777  0.3205 -0.1810
49442SOL     OW54162   2.982   5.722   4.412  0.4225  0.7214  0.2358
49442SOL    HW154163   2.963   5.811   4.381 -0.4462  0.5373  0.2183
49442SOL    HW254164   2.937   5.716   4.496 -1.0512 -0.2796 -0.5715
49443SOL     OW54165   7.157   7.033   3.726  0.3989  0.0412  0.1071
49443SOL    HW154166   7.239   7.057   3.682  0.6707  0.4768  0.8379
49443SOL    HW254167   7.172   6.943   3.755  0.4983  0.0122 -0.0313
49444SOL     OW54168   0.174   2.698   3.249 -0.2692 -0.3864 -0.1150
49444SOL    HW154169   0.117   2.773   3.229 -0.8686 -1.0315 -0.8644
49444SOL    HW254170   0.133   2.624   3.205  0.7871 -1.0008 -0.0949
49445SOL     OW54171  11.965   4.948   1.846 -0.5979 -0.1904 -0.5757
49445SOL    HW154172  12.003   4.893   1.778 -1.1066 -0.7809 -0.3947
49445SOL    HW254173  11.882   4.905   1.867 -0.4849  0.0336  0.3581
49446SOL     OW54174   5.757  11.773   7.437 -0.3320  0.9450 -0.0020
49446SOL    HW154175   5.831  11.832   7.455 -0.2217  0.6678  0.4903
49446SOL    HW254176   5.728  11.746   7.524 -0.3962  0.2927 -0.2245
49447SOL     OW54177   1.689   5.451   8.904  0.0799  0.4672 -0.1865
49447SOL    HW154178   1.634   5.443   8.982  0.0290  1.4067 -0.1211
49447SOL    HW254179   1.645   5.396   8.838 -0.9180  1.1757 -0.1270
49448SOL     OW54180   9.951   3.027   6.855  0.4906 -0.0249  0.2361
49448SOL    HW154181  10.009   3.050   6.783  2.0685  0.1259  1.5076
49448SOL    HW254182   9.987   2.945   6.890 -1.6856 -1.4363 -0.6180
49449SOL     OW54183   4.323   5.790   0.860 -0.1862  0.0310 -0.0303
49449SOL    HW154184   4.391   5.855   0.844 -1.2390  1.3058  0.4559
49449SOL    HW254185   4.273   5.787   0.779  0.4759 -0.9857 -0.4259
49450SOL     OW54186   6.221  11.749   1.853  0.1219 -0.5796 -0.6578
49450SOL    HW154187   6.203  11.792   1.769 -0.3411  0.9719  0.1963
49450SOL    HW254188   6.312  11.773   1.872 -0.3579  0.6910  0.1618
49451SOL     OW54189  10.010   9.196  10.284 -0.1015  0.1368 -0.8914
49451SOL    HW154190  10.105   9.197  10.291 -0.1313 -0.4074 -0.3218
49451SOL    HW254191   9.980   9.185  10.374 -0.7089  0.3891 -1.0570
49452SOL     OW54192   3.467   0.023   1.238  0.3734  0.3438  0.1050
49452SOL    HW154193   3.407  -0.048   1.217 -2.3648  2.4508  0.1729
49452SOL    HW254194   3.500   0.053   1.154 -1.3119  1.2419 -0.2719
49453SOL     OW54195   1.524   3.150   2.739 -0.1615 -0.4926 -0.7881
49453SOL    HW154196   1.611   3.185   2.720 -1.4363  3.2355 -0.6869
49453SOL    HW254197   1.503   3.095   2.663  1.8300 -0.5115 -1.3633
49454SOL     OW54198   3.829   3.348   7.791 -0.7693  0.1327 -0.0761
49454SOL    HW154199   3.922   3.328   7.787 -0.9681 -0.6253 -2.0755
49454SOL    HW254200   3.801   3.320   7.879  0.9094  0.6249  0.6444
49455SOL     OW54201   3.198   7.298   0.623  0.2657  0.0378 -0.3487
49455SOL    HW154202   3.113   7.257   0.637  0.2075  0.8344  2.0654
49455SOL    HW254203   3.248   7.233   0.574 -1.2687 -1.0207 -0.5813
49456SOL     OW54204   5.722   6.981   6.352 -0.2379  0.2480 -0.1334
49456SOL    HW154205   5.704   6.889   6.367 -1.1245  0.3387 -0.5957
49456SOL    HW254206   5.754   6.986   6.262  0.5551  0.3048  0.1397
49457SOL     OW54207   9.228   6.452   7.960  0.5042  0.4290 -0.5354
49457SOL    HW154208   9.287   6.480   8.030 -0.8105 -0.1903  0.8792
49457SOL    HW254209   9.141   6.454   7.999 -0.1855 -0.8357 -1.8812
49458SOL     OW54210   0.572   0.207   0.947  0.0333 -0.1006  0.1654
49458SOL    HW154211   0.495   0.242   0.993 -0.4171 -1.1596  0.2445
49458SOL    HW254212   0.647   0.239   0.998 -0.3303  1.1720 -0.0706
49459SOL     OW54213   6.921  11.879   6.804  0.1242 -0.2351 -0.5994
49459SOL    HW154214   6.887  11.793   6.830  1.9393 -0.6192  0.6668
49459SOL    HW254215   6.896  11.938   6.875 -2.6653  0.8149 -2.2442
49460SOL     OW54216   3.416   0.453   0.046 -0.0788  0.3042 -0.3374
49460SOL    HW154217   3.477   0.484   0.113 -0.8694  2.2133 -0.4477
49460SOL    HW254218   3.412   0.358   0.060  1.4561  0.3638  0.8656
49461SOL     OW54219  10.694   9.317  12.015 -0.1235 -0.2738  0.2365
49461SOL    HW154220  10.653   9.395  12.053 -0.5959 -1.7906  3.2083
49461SOL    HW254221  10.788   9.334  12.023 -0.2165  0.2877  0.1945
49462SOL     OW54222   5.626  10.737   9.444  0.1496 -0.3677  0.4335
49462SOL    HW154223   5.687  10.748   9.518 -0.2079  1.1305  0.5385
49462SOL    HW254224   5.623  10.643   9.430  1.4537 -0.5748  1.3047
49463SOL     OW54225   4.916   5.719   6.532  0.1187  0.2840 -0.1522
49463SOL    HW154226   4.910   5.759   6.445 -0.4918 -1.2663 -0.8581
49463SOL    HW254227   5.010   5.704   6.544  0.3096  1.4237 -0.0860
49464SOL     OW54228  11.719   7.650   8.724 -0.0786 -0.4309 -0.4339
49464SOL    HW154229  11.763   7.719   8.675 -0.2180 -0.2490 -0.3031
49464SOL    HW254230  11.778   7.631   8.797 -0.3715  0.0448 -0.0713
49465SOL     OW54231   8.539   5.726   0.770 -0.7593 -0.2513  0.2394
49465SOL    HW154232   8.453   5.765   0.785 -0.8269  0.5018 -1.7919
49465SOL    HW254233   8.580   5.783   0.706 -0.2381 -2.6376 -1.6939
49466SOL     OW54234   2.342   4.295  10.606  0.0204  0.1079 -0.9067
49466SOL    HW154235   2.255   4.270  10.575 -1.1242  1.1953  1.2259
49466SOL    HW254236   2.400   4.225  10.575 -1.6819 -0.9023 -1.9356
49467SOL     OW54237  10.112   6.023   1.452  0.5103  0.6273 -0.1044
49467SOL    HW154238  10.083   6.085   1.385  1.3378  0.8212 -0.2957
49467SOL    HW254239  10.068   5.941   1.431 -0.7693  1.1941  0.2811
49468SOL     OW54240  10.200  10.725   9.946  0.5013 -0.5459  0.1001
49468SOL    HW154241  10.238  10.655   9.892  0.0215  0.1071 -1.1464
49468SOL    HW254242  10.234  10.806   9.908 -0.2520 -0.0455  0.4612
49469SOL     OW54243   2.933   2.918   1.287 -0.1849 -0.0671  0.3833
49469SOL    HW154244   2.879   2.943   1.362  1.1867  2.2292  0.7124
49469SOL    HW254245   3.008   2.872   1.325 -0.6536 -1.0371  0.1620
49470SOL     OW54246   5.879   7.243   3.309  0.0767  0.3314  0.0969
49470SOL    HW154247   5.795   7.285   3.325 -1.1409 -1.1627 -1.8545
49470SOL    HW254248   5.931   7.310   3.264 -0.4970  0.8958  0.2599
49471SOL     OW54249   7.597   0.735   0.774  0.1450  0.4114 -0.1833
49471SOL    HW154250   7.598   0.791   0.697  1.1817 -0.7951 -1.0827
49471SOL    HW254251   7.521   0.678   0.761  0.0181  0.5481 -0.0491
49472SOL     OW54252   1.225   4.085   1.173 -0.0165  0.4963  0.3443
49472SOL    HW154253   1.164   4.107   1.103 -0.0093  1.7086  0.7019
49472SOL    HW254254   1.211   3.991   1.189  0.0526  0.1685 -1.3272
49473SOL     OW54255   3.271   4.856   5.264  0.0447 -0.5847 -0.4553
49473SOL    HW154256   3.319   4.914   5.205 -2.4558  0.5876 -1.4395
49473SOL    HW254257   3.254   4.909   5.341 -0.3105 -0.7695 -0.4056
49474SOL     OW54258   7.912   6.114   9.062 -0.2124  0.3045  0.1120
49474SOL    HW154259   7.902   6.114   9.157  1.9565  0.7032  0.3895
49474SOL    HW254260   7.939   6.204   9.040 -1.0538  0.3247 -0.9311
49475SOL     OW54261   4.967   2.895   6.369  0.0346 -0.3796 -0.2996
49475SOL    HW154262   4.872   2.880   6.374 -0.2520  0.9153 -1.4123
49475SOL    HW254263   4.995   2.843   6.293 -0.0998  0.5813 -1.0291
49476SOL     OW54264   2.899   4.221   0.170  0.1079  0.0504  0.0032
49476SOL    HW154265   2.821   4.181   0.132  1.4086 -1.0217 -1.6980
49476SOL    HW254266   2.900   4.310   0.134  0.8001 -0.6403 -1.7989
49477SOL     OW54267   5.496  10.657   8.379 -0.0244  0.2758 -0.8545
49477SOL    HW154268   5.506  10.746   8.413 -0.7898  0.7092 -1.7156
49477SOL    HW254269   5.466  10.670   8.289 -0.1682 -0.8649 -0.9758
49478SOL     OW54270   2.447   1.388   9.429  0.7673 -0.4769  0.2069
49478SOL    HW154271   2.518   1.352   9.482 -0.0236  0.0062  1.6437
49478SOL    HW254272   2.367   1.365   9.476 -0.0132 -0.4095 -1.0231
49479SOL     OW54273   0.989   6.272   7.608 -0.2171 -0.0645 -0.2876
49479SOL    HW154274   0.987   6.343   7.544  0.4175  0.8093  0.6309
49479SOL    HW254275   1.070   6.225   7.588 -0.5240 -0.4003 -0.7538
49480SOL     OW54276   0.808   8.353   3.790 -0.2718 -0.1795  0.3063
49480SOL    HW154277   0.862   8.332   3.866 -0.6952 -0.7945  0.4431
49480SOL    HW254278   0.726   8.385   3.828 -1.0308 -1.8424  0.1450
49481SOL     OW54279   8.943   6.824  11.669  0.6323  0.3077 -0.0803
49481SOL    HW154280   9.010   6.765  11.633  0.4837 -0.3523  0.7033
49481SOL    HW254281   8.939   6.897  11.606  0.5454 -0.6914 -1.2710
49482SOL     OW54282   1.045   1.440   0.732  0.3684 -0.4470 -0.3344
49482SOL    HW154283   0.984   1.392   0.787  0.8592  1.4560  2.0446
49482SOL    HW254284   0.990   1.502   0.684  0.0856 -1.0827 -0.8311
49483SOL     OW54285   3.544   6.157   8.291 -0.0833  0.5609 -0.3246
49483SOL    HW154286   3.596   6.158   8.371  0.1133  0.4553 -0.4483
49483SOL    HW254287   3.572   6.235   8.243 -1.0925  1.3090  0.2662
49484SOL     OW54288   4.899   1.146  11.117 -0.1400  0.0176 -0.1626
49484SOL    HW154289   4.921   1.239  11.108 -2.6821  0.5370 -1.7956
49484SOL    HW254290   4.915   1.108  11.031  1.7951 -1.3852  0.7138
49485SOL     OW54291   8.150   9.505   7.432  0.0014 -0.2852 -0.0258
49485SOL    HW154292   8.061   9.535   7.449 -0.0120 -0.1737 -0.2842
49485SOL    HW254293   8.197   9.584   7.404  0.3569 -0.2058  0.7602
49486SOL     OW54294   7.571   2.228   5.943 -0.1900  0.1019 -0.0098
49486SOL    HW154295   7.625   2.218   6.022  0.1926 -0.4804 -0.3419
49486SOL    HW254296   7.497   2.169   5.958  1.2322 -2.1306 -1.2391
49487SOL     OW54297  11.865   6.508   1.274  0.1392  1.4316  0.3519
49487SOL    HW154298  11.885   6.488   1.366  1.8267 -0.9578 -0.4515
49487SOL    HW254299  11.934   6.569   1.248  0.6903  0.7710  0.2335
49488SOL     OW54300   3.144  10.320   2.820 -0.1296 -0.6673  1.0269
49488SOL    HW154301   3.104  10.399   2.855 -0.5924 -0.7215  0.6301
49488SOL    HW254302   3.151  10.335   2.726 -0.1004 -1.0455  0.9641
49489SOL     OW54303   1.698   5.204   2.236 -0.1894 -0.1545  0.0257
49489SOL    HW154304   1.611   5.219   2.274  0.2229  0.7605  0.6269
49489SOL    HW254305   1.680   5.183   2.145 -0.9834  1.5453 -0.2566
49490SOL     OW54306   4.726  10.017   4.023  0.3480  0.6795 -0.2109
49490SOL    HW154307   4.750   9.930   3.988 -1.1885  0.8445 -1.8392
49490SOL    HW254308   4.717  10.072   3.945 -1.8166  1.4745  0.5329
49491SOL     OW54309   8.663   7.271   8.877 -0.4276 -0.2942  0.8977
49491SOL    HW154310   8.578   7.284   8.919 -0.4931 -0.2571  0.7547
49491SOL    HW254311   8.726   7.316   8.934 -0.1438 -2.4199  2.3722
49492SOL     OW54312   1.255  11.324   1.712  0.8193 -0.4210 -0.5609
49492SOL    HW154313   1.267  11.413   1.679  0.6637  0.6392  2.0046
49492SOL    HW254314   1.187  11.333   1.779  0.9830 -2.4504 -0.0681
49493SOL     OW54315   0.163   0.217   7.184 -0.0778  0.1687 -0.2262
49493SOL    HW154316   0.114   0.295   7.210 -0.4172 -0.1367  0.0637
49493SOL    HW254317   0.214   0.194   7.261  1.3875  1.1243 -0.8789
49494SOL     OW54318   5.913  10.069  10.976 -0.6267 -0.3144 -0.0093
49494SOL    HW154319   5.843  10.023  10.930 -1.3813 -0.2856  1.0596
49494SOL    HW254320   5.870  10.146  11.015  0.3073  0.5093 -0.5417
49495SOL     OW54321   0.849   2.785  11.292  0.5826 -0.3891 -0.0458
49495SOL    HW154322   0.859   2.868  11.246 -1.2378 -0.1828 -0.1426
49495SOL    HW254323   0.808   2.808  11.375  0.7234 -1.1266  0.2398
49496SOL     OW54324   0.363  11.423  11.892 -0.5239 -0.3100 -0.3354
49496SOL    HW154325   0.323  11.428  11.805  3.0883 -0.1515 -2.1600
49496SOL    HW254326   0.314  11.354  11.937 -3.5540  0.6977 -1.8050
49497SOL     OW54327   8.899  12.017   8.307  0.0776 -0.1949 -0.0172
49497SOL    HW154328   8.822  12.050   8.261 -1.0743  0.3842  2.1807
49497SOL    HW254329   8.949  12.096   8.331  1.6367 -0.5763 -1.7512
49498SOL     OW54330   8.475   3.675   6.749 -0.2926  0.3369  0.0285
49498SOL    HW154331   8.461   3.661   6.842  1.9707  1.8361  0.6595
49498SOL    HW254332   8.469   3.770   6.737  1.2038  0.3310 -1.0005
49499SOL     OW54333   2.624   2.850   5.906 -0.0767  0.0384 -0.1695
49499SOL    HW154334   2.647   2.805   5.987  0.8941  3.0474  1.3863
49499SOL    HW254335   2.531   2.873   5.916  0.7905  3.2872  1.7843
49500SOL     OW54336  10.942   5.277  10.517 -0.0418  0.1718  0.2182
49500SOL    HW154337  10.946   5.296  10.424  2.6623  1.1091  0.4579
49500SOL    HW254338  10.979   5.189  10.526 -1.6669 -0.5392  0.3072
49501SOL     OW54339   1.751   8.857   5.246 -0.6673 -0.0516  0.5435
49501SOL    HW154340   1.666   8.876   5.206  0.2574  0.2360 -1.4390
49501SOL    HW254341   1.791   8.793   5.187  0.6342  0.0889  1.2385
49502SOL     OW54342  10.404   7.128   5.922 -0.5870 -0.0250  0.0539
49502SOL    HW154343  10.401   7.221   5.901 -1.3382 -0.1615 -0.4686
49502SOL    HW254344  10.331   7.090   5.873  0.1413 -1.0022 -0.2949
49503SOL     OW54345   0.426   9.150   4.444 -0.2905 -0.7722  0.1159
49503SOL    HW154346   0.460   9.075   4.491  0.2094 -0.1955  0.6950
49503SOL    HW254347   0.500   9.211   4.440 -0.8270 -0.1165  0.0894
49504SOL     OW54348   9.767   0.685   3.290  0.7508  0.5003  0.2340
49504SOL    HW154349   9.694   0.746   3.278 -0.3292 -0.3900  1.8172
49504SOL    HW254350   9.729   0.612   3.338  1.8414 -1.7824 -2.1352
49505SOL     OW54351   8.791   2.993  11.063 -0.0676  0.1539  0.1676
49505SOL    HW154352   8.863   2.984  11.125  1.0842  1.6377 -0.8676
49505SOL    HW254353   8.777   3.088  11.056 -2.4462 -0.1023  0.6600
49506SOL     OW54354   0.998  11.053  11.972 -0.3432  0.2808  0.0557
49506SOL    HW154355   1.081  11.095  11.997  1.1208 -0.3630 -3.1710
49506SOL    HW254356   1.018  10.960  11.972 -0.5135  0.1842 -2.1550
49507SOL     OW54357   0.092   1.170   6.379  0.4001 -0.1237 -0.3775
49507SOL    HW154358   0.072   1.111   6.306 -0.5852  0.1314 -0.3360
49507SOL    HW254359   0.007   1.209   6.402  0.7297 -0.0093  0.7388
49508SOL     OW54360   0.599   0.823   3.385  0.2030 -0.3605 -0.0997
49508SOL    HW154361   0.671   0.783   3.434 -0.9042  0.1175  2.0522
49508SOL    HW254362   0.599   0.915   3.414  2.1216  1.2315 -4.2437
49509SOL     OW54363   6.944  11.455   9.783 -0.3479 -0.4528 -0.4149
49509SOL    HW154364   6.927  11.424   9.694 -1.6332  0.0432 -0.3583
49509SOL    HW254365   6.894  11.536   9.790  1.5147  0.7178  0.0432
49510SOL     OW54366   2.857   7.520   1.352  0.6772 -0.0200 -0.1695
49510SOL    HW154367   2.946   7.516   1.386  0.6330  0.3960  0.0021
49510SOL    HW254368   2.867   7.545   1.260  0.7843 -0.9246 -0.4179
49511SOL     OW54369  10.374  10.372   0.061 -0.1601  0.6328 -0.7218
49511SOL    HW154370  10.424  10.445   0.023 -0.7469  0.8764 -1.0412
49511SOL    HW254371  10.296  10.414   0.097 -0.1057  0.2637 -0.1677
49512SOL     OW54372   1.986   7.635   1.387  0.2506 -0.4197 -0.2117
49512SOL    HW154373   1.983   7.587   1.469  1.4522  0.8407  0.6050
49512SOL    HW254374   1.916   7.699   1.393 -0.6422 -1.3009 -0.8419
49513SOL     OW54375   5.809   6.823   7.945  0.5479  1.1009  0.3528
49513SOL    HW154376   5.880   6.769   7.981  1.1543  1.6808  0.0577
49513SOL    HW254377   5.843   6.913   7.948 -0.8065  1.6048  1.7130
49514SOL     OW54378   4.685   8.008  10.493  0.1090  0.2830 -0.3866
49514SOL    HW154379   4.740   8.081  10.464  0.7644 -0.2470 -0.5346
49514SOL    HW254380   4.735   7.966  10.563 -0.0461 -0.2852 -0.6065
49515SOL     OW54381   7.357   8.021   5.180 -0.0142 -0.0953 -0.3428
49515SOL    HW154382   7.452   8.008   5.177  0.0863  0.3738  0.5128
49515SOL    HW254383   7.340   8.054   5.268 -0.5934  2.7879 -1.4438
49516SOL     OW54384   8.032   1.074   2.961  0.3949 -0.3119  0.5238
49516SOL    HW154385   8.107   1.100   2.908  1.8201 -1.5658  1.8279
49516SOL    HW254386   8.065   1.074   3.051 -1.2262 -0.7190  1.1618
49517SOL     OW54387   2.560   7.218   9.432 -0.4000  0.1003  0.1218
49517SOL    HW154388   2.479   7.252   9.469 -0.1310  0.2368  0.5921
49517SOL    HW254389   2.563   7.253   9.343  0.3063  2.0915  0.8676
49518SOL     OW54390   9.804   8.507   4.721  0.1611  0.0515  0.5821
49518SOL    HW154391   9.747   8.584   4.716  0.1073 -0.0169  0.0659
49518SOL    HW254392   9.891   8.542   4.739 -0.1430  0.1161  2.0112
49519SOL     OW54393   7.479   4.410   4.354 -0.1545  0.4069 -0.3798
49519SOL    HW154394   7.500   4.418   4.261  0.3925  0.5475 -0.2483
49519SOL    HW254395   7.525   4.330   4.382  1.0007  1.2135  0.1207
49520SOL     OW54396   3.722   7.295  10.839 -0.1432 -0.0155 -0.0053
49520SOL    HW154397   3.748   7.230  10.903 -1.4332 -0.9305 -0.3843
49520SOL    HW254398   3.778   7.371  10.858  1.0212 -1.0370  0.7586
49521SOL     OW54399   5.401   3.585   1.691 -0.0749  0.3283 -0.0180
49521SOL    HW154400   5.484   3.553   1.726 -0.0190 -0.4268 -0.8179
49521SOL    HW254401   5.358   3.508   1.654 -2.5880  0.0270  3.0386
49522SOL     OW54402   3.584   4.187  10.415  0.3408  0.5360 -0.1215
49522SOL    HW154403   3.543   4.270  10.389 -2.9099 -0.9668 -0.1980
49522SOL    HW254404   3.574   4.184  10.510 -0.3067 -0.1006 -0.2012
49523SOL     OW54405  11.720   7.866   0.180  0.1992  0.7002 -0.0926
49523SOL    HW154406  11.778   7.925   0.229 -0.1278 -0.0145  1.2131
49523SOL    HW254407  11.776   7.827   0.113  1.2262  0.1607  1.0295
49524SOL     OW54408  12.277   5.641   4.104 -0.5077 -0.4143  0.1313
49524SOL    HW154409  12.266   5.643   4.199  1.1082  1.5906  0.3447
49524SOL    HW254410  12.335   5.566   4.088 -0.0298 -0.2027  0.8411
49525SOL     OW54411   6.589   2.673   1.505  0.0046 -0.1188 -0.4429
49525SOL    HW154412   6.617   2.720   1.584 -0.8539 -0.8270  0.3093
49525SOL    HW254413   6.608   2.581   1.523 -0.5614 -0.3325 -0.8952
49526SOL     OW54414   2.035   8.048   2.907 -0.5975 -0.0974 -0.2344
49526SOL    HW154415   1.995   8.131   2.935  0.4235  0.8055 -1.3432
49526SOL    HW254416   2.045   7.998   2.988 -0.7378  1.0956  0.5497
49527SOL     OW54417  11.585  10.779  10.614  0.5685 -0.1802 -0.1241
49527SOL    HW154418  11.564  10.826  10.534  2.0889  0.9937  0.1240
49527SOL    HW254419  11.676  10.802  10.633  0.8470 -1.9193  0.9308
49528SOL     OW54420  12.199   0.624   7.806 -0.0805  0.6597 -0.1857
49528SOL    HW154421  12.171   0.548   7.755  1.1806  1.0866 -1.5754
49528SOL    HW254422  12.289   0.639   7.778  0.5802  1.0816  2.0019
49529SOL     OW54423   0.064  10.625  10.631 -0.3483  0.0212 -0.0437
49529SOL    HW154424  -0.010  10.673  10.595 -1.6703 -0.2677  2.1037
49529SOL    HW254425   0.125  10.694  10.659 -0.3274  0.2992 -0.7585
49530SOL     OW54426   7.826   9.776   3.531 -0.0107  0.6292 -0.1878
49530SOL    HW154427   7.845   9.792   3.438 -0.5789  2.5433 -0.0127
49530SOL    HW254428   7.740   9.736   3.531 -0.2075  1.0467 -0.4672
49531SOL     OW54429   0.256   4.515   5.439 -0.0257 -0.3429  0.1029
49531SOL    HW154430   0.172   4.551   5.413 -0.5182  0.5603  2.7352
49531SOL    HW254431   0.275   4.449   5.372 -2.0196  0.5308 -1.4254
49532SOL     OW54432   0.678   3.553   1.341  0.2518 -0.2890  0.0590
49532SOL    HW154433   0.668   3.568   1.435  0.4272  0.0271  0.0277
49532SOL    HW254434   0.620   3.478   1.322  2.1170 -2.0329  0.8949
49533SOL     OW54435   9.322  10.372   0.196  0.4112 -0.5664  0.4175
49533SOL    HW154436   9.400  10.407   0.239  0.6849 -0.3984 -0.2040
49533SOL    HW254437   9.291  10.443   0.140 -0.3661 -0.5298  0.8684
49534SOL     OW54438   9.974   7.094   5.206 -0.2056  0.4103  0.1805
49534SOL    HW154439  10.043   7.118   5.268 -1.0149  0.1955  1.1925
49534SOL    HW254440  10.017   7.034   5.145  0.2407 -0.6917  1.5147
49535SOL     OW54441  10.399   8.186   8.262 -0.2644 -0.0323 -0.5498
49535SOL    HW154442  10.415   8.168   8.355 -0.1957 -1.2572 -0.7782
49535SOL    HW254443  10.395   8.281   8.256  1.1488  0.1222  0.4816
49536SOL     OW54444   0.093  11.949   0.006 -0.3590  0.3123  0.5650
49536SOL    HW154445   0.060  11.862   0.027 -0.2357 -0.0628 -0.7153
49536SOL    HW254446   0.173  11.958   0.057  0.3323 -0.8570 -0.2639
49537SOL     OW54447  10.015   9.816   2.437  0.3565 -0.0202  0.1823
49537SOL    HW154448  10.090   9.823   2.496  1.2748 -2.8113 -0.5148
49537SOL    HW254449  10.035   9.741   2.381 -2.2163  0.1830 -1.1727
49538SOL     OW54450   5.897   4.053  11.632  0.0757 -0.0757 -0.4319
49538SOL    HW154451   5.978   4.051  11.582 -0.4594  0.9445 -1.3771
49538SOL    HW254452   5.855   3.969  11.614  0.4124 -0.1691 -0.7841
49539SOL     OW54453   0.720   6.490  12.193  0.0850 -0.0142 -0.0763
49539SOL    HW154454   0.753   6.511  12.105  0.1443  0.4265  0.0454
49539SOL    HW254455   0.686   6.574  12.225  2.1254  0.3869  1.2191
49540SOL     OW54456   9.660   1.766   8.815  0.4698  0.0456 -0.0630
49540SOL    HW154457   9.641   1.826   8.743 -0.6076  0.1398  0.2788
49540SOL    HW254458   9.590   1.702   8.813  0.0462  0.4232  1.2828
49541SOL     OW54459   3.011  11.119   7.696  0.0966 -0.4258  0.3552
49541SOL    HW154460   3.092  11.115   7.747  1.4126  0.4051 -1.5517
49541SOL    HW254461   3.003  11.032   7.657  0.2011 -0.4510  0.3899
49542SOL     OW54462   5.021   9.195   9.918 -0.3061 -0.1371 -0.1881
49542SOL    HW154463   4.972   9.189  10.000 -0.4217 -4.0780 -0.3740
49542SOL    HW254464   5.107   9.228   9.945 -0.4003 -1.1552  1.5484
49543SOL     OW54465  10.331   5.965   8.761 -0.4171  0.7673 -0.2279
49543SOL    HW154466  10.399   5.944   8.825 -1.4375  0.5296  0.8091
49543SOL    HW254467  10.293   6.047   8.792 -1.0160  0.5809 -0.4466
49544SOL     OW54468   2.650  11.307  11.977  0.4259 -0.3301  0.2720
49544SOL    HW154469   2.725  11.351  11.936 -0.8631  0.0627 -1.8325
49544SOL    HW254470   2.638  11.228  11.924 -3.1403  1.6513 -2.3263
49545SOL     OW54471   2.002   3.049  11.657  0.3745  0.3459 -0.0261
49545SOL    HW154472   2.028   2.997  11.733 -0.4899  1.8690  1.3992
49545SOL    HW254473   2.017   2.992  11.582  0.5163 -1.5287  1.3509
49546SOL     OW54474   8.035   7.018  10.984 -0.2022 -0.0531  0.0501
49546SOL    HW154475   8.062   7.110  10.983 -0.0189 -0.0943 -1.2807
49546SOL    HW254476   8.095   6.976  11.046  1.0637  0.3605 -0.8455
49547SOL     OW54477   2.912   5.403   9.508 -0.4132  0.6838 -0.1436
49547SOL    HW154478   2.904   5.321   9.556 -1.2847 -0.0049 -1.4073
49547SOL    HW254479   2.909   5.471   9.575 -0.8672 -0.2746  0.8275
49548SOL     OW54480   3.744  11.373  10.192  0.1554 -0.1529 -0.1563
49548SOL    HW154481   3.786  11.366  10.278 -0.4272 -0.4856  0.1036
49548SOL    HW254482   3.658  11.333  10.204  0.4992 -1.2546 -1.1955
49549SOL     OW54483   0.861   2.721   3.047  0.6101  0.4316  0.3020
49549SOL    HW154484   0.767   2.707   3.033  0.3415  1.2179  1.1534
49549SOL    HW254485   0.904   2.656   2.991 -0.4260  0.4754 -0.5893
49550SOL     OW54486   8.654  10.102   3.968  0.4230 -0.6564  0.5144
49550SOL    HW154487   8.621  10.066   4.051  1.9696 -2.4031  0.4528
49550SOL    HW254488   8.741  10.137   3.991 -0.4776  1.9388  0.2716
49551SOL     OW54489   6.014   2.386   3.280  0.3215 -0.0823 -0.1980
49551SOL    HW154490   5.954   2.385   3.354 -0.8442 -0.0352 -1.0987
49551SOL    HW254491   5.968   2.337   3.211  1.4939 -0.3826 -0.7954
49552SOL     OW54492   2.536   1.861   0.638 -0.2075 -0.8640  0.6880
49552SOL    HW154493   2.464   1.827   0.584  0.2451 -0.0624 -0.4691
49552SOL    HW254494   2.598   1.897   0.575  0.3037  0.2092  1.7647
49553SOL     OW54495   3.645   7.393   4.766 -0.7222  0.6113  0.1698
49553SOL    HW154496   3.714   7.417   4.704 -0.2162  0.7802  0.7868
49553SOL    HW254497   3.591   7.330   4.719  2.7355 -3.6354  1.2437
49554SOL     OW54498   2.189   3.162   0.221 -0.2407  0.6668 -0.2452
49554SOL    HW154499   2.187   3.159   0.126  2.2368  3.0810 -0.5036
49554SOL    HW254500   2.164   3.251   0.244  0.8824  0.6614  1.2048
49555SOL     OW54501   5.444   7.621   6.189  0.2809  0.0740 -0.1396
49555SOL    HW154502   5.530   7.590   6.162 -0.0070  0.0916 -1.1035
49555SOL    HW254503   5.394   7.629   6.108 -0.0658  1.8294  0.1880
49556SOL     OW54504   0.157   2.394   8.368 -0.8105 -0.0096 -0.5685
49556SOL    HW154505   0.224   2.329   8.347 -1.2315 -1.2233  1.5050
49556SOL    HW254506   0.085   2.375   8.309  0.1116  0.4086 -1.8686
49557SOL     OW54507   8.206   6.913  11.147 -0.1237 -0.4463  0.6565
49557SOL    HW154508   8.231   6.939  11.236 -0.3868  0.4462  0.4748
49557SOL    HW254509   8.178   6.822  11.156 -1.8800  0.1604  1.8336
49558SOL     OW54510   2.252  11.130   7.723 -0.2028  0.2962 -0.5176
49558SOL    HW154511   2.347  11.136   7.727  0.2465 -3.6858 -1.4154
49558SOL    HW254512   2.232  11.109   7.632 -1.7260 -0.9658  0.0480
49559SOL     OW54513   5.267   9.363  11.701 -0.3537 -0.1040  0.1707
49559SOL    HW154514   5.223   9.366  11.616  1.0410 -1.7208 -0.6777
49559SOL    HW254515   5.213   9.417  11.758 -1.1225  1.3851 -1.8272
49560SOL     OW54516   3.689   8.177   5.902 -0.3501 -0.0622 -0.2104
49560SOL    HW154517   3.772   8.149   5.863  1.5956  0.9984  2.7642
49560SOL    HW254518   3.652   8.097   5.940 -0.5746 -0.4922 -1.3084
49561SOL     OW54519  11.931   8.016   5.235  0.1837 -0.5810  0.1265
49561SOL    HW154520  12.012   7.975   5.266 -0.4203 -1.4748  0.5743
49561SOL    HW254521  11.915   7.977   5.149  1.0734  0.8073 -0.7103
49562SOL     OW54522   0.762   2.847   6.044  0.0229 -0.0608  0.0160
49562SOL    HW154523   0.760   2.899   6.124  1.7887  1.5832 -0.9458
49562SOL    HW254524   0.718   2.901   5.979 -2.2522 -1.7786  0.0099
49563SOL     OW54525   4.291   2.082   2.817 -0.3645  0.0494  0.0780
49563SOL    HW154526   4.203   2.071   2.780 -0.5703 -1.6840  1.0122
49563SOL    HW254527   4.295   2.175   2.841 -2.0802  0.0864  0.3613
49564SOL     OW54528   9.268   4.676  12.293  0.3511 -0.2244  0.5044
49564SOL    HW154529   9.332   4.741  12.265 -0.0685  0.4312  1.0531
49564SOL    HW254530   9.298   4.595  12.252 -0.8395  0.8410 -2.8214
49565SOL     OW54531   5.549   1.886  11.542  0.0438 -0.1689  0.2736
49565SOL    HW154532   5.589   1.860  11.625 -0.9524 -0.1692  0.7694
49565SOL    HW254533   5.464   1.923  11.566 -0.3598 -0.3703 -0.7571
49566SOL     OW54534   4.536   2.144   8.089 -0.3268 -0.0885  0.0518
49566SOL    HW154535   4.511   2.121   8.178  0.5722  1.1022  0.6337
49566SOL    HW254536   4.631   2.161   8.093  0.1306 -1.8548 -1.5264
49567SOL     OW54537   2.865   3.821   7.989  0.1215 -0.1894  0.2752
49567SOL    HW154538   2.871   3.886   7.918  1.3063 -0.3255  0.2213
49567SOL    HW254539   2.915   3.746   7.956  1.1641 -0.0486  1.4490
49568SOL     OW54540   8.568   5.731   5.966  1.1368  0.4027 -0.2825
49568SOL    HW154541   8.649   5.683   5.982  0.4110 -0.3981  1.2177
49568SOL    HW254542   8.577   5.765   5.877  2.4090 -1.0350 -0.7388
49569SOL     OW54543   4.939   5.964   0.718 -0.2489  0.3967 -0.3036
49569SOL    HW154544   5.000   5.939   0.648  0.6176 -0.3794  0.6862
49569SOL    HW254545   4.996   5.987   0.792 -1.1071  2.1965 -0.1342
49570SOL     OW54546  11.480   8.100  11.138 -0.2997  0.2549 -0.8946
49570SOL    HW154547  11.393   8.062  11.140  0.1167 -0.8680 -2.3163
49570SOL    HW254548  11.466   8.193  11.124 -1.2775  0.2734  0.0695
49571SOL     OW54549   2.259  11.771   6.054  0.1152 -0.1456 -0.2032
49571SOL    HW154550   2.353  11.787   6.063  0.1802 -0.1659 -0.8698
49571SOL    HW254551   2.252  11.677   6.035 -0.0274 -0.1015 -0.3698
49572SOL     OW54552   1.350   4.109  11.871 -0.1687  0.2766  0.0091
49572SOL    HW154553   1.325   4.201  11.869 -1.1724 -0.0006 -0.6694
49572SOL    HW254554   1.272   4.063  11.900 -0.1516 -0.5123 -1.1404
49573SOL     OW54555   5.013   8.043   4.418 -0.2587 -0.4429  0.4957
49573SOL    HW154556   4.986   8.126   4.379 -0.9991 -1.8071 -2.0767
49573SOL    HW254557   4.932   8.002   4.446 -0.1028 -1.1181 -0.0173
49574SOL     OW54558   6.289  11.536   7.754  0.4231 -0.3856  0.0244
49574SOL    HW154559   6.334  11.514   7.673  2.1531  1.5015  0.3967
49574SOL    HW254560   6.300  11.631   7.763 -2.2339 -0.0847  1.0224
49575SOL     OW54561   0.926   3.658  12.029 -0.0825  0.3764  0.4671
49575SOL    HW154562   0.848   3.619  12.068 -0.6775  0.5991 -0.4736
49575SOL    HW254563   0.986   3.671  12.103 -0.8288 -0.0410  1.1558
49576SOL     OW54564   9.434  10.549  11.168 -0.0068 -0.1361  0.1974
49576SOL    HW154565   9.410  10.583  11.255  1.0678 -1.6289  1.1244
49576SOL    HW254566   9.503  10.608  11.138 -1.0912  1.0189 -0.1648
49577SOL     OW54567   8.545   7.535  12.065  0.3794  0.0127 -0.6023
49577SOL    HW154568   8.585   7.461  12.110  1.0324 -0.2307 -1.5581
49577SOL    HW254569   8.464   7.500  12.029 -0.1176  0.1935  0.2947
49578SOL     OW54570   8.609   7.217  11.313 -0.7460  0.2067 -0.7078
49578SOL    HW154571   8.668   7.148  11.344 -3.1821 -1.2786  1.0037
49578SOL    HW254572   8.658   7.298  11.326  0.9156 -0.9269  0.6360
49579SOL     OW54573   3.374   6.226  11.664 -0.2647 -0.0179  0.2083
49579SOL    HW154574   3.367   6.143  11.711 -0.0047  0.7028  1.5725
49579SOL    HW254575   3.361   6.293  11.732  0.5235  1.0714 -0.6847
49580SOL     OW54576   5.695   7.367  11.438  0.4432  0.9069  0.4068
49580SOL    HW154577   5.784   7.380  11.472  0.4664 -2.4427  2.0904
49580SOL    HW254578   5.701   7.286  11.387 -1.4373  1.1850 -0.3196
49581SOL     OW54579   8.664   8.798   2.309  0.1786 -0.2193  0.3818
49581SOL    HW154580   8.699   8.796   2.220  1.2589  0.1040  0.7765
49581SOL    HW254581   8.570   8.784   2.299  0.3720 -0.8040 -0.7570
49582SOL     OW54582   7.875   5.662   0.031 -0.4901 -0.6957 -0.5574
49582SOL    HW154583   7.790   5.648   0.073 -0.9876  0.0318 -1.2842
49582SOL    HW254584   7.939   5.659   0.103 -1.1201 -1.3198 -0.0143
49583SOL     OW54585   7.301   8.261   7.783  0.8788  0.0960  0.1292
49583SOL    HW154586   7.349   8.239   7.863  1.8203 -1.8137 -0.8860
49583SOL    HW254587   7.213   8.226   7.798  0.7532  0.6219  0.6828
49584SOL     OW54588  10.383   5.572   0.964 -0.0906  0.1022  1.1884
49584SOL    HW154589  10.294   5.608   0.971  0.2561  1.4522 -0.8081
49584SOL    HW254590  10.370   5.484   0.929 -0.6329  0.2884  0.9103
49585SOL     OW54591   6.237   6.135  11.011 -0.3307  0.0097  0.1179
49585SOL    HW154592   6.203   6.133  10.921 -2.2459 -1.4142  0.8117
49585SOL    HW254593   6.164   6.169  11.063  1.2428  2.2700  1.0273
49586SOL     OW54594   2.202   1.819   3.006 -0.2505  0.4062  0.8624
49586SOL    HW154595   2.116   1.849   2.978 -0.2730  0.0464  0.5259
49586SOL    HW254596   2.202   1.725   2.985  0.4703  0.5394  0.2099
49587SOL     OW54597   7.635   6.938  12.147 -0.4027  0.1283 -0.1962
49587SOL    HW154598   7.559   6.911  12.199  0.1128  1.9323  1.6252
49587SOL    HW254599   7.598   6.995  12.079 -0.8749 -0.6657 -0.6193
49588SOL     OW54600   2.544   5.867   0.136  0.2426  0.1381  0.0090
49588SOL    HW154601   2.548   5.772   0.136  1.9584  0.1745 -1.0151
49588SOL    HW254602   2.634   5.895   0.152  0.0322  1.5785 -1.1173
49589SOL     OW54603   7.388   3.268   6.437 -0.1723 -0.3903  0.3447
49589SOL    HW154604   7.459   3.204   6.438 -0.4604 -0.7768 -1.0704
49589SOL    HW254605   7.361   3.272   6.345 -0.9243  0.9250  0.5935
49590SOL     OW54606   2.101   4.623   0.180 -0.3051  0.3380 -0.4317
49590SOL    HW154607   2.096   4.530   0.157  0.0372  0.0961  0.4283
49590SOL    HW254608   2.178   4.629   0.236  0.3750  1.3588 -1.4486
49591SOL     OW54609   0.755   4.899   0.365 -0.5554  0.2448 -0.1393
49591SOL    HW154610   0.699   4.977   0.366  0.0250  0.6662  0.7583
49591SOL    HW254611   0.813   4.912   0.290  0.0492  1.0584  0.4569
49592SOL     OW54612   6.868   6.076   6.843  0.1224 -0.3947 -0.6461
49592SOL    HW154613   6.948   6.029   6.819  1.2939  1.1828  0.0069
49592SOL    HW254614   6.875   6.159   6.797 -1.2621 -0.3209 -0.7363
49593SOL     OW54615  10.833   9.463   3.232 -0.0967 -0.0855 -0.2650
49593SOL    HW154616  10.780   9.532   3.192  0.0671  0.4281  0.3764
49593SOL    HW254617  10.900   9.443   3.167  0.2743  0.8604 -0.1890
49594SOL     OW54618   1.979   4.876   8.005 -0.3216  0.3141  0.2024
49594SOL    HW154619   1.930   4.871   8.088 -1.3280 -0.8305 -0.4304
49594SOL    HW254620   2.046   4.808   8.013 -0.5948  0.0158 -0.0229
49595SOL     OW54621   8.739   7.512   6.852  0.1603 -0.3095  0.0171
49595SOL    HW154622   8.789   7.476   6.926 -0.5115 -1.0623  0.1093
49595SOL    HW254623   8.685   7.439   6.821  0.7754 -0.1412 -1.5351
49596SOL     OW54624   3.378   7.667   2.853 -0.4920  0.1789 -0.4468
49596SOL    HW154625   3.311   7.718   2.808  0.1720  0.9440 -0.5991
49596SOL    HW254626   3.390   7.589   2.799 -0.5165  0.5418 -0.9894
49597SOL     OW54627   0.307   9.246  11.334  0.4270 -0.0326 -0.1054
49597SOL    HW154628   0.386   9.295  11.359 -0.5469  0.8023  1.5505
49597SOL    HW254629   0.240   9.313  11.325 -0.1688 -0.7648 -1.2071
49598SOL     OW54630   3.017   7.982   2.180 -0.3863 -0.2875  0.0841
49598SOL    HW154631   2.964   7.971   2.100 -0.8717 -1.7943  0.5704
49598SOL    HW254632   2.987   7.911   2.237  0.8797 -0.0223  1.0968
49599SOL     OW54633   2.562   8.734   6.127 -0.8413 -0.0537  0.8829
49599SOL    HW154634   2.525   8.821   6.143  0.8306  1.1076 -1.0655
49599SOL    HW254635   2.646   8.735   6.172 -0.4982 -0.3870  0.2568
49600SOL     OW54636   4.313   8.106  11.050  0.1125 -0.3726 -0.3203
49600SOL    HW154637   4.227   8.063  11.054  0.2534 -0.6943 -0.6649
49600SOL    HW254638   4.374   8.040  11.083  0.1468  0.0939  0.5687
49601SOL     OW54639   9.257   2.833   7.631  0.1934 -0.7519 -0.4979
49601SOL    HW154640   9.310   2.805   7.557  1.5030  1.4512 -0.4802
49601SOL    HW254641   9.196   2.761   7.646  0.6225 -1.7232 -3.0012
49602SOL     OW54642   9.611   7.560   8.235  0.2222 -0.0894  0.2562
49602SOL    HW154643   9.547   7.494   8.207 -0.9222  0.2554  1.9060
49602SOL    HW254644   9.587   7.638   8.186 -0.1339 -0.1741  0.2910
49603SOL     OW54645   1.709   5.229   7.640 -0.0769  0.3493 -0.0653
49603SOL    HW154646   1.710   5.138   7.668 -1.9935  0.2856 -0.0370
49603SOL    HW254647   1.794   5.243   7.599  0.9902 -0.8871  1.6032
49604SOL     OW54648   9.045   9.599   7.481  0.3813 -0.8020 -0.1805
49604SOL    HW154649   9.090   9.599   7.566  0.7271  0.2399 -0.3552
49604SOL    HW254650   8.970   9.657   7.495  0.6445 -0.3324 -0.6853
49605SOL     OW54651  10.946   6.912   2.975 -0.4426 -0.3624  0.4129
49605SOL    HW154652  11.007   6.864   2.918  0.8673  2.0036 -0.3458
49605SOL    HW254653  10.983   6.904   3.063  2.3252  2.6548 -0.2677
49606SOL     OW54654   6.639   4.348   1.362 -0.3611 -0.0871 -0.3099
49606SOL    HW154655   6.667   4.420   1.306 -1.1431 -0.0805 -0.7062
49606SOL    HW254656   6.644   4.383   1.451  0.0142  0.1950 -0.4382
49607SOL     OW54657  12.227   3.874   9.557 -0.1857 -0.1964 -0.3015
49607SOL    HW154658  12.223   3.959   9.601 -1.4327 -0.3247 -0.1317
49607SOL    HW254659  12.314   3.841   9.577 -0.0774  0.5580  0.5611
49608SOL     OW54660   5.578   7.908   6.853 -0.6681  0.0996 -0.2375
49608SOL    HW154661   5.668   7.924   6.880 -1.4877  0.5892  2.5425
49608SOL    HW254662   5.565   7.965   6.777  1.5297 -0.5307 -1.1546
49609SOL     OW54663   4.234   7.170  12.163 -0.3262  0.2728 -0.3210
49609SOL    HW154664   4.227   7.253  12.211  1.0270 -0.7915  1.8471
49609SOL    HW254665   4.303   7.185  12.099 -0.4856  0.9987 -0.3306
49610SOL     OW54666   9.945   4.241   4.178  0.0006  0.4744 -0.0946
49610SOL    HW154667   9.981   4.295   4.107  2.9117  0.3564  1.1844
49610SOL    HW254668   9.942   4.299   4.254 -0.2562 -0.2179  0.4353
49611SOL     OW54669   1.635   6.097   9.115  0.0792  0.2678  0.1615
49611SOL    HW154670   1.725   6.086   9.087 -0.2887 -0.7150 -0.6846
49611SOL    HW254671   1.594   6.147   9.045 -0.0236  0.7772  0.5779
49612SOL     OW54672   1.315  10.047   7.455  1.7274  0.0089 -0.3061
49612SOL    HW154673   1.340  10.077   7.542  0.6012 -0.1525  0.0778
49612SOL    HW254674   1.398  10.020   7.415  2.3499  0.7623  0.4369
49613SOL     OW54675   8.182  10.204  11.078  0.2485 -0.6253 -0.4573
49613SOL    HW154676   8.247  10.135  11.059  0.0851 -1.3747  1.4264
49613SOL    HW254677   8.140  10.174  11.159 -0.6213  1.1583 -0.2191
49614SOL     OW54678   7.561  10.929   0.993  0.1537 -0.2621  0.5923
49614SOL    HW154679   7.642  10.910   1.039  0.6157 -0.0510 -0.1239
49614SOL    HW254680   7.571  11.019   0.962  0.8833 -1.1352 -1.9721
49615SOL     OW54681   7.174   9.767   2.502 -0.3000  0.2485  0.4360
49615SOL    HW154682   7.100   9.814   2.540 -0.7975  1.5442 -1.9313
49615SOL    HW254683   7.136   9.685   2.470 -0.2540 -0.0307  1.0842
49616SOL     OW54684   9.054   9.400   1.126  0.5131  0.5381  0.0397
49616SOL    HW154685   9.012   9.325   1.169  2.1886  0.3887  1.5502
49616SOL    HW254686   8.991   9.471   1.135  0.0983  0.0507  1.2300
49617SOL     OW54687   6.640   4.135   0.658 -0.5174  0.0230 -0.0597
49617SOL    HW154688   6.621   4.225   0.632 -0.4741  0.5219  1.5891
49617SOL    HW254689   6.558   4.088   0.644 -0.5572  0.3118 -0.8616
49618SOL     OW54690  11.044   8.981   6.777 -0.4535  0.3039 -0.4852
49618SOL    HW154691  11.038   9.055   6.717  0.4836  0.4647 -0.3976
49618SOL    HW254692  11.040   8.904   6.720 -1.3167  0.4188 -0.5868
49619SOL     OW54693  10.466   1.744   3.170 -0.2778  0.2989 -0.2944
49619SOL    HW154694  10.493   1.700   3.090 -0.1432 -0.1670  0.0089
49619SOL    HW254695  10.385   1.790   3.146  0.3693  1.1105 -1.0089
49620SOL     OW54696  11.586   7.474   3.552  0.2104 -0.0145  0.4106
49620SOL    HW154697  11.660   7.415   3.546  2.5455  2.8222 -1.5908
49620SOL    HW254698  11.572   7.487   3.646  0.8881 -2.0946  0.8458
49621SOL     OW54699   4.188   5.743  11.548  0.3582 -0.5338 -0.6091
49621SOL    HW154700   4.207   5.650  11.531 -1.0728 -0.8346 -0.6987
49621SOL    HW254701   4.093   5.748  11.550  0.3921  0.5732  1.4671
49622SOL     OW54702   3.808   4.309   7.441  0.6450 -0.5895  0.1416
49622SOL    HW154703   3.862   4.231   7.425  0.3027 -0.5759 -1.1688
49622SOL    HW254704   3.733   4.277   7.490 -0.2436 -1.4008 -1.6521
49623SOL     OW54705   5.143  11.341   3.434  0.2594  0.1554 -0.2040
49623SOL    HW154706   5.053  11.344   3.401 -0.0950  0.7726  0.7634
49623SOL    HW254707   5.134  11.351   3.529  1.4335  2.0301 -0.2323
49624SOL     OW54708   1.468  11.600   9.256 -1.0081 -0.3243 -0.3362
49624SOL    HW154709   1.412  11.550   9.316  0.8732 -1.6267  0.4452
49624SOL    HW254710   1.542  11.542   9.240 -0.1858  1.0758 -1.8539
49625SOL     OW54711   1.488   5.419   9.442  0.3109 -0.0828  0.2104
49625SOL    HW154712   1.517   5.449   9.528 -0.9509 -0.3770  0.7642
49625SOL    HW254713   1.393   5.410   9.451  0.1117  0.2626 -1.3377
49626SOL     OW54714   9.281   8.209   6.245 -0.4341 -0.0672  0.4866
49626SOL    HW154715   9.271   8.239   6.155  0.0041  0.4223  0.5951
49626SOL    HW254716   9.267   8.114   6.241  0.0038 -0.1068 -0.1608
49627SOL     OW54717   1.269   6.138   1.815  0.0413  0.0077  0.2022
49627SOL    HW154718   1.274   6.063   1.756  1.7555 -1.1908  1.7560
49627SOL    HW254719   1.239   6.102   1.898  2.0145  0.7679  1.3137
49628SOL     OW54720   8.684  10.747   2.513  0.4331 -0.0948 -0.2755
49628SOL    HW154721   8.722  10.835   2.506 -0.0437  0.2326  0.9039
49628SOL    HW254722   8.759  10.688   2.506  0.9531  0.4732  0.3271
49629SOL     OW54723   8.583   2.484   4.218 -0.7210  0.6031  0.0241
49629SOL    HW154724   8.600   2.578   4.223  0.1205  0.4893 -0.4377
49629SOL    HW254725   8.489   2.477   4.203 -0.9030  1.3422  0.7220
49630SOL     OW54726   6.240   4.357   4.681 -0.1335 -0.2796  0.0486
49630SOL    HW154727   6.268   4.397   4.598 -0.0545 -0.3072  0.0621
49630SOL    HW254728   6.257   4.264   4.670 -0.3193 -0.3116  0.0168
49631SOL     OW54729   8.795   4.398  11.300 -0.7073  0.0260 -0.5658
49631SOL    HW154730   8.806   4.322  11.242 -2.0502 -0.3691 -0.3571
49631SOL    HW254731   8.828   4.368  11.385  0.2471  0.2283 -0.8625
49632SOL     OW54732  11.214   9.850   4.530 -0.5027 -0.4039 -0.1759
49632SOL    HW154733  11.284   9.914   4.532 -0.4584 -0.4588  1.2008
49632SOL    HW254734  11.206   9.820   4.621 -1.8356 -0.9055 -0.4300
49633SOL     OW54735   5.047   2.138   5.169 -0.4446  0.3352  0.5770
49633SOL    HW154736   4.956   2.136   5.197 -0.6445  0.2995 -0.0647
49633SOL    HW254737   5.092   2.078   5.228 -0.1820  2.7788  3.0878
49634SOL     OW54738   1.147   1.662   8.349  0.2216  0.0549  0.3181
49634SOL    HW154739   1.142   1.568   8.333 -1.1789  0.1603  0.0069
49634SOL    HW254740   1.223   1.673   8.406  0.9098 -1.1602 -0.3302
49635SOL     OW54741   0.491   4.972  10.905 -0.0888 -0.1785 -0.2187
49635SOL    HW154742   0.532   5.018  10.832  0.2577  0.1992  0.2055
49635SOL    HW254743   0.478   5.040  10.971 -1.0568 -0.3681 -0.1978
49636SOL     OW54744  10.814   4.016   6.712  0.1791 -0.2350  0.1178
49636SOL    HW154745  10.824   3.926   6.680 -5.5780 -1.2914  0.2893
49636SOL    HW254746  10.835   4.070   6.636 -0.3151 -2.0045 -1.3561
49637SOL     OW54747   3.592   4.010   9.966 -0.0842  0.3650  0.3196
49637SOL    HW154748   3.610   4.031   9.874 -0.4351  4.2931  0.9675
49637SOL    HW254749   3.552   3.923   9.963  4.5817 -2.1373 -2.6321
49638SOL     OW54750   5.216   5.502  11.501 -0.0377  0.1547 -0.8012
49638SOL    HW154751   5.218   5.574  11.437  0.2514  0.3238 -0.6042
49638SOL    HW254752   5.202   5.545  11.585  3.3929  0.3619 -0.1780
49639SOL     OW54753   9.260   5.599   2.406  0.2352 -0.4568 -0.2405
49639SOL    HW154754   9.303   5.537   2.347 -0.5961  1.7972 -3.5010
49639SOL    HW254755   9.331   5.649   2.444  0.7582 -0.5118 -1.1094
49640SOL     OW54756   9.145   0.241   6.315  0.3355  0.0072  0.1904
49640SOL    HW154757   9.091   0.223   6.392 -0.0628 -1.5830 -0.4092
49640SOL    HW254758   9.201   0.314   6.340 -1.6112  1.2755  1.0740
49641SOL     OW54759   7.832  11.986   3.576  0.3565  0.1400  0.0854
49641SOL    HW154760   7.814  11.946   3.491  0.0655 -1.9062  1.0536
49641SOL    HW254761   7.881  12.066   3.555 -0.5259  0.1904 -2.0267
49642SOL     OW54762   8.705   8.295   0.878  0.3763 -0.1773  0.0935
49642SOL    HW154763   8.675   8.229   0.815 -0.2209  0.0196  0.1676
49642SOL    HW254764   8.714   8.247   0.960  0.9877 -0.3971 -0.0976
49643SOL     OW54765   6.122   5.600   3.212  0.1968  0.1812  0.0421
49643SOL    HW154766   6.108   5.691   3.184  0.0628  0.5397  1.1988
49643SOL    HW254767   6.165   5.558   3.137  2.7486  1.8843  0.4095
49644SOL     OW54768  10.415   6.961  10.741  0.1046  0.2606  0.3023
49644SOL    HW154769  10.489   6.985  10.797 -0.2794  0.3274  0.7810
49644SOL    HW254770  10.411   7.032  10.676  1.1905 -0.3372 -0.4593
49645SOL     OW54771  10.782   4.404   7.268  0.6093 -0.0788 -0.0828
49645SOL    HW154772  10.852   4.355   7.311  0.9308  0.1228 -0.3633
49645SOL    HW254773  10.701   4.361   7.295  0.8718 -0.5968 -0.1124
49646SOL     OW54774  12.013   2.756   0.341  0.1390  0.7369 -0.1470
49646SOL    HW154775  11.997   2.807   0.262  0.1869 -1.5128 -1.6828
49646SOL    HW254776  11.928   2.717   0.362  0.9707 -2.2228 -1.7642
49647SOL     OW54777   9.609   5.497   3.598  0.1343 -0.0639  0.6317
49647SOL    HW154778   9.613   5.521   3.691 -0.2613  0.0445  0.6244
49647SOL    HW254779   9.689   5.534   3.560  0.4610 -0.3923  0.9929
49648SOL     OW54780   9.346   8.875   7.874 -0.1237  0.2513  0.0851
49648SOL    HW154781   9.291   8.936   7.922  0.2789  2.7434 -2.4034
49648SOL    HW254782   9.289   8.839   7.806  0.5331  0.5377 -0.6284
49649SOL     OW54783   7.165   0.491   4.214 -0.5909  0.2024 -0.1671
49649SOL    HW154784   7.207   0.417   4.171  0.4535  0.4726  0.3560
49649SOL    HW254785   7.073   0.484   4.190  0.0348  0.7826 -3.0588
49650SOL     OW54786   8.437   0.059   4.793  0.1468 -0.2909  0.7995
49650SOL    HW154787   8.452   0.152   4.804  1.1638 -0.3865  0.2807
49650SOL    HW254788   8.355   0.053   4.744  0.5070  0.3458  0.1195
49651SOL     OW54789  11.913   7.320   7.070  0.1467  0.1784 -0.5617
49651SOL    HW154790  11.963   7.382   7.123 -0.6988  0.5061 -0.1240
49651SOL    HW254791  11.838   7.370   7.039  0.1974 -0.2449 -1.3863
49652SOL     OW54792   2.208   1.708  11.810  0.6837 -0.0273  0.5656
49652SOL    HW154793   2.220   1.691  11.903 -2.7299 -2.8524  0.7104
49652SOL    HW254794   2.258   1.640  11.766  0.7633  0.1193  0.4286
49653SOL     OW54795  10.574  12.245   0.069  0.4196  0.3339 -0.1800
49653SOL    HW154796  10.639  12.300   0.024 -0.5044  0.4707 -1.4141
49653SOL    HW254797  10.490  12.287   0.049 -0.0841 -0.0294  1.1129
49654SOL     OW54798  10.180  11.947   6.474 -0.3274  0.2696 -0.3664
49654SOL    HW154799  10.107  11.943   6.412 -0.4446  0.9987 -0.2812
49654SOL    HW254800  10.258  11.953   6.420 -0.4227  0.7999 -0.4411
49655SOL     OW54801   1.901   2.779   1.560 -0.5737 -0.2887 -0.0458
49655SOL    HW154802   1.847   2.775   1.482  1.0832  0.1134 -1.2727
49655SOL    HW254803   1.844   2.817   1.628 -2.4145 -1.8155 -0.6834
49656SOL     OW54804   5.622   3.826  11.660  0.1004  0.0085  0.1705
49656SOL    HW154805   5.661   3.861  11.740 -1.0408 -1.6680  1.5344
49656SOL    HW254806   5.550   3.770  11.690  0.8985 -2.3552 -1.8784
49657SOL     OW54807   5.968   5.588  10.661 -0.3762  0.0713 -0.6498
49657SOL    HW154808   6.022   5.561  10.586  0.3253  0.3883 -0.2650
49657SOL    HW254809   6.019   5.657  10.703 -0.9834  0.2107 -0.1457
49658SOL     OW54810   5.456  11.448   8.811  0.3923 -0.2113  0.4331
49658SOL    HW154811   5.551  11.440   8.798  0.0971 -0.5559 -2.2555
49658SOL    HW254812   5.434  11.382   8.876  1.9727 -0.2582  0.9526
49659SOL     OW54813   0.469   1.365   0.920 -0.5655 -0.6647 -0.2041
49659SOL    HW154814   0.527   1.315   0.863 -1.4304 -0.2453 -1.5116
49659SOL    HW254815   0.527   1.419   0.973  0.2830 -1.3413 -0.4366
49660SOL     OW54816   0.265  10.601   2.131  0.0657  0.4253 -0.2026
49660SOL    HW154817   0.182  10.569   2.164  0.4910  0.2725  0.7643
49660SOL    HW254818   0.288  10.673   2.190 -0.2004  1.6097 -1.4897
49661SOL     OW54819   2.020   7.820   8.975 -0.1264 -0.1646  0.4635
49661SOL    HW154820   2.039   7.894   8.918 -1.1563 -0.7155 -0.6271
49661SOL    HW254821   2.038   7.743   8.922 -0.6296 -0.6928  1.0418
49662SOL     OW54822   7.186   5.936  10.421  0.0423 -0.9358  0.5082
49662SOL    HW154823   7.163   5.845  10.436  1.3091 -1.4032 -0.1631
49662SOL    HW254824   7.146   5.984  10.494  0.4856 -2.2036  1.6288
49663SOL     OW54825   7.607  10.527   4.351  0.0033  0.1073 -0.4633
49663SOL    HW154826   7.582  10.469   4.423  0.6513 -0.6641 -0.8396
49663SOL    HW254827   7.603  10.615   4.388 -0.0084 -0.2540  0.4125
49664SOL     OW54828   3.016  11.761   0.743 -0.3625  0.3885  0.1814
49664SOL    HW154829   2.986  11.819   0.673 -0.9612  0.9975  0.9208
49664SOL    HW254830   3.037  11.820   0.815 -1.2602 -0.3301  1.0567
49665SOL     OW54831   4.314  11.760   3.669  0.1272 -0.9235 -0.5161
49665SOL    HW154832   4.362  11.842   3.657 -0.7719 -0.3174 -0.0601
49665SOL    HW254833   4.348  11.703   3.601  2.1452 -0.8333  0.3122
49666SOL     OW54834   7.202   2.977   4.191  0.0992 -0.2540  0.0474
49666SOL    HW154835   7.110   2.971   4.164 -0.2940  0.3820  1.1859
49666SOL    HW254836   7.245   3.023   4.119 -0.0674 -2.1569 -1.3591
49667SOL     OW54837   4.654   1.770  11.821  0.1224  0.0302 -0.1238
49667SOL    HW154838   4.663   1.783  11.727  3.5576  0.9785  0.2156
49667SOL    HW254839   4.611   1.849  11.852 -1.9268 -0.7007 -0.9151
49668SOL     OW54840   9.210   6.166   7.808 -0.4167 -0.5075  0.2142
49668SOL    HW154841   9.195   6.260   7.822  0.1185 -0.2194 -1.0009
49668SOL    HW254842   9.194   6.153   7.714  0.3009 -1.4686  0.2120
49669SOL     OW54843  10.465   6.607   9.187  0.3296  0.8519  0.6125
49669SOL    HW154844  10.481   6.542   9.118 -0.1641 -0.2299  1.5009
49669SOL    HW254845  10.384   6.650   9.160  1.2965  2.0036 -0.6258
49670SOL     OW54846  11.481   5.424  11.194  0.2468 -0.1443  0.2381
49670SOL    HW154847  11.408   5.484  11.212 -0.3472 -0.5065 -0.8448
49670SOL    HW254848  11.559   5.477  11.208 -0.2395  0.4670  0.7141
49671SOL     OW54849   9.473  11.581  10.586 -0.1344  0.0302 -0.6131
49671SOL    HW154850   9.388  11.538  10.588  0.1361 -0.5396 -1.2186
49671SOL    HW254851   9.503  11.578  10.677 -0.3306 -0.6341 -0.5635
49672SOL     OW54852  10.631  12.015   7.751 -0.4805  0.7471 -0.2255
49672SOL    HW154853  10.611  11.961   7.675 -0.8716 -0.3389  0.6157
49672SOL    HW254854  10.653  12.101   7.715 -0.1646  0.1212 -1.5841
49673SOL     OW54855   1.979   2.097   2.610 -0.4107 -0.3777 -0.2899
49673SOL    HW154856   2.063   2.056   2.587 -0.9080 -1.5233 -0.1393
49673SOL    HW254857   2.003   2.185   2.640  0.8284 -0.9542  0.4980
49674SOL     OW54858  10.154   6.692   5.661  0.2278 -0.3019 -0.1608
49674SOL    HW154859  10.149   6.596   5.659  0.8625 -0.3339 -1.7676
49674SOL    HW254860  10.245   6.710   5.686  0.5185 -0.1519 -1.2891
49675SOL     OW54861   2.332   1.168   5.242  0.7030  0.4427 -0.4371
49675SOL    HW154862   2.313   1.083   5.202 -1.5856  0.1350  1.1227
49675SOL    HW254863   2.399   1.150   5.307  0.0622 -0.2375  0.0474
49676SOL     OW54864   6.734   8.929   2.894  0.3093  0.4721  0.4866
49676SOL    HW154865   6.709   9.018   2.870  0.1122  0.8420  1.9342
49676SOL    HW254866   6.817   8.914   2.849  0.0714  1.1888 -0.2027
49677SOL     OW54867  10.682   2.814   9.048  0.0231  0.0322  0.3069
49677SOL    HW154868  10.666   2.769   8.965  1.5169 -0.9338  0.4920
49677SOL    HW254869  10.650   2.903   9.034  1.3730  0.2674 -1.7783
49678SOL     OW54870   9.017   8.560   1.886 -0.1825 -0.5845  0.6208
49678SOL    HW154871   9.043   8.541   1.796  0.7911 -0.6148  0.8939
49678SOL    HW254872   9.086   8.617   1.919 -1.1822  0.4626  0.9606
49679SOL     OW54873   4.280   1.896   3.247 -0.0569 -0.1726  0.1232
49679SOL    HW154874   4.332   1.904   3.167  0.1561 -2.0811  0.0227
49679SOL    HW254875   4.194   1.929   3.223  0.0166 -0.6775 -0.9094
49680SOL     OW54876   2.617   8.402   7.436 -0.2009  0.6017 -0.3768
49680SOL    HW154877   2.528   8.429   7.415 -0.9436 -0.8764  0.7319
49680SOL    HW254878   2.657   8.384   7.350 -1.8552 -1.3561 -0.8195
49681SOL     OW54879   8.554   1.500   1.548  0.3243 -0.2602  0.3507
49681SOL    HW154880   8.558   1.594   1.566  2.7157 -0.3918  0.9185
49681SOL    HW254881   8.533   1.494   1.455  2.2742  0.9534 -0.2391
49682SOL     OW54882   6.528  10.695   6.270 -0.1893 -0.4865  0.0495
49682SOL    HW154883   6.528  10.770   6.211 -1.4253  1.8252  2.7612
49682SOL    HW254884   6.620  10.679   6.289  0.0448  1.2554  0.4809
49683SOL     OW54885   9.341   6.484   3.417  0.3179  0.2113 -0.1504
49683SOL    HW154886   9.362   6.507   3.327 -0.1048  1.1753 -0.0097
49683SOL    HW254887   9.341   6.388   3.418  2.7930  0.1341 -0.5913
49684SOL     OW54888  11.349  10.099   4.348 -0.0970  0.0192 -0.2210
49684SOL    HW154889  11.360  10.128   4.438 -0.3721 -1.0992  0.1906
49684SOL    HW254890  11.355  10.179   4.296 -1.7207  0.9294  0.9219
49685SOL     OW54891   8.680  11.810  11.890 -0.0386  0.2985 -0.4195
49685SOL    HW154892   8.768  11.833  11.921 -0.1198  0.7406 -0.5201
49685SOL    HW254893   8.637  11.773  11.967  0.5891 -0.9219 -0.6307
49686SOL     OW54894   3.941   3.276   8.394 -0.0289  0.0154 -0.4811
49686SOL    HW154895   3.904   3.298   8.309 -0.0675  0.4641 -0.3499
49686SOL    HW254896   4.031   3.307   8.391 -0.6492  2.0885  0.4187
49687SOL     OW54897   0.369   9.701   1.829 -0.2967 -0.4535 -0.3629
49687SOL    HW154898   0.325   9.745   1.756  0.8830 -1.3330 -1.6527
49687SOL    HW254899   0.419   9.771   1.872 -0.3416 -0.0758 -0.9121
49688SOL     OW54900   9.523   8.371   6.026 -0.2204 -0.4519  0.1597
49688SOL    HW154901   9.536   8.464   6.046 -0.1264 -0.3416 -0.3966
49688SOL    HW254902   9.559   8.325   6.101  0.6115 -0.0602  0.0064
49689SOL     OW54903   6.600  11.160   2.020 -0.2516 -0.3325 -0.2430
49689SOL    HW154904   6.515  11.193   2.050 -0.2572 -0.4585 -0.1169
49689SOL    HW254905   6.580  11.074   1.984 -0.0739 -0.6588  0.4208
49690SOL     OW54906  11.614   0.275   9.251  0.3485 -0.5085 -0.1457
49690SOL    HW154907  11.701   0.244   9.276  0.3522  0.1504  0.6767
49690SOL    HW254908  11.587   0.333   9.322 -0.7429 -0.6589 -0.4141
49691SOL     OW54909   8.651  11.799   2.591 -0.5134  0.7339  0.1209
49691SOL    HW154910   8.607  11.715   2.579  1.1243 -0.2058  0.3097
49691SOL    HW254911   8.633  11.822   2.682  0.5921 -0.4271  0.6788
49692SOL     OW54912   3.494   1.589   1.306  0.2691  0.5578 -0.2337
49692SOL    HW154913   3.511   1.495   1.296 -1.9847  0.0199  0.4322
49692SOL    HW254914   3.542   1.630   1.233  0.0972 -1.2464 -1.4132
49693SOL     OW54915   9.940   2.816   2.320 -0.6813  0.0538 -0.1700
49693SOL    HW154916   9.943   2.912   2.318  1.7099  0.0366 -1.6984
49693SOL    HW254917   9.974   2.789   2.235 -0.0788 -2.1616  0.6880
49694SOL     OW54918   9.949   7.561   6.369  0.0887 -0.3241  0.0095
49694SOL    HW154919   9.934   7.538   6.277 -0.4238 -1.8984  0.4605
49694SOL    HW254920   9.868   7.604   6.397  0.4460  0.6435 -0.4013
49695SOL     OW54921   2.297  11.072   4.013 -0.3827  0.6533  0.1564
49695SOL    HW154922   2.293  10.997   4.072 -3.5661  0.8389  0.3432
49695SOL    HW254923   2.292  11.148   4.071 -0.4451  0.9188 -0.1949
49696SOL     OW54924  11.931   7.548   9.970 -0.5064  0.2134 -0.1037
49696SOL    HW154925  11.846   7.592   9.966 -0.6343  0.1219  1.2114
49696SOL    HW254926  11.931   7.490   9.893 -0.8586  1.5299 -1.1380
49697SOL     OW54927   6.089   9.882   9.809 -0.4262  0.0466 -0.1050
49697SOL    HW154928   6.006   9.861   9.852 -0.1140 -0.6769  0.1626
49697SOL    HW254929   6.108   9.972   9.835 -0.2017 -0.4039  1.3596
49698SOL     OW54930   6.294   5.710   2.440  0.4209 -0.7934 -0.3399
49698SOL    HW154931   6.304   5.798   2.405  1.1654 -0.2412  1.1676
49698SOL    HW254932   6.334   5.714   2.527 -0.8982 -2.2210  0.3839
49699SOL     OW54933   9.449   1.140  10.546  0.3017  0.2566 -0.3457
49699SOL    HW154934   9.383   1.071  10.536  1.5266 -0.9835 -0.0997
49699SOL    HW254935   9.399   1.217  10.571 -0.9448 -0.9629  1.1178
49700SOL     OW54936   0.200   3.684   2.523 -0.2195 -0.0907 -0.4771
49700SOL    HW154937   0.237   3.669   2.436 -1.3689 -0.0004 -1.0048
49700SOL    HW254938   0.220   3.775   2.542 -0.7995  0.1761 -1.0841
49701SOL     OW54939   2.561   4.669   0.494 -0.3846 -0.6490 -0.0756
49701SOL    HW154940   2.522   4.755   0.510  0.9476  0.0613 -0.4775
49701SOL    HW254941   2.559   4.625   0.579  0.1610  0.3086  0.4384
49702SOL     OW54942  11.358  11.799   0.979  0.2095 -0.4213  0.5713
49702SOL    HW154943  11.357  11.845   0.896  0.5067 -0.5692  0.4863
49702SOL    HW254944  11.265  11.785   1.000  0.1338 -0.2984  0.3153
49703SOL     OW54945   2.932   7.665   8.883 -0.1391  0.1798 -0.3416
49703SOL    HW154946   2.843   7.666   8.919 -0.0111 -0.8676  0.0220
49703SOL    HW254947   2.945   7.754   8.851 -0.1425  1.3098  2.5110
49704SOL     OW54948   1.048  11.784   5.168  0.3736 -0.5940  0.1563
49704SOL    HW154949   1.025  11.876   5.157 -1.3972 -1.0528 -0.3380
49704SOL    HW254950   1.065  11.753   5.079 -2.7846 -1.5823 -0.2517
49705SOL     OW54951   9.884  10.069   3.921 -0.1232 -0.2411 -0.4566
49705SOL    HW154952   9.895  10.106   4.009  0.7923 -0.7393 -0.3477
49705SOL    HW254953   9.895  10.143   3.862  0.8705 -0.1828 -0.2074
49706SOL     OW54954  12.174  12.078   8.541 -0.2202  0.2921  0.4758
49706SOL    HW154955  12.138  12.108   8.625  1.4662  1.9817  0.6593
49706SOL    HW254956  12.264  12.052   8.561  0.4369  1.3729 -0.8982
49707SOL     OW54957   4.018   1.327  10.442  0.4473 -0.3165 -0.3326
49707SOL    HW154958   3.939   1.310  10.493 -0.0374  0.6357 -0.7388
49707SOL    HW254959   4.017   1.421  10.427  1.4835 -0.3458 -0.6446
49708SOL     OW54960   6.762   6.698  11.171  0.1562 -0.8620  0.7933
49708SOL    HW154961   6.742   6.700  11.078  2.1579  0.2836  0.3230
49708SOL    HW254962   6.689   6.745  11.212 -0.8686 -1.5917 -0.1427
49709SOL     OW54963   8.864  10.393  10.026 -0.1189  0.2239  0.3573
49709SOL    HW154964   8.898  10.461   9.967 -2.1697 -2.3175 -4.3670
49709SOL    HW254965   8.941  10.355  10.066  1.6466  1.3420 -1.7325
49710SOL     OW54966   3.206  12.204   0.939  0.2753 -0.4925 -0.0787
49710SOL    HW154967   3.272  12.136   0.926  0.3748 -0.4800  0.3446
49710SOL    HW254968   3.230  12.245   1.023 -0.7127 -1.0001  0.4689
49711SOL     OW54969   7.511   2.643   1.386  0.5113 -0.0752 -0.2318
49711SOL    HW154970   7.498   2.550   1.405 -0.4596  0.1959  0.5373
49711SOL    HW254971   7.530   2.682   1.471 -2.3463  0.9201  0.0671
49712SOL     OW54972   9.669   8.097   2.621  0.3890 -0.6197 -0.5468
49712SOL    HW154973   9.664   8.154   2.698  0.9485 -1.4621  0.1228
49712SOL    HW254974   9.692   8.011   2.655  0.7773 -0.9852 -1.6729
49713SOL     OW54975   6.273   0.210   7.664  0.1599  0.1878 -0.3373
49713SOL    HW154976   6.182   0.189   7.642  0.9823 -1.8150 -2.1905
49713SOL    HW254977   6.291   0.290   7.614 -0.8863  1.3395  1.0373
49714SOL     OW54978  11.454   7.889   5.676  0.3013  0.0007 -0.0944
49714SOL    HW154979  11.375   7.905   5.726  1.0757 -0.5048  1.3590
49714SOL    HW254980  11.432   7.816   5.618 -0.5372  0.4387 -0.3448
49715SOL     OW54981  11.513   4.194   0.782 -0.2060  0.2243  0.1307
49715SOL    HW154982  11.451   4.130   0.817 -0.4358  0.3325 -0.0824
49715SOL    HW254983  11.519   4.262   0.849 -1.0252  0.6830 -0.2540
49716SOL     OW54984   8.142  10.651   0.082 -0.3162 -0.1861  0.8792
49716SOL    HW154985   8.115  10.685  -0.003 -1.7590 -1.6564  0.6785
49716SOL    HW254986   8.061  10.616   0.120  0.2602  0.5635  2.9314
49717SOL     OW54987   7.173   3.739   9.275 -0.0816  0.6097  0.3603
49717SOL    HW154988   7.077   3.742   9.284 -0.3944  0.2337 -2.0891
49717SOL    HW254989   7.192   3.799   9.203  1.1852 -1.3298 -1.0420
49718SOL     OW54990   5.483   0.879   4.230 -0.5410 -0.2312  0.5569
49718SOL    HW154991   5.518   0.799   4.190 -1.2688 -0.2296 -0.1107
49718SOL    HW254992   5.423   0.915   4.164  1.6984  2.2983 -0.2705
49719SOL     OW54993   5.850  11.108   6.995  0.3196  0.2811  0.4297
49719SOL    HW154994   5.889  11.175   7.052  0.3319 -1.1945  2.2421
49719SOL    HW254995   5.779  11.070   7.047 -0.4395 -0.3567 -0.9960
49720SOL     OW54996  10.153  12.165   2.472  0.0615 -0.4600 -0.1962
49720SOL    HW154997  10.217  12.128   2.532  0.2913 -0.1627 -0.2550
49720SOL    HW254998  10.205  12.207   2.404 -0.1744  1.2135  0.6162
49721SOL     OW54999   2.458   3.055   5.202 -0.0504  0.1516  0.0563
49721SOL    HW155000   2.473   3.036   5.109  0.3396  0.7897 -0.0210
49721SOL    HW255001   2.379   3.110   5.203  1.0978  1.9111 -0.1232
49722SOL     OW55002   2.772  10.222   0.141 -0.0873 -0.3931  0.1540
49722SOL    HW155003   2.824  10.291   0.181  0.9428 -1.3016  0.4252
49722SOL    HW255004   2.758  10.158   0.211 -0.8904 -0.5488 -0.1305
49723SOL     OW55005  12.317  10.278   2.864  0.6024  1.0121 -0.3816
49723SOL    HW155006  12.242  10.292   2.921 -0.9748  0.9965 -2.3529
49723SOL    HW255007  12.392  10.313   2.913 -0.4125 -0.3039  2.2495
49724SOL     OW55008   8.884   7.004   9.855  0.2721  0.3004  0.1354
49724SOL    HW155009   8.867   6.914   9.825  1.8864 -0.4083  1.1604
49724SOL    HW255010   8.920   6.992   9.943  2.8357  1.7755 -0.6328
49725SOL     OW55011  12.042  10.456  11.597 -0.1443  0.5011 -0.5501
49725SOL    HW155012  12.125  10.485  11.636 -0.1842 -0.1778  0.0610
49725SOL    HW255013  11.981  10.528  11.615  0.6193  1.6160 -2.1835
49726SOL     OW55014   1.832  11.744   3.846  0.2837  0.2930 -0.0743
49726SOL    HW155015   1.790  11.809   3.903  1.9133  0.6342  0.8007
49726SOL    HW255016   1.924  11.768   3.847  0.6661 -1.0379 -1.1168
49727SOL     OW55017   5.812   5.645   4.817 -0.4724 -0.1105  0.2850
49727SOL    HW155018   5.724   5.667   4.788  0.2653 -0.4945 -2.5684
49727SOL    HW255019   5.825   5.555   4.789  0.4499 -0.4633  1.7359
49728SOL     OW55020   7.563   1.383   7.213  0.1463 -0.2683  0.1914
49728SOL    HW155021   7.478   1.420   7.238 -0.2335 -0.8556 -0.1961
49728SOL    HW255022   7.627   1.432   7.264 -0.5187 -0.7249  1.4961
49729SOL     OW55023   5.242   1.823   7.129  0.0915 -0.0617 -0.4348
49729SOL    HW155024   5.169   1.772   7.093 -1.8664  1.2125  1.4957
49729SOL    HW255025   5.221   1.832   7.222  3.5357 -0.9096  0.5421
49730SOL     OW55026  11.564   8.309   3.242 -1.1217 -0.0947 -0.2718
49730SOL    HW155027  11.530   8.342   3.159 -1.4322  0.7486  0.1826
49730SOL    HW255028  11.562   8.214   3.232 -1.7497 -0.0180 -0.9986
49731SOL     OW55029   3.593   9.712   8.218  0.3084 -0.0903 -0.0278
49731SOL    HW155030   3.640   9.788   8.185 -1.1434  1.2462  0.8388
49731SOL    HW255031   3.634   9.693   8.303 -0.7743  1.2041  0.8251
49732SOL     OW55032  10.046  12.124   3.620  0.6125 -0.6618 -0.4187
49732SOL    HW155033  10.024  12.157   3.533 -1.1997  0.4936  0.4099
49732SOL    HW255034  10.008  12.037   3.624 -0.7495 -0.0827 -0.2590
49733SOL     OW55035   2.105   1.374  11.981 -0.2270 -0.1791  0.0476
49733SOL    HW155036   2.024   1.424  11.979 -0.4679 -0.5555  0.3791
49733SOL    HW255037   2.172   1.438  12.007 -0.5413 -0.0433  0.5201
49734SOL     OW55038   8.125  11.603   9.274  0.4497  0.3751 -0.5293
49734SOL    HW155039   8.097  11.602   9.183 -1.1226  0.6516 -0.0897
49734SOL    HW255040   8.121  11.512   9.301  0.7877  0.3096 -0.6952
49735SOL     OW55041  10.282   7.548   0.058 -0.3365  0.0786  0.3438
49735SOL    HW155042  10.220   7.476   0.066 -0.1314 -0.5658 -2.7085
49735SOL    HW255043  10.366   7.511   0.086 -0.2458 -0.8812 -1.1498
49736SOL     OW55044   6.385   9.730  12.327  0.1095  0.3687 -0.2439
49736SOL    HW155045   6.369   9.773  12.243 -2.0022 -0.4132 -0.2995
49736SOL    HW255046   6.365   9.638  12.312  1.3116 -0.0978  0.7321
49737SOL     OW55047   9.793  10.382   1.977 -0.1084 -0.5152 -0.8526
49737SOL    HW155048   9.714  10.433   1.960  0.3553  0.3335 -0.5110
49737SOL    HW255049   9.852  10.405   1.905 -0.4678 -1.8240 -1.6100
49738SOL     OW55050   3.520   8.350  11.557  0.2829 -0.7181 -0.1919
49738SOL    HW155051   3.503   8.284  11.624  2.5775 -1.4216 -0.2150
49738SOL    HW255052   3.615   8.347  11.543  0.6595  3.0414  0.2827
49739SOL     OW55053   7.647   9.276   5.835 -0.6714  0.3973  0.0294
49739SOL    HW155054   7.686   9.304   5.918 -1.5769  1.4889  0.0930
49739SOL    HW255055   7.682   9.187   5.821 -1.3318 -0.2377  2.1079
49740SOL     OW55056   6.681   1.100   1.954 -0.1358  0.0057 -0.1065
49740SOL    HW155057   6.679   1.188   1.918 -0.3210  0.2438  0.4673
49740SOL    HW255058   6.607   1.097   2.015 -0.0432 -0.4951 -0.0082
49741SOL     OW55059   8.457   0.789   0.982  0.2141 -0.4288  0.2040
49741SOL    HW155060   8.524   0.810   1.047  0.1040 -0.6015  0.3754
49741SOL    HW255061   8.497   0.724   0.925  0.3909 -0.1086 -0.0445
49742SOL     OW55062  10.959   6.219   6.276 -0.6776  0.2107  0.0865
49742SOL    HW155063  10.940   6.141   6.328 -0.7460  0.2811  0.1681
49742SOL    HW255064  10.942   6.192   6.186  0.1197 -0.1166  0.0316
49743SOL     OW55065   3.737  11.671   3.509 -0.2355 -0.1996  0.2849
49743SOL    HW155066   3.694  11.648   3.427  1.2396 -0.7837 -0.3609
49743SOL    HW255067   3.796  11.743   3.486 -0.7452  0.5243  1.1297
49744SOL     OW55068   3.116  10.496   3.941 -0.4231  0.3767 -0.0873
49744SOL    HW155069   3.195  10.541   3.970 -0.5437 -0.1717  1.1713
49744SOL    HW255070   3.097  10.533   3.855  2.0277 -0.5070 -1.1143
49745SOL     OW55071   8.740   2.399   5.060 -0.4021 -0.1333 -0.4430
49745SOL    HW155072   8.832   2.405   5.085  0.2259 -2.1226 -1.9747
49745SOL    HW255073   8.727   2.469   4.996 -0.1783  0.6581  0.3727
49746SOL     OW55074   8.548   3.273   8.282  0.2423 -0.9292 -0.1353
49746SOL    HW155075   8.528   3.314   8.366  1.5816  2.4930 -1.3037
49746SOL    HW255076   8.624   3.218   8.299 -0.2295 -1.2267  1.1048
49747SOL     OW55077   9.076  10.252   7.416 -0.4521 -0.3097 -0.4190
49747SOL    HW155078   9.081  10.343   7.387 -0.1970  0.1342  0.9396
49747SOL    HW255079   9.002  10.250   7.477  1.3843 -0.2630  1.9455
49748SOL     OW55080   1.668   9.797  10.982 -0.2942  0.3580  0.0919
49748SOL    HW155081   1.594   9.831  10.932  0.2661 -0.0069 -1.0289
49748SOL    HW255082   1.641   9.709  11.008 -0.0833  0.0418 -0.7292
49749SOL     OW55083   2.707   4.898   4.074 -0.1286 -0.3639 -0.3262
49749SOL    HW155084   2.749   4.907   3.988  1.0831  1.9917  0.4115
49749SOL    HW255085   2.620   4.864   4.055  0.0642  0.2084 -2.4971
49750SOL     OW55086   9.935   2.936   3.703  0.0323 -0.2329  0.0790
49750SOL    HW155087   9.974   3.022   3.720 -0.7423  0.4721 -1.5406
49750SOL    HW255088  10.000   2.889   3.651  0.0931 -0.3243  0.2338
49751SOL     OW55089   3.330   5.046   1.565  0.2714  0.1617 -0.2227
49751SOL    HW155090   3.336   4.959   1.604  0.7450 -0.9250 -2.5267
49751SOL    HW255091   3.394   5.098   1.613  0.4938 -0.9639  0.7358
49752SOL     OW55092   6.025  10.966   6.826 -0.2486  0.2848 -0.3662
49752SOL    HW155093   5.996  11.027   6.894  1.5755  1.2090 -0.3640
49752SOL    HW255094   6.017  10.880   6.866 -0.4984  0.7065  0.5269
49753SOL     OW55095   5.526   0.590   5.571 -0.0194 -0.1011  0.3128
49753SOL    HW155096   5.585   0.601   5.496 -1.3587 -1.2928 -1.0003
49753SOL    HW255097   5.451   0.645   5.551  0.4967  1.2287  1.8585
49754SOL     OW55098   9.403   3.237   4.027 -0.5223  0.3904 -0.0034
49754SOL    HW155099   9.496   3.255   4.014 -0.7841  1.1597 -0.9273
49754SOL    HW255100   9.401   3.157   4.080  0.6671 -0.8919 -1.7494
49755SOL     OW55101   6.043  11.280   6.856  0.1247  0.1238  0.3705
49755SOL    HW155102   6.098  11.281   6.935  0.0481  1.2137  0.4285
49755SOL    HW255103   5.977  11.212   6.873  0.7171 -0.3561  0.8082
49756SOL     OW55104  12.217   9.129  11.154 -0.0779  0.3498  0.1253
49756SOL    HW155105  12.191   9.180  11.077  1.8294  0.0300 -0.7972
49756SOL    HW255106  12.142   9.134  11.213 -1.7764  0.2808 -1.9080
49757SOL     OW55107   4.598   1.675  10.863  0.0980  0.0425 -0.0235
49757SOL    HW155108   4.560   1.712  10.942 -0.3405  0.5094 -0.4430
49757SOL    HW255109   4.692   1.691  10.871  0.3442 -1.8166  1.3904
49758SOL     OW55110  10.599   8.579  11.235  0.0495 -0.1605  0.1319
49758SOL    HW155111  10.543   8.504  11.212 -2.1405  1.5593 -0.4770
49758SOL    HW255112  10.633   8.557  11.322 -1.9827 -1.0936  0.7561
49759SOL     OW55113   7.294   8.014   2.100  0.4201  0.3350  0.4777
49759SOL    HW155114   7.278   8.108   2.095 -2.4191 -0.1486 -2.4731
49759SOL    HW255115   7.365   7.998   2.038 -0.4414  0.3398 -0.5294
49760SOL     OW55116  10.057   4.003   8.416 -0.6272  0.0624 -0.4886
49760SOL    HW155117  10.147   4.034   8.416 -0.5807  0.2978 -3.4454
49760SOL    HW255118  10.063   3.910   8.438  0.0504  0.5115  1.3681
49761SOL     OW55119   0.416   2.314   8.629  0.0804  0.7519  0.5760
49761SOL    HW155120   0.491   2.326   8.687 -1.0870  0.5321  2.2135
49761SOL    HW255121   0.400   2.400   8.591  0.5941  1.0079  0.9339
49762SOL     OW55122   0.638   6.638   4.792  0.2648  0.2561 -0.1828
49762SOL    HW155123   0.705   6.619   4.726  0.1537 -2.1007  0.3206
49762SOL    HW255124   0.667   6.721   4.831  2.8760 -0.6402 -0.0351
49763SOL     OW55125  11.823   2.290  11.703  0.2471 -0.1693  0.0308
49763SOL    HW155126  11.742   2.252  11.738 -0.9359  1.3589 -0.8809
49763SOL    HW255127  11.855   2.347  11.773 -0.0502  0.0291  0.0064
49764SOL     OW55128   6.203   5.252   8.633 -0.3517 -0.2416  0.2822
49764SOL    HW155129   6.275   5.236   8.572  0.2018 -0.1196  0.9001
49764SOL    HW255130   6.158   5.168   8.639 -0.2511 -0.3250 -0.0891
49765SOL     OW55131   4.609   7.760   8.896  0.0045  0.8796  0.1868
49765SOL    HW155132   4.551   7.779   8.822  0.0370 -0.7216 -0.2889
49765SOL    HW255133   4.554   7.711   8.957  0.6813 -0.1009  0.0177
49766SOL     OW55134   6.129   6.211   2.763 -0.1338 -0.2756 -0.3168
49766SOL    HW155135   6.146   6.291   2.812  1.7112 -0.5673 -0.3972
49766SOL    HW255136   6.123   6.239   2.671 -2.0131  0.0661 -0.1161
49767SOL     OW55137   9.817   8.729  11.137 -0.5685  0.4771  0.2306
49767SOL    HW155138   9.771   8.807  11.166 -0.9018  0.4666 -0.2538
49767SOL    HW255139   9.794   8.720  11.044 -0.5552 -0.2101  0.2845
49768SOL     OW55140   6.194   8.693   5.995 -0.3283 -0.3133  0.4505
49768SOL    HW155141   6.283   8.715   5.965 -0.2004 -0.3776  0.7849
49768SOL    HW255142   6.192   8.597   5.993 -0.0492 -0.3533  1.4135
49769SOL     OW55143   4.423   4.252   8.711 -0.2118 -0.4828 -0.5525
49769SOL    HW155144   4.466   4.178   8.668 -0.7020 -1.5631  0.7290
49769SOL    HW255145   4.339   4.261   8.666 -0.9494 -1.9450  0.4387
49770SOL     OW55146   5.992   2.313   3.929  0.2134 -0.0234  0.3559
49770SOL    HW155147   5.998   2.319   3.833  0.4689  4.8577  0.4507
49770SOL    HW255148   6.079   2.286   3.957 -0.1868 -2.7347 -0.6961
49771SOL     OW55149  10.007   2.791   8.516 -0.0625  0.0452  0.3264
49771SOL    HW155150  10.095   2.761   8.539  0.3588  0.3881 -0.7330
49771SOL    HW255151  10.003   2.881   8.549  0.1786  0.1984 -0.0460
49772SOL     OW55152   4.873   6.745   3.907 -0.2616 -0.1253  0.2982
49772SOL    HW155153   4.780   6.750   3.887 -0.4516 -0.6930  1.0122
49772SOL    HW255154   4.894   6.831   3.945 -0.6301 -0.2057  0.6865
49773SOL     OW55155   8.932   5.961   4.974 -0.3685  0.0497  0.8034
49773SOL    HW155156   8.923   5.874   4.934 -2.7921  0.7590 -0.3661
49773SOL    HW255157   8.924   5.945   5.068 -0.3999 -1.0271  0.6330
49774SOL     OW55158  11.906   3.135   4.642 -0.2296 -0.1032  0.2482
49774SOL    HW155159  11.984   3.131   4.587 -1.9722 -1.1132 -2.3206
49774SOL    HW255160  11.895   3.046   4.675 -0.5548 -0.0822  0.2034
49775SOL     OW55161   5.015   5.960   5.712  0.6976 -0.2800 -0.2955
49775SOL    HW155162   5.012   5.865   5.700 -0.6730 -0.1597 -1.0539
49775SOL    HW255163   4.930   5.982   5.749  1.2995  0.5750  0.6271
49776SOL     OW55164   1.745  10.695  12.059 -0.1995  0.2982 -0.1165
49776SOL    HW155165   1.708  10.615  12.022 -0.4759  0.3112  0.1350
49776SOL    HW255166   1.736  10.685  12.153  0.2312  0.4008 -0.0581
49777SOL     OW55167   5.609   0.081  10.594 -0.4273 -0.2683  0.2159
49777SOL    HW155168   5.605   0.042  10.682 -1.4166  0.3552  0.4654
49777SOL    HW255169   5.636   0.171  10.610  1.0304 -0.5916 -0.2839
49778SOL     OW55170   3.574   7.507  10.667 -0.0215 -0.3295  0.0665
49778SOL    HW155171   3.622   7.441  10.716  3.5168  0.8923 -1.3553
49778SOL    HW255172   3.554   7.575  10.731  0.6787 -0.6333  0.6172
49779SOL     OW55173   5.080   7.459   0.689  0.1093  0.1924 -0.0597
49779SOL    HW155174   5.051   7.369   0.706  0.0358 -0.0630 -1.3803
49779SOL    HW255175   5.156   7.471   0.746 -0.0457 -0.6140  0.3341
49780SOL     OW55176  11.431   9.366   2.256 -0.0260  0.2494 -0.6711
49780SOL    HW155177  11.348   9.383   2.212  0.4766  1.0455 -1.3216
49780SOL    HW255178  11.486   9.441   2.235  0.9971 -0.4526 -0.5751
49781SOL     OW55179   0.895  10.855   9.383 -0.0286 -0.1171 -0.7607
49781SOL    HW155180   0.840  10.926   9.350  0.3975  1.1217  0.9988
49781SOL    HW255181   0.833  10.790   9.416 -0.4630  0.5720 -0.1816
49782SOL     OW55182  10.457  10.713  10.496 -0.6352 -0.0263 -0.4755
49782SOL    HW155183  10.416  10.673  10.419  0.2108 -0.7414 -0.5739
49782SOL    HW255184  10.492  10.638  10.545 -0.1711  0.5109  0.0167
49783SOL     OW55185   7.783   9.798  11.969  0.0397  0.9231  0.3495
49783SOL    HW155186   7.708   9.814  12.025 -1.8053 -2.1401 -1.0219
49783SOL    HW255187   7.747   9.797  11.880  2.0024  0.8187 -0.4990
49784SOL     OW55188   1.025   4.287   1.899 -0.1003 -0.4053 -0.2256
49784SOL    HW155189   1.109   4.282   1.854  0.5612 -0.2441  0.9426
49784SOL    HW255190   1.035   4.359   1.961 -1.0372 -0.4891  0.0387
49785SOL     OW55191   0.876   9.567   0.172  0.4490 -0.8140  0.0649
49785SOL    HW155192   0.931   9.615   0.234 -0.9555 -2.7257  3.0211
49785SOL    HW255193   0.823   9.634   0.130  1.6073  0.5948  0.7744
49786SOL     OW55194   8.959   6.181   3.056  0.2150  0.8018  0.2192
49786SOL    HW155195   8.916   6.171   3.141 -2.1990  0.8123 -0.9218
49786SOL    HW255196   9.020   6.254   3.068 -1.7176  2.3055  1.3821
49787SOL     OW55197  11.919   8.068   2.137  0.2355 -0.4224 -0.1389
49787SOL    HW155198  11.945   8.130   2.069  1.3125 -2.3127 -1.5418
49787SOL    HW255199  11.835   8.033   2.107  0.4051 -0.8056 -0.1636
49788SOL     OW55200   6.419   3.619  11.195  0.2358  0.7597  0.3088
49788SOL    HW155201   6.507   3.581  11.205 -0.3683 -0.9153 -0.2979
49788SOL    HW255202   6.365   3.546  11.165 -0.8570  2.3133 -1.7453
49789SOL     OW55203  12.139   3.302   7.275 -0.0690  0.1326 -0.1486
49789SOL    HW155204  12.103   3.279   7.361 -2.1811 -1.2798 -1.3166
49789SOL    HW255205  12.145   3.397   7.276 -0.7389  0.1858  1.2970
49790SOL     OW55206   5.704   1.856   6.003 -0.0212 -0.1776 -0.1136
49790SOL    HW155207   5.761   1.923   6.041  2.1815 -1.1050 -1.5734
49790SOL    HW255208   5.662   1.815   6.079  0.9040  0.8471  0.9986
49791SOL     OW55209  11.645   8.240   7.402  0.5614  0.1992 -0.3657
49791SOL    HW155210  11.736   8.232   7.431 -0.0664 -1.1857  1.4901
49791SOL    HW255211  11.638   8.180   7.328  1.3758  1.1226 -1.2262
49792SOL     OW55212   9.063  10.946   4.090  0.3474 -0.0630 -0.2429
49792SOL    HW155213   9.093  11.010   4.155 -0.5192 -0.7843  0.9146
49792SOL    HW255214   9.027  10.999   4.019  0.5281  0.7481  0.2544
49793SOL     OW55215   8.069   3.984   2.755  0.1870  0.2429  0.1309
49793SOL    HW155216   8.095   4.015   2.842  2.4616  0.8426 -0.7076
49793SOL    HW255217   8.146   3.939   2.721 -0.7409 -0.1836 -1.5032
49794SOL     OW55218   3.548   3.708  11.702  0.3073 -0.1842 -0.2702
49794SOL    HW155219   3.640   3.705  11.727  0.7319  0.6953 -1.6302
49794SOL    HW255220   3.532   3.801  11.682 -1.1484 -0.1438  0.8797
49795SOL     OW55221   1.042  11.702   9.124  0.1888 -0.7444 -0.1721
49795SOL    HW155222   0.961  11.750   9.109  0.8037  0.0339 -1.1121
49795SOL    HW255223   1.038  11.628   9.064  0.4421 -0.3599 -0.6704
49796SOL     OW55224   1.262  11.082   4.416  0.0267  0.5216 -0.1424
49796SOL    HW155225   1.284  11.006   4.362  0.1304 -0.0734  0.7042
49796SOL    HW255226   1.229  11.147   4.355  1.0170  0.2131 -1.0276
49797SOL     OW55227   8.406   1.224  12.087  0.1192  0.0356  0.4405
49797SOL    HW155228   8.357   1.217  12.169  1.6579 -1.5265  1.3070
49797SOL    HW255229   8.479   1.162  12.098  1.6733  1.4813 -1.1899
49798SOL     OW55230   3.727   7.010   9.346  0.5250 -0.1111  0.3097
49798SOL    HW155231   3.705   7.036   9.257 -1.8809 -1.7685  0.3226
49798SOL    HW255232   3.797   6.946   9.337 -0.4070 -1.0448 -0.5211
49799SOL     OW55233   7.439   2.375   9.036 -0.6395  0.2450  0.5125
49799SOL    HW155234   7.527   2.341   9.050 -1.0980 -0.3907  2.0676
49799SOL    HW255235   7.396   2.309   8.982 -0.3266  0.2958  0.1999
49800SOL     OW55236   6.605   5.838   4.710 -0.4668  0.1461  0.2136
49800SOL    HW155237   6.674   5.880   4.762 -1.3879  1.6331  0.2854
49800SOL    HW255238   6.621   5.869   4.620 -0.6864  0.0082  0.1267
49801SOL     OW55239   8.353   9.939   0.963 -0.2578 -0.3614  0.2159
49801SOL    HW155240   8.434   9.907   1.003 -0.6849 -1.1327  0.4866
49801SOL    HW255241   8.348   9.892   0.879 -1.2198 -1.5594  0.9033
49802SOL     OW55242  11.123   5.749   1.506  0.2017  0.2148  0.3693
49802SOL    HW155243  11.033   5.721   1.521 -0.5192  1.0227 -2.0157
49802SOL    HW255244  11.154   5.694   1.434  1.5407  0.1520  0.9574
49803SOL     OW55245   7.202   8.258   9.916 -0.2496  0.3781  1.0579
49803SOL    HW155246   7.129   8.203   9.887 -0.4680  1.3926 -0.4509
49803SOL    HW255247   7.201   8.332   9.855  0.7475  1.4691  2.3127
49804SOL     OW55248   3.720   3.508   8.804  0.3852  0.2666 -0.3513
49804SOL    HW155249   3.685   3.488   8.717 -0.1917  1.0814 -0.3265
49804SOL    HW255250   3.662   3.577   8.837 -0.2464 -0.9635  1.2495
49805SOL     OW55251   0.851  12.054   8.768 -0.7009 -0.0845 -0.1260
49805SOL    HW155252   0.908  12.124   8.798 -0.4913  0.2240 -1.1814
49805SOL    HW255253   0.789  12.041   8.839  0.3328 -0.0383  0.7998
49806SOL     OW55254   8.416   8.831   2.951  0.2995  0.3113 -0.0535
49806SOL    HW155255   8.461   8.813   3.034 -0.4170 -0.0850  0.2571
49806SOL    HW255256   8.479   8.881   2.900  0.3143  1.6282  1.2041
49807SOL     OW55257   7.379  11.632   3.521  0.3819  0.5979 -0.3396
49807SOL    HW155258   7.385  11.581   3.602  1.3925  1.0012 -0.1493
49807SOL    HW255259   7.468  11.632   3.486 -0.3316 -0.9657 -2.3290
49808SOL     OW55260   7.643   7.341  11.669  0.5916  0.2619  0.0511
49808SOL    HW155261   7.666   7.248  11.667 -0.8900 -0.1310 -1.6196
49808SOL    HW255262   7.646   7.368  11.577 -1.9310  1.0658  0.1477
49809SOL     OW55263   3.688   6.308   2.903 -0.8852 -0.1417 -0.4527
49809SOL    HW155264   3.609   6.288   2.952 -0.9445 -1.4746 -1.0470
49809SOL    HW255265   3.748   6.235   2.923  0.1027  0.7191 -0.1994
49810SOL     OW55266   0.450   5.887   0.818 -0.2979 -0.2147 -0.0886
49810SOL    HW155267   0.506   5.816   0.789 -0.7185 -0.0591 -1.3399
49810SOL    HW255268   0.370   5.877   0.766 -1.5041 -0.5004  1.7161
49811SOL     OW55269   1.562   6.442   5.828  0.2704  0.1323  0.3542
49811SOL    HW155270   1.544   6.409   5.915  2.3940  0.1641  0.8618
49811SOL    HW255271   1.657   6.455   5.826  0.8178 -2.8846 -2.9993
49812SOL     OW55272   3.362   5.530   2.957 -0.3746 -0.7818  0.0040
49812SOL    HW155273   3.348   5.494   2.869  0.7927  0.3548 -0.6690
49812SOL    HW255274   3.346   5.624   2.947  0.6197 -0.5165  0.7993
49813SOL     OW55275   4.150   1.972  11.344  0.0403 -0.4453 -0.1435
49813SOL    HW155276   4.105   1.962  11.427 -0.0298 -0.3333 -0.1692
49813SOL    HW255277   4.084   2.006  11.284  0.0429 -0.6943 -0.2916
49814SOL     OW55278   5.819  11.200   1.413 -0.0225 -0.4442 -0.5571
49814SOL    HW155279   5.856  11.129   1.465  1.1347  0.3627 -0.2300
49814SOL    HW255280   5.737  11.165   1.378  0.2632 -1.7406  0.0303
49815SOL     OW55281   1.479  10.553   5.430 -0.5013 -0.0356  0.5699
49815SOL    HW155282   1.466  10.519   5.341 -1.6322 -0.6874  0.9674
49815SOL    HW255283   1.505  10.644   5.416 -0.9938 -0.0280 -0.4370
49816SOL     OW55284   0.415   4.913  10.298  0.5637  0.0412 -0.0809
49816SOL    HW155285   0.414   4.979  10.228 -0.4056 -0.4455 -0.5463
49816SOL    HW255286   0.345   4.852  10.274  0.3103 -0.2101  1.2523
49817SOL     OW55287   4.967   6.425  10.401  0.0927  0.4343 -0.4193
49817SOL    HW155288   5.058   6.426  10.371 -0.4842  0.3795 -2.3192
49817SOL    HW255289   4.924   6.493  10.349 -1.0361  0.1497  0.1175
49818SOL     OW55290   7.043  11.965   9.855 -0.6063 -0.2520 -0.1900
49818SOL    HW155291   7.044  11.993   9.946  0.9569 -0.0058 -0.2605
49818SOL    HW255292   6.950  11.968   9.830 -1.0779 -0.4327  1.4041
49819SOL     OW55293   9.021   6.026   6.464 -0.2106 -0.4745 -0.7064
49819SOL    HW155294   9.013   5.946   6.516  0.2937  0.1209  0.3215
49819SOL    HW255295   8.960   6.013   6.391 -1.4337 -1.0776  0.3734
49820SOL     OW55296  11.880  10.164   8.574 -0.5942 -0.0197 -0.4021
49820SOL    HW155297  11.923  10.219   8.507 -1.1466 -0.5023 -1.1626
49820SOL    HW255298  11.951  10.139   8.633 -0.3231  1.5012 -0.0400
49821SOL     OW55299   3.695   8.105   8.485  0.0818 -0.0195  0.1697
49821SOL    HW155300   3.656   8.189   8.461 -0.0458  0.1246  0.8470
49821SOL    HW255301   3.641   8.075   8.558 -1.6395 -2.0337 -1.7932
49822SOL     OW55302   0.483  11.877   2.739  0.2162 -0.5616 -0.1600
49822SOL    HW155303   0.551  11.942   2.719  0.7041 -0.7542  0.8199
49822SOL    HW255304   0.512  11.797   2.696  0.4741 -0.5731  0.0363
49823SOL     OW55305   2.482   7.605   4.941  0.0056 -0.2040 -0.2359
49823SOL    HW155306   2.512   7.571   4.857 -3.6922  0.3248 -1.9575
49823SOL    HW255307   2.466   7.526   4.994  0.8994 -0.6153 -0.5688
49824SOL     OW55308   8.141   7.777   2.300 -0.6573 -0.1418  0.0859
49824SOL    HW155309   8.094   7.732   2.370 -0.7684  0.8683  0.6719
49824SOL    HW255310   8.080   7.778   2.227 -0.5034 -1.2902 -0.0788
49825SOL     OW55311   6.707   5.332   4.624 -0.0632  0.0447  0.6060
49825SOL    HW155312   6.744   5.362   4.707 -0.3420  0.1760  0.6858
49825SOL    HW255313   6.783   5.312   4.569  0.1217 -0.6131  1.0978
49826SOL     OW55314   6.742   6.672   1.246 -0.0810  0.0466  0.2019
49826SOL    HW155315   6.819   6.708   1.204 -0.0757 -0.0858  0.0951
49826SOL    HW255316   6.769   6.653   1.335  0.0122 -0.0053  0.1628
49827SOL     OW55317   1.274   5.457  11.618 -0.0508  0.2827 -0.7152
49827SOL    HW155318   1.198   5.503  11.654  0.5837  0.3397  0.6404
49827SOL    HW255319   1.292   5.387  11.681  0.6549 -0.1060 -1.3239
49828SOL     OW55320   5.798   2.221   1.762 -0.4357 -0.3026 -0.2114
49828SOL    HW155321   5.750   2.155   1.713 -0.0928  0.3832 -1.5144
49828SOL    HW255322   5.875   2.240   1.708  0.4025 -0.1277  1.0044
49829SOL     OW55323   8.796   3.053   8.375 -0.1297 -0.2885 -0.0183
49829SOL    HW155324   8.831   3.114   8.311 -0.7636  1.2677  1.0723
49829SOL    HW255325   8.873   3.019   8.421  0.3623 -1.7130 -1.7871
49830SOL     OW55326  10.351   8.451   0.855  0.4293  0.2927 -0.3285
49830SOL    HW155327  10.315   8.376   0.902  0.3443  1.4879  1.6143
49830SOL    HW255328  10.328   8.526   0.909  0.4279  1.7440 -2.2717
49831SOL     OW55329   8.580   2.486   9.380 -0.2669  0.5693 -0.2306
49831SOL    HW155330   8.591   2.396   9.352 -2.5243  0.5711 -1.3426
49831SOL    HW255331   8.653   2.502   9.440  1.4907 -1.2352 -1.7794
49832SOL     OW55332   0.047  11.301  11.249  0.1177  0.5601  0.0071
49832SOL    HW155333   0.126  11.261  11.285  0.5510  0.8969 -0.5465
49832SOL    HW255334  -0.007  11.228  11.221  0.1863  0.3230  0.4813
49833SOL     OW55335  11.593   3.824   9.818  0.2202  0.0107  0.4315
49833SOL    HW155336  11.556   3.904   9.780  2.2811  0.2003 -1.3497
49833SOL    HW255337  11.643   3.854   9.894  3.7686  1.0519 -2.0807
49834SOL     OW55338   3.429   1.399   9.899 -0.3903 -0.2481  0.2031
49834SOL    HW155339   3.448   1.467   9.963  0.1189  2.4507 -2.5746
49834SOL    HW255340   3.343   1.366   9.923 -1.3544  2.5138  0.8185
49835SOL     OW55341  12.255  11.150   0.133  0.2646  0.0762  0.1639
49835SOL    HW155342  12.269  11.179   0.223 -1.4295  0.2059  0.4175
49835SOL    HW255343  12.191  11.079   0.140  0.0504  0.1390 -0.9510
49836SOL     OW55344   3.380   6.501   0.437 -0.3951  0.0285 -0.3895
49836SOL    HW155345   3.341   6.570   0.491  0.4114 -0.7830  1.3364
49836SOL    HW255346   3.414   6.546   0.360 -1.8375  1.2105 -0.3737
49837SOL     OW55347   0.623   8.125   9.044 -0.0286  0.0642 -0.8408
49837SOL    HW155348   0.670   8.059   8.993 -0.0995  0.0848 -0.9326
49837SOL    HW255349   0.546   8.080   9.076  0.7216 -0.3630  0.4388
49838SOL     OW55350   2.496   7.850  10.178 -0.3120  0.1449  0.0966
49838SOL    HW155351   2.543   7.770  10.153 -1.1446  0.0430 -1.2067
49838SOL    HW255352   2.555   7.894  10.239 -0.0898 -1.7617  1.3546
49839SOL     OW55353   6.916   9.515   0.270 -0.5183 -0.2313 -0.1316
49839SOL    HW155354   6.971   9.535   0.194 -0.2690 -0.6760 -0.0708
49839SOL    HW255355   6.843   9.465   0.234  0.1923 -1.4517  0.0710
49840SOL     OW55356   2.161   8.756   6.774  0.6832  0.1671 -0.3353
49840SOL    HW155357   2.077   8.783   6.812  0.8376  0.5680 -0.2824
49840SOL    HW255358   2.221   8.753   6.849  0.5904 -0.6536 -0.2782
49841SOL     OW55359   0.576   5.958   8.219  0.0039 -0.0301  0.4457
49841SOL    HW155360   0.553   5.962   8.126  0.5868 -0.6289  0.2678
49841SOL    HW255361   0.614   6.044   8.237 -0.1483  0.1045  0.1426
49842SOL     OW55362   2.159  11.387   6.727  0.2286  0.2715 -0.1877
49842SOL    HW155363   2.111  11.358   6.650  0.6878 -0.5151 -0.1888
49842SOL    HW255364   2.097  11.375   6.799  0.3680 -0.5921 -0.2095
49843SOL     OW55365   4.330   1.861   4.286  0.4091  0.2838 -0.1455
49843SOL    HW155366   4.238   1.835   4.282 -0.4704  2.2633  3.1581
49843SOL    HW255367   4.358   1.834   4.374  2.8599  0.1906 -0.8861
49844SOL     OW55368  10.562   1.537   0.144 -0.0839 -0.4658  0.2542
49844SOL    HW155369  10.484   1.491   0.175  0.0506 -0.9947 -0.1778
49844SOL    HW255370  10.634   1.475   0.159  0.0201 -0.6459 -0.8829
49845SOL     OW55371   1.134   9.650   8.747  0.3015  0.0454 -0.2920
49845SOL    HW155372   1.198   9.672   8.679  0.0957  0.1440 -0.4529
49845SOL    HW255373   1.063   9.713   8.735 -1.0569 -1.6806 -1.7954
49846SOL     OW55374  12.286  10.101   2.184 -0.3865 -0.2758  0.3557
49846SOL    HW155375  12.335  10.056   2.253 -0.0538 -0.6450 -0.1152
49846SOL    HW255376  12.205  10.049   2.177 -0.4191 -0.2398  0.4603
49847SOL     OW55377  11.535   0.345  11.826 -0.1409  0.2041 -0.0027
49847SOL    HW155378  11.460   0.390  11.866  2.5010  1.9361  3.6615
49847SOL    HW255379  11.551   0.270  11.883  2.7825  1.7921  1.4927
49848SOL     OW55380   2.528   5.287   1.906 -0.6760  0.0880  0.2774
49848SOL    HW155381   2.464   5.344   1.949  0.4658  0.3488  1.7197
49848SOL    HW255382   2.598   5.347   1.878 -0.8980 -0.2301 -1.0166
49849SOL     OW55383  10.706   2.670   1.655  0.9785  0.1128 -0.4443
49849SOL    HW155384  10.618   2.631   1.659  1.6726 -1.4248  2.0910
49849SOL    HW255385  10.693   2.761   1.683  0.0520  0.2205 -1.1928
49850SOL     OW55386  11.064   1.243   0.634 -0.0848  0.3341  0.0231
49850SOL    HW155387  11.019   1.241   0.719 -0.1124  0.6209  0.0178
49850SOL    HW255388  10.995   1.266   0.572 -0.6737 -2.4744 -0.4904
49851SOL     OW55389   3.207   5.737   1.915 -0.8302  0.2219  0.2276
49851SOL    HW155390   3.280   5.679   1.936  0.4576  1.7893  0.2351
49851SOL    HW255391   3.187   5.718   1.823 -0.7837 -0.5870  0.3769
49852SOL     OW55392   8.777   8.380  11.438 -0.3008  0.4191 -0.0219
49852SOL    HW155393   8.757   8.287  11.427 -1.3094  0.7307 -0.9908
49852SOL    HW255394   8.693   8.424  11.424 -0.7143  1.2931  3.8859
49853SOL     OW55395  10.008  11.517   3.562 -0.1154 -0.3129 -0.3668
49853SOL    HW155396   9.916  11.501   3.583 -0.4431 -0.8942 -2.0522
49853SOL    HW255397  10.022  11.609   3.584 -1.1859 -0.1402 -0.3598
49854SOL     OW55398   9.104   2.630   4.959 -0.0288  0.0030 -0.5949
49854SOL    HW155399   9.167   2.655   4.892  1.7801 -0.0268  0.9951
49854SOL    HW255400   9.025   2.680   4.938  0.6482  0.3639 -2.4271
49855SOL     OW55401  11.257   2.748   4.933  0.4131 -0.2669  0.1823
49855SOL    HW155402  11.323   2.733   4.866  1.8187  1.1985  1.1591
49855SOL    HW255403  11.186   2.793   4.887  1.0346  0.0587 -0.4707
49856SOL     OW55404  10.316   0.193   8.240  0.1144 -0.4587 -0.3525
49856SOL    HW155405  10.275   0.131   8.180  0.4519  0.1239 -1.2079
49856SOL    HW255406  10.265   0.273   8.231  1.5381  0.3617 -1.6350
49857SOL     OW55407   8.393   5.270   7.350  0.5158 -0.2864 -0.0478
49857SOL    HW155408   8.386   5.336   7.281  0.2610  0.6813  0.8709
49857SOL    HW255409   8.425   5.319   7.426  0.5415 -1.2735  0.5864
49858SOL     OW55410  11.113  12.159   4.539  0.1402  0.6658 -0.1641
49858SOL    HW155411  11.206  12.182   4.551  0.3217 -0.7510  1.5992
49858SOL    HW255412  11.101  12.080   4.592 -2.1154  0.8887 -0.2505
49859SOL     OW55413   3.752   0.561   5.113 -0.0011  0.1320 -0.7864
49859SOL    HW155414   3.778   0.652   5.129  0.2001  0.2245 -1.6025
49859SOL    HW255415   3.805   0.534   5.038 -1.1571 -0.1704 -1.5167
49860SOL     OW55416   9.767   6.152   2.266 -0.1882  0.2534  0.1256
49860SOL    HW155417   9.783   6.106   2.183 -1.7060  0.8357 -0.5270
49860SOL    HW255418   9.836   6.218   2.270  0.1788 -0.0850 -0.4563
49861SOL     OW55419   7.024  10.258   3.536  0.7394  0.3216 -0.0422
49861SOL    HW155420   7.074  10.273   3.617 -0.2445  1.2888  0.4093
49861SOL    HW255421   6.966  10.185   3.558  1.5731 -0.4828 -0.4145
49862SOL     OW55422  10.424  11.031  10.271  0.4988 -0.1610  0.0337
49862SOL    HW155423  10.385  10.995  10.350 -2.6745 -1.5730 -1.9287
49862SOL    HW255424  10.426  10.957  10.210  0.8488  1.3036 -1.8190
49863SOL     OW55425  11.151  10.965   3.257 -0.2102  0.3932  0.3356
49863SOL    HW155426  11.091  10.905   3.212 -0.0564  1.1614 -0.9093
49863SOL    HW255427  11.123  11.052   3.230  0.8404  0.8062  0.5484
49864SOL     OW55428   0.978   5.322   8.284 -0.2923  0.1691 -0.2824
49864SOL    HW155429   0.927   5.254   8.240 -0.7653 -0.3323  0.9966
49864SOL    HW255430   0.912   5.381   8.321  0.1149  1.3372 -1.3603
49865SOL     OW55431  10.791   3.661   2.731  0.1331 -0.5059 -0.1488
49865SOL    HW155432  10.773   3.683   2.823  1.2312 -2.4320  0.5989
49865SOL    HW255433  10.885   3.642   2.729  0.0068 -1.1100 -1.5258
49866SOL     OW55434   1.873   0.574   6.593 -0.2647  0.0415  0.2674
49866SOL    HW155435   1.858   0.527   6.675 -0.4723  0.2232  0.3354
49866SOL    HW255436   1.880   0.666   6.619 -1.4634  0.2358 -0.0477
49867SOL     OW55437   8.216   5.965   0.258  0.2246 -0.2317  0.1141
49867SOL    HW155438   8.133   6.003   0.286 -0.4723  0.4936 -2.6066
49867SOL    HW255439   8.208   5.872   0.278 -1.2182 -0.1501  0.0305
49868SOL     OW55440   2.639  10.035   9.545 -0.7005  0.3589 -0.4441
49868SOL    HW155441   2.651  10.025   9.639  1.4444  0.9367 -0.6012
49868SOL    HW255442   2.573   9.969   9.521 -0.0283 -0.9544  1.1914
49869SOL     OW55443   8.684   1.177   9.183  0.1743  0.0530 -0.6368
49869SOL    HW155444   8.753   1.241   9.167 -0.9282  1.0552 -1.6168
49869SOL    HW255445   8.705   1.139   9.269  1.4043  1.0014 -0.4953
49870SOL     OW55446   5.703   5.736   3.301 -0.5404  0.7157 -0.1029
49870SOL    HW155447   5.674   5.816   3.344  1.3329  2.2019 -1.4214
49870SOL    HW255448   5.769   5.700   3.360 -0.7538  0.5950  0.0677
49871SOL     OW55449   3.578   5.526   8.790  0.4461 -0.2561 -0.6432
49871SOL    HW155450   3.496   5.548   8.746  0.6154 -2.0335 -1.9819
49871SOL    HW255451   3.645   5.574   8.741  0.6333 -2.2181 -2.4812
49872SOL     OW55452   3.685   0.999  10.791 -0.3143 -0.3176  0.4130
49872SOL    HW155453   3.640   0.927  10.835 -0.2661 -0.2534  0.5697
49872SOL    HW255454   3.657   1.077  10.839 -0.6859 -0.1855 -0.0144
49873SOL     OW55455   7.348   2.665   3.251 -0.0451 -0.1490  0.7020
49873SOL    HW155456   7.265   2.655   3.297 -0.9121  0.4414 -0.6679
49873SOL    HW255457   7.404   2.713   3.312 -1.2429  0.8447  1.0667
49874SOL     OW55458   4.403   0.189   4.657  0.3192 -0.4523  0.2012
49874SOL    HW155459   4.315   0.151   4.662  0.6666 -1.0714  2.3257
49874SOL    HW255460   4.391   0.268   4.603 -2.3430  1.5158  3.3120
49875SOL     OW55461   7.838   9.573   2.743  0.3700 -0.1497  0.0775
49875SOL    HW155462   7.861   9.493   2.791 -0.6817 -0.9099 -0.6656
49875SOL    HW255463   7.922   9.619   2.733  0.5905  0.3115  3.0576
49876SOL     OW55464   5.150   3.626   0.787  0.7781 -0.3517  0.0925
49876SOL    HW155465   5.157   3.530   0.793  2.4241 -0.2119  0.9183
49876SOL    HW255466   5.156   3.656   0.877  1.2782  0.5764 -0.2408
49877SOL     OW55467   1.327   6.996   3.246  0.0894 -0.2112 -0.0403
49877SOL    HW155468   1.267   6.939   3.295 -0.0459  1.2229  1.5742
49877SOL    HW255469   1.380   6.936   3.195 -0.2192 -1.7910  1.3884
49878SOL     OW55470   9.396   8.931   1.476 -0.1072 -0.2859  0.5164
49878SOL    HW155471   9.302   8.915   1.466  0.3958 -3.3765 -0.1743
49878SOL    HW255472   9.417   8.992   1.405 -1.2460 -1.2558 -0.7185
49879SOL     OW55473   7.494   1.980   6.936 -0.4004 -0.0199  0.0902
49879SOL    HW155474   7.515   2.017   6.850 -0.3390  2.7389  1.2020
49879SOL    HW255475   7.580   1.965   6.976 -0.4361 -0.8644 -0.1427
49880SOL     OW55476  11.372   6.246   5.142  0.1531 -0.0590 -0.0969
49880SOL    HW155477  11.330   6.163   5.120 -0.2805 -0.4387  1.9630
49880SOL    HW255478  11.459   6.222   5.173  0.1404  0.2783  0.2116
49881SOL     OW55479   8.578   3.995   2.784 -0.3832 -0.1287  0.1595
49881SOL    HW155480   8.672   3.985   2.800 -0.5798 -1.0135  0.8783
49881SOL    HW255481   8.558   4.084   2.813  0.0191 -0.3579  1.1959
49882SOL     OW55482   7.050   8.675   2.571  0.6935 -0.5059  0.3768
49882SOL    HW155483   7.003   8.743   2.619 -2.2959 -0.9054 -1.7194
49882SOL    HW255484   7.001   8.595   2.588  1.5868 -1.2948 -0.6121
49883SOL     OW55485   1.407   9.431   4.815 -0.5805  0.0263 -0.8064
49883SOL    HW155486   1.496   9.400   4.796 -0.8039 -1.0079 -0.2435
49883SOL    HW255487   1.421   9.512   4.866  0.0446 -0.2460 -0.5270
49884SOL     OW55488   7.576   9.652   3.537  0.2361 -0.0041 -0.1851
49884SOL    HW155489   7.632   9.579   3.512  0.2481 -0.0905  0.0943
49884SOL    HW255490   7.487   9.617   3.534  0.2398 -0.0226 -0.0731
49885SOL     OW55491  11.514   6.224   3.726 -0.4692 -0.0646 -0.1671
49885SOL    HW155492  11.478   6.263   3.806 -0.3180  0.2779 -0.2617
49885SOL    HW255493  11.572   6.155   3.758  1.5093  1.6378  0.1640
49886SOL     OW55494  11.378   7.659   2.483  0.2662  0.3515 -0.3853
49886SOL    HW155495  11.412   7.686   2.397 -1.9291  0.4320 -1.3016
49886SOL    HW255496  11.322   7.584   2.463 -2.7342  2.2002  0.4604
49887SOL     OW55497   3.330   1.843   7.079 -0.2161  0.0758 -0.4567
49887SOL    HW155498   3.424   1.827   7.086 -0.6165 -2.3316  0.3836
49887SOL    HW255499   3.303   1.866   7.167 -0.1990  2.5495 -1.0336
49888SOL     OW55500   0.336   5.520   6.469  0.9458 -0.0891 -0.2925
49888SOL    HW155501   0.326   5.575   6.547 -0.8377  0.8348 -1.1011
49888SOL    HW255502   0.374   5.578   6.403 -0.0130 -0.0899 -0.8610
49889SOL     OW55503   0.491   4.054   0.357  0.4115 -0.5367 -1.0158
49889SOL    HW155504   0.475   4.139   0.317  2.8165 -0.9283 -3.0702
49889SOL    HW255505   0.545   4.074   0.434 -2.0330 -0.0152  0.7022
49890SOL     OW55506   6.105   6.095   6.133  0.6968 -0.8567  0.4687
49890SOL    HW155507   6.194   6.130   6.144 -0.0783  0.6904  2.3276
49890SOL    HW255508   6.101   6.021   6.194  0.9654 -1.5432 -0.3161
49891SOL     OW55509   4.652   5.801  10.635 -0.0750  0.0504 -0.4576
49891SOL    HW155510   4.574   5.774  10.683 -1.0214 -0.2832 -2.1017
49891SOL    HW255511   4.665   5.733  10.569  2.7387 -0.9069  0.8979
49892SOL     OW55512  10.503  11.525   7.414  0.1446  0.1106 -0.3218
49892SOL    HW155513  10.461  11.611   7.409  1.2363  0.6851  0.0467
49892SOL    HW255514  10.444  11.472   7.466 -0.1435  0.8912  0.1576
49893SOL     OW55515   9.909   8.943   9.781 -0.0581  0.4035 -0.2338
49893SOL    HW155516   9.864   8.859   9.796 -0.5869  1.0124  1.9235
49893SOL    HW255517   9.983   8.920   9.724 -0.0190 -1.5957  0.5332
49894SOL     OW55518   3.633   3.376   5.192 -0.0719  0.3053 -0.2049
49894SOL    HW155519   3.706   3.437   5.200 -0.0187  0.4679 -1.6469
49894SOL    HW255520   3.590   3.378   5.277  0.6618  1.4173  0.1565
49895SOL     OW55521   4.180   7.881   8.754  0.0792  1.1568 -0.3241
49895SOL    HW155522   4.186   7.928   8.837  0.2955  1.0744 -0.2899
49895SOL    HW255523   4.260   7.906   8.707 -0.8305  2.5343 -1.2233
49896SOL     OW55524   7.425   5.000   4.190 -0.0181  0.0389 -0.5618
49896SOL    HW155525   7.512   4.960   4.186 -0.6060 -1.3495 -0.3117
49896SOL    HW255526   7.392   4.996   4.100  0.6414  1.6896 -0.8895
49897SOL     OW55527   5.688  11.692  11.465  0.1382 -0.1468 -0.2202
49897SOL    HW155528   5.681  11.638  11.385  0.1735  0.3976 -0.5960
49897SOL    HW255529   5.601  11.686  11.504  0.3102 -0.9660  0.0678
49898SOL     OW55530   2.429   6.327   4.436 -0.3184  0.3797  0.0415
49898SOL    HW155531   2.397   6.238   4.419  0.6761 -0.1965  1.0313
49898SOL    HW255532   2.354   6.383   4.421 -0.9549 -0.6245 -0.6658
49899SOL     OW55533  10.272   1.582   2.958 -0.0516  0.1330 -0.1409
49899SOL    HW155534  10.267   1.665   2.910 -0.6200  1.9356  2.7961
49899SOL    HW255535  10.359   1.581   2.997 -0.1439 -0.5252  0.0720
49900SOL     OW55536  10.064   1.974   3.483 -0.2539  0.3197  0.2136
49900SOL    HW155537  10.073   1.910   3.553 -0.3678  0.0511 -0.0167
49900SOL    HW255538  10.031   1.924   3.408 -0.7390  0.7221  0.1554
49901SOL     OW55539   9.160   4.377   3.607 -0.1799  0.4732  0.4119
49901SOL    HW155540   9.209   4.433   3.547 -1.4163  1.1058 -0.0229
49901SOL    HW255541   9.097   4.332   3.552 -0.7538  0.4092  1.1110
49902SOL     OW55542   1.938  10.163   7.666  0.2995 -0.0945 -0.9751
49902SOL    HW155543   1.906  10.213   7.591  0.0780  0.2710 -0.6352
49902SOL    HW255544   1.952  10.075   7.631 -1.5469 -0.4018 -1.0256
49903SOL     OW55545  11.593  12.161   8.702  0.5280  0.0904 -0.0181
49903SOL    HW155546  11.685  12.164   8.676  0.1639 -0.5143 -1.4853
49903SOL    HW255547  11.560  12.079   8.665 -0.3315 -0.2657  1.4647
49904SOL     OW55548   0.343   2.097   9.848 -0.1549  0.2818  0.5067
49904SOL    HW155549   0.353   2.161   9.919 -0.1390  0.4288  0.3704
49904SOL    HW255550   0.261   2.051   9.869 -2.2362  2.8327 -1.3413
49905SOL     OW55551   1.023   5.057   3.984 -0.1597 -0.4342  0.0567
49905SOL    HW155552   1.093   5.018   4.037 -0.0643 -1.5740 -0.8809
49905SOL    HW255553   0.953   4.991   3.985 -1.6718  1.1003  1.8183
49906SOL     OW55554   2.945  11.901   0.512  0.4282 -0.2372 -0.5562
49906SOL    HW155555   2.910  11.987   0.539  2.2105  0.0932  0.9302
49906SOL    HW255556   2.910  11.887   0.424 -0.4466  1.7057 -0.5713
49907SOL     OW55557   4.795   3.325   6.901  0.4419  0.0279 -0.1737
49907SOL    HW155558   4.871   3.382   6.914  0.1323  0.4262 -0.0644
49907SOL    HW255559   4.812   3.249   6.957  0.4846  0.3862  0.3105
49908SOL     OW55560   2.901   8.546   9.783 -0.3667 -0.4767 -0.4031
49908SOL    HW155561   2.981   8.558   9.834 -0.6763  1.5699 -0.3210
49908SOL    HW255562   2.830   8.564   9.845 -0.7817  0.4897 -1.1215
49909SOL     OW55563  11.386   4.215   1.365 -0.2251 -0.0673 -0.3828
49909SOL    HW155564  11.294   4.239   1.352 -0.5431  0.2024  1.8857
49909SOL    HW255565  11.389   4.181   1.455  1.9205  0.0624 -0.3557
49910SOL     OW55566   7.091  11.529   4.991  0.3433  0.1352 -0.2316
49910SOL    HW155567   7.130  11.512   4.906  0.8592  1.3718 -0.2604
49910SOL    HW255568   7.080  11.442   5.030  0.2117 -0.4408 -1.4906
49911SOL     OW55569   7.912   6.375   3.418 -0.1565 -0.4530 -0.1271
49911SOL    HW155570   7.854   6.451   3.422  1.3702  0.8278 -0.9158
49911SOL    HW255571   8.000   6.412   3.419  0.7090 -2.3400  1.5612
49912SOL     OW55572   2.935   9.878   5.328 -0.1799 -0.3669 -0.3009
49912SOL    HW155573   3.023   9.890   5.364  0.0089 -0.9619 -0.5571
49912SOL    HW255574   2.935   9.930   5.247 -1.2322  2.6015  1.4658
49913SOL     OW55575  11.006   7.933   3.593 -0.2171 -0.2995  0.3430
49913SOL    HW155576  11.081   7.950   3.535  0.3268  1.4697  1.4888
49913SOL    HW255577  10.937   7.990   3.560 -0.2699 -0.1200  0.7671
49914SOL     OW55578   2.000   6.401   6.814 -0.2109  0.2400 -0.9222
49914SOL    HW155579   1.964   6.376   6.899  1.2729 -0.1522 -0.3885
49914SOL    HW255580   1.983   6.495   6.809  0.2401  0.3981  0.1054
49915SOL     OW55581  12.183  10.850   5.858  0.1371 -0.5408 -0.1969
49915SOL    HW155582  12.170  10.891   5.944  0.6790 -2.1906  0.7055
49915SOL    HW255583  12.099  10.860   5.814 -0.5402 -0.7553  1.0045
49916SOL     OW55584  10.563   3.078   2.090 -0.7603  0.1894 -0.2714
49916SOL    HW155585  10.554   3.098   2.183 -0.7048 -2.1762  0.2932
49916SOL    HW255586  10.509   3.144   2.046 -0.8609  1.2929  1.4122
49917SOL     OW55587   5.675   3.745   4.010  0.5719 -0.3902  0.3473
49917SOL    HW155588   5.605   3.723   3.948  0.8290  1.5500 -0.7123
49917SOL    HW255589   5.739   3.674   4.000 -0.2353 -1.0580 -0.2481
49918SOL     OW55590   3.931   6.550   3.884 -0.0058 -0.3153 -0.1089
49918SOL    HW155591   3.916   6.644   3.871 -0.7907 -0.3785  0.3209
49918SOL    HW255592   4.013   6.546   3.935 -1.2456  0.2722  2.0862
49919SOL     OW55593   6.145   2.997   8.880 -0.0070  0.2234 -0.6371
49919SOL    HW155594   6.100   2.921   8.919 -0.6964  0.0192 -1.7866
49919SOL    HW255595   6.074   3.059   8.862  0.1487 -0.0858 -2.4457
49920SOL     OW55596  11.339   2.415   4.160 -0.4301 -0.6164  0.5126
49920SOL    HW155597  11.289   2.472   4.102  0.9364  0.8505  0.7078
49920SOL    HW255598  11.335   2.329   4.119 -0.5591  0.1264 -1.0819
49921SOL     OW55599   1.991   0.946   3.170  0.1672 -0.0472  0.0489
49921SOL    HW155600   1.930   0.888   3.125 -1.2621  1.3414  0.1275
49921SOL    HW255601   1.959   1.034   3.152  2.1792  0.7475  0.0810
49922SOL     OW55602   5.926  11.697   8.723  0.0596 -0.2149  0.2990
49922SOL    HW155603   6.013  11.674   8.689  0.5815  0.0422  1.4257
49922SOL    HW255604   5.896  11.767   8.665  1.2397  0.7138  0.7623
49923SOL     OW55605   8.441   8.664   5.239  0.2870 -0.6147  0.3007
49923SOL    HW155606   8.533   8.647   5.259  0.4246 -0.6271 -0.3284
49923SOL    HW255607   8.427   8.755   5.266  0.8096 -0.2171 -0.7103
49924SOL     OW55608   5.897   8.847  11.269  0.6229  0.2155 -0.0402
49924SOL    HW155609   5.970   8.785  11.279 -0.5543 -1.0966  0.7732
49924SOL    HW255610   5.916   8.916  11.333  1.0890 -0.1755  0.2529
49925SOL     OW55611  11.360  12.126   1.875  0.2955 -0.4331  0.0503
49925SOL    HW155612  11.269  12.106   1.897  0.5069 -0.7416  0.6830
49925SOL    HW255613  11.355  12.191   1.806 -0.4256 -2.4395 -1.8948
49926SOL     OW55614   5.115  10.045   0.352 -0.4113  0.0355  0.7063
49926SOL    HW155615   5.037  10.076   0.305  0.3850  1.4519  0.2548
49926SOL    HW255616   5.155   9.982   0.293 -0.4818  0.3295  0.3412
49927SOL     OW55617   1.920   8.273   0.743  0.6738  0.2125  0.0882
49927SOL    HW155618   1.846   8.283   0.684 -0.6706  0.7954  1.8066
49927SOL    HW255619   1.997   8.287   0.687 -0.5655  2.5842 -1.1795
49928SOL     OW55620   4.045   6.066   4.054 -0.0825  0.2501 -0.6185
49928SOL    HW155621   3.950   6.062   4.066  0.1738 -1.8440  1.3546
49928SOL    HW255622   4.058   6.039   3.963 -1.3723  0.7899 -0.9918
49929SOL     OW55623  11.631   3.076   5.027 -0.5657 -0.2852  0.6205
49929SOL    HW155624  11.664   3.148   4.973 -1.2162 -1.7819 -1.9336
49929SOL    HW255625  11.679   2.999   4.996  0.1376 -1.0353  3.2884
49930SOL     OW55626   5.586   2.096  11.296  0.0897  0.3667 -0.0831
49930SOL    HW155627   5.639   2.158  11.245 -0.2506  1.5966  1.0022
49930SOL    HW255628   5.556   2.147  11.371 -4.3629  0.4011 -1.6071
49931SOL     OW55629   9.621   4.234   1.229 -0.3414 -0.0737  0.0076
49931SOL    HW155630   9.683   4.248   1.158 -1.1197  0.5658 -0.5655
49931SOL    HW255631   9.590   4.144   1.216  0.7369 -0.5419  0.5392
49932SOL     OW55632   1.968   8.640   8.072  0.1335  0.3858 -0.7068
49932SOL    HW155633   2.038   8.613   8.013 -0.1995 -0.8774 -0.5637
49932SOL    HW255634   1.985   8.592   8.153 -1.2280 -0.4658 -0.8803
49933SOL     OW55635   2.950   9.158  10.540 -0.9799  0.5482  0.0006
49933SOL    HW155636   2.882   9.095  10.564  0.8638 -0.4643  3.0434
49933SOL    HW255637   2.993   9.119  10.465  0.1049 -1.9337  1.8053
49934SOL     OW55638   3.903   0.216  10.484  0.1822 -0.4767 -0.1858
49934SOL    HW155639   3.895   0.140  10.425 -0.1733 -0.8752  0.3685
49934SOL    HW255640   3.818   0.223  10.527  0.5253 -0.3685  0.4949
49935SOL     OW55641   0.158   7.490   0.203  0.1526  0.0269  0.3402
49935SOL    HW155642   0.198   7.577   0.193 -0.9103  0.3183 -2.2686
49935SOL    HW255643   0.176   7.465   0.293  2.4676  1.9654  0.5007
49936SOL     OW55644   1.269  12.092  10.695  0.1421 -0.1619  0.2012
49936SOL    HW155645   1.190  12.096  10.750 -0.2543 -1.4751 -0.2322
49936SOL    HW255646   1.326  12.030  10.741  0.4541 -0.0778 -0.0740
49937SOL     OW55647   8.542  12.289   0.606 -0.4207 -0.3342  0.0122
49937SOL    HW155648   8.508  12.203   0.583 -0.5751  0.3393 -2.6044
49937SOL    HW255649   8.635  12.285   0.581 -0.9834  0.9713 -2.6816
49938SOL     OW55650   0.711   5.818   4.770  0.3498 -0.5560 -0.0119
49938SOL    HW155651   0.651   5.773   4.829  1.1085  0.7256  1.8308
49938SOL    HW255652   0.657   5.887   4.730  0.1148 -0.7119  0.0306
49939SOL     OW55653   6.518   3.483   9.556  0.2539  0.2356 -0.1356
49939SOL    HW155654   6.478   3.431   9.486  0.8812 -1.2863  0.5807
49939SOL    HW255655   6.444   3.519   9.604 -0.2233 -0.3435 -0.4157
49940SOL     OW55656  10.335   0.313  10.658  0.2311 -0.5864  0.0011
49940SOL    HW155657  10.288   0.394  10.640 -3.8485 -2.0045  2.8358
49940SOL    HW255658  10.316   0.257  10.583 -4.6574 -1.7085  1.7013
49941SOL     OW55659   5.461  11.303   9.073  0.3116 -0.7224 -0.4587
49941SOL    HW155660   5.514  11.361   9.128  0.2750  0.1834 -1.3655
49941SOL    HW255661   5.382  11.286   9.125  0.9019 -1.0357  0.3573
49942SOL     OW55662   3.713  10.395   1.743  0.0361  0.2903  0.0602
49942SOL    HW155663   3.700  10.457   1.815  0.9796  1.4412 -0.7085
49942SOL    HW255664   3.808  10.385   1.737  0.0037  0.5475 -1.2577
49943SOL     OW55665   0.225   8.095   1.826  0.5857 -0.0607  0.3496
49943SOL    HW155666   0.270   8.065   1.904 -1.9816 -2.4400  1.0795
49943SOL    HW255667   0.229   8.021   1.765  1.5050  1.3167 -1.3916
49944SOL     OW55668  10.486   3.230   3.392 -0.2310  0.8802 -0.2272
49944SOL    HW155669  10.559   3.168   3.386 -0.2359  0.9287 -0.9243
49944SOL    HW255670  10.528   3.316   3.391 -0.0058  0.9759  3.4725
49945SOL     OW55671   2.605   2.837   2.278  0.4981 -0.1972  0.7316
49945SOL    HW155672   2.550   2.806   2.206  0.6125 -0.7545  0.8803
49945SOL    HW255673   2.551   2.825   2.356  0.5524 -0.0460  0.7918
49946SOL     OW55674   6.564   3.757   6.940  0.2440  0.3640 -0.5951
49946SOL    HW155675   6.524   3.721   6.861 -0.0793 -1.3367  0.2871
49946SOL    HW255676   6.536   3.698   7.010  0.8938  1.5588  0.7276
49947SOL     OW55677   9.624   2.077   1.120 -0.1051 -0.0389  0.0767
49947SOL    HW155678   9.551   2.124   1.079 -0.4967  0.9149  1.7743
49947SOL    HW255679   9.607   2.084   1.214  1.1120 -1.5647  0.4383
49948SOL     OW55680   2.552   7.089   8.438  0.5005  0.2402  0.7096
49948SOL    HW155681   2.492   7.024   8.401  0.8029  0.3334  0.0474
49948SOL    HW255682   2.520   7.103   8.528  1.0505 -1.6026  1.2383
49949SOL     OW55683   2.999  10.280  10.061  0.2589  0.1616 -0.8503
49949SOL    HW155684   3.053  10.276   9.982 -0.2848  0.9905 -1.2700
49949SOL    HW255685   2.961  10.368  10.060  0.2618  0.1917  0.3452
49950SOL     OW55686   7.856   9.788   5.082 -0.6182 -0.1809 -0.0260
49950SOL    HW155687   7.913   9.736   5.139 -0.5719 -0.5081 -0.3717
49950SOL    HW255688   7.816   9.724   5.023 -1.1212  0.0837  0.0239
49951SOL     OW55689   3.278   1.265  12.305  0.4431 -0.1086  0.0194
49951SOL    HW155690   3.294   1.170  12.302 -0.9354 -0.3313 -1.2215
49951SOL    HW255691   3.191   1.276  12.266 -1.3372  1.2941  3.9375
49952SOL     OW55692   0.748   1.854   5.976 -0.1564 -0.5038 -0.1657
49952SOL    HW155693   0.654   1.855   5.992 -0.3811  0.3530 -1.3336
49952SOL    HW255694   0.756   1.848   5.881  0.8503  2.8408 -0.4260
49953SOL     OW55695  10.049   9.455   7.890 -0.1920 -0.3618 -0.0199
49953SOL    HW155696  10.133   9.412   7.902  2.1203  3.5724 -0.3274
49953SOL    HW255697  10.011   9.414   7.812  1.8320 -1.6558 -0.3813
49954SOL     OW55698   3.502   3.595   6.543  0.2237  0.0566 -0.1330
49954SOL    HW155699   3.451   3.671   6.514  1.9465  0.3077 -2.7954
49954SOL    HW255700   3.445   3.520   6.527 -0.5574  0.5746  0.1570
49955SOL     OW55701  10.086   9.942   4.309 -0.0860 -0.3049 -0.3189
49955SOL    HW155702  10.068   9.849   4.299 -2.1000  0.1172 -1.1333
49955SOL    HW255703  10.097   9.955   4.403 -1.4767 -1.0994 -0.0201
49956SOL     OW55704   6.901   4.887  11.380 -0.3655 -0.1222  0.0746
49956SOL    HW155705   6.942   4.834  11.449 -1.4800 -0.7995  0.2490
49956SOL    HW255706   6.808   4.885  11.401 -0.4358  2.0532  0.1552
49957SOL     OW55707   5.488  11.991   5.734  0.1985 -0.3556 -0.0348
49957SOL    HW155708   5.552  12.016   5.666  0.9620 -1.0808  0.3965
49957SOL    HW255709   5.528  11.915   5.777 -0.3770 -0.0389  1.0878
49958SOL     OW55710  10.741   3.832  10.674 -0.5089  0.2593 -0.3635
49958SOL    HW155711  10.744   3.919  10.713  0.6199 -0.3161  0.9267
49958SOL    HW255712  10.656   3.797  10.700 -0.6047  0.6628 -0.1271
49959SOL     OW55713   2.205  11.854   7.986  0.6156 -0.0887  0.2552
49959SOL    HW155714   2.148  11.840   7.911  0.5462  0.1417  0.2629
49959SOL    HW255715   2.170  11.796   8.054  1.9128 -1.8736 -0.5056
49960SOL     OW55716   9.850   3.351  10.031  0.1930 -0.3729  0.6986
49960SOL    HW155717   9.809   3.273   9.992 -2.5445  1.4978 -0.4678
49960SOL    HW255718   9.888   3.398   9.957 -1.1691  1.0145  0.8182
49961SOL     OW55719   9.334  11.580   7.775  0.0097  0.3380  0.4447
49961SOL    HW155720   9.299  11.514   7.834  2.3479  0.3060  1.8809
49961SOL    HW255721   9.299  11.556   7.689 -0.8617 -1.5126  1.2606
49962SOL     OW55722   4.674   7.857  10.144  0.4683 -0.2512 -0.2728
49962SOL    HW155723   4.679   7.830  10.053  2.7854  0.8872 -0.5624
49962SOL    HW255724   4.763   7.845  10.178  0.0953  1.0243  1.2978
49963SOL     OW55725  11.241  11.188   2.375 -0.2275 -0.1166  0.0327
49963SOL    HW155726  11.320  11.156   2.419 -2.3493 -2.1790  2.6714
49963SOL    HW255727  11.199  11.245   2.440 -1.6972 -0.3436 -0.6793
49964SOL     OW55728   6.526   0.895   4.399 -0.3000 -0.3383 -0.3110
49964SOL    HW155729   6.504   0.961   4.466 -0.2371 -0.0003 -0.6232
49964SOL    HW255730   6.523   0.812   4.447  2.7499  0.1056  0.8810
49965SOL     OW55731   9.517   5.089   4.695  0.5336  0.2283  0.5336
49965SOL    HW155732   9.519   5.080   4.599  1.2467 -0.9008  0.6343
49965SOL    HW255733   9.427   5.116   4.714  0.0562 -0.6224 -0.3776
49966SOL     OW55734  11.240   3.367   2.680 -0.1306 -0.1753 -0.7864
49966SOL    HW155735  11.277   3.313   2.611  0.3217 -0.9995  0.0803
49966SOL    HW255736  11.197   3.306   2.739  0.3281  0.3922  0.1737
49967SOL     OW55737   6.187   5.601   1.944 -0.4752  0.1696 -0.0968
49967SOL    HW155738   6.250   5.531   1.924 -0.3045  0.5518 -0.9229
49967SOL    HW255739   6.203   5.621   2.036 -0.2960 -0.6494  0.0627
49968SOL     OW55740  11.465   0.590   8.901  0.6618  0.3058 -0.4313
49968SOL    HW155741  11.445   0.540   8.821 -0.1268  0.6116 -0.4348
49968SOL    HW255742  11.547   0.552   8.932  0.5002 -0.4529 -0.8748
49969SOL     OW55743   0.745   7.297   9.359 -0.4939  0.2010 -0.2428
49969SOL    HW155744   0.709   7.297   9.270  0.6506  1.0366 -0.7291
49969SOL    HW255745   0.835   7.265   9.349 -0.6428 -0.5622  0.7479
49970SOL     OW55746   4.537   9.086   2.013  0.5968  0.3302 -0.8131
49970SOL    HW155747   4.487   9.040   1.945 -1.8173 -0.6341  1.4170
49970SOL    HW255748   4.513   9.041   2.095  2.2684  2.2880  0.8725
49971SOL     OW55749  10.435   0.946   0.411  0.0038 -0.1571  0.5440
49971SOL    HW155750  10.523   0.957   0.375  0.5563  0.1370  1.9519
49971SOL    HW255751  10.403   1.035   0.424 -2.6703  0.1075 -4.7609
49972SOL     OW55752  11.247   5.211  10.194 -0.1442 -0.1148  0.5987
49972SOL    HW155753  11.286   5.256  10.270  0.8083  1.2313 -0.6414
49972SOL    HW255754  11.319   5.201  10.132 -1.0905 -0.4093 -0.4842
49973SOL     OW55755   6.212  11.645   9.679 -0.3936  0.1135  0.2916
49973SOL    HW155756   6.174  11.707   9.616  0.6087 -1.1375 -1.6544
49973SOL    HW255757   6.140  11.586   9.700 -0.8482  0.7850  0.6730
49974SOL     OW55758   1.486   2.174   5.785 -0.2778  0.9078 -0.2032
49974SOL    HW155759   1.424   2.118   5.738 -1.4324  0.7454  1.4193
49974SOL    HW255760   1.513   2.122   5.860  0.7819  1.5210 -0.1389
49975SOL     OW55761   2.474   6.624   2.289 -0.3525  0.3513 -0.0591
49975SOL    HW155762   2.422   6.629   2.208  0.8767  0.4153 -0.8712
49975SOL    HW255763   2.540   6.693   2.280  2.2004 -1.9852 -0.7761
49976SOL     OW55764   4.479  11.319   5.272 -0.2732 -0.1788  0.2132
49976SOL    HW155765   4.477  11.231   5.235 -0.1482 -0.1057  0.0308
49976SOL    HW255766   4.408  11.320   5.336  0.9351 -1.0371  1.6323
49977SOL     OW55767  10.047   2.134   6.264  0.1627 -0.0681  0.0404
49977SOL    HW155768  10.118   2.197   6.251  1.9486 -1.9278  0.1902
49977SOL    HW255769   9.977   2.164   6.206  0.9952  1.9164 -0.0179
49978SOL     OW55770  10.028   5.347  10.525 -0.0408  0.0109 -0.3193
49978SOL    HW155771  10.076   5.271  10.558 -0.4960 -0.2420 -0.2214
49978SOL    HW255772  10.093   5.417  10.521  0.2504 -0.2261  0.1463
49979SOL     OW55773   4.013   8.922   1.600  0.5529 -0.8389 -0.4520
49979SOL    HW155774   3.950   8.851   1.589  1.2708 -1.7848  1.1363
49979SOL    HW255775   4.062   8.899   1.680  1.5458  0.8861 -0.5031
49980SOL     OW55776  11.663   3.652   8.138  0.4404 -0.1475  0.1955
49980SOL    HW155777  11.668   3.559   8.116 -0.9182  0.2528 -2.2045
49980SOL    HW255778  11.600   3.657   8.209  0.0085 -1.0270 -0.1123
49981SOL     OW55779   4.410   3.486   1.912  0.6144  0.5537  0.7078
49981SOL    HW155780   4.348   3.419   1.884 -0.1154  0.7115  1.9152
49981SOL    HW255781   4.494   3.457   1.876 -0.3645  1.2017 -2.4294
49982SOL     OW55782   5.970  12.228   1.232  0.1907  0.3939 -0.3738
49982SOL    HW155783   5.948  12.137   1.211  1.0434  0.1672 -0.3407
49982SOL    HW255784   6.056  12.241   1.192 -1.1577  2.1172 -3.0435
49983SOL     OW55785   0.912   4.017  10.904 -0.7558  0.6390  0.1409
49983SOL    HW155786   0.861   3.939  10.925 -0.5785  0.8396  1.3570
49983SOL    HW255787   1.001   3.985  10.887 -0.4148  0.6706  1.7477
49984SOL     OW55788   9.004   8.428   9.091 -0.4653 -0.2167  0.1147
49984SOL    HW155789   8.970   8.506   9.045 -0.6419  0.5219  1.4298
49984SOL    HW255790   9.089   8.412   9.052  0.0954  1.3754  0.5783
49985SOL     OW55791   5.347   9.129   0.630  0.0819  0.1822  0.5739
49985SOL    HW155792   5.315   9.217   0.615 -0.3929  0.2932  2.0633
49985SOL    HW255793   5.322   9.109   0.721  0.1984 -1.4656  0.2857
49986SOL     OW55794   8.350   7.778   7.141  0.1500 -0.4417  0.7289
49986SOL    HW155795   8.390   7.717   7.079 -0.3605 -1.1773  1.0891
49986SOL    HW255796   8.261   7.790   7.108  0.1178 -0.2313  0.8907
49987SOL     OW55797  11.492  10.958   5.197 -0.7516  0.0601 -0.4360
49987SOL    HW155798  11.446  10.875   5.187  1.3368 -1.2271  0.0252
49987SOL    HW255799  11.455  11.015   5.129 -0.6070 -2.0018 -2.3341
49988SOL     OW55800   9.933   3.118   1.793  0.5657  0.1778 -0.1865
49988SOL    HW155801   9.864   3.109   1.728  1.3110  0.6664 -1.0754
49988SOL    HW255802   9.938   3.212   1.812  1.5663  0.2641 -0.8031
49989SOL     OW55803   5.817  10.547  11.899  0.4598 -0.2708  0.0983
49989SOL    HW155804   5.882  10.510  11.840 -0.6193 -0.9443 -0.7257
49989SOL    HW255805   5.793  10.474  11.957  0.3580 -0.0700  0.3071
49990SOL     OW55806   9.305   9.715   8.010  0.3220 -0.5240 -0.7251
49990SOL    HW155807   9.280   9.624   7.994 -0.8931 -0.3051 -0.2079
49990SOL    HW255808   9.360   9.739   7.936  0.3515 -1.5644 -1.0524
49991SOL     OW55809   0.229  10.836  10.634  0.2954 -0.3015 -0.2992
49991SOL    HW155810   0.294  10.875  10.693 -1.3722  0.7209  0.9402
49991SOL    HW255811   0.270  10.840  10.547  0.8767  2.7017  0.0217
49992SOL     OW55812   5.321   3.144  10.348 -0.5549  0.5229 -0.2024
49992SOL    HW155813   5.257   3.084  10.386 -0.7335  0.9351  0.1610
49992SOL    HW255814   5.406   3.107  10.370 -0.6550  0.9229  0.8810
49993SOL     OW55815   5.724  10.743   0.292 -0.0321 -0.2670 -0.5701
49993SOL    HW155816   5.799  10.795   0.265  0.0576 -0.6425 -1.0467
49993SOL    HW255817   5.731  10.662   0.241 -1.6294  0.3246 -1.8054
49994SOL     OW55818   1.922   1.853   0.285 -0.1027 -0.1737 -0.3484
49994SOL    HW155819   1.828   1.838   0.277  0.0872 -0.7782 -1.6543
49994SOL    HW255820   1.929   1.933   0.337 -1.3358 -0.0937 -0.2845
49995SOL     OW55821   7.494  11.766   5.618  0.3996  0.0444  0.4129
49995SOL    HW155822   7.456  11.695   5.567 -0.6730  0.8579  0.0387
49995SOL    HW255823   7.557  11.723   5.676  0.7235 -1.0457 -0.6952
49996SOL     OW55824   2.868   2.853   4.815 -0.1843 -0.4104  0.0297
49996SOL    HW155825   2.917   2.862   4.897  0.1875 -0.3854 -0.1927
49996SOL    HW255826   2.894   2.929   4.763 -0.4835 -0.3818 -0.0800
49997SOL     OW55827   6.047   0.065   4.915  0.2096 -0.0824  0.2608
49997SOL    HW155828   6.100   0.024   4.847 -0.8870 -0.0551 -0.6482
49997SOL    HW255829   5.996  -0.008   4.952 -0.2218  0.1298  0.0851
49998SOL     OW55830   4.610  12.282   3.739 -0.1054 -0.0264 -0.4375
49998SOL    HW155831   4.563  12.365   3.731 -0.6045 -0.3892 -1.3363
49998SOL    HW255832   4.564  12.235   3.809  1.2017  1.1034  1.2725
49999SOL     OW55833   8.700   3.732   5.814 -0.3486 -0.7085 -0.2917
49999SOL    HW155834   8.747   3.799   5.865 -2.7380  0.1019  1.0315
49999SOL    HW255835   8.705   3.762   5.724 -0.5953  0.8179  0.1731
50000SOL     OW55836   5.211   2.684   2.517 -0.2313 -0.2159  0.0104
50000SOL    HW155837   5.146   2.722   2.458 -0.6736 -1.9445 -0.6685
50000SOL    HW255838   5.159   2.650   2.590  0.0265 -0.6395 -0.0037
50001SOL     OW55839   4.926   1.001   5.703 -0.1985 -0.1433  0.0716
50001SOL    HW155840   4.983   1.017   5.778  0.9987 -0.4930 -0.7272
50001SOL    HW255841   4.839   0.988   5.740  0.1777  0.7145  1.3048
50002SOL     OW55842   6.416   2.705   7.352  0.1737 -0.0729  0.4752
50002SOL    HW155843   6.360   2.699   7.430 -0.9705  0.0690 -0.3185
50002SOL    HW255844   6.437   2.798   7.345  0.6569 -0.1447  0.8528
50003SOL     OW55845   4.966   9.855   9.318  0.3758  0.4439 -0.1203
50003SOL    HW155846   5.049   9.817   9.348  1.5081  2.5206 -0.4154
50003SOL    HW255847   4.912   9.858   9.397  0.1039 -1.9523 -0.1418
50004SOL     OW55848  11.286  10.781   6.667  0.4082  0.4011  0.0503
50004SOL    HW155849  11.277  10.860   6.719  0.4464 -0.3002  1.1495
50004SOL    HW255850  11.263  10.710   6.727  2.1813 -0.5743 -0.3487
50005SOL     OW55851   6.135   2.554   6.280 -0.5350  0.6343  0.2737
50005SOL    HW155852   6.070   2.596   6.337 -1.6643 -0.3607 -0.2452
50005SOL    HW255853   6.117   2.461   6.286  1.1468  0.2899  0.4438
50006SOL     OW55854   5.113   0.053   5.269  0.0183  0.1937 -0.7283
50006SOL    HW155855   5.133   0.032   5.178 -0.1885 -0.4195 -0.6370
50006SOL    HW255856   5.141   0.144   5.279 -1.0177  0.6396 -1.7176
50007SOL     OW55857   0.462   4.893   3.220 -0.1135 -0.2219  0.1039
50007SOL    HW155858   0.385   4.849   3.257 -2.0288  2.2203 -0.6960
50007SOL    HW255859   0.501   4.938   3.295 -1.4103  1.1356  0.0140
50008SOL     OW55860  10.563   4.211   5.513 -0.7709 -0.4809 -0.6678
50008SOL    HW155861  10.555   4.116   5.501 -0.1561 -0.5706 -0.4038
50008SOL    HW255862  10.507   4.229   5.589 -1.8878 -0.4314 -1.4784
50009SOL     OW55863  11.169   3.472   9.214 -1.0938  0.5186  0.4019
50009SOL    HW155864  11.222   3.512   9.283 -0.9414 -1.6339  1.6240
50009SOL    HW255865  11.086   3.519   9.217 -0.3858  1.7879  0.6684
50010SOL     OW55866   8.416   3.125   8.499  0.1626 -0.2364 -0.2612
50010SOL    HW155867   8.486   3.190   8.496  0.0115 -0.0086  0.7782
50010SOL    HW255868   8.449   3.056   8.558 -1.2588  0.8635  1.9595
50011SOL     OW55869   4.280  10.755  10.349 -0.1362  0.1645  0.3392
50011SOL    HW155870   4.312  10.841  10.319 -1.1780  0.5076  0.1817
50011SOL    HW255871   4.285  10.699  10.272  1.1465 -0.1127  0.5935
50012SOL     OW55872  10.267  11.461   7.072 -0.3555  0.0213  0.0019
50012SOL    HW155873  10.319  11.536   7.100 -0.3111 -0.4008  1.1074
50012SOL    HW255874  10.178  11.482   7.099  0.0521 -1.4709  2.9369
50013SOL     OW55875   4.969   0.235   6.102 -0.0139  0.1205  0.0376
50013SOL    HW155876   4.901   0.269   6.045  0.9100  2.1592  0.0727
50013SOL    HW255877   4.970   0.141   6.084 -1.6615  0.2915 -1.1861
50014SOL     OW55878   4.408   1.002   4.279 -0.5164  0.1197 -0.1686
50014SOL    HW155879   4.440   1.000   4.369  0.0121 -1.2163 -0.3587
50014SOL    HW255880   4.342   1.071   4.278  2.4286  3.1719  0.2330
50015SOL     OW55881   9.327   6.053   0.868 -0.2569  0.5161  0.0981
50015SOL    HW155882   9.353   6.045   0.960  1.9475  1.1191 -0.3990
50015SOL    HW255883   9.297   6.144   0.860 -1.1556  0.2529  0.3521
50016SOL     OW55884  10.236   1.344  10.202  0.6376  0.2957  0.2217
50016SOL    HW155885  10.197   1.265  10.164 -0.4336  0.0053  1.8073
50016SOL    HW255886  10.298   1.310  10.267 -1.8303  0.6024  2.9508
50017SOL     OW55887   5.040   3.703   3.110 -0.5730 -0.0395 -0.3657
50017SOL    HW155888   5.059   3.780   3.163  0.7057 -0.3074 -0.4127
50017SOL    HW255889   5.013   3.636   3.173 -0.3994  0.0562 -0.1877
50018SOL     OW55890   4.637   3.463   1.040  0.2486  0.2128 -0.2549
50018SOL    HW155891   4.654   3.543   0.989  0.7348  0.6797  0.6093
50018SOL    HW255892   4.723   3.433   1.067 -0.0470  0.5329  1.1116
50019SOL     OW55893   1.527  10.684   3.636 -0.1937 -0.2916 -0.1791
50019SOL    HW155894   1.596  10.748   3.617  0.0611 -0.3357  0.5333
50019SOL    HW255895   1.495  10.710   3.723 -0.7769 -0.5346 -0.3175
50020SOL     OW55896   5.636   4.869   2.367 -0.3477 -0.3463 -0.6134
50020SOL    HW155897   5.665   4.804   2.431 -2.2385 -0.4011  0.2787
50020SOL    HW255898   5.584   4.820   2.304 -1.1488  0.1616 -0.3698
50021SOL     OW55899   1.160   9.880   1.420  0.0380 -0.5485  0.8454
50021SOL    HW155900   1.066   9.876   1.436 -0.4482  0.3818 -1.3989
50021SOL    HW255901   1.173   9.963   1.374  1.7203 -1.3661 -0.2389
50022SOL     OW55902   7.660   4.329   7.161  0.0536 -0.2015 -0.0189
50022SOL    HW155903   7.637   4.252   7.110 -0.7334 -0.3772  0.5964
50022SOL    HW255904   7.589   4.391   7.145 -0.4248 -0.4205  1.1887
50023SOL     OW55905   8.182   8.919   3.255  0.5667  0.5164 -0.3965
50023SOL    HW155906   8.131   8.874   3.187  1.7998 -1.9771  0.1944
50023SOL    HW255907   8.116   8.963   3.308 -0.8229 -0.9012 -0.8381
50024SOL     OW55908   2.410   5.001  10.638  0.2234  0.0322 -0.5389
50024SOL    HW155909   2.440   5.018  10.727  1.6253 -0.8507 -0.8204
50024SOL    HW255910   2.317   5.025  10.640 -0.0544 -0.9375  1.4482
50025SOL     OW55911   0.346  11.044   5.053 -0.2289  0.4554 -0.2628
50025SOL    HW155912   0.281  11.113   5.066  0.6107  1.3738 -0.8633
50025SOL    HW255913   0.426  11.090   5.030  0.2976 -0.7367 -0.8832
50026SOL     OW55914   6.332   2.411   3.591  0.1465  0.2922 -0.5046
50026SOL    HW155915   6.303   2.321   3.608  0.0541  0.2431 -0.9328
50026SOL    HW255916   6.308   2.428   3.500  1.5933  0.1923 -0.9327
50027SOL     OW55917   5.491  11.602   2.186  0.5872  0.0931 -0.7121
50027SOL    HW155918   5.547  11.574   2.259  1.3944 -0.6402 -1.5895
50027SOL    HW255919   5.552  11.620   2.115 -0.1949  0.7929 -1.2230
50028SOL     OW55920   9.099   6.449   2.627 -0.1046  0.3974 -0.5308
50028SOL    HW155921   9.021   6.485   2.669 -1.0464  0.0683 -1.9496
50028SOL    HW255922   9.089   6.469   2.534  1.9701  1.1658 -0.6542
50029SOL     OW55923   0.824   9.483   0.708 -0.6758 -0.0465 -0.1780
50029SOL    HW155924   0.739   9.510   0.744 -0.1357 -0.7419  1.7531
50029SOL    HW255925   0.802   9.410   0.649 -1.5679  0.9341 -1.0990
50030SOL     OW55926   1.730   6.908  12.213 -0.1685  0.0868 -0.4200
50030SOL    HW155927   1.671   6.880  12.283 -1.4913 -0.2165 -1.5988
50030SOL    HW255928   1.788   6.972  12.255 -1.5653  0.6810  0.7365
50031SOL     OW55929   4.777   4.850  11.474 -0.5194 -0.3010  0.4870
50031SOL    HW155930   4.764   4.928  11.528 -0.1962  1.1785 -1.4445
50031SOL    HW255931   4.873   4.841  11.468 -0.5441 -0.2355 -0.0801
50032SOL     OW55932   9.028   1.862  12.225 -0.0703 -0.3033 -0.4803
50032SOL    HW155933   9.123   1.862  12.239 -0.1567 -2.6822  0.4971
50032SOL    HW255934   8.991   1.880  12.312 -0.6115  2.8101 -1.2095
50033SOL     OW55935   5.244   7.042   1.158 -0.1072  1.0165  0.2949
50033SOL    HW155936   5.199   6.959   1.174  1.1805  0.2086 -0.1262
50033SOL    HW255937   5.180   7.109   1.183 -1.7953 -0.0578 -0.8992
50034SOL     OW55938   0.387   6.586   1.715  0.4557 -0.3442 -0.1594
50034SOL    HW155939   0.400   6.518   1.649  0.2132  0.8120 -1.4474
50034SOL    HW255940   0.445   6.658   1.687  0.8000 -0.0517  1.2272
50035SOL     OW55941   4.811   4.901   4.401  0.2606 -0.1170 -0.1512
50035SOL    HW155942   4.819   4.989   4.362 -0.5125 -0.0608 -0.1882
50035SOL    HW255943   4.751   4.855   4.343 -2.1346  0.4423  1.7590
50036SOL     OW55944   3.883   6.942  10.728 -0.0997 -0.2268  0.0877
50036SOL    HW155945   3.928   6.989  10.658  0.0342  0.0776  0.3781
50036SOL    HW255946   3.930   6.965  10.807  0.4611 -1.4641  0.1427
50037SOL     OW55947   6.832   1.009  12.080  0.0737 -0.0895 -0.2363
50037SOL    HW155948   6.846   1.020  11.986  1.2466  0.6296  0.0062
50037SOL    HW255949   6.893   0.939  12.105 -0.5365 -0.5744 -0.0700
50038SOL     OW55950   1.523   5.787   0.120 -0.1568  0.1269  0.0427
50038SOL    HW155951   1.574   5.863   0.149 -0.7109 -0.2677  2.2394
50038SOL    HW255952   1.559   5.714   0.170 -1.5641 -0.5116  0.1548
50039SOL     OW55953   7.288   5.000   3.966  0.5276  0.4821  0.0253
50039SOL    HW155954   7.226   4.944   3.919  0.9353 -1.2083  1.3762
50039SOL    HW255955   7.317   5.063   3.901 -1.5475  0.4551 -1.0163
50040SOL     OW55956   5.786   7.359   9.949  0.5456 -0.4643  0.1533
50040SOL    HW155957   5.870   7.366   9.995  0.3368 -2.2180  0.8702
50040SOL    HW255958   5.721   7.385  10.015  0.4748  0.6902 -0.3385
50041SOL     OW55959   2.412   7.428   6.592  0.0604  0.0388  0.1861
50041SOL    HW155960   2.328   7.427   6.637 -0.3839  1.5072 -0.5472
50041SOL    HW255961   2.444   7.517   6.602  0.4340  0.1347 -1.4935
50042SOL     OW55962  12.272   8.100   1.545  0.1572  0.5472  0.8666
50042SOL    HW155963  12.275   8.191   1.517  0.4676  1.1670  2.8336
50042SOL    HW255964  12.356   8.084   1.588  0.1989 -0.7511  0.3645
50043SOL     OW55965  12.167   8.966  10.645 -0.2644 -0.2826 -0.5021
50043SOL    HW155966  12.166   8.943  10.552  1.7230 -1.9123 -0.1783
50043SOL    HW255967  12.104   8.907  10.686  2.8495 -3.6563 -0.0896
50044SOL     OW55968  11.867  10.467   5.433  0.1961  0.5688  0.2771
50044SOL    HW155969  11.851  10.521   5.356 -0.6138  0.3464  0.2779
50044SOL    HW255970  11.863  10.377   5.400 -0.0994  0.4739  0.5746
50045SOL     OW55971   5.933   9.754  10.963  0.0630  0.1958  0.0911
50045SOL    HW155972   5.852   9.736  10.917  0.7785 -0.8765 -0.7935
50045SOL    HW255973   5.963   9.668  10.994  0.4924  0.6679  1.0348
50046SOL     OW55974   4.982   8.629   5.354 -0.3882  0.1538 -0.2229
50046SOL    HW155975   4.951   8.612   5.443 -0.5189 -1.9215 -0.6170
50046SOL    HW255976   5.068   8.589   5.350  0.0962  1.2133 -0.7231
50047SOL     OW55977   1.803   1.138   4.452 -0.3866  0.1196  0.1687
50047SOL    HW155978   1.845   1.209   4.404 -0.7114 -0.4135 -0.9374
50047SOL    HW255979   1.709   1.157   4.444 -0.4523 -0.1120  0.3776
50048SOL     OW55980   6.927   9.494  10.794 -0.2925 -1.0680  0.0199
50048SOL    HW155981   6.896   9.476  10.705 -0.5444  1.3197 -0.4303
50048SOL    HW255982   6.972   9.578  10.788 -0.4304 -0.7722  2.1900
50049SOL     OW55983   0.487   4.151   3.724  0.0630 -0.3182  0.2258
50049SOL    HW155984   0.434   4.082   3.763 -0.2044 -0.5592 -0.5470
50049SOL    HW255985   0.560   4.162   3.784 -0.0096 -1.1202  0.4658
50050SOL     OW55986   2.649   6.762   1.495  0.1574  0.6293  0.1131
50050SOL    HW155987   2.625   6.709   1.571  1.3563  1.3600  1.0405
50050SOL    HW255988   2.605   6.846   1.510  1.0810  1.0603  0.4438
50051SOL     OW55989   9.312   1.815   0.869  0.1062  0.1542 -0.5334
50051SOL    HW155990   9.361   1.876   0.814 -1.9496  1.3114 -1.1590
50051SOL    HW255991   9.367   1.804   0.947  1.7356  0.7120 -1.5663
50052SOL     OW55992   0.518   8.159   6.664 -0.3365 -0.3057  0.4671
50052SOL    HW155993   0.551   8.116   6.743  0.7266 -1.5984 -0.6222
50052SOL    HW255994   0.585   8.141   6.598 -0.5654  1.8693 -0.4106
50053SOL     OW55995   0.853   0.150   5.246 -0.0031 -0.2504  0.2164
50053SOL    HW155996   0.855   0.140   5.151 -0.8736 -0.0537  0.1725
50053SOL    HW255997   0.942   0.177   5.269  0.3079 -0.6411 -0.4963
50054SOL     OW55998   7.033   2.089   8.239  0.1762 -0.5621 -0.2128
50054SOL    HW155999   6.954   2.123   8.198  0.1350 -0.9412 -0.4483
50054SOL    HW256000   7.008   2.072   8.330  0.5359  1.2205  0.2559
50055SOL     OW56001   8.094  10.994   4.842  0.3164 -0.3508  0.0392
50055SOL    HW156002   7.999  10.989   4.845  0.2851 -2.2333 -1.6824
50055SOL    HW256003   8.119  11.039   4.923 -2.0776  1.6711 -0.2317
50056SOL     OW56004   9.027  10.735   7.594  0.1451 -0.1365  0.3641
50056SOL    HW156005   9.034  10.783   7.511  1.4032 -1.9270 -0.6341
50056SOL    HW256006   8.933  10.716   7.603 -0.0594  0.4606 -0.4075
50057SOL     OW56007   8.873   4.322  11.550 -0.1531 -0.2493 -0.4437
50057SOL    HW156008   8.966   4.327  11.570  0.1005  1.7661 -1.8768
50057SOL    HW256009   8.830   4.374  11.618 -0.0756  0.1277 -0.6835
50058SOL     OW56010   8.028   6.246   0.657  0.4900  0.6198  0.3103
50058SOL    HW156011   8.119   6.259   0.631  0.6275  2.9007  1.6950
50058SOL    HW256012   7.977   6.287   0.587  0.5545  0.3526  0.1035
50059SOL     OW56013   9.688   0.079  10.792 -0.3921  0.0810 -0.0914
50059SOL    HW156014   9.750   0.105  10.724  1.3922 -2.6394  0.3551
50059SOL    HW256015   9.722  -0.004  10.825 -3.2379 -0.5536  1.5670
50060SOL     OW56016   0.637   1.348   8.857  0.1963  0.2600 -0.0677
50060SOL    HW156017   0.592   1.276   8.901  0.9236 -0.2738 -0.1713
50060SOL    HW256018   0.568   1.396   8.813 -0.3640 -0.0737  0.4266
50061SOL     OW56019   6.030   8.640   9.421 -0.0780 -0.2331  0.6954
50061SOL    HW156020   6.053   8.639   9.328  0.6904  2.8251  0.7240
50061SOL    HW256021   5.951   8.587   9.427  0.1050 -0.8849 -1.6170
50062SOL     OW56022   1.039   6.538   9.716 -0.3209  0.0872 -0.5175
50062SOL    HW156023   1.112   6.493   9.674 -1.0396 -0.7346 -0.9290
50062SOL    HW256024   1.080   6.605   9.771  0.7596 -0.6687 -0.3673
50063SOL     OW56025   2.833  10.715   3.884  0.3711 -0.1371 -0.1979
50063SOL    HW156026   2.912  10.695   3.936  0.4421 -0.0659 -0.2775
50063SOL    HW256027   2.825  10.641   3.824  0.9818  0.3575 -0.9071
50064SOL     OW56028   1.846   9.842   6.497  0.1600  0.2778  0.4305
50064SOL    HW156029   1.779   9.782   6.531 -0.3239  1.8765  2.5015
50064SOL    HW256030   1.825   9.850   6.404 -0.5561 -1.6920  0.3599
50065SOL     OW56031   0.856   2.152   9.654 -0.2392 -0.7254  0.2658
50065SOL    HW156032   0.775   2.203   9.655  1.0818  1.5994 -0.9873
50065SOL    HW256033   0.865   2.118   9.743 -1.1993  1.3137  1.2003
50066SOL     OW56034   3.388   0.935   8.052 -0.0949 -0.0225  0.4235
50066SOL    HW156035   3.368   0.958   7.961  2.0824 -0.0567 -0.1156
50066SOL    HW256036   3.382   1.017   8.100  1.2884  0.5114 -0.2733
50067SOL     OW56037   2.296   4.735   9.484 -0.5774  0.2094  0.2775
50067SOL    HW156038   2.333   4.735   9.395  0.6122 -1.3963  0.7351
50067SOL    HW256039   2.367   4.703   9.539 -1.4429  0.7925  1.7711
50068SOL     OW56040   5.538   7.738   6.455  0.0746 -0.1303 -0.4793
50068SOL    HW156041   5.490   7.679   6.397  1.3189 -0.9769 -0.7043
50068SOL    HW256042   5.472   7.776   6.512 -0.6732 -2.6642  0.4892
50069SOL     OW56043   4.809  11.552   1.884  0.2427  0.0941 -0.5328
50069SOL    HW156044   4.792  11.533   1.791 -1.8297  0.2591 -0.2355
50069SOL    HW256045   4.880  11.493   1.908  0.8263  0.0528 -2.2205
50070SOL     OW56046   0.134   7.086   2.463  0.2205  0.1208 -0.1241
50070SOL    HW156047   0.185   7.160   2.428  2.5468 -0.2531  2.1821
50070SOL    HW256048   0.060   7.126   2.506 -0.7299  0.7913 -2.2448
50071SOL     OW56049   5.410   3.537   6.777 -0.2259  0.2147 -0.1730
50071SOL    HW156050   5.444   3.606   6.721 -1.3785  2.5186  1.7855
50071SOL    HW256051   5.323   3.517   6.743 -0.1732  0.2415 -0.3223
50072SOL     OW56052  11.665   0.706   5.732  0.4642  0.4565  0.4003
50072SOL    HW156053  11.708   0.767   5.791 -0.9934 -0.4113  2.4924
50072SOL    HW256054  11.693   0.620   5.762  0.2788  0.0067 -0.6725
50073SOL     OW56055   3.124   9.089   8.529 -0.4835 -0.2502  0.3048
50073SOL    HW156056   3.117   9.023   8.460  1.0952 -0.6229  0.4660
50073SOL    HW256057   3.086   9.168   8.489 -2.3255 -1.1698  0.0814
50074SOL     OW56058   6.355   5.030   7.895 -0.3786 -0.0705 -0.0692
50074SOL    HW156059   6.273   5.077   7.884  0.4029  1.6160  0.9141
50074SOL    HW256060   6.402   5.043   7.812 -1.2441 -1.4290 -0.8095
50075SOL     OW56061   3.466  10.350   9.716 -0.0871 -0.1884 -0.4811
50075SOL    HW156062   3.546  10.342   9.664  0.3441 -0.1719  0.1742
50075SOL    HW256063   3.458  10.266   9.761 -1.4468 -0.9053 -1.9419
50076SOL     OW56064  10.804  11.759   2.280 -0.0193 -0.2251 -0.0997
50076SOL    HW156065  10.804  11.845   2.237 -1.3863  0.0042  0.3049
50076SOL    HW256066  10.873  11.765   2.346  0.8973  0.0385 -1.0553
50077SOL     OW56067   1.466   5.460   6.563  0.5314  0.5650 -0.2974
50077SOL    HW156068   1.392   5.400   6.568 -0.2486  1.4024 -1.1683
50077SOL    HW256069   1.540   5.411   6.597 -0.6360  0.0658  1.6482
50078SOL     OW56070   4.869   7.834   9.890  0.7329  0.7629 -0.1559
50078SOL    HW156071   4.899   7.898   9.954 -2.2266  1.7753  0.3762
50078SOL    HW256072   4.853   7.755   9.942 -1.7464  1.6071  0.5546
50079SOL     OW56073   1.288  10.352   1.582  0.0214 -0.2717  0.0904
50079SOL    HW156074   1.364  10.354   1.640  0.1802  0.5340 -0.1301
50079SOL    HW256075   1.212  10.352   1.640  0.1735 -1.2766  0.3173
50080SOL     OW56076  11.647   0.897   1.155 -0.4620 -0.4913  0.4854
50080SOL    HW156077  11.589   0.836   1.200 -0.9530 -1.1756 -1.0247
50080SOL    HW256078  11.591   0.944   1.093  0.7286 -2.2688 -2.1461
50081SOL     OW56079   9.026   5.658  12.299  0.4239  0.1124  0.3898
50081SOL    HW156080   9.014   5.585  12.359  0.0991 -2.1901 -2.2464
50081SOL    HW256081   9.118   5.653  12.273  0.7918  1.6186  1.2581
50082SOL     OW56082   9.932   5.159  10.332  0.6085 -0.4640  0.2598
50082SOL    HW156083   9.937   5.245  10.373  1.8572 -0.0580 -0.6901
50082SOL    HW256084   9.933   5.097  10.406 -1.0173  0.3097  0.9896
50083SOL     OW56085   5.111   4.872   0.208  0.4084  0.0233 -0.2861
50083SOL    HW156086   5.086   4.929   0.136  1.0897  0.2302 -0.3729
50083SOL    HW256087   5.186   4.822   0.175  0.9251  0.3357  0.3580
50084SOL     OW56088  11.181  10.489   6.443 -0.0649  0.2277 -0.2547
50084SOL    HW156089  11.135  10.564   6.481  0.9038  1.3908 -1.3116
50084SOL    HW256090  11.226  10.449   6.518 -1.9403 -0.3402  0.6138
50085SOL     OW56091   7.868   4.173   5.934 -0.2665  0.0825  0.1822
50085SOL    HW156092   7.817   4.253   5.950  1.4795  1.4078 -0.4303
50085SOL    HW256093   7.840   4.143   5.848  1.8207  2.4354 -1.4814
50086SOL     OW56094   7.523   3.468   0.557 -0.7270 -0.1391 -0.1098
50086SOL    HW156095   7.591   3.402   0.544  0.0553  1.1450 -3.7471
50086SOL    HW256096   7.570   3.544   0.592 -0.6899  0.0594 -0.5888
50087SOL     OW56097   6.053   1.872   7.219 -0.0251  0.3928  0.0017
50087SOL    HW156098   6.047   1.777   7.212  0.6330  0.4324 -1.5322
50087SOL    HW256099   5.976   1.898   7.270 -1.8589 -0.7444 -2.0091
50088SOL     OW56100  10.859   7.524   3.503 -0.2721  0.0757 -0.1565
50088SOL    HW156101  10.884   7.432   3.502 -0.2517  0.0838 -0.3936
50088SOL    HW256102  10.935   7.570   3.469  0.0753  0.2707  0.8495
50089SOL     OW56103   2.324  10.977   1.917 -0.0362 -0.0833 -0.3770
50089SOL    HW156104   2.334  11.062   1.958 -0.7219  0.6496 -1.6437
50089SOL    HW256105   2.379  10.981   1.839 -1.1783 -0.2254 -1.2258
50090SOL     OW56106  12.119   8.711   8.110  0.1277  0.1374 -0.1742
50090SOL    HW156107  12.213   8.699   8.099 -0.0859 -2.9577  0.4431
50090SOL    HW256108  12.081   8.678   8.028 -0.4582  0.4621 -0.0394
50091SOL     OW56109  10.127   1.233   3.515 -0.3234  0.0439  0.1372
50091SOL    HW156110  10.102   1.142   3.526  0.4057 -0.4080 -1.5011
50091SOL    HW256111  10.208   1.229   3.462  0.7623  1.5635  1.5771
50092SOL     OW56112   9.591   0.614   6.791  0.3223 -0.2710  0.3044
50092SOL    HW156113   9.680   0.597   6.760  1.6107  0.3373  3.3253
50092SOL    HW256114   9.561   0.688   6.738  2.0708  0.2640 -0.0137
50093SOL     OW56115   0.582   2.817   9.108 -0.3323  0.5115 -0.2208
50093SOL    HW156116   0.662   2.776   9.074 -1.7337 -1.3189 -1.5470
50093SOL    HW256117   0.554   2.875   9.037 -0.9949 -0.0796 -0.4604
50094SOL     OW56118   8.129   1.337   0.981 -0.2780 -0.2141 -0.5541
50094SOL    HW156119   8.149   1.244   0.971 -1.0842 -0.5550  0.8141
50094SOL    HW256120   8.053   1.351   0.925  0.0134 -0.3047 -0.9792
50095SOL     OW56121   1.972  12.303   4.398 -0.3596 -0.8314  0.0360
50095SOL    HW156122   1.982  12.317   4.492  0.2924  1.3063 -0.3098
50095SOL    HW256123   1.994  12.211   4.385 -1.9307 -1.5924  2.1400
50096SOL     OW56124   7.486   4.947   7.740  0.3344 -0.5672  0.4977
50096SOL    HW156125   7.451   4.900   7.816  0.0104 -1.6231 -0.2853
50096SOL    HW256126   7.522   4.879   7.684 -1.0884 -0.0248 -1.1643
50097SOL     OW56127   4.201   7.283  10.582  0.3210 -0.1145 -0.0791
50097SOL    HW156128   4.181   7.376  10.571 -1.2565 -0.1193  2.2524
50097SOL    HW256129   4.235   7.276  10.671 -0.5950 -1.9253  0.1676
50098SOL     OW56130   2.305   6.765   7.505  0.5013  0.4402 -0.0780
50098SOL    HW156131   2.225   6.808   7.474  1.0771  0.8158 -1.1058
50098SOL    HW256132   2.375   6.806   7.455  1.3572  0.1647  0.8616
50099SOL     OW56133   2.591  10.002   4.944  0.3338  0.1599  0.3021
50099SOL    HW156134   2.606  10.046   5.028 -0.4226  0.0258  0.5145
50099SOL    HW256135   2.618   9.911   4.959 -1.4727 -0.3085  0.9648
50100SOL     OW56136   2.088   1.834   8.029 -0.3656  0.5246  0.0087
50100SOL    HW156137   2.049   1.836   8.116 -1.3492 -3.1348 -0.1794
50100SOL    HW256138   2.180   1.813   8.044 -0.3716  0.6514  0.2146
50101SOL     OW56139   3.016   8.469   9.553 -0.1020  0.2629 -0.1912
50101SOL    HW156140   2.964   8.480   9.633  0.8847  0.9876  0.3679
50101SOL    HW256141   3.083   8.406   9.577  0.0908  0.3424 -0.5145
50102SOL     OW56142   5.350  12.189   1.462  0.2900  0.2518  0.3798
50102SOL    HW156143   5.306  12.199   1.547 -0.1274  1.0954  0.0731
50102SOL    HW256144   5.298  12.123   1.416 -1.5751  2.2434 -0.5305
50103SOL     OW56145   5.772   7.171   9.765  0.7415 -0.3296 -0.5134
50103SOL    HW156146   5.783   7.258   9.803  3.2848 -1.2097  1.0195
50103SOL    HW256147   5.748   7.115   9.838 -0.2001 -1.0760 -1.3594
50104SOL     OW56148  10.890   2.150   4.133 -0.5378 -0.6198 -0.0418
50104SOL    HW156149  10.819   2.132   4.194 -0.3012 -1.4389 -0.0072
50104SOL    HW256150  10.858   2.116   4.049 -0.0346 -1.3531  0.0550
50105SOL     OW56151  11.594   7.608   4.089 -0.4075 -0.3354  0.1379
50105SOL    HW156152  11.570   7.694   4.124 -1.0215 -0.8306  0.9631
50105SOL    HW256153  11.679   7.622   4.048 -0.4055  0.6245  0.4494
50106SOL     OW56154  11.707   3.931   3.381 -0.0308  0.4006  0.1805
50106SOL    HW156155  11.742   3.934   3.470 -0.5590  2.5660  0.3622
50106SOL    HW256156  11.632   3.991   3.383 -1.2584 -0.9994 -1.2461
50107SOL     OW56157   1.353   2.772   4.320  0.0235 -0.1279 -0.0260
50107SOL    HW156158   1.422   2.748   4.382 -0.4659  0.0239  0.5823
50107SOL    HW256159   1.361   2.706   4.250  1.4502  0.5002 -0.4949
50108SOL     OW56160  11.419   8.298   7.722  0.6591 -0.4438  0.2543
50108SOL    HW156161  11.393   8.206   7.734 -0.4407 -0.1965 -0.1412
50108SOL    HW256162  11.378   8.324   7.640  2.7851 -0.2328 -0.8185
50109SOL     OW56163   0.880   7.048   5.519  0.0408  0.0625  0.8246
50109SOL    HW156164   0.870   7.133   5.476  0.1955 -0.1604  0.3339
50109SOL    HW256165   0.971   7.046   5.548  0.4289 -0.4658 -0.3577
50110SOL     OW56166   7.934   0.071   5.667  0.5354  0.2329 -0.2323
50110SOL    HW156167   7.873   0.118   5.610 -0.6770 -0.7452  0.2033
50110SOL    HW256168   8.017   0.116   5.655 -0.2452  1.5746 -0.9021
50111SOL     OW56169  10.094   4.233   2.208  0.2208  0.3677  0.2102
50111SOL    HW156170  10.055   4.147   2.197 -0.4077  0.7974 -1.0772
50111SOL    HW256171  10.031   4.281   2.262  0.8300 -0.1196  1.3969
50112SOL     OW56172   0.951   1.240   4.566 -0.4962  0.1133  0.2377
50112SOL    HW156173   0.894   1.309   4.599  0.3415  1.5304 -1.1854
50112SOL    HW256174   0.897   1.193   4.502 -0.7536  0.0126  0.5200
50113SOL     OW56175   6.132   0.624   8.186 -0.3903 -0.1879  0.6025
50113SOL    HW156176   6.210   0.675   8.162 -0.5695 -0.3091 -0.2789
50113SOL    HW256177   6.093   0.673   8.258  0.0891  0.2903  0.5456
50114SOL     OW56178   0.740   8.206   0.800  0.2835  0.2312 -0.2860
50114SOL    HW156179   0.708   8.288   0.837  2.3714  0.6729  0.6686
50114SOL    HW256180   0.835   8.215   0.799  0.4909 -1.5205 -1.7622
50115SOL     OW56181   5.053  12.061   0.654  0.6467  0.4500 -0.2238
50115SOL    HW156182   5.084  12.116   0.583  1.7894 -0.6939 -0.6435
50115SOL    HW256183   5.095  11.976   0.639 -1.4210 -0.6988  0.1248
50116SOL     OW56184   7.005   7.167   3.450  0.3771 -0.5907 -0.3369
50116SOL    HW156185   6.934   7.149   3.389 -0.6667  0.6284  0.4655
50116SOL    HW256186   7.003   7.094   3.512 -1.7650  0.5848  1.0727
50117SOL     OW56187   0.003   1.847   9.714 -0.4753 -0.5488 -0.5023
50117SOL    HW156188  -0.060   1.908   9.754  0.0897  0.6338 -1.3567
50117SOL    HW256189  -0.036   1.824   9.630 -0.6783 -1.3684 -0.1856
50118SOL     OW56190   3.797   8.786  11.043 -1.1512  0.4598  0.1176
50118SOL    HW156191   3.723   8.830  11.000 -1.1127  0.2627 -0.1502
50118SOL    HW256192   3.757   8.715  11.093 -1.2156  0.8072  0.5688
50119SOL     OW56193   2.046   5.849   6.875  0.6522 -1.1523  0.3660
50119SOL    HW156194   2.114   5.872   6.811 -0.4404  1.4606 -0.0108
50119SOL    HW256195   2.040   5.927   6.931 -2.6323 -0.8409 -0.2194
50120SOL     OW56196  10.901   8.554  11.293  1.1331 -0.4342  0.4105
50120SOL    HW156197  10.903   8.639  11.336  1.0545 -0.8476  1.2697
50120SOL    HW256198  10.808   8.535  11.281  1.0016 -1.4758  2.5180
50121SOL     OW56199   3.643   6.921   6.076 -0.1324 -0.3691  0.2222
50121SOL    HW156200   3.648   6.826   6.082 -1.7698 -0.4340  1.1846
50121SOL    HW256201   3.663   6.951   6.165  3.0216  0.3942 -0.6285
50122SOL     OW56202   7.480  11.739   9.650 -0.2134 -0.3317 -0.1232
50122SOL    HW156203   7.401  11.710   9.695 -1.2276  1.6773 -0.5076
50122SOL    HW256204   7.456  11.823   9.610  1.7362 -0.2942 -1.3364
50123SOL     OW56205   9.160   8.056   5.451  0.1705  0.0613 -0.8667
50123SOL    HW156206   9.171   7.982   5.511  1.0282  1.7455  1.1591
50123SOL    HW256207   9.248   8.091   5.440 -0.3291  1.2871 -1.0936
50124SOL     OW56208  12.223   8.576   6.336 -0.7022 -0.5558  0.9491
50124SOL    HW156209  12.226   8.481   6.346 -0.6280 -0.6091  0.4422
50124SOL    HW256210  12.172   8.590   6.256  0.4462 -0.2241  0.2441
50125SOL     OW56211  11.667  10.840   7.655 -0.3629  0.1039  0.4618
50125SOL    HW156212  11.644  10.747   7.658 -0.1869  0.0887  1.9858
50125SOL    HW256213  11.589  10.883   7.622 -0.9306 -0.4498  1.0581
50126SOL     OW56214   4.659   4.931   3.331 -0.2637  0.0761 -0.6422
50126SOL    HW156215   4.743   4.938   3.376  0.3309 -0.3507 -1.6563
50126SOL    HW256216   4.617   5.016   3.346 -0.1554 -0.1075  0.8211
50127SOL     OW56217   1.257   3.944   4.752 -0.2753 -0.5046  0.4394
50127SOL    HW156218   1.283   3.971   4.840 -1.5640 -1.4369  1.1474
50127SOL    HW256219   1.272   3.850   4.751  0.4437 -0.3820 -0.6123
50128SOL     OW56220  10.813   5.592   5.789  0.3771  0.2849 -0.3717
50128SOL    HW156221  10.725   5.630   5.782  0.9123  1.5659 -0.3676
50128SOL    HW256222  10.808   5.511   5.738 -0.5831  0.7522 -1.0504
50129SOL     OW56223   3.076   3.487   5.266  0.1881 -0.2268  0.3921
50129SOL    HW156224   3.046   3.459   5.352  1.6662 -2.0404  0.3804
50129SOL    HW256225   3.151   3.544   5.284  0.6370 -0.7855  0.3237
50130SOL     OW56226   8.967  10.433   9.636  0.5776  0.1168 -0.1058
50130SOL    HW156227   9.056  10.450   9.603  0.9801  0.9746  1.3365
50130SOL    HW256228   8.949  10.506   9.695 -0.7934 -0.4589  0.2260
50131SOL     OW56229   7.728   1.266  10.471  0.2875  0.5299 -0.5302
50131SOL    HW156230   7.810   1.301  10.436  0.4232  1.0555  0.2897
50131SOL    HW256231   7.662   1.294  10.408  0.5465  1.3409 -0.4534
50132SOL     OW56232   6.701   5.157   8.460 -0.0249  0.7959 -0.3962
50132SOL    HW156233   6.654   5.077   8.435  1.4812 -0.0894 -0.5096
50132SOL    HW256234   6.664   5.180   8.545 -1.8627  1.1384 -1.2309
50133SOL     OW56235   4.146  10.532   0.749  0.5891  0.2616  0.1780
50133SOL    HW156236   4.066  10.520   0.698  2.3935 -0.7172 -2.6362
50133SOL    HW256237   4.134  10.618   0.791 -2.9072 -0.8839  2.0149
50134SOL     OW56238   3.357   6.334   1.019 -0.0130 -0.7210  0.4794
50134SOL    HW156239   3.443   6.304   0.989 -0.9732 -2.0843 -1.0939
50134SOL    HW256240   3.374   6.417   1.064  1.9875 -0.4759 -0.6430
50135SOL     OW56241  10.658  11.199   9.761  0.3055  0.1119  0.5500
50135SOL    HW156242  10.583  11.254   9.780 -1.8297 -1.1154 -3.3164
50135SOL    HW256243  10.722  11.257   9.719  0.6092  0.7053  1.7966
50136SOL     OW56244   7.784   8.282   3.871  0.0299 -1.1037 -0.3830
50136SOL    HW156245   7.730   8.296   3.793  2.3644 -0.0649 -1.9346
50136SOL    HW256246   7.827   8.198   3.855  0.4006 -0.9624 -0.1304
50137SOL     OW56247   7.265   2.687   8.020  0.2705 -0.3954 -0.7545
50137SOL    HW156248   7.347   2.714   8.061  0.8955 -0.5367 -1.8606
50137SOL    HW256249   7.229   2.621   8.079  0.6230  0.1310  0.0672
50138SOL     OW56250   0.477   1.550   0.680  0.3514  0.1948  0.2495
50138SOL    HW156251   0.483   1.491   0.755  1.3792 -0.6910 -0.4885
50138SOL    HW256252   0.568   1.567   0.656  0.0509  1.3466 -0.1374
50139SOL     OW56253   3.693   7.373   8.783 -0.3693 -0.1498  0.2645
50139SOL    HW156254   3.627   7.350   8.718  0.0711 -1.7224  0.3170
50139SOL    HW256255   3.776   7.366   8.735 -0.1649  0.5456  0.5164
50140SOL     OW56256   1.462   6.162   2.957 -0.2405 -0.1797  0.2459
50140SOL    HW156257   1.429   6.077   2.927 -0.5301 -0.9993  2.6512
50140SOL    HW256258   1.548   6.143   2.994 -0.3989  0.4987  1.0070
50141SOL     OW56259   7.883   6.367  11.798  0.3073 -0.2490  0.1504
50141SOL    HW156260   7.842   6.440  11.751  0.3939 -0.9945 -1.1254
50141SOL    HW256261   7.810   6.309  11.820  0.5580 -1.6186 -2.1933
50142SOL     OW56262   2.005   2.148   5.890  0.0379 -0.9566  0.1423
50142SOL    HW156263   2.035   2.236   5.866 -1.9017 -0.1959  0.3194
50142SOL    HW256264   1.978   2.109   5.806 -0.2620 -0.9108  0.2171
50143SOL     OW56265   9.621   8.696   9.028  0.0806 -0.3224  0.1176
50143SOL    HW156266   9.597   8.616   8.981  0.9288 -1.0171  0.8428
50143SOL    HW256267   9.560   8.762   8.994 -0.3890 -1.1768 -0.7651
50144SOL     OW56268   7.084   8.459   0.993 -0.0543  0.7757  0.0062
50144SOL    HW156269   7.028   8.534   1.012 -1.2938 -0.3124  0.7499
50144SOL    HW256270   7.030   8.383   1.011  1.7513 -0.3315  1.0694
50145SOL     OW56271   4.530   9.108   1.460  0.1825  0.2022  0.3760
50145SOL    HW156272   4.457   9.125   1.520  0.2238  0.0582  0.4673
50145SOL    HW256273   4.569   9.194   1.445 -0.4079  0.3803 -0.1898
50146SOL     OW56274  10.148  10.380   2.283 -0.1758  0.1064  0.0588
50146SOL    HW156275  10.188  10.335   2.209 -1.5918 -0.6967 -0.2699
50146SOL    HW256276  10.139  10.312   2.350 -2.0039 -0.0614 -0.3043
50147SOL     OW56277   9.771   2.137   0.906  0.2474 -0.2437 -0.0795
50147SOL    HW156278   9.713   2.104   0.975 -0.1205 -1.5070 -0.9366
50147SOL    HW256279   9.845   2.076   0.907  0.2008 -0.3223 -0.8224
50148SOL     OW56280   6.965   8.447   0.324 -0.2695  0.1786  0.1204
50148SOL    HW156281   6.988   8.360   0.359 -0.1962  1.2939  3.2076
50148SOL    HW256282   7.037   8.503   0.354 -0.5301  1.3984 -1.4677
50149SOL     OW56283   9.855  12.236   0.152  0.1771  0.3449 -0.5077
50149SOL    HW156284   9.936  12.277   0.186  1.7732 -0.9018 -2.5930
50149SOL    HW256285   9.854  12.150   0.192  1.0900 -0.4429 -2.0866
50150SOL     OW56286  10.710   6.351  11.599  0.0979 -0.1756 -0.4577
50150SOL    HW156287  10.626   6.344  11.643  0.3634 -0.9997 -0.0573
50150SOL    HW256288  10.708   6.436  11.555  0.4727  1.4918  2.4804
50151SOL     OW56289  10.587   0.227   5.028  0.4528 -0.4678 -0.2998
50151SOL    HW156290  10.625   0.169   4.963  1.0852  0.5848 -0.8905
50151SOL    HW256291  10.536   0.290   4.978 -0.5150 -0.6932  0.3592
50152SOL     OW56292   5.383   3.014   8.186  0.0542  0.4475 -0.4549
50152SOL    HW156293   5.434   3.077   8.237 -0.4346 -0.0314  0.6644
50152SOL    HW256294   5.448   2.950   8.155  0.2243  0.0892  0.5812
50153SOL     OW56295   7.088   0.105   9.928 -0.6572 -0.2562  0.4512
50153SOL    HW156296   7.092   0.107  10.023 -2.5472 -2.6992  0.6864
50153SOL    HW256297   7.055   0.017   9.907  0.5179 -0.1299 -2.4998
50154SOL     OW56298   4.851   8.333  11.480 -0.3286 -0.5887 -0.1528
50154SOL    HW156299   4.928   8.375  11.518  0.6139 -2.4993  0.1850
50154SOL    HW256300   4.777   8.371  11.527  0.6102 -0.7140  1.5074
50155SOL     OW56301   2.549   2.208   1.338  0.0291 -0.4617  0.7374
50155SOL    HW156302   2.585   2.169   1.417 -0.0168 -0.0308  0.9709
50155SOL    HW256303   2.454   2.208   1.352  0.1080  1.6416  1.6584
50156SOL     OW56304   9.131  11.161   2.364 -0.6277  0.2985  0.1582
50156SOL    HW156305   9.114  11.250   2.396 -0.0263  0.2046  0.7668
50156SOL    HW256306   9.058  11.143   2.305 -2.9090 -0.2731  2.9198
50157SOL     OW56307   8.800   6.828   9.674  0.0146  0.0742 -0.2545
50157SOL    HW156308   8.794   6.878   9.593  0.5099  0.0504 -0.3120
50157SOL    HW256309   8.853   6.751   9.651 -1.0522 -0.6747 -0.2631
50158SOL     OW56310  12.164   3.405   4.593  0.3415  0.0238  0.0709
50158SOL    HW156311  12.208   3.487   4.571  0.1098  0.4542  1.1056
50158SOL    HW256312  12.221   3.364   4.658 -0.4643  0.2982  0.9750
50159SOL     OW56313   9.624  11.797   5.257 -0.2636  0.0389 -0.6451
50159SOL    HW156314   9.571  11.876   5.261  0.7994  0.8630 -1.9598
50159SOL    HW256315   9.637  11.782   5.163  0.6495 -0.9412 -0.3822
50160SOL     OW56316   4.905   1.124   0.262  0.4174 -0.1970  0.1593
50160SOL    HW156317   4.981   1.181   0.275  2.0874 -1.9453 -1.3724
50160SOL    HW256318   4.831   1.184   0.252  1.6367  1.5742  1.2982
50161SOL     OW56319   5.451   1.124   1.718 -0.7134  0.3626  0.4303
50161SOL    HW156320   5.366   1.078   1.720  0.7048 -2.5457 -0.0734
50161SOL    HW256321   5.514   1.058   1.748  1.5484  1.9894 -0.4753
50162SOL     OW56322   6.351   3.639   8.398  0.6517 -0.2422  0.4621
50162SOL    HW156323   6.349   3.704   8.468 -0.6752  0.5663 -0.2807
50162SOL    HW256324   6.425   3.664   8.343 -0.3686  1.1988 -0.3035
50163SOL     OW56325   3.493   5.546   4.355 -0.3599  0.2135  0.0408
50163SOL    HW156326   3.418   5.525   4.299 -0.3746 -1.7740  0.7123
50163SOL    HW256327   3.553   5.594   4.297 -1.5751  0.7108 -0.8573
50164SOL     OW56328  10.740   6.774   4.268 -0.1503 -0.6984  0.6975
50164SOL    HW156329  10.773   6.759   4.179  1.0329  2.9045  0.3800
50164SOL    HW256330  10.818   6.785   4.321 -0.8475 -0.0370  1.6172
50165SOL     OW56331   2.628   9.199   1.629  0.2441  1.1846 -0.0558
50165SOL    HW156332   2.560   9.206   1.563 -0.1222 -0.2485  0.1488
50165SOL    HW256333   2.653   9.290   1.647 -1.4034  1.7186 -0.3290
50166SOL     OW56334   2.455   1.461   2.827  0.2981 -0.2509 -0.4360
50166SOL    HW156335   2.394   1.433   2.896 -3.1997  3.5479 -1.5495
50166SOL    HW256336   2.443   1.398   2.757 -0.8705 -0.7088  0.1454
50167SOL     OW56337  11.281  12.099   6.912  0.3850  0.1159 -0.4608
50167SOL    HW156338  11.330  12.179   6.898  0.5932 -0.0175 -0.4933
50167SOL    HW256339  11.322  12.035   6.854  0.7209 -0.2182  0.1432
50168SOL     OW56340   0.996   2.508   8.659 -0.1877 -0.7330  0.4291
50168SOL    HW156341   0.975   2.596   8.689 -2.2274 -1.4912  1.4187
50168SOL    HW256342   1.008   2.517   8.564  1.2570  0.8329  0.6971
50169SOL     OW56343   0.846   1.409  11.400  0.6790 -0.6137  0.4320
50169SOL    HW156344   0.764   1.393  11.446  0.3530 -0.0515  0.0566
50169SOL    HW256345   0.903   1.448  11.466  0.4750 -0.5519  0.5722
50170SOL     OW56346   1.319  10.795  12.187  0.3773  0.2031  0.2281
50170SOL    HW156347   1.340  10.789  12.094 -0.9702  0.5473 -0.1234
50170SOL    HW256348   1.291  10.885  12.200 -2.1829 -0.5264  0.3080
50171SOL     OW56349   5.899   1.052   9.465  0.1577 -0.4417 -0.2587
50171SOL    HW156350   5.807   1.027   9.473  0.5803 -1.7255  1.1430
50171SOL    HW256351   5.941   0.977   9.422  0.5692  0.1042 -0.8256
50172SOL     OW56352   3.845   5.615  10.046  0.3462  0.3764 -0.7509
50172SOL    HW156353   3.784   5.560  10.095  0.6863  0.8833  0.2691
50172SOL    HW256354   3.789   5.674   9.997 -0.0222  1.5625  1.0044
50173SOL     OW56355   7.142   9.791   1.085 -0.1829 -0.1243  0.2344
50173SOL    HW156356   7.099   9.706   1.081 -1.3045  0.4295 -0.1943
50173SOL    HW256357   7.073   9.851   1.115  0.3661  0.7625 -0.2253
50174SOL     OW56358   0.308  12.031   1.102 -0.2292 -0.7417  0.0759
50174SOL    HW156359   0.216  12.053   1.090 -0.7741 -2.2774  1.2170
50174SOL    HW256360   0.313  11.992   1.189  1.5636 -0.4342  0.1665
50175SOL     OW56361   5.807   0.413   0.309  0.2631 -0.3229  0.3587
50175SOL    HW156362   5.847   0.447   0.390 -0.2552  0.3979  0.3187
50175SOL    HW256363   5.833   0.476   0.242 -1.1974  0.3567  0.3893
50176SOL     OW56364   3.431   5.667  10.773 -0.6645 -0.1612  0.5873
50176SOL    HW156365   3.396   5.745  10.816 -0.9935 -0.7145  1.3548
50176SOL    HW256366   3.392   5.594  10.821  0.6827 -0.7963  0.7704
50177SOL     OW56367   0.757   0.440   8.296  0.9613 -0.9029 -0.4217
50177SOL    HW156368   0.820   0.502   8.261  0.8206 -0.2961  0.3821
50177SOL    HW256369   0.731   0.476   8.380  0.6558 -1.8993 -0.0666
50178SOL     OW56370   8.267   5.592   8.164 -0.3091  0.0282  0.5400
50178SOL    HW156371   8.181   5.564   8.133 -0.4569  0.1551  0.8302
50178SOL    HW256372   8.322   5.591   8.086 -0.4468 -0.5362  0.4460
50179SOL     OW56373  11.495  12.109   7.703  0.6444 -0.0617  0.1355
50179SOL    HW156374  11.519  12.201   7.688  0.2047  0.0534  0.1375
50179SOL    HW256375  11.472  12.105   7.796  0.2371 -0.0770  0.0352
50180SOL     OW56376   1.134   8.908   4.565  0.1719 -0.3035  0.2095
50180SOL    HW156377   1.222   8.937   4.542  0.9141 -2.5605  0.0024
50180SOL    HW256378   1.079   8.943   4.495  1.1507 -0.2517 -0.5554
50181SOL     OW56379   6.498   8.813   4.096 -0.3411 -0.1094 -0.1210
50181SOL    HW156380   6.538   8.732   4.128 -1.6874 -1.4977 -1.7932
50181SOL    HW256381   6.564   8.851   4.039 -0.1650 -0.6818 -0.3044
50182SOL     OW56382   4.340   5.963   3.291  0.3329  0.1660  0.0917
50182SOL    HW156383   4.378   6.044   3.326 -0.9685  1.5563 -1.5175
50182SOL    HW256384   4.248   5.967   3.316  0.2080 -0.7219 -0.1916
50183SOL     OW56385   3.386   6.038  11.153  0.5239  0.1295  0.5337
50183SOL    HW156386   3.474   6.049  11.118  0.1420 -1.1922 -0.9448
50183SOL    HW256387   3.393   5.965  11.214  0.1493 -1.1857 -0.9332
50184SOL     OW56388   6.293   7.469   5.833  0.3954 -0.3699  0.1374
50184SOL    HW156389   6.383   7.453   5.861  0.0215 -1.4917  0.7658
50184SOL    HW256390   6.300   7.498   5.742  1.5955  2.5700  1.0545
50185SOL     OW56391   2.683   8.242   9.083 -0.1118  0.4236 -0.5733
50185SOL    HW156392   2.631   8.207   9.155 -2.4244  1.6344 -1.5648
50185SOL    HW256393   2.715   8.165   9.037 -0.6913 -0.3595  0.3026
50186SOL     OW56394  11.386   9.971   8.994 -1.3526  0.2963  0.3535
50186SOL    HW156395  11.472   9.935   9.017 -2.3088 -1.9047  0.7243
50186SOL    HW256396  11.397  10.066   9.002  1.2820  0.1387 -0.5171
50187SOL     OW56397   3.042   8.740   3.451  0.1854  0.0734  0.0488
50187SOL    HW156398   3.108   8.751   3.519  0.6604 -0.5043 -0.3033
50187SOL    HW256399   3.085   8.770   3.371  0.6747 -1.9295 -0.4952
50188SOL     OW56400   5.461   6.117   7.004 -0.1701 -0.2598  0.1914
50188SOL    HW156401   5.465   6.057   6.929 -1.4404 -0.7813  0.5198
50188SOL    HW256402   5.412   6.193   6.970  2.8258  1.4236 -0.7305
50189SOL     OW56403   0.636   6.827  11.281 -0.1458  0.3363  0.5867
50189SOL    HW156404   0.713   6.787  11.240 -0.7433 -0.2333 -0.0169
50189SOL    HW256405   0.586   6.861  11.207 -0.8061  0.0872  0.9166
50190SOL     OW56406   9.951   8.904   6.518  0.6671 -0.2060  0.2034
50190SOL    HW156407  10.010   8.883   6.590  1.2137  0.3380 -0.0772
50190SOL    HW256408   9.956   8.999   6.511 -0.7329 -0.0759  0.5862
50191SOL     OW56409   3.906   2.262   5.894  0.1916  0.4384 -0.1675
50191SOL    HW156410   3.841   2.260   5.824 -1.2893 -1.3329  1.1437
50191SOL    HW256411   3.954   2.180   5.886 -1.4385 -0.8647  2.0308
50192SOL     OW56412   4.230   3.325   8.377 -0.4621  0.4704 -0.4581
50192SOL    HW156413   4.290   3.387   8.336  0.2882  0.6274  0.8258
50192SOL    HW256414   4.245   3.336   8.471 -0.2705 -1.6976 -0.2023
50193SOL     OW56415   5.399   6.492   0.455 -0.0513 -0.0886  0.7362
50193SOL    HW156416   5.383   6.408   0.412  1.5818  0.6360 -1.5100
50193SOL    HW256417   5.343   6.555   0.408  0.1380  0.3859  1.1313
50194SOL     OW56418   8.424   7.177   2.405  0.0917  0.2308  0.8448
50194SOL    HW156419   8.486   7.104   2.412  3.3896  2.8132  0.6738
50194SOL    HW256420   8.410   7.187   2.311  1.8282  1.4500  0.6847
50195SOL     OW56421   9.975   9.691   8.897 -0.8192  0.3036  0.2246
50195SOL    HW156422   9.900   9.640   8.864  0.3649 -1.5165  0.2048
50195SOL    HW256423  10.025   9.628   8.948  1.8371  0.8923 -1.4956
50196SOL     OW56424   5.927   7.061   7.889  0.0969 -0.7018  0.0605
50196SOL    HW156425   5.935   7.157   7.891  1.7246 -0.7607 -1.0607
50196SOL    HW256426   6.012   7.032   7.856 -0.4127 -2.5403  0.3081
50197SOL     OW56427   2.255   6.617   6.518 -0.1528  0.5117 -0.2155
50197SOL    HW156428   2.171   6.655   6.542 -0.2936 -0.6628  1.2955
50197SOL    HW256429   2.263   6.635   6.425 -1.9768  0.8493 -0.3524
50198SOL     OW56430   3.532   2.818   9.160  0.1605  0.4126 -0.4492
50198SOL    HW156431   3.445   2.789   9.188  0.0047  0.8637 -0.4656
50198SOL    HW256432   3.588   2.741   9.174 -0.3730 -0.1045 -1.1055
50199SOL     OW56433   7.511   0.611   6.196  0.1485 -0.2376 -0.1354
50199SOL    HW156434   7.509   0.706   6.196 -0.5034 -0.2441  0.6082
50199SOL    HW256435   7.593   0.589   6.154  0.4233  0.6564 -0.0871
50200SOL     OW56436   7.326   4.925   6.490 -0.2854 -0.0660 -0.0996
50200SOL    HW156437   7.369   4.841   6.480 -1.4839 -0.5257 -1.7985
50200SOL    HW256438   7.242   4.905   6.532  0.6982  0.7224  2.4484
50201SOL     OW56439   5.095   7.016   9.613 -0.2408 -0.0523  0.2045
50201SOL    HW156440   5.101   7.053   9.701  0.8126 -0.4192  0.2969
50201SOL    HW256441   5.115   7.090   9.555  1.1537 -0.2866  0.3620
50202SOL     OW56442   6.291   4.508   8.075  0.3061  0.9044 -0.1153
50202SOL    HW156443   6.208   4.529   8.117 -0.4592  0.2528 -1.2590
50202SOL    HW256444   6.318   4.590   8.033 -0.8717  0.5779 -1.5678
50203SOL     OW56445   4.714   5.746  11.787 -0.0702 -0.2769 -0.1718
50203SOL    HW156446   4.764   5.673  11.824 -0.6532 -0.7001 -0.2179
50203SOL    HW256447   4.635   5.752  11.841  0.8316  1.5460  1.0552
50204SOL     OW56448  11.725   1.726   3.889 -0.1606 -0.2659 -0.0561
50204SOL    HW156449  11.668   1.759   3.820  1.6548 -1.2860 -2.1727
50204SOL    HW256450  11.796   1.789   3.895  0.7334 -1.1940 -0.5828
50205SOL     OW56451   0.686   9.460   1.996  0.7611 -0.0632 -0.1473
50205SOL    HW156452   0.739   9.532   2.030 -0.5506  1.0158 -0.3128
50205SOL    HW256453   0.742   9.417   1.932  2.5585 -0.9054  1.8911
50206SOL     OW56454   7.211   7.001   6.453  0.1669 -0.3127  0.2919
50206SOL    HW156455   7.134   7.042   6.412 -0.2899 -1.8628 -0.4573
50206SOL    HW256456   7.284   7.055   6.424 -0.5392  0.7399  0.3853
50207SOL     OW56457   2.817   9.737   2.811 -0.1244 -0.0026 -0.4565
50207SOL    HW156458   2.751   9.756   2.745 -1.9401  0.2751  1.3418
50207SOL    HW256459   2.835   9.644   2.802 -1.3459 -0.2482 -0.4861
50208SOL     OW56460   1.295   6.006  10.434  0.0217  0.3675 -0.0663
50208SOL    HW156461   1.208   5.968  10.446 -1.1545  3.1554  1.0375
50208SOL    HW256462   1.324   6.026  10.523  0.7254  1.6457 -0.5603
50209SOL     OW56463   4.445   1.621   2.838  0.3352 -0.2673  0.1786
50209SOL    HW156464   4.444   1.706   2.794  0.6069 -1.0360 -1.3811
50209SOL    HW256465   4.497   1.636   2.917  0.9135  0.8761 -0.3827
50210SOL     OW56466   2.075   6.949   2.236  0.0578  0.1440 -0.2992
50210SOL    HW156467   2.096   6.875   2.293  0.1901  1.3253  1.2202
50210SOL    HW256468   2.160   6.981   2.206  0.0307  0.1195 -0.4049
50211SOL     OW56469   8.499   2.080  10.682 -0.6892  0.3463  0.1781
50211SOL    HW156470   8.467   2.043  10.765  0.8976 -0.2502  0.5534
50211SOL    HW256471   8.501   2.175  10.698 -1.0299  0.2894  0.5911
50212SOL     OW56472   2.598  11.125   7.061 -0.4870 -0.1122  0.3869
50212SOL    HW156473   2.519  11.135   7.008 -0.8366 -0.7834  0.7849
50212SOL    HW256474   2.593  11.037   7.097 -0.0223  0.1740  1.1782
50213SOL     OW56475   5.921   1.941   2.942  0.3899  0.1016 -0.4352
50213SOL    HW156476   5.996   1.902   2.898  0.1244 -2.3293  1.0974
50213SOL    HW256477   5.847   1.926   2.882 -0.1949 -4.1742  1.0047
50214SOL     OW56478   9.422  10.966   7.579 -0.5477 -0.1187 -0.1928
50214SOL    HW156479   9.418  11.028   7.651  1.8020  0.8359 -0.7740
50214SOL    HW256480   9.496  10.909   7.600 -1.3153 -1.3444 -0.7169
50215SOL     OW56481   1.756   8.124   6.793  0.0658 -0.1952  0.5681
50215SOL    HW156482   1.794   8.063   6.857  0.8689  1.6083  1.9035
50215SOL    HW256483   1.797   8.208   6.813 -0.5869  0.6996 -1.5646
50216SOL     OW56484   6.199   7.702  11.535  0.0273 -0.1702  0.1506
50216SOL    HW156485   6.288   7.668  11.540  0.7139  1.6372  1.2120
50216SOL    HW256486   6.201   7.764  11.461 -0.2133  0.1990  0.4493
50217SOL     OW56487   3.060   8.053   3.325  0.2002 -0.1087 -0.6601
50217SOL    HW156488   3.121   8.116   3.287  0.1801  0.3421  0.0254
50217SOL    HW256489   3.075   8.060   3.419  1.4631 -2.4091 -0.6064
50218SOL     OW56490   8.214   2.999   5.541  0.3368  0.1286  0.7509
50218SOL    HW156491   8.195   2.956   5.625  1.1726 -1.3332  0.2328
50218SOL    HW256492   8.262   3.078   5.565  0.3889 -0.1588  1.6540
50219SOL     OW56493   2.537   1.051  10.332  0.1168  0.0588  0.0897
50219SOL    HW156494   2.549   0.991  10.258  0.3315 -0.1538  0.2898
50219SOL    HW256495   2.623   1.053  10.374 -0.0738 -0.0396  0.4915
50220SOL     OW56496   9.884   5.911  10.891  0.2026  0.0089 -0.0289
50220SOL    HW156497   9.833   5.838  10.927  0.8849  0.2389  1.5053
50220SOL    HW256498   9.908   5.883  10.803  1.0452 -1.9572  0.7727
50221SOL     OW56499   8.406   9.144   8.609 -0.1890  0.4819  0.0366
50221SOL    HW156500   8.433   9.133   8.518  0.2095  0.5156  0.1501
50221SOL    HW256501   8.481   9.186   8.652 -1.1222  2.3428 -0.0610
50222SOL     OW56502   0.970   9.063  10.650  0.0438  0.2832  0.0814
50222SOL    HW156503   1.038   9.042  10.587  0.3642 -2.3327  1.1619
50222SOL    HW256504   1.014   9.058  10.735 -1.3023 -0.8065  0.7537
50223SOL     OW56505  10.163   4.044   4.386  0.1944 -0.2790 -0.9391
50223SOL    HW156506  10.117   3.968   4.421  0.6000  0.2158  0.7568
50223SOL    HW256507  10.099   4.087   4.329 -0.7811 -0.6706 -0.1590
50224SOL     OW56508   1.753  10.574   8.596  0.2129 -0.2658 -0.6596
50224SOL    HW156509   1.765  10.668   8.584 -1.0466  0.2678  1.6519
50224SOL    HW256510   1.668  10.566   8.639  0.7920 -2.3579  0.2310
50225SOL     OW56511   6.129   9.333  10.223 -0.0674  1.1988 -0.2378
50225SOL    HW156512   6.191   9.314  10.153  0.6804 -0.2794  0.7932
50225SOL    HW256513   6.086   9.250  10.240  0.4038  1.3086  1.6666
50226SOL     OW56514   2.872   9.958   3.639  0.5683  0.6257 -0.3042
50226SOL    HW156515   2.906   9.946   3.551  1.2127 -1.7423  0.2147
50226SOL    HW256516   2.906   9.884   3.689 -0.0742  1.7029  1.8622
50227SOL     OW56517   0.511  11.904   3.246  0.0364 -0.1934  0.2073
50227SOL    HW156518   0.494  11.891   3.153  0.4148  0.3637  0.0493
50227SOL    HW256519   0.606  11.896   3.254  0.3709  2.5571  0.0318
50228SOL     OW56520   0.648   7.784   3.878 -0.0330  0.4216  0.0151
50228SOL    HW156521   0.567   7.740   3.855  0.3086 -0.1688 -0.0945
50228SOL    HW256522   0.698   7.718   3.927  0.8983  0.3382 -0.9844
50229SOL     OW56523   5.487  12.303   9.892  0.7054  0.0369  0.1698
50229SOL    HW156524   5.539  12.380   9.913  0.4829 -0.0676  1.1711
50229SOL    HW256525   5.428  12.292   9.967  0.9392 -1.2664  0.1974
50230SOL     OW56526   4.144   1.923   1.891 -0.0390 -0.0031 -0.3630
50230SOL    HW156527   4.150   1.830   1.871 -2.0440 -0.4914  0.9977
50230SOL    HW256528   4.157   1.967   1.807 -0.6043 -1.5692 -1.3024
50231SOL     OW56529   7.269   1.967   8.178 -0.1081  0.0970  0.3678
50231SOL    HW156530   7.201   2.025   8.211 -0.8156 -0.1238 -0.6737
50231SOL    HW256531   7.293   2.003   8.093  1.8178  0.7576  1.1260
50232SOL     OW56532  10.060   0.292   2.620  0.2559 -0.2220 -0.2758
50232SOL    HW156533  10.115   0.217   2.641  1.8394  0.8088 -0.5163
50232SOL    HW256534  10.037   0.280   2.528  1.4771  0.1331 -0.6490
50233SOL     OW56535   0.414   7.606  10.370 -0.5001 -0.1041 -0.6199
50233SOL    HW156536   0.476   7.574  10.304  0.7419  0.7012  0.1006
50233SOL    HW256537   0.352   7.660  10.321 -0.0234 -0.1025 -1.2363
50234SOL     OW56538   8.001   7.197  10.571  0.4393  0.0937  0.2560
50234SOL    HW156539   7.929   7.138  10.548 -0.3020  1.5576 -1.4553
50234SOL    HW256540   8.080   7.149  10.546 -0.0662 -0.6702  0.0680
50235SOL     OW56541   8.073   4.612   3.243 -0.3895 -0.0978  0.2902
50235SOL    HW156542   8.110   4.673   3.307 -0.0929 -0.3749  0.3892
50235SOL    HW256543   7.994   4.655   3.211 -0.3619  0.1897  0.6025
50236SOL     OW56544   3.022   9.722   4.365 -0.5203 -0.3695  0.4930
50236SOL    HW156545   2.961   9.775   4.313 -0.9734 -1.2027  0.1578
50236SOL    HW256546   3.029   9.770   4.448 -0.3365  0.6002 -0.0720
50237SOL     OW56547  10.533   0.869   1.299  0.4649  0.2255  0.5929
50237SOL    HW156548  10.578   0.935   1.246 -0.4991 -0.4756 -1.1893
50237SOL    HW256549  10.604   0.814   1.333  1.1894  1.4086  1.0666
50238SOL     OW56550  11.674   8.186   8.956 -0.3333 -0.1852 -0.0583
50238SOL    HW156551  11.654   8.096   8.984 -0.5399  0.2845  1.3742
50238SOL    HW256552  11.769   8.192   8.964  0.0317 -1.0708 -2.7373
50239SOL     OW56553   9.304   2.181   5.135 -0.3397 -0.1038 -0.0032
50239SOL    HW156554   9.229   2.205   5.081 -1.7090 -2.8055  0.5712
50239SOL    HW256555   9.335   2.098   5.099  0.0650 -0.8746  1.9834
50240SOL     OW56556   3.064   0.571   2.848 -0.2467  0.2194  0.1159
50240SOL    HW156557   3.131   0.537   2.788  0.4031  0.3463  0.7522
50240SOL    HW256558   3.111   0.586   2.930 -1.4360 -1.4950  1.1811
50241SOL     OW56559   5.122   3.393   8.088 -0.6239  0.1634 -0.0492
50241SOL    HW156560   5.031   3.417   8.104 -1.4647 -1.2198 -2.2820
50241SOL    HW256561   5.135   3.314   8.141 -1.4212 -0.8149 -1.2453
50242SOL     OW56562   6.427   9.527   5.983  0.9507 -0.8435  0.1383
50242SOL    HW156563   6.478   9.602   6.013  0.4586 -0.6889  0.6122
50242SOL    HW256564   6.461   9.508   5.896  0.0091  0.9249 -0.6715
50243SOL     OW56565   8.348  12.330  10.875 -0.4583  0.2972  0.4303
50243SOL    HW156566   8.350  12.397  10.807  0.8940  0.1342  0.2960
50243SOL    HW256567   8.424  12.349  10.930  0.6625 -1.7954 -0.2786
50244SOL     OW56568   5.386   5.863  10.159 -0.3784 -1.1071  0.0570
50244SOL    HW156569   5.410   5.889  10.070  0.3645 -2.2882 -0.1133
50244SOL    HW256570   5.291   5.878  10.163 -0.7155 -2.4730 -1.4737
50245SOL     OW56571   8.753  12.173   3.155 -0.0856 -0.3608  0.6637
50245SOL    HW156572   8.693  12.137   3.090 -0.0178 -0.4576  0.6537
50245SOL    HW256573   8.749  12.111   3.228 -0.8497  0.2261  1.1317
50246SOL     OW56574  12.229   2.998   7.552  0.1152  0.0755  0.3212
50246SOL    HW156575  12.248   2.958   7.638  0.4047 -0.0285  0.2099
50246SOL    HW256576  12.315   3.022   7.518  0.0181 -0.0822 -0.0362
50247SOL     OW56577   8.665   8.849  11.391 -0.1691 -0.3231 -0.6803
50247SOL    HW156578   8.619   8.814  11.467  3.6745  0.0280  2.1535
50247SOL    HW256579   8.684   8.773  11.337  0.9485 -1.4359  1.1685
50248SOL     OW56580   8.494   2.522   0.790  0.5029 -0.1890 -0.2588
50248SOL    HW156581   8.462   2.433   0.773  2.2243 -0.7807 -0.5580
50248SOL    HW256582   8.573   2.529   0.736  0.2296  1.6391 -0.4661
50249SOL     OW56583  11.105   3.261   2.160  0.6597  0.4638  0.0349
50249SOL    HW156584  11.035   3.321   2.184  1.0501  0.4742  1.2214
50249SOL    HW256585  11.170   3.315   2.116  0.3636  0.6344 -0.1933
50250SOL     OW56586   4.117   1.202  11.342 -0.1816  0.1473  0.3129
50250SOL    HW156587   4.074   1.192  11.257 -1.1910  3.3374  0.2850
50250SOL    HW256588   4.090   1.125  11.392 -2.4489 -0.0990 -1.1493
50251SOL     OW56589   2.896   5.469   0.712  0.3938 -0.0867  0.1114
50251SOL    HW156590   2.918   5.540   0.652 -1.6007 -0.0870 -0.6996
50251SOL    HW256591   2.960   5.477   0.783  1.3354  1.3775 -0.8485
50252SOL     OW56592   7.564   6.600   4.007  0.4923 -0.4002  0.1339
50252SOL    HW156593   7.629   6.595   4.077  1.2196 -1.2780 -0.5673
50252SOL    HW256594   7.616   6.602   3.927 -0.3180  0.7071 -0.4005
50253SOL     OW56595   8.404   1.281   6.426  0.3288  0.0488 -0.1294
50253SOL    HW156596   8.346   1.311   6.355  1.6431  2.1529 -0.4187
50253SOL    HW256597   8.400   1.351   6.491  1.1014 -0.6641  0.7046
50254SOL     OW56598   6.301   8.010   1.102  0.1704  0.2444  0.1273
50254SOL    HW156599   6.317   7.961   1.022  0.9553  0.7337 -0.0295
50254SOL    HW256600   6.363   7.974   1.165 -1.0058 -0.6980  0.7656
50255SOL     OW56601   9.269   3.305  10.767 -0.1472 -0.4117 -0.4541
50255SOL    HW156602   9.213   3.282  10.693  0.4203 -1.5155 -0.5519
50255SOL    HW256603   9.338   3.360  10.730 -1.1356  0.9840 -0.3279
50256SOL     OW56604   9.807   8.291   4.888  0.0608  0.0275  0.6393
50256SOL    HW156605   9.849   8.222   4.837  0.5568  0.4780  0.4343
50256SOL    HW256606   9.786   8.359   4.824  0.3865  0.4556  0.9825
50257SOL     OW56607   5.140   7.442   5.490 -0.3050 -0.4576  0.3388
50257SOL    HW156608   5.219   7.490   5.515 -0.0328  0.2464 -1.6808
50257SOL    HW256609   5.172   7.361   5.450 -0.7004 -1.2072  1.4841
50258SOL     OW56610   4.263   9.314   6.456  0.0168  0.3463  0.0749
50258SOL    HW156611   4.215   9.240   6.494  1.4255 -0.8084 -0.3025
50258SOL    HW256612   4.349   9.312   6.499  0.2244  1.5026 -0.2578
50259SOL     OW56613   0.870   3.145   2.728  0.2711 -0.5734 -1.0105
50259SOL    HW156614   0.921   3.115   2.803  1.3117 -1.6533 -2.1133
50259SOL    HW256615   0.791   3.182   2.766  0.9544 -0.7304  0.6350
50260SOL     OW56616   2.879  10.404   5.867 -0.0089 -0.7558  0.0886
50260SOL    HW156617   2.853  10.477   5.810  0.0654 -2.1778 -1.8781
50260SOL    HW256618   2.975  10.404   5.864 -0.0033 -2.2891 -1.8725
50261SOL     OW56619   5.794   4.003   2.077  0.0545  0.3850 -0.2590
50261SOL    HW156620   5.785   3.937   2.146  2.1205  0.2248 -0.0890
50261SOL    HW256621   5.873   3.979   2.030  0.2820  2.1381 -0.8620
50262SOL     OW56622   7.171   7.684   2.958 -0.2288  0.0876  0.4743
50262SOL    HW156623   7.119   7.681   2.878  0.0360  1.2182  0.2537
50262SOL    HW256624   7.187   7.592   2.979 -0.1156 -0.2229 -0.8786
50263SOL     OW56625  10.445   3.806   7.054  0.5565 -0.3776 -0.5587
50263SOL    HW156626  10.513   3.746   7.086 -0.3106 -1.9864 -1.6135
50263SOL    HW256627  10.491   3.889   7.041  2.1903 -1.2624 -0.6779
50264SOL     OW56628   5.039   6.412   8.325  0.2336 -0.2350 -0.6776
50264SOL    HW156629   5.059   6.427   8.418 -2.6516 -0.9434  0.1545
50264SOL    HW256630   5.125   6.397   8.285  1.4963 -1.2891  2.1263
50265SOL     OW56631   7.225  10.200   1.326  0.3486  0.5383  0.0886
50265SOL    HW156632   7.267  10.115   1.311 -0.0483 -0.0028  1.7935
50265SOL    HW256633   7.189  10.193   1.415  0.1131  2.4169  0.1680
50266SOL     OW56634   3.549   8.971   5.794 -0.4003 -0.3981 -0.1088
50266SOL    HW156635   3.577   9.062   5.780  0.5914 -0.8435 -1.2076
50266SOL    HW256636   3.565   8.928   5.710 -1.3999 -1.4684  0.2182
50267SOL     OW56637   2.473   8.648   6.417 -0.1297 -1.0134 -0.2113
50267SOL    HW156638   2.511   8.621   6.334  1.0245  3.2286 -1.3245
50267SOL    HW256639   2.408   8.714   6.394 -0.2316 -0.1659  2.1981
50268SOL     OW56640   6.260   8.794   7.376 -0.1325  0.5153  0.1419
50268SOL    HW156641   6.240   8.866   7.436  2.1959  2.0332 -0.7825
50268SOL    HW256642   6.180   8.741   7.375 -0.3163  0.3526  4.5457
50269SOL     OW56643   5.234  12.238  10.827  0.2058  0.6588 -0.4594
50269SOL    HW156644   5.318  12.273  10.858  0.1817 -0.9688  1.7050
50269SOL    HW256645   5.244  12.143  10.835 -2.1032  0.4380  0.7284
50270SOL     OW56646   9.821  10.598  11.212 -0.0901  0.1111 -0.6906
50270SOL    HW156647   9.824  10.624  11.120  0.9084  0.5427 -0.5495
50270SOL    HW256648   9.780  10.671  11.257 -0.0415  0.1562 -0.7192
50271SOL     OW56649   6.369  11.427   7.023  0.3226  0.2042 -0.1593
50271SOL    HW156650   6.350  11.336   7.003 -0.5257 -0.0920  1.8247
50271SOL    HW256651   6.349  11.474   6.942  0.4897 -1.3156 -1.1108
50272SOL     OW56652   4.608  11.793   8.564 -0.7877  0.1007 -1.1629
50272SOL    HW156653   4.606  11.885   8.535 -0.1520  1.0149  1.4023
50272SOL    HW256654   4.517  11.764   8.560 -0.8830  0.4759 -2.8876
50273SOL     OW56655   5.855   4.165  11.992  0.8558 -0.3022  0.3148
50273SOL    HW156656   5.859   4.153  12.086 -0.5755  1.2539  0.6204
50273SOL    HW256657   5.863   4.259  11.979  1.3681 -0.5123 -1.1598
50274SOL     OW56658   5.691  10.251   4.741 -0.2570 -0.2417 -0.2837
50274SOL    HW156659   5.684  10.341   4.711  0.0507 -0.5226 -1.2356
50274SOL    HW256660   5.644  10.250   4.825  1.6192  1.2804  0.8588
50275SOL     OW56661  11.592   0.866   8.952  0.2371 -0.2498 -0.3454
50275SOL    HW156662  11.560   0.879   9.041  0.4083 -0.3886 -0.2624
50275SOL    HW256663  11.568   0.776   8.931 -1.5503  0.3720 -1.1704
50276SOL     OW56664   4.907   4.342   1.372 -0.3212 -0.2139  0.3566
50276SOL    HW156665   4.949   4.381   1.449  0.0270 -1.6666  0.9390
50276SOL    HW256666   4.938   4.395   1.298 -0.5303  1.1026  1.1840
50277SOL     OW56667   1.417   9.607   5.317 -0.0588 -0.0511 -0.1577
50277SOL    HW156668   1.388   9.571   5.401  1.3004  0.9094  0.7446
50277SOL    HW256669   1.486   9.547   5.288 -1.1573 -0.9239 -1.1007
50278SOL     OW56670   8.264  11.593   1.481  0.3724  0.5520 -0.0808
50278SOL    HW156671   8.336  11.640   1.440  0.6263  2.2257  2.0766
50278SOL    HW256672   8.190  11.652   1.475 -0.0772  0.0197  0.1440
50279SOL     OW56673   0.027   1.569  11.163  0.0456 -0.0112  0.0992
50279SOL    HW156674   0.099   1.532  11.114  0.7016  0.7831  0.4302
50279SOL    HW256675   0.068   1.632  11.223 -0.9444  0.7325  0.0358
50280SOL     OW56676   5.126   9.218   3.954 -0.8118  0.1053 -0.1959
50280SOL    HW156677   5.187   9.241   3.884  0.6059  1.0973  1.3059
50280SOL    HW256678   5.181   9.183   4.024 -2.0408  0.3539  0.9408
50281SOL     OW56679  11.226   3.389   4.956  0.0543  0.6380 -0.2593
50281SOL    HW156680  11.272   3.310   4.985  0.5728  1.1939  0.4412
50281SOL    HW256681  11.293   3.443   4.915  0.1459  1.6455  1.1618
50282SOL     OW56682   3.048  10.524   6.150  0.0621  0.1390 -0.0020
50282SOL    HW156683   3.117  10.481   6.101  0.0423  1.5976 -1.3908
50282SOL    HW256684   3.092  10.595   6.196 -0.1266 -0.4739  1.1706
50283SOL     OW56685   2.809   5.532   8.064  0.0091  0.3808  0.7247
50283SOL    HW156686   2.799   5.560   8.155 -0.5063 -0.2708  0.8781
50283SOL    HW256687   2.902   5.508   8.056  0.1799  0.9709  0.9194
50284SOL     OW56688   0.715   0.668   9.121 -0.4344  0.4028 -0.5249
50284SOL    HW156689   0.646   0.611   9.154  0.3859 -0.1456  0.3060
50284SOL    HW256690   0.749   0.712   9.198  0.1739  0.6200 -0.9100
50285SOL     OW56691   0.455  10.286  11.884  0.3347 -0.5310 -0.2142
50285SOL    HW156692   0.527  10.323  11.935 -0.7158  1.9404 -0.3505
50285SOL    HW256693   0.458  10.332  11.800 -1.0164 -0.8146 -0.4537
50286SOL     OW56694   3.326   0.690   5.752 -0.2178  0.1240  0.1741
50286SOL    HW156695   3.404   0.654   5.709 -0.5877 -1.5401  0.8170
50286SOL    HW256696   3.266   0.710   5.680  0.3317  0.2896 -0.2479
50287SOL     OW56697   0.887   3.008  11.100 -0.5014 -0.0337  0.3553
50287SOL    HW156698   0.933   3.077  11.149 -0.1628  0.1948 -0.2817
50287SOL    HW256699   0.845   3.055  11.028 -1.0480 -0.3654  0.4501
50288SOL     OW56700   1.145   6.587   2.929 -0.6225  0.3006 -0.3035
50288SOL    HW156701   1.205   6.650   2.889 -0.3369  0.0659 -0.2468
50288SOL    HW256702   1.200   6.512   2.951 -0.7547  0.4457  0.5801
50289SOL     OW56703   1.576   4.610   3.183 -0.5901  0.0020 -0.2065
50289SOL    HW156704   1.655   4.624   3.236 -1.0381 -1.4151  0.8972
50289SOL    HW256705   1.608   4.577   3.099  0.0163  0.0061  0.0232
50290SOL     OW56706   4.840   5.204   6.376 -0.2809 -0.2142  0.5486
50290SOL    HW156707   4.778   5.179   6.444 -0.5913  0.2230  0.4333
50290SOL    HW256708   4.832   5.300   6.370  1.6705  0.0805  1.7672
50291SOL     OW56709   9.074   7.890   1.713 -0.4639  0.5618  0.5072
50291SOL    HW156710   9.090   7.952   1.642 -5.4208  1.9389  0.1920
50291SOL    HW256711   9.074   7.804   1.670  0.5304  0.9530 -0.2990
50292SOL     OW56712   8.831   1.600   8.483  0.1127  0.0068 -0.5136
50292SOL    HW156713   8.841   1.511   8.518  0.0563  0.3727  0.4773
50292SOL    HW256714   8.744   1.627   8.513  0.2095  0.4612 -0.6436
50293SOL     OW56715   5.366   7.024   7.372 -0.4240 -0.6527 -0.5389
50293SOL    HW156716   5.395   6.945   7.418 -0.9312 -0.6682 -0.2424
50293SOL    HW256717   5.355   7.089   7.441 -0.9216 -0.5958 -0.6691
50294SOL     OW56718   6.015  11.309   2.013  0.2658 -0.3117  0.0659
50294SOL    HW156719   6.107  11.327   1.995 -0.4108  1.4433 -2.0675
50294SOL    HW256720   5.980  11.393   2.045 -0.7517 -0.7348  0.1006
50295SOL     OW56721   9.161  11.537   3.971 -0.6732 -0.8799 -0.6133
50295SOL    HW156722   9.212  11.457   3.981 -1.2169 -1.2677 -0.8787
50295SOL    HW256723   9.218  11.606   4.005 -0.7117 -1.5530  0.8999
50296SOL     OW56724  11.857   4.475   2.577 -0.1888 -0.3574 -0.1973
50296SOL    HW156725  11.859   4.513   2.665 -1.4660 -0.3957 -0.1362
50296SOL    HW256726  11.949   4.461   2.555  0.3980  2.6524 -0.1802
50297SOL     OW56727   4.586   5.362   8.168 -0.1473  0.0892  0.3728
50297SOL    HW156728   4.609   5.282   8.120 -0.0830  0.5180 -0.3429
50297SOL    HW256729   4.607   5.343   8.259 -0.3384 -0.7822  0.2413
50298SOL     OW56730   3.027   7.774   6.020 -0.3668  0.0163  0.1706
50298SOL    HW156731   3.048   7.866   6.030  1.4669 -0.3999  0.6297
50298SOL    HW256732   3.027   7.739   6.110 -0.7623 -0.4712 -0.0142
50299SOL     OW56733  12.234   1.675   3.581 -0.6633  0.2759  0.3416
50299SOL    HW156734  12.316   1.712   3.549 -0.6939 -0.1378 -0.2319
50299SOL    HW256735  12.209   1.611   3.514 -0.6719 -0.6859  1.2474
50300SOL     OW56736   9.960   8.369   7.271  0.7297 -1.0943  0.2703
50300SOL    HW156737   9.942   8.276   7.276 -1.0700 -0.7604  0.6408
50300SOL    HW256738   9.962   8.388   7.177 -3.4248 -0.8128  0.0329
50301SOL     OW56739   8.994   6.275   9.508 -0.5748  0.8217  0.1233
50301SOL    HW156740   9.053   6.342   9.474  3.2633 -1.4459  1.6189
50301SOL    HW256741   8.999   6.284   9.603 -1.2438 -0.5414  0.3218
50302SOL     OW56742  11.402   7.071   0.479  0.1730 -0.4353 -0.2653
50302SOL    HW156743  11.307   7.082   0.478  0.3082  0.8625 -1.5212
50302SOL    HW256744  11.415   6.978   0.501 -1.3121 -0.2657  1.6561
50303SOL     OW56745   2.997   6.197   6.792  0.2273 -0.0104 -0.5905
50303SOL    HW156746   2.950   6.144   6.728  0.7093  1.6234 -2.3909
50303SOL    HW256747   3.047   6.260   6.740  0.3396  1.6738  1.4068
50304SOL     OW56748   5.349  12.290   5.426 -0.2795  0.1105 -1.0882
50304SOL    HW156749   5.380  12.372   5.465 -0.5963 -0.0356 -0.5162
50304SOL    HW256750   5.255  12.303   5.413 -0.8006 -0.9330  1.0992
50305SOL     OW56751   3.037   8.045   6.331 -0.5151 -0.7600 -0.1643
50305SOL    HW156752   3.034   8.015   6.240  0.9544 -0.9553 -0.1698
50305SOL    HW256753   3.046   8.140   6.326 -0.1614 -0.7981 -0.2235
50306SOL     OW56754   5.527   0.705   9.051 -0.2236  0.3588  0.6597
50306SOL    HW156755   5.531   0.678   8.959 -0.2360  0.3325  0.6671
50306SOL    HW256756   5.575   0.788   9.053 -0.8597  0.7327  0.4930
50307SOL     OW56757   6.103   0.416   3.069  0.4018 -0.4007  0.2578
50307SOL    HW156758   6.160   0.490   3.048  0.0322 -0.2617 -0.2833
50307SOL    HW256759   6.135   0.345   3.013  2.1477 -1.3337  2.3065
50308SOL     OW56760   4.995   7.239   4.633 -0.2531 -0.1584 -0.4727
50308SOL    HW156761   5.074   7.285   4.605  0.8424 -2.2634 -1.0510
50308SOL    HW256762   5.027   7.169   4.689 -1.4994 -2.0734 -2.0136
50309SOL     OW56763   4.873   9.358   3.924 -0.1803  0.0558 -0.0023
50309SOL    HW156764   4.874   9.376   4.018  0.6341  0.7417 -0.1275
50309SOL    HW256765   4.955   9.310   3.908  0.8889  1.9974 -0.7141
50310SOL     OW56766   5.868   7.535  10.923 -0.2776  0.1523  0.6755
50310SOL    HW156767   5.894   7.507  10.835 -2.0766  0.2452  0.0632
50310SOL    HW256768   5.840   7.626  10.912  3.9909  1.9288  2.3371
50311SOL     OW56769   5.658   4.834   7.066 -0.3996 -0.4179  0.3004
50311SOL    HW156770   5.711   4.881   7.002  0.8700 -1.1643  0.7475
50311SOL    HW256771   5.690   4.744   7.062 -1.2582 -0.7705  0.9966
50312SOL     OW56772   4.082   3.619   7.475 -0.0431  0.3017  0.2029
50312SOL    HW156773   4.028   3.623   7.553 -0.7967  0.0817 -0.2949
50312SOL    HW256774   4.143   3.547   7.492  0.6299  1.0590  1.0899
50313SOL     OW56775  11.645   4.559   4.830 -0.1322 -0.2490  0.0553
50313SOL    HW156776  11.665   4.569   4.737  0.3897 -1.0660  0.0645
50313SOL    HW256777  11.730   4.565   4.874 -0.5064  1.3535  0.6162
50314SOL     OW56778   8.921   1.615   9.702  0.4819  0.4885 -0.5455
50314SOL    HW156779   8.982   1.681   9.736  0.5544  0.9468 -1.5496
50314SOL    HW256780   8.956   1.532   9.735  0.7509  0.8880  0.1969
50315SOL     OW56781   8.883  10.988   2.613  0.1804  0.2593  0.0795
50315SOL    HW156782   8.796  10.991   2.655  0.1523  0.2907  0.0192
50315SOL    HW256783   8.867  11.014   2.523  0.1868 -0.1308 -0.0386
50316SOL     OW56784   8.188   2.830   3.873  0.5227  0.4638 -0.0088
50316SOL    HW156785   8.113   2.882   3.903  1.1127  1.0713  0.4531
50316SOL    HW256786   8.218   2.876   3.794 -1.6799 -1.7209 -2.3023
50317SOL     OW56787  10.011   9.232   0.001 -0.2229  0.3129 -0.1470
50317SOL    HW156788   9.989   9.249   0.093  0.4072  1.5943 -0.2164
50317SOL    HW256789   9.989   9.313  -0.044  1.3167  0.4027 -0.7992
50318SOL     OW56790  11.674   9.364   1.944 -0.1229  0.1754  0.0767
50318SOL    HW156791  11.644   9.434   2.002 -0.2423 -0.7699  1.1957
50318SOL    HW256792  11.650   9.284   1.989  0.1359 -0.6028 -1.1172
50319SOL     OW56793   6.287   5.871  12.153 -0.1812 -0.1002  0.0360
50319SOL    HW156794   6.340   5.892  12.076  1.6934 -1.5816  0.8427
50319SOL    HW256795   6.237   5.951  12.170 -0.4865  0.3506 -2.5377
50320SOL     OW56796  11.853   6.573   5.878 -0.0576  0.5462 -0.3709
50320SOL    HW156797  11.813   6.486   5.885 -0.4518  0.7972  0.7539
50320SOL    HW256798  11.796   6.629   5.932  0.4405  1.4101 -0.7304
50321SOL     OW56799  11.397   4.257   6.236  0.1860  0.1297  0.2614
50321SOL    HW156800  11.463   4.192   6.263 -1.3103 -2.0759 -1.0744
50321SOL    HW256801  11.315   4.226   6.275 -0.3803  1.9578  0.6125
50322SOL     OW56802  10.440  10.618   7.436 -0.3293 -0.4529 -0.2220
50322SOL    HW156803  10.416  10.579   7.351  0.1738 -0.5697 -0.3128
50322SOL    HW256804  10.474  10.545   7.487  0.3220 -0.1987 -0.2808
50323SOL     OW56805   0.444   1.174   8.943  0.3699 -0.3842  0.2043
50323SOL    HW156806   0.442   1.088   8.985  1.1319 -0.3062  0.4083
50323SOL    HW256807   0.382   1.166   8.870 -1.4977 -0.3206  1.6997
50324SOL     OW56808   8.941   5.308  11.856  0.0868  0.3675  0.2118
50324SOL    HW156809   9.001   5.380  11.872 -0.3775  0.9159 -0.4683
50324SOL    HW256810   8.979   5.261  11.781 -1.1140  1.6437 -1.2639
50325SOL     OW56811  12.190   5.592   5.584  0.3960  0.4111 -0.5173
50325SOL    HW156812  12.127   5.638   5.528  0.4307  1.9464  0.6637
50325SOL    HW256813  12.267   5.648   5.586  0.7632 -0.1006  0.2984
50326SOL     OW56814   8.747  12.195   7.896 -0.2299 -0.3980  0.5010
50326SOL    HW156815   8.809  12.265   7.917  0.9337 -1.4597  0.7007
50326SOL    HW256816   8.790  12.115   7.925 -1.5663 -1.2081  0.3375
50327SOL     OW56817   3.811   1.122   3.057 -0.0797 -1.1033 -0.2921
50327SOL    HW156818   3.770   1.038   3.077  0.0108 -1.4706 -1.5355
50327SOL    HW256819   3.777   1.145   2.970  1.6283 -0.9938 -0.9805
50328SOL     OW56820   6.158   3.015   0.862  0.1540 -0.2977 -0.1678
50328SOL    HW156821   6.139   3.106   0.881 -0.7045 -0.7122  1.0808
50328SOL    HW256822   6.073   2.971   0.865  0.2042 -0.8080 -2.9788
50329SOL     OW56823   3.859   2.558   0.293 -0.3058  0.0098  0.0496
50329SOL    HW156824   3.846   2.558   0.199  0.5690 -0.6577 -0.0765
50329SOL    HW256825   3.954   2.560   0.305 -0.3539 -1.5199  0.8842
50330SOL     OW56826   7.109   9.705   9.476 -0.3275  0.4833  0.0482
50330SOL    HW156827   7.051   9.763   9.526 -0.1077  1.8986 -1.2426
50330SOL    HW256828   7.113   9.746   9.389 -0.9011 -2.0046 -1.2348
50331SOL     OW56829   0.137   2.130   9.235  0.5725 -0.0121  0.2422
50331SOL    HW156830   0.052   2.102   9.269  0.2787  2.2478  1.5099
50331SOL    HW256831   0.199   2.110   9.306  0.7302  0.4416  0.2317
50332SOL     OW56832   1.555   7.731   0.930 -0.2104  0.7216  0.3727
50332SOL    HW156833   1.535   7.821   0.956  0.9630  1.4577 -1.1048
50332SOL    HW256834   1.645   7.717   0.960 -0.5698 -0.1834  1.0815
50333SOL     OW56835   3.350   9.884   3.031  0.1546 -1.4647  0.1599
50333SOL    HW156836   3.332   9.965   3.079  2.4168 -2.1157  2.3623
50333SOL    HW256837   3.443   9.867   3.047  0.6017 -2.7736 -3.0628
50334SOL     OW56838   8.564  11.649   0.728  0.4292  0.0734  0.2701
50334SOL    HW156839   8.530  11.738   0.739  1.7044  0.4844  1.2661
50334SOL    HW256840   8.491  11.592   0.752 -0.7298  0.8020 -1.3704
50335SOL     OW56841   4.349   1.073  10.537  0.0772  0.1447  0.2360
50335SOL    HW156842   4.369   1.081  10.444  0.8812  0.2479  0.4091
50335SOL    HW256843   4.257   1.047  10.540 -0.1473  0.8013 -0.5717
50336SOL     OW56844   3.491   6.289   1.556  0.2220  0.1685 -0.6868
50336SOL    HW156845   3.410   6.256   1.517  0.6457 -1.8271 -0.0193
50336SOL    HW256846   3.559   6.236   1.515  0.8396 -0.7202  1.4077
50337SOL     OW56847   6.379   0.221  11.240  0.0525 -0.1611 -0.0664
50337SOL    HW156848   6.347   0.188  11.156 -1.2230  0.5564  0.1200
50337SOL    HW256849   6.388   0.143  11.295 -1.1717 -0.4110 -0.2020
50338SOL     OW56850   2.300   1.842   7.491  0.0715  0.0174 -0.6844
50338SOL    HW156851   2.294   1.861   7.397  2.4445  1.5123 -0.6253
50338SOL    HW256852   2.271   1.923   7.533 -2.1599 -1.0456 -0.0176
50339SOL     OW56853  10.851  10.663   7.733 -0.3520  0.0773  0.1648
50339SOL    HW156854  10.920  10.597   7.735  0.7366  1.1633  0.0029
50339SOL    HW256855  10.823  10.664   7.641  0.1867  0.3779 -0.0028
50340SOL     OW56856  10.788   8.576   3.748 -0.1057 -0.2554  0.5249
50340SOL    HW156857  10.764   8.645   3.687  1.6908 -0.2154 -0.2000
50340SOL    HW256858  10.869   8.606   3.789 -0.0023 -1.3440  1.1818
50341SOL     OW56859   5.418   1.496  10.196  0.0529 -0.4028 -0.3803
50341SOL    HW156860   5.466   1.574  10.225 -1.0309  0.3705 -0.5783
50341SOL    HW256861   5.451   1.425  10.250  0.9108  0.2398 -0.0417
50342SOL     OW56862   8.065  10.708   3.151 -0.0344  0.2875  0.4871
50342SOL    HW156863   8.036  10.663   3.231  0.3867  0.1173  0.5472
50342SOL    HW256864   8.139  10.656   3.120 -0.1822  0.3673 -0.0040
50343SOL     OW56865  10.667   7.915   0.666 -0.0581  0.0246  0.0166
50343SOL    HW156866  10.697   7.913   0.757 -0.1940 -0.6597  0.0509
50343SOL    HW256867  10.745   7.936   0.615  0.1332 -0.1401  0.2410
50344SOL     OW56868   6.708  11.105   8.244 -0.1605  0.3499 -0.4939
50344SOL    HW156869   6.719  11.011   8.225  2.4750  0.7903 -1.6844
50344SOL    HW256870   6.728  11.148   8.161 -3.2863  1.9838 -0.5251
50345SOL     OW56871   3.106   7.609   8.377 -0.2980  0.3079 -0.2188
50345SOL    HW156872   3.065   7.648   8.300 -2.7223  1.4999  1.5203
50345SOL    HW256873   3.059   7.527   8.390  0.6858 -0.3069 -0.4723
50346SOL     OW56874   6.246   9.301   8.815  0.3961 -0.1105 -0.3256
50346SOL    HW156875   6.152   9.293   8.831  0.0953 -0.1155 -1.8682
50346SOL    HW256876   6.252   9.354   8.736  1.6093 -1.4128 -1.1671
50347SOL     OW56877   8.239   0.606   8.952 -0.4950 -0.3498  0.0170
50347SOL    HW156878   8.191   0.533   8.991 -0.6202 -0.1827  0.1722
50347SOL    HW256879   8.174   0.676   8.942  0.0454  0.4316  1.6578
50348SOL     OW56880   6.653   5.227   8.720  0.1558  0.0684 -0.8012
50348SOL    HW156881   6.710   5.294   8.757  0.9574  0.7467 -3.0805
50348SOL    HW256882   6.566   5.247   8.755  0.7680  0.9230  0.2819
50349SOL     OW56883  10.926   9.501   8.448  0.4919 -0.5872  0.5031
50349SOL    HW156884  10.832   9.510   8.461  0.3180 -0.7920 -0.5440
50349SOL    HW256885  10.938   9.507   8.353  1.1894 -3.5269  0.3011
50350SOL     OW56886   2.196   1.815   0.249  0.4739  0.9494  0.1737
50350SOL    HW156887   2.213   1.817   0.343 -0.7737 -3.4542  0.6843
50350SOL    HW256888   2.104   1.838   0.240  0.0496 -0.6081  0.3145
50351SOL     OW56889   6.635  11.474   5.210  0.4485 -0.3484 -0.3853
50351SOL    HW156890   6.664  11.435   5.292 -1.1526 -0.0114  0.3753
50351SOL    HW256891   6.676  11.561   5.209 -0.6541  0.2168  0.7854
50352SOL     OW56892   5.614  11.844   3.616  0.5240  0.4734 -0.3543
50352SOL    HW156893   5.643  11.761   3.576 -1.2396 -0.2321 -0.2536
50352SOL    HW256894   5.573  11.892   3.544 -0.7398  0.1270  0.1081
50353SOL     OW56895   2.356   5.996   7.318 -0.1230  0.3710  0.1827
50353SOL    HW156896   2.351   6.086   7.287  1.3397  1.3261  2.4336
50353SOL    HW256897   2.423   5.955   7.263 -0.5000  0.7571 -0.5843
50354SOL     OW56898   4.332   5.514   2.628  0.0174  0.1163  0.7464
50354SOL    HW156899   4.329   5.419   2.617 -0.3843 -0.0555  2.0847
50354SOL    HW256900   4.293   5.549   2.548  0.0467 -0.8496  0.2945
50355SOL     OW56901   2.073   3.919   5.916  0.1153 -0.3532  1.4472
50355SOL    HW156902   2.096   3.901   5.825 -1.9708 -0.1399  0.8482
50355SOL    HW256903   1.997   3.976   5.912 -0.3063 -0.7115  3.3287
50356SOL     OW56904  10.373   3.514   7.171 -0.4816 -0.1995 -0.1404
50356SOL    HW156905  10.446   3.467   7.212 -1.6259 -1.8542  0.0950
50356SOL    HW256906  10.358   3.588   7.230  0.3660 -0.3922  0.3460
50357SOL     OW56907   2.770   8.522   4.849  0.3239  0.2286 -0.0458
50357SOL    HW156908   2.725   8.604   4.826 -0.4939 -0.2613 -0.2300
50357SOL    HW256909   2.699   8.461   4.871  0.8946 -0.5853 -0.4111
50358SOL     OW56910   6.535   9.437   2.077  0.2337  0.0207 -0.0864
50358SOL    HW156911   6.497   9.410   1.994 -0.1052 -1.1044  0.4106
50358SOL    HW256912   6.629   9.443   2.060  0.1803 -0.3315 -0.5271
50359SOL     OW56913   5.446   4.539   9.573  0.4525  0.4376 -0.3384
50359SOL    HW156914   5.505   4.464   9.572  1.2507  1.0254  0.7771
50359SOL    HW256915   5.366   4.507   9.532  0.9276 -0.8916 -0.2671
50360SOL     OW56916   2.509   0.086   9.512 -0.2255 -0.0455  0.6279
50360SOL    HW156917   2.483   0.128   9.594 -1.5908 -0.3249  0.3701
50360SOL    HW256918   2.589   0.132   9.486 -0.3718  0.7795  1.5584
50361SOL     OW56919   2.582   7.000   8.975  0.0229  0.3489 -0.4410
50361SOL    HW156920   2.571   6.990   9.070 -0.6416 -0.0466 -0.5538
50361SOL    HW256921   2.496   7.027   8.944  0.7638  2.6567 -0.6758
50362SOL     OW56922   6.698   3.942   8.449  0.0616  0.3655  0.1786
50362SOL    HW156923   6.637   4.015   8.439  0.4526  0.7246  0.3893
50362SOL    HW256924   6.746   3.961   8.529  2.4024  1.5472 -1.4052
50363SOL     OW56925   0.073   8.422  12.143 -0.4055 -0.1584 -0.0847
50363SOL    HW156926   0.073   8.376  12.059 -0.3556 -0.9320  0.3259
50363SOL    HW256927   0.090   8.514  12.121 -1.0131 -0.2537 -0.9681
50364SOL     OW56928   0.456  11.231   2.074 -0.5984  0.2648 -0.4591
50364SOL    HW156929   0.457  11.279   2.157  0.0019 -2.2500  1.0640
50364SOL    HW256930   0.401  11.285   2.017 -1.9239  1.5611  1.8855
50365SOL     OW56931   8.520   0.672  11.868 -0.0514 -0.2972  1.0164
50365SOL    HW156932   8.513   0.737  11.797 -0.6906  1.0776  2.2955
50365SOL    HW256933   8.443   0.617  11.858  0.3143 -0.6659  0.1259
50366SOL     OW56934   3.527   8.557   2.972  0.0707  0.0614  0.2762
50366SOL    HW156935   3.547   8.479   2.921  0.9091  1.2209 -1.2481
50366SOL    HW256936   3.601   8.568   3.031 -0.2285 -0.4951  0.7602
50367SOL     OW56937   6.233   4.406   6.395  0.2953  0.2417  0.2009
50367SOL    HW156938   6.257   4.414   6.487 -0.2377  1.4689  0.2469
50367SOL    HW256939   6.173   4.479   6.379  0.0355 -0.2129 -1.0090
50368SOL     OW56940   6.521   1.323   2.592 -0.4892 -0.3188  0.1358
50368SOL    HW156941   6.577   1.392   2.627 -0.2897  0.3345 -1.3971
50368SOL    HW256942   6.570   1.242   2.607 -1.4536 -0.4328  3.5035
50369SOL     OW56943   8.018  10.815   4.464 -0.0226  0.4172 -0.2004
50369SOL    HW156944   8.025  10.731   4.418 -0.1991  1.1504 -1.6414
50369SOL    HW256945   8.104  10.829   4.502  0.0311 -0.3822 -0.0135
50370SOL     OW56946   1.688   4.193   3.679  0.0140 -0.0351 -0.4354
50370SOL    HW156947   1.655   4.176   3.590 -0.4171 -0.3427 -0.2189
50370SOL    HW256948   1.692   4.289   3.685  0.7432 -0.0153 -1.0374
50371SOL     OW56949   3.948  10.369   1.038  0.2631  0.2563 -0.6230
50371SOL    HW156950   3.897  10.421   0.976  0.0445  1.3434  0.4269
50371SOL    HW256951   3.957  10.425   1.115  1.1834 -0.7593  0.0471
50372SOL     OW56952   1.404   9.678   9.959 -0.0834 -0.3614  0.0030
50372SOL    HW156953   1.352   9.669   9.879  0.1729  1.1476 -0.3666
50372SOL    HW256954   1.442   9.765   9.953  0.6458 -0.5576  1.3723
50373SOL     OW56955   0.391   0.554   8.142  0.2315  0.0456 -0.1707
50373SOL    HW156956   0.454   0.482   8.133 -1.1711 -1.2297 -0.1285
50373SOL    HW256957   0.444   0.633   8.132  2.0532 -0.9355  1.0773
50374SOL     OW56958   4.151  10.029   5.721 -0.6136  0.1606  0.4361
50374SOL    HW156959   4.124   9.979   5.644  0.1202  0.3190  0.0700
50374SOL    HW256960   4.231   9.985   5.751 -1.3530 -0.4316  1.6273
50375SOL     OW56961  11.294  10.520   2.766 -0.2988 -1.0805  0.3297
50375SOL    HW156962  11.306  10.471   2.847 -0.3269 -0.8206  0.4925
50375SOL    HW256963  11.365  10.584   2.766 -0.6947 -0.6398  0.4754
50376SOL     OW56964   4.124   9.907   9.786 -0.2751  0.1402 -0.2278
50376SOL    HW156965   4.165   9.859   9.714  0.9124  1.1308 -0.2382
50376SOL    HW256966   4.070   9.841   9.830  0.0467 -0.8116 -1.1872
50377SOL     OW56967   6.271   8.581   8.853  0.1498  0.5500  0.2528
50377SOL    HW156968   6.244   8.597   8.762  0.5046 -1.7887 -0.3336
50377SOL    HW256969   6.208   8.516   8.885  1.4794 -0.5066  0.8285
50378SOL     OW56970   0.492   5.621   1.758 -0.1400  0.4609 -0.1928
50378SOL    HW156971   0.496   5.702   1.707  2.0195  0.2791 -0.3701
50378SOL    HW256972   0.492   5.551   1.693 -3.2366  0.2338 -0.1009
50379SOL     OW56973   4.493   4.403   5.429 -0.1012  0.0372  0.6374
50379SOL    HW156974   4.419   4.412   5.369 -0.0336 -0.7791  0.4142
50379SOL    HW256975   4.476   4.322   5.477  0.4095  0.0888  0.9194
50380SOL     OW56976   7.357   1.716  11.792  0.5045 -0.2946 -0.2344
50380SOL    HW156977   7.445   1.749  11.810  0.0927  0.7667 -0.0694
50380SOL    HW256978   7.341   1.651  11.861  1.0250 -0.2302 -0.0478
50381SOL     OW56979  11.977  12.202  11.681 -0.6846  0.0128  0.2693
50381SOL    HW156980  12.035  12.146  11.630  0.8187  1.1378  0.6755
50381SOL    HW256981  11.921  12.141  11.729 -0.2698 -1.0926 -0.6093
50382SOL     OW56982   8.960   1.857  11.523 -0.1043 -0.5720  0.2911
50382SOL    HW156983   8.893   1.793  11.544  0.4786 -1.9638 -1.8065
50382SOL    HW256984   9.042   1.816  11.550  0.1497 -0.0293  0.3696
50383SOL     OW56985   0.384  11.615   7.811  0.0823  0.8324 -0.0723
50383SOL    HW156986   0.331  11.551   7.857  1.1553 -1.0219 -1.2788
50383SOL    HW256987   0.346  11.619   7.724  2.1598 -1.0300 -1.1746
50384SOL     OW56988   8.872   5.120   1.873  0.2258  0.2837 -0.4719
50384SOL    HW156989   8.903   5.180   1.942  1.1659 -0.0964 -0.5478
50384SOL    HW256990   8.827   5.177   1.811 -0.5656  0.6445  0.4058
50385SOL     OW56991   8.728   8.041   8.017  0.1737 -0.8284  0.4856
50385SOL    HW156992   8.714   7.995   8.099  1.9538 -0.6683  0.9343
50385SOL    HW256993   8.818   8.075   8.024 -1.1781  3.3294  0.5245
50386SOL     OW56994   1.956   0.714   7.379 -0.0400  0.5601 -0.2795
50386SOL    HW156995   1.906   0.762   7.446  0.5826 -0.6787  1.1306
50386SOL    HW256996   1.978   0.631   7.421  3.2651  1.0639 -0.7993
50387SOL     OW56997   0.800  11.773  11.149  0.0668 -0.2397 -0.2272
50387SOL    HW156998   0.803  11.821  11.231  1.0761 -0.1726 -0.2941
50387SOL    HW256999   0.714  11.731  11.149 -0.4418  0.7857  0.2665
50388SOL     OW57000  12.072   5.379   5.008  0.0552  0.2710  0.1274
50388SOL    HW157001  12.085   5.286   5.025 -0.0060  0.4633  1.2975
50388SOL    HW257002  12.055   5.417   5.094  0.5878  1.4415 -0.2594
50389SOL     OW57003   7.044  10.465   3.383 -0.1108 -0.2348  0.4379
50389SOL    HW157004   7.049  10.389   3.440  0.5898  0.3751  1.2331
50389SOL    HW257005   7.052  10.540   3.443 -0.5818  0.4537 -0.3413
50390SOL     OW57006  10.516   3.110   5.577 -0.0698 -0.0432 -0.0108
50390SOL    HW157007  10.473   3.068   5.503  1.0848 -0.5673 -0.4036
50390SOL    HW257008  10.457   3.182   5.601 -1.3193 -0.9423 -0.2958
50391SOL     OW57009  10.509   1.240   9.530 -0.0222 -0.7311  0.4008
50391SOL    HW157010  10.504   1.297   9.607 -0.5889 -0.5387  0.2276
50391SOL    HW257011  10.423   1.249   9.488  0.6963  0.1555 -0.9618
50392SOL     OW57012   0.137   0.650   9.038  0.0661 -0.0997  0.3883
50392SOL    HW157013   0.113   0.578   8.981 -1.2248 -0.0119  0.7911
50392SOL    HW257014   0.145   0.726   8.980 -0.4118 -0.1805  0.2189
50393SOL     OW57015   0.066   6.903   2.259 -0.9323 -0.1419  0.3275
50393SOL    HW157016   0.118   6.976   2.293 -4.0040  2.3923  0.1068
50393SOL    HW257017   0.006   6.881   2.330  0.0429 -2.7049  0.4564
50394SOL     OW57018   6.065   5.695   9.879  0.1666  0.2951 -0.1728
50394SOL    HW157019   6.072   5.788   9.858  1.0857  0.1268 -0.6896
50394SOL    HW257020   6.013   5.658   9.807 -0.7392  0.5018  0.3609
50395SOL     OW57021   8.597   1.997   9.218  0.0213  0.1011  0.2981
50395SOL    HW157022   8.663   1.969   9.154 -0.6587  0.8274 -0.7453
50395SOL    HW257023   8.545   1.918   9.234  0.5826 -0.2456  0.4349
50396SOL     OW57024   5.456   7.997   5.938  0.8179 -0.2978  0.1902
50396SOL    HW157025   5.467   7.907   5.907  0.7610 -0.3126  0.2122
50396SOL    HW257026   5.492   8.052   5.868  1.0309 -0.3448  0.2630
50397SOL     OW57027   0.700  11.689   5.580  0.5637 -0.3907 -0.2198
50397SOL    HW157028   0.635  11.635   5.535  0.2394  0.5292 -0.8892
50397SOL    HW257029   0.666  11.697   5.669 -1.0623  1.2959 -0.9286
50398SOL     OW57030  11.665  11.703   4.836 -0.1383 -0.4077  0.0941
50398SOL    HW157031  11.738  11.644   4.814  1.6636  0.8557  2.1991
50398SOL    HW257032  11.648  11.752   4.756  1.5124 -0.5722 -0.3899
50399SOL     OW57033   1.242   8.457  11.165  0.0999  0.2989 -0.1613
50399SOL    HW157034   1.171   8.521  11.172 -0.3973 -0.0939 -1.3187
50399SOL    HW257035   1.199   8.376  11.137  1.0148  0.1047 -1.0752
50400SOL     OW57036   5.853  12.014  11.585  0.3093  0.1189  0.5012
50400SOL    HW157037   5.933  12.066  11.577  0.7713 -0.7701 -0.9292
50400SOL    HW257038   5.806  12.030  11.504 -2.5537  3.0515  2.4844
50401SOL     OW57039   8.560   3.870   7.149 -0.5213 -0.5061  0.3402
50401SOL    HW157040   8.560   3.778   7.123 -1.3753 -0.5176  0.3657
50401SOL    HW257041   8.477   3.883   7.194 -0.3130  0.2285  0.5351
50402SOL     OW57042   1.052   2.067   5.848 -0.3395  0.2896 -0.8365
50402SOL    HW157043   1.084   2.005   5.913 -1.3890  0.5974 -0.0020
50402SOL    HW257044   1.088   2.036   5.765  1.0067 -0.1211 -0.1268
50403SOL     OW57045   4.920   1.931   0.123 -0.0033  0.2825  0.0723
50403SOL    HW157046   4.918   2.027   0.127 -0.4470  0.2739  0.1106
50403SOL    HW257047   4.835   1.904   0.158  0.4219 -0.1498  0.8171
50404SOL     OW57048   2.709   1.800   6.723  0.1498 -0.2972  0.7288
50404SOL    HW157049   2.798   1.832   6.734  1.0826 -1.8533 -1.5091
50404SOL    HW257050   2.659   1.876   6.692  1.6383 -0.1992 -1.6764
50405SOL     OW57051   5.089   0.478   0.661 -0.2657 -0.3747  0.1159
50405SOL    HW157052   5.049   0.438   0.583 -1.1746 -0.9025  0.8344
50405SOL    HW257053   5.033   0.450   0.733  0.0376  0.8785  0.8502
50406SOL     OW57054   0.971   3.764   3.530 -0.0069  0.0900  0.0670
50406SOL    HW157055   1.000   3.673   3.530 -1.2594 -0.3432  0.7560
50406SOL    HW257056   1.050   3.815   3.511  0.7655 -1.1193 -0.0657
50407SOL     OW57057   2.768   4.436   1.004  0.0064  0.1474  0.6485
50407SOL    HW157058   2.733   4.368   0.948 -0.7288  0.2339  0.9834
50407SOL    HW257059   2.863   4.420   1.007  0.4316  1.4659 -2.3933
50408SOL     OW57060   8.363   0.308   8.079  0.2994  0.3589 -0.3137
50408SOL    HW157061   8.340   0.215   8.083  2.3725 -0.1734  0.1424
50408SOL    HW257062   8.374   0.325   7.986 -1.9439  0.6919 -0.5818
50409SOL     OW57063   2.210   0.995   0.062 -0.6262 -0.2814 -0.0369
50409SOL    HW157064   2.198   1.088   0.080 -0.8374  0.1097 -2.0086
50409SOL    HW257065   2.235   0.957   0.146  0.3043  1.6876  0.6170
50410SOL     OW57066   4.803   9.253   3.201  0.0933 -0.3132 -0.1782
50410SOL    HW157067   4.791   9.337   3.158 -0.8371  0.5095  1.5519
50410SOL    HW257068   4.893   9.254   3.233  0.3876 -0.4100 -0.9742
50411SOL     OW57069   6.701   7.796   2.107  0.9766  0.3193 -0.0070
50411SOL    HW157070   6.779   7.793   2.051 -0.5365 -1.5584 -2.2165
50411SOL    HW257071   6.636   7.842   2.055 -0.1938 -0.6132  0.5825
50412SOL     OW57072   1.048  12.310   4.486  0.5785  0.0361  0.6062
50412SOL    HW157073   1.068  12.394   4.445  0.4179  0.8198  2.0490
50412SOL    HW257074   1.059  12.327   4.580  0.1534 -1.4560  0.9436
50413SOL     OW57075   6.506   7.320   9.921  0.1380  0.3216 -0.0333
50413SOL    HW157076   6.420   7.334   9.959  0.2288 -0.7215  0.5930
50413SOL    HW257077   6.498   7.347   9.830 -0.3774  1.8539  0.4399
50414SOL     OW57078   9.833   9.604  11.564 -0.2074  0.4219  0.6810
50414SOL    HW157079   9.836   9.651  11.647  0.9741 -0.2157  1.0206
50414SOL    HW257080   9.740   9.602  11.541 -0.6562 -0.1249  2.4186
50415SOL     OW57081   9.484   5.730   5.168 -0.2206 -0.5986 -0.1996
50415SOL    HW157082   9.429   5.660   5.202 -0.2027 -0.2089  0.6492
50415SOL    HW257083   9.437   5.811   5.190 -0.6419 -0.3507 -1.8822
50416SOL     OW57084  11.445   9.085   1.165 -0.0600 -0.2592  0.0281
50416SOL    HW157085  11.428   9.006   1.113  2.1849 -1.4455  0.9547
50416SOL    HW257086  11.426   9.059   1.255 -0.5967  0.6889  0.1946
50417SOL     OW57087   5.885   4.086   2.420 -0.3345 -0.4540 -0.2236
50417SOL    HW157088   5.888   3.995   2.389 -2.1195 -0.2364 -1.1514
50417SOL    HW257089   5.961   4.127   2.377  0.6883 -1.5511  0.4700
50418SOL     OW57090   1.450   5.410  10.773 -0.7153  0.5255  0.5152
50418SOL    HW157091   1.465   5.499  10.805 -0.7092  1.1212 -1.0828
50418SOL    HW257092   1.508   5.356  10.826 -0.9377  1.4170  1.7153
50419SOL     OW57093   0.549  11.759  10.799  0.3383  0.2421  0.2843
50419SOL    HW157094   0.562  11.845  10.839  1.3178 -0.9142  2.6306
50419SOL    HW257095   0.464  11.729  10.833  0.3852 -0.0525  0.1467
50420SOL     OW57096   6.497  10.937   6.073  0.2233 -0.8347  0.2998
50420SOL    HW157097   6.542  10.976   5.998 -0.7846 -1.0101 -0.4189
50420SOL    HW257098   6.523  10.991   6.147  1.2418 -0.6603 -0.1633
50421SOL     OW57099   5.561  11.601   9.230 -0.1315  0.7880 -0.1129
50421SOL    HW157100   5.472  11.588   9.197 -0.3363 -1.3221  1.0623
50421SOL    HW257101   5.584  11.690   9.204 -2.3189  1.1470 -1.0345
50422SOL     OW57102   6.938   5.314   1.362  0.4249 -0.1290  0.0833
50422SOL    HW157103   6.893   5.365   1.294  1.7406  0.8056 -0.1135
50422SOL    HW257104   6.949   5.376   1.434  1.1656 -0.4268  0.2244
50423SOL     OW57105   0.895   6.177   8.524 -0.0528  0.1179  0.3030
50423SOL    HW157106   0.827   6.165   8.591 -0.7671 -0.1847 -0.4635
50423SOL    HW257107   0.934   6.262   8.545 -0.2856  0.0431  1.0837
50424SOL     OW57108   0.328   4.624   8.998 -0.5908  0.0531  0.7798
50424SOL    HW157109   0.311   4.556   8.933  2.0509  2.0063 -2.2648
50424SOL    HW257110   0.297   4.705   8.956 -0.0759  1.2336  2.5758
50425SOL     OW57111   4.370   5.306   7.310  0.3895 -0.1407  0.3304
50425SOL    HW157112   4.292   5.284   7.360  0.7233  0.9243  1.3424
50425SOL    HW257113   4.412   5.222   7.294 -0.6668 -0.6726  0.2365
50426SOL     OW57114   9.875   0.133   1.843 -0.6080 -0.0292  0.0991
50426SOL    HW157115   9.944   0.199   1.839  0.4098 -1.1199 -0.8291
50426SOL    HW257116   9.878   0.090   1.758 -1.0054 -1.5144  0.8121
50427SOL     OW57117   8.394   2.543   5.936 -0.2759 -0.3098 -0.4522
50427SOL    HW157118   8.455   2.478   5.901 -0.7327 -0.8542 -0.2461
50427SOL    HW257119   8.390   2.524   6.029 -2.6575 -1.9295 -0.7891
50428SOL     OW57120   9.018  10.174   4.649 -0.0876 -0.0061 -0.3589
50428SOL    HW157121   9.111  10.181   4.670  0.2846  0.0948 -1.8880
50428SOL    HW257122   8.973  10.192   4.731  1.2492 -1.5867  0.7767
50429SOL     OW57123  10.447   5.757   7.984 -0.2132  0.4430  0.3606
50429SOL    HW157124  10.489   5.798   8.059  0.0094  0.4134  0.2531
50429SOL    HW257125  10.365   5.805   7.972 -1.2260 -0.8147  1.8508
50430SOL     OW57126   8.397   2.834   1.271  0.4115 -0.2773  0.7613
50430SOL    HW157127   8.400   2.913   1.324  0.9833 -0.0820  0.4429
50430SOL    HW257128   8.444   2.857   1.191 -1.3911 -0.1946 -0.3319
50431SOL     OW57129  12.250  11.371   1.012  0.8511  0.0295 -0.1515
50431SOL    HW157130  12.182  11.303   1.010  1.4474 -0.5665 -0.3595
50431SOL    HW257131  12.203  11.452   0.991  0.0704 -0.2577  0.4531
50432SOL     OW57132   9.826  10.601   7.956 -0.1022 -0.1154  0.1621
50432SOL    HW157133   9.844  10.603   8.050 -1.4226 -3.0921  0.5736
50432SOL    HW257134   9.898  10.552   7.918  1.4690  2.7026 -0.7869
50433SOL     OW57135   1.777   6.912   7.779 -0.6262  0.4964 -0.0514
50433SOL    HW157136   1.684   6.933   7.779 -0.6766  0.3641  1.1948
50433SOL    HW257137   1.815   6.971   7.845 -0.1587 -0.7530  0.8350
50434SOL     OW57138   0.611   6.369   9.637 -0.1919 -0.2258  0.3551
50434SOL    HW157139   0.678   6.306   9.608 -0.7696 -0.4278 -0.5665
50434SOL    HW257140   0.532   6.317   9.647 -0.8275  0.4466 -1.0083
50435SOL     OW57141   8.091   9.127   3.478  0.1721 -0.5089 -0.5497
50435SOL    HW157142   8.101   9.209   3.527  0.4157 -0.2918 -0.9552
50435SOL    HW257143   8.013   9.141   3.424  0.2502 -0.5196 -0.6654
50436SOL     OW57144   7.671   6.689  11.975 -0.7153  0.4566  0.2599
50436SOL    HW157145   7.635   6.635  12.045 -0.5392  1.4354  1.1251
50436SOL    HW257146   7.699   6.769  12.018 -1.2311  1.3677 -1.0468
50437SOL     OW57147   7.034  10.340   4.585  0.2010  1.3109  0.5003
50437SOL    HW157148   7.023  10.247   4.600  2.2760  0.5448 -1.8983
50437SOL    HW257149   7.115  10.363   4.630  0.0749  1.7894  0.4955
50438SOL     OW57150   7.784   9.864  12.326  0.2465 -0.0588  0.3821
50438SOL    HW157151   7.828   9.934  12.375 -0.6561  1.1544 -0.4971
50438SOL    HW257152   7.743   9.908  12.252  0.5859 -1.6887 -0.8415
50439SOL     OW57153   4.263   2.298   8.232  0.3417 -0.5981  0.8882
50439SOL    HW157154   4.189   2.240   8.213  0.7955 -0.8193 -0.2891
50439SOL    HW257155   4.334   2.238   8.254  1.0551 -0.5855 -1.1668
50440SOL     OW57156   2.929   6.867   9.034 -0.4188 -0.9795 -0.1379
50440SOL    HW157157   2.907   6.937   9.096  0.0239 -0.0147 -1.0516
50440SOL    HW257158   3.006   6.899   8.987 -0.4699 -1.8996 -0.8806
50441SOL     OW57159   7.216   2.903   9.014  0.8348  1.2082 -0.1105
50441SOL    HW157160   7.232   2.910   8.919 -0.4782  0.9923 -0.3764
50441SOL    HW257161   7.136   2.851   9.020  2.1160 -0.7017  1.2216
50442SOL     OW57162   8.728   2.249   4.216 -0.4019 -0.0300 -0.2578
50442SOL    HW157163   8.698   2.339   4.207  0.1222  0.0446 -1.4820
50442SOL    HW257164   8.671   2.199   4.158  0.6390 -0.1608 -1.1880
50443SOL     OW57165   1.904   4.806   0.159 -0.1220 -0.0280  0.6309
50443SOL    HW157166   1.853   4.788   0.080  0.6208 -0.7864  0.3136
50443SOL    HW257167   1.972   4.739   0.160  1.5609  1.5966  0.4729
50444SOL     OW57168   6.096  10.395   6.586  0.1972 -0.0692 -0.0412
50444SOL    HW157169   6.162  10.340   6.544 -0.6084 -1.1872  0.0903
50444SOL    HW257170   6.066  10.454   6.517 -0.5938 -1.3925 -0.8690
50445SOL     OW57171   5.857  10.049  10.661  0.5900 -0.4144  0.0570
50445SOL    HW157172   5.829  10.110  10.594  0.8995 -0.5619 -0.2103
50445SOL    HW257173   5.778  10.031  10.712 -0.1509 -1.9264 -1.5383
50446SOL     OW57174   5.715  11.885   5.889 -0.0263  0.2166 -0.0574
50446SOL    HW157175   5.712  11.929   5.974 -0.0649 -0.8192  0.4805
50446SOL    HW257176   5.719  11.957   5.826  2.9218  1.0497  0.8963
50447SOL     OW57177   1.076  10.886   6.090  0.1302 -0.1278 -0.1764
50447SOL    HW157178   1.139  10.955   6.113  0.3726 -0.4082  0.0128
50447SOL    HW257179   1.058  10.842   6.173  0.3732 -0.6189 -0.3798
50448SOL     OW57180  10.435   0.743   6.515  0.5503  0.5266  0.0718
50448SOL    HW157181  10.387   0.820   6.547  1.0243  1.0226 -0.3816
50448SOL    HW257182  10.368   0.677   6.501  0.2257  0.5800  1.2543
50449SOL     OW57183   0.105  10.669   1.075 -0.0429 -0.2163 -0.4524
50449SOL    HW157184   0.114  10.688   1.169 -0.1473  1.3647 -0.7454
50449SOL    HW257185   0.154  10.738   1.031 -2.3838  0.7677 -1.6574
50450SOL     OW57186   3.270   0.007   7.063  0.1666 -0.2948 -0.2079
50450SOL    HW157187   3.271  -0.030   6.975  0.3445 -0.9480  0.0552
50450SOL    HW257188   3.362   0.005   7.091  0.1816  0.4073 -0.2092
50451SOL     OW57189   3.424  10.391   3.888  0.2561  0.2611 -0.1229
50451SOL    HW157190   3.435  10.374   3.981  0.2787 -1.6289 -0.4331
50451SOL    HW257191   3.502  10.355   3.847 -0.6304 -0.6764 -1.0363
50452SOL     OW57192   0.500   4.301   4.032 -0.0445  0.2212  0.3207
50452SOL    HW157193   0.483   4.240   4.103 -1.1134  2.0505  1.7332
50452SOL    HW257194   0.549   4.250   3.967  1.3582 -1.4133  2.5248
50453SOL     OW57195  11.418   0.465   6.150  0.4681  0.2360  0.0268
50453SOL    HW157196  11.425   0.445   6.243 -1.5919 -0.6833  0.0465
50453SOL    HW257197  11.444   0.556   6.143  3.7549 -0.5144  0.9757
50454SOL     OW57198   4.328   5.807   0.376 -0.1555 -0.5795 -0.4747
50454SOL    HW157199   4.323   5.887   0.324 -0.4838  0.8617  1.6571
50454SOL    HW257200   4.279   5.827   0.455  0.9557 -2.4097  0.7435
50455SOL     OW57201   7.540   8.935   9.563 -0.0691  0.3301 -0.3693
50455SOL    HW157202   7.548   8.893   9.648  1.0408  0.3558 -0.4473
50455SOL    HW257203   7.552   9.029   9.580 -1.8552  0.5715 -0.2913
50456SOL     OW57204   4.137   2.191   2.297  0.4558  0.2068 -0.7122
50456SOL    HW157205   4.042   2.181   2.297  0.5810 -1.5760 -2.2900
50456SOL    HW257206   4.152   2.285   2.299 -1.3151  0.5096  0.2635
50457SOL     OW57207   8.733   4.012   8.372  0.1480 -0.1539 -0.4661
50457SOL    HW157208   8.793   4.030   8.300  0.7167  2.5071  0.5265
50457SOL    HW257209   8.783   4.036   8.451 -1.2645 -0.6126  0.6171
50458SOL     OW57210   6.026   6.282   0.880 -0.1369 -0.1194  0.7714
50458SOL    HW157211   6.075   6.321   0.808  0.7748 -0.4981  1.1753
50458SOL    HW257212   6.060   6.193   0.887 -1.4660 -0.6659  0.5317
50459SOL     OW57213   0.730  11.063   0.092 -0.0779  0.0755 -0.8818
50459SOL    HW157214   0.793  11.094   0.157 -0.5851  1.2303 -0.9260
50459SOL    HW257215   0.742  11.121   0.017 -0.3155 -0.5096 -1.3765
50460SOL     OW57216   0.280   0.464  10.492  0.3499  0.1402 -0.1181
50460SOL    HW157217   0.278   0.469  10.588 -1.5270 -2.0901  0.0625
50460SOL    HW257218   0.347   0.399  10.473 -0.2738 -0.4950 -0.1979
50461SOL     OW57219   6.150  10.874   1.416  0.1165 -0.1305  0.1669
50461SOL    HW157220   6.067  10.848   1.378  0.3729 -0.2308 -0.3290
50461SOL    HW257221   6.206  10.797   1.409  0.3068 -0.0119  0.3416
50462SOL     OW57222   9.045   9.316   3.197  0.1608 -0.0381 -0.0165
50462SOL    HW157223   8.988   9.393   3.195 -1.7196 -1.3527 -2.5779
50462SOL    HW257224   9.119   9.340   3.141 -0.5090 -0.1326 -0.9554
50463SOL     OW57225   6.070   9.054  11.015 -0.4470 -0.0598 -0.3628
50463SOL    HW157226   5.976   9.068  11.030 -0.8882 -1.6209 -1.3711
50463SOL    HW257227   6.113   9.088  11.093 -1.8939  0.2579  0.3200
50464SOL     OW57228   1.602  12.177   2.164  0.3820 -0.5121 -0.1400
50464SOL    HW157229   1.528  12.134   2.122  1.6783 -2.6477 -0.4260
50464SOL    HW257230   1.676  12.161   2.105  1.2063  1.0079  0.4326
50465SOL     OW57231   5.329   6.062   9.308 -0.4859  0.0819  0.1776
50465SOL    HW157232   5.330   6.108   9.224 -1.2406 -0.9900 -0.4385
50465SOL    HW257233   5.414   6.018   9.312  0.5463  2.0472  1.1045
50466SOL     OW57234   9.513   9.298   4.294 -0.0156 -0.2340  0.8377
50466SOL    HW157235   9.606   9.286   4.314  0.4483 -0.3190 -1.2000
50466SOL    HW257236   9.487   9.218   4.249 -1.2787 -0.4882  1.9563
50467SOL     OW57237   3.122   4.746  11.587 -0.0403 -0.2178 -0.0524
50467SOL    HW157238   3.072   4.697  11.522 -1.0054  0.4114  0.1874
50467SOL    HW257239   3.189   4.792  11.536 -0.5785  0.0083 -0.5729
50468SOL     OW57240  11.507  10.540   9.379 -0.1211 -0.0950  0.2338
50468SOL    HW157241  11.427  10.497   9.409 -1.5843  1.6819 -0.9014
50468SOL    HW257242  11.576  10.503   9.434 -1.4355 -2.8512  0.2111
50469SOL     OW57243   1.576   1.589  10.465  0.3783 -0.1518  0.4478
50469SOL    HW157244   1.547   1.621  10.550  0.7474 -0.6599  0.7680
50469SOL    HW257245   1.608   1.500  10.482 -0.3778 -0.5999 -0.3799
50470SOL     OW57246  10.757  10.756   0.928 -0.0782 -0.1625  0.5499
50470SOL    HW157247  10.747  10.663   0.911  0.9786 -0.5926  2.1084
50470SOL    HW257248  10.845  10.778   0.898 -0.9171  0.7661 -1.4193
50471SOL     OW57249   3.911   0.445  10.709 -0.0171 -0.1039  0.3341
50471SOL    HW157250   3.876   0.509  10.771 -0.1206  0.7082 -0.5324
50471SOL    HW257251   3.927   0.367  10.762  0.6726  0.8129  1.5327
50472SOL     OW57252  11.740   2.384   5.891  0.3586  0.3967  0.5293
50472SOL    HW157253  11.814   2.326   5.904  0.1378 -0.9545 -3.0409
50472SOL    HW257254  11.779   2.470   5.874  0.9880  0.1176  0.5703
50473SOL     OW57255  10.243   9.764  10.592  0.4113 -0.1353  0.3139
50473SOL    HW157256  10.302   9.815  10.537  1.3593 -2.7062 -1.2243
50473SOL    HW257257  10.164   9.754  10.539  0.7829 -1.3958 -0.0502
50474SOL     OW57258   0.646  12.258   8.664  0.1682  0.2086 -0.2439
50474SOL    HW157259   0.707  12.307   8.607 -0.7075 -0.1341 -1.5137
50474SOL    HW257260   0.685  12.171   8.670  0.1868  0.2016 -0.4433
50475SOL     OW57261   6.925   1.358   3.350 -0.1241  0.0871  0.3242
50475SOL    HW157262   6.857   1.353   3.417  1.7001 -3.7217  2.2679
50475SOL    HW257263   7.006   1.372   3.399  1.2344 -2.3373 -1.0233
50476SOL     OW57264   8.441   8.475   1.105  0.3457 -0.0552  0.0796
50476SOL    HW157265   8.352   8.498   1.133  0.9482  0.5074  1.6422
50476SOL    HW257266   8.428   8.402   1.044 -1.3197  1.4760 -1.5547
50477SOL     OW57267   2.986   9.211   3.430 -0.0196  0.5823  0.2338
50477SOL    HW157268   2.991   9.296   3.474  2.0402  1.4003 -1.3744
50477SOL    HW257269   3.076   9.177   3.434  0.1576  0.4545 -2.6921
50478SOL     OW57270  11.308   7.513   6.001 -0.2830 -0.4864  0.4571
50478SOL    HW157271  11.248   7.588   6.007 -2.8969 -2.3102 -0.8322
50478SOL    HW257272  11.276   7.452   6.068  1.7116 -0.5668  1.3877
50479SOL     OW57273   0.893   9.198  11.784 -0.1238 -0.0209 -0.5520
50479SOL    HW157274   0.947   9.132  11.741 -0.7210 -0.3260 -0.8492
50479SOL    HW257275   0.955   9.254  11.830  0.3171 -1.7437  1.0736
50480SOL     OW57276   1.386   8.397   9.413 -0.3068 -0.1506  0.5488
50480SOL    HW157277   1.453   8.356   9.467 -0.3263  0.8504  1.3642
50480SOL    HW257278   1.378   8.339   9.337  0.3358 -1.1324  1.1949
50481SOL     OW57279  11.605   0.007   5.690 -0.7030 -0.0836 -0.3061
50481SOL    HW157280  11.600   0.034   5.782  1.3227  0.4188 -0.2966
50481SOL    HW257281  11.619   0.088   5.642  2.6761 -0.7022 -0.5637
50482SOL     OW57282   0.558   4.996   7.132 -0.0765  0.6193 -0.2479
50482SOL    HW157283   0.502   4.936   7.182 -0.4784 -0.4673 -1.9456
50482SOL    HW257284   0.555   5.078   7.182 -0.1578 -0.5096  1.6873
50483SOL     OW57285  12.151   9.602   2.276  0.4084 -0.6599 -0.4091
50483SOL    HW157286  12.236   9.619   2.237  0.5012 -0.3740 -0.0845
50483SOL    HW257287  12.096   9.574   2.203  0.6462 -0.3683 -0.7024
50484SOL     OW57288   9.631   4.551  12.289  0.2006 -0.5793  0.0664
50484SOL    HW157289   9.613   4.644  12.294  2.7573  0.0093 -0.4425
50484SOL    HW257290   9.561   4.516  12.233  0.3008  1.3524 -1.3648
50485SOL     OW57291   2.876   3.600   7.633 -0.0798  0.2445 -0.3600
50485SOL    HW157292   2.850   3.655   7.559 -0.0345  0.5857 -0.1270
50485SOL    HW257293   2.954   3.554   7.603  1.9749  2.8731  0.5732
50486SOL     OW57294  12.074   0.072   3.967  0.2097 -0.1504 -0.3204
50486SOL    HW157295  12.165   0.043   3.955  0.1879 -0.2376 -0.2803
50486SOL    HW257296  12.022  -0.004   3.942  0.1231  0.1381 -1.0448
50487SOL     OW57297   1.433   4.545   2.842 -0.2923 -0.0092  0.4544
50487SOL    HW157298   1.511   4.599   2.829 -1.2984  1.3070 -0.3006
50487SOL    HW257299   1.464   4.455   2.829  1.4492  0.3277  1.9206
50488SOL     OW57300   6.098   5.233  11.069  0.3895 -0.1682  0.4979
50488SOL    HW157301   6.062   5.258  10.984 -3.2975 -2.5446  1.1828
50488SOL    HW257302   6.140   5.149  11.054 -1.5027 -1.2876  1.1963
50489SOL     OW57303   1.805   5.898   1.113 -0.2432  0.1623  0.0537
50489SOL    HW157304   1.848   5.964   1.167 -1.0421  1.2729 -0.6286
50489SOL    HW257305   1.850   5.904   1.028  0.4546 -0.9968  0.3172
50490SOL     OW57306   3.830   2.056   9.041 -0.4543 -0.2124 -0.6557
50490SOL    HW157307   3.831   2.069   8.946  0.1194  5.9166 -0.2129
50490SOL    HW257308   3.755   2.107   9.071  0.5758 -0.2933  2.3634
50491SOL     OW57309   7.534   9.182   4.158 -0.0775  0.1400  0.0167
50491SOL    HW157310   7.439   9.184   4.151  0.0284  0.3246 -2.2324
50491SOL    HW257311   7.553   9.109   4.217 -1.5762 -1.1317 -0.9927
50492SOL     OW57312   7.165   6.095   8.453 -0.2371 -0.3941  0.1058
50492SOL    HW157313   7.143   6.090   8.546 -0.4833  2.2532  0.2618
50492SOL    HW257314   7.101   6.039   8.410 -0.1528 -1.6195  1.4871
50493SOL     OW57315   9.871  11.458   2.063 -0.4330  0.1334  0.2753
50493SOL    HW157316   9.929  11.395   2.105 -0.8182 -0.7531 -0.4822
50493SOL    HW257317   9.801  11.405   2.025 -0.2205  0.8966 -1.2834
50494SOL     OW57318   3.738   8.990   2.691  0.1893  0.1248  0.3404
50494SOL    HW157319   3.829   8.977   2.664 -0.2474 -1.9900 -0.3335
50494SOL    HW257320   3.714   9.076   2.656  1.6210  0.2767 -0.3368
50495SOL     OW57321   6.563   2.655   0.559 -0.5342 -0.6197  0.2415
50495SOL    HW157322   6.624   2.662   0.633  1.1426 -0.7311 -1.0648
50495SOL    HW257323   6.484   2.618   0.597  0.7917 -2.1025  1.7230
50496SOL     OW57324   9.222   9.525   5.324 -0.3856 -0.2620  0.6414
50496SOL    HW157325   9.151   9.570   5.370  0.0259  0.7090  0.3492
50496SOL    HW257326   9.240   9.447   5.377 -0.5948  0.3203  1.5771
50497SOL     OW57327  11.878   6.777  11.884  0.3593  0.4379  0.1225
50497SOL    HW157328  11.816   6.760  11.813 -0.7156  1.0210  0.8967
50497SOL    HW257329  11.930   6.697  11.890  0.1749  0.2117 -1.0132
50498SOL     OW57330   6.959  10.068   2.209 -0.1564 -0.3299  0.6973
50498SOL    HW157331   6.967  10.124   2.287 -1.4330  0.4558  0.2877
50498SOL    HW257332   6.922  10.125   2.142  0.3968 -1.1533 -0.3369
50499SOL     OW57333  11.430  11.444  10.566  0.5588  0.0632 -0.5185
50499SOL    HW157334  11.452  11.465  10.657 -0.3252 -0.4331 -0.1870
50499SOL    HW257335  11.434  11.529  10.521  0.1544  0.4475  0.1527
50500SOL     OW57336  10.807   8.094   7.241  0.7115  0.1873 -0.3131
50500SOL    HW157337  10.782   8.133   7.158  0.5676 -1.4010 -1.0556
50500SOL    HW257338  10.811   8.000   7.223  1.4234 -0.1236  1.2829
50501SOL     OW57339   1.166  10.424   0.456 -0.3644  0.0465 -0.2424
50501SOL    HW157340   1.110  10.432   0.379 -0.3178  1.5101 -0.1530
50501SOL    HW257341   1.223  10.500   0.451  0.2782 -0.3568  0.7466
50502SOL     OW57342   8.271   4.724   5.773  0.2207 -0.1405  0.3316
50502SOL    HW157343   8.312   4.716   5.687  0.9719 -0.9305  0.7580
50502SOL    HW257344   8.259   4.818   5.784 -1.6432 -0.0884 -1.4383
50503SOL     OW57345  11.011   4.823   2.294 -0.0315  0.3300  0.1940
50503SOL    HW157346  11.008   4.733   2.262  0.5115  0.1093  0.7460
50503SOL    HW257347  11.047   4.816   2.382  0.7727  1.1737 -0.0559
50504SOL     OW57348   0.206   5.795  10.084 -0.0842 -0.3721 -0.5193
50504SOL    HW157349   0.285   5.850  10.076  0.0092 -0.2381  1.0500
50504SOL    HW257350   0.157   5.812  10.003  1.0003  0.3300 -1.0596
50505SOL     OW57351   9.192  10.387   3.892  0.0070 -0.0634 -0.5115
50505SOL    HW157352   9.229  10.393   3.980 -0.0440 -0.1783 -0.4823
50505SOL    HW257353   9.098  10.387   3.905 -0.0123 -1.4641 -0.4582
50506SOL     OW57354   4.862   5.419  10.725  0.4004 -0.0024 -0.0642
50506SOL    HW157355   4.787   5.458  10.681 -0.4132  2.2702  2.9307
50506SOL    HW257356   4.839   5.423  10.818  3.6395 -0.5158  0.8783
50507SOL     OW57357   7.582  12.195   3.262 -0.1228 -0.1026  0.5531
50507SOL    HW157358   7.538  12.131   3.318  0.3321  0.3225  1.4202
50507SOL    HW257359   7.623  12.256   3.323 -0.0369  0.6729 -0.2529
50508SOL     OW57360   4.875   0.633  12.040  0.0925  0.2452 -0.7418
50508SOL    HW157361   4.836   0.694  12.102  0.5928  0.7879 -0.9608
50508SOL    HW257362   4.821   0.641  11.961 -0.5200 -0.4172 -0.4026
50509SOL     OW57363   9.959   1.408  11.371  0.2617  0.0337 -0.1280
50509SOL    HW157364  10.027   1.340  11.376  2.0097  1.7050  0.4094
50509SOL    HW257365   9.951   1.426  11.277 -0.2106 -0.8895 -0.2743
50510SOL     OW57366  11.973   1.411   2.717  0.5461  0.1050 -0.4667
50510SOL    HW157367  11.946   1.467   2.644  0.9216 -1.0693 -1.5435
50510SOL    HW257368  11.895   1.360   2.739 -0.1729  1.8459  1.3506
50511SOL     OW57369   9.361  10.838   4.586 -0.1874 -0.1769 -0.3825
50511SOL    HW157370   9.368  10.747   4.557  0.4900 -0.4153  0.4724
50511SOL    HW257371   9.306  10.881   4.520 -0.6037 -1.2300 -0.7356
50512SOL     OW57372   3.272   2.705   0.965 -0.0176 -0.0392 -0.1483
50512SOL    HW157373   3.240   2.615   0.979  0.5976 -0.3321 -0.5858
50512SOL    HW257374   3.306   2.731   1.051  1.8234 -1.0614 -0.5001
50513SOL     OW57375   5.999  11.670   8.037 -0.0301  0.2765  0.1735
50513SOL    HW157376   6.027  11.580   8.054 -0.4388  0.1041 -0.0795
50513SOL    HW257377   6.081  11.718   8.028  0.1906 -0.1445 -0.0973
50514SOL     OW57378   7.005   3.344   8.221 -0.3637 -0.3836  0.3907
50514SOL    HW157379   7.098   3.335   8.243 -0.2474 -3.3885 -0.8393
50514SOL    HW257380   6.976   3.254   8.205 -2.9400  0.6760 -1.4698
50515SOL     OW57381   2.623   6.609   9.903 -0.0760 -0.4094  0.1013
50515SOL    HW157382   2.656   6.675   9.963 -1.2628  0.4308 -0.1361
50515SOL    HW257383   2.586   6.541   9.959  0.0656 -0.2935  0.3348
50516SOL     OW57384   7.575   0.405   3.330  0.3360 -0.2633 -0.9388
50516SOL    HW157385   7.509   0.362   3.274 -0.1502  0.7746 -1.1889
50516SOL    HW257386   7.604   0.480   3.278 -1.4703  1.8181  0.8824
50517SOL     OW57387   1.856   1.572   8.068  0.1361  0.5485 -0.3828
50517SOL    HW157388   1.919   1.514   8.026 -1.5102 -1.5979 -0.0708
50517SOL    HW257389   1.802   1.606   7.996  1.7822  2.7186 -0.7000
50518SOL     OW57390  10.553   3.848   1.134 -0.3500  0.3896 -0.3339
50518SOL    HW157391  10.489   3.789   1.176  1.7061 -0.9229  1.1731
50518SOL    HW257392  10.601   3.887   1.207  1.6125  0.0881 -1.3860
50519SOL     OW57393   1.642   0.919   0.756 -0.2484  0.1064  0.0062
50519SOL    HW157394   1.682   0.832   0.752 -1.6997 -0.5540 -0.5811
50519SOL    HW257395   1.679   0.965   0.681 -0.3041 -0.3619 -0.3113
50520SOL     OW57396   4.681   0.749   6.026  0.1427 -0.3386 -0.1894
50520SOL    HW157397   4.667   0.834   6.067  1.7503 -1.1985  2.4429
50520SOL    HW257398   4.594   0.719   6.000 -0.6488  1.3927  0.3550
50521SOL     OW57399   4.284   3.810   3.264 -0.2091 -0.4873  0.4121
50521SOL    HW157400   4.311   3.721   3.242  0.6840 -0.1766  0.2219
50521SOL    HW257401   4.208   3.826   3.209 -1.5277 -1.7682  1.7484
50522SOL     OW57402   1.673   3.263   6.922  0.0344  0.8133  0.1490
50522SOL    HW157403   1.707   3.341   6.879  0.3411  1.3182  1.2664
50522SOL    HW257404   1.738   3.195   6.903 -0.2950  0.7730 -0.9295
50523SOL     OW57405   4.415   2.418   4.591  0.2520 -0.4564  0.0436
50523SOL    HW157406   4.474   2.460   4.527  0.4887  0.5184  0.8701
50523SOL    HW257407   4.396   2.333   4.553  0.5279  0.0295 -1.2479
50524SOL     OW57408  11.395   2.374   1.881 -0.3014  0.5030 -0.3605
50524SOL    HW157409  11.366   2.357   1.791 -1.1734 -0.8414  0.1565
50524SOL    HW257410  11.359   2.302   1.932  1.6853  0.2390  0.7807
50525SOL     OW57411   6.205   2.030   4.634 -0.3560 -0.0769  0.1366
50525SOL    HW157412   6.293   2.006   4.605 -0.5249 -0.3859 -0.1318
50525SOL    HW257413   6.194   2.120   4.602  0.5463  0.6603  1.7731
50526SOL     OW57414   1.399  10.055   9.457  0.1581 -0.2546  0.2810
50526SOL    HW157415   1.484  10.090   9.483  0.7144 -1.3939  0.0596
50526SOL    HW257416   1.420   9.973   9.412 -0.9443  0.3325 -1.3816
50527SOL     OW57417   9.237   6.230   7.075  0.1388  0.1292  0.2157
50527SOL    HW157418   9.211   6.188   7.157  1.5410  3.2512  2.4867
50527SOL    HW257419   9.165   6.290   7.055 -0.4638 -1.0272 -1.2640
50528SOL     OW57420  11.826   1.555  10.080  0.1672  0.0419 -0.2504
50528SOL    HW157421  11.803   1.492  10.148 -0.5746  0.4882 -0.0828
50528SOL    HW257422  11.889   1.614  10.122  0.2010 -0.0661 -0.1491
50529SOL     OW57423   4.321   2.991   7.105 -0.4585  0.1557  0.2843
50529SOL    HW157424   4.271   2.912   7.121  0.6973 -0.9503 -1.2673
50529SOL    HW257425   4.270   3.041   7.042 -0.3498 -0.2083 -0.0906
50530SOL     OW57426   1.368   0.208   9.587  0.3633 -0.1549 -0.5569
50530SOL    HW157427   1.443   0.164   9.628 -0.4294 -2.0649 -1.0225
50530SOL    HW257428   1.292   0.159   9.618 -0.8488  2.2826  0.6196
50531SOL     OW57429   4.432   8.647   6.663 -0.1048 -0.0280 -0.4149
50531SOL    HW157430   4.353   8.600   6.636  0.5795 -0.2790 -2.0916
50531SOL    HW257431   4.404   8.699   6.739 -1.6933 -0.6300 -0.5498
50532SOL     OW57432  10.786  10.365   8.807  0.0481  0.0046 -0.0172
50532SOL    HW157433  10.793  10.460   8.798 -1.0981  0.3211  1.9321
50532SOL    HW257434  10.725  10.352   8.879  1.5550 -2.2055  0.9501
50533SOL     OW57435   8.626   7.049   3.111  0.1160 -0.0453 -0.7733
50533SOL    HW157436   8.602   7.113   3.043  0.3172 -0.9552 -1.7284
50533SOL    HW257437   8.571   6.973   3.093 -0.9963  0.2509  1.0890
50534SOL     OW57438   7.000  10.246   7.503 -0.6693 -0.4560  0.0858
50534SOL    HW157439   7.051  10.327   7.513 -0.8539 -0.6098  2.9469
50534SOL    HW257440   6.910  10.277   7.493 -1.0821 -0.1887  3.4740
50535SOL     OW57441   7.877  10.077   2.126  0.3779 -0.2833 -0.4056
50535SOL    HW157442   7.972  10.084   2.138  0.5004 -1.1731 -0.7991
50535SOL    HW257443   7.855  10.153   2.071  0.4268  1.4366  1.7867
50536SOL     OW57444   4.327   1.499  10.336  0.9683 -0.1902 -0.0481
50536SOL    HW157445   4.356   1.518  10.247 -3.0534  0.9436 -1.3545
50536SOL    HW257446   4.306   1.406  10.335 -0.5281  0.1144 -0.9001
50537SOL     OW57447   4.698  11.919   2.940 -0.8183  0.1089 -0.1873
50537SOL    HW157448   4.649  11.868   3.004 -1.7233  1.1124 -0.0494
50537SOL    HW257449   4.701  11.863   2.862 -0.1702 -0.8983  0.5404
50538SOL     OW57450  12.097   7.383   2.882 -0.4173 -0.3018 -0.5959
50538SOL    HW157451  12.192   7.385   2.871 -0.6249 -0.9780 -2.9170
50538SOL    HW257452  12.081   7.308   2.939  0.3229 -1.8679 -2.3543
50539SOL     OW57453  10.302   7.882   3.903  0.0152 -0.0208  0.0066
50539SOL    HW157454  10.268   7.849   3.987  0.2938  1.7797  0.8676
50539SOL    HW257455  10.331   7.971   3.922  2.4844 -0.4424 -1.4194
50540SOL     OW57456   2.246   6.970   7.827 -0.6087 -0.3194  0.0114
50540SOL    HW157457   2.304   7.009   7.761  1.6140 -1.1690  1.3650
50540SOL    HW257458   2.175   6.931   7.776  0.5000 -0.0827 -1.8063
50541SOL     OW57459   1.843   8.058   4.199  0.3305  0.1532  0.0762
50541SOL    HW157460   1.930   8.072   4.163 -0.2858 -0.4148 -1.7989
50541SOL    HW257461   1.784   8.102   4.137 -0.7538  0.1286  1.0433
50542SOL     OW57462  11.270   2.158  10.767 -0.2527 -0.7179  0.3129
50542SOL    HW157463  11.288   2.250  10.747  0.0615 -0.6043  1.0774
50542SOL    HW257464  11.175   2.154  10.776 -0.2005 -0.2570  1.2131
50543SOL     OW57465   0.280   5.911   6.742 -0.0782  0.4085  0.1363
50543SOL    HW157466   0.199   5.957   6.764  0.2946  1.2396 -0.1998
50543SOL    HW257467   0.350   5.975   6.758  0.6747 -0.8026  1.9867
50544SOL     OW57468   9.070   2.069  11.398 -0.2937 -0.4300 -0.3645
50544SOL    HW157469   9.152   2.020  11.395  0.2134  0.4098 -2.0956
50544SOL    HW257470   9.007   2.010  11.439  0.7128 -1.8311 -0.7806
50545SOL     OW57471   1.370   4.831  12.261 -0.5342  0.2802  0.3397
50545SOL    HW157472   1.379   4.926  12.275 -3.3198  0.6314  0.2394
50545SOL    HW257473   1.422   4.792  12.332  0.6993  1.8380  0.3661
50546SOL     OW57474  10.499   4.342   3.212 -0.0710 -0.1159  0.2824
50546SOL    HW157475  10.457   4.294   3.141  3.7171 -2.1566 -0.8811
50546SOL    HW257476  10.489   4.286   3.288 -0.6510  0.0951  0.3627
50547SOL     OW57477   6.811   6.915   0.487  0.0038 -0.0026 -0.1795
50547SOL    HW157478   6.741   6.865   0.528 -1.2331  0.4940 -1.5813
50547SOL    HW257479   6.767   6.966   0.418  1.5875  1.1048 -0.4342
50548SOL     OW57480   9.091   2.257   2.224  0.1787 -0.3811  0.0926
50548SOL    HW157481   9.052   2.171   2.206 -0.1282 -0.8686  2.6852
50548SOL    HW257482   9.043   2.317   2.166 -1.7598 -1.5324  0.3889
50549SOL     OW57483   9.323   2.313  10.785 -0.6031 -0.7256 -0.3829
50549SOL    HW157484   9.230   2.292  10.778 -0.8038  0.5641 -2.4306
50549SOL    HW257485   9.326   2.408  10.784  0.7320 -0.7493 -0.0614
50550SOL     OW57486   6.421   4.525   8.441  0.3874 -0.1515  0.3507
50550SOL    HW157487   6.436   4.456   8.377 -1.3739 -0.3755  0.1242
50550SOL    HW257488   6.496   4.583   8.432  0.5169 -0.5390 -1.4540
50551SOL     OW57489   8.987   5.730   6.549 -0.0664  0.8488 -0.2429
50551SOL    HW157490   9.037   5.670   6.494  1.8723  1.4380  0.7648
50551SOL    HW257491   9.014   5.709   6.638 -2.4675  0.5042  0.4853
50552SOL     OW57492  10.026  11.746   5.523 -0.2757 -0.1820 -0.4813
50552SOL    HW157493  10.014  11.699   5.441 -1.2421  0.6237 -0.8182
50552SOL    HW257494  10.030  11.838   5.498 -1.8140  0.1797  0.4710
50553SOL     OW57495   5.088   7.078   9.887 -0.3661 -0.1021  0.6145
50553SOL    HW157496   5.054   7.028   9.961 -0.8030 -2.2481 -0.9371
50553SOL    HW257497   5.020   7.143   9.869 -0.6881 -0.1794  1.5007
50554SOL     OW57498   3.699   2.993   4.272  0.4870 -0.5744  0.2966
50554SOL    HW157499   3.784   3.007   4.231 -0.0892 -0.7167 -1.0321
50554SOL    HW257500   3.708   3.028   4.360  1.8566 -0.4156  0.1158
50555SOL     OW57501   3.659   4.866   4.784  0.6052 -0.1691 -0.5140
50555SOL    HW157502   3.603   4.795   4.816  1.5776  1.0383  4.9070
50555SOL    HW257503   3.748   4.833   4.797  1.0684  1.7612  1.8211
50556SOL     OW57504   1.954   1.513   5.467 -0.2514  0.4191  0.1831
50556SOL    HW157505   2.002   1.504   5.384 -0.8078 -1.0342  0.0002
50556SOL    HW257506   1.865   1.485   5.446 -0.5204  0.5192  1.1696
50557SOL     OW57507   0.426   0.745  11.891 -0.0915  0.0604 -0.2128
50557SOL    HW157508   0.457   0.701  11.813  0.3729 -3.0833  1.5750
50557SOL    HW257509   0.506   0.770  11.938 -0.3661  1.3651 -0.3771
50558SOL     OW57510   7.189  11.246   0.959  0.2012  0.1378 -0.1857
50558SOL    HW157511   7.199  11.339   0.941 -0.3328  0.4755  1.1479
50558SOL    HW257512   7.118  11.217   0.900 -0.2643  0.7847  0.0463
50559SOL     OW57513  10.990   1.183  11.290 -0.3844 -0.0840 -0.1507
50559SOL    HW157514  11.031   1.108  11.246 -0.0863 -0.4939  0.7872
50559SOL    HW257515  10.981   1.155  11.381  0.4905  1.3287  0.4042
50560SOL     OW57516   6.363   8.816   9.292  0.4140  0.4446  0.3573
50560SOL    HW157517   6.311   8.865   9.356  0.2485 -0.2035  0.7371
50560SOL    HW257518   6.336   8.851   9.207 -0.0768  0.6554  0.5908
50561SOL     OW57519   1.789   8.108   2.466 -0.1224 -0.2478  0.0687
50561SOL    HW157520   1.867   8.155   2.437 -0.1062 -0.8599 -0.9526
50561SOL    HW257521   1.813   8.068   2.549  0.4630  0.0202  0.0302
50562SOL     OW57522   1.430   8.780  11.758 -0.4122 -0.1888 -0.2584
50562SOL    HW157523   1.349   8.739  11.729 -0.4468 -0.9660  0.8424
50562SOL    HW257524   1.497   8.744  11.700 -1.0716  2.1731 -2.6708
50563SOL     OW57525   2.580   3.241   9.547 -0.3117  0.1212  0.3417
50563SOL    HW157526   2.490   3.232   9.516  0.1413 -0.8594 -0.7646
50563SOL    HW257527   2.595   3.162   9.600  0.0830 -0.0293  0.0107
50564SOL     OW57528  11.680   1.756   9.332 -0.1491  0.5922 -0.1165
50564SOL    HW157529  11.752   1.785   9.275  0.4243 -0.6930 -0.0811
50564SOL    HW257530  11.716   1.681   9.379 -1.6536 -0.3349 -0.3915
50565SOL     OW57531   4.054   7.408   5.726  0.4200  0.2294  0.5199
50565SOL    HW157532   3.968   7.449   5.719  1.1338  2.1093  2.1572
50565SOL    HW257533   4.075   7.382   5.636 -2.0473 -0.7993  0.1540
50566SOL     OW57534   5.455   9.823   9.274 -0.5252  0.0638 -0.6266
50566SOL    HW157535   5.547   9.822   9.298 -0.9217  0.9497  1.1014
50566SOL    HW257536   5.455   9.826   9.178  1.1704 -2.4395 -0.7898
50567SOL     OW57537   0.527  11.822   4.202 -0.0055 -0.2178 -0.0695
50567SOL    HW157538   0.508  11.915   4.209  0.1247 -0.1150 -0.9844
50567SOL    HW257539   0.511  11.801   4.110  2.2827 -0.5692 -0.4553
50568SOL     OW57540  10.827   0.224   6.068  0.8385  0.3777 -0.7948
50568SOL    HW157541  10.764   0.296   6.077  0.7697  0.1687  0.5807
50568SOL    HW257542  10.811   0.190   5.980 -1.5549 -0.1683 -0.2383
50569SOL     OW57543   0.203  11.532   5.706 -0.3451 -0.4517  0.8438
50569SOL    HW157544   0.109  11.537   5.718 -0.3512  1.4224  0.2193
50569SOL    HW257545   0.226  11.611   5.658  1.4515 -1.2372  0.3278
50570SOL     OW57546   6.311   4.733   7.637  0.2754 -0.1504 -0.5827
50570SOL    HW157547   6.217   4.749   7.628  0.4424 -0.1392 -2.8933
50570SOL    HW257548   6.326   4.650   7.591  1.5137  0.2774 -0.9842
50571SOL     OW57549   9.374   5.969   6.563 -0.1232  0.1965 -0.0789
50571SOL    HW157550   9.386   6.030   6.490 -1.2042 -0.6057 -0.9689
50571SOL    HW257551   9.390   5.883   6.525 -1.7468 -0.3264  0.3379
50572SOL     OW57552   3.744   3.300  12.071  0.6106 -0.1869  0.4490
50572SOL    HW157553   3.715   3.343  12.151  2.5530 -1.2912  1.8176
50572SOL    HW257554   3.686   3.224  12.062  0.5027 -0.1629  0.9289
50573SOL     OW57555  11.645   4.699   1.666  0.5316  0.5398  0.4486
50573SOL    HW157556  11.630   4.623   1.722 -0.6213 -1.3846 -2.2392
50573SOL    HW257557  11.557   4.724   1.637  1.0320  1.9931  0.1035
50574SOL     OW57558   6.909   8.971  11.224 -0.0578  0.1512 -0.3921
50574SOL    HW157559   6.931   8.890  11.270 -3.0807 -0.3705  0.3488
50574SOL    HW257560   6.922   8.950  11.132  1.6620 -0.2778 -0.0989
50575SOL     OW57561   6.418  12.177   8.128 -0.1211  0.4811 -0.3646
50575SOL    HW157562   6.349  12.242   8.114 -0.1759  1.0067  1.8679
50575SOL    HW257563   6.499  12.227   8.123 -0.1442  0.6887  0.9891
50576SOL     OW57564   1.053   4.826   6.514  0.4553 -0.0017 -0.0292
50576SOL    HW157565   1.127   4.809   6.572 -0.0169 -1.3380  0.2244
50576SOL    HW257566   1.050   4.750   6.456 -0.5503  0.1532 -0.2028
50577SOL     OW57567   0.358   8.654   5.425  0.3435  0.1109 -0.3698
50577SOL    HW157568   0.307   8.576   5.405  0.0763  0.1061  0.3107
50577SOL    HW257569   0.295   8.726   5.422  0.2121  0.0640  0.7967
50578SOL     OW57570  11.200   8.440   3.896 -0.4466  0.2961  0.6133
50578SOL    HW157571  11.236   8.445   3.807 -0.3551  1.3748  0.6909
50578SOL    HW257572  11.111   8.475   3.887 -1.2060 -1.5294  0.5853
50579SOL     OW57573   4.699   9.379   1.331 -0.3412 -0.0665  0.2705
50579SOL    HW157574   4.738   9.398   1.246  0.0634 -0.2298  0.4137
50579SOL    HW257575   4.661   9.462   1.359  1.4494  0.5780  0.9069
50580SOL     OW57576   0.320   3.351   0.015 -0.9175  0.1582  0.2211
50580SOL    HW157577   0.309   3.443  -0.009  1.0206  0.6310  0.9483
50580SOL    HW257578   0.291   3.346   0.106  1.7110  0.7809  1.1880
50581SOL     OW57579   3.918   5.916   7.350 -0.0364 -0.0206  0.1807
50581SOL    HW157580   4.005   5.904   7.388 -0.5252 -1.6756  0.8550
50581SOL    HW257581   3.859   5.919   7.426 -0.5175  2.0909 -0.1951
50582SOL     OW57582   2.173   4.576  12.204  0.7533  0.4381 -0.3343
50582SOL    HW157583   2.099   4.636  12.199  0.7344  0.4281 -0.1986
50582SOL    HW257584   2.221   4.603  12.283  0.9211  0.4749 -0.4485
50583SOL     OW57585   5.693   5.089   3.049 -0.1140  0.7244 -0.5934
50583SOL    HW157586   5.639   5.093   2.970 -1.4544 -1.3237  0.1324
50583SOL    HW257587   5.655   5.017   3.101  0.8997  1.7757  1.7797
50584SOL     OW57588   4.508  10.347   9.150 -0.2857  0.7036  0.4714
50584SOL    HW157589   4.495  10.358   9.055 -0.9253  1.1817  0.6124
50584SOL    HW257590   4.491  10.434   9.187  0.3151  0.6071  0.9940
50585SOL     OW57591   5.934   6.900  12.296  0.1076  0.5441  0.2706
50585SOL    HW157592   6.023   6.865  12.299  0.4479  1.4525  2.3655
50585SOL    HW257593   5.878   6.825  12.318  0.2619 -0.1563 -1.5560
50586SOL     OW57594  12.052   0.742   8.011 -0.7803 -0.1535 -0.0443
50586SOL    HW157595  11.986   0.674   8.019  0.6135 -1.3770  2.5136
50586SOL    HW257596  12.098   0.722   7.930 -2.0670 -0.6378 -0.6785
50587SOL     OW57597   3.180   7.656   6.505  0.2112 -0.0608 -0.4634
50587SOL    HW157598   3.157   7.637   6.414 -1.5754  0.8829 -0.2625
50587SOL    HW257599   3.141   7.742   6.522  0.4942 -0.2291  1.2009
50588SOL     OW57600   4.748   3.167   6.477 -0.1916 -0.2025  0.0487
50588SOL    HW157601   4.674   3.220   6.504 -0.1822 -0.8535  1.4343
50588SOL    HW257602   4.806   3.164   6.553  1.6377  0.8745 -1.2212
50589SOL     OW57603   8.761  12.027   2.537 -0.8145 -0.6739  0.0248
50589SOL    HW157604   8.743  12.063   2.624  0.2472 -0.7044  0.2675
50589SOL    HW257605   8.723  11.939   2.540  0.3111 -1.1559  0.9133
50590SOL     OW57606   4.314   4.264  10.173 -0.3507 -0.1658 -0.4936
50590SOL    HW157607   4.382   4.219  10.123  0.6427  1.4779 -0.6684
50590SOL    HW257608   4.255   4.299  10.106 -0.7485 -0.5831 -0.3750
50591SOL     OW57609   5.593   8.429  11.587  0.4219  0.0612  0.6019
50591SOL    HW157610   5.671   8.408  11.536  0.7339 -1.8470  1.7918
50591SOL    HW257611   5.616   8.509  11.633  0.7787  0.8400 -0.8551
50592SOL     OW57612   4.584   1.687   0.285  0.2228 -0.2638  0.1280
50592SOL    HW157613   4.548   1.598   0.288  1.4038 -0.7430  1.8531
50592SOL    HW257614   4.664   1.680   0.234 -0.5613  0.2084 -1.2252
50593SOL     OW57615   9.603   3.223   6.636  0.2342 -0.5087  0.3862
50593SOL    HW157616   9.632   3.303   6.680  0.4242 -0.2872 -0.1303
50593SOL    HW257617   9.593   3.248   6.544 -0.1273 -0.9695  0.2929
50594SOL     OW57618   8.351  12.115   4.695 -0.5472 -0.5345  0.1884
50594SOL    HW157619   8.361  12.107   4.600 -1.3832 -3.7894  0.2600
50594SOL    HW257620   8.440  12.133   4.727 -0.0549 -0.5539 -1.1125
50595SOL     OW57621   9.286   0.807   5.414  0.1914 -0.4531  0.1611
50595SOL    HW157622   9.308   0.773   5.500  0.2996 -3.0320 -0.8092
50595SOL    HW257623   9.266   0.730   5.361  2.8400  0.7176 -2.9188
50596SOL     OW57624   0.812   6.783   2.720 -0.0413 -0.1858  0.8879
50596SOL    HW157625   0.875   6.819   2.658 -0.2639 -1.2943 -0.0281
50596SOL    HW257626   0.755   6.856   2.743 -1.1018 -0.0900 -1.6804
50597SOL     OW57627  10.047  11.726   6.754  0.1482 -0.0405  0.4335
50597SOL    HW157628  10.120  11.710   6.695  0.2050 -0.2888  0.5717
50597SOL    HW257629  10.073  11.803   6.805 -0.4130  0.9339 -0.7005
50598SOL     OW57630   6.598   1.400   7.947 -0.2616  0.0042  1.0314
50598SOL    HW157631   6.586   1.482   7.995  1.7749 -0.2667  2.1293
50598SOL    HW257632   6.692   1.387   7.946 -0.4677 -1.6944 -0.2530
50599SOL     OW57633   4.121  11.128   4.043 -0.0855 -0.2795  0.2905
50599SOL    HW157634   4.075  11.209   4.019 -1.1825 -1.1957 -0.8698
50599SOL    HW257635   4.116  11.125   4.139 -1.3842  0.2857  0.2647
50600SOL     OW57636  11.530   5.615   1.513 -0.0091 -0.0513  0.1861
50600SOL    HW157637  11.607   5.569   1.481 -0.3841  0.5983 -1.7641
50600SOL    HW257638  11.556   5.707   1.516 -0.2125 -0.0121  1.1266
50601SOL     OW57639   8.990   3.822   7.269  0.5238 -0.0598 -0.1569
50601SOL    HW157640   8.978   3.728   7.257  0.8325 -0.0245 -0.7654
50601SOL    HW257641   9.059   3.846   7.207  0.5454  0.5437  0.0912
50602SOL     OW57642  12.236   6.292   8.167 -0.2575  0.0207  0.0872
50602SOL    HW157643  12.218   6.271   8.075  0.5215  0.1764 -0.1030
50602SOL    HW257644  12.235   6.388   8.170 -0.1191  0.0174  0.2115
50603SOL     OW57645   6.304  10.619  10.435  0.7717 -0.3654 -0.5587
50603SOL    HW157646   6.332  10.582  10.518  0.0476 -1.9617 -1.0048
50603SOL    HW257647   6.211  10.637  10.446  0.9789  0.7898 -0.5567
50604SOL     OW57648   4.668   6.235  10.651  0.1053 -0.1463  0.1370
50604SOL    HW157649   4.760   6.209  10.658  0.1292  0.3521  3.1962
50604SOL    HW257650   4.668   6.314  10.597  1.5019 -0.0532  0.2522
50605SOL     OW57651  10.276   9.978   4.551  0.0056  0.1064 -0.2810
50605SOL    HW157652  10.308  10.067   4.565 -1.0000  0.4832 -0.3134
50605SOL    HW257653  10.356   9.925   4.541  0.6762  0.6242  1.8867
50606SOL     OW57654  12.031   1.634   6.014 -0.3303  0.1583  0.2369
50606SOL    HW157655  11.982   1.640   5.932  0.9133  1.2327 -0.4584
50606SOL    HW257656  12.118   1.603   5.989 -0.6781 -2.0283  1.4889
50607SOL     OW57657   9.060   7.693   2.685 -0.2779 -0.1232 -0.2750
50607SOL    HW157658   9.012   7.705   2.767  0.1369  0.6421 -0.1312
50607SOL    HW257659   9.148   7.725   2.705  0.0280 -0.6367 -0.8056
50608SOL     OW57660   9.481   5.715   7.254 -0.3002 -0.2051 -0.0827
50608SOL    HW157661   9.503   5.632   7.296  1.1655 -0.1657 -0.6937
50608SOL    HW257662   9.564   5.763   7.252 -1.2135  1.4857  0.6986
50609SOL     OW57663   7.289   3.312   4.835 -0.1376  0.5839  0.7032
50609SOL    HW157664   7.272   3.404   4.856  0.8172  1.1453 -0.7891
50609SOL    HW257665   7.346   3.281   4.905  1.5201  1.8543 -0.0281
50610SOL     OW57666   2.318  10.379  10.710 -0.0063 -0.0454 -0.0128
50610SOL    HW157667   2.370  10.302  10.685 -0.4981 -0.7377  0.9976
50610SOL    HW257668   2.324  10.437  10.635  1.7568 -0.3464 -0.1573
50611SOL     OW57669   6.150   4.264  11.358  0.5254 -0.4304  0.0195
50611SOL    HW157670   6.188   4.350  11.375 -3.0274  1.0930  1.2807
50611SOL    HW257671   6.095   4.277  11.281 -0.8047 -1.2569  0.7841
50612SOL     OW57672   6.933   8.419   4.208  0.0692 -0.9611  0.4302
50612SOL    HW157673   7.024   8.390   4.215 -0.6658 -3.9571 -0.9978
50612SOL    HW257674   6.883   8.350   4.252 -1.6468 -0.3411 -0.4892
50613SOL     OW57675  11.030  11.572   7.280  0.4066  0.1612 -0.5023
50613SOL    HW157676  11.009  11.661   7.251  0.0475  0.6412  1.1469
50613SOL    HW257677  10.945  11.527   7.284  0.1493  0.7648  1.8532
50614SOL     OW57678   8.786  10.311   3.256  0.0457  0.4921 -0.0346
50614SOL    HW157679   8.735  10.322   3.176  0.5645  1.6122 -0.2374
50614SOL    HW257680   8.730  10.260   3.314 -1.5301  2.0983 -0.0612
50615SOL     OW57681   8.153   8.133   4.946  0.3505 -0.2266  0.3386
50615SOL    HW157682   8.111   8.070   4.888 -0.4903  1.9040 -1.5261
50615SOL    HW257683   8.105   8.125   5.029  0.0317 -1.7299  0.0331
50616SOL     OW57684   1.400   6.521   9.137  0.4789 -0.4537 -0.3127
50616SOL    HW157685   1.459   6.576   9.086  1.6146 -1.2690  0.1048
50616SOL    HW257686   1.439   6.518   9.224  0.1215 -1.4443 -0.1718
50617SOL     OW57687   1.850   9.453  10.944  0.4961  0.0247 -0.7217
50617SOL    HW157688   1.830   9.500  10.863  0.7736 -0.9249 -1.3556
50617SOL    HW257689   1.786   9.486  11.008 -0.4897 -0.0576 -1.6345
50618SOL     OW57690   6.851   0.746   0.923 -0.3431 -0.0305 -0.6320
50618SOL    HW157691   6.939   0.778   0.939  0.1141 -1.9088  1.0422
50618SOL    HW257692   6.815   0.806   0.859  2.6505 -0.0201 -2.4974
50619SOL     OW57693   1.528   5.772   9.447  0.2071  0.3078  0.2316
50619SOL    HW157694   1.552   5.719   9.522 -0.3399  0.8435  0.8004
50619SOL    HW257695   1.591   5.748   9.379  0.9737  0.1217  0.9893
50620SOL     OW57696  11.535   2.691   2.435  0.2375  0.2248 -0.1789
50620SOL    HW157697  11.517   2.620   2.374  0.7716  1.5529 -1.9804
50620SOL    HW257698  11.448   2.724   2.459  0.0140 -0.4482 -0.0462
50621SOL     OW57699   2.223   7.631   3.143  0.2027 -0.8382  0.0376
50621SOL    HW157700   2.278   7.688   3.197  0.9733 -1.7297  0.2136
50621SOL    HW257701   2.134   7.649   3.172  0.5339 -0.5908  0.9206
50622SOL     OW57702   9.058   9.780   1.448  0.3661 -0.1532 -0.2657
50622SOL    HW157703   9.131   9.789   1.510  0.4064 -0.2002 -0.3062
50622SOL    HW257704   9.073   9.849   1.384 -0.5859  0.9599  0.6673
50623SOL     OW57705   8.064   8.395   5.942 -0.1520 -0.2437  0.2404
50623SOL    HW157706   8.021   8.325   5.893 -2.9293  0.0884  1.9619
50623SOL    HW257707   8.027   8.475   5.905 -0.1283  0.1163  0.9826
50624SOL     OW57708   8.333   3.062   3.434  0.1751 -0.6899 -0.4571
50624SOL    HW157709   8.343   3.113   3.514  0.5355 -1.1561 -0.2003
50624SOL    HW257710   8.332   3.127   3.364 -2.2127 -0.0938  0.0485
50625SOL     OW57711   5.867  10.859   8.590 -0.0303  0.4469 -0.0815
50625SOL    HW157712   5.891  10.769   8.613 -0.4617  0.2336 -0.4499
50625SOL    HW257713   5.879  10.909   8.671 -2.3581 -0.4417  0.9072
50626SOL     OW57714   7.808   9.346   4.383  0.2655 -0.0605  0.1416
50626SOL    HW157715   7.734   9.285   4.387  0.5609 -0.4049  0.5781
50626SOL    HW257716   7.777   9.419   4.330 -0.6785  0.1954  1.0086
50627SOL     OW57717   6.363  10.800  10.797  0.3376  0.0230 -0.0238
50627SOL    HW157718   6.421  10.757  10.734 -0.0606  1.2877 -1.2996
50627SOL    HW257719   6.335  10.729  10.856  1.3966 -1.0242 -0.7447
50628SOL     OW57720   9.163   1.563  10.126 -0.3462 -0.3669  0.0897
50628SOL    HW157721   9.070   1.544  10.127 -0.4108 -0.0417  0.7723
50628SOL    HW257722   9.170   1.653  10.159  0.1309 -0.0360 -0.8833
50629SOL     OW57723   1.478   4.382   4.503 -0.0335 -0.0696  0.0102
50629SOL    HW157724   1.563   4.361   4.465  0.2520  0.4528  0.3440
50629SOL    HW257725   1.481   4.477   4.519 -0.5241 -0.1113  0.3881
50630SOL     OW57726   5.709  10.024   1.019  0.1160 -0.3163  0.0938
50630SOL    HW157727   5.653   9.994   0.948  2.2041 -0.0181 -1.7816
50630SOL    HW257728   5.722  10.117   1.002 -0.6671  0.1700  1.8757
50631SOL     OW57729  10.391   8.219   7.857  0.3870  0.6574  0.2878
50631SOL    HW157730  10.360   8.307   7.878 -1.5569 -0.0042  0.4306
50631SOL    HW257731  10.311   8.167   7.852  1.6301 -1.6615  2.6989
50632SOL     OW57732   8.645   3.442   2.044 -0.0647 -0.6135  0.2963
50632SOL    HW157733   8.702   3.403   1.977 -0.0286  1.1105 -0.7438
50632SOL    HW257734   8.593   3.507   1.996 -3.1267 -2.2436  1.1471
50633SOL     OW57735   4.350   5.278   3.903  0.4075  0.0934 -0.5820
50633SOL    HW157736   4.363   5.253   3.812  0.8233 -3.9267  0.3666
50633SOL    HW257737   4.259   5.255   3.922  0.9607 -1.4103  0.5117
50634SOL     OW57738   8.157   8.442   8.919 -0.2732 -0.1419 -0.0595
50634SOL    HW157739   8.250   8.463   8.925 -0.1879 -0.3606 -0.6534
50634SOL    HW257740   8.151   8.351   8.946 -0.3144 -0.1415 -0.0678
50635SOL     OW57741   5.143   8.932   9.313 -0.2129 -0.4557 -0.1837
50635SOL    HW157742   5.183   8.861   9.363  1.9422  0.3935 -0.5853
50635SOL    HW257743   5.101   8.987   9.380  0.5742 -0.6049  0.4552
50636SOL     OW57744  10.612  12.166   3.356 -0.5931 -0.2092 -0.7471
50636SOL    HW157745  10.605  12.249   3.404 -0.5236  0.6248 -2.1322
50636SOL    HW257746  10.542  12.111   3.392  0.0458  0.0238  0.9609
50637SOL     OW57747   9.638   2.751   4.059  0.2228 -0.2737  0.0692
50637SOL    HW157748   9.613   2.712   3.975 -1.5637  1.9323 -0.5283
50637SOL    HW257749   9.730   2.775   4.047  0.8449 -2.5179 -0.1684
50638SOL     OW57750   1.330   1.692   0.474  0.2924 -0.1908 -0.5068
50638SOL    HW157751   1.385   1.618   0.501 -0.2910 -0.6387 -0.5486
50638SOL    HW257752   1.281   1.716   0.553 -1.1358 -1.2604 -1.0305
50639SOL     OW57753   3.049   5.363   8.843  0.3579 -0.8534 -0.1272
50639SOL    HW157754   3.100   5.440   8.865  0.8778 -1.0873 -0.4841
50639SOL    HW257755   3.107   5.289   8.862  0.1511 -1.1219 -0.5106
50640SOL     OW57756   0.908  11.042   5.905  0.2695 -0.3390 -0.2240
50640SOL    HW157757   0.962  11.101   5.852  0.9443 -1.4316 -0.8001
50640SOL    HW257758   0.972  10.987   5.951 -0.3246  0.0994  1.1678
50641SOL     OW57759   8.418   6.812   4.759 -0.4043  0.5389 -0.2175
50641SOL    HW157760   8.444   6.901   4.734 -0.5269  0.2326 -1.4767
50641SOL    HW257761   8.438   6.808   4.853  0.5217  1.5673 -0.3399
50642SOL     OW57762   4.359   3.772   4.636 -0.0775  0.2168 -0.1763
50642SOL    HW157763   4.370   3.780   4.541  0.2597 -0.9481 -0.2561
50642SOL    HW257764   4.442   3.800   4.673 -0.3605  1.0969 -0.1919
50643SOL     OW57765   0.758   4.925   8.400  0.8426  0.2412 -0.1591
50643SOL    HW157766   0.701   4.861   8.358  0.2578  0.7445 -0.1304
50643SOL    HW257767   0.813   4.958   8.330 -0.2093  1.1677 -0.5724
50644SOL     OW57768   6.724   7.326   9.607  0.3399  0.1371  0.3562
50644SOL    HW157769   6.631   7.324   9.628  0.7677  0.6823  2.5521
50644SOL    HW257770   6.753   7.413   9.634  1.5590 -0.1707  0.1074
50645SOL     OW57771   4.198   7.232   2.694  0.4864  0.3304  0.0720
50645SOL    HW157772   4.114   7.211   2.736  0.4494  0.9346  0.3043
50645SOL    HW257773   4.264   7.203   2.757  0.5340 -1.7954 -0.8361
50646SOL     OW57774   3.860  10.885   1.671 -0.4815 -0.1524 -0.4528
50646SOL    HW157775   3.926  10.953   1.657 -0.8937  0.3959  0.1987
50646SOL    HW257776   3.804  10.919   1.741  0.4845 -2.0195  1.3504
50647SOL     OW57777   1.046   2.019  10.930 -0.0320 -0.3561  0.9551
50647SOL    HW157778   0.961   1.998  10.968 -0.8046  1.0693  0.1007
50647SOL    HW257779   1.067   2.106  10.965  1.0824 -0.6928  1.1523
50648SOL     OW57780   4.310   5.917   5.223 -0.2417  0.3910  0.0065
50648SOL    HW157781   4.369   5.904   5.149  0.9604 -0.3350  1.0487
50648SOL    HW257782   4.235   5.964   5.186  0.9395  1.2606 -1.3729
50649SOL     OW57783  10.685   5.921   0.676  0.0814  0.0998 -0.4735
50649SOL    HW157784  10.660   6.005   0.716 -1.5414 -1.4210  1.9261
50649SOL    HW257785  10.708   5.944   0.586 -0.7320  3.0509 -0.0422
50650SOL     OW57786   2.265   9.370   3.707  0.0857 -0.3108 -0.4077
50650SOL    HW157787   2.277   9.311   3.633 -1.4280 -2.7059  1.1118
50650SOL    HW257788   2.171   9.373   3.721  0.3288 -0.1964  1.5489
50651SOL     OW57789   7.377   6.351   2.856 -0.4051  0.0836 -0.3311
50651SOL    HW157790   7.301   6.304   2.823 -0.3476 -0.3492  0.1287
50651SOL    HW257791   7.347   6.390   2.938 -0.4070  0.7226 -0.6338
50652SOL     OW57792   9.046  11.643   9.449  0.4595 -0.4888 -0.0390
50652SOL    HW157793   9.109  11.696   9.497  1.0774 -0.0710 -1.2667
50652SOL    HW257794   9.091  11.562   9.429 -0.0092 -0.9192  0.6213
50653SOL     OW57795   4.233  11.007   2.704  0.0627  0.7105 -0.3809
50653SOL    HW157796   4.142  11.013   2.675  0.0810 -0.2799 -0.6737
50653SOL    HW257797   4.247  10.913   2.719  1.3508  0.7185 -1.3851
50654SOL     OW57798   1.337   6.960  10.066 -0.0220  0.0505 -0.2501
50654SOL    HW157799   1.265   6.921  10.017 -0.3777 -0.2228  0.4857
50654SOL    HW257800   1.400   6.987   9.998 -0.1334 -1.0577 -0.8193
50655SOL     OW57801  10.044   3.708   3.873  0.1966 -0.5775  0.6019
50655SOL    HW157802  10.051   3.618   3.840 -1.3714 -0.8935  1.0271
50655SOL    HW257803  10.035   3.761   3.794 -2.4494 -1.2139  0.3755
50656SOL     OW57804  11.945   9.429   7.652 -0.3597  0.2993 -0.1754
50656SOL    HW157805  11.937   9.432   7.557 -2.4157  1.6207 -0.0083
50656SOL    HW257806  11.977   9.516   7.676  0.5205 -0.1525  0.3379
50657SOL     OW57807   7.239   6.108   4.999  0.2745 -0.3632 -0.5859
50657SOL    HW157808   7.167   6.058   5.038 -0.2515  0.5400 -0.3470
50657SOL    HW257809   7.306   6.043   4.979 -0.0608 -1.0570  0.4368
50658SOL     OW57810   0.697   0.286   2.735  0.1637  0.0425 -0.1292
50658SOL    HW157811   0.630   0.264   2.670  0.2936  0.5703 -0.4498
50658SOL    HW257812   0.673   0.236   2.813  0.4202 -1.1959 -0.8098
50659SOL     OW57813  10.772   6.830   3.628 -0.1733  0.0403  0.4443
50659SOL    HW157814  10.728   6.912   3.653  1.7972  0.9230  1.1963
50659SOL    HW257815  10.771   6.777   3.707  1.2196  0.6157  0.8879
50660SOL     OW57816   6.724   2.430   8.572  0.3302  0.5876  0.4508
50660SOL    HW157817   6.630   2.426   8.555  0.6351 -0.6435 -1.1590
50660SOL    HW257818   6.765   2.428   8.485  1.8808 -0.5095  1.1435
50661SOL     OW57819   3.111   2.476   7.970  0.0373  0.0582 -0.6655
50661SOL    HW157820   3.204   2.459   7.954  0.3793 -0.5450  1.6552
50661SOL    HW257821   3.109   2.525   8.051 -1.7113 -0.6468 -0.2390
50662SOL     OW57822   4.485  10.605   7.006  0.2827  0.5394 -0.0085
50662SOL    HW157823   4.537  10.607   6.926  0.8361  0.2224  0.3382
50662SOL    HW257824   4.522  10.675   7.060  1.3357 -0.6255  0.8338
50663SOL     OW57825   3.177   8.303   6.250 -0.0455 -0.7980  0.9139
50663SOL    HW157826   3.234   8.256   6.189  0.5222  0.2387  0.6243
50663SOL    HW257827   3.235   8.330   6.321  0.1202  1.3564  0.0156
50664SOL     OW57828   6.577   7.571   1.861  0.1718  0.3232  0.4412
50664SOL    HW157829   6.670   7.590   1.858  0.3069 -0.1901  1.0357
50664SOL    HW257830   6.535   7.644   1.816  0.8614  0.5428  0.1516
50665SOL     OW57831   8.020   9.092   2.658  0.4589  0.0223 -0.1128
50665SOL    HW157832   7.945   9.086   2.598  1.2970  0.5770 -1.2467
50665SOL    HW257833   8.093   9.121   2.603  0.9881  1.7294  1.3931
50666SOL     OW57834  10.266   6.878   3.999  0.0508  0.1746  0.0199
50666SOL    HW157835  10.358   6.903   4.010  1.4302 -4.1520  0.4427
50666SOL    HW257836  10.267   6.823   3.921 -2.1686 -0.1465  0.1755
50667SOL     OW57837   9.597   7.089   5.788  0.4851 -0.5207 -0.7495
50667SOL    HW157838   9.658   7.043   5.846  0.7271 -0.3191 -0.8395
50667SOL    HW257839   9.616   7.053   5.701 -0.7563 -1.7517 -0.5436
50668SOL     OW57840  11.513  11.242   6.937 -0.3974  0.5633  0.3064
50668SOL    HW157841  11.470  11.176   6.991 -0.8847 -0.4648 -1.2668
50668SOL    HW257842  11.451  11.260   6.866 -0.5175  3.1683  0.9731
50669SOL     OW57843  10.769  10.256   5.636  0.4008  0.1502  0.3177
50669SOL    HW157844  10.771  10.303   5.720  1.4937  1.5637 -0.4545
50669SOL    HW257845  10.708  10.305   5.582 -0.1837 -0.6708  0.2181
50670SOL     OW57846   6.612   3.791   5.338 -0.0598 -0.0929  0.1081
50670SOL    HW157847   6.563   3.873   5.348  0.1477  0.2320 -1.4096
50670SOL    HW257848   6.642   3.792   5.248  1.6460 -0.9082  0.6276
50671SOL     OW57849   0.354   2.753   8.781  0.3628  0.2583  0.1959
50671SOL    HW157850   0.311   2.836   8.761  1.3899  0.5714 -0.8728
50671SOL    HW257851   0.427   2.777   8.838  0.3356  0.0121  0.3353
50672SOL     OW57852   2.747   7.928   4.951  0.3246  0.0448 -0.1924
50672SOL    HW157853   2.747   7.901   4.859 -0.2660 -1.3539  0.2056
50672SOL    HW257854   2.742   7.846   5.000  1.2476  0.7347  1.1123
50673SOL     OW57855   3.075   6.325  10.761  0.1715 -0.6477  0.3361
50673SOL    HW157856   3.155   6.278  10.784  0.3266  0.8213  3.2526
50673SOL    HW257857   3.005   6.261  10.776  0.6323 -1.2399  0.0079
50674SOL     OW57858   3.033   0.152   7.130  0.3949  0.7608  0.1372
50674SOL    HW157859   3.117   0.114   7.107  0.0769 -1.0367  1.7307
50674SOL    HW257860   3.055   0.229   7.183  1.0142  0.8416 -0.2303
50675SOL     OW57861   0.649   6.344   7.332  0.0128  0.0078 -0.5900
50675SOL    HW157862   0.692   6.415   7.283  0.2909 -0.5287 -1.1380
50675SOL    HW257863   0.672   6.361   7.423  1.5382 -0.3438 -0.8806
50676SOL     OW57864   9.217  12.111   3.163 -0.0342  0.1328 -0.3621
50676SOL    HW157865   9.255  12.133   3.248  0.2438  0.2619 -0.5142
50676SOL    HW257866   9.139  12.165   3.156 -0.0270  0.1617 -0.2108
50677SOL     OW57867   4.964   8.573   0.303 -0.0877  0.0161 -0.5107
50677SOL    HW157868   4.907   8.545   0.232 -1.0771  2.6704 -0.8970
50677SOL    HW257869   5.042   8.606   0.259  0.1363 -0.1426 -0.2356
50678SOL     OW57870  11.014  12.190  11.920  0.2589  0.4027  0.1997
50678SOL    HW157871  11.011  12.237  12.003  1.4080  0.4700  0.2224
50678SOL    HW257872  10.982  12.252  11.855 -0.3965  0.4365  0.5518
50679SOL     OW57873  10.286   3.352   2.992  0.1445  0.4135 -0.2645
50679SOL    HW157874  10.348   3.421   3.014  1.5248  0.0232 -2.5443
50679SOL    HW257875  10.230   3.344   3.069  1.0116  2.8730  0.7192
50680SOL     OW57876   1.932   5.244  11.424  0.0826  0.7607 -0.5177
50680SOL    HW157877   1.971   5.326  11.394  0.1678  0.1021 -2.3514
50680SOL    HW257878   1.905   5.261  11.514  2.5814  1.9402  0.1062
50681SOL     OW57879   7.831   9.536   2.201  0.0471  0.5530 -0.5535
50681SOL    HW157880   7.868   9.561   2.117 -0.2510  0.9056 -0.5784
50681SOL    HW257881   7.790   9.451   2.185  2.9734 -1.1156  0.0367
50682SOL     OW57882   8.429   6.802   5.021  0.5971  0.1783 -0.2699
50682SOL    HW157883   8.511   6.810   5.071 -0.3942  1.7130  1.2464
50682SOL    HW257884   8.360   6.812   5.087 -0.8041  0.1322 -1.6719
50683SOL     OW57885   4.218   9.188   1.154 -0.5050  0.3613 -0.0744
50683SOL    HW157886   4.258   9.168   1.239 -0.1858 -0.9548 -0.5141
50683SOL    HW257887   4.270   9.138   1.091 -0.4332  1.6985 -1.1091
50684SOL     OW57888   2.083   0.924  10.341 -0.1107  0.0622  0.8714
50684SOL    HW157889   2.152   0.949  10.403  0.6755 -0.0087  0.0452
50684SOL    HW257890   2.101   0.832  10.320  1.1478  0.7148 -1.3029
50685SOL     OW57891   9.836   1.072  11.839  0.2871 -0.0232  0.1452
50685SOL    HW157892   9.925   1.100  11.821  0.2238  0.2935  0.3221
50685SOL    HW257893   9.796   1.145  11.886 -0.1179 -0.0943 -0.0794
50686SOL     OW57894   2.415   1.856   0.890 -0.4846  0.2026 -0.1649
50686SOL    HW157895   2.459   1.832   0.809  0.2270  0.0556  0.2533
50686SOL    HW257896   2.484   1.896   0.944 -0.7370 -0.4669  0.6851
50687SOL     OW57897   2.185   3.127   5.987 -0.4678 -0.2119  0.1165
50687SOL    HW157898   2.247   3.055   5.998 -0.1517  0.0293 -0.0781
50687SOL    HW257899   2.160   3.151   6.076 -1.0205 -0.9412  0.1685
50688SOL     OW57900   8.351   7.404   2.632 -0.0620  0.2184  0.0480
50688SOL    HW157901   8.355   7.393   2.537 -0.3046  0.5824 -0.0052
50688SOL    HW257902   8.324   7.495   2.645  2.2272  0.9156  0.4682
50689SOL     OW57903   4.805   3.485   8.844  0.1678 -0.0073 -0.3738
50689SOL    HW157904   4.810   3.556   8.780 -0.0267  0.7277  0.4029
50689SOL    HW257905   4.868   3.420   8.813  0.5515  0.6284 -0.9567
50690SOL     OW57906  11.962   2.669   9.889 -0.4806  0.5994 -0.1923
50690SOL    HW157907  11.972   2.760   9.861 -0.1902  0.5969 -0.0977
50690SOL    HW257908  11.929   2.675   9.979  0.7970  0.6293  0.2996
50691SOL     OW57909   4.022  12.195   6.505 -0.5810 -0.1290  0.3833
50691SOL    HW157910   4.085  12.203   6.433 -0.7037  0.8457  0.3696
50691SOL    HW257911   3.941  12.165   6.463 -0.2905 -0.8554  0.3217
50692SOL     OW57912   3.733   3.739   5.608 -0.3750 -0.0116  0.2589
50692SOL    HW157913   3.823   3.765   5.591 -0.2409  0.6825  1.8468
50692SOL    HW257914   3.738   3.688   5.689 -1.5429  0.9931  0.9885
50693SOL     OW57915   0.837  11.270   4.397  0.4567  0.0769  0.6791
50693SOL    HW157916   0.902  11.301   4.334  0.7577  1.4028  1.5860
50693SOL    HW257917   0.867  11.306   4.481 -0.0707 -1.4224  1.5438
50694SOL     OW57918   0.143   7.204  11.614  0.3736  0.3198  0.0923
50694SOL    HW157919   0.129   7.176  11.524  0.4295  0.3861  0.0630
50694SOL    HW257920   0.107   7.133  11.667  0.2200  0.3414  0.0175
50695SOL     OW57921   6.976   4.720  11.610  0.4005 -0.1174 -0.0845
50695SOL    HW157922   6.940   4.659  11.675 -0.2925 -0.5859 -0.8804
50695SOL    HW257923   7.048   4.764  11.655  2.2953 -2.9726 -0.0861
50696SOL     OW57924   2.547   6.408  11.166 -0.1383 -0.6511 -0.0322
50696SOL    HW157925   2.452   6.402  11.153 -0.4283 -0.2658  1.6484
50696SOL    HW257926   2.567   6.336  11.225  0.4227 -0.0405  0.5307
50697SOL     OW57927   2.708   5.281  11.538  0.4150 -0.4516 -0.0259
50697SOL    HW157928   2.702   5.194  11.500 -4.3702 -0.4744  0.1956
50697SOL    HW257929   2.731   5.267  11.629  1.6798 -1.2656 -0.4566
50698SOL     OW57930   2.270   2.862  11.390 -0.1733  0.4156 -0.1902
50698SOL    HW157931   2.271   2.820  11.304 -0.3521  2.4235 -1.2351
50698SOL    HW257932   2.189   2.914  11.390  0.2971  1.1848  0.8196
50699SOL     OW57933  11.956  12.149   3.993 -0.0746  0.5300  0.4217
50699SOL    HW157934  11.916  12.121   4.075  1.1786 -1.6867  0.3472
50699SOL    HW257935  11.897  12.117   3.925  0.4364 -0.3811  0.3926
50700SOL     OW57936   6.616  11.393   3.834  0.0458 -0.3834 -0.5402
50700SOL    HW157937   6.671  11.467   3.807 -1.4862  0.9482 -0.2430
50700SOL    HW257938   6.529  11.416   3.800 -0.2685 -2.6074 -1.3678
50701SOL     OW57939   7.065   3.923   3.119  0.8970 -0.1115 -0.7120
50701SOL    HW157940   7.071   4.002   3.065  2.7131  1.7764  1.9727
50701SOL    HW257941   7.134   3.934   3.185 -1.8289 -1.5960  2.7088
50702SOL     OW57942  10.895   2.483   3.344 -0.8542  0.0788  0.2463
50702SOL    HW157943  10.849   2.437   3.274  0.2109  1.4903 -1.4604
50702SOL    HW257944  10.985   2.489   3.313 -0.0640 -0.2964  2.3129
50703SOL     OW57945   8.137   5.080   0.267  0.4708 -0.3743  0.3608
50703SOL    HW157946   8.106   4.989   0.269 -0.8031  0.0385  0.8918
50703SOL    HW257947   8.087   5.123   0.337  0.2663  0.9775 -0.5912
50704SOL     OW57948   7.198   9.859   1.835  0.1779 -0.7044 -0.2266
50704SOL    HW157949   7.134   9.925   1.860  0.7633 -0.2046 -0.0273
50704SOL    HW257950   7.228   9.886   1.748 -0.6536 -1.5292 -0.7860
50705SOL     OW57951  10.800   8.748   0.206  0.7084 -0.1020  0.0585
50705SOL    HW157952  10.767   8.823   0.156 -1.6337 -1.6860 -0.8892
50705SOL    HW257953  10.774   8.671   0.155  3.2995 -1.6236  0.8364
50706SOL     OW57954   8.748   5.018   6.471 -0.3180  0.0718 -0.2426
50706SOL    HW157955   8.836   4.989   6.446 -0.8414 -1.6054 -0.2198
50706SOL    HW257956   8.742   5.108   6.438  1.2195  0.0386 -0.6723
50707SOL     OW57957   7.042   3.522   4.077 -0.0212  0.2651 -0.1307
50707SOL    HW157958   6.983   3.585   4.120 -1.4169 -1.9199  1.3243
50707SOL    HW257959   7.022   3.531   3.984 -0.4798  1.6480  0.0678
50708SOL     OW57960   7.957   3.042   3.562  0.1007 -0.2276 -0.4427
50708SOL    HW157961   7.870   3.052   3.601  0.5993 -0.6700  0.8165
50708SOL    HW257962   7.953   3.094   3.481 -0.5194  1.9447  0.8998
50709SOL     OW57963   8.134   7.895   7.674 -0.1177 -0.2586  0.0287
50709SOL    HW157964   8.185   7.970   7.704  1.1217 -0.7100 -0.8439
50709SOL    HW257965   8.089   7.927   7.595 -0.4238 -0.1377  0.2509
50710SOL     OW57966   0.037  10.496   2.194 -0.0532 -0.6115 -0.7910
50710SOL    HW157967  -0.001  10.452   2.118  1.0092 -1.3630 -0.9180
50710SOL    HW257968  -0.037  10.511   2.252 -0.6329 -1.5143 -1.2678
50711SOL     OW57969   6.549   2.258   8.787 -0.3094 -1.0044  0.0788
50711SOL    HW157970   6.552   2.336   8.731 -2.4225 -0.5342  0.5343
50711SOL    HW257971   6.593   2.190   8.736  0.9651  0.2890 -0.6259
50712SOL     OW57972   1.948   7.670   4.262  0.2519  0.1044  0.1815
50712SOL    HW157973   1.905   7.594   4.300  1.1185 -1.6621 -2.1107
50712SOL    HW257974   1.889   7.743   4.280 -1.7039 -1.4911  0.6056
50713SOL     OW57975  11.870   8.460   8.253  0.4494  0.8473 -0.2166
50713SOL    HW157976  11.875   8.512   8.333  2.0124 -0.7789  0.8242
50713SOL    HW257977  11.915   8.514   8.187  0.8346  1.4069  0.4819
50714SOL     OW57978   8.318   8.760   0.271  0.4780  0.4964 -0.0900
50714SOL    HW157979   8.252   8.804   0.218 -1.9684 -0.7679  1.7012
50714SOL    HW257980   8.388   8.825   0.282 -1.5999  2.8848  0.0041
50715SOL     OW57981   5.539   7.327   6.752  0.5457  0.1460  0.2657
50715SOL    HW157982   5.453   7.285   6.749  1.3399 -1.5161 -0.7996
50715SOL    HW257983   5.545   7.376   6.670  1.9065 -2.6211 -1.4340
50716SOL     OW57984   6.257   7.908   6.618 -0.1585 -0.4132  0.5511
50716SOL    HW157985   6.170   7.929   6.651 -1.0086 -0.4326 -1.5205
50716SOL    HW257986   6.317   7.951   6.679 -1.6751  2.0716  0.4119
50717SOL     OW57987   7.849   7.816   2.643 -0.2786  0.2012  0.0582
50717SOL    HW157988   7.900   7.817   2.725 -0.4734  0.5290  0.1783
50717SOL    HW257989   7.835   7.909   2.623  1.5679  0.2010 -1.4750
50718SOL     OW57990   3.810   5.205   8.851 -0.6659 -0.4272  0.0432
50718SOL    HW157991   3.864   5.275   8.815 -1.8541  0.1027 -0.7675
50718SOL    HW257992   3.811   5.137   8.783 -1.1902 -0.3180 -0.0764
50719SOL     OW57993   0.835   7.256   1.346  0.0432 -0.3156 -0.1659
50719SOL    HW157994   0.805   7.265   1.437  0.5418  0.4318 -0.0741
50719SOL    HW257995   0.926   7.286   1.347  0.1357 -0.5588 -0.8624
50720SOL     OW57996  12.139   5.113   5.059  0.2033 -0.2355 -0.2451
50720SOL    HW157997  12.116   5.021   5.074 -1.3741  0.5679  3.3202
50720SOL    HW257998  12.229   5.120   5.091  0.1004 -0.4211  0.0916
50721SOL     OW57999   3.370  10.972  11.272  0.1414 -0.4970  0.3129
50721SOL    HW158000   3.325  10.991  11.189  1.2121 -0.3829 -0.2605
50721SOL    HW258001   3.461  10.998  11.256  0.0842  0.8485  1.9994
50722SOL     OW58002   4.959  11.843   5.301  0.7990  0.2779 -0.3597
50722SOL    HW158003   4.976  11.779   5.232  0.1708 -0.9920  0.6309
50722SOL    HW258004   4.890  11.803   5.354  1.9350  0.7807  1.5672
50723SOL     OW58005   8.374  10.570   8.302 -0.0039 -0.3390 -1.3790
50723SOL    HW158006   8.304  10.504   8.302 -0.0338 -0.4448  1.8426
50723SOL    HW258007   8.454  10.520   8.314  0.0580  0.1139  0.2306
50724SOL     OW58008   9.813  10.751  10.358  0.4455 -0.0642  0.1916
50724SOL    HW158009   9.769  10.810  10.420  2.8924 -0.5541  2.6156
50724SOL    HW258010   9.879  10.806  10.316  0.6142 -0.3496  0.0825
50725SOL     OW58011   8.545   6.492   7.980  0.1120 -0.0850 -0.0197
50725SOL    HW158012   8.453   6.474   7.997  0.1909 -1.1754 -0.6391
50725SOL    HW258013   8.545   6.562   7.915 -0.2351  1.1680  1.2811
50726SOL     OW58014   3.571   8.854  10.017  0.1590 -0.0721 -0.2552
50726SOL    HW158015   3.570   8.942  10.056  1.2709 -0.9918  2.0586
50726SOL    HW258016   3.546   8.868   9.926  0.5628  2.6689 -0.0367
50727SOL     OW58017  11.891  11.906   4.224 -0.1466 -0.0038 -0.1857
50727SOL    HW158018  11.833  11.832   4.208 -1.6256  1.3020 -1.3226
50727SOL    HW258019  11.840  11.966   4.279  1.4468 -0.2826  1.7091
50728SOL     OW58020   0.529   4.438  10.156  0.5005  0.1971 -0.7347
50728SOL    HW158021   0.491   4.484  10.081  0.2256 -2.1099 -2.1085
50728SOL    HW258022   0.623   4.440  10.140  0.6259  1.4914 -0.0001
50729SOL     OW58023   5.593  11.277  11.237 -0.0421 -0.1694 -0.0158
50729SOL    HW158024   5.673  11.225  11.226  0.7354  0.4499  2.1887
50729SOL    HW258025   5.546  11.234  11.309 -0.4596  0.8870  0.3649
50730SOL     OW58026   6.783   9.175   0.959 -0.4049  0.0951 -0.2793
50730SOL    HW158027   6.726   9.233   0.909 -0.2659  0.1695 -0.3515
50730SOL    HW258028   6.754   9.087   0.936 -0.9887  0.1436  0.2643
50731SOL     OW58029   3.694   9.393   6.195 -0.1776 -0.7842  0.4180
50731SOL    HW158030   3.698   9.489   6.193  0.6595 -0.8243 -1.0951
50731SOL    HW258031   3.786   9.365   6.192 -0.3971 -1.6448  1.2893
50732SOL     OW58032   1.925   7.658   8.753 -0.3859 -0.0871  0.5506
50732SOL    HW158033   1.844   7.706   8.771 -0.3479  0.6352 -1.0164
50732SOL    HW258034   1.914   7.575   8.800 -1.4473  0.5283  1.4499
50733SOL     OW58035   1.854   9.898   7.620 -0.4621  0.1701 -0.1256
50733SOL    HW158036   1.766   9.924   7.648 -1.5200  0.4089 -3.2812
50733SOL    HW258037   1.845   9.805   7.598 -0.1087  0.3274 -0.9807
50734SOL     OW58038   2.796  10.379   7.581 -0.5289  0.4769 -0.3119
50734SOL    HW158039   2.750  10.454   7.544  0.2050  0.7038 -0.7842
50734SOL    HW258040   2.751  10.362   7.664 -0.0471  2.1141  0.3363
50735SOL     OW58041   1.528   8.055  12.045 -0.0455  0.0096 -0.4858
50735SOL    HW158042   1.508   8.001  11.969  0.8673 -2.6879  1.0363
50735SOL    HW258043   1.608   8.102  12.022  0.0430 -0.5295 -1.2865
50736SOL     OW58044   5.041   1.436   5.843  0.2750  0.0908  0.4014
50736SOL    HW158045   5.078   1.416   5.930 -2.8505 -0.0866  1.8165
50736SOL    HW258046   4.992   1.517   5.856 -1.4547 -0.7141 -0.7720
50737SOL     OW58047  11.098   9.451  10.738  0.4297 -0.1165 -0.0519
50737SOL    HW158048  11.085   9.487  10.650 -0.0265 -0.3797 -0.0938
50737SOL    HW258049  11.058   9.515  10.796 -2.4478 -1.5551 -0.2550
50738SOL     OW58050   8.978   4.337   0.189  0.6268 -0.4021  0.3028
50738SOL    HW158051   9.055   4.343   0.245  0.6879  3.5817  0.0760
50738SOL    HW258052   8.914   4.397   0.229 -0.3030  0.5505 -2.3530
50739SOL     OW58053   8.231   4.930   4.271  0.0462  0.3212  0.2277
50739SOL    HW158054   8.263   4.840   4.261 -2.6181 -0.5863 -1.2810
50739SOL    HW258055   8.242   4.949   4.364  1.6526 -1.1351  0.3926
50740SOL     OW58056   7.615   8.219   0.281 -0.3644  0.0434  0.6039
50740SOL    HW158057   7.620   8.305   0.241  2.7902 -0.9347 -1.4646
50740SOL    HW258058   7.584   8.161   0.211  1.5721 -1.1021  0.6280
50741SOL     OW58059  11.983   6.450   8.601 -0.0702  0.6768  0.7866
50741SOL    HW158060  11.938   6.526   8.640 -1.3125  0.0696  0.5621
50741SOL    HW258061  12.075   6.465   8.622 -0.4139  1.6972  1.7071
50742SOL     OW58062   4.645   9.592   2.406 -0.0516 -0.5004  0.5510
50742SOL    HW158063   4.643   9.621   2.315 -0.1946 -1.2283  0.3165
50742SOL    HW258064   4.669   9.500   2.402 -1.6676 -0.9694  1.1405
50743SOL     OW58065   2.249   9.910   0.291 -0.2644 -0.2679  0.1235
50743SOL    HW158066   2.176   9.850   0.308 -1.3634  0.3003 -2.1563
50743SOL    HW258067   2.226   9.991   0.336  0.6253 -1.0939  2.1739
50744SOL     OW58068   8.412   8.816   8.303 -0.0754  0.1048 -0.4897
50744SOL    HW158069   8.446   8.730   8.327 -1.1853 -0.8636 -2.1841
50744SOL    HW258070   8.325   8.799   8.267  0.1240  1.7833 -1.9178
50745SOL     OW58071   2.987   2.568   3.868 -0.4233 -0.1683 -0.8590
50745SOL    HW158072   3.019   2.643   3.919 -1.2479 -0.8860  0.7825
50745SOL    HW258073   3.050   2.558   3.797  1.4997  0.0921  0.7493
50746SOL     OW58074   0.079   4.919   4.769  0.1047 -0.2854 -0.3252
50746SOL    HW158075   0.098   4.850   4.833  0.3333 -0.0212 -0.1036
50746SOL    HW258076   0.135   4.992   4.796  0.6635 -0.3766 -1.1919
50747SOL     OW58077   3.151   8.133   5.143  0.4134 -0.5306 -0.0367
50747SOL    HW158078   3.102   8.052   5.152 -0.0798 -0.4967 -1.9678
50747SOL    HW258079   3.145   8.154   5.050  0.2511  1.9015  0.4652
50748SOL     OW58080   8.411   5.880   4.396  0.2832  0.3550  0.3168
50748SOL    HW158081   8.428   5.819   4.468 -0.6083  0.5430  0.7067
50748SOL    HW258082   8.488   5.937   4.395  1.1386 -0.7729 -0.0762
50749SOL     OW58083   6.674   8.210  10.646 -0.3651  0.7013  0.7136
50749SOL    HW158084   6.688   8.145  10.714  1.8525  1.4239  1.0589
50749SOL    HW258085   6.597   8.259  10.675 -1.0045 -0.6268  1.3406
50750SOL     OW58086   4.823   9.105  11.212 -0.1315 -0.2887 -0.1586
50750SOL    HW158087   4.775   9.082  11.292 -0.0935 -0.4318 -0.1768
50750SOL    HW258088   4.778   9.057  11.143 -0.8427  0.6669 -0.3933
50751SOL     OW58089   6.923  11.362   9.525 -0.1895 -0.3513  0.6441
50751SOL    HW158090   6.840  11.390   9.487 -0.3102 -0.8327  0.5414
50751SOL    HW258091   6.910  11.269   9.544 -0.9072  0.2653  3.8058
50752SOL     OW58092   2.956  11.163   3.071 -0.1353  0.3305 -0.7820
50752SOL    HW158093   3.049  11.170   3.094  0.2289  2.2520 -2.5520
50752SOL    HW258094   2.910  11.168   3.155  1.3000  1.6979 -0.0210
50753SOL     OW58095   5.060   0.375   3.112 -0.2279  0.5320 -0.0098
50753SOL    HW158096   4.970   0.389   3.082 -1.1966 -1.1818  1.8639
50753SOL    HW258097   5.103   0.330   3.040 -1.1787  0.4268 -0.5200
50754SOL     OW58098   2.346   9.603   3.854  0.2911  0.2503 -0.4486
50754SOL    HW158099   2.315   9.537   3.792  1.1427 -0.2380 -0.3722
50754SOL    HW258100   2.346   9.559   3.939 -2.2674  1.3535  0.1972
50755SOL     OW58101   9.670   8.286   4.595 -0.2205 -0.0844 -0.0095
50755SOL    HW158102   9.736   8.351   4.615  0.3526 -0.2928 -1.1229
50755SOL    HW258103   9.719   8.206   4.575 -0.8111 -0.3626 -0.4123
50756SOL     OW58104   9.013   1.481   2.228  0.2619 -0.4437  0.1340
50756SOL    HW158105   9.073   1.482   2.153  0.0820  1.1467 -0.0153
50756SOL    HW258106   9.035   1.399   2.274  1.5327 -0.6236 -0.7175
50757SOL     OW58107   5.076   3.507   4.430  0.0526  0.4353  0.2647
50757SOL    HW158108   5.041   3.577   4.376  2.7764  1.2125 -0.6318
50757SOL    HW258109   5.069   3.539   4.520 -1.4003  0.5581  0.1307
50758SOL     OW58110   4.655   1.346   6.247 -0.1213 -0.0631  0.3067
50758SOL    HW158111   4.722   1.402   6.209  1.6607 -3.1344 -1.4197
50758SOL    HW258112   4.572   1.385   6.219  1.0574  0.7978 -2.2731
50759SOL     OW58113   6.538   6.164  10.168 -0.2797  0.1442 -0.3853
50759SOL    HW158114   6.535   6.203  10.255 -0.4581  0.1349 -0.3869
50759SOL    HW258115   6.505   6.075  10.180  0.9838 -0.3259 -0.2158
50760SOL     OW58116  10.073   1.471   7.137  0.2018 -0.4157 -0.1108
50760SOL    HW158117  10.167   1.477   7.118  0.6516  1.5426  2.3159
50760SOL    HW258118  10.069   1.435   7.226 -1.1165  2.4348  1.1058
50761SOL     OW58119   4.910   4.066   6.481 -0.0524 -0.1778  0.1064
50761SOL    HW158120   4.912   4.137   6.545 -2.2136 -0.0655  0.1152
50761SOL    HW258121   4.991   4.076   6.431  2.2355 -0.8265  3.3531
50762SOL     OW58122   6.461   3.868   3.133  0.2572  0.1139 -0.3682
50762SOL    HW158123   6.429   3.866   3.043 -0.8513  1.5422 -0.0478
50762SOL    HW258124   6.436   3.783   3.169 -0.6276  0.0934 -0.9956
50763SOL     OW58125   3.525   8.006   6.875  0.5683  0.0357 -0.2267
50763SOL    HW158126   3.476   7.934   6.914  0.8048  0.8058  1.6140
50763SOL    HW258127   3.487   8.085   6.913  1.1128  0.8264 -1.2633
50764SOL     OW58128   3.123   7.978   2.941  0.0061  0.0416  0.4486
50764SOL    HW158129   3.199   8.031   2.915 -0.7571  0.8449 -0.1877
50764SOL    HW258130   3.093   8.018   3.022 -0.4444  0.4588  0.0783
50765SOL     OW58131  10.975   2.737   0.908  0.3088 -0.2401 -0.2048
50765SOL    HW158132  10.912   2.788   0.857  0.6968  0.4641  0.0167
50765SOL    HW258133  10.982   2.654   0.860 -2.1633 -1.0908  0.7575
50766SOL     OW58134   0.053   2.992  11.220 -0.3183 -0.3177  0.0456
50766SOL    HW158135   0.072   2.902  11.197 -0.7799 -0.4774  0.2734
50766SOL    HW258136   0.019   3.031  11.139 -1.2534 -0.6835  0.2436
50767SOL     OW58137   7.496   8.583   0.083 -0.4119 -0.2836  0.5310
50767SOL    HW158138   7.431   8.653   0.073 -0.1266 -0.2228 -1.1604
50767SOL    HW258139   7.573   8.626   0.119 -0.7619 -0.0547  1.0249
50768SOL     OW58140   1.903   0.588  10.892 -0.0546 -0.2613 -0.1623
50768SOL    HW158141   1.835   0.590  10.959  1.2726 -0.1106  1.2100
50768SOL    HW258142   1.924   0.680  10.876  2.8502 -0.2849  2.6543
50769SOL     OW58143   8.137   1.082   6.107 -0.1982 -0.5538 -0.0172
50769SOL    HW158144   8.123   1.091   6.013  1.1960  0.1819 -0.1794
50769SOL    HW258145   8.203   1.012   6.114  1.0334  0.6068  0.2828
50770SOL     OW58146  11.576   3.656  10.075 -0.2470  0.3916 -0.1760
50770SOL    HW158147  11.541   3.639   9.987  0.7639  0.7882 -0.6732
50770SOL    HW258148  11.589   3.751  10.077 -0.0760  0.3576  0.3338
50771SOL     OW58149   3.207  10.452   1.369  0.1756 -0.4860 -0.0812
50771SOL    HW158150   3.216  10.487   1.457 -0.5192 -0.3102 -0.0738
50771SOL    HW258151   3.184  10.360   1.381  0.0534 -0.4552 -0.0770
50772SOL     OW58152  10.947   9.500   7.158  0.5516 -0.3969  0.0488
50772SOL    HW158153  10.891   9.553   7.215 -0.0820 -1.0386  0.0459
50772SOL    HW258154  10.894   9.422   7.140  1.5001 -1.0704  0.1364
50773SOL     OW58155  10.394   1.523  12.021 -0.2633  0.0459 -0.0749
50773SOL    HW158156  10.383   1.562  11.934 -1.0422 -2.3042 -1.1215
50773SOL    HW258157  10.305   1.498  12.047 -0.0637  0.8623  1.5047
50774SOL     OW58158  11.233   1.438  11.084 -0.0278  0.3184 -0.6185
50774SOL    HW158159  11.295   1.470  11.149 -1.8439  0.1980  1.2475
50774SOL    HW258160  11.163   1.503  11.082 -1.4739 -1.1470 -0.2069
50775SOL     OW58161   9.686  11.969   7.459  0.4450 -0.0845 -0.3064
50775SOL    HW158162   9.655  11.945   7.547  0.7139  0.5381 -0.0312
50775SOL    HW258163   9.609  12.004   7.415 -0.4452 -3.0978 -1.3867
50776SOL     OW58164   3.211   8.168   0.432  0.1978 -0.1376  0.4879
50776SOL    HW158165   3.250   8.083   0.409 -2.1913 -1.3919  0.7033
50776SOL    HW258166   3.141   8.146   0.494  1.1738  2.3126  2.6270
50777SOL     OW58167   1.496   6.943   1.260  0.4049 -0.3268  0.6086
50777SOL    HW158168   1.534   6.877   1.202 -0.8515 -0.4971 -0.0621
50777SOL    HW258169   1.402   6.922   1.262  0.0664  1.0889  0.8421
50778SOL     OW58170   6.658   0.550   2.350 -0.9285 -0.9371 -0.2751
50778SOL    HW158171   6.602   0.492   2.401 -1.6931 -0.2608 -0.3273
50778SOL    HW258172   6.675   0.624   2.408 -1.2266 -0.4943 -0.7369
50779SOL     OW58173   5.229   6.964   7.958  0.3035 -0.2427 -0.0599
50779SOL    HW158174   5.238   7.012   8.040 -0.4581 -0.8206  0.3735
50779SOL    HW258175   5.222   6.872   7.984 -0.7970 -0.3581 -0.6946
50780SOL     OW58176   4.986   6.093  11.799 -0.3631  0.0194  0.6889
50780SOL    HW158177   4.932   6.143  11.862 -0.5937  0.1027  0.4286
50780SOL    HW258178   5.043   6.159  11.759  0.1569 -0.1201  1.1913
50781SOL     OW58179   2.481   7.765  10.510 -0.8522 -0.0570 -0.1118
50781SOL    HW158180   2.534   7.688  10.486 -1.6190  0.2543 -3.2946
50781SOL    HW258181   2.536   7.813  10.572  0.6626 -1.9638  0.1377
50782SOL     OW58182   1.367  11.925   0.324 -0.3904 -0.1464 -0.4183
50782SOL    HW158183   1.441  11.979   0.294  0.0093 -0.1808  0.4602
50782SOL    HW258184   1.301  11.988   0.352 -0.3752 -0.1126 -0.4595
50783SOL     OW58185  11.830   8.832  11.273  0.1506 -0.0597  0.0495
50783SOL    HW158186  11.874   8.750  11.250  1.6401  0.6766  0.2224
50783SOL    HW258187  11.899   8.888  11.309 -0.4779  1.9502 -1.7002
50784SOL     OW58188   9.408   8.613   4.395 -0.2157  0.0810  0.2920
50784SOL    HW158189   9.339   8.670   4.362  0.5575  0.3973 -0.8048
50784SOL    HW258190   9.489   8.659   4.377  0.5834 -2.0194 -2.2010
50785SOL     OW58191   8.432   5.954   5.782  0.3539  0.1605 -0.4659
50785SOL    HW158192   8.373   5.987   5.714 -0.1591  0.2085 -0.0067
50785SOL    HW258193   8.491   6.027   5.799  1.8597 -0.5337 -2.3244
50786SOL     OW58194  11.751   4.922  10.852  0.5086  0.4856  0.0459
50786SOL    HW158195  11.795   4.860  10.909 -0.0600 -1.1970 -1.2626
50786SOL    HW258196  11.761   5.007  10.895  2.9753 -0.1926  0.9312
50787SOL     OW58197   0.138   7.477   4.847 -0.4141  0.7429 -0.3855
50787SOL    HW158198   0.218   7.441   4.885 -0.4761 -1.5062 -2.1820
50787SOL    HW258199   0.159   7.568   4.827  1.5670  0.3121 -0.4150
50788SOL     OW58200   3.473   4.097   6.107  0.0403 -0.2994  0.0982
50788SOL    HW158201   3.554   4.066   6.068 -0.0497 -0.9704  0.4282
50788SOL    HW258202   3.454   4.179   6.062  0.9107 -0.1253  0.0418
50789SOL     OW58203   2.881   6.335   3.094  0.4258 -0.0794 -0.5635
50789SOL    HW158204   2.821   6.403   3.063 -0.0169 -0.3444 -0.2988
50789SOL    HW258205   2.826   6.259   3.109  0.8070 -0.2873 -0.1867
50790SOL     OW58206   8.925   2.669   3.407  0.1973 -0.0999 -0.2645
50790SOL    HW158207   8.853   2.609   3.386  1.0983 -1.4128  0.3239
50790SOL    HW258208   8.988   2.616   3.455  0.6615  1.5177  0.9990
50791SOL     OW58209   8.688   2.680  10.427  0.2293 -0.4796  0.0849
50791SOL    HW158210   8.743   2.684  10.505 -1.3517 -0.3923  1.2461
50791SOL    HW258211   8.742   2.637  10.361  1.6608 -0.3987  1.1768
50792SOL     OW58212  11.075   2.465   6.830  0.2682 -0.4290  0.7631
50792SOL    HW158213  11.117   2.444   6.914  2.2994 -1.7520 -0.5092
50792SOL    HW258214  11.146   2.495   6.774 -1.2591  1.6623 -0.1710
50793SOL     OW58215   7.020   2.917   8.436  0.1207  0.2205  0.6415
50793SOL    HW158216   7.031   2.988   8.373  1.1204 -1.0555 -0.6939
50793SOL    HW258217   6.953   2.860   8.397  2.7585 -2.1149 -0.8772
50794SOL     OW58218  12.329   5.252   2.761  0.1853  0.3681  0.1428
50794SOL    HW158219  12.233   5.243   2.761  0.3002 -1.0720  0.1629
50794SOL    HW258220  12.357   5.212   2.679  0.7935  0.5345  0.2624
50795SOL     OW58221   1.158   1.821   5.337  0.7105  0.4374 -0.4157
50795SOL    HW158222   1.064   1.817   5.320  1.0702  0.3179 -2.7203
50795SOL    HW258223   1.166   1.818   5.432 -1.5891  0.0554 -0.1929
50796SOL     OW58224  11.515  10.090  10.417  0.3172  0.0102 -0.2416
50796SOL    HW158225  11.601  10.064  10.450  0.2831  0.2897  0.0698
50796SOL    HW258226  11.484  10.156  10.479  0.5146  0.9968 -1.1547
50797SOL     OW58227   2.316   0.645   9.417  0.5688 -0.4104  0.4646
50797SOL    HW158228   2.329   0.604   9.331  0.2924 -1.6473  0.9895
50797SOL    HW258229   2.361   0.588   9.478  1.3845  0.8563  1.0828
50798SOL     OW58230   2.548   7.988   8.629 -0.8054  0.5281  0.1572
50798SOL    HW158231   2.624   7.954   8.677 -0.6830  0.3491 -0.1579
50798SOL    HW258232   2.583   8.010   8.543 -0.8187  1.7354  0.4473
50799SOL     OW58233   7.038   2.761  12.067  0.2890  0.3718 -0.1841
50799SOL    HW158234   6.969   2.696  12.080  0.6974 -0.5849 -2.3777
50799SOL    HW258235   6.991   2.845  12.063 -0.8031 -0.2586 -1.6327
50800SOL     OW58236   8.230   9.674   3.719  0.1869  0.0035 -0.1683
50800SOL    HW158237   8.305   9.614   3.723  0.3102  0.1796  0.2544
50800SOL    HW258238   8.154   9.616   3.710  0.3710 -0.1778 -0.5933
50801SOL     OW58239   4.763   6.386   7.954 -0.1035 -0.1970 -0.4111
50801SOL    HW158240   4.818   6.413   7.880  0.9166 -0.1487  0.3548
50801SOL    HW258241   4.760   6.290   7.947 -0.1157 -0.1851 -0.5809
50802SOL     OW58242   6.975   9.798   1.406  0.8753 -0.7416 -0.4963
50802SOL    HW158243   6.969   9.765   1.495  1.8533 -2.4117 -1.0087
50802SOL    HW258244   6.890   9.780   1.367  0.4330  0.0262  0.0880
50803SOL     OW58245   0.253   4.602   7.180  0.7484 -0.0179  0.0111
50803SOL    HW158246   0.194   4.537   7.219  0.3204  0.2641 -0.1590
50803SOL    HW258247   0.198   4.680   7.167  0.9795  0.0262 -0.7787
50804SOL     OW58248   6.585   8.430   4.567  0.0826 -0.8576 -0.2678
50804SOL    HW158249   6.666   8.479   4.585 -1.3618  1.1688  1.2446
50804SOL    HW258250   6.610   8.338   4.577  2.2622 -0.3152 -0.1661
50805SOL     OW58251   1.549   0.196  10.468  0.4910  0.1700 -0.2690
50805SOL    HW158252   1.607   0.197  10.544  0.9121  0.6923 -0.5877
50805SOL    HW258253   1.567   0.279  10.424 -0.3214  0.2232 -0.5105
50806SOL     OW58254   9.616   2.784   0.665 -0.2707  0.1020  0.7873
50806SOL    HW158255   9.628   2.745   0.579  1.8050 -4.4284  2.8024
50806SOL    HW258256   9.639   2.877   0.653 -0.8213 -0.1242 -3.5504
50807SOL     OW58257   6.652   3.694   4.206 -0.5353 -0.6548 -0.0284
50807SOL    HW158258   6.659   3.637   4.130 -0.8178 -0.6314 -0.0726
50807SOL    HW258259   6.638   3.781   4.170 -0.2177 -0.5757  0.0417
50808SOL     OW58260  12.089   2.208  10.902  0.2248 -0.1831  0.1966
50808SOL    HW158261  12.041   2.142  10.852 -0.3693 -0.5118  1.1718
50808SOL    HW258262  12.113   2.275  10.838  1.0694 -1.4561 -0.8726
50809SOL     OW58263  10.491   4.710  11.610 -0.0121 -0.0864 -0.6502
50809SOL    HW158264  10.536   4.785  11.648 -2.4978  0.4969  1.4724
50809SOL    HW258265  10.526   4.634  11.657  2.0344 -0.2901 -2.3510
50810SOL     OW58266   0.700   0.589   8.519 -0.0515 -0.0088 -0.1286
50810SOL    HW158267   0.747   0.600   8.602  0.2725 -2.2026  0.0169
50810SOL    HW258268   0.717   0.670   8.471 -0.1389  1.2646  1.8706
50811SOL     OW58269   7.258   8.853   2.514 -0.5246  0.2645  0.4732
50811SOL    HW158270   7.231   8.765   2.538 -0.2834  0.6011  2.0451
50811SOL    HW258271   7.178   8.906   2.524 -0.3295  0.4778  0.9299
50812SOL     OW58272   2.138   6.032   3.593 -0.2725  0.2626  0.7552
50812SOL    HW158273   2.211   6.086   3.623  0.5263  0.2346 -0.9537
50812SOL    HW258274   2.111   6.073   3.511  0.3504 -1.8535 -0.5972
50813SOL     OW58275   4.218   0.540   3.757  0.4868  0.4054 -0.1352
50813SOL    HW158276   4.216   0.583   3.672  2.4434  0.9620  0.0576
50813SOL    HW258277   4.137   0.488   3.759 -0.5700  1.9073 -1.4910
50814SOL     OW58278   3.859   9.385   3.480  0.1714  0.0199  0.1647
50814SOL    HW158279   3.778   9.399   3.530 -1.2745 -0.0875 -1.9707
50814SOL    HW258280   3.845   9.435   3.399  2.9622  1.2965  0.3871
50815SOL     OW58281   9.268   4.708   9.674 -0.0460  0.1982  0.0532
50815SOL    HW158282   9.309   4.741   9.594 -1.0806  0.5319 -0.3526
50815SOL    HW258283   9.302   4.765   9.744  1.1021 -0.2932 -0.0896
50816SOL     OW58284   6.622   0.987  12.257 -0.4486  0.0484  0.0795
50816SOL    HW158285   6.662   0.978  12.170 -0.6977  0.2368 -0.0569
50816SOL    HW258286   6.588   0.900  12.277 -0.9532  0.1517 -0.2934
50817SOL     OW58287   2.800   3.917   8.817 -0.4227  0.1529  0.2908
50817SOL    HW158288   2.736   3.904   8.747  0.7815 -1.3517 -0.6076
50817SOL    HW258289   2.818   4.011   8.816 -1.5534  0.3787 -0.4022
50818SOL     OW58290   8.878   3.764   9.243  0.0689  0.6078  0.0416
50818SOL    HW158291   8.943   3.701   9.275 -0.0482  0.3722 -0.1868
50818SOL    HW258292   8.828   3.788   9.321 -1.8799 -1.8841 -0.3329
50819SOL     OW58293   6.991   0.125  11.550  0.1024  0.3361  0.2299
50819SOL    HW158294   6.930   0.154  11.482  0.8609  1.0746 -0.1471
50819SOL    HW258295   6.942   0.138  11.632 -0.1761  1.1428 -0.0466
50820SOL     OW58296  10.595   5.238   5.248 -0.0339 -0.3939 -0.3984
50820SOL    HW158297  10.563   5.222   5.337  0.0105  1.3094 -0.0365
50820SOL    HW258298  10.682   5.275   5.261  1.2191 -2.7997 -1.2963
50821SOL     OW58299   7.201   2.877   5.198  0.4867  0.2850  0.1349
50821SOL    HW158300   7.192   2.960   5.246 -0.3838  0.2199  0.0889
50821SOL    HW258301   7.132   2.821   5.233 -1.7676  1.0121 -2.8222
50822SOL     OW58302   4.678   3.953   3.437  0.0505 -0.3270  0.1658
50822SOL    HW158303   4.696   3.908   3.355 -1.9719  1.6425 -1.4786
50822SOL    HW258304   4.591   3.921   3.463 -0.4924  1.0322  0.0816
50823SOL     OW58305   2.459   2.511   7.702  0.4798  0.0089  0.6056
50823SOL    HW158306   2.473   2.588   7.757 -0.8360 -1.0531  2.5190
50823SOL    HW258307   2.364   2.508   7.689  0.6587 -0.4662 -0.7393
50824SOL     OW58308   1.853   4.074   5.925  0.4543  0.1073 -0.1079
50824SOL    HW158309   1.888   4.163   5.912 -2.4622  1.3849 -0.0134
50824SOL    HW258310   1.763   4.079   5.894  0.1115 -2.7834  0.1911
50825SOL     OW58311   2.067   0.616   5.965 -0.1937  0.2724  0.2440
50825SOL    HW158312   2.111   0.581   6.042 -0.0606  0.7774  0.3975
50825SOL    HW258313   2.105   0.702   5.952 -0.7733  0.5092  0.0772
50826SOL     OW58314   5.751   4.122  11.283 -0.3428 -0.5558 -0.8902
50826SOL    HW158315   5.750   4.130  11.187 -0.9734 -1.6127 -0.9805
50826SOL    HW258316   5.671   4.075  11.304 -0.8797  0.8165  0.2926
50827SOL     OW58317   8.344   3.939   7.354 -0.1058  0.0586 -0.1209
50827SOL    HW158318   8.286   3.942   7.278  1.2948  2.6701 -1.1996
50827SOL    HW258319   8.285   3.951   7.429 -1.1279  1.4476 -1.1044
50828SOL     OW58320   8.613   0.787   5.435  0.1929  0.0212 -0.3339
50828SOL    HW158321   8.602   0.761   5.527  1.2781 -0.9418 -0.4605
50828SOL    HW258322   8.566   0.719   5.386 -0.2317  0.4369 -0.5138
50829SOL     OW58323  11.034   3.454   3.625 -0.7234 -0.5450 -0.1634
50829SOL    HW158324  11.009   3.540   3.591  0.9235 -0.2484 -0.7453
50829SOL    HW258325  10.975   3.392   3.583 -0.5354  0.1035 -1.4178
50830SOL     OW58326   7.506   9.960   6.493 -0.7019  0.2216  0.1421
50830SOL    HW158327   7.573  10.003   6.546 -0.8086  0.9870 -0.3213
50830SOL    HW258328   7.543   9.874   6.472  0.7399  1.1237 -1.2284
50831SOL     OW58329  12.092  10.000   5.516 -0.1465 -0.3583 -0.2968
50831SOL    HW158330  12.140   9.931   5.469 -0.7206 -1.1508  0.2537
50831SOL    HW258331  12.155  10.033   5.579 -0.6816 -2.3780  1.4117
50832SOL     OW58332   7.520   4.560   3.705 -0.2950  0.2534 -0.4506
50832SOL    HW158333   7.585   4.532   3.769  0.0041 -0.8900 -1.2220
50832SOL    HW258334   7.556   4.640   3.667  0.8736 -0.5810 -1.1560
50833SOL     OW58335   0.686   7.061  11.452  0.2817 -0.0004  0.1609
50833SOL    HW158336   0.780   7.044  11.453  0.4268  0.7891  0.4892
50833SOL    HW258337   0.649   6.984  11.408  1.1582  0.0563 -0.7276
50834SOL     OW58338   5.609  11.358   5.588  1.1512 -0.4104  0.2550
50834SOL    HW158339   5.689  11.359   5.535  0.4819  0.6122 -0.7886
50834SOL    HW258340   5.631  11.410   5.666  1.3295  0.4433 -0.3449
50835SOL     OW58341   8.256  11.106   0.857 -0.0430  0.0077 -0.1773
50835SOL    HW158342   8.218  11.030   0.813  1.3797 -0.8640  0.0303
50835SOL    HW258343   8.220  11.104   0.945  1.1161 -1.3496  0.3113
50836SOL     OW58344   4.909   8.122  11.764 -0.1494  0.0652 -0.1968
50836SOL    HW158345   4.815   8.127  11.782 -0.0749 -1.7301  0.8972
50836SOL    HW258346   4.950   8.139  11.848  0.4948 -0.1752 -0.4628
50837SOL     OW58347   3.124   3.026   7.594  1.3273 -0.1151  0.1012
50837SOL    HW158348   3.183   3.072   7.654  0.7436  2.0291 -0.8624
50837SOL    HW258349   3.068   2.973   7.650  0.6275  2.0087  1.5142
50838SOL     OW58350  10.636  12.036   8.057 -0.4669 -0.2278  0.1781
50838SOL    HW158351  10.645  12.029   7.962 -0.4931  1.1336  0.0586
50838SOL    HW258352  10.689  12.112   8.081  0.1022 -0.9757  1.3500
50839SOL     OW58353   6.476   0.771   0.050 -0.2199  0.2581 -0.2052
50839SOL    HW158354   6.419   0.710   0.002  0.6145  0.8603 -2.0715
50839SOL    HW258355   6.418   0.814   0.112 -1.6162  0.1873 -1.3934
50840SOL     OW58356  11.699  10.137   2.649 -0.4650  0.0255 -0.2545
50840SOL    HW158357  11.620  10.190   2.650 -0.7281 -0.3705  0.1052
50840SOL    HW258358  11.764  10.192   2.604 -1.5327 -0.5007 -2.6280
50841SOL     OW58359   1.017   3.137  10.840  0.2867  0.4308 -0.1704
50841SOL    HW158360   0.966   3.217  10.850  0.1269  0.3811 -0.5894
50841SOL    HW258361   1.108   3.166  10.846  0.2396  0.6984 -0.7248
50842SOL     OW58362   4.869   8.000   6.327  0.3527 -0.1972  0.6103
50842SOL    HW158363   4.799   8.054   6.364 -1.6967 -1.7486 -0.7938
50842SOL    HW258364   4.904   7.950   6.401 -0.4923  0.1010  1.2173
50843SOL     OW58365   9.833   1.564   3.426  0.2029 -0.0430 -0.1808
50843SOL    HW158366   9.785   1.482   3.428 -0.8530  0.3877 -3.0244
50843SOL    HW258367   9.922   1.542   3.454  0.3430 -2.5096 -2.2028
50844SOL     OW58368   5.908   4.947   2.920 -0.3067 -0.3924  0.1126
50844SOL    HW158369   5.963   4.932   2.997 -1.3461 -0.2637  0.8878
50844SOL    HW258370   5.850   5.019   2.944 -1.9440 -1.5943 -0.0820
50845SOL     OW58371   1.160  11.331   5.789 -0.1081 -0.2329 -0.4178
50845SOL    HW158372   1.133  11.305   5.877 -0.2295  2.0379  0.2778
50845SOL    HW258373   1.084  11.377   5.753  0.6591  0.7009 -0.8881
50846SOL     OW58374   3.322  10.132  11.619 -0.1172 -0.2015  0.4467
50846SOL    HW158375   3.283  10.061  11.568  0.5426 -0.2969  0.0629
50846SOL    HW258376   3.279  10.211  11.588 -0.4822 -0.3784  0.5000
50847SOL     OW58377   6.597  11.372   8.700  0.4890 -0.6065  0.2196
50847SOL    HW158378   6.551  11.441   8.651  0.2133 -0.9007  0.0641
50847SOL    HW258379   6.648  11.326   8.633 -0.9084 -1.8457 -0.0316
50848SOL     OW58380   3.386   1.718   1.497  0.1835 -0.3005  0.1574
50848SOL    HW158381   3.427   1.669   1.426 -0.0293  1.4665 -1.2485
50848SOL    HW258382   3.459   1.760   1.542  0.3426 -1.6221  1.2085
50849SOL     OW58383   2.251  11.153   2.603  0.1123  1.0117  0.0838
50849SOL    HW158384   2.293  11.117   2.525 -1.4636 -1.0283  0.0908
50849SOL    HW258385   2.161  11.170   2.576  0.0790  2.2654  0.9125
50850SOL     OW58386  11.813   4.379   9.906  0.0771  0.7696  0.3420
50850SOL    HW158387  11.772   4.449   9.957  2.5618  2.3422  0.3731
50850SOL    HW258388  11.846   4.423   9.828  0.1144 -0.7701 -0.5439
50851SOL     OW58389  12.279   3.038  11.985  0.2359 -0.0336  0.1273
50851SOL    HW158390  12.227   3.111  12.019  0.1489 -0.7674  1.6547
50851SOL    HW258391  12.352   3.080  11.939 -1.1150  1.0050 -1.1544
50852SOL     OW58392   2.971   9.796   6.906 -0.3276 -0.3395 -0.5035
50852SOL    HW158393   2.980   9.803   7.001 -0.7774  2.6158 -0.5818
50852SOL    HW258394   3.052   9.835   6.872 -1.2768  0.9953 -1.2843
50853SOL     OW58395  10.075   1.508   8.455  0.3525  0.3199  0.4228
50853SOL    HW158396  10.083   1.422   8.496 -0.4176  0.3176  0.5825
50853SOL    HW258397  10.112   1.569   8.518 -1.1443  0.3590  1.3019
50854SOL     OW58398   5.921  11.473   7.801  0.0638  0.4132 -0.2830
50854SOL    HW158399   5.951  11.563   7.786  1.2318  0.0250 -0.3207
50854SOL    HW258400   5.873  11.477   7.884 -0.8516  1.2839 -0.8363
50855SOL     OW58401  12.316  11.550  11.409  0.2259 -0.4753  0.0035
50855SOL    HW158402  12.380  11.502  11.356  0.8220  1.5858 -1.2806
50855SOL    HW258403  12.231  11.528  11.370  0.4524 -0.7944 -0.3165
50856SOL     OW58404   4.694   2.876   0.797 -0.4185  0.0965  0.0520
50856SOL    HW158405   4.708   2.782   0.786  0.7484 -0.1439  2.8779
50856SOL    HW258406   4.766   2.917   0.749 -1.4261 -0.3328 -1.9409
50857SOL     OW58407   8.176   1.060   3.778  0.1887  0.7974  0.3190
50857SOL    HW158408   8.221   1.014   3.849  1.3835  1.5308  0.0553
50857SOL    HW258409   8.145   1.141   3.818  2.0191  1.8325 -0.2825
50858SOL     OW58410  10.814   6.428   3.710 -0.4939  0.1082 -0.1622
50858SOL    HW158411  10.760   6.458   3.637  0.0907  0.4421 -0.4655
50858SOL    HW258412  10.869   6.359   3.672  0.5531  0.9946 -0.3260
50859SOL     OW58413  11.430   7.271   3.251 -0.1864  0.0958 -0.0789
50859SOL    HW158414  11.520   7.289   3.223  0.3049 -2.6804 -0.5771
50859SOL    HW258415  11.440   7.213   3.326 -1.5239 -1.6384 -1.1817
50860SOL     OW58416   0.433   0.324   1.631  0.3064  0.0687 -0.6640
50860SOL    HW158417   0.420   0.401   1.576  1.0598 -1.1818 -2.7061
50860SOL    HW258418   0.348   0.279   1.629 -0.5803  1.4264  1.6618
50861SOL     OW58419   5.783  12.274   7.908  0.3410  0.5557 -0.6981
50861SOL    HW158420   5.775  12.182   7.884 -0.7404 -0.1246  1.9686
50861SOL    HW258421   5.871  12.281   7.945 -0.4916 -0.0939  1.5317
50862SOL     OW58422   7.544   7.346   2.433 -0.0850  1.1576 -0.4184
50862SOL    HW158423   7.598   7.371   2.358  0.0994  0.8087 -0.4028
50862SOL    HW258424   7.557   7.252   2.442  0.9598  1.3784  0.8736
50863SOL     OW58425   6.136   4.870  11.362  0.1570  0.6128 -0.4869
50863SOL    HW158426   6.059   4.867  11.305 -0.5469  1.0453  0.4071
50863SOL    HW258427   6.202   4.916  11.311 -0.9213  2.2860 -0.4480
50864SOL     OW58428   4.334   0.950   0.557 -0.5663 -0.0065 -0.2133
50864SOL    HW158429   4.250   0.914   0.587 -0.0077 -1.5181 -0.3721
50864SOL    HW258430   4.310   1.030   0.511 -1.7813  0.4173  1.0643
50865SOL     OW58431   4.188   6.853   8.486  0.2376 -0.2560 -0.0434
50865SOL    HW158432   4.262   6.793   8.498  0.6244  0.2305  0.0544
50865SOL    HW258433   4.213   6.931   8.537 -0.9321 -0.5866  1.0825
50866SOL     OW58434   6.041   5.784   5.010  0.2711 -0.2789  0.6149
50866SOL    HW158435   6.093   5.709   4.980 -0.9098 -0.9203  0.1325
50866SOL    HW258436   6.037   5.774   5.105  1.5136  0.1208  0.7387
50867SOL     OW58437  10.639   0.328   3.723  0.7027  0.2771  0.2973
50867SOL    HW158438  10.650   0.374   3.640  0.3527  3.9251  2.0787
50867SOL    HW258439  10.726   0.331   3.764  0.9956 -1.9381 -0.0512
50868SOL     OW58440  11.982  11.094   2.306  0.6068  0.0559 -0.5811
50868SOL    HW158441  11.938  11.157   2.248  0.7776  1.4157  0.7029
50868SOL    HW258442  11.949  11.009   2.279 -2.4193  0.9528 -0.0315
50869SOL     OW58443  10.467   5.347   1.926 -0.1941 -0.0431 -0.1965
50869SOL    HW158444  10.529   5.342   1.999 -0.7866 -0.0669  0.3087
50869SOL    HW258445  10.383   5.364   1.967 -0.9078 -2.0998 -0.6939
50870SOL     OW58446   4.858   5.451   3.300  0.2744 -1.0589 -0.1072
50870SOL    HW158447   4.833   5.367   3.261 -1.1256 -0.7545  0.0672
50870SOL    HW258448   4.867   5.432   3.394 -0.0704 -1.0204 -0.0636
50871SOL     OW58449   2.853   8.112   1.173  0.3220 -0.1852 -0.7039
50871SOL    HW158450   2.871   8.033   1.122  0.7887  0.4673 -1.5758
50871SOL    HW258451   2.938   8.156   1.180 -0.0021  0.4290 -0.5555
50872SOL     OW58452   2.653   6.028  12.045  0.3861 -0.0176  0.4873
50872SOL    HW158453   2.677   6.047  11.954  0.1472  0.9327  0.6102
50872SOL    HW258454   2.736   6.005  12.086  0.6276  0.3201  0.2038
50873SOL     OW58455   6.198  10.004   5.198 -0.5596 -0.1970 -0.4783
50873SOL    HW158456   6.110  10.036   5.218  0.3565  1.8816  0.5097
50873SOL    HW258457   6.197   9.990   5.103 -1.7957  0.2476 -0.5572
50874SOL     OW58458  10.359   1.644  11.801  0.1927  0.0152  0.0534
50874SOL    HW158459  10.327   1.560  11.770  0.3718 -0.1408  0.2847
50874SOL    HW258460  10.352   1.702  11.725  1.6061 -0.6261 -0.6066
50875SOL     OW58461  10.098   7.735   0.059 -0.0453 -0.0372  0.2763
50875SOL    HW158462  10.176   7.680   0.064  0.3777  0.2584 -1.9798
50875SOL    HW258463  10.130   7.824   0.077  0.2164  0.1100 -0.8223
50876SOL     OW58464   0.972   9.878   5.372 -0.2057  0.3955 -0.8373
50876SOL    HW158465   0.964   9.828   5.291  0.5952 -1.6172  0.2596
50876SOL    HW258466   1.067   9.884   5.387 -0.3476  0.7232 -0.0299
50877SOL     OW58467   9.710   2.419   4.289  0.0367 -0.2184 -0.1048
50877SOL    HW158468   9.798   2.385   4.299 -0.6552 -1.7271  1.4352
50877SOL    HW258469   9.663   2.351   4.240 -0.8847 -0.6995  1.3545
50878SOL     OW58470   9.461   4.932   2.770  0.0779  0.1397 -0.0974
50878SOL    HW158471   9.543   4.981   2.773  1.1162 -1.4791 -0.6951
50878SOL    HW258472   9.394   4.998   2.751  1.5434  1.1795 -1.9221
50879SOL     OW58473   6.073   4.968   4.399  0.4443  0.4533  0.5409
50879SOL    HW158474   5.994   5.021   4.405  1.1990  1.6313  0.4196
50879SOL    HW258475   6.112   4.991   4.315  1.6673  1.0065  1.2252
50880SOL     OW58476  11.729   9.955   6.552  0.1845  0.1591  0.0430
50880SOL    HW158477  11.806  10.009   6.563 -0.1329  0.8236 -0.8493
50880SOL    HW258478  11.670  10.008   6.499 -0.5496 -0.6614  0.0115
50881SOL     OW58479   5.147   6.718   6.450  0.2240 -0.6802 -0.1975
50881SOL    HW158480   5.081   6.670   6.400  0.1789  0.9525 -1.7860
50881SOL    HW258481   5.098   6.756   6.523 -0.1798 -1.1196 -0.2314
50882SOL     OW58482   9.496   2.480   3.075 -0.2956  0.2680 -0.4705
50882SOL    HW158483   9.512   2.570   3.104 -0.6735 -0.3293  1.7912
50882SOL    HW258484   9.583   2.439   3.074 -0.4476 -0.2740  2.0863
50883SOL     OW58485   7.759  10.363  10.630 -0.1930 -0.4449  0.3489
50883SOL    HW158486   7.725  10.294  10.574  2.1670 -0.8407 -0.7374
50883SOL    HW258487   7.854  10.349  10.631  0.2254  1.8980  1.2833
50884SOL     OW58488   7.192   5.401   3.837  0.2853  0.0634 -0.4321
50884SOL    HW158489   7.240   5.318   3.832 -0.2491 -0.1840 -2.2691
50884SOL    HW258490   7.253   5.466   3.805 -0.0973 -0.0212 -1.3560
50885SOL     OW58491   5.484   6.643  10.334 -0.0375  0.1386 -0.4145
50885SOL    HW158492   5.575   6.672  10.322 -0.5794  1.2378 -2.2199
50885SOL    HW258493   5.453   6.626  10.245 -1.5847 -0.3424  0.1914
50886SOL     OW58494   1.984   7.694  10.274  0.4302 -0.5069 -0.0083
50886SOL    HW158495   2.013   7.723  10.188 -0.2154 -0.8136 -0.3408
50886SOL    HW258496   2.048   7.730  10.335 -0.3072  1.5737 -0.3989
50887SOL     OW58497   9.815   1.034   6.900 -0.0495 -0.3945 -0.1444
50887SOL    HW158498   9.795   1.100   6.966 -0.0921 -0.1579 -0.3893
50887SOL    HW258499   9.906   1.010   6.916  0.0133 -0.1610 -0.1544
50888SOL     OW58500   5.606   0.267   9.356 -0.3275 -0.3001 -0.5186
50888SOL    HW158501   5.563   0.229   9.279 -0.9348 -0.7987  0.0560
50888SOL    HW258502   5.571   0.217   9.430 -2.5332  2.4805  0.4858
50889SOL     OW58503   6.152   1.833   5.580  0.3144 -0.7621  0.2493
50889SOL    HW158504   6.103   1.894   5.634  0.3753 -1.0020  0.5809
50889SOL    HW258505   6.124   1.852   5.490  1.9741  1.2661  0.0911
50890SOL     OW58506   2.320   3.345   9.948  0.0937 -0.1604  0.7326
50890SOL    HW158507   2.392   3.368   9.890  0.1389  0.3044  0.9663
50890SOL    HW258508   2.317   3.416  10.012  0.3855 -0.9208  1.6247
50891SOL     OW58509   2.827  12.118   8.119 -0.4299 -0.1817 -0.3248
50891SOL    HW158510   2.746  12.090   8.161 -0.1750  0.7210  0.8304
50891SOL    HW258511   2.893  12.109   8.187  0.5747 -1.4783 -1.4355
50892SOL     OW58512   0.984   1.939   3.216 -0.2474 -0.1404  0.4915
50892SOL    HW158513   0.943   1.995   3.149 -1.3774 -0.5252  0.8332
50892SOL    HW258514   1.009   1.860   3.168  1.6645  0.7352 -0.0654
50893SOL     OW58515   8.023  11.577   6.839  0.0178 -0.0474 -0.0654
50893SOL    HW158516   8.074  11.629   6.777 -0.6800  0.9978  0.2063
50893SOL    HW258517   8.074  11.497   6.851  1.2297  0.6564 -0.3400
50894SOL     OW58518   3.780   2.740   7.173  0.4166 -0.3025 -0.3706
50894SOL    HW158519   3.689   2.742   7.202  0.7237 -0.1425  0.6319
50894SOL    HW258520   3.828   2.789   7.240  1.0146  1.0906 -1.7670
50895SOL     OW58521  11.133   7.640   5.199  0.4336 -0.0763 -0.2406
50895SOL    HW158522  11.205   7.578   5.209  0.5362  0.0377 -0.2706
50895SOL    HW258523  11.079   7.604   5.129  0.5549 -0.0744 -0.3362
50896SOL     OW58524   4.079   0.423  10.392  0.2707 -0.3843  0.1686
50896SOL    HW158525   4.019   0.367  10.441 -1.8811  0.4858 -1.2986
50896SOL    HW258526   4.162   0.375  10.391 -0.9197 -2.5808  0.6483
50897SOL     OW58527   8.613   2.106   0.637 -0.4232  0.1100 -0.1427
50897SOL    HW158528   8.560   2.179   0.670  0.9219  0.7213  0.7968
50897SOL    HW258529   8.640   2.059   0.716  0.4540 -0.1497 -0.5836
50898SOL     OW58530   1.614   5.236   5.319  0.8390  0.6600 -0.2050
50898SOL    HW158531   1.547   5.282   5.267 -0.6465 -0.4115  0.6791
50898SOL    HW258532   1.592   5.144   5.309  1.7686  0.3264  0.7088
50899SOL     OW58533  11.984   3.675   8.963 -0.2407 -0.0669 -0.7673
50899SOL    HW158534  12.052   3.650   9.025 -0.6971 -1.2767 -0.7319
50899SOL    HW258535  11.912   3.705   9.018 -0.0264  0.4909 -0.7819
50900SOL     OW58536   8.807   3.978   7.094  0.2078  0.4306  0.0216
50900SOL    HW158537   8.849   3.951   7.176  0.5215  0.6764 -0.0590
50900SOL    HW258538   8.718   3.942   7.100  0.4133 -0.0483  0.2104
50901SOL     OW58539   9.716   4.125   8.803  0.1236  0.5324 -0.1975
50901SOL    HW158540   9.776   4.070   8.753  0.6039 -0.6624  1.5758
50901SOL    HW258541   9.679   4.186   8.739  1.9096  0.1535 -1.6529
50902SOL     OW58542   9.781   5.221   6.000  0.3361  0.6530 -0.1942
50902SOL    HW158543   9.697   5.200   6.042  0.9836  0.0662  0.8482
50902SOL    HW258544   9.769   5.310   5.965 -1.9381 -0.6988 -3.3105
50903SOL     OW58545   1.086   4.767   3.447  0.0516  0.4802  0.0639
50903SOL    HW158546   1.170   4.747   3.405 -0.6238 -0.3143 -0.9784
50903SOL    HW258547   1.034   4.806   3.377 -0.6052  0.5143  0.5701
50904SOL     OW58548   8.567   0.360   1.982  0.6974 -0.2313  0.3804
50904SOL    HW158549   8.660   0.346   1.966  0.9747  1.3254  0.4891
50904SOL    HW258550   8.523   0.322   1.905  1.4463 -0.4236  0.0399
50905SOL     OW58551   9.897   9.593   1.414 -0.2035 -0.0075  0.2836
50905SOL    HW158552   9.922   9.503   1.391 -0.6248 -0.7324  2.3642
50905SOL    HW258553   9.810   9.605   1.376 -1.1011 -1.3318  1.7852
50906SOL     OW58554   6.479   4.507   2.396 -0.2512  0.2336 -0.2364
50906SOL    HW158555   6.465   4.567   2.323  1.1745  0.5725 -0.2589
50906SOL    HW258556   6.481   4.563   2.473  1.7996  0.3712 -0.3272
50907SOL     OW58557   0.322  11.687  12.184  0.4850  0.0365 -0.3445
50907SOL    HW158558   0.407  11.661  12.148 -0.2284 -3.1555 -0.0150
50907SOL    HW258559   0.261  11.673  12.112  0.1850  2.4437 -0.6177
50908SOL     OW58560   4.903   9.186   1.593  0.1893 -0.9038  0.0393
50908SOL    HW158561   4.827   9.173   1.650 -1.0568  0.5824 -1.2032
50908SOL    HW258562   4.867   9.199   1.506  1.9462 -1.0833 -0.7759
50909SOL     OW58563   7.647   1.503   8.625  1.0874  0.1854  0.4040
50909SOL    HW158564   7.731   1.465   8.598  0.6523 -0.4579 -0.0952
50909SOL    HW258565   7.643   1.586   8.578  0.6504 -0.6085 -1.0481
50910SOL     OW58566   8.347   2.548   0.454 -0.3999  0.6061 -0.0436
50910SOL    HW158567   8.270   2.552   0.510 -1.0011  0.8083 -0.8685
50910SOL    HW258568   8.314   2.523   0.368  0.6343 -0.7574 -0.0875
50911SOL     OW58569  11.018  10.075   8.484 -0.0745 -0.0263 -0.3733
50911SOL    HW158570  10.952  10.140   8.506 -0.1668  0.4900 -2.0546
50911SOL    HW258571  10.970  10.004   8.442  0.1838 -0.6125  0.3138
50912SOL     OW58572   4.611   8.258   7.580 -0.1978  0.1124 -0.1102
50912SOL    HW158573   4.621   8.173   7.535 -0.1039 -1.4604  2.6672
50912SOL    HW258574   4.609   8.322   7.509  1.2125 -2.0583 -2.2863
50913SOL     OW58575   2.518   0.982   4.213  0.0937  0.4674  0.7966
50913SOL    HW158576   2.481   1.057   4.259  2.9485  0.5594  3.2473
50913SOL    HW258577   2.472   0.906   4.251 -1.7396  0.7741 -0.6295
50914SOL     OW58578   9.098   9.992   1.244 -0.3605 -0.3865  0.2238
50914SOL    HW158579   9.021   9.955   1.199  0.0227 -1.0713  0.1081
50914SOL    HW258580   9.068  10.076   1.278 -1.1706 -0.6584  0.2049
50915SOL     OW58581   2.248   7.101   3.559 -0.8175 -0.1338  0.2830
50915SOL    HW158582   2.339   7.071   3.551 -0.4432  0.7157  1.1055
50915SOL    HW258583   2.252   7.195   3.546 -1.0937  0.3792  3.1676
50916SOL     OW58584   4.016  11.962   6.942  0.0097  0.2951 -0.3030
50916SOL    HW158585   3.996  12.020   7.016  1.1247 -0.2133  0.4205
50916SOL    HW258586   4.078  11.898   6.978 -0.8061 -1.0474 -1.2236
50917SOL     OW58587  11.990   4.559   6.879 -0.4833  0.0663 -0.0496
50917SOL    HW158588  12.039   4.564   6.797 -0.0679  1.0367  0.2460
50917SOL    HW258589  11.988   4.466   6.900  0.1679 -0.1033 -0.7083
50918SOL     OW58590   7.852   5.419   7.280  0.3202 -0.1443 -0.3059
50918SOL    HW158591   7.900   5.501   7.266  1.8255 -0.7044  1.2931
50918SOL    HW258592   7.770   5.447   7.321  0.6458  0.5892 -0.1436
50919SOL     OW58593   1.320   6.223   6.082  0.0484 -0.2470  0.0189
50919SOL    HW158594   1.327   6.318   6.077  0.4345 -0.0881  2.2569
50919SOL    HW258595   1.410   6.193   6.097 -0.1454 -0.9044 -0.1133
50920SOL     OW58596   8.065   8.840   4.635 -0.0348 -0.9685  0.1174
50920SOL    HW158597   8.121   8.796   4.571  1.5494  0.5637  0.3716
50920SOL    HW258598   8.116   8.916   4.663 -1.1606 -0.9593  2.3542
50921SOL     OW58599   2.209   4.426   8.505 -0.5520 -0.6113  0.5458
50921SOL    HW158600   2.286   4.374   8.529  0.6894  0.9504  0.0814
50921SOL    HW258601   2.237   4.517   8.513 -2.5160  0.0313  0.8517
50922SOL     OW58602  11.538   8.841   4.907  0.1408  0.1845 -0.2782
50922SOL    HW158603  11.516   8.934   4.895 -0.4478  0.2452  1.1016
50922SOL    HW258604  11.460   8.794   4.876  0.1210  0.1835 -0.2252
50923SOL     OW58605   2.542   1.056   0.258 -0.4114  0.4701  0.7989
50923SOL    HW158606   2.608   1.038   0.325  0.2831 -0.0656 -0.0207
50923SOL    HW258607   2.565   1.000   0.185 -2.1430 -0.1797  0.7093
50924SOL     OW58608   5.208   7.255   4.337  0.1263 -0.5221  0.0036
50924SOL    HW158609   5.296   7.252   4.298  0.8217  2.8731  0.9814
50924SOL    HW258610   5.156   7.306   4.275  0.3229  1.9069  1.6814
50925SOL     OW58611   8.016   5.167   0.482  0.3179 -0.4020 -1.2325
50925SOL    HW158612   8.088   5.118   0.522  0.5265  0.0198 -1.0854
50925SOL    HW258613   7.950   5.173   0.552  1.5673  2.2500 -0.1228
50926SOL     OW58614  11.867   9.388   4.603  0.0867 -0.9270 -0.6000
50926SOL    HW158615  11.909   9.471   4.579  1.8157 -1.4546  0.4043
50926SOL    HW258616  11.842   9.400   4.695  1.9416 -2.0603  0.1141
50927SOL     OW58617   6.307   8.228   5.579 -0.5985 -0.5252 -0.1418
50927SOL    HW158618   6.241   8.183   5.526 -1.4682 -0.8316  1.1510
50927SOL    HW258619   6.316   8.174   5.657  1.8512 -0.9574 -0.6305
50928SOL     OW58620   8.832   5.519  12.053  0.1441 -0.7676 -0.0963
50928SOL    HW158621   8.885   5.475  12.118 -0.1266 -0.3328  0.4307
50928SOL    HW258622   8.874   5.604  12.041 -1.2463  0.2121  1.4682
50929SOL     OW58623   7.882   0.814   1.074 -0.3502 -0.0800 -0.1197
50929SOL    HW158624   7.845   0.753   1.137 -0.6005  0.0054 -0.1783
50929SOL    HW258625   7.844   0.899   1.098 -0.1108  0.0278 -0.1193
50930SOL     OW58626   7.431   1.097   2.438  0.0014 -0.4898  0.2901
50930SOL    HW158627   7.399   1.184   2.461 -0.8202 -0.4143 -1.0511
50930SOL    HW258628   7.354   1.041   2.440  0.5050 -1.1975  1.0332
50931SOL     OW58629  12.260   6.483   8.710  0.2741  0.0430 -0.0401
50931SOL    HW158630  12.355   6.495   8.709  0.4430 -1.1496 -0.6688
50931SOL    HW258631  12.234   6.506   8.799  1.3369 -0.8921  0.5389
50932SOL     OW58632   0.234   6.295   4.932  0.7171  0.4507  0.0117
50932SOL    HW158633   0.215   6.388   4.921  1.0356  0.5471  0.2344
50932SOL    HW258634   0.151   6.256   4.959  0.2606  0.4413 -1.3349
50933SOL     OW58635   6.569   5.099   4.751  0.1707  0.6297 -0.1098
50933SOL    HW158636   6.595   5.020   4.706  0.0554  0.0600  0.7936
50933SOL    HW258637   6.626   5.168   4.716 -0.5134  0.3898 -1.7370
50934SOL     OW58638   5.628   5.354   5.947  0.1880  0.0005  0.0046
50934SOL    HW158639   5.635   5.446   5.921  2.1393 -0.0115  0.3835
50934SOL    HW258640   5.704   5.338   6.002 -1.7334 -1.0377  2.6072
50935SOL     OW58641  11.444   6.227   6.696 -0.1476  0.9650  0.0659
50935SOL    HW158642  11.523   6.275   6.723  0.6094  0.2557 -0.8237
50935SOL    HW258643  11.375   6.261   6.754  0.4634  2.7129 -0.1530
50936SOL     OW58644   2.081   8.023   8.779  0.3685 -0.1752  0.6033
50936SOL    HW158645   2.176   8.026   8.776  0.4321 -1.7441 -1.4457
50936SOL    HW258646   2.053   8.110   8.753  1.2839 -0.1785 -0.4773
50937SOL     OW58647  10.237   8.638   6.351  0.4641 -0.1184  0.2018
50937SOL    HW158648  10.176   8.567   6.370 -0.0192  0.4026  0.6214
50937SOL    HW258649  10.182   8.711   6.323  0.9397  0.1699 -0.0112
50938SOL     OW58650  11.407  10.763   5.013 -0.0980 -0.0959 -0.4062
50938SOL    HW158651  11.383  10.712   4.936  1.1496  1.2800 -1.7902
50938SOL    HW258652  11.324  10.801   5.044 -0.2066  3.4928 -4.2446
50939SOL     OW58653   2.267   6.656   1.907 -0.1228 -0.1680 -0.1578
50939SOL    HW158654   2.214   6.617   1.838 -0.8702  1.2734 -0.4207
50939SOL    HW258655   2.228   6.625   1.988  1.9405 -3.5148 -0.2367
50940SOL     OW58656   3.937   4.786   9.412  0.0461 -0.4735 -0.1445
50940SOL    HW158657   3.951   4.850   9.342 -0.2265 -0.2859 -0.0304
50940SOL    HW258658   3.875   4.829   9.471 -0.6880 -1.1163 -0.4279
50941SOL     OW58659   7.964   9.599   4.041  0.1225  0.3102  0.0318
50941SOL    HW158660   7.969   9.695   4.039  0.3368  0.3199  0.6669
50941SOL    HW258661   7.978   9.572   3.951  1.0062  0.8474 -0.0036
50942SOL     OW58662  12.097   9.985   6.690  0.1048 -0.0223 -0.6411
50942SOL    HW158663  12.173   9.935   6.660  0.2701  0.0114 -0.2755
50942SOL    HW258664  12.030   9.918   6.707  0.0665 -0.0566 -0.9109
50943SOL     OW58665   7.510   0.954   7.203 -0.2663 -0.6167 -0.1674
50943SOL    HW158666   7.435   0.897   7.183 -2.1565  1.7467 -0.3314
50943SOL    HW258667   7.552   0.914   7.279 -1.5991 -2.1188 -0.1773
50944SOL     OW58668  10.148   8.095   7.854  0.3020 -0.6389  0.2260
50944SOL    HW158669  10.071   8.138   7.817  0.8116 -0.2830 -0.4344
50944SOL    HW258670  10.112   8.027   7.911 -0.4997 -0.4019  0.0124
50945SOL     OW58671  12.082   2.066   2.867 -0.4866 -0.0496  0.6544
50945SOL    HW158672  12.044   2.141   2.911 -0.3527  0.1203  0.4836
50945SOL    HW258673  12.127   2.017   2.935  0.8326  0.9051  0.4905
50946SOL     OW58674   5.196  11.680   6.201 -0.2056 -0.6303  0.0030
50946SOL    HW158675   5.134  11.635   6.258 -0.6284 -0.1854 -0.0959
50946SOL    HW258676   5.242  11.609   6.156 -0.4465 -0.9715  0.2829
50947SOL     OW58677  10.355   4.256   4.549  0.4687 -0.5126 -0.4035
50947SOL    HW158678  10.339   4.227   4.460 -0.9115 -0.0785 -0.3110
50947SOL    HW258679  10.378   4.175   4.596  0.6382 -0.8255 -1.0141
50948SOL     OW58680   0.439   8.221   4.583  0.1402 -0.6968  0.1379
50948SOL    HW158681   0.437   8.166   4.505  1.3167 -1.1020  0.3759
50948SOL    HW258682   0.464   8.161   4.654 -2.0314 -0.5953  1.0652
50949SOL     OW58683   8.978  10.556   2.188 -0.1712 -0.8156  0.5059
50949SOL    HW158684   9.029  10.477   2.203  0.7543 -0.3439 -0.0613
50949SOL    HW258685   9.011  10.591   2.106  2.8080  2.6629  2.8576
50950SOL     OW58686   0.057  11.483   7.591  0.8828  0.3820 -0.3834
50950SOL    HW158687   0.061  11.422   7.517  0.2435 -0.5190  0.2959
50950SOL    HW258688  -0.014  11.448   7.646  0.7022  1.5882  0.1660
50951SOL     OW58689   4.505   4.689  12.124 -0.0339 -0.2594 -0.5979
50951SOL    HW158690   4.518   4.683  12.218 -0.7774 -1.7981 -0.5674
50951SOL    HW258691   4.424   4.740  12.114  0.5583  0.7392 -0.4629
50952SOL     OW58692   5.165   7.332   9.728 -0.5706  0.4944  0.3663
50952SOL    HW158693   5.225   7.258   9.732 -3.9460 -2.6844 -1.4149
50952SOL    HW258694   5.202   7.390   9.661  2.0380  0.3921  1.6362
50953SOL     OW58695   7.697   0.592   1.038 -0.0504 -0.4356 -0.2877
50953SOL    HW158696   7.675   0.500   1.048 -2.2411 -0.1448 -1.8136
50953SOL    HW258697   7.673   0.614   0.948 -0.5930  1.8695  0.3358
50954SOL     OW58698  11.647   3.031   5.313  0.2339  0.4571 -0.7634
50954SOL    HW158699  11.716   2.965   5.301 -0.8792 -0.7679 -0.6631
50954SOL    HW258700  11.634   3.068   5.226  0.4330  0.0824 -0.9557
50955SOL     OW58701   4.943  10.278   5.963  0.1321 -0.0413  0.3164
50955SOL    HW158702   4.901  10.363   5.973 -0.5240 -0.4955  1.8277
50955SOL    HW258703   5.036  10.297   5.953 -0.2746  0.9572 -2.3790
50956SOL     OW58704  11.397   2.616  11.180 -0.2403  0.2929 -0.0378
50956SOL    HW158705  11.480   2.569  11.184  1.0085  2.1855 -1.6952
50956SOL    HW258706  11.381   2.644  11.270 -0.2088 -1.8133  0.6885
50957SOL     OW58707   9.596  10.372  10.950  0.1610  0.4317 -0.0384
50957SOL    HW158708   9.617  10.350  11.041  0.6301 -0.0209 -0.2504
50957SOL    HW258709   9.617  10.466  10.943  2.5993 -0.0616 -0.3377
50958SOL     OW58710   2.659   9.399   7.990  0.2353 -0.6358 -0.3533
50958SOL    HW158711   2.711   9.336   7.941 -0.8231 -0.5957 -1.5726
50958SOL    HW258712   2.570   9.363   7.990 -0.6144  1.2332 -1.9022
50959SOL     OW58713   7.161   3.780   3.523  0.8102  0.3428 -0.1999
50959SOL    HW158714   7.082   3.746   3.564  0.1870  1.9359 -0.0350
50959SOL    HW258715   7.162   3.738   3.436 -0.8754  1.1995 -0.6741
50960SOL     OW58716   7.230   1.990   6.883  0.2617 -0.0577  0.3357
50960SOL    HW158717   7.324   2.001   6.898  0.1797 -0.6077  1.4015
50960SOL    HW258718   7.198   2.077   6.861  0.9928  0.1644  0.1264
50961SOL     OW58719   0.845   0.016   2.826  0.4715  0.0422 -0.3564
50961SOL    HW158720   0.771   0.041   2.881 -0.4707 -2.2971 -0.4550
50961SOL    HW258721   0.896   0.097   2.816 -3.0322  2.3002 -1.8516
50962SOL     OW58722  10.734   8.217   8.094 -0.4480 -0.0999 -0.0098
50962SOL    HW158723  10.788   8.223   8.016 -1.6247  1.0083 -0.7755
50962SOL    HW258724  10.666   8.154   8.071 -1.7350  1.4237 -0.4983
50963SOL     OW58725   5.350   6.650   7.066  0.3620  0.2644  0.4378
50963SOL    HW158726   5.303   6.570   7.089  0.1189  0.1799 -0.3266
50963SOL    HW258727   5.331   6.710   7.138  0.3365 -0.2818  0.8886
50964SOL     OW58728   0.117   8.682  12.073 -0.0109 -0.1555  0.1784
50964SOL    HW158729   0.058   8.749  12.106  1.5065  1.5120 -0.3511
50964SOL    HW258730   0.135   8.707  11.983  0.2081 -1.5798 -0.2091
50965SOL     OW58731   2.382   5.244   6.174 -0.1062 -0.1470  0.0464
50965SOL    HW158732   2.322   5.269   6.244 -2.5714 -0.9757 -1.6332
50965SOL    HW258733   2.398   5.326   6.127 -0.7678 -0.0904 -0.0915
50966SOL     OW58734  11.226  10.426   8.998 -0.0254  0.1387 -0.1824
50966SOL    HW158735  11.248  10.496   9.060 -1.6204  0.9822 -0.5044
50966SOL    HW258736  11.287  10.355   9.019  2.4419  2.0092 -0.5975
50967SOL     OW58737   4.100  11.907   2.264 -0.7845 -0.3052 -0.2447
50967SOL    HW158738   4.157  11.881   2.336 -0.3816  0.3168 -0.3287
50967SOL    HW258739   4.040  11.971   2.303 -2.0527 -1.6354  0.0671
50968SOL     OW58740   2.997   3.103   4.809 -0.1543  0.1547 -0.0458
50968SOL    HW158741   2.992   3.184   4.757  1.8102  1.2332  1.3232
50968SOL    HW258742   2.934   3.117   4.880 -0.0571  0.3241  0.0067
50969SOL     OW58743   4.121   0.442   0.528  0.3361  0.2528  0.1325
50969SOL    HW158744   4.086   0.424   0.441  1.5565  0.3005 -0.3836
50969SOL    HW258745   4.208   0.480   0.512  0.6855  0.0180  1.3745
50970SOL     OW58746   9.816   8.887   8.817  0.3693 -0.0870  0.3178
50970SOL    HW158747   9.790   8.954   8.880  0.2823  0.4010 -0.2401
50970SOL    HW258748   9.805   8.927   8.731 -0.5680 -1.1080 -0.0750
50971SOL     OW58749   2.803   1.586  10.720 -0.0638 -0.0601  0.1321
50971SOL    HW158750   2.715   1.604  10.686 -0.1530  0.2474  0.5171
50971SOL    HW258751   2.838   1.673  10.741  0.9202 -0.0437 -1.4454
50972SOL     OW58752   0.811  11.681   0.067  1.0370  0.1366 -0.1692
50972SOL    HW158753   0.864  11.675   0.146 -1.8347  1.5237  2.0284
50972SOL    HW258754   0.729  11.636   0.089  0.5207 -0.3982 -2.7937
50973SOL     OW58755  11.536   8.251   6.697 -0.0114  0.0880  0.0506
50973SOL    HW158756  11.550   8.156   6.696 -3.7752 -0.6286 -1.1643
50973SOL    HW258757  11.538   8.274   6.790  0.8670 -1.1647  0.3692
50974SOL     OW58758   7.893  11.853  10.831 -1.0859 -0.3502  0.6890
50974SOL    HW158759   7.940  11.930  10.862  0.3453  0.6607 -3.3504
50974SOL    HW258760   7.938  11.779  10.871  1.5494  0.7672 -0.0039
50975SOL     OW58761   2.911  10.876   5.396  0.3448  0.0724  0.3481
50975SOL    HW158762   2.969  10.863   5.321 -1.7464  0.2361 -1.3785
50975SOL    HW258763   2.884  10.967   5.390 -2.2139 -0.6650 -0.5656
50976SOL     OW58764   6.416   6.882   2.109  0.1246 -0.2000 -0.6443
50976SOL    HW158765   6.420   6.906   2.201  2.0218  1.1117 -1.0033
50976SOL    HW258766   6.328   6.846   2.097  0.9530 -4.0220  2.4760
50977SOL     OW58767   6.504  11.369  10.894  0.2232 -0.4506 -0.2932
50977SOL    HW158768   6.595  11.342  10.884  0.0185 -1.1056 -0.4561
50977SOL    HW258769   6.469  11.370  10.805  0.1537  0.1221 -0.2653
50978SOL     OW58770   1.092   0.692   8.557 -0.4605  0.0045  0.2444
50978SOL    HW158771   1.141   0.704   8.639 -1.6213 -3.3939  1.6124
50978SOL    HW258772   1.088   0.780   8.519  2.2607  1.3086  2.5544
50979SOL     OW58773   7.762   1.516  10.850  0.2890 -0.3457  0.2957
50979SOL    HW158774   7.808   1.432  10.852  0.3547 -0.2987  1.1078
50979SOL    HW258775   7.716   1.516  10.766  0.0648 -1.3198  0.4039
50980SOL     OW58776   5.358   3.812   9.242  0.2000  0.3005 -0.0105
50980SOL    HW158777   5.315   3.746   9.188  1.0140  0.0362 -0.3464
50980SOL    HW258778   5.384   3.765   9.321  2.0021 -0.1481 -0.8227
50981SOL     OW58779   6.472  12.066   6.964  0.4891  0.6777 -0.4005
50981SOL    HW158780   6.470  12.055   6.869  2.9602  3.0015 -0.8271
50981SOL    HW258781   6.415  12.141   6.981  1.6624  1.5826 -0.3399
50982SOL     OW58782   1.645   9.397   7.412  0.3529  0.4760  0.1770
50982SOL    HW158783   1.733   9.391   7.376  0.0465 -3.2719 -0.3798
50982SOL    HW258784   1.645   9.338   7.487 -1.6138  0.5142  0.2755
50983SOL     OW58785   9.885   2.400   5.655 -0.3962 -0.1549 -0.0809
50983SOL    HW158786   9.897   2.495   5.648  1.3832 -0.3299  0.1332
50983SOL    HW258787   9.840   2.387   5.738 -1.2581  0.5261 -0.4234
50984SOL     OW58788   6.154   2.157   3.141 -0.5336  0.3171  0.0091
50984SOL    HW158789   6.161   2.203   3.224 -0.1591 -0.4585  0.4129
50984SOL    HW258790   6.181   2.068   3.160 -1.8015 -0.2391 -0.6263
50985SOL     OW58791   4.845   9.598   8.923  0.6201  0.0769 -0.6889
50985SOL    HW158792   4.824   9.673   8.979  1.1259 -0.5576  0.3998
50985SOL    HW258793   4.760   9.559   8.903  0.4569  0.0049  0.1047
50986SOL     OW58794   8.099  11.356  10.655  0.4700  0.2598  0.1372
50986SOL    HW158795   8.035  11.395  10.596  0.5751 -1.9174 -1.5788
50986SOL    HW258796   8.179  11.407  10.642  0.1311  0.5914 -0.6845
50987SOL     OW58797   7.024  10.259  11.352  0.1501 -0.2490 -0.4458
50987SOL    HW158798   6.947  10.255  11.408  0.7307  0.7191  0.4421
50987SOL    HW258799   7.098  10.247  11.411  0.7100 -1.0246 -1.2674
50988SOL     OW58800   0.169   5.452   3.456 -0.1731 -0.5139 -0.4125
50988SOL    HW158801   0.124   5.466   3.373 -0.5555 -1.0172 -0.2927
50988SOL    HW258802   0.102   5.468   3.523  0.5377  1.5847 -0.1123
50989SOL     OW58803   1.766   4.199   9.367  0.0324 -0.5383  0.4675
50989SOL    HW158804   1.724   4.202   9.281 -0.0779 -2.8168  0.3729
50989SOL    HW258805   1.702   4.157   9.424  0.7430 -0.6160  1.2326
50990SOL     OW58806   6.178   7.635   7.313  0.1177 -0.5987 -0.3419
50990SOL    HW158807   6.165   7.541   7.304 -1.1996 -0.4257 -0.3491
50990SOL    HW258808   6.097   7.675   7.281  0.5091  0.5265 -0.0078
50991SOL     OW58809   0.742   9.060   0.989 -0.3004  0.2501  0.2089
50991SOL    HW158810   0.660   9.052   0.941  0.7507  1.6422 -1.9623
50991SOL    HW258811   0.799   8.994   0.949 -0.0420 -0.0671  1.0711
50992SOL     OW58812  11.411   6.530   9.680  0.3246  0.1095  0.2137
50992SOL    HW158813  11.377   6.609   9.721  1.5497 -0.1761  1.8888
50992SOL    HW258814  11.456   6.484   9.750 -0.5826 -2.2490 -0.6232
50993SOL     OW58815  11.093   9.001  11.066 -0.2936 -0.0822 -0.3181
50993SOL    HW158816  11.090   9.036  11.155  1.0079 -0.4253 -0.1149
50993SOL    HW258817  11.107   9.078  11.011 -0.7149  0.0871 -0.1929
50994SOL     OW58818   5.774   8.914   9.211 -0.1368 -0.0840  0.3321
50994SOL    HW158819   5.867   8.922   9.189 -0.4213 -1.3475 -1.5527
50994SOL    HW258820   5.741   8.846   9.152 -2.7630  1.8698 -0.6469
50995SOL     OW58821   3.774   0.069   9.137  0.6225  0.3874  0.3626
50995SOL    HW158822   3.719   0.047   9.213 -0.8437  0.5324 -0.6078
50995SOL    HW258823   3.863   0.073   9.172 -0.1680  2.0200  2.4185
50996SOL     OW58824   2.766   9.690  10.644 -0.0854  0.2472 -0.0120
50996SOL    HW158825   2.702   9.656  10.707 -0.3274  1.9830  0.7547
50996SOL    HW258826   2.757   9.785  10.651  2.5924  0.5520  0.1479
50997SOL     OW58827   9.963  10.465   1.741 -0.3213 -0.5588 -0.4073
50997SOL    HW158828   9.984  10.476   1.648  0.5843 -0.0869 -0.1589
50997SOL    HW258829   9.925  10.549   1.767  0.5730 -0.2572 -0.0591
50998SOL     OW58830   9.098   6.132   0.438 -0.0907 -0.3525  0.2703
50998SOL    HW158831   9.077   6.122   0.531 -0.1945 -1.1248  0.1711
50998SOL    HW258832   9.138   6.219   0.432 -0.4300 -0.1379  0.9715
50999SOL     OW58833  10.832   0.918  10.791  0.0537  0.4242 -0.2226
50999SOL    HW158834  10.785   0.852  10.740 -0.5759 -0.7424  1.7070
50999SOL    HW258835  10.773   0.993  10.793 -1.5137 -0.7313  1.4879
51000SOL     OW58836   9.062   0.089   9.928  0.3249 -0.2287  0.7055
51000SOL    HW158837   9.134   0.095   9.865  1.9419  2.3701  2.6200
51000SOL    HW258838   9.077   0.007   9.974  2.2708  0.3461  1.1998
51001SOL     OW58839   1.987   2.751   7.616 -0.2590  0.1226  0.4376
51001SOL    HW158840   2.047   2.720   7.684  0.9652  0.1715 -0.5681
51001SOL    HW258841   1.971   2.843   7.638 -0.3628 -0.0266  0.9913
51002SOL     OW58842  10.607   3.090   3.086 -0.2267 -0.0394 -0.6783
51002SOL    HW158843  10.530   3.130   3.045  0.1659  1.6755  0.1696
51002SOL    HW258844  10.621   3.010   3.036 -2.5102 -0.3837 -0.9054
51003SOL     OW58845   0.644  11.786   5.861  0.0423  0.1187  0.1500
51003SOL    HW158846   0.597  11.818   5.938 -0.8166  0.6093 -0.5560
51003SOL    HW258847   0.736  11.806   5.879 -0.2821  1.4782  0.4766
51004SOL     OW58848   1.198   0.221   8.908  0.1970  0.1549  0.7244
51004SOL    HW158849   1.152   0.275   8.973  0.3122 -1.3236  2.1229
51004SOL    HW258850   1.210   0.278   8.832 -0.8670  1.6398  1.6261
51005SOL     OW58851   9.403   2.147   9.058  0.3096 -0.0939  0.1308
51005SOL    HW158852   9.452   2.065   9.052 -0.7598 -0.8908  1.5242
51005SOL    HW258853   9.465   2.215   9.032  1.0487 -1.3795 -1.6204
51006SOL     OW58854   5.634   3.474   1.748  0.0277  0.2730  0.3898
51006SOL    HW158855   5.653   3.393   1.701  0.9342 -0.2988  1.6927
51006SOL    HW258856   5.691   3.471   1.825 -1.7757  0.9299  1.8152
51007SOL     OW58857   2.729   6.073   1.700 -0.0866 -0.3840  0.4233
51007SOL    HW158858   2.816   6.067   1.741 -0.9020 -1.8608  2.0479
51007SOL    HW258859   2.705   5.982   1.682 -1.3528 -0.0061  0.1139
51008SOL     OW58860   5.031  10.739   5.927  0.1031  0.1171  0.2413
51008SOL    HW158861   5.065  10.775   5.845  1.5223 -0.0196  0.7429
51008SOL    HW258862   5.058  10.802   5.994  1.6108 -1.2355  0.9741
51009SOL     OW58863  11.926   1.350   3.754 -0.3562 -0.2423 -0.2036
51009SOL    HW158864  11.850   1.404   3.770 -0.2417 -0.0341 -0.3641
51009SOL    HW258865  11.916   1.275   3.814  0.2091  0.6539  1.0592
51010SOL     OW58866   1.166   8.258   1.992  0.0332 -0.3597 -0.3949
51010SOL    HW158867   1.119   8.253   1.908 -0.0489  0.9462 -0.4541
51010SOL    HW258868   1.258   8.256   1.968  0.0087 -0.4960 -0.4770
51011SOL     OW58869   4.189   1.066   8.873  0.0603 -0.2847 -0.0281
51011SOL    HW158870   4.130   1.028   8.939 -0.8612  0.4502 -0.3935
51011SOL    HW258871   4.138   1.064   8.792  0.7600 -0.1458 -0.4749
51012SOL     OW58872   8.500   4.267  10.672 -0.3341 -0.3500  0.3519
51012SOL    HW158873   8.542   4.283  10.587 -2.4095  1.2877 -0.4607
51012SOL    HW258874   8.534   4.335  10.729  0.1373 -0.7013  0.4966
51013SOL     OW58875   6.457  11.764   3.255  0.4785 -0.2280 -0.1970
51013SOL    HW158876   6.478  11.714   3.333  0.4302  2.4387  1.6789
51013SOL    HW258877   6.363  11.779   3.259  0.5519  0.3718 -0.4507
51014SOL     OW58878   0.791   5.940   3.137  0.6942  0.2232 -0.2378
51014SOL    HW158879   0.773   5.892   3.218 -3.4901  1.0637 -0.4486
51014SOL    HW258880   0.777   5.876   3.068 -2.1634  0.9081 -0.4092
51015SOL     OW58881   9.461   6.581   1.793 -0.1530  0.8396 -0.1202
51015SOL    HW158882   9.437   6.649   1.856  0.3021 -0.1213  1.1071
51015SOL    HW258883   9.526   6.527   1.838  0.1982  0.1326 -1.4157
51016SOL     OW58884   7.360  10.283   7.938  0.3334  0.6488 -0.0637
51016SOL    HW158885   7.454  10.297   7.928  0.2573  0.9168 -0.4464
51016SOL    HW258886   7.327  10.283   7.848 -0.1756  1.5354  0.1144
51017SOL     OW58887   7.605   0.089   0.249 -0.3265  0.0270  0.0913
51017SOL    HW158888   7.590   0.096   0.343 -1.0690 -1.4854  0.1155
51017SOL    HW258889   7.617  -0.005   0.233 -3.0167 -0.1254 -1.6849
51018SOL     OW58890   5.200  10.059  11.462 -0.3404  0.3906  0.1710
51018SOL    HW158891   5.293  10.037  11.461 -0.6250 -1.0153  1.1730
51018SOL    HW258892   5.198  10.152  11.483  0.8237 -0.2180  3.7402
51019SOL     OW58893  11.566   1.251   0.310 -0.4164  0.2117 -0.0252
51019SOL    HW158894  11.617   1.209   0.241  0.0695  2.3604 -1.0584
51019SOL    HW258895  11.479   1.210   0.304 -0.1924 -0.1082 -1.4874
51020SOL     OW58896   5.650   4.306   8.212  0.9779 -0.2849  0.1407
51020SOL    HW158897   5.615   4.384   8.255  0.1070 -0.2946 -0.5310
51020SOL    HW258898   5.692   4.257   8.283 -1.1184 -0.7093  1.1633
51021SOL     OW58899   0.206  11.943   2.699  0.1367  0.1040  0.1385
51021SOL    HW158900   0.296  11.934   2.730 -0.5235  0.1464  2.1695
51021SOL    HW258901   0.191  11.864   2.647  1.2690  0.0073 -0.0725
51022SOL     OW58902   8.030  11.533  12.076  0.2495  0.1747 -0.0502
51022SOL    HW158903   8.118  11.521  12.041 -0.2508 -0.2340 -1.2604
51022SOL    HW258904   7.987  11.448  12.064 -0.2431  0.3021  0.7236
51023SOL     OW58905   0.672   7.174   3.818  0.3706 -0.0670 -0.5069
51023SOL    HW158906   0.725   7.198   3.742  0.9772  0.8956  0.2014
51023SOL    HW258907   0.694   7.082   3.835 -0.0623 -0.4062 -1.7088
51024SOL     OW58908   0.322   0.627   4.465 -0.4882 -0.5480  0.0347
51024SOL    HW158909   0.363   0.630   4.551 -1.5107  0.5546  0.5080
51024SOL    HW258910   0.244   0.682   4.473 -0.3787 -0.0588 -1.7138
51025SOL     OW58911   1.215   0.999   3.539  0.0977 -0.1668 -0.4071
51025SOL    HW158912   1.275   0.938   3.495 -0.2936 -0.9851  0.1502
51025SOL    HW258913   1.269   1.042   3.605  0.5136  0.5278 -1.1815
51026SOL     OW58914   5.289   4.434   5.753 -0.8399  0.6201 -0.5612
51026SOL    HW158915   5.293   4.355   5.807 -0.5404  2.0642  1.6696
51026SOL    HW258916   5.221   4.488   5.793  0.2773  2.3116 -0.8121
51027SOL     OW58917   0.726   8.379   3.524 -0.1074 -0.7539  0.1619
51027SOL    HW158918   0.730   8.366   3.619 -2.4077 -0.5781  0.3308
51027SOL    HW258919   0.709   8.291   3.489  1.9836 -1.0529 -0.2573
51028SOL     OW58920   6.457   0.807   6.496 -0.5169 -0.2258 -0.0099
51028SOL    HW158921   6.426   0.880   6.443 -0.4251  0.5083  0.9236
51028SOL    HW258922   6.517   0.847   6.560 -0.7952 -1.0435  0.7914
51029SOL     OW58923   5.660   6.005   8.777  0.0567 -0.2146 -0.2820
51029SOL    HW158924   5.701   5.973   8.857  1.3717  1.1032 -0.3953
51029SOL    HW258925   5.634   5.925   8.731 -0.1512 -1.0078  1.1510
51030SOL     OW58926   7.013   1.193   5.970 -0.3699 -0.1485  0.2123
51030SOL    HW158927   6.972   1.123   5.920  0.5385  0.5555 -1.6243
51030SOL    HW258928   6.941   1.254   5.989 -0.8452 -0.7442  0.3666
51031SOL     OW58929  10.831   8.712   1.156  0.3276 -0.1590 -0.3129
51031SOL    HW158930  10.879   8.748   1.231 -1.3970 -0.0178  0.7907
51031SOL    HW258931  10.801   8.788   1.107  0.8325 -0.2356 -0.7499
51032SOL     OW58932  11.392  10.941   1.301  0.0546  0.5390 -0.5774
51032SOL    HW158933  11.401  10.863   1.246  0.6989  1.2196 -1.4621
51032SOL    HW258934  11.328  10.995   1.255 -1.5312 -0.0882  0.7950
51033SOL     OW58935  12.274   3.305   6.408 -0.5205  0.2482 -0.1657
51033SOL    HW158936  12.248   3.397   6.409 -0.1301  0.3590 -0.2358
51033SOL    HW258937  12.326   3.295   6.328 -0.4830 -0.0130 -0.1111
51034SOL     OW58938   7.360  11.910   0.338  0.3159  0.8992  0.2045
51034SOL    HW158939   7.264  11.904   0.344  0.2435  0.8772 -0.8637
51034SOL    HW258940   7.385  11.956   0.419 -0.6408  1.3644  0.2648
51035SOL     OW58941   1.017   7.863   4.541  0.3735  0.3306  0.0707
51035SOL    HW158942   1.054   7.945   4.573 -0.3101  0.0533  1.6484
51035SOL    HW258943   0.926   7.864   4.570  0.4120 -1.0768  0.3138
51036SOL     OW58944  11.904   9.067   0.685 -0.4985  0.1426 -0.6132
51036SOL    HW158945  11.846   9.103   0.751  0.5758  0.3094  0.2767
51036SOL    HW258946  11.917   8.976   0.711  0.7631  0.4874  0.0363
51037SOL     OW58947   1.778   3.495   4.020 -0.2139  0.1338 -0.2305
51037SOL    HW158948   1.819   3.411   3.998 -1.6979 -0.1328 -2.3375
51037SOL    HW258949   1.755   3.533   3.935 -0.1164  2.4231  0.7006
51038SOL     OW58950  11.914   5.797   4.893  0.2583 -0.5541 -0.5379
51038SOL    HW158951  11.970   5.837   4.826  0.1146 -0.7823 -0.7991
51038SOL    HW258952  11.934   5.704   4.888 -0.7306 -0.7396 -1.1985
51039SOL     OW58953   0.082   9.484  11.336  0.2910 -0.3348  0.4881
51039SOL    HW158954   0.154   9.538  11.305  0.7893 -1.4343 -0.3623
51039SOL    HW258955   0.085   9.492  11.431  1.2607 -0.0001  0.4420
51040SOL     OW58956  11.934   6.375   3.673 -0.0013  0.1912  0.1446
51040SOL    HW158957  11.928   6.302   3.734 -2.2189  1.9086  2.1761
51040SOL    HW258958  11.846   6.383   3.636  0.0530  2.0351  0.2939
51041SOL     OW58959   1.076   7.396   1.333 -0.2756  0.0946 -0.5742
51041SOL    HW158960   1.166   7.378   1.357 -0.1716 -0.3477 -1.2673
51041SOL    HW258961   1.076   7.394   1.237 -0.9644  0.3604 -0.5851
51042SOL     OW58962   6.522   1.626   2.114 -0.0228  0.1948  0.0433
51042SOL    HW158963   6.583   1.599   2.045 -1.4568  0.1747 -1.2544
51042SOL    HW258964   6.453   1.560   2.113  0.0047  0.0894  1.6575
51043SOL     OW58965  10.906   6.420  12.302 -0.3135  0.0523  0.5428
51043SOL    HW158966  10.915   6.512  12.275  0.9911  0.4942  2.2737
51043SOL    HW258967  10.813   6.410  12.321 -0.4588  1.0588  0.4318
51044SOL     OW58968   1.896   7.873   3.868 -0.3160 -0.4015 -0.0844
51044SOL    HW158969   1.954   7.904   3.799 -1.3107 -0.1612 -0.8293
51044SOL    HW258970   1.921   7.781   3.880  1.0026 -0.0120  0.4571
51045SOL     OW58971   6.161   1.957  10.341  0.1018 -0.1226  0.2286
51045SOL    HW158972   6.191   2.040  10.305  0.0288  0.9337  2.4718
51045SOL    HW258973   6.241   1.914  10.372 -0.0005 -0.3295  0.2113
51046SOL     OW58974   6.808   8.942  12.121  0.0091  0.4160 -0.0386
51046SOL    HW158975   6.865   8.911  12.191  0.1063  0.4481 -0.1045
51046SOL    HW258976   6.865   8.992  12.062  0.3426 -1.2389 -1.1958
51047SOL     OW58977   4.395   5.119   5.546  0.0602  0.5182 -0.0565
51047SOL    HW158978   4.423   5.192   5.490  0.4529  0.1651 -0.3266
51047SOL    HW258979   4.386   5.045   5.486 -0.7568  0.4414  0.1444
51048SOL     OW58980  10.608   3.864   3.444  0.8741  0.3380  0.0834
51048SOL    HW158981  10.700   3.871   3.417  0.6050  1.1354 -0.6660
51048SOL    HW258982  10.611   3.810   3.522  1.5616 -3.4316 -2.2790
51049SOL     OW58983  10.851   3.033   6.842  0.2899 -0.2166  0.2782
51049SOL    HW158984  10.769   3.081   6.857  0.0088 -0.3258 -0.8190
51049SOL    HW258985  10.914   3.100   6.817  0.3675 -0.2160  0.4713
51050SOL     OW58986   7.229   9.587  12.100 -0.1431  0.9695  0.0063
51050SOL    HW158987   7.319   9.557  12.114 -0.4385  0.4070  0.8293
51050SOL    HW258988   7.209   9.638  12.178 -1.3936 -1.1088  1.1298
51051SOL     OW58989   1.785   2.267   0.490 -0.6728  0.2784 -0.2390
51051SOL    HW158990   1.713   2.241   0.547 -1.2386 -1.4933 -1.6761
51051SOL    HW258991   1.757   2.352   0.454 -0.5463  1.1572  1.6355
51052SOL     OW58992   7.183   6.137   0.290  0.1010  0.2008  0.3806
51052SOL    HW158993   7.132   6.175   0.362 -0.1248  0.0679  0.2910
51052SOL    HW258994   7.242   6.076   0.334 -0.5227 -0.4094  0.3961
51053SOL     OW58995   2.091   8.854   4.999  0.1654 -0.0565 -0.0095
51053SOL    HW158996   2.102   8.886   5.088 -1.6271 -1.1224  0.6563
51053SOL    HW258997   2.162   8.790   4.988  0.2882 -0.0556  0.7270
51054SOL     OW58998   2.574  11.188   9.529 -0.0094 -0.5730  0.0117
51054SOL    HW158999   2.661  11.223   9.548  0.5988 -1.6728 -0.7031
51054SOL    HW259000   2.525  11.264   9.497  1.1910 -0.2696 -1.1921
51055SOL     OW59001  10.172  11.781   8.570  0.3772  0.0802 -0.3434
51055SOL    HW159002  10.223  11.717   8.621  0.2328  1.9320  2.2806
51055SOL    HW259003  10.083  11.747   8.573  0.4989 -0.2271 -0.0181
51056SOL     OW59004   6.774   0.179  11.714 -0.0515  0.5616 -0.4761
51056SOL    HW159005   6.700   0.161  11.656 -1.0434 -0.0176  0.9345
51056SOL    HW259006   6.736   0.188  11.801  1.6143 -0.5338  0.4221
51057SOL     OW59007   2.435  10.594   8.009  0.3657  0.2880  0.2148
51057SOL    HW159008   2.385  10.602   8.091  1.6599  0.7111  1.0027
51057SOL    HW259009   2.527  10.594   8.038  0.8306 -2.5647 -0.9860
51058SOL     OW59010  10.273  10.966  11.600  0.0921  0.2160  0.1206
51058SOL    HW159011  10.254  11.037  11.661 -0.4061 -0.4910  0.8139
51058SOL    HW259012  10.362  10.938  11.624 -0.8119 -1.3727  1.9319
51059SOL     OW59013   4.268   2.542   9.178 -0.4355  0.1078  0.3225
51059SOL    HW159014   4.278   2.618   9.237  0.5723 -0.1856  0.5616
51059SOL    HW259015   4.263   2.467   9.237 -2.2791  0.0270  0.1188
51060SOL     OW59016   2.629   2.658   8.385 -0.7086 -0.1040  0.0981
51060SOL    HW159017   2.569   2.660   8.310 -0.5617  0.4557 -0.0155
51060SOL    HW259018   2.683   2.581   8.370  1.1324  1.4210 -1.8680
51061SOL     OW59019   6.590   7.528  10.111  0.0649  0.0094 -0.4520
51061SOL    HW159020   6.620   7.483  10.190  0.3624 -1.7140 -1.5016
51061SOL    HW259021   6.591   7.461  10.043 -1.0009  1.2382 -1.7470
51062SOL     OW59022   6.715   7.516   5.390  0.1214  0.0826  0.7105
51062SOL    HW159023   6.720   7.556   5.477 -2.1653 -0.5520  1.1840
51062SOL    HW259024   6.744   7.426   5.403 -0.2600 -0.0237  0.8162
51063SOL     OW59025   4.974   7.961   9.266  0.2279 -0.5417 -0.6391
51063SOL    HW159026   4.941   7.889   9.320  2.5499  0.8832  3.0810
51063SOL    HW259027   5.060   7.930   9.237 -0.4690 -0.7755 -2.5543
51064SOL     OW59028   2.615   1.069   6.338  0.2101 -0.1251 -0.1452
51064SOL    HW159029   2.524   1.092   6.319  0.8982  3.1835 -0.1563
51064SOL    HW259030   2.635   0.996   6.280 -1.8333  0.4708 -1.7166
51065SOL     OW59031   4.647   6.221   3.269  0.3212 -0.3408 -0.3754
51065SOL    HW159032   4.552   6.212   3.263  0.3692 -0.4308 -1.1346
51065SOL    HW259033   4.672   6.165   3.343 -0.1658 -0.6932 -0.4754
51066SOL     OW59034   5.944   1.227   3.893 -0.0237  0.2496  0.3138
51066SOL    HW159035   5.933   1.185   3.978  0.4290  0.8437  0.6768
51066SOL    HW259036   5.923   1.319   3.909 -3.0143 -0.1112 -0.9065
51067SOL     OW59037   4.989   0.686   8.042 -0.1050 -0.1248  0.2137
51067SOL    HW159038   5.029   0.741   7.975 -0.4640  0.4502  0.4666
51067SOL    HW259039   4.929   0.744   8.089 -0.3195 -0.6728  0.6334
51068SOL     OW59040   9.176  10.140   6.398  0.4800  0.4516  0.1195
51068SOL    HW159041   9.101  10.089   6.368  0.0079  2.6157 -2.8361
51068SOL    HW259042   9.232  10.077   6.443 -2.6256 -1.4178  1.6658
51069SOL     OW59043   7.266   2.404   3.124  0.2388  0.0043  0.2842
51069SOL    HW159044   7.331   2.467   3.156 -0.5167  0.7563  0.3486
51069SOL    HW259045   7.270   2.413   3.029  0.5965 -0.3293  0.2643
51070SOL     OW59046   8.347   1.372   8.818 -0.3615  0.3146  0.2689
51070SOL    HW159047   8.390   1.321   8.749 -0.4880  0.1570  0.3039
51070SOL    HW259048   8.331   1.308   8.888 -0.5117  0.4049  0.3173
51071SOL     OW59049   2.779   8.600   8.768  0.1579  0.1014  0.1191
51071SOL    HW159050   2.800   8.508   8.783 -2.2000 -0.3323  1.1857
51071SOL    HW259051   2.800   8.643   8.851 -2.7947 -0.3382  1.2034
51072SOL     OW59052  10.135   5.537  12.227  0.1775 -0.4340 -0.5480
51072SOL    HW159053  10.225   5.525  12.195  0.3309 -0.8742  0.0257
51072SOL    HW259054  10.113   5.454  12.269  0.2760  0.3485  1.1319
51073SOL     OW59055  12.195   0.999  12.303  0.2618  0.3585 -0.3294
51073SOL    HW159056  12.235   0.918  12.334 -1.8190 -0.2363  0.9909
51073SOL    HW259057  12.261   1.037  12.245  2.3231 -0.9825  0.9981
51074SOL     OW59058   1.272   5.499   1.230  0.6581  0.5538  0.7667
51074SOL    HW159059   1.235   5.586   1.245  0.0271  0.3301  0.5529
51074SOL    HW259060   1.241   5.446   1.304  0.5810  0.3754  0.6094
51075SOL     OW59061   6.991   8.369   0.680  0.3929  0.1665  0.3398
51075SOL    HW159062   6.966   8.461   0.694 -0.4885 -0.0085 -0.0361
51075SOL    HW259063   6.931   8.319   0.735 -0.1753 -0.2710 -0.6552
51076SOL     OW59064   4.481  11.030   2.817  0.1855  0.0860  0.1681
51076SOL    HW159065   4.400  11.042   2.767  0.6262  2.5662 -0.0694
51076SOL    HW259066   4.453  10.985   2.897 -1.0657 -0.9068 -0.7794
51077SOL     OW59067   6.409   7.607   3.639  0.3972 -0.0482 -0.2511
51077SOL    HW159068   6.444   7.544   3.576  0.6420  0.5036 -0.6748
51077SOL    HW259069   6.483   7.663   3.662 -0.1446  1.0400 -1.0479
51078SOL     OW59070   3.175  12.030   8.958 -0.0408 -1.0731 -0.0954
51078SOL    HW159071   3.163  12.121   8.985 -0.1307 -1.1719  0.2093
51078SOL    HW259072   3.269  12.019   8.952  0.0963 -1.5416  1.9938
51079SOL     OW59073  11.464   2.502   5.053 -0.2455 -0.1837 -0.3792
51079SOL    HW159074  11.517   2.429   5.086  1.2157  0.1835 -1.7836
51079SOL    HW259075  11.504   2.580   5.092  0.2305  0.0872 -1.3667
51080SOL     OW59076   8.481   4.375   5.962  0.3475 -0.3278  0.6056
51080SOL    HW159077   8.480   4.286   5.999 -1.6136 -0.1487  1.0795
51080SOL    HW259078   8.390   4.391   5.937  1.0622  0.7576 -1.4766
51081SOL     OW59079   8.275   1.124   1.458  0.6135  0.5535 -0.2969
51081SOL    HW159080   8.274   1.220   1.457  1.0675  0.5610 -0.0384
51081SOL    HW259081   8.307   1.100   1.371 -0.9192  0.6029 -0.9145
51082SOL     OW59082   7.494   7.650   3.620 -0.6394 -0.0963 -0.1702
51082SOL    HW159083   7.583   7.681   3.637  0.0203 -2.7100  1.7134
51082SOL    HW259084   7.506   7.573   3.565 -1.6445 -0.9741  0.7983
51083SOL     OW59085   7.954   9.732   0.233  0.3220  0.5954 -0.0974
51083SOL    HW159086   7.894   9.807   0.243 -0.9029 -0.3503 -0.1620
51083SOL    HW259087   7.994   9.744   0.147  0.5135  1.4247  0.0941
51084SOL     OW59088  11.632  11.574   6.247 -0.4664 -0.1283 -0.0989
51084SOL    HW159089  11.691  11.504   6.218 -0.7450 -0.1176 -0.7150
51084SOL    HW259090  11.570  11.584   6.174  0.1511  1.4145 -0.4366
51085SOL     OW59091   1.049   8.067   0.597 -0.3097  0.3828  0.7754
51085SOL    HW159092   0.984   8.052   0.665 -0.9014 -0.9509 -0.0496
51085SOL    HW259093   1.127   8.021   0.628  0.5818  2.6633  2.1582
51086SOL     OW59094   8.236   5.659   8.421 -0.2984  0.3258  0.0449
51086SOL    HW159095   8.239   5.643   8.327  0.2322  0.5478  0.0160
51086SOL    HW259096   8.154   5.706   8.435 -0.7608 -0.3837 -0.1887
51087SOL     OW59097   1.228  10.899   1.140 -0.0292  0.1924  0.4080
51087SOL    HW159098   1.142  10.941   1.133  0.9346  2.3372  0.5257
51087SOL    HW259099   1.215  10.827   1.202 -1.3530  1.6561  1.9280
51088SOL     OW59100   4.000   7.368   4.712 -0.0083  0.4348  0.3830
51088SOL    HW159101   4.005   7.364   4.617 -2.7075 -0.2175  0.2066
51088SOL    HW259102   4.004   7.462   4.732  1.7884  0.5258 -0.2254
51089SOL     OW59103   3.505   8.945  11.205  0.2777 -0.8128  0.0783
51089SOL    HW159104   3.409   8.952  11.206 -0.0234 -3.4253  1.5596
51089SOL    HW259105   3.536   9.034  11.193 -2.3470  0.2925  0.7342
51090SOL     OW59106   1.338   1.100  12.047  0.5822 -0.4494  0.3397
51090SOL    HW159107   1.396   1.152  12.103  1.4316 -0.4763 -0.4902
51090SOL    HW259108   1.326   1.152  11.968 -0.7168 -0.3555  0.5702
51091SOL     OW59109   5.045   1.870   7.322 -0.2762 -0.4079  0.0732
51091SOL    HW159110   4.965   1.824   7.348  0.1236 -1.4464 -0.4639
51091SOL    HW259111   5.050   1.945   7.381 -1.2674 -0.7243  0.5820
51092SOL     OW59112   2.217   4.659   0.701 -0.3501  0.6600 -0.5372
51092SOL    HW159113   2.280   4.592   0.728 -1.0894  0.2269  0.1651
51092SOL    HW259114   2.271   4.736   0.681  0.3094  1.1699  2.6100
51093SOL     OW59115   3.309   7.624  10.182 -0.0879  0.0686  0.5316
51093SOL    HW159116   3.310   7.534  10.215 -0.4844 -0.2454 -0.2554
51093SOL    HW259117   3.218   7.637  10.153 -0.2316  1.0064  1.3641
51094SOL     OW59118   1.099   5.460  10.835 -0.1476 -0.1209 -0.0756
51094SOL    HW159119   1.087   5.425  10.747 -2.0281 -0.9221  0.4626
51094SOL    HW259120   1.092   5.384  10.893 -2.5813  0.8250  0.9930
51095SOL     OW59121  12.116   9.507   9.897  0.4552 -0.2842 -0.2242
51095SOL    HW159122  12.054   9.465   9.957  0.1087  1.5740  0.7933
51095SOL    HW259123  12.164   9.569   9.952  2.1366 -0.5572 -1.3217
51096SOL     OW59124  10.599   3.219   0.362 -0.5521  0.0757 -0.5417
51096SOL    HW159125  10.653   3.179   0.430  1.7712 -0.1982 -2.4270
51096SOL    HW259126  10.550   3.287   0.408 -0.8847 -1.6289  1.8122
51097SOL     OW59127   5.194  12.297   4.919 -0.2733 -0.4140  0.3657
51097SOL    HW159128   5.269  12.282   4.861 -1.9886  0.4376 -2.2430
51097SOL    HW259129   5.201  12.389   4.943 -2.5978  0.9504 -3.4000
51098SOL     OW59130   4.286   0.657   7.943 -0.4915 -0.4020  0.1533
51098SOL    HW159131   4.231   0.732   7.921 -0.1608 -0.5922 -1.4706
51098SOL    HW259132   4.370   0.696   7.970 -0.7456 -0.1644  0.6046
51099SOL     OW59133   5.600   9.204   1.541 -0.1420 -0.6489  0.2565
51099SOL    HW159134   5.590   9.266   1.613 -0.5397 -0.4062 -0.0058
51099SOL    HW259135   5.547   9.241   1.470  0.9564 -0.4036 -0.4663
51100SOL     OW59136   6.987   8.454   5.865 -0.3486 -0.3013 -0.6454
51100SOL    HW159137   6.923   8.515   5.900  0.6172  0.4165 -0.1006
51100SOL    HW259138   7.068   8.473   5.912 -0.0843 -2.2086 -0.2344
51101SOL     OW59139   1.651   7.981   7.190 -0.2469 -0.1005 -0.2435
51101SOL    HW159140   1.629   8.046   7.123  2.7543  0.6519 -0.6488
51101SOL    HW259141   1.685   8.033   7.263  0.6746 -1.1181  0.0769
51102SOL     OW59142   0.109   9.301  10.413 -0.2427 -0.0955 -0.3979
51102SOL    HW159143   0.128   9.330  10.502 -0.2100 -0.2506 -0.3526
51102SOL    HW259144   0.099   9.206  10.420  1.6325 -0.3766 -0.8622
51103SOL     OW59145  11.940   2.507   6.323  0.4024 -0.0712 -0.2199
51103SOL    HW159146  11.897   2.527   6.240  0.0960 -0.3711 -0.1395
51103SOL    HW259147  11.873   2.460   6.374  0.7905 -0.4533 -0.0512
51104SOL     OW59148   8.778  11.187   9.325 -0.0879  0.3832 -0.2721
51104SOL    HW159149   8.701  11.141   9.359  0.6937  1.0732  2.7303
51104SOL    HW259150   8.748  11.278   9.315  0.2457  0.6308  0.7994
51105SOL     OW59151   4.361   0.929   5.989  0.2219  0.0215  0.0212
51105SOL    HW159152   4.359   0.834   5.996 -0.2697  0.0245 -0.0200
51105SOL    HW259153   4.325   0.960   6.072 -3.0489  0.0976 -1.2619
51106SOL     OW59154   2.460   9.927   9.786 -0.6298 -0.4526  0.2278
51106SOL    HW159155   2.550   9.936   9.817 -0.6843 -0.0440  0.2733
51106SOL    HW259156   2.412   9.893   9.862 -0.5364 -0.5749  0.2334
51107SOL     OW59157  10.544   0.875   4.861  0.0465 -0.7376 -0.1464
51107SOL    HW159158  10.511   0.805   4.917  1.7525 -1.5099 -0.0491
51107SOL    HW259159  10.630   0.896   4.898  1.1891 -1.2051 -2.4074
51108SOL     OW59160   5.776  12.306   8.962  0.4849 -0.2919 -0.0358
51108SOL    HW159161   5.725  12.291   9.042 -1.7045  0.0443 -1.2911
51108SOL    HW259162   5.830  12.382   8.982  0.2629 -0.4491  1.2582
51109SOL     OW59163  11.178   2.779   5.611  0.0963  0.2455  0.5755
51109SOL    HW159164  11.228   2.740   5.683 -1.9445  0.2031  2.0520
51109SOL    HW259165  11.171   2.709   5.546 -0.3577 -0.6719  1.5759
51110SOL     OW59166   2.671   4.600   7.187  0.3587  0.0458 -0.0758
51110SOL    HW159167   2.732   4.543   7.234  1.7023  1.3584 -0.1455
51110SOL    HW259168   2.596   4.609   7.246  0.7362 -0.6688  0.5298
51111SOL     OW59169  11.060   0.512   4.479 -0.4992 -0.1045  0.0316
51111SOL    HW159170  11.135   0.455   4.496  0.7535  1.4730  0.0499
51111SOL    HW259171  11.018   0.523   4.565 -0.5773 -0.7225  0.0798
51112SOL     OW59172   9.650  11.462  11.614  0.1149  0.3352 -0.3149
51112SOL    HW159173   9.647  11.540  11.669 -1.5250 -0.8794  1.4119
51112SOL    HW259174   9.666  11.390  11.675  0.5216 -0.8202 -1.7343
51113SOL     OW59175  11.432  10.236   9.037 -0.8888 -0.3771  0.0219
51113SOL    HW159176  11.522  10.239   9.004 -0.6715 -0.7279  0.5724
51113SOL    HW259177  11.440  10.203   9.126 -1.5252  0.0097  0.2285
51114SOL     OW59178   5.763   9.959  11.671  0.4628  0.4176  0.5736
51114SOL    HW159179   5.827  10.027  11.649 -1.0164  1.2345 -1.5700
51114SOL    HW259180   5.694  10.006  11.717  0.9833 -0.3074  2.1500
51115SOL     OW59181   8.108   0.015   2.069  0.1240 -0.0838  0.3089
51115SOL    HW159182   8.013   0.010   2.079 -0.2599  1.3374 -2.0436
51115SOL    HW259183   8.129   0.107   2.079  1.4303 -0.4980  1.7376
51116SOL     OW59184   3.972   5.761   4.884  0.0786  0.2433  0.2451
51116SOL    HW159185   3.893   5.752   4.831 -0.9210  1.8280  1.3960
51116SOL    HW259186   3.969   5.850   4.918  1.9343  0.0590  1.0168
51117SOL     OW59187   1.472  10.279  11.469 -0.5681  0.1618  0.0544
51117SOL    HW159188   1.459  10.310  11.559 -0.3439  1.1045 -0.2314
51117SOL    HW259189   1.558  10.237  11.470 -0.9729 -0.6925  0.4975
51118SOL     OW59190   9.884   1.191   1.112 -0.8589 -0.2315  0.2790
51118SOL    HW159191   9.959   1.195   1.053  0.4667  1.9577  1.9889
51118SOL    HW259192   9.856   1.282   1.122 -2.3643 -0.7701  1.4417
51119SOL     OW59193  10.701  12.271   6.315 -0.1432 -0.1597 -0.0095
51119SOL    HW159194  10.618  12.247   6.273 -0.7977  1.8851  0.0397
51119SOL    HW259195  10.766  12.213   6.275 -1.8372 -3.2982  1.4336
51120SOL     OW59196   0.965   9.277   6.519  0.5466  0.2266 -0.5293
51120SOL    HW159197   0.998   9.207   6.463  1.7704  0.9798 -0.7977
51120SOL    HW259198   0.871   9.264   6.521  0.4556  0.1631 -2.7596
51121SOL     OW59199   3.821   1.766   2.658 -0.4938 -0.0753  0.5937
51121SOL    HW159200   3.779   1.834   2.605 -2.0507  0.5588  2.4826
51121SOL    HW259201   3.748   1.710   2.685  0.3068 -0.6217  1.6780
51122SOL     OW59202   2.023  10.020  12.014 -0.3268  0.4034  0.2437
51122SOL    HW159203   2.053   9.986  11.929 -1.4141 -0.4830  0.1893
51122SOL    HW259204   1.930  10.037  12.001 -0.3654  0.8517  1.0861
51123SOL     OW59205   0.304   7.896   1.611  0.4169 -0.2240  0.5632
51123SOL    HW159206   0.322   7.854   1.527  1.1859  0.7029  0.2502
51123SOL    HW259207   0.278   7.823   1.668  0.2988 -0.9213 -0.3477
51124SOL     OW59208   3.190  10.965   4.486  0.6654  0.3418  0.8375
51124SOL    HW159209   3.185  10.870   4.474 -1.2777  0.2999  1.5543
51124SOL    HW259210   3.270  10.979   4.536  2.0101 -0.6976 -0.9291
51125SOL     OW59211   4.651   1.545   0.557 -0.6488  0.8043 -0.0638
51125SOL    HW159212   4.666   1.455   0.527  1.9734  1.4855 -1.0355
51125SOL    HW259213   4.558   1.560   0.540 -1.6715 -2.2841  1.8757
51126SOL     OW59214   7.870  11.940   2.569  0.4487 -0.0862 -0.2214
51126SOL    HW159215   7.908  11.883   2.637  1.8415 -1.0378 -1.7137
51126SOL    HW259216   7.939  12.004   2.551 -1.5946  3.2248  2.4611
51127SOL     OW59217   2.745   9.673   8.077 -0.5403 -0.3033  0.1490
51127SOL    HW159218   2.727   9.581   8.056  0.7782 -0.6420  0.4003
51127SOL    HW259219   2.813   9.669   8.145 -0.6330  0.8560  0.3264
51128SOL     OW59220   5.804  10.115   2.147  0.0477 -0.3525  0.3008
51128SOL    HW159221   5.843  10.166   2.076 -0.7628  0.6010  0.5059
51128SOL    HW259222   5.710  10.127   2.136 -0.1719 -1.8276  0.3678
51129SOL     OW59223   8.909   5.466   4.210  0.1842  0.0733  0.1278
51129SOL    HW159224   8.822   5.465   4.169 -0.2972 -1.1917  1.1037
51129SOL    HW259225   8.890   5.480   4.303  1.0726  0.1638  0.3010
51130SOL     OW59226   7.570   8.040   1.557 -0.0057  0.1542 -0.3728
51130SOL    HW159227   7.606   7.968   1.608 -0.0559  1.8942  2.3479
51130SOL    HW259228   7.525   7.998   1.483  0.6405 -2.4988  0.6360
51131SOL     OW59229   1.389  11.540   9.741 -0.0052  0.1636 -0.3322
51131SOL    HW159230   1.316  11.500   9.694 -0.5993  0.1717  0.5576
51131SOL    HW259231   1.353  11.561   9.828  1.0817  0.0441  0.1662
51132SOL     OW59232   8.855   8.813  12.291  0.3135  0.4959  0.5342
51132SOL    HW159233   8.777   8.786  12.338  0.0890 -0.5397 -0.3907
51132SOL    HW259234   8.854   8.909  12.294  0.0388  0.4572  2.1474
51133SOL     OW59235  10.586  11.592   8.360 -0.1592 -0.3571 -0.5942
51133SOL    HW159236  10.593  11.618   8.452 -0.6979 -0.1065 -0.6175
51133SOL    HW259237  10.604  11.672   8.311  1.4693 -0.7860 -0.7499
51134SOL     OW59238   4.868   4.261   6.940  0.1310 -0.5852 -0.2099
51134SOL    HW159239   4.826   4.194   6.994  0.7586 -1.6411 -1.0008
51134SOL    HW259240   4.818   4.263   6.859 -0.5669  0.7188  0.2241
51135SOL     OW59241  10.353   9.142  11.703 -0.1112 -0.1863 -0.6423
51135SOL    HW159242  10.395   9.217  11.745 -2.4324  1.7012 -1.4632
51135SOL    HW259243  10.290   9.110  11.768 -1.1505  0.4459 -1.3123
51136SOL     OW59244   1.763  10.824   1.848 -0.2422 -0.3584  0.7890
51136SOL    HW159245   1.700  10.895   1.839  0.5514  0.2791  0.1839
51136SOL    HW259246   1.795  10.832   1.938 -1.3808 -1.0087  1.2757
51137SOL     OW59247   8.929   2.209  10.561  0.1691  0.6681  0.0792
51137SOL    HW159248   8.925   2.226  10.655 -2.6641  4.6754 -0.5181
51137SOL    HW259249   8.846   2.168  10.539  0.7370 -0.0973 -0.7424
51138SOL     OW59250   5.765   5.574   8.859 -0.0260 -0.2545 -0.1215
51138SOL    HW159251   5.705   5.503   8.837  0.1313 -1.1097  1.9970
51138SOL    HW259252   5.839   5.563   8.799  0.2209 -2.2087  0.4826
51139SOL     OW59253   6.117   6.788   1.533  0.6472  0.1563 -0.1232
51139SOL    HW159254   6.153   6.702   1.553  1.1726  0.6571  1.2416
51139SOL    HW259255   6.055   6.773   1.462 -0.2928 -1.5716  0.9949
51140SOL     OW59256  10.665   6.201   1.080  0.0169  0.2227 -0.6058
51140SOL    HW159257  10.579   6.179   1.044  1.7918 -2.8981 -3.5723
51140SOL    HW259258  10.685   6.129   1.141  0.6536  0.7016 -0.2336
51141SOL     OW59259  11.109  10.887  10.793 -0.3661  0.4417 -0.6784
51141SOL    HW159260  11.117  10.825  10.720 -0.3210  0.8024 -0.9815
51141SOL    HW259261  11.154  10.966  10.763  1.8207 -0.1848  0.6340
51142SOL     OW59262   3.127   2.318   7.074  0.2189  0.4943 -0.2252
51142SOL    HW159263   3.130   2.225   7.050 -1.0281  0.0540  1.1779
51142SOL    HW259264   3.136   2.364   6.991 -0.8480 -0.9016 -1.1756
51143SOL     OW59265  11.792   7.786   7.923  0.1439  0.4953  0.0441
51143SOL    HW159266  11.859   7.769   7.857 -0.7329  0.7655 -0.9426
51143SOL    HW259267  11.712   7.802   7.873 -0.2445  2.1120  1.1109
51144SOL     OW59268   5.738   2.714   6.727  0.3019 -0.5048  0.2083
51144SOL    HW159269   5.832   2.696   6.737  0.4884  0.2944 -0.0103
51144SOL    HW259270   5.697   2.627   6.723  0.7693 -0.8921  2.4956
51145SOL     OW59271   1.129   3.222   4.446 -0.0538 -0.2488 -0.1367
51145SOL    HW159272   1.174   3.180   4.520 -0.0282 -1.4320 -0.8048
51145SOL    HW259273   1.197   3.233   4.380 -0.5654 -1.4007 -0.8865
51146SOL     OW59274   0.115   9.212   3.618  0.0166 -0.2010 -0.4661
51146SOL    HW159275   0.092   9.184   3.706 -0.4424 -0.3189 -0.6204
51146SOL    HW259276   0.205   9.245   3.625  0.5108 -1.5375 -0.2383
51147SOL     OW59277   5.808   6.498   2.312 -0.3643 -0.7320  0.2115
51147SOL    HW159278   5.846   6.494   2.399  1.9164  1.2470 -0.5886
51147SOL    HW259279   5.882   6.481   2.253 -0.9797  1.7525 -1.3910
51148SOL     OW59280   9.697   0.147   1.143 -0.4616 -0.0189  1.0501
51148SOL    HW159281   9.733   0.235   1.139  0.0598 -0.2695 -0.8978
51148SOL    HW259282   9.772   0.089   1.130 -1.0698 -0.6834  0.3909
51149SOL     OW59283   4.468   9.016   7.531  0.4368  0.0957 -0.4560
51149SOL    HW159284   4.474   8.947   7.597  0.1687 -1.5308 -2.0533
51149SOL    HW259285   4.374   9.034   7.524  0.5821  1.6384  0.8885
51150SOL     OW59286   0.578   3.939  11.002  0.2788  0.1095  0.0467
51150SOL    HW159287   0.609   4.013  10.951 -0.2579 -0.4891 -1.2157
51150SOL    HW259288   0.530   3.885  10.939 -0.3998 -0.6844  1.1913
51151SOL     OW59289   5.059   2.296   9.042 -0.0356 -0.4140  0.6316
51151SOL    HW159290   5.058   2.223   8.979  0.6406  0.0764  0.0291
51151SOL    HW259291   4.968   2.306   9.069 -0.6310  0.3092 -1.4148
51152SOL     OW59292   3.609   7.542   6.357 -0.1530 -0.4978  0.0114
51152SOL    HW159293   3.589   7.451   6.335  0.5225 -0.5013 -0.6282
51152SOL    HW259294   3.704   7.549   6.342 -0.4109  0.6458 -1.1777
51153SOL     OW59295   6.663   9.741  10.799  0.2014 -0.3630 -0.5560
51153SOL    HW159296   6.664   9.707  10.888 -0.9634 -0.3414 -0.5216
51153SOL    HW259297   6.610   9.679  10.750 -0.1186  0.2294 -0.9797
51154SOL     OW59298   1.340   7.465  11.713 -0.0081  0.6578  0.7185
51154SOL    HW159299   1.360   7.400  11.645  0.0090  0.8704  0.5187
51154SOL    HW259300   1.367   7.423  11.795  1.3923  0.9693  0.4506
51155SOL     OW59301   4.224   5.092   5.991 -0.0818 -0.0321  0.4729
51155SOL    HW159302   4.133   5.117   6.010 -0.8619 -2.4971  0.3077
51155SOL    HW259303   4.254   5.157   5.928 -2.5265 -0.4254 -1.2514
51156SOL     OW59304   1.759   8.988  12.304 -0.4396  0.1666 -0.2583
51156SOL    HW159305   1.745   9.083  12.295 -0.2854  0.2677  0.4695
51156SOL    HW259306   1.679   8.948  12.270 -0.9926  0.6047  0.4951
51157SOL     OW59307   0.061   5.200   5.552  0.5592 -0.5840  0.5563
51157SOL    HW159308   0.149   5.210   5.516  0.2214 -0.1567 -0.1625
51157SOL    HW259309   0.046   5.281   5.601 -0.0159  0.0422 -0.6094
51158SOL     OW59310   6.178   0.263   2.858  0.2419  0.4762 -1.0447
51158SOL    HW159311   6.145   0.175   2.841  0.2412  0.6784 -2.2028
51158SOL    HW259312   6.123   0.320   2.804  1.3645  0.9983 -1.6737
51159SOL     OW59313  10.740   9.390   7.872 -0.0063 -0.4872 -0.4243
51159SOL    HW159314  10.750   9.296   7.886  0.9525 -0.3569 -0.1896
51159SOL    HW259315  10.662   9.414   7.922 -0.3397 -1.1755 -0.6049
51160SOL     OW59316   9.350   2.352   0.208  0.2804 -0.0987  0.2867
51160SOL    HW159317   9.373   2.262   0.230 -0.6115 -0.1117  1.2292
51160SOL    HW259318   9.429   2.403   0.229  0.8480 -0.6612 -0.4099
51161SOL     OW59319   0.802   1.596   9.976 -0.1352 -0.1608 -0.5142
51161SOL    HW159320   0.894   1.604   9.949  0.1139 -0.9372  0.0482
51161SOL    HW259321   0.791   1.665  10.043  0.6230 -1.3119  0.8553
51162SOL     OW59322   9.857   0.593  11.664  0.1603 -0.1885 -0.3768
51162SOL    HW159323   9.906   0.675  11.669 -0.2371  0.0551 -0.4436
51162SOL    HW259324   9.777   0.610  11.714  1.0431 -1.2392  1.4553
51163SOL     OW59325   3.484   9.097   5.029 -0.5481  0.2085 -0.3458
51163SOL    HW159326   3.493   9.013   4.984 -2.9588  0.4708 -1.4727
51163SOL    HW259327   3.508   9.079   5.120  2.4880 -0.8087 -1.2124
51164SOL     OW59328   5.570   2.148   8.173 -0.0128  0.0397  0.4539
51164SOL    HW159329   5.487   2.195   8.168 -0.0135 -0.1171 -1.8634
51164SOL    HW259330   5.545   2.057   8.193 -0.2057  0.3945  1.9638
51165SOL     OW59331   1.646  10.298   0.792 -0.0114 -0.0352 -0.2704
51165SOL    HW159332   1.630  10.386   0.757 -2.7368 -1.0671 -1.9457
51165SOL    HW259333   1.559  10.268   0.820  0.9735 -1.9570  0.9305
51166SOL     OW59334  12.122   6.570  12.218 -0.0887 -0.1377  0.2352
51166SOL    HW159335  12.190   6.637  12.205 -1.5296  1.2303 -0.5870
51166SOL    HW259336  12.170   6.494  12.251  1.6604  1.1967  0.9600
51167SOL     OW59337   9.220   3.579   3.706  0.4308  0.0953  0.6003
51167SOL    HW159338   9.163   3.651   3.681 -0.6768 -0.5945  1.0318
51167SOL    HW259339   9.164   3.521   3.757  1.6478 -0.3864  1.4570
51168SOL     OW59340   7.584   1.967   2.578  0.1770 -0.6671  0.0216
51168SOL    HW159341   7.495   1.934   2.570  0.4028 -1.4300  0.5079
51168SOL    HW259342   7.590   2.038   2.515 -1.1896  0.2997  0.9273
51169SOL     OW59343   5.203   6.095  10.155 -0.2968  0.0265  0.1658
51169SOL    HW159344   5.144   6.090  10.080 -0.1105  0.2674  0.0027
51169SOL    HW259345   5.152   6.139  10.223 -0.1297  0.7352 -0.1524
51170SOL     OW59346   5.501  12.244   1.999  0.4100  0.1570  0.0957
51170SOL    HW159347   5.466  12.192   1.926  0.6395  0.0210  0.0815
51170SOL    HW259348   5.540  12.179   2.058  1.4289  0.3680 -0.3196
51171SOL     OW59349   5.341   2.616   9.858 -0.1478  0.2378 -0.5068
51171SOL    HW159350   5.367   2.700   9.820  0.2908 -0.3913 -1.6518
51171SOL    HW259351   5.268   2.637   9.916 -1.3522  1.1756 -2.2518
51172SOL     OW59352   2.639   1.365   7.410 -0.2585 -0.4120 -0.2799
51172SOL    HW159353   2.665   1.442   7.460  0.6499 -0.8280 -0.0903
51172SOL    HW259354   2.597   1.308   7.474 -0.3161 -0.3667 -0.2772
51173SOL     OW59355   8.730   2.571   8.731  0.0026 -0.9341  0.1465
51173SOL    HW159356   8.694   2.659   8.720 -2.1181 -1.3024  2.9818
51173SOL    HW259357   8.654   2.514   8.736  1.2822 -2.7859 -0.3737
51174SOL     OW59358   7.933   3.920   2.084  0.6057  0.2549  0.2701
51174SOL    HW159359   7.916   4.009   2.116  0.4056  0.5284 -0.5744
51174SOL    HW259360   8.028   3.912   2.083  0.6175  0.3502  0.6457
51175SOL     OW59361   6.145   7.384   4.562 -0.1717  0.6108 -0.1236
51175SOL    HW159362   6.128   7.290   4.566 -1.3687  0.7971 -0.4036
51175SOL    HW259363   6.145   7.405   4.469 -0.6058  0.9898 -0.0442
51176SOL     OW59364   7.986   8.564   6.332 -0.4440  0.1939 -0.2843
51176SOL    HW159365   8.013   8.490   6.278 -0.2882 -0.3246  0.4786
51176SOL    HW259366   7.901   8.537   6.368 -0.2572  0.2701  0.2136
51177SOL     OW59367   4.349   1.986   9.996 -0.6438  0.3980  0.2950
51177SOL    HW159368   4.366   1.910  10.052  0.2985  0.3845  0.0080
51177SOL    HW259369   4.406   2.054  10.031 -0.5889  0.6110 -0.2013
51178SOL     OW59370  11.148   9.124   0.819  0.0717 -0.4357 -0.2233
51178SOL    HW159371  11.063   9.166   0.829  0.1287 -0.3123 -0.2577
51178SOL    HW259372  11.191   9.137   0.904  0.4618  0.4001 -0.5450
51179SOL     OW59373   8.184   1.091   9.401 -0.2646 -0.4312 -0.1353
51179SOL    HW159374   8.113   1.128   9.349 -0.4478  0.3245  0.6211
51179SOL    HW259375   8.223   1.166   9.445 -0.2077 -1.0482  0.9154
51180SOL     OW59376   7.938   5.394   6.356 -0.3581  0.0441 -0.0945
51180SOL    HW159377   8.015   5.420   6.305  0.4030  0.5684  1.2678
51180SOL    HW259378   7.970   5.328   6.417 -1.5178 -1.4905 -1.0744
51181SOL     OW59379  11.311   2.803   9.566 -0.0803  0.3157 -0.7734
51181SOL    HW159380  11.366   2.872   9.602  0.6365  0.5384 -2.2419
51181SOL    HW259381  11.223   2.822   9.599  0.2613  1.4238 -0.4779
51182SOL     OW59382   0.423  12.167   7.032 -0.6119  0.4513  0.6985
51182SOL    HW159383   0.350  12.176   6.972  0.9332 -1.8351 -1.7503
51182SOL    HW259384   0.497  12.207   6.986  0.0308  1.5058  2.5275
51183SOL     OW59385   1.871   7.782   2.060  0.3205 -0.1692  0.1964
51183SOL    HW159386   1.808   7.755   2.127 -1.4920 -1.6571 -1.9397
51183SOL    HW259387   1.927   7.706   2.048  2.7729  1.1932  2.1708
51184SOL     OW59388   7.988   2.691   0.514 -0.4542 -0.2367 -0.0262
51184SOL    HW159389   8.059   2.641   0.555  0.4446  1.5141  0.6657
51184SOL    HW259390   7.911   2.634   0.521  0.5582 -1.5804  0.5566
51185SOL     OW59391  10.973   6.339   3.052 -0.4611 -0.3814 -0.3805
51185SOL    HW159392  10.970   6.249   3.021  0.0013 -0.7341  0.5438
51185SOL    HW259393  10.957   6.392   2.974  2.3207 -1.1519 -1.6067
51186SOL     OW59394   4.726   7.138   1.971 -0.3999 -0.2690 -0.2376
51186SOL    HW159395   4.639   7.165   1.941 -0.5184 -0.3282  0.0507
51186SOL    HW259396   4.749   7.202   2.039 -0.8336 -1.0799  0.7032
51187SOL     OW59397   6.645   2.469   7.323 -0.1275 -0.2049 -0.2272
51187SOL    HW159398   6.586   2.511   7.261  0.2753  0.4485 -0.1835
51187SOL    HW259399   6.683   2.542   7.373  1.2077 -0.5415 -0.6954
51188SOL     OW59400   6.872   9.100   9.364  0.3971 -0.7198  0.3098
51188SOL    HW159401   6.834   9.058   9.442 -0.1139 -0.3771  0.2522
51188SOL    HW259402   6.876   9.030   9.299  3.2406 -1.7366  1.3781
51189SOL     OW59403   9.298   2.181   6.836  0.3465 -0.2726  0.5169
51189SOL    HW159404   9.376   2.195   6.890  0.0148 -1.1644  1.2448
51189SOL    HW259405   9.225   2.184   6.898 -0.1353 -0.2496 -0.0434
51190SOL     OW59406   6.093   6.573   4.903  0.0431 -0.6161  0.1446
51190SOL    HW159407   6.054   6.552   4.818 -0.3403  0.0342  0.1555
51190SOL    HW259408   6.024   6.553   4.967 -0.3057  0.5519  0.1612
51191SOL     OW59409   8.126   2.938   9.315  0.9407 -0.0877 -0.0418
51191SOL    HW159410   8.076   2.887   9.251  0.7981 -0.0359  0.0274
51191SOL    HW259411   8.118   2.889   9.397  0.8757  0.0022  0.0051
51192SOL     OW59412   0.568   5.158   8.726  0.4077 -0.8724 -0.2216
51192SOL    HW159413   0.651   5.205   8.715  1.7755 -3.1042 -0.0158
51192SOL    HW259414   0.584   5.097   8.798 -1.6451 -0.9318  0.2559
51193SOL     OW59415   4.934  10.745   5.347  0.4298 -0.1240 -0.5287
51193SOL    HW159416   4.935  10.801   5.269 -0.4330  0.7402  0.0494
51193SOL    HW259417   5.026  10.731   5.368  0.7951  2.9175  0.5365
51194SOL     OW59418   8.273   2.792   6.226  0.0567 -0.7476  0.2164
51194SOL    HW159419   8.218   2.855   6.273  0.6470 -1.2211  1.6130
51194SOL    HW259420   8.338   2.846   6.181 -0.0594 -0.3094  0.5700
51195SOL     OW59421   3.272   5.130  12.290 -0.0172  0.5471 -0.0608
51195SOL    HW159422   3.264   5.088  12.375 -0.1221 -0.1679 -0.4120
51195SOL    HW259423   3.193   5.182  12.281  0.8819  2.2206  1.0999
51196SOL     OW59424   3.665  12.187   2.800  0.2850  0.4590 -0.0763
51196SOL    HW159425   3.570  12.186   2.806  0.1891  1.4084 -0.9667
51196SOL    HW259426   3.693  12.250   2.866  0.5726 -2.0032  2.3337
51197SOL     OW59427  11.976   0.096  10.878 -0.1943 -0.3224 -0.1823
51197SOL    HW159428  11.961   0.190  10.873  1.8051  0.1766  1.6064
51197SOL    HW259429  12.060   0.082  10.835  0.9002 -0.7752  1.9250
51198SOL     OW59430   6.015   4.316   0.230  0.0615  0.0430 -0.4561
51198SOL    HW159431   6.024   4.351   0.318  0.0416 -0.6014 -0.1921
51198SOL    HW259432   5.955   4.376   0.185 -0.6743 -0.1513  0.2557
51199SOL     OW59433  11.075   7.382  10.896 -0.4925 -0.3710 -0.0069
51199SOL    HW159434  11.056   7.317  10.964 -1.0902 -2.1211 -1.7552
51199SOL    HW259435  11.031   7.349  10.818 -1.5732  2.5993 -0.8047
51200SOL     OW59436   0.694   7.774  10.267 -0.1809  0.2847 -0.1820
51200SOL    HW159437   0.633   7.817  10.327 -0.8336 -0.1904 -0.4975
51200SOL    HW259438   0.652   7.781  10.181  0.2223 -0.0277 -0.4088
51201SOL     OW59439   0.288   1.316   9.503 -0.0511  0.4901 -0.1433
51201SOL    HW159440   0.297   1.325   9.598  2.8870 -1.3427 -0.1038
51201SOL    HW259441   0.265   1.224   9.490 -0.1534  0.6576 -1.2274
51202SOL     OW59442  12.140  10.659   4.955 -0.2439 -0.4225  0.3895
51202SOL    HW159443  12.138  10.743   4.909 -0.5429  0.2206  1.5387
51202SOL    HW259444  12.061  10.614   4.926 -0.3870 -0.0612  0.2155
51203SOL     OW59445   3.613  10.737   4.050 -0.6009 -0.1319 -0.0339
51203SOL    HW159446   3.616  10.761   4.143  0.1065 -0.0663 -0.0671
51203SOL    HW259447   3.682  10.789   4.009 -1.0522  0.0032 -0.6418
51204SOL     OW59448  12.099   9.228   0.821 -0.3120  0.1939 -0.1347
51204SOL    HW159449  12.040   9.153   0.809 -0.7871  0.4251  0.6576
51204SOL    HW259450  12.048   9.290   0.873 -0.5483  1.7867 -2.1313
51205SOL     OW59451   2.031   6.122  10.523  0.7854 -0.5573  0.0195
51205SOL    HW159452   2.048   6.134  10.616 -0.5742  0.0032  0.2216
51205SOL    HW259453   1.943   6.158  10.510  0.4266 -1.8000 -1.2225
51206SOL     OW59454   5.519   8.775   7.056 -0.7008  0.4151 -0.2048
51206SOL    HW159455   5.573   8.724   6.995 -1.4476  1.3178 -1.6734
51206SOL    HW259456   5.575   8.850   7.079 -0.6951  0.4818 -0.4226
51207SOL     OW59457   1.512   9.618   5.984  0.5235 -0.0866  0.0802
51207SOL    HW159458   1.514   9.651   6.073 -3.7415 -0.4798  0.5143
51207SOL    HW259459   1.540   9.526   5.992 -0.9993 -0.4908  1.3245
51208SOL     OW59460  10.920   9.308   6.284 -0.4746  0.1608 -0.1049
51208SOL    HW159461  10.860   9.235   6.296 -1.2688  0.6711 -0.7821
51208SOL    HW259462  10.874   9.383   6.324  1.5437 -0.1873  3.1666
51209SOL     OW59463  11.426   2.759  12.207  0.4910  0.1708 -0.0872
51209SOL    HW159464  11.499   2.757  12.145  0.3867 -0.2371 -0.2021
51209SOL    HW259465  11.366   2.824  12.170  0.6104  0.2171 -0.2032
51210SOL     OW59466  10.431   9.463   0.820  0.6381  0.1695  0.7238
51210SOL    HW159467  10.446   9.525   0.748 -0.2216 -1.4040 -0.9061
51210SOL    HW259468  10.370   9.509   0.879  0.5596  1.1353 -0.0809
51211SOL     OW59469  10.594   4.426   5.103  0.4811 -0.2542 -0.0723
51211SOL    HW159470  10.560   4.413   5.192 -0.2606  1.0053 -0.1403
51211SOL    HW259471  10.551   4.358   5.051 -0.8086  0.3762  0.1320
51212SOL     OW59472   2.244   5.812   9.242  0.5334 -0.3229  0.1403
51212SOL    HW159473   2.226   5.882   9.304 -1.0640 -0.3802 -0.2281
51212SOL    HW259474   2.261   5.858   9.159  1.7809 -0.2909  0.3889
51213SOL     OW59475   4.350   1.763  10.446 -0.1204 -0.6169 -0.0207
51213SOL    HW159476   4.270   1.803  10.411  0.1423 -0.2679 -0.2261
51213SOL    HW259477   4.384   1.828  10.507 -0.5920 -1.2304  0.9374
51214SOL     OW59478   7.104   7.184   7.589  0.0208  0.3140 -0.3957
51214SOL    HW159479   7.155   7.232   7.655 -1.5732  0.4035  0.8389
51214SOL    HW259480   7.138   7.215   7.505  2.1665  0.1506  0.3489
51215SOL     OW59481   7.985   3.004   3.922 -0.5288 -0.4962 -0.1729
51215SOL    HW159482   8.047   3.067   3.959  0.2593 -1.6584  0.5630
51215SOL    HW259483   7.899   3.032   3.954 -0.0783 -0.3440  0.9354
51216SOL     OW59484   7.439   1.318   5.251  0.0857  0.0234 -0.2671
51216SOL    HW159485   7.415   1.408   5.228  0.6503 -0.0312 -1.1291
51216SOL    HW259486   7.402   1.264   5.181  1.3538 -0.2146 -0.7739
51217SOL     OW59487   4.751   1.343  10.321 -0.2784 -0.5718  0.4144
51217SOL    HW159488   4.757   1.311  10.411  0.1186  0.8644  0.9180
51217SOL    HW259489   4.670   1.304  10.287 -0.0331 -1.7429  1.1221
51218SOL     OW59490   5.535   0.452   9.863 -0.1064 -0.6078  0.1350
51218SOL    HW159491   5.518   0.399   9.940 -0.0144 -0.0257  0.5609
51218SOL    HW259492   5.607   0.509   9.888  0.5767 -1.0825 -0.7046
51219SOL     OW59493  11.291   3.238   9.134  0.2544 -0.1089 -0.1586
51219SOL    HW159494  11.272   3.162   9.190 -0.1462  0.6554  0.7761
51219SOL    HW259495  11.230   3.305   9.164 -0.7434 -0.0012 -2.2675
51220SOL     OW59496   2.122   0.538   4.588 -0.5869  0.1168  0.0929
51220SOL    HW159497   2.161   0.500   4.667  0.4214  1.2371  0.1729
51220SOL    HW259498   2.146   0.477   4.519  0.3601  0.1992  0.3303
51221SOL     OW59499   4.786   2.816   9.598 -0.1555 -0.2617 -0.0272
51221SOL    HW159500   4.845   2.852   9.532  1.7830 -0.6547  1.4188
51221SOL    HW259501   4.721   2.885   9.611  1.1921  1.0899 -0.1742
51222SOL     OW59502   7.121   3.551   5.510  0.9273  0.4364  0.1770
51222SOL    HW159503   7.147   3.632   5.553  1.5910  0.9228 -1.0984
51222SOL    HW259504   7.052   3.516   5.566  1.9553  0.8639  1.8077
51223SOL     OW59505   1.813   6.470   4.636  0.4570 -0.3924  0.3485
51223SOL    HW159506   1.803   6.398   4.574  2.6591  0.0043 -0.5465
51223SOL    HW259507   1.889   6.445   4.690 -0.7433 -0.2289  2.2277
51224SOL     OW59508   6.133   0.428   5.514 -0.5578 -0.1768  0.4899
51224SOL    HW159509   6.038   0.427   5.525 -0.5067 -1.5134  0.9842
51224SOL    HW259510   6.147   0.446   5.421 -1.2916 -0.2961  0.3579
51225SOL     OW59511   4.520   6.959   7.406  0.4809 -0.7092 -0.3563
51225SOL    HW159512   4.436   7.004   7.412  0.4151 -0.7449 -1.0205
51225SOL    HW259513   4.585   7.029   7.409  0.4140 -0.6484 -0.3180
51226SOL     OW59514   1.700   1.100   0.548 -0.0996 -0.1163 -0.2095
51226SOL    HW159515   1.770   1.044   0.514  1.5388  0.6806  1.6862
51226SOL    HW259516   1.740   1.186   0.558 -1.8324  0.7749 -0.5798
51227SOL     OW59517  11.754   8.395   5.731  0.1723 -0.1916  0.1179
51227SOL    HW159518  11.795   8.396   5.817  0.8555 -0.4427 -0.1935
51227SOL    HW259519  11.768   8.483   5.697  0.4270 -0.2623  0.0325
51228SOL     OW59520   4.484   1.751   9.384 -0.5070  0.3855  0.2588
51228SOL    HW159521   4.473   1.656   9.389 -0.7689  0.4758  1.8190
51228SOL    HW259522   4.408   1.781   9.333  0.7372 -0.3903 -2.2426
51229SOL     OW59523  12.173   3.580  11.584  0.1804  0.2738  0.4710
51229SOL    HW159524  12.088   3.622  11.597  0.4320  0.8850  0.1871
51229SOL    HW259525  12.155   3.486  11.591 -1.3743  0.0287 -4.0008
51230SOL     OW59526  11.688   1.941   2.866 -0.0246 -0.9257 -0.3674
51230SOL    HW159527  11.671   2.034   2.848 -1.1091 -1.6303 -3.6304
51230SOL    HW259528  11.613   1.895   2.830  1.9984 -3.2675 -1.8983
51231SOL     OW59529   6.023   3.854   0.721 -0.2921  0.2630  0.0886
51231SOL    HW159530   6.108   3.884   0.690 -0.5364  0.1345 -0.7211
51231SOL    HW259531   5.967   3.932   0.718 -0.2592  0.3048  0.4456
51232SOL     OW59532   8.797   3.302   1.864  0.1027  0.2776 -1.0307
51232SOL    HW159533   8.860   3.256   1.920  1.4642  1.2350 -1.7201
51232SOL    HW259534   8.739   3.233   1.832  0.7936 -0.6348 -0.3872
51233SOL     OW59535   3.514   1.934   8.174  0.2036 -0.2171  0.4540
51233SOL    HW159536   3.526   1.843   8.199 -0.4817 -0.8485 -1.3298
51233SOL    HW259537   3.581   1.949   8.106 -0.0323  0.4395  0.3613
51234SOL     OW59538   4.058  11.909   2.948  0.4568  0.2843  0.2059
51234SOL    HW159539   4.100  11.991   2.922  1.2586  0.1935  1.1643
51234SOL    HW259540   4.073  11.850   2.874 -0.6767  1.1620 -0.7645
51235SOL     OW59541  10.240   0.465   2.274  0.0420  0.1757 -0.6740
51235SOL    HW159542  10.282   0.471   2.360  1.3562 -0.7367 -1.2174
51235SOL    HW259543  10.296   0.517   2.216  0.4346 -1.0008 -1.4002
51236SOL     OW59544   5.926   1.936   4.492  0.1746 -0.2112  0.5200
51236SOL    HW159545   5.869   2.008   4.519 -0.8603 -1.2665  1.2102
51236SOL    HW259546   6.014   1.967   4.515 -0.0139  1.5622 -0.8557
51237SOL     OW59547   6.707   3.365   2.323 -0.0669  0.3091 -0.3794
51237SOL    HW159548   6.686   3.400   2.410 -1.3723 -0.0113 -0.5415
51237SOL    HW259549   6.688   3.437   2.263 -2.1738 -0.3973 -0.6558
51238SOL     OW59550   2.521   4.611   3.880 -0.1368 -0.1326 -0.0943
51238SOL    HW159551   2.433   4.611   3.917  0.6619 -0.1486  1.9305
51238SOL    HW259552   2.577   4.578   3.951  1.4370 -0.6270 -1.5025
51239SOL     OW59553   4.126   2.778   7.890  0.2581  0.4842 -0.1978
51239SOL    HW159554   4.044   2.820   7.863 -0.6021 -0.8139  0.3128
51239SOL    HW259555   4.132   2.798   7.984 -0.8475 -1.5235  0.3717
51240SOL     OW59556   7.690   0.466   1.769 -0.0621  0.2713 -0.1004
51240SOL    HW159557   7.604   0.470   1.810 -0.3339 -0.0749 -0.6148
51240SOL    HW259558   7.730   0.387   1.805  0.4945  1.0384  0.9856
51241SOL     OW59559  11.215  10.002   3.691 -0.7512  0.5872 -0.1606
51241SOL    HW159560  11.241   9.959   3.772 -1.2696 -0.0780 -0.3351
51241SOL    HW259561  11.290   9.992   3.632 -1.5687 -1.9333 -0.9025
51242SOL     OW59562   0.707   6.008   2.050  0.2843  0.2347 -0.3371
51242SOL    HW159563   0.788   6.047   2.017  1.1506 -1.4344 -0.2922
51242SOL    HW259564   0.699   5.925   2.002 -1.8212  0.6948 -0.8923
51243SOL     OW59565   8.096  10.833   2.223 -0.1729  0.3696 -0.2947
51243SOL    HW159566   8.074  10.742   2.241 -0.0058  0.5430  0.8369
51243SOL    HW259567   8.066  10.881   2.300  2.6272  0.8452  0.6306
51244SOL     OW59568   9.576   6.627   6.358  0.3953  0.0504  0.3830
51244SOL    HW159569   9.535   6.549   6.396 -0.2657  0.2925  0.1783
51244SOL    HW259570   9.521   6.649   6.283  0.5436  0.7409  0.4708
51245SOL     OW59571   7.885   9.513   6.638  0.2916 -0.3373  0.7466
51245SOL    HW159572   7.813   9.573   6.659  0.1736  0.7415 -2.2014
51245SOL    HW259573   7.856   9.468   6.559  2.0796 -1.3013  0.5921
51246SOL     OW59574   6.274   1.165   3.978  0.0744 -0.0306 -0.0223
51246SOL    HW159575   6.255   1.175   3.885  1.9115 -0.8445 -0.5298
51246SOL    HW259576   6.292   1.255   4.008  1.7201  0.0132 -1.0167
51247SOL     OW59577  11.771  11.010   3.117  0.3147 -0.4413  0.1583
51247SOL    HW159578  11.773  11.077   3.048  0.5510  0.8858  1.3985
51247SOL    HW259579  11.731  11.055   3.192 -2.0633 -2.5025  0.2493
51248SOL     OW59580   8.291   9.711   6.235  0.4805  0.1824 -0.3398
51248SOL    HW159581   8.237   9.725   6.313  0.7052  2.6284 -0.5191
51248SOL    HW259582   8.228   9.700   6.164  0.2592 -0.1490 -0.0971
51249SOL     OW59583   9.151   5.867   0.769  0.5406  0.1912  0.7892
51249SOL    HW159584   9.212   5.927   0.811 -0.5312  0.4252  2.0792
51249SOL    HW259585   9.207   5.805   0.722  1.8180 -0.0436  2.5078
51250SOL     OW59586   7.149   7.837  10.815  0.3061  0.3201  0.0173
51250SOL    HW159587   7.197   7.869  10.892  3.6015 -0.0752 -1.6596
51250SOL    HW259588   7.111   7.754  10.843 -0.7811  1.3668  1.8720
51251SOL     OW59589   7.961   2.165   1.935 -0.4504 -0.9685  0.3357
51251SOL    HW159590   7.924   2.250   1.911 -0.7166 -1.5441 -1.4517
51251SOL    HW259591   8.055   2.175   1.920  0.2768  0.3801  4.5341
51252SOL     OW59592   9.261   4.387   1.386 -0.8030  0.2631 -0.0863
51252SOL    HW159593   9.282   4.466   1.435 -0.6271  0.0396  0.2003
51252SOL    HW259594   9.341   4.335   1.390 -0.7289  0.3231 -0.7644
51253SOL     OW59595   4.216   2.635   4.437 -0.0134  0.3541 -0.3257
51253SOL    HW159596   4.304   2.617   4.469  0.1748  2.2032  0.2906
51253SOL    HW259597   4.161   2.631   4.515 -0.7316 -2.0024 -0.8786
51254SOL     OW59598   4.326   5.875   3.942  0.1080 -0.5232  0.2699
51254SOL    HW159599   4.302   5.837   4.026 -0.2264 -0.8472  0.0296
51254SOL    HW259600   4.245   5.874   3.891 -0.6552  2.9762  1.1462
51255SOL     OW59601   0.752  10.504   2.457 -0.1854  0.4567  0.1152
51255SOL    HW159602   0.703  10.463   2.386 -1.3729 -2.0010  2.2250
51255SOL    HW259603   0.686  10.526   2.523  1.1836 -0.1168  1.7461
51256SOL     OW59604   2.144   2.553  11.886 -0.4534 -0.3384  0.1121
51256SOL    HW159605   2.191   2.498  11.823 -0.0099 -0.0636  0.2078
51256SOL    HW259606   2.212   2.599  11.935 -0.8095  1.5072 -1.0254
51257SOL     OW59607   5.363   5.339   3.846  0.5080  0.6489 -0.0611
51257SOL    HW159608   5.274   5.305   3.854 -0.1809  2.3079 -0.1886
51257SOL    HW259609   5.416   5.264   3.821 -0.9051 -0.3105 -0.2666
51258SOL     OW59610   9.093   6.601   0.264 -0.4173 -0.2551  0.3142
51258SOL    HW159611   9.143   6.683   0.261  0.8047 -0.8830  2.0050
51258SOL    HW259612   9.004   6.627   0.284 -0.2388  0.7144 -0.1065
51259SOL     OW59613  10.164  11.940  11.801 -0.0448  0.2921  0.2530
51259SOL    HW159614  10.100  11.953  11.872 -0.1934 -0.4231  0.2540
51259SOL    HW259615  10.249  11.956  11.843 -0.2140  1.2924  0.2413
51260SOL     OW59616  11.203   8.148   5.372 -0.2813  0.6324  0.4297
51260SOL    HW159617  11.161   8.136   5.457 -0.6854  1.0647  0.2914
51260SOL    HW259618  11.139   8.118   5.309 -0.7839  2.2105  0.1571
51261SOL     OW59619   7.698   3.016  11.831  0.3298 -0.0313 -0.2689
51261SOL    HW159620   7.603   3.025  11.825  0.0845 -1.2523  1.0557
51261SOL    HW259621   7.711   2.947  11.897  2.1180 -0.4731 -1.0232
51262SOL     OW59622   6.446   6.029  10.768 -0.6663 -0.3001  0.2309
51262SOL    HW159623   6.372   6.089  10.757 -0.0119  0.5838  0.5151
51262SOL    HW259624   6.515   6.067  10.714  0.0021 -0.3892  1.0041
51263SOL     OW59625   5.575   7.101  12.132  0.2990 -0.6358 -0.0710
51263SOL    HW159626   5.643   7.060  12.078  2.7866  0.7962  1.7420
51263SOL    HW259627   5.530   7.028  12.174  1.3728 -1.6295 -0.5832
51264SOL     OW59628   5.319   3.428   4.804  0.4889  0.1545  0.4436
51264SOL    HW159629   5.281   3.500   4.855 -0.9813  1.2997 -2.0387
51264SOL    HW259630   5.252   3.359   4.807  0.2255  0.3735 -0.1871
51265SOL     OW59631   2.853   4.884  10.694 -0.0381  0.2754  0.1568
51265SOL    HW159632   2.794   4.893  10.769 -0.8545  1.5305 -0.6014
51265SOL    HW259633   2.932   4.843  10.730 -0.9680 -0.4855  1.3988
51266SOL     OW59634   5.191   9.373   9.490 -0.0800  0.4198  0.0425
51266SOL    HW159635   5.210   9.467   9.489 -2.6742  1.1210 -3.2670
51266SOL    HW259636   5.245   9.337   9.419 -0.1758 -0.3451  0.3421
51267SOL     OW59637   9.166   4.331   6.183  0.7813  0.0352 -0.5359
51267SOL    HW159638   9.171   4.400   6.117  0.4813  0.5487 -0.0337
51267SOL    HW259639   9.211   4.368   6.260  0.3918 -0.2239 -0.1784
51268SOL     OW59640   5.486   4.306   7.589 -0.6825 -0.1445 -0.3594
51268SOL    HW159641   5.510   4.221   7.552 -0.7694  0.8727 -3.0037
51268SOL    HW259642   5.551   4.322   7.657  0.3571 -1.5574 -0.9700
51269SOL     OW59643   8.982   3.803  11.022 -0.1388 -0.1356  0.3692
51269SOL    HW159644   8.999   3.763  10.937  0.4521  1.2106 -0.1844
51269SOL    HW259645   8.933   3.737  11.070  1.0098 -1.6151 -0.3784
51270SOL     OW59646   9.283   4.125   5.603  0.3344  0.0399  0.2186
51270SOL    HW159647   9.310   4.074   5.679  1.9083  2.1808  1.2267
51270SOL    HW259648   9.296   4.216   5.630 -0.8866  0.9375 -1.9797
51271SOL     OW59649   0.215  11.784  11.832 -0.3740  0.1758  0.0389
51271SOL    HW159650   0.226  11.865  11.783  0.3812  0.7601  1.1408
51271SOL    HW259651   0.132  11.794  11.877  0.1076  0.6918  0.8192
51272SOL     OW59652   0.649   4.936   6.372 -0.2971  0.7447 -0.2775
51272SOL    HW159653   0.716   4.949   6.305 -0.3706  2.8585  0.0003
51272SOL    HW259654   0.692   4.961   6.454  0.0965 -2.6905  0.7207
51273SOL     OW59655  10.702   9.078   8.400  0.5761  0.3299  0.0916
51273SOL    HW159656  10.768   9.030   8.449 -0.3661 -0.4916  0.5826
51273SOL    HW259657  10.749   9.116   8.326  1.5683 -0.3141  0.3907
51274SOL     OW59658   7.808   8.516   2.175 -0.2632  0.1745  0.1677
51274SOL    HW159659   7.758   8.564   2.108  1.3686 -0.5995 -1.6874
51274SOL    HW259660   7.899   8.524   2.148  0.2890 -1.7727  1.2676
51275SOL     OW59661  10.493   4.506  11.811  0.2940 -0.7187  0.7066
51275SOL    HW159662  10.437   4.435  11.779  0.3611 -0.4067 -0.1245
51275SOL    HW259663  10.527   4.474  11.895 -0.7847 -1.0822  1.0160
51276SOL     OW59664   3.592   3.376   5.477 -0.4194  0.2161 -0.3474
51276SOL    HW159665   3.638   3.440   5.530 -1.0561 -0.1250  0.6356
51276SOL    HW259666   3.647   3.297   5.482 -0.1349  0.3856 -0.7570
51277SOL     OW59667   7.181   0.712   8.735  0.4655 -0.2966 -0.3722
51277SOL    HW159668   7.237   0.787   8.754 -0.6767 -0.1966  3.3310
51277SOL    HW259669   7.094   0.749   8.721  0.2284 -0.8152 -0.3214
51278SOL     OW59670   4.868   7.926   0.327 -0.5688  0.7286 -0.3440
51278SOL    HW159671   4.849   7.894   0.239  2.1727 -2.1199 -0.0859
51278SOL    HW259672   4.933   7.995   0.315  0.2201 -0.0383 -0.5747
51279SOL     OW59673  11.057   7.312   2.938  0.2922  0.0186 -0.1182
51279SOL    HW159674  11.057   7.403   2.911 -0.2463  0.8584  2.4122
51279SOL    HW259675  11.102   7.312   3.023 -0.2734 -1.9537  0.2466
51280SOL     OW59676   8.087   7.829   8.155  0.0423 -0.2501  0.0018
51280SOL    HW159677   8.146   7.901   8.131 -0.2217  0.4424  1.3292
51280SOL    HW259678   8.087   7.829   8.251 -1.2957 -0.9130  0.0272
51281SOL     OW59679   6.210   0.874   7.970 -0.0396 -0.0412 -0.5755
51281SOL    HW159680   6.133   0.907   8.017  0.4474 -1.3566  1.2229
51281SOL    HW259681   6.276   0.860   8.037  1.0991 -0.8874 -1.8093
51282SOL     OW59682   7.806   1.523   4.762 -0.4101 -0.2955 -0.2001
51282SOL    HW159683   7.854   1.478   4.831 -1.0124 -0.4696  0.1070
51282SOL    HW259684   7.871   1.537   4.693 -0.1401 -1.3553 -0.1779
51283SOL     OW59685  11.913  11.067  10.540  0.0960 -0.2845 -0.1641
51283SOL    HW159686  11.856  11.051  10.465  1.0698  1.1649 -1.2770
51283SOL    HW259687  11.862  11.041  10.616 -1.7963  0.3675 -1.1601
51284SOL     OW59688   0.160   6.068   4.466 -0.2359 -0.3658  0.6967
51284SOL    HW159689   0.208   5.998   4.421  1.6328  0.7007  0.9257
51284SOL    HW259690   0.069   6.038   4.467  0.1155 -1.7058 -1.2820
51285SOL     OW59691  10.512   1.388   1.754  0.1094 -0.2422 -0.7242
51285SOL    HW159692  10.572   1.462   1.749  2.5220 -2.1400 -2.3810
51285SOL    HW259693  10.425   1.427   1.749  1.2104  2.5352 -0.0609
51286SOL     OW59694   6.109   7.039   3.247  0.3663 -0.2768 -0.3525
51286SOL    HW159695   6.146   7.042   3.335 -0.3420  0.4427 -0.0686
51286SOL    HW259696   6.045   7.110   3.246 -1.7614 -2.1123 -0.4706
51287SOL     OW59697   4.872   9.706   2.569 -0.0875  0.3353 -0.2718
51287SOL    HW159698   4.795   9.654   2.591  0.1469 -0.0271 -0.2851
51287SOL    HW259699   4.944   9.642   2.565  0.5599  0.8889  1.4972
51288SOL     OW59700   5.373   3.041  11.481 -0.0830  0.1432  0.2389
51288SOL    HW159701   5.364   2.996  11.397 -0.0141  0.6033 -0.0152
51288SOL    HW259702   5.293   3.018  11.528 -0.2983  0.1889 -0.0995
51289SOL     OW59703   8.456   3.560  11.231  0.3976  0.3835 -0.5869
51289SOL    HW159704   8.378   3.550  11.177  1.2552  0.4000 -1.8824
51289SOL    HW259705   8.522   3.597  11.172  1.4784  0.1016  0.3920
51290SOL     OW59706   4.618   5.158  10.615  0.9670  0.3891 -0.2289
51290SOL    HW159707   4.597   5.246  10.646  2.2982  0.9966 -0.9979
51290SOL    HW259708   4.664   5.117  10.689  1.0021  0.5942 -0.1339
51291SOL     OW59709   8.246   9.143   6.135 -0.1323 -0.6574 -0.0257
51291SOL    HW159710   8.217   9.053   6.146  0.5571 -0.6176  3.0025
51291SOL    HW259711   8.185   9.194   6.188  0.7793  0.3763  0.0575
51292SOL     OW59712   2.940   5.780   8.475  0.2114 -0.6698 -0.3584
51292SOL    HW159713   2.933   5.690   8.504  1.0551 -0.7956 -0.5292
51292SOL    HW259714   3.024   5.810   8.508 -1.3184  1.0548  2.3989
51293SOL     OW59715   7.048   7.121   8.119  0.4445 -0.1234 -0.1968
51293SOL    HW159716   6.991   7.129   8.196  2.4927 -0.8957  1.5114
51293SOL    HW259717   7.089   7.207   8.110  0.9642 -0.3237  0.2231
51294SOL     OW59718   7.787   8.652   6.147 -0.3430 -0.1133  0.0888
51294SOL    HW159719   7.869   8.660   6.194 -0.6220 -1.5533  0.8776
51294SOL    HW259720   7.797   8.709   6.071  1.4821 -0.4549  0.0280
51295SOL     OW59721  10.718   2.626   0.370  0.1817 -0.2326 -0.1264
51295SOL    HW159722  10.679   2.713   0.379 -1.0100 -0.6832 -0.7884
51295SOL    HW259723  10.812   2.643   0.365  0.0368  0.9404  0.6707
51296SOL     OW59724   6.625   2.023   9.333 -0.0820 -0.2754  0.1539
51296SOL    HW159725   6.701   1.970   9.312  0.8630  0.8702  0.5802
51296SOL    HW259726   6.588   1.983   9.412  0.6161 -0.3035  0.4711
51297SOL     OW59727  10.515  11.828  11.383 -0.3567  0.0564  0.1808
51297SOL    HW159728  10.550  11.753  11.335 -2.3395 -1.3799  0.8657
51297SOL    HW259729  10.487  11.890  11.316  1.1059  0.1440 -0.3903
51298SOL     OW59730   9.534   0.125   9.830 -0.0170  0.6144 -0.0512
51298SOL    HW159731   9.460   0.138   9.770  0.9168  1.9478 -0.9578
51298SOL    HW259732   9.500   0.152   9.915 -0.8517  0.2751 -0.2545
51299SOL     OW59733   5.421   3.541   1.047 -0.4105  0.2171  0.3432
51299SOL    HW159734   5.416   3.458   1.096 -0.0389  1.0569  1.8835
51299SOL    HW259735   5.497   3.530   0.990 -0.9345 -0.8452 -0.1959
51300SOL     OW59736   1.233   3.711  10.024  0.7930  0.1351 -0.5031
51300SOL    HW159737   1.288   3.678   9.953 -0.4405  0.0811 -1.4754
51300SOL    HW259738   1.203   3.632  10.070  2.5982  0.2092  0.9310
51301SOL     OW59739   4.574   1.158  11.531  0.4878 -0.0183 -0.0907
51301SOL    HW159740   4.650   1.157  11.472  0.1768 -0.3261 -0.4895
51301SOL    HW259741   4.499   1.150  11.473  0.1663 -0.0929  0.3336
51302SOL     OW59742   6.387   6.394   1.114 -0.3716 -0.3022  0.4888
51302SOL    HW159743   6.306   6.344   1.120 -0.2297 -0.4357  1.3091
51302SOL    HW259744   6.385   6.452   1.190 -0.7070  1.2156 -0.6365
51303SOL     OW59745  10.999  11.097   8.299 -0.3492  0.3291  0.4583
51303SOL    HW159746  10.986  11.004   8.317  1.0631  0.2103  0.9860
51303SOL    HW259747  10.940  11.116   8.225  1.0007 -1.5402 -1.1926
51304SOL     OW59748   8.129   8.078   6.780 -0.3988  0.2639  0.1855
51304SOL    HW159749   8.119   8.165   6.741  1.6308  0.6081  0.3405
51304SOL    HW259750   8.222   8.072   6.802 -0.4058 -2.1093 -0.1948
51305SOL     OW59751  10.245   4.614   8.425 -0.1596 -0.5279 -0.1875
51305SOL    HW159752  10.304   4.663   8.368  0.1469 -0.8193 -0.1285
51305SOL    HW259753  10.190   4.564   8.365 -0.1336 -0.4952 -0.2379
51306SOL     OW59754   4.472   7.302   5.165  0.5735 -0.4614 -0.7228
51306SOL    HW159755   4.399   7.316   5.225  1.2234 -2.0613  0.5219
51306SOL    HW259756   4.544   7.353   5.201  1.0961 -1.7747  0.1940
51307SOL     OW59757  12.326   1.019   7.458 -0.1696 -0.1565 -0.1804
51307SOL    HW159758  12.362   0.980   7.379  1.8110  1.1783  0.0031
51307SOL    HW259759  12.252   1.072   7.428  1.9146  2.1879 -1.5708
51308SOL     OW59760   3.619  10.657   6.191 -0.0387 -0.0528  0.2614
51308SOL    HW159761   3.560  10.728   6.164 -1.2622 -0.6493  1.2682
51308SOL    HW259762   3.603  10.587   6.129 -0.8750 -0.4425  0.8999
51309SOL     OW59763   4.435   9.763   1.688 -0.2740 -0.0615 -0.3768
51309SOL    HW159764   4.519   9.810   1.688 -0.4047  0.2396 -2.1470
51309SOL    HW259765   4.375   9.823   1.732 -0.0321  0.6779 -1.0262
51310SOL     OW59766   5.961   3.131   9.450 -0.5228 -0.2209 -0.5222
51310SOL    HW159767   6.002   3.213   9.423  0.7438 -0.2193  1.2454
51310SOL    HW259768   5.979   3.070   9.378  0.2262  0.5261 -0.9882
51311SOL     OW59769   7.151   8.644  10.285  0.5716 -0.3240 -0.1493
51311SOL    HW159770   7.165   8.595  10.204  1.1830  0.1004 -0.3102
51311SOL    HW259771   7.182   8.585  10.354  1.5623 -0.0855 -0.3621
51312SOL     OW59772   9.942   9.118   6.216  0.5070  0.2488  0.3540
51312SOL    HW159773   9.965   9.151   6.302 -1.0758 -0.5496  1.1167
51312SOL    HW259774   9.886   9.185   6.178  0.5633  0.2404  0.2530
51313SOL     OW59775   5.078   3.150  10.796  0.2208  0.4490 -0.3131
51313SOL    HW159776   5.161   3.184  10.762 -0.1302  1.5055 -0.1653
51313SOL    HW259777   5.054   3.080  10.735  1.7357 -0.5998  0.2537
51314SOL     OW59778   9.540   3.705   5.063  0.2833 -0.7789  0.5249
51314SOL    HW159779   9.575   3.762   5.131  0.0063 -0.9490  0.8128
51314SOL    HW259780   9.564   3.617   5.091 -0.3182 -0.8944  0.6974
51315SOL     OW59781   5.779   7.326   5.466 -0.3775 -0.5394 -0.0793
51315SOL    HW159782   5.860   7.355   5.508 -0.7381 -0.2051  0.3743
51315SOL    HW259783   5.714   7.325   5.535 -0.7286 -0.9912 -0.4051
51316SOL     OW59784   1.460   1.583   3.534 -0.8799  0.4569 -0.5902
51316SOL    HW159785   1.384   1.564   3.589  0.3669 -0.7610  0.7942
51316SOL    HW259786   1.529   1.607   3.595  0.1964  0.3372 -1.7153
51317SOL     OW59787   6.480  10.756  11.115 -0.1603  0.2766  0.0169
51317SOL    HW159788   6.505  10.814  11.043  0.3139  0.6373  0.4623
51317SOL    HW259789   6.410  10.802  11.160  0.7457  0.8735  0.8354
51318SOL     OW59790   7.033   2.464  11.619 -0.1093  0.1640  0.4761
51318SOL    HW159791   7.099   2.502  11.678  0.4232 -0.7654  0.4938
51318SOL    HW259792   7.030   2.525  11.545 -0.2506  0.9536  1.1269
51319SOL     OW59793   9.780   6.041   4.314 -0.4248  0.6444  0.4022
51319SOL    HW159794   9.875   6.030   4.318 -0.4296  0.4705  4.5750
51319SOL    HW259795   9.767   6.136   4.326 -0.7853  0.6211  0.1991
51320SOL     OW59796   6.418   1.820   3.899 -0.8001 -0.0296  0.0453
51320SOL    HW159797   6.353   1.886   3.874 -0.0867  0.2563 -1.1344
51320SOL    HW259798   6.500   1.851   3.861 -0.3547 -1.3478 -0.1224
51321SOL     OW59799   7.185   0.521   2.312  0.1619  0.5361  0.5376
51321SOL    HW159800   7.093   0.496   2.316  0.1712  0.4788  0.3818
51321SOL    HW259801   7.196   0.583   2.385 -0.1475  1.0229  0.1798
51322SOL     OW59802  11.196   4.433   1.412 -0.0660  0.0894 -0.1508
51322SOL    HW159803  11.288   4.458   1.414 -0.0221  0.1503 -1.6811
51322SOL    HW259804  11.150   4.507   1.452  0.5482  0.0003  0.7434
51323SOL     OW59805   5.753   8.363   7.564 -0.2505  0.2618  0.0532
51323SOL    HW159806   5.727   8.386   7.475 -0.5716  0.5264  0.2061
51323SOL    HW259807   5.765   8.448   7.607  0.5648  0.1381  0.0793
51324SOL     OW59808   2.925  12.269   8.855  0.0799  0.1022  0.0084
51324SOL    HW159809   2.833  12.276   8.878 -0.0860 -1.3222 -0.1595
51324SOL    HW259810   2.968  12.239   8.935  0.0888 -1.0966 -0.4237
51325SOL     OW59811   7.770   7.236   8.867 -0.3184 -0.4207 -0.1098
51325SOL    HW159812   7.699   7.267   8.811 -1.3128 -0.8685  0.8637
51325SOL    HW259813   7.761   7.141   8.868  0.3991 -0.4928 -0.1100
51326SOL     OW59814  10.977   4.358  11.814 -0.1383 -0.6770  0.4916
51326SOL    HW159815  11.012   4.414  11.744 -0.0425  0.3439  1.3257
51326SOL    HW259816  10.920   4.296  11.769  1.7451 -1.5925 -0.7730
51327SOL     OW59817   3.840   3.363   9.924  0.1539  0.0433  0.3151
51327SOL    HW159818   3.879   3.327   9.844 -0.6113 -0.6639  0.2519
51327SOL    HW259819   3.782   3.432   9.892  0.7179  0.5518  0.3555
51328SOL     OW59820   4.472   6.145   0.780  0.0690  0.2227 -0.2334
51328SOL    HW159821   4.487   6.070   0.722 -0.7293  0.9855 -1.4876
51328SOL    HW259822   4.377   6.161   0.774  0.2256  1.3034  0.0333
51329SOL     OW59823   4.399   3.793   6.496 -0.0027 -0.0734  0.3055
51329SOL    HW159824   4.382   3.721   6.556 -3.7865  1.4995  1.4413
51329SOL    HW259825   4.395   3.754   6.409  1.8699 -1.7547  0.8785
51330SOL     OW59826   9.974  11.098   4.950  0.0960 -0.3299 -0.4034
51330SOL    HW159827   9.894  11.090   4.897 -0.6400  1.3957  0.3594
51330SOL    HW259828   9.998  11.008   4.970 -1.5305 -0.9130 -0.8660
51331SOL     OW59829   1.032   1.467   6.340  0.1211 -0.2690  0.3464
51331SOL    HW159830   0.994   1.380   6.325  2.5335 -1.1283 -1.4353
51331SOL    HW259831   1.091   1.455   6.414  1.2973 -0.4732 -0.6025
51332SOL     OW59832   8.138  11.497   8.184 -0.0250  0.0066  0.0020
51332SOL    HW159833   8.189  11.476   8.262 -2.3137 -1.3058  1.2824
51332SOL    HW259834   8.147  11.419   8.128  0.0570  0.1296 -0.1563
51333SOL     OW59835   4.463   1.058   6.825 -0.1126  0.2080 -0.0352
51333SOL    HW159836   4.388   1.107   6.793  0.8554  1.0372 -1.1041
51333SOL    HW259837   4.448   1.048   6.919 -2.4036 -1.1707 -0.4871
51334SOL     OW59838   9.758   5.631   3.255 -1.0280 -0.1460  0.2209
51334SOL    HW159839   9.689   5.571   3.227 -0.6774 -0.5517  0.2138
51334SOL    HW259840   9.725   5.672   3.334 -1.9035  0.7748 -0.5962
51335SOL     OW59841   4.925  10.147   8.224 -0.3160  0.3738 -0.4506
51335SOL    HW159842   4.981  10.154   8.302 -0.2323 -1.0144 -0.3555
51335SOL    HW259843   4.903  10.237   8.203  0.0373  0.8139  0.9072
51336SOL     OW59844  11.033   5.153   7.011 -0.4755 -0.2639 -0.1388
51336SOL    HW159845  11.027   5.090   6.939 -2.0146  0.3896 -0.6344
51336SOL    HW259846  10.942   5.166   7.038 -0.3087  2.2716 -0.5440
51337SOL     OW59847  12.101   9.752  11.580 -0.1195  0.6563 -0.2081
51337SOL    HW159848  12.052   9.671  11.564 -0.6937  1.2707 -1.8614
51337SOL    HW259849  12.129   9.746  11.671  0.3251 -1.6440 -0.4251
51338SOL     OW59850   2.131   7.860   2.605 -0.4227  0.0462  0.4986
51338SOL    HW159851   2.129   7.797   2.534 -0.5391  1.3372 -0.6968
51338SOL    HW259852   2.210   7.912   2.589 -1.1224  1.1609  0.5516
51339SOL     OW59853   7.899   9.752   0.996 -0.3267 -0.1514  0.3727
51339SOL    HW159854   7.991   9.766   1.020  0.3228  0.5450 -2.1875
51339SOL    HW259855   7.880   9.663   1.026  1.1335 -0.2630  1.0780
51340SOL     OW59856   2.970   0.160   3.459 -0.5759  0.6093  0.4879
51340SOL    HW159857   2.964   0.128   3.368 -0.1602  0.7594  0.4053
51340SOL    HW259858   2.880   0.163   3.489 -0.6182 -1.2964  0.7182
51341SOL     OW59859   6.777   7.842   9.042  0.4002 -0.0910 -0.6901
51341SOL    HW159860   6.794   7.748   9.053 -0.4808 -0.1973 -0.0682
51341SOL    HW259861   6.719   7.847   8.967 -1.3458 -0.2813  0.5822
51342SOL     OW59862   6.149   4.304   6.026 -0.1217  0.5265 -0.1494
51342SOL    HW159863   6.163   4.398   6.016  0.0811  0.4670 -0.4448
51342SOL    HW259864   6.187   4.283   6.112  1.7649  0.3538 -0.9768
51343SOL     OW59865   5.657   0.215   3.683  0.0157 -0.0739  0.6143
51343SOL    HW159866   5.621   0.243   3.767 -0.3687 -1.7843  1.0609
51343SOL    HW259867   5.586   0.229   3.621  0.2095  0.9546  0.6200
51344SOL     OW59868   3.460   7.704   6.540 -0.0771  0.1438  0.0103
51344SOL    HW159869   3.488   7.635   6.480 -2.2418  0.1956 -1.1296
51344SOL    HW259870   3.377   7.673   6.576 -0.9796  1.9957 -0.3463
51345SOL     OW59871   9.963   5.491   0.217 -0.0488  0.2084  1.1358
51345SOL    HW159872   9.963   5.524   0.128 -0.7623  0.7190  1.3169
51345SOL    HW259873  10.055   5.495   0.244 -0.0026  1.2207  0.8517
51346SOL     OW59874   4.237  11.196   9.005  0.1434  0.2729 -0.1825
51346SOL    HW159875   4.175  11.201   8.932  0.6256 -1.6226 -0.7946
51346SOL    HW259876   4.287  11.115   8.989  1.9211  1.0629  0.9612
51347SOL     OW59877  10.903   9.319   2.479 -0.1528  0.0435  0.0534
51347SOL    HW159878  10.817   9.361   2.494  0.7768  2.3704 -0.5952
51347SOL    HW259879  10.911   9.255   2.549 -1.6554  1.0408  1.2115
51348SOL     OW59880   9.147   4.907   8.000 -0.3721 -0.0002 -0.1441
51348SOL    HW159881   9.193   4.843   7.946  2.7320 -0.9311  3.2460
51348SOL    HW259882   9.204   4.984   8.001 -0.7046  0.2519  1.2473
51349SOL     OW59883   3.798   0.860   9.457  0.1984  0.3446  0.3710
51349SOL    HW159884   3.714   0.826   9.487  0.1280 -0.5512 -0.7965
51349SOL    HW259885   3.806   0.946   9.499 -1.0263  0.1854  0.9452
51350SOL     OW59886   4.869   5.012   7.013  0.8521 -0.2701 -0.8629
51350SOL    HW159887   4.794   5.061   6.979  0.9696 -0.5840 -1.5815
51350SOL    HW259888   4.884   5.049   7.101 -1.4548 -1.6291  0.1841
51351SOL     OW59889  11.999   6.922   3.463 -0.2511  0.5892  0.2539
51351SOL    HW159890  11.961   6.851   3.514 -0.7281  0.4702 -0.2569
51351SOL    HW259891  12.081   6.943   3.507  0.7390 -1.4099 -0.5110
51352SOL     OW59892   5.542   0.360   7.377  0.1127  0.3830  0.0311
51352SOL    HW159893   5.624   0.372   7.424  0.7441 -1.9592 -0.3856
51352SOL    HW259894   5.491   0.300   7.432 -0.3917  0.0480 -0.7795
51353SOL     OW59895  12.254   3.271  12.298 -0.2286  0.1392 -0.0325
51353SOL    HW159896  12.189   3.226  12.244 -1.2880  0.3539  1.0137
51353SOL    HW259897  12.291   3.338  12.241  1.7008 -2.2253 -1.7730
51354SOL     OW59898   0.698   2.040   8.688 -0.6800  0.2847 -0.0805
51354SOL    HW159899   0.737   2.126   8.705 -0.1548 -0.1273  0.8387
51354SOL    HW259900   0.630   2.031   8.755  2.4319 -2.0174  3.1509
51355SOL     OW59901   6.806   8.906   7.966 -0.2342 -0.0289  0.1684
51355SOL    HW159902   6.857   8.867   8.036  0.0026  0.6276  0.3692
51355SOL    HW259903   6.839   8.865   7.886  1.4330  1.2125  0.1785
51356SOL     OW59904  11.552   2.909   7.181 -0.1340 -0.4836  0.2592
51356SOL    HW159905  11.562   2.899   7.086 -1.3909 -0.4779  0.1157
51356SOL    HW259906  11.466   2.948   7.192  0.1364 -0.1844  1.3996
51357SOL     OW59907   7.583   3.240   7.819 -0.5033  0.1881  0.0369
51357SOL    HW159908   7.625   3.304   7.876 -1.5674 -0.7809  2.0591
51357SOL    HW259909   7.604   3.155   7.859  0.1916 -0.7179 -2.0881
51358SOL     OW59910  12.301   0.595   6.487 -0.2700  0.1924  0.4225
51358SOL    HW159911  12.219   0.572   6.531  0.0970  2.5371  2.5676
51358SOL    HW259912  12.290   0.686   6.463  0.7244 -0.2248 -1.7897
51359SOL     OW59913   2.856   7.825   2.376 -0.1586 -0.5093  0.4015
51359SOL    HW159914   2.846   7.893   2.442 -0.6666  0.4056 -0.5757
51359SOL    HW259915   2.775   7.774   2.382  0.5841 -1.5858  1.7107
51360SOL     OW59916   7.946  12.146  11.388 -0.0775  0.4286 -0.2971
51360SOL    HW159917   7.851  12.148  11.385 -0.0834 -0.5868 -1.4940
51360SOL    HW259918   7.967  12.123  11.479 -0.9474  0.9441  0.0459
51361SOL     OW59919   9.738   7.383   0.208 -0.3551  0.2361 -0.2029
51361SOL    HW159920   9.670   7.444   0.235 -0.8007 -0.9765  1.6403
51361SOL    HW259921   9.809   7.439   0.176 -0.9382  1.7132  0.9432
51362SOL     OW59922   9.295   1.072   8.387 -0.3692 -0.2927  0.3044
51362SOL    HW159923   9.350   1.148   8.404 -1.6500  0.3706  1.7507
51362SOL    HW259924   9.209   1.096   8.423 -1.0232 -2.1068  0.0632
51363SOL     OW59925   4.442   8.147  11.637  0.0568 -0.0187  0.1853
51363SOL    HW159926   4.386   8.092  11.582 -1.1564  0.8069  0.5551
51363SOL    HW259927   4.384   8.216  11.669  1.3271  0.9458  0.4896
51364SOL     OW59928   8.914   7.714   1.035 -0.3296 -0.0460  0.3465
51364SOL    HW159929   8.965   7.752   0.964 -1.8809  0.4365 -0.5701
51364SOL    HW259930   8.912   7.783   1.102 -0.3568  0.2048  0.0910
51365SOL     OW59931   2.173   1.938  12.060 -0.4308 -0.1081  0.4609
51365SOL    HW159932   2.259   1.938  12.102 -0.1734  1.2052 -0.0119
51365SOL    HW259933   2.189   1.903  11.973  0.2074  2.6774 -0.6304
51366SOL     OW59934   6.075   0.728   0.517 -0.5180 -0.3890  0.4650
51366SOL    HW159935   6.024   0.647   0.518  1.1871 -1.5564 -0.4605
51366SOL    HW259936   6.166   0.698   0.526  0.3318  1.2405 -1.7939
51367SOL     OW59937  10.898   8.025   3.201  0.3343 -0.2041 -0.2434
51367SOL    HW159938  10.882   8.061   3.289 -0.8257  1.6278 -1.1459
51367SOL    HW259939  10.898   8.102   3.144 -1.2239 -1.5535 -2.1802
51368SOL     OW59940   9.187   2.007   6.323  0.0073  0.4280 -0.8436
51368SOL    HW159941   9.168   2.085   6.375 -0.3500  0.5689 -1.1857
51368SOL    HW259942   9.180   1.935   6.385  1.2532  0.7373 -0.3059
51369SOL     OW59943   2.584   1.868  11.053 -0.0854  0.3713 -0.3474
51369SOL    HW159944   2.587   1.867  11.149  1.0263 -1.9348 -0.3343
51369SOL    HW259945   2.619   1.783  11.027  1.0791  1.5066 -2.8618
51370SOL     OW59946   4.174   2.344   1.150  0.5526 -0.6775 -0.5331
51370SOL    HW159947   4.208   2.272   1.096  2.2937  1.3017 -2.2832
51370SOL    HW259948   4.172   2.419   1.090 -0.1358  1.0023  1.4944
51371SOL     OW59949   3.230   8.460   5.101 -0.6475  0.1222 -0.0489
51371SOL    HW159950   3.187   8.514   5.034  0.5905 -0.2959 -1.2109
51371SOL    HW259951   3.175   8.382   5.107 -1.8332  0.9898  0.8463
51372SOL     OW59952   3.335   8.207   8.377 -0.2118 -0.3734  0.5368
51372SOL    HW159953   3.299   8.154   8.306  0.0813 -0.3480  0.3671
51372SOL    HW259954   3.320   8.155   8.456 -0.7196 -0.3116  0.4836
51373SOL     OW59955   2.137   0.200   1.043 -0.4351 -0.4321 -0.4976
51373SOL    HW159956   2.209   0.251   1.008 -1.5809  2.3769  0.9200
51373SOL    HW259957   2.064   0.262   1.048 -1.9752 -2.2396  1.2380
51374SOL     OW59958   1.786   0.849   2.599 -0.0615 -0.3254  0.2789
51374SOL    HW159959   1.874   0.813   2.613 -0.4979 -1.6708 -0.2888
51374SOL    HW259960   1.802   0.940   2.572  1.1789 -0.6613 -0.1910
51375SOL     OW59961   5.184   0.259   1.264 -0.4575  0.1488  0.0841
51375SOL    HW159962   5.229   0.260   1.349  1.7722  1.2272 -1.0207
51375SOL    HW259963   5.122   0.332   1.268  0.2524  0.7405  0.4971
51376SOL     OW59964   5.579   9.321   6.925 -0.1369 -0.0055  0.0725
51376SOL    HW159965   5.607   9.250   6.867 -0.4149 -0.4355  0.4601
51376SOL    HW259966   5.494   9.347   6.891 -0.3067 -0.2679  0.2907
51377SOL     OW59967   0.008  10.015   4.279 -0.2987 -0.4161  0.2385
51377SOL    HW159968  -0.082  10.045   4.273  0.5229  2.0819 -1.1977
51377SOL    HW259969   0.043  10.028   4.190  1.5522 -1.0431  0.8304
51378SOL     OW59970   8.270  11.854   6.869  0.0027  0.4558  0.1586
51378SOL    HW159971   8.270  11.818   6.780 -1.8552  1.7078 -0.4110
51378SOL    HW259972   8.351  11.904   6.875  0.3119  0.0805 -0.7066
51379SOL     OW59973  10.471   2.822   3.238 -0.4075  0.3780  0.2542
51379SOL    HW159974  10.486   2.783   3.152 -0.0625  1.0953 -0.0142
51379SOL    HW259975  10.449   2.913   3.220  2.4689  1.3476  1.0119
51380SOL     OW59976   5.673  11.743   2.518  0.5987 -0.1628  0.3084
51380SOL    HW159977   5.600  11.691   2.553 -1.1456  2.1067  0.2891
51380SOL    HW259978   5.633  11.827   2.495  3.0331  0.7641 -0.8313
51381SOL     OW59979   7.283   8.569   8.247 -0.1941  0.0922 -0.1465
51381SOL    HW159980   7.314   8.658   8.264  2.2696 -0.9250  1.1104
51381SOL    HW259981   7.192   8.570   8.276 -0.2182  2.1687 -0.0991
51382SOL     OW59982   3.159   2.887  10.807  0.0329  0.2220 -0.6470
51382SOL    HW159983   3.173   2.918  10.896 -0.9156  0.8492 -0.6927
51382SOL    HW259984   3.238   2.913  10.759  1.0366 -1.1066  0.2373
51383SOL     OW59985   5.037   9.428   5.595  0.8989 -0.1893 -0.4455
51383SOL    HW159986   4.959   9.428   5.539 -0.4857  0.8416  1.4114
51383SOL    HW259987   5.076   9.514   5.582 -1.0077  1.1877  2.1697
51384SOL     OW59988  11.476   4.506   1.814  0.0319  1.0299 -0.2862
51384SOL    HW159989  11.398   4.462   1.780  0.1515  0.9327 -0.4339
51384SOL    HW259990  11.445   4.551   1.892  0.0546  0.1065  0.2724
51385SOL     OW59991   7.656   6.395   7.104  0.9393 -0.0987  0.0349
51385SOL    HW159992   7.661   6.347   7.188  0.8659  0.4588  0.3592
51385SOL    HW259993   7.742   6.380   7.064  1.1288 -0.0222  0.4034
51386SOL     OW59994   0.372   3.510   1.033 -0.3991 -0.8677  0.1191
51386SOL    HW159995   0.276   3.513   1.036 -0.3943 -0.8126  0.2489
51386SOL    HW259996   0.398   3.488   1.123 -0.2201  1.0052  0.5724
51387SOL     OW59997  10.463   7.723   0.647 -0.1120 -0.1232 -0.6545
51387SOL    HW159998  10.529   7.792   0.655 -2.2886  1.9451  0.9705
51387SOL    HW259999  10.499   7.650   0.697  0.3832  1.4664  1.4456
51388SOL     OW60000   5.313  11.762   1.643 -0.0606 -0.1194 -0.0393
51388SOL    HW160001   5.319  11.685   1.699  1.7353  0.2533  0.3634
51388SOL    HW260002   5.288  11.833   1.702 -0.4273 -0.1520 -0.1551
51389SOL     OW60003   6.478  10.456   6.153 -0.0054  0.3189  0.1541
51389SOL    HW160004   6.490  10.551   6.156  1.0661  0.2363 -0.8033
51389SOL    HW260005   6.484  10.428   6.244 -2.8351  1.4022  0.7904
51390SOL     OW60006   0.282   1.118   1.169 -0.4843  0.0873  0.4306
51390SOL    HW160007   0.291   1.129   1.264  0.0461  4.9612  0.0755
51390SOL    HW260008   0.192   1.146   1.150  0.6647  3.6378 -0.6880
51391SOL     OW60009  11.070  12.198   1.452  0.0309 -0.0414  0.1193
51391SOL    HW160010  11.148  12.229   1.406  0.7653 -0.9749  0.6941
51391SOL    HW260011  11.082  12.226   1.542 -0.0232 -0.6757  0.3293
51392SOL     OW60012   4.970   4.641   0.437  0.4977  0.4010  0.9565
51392SOL    HW160013   5.019   4.590   0.373  0.1093  0.2114  0.8097
51392SOL    HW260014   4.948   4.723   0.391  0.4427  0.3729  0.9329
51393SOL     OW60015   3.108   9.100   0.568  0.4131  0.4963  0.1438
51393SOL    HW160016   3.016   9.125   0.575  0.5885  1.1592  0.1735
51393SOL    HW260017   3.108   9.023   0.511  0.0915  2.2266 -2.3938
51394SOL     OW60018  10.380  10.098   1.742 -0.0147 -0.5182  0.2886
51394SOL    HW160019  10.368  10.146   1.660  0.3641  0.0258  0.5463
51394SOL    HW260020  10.417  10.163   1.803  0.8638 -1.2346  0.5378
51395SOL     OW60021   4.719   6.152   3.691 -0.2185  0.0889  0.3679
51395SOL    HW160022   4.700   6.083   3.628  1.9197 -0.8549  0.6982
51395SOL    HW260023   4.726   6.107   3.775  1.0798  0.7007  0.6099
51396SOL     OW60024   8.529  11.121   7.059 -0.3017  0.4728  0.2848
51396SOL    HW160025   8.510  11.156   6.972  1.6028 -0.6923 -0.6928
51396SOL    HW260026   8.466  11.163   7.117 -2.9158 -0.0827 -1.9214
51397SOL     OW60027   8.462   9.554   6.520 -0.2622  0.2621 -0.4531
51397SOL    HW160028   8.472   9.533   6.427 -1.5679 -0.6610 -0.4132
51397SOL    HW260029   8.379   9.602   6.525  1.1519  2.8406 -0.1114
51398SOL     OW60030   9.333  10.515   1.262 -0.2963  0.0879  0.1043
51398SOL    HW160031   9.277  10.587   1.290 -0.9213 -0.3985  0.1599
51398SOL    HW260032   9.410  10.557   1.224 -0.3045  0.7654  0.8174
51399SOL     OW60033  11.962   9.056   3.890  0.0032 -0.5827  0.4255
51399SOL    HW160034  11.940   9.145   3.864 -0.3027 -1.1380 -1.4067
51399SOL    HW260035  12.058   9.056   3.894  0.0856 -0.4543 -0.8730
51400SOL     OW60036  11.229   5.570   6.285 -0.1395  0.5052  0.1135
51400SOL    HW160037  11.212   5.537   6.197 -2.0859  0.7986  0.3304
51400SOL    HW260038  11.300   5.634   6.274  1.1237 -1.0040 -0.8654
51401SOL     OW60039   5.320   2.114   3.860 -0.0813 -0.1853 -0.2038
51401SOL    HW160040   5.317   2.208   3.845  1.1615 -0.1077 -0.1173
51401SOL    HW260041   5.274   2.100   3.943 -0.2352  0.3456 -0.2012
51402SOL     OW60042   9.681  10.631   9.553  0.2512 -0.0100 -0.0356
51402SOL    HW160043   9.764  10.652   9.595 -0.3959  0.6248  0.9985
51402SOL    HW260044   9.616  10.683   9.602 -0.4926  1.2167 -2.1785
51403SOL     OW60045  10.936   0.098   9.610 -0.3816 -0.3820  0.8771
51403SOL    HW160046  10.893   0.144   9.681  0.9138  0.3852  1.1880
51403SOL    HW260047  10.882   0.020   9.596  1.3354 -2.6879  5.2909
51404SOL     OW60048   5.283   7.825   7.098  0.0919  0.0479 -0.1334
51404SOL    HW160049   5.304   7.742   7.056 -1.2688 -0.3469 -0.0941
51404SOL    HW260050   5.359   7.846   7.151  1.3183 -0.1015 -1.7563
51405SOL     OW60051   8.871   9.990  10.340 -0.7400 -0.0363 -0.2494
51405SOL    HW160052   8.930   9.915  10.331 -0.4231  0.0369  1.0444
51405SOL    HW260053   8.784   9.955  10.323 -0.5105 -0.5110 -0.4601
51406SOL     OW60054  10.252   4.191   8.041  0.5250  0.2464 -0.9441
51406SOL    HW160055  10.248   4.243   8.121 -1.3386 -0.3129 -0.6402
51406SOL    HW260056  10.346   4.187   8.020  1.2079 -0.6286  1.8896
51407SOL     OW60057   2.693   2.533   3.589 -0.1145  0.0875 -0.2936
51407SOL    HW160058   2.681   2.539   3.684 -0.6238  4.1429 -0.4296
51407SOL    HW260059   2.605   2.519   3.554 -0.1607  0.1273 -0.1942
51408SOL     OW60060   4.776   9.318   3.632 -0.5342 -0.6795  0.1601
51408SOL    HW160061   4.688   9.351   3.611 -0.9467 -1.4561  0.6156
51408SOL    HW260062   4.776   9.307   3.727  0.3348  0.0550  0.2597
51409SOL     OW60063  12.254   0.568   5.832  0.1736 -0.2442 -0.2536
51409SOL    HW160064  12.317   0.538   5.767  1.3831 -1.4715  1.4105
51409SOL    HW260065  12.229   0.489   5.880 -2.6865  0.2169 -0.8638
51410SOL     OW60066   7.895   2.397   2.479  0.0202 -0.0608 -0.2811
51410SOL    HW160067   7.820   2.338   2.487  0.6865 -1.2405 -2.1209
51410SOL    HW260068   7.892   2.429   2.390  0.8689  1.0610  0.0720
51411SOL     OW60069   7.864   0.126  12.310  0.0848  0.5383  0.0779
51411SOL    HW160070   7.857   0.126  12.405  1.3429 -0.2003  0.1939
51411SOL    HW260071   7.939   0.069  12.291  0.1394  1.0304 -1.3323
51412SOL     OW60072   4.869   9.495   7.188 -0.3505 -0.1761 -0.0246
51412SOL    HW160073   4.919   9.419   7.160 -3.7007 -2.0237 -1.6383
51412SOL    HW260074   4.935   9.561   7.211  2.8160 -1.6036 -3.8872
51413SOL     OW60075   8.446   8.437  11.149  0.4369 -0.2292  0.4025
51413SOL    HW160076   8.476   8.467  11.235  1.5280 -0.3043  0.0715
51413SOL    HW260077   8.496   8.489  11.087 -0.1791 -0.3335 -0.1933
51414SOL     OW60078   4.386   4.074   3.281  0.0199  0.6422 -0.6816
51414SOL    HW160079   4.383   4.005   3.347  1.3130  0.0426 -1.2174
51414SOL    HW260080   4.439   4.037   3.210  1.1606  2.3384 -0.7743
51415SOL     OW60081  11.891   8.606  11.476 -0.7123  0.4780 -0.2915
51415SOL    HW160082  11.861   8.519  11.502  0.7938  0.4161  1.4344
51415SOL    HW260083  11.836   8.666  11.525  0.5103  0.3944  1.2669
51416SOL     OW60084   6.759   2.794   3.633  0.2049  0.3893  0.2403
51416SOL    HW160085   6.738   2.778   3.725  1.4469  0.5719  0.5738
51416SOL    HW260086   6.812   2.719   3.606 -2.0595 -0.8532 -1.0406
51417SOL     OW60087   0.480   9.399   9.922 -0.7341 -0.3405  0.1389
51417SOL    HW160088   0.427   9.387  10.000 -0.1768 -1.8103  0.3196
51417SOL    HW260089   0.569   9.375   9.949 -0.5498 -0.9661 -0.9569
51418SOL     OW60090   5.837   0.517   4.438 -0.1899  0.0034  0.1590
51418SOL    HW160091   5.847   0.497   4.531 -0.4357 -1.3403 -0.0901
51418SOL    HW260092   5.816   0.611   4.436 -0.4448 -0.0084  1.4623
51419SOL     OW60093   1.430  11.723   4.275 -0.1595 -0.2355  0.6015
51419SOL    HW160094   1.475  11.737   4.359 -1.0840 -0.9253  1.2420
51419SOL    HW260095   1.493  11.673   4.223  0.2818 -0.1512  1.0415
51420SOL     OW60096   1.695   5.026   6.174 -0.0902  0.3055  0.6846
51420SOL    HW160097   1.768   5.067   6.128 -0.8967 -0.0795 -1.0300
51420SOL    HW260098   1.625   5.091   6.171 -0.4735 -0.1088  0.4531
51421SOL     OW60099   6.199  10.875   8.242  0.0033  0.2303  0.3369
51421SOL    HW160100   6.118  10.839   8.278  0.0736 -1.1166 -0.7555
51421SOL    HW260101   6.243  10.914   8.317 -0.3875 -1.4647  1.5193
51422SOL     OW60102   2.929   4.074   1.025  0.0156  0.1071  0.2110
51422SOL    HW160103   2.997   4.124   1.069  0.1498 -0.2597  0.4257
51422SOL    HW260104   2.942   3.984   1.056 -0.2913 -0.0392 -0.0824
51423SOL     OW60105   0.491   5.425   0.565 -0.2911 -0.4374  0.0885
51423SOL    HW160106   0.436   5.499   0.541  0.5708  0.0649 -0.3935
51423SOL    HW260107   0.578   5.447   0.531  0.0715 -1.4914  0.2738
51424SOL     OW60108  11.196   8.855   5.817 -0.0261 -0.1966  0.3528
51424SOL    HW160109  11.105   8.836   5.840  0.1412 -0.5836  0.7251
51424SOL    HW260110  11.198   8.851   5.721 -0.1228 -1.5539  0.3893
51425SOL     OW60111   7.974   2.740   3.521  0.1744  0.3783  0.2210
51425SOL    HW160112   8.054   2.694   3.494 -0.2701  0.3725 -1.1849
51425SOL    HW260113   8.006   2.825   3.551  0.7113  0.4662 -0.5458
51426SOL     OW60114   1.096   7.480   6.983 -0.1460 -0.1417  0.4242
51426SOL    HW160115   1.082   7.562   7.029  0.7320  0.1902  0.1291
51426SOL    HW260116   1.191   7.472   6.978 -0.2279 -0.8694 -0.0934
51427SOL     OW60117   0.318   4.297   9.506 -0.4215 -0.1302 -0.1555
51427SOL    HW160118   0.349   4.273   9.593  2.2120 -0.5677 -1.1071
51427SOL    HW260119   0.299   4.390   9.511 -0.7146 -0.2374  0.9688
51428SOL     OW60120   8.097   0.960   2.451  0.5929 -0.4022 -0.1606
51428SOL    HW160121   8.108   0.883   2.506 -0.3975  0.1551  0.8713
51428SOL    HW260122   8.144   0.940   2.370  1.5693 -1.4905  0.6518
51429SOL     OW60123   3.284   4.011   9.476  0.0478 -1.0352  0.0820
51429SOL    HW160124   3.378   4.007   9.493 -0.1263 -2.1418  0.9035
51429SOL    HW260125   3.267   3.938   9.417 -0.2789 -0.7372 -0.1971
51430SOL     OW60126  11.428   4.237   1.078 -0.9056  0.1578  0.2230
51430SOL    HW160127  11.371   4.160   1.076 -0.2185 -0.4290  1.7181
51430SOL    HW260128  11.398   4.288   1.153  0.2653  0.0470  0.7843
51431SOL     OW60129   2.321   8.416  11.685  0.5753 -0.4813  0.2913
51431SOL    HW160130   2.384   8.450  11.621 -0.2483 -1.1437 -0.8972
51431SOL    HW260131   2.239   8.461  11.665  0.8621  1.1836  2.5240
51432SOL     OW60132   1.807   3.583   7.055 -0.0532  0.7906  0.5621
51432SOL    HW160133   1.869   3.550   6.990 -0.6638  0.6590  0.0449
51432SOL    HW260134   1.839   3.546   7.138 -0.9269 -1.4655 -0.0334
51433SOL     OW60135   7.380   5.641   6.637  0.0059 -0.1225 -0.1428
51433SOL    HW160136   7.432   5.676   6.564  2.6838 -3.3310 -0.0378
51433SOL    HW260137   7.421   5.678   6.715  2.4155 -2.6420 -0.0609
51434SOL     OW60138   5.115   7.946  10.859 -0.3401  0.2230  0.0498
51434SOL    HW160139   5.114   7.983  10.771 -1.1535  0.8732  0.3242
51434SOL    HW260140   5.023   7.945  10.886 -0.1388 -0.3157  0.7488
51435SOL     OW60141   6.903   8.823   5.463 -0.6572  0.3911 -0.2734
51435SOL    HW160142   6.827   8.766   5.476 -0.4388 -0.0204 -0.7703
51435SOL    HW260143   6.895   8.890   5.531 -0.2954 -0.8808  1.0873
51436SOL     OW60144   8.838  11.879   4.267  0.2503 -0.5997 -0.7583
51436SOL    HW160145   8.806  11.921   4.347  0.5766 -1.3658 -0.2103
51436SOL    HW260146   8.784  11.916   4.197  1.0081  1.2895 -0.4102
51437SOL     OW60147   0.568   9.200   7.484  0.0873  0.0541  0.3822
51437SOL    HW160148   0.605   9.280   7.446  0.4266  0.1898  0.9831
51437SOL    HW260149   0.639   9.136   7.479 -0.7224 -0.7840 -1.7432
51438SOL     OW60150   6.391   8.008   4.513  0.0022 -0.0201  0.2500
51438SOL    HW160151   6.476   7.966   4.524  0.1963 -0.1465 -1.4851
51438SOL    HW260152   6.328   7.938   4.526  0.1234  0.0933  1.6379
51439SOL     OW60153  11.782   3.013   3.045 -0.0284  0.3246 -0.6006
51439SOL    HW160154  11.792   3.057   2.961  0.9945  0.4735 -0.4197
51439SOL    HW260155  11.871   3.003   3.078 -0.4722  1.5587  1.1226
51440SOL     OW60156   4.477   1.840  10.205  0.0354 -0.0298 -0.4322
51440SOL    HW160157   4.461   1.769  10.267  0.0951 -1.1050 -1.6038
51440SOL    HW260158   4.561   1.878  10.232 -0.7399  0.6649  1.1490
51441SOL     OW60159   8.598   1.005   3.302  0.5716  0.1694  0.3432
51441SOL    HW160160   8.589   0.929   3.360  0.8747 -0.3813 -0.3205
51441SOL    HW260161   8.565   0.974   3.218 -0.1117  1.0447  0.2801
51442SOL     OW60162   1.217   3.916   3.884 -0.0722 -0.0952 -0.2965
51442SOL    HW160163   1.268   3.954   3.955  1.0736 -0.7299 -0.7453
51442SOL    HW260164   1.197   3.990   3.826 -0.8539  0.3894  0.5674
51443SOL     OW60165   8.877  10.279   6.009  0.0440  0.2680 -0.2090
51443SOL    HW160166   8.829  10.356   5.978 -2.3508 -1.2171 -0.4670
51443SOL    HW260167   8.905  10.302   6.098  0.7136  1.9592 -0.8329
51444SOL     OW60168   7.033   5.710   0.951 -0.5186 -0.2585  0.0945
51444SOL    HW160169   7.100   5.641   0.958  0.8715  0.9305 -0.9278
51444SOL    HW260170   6.963   5.669   0.900 -0.3088 -1.3360  0.6355
51445SOL     OW60171  11.179  11.408   9.323 -0.2825 -0.4756  0.3863
51445SOL    HW160172  11.090  11.411   9.288  0.1413 -1.2375 -0.8200
51445SOL    HW260173  11.233  11.447   9.254  0.7512 -3.2493 -0.5215
51446SOL     OW60174  10.130  11.706  10.576 -0.2864 -0.6317  0.1020
51446SOL    HW160175  10.124  11.755  10.658  1.2281 -0.0856 -0.0800
51446SOL    HW260176  10.149  11.616  10.604  1.9691 -0.1442  0.3842
51447SOL     OW60177  11.928   9.193   1.888  0.1089 -0.0956  0.4966
51447SOL    HW160178  11.990   9.260   1.917 -0.1800  0.2374  0.3673
51447SOL    HW260179  11.842   9.232   1.907 -0.0612 -0.4337  0.4202
51448SOL     OW60180   4.889   4.646   0.711  0.0800  0.2295  0.2778
51448SOL    HW160181   4.869   4.623   0.620 -0.0745  0.6281  0.2096
51448SOL    HW260182   4.901   4.741   0.710 -1.2928  0.4342  0.9204
51449SOL     OW60183   0.196  11.189  11.721 -0.2957  0.2174 -0.0377
51449SOL    HW160184   0.281  11.233  11.717 -0.2648  0.2112  0.4485
51449SOL    HW260185   0.133  11.255  11.690 -0.1866  0.4275  0.1864
51450SOL     OW60186   1.528   5.935   4.903 -0.0038  0.4992 -0.0076
51450SOL    HW160187   1.484   5.944   4.818  0.8127 -2.0989 -0.7853
51450SOL    HW260188   1.489   5.857   4.942  0.2357  1.1730  1.6694
51451SOL     OW60189   4.626   1.205  10.575  0.2930 -0.4481 -0.1124
51451SOL    HW160190   4.531   1.196  10.586  0.2584  1.3193  1.6707
51451SOL    HW260191   4.657   1.115  10.564 -1.6963 -0.9837 -2.2692
51452SOL     OW60192   1.124   9.783   3.482  0.0332  0.5067 -0.0645
51452SOL    HW160193   1.084   9.775   3.568 -1.0225 -0.0951 -0.5851
51452SOL    HW260194   1.091   9.866   3.447 -0.4088  0.2396 -0.3014
51453SOL     OW60195   7.682   0.786   7.365  0.0417  0.0205  0.0470
51453SOL    HW160196   7.652   0.706   7.323  0.1895  0.8658 -1.7506
51453SOL    HW260197   7.777   0.783   7.356  0.0504  0.3767  0.0191
51454SOL     OW60198   5.274   5.421   9.963  0.5153  0.3413  0.2024
51454SOL    HW160199   5.186   5.425  10.001 -0.1995  0.5720 -1.3853
51454SOL    HW260200   5.304   5.333   9.983  0.1896  0.4602  1.3027
51455SOL     OW60201   2.481   5.033   8.083  0.0707 -0.0071  0.4496
51455SOL    HW160202   2.571   5.062   8.094  0.9128 -2.0196 -0.5759
51455SOL    HW260203   2.464   4.977   8.158 -0.5166  0.7451  0.8919
51456SOL     OW60204   2.187   8.955  12.018  0.4327 -0.7180  0.4927
51456SOL    HW160205   2.181   8.965  11.923  0.8463  0.4565  0.5747
51456SOL    HW260206   2.096   8.951  12.047  0.1589  2.2225  0.3338
51457SOL     OW60207   5.773   9.114   0.458  0.1054  0.1529 -0.2041
51457SOL    HW160208   5.694   9.067   0.482 -0.4411  1.7319  1.3432
51457SOL    HW260209   5.802   9.074   0.376 -1.0961 -1.8464  0.2959
51458SOL     OW60210  10.571   0.643   5.020 -0.4110  0.5474  0.2773
51458SOL    HW160211  10.537   0.571   4.967  0.2596  0.6238 -0.2718
51458SOL    HW260212  10.654   0.610   5.056  0.0473  1.1402 -0.2159
51459SOL     OW60213  10.244   1.796   8.125  0.1339 -0.6024  0.1163
51459SOL    HW160214  10.262   1.702   8.124 -1.1166 -0.8845  1.0214
51459SOL    HW260215  10.252   1.821   8.217  1.4557  0.4221 -0.2360
51460SOL     OW60216   3.729   1.921   7.775 -0.0229  0.5891  0.0408
51460SOL    HW160217   3.700   2.009   7.799 -1.2606 -0.3274  2.1652
51460SOL    HW260218   3.651   1.866   7.786  0.6790 -0.7860 -1.3942
51461SOL     OW60219   2.876  10.180   6.107 -0.2050  0.2817  0.1189
51461SOL    HW160220   2.833  10.095   6.096  1.1960 -0.4724  0.3014
51461SOL    HW260221   2.835  10.236   6.041 -1.8067 -0.2512  0.6201
51462SOL     OW60222   5.953   3.203   8.052 -0.0660  0.2521  0.1149
51462SOL    HW160223   5.985   3.278   8.103  0.3626 -0.9619  1.7180
51462SOL    HW260224   6.030   3.149   8.039 -0.6778 -0.7360  0.4976
51463SOL     OW60225   8.173  10.845   9.081  0.7722 -0.3854 -0.0908
51463SOL    HW160226   8.213  10.930   9.099 -0.7358  0.5070 -0.7658
51463SOL    HW260227   8.083  10.866   9.057  0.7071 -2.0739 -1.5007
51464SOL     OW60228  12.322   6.983   1.641  0.1504  0.1967  0.5516
51464SOL    HW160229  12.254   6.975   1.708  0.5433  0.9493  1.0665
51464SOL    HW260230  12.277   7.015   1.563 -0.3879 -1.0999  0.3057
51465SOL     OW60231   6.461  10.973  10.347  0.0186  0.4738 -0.8027
51465SOL    HW160232   6.503  10.897  10.307  1.6344  0.9515 -0.0617
51465SOL    HW260233   6.369  10.965  10.321  0.2648 -1.3926 -1.2449
51466SOL     OW60234   6.203  11.867   7.526  0.7022 -0.3547  0.3370
51466SOL    HW160235   6.133  11.890   7.464  0.5400 -1.6052  0.0330
51466SOL    HW260236   6.261  11.811   7.475  0.1896 -2.0091  1.5027
51467SOL     OW60237   5.314  11.923   3.839  0.2771 -0.2093  0.0193
51467SOL    HW160238   5.242  11.984   3.826 -0.4739 -1.4189 -1.9012
51467SOL    HW260239   5.385  11.977   3.874 -0.3585  1.7498 -1.5357
51468SOL     OW60240   0.366  12.226   5.467 -0.2310  0.4112 -0.0909
51468SOL    HW160241   0.408  12.288   5.408  1.1182  2.2691  2.5957
51468SOL    HW260242   0.273  12.233   5.447 -0.2299  3.8955  0.4477
51469SOL     OW60243   5.998   0.211   6.004  0.0804  0.2226  0.1218
51469SOL    HW160244   6.089   0.235   5.991  0.5150 -1.2670  0.1742
51469SOL    HW260245   6.000   0.152   6.080 -1.0752  1.0002  0.7892
51470SOL     OW60246   4.882   7.646  10.086  0.6515  0.2524 -0.0190
51470SOL    HW160247   4.822   7.579  10.119  0.7058  0.4481  0.4790
51470SOL    HW260248   4.916   7.689  10.164 -1.4022  2.6438 -0.3082
51471SOL     OW60249   3.193   3.073   5.106 -0.2390 -0.1471  0.1797
51471SOL    HW160250   3.202   3.048   5.198 -0.3663  1.2933  0.6019
51471SOL    HW260251   3.124   3.016   5.072 -0.4780 -0.4129  1.0822
51472SOL     OW60252   8.414   0.819  12.197 -0.0606  0.3806 -0.3367
51472SOL    HW160253   8.355   0.853  12.263 -0.4085 -1.6777  0.4922
51472SOL    HW260254   8.481   0.887  12.186 -0.6369  1.2412  1.2830
51473SOL     OW60255   9.722   3.430   6.248  0.1697  0.7107  0.0898
51473SOL    HW160256   9.699   3.442   6.156  2.8869  0.9791 -0.6304
51473SOL    HW260257   9.649   3.379   6.285 -1.0624  0.7528 -2.1429
51474SOL     OW60258  11.718   7.702  11.980  0.1969 -0.1161 -0.2419
51474SOL    HW160259  11.736   7.609  11.994  0.2250 -0.3060 -1.4617
51474SOL    HW260260  11.736   7.717  11.887 -0.1678  1.0266 -0.1478
51475SOL     OW60261   1.743   6.556  11.333  0.4342  0.1971 -0.0005
51475SOL    HW160262   1.665   6.503  11.318  0.5781 -0.5208  1.5239
51475SOL    HW260263   1.722   6.642  11.296 -1.1766  0.0852  0.5766
51476SOL     OW60264   5.776   3.101   8.772  0.0048 -0.2192 -0.4717
51476SOL    HW160265   5.845   3.081   8.708  0.3449 -0.9150  0.0914
51476SOL    HW260266   5.721   3.023   8.773 -1.1567  0.5500 -1.3321
51477SOL     OW60267   7.382   1.640   4.181  0.4941  0.0010 -0.1688
51477SOL    HW160268   7.320   1.712   4.178  0.0284 -0.3741  0.3186
51477SOL    HW260269   7.369   1.600   4.267  2.2560  0.6539  0.4525
51478SOL     OW60270   0.713   6.595   9.063 -0.3838  0.4183  0.0922
51478SOL    HW160271   0.625   6.605   9.027 -0.8464 -0.9265  0.7715
51478SOL    HW260272   0.704   6.525   9.128  0.8815  1.2950  1.2565
51479SOL     OW60273  10.879  10.348   4.966  0.3034 -0.0820 -0.1635
51479SOL    HW160274  10.791  10.348   4.929 -0.2856  0.3885  1.1832
51479SOL    HW260275  10.904  10.256   4.970  0.2967 -0.1623 -1.4689
51480SOL     OW60276   0.123   1.503   1.126  0.7827  0.6743  0.3082
51480SOL    HW160277   0.031   1.486   1.104  0.8984 -0.2760  0.5230
51480SOL    HW260278   0.146   1.434   1.189  0.8069  2.6022  2.5596
51481SOL     OW60279   5.443   7.675  11.003 -0.7333 -0.7375  0.6706
51481SOL    HW160280   5.347   7.672  10.999 -0.7566  0.8214 -0.6455
51481SOL    HW260281   5.461   7.721  11.085 -1.2108  1.0793 -0.1881
51482SOL     OW60282  10.481   5.143   4.729 -0.0869  0.0416  0.1089
51482SOL    HW160283  10.540   5.143   4.654  0.1649 -1.7814  0.2665
51482SOL    HW260284  10.530   5.187   4.798  1.3259 -1.8750  0.3848
51483SOL     OW60285   3.812   8.367   0.140  0.5293 -0.2960  0.1346
51483SOL    HW160286   3.736   8.398   0.189  0.3445 -0.1259 -0.2523
51483SOL    HW260287   3.788   8.279   0.112  0.3383 -0.1230 -0.2610
51484SOL     OW60288  10.163   1.490  12.186 -0.4788  0.4636  0.4370
51484SOL    HW160289  10.073   1.464  12.206 -0.3755 -0.5527 -0.3227
51484SOL    HW260290  10.164   1.585  12.194 -2.0541  0.6656 -1.1741
51485SOL     OW60291   7.939   4.502   7.424 -0.9933 -0.2046  0.0629
51485SOL    HW160292   7.899   4.536   7.344  0.9117  1.8338 -0.1114
51485SOL    HW260293   7.987   4.576   7.460  1.5062 -2.1193  0.9291
51486SOL     OW60294   2.697  10.926   5.768  1.0691 -0.1158  0.3494
51486SOL    HW160295   2.694  10.874   5.687  1.9211  0.4455 -0.0514
51486SOL    HW260296   2.605  10.944   5.788  0.6662 -2.7600  1.1639
51487SOL     OW60297   6.498   4.588   6.220  0.1236  0.2906  0.0107
51487SOL    HW160298   6.431   4.586   6.288 -1.0920 -0.3585 -1.1635
51487SOL    HW260299   6.565   4.526   6.251  0.8990  1.9318  1.8340
51488SOL     OW60300   2.916  11.762   4.331 -0.1261 -0.1646  0.0111
51488SOL    HW160301   2.827  11.765   4.366 -1.3429 -0.7079 -2.7558
51488SOL    HW260302   2.923  11.840   4.276  1.0028 -0.2800 -0.0362
51489SOL     OW60303   8.668  10.688   9.729  0.2969 -0.1317  0.1539
51489SOL    HW160304   8.648  10.695   9.636  0.1247  0.4336  0.2301
51489SOL    HW260305   8.586  10.710   9.774  0.4570 -0.1076  0.4409
51490SOL     OW60306   4.558   8.733  11.739 -0.3202 -0.1580 -0.5734
51490SOL    HW160307   4.554   8.654  11.684 -1.4162 -0.0493 -0.6839
51490SOL    HW260308   4.487   8.722  11.802  0.3168  0.1690  0.2230
51491SOL     OW60309  11.882   2.613   2.303  0.2588  0.1389 -0.1088
51491SOL    HW160310  11.867   2.626   2.396  1.8058  0.2035  0.1521
51491SOL    HW260311  11.970   2.648   2.287  0.5591 -1.0691 -1.3303
51492SOL     OW60312   2.171   3.943  11.450 -0.5060  0.4937  0.0498
51492SOL    HW160313   2.229   3.867  11.463  0.3373  1.1086 -0.0625
51492SOL    HW260314   2.192   3.974  11.362 -1.0289  0.7121 -0.0006
51493SOL     OW60315   9.154   0.062   0.989 -0.0404  0.2332  0.4676
51493SOL    HW160316   9.243   0.026   0.989 -0.7080 -1.5274  1.7500
51493SOL    HW260317   9.111   0.021   1.063 -1.7228  1.6616  0.3527
51494SOL     OW60318   5.817   1.460  10.062  0.0458 -0.3391  0.2246
51494SOL    HW160319   5.794   1.370  10.085  1.9101 -1.2387 -1.1542
51494SOL    HW260320   5.815   1.507  10.145 -1.8806 -1.3993  0.8379
51495SOL     OW60321   9.722   4.723   5.915 -0.2250 -0.3840  0.1983
51495SOL    HW160322   9.652   4.673   5.873 -0.2102  0.5066 -0.9114
51495SOL    HW260323   9.774   4.757   5.843 -0.0246  0.9284  0.9473
51496SOL     OW60324   8.529   6.504   1.820  0.1742  0.1435  0.1362
51496SOL    HW160325   8.501   6.551   1.898  0.4707  0.7812 -0.1345
51496SOL    HW260326   8.485   6.548   1.748  1.2309  0.6457 -0.2144
51497SOL     OW60327   0.606   6.657  10.583 -0.0329  0.5590 -0.2024
51497SOL    HW160328   0.610   6.566  10.612 -3.7193  0.1400 -0.4892
51497SOL    HW260329   0.659   6.704  10.647  0.4237 -1.5585  1.0893
51498SOL     OW60330  11.493   9.402   8.827 -0.7647  0.1487 -0.2984
51498SOL    HW160331  11.399   9.395   8.811 -1.4020  2.4730  1.7568
51498SOL    HW260332  11.526   9.456   8.755 -1.0934 -0.1628 -0.6876
51499SOL     OW60333   5.087   1.643   1.590  0.6978 -0.4137  0.0633
51499SOL    HW160334   5.174   1.624   1.553  0.1795 -0.7118 -1.0466
51499SOL    HW260335   5.095   1.732   1.625  0.6709  0.7372 -2.6334
51500SOL     OW60336   3.125   9.821   7.790 -0.8151 -0.4034  0.4662
51500SOL    HW160337   3.115   9.732   7.757 -0.7583 -0.0839 -0.4481
51500SOL    HW260338   3.209   9.822   7.834 -0.2480 -0.5008 -0.5787
51501SOL     OW60339  11.237   2.885   8.636 -0.1750 -0.3083 -0.3861
51501SOL    HW160340  11.223   2.979   8.626 -1.2166 -0.5038 -0.8817
51501SOL    HW260341  11.173   2.845   8.578 -0.0243 -1.3418  0.1382
51502SOL     OW60342   4.156   0.538   4.743 -0.0570  0.2628  0.8471
51502SOL    HW160343   4.121   0.462   4.697  0.5044  1.1483 -1.1398
51502SOL    HW260344   4.080   0.596   4.754  0.1133  0.7587 -0.4869
51503SOL     OW60345   2.240   7.736   1.117  0.3713 -0.2820 -0.3240
51503SOL    HW160346   2.266   7.754   1.208 -2.8086  0.5212  0.5299
51503SOL    HW260347   2.208   7.820   1.084  1.5227 -0.5503 -2.2866
51504SOL     OW60348   7.755   1.731  11.527  0.0802 -0.4285 -0.3854
51504SOL    HW160349   7.702   1.810  11.518  0.2956 -0.3321 -0.8805
51504SOL    HW260350   7.692   1.659  11.524 -0.1163 -0.2760  0.0712
51505SOL     OW60351  10.083   0.936   6.044  0.1047  0.5329  0.2426
51505SOL    HW160352  10.083   0.923   5.949  0.5277 -0.1442  0.3314
51505SOL    HW260353  10.063   0.850   6.081  0.8781  0.5764  0.7901
51506SOL     OW60354   4.199   6.760   7.224  0.2007 -0.0150 -0.0653
51506SOL    HW160355   4.200   6.850   7.191 -0.9039 -0.3733 -1.1416
51506SOL    HW260356   4.163   6.708   7.152  1.2965 -1.4135  0.3360
51507SOL     OW60357   1.460   2.401   1.295 -0.3649 -0.0813  0.1917
51507SOL    HW160358   1.481   2.358   1.378 -1.9796 -0.6341  0.3537
51507SOL    HW260359   1.366   2.419   1.300 -0.9469 -1.8798 -2.2705
51508SOL     OW60360   6.733   9.656   3.259 -0.8191 -0.3490  0.7404
51508SOL    HW160361   6.721   9.628   3.168 -3.4861  0.0861  0.8733
51508SOL    HW260362   6.707   9.579   3.310  3.0845 -1.5031  1.2783
51509SOL     OW60363  10.691   9.679   3.168 -0.2300 -0.6195 -0.4877
51509SOL    HW160364  10.678   9.730   3.087  0.6054  0.3763 -0.0169
51509SOL    HW260365  10.633   9.721   3.232 -0.8239 -1.3523 -0.5308
51510SOL     OW60366  10.797   7.576   9.710 -0.1030  0.1076 -0.0010
51510SOL    HW160367  10.808   7.568   9.805 -1.6574  1.5111  0.3410
51510SOL    HW260368  10.773   7.489   9.681  0.3559 -0.3341  0.8895
51511SOL     OW60369  10.578   4.408   9.891  0.3279 -0.3779 -0.0013
51511SOL    HW160370  10.516   4.449   9.831 -0.4646  0.1231  1.1191
51511SOL    HW260371  10.532   4.330   9.922  0.7438 -0.6498 -0.0768
51512SOL     OW60372   6.591   5.125   6.370 -0.2503  0.2687  0.4265
51512SOL    HW160373   6.577   5.031   6.359 -0.5667  0.3221  0.3626
51512SOL    HW260374   6.686   5.134   6.381  0.0310  0.1334 -1.5676
51513SOL     OW60375   4.540   9.353   2.999  0.0531  0.0550  0.2208
51513SOL    HW160376   4.628   9.391   3.007  0.6932 -1.3394  0.0879
51513SOL    HW260377   4.496   9.380   3.080  0.9860 -0.1688  0.8335
51514SOL     OW60378  10.223   2.577   2.260  0.0529  0.3306  0.0267
51514SOL    HW160379  10.145   2.600   2.211  0.5247  0.1120 -0.8453
51514SOL    HW260380  10.190   2.536   2.340 -0.7384  1.8011  0.4834
51515SOL     OW60381   7.798   9.039   2.496 -0.1608 -0.6236  0.0896
51515SOL    HW160382   7.711   9.076   2.505 -0.3653 -1.0408 -0.1388
51515SOL    HW260383   7.783   8.946   2.480  0.3294 -0.7261  0.1990
51516SOL     OW60384  12.199   4.546   1.034 -0.1611  0.3417 -0.2045
51516SOL    HW160385  12.289   4.570   1.013 -0.0767  0.5404  0.3750
51516SOL    HW260386  12.148   4.625   1.018 -0.0454  0.5978  0.6516
51517SOL     OW60387   4.882  12.253   4.178  0.1886  0.1001  0.0199
51517SOL    HW160388   4.810  12.271   4.117  1.4368  1.4065 -1.1461
51517SOL    HW260389   4.845  12.190   4.240 -1.2977 -0.9747 -1.8077
51518SOL     OW60390   1.077   1.132   1.311 -0.1513  0.2162  0.2088
51518SOL    HW160391   1.158   1.132   1.261 -1.1897  0.3628 -1.5611
51518SOL    HW260392   1.076   1.046   1.354  0.5534 -0.1003 -0.3877
51519SOL     OW60393   2.677   7.208   7.918 -0.0105  0.2210  0.1024
51519SOL    HW160394   2.640   7.218   7.830 -0.3184 -0.8970  0.0849
51519SOL    HW260395   2.771   7.215   7.905 -0.1037  1.1059 -0.1527
51520SOL     OW60396   5.535   1.393   4.696  0.1447  0.0879 -0.2059
51520SOL    HW160397   5.583   1.464   4.738  0.3331 -0.2934  0.2279
51520SOL    HW260398   5.539   1.321   4.758 -3.1637  0.8048  1.0544
51521SOL     OW60399   4.434   6.912   5.850 -0.1398 -0.1754  0.4618
51521SOL    HW160400   4.528   6.927   5.858 -0.4170  1.6965  0.6536
51521SOL    HW260401   4.419   6.899   5.756  0.1705  0.7966  0.2641
51522SOL     OW60402   6.352  10.284   3.835 -0.3953  0.8402  0.4215
51522SOL    HW160403   6.389  10.210   3.882  1.2550  1.6233  0.4258
51522SOL    HW260404   6.260  10.261   3.821 -0.1203 -0.8034  1.1787
51523SOL     OW60405   8.490   9.315   9.422  0.4744  0.7413  0.2942
51523SOL    HW160406   8.537   9.366   9.355  0.9017 -0.1885 -0.1474
51523SOL    HW260407   8.516   9.224   9.404  0.1820  0.4269  1.4091
51524SOL     OW60408   6.877   4.120   7.688 -0.4212  0.2273 -0.3835
51524SOL    HW160409   6.870   4.206   7.647  2.4637  0.0137 -1.5216
51524SOL    HW260410   6.786   4.091   7.697 -1.5422  3.5969  0.6335
51525SOL     OW60411   7.439   3.036   2.651 -0.5530 -0.1423 -0.1280
51525SOL    HW160412   7.466   2.946   2.672 -1.2313 -0.2026  0.5854
51525SOL    HW260413   7.422   3.075   2.737 -0.9001  0.4595 -0.4693
51526SOL     OW60414  12.072   0.732   5.600  0.0653 -0.2786 -0.1236
51526SOL    HW160415  12.119   0.815   5.592 -1.9659  0.9586  0.2405
51526SOL    HW260416  12.039   0.731   5.689 -0.4979 -1.1908 -0.3278
51527SOL     OW60417   5.165   9.166   7.770 -0.1758 -0.8800 -0.1870
51527SOL    HW160418   5.165   9.250   7.816  1.9775 -1.7564  1.6231
51527SOL    HW260419   5.170   9.189   7.678 -0.1943  0.9862  0.2400
51528SOL     OW60420   1.296  10.887   4.243  0.2038 -0.0605 -0.1961
51528SOL    HW160421   1.359  10.820   4.217 -0.0959  0.2621 -1.8322
51528SOL    HW260422   1.221  10.875   4.184 -0.0177  1.4579 -0.2669
51529SOL     OW60423   0.258   0.225   4.717  0.6269  0.0028  0.5002
51529SOL    HW160424   0.248   0.215   4.812 -4.3479  0.3918  0.2712
51529SOL    HW260425   0.252   0.319   4.702 -2.4181 -0.1929 -0.2397
51530SOL     OW60426   4.136   6.698  10.093  0.0055 -0.1266  0.4324
51530SOL    HW160427   4.180   6.624  10.135 -0.1266 -0.2782  0.3028
51530SOL    HW260428   4.047   6.697  10.128  0.1019  0.1783  0.6892
51531SOL     OW60429   1.727  10.134   9.267 -0.0884 -0.0272  0.0593
51531SOL    HW160430   1.700  10.053   9.310 -1.1062 -0.1105 -0.7094
51531SOL    HW260431   1.648  10.188   9.265  0.7678  1.3968  1.3863
51532SOL     OW60432  11.836  11.016   4.122  0.0442  0.4145  0.2636
51532SOL    HW160433  11.842  10.984   4.032  1.0638 -0.0965  0.5012
51532SOL    HW260434  11.871  11.105   4.118  1.4013 -0.1005  0.3925
51533SOL     OW60435   9.700   0.243   1.432  0.1161  0.3966  0.9010
51533SOL    HW160436   9.656   0.247   1.517  0.7311  0.6016  1.2167
51533SOL    HW260437   9.698   0.150   1.408 -0.5357  0.4144  0.8853
51534SOL     OW60438   9.217   6.388   0.365  0.4667 -0.1385 -0.5948
51534SOL    HW160439   9.154   6.444   0.321 -0.5798  2.2635  3.4220
51534SOL    HW260440   9.290   6.446   0.387  0.1582 -0.6584  2.1588
51535SOL     OW60441   1.813  11.945   8.932 -0.2294  0.3926 -0.2502
51535SOL    HW160442   1.833  12.038   8.941 -1.0134  0.5399  0.0547
51535SOL    HW260443   1.737  11.931   8.988 -0.4201 -0.3330 -0.6754
51536SOL     OW60444   8.713   9.952   7.915 -0.3807  0.0649 -0.1507
51536SOL    HW160445   8.644  10.017   7.926  0.1362  0.5519  0.2988
51536SOL    HW260446   8.666   9.870   7.899 -1.0271  0.7078 -1.7223
51537SOL     OW60447  10.209   2.346  10.344  0.5815  0.6882  0.0319
51537SOL    HW160448  10.247   2.409  10.406  1.9128 -1.6519  1.7811
51537SOL    HW260449  10.278   2.329  10.280 -0.5614  2.5939 -1.8272
51538SOL     OW60450   6.061   8.571   0.527  0.2783 -0.0117 -0.2958
51538SOL    HW160451   6.091   8.610   0.609  1.0986 -0.1433 -0.5288
51538SOL    HW260452   6.137   8.572   0.470 -0.5996  1.2829 -1.5197
51539SOL     OW60453   5.608   4.359   5.365  0.4178  0.0704 -0.1162
51539SOL    HW160454   5.572   4.446   5.352 -1.9324 -0.6999  0.6624
51539SOL    HW260455   5.580   4.309   5.288 -0.9672 -0.7255  0.8347
51540SOL     OW60456  10.201   7.860   1.479  0.1245 -0.1978 -0.2839
51540SOL    HW160457  10.196   7.790   1.544 -1.8798 -0.3087 -0.5148
51540SOL    HW260458  10.247   7.821   1.405 -1.0498 -1.3423 -0.4475
51541SOL     OW60459   9.249   3.677   5.086  0.1374 -0.4142 -0.3993
51541SOL    HW160460   9.343   3.694   5.081 -0.1582  1.0755 -2.1103
51541SOL    HW260461   9.222   3.664   4.995 -1.3617 -0.6202  0.0409
51542SOL     OW60462   1.693   3.181  10.675 -0.1696 -0.1978 -0.3318
51542SOL    HW160463   1.782   3.175  10.710 -0.7938  1.2731  1.6513
51542SOL    HW260464   1.659   3.092  10.682  0.4619 -0.3721  0.8305
51543SOL     OW60465   8.878  10.274   7.605 -0.0666  0.3705 -0.3083
51543SOL    HW160466   8.902  10.206   7.668  1.3346 -0.4260 -1.6273
51543SOL    HW260467   8.894  10.356   7.651 -0.1476 -0.1817  0.7359
51544SOL     OW60468   3.042   0.147  11.186 -0.0516  0.0431  0.3237
51544SOL    HW160469   3.111   0.111  11.130 -0.3967  0.3318 -0.2925
51544SOL    HW260470   3.037   0.239  11.161 -1.7831 -0.3226 -0.8243
51545SOL     OW60471   5.940   2.501   5.348  0.0785  0.2578 -0.5208
51545SOL    HW160472   5.888   2.459   5.279  0.6054 -0.7426 -0.3239
51545SOL    HW260473   5.884   2.501   5.425 -0.0454  0.2251 -0.6117
51546SOL     OW60474   2.843   1.885   9.334 -0.0589 -0.3557 -0.6741
51546SOL    HW160475   2.860   1.933   9.415 -0.9270 -0.5368 -0.3737
51546SOL    HW260476   2.929   1.863   9.301  0.6149  4.0043 -2.4256
51547SOL     OW60477   6.440   2.152   4.032 -0.3978 -0.3837 -0.5282
51547SOL    HW160478   6.529   2.132   4.006  0.4282  0.4193  1.4414
51547SOL    HW260479   6.431   2.114   4.120 -1.4872  0.7670 -0.1046
51548SOL     OW60480   9.370  10.132   7.327 -0.1806 -0.1357 -0.4745
51548SOL    HW160481   9.367  10.152   7.420  0.0426  0.9822 -0.7004
51548SOL    HW260482   9.286  10.161   7.293  0.4366  1.1669 -0.9415
51549SOL     OW60483   7.379   0.581   0.001  0.2420 -0.0744 -0.1351
51549SOL    HW160484   7.355   0.674  -0.000 -0.3791 -0.1765  1.3053
51549SOL    HW260485   7.319   0.540  -0.061 -2.3478 -0.0480  2.1230
51550SOL     OW60486   8.578   2.965   4.180 -0.7558  0.0937  0.3189
51550SOL    HW160487   8.524   2.919   4.244  0.4823 -0.4725  0.9859
51550SOL    HW260488   8.570   2.914   4.099 -0.7062 -0.3653  0.6000
51551SOL     OW60489  11.118  12.280   2.470 -0.4407  0.4215  0.1828
51551SOL    HW160490  11.143  12.334   2.545 -1.6032 -0.3404  1.1585
51551SOL    HW260491  11.038  12.320   2.437 -0.5493  0.1002  0.0541
51552SOL     OW60492   4.116   1.654   7.643  0.2410  0.3520 -0.0353
51552SOL    HW160493   4.069   1.652   7.560  0.1592 -0.4712  0.0204
51552SOL    HW260494   4.197   1.606   7.626  0.8710  1.3875 -0.0134
51553SOL     OW60495  10.561  11.054   5.581 -0.1753  0.0451  0.3776
51553SOL    HW160496  10.620  11.117   5.540 -0.0613 -1.2534 -1.5529
51553SOL    HW260497  10.616  11.008   5.645  0.3263  0.3347  0.1598
51554SOL     OW60498   3.723   5.178   9.759  0.3202 -0.1126 -0.0500
51554SOL    HW160499   3.722   5.212   9.670  1.6310 -0.3948 -0.1917
51554SOL    HW260500   3.766   5.246   9.811  2.3519 -1.2218 -0.2159
51555SOL     OW60501   8.434   2.451   9.118 -0.5163  0.4089  0.1637
51555SOL    HW160502   8.411   2.358   9.118 -1.0720  0.5276 -1.1650
51555SOL    HW260503   8.468   2.467   9.206 -2.2664 -0.5940  1.0793
51556SOL     OW60504   1.263  12.007  12.086  0.0865  0.2588  0.0830
51556SOL    HW160505   1.313  11.936  12.047 -0.9414 -0.7129  0.5032
51556SOL    HW260506   1.257  12.073  12.017 -0.0394 -0.5985 -0.7378
51557SOL     OW60507   2.751   6.624   4.583  0.4761 -0.3687  0.4091
51557SOL    HW160508   2.833   6.625   4.535 -0.1399  0.3667 -0.6500
51557SOL    HW260509   2.727   6.532   4.588  1.1791 -0.5549  0.4167
51558SOL     OW60510   9.667   8.383   4.079  0.8867  0.3465  0.1048
51558SOL    HW160511   9.612   8.436   4.020  2.0202  2.2942  0.7074
51558SOL    HW260512   9.606   8.318   4.116 -0.0669 -0.2673 -2.3722
51559SOL     OW60513   9.350   4.219   2.645 -0.0182  0.1993  0.6771
51559SOL    HW160514   9.403   4.209   2.566  0.5506  1.6258  0.8385
51559SOL    HW260515   9.282   4.153   2.637  1.0540 -0.8446 -0.1486
51560SOL     OW60516   7.102   5.731   0.262 -0.4676 -0.3854 -0.2835
51560SOL    HW160517   7.065   5.643   0.250  1.9630 -1.3972 -0.9787
51560SOL    HW260518   7.044   5.789   0.212 -2.8496 -1.3132  1.1884
51561SOL     OW60519   8.206   2.680  11.491  0.6785  0.2270  0.4424
51561SOL    HW160520   8.209   2.732  11.410  0.8805 -0.7736 -0.2064
51561SOL    HW260521   8.113   2.678  11.514  0.1577 -1.9309 -1.4362
51562SOL     OW60522   2.041   2.425  10.883  0.2624  0.4750  0.3390
51562SOL    HW160523   1.985   2.347  10.878  1.2534 -0.2180 -3.3560
51562SOL    HW260524   1.980   2.499  10.880 -0.6112 -0.2565 -1.2512
51563SOL     OW60525   0.149   6.097   5.763  0.3326  0.7398  0.0752
51563SOL    HW160526   0.223   6.036   5.756 -0.7872 -0.7933  1.1239
51563SOL    HW260527   0.154   6.131   5.852 -0.3067  0.4934  0.2111
51564SOL     OW60528   8.711   5.472   4.030 -0.5443  0.6497  0.3056
51564SOL    HW160529   8.678   5.537   3.968  0.3406  0.7533 -0.0698
51564SOL    HW260530   8.673   5.389   3.999  0.0972  0.6587 -0.5511
51565SOL     OW60531   7.990   4.812   5.052  0.2109 -0.6710  0.0350
51565SOL    HW160532   7.991   4.737   4.993 -1.8499 -0.9140  0.2427
51565SOL    HW260533   8.068   4.863   5.028  0.3838 -1.6780 -1.6647
51566SOL     OW60534   4.134   8.495   3.240 -0.3470  0.2128 -0.8858
51566SOL    HW160535   4.206   8.554   3.218  0.2750 -1.1472 -2.7450
51566SOL    HW260536   4.133   8.430   3.169 -1.2649 -1.7887  0.8560
51567SOL     OW60537   9.903   3.514   4.086  0.2159  0.5301 -0.2236
51567SOL    HW160538   9.979   3.571   4.078  0.1681  0.4926 -0.9790
51567SOL    HW260539   9.834   3.559   4.037  0.7881 -1.2345 -2.8598
51568SOL     OW60540   4.128   1.662   8.303  0.4390  0.3299 -0.3054
51568SOL    HW160541   4.164   1.573   8.298  1.8204  0.7566  1.1260
51568SOL    HW260542   4.187   1.715   8.250 -0.4141  0.4053 -1.1984
51569SOL     OW60543   4.687  11.550   2.300 -0.1563 -0.5115  0.4378
51569SOL    HW160544   4.638  11.498   2.237  0.7169 -0.0167 -0.6752
51569SOL    HW260545   4.701  11.634   2.257  0.9603 -0.3596  1.0538
51570SOL     OW60546   7.320   5.699   3.793 -0.2246  0.5867  0.2130
51570SOL    HW160547   7.289   5.731   3.708  0.6437 -0.9934 -0.7634
51570SOL    HW260548   7.411   5.674   3.777 -0.7746 -2.1448  0.8852
51571SOL     OW60549   9.147  12.000   5.784  0.4778  0.2112  0.6936
51571SOL    HW160550   9.144  11.905   5.772  0.9803  0.0066  2.0256
51571SOL    HW260551   9.237  12.024   5.759 -0.0693  0.5782 -1.0637
51572SOL     OW60552   9.199   6.111   5.821  0.2395 -0.1450  0.4255
51572SOL    HW160553   9.172   6.126   5.911  1.2980  0.0765  0.7156
51572SOL    HW260554   9.210   6.198   5.784  0.0576 -0.2348  0.1537
51573SOL     OW60555   5.573   8.653   4.251 -0.1581  0.5149  0.2586
51573SOL    HW160556   5.479   8.672   4.244 -0.0908  0.7978  0.1117
51573SOL    HW260557   5.590   8.653   4.346 -0.9460 -2.7017  0.4903
51574SOL     OW60558   0.858   3.050   2.477  0.0265  0.1023  0.3319
51574SOL    HW160559   0.951   3.041   2.456 -0.1422 -0.2097 -0.3100
51574SOL    HW260560   0.856   3.073   2.570  0.9209  4.1035 -0.4554
51575SOL     OW60561  10.410   3.760   1.893  0.0030  0.0965  0.2887
51575SOL    HW160562  10.504   3.742   1.892 -0.2320 -1.2476  0.1476
51575SOL    HW260563  10.397   3.829   1.829  0.8271 -0.1269 -0.1215
51576SOL     OW60564   9.934   4.539   7.511  0.1195 -0.3592 -0.4477
51576SOL    HW160565   9.874   4.569   7.579 -0.5043 -1.8075 -0.3325
51576SOL    HW260566   9.877   4.512   7.439  0.6273 -1.4397 -0.4653
51577SOL     OW60567   7.465  10.819   3.373 -0.2962  0.3415  0.3439
51577SOL    HW160568   7.548  10.825   3.326  0.7081 -0.4013  1.9519
51577SOL    HW260569   7.403  10.866   3.317  1.3572  1.6049 -0.5091
51578SOL     OW60570   0.937   8.156   1.146 -0.3234 -0.1470 -0.3248
51578SOL    HW160571   0.918   8.078   1.198  0.5348  0.3287  0.7390
51578SOL    HW260572   0.873   8.221   1.176 -0.6295 -0.2420 -0.7604
51579SOL     OW60573   4.722   2.562   6.945 -0.0668 -0.0192  0.0006
51579SOL    HW160574   4.700   2.560   7.038 -1.5169  1.1786 -0.2789
51579SOL    HW260575   4.699   2.650   6.916  0.4013 -0.3508 -1.4947
51580SOL     OW60576  12.308   1.903  12.022  0.0692 -0.2046 -0.0686
51580SOL    HW160577  12.367   1.886  12.096 -1.6008  1.1637  1.6753
51580SOL    HW260578  12.304   1.998  12.015  1.2956 -0.2577 -2.9506
51581SOL     OW60579   0.952  10.704   0.247 -0.2885 -0.3235 -0.2177
51581SOL    HW160580   0.991  10.620   0.274 -0.2402 -0.3681 -0.4258
51581SOL    HW260581   0.931  10.692   0.154  0.3664  0.1412 -0.4275
51582SOL     OW60582   2.869   2.917   9.755 -0.1610 -0.3449  0.0510
51582SOL    HW160583   2.835   2.940   9.668 -0.5040 -0.8196  0.0589
51582SOL    HW260584   2.797   2.872   9.798 -0.2648  0.5900  0.8844
51583SOL     OW60585   3.969   6.053  11.585 -0.2371 -0.1282 -0.1627
51583SOL    HW160586   3.947   6.142  11.613  0.5576  0.0095  0.0688
51583SOL    HW260587   4.029   6.066  11.511 -0.7854 -0.4770 -0.6701
51584SOL     OW60588   7.771   2.249   0.755  0.4245 -0.4276 -0.1850
51584SOL    HW160589   7.697   2.309   0.753  0.6869 -0.1054 -0.2647
51584SOL    HW260590   7.844   2.301   0.789  1.0038 -0.3063 -1.5508
51585SOL     OW60591   8.441   9.701   8.552  0.1519  0.1387  0.5168
51585SOL    HW160592   8.431   9.620   8.600 -3.2518  0.1059 -0.0245
51585SOL    HW260593   8.448   9.769   8.619  2.1758 -0.4430  0.9591
51586SOL     OW60594   7.044   5.584   8.151  0.3412 -0.3772  0.0383
51586SOL    HW160595   6.975   5.552   8.209  1.2697  0.6131  1.7562
51586SOL    HW260596   7.093   5.506   8.126 -0.3447 -0.8713  0.2132
51587SOL     OW60597   0.360   5.027   2.796 -0.1022 -0.0167 -0.8728
51587SOL    HW160598   0.433   4.967   2.809 -1.6164 -2.5921 -3.2482
51587SOL    HW260599   0.388   5.084   2.724  1.0893  1.9080  0.9817
51588SOL     OW60600   9.121   7.484   4.265  0.3295  0.0300 -0.4630
51588SOL    HW160601   9.200   7.459   4.313 -0.8439 -0.2534  1.4205
51588SOL    HW260602   9.137   7.574   4.236  1.0455  0.2247  0.5097
51589SOL     OW60603   0.881   6.969   3.631  0.7225  0.2987 -0.1915
51589SOL    HW160604   0.952   7.003   3.576  1.6213 -1.6100 -0.2825
51589SOL    HW260605   0.835   6.907   3.575  0.3831 -0.1499  0.5728
51590SOL     OW60606   8.300   6.593   8.283 -0.2559 -0.2183  0.1189
51590SOL    HW160607   8.339   6.577   8.369 -0.4214  1.1853  0.4904
51590SOL    HW260608   8.353   6.664   8.246 -0.5571 -0.4024 -0.6877
51591SOL     OW60609   9.152   9.642   5.037 -0.7114  0.1746 -0.2691
51591SOL    HW160610   9.113   9.618   5.121 -3.6223  0.9469 -1.2886
51591SOL    HW260611   9.177   9.734   5.046  0.2007 -0.0976  0.1212
51592SOL     OW60612  11.851   2.913   3.392 -0.2065 -0.2811 -0.3606
51592SOL    HW160613  11.790   2.922   3.465 -0.0181  0.4599 -0.2895
51592SOL    HW260614  11.938   2.911   3.433 -0.1928 -2.1489 -0.3916
51593SOL     OW60615   0.544  11.667   6.399 -0.2236  0.0272  0.2119
51593SOL    HW160616   0.582  11.602   6.458  0.3380  0.7686  0.6891
51593SOL    HW260617   0.605  11.672   6.326  0.1434  0.5600  0.5443
51594SOL     OW60618   4.906   7.832   5.385 -0.0819 -0.1970  0.0712
51594SOL    HW160619   4.876   7.776   5.456  1.5171 -1.4358 -0.1904
51594SOL    HW260620   4.832   7.891   5.369 -1.1316 -1.0428  1.5545
51595SOL     OW60621  12.314   8.391  11.175 -0.1409 -0.2488  0.6550
51595SOL    HW160622  12.362   8.352  11.249  0.0898 -1.9770 -0.3586
51595SOL    HW260623  12.379   8.397  11.105 -0.5368  0.7066  0.3650
51596SOL     OW60624  12.102   9.105   8.321  0.1797 -0.5571  0.1634
51596SOL    HW160625  12.029   9.045   8.313 -0.2518 -0.1279  0.8456
51596SOL    HW260626  12.168   9.070   8.261 -0.4647 -1.1104 -0.2361
51597SOL     OW60627   7.902   7.678   7.433 -0.4893  0.1915 -0.0110
51597SOL    HW160628   7.997   7.678   7.448 -0.6361  0.6267  0.9535
51597SOL    HW260629   7.877   7.770   7.438 -0.9875  0.0659 -0.1261
51598SOL     OW60630   8.053   3.417   8.224  0.4369 -0.0865  0.1620
51598SOL    HW160631   8.139   3.401   8.262  0.5913 -1.1638 -0.5905
51598SOL    HW260632   8.070   3.467   8.145  0.2673  0.5732  0.5287
51599SOL     OW60633  10.030   0.622   9.695  0.5081 -0.0901 -0.6083
51599SOL    HW160634  10.054   0.579   9.613  2.0208  0.1491 -0.3197
51599SOL    HW260635  10.098   0.689   9.708 -0.4779  0.8063  0.1474
51600SOL     OW60636   3.220  10.364  11.529  0.0738  0.2607  0.0034
51600SOL    HW160637   3.213  10.412  11.612 -1.4570  0.9311 -0.4814
51600SOL    HW260638   3.303  10.393  11.491  0.4909  0.4129  1.0048
51601SOL     OW60639   5.972   8.053  11.030 -0.1426 -0.1855  0.2820
51601SOL    HW160640   6.060   8.088  11.020  0.2204 -0.8810  0.9351
51601SOL    HW260641   5.942   8.037  10.940 -0.4336  1.9731 -0.0698
51602SOL     OW60642   8.793   2.024   1.370  0.5611  0.4627 -0.6719
51602SOL    HW160643   8.766   2.116   1.370  1.1353  0.6366 -1.2834
51602SOL    HW260644   8.714   1.976   1.395  0.2523  1.1175 -0.3679
51603SOL     OW60645   1.505  10.069   1.303  0.3559 -0.1321  0.0291
51603SOL    HW160646   1.453  10.021   1.238 -0.5165 -0.3806  0.8833
51603SOL    HW260647   1.528  10.003   1.368  2.6660 -0.2642 -0.8366
51604SOL     OW60648   0.284  10.345   7.553 -0.0633  0.4220  0.3469
51604SOL    HW160649   0.292  10.370   7.461  1.9748  1.5312  0.7719
51604SOL    HW260650   0.345  10.402   7.599  0.7638 -1.7121  2.0901
51605SOL     OW60651   1.052   0.229   7.079 -0.3573 -0.0842  0.4677
51605SOL    HW160652   1.073   0.315   7.115  0.2561 -0.2080  0.4171
51605SOL    HW260653   1.092   0.168   7.141 -2.3555 -0.4056  1.5362
51606SOL     OW60654  10.735   4.364   4.359 -0.2072  0.4254  0.4884
51606SOL    HW160655  10.796   4.318   4.300  0.0897 -0.6924  1.6441
51606SOL    HW260656  10.648   4.345   4.323  0.0275  0.8435 -0.3382
51607SOL     OW60657  12.209  12.213   3.704 -0.4529  0.0451 -0.2287
51607SOL    HW160658  12.117  12.238   3.700 -1.1816 -2.5832 -1.7405
51607SOL    HW260659  12.218  12.141   3.643  2.8981  0.9223 -1.0032
51608SOL     OW60660  11.730   5.794   3.687  0.6918 -0.0999 -0.2878
51608SOL    HW160661  11.758   5.843   3.610  1.6689 -0.4598 -0.1821
51608SOL    HW260662  11.638   5.774   3.671  0.2047  1.8923 -0.2558
51609SOL     OW60663   3.008   5.920   6.909  0.2247 -0.7020 -0.2431
51609SOL    HW160664   3.081   5.868   6.942  0.0765 -0.0125  1.2322
51609SOL    HW260665   3.032   5.939   6.818  2.1697 -0.0504  0.3568
51610SOL     OW60666   6.494   7.067   9.392 -0.1946  0.0126  0.4723
51610SOL    HW160667   6.570   7.028   9.347  0.6079 -0.0258  1.8142
51610SOL    HW260668   6.504   7.161   9.379  0.3822  0.0411  1.0914
51611SOL     OW60669   8.832   8.665  10.938  0.6916  0.5939  0.5076
51611SOL    HW160670   8.806   8.642  11.028  1.3630  0.6206  0.7223
51611SOL    HW260671   8.760   8.635  10.883  0.7162 -0.3369  0.9658
51612SOL     OW60672  11.249   0.594   5.719  0.4900  0.4072 -0.4778
51612SOL    HW160673  11.253   0.656   5.792  1.0592  2.8179 -2.4234
51612SOL    HW260674  11.290   0.515   5.753  0.4822  1.3345  1.8921
51613SOL     OW60675   6.528  11.601   8.116  0.2552  0.1095  0.1777
51613SOL    HW160676   6.494  11.545   8.186 -0.3303 -0.1879 -0.3302
51613SOL    HW260677   6.452  11.648   8.083  0.2597 -0.7748 -1.1671
51614SOL     OW60678   0.781  10.086   9.743  0.9550  0.4227  0.1123
51614SOL    HW160679   0.807   9.996   9.764  0.4009  0.1781 -0.2240
51614SOL    HW260680   0.853  10.120   9.690 -0.1716 -0.8682 -2.4096
51615SOL     OW60681   9.948   1.294   9.000  0.2581  0.1742 -0.5100
51615SOL    HW160682   9.945   1.215   9.054 -1.6689 -0.5167 -1.5422
51615SOL    HW260683   9.874   1.285   8.940  0.9240  2.0390 -1.6946
51616SOL     OW60684   8.988   8.072   8.036 -0.5808 -0.4121 -0.2718
51616SOL    HW160685   9.056   8.060   8.102 -0.2023 -1.9201 -0.9051
51616SOL    HW260686   9.028   8.041   7.955 -1.0922  1.2576 -1.2011
51617SOL     OW60687   3.826   5.633   4.505  0.0311 -0.5361 -0.3061
51617SOL    HW160688   3.902   5.692   4.504 -0.4010  0.1350  1.7299
51617SOL    HW260689   3.859   5.554   4.549 -0.1791 -0.6149 -0.2918
51618SOL     OW60690   1.802   6.793   9.231 -0.4472 -0.2532  0.1316
51618SOL    HW160691   1.896   6.800   9.246 -0.5332  0.4475  0.3568
51618SOL    HW260692   1.766   6.877   9.258 -0.9056  0.2209 -1.7920
51619SOL     OW60693   5.600   3.585   4.516  0.6867 -0.4077  0.2405
51619SOL    HW160694   5.598   3.635   4.434  0.8834 -2.2497 -0.9619
51619SOL    HW260695   5.512   3.548   4.524  0.4654  0.3150  1.2454
51620SOL     OW60696   3.843  11.279   6.339  0.4813 -0.1680  0.2182
51620SOL    HW160697   3.819  11.310   6.252  0.5291 -2.6466 -0.7672
51620SOL    HW260698   3.850  11.358   6.392  0.4835  1.4209 -2.0228
51621SOL     OW60699   2.980   9.550   8.550  0.1899 -1.3048  0.2717
51621SOL    HW160700   3.068   9.544   8.586  0.6156 -0.7486 -0.6418
51621SOL    HW260701   2.923   9.558   8.627  1.0414 -0.4273  0.8368
51622SOL     OW60702   4.578   5.194   7.654  0.3098  0.1545  0.4738
51622SOL    HW160703   4.488   5.225   7.666  0.9589  1.6714  1.6437
51622SOL    HW260704   4.572   5.099   7.663 -1.4850 -0.0215 -1.6160
51623SOL     OW60705  11.371   5.335   1.550  0.1817 -0.0650 -0.4016
51623SOL    HW160706  11.416   5.419   1.555 -0.2211  0.1690 -0.6260
51623SOL    HW260707  11.284   5.352   1.588  1.2301 -1.2148  2.8280
51624SOL     OW60708   2.052   9.999   9.752  0.0515 -0.2559 -0.0144
51624SOL    HW160709   2.016   9.914   9.730  0.7996 -0.3190 -1.0498
51624SOL    HW260710   2.134  10.004   9.703 -0.6266  1.5896 -1.0806
51625SOL     OW60711   7.521   7.535  12.306 -0.0618 -0.5802  0.6683
51625SOL    HW160712   7.558   7.481  12.376  1.7505  1.3861  1.3458
51625SOL    HW260713   7.460   7.594  12.350  2.4383  1.9415  1.1087
51626SOL     OW60714   9.992  10.968   4.448 -0.2311  0.0691 -0.1130
51626SOL    HW160715   9.968  11.036   4.510  1.2973  1.1129 -0.6131
51626SOL    HW260716   9.913  10.953   4.396 -0.4349  1.9129 -0.3888
51627SOL     OW60717  10.055   3.470  11.084  0.3881 -0.3914 -0.1068
51627SOL    HW160718   9.973   3.424  11.100  1.0768 -1.2531  1.1436
51627SOL    HW260719  10.035   3.562  11.101 -0.3993 -0.5559 -0.1352
51628SOL     OW60720  11.828  10.643  11.673 -0.1485  0.1399 -0.2370
51628SOL    HW160721  11.755  10.700  11.650  0.0450 -0.0394 -1.3567
51628SOL    HW260722  11.822  10.633  11.768 -1.1514  0.6972 -0.2315
51629SOL     OW60723   9.978   2.279   1.290 -0.3982  0.2276  0.3261
51629SOL    HW160724  10.019   2.363   1.314 -1.6303  0.6457  1.0647
51629SOL    HW260725   9.908   2.303   1.230 -0.0225 -0.4073 -0.3772
51630SOL     OW60726   5.773   4.587   1.653  0.0695  0.0499 -0.4243
51630SOL    HW160727   5.815   4.529   1.716 -3.6155  1.0876  3.4407
51630SOL    HW260728   5.839   4.654   1.634  2.2184 -1.8130  0.0526
51631SOL     OW60729   8.797   4.031   5.337  0.2251  0.3393 -0.6393
51631SOL    HW160730   8.809   4.113   5.289  0.4225  0.3874 -0.5082
51631SOL    HW260731   8.845   4.043   5.419 -2.1233  1.1759  0.6883
51632SOL     OW60732  12.212   2.710   4.042  0.6909  0.2416 -0.2433
51632SOL    HW160733  12.229   2.790   4.091 -0.8487  1.6072 -1.7986
51632SOL    HW260734  12.262   2.721   3.961  2.6818 -1.6781  0.6402
51633SOL     OW60735   5.378   8.936   4.304  0.5113 -0.2833 -0.0257
51633SOL    HW160736   5.289   8.904   4.288  1.3658 -1.8121 -2.1122
51633SOL    HW260737   5.387   8.935   4.400 -0.8020 -2.7039  0.1460
51634SOL     OW60738   5.278   2.068  11.891 -0.4564 -0.3334  0.5146
51634SOL    HW160739   5.367   2.095  11.868 -1.0046  0.5089 -0.7261
51634SOL    HW260740   5.285   1.975  11.912  0.4886 -0.6438 -1.0226
51635SOL     OW60741   4.922   5.846  10.008  0.3479 -0.1150  0.1222
51635SOL    HW160742   4.971   5.906   9.952  2.0183 -1.0435  0.5192
51635SOL    HW260743   4.920   5.889  10.094 -1.1138  0.7225 -0.2895
51636SOL     OW60744  11.701  11.995   9.982  0.0694 -0.0009 -0.2712
51636SOL    HW160745  11.777  12.036   9.942 -0.2691  1.3021  0.3680
51636SOL    HW260746  11.689  12.042  10.065  0.1646 -1.9509  0.9356
51637SOL     OW60747   0.495   8.836   4.311 -0.0719 -0.3105 -0.5373
51637SOL    HW160748   0.500   8.890   4.390 -1.6722 -0.5502 -0.2381
51637SOL    HW260749   0.488   8.746   4.344 -0.6093 -0.4236 -0.9432
51638SOL     OW60750   3.624   0.958   5.587  0.1409  0.2321 -0.2481
51638SOL    HW160751   3.628   0.902   5.664 -0.5283 -0.0864 -0.4359
51638SOL    HW260752   3.531   0.975   5.575  0.3603  2.2264  0.4012
51639SOL     OW60753   5.264   5.566   4.398  0.3957 -0.5189  0.2076
51639SOL    HW160754   5.339   5.565   4.339  1.0839  0.8443  0.9845
51639SOL    HW260755   5.209   5.638   4.367  1.2484  0.8604  1.7191
51640SOL     OW60756   0.102   3.420   3.706 -0.2101 -0.5706 -0.1084
51640SOL    HW160757   0.008   3.415   3.694 -0.4341 -1.0519  1.5666
51640SOL    HW260758   0.136   3.450   3.621 -1.5661 -3.1330 -1.6830
51641SOL     OW60759   6.014   2.708   8.907 -0.4456 -0.4343  0.1120
51641SOL    HW160760   6.070   2.657   8.848  1.1763 -0.2754  1.4118
51641SOL    HW260761   5.938   2.652   8.923 -0.2902 -1.0185 -1.0789
51642SOL     OW60762   8.091   1.782   7.576 -0.0599  0.3105 -0.3346
51642SOL    HW160763   8.081   1.801   7.669 -0.6393  0.2714 -0.3840
51642SOL    HW260764   8.104   1.868   7.535  3.1059  0.1510  0.0862
51643SOL     OW60765   2.856   8.355   5.582 -0.3608  0.0296 -0.5647
51643SOL    HW160766   2.899   8.334   5.499  1.2337  1.8099 -0.2375
51643SOL    HW260767   2.846   8.450   5.581 -1.4213 -0.0311  0.7817
51644SOL     OW60768   5.167  10.763   8.039  0.1394 -0.5111 -0.6989
51644SOL    HW160769   5.253  10.767   8.081  0.1536 -0.7505 -0.7041
51644SOL    HW260770   5.133  10.676   8.061 -0.6034  0.0111  0.2801
51645SOL     OW60771   6.631   3.643  10.947  1.0836  0.2492  0.1566
51645SOL    HW160772   6.595   3.661  11.033 -0.5226 -0.5209 -0.3145
51645SOL    HW260773   6.559   3.601  10.899  1.7329  1.1765 -1.7481
51646SOL     OW60774   8.499   2.236  11.345 -0.3028 -0.6450 -0.2713
51646SOL    HW160775   8.412   2.203  11.323  0.2585 -3.3197  1.0874
51646SOL    HW260776   8.553   2.214  11.269 -0.6932  0.6086 -0.9272
51647SOL     OW60777   6.032  11.588   0.815 -0.0493  0.0553  0.0498
51647SOL    HW160778   6.023  11.550   0.902 -2.1205  0.5754  0.1117
51647SOL    HW260779   5.958  11.648   0.808 -0.2719 -0.4238 -2.3053
51648SOL     OW60780   7.622   1.566   1.036 -0.2116  0.6560 -0.4967
51648SOL    HW160781   7.544   1.598   1.082 -0.2707 -0.2489  0.0576
51648SOL    HW260782   7.673   1.645   1.018 -0.9068  1.1820 -0.2172
51649SOL     OW60783   6.155   4.498   1.616  0.3517  0.4186 -1.1303
51649SOL    HW160784   6.114   4.414   1.596 -0.8402  0.7846 -0.3114
51649SOL    HW260785   6.224   4.508   1.550  0.3492 -1.0784 -1.3835
51650SOL     OW60786   2.733   9.786  11.817 -0.0355 -0.4268  0.0345
51650SOL    HW160787   2.789   9.726  11.768  0.5946 -0.7049  1.0748
51650SOL    HW260788   2.790   9.822  11.885 -0.1526  1.9843 -1.0277
51651SOL     OW60789  12.139   5.799   0.180  0.4540 -0.7993 -0.0899
51651SOL    HW160790  12.106   5.711   0.199  0.7085 -0.8629  0.0503
51651SOL    HW260791  12.188   5.788   0.098  0.5904 -0.8103 -0.0055
51652SOL     OW60792   8.031   1.347   7.982  0.1158  0.0602 -0.0058
51652SOL    HW160793   8.106   1.294   8.007 -0.4900 -1.6871 -1.6346
51652SOL    HW260794   7.955   1.298   8.014 -0.3933  1.3238  0.8031
51653SOL     OW60795   7.763   8.152   6.255  0.1168  0.0753  0.0946
51653SOL    HW160796   7.798   8.230   6.298 -0.3942  1.5205 -1.9746
51653SOL    HW260797   7.712   8.108   6.323 -0.7093  2.2655  0.9702
51654SOL     OW60798  12.281   8.787   8.502 -0.7391  0.7193  0.0398
51654SOL    HW160799  12.343   8.853   8.471  0.8097 -0.4311  0.5216
51654SOL    HW260800  12.298   8.782   8.596 -0.3992 -0.7809 -0.0867
51655SOL     OW60801   6.528   7.871   3.638 -0.0671 -0.1004  0.1362
51655SOL    HW160802   6.576   7.942   3.682 -0.9824  2.2383 -2.3499
51655SOL    HW260803   6.576   7.857   3.556 -0.8011 -1.2726 -0.1187
51656SOL     OW60804  10.240   1.822   0.175  0.1751 -0.0602 -0.0667
51656SOL    HW160805  10.326   1.797   0.208  1.0332 -0.5374 -2.4601
51656SOL    HW260806  10.222   1.906   0.218  0.8443 -0.9086  2.0391
51657SOL     OW60807   0.460   7.111   9.954  0.3321  0.3629  0.2526
51657SOL    HW160808   0.525   7.159   9.903 -0.0945  0.6544 -0.0264
51657SOL    HW260809   0.377   7.128   9.909  0.1061 -0.2640  0.4156
51658SOL     OW60810   7.150   0.925  10.247  0.1135  0.5705  0.3280
51658SOL    HW160811   7.079   0.973  10.204  2.0478  1.5095 -2.0696
51658SOL    HW260812   7.202   0.992  10.290 -0.0156 -0.0168  1.4220
51659SOL     OW60813   9.233   9.702  11.136  0.1017  0.1396  0.0967
51659SOL    HW160814   9.300   9.651  11.180 -0.6440  0.7932  2.0773
51659SOL    HW260815   9.173   9.637  11.100  0.0855 -0.3967  1.0827
51660SOL     OW60816   6.506   8.649   1.962 -0.0911  0.2566 -0.2477
51660SOL    HW160817   6.507   8.656   2.058  0.3042 -2.9537  0.0973
51660SOL    HW260818   6.414   8.630   1.941 -0.0624  0.3146 -0.4247
51661SOL     OW60819   4.610  10.223   6.594 -0.5446 -0.2078 -0.2137
51661SOL    HW160820   4.611  10.311   6.556 -0.1988 -1.2066 -2.7783
51661SOL    HW260821   4.533  10.181   6.555  0.2680 -1.5468 -0.4448
51662SOL     OW60822   6.142   1.138   9.541 -0.0746  0.4498  0.3081
51662SOL    HW160823   6.055   1.142   9.501  0.2584  0.2767 -0.4361
51662SOL    HW260824   6.197   1.193   9.485 -0.0032  1.7804  1.5977
51663SOL     OW60825   7.124   1.313   4.312  0.3577  0.0001  0.1003
51663SOL    HW160826   7.053   1.258   4.346 -2.3933  2.0797 -1.7883
51663SOL    HW260827   7.120   1.302   4.217  1.8406  1.0567 -0.1176
51664SOL     OW60828  11.345   6.800   2.124  0.1017  0.6177  0.1268
51664SOL    HW160829  11.430   6.836   2.147 -0.1271  1.3755 -0.1961
51664SOL    HW260830  11.285   6.874   2.128 -0.1585  0.5678 -1.7148
51665SOL     OW60831  12.075   3.671   5.985 -0.1732  0.1654  0.3112
51665SOL    HW160832  12.158   3.658   6.030  0.4829  0.1163 -0.8678
51665SOL    HW260833  12.093   3.740   5.921 -0.5477 -1.0159 -1.1254
51666SOL     OW60834   8.849   8.927  10.928 -0.2577 -0.2474 -0.2901
51666SOL    HW160835   8.919   8.960  10.872 -1.1740  1.2781 -0.5905
51666SOL    HW260836   8.844   8.833  10.908  0.9759 -0.1710 -1.0313
51667SOL     OW60837   8.820   5.636   7.851 -0.3047 -0.3351 -0.2416
51667SOL    HW160838   8.842   5.708   7.793 -1.6267 -0.6151 -1.1560
51667SOL    HW260839   8.844   5.667   7.939 -0.2567  0.9519 -0.6860
51668SOL     OW60840   4.183   9.059  10.969 -0.4133  0.4690 -0.2041
51668SOL    HW160841   4.125   9.015  11.030  0.9478 -0.4400  0.4872
51668SOL    HW260842   4.260   9.002  10.963  2.3957  3.6259  2.3568
51669SOL     OW60843  11.067   9.079   0.165 -0.1890  0.4207 -0.3565
51669SOL    HW160844  11.118   9.068   0.085  1.4565 -0.0074  0.7062
51669SOL    HW260845  11.105   9.155   0.209 -0.8426  0.4520  0.1849
51670SOL     OW60846   4.160  11.804   9.450  0.1284 -0.3791  0.6939
51670SOL    HW160847   4.132  11.780   9.361  0.6278  0.2296  0.3657
51670SOL    HW260848   4.247  11.841   9.438 -0.4225  1.1520  1.2403
51671SOL     OW60849   9.084   0.845   9.608  0.0181  0.3002  0.1932
51671SOL    HW160850   9.066   0.774   9.670  0.7899  1.6608  2.0689
51671SOL    HW260851   9.139   0.805   9.541 -0.2613 -1.0612  0.7437
51672SOL     OW60852   9.283   6.626   5.462  0.0588 -0.3899 -0.6350
51672SOL    HW160853   9.359   6.648   5.515 -1.0622 -0.6096  1.1361
51672SOL    HW260854   9.312   6.554   5.406  1.3526  0.0490 -0.5400
51673SOL     OW60855   8.236  10.614  11.700  0.7540 -0.3033 -0.0926
51673SOL    HW160856   8.327  10.639  11.690  0.3688  1.0311 -0.4259
51673SOL    HW260857   8.223  10.610  11.795  0.4829  2.2720  0.0488
51674SOL     OW60858  10.102  10.308   4.062  0.0961 -0.0398  0.1276
51674SOL    HW160859  10.048  10.382   4.031 -1.5520 -0.5528  1.6343
51674SOL    HW260860  10.162  10.347   4.126 -0.3920  0.0912  0.5097
51675SOL     OW60861   4.707  10.979   2.453 -0.5792 -0.6585  0.5696
51675SOL    HW160862   4.622  10.973   2.410 -1.1323 -0.1809  1.5428
51675SOL    HW260863   4.736  11.069   2.437 -0.5812 -0.6151  0.8055
51676SOL     OW60864  11.972   2.244   6.795  0.3564 -0.1910  0.6432
51676SOL    HW160865  11.982   2.285   6.710  0.0339  1.1365  1.2279
51676SOL    HW260866  12.008   2.156   6.784  0.7514  0.1309 -0.7205
51677SOL     OW60867   3.859   5.627  10.587 -0.1457 -0.1414  0.1250
51677SOL    HW160868   3.932   5.566  10.603  0.0463  0.3424  1.1732
51677SOL    HW260869   3.819   5.596  10.505  1.2084 -0.4316 -0.4491
51678SOL     OW60870   2.266  11.044   9.720  0.0068 -0.0059  0.7426
51678SOL    HW160871   2.217  10.984   9.777 -0.7545 -0.9988 -0.8684
51678SOL    HW260872   2.350  11.000   9.706 -1.3136 -1.9583 -2.1739
51679SOL     OW60873  11.595  10.299   1.248 -0.1623 -0.5440  0.1445
51679SOL    HW160874  11.586  10.210   1.214 -0.2575 -0.9580  1.2091
51679SOL    HW260875  11.679  10.299   1.293  0.0632  0.0539 -0.2658
51680SOL     OW60876   0.067   0.320   6.864  0.3373 -0.2593 -0.2294
51680SOL    HW160877   0.162   0.313   6.852  0.1359 -1.1647 -1.4503
51680SOL    HW260878   0.043   0.240   6.911  0.1860  0.0171  0.1666
51681SOL     OW60879   6.591   4.890   3.218 -0.2453 -1.1596 -0.7587
51681SOL    HW160880   6.534   4.955   3.176  0.1790 -1.1440 -1.3299
51681SOL    HW260881   6.675   4.935   3.227 -0.3216 -1.1772  0.0955
51682SOL     OW60882   2.782   4.880   2.420 -0.5008  0.3024  0.2349
51682SOL    HW160883   2.774   4.808   2.357 -1.1930  0.2728  0.3526
51682SOL    HW260884   2.706   4.936   2.402  0.0044  0.9817  0.1750
51683SOL     OW60885  10.823   9.710  12.060  0.0274  0.3979 -0.5828
51683SOL    HW160886  10.763   9.783  12.047  0.5544  1.0602  0.6215
51683SOL    HW260887  10.909   9.750  12.070  0.3567 -0.4031 -0.0989
51684SOL     OW60888  10.859   7.723   4.085 -0.2685  0.4852  0.1290
51684SOL    HW160889  10.933   7.737   4.025 -2.5280 -0.1107 -3.0250
51684SOL    HW260890  10.849   7.628   4.088 -1.5134  0.5954 -0.2875
51685SOL     OW60891  10.503   1.895   3.889  0.1880 -0.1257  0.6896
51685SOL    HW160892  10.570   1.829   3.871 -0.3796 -0.6468  0.4490
51685SOL    HW260893  10.508   1.955   3.815  0.3311 -0.2091  0.6291
51686SOL     OW60894   2.859   6.476   4.844  1.1562 -0.1196  0.4209
51686SOL    HW160895   2.832   6.538   4.777  0.8235 -1.1988 -0.4629
51686SOL    HW260896   2.922   6.419   4.801  2.0190  0.0358  1.4254
51687SOL     OW60897  11.465   0.582   4.892  0.0307  0.4149 -0.1016
51687SOL    HW160898  11.508   0.552   4.812 -2.3424 -0.3953 -1.1632
51687SOL    HW260899  11.501   0.525   4.961  1.0967  0.2070 -0.7958
51688SOL     OW60900   6.304   7.044   1.294 -0.0254 -0.4446 -0.2966
51688SOL    HW160901   6.266   7.081   1.373  1.6433  2.4461 -0.7269
51688SOL    HW260902   6.366   6.978   1.327  0.2505  0.3269  0.7929
51689SOL     OW60903  10.283   1.400   2.738  0.3487  0.5745 -0.0615
51689SOL    HW160904  10.259   1.455   2.813 -0.3904  2.3869 -1.5646
51689SOL    HW260905  10.215   1.333   2.734  0.5815  0.2491  1.0491
51690SOL     OW60906   7.826   0.879   6.175  0.1593  0.2026  0.1867
51690SOL    HW160907   7.893   0.861   6.240 -1.3154  0.7039  1.9270
51690SOL    HW260908   7.768   0.942   6.218 -0.5382  1.0392 -1.8574
51691SOL     OW60909  11.787  10.487   7.379  0.2119  0.1537  0.2302
51691SOL    HW160910  11.792  10.504   7.473  0.7244 -0.2016  0.2687
51691SOL    HW260911  11.861  10.430   7.361  1.1786  1.6569 -0.7134
51692SOL     OW60912   9.144   0.610  10.071 -0.1766  0.1612 -0.5305
51692SOL    HW160913   9.166   0.556  10.147  1.1371 -0.8365 -1.5760
51692SOL    HW260914   9.166   0.699  10.098 -1.1329  0.0473  0.7530
51693SOL     OW60915   3.888   0.486   7.453 -0.2620 -0.2479  0.1488
51693SOL    HW160916   3.821   0.533   7.405 -0.8271  0.1638  1.2967
51693SOL    HW260917   3.897   0.534   7.535  1.9105  0.1105 -0.2164
51694SOL     OW60918   8.903   3.052   5.967  0.1418  0.3326  0.3137
51694SOL    HW160919   8.871   3.015   5.884 -0.9134 -0.1833  0.9316
51694SOL    HW260920   8.921   2.975   6.021  2.1863  0.6078  0.1079
51695SOL     OW60921   1.448   9.452  10.576  0.5000 -0.1396  0.0336
51695SOL    HW160922   1.481   9.495  10.496  0.7475  2.1621  1.2885
51695SOL    HW260923   1.428   9.524  10.635 -2.1582 -1.6803  1.1583
51696SOL     OW60924   2.321  10.132  11.757  0.3898 -0.2385 -0.5158
51696SOL    HW160925   2.389  10.065  11.772 -0.9460 -1.7517 -0.9435
51696SOL    HW260926   2.248  10.084  11.718 -0.3797  1.6202 -1.4954
51697SOL     OW60927  10.990   8.163   6.269  0.8439  0.3434 -0.8077
51697SOL    HW160928  11.004   8.097   6.336  0.0526  1.1806  0.2166
51697SOL    HW260929  11.057   8.230   6.287 -0.3989  1.3580  0.2120
51698SOL     OW60930  10.885   5.202   5.203 -0.3333 -0.1562 -0.9447
51698SOL    HW160931  10.879   5.296   5.216 -1.6316 -0.0495 -2.0697
51698SOL    HW260932  10.911   5.192   5.111 -0.3693 -0.8835 -0.8803
51699SOL     OW60933   8.566   4.962   8.360  0.0135  0.2012 -0.2015
51699SOL    HW160934   8.558   4.888   8.300  0.0721 -1.5722  1.8630
51699SOL    HW260935   8.480   4.968   8.402  0.6964 -0.2538  1.3270
51700SOL     OW60936   6.397   6.346  11.542 -0.4495 -0.6500 -0.6490
51700SOL    HW160937   6.396   6.331  11.447  0.0078 -0.9393 -0.6104
51700SOL    HW260938   6.483   6.314  11.571 -0.4181 -0.1770 -0.1990
51701SOL     OW60939   9.643   0.946   2.604 -0.2883  0.2284  0.0834
51701SOL    HW160940   9.589   1.025   2.606 -1.3986 -0.5244  0.4733
51701SOL    HW260941   9.607   0.894   2.532  1.7641  0.9517 -1.5731
51702SOL     OW60942   1.547   3.893   9.005  0.4977 -0.1290  0.2249
51702SOL    HW160943   1.631   3.857   9.032 -0.7513 -2.6610  1.0704
51702SOL    HW260944   1.545   3.881   8.910  1.2296  0.3039  0.1493
51703SOL     OW60945   0.069   4.566  11.570  0.1913 -0.1757  0.4115
51703SOL    HW160946   0.089   4.549  11.478 -2.6214 -1.1011 -0.1439
51703SOL    HW260947   0.072   4.662  11.577  2.7970 -0.1615  0.0471
51704SOL     OW60948   9.742   1.759   1.650  0.0654  0.3621  0.1408
51704SOL    HW160949   9.823   1.809   1.637 -0.0834 -0.0468 -3.1716
51704SOL    HW260950   9.680   1.799   1.590 -0.4828 -2.8033 -1.6006
51705SOL     OW60951   5.983   0.939   3.870 -0.4222  0.1928 -0.0516
51705SOL    HW160952   6.015   1.025   3.842  1.6557 -0.7675 -0.8496
51705SOL    HW260953   6.019   0.928   3.958 -1.8291  0.6610  0.6129
51706SOL     OW60954   5.076   5.058   3.288  0.2891 -0.4393  0.6216
51706SOL    HW160955   5.005   5.065   3.352  0.5070  0.8983  0.7358
51706SOL    HW260956   5.085   4.964   3.273  2.0162 -1.1023  4.5542
51707SOL     OW60957   2.387  11.803   4.121 -0.2446 -0.1070  0.5304
51707SOL    HW160958   2.440  11.734   4.161 -0.3467 -0.3014  0.3296
51707SOL    HW260959   2.399  11.791   4.027 -0.4122  0.0303  0.4914
51708SOL     OW60960   0.749   7.546   4.672 -0.2981 -0.4481  0.5952
51708SOL    HW160961   0.765   7.633   4.708 -0.3422 -1.1377  2.3698
51708SOL    HW260962   0.655   7.544   4.655 -0.1447  0.1800 -0.4588
51709SOL     OW60963   3.994   4.914   6.769 -0.2386  0.8822 -0.0506
51709SOL    HW160964   4.058   4.979   6.741 -0.1799  0.5174 -0.7830
51709SOL    HW260965   3.910   4.960   6.766 -0.0631  1.2540  0.5561
51710SOL     OW60966  11.741   7.772   4.673  0.6086 -0.4039  0.5149
51710SOL    HW160967  11.664   7.821   4.645  0.8931  0.6464  1.5156
51710SOL    HW260968  11.708   7.684   4.693  0.0919 -0.6636 -1.2680
51711SOL     OW60969   0.007   2.194   3.181 -0.1003  0.2064 -1.0352
51711SOL    HW160970   0.080   2.180   3.121 -0.3599 -0.1808 -1.2598
51711SOL    HW260971   0.026   2.137   3.255  0.0814  0.4832 -0.8657
51712SOL     OW60972   9.811   6.753  11.069 -0.6633  0.3469  0.1427
51712SOL    HW160973   9.802   6.693  10.995 -1.8214 -1.4379  1.6425
51712SOL    HW260974   9.872   6.820  11.038 -1.0259 -0.3766 -2.3654
51713SOL     OW60975   3.469   0.383   7.374  0.0323 -0.1191  0.5213
51713SOL    HW160976   3.390   0.436   7.382 -0.6074 -1.0593  0.4957
51713SOL    HW260977   3.541   0.444   7.393 -0.6727  0.8079  0.2576
51714SOL     OW60978   6.151   1.171  10.491 -0.2443 -0.1885 -0.4247
51714SOL    HW160979   6.162   1.083  10.455  2.9844 -1.2034  2.5127
51714SOL    HW260980   6.056   1.187  10.488 -0.8030 -3.1485 -2.2718
51715SOL     OW60981  10.494   1.665   8.861  0.0411  0.0758  0.3736
51715SOL    HW160982  10.566   1.609   8.889 -0.1646  0.6576  2.2109
51715SOL    HW260983  10.454   1.695   8.943 -1.0436  1.3648 -0.5879
51716SOL     OW60984   5.014   9.967   3.895  0.1934 -0.0596 -0.2796
51716SOL    HW160985   5.021   9.937   3.985 -1.2514  1.3401  0.3505
51716SOL    HW260986   5.098   9.944   3.855  0.8387 -0.7501  1.3866
51717SOL     OW60987   9.558   2.058   6.964 -0.6300 -0.2222 -0.2588
51717SOL    HW160988   9.641   2.093   6.931 -1.6260 -0.5070 -3.3678
51717SOL    HW260989   9.564   2.069   7.059  1.9040  2.0714 -0.5472
51718SOL     OW60990   4.719   4.201   8.440 -0.1043  0.1532  0.6692
51718SOL    HW160991   4.706   4.290   8.406  0.6866  0.4533  1.1385
51718SOL    HW260992   4.803   4.174   8.405 -0.3858 -0.4527  0.4562
51719SOL     OW60993   3.947   2.090   6.381 -0.4749  0.5913 -0.0548
51719SOL    HW160994   3.992   2.023   6.329 -0.0262  1.4942 -0.8682
51719SOL    HW260995   3.859   2.093   6.344 -1.6733 -1.9943  2.2944
51720SOL     OW60996   1.428   3.941   2.751 -0.0120  0.0731 -0.2643
51720SOL    HW160997   1.358   3.975   2.807 -0.1087 -0.5192 -0.0197
51720SOL    HW260998   1.390   3.940   2.663  0.5539  2.1958 -0.5812
51721SOL     OW60999  11.270   5.225   5.676  0.1625 -0.3238  0.1714
51721SOL    HW161000  11.331   5.201   5.746  0.7396 -1.4728 -0.6851
51721SOL    HW261001  11.325   5.232   5.597 -0.8554 -1.9731 -0.7394
51722SOL     OW61002  11.867   2.619  10.513  0.2946  0.2747  0.0216
51722SOL    HW161003  11.810   2.660  10.448  1.7263 -0.3954 -1.7284
51722SOL    HW261004  11.903   2.693  10.563 -1.0366  0.7792  0.2684
51723SOL     OW61005   9.725   7.915  12.181  0.3527  0.5770 -0.3522
51723SOL    HW161006   9.816   7.885  12.173  0.5895  0.7673  1.2716
51723SOL    HW261007   9.713   7.974  12.106  1.0035 -0.7726 -1.5521
51724SOL     OW61008   3.980  10.748   1.421 -0.2112  0.0157 -0.2916
51724SOL    HW161009   4.016  10.801   1.350  0.3980  0.0739  0.0556
51724SOL    HW261010   3.888  10.774   1.426  0.1424  1.2453  0.0555
51725SOL     OW61011   2.579   3.386   2.692  0.1981  0.2837 -0.7803
51725SOL    HW161012   2.502   3.425   2.734 -0.3838 -0.2919 -1.2907
51725SOL    HW261013   2.636   3.360   2.764  0.0852  1.0468 -0.4038
51726SOL     OW61014   6.768   8.913   3.200  0.6913  0.1828  0.6227
51726SOL    HW161015   6.741   8.826   3.228 -0.5852  0.5796  0.7115
51726SOL    HW261016   6.760   8.911   3.105  1.0280  0.0933  0.5951
51727SOL     OW61017   0.908   4.030  10.170 -0.2731  0.6277 -0.4909
51727SOL    HW161018   0.827   4.074  10.193  0.5714  1.2925  1.4833
51727SOL    HW261019   0.977   4.093  10.195  0.8888  1.2307 -4.5400
51728SOL     OW61020   2.009   7.062  10.858 -0.1370  0.2162  0.5558
51728SOL    HW161021   2.103   7.071  10.873 -0.3305  0.2552  1.8864
51728SOL    HW261022   1.993   6.968  10.867 -0.3246  0.2878  0.9655
51729SOL     OW61023   3.884   0.859  12.100  0.0350  0.1276  0.7881
51729SOL    HW161024   3.879   0.796  12.029 -0.1454  0.0231  0.8942
51729SOL    HW261025   3.973   0.850  12.134  0.1876  0.3232  0.4426
51730SOL     OW61026   4.678   2.035   5.002  0.2450  0.0020 -0.5427
51730SOL    HW161027   4.679   2.091   5.080  1.3910 -0.7609  0.0241
51730SOL    HW261028   4.715   2.090   4.933 -0.2059  0.4885 -0.4027
51731SOL     OW61029   8.605   5.045   3.302  0.1925 -0.1928  0.6101
51731SOL    HW161030   8.547   5.062   3.376  1.4954  0.0292  1.6175
51731SOL    HW261031   8.606   5.126   3.252  1.3006  0.5606  1.7956
51732SOL     OW61032   5.079   3.954   3.576  0.0286  0.3708 -0.5776
51732SOL    HW161033   5.019   4.019   3.612 -0.3724 -0.3429  0.0626
51732SOL    HW261034   5.053   3.871   3.617  1.4935  0.0577 -0.2274
51733SOL     OW61035   0.332   3.262  11.557  0.1284  0.0254 -0.0362
51733SOL    HW161036   0.298   3.206  11.487  0.8897 -1.0700  0.4288
51733SOL    HW261037   0.420   3.286  11.527 -0.2117  1.0138 -0.2477
51734SOL     OW61038  11.239   6.979   2.815 -0.1919  0.1249  0.1502
51734SOL    HW161039  11.196   6.896   2.796 -2.7904  1.1020  1.2575
51734SOL    HW261040  11.192   7.044   2.763  0.6607  1.1297  0.5838
51735SOL     OW61041   1.154   9.036   3.678  0.0119 -0.3851  0.5984
51735SOL    HW161042   1.217   9.076   3.618 -0.6157  0.3036  0.3885
51735SOL    HW261043   1.077   9.093   3.674 -0.5251 -1.0598  1.0614
51736SOL     OW61044   5.813   8.896   5.901  0.4505  0.2797  0.6811
51736SOL    HW161045   5.899   8.921   5.866 -0.2800 -0.7375 -2.0934
51736SOL    HW261046   5.830   8.816   5.950  0.9539 -0.6221 -0.8895
51737SOL     OW61047   3.275   7.645  11.085  0.6480  1.0128 -0.5099
51737SOL    HW161048   3.334   7.635  11.159  0.7679 -0.0983 -0.7318
51737SOL    HW261049   3.220   7.720  11.107  1.8421  1.7939 -0.1066
51738SOL     OW61050   2.952  11.225   9.087  0.3863  0.2500 -0.8004
51738SOL    HW161051   2.985  11.198   9.002  0.2293  0.2506 -0.8618
51738SOL    HW261052   3.020  11.199   9.149  0.2935 -0.1741 -0.8723
51739SOL     OW61053  11.643   2.585   0.922 -0.2909  0.0876 -0.3764
51739SOL    HW161054  11.660   2.574   1.016 -0.1550  0.8126 -0.3103
51739SOL    HW261055  11.564   2.534   0.906 -0.4148  0.0975  0.1709
51740SOL     OW61056   0.182   6.178   2.732 -0.3828 -0.7303 -0.1050
51740SOL    HW161057   0.095   6.213   2.709 -0.6461 -0.9279  0.5563
51740SOL    HW261058   0.242   6.224   2.675 -0.8311  0.0902  0.0634
51741SOL     OW61059   2.780   3.616   0.392  0.0987 -0.1071 -0.1229
51741SOL    HW161060   2.727   3.576   0.323 -2.5529  2.0982  0.4701
51741SOL    HW261061   2.770   3.558   0.467 -2.0104  0.4974  0.1265
51742SOL     OW61062   2.722  10.234   7.133  0.3363 -0.2039  0.0970
51742SOL    HW161063   2.731  10.147   7.095 -0.4938 -0.8157  1.2539
51742SOL    HW261064   2.790  10.239   7.200 -0.3961 -0.4526  0.8814
51743SOL     OW61065   9.970   0.964   4.673 -0.4504 -0.2204  0.5867
51743SOL    HW161066   9.935   0.938   4.588 -0.1295  1.4006 -0.0757
51743SOL    HW261067  10.065   0.966   4.660 -0.4813  1.5839  0.4922
51744SOL     OW61068  11.109   4.691  12.259  0.2204  0.3375 -0.0668
51744SOL    HW161069  11.175   4.758  12.240  0.7591 -0.1173  0.1738
51744SOL    HW261070  11.048   4.695  12.185 -0.9896  2.5682  0.9550
51745SOL     OW61071   9.527   8.569   9.688  0.3318 -0.1761  0.0089
51745SOL    HW161072   9.436   8.553   9.714 -0.5569  0.8705 -2.1352
51745SOL    HW261073   9.563   8.483   9.669 -0.2612 -0.5932  0.7505
51746SOL     OW61074   7.484   5.832   4.978  0.3499 -0.0863  0.3876
51746SOL    HW161075   7.441   5.826   5.063 -0.4246  0.6528  0.0578
51746SOL    HW261076   7.549   5.901   4.988  0.0587  0.2041  0.3062
51747SOL     OW61077   5.036   4.394   9.274  0.0925  0.2681 -0.0083
51747SOL    HW161078   4.968   4.369   9.211  0.2388 -1.3758  0.4372
51747SOL    HW261079   5.020   4.338   9.350  2.0461 -0.3260  0.0259
51748SOL     OW61080   6.909   8.634   2.899  0.1043 -0.4901 -0.0045
51748SOL    HW161081   6.926   8.714   2.850  0.2767 -1.4274 -1.5303
51748SOL    HW261082   6.814   8.625   2.898  0.1478 -0.9329 -0.9039
51749SOL     OW61083  10.798   7.147   2.913  0.4337  0.5805  0.6333
51749SOL    HW161084  10.869   7.209   2.930  0.3833  0.7493  0.2396
51749SOL    HW261085  10.842   7.062   2.907  0.6679  0.7426 -0.0625
51750SOL     OW61086   8.782  11.624   8.916  0.1600  0.3219  0.3598
51750SOL    HW161087   8.804  11.611   9.008  0.6601  2.0838  0.5124
51750SOL    HW261088   8.842  11.567   8.869  0.6522  0.2378  1.0783
51751SOL     OW61089   8.735   7.592   6.600 -0.5469 -0.1775 -0.1724
51751SOL    HW161090   8.644   7.623   6.599 -0.6897 -0.5945 -0.8280
51751SOL    HW261091   8.748   7.558   6.688 -0.6975  0.8280  0.2522
51752SOL     OW61092   9.023   3.517  11.393  0.3259  0.2509 -0.0340
51752SOL    HW161093   9.096   3.499  11.452 -0.5912  1.1327  1.4398
51752SOL    HW261094   8.979   3.592  11.432 -2.3856 -1.2767  0.0980
51753SOL     OW61095   2.568   1.916   0.210 -0.1704  0.2396  0.0076
51753SOL    HW161096   2.647   1.890   0.163  0.2635  2.9940 -0.9650
51753SOL    HW261097   2.534   1.990   0.160 -1.7836  0.9309  2.0133
51754SOL     OW61098   9.869  11.080  11.122 -0.7341 -0.4697  0.2933
51754SOL    HW161099   9.935  11.148  11.132 -1.1528  0.3774 -2.0854
51754SOL    HW261100   9.893  11.036  11.040 -2.9378 -0.3032 -0.4917
51755SOL     OW61101  11.234   9.987   9.497 -0.3292  0.3173  0.0643
51755SOL    HW161102  11.156   9.953   9.540 -0.2598  0.2178  0.1125
51755SOL    HW261103  11.207  10.002   9.407 -0.2502 -0.2625 -0.0626
51756SOL     OW61104   7.625  10.697   8.237 -0.4016  0.1225  0.4929
51756SOL    HW161105   7.631  10.603   8.220  1.3332  0.5196 -1.5250
51756SOL    HW261106   7.533  10.718   8.226 -0.4767 -0.9849 -1.4072
51757SOL     OW61107   4.563   6.806   2.386  0.2207 -0.0728 -0.2265
51757SOL    HW161108   4.563   6.900   2.404  1.2658 -0.4874  2.5470
51757SOL    HW261109   4.617   6.796   2.308  1.0366  1.5658  0.0856
51758SOL     OW61110  11.351   0.120   1.962  0.2539 -0.4928 -0.6823
51758SOL    HW161111  11.423   0.060   1.943  0.8445 -0.6738  1.7875
51758SOL    HW261112  11.326   0.100   2.052 -3.2098 -0.7061 -1.5585
51759SOL     OW61113   1.856   0.335   1.035  0.4798 -0.0245 -0.1542
51759SOL    HW161114   1.826   0.245   1.017  0.8015 -0.4659  1.3323
51759SOL    HW261115   1.776   0.387   1.034  0.0877 -0.5928  0.3764
51760SOL     OW61116   8.094  11.764   7.042  0.0588  0.4244 -0.0747
51760SOL    HW161117   8.032  11.725   6.981 -0.4180  1.7843 -0.5034
51760SOL    HW261118   8.151  11.818   6.988  3.1652 -2.4698 -0.0351
51761SOL     OW61119   5.552   9.920   8.130 -0.1036 -0.3336 -0.2362
51761SOL    HW161120   5.467   9.913   8.174 -0.0453  0.6835  0.0824
51761SOL    HW261121   5.531   9.954   8.043 -0.0101  0.1777 -0.0629
51762SOL     OW61122   3.389   2.989  10.724 -0.3495 -0.5835  0.0605
51762SOL    HW161123   3.457   2.925  10.744  1.1872  0.8564 -0.2958
51762SOL    HW261124   3.412   3.065  10.777 -2.5523 -0.5202  1.0420
51763SOL     OW61125  12.193  11.053   4.944 -0.4125 -0.1068 -0.0660
51763SOL    HW161126  12.251  11.067   5.019 -0.9246  1.5637  0.0733
51763SOL    HW261127  12.245  11.078   4.868 -0.2341 -0.7616 -0.1566
51764SOL     OW61128   2.116   0.908   3.401 -0.2913  0.3826 -0.6152
51764SOL    HW161129   2.093   0.978   3.462 -0.8391  1.8251 -2.3893
51764SOL    HW261130   2.069   0.930   3.320  0.5126 -1.3667 -1.6185
51765SOL     OW61131   6.092   2.833   4.252 -0.2403  0.5097  0.7267
51765SOL    HW161132   6.041   2.840   4.333  0.6148  0.6478  1.2645
51765SOL    HW261133   6.074   2.914   4.206 -0.5378  0.5421  0.8967
51766SOL     OW61134   4.300   6.386   8.102  0.4840 -0.4425 -0.4367
51766SOL    HW161135   4.215   6.408   8.062  0.6081 -0.1628 -0.5456
51766SOL    HW261136   4.308   6.292   8.089 -0.7007 -0.8353  1.2636
51767SOL     OW61137   0.827   8.847   8.281 -0.3211  0.6677 -0.0441
51767SOL    HW161138   0.855   8.863   8.190  0.2004  1.5246  0.2582
51767SOL    HW261139   0.794   8.932   8.311  0.5154  0.6706  0.9102
51768SOL     OW61140   3.371   6.025   0.931 -0.4775 -0.7254  0.4948
51768SOL    HW161141   3.439   6.003   0.995 -2.2700 -1.9108  2.1347
51768SOL    HW261142   3.328   6.103   0.968 -1.1812 -1.0939  0.4707
51769SOL     OW61143   1.695   2.685  11.824  0.2492 -0.1251 -0.1425
51769SOL    HW161144   1.635   2.658  11.754  1.4342 -0.6426 -0.9975
51769SOL    HW261145   1.652   2.656  11.904 -1.0823  0.3636 -0.6414
51770SOL     OW61146   6.510   9.573  10.644  0.0499  0.4150  0.2490
51770SOL    HW161147   6.547   9.486  10.630  2.0481  1.4562 -1.5096
51770SOL    HW261148   6.429   9.574  10.593  0.5716 -0.0991 -0.6184
51771SOL     OW61149   4.768  10.665  10.278  0.1892  0.1410  0.2672
51771SOL    HW161150   4.687  10.650  10.327 -1.1082  1.6819 -1.2790
51771SOL    HW261151   4.764  10.757  10.253 -0.3112 -0.9066 -4.4273
51772SOL     OW61152   9.817  10.559   2.954  0.4439  0.3742 -0.0494
51772SOL    HW161153   9.906  10.594   2.948  0.8644 -0.1610  2.1752
51772SOL    HW261154   9.765  10.630   2.992  0.5265 -0.1474  1.0979
51773SOL     OW61155   3.232   6.834   1.175  0.3183 -0.4805 -0.0513
51773SOL    HW161156   3.159   6.774   1.190 -0.1337 -0.1883 -1.0569
51773SOL    HW261157   3.246   6.876   1.260  0.2873 -1.6044  0.5234
51774SOL     OW61158  10.191   5.489   2.239  0.0809 -0.1773  0.5059
51774SOL    HW161159  10.112   5.465   2.287 -0.2311 -0.6226 -0.2228
51774SOL    HW261160  10.167   5.570   2.194  0.3371  0.1770  0.9952
51775SOL     OW61161   5.304   5.350   6.004 -0.1039  1.0496  1.0806
51775SOL    HW161162   5.390   5.337   5.965 -1.2328  2.5864 -2.3333
51775SOL    HW261163   5.249   5.281   5.965 -0.6871  0.7067  2.4347
51776SOL     OW61164   3.481   0.499   9.685  0.8326  0.0803  0.0290
51776SOL    HW161165   3.472   0.437   9.613  0.5211 -1.0271  1.0044
51776SOL    HW261166   3.454   0.451   9.763  1.3767  1.1831  0.9366
51777SOL     OW61167   5.758   5.771   5.501  0.2202  0.0396 -0.4351
51777SOL    HW161168   5.688   5.805   5.557  0.8551 -0.9211  1.0020
51777SOL    HW261169   5.716   5.702   5.449 -0.0644 -0.0382 -0.1063
51778SOL     OW61170   7.021   4.451   4.958 -0.2050 -0.0022  0.2476
51778SOL    HW161171   7.111   4.419   4.946  0.3913  1.7976 -0.4117
51778SOL    HW261172   7.016   4.475   5.050  0.0925  0.1886  0.2139
51779SOL     OW61173  11.171   3.951  12.031  0.4055 -0.2535  0.0424
51779SOL    HW161174  11.173   3.928  12.124  0.4342 -1.4555 -0.2450
51779SOL    HW261175  11.178   4.047  12.030 -1.5680 -0.0242  1.3614
51780SOL     OW61176   7.541  10.346  10.254  0.6470  0.7297  0.5788
51780SOL    HW161177   7.466  10.299  10.291  0.9870 -1.0904 -0.8680
51780SOL    HW261178   7.614  10.326  10.312  0.1880  1.9971  1.6416
51781SOL     OW61179   3.227   5.710   1.160 -0.1245  0.1393 -0.6375
51781SOL    HW161180   3.180   5.773   1.215 -0.9739 -1.4875  0.6007
51781SOL    HW261181   3.219   5.745   1.071  0.2518  2.2337  0.0864
51782SOL     OW61182  11.175   7.218   7.357  0.0759  0.0946  0.3257
51782SOL    HW161183  11.093   7.267   7.344  0.5500  0.6535 -0.6423
51782SOL    HW261184  11.147   7.134   7.392 -0.8854  0.4570  0.4598
51783SOL     OW61185   5.617   1.192   9.653 -0.0079 -0.7564 -0.1546
51783SOL    HW161186   5.532   1.209   9.613  0.2132  0.4899 -0.1509
51783SOL    HW261187   5.676   1.253   9.609  0.3855  0.1482  1.5343
51784SOL     OW61188   4.196   9.678   6.126 -0.2159 -0.3069  0.0991
51784SOL    HW161189   4.139   9.676   6.049  0.0973 -0.0467 -0.1402
51784SOL    HW261190   4.185   9.767   6.161 -0.5661 -0.5089  0.5156
51785SOL     OW61191   2.767  10.148  10.581 -0.1223  0.0034  0.4693
51785SOL    HW161192   2.711  10.157  10.504 -0.8773 -1.6115  0.7921
51785SOL    HW261193   2.855  10.164  10.548 -0.7266  2.8268 -0.0071
51786SOL     OW61194   7.529   9.933   4.550  0.1842  0.1911  0.1810
51786SOL    HW161195   7.438   9.919   4.524  1.0635  0.1521 -3.4488
51786SOL    HW261196   7.535  10.026   4.569 -0.5660  0.2635  0.0763
51787SOL     OW61197   4.537   2.198  10.076  0.3314 -0.3890  0.1872
51787SOL    HW161198   4.500   2.202  10.164  0.5689  0.6324  0.2472
51787SOL    HW261199   4.608   2.261  10.076 -0.0992  0.1290 -0.9442
51788SOL     OW61200  11.751   3.754   7.391  0.6718  0.6025  0.6764
51788SOL    HW161201  11.793   3.675   7.356 -2.0540 -1.5781  1.9257
51788SOL    HW261202  11.703   3.791   7.318 -0.6956 -0.8794  0.7626
51789SOL     OW61203   3.296   3.184   4.770 -0.1197  0.5364 -0.1979
51789SOL    HW161204   3.231   3.125   4.807  2.3922 -1.6276  1.1501
51789SOL    HW261205   3.311   3.151   4.681 -0.8034  1.0099 -0.4932
51790SOL     OW61206   1.259   8.240   7.610 -0.2993  0.4723 -0.4566
51790SOL    HW161207   1.275   8.331   7.636 -1.5177  1.0989 -1.7614
51790SOL    HW261208   1.344   8.197   7.621 -0.1734  1.2117  2.1835
51791SOL     OW61209   1.518  12.218   9.028  0.2641  1.1229  0.1308
51791SOL    HW161210   1.508  12.194   9.120  2.7685  1.7991  0.6494
51791SOL    HW261211   1.483  12.307   9.022  0.4002  1.2047  0.5174
51792SOL     OW61212   0.475   3.580   8.512 -0.1088  0.5013 -0.3881
51792SOL    HW161213   0.545   3.533   8.558  0.8709  0.8894 -1.4240
51792SOL    HW261214   0.452   3.523   8.439  1.6619  1.8665 -2.1401
51793SOL     OW61215  11.824  11.097   0.736 -0.0563 -0.5000 -0.6046
51793SOL    HW161216  11.868  11.058   0.661  0.4479 -0.4102 -0.3604
51793SOL    HW261217  11.762  11.030   0.765 -0.1915 -0.5708 -1.0423
51794SOL     OW61218  10.353   4.228   6.450 -0.1072 -0.0178 -0.2253
51794SOL    HW161219  10.281   4.290   6.461 -0.2299 -0.3435  0.9569
51794SOL    HW261220  10.317   4.143   6.477 -0.2341 -0.8482 -2.7258
51795SOL     OW61221  12.261   5.225   4.201 -0.0314 -0.1664 -0.0941
51795SOL    HW161222  12.352   5.236   4.231 -0.5297  0.2796  1.3465
51795SOL    HW261223  12.269   5.201   4.109  1.6733 -2.9053  0.6349
51796SOL     OW61224  12.300   7.802  10.722  0.1043 -0.2983  0.2724
51796SOL    HW161225  12.343   7.884  10.745 -1.4244  0.3887  0.7973
51796SOL    HW261226  12.281   7.761  10.806  1.0210 -1.3128  0.0114
51797SOL     OW61227   8.401   8.747   2.314  0.5102 -0.2918 -0.1360
51797SOL    HW161228   8.423   8.655   2.326  0.6992 -0.1966  0.2775
51797SOL    HW261229   8.321   8.747   2.262 -0.0823 -0.7192  0.7535
51798SOL     OW61230   3.686   7.481   9.207 -0.5712 -0.1914  0.2332
51798SOL    HW161231   3.642   7.416   9.153  0.1595 -1.2495  0.8820
51798SOL    HW261232   3.638   7.479   9.290 -0.1077 -0.4118  0.4958
51799SOL     OW61233  10.579   1.253   4.028 -0.2695 -0.0362  0.5584
51799SOL    HW161234  10.636   1.176   4.019 -0.7547 -0.6362  2.3182
51799SOL    HW261235  10.632   1.326   3.994  1.8585 -0.4543  2.7147
51800SOL     OW61236   7.774  11.217   1.705  0.4690  0.1258  0.1682
51800SOL    HW161237   7.743  11.148   1.763  0.5728 -0.4714 -0.4642
51800SOL    HW261238   7.709  11.287   1.713 -0.7197 -0.8356 -0.6339
51801SOL     OW61239   3.003   5.219   2.829 -0.2696 -0.1598 -0.2463
51801SOL    HW161240   2.967   5.261   2.907  0.9640 -1.2384  0.9589
51801SOL    HW261241   2.928   5.203   2.773 -1.0216  1.8530  0.1074
51802SOL     OW61242   5.029  11.212   8.240 -0.3505  0.0443  0.0128
51802SOL    HW161243   4.960  11.177   8.297 -1.6731  0.4177 -1.3060
51802SOL    HW261244   5.062  11.136   8.193  0.6012 -0.2329  1.0895
51803SOL     OW61245  10.864   6.705  10.910 -0.0878  0.0130  0.2155
51803SOL    HW161246  10.884   6.623  10.955 -1.0820  1.2135  3.0685
51803SOL    HW261247  10.772   6.721  10.929  0.1815  1.9636  0.0210
51804SOL     OW61248  10.962   0.724   0.972 -0.6061 -0.5995  0.3342
51804SOL    HW161249  10.904   0.792   1.007 -1.0370 -0.9428  0.3081
51804SOL    HW261250  11.034   0.771   0.931 -1.2425 -0.1390 -0.2779
51805SOL     OW61251   4.280   2.810   2.504  0.6503  0.2800  0.1058
51805SOL    HW161252   4.269   2.904   2.522 -0.0043  0.2021  0.1192
51805SOL    HW261253   4.206   2.768   2.547  0.9766 -0.2562  0.1571
51806SOL     OW61254   3.369  10.486   2.596  0.1132  0.1688  0.0367
51806SOL    HW161255   3.376  10.410   2.654  0.6571 -1.1001 -1.5842
51806SOL    HW261256   3.297  10.465   2.537 -0.3121  1.3389  0.1089
51807SOL     OW61257   7.784   0.023   0.488 -0.6321  0.5351 -0.1658
51807SOL    HW161258   7.839  -0.023   0.552 -1.2828 -0.8650 -0.5730
51807SOL    HW261259   7.776   0.112   0.523 -0.1869  0.0636  1.2001
51808SOL     OW61260  10.970   5.055   0.614 -0.2944  0.2366  0.3993
51808SOL    HW161261  11.025   5.071   0.691 -0.8380 -0.8757  1.0356
51808SOL    HW261262  11.030   5.064   0.540  0.6337 -0.3838  1.0532
51809SOL     OW61263   7.004  11.540   4.432 -0.2836 -0.4970  0.8946
51809SOL    HW161264   7.054  11.547   4.351 -0.0206  0.9874  1.1466
51809SOL    HW261265   7.049  11.599   4.493 -1.1206 -0.7386  1.7790
51810SOL     OW61266   5.013   2.100   1.037 -0.1701 -0.4145  0.4528
51810SOL    HW161267   5.087   2.092   1.098  0.3144  2.0463  0.2925
51810SOL    HW261268   5.047   2.068   0.954  1.0800  1.4506  0.1773
51811SOL     OW61269   1.776   3.137   3.564 -0.5097 -0.3995  0.5153
51811SOL    HW161270   1.772   3.228   3.537 -0.6628 -0.2542  1.0224
51811SOL    HW261271   1.867   3.112   3.550 -0.1425  0.2341  1.6395
51812SOL     OW61272   6.186   7.320   8.247  0.2042  0.1347  0.1570
51812SOL    HW161273   6.162   7.240   8.294 -0.9542  0.5873  0.3393
51812SOL    HW261274   6.235   7.288   8.171  0.3136 -0.7122  0.5707
51813SOL     OW61275  11.466   7.709  12.111  0.0031  0.0558  0.7643
51813SOL    HW161276  11.553   7.737  12.081 -0.6041 -0.4451 -1.7299
51813SOL    HW261277  11.422   7.791  12.135  0.4346  0.5636 -0.1193
51814SOL     OW61278   8.553   7.560   8.209  0.0070  0.4078  0.0717
51814SOL    HW161279   8.576   7.494   8.143  1.6006  1.5054 -0.5455
51814SOL    HW261280   8.620   7.628   8.198 -0.6283  1.3534  1.7866
51815SOL     OW61281   7.798   5.383   7.012  0.3521  0.2221 -0.4103
51815SOL    HW161282   7.815   5.384   7.106  0.5132  0.5335 -0.4406
51815SOL    HW261283   7.788   5.291   6.990 -1.0132  0.2058  0.1567
51816SOL     OW61284   3.489  11.153   0.394 -0.4008 -0.0474 -0.0697
51816SOL    HW161285   3.427  11.134   0.464  0.3378  0.8650  0.8624
51816SOL    HW261286   3.435  11.177   0.319 -1.1898  1.1441  0.8431
51817SOL     OW61287   2.536   3.419   9.294  0.1127 -0.3508  0.2788
51817SOL    HW161288   2.514   3.344   9.239 -1.9576  0.6590 -0.3552
51817SOL    HW261289   2.558   3.488   9.233 -1.3195  0.5230  0.7168
51818SOL     OW61290   6.133   8.555  11.746  0.1492 -0.3883  0.2692
51818SOL    HW161291   6.071   8.503  11.695 -1.3014  0.9384  0.6046
51818SOL    HW261292   6.164   8.621  11.684  0.0088 -0.0831  0.5202
51819SOL     OW61293   3.086   0.414   9.821 -0.0680 -0.1653 -0.3009
51819SOL    HW161294   3.088   0.325   9.786 -0.4994 -0.2639 -0.0865
51819SOL    HW261295   3.032   0.408   9.899 -1.2506  0.5363 -1.0217
51820SOL     OW61296   9.707   5.996   4.052 -0.3437  0.7142  0.1664
51820SOL    HW161297   9.754   5.917   4.025  1.2893  1.2704  1.2305
51820SOL    HW261298   9.720   6.000   4.147 -4.0974 -0.0388  0.8509
51821SOL     OW61299   6.891   2.971   4.621 -0.0377  0.1363  0.0657
51821SOL    HW161300   6.932   3.050   4.586  1.8212  0.0143  1.7758
51821SOL    HW261301   6.895   2.982   4.716 -0.3230 -1.7377  0.3389
51822SOL     OW61302   6.764   8.088   3.206 -0.4188 -0.1372  0.3501
51822SOL    HW161303   6.839   8.137   3.173 -0.0171 -0.2061  1.1458
51822SOL    HW261304   6.746   8.126   3.292 -1.8769  0.4937 -0.2008
51823SOL     OW61305   0.064   3.998   6.496  0.1882 -0.0349  0.0331
51823SOL    HW161306   0.052   3.957   6.582  0.1435 -2.2507 -0.9714
51823SOL    HW261307   0.016   3.942   6.436  3.2758 -0.7175 -2.0117
51824SOL     OW61308   8.227   1.732   2.695  0.3082 -0.3308  0.1134
51824SOL    HW161309   8.241   1.653   2.643  0.4510 -1.1145  1.3038
51824SOL    HW261310   8.134   1.751   2.684  0.4503 -0.1773 -0.8475
51825SOL     OW61311   4.750   8.554  11.868  0.3864 -0.4836 -0.0954
51825SOL    HW161312   4.753   8.638  11.823  0.3724 -0.5692 -0.2548
51825SOL    HW261313   4.838   8.518  11.858  1.2752  0.7660  2.3583
51826SOL     OW61314   9.601  11.737   1.769 -0.5517 -0.0906 -0.5259
51826SOL    HW161315   9.668  11.675   1.800 -0.6346  0.4708  0.8817
51826SOL    HW261316   9.634  11.823   1.796 -0.8926  0.3975 -1.6135
51827SOL     OW61317   6.922   9.006   0.670 -0.2443 -0.4972  0.3660
51827SOL    HW161318   6.879   9.087   0.644 -0.8443 -1.6811 -2.7887
51827SOL    HW261319   6.855   8.938   0.661  1.0248 -1.7497 -0.1762
51828SOL     OW61320   3.487   3.673   1.743  0.3371  0.2337 -0.0871
51828SOL    HW161321   3.557   3.629   1.792 -0.9874 -1.5012  0.3602
51828SOL    HW261322   3.531   3.706   1.665  1.8628  0.1795  0.6959
51829SOL     OW61323   6.696   1.710   0.359  0.0487  0.1672 -0.2183
51829SOL    HW161324   6.771   1.723   0.417 -1.1781 -0.6805  1.6780
51829SOL    HW261325   6.620   1.729   0.415 -1.1732  0.3060 -1.8667
51830SOL     OW61326  12.141   2.166   0.913 -0.4495 -0.0625 -0.2895
51830SOL    HW161327  12.114   2.170   1.005  0.0026  0.5894 -0.1785
51830SOL    HW261328  12.064   2.193   0.864 -0.1265  1.4852  0.0065
51831SOL     OW61329   7.059   3.423  11.214  0.3006 -0.5137  0.0883
51831SOL    HW161330   7.013   3.451  11.135 -1.7437  0.1539  1.4477
51831SOL    HW261331   7.018   3.340  11.238  0.4270 -0.3784  0.8116
51832SOL     OW61332   5.726  11.446   0.704 -0.2989 -0.1714  0.0655
51832SOL    HW161333   5.762  11.364   0.669 -0.5022  0.4919 -1.8087
51832SOL    HW261334   5.754  11.447   0.795  2.6621 -0.7328 -0.7120
51833SOL     OW61335   8.636   4.132   3.914 -0.3265 -0.2538  0.0965
51833SOL    HW161336   8.682   4.216   3.913  0.9623 -0.9237 -1.4029
51833SOL    HW261337   8.623   4.112   4.007 -1.5551  2.0338  0.4888
51834SOL     OW61338   1.985   5.918   6.533  0.1919 -0.2942  0.1739
51834SOL    HW161339   2.060   5.932   6.591  0.5695  0.7098 -0.5426
51834SOL    HW261340   1.961   6.006   6.503 -0.5768 -0.7182 -0.4870
51835SOL     OW61341   3.345   5.469   1.474 -0.3722  0.2973  0.1596
51835SOL    HW161342   3.431   5.435   1.497  0.7417  2.6496 -0.1600
51835SOL    HW261343   3.308   5.404   1.415  0.8496 -1.1258  0.8998
51836SOL     OW61344  10.139   5.363   7.335 -0.2782 -1.1288 -0.1622
51836SOL    HW161345  10.064   5.326   7.290 -0.0137 -0.8831 -0.8121
51836SOL    HW261346  10.213   5.309   7.306  0.3773  0.7849 -2.3290
51837SOL     OW61347  11.359  11.315  10.919  0.2044 -0.6650  0.1607
51837SOL    HW161348  11.285  11.319  10.858  0.1723 -3.3222 -0.0863
51837SOL    HW261349  11.420  11.382  10.887 -1.0157 -0.1011 -1.0943
51838SOL     OW61350   6.096   4.753   3.919  0.4131  0.7253 -0.5760
51838SOL    HW161351   6.179   4.759   3.967  0.4087 -0.1857 -0.4253
51838SOL    HW261352   6.083   4.659   3.906 -1.9944  0.5409  1.9503
51839SOL     OW61353   1.628   6.644   2.969 -0.4298 -0.2510 -0.5361
51839SOL    HW161354   1.719   6.626   2.991 -0.0855 -2.6286 -3.3498
51839SOL    HW261355   1.578   6.578   3.018 -0.6961  0.9339  0.8593
51840SOL     OW61356   9.705   5.490   0.314  0.4137  0.2752 -0.2243
51840SOL    HW161357   9.656   5.440   0.249  0.0705 -0.0599  0.2917
51840SOL    HW261358   9.796   5.482   0.286  0.4144 -0.9724  0.0676
51841SOL     OW61359   8.975  10.795  11.863  0.9040  0.3484 -0.1599
51841SOL    HW161360   9.037  10.781  11.791 -0.6273 -1.0193 -1.3088
51841SOL    HW261361   8.970  10.891  11.872  1.6300  0.5345 -1.4409
51842SOL     OW61362   7.109   9.190   6.798 -0.2528 -0.3743  0.2082
51842SOL    HW161363   7.053   9.246   6.852  0.5435  0.4039  0.2377
51842SOL    HW261364   7.164   9.250   6.749  1.3208 -1.1182  0.9681
51843SOL     OW61365   7.111   1.840  11.846 -0.1012 -0.0039  0.1661
51843SOL    HW161366   7.187   1.798  11.806 -0.1653  0.9724 -1.0584
51843SOL    HW261367   7.149   1.899  11.912  0.1813  0.0676 -0.0546
51844SOL     OW61368   4.010   1.783   8.576  0.0075 -0.1965 -0.3175
51844SOL    HW161369   4.050   1.713   8.524  0.5498  0.7665 -1.2093
51844SOL    HW261370   3.922   1.792   8.541 -0.3267 -0.9156  0.2926
51845SOL     OW61371   6.128   3.190   1.576 -0.7455  0.1563  0.2362
51845SOL    HW161372   6.132   3.233   1.491  0.0228 -0.2739  0.0393
51845SOL    HW261373   6.209   3.139   1.581 -2.2083 -2.3878 -0.1305
51846SOL     OW61374  11.535   8.285   2.290 -0.2419  0.1342  0.4940
51846SOL    HW161375  11.621   8.315   2.321 -1.0538  1.9759  1.0539
51846SOL    HW261376  11.528   8.195   2.323  1.3250  0.0673  0.7191
51847SOL     OW61377   7.035   3.135   6.802 -0.5728  0.4788  0.8445
51847SOL    HW161378   6.947   3.112   6.772 -0.4111 -0.1816  0.8527
51847SOL    HW261379   7.040   3.229   6.791 -1.1463  0.4742  0.4779
51848SOL     OW61380  11.852   9.701  11.335 -0.1805  0.3619  0.4071
51848SOL    HW161381  11.802   9.749  11.400 -3.5542 -2.8200  0.4806
51848SOL    HW261382  11.914   9.648  11.386  0.0332  0.8832  0.6913
51849SOL     OW61383  10.018   6.216   1.289  0.0941  0.5914  0.1265
51849SOL    HW161384   9.943   6.259   1.246 -0.9863  0.7089  2.0200
51849SOL    HW261385  10.067   6.289   1.329 -0.7832  0.2830  1.8733
51850SOL     OW61386   1.551   6.909   3.460  0.8292  0.0009 -0.7329
51850SOL    HW161387   1.547   6.985   3.517  1.6348 -0.1385 -0.4826
51850SOL    HW261388   1.561   6.944   3.372  2.1592  0.1826 -0.5267
51851SOL     OW61389   8.821  10.998   2.351  0.5568 -0.9186  0.6551
51851SOL    HW161390   8.771  11.058   2.296  0.3419 -0.4113  1.3898
51851SOL    HW261391   8.858  10.934   2.290 -0.9646 -1.2973  0.0750
51852SOL     OW61392  10.152   1.144   0.586 -0.3559 -0.5960 -0.3508
51852SOL    HW161393  10.075   1.090   0.570 -1.1754  0.5435 -0.3897
51852SOL    HW261394  10.201   1.097   0.654 -2.4088 -0.1311  1.5926
51853SOL     OW61395   9.191   9.484  11.998 -0.0789  0.1590 -0.6828
51853SOL    HW161396   9.207   9.392  11.976  3.1622  0.9565 -2.3478
51853SOL    HW261397   9.132   9.514  11.929  0.8196 -0.1401 -1.6195
51854SOL     OW61398   1.289   1.087   7.291 -0.0361 -0.3353  0.6273
51854SOL    HW161399   1.240   1.009   7.265  1.7341 -1.6711  1.1172
51854SOL    HW261400   1.225   1.141   7.338 -1.3793 -1.3354  0.0175
51855SOL     OW61401   1.936  11.338   1.380 -0.0784 -0.0245 -0.2945
51855SOL    HW161402   1.934  11.248   1.414 -0.3761 -0.3357 -1.1260
51855SOL    HW261403   1.936  11.392   1.459  4.2509 -0.7164  0.4581
51856SOL     OW61404   5.317   0.252   2.484  0.3390 -0.1735 -0.7708
51856SOL    HW161405   5.398   0.304   2.487  0.4051 -0.2312 -1.4301
51856SOL    HW261406   5.253   0.310   2.445  0.5308 -0.7253 -1.9552
51857SOL     OW61407  10.071   1.197   6.180 -0.8558  0.3449  0.0114
51857SOL    HW161408  10.112   1.125   6.131 -0.2653  0.7106 -0.0470
51857SOL    HW261409  10.145   1.248   6.214 -1.2003  1.9122 -1.3959
51858SOL     OW61410   1.548  11.692   5.290 -0.6908 -0.6053 -0.3961
51858SOL    HW161411   1.543  11.633   5.215 -0.0788 -0.1549 -0.8044
51858SOL    HW261412   1.637  11.680   5.324 -0.1595  0.8549 -1.1585
51859SOL     OW61413   5.728  10.539   5.082 -0.0280 -0.2618  0.0820
51859SOL    HW161414   5.661  10.598   5.048  1.3798  0.0737 -2.3195
51859SOL    HW261415   5.680  10.481   5.141 -1.9791  1.3983  0.2636
51860SOL     OW61416   0.261   1.761   4.853  0.2301  0.3623 -0.0798
51860SOL    HW161417   0.337   1.735   4.801  0.2683  0.6201 -0.1544
51860SOL    HW261418   0.289   1.839   4.900  1.1514 -1.4708  2.5997
51861SOL     OW61419   6.481   3.882   2.540  0.6096 -0.4575 -0.4279
51861SOL    HW161420   6.526   3.933   2.472 -1.1232  0.2331 -1.1015
51861SOL    HW261421   6.552   3.850   2.596  1.8490  1.7144 -0.6393
51862SOL     OW61422   6.629  10.105   1.510  0.0083 -0.6510 -0.1125
51862SOL    HW161423   6.583  10.188   1.527  0.6576 -0.5043  1.0778
51862SOL    HW261424   6.705  10.131   1.457  1.2114 -0.1541  1.7485
51863SOL     OW61425  11.150  11.403   5.744 -0.1264  0.3293  0.2824
51863SOL    HW161426  11.067  11.442   5.770  0.0667  0.0235  1.4036
51863SOL    HW261427  11.166  11.436   5.655  0.5316  3.6017  1.4900
51864SOL     OW61428  11.041  10.481   2.673  0.2466  0.5410  0.1379
51864SOL    HW161429  11.104  10.532   2.723 -0.2732  0.0598  1.3136
51864SOL    HW261430  11.016  10.410   2.732  0.4378 -0.6870 -1.1945
51865SOL     OW61431   1.655   0.298   9.459 -0.2005  0.5817 -0.1058
51865SOL    HW161432   1.741   0.316   9.497 -0.9701 -2.4288  3.7756
51865SOL    HW261433   1.654   0.203   9.445 -2.8225  0.5220 -0.0832
51866SOL     OW61434   6.597   9.978   3.488  0.6633  0.7653  0.4557
51866SOL    HW161435   6.603  10.066   3.526 -1.3266  1.0892  0.1127
51866SOL    HW261436   6.571   9.993   3.397  1.4000 -0.1590  0.0772
51867SOL     OW61437  10.481   4.033   7.528  0.7474  0.3326  0.5396
51867SOL    HW161438  10.406   4.046   7.471  0.6076  0.6642  0.7983
51867SOL    HW261439  10.452   4.065   7.614  0.9769 -0.1032  0.7810
51868SOL     OW61440   1.461   7.680   6.903  0.1204 -0.3197 -0.0691
51868SOL    HW161441   1.544   7.631   6.903 -0.2230 -0.9488  0.9316
51868SOL    HW261442   1.488   7.772   6.907  0.7766 -0.5030 -0.0721
51869SOL     OW61443  12.297  10.962  11.468  0.3190 -0.3541 -0.2370
51869SOL    HW161444  12.269  11.039  11.517 -0.9427 -0.6262 -0.4911
51869SOL    HW261445  12.215  10.918  11.443  0.9929 -2.3889  0.8599
51870SOL     OW61446   3.640   1.587  10.352 -0.6778  0.4056  0.1887
51870SOL    HW161447   3.623   1.680  10.343  2.2282  1.0039 -0.0956
51870SOL    HW261448   3.617   1.567  10.443 -0.4647  1.6407  0.5354
51871SOL     OW61449   2.169   4.409   8.243  0.0704  0.2774 -0.1034
51871SOL    HW161450   2.185   4.324   8.203  1.3884  0.0290  0.8738
51871SOL    HW261451   2.182   4.395   8.337 -1.2051  1.2316  0.2540
51872SOL     OW61452   7.364   2.195   2.470  0.3676 -0.4997  0.0623
51872SOL    HW161453   7.281   2.223   2.432  0.2808 -1.4439 -0.4770
51872SOL    HW261454   7.401   2.274   2.507 -0.8825 -0.1077  0.5252
51873SOL     OW61455   8.399   2.055  11.140 -0.1276 -0.2621 -0.2293
51873SOL    HW161456   8.382   2.002  11.062 -2.4373  1.1318 -0.7965
51873SOL    HW261457   8.417   2.143  11.106 -0.6314  0.2480  0.7769
51874SOL     OW61458  12.302   5.830   6.756  0.2920  0.4579  0.0902
51874SOL    HW161459  12.222   5.804   6.803  0.4242  1.0156  0.6382
51874SOL    HW261460  12.283   5.919   6.725  0.8254  0.7163  0.5040
51875SOL     OW61461  10.699   9.345   0.525  0.4000  0.4794  0.8898
51875SOL    HW161462  10.740   9.430   0.539  0.8220 -0.0263  3.2413
51875SOL    HW261463  10.700   9.304   0.612  1.8078 -2.6243 -0.4527
51876SOL     OW61464   7.204   9.980   4.772 -0.1540  0.5858  0.2803
51876SOL    HW161465   7.116   9.940   4.772  0.2638 -0.3669  1.3173
51876SOL    HW261466   7.195  10.058   4.827  0.0511 -0.4976  1.9109
51877SOL     OW61467  11.572   2.978   0.557 -0.3536  0.4465  0.0127
51877SOL    HW161468  11.520   2.903   0.531 -0.5292 -0.5742  2.9949
51877SOL    HW261469  11.525   3.017   0.631  1.2142  1.7111  0.4223
51878SOL     OW61470   5.709   1.136   2.466 -0.7119  0.0512 -0.0972
51878SOL    HW161471   5.620   1.135   2.432 -1.7286 -0.4519  2.3566
51878SOL    HW261472   5.764   1.118   2.390 -2.7503 -0.4717 -1.5309
51879SOL     OW61473   8.866   7.433   0.615 -0.2051  0.0690  0.2967
51879SOL    HW161474   8.936   7.383   0.573 -1.0029 -0.6530 -0.2141
51879SOL    HW261475   8.889   7.432   0.708  0.0081 -0.9334  0.2487
51880SOL     OW61476   4.732   4.806  11.783 -0.5073 -0.0495  0.2586
51880SOL    HW161477   4.680   4.871  11.830 -2.8376 -2.6012  1.4892
51880SOL    HW261478   4.822   4.836  11.794 -1.4991  3.8770 -0.8461
51881SOL     OW61479   1.254   4.675   9.961  0.4696  0.6485 -0.6109
51881SOL    HW161480   1.264   4.683  10.056  1.1192  1.3796 -0.7380
51881SOL    HW261481   1.310   4.601   9.937  1.0148  1.0398 -0.5456
51882SOL     OW61482   1.605   8.999   9.844 -0.6588  0.4169 -1.2278
51882SOL    HW161483   1.691   9.041   9.844 -0.3991 -0.0613  0.2107
51882SOL    HW261484   1.624   8.905   9.846 -1.1339  0.3017  1.1843
51883SOL     OW61485   2.995   9.249  11.314  0.7088  0.6100 -0.3057
51883SOL    HW161486   2.981   9.273  11.223  1.3055 -1.1655 -0.9129
51883SOL    HW261487   2.919   9.196  11.337  0.2430  1.5867  0.4443
51884SOL     OW61488   1.010  10.773   2.938 -0.0022 -0.3015  0.4387
51884SOL    HW161489   0.945  10.738   2.877  0.7685 -0.9594 -0.0174
51884SOL    HW261490   1.094  10.741   2.905  0.7004  1.5993  0.2662
51885SOL     OW61491   1.624  10.808   2.396  0.3714 -0.2763 -0.2304
51885SOL    HW161492   1.617  10.882   2.457 -0.0534 -0.8093  0.3793
51885SOL    HW261493   1.703  10.762   2.425 -0.2349 -0.9480  0.4094
51886SOL     OW61494   3.942   8.014  11.576  0.1890  0.5280  0.4964
51886SOL    HW161495   3.898   7.932  11.553  0.9367  0.5552 -1.1358
51886SOL    HW261496   3.871   8.078  11.583 -0.3963 -0.2212  1.7186
51887SOL     OW61497   6.398   1.534   0.031 -0.1993 -0.4193 -0.3879
51887SOL    HW161498   6.346   1.580  -0.035 -0.3518  0.6649  0.4630
51887SOL    HW261499   6.365   1.445   0.030  1.6407 -1.2388 -3.7084
51888SOL     OW61500   9.297   7.015   5.722  0.5148 -0.2725 -0.1628
51888SOL    HW161501   9.382   7.042   5.688  0.0507  1.1682 -0.2447
51888SOL    HW261502   9.239   7.088   5.703 -0.9076 -1.4805 -0.6541
51889SOL     OW61503   0.326   6.749   3.945  0.0683 -0.0800 -0.2967
51889SOL    HW161504   0.377   6.782   3.871  0.7503 -0.0836  0.1591
51889SOL    HW261505   0.321   6.823   4.005 -0.0428 -0.2277 -0.1240
51890SOL     OW61506   7.429  11.452   8.951  0.8216  0.1414  0.0237
51890SOL    HW161507   7.414  11.490   9.038  1.3832 -2.3109  1.2750
51890SOL    HW261508   7.524  11.458   8.939  0.8202 -0.1262 -0.1207
51891SOL     OW61509   7.854   6.457  10.804 -0.1838 -0.2681  0.2078
51891SOL    HW161510   7.829   6.539  10.763  0.9098  0.2792  0.6055
51891SOL    HW261511   7.908   6.482  10.879 -1.3657 -1.2767  1.4707
51892SOL     OW61512   0.027   5.385   7.542  0.0403  0.7915  0.2507
51892SOL    HW161513   0.086   5.383   7.618  1.1568  0.8130 -0.6012
51892SOL    HW261514  -0.014   5.298   7.542  1.5520  0.0454 -0.2789
51893SOL     OW61515   2.726  11.785  11.216 -0.2972  0.0579  0.1131
51893SOL    HW161516   2.691  11.710  11.265  2.3778 -2.3055 -1.3071
51893SOL    HW261517   2.720  11.759  11.124  2.9419  0.4272 -0.3176
51894SOL     OW61518   8.563  11.128   5.221  0.3810 -0.3960 -0.1856
51894SOL    HW161519   8.490  11.171   5.266  1.1676  0.8909 -0.1204
51894SOL    HW261520   8.631  11.119   5.288 -0.1973 -2.9539  0.1706
51895SOL     OW61521  11.093   9.986   0.838  0.1495 -0.6865  0.0970
51895SOL    HW161522  11.100   9.900   0.795 -2.6238 -1.6990  1.4563
51895SOL    HW261523  11.124   9.971   0.927 -1.0241 -0.4745  0.5486
51896SOL     OW61524   2.163   4.938   7.255  0.6614  0.3164  0.0792
51896SOL    HW161525   2.079   4.935   7.210  1.6211  0.4976 -1.7997
51896SOL    HW261526   2.207   5.016   7.220  1.0033  1.1508  2.2101
51897SOL     OW61527  11.083  10.437   7.547  0.1122  0.2051 -0.0129
51897SOL    HW161528  11.125  10.450   7.632 -1.1034  0.0154  0.6245
51897SOL    HW261529  11.109  10.514   7.496  1.2870  0.0597  0.3235
51898SOL     OW61530   6.091   0.521   4.357 -0.2323  0.9182 -0.0781
51898SOL    HW161531   6.128   0.565   4.433  0.1482 -0.9050  0.8439
51898SOL    HW261532   5.996   0.533   4.365 -0.4461 -1.4285  2.1925
51899SOL     OW61533   8.297   4.737   5.002  0.6174  0.1847  0.3082
51899SOL    HW161534   8.241   4.684   5.060 -1.0949 -0.2193 -1.6036
51899SOL    HW261535   8.361   4.675   4.968  0.3418 -0.0369  0.1889
51900SOL     OW61536   0.509  10.864   6.044 -0.0170 -0.1276 -0.3281
51900SOL    HW161537   0.562  10.803   5.992  1.4668 -0.2589  1.2483
51900SOL    HW261538   0.496  10.819   6.127 -0.5225  0.9402  0.1851
51901SOL     OW61539   2.124   7.648   2.453 -0.0304  0.3319  0.2441
51901SOL    HW161540   2.202   7.674   2.404  1.1673 -2.0738  0.7703
51901SOL    HW261541   2.072   7.598   2.390  0.6283 -1.1875  0.8825
51902SOL     OW61542   0.475  10.468  11.643  0.1964  0.0760 -0.2655
51902SOL    HW161543   0.405  10.416  11.603  0.4386 -1.6166  1.3879
51902SOL    HW261544   0.473  10.551  11.595 -2.6326 -0.0684 -0.5794
51903SOL     OW61545   2.175   5.602   6.755 -0.7602  0.2750  0.5292
51903SOL    HW161546   2.211   5.558   6.832 -1.0605 -1.6927 -0.3835
51903SOL    HW261547   2.149   5.688   6.787  0.1849 -0.0556  2.3445
51904SOL     OW61548  10.470   6.440   5.326 -0.6887 -0.0416 -0.1447
51904SOL    HW161549  10.475   6.365   5.267  0.6444 -0.3520  0.3351
51904SOL    HW261550  10.394   6.422   5.381  0.2766 -1.6568  0.7420
51905SOL     OW61551  11.587   3.490   0.995 -0.0148 -0.2052 -0.2750
51905SOL    HW161552  11.537   3.409   1.007 -0.5565 -0.0079 -1.1199
51905SOL    HW261553  11.620   3.484   0.905  0.0409  0.4518 -0.3021
51906SOL     OW61554   6.156   2.453  12.204  0.2962  0.5612  0.7963
51906SOL    HW161555   6.080   2.502  12.235  0.3083 -0.3363  2.3696
51906SOL    HW261556   6.232   2.503  12.234  0.3242  1.0290 -0.0504
51907SOL     OW61557   1.539  11.651   2.005 -0.1996 -0.2220 -0.4216
51907SOL    HW161558   1.634  11.637   2.008  0.0222  0.8477 -1.4844
51907SOL    HW261559   1.502  11.564   2.006  0.7539 -0.6506  0.8847
51908SOL     OW61560   8.518   3.509   4.265  0.3420  0.0364 -0.7023
51908SOL    HW161561   8.530   3.457   4.186 -0.0320  0.4170 -1.0160
51908SOL    HW261562   8.461   3.456   4.321 -0.3961  0.2797 -1.2022
51909SOL     OW61563   1.474   0.206   5.861  0.5766  0.5387 -0.2370
51909SOL    HW161564   1.438   0.200   5.773 -0.7467 -0.4864  0.3415
51909SOL    HW261565   1.505   0.296   5.868  1.2920  0.4524 -1.9497
51910SOL     OW61566   2.970   4.492   8.973  0.0450 -0.1953  0.5574
51910SOL    HW161567   2.904   4.497   8.904  0.5616 -0.4533  0.0397
51910SOL    HW261568   3.052   4.473   8.927  0.5346  0.3810  1.1602
51911SOL     OW61569   4.783   4.338   5.519 -0.6009  0.2189  0.1874
51911SOL    HW161570   4.769   4.259   5.572 -0.2604  0.8656  1.2712
51911SOL    HW261571   4.874   4.362   5.534  0.2683 -0.9302 -2.6368
51912SOL     OW61572   4.063   3.819   8.393 -0.1659  0.5619 -0.1789
51912SOL    HW161573   4.124   3.887   8.364 -1.5749  1.1293 -1.9438
51912SOL    HW261574   4.100   3.738   8.359  0.4095  0.7003  0.1017
51913SOL     OW61575  10.637   4.221   7.372  0.2197 -0.1712 -0.1943
51913SOL    HW161576  10.558   4.174   7.347 -1.2342  2.3828 -0.6856
51913SOL    HW261577  10.665   4.180   7.454 -1.0910 -1.6715 -0.4635
51914SOL     OW61578   8.718  11.508   6.163  0.3842  0.1580  0.4247
51914SOL    HW161579   8.800  11.554   6.179  1.8049 -0.5852 -3.5051
51914SOL    HW261580   8.745  11.422   6.129 -1.9791 -0.1016 -1.0574
51915SOL     OW61581   2.388   6.070   0.244  0.1811  0.1485  0.1765
51915SOL    HW161582   2.462   6.034   0.195 -0.3864 -0.7155 -0.0667
51915SOL    HW261583   2.314   6.013   0.222 -0.3137  0.3395  1.2738
51916SOL     OW61584  11.803   1.855   2.139 -0.2003 -0.4378 -0.1815
51916SOL    HW161585  11.790   1.845   2.045  2.9619 -1.1109 -0.6441
51916SOL    HW261586  11.819   1.949   2.151 -1.8842 -0.1335 -0.0603
51917SOL     OW61587  11.885  11.331  10.940  0.4543 -0.4056  0.2506
51917SOL    HW161588  11.810  11.285  10.902 -1.3089  3.2988 -1.2329
51917SOL    HW261589  11.961  11.290  10.899 -0.6271 -3.7602  1.2035
51918SOL     OW61590   6.836   1.753   8.697  0.5874  0.3371  0.1744
51918SOL    HW161591   6.811   1.761   8.789 -0.1323 -1.4786  0.1922
51918SOL    HW261592   6.756   1.723   8.653  1.3856 -0.6349 -0.6796
51919SOL     OW61593   4.931  11.694   5.080 -0.0074  0.0181  0.3099
51919SOL    HW161594   4.951  11.748   5.004  2.2609  0.0863  0.8897
51919SOL    HW261595   4.837  11.707   5.095 -0.3247  0.6591 -1.9326
51920SOL     OW61596   3.645   0.655  11.606  0.1811 -0.2093  0.1054
51920SOL    HW161597   3.648   0.672  11.511  0.5266  1.0774  0.3288
51920SOL    HW261598   3.636   0.742  11.645  2.2758 -0.4958  1.3620
51921SOL     OW61599   9.829   9.250  10.612 -0.0835 -0.4162 -0.1835
51921SOL    HW161600   9.876   9.284  10.688 -0.5172 -0.2944  0.0331
51921SOL    HW261601   9.770   9.321  10.586 -0.9945 -0.9858  0.2697
51922SOL     OW61602   0.125   7.564   2.452 -0.9157  0.2033  0.4411
51922SOL    HW161603   0.088   7.647   2.423 -0.2015  0.7520  1.0723
51922SOL    HW261604   0.059   7.529   2.512 -1.1158  0.4238  0.3523
51923SOL     OW61605   6.721   8.261   3.975 -0.2121 -0.0869  0.8215
51923SOL    HW161606   6.740   8.214   4.057  2.0519  1.8215  1.5171
51923SOL    HW261607   6.716   8.192   3.909 -1.2976 -1.6206  2.4140
51924SOL     OW61608   6.013   1.084  11.151  0.0608  0.6260  0.0703
51924SOL    HW161609   5.954   1.146  11.108 -0.2412  0.0132 -0.4338
51924SOL    HW261610   5.968   0.999  11.143  1.0324  0.1355 -0.3703
51925SOL     OW61611   7.571   3.401  11.770 -0.2632  0.1722  0.0224
51925SOL    HW161612   7.488   3.448  11.783  0.7593  1.3330  3.2952
51925SOL    HW261613   7.581   3.348  11.849  1.2496 -1.4131 -1.1630
51926SOL     OW61614   4.841   8.224   8.937  0.6452  0.0947 -0.2379
51926SOL    HW161615   4.935   8.221   8.957  0.9572 -0.2441 -1.6325
51926SOL    HW261616   4.809   8.137   8.961  0.4792  0.4903  1.0726
51927SOL     OW61617   1.950   1.153  11.304 -0.5192 -0.0228  0.1023
51927SOL    HW161618   2.025   1.105  11.268 -0.5726 -0.5527  0.6914
51927SOL    HW261619   1.983   1.191  11.385 -1.1044 -0.9201  0.7718
51928SOL     OW61620   5.779   9.877   1.245 -0.1365 -0.3109 -0.4772
51928SOL    HW161621   5.868   9.913   1.248  0.7067 -2.2092 -0.9306
51928SOL    HW261622   5.732   9.934   1.185  0.4888  1.2798  0.4820
51929SOL     OW61623   0.946   6.894   4.093  0.2413  0.2483 -0.2269
51929SOL    HW161624   0.978   6.855   4.174  0.9742  0.7953 -0.2416
51929SOL    HW261625   0.912   6.820   4.043 -1.4739  0.0682  1.1263
51930SOL     OW61626   1.889   5.279   6.499  1.1893  0.4919 -0.1135
51930SOL    HW161627   1.839   5.331   6.435 -1.6348 -0.4542  1.1657
51930SOL    HW261628   1.850   5.192   6.495  3.3821 -0.5766  0.3985
51931SOL     OW61629   1.288   8.651   6.576 -0.1846  0.1646  0.3444
51931SOL    HW161630   1.301   8.677   6.484 -0.1713 -0.7228  0.0891
51931SOL    HW261631   1.316   8.727   6.626 -0.1021  0.6284 -0.3885
51932SOL     OW61632   6.717   8.785  11.123 -1.0394  0.4655 -0.2076
51932SOL    HW161633   6.670   8.762  11.203 -1.3615 -0.7063 -0.7055
51932SOL    HW261634   6.777   8.855  11.149 -0.4338 -0.5624  1.2701
51933SOL     OW61635   1.523  10.432   0.463 -0.0049 -0.0708  0.0166
51933SOL    HW161636   1.508  10.353   0.515  0.2803 -0.6866 -0.8282
51933SOL    HW261637   1.493  10.410   0.375 -1.8863  1.4508  0.2043
51934SOL     OW61638   6.030   5.419   9.779  0.3278 -0.2935 -0.1895
51934SOL    HW161639   6.063   5.377   9.700 -0.3949 -2.0573  0.4066
51934SOL    HW261640   5.942   5.448   9.756  0.6633  0.5530 -0.4616
51935SOL     OW61641   1.074   1.642  12.264  0.0725  0.3701 -0.4412
51935SOL    HW161642   1.000   1.658  12.322  0.6027  0.4999  0.2146
51935SOL    HW261643   1.068   1.709  12.196 -0.5730  0.1923 -0.5611
51936SOL     OW61644   9.057   4.783   5.347 -0.3082  0.0966  0.2256
51936SOL    HW161645   9.033   4.815   5.435 -1.0564 -1.5554  0.6558
51936SOL    HW261646   9.149   4.808   5.337  0.0845 -0.5447  1.8948
51937SOL     OW61647   0.793  11.018   4.471  0.3222  0.3954 -0.0613
51937SOL    HW161648   0.824  11.102   4.436  3.2078 -1.0115 -1.2510
51937SOL    HW261649   0.864  10.989   4.528 -1.1457 -0.7363  1.2574
51938SOL     OW61650   1.917   7.438   6.443 -0.3781  0.4570  0.0907
51938SOL    HW161651   1.918   7.407   6.534 -0.3537  0.5750  0.1316
51938SOL    HW261652   1.970   7.518   6.445  1.0723 -0.4621 -0.3600
51939SOL     OW61653   0.789   5.918  10.447  0.1979 -0.2907  0.8600
51939SOL    HW161654   0.695   5.917  10.433  0.1147  0.3646  1.3101
51939SOL    HW261655   0.816   6.006  10.421  0.8317 -0.7753 -0.1563
51940SOL     OW61656   8.864   8.228   1.470  0.3928  0.1271 -0.0108
51940SOL    HW161657   8.769   8.226   1.461  0.4759 -0.9191 -0.8768
51940SOL    HW261658   8.896   8.260   1.386  0.7753  2.0675  0.8246
51941SOL     OW61659   1.036   4.106   0.984  0.1698  0.5404 -0.2490
51941SOL    HW161660   0.951   4.134   0.951  0.0027 -0.5250 -0.7581
51941SOL    HW261661   1.088   4.089   0.906  0.5451  0.2834  0.0524
51942SOL     OW61662  10.423   0.270   5.749 -0.4708  0.2285 -0.3034
51942SOL    HW161663  10.438   0.257   5.656 -0.2129  0.6174 -0.3220
51942SOL    HW261664  10.408   0.364   5.758 -1.0262  0.1168 -0.0235
51943SOL     OW61665   4.855   1.025   8.107  0.5518 -0.2119  0.2145
51943SOL    HW161666   4.846   1.111   8.149  1.2348 -0.1336  0.1977
51943SOL    HW261667   4.777   1.018   8.051  0.3986  0.3147  0.3547
51944SOL     OW61668   3.329   2.800   7.803 -0.1094 -0.2159 -0.2533
51944SOL    HW161669   3.246   2.812   7.849 -0.2367 -5.0221  1.4038
51944SOL    HW261670   3.396   2.812   7.871  0.5224  2.0159 -1.2012
51945SOL     OW61671   2.188  11.307   3.652 -0.3472  0.1127 -0.2356
51945SOL    HW161672   2.271  11.271   3.683 -1.4491  0.2547  3.2007
51945SOL    HW261673   2.149  11.235   3.603  0.8370 -0.6964 -0.0411
51946SOL     OW61674   6.795  10.209  12.039 -0.3480 -0.9664  0.3094
51946SOL    HW161675   6.778  10.196  11.945 -1.1074 -1.8980  0.5657
51946SOL    HW261676   6.776  10.302  12.053 -0.4178 -0.8585 -0.4194
51947SOL     OW61677  10.793   8.865  11.919 -0.0383  0.5462 -0.2206
51947SOL    HW161678  10.813   8.885  12.010 -1.9380 -2.1272  0.9438
51947SOL    HW261679  10.848   8.789  11.898  0.3781  1.1289 -1.3303
51948SOL     OW61680   5.874   6.624   0.016  0.0122 -0.0821 -0.6586
51948SOL    HW161681   5.803   6.612   0.079 -0.1468 -2.6195 -1.2189
51948SOL    HW261682   5.954   6.601   0.063  0.0821 -0.3681 -0.9099
51949SOL     OW61683   8.296   8.404  11.538 -0.5086 -0.3201  0.0857
51949SOL    HW161684   8.266   8.493  11.557  1.0086  0.9247 -2.7380
51949SOL    HW261685   8.230   8.369  11.478 -0.9645 -1.0539  0.9858
51950SOL     OW61686  11.895  11.332   1.184  0.0944  0.2519 -0.3272
51950SOL    HW161687  11.906  11.274   1.110 -1.0348  0.8051 -0.9628
51950SOL    HW261688  11.812  11.305   1.224  0.2872  0.4795  0.2466
51951SOL     OW61689   1.170   1.337   5.267  0.4499  0.2379 -0.2339
51951SOL    HW161690   1.246   1.394   5.275 -0.7490  1.9097 -0.4039
51951SOL    HW261691   1.146   1.343   5.175  0.2912 -0.5489 -0.2484
51952SOL     OW61692   3.714   3.130   4.497  0.0354  0.1555  0.2357
51952SOL    HW161693   3.642   3.191   4.484  0.4701  0.6059 -0.0657
51952SOL    HW261694   3.794   3.183   4.487  0.4144 -0.1094  1.6445
51953SOL     OW61695   7.708   9.408  11.110 -0.4482  0.3636  0.0165
51953SOL    HW161696   7.622   9.412  11.066 -0.0657  4.9545 -0.8067
51953SOL    HW261697   7.771   9.407  11.038  0.3210 -2.4688  0.6249
51954SOL     OW61698   1.166   8.854   2.046 -0.0571  0.4512 -0.4962
51954SOL    HW161699   1.185   8.793   1.976 -2.4056  1.8314 -2.5075
51954SOL    HW261700   1.187   8.940   2.010  2.2532  1.0432  1.9100
51955SOL     OW61701  10.735   2.342   2.579  0.0848  0.3856 -0.3402
51955SOL    HW161702  10.728   2.263   2.526 -1.3446 -0.2914  0.8094
51955SOL    HW261703  10.744   2.310   2.669 -0.8894  1.5180  0.1789
51956SOL     OW61704   7.223  12.038   8.632 -0.1117  0.0107  0.1725
51956SOL    HW161705   7.192  12.126   8.651  0.6868  0.3406 -0.0135
51956SOL    HW261706   7.172  12.010   8.556 -0.7830  0.0810  0.5966
51957SOL     OW61707   2.108  10.691  12.224  0.6948 -0.0523  0.2286
51957SOL    HW161708   2.012  10.689  12.216  0.7046  1.3034 -0.6557
51957SOL    HW261709   2.123  10.719  12.315  0.1247  3.1925 -0.5429
51958SOL     OW61710   2.890   9.723   8.801  0.2705  0.2249  0.1110
51958SOL    HW161711   2.857   9.756   8.717 -0.1280  1.0411  0.5772
51958SOL    HW261712   2.959   9.785   8.825  0.1686  0.1761  0.5339
51959SOL     OW61713   7.996   6.068   3.249  0.2527 -0.1937  0.4391
51959SOL    HW161714   8.067   6.007   3.270  0.6392 -0.0936 -0.5068
51959SOL    HW261715   7.950   6.082   3.332 -0.0018 -1.9704  0.6309
51960SOL     OW61716   2.268   4.027   5.056 -0.3624  0.4389  0.0036
51960SOL    HW161717   2.353   3.983   5.066 -0.4731 -0.2801 -1.9203
51960SOL    HW261718   2.282   4.092   4.988 -1.2261  0.7012  0.0613
51961SOL     OW61719   7.458   7.773  11.796  0.9047  0.4008 -0.2318
51961SOL    HW161720   7.540   7.761  11.844  0.7028 -1.1359 -0.1953
51961SOL    HW261721   7.485   7.782  11.704  1.1394  0.3845 -0.1657
51962SOL     OW61722   2.715   7.510  11.383  0.2856  0.0823  0.0536
51962SOL    HW161723   2.764   7.514  11.301 -0.9067 -2.1537 -0.8699
51962SOL    HW261724   2.782   7.508  11.451  1.5043 -1.8814 -1.1086
51963SOL     OW61725   1.419   4.403   0.208  0.4135  0.5305 -0.0011
51963SOL    HW161726   1.394   4.484   0.253 -2.0727 -1.2271  2.0462
51963SOL    HW261727   1.464   4.352   0.274 -1.8799 -1.4488  0.1841
51964SOL     OW61728   0.141   5.821   6.497  0.0006 -0.0283 -0.5392
51964SOL    HW161729   0.146   5.813   6.592  1.3355 -1.0854 -0.6700
51964SOL    HW261730   0.206   5.887   6.474  0.3745 -0.4711 -0.7823
51965SOL     OW61731   7.422   0.022   2.865  0.4326  0.3774  0.0895
51965SOL    HW161732   7.476   0.039   2.942  1.4471  0.4440 -0.6248
51965SOL    HW261733   7.391  -0.067   2.877  0.2338  0.5314  0.7765
51966SOL     OW61734  11.982   1.120  11.734  0.0098  0.2336  0.0419
51966SOL    HW161735  11.918   1.050  11.723 -0.7724  0.8497  0.5359
51966SOL    HW261736  12.060   1.076  11.767  0.4930 -0.7974 -2.2858
51967SOL     OW61737   5.407   4.236   1.840  0.3992 -0.1314 -0.2901
51967SOL    HW161738   5.366   4.321   1.856  0.8234 -0.0533  0.4563
51967SOL    HW261739   5.338   4.172   1.861  0.8452 -0.0249  1.7669
51968SOL     OW61740   3.003   4.915   9.183  0.1639 -0.3553 -0.6471
51968SOL    HW161741   2.982   4.822   9.189  0.0028 -0.2279  1.1381
51968SOL    HW261742   3.078   4.919   9.123  0.6824 -1.7145 -0.1190
51969SOL     OW61743   5.887   8.254   9.116 -0.1296 -0.0611  0.1099
51969SOL    HW161744   5.812   8.223   9.167  0.2850 -0.2883  0.5963
51969SOL    HW261745   5.963   8.232   9.170  0.2713  0.4169 -0.2513
51970SOL     OW61746   9.653   8.674   3.789 -0.3177  0.3154  0.2442
51970SOL    HW161747   9.693   8.748   3.835 -1.4090  1.2438 -0.2509
51970SOL    HW261748   9.721   8.645   3.728 -0.0230  1.1944  0.1359
51971SOL     OW61749   3.390   7.125   3.768 -0.2565 -0.2141  0.0784
51971SOL    HW161750   3.316   7.099   3.822 -1.5204 -1.3231 -2.0288
51971SOL    HW261751   3.383   7.220   3.761 -1.9450 -0.3607 -0.6422
51972SOL     OW61752   8.558   8.338   7.803 -0.3695  0.3006 -0.6769
51972SOL    HW161753   8.500   8.402   7.763 -0.2752  1.2535  0.6595
51972SOL    HW261754   8.625   8.390   7.847 -0.2587 -0.7080  0.3843
51973SOL     OW61755   1.320   0.316  10.262  0.3017  0.6075  0.6143
51973SOL    HW161756   1.252   0.250  10.251  0.6609  0.5371 -1.7295
51973SOL    HW261757   1.300   0.357  10.346 -0.6417 -1.6281  1.5651
51974SOL     OW61758   4.502   3.092   6.247  0.1101  0.6521 -0.1575
51974SOL    HW161759   4.422   3.098   6.194 -0.2066 -0.2736  0.1960
51974SOL    HW261760   4.567   3.141   6.198 -0.9382  2.3439  0.0640
51975SOL     OW61761   5.499   1.445  11.466  0.5818 -0.5094 -0.1885
51975SOL    HW161762   5.476   1.493  11.386  0.3848  0.4804  0.4399
51975SOL    HW261763   5.449   1.363  11.460  0.6559 -0.5000 -1.1209
51976SOL     OW61764   1.414   8.629   5.325 -0.3531 -0.3075 -0.3260
51976SOL    HW161765   1.410   8.663   5.236 -0.2791 -1.5376 -0.8135
51976SOL    HW261766   1.396   8.705   5.381  0.3478  0.6400 -1.3474
51977SOL     OW61767   7.249   7.083   5.253 -0.5636 -0.2160 -0.6864
51977SOL    HW161768   7.174   7.036   5.218 -0.2595 -0.4937 -0.9702
51977SOL    HW261769   7.235   7.174   5.226 -0.4805 -0.3762 -1.2766
51978SOL     OW61770  10.968   9.569   8.178  0.2325 -0.5343 -1.2439
51978SOL    HW161771  11.057   9.603   8.174  1.2923 -3.1625 -1.2047
51978SOL    HW261772  10.918   9.627   8.119  2.1251  0.4434 -1.9540
51979SOL     OW61773   4.190   8.288   5.644  0.1205  0.4420 -0.0575
51979SOL    HW161774   4.205   8.373   5.684  2.8430  1.3720 -2.7514
51979SOL    HW261775   4.256   8.231   5.683 -0.4119  0.0403  0.2819
51980SOL     OW61776   4.530   0.758   4.076 -0.0813  0.2503 -0.2771
51980SOL    HW161777   4.589   0.704   4.129 -0.5426  0.3322  0.3210
51980SOL    HW261778   4.483   0.695   4.021  0.3556  0.1609 -0.5571
51981SOL     OW61779  10.500  12.279   5.331  0.1466 -0.1270 -0.1590
51981SOL    HW161780  10.465  12.325   5.255 -0.9075 -0.9029 -0.1626
51981SOL    HW261781  10.446  12.201   5.339 -0.2855  0.3198  1.8549
51982SOL     OW61782  12.021   3.493   3.557  0.2182 -0.4444 -0.5746
51982SOL    HW161783  12.055   3.466   3.472  0.4100 -1.3424 -0.2147
51982SOL    HW261784  11.941   3.542   3.536 -0.0988 -1.2327 -1.2414
51983SOL     OW61785   8.640  10.235   8.280 -0.0754  0.2020 -0.2156
51983SOL    HW161786   8.650  10.289   8.202 -0.4159 -0.9768 -1.1114
51983SOL    HW261787   8.604  10.153   8.248 -1.0001 -0.0274  1.3013
51984SOL     OW61788   4.985  10.033   9.664  0.5006  0.3195  0.2866
51984SOL    HW161789   4.989  10.082   9.745  0.3971  0.1080  0.4227
51984SOL    HW261790   4.977  10.099   9.595  0.5226  0.4950  0.4537
51985SOL     OW61791   0.052  10.551  10.921  0.4430  0.0591  0.6158
51985SOL    HW161792   0.105  10.471  10.918 -0.7504 -0.7571  0.9998
51985SOL    HW261793   0.009  10.554  10.835 -0.6100 -0.4895  1.1064
51986SOL     OW61794   8.810  11.533   0.737 -0.2052  0.3045  0.0675
51986SOL    HW161795   8.888  11.582   0.713 -0.8068  0.8634 -0.8325
51986SOL    HW261796   8.738  11.594   0.721 -0.8859 -0.4716  0.1079
51987SOL     OW61797   4.165   9.280   5.829  0.2696 -0.0412  0.3322
51987SOL    HW161798   4.191   9.365   5.865 -1.5920  1.0853 -0.7887
51987SOL    HW261799   4.072   9.274   5.848 -0.2525 -0.5114 -2.0389
51988SOL     OW61800   1.861   2.268   9.785  0.4287  0.4155  0.0218
51988SOL    HW161801   1.841   2.174   9.789 -1.0589  0.7228  0.3344
51988SOL    HW261802   1.947   2.276   9.827 -0.1428 -0.6078  1.4757
51989SOL     OW61803   9.812   1.845  10.088  0.1410 -0.3215  0.4072
51989SOL    HW161804   9.766   1.917  10.132  0.4827  0.0504  0.1623
51989SOL    HW261805   9.895   1.883  10.060  0.8429 -1.1202  1.3163
51990SOL     OW61806   8.570   7.947   1.569  0.3992 -0.4828  0.2930
51990SOL    HW161807   8.623   7.934   1.648 -1.6859 -0.3284  1.8014
51990SOL    HW261808   8.586   8.038   1.544  0.4771 -0.2829  1.0278
51991SOL     OW61809   1.186  11.037  12.209  0.5863 -0.4891  0.3237
51991SOL    HW161810   1.217  11.121  12.243 -0.5798 -0.2468  0.8504
51991SOL    HW261811   1.119  11.009  12.272 -1.0060 -0.4763 -1.2753
51992SOL     OW61812   0.125   5.874  11.942 -0.4791 -0.4635  0.1538
51992SOL    HW161813   0.055   5.813  11.918 -1.3219  0.7689 -0.6557
51992SOL    HW261814   0.184   5.874  11.866 -0.4210 -0.3445  0.1987
51993SOL     OW61815   0.872   5.601   4.893  0.3293 -0.0514  0.2163
51993SOL    HW161816   0.851   5.508   4.902 -0.4339  0.2817  2.8491
51993SOL    HW261817   0.967   5.603   4.883  0.1694 -1.1575 -2.2626
51994SOL     OW61818   4.893  10.816  11.620 -0.1144  0.2521 -0.0757
51994SOL    HW161819   4.853  10.891  11.577 -1.1865 -0.8296 -1.0302
51994SOL    HW261820   4.863  10.821  11.710 -3.3876 -1.0792 -0.9669
51995SOL     OW61821  10.054  11.582   8.237 -0.0410 -0.2696  0.0875
51995SOL    HW161822   9.963  11.555   8.228 -1.5368  3.2769  2.1580
51995SOL    HW261823  10.075  11.566   8.329  1.6676 -1.4963 -0.4710
51996SOL     OW61824   1.924   2.675   8.228 -0.3401  0.3997 -0.4125
51996SOL    HW161825   1.848   2.668   8.170 -1.7025 -0.5547  1.4250
51996SOL    HW261826   1.889   2.668   8.316  1.9343 -0.4884  0.5051
51997SOL     OW61827  11.721   4.727   6.493  0.0884 -0.6365 -0.3131
51997SOL    HW161828  11.709   4.678   6.574  0.6228 -2.2039 -1.1522
51997SOL    HW261829  11.646   4.702   6.439  0.1279 -0.1763 -0.5889
51998SOL     OW61830   2.578   6.407   8.213 -0.7580 -1.1609 -0.2086
51998SOL    HW161831   2.525   6.427   8.290 -1.6701  0.2546 -1.1538
51998SOL    HW261832   2.579   6.489   8.163  0.1096 -1.9393 -1.5336
51999SOL     OW61833   2.822  12.126   1.658 -0.6898 -0.2422 -0.0415
51999SOL    HW161834   2.782  12.072   1.589 -0.1045 -1.5208  0.5738
51999SOL    HW261835   2.807  12.076   1.738  3.2338 -1.5614  0.0738
52000SOL     OW61836   6.893   7.909  11.140 -0.0391 -0.1959 -0.2066
52000SOL    HW161837   6.941   7.834  11.106 -0.6708 -1.0063  0.6351
52000SOL    HW261838   6.915   7.981  11.081  0.9445 -0.9286 -0.7522
52001SOL     OW61839  12.313   7.820   7.362  0.0467  0.1367  0.5687
52001SOL    HW161840  12.357   7.758   7.304  0.3647  0.3791  0.5457
52001SOL    HW261841  12.330   7.787   7.450 -2.2761 -1.4681  0.4929
52002SOL     OW61842   7.936   3.002   7.413  0.0914 -0.3930 -0.1758
52002SOL    HW161843   7.880   3.054   7.470  0.0803 -0.9625  0.3430
52002SOL    HW261844   7.972   3.065   7.350  0.6719  0.3701  0.8976
52003SOL     OW61845   5.979  12.095   6.367 -0.6656 -0.6014 -0.0908
52003SOL    HW161846   5.941  12.010   6.349  1.2799 -1.1098 -2.2552
52003SOL    HW261847   6.069  12.076   6.395 -0.3330  0.7192 -0.1937
52004SOL     OW61848   8.339   9.236  12.015  0.3188 -0.4323  0.4571
52004SOL    HW161849   8.246   9.257  12.025 -0.5361 -3.1191 -0.7662
52004SOL    HW261850   8.353   9.159  12.069  1.0485 -1.7931 -1.5276
52005SOL     OW61851   2.042   0.911   0.778 -0.0276  0.2762 -0.4244
52005SOL    HW161852   2.126   0.894   0.734 -0.3709 -0.0559 -0.9625
52005SOL    HW261853   2.049   0.864   0.861 -0.7197 -2.1498 -1.6232
52006SOL     OW61854  12.207  10.596   3.081 -0.0505 -0.3075  0.4210
52006SOL    HW161855  12.176  10.681   3.048 -0.5830 -0.0829  1.4246
52006SOL    HW261856  12.211  10.608   3.176  1.5010 -0.8897  0.4627
52007SOL     OW61857  11.418   3.888  10.214 -0.2507  0.6004  0.4761
52007SOL    HW161858  11.469   3.808  10.224 -0.2869  0.3871 -0.8354
52007SOL    HW261859  11.435   3.938  10.294 -1.5647 -1.4262  2.1039
52008SOL     OW61860   2.100   2.867   6.254  0.3001  0.2317 -0.4297
52008SOL    HW161861   2.017   2.889   6.213 -1.2673 -0.6561  2.0369
52008SOL    HW261862   2.130   2.789   6.207 -0.9118 -0.1472 -0.6100
52009SOL     OW61863   1.362   8.043   1.414  0.4267  0.1343 -0.4661
52009SOL    HW161864   1.322   7.997   1.340  0.7741 -1.8381  0.4982
52009SOL    HW261865   1.403   8.120   1.375  0.0545 -0.5092 -2.2224
52010SOL     OW61866  10.526   7.956   0.377  0.0024 -0.5630 -0.0365
52010SOL    HW161867  10.490   7.949   0.465 -0.2235  1.6429  0.1178
52010SOL    HW261868  10.609   7.909   0.381 -0.7696 -1.8876  0.8726
52011SOL     OW61869   0.606   4.216  11.792 -0.3459 -0.5336  0.3063
52011SOL    HW161870   0.693   4.255  11.801 -1.4713  2.0646  0.8740
52011SOL    HW261871   0.581   4.195  11.882 -0.7347 -0.1928  0.2822
52012SOL     OW61872   2.803   0.562   9.399  0.0271  0.3685  0.0038
52012SOL    HW161873   2.818   0.469   9.380  1.5544  0.6975 -0.5799
52012SOL    HW261874   2.831   0.607   9.319 -1.6719  1.2946 -0.1217
52013SOL     OW61875   5.566   1.258   5.224  0.2126  0.5234  0.1203
52013SOL    HW161876   5.527   1.183   5.179  0.2037 -0.2577  1.3772
52013SOL    HW261877   5.542   1.245   5.316  3.1870  0.1218  0.9282
52014SOL     OW61878  11.139   7.995   8.439  0.2728 -0.5647  0.1198
52014SOL    HW161879  11.155   8.054   8.514  0.0677  0.4790 -0.6274
52014SOL    HW261880  11.180   7.913   8.464  2.0377  0.3888  0.5478
52015SOL     OW61881   0.472  12.293   1.716 -0.0394  0.1160 -0.1085
52015SOL    HW161882   0.435  12.209   1.743  1.6574 -0.7440 -0.3485
52015SOL    HW261883   0.506  12.330   1.797  2.0148 -0.9118 -0.4370
52016SOL     OW61884   4.014   4.522  11.337 -0.2308 -0.1951  0.5744
52016SOL    HW161885   3.937   4.566  11.374  1.6678  2.5492  1.5973
52016SOL    HW261886   4.087   4.552  11.392  1.7454 -1.7036 -1.0899
52017SOL     OW61887   9.502   4.632   2.076 -0.2979  0.1120  0.0573
52017SOL    HW161888   9.527   4.596   2.161  1.0990 -0.3552 -0.5302
52017SOL    HW261889   9.565   4.594   2.014 -0.8831  0.9577 -1.0883
52018SOL     OW61890   4.840   1.414   2.742 -0.1397  0.4126  0.0613
52018SOL    HW161891   4.934   1.431   2.747 -0.2570  1.2038 -0.3005
52018SOL    HW261892   4.830   1.354   2.667  0.3193 -1.7316  1.6027
52019SOL     OW61893   6.131   2.254   4.515 -0.1595  0.1064 -0.7208
52019SOL    HW161894   6.100   2.266   4.425  0.2025  0.7084 -0.7679
52019SOL    HW261895   6.097   2.330   4.562 -1.4454 -0.8467 -0.0394
52020SOL     OW61896   3.130  10.978   0.874 -0.0842 -0.2148 -0.5560
52020SOL    HW161897   3.188  11.050   0.900 -0.4886 -0.2767  0.5718
52020SOL    HW261898   3.126  10.984   0.779  2.9514 -1.1212 -0.8703
52021SOL     OW61899   0.373   1.912   3.894  0.1066 -0.3965 -0.2468
52021SOL    HW161900   0.426   1.991   3.908  0.0944 -0.1222 -1.6091
52021SOL    HW261901   0.427   1.841   3.929  1.2004 -0.0607 -1.1543
52022SOL     OW61902   4.897  10.397   6.944  0.1369 -0.4625 -0.3424
52022SOL    HW161903   4.968  10.346   6.981  0.0826  0.9049  1.8433
52022SOL    HW261904   4.940  10.469   6.897  0.1999 -0.6559 -0.5806
52023SOL     OW61905  12.185   4.011   6.916 -0.3773  0.2447 -0.1123
52023SOL    HW161906  12.203   3.945   6.982 -0.7117  0.8819  0.6295
52023SOL    HW261907  12.093   4.034   6.930 -0.6265 -0.0458 -1.1909
52024SOL     OW61908  11.173  11.943  11.405 -0.3568  0.2165 -0.3262
52024SOL    HW161909  11.110  11.898  11.349 -0.4256  0.3645 -0.3673
52024SOL    HW261910  11.124  11.967  11.483 -0.1956 -0.2208 -0.0884
52025SOL     OW61911   8.388   2.606  11.931 -0.7984  0.2515 -0.0730
52025SOL    HW161912   8.295   2.603  11.956 -0.7000  1.0345  0.4035
52025SOL    HW261913   8.388   2.591  11.836 -1.6574  3.0336 -0.5903
52026SOL     OW61914   3.292   8.629   8.943  0.0777  0.2101 -0.3298
52026SOL    HW161915   3.304   8.534   8.952  0.0873  0.0644 -1.6108
52026SOL    HW261916   3.341   8.667   9.015  1.2148 -0.7232 -0.5881
52027SOL     OW61917   0.510   3.268   6.066  0.2770  0.0059  0.0391
52027SOL    HW161918   0.599   3.233   6.063  1.0650  1.9232 -0.4608
52027SOL    HW261919   0.505   3.329   5.992 -1.7963 -0.7555 -0.5380
52028SOL     OW61920   9.439  12.030   2.037  0.0515 -0.5858 -0.1172
52028SOL    HW161921   9.415  12.002   2.125  1.2211 -2.0373 -0.2072
52028SOL    HW261922   9.362  12.010   1.983 -0.2661 -0.7159  0.3802
52029SOL     OW61923   5.912   4.358   6.873  0.1769 -0.4891  0.2355
52029SOL    HW161924   5.958   4.282   6.909 -0.3902 -0.5058  0.9437
52029SOL    HW261925   5.959   4.378   6.792  0.4038 -1.5266  0.0938
52030SOL     OW61926   9.587   6.408   6.862  0.4725  0.5519 -0.1055
52030SOL    HW161927   9.658   6.404   6.926  1.2729 -2.4383 -1.0178
52030SOL    HW261928   9.508   6.425   6.913  1.0247 -2.0472  1.8128
52031SOL     OW61929   1.859   6.612   2.164  0.2292  0.2056 -0.1690
52031SOL    HW161930   1.776   6.651   2.190 -0.3819 -0.3777 -1.1702
52031SOL    HW261931   1.850   6.519   2.184  1.7593  0.5046  2.4063
52032SOL     OW61932   2.746   1.607   4.717  0.0863  0.4123  0.0999
52032SOL    HW161933   2.725   1.669   4.787 -0.3566 -0.1469  0.4697
52032SOL    HW261934   2.725   1.521   4.753  2.1171 -0.1263  0.1396
52033SOL     OW61935   7.279   1.050   3.971 -0.1841 -0.0074 -0.0130
52033SOL    HW161936   7.220   0.979   3.946  1.1156 -0.9283 -0.5400
52033SOL    HW261937   7.361   1.006   3.995 -0.1887  1.1072  2.2912
52034SOL     OW61938   4.113   6.652   6.185  0.5712 -0.2684 -0.1738
52034SOL    HW161939   4.028   6.629   6.148  0.3744  1.2246 -0.7438
52034SOL    HW261940   4.142   6.727   6.133  0.3233  1.8855  2.5665
52035SOL     OW61941  11.436  11.679  10.404 -0.3294 -0.7164 -0.0158
52035SOL    HW161942  11.352  11.697  10.362 -0.5580 -0.0070  0.7241
52035SOL    HW261943  11.500  11.728  10.352 -0.3522 -1.3383 -0.6403
52036SOL     OW61944   8.658   0.481  10.981  0.2241 -0.2990  0.3100
52036SOL    HW161945   8.741   0.433  10.975 -0.7268 -2.0019 -0.0359
52036SOL    HW261946   8.602   0.425  11.034 -1.6797 -0.7774 -2.0251
52037SOL     OW61947   2.714  10.151   2.172 -0.8272 -0.6495 -0.2876
52037SOL    HW161948   2.809  10.147   2.180 -0.5324  0.1509 -2.6129
52037SOL    HW261949   2.689  10.231   2.219 -0.4621 -1.1432  0.7935
52038SOL     OW61950   7.132   9.055   7.517  0.3840  0.9045  0.3022
52038SOL    HW161951   7.186   9.069   7.440  1.2365 -0.2914  0.6470
52038SOL    HW261952   7.195   9.051   7.590 -0.3839  1.8406  1.0373
52039SOL     OW61953   0.325   1.536   1.959  0.1616 -0.4898  0.2963
52039SOL    HW161954   0.306   1.506   1.870  0.4783 -1.1518  0.4443
52039SOL    HW261955   0.242   1.525   2.006  0.0646 -0.3916  0.1496
52040SOL     OW61956   7.988   0.660   4.708 -0.2538 -0.2901  0.6035
52040SOL    HW161957   7.977   0.569   4.734 -0.7058 -0.8180 -1.2899
52040SOL    HW261958   7.918   0.707   4.753  0.5928 -0.6838  2.3820
52041SOL     OW61959   7.086   8.945   6.706  0.3811  0.1393 -0.1298
52041SOL    HW161960   6.999   8.916   6.732  1.5677 -3.2564  0.6025
52041SOL    HW261961   7.099   9.028   6.751 -1.9796  0.0914  0.7477
52042SOL     OW61962   7.529  10.550  10.562 -0.2543  0.2145 -0.0252
52042SOL    HW161963   7.524  10.547  10.657 -1.4063 -2.1817 -0.0917
52042SOL    HW261964   7.576  10.470  10.538 -0.4136  0.5289 -1.4892
52043SOL     OW61965   3.335   5.939   9.668  0.1987 -0.0163 -0.0968
52043SOL    HW161966   3.273   5.985   9.724  0.4584  0.4325 -0.1760
52043SOL    HW261967   3.410   5.998   9.661 -0.6468  0.8986 -2.6215
52044SOL     OW61968  11.098   4.394   5.583 -0.1971  0.7903 -0.1407
52044SOL    HW161969  11.187   4.423   5.603  0.0711  0.4861 -0.8712
52044SOL    HW261970  11.094   4.393   5.488 -0.5453 -0.4913 -0.1265
52045SOL     OW61971   7.609   1.827  11.853 -0.2783 -0.1756  0.1490
52045SOL    HW161972   7.664   1.753  11.828 -0.5112 -0.7475  1.2483
52045SOL    HW261973   7.665   1.880  11.909  0.0239  0.7218 -0.9802
52046SOL     OW61974   0.743   9.030  10.487  0.2941 -0.2081 -0.0969
52046SOL    HW161975   0.832   9.045  10.520  0.8735 -2.2937 -0.6033
52046SOL    HW261976   0.741   9.074  10.402  0.5564  0.5335  0.2671
52047SOL     OW61977   4.539   9.032   6.242  0.0303 -0.0434 -0.2922
52047SOL    HW161978   4.535   8.979   6.163 -1.8079  1.0116 -0.9488
52047SOL    HW261979   4.524   9.122   6.212 -0.2102  0.4366  1.1903
52048SOL     OW61980  12.007   5.906   0.539  0.5765 -0.0070  0.5538
52048SOL    HW161981  11.985   5.868   0.624 -1.1667 -0.8172 -0.2079
52048SOL    HW261982  12.056   5.837   0.493 -2.1763 -1.3006 -0.6484
52049SOL     OW61983   8.443  10.657   2.417  0.0228  0.3159 -0.0071
52049SOL    HW161984   8.535  10.663   2.445  0.3777 -2.3616 -0.3701
52049SOL    HW261985   8.442  10.698   2.331  1.1177 -0.5118 -0.4395
52050SOL     OW61986   3.954   8.581   2.166  0.1076  0.5306 -0.2665
52050SOL    HW161987   3.871   8.547   2.200 -0.1852  0.0384 -1.4127
52050SOL    HW261988   3.944   8.576   2.071  1.8249 -0.4683 -0.4384
52051SOL     OW61989   5.311   8.423   2.504  0.2023  0.0493 -0.0079
52051SOL    HW161990   5.330   8.476   2.427  2.9179  2.1258  1.8826
52051SOL    HW261991   5.246   8.473   2.553  0.6039  0.1987  0.3860
52052SOL     OW61992   5.062   9.231   3.653 -0.3222 -0.2698 -0.3307
52052SOL    HW161993   5.019   9.293   3.594 -0.4603 -0.3809 -0.3485
52052SOL    HW261994   5.140   9.277   3.684 -1.9716  1.0963  2.0542
52053SOL     OW61995   5.058   2.692   9.637 -0.9435 -0.1128 -0.3519
52053SOL    HW161996   4.980   2.696   9.692 -0.3696  0.8053  0.4526
52053SOL    HW261997   5.035   2.634   9.565 -2.3422  0.1029 -0.1021
52054SOL     OW61998   8.213   4.314   8.619  0.0565 -0.1950 -0.1439
52054SOL    HW161999   8.280   4.332   8.685  0.7930  1.7652 -1.3568
52054SOL    HW262000   8.216   4.219   8.608  1.5397 -0.3098  0.9673
52055SOL     OW62001   2.493   5.597   2.702 -0.3578 -0.2805 -0.2941
52055SOL    HW162002   2.526   5.684   2.727  1.3503 -0.6946 -0.9907
52055SOL    HW262003   2.456   5.610   2.615  2.7919 -0.7808 -1.8698
52056SOL     OW62004   4.327   5.245   1.081 -0.2221  0.2999  0.0632
52056SOL    HW162005   4.234   5.266   1.090  0.0935  1.5905  0.3920
52056SOL    HW262006   4.328   5.161   1.034 -1.5266  0.6345 -0.6013
52057SOL     OW62007   9.338   3.540   5.309 -0.4103  0.4056  0.0718
52057SOL    HW162008   9.323   3.546   5.214  0.9995 -2.1718 -0.3819
52057SOL    HW262009   9.276   3.474   5.339  0.0222  0.2977  0.7360
52058SOL     OW62010   5.724   8.045   0.057 -0.1998 -0.2473  0.1076
52058SOL    HW162011   5.666   7.976   0.025  0.5848 -0.3870 -1.1275
52058SOL    HW262012   5.810   8.020   0.023 -0.0440  1.8209 -1.2245
52059SOL     OW62013   8.769   2.930   2.853  0.6818  0.6095  0.3089
52059SOL    HW162014   8.690   2.925   2.908  0.2872 -3.1377 -0.3332
52059SOL    HW262015   8.841   2.931   2.916  0.1929  1.8416  0.8845
52060SOL     OW62016   3.664   5.824   6.902  0.0842  0.4233  0.1029
52060SOL    HW162017   3.646   5.786   6.988  0.3234  0.9060  0.3664
52060SOL    HW262018   3.742   5.778   6.872  0.4405  0.7859  0.4718
52061SOL     OW62019   3.741   3.331   2.036  0.2938  0.1059 -0.2655
52061SOL    HW162020   3.647   3.346   2.025  0.5914  1.4354 -1.2307
52061SOL    HW262021   3.772   3.408   2.083  0.7172 -0.9386  1.2489
52062SOL     OW62022   9.562  12.010   1.430 -0.4304  0.3164  0.4513
52062SOL    HW162023   9.636  12.023   1.490  1.4658  0.2239 -1.7251
52062SOL    HW262024   9.583  12.066   1.355 -0.9337 -2.1093 -1.6152
52063SOL     OW62025   2.710   6.178   5.592 -0.0001  0.0586 -0.5891
52063SOL    HW162026   2.683   6.213   5.507 -0.3801  1.2861  0.0103
52063SOL    HW262027   2.642   6.114   5.615  0.0526 -0.2056 -1.1555
52064SOL     OW62028  10.676  10.328  10.116 -0.0469 -0.0385 -0.1971
52064SOL    HW162029  10.595  10.351  10.071 -0.7309 -0.7785  0.6166
52064SOL    HW262030  10.649  10.267  10.185  1.2027 -0.3185  0.0755
52065SOL     OW62031   0.359   8.941   1.360 -0.7129 -0.2427 -0.0955
52065SOL    HW162032   0.438   8.932   1.307 -0.9317 -3.4960 -0.0692
52065SOL    HW262033   0.391   8.965   1.447  0.2449 -1.1478 -0.1793
52066SOL     OW62034   5.319   3.744   0.594 -0.1019  0.5815  0.3081
52066SOL    HW162035   5.259   3.686   0.641  1.8897 -1.4084  0.5293
52066SOL    HW262036   5.405   3.703   0.603  0.7644  1.3009 -3.1696
52067SOL     OW62037   2.444  10.913   0.694  0.2330 -0.1957  0.0569
52067SOL    HW162038   2.523  10.863   0.678  0.1149 -0.8340  1.3143
52067SOL    HW262039   2.392  10.903   0.615  0.5363 -1.4534 -0.0012
52068SOL     OW62040   6.056   8.113   2.302  0.3160 -0.1375 -0.1058
52068SOL    HW162041   6.099   8.030   2.278  0.3359 -0.0562 -0.3623
52068SOL    HW262042   5.963   8.092   2.305  0.3336 -0.2032 -0.0280
52069SOL     OW62043   0.020  10.949  12.242 -0.0344  0.9585  0.0832
52069SOL    HW162044   0.006  11.006  12.318 -1.9375  0.4142  0.1961
52069SOL    HW262045   0.007  11.007  12.166  3.0402  1.7837  0.0746
52070SOL     OW62046   4.669   5.271   1.857  0.0084  0.4442  0.6105
52070SOL    HW162047   4.670   5.365   1.835  2.2265 -0.0010 -1.6997
52070SOL    HW262048   4.761   5.250   1.876 -0.3588 -1.3412  0.5793
52071SOL     OW62049   3.532   7.625   3.406 -0.4998 -0.2729 -0.1697
52071SOL    HW162050   3.540   7.720   3.410  1.3735 -0.3388 -1.5655
52071SOL    HW262051   3.439   7.609   3.425 -0.8909  1.8145 -0.0425
52072SOL     OW62052   1.372   0.055  11.683 -0.3166 -0.0799  0.9780
52072SOL    HW162053   1.402   0.135  11.639 -1.1107  0.2895  1.0806
52072SOL    HW262054   1.386  -0.014  11.619  0.0537  0.1957  0.7558
52073SOL     OW62055  10.635   5.319   6.801 -0.8891 -0.4400  0.1214
52073SOL    HW162056  10.665   5.279   6.883  0.8510  0.6348  0.0724
52073SOL    HW262057  10.645   5.413   6.816  1.2084 -0.2435 -1.8926
52074SOL     OW62058   8.330  11.478   9.544  0.0024 -0.5848 -0.5633
52074SOL    HW162059   8.282  11.402   9.579 -0.4371 -0.2310 -0.3955
52074SOL    HW262060   8.316  11.547   9.609 -0.0748 -0.1902 -0.9980
52075SOL     OW62061   8.357   9.356   7.299 -0.1883 -0.4182  0.7316
52075SOL    HW162062   8.290   9.418   7.326 -0.2995 -0.4844  0.6033
52075SOL    HW262063   8.437   9.408   7.294  0.0059 -0.5700  2.0160
52076SOL     OW62064   0.231  11.333  10.187  0.0393 -0.0562  0.0028
52076SOL    HW162065   0.257  11.241  10.190 -2.0002 -0.6681  0.5273
52076SOL    HW262066   0.226  11.353  10.093  1.8306 -0.0176 -0.1271
52077SOL     OW62067   5.453   4.827  10.745 -0.1005 -0.0778 -0.1356
52077SOL    HW162068   5.422   4.860  10.661 -1.6549 -1.2046 -0.0429
52077SOL    HW262069   5.470   4.734  10.730 -0.0297 -0.2115  0.7057
52078SOL     OW62070   5.607   1.693  10.271 -0.3365 -0.3619  0.5146
52078SOL    HW162071   5.522   1.736  10.261 -0.1775 -0.2570 -0.5936
52078SOL    HW262072   5.670   1.765  10.275 -0.2388 -0.4541  0.6508
52079SOL     OW62073   7.894  10.937   1.529 -0.5090 -0.1373  0.3243
52079SOL    HW162074   7.862  10.903   1.612 -1.1245  0.6949  0.4446
52079SOL    HW262075   7.900  10.861   1.472 -2.5178 -0.3816  0.3675
52080SOL     OW62076   7.268   9.678   2.790 -0.3571 -0.3459  0.4161
52080SOL    HW162077   7.327   9.699   2.863 -1.5007 -0.6886  1.4697
52080SOL    HW262078   7.326   9.643   2.722  0.8904  1.0901  0.6848
52081SOL     OW62079   8.119   9.747   1.163  0.3119  0.0806  0.3443
52081SOL    HW162080   8.145   9.748   1.255 -0.3535 -0.3008  0.5446
52081SOL    HW262081   8.199   9.723   1.116  0.9034  1.2287  0.7201
52082SOL     OW62082  11.585   9.951   1.601 -0.0004 -0.2439 -0.0604
52082SOL    HW162083  11.581   9.917   1.512  1.3313  1.5168 -0.8407
52082SOL    HW262084  11.645   9.892   1.647  0.6302 -0.1908 -0.8072
52083SOL     OW62085   3.336  12.249   5.589 -0.1794 -0.3634 -0.4430
52083SOL    HW162086   3.412  12.231   5.644  0.6715 -0.1685 -1.5049
52083SOL    HW262087   3.312  12.163   5.553 -1.1475 -0.5990  0.7092
52084SOL     OW62088   5.499   4.665   6.662 -0.3510 -0.5290  0.6066
52084SOL    HW162089   5.587   4.630   6.677  0.0976  1.3841  3.2336
52084SOL    HW262090   5.511   4.760   6.666 -2.7895 -0.1760  3.6738
52085SOL     OW62091   8.978   9.488  10.616 -0.0247 -0.4884 -0.2927
52085SOL    HW162092   8.958   9.408  10.663 -0.8245  0.2321  0.6441
52085SOL    HW262093   8.903   9.503  10.558  0.0654 -0.3484 -0.3772
52086SOL     OW62094   9.098   9.893   4.251  0.0711 -0.2544  0.2173
52086SOL    HW162095   9.077   9.849   4.168 -0.2742 -1.5268  0.9561
52086SOL    HW262096   9.164   9.838   4.291  1.1190  0.9941  0.2788
52087SOL     OW62097  10.330   1.304   0.463  0.4211 -0.6043 -0.4271
52087SOL    HW162098  10.253   1.249   0.477 -0.0336 -0.5673 -2.3818
52087SOL    HW262099  10.384   1.292   0.540 -1.1988 -1.2264  0.6584
52088SOL     OW62100   4.371   7.961   1.559  0.3739 -0.3443  0.3629
52088SOL    HW162101   4.454   7.961   1.511 -0.0295  2.2735 -0.5010
52088SOL    HW262102   4.306   7.987   1.494 -0.7009  0.1222  1.5846
52089SOL     OW62103   4.926   5.901   1.121  0.0931 -0.1853 -0.2569
52089SOL    HW162104   4.840   5.858   1.111 -0.4870  0.6549  0.8198
52089SOL    HW262105   4.910   5.991   1.094  1.0568 -0.3932 -1.5656
52090SOL     OW62106  10.136   1.624   9.528 -0.2179 -0.2231  0.2340
52090SOL    HW162107  10.220   1.579   9.529  0.4023  0.8828 -0.4006
52090SOL    HW262108  10.127   1.656   9.439 -0.0518  1.9466  0.9374
52091SOL     OW62109   0.282   3.007   7.663 -0.0742 -0.0389 -0.0116
52091SOL    HW162110   0.227   2.930   7.683  0.7374 -0.6888 -0.2327
52091SOL    HW262111   0.221   3.080   7.663 -0.6869 -0.5199  1.3400
52092SOL     OW62112  10.373   2.465  11.012 -0.4150 -0.0491  0.4458
52092SOL    HW162113  10.383   2.527  10.940 -1.4586  0.1427  0.4441
52092SOL    HW262114  10.386   2.517  11.091 -3.4858  0.7680  0.5563
52093SOL     OW62115  11.767   6.737   7.698 -0.4358 -0.0494 -0.1789
52093SOL    HW162116  11.830   6.763   7.631  1.8077 -2.1486  0.9390
52093SOL    HW262117  11.724   6.660   7.662  0.6703 -1.0927  0.6416
52094SOL     OW62118   0.976   1.362   1.469 -0.3912  0.3034 -0.6118
52094SOL    HW162119   1.026   1.302   1.413  0.1948  1.2206 -1.1042
52094SOL    HW262120   0.885   1.343   1.449 -0.2380 -1.0724 -0.0570
52095SOL     OW62121   8.321   0.093   0.052  0.6930 -0.2555  0.1169
52095SOL    HW162122   8.371   0.059   0.126  1.9778 -0.2806 -0.7297
52095SOL    HW262123   8.285   0.176   0.083  1.1635 -0.2978  0.7903
52096SOL     OW62124   7.924   7.375   8.545  0.7378  0.0933 -0.0917
52096SOL    HW162125   7.896   7.349   8.457 -0.6787 -0.6688  0.5419
52096SOL    HW262126   7.970   7.298   8.578 -0.8406 -0.5605  0.6870
52097SOL     OW62127   2.037  10.883   6.090  0.3844  0.5813 -0.6071
52097SOL    HW162128   2.073  10.962   6.130  1.1265  0.2095 -0.5248
52097SOL    HW262129   1.977  10.916   6.023 -1.7059  1.2437  1.4244
52098SOL     OW62130   5.024   2.470  10.872  0.1988 -0.2016  0.1766
52098SOL    HW162131   4.977   2.552  10.858  0.6598  0.4047  1.8963
52098SOL    HW262132   5.102   2.495  10.922 -0.4559 -1.8438  2.1887
52099SOL     OW62133  12.241   7.268   5.171  0.1162  0.3000  0.6156
52099SOL    HW162134  12.241   7.345   5.113 -0.8547 -0.1511 -0.0191
52099SOL    HW262135  12.155   7.228   5.157  0.6724 -1.0033  0.8026
52100SOL     OW62136   2.889   0.102   0.579  0.4523 -0.3581 -0.4473
52100SOL    HW162137   2.963   0.107   0.640 -1.2722  0.4864  1.7413
52100SOL    HW262138   2.822   0.054   0.628  0.3882 -3.6736 -3.3996
52101SOL     OW62139   7.040   0.534   8.572 -0.3483  0.3848  0.1843
52101SOL    HW162140   7.000   0.590   8.506  1.5441  1.1944 -0.3431
52101SOL    HW262141   7.084   0.595   8.631  1.6170 -0.4831 -0.3017
52102SOL     OW62142   9.980   4.324   4.452  0.2431 -0.1413  0.4153
52102SOL    HW162143   9.964   4.402   4.504 -2.8559 -0.6395  0.4467
52102SOL    HW262144   9.918   4.260   4.486 -0.8894 -0.9750 -2.8353
52103SOL     OW62145   1.815   0.394   2.603 -0.0546 -0.6690 -0.3499
52103SOL    HW162146   1.770   0.393   2.687  0.8518  1.1049  0.2035
52103SOL    HW262147   1.907   0.409   2.624  0.1700 -0.0535 -1.6381
52104SOL     OW62148   4.534   7.286   0.856 -0.9372 -0.1243  0.1638
52104SOL    HW162149   4.587   7.245   0.788 -1.7520 -1.6827  0.4331
52104SOL    HW262150   4.544   7.230   0.933 -1.8777  0.3201  0.6328
52105SOL     OW62151   8.849  10.489   4.531 -0.2428 -0.7521 -0.3060
52105SOL    HW162152   8.765  10.490   4.578 -0.3428  0.7725 -0.4538
52105SOL    HW262153   8.914  10.501   4.599 -0.2726 -0.2694 -0.3556
52106SOL     OW62154   2.164   2.765   5.825 -0.3053 -0.3116 -0.1862
52106SOL    HW162155   2.126   2.782   5.739 -1.5710  0.7652  0.5569
52106SOL    HW262156   2.150   2.672   5.840 -0.1379 -0.4957 -1.1034
52107SOL     OW62157   7.688   0.445   6.022  0.0545  0.1210 -1.3836
52107SOL    HW162158   7.757   0.411   6.079  0.8643  1.2012 -1.6846
52107SOL    HW262159   7.622   0.376   6.021  0.5327 -0.3921 -0.0505
52108SOL     OW62160   1.716   6.659   4.010 -0.3743  0.8800 -0.0566
52108SOL    HW162161   1.798   6.683   4.053 -1.7406  0.1897  3.2122
52108SOL    HW262162   1.725   6.693   3.921  2.7718  2.2497  0.6499
52109SOL     OW62163   1.826  11.639   6.857 -0.6191  0.2365  0.1527
52109SOL    HW162164   1.912  11.648   6.816 -0.1162 -1.5223  0.7475
52109SOL    HW262165   1.766  11.683   6.796  0.5027  0.3235 -0.9335
52110SOL     OW62166   1.646   0.688   2.900  0.0626  0.2344 -0.2091
52110SOL    HW162167   1.583   0.714   2.968  0.5414  0.9699 -0.0403
52110SOL    HW262168   1.671   0.599   2.924 -0.8335 -0.0262 -0.2166
52111SOL     OW62169  11.504   9.348   4.417  0.2278  0.4284 -0.0410
52111SOL    HW162170  11.520   9.427   4.469  0.0654  0.8768 -0.6751
52111SOL    HW262171  11.522   9.276   4.478  2.0623  0.9272  0.0615
52112SOL     OW62172   4.947   4.011   2.866  0.3096 -0.9972 -0.4609
52112SOL    HW162173   4.947   3.922   2.830 -0.5260  0.2045 -3.8743
52112SOL    HW262174   4.854   4.035   2.869  0.5186 -0.2884  0.5915
52113SOL     OW62175   2.262   7.978   5.377 -0.0289 -0.0514 -0.2162
52113SOL    HW162176   2.350   7.956   5.347 -0.3036 -1.2930 -0.1747
52113SOL    HW262177   2.216   7.894   5.379 -1.1554  0.5533 -0.0490
52114SOL     OW62178   7.333   2.295   7.510 -0.0247 -0.2756 -0.5001
52114SOL    HW162179   7.277   2.268   7.583  1.6169 -0.6560  0.6673
52114SOL    HW262180   7.329   2.221   7.449 -1.8244  0.2616 -1.0919
52115SOL     OW62181   7.166   5.703   4.474  0.2888  0.1045 -0.2370
52115SOL    HW162182   7.184   5.762   4.547 -0.6377 -0.1425  0.2079
52115SOL    HW262183   7.251   5.664   4.453  0.5417  0.0487  0.8249
52116SOL     OW62184  12.151   9.400   5.648 -0.1101  0.6867  0.2003
52116SOL    HW162185  12.109   9.454   5.716 -1.3885 -0.2204  0.1816
52116SOL    HW262186  12.152   9.312   5.685  0.1870  0.3786 -0.5285
52117SOL     OW62187  10.266   5.020   2.714 -0.0473  0.1719  0.7357
52117SOL    HW162188  10.317   4.956   2.665 -0.4252  0.7664 -0.4785
52117SOL    HW262189  10.192   4.970   2.748 -1.1537  0.1756 -1.4521
52118SOL     OW62190   3.757   8.833   8.376 -0.3590  0.2530  0.5320
52118SOL    HW162191   3.678   8.796   8.337 -0.0839 -0.0400  0.2456
52118SOL    HW262192   3.725   8.891   8.444 -0.8798  1.3924 -0.6489
52119SOL     OW62193   2.988   8.446   0.875  0.0498 -0.7707  1.1410
52119SOL    HW162194   2.894   8.430   0.890  0.0680 -1.2173  0.8114
52119SOL    HW262195   3.030   8.364   0.902  0.2634 -0.8849  0.4729
52120SOL     OW62196   1.712   5.695  12.202 -0.4968  0.3007  0.8190
52120SOL    HW162197   1.785   5.689  12.263  1.7071  0.5877 -1.6092
52120SOL    HW262198   1.697   5.789  12.191 -0.0941  0.2959  0.1202
52121SOL     OW62199  11.642   0.969  10.999 -0.8161  0.0448  0.2428
52121SOL    HW162200  11.678   0.894  10.951 -0.1124  0.9445 -0.6632
52121SOL    HW262201  11.562   0.935  11.039 -0.7887 -1.0567 -0.5880
52122SOL     OW62202   8.560  12.061   1.926 -0.6448 -0.1607 -0.3906
52122SOL    HW162203   8.630  12.022   1.874 -0.7697 -0.6064 -0.2334
52122SOL    HW262204   8.584  12.153   1.935 -0.2390 -0.2463 -0.5939
52123SOL     OW62205   4.084   3.228  10.514 -0.2597 -0.0680  0.5656
52123SOL    HW162206   4.138   3.291  10.465 -0.1053 -0.3522  0.3692
52123SOL    HW262207   4.092   3.256  10.605  2.0174 -1.3918  0.8518
52124SOL     OW62208   9.423   0.695  10.497 -0.1128 -0.7743 -0.0496
52124SOL    HW162209   9.392   0.737  10.416 -1.8027  0.2600  1.0618
52124SOL    HW262210   9.345   0.650  10.531  0.3855 -0.5800  1.3721
52125SOL     OW62211  10.942   4.201   2.489  0.7196  0.1917  0.8268
52125SOL    HW162212  10.898   4.116   2.490 -0.2628  0.5903 -1.6691
52125SOL    HW262213  10.871   4.265   2.487  1.4452  1.0570  1.8887
52126SOL     OW62214   2.455   8.344  10.898  0.7485 -0.0350  0.1902
52126SOL    HW162215   2.545   8.366  10.921  0.1519  3.0576  0.0534
52126SOL    HW262216   2.402   8.408  10.946 -1.1832 -0.1079 -1.7003
52127SOL     OW62217   0.028   0.802   7.315 -0.0815 -0.6053  0.1020
52127SOL    HW162218  -0.035   0.746   7.360 -1.6444  0.0428 -1.2210
52127SOL    HW262219  -0.011   0.820   7.230  0.4074  2.3872  0.4068
52128SOL     OW62220   4.710   2.320   2.706 -0.5038  0.2909  0.1377
52128SOL    HW162221   4.735   2.288   2.619 -2.4929  0.6729 -0.6336
52128SOL    HW262222   4.786   2.302   2.761  1.8388  2.2771 -2.1764
52129SOL     OW62223  11.530   1.089  11.258 -0.1483 -0.0172 -0.2152
52129SOL    HW162224  11.621   1.105  11.231 -0.2308  1.3062  0.2407
52129SOL    HW262225  11.529   1.108  11.352 -0.9299  0.1523 -0.2547
52130SOL     OW62226   9.405   4.375   6.712 -0.4651 -0.0475 -0.2196
52130SOL    HW162227   9.362   4.456   6.739 -0.9763 -0.5872  0.5998
52130SOL    HW262228   9.466   4.403   6.643 -0.1924  1.1231  0.4703
52131SOL     OW62229  10.388   0.137   3.294 -0.6139 -0.1197 -0.6185
52131SOL    HW162230  10.348   0.176   3.371  0.1118 -3.5809  1.7135
52131SOL    HW262231  10.482   0.140   3.311 -0.4172 -0.6810 -1.5059
52132SOL     OW62232   8.153   9.838   7.869 -0.0730 -0.0967  0.8804
52132SOL    HW162233   8.159   9.933   7.876  0.4828 -0.2292  2.4774
52132SOL    HW262234   8.070   9.822   7.825  0.3809  1.1503 -0.5110
52133SOL     OW62235   3.874   0.625   2.394  0.1372 -0.4150 -0.4099
52133SOL    HW162236   3.923   0.573   2.458  1.0984 -0.6832 -1.3413
52133SOL    HW262237   3.940   0.657   2.333 -0.8713 -1.2096 -2.0010
52134SOL     OW62238   6.119   3.737   7.935  0.6472  0.1537 -0.1639
52134SOL    HW162239   6.106   3.716   8.027  1.4006  0.4599  0.0246
52134SOL    HW262240   6.214   3.748   7.926  0.5220  0.8378 -0.8140
52135SOL     OW62241   1.295   1.344   9.760  0.4523  0.2541 -0.0013
52135SOL    HW162242   1.377   1.381   9.794  0.7761  0.9604 -1.4533
52135SOL    HW262243   1.271   1.403   9.688 -0.2892 -1.0522 -0.8560
52136SOL     OW62244   6.510   9.314   5.422  0.3352 -0.1562 -0.7189
52136SOL    HW162245   6.483   9.403   5.443  0.9766  0.2732 -1.6579
52136SOL    HW262246   6.485   9.263   5.499 -0.1300  0.8087 -0.2070
52137SOL     OW62247   3.184   6.561   4.161 -0.0036 -0.2840 -0.0743
52137SOL    HW162248   3.240   6.600   4.094  0.0880 -0.7577 -0.2748
52137SOL    HW262249   3.238   6.495   4.203  0.3554  0.8353  1.3214
52138SOL     OW62250   0.345   9.392   6.263 -0.2723  0.1563 -0.5416
52138SOL    HW162251   0.347   9.395   6.358 -2.0726 -2.0797 -0.3557
52138SOL    HW262252   0.437   9.379   6.238  0.1076 -0.2712  0.9651
52139SOL     OW62253   4.607   5.507   5.649 -0.0596 -0.1314 -0.1699
52139SOL    HW162254   4.582   5.441   5.714 -1.1304  0.4690  0.0413
52139SOL    HW262255   4.550   5.582   5.667 -2.5856 -0.9464 -3.6707
52140SOL     OW62256   5.040  11.622   9.443 -0.1043  0.1582 -0.0764
52140SOL    HW162257   5.019  11.620   9.536 -0.5313 -0.4530 -0.1786
52140SOL    HW262258   5.092  11.701   9.431 -0.5386  0.5487  0.5786
52141SOL     OW62259  10.113   2.015   2.529 -0.1043 -0.0001 -0.6678
52141SOL    HW162260  10.084   2.091   2.479 -2.2653 -1.8632 -2.4486
52141SOL    HW262261  10.046   2.002   2.596 -0.1604 -0.7578 -0.8596
52142SOL     OW62262   7.363  10.227   0.902  0.3627 -0.7069 -0.1112
52142SOL    HW162263   7.289  10.267   0.948  0.5548  0.0162 -0.4140
52142SOL    HW262264   7.368  10.138   0.937  1.0732  0.0881  1.9347
52143SOL     OW62265   6.261   8.496   8.392  0.1060 -0.2515  0.1821
52143SOL    HW162266   6.169   8.475   8.374  0.1862 -1.4359  1.0108
52143SOL    HW262267   6.298   8.514   8.306 -1.0889  1.1539 -0.0830
52144SOL     OW62268  11.333   0.179   8.291 -0.1776  0.6047  0.8112
52144SOL    HW162269  11.272   0.198   8.220 -0.4456 -0.7519  0.6450
52144SOL    HW262270  11.377   0.262   8.309  0.9325  0.6860 -1.9027
52145SOL     OW62271  10.370   6.907   3.556  0.1480  0.1055 -0.0531
52145SOL    HW162272  10.444   6.948   3.601 -0.1005 -0.1838  0.6379
52145SOL    HW262273  10.370   6.946   3.469  1.3160 -0.1318 -0.1754
52146SOL     OW62274   0.543   2.692   5.187  0.1940  0.0106  0.1201
52146SOL    HW162275   0.624   2.706   5.236  1.0662  2.5442 -1.8536
52146SOL    HW262276   0.481   2.754   5.225 -0.6884 -1.4380  1.1614
52147SOL     OW62277   9.241   1.318   8.824 -0.1702  0.0086  0.2954
52147SOL    HW162278   9.248   1.320   8.729  2.4367 -1.6956  0.3681
52147SOL    HW262279   9.324   1.354   8.855 -1.0224  0.6490  1.9478
52148SOL     OW62280  11.694   2.484   9.131  0.3376 -0.0946  0.2493
52148SOL    HW162281  11.654   2.530   9.205 -0.4452  0.0593 -0.2569
52148SOL    HW262282  11.623   2.430   9.095  0.5202  0.2979 -0.7549
52149SOL     OW62283   2.534   5.018   7.796  0.2827 -0.0802 -0.2665
52149SOL    HW162284   2.498   5.020   7.885  0.3953  0.5566 -0.2280
52149SOL    HW262285   2.620   5.060   7.804  0.6014 -0.6637 -0.5482
52150SOL     OW62286   6.329   5.097   9.816 -0.7059 -0.0925  0.1101
52150SOL    HW162287   6.398   5.160   9.795  0.1603 -0.8436  0.6031
52150SOL    HW262288   6.263   5.109   9.747  0.2878  0.0943 -0.8383
52151SOL     OW62289   9.859   6.073  12.112  0.3548 -0.0704  0.1184
52151SOL    HW162290   9.897   5.985  12.107  1.9168  0.5188  0.8717
52151SOL    HW262291   9.934   6.130  12.129 -0.4231  1.5936 -1.6992
52152SOL     OW62292   8.947  10.947   1.443 -0.5160 -0.0191  0.0888
52152SOL    HW162293   8.878  10.880   1.444  0.3629 -0.9763  1.9142
52152SOL    HW262294   9.025  10.901   1.413 -0.7889  1.3052 -3.0151
52153SOL     OW62295   8.083   1.741   8.655  0.0879  0.2791  0.1763
52153SOL    HW162296   8.131   1.792   8.721  0.8751  0.5159 -0.5592
52153SOL    HW262297   8.087   1.795   8.576 -0.0487 -0.4191 -0.3134
52154SOL     OW62298  11.401  11.581   6.807 -0.6583 -0.3912  0.0601
52154SOL    HW162299  11.356  11.605   6.888 -2.1613 -1.1934 -0.4912
52154SOL    HW262300  11.492  11.567   6.833 -1.0055 -0.1317  1.5034
52155SOL     OW62301   1.035   9.089   5.687  0.7035 -0.2072  0.3495
52155SOL    HW162302   1.102   9.086   5.619 -0.0626 -0.4289 -0.4120
52155SOL    HW262303   1.014   8.997   5.704  0.4924 -0.1322  0.4902
52156SOL     OW62304   7.262  10.819   6.849 -1.2027  0.4823 -0.2306
52156SOL    HW162305   7.214  10.737   6.857  0.9680 -0.8236 -0.0421
52156SOL    HW262306   7.265  10.837   6.755  1.1904 -1.5233 -0.6289
52157SOL     OW62307   7.315   9.792   7.757  0.1739 -0.0137 -0.0046
52157SOL    HW162308   7.261   9.736   7.701 -0.0884  1.1460 -0.9601
52157SOL    HW262309   7.252   9.851   7.799  0.5332  0.1882  0.2576
52158SOL     OW62310   9.760   1.758   9.822 -0.0910 -0.2665  0.0767
52158SOL    HW162311   9.770   1.798   9.908  3.3789 -0.2935 -0.1958
52158SOL    HW262312   9.720   1.672   9.840 -0.8050  0.3149  1.4436
52159SOL     OW62313   9.678   0.468   0.628 -0.1901  0.7993 -0.3146
52159SOL    HW162314   9.728   0.407   0.573  0.2167  2.1419 -1.5140
52159SOL    HW262315   9.699   0.554   0.593 -1.5242  1.5759  0.6817
52160SOL     OW62316   4.832   1.010   7.377  0.3646 -0.4203  0.3702
52160SOL    HW162317   4.923   1.000   7.407  0.1882  0.7138  1.3451
52160SOL    HW262318   4.794   1.074   7.436 -1.1533 -1.0297  0.1040
52161SOL     OW62319  11.628  10.338   5.875 -0.4411 -0.1328  0.9080
52161SOL    HW162320  11.653  10.327   5.783 -0.9335  2.9784  0.3104
52161SOL    HW262321  11.533  10.349   5.873 -0.2589  1.9161  1.4801
52162SOL     OW62322   6.720   2.429  11.354 -0.0661 -0.7857 -0.3704
52162SOL    HW162323   6.747   2.383  11.434 -3.3922  0.3786  1.6494
52162SOL    HW262324   6.648   2.376  11.320  1.1028 -1.0920 -2.5342
52163SOL     OW62325   7.065   0.436   4.612 -0.4729  0.1824  0.2014
52163SOL    HW162326   7.155   0.437   4.577 -0.4779  3.8761 -0.1052
52163SOL    HW262327   7.074   0.399   4.700  1.2850  0.0888  0.0276
52164SOL     OW62328   8.958   8.982   5.179 -0.1997 -0.5531 -0.0148
52164SOL    HW162329   8.970   8.902   5.129  0.1953  0.3252 -1.3701
52164SOL    HW262330   9.019   8.973   5.253 -0.7519 -1.8316  0.3138
52165SOL     OW62331   2.923   0.658   9.799 -0.2195  0.2998 -0.1947
52165SOL    HW162332   2.978   0.580   9.789  0.7199  0.8999  0.1619
52165SOL    HW262333   2.940   0.688   9.888  0.0188  1.3380 -0.5764
52166SOL     OW62334   5.090   5.433  11.190 -0.4182 -0.0738 -0.2343
52166SOL    HW162335   5.091   5.340  11.213 -0.3474  0.3266  1.5227
52166SOL    HW262336   5.181   5.460  11.200 -0.5480  0.3210 -0.1383
52167SOL     OW62337   2.449   7.424   9.207  0.2232 -0.7203  0.8963
52167SOL    HW162338   2.539   7.455   9.198 -0.0287  0.3050  1.7295
52167SOL    HW262339   2.415   7.423   9.117  0.7825 -0.2299  0.6699
52168SOL     OW62340   5.415   2.790   9.223  0.2052 -0.3174  0.2740
52168SOL    HW162341   5.488   2.783   9.161  0.0532  1.3448 -0.1421
52168SOL    HW262342   5.343   2.744   9.180  0.2489  0.3770 -0.5512
52169SOL     OW62343   9.889   0.653   1.362 -0.0680  0.3623 -0.1514
52169SOL    HW162344   9.827   0.647   1.435 -0.0063 -0.6286 -0.1782
52169SOL    HW262345   9.844   0.613   1.288  1.2793 -2.2125  0.2984
52170SOL     OW62346   6.445   2.483   0.092 -0.5262 -0.3477  0.3469
52170SOL    HW162347   6.380   2.552   0.076  1.5914  1.7645  0.4200
52170SOL    HW262348   6.430   2.457   0.183  0.1061  1.7381  1.1023
52171SOL     OW62349   3.389   2.528   9.255  0.1429  0.0956  0.1161
52171SOL    HW162350   3.484   2.538   9.259  0.0732  0.9417 -0.1455
52171SOL    HW262351   3.355   2.614   9.280 -0.5519 -0.1818  0.1312
52172SOL     OW62352   8.064   6.064   5.202 -0.2423  0.0986 -0.9087
52172SOL    HW162353   8.055   6.015   5.121  0.0139 -1.0286 -0.2705
52172SOL    HW262354   8.128   6.132   5.182  0.4481 -0.6903 -1.4226
52173SOL     OW62355   4.984   5.138   6.146  0.1522 -0.1381 -0.5552
52173SOL    HW162356   4.947   5.153   6.233  0.6608  1.0716 -0.5267
52173SOL    HW262357   5.068   5.183   6.148  0.0056  0.2168 -1.7934
52174SOL     OW62358  12.071  11.455  11.347  0.0626  0.4063 -0.0022
52174SOL    HW162359  12.001  11.484  11.288 -2.3865 -0.9028  2.0644
52174SOL    HW262360  12.076  11.361  11.334  1.2883  0.4315  0.1264
52175SOL     OW62361   5.779  10.916   5.219  0.0691 -0.1529 -0.0925
52175SOL    HW162362   5.786  11.001   5.175 -0.8763 -0.0303 -0.0320
52175SOL    HW262363   5.698  10.923   5.270  0.1380 -0.9908  0.1347
52176SOL     OW62364   5.977   4.118   9.688  0.3818  0.3221  0.1220
52176SOL    HW162365   5.911   4.074   9.742 -1.4349  1.9404 -0.6865
52176SOL    HW262366   6.003   4.194   9.740  1.3399 -0.0629  0.2371
52177SOL     OW62367   4.674  10.813   3.586 -0.2975 -0.1354  0.4508
52177SOL    HW162368   4.636  10.815   3.498 -0.5481  0.1580  0.5620
52177SOL    HW262369   4.621  10.876   3.636  2.4452  3.0896 -0.2820
52178SOL     OW62370   9.933   8.931   6.857 -0.1994  0.1767  0.9042
52178SOL    HW162371   9.846   8.891   6.869  0.4380 -0.9623  1.9312
52178SOL    HW262372   9.915   9.012   6.809 -1.5884 -1.1687 -1.0451
52179SOL     OW62373   2.004   2.364   1.272  0.2539  0.1663  0.3587
52179SOL    HW162374   1.927   2.419   1.258 -0.8059 -1.5205 -0.8065
52179SOL    HW262375   2.070   2.398   1.212 -0.0686  0.7508  0.3331
52180SOL     OW62376   1.130   7.229   0.606 -0.0868 -0.1007  0.0930
52180SOL    HW162377   1.158   7.314   0.574 -0.1727  0.3558  1.1711
52180SOL    HW262378   1.148   7.231   0.700  0.1326 -1.3656  0.1002
52181SOL     OW62379   3.823   5.201   9.121  0.1436 -0.3278  0.2909
52181SOL    HW162380   3.890   5.269   9.132 -0.9676  0.8903 -0.1633
52181SOL    HW262381   3.800   5.204   9.028 -2.1384  0.9146  0.8012
52182SOL     OW62382   7.467   5.337   7.113 -0.0519 -0.7018  0.8562
52182SOL    HW162383   7.533   5.299   7.055  0.5640 -0.2628  1.2546
52182SOL    HW262384   7.391   5.279   7.103 -0.1061 -0.4213 -0.6750
52183SOL     OW62385  10.285   9.292  10.325 -0.3458 -0.1390  0.1106
52183SOL    HW162386  10.372   9.328  10.344 -0.4936  0.1975  0.1518
52183SOL    HW262387  10.232   9.315  10.402 -0.7019  0.4274 -0.2968
52184SOL     OW62388   6.514   6.521   8.434 -0.2411 -0.2226  0.4904
52184SOL    HW162389   6.506   6.541   8.341 -1.6004 -0.1074  0.6238
52184SOL    HW262390   6.605   6.492   8.444  0.2750  0.9184 -0.6366
52185SOL     OW62391   8.223  10.294   5.177 -0.1262 -0.0088  0.5447
52185SOL    HW162392   8.297  10.349   5.202 -0.3965 -0.1364  1.6553
52185SOL    HW262393   8.228  10.218   5.235 -1.2533  0.0879  0.7886
52186SOL     OW62394   6.323   3.250   6.075 -0.5248  0.5245  0.4284
52186SOL    HW162395   6.332   3.156   6.058 -0.8691  0.4929  0.4135
52186SOL    HW262396   6.266   3.255   6.151  1.6131  0.6473  2.1278
52187SOL     OW62397   0.567   4.604   5.187  0.1383  0.0504  0.7276
52187SOL    HW162398   0.582   4.563   5.103  0.1035 -1.1917  1.3072
52187SOL    HW262399   0.523   4.537   5.240 -1.5657  1.4075  1.1553
52188SOL     OW62400   8.253  10.917   7.675 -0.1949 -0.2798  0.2115
52188SOL    HW162401   8.162  10.911   7.704 -0.4178 -0.1749 -0.4434
52188SOL    HW262402   8.293  10.835   7.703  0.0759  0.5062  2.3457
52189SOL     OW62403   8.366   9.046  12.200  0.3432  0.1054 -0.1825
52189SOL    HW162404   8.311   8.974  12.170  0.0527 -0.3903  1.4447
52189SOL    HW262405   8.371   9.035  12.295  2.2488  0.8597 -0.1461
52190SOL     OW62406   2.921   3.554   8.697 -0.2489  0.1013  0.0987
52190SOL    HW162407   2.915   3.465   8.662  1.2156 -0.8056  1.9545
52190SOL    HW262408   2.831   3.581   8.711 -0.7284 -1.7026  0.8493
52191SOL     OW62409   7.646   6.563   7.947  0.0100  0.5371  0.1833
52191SOL    HW162410   7.602   6.567   8.032  0.1471  0.4484  0.2585
52191SOL    HW262411   7.636   6.651   7.911  2.6524  1.5487  1.6542
52192SOL     OW62412   3.246   1.661   1.154 -0.1060 -0.3394 -0.2620
52192SOL    HW162413   3.316   1.665   1.220  0.3114  0.0809 -0.7184
52192SOL    HW262414   3.233   1.568   1.138 -0.5319 -0.4641  0.7453
52193SOL     OW62415   8.020  10.957   7.389  0.5531  0.2748 -0.0076
52193SOL    HW162416   8.061  10.953   7.303 -0.1432  0.4085 -0.3549
52193SOL    HW262417   8.083  11.003   7.444  1.5887 -1.0012 -0.0979
52194SOL     OW62418   2.770   5.072  12.218  0.5302  0.0831  0.6810
52194SOL    HW162419   2.688   5.095  12.173  1.4916  1.2841 -0.5657
52194SOL    HW262420   2.744   5.010  12.286 -1.5424  1.0831  0.8884
52195SOL     OW62421   7.578   7.706   5.150  0.0828 -0.6046  0.3556
52195SOL    HW162422   7.668   7.733   5.172  0.3880 -1.1259 -0.2073
52195SOL    HW262423   7.579   7.699   5.054 -0.8128  0.2493  0.2694
52196SOL     OW62424   9.254   4.927   4.562 -0.5405  0.0285  0.2470
52196SOL    HW162425   9.273   4.998   4.501  0.9051  0.3636  1.0493
52196SOL    HW262426   9.316   4.858   4.539  0.0609  0.1755  1.3493
52197SOL     OW62427   2.737   6.878   8.350 -0.4609  0.4962  0.2256
52197SOL    HW162428   2.680   6.950   8.375 -1.8092  0.9717 -3.6388
52197SOL    HW262429   2.695   6.800   8.388 -0.4310  1.3902  2.2002
52198SOL     OW62430   1.479   8.477   2.236 -0.7302  0.6014 -0.3166
52198SOL    HW162431   1.385   8.479   2.220 -0.9588 -0.6631  0.7617
52198SOL    HW262432   1.516   8.434   2.159 -1.5381 -2.9367  1.0810
52199SOL     OW62433  12.065   9.064   4.800 -0.4087 -0.0663 -0.0771
52199SOL    HW162434  12.086   8.975   4.771  0.9370 -0.0065  0.6320
52199SOL    HW262435  12.088   9.119   4.726 -3.4630 -0.4381 -1.4437
52200SOL     OW62436  10.520   7.476   0.182  0.9319 -0.5619  0.0181
52200SOL    HW162437  10.598   7.523   0.153 -0.2543  0.6333 -1.4157
52200SOL    HW262438  10.492   7.523   0.261  1.1730 -0.4548  0.0424
52201SOL     OW62439   3.175   3.070   3.739  0.0204  0.1580 -0.2643
52201SOL    HW162440   3.110   3.138   3.721 -0.7192 -0.4013  0.1990
52201SOL    HW262441   3.161   3.006   3.668 -0.0327 -0.0247 -0.0909
52202SOL     OW62442   7.038  12.314   0.128  0.0017  0.2825  0.8407
52202SOL    HW162443   7.023  12.404   0.157 -2.1738 -0.0970  1.0802
52202SOL    HW262444   7.008  12.312   0.038  2.1275  0.2608  0.0636
52203SOL     OW62445   3.719  10.496   9.843 -0.1843  0.3051  0.1418
52203SOL    HW162446   3.773  10.572   9.862 -1.7105  1.1388  1.3915
52203SOL    HW262447   3.744  10.430   9.908 -0.9350  0.8431  0.9941
52204SOL     OW62448   4.829  10.977   6.582  0.6117 -0.2200  0.1205
52204SOL    HW162449   4.788  10.988   6.668 -0.5122 -2.1959 -0.0946
52204SOL    HW262450   4.786  11.043   6.527  0.2346  0.0510  0.7284
52205SOL     OW62451   1.195   5.666   3.778  0.1272  0.0105  0.1625
52205SOL    HW162452   1.123   5.631   3.830 -1.5968  0.5721 -1.6905
52205SOL    HW262453   1.213   5.598   3.714 -0.1541  0.6546 -0.6246
52206SOL     OW62454   1.383   1.152   6.607 -0.1945  0.1695  0.2093
52206SOL    HW162455   1.368   1.233   6.657 -0.1887  1.0414 -1.1654
52206SOL    HW262456   1.382   1.083   6.674  0.1376  1.3246  1.4702
52207SOL     OW62457   2.226  12.035   6.561 -0.2192  0.1874  0.6214
52207SOL    HW162458   2.180  11.966   6.608 -0.1776  1.4468  2.6460
52207SOL    HW262459   2.250  11.995   6.477  0.4372 -2.4535  1.9633
52208SOL     OW62460   1.382   2.639   6.679 -0.0018 -0.0490  0.2036
52208SOL    HW162461   1.410   2.548   6.671  0.0614 -0.4290  3.2811
52208SOL    HW262462   1.298   2.643   6.632  0.5412 -1.3688 -0.9380
52209SOL     OW62463   1.574  11.892  12.299  0.3201  0.1750 -0.3581
52209SOL    HW162464   1.562  11.968  12.356 -0.9971  0.6778 -1.2516
52209SOL    HW262465   1.565  11.816  12.357 -0.1725  0.6864  0.2461
52210SOL     OW62466   4.818   5.868   1.488 -0.1854  0.1359 -0.3496
52210SOL    HW162467   4.774   5.784   1.478  0.1070 -0.0009 -0.4785
52210SOL    HW262468   4.886   5.868   1.422 -0.3326  0.5720 -0.5076
52211SOL     OW62469   6.948   7.340   9.089  0.3908  0.4030  0.0942
52211SOL    HW162470   7.025   7.292   9.058 -0.3301 -0.2374 -0.7796
52211SOL    HW262471   6.977   7.384   9.169  1.6714  0.2282 -0.2531
52212SOL     OW62472   3.563   5.066  12.254  0.2295 -0.3569  0.2703
52212SOL    HW162473   3.485   5.115  12.280  0.0040 -1.0865  0.9996
52212SOL    HW262474   3.589   5.105  12.171 -1.1771 -0.4136 -0.2140
52213SOL     OW62475   8.983   8.529   2.329 -0.1929 -0.1068  0.0510
52213SOL    HW162476   8.907   8.480   2.299  0.4788 -0.2277 -1.5557
52213SOL    HW262477   8.978   8.613   2.282 -0.5600  0.8256  1.6813
52214SOL     OW62478   0.695   0.334   4.422  0.4001  0.7957  0.3522
52214SOL    HW162479   0.668   0.424   4.441  0.6549  0.9490  0.0072
52214SOL    HW262480   0.680   0.286   4.503  0.2148  1.1408  0.5221
52215SOL     OW62481   8.704   5.784   0.991  0.5910 -0.3150 -0.0181
52215SOL    HW162482   8.644   5.757   0.921  0.1610  1.1924 -0.2651
52215SOL    HW262483   8.791   5.774   0.953  0.3624  0.5044 -0.8084
52216SOL     OW62484   6.938  10.439   7.831 -0.5704 -0.1128  0.1270
52216SOL    HW162485   6.995  10.378   7.877 -1.9305 -0.2300  1.7638
52216SOL    HW262486   6.874  10.384   7.786  0.4685  0.0214 -1.6002
52217SOL     OW62487   6.891   7.830   5.580  0.3384 -0.2813 -0.3962
52217SOL    HW162488   6.942   7.903   5.613 -0.7427 -0.4374  1.8123
52217SOL    HW262489   6.807   7.869   5.555 -0.7591 -0.8438  2.0865
52218SOL     OW62490   9.961   8.647   0.550 -0.0097  0.3989 -0.0806
52218SOL    HW162491   9.897   8.599   0.498  0.7362  0.3529 -0.9756
52218SOL    HW262492   9.909   8.687   0.620 -0.9910  0.2222 -0.6845
52219SOL     OW62493   2.567   2.623   1.464 -0.2703  0.3103 -0.1751
52219SOL    HW162494   2.617   2.554   1.419 -0.7428  0.2198 -0.5639
52219SOL    HW262495   2.579   2.603   1.557 -0.0262 -0.0305 -0.2752
52220SOL     OW62496   6.495   0.936   1.147 -0.6408 -0.2577  0.1862
52220SOL    HW162497   6.426   0.870   1.152 -1.4483  0.4235 -1.2319
52220SOL    HW262498   6.575   0.888   1.169 -1.3272 -1.4943  0.1175
52221SOL     OW62499   0.903   0.009  11.835  0.2639 -0.4491 -0.1090
52221SOL    HW162500   0.886   0.006  11.741 -0.5320 -0.9042  0.0397
52221SOL    HW262501   0.920  -0.082  11.859  0.4909 -0.3306  0.1794
52222SOL     OW62502   6.212  12.179   1.505 -0.4097  0.3358  0.1503
52222SOL    HW162503   6.151  12.241   1.546 -1.5458 -0.5065 -0.2142
52222SOL    HW262504   6.298  12.207   1.534 -0.8918  2.1133 -0.0442
52223SOL     OW62505   9.011   4.450  10.013 -0.4419  0.0606  0.2663
52223SOL    HW162506   8.925   4.465  10.051 -1.0996  1.0061 -1.4929
52223SOL    HW262507   9.056   4.534  10.019 -0.2696  0.0179 -0.2979
52224SOL     OW62508   1.877   3.599   4.792  0.3241 -0.4627 -0.5521
52224SOL    HW162509   1.837   3.513   4.790 -0.7907  0.0449 -1.0639
52224SOL    HW262510   1.868   3.632   4.703  1.2069 -0.0145 -0.4934
52225SOL     OW62511   4.034   8.986   9.040 -0.0805  0.5239 -0.3426
52225SOL    HW162512   3.971   8.962   8.972  1.0826 -0.6069 -1.0588
52225SOL    HW262513   3.991   8.961   9.122 -1.5507  2.0201 -0.5985
52226SOL     OW62514   0.690   4.188  10.235 -0.3854 -0.3022  0.1499
52226SOL    HW162515   0.656   4.269  10.197  1.1233 -0.4922 -1.7463
52226SOL    HW262516   0.611   4.140  10.262 -1.4169  0.7849 -0.8017
52227SOL     OW62517   5.178   3.299   9.401 -0.4830  0.0724 -0.0711
52227SOL    HW162518   5.111   3.279   9.466 -0.3800  1.3051  0.4280
52227SOL    HW262519   5.230   3.218   9.395 -0.2684  0.0396  1.6480
52228SOL     OW62520  10.879  11.521   7.637 -0.2270  0.0794  0.3045
52228SOL    HW162521  10.837  11.507   7.553  0.8599  0.9446 -0.4080
52228SOL    HW262522  10.897  11.433   7.670 -0.3144 -0.2612 -0.5379
52229SOL     OW62523  11.340   5.013  11.666 -0.3039  0.2989  0.6385
52229SOL    HW162524  11.415   5.061  11.703  0.8131  0.1314 -1.2528
52229SOL    HW262525  11.363   4.921  11.676  1.6675  0.1486 -3.1703
52230SOL     OW62526   7.711   3.303   4.411  0.0350  0.1017 -0.3226
52230SOL    HW162527   7.731   3.233   4.473  1.9250  1.3076  0.5186
52230SOL    HW262528   7.615   3.309   4.412 -0.0244 -0.4553  1.8741
52231SOL     OW62529   0.861   0.389  10.701  0.5974 -0.3175 -0.7055
52231SOL    HW162530   0.868   0.458  10.767  1.2778  0.9625 -2.0501
52231SOL    HW262531   0.912   0.422  10.627  0.3652 -1.9775 -1.6543
52232SOL     OW62532   5.266   5.952  11.241  0.2412 -0.0839  0.3776
52232SOL    HW162533   5.332   5.884  11.255  1.6186  1.1022 -0.1824
52232SOL    HW262534   5.308   6.033  11.268 -0.8540  0.7598 -0.3420
52233SOL     OW62535   4.529   7.879  11.353  0.3644 -0.7557  0.1405
52233SOL    HW162536   4.528   7.975  11.353 -0.7340 -0.7438  0.3964
52233SOL    HW262537   4.513   7.856  11.262  1.0333 -0.7019  0.0078
52234SOL     OW62538   6.450   7.188   5.130  0.6661  0.1870  0.1481
52234SOL    HW162539   6.387   7.148   5.069  1.8932 -0.0010 -1.0450
52234SOL    HW262540   6.405   7.267   5.162 -0.5611 -0.4653  0.1116
52235SOL     OW62541   7.238   9.568   1.397 -0.2526  0.2823 -0.0281
52235SOL    HW162542   7.146   9.566   1.370 -0.6779  0.3987  1.3052
52235SOL    HW262543   7.277   9.639   1.346 -0.6536 -0.3859 -1.3049
52236SOL     OW62544   3.253   4.591   3.578  0.0498 -0.4548 -0.1981
52236SOL    HW162545   3.321   4.590   3.645 -0.3854 -0.5128  0.2546
52236SOL    HW262546   3.171   4.578   3.627 -0.2824 -0.4214 -0.7324
52237SOL     OW62547  10.866   7.677  11.967 -0.1155  0.2265 -0.1324
52237SOL    HW162548  10.809   7.699  11.893 -0.1315 -0.9107 -0.4689
52237SOL    HW262549  10.920   7.605  11.935  0.0005 -0.1633  0.9106
52238SOL     OW62550   1.548   1.069   2.385  0.0545 -0.5037  0.0020
52238SOL    HW162551   1.512   1.025   2.462  2.0708 -1.3197  0.5547
52238SOL    HW262552   1.538   1.005   2.315 -1.7806  0.2389 -0.4621
52239SOL     OW62553   3.603   1.159   0.548 -0.7013 -0.0978 -0.6122
52239SOL    HW162554   3.540   1.165   0.476 -2.2304 -0.1248  0.6532
52239SOL    HW262555   3.653   1.240   0.543 -0.5369 -0.2527 -1.8930
52240SOL     OW62556   1.424  11.551  10.255  0.4809  0.4038 -0.4466
52240SOL    HW162557   1.502  11.496  10.263  0.3597  0.5437  2.8914
52240SOL    HW262558   1.354  11.490  10.230  1.0012 -0.3815 -0.0459
52241SOL     OW62559   4.114  10.588   0.100 -0.7898  0.3070  0.4603
52241SOL    HW162560   4.189  10.550   0.054 -0.5089  0.6957  0.5962
52241SOL    HW262561   4.071  10.643   0.034  0.7538  2.4741  1.1634
52242SOL     OW62562   7.499   8.970   3.334 -0.4891  0.2990 -0.0053
52242SOL    HW162563   7.569   9.027   3.367 -0.0999 -0.1025 -0.1334
52242SOL    HW262564   7.478   8.913   3.408  1.8595 -2.0586 -0.9931
52243SOL     OW62565   5.718  10.775  10.782  0.1696  0.0545 -0.3032
52243SOL    HW162566   5.643  10.746  10.835  1.2653 -1.2781  0.5831
52243SOL    HW262567   5.767  10.832  10.841 -0.9649  2.3289 -1.4255
52244SOL     OW62568   4.930   0.422   4.197  0.5411  0.0472 -0.2107
52244SOL    HW162569   4.995   0.363   4.159  1.4063 -0.1232  1.4524
52244SOL    HW262570   4.978   0.470   4.265 -1.3553 -1.1475  2.1208
52245SOL     OW62571  11.033   9.378   4.425  0.8076  0.2887 -0.1048
52245SOL    HW162572  11.095   9.451   4.424 -0.8702  1.8287  1.3872
52245SOL    HW262573  11.055   9.329   4.504  1.2176 -0.1926 -0.5112
52246SOL     OW62574  10.965  10.002   7.089  0.2928  0.1252 -0.1847
52246SOL    HW162575  11.018  10.080   7.070 -1.3205  1.4303  0.4593
52246SOL    HW262576  11.012   9.958   7.160  0.3486  1.4940  0.6798
52247SOL     OW62577   8.343   4.688   3.443  0.5021 -0.1283 -0.0844
52247SOL    HW162578   8.330   4.779   3.418 -0.5553 -0.0881  0.5527
52247SOL    HW262579   8.356   4.690   3.537  2.6986 -0.4474 -0.3199
52248SOL     OW62580   3.626  10.746  11.961 -0.1347 -0.2858 -0.0831
52248SOL    HW162581   3.595  10.823  11.913 -0.3063 -0.9565 -1.0775
52248SOL    HW262582   3.559  10.730  12.028 -1.1902 -0.8093 -1.2294
52249SOL     OW62583   6.979   2.525   0.997 -0.3122  0.2673  0.3275
52249SOL    HW162584   7.041   2.555   1.064 -0.1142 -0.6795  0.5897
52249SOL    HW262585   7.008   2.567   0.916  1.8802 -1.6038  0.0358
52250SOL     OW62586  10.665  12.142   0.316 -0.2880 -0.5300  0.1499
52250SOL    HW162587  10.649  12.133   0.222 -5.0168 -1.3071  0.8039
52250SOL    HW262588  10.635  12.230   0.337  0.4724 -0.4682  1.0288
52251SOL     OW62589   7.392   2.206   9.600 -0.3053 -0.1126 -0.1115
52251SOL    HW162590   7.462   2.270   9.586  1.0416 -1.3308  0.7400
52251SOL    HW262591   7.413   2.165   9.684 -1.7067 -0.9609 -0.1376
52252SOL     OW62592   2.631  10.819   9.384  0.3288  0.1148 -0.0920
52252SOL    HW162593   2.631  10.906   9.344  2.1343 -0.1390 -0.7095
52252SOL    HW262594   2.651  10.760   9.312  2.1766 -0.5049  0.8805
52253SOL     OW62595   0.545   8.671  10.756 -0.2252 -0.1500 -0.6151
52253SOL    HW162596   0.504   8.585  10.756  1.4209 -0.9620 -0.1639
52253SOL    HW262597   0.594   8.675  10.674  1.5496 -0.5901  0.3828
52254SOL     OW62598   4.299  11.127   4.965  0.4959  0.0860  0.4398
52254SOL    HW162599   4.286  11.037   4.996  1.3329 -0.8137 -1.6132
52254SOL    HW262600   4.392  11.143   4.978  1.1516 -0.7801 -2.5109
52255SOL     OW62601   4.411   9.946   5.253 -1.0098 -0.1548 -0.3272
52255SOL    HW162602   4.369   9.986   5.177  0.4107  0.9870 -0.5633
52255SOL    HW262603   4.478   9.888   5.216 -0.6576  0.0094  0.0342
52256SOL     OW62604   8.703   0.768   3.802 -0.0814 -0.1257 -0.0433
52256SOL    HW162605   8.641   0.703   3.767 -0.9882 -0.0357  1.3333
52256SOL    HW262606   8.670   0.789   3.889  1.0122  1.1251  0.1082
52257SOL     OW62607   5.825   9.708   6.953  0.5645  0.0011  0.4068
52257SOL    HW162608   5.854   9.668   6.871  1.0329  0.6234  0.2635
52257SOL    HW262609   5.771   9.640   6.994  0.7370 -0.5046 -0.1751
52258SOL     OW62610   7.946   1.438   8.871  0.3528 -0.2337 -0.2723
52258SOL    HW162611   8.009   1.481   8.930  1.8880 -0.8335 -1.3958
52258SOL    HW262612   7.964   1.344   8.882 -0.0923 -0.3947 -0.8855
52259SOL     OW62613   7.367   4.727   1.370 -0.4629 -0.3136 -0.2587
52259SOL    HW162614   7.390   4.731   1.277 -0.4684 -0.9339 -0.2906
52259SOL    HW262615   7.278   4.693   1.371 -1.0038  1.0669 -0.0846
52260SOL     OW62616   1.321   8.596   1.109 -0.2035  0.4942  0.3051
52260SOL    HW162617   1.299   8.625   1.198  0.2392 -1.8900  1.2653
52260SOL    HW262618   1.297   8.504   1.107  2.5378 -0.3092 -1.0582
52261SOL     OW62619   4.818   2.104  10.065 -0.1128  0.4015 -0.0813
52261SOL    HW162620   4.802   2.196  10.048 -1.1323  0.2544  0.0188
52261SOL    HW262621   4.875   2.103  10.142 -2.2822  0.9304  1.6325
52262SOL     OW62622   5.675   5.140   5.031 -0.1817 -0.1683 -0.4977
52262SOL    HW162623   5.599   5.082   5.042 -0.8210  0.6516 -0.5063
52262SOL    HW262624   5.639   5.228   5.034  0.9583  0.3057  1.1435
52263SOL     OW62625   8.236  11.023   6.787 -0.0881 -0.1502 -0.2582
52263SOL    HW162626   8.300  11.090   6.811 -0.9966  1.4950 -2.1321
52263SOL    HW262627   8.262  10.946   6.838  1.7778  1.2149  1.0109
52264SOL     OW62628   7.188   2.630   4.139 -0.2845  0.9012  0.2849
52264SOL    HW162629   7.120   2.578   4.097  0.6118 -0.1401  0.0877
52264SOL    HW262630   7.142   2.705   4.176 -1.6015 -0.0228  0.5677
52265SOL     OW62631   4.322   9.754   2.894 -0.9051 -0.4012  0.3575
52265SOL    HW162632   4.367   9.838   2.896  0.6806 -1.2261  2.0673
52265SOL    HW262633   4.340   9.714   2.979 -2.5092 -2.0386  0.0080
52266SOL     OW62634  10.002   0.857   7.651 -0.4370  0.5458  0.3481
52266SOL    HW162635   9.994   0.947   7.681 -0.3079  0.9331 -0.7462
52266SOL    HW262636  10.085   0.826   7.688 -0.7926  0.6433  1.2654
52267SOL     OW62637   6.952   9.949  10.243 -0.3455 -0.6673  0.1599
52267SOL    HW162638   6.907   9.998  10.174 -0.3146 -2.2696 -1.0512
52267SOL    HW262639   7.038   9.929  10.206  0.6237  0.5369  1.6389
52268SOL     OW62640   6.080   4.411   8.376 -0.6055  0.1262  0.2953
52268SOL    HW162641   6.045   4.423   8.464 -0.1688  0.6344  0.4065
52268SOL    HW262642   6.152   4.349   8.387 -0.5481  0.1932  0.2942
52269SOL     OW62643  11.145  10.179   1.289  0.1468 -0.0320  0.0470
52269SOL    HW162644  11.191  10.219   1.363 -0.3445 -0.1438  0.4136
52269SOL    HW262645  11.169  10.234   1.214  0.4614  0.2202  0.3280
52270SOL     OW62646   0.673   0.290   9.451  0.0152 -0.1177 -0.1079
52270SOL    HW162647   0.682   0.196   9.467  1.1659  0.1359  0.8877
52270SOL    HW262648   0.618   0.321   9.523 -2.4133 -0.3640 -1.7433
52271SOL     OW62649   1.387   0.608   4.307  0.0449 -0.2747  0.3882
52271SOL    HW162650   1.466   0.563   4.336  0.2231 -0.5182 -0.4275
52271SOL    HW262651   1.397   0.698   4.337  1.4531  0.1293 -1.1690
52272SOL     OW62652   0.212   3.488   3.467 -0.1090 -0.2473  0.3553
52272SOL    HW162653   0.168   3.511   3.385 -0.0735  0.3314  0.4912
52272SOL    HW262654   0.259   3.568   3.492  0.7871 -0.7543  0.3601
52273SOL     OW62655  11.754   6.215   3.125  0.6096  0.0887  0.0244
52273SOL    HW162656  11.779   6.282   3.188  0.5294 -0.7869  1.0221
52273SOL    HW262657  11.809   6.140   3.146 -0.0841 -0.5364 -0.3301
52274SOL     OW62658   7.276   9.977   0.398  0.8284  0.0937  0.3823
52274SOL    HW162659   7.201   9.996   0.454 -2.3496 -2.7173 -2.4209
52274SOL    HW262660   7.312   9.895   0.432  1.3803  0.3987  0.5472
52275SOL     OW62661   6.288   9.948   1.682  0.0962  0.1844 -0.3454
52275SOL    HW162662   6.242   9.873   1.718 -0.3477  0.9806  0.7825
52275SOL    HW262663   6.220  10.013   1.663  0.5353  0.5642 -0.6848
52276SOL     OW62664   4.070   1.438   4.166  0.6864 -0.0362  0.4161
52276SOL    HW162665   3.988   1.403   4.132  0.2975  1.0231  0.2241
52276SOL    HW262666   4.071   1.529   4.137  1.6227  0.1429  0.9734
52277SOL     OW62667   2.901  11.572   5.050 -0.6206  0.3150 -0.0897
52277SOL    HW162668   2.925  11.577   4.958  0.1346 -1.1787 -0.0008
52277SOL    HW262669   2.945  11.494   5.082  0.2928  1.5624  1.8940
52278SOL     OW62670  11.514   7.851   4.556  0.3241 -0.0611  0.1140
52278SOL    HW162671  11.489   7.774   4.505 -1.2222  0.0703  0.6471
52278SOL    HW262672  11.462   7.923   4.520  0.8201  0.4865  0.4574
52279SOL     OW62673  12.288  11.607   8.358 -0.2520 -0.1034  0.0937
52279SOL    HW162674  12.312  11.647   8.275  2.2092 -0.4698  0.5537
52279SOL    HW262675  12.193  11.593   8.352 -0.6884  2.8367 -1.3176
52280SOL     OW62676  10.161   3.126   6.158 -0.3515  0.1458  0.7078
52280SOL    HW162677  10.210   3.098   6.235 -0.4296 -1.6858  0.1482
52280SOL    HW262678  10.095   3.187   6.192  0.4299  0.3733  1.8780
52281SOL     OW62679  11.272   4.555   0.137 -0.3052 -0.2136  0.0374
52281SOL    HW162680  11.216   4.610   0.082  0.7047 -0.0140 -0.8074
52281SOL    HW262681  11.253   4.583   0.227 -0.2630  1.0669 -0.3435
52282SOL     OW62682   1.531   8.502  10.370  0.2321 -0.2806 -0.5289
52282SOL    HW162683   1.555   8.484  10.279  0.0757  2.0304 -1.0884
52282SOL    HW262684   1.580   8.581  10.393 -0.7530 -0.0500  0.9522
52283SOL     OW62685   4.383   8.005   8.622  0.6104  0.7211 -0.1580
52283SOL    HW162686   4.406   8.080   8.676  1.6086  0.6708 -0.4947
52283SOL    HW262687   4.404   8.032   8.533 -0.7606  0.7006 -0.5186
52284SOL     OW62688   5.075   0.430   8.667 -0.0087  0.7704  0.2021
52284SOL    HW162689   5.076   0.520   8.699 -0.5081  1.4900 -1.7027
52284SOL    HW262690   5.132   0.432   8.590 -0.4616 -0.4221 -0.1757
52285SOL     OW62691   6.981   1.649  10.089  0.5403 -1.0081  0.2880
52285SOL    HW162692   6.899   1.609  10.118  0.5207 -1.5552 -0.5190
52285SOL    HW262693   6.959   1.693  10.007  0.7784 -0.1180  0.6891
52286SOL     OW62694   6.219   6.468   1.314 -0.0427  0.2474 -0.2271
52286SOL    HW162695   6.169   6.413   1.254 -0.5038  1.5097 -1.0448
52286SOL    HW262696   6.241   6.410   1.387 -0.8574 -0.8954 -0.8560
52287SOL     OW62697   8.379  11.865   8.073  0.1610  0.0178  0.0694
52287SOL    HW162698   8.351  11.842   8.162  1.3389  0.4226  0.5554
52287SOL    HW262699   8.461  11.817   8.061 -1.2122 -2.0641 -1.7592
52288SOL     OW62700  11.092   1.816  11.909 -0.1772 -0.7823  0.4170
52288SOL    HW162701  11.017   1.857  11.865 -2.0435 -1.3221  2.8418
52288SOL    HW262702  11.126   1.753  11.846 -2.2305 -1.0011 -0.5458
52289SOL     OW62703   8.960   6.980   0.190 -0.3579  0.2440 -0.1363
52289SOL    HW162704   9.045   6.944   0.214  1.2325  4.1956  0.9071
52289SOL    HW262705   8.952   6.964   0.096  0.6226 -1.7700  0.0710
52290SOL     OW62706   5.433   1.007   0.141  0.1691  0.2977  0.1076
52290SOL    HW162707   5.349   0.962   0.149  0.6159 -0.7612 -0.8595
52290SOL    HW262708   5.491   0.962   0.202  0.2756  0.3959  0.0803
52291SOL     OW62709   7.131  11.335   6.341 -0.5668  0.8748 -0.7801
52291SOL    HW162710   7.150  11.334   6.435 -1.0299  0.7500 -0.6834
52291SOL    HW262711   7.172  11.256   6.307  0.7196  1.5749 -0.9172
52292SOL     OW62712   6.841   1.545   2.090 -0.0429 -0.9058  0.1792
52292SOL    HW162713   6.864   1.496   2.011 -2.7919 -0.4371 -1.0573
52292SOL    HW262714   6.851   1.483   2.161  0.3355 -2.0465 -0.8293
52293SOL     OW62715   3.208   8.818  11.222 -0.3689 -0.3265 -0.2419
52293SOL    HW162716   3.278   8.766  11.182  0.4828 -0.0147  0.8012
52293SOL    HW262717   3.216   8.801  11.316  1.1806  3.0593  0.3986
52294SOL     OW62718  10.154   8.625   7.256  0.2620  0.4750 -0.8444
52294SOL    HW162719  10.184   8.636   7.166 -0.1663  0.1841 -1.0258
52294SOL    HW262720  10.106   8.542   7.256  0.0542  0.5889 -0.4071
52295SOL     OW62721   8.297   0.065   3.788 -0.3733  0.9363  0.5090
52295SOL    HW162722   8.256  -0.020   3.801  1.4514 -0.0904 -0.1338
52295SOL    HW262723   8.240   0.126   3.835 -1.4439 -0.6833  1.4242
52296SOL     OW62724  10.246   2.111   7.407 -0.2589  0.4286 -0.2072
52296SOL    HW162725  10.191   2.055   7.461  0.8074 -0.6472 -0.1957
52296SOL    HW262726  10.251   2.193   7.456  2.4422 -1.1842  2.5829
52297SOL     OW62727   8.920   6.819   5.097  0.0703 -0.2436  0.2857
52297SOL    HW162728   8.945   6.900   5.053 -1.5575  0.3416  0.3931
52297SOL    HW262729   8.907   6.844   5.189 -2.7429 -0.0414 -0.0779
52298SOL     OW62730   1.413   9.265   9.669  0.0654 -0.2986  0.0930
52298SOL    HW162731   1.491   9.321   9.678 -0.3474  0.1856  0.7764
52298SOL    HW262732   1.431   9.190   9.725  0.0636 -0.2057  0.2202
52299SOL     OW62733   8.019   7.940   2.813  0.9373 -0.1399  0.3931
52299SOL    HW162734   7.994   8.011   2.753  0.0406 -0.0797  0.8167
52299SOL    HW262735   8.106   7.965   2.844  0.5748  0.8759  0.6556
52300SOL     OW62736   0.046  10.338   5.382  0.1791 -0.1516  0.0464
52300SOL    HW162737   0.091  10.362   5.463 -0.3215  0.0470  0.2730
52300SOL    HW262738   0.115  10.306   5.324  0.7263  0.8469  0.1181
52301SOL     OW62739   7.359   0.722   9.640 -0.0920 -0.1983  0.9400
52301SOL    HW162740   7.427   0.654   9.644  1.3180  1.2384  2.8226
52301SOL    HW262741   7.277   0.673   9.632  1.1146 -1.9984 -4.1673
52302SOL     OW62742   9.253   1.231   3.893  0.2740  0.5628  0.1700
52302SOL    HW162743   9.291   1.161   3.839 -0.4916 -0.3130  0.7150
52302SOL    HW262744   9.234   1.188   3.976 -0.6391  1.3045  0.3639
52303SOL     OW62745  10.287   3.768   2.854  0.5993  0.0400  0.3571
52303SOL    HW162746  10.277   3.696   2.792  0.7454  0.2971  0.0375
52303SOL    HW262747  10.353   3.825   2.816  0.6757  0.2124  0.7363
52304SOL     OW62748   5.307   1.295   1.425 -1.0645 -0.8837 -0.0516
52304SOL    HW162749   5.227   1.264   1.469 -1.0737 -2.5822 -1.1816
52304SOL    HW262750   5.310   1.245   1.343 -0.0899  0.8917 -1.1457
52305SOL     OW62751   6.656  12.120  10.924 -0.1619  0.5024 -0.2391
52305SOL    HW162752   6.703  12.082  10.999  0.1609  0.6573 -0.3588
52305SOL    HW262753   6.712  12.192  10.896  0.1118 -0.0314 -1.1166
52306SOL     OW62754  11.219   1.800   6.491  0.6774  0.0422 -0.5310
52306SOL    HW162755  11.140   1.749   6.472  0.0440 -0.2339  2.4817
52306SOL    HW262756  11.191   1.867   6.553  2.6298  0.5255 -0.1152
52307SOL     OW62757   7.851   9.693   7.076  0.0708 -0.4774 -0.0293
52307SOL    HW162758   7.882   9.719   6.989  2.0385 -0.8999  0.4972
52307SOL    HW262759   7.762   9.661   7.062  0.1626 -0.0261 -1.7896
52308SOL     OW62760   6.194   9.263  11.553 -0.0849 -0.0809 -1.3909
52308SOL    HW162761   6.184   9.168  11.543  0.7756 -0.1798 -1.3991
52308SOL    HW262762   6.277   9.283  11.511  1.7447  0.0675  1.9358
52309SOL     OW62763   1.734  10.199   2.684  0.1274  0.0496  0.1231
52309SOL    HW162764   1.660  10.227   2.737 -0.8015 -1.5608 -0.2289
52309SOL    HW262765   1.717  10.237   2.598  0.3565  0.6763  0.3514
52310SOL     OW62766  12.144   1.599   1.510 -0.2405  0.1767  0.4560
52310SOL    HW162767  12.107   1.539   1.575  1.3164 -1.0353  0.2814
52310SOL    HW262768  12.152   1.547   1.431  0.8414  0.6937  0.2020
52311SOL     OW62769   9.216   3.936   7.752  0.1077 -0.2439 -0.7766
52311SOL    HW162770   9.160   3.954   7.676 -1.1656 -1.2914 -0.1187
52311SOL    HW262771   9.267   4.017   7.764 -1.6642  0.9666 -1.0510
52312SOL     OW62772  10.144  11.944  10.182  0.2170  0.2032 -0.6016
52312SOL    HW162773  10.131  11.873  10.245  0.1258 -0.3674 -1.2518
52312SOL    HW262774  10.151  12.023  10.236  0.5192 -0.3206  0.1459
52313SOL     OW62775   3.158   5.547   3.195  0.6614 -0.3222  0.3497
52313SOL    HW162776   3.200   5.553   3.110  0.7242 -1.4103  0.2951
52313SOL    HW262777   3.227   5.516   3.254  0.3964 -0.4064  0.6172
52314SOL     OW62778   9.418   9.324   0.096  0.3855  0.9298 -0.9930
52314SOL    HW162779   9.342   9.317   0.154  1.0300  1.7337 -0.0049
52314SOL    HW262780   9.394   9.275   0.018 -0.5601 -0.1076 -0.0834
52315SOL     OW62781   7.802  10.970   9.074 -0.2165  0.2022 -0.4252
52315SOL    HW162782   7.846  10.974   8.990 -1.3234  0.1508 -1.0340
52315SOL    HW262783   7.826  10.885   9.111  0.0514  0.1053 -0.8222
52316SOL     OW62784   8.208   8.867   7.634 -0.2718  0.8247 -0.4292
52316SOL    HW162785   8.135   8.921   7.603  0.3207  2.9463  1.5202
52316SOL    HW262786   8.208   8.880   7.729  0.2302 -2.3373  0.0949
52317SOL     OW62787   8.986   9.798   6.488 -0.0799  0.1892  0.1167
52317SOL    HW162788   9.059   9.801   6.549  0.8398  0.1556 -0.9419
52317SOL    HW262789   8.923   9.862   6.522  0.2205 -0.1135  1.2910
52318SOL     OW62790   1.051   5.163  12.145 -0.5384  0.3214 -0.0409
52318SOL    HW162791   1.072   5.093  12.084  0.9366 -0.1803  0.9830
52318SOL    HW262792   1.128   5.220  12.143 -1.7066  1.9334 -0.8459
52319SOL     OW62793   9.777  10.078  11.784  0.5287 -0.0925 -0.2050
52319SOL    HW162794   9.712  10.069  11.853  1.3860  0.3015  0.6777
52319SOL    HW262795   9.856  10.110  11.829  1.1069  0.1680 -1.3591
52320SOL     OW62796   4.069   9.010  10.296  0.4035  1.0256 -0.4882
52320SOL    HW162797   4.024   9.089  10.267 -0.8887  0.5469  0.1389
52320SOL    HW262798   4.100   8.969  10.215  0.9633  2.0932 -0.8235
52321SOL     OW62799   7.609  10.520   4.068  0.2128  0.2284 -0.3863
52321SOL    HW162800   7.657  10.602   4.058  0.9585 -0.1441  0.0425
52321SOL    HW262801   7.619  10.498   4.161 -1.3497  0.4738 -0.1249
52322SOL     OW62802  10.325   6.717   3.754 -0.2267  0.0228  1.0169
52322SOL    HW162803  10.390   6.648   3.764 -1.5750 -1.4544 -0.0394
52322SOL    HW262804  10.352   6.764   3.675 -1.4116 -1.7687 -0.5242
52323SOL     OW62805   8.539   5.326   8.308 -0.7290 -0.3545  0.6235
52323SOL    HW162806   8.544   5.401   8.249 -0.0390 -0.2702  0.7851
52323SOL    HW262807   8.458   5.339   8.358 -0.1200  0.7966  1.3408
52324SOL     OW62808   8.826   8.356   8.255  0.0490  0.6502 -0.2765
52324SOL    HW162809   8.896   8.298   8.225 -0.4713 -0.0669 -0.1511
52324SOL    HW262810   8.866   8.412   8.320  0.8293  1.1781 -1.1942
52325SOL     OW62811   1.694  11.438   1.307 -0.2144 -0.0107  0.6469
52325SOL    HW162812   1.770  11.384   1.330 -0.2373  0.1413  1.0979
52325SOL    HW262813   1.732  11.516   1.266 -0.1162  0.1199  0.9814
52326SOL     OW62814  12.101   4.177   8.235  0.1375 -0.5872 -0.3657
52326SOL    HW162815  12.126   4.098   8.188  1.0424 -1.2621  1.1774
52326SOL    HW262816  12.054   4.144   8.312  0.1455  0.3939  0.0660
52327SOL     OW62817   7.316   8.097   7.136 -0.0528  0.0070  0.2513
52327SOL    HW162818   7.398   8.134   7.170  0.3360  0.8159 -1.4308
52327SOL    HW262819   7.328   8.097   7.041 -1.7571 -0.4952  0.0071
52328SOL     OW62820   7.124   0.821   3.034  0.2485  0.6105 -0.8270
52328SOL    HW162821   7.141   0.803   2.942  2.4792 -1.2927 -0.1611
52328SOL    HW262822   7.211   0.823   3.074 -0.7310 -0.6723  1.5586
52329SOL     OW62823   2.586   0.615   1.809 -0.1856 -0.5278  0.2452
52329SOL    HW162824   2.559   0.524   1.800 -0.6244 -0.2579 -1.5225
52329SOL    HW262825   2.540   0.661   1.738  1.2836  0.7699  0.0788
52330SOL     OW62826  10.956   1.136  10.696  0.2590 -0.5019 -1.0228
52330SOL    HW162827  10.991   1.180  10.774 -0.0336  2.0282 -2.2273
52330SOL    HW262828  10.916   1.056  10.731  0.1583  0.5058  1.4419
52331SOL     OW62829  10.329   0.157   1.559 -0.3362 -0.0956  0.0043
52331SOL    HW162830  10.348   0.112   1.642  1.0109 -0.7385 -0.6225
52331SOL    HW262831  10.244   0.121   1.531 -1.4032  0.9922  1.6515
52332SOL     OW62832   1.253   1.113   1.582  0.6394  0.5158  0.2970
52332SOL    HW162833   1.161   1.115   1.608  0.5961  2.0539  0.0998
52332SOL    HW262834   1.251   1.124   1.487  1.0291  0.6177  0.3008
52333SOL     OW62835   8.115   6.964  12.124  0.1934 -0.2611  0.1588
52333SOL    HW162836   8.030   6.964  12.168  0.7345  0.3366  1.2645
52333SOL    HW262837   8.177   6.933  12.191  1.1066  1.0661 -0.0210
52334SOL     OW62838   3.986   0.525   6.567  0.6245  0.4855  0.5057
52334SOL    HW162839   4.009   0.438   6.600  1.3446  0.5006  0.0606
52334SOL    HW262840   3.943   0.508   6.484 -1.6205  0.4185  1.5939
52335SOL     OW62841  10.857   8.414   1.130 -0.2961 -0.6151  0.1758
52335SOL    HW162842  10.951   8.427   1.135 -0.3944 -0.2970  1.6362
52335SOL    HW262843  10.820   8.502   1.129 -0.5766 -0.7293 -0.9143
52336SOL     OW62844   4.497  10.357   2.743 -0.5381  0.4602 -0.2555
52336SOL    HW162845   4.591  10.357   2.758 -0.5370  1.9839 -0.0530
52336SOL    HW262846   4.479  10.441   2.700 -1.6850 -0.2133 -1.1868
52337SOL     OW62847  11.837   3.233   2.243 -1.2190  0.7435  1.0884
52337SOL    HW162848  11.895   3.243   2.167 -0.7968  2.3494  1.5800
52337SOL    HW262849  11.874   3.159   2.291 -0.6245  0.6382  0.4895
52338SOL     OW62850   3.793   5.235   3.966 -0.1400  0.0499  0.2147
52338SOL    HW162851   3.709   5.194   3.945 -1.6255  1.6554  2.5664
52338SOL    HW262852   3.832   5.255   3.880 -0.7109 -3.3021 -0.9888
52339SOL     OW62853   3.329   2.961   0.547 -0.4196  0.1804 -0.0031
52339SOL    HW162854   3.344   2.893   0.481 -0.8875 -0.0854  0.1570
52339SOL    HW262855   3.239   2.945   0.578  0.3404 -0.7437  1.8943
52340SOL     OW62856   5.371  10.510  11.751 -0.1103 -0.3272 -0.5005
52340SOL    HW162857   5.379  10.567  11.674 -0.1363  0.3850  0.0214
52340SOL    HW262858   5.349  10.569  11.823 -2.7323 -1.2640 -0.4351
52341SOL     OW62859   5.172   4.999   7.469  0.0798 -0.3999 -0.0673
52341SOL    HW162860   5.112   5.011   7.543 -0.7396 -0.4843 -0.6913
52341SOL    HW262861   5.121   4.949   7.405  0.2597  0.8750 -1.2635
52342SOL     OW62862   9.836   9.508   0.184  0.4813 -0.5729 -0.3754
52342SOL    HW162863   9.887   9.446   0.236  0.2817 -0.1194  0.3657
52342SOL    HW262864   9.781   9.453   0.129 -0.8474 -1.0816  1.3814
52343SOL     OW62865   8.977  11.361   2.999 -0.2088 -0.2758  0.0352
52343SOL    HW162866   8.920  11.302   2.949 -0.3956 -0.1572  0.1089
52343SOL    HW262867   9.050  11.305   3.027  0.5082 -0.0855 -1.3505
52344SOL     OW62868   2.796  11.780   6.173 -0.2198 -0.7400  0.4924
52344SOL    HW162869   2.827  11.774   6.264  0.5314 -0.3626  0.2724
52344SOL    HW262870   2.857  11.842   6.132 -1.1229 -0.1785 -0.0260
52345SOL     OW62871   4.006   6.200   5.856 -0.1147  0.3505  0.3509
52345SOL    HW162872   3.976   6.112   5.832 -0.4043  0.4415  0.3761
52345SOL    HW262873   3.988   6.207   5.950 -0.8122  0.7221  0.1918
52346SOL     OW62874   1.926   8.854   4.403 -0.0594  0.2241 -0.2822
52346SOL    HW162875   1.875   8.933   4.387 -1.0819 -0.4644 -0.5636
52346SOL    HW262876   1.951   8.859   4.495 -1.9976 -0.1573  0.3102
52347SOL     OW62877   9.668   2.611   5.668 -0.1596  0.4659  0.3836
52347SOL    HW162878   9.701   2.646   5.586  0.0026  1.0228  0.6783
52347SOL    HW262879   9.582   2.575   5.647  1.2542 -2.5474 -0.7640
52348SOL     OW62880   5.791   2.886  11.919  0.4940  0.3695 -0.5373
52348SOL    HW162881   5.878   2.847  11.909 -0.2626 -2.0113  1.1493
52348SOL    HW262882   5.755   2.844  11.998 -1.5695  2.4923 -0.2359
52349SOL     OW62883   8.586   3.790   8.272 -0.1593  0.1133 -0.3519
52349SOL    HW162884   8.498   3.802   8.307 -0.0555  0.0641 -0.0752
52349SOL    HW262885   8.633   3.870   8.296 -0.7416  1.1295 -2.3816
52350SOL     OW62886   2.382  12.235   1.931  0.4956  0.1261  0.4833
52350SOL    HW162887   2.344  12.173   1.869  1.3441 -0.6664  0.7431
52350SOL    HW262888   2.332  12.316   1.917 -0.0426 -0.3524 -0.4688
52351SOL     OW62889   3.039   9.146   4.071 -0.3465  0.1385  0.3738
52351SOL    HW162890   2.959   9.185   4.106 -0.5158  0.8863 -0.7909
52351SOL    HW262891   3.051   9.189   3.987  0.1763 -1.4215 -0.3792
52352SOL     OW62892  11.677   8.281   1.237  0.0863  0.7022 -0.9715
52352SOL    HW162893  11.697   8.226   1.162  0.2348 -0.2554 -0.2531
52352SOL    HW262894  11.599   8.330   1.211  0.7722  1.2126 -2.1491
52353SOL     OW62895  11.013   8.540   9.269  0.0474 -0.0611  0.1799
52353SOL    HW162896  10.959   8.538   9.348  0.5203  0.2933  0.5186
52353SOL    HW262897  11.095   8.499   9.295  0.7254  1.2926  0.2815
52354SOL     OW62898  11.956   1.018   9.515 -0.7976 -0.3116  0.1887
52354SOL    HW162899  11.867   1.051   9.531 -0.1528  1.5965  0.1797
52354SOL    HW262900  12.012   1.089   9.545  0.6981 -0.9104 -1.0950
52355SOL     OW62901   2.284   7.974   2.282 -0.5122  0.0784  0.6554
52355SOL    HW162902   2.362   7.980   2.337 -0.8970 -2.3572  1.6228
52355SOL    HW262903   2.311   7.918   2.209 -0.9458  0.5319  0.1371
52356SOL     OW62904   6.170  10.042   0.595  0.2109  0.7487  0.3061
52356SOL    HW162905   6.119  10.005   0.523  0.8578  0.3168  0.0649
52356SOL    HW262906   6.238  10.093   0.552  0.7220  0.3249  0.6051
52357SOL     OW62907   1.004   4.925  10.132  0.4533  0.1800  0.1294
52357SOL    HW162908   1.069   4.882  10.078 -0.9305 -0.4492 -1.0797
52357SOL    HW262909   1.009   5.017  10.106  1.3461  0.2701  0.5776
52358SOL     OW62910   3.989   3.970   3.306 -0.4627  0.1214 -0.1379
52358SOL    HW162911   4.045   4.021   3.248  1.2416 -0.9264  0.5292
52358SOL    HW262912   3.900   3.993   3.278  0.2531  2.0657 -1.0154
52359SOL     OW62913   9.662   9.674   9.536  0.5310 -0.1433 -0.8145
52359SOL    HW162914   9.609   9.754   9.523  1.5663  0.4665 -1.4288
52359SOL    HW262915   9.700   9.658   9.450  1.6388 -0.3533 -0.2921
52360SOL     OW62916   2.671   3.091   2.183  0.1903 -0.4183 -0.1438
52360SOL    HW162917   2.731   3.046   2.124 -2.2867 -0.9443 -2.4594
52360SOL    HW262918   2.627   3.021   2.231 -1.0379 -0.2995 -1.0553
52361SOL     OW62919   1.876   2.166   3.653 -0.0002  0.1320  0.1161
52361SOL    HW162920   1.828   2.246   3.631 -2.3664 -1.0141  0.7526
52361SOL    HW262921   1.875   2.115   3.571  2.3022  1.0348 -0.5605
52362SOL     OW62922  12.105   6.679   5.571  0.3130  0.0323  0.5901
52362SOL    HW162923  12.025   6.635   5.541  0.7877 -0.8138  0.5475
52362SOL    HW262924  12.119   6.646   5.660  2.2327 -2.1435 -0.4369
52363SOL     OW62925   1.122   9.711   7.989 -0.4347 -0.3381 -0.3066
52363SOL    HW162926   1.121   9.765   8.068 -1.4554  2.1251 -1.8780
52363SOL    HW262927   1.198   9.654   8.000  0.3813  1.0121  1.7340
52364SOL     OW62928  10.736   3.348  11.721 -0.2792 -0.1625  0.1676
52364SOL    HW162929  10.694   3.395  11.649  2.1721  0.3364 -1.0163
52364SOL    HW262930  10.734   3.256  11.694 -2.2186 -0.4379  1.0255
52365SOL     OW62931   7.689   3.990   6.991  0.5232 -0.8215 -0.5038
52365SOL    HW162932   7.698   4.017   7.082  3.1970  1.0907 -1.1812
52365SOL    HW262933   7.672   3.896   6.994 -1.6133 -0.4547  1.9442
52366SOL     OW62934   4.304   3.109  11.663  0.2648  0.0987  0.7066
52366SOL    HW162935   4.316   3.059  11.744  0.1880  1.0005  1.2872
52366SOL    HW262936   4.266   3.192  11.692 -0.0600  0.3081 -0.2927
52367SOL     OW62937   6.646   9.554   9.389 -0.3110 -0.0854 -0.0296
52367SOL    HW162938   6.717   9.559   9.325  0.4911  0.0500  0.8536
52367SOL    HW262939   6.611   9.643   9.394 -0.9520 -0.2689 -0.8900
52368SOL     OW62940   9.294   7.162   1.992 -0.1244  0.1634 -0.6859
52368SOL    HW162941   9.298   7.257   2.006 -1.5577  0.3657 -1.5419
52368SOL    HW262942   9.358   7.146   1.922  1.1017  0.2750  0.3601
52369SOL     OW62943  10.773   4.292   0.527 -0.2975  0.4155  0.2262
52369SOL    HW162944  10.689   4.271   0.568 -1.0667 -2.9335 -2.5910
52369SOL    HW262945  10.838   4.262   0.591 -1.3317 -0.3876  0.9387
52370SOL     OW62946   9.753   7.161   3.605  0.5360  0.0748 -0.1439
52370SOL    HW162947   9.801   7.222   3.660  0.8119 -0.7691  0.5781
52370SOL    HW262948   9.692   7.117   3.665 -0.1298  0.1197 -0.7753
52371SOL     OW62949   3.130  11.477   0.301  0.3395 -0.1491 -0.4270
52371SOL    HW162950   3.087  11.558   0.274  1.1673  0.2522 -0.5877
52371SOL    HW262951   3.221  11.488   0.272  0.6489 -0.7946  0.2715
52372SOL     OW62952   1.231   7.593   2.208 -0.1053  0.6281  0.4495
52372SOL    HW162953   1.158   7.614   2.150 -0.3717 -0.3868  0.3930
52372SOL    HW262954   1.204   7.512   2.252  0.3843  1.0082  1.4860
52373SOL     OW62955   2.542   1.377  10.340  0.1358 -0.2062  0.3118
52373SOL    HW162956   2.627   1.383  10.385 -1.4104  1.7085  3.2934
52373SOL    HW262957   2.520   1.283  10.343  0.5927 -0.3063  2.7814
52374SOL     OW62958   3.888  11.504  11.027  0.3667  0.2632  0.1409
52374SOL    HW162959   3.871  11.433  10.965 -1.4271  0.9581 -0.2317
52374SOL    HW262960   3.899  11.459  11.111 -1.9882 -0.4540  0.1465
52375SOL     OW62961   2.079   0.464   5.191 -0.2862  0.1474 -0.7835
52375SOL    HW162962   2.115   0.538   5.239  0.2184 -0.7336  0.2504
52375SOL    HW262963   1.995   0.495   5.157  0.7568  1.8001 -2.0380
52376SOL     OW62964   9.259   8.612   2.819 -1.0457 -0.7048  0.5131
52376SOL    HW162965   9.323   8.661   2.871 -0.6268  0.8168 -1.2884
52376SOL    HW262966   9.286   8.521   2.827  1.3748 -0.1271 -0.1340
52377SOL     OW62967   2.947   3.357   5.525 -0.0679 -0.5063 -0.0110
52377SOL    HW162968   2.941   3.333   5.617 -0.5764 -0.1013  0.0631
52377SOL    HW262969   2.963   3.274   5.479  0.0512 -0.7246  0.4259
52378SOL     OW62970   1.075   9.355   2.609  0.3589  0.3308 -0.1892
52378SOL    HW162971   0.990   9.379   2.646  0.4277 -0.6335  0.6579
52378SOL    HW262972   1.064   9.263   2.584  0.5930  0.7180 -1.8072
52379SOL     OW62973   4.335  10.288   9.497  0.3694 -0.9008 -0.2259
52379SOL    HW162974   4.376  10.372   9.518 -0.0189 -1.1539  1.7304
52379SOL    HW262975   4.242  10.309   9.485  0.1991 -1.0854  0.6854
52380SOL     OW62976   0.991   1.284   9.300  0.2897  0.1487  0.5677
52380SOL    HW162977   0.906   1.244   9.281  0.3387  0.0461  0.5608
52380SOL    HW262978   0.989   1.303   9.394  2.4084 -5.2131  2.0911
52381SOL     OW62979  11.649  11.239   1.227  0.4987  0.6129  0.3296
52381SOL    HW162980  11.568  11.262   1.273 -0.0640 -0.1132 -0.2730
52381SOL    HW262981  11.627  11.161   1.177  1.4420  0.6896 -0.2327
52382SOL     OW62982   3.191   2.029   1.858 -0.2475  0.8400  0.4619
52382SOL    HW162983   3.210   1.947   1.903 -1.3026  0.4661  0.2712
52382SOL    HW262984   3.271   2.081   1.866  1.4674 -1.2247 -1.7072
52383SOL     OW62985   3.632   0.056   1.999 -0.3448  0.1109 -0.4744
52383SOL    HW162986   3.634   0.001   2.077  0.4353  0.1544 -0.4514
52383SOL    HW262987   3.540   0.063   1.976 -0.4862 -0.9003 -0.2630
52384SOL     OW62988  10.206   3.329   1.373 -0.1112  0.2379 -0.5815
52384SOL    HW162989  10.238   3.260   1.315  1.3976  0.2089  0.2186
52384SOL    HW262990  10.157   3.283   1.441  0.2446  0.0086 -0.4739
52385SOL     OW62991   4.310   9.580   8.051 -0.3044  0.2653  0.3278
52385SOL    HW162992   4.308   9.675   8.063  0.2298  0.2591  0.4812
52385SOL    HW262993   4.241   9.562   7.988 -0.2461  0.7824  0.1156
52386SOL     OW62994   9.184  10.332   5.854 -0.0003  0.2383 -0.2769
52386SOL    HW162995   9.254  10.364   5.797  1.4043 -1.7264  0.2815
52386SOL    HW262996   9.210  10.359   5.942  0.0455 -0.4638 -0.0715
52387SOL     OW62997   9.459  10.259  10.733  0.1053  0.8184 -0.4955
52387SOL    HW162998   9.412  10.196  10.788 -0.0006 -0.4821 -2.0180
52387SOL    HW262999   9.503  10.317  10.796 -2.4522  1.3215  0.9760
52388SOL     OW63000   4.043   1.875   8.825 -0.2827  0.1596  0.0347
52388SOL    HW163001   3.983   1.948   8.813 -2.2047 -1.3000  0.2915
52388SOL    HW263002   4.043   1.830   8.740 -1.3392 -1.1002  0.6722
52389SOL     OW63003   9.019   6.078   5.464  0.4156 -0.0664  0.1803
52389SOL    HW163004   9.064   6.162   5.454  0.0253  0.0482 -0.7651
52389SOL    HW263005   9.083   6.021   5.507  0.1520  1.1347  2.3026
52390SOL     OW63006   7.971   1.322   4.894  0.1677  0.5817 -0.2519
52390SOL    HW163007   8.008   1.337   4.981  1.0199 -0.0152 -0.5009
52390SOL    HW263008   8.047   1.314   4.836 -0.3283 -0.8901 -0.7496
52391SOL     OW63009   2.911   2.491   6.938 -0.0325  0.1583  0.1999
52391SOL    HW163010   2.873   2.574   6.968  1.2813  1.0090 -0.3807
52391SOL    HW263011   3.006   2.506   6.940  0.2030 -0.9578 -0.9576
52392SOL     OW63012   0.685  10.697   5.922  0.4278 -0.3170 -0.1226
52392SOL    HW163013   0.774  10.685   5.888  0.1254 -3.1192 -0.1138
52392SOL    HW263014   0.628  10.671   5.849 -0.5080  2.4749 -0.5173
52393SOL     OW63015   7.523   5.742   6.442 -0.1300 -0.0330 -0.6580
52393SOL    HW163016   7.603   5.705   6.406 -0.1506  2.0602 -3.0868
52393SOL    HW263017   7.460   5.737   6.371 -1.1635  1.3994  0.0980
52394SOL     OW63018  11.293  12.241   8.164  0.9548  0.5692  0.3380
52394SOL    HW163019  11.318  12.318   8.214  0.9702 -0.2917  1.7258
52394SOL    HW263020  11.241  12.188   8.225  0.4472 -0.2526 -0.7564
52395SOL     OW63021   6.277  11.798  11.222  0.1353  0.1486 -0.1623
52395SOL    HW163022   6.335  11.874  11.237 -0.2471  0.5772 -0.7698
52395SOL    HW263023   6.278  11.750  11.304 -2.7103  2.8956  1.6739
52396SOL     OW63024   8.915   1.156  10.800  0.2043  0.2582 -0.0770
52396SOL    HW163025   9.007   1.180  10.805  0.5934 -1.0944 -0.3968
52396SOL    HW263026   8.893   1.128  10.889 -0.0786  1.1526  0.1445
52397SOL     OW63027   7.743   7.631   3.109 -0.1882 -0.4554  0.2110
52397SOL    HW163028   7.650   7.646   3.124 -0.0140  0.7014  0.2143
52397SOL    HW263029   7.768   7.696   3.043  0.1665 -2.1426 -1.4218
52398SOL     OW63030   8.488   9.746  11.776 -0.4022 -0.0421  0.2592
52398SOL    HW163031   8.469   9.663  11.820  0.6828 -0.6952 -0.4530
52398SOL    HW263032   8.561   9.726  11.717 -0.6101  1.2492 -0.4752
52399SOL     OW63033  11.608   4.156   3.287  0.0306 -0.2164  0.0202
52399SOL    HW163034  11.660   4.097   3.232  2.3776  0.8211  0.9737
52399SOL    HW263035  11.579   4.225   3.227  1.6431  0.3275 -0.1916
52400SOL     OW63036   3.245   5.517   6.546 -0.1265  0.0591 -0.0405
52400SOL    HW163037   3.234   5.427   6.578 -0.1901  0.4007  0.9351
52400SOL    HW263038   3.225   5.571   6.622 -0.1355  0.9036 -0.6386
52401SOL     OW63039   6.717   6.952   3.527  0.0693  0.5072  0.4435
52401SOL    HW163040   6.767   6.882   3.484 -0.1568  1.1325 -0.8942
52401SOL    HW263041   6.779   6.989   3.590  0.8953  0.4291 -0.2878
52402SOL     OW63042   4.945   8.128   0.715  0.0876 -0.3027 -0.3980
52402SOL    HW163043   4.953   8.055   0.654  3.3453 -0.2710 -0.1857
52402SOL    HW263044   4.938   8.087   0.802 -3.0222 -0.3123 -0.5163
52403SOL     OW63045   2.811  12.282   7.247 -0.1800 -0.3180  0.2522
52403SOL    HW163046   2.729  12.309   7.206  0.0058 -1.4781 -0.9420
52403SOL    HW263047   2.857  12.364   7.264 -0.5473  0.2360 -1.2932
52404SOL     OW63048   9.555   8.006  10.815 -0.7928  0.2823 -0.0045
52404SOL    HW163049   9.573   8.084  10.762 -0.6691  1.4915  1.7576
52404SOL    HW263050   9.631   7.998  10.873 -1.1578 -0.7148  0.3575
52405SOL     OW63051   0.741   3.135   9.652 -0.0833  0.5246  0.5777
52405SOL    HW163052   0.811   3.096   9.704  0.8018 -0.1982 -1.0736
52405SOL    HW263053   0.667   3.076   9.662  1.2996 -1.9319 -2.0821
52406SOL     OW63054   2.230   2.087   8.245 -0.3752  1.0087  0.1231
52406SOL    HW163055   2.232   2.015   8.309  0.0161  0.5099 -0.4459
52406SOL    HW263056   2.164   2.061   8.182  1.4088 -0.0212 -1.4124
52407SOL     OW63057   5.155   9.715   7.206  0.4485  0.3429  0.6802
52407SOL    HW163058   5.176   9.772   7.132  3.9267  1.0836  2.0596
52407SOL    HW263059   5.080   9.756   7.248  0.0618  1.3515 -0.9203
52408SOL     OW63060  11.902   5.935   9.025 -0.1447  0.2228 -0.4950
52408SOL    HW163061  11.989   5.958   8.992 -0.2808  1.4914 -0.0100
52408SOL    HW263062  11.919   5.863   9.087  0.4781  0.0325 -0.8784
52409SOL     OW63063   3.975   8.421   4.604 -0.0964 -0.1525  0.0403
52409SOL    HW163064   3.969   8.382   4.691 -0.3834  0.6228  0.3698
52409SOL    HW263065   3.899   8.385   4.556  0.3932 -1.0395 -0.0862
52410SOL     OW63066   5.568   3.522   7.901  0.5444  0.2129 -0.5896
52410SOL    HW163067   5.499   3.589   7.897  0.3903  0.0288 -1.0908
52410SOL    HW263068   5.521   3.440   7.914  0.6079  0.0075 -1.5176
52411SOL     OW63069   6.756   1.364  10.032 -0.1251  0.8694  0.0263
52411SOL    HW163070   6.776   1.327  10.118 -1.9600  0.0121  0.1329
52411SOL    HW263071   6.762   1.459  10.045  0.7325  0.7290  0.7897
52412SOL     OW63072   2.780   3.038   7.197  0.4393  0.0262 -0.1397
52412SOL    HW163073   2.713   2.979   7.164  0.5178  0.5427 -1.3055
52412SOL    HW263074   2.842   3.046   7.124  0.2496  1.7864 -0.1579
52413SOL     OW63075  10.210  11.867   0.293  0.2825 -0.7527 -0.0804
52413SOL    HW163076  10.160  11.917   0.358 -1.7300 -1.1264 -1.2580
52413SOL    HW263077  10.261  11.934   0.247  0.6797 -0.3122  0.9520
52414SOL     OW63078   0.387   3.724   2.302  0.3669  0.3562  0.2847
52414SOL    HW163079   0.475   3.718   2.265 -0.3082 -0.1272 -1.3431
52414SOL    HW263080   0.396   3.785   2.375  1.7811  1.4724 -0.7483
52415SOL     OW63081   0.089  11.555  10.286  0.1055 -0.6696 -0.0089
52415SOL    HW163082   0.120  11.586  10.371  0.4504  0.0208 -0.3881
52415SOL    HW263083   0.156  11.493  10.258  0.2873 -0.4534 -0.0522
52416SOL     OW63084   8.132   4.007   4.790 -0.6461 -0.7369  0.6107
52416SOL    HW163085   8.081   4.020   4.869 -0.4474 -2.4294  1.0489
52416SOL    HW263086   8.162   4.095   4.766 -0.2977 -0.2351  2.6849
52417SOL     OW63087  11.573   4.529  11.029 -0.2578  0.0537  0.1201
52417SOL    HW163088  11.668   4.526  11.017 -0.0646  1.9662  0.7581
52417SOL    HW263089  11.556   4.472  11.104  0.8232  2.0044  1.9524
52418SOL     OW63090  10.064   2.472   7.699 -0.2060  0.6033 -0.1385
52418SOL    HW163091   9.995   2.531   7.728 -0.1227  0.6276  0.0111
52418SOL    HW263092  10.129   2.474   7.770 -0.9018 -0.8299  0.5857
52419SOL     OW63093   2.892   2.238  11.211  0.4570  0.3030  0.3628
52419SOL    HW163094   2.818   2.299  11.206 -0.0542 -0.1840  1.6015
52419SOL    HW263095   2.879   2.178  11.137 -0.9796 -0.3939  1.1371
52420SOL     OW63096   2.650   2.796   7.477 -0.5390  0.6250  0.7027
52420SOL    HW163097   2.572   2.776   7.426  0.5826  0.4451 -1.0643
52420SOL    HW263098   2.630   2.878   7.522 -1.8379  0.4172  0.5200
52421SOL     OW63099   1.308   3.358   9.984 -0.1749  0.0188 -0.3342
52421SOL    HW163100   1.332   3.326  10.072 -1.9500 -1.3329 -0.2766
52421SOL    HW263101   1.391   3.361   9.937  0.9399  1.4496  1.5495
52422SOL     OW63102   8.437   5.818   6.593  0.4328  0.1150  0.2599
52422SOL    HW163103   8.475   5.869   6.664 -0.9057  2.5328 -0.6788
52422SOL    HW263104   8.428   5.730   6.629 -1.3820  1.4946  3.5806
52423SOL     OW63105  10.621   3.781  12.062  0.7292  0.5539 -0.3685
52423SOL    HW163106  10.646   3.871  12.081  0.5763  1.1180 -2.5850
52423SOL    HW263107  10.576   3.785  11.978  1.0260 -1.6313 -0.7054
52424SOL     OW63108   8.040   1.698   1.152  0.1517 -0.0362 -0.5127
52424SOL    HW163109   8.027   1.786   1.118 -0.6319 -0.0159 -0.1892
52424SOL    HW263110   8.084   1.711   1.236 -1.5223  0.1987  0.3925
52425SOL     OW63111   1.742   8.307   9.326  0.3677  0.3203 -0.1897
52425SOL    HW163112   1.793   8.227   9.317  1.2660  0.7742  0.6454
52425SOL    HW263113   1.653   8.278   9.348  0.9703 -0.4313  1.3776
52426SOL     OW63114  11.560   4.622  11.879  0.3253 -0.1873  0.1353
52426SOL    HW163115  11.469   4.631  11.852 -0.1605  1.7210  2.1801
52426SOL    HW263116  11.610   4.667  11.810 -0.2444 -1.0906 -0.9037
52427SOL     OW63117  11.506   2.748   6.505  0.5029 -0.3008 -0.2322
52427SOL    HW163118  11.491   2.668   6.453  0.0978 -0.4180  0.0607
52427SOL    HW263119  11.419   2.786   6.515  0.6276 -0.0955  0.0689
52428SOL     OW63120   7.077   8.803   9.536 -0.2967  0.3548 -0.1979
52428SOL    HW163121   7.114   8.729   9.584  3.0594  1.9465 -0.0981
52428SOL    HW263122   7.015   8.842   9.598  0.3731 -0.4077  1.0011
52429SOL     OW63123   7.542   4.764   1.810 -0.0081  0.6526  0.0555
52429SOL    HW163124   7.460   4.804   1.842 -0.4529 -0.9548  1.0206
52429SOL    HW263125   7.526   4.750   1.717 -1.1550 -0.3071  0.3656
52430SOL     OW63126   0.981   6.624   0.120  0.1635 -0.2689 -0.2232
52430SOL    HW163127   1.046   6.672   0.171 -1.0667  1.6041 -0.2847
52430SOL    HW263128   1.031   6.585   0.049  1.4850 -0.5266  0.8119
52431SOL     OW63129   2.517  10.467   6.246  0.6477  0.1972  0.5037
52431SOL    HW163130   2.594  10.418   6.276 -0.1403 -1.5844 -0.2796
52431SOL    HW263131   2.482  10.416   6.173 -0.0467  2.1157 -0.5827
52432SOL     OW63132   6.687   1.914   1.031  0.6759 -0.7175  0.3083
52432SOL    HW163133   6.637   1.846   0.985 -1.4028  0.7520  0.2890
52432SOL    HW263134   6.685   1.989   0.973  0.9805  0.0900  1.3175
52433SOL     OW63135   9.865  11.166  11.667  0.7570  0.1560 -0.2184
52433SOL    HW163136   9.822  11.231  11.722 -0.6339  0.0618 -1.1360
52433SOL    HW263137   9.867  11.086  11.720  0.6536  0.4212  0.1836
52434SOL     OW63138  10.165   8.179   4.591 -0.2800  0.0117 -0.0201
52434SOL    HW163139  10.246   8.223   4.617 -0.0220 -0.7308  0.4716
52434SOL    HW263140  10.109   8.250   4.559 -0.4659  0.9512  2.1805
52435SOL     OW63141   2.996   2.355   5.156  0.2085  0.9065 -0.4704
52435SOL    HW163142   3.026   2.425   5.214  1.6780  0.6925 -0.9382
52435SOL    HW263143   3.029   2.275   5.195 -0.9281  0.5117 -0.2800
52436SOL     OW63144   3.911   3.998   9.629 -0.3193 -0.0829 -0.0767
52436SOL    HW163145   3.891   4.087   9.599  2.0965  1.4242  2.4252
52436SOL    HW263146   3.855   3.986   9.705  0.4234 -0.0991  0.4723
52437SOL     OW63147  10.084   3.521   3.441  0.1289  0.1711  0.0047
52437SOL    HW163148  10.004   3.561   3.475  0.5414  2.2866 -1.3908
52437SOL    HW263149  10.133   3.593   3.402  2.0833 -1.3133 -0.4319
52438SOL     OW63150   3.066   9.347  11.906 -0.3325 -0.2425  0.0809
52438SOL    HW163151   3.018   9.299  11.973  0.2699 -1.2640 -0.1902
52438SOL    HW263152   3.004   9.355  11.833  0.1109 -2.2871 -0.5905
52439SOL     OW63153  11.469  10.088   9.609  0.1305 -0.5745 -0.0923
52439SOL    HW163154  11.474  10.040   9.691  1.8921  0.1504  0.2541
52439SOL    HW263155  11.380  10.070   9.576 -0.2359 -1.7077  1.4266
52440SOL     OW63156   5.083  11.292   3.089 -0.1564  0.1748 -0.4794
52440SOL    HW163157   5.033  11.227   3.041  0.8695 -0.1248 -1.1789
52440SOL    HW263158   5.124  11.346   3.021  0.3662  0.4852  0.0728
52441SOL     OW63159   3.966  12.211   5.980 -0.1604 -0.8935 -0.8312
52441SOL    HW163160   4.028  12.274   5.943 -0.7741  0.3235  0.1532
52441SOL    HW263161   4.022  12.145   6.022  0.4762 -0.2227 -0.6084
52442SOL     OW63162   7.937   7.492   5.799  0.4836 -0.1352  0.2125
52442SOL    HW163163   8.013   7.536   5.835 -0.0909  2.2156 -1.2280
52442SOL    HW263164   7.962   7.471   5.709  0.5180 -2.3292  0.6775
52443SOL     OW63165  12.119   2.804   8.286 -0.4606  0.1760 -0.3409
52443SOL    HW163166  12.131   2.881   8.342  0.6611  0.0776 -0.4232
52443SOL    HW263167  12.080   2.738   8.343  1.7451 -0.3161  0.7021
52444SOL     OW63168   0.129   3.051   9.536 -0.3228 -0.0188 -0.0033
52444SOL    HW163169   0.135   3.146   9.534  0.1017 -0.0564 -0.7655
52444SOL    HW263170   0.220   3.021   9.537 -0.2700 -0.4650 -3.7436
52445SOL     OW63171   7.052   4.717   2.659  0.7810  0.2120 -0.0261
52445SOL    HW163172   7.104   4.652   2.612  0.3244 -0.8201  0.8275
52445SOL    HW263173   6.965   4.677   2.666  0.5400  0.8380  0.6810
52446SOL     OW63174   2.720  12.119   5.148 -0.0891 -0.3152 -0.2072
52446SOL    HW163175   2.666  12.151   5.076 -1.2028  0.0759  0.7549
52446SOL    HW263176   2.776  12.052   5.110  0.2737  0.7822 -1.6951
52447SOL     OW63177  12.038   3.175   6.460 -0.1031 -0.2941  0.3353
52447SOL    HW163178  12.057   3.142   6.547  0.9782 -0.4978  0.0348
52447SOL    HW263179  12.115   3.227   6.436 -1.1429  1.2926  0.2189
52448SOL     OW63180   0.225   5.750   3.940 -0.1283  0.7905 -0.3943
52448SOL    HW163181   0.212   5.837   3.902 -1.9926  1.0581  0.7159
52448SOL    HW263182   0.206   5.762   4.033 -0.0705 -0.7298 -0.1731
52449SOL     OW63183   4.400   2.363   3.498 -0.5819  0.3004 -0.1237
52449SOL    HW163184   4.331   2.424   3.524 -0.9038 -0.2416  0.3123
52449SOL    HW263185   4.355   2.279   3.490  0.2090 -0.2654  1.1708
52450SOL     OW63186   6.983   0.412   3.821  0.0382 -0.1001 -0.5515
52450SOL    HW163187   7.072   0.435   3.795  0.1705  1.4298  1.1078
52450SOL    HW263188   6.928   0.449   3.752  0.5726  0.6918 -0.5655
52451SOL     OW63189   2.973   2.809   6.350  0.2884 -0.1357 -0.2000
52451SOL    HW163190   3.023   2.827   6.430 -1.7164 -0.9384  1.3414
52451SOL    HW263191   2.891   2.858   6.362 -0.3898 -0.9434 -1.3703
52452SOL     OW63192   6.763   7.563   9.074 -0.3309 -0.2258  0.7295
52452SOL    HW163193   6.849   7.530   9.046 -0.6031 -1.0512  0.8250
52452SOL    HW263194   6.721   7.591   8.994 -0.5784 -1.3104  0.4577
52453SOL     OW63195   3.369   6.476   7.464  0.0798  0.2886 -0.0679
52453SOL    HW163196   3.301   6.414   7.439  1.5214 -0.6753 -1.7726
52453SOL    HW263197   3.452   6.430   7.448  1.1858  2.1598 -0.0492
52454SOL     OW63198  12.255   2.705   8.015 -0.5918  0.1360 -0.5355
52454SOL    HW163199  12.200   2.680   8.090 -0.0564  0.1742 -0.1261
52454SOL    HW263200  12.314   2.631   8.003  3.6894  2.4457  3.1360
52455SOL     OW63201   0.511  11.931   9.541  0.5670 -0.1132  0.3572
52455SOL    HW163202   0.518  11.899   9.631  1.5128 -1.0329 -0.0238
52455SOL    HW263203   0.600  11.959   9.519  0.1557  0.9907  0.0087
52456SOL     OW63204   2.996   6.550   2.601  0.1235  0.0332  0.0268
52456SOL    HW163205   3.041   6.547   2.686  1.0018  3.2842 -0.1961
52456SOL    HW263206   2.903   6.556   2.623  0.3914  1.7153  0.8749
52457SOL     OW63207   1.187   0.377   6.361 -0.0502 -0.1302 -0.8399
52457SOL    HW163208   1.269   0.328   6.372 -1.3535 -1.7949  3.0405
52457SOL    HW263209   1.129   0.317   6.314 -0.5004 -0.9028  0.6708
52458SOL     OW63210   5.971   5.008   5.937 -0.1114 -0.0617  0.3123
52458SOL    HW163211   5.941   4.918   5.922 -0.0289  0.1644 -1.5309
52458SOL    HW263212   6.039   5.022   5.871  0.8638  0.9243  1.4737
52459SOL     OW63213   5.769   5.831   8.156  0.0268 -0.1958 -0.1527
52459SOL    HW163214   5.812   5.746   8.162 -2.1530 -1.6032 -2.3290
52459SOL    HW263215   5.755   5.857   8.247 -1.2137 -3.3178  0.7164
52460SOL     OW63216   0.777  10.460   6.745  0.1095 -0.1628 -0.2980
52460SOL    HW163217   0.753  10.413   6.825 -0.3562  0.2874 -0.1694
52460SOL    HW263218   0.694  10.470   6.698 -0.2740  2.7127  0.8210
52461SOL     OW63219   7.278   1.405   3.659  0.1580  0.1897  0.1817
52461SOL    HW163220   7.280   1.315   3.691  0.8046 -0.1377 -0.7467
52461SOL    HW263221   7.361   1.442   3.687  0.8836 -0.2032 -1.3634
52462SOL     OW63222  11.913   7.004   7.065 -0.3552 -0.3881  0.2353
52462SOL    HW163223  11.954   7.083   7.030  0.2306 -1.6563 -2.1876
52462SOL    HW263224  11.834   7.035   7.108 -0.0554  1.5281 -0.4945
52463SOL     OW63225   8.067   3.546   5.587 -0.7161  0.1288  0.2888
52463SOL    HW163226   8.011   3.623   5.588 -2.0916 -0.8451  0.7951
52463SOL    HW263227   8.092   3.536   5.495 -1.7105  0.3572 -0.0196
52464SOL     OW63228   0.764  11.727   5.263  0.7801 -0.6316 -0.0661
52464SOL    HW163229   0.821  11.800   5.237  0.2283 -0.4115 -0.6759
52464SOL    HW263230   0.819  11.674   5.321  1.5275 -0.2925 -0.4428
52465SOL     OW63231   5.026   7.453   7.074  0.1978 -0.0968  0.1780
52465SOL    HW163232   4.967   7.416   7.009  1.8815 -1.0359 -0.8899
52465SOL    HW263233   5.099   7.488   7.023  0.3931  1.4323  1.4220
52466SOL     OW63234   4.734  10.002  11.137 -0.3404  0.1257  0.4911
52466SOL    HW163235   4.760  10.000  11.045 -1.2515 -0.1780  0.2386
52466SOL    HW263236   4.804   9.954  11.182 -0.8732 -1.4649 -0.2962
52467SOL     OW63237   4.611  11.917   6.056  0.1034  0.2312 -0.7353
52467SOL    HW163238   4.611  12.007   6.090 -1.8889  0.1352 -0.3031
52467SOL    HW263239   4.524  11.883   6.080 -0.3909 -0.7875 -3.5387
52468SOL     OW63240   7.947   3.830   3.778 -0.0424  0.2466 -0.3368
52468SOL    HW163241   7.979   3.822   3.867 -0.2179  0.8444 -0.2170
52468SOL    HW263242   8.006   3.774   3.726  1.2460  1.3783 -0.1361
52469SOL     OW63243   7.665   6.927   0.568  0.4993 -0.2310 -0.3194
52469SOL    HW163244   7.688   6.989   0.499  1.9735  2.4000  2.3172
52469SOL    HW263245   7.746   6.915   0.618 -0.1261 -3.2302  0.1907
52470SOL     OW63246   1.326   8.303   4.966 -0.3225 -0.2214 -0.3653
52470SOL    HW163247   1.336   8.354   4.886  1.6495  0.4294  0.2445
52470SOL    HW263248   1.309   8.368   5.035 -2.2723 -0.7938 -0.2363
52471SOL     OW63249  12.108  10.365   2.698  0.2443 -0.1430 -0.0546
52471SOL    HW163250  12.044  10.303   2.732 -0.0325  0.8993  1.4085
52471SOL    HW263251  12.191  10.337   2.737 -0.0791  1.0752  1.6361
52472SOL     OW63252   0.179   7.317   0.982 -0.0213  0.5002 -0.4142
52472SOL    HW163253   0.115   7.378   1.020  0.0741 -0.4344  1.3845
52472SOL    HW263254   0.252   7.318   1.044 -0.6672 -2.5582  0.6207
52473SOL     OW63255   4.076   7.322   1.687  0.0719 -0.5452 -0.0968
52473SOL    HW163256   4.072   7.231   1.714 -2.1699 -0.3547  0.4525
52473SOL    HW263257   4.027   7.369   1.754  3.4920  1.5573  1.1940
52474SOL     OW63258   3.458  10.154   4.909 -0.4567 -0.2255 -0.3951
52474SOL    HW163259   3.505  10.072   4.895  1.0757  0.4163  0.6479
52474SOL    HW263260   3.526  10.215   4.940 -1.8157  1.0155  0.2538
52475SOL     OW63261   0.306   0.394   9.366 -0.3457 -0.0433  0.3120
52475SOL    HW163262   0.238   0.449   9.326 -0.0093  0.9990  1.1152
52475SOL    HW263263   0.387   0.419   9.322 -0.2894 -0.3867  0.2175
52476SOL     OW63264   6.853   3.761   7.544  0.2764  0.2084  0.0360
52476SOL    HW163265   6.796   3.764   7.467  0.0354 -1.1456  0.1447
52476SOL    HW263266   6.924   3.821   7.522  0.2740 -0.2316 -1.3036
52477SOL     OW63267  12.157   2.856   4.449  0.4164 -0.0329  0.0631
52477SOL    HW163268  12.163   2.782   4.509  0.8405  0.8353  1.1196
52477SOL    HW263269  12.163   2.933   4.505  1.0331  0.8070 -1.1106
52478SOL     OW63270   8.814   8.299   3.557  0.3989  0.5445 -0.3746
52478SOL    HW163271   8.721   8.293   3.538  0.9918 -1.5740 -3.2573
52478SOL    HW263272   8.839   8.387   3.527 -0.2690  0.2377 -1.9042
52479SOL     OW63273   0.893   5.587   1.429  0.1142  0.3264 -0.7963
52479SOL    HW163274   0.838   5.559   1.356  0.8275 -1.0399 -0.8488
52479SOL    HW263275   0.897   5.683   1.421 -1.9871  0.4461 -0.9390
52480SOL     OW63276   1.331   3.857   4.185  0.0766 -0.3079 -0.3027
52480SOL    HW163277   1.383   3.786   4.147 -0.1166 -0.6655  0.0939
52480SOL    HW263278   1.345   3.849   4.280 -1.6313 -1.1708 -0.0799
52481SOL     OW63279   3.726   0.058  10.723 -0.1657 -0.4071  0.0828
52481SOL    HW163280   3.712  -0.036  10.714 -0.9124 -0.6315  2.6865
52481SOL    HW263281   3.685   0.080  10.807  0.9960  2.0420  0.0861
52482SOL     OW63282   5.656   4.868   6.214 -0.0874 -0.2842  0.0907
52482SOL    HW163283   5.698   4.953   6.196 -0.2846  0.0524  1.1385
52482SOL    HW263284   5.581   4.890   6.269  0.8680 -1.2841  1.8753
52483SOL     OW63285   9.620  11.664  11.986  0.1474  0.4958  0.2503
52483SOL    HW163286   9.644  11.681  11.895 -1.3781 -1.3086 -0.5476
52483SOL    HW263287   9.535  11.706  11.996 -0.3036 -0.4292  0.4171
52484SOL     OW63288   3.734  11.735  12.197  0.1857  0.5716  0.1493
52484SOL    HW163289   3.702  11.675  12.129  2.2832 -0.1447 -0.2640
52484SOL    HW263290   3.715  11.690  12.279  0.7238 -0.1548 -0.1137
52485SOL     OW63291  11.733  11.197   5.877 -0.5627  0.4781 -0.0571
52485SOL    HW163292  11.663  11.213   5.815 -1.2296 -0.2216  0.4963
52485SOL    HW263293  11.751  11.103   5.870 -2.1255 -0.0749  2.2788
52486SOL     OW63294   6.651   8.501  10.117  0.0506 -0.5246  0.2199
52486SOL    HW163295   6.637   8.479  10.025 -2.3062 -0.4271  0.5085
52486SOL    HW263296   6.681   8.419  10.157  1.9815 -0.3549 -0.7354
52487SOL     OW63297   3.410   3.799   6.130  0.0415 -0.5363  0.0119
52487SOL    HW163298   3.415   3.893   6.111 -1.3095 -0.4471 -0.0454
52487SOL    HW263299   3.487   3.781   6.184  0.4220  0.5664 -0.1402
52488SOL     OW63300   2.129   7.709   2.887  0.0290 -0.1308 -0.3964
52488SOL    HW163301   2.205   7.728   2.942  0.2314 -1.6534 -0.1135
52488SOL    HW263302   2.089   7.795   2.871  2.8121  0.9913 -2.0892
52489SOL     OW63303   9.426   1.259   8.087  0.0866  0.3113  0.2433
52489SOL    HW163304   9.489   1.301   8.029  0.2614  1.7780  1.4262
52489SOL    HW263305   9.358   1.325   8.099 -0.3071 -0.2403  1.1307
52490SOL     OW63306   9.931  12.188   2.289  0.0301  0.4890  0.0151
52490SOL    HW163307   9.975  12.167   2.372  1.8718  0.0666 -1.0007
52490SOL    HW263308   9.874  12.113   2.273  0.7812 -0.1332  0.1895
52491SOL     OW63309   1.429   7.631   0.472 -0.1884 -0.4197  0.7668
52491SOL    HW163310   1.449   7.698   0.406 -1.3963 -0.4184  0.3755
52491SOL    HW263311   1.515   7.603   0.504  0.3468  1.2910  0.9275
52492SOL     OW63312  12.191  10.417  10.394 -0.0450  0.2119 -0.5894
52492SOL    HW163313  12.238  10.498  10.376  1.5238 -0.7385 -0.9119
52492SOL    HW263314  12.163  10.425  10.485 -1.0646  1.6444 -0.9894
52493SOL     OW63315   9.895  11.121   9.305 -0.2123  0.4056 -0.0772
52493SOL    HW163316   9.899  11.216   9.312  1.6037  0.2869  0.9945
52493SOL    HW263317   9.880  11.104   9.212 -1.0855  1.7250 -0.2071
52494SOL     OW63318   2.724   7.343   5.301 -0.3265  0.3598  0.2190
52494SOL    HW163319   2.721   7.253   5.268  0.8742  0.1480  0.6401
52494SOL    HW263320   2.632   7.371   5.302 -0.6569 -0.6081 -0.5802
52495SOL     OW63321   2.171   1.427  10.312 -0.2867 -0.3593  1.0464
52495SOL    HW163322   2.211   1.366  10.249  0.6019  0.7665  0.4912
52495SOL    HW263323   2.083   1.441  10.277  0.1297  0.1042  0.1251
52496SOL     OW63324   7.100   7.113  11.979 -0.5475  0.0805 -0.2565
52496SOL    HW163325   7.174   7.063  12.014  0.0573  0.2521 -1.2610
52496SOL    HW263326   7.111   7.109  11.884  0.1236  2.9383 -0.4129
52497SOL     OW63327   7.638   8.518   1.802 -0.0636 -0.3425 -0.3035
52497SOL    HW163328   7.632   8.527   1.897  0.6402  0.6475 -0.3312
52497SOL    HW263329   7.721   8.473   1.787 -0.5666 -1.2456 -0.4255
52498SOL     OW63330   6.108   4.045   5.625 -0.3726  0.6866 -0.0643
52498SOL    HW163331   6.091   4.066   5.533 -1.2319 -3.1065 -0.9716
52498SOL    HW263332   6.022   4.049   5.666  0.2428  4.1883  1.1873
52499SOL     OW63333   6.231   1.821   1.428  0.2581 -0.2067  0.4444
52499SOL    HW163334   6.240   1.895   1.367  1.4801 -1.7656 -1.4059
52499SOL    HW263335   6.266   1.746   1.379  1.2089 -1.5853  3.0542
52500SOL     OW63336   9.497  10.780   0.316  0.0843 -0.1695  0.1030
52500SOL    HW163337   9.571  10.720   0.324  0.4411  0.3718  0.9914
52500SOL    HW263338   9.504  10.837   0.393 -0.0658  1.2074 -0.8698
52501SOL     OW63339   1.455  11.833  12.045 -0.4611  0.5832  0.5365
52501SOL    HW163340   1.538  11.792  12.020  0.3776  1.8006  1.2108
52501SOL    HW263341   1.464  11.851  12.138 -1.1882  1.4113  0.4556
52502SOL     OW63342   6.816  10.870   6.144  0.0132  0.3813 -0.0404
52502SOL    HW163343   6.756  10.906   6.080 -2.3894 -0.1240  1.8006
52502SOL    HW263344   6.870  10.945   6.171 -2.5992  1.9458  1.2213
52503SOL     OW63345   8.011   0.157   2.664 -0.1145 -0.0842  0.5661
52503SOL    HW163346   8.055   0.159   2.750  0.6898 -2.2491  0.2656
52503SOL    HW263347   7.988   0.248   2.647  1.7777  0.7417  2.0370
52504SOL     OW63348   7.091   7.514   3.924  0.4527  0.5127 -0.1978
52504SOL    HW163349   7.093   7.545   3.834  1.5618 -0.1679 -0.4200
52504SOL    HW263350   7.104   7.420   3.917  5.2167  0.8666  0.8533
52505SOL     OW63351   3.728   0.608   6.952 -0.5964  0.0665 -0.1512
52505SOL    HW163352   3.741   0.563   7.036 -0.5063  0.8111  0.2440
52505SOL    HW263353   3.636   0.637   6.955 -0.1173  1.6635  0.4993
52506SOL     OW63354   5.553   4.989   4.777 -0.2624  0.3355 -0.2564
52506SOL    HW163355   5.644   4.979   4.752  0.0034 -0.3779  0.8933
52506SOL    HW263356   5.504   4.934   4.715  0.2133 -0.1783 -0.1845
52507SOL     OW63357   7.887   0.565   2.768  0.0305 -0.5043 -0.1106
52507SOL    HW163358   7.898   0.657   2.793  0.9933  0.0376 -2.3275
52507SOL    HW263359   7.961   0.521   2.809  0.5690  0.0420 -0.4648
52508SOL     OW63360   5.743   1.576   6.587  0.1975  0.4590  0.4256
52508SOL    HW163361   5.745   1.588   6.682 -0.0971 -0.5160  0.5672
52508SOL    HW263362   5.653   1.597   6.562 -0.0960 -0.5409  0.5642
52509SOL     OW63363   2.066   0.937  11.518 -0.2234  0.0485 -0.6694
52509SOL    HW163364   2.000   0.965  11.582 -0.6433 -1.6293 -0.3199
52509SOL    HW263365   2.020   0.877  11.460  0.7499 -0.3113 -1.0908
52510SOL     OW63366   0.970  11.106  10.123  0.2572  0.8748 -0.0849
52510SOL    HW163367   1.025  11.029  10.129 -0.9864  0.0514  2.3230
52510SOL    HW263368   1.018  11.166  10.066  2.7082 -0.5050  0.3858
52511SOL     OW63369  11.333   3.305  10.852 -0.2350  1.0977 -0.4558
52511SOL    HW163370  11.356   3.254  10.930  1.0967  0.3960 -1.2734
52511SOL    HW263371  11.336   3.396  10.881 -2.1295  0.7962  0.8955
52512SOL     OW63372   0.305   3.144   1.988 -0.0025 -0.4187 -0.4012
52512SOL    HW163373   0.305   3.081   1.917  0.4489 -1.6220  0.6331
52512SOL    HW263374   0.383   3.198   1.973  1.8695 -2.6193  0.8005
52513SOL     OW63375   2.947   9.744   6.198 -0.5331 -0.1532  0.1955
52513SOL    HW163376   2.916   9.656   6.219 -1.4307  0.2553  0.6475
52513SOL    HW263377   3.036   9.747   6.232 -0.4058 -0.9604 -0.0448
52514SOL     OW63378   1.472   0.750   3.111  0.1187  0.2722 -0.1019
52514SOL    HW163379   1.492   0.840   3.137 -1.4185  0.2957  1.1199
52514SOL    HW263380   1.383   0.754   3.076  0.5766 -0.5361 -1.4683
52515SOL     OW63381   7.665   2.245   2.537 -1.0429  0.1908 -0.2257
52515SOL    HW163382   7.600   2.312   2.560 -0.4174  0.2892  1.4638
52515SOL    HW263383   7.693   2.210   2.622 -0.4461 -1.3450 -1.0291
52516SOL     OW63384   0.740   6.074  10.112 -0.3902  0.0057  0.1712
52516SOL    HW163385   0.779   6.077  10.024 -0.1815 -0.0323  0.2643
52516SOL    HW263386   0.813   6.090  10.171 -0.1380 -2.0672  0.4618
52517SOL     OW63387   0.414  10.151   6.647 -0.8663  0.2964  0.5693
52517SOL    HW163388   0.389  10.135   6.556  2.2816  0.9298 -0.5330
52517SOL    HW263389   0.453  10.069   6.677 -0.2039  0.6591  0.7149
52518SOL     OW63390   1.722   9.904   5.611 -0.0725 -0.1470  0.4138
52518SOL    HW163391   1.669   9.984   5.610 -1.1222 -0.8074  1.0031
52518SOL    HW263392   1.802   9.928   5.565  0.4539  1.7927  2.1775
52519SOL     OW63393   9.586  10.194   5.897 -0.1287  0.1917 -0.2001
52519SOL    HW163394   9.560  10.259   5.963  0.6927 -0.1547  0.4831
52519SOL    HW263395   9.572  10.109   5.940  0.6171 -0.0335 -0.3980
52520SOL     OW63396   1.326   2.333   1.736  0.0382  0.5435 -0.4674
52520SOL    HW163397   1.372   2.359   1.816  1.4391  2.0206 -1.6991
52520SOL    HW263398   1.234   2.336   1.760  0.3864  1.7024  0.8894
52521SOL     OW63399   2.735   7.417   2.261 -0.0707  0.0490 -0.1155
52521SOL    HW163400   2.675   7.394   2.332 -0.5609 -0.2875 -0.6423
52521SOL    HW263401   2.812   7.452   2.307 -1.1069  1.6143  0.5457
52522SOL     OW63402   5.994   9.377   3.212  0.2474 -0.6774 -0.3581
52522SOL    HW163403   6.024   9.456   3.168 -0.1484 -0.3321 -0.0154
52522SOL    HW263404   6.005   9.307   3.148  0.6218 -0.3484 -0.6525
52523SOL     OW63405   6.750   0.988   5.536 -0.1781 -0.0463 -0.4902
52523SOL    HW163406   6.736   0.912   5.593  0.1485  0.1383 -0.1568
52523SOL    HW263407   6.718   0.961   5.450 -1.4295 -0.0585 -0.0380
52524SOL     OW63408   9.182  11.516   0.115 -0.2895  0.0527 -0.0681
52524SOL    HW163409   9.228  11.584   0.066  1.3243 -0.4653  0.6300
52524SOL    HW263410   9.250  11.451   0.133 -1.0142 -0.1692  2.1082
52525SOL     OW63411   6.404   3.323  11.101 -0.7668 -0.2699 -0.2237
52525SOL    HW163412   6.455   3.333  11.181  0.0489  1.2324 -0.8856
52525SOL    HW263413   6.424   3.234  11.071 -1.6520 -1.1300  1.5659
52526SOL     OW63414   4.397   4.644   6.598 -0.4717 -0.1844 -0.6353
52526SOL    HW163415   4.490   4.645   6.621 -0.1288 -0.0685 -1.9263
52526SOL    HW263416   4.375   4.737   6.586 -0.2393 -0.2990 -2.1756
52527SOL     OW63417   0.718  11.824   6.217  0.3329  0.0078  0.0302
52527SOL    HW163418   0.659  11.892   6.184  1.6310  0.4512 -1.4967
52527SOL    HW263419   0.790  11.873   6.257  0.9655 -0.4677 -0.5066
52528SOL     OW63420  10.982   8.158  12.221  0.3979  0.4779 -0.2911
52528SOL    HW163421  10.942   8.080  12.182  1.3281 -1.0814  1.6742
52528SOL    HW263422  11.042   8.124  12.288  2.2917  2.8263 -0.6308
52529SOL     OW63423  11.684   0.178  10.668 -0.1323 -0.4262 -0.1535
52529SOL    HW163424  11.727   0.195  10.584 -0.9633 -1.7629 -0.8796
52529SOL    HW263425  11.735   0.107  10.707  0.1916  0.1239  0.4381
52530SOL     OW63426   4.643   6.550   5.153  0.1132 -0.0455 -0.3907
52530SOL    HW163427   4.566   6.557   5.210  0.9989  1.6535  0.6798
52530SOL    HW263428   4.716   6.534   5.213  0.6146 -1.8593 -1.4109
52531SOL     OW63429   7.655   6.185   0.657  0.3238 -0.3515  0.4001
52531SOL    HW163430   7.712   6.140   0.719  0.7064 -0.2244  0.1435
52531SOL    HW263431   7.714   6.218   0.589 -0.1565 -1.0269 -0.3702
52532SOL     OW63432   6.235  11.079   1.031  0.4544 -0.7602 -0.2752
52532SOL    HW163433   6.186  11.101   1.110  0.5527  0.2248 -0.4667
52532SOL    HW263434   6.176  11.025   0.979 -0.5365  0.5653 -0.5894
52533SOL     OW63435   7.484  10.180   1.521 -0.0210 -0.2784 -0.1002
52533SOL    HW163436   7.486  10.145   1.432 -1.2231  0.7337 -0.5593
52533SOL    HW263437   7.424  10.121   1.568 -1.5251  0.7110 -0.7013
52534SOL     OW63438   2.359  11.929   1.974 -0.5979 -0.1301 -0.1854
52534SOL    HW163439   2.439  11.941   2.024 -0.5107 -2.6162  0.3833
52534SOL    HW263440   2.289  11.924   2.039 -1.2047  1.5929 -0.6511
52535SOL     OW63441   9.078   7.648   9.468  0.2221  0.0852  0.9337
52535SOL    HW163442   9.171   7.636   9.490  0.0482 -1.6410  0.9106
52535SOL    HW263443   9.031   7.613   9.543 -0.3671 -2.8806 -0.6648
52536SOL     OW63444   3.429  10.523   7.025 -0.1260  0.0763 -0.4035
52536SOL    HW163445   3.521  10.523   6.998  0.1576  1.0980  0.4673
52536SOL    HW263446   3.405  10.616   7.025 -1.5696 -0.2649 -1.9166
52537SOL     OW63447   2.094   6.510  11.265  0.6437  0.1816 -0.2186
52537SOL    HW163448   2.010   6.518  11.220 -0.5452 -2.2819  1.3312
52537SOL    HW263449   2.153   6.472  11.200 -0.2296 -0.6000 -0.5778
52538SOL     OW63450   1.884   9.480   2.492 -0.4642 -0.6264  0.0158
52538SOL    HW163451   1.938   9.448   2.564  1.0260  0.8133 -0.4103
52538SOL    HW263452   1.870   9.573   2.512  0.4017 -0.0695 -1.7814
52539SOL     OW63453   4.035   0.918   9.995  0.2082  0.4349  0.0429
52539SOL    HW163454   4.067   0.862  10.066 -0.6595 -1.6029 -1.0698
52539SOL    HW263455   3.990   0.990  10.039 -1.1286 -1.2588  1.6161
52540SOL     OW63456   3.065   7.055  10.293 -0.4630  0.5308 -0.2516
52540SOL    HW163457   2.972   7.073  10.304 -0.4140 -0.2968  1.8787
52540SOL    HW263458   3.072   6.960  10.289  0.3252  0.5643  0.0444
52541SOL     OW63459   5.788   2.417   0.944 -0.4256 -0.1510  0.1206
52541SOL    HW163460   5.781   2.494   0.999 -0.2104  0.1381 -0.2512
52541SOL    HW263461   5.841   2.355   0.995  1.3992  0.8195 -0.5094
52542SOL     OW63462   8.070   9.916   1.910  0.2726 -0.1206 -0.1172
52542SOL    HW163463   7.995   9.903   1.852  1.0145 -1.7830 -0.7729
52542SOL    HW263464   8.031   9.936   1.995 -0.9079 -0.7087 -0.4964
52543SOL     OW63465  10.210  10.419  12.101 -0.0448  0.1199  0.0724
52543SOL    HW163466  10.244  10.330  12.101  2.5432  1.0033  1.5567
52543SOL    HW263467  10.149  10.422  12.175  2.6358  0.3969  2.4432
52544SOL     OW63468   0.528   2.023  10.766  0.3860 -0.4232 -0.2419
52544SOL    HW163469   0.565   2.034  10.853 -0.1654 -0.1023 -0.0405
52544SOL    HW263470   0.581   2.079  10.710 -0.8518  1.4310  0.3428
52545SOL     OW63471   3.577  10.616   3.060  0.3137 -0.0730  0.0117
52545SOL    HW163472   3.629  10.666   3.124 -1.3014  1.2249  0.3654
52545SOL    HW263473   3.530  10.551   3.113  0.0932  0.0390 -0.0459
52546SOL     OW63474   3.043   4.886  10.129  0.0829  0.0983  0.1268
52546SOL    HW163475   3.052   4.820  10.060  1.2030 -0.3592  0.6813
52546SOL    HW263476   2.970   4.854  10.182 -0.7480  0.4249 -0.7926
52547SOL     OW63477   2.576   2.345   3.276  0.1107 -0.1337 -0.0397
52547SOL    HW163478   2.666   2.378   3.279  0.3418 -0.7958  0.5034
52547SOL    HW263479   2.578   2.278   3.208  0.0682 -0.2656  0.0897
52548SOL     OW63480   2.192   3.267  11.471 -0.1006 -0.3493  0.1046
52548SOL    HW163481   2.141   3.322  11.411 -1.3204 -1.8374 -0.2993
52548SOL    HW263482   2.134   3.193  11.490  2.0372 -2.3652 -0.7084
52549SOL     OW63483   2.579  12.141   3.186 -0.0004  0.3710 -0.3121
52549SOL    HW163484   2.572  12.057   3.231  2.3958 -1.4897 -3.0238
52549SOL    HW263485   2.670  12.144   3.156 -0.2226  3.6004 -1.0073
52550SOL     OW63486   3.387   6.881   7.029  0.4015  0.0757  1.0314
52550SOL    HW163487   3.315   6.821   7.050 -1.3775  1.1877 -1.4029
52550SOL    HW263488   3.464   6.825   7.021 -1.2425 -2.0305 -1.4176
52551SOL     OW63489   3.415  10.412  10.295 -0.8246 -0.3115 -0.0617
52551SOL    HW163490   3.474  10.363  10.352 -0.2116  0.4024 -0.0554
52551SOL    HW263491   3.345  10.351  10.274  0.4796 -1.5576 -0.9850
52552SOL     OW63492   0.753   2.975   3.241  0.7763 -0.4355 -0.1267
52552SOL    HW163493   0.809   2.995   3.166  0.9408  0.7710  0.2943
52552SOL    HW263494   0.665   3.000   3.213  0.6981 -0.8168 -0.2243
52553SOL     OW63495   7.338  11.840   2.220  0.0921 -0.4039 -0.2016
52553SOL    HW163496   7.249  11.820   2.191  0.0297 -0.9685  0.3622
52553SOL    HW263497   7.327  11.885   2.303  0.3203 -0.1809 -0.2924
52554SOL     OW63498   3.608   3.884   0.345  0.0574  0.3012 -0.4071
52554SOL    HW163499   3.638   3.968   0.380 -0.0033  0.4924 -0.8038
52554SOL    HW263500   3.685   3.828   0.344 -0.4444 -0.5799  2.4861
52555SOL     OW63501   0.430  11.270   6.507 -0.0635  0.1931  0.2926
52555SOL    HW163502   0.522  11.245   6.513 -0.3178 -1.4501 -1.4389
52555SOL    HW263503   0.409  11.261   6.414 -1.4259  2.7486  0.2585
52556SOL     OW63504  10.891   1.246   1.639  0.3629 -0.2491 -0.5814
52556SOL    HW163505  10.818   1.235   1.578 -0.2480  0.3112  0.0340
52556SOL    HW263506  10.953   1.177   1.615  0.1801  0.0166 -1.8926
52557SOL     OW63507   3.357   1.534   2.863 -0.0324 -0.0713 -0.2670
52557SOL    HW163508   3.271   1.492   2.869 -0.0425  0.0430  0.4751
52557SOL    HW263509   3.420   1.461   2.866 -0.1057 -0.2719 -2.1133
52558SOL     OW63510   9.487   1.953   0.478 -0.0341 -0.9516 -0.2191
52558SOL    HW163511   9.411   1.896   0.489 -0.1264 -0.5441  1.4881
52558SOL    HW263512   9.501   1.991   0.565 -1.5225  3.6429 -1.7066
52559SOL     OW63513   1.516   5.218   0.547 -0.1210 -0.2310  0.1278
52559SOL    HW163514   1.442   5.168   0.581  0.0423 -0.8677 -0.4175
52559SOL    HW263515   1.479   5.273   0.478 -0.6041  1.6808  1.8211
52560SOL     OW63516   4.634   4.362   1.399 -0.1358  0.1953  0.5537
52560SOL    HW163517   4.721   4.327   1.376 -0.5677 -0.9094  0.5166
52560SOL    HW263518   4.636   4.453   1.369  1.8673  0.9868  2.7027
52561SOL     OW63519   2.572   3.327  10.580  0.3504  0.1371 -0.2659
52561SOL    HW163520   2.501   3.338  10.516 -0.2952  1.1500  0.5840
52561SOL    HW263521   2.564   3.237  10.610  0.0125 -0.0339 -0.8523
52562SOL     OW63522   9.905   3.605  11.892 -0.1251  0.9255 -0.0557
52562SOL    HW163523   9.892   3.697  11.869 -0.0066  1.1970  0.9168
52562SOL    HW263524  10.000   3.594  11.897 -0.1423  1.3504  2.0390
52563SOL     OW63525  10.019   0.652   5.636 -0.0783  0.0526 -0.1388
52563SOL    HW163526   9.955   0.614   5.576 -1.2435 -0.9546  1.6452
52563SOL    HW263527  10.102   0.613   5.610 -0.9313 -2.2297  0.3572
52564SOL     OW63528   4.724   1.446   9.102 -0.2587 -0.1337  0.4913
52564SOL    HW163529   4.654   1.499   9.063 -0.9014 -0.5305  1.1006
52564SOL    HW263530   4.679   1.382   9.156  0.6277  0.7604  2.3830
52565SOL     OW63531   5.578   1.969   7.769 -0.4208 -0.1600  0.6616
52565SOL    HW163532   5.536   1.983   7.854 -1.3715 -0.4359  0.2540
52565SOL    HW263533   5.574   1.874   7.756 -1.4391 -0.0155 -0.2437
52566SOL     OW63534   5.143   2.612   7.576 -0.1948 -0.3401  0.1094
52566SOL    HW163535   5.209   2.565   7.525  0.2350 -0.6317  0.9146
52566SOL    HW263536   5.078   2.546   7.599  0.5977 -0.6711  1.5580
52567SOL     OW63537   1.481   9.396   8.345 -0.0121  0.1833 -0.9940
52567SOL    HW163538   1.392   9.416   8.317 -0.8673  1.4992  2.2337
52567SOL    HW263539   1.471   9.333   8.416  1.2704  2.5419  1.4602
52568SOL     OW63540   8.522   5.346   0.313  0.2843  0.0327  0.2470
52568SOL    HW163541   8.526   5.391   0.397 -1.4934  2.2809 -0.7779
52568SOL    HW263542   8.597   5.380   0.264  1.3519 -1.3183  0.8706
52569SOL     OW63543  10.823   0.843   4.989 -0.5111 -0.3008 -0.4774
52569SOL    HW163544  10.832   0.749   4.976 -0.2072 -0.3532  0.0688
52569SOL    HW263545  10.913   0.876   4.989 -0.6791  0.2549 -2.4570
52570SOL     OW63546   5.918   8.110   9.698  0.3246 -0.1150 -0.0288
52570SOL    HW163547   5.877   8.117   9.784 -0.8624 -1.1453 -0.4779
52570SOL    HW263548   5.971   8.190   9.690 -1.2153  1.0407  0.7861
52571SOL     OW63549   4.255   7.510  10.319  0.9358  0.1039  0.5884
52571SOL    HW163550   4.255   7.428  10.270  1.6585  0.3555  0.1533
52571SOL    HW263551   4.346   7.521  10.347  0.9399  0.9764  0.2660
52572SOL     OW63552   5.251   7.066   8.198 -0.4339 -0.0967 -0.2918
52572SOL    HW163553   5.211   7.032   8.278 -0.8980 -0.1493 -0.5414
52572SOL    HW263554   5.345   7.061   8.214 -0.5062 -0.9277 -0.0966
52573SOL     OW63555   3.186  11.570   6.375 -0.4592 -1.4226  0.1211
52573SOL    HW163556   3.143  11.514   6.310 -0.6909 -0.3799 -0.6446
52573SOL    HW263557   3.280  11.559   6.358 -0.5213  0.1941 -1.6281
52574SOL     OW63558   4.894   0.547   0.182  0.4311 -0.6141 -0.3319
52574SOL    HW163559   4.853   0.537   0.096 -0.5746 -0.0331  0.0631
52574SOL    HW263560   4.921   0.459   0.207 -0.0906 -0.9220 -0.8499
52575SOL     OW63561   5.559  10.246   0.870 -0.5200 -0.3773  0.1816
52575SOL    HW163562   5.503  10.292   0.933  1.3624  1.8586  0.3913
52575SOL    HW263563   5.606  10.317   0.826 -1.2354 -1.8894 -3.2996
52576SOL     OW63564   2.749   5.941  11.675 -0.2471 -0.0047 -0.2452
52576SOL    HW163565   2.701   5.897  11.604  0.9204 -1.2869 -0.2676
52576SOL    HW263566   2.772   5.871  11.736 -1.7032  1.1356  1.7571
52577SOL     OW63567   6.161   6.367   6.391  0.3075 -0.2837 -0.4431
52577SOL    HW163568   6.149   6.422   6.468  1.5415  1.4497 -1.4198
52577SOL    HW263569   6.145   6.426   6.317  1.3895 -1.2958 -1.5264
52578SOL     OW63570   8.348   0.523   0.274 -0.0474 -0.4031  0.1777
52578SOL    HW163571   8.442   0.504   0.278  0.0704 -0.0790 -0.8342
52578SOL    HW263572   8.320   0.527   0.366  0.4502 -2.7924  0.5043
52579SOL     OW63573   5.939   0.715  10.424 -0.4868 -0.2475  0.0327
52579SOL    HW163574   5.854   0.754  10.406 -0.1417  1.1075  1.1950
52579SOL    HW263575   6.003   0.781  10.396  0.2337 -1.3512 -1.0934
52580SOL     OW63576   2.759   7.336   6.049  0.2213 -0.5348  0.3153
52580SOL    HW163577   2.690   7.395   6.016  0.4612 -0.5989 -0.3099
52580SOL    HW263578   2.779   7.279   5.975  0.8267 -0.6303  0.5503
52581SOL     OW63579  12.036   7.141   5.476 -0.0479  0.0235  0.0707
52581SOL    HW163580  12.103   7.087   5.435  0.2506  1.5040 -1.5113
52581SOL    HW263581  12.032   7.220   5.422 -0.9748  1.2777  1.8559
52582SOL     OW63582   5.367   8.357   5.465  0.0159  0.0043 -0.2934
52582SOL    HW163583   5.348   8.281   5.520 -1.2743  0.2020 -0.4340
52582SOL    HW263584   5.459   8.378   5.483  0.1264 -1.0346  0.4133
52583SOL     OW63585   5.473  11.508   1.335  0.1006 -0.0281  0.1242
52583SOL    HW163586   5.387  11.502   1.377 -0.2535 -1.1644 -0.7055
52583SOL    HW263587   5.535  11.506   1.407 -0.4743 -2.3034  0.6442
52584SOL     OW63588   3.476   2.934   3.678 -0.1481 -0.3029 -0.6585
52584SOL    HW163589   3.551   2.992   3.668 -0.8740  1.0095  1.0977
52584SOL    HW263590   3.408   2.972   3.622  0.7979 -2.2479 -3.3423
52585SOL     OW63591  10.936   3.771   1.751 -0.1740  0.4976  0.3171
52585SOL    HW163592  10.864   3.783   1.812  0.6705 -0.6448  1.6019
52585SOL    HW263593  10.962   3.860   1.726 -1.8415  0.9234  0.0054
52586SOL     OW63594   3.204   7.171  11.781  0.1821  0.7430  0.4460
52586SOL    HW163595   3.149   7.099  11.813  1.1144 -0.7256 -1.1232
52586SOL    HW263596   3.290   7.154  11.819  0.4386  0.9597 -0.0350
52587SOL     OW63597   5.786  11.118  10.636  0.2554 -0.4238 -0.6025
52587SOL    HW163598   5.794  11.213  10.637 -0.9009 -0.3012 -1.1674
52587SOL    HW263599   5.730  11.098  10.711  1.4395 -0.7790  0.2117
52588SOL     OW63600   2.812   2.415   5.692  0.2301  0.1828  0.3409
52588SOL    HW163601   2.853   2.329   5.690  4.6705  2.0571 -0.2484
52588SOL    HW263602   2.767   2.422   5.608 -0.5980 -1.6385  0.5890
52589SOL     OW63603   4.910  11.690   3.538 -0.6800 -0.0333  0.3456
52589SOL    HW163604   4.987  11.734   3.573 -1.2980  0.8601  0.6284
52589SOL    HW263605   4.919  11.696   3.443  0.1249 -0.9003  0.3520
52590SOL     OW63606   9.957   9.472   8.402 -0.6100 -0.9046  0.1131
52590SOL    HW163607   9.975   9.409   8.332  0.7929  0.3067 -0.6827
52590SOL    HW263608   9.982   9.556   8.365 -1.5343  0.0101  1.4805
52591SOL     OW63609   3.121   7.633   9.525  0.3314  0.9876  0.3241
52591SOL    HW163610   3.178   7.651   9.451  0.3767 -1.4070 -0.3091
52591SOL    HW263611   3.178   7.640   9.602  1.0943  0.2420 -0.1628
52592SOL     OW63612   4.484   8.348   9.272 -0.3635 -0.1575  0.3763
52592SOL    HW163613   4.391   8.351   9.293 -0.0204 -0.2112  2.0376
52592SOL    HW263614   4.523   8.296   9.343  0.7455 -1.3429 -1.0426
52593SOL     OW63615   3.684   6.188   1.399  0.1553 -0.0942 -0.3408
52593SOL    HW163616   3.752   6.253   1.378 -1.3176  1.6706  0.1111
52593SOL    HW263617   3.632   6.183   1.319 -1.9803  2.2360  0.7633
52594SOL     OW63618  10.104   2.884   7.652 -0.1329 -0.1164 -0.4151
52594SOL    HW163619  10.114   2.818   7.721 -2.0917 -0.4303 -0.3695
52594SOL    HW263620  10.165   2.954   7.677  0.5300 -1.0219  0.6182
52595SOL     OW63621   9.808   3.735   4.712  0.1078 -0.2988  0.3087
52595SOL    HW163622   9.849   3.816   4.740 -0.6163 -0.0127  0.5495
52595SOL    HW263623   9.722   3.735   4.755 -0.6770 -0.2638 -1.2039
52596SOL     OW63624  10.965   9.581   6.565  0.0930 -0.0271 -0.0834
52596SOL    HW163625  10.909   9.561   6.491  0.8022 -0.2910 -0.5613
52596SOL    HW263626  10.931   9.528   6.637 -0.2821 -0.1559 -0.3550
52597SOL     OW63627   8.826  11.681   6.543 -0.3536 -0.5929 -0.6428
52597SOL    HW163628   8.769  11.734   6.598  1.5251 -0.4350  1.3052
52597SOL    HW263629   8.787  11.685   6.456 -2.3948  0.7510  0.2601
52598SOL     OW63630  11.731   2.250   6.377 -0.7450  0.1237  0.0298
52598SOL    HW163631  11.704   2.324   6.433 -0.7934 -0.2895  0.5624
52598SOL    HW263632  11.723   2.174   6.434  2.4796  0.0564  0.5797
52599SOL     OW63633   8.090  11.370   1.069 -0.5405 -0.5668  0.3556
52599SOL    HW163634   8.145  11.430   1.019 -1.9513  0.9278  0.5120
52599SOL    HW263635   8.139  11.288   1.072  1.3304  0.5011 -0.0961
52600SOL     OW63636   5.517   0.059   8.363 -0.5391 -0.0883  0.6451
52600SOL    HW163637   5.485  -0.029   8.384 -0.8479  0.2115  1.4573
52600SOL    HW263638   5.450   0.096   8.306 -0.3073 -0.4491  0.1279
52601SOL     OW63639   9.598   2.627   7.578  0.0330 -0.3758 -0.2218
52601SOL    HW163640   9.588   2.610   7.485  1.0891 -3.4764  0.1122
52601SOL    HW263641   9.522   2.585   7.619 -0.8067  1.5674  0.3340
52602SOL     OW63642  10.287   3.395  10.260 -0.1281 -0.0310  0.0378
52602SOL    HW163643  10.265   3.311  10.220  0.0539  1.0634 -2.6278
52602SOL    HW263644  10.203   3.429  10.292 -0.5153 -0.4690 -0.4948
52603SOL     OW63645   3.135   7.039   0.285 -0.1329 -0.3844 -0.5803
52603SOL    HW163646   3.110   7.056   0.194 -0.5996  1.9828 -0.0689
52603SOL    HW263647   3.053   7.020   0.330  0.0741 -1.3411 -0.5853
52604SOL     OW63648   9.921   5.398   2.358  0.0612  0.1294 -0.2607
52604SOL    HW163649   9.917   5.321   2.302 -0.7753  0.9492 -1.3830
52604SOL    HW263650   9.898   5.471   2.300  2.2185  1.4397  0.3927
52605SOL     OW63651   0.870   2.105   3.022 -0.1435 -0.0546  0.1323
52605SOL    HW163652   0.902   2.083   2.935 -0.6580 -1.2353  0.2157
52605SOL    HW263653   0.777   2.122   3.010  0.1054  1.4443  0.1949
52606SOL     OW63654   5.525  10.263   3.298 -0.0720  0.3489 -0.3019
52606SOL    HW163655   5.514  10.184   3.351  0.3764 -0.5544 -1.5057
52606SOL    HW263656   5.459  10.256   3.229 -0.0370  1.0323 -0.4175
52607SOL     OW63657  12.117   0.590   8.786 -0.2830 -0.0746  0.2534
52607SOL    HW163658  12.157   0.676   8.801  2.4419 -1.1659 -0.0957
52607SOL    HW263659  12.101   0.555   8.874 -0.9784  0.5949  0.3988
52608SOL     OW63660   9.780  10.359  11.367 -0.3691 -0.4102  0.7913
52608SOL    HW163661   9.856  10.383  11.314 -0.4442  0.2432  0.9643
52608SOL    HW263662   9.805  10.383  11.457 -1.0171  0.4433  0.7629
52609SOL     OW63663   7.275   9.254  11.790  0.0991 -0.1677 -0.4035
52609SOL    HW163664   7.328   9.288  11.718  0.2641 -1.5430 -0.9738
52609SOL    HW263665   7.196   9.220  11.748  0.5023 -1.6061 -0.0492
52610SOL     OW63666   1.253  10.432  11.018 -0.0499 -0.1866 -0.2186
52610SOL    HW163667   1.316  10.456  10.950  0.2111 -0.4518 -0.0715
52610SOL    HW263668   1.303  10.378  11.079  0.1842  1.4358  1.1048
52611SOL     OW63669   3.282   6.765  12.028 -0.2266  0.0294 -0.1071
52611SOL    HW163670   3.336   6.769  11.950 -0.7616  0.7351 -0.4556
52611SOL    HW263671   3.210   6.706  12.006  0.7388 -1.4575  0.5896
52612SOL     OW63672   7.173  11.660  11.132  0.2444 -0.0931 -0.0591
52612SOL    HW163673   7.268  11.671  11.135  0.2661 -0.3974  1.7131
52612SOL    HW263674   7.140  11.745  11.104  1.0880 -0.6506 -3.1627
52613SOL     OW63675   5.827   2.020   6.971 -0.0094 -0.5112 -0.8063
52613SOL    HW163676   5.877   1.940   6.991  1.4067  0.7141  0.8374
52613SOL    HW263677   5.785   2.043   7.053 -1.9211 -0.5126 -1.7255
52614SOL     OW63678   2.997  10.428   4.244  0.0273 -0.3888 -0.0523
52614SOL    HW163679   2.990  10.520   4.267  2.1897 -0.3255  0.6083
52614SOL    HW263680   2.982  10.425   4.149  1.9140  0.9710 -0.4415
52615SOL     OW63681   7.598   4.468   7.683 -0.1655 -0.1059 -0.3371
52615SOL    HW163682   7.569   4.383   7.652  1.4871 -1.1630  0.8718
52615SOL    HW263683   7.618   4.454   7.776 -0.4047  1.7456  0.0315
52616SOL     OW63684  10.559   4.714   3.889  0.1835  0.1907 -0.1876
52616SOL    HW163685  10.576   4.648   3.823 -2.8063 -1.7628  0.8043
52616SOL    HW263686  10.502   4.778   3.846 -0.4069 -0.2030 -0.0124
52617SOL     OW63687   3.577   6.644   3.480 -0.0634  0.8399 -0.0100
52617SOL    HW163688   3.561   6.593   3.400 -0.6933  1.4273 -0.2680
52617SOL    HW263689   3.492   6.647   3.524 -0.1348  1.9845 -0.1915
52618SOL     OW63690  10.806  11.873   7.385 -0.2234  0.2960  0.0659
52618SOL    HW163691  10.866  11.843   7.316 -1.2332  0.2599 -0.8206
52618SOL    HW263692  10.862  11.882   7.462  0.3019 -3.3595  0.3127
52619SOL     OW63693   9.487   2.471  11.681  0.4068  0.3647 -0.1415
52619SOL    HW163694   9.454   2.437  11.764 -0.3087  0.3485 -0.4201
52619SOL    HW263695   9.408   2.499  11.634  0.9497  2.8336  0.2463
52620SOL     OW63696   6.117   3.771   1.005  0.3211 -0.2973 -0.0297
52620SOL    HW163697   6.096   3.842   1.065  2.6957 -0.1230  0.6792
52620SOL    HW263698   6.057   3.784   0.931  0.7894  2.5544 -0.0102
52621SOL     OW63699  10.601   8.990   3.106 -0.2487  0.1907 -0.0253
52621SOL    HW163700  10.580   9.080   3.129  0.3628  0.2607  0.2793
52621SOL    HW263701  10.652   8.957   3.180 -0.6128 -0.4652 -0.0553
52622SOL     OW63702   1.409   9.859   8.253  0.1811  0.3865 -0.2311
52622SOL    HW163703   1.352   9.810   8.194  0.0376 -1.0678  1.0425
52622SOL    HW263704   1.490   9.871   8.204 -0.3197  0.2081 -1.1210
52623SOL     OW63705   2.034   5.149   6.983  0.2626  0.5113  0.1137
52623SOL    HW163706   2.015   5.242   6.989 -2.0339  0.2293 -1.4174
52623SOL    HW263707   2.112   5.144   6.928  0.3225  1.5388  0.0820
52624SOL     OW63708   5.058   7.712   3.510  0.5568  0.2854  0.3955
52624SOL    HW163709   5.098   7.670   3.434 -1.2740 -0.2706 -0.3239
52624SOL    HW263710   5.102   7.797   3.517  2.1955 -0.4871  0.0175
52625SOL     OW63711   6.329   4.396   6.930 -0.5337 -0.0924 -0.7043
52625SOL    HW163712   6.365   4.458   6.993 -0.4139  0.2780 -1.1321
52625SOL    HW263713   6.275   4.449   6.872 -0.0808 -0.3071 -1.3437
52626SOL     OW63714   9.818   0.533   6.678 -0.0026  0.0889  0.5738
52626SOL    HW163715   9.839   0.450   6.635 -0.4044  1.3302 -2.2250
52626SOL    HW263716   9.891   0.591   6.656 -0.4143  0.8872  1.2732
52627SOL     OW63717   2.876   7.825   6.851 -0.0805 -0.3881 -0.3077
52627SOL    HW163718   2.902   7.884   6.780  0.1960 -0.7369 -0.4971
52627SOL    HW263719   2.846   7.746   6.807  0.7493 -0.8701 -0.0197
52628SOL     OW63720   5.054   9.315   7.125  0.0861  0.3681  0.3907
52628SOL    HW163721   5.083   9.337   7.036  2.2151 -0.6977  0.7533
52628SOL    HW263722   5.056   9.219   7.127 -1.9956  0.2875  1.0044
52629SOL     OW63723   8.154   1.685   9.578  0.6184 -0.7420  0.0512
52629SOL    HW163724   8.189   1.710   9.663  0.9634  0.8328 -0.5218
52629SOL    HW263725   8.119   1.596   9.591 -0.5689 -0.0258  2.1751
52630SOL     OW63726   9.701  11.237  10.045  0.6685 -0.1365  0.0330
52630SOL    HW163727   9.722  11.270   9.958 -1.3279  1.2097 -0.0080
52630SOL    HW263728   9.745  11.151  10.050 -0.2756 -0.8819 -2.8045
52631SOL     OW63729  11.115   2.485   4.001  0.0286 -0.0271 -0.0761
52631SOL    HW163730  11.041   2.508   4.056  0.4389  0.4337  0.2974
52631SOL    HW263731  11.078   2.431   3.931 -0.6618  0.2628  0.0640
52632SOL     OW63732   4.841   5.593   9.915 -0.3315 -0.7690 -0.0769
52632SOL    HW163733   4.862   5.680   9.949  0.2744 -0.9700  0.0838
52632SOL    HW263734   4.925   5.547   9.914 -0.8987 -1.9380  1.4915
52633SOL     OW63735   4.098   8.883   2.077 -0.2925 -0.0723  0.4482
52633SOL    HW163736   4.081   8.810   2.016  0.8627 -0.3372  0.4189
52633SOL    HW263737   4.110   8.959   2.020  0.4805 -0.2587  0.3603
52634SOL     OW63738   8.809   3.786   6.467  0.5660  0.0197 -0.3656
52634SOL    HW163739   8.810   3.790   6.371  0.8820 -0.5381 -0.3934
52634SOL    HW263740   8.755   3.860   6.494  0.5017  0.2011 -0.9754
52635SOL     OW63741   3.308   6.024   3.485 -0.0001  0.3042  0.3728
52635SOL    HW163742   3.311   5.969   3.563 -1.1186  1.4298  1.2332
52635SOL    HW263743   3.268   5.968   3.418  0.7265 -0.5782  0.6577
52636SOL     OW63744   5.437   6.507   7.952 -0.3512  0.5857 -0.0009
52636SOL    HW163745   5.442   6.597   7.984  0.3990  0.1382  1.2081
52636SOL    HW263746   5.527   6.475   7.954 -0.3057  0.3973 -2.2902
52637SOL     OW63747   8.219  12.320  10.420 -0.0227  0.1697  0.0843
52637SOL    HW163748   8.160  12.389  10.390  0.3905 -0.2589 -1.8106
52637SOL    HW263749   8.307  12.358  10.411  0.1749 -0.4067 -0.4184
52638SOL     OW63750   9.507   4.747   8.829  0.6253 -1.2934  0.4606
52638SOL    HW163751   9.556   4.829   8.830 -1.3150 -0.0503  0.6548
52638SOL    HW263752   9.454   4.750   8.910 -0.8624 -1.8005 -0.4503
52639SOL     OW63753   1.288   9.777   5.860  0.5891  0.5287 -0.5330
52639SOL    HW163754   1.216   9.715   5.871 -1.2887  2.6952  0.2732
52639SOL    HW263755   1.356   9.747   5.920 -1.0629  0.3086  1.3232
52640SOL     OW63756   2.606  10.089   9.006  0.3352  0.3229  0.1684
52640SOL    HW163757   2.526  10.139   8.989 -1.5379 -1.8244  2.1098
52640SOL    HW263758   2.650  10.138   9.075 -0.5370  0.2988  0.7627
52641SOL     OW63759   9.147   1.342   0.425 -1.4024 -0.7079 -0.6191
52641SOL    HW163760   9.067   1.375   0.466 -1.6985  1.2206 -2.6095
52641SOL    HW263761   9.216   1.401   0.455 -1.1989 -0.7734 -0.9485
52642SOL     OW63762  10.407  10.506   2.100 -0.0276  0.0214  0.1606
52642SOL    HW163763  10.479  10.443   2.098  0.1417  0.2270 -0.5134
52642SOL    HW263764  10.328  10.452   2.103  0.0491 -0.2879 -1.9763
52643SOL     OW63765  11.483  10.374   6.363  0.4450  0.1998 -0.2610
52643SOL    HW163766  11.395  10.405   6.387  1.1551  0.7919  1.8252
52643SOL    HW263767  11.498  10.410   6.275 -1.2300  0.4044 -0.5003
52644SOL     OW63768   7.291   3.776   4.654 -0.5746  0.1704  0.0672
52644SOL    HW163769   7.208   3.737   4.682 -1.2814  1.8055  0.3243
52644SOL    HW263770   7.327   3.712   4.592 -1.3412 -1.2086  0.9949
52645SOL     OW63771   2.744   2.229   2.570 -0.9541  0.0687  0.7687
52645SOL    HW163772   2.679   2.167   2.538 -1.4088  0.6888  0.4606
52645SOL    HW263773   2.820   2.176   2.592 -0.5406 -0.3936 -1.5097
52646SOL     OW63774  11.675   0.449   9.013 -0.1460 -0.6341  0.7922
52646SOL    HW163775  11.612   0.377   9.019  0.7342 -1.3152  3.4118
52646SOL    HW263776  11.678   0.485   9.102  0.5287  1.7180 -0.1168
52647SOL     OW63777  12.267   4.319   1.193 -0.2236  0.0273 -0.7628
52647SOL    HW163778  12.278   4.408   1.159 -0.1695 -0.0188 -0.8668
52647SOL    HW263779  12.173   4.309   1.205 -0.2772 -0.0924 -1.2653
52648SOL     OW63780   4.841   7.304   9.871 -0.4135  0.5055 -0.0758
52648SOL    HW163781   4.866   7.369   9.805  0.2201  1.9534  1.5282
52648SOL    HW263782   4.746   7.294   9.859 -0.0653 -0.7482 -2.4455
52649SOL     OW63783  12.166   2.459   2.542  0.1687 -0.0623 -0.3009
52649SOL    HW163784  12.245   2.418   2.507  0.3680 -1.3843  1.5050
52649SOL    HW263785  12.104   2.387   2.553 -0.8405  0.7477 -0.5039
52650SOL     OW63786   8.966   4.810   9.173  0.5359  0.3382 -0.3703
52650SOL    HW163787   8.920   4.887   9.139  0.9390  0.0370 -1.6476
52650SOL    HW263788   8.981   4.830   9.265 -4.3045 -0.6019  0.8673
52651SOL     OW63789  10.066   6.786   7.027 -0.0625  0.2575  0.2889
52651SOL    HW163790  10.148   6.740   7.010  0.5392  0.9710  1.1587
52651SOL    HW263791  10.043   6.827   6.944  0.4568  0.0360  0.0354
52652SOL     OW63792   7.541   2.360   8.474  0.0811 -0.4502  0.0402
52652SOL    HW163793   7.509   2.445   8.502  0.0400 -0.7211  0.8383
52652SOL    HW263794   7.565   2.315   8.555  2.1478 -0.3946 -0.4975
52653SOL     OW63795   1.646   9.330   4.692 -0.1449  0.2633 -0.5281
52653SOL    HW163796   1.688   9.383   4.759 -0.1762  0.7385 -0.8787
52653SOL    HW263797   1.719   9.300   4.637 -0.2731  1.3050 -1.2914
52654SOL     OW63798   5.680   5.054   8.930  0.0378  0.0635  0.1219
52654SOL    HW163799   5.680   4.959   8.917 -2.0281 -0.2152  1.7342
52654SOL    HW263800   5.615   5.086   8.868  0.0889  0.3249  0.2055
52655SOL     OW63801   3.010   5.299   3.269 -0.0814  0.2380 -0.3201
52655SOL    HW163802   3.043   5.388   3.280 -0.1195  0.1228  0.8158
52655SOL    HW263803   2.971   5.277   3.353 -0.3176 -0.7547 -0.6742
52656SOL     OW63804   3.897   2.351   6.352 -0.1331  0.4086 -0.5929
52656SOL    HW163805   3.971   2.292   6.360 -1.2677 -1.0717 -0.6064
52656SOL    HW263806   3.886   2.363   6.257  0.8144  1.6276 -0.5737
52657SOL     OW63807   8.637   5.731   8.557 -0.6181 -0.4457  0.7856
52657SOL    HW163808   8.672   5.651   8.517 -1.5920 -1.9063  2.7370
52657SOL    HW263809   8.576   5.766   8.492  0.6690 -0.5986 -0.5669
52658SOL     OW63810  11.654   4.023   9.566 -0.1894  0.8199  0.2168
52658SOL    HW163811  11.747   4.017   9.540 -0.0154 -0.3985  1.0682
52658SOL    HW263812  11.655   4.079   9.643 -0.0712  0.2843  0.6097
52659SOL     OW63813   2.026   0.485   5.730  0.3494 -0.1505  0.4447
52659SOL    HW163814   2.045   0.528   5.814  0.6087  0.3412  0.1444
52659SOL    HW263815   2.031   0.392   5.749  3.5760 -0.1369  0.3634
52660SOL     OW63816   7.807  10.001  10.934  0.3577 -0.0944 -0.1688
52660SOL    HW163817   7.725   9.983  10.887 -0.0692  0.7433  0.2111
52660SOL    HW263818   7.820  10.096  10.923  1.2634 -0.2138 -0.1966
52661SOL     OW63819  11.771   7.323   5.622  0.4928 -0.0056 -0.3294
52661SOL    HW163820  11.770   7.232   5.652 -0.6751  0.1449  0.1639
52661SOL    HW263821  11.727   7.320   5.537  2.0141 -0.1395 -1.1359
52662SOL     OW63822   6.717  10.733   1.595  0.2167  0.3354  0.3210
52662SOL    HW163823   6.800  10.761   1.555  0.0329 -0.1230 -0.3897
52662SOL    HW263824   6.673  10.815   1.617  1.5495  0.6219  2.2145
52663SOL     OW63825  10.393  11.269  10.496 -0.3388 -0.2862  0.2634
52663SOL    HW163826  10.372  11.262  10.589 -0.0954 -1.9749  0.2304
52663SOL    HW263827  10.341  11.200  10.455  1.3775 -1.2045 -0.4822
52664SOL     OW63828   0.495  11.270  11.672 -0.1642  0.0167  0.7188
52664SOL    HW163829   0.563  11.338  11.668  0.0008 -0.1322  0.9906
52664SOL    HW263830   0.523  11.205  11.607  0.7393 -0.7656  1.8670
52665SOL     OW63831   1.227   1.173   7.770  0.3499 -0.8618 -0.5186
52665SOL    HW163832   1.295   1.107   7.759 -0.6657 -2.1609  0.6907
52665SOL    HW263833   1.182   1.174   7.685  1.8788  0.0879 -1.3676
52666SOL     OW63834  11.674   6.784   9.488 -0.4904 -0.4794  0.4495
52666SOL    HW163835  11.717   6.701   9.468 -1.0196 -0.6707  0.0732
52666SOL    HW263836  11.607   6.794   9.420 -2.5115 -1.2503  2.1831
52667SOL     OW63837   0.196  12.104   1.805  0.2430 -0.3324 -0.1457
52667SOL    HW163838   0.256  12.074   1.874 -2.5209  1.2885  3.2487
52667SOL    HW263839   0.115  12.055   1.820 -0.7633  0.7737 -1.6628
52668SOL     OW63840   4.233   2.212   5.308 -1.0292  0.1618  0.8103
52668SOL    HW163841   4.293   2.144   5.278 -1.0282  0.8653 -0.9011
52668SOL    HW263842   4.149   2.190   5.268 -1.2425  0.6651  0.9715
52669SOL     OW63843   4.082   5.968   0.924 -0.1544  0.0836 -0.3427
52669SOL    HW163844   4.126   5.925   0.851  1.8750  1.1792  0.1686
52669SOL    HW263845   4.113   5.923   1.002 -1.8539 -0.6891 -0.0573
52670SOL     OW63846  10.347   5.593   4.148 -0.3989 -0.5860 -0.1574
52670SOL    HW163847  10.284   5.602   4.076 -0.2691  1.2082 -0.0772
52670SOL    HW263848  10.412   5.661   4.132  0.8701 -1.6079  0.4506
52671SOL     OW63849   6.104   9.583  11.920  0.2082  0.5686  0.7717
52671SOL    HW163850   6.021   9.619  11.888 -0.0476 -1.4644 -1.0809
52671SOL    HW263851   6.158   9.660  11.939 -0.5659  1.9849 -2.2205
52672SOL     OW63852  11.150   1.817   6.972 -0.1072 -0.3150  0.0050
52672SOL    HW163853  11.169   1.873   6.897 -2.0095  2.4008  1.3767
52672SOL    HW263854  11.220   1.836   7.034 -0.2347 -0.1825  0.1081
52673SOL     OW63855   7.993   6.171   2.651 -0.1015  0.4247 -0.2650
52673SOL    HW163856   7.937   6.093   2.649  0.8632 -0.3215  0.5320
52673SOL    HW263857   8.015   6.187   2.559 -0.7006  0.0506 -0.4791
52674SOL     OW63858   0.868   1.330   0.892  0.1893 -0.1376 -0.5161
52674SOL    HW163859   0.888   1.303   0.982  1.4226 -2.6250 -1.4475
52674SOL    HW263860   0.792   1.277   0.868  0.5219 -0.2793 -1.2765
52675SOL     OW63861   3.743   5.099   0.543  0.2621 -0.6900  0.5182
52675SOL    HW163862   3.651   5.073   0.534 -0.2389  1.0498  0.2799
52675SOL    HW263863   3.749   5.139   0.630  0.2949  1.0098 -0.2330
52676SOL     OW63864   9.449   5.954   7.425  0.0250  0.4784  0.1164
52676SOL    HW163865   9.521   5.955   7.363  1.1010  0.9233  1.3232
52676SOL    HW263866   9.415   5.865   7.422  0.2184  0.4286 -0.8965
52677SOL     OW63867   7.542   1.964   2.848  0.4323  0.2572 -0.3873
52677SOL    HW163868   7.598   1.942   2.774  0.2229  0.1125 -0.5024
52677SOL    HW263869   7.517   2.055   2.833  0.5056  0.2714 -0.4214
52678SOL     OW63870   4.563   3.339  11.944 -0.3619  0.2914  0.0288
52678SOL    HW163871   4.608   3.271  11.994 -0.5830 -0.3118 -0.5899
52678SOL    HW263872   4.629   3.373  11.884 -0.1721  0.8323  0.5306
52679SOL     OW63873   7.232   0.522   7.243  0.2776 -0.1700 -0.4792
52679SOL    HW163874   7.186   0.523   7.327  0.5514  0.0534 -0.3317
52679SOL    HW263875   7.245   0.614   7.221  3.6228 -0.0934  1.1284
52680SOL     OW63876  10.477   0.255   8.600  0.6096 -0.3975 -0.0902
52680SOL    HW163877  10.474   0.162   8.578  1.6519 -0.4174 -0.1862
52680SOL    HW263878  10.390   0.289   8.575  0.2885 -1.3014 -0.2129
52681SOL     OW63879   4.110   4.362  10.319  0.2381 -0.6569  0.0458
52681SOL    HW163880   4.039   4.303  10.347  1.2235 -1.7609  0.2946
52681SOL    HW263881   4.173   4.305  10.277  1.3260  0.1936  0.4767
52682SOL     OW63882   3.268   3.435   4.596 -0.1056  0.0076 -0.3197
52682SOL    HW163883   3.270   3.523   4.557  2.3121 -1.0171 -2.8642
52682SOL    HW263884   3.334   3.438   4.664  0.0010  0.1485 -0.4276
52683SOL     OW63885  11.682  12.269  10.935  0.5942 -0.4684  0.3098
52683SOL    HW163886  11.675  12.236  10.846  1.3240  1.2462 -0.4419
52683SOL    HW263887  11.766  12.236  10.967  1.0206  0.1066 -0.1946
52684SOL     OW63888   0.641   4.179  10.880 -0.2218 -0.2393 -0.3388
52684SOL    HW163889   0.723   4.229  10.879 -0.0001 -0.5938 -1.1699
52684SOL    HW263890   0.600   4.199  10.796 -0.7843 -0.3964 -0.1038
52685SOL     OW63891  11.958   1.241   1.331  1.0307 -0.2491 -0.4456
52685SOL    HW163892  11.908   1.205   1.258  1.7332  2.5107 -2.4593
52685SOL    HW263893  11.891   1.277   1.390  0.4952  0.1844 -1.2938
52686SOL     OW63894   9.423   2.501   2.796  0.5079 -0.6933 -0.7281
52686SOL    HW163895   9.447   2.476   2.885 -0.6750 -1.5989 -0.6502
52686SOL    HW263896   9.428   2.597   2.796 -0.2716 -0.6376  0.5384
52687SOL     OW63897   0.820  11.527   4.567 -0.0616 -0.3209 -0.5638
52687SOL    HW163898   0.902  11.575   4.577 -0.1869 -0.1081 -0.5313
52687SOL    HW263899   0.788  11.551   4.480 -0.4983  0.2530 -0.2562
52688SOL     OW63900  11.531   8.511   3.413 -0.3085  0.0751  0.1087
52688SOL    HW163901  11.617   8.547   3.392 -0.5536 -0.8975 -3.0887
52688SOL    HW263902  11.529   8.426   3.368 -2.8975  0.0186  0.1777
52689SOL     OW63903   1.023   8.277   9.894  0.1094 -0.4074  0.3214
52689SOL    HW163904   1.083   8.339   9.851 -1.8827  1.2318 -0.2851
52689SOL    HW263905   0.989   8.326   9.970 -0.9972 -1.0034  0.2304
52690SOL     OW63906   0.818   0.440   5.339 -0.3023 -0.0287  0.9954
52690SOL    HW163907   0.844   0.367   5.396 -1.5546 -0.3697  1.1496
52690SOL    HW263908   0.737   0.410   5.298 -1.0827  1.4451  1.4071
52691SOL     OW63909   2.019  10.557   9.807  0.2922  0.2431  0.6730
52691SOL    HW163910   2.018  10.538   9.900 -0.0402  0.9892  0.8303
52691SOL    HW263911   1.930  10.588   9.788  0.5623  0.7886  0.2590
52692SOL     OW63912   7.738   0.155   7.915 -0.0565 -0.0944  0.2114
52692SOL    HW163913   7.785   0.230   7.950 -0.0095 -1.0867  2.5137
52692SOL    HW263914   7.645   0.175   7.931  0.0285 -1.5557  3.5285
52693SOL     OW63915   0.320  12.117   5.959 -0.2420 -0.4077  0.1795
52693SOL    HW163916   0.397  12.125   5.902 -0.0669  1.5043  0.5996
52693SOL    HW263917   0.248  12.150   5.906 -0.6738 -1.5696  0.0205
52694SOL     OW63918   0.889   0.697   5.627  0.6816  0.1373 -0.2956
52694SOL    HW163919   0.847   0.713   5.542 -0.7619  0.7656  0.4848
52694SOL    HW263920   0.816   0.681   5.687  1.7091 -1.2384  0.6654
52695SOL     OW63921  10.398  12.133   2.083 -0.2751 -0.5886  0.4447
52695SOL    HW163922  10.442  12.112   2.001  0.8944  1.4778  0.4832
52695SOL    HW263923  10.383  12.048   2.125 -0.2599 -1.6367 -1.5445
52696SOL     OW63924   8.408   1.302   5.252 -1.1868  0.2994  0.3302
52696SOL    HW163925   8.490   1.253   5.240 -0.6323  1.2265  0.2879
52696SOL    HW263926   8.387   1.290   5.345  0.3069  2.0200  0.9520
52697SOL     OW63927   8.399  11.246  11.316 -0.2189  0.0214  0.1061
52697SOL    HW163928   8.435  11.214  11.399 -1.4697 -1.3915  0.1506
52697SOL    HW263929   8.322  11.192  11.301 -0.6253  0.9683 -1.4639
52698SOL     OW63930   1.684   8.409   3.485  0.2418  0.1204 -0.1345
52698SOL    HW163931   1.713   8.422   3.394 -0.0760 -1.3681 -0.4737
52698SOL    HW263932   1.733   8.332   3.515  0.6565  0.8458  1.1163
52699SOL     OW63933   5.899   4.869   6.494  0.8870 -0.1163  0.6219
52699SOL    HW163934   5.901   4.891   6.401 -0.2503  1.0091  0.8410
52699SOL    HW263935   5.951   4.938   6.536  0.4492  0.0253  0.9353
52700SOL     OW63936   3.679   4.401   4.760 -0.0963  0.4575  0.0531
52700SOL    HW163937   3.615   4.445   4.704 -1.0173 -0.1950  0.5476
52700SOL    HW263938   3.762   4.442   4.739 -0.5661  0.8639 -1.1153
52701SOL     OW63939   6.045   3.537   7.777  0.0549  0.0357 -0.0608
52701SOL    HW163940   6.123   3.483   7.794  0.0618  0.7523  2.6194
52701SOL    HW263941   6.068   3.624   7.809 -0.8706  1.0262 -1.9303
52702SOL     OW63942   0.897  10.282   4.796 -0.1604  0.1331  0.1940
52702SOL    HW163943   0.850  10.365   4.802 -1.3824 -0.4113 -1.1802
52702SOL    HW263944   0.901  10.250   4.886  0.0268  1.5041  0.6941
52703SOL     OW63945   7.110   5.275  10.724 -0.1815 -0.0786  0.1841
52703SOL    HW163946   7.155   5.335  10.665 -0.2748  1.6606  1.7892
52703SOL    HW263947   7.123   5.189  10.685  1.0584  0.8230 -1.5297
52704SOL     OW63948   8.087   3.995   5.916  0.2490 -0.2934  0.7079
52704SOL    HW163949   8.029   4.069   5.933  0.2017 -0.0405 -0.4854
52704SOL    HW263950   8.033   3.918   5.932  0.0801 -0.0767  1.2108
52705SOL     OW63951   1.736   1.975   0.020 -0.2358 -0.2787  0.0267
52705SOL    HW163952   1.670   1.914  -0.011  0.5932 -1.5391  0.6313
52705SOL    HW263953   1.819   1.938  -0.010  0.3988 -0.2179  1.5918
52706SOL     OW63954   4.465   5.291   2.043  0.9607 -0.1415 -0.1047
52706SOL    HW163955   4.532   5.302   1.976  0.6787  2.5593 -0.0262
52706SOL    HW263956   4.513   5.296   2.126  0.9133 -0.3033 -0.0666
52707SOL     OW63957   0.670   3.530   8.219 -0.4851 -0.4874 -0.0929
52707SOL    HW163958   0.619   3.509   8.141  0.9733  1.6221 -1.7648
52707SOL    HW263959   0.629   3.608   8.255 -0.9090 -1.2176  1.0644
52708SOL     OW63960   8.947   7.481   1.872  0.3525  0.3020 -0.1180
52708SOL    HW163961   8.968   7.458   1.781  1.5139  0.0115  0.1964
52708SOL    HW263962   9.029   7.463   1.920 -0.6682 -0.9751  1.2454
52709SOL     OW63963   3.743   6.822   4.228 -0.2375 -0.1281 -0.2231
52709SOL    HW163964   3.712   6.773   4.304  0.8050 -0.2739  0.1322
52709SOL    HW263965   3.678   6.806   4.160 -1.1904 -0.0009  0.6344
52710SOL     OW63966   0.706   6.627   5.584 -0.5065  0.4559  0.2938
52710SOL    HW163967   0.626   6.593   5.544 -0.4548  0.3251  0.3019
52710SOL    HW263968   0.717   6.576   5.664  0.0076 -0.0584 -0.0985
52711SOL     OW63969   0.268   5.528  10.052 -0.0989 -0.4762 -0.2011
52711SOL    HW163970   0.360   5.545  10.073 -0.2380 -1.2463  1.1716
52711SOL    HW263971   0.233   5.614  10.029  0.9509 -0.1736 -0.7339
52712SOL     OW63972   4.407   6.969   3.451 -0.4318 -0.3265 -0.3903
52712SOL    HW163973   4.439   6.992   3.539  0.4466 -1.4006 -0.4168
52712SOL    HW263974   4.328   7.022   3.441  0.9216  1.8854 -0.0346
52713SOL     OW63975   8.139   1.203   7.285 -0.1310 -0.0807 -0.2848
52713SOL    HW163976   8.226   1.177   7.255 -0.4716 -0.0092 -1.3725
52713SOL    HW263977   8.091   1.121   7.296 -0.3049 -0.0667 -0.8972
52714SOL     OW63978  10.294   4.277   0.688  0.2897  0.2037 -0.0980
52714SOL    HW163979  10.328   4.264   0.600 -0.3755 -1.0955 -0.1851
52714SOL    HW263980  10.236   4.202   0.703 -1.5129  1.6500  0.5354
52715SOL     OW63981   7.387   2.162   4.413  0.5142 -0.4445  0.1948
52715SOL    HW163982   7.345   2.238   4.454 -1.2780 -1.3443  0.1218
52715SOL    HW263983   7.434   2.198   4.339 -1.4439  0.4846 -0.6663
52716SOL     OW63984   1.010   3.332   4.733  0.0843  0.0002  0.6319
52716SOL    HW163985   1.078   3.281   4.778 -0.9206 -1.1513  0.8935
52716SOL    HW263986   1.014   3.303   4.642  0.0425  0.0425  0.6167
52717SOL     OW63987   2.516   6.617   3.617  0.1454 -0.1395  0.1843
52717SOL    HW163988   2.533   6.532   3.658 -2.2620 -0.3251  0.9626
52717SOL    HW263989   2.483   6.671   3.689  0.9202  1.2194 -0.4686
52718SOL     OW63990   0.322  10.110   3.299 -0.2168 -0.2279 -0.3940
52718SOL    HW163991   0.238  10.134   3.338 -0.3230 -0.5076 -0.4435
52718SOL    HW263992   0.302  10.033   3.246  0.5491 -1.8983  1.6275
52719SOL     OW63993   9.238   4.960   5.552 -0.4447 -0.1056 -0.1848
52719SOL    HW163994   9.245   5.004   5.637  1.3566 -1.4234  0.4070
52719SOL    HW263995   9.233   5.032   5.489  0.1102  0.9251  0.9008
52720SOL     OW63996  11.279   0.262   2.901  0.5988 -0.1131 -0.0263
52720SOL    HW163997  11.298   0.278   2.809  0.0855  3.3558  0.3436
52720SOL    HW263998  11.366   0.254   2.942  0.9038  0.6089 -0.5057
52721SOL     OW63999   6.517   0.102  11.611 -0.0491 -0.6028  0.1043
52721SOL    HW164000   6.514   0.076  11.519 -1.1371  0.6411 -0.2411
52721SOL    HW264001   6.484   0.025  11.659 -1.7089 -0.4653 -0.7480
52722SOL     OW64002   3.819   5.413  11.867  0.4646  0.2978 -0.2363
52722SOL    HW164003   3.903   5.458  11.878  0.3116  0.4950  0.1656
52722SOL    HW264004   3.755   5.484  11.854  0.4639  0.1187 -1.2909
52723SOL     OW64005  11.492   9.699   5.894 -0.6813 -0.1373  0.4555
52723SOL    HW164006  11.540   9.723   5.815  0.3213 -0.3430  0.9956
52723SOL    HW264007  11.538   9.742   5.965 -1.0522 -0.6664  1.0306
52724SOL     OW64008  10.883   6.446   3.311  0.3307  0.3122  0.1088
52724SOL    HW164009  10.938   6.414   3.240  0.8615 -0.6536  0.9368
52724SOL    HW264010  10.930   6.523   3.345  0.1771  0.6524 -0.4299
52725SOL     OW64011   0.325  11.161   8.432  0.1796  0.1316 -0.3836
52725SOL    HW164012   0.326  11.098   8.360  1.6165 -1.1801  0.6920
52725SOL    HW264013   0.244  11.210   8.420  0.1005 -0.4104 -2.5410
52726SOL     OW64014   4.923   1.051   9.669  0.1562 -0.2287  0.2283
52726SOL    HW164015   4.862   0.993   9.623 -0.9665  0.6359  0.5695
52726SOL    HW264016   4.918   1.133   9.621  2.1766 -0.5394 -0.6035
52727SOL     OW64017   5.087  10.889   6.518  0.2173  0.5014  0.0620
52727SOL    HW164018   5.007  10.937   6.536  0.6674  1.2743  0.0345
52727SOL    HW264019   5.087  10.817   6.582  0.0841  1.1890  0.8441
52728SOL     OW64020   0.706   3.116  10.789 -0.1702 -0.0897 -0.1334
52728SOL    HW164021   0.796   3.145  10.777 -0.1476  0.8617  1.9110
52728SOL    HW264022   0.709   3.021  10.777  0.9695  0.0083 -0.7215
52729SOL     OW64023   5.953   9.260   3.495 -0.1505 -0.0285 -0.0284
52729SOL    HW164024   5.886   9.197   3.471 -2.2683  1.6629  1.1140
52729SOL    HW264025   5.990   9.289   3.411  1.5668 -3.3061 -0.5804
52730SOL     OW64026   4.201   9.331  10.897 -0.1188 -0.1480  0.2023
52730SOL    HW164027   4.125   9.272  10.895 -0.7733  0.6290  1.2614
52730SOL    HW264028   4.226   9.335  10.989  0.4872  0.5236  0.0160
52731SOL     OW64029   1.750   6.244   3.978  0.5615 -0.5046  0.4578
52731SOL    HW164030   1.779   6.295   4.054  0.8222  0.5536 -0.3355
52731SOL    HW264031   1.792   6.286   3.903 -3.1427  1.3500 -0.8437
52732SOL     OW64032   7.613   4.045  11.914  0.2997 -0.3151 -0.5042
52732SOL    HW164033   7.601   3.952  11.896 -0.3939 -0.5362  0.9353
52732SOL    HW264034   7.629   4.049  12.008 -0.1949  1.0576 -0.4571
52733SOL     OW64035   5.438  10.542   0.657  0.3126  0.3348 -0.3273
52733SOL    HW164036   5.455  10.632   0.627  0.3666  0.0422 -1.1866
52733SOL    HW264037   5.524  10.501   0.658  0.5126  0.7187  1.5496
52734SOL     OW64038   1.777   8.037  11.388  0.0452  0.3336  0.3393
52734SOL    HW164039   1.756   8.126  11.360  1.8149  1.3229  1.8885
52734SOL    HW264040   1.871   8.028  11.370 -0.1946 -1.3795 -0.1664
52735SOL     OW64041   0.998  10.419   2.684 -0.2529  0.1793 -0.1968
52735SOL    HW164042   0.970  10.328   2.692  3.7188 -1.2893 -0.8561
52735SOL    HW264043   1.001  10.436   2.590 -1.4638  1.2543 -0.0757
52736SOL     OW64044   6.036   4.230   4.844  0.3119 -0.2252  0.3418
52736SOL    HW164045   5.961   4.276   4.880  0.7531  1.3572 -0.6402
52736SOL    HW264046   6.088   4.299   4.802  0.8976 -1.6558 -1.3917
52737SOL     OW64047   9.011   4.940   7.663 -0.1004 -0.3416 -0.6127
52737SOL    HW164048   8.952   4.929   7.738 -0.0919 -0.6967 -0.6545
52737SOL    HW264049   8.958   4.986   7.598  0.3487  1.3601  0.1511
52738SOL     OW64050   4.298   4.702   6.121  0.1560  0.1400  0.2627
52738SOL    HW164051   4.369   4.641   6.101  2.0350  2.2508  0.1364
52738SOL    HW264052   4.242   4.700   6.043  0.8404 -0.5156 -0.2293
52739SOL     OW64053   5.473  10.957   5.771 -0.1294  0.1661 -0.0288
52739SOL    HW164054   5.532  10.923   5.704  0.2968 -0.0506  0.4456
52739SOL    HW264055   5.500  11.048   5.783  0.4282 -0.0672  0.5247
52740SOL     OW64056   5.132   6.811   9.181 -0.0018 -0.0173  0.7772
52740SOL    HW164057   5.194   6.859   9.126 -1.2165 -0.0385 -0.6752
52740SOL    HW264058   5.149   6.719   9.162  1.5641 -0.1904  2.7169
52741SOL     OW64059   9.570   3.092   3.613  0.3242  0.2896 -0.6680
52741SOL    HW164060   9.636   3.030   3.645  0.3459 -0.5964 -2.3567
52741SOL    HW264061   9.489   3.067   3.658  0.7447  0.3029  0.1257
52742SOL     OW64062  11.216   8.254  12.138  0.2125 -0.4893 -0.1182
52742SOL    HW164063  11.208   8.327  12.199 -0.4528 -0.2253 -0.5179
52742SOL    HW264064  11.126   8.224  12.123  0.5021 -1.7063  0.4094
52743SOL     OW64065  11.965   5.143   6.312  0.0333  0.1396  0.1279
52743SOL    HW164066  11.871   5.161   6.313 -0.0926 -0.5409  0.5125
52743SOL    HW264067  12.000   5.193   6.385 -0.2098 -0.5751  0.7375
52744SOL     OW64068   3.481   1.797   5.064  0.1501 -0.1893  0.3668
52744SOL    HW164069   3.457   1.773   4.975  1.4137 -2.1947  0.5147
52744SOL    HW264070   3.464   1.891   5.069 -3.2206 -0.6148 -0.8722
52745SOL     OW64071   6.870  10.193   8.057  0.5926  0.5996  0.2933
52745SOL    HW164072   6.876  10.229   8.146  0.4506  1.5555 -0.0699
52745SOL    HW264073   6.943  10.232   8.010 -0.5834  1.8526 -0.5817
52746SOL     OW64074   5.765  11.979  11.317  0.1748  0.2601 -0.0115
52746SOL    HW164075   5.846  11.929  11.306  0.0367  0.3546 -1.7046
52746SOL    HW264076   5.697  11.924  11.279 -0.4987  0.4000  0.9517
52747SOL     OW64077   8.639  11.406   9.446 -0.0480 -0.0270  0.1443
52747SOL    HW164078   8.673  11.484   9.491 -0.7969  0.7513 -0.5824
52747SOL    HW264079   8.601  11.352   9.515  0.6762  0.1444  0.6887
52748SOL     OW64080  10.159  11.455  10.668  0.0841  0.0729 -0.2952
52748SOL    HW164081  10.126  11.397  10.737  1.6856 -0.5509 -0.0153
52748SOL    HW264082  10.146  11.406  10.587 -1.2583  0.5674 -0.4104
52749SOL     OW64083   7.043   9.881   3.430 -0.4391 -0.1034 -0.2163
52749SOL    HW164084   6.999   9.808   3.474 -1.2366  0.3688 -0.1989
52749SOL    HW264085   7.046   9.950   3.496 -3.2796  1.2579 -1.3214
52750SOL     OW64086  12.164   6.410   0.532  0.0634 -0.4183 -0.1093
52750SOL    HW164087  12.171   6.315   0.548 -0.0862 -0.3586  0.3504
52750SOL    HW264088  12.254   6.441   0.528  0.1980 -0.9434 -2.7060
52751SOL     OW64089   3.565   1.020   0.776  0.2109  1.1264  0.3867
52751SOL    HW164090   3.642   0.965   0.790  0.1121  1.2647  1.5899
52751SOL    HW264091   3.587   1.073   0.699  0.4381 -0.3320 -0.5946
52752SOL     OW64092   7.659   8.290   3.622  0.1937  0.8098  0.1038
52752SOL    HW164093   7.599   8.273   3.550 -0.5521  0.4451  0.7970
52752SOL    HW264094   7.714   8.362   3.592  0.1111  0.4386 -0.9525
52753SOL     OW64095   7.448   1.362   8.737  0.0090  0.2768  0.2095
52753SOL    HW164096   7.365   1.351   8.690  0.1443  0.8237 -0.1781
52753SOL    HW264097   7.495   1.428   8.685  1.6113 -1.6040 -0.8401
52754SOL     OW64098  11.219   0.823   9.834 -0.1318  0.0889  0.0288
52754SOL    HW164099  11.218   0.917   9.819 -0.5814 -0.1418 -1.4780
52754SOL    HW264100  11.205   0.814   9.929 -0.2851  1.5164  0.1604
52755SOL     OW64101   0.592   7.065   2.724  0.1283  0.1259  0.5215
52755SOL    HW164102   0.544   7.044   2.804 -0.8931  0.8640  0.1292
52755SOL    HW264103   0.556   7.149   2.696  0.5623 -0.0574 -0.6439
52756SOL     OW64104   9.884  11.755   2.505  0.3252  0.2537 -0.3802
52756SOL    HW164105   9.826  11.684   2.479  0.7690 -0.5691  0.7679
52756SOL    HW264106   9.830  11.834   2.501  0.0105 -0.0130 -2.3545
52757SOL     OW64107   8.049   0.789   3.258  0.0664 -0.6003 -0.4952
52757SOL    HW164108   7.988   0.772   3.186  0.7273  2.0715 -1.8124
52757SOL    HW264109   8.135   0.773   3.220  0.4004  0.4027 -0.2010
52758SOL     OW64110  11.641  10.897   2.230 -0.5257 -0.2766 -0.2140
52758SOL    HW164111  11.717  10.844   2.252 -0.0479 -0.0532 -1.2478
52758SOL    HW264112  11.624  10.949   2.308  0.8847  0.2496 -0.2289
52759SOL     OW64113  10.093   5.451   3.537 -0.0324 -0.0070 -0.8066
52759SOL    HW164114  10.157   5.442   3.466 -1.4129 -0.7881 -2.0087
52759SOL    HW264115  10.009   5.430   3.496 -1.3427  2.6212  0.2721
52760SOL     OW64116   8.137   1.958  10.077  0.0758  0.4112 -0.2176
52760SOL    HW164117   8.111   1.910  10.156  1.7926  0.7416  0.5965
52760SOL    HW264118   8.078   2.033  10.074 -1.2635 -0.6158 -0.3323
52761SOL     OW64119   1.582   8.014   8.858 -0.3209  0.2131 -0.1159
52761SOL    HW164120   1.497   8.003   8.901 -0.9686  0.2386 -1.3592
52761SOL    HW264121   1.561   8.031   8.766  1.0090  0.9261 -0.3165
52762SOL     OW64122   7.983   4.986   7.214 -0.3629  1.0638  0.1367
52762SOL    HW164123   8.044   4.989   7.140  1.3771  1.3900  1.5108
52762SOL    HW264124   8.034   5.020   7.287 -1.4370 -0.9546  1.9144
52763SOL     OW64125   6.785   0.402   2.899 -0.2597 -0.2945  0.3376
52763SOL    HW164126   6.833   0.442   2.827 -1.3540  1.0825  0.3270
52763SOL    HW264127   6.703   0.371   2.859  0.0063 -1.4195  0.6088
52764SOL     OW64128   1.814   6.321  10.606  0.2246 -0.0009 -0.2606
52764SOL    HW164129   1.762   6.332  10.526 -1.1826  0.6603  0.7246
52764SOL    HW264130   1.790   6.394  10.662  1.8888  0.0744  0.4397
52765SOL     OW64131   5.728   2.010   1.254  0.4015 -0.0589 -0.4341
52765SOL    HW164132   5.707   2.103   1.257 -2.9373 -0.6227 -2.0591
52765SOL    HW264133   5.784   2.001   1.176 -0.7748  0.4152 -1.3725
52766SOL     OW64134   3.449   3.770   4.249  0.5897 -0.2048 -0.0195
52766SOL    HW164135   3.534   3.768   4.205  1.0450  2.8083  0.5242
52766SOL    HW264136   3.394   3.823   4.191 -0.2808 -0.3901  0.6255
52767SOL     OW64137   6.509  10.192  12.132 -0.5251  0.2652  0.5029
52767SOL    HW164138   6.602  10.172  12.139 -0.1102  1.6162 -0.4711
52767SOL    HW264139   6.477  10.137  12.060  0.0820  1.3872 -0.6749
52768SOL     OW64140  10.175   1.739   8.910 -0.3952  0.2015  0.6492
52768SOL    HW164141  10.102   1.699   8.862 -0.5484 -1.7206  2.3273
52768SOL    HW264142  10.198   1.817   8.859 -3.3309  0.6424 -0.1756
52769SOL     OW64143   9.398   6.507   7.011 -0.1753 -0.1734  0.3360
52769SOL    HW164144   9.322   6.538   6.962  0.4644  0.9611  0.0313
52769SOL    HW264145   9.447   6.586   7.033  0.5074 -0.8213  1.2233
52770SOL     OW64146   4.932   6.869   2.168  0.1808 -0.4716  0.2285
52770SOL    HW164147   4.844   6.856   2.131  0.7158 -2.1291 -0.5741
52770SOL    HW264148   4.931   6.821   2.250  0.0045  0.4744  0.7931
52771SOL     OW64149   3.162   3.848   1.553 -0.5240  0.3588 -0.1982
52771SOL    HW164150   3.114   3.766   1.545 -0.5813  0.2355  1.1642
52771SOL    HW264151   3.103   3.915   1.518 -0.3067 -0.2014 -1.7307
52772SOL     OW64152   2.355   6.805   1.210 -0.0828 -0.3957  0.1989
52772SOL    HW164153   2.444   6.772   1.217  0.0133 -0.1089  0.3205
52772SOL    HW264154   2.315   6.751   1.141  0.0696 -0.7728  0.4047
52773SOL     OW64155   4.767   3.205   3.068 -0.0489  0.2574 -0.2361
52773SOL    HW164156   4.710   3.265   3.020 -0.0878  1.0259  0.7260
52773SOL    HW264157   4.846   3.200   3.015 -0.3605  0.5426 -0.7286
52774SOL     OW64158   9.965   3.184   8.297  0.3446 -0.3864 -0.2057
52774SOL    HW164159   9.872   3.163   8.282  0.3016 -0.2879 -0.0744
52774SOL    HW264160   9.977   3.269   8.256  0.0645  0.1999  0.8912
52775SOL     OW64161   9.566   8.612   6.098 -0.3161 -0.4283  0.5756
52775SOL    HW164162   9.606   8.684   6.049 -0.4439 -0.4228  0.4789
52775SOL    HW264163   9.562   8.643   6.188  2.2087 -1.3744  1.0748
52776SOL     OW64164   8.267   1.251   5.489  0.1100  0.0253 -0.3604
52776SOL    HW164165   8.292   1.170   5.533 -2.0695 -0.1928  0.6178
52776SOL    HW264166   8.181   1.272   5.525  0.6388  2.8419 -0.5158
52777SOL     OW64167   2.090   0.998   4.253  0.0505  0.1462  0.2048
52777SOL    HW164168   2.103   1.072   4.312  3.5321  0.2626 -0.4858
52777SOL    HW264169   2.087   0.921   4.310 -0.7177  0.5708  0.7465
52778SOL     OW64170   6.861   8.270   5.269 -0.1584 -0.6739  0.1698
52778SOL    HW164171   6.928   8.202   5.278 -0.3101 -1.0494 -1.2406
52778SOL    HW264172   6.813   8.268   5.352  0.5400 -1.5212  0.5678
52779SOL     OW64173   3.854   7.820   8.154 -0.1092  0.4139  0.0475
52779SOL    HW164174   3.898   7.867   8.084 -1.0987  0.5231 -0.5210
52779SOL    HW264175   3.773   7.869   8.168  0.6095  1.1182  2.1114
52780SOL     OW64176   6.164   0.818   2.502  0.0469  0.1461 -0.1253
52780SOL    HW164177   6.117   0.734   2.503 -1.7049  1.0696  1.3257
52780SOL    HW264178   6.172   0.841   2.594  2.3218  0.6508 -0.4105
52781SOL     OW64179   7.302   0.011   4.591  0.2610  0.6711  0.0372
52781SOL    HW164180   7.274  -0.078   4.571 -0.2025  0.6788  0.6341
52781SOL    HW264181   7.377  -0.001   4.650 -0.8650  0.6712  1.5220
52782SOL     OW64182   9.735   6.330   4.429 -0.5012  0.1228  0.3374
52782SOL    HW164183   9.796   6.352   4.499  0.4837 -1.1875 -0.0826
52782SOL    HW264184   9.750   6.396   4.362 -0.2002  0.3374  0.6151
52783SOL     OW64185   5.776  10.552  11.574  0.1800 -0.4987  0.1749
52783SOL    HW164186   5.826  10.536  11.654 -0.5560  2.4183  1.3316
52783SOL    HW264187   5.686  10.566  11.604 -0.0115  1.2163 -1.0463
52784SOL     OW64188   5.088   4.483   0.234 -0.3092  0.1722 -0.1382
52784SOL    HW164189   5.100   4.494   0.139  0.0029  1.4671  0.0218
52784SOL    HW264190   5.088   4.389   0.248  1.3984 -0.0412 -1.2228
52785SOL     OW64191  10.150   1.724   9.274 -0.0991 -0.6861 -0.0767
52785SOL    HW164192  10.105   1.799   9.235 -0.8401 -0.7272  0.6591
52785SOL    HW264193  10.229   1.761   9.313  1.0808 -0.7678 -2.2470
52786SOL     OW64194  10.656   0.761   5.913 -0.1329 -0.5139  0.3504
52786SOL    HW164195  10.677   0.668   5.912  0.3670 -0.4142 -0.9659
52786SOL    HW264196  10.691   0.795   5.830 -2.5359  0.3271 -0.4390
52787SOL     OW64197  11.858   6.236  11.190  0.2326  0.4365  0.7452
52787SOL    HW164198  11.777   6.280  11.167 -0.1816 -1.2559 -1.2963
52787SOL    HW264199  11.833   6.145  11.206  1.8914 -0.5512 -1.7040
52788SOL     OW64200   5.196  11.364   9.192  0.4330 -0.4839 -0.2717
52788SOL    HW164201   5.143  11.338   9.266 -0.4037  0.8188 -0.3816
52788SOL    HW264202   5.225  11.453   9.212  0.7274 -0.3484 -1.2068
52789SOL     OW64203   3.228   9.541   8.664  0.5086  0.1841  0.1096
52789SOL    HW164204   3.279   9.469   8.701  0.4299  0.1132  0.0801
52789SOL    HW264205   3.293   9.606   8.639  0.5028  0.6615  1.2819
52790SOL     OW64206   6.912  10.543   3.757 -0.0779  0.4756  0.0560
52790SOL    HW164207   6.887  10.621   3.807  0.8286  0.3467  0.7397
52790SOL    HW264208   6.984  10.572   3.702  0.5988  0.0176  0.6773
52791SOL     OW64209   3.079   9.943   4.124 -0.1879  0.5790 -0.1525
52791SOL    HW164210   3.144  10.014   4.129  0.5940  0.0580 -1.9278
52791SOL    HW264211   2.995   9.988   4.131  0.2952  1.6817 -0.9901
52792SOL     OW64212   2.859  10.196   3.793 -0.1121 -0.5994 -0.3114
52792SOL    HW164213   2.880  10.120   3.739 -2.1804 -1.7755  0.4490
52792SOL    HW264214   2.830  10.263   3.730  3.6186  0.4451 -1.2072
52793SOL     OW64215  10.443  10.412  10.008 -0.5545 -0.1161  0.1784
52793SOL    HW164216  10.369  10.352  10.004  0.8445 -1.9888  0.8433
52793SOL    HW264217  10.419  10.485   9.950 -0.9136 -2.8901 -3.5045
52794SOL     OW64218   9.939   6.498   3.894  0.0419  0.1165  0.1360
52794SOL    HW164219   9.899   6.419   3.931  0.1298 -0.6462 -1.2800
52794SOL    HW264220   9.865   6.546   3.856 -0.0714  0.9676  1.4090
52795SOL     OW64221   7.721   5.510  12.115 -0.0999 -0.1374  0.2231
52795SOL    HW164222   7.814   5.488  12.125  0.0881  0.6432  0.2179
52795SOL    HW264223   7.683   5.490  12.200  0.1001 -0.3384  0.2673
52796SOL     OW64224   2.132   9.419   0.334 -0.2384  0.1477  0.1988
52796SOL    HW164225   2.127   9.417   0.238 -1.1026  0.2167  0.2325
52796SOL    HW264226   2.090   9.337   0.361  0.6068 -0.1988  0.5116
52797SOL     OW64227   9.971   6.899   6.754 -0.3289  0.2394  0.0012
52797SOL    HW164228   9.897   6.951   6.785 -2.6044 -2.2292 -0.9839
52797SOL    HW264229   9.934   6.841   6.688  2.5668 -0.9779 -0.7068
52798SOL     OW64230   5.930  12.158   1.751  0.3972  0.0119  0.1837
52798SOL    HW164231   5.983  12.212   1.693  0.9925  0.1336  0.8232
52798SOL    HW264232   5.866  12.217   1.788 -1.4223 -0.4799 -1.9637
52799SOL     OW64233   9.771   0.927   0.593  0.1464 -0.8963  0.0728
52799SOL    HW164234   9.867   0.923   0.588  0.7478  5.0182  0.2037
52799SOL    HW264235   9.753   0.944   0.686 -1.3230 -3.0244  0.2718
52800SOL     OW64236   5.287   9.729   8.479 -0.2232 -0.2841  0.1800
52800SOL    HW164237   5.254   9.796   8.419  0.7892  0.3992  0.3458
52800SOL    HW264238   5.254   9.756   8.565  0.7408  0.4108  0.3492
52801SOL     OW64239  10.146   3.832  11.482 -0.2331 -0.0776  0.0021
52801SOL    HW164240  10.218   3.854  11.542 -0.1748  0.6007 -0.2980
52801SOL    HW264241  10.181   3.760  11.429 -0.7612 -1.6052  1.6239
52802SOL     OW64242   5.509  10.107   2.528 -0.1338  0.4613 -0.0306
52802SOL    HW164243   5.587  10.163   2.529 -0.4188  0.8902 -0.8682
52802SOL    HW264244   5.441  10.162   2.567 -0.0896  0.1868  0.4405
52803SOL     OW64245  11.763   3.142   2.824  0.1078 -0.2938 -0.3081
52803SOL    HW164246  11.761   3.092   2.743 -0.3855  1.2161 -1.2595
52803SOL    HW264247  11.834   3.204   2.813  1.3389 -1.3376  1.2435
52804SOL     OW64248  10.482   6.350  10.258  0.3118  0.0192 -0.3839
52804SOL    HW164249  10.473   6.425  10.317  1.6454  0.6660 -0.9408
52804SOL    HW264250  10.508   6.277  10.314 -0.3086  0.1499  0.0750
52805SOL     OW64251   6.109   4.454   3.867 -0.2488  0.6090  0.3988
52805SOL    HW164252   6.062   4.427   3.946 -0.2592  0.3863  0.3163
52805SOL    HW264253   6.064   4.410   3.795  0.6660 -0.3720  0.4087
52806SOL     OW64254   2.926   0.526   5.833  0.3904  0.2016 -0.1714
52806SOL    HW164255   2.854   0.463   5.838 -0.1888  0.8968  0.7645
52806SOL    HW264256   3.003   0.477   5.860  0.2079 -0.4509 -0.7942
52807SOL     OW64257   2.902   1.491   1.611 -0.0516 -0.2428 -0.1913
52807SOL    HW164258   2.961   1.416   1.614 -0.8888 -0.9209 -0.2982
52807SOL    HW264259   2.881   1.501   1.518 -1.7132 -1.3237  0.0145
52808SOL     OW64260   2.939   2.290   6.559  0.4063 -0.1848  0.1440
52808SOL    HW164261   3.010   2.298   6.496 -0.0969 -0.3575 -0.4583
52808SOL    HW264262   2.944   2.369   6.613  0.9736 -0.1437  0.0315
52809SOL     OW64263   2.633  12.035   5.388 -0.3977  0.2957  0.2495
52809SOL    HW164264   2.570  12.103   5.410 -0.9780  0.3024 -1.3362
52809SOL    HW264265   2.681  12.070   5.313  0.9576 -0.0549  0.9204
52810SOL     OW64266   4.621   3.172   1.651  0.1040 -0.2377 -0.6095
52810SOL    HW164267   4.631   3.244   1.712 -1.9095 -1.8955  1.8551
52810SOL    HW264268   4.543   3.193   1.600 -0.1731 -0.4240 -0.2619
52811SOL     OW64269   0.180  11.778  10.140 -0.3284  0.1370  0.1504
52811SOL    HW164270   0.221  11.741  10.062 -0.2288  0.1962  0.1748
52811SOL    HW264271   0.119  11.710  10.169  0.1534 -0.1754  0.4364
52812SOL     OW64272   1.175   2.755   1.437  0.2243 -0.1265 -0.0388
52812SOL    HW164273   1.220   2.806   1.370  1.2695 -1.0609 -0.0828
52812SOL    HW264274   1.207   2.792   1.520  4.4846 -3.3260  0.0741
52813SOL     OW64275  11.517   0.285   5.944  0.4700 -0.1597  0.2747
52813SOL    HW164276  11.506   0.342   6.019  1.9514  0.2863  0.1863
52813SOL    HW264277  11.577   0.216   5.974  0.7284 -0.2218 -0.3524
52814SOL     OW64278   7.048   3.131   3.128  0.4417 -0.1461 -0.2063
52814SOL    HW164279   7.111   3.058   3.121  0.1786 -0.4412  0.3898
52814SOL    HW264280   6.972   3.102   3.077 -0.1937 -0.8881  1.0999
52815SOL     OW64281  11.105   7.448   7.867 -0.0060  0.6643  0.0212
52815SOL    HW164282  11.078   7.539   7.857  0.4378  0.7235 -0.7098
52815SOL    HW264283  11.077   7.424   7.956 -0.5541  1.3583  0.0389
52816SOL     OW64284   1.651   6.031   0.135  0.5084 -0.2259  0.0924
52816SOL    HW164285   1.712   6.004   0.067  1.4164  2.7090 -0.3832
52816SOL    HW264286   1.697   6.013   0.217  0.9334 -0.4177 -0.1882
52817SOL     OW64287   0.371   0.360   8.903 -0.5441 -0.1433 -0.6410
52817SOL    HW164288   0.442   0.421   8.920 -0.5244 -0.7677  1.9313
52817SOL    HW264289   0.390   0.324   8.817  0.0228  2.6100 -1.7677
52818SOL     OW64290   5.184   2.341   3.106 -0.0998  0.4616  0.0945
52818SOL    HW164291   5.114   2.309   3.162  0.4851  0.4676  0.8343
52818SOL    HW264292   5.142   2.405   3.049 -0.5761  0.9065  0.9324
52819SOL     OW64293   3.003   3.046  10.557 -0.3068  0.0822  0.4289
52819SOL    HW164294   3.084   2.996  10.566  0.6371  1.3882 -0.4820
52819SOL    HW264295   2.998   3.098  10.638  1.3476  2.1465 -0.6849
52820SOL     OW64296   2.295   5.949  10.042 -0.0698  0.1179 -0.0069
52820SOL    HW164297   2.381   5.929  10.079  0.0342  1.2483  0.4281
52820SOL    HW264298   2.312   5.962   9.948  0.0244 -0.7799 -0.1220
52821SOL     OW64299   2.780   7.535   6.268 -0.4348  0.2335 -0.1598
52821SOL    HW164300   2.788   7.456   6.214 -0.6011 -0.1768  0.4152
52821SOL    HW264301   2.837   7.519   6.343 -0.8826  0.4444  0.2255
52822SOL     OW64302   4.129   5.828  10.689  0.3941  0.1746 -0.0359
52822SOL    HW164303   4.086   5.905  10.726 -1.3468 -0.5628 -0.4420
52822SOL    HW264304   4.184   5.863  10.619 -2.0674  0.9238 -1.7175
52823SOL     OW64305   6.566   9.318   0.833 -0.6829  0.6948 -0.3558
52823SOL    HW164306   6.491   9.259   0.828 -1.1292  0.8265  2.6944
52823SOL    HW264307   6.531   9.405   0.813 -1.2013  0.6494  0.3443
52824SOL     OW64308   7.409   2.991  10.258 -0.2470 -0.4705  0.3812
52824SOL    HW164309   7.405   2.970  10.164  0.6487  0.9623  0.0012
52824SOL    HW264310   7.494   2.956  10.286  0.4173  0.9181  0.1652
52825SOL     OW64311   0.208   4.234   6.204 -0.4888 -0.2187  0.5401
52825SOL    HW164312   0.253   4.292   6.142  0.4329 -1.6215 -0.1533
52825SOL    HW264313   0.275   4.214   6.270 -0.7747 -0.5676  0.7273
52826SOL     OW64314   5.384   5.611   5.594 -0.0424  0.1522 -0.0262
52826SOL    HW164315   5.367   5.697   5.630 -1.0787  0.4362 -1.1367
52826SOL    HW264316   5.326   5.604   5.519  0.8182 -1.0827 -0.6197
52827SOL     OW64317  11.879   9.639  11.864  0.6964  0.4099 -0.3523
52827SOL    HW164318  11.963   9.593  11.860  0.7598  0.6101 -1.6542
52827SOL    HW264319  11.817   9.582  11.820  0.5525  1.0865 -1.0529
52828SOL     OW64320   9.402   5.117   4.432 -0.0179  0.3511 -0.6449
52828SOL    HW164321   9.463   5.109   4.359  0.9146  1.3538  0.0065
52828SOL    HW264322   9.344   5.189   4.408 -0.5737 -0.1956 -0.9824
52829SOL     OW64323   3.578   5.999   3.429  0.1036 -0.4215 -0.6364
52829SOL    HW164324   3.491   6.036   3.443  0.3168 -0.1945  0.0900
52829SOL    HW264325   3.562   5.905   3.418 -0.0687 -0.6629  1.3742
52830SOL     OW64326   8.570  11.301   0.136  0.3048  0.5561  0.0463
52830SOL    HW164327   8.566  11.251   0.218 -0.9685  1.0055  0.2809
52830SOL    HW264328   8.660  11.333   0.132  0.6054 -0.1442  0.8616
52831SOL     OW64329   9.115  11.743   1.043  0.3847 -0.1388 -0.4667
52831SOL    HW164330   9.027  11.766   1.071 -0.5552  0.3775 -3.4731
52831SOL    HW264331   9.155  11.827   1.020  1.6352 -0.3953  0.6487
52832SOL     OW64332   1.967   8.963  10.938 -0.2433 -0.4897  0.2772
52832SOL    HW164333   1.923   9.046  10.920  3.1574  1.4249  0.1810
52832SOL    HW264334   1.972   8.919  10.853 -1.7384 -0.7202  0.2726
52833SOL     OW64335   0.765   3.052   1.766 -0.1061  0.2252 -0.1951
52833SOL    HW164336   0.707   2.999   1.710  0.1666 -0.2455 -0.0343
52833SOL    HW264337   0.766   3.006   1.850 -0.3864  0.8441  0.1599
52834SOL     OW64338   0.579   8.630   1.324  0.1878  0.3804 -0.5585
52834SOL    HW164339   0.594   8.579   1.404 -0.0561 -0.1777 -0.8630
52834SOL    HW264340   0.607   8.718   1.347  0.3238  0.1805  0.0786
52835SOL     OW64341   2.978  10.579  10.127  0.1388 -0.1635  0.2534
52835SOL    HW164342   2.990  10.604  10.218  0.1349  2.7198 -0.4362
52835SOL    HW264343   2.892  10.538  10.124  0.4053 -0.8602  1.6277
52836SOL     OW64344   7.386   1.549   7.333  0.2868 -0.3579  0.1932
52836SOL    HW164345   7.346   1.635   7.320  1.8221  0.3332 -0.1242
52836SOL    HW264346   7.424   1.554   7.421  1.9265 -0.0361 -0.4987
52837SOL     OW64347   8.136   8.898   6.207  1.0715  0.0042  0.0375
52837SOL    HW164348   8.107   8.874   6.294  0.2746 -0.2429 -0.2907
52837SOL    HW264349   8.195   8.828   6.181  0.5054 -0.4502 -0.0275
52838SOL     OW64350   5.930   5.813   2.981  0.2812 -0.1393  0.3257
52838SOL    HW164351   5.951   5.853   3.066 -1.6701 -0.8113  1.1940
52838SOL    HW264352   5.896   5.885   2.928  1.0486  0.1911  0.2704
52839SOL     OW64353   7.740  10.012   4.941 -0.1291  0.4462  0.2119
52839SOL    HW164354   7.764   9.928   4.979 -0.6242  0.8429  1.4593
52839SOL    HW264355   7.657   9.995   4.895  2.0685 -0.8291 -3.7611
52840SOL     OW64356  11.839   7.070   5.669  0.0199  0.0099  0.0016
52840SOL    HW164357  11.895   7.050   5.594 -0.2565  0.1370 -0.2389
52840SOL    HW264358  11.765   7.010   5.662 -0.8971  1.1919 -0.8222
52841SOL     OW64359   0.920   8.260   3.049 -0.5593  0.3690  0.7148
52841SOL    HW164360   0.926   8.286   3.141 -0.8169  1.9152  0.3208
52841SOL    HW264361   1.004   8.219   3.030 -0.3014  0.5271  1.4914
52842SOL     OW64362   1.316   4.143   9.459 -0.0229 -0.2898 -0.3724
52842SOL    HW164363   1.248   4.184   9.405  1.1068  0.8932 -0.9286
52842SOL    HW264364   1.387   4.124   9.399  0.9991  0.4441  0.5695
52843SOL     OW64365   3.815   5.226   0.117 -0.0613 -0.3752  0.3667
52843SOL    HW164366   3.749   5.165   0.084 -0.9144  0.0962  1.1473
52843SOL    HW264367   3.769   5.309   0.125  1.0611  0.3685 -0.5848
52844SOL     OW64368  10.786   6.835   5.693 -0.1217  0.5080  0.1635
52844SOL    HW164369  10.746   6.898   5.633  0.0259 -0.7917 -1.3648
52844SOL    HW264370  10.737   6.754   5.678  2.9199 -1.1480 -1.7492
52845SOL     OW64371   1.532  10.703  11.129 -0.3105  0.3456  0.3251
52845SOL    HW164372   1.601  10.694  11.063 -0.4201 -1.0998  0.3667
52845SOL    HW264373   1.543  10.626  11.184 -0.7312  1.1179  1.5228
52846SOL     OW64374   8.794   3.484   6.073 -0.6502  1.1642 -1.0723
52846SOL    HW164375   8.761   3.573   6.087 -0.8962  0.8798  0.3369
52846SOL    HW264376   8.744   3.430   6.134  0.4869  0.2814 -0.8893
52847SOL     OW64377   7.558   5.804   5.253  0.0428 -0.6976  0.1741
52847SOL    HW164378   7.617   5.737   5.219 -1.6118 -1.6214 -1.0623
52847SOL    HW264379   7.484   5.754   5.289 -0.9831  0.4305 -0.2906
52848SOL     OW64380  12.009  11.805   1.601 -0.0653  0.3487 -0.6875
52848SOL    HW164381  11.972  11.893   1.599  0.6050  0.6358 -2.5392
52848SOL    HW264382  11.934  11.746   1.588 -0.4831  0.6165  0.3562
52849SOL     OW64383   0.539   3.640   1.936 -0.0077 -0.5796 -0.2260
52849SOL    HW164384   0.450   3.648   1.969 -0.2285 -2.6530 -0.1750
52849SOL    HW264385   0.539   3.691   1.855 -0.1709  2.4436  1.5351
52850SOL     OW64386   4.501  11.977  11.149  0.4749  0.1246 -0.5136
52850SOL    HW164387   4.408  11.969  11.128  0.0399 -0.6150  1.4605
52850SOL    HW264388   4.546  11.948  11.070 -0.9674  0.5215 -1.5192
52851SOL     OW64389   1.412   6.536   3.824 -0.1021  0.0284 -0.1425
52851SOL    HW164390   1.387   6.444   3.832 -0.2549  0.0143 -0.7222
52851SOL    HW264391   1.473   6.538   3.751 -1.7454  0.6825 -1.5722
52852SOL     OW64392   4.228   8.973  11.491 -0.1886  0.5429 -0.3911
52852SOL    HW164393   4.181   8.990  11.572 -0.3328 -2.0865  0.1457
52852SOL    HW264394   4.269   8.888  11.504  0.5700  0.4833 -2.7341
52853SOL     OW64395   7.614   5.130   5.740 -0.1515 -0.0400  0.5780
52853SOL    HW164396   7.526   5.162   5.720 -0.2903  0.1921  1.4864
52853SOL    HW264397   7.638   5.176   5.821  1.1585  0.5509 -0.1088
52854SOL     OW64398   4.380   2.786   3.834  0.3607 -0.2378 -0.0166
52854SOL    HW164399   4.369   2.790   3.929  0.3153  1.2868 -0.0607
52854SOL    HW264400   4.292   2.797   3.799  0.4662 -0.1331 -0.2506
52855SOL     OW64401  12.178   1.379   8.302  0.3765 -0.4628 -0.5380
52855SOL    HW164402  12.215   1.387   8.215  0.6694 -0.8197 -0.4489
52855SOL    HW264403  12.092   1.420   8.296  0.3608 -0.5629 -1.0169
52856SOL     OW64404   8.071   4.490  11.814 -0.0398 -0.0229 -0.2256
52856SOL    HW164405   7.995   4.507  11.758  0.8993  1.1903 -1.1813
52856SOL    HW264406   8.106   4.407  11.780  0.8041  0.9406 -1.8144
52857SOL     OW64407   9.581   2.928   7.600 -0.3319  0.0266 -0.2665
52857SOL    HW164408   9.587   2.900   7.691 -0.2776  0.3002 -0.1863
52857SOL    HW264409   9.525   2.862   7.559  0.0960 -0.4099 -0.1637
52858SOL     OW64410   2.299   2.560   4.801 -0.2989  0.4599 -0.3833
52858SOL    HW164411   2.276   2.647   4.835  2.1421  2.2701 -2.9314
52858SOL    HW264412   2.326   2.510   4.879  3.1087  3.7177  0.8376
52859SOL     OW64413   2.349   0.326  11.007 -0.0792 -0.0520 -0.3299
52859SOL    HW164414   2.292   0.357  11.078  1.7066  0.3243  1.0126
52859SOL    HW264415   2.415   0.273  11.051  1.4974  0.7561 -1.6206
52860SOL     OW64416   1.640   8.876   4.932  0.2223 -0.0404  0.2165
52860SOL    HW164417   1.630   8.940   5.002 -0.5964 -0.1639  0.2157
52860SOL    HW264418   1.723   8.899   4.890  0.4451  0.3748  0.8692
52861SOL     OW64419   3.960   8.385   6.200  0.2436 -0.2787 -0.7604
52861SOL    HW164420   3.878   8.393   6.151  0.3856 -1.2811 -1.1798
52861SOL    HW264421   3.953   8.302   6.246  0.8413 -0.1606 -0.4467
52862SOL     OW64422  11.873   3.422   3.008  0.1619  0.2557 -0.0205
52862SOL    HW164423  11.803   3.442   3.070 -1.1669  0.9960 -1.6750
52862SOL    HW264424  11.931   3.362   3.056 -1.3898 -0.0919  1.5264
52863SOL     OW64425   3.392  10.641   3.461 -0.1349  0.6281  0.3354
52863SOL    HW164426   3.311  10.643   3.409  0.1174  1.1417 -0.0532
52863SOL    HW264427   3.375  10.577   3.530 -0.0206 -1.0731 -1.1479
52864SOL     OW64428  10.739   0.463  12.027  0.5297 -0.3349  0.0050
52864SOL    HW164429  10.734   0.525  12.100  1.7058 -1.7189  1.3216
52864SOL    HW264430  10.650   0.462  11.991 -0.1414  0.2415  1.5590
52865SOL     OW64431  11.164   4.412   7.478  0.0399  0.1065 -0.6893
52865SOL    HW164432  11.112   4.333   7.489 -0.4854  0.3406 -1.4456
52865SOL    HW264433  11.121   4.460   7.407  0.4801  0.9613 -0.3943
52866SOL     OW64434   9.034   7.361   4.012  0.1365 -0.0980 -0.5581
52866SOL    HW164435   9.085   7.421   4.066 -1.1887  0.4405  0.1261
52866SOL    HW264436   9.035   7.400   3.924 -1.5873  1.5543  0.0882
52867SOL     OW64437   7.256   2.391   0.657 -0.4384  0.2150  0.0195
52867SOL    HW164438   7.305   2.309   0.668  0.9521  0.6795 -2.0488
52867SOL    HW264439   7.172   2.364   0.620  0.5684 -0.2251 -2.0582
52868SOL     OW64440   7.147   9.798  10.955  0.0173 -0.2850  0.2189
52868SOL    HW164441   7.187   9.736  10.894  0.1515 -0.7807  0.7962
52868SOL    HW264442   7.077   9.840  10.905 -0.1983 -1.0400 -0.1226
52869SOL     OW64443   8.363   2.838  11.672 -0.0557 -0.5446 -0.5522
52869SOL    HW164444   8.400   2.803  11.590  1.7798 -0.6016  0.2591
52869SOL    HW264445   8.303   2.907  11.644  1.1437 -0.0164 -1.9381
52870SOL     OW64446   1.777   8.124  10.380 -0.2258 -0.5967 -0.3428
52870SOL    HW164447   1.758   8.036  10.349  0.9220 -2.0643  2.7454
52870SOL    HW264448   1.695   8.154  10.421 -0.6327 -0.1492 -1.4418
52871SOL     OW64449   8.615   8.344  12.017 -0.3501 -0.6219 -0.1985
52871SOL    HW164450   8.560   8.337  12.095  0.3883  1.2527  0.5402
52871SOL    HW264451   8.705   8.343  12.050  0.0099 -0.9611 -1.1417
52872SOL     OW64452   3.580   0.058   5.918 -0.4905 -0.1822 -0.1281
52872SOL    HW164453   3.514   0.072   5.985  1.0928 -0.1540  1.4903
52872SOL    HW264454   3.556  -0.025   5.878 -2.4539  0.6391 -0.7847
52873SOL     OW64455  10.859   0.897   3.836  0.1621  0.1112 -0.4248
52873SOL    HW164456  10.802   0.826   3.865  0.7988 -0.0642  0.4281
52873SOL    HW264457  10.799   0.965   3.807 -0.6618  1.1145  3.1321
52874SOL     OW64458   2.563  12.249  12.179  0.6014  0.2283  0.1376
52874SOL    HW164459   2.653  12.219  12.191  0.4262 -0.6035 -0.4840
52874SOL    HW264460   2.526  12.249  12.267  0.1825 -2.9204  0.0935
52875SOL     OW64461   2.223   4.361   0.132 -0.0258 -0.7026  0.5497
52875SOL    HW164462   2.226   4.295   0.063  2.1692  0.6369 -0.7384
52875SOL    HW264463   2.315   4.382   0.149 -0.5825  0.3482  2.6113
52876SOL     OW64464   1.908   6.750   3.450  0.7851 -0.3020  0.2536
52876SOL    HW164465   1.989   6.800   3.441  0.7904 -0.3153  0.2293
52876SOL    HW264466   1.863   6.760   3.366  1.2818 -1.2153 -0.1328
52877SOL     OW64467   2.016   9.187   4.297 -0.1598  0.2703  0.1190
52877SOL    HW164468   2.057   9.250   4.238 -2.3796  0.4897 -1.3361
52877SOL    HW264469   1.948   9.238   4.342 -2.6971 -1.1214 -1.8247
52878SOL     OW64470   4.720   8.824   7.403  0.2145 -0.3093  0.0821
52878SOL    HW164471   4.712   8.918   7.422 -2.1457 -0.1207 -1.3838
52878SOL    HW264472   4.715   8.782   7.489  1.8032  0.9015  0.8055
52879SOL     OW64473  12.306   9.956  12.258  0.2899 -0.3636 -0.2073
52879SOL    HW164474  12.354  10.037  12.275 -2.2687  1.3885 -0.6991
52879SOL    HW264475  12.302   9.912  12.342  0.0117  1.0586  0.5611
52880SOL     OW64476   8.257   0.599   4.699  0.3937 -0.2814 -1.0267
52880SOL    HW164477   8.269   0.571   4.609  0.2658 -0.6266 -0.9360
52880SOL    HW264478   8.165   0.624   4.705  0.1451 -1.2459 -0.7206
52881SOL     OW64479   7.791   6.188   5.485  0.4611  0.5371  0.9271
52881SOL    HW164480   7.786   6.253   5.414  0.0202 -0.1601  0.2999
52881SOL    HW264481   7.781   6.239   5.565 -0.8456  1.1480  0.4042
52882SOL     OW64482   8.048   2.406  11.594  0.3567  0.2080 -0.0634
52882SOL    HW164483   8.129   2.431  11.639 -0.2302 -1.5161  2.0882
52882SOL    HW264484   8.078   2.366  11.512  1.6249  0.3616  0.2999
52883SOL     OW64485   0.394  11.413   7.419  0.4150  0.4131 -0.1874
52883SOL    HW164486   0.350  11.403   7.334 -0.8629  0.2829  0.4598
52883SOL    HW264487   0.414  11.506   7.424  0.5535  0.4116 -0.6645
52884SOL     OW64488   6.301   4.100   7.318  0.1339  0.2019 -0.1834
52884SOL    HW164489   6.326   4.009   7.332  2.2513  0.8482  0.6750
52884SOL    HW264490   6.379   4.140   7.278 -0.0405  2.0400  1.2125
52885SOL     OW64491   9.677   2.851   3.696 -0.0261 -0.3254  0.0389
52885SOL    HW164492   9.769   2.875   3.704  0.4134 -2.1202  0.8746
52885SOL    HW264493   9.675   2.789   3.623 -0.7276  0.3030 -0.4995
52886SOL     OW64494   8.566   0.361   7.041  0.0679 -0.0195 -0.4483
52886SOL    HW164495   8.602   0.303   7.108 -0.1512  1.3271  0.8788
52886SOL    HW264496   8.501   0.308   6.996 -0.2780 -0.7708  0.8756
52887SOL     OW64497   6.321   8.311   1.303 -0.1790 -0.1753 -0.0636
52887SOL    HW164498   6.320   8.391   1.356 -0.4541 -1.3967  1.8945
52887SOL    HW264499   6.409   8.277   1.312 -0.3948 -0.6994  0.1120
52888SOL     OW64500   7.844   2.312  12.139 -0.0310 -0.0325  0.2319
52888SOL    HW164501   7.782   2.386  12.139  0.1155  0.1257 -1.3461
52888SOL    HW264502   7.789   2.234  12.135 -0.1734  0.1127 -1.3512
52889SOL     OW64503   4.972   6.847   4.300 -0.1390 -0.1654 -0.7632
52889SOL    HW164504   5.026   6.891   4.365  0.2257 -0.8730 -0.5719
52889SOL    HW264505   4.953   6.914   4.234  2.0623 -0.2216 -1.5188
52890SOL     OW64506   0.324   8.166   1.487  0.1210  0.7617 -0.2954
52890SOL    HW164507   0.400   8.109   1.475 -1.7416 -2.2279  0.9572
52890SOL    HW264508   0.283   8.133   1.567 -2.8719  1.7944 -1.2989
52891SOL     OW64509   5.147   1.724   3.123 -0.0957  0.0412 -0.2179
52891SOL    HW164510   5.170   1.684   3.207  0.3748 -0.2394 -0.4705
52891SOL    HW264511   5.116   1.651   3.070 -0.5273  0.2409 -0.2474
52892SOL     OW64512   3.324   1.661  10.952 -0.2182 -0.1453  0.4559
52892SOL    HW164513   3.395   1.708  10.908  0.1463  0.2958  1.4986
52892SOL    HW264514   3.347   1.663  11.044 -1.1370 -0.7860  0.7126
52893SOL     OW64515   4.153   8.052   8.197 -0.1530 -0.2773 -0.2528
52893SOL    HW164516   4.126   7.977   8.144  1.1637 -1.2312  0.3391
52893SOL    HW264517   4.164   8.015   8.285 -0.0481  0.7507  0.1761
52894SOL     OW64518   1.714   2.117   8.394  0.2351  0.5789  0.0442
52894SOL    HW164519   1.660   2.156   8.326 -0.3277  0.9278  0.6815
52894SOL    HW264520   1.653   2.073   8.453  0.4074  2.5073  1.7828
52895SOL     OW64521   4.206   6.472   6.367 -0.0810  0.3890  0.3375
52895SOL    HW164522   4.286   6.511   6.401  1.4935 -1.6157 -0.9050
52895SOL    HW264523   4.179   6.530   6.296  1.3901  0.0718 -0.5146
52896SOL     OW64524   2.880   3.658  10.094  0.6047  0.7814  0.6865
52896SOL    HW164525   2.887   3.748  10.063  0.2316 -0.4762 -3.8678
52896SOL    HW264526   2.786   3.642  10.101  0.5340  0.1480 -1.0874
52897SOL     OW64527   7.776   7.869   3.458  0.4398  0.3554 -0.5869
52897SOL    HW164528   7.769   7.827   3.544  1.2439  1.0834 -0.1426
52897SOL    HW264529   7.811   7.800   3.401  2.7862  0.6432  0.3806
52898SOL     OW64530  10.751   3.033   4.380  0.1114 -0.4046  0.2496
52898SOL    HW164531  10.804   3.085   4.441 -1.2852  0.1710  1.0174
52898SOL    HW264532  10.742   2.948   4.424 -0.2270 -0.2510  0.4830
52899SOL     OW64533  11.845   3.914   7.802 -0.0158  0.3104  0.6491
52899SOL    HW164534  11.904   3.969   7.751  1.8921 -2.0699  0.1371
52899SOL    HW264535  11.795   3.865   7.736 -0.6209  0.3101  1.0945
52900SOL     OW64536   7.846   5.125   7.020  0.1778 -0.0708 -0.0447
52900SOL    HW164537   7.898   5.070   7.079  1.2642 -0.1074 -0.9945
52900SOL    HW264538   7.771   5.071   6.995 -0.3786  0.0017  1.3916
52901SOL     OW64539   7.859   7.091   7.405 -0.1264 -0.2634  0.4118
52901SOL    HW164540   7.885   7.028   7.338  0.2945  0.6639 -0.3321
52901SOL    HW264541   7.866   7.044   7.487  0.6447 -1.0365 -0.0834
52902SOL     OW64542  11.880   4.616   2.824 -0.0098  0.2358 -0.0305
52902SOL    HW164543  11.814   4.681   2.800 -0.8919 -0.1521  1.2161
52902SOL    HW264544  11.962   4.666   2.829 -0.6716  1.2977  0.9407
52903SOL     OW64545   8.199   9.698   1.789  0.3320  0.3628 -0.5032
52903SOL    HW164546   8.174   9.763   1.854  0.0574 -1.6343  1.5325
52903SOL    HW264547   8.285   9.726   1.758 -1.1123  3.3698 -2.1624
52904SOL     OW64548   4.389   3.414   8.190  0.3552  0.2053 -0.2542
52904SOL    HW164549   4.401   3.337   8.134 -0.4813 -1.1588  1.3371
52904SOL    HW264550   4.478   3.442   8.210  0.6667  0.2899 -1.6719
52905SOL     OW64551   7.774   8.066  11.218 -0.1902  0.6940 -0.2074
52905SOL    HW164552   7.760   8.161  11.212  0.2718  0.8288  0.6600
52905SOL    HW264553   7.724   8.039  11.295 -0.0194  0.2963 -0.2347
52906SOL     OW64554   6.413   7.234   1.101 -0.3209  0.2027  0.1273
52906SOL    HW164555   6.353   7.220   1.175  0.8741  0.3719  1.1666
52906SOL    HW264556   6.407   7.328   1.084 -0.2905  0.2328  0.2792
52907SOL     OW64557   3.862   6.289  10.259  0.1673 -0.1865  0.3041
52907SOL    HW164558   3.773   6.255  10.249 -0.5640  1.8269 -0.6406
52907SOL    HW264559   3.894   6.249  10.339 -1.2366 -1.6964  0.1621
52908SOL     OW64560   6.318   2.093   2.880 -0.3851  0.0974 -0.1033
52908SOL    HW164561   6.227   2.123   2.880 -0.3713  0.1394  0.0706
52908SOL    HW264562   6.361   2.147   2.946 -0.4597 -0.6216  0.5422
52909SOL     OW64563   8.294  11.098  10.950  0.0329  0.0831 -0.4757
52909SOL    HW164564   8.388  11.097  10.969  0.0287  0.2109 -0.4431
52909SOL    HW264565   8.289  11.084  10.855  0.1555  1.3350 -0.6925
52910SOL     OW64566   9.784  10.635   5.744 -0.1962  0.3472  0.6805
52910SOL    HW164567   9.856  10.698   5.752 -0.9233  1.2025  0.5897
52910SOL    HW264568   9.747  10.630   5.832 -0.1547  0.0644  0.6809
52911SOL     OW64569  11.754   1.491   6.930  0.1645  0.1186 -0.2791
52911SOL    HW164570  11.782   1.405   6.958 -1.6349 -0.3248  0.3318
52911SOL    HW264571  11.806   1.510   6.852  0.2446 -1.7427 -0.7272
52912SOL     OW64572  11.664   7.713   5.454  0.2121  0.4467  0.0681
52912SOL    HW164573  11.745   7.663   5.448 -0.8764 -1.2855 -1.1327
52912SOL    HW264574  11.689   7.804   5.438  1.6879 -0.2660 -1.8922
52913SOL     OW64575  12.266  11.069   1.743  0.2595  0.2997  0.3120
52913SOL    HW164576  12.258  11.081   1.649  0.0400 -2.2898 -0.0607
52913SOL    HW264577  12.359  11.051   1.757  0.1541 -0.1220  0.4803
52914SOL     OW64578   4.600   0.148   2.351 -0.5001 -0.1397  0.1181
52914SOL    HW164579   4.637   0.064   2.379 -1.1160  0.3027  2.4093
52914SOL    HW264580   4.516   0.154   2.396 -0.2433  1.9497  0.4184
52915SOL     OW64581   8.998   2.956   4.667 -0.2145 -0.2302  0.5243
52915SOL    HW164582   9.056   3.027   4.691  1.1575 -1.5398  1.2691
52915SOL    HW264583   8.938   2.994   4.603  1.5122  1.1583 -0.3531
52916SOL     OW64584  12.089   5.709   8.267  0.1520  0.3775 -0.6610
52916SOL    HW164585  12.127   5.793   8.291  1.1355 -0.1712 -0.2493
52916SOL    HW264586  12.111   5.698   8.174  1.1350 -0.0057 -0.3856
52917SOL     OW64587   4.565   0.961   7.329 -0.0669 -0.3457  0.3705
52917SOL    HW164588   4.522   1.036   7.371 -2.1660 -0.4732 -1.3911
52917SOL    HW264589   4.659   0.982   7.334 -0.4979  1.6615  1.2586
52918SOL     OW64590   2.438   8.195   5.117  0.1930  0.4240 -1.0547
52918SOL    HW164591   2.475   8.144   5.189 -1.2962  0.5638 -0.1266
52918SOL    HW264592   2.343   8.186   5.128 -0.0892  1.7686 -2.0465
52919SOL     OW64593  10.255   9.092   5.924 -0.3828 -0.2916 -0.2391
52919SOL    HW164594  10.165   9.060   5.917 -0.8452  0.5756  1.2239
52919SOL    HW264595  10.276   9.081   6.017  0.7538  0.2094 -0.4274
52920SOL     OW64596  10.158   1.345  10.516 -0.0215 -0.1009 -0.6922
52920SOL    HW164597  10.068   1.368  10.535 -0.0278  1.2171 -2.1405
52920SOL    HW264598  10.208   1.424  10.537  0.4881 -0.0552 -2.0325
52921SOL     OW64599   9.520   9.630   3.634 -0.2450  0.1778  0.2155
52921SOL    HW164600   9.528   9.675   3.550 -1.7738  0.1367  0.0219
52921SOL    HW264601   9.513   9.701   3.699  2.4633  0.2442  0.5470
52922SOL     OW64602   6.151   7.636   6.012  0.0953  0.2195 -0.4131
52922SOL    HW164603   6.201   7.706   5.970 -1.5162  1.1995 -0.8032
52922SOL    HW264604   6.185   7.555   5.974  0.2468  0.9598 -1.9151
52923SOL     OW64605   2.988   6.136   0.720 -0.0449  0.8734 -0.2427
52923SOL    HW164606   2.928   6.114   0.792  0.4728  0.7479  0.1569
52923SOL    HW264607   3.019   6.224   0.741 -1.0677  1.4775 -1.1277
52924SOL     OW64608   8.409   0.939   0.140 -0.4119 -0.3553  0.7415
52924SOL    HW164609   8.488   0.982   0.109  0.7634 -3.1956 -0.6033
52924SOL    HW264610   8.419   0.936   0.235  0.9634 -0.3628  0.6183
52925SOL     OW64611   4.165   9.992   6.728 -0.0244  0.8999 -0.2990
52925SOL    HW164612   4.178   9.959   6.817  1.3040  3.2582  0.4720
52925SOL    HW264613   4.209   9.928   6.672  0.6084  0.2558  0.8903
52926SOL     OW64614   7.779  11.799   4.605 -0.0792  0.0816 -0.2207
52926SOL    HW164615   7.768  11.774   4.696  0.7671  2.1343  0.4959
52926SOL    HW264616   7.851  11.744   4.574 -1.1859 -1.5201 -0.0701
52927SOL     OW64617  12.219  10.575  11.163  0.2370 -0.1037  0.3507
52927SOL    HW164618  12.259  10.580  11.076 -1.1741  2.7308 -0.2562
52927SOL    HW264619  12.291  10.589  11.224  1.0152 -0.6955 -0.4086
52928SOL     OW64620   3.306   2.141   9.077  0.8006  0.2887 -0.6790
52928SOL    HW164621   3.230   2.157   9.133  2.2759  1.2796  1.1804
52928SOL    HW264622   3.278   2.071   9.018 -1.3341  0.1961  0.3271
52929SOL     OW64623   9.292  11.529   0.532  0.7153  0.0074 -0.1227
52929SOL    HW164624   9.267  11.536   0.440  1.5354  1.4869 -0.2813
52929SOL    HW264625   9.210  11.526   0.580  0.2582  0.6096 -0.8453
52930SOL     OW64626   6.494  11.782   5.090 -0.6120  0.0137 -0.1392
52930SOL    HW164627   6.581  11.760   5.125 -0.3932  0.4784 -0.3809
52930SOL    HW264628   6.492  11.739   5.004 -0.0533  1.1758 -0.7582
52931SOL     OW64629  10.202   5.618   3.923  0.1849  0.8033 -0.2568
52931SOL    HW164630  10.158   5.702   3.911  0.9985  1.1515 -0.8649
52931SOL    HW264631  10.138   5.564   3.970 -0.8720  1.2998 -1.0973
52932SOL     OW64632   2.489  10.280   7.328 -0.2473 -0.6944  0.2942
52932SOL    HW164633   2.469  10.219   7.257  0.8720 -0.5315 -0.1804
52932SOL    HW264634   2.552  10.233   7.384 -1.4647 -1.0038  1.4609
52933SOL     OW64635   2.458   7.864   4.122 -0.6078  0.0362  0.3746
52933SOL    HW164636   2.397   7.909   4.181 -1.2725  0.7815 -0.8549
52933SOL    HW264637   2.403   7.804   4.072  0.2782 -2.4447  2.1336
52934SOL     OW64638   6.549   0.434  12.012 -0.0400  0.9342  0.0609
52934SOL    HW164639   6.579   0.517  11.974  1.3030 -0.0126 -1.0922
52934SOL    HW264640   6.471   0.412  11.962  0.3166  0.9186 -0.5084
52935SOL     OW64641   2.315   4.812  11.492 -0.2067  0.4431 -0.3844
52935SOL    HW164642   2.240   4.867  11.467 -0.0750 -0.1128 -2.1019
52935SOL    HW264643   2.386   4.840  11.434  0.5432  0.0517  0.3250
52936SOL     OW64644   8.224   1.624   0.287  0.0055  0.7653 -0.4158
52936SOL    HW164645   8.239   1.601   0.195 -1.4487  0.3571 -0.5898
52936SOL    HW264646   8.156   1.562   0.316 -0.0208  1.3141  0.7420
52937SOL     OW64647   8.930   4.359   6.463  0.4193 -0.2548  0.1623
52937SOL    HW164648   8.999   4.414   6.500 -0.8625 -0.1659  2.6249
52937SOL    HW264649   8.937   4.277   6.512 -0.4105 -0.7086 -0.4651
52938SOL     OW64650   4.907   9.337  11.718  0.3923 -0.3374 -0.2053
52938SOL    HW164651   4.815   9.349  11.743  1.0077  1.5685  1.4376
52938SOL    HW264652   4.917   9.387  11.637  0.7133  2.6898  1.5490
52939SOL     OW64653   3.316   8.023  10.568 -0.1577  0.4074 -0.0361
52939SOL    HW164654   3.222   8.025  10.551 -0.4857 -0.2514  1.4849
52939SOL    HW264655   3.351   7.959  10.506 -1.0812 -1.0144  0.8739
52940SOL     OW64656   4.078   1.664   5.452 -0.3180 -0.4315 -0.0937
52940SOL    HW164657   4.051   1.729   5.387 -1.5768 -0.8120  0.0050
52940SOL    HW264658   4.010   1.669   5.520  0.3896 -0.7927  0.6671
52941SOL     OW64659  10.664   3.495  10.517  0.3159  0.6324  0.0507
52941SOL    HW164660  10.726   3.439  10.470  0.0943  1.1534 -0.8966
52941SOL    HW264661  10.598   3.435  10.551 -1.3613  0.4364 -3.1309
52942SOL     OW64662   4.606   9.824  11.928  0.6604  0.0146  0.4147
52942SOL    HW164663   4.553   9.752  11.963 -0.0436  1.1608  1.7902
52942SOL    HW264664   4.555   9.903  11.945  2.3387  1.0570  0.8523
52943SOL     OW64665   6.827   4.697  12.197 -0.2300 -0.1802 -0.7249
52943SOL    HW164666   6.761   4.652  12.144 -0.6734 -1.5849  0.9191
52943SOL    HW264667   6.777   4.764  12.244  0.1507  1.0187 -1.9550
52944SOL     OW64668   1.914   0.932   0.473  0.2938 -0.3239  0.2593
52944SOL    HW164669   1.948   0.878   0.402 -0.0233 -1.7223  1.1352
52944SOL    HW264670   1.989   0.985   0.501  0.3755  0.3832 -1.2085
52945SOL     OW64671   7.122   6.757   2.834  0.3623  0.0465 -1.1481
52945SOL    HW164672   7.196   6.782   2.888  1.3710 -0.6951 -2.1484
52945SOL    HW264673   7.123   6.819   2.762 -0.2835  0.3255 -0.9229
52946SOL     OW64674   0.922  11.312   7.538  0.2112  0.1999  0.0017
52946SOL    HW164675   0.841  11.352   7.569  0.1089 -0.1111  0.1387
52946SOL    HW264676   0.909  11.218   7.550  0.5704  0.1434 -0.0270
52947SOL     OW64677   4.025   3.407   4.934  0.2271  0.5425 -0.1359
52947SOL    HW164678   3.953   3.414   4.872  1.1650  0.6981 -1.2314
52947SOL    HW264679   4.102   3.438   4.886  1.7615 -2.9211 -0.2717
52948SOL     OW64680   2.316   3.940   9.254  0.2914 -0.0380  0.6549
52948SOL    HW164681   2.314   3.864   9.196 -2.0742  0.2207  0.3088
52948SOL    HW264682   2.307   3.904   9.342  1.5410 -0.2733  0.7073
52949SOL     OW64683   3.821  10.827   2.523 -0.1955 -0.0892  0.2161
52949SOL    HW164684   3.880  10.811   2.449 -1.1207 -1.5700 -0.2549
52949SOL    HW264685   3.745  10.870   2.484 -0.1054  0.3672  0.5447
52950SOL     OW64686   2.316   5.951  11.889 -0.0605  0.5217  0.4354
52950SOL    HW164687   2.327   5.876  11.948  0.6483  0.1855 -0.1155
52950SOL    HW264688   2.390   6.009  11.909  0.1961  0.3945 -0.1404
52951SOL     OW64689  10.840   9.362   2.027 -0.1783 -0.7435  0.0462
52951SOL    HW164690  10.792   9.411   1.960  1.6439  0.5870 -0.3575
52951SOL    HW264691  10.910   9.318   1.979  0.0107 -1.3466  0.8446
52952SOL     OW64692   0.724   5.845   3.648 -0.0068  0.6800 -0.4652
52952SOL    HW164693   0.687   5.768   3.690  0.2783 -0.5175 -2.2948
52952SOL    HW264694   0.693   5.918   3.701 -1.8696 -0.5451  0.2424
52953SOL     OW64695  11.481   3.678   8.682 -0.1145 -0.0438 -0.0996
52953SOL    HW164696  11.430   3.665   8.603 -2.3582 -2.7872  1.6187
52953SOL    HW264697  11.425   3.732   8.738  0.3682 -0.2031  0.5466
52954SOL     OW64698  11.544   4.875   3.700 -0.1792 -0.3984 -0.6189
52954SOL    HW164699  11.456   4.911   3.692 -0.2344 -0.4342 -0.1910
52954SOL    HW264700  11.594   4.943   3.745 -0.3511 -0.9353  0.4397
52955SOL     OW64701   3.647   4.499   1.308  0.0041  0.2945  0.4599
52955SOL    HW164702   3.692   4.563   1.364 -0.7312  1.4910 -0.2697
52955SOL    HW264703   3.718   4.456   1.260  0.6466 -0.7203  2.2204
52956SOL     OW64704  10.411   5.277   3.539 -0.2228 -0.0458  0.2959
52956SOL    HW164705  10.347   5.334   3.495  0.2287  0.5729  0.4250
52956SOL    HW264706  10.496   5.319   3.523  0.2450 -1.2196 -0.4541
52957SOL     OW64707   0.872   8.977  11.432 -0.0672 -0.1947 -0.1787
52957SOL    HW164708   0.882   8.951  11.340  0.1693  1.4576 -0.6474
52957SOL    HW264709   0.961   9.002  11.459 -0.5515  1.7274 -0.2775
52958SOL     OW64710   3.853   2.573   4.299 -0.2026 -0.3447 -0.0542
52958SOL    HW164711   3.815   2.599   4.215  0.9775 -1.2263 -0.9077
52958SOL    HW264712   3.895   2.488   4.281  1.7969  0.3797  0.8736
52959SOL     OW64713  11.627  10.349   3.001  0.5093  0.2425  0.0172
52959SOL    HW164714  11.621  10.254   2.985  0.9036 -0.1302  1.8245
52959SOL    HW264715  11.537  10.377   3.016  0.3277  0.2835 -1.0543
52960SOL     OW64716   5.095  11.448  11.730  0.1584 -0.3277  0.3990
52960SOL    HW164717   5.174  11.400  11.757  0.3569  1.0373  2.5443
52960SOL    HW264718   5.026  11.414  11.787 -0.7140 -1.0593 -1.0319
52961SOL     OW64719  11.894   1.741   6.807  0.4055 -0.1973  0.3497
52961SOL    HW164720  11.883   1.754   6.901  0.3391  2.5621  0.0561
52961SOL    HW264721  11.982   1.706   6.797  0.1902 -1.1087  1.4441
52962SOL     OW64722  11.641  10.541   4.496 -1.0171  0.2104  0.4963
52962SOL    HW164723  11.581  10.616   4.490 -1.0029  0.3493  1.8172
52962SOL    HW264724  11.727  10.580   4.510 -0.3199  0.0669 -2.6380
52963SOL     OW64725   6.470   1.122   7.866 -0.1232 -0.4675  0.0675
52963SOL    HW164726   6.525   1.199   7.875  0.5560 -1.1833  3.0520
52963SOL    HW264727   6.389   1.154   7.826  1.0207  1.3054 -0.9119
52964SOL     OW64728   2.758   9.462   5.756  0.2719  0.0092  0.1744
52964SOL    HW164729   2.833   9.433   5.808  0.6180  1.4185  0.4887
52964SOL    HW264730   2.682   9.445   5.812  0.4549 -0.3891  0.3063
52965SOL     OW64731   0.756  11.962   5.479  0.6882 -0.0500  0.3743
52965SOL    HW164732   0.788  11.999   5.562  0.9027 -0.2960  0.4012
52965SOL    HW264733   0.742  11.869   5.498 -3.1855  0.5778  1.3289
52966SOL     OW64734   5.903   6.088   2.177  0.6283 -0.6039  0.0005
52966SOL    HW164735   5.855   6.045   2.248 -0.8373  0.0790 -0.5384
52966SOL    HW264736   5.863   6.175   2.171  2.2211  0.1357 -0.2145
52967SOL     OW64737   9.712  10.000   8.733  0.0121 -0.0972 -0.1840
52967SOL    HW164738   9.651  10.075   8.735 -1.2913 -1.0344 -1.7354
52967SOL    HW264739   9.793  10.034   8.770 -0.6713  1.9631 -0.4329
52968SOL     OW64740   2.742   9.109  10.187 -0.2875  0.0129 -0.4274
52968SOL    HW164741   2.737   9.187  10.241  0.1258 -0.4338  0.2659
52968SOL    HW264742   2.659   9.064  10.202  0.7737 -1.3473  1.7723
52969SOL     OW64743   9.865   9.370   5.172  0.0011 -0.8277  0.1615
52969SOL    HW164744   9.869   9.424   5.251 -0.4541 -0.9311  0.2561
52969SOL    HW264745   9.933   9.303   5.185  1.0818  0.1389 -0.2737
52970SOL     OW64746   4.324  10.130   2.338 -0.0423  0.1152  0.4867
52970SOL    HW164747   4.399  10.162   2.288 -0.3817  0.1567  0.0008
52970SOL    HW264748   4.354  10.131   2.429  1.2805 -1.9348  0.1176
52971SOL     OW64749   1.047   0.964  11.961 -0.0980  0.9188  0.1432
52971SOL    HW164750   1.133   0.985  11.999 -0.4279 -0.9244  2.0900
52971SOL    HW264751   1.065   0.889  11.904 -0.4668  0.1995  0.9550
52972SOL     OW64752   1.929   1.984   6.932  0.0032  0.6025 -0.1232
52972SOL    HW164753   1.946   1.918   6.865  1.7718  0.3909  0.5027
52972SOL    HW264754   1.844   1.959   6.968 -0.6825  0.3354 -1.8037
52973SOL     OW64755   4.185   5.702  10.913  0.1349  0.6240 -0.0294
52973SOL    HW164756   4.096   5.669  10.922  0.7250 -0.6721  1.4600
52973SOL    HW264757   4.182   5.756  10.834 -2.0999  1.1076  0.3128
52974SOL     OW64758   7.697   5.159   3.039 -0.3146 -0.3067  0.4525
52974SOL    HW164759   7.610   5.152   3.077 -0.9616 -0.8691 -1.0291
52974SOL    HW264760   7.688   5.118   2.952  1.1132  0.7282 -0.2225
52975SOL     OW64761   4.508  12.212   2.732  0.0599 -0.3369  0.0193
52975SOL    HW164762   4.465  12.284   2.778 -0.3065  0.4200 -1.4439
52975SOL    HW264763   4.596  12.245   2.713  0.1730 -0.5990  0.0886
52976SOL     OW64764   6.453  10.571   3.161 -0.3348  0.4021  0.0434
52976SOL    HW164765   6.359  10.582   3.176  0.0725  2.1135  1.7053
52976SOL    HW264766   6.479  10.650   3.115  0.2521 -0.2347 -0.7503
52977SOL     OW64767  12.127   4.434  11.422 -0.0749  0.0820 -0.0773
52977SOL    HW164768  12.144   4.385  11.503  1.5354 -1.6980 -1.4065
52977SOL    HW264769  12.210   4.476  11.401  0.0570 -0.9217 -1.6924
52978SOL     OW64770   2.131  10.939  10.897  0.3338 -0.0196 -0.2903
52978SOL    HW164771   2.208  10.932  10.840  0.2195 -1.0352 -0.3339
52978SOL    HW264772   2.092  11.023  10.873  1.4078  0.5085 -0.2853
52979SOL     OW64773   2.659   3.205   6.828  0.1095 -0.2281 -0.4715
52979SOL    HW164774   2.579   3.155   6.843 -0.0621  0.6203  1.8648
52979SOL    HW264775   2.689   3.178   6.741 -3.0054 -0.1406 -1.7028
52980SOL     OW64776   4.944   4.525   7.753 -0.3981 -0.3027  0.2037
52980SOL    HW164777   4.891   4.563   7.683  1.9893 -1.1148 -2.2686
52980SOL    HW264778   4.933   4.431   7.743 -0.1989 -0.4316  1.0944
52981SOL     OW64779   9.886   4.336   5.250  0.1712 -0.1178 -0.2493
52981SOL    HW164780   9.798   4.299   5.237 -0.0174  0.6918 -1.5469
52981SOL    HW264781   9.920   4.346   5.161  0.6203  1.8161  0.1112
52982SOL     OW64782   5.304  10.544   2.587 -0.1853 -0.0401 -0.2878
52982SOL    HW164783   5.343  10.506   2.508  0.7568  0.2045  0.0472
52982SOL    HW264784   5.373  10.540   2.653 -0.5802  0.7969  0.2003
52983SOL     OW64785   5.510   7.362   9.094  0.9261  0.1391  0.2542
52983SOL    HW164786   5.504   7.339   9.001  0.2683 -0.4756  0.4418
52983SOL    HW264787   5.603   7.356   9.114  0.9677 -0.6471 -0.1405
52984SOL     OW64788   4.351  12.025   0.639 -0.0174 -0.4438  0.0627
52984SOL    HW164789   4.430  11.971   0.636  0.1075 -0.2364 -0.5986
52984SOL    HW264790   4.285  11.968   0.679  0.5784 -0.4582  1.0594
52985SOL     OW64791   8.649   5.082   2.639  0.5856 -0.3046 -0.7582
52985SOL    HW164792   8.559   5.078   2.605 -0.4724  1.6074  1.5376
52985SOL    HW264793   8.653   5.010   2.703  0.3550  0.1586 -0.2114
52986SOL     OW64794   5.312   6.117   1.335 -0.6106 -0.9003  0.0031
52986SOL    HW164795   5.256   6.136   1.260 -1.4749 -2.5508  0.1885
52986SOL    HW264796   5.274   6.169   1.406  1.4037  2.2917 -1.0351
52987SOL     OW64797   5.113  12.155   8.854 -0.3806  0.5300  0.4186
52987SOL    HW164798   5.124  12.222   8.922  0.8544  1.2153 -0.4292
52987SOL    HW264799   5.191  12.101   8.862 -0.7216 -0.0041  0.1908
52988SOL     OW64800  10.724   3.952   7.821 -0.3023  0.3870  0.5332
52988SOL    HW164801  10.726   3.858   7.839  0.4780  0.3737  0.4353
52988SOL    HW264802  10.639   3.981   7.854 -0.2639 -0.2226  1.2020
52989SOL     OW64803   9.455   3.450   6.764  0.0619 -0.4665  0.2432
52989SOL    HW164804   9.400   3.514   6.809  0.5247  0.4021 -0.3794
52989SOL    HW264805   9.515   3.418   6.831 -0.9190 -1.1120  0.8279
52990SOL     OW64806   3.069   0.526   4.174  0.3045 -0.2752  0.3319
52990SOL    HW164807   3.018   0.583   4.232 -2.3674 -2.6324  0.5656
52990SOL    HW264808   3.106   0.460   4.233 -0.1066 -1.0940 -0.3013
52991SOL     OW64809   0.885   6.528   4.717 -0.7908  0.0321 -0.2610
52991SOL    HW164810   0.840   6.507   4.636  0.1063  0.0417 -0.7735
52991SOL    HW264811   0.925   6.446   4.745 -2.0050 -0.2450  0.7860
52992SOL     OW64812   7.632   2.242  11.002  0.1994  0.4582 -0.0547
52992SOL    HW164813   7.664   2.283  11.083  0.9005 -0.1469 -0.0260
52992SOL    HW264814   7.583   2.312  10.958  0.7314  1.1042  0.3671
52993SOL     OW64815   3.830   2.758   4.521  0.7624 -0.1701  0.1490
52993SOL    HW164816   3.909   2.812   4.526  0.1265  0.8536 -0.3931
52993SOL    HW264817   3.854   2.685   4.465  0.8689  1.0090 -1.4060
52994SOL     OW64818   7.669   5.028   2.776 -0.1192 -0.7215  0.5984
52994SOL    HW164819   7.747   5.005   2.725  0.5795  1.5907  0.4835
52994SOL    HW264820   7.609   5.064   2.712  0.0894  0.6330  1.1345
52995SOL     OW64821   4.425   0.371   4.436  0.2766 -0.3126 -0.4005
52995SOL    HW164822   4.514   0.350   4.408  0.4180  0.7968 -0.8688
52995SOL    HW264823   4.377   0.385   4.354  0.1416  0.8410 -0.1491
52996SOL     OW64824   0.242   7.183   3.518 -0.0432 -0.0458  0.4508
52996SOL    HW164825   0.184   7.177   3.593  1.4230 -0.7275  1.5981
52996SOL    HW264826   0.310   7.245   3.546  0.2181  0.1205 -0.5316
52997SOL     OW64827   8.169   9.762  10.957 -0.2421 -0.5525  0.6867
52997SOL    HW164828   8.209   9.743  10.871  0.2935  0.7050  0.6390
52997SOL    HW264829   8.185   9.683  11.008  4.3306  0.5075  1.3835
52998SOL     OW64830   2.957   6.426   1.050 -0.4496  0.0675  0.5538
52998SOL    HW164831   2.878   6.391   1.091 -1.0953 -0.6105 -1.1942
52998SOL    HW264832   2.955   6.520   1.069 -2.7913  0.4367 -1.1485
52999SOL     OW64833   0.885   6.651   9.470 -0.3488 -0.3271 -0.4246
52999SOL    HW164834   0.907   6.613   9.385 -0.5973  0.0219 -0.6469
52999SOL    HW264835   0.937   6.601   9.533 -0.2978 -0.7037 -0.7647
53000SOL     OW64836   3.565   6.271   2.084 -0.8204  0.0107  0.3521
53000SOL    HW164837   3.476   6.246   2.059  0.0404 -0.7738 -2.2152
53000SOL    HW264838   3.596   6.197   2.137 -0.8022 -1.0406 -1.0550
53001SOL     OW64839  11.688   7.111   7.201 -0.2518 -0.1053  0.3933
53001SOL    HW164840  11.599   7.137   7.179  0.5055  1.3249 -1.2602
53001SOL    HW264841  11.726   7.188   7.243  0.7838  0.0201 -0.7242
53002SOL     OW64842   1.874  11.176   1.829  0.9752 -0.1197  0.6433
53002SOL    HW164843   1.792  11.129   1.845  0.7985 -0.1136 -0.2123
53002SOL    HW264844   1.942  11.117   1.861  0.6288  0.0909  1.8466
53003SOL     OW64845   5.594   6.392   9.487  0.5201  0.1718  0.2010
53003SOL    HW164846   5.566   6.372   9.577  1.3577  0.7597  0.6110
53003SOL    HW264847   5.513   6.415   9.442  0.0892 -0.0792  0.8235
53004SOL     OW64848   6.997   9.207  11.382 -0.6276 -0.1332  0.3604
53004SOL    HW164849   6.950   9.162  11.312  0.3672  0.4922 -0.7276
53004SOL    HW264850   7.013   9.295  11.348 -0.0764  0.1599  1.3536
53005SOL     OW64851   2.902  10.773   4.963  0.0785  0.2816 -0.4912
53005SOL    HW164852   2.914  10.720   5.043  0.5938 -0.0393 -0.7722
53005SOL    HW264853   2.966  10.737   4.901  0.5850  1.3647 -0.6257
53006SOL     OW64854   9.236   9.665   0.402 -0.5611 -0.2495 -0.3162
53006SOL    HW164855   9.185   9.584   0.390 -1.4544  0.1063  0.8917
53006SOL    HW264856   9.288   9.649   0.481  2.0413 -0.9829 -2.0642
53007SOL     OW64857   9.198   0.580   1.795  0.0804  0.6704  0.4506
53007SOL    HW164858   9.174   0.672   1.783 -0.6348  0.3130 -1.0592
53007SOL    HW264859   9.226   0.575   1.887  1.3860  2.6520  0.2328
53008SOL     OW64860   4.672   3.981  11.050 -0.1496  0.2236  0.3618
53008SOL    HW164861   4.762   4.002  11.025 -0.0652 -1.4717 -0.9421
53008SOL    HW264862   4.679   3.903  11.105 -0.8442 -0.4059 -0.4105
53009SOL     OW64863   8.153   0.614  10.176 -0.0648  0.0251 -0.0828
53009SOL    HW164864   8.093   0.683  10.205  1.4973  0.9119  1.1860
53009SOL    HW264865   8.158   0.625  10.081 -1.8563 -0.0599 -0.2215
53010SOL     OW64866   6.289   3.505   5.818  0.4225  0.4856 -0.7363
53010SOL    HW164867   6.374   3.462   5.820 -0.3636 -1.1507 -0.4267
53010SOL    HW264868   6.265   3.505   5.725  0.8025  1.0635 -0.8386
53011SOL     OW64869   2.842   5.223   6.925 -0.0767 -0.9961 -0.3412
53011SOL    HW164870   2.906   5.194   6.860  0.6147 -0.1980 -0.0398
53011SOL    HW264871   2.769   5.257   6.874  0.4595 -0.3764 -0.7255
53012SOL     OW64872   8.568   7.462   8.700  0.4787  0.0914  0.1087
53012SOL    HW164873   8.618   7.384   8.724 -0.6768 -1.1581 -1.3800
53012SOL    HW264874   8.480   7.444   8.731 -0.2238 -0.0276 -1.8348
53013SOL     OW64875   5.116   5.074   1.677 -0.4205 -0.1892  0.2173
53013SOL    HW164876   5.062   5.108   1.607  1.0898  1.1773 -0.3653
53013SOL    HW264877   5.168   5.150   1.706  1.9151 -1.5905  0.0055
53014SOL     OW64878   4.184   7.650   7.219 -0.2691  0.7233  0.3282
53014SOL    HW164879   4.116   7.664   7.152  0.6293  0.8857 -0.5722
53014SOL    HW264880   4.167   7.562   7.252 -1.8869  1.3426  1.2744
53015SOL     OW64881   1.663  11.758   1.319  0.0903  0.6577  0.2913
53015SOL    HW164882   1.728  11.695   1.287  0.7766  1.1119  0.7538
53015SOL    HW264883   1.701  11.792   1.400 -0.6419  1.0827  0.4636
53016SOL     OW64884   1.797   6.080  10.744 -0.3363 -0.2893 -0.5632
53016SOL    HW164885   1.729   6.019  10.715 -2.3605  1.0647  0.9943
53016SOL    HW264886   1.794   6.152  10.680  0.4269 -0.7196 -1.0984
53017SOL     OW64887   4.813   9.201   2.155  0.4857 -0.6210  0.4390
53017SOL    HW164888   4.826   9.115   2.114 -0.0129 -0.3824 -0.2309
53017SOL    HW264889   4.728   9.195   2.197 -0.0466 -0.1064 -0.5332
53018SOL     OW64890  12.128  11.776  11.279 -0.2662  0.2715 -0.3351
53018SOL    HW164891  12.224  11.776  11.285 -0.2299  0.7875 -0.8184
53018SOL    HW264892  12.100  11.708  11.340  0.4029  0.2160 -0.0838
53019SOL     OW64893   7.437   3.396  10.106 -0.3190 -0.3043  0.1944
53019SOL    HW164894   7.369   3.329  10.117 -1.8478  0.8941 -1.3981
53019SOL    HW264895   7.431   3.422  10.014  0.4290  1.7959  0.6722
53020SOL     OW64896   6.627   4.205   5.034  0.0152 -0.0908 -0.4767
53020SOL    HW164897   6.602   4.233   5.122  0.4092 -1.4377  0.0949
53020SOL    HW264898   6.572   4.257   4.975 -0.0245  1.0564  0.5481
53021SOL     OW64899   2.200   6.190  10.151 -0.5137  0.3936  0.2943
53021SOL    HW164900   2.160   6.217  10.068 -1.1998 -0.7538  0.2384
53021SOL    HW264901   2.230   6.101  10.135  0.0022  0.4208  1.0711
53022SOL     OW64902   1.773   8.220   1.867  0.0247 -0.4893 -0.6382
53022SOL    HW164903   1.754   8.165   1.944  2.2348 -1.0720 -0.4406
53022SOL    HW264904   1.800   8.158   1.800  0.7971  0.2213 -0.9952
53023SOL     OW64905   1.131   0.073   9.680  0.0210 -0.3472 -0.1216
53023SOL    HW164906   1.116   0.167   9.670 -0.1650 -0.4219 -0.6038
53023SOL    HW264907   1.072   0.047   9.750  1.6975  0.2879  1.5949
53024SOL     OW64908   1.048  12.063   1.839  0.0265 -0.5021 -0.0713
53024SOL    HW164909   1.071  12.025   1.924  0.3944 -1.5471 -0.6175
53024SOL    HW264910   0.963  12.104   1.853 -0.0357 -0.8973  0.7415
53025SOL     OW64911   5.148   8.680   0.109  0.0738 -0.0985 -0.0193
53025SOL    HW164912   5.198   8.759   0.125  0.2617 -0.6406  2.5811
53025SOL    HW264913   5.101   8.697   0.027  1.0145  2.1880 -0.1569
53026SOL     OW64914   9.936   3.996   5.069 -0.0766  1.0383  0.7069
53026SOL    HW164915   9.846   4.027   5.062 -0.4115  0.1596  0.8868
53026SOL    HW264916   9.963   4.019   5.158 -1.3778 -1.7247  1.9767
53027SOL     OW64917   0.599  10.566   3.064  0.3263 -0.2046 -0.0032
53027SOL    HW164918   0.513  10.606   3.076 -0.1293 -0.8757 -0.9316
53027SOL    HW264919   0.582  10.488   3.011  1.6752  0.4475 -1.4632
53028SOL     OW64920   7.568   0.315   2.428  0.3498  0.0977  0.2521
53028SOL    HW164921   7.530   0.366   2.356  0.8258  0.0809 -0.0172
53028SOL    HW264922   7.523   0.347   2.506 -0.1051  0.1823 -0.0423
53029SOL     OW64923   9.960   4.722   6.215 -0.6910  0.2306 -0.1143
53029SOL    HW164924   9.943   4.787   6.147 -1.6144  1.5862  1.3319
53029SOL    HW264925  10.052   4.736   6.239 -0.1084 -0.8089 -1.5796
53030SOL     OW64926   0.241   6.945  10.633  0.1913  0.4030  0.0039
53030SOL    HW164927   0.158   6.898  10.638  0.6505 -0.4636 -0.1831
53030SOL    HW264928   0.241   6.984  10.545 -0.0684  0.5165  0.0521
53031SOL     OW64929   0.392   8.637  12.261 -0.4406 -0.5311 -0.1875
53031SOL    HW164930   0.337   8.568  12.299 -0.5510 -0.6983 -0.6470
53031SOL    HW264931   0.330   8.696  12.218 -0.6983  1.5990  2.7867
53032SOL     OW64932   5.708   6.113   7.424  0.4899  0.1112  0.5039
53032SOL    HW164933   5.626   6.162   7.432  0.4523  0.5621 -1.8731
53032SOL    HW264934   5.708   6.054   7.500 -0.5888  2.1119  2.1731
53033SOL     OW64935   7.946   4.647   2.351 -0.3853 -0.0980 -0.1931
53033SOL    HW164936   7.869   4.601   2.316 -0.1532 -0.4157 -0.2851
53033SOL    HW264937   7.957   4.611   2.439 -0.9123  0.6333  0.1878
53034SOL     OW64938   2.246   9.766   8.009  0.6598 -0.4875 -0.3026
53034SOL    HW164939   2.295   9.832   7.959 -1.9945 -0.5036 -3.1644
53034SOL    HW264940   2.273   9.683   7.971  0.2844 -0.6808 -0.1438
53035SOL     OW64941   1.894  10.061   5.435  0.3513  0.0530  0.2022
53035SOL    HW164942   1.971  10.110   5.408  1.6561 -0.9872  1.8672
53035SOL    HW264943   1.841  10.124   5.483  0.6172  0.5259 -0.1160
53036SOL     OW64944  10.024   8.956   1.170  0.0529  0.0931  0.1833
53036SOL    HW164945  10.079   8.904   1.229  0.1155 -0.1398 -0.0746
53036SOL    HW264946   9.996   8.893   1.103  0.3894  0.4631 -0.3119
53037SOL     OW64947   3.574   4.142   3.962  0.4895  0.0726 -0.6217
53037SOL    HW164948   3.584   4.214   3.900 -2.0716 -0.4032 -1.7430
53037SOL    HW264949   3.544   4.069   3.909  3.3551 -2.0191  0.4239
53038SOL     OW64950  10.369  10.767   8.938 -0.1161  0.6054  0.5102
53038SOL    HW164951  10.330  10.753   8.852 -1.6172  1.6288  0.9754
53038SOL    HW264952  10.403  10.681   8.963 -3.4949 -0.8426  0.6941
53039SOL     OW64953   8.537   1.660   6.974  0.2791 -0.5984  0.0636
53039SOL    HW164954   8.531   1.744   7.019  0.3334 -0.9573  0.7564
53039SOL    HW264955   8.517   1.595   7.042  3.0661 -1.3342  0.3218
53040SOL     OW64956  12.005   6.213  11.743 -0.0337  0.6398 -0.0779
53040SOL    HW164957  11.931   6.269  11.764 -0.7076 -0.1584 -0.2761
53040SOL    HW264958  12.081   6.271  11.750 -0.6178  1.3621  0.5792
53041SOL     OW64959   3.505   6.340   7.118  0.0340 -0.0200  0.1601
53041SOL    HW164960   3.541   6.259   7.153  0.1790 -0.4299 -0.9257
53041SOL    HW264961   3.521   6.336   7.024  0.7525  1.6146  0.1696
53042SOL     OW64962   5.855   1.640   3.507 -0.9564 -0.0029  0.6133
53042SOL    HW164963   5.943   1.638   3.544  0.7584 -0.4895 -3.0596
53042SOL    HW264964   5.833   1.733   3.504 -0.0704  0.2143  0.5597
53043SOL     OW64965  11.705  11.236  10.073  0.3845 -0.2725  0.6428
53043SOL    HW164966  11.783  11.288  10.060  0.6689 -0.6968  0.6245
53043SOL    HW264967  11.643  11.295  10.115 -0.6095  1.2196 -2.5855
53044SOL     OW64968   4.923   6.684   0.750  0.0241  0.1587 -0.2697
53044SOL    HW164969   4.957   6.756   0.804  1.2512 -0.7379  0.2227
53044SOL    HW264970   4.851   6.648   0.801  0.3104  0.1636  0.1427
53045SOL     OW64971   4.295  10.355   5.222  0.7801  0.3421 -0.1419
53045SOL    HW164972   4.232  10.373   5.292 -0.3215  0.4525 -1.1242
53045SOL    HW264973   4.300  10.260   5.218 -0.9339  0.2419 -1.3746
53046SOL     OW64974   1.626   9.595   6.816 -0.2854  0.7099  0.1743
53046SOL    HW164975   1.579   9.667   6.858 -1.3990  0.2154 -0.2001
53046SOL    HW264976   1.578   9.579   6.735  1.0504  0.7612 -0.6533
53047SOL     OW64977   4.229   1.490   8.109  0.2920  0.2289 -0.0372
53047SOL    HW164978   4.210   1.537   8.027  0.1956  0.6123  0.2027
53047SOL    HW264979   4.319   1.515   8.130  0.6784 -0.6786 -0.5629
53048SOL     OW64980  10.466  11.872   6.854 -0.0340 -0.2354  0.5377
53048SOL    HW164981  10.419  11.828   6.783 -1.1301 -2.4455  2.5066
53048SOL    HW264982  10.400  11.929   6.894  0.6646  1.2430 -0.3349
53049SOL     OW64983   6.303  10.159   5.978 -0.1958  0.1635  0.2721
53049SOL    HW164984   6.286  10.204   5.895  2.7214 -0.3818 -0.7077
53049SOL    HW264985   6.263  10.216   6.044  0.1747  2.2821 -1.2255
53050SOL     OW64986   7.829   7.013   8.554 -0.1260  0.3839  0.2750
53050SOL    HW164987   7.736   7.027   8.571 -1.2844 -2.5345 -2.4901
53050SOL    HW264988   7.855   6.947   8.619 -1.1488 -1.6276 -1.2444
53051SOL     OW64989   1.446   0.807  11.634 -0.2309 -0.0240 -0.0820
53051SOL    HW164990   1.393   0.886  11.650 -0.5550 -0.6681  2.3858
53051SOL    HW264991   1.382   0.737  11.625  0.1275 -0.3879  0.1851
53052SOL     OW64992  10.636   1.162   6.108 -0.0866 -0.0144 -0.4340
53052SOL    HW164993  10.681   1.214   6.042 -0.1219 -0.1400 -0.5586
53052SOL    HW264994  10.689   1.172   6.187  0.0152  0.0491 -0.5105
53053SOL     OW64995  11.360   6.758   0.229 -1.0215  0.0624  0.1689
53053SOL    HW164996  11.277   6.801   0.208 -1.9303 -0.9748  1.4737
53053SOL    HW264997  11.377   6.779   0.321 -0.9010 -1.3738  0.5099
53054SOL     OW64998   9.483  10.588   6.364  0.0199  0.0409 -0.0150
53054SOL    HW164999   9.508  10.668   6.411 -0.5515  0.2499 -0.0524
53054SOL    HW265000   9.436  10.620   6.287 -0.0704 -0.3300 -0.1157
53055SOL     OW65001   9.790   3.262   5.322 -0.1421  0.0988 -0.2365
53055SOL    HW165002   9.810   3.170   5.308 -0.8251  0.0571 -1.0016
53055SOL    HW265003   9.876   3.304   5.331  0.1644 -0.6205  0.2431
53056SOL     OW65004   4.305   5.259   5.806  0.1412 -0.1968 -0.3029
53056SOL    HW165005   4.271   5.233   5.720  0.1906 -0.4214 -0.2549
53056SOL    HW265006   4.266   5.346   5.821 -0.7757 -0.6311 -0.0559
53057SOL     OW65007   2.352   8.140   7.932 -0.6090 -0.0619 -0.0100
53057SOL    HW165008   2.389   8.208   7.988 -0.0607  0.0652 -0.5199
53057SOL    HW265009   2.374   8.166   7.843 -0.6044 -0.7796 -0.2294
53058SOL     OW65010   7.538   0.268   2.798 -0.2976  0.4732  0.3062
53058SOL    HW165011   7.503   0.182   2.822  2.3355 -0.9036 -0.3986
53058SOL    HW265012   7.473   0.304   2.739 -1.3055 -1.2157  0.3148
53059SOL     OW65013   3.139   6.399   4.450  0.0639 -0.6773 -0.2709
53059SOL    HW165014   3.154   6.340   4.377  0.6833 -0.4024 -0.3741
53059SOL    HW265015   3.089   6.347   4.514 -0.6278 -0.8626 -0.9478
53060SOL     OW65016   2.907  11.161   0.000 -0.1982 -0.8963  0.2899
53060SOL    HW165017   2.890  11.093   0.065 -2.7512 -0.1861  0.4797
53060SOL    HW265018   2.938  11.236   0.052  0.9033 -1.3368  0.2840
53061SOL     OW65019  10.021   0.108   6.953 -0.1905  0.4473 -0.3081
53061SOL    HW165020   9.961   0.182   6.943  1.6109  2.0496  0.2554
53061SOL    HW265021  10.108   0.145   6.938  0.7486 -1.6378 -0.3169
53062SOL     OW65022   7.991   2.394   1.454 -0.0941 -0.3126  0.0166
53062SOL    HW165023   7.919   2.381   1.516 -1.1820  0.8667 -0.9529
53062SOL    HW265024   8.070   2.387   1.508 -0.6762 -4.5376  0.6843
53063SOL     OW65025   9.757   4.027   7.815  0.8215  0.1870  0.2391
53063SOL    HW165026   9.819   4.018   7.742 -0.1410  0.6931 -0.6783
53063SOL    HW265027   9.764   3.945   7.863  1.1624 -0.3465 -0.6910
53064SOL     OW65028   4.953   9.116   5.666 -0.0266 -0.3580  0.3544
53064SOL    HW165029   5.035   9.067   5.676 -0.1371 -0.6876 -0.2361
53064SOL    HW265030   4.939   9.118   5.571 -1.1719 -1.1067  0.4848
53065SOL     OW65031   6.539   0.877  10.360 -0.4734 -0.3041  0.4568
53065SOL    HW165032   6.546   0.798  10.413 -0.6128  0.0452  1.0048
53065SOL    HW265033   6.480   0.853  10.289 -0.5318 -0.6810  0.6306
53066SOL     OW65034  10.067   2.113   1.529 -0.0365  0.4087 -0.1063
53066SOL    HW165035  10.022   2.148   1.452  0.7365 -0.6103 -1.0490
53066SOL    HW265036  10.129   2.181   1.554  0.8391  0.0994 -1.3821
53067SOL     OW65037  10.739  11.343   6.729 -0.2555 -0.3171  0.1548
53067SOL    HW165038  10.710  11.268   6.677 -2.3154  1.2964 -1.1918
53067SOL    HW265039  10.676  11.412   6.709  2.6768  2.4884 -0.3767
53068SOL     OW65040   0.425   4.209   3.162 -0.7699  0.0323  0.8582
53068SOL    HW165041   0.334   4.183   3.177 -1.4767  1.7981  0.0385
53068SOL    HW265042   0.474   4.171   3.235 -1.5798 -3.5936 -0.3071
53069SOL     OW65043   4.020   1.847   0.944 -0.3831 -0.4721 -0.0604
53069SOL    HW165044   4.032   1.910   0.872 -0.4139  0.0141  0.3569
53069SOL    HW265045   3.954   1.887   1.000 -0.0386 -0.6415  0.4706
53070SOL     OW65046   2.072  11.335   8.226  0.3730 -0.1154 -0.0824
53070SOL    HW165047   2.137  11.274   8.191  0.4284 -0.2875  0.3088
53070SOL    HW265048   2.087  11.334   8.321  0.7210  0.9107 -0.1151
53071SOL     OW65049  10.375  10.899   1.785  0.5561  0.3271 -0.1483
53071SOL    HW165050  10.444  10.864   1.729  0.1183 -0.2921 -0.3149
53071SOL    HW265051  10.361  10.830   1.850 -0.7855 -0.1230 -0.8740
53072SOL     OW65052   8.619   6.744   0.052 -0.2116 -0.2419 -0.1520
53072SOL    HW165053   8.545   6.687   0.032 -0.2356 -1.0920  2.1365
53072SOL    HW265054   8.582   6.814   0.106  0.4809 -0.1257  0.1802
53073SOL     OW65055   4.150   2.578   6.444 -0.7025 -0.1904  0.0544
53073SOL    HW165056   4.147   2.483   6.458 -0.6323  0.0143  1.5357
53073SOL    HW265057   4.203   2.588   6.365  0.9975 -1.2965  0.9832
53074SOL     OW65058   3.791  11.639  11.811 -0.0344 -0.5444 -0.0298
53074SOL    HW165059   3.699  11.654  11.831 -0.0899 -1.1079  0.1508
53074SOL    HW265060   3.838  11.700  11.867 -0.2520 -1.1345  0.8133
53075SOL     OW65061   9.655  11.978  10.116  0.2769  0.1140  0.4040
53075SOL    HW165062   9.725  12.033  10.080  1.7902 -2.0538 -0.1737
53075SOL    HW265063   9.693  11.939  10.195 -0.2087 -1.1430  0.0484
53076SOL     OW65064   8.050   4.791   8.148  0.0103 -0.1572 -0.2592
53076SOL    HW165065   8.048   4.703   8.111  0.3090  0.0975 -0.8905
53076SOL    HW265066   7.983   4.839   8.100  0.6103  0.2580 -0.6793
53077SOL     OW65067   3.813   1.980   2.220 -0.7762 -0.7737 -0.1972
53077SOL    HW165068   3.890   1.929   2.196 -0.0299 -0.4686  1.4283
53077SOL    HW265069   3.785   2.021   2.138  1.5017  0.0680 -0.6176
53078SOL     OW65070   6.256  10.206   4.346  0.0385 -0.1774  0.1221
53078SOL    HW165071   6.236  10.292   4.310 -0.3492 -0.3659 -0.1247
53078SOL    HW265072   6.200  10.199   4.423  0.7712  0.1722  0.7045
53079SOL     OW65073   2.786   2.428   5.398 -0.3009 -0.2266  0.3473
53079SOL    HW165074   2.722   2.430   5.327  0.8324 -0.0308 -0.6877
53079SOL    HW265075   2.853   2.492   5.373 -0.0512  0.1214  1.7716
53080SOL     OW65076   8.607  11.433   2.983  0.2615  0.2408 -0.2304
53080SOL    HW165077   8.651  11.463   3.062 -0.3622 -0.4197  0.3827
53080SOL    HW265078   8.669  11.373   2.942 -0.8275 -2.5131  1.8209
53081SOL     OW65079   2.859   7.584   1.087  0.5483  0.1461  0.0267
53081SOL    HW165080   2.776   7.551   1.052  0.2332 -0.0839  0.9679
53081SOL    HW265081   2.923   7.516   1.065  0.1512 -0.4906  0.8020
53082SOL     OW65082   2.778   2.779  10.622  0.4126  0.3830  0.5270
53082SOL    HW165083   2.793   2.840  10.694  0.3911 -1.0505  1.8115
53082SOL    HW265084   2.866   2.749  10.597  0.3251 -0.8817  1.6027
53083SOL     OW65085  10.341   9.832   0.803  0.4354 -0.0091  0.1924
53083SOL    HW165086  10.314   9.771   0.871 -0.6817  1.8562  1.4908
53083SOL    HW265087  10.379   9.776   0.735 -0.0308 -2.0777  1.5446
53084SOL     OW65088   4.926   1.959   4.070  0.6232 -0.6933 -0.4634
53084SOL    HW165089   4.943   1.885   4.129 -3.0632 -1.7306 -0.4621
53084SOL    HW265090   4.974   1.937   3.990  0.7165 -2.3968  0.0186
53085SOL     OW65091   1.987  12.192   2.718  0.0592  0.1674  0.3627
53085SOL    HW165092   1.943  12.118   2.759  0.9459 -1.5933 -1.6915
53085SOL    HW265093   2.079  12.184   2.743  0.1047  0.8010  0.4306
53086SOL     OW65094   7.156   8.200   6.568  0.2000  0.0659  0.5760
53086SOL    HW165095   7.238   8.241   6.598  0.6419  0.9418 -1.6316
53086SOL    HW265096   7.090   8.267   6.581  0.2080  0.0930  0.4719
53087SOL     OW65097   1.268   6.375   4.813  0.1444 -0.5001  0.8320
53087SOL    HW165098   1.352   6.331   4.826  0.4741 -0.1363 -0.0037
53087SOL    HW265099   1.291   6.463   4.783 -0.5193 -1.0314 -1.3974
53088SOL     OW65100   0.014   6.572   6.897  0.0546  0.1788 -0.7707
53088SOL    HW165101  -0.061   6.609   6.850 -0.2130 -0.7048 -1.0473
53088SOL    HW265102  -0.020   6.552   6.984  0.0011 -0.1199 -0.8609
53089SOL     OW65103   4.293   8.363   0.690 -0.4323  0.1754  0.4635
53089SOL    HW165104   4.312   8.427   0.622  2.8564  0.7766  1.7297
53089SOL    HW265105   4.260   8.286   0.644 -1.8295  1.7843 -1.3590
53090SOL     OW65106   3.457   6.247   7.811 -0.3548  0.3219 -0.4796
53090SOL    HW165107   3.509   6.313   7.765  0.8812  0.7171  1.3914
53090SOL    HW265108   3.521   6.187   7.849 -1.3337 -0.1621  0.4609
53091SOL     OW65109   0.488   3.159   4.525  0.2960 -0.5280  0.4815
53091SOL    HW165110   0.548   3.179   4.453 -0.5484 -0.8435 -0.3266
53091SOL    HW265111   0.483   3.241   4.575  0.4593 -0.1276 -0.1411
53092SOL     OW65112   6.450   4.156   9.574  0.3378 -0.3739 -0.1503
53092SOL    HW165113   6.433   4.180   9.483 -0.0762 -1.5249 -0.3850
53092SOL    HW265114   6.511   4.084   9.570  0.7408 -0.0818  0.5134
53093SOL     OW65115   6.938   0.402   7.706  0.1911 -0.3910  0.1423
53093SOL    HW165116   6.951   0.485   7.752 -1.1865  0.2178 -0.5290
53093SOL    HW265117   6.925   0.338   7.775 -2.3694  0.5968  0.6742
53094SOL     OW65118  12.218  11.465  11.033 -0.0195 -0.2282 -0.0900
53094SOL    HW165119  12.215  11.370  11.018  0.1927 -0.0281 -1.4636
53094SOL    HW265120  12.308  11.482  11.061 -0.5214 -0.6553  1.9512
53095SOL     OW65121  11.172   2.445   9.998 -0.0758 -0.5156  0.0151
53095SOL    HW165122  11.189   2.526   9.949 -3.2703  1.1453  1.3576
53095SOL    HW265123  11.101   2.404   9.950  0.9080 -2.1443 -0.1161
53096SOL     OW65124   2.483   8.403   6.558 -0.3279 -0.6769  0.3278
53096SOL    HW165125   2.428   8.459   6.503  1.5965  0.3664 -0.6360
53096SOL    HW265126   2.483   8.318   6.513 -1.9002 -0.9947  0.8792
53097SOL     OW65127   4.929  10.357   2.537 -0.3275 -0.6635  0.0989
53097SOL    HW165128   4.912  10.263   2.532 -0.4847 -0.6969  1.0614
53097SOL    HW265129   4.890  10.393   2.457  2.2359 -1.7491 -1.8081
53098SOL     OW65130   7.583   9.577   7.218 -0.4472 -0.0014  0.5210
53098SOL    HW165131   7.570   9.526   7.297 -1.7977  0.5823  0.7075
53098SOL    HW265132   7.608   9.664   7.249 -0.0683 -0.0223  0.2774
53099SOL     OW65133  11.209   3.008   3.570  0.1942 -0.5305  0.6008
53099SOL    HW165134  11.121   2.971   3.577 -0.4468  0.4070 -1.6011
53099SOL    HW265135  11.201   3.095   3.611  0.2921 -0.7128  1.0133
53100SOL     OW65136  11.285   0.430   9.714 -0.0721 -0.7229 -0.0743
53100SOL    HW165137  11.201   0.464   9.682  0.1007 -1.6377 -1.6343
53100SOL    HW265138  11.281   0.336   9.696  1.4323 -0.7154 -0.5753
53101SOL     OW65139   9.371   0.076  10.304 -0.1477  1.2768 -0.0520
53101SOL    HW165140   9.337   0.030  10.380 -1.1474  2.9213  0.5330
53101SOL    HW265141   9.450   0.027  10.280 -0.6915 -0.1983  1.0540
53102SOL     OW65142   4.160   2.783   0.478  0.6316 -0.0183  0.0173
53102SOL    HW165143   4.153   2.770   0.383  0.0479 -3.0506  0.3661
53102SOL    HW265144   4.251   2.762   0.498  0.5925 -0.0000  0.2152
53103SOL     OW65145   2.652  11.987   3.634 -0.8568  0.0287  0.0051
53103SOL    HW165146   2.695  11.966   3.551 -0.1965  1.3074 -0.0078
53103SOL    HW265147   2.561  12.003   3.610 -0.4925  1.3000 -0.6694
53104SOL     OW65148  10.120   4.029   1.281 -0.2328 -0.0186  0.1279
53104SOL    HW165149  10.180   3.974   1.231 -0.8265 -1.2823  0.7449
53104SOL    HW265150  10.033   3.998   1.255 -0.7336  2.5706 -1.6604
53105SOL     OW65151   1.522   1.408   9.904 -0.4975  0.4070 -0.5246
53105SOL    HW165152   1.578   1.335   9.931 -1.6666 -0.7479 -1.1178
53105SOL    HW265153   1.584   1.478   9.882  0.6979 -0.6510 -0.6764
53106SOL     OW65154   5.718  11.670   4.086  0.4809 -0.7712  0.4620
53106SOL    HW165155   5.685  11.698   4.001 -1.0172 -1.7585  0.6901
53106SOL    HW265156   5.775  11.741   4.114 -1.4717  1.0489  0.0449
53107SOL     OW65157   2.565   7.661   2.954 -0.0200  0.4675  0.3479
53107SOL    HW165158   2.568   7.587   2.893 -0.9694  0.7088 -0.0136
53107SOL    HW265159   2.572   7.620   3.040  1.9390  0.1740  0.0828
53108SOL     OW65160   8.444   0.654   8.673  0.6466 -0.1351  0.1470
53108SOL    HW165161   8.425   0.608   8.755 -2.0079  2.7540  1.3721
53108SOL    HW265162   8.369   0.635   8.617  1.7364 -0.9054 -1.0849
53109SOL     OW65163   1.588   0.554   0.377 -0.3476  0.3263 -0.0822
53109SOL    HW165164   1.575   0.576   0.469 -0.3976  2.6610 -0.5870
53109SOL    HW265165   1.642   0.475   0.379  2.0666  1.8713  1.9909
53110SOL     OW65166   3.767   0.250   3.486 -0.0644 -0.4690 -0.8480
53110SOL    HW165167   3.827   0.212   3.422  0.2848  0.3523 -1.0294
53110SOL    HW265168   3.680   0.223   3.457  0.2718 -3.2195  0.4455
53111SOL     OW65169   4.994   3.236   0.025 -0.1218  0.2700 -0.1188
53111SOL    HW165170   4.985   3.312  -0.032  0.0849  0.1545 -0.3090
53111SOL    HW265171   5.072   3.191  -0.008 -0.3438 -0.1170 -0.1155
53112SOL     OW65172   7.966   9.151  10.514 -0.2626 -0.2640  0.1030
53112SOL    HW165173   7.979   9.171  10.421 -1.5042  1.5060  0.2718
53112SOL    HW265174   7.976   9.056  10.519  1.3416 -0.2500 -1.5577
53113SOL     OW65175   8.180   0.299  10.948  0.1236 -0.1009  0.2876
53113SOL    HW165176   8.265   0.327  10.982 -0.9187  1.7074  1.5758
53113SOL    HW265177   8.122   0.300  11.024 -2.2172  3.6388 -1.2969
53114SOL     OW65178   3.543   8.251   1.533 -0.4883  0.5102 -0.1114
53114SOL    HW165179   3.505   8.184   1.591  1.2072 -0.5022 -0.0846
53114SOL    HW265180   3.531   8.215   1.445  0.7723 -0.0630 -0.0727
53115SOL     OW65181   2.711   0.925   1.629 -0.1101  0.0461 -0.7770
53115SOL    HW165182   2.672   0.841   1.607  1.6709 -0.7257 -1.2204
53115SOL    HW265183   2.766   0.906   1.706 -1.2208  1.2725  0.3720
53116SOL     OW65184  11.161  11.697  11.034  1.0281  0.3787 -0.5263
53116SOL    HW165185  11.106  11.624  11.007  0.8779 -0.4249  1.6930
53116SOL    HW265186  11.193  11.735  10.952  0.6290 -1.7934 -1.7736
53117SOL     OW65187   0.836   5.979   1.692 -0.0943 -0.2376  0.2020
53117SOL    HW165188   0.792   6.064   1.683 -0.1257 -0.3930 -1.1907
53117SOL    HW265189   0.927   5.997   1.667  0.1108 -0.4359  0.7776
53118SOL     OW65190   7.590   9.314   7.802  0.1296  0.2756  0.0285
53118SOL    HW165191   7.512   9.320   7.857  0.3241 -1.0844  0.4832
53118SOL    HW265192   7.625   9.227   7.819 -0.3494 -0.6267 -2.9447
53119SOL     OW65193   6.135   5.372   3.429 -0.2946 -0.3364  0.4695
53119SOL    HW165194   6.125   5.442   3.365 -0.0295  0.0763  0.8815
53119SOL    HW265195   6.160   5.416   3.510  2.1544 -1.0772  0.1955
53120SOL     OW65196  11.053   1.459   5.361  0.1710 -0.6167 -0.4725
53120SOL    HW165197  11.023   1.488   5.447  0.9712 -0.9664 -0.0659
53120SOL    HW265198  11.076   1.367   5.373 -2.2942 -1.5086 -1.7301
53121SOL     OW65199  10.835  10.363   7.697  0.4173  0.3874  0.3379
53121SOL    HW165200  10.774  10.370   7.624  0.0621  1.1723  0.7083
53121SOL    HW265201  10.919  10.391   7.661  0.9975 -2.2972 -0.6507
53122SOL     OW65202  11.679   2.626   9.410 -0.2089  0.0948 -0.0909
53122SOL    HW165203  11.694   2.537   9.442  0.2454  0.3700  0.4838
53122SOL    HW265204  11.737   2.680   9.463  0.8453  0.5323 -1.6580
53123SOL     OW65205   6.043   1.304   6.936  0.3385  0.2320  0.7880
53123SOL    HW165206   6.081   1.279   7.020 -0.7608  1.0207  1.5392
53123SOL    HW265207   6.118   1.332   6.883  1.1716 -1.2650  1.1079
53124SOL     OW65208   0.568   5.474   7.631  0.1266 -0.1614  0.7922
53124SOL    HW165209   0.606   5.390   7.657 -0.4052 -1.1489 -1.3989
53124SOL    HW265210   0.545   5.516   7.714  0.0886 -2.3077  1.9605
53125SOL     OW65211   6.863   7.471   6.267 -0.0354  0.1958 -0.2472
53125SOL    HW165212   6.863   7.441   6.358  0.3714  1.8610  0.3269
53125SOL    HW265213   6.795   7.537   6.263  1.4767  1.8138 -0.5354
53126SOL     OW65214   8.958   6.561   1.576 -0.1876 -0.4195 -0.4502
53126SOL    HW165215   8.906   6.486   1.604  1.2924 -1.5925 -0.7153
53126SOL    HW265216   9.041   6.552   1.623 -0.3357  1.6534  0.3056
53127SOL     OW65217   7.225   5.132   2.002 -0.5066  0.1280  0.1190
53127SOL    HW165218   7.178   5.078   2.067  1.9045 -0.9061  1.1072
53127SOL    HW265219   7.272   5.197   2.054  1.4128 -0.6728 -0.5453
53128SOL     OW65220   3.639   2.237   3.019  0.0247 -0.0527 -0.1419
53128SOL    HW165221   3.635   2.158   3.074  2.0369 -1.3158 -1.6709
53128SOL    HW265222   3.719   2.281   3.045 -1.1792  1.6857  0.8318
53129SOL     OW65223   8.294  11.453   1.718 -0.0048  0.2993  0.2507
53129SOL    HW165224   8.337  11.378   1.678  0.9242 -0.1510  1.9930
53129SOL    HW265225   8.297  11.521   1.651  1.6124 -0.3753 -0.4170
53130SOL     OW65226   2.424   9.996   4.329 -0.1363  0.0278 -0.2437
53130SOL    HW165227   2.498  10.031   4.378 -1.4880 -0.6630  2.4910
53130SOL    HW265228   2.393  10.070   4.277  1.5712  0.7083 -0.3674
53131SOL     OW65229   8.498   7.615   9.913  0.5633  0.1844  0.2766
53131SOL    HW165230   8.417   7.564   9.908  0.3540  0.4186  1.1026
53131SOL    HW265231   8.483   7.678   9.983  1.6705 -0.1569  0.8483
53132SOL     OW65232   9.022   1.206   7.826  0.2854  0.3817 -0.3181
53132SOL    HW165233   9.043   1.181   7.915  2.1749 -0.3370 -0.9275
53132SOL    HW265234   9.062   1.139   7.771  0.0292  1.3360 -1.7416
53133SOL     OW65235   6.902   9.515   3.962 -0.3191  0.5261  0.2609
53133SOL    HW165236   6.819   9.557   3.938  0.2541  1.1624 -0.6932
53133SOL    HW265237   6.902   9.433   3.914 -0.4325  0.4930  0.3188
53134SOL     OW65238   0.373   3.336   0.730 -0.2608  0.0716  0.0449
53134SOL    HW165239   0.377   3.259   0.673  0.8696  0.5055 -0.4920
53134SOL    HW265240   0.289   3.328   0.774  0.4254 -2.2472  1.0965
53135SOL     OW65241  11.298   6.250   6.157 -0.4421  0.0473 -0.0993
53135SOL    HW165242  11.361   6.298   6.103 -0.6853  0.2790 -0.1836
53135SOL    HW265243  11.270   6.315   6.222 -0.4920 -0.0943  0.0190
53136SOL     OW65244   9.446   0.144   5.230 -0.2485  0.2977 -0.0279
53136SOL    HW165245   9.540   0.151   5.242  0.0472 -2.1510 -0.2689
53136SOL    HW265246   9.432   0.159   5.137  0.5823 -3.4576 -0.9348
53137SOL     OW65247  11.616   0.665   7.556 -0.4425  0.4089 -0.1939
53137SOL    HW165248  11.613   0.594   7.492 -0.3157  0.4252 -0.2167
53137SOL    HW265249  11.702   0.659   7.596 -1.4543 -1.3533  1.9563
53138SOL     OW65250   6.323  10.252   6.821 -0.5780  0.6686  0.4387
53138SOL    HW165251   6.229  10.254   6.803 -0.1334 -1.0347 -2.7208
53138SOL    HW265252   6.340  10.163   6.853 -0.0001  0.9274  0.8776
53139SOL     OW65253  11.449   1.938   6.449  0.2286 -0.3848 -0.4320
53139SOL    HW165254  11.402   2.021   6.452  1.6233  0.4322  2.2275
53139SOL    HW265255  11.383   1.873   6.474 -0.4762  0.1591 -0.8476
53140SOL     OW65256   3.308   2.452  10.342  0.1650  0.6126 -0.2989
53140SOL    HW165257   3.322   2.541  10.309 -1.0347  0.8578 -0.1794
53140SOL    HW265258   3.370   2.444  10.415  0.8258  1.0633 -0.7938
53141SOL     OW65259   8.771  10.164   7.026 -0.2430  0.4237  0.2493
53141SOL    HW165260   8.808  10.196   7.108  1.1186 -1.4654  0.4368
53141SOL    HW265261   8.831  10.197   6.959  0.2959 -0.4084  0.3063
53142SOL     OW65262  10.839   7.062   4.839 -0.2922 -0.1543 -0.3508
53142SOL    HW165263  10.770   7.123   4.810 -1.0192 -1.7225 -2.1120
53142SOL    HW265264  10.911   7.078   4.779 -0.8855 -1.7303 -1.5225
53143SOL     OW65265  10.238   9.801  11.923  0.2534 -0.2070  0.5456
53143SOL    HW165266  10.176   9.873  11.931 -1.1854 -1.3426  0.0464
53143SOL    HW265267  10.191   9.725  11.957  1.9667 -0.8236  1.7077
53144SOL     OW65268   2.667  10.371   0.702  0.0360  0.5016  0.3879
53144SOL    HW165269   2.686  10.402   0.790  1.6906 -0.2904  0.3429
53144SOL    HW265270   2.751  10.372   0.657 -0.8128  1.0998 -1.2716
53145SOL     OW65271   0.496   8.636   1.860 -0.2552  0.1647 -0.4687
53145SOL    HW165272   0.561   8.594   1.917 -1.1635  0.2948  0.7096
53145SOL    HW265273   0.546   8.701   1.810  0.8331 -1.0097 -0.9482
53146SOL     OW65274   3.391   2.196   8.483  0.1696 -0.7248 -0.1100
53146SOL    HW165275   3.423   2.238   8.403 -0.2695  0.2168  0.2028
53146SOL    HW265276   3.298   2.180   8.467  0.4207 -2.0491 -0.4122
53147SOL     OW65277   6.643   5.650   7.379  0.4368 -0.4935  0.0260
53147SOL    HW165278   6.589   5.601   7.441  0.1590 -0.6318 -0.3287
53147SOL    HW265279   6.682   5.583   7.323 -0.4493 -0.2761 -0.8734
53148SOL     OW65280   2.991   0.789   3.757 -0.3092  0.2225  0.0242
53148SOL    HW165281   3.010   0.703   3.796  2.4856 -0.1928 -1.9767
53148SOL    HW265282   3.059   0.846   3.793  0.3000  0.5961 -1.6650
53149SOL     OW65283  11.530  10.412   1.630  0.2505 -0.1305 -0.8786
53149SOL    HW165284  11.519  10.332   1.578  2.3098  0.2590 -1.9923
53149SOL    HW265285  11.453  10.413   1.687 -0.7452 -1.9630 -2.0697
53150SOL     OW65286   7.237   0.901   5.744  0.2453 -0.2531  0.3356
53150SOL    HW165287   7.152   0.924   5.781 -0.1027  1.9219 -1.5803
53150SOL    HW265288   7.223   0.817   5.701 -0.9737  0.0834  0.0261
53151SOL     OW65289   1.937   2.186   7.622  0.1944  0.2913  0.5574
53151SOL    HW165290   1.911   2.127   7.551 -1.0230 -0.1176  1.3076
53151SOL    HW265291   1.855   2.208   7.666  0.8714  0.9163  1.5505
53152SOL     OW65292  11.522   2.725   5.678 -0.4237  0.2240  0.0607
53152SOL    HW165293  11.517   2.661   5.607  2.9458  0.6023 -0.6706
53152SOL    HW265294  11.504   2.809   5.635 -1.4026  0.1614  0.3225
53153SOL     OW65295   6.970   5.760  11.252  0.0792  0.3463 -0.5005
53153SOL    HW165296   6.955   5.830  11.190 -0.6455  1.6262  1.0419
53153SOL    HW265297   7.051   5.784  11.297  0.4470 -0.4217 -0.7308
53154SOL     OW65298   4.555   9.152   8.814  0.0785 -0.0698 -0.2793
53154SOL    HW165299   4.620   9.161   8.884  0.1743 -1.0661 -0.2263
53154SOL    HW265300   4.480   9.111   8.856  0.2845 -1.0368 -0.8323
53155SOL     OW65301   2.983   7.087   2.127  0.0514 -0.4706 -0.0637
53155SOL    HW165302   2.928   7.165   2.118  0.2666 -0.3744 -0.5885
53155SOL    HW265303   2.950   7.027   2.061 -0.9572 -1.3392  1.1922
53156SOL     OW65304   9.653  12.167   6.000  0.2436  0.3165 -0.0215
53156SOL    HW165305   9.637  12.239   5.939 -1.5416  0.9952  1.1650
53156SOL    HW265306   9.748  12.154   5.997  0.2505  0.2086 -2.9941
53157SOL     OW65307   7.892  11.156  10.740  0.5198 -0.4221  0.2724
53157SOL    HW165308   7.972  11.209  10.735 -0.4888  1.0385 -1.1674
53157SOL    HW265309   7.886  11.115  10.654 -0.0620 -0.8589  0.5164
53158SOL     OW65310   9.730   5.605   7.595 -0.3072  0.2528  0.5656
53158SOL    HW165311   9.757   5.533   7.653  0.1911  1.6143  2.0898
53158SOL    HW265312   9.649   5.638   7.633  1.2092  2.6651  1.9806
53159SOL     OW65313   0.052   8.669  11.575 -0.0442 -0.5962 -0.0498
53159SOL    HW165314  -0.026   8.700  11.529  0.0183  1.6670  1.2185
53159SOL    HW265315   0.125   8.710  11.527 -0.0334  3.2457  2.7700
53160SOL     OW65316   1.275   7.743   2.512 -0.6221  0.4867  0.6450
53160SOL    HW165317   1.214   7.707   2.447  0.6199  0.4659 -0.5454
53160SOL    HW265318   1.324   7.809   2.465  2.7591 -1.8897  0.4655
53161SOL     OW65319   3.943   8.692   3.292  0.1378  0.1184 -0.5187
53161SOL    HW165320   4.004   8.618   3.295 -0.3766 -0.4168 -2.1931
53161SOL    HW265321   3.981   8.752   3.228 -1.3292 -0.5132 -2.0732
53162SOL     OW65322  11.711   7.790   1.636 -0.1070  0.2790  0.4592
53162SOL    HW165323  11.656   7.715   1.612 -0.2316  0.8708 -1.1777
53162SOL    HW265324  11.741   7.769   1.725  0.0523 -1.8225 -0.0257
53163SOL     OW65325   6.166   4.288  10.853  0.5122 -0.3331  0.9758
53163SOL    HW165326   6.158   4.196  10.828 -1.9155 -0.0619  0.5941
53163SOL    HW265327   6.214   4.328  10.781 -0.1807 -0.9273  0.1629
53164SOL     OW65328   7.555   1.147   9.797  0.1280  0.0321 -0.2364
53164SOL    HW165329   7.505   1.085   9.850 -0.2945  0.4887 -0.1066
53164SOL    HW265330   7.505   1.155   9.715  0.3012  0.0358 -0.3439
53165SOL     OW65331   7.326   3.761   8.432  0.2222 -0.3016 -0.1293
53165SOL    HW165332   7.310   3.798   8.345  0.5873  0.4449  0.1055
53165SOL    HW265333   7.261   3.692   8.441 -0.9640  0.7503 -0.3261
53166SOL     OW65334  10.563   0.073   0.373 -0.2049  0.1141 -0.5797
53166SOL    HW165335  10.516   0.131   0.313  0.1521  1.0478  0.0264
53166SOL    HW265336  10.576   0.126   0.452 -1.5958 -1.4115  0.7549
53167SOL     OW65337  12.036   4.700   0.879  0.5334 -0.2479 -0.0171
53167SOL    HW165338  11.941   4.700   0.884  0.5218 -0.3257 -0.2160
53167SOL    HW265339  12.057   4.772   0.819  0.5478 -0.8969 -0.8157
53168SOL     OW65340   4.002   3.930   6.818 -0.0697  0.4794 -0.4169
53168SOL    HW165341   3.933   3.905   6.757  0.3442 -1.4571 -0.1849
53168SOL    HW265342   4.036   4.013   6.785 -3.2236  2.1243  0.1016
53169SOL     OW65343  10.302   8.034   1.641 -0.1359  0.3170 -0.0121
53169SOL    HW165344  10.258   7.968   1.586  0.2469  0.7706 -0.8912
53169SOL    HW265345  10.322   8.105   1.580  0.5991  0.6907  0.6592
53170SOL     OW65346   5.321   4.003   3.489  0.2485 -0.0809 -0.3559
53170SOL    HW165347   5.349   4.094   3.476  1.1817 -0.5323 -1.7085
53170SOL    HW265348   5.231   4.010   3.520  0.4237  1.3076 -0.0812
53171SOL     OW65349  10.903  12.133   7.042 -0.0081 -0.1375  0.3531
53171SOL    HW165350  10.885  12.138   6.948 -0.4053 -0.4195  0.4139
53171SOL    HW265351  10.942  12.046   7.054 -1.9504 -1.0108  0.7693
53172SOL     OW65352   4.208   5.890   7.492  0.0432 -0.1325  0.1624
53172SOL    HW165353   4.233   5.978   7.520 -1.5690  0.1780  0.7470
53172SOL    HW265354   4.231   5.834   7.566  0.2111 -0.0638  0.1635
53173SOL     OW65355   2.149   9.269   0.602  0.0185 -0.4286 -0.1397
53173SOL    HW165356   2.188   9.204   0.544 -0.5428 -0.8572 -0.0546
53173SOL    HW265357   2.178   9.243   0.690  0.6075  0.0318 -0.1896
53174SOL     OW65358   5.049   2.074  12.200  0.0214  0.3315  0.0155
53174SOL    HW165359   5.006   2.013  12.260 -1.1487 -0.9749 -2.0676
53174SOL    HW265360   5.058   2.026  12.118  2.3761  1.7567 -0.6648
53175SOL     OW65361   3.313  11.721   4.165 -0.3166  0.3276  0.5444
53175SOL    HW165362   3.396  11.710   4.211  0.2105  1.6098 -0.0300
53175SOL    HW265363   3.310  11.814   4.143 -1.8688  0.2864  0.4549
53176SOL     OW65364  11.133   7.717  12.146  0.2035 -0.4117  0.0985
53176SOL    HW165365  11.161   7.625  12.141 -1.9491 -1.0698 -1.5232
53176SOL    HW265366  11.098   7.736  12.059 -2.6674  0.7846  1.3768
53177SOL     OW65367   5.636   6.324   0.337  0.3005  0.1136  0.3767
53177SOL    HW165368   5.552   6.280   0.325  1.6820 -2.3010 -1.5114
53177SOL    HW265369   5.669   6.290   0.420  0.8218 -1.6764 -0.4991
53178SOL     OW65370   3.359   4.887   2.781 -0.4659  0.6225  0.4270
53178SOL    HW165371   3.324   4.975   2.765 -0.4831  1.1616  2.9379
53178SOL    HW265372   3.340   4.839   2.701  0.3292  3.1200 -1.4032
53179SOL     OW65373   5.671   1.401   3.996  0.1031  0.1901 -0.2069
53179SOL    HW165374   5.585   1.362   4.015 -0.7983  1.1052 -2.1518
53179SOL    HW265375   5.720   1.331   3.952 -0.9766  0.6735 -2.3243
53180SOL     OW65376   2.979   7.626   5.581 -0.6670 -0.4135  0.1127
53180SOL    HW165377   3.013   7.561   5.643  0.9914  0.2792 -0.0245
53180SOL    HW265378   2.980   7.708   5.629 -0.1525 -0.0123 -0.5664
53181SOL     OW65379   0.071  11.288   2.265  0.6351 -0.3937 -0.0468
53181SOL    HW165380   0.131  11.243   2.325 -0.5204 -1.5691  0.2575
53181SOL    HW265381  -0.014  11.249   2.283  0.3508 -1.3373 -2.9941
53182SOL     OW65382   1.574  11.527  11.586  0.9128  0.2511  1.0340
53182SOL    HW165383   1.574  11.570  11.672  1.8870 -0.1708  1.2607
53182SOL    HW265384   1.623  11.586  11.529  3.7941 -1.2487  1.7587
53183SOL     OW65385  11.836   3.170   8.824  0.2301  0.5631 -0.0927
53183SOL    HW165386  11.805   3.164   8.734  2.4898 -0.2383 -0.8938
53183SOL    HW265387  11.901   3.100   8.832  0.3663  0.8555  2.0633
53184SOL     OW65388   8.013   3.485  12.075  0.3329  0.1478 -0.0782
53184SOL    HW165389   8.040   3.393  12.083 -1.1226 -0.4105 -1.0531
53184SOL    HW265390   8.009   3.501  11.981  1.3519  1.4826  0.0815
53185SOL     OW65391   2.776  10.318   1.497  0.8586  0.0884  0.0957
53185SOL    HW165392   2.849  10.351   1.445  2.1445  0.0595  1.8123
53185SOL    HW265393   2.799  10.339   1.587 -2.1824  1.8611  0.6097
53186SOL     OW65394   5.325   4.671   6.400  0.4055 -0.0422 -0.2427
53186SOL    HW165395   5.378   4.648   6.476  1.1689  0.3581 -0.6476
53186SOL    HW265396   5.328   4.766   6.396 -1.8291  0.1401  0.7706
53187SOL     OW65397   7.279   4.937   3.103  0.1366  0.2819 -0.2228
53187SOL    HW165398   7.369   4.913   3.125  0.0543 -0.1675 -0.3551
53187SOL    HW265399   7.225   4.875   3.152 -0.1074  0.6158 -0.0637
53188SOL     OW65400   8.581   8.337   6.255  0.5308 -0.1897  0.0006
53188SOL    HW165401   8.568   8.407   6.318 -0.5079 -0.6733  0.3424
53188SOL    HW265402   8.584   8.257   6.308  0.5736 -0.5152 -0.4814
53189SOL     OW65403   9.481   0.303   9.049  0.5504 -0.8605 -0.2289
53189SOL    HW165404   9.553   0.290   8.988  0.1938 -1.4502 -0.5369
53189SOL    HW265405   9.433   0.220   9.048 -1.1968  0.0816 -1.4480
53190SOL     OW65406  11.295   9.365   3.149  0.4198  0.2441 -0.1783
53190SOL    HW165407  11.288   9.306   3.074 -2.1565 -0.4804  0.5097
53190SOL    HW265408  11.304   9.307   3.224 -1.7612  0.6499  0.4702
53191SOL     OW65409   4.052   5.314   1.147  0.1499 -0.0775  0.1625
53191SOL    HW165410   4.024   5.382   1.209 -0.1187  0.4549 -0.5253
53191SOL    HW265411   4.051   5.358   1.062  1.1818 -0.6019 -0.1387
53192SOL     OW65412   1.042   1.013  10.725 -0.0948 -0.0838 -0.1113
53192SOL    HW165413   1.113   1.008  10.660  0.7950  0.2022  0.8173
53192SOL    HW265414   1.030   1.107  10.740  0.1230 -0.1599  0.5745
53193SOL     OW65415  10.566   2.907   2.446  0.2173  0.4681  0.4841
53193SOL    HW165416  10.594   2.839   2.506  1.3293 -0.3984 -0.9540
53193SOL    HW265417  10.529   2.859   2.371 -0.3881  1.4878  0.1094
53194SOL     OW65418   1.451   4.501   5.267 -0.3447 -0.3023 -0.1164
53194SOL    HW165419   1.439   4.482   5.360 -0.0450  0.2509  0.0382
53194SOL    HW265420   1.533   4.549   5.262 -0.6335  0.1573 -0.6011
53195SOL     OW65421   7.601   0.065   4.909  0.0714  0.2830 -0.0191
53195SOL    HW165422   7.514   0.043   4.943  0.6663 -2.2768  0.1239
53195SOL    HW265423   7.588   0.078   4.815 -0.5213  0.1795  0.0444
53196SOL     OW65424   8.774   8.375   2.266 -0.2195 -0.2187  0.7462
53196SOL    HW165425   8.696   8.429   2.279  0.5439  0.7097  1.6073
53196SOL    HW265426   8.759   8.333   2.181 -1.4702  0.2463  0.7059
53197SOL     OW65427   7.524   9.232   6.452 -0.2365  0.3665  0.5964
53197SOL    HW165428   7.596   9.295   6.462  0.7217 -0.6387  0.2975
53197SOL    HW265429   7.556   9.152   6.494 -1.3679  0.0308  0.8422
53198SOL     OW65430   9.792   8.101   1.680 -0.1101  0.2020 -0.3839
53198SOL    HW165431   9.882   8.073   1.664 -0.1685  0.2627 -0.8540
53198SOL    HW265432   9.746   8.079   1.599 -0.7212 -0.6570  0.1893
53199SOL     OW65433   1.302   4.088   6.406 -0.8662  0.0549 -0.1312
53199SOL    HW165434   1.388   4.060   6.374 -0.7446  1.9264 -1.6156
53199SOL    HW265435   1.272   4.015   6.460  1.5818 -0.7128  0.3304
53200SOL     OW65436  11.872   0.956   8.035 -0.2091 -0.2828  0.5886
53200SOL    HW165437  11.917   0.872   8.041  0.8692  0.3683  3.6636
53200SOL    HW265438  11.905   0.996   7.955 -0.9759 -2.8151 -1.1241
53201SOL     OW65439   1.501   7.006   4.032 -0.3906  0.2268 -0.1755
53201SOL    HW165440   1.576   6.994   3.973  0.9742 -0.7499  1.6797
53201SOL    HW265441   1.539   7.038   4.114 -2.0588  0.0891  0.7011
53202SOL     OW65442   1.714   9.047   7.391  0.1399  0.3605  0.1054
53202SOL    HW165443   1.697   8.953   7.384  1.3813  0.0651  0.7755
53202SOL    HW265444   1.700   9.067   7.483 -2.9003  1.4619 -0.4704
53203SOL     OW65445   9.086   3.007   2.776  0.6392  0.1605 -0.2746
53203SOL    HW165446   9.094   3.101   2.793  0.4418  0.0286  0.5572
53203SOL    HW265447   9.019   2.977   2.837  0.6991 -0.5268 -0.5407
53204SOL     OW65448   2.327   7.533   8.945 -0.5599 -0.2308  0.7324
53204SOL    HW165449   2.358   7.531   8.854 -0.8221 -0.1256  0.6391
53204SOL    HW265450   2.351   7.620   8.977 -0.3008 -0.3358  0.8233
53205SOL     OW65451   7.886   1.367   1.982  0.0526 -0.2133  0.1705
53205SOL    HW165452   7.845   1.430   1.922 -1.0398 -0.7029  0.3819
53205SOL    HW265453   7.974   1.355   1.948  0.4125  1.6984  0.3203
53206SOL     OW65454   5.476   5.770   4.823  0.3219 -0.3361  0.3848
53206SOL    HW165455   5.415   5.701   4.797  0.0790 -0.5226  1.4043
53206SOL    HW265456   5.517   5.737   4.903  2.1858 -0.4615 -0.5734
53207SOL     OW65457   0.923   1.389   9.846  0.1874 -0.3266 -0.9425
53207SOL    HW165458   1.009   1.428   9.863  0.6974 -2.3137  2.0250
53207SOL    HW265459   0.861   1.448   9.890  0.3575 -0.1947 -0.8779
53208SOL     OW65460   4.099   8.181   7.886  0.6594 -0.1419  0.3148
53208SOL    HW165461   4.141   8.201   7.802 -0.3524  3.4277  0.4784
53208SOL    HW265462   4.005   8.190   7.868  0.3022 -1.3664  1.4308
53209SOL     OW65463   1.663   5.753  10.174  0.2224 -0.7802 -0.0914
53209SOL    HW165464   1.624   5.839  10.190  0.4204 -0.7420  0.2031
53209SOL    HW265465   1.746   5.771  10.130 -0.2745 -0.8819 -1.0849
53210SOL     OW65466   4.365   6.307  10.400 -0.1034 -0.4403  0.6263
53210SOL    HW165467   4.335   6.231  10.449  0.7880 -0.0078  1.8991
53210SOL    HW265468   4.457   6.287  10.379 -0.5831 -0.8183 -1.3172
53211SOL     OW65469   1.936   3.573   4.215  0.2018  0.5038  0.3789
53211SOL    HW165470   1.879   3.552   4.142  1.6226 -0.6148 -0.4724
53211SOL    HW265471   2.018   3.602   4.174  0.3012  1.9601  1.5465
53212SOL     OW65472   5.922   1.640  11.770 -0.0847  0.3927 -0.0372
53212SOL    HW165473   5.938   1.730  11.798 -0.3186  1.3210 -2.6081
53212SOL    HW265474   5.974   1.631  11.690 -2.0992 -0.8553 -1.2915
53213SOL     OW65475   6.361   6.296   3.402  0.1435  0.7360  0.6800
53213SOL    HW165476   6.278   6.327   3.366 -0.3626 -0.2643  0.9513
53213SOL    HW265477   6.426   6.319   3.335 -0.2152  2.2038  0.8036
53214SOL     OW65478   4.470   7.814   4.004 -0.9610 -0.6483  0.2052
53214SOL    HW165479   4.405   7.884   4.005 -1.3470 -0.9710  2.4657
53214SOL    HW265480   4.536   7.842   4.067  0.8567 -0.5934 -1.6354
53215SOL     OW65481  11.746   0.662  10.583  0.3639  0.1777 -0.2579
53215SOL    HW165482  11.742   0.624  10.671 -1.8632  1.5245  0.3025
53215SOL    HW265483  11.730   0.589  10.524 -1.7560 -0.2200  0.6976
53216SOL     OW65484   9.510  10.980   6.013 -0.2236 -0.4165  0.0763
53216SOL    HW165485   9.569  11.027   5.955 -0.3925  0.3689  0.5345
53216SOL    HW265486   9.567  10.926   6.067 -0.0525 -1.0098 -0.6795
53217SOL     OW65487  11.989  11.002  12.213 -0.1967 -0.5124  0.3995
53217SOL    HW165488  12.058  11.038  12.158 -0.1426 -0.3089  0.5991
53217SOL    HW265489  11.988  10.909  12.193  0.0556 -0.4948  0.3077
53218SOL     OW65490   6.354   8.375   4.888 -0.0465  0.1735  0.0193
53218SOL    HW165491   6.274   8.358   4.938  0.2011 -1.6622 -0.1518
53218SOL    HW265492   6.334   8.453   4.837 -1.5023  0.1196  0.4584
53219SOL     OW65493   5.618   5.043  11.637 -0.6901 -0.0005  0.1796
53219SOL    HW165494   5.608   5.022  11.544 -0.3869 -1.0674  0.3808
53219SOL    HW265495   5.712   5.031  11.654 -0.6793  0.5549  0.5419
53220SOL     OW65496   4.998   1.573   6.370 -0.3621  0.9280  0.1962
53220SOL    HW165497   4.932   1.633   6.406 -0.6359  0.9570 -0.3423
53220SOL    HW265498   4.979   1.570   6.276 -0.0015  0.4284  0.1350
53221SOL     OW65499   0.239  10.288   2.983 -0.0701  0.0282  0.2370
53221SOL    HW165500   0.313  10.234   2.955 -1.2619 -0.9536 -1.1816
53221SOL    HW265501   0.245  10.291   3.078  0.8990 -1.3291  0.2396
53222SOL     OW65502   4.612   0.348  12.089  0.5837 -0.6344  0.0699
53222SOL    HW165503   4.538   0.401  12.120  0.9453 -0.6229  0.9601
53222SOL    HW265504   4.592   0.260  12.121  2.1106 -0.1976  2.5411
53223SOL     OW65505   7.566   2.546  11.364 -0.5847 -0.0743 -0.4340
53223SOL    HW165506   7.471   2.543  11.355 -0.6721  1.2477 -0.1304
53223SOL    HW265507   7.585   2.637  11.390  0.6978 -0.4973  0.1892
53224SOL     OW65508  10.160   9.255   2.201  0.7073  0.6463  0.1738
53224SOL    HW165509  10.140   9.253   2.294  0.5175 -0.0513  0.1190
53224SOL    HW265510  10.159   9.164   2.173 -0.2876  0.9118 -0.7380
53225SOL     OW65511  10.979   8.651  11.918 -0.4820  0.0436  0.1488
53225SOL    HW165512  10.964   8.566  11.959 -2.3057  0.6785  0.8961
53225SOL    HW265513  11.052   8.636  11.858  2.1914 -1.0188  3.3590
53226SOL     OW65514   5.000   0.073   9.266 -0.4772  0.1930  0.1858
53226SOL    HW165515   5.011  -0.022   9.272 -0.4570  0.1165 -0.9171
53226SOL    HW265516   4.998   0.103   9.357 -0.2091 -0.8324  0.5373
53227SOL     OW65517  11.865   3.770   9.711  0.3535 -0.1323  0.0052
53227SOL    HW165518  11.777   3.803   9.696 -0.0373 -1.6253 -1.2531
53227SOL    HW265519  11.853   3.676   9.726  1.7107 -0.3352 -0.0573
53228SOL     OW65520  11.594  11.765   1.744  0.5069 -0.4009  0.2999
53228SOL    HW165521  11.681  11.795   1.770  0.4119  0.3030 -0.1819
53228SOL    HW265522  11.566  11.709   1.817  0.9212  0.2204  0.9511
53229SOL     OW65523  10.058   9.316   9.556  0.1444  0.2032  0.5532
53229SOL    HW165524  10.052   9.224   9.582 -1.1960 -0.0681 -0.5802
53229SOL    HW265525  10.093   9.313   9.466 -1.9155  0.6129 -0.3195
53230SOL     OW65526   4.775   6.992   1.455 -0.2932  0.2127 -0.1792
53230SOL    HW165527   4.756   7.011   1.547  0.0976 -1.7168  0.3377
53230SOL    HW265528   4.870   6.993   1.448 -0.1012 -2.9925  0.3159
53231SOL     OW65529   6.222  10.014  10.932  0.3363 -0.0600  0.2225
53231SOL    HW165530   6.222  10.093  10.879  1.3622  1.1521  1.9338
53231SOL    HW265531   6.302   9.968  10.906 -0.4985 -0.8204 -1.1094
53232SOL     OW65532   3.280  10.822   3.788  0.2486  0.4770 -0.3273
53232SOL    HW165533   3.226  10.896   3.816 -1.8918 -0.8986 -0.5863
53232SOL    HW265534   3.311  10.782   3.869 -1.4723 -0.3133 -0.0001
53233SOL     OW65535   7.283   0.012   3.799 -0.4173 -0.4212 -0.1787
53233SOL    HW165536   7.197  -0.030   3.791 -0.6603 -0.5754  2.3974
53233SOL    HW265537   7.277   0.089   3.742 -2.6985  0.1647  0.7109
53234SOL     OW65538  11.456   6.575   8.859  0.6020 -0.2136  0.4083
53234SOL    HW165539  11.522   6.558   8.791  0.1472  0.4108 -0.2033
53234SOL    HW265540  11.494   6.538   8.939  2.5068  1.6640  0.4617
53235SOL     OW65541   3.064  10.588   7.682 -0.2595  0.5370  0.0560
53235SOL    HW165542   3.027  10.537   7.754 -0.8319  0.7316 -0.0872
53235SOL    HW265543   2.995  10.652   7.661  0.4444  1.3649  0.2312
53236SOL     OW65544   9.821   3.470   5.548  0.0232 -0.5321  0.0665
53236SOL    HW165545   9.815   3.432   5.636 -1.6277  1.4353  0.8963
53236SOL    HW265546   9.764   3.415   5.494  1.7557 -2.3126 -0.0791
53237SOL     OW65547   6.890  11.734   0.867 -0.0566  0.1336 -0.6834
53237SOL    HW165548   6.964  11.770   0.818 -0.7641 -0.7257 -2.4888
53237SOL    HW265549   6.858  11.662   0.813 -1.2720 -0.4924  0.7955
53238SOL     OW65550   6.361   5.655   9.924 -0.0718 -0.0747 -0.0491
53238SOL    HW165551   6.266   5.666   9.936  0.4438  2.7180  2.4878
53238SOL    HW265552   6.385   5.725   9.864  0.4723 -0.7130 -0.5970
53239SOL     OW65553   1.644   4.208   9.126 -0.2352 -0.2497 -0.0758
53239SOL    HW165554   1.676   4.164   9.047 -0.3132 -0.6999  0.1463
53239SOL    HW265555   1.604   4.289   9.093  2.3819  1.0915 -0.2830
53240SOL     OW65556   1.668  11.787  11.778  0.3622 -0.1925  0.3520
53240SOL    HW165557   1.688  11.718  11.842  0.6214 -0.0318  0.4463
53240SOL    HW265558   1.573  11.783  11.767 -0.0397  1.4045  2.6170
53241SOL     OW65559   5.610   6.403   2.475 -0.3004  0.3024 -0.4602
53241SOL    HW165560   5.682   6.430   2.418 -1.1624  0.3461 -1.5592
53241SOL    HW265561   5.625   6.451   2.556 -0.9104  2.9311 -1.7963
53242SOL     OW65562   0.909   0.392   0.391 -0.5512 -0.1694  0.0482
53242SOL    HW165563   0.994   0.351   0.407 -0.4890  0.3828  1.2571
53242SOL    HW265564   0.852   0.359   0.461 -1.1618 -0.0583 -0.3854
53243SOL     OW65565  10.671   9.106   4.216  0.4864  0.1402  0.4528
53243SOL    HW165566  10.708   9.189   4.246  0.9182 -0.3293  1.2785
53243SOL    HW265567  10.668   9.052   4.295  0.6621 -0.7919 -0.1609
53244SOL     OW65568   1.839   9.731   2.558 -0.0311  0.0277  0.1737
53244SOL    HW165569   1.904   9.786   2.601  0.1810 -1.4938  1.8933
53244SOL    HW265570   1.758   9.782   2.562  0.5765  1.0271 -0.0564
53245SOL     OW65571   6.594   5.962   2.449 -0.3481  0.1110  0.0202
53245SOL    HW165572   6.555   6.044   2.417 -1.6502  0.1078  1.4752
53245SOL    HW265573   6.538   5.936   2.522  1.3924 -0.8591  1.0757
53246SOL     OW65574   3.447  11.696   0.916  0.1187 -0.1729 -0.0366
53246SOL    HW165575   3.502  11.619   0.929 -0.4569 -0.8732 -1.5936
53246SOL    HW265576   3.357  11.665   0.932 -0.0113  0.5294  0.7098
53247SOL     OW65577  12.248   1.213   9.237 -0.2889  0.2125 -0.8334
53247SOL    HW165578  12.279   1.262   9.314 -0.8169 -0.6570 -0.0534
53247SOL    HW265579  12.207   1.279   9.182 -1.7953  0.5497  0.6184
53248SOL     OW65580  11.232   8.820   6.930 -0.3921 -0.2972 -0.1792
53248SOL    HW165581  11.151   8.840   6.884 -0.4333 -2.1221 -1.0065
53248SOL    HW265582  11.301   8.846   6.870 -0.4148 -0.6182 -0.3500
53249SOL     OW65583   1.748  12.138   1.936 -0.4296  0.0249  0.0643
53249SOL    HW165584   1.786  12.059   1.899  0.1588  0.3413 -0.0096
53249SOL    HW265585   1.758  12.204   1.868  0.3161  0.5124  0.6290
53250SOL     OW65586   3.981   8.408   7.510  0.1853  0.4097 -0.1480
53250SOL    HW165587   4.030   8.483   7.544 -0.1356  0.8325 -0.5938
53250SOL    HW265588   3.954   8.435   7.422 -2.9550  1.1932  0.9288
53251SOL     OW65589   4.173   4.633   0.771 -0.8829 -0.0309 -0.0809
53251SOL    HW165590   4.086   4.622   0.808 -0.2256 -0.3988  1.4091
53251SOL    HW265591   4.193   4.726   0.784 -0.7028 -0.1338  0.3938
53252SOL     OW65592  10.572   7.305   0.970 -0.0385  0.3514  0.6951
53252SOL    HW165593  10.576   7.216   1.005  0.5736  0.6184  1.3247
53252SOL    HW265594  10.658   7.343   0.990  0.0308  0.7949 -0.3675
53253SOL     OW65595   2.572   3.397   6.551 -0.0975  0.1738  0.3152
53253SOL    HW165596   2.484   3.359   6.558 -0.1877  0.6914  3.2824
53253SOL    HW265597   2.562   3.487   6.582  1.3136  0.5338 -0.2009
53254SOL     OW65598  10.306   9.885  10.839 -0.2975 -0.6037 -0.2207
53254SOL    HW165599  10.390   9.846  10.863 -0.7980 -2.0663 -0.7835
53254SOL    HW265600  10.280   9.840  10.759 -0.5740  1.4061 -1.3165
53255SOL     OW65601   1.861   4.228   6.185  0.4551 -0.2736 -0.1255
53255SOL    HW165602   1.814   4.185   6.114 -0.0917 -0.0319  0.0846
53255SOL    HW265603   1.818   4.198   6.265  0.1724  0.5088  0.0318
53256SOL     OW65604   1.816   5.608   0.913 -0.0779 -0.5329 -0.0036
53256SOL    HW165605   1.821   5.549   0.988 -0.5517 -0.2073  0.2907
53256SOL    HW265606   1.751   5.567   0.855  0.5649 -0.9818 -0.4222
53257SOL     OW65607   7.714   1.534   9.109  0.2246 -0.0126  0.4967
53257SOL    HW165608   7.804   1.515   9.135  0.6220  0.6004 -0.3848
53257SOL    HW265609   7.692   1.467   9.044  0.8480  1.1203 -0.9478
53258SOL     OW65610   8.838   4.174   9.078 -0.7221 -0.1995 -0.2000
53258SOL    HW165611   8.890   4.208   9.151 -1.2637 -0.2896  0.2348
53258SOL    HW265612   8.872   4.086   9.063  1.3633  0.8267 -1.9785
53259SOL     OW65613   5.222   3.207   5.119  0.4713 -0.5434 -0.2109
53259SOL    HW165614   5.162   3.133   5.125  0.5911 -0.8313 -2.0758
53259SOL    HW265615   5.194   3.265   5.190  0.6902 -2.5452  1.6404
53260SOL     OW65616  10.160   5.910   1.099 -0.3886  0.1048 -0.9672
53260SOL    HW165617  10.218   5.985   1.116 -1.2925  0.6675 -0.2079
53260SOL    HW265618  10.138   5.877   1.186 -0.8465 -0.3728 -1.2590
53261SOL     OW65619   1.386   0.105   4.281 -0.0508  0.1493 -0.0676
53261SOL    HW165620   1.430   0.170   4.227  1.5095 -2.1268 -1.7129
53261SOL    HW265621   1.456   0.055   4.322 -1.1964  0.7572  2.9150
53262SOL     OW65622   2.651   5.966   7.739 -0.0159  0.3575  0.1665
53262SOL    HW165623   2.573   5.998   7.693 -0.9579  0.8462  2.0179
53262SOL    HW265624   2.623   5.884   7.779  0.7940 -0.0748 -0.1529
53263SOL     OW65625   1.105   3.573   5.931 -0.0910  0.1426  0.4007
53263SOL    HW165626   1.159   3.652   5.935  0.6630 -0.2557 -1.2497
53263SOL    HW265627   1.081   3.564   5.839  0.3945 -1.9058  0.4306
53264SOL     OW65628   5.618   8.742   7.531  0.6412 -0.3232 -0.0080
53264SOL    HW165629   5.543   8.692   7.562  0.6011 -0.6518 -0.6085
53264SOL    HW265630   5.689   8.719   7.591  0.9924 -2.1979 -1.0460
53265SOL     OW65631   2.263   0.601   9.849  0.4229 -0.3453 -0.1250
53265SOL    HW165632   2.280   0.683   9.803 -0.1979 -0.0108  0.2206
53265SOL    HW265633   2.347   0.580   9.892  1.5548 -1.6017 -2.7588
53266SOL     OW65634   7.838   7.943   8.613 -0.4917  0.3629  0.2742
53266SOL    HW165635   7.795   7.879   8.556  0.7822  0.0607 -0.3897
53266SOL    HW265636   7.842   7.901   8.699 -0.4257 -0.0940  0.0480
53267SOL     OW65637   4.618  10.403   5.494 -0.6549 -0.6922  0.3354
53267SOL    HW165638   4.692  10.445   5.450  0.0068 -1.3265  0.8118
53267SOL    HW265639   4.541  10.449   5.461 -0.0599 -0.1114 -0.2790
53268SOL     OW65640  10.869  11.639  12.087 -0.0578 -0.3943  0.2091
53268SOL    HW165641  10.949  11.683  12.117 -1.7792  2.0906  1.5105
53268SOL    HW265642  10.810  11.644  12.162 -1.0117 -3.5647 -0.1797
53269SOL     OW65643   3.576   6.489   3.749  0.2957  0.7731 -0.0370
53269SOL    HW165644   3.609   6.569   3.708 -1.6735  1.7550  0.1594
53269SOL    HW265645   3.514   6.453   3.686  0.1263  0.1772  0.4575
53270SOL     OW65646  12.305   3.009  11.484  0.1716  0.4578 -0.1079
53270SOL    HW165647  12.360   2.942  11.525 -0.7015 -0.0062  0.3320
53270SOL    HW265648  12.319   2.998  11.390  1.7663  1.1636  0.0185
53271SOL     OW65649   1.886  10.193   4.089  0.3075 -0.1554 -0.0009
53271SOL    HW165650   1.932  10.217   4.008  3.2054 -2.3810  0.8118
53271SOL    HW265651   1.851  10.105   4.071 -1.8955  0.6126  0.1789
53272SOL     OW65652   1.078   0.542   5.022 -0.0165 -0.1793  0.3761
53272SOL    HW165653   1.071   0.512   4.931  1.3042 -0.1199  0.2421
53272SOL    HW265654   1.088   0.461   5.073 -0.6049 -0.2024  0.4663
53273SOL     OW65655  10.244  11.676   9.989 -0.1120 -0.0824  0.0012
53273SOL    HW165656  10.202  11.680   9.903  0.2565  2.2462 -0.1230
53273SOL    HW265657  10.206  11.749  10.038  0.8519 -0.3911  1.2595
53274SOL     OW65658   1.323   5.415   6.886  0.5874 -0.2777 -0.0933
53274SOL    HW165659   1.346   5.329   6.851  0.5176 -0.2851 -0.1220
53274SOL    HW265660   1.260   5.450   6.823  0.1027 -0.4879  0.2639
53275SOL     OW65661  10.727   1.552   2.102 -0.0352 -0.2139  0.2242
53275SOL    HW165662  10.691   1.464   2.093 -1.0638 -0.0265  2.0398
53275SOL    HW265663  10.779   1.548   2.183 -0.0510  0.8331  0.2954
53276SOL     OW65664   7.757   4.265  11.518  0.4327  0.3508  0.2443
53276SOL    HW165665   7.843   4.302  11.498  0.0417  0.2445 -1.8338
53276SOL    HW265666   7.695   4.318  11.468 -0.3425 -1.7847 -1.2055
53277SOL     OW65667   1.146   2.092   0.614  0.1678 -0.7085 -0.7080
53277SOL    HW165668   1.069   2.108   0.559  0.7729 -0.4299 -1.4911
53277SOL    HW265669   1.213   2.151   0.579  0.7105 -0.8833  0.0227
53278SOL     OW65670  11.379  10.738   5.496 -0.4043  0.7405  0.1600
53278SOL    HW165671  11.415  10.658   5.534  0.8735  1.1795 -0.0534
53278SOL    HW265672  11.355  10.713   5.407  0.9797  0.8164 -0.2626
53279SOL     OW65673   7.997   8.122   1.444 -0.3662 -0.5191 -0.1809
53279SOL    HW165674   8.060   8.052   1.460  0.1326 -0.4316 -1.5959
53279SOL    HW265675   7.943   8.090   1.372 -0.8008  0.1343 -0.1550
53280SOL     OW65676   5.690   2.961   4.315  0.6011 -0.3766 -0.7962
53280SOL    HW165677   5.660   2.929   4.230 -1.2659 -2.2694  0.4721
53280SOL    HW265678   5.676   3.056   4.312  2.3812 -0.1055 -3.2185
53281SOL     OW65679  10.283   1.187   3.096  0.3364 -0.2399 -0.3821
53281SOL    HW165680  10.256   1.095   3.097 -0.2542 -0.0740  0.9887
53281SOL    HW265681  10.215   1.233   3.144  0.1770  1.0751 -1.7780
53282SOL     OW65682  11.810   5.896   6.817  0.3252  0.1217  0.1012
53282SOL    HW165683  11.794   5.945   6.737 -1.3617 -4.1657 -2.5012
53282SOL    HW265684  11.740   5.924   6.876  0.8527  2.4505 -0.2798
53283SOL     OW65685  11.177  11.320   4.128 -0.1326  0.3548 -0.5931
53283SOL    HW165686  11.250  11.351   4.181 -0.1701  0.2457 -0.4795
53283SOL    HW265687  11.199  11.348   4.039  0.1340  0.1643 -0.5876
53284SOL     OW65688   8.940  11.452   7.502  0.3020  0.4546  0.4206
53284SOL    HW165689   8.957  11.489   7.415  1.5408  1.6962  1.1443
53284SOL    HW265690   8.945  11.357   7.490 -1.3807  0.5230 -1.1951
53285SOL     OW65691   4.576   8.466   6.797  0.3374 -0.1138 -0.4109
53285SOL    HW165692   4.653   8.423   6.758 -1.1812 -0.9316 -2.7306
53285SOL    HW265693   4.557   8.538   6.737 -0.1485  0.7200  0.7102
53286SOL     OW65694   0.048   9.979   9.575  0.3178  0.1648  0.0724
53286SOL    HW165695   0.128  10.030   9.576  1.6985 -1.9004  0.0630
53286SOL    HW265696   0.062   9.913   9.507 -1.7981  0.3366 -0.6147
53287SOL     OW65697   2.743   4.466   7.949 -0.3308  0.2498 -0.4130
53287SOL    HW165698   2.753   4.560   7.929 -2.4346  0.3913 -1.0570
53287SOL    HW265699   2.702   4.465   8.035  1.1368 -0.1657  0.3148
53288SOL     OW65700  11.008   2.944   9.358 -0.2279 -0.2690 -0.4576
53288SOL    HW165701  11.017   2.904   9.271 -1.0119  0.8304 -1.0687
53288SOL    HW265702  10.946   2.887   9.404 -2.0063  0.6277 -1.6160
53289SOL     OW65703   4.420   6.417   9.085 -0.2952 -0.1144  0.4838
53289SOL    HW165704   4.392   6.451   9.000  0.3626  1.6663  0.9415
53289SOL    HW265705   4.357   6.454   9.147  0.4139  0.2829  0.9868
53290SOL     OW65706   5.945   3.613   9.639 -0.2702  0.5586 -0.2377
53290SOL    HW165707   6.012   3.550   9.669  0.4076  0.6602 -1.4549
53290SOL    HW265708   5.982   3.699   9.661 -0.8346  0.5626  0.7121
53291SOL     OW65709   4.937   0.774   2.904  0.1561  0.1847  0.0884
53291SOL    HW165710   4.993   0.851   2.915  0.5961  0.0036 -0.7969
53291SOL    HW265711   4.935   0.733   2.991  1.9267 -0.1645 -0.0025
53292SOL     OW65712   5.940   2.654   5.012  0.2632 -0.9256 -0.9430
53292SOL    HW165713   5.929   2.570   5.056  0.3074  0.4445  1.9207
53292SOL    HW265714   6.032   2.677   5.027 -0.2127  0.4838  0.0810
53293SOL     OW65715   8.720   5.780   9.485  0.6591 -0.0662  0.0469
53293SOL    HW165716   8.766   5.712   9.436  0.8517  0.6854 -0.8443
53293SOL    HW265717   8.782   5.853   9.489  0.8526 -0.2988  1.9017
53294SOL     OW65718   8.421   4.633   7.861  0.1186 -0.5653 -0.4012
53294SOL    HW165719   8.381   4.671   7.939  0.3659  0.3849 -0.7199
53294SOL    HW265720   8.499   4.688   7.846 -0.8943  0.4140 -2.3538
53295SOL     OW65721   6.942   8.429   2.575 -0.3704 -0.0979  0.2895
53295SOL    HW165722   6.952   8.390   2.488  0.4418 -0.6400  0.6186
53295SOL    HW265723   6.908   8.359   2.630  0.1478 -0.0635  0.6578
53296SOL     OW65724   3.292   5.872   6.442 -0.4243  0.4021 -0.0169
53296SOL    HW165725   3.299   5.834   6.354 -0.1131 -0.9309  0.5638
53296SOL    HW265726   3.199   5.891   6.452 -0.4590  0.6026 -0.6364
53297SOL     OW65727   1.465   6.935   2.157 -0.5115 -0.6375  0.4377
53297SOL    HW165728   1.390   6.983   2.124 -0.5955 -1.3013 -0.3832
53297SOL    HW265729   1.489   6.980   2.238 -1.7334 -0.3670  0.6716
53298SOL     OW65730   3.025   4.817   7.103 -0.1553  0.1825 -0.5990
53298SOL    HW165731   2.947   4.849   7.148 -0.4491 -0.5077 -0.5964
53298SOL    HW265732   3.086   4.795   7.173 -0.1707  0.1985 -0.5806
53299SOL     OW65733   4.864   1.115   8.436  0.0542 -0.2707  0.5528
53299SOL    HW165734   4.868   1.130   8.341  2.1494 -1.3277  0.3994
53299SOL    HW265735   4.901   1.195   8.474  0.1859 -0.2605  0.4075
53300SOL     OW65736   9.012   1.483   9.140 -0.4347 -0.3934  0.4404
53300SOL    HW165737   8.978   1.441   9.219 -0.9809 -0.0865  0.3804
53300SOL    HW265738   9.046   1.412   9.086  1.2542 -0.4772  1.5564
53301SOL     OW65739   5.667   0.391   4.110  0.1528  0.0602 -0.7791
53301SOL    HW165740   5.754   0.357   4.091  0.8128  1.3554 -0.2128
53301SOL    HW265741   5.614   0.366   4.033  1.3529  0.4210 -1.7559
53302SOL     OW65742   7.247   5.230   1.746  0.3730  0.1603 -0.4664
53302SOL    HW165743   7.237   5.203   1.837  0.5565  0.9796 -0.1921
53302SOL    HW265744   7.335   5.200   1.722 -0.6264 -2.4333 -1.2470
53303SOL     OW65745  10.372   7.965  11.452 -0.1562 -0.5049  0.4856
53303SOL    HW165746  10.384   7.899  11.383 -0.7186 -1.2145  1.0514
53303SOL    HW265747  10.290   8.009  11.428 -1.1161 -1.7123  1.4454
53304SOL     OW65748   8.600   4.797   5.985 -0.1193 -0.4793 -0.3533
53304SOL    HW165749   8.599   4.727   6.051  1.6246  1.5345  2.0110
53304SOL    HW265750   8.682   4.785   5.938  1.3176  1.1341  1.5742
53305SOL     OW65751   3.597   9.967   0.397 -0.3017 -0.0963 -0.2676
53305SOL    HW165752   3.619  10.059   0.413  0.1723 -0.3243  0.4156
53305SOL    HW265753   3.623   9.922   0.477  1.5099 -1.1840 -1.4194
53306SOL     OW65754   3.449   5.458   6.921  0.0252 -0.0921 -0.1388
53306SOL    HW165755   3.522   5.397   6.914 -0.4646 -0.7340  0.1972
53306SOL    HW265756   3.433   5.464   7.016  0.0329  0.5223 -0.1716
53307SOL     OW65757   6.249  10.700   2.420 -0.3017 -0.0737 -0.2805
53307SOL    HW165758   6.321  10.683   2.480 -0.3367  0.3896 -0.1007
53307SOL    HW265759   6.248  10.796   2.411 -1.0785 -0.0547 -0.0498
53308SOL     OW65760   9.421   5.938  10.645 -0.1731 -0.7012  0.2645
53308SOL    HW165761   9.356   5.913  10.579  0.4799 -3.3117  0.4669
53308SOL    HW265762   9.478   6.000  10.602 -0.6223 -1.2413 -1.1531
53309SOL     OW65763   6.376   2.853   2.696 -0.2737 -0.0336 -0.6041
53309SOL    HW165764   6.423   2.777   2.730  1.6056  0.3872 -2.0610
53309SOL    HW265765   6.375   2.840   2.601 -1.4211  0.9570 -0.7539
53310SOL     OW65766   5.441   5.515   2.718  0.5054 -0.4442 -0.1600
53310SOL    HW165767   5.503   5.450   2.749  2.6115  1.1726 -0.7758
53310SOL    HW265768   5.489   5.567   2.654 -0.8081  2.1942  0.8166
53311SOL     OW65769   1.109   1.358  10.507  0.0846  0.2194  0.2400
53311SOL    HW165770   1.071   1.349  10.420 -1.1251  0.2065  0.7408
53311SOL    HW265771   1.051   1.420  10.551  0.3640 -0.1938  1.2101
53312SOL     OW65772   3.131   9.773   1.286 -0.6375 -0.0060  0.3760
53312SOL    HW165773   3.046   9.814   1.267 -0.9904 -1.4350 -1.4756
53312SOL    HW265774   3.111   9.707   1.352 -1.0666 -0.5491 -0.2738
53313SOL     OW65775   8.855   3.704   5.359 -0.5969 -0.2471  0.4891
53313SOL    HW165776   8.823   3.752   5.283  0.6082  0.5774  0.4603
53313SOL    HW265777   8.944   3.738   5.373 -1.1232  0.3867  2.8789
53314SOL     OW65778   7.019  10.802   3.271 -0.3058 -0.0291  0.1358
53314SOL    HW165779   6.938  10.752   3.267  0.1115 -0.7148 -0.0668
53314SOL    HW265780   7.051  10.804   3.181 -0.2426  0.4940  0.1653
53315SOL     OW65781   0.029  11.551   9.380  0.3411 -0.0326 -0.1673
53315SOL    HW165782   0.011  11.462   9.349 -1.8287  0.6507 -1.0571
53315SOL    HW265783   0.110  11.543   9.430 -0.1923 -2.6484  0.4084
53316SOL     OW65784   6.128   8.070   5.417  0.0334 -0.1794 -0.1543
53316SOL    HW165785   6.154   7.991   5.370  0.0968  0.4784 -1.2575
53316SOL    HW265786   6.073   8.118   5.354 -0.8986  0.1457  0.8746
53317SOL     OW65787  11.477   3.141   9.803 -0.3717  0.1986  0.1396
53317SOL    HW165788  11.461   3.182   9.888 -3.3976 -1.3970  0.4502
53317SOL    HW265789  11.390   3.123   9.768  0.8150 -0.7294 -2.5708
53318SOL     OW65790   2.593  11.353   9.946 -1.4157  0.1565 -0.6028
53318SOL    HW165791   2.628  11.282   9.999 -0.2593  0.2796 -1.1774
53318SOL    HW265792   2.514  11.316   9.906 -0.5786 -0.9689 -1.2676
53319SOL     OW65793   8.191   1.967   0.341 -0.2007  0.3325  0.1453
53319SOL    HW165794   8.218   2.004   0.257  1.0411  0.9627  0.7853
53319SOL    HW265795   8.241   1.886   0.349 -1.6869 -0.6679 -0.5220
53320SOL     OW65796   9.197  11.928   5.243 -0.6813 -0.0152  0.2366
53320SOL    HW165797   9.256  11.929   5.318  0.2193  0.9232 -0.4607
53320SOL    HW265798   9.254  11.926   5.166 -1.4640  2.1475 -0.4832
53321SOL     OW65799   7.873   3.804   1.215 -0.2004  0.0739 -0.3248
53321SOL    HW165800   7.810   3.872   1.194  1.2242  1.0514 -1.6879
53321SOL    HW265801   7.869   3.796   1.310 -0.1656  2.3699 -0.0692
53322SOL     OW65802   6.874   9.233   8.617  0.5102 -0.4230  0.3288
53322SOL    HW165803   6.928   9.174   8.565  3.1179  0.4439  1.8585
53322SOL    HW265804   6.840   9.297   8.554  1.2372 -1.0405 -0.6999
53323SOL     OW65805   8.062  11.482   9.008  0.4155 -0.1650  0.0992
53323SOL    HW165806   8.130  11.415   9.015  0.2676 -0.3334 -0.0714
53323SOL    HW265807   8.018  11.463   8.925  1.7999  1.4903 -1.0646
53324SOL     OW65808   8.251   5.793   5.916  0.4081 -0.0098  0.1167
53324SOL    HW165809   8.282   5.783   6.006 -1.2193 -3.1864  0.4550
53324SOL    HW265810   8.313   5.854   5.876  3.0261 -0.8772  2.5391
53325SOL     OW65811   3.661   1.879   2.466  0.3482 -0.7088 -0.1263
53325SOL    HW165812   3.567   1.861   2.458  0.2320 -1.7009  2.4913
53325SOL    HW265813   3.680   1.938   2.393 -2.1797 -0.9245 -1.0650
53326SOL     OW65814   3.125   1.289   4.163 -0.0210 -0.1020 -0.3827
53326SOL    HW165815   3.091   1.357   4.104 -0.9768  0.9569  1.3061
53326SOL    HW265816   3.060   1.220   4.161 -0.3723  0.2174 -0.0987
53327SOL     OW65817   6.093   6.523   5.795 -0.0716 -0.2825 -0.1944
53327SOL    HW165818   6.084   6.449   5.855  0.4450 -0.6265 -0.5348
53327SOL    HW265819   6.003   6.551   5.779 -0.2468 -0.5319  0.3059
53328SOL     OW65820   3.893   9.281   4.733 -0.0427 -0.1812 -0.3932
53328SOL    HW165821   3.966   9.280   4.670 -0.5839 -0.7301 -1.0306
53328SOL    HW265822   3.815   9.279   4.678 -0.5375  0.2988  0.2910
53329SOL     OW65823  10.852   4.129   5.643  0.4929 -0.3757 -0.3096
53329SOL    HW165824  10.782   4.168   5.591  1.3176 -0.0284 -1.1855
53329SOL    HW265825  10.841   4.168   5.730 -2.3863 -2.7522  0.5638
53330SOL     OW65826   5.136   2.569   1.689 -0.1499  0.3617 -0.2358
53330SOL    HW165827   5.128   2.653   1.644 -0.0801  0.4075 -0.1627
53330SOL    HW265828   5.226   2.568   1.721 -0.4003  0.6223  0.4847
53331SOL     OW65829   9.471   4.448   3.328  0.0132 -0.1379  0.0304
53331SOL    HW165830   9.462   4.354   3.344  0.7193 -0.1563  0.3664
53331SOL    HW265831   9.514   4.454   3.242  1.4601 -0.1779  0.7145
53332SOL     OW65832   6.264   9.721   7.716  0.1019  0.4230 -0.1851
53332SOL    HW165833   6.222   9.634   7.714  0.6594  0.1154  0.8399
53332SOL    HW265834   6.346   9.708   7.668 -1.0702  1.1090 -2.4895
53333SOL     OW65835   0.274   3.910  11.377  0.0916 -0.0161  0.0626
53333SOL    HW165836   0.357   3.902  11.331  0.0522  3.1814 -0.8645
53333SOL    HW265837   0.232   3.986  11.336 -2.3526 -0.2539  1.9010
53334SOL     OW65838   5.207   4.425   2.538 -0.0939 -0.1836  0.6347
53334SOL    HW165839   5.298   4.413   2.510 -0.3261 -0.1418 -0.1579
53334SOL    HW265840   5.213   4.443   2.632  0.7951  0.7823  0.4159
53335SOL     OW65841   5.462   7.079   8.910  0.7540 -0.3754  0.3638
53335SOL    HW165842   5.551   7.098   8.939  0.6553  1.1148 -0.1883
53335SOL    HW265843   5.469   7.064   8.816  0.1222  2.8496 -0.3342
53336SOL     OW65844   4.639   5.209  11.624  0.1824  0.1458  0.2765
53336SOL    HW165845   4.700   5.224  11.552  0.4303 -0.1265  0.4270
53336SOL    HW265846   4.695   5.202  11.702  0.0466 -1.0908  0.2746
53337SOL     OW65847  12.096   0.505   9.626 -0.5214 -0.3106  0.4712
53337SOL    HW165848  12.082   0.468   9.713 -3.6052 -0.6579 -0.0371
53337SOL    HW265849  12.068   0.435   9.566  0.1269  0.4373 -0.7375
53338SOL     OW65850   4.489   6.406   7.198 -0.0455 -0.7105  0.8830
53338SOL    HW165851   4.431   6.395   7.122  0.1852 -1.0870  0.7611
53338SOL    HW265852   4.576   6.416   7.160  0.0469 -0.7250  1.0918
53339SOL     OW65853   9.143   3.143   0.350  0.6914  0.5109  0.2153
53339SOL    HW165854   9.204   3.199   0.302  2.1943 -1.7850 -0.6975
53339SOL    HW265855   9.196   3.099   0.416 -0.5773  0.5683  1.3179
53340SOL     OW65856  10.827   9.004   5.483  0.4112 -0.0814  0.4792
53340SOL    HW165857  10.821   8.920   5.529 -0.0612 -0.3403 -0.0412
53340SOL    HW265858  10.737   9.036   5.481  0.2941 -0.4260 -0.8993
53341SOL     OW65859   8.434   4.302   1.731  0.6977  0.1456  0.0734
53341SOL    HW165860   8.419   4.396   1.733  0.0142  0.0877 -1.0454
53341SOL    HW265861   8.523   4.291   1.763  0.7686  1.1646  0.2636
53342SOL     OW65862   9.462  11.531   1.567 -0.3521 -0.3598 -0.2652
53342SOL    HW165863   9.555  11.528   1.547 -0.3811 -1.4538 -0.2813
53342SOL    HW265864   9.456  11.513   1.661 -0.5774 -0.9295 -0.3824
53343SOL     OW65865   4.252   0.630   5.589  0.2423 -0.0315  0.0177
53343SOL    HW165866   4.201   0.558   5.551 -1.7634  1.1853  0.2627
53343SOL    HW265867   4.194   0.668   5.656  2.2416  0.2216  1.7019
53344SOL     OW65868   9.298   7.008   7.834  0.2742 -0.4019 -0.2084
53344SOL    HW165869   9.360   6.936   7.843  0.8323  0.0380 -0.4533
53344SOL    HW265870   9.224   6.970   7.786  0.5519 -0.8176 -0.3172
53345SOL     OW65871   4.107   2.724   9.618  0.2230  0.2074  0.4211
53345SOL    HW165872   4.113   2.667   9.541 -0.7831 -0.0003  0.4852
53345SOL    HW265873   4.139   2.671   9.690 -0.3318 -0.1474  0.4095
53346SOL     OW65874  11.595   8.105  11.759  0.2114  0.2314 -0.3185
53346SOL    HW165875  11.595   8.035  11.694 -1.5586  0.0590 -0.1800
53346SOL    HW265876  11.562   8.182  11.712 -0.3956  0.2863  0.1816
53347SOL     OW65877   8.944  11.152  11.009 -0.0548  0.0416 -0.2859
53347SOL    HW165878   9.029  11.190  11.032 -1.0791  0.8665  2.5947
53347SOL    HW265879   8.887  11.228  10.996 -1.4633 -0.3553  2.7532
53348SOL     OW65880   8.462  10.845   3.452  0.1426  0.5112  0.4236
53348SOL    HW165881   8.458  10.940   3.442 -1.0520  0.6111  1.5516
53348SOL    HW265882   8.528  10.830   3.520  0.0638  0.5723  0.5148
53349SOL     OW65883   2.693   9.421   9.768 -0.3778 -0.4156  0.1112
53349SOL    HW165884   2.740   9.379   9.696 -0.0009 -0.2692  0.2709
53349SOL    HW265885   2.641   9.351   9.807  2.4762 -1.5358  2.2761
53350SOL     OW65886   2.730   1.754  11.684 -0.0687  0.3528 -0.2816
53350SOL    HW165887   2.780   1.691  11.736  0.9032  1.2688 -0.0618
53350SOL    HW265888   2.749   1.731  11.594 -2.3606 -1.7278 -0.3572
53351SOL     OW65889   8.240   2.658   6.624  0.2593  0.0024 -0.4035
53351SOL    HW165890   8.274   2.573   6.652 -0.1975  0.4795  1.7646
53351SOL    HW265891   8.149   2.641   6.602  0.5519 -0.3292 -1.4032
53352SOL     OW65892   2.668   0.669   8.326  0.5406 -0.1137 -0.6602
53352SOL    HW165893   2.730   0.602   8.356 -0.0140  0.4046  1.8032
53352SOL    HW265894   2.714   0.752   8.338 -0.2421  0.2071  0.2458
53353SOL     OW65895   4.339  10.112  11.408 -0.2039  0.3492  0.0957
53353SOL    HW165896   4.294  10.034  11.378 -1.4596  1.0032  0.2108
53353SOL    HW265897   4.394  10.138  11.334  0.1343 -0.5591  0.0161
53354SOL     OW65898   4.122   3.713   4.931  0.1129 -0.2150 -0.1154
53354SOL    HW165899   4.028   3.718   4.949 -0.4324 -0.0952 -2.6269
53354SOL    HW265900   4.143   3.798   4.892  0.9628 -0.6954 -0.7512
53355SOL     OW65901   9.080   7.895   4.641  0.3052  0.0794 -0.0343
53355SOL    HW165902   9.034   7.979   4.645 -0.4077 -0.3164  0.3643
53355SOL    HW265903   9.171   7.916   4.660  0.4499  0.9976 -1.6187
53356SOL     OW65904   0.657  11.727   4.669  0.1041  0.2438 -0.4999
53356SOL    HW165905   0.724  11.773   4.721  1.0270 -1.4893 -0.0903
53356SOL    HW265906   0.687  11.636   4.666 -1.1236 -0.1494 -2.1784
53357SOL     OW65907   3.067  10.286   8.853 -0.8373 -0.2812  0.5307
53357SOL    HW165908   3.068  10.284   8.757 -0.6856 -0.2279  0.5301
53357SOL    HW265909   3.016  10.209   8.878 -1.0488 -0.1837  0.4044
53358SOL     OW65910   1.376   2.641   2.814 -0.3178  0.3094 -0.4045
53358SOL    HW165911   1.425   2.634   2.733  1.1797 -0.6648  0.5309
53358SOL    HW265912   1.438   2.681   2.876 -1.8106  2.1537 -0.0187
53359SOL     OW65913   8.589   5.060   7.319  0.0143 -0.0824 -0.3181
53359SOL    HW165914   8.590   5.036   7.227 -0.9776  0.9527 -0.6305
53359SOL    HW265915   8.511   5.115   7.328  0.7566  0.8150  0.8828
53360SOL     OW65916  10.271   1.800   8.388 -0.1360 -0.0021  0.0063
53360SOL    HW165917  10.194   1.804   8.444  0.2294  0.8330  0.4804
53360SOL    HW265918  10.344   1.785   8.449  0.0234 -1.3093 -0.4902
53361SOL     OW65919   7.119   0.648  11.190 -0.0238 -0.4993  0.2283
53361SOL    HW165920   7.039   0.600  11.167 -0.4282  0.9880 -1.7136
53361SOL    HW265921   7.092   0.709  11.258 -1.2728  1.6937 -2.0468
53362SOL     OW65922   8.084   8.295  11.804 -0.6344  0.5271  0.5126
53362SOL    HW165923   8.087   8.215  11.751 -0.5650  1.2818 -0.6551
53362SOL    HW265924   8.021   8.351  11.759  1.1015  2.0856 -0.1014
53363SOL     OW65925   7.490   7.837  10.919 -0.5239 -0.1115 -0.7271
53363SOL    HW165926   7.487   7.931  10.937 -0.5291 -0.2989  0.3470
53363SOL    HW265927   7.579   7.820  10.888  0.2211 -0.0800  1.2266
53364SOL     OW65928   8.551  10.127   0.727  0.4122  0.1160 -0.2672
53364SOL    HW165929   8.494  10.116   0.651 -0.8317 -0.0271  0.6626
53364SOL    HW265930   8.609  10.051   0.725 -1.6497 -1.5490  0.6183
53365SOL     OW65931  10.461   7.849   0.135 -0.7642 -0.7864 -0.5463
53365SOL    HW165932  10.376   7.883   0.109 -0.2737  0.1321 -1.0247
53365SOL    HW265933  10.475   7.883   0.223 -0.1512  0.5598 -1.1316
53366SOL     OW65934   4.377   1.472   2.618 -0.1812 -0.0840  0.1942
53366SOL    HW165935   4.434   1.396   2.624 -0.5284 -0.2585  1.6994
53366SOL    HW265936   4.381   1.512   2.705  0.2071  1.7905 -0.6143
53367SOL     OW65937   5.548   6.126   3.997  0.0433  0.2660 -0.3429
53367SOL    HW165938   5.470   6.071   4.003 -0.4462  1.0978  1.5150
53367SOL    HW265939   5.537   6.191   4.066  1.8363  1.1220 -0.8098
53368SOL     OW65940   0.675   5.923   6.645 -0.2781 -0.2995  0.3158
53368SOL    HW165941   0.659   5.965   6.729  0.0458  2.4093 -0.8626
53368SOL    HW265942   0.658   5.992   6.580  0.6081 -1.9344 -1.7831
53369SOL     OW65943   1.061   5.734   6.086  0.8152 -0.3168  0.1271
53369SOL    HW165944   0.972   5.733   6.123  0.6426 -0.1457 -0.2763
53369SOL    HW265945   1.050   5.775   6.000  1.0987 -1.3439 -0.4076
53370SOL     OW65946   3.114  12.022   3.666  0.7088  0.3935  0.7367
53370SOL    HW165947   3.096  11.991   3.754 -0.3285  1.6186  0.9887
53370SOL    HW265948   3.080  12.111   3.664 -1.5473 -0.3841 -1.6029
53371SOL     OW65949   4.735  11.421   7.298  0.0889  0.1652 -0.6450
53371SOL    HW165950   4.703  11.372   7.374  0.7081  0.9256  0.1358
53371SOL    HW265951   4.782  11.357   7.246  0.8400 -0.1078  0.3312
53372SOL     OW65952   5.899  11.000   8.361 -0.1780  0.0830  0.1541
53372SOL    HW165953   5.832  11.065   8.381  0.3901  0.9757 -0.7479
53372SOL    HW265954   5.881  10.928   8.421 -0.7143  1.1413  1.3187
53373SOL     OW65955   0.627   9.750   4.806 -0.1146  0.0744  0.0891
53373SOL    HW165956   0.679   9.797   4.742  0.4589 -0.4384  0.1702
53373SOL    HW265957   0.688   9.690   4.848 -0.4424  0.5053  1.2239
53374SOL     OW65958   7.152   4.864   5.930 -0.2553  0.5796  0.0008
53374SOL    HW165959   7.166   4.859   5.836 -1.1980  0.9647 -0.1720
53374SOL    HW265960   7.218   4.925   5.962 -0.0015  0.5278 -0.4228
53375SOL     OW65961   4.819   0.992   8.774  0.4423 -0.5310 -0.3672
53375SOL    HW165962   4.829   1.075   8.821  0.3118 -1.2238  0.9320
53375SOL    HW265963   4.881   0.932   8.817 -0.1070 -1.3418 -0.6760
53376SOL     OW65964   9.097   0.748   4.556  0.5913  0.6509 -0.1299
53376SOL    HW165965   9.177   0.787   4.521 -0.2174  2.7361  0.1605
53376SOL    HW265966   9.041   0.823   4.577 -1.1787 -0.7137  0.3194
53377SOL     OW65967  10.416   7.227   7.487  0.1269 -0.0544 -0.1111
53377SOL    HW165968  10.362   7.152   7.462  0.6641 -0.9185  1.1956
53377SOL    HW265969  10.352   7.294   7.514 -0.3244 -0.6789  0.4001
53378SOL     OW65970   4.310   3.132   6.010 -0.0100  0.5124  0.1792
53378SOL    HW165971   4.246   3.062   6.020 -2.1136  2.2603 -0.5333
53378SOL    HW265972   4.319   3.144   5.916 -0.0472  1.5336  0.3005
53379SOL     OW65973   9.443  11.323   8.592 -0.1315  0.5023  0.5056
53379SOL    HW165974   9.400  11.268   8.658 -1.5937  1.7845  0.6527
53379SOL    HW265975   9.525  11.349   8.634 -0.5404  0.4107  1.3926
53380SOL     OW65976   4.603   3.486  10.391  0.2883 -0.9285 -1.0016
53380SOL    HW165977   4.536   3.424  10.419  0.3842 -0.8469 -0.5784
53380SOL    HW265978   4.568   3.572  10.414  1.8030 -1.0153  2.1033
53381SOL     OW65979   1.105   8.374   9.492  0.5635 -0.2737  0.5185
53381SOL    HW165980   1.035   8.319   9.530 -0.8812  0.6263 -0.7348
53381SOL    HW265981   1.160   8.312   9.445  0.3588 -0.9559  1.1485
53382SOL     OW65982  11.140  10.012  11.952 -0.0630  0.3625  0.0674
53382SOL    HW165983  11.169  10.059  11.874 -1.5642 -1.3230 -1.5981
53382SOL    HW265984  11.052  10.046  11.969 -0.1429 -0.0109  0.4091
53383SOL     OW65985   9.225   7.273   5.989  0.4790 -0.6022  0.5045
53383SOL    HW165986   9.155   7.305   5.932 -0.5112 -2.9507  0.2945
53383SOL    HW265987   9.306   7.304   5.948 -0.3060 -0.4752 -1.0074
53384SOL     OW65988   2.553   9.574   8.993  0.6626  0.4490  0.1102
53384SOL    HW165989   2.628   9.515   9.008  1.1614  0.7794 -0.9895
53384SOL    HW265990   2.588   9.661   9.009  0.0101  0.4887  1.4073
53385SOL     OW65991   6.876   1.215   0.881  0.4239  0.1606 -0.0313
53385SOL    HW165992   6.814   1.233   0.811  1.3133  0.7458 -0.6953
53385SOL    HW265993   6.953   1.180   0.836  0.4272 -0.9479  0.8137
53386SOL     OW65994   1.069  11.209  11.097 -0.6662 -0.4674 -0.0122
53386SOL    HW165995   1.055  11.220  11.191 -0.7316 -0.1438 -0.0590
53386SOL    HW265996   1.072  11.299  11.063 -2.1141 -0.5888 -0.5353
53387SOL     OW65997  11.008   9.164   5.351 -0.4566 -0.0103  0.0636
53387SOL    HW165998  10.952   9.087   5.360 -0.0867 -0.3328 -0.3568
53387SOL    HW265999  10.947   9.237   5.342 -0.8101 -0.2941  0.1471
53388SOL     OW66000   0.280   1.087   6.577  0.5447 -0.1068  0.5594
53388SOL    HW166001   0.351   1.150   6.570  1.9592 -1.8383 -3.1306
53388SOL    HW266002   0.214   1.118   6.515  0.8973 -1.7050 -0.6852
53389SOL     OW66003   6.754   5.453  10.900 -0.1422 -0.1212  0.4171
53389SOL    HW166004   6.829   5.394  10.907 -0.2408 -0.2389  0.4883
53389SOL    HW266005   6.680   5.403  10.935 -0.7036 -0.8391 -1.6269
53390SOL     OW66006  11.016   9.004   2.045  0.3265 -0.8030  0.2853
53390SOL    HW166007  10.939   9.048   2.082  0.4963 -0.0931 -0.1758
53390SOL    HW266008  10.980   8.928   2.000 -0.1393 -0.3920 -0.0561
53391SOL     OW66009   8.496  11.056   7.987 -0.5167 -0.2506 -0.2650
53391SOL    HW166010   8.441  10.984   7.959 -1.8176  1.1433 -1.5127
53391SOL    HW266011   8.522  11.100   7.906  2.2674 -0.6765  0.2814
53392SOL     OW66012   8.340   1.644  11.669 -0.3526 -0.3381  0.2593
53392SOL    HW166013   8.311   1.594  11.746 -0.4776  1.1078  1.1727
53392SOL    HW266014   8.260   1.684  11.635 -0.0155  0.5600  0.5067
53393SOL     OW66015  10.313  11.328   5.691 -0.3177 -0.1849  0.0287
53393SOL    HW166016  10.356  11.299   5.771 -1.5123 -0.0919  0.7337
53393SOL    HW266017  10.371  11.394   5.654 -0.0990  0.2950  1.2061
53394SOL     OW66018   8.058   9.284   6.263  0.2493  0.1168  0.2122
53394SOL    HW166019   8.055   9.245   6.351  0.7806 -3.0428 -1.0549
53394SOL    HW266020   7.986   9.347   6.263 -0.9409 -1.1188  2.3399
53395SOL     OW66021   1.997   8.763   1.539 -0.1947  0.1652 -0.0574
53395SOL    HW166022   1.982   8.682   1.587  1.1734 -0.0562  0.0351
53395SOL    HW266023   1.970   8.832   1.599 -0.5925 -0.1850  0.1718
53396SOL     OW66024   3.557   9.616   3.754  0.0574 -0.1194  0.2249
53396SOL    HW166025   3.644   9.649   3.733  0.2431 -0.0699  1.0141
53396SOL    HW266026   3.544   9.641   3.846 -0.1208 -1.5131  0.6040
53397SOL     OW66027  10.249   5.208  12.294 -0.4404  0.0285 -0.3976
53397SOL    HW166028  10.335   5.249  12.282 -0.8243  1.0789  0.3542
53397SOL    HW266029  10.269   5.120  12.325  0.3722  0.3953  0.1508
53398SOL     OW66030  12.203   0.632   9.168 -0.3066 -0.0494 -0.1515
53398SOL    HW166031  12.193   0.537   9.180 -0.8536  0.1812  1.4425
53398SOL    HW266032  12.295   0.644   9.146 -0.4706 -1.0421 -1.5303
53399SOL     OW66033   5.663   2.875  11.135  0.2053 -0.0617 -0.6539
53399SOL    HW166034   5.722   2.824  11.080  0.1732  1.2424 -1.9331
53399SOL    HW266035   5.647   2.956  11.087 -0.5228  0.7626  0.8737
53400SOL     OW66036  11.634   6.531  11.964 -0.3129  0.2708  0.2813
53400SOL    HW166037  11.570   6.567  11.902 -0.0015  0.5736  0.1384
53400SOL    HW266038  11.657   6.604  12.021  2.0706  0.9669 -1.4447
53401SOL     OW66039  10.516  11.042  11.723  0.1429  0.3347  0.2320
53401SOL    HW166040  10.595  11.000  11.757 -1.0520 -2.3724 -0.1243
53401SOL    HW266041  10.458  11.049  11.799 -0.0076  0.5687  0.0971
53402SOL     OW66042   0.779  12.189   1.927 -0.1474 -0.4292 -0.4046
53402SOL    HW166043   0.847  12.253   1.947 -0.1928 -0.3077 -0.6403
53402SOL    HW266044   0.704  12.216   1.979  0.1440 -0.8584  0.2541
53403SOL     OW66045   3.693   4.411   5.290 -0.9043 -0.8218  0.8659
53403SOL    HW166046   3.598   4.423   5.283 -0.9163 -0.9626  0.7691
53403SOL    HW266047   3.722   4.404   5.199 -0.4496  1.7348  0.7522
53404SOL     OW66048   7.378   1.653   1.876  0.4481 -0.1972  0.1238
53404SOL    HW166049   7.298   1.651   1.823  1.1681  0.7300 -1.0295
53404SOL    HW266050   7.391   1.745   1.897  1.1332 -0.3614  0.4376
53405SOL     OW66051   3.421   7.858  11.507  0.5091  0.6362  0.1443
53405SOL    HW166052   3.428   7.942  11.462  1.0454  1.2772  1.3626
53405SOL    HW266053   3.345   7.868  11.564  1.5463  0.9314  1.5284
53406SOL     OW66054   5.389   8.828   0.244  0.6381 -0.5593 -0.5497
53406SOL    HW166055   5.375   8.735   0.264  0.6874 -0.4273  0.1359
53406SOL    HW266056   5.362   8.874   0.324  0.0237  0.0628 -1.0966
53407SOL     OW66057   0.118   1.926   1.406  0.0206 -0.4772 -0.0940
53407SOL    HW166058   0.115   1.918   1.311  0.3959  0.1089 -0.1620
53407SOL    HW266059   0.118   1.836   1.438  2.3660 -0.7725 -0.7403
53408SOL     OW66060   8.267   0.942   6.396 -0.2386 -0.4466 -0.5202
53408SOL    HW166061   8.219   1.023   6.411  1.2679  0.3760  0.1371
53408SOL    HW266062   8.259   0.894   6.478  1.1693  0.3456  0.1372
53409SOL     OW66063   3.663   7.996  12.111  0.0838  0.1194 -0.1181
53409SOL    HW166064   3.577   7.958  12.091 -1.1958  3.4040 -1.6006
53409SOL    HW266065   3.647   8.054  12.185  1.4775 -0.5295  0.7347
53410SOL     OW66066   1.071  11.504   3.742  0.1968  0.2750  1.1016
53410SOL    HW166067   0.981  11.513   3.712 -0.1557  1.4761  2.4108
53410SOL    HW266068   1.096  11.415   3.717 -1.4175 -0.1581  0.9040
53411SOL     OW66069   2.352  11.936  11.779  0.4213 -0.2387  0.0310
53411SOL    HW166070   2.387  12.008  11.726  1.4522 -0.8994 -0.2165
53411SOL    HW266071   2.393  11.858  11.743  0.8329 -0.7505  1.5568
53412SOL     OW66072   5.626   3.348   6.806 -0.0108 -0.2184 -0.1639
53412SOL    HW166073   5.586   3.296   6.736 -0.0852 -0.4222  0.0266
53412SOL    HW266074   5.582   3.433   6.801 -0.7742 -0.5723  0.3102
53413SOL     OW66075   0.184  11.657   2.288 -0.1295  0.1948 -0.0587
53413SOL    HW166076   0.142  11.723   2.233  0.1468  1.0115  0.7046
53413SOL    HW266077   0.213  11.590   2.225 -0.8587  0.5400 -0.7850
53414SOL     OW66078   2.573  10.435  11.328 -0.0996  0.3328 -0.3675
53414SOL    HW166079   2.626  10.409  11.403  0.8981  0.7816 -0.8988
53414SOL    HW266080   2.525  10.512  11.358  0.6311  0.7762 -0.3273
53415SOL     OW66081   8.629   9.520  12.223  0.6920 -0.0030  0.2949
53415SOL    HW166082   8.707   9.562  12.188  0.7735  0.6741  1.2532
53415SOL    HW266083   8.649   9.426  12.221  1.5551  0.1671  0.5857
53416SOL     OW66084   9.578   2.501  10.651 -0.2471 -0.0875 -0.2378
53416SOL    HW166085   9.577   2.507  10.555 -3.7078 -1.0772 -0.4003
53416SOL    HW266086   9.493   2.536  10.678  0.1827 -0.8623  2.3890
53417SOL     OW66087   6.670   0.969  10.670 -0.5166 -0.2543 -0.1800
53417SOL    HW166088   6.587   1.017  10.662 -0.0188  0.5708 -0.6436
53417SOL    HW266089   6.737   1.038  10.666  0.2148 -0.9763 -0.5826
53418SOL     OW66090  12.284  10.588   9.733  0.5345 -0.3441  0.0395
53418SOL    HW166091  12.271  10.514   9.674 -0.1358  1.0373 -1.6651
53418SOL    HW266092  12.248  10.559   9.817 -2.8862 -0.8708 -1.4158
53419SOL     OW66093  11.550   2.249  10.587  0.7395 -0.6141 -0.6871
53419SOL    HW166094  11.478   2.312  10.579  1.7176  0.6960  0.3499
53419SOL    HW266095  11.602   2.281  10.660  0.6176 -3.3453  0.7470
53420SOL     OW66096   4.297   7.293   7.986  0.3998  0.2169  0.3514
53420SOL    HW166097   4.345   7.365   7.944 -1.2078  1.2009  0.1378
53420SOL    HW266098   4.220   7.281   7.932 -0.6719  0.0879  1.8547
53421SOL     OW66099  11.795   5.711   7.783  0.1279  0.0932  0.4021
53421SOL    HW166100  11.757   5.657   7.714 -0.2382 -0.7548  1.2494
53421SOL    HW266101  11.805   5.652   7.857 -0.0616  1.1247  1.2809
53422SOL     OW66102   9.927   3.279   6.951  0.4817  0.3662 -0.0095
53422SOL    HW166103   9.861   3.326   6.901  1.0920  2.1167  0.7697
53422SOL    HW266104   9.923   3.189   6.918 -3.4722 -0.0632  1.1957
53423SOL     OW66105   3.730   4.809   0.382 -0.0148 -0.8934 -0.2201
53423SOL    HW166106   3.779   4.883   0.415 -1.8808 -0.9066  2.9868
53423SOL    HW266107   3.788   4.734   0.395  0.0742 -0.6022  1.3082
53424SOL     OW66108   7.544   7.637   8.567 -0.0654  0.0297 -0.7153
53424SOL    HW166109   7.545   7.666   8.658  1.0040 -0.7850 -0.4365
53424SOL    HW266110   7.597   7.702   8.520 -1.4510  1.0077 -0.9643
53425SOL     OW66111  11.346   5.797   2.706  0.6699  0.0538  0.0902
53425SOL    HW166112  11.251   5.801   2.710  0.6784  1.7742 -0.5233
53425SOL    HW266113  11.373   5.772   2.794 -0.3714 -1.7927 -0.0692
53426SOL     OW66114   6.450   3.490   4.358  0.4021 -0.1892 -0.0639
53426SOL    HW166115   6.354   3.489   4.356  0.3754 -1.2286  0.8339
53426SOL    HW266116   6.474   3.573   4.317 -0.9513  1.5382  2.3910
53427SOL     OW66117   7.844   8.354   5.329 -0.0896 -0.5466  0.0317
53427SOL    HW166118   7.758   8.316   5.312 -0.7431  1.0903 -0.5988
53427SOL    HW266119   7.826   8.443   5.360  1.3612 -0.5227  0.9431
53428SOL     OW66120   0.343   6.304   9.579 -0.1916  0.0532 -0.4966
53428SOL    HW166121   0.322   6.390   9.544 -3.4618 -0.5695 -0.3769
53428SOL    HW266122   0.347   6.247   9.502  0.1901 -0.0010 -0.4386
53429SOL     OW66123   2.616   2.086   4.318 -0.1334 -0.0432 -0.3195
53429SOL    HW166124   2.671   2.157   4.352  0.2536  0.0859 -1.1857
53429SOL    HW266125   2.677   2.014   4.303 -0.4419 -0.3846  0.0543
53430SOL     OW66126   9.337   7.221   4.177  0.1566 -0.4100  0.0183
53430SOL    HW166127   9.427   7.192   4.190 -0.2771 -1.0443  1.9163
53430SOL    HW266128   9.314   7.264   4.260 -1.1023  0.2561 -0.6530
53431SOL     OW66129   5.000   3.588   2.280  0.1973  0.2869  0.2220
53431SOL    HW166130   4.951   3.527   2.335  1.2571  0.6374  1.5828
53431SOL    HW266131   4.940   3.662   2.267 -1.5320 -1.3736 -2.3399
53432SOL     OW66132   1.807   1.852   4.095  0.0926 -0.5953  0.6084
53432SOL    HW166133   1.797   1.866   4.001  1.7438 -1.2372  0.3022
53432SOL    HW266134   1.723   1.817   4.124 -0.0885 -1.3876 -0.8202
53433SOL     OW66135  11.877   1.500   4.585 -0.4607 -0.7882 -0.8313
53433SOL    HW166136  11.863   1.407   4.600  1.1787 -1.1506 -1.3613
53433SOL    HW266137  11.801   1.543   4.624 -0.3988 -2.2185  0.9480
53434SOL     OW66138   1.195   4.512   4.667 -0.1558  0.2352  0.2671
53434SOL    HW166139   1.132   4.578   4.695  1.4769  1.9669  0.0294
53434SOL    HW266140   1.158   4.475   4.587 -1.1271  0.8262  0.4343
53435SOL     OW66141   2.051   2.645   5.576  0.4141  0.0250  0.1634
53435SOL    HW166142   2.092   2.597   5.504  1.1590 -0.1308  0.6809
53435SOL    HW266143   1.972   2.683   5.538  1.4750  1.0710 -1.1016
53436SOL     OW66144   4.278   0.402   4.163 -0.2645 -0.1615  0.3564
53436SOL    HW166145   4.214   0.334   4.183  0.9172 -1.0831  1.2000
53436SOL    HW266146   4.227   0.473   4.125 -1.9899 -0.2825  2.2647
53437SOL     OW66147   3.192   5.758   9.879 -0.6303  0.5924  0.3665
53437SOL    HW166148   3.261   5.752   9.813 -1.5184 -0.0536 -0.5351
53437SOL    HW266149   3.141   5.678   9.868 -0.9429  0.5810  1.6975
53438SOL     OW66150   8.578   6.821   8.859  0.4450 -0.3817 -0.3026
53438SOL    HW166151   8.613   6.906   8.833 -0.6746  0.1557 -0.0666
53438SOL    HW266152   8.656   6.767   8.874  1.1545  0.4649 -0.8775
53439SOL     OW66153   0.725   0.549   2.251 -0.0987 -0.1064 -0.5733
53439SOL    HW166154   0.733   0.500   2.333  0.2767  1.6187  0.4793
53439SOL    HW266155   0.667   0.622   2.273  0.3259  0.6094 -1.7518
53440SOL     OW66156   8.569   6.359   2.436  0.1990 -0.3741 -0.0459
53440SOL    HW166157   8.643   6.329   2.383  3.4462  1.6718  2.8751
53440SOL    HW266158   8.581   6.315   2.520  0.8538  3.2116  1.9489
53441SOL     OW66159   4.422   2.536   0.757  0.7183 -0.0696  0.2402
53441SOL    HW166160   4.497   2.566   0.808  3.4988 -0.9343 -3.0025
53441SOL    HW266161   4.409   2.603   0.690 -2.0257  0.4394  1.1363
53442SOL     OW66162   0.443   7.510   9.111 -0.9059  0.4891  0.2926
53442SOL    HW166163   0.449   7.525   9.017  2.1977  1.9258  0.5906
53442SOL    HW266164   0.384   7.578   9.143 -2.3264 -0.2739 -0.6110
53443SOL     OW66165  11.822   8.522   9.776 -0.0842 -0.4242 -0.2752
53443SOL    HW166166  11.870   8.444   9.748  0.0150 -0.0517 -1.1732
53443SOL    HW266167  11.796   8.503   9.866  1.1585 -0.9250  0.0018
53444SOL     OW66168   1.429   1.053  11.250 -0.3342 -0.4446 -0.6977
53444SOL    HW166169   1.447   1.132  11.199  0.0183 -0.7756 -1.0806
53444SOL    HW266170   1.421   0.983  11.186  0.1067 -0.8640 -0.3044
53445SOL     OW66171   4.540   8.742   2.269  0.0819  0.4540 -0.1439
53445SOL    HW166172   4.622   8.737   2.221  0.5881  3.2908  0.2839
53445SOL    HW266173   4.503   8.654   2.263  1.9674 -0.2659 -2.3978
53446SOL     OW66174   9.109   0.276   1.975 -0.3586 -0.3217 -0.4205
53446SOL    HW166175   9.098   0.190   2.016 -0.7606  0.5044  1.3076
53446SOL    HW266176   9.193   0.271   1.929 -0.0657 -1.4299  0.2020
53447SOL     OW66177  11.513   1.435   4.029  0.4195  0.0374  0.1631
53447SOL    HW166178  11.562   1.415   4.109  1.4059  1.6976  0.0150
53447SOL    HW266179  11.428   1.392   4.042  1.3440 -1.6127  1.0998
53448SOL     OW66180   0.196   8.904   2.143  0.2857 -0.1164  0.2144
53448SOL    HW166181   0.105   8.911   2.114  0.7771  0.1754 -1.3876
53448SOL    HW266182   0.193   8.919   2.237 -1.2825  0.2176  0.1378
53449SOL     OW66183   2.719   1.674   2.174  0.0826 -0.3862 -0.1214
53449SOL    HW166184   2.804   1.645   2.209  0.0608 -1.2924 -0.7883
53449SOL    HW266185   2.656   1.647   2.241  0.4075  1.2698  0.8968
53450SOL     OW66186   3.625  11.484   1.001  0.4572 -0.7840 -0.0867
53450SOL    HW166187   3.698  11.525   1.047  0.9647 -2.0092  0.2250
53450SOL    HW266188   3.578  11.435   1.069  1.8921 -3.5956 -0.9586
53451SOL     OW66189   0.535  10.017  10.406  0.0392  0.1025 -0.4355
53451SOL    HW166190   0.461  10.069  10.375 -1.3087 -0.6528  1.3460
53451SOL    HW266191   0.509   9.926  10.389 -0.6492 -0.3366  2.4748
53452SOL     OW66192   6.019   1.651   6.519  0.1485 -0.3077 -0.2022
53452SOL    HW166193   6.040   1.721   6.457 -0.7030  0.6890  0.6041
53452SOL    HW266194   5.931   1.622   6.493  1.0137 -2.0798 -1.3979
53453SOL     OW66195  12.086   2.854  11.938 -0.0982 -0.3917 -0.1475
53453SOL    HW166196  12.129   2.785  11.887  0.0737 -1.2070  1.0819
53453SOL    HW266197  12.150   2.925  11.941  0.0423 -0.4868 -0.7211
53454SOL     OW66198  11.624   2.235   0.644  0.1056 -0.2915 -0.1721
53454SOL    HW166199  11.682   2.310   0.636  1.3201 -1.2584 -0.9221
53454SOL    HW266200  11.573   2.235   0.563 -2.3771  1.6166  1.2515
53455SOL     OW66201   3.537   5.745   6.384 -0.0749  0.3044  0.0977
53455SOL    HW166202   3.476   5.809   6.420 -1.0467  0.1825 -1.2414
53455SOL    HW266203   3.572   5.787   6.305  1.1642  0.1470  0.5475
53456SOL     OW66204   7.567   2.566   6.734  0.3070  0.2101 -0.5034
53456SOL    HW166205   7.567   2.495   6.799 -1.4059 -0.8691 -1.6201
53456SOL    HW266206   7.660   2.580   6.714  0.7421 -0.8742  0.6321
53457SOL     OW66207  11.283   3.213   2.461 -0.5772 -0.2332 -0.0459
53457SOL    HW166208  11.290   3.268   2.382 -0.8725 -0.4745 -0.2435
53457SOL    HW266209  11.374   3.195   2.486 -0.4727  0.6370  0.2288
53458SOL     OW66210  11.337   7.370   4.448 -0.4313 -0.2702 -0.6205
53458SOL    HW166211  11.370   7.312   4.516 -1.8781 -1.2352 -0.6942
53458SOL    HW266212  11.391   7.350   4.372  1.0765  0.6872  0.1726
53459SOL     OW66213  10.952   4.382  10.859 -0.2803  0.2235 -0.3592
53459SOL    HW166214  11.013   4.454  10.875  0.7535 -0.8467  0.7439
53459SOL    HW266215  10.874   4.424  10.822  1.2926  1.5787 -2.3367
53460SOL     OW66216   0.168  12.248   6.915 -0.0610 -0.1319 -0.0280
53460SOL    HW166217   0.108  12.317   6.942  0.7109 -0.2306  2.1379
53460SOL    HW266218   0.182  12.264   6.821 -0.8974  1.8510  0.1335
53461SOL     OW66219   2.085   6.201  12.049  0.1870 -0.8373 -0.2592
53461SOL    HW166220   2.066   6.118  12.006 -0.7092  0.0980 -1.7528
53461SOL    HW266221   1.999   6.239  12.067  0.5753  0.1943 -0.4908
53462SOL     OW66222   7.406   1.275   2.116  0.6214 -0.2145 -0.0192
53462SOL    HW166223   7.335   1.221   2.150  1.7389 -0.2291  2.5815
53462SOL    HW266224   7.385   1.363   2.147  1.0736 -0.0002 -0.3161
53463SOL     OW66225   5.391   3.280   6.360 -0.5693  0.2201 -0.3524
53463SOL    HW166226   5.354   3.208   6.411  1.4154 -0.4169  0.2905
53463SOL    HW266227   5.471   3.243   6.322  0.6717  2.1708  0.2572
53464SOL     OW66228   8.886   6.951   1.249  0.4172 -0.2886 -0.6994
53464SOL    HW166229   8.862   6.888   1.317 -2.2662 -0.3544 -1.6244
53464SOL    HW266230   8.905   6.897   1.172  3.4819 -0.2181 -0.1234
53465SOL     OW66231   6.755   1.857   5.866  0.3948  0.4212 -0.9401
53465SOL    HW166232   6.665   1.834   5.846 -0.0554  0.8623  0.4847
53465SOL    HW266233   6.806   1.780   5.838 -0.6433 -0.6615  0.0058
53466SOL     OW66234   6.537   2.581   3.686 -0.2371 -0.2139 -0.0162
53466SOL    HW166235   6.480   2.504   3.690 -2.3740  1.2869  0.0918
53466SOL    HW266236   6.559   2.590   3.593  0.1437 -0.9986 -0.0135
53467SOL     OW66237   7.078  11.315   7.544 -0.7062  0.2742  0.2390
53467SOL    HW166238   7.029  11.275   7.615 -1.6147  0.1937 -0.4286
53467SOL    HW266239   7.091  11.245   7.481  0.8638  0.1120  0.6843
53468SOL     OW66240  11.402  12.124  10.267 -0.5995  0.2994  0.0928
53468SOL    HW166241  11.358  12.209  10.271 -2.8595 -0.8140  0.5904
53468SOL    HW266242  11.444  12.115  10.352  0.1134  1.1311 -0.1630
53469SOL     OW66243   6.013   3.301   3.121  0.2531  0.4725 -0.2344
53469SOL    HW166244   6.075   3.366   3.088 -1.9152  2.4257 -0.8195
53469SOL    HW266245   6.008   3.318   3.215  0.9766 -0.0417 -0.1012
53470SOL     OW66246   7.243   0.766  10.027  0.0655  0.4006 -0.0656
53470SOL    HW166247   7.309   0.716  10.075 -1.2480 -0.8837  0.4718
53470SOL    HW266248   7.207   0.827  10.091 -0.8592 -0.4938  0.2817
53471SOL     OW66249   0.184   8.840   6.649 -0.2153 -0.1622 -0.0947
53471SOL    HW166250   0.225   8.859   6.733 -0.9715  0.5906  0.1108
53471SOL    HW266251   0.192   8.745   6.640 -0.4608 -0.3015  1.0032
53472SOL     OW66252   9.768   4.055   3.763  0.7711  0.3618  0.3793
53472SOL    HW166253   9.709   4.120   3.726 -0.5873 -1.1832 -0.2562
53472SOL    HW266254   9.713   3.978   3.779  2.8127 -1.7154 -1.6948
53473SOL     OW66255  12.042  11.247   6.149  0.1285  0.1197 -0.0786
53473SOL    HW166256  12.091  11.177   6.194  1.0297  0.5863 -0.3253
53473SOL    HW266257  12.082  11.328   6.180 -0.0839  0.4888 -0.7529
53474SOL     OW66258   7.881   6.946  12.272 -0.0902 -0.3637 -0.3134
53474SOL    HW166259   7.895   6.866  12.322 -0.0860  0.0252  0.3206
53474SOL    HW266260   7.803   6.929  12.220  0.8382 -1.3733 -1.4351
53475SOL     OW66261  11.078   6.459  11.887 -0.3437  0.0462  0.3912
53475SOL    HW166262  11.066   6.522  11.816 -0.8500 -0.4244  0.0516
53475SOL    HW266263  11.135   6.392  11.850  0.6824  0.5939  0.9437
53476SOL     OW66264   5.703   9.321   9.090  0.6700  0.7141  0.2046
53476SOL    HW166265   5.673   9.319   8.999  1.6489 -0.2494 -0.1195
53476SOL    HW266266   5.649   9.256   9.135  0.5388  0.8227  0.2075
53477SOL     OW66267   9.145   4.147   6.889  0.0603  0.3065  0.2270
53477SOL    HW166268   9.098   4.066   6.870 -0.0307  0.3838  0.1220
53477SOL    HW266269   9.077   4.215   6.888  0.3613  0.6228 -1.2488
53478SOL     OW66270   2.458   1.370   3.932  0.4729 -0.2088 -0.1803
53478SOL    HW166271   2.482   1.381   4.024 -0.7785 -0.9596  0.2679
53478SOL    HW266272   2.458   1.275   3.919 -0.2457 -0.1415 -0.7121
53479SOL     OW66273  11.716   5.615   1.060 -0.2365 -0.0769 -0.4408
53479SOL    HW166274  11.690   5.706   1.052  0.6017  0.1832 -0.3747
53479SOL    HW266275  11.786   5.616   1.126 -1.3400 -1.0008  0.8202
53480SOL     OW66276   4.611   7.612   5.558  0.7056 -0.3171 -0.0838
53480SOL    HW166277   4.673   7.576   5.621 -0.6194  0.2038  1.5703
53480SOL    HW266278   4.535   7.555   5.562 -0.1792  0.8513  0.2703
53481SOL     OW66279   0.728   1.315   3.281 -0.1139  0.5265 -0.1709
53481SOL    HW166280   0.799   1.328   3.344 -0.9888  1.5687  0.6369
53481SOL    HW266281   0.648   1.322   3.333 -0.8816  1.9565 -1.4511
53482SOL     OW66282  11.396   4.160  10.580 -0.2141 -0.2060 -0.7015
53482SOL    HW166283  11.481   4.199  10.563 -1.0586  1.8602 -0.4066
53482SOL    HW266284  11.375   4.113  10.499  0.6701  0.2587 -1.2132
53483SOL     OW66285   4.408  11.206   0.979 -0.9240  0.0504  0.1605
53483SOL    HW166286   4.387  11.152   1.055 -0.4568 -1.2952 -0.6367
53483SOL    HW266287   4.352  11.174   0.910  0.1756 -0.2206 -0.6388
53484SOL     OW66288   4.519   2.706   2.503  0.3840  0.1873  0.3571
53484SOL    HW166289   4.511   2.629   2.447  0.0964 -0.6605  1.5195
53484SOL    HW266290   4.435   2.750   2.495  0.4173  0.1791 -0.0341
53485SOL     OW66291   6.318   4.681  10.947 -0.4010  0.2174 -0.3033
53485SOL    HW166292   6.395   4.643  10.904 -0.5080 -0.5785  0.1848
53485SOL    HW266293   6.248   4.671  10.882 -0.6365 -1.2804  0.1294
53486SOL     OW66294   1.234   7.089  10.281  0.1772 -0.2563  0.1770
53486SOL    HW166295   1.271   7.062  10.197  1.1749  0.0765  0.5034
53486SOL    HW266296   1.300   7.145  10.320 -0.2302 -0.4918  1.2418
53487SOL     OW66297   9.495   1.205   7.356  0.6003  0.0780 -0.2869
53487SOL    HW166298   9.558   1.137   7.333  0.6621  0.3415 -0.9141
53487SOL    HW266299   9.547   1.284   7.363  0.6148 -0.0208  0.9705
53488SOL     OW66300   0.375   6.896   9.398 -0.1512  0.1681 -0.2024
53488SOL    HW166301   0.317   6.852   9.460 -0.9360  0.5404 -0.6541
53488SOL    HW266302   0.328   6.976   9.373  1.0145  1.0222  0.2101
53489SOL     OW66303  11.258  10.189  11.780  0.3889  0.0677  0.2507
53489SOL    HW166304  11.301  10.235  11.852 -0.1409  0.5223  0.2878
53489SOL    HW266305  11.191  10.250  11.749  1.6384  0.5152 -1.6851
53490SOL     OW66306   3.373   6.421   5.828 -0.0441 -0.1493  0.2563
53490SOL    HW166307   3.303   6.410   5.891  0.3429 -0.9745  0.5606
53490SOL    HW266308   3.400   6.332   5.806 -1.4004  0.0170 -2.4901
53491SOL     OW66309   7.005   3.131   5.560  0.0447 -0.2385 -0.4790
53491SOL    HW166310   7.079   3.102   5.614  0.2550  2.0073  0.5344
53491SOL    HW266311   6.928   3.110   5.613  0.1175 -0.1872 -0.3504
53492SOL     OW66312   1.002   2.415   3.639 -0.0446 -0.5061  0.0147
53492SOL    HW166313   0.963   2.501   3.651 -0.2473 -0.6294  0.2534
53492SOL    HW266314   0.976   2.388   3.551  1.1165  0.2390 -0.5858
53493SOL     OW66315   6.176   1.086   7.775  0.8234 -0.2853  0.1036
53493SOL    HW166316   6.190   1.013   7.836  1.1670 -0.7881 -0.5704
53493SOL    HW266317   6.096   1.128   7.806  0.1496 -1.4538  0.0008
53494SOL     OW66318   5.215   8.959   8.841 -0.1131  0.1737  0.6018
53494SOL    HW166319   5.209   9.040   8.791  3.4002  0.7747  0.9022
53494SOL    HW266320   5.137   8.959   8.896 -2.5506  1.0041 -2.5360
53495SOL     OW66321   4.270  10.860   5.039  0.0759  0.0913 -0.4155
53495SOL    HW166322   4.207  10.796   5.005  0.8766 -0.2261 -1.3476
53495SOL    HW266323   4.350  10.809   5.054  0.3073  0.6083  0.1658
53496SOL     OW66324  10.285   0.049   5.836  0.5432 -0.0497 -0.4973
53496SOL    HW166325  10.306   0.135   5.801 -2.2640  0.7065 -0.6070
53496SOL    HW266326  10.284   0.061   5.931  1.1093 -0.2414 -0.4620
53497SOL     OW66327   8.106   4.323   0.448  0.1440 -0.3789  0.3409
53497SOL    HW166328   8.117   4.280   0.533  0.2368 -0.8957  0.0705
53497SOL    HW266329   8.066   4.408   0.469  1.2706  0.0128  1.0117
53498SOL     OW66330   9.143   3.151   4.735  0.0221 -0.3446 -0.2209
53498SOL    HW166331   9.183   3.117   4.815 -2.0666 -2.3945  0.0574
53498SOL    HW266332   9.104   3.234   4.761 -1.0639 -1.2190  1.0867
53499SOL     OW66333   3.372   9.408   7.161 -0.2812 -0.1157  0.1225
53499SOL    HW166334   3.392   9.422   7.068  0.0505  1.7515  0.4207
53499SOL    HW266335   3.287   9.451   7.173 -1.4498 -2.3450  0.2361
53500SOL     OW66336   9.807   0.930   5.937  0.0296 -0.0548 -0.3218
53500SOL    HW166337   9.810   0.949   5.843 -0.2942  4.1500  0.3077
53500SOL    HW266338   9.872   0.989   5.975 -1.7150  0.3566  2.2811
53501SOL     OW66339   2.072   1.878   1.952 -0.4611  0.1936 -0.8330
53501SOL    HW166340   2.023   1.925   1.885  1.0818  2.3010 -0.5767
53501SOL    HW266341   2.052   1.925   2.033  2.0611  1.2830 -0.7582
53502SOL     OW66342   2.616   1.470   5.991 -0.6176  0.2119 -0.8231
53502SOL    HW166343   2.581   1.549   6.032 -0.5071  0.4769 -1.2321
53502SOL    HW266344   2.550   1.402   6.009 -0.7009  0.3905 -0.4528
53503SOL     OW66345  12.141   7.537   1.935  0.2899  0.5702  0.1504
53503SOL    HW166346  12.223   7.538   1.886  0.7628 -2.4320  0.6746
53503SOL    HW266347  12.084   7.597   1.888  1.7906  0.3545 -2.0783
53504SOL     OW66348   7.715   4.749   2.025 -0.3728  0.3067  0.0168
53504SOL    HW166349   7.654   4.752   1.951  0.1390  0.3575 -0.4101
53504SOL    HW266350   7.710   4.836   2.064  0.4139  0.7410 -0.8294
53505SOL     OW66351   1.126   9.398   3.720 -0.1451 -0.3306 -0.0623
53505SOL    HW166352   1.187   9.388   3.794  0.1475 -0.9005 -0.3680
53505SOL    HW266353   1.058   9.332   3.736  1.1692 -2.1441 -1.4929
53506SOL     OW66354   4.459   2.536   4.074  0.6688  0.1118 -0.3018
53506SOL    HW166355   4.366   2.530   4.095  1.4922  0.7081  4.6236
53506SOL    HW266356   4.481   2.628   4.090  2.3661 -0.3450  0.1598
53507SOL     OW66357  10.979  10.724  11.287  0.0958 -0.6964  0.3793
53507SOL    HW166358  11.018  10.662  11.349 -1.5163 -2.2080 -0.0320
53507SOL    HW266359  11.043  10.795  11.280  0.7507 -0.9091  3.0651
53508SOL     OW66360   9.224   2.952   3.142  0.0125 -0.1224 -0.4053
53508SOL    HW166361   9.290   3.022   3.147  0.1807 -0.2424 -0.8637
53508SOL    HW266362   9.192   2.943   3.232  0.4475  0.1066 -0.2207
53509SOL     OW66363  10.076   7.949   0.917  0.1808 -0.2849 -0.0629
53509SOL    HW166364  10.074   7.887   0.844 -1.6465  0.1564 -0.4218
53509SOL    HW266365  10.111   8.030   0.878 -3.6870  0.9657 -1.4006
53510SOL     OW66366   9.735   0.802   2.366  0.1050 -0.1861  0.3210
53510SOL    HW166367   9.733   0.715   2.325 -0.2215  0.2252 -0.5553
53510SOL    HW266368   9.802   0.795   2.434  1.1097 -0.7028 -0.6936
53511SOL     OW66369   9.604   4.608   8.363  0.4957 -0.2736 -0.2757
53511SOL    HW166370   9.567   4.690   8.397  0.4967 -0.2386 -0.3604
53511SOL    HW266371   9.654   4.573   8.437  1.4757  0.3939 -0.6082
53512SOL     OW66372   5.927   2.979   6.771  0.0109  1.2198  0.3420
53512SOL    HW166373   5.883   3.034   6.706 -1.3536  1.0290  1.0672
53512SOL    HW266374   5.936   2.894   6.728 -2.3436  0.6168  0.8811
53513SOL     OW66375   1.973  10.098   2.030  0.1664 -0.1400 -0.4364
53513SOL    HW166376   2.018  10.108   2.113 -0.7531  0.9370 -0.0391
53513SOL    HW266377   1.957  10.188   2.001 -0.3223 -0.5067 -1.3362
53514SOL     OW66378   2.310   6.672  11.448  0.2793  0.5895  0.1511
53514SOL    HW166379   2.368   6.680  11.372  0.9869  0.4179  0.6665
53514SOL    HW266380   2.259   6.593  11.431  0.0700  0.8353 -0.3852
53515SOL     OW66381   6.944   9.778   9.051 -0.1001 -0.4139 -0.1676
53515SOL    HW166382   6.882   9.848   9.031 -0.9840 -1.0760  0.1616
53515SOL    HW266383   6.993   9.765   8.970 -1.3665 -0.8228 -0.8920
53516SOL     OW66384  11.448   7.243   4.641 -0.3236 -0.6845  0.2824
53516SOL    HW166385  11.456   7.163   4.694  1.0401 -1.7062 -1.3613
53516SOL    HW266386  11.532   7.288   4.653 -0.0851 -0.8231 -0.8182
53517SOL     OW66387   9.850   1.981   0.630 -0.0592 -0.1488 -0.0674
53517SOL    HW166388   9.767   1.963   0.586 -0.4326 -1.0310  0.9682
53517SOL    HW266389   9.858   2.077   0.626 -1.7417  0.0791  0.8877
53518SOL     OW66390   9.486   0.402   1.317  0.3262  0.9457  0.3479
53518SOL    HW166391   9.570   0.368   1.348  0.3141  0.8283  0.2553
53518SOL    HW266392   9.476   0.364   1.229 -0.7409 -0.6360  1.1079
53519SOL     OW66393  11.996  12.009   2.406  0.0321 -0.3346 -0.7066
53519SOL    HW166394  12.089  12.004   2.432 -0.4987 -0.0087  1.4852
53519SOL    HW266395  11.965  11.919   2.412 -0.5636 -0.0387  2.0073
53520SOL     OW66396   1.352   5.139   6.793 -0.1075  0.1096  0.9204
53520SOL    HW166397   1.307   5.061   6.825  1.3871 -1.1902 -0.0095
53520SOL    HW266398   1.443   5.112   6.782  0.9977  2.6325  2.7328
53521SOL     OW66399   5.501   0.207   4.905  0.1407 -0.2391  0.1180
53521SOL    HW166400   5.544   0.291   4.891  0.4402 -0.4502 -0.2462
53521SOL    HW266401   5.421   0.211   4.853 -0.1917  0.0849  0.6514
53522SOL     OW66402   8.731   8.152   2.067 -0.5066 -0.0332 -0.0307
53522SOL    HW166403   8.717   8.058   2.058 -1.1142 -0.0193  0.6773
53522SOL    HW266404   8.825   8.161   2.078 -0.4357 -0.5535 -0.1775
53523SOL     OW66405   6.568   9.220   3.067  0.3005  1.0912  1.0507
53523SOL    HW166406   6.636   9.199   3.130  2.4146  4.5319  0.1916
53523SOL    HW266407   6.506   9.274   3.116 -0.4549  0.1469  1.1731
53524SOL     OW66408  10.431   3.615   4.330  0.2458 -0.2966  1.5416
53524SOL    HW166409  10.388   3.530   4.320  1.6897 -1.0033  0.8717
53524SOL    HW266410  10.403   3.647   4.415 -2.2581 -0.2796  0.7830
53525SOL     OW66411  11.969   8.697  10.160 -0.2698 -0.0238  0.2766
53525SOL    HW166412  12.028   8.767  10.189 -0.9243  0.6686 -0.0384
53525SOL    HW266413  12.023   8.645  10.101 -0.6492  2.1273 -2.1532
53526SOL     OW66414   2.300   6.361  11.095  0.2419  0.0096 -0.4303
53526SOL    HW166415   2.340   6.314  11.022 -0.8812  0.5540 -1.4213
53526SOL    HW266416   2.239   6.297  11.133  0.1035  0.0408 -0.5966
53527SOL     OW66417   8.582  11.829  11.647  0.3351  0.2676  0.1538
53527SOL    HW166418   8.625  11.828  11.733 -1.5923  0.8823  1.1706
53527SOL    HW266419   8.616  11.751  11.602  1.1813 -0.2004  1.5497
53528SOL     OW66420   9.958   2.804   1.543 -0.3201 -0.8330 -0.2397
53528SOL    HW166421   9.962   2.726   1.598 -2.7640 -0.0473  1.2210
53528SOL    HW266422   9.865   2.824   1.536  0.1055  0.8438 -2.2323
53529SOL     OW66423   3.535  10.227   4.602  0.9370 -0.4109 -0.7270
53529SOL    HW166424   3.452  10.250   4.644  1.2903  0.3261 -0.4102
53529SOL    HW266425   3.511  10.169   4.531  0.1774 -0.4712 -0.4256
53530SOL     OW66426   4.779   6.898   0.622 -0.5908 -0.1690 -0.0255
53530SOL    HW166427   4.857   6.854   0.657 -0.8458 -0.9847 -0.4628
53530SOL    HW266428   4.728   6.921   0.699 -0.4365 -0.6124  0.2132
53531SOL     OW66429   9.684   8.296   6.253  0.4202 -0.0524  0.1473
53531SOL    HW166430   9.638   8.336   6.327  1.8127  2.4049 -0.1950
53531SOL    HW266431   9.752   8.360   6.230  0.1828 -0.8153 -3.1139
53532SOL     OW66432  11.916   5.928   5.965  0.0629  0.0261 -0.3295
53532SOL    HW166433  12.003   5.919   5.927 -0.1193  1.3191 -1.0947
53532SOL    HW266434  11.932   5.950   6.057  0.6171  2.0217 -0.8500
53533SOL     OW66435   2.861   5.887  10.018 -0.0996 -0.2380 -0.0764
53533SOL    HW166436   2.895   5.928   9.938  0.4818 -1.1647 -0.3326
53533SOL    HW266437   2.936   5.884  10.077 -0.5462  0.5092  0.5477
53534SOL     OW66438   7.189   2.440   4.484  0.3267 -0.3775  0.0063
53534SOL    HW166439   7.148   2.474   4.563  0.0967  0.9024 -0.6397
53534SOL    HW266440   7.281   2.463   4.493  0.5977 -1.6178  0.6027
53535SOL     OW66441   2.110   8.623   9.218  0.0943  0.2355 -0.1829
53535SOL    HW166442   2.075   8.712   9.223 -0.5937 -0.0555  0.2698
53535SOL    HW266443   2.050   8.570   9.271 -0.4799 -0.8103 -1.8261
53536SOL     OW66444  10.267   2.462   8.382 -0.2986  0.2021 -0.2959
53536SOL    HW166445  10.274   2.505   8.296 -0.5076 -1.2227 -1.0537
53536SOL    HW266446  10.181   2.419   8.380 -0.4807  0.4796  0.7987
53537SOL     OW66447   1.257   1.632   4.933 -0.1172 -0.1344  0.5689
53537SOL    HW166448   1.327   1.627   4.998 -0.4001  1.6011  1.0575
53537SOL    HW266449   1.297   1.597   4.853  0.9523 -0.2308  1.1261
53538SOL     OW66450   4.461   5.971   1.780 -0.1092  0.3450 -0.2737
53538SOL    HW166451   4.513   6.047   1.755  0.2276  0.2405  0.1151
53538SOL    HW266452   4.455   5.976   1.875 -0.2236 -0.0282 -0.2611
53539SOL     OW66453   3.782   2.154   0.684  0.1050 -0.5622 -0.1455
53539SOL    HW166454   3.712   2.209   0.718  2.0204  0.4085  2.5979
53539SOL    HW266455   3.798   2.188   0.596 -1.8480  0.1290 -0.2816
53540SOL     OW66456   9.467   7.960   5.408 -0.5530  0.1948 -0.0645
53540SOL    HW166457   9.538   8.025   5.405 -1.2371  1.0474  1.2996
53540SOL    HW266458   9.423   7.968   5.323  0.9310 -0.3368 -0.9311
53541SOL     OW66459   9.213   4.636   3.840 -0.4087  0.2771  0.7413
53541SOL    HW166460   9.212   4.541   3.828 -1.0365  0.2905  0.6458
53541SOL    HW266461   9.138   4.653   3.897 -1.3588  0.8840 -0.6319
53542SOL     OW66462   3.192   2.899   4.284  0.4894  0.1101 -0.0174
53542SOL    HW166463   3.209   2.944   4.201  0.2791  2.3043  1.0546
53542SOL    HW266464   3.268   2.842   4.297  0.3164 -0.6094 -1.8861
53543SOL     OW66465   8.588   6.315   0.547 -0.8085 -0.4761  0.3465
53543SOL    HW166466   8.638   6.395   0.534 -0.1723 -1.0321 -0.7963
53543SOL    HW266467   8.654   6.250   0.571 -0.8078 -1.4174 -1.9863
53544SOL     OW66468   9.940  10.842   7.710 -0.6983 -0.3607 -0.3503
53544SOL    HW166469   9.973  10.920   7.667  0.1489 -1.4024 -1.6787
53544SOL    HW266470  10.004  10.774   7.689 -0.1931 -0.9507  2.6432
53545SOL     OW66471   8.266   8.600   5.724  0.0457 -0.4554 -0.0304
53545SOL    HW166472   8.321   8.592   5.646  0.0687  0.2700 -0.0985
53545SOL    HW266473   8.187   8.645   5.692  0.6244  1.0925  0.6093
53546SOL     OW66474   4.551   7.949  11.072  0.8381  0.0338  0.5902
53546SOL    HW166475   4.550   7.873  11.013  1.4917 -0.2686  0.9551
53546SOL    HW266476   4.590   8.019  11.020  0.2637  0.1127  0.2627
53547SOL     OW66477  12.282   6.134   5.227  0.0076  0.3666 -0.1391
53547SOL    HW166478  12.212   6.187   5.264 -0.3921 -0.9281  1.0377
53547SOL    HW266479  12.363   6.180   5.251 -0.3270  0.4601  0.8533
53548SOL     OW66480  11.816   8.587   1.305  0.2523  0.4027 -0.0846
53548SOL    HW166481  11.743   8.567   1.363 -0.2357  1.7466 -0.2173
53548SOL    HW266482  11.845   8.501   1.273  0.0088 -0.3000  1.4913
53549SOL     OW66483   7.001  11.185   9.076 -0.4304 -0.2517 -0.1100
53549SOL    HW166484   7.075  11.242   9.055 -0.9437  0.2977 -0.4849
53549SOL    HW266485   7.040  11.106   9.112  0.3652 -0.2900 -1.0405
53550SOL     OW66486   8.985   5.262   4.848 -0.4220 -0.3143  0.0035
53550SOL    HW166487   9.073   5.227   4.833 -0.8748 -1.9513  0.9903
53550SOL    HW266488   8.940   5.194   4.896 -2.0787  0.7430  0.0147
53551SOL     OW66489   9.490   8.172   0.433 -0.0558 -0.2055 -0.2894
53551SOL    HW166490   9.586   8.171   0.439 -0.0911  0.3955  0.4140
53551SOL    HW266491   9.463   8.089   0.471  0.2133 -0.7318 -1.2030
53552SOL     OW66492   2.222   8.599   3.621  0.2744  0.1480 -0.1247
53552SOL    HW166493   2.315   8.576   3.632  0.2974  1.0917  2.0906
53552SOL    HW266494   2.196   8.637   3.704 -1.6664  1.5524 -1.2751
53553SOL     OW66495   6.643   9.774  11.650 -0.1008 -0.1680 -0.2038
53553SOL    HW166496   6.676   9.746  11.735  3.4842 -0.7230 -1.5796
53553SOL    HW266497   6.604   9.695  11.612 -1.1852 -0.0625  0.6472
53554SOL     OW66498   2.697   8.797  10.891  0.0123 -0.2468 -0.2260
53554SOL    HW166499   2.741   8.798  10.806 -0.4997 -0.9487 -0.5084
53554SOL    HW266500   2.684   8.890  10.912  0.1001 -0.0645 -0.9383
53555SOL     OW66501   2.884   7.874  10.097  0.3327  0.3112  0.0670
53555SOL    HW166502   2.901   7.955  10.146  0.2302 -0.1104  0.8197
53555SOL    HW266503   2.953   7.870  10.032  0.0196  1.2883 -0.3459
53556SOL     OW66504   5.846   3.982   5.413 -0.1348  0.2130 -0.4372
53556SOL    HW166505   5.823   3.997   5.504  0.5102 -0.3193 -0.1805
53556SOL    HW266506   5.924   4.036   5.398  0.8425 -1.0804 -0.1461
53557SOL     OW66507   0.958   8.780   3.773  0.5757  0.0700  0.2992
53557SOL    HW166508   1.038   8.814   3.813  0.9470  3.1024 -2.5987
53557SOL    HW266509   0.963   8.807   3.681 -2.4851 -2.1123 -0.6765
53558SOL     OW66510   5.163   7.117   6.518 -0.2265 -0.0369  0.0976
53558SOL    HW166511   5.101   7.183   6.487  0.0532 -0.5274 -1.5645
53558SOL    HW266512   5.135   7.036   6.478  0.1848 -0.7127  1.1233
53559SOL     OW66513  10.943  10.401   1.850 -0.1169 -0.2155 -0.8720
53559SOL    HW166514  10.984  10.315   1.856 -0.0897 -0.3299 -2.3146
53559SOL    HW266515  10.868  10.396   1.909  0.8587 -0.6264  0.3882
53560SOL     OW66516  11.015   5.816   4.056 -0.2777 -0.5431 -0.0554
53560SOL    HW166517  11.090   5.831   4.113  0.1389  1.4890 -1.0349
53560SOL    HW266518  11.040   5.855   3.972 -2.5228  0.5173 -0.3151
53561SOL     OW66519   1.099   6.343  11.427  0.1363  0.5176  0.0483
53561SOL    HW166520   1.109   6.433  11.457  2.3378 -0.3874  2.3397
53561SOL    HW266521   1.097   6.350  11.331  0.1596  2.9911  0.1778
53562SOL     OW66522   7.219   7.262  11.526 -0.1660  0.3117 -0.4468
53562SOL    HW166523   7.169   7.316  11.465 -1.2658 -0.4297 -0.2317
53562SOL    HW266524   7.310   7.274  11.500 -0.3970  2.0972 -0.5194
53563SOL     OW66525   3.893   3.855  10.612 -0.4868  0.2354 -0.3524
53563SOL    HW166526   3.894   3.869  10.517  1.9950  0.0583 -0.4053
53563SOL    HW266527   3.872   3.941  10.649  0.3851  0.7477 -1.0260
53564SOL     OW66528  10.282   5.387   6.635 -0.0274 -0.3606  0.1653
53564SOL    HW166529  10.266   5.297   6.664 -1.3244  0.7218  3.1879
53564SOL    HW266530  10.205   5.408   6.582 -0.6841 -0.4410  1.0613
53565SOL     OW66531   2.472   3.861   6.984 -0.0513 -0.1789 -0.0733
53565SOL    HW166532   2.377   3.858   6.998 -0.3722 -0.9237 -2.1171
53565SOL    HW266533   2.503   3.775   7.013  0.1421  0.3515  1.3496
53566SOL     OW66534  12.082   6.656  10.897 -0.7296  0.6055 -0.0343
53566SOL    HW166535  12.064   6.660  10.803 -1.6290 -0.0997  0.1018
53566SOL    HW266536  12.055   6.568  10.923  1.1389  0.1636  0.5621
53567SOL     OW66537   3.614  11.605   2.029 -0.0035  0.4225 -0.2737
53567SOL    HW166538   3.531  11.615   2.076 -1.1083 -1.7782 -1.5851
53567SOL    HW266539   3.628  11.688   1.986 -1.8760  0.6431 -0.5282
53568SOL     OW66540   9.970   0.679  10.625 -0.0912  0.0103  0.1736
53568SOL    HW166541   9.943   0.733  10.551  1.8501  0.2430 -0.4099
53568SOL    HW266542   9.975   0.590  10.590 -3.2096 -0.6895  1.1164
53569SOL     OW66543   4.741   1.490   3.633 -0.1751  0.8021 -0.2538
53569SOL    HW166544   4.821   1.455   3.593 -0.3270  1.1318 -0.8610
53569SOL    HW266545   4.768   1.516   3.722  0.1200 -0.1095 -0.0692
53570SOL     OW66546   0.253  10.540  12.031 -0.0136  0.3779  0.3599
53570SOL    HW166547   0.315  10.611  12.017 -0.1495  0.3415 -0.5108
53570SOL    HW266548   0.208  10.563  12.113  1.5548  0.0801  1.3430
53571SOL     OW66549   0.812   2.204   0.179 -0.2349 -0.3844 -0.7825
53571SOL    HW166550   0.759   2.197   0.259  0.9561  0.2984  0.0989
53571SOL    HW266551   0.848   2.117   0.166 -1.4753 -0.8390 -1.3502
53572SOL     OW66552   6.497   9.203   8.172  0.3910 -0.1162  0.1209
53572SOL    HW166553   6.561   9.270   8.195  0.1911  0.0829  0.1000
53572SOL    HW266554   6.537   9.121   8.199  0.7673 -0.0172 -0.1273
53573SOL     OW66555   4.223   7.807  11.255  0.4874  0.0834  0.0867
53573SOL    HW166556   4.167   7.751  11.309 -0.0206  0.4750 -0.0271
53573SOL    HW266557   4.234   7.887  11.307  0.4467  0.2418 -0.1471
53574SOL     OW66558   0.905  10.106  10.757  0.1184  0.5145  0.0765
53574SOL    HW166559   0.919  10.187  10.806  0.7647  1.8567 -2.1927
53574SOL    HW266560   0.861  10.134  10.677  0.6748 -1.3346 -0.9273
53575SOL     OW66561   5.229  10.130  10.408 -0.3576 -0.4392 -0.3582
53575SOL    HW166562   5.140  10.149  10.437 -0.2194 -1.3917  0.7622
53575SOL    HW266563   5.221  10.117  10.313 -1.1258  0.9924 -0.5187
53576SOL     OW66564  12.063   9.753   8.572  0.2472 -0.6895  0.4586
53576SOL    HW166565  12.146   9.752   8.525  0.3217  0.4223  0.5505
53576SOL    HW266566  12.062   9.836   8.619 -1.1417 -0.4505  0.0587
53577SOL     OW66567   5.866   6.695   0.332 -0.2496 -0.1439  0.5005
53577SOL    HW166568   5.809   6.620   0.316 -0.9218 -0.1583  2.6054
53577SOL    HW266569   5.882   6.692   0.427  2.0731  0.7144  0.1874
53578SOL     OW66570   1.869   0.523   4.215 -0.9217 -0.1941 -0.0083
53578SOL    HW166571   1.801   0.486   4.160 -0.6227 -0.3286 -0.2925
53578SOL    HW266572   1.827   0.535   4.300 -1.6090  0.7231 -0.4612
53579SOL     OW66573  10.100   0.090   4.509  0.2567 -0.1929 -0.3491
53579SOL    HW166574  10.170   0.036   4.471  2.3562  2.0018  0.0996
53579SOL    HW266575  10.108   0.077   4.603 -0.6602 -0.7256 -0.3374
53580SOL     OW66576  11.543   7.825   0.871 -0.1882 -0.8854 -0.2702
53580SOL    HW166577  11.637   7.834   0.856  0.1963 -1.6545  1.3935
53580SOL    HW266578  11.502   7.871   0.798  1.4811  0.2163 -0.5600
53581SOL     OW66579   4.044   3.005   4.620 -0.0036 -0.2038  0.5158
53581SOL    HW166580   4.050   2.982   4.527  2.1365 -0.1001  0.5702
53581SOL    HW266581   4.099   3.082   4.629  1.5901 -1.4437  2.2123
53582SOL     OW66582  11.909   2.927   4.371  0.6057 -0.2886 -0.3185
53582SOL    HW166583  11.980   2.889   4.422 -0.2615 -2.9345 -0.9319
53582SOL    HW266584  11.953   2.987   4.311  1.9648  0.4111  1.3005
53583SOL     OW66585   6.746   0.360   6.283 -0.0330 -0.1247 -0.1278
53583SOL    HW166586   6.673   0.351   6.223  0.3891  1.0494 -0.8391
53583SOL    HW266587   6.763   0.454   6.287  0.3590 -0.2209  1.3452
53584SOL     OW66588   7.548   8.196   5.556  0.2819 -0.1532  0.1478
53584SOL    HW166589   7.569   8.130   5.622  0.8176  0.2807  0.4226
53584SOL    HW266590   7.552   8.279   5.604  0.2300  0.1272 -0.3288
53585SOL     OW66591   2.255   1.041   1.601  0.7919 -0.1645 -0.0990
53585SOL    HW166592   2.251   1.065   1.508  0.0988  0.0032 -0.0299
53585SOL    HW266593   2.168   1.008   1.621  0.5157  1.0449  0.8218
53586SOL     OW66594   1.029   3.369  12.070 -0.2989  0.2529 -0.2293
53586SOL    HW166595   0.958   3.430  12.050 -0.3552 -0.1158 -1.1967
53586SOL    HW266596   1.059   3.395  12.157 -2.2634 -0.2080  0.6303
53587SOL     OW66597   7.542   8.104   8.391  0.1134  0.0181 -0.2991
53587SOL    HW166598   7.554   8.170   8.460 -0.2695 -0.4955  0.2718
53587SOL    HW266599   7.469   8.138   8.339  0.2714  0.3119 -0.3321
53588SOL     OW66600   2.987   0.809   8.540  0.2321  0.6538  0.2387
53588SOL    HW166601   2.962   0.838   8.453 -0.5728  0.4773  0.3999
53588SOL    HW266602   3.043   0.733   8.525 -0.4746  0.1953 -0.1177
53589SOL     OW66603   3.337   0.328  12.066  0.4820 -0.3003 -0.1717
53589SOL    HW166604   3.409   0.281  12.022 -0.9239 -2.7156 -0.0762
53589SOL    HW266605   3.275   0.259  12.090 -1.8507  1.6625 -0.1796
53590SOL     OW66606   0.219   5.091   1.894 -0.0785  0.0812 -0.0285
53590SOL    HW166607   0.169   5.128   1.821 -2.3702 -0.4855  1.1645
53590SOL    HW266608   0.170   5.115   1.972  0.6358 -1.9024  1.1179
53591SOL     OW66609  12.204   2.546   0.903  0.2272 -0.3929  0.1753
53591SOL    HW166610  12.262   2.617   0.929  1.1810 -1.8531  2.3221
53591SOL    HW266611  12.143   2.538   0.976  0.2187 -1.8510  0.0303
53592SOL     OW66612   4.025   2.960   0.174  0.4718 -0.2220 -0.3842
53592SOL    HW166613   4.050   2.976   0.083  0.3191 -0.1704 -0.4183
53592SOL    HW266614   3.937   2.997   0.181  0.7731  0.4376 -0.0108
53593SOL     OW66615   7.260  11.959   3.732  0.3919  0.6003 -0.0860
53593SOL    HW166616   7.178  11.923   3.765  0.8829 -0.1417  0.3613
53593SOL    HW266617   7.327  11.924   3.791  1.0798  0.7993 -0.7263
53594SOL     OW66618   4.536   9.576   7.404  0.1247 -0.2431 -0.1001
53594SOL    HW166619   4.581   9.630   7.469 -0.3261 -0.0594  0.0640
53594SOL    HW266620   4.504   9.639   7.340 -0.2596 -0.3309  0.0054
53595SOL     OW66621  11.597   8.943   2.512 -0.9007 -0.4714  0.1697
53595SOL    HW166622  11.679   8.960   2.466  0.1442 -0.9390  1.7684
53595SOL    HW266623  11.537   9.012   2.483 -0.5012 -1.0819 -2.2700
53596SOL     OW66624   0.583   5.635   8.336 -0.3544  0.1936  0.2796
53596SOL    HW166625   0.677   5.614   8.343 -0.0158  1.6337  0.4769
53596SOL    HW266626   0.545   5.600   8.416  0.0113 -0.3944  0.2067
53597SOL     OW66627   4.670   4.235   6.763  0.2237 -0.5199  0.0261
53597SOL    HW166628   4.675   4.144   6.734  0.7285 -0.1737 -1.0092
53597SOL    HW266629   4.663   4.286   6.682  0.3576  0.3906  0.5747
53598SOL     OW66630  12.053   7.482   3.318  0.3727  0.0713 -0.4444
53598SOL    HW166631  12.051   7.455   3.226 -1.0810  0.5307 -0.5708
53598SOL    HW266632  11.973   7.533   3.330 -0.6922 -1.9301  1.6551
53599SOL     OW66633   2.228   2.151  10.711  0.2241 -0.3068 -0.3230
53599SOL    HW166634   2.151   2.186  10.666  1.6830  1.0915 -1.9214
53599SOL    HW266635   2.302   2.195  10.668  2.0722 -3.3289 -0.5043
53600SOL     OW66636  11.371   6.828   8.920  0.0142 -0.5369 -0.1476
53600SOL    HW166637  11.405   6.741   8.898  0.4374  0.0079 -1.8588
53600SOL    HW266638  11.386   6.880   8.840  0.7216  1.3955  1.1700
53601SOL     OW66639   5.433   4.559   4.686 -0.2671 -0.2917 -0.4127
53601SOL    HW166640   5.357   4.505   4.666 -0.0176 -0.7178 -0.2309
53601SOL    HW266641   5.409   4.647   4.656 -1.7522  0.1154  1.7309
53602SOL     OW66642   5.295   3.798   6.092  0.3693 -1.0630 -0.1822
53602SOL    HW166643   5.298   3.881   6.140  0.8231 -0.9947 -0.3217
53602SOL    HW266644   5.310   3.731   6.159 -0.3407 -1.0585 -0.0134
53603SOL     OW66645   0.444   0.209   3.452 -0.1720  0.7132 -0.1024
53603SOL    HW166646   0.358   0.199   3.410 -0.5929  1.6860  0.5037
53603SOL    HW266647   0.432   0.171   3.539 -0.4505  2.2523  0.5473
53604SOL     OW66648   1.209   0.968   6.068  0.3311 -0.2201  0.0818
53604SOL    HW166649   1.184   1.025   5.995 -0.0130 -1.1037 -0.5100
53604SOL    HW266650   1.300   0.945   6.050  0.1690 -0.6416 -0.2129
53605SOL     OW66651   0.416   8.314   1.779 -0.3277  0.7200 -0.1623
53605SOL    HW166652   0.384   8.225   1.764  0.2308  0.6593 -1.0388
53605SOL    HW266653   0.373   8.341   1.861 -0.4206 -0.3850  0.1721
53606SOL     OW66654  10.805   5.966   3.479 -0.0674  1.0211  0.1550
53606SOL    HW166655  10.835   5.913   3.405 -0.9995 -1.1042  1.2075
53606SOL    HW266656  10.718   5.996   3.452 -0.3349  0.3935  0.3010
53607SOL     OW66657   5.777   3.152   9.872 -0.0426  0.7702 -0.3952
53607SOL    HW166658   5.721   3.229   9.885  0.6130  1.2936 -0.6288
53607SOL    HW266659   5.836   3.153   9.947 -0.4939  0.0697 -0.0133
53608SOL     OW66660   7.408   7.445   9.224  0.3686  0.1136 -0.1828
53608SOL    HW166661   7.403   7.536   9.194  1.0873 -0.7358 -3.2012
53608SOL    HW266662   7.325   7.406   9.195  0.6240 -0.5095 -0.0782
53609SOL     OW66663   6.766   1.941   1.551 -0.4110 -0.1390 -0.2482
53609SOL    HW166664   6.823   1.869   1.525 -0.3236  0.0887 -0.7114
53609SOL    HW266665   6.679   1.902   1.557 -0.4809 -0.1480 -1.1671
53610SOL     OW66666   4.153   8.920   0.087  0.0944  0.1355 -0.7604
53610SOL    HW166667   4.145   8.907   0.182  0.5245  0.5261 -0.6702
53610SOL    HW266668   4.246   8.937   0.073  0.7148 -3.2833 -1.6720
53611SOL     OW66669   2.551   7.423   7.072  0.1067  0.2793  0.3776
53611SOL    HW166670   2.566   7.469   7.154 -0.1312 -0.1963  0.6908
53611SOL    HW266671   2.456   7.419   7.063  0.1131 -0.6587  0.6479
53612SOL     OW66672   7.897   2.298   5.771  0.7828 -0.3725 -0.1862
53612SOL    HW166673   7.877   2.383   5.731 -0.7057  0.1813  1.5983
53612SOL    HW266674   7.817   2.246   5.758  0.7209 -0.5870  0.9751
53613SOL     OW66675   0.539  10.157   9.631  0.2242 -0.9409  0.1956
53613SOL    HW166676   0.618  10.106   9.650 -0.8577 -1.9621  2.3371
53613SOL    HW266677   0.565  10.248   9.648  1.1680 -1.1665 -0.0073
53614SOL     OW66678   4.635  11.967   6.486  0.4674  0.4951  0.4370
53614SOL    HW166679   4.592  11.978   6.571  0.1170  1.7134  0.1147
53614SOL    HW266680   4.650  11.872   6.479 -0.7678  0.2245  1.2243
53615SOL     OW66681   8.572   2.630   3.574 -0.2288  0.6666 -0.9158
53615SOL    HW166682   8.635   2.574   3.530  3.1974  1.1842  2.7329
53615SOL    HW266683   8.595   2.719   3.545 -1.1840  0.6939 -1.6335
53616SOL     OW66684   4.707   9.036  11.464 -0.2869  0.0080  0.1654
53616SOL    HW166685   4.707   9.113  11.521  0.0242  0.4413 -0.4022
53616SOL    HW266686   4.775   8.980  11.499 -0.9673 -0.3286  0.9886
53617SOL     OW66687  12.172  10.437   5.939  0.2660 -0.4411  0.5820
53617SOL    HW166688  12.115  10.450   5.863  1.9119 -1.3645 -0.9055
53617SOL    HW266689  12.156  10.512   5.995 -1.3451  0.0328 -0.4652
53618SOL     OW66690   6.134   0.025  11.334  0.3663  0.2457 -0.0003
53618SOL    HW166691   6.065   0.037  11.400  0.6500  0.2612  0.2984
53618SOL    HW266692   6.110   0.084  11.263 -0.2380 -0.1732 -0.1554
53619SOL     OW66693   9.826  12.204   7.380  0.5317 -0.1449 -0.0749
53619SOL    HW166694   9.784  12.275   7.429 -0.0980 -1.5335  1.4859
53619SOL    HW266695   9.777  12.200   7.298 -1.5488 -0.7905  1.1228
53620SOL     OW66696   9.213  11.532  11.255  0.1175  0.1335 -0.1825
53620SOL    HW166697   9.132  11.500  11.296  0.3808 -1.7268 -1.0331
53620SOL    HW266698   9.283  11.500  11.312  0.3236  1.7504  0.5583
53621SOL     OW66699   2.955  11.681   4.739 -0.0407  0.0065  0.0162
53621SOL    HW166700   2.865  11.704   4.763 -0.5739 -1.6936 -0.2307
53621SOL    HW266701   2.958  11.693   4.644  0.1365  0.4939  0.0808
53622SOL     OW66702  12.188   7.907   0.998 -0.6374  0.4974  0.6223
53622SOL    HW166703  12.178   7.839   0.931  0.6422  0.0521  0.8421
53622SOL    HW266704  12.160   7.865   1.079 -0.6069  0.4956  0.6318
53623SOL     OW66705  10.326   3.777   1.298 -0.0811 -0.0021 -0.7183
53623SOL    HW166706  10.231   3.762   1.295 -0.3952  1.1477  1.3942
53623SOL    HW266707  10.363   3.693   1.324 -0.9909  0.4571  2.5260
53624SOL     OW66708   3.910   9.157   6.873  0.0404 -0.0588  0.4500
53624SOL    HW166709   3.946   9.244   6.887 -0.6443  0.4187 -0.6122
53624SOL    HW266710   3.818   9.172   6.852 -0.2376 -1.0890  0.8535
53625SOL     OW66711   2.943   4.951   5.539 -0.2742 -0.0107 -0.1907
53625SOL    HW166712   2.851   4.935   5.517 -0.2685 -0.6942  0.2427
53625SOL    HW266713   2.978   4.864   5.558  0.1820  0.3544  0.6854
53626SOL     OW66714   4.017   5.113   9.932 -0.1863  0.0637  0.4824
53626SOL    HW166715   3.990   5.183   9.874 -1.2617 -0.1316  0.7202
53626SOL    HW266716   4.088   5.150   9.984 -0.1371  0.6728 -0.0142
53627SOL     OW66717   5.611   7.469  10.224  0.7101  0.2014  0.4047
53627SOL    HW166718   5.565   7.388  10.201 -1.2527  0.9375  1.4932
53627SOL    HW266719   5.561   7.505  10.297  1.0019  2.8315 -0.5725
53628SOL     OW66720   1.065   2.430   5.466  0.2133  0.4312 -0.7646
53628SOL    HW166721   1.154   2.448   5.499 -0.2389  1.0328  0.1892
53628SOL    HW266722   1.017   2.511   5.483 -0.6352 -0.0421 -0.8651
53629SOL     OW66723   0.421  12.066  10.498 -0.0487  0.5281  0.0189
53629SOL    HW166724   0.360  12.031  10.562  0.9110 -1.4434 -0.0834
53629SOL    HW266725   0.502  12.017  10.512  0.4278  0.5984 -2.1732
53630SOL     OW66726   6.618   1.489   6.945  0.0891  0.2258 -0.3006
53630SOL    HW166727   6.628   1.401   6.910  0.3216  0.2674 -0.3381
53630SOL    HW266728   6.580   1.476   7.032 -0.3997  0.1176 -0.5262
53631SOL     OW66729  10.794   4.367  10.351  0.1390  0.3325  0.1392
53631SOL    HW166730  10.829   4.442  10.400 -0.4626  0.7049  0.0202
53631SOL    HW266731  10.770   4.404  10.266  0.4800 -0.1496 -0.1674
53632SOL     OW66732   0.364  10.418  11.292 -0.0182  0.5329  0.3230
53632SOL    HW166733   0.410  10.340  11.324 -0.3070 -0.3367 -1.2633
53632SOL    HW266734   0.283  10.420  11.342 -1.2865 -1.8238 -1.4368
53633SOL     OW66735   3.955   2.293   8.475 -0.3797  0.2771 -0.0168
53633SOL    HW166736   3.866   2.321   8.453 -0.2871  0.4251 -0.2102
53633SOL    HW266737   4.011   2.358   8.433 -0.1758  0.0817 -0.0467
53634SOL     OW66738   7.114  10.755   2.164 -0.2827  0.0734  0.7607
53634SOL    HW166739   7.039  10.695   2.161  0.4226 -0.8023  0.0995
53634SOL    HW266740   7.189  10.698   2.178  0.4119  0.8179  0.1177
53635SOL     OW66741  11.805   7.434   7.821 -0.2778 -0.0139 -0.3046
53635SOL    HW166742  11.776   7.452   7.910 -1.5562  0.7119 -0.8395
53635SOL    HW266743  11.804   7.338   7.814  0.5414 -0.1018  0.6690
53636SOL     OW66744   6.213   0.498   7.796 -0.0521 -0.0777  0.0068
53636SOL    HW166745   6.136   0.555   7.802  0.4094  0.4938  0.6374
53636SOL    HW266746   6.217   0.473   7.703 -0.4351  0.6853 -0.2263
53637SOL     OW66747   9.670   2.570   1.568  0.2321 -0.5922  0.0211
53637SOL    HW166748   9.743   2.609   1.615 -0.1740  2.1941 -1.4328
53637SOL    HW266749   9.594   2.583   1.625  0.1252  0.7655 -0.3884
53638SOL     OW66750  11.657   4.157  10.148  0.2835  0.1731  0.0612
53638SOL    HW166751  11.628   4.199  10.067 -2.2952 -0.1405  0.7211
53638SOL    HW266752  11.680   4.230  10.206  0.8620  0.4467 -0.5051
53639SOL     OW66753   1.800   7.328  11.301  0.3968 -0.2470  0.2977
53639SOL    HW166754   1.814   7.314  11.395 -1.1339  1.1282  0.7749
53639SOL    HW266755   1.854   7.261  11.259  0.8753 -1.1031  2.1552
53640SOL     OW66756   0.543  11.344   4.028  0.3313  0.1647  0.0993
53640SOL    HW166757   0.562  11.253   4.005 -0.0127  0.1846 -0.2841
53640SOL    HW266758   0.550  11.347   4.123  0.1953 -0.2989  0.1250
53641SOL     OW66759   8.275   0.928   8.766 -0.0232  0.1325 -0.0140
53641SOL    HW166760   8.346   0.864   8.756  2.5914  3.0814 -1.9883
53641SOL    HW266761   8.229   0.926   8.683  1.2104  1.9616 -0.7919
53642SOL     OW66762  12.038   7.142   3.048 -0.2696  0.4233 -0.6831
53642SOL    HW166763  11.960   7.090   3.063 -0.1817 -0.1785 -2.1088
53642SOL    HW266764  12.088   7.136   3.129 -0.8133 -0.7599 -0.4231
53643SOL     OW66765  10.232   2.706   5.448  0.6787  0.0290  0.2859
53643SOL    HW166766  10.191   2.737   5.529 -0.3087  0.5420 -0.3816
53643SOL    HW266767  10.159   2.668   5.398  1.1337  0.3754 -0.6640
53644SOL     OW66768   4.729   7.217  10.382 -0.7649 -0.0323 -0.4075
53644SOL    HW166769   4.738   7.123  10.397 -1.4600 -0.2837 -1.4786
53644SOL    HW266770   4.635   7.233  10.382 -0.7181  0.3872 -1.7924
53645SOL     OW66771   8.217   3.567   9.231  0.3181 -0.3664  0.2640
53645SOL    HW166772   8.295   3.618   9.253  0.7732 -0.8914 -0.1351
53645SOL    HW266773   8.145   3.630   9.241  0.9932  0.7842 -1.6295
53646SOL     OW66774   4.095   1.292   9.288 -0.4036 -0.4911  0.0898
53646SOL    HW166775   4.146   1.288   9.208 -1.4119  0.9856 -0.6683
53646SOL    HW266776   4.109   1.380   9.322 -1.0294 -0.6603  0.8366
53647SOL     OW66777  10.120  11.376   8.491  0.2642 -0.6487 -0.1714
53647SOL    HW166778  10.186  11.373   8.422  0.7086  0.3102  0.1891
53647SOL    HW266779  10.171  11.381   8.572 -0.1727  2.1841  0.0276
53648SOL     OW66780   9.447  11.691   3.054  0.1031  0.0090 -0.1308
53648SOL    HW166781   9.353  11.707   3.063  0.2205  0.4383  0.4031
53648SOL    HW266782   9.485  11.720   3.137  0.5554 -1.4197  0.1898
53649SOL     OW66783   5.010   2.502   7.305 -0.0866  0.5763  0.0192
53649SOL    HW166784   5.098   2.487   7.337  0.1278  0.5256 -0.5810
53649SOL    HW266785   4.963   2.421   7.326  0.0813  0.5005  0.1019
53650SOL     OW66786   7.021   3.970   7.520 -0.1743 -0.3096  0.0724
53650SOL    HW166787   6.952   4.002   7.578 -1.0561  0.2697 -1.2351
53650SOL    HW266788   7.088   3.936   7.579  0.0952  2.4573  1.5339
53651SOL     OW66789   7.000  10.579  10.333 -0.3203  0.2441 -0.1635
53651SOL    HW166790   7.091  10.597  10.357 -0.0263 -1.9843  0.5966
53651SOL    HW266791   6.950  10.652  10.370  1.0222  0.8747  0.4515
53652SOL     OW66792   7.996  11.916   8.782  0.2705 -0.1079  0.2117
53652SOL    HW166793   7.979  11.823   8.795 -0.4785  0.3678  3.3002
53652SOL    HW266794   7.953  11.936   8.699 -0.9804 -2.1685  0.2760
53653SOL     OW66795  10.240   9.115   1.613  0.0358  0.5652  0.6303
53653SOL    HW166796  10.309   9.158   1.563 -0.7550  0.2575 -0.7852
53653SOL    HW266797  10.229   9.170   1.691 -0.5174  2.6298 -0.8018
53654SOL     OW66798   4.406   4.365   7.380  0.4152  0.0669 -0.2434
53654SOL    HW166799   4.382   4.451   7.346  1.1155  0.6107  0.5752
53654SOL    HW266800   4.337   4.343   7.443  0.3789  0.1567 -0.2524
53655SOL     OW66801   0.897   5.885   6.970  0.8178 -0.8271 -0.4065
53655SOL    HW166802   0.859   5.972   6.958  0.6012 -1.1055 -1.8286
53655SOL    HW266803   0.987   5.893   6.938  0.8753 -1.0690 -0.3072
53656SOL     OW66804   7.360   3.720   7.382  0.3997 -0.3057  0.9218
53656SOL    HW166805   7.452   3.697   7.394  1.0970  1.0217 -1.2504
53656SOL    HW266806   7.360   3.776   7.305 -2.3976 -1.3641  0.0311
53657SOL     OW66807   9.273   7.077   6.433  0.2855  0.4920  0.1226
53657SOL    HW166808   9.213   7.131   6.485 -1.7816  0.4473 -2.0250
53657SOL    HW266809   9.225   6.996   6.417  1.5126 -0.1461 -0.4698
53658SOL     OW66810  10.873   3.816   7.101  0.2501 -0.0082 -0.2764
53658SOL    HW166811  10.876   3.859   7.186 -2.4682  3.1420 -1.5633
53658SOL    HW266812  10.792   3.766   7.101  0.1657  0.1072 -1.0365
53659SOL     OW66813  10.630   2.505   1.982 -0.1984 -0.0276  0.1575
53659SOL    HW166814  10.548   2.504   2.031  0.2566  1.3187  1.0350
53659SOL    HW266815  10.658   2.597   1.984  1.3633 -0.4585 -0.0421
53660SOL     OW66816   3.752  11.688  10.430  0.4652 -0.5886 -0.1718
53660SOL    HW166817   3.727  11.600  10.401  1.0545 -1.4626  1.8254
53660SOL    HW266818   3.704  11.746  10.371  1.0541 -2.2031 -2.4208
53661SOL     OW66819  11.051   8.804   2.853 -0.1320  0.1410  0.2016
53661SOL    HW166820  11.016   8.893   2.862  1.2017  0.9241 -1.7630
53661SOL    HW266821  11.084   8.783   2.940  0.3512  1.9604  0.5052
53662SOL     OW66822  10.843   3.137  10.193 -0.4761  0.3233  0.2643
53662SOL    HW166823  10.767   3.083  10.172  0.8478 -1.6809  0.3413
53662SOL    HW266824  10.880   3.160  10.109 -0.6060  0.4630  0.2447
53663SOL     OW66825   4.996   3.239   9.152 -0.0086  0.3477 -0.0648
53663SOL    HW166826   5.088   3.235   9.126 -0.2989  0.7259 -1.1588
53663SOL    HW266827   4.949   3.192   9.083 -0.6935  0.5969  0.2246
53664SOL     OW66828   7.694   0.956  10.252  0.4312 -0.0537 -0.2579
53664SOL    HW166829   7.785   0.961  10.222  1.3175  0.9064  2.2801
53664SOL    HW266830   7.655   1.039  10.225  0.4890 -0.2036 -0.8090
53665SOL     OW66831   9.915   0.985  10.727  0.1655  0.1240 -0.4443
53665SOL    HW166832   9.847   1.052  10.721  0.7379  0.9576  1.5180
53665SOL    HW266833   9.867   0.905  10.749 -0.3056  0.4441 -0.2905
53666SOL     OW66834   5.468   1.597   5.502 -0.0010  0.4184  0.0595
53666SOL    HW166835   5.535   1.556   5.447  0.2287  1.2431 -0.2880
53666SOL    HW266836   5.387   1.586   5.452  0.3177  1.7813 -0.7998
53667SOL     OW66837  10.327  10.489   9.133  0.6221  0.1818  0.1861
53667SOL    HW166838  10.277  10.523   9.059  0.0374  0.6328  0.7706
53667SOL    HW266839  10.411  10.534   9.128  1.3243 -1.1910 -1.2850
53668SOL     OW66840   6.401   0.601   2.125  0.0877  0.3052  0.1571
53668SOL    HW166841   6.330   0.618   2.063  0.5723 -0.5616 -0.6659
53668SOL    HW266842   6.436   0.688   2.145 -0.0260  0.6077 -0.8746
53669SOL     OW66843   3.660   3.163   8.615  0.3827 -0.3398  0.2839
53669SOL    HW166844   3.755   3.149   8.618  0.5727 -0.0717 -2.2665
53669SOL    HW266845   3.634   3.128   8.529 -1.6079  0.8556  0.3516
53670SOL     OW66846   1.890   7.431   0.684 -0.0484  0.0796 -0.2880
53670SOL    HW166847   1.949   7.505   0.668 -0.0217  0.2081  0.3770
53670SOL    HW266848   1.893   7.418   0.779 -2.6164  1.3612  0.0422
53671SOL     OW66849   9.598   5.590   8.048 -0.1385 -0.6490 -0.7439
53671SOL    HW166850   9.565   5.501   8.036 -0.5854 -0.4653 -0.9116
53671SOL    HW266851   9.692   5.579   8.065  0.0099 -1.0809 -1.7860
53672SOL     OW66852   8.533   2.277   3.973  0.4568 -0.0792  0.6912
53672SOL    HW166853   8.466   2.324   4.022  0.2160 -0.5001  0.7703
53672SOL    HW266854   8.486   2.205   3.930  0.5467  0.6223 -0.6552
53673SOL     OW66855   4.183   0.747   1.924 -0.0311  0.3767  0.2661
53673SOL    HW166856   4.251   0.761   1.858 -0.5661  1.3022 -0.1048
53673SOL    HW266857   4.155   0.835   1.948 -1.6424 -0.0017 -0.1605
53674SOL     OW66858   6.555   1.005   4.667  0.4992  0.4769 -0.6293
53674SOL    HW166859   6.536   1.057   4.745  2.4624  1.5744 -0.8215
53674SOL    HW266860   6.638   0.961   4.686 -0.2459 -1.2303 -1.1651
53675SOL     OW66861   3.589   8.919  10.788 -0.2844 -0.4896  0.1194
53675SOL    HW166862   3.673   8.878  10.768  0.2753  0.1609  1.0506
53675SOL    HW266863   3.550   8.935  10.702  0.7857 -0.3084 -0.3585
53676SOL     OW66864   8.917   0.199   6.488 -0.2968 -0.1581 -0.7845
53676SOL    HW166865   8.824   0.185   6.467 -0.0765 -2.8310 -0.3262
53676SOL    HW266866   8.916   0.253   6.567 -1.3579  1.5776 -1.9140
53677SOL     OW66867   7.692   6.138   0.162 -0.3680 -0.2966 -0.3092
53677SOL    HW166868   7.705   6.044   0.175 -4.0561 -0.8250  0.6154
53677SOL    HW266869   7.723   6.177   0.244  3.1180 -0.2978 -1.4423
53678SOL     OW66870   7.252   1.465   2.637  0.5911 -0.1808 -0.1121
53678SOL    HW166871   7.277   1.530   2.571  1.9279 -1.0145 -0.4659
53678SOL    HW266872   7.236   1.516   2.716  2.2053  0.5584 -0.2189
53679SOL     OW66873   0.391   0.871   0.187 -0.4333 -0.3944 -0.9758
53679SOL    HW166874   0.452   0.814   0.140 -3.1851 -2.3594 -2.4423
53679SOL    HW266875   0.305   0.848   0.152 -2.2828  0.8588  2.3467
53680SOL     OW66876  10.585   2.355   1.752 -0.0134 -0.4665 -0.3082
53680SOL    HW166877  10.593   2.385   1.842  1.5043 -0.2389 -0.5019
53680SOL    HW266878  10.544   2.429   1.706  0.8568  0.1201 -0.1606
53681SOL     OW66879  10.909  12.143   6.203  0.0984 -0.4918  0.5388
53681SOL    HW166880  10.972  12.212   6.182 -1.0921  0.7821  0.9907
53681SOL    HW266881  10.944  12.065   6.159  1.2765  0.4737 -0.3294
53682SOL     OW66882   8.809   3.210   5.278  0.2548  0.0776 -0.2286
53682SOL    HW166883   8.892   3.184   5.237  1.3047  1.1692  1.1067
53682SOL    HW266884   8.777   3.282   5.223 -0.2061 -0.8390 -1.1788
53683SOL     OW66885   8.329   5.809   7.184 -0.3669  0.2453  0.4766
53683SOL    HW166886   8.416   5.769   7.195  0.0899  1.2311  0.5907
53683SOL    HW266887   8.347   5.894   7.143 -1.0795  1.3736  2.4047
53684SOL     OW66888   6.129   3.544   0.166  0.0319 -0.2195  0.8172
53684SOL    HW166889   6.107   3.453   0.146  0.6591  0.0153 -1.2028
53684SOL    HW266890   6.103   3.592   0.087  1.4132  1.0601  1.0976
53685SOL     OW66891   0.783  11.926   3.273  0.2940  0.0761  0.5859
53685SOL    HW166892   0.876  11.924   3.252  0.1189  3.6031 -1.1668
53685SOL    HW266893   0.769  12.010   3.316 -1.9512 -0.8177  1.7655
53686SOL     OW66894   3.444   8.476   8.383 -0.2707 -0.5362  0.5656
53686SOL    HW166895   3.348   8.485   8.381 -0.4199 -2.0721 -0.5829
53686SOL    HW266896   3.460   8.385   8.360  1.4705 -0.4297  1.2480
53687SOL     OW66897   9.390   8.952   6.476  0.7030  0.4017 -0.3367
53687SOL    HW166898   9.309   8.937   6.524  1.8726 -0.6957  1.3889
53687SOL    HW266899   9.425   9.033   6.513  1.9620 -0.8161  1.2812
53688SOL     OW66900  11.868   0.923   4.202  0.3682  0.2735  0.8525
53688SOL    HW166901  11.810   0.995   4.176 -1.1756 -0.9029  0.9096
53688SOL    HW266902  11.883   0.874   4.122 -0.9880 -0.9726  1.3121
53689SOL     OW66903   1.168   6.184   6.507  0.3608  0.1468  0.3050
53689SOL    HW166904   1.143   6.126   6.435 -0.7683  1.4816 -0.4195
53689SOL    HW266905   1.243   6.232   6.473 -0.6852  1.3742 -0.3370
53690SOL     OW66906   0.609   1.619   2.571 -0.4566 -0.0517 -0.1989
53690SOL    HW166907   0.676   1.663   2.519  0.1060 -0.7062 -0.0494
53690SOL    HW266908   0.558   1.690   2.610 -0.4094  0.4452 -1.0253
53691SOL     OW66909   7.489   2.255   1.244  0.3123 -0.3557  0.7669
53691SOL    HW166910   7.406   2.296   1.218  0.7526 -0.3017 -0.6371
53691SOL    HW266911   7.482   2.165   1.212  1.0034 -0.1929  0.1158
53692SOL     OW66912   9.770   1.129  12.245  0.6471  1.2653  0.0023
53692SOL    HW166913   9.771   1.088  12.332 -0.9553  0.1539 -0.4551
53692SOL    HW266914   9.679   1.119  12.216  1.4044  0.5722 -2.3021
53693SOL     OW66915   3.783   0.762   8.795 -0.3235 -0.0700 -0.2038
53693SOL    HW166916   3.724   0.726   8.861 -0.4323  0.4708 -0.0038
53693SOL    HW266917   3.726   0.806   8.733 -0.2044 -0.3979 -0.5528
53694SOL     OW66918   1.898   4.870   8.887  0.1461  0.0417  0.0764
53694SOL    HW166919   1.988   4.838   8.891 -0.2486 -0.9583  1.6524
53694SOL    HW266920   1.888   4.901   8.796  1.6532 -1.0566 -0.5077
53695SOL     OW66921   2.786   5.614  10.037  0.1182  0.3220 -1.0635
53695SOL    HW166922   2.818   5.704  10.036 -1.3123  0.8862  0.1507
53695SOL    HW266923   2.706   5.616   9.985 -0.4092 -0.0301 -0.2877
53696SOL     OW66924   4.517   5.908   0.636  0.1220 -0.3591  0.3753
53696SOL    HW166925   4.594   5.894   0.692  0.9361 -0.7946 -0.8123
53696SOL    HW266926   4.496   5.821   0.603  0.9060  0.1439 -1.5678
53697SOL     OW66927   4.070   4.566   2.798  0.6429 -0.0280 -0.4059
53697SOL    HW166928   4.146   4.619   2.775  0.9397 -0.1119  0.3398
53697SOL    HW266929   4.084   4.483   2.755  1.0216 -0.0698 -0.2096
53698SOL     OW66930   0.839  11.012   8.413 -0.1830 -0.1327  0.5350
53698SOL    HW166931   0.831  11.057   8.498 -1.1847  0.0341  0.3610
53698SOL    HW266932   0.764  10.953   8.410  0.9146 -1.5933  0.5929
53699SOL     OW66933  10.595  10.298   0.402  0.3231  0.3299 -0.2320
53699SOL    HW166934  10.673  10.282   0.455  0.3079  0.0150 -0.3009
53699SOL    HW266935  10.539  10.222   0.418 -0.0611  0.6528 -0.0219
53700SOL     OW66936   0.558   8.470   7.850  0.3618 -0.1842 -0.0568
53700SOL    HW166937   0.651   8.465   7.874  0.5460  1.4487 -0.3177
53700SOL    HW266938   0.524   8.542   7.902 -0.3362  0.3675 -1.2394
53701SOL     OW66939   8.956   6.611   7.769  0.0658 -0.1856 -0.1191
53701SOL    HW166940   8.883   6.626   7.709  1.1283 -1.0133 -1.7088
53701SOL    HW266941   8.918   6.561   7.841 -1.0946  0.1222 -0.4970
53702SOL     OW66942   3.351   7.148   0.448  0.6111 -0.2985  0.3094
53702SOL    HW166943   3.416   7.091   0.488  1.9507 -0.2258 -1.6378
53702SOL    HW266944   3.293   7.089   0.400 -0.0526 -0.2622  1.0468
53703SOL     OW66945  10.701  11.973   0.513 -0.2286 -0.1992  0.1009
53703SOL    HW166946  10.788  11.983   0.552  0.3012 -0.8511 -0.8649
53703SOL    HW266947  10.700  12.036   0.441 -0.5884 -0.1490  0.1478
53704SOL     OW66948   6.605  11.428  10.036  0.8174 -0.6326 -0.4700
53704SOL    HW166949   6.556  11.349  10.058 -0.2487  0.3051  0.6947
53704SOL    HW266950   6.550  11.474   9.972  0.1064  0.4313  0.8517
53705SOL     OW66951  10.955  10.364   9.822 -0.3070  0.2026 -0.5582
53705SOL    HW166952  10.875  10.313   9.810 -1.2435  1.7868 -1.3516
53705SOL    HW266953  10.927  10.455   9.817  1.5031  0.8123 -0.4686
53706SOL     OW66954   2.115   1.887  10.708  0.5782 -0.4080 -0.2315
53706SOL    HW166955   2.056   1.937  10.764 -1.7755 -1.8074 -1.2839
53706SOL    HW266956   2.178   1.951  10.675 -1.1829  1.4867 -0.1008
53707SOL     OW66957   5.507  12.296   7.652  0.3399 -0.3135 -0.3399
53707SOL    HW166958   5.534  12.212   7.614  0.2952 -0.6434  0.3357
53707SOL    HW266959   5.419  12.280   7.685  0.9246 -0.4892  1.2138
53708SOL     OW66960   8.151   0.871  10.911 -0.2363 -0.0700 -0.0619
53708SOL    HW166961   8.175   0.952  10.866 -0.9008  0.6694  0.8799
53708SOL    HW266962   8.161   0.803  10.844 -0.0871  0.8404 -0.9952
53709SOL     OW66963   9.702   9.210   7.403 -0.4399  0.1103  0.3656
53709SOL    HW166964   9.736   9.221   7.492  0.9187  0.6374 -0.1789
53709SOL    HW266965   9.687   9.300   7.372  0.1642 -0.0053 -0.3020
53710SOL     OW66966   1.711   9.492   3.131  0.0342 -0.0586 -0.4642
53710SOL    HW166967   1.780   9.545   3.170  0.0754 -0.5093  0.0921
53710SOL    HW266968   1.629   9.533   3.159  0.0712  0.3326 -0.9212
53711SOL     OW66969   7.072   7.150   0.471 -0.8270  0.7296  0.4156
53711SOL    HW166970   7.128   7.118   0.400 -0.3517  0.6881  0.8092
53711SOL    HW266971   7.006   7.204   0.427  0.3109  1.8943  0.0697
53712SOL     OW66972   8.430   8.585   5.951  0.2543 -0.0277  0.0665
53712SOL    HW166973   8.347   8.601   5.906  0.6360  1.8415 -0.0544
53712SOL    HW266974   8.483   8.539   5.886 -0.1909  0.0550 -0.3697
53713SOL     OW66975   2.452   5.025   9.938 -0.1231  0.0493 -0.3648
53713SOL    HW166976   2.541   5.057   9.948 -0.5403  1.2746 -0.3667
53713SOL    HW266977   2.443   4.956  10.003  0.7836  0.0068 -0.2793
53714SOL     OW66978   8.213   9.097   6.803  1.1490 -0.7565 -0.3449
53714SOL    HW166979   8.249   9.168   6.856  0.5716 -0.4887 -0.3048
53714SOL    HW266980   8.250   9.110   6.716  1.6046 -0.8277 -0.1655
53715SOL     OW66981   0.230  10.304   2.258 -0.2556 -0.4492 -0.8809
53715SOL    HW166982   0.181  10.260   2.327  0.5608 -0.0393 -0.0184
53715SOL    HW266983   0.168  10.366   2.221 -0.3572  0.1967  0.3209
53716SOL     OW66984   3.634   6.723   4.462  0.4363  0.2799 -0.1815
53716SOL    HW166985   3.673   6.757   4.542  0.5961 -0.6474  0.1560
53716SOL    HW266986   3.591   6.642   4.490  0.0647  0.2122 -0.9399
53717SOL     OW66987   7.141   6.090   3.165  0.2875  0.0445  0.1648
53717SOL    HW166988   7.138   6.036   3.086 -1.1297  0.5028 -0.1215
53717SOL    HW266989   7.229   6.129   3.163 -0.0048  0.7574 -1.6962
53718SOL     OW66990  10.425   9.588   3.761 -0.0215 -0.4199 -0.2899
53718SOL    HW166991  10.342   9.622   3.794  0.3101  0.2167 -0.0925
53718SOL    HW266992  10.440   9.637   3.679  0.2467 -0.3960 -0.2285
53719SOL     OW66993  10.212   9.630   8.671  0.1123 -0.5003 -0.3081
53719SOL    HW166994  10.204   9.640   8.576  0.5139 -0.5328 -0.3474
53719SOL    HW266995  10.280   9.693   8.696 -0.9768  0.5238  0.1543
53720SOL     OW66996  11.829  11.739   5.459 -0.7079  0.9829 -0.2211
53720SOL    HW166997  11.740  11.752   5.427 -1.5758  0.2247  1.7558
53720SOL    HW266998  11.856  11.655   5.420 -0.1371  2.0035 -2.1966
53721SOL     OW66999   0.744   7.080   7.015  0.1564 -1.0940  0.4712
53721SOL    HW167000   0.777   7.163   7.049 -0.8047 -0.0086 -1.1152
53721SOL    HW267001   0.800   7.013   7.055  3.2747  0.5295 -0.8441
53722SOL     OW67002   6.902  10.154   1.077  0.1185 -0.2525  0.0482
53722SOL    HW167003   6.873  10.223   1.135  0.1963 -0.0759 -0.1194
53722SOL    HW267004   6.923  10.080   1.134  0.3741 -0.0175  0.2596
53723SOL     OW67005   3.573  11.424   3.354  0.7560 -0.6338  0.0908
53723SOL    HW167006   3.569  11.459   3.443 -0.6498  0.4014 -0.3459
53723SOL    HW267007   3.665  11.404   3.340  1.2474  0.6899  1.2235
53724SOL     OW67008   0.150   6.320   5.282  0.1318  0.5797  0.5406
53724SOL    HW167009   0.219   6.335   5.346 -0.2995  2.2839  0.6510
53724SOL    HW267010   0.154   6.397   5.225 -0.6379 -0.0753 -0.4246
53725SOL     OW67011   4.331   7.535   0.187 -0.3610  0.6724 -0.0417
53725SOL    HW167012   4.346   7.629   0.175 -0.8025  0.5817 -1.5933
53725SOL    HW267013   4.287   7.528   0.271  0.3850  1.7696  0.4732
53726SOL     OW67014   1.984   9.916  11.739 -0.2741 -0.1867 -0.0460
53726SOL    HW167015   1.993   9.933  11.645  1.4748  1.5977  0.3646
53726SOL    HW267016   2.029   9.833  11.753 -0.4964 -0.4337 -0.7755
53727SOL     OW67017   2.466  11.387   3.673  0.1409  0.6392 -0.4311
53727SOL    HW167018   2.542  11.442   3.658  0.9581  0.1881  1.6626
53727SOL    HW267019   2.485  11.342   3.755 -1.8221 -0.4810 -0.5266
53728SOL     OW67020   7.088   3.599   1.758 -0.0609  0.5179  0.9477
53728SOL    HW167021   7.097   3.586   1.852  1.7247  0.5650  0.8132
53728SOL    HW267022   7.172   3.572   1.722 -1.2884 -1.2401 -0.8523
53729SOL     OW67023   2.282   5.744  11.306 -0.0881 -0.3254  0.2231
53729SOL    HW167024   2.368   5.758  11.268 -0.2398 -0.7749 -0.3025
53729SOL    HW267025   2.300   5.703  11.390  0.1808 -2.0827 -0.6438
53730SOL     OW67026   2.816   8.861   0.457  0.1589  0.2380  0.2737
53730SOL    HW167027   2.802   8.787   0.516 -0.3118  0.1579  0.0704
53730SOL    HW267028   2.904   8.846   0.421  0.6078  0.5004  1.2395
53731SOL     OW67029   7.663   6.791   5.997 -0.5609  0.0449  0.7474
53731SOL    HW167030   7.729   6.861   5.997 -0.9167  0.3866  0.5354
53731SOL    HW267031   7.710   6.714   6.027  0.4153 -0.1777 -1.2063
53732SOL     OW67032   0.470  11.592   2.005 -0.0472  0.2593  0.2269
53732SOL    HW167033   0.481  11.581   1.910  0.4827 -1.1341  0.4215
53732SOL    HW267034   0.398  11.532   2.027 -0.1525  0.5653  0.7186
53733SOL     OW67035   3.335  10.314   1.120 -0.0965 -0.7849  0.3555
53733SOL    HW167036   3.341  10.408   1.138  0.9293 -0.4310 -1.6020
53733SOL    HW267037   3.418  10.278   1.153  0.5347 -0.5953 -0.9702
53734SOL     OW67038   8.257   4.067   9.108  0.4627  0.3001  0.3298
53734SOL    HW167039   8.316   4.140   9.089  0.4934  0.5465  1.3205
53734SOL    HW267040   8.180   4.109   9.147  0.9807 -0.2613  2.0546
53735SOL     OW67041   8.547  10.322   7.003 -0.4578  0.0566  0.3697
53735SOL    HW167042   8.601  10.243   7.007  2.8330  2.1392  0.9113
53735SOL    HW267043   8.499  10.323   7.086 -0.4345 -1.2336  0.4257
53736SOL     OW67044   4.663   1.850   5.769  0.5744  0.1876  0.0981
53736SOL    HW167045   4.654   1.907   5.693 -0.7211  0.0768  0.1591
53736SOL    HW267046   4.608   1.775   5.749  2.4606 -1.2271 -0.1069
53737SOL     OW67047   5.269   4.481   0.487  0.6012  0.0381  0.0722
53737SOL    HW167048   5.241   4.391   0.498 -0.3142  0.3478  0.3935
53737SOL    HW267049   5.225   4.511   0.407  2.3394 -0.3346 -1.0605
53738SOL     OW67050   1.020   9.672   5.906  0.0507 -0.2536 -0.1893
53738SOL    HW167051   0.930   9.682   5.937 -0.0660 -0.5713 -0.4100
53738SOL    HW267052   1.014   9.683   5.811  0.7064  2.7246  0.0190
53739SOL     OW67053   8.245   8.629  11.289  0.4162  0.2935 -0.6418
53739SOL    HW167054   8.237   8.601  11.198  1.0702  0.5091 -0.7777
53739SOL    HW267055   8.306   8.703  11.286  1.1818 -0.2823  0.0773
53740SOL     OW67056   6.834  11.087   3.763  0.1731 -0.4686 -0.4344
53740SOL    HW167057   6.886  11.135   3.698  0.0636  0.5165  0.1883
53740SOL    HW267058   6.745  11.089   3.728  0.0103  0.5579  0.0008
53741SOL     OW67059   7.283   0.121  11.567  0.2060 -0.4172  0.1704
53741SOL    HW167060   7.197   0.103  11.529  0.5162  0.7137 -1.1601
53741SOL    HW267061   7.276   0.210  11.602  0.0861 -1.2508  2.4097
53742SOL     OW67062   0.543  12.248   9.464  0.6589 -0.3038 -0.2879
53742SOL    HW167063   0.475  12.314   9.450  1.1064 -0.1105 -1.6171
53742SOL    HW267064   0.495  12.168   9.487  0.1158  0.5034  1.6397
53743SOL     OW67065   5.938   4.437  12.016  0.3752  0.1704  0.5782
53743SOL    HW167066   5.964   4.469  11.930 -0.2286 -1.6868 -0.3608
53743SOL    HW267067   6.005   4.470  12.076  3.0748 -1.6674 -1.1969
53744SOL     OW67068   9.345  10.187   0.667 -0.1237 -0.2021 -0.6631
53744SOL    HW167069   9.262  10.179   0.715 -0.1247 -1.3506 -0.8425
53744SOL    HW267070   9.359  10.101   0.628  1.5004 -0.2410 -0.0754
53745SOL     OW67071  11.741  10.040   3.012 -0.4844  0.8617 -0.5694
53745SOL    HW167072  11.707   9.972   2.954 -0.3987  0.0870  0.2668
53745SOL    HW267073  11.764   9.994   3.092  0.1723  1.7843 -0.2109
53746SOL     OW67074   9.438   8.249   5.760  0.0833  0.4557 -0.4784
53746SOL    HW167075   9.456   8.306   5.685  1.9838 -0.5982 -0.8904
53746SOL    HW267076   9.484   8.290   5.833  1.6179 -0.5697 -0.8167
53747SOL     OW67077   6.458  11.942   4.728 -0.4873 -0.1368 -0.6254
53747SOL    HW167078   6.501  12.028   4.721 -1.3546  0.3214 -0.4958
53747SOL    HW267079   6.407  11.947   4.808  2.6865 -2.3099  1.7780
53748SOL     OW67080   7.108   8.516   3.021 -0.3415 -0.9104 -0.0241
53748SOL    HW167081   7.034   8.569   2.989  0.0752 -1.2995 -1.7456
53748SOL    HW267082   7.153   8.488   2.941  0.5987 -2.2202  0.9297
53749SOL     OW67083   8.386   6.555   3.673 -0.6486 -0.6982  0.0368
53749SOL    HW167084   8.469   6.576   3.717  0.2028  0.1174 -1.8501
53749SOL    HW267085   8.390   6.460   3.658  0.5688 -0.4845 -1.1671
53750SOL     OW67086  11.950  10.996   1.209  0.0476 -0.5666 -0.1380
53750SOL    HW167087  11.864  10.980   1.248  0.3773  0.7128  1.1904
53750SOL    HW267088  11.933  11.061   1.140 -0.2738 -1.5652 -1.0332
53751SOL     OW67089   0.048   1.273   1.512  0.0204  0.9653  0.2000
53751SOL    HW167090   0.069   1.273   1.419 -1.5085  0.7391 -0.1683
53751SOL    HW267091  -0.019   1.206   1.522 -0.0565  1.1948  1.4204
53752SOL     OW67092  11.979   8.967   6.932  0.0510 -0.1219 -0.4816
53752SOL    HW167093  12.064   8.974   6.890  0.7967  1.0923  1.1176
53752SOL    HW267094  11.991   8.900   6.999 -0.3279 -0.1292 -0.4183
53753SOL     OW67095   5.842   6.585   3.026 -0.5971  0.8857 -0.5939
53753SOL    HW167096   5.817   6.561   3.115 -1.7391  0.3568 -1.0406
53753SOL    HW267097   5.898   6.663   3.037  1.6142 -0.7645  0.7461
53754SOL     OW67098   6.668  12.265   9.266 -0.1782  0.4571  0.3861
53754SOL    HW167099   6.577  12.294   9.257 -0.5051 -0.8026 -0.5301
53754SOL    HW267100   6.699  12.310   9.345 -1.5547  0.9734  0.6672
53755SOL     OW67101   4.661  10.568   6.782  0.3242  0.1467 -0.0067
53755SOL    HW167102   4.687  10.476   6.789 -2.8743 -0.8411  0.2476
53755SOL    HW267103   4.629  10.577   6.693 -0.1919  0.7832  0.2363
53756SOL     OW67104   0.092  10.526   2.648  0.1023 -0.4238 -0.5436
53756SOL    HW167105   0.088  10.617   2.619  2.7320 -0.4190 -1.1618
53756SOL    HW267106   0.097  10.531   2.743  0.1805  0.0605 -0.5718
53757SOL     OW67107   8.219   0.563   9.858 -0.1163 -0.2590 -0.2466
53757SOL    HW167108   8.227   0.624   9.785 -0.5274 -0.1720 -0.2240
53757SOL    HW267109   8.212   0.477   9.817 -0.8002 -0.1680 -0.3351
53758SOL     OW67110   7.042  11.434   3.598  0.2404  0.2766  0.3359
53758SOL    HW167111   7.030  11.448   3.691 -2.5813 -0.0053  0.0941
53758SOL    HW267112   7.013  11.516   3.558  0.9087  0.1997 -0.3261
53759SOL     OW67113   1.558   4.076   0.627 -0.4866 -0.3236 -0.7429
53759SOL    HW167114   1.538   4.024   0.706 -1.1358 -0.4138 -0.9597
53759SOL    HW267115   1.653   4.081   0.625 -0.4657  1.5023  1.2420
53760SOL     OW67116  11.118  10.139   7.395 -0.0357 -0.7323  0.6540
53760SOL    HW167117  11.177  10.149   7.321 -0.5560 -0.4439  0.2718
53760SOL    HW267118  11.078  10.226   7.406  0.5979 -0.5521  1.7581
53761SOL     OW67119   6.397   0.003  11.378 -0.3702  0.2981  0.2725
53761SOL    HW167120   6.302  -0.009  11.364 -0.0637 -2.2357 -0.2268
53761SOL    HW267121   6.432  -0.086  11.373  2.1551  1.2661 -0.3310
53762SOL     OW67122   2.980  12.157   6.693  0.5993 -0.3283 -0.5134
53762SOL    HW167123   3.037  12.082   6.676 -2.2418 -2.2814 -2.3122
53762SOL    HW267124   2.893  12.119   6.706 -0.7736  2.5934 -0.3356
53763SOL     OW67125   6.385   4.455   3.951 -0.3306  0.5340 -0.1495
53763SOL    HW167126   6.309   4.502   3.916 -0.9003  0.0867  0.4761
53763SOL    HW267127   6.426   4.518   4.011 -0.7613  0.4327  0.2506
53764SOL     OW67128   5.219   9.908   1.067 -0.3709  0.1556 -0.0408
53764SOL    HW167129   5.137   9.870   1.100 -0.8679  1.2833  0.0603
53764SOL    HW267130   5.257   9.952   1.143 -0.1618  0.4546 -0.3144
53765SOL     OW67131  10.990   3.569   4.270  0.0951  0.0795  0.1552
53765SOL    HW167132  10.993   3.504   4.340  0.1168  0.6083  0.6569
53765SOL    HW267133  11.033   3.646   4.307  0.2174  0.3276 -0.4852
53766SOL     OW67134   1.287  12.193   7.659  0.0418 -0.6912 -0.5659
53766SOL    HW167135   1.297  12.103   7.690 -0.9454 -0.2323  1.2360
53766SOL    HW267136   1.195  12.215   7.679  0.8383  1.4463  1.2516
53767SOL     OW67137   3.168   0.558  11.566  0.7556 -0.1938  0.4544
53767SOL    HW167138   3.210   0.641  11.588  0.1998 -0.6733  3.7772
53767SOL    HW267139   3.199   0.538  11.477  0.6507  3.6655 -0.6276
53768SOL     OW67140   5.964  10.591  11.125 -0.0039  0.0571 -0.4821
53768SOL    HW167141   5.981  10.643  11.203  0.5799  0.2430 -0.7290
53768SOL    HW267142   5.869  10.596  11.113  0.0950  1.4337 -0.7586
53769SOL     OW67143   2.108   5.742  11.069 -0.5562 -0.3200  0.3545
53769SOL    HW167144   2.167   5.789  11.010  1.9033 -1.9195  1.4103
53769SOL    HW267145   2.144   5.757  11.156 -1.0061 -2.3117  0.9260
53770SOL     OW67146   5.214   2.480  10.411  0.0267 -0.0435 -0.0852
53770SOL    HW167147   5.276   2.416  10.377  0.7399  0.8746 -0.5493
53770SOL    HW267148   5.265   2.535  10.470 -1.1441 -1.5093  2.4854
53771SOL     OW67149   3.768   4.408   5.040 -0.0381  0.3262  0.6290
53771SOL    HW167150   3.714   4.427   4.964  1.1990 -0.0133 -0.3644
53771SOL    HW267151   3.841   4.356   5.006 -0.8726 -2.2592  2.4761
53772SOL     OW67152   3.577   9.410  11.870  0.5746 -0.4463  0.2012
53772SOL    HW167153   3.627   9.333  11.898 -0.0610 -0.6276  0.8681
53772SOL    HW267154   3.485   9.384  11.880  0.3460  0.0888 -0.4310
53773SOL     OW67155   1.455   3.612   6.385 -0.4819 -0.1727 -0.2616
53773SOL    HW167156   1.510   3.654   6.451 -0.0824  1.1341 -1.3887
53773SOL    HW267157   1.516   3.575   6.322 -0.8084  1.6038 -1.7210
53774SOL     OW67158   3.811   1.983   9.310  0.1018 -0.0164  0.4951
53774SOL    HW167159   3.791   2.059   9.365 -0.9798 -0.7832  1.1942
53774SOL    HW267160   3.840   2.021   9.227  1.4190  1.1685  1.4462
53775SOL     OW67161   8.756   1.921   9.000  0.9342  0.1399 -0.0720
53775SOL    HW167162   8.829   1.886   8.949  0.8583 -0.6070  0.3151
53775SOL    HW267163   8.738   2.006   8.961  0.8355 -0.4362 -1.3378
53776SOL     OW67164  11.050   8.384   0.778 -0.2603 -1.0495  0.0538
53776SOL    HW167165  11.040   8.439   0.856  0.4381  0.0977 -0.6396
53776SOL    HW267166  10.988   8.420   0.715  0.2248 -1.0274 -0.4232
53777SOL     OW67167   5.989   3.705   4.603  0.0500 -0.2164 -0.2204
53777SOL    HW167168   6.054   3.742   4.543 -0.8342  0.2777 -0.8945
53777SOL    HW267169   5.952   3.631   4.556 -1.6410  1.0105 -0.9051
53778SOL     OW67170   0.005   9.185   2.653  0.9623  0.5501 -1.4393
53778SOL    HW167171  -0.012   9.149   2.566  1.1928 -1.5694 -0.6581
53778SOL    HW267172  -0.079   9.180   2.697  0.9967  1.0211 -1.3139
53779SOL     OW67173   5.934  12.185   8.564  0.3539  0.3445 -0.2321
53779SOL    HW167174   5.927  12.121   8.493 -0.1462  0.7285 -0.5370
53779SOL    HW267175   5.845  12.190   8.599  0.4905  0.5332  0.0901
53780SOL     OW67176   7.687   8.097   9.639 -0.2711  0.1858  0.2896
53780SOL    HW167177   7.718   8.162   9.577  0.2513  1.2364  1.6072
53780SOL    HW267178   7.613   8.055   9.595  1.8625 -1.2123 -2.2246
53781SOL     OW67179   8.204   8.261   5.651 -0.1501 -0.3427 -0.2281
53781SOL    HW167180   8.178   8.341   5.698 -1.7734 -0.3578 -1.0315
53781SOL    HW267181   8.124   8.231   5.609  0.8237 -1.4181 -1.4031
53782SOL     OW67182  11.621   6.555   1.989  0.6103 -0.0233 -0.2038
53782SOL    HW167183  11.610   6.460   1.998  2.9025 -0.2976  0.4161
53782SOL    HW267184  11.567   6.579   1.915  0.2013 -1.8806 -0.5483
53783SOL     OW67185   3.956   1.132   2.578  0.2179 -0.1695 -0.1030
53783SOL    HW167186   3.968   1.078   2.500 -2.0919  0.5468 -1.0438
53783SOL    HW267187   3.941   1.069   2.649 -1.8284 -0.8388 -1.0625
53784SOL     OW67188  10.924  10.951   9.550  0.3290  0.2495  0.4383
53784SOL    HW167189  10.940  10.909   9.634  0.1219 -0.5989  0.0691
53784SOL    HW267190  11.009  10.987   9.524  0.9713 -1.5159 -0.0605
53785SOL     OW67191   6.074   2.330   1.909 -0.2379  0.5318 -0.1546
53785SOL    HW167192   6.007   2.263   1.916  1.2962 -0.9532  1.2309
53785SOL    HW267193   6.095   2.353   2.000  0.1259  2.0381 -0.5796
53786SOL     OW67194   7.618   2.766  12.139 -0.6039  0.3179  0.3432
53786SOL    HW167195   7.573   2.822  12.075  1.7486  0.6242 -1.1722
53786SOL    HW267196   7.606   2.812  12.223 -0.4865  2.0138 -0.5264
53787SOL     OW67197   3.775   9.537   5.930  0.2447  0.2978 -0.8037
53787SOL    HW167198   3.717   9.536   6.006  0.7138 -0.2860 -0.4536
53787SOL    HW267199   3.736   9.603   5.872  0.5020  1.5750  0.4205
53788SOL     OW67200   3.236   5.812   4.237 -0.8000  0.2114 -0.0935
53788SOL    HW167201   3.193   5.727   4.250  0.6719 -0.5368  0.1268
53788SOL    HW267202   3.258   5.814   4.144  0.2930 -0.2383  0.1368
53789SOL     OW67203   1.386  10.926   7.190  0.2501 -0.2459  0.1912
53789SOL    HW167204   1.472  10.886   7.185  0.5949  0.2184  1.8385
53789SOL    HW267205   1.377  10.955   7.281 -1.2655  0.5489 -0.1584
53790SOL     OW67206   6.042   1.604   7.162 -0.1080 -0.6141 -0.1979
53790SOL    HW167207   5.991   1.639   7.089  1.4095 -1.1656 -1.5745
53790SOL    HW267208   6.110   1.551   7.121  1.4579 -0.0725  1.5616
53791SOL     OW67209   6.052  11.912   3.002 -0.6266  0.5284  0.0718
53791SOL    HW167210   6.109  11.937   3.074  0.7207 -1.2422 -0.3085
53791SOL    HW267211   6.098  11.941   2.924 -0.2267 -0.8469 -0.2322
53792SOL     OW67212   8.608   8.416   1.427 -0.1091  0.1855  0.1207
53792SOL    HW167213   8.561   8.392   1.507  0.7677  2.8769  1.5676
53792SOL    HW267214   8.539   8.446   1.367 -0.6799 -1.0387  0.1110
53793SOL     OW67215   4.057   4.181   6.017  0.2759 -0.1028  0.2115
53793SOL    HW167216   3.993   4.144   6.078 -0.0890  0.0987 -0.0419
53793SOL    HW267217   4.141   4.173   6.062  0.1849 -1.0810  0.2323
53794SOL     OW67218   6.807   7.633   2.931  0.2389  0.0320  0.0157
53794SOL    HW167219   6.785   7.722   2.958 -0.7030  0.1248 -0.9724
53794SOL    HW267220   6.723   7.592   2.911  0.7897 -0.1061 -2.4256
53795SOL     OW67221   4.742   0.936   1.456 -0.0790  0.3573  0.7576
53795SOL    HW167222   4.676   1.000   1.432  0.7184  0.9990  0.2336
53795SOL    HW267223   4.782   0.970   1.536  0.6387  0.7540  0.2442
53796SOL     OW67224   0.445   2.423   1.473  0.3887  0.3378 -0.1518
53796SOL    HW167225   0.422   2.417   1.381 -0.1880  1.9223 -0.1340
53796SOL    HW267226   0.535   2.453   1.474 -0.4638  3.1913 -0.2651
53797SOL     OW67227   4.225   3.113   8.196  0.2444 -0.3044 -0.6476
53797SOL    HW167228   4.283   3.128   8.122  0.6273  0.2650 -0.2429
53797SOL    HW267229   4.223   3.197   8.242 -1.4884 -0.0926 -1.0526
53798SOL     OW67230  11.059   7.884  11.607  0.2750  0.2960  0.4669
53798SOL    HW167231  11.100   7.865  11.523 -0.5952 -0.3120  0.1562
53798SOL    HW267232  11.095   7.968  11.633  0.9141  0.2703 -0.2885
53799SOL     OW67233  10.012   6.325   8.585 -0.1657  0.8816  0.0584
53799SOL    HW167234  10.043   6.310   8.495 -1.9799  1.5313 -0.7375
53799SOL    HW267235   9.997   6.420   8.589  0.0825  0.8858  1.1249
53800SOL     OW67236   9.123   1.957   4.434 -0.3602 -0.2763 -0.3622
53800SOL    HW167237   9.072   2.028   4.395  1.0822  0.4093 -1.0695
53800SOL    HW267238   9.167   1.998   4.509 -1.3250 -1.0267  0.6468
53801SOL     OW67239   1.308   5.109  12.289  0.0754  0.2945  0.1736
53801SOL    HW167240   1.241   5.070  12.233  0.2717 -0.2908  0.3449
53801SOL    HW267241   1.371   5.146  12.228 -0.0760  0.2841  0.0095
53802SOL     OW67242   3.005   9.746   9.945 -0.2351  0.1136  0.1117
53802SOL    HW167243   2.999   9.705  10.032  0.1910  2.2386  1.1997
53802SOL    HW267244   2.917   9.739   9.909 -0.9589  1.0376  1.6254
53803SOL     OW67245   7.032   3.709   3.273  0.2020 -0.4991 -0.3348
53803SOL    HW167246   6.939   3.695   3.293  0.7369  0.4254  3.6208
53803SOL    HW267247   7.034   3.791   3.225 -0.9526  0.3242  0.9608
53804SOL     OW67248   5.936   3.275  11.486 -0.2533 -0.0480 -0.1593
53804SOL    HW167249   5.971   3.258  11.399  0.2852 -1.0154  0.2314
53804SOL    HW267250   6.012   3.270  11.544 -0.7981 -0.7550  0.5255
53805SOL     OW67251   4.424   2.872  10.133  0.3150  0.2901 -0.1952
53805SOL    HW167252   4.459   2.785  10.112 -1.2065 -0.6281  0.8882
53805SOL    HW267253   4.362   2.856  10.205 -1.1272  2.0406 -0.9735
53806SOL     OW67254   8.601   2.047   1.097 -0.1366 -0.1627 -0.8619
53806SOL    HW167255   8.506   2.052   1.101 -0.2844 -2.4455 -0.1589
53806SOL    HW267256   8.625   1.984   1.165  2.0116  1.3214 -0.1455
53807SOL     OW67257   6.959   1.312   9.510  0.2911  0.4244 -0.4808
53807SOL    HW167258   7.033   1.309   9.449  1.2702 -0.9733  0.7180
53807SOL    HW267259   6.933   1.221   9.521  1.4478  0.3496  2.6646
53808SOL     OW67260   4.038   3.552   6.086 -0.0501 -0.1536 -0.2323
53808SOL    HW167261   4.085   3.609   6.025 -0.4265 -1.3681 -1.7259
53808SOL    HW267262   4.102   3.483   6.109 -0.1159 -0.0608  0.2357
53809SOL     OW67263   1.239   5.915  10.824  0.0312 -0.3070  0.1168
53809SOL    HW167264   1.181   5.923  10.899  0.3887  0.8270  0.3051
53809SOL    HW267265   1.182   5.928  10.748 -0.1169 -0.1384  0.2550
53810SOL     OW67266   3.907   4.050   6.181 -0.6790  0.2838  0.3769
53810SOL    HW167267   3.826   4.025   6.135 -1.0092  1.8988  0.0136
53810SOL    HW267268   3.881   4.058   6.272 -0.4223 -1.2375  0.6071
53811SOL     OW67269   4.821   3.772   5.090  0.5192 -0.0983 -0.1880
53811SOL    HW167270   4.893   3.708   5.079  2.6839  2.4192 -1.9422
53811SOL    HW267271   4.860   3.842   5.142 -1.7759 -0.0588  1.6152
53812SOL     OW67272  10.869   1.302   0.444  0.7600  0.2511 -0.4089
53812SOL    HW167273  10.799   1.354   0.405  1.1486  1.3117  0.2676
53812SOL    HW267274  10.888   1.235   0.379 -2.2351 -1.3415  0.1705
53813SOL     OW67275   6.313   0.793   6.053 -0.2315  0.4310  0.1108
53813SOL    HW167276   6.395   0.798   6.103 -1.5183  0.4758  2.3877
53813SOL    HW267277   6.315   0.869   5.995  0.4895  1.5831  1.5783
53814SOL     OW67278   3.046  11.329   7.013  0.4417  0.4987  0.3387
53814SOL    HW167279   3.091  11.402   6.971 -0.3310  1.3712  0.9952
53814SOL    HW267280   3.099  11.309   7.090  2.4941 -1.8410 -1.5191
53815SOL     OW67281   5.604  10.684  12.257  0.3087  0.1296 -0.0836
53815SOL    HW167282   5.512  10.676  12.281  0.7582  1.1488  2.1886
53815SOL    HW267283   5.650  10.627  12.318  1.3832  1.5708  0.5043
53816SOL     OW67284   3.162   1.509  10.036  0.6597 -0.5767  0.0662
53816SOL    HW167285   3.191   1.576   9.974  1.1590 -0.4962  0.3827
53816SOL    HW267286   3.179   1.546  10.122  0.4043 -0.8787  0.2494
53817SOL     OW67287   1.850   7.422   8.873 -0.4716  0.1737  0.1634
53817SOL    HW167288   1.783   7.388   8.814  1.3031 -2.4807 -0.5012
53817SOL    HW267289   1.821   7.395   8.960 -1.5838  1.4657  0.2252
53818SOL     OW67290   1.825   1.964   6.537  0.4199  0.1668 -0.1100
53818SOL    HW167291   1.891   2.027   6.512  0.7042  0.0622  0.3630
53818SOL    HW267292   1.804   1.917   6.456  0.4607  0.6255 -0.3873
53819SOL     OW67293   0.518  12.090   3.912 -0.4269  0.1637 -0.1942
53819SOL    HW167294   0.541  12.078   3.820 -1.7993 -2.2827 -0.3116
53819SOL    HW267295   0.425  12.116   3.911 -0.8998 -1.3585  0.4748
53820SOL     OW67296   2.546   8.717   4.555 -1.0173 -0.1490 -0.5950
53820SOL    HW167297   2.599   8.716   4.475  1.4728  0.0801  0.9579
53820SOL    HW267298   2.504   8.803   4.555  1.2078  0.9876 -0.3148
53821SOL     OW67299  11.990   0.532   5.290 -0.4271  0.3434  0.5401
53821SOL    HW167300  12.001   0.572   5.204 -1.6916  1.6449  0.9417
53821SOL    HW267301  11.910   0.481   5.283  0.8152 -1.6928  0.2360
53822SOL     OW67302  11.570   8.573   8.431  0.4877  0.0737 -0.2754
53822SOL    HW167303  11.661   8.544   8.428  0.5750  0.3527 -2.9867
53822SOL    HW267304  11.567   8.649   8.374 -1.1295  1.2447  1.2531
53823SOL     OW67305  10.736  10.593   7.464 -0.0343 -0.1175  0.4435
53823SOL    HW167306  10.676  10.648   7.413 -0.7880 -0.7088  0.6793
53823SOL    HW267307  10.717  10.504   7.435 -2.5711 -0.8366  3.7595
53824SOL     OW67308   7.775   4.106   7.821  0.4381 -0.0622 -0.1275
53824SOL    HW167309   7.705   4.146   7.768  0.5275 -1.4638 -1.3561
53824SOL    HW267310   7.734   4.089   7.905 -0.1263  0.9201 -0.1862
53825SOL     OW67311   1.001   7.303  10.090 -0.2257 -0.0821  0.1767
53825SOL    HW167312   1.048   7.249  10.026 -2.8483 -0.1580 -1.8795
53825SOL    HW267313   1.066   7.366  10.120  0.9667  0.7385 -3.5326
53826SOL     OW67314   3.692   9.118   7.682  0.0987 -0.1091  0.0841
53826SOL    HW167315   3.623   9.054   7.662 -1.3463  1.5159 -0.3972
53826SOL    HW267316   3.706   9.109   7.777 -1.6094  0.2774  0.4121
53827SOL     OW67317   3.990   4.608  10.306 -0.4710 -0.2377  0.5376
53827SOL    HW167318   4.036   4.525  10.292  0.8610  0.7243 -1.0879
53827SOL    HW267319   4.030   4.644  10.385  0.7833  0.0527 -0.2170
53828SOL     OW67320   5.537   2.808   2.755  0.4612  0.1757 -0.4830
53828SOL    HW167321   5.555   2.822   2.663  1.2114  2.4261 -0.0453
53828SOL    HW267322   5.623   2.803   2.797  0.1424  1.1857  0.3372
53829SOL     OW67323   8.371   6.603   2.749  1.1235 -0.2481 -0.4148
53829SOL    HW167324   8.280   6.581   2.730 -0.1817  2.0157  2.4928
53829SOL    HW267325   8.378   6.696   2.728  2.8278 -0.3906 -0.6171
53830SOL     OW67326   8.078   5.360   4.760 -0.4556  0.3694 -0.0150
53830SOL    HW167327   8.063   5.420   4.687 -3.1005 -0.8474 -0.5815
53830SOL    HW267328   8.106   5.416   4.832 -0.1742  1.9103 -1.2715
53831SOL     OW67329   7.031   1.837  10.451  0.5745 -0.4994  0.4737
53831SOL    HW167330   7.105   1.872  10.501  0.3513 -0.9164  1.1071
53831SOL    HW267331   6.969   1.910  10.447  1.6278  0.3637 -1.3740
53832SOL     OW67332   9.654   6.366   0.120  0.0270  0.0407  0.0052
53832SOL    HW167333   9.624   6.447   0.161  3.0162  1.8257 -0.9838
53832SOL    HW267334   9.633   6.376   0.028  3.9691  1.7780 -0.8981
53833SOL     OW67335   8.424   4.648  11.276  0.3269  0.3037  0.7312
53833SOL    HW167336   8.480   4.657  11.353 -0.3234 -1.0211  1.4048
53833SOL    HW267337   8.472   4.692  11.206  2.2694 -0.8333  1.2516
53834SOL     OW67338   3.420   6.071   0.324 -0.0372 -0.0169 -0.4418
53834SOL    HW167339   3.351   6.112   0.376  0.5295 -0.0861  0.3857
53834SOL    HW267340   3.501   6.095   0.368  0.2695 -3.0044  0.8228
53835SOL     OW67341   5.765   9.231   3.232  0.4321 -0.2247 -0.0728
53835SOL    HW167342   5.826   9.305   3.237  0.9435 -0.7183  2.3763
53835SOL    HW267343   5.818   9.158   3.199  0.3853  0.0700 -0.8029
53836SOL     OW67344   2.263   3.226   8.715  0.1714  0.0988  0.8141
53836SOL    HW167345   2.331   3.160   8.713 -0.6591 -0.7443 -0.5966
53836SOL    HW267346   2.203   3.203   8.645 -0.3540  2.1417  0.5056
53837SOL     OW67347   6.455   6.041   5.369  0.2631  0.1367 -1.3765
53837SOL    HW167348   6.408   6.087   5.299 -3.5153  2.2053  2.0800
53837SOL    HW267349   6.391   5.977   5.401  1.3369  0.1399  0.9364
53838SOL     OW67350   5.758   3.143   7.355  0.1402 -0.1204  0.1687
53838SOL    HW167351   5.731   3.191   7.433  0.9033  1.5601 -0.5690
53838SOL    HW267352   5.854   3.137   7.362  0.1827 -0.3131 -0.4437
53839SOL     OW67353   1.544   3.366   2.259  0.0523  0.0652 -0.6058
53839SOL    HW167354   1.489   3.388   2.335 -0.0449  0.3753 -0.7643
53839SOL    HW267355   1.565   3.274   2.271 -0.6060 -0.0911 -0.6018
53840SOL     OW67356   9.126   3.284   2.822  0.3880  0.0480 -0.3839
53840SOL    HW167357   9.176   3.254   2.897  0.3767  0.5555 -0.1696
53840SOL    HW267358   9.042   3.313   2.858 -0.0362 -0.7092 -0.7276
53841SOL     OW67359   7.010   9.032   8.482  0.1977  0.3867  0.3285
53841SOL    HW167360   7.083   9.041   8.543  0.2343 -1.0013  0.5397
53841SOL    HW267361   6.991   8.938   8.482 -1.8815  0.7763  0.6048
53842SOL     OW67362   7.139  11.932   8.312 -0.0917  0.3586  0.2789
53842SOL    HW167363   7.137  12.000   8.244  1.1215  0.9486  0.7982
53842SOL    HW267364   7.051  11.934   8.349 -0.7114  0.1836 -1.1058
53843SOL     OW67365   5.964   0.123   0.970 -0.4735  0.2415  0.0246
53843SOL    HW167366   6.036   0.152   0.914 -2.1946 -1.6016 -3.5086
53843SOL    HW267367   5.997   0.132   1.059  2.6485  3.0819 -1.2180
53844SOL     OW67368   5.042   8.111   1.350  0.1075 -0.1560  0.3702
53844SOL    HW167369   5.083   8.039   1.303  1.2965 -0.5567  1.9253
53844SOL    HW267370   5.112   8.175   1.362 -1.0708  1.5996 -1.4980
53845SOL     OW67371   1.619   4.989   0.840  0.8758  0.0066 -0.7305
53845SOL    HW167372   1.552   5.048   0.876  1.2777  1.1497 -1.8024
53845SOL    HW267373   1.644   4.934   0.914 -1.8001 -1.0140 -0.4612
53846SOL     OW67374   7.387  11.941   7.317  0.1198  0.1189  0.0060
53846SOL    HW167375   7.434  12.014   7.276  1.6895 -1.6674 -1.5405
53846SOL    HW267376   7.327  11.911   7.249 -1.5554  0.7834  1.1218
53847SOL     OW67377   7.360  12.151   3.599 -0.6848  0.3189  0.1304
53847SOL    HW167378   7.342  12.219   3.663 -1.9253  0.3920 -0.2671
53847SOL    HW267379   7.331  12.070   3.640 -0.7586  0.2624 -0.0289
53848SOL     OW67380   5.502   5.224   5.725 -0.9250 -0.2405 -0.0812
53848SOL    HW167381   5.492   5.288   5.655 -0.7009 -1.4223 -1.2269
53848SOL    HW267382   5.562   5.265   5.787 -1.0013  0.7625 -0.6593
53849SOL     OW67383   9.142  10.700  11.383  0.2818  0.5202  0.2954
53849SOL    HW167384   9.229  10.667  11.407  0.2986  0.7389  0.5519
53849SOL    HW267385   9.157  10.753  11.305  0.3381  0.3575  0.1938
53850SOL     OW67386  11.371   2.229   9.287  0.0594 -0.7049  0.5092
53850SOL    HW167387  11.435   2.158   9.287  0.4501 -0.3563  0.3904
53850SOL    HW267388  11.290   2.188   9.316  0.5110 -0.9979  1.3992
53851SOL     OW67389   2.602   4.214   1.831  0.5923 -0.6360 -0.3016
53851SOL    HW167390   2.568   4.285   1.777  1.6705  0.5874  0.5673
53851SOL    HW267391   2.686   4.190   1.792  1.3931  0.2757  0.7893
53852SOL     OW67392   6.874  11.427   3.187 -0.0879  0.4584 -0.2404
53852SOL    HW167393   6.939  11.358   3.178  0.1645  0.6992 -0.2720
53852SOL    HW267394   6.920  11.498   3.232  0.1456  1.2677 -1.7180
53853SOL     OW67395  12.189  11.575   2.221 -0.3156  0.0395 -0.1430
53853SOL    HW167396  12.203  11.668   2.202  0.9965 -0.2414 -0.6624
53853SOL    HW267397  12.124  11.574   2.291 -2.4095  1.2510 -1.9598
53854SOL     OW67398   3.409   6.027   6.066  0.0379  0.0842  0.6067
53854SOL    HW167399   3.481   6.032   6.003  0.0685  0.1870  0.6497
53854SOL    HW267400   3.337   5.989   6.017  0.2489 -0.4108  0.6781
53855SOL     OW67401  10.536   5.762   8.858  0.0727  0.5095 -0.0503
53855SOL    HW167402  10.583   5.756   8.775 -0.3142 -2.9390 -0.1847
53855SOL    HW267403  10.574   5.838   8.902  2.4994  0.5856 -2.0466
53856SOL     OW67404  10.427   9.734   9.364  0.1310 -0.1347 -0.1932
53856SOL    HW167405  10.343   9.780   9.368  0.4490  0.5332 -0.9206
53856SOL    HW267406  10.420   9.665   9.430 -0.9650 -0.0522 -0.2152
53857SOL     OW67407  10.664  10.020  10.598  0.3755  0.8242 -0.2743
53857SOL    HW167408  10.591   9.969  10.632  1.1715  0.1475  0.4578
53857SOL    HW267409  10.690   9.975  10.518  0.4659  0.6322 -0.1379
53858SOL     OW67410   2.782   1.864   4.300  0.1880  0.1229  0.6407
53858SOL    HW167411   2.850   1.881   4.234 -1.9674 -0.1387 -1.8524
53858SOL    HW267412   2.784   1.770   4.313  0.6096  0.1710  0.9211
53859SOL     OW67413   9.304   5.516   6.834 -0.3821  0.0698 -0.3142
53859SOL    HW167414   9.304   5.506   6.930  1.2846 -1.1282 -0.4060
53859SOL    HW267415   9.388   5.558   6.814 -0.1051 -0.9224 -1.3407
53860SOL     OW67416   6.758  11.957   0.370  0.4967  0.1700  0.4983
53860SOL    HW167417   6.823  12.021   0.341 -1.0837  1.5487 -0.1872
53860SOL    HW267418   6.746  11.900   0.294  0.9372 -0.1262  0.6478
53861SOL     OW67419   4.406   9.513   6.780  0.0705  0.0314  0.1672
53861SOL    HW167420   4.419   9.420   6.762 -1.4325  0.0237 -1.0763
53861SOL    HW267421   4.380   9.517   6.872 -3.1407 -1.2137 -0.5351
53862SOL     OW67422   8.827   6.256   8.735  0.1228  0.1375 -0.2599
53862SOL    HW167423   8.874   6.205   8.801  0.1783 -2.1369 -1.9402
53862SOL    HW267424   8.787   6.190   8.678 -2.0263  2.0045 -1.0671
53863SOL     OW67425   6.806  11.180   5.333 -0.0698 -0.3403 -0.3789
53863SOL    HW167426   6.804  11.085   5.321 -0.7074 -0.1389 -2.3518
53863SOL    HW267427   6.721  11.200   5.371  0.0415 -0.5610 -0.0132
53864SOL     OW67428   5.034   7.415   9.345 -0.6081  0.4300 -0.4755
53864SOL    HW167429   5.034   7.368   9.261 -1.2749  0.1924 -0.3471
53864SOL    HW267430   5.118   7.393   9.384 -0.1487  0.8007 -1.2257
53865SOL     OW67431  10.098   2.928  10.686  0.0862  0.6065  0.5008
53865SOL    HW167432  10.089   2.849  10.633 -0.5526  0.2557  1.1275
53865SOL    HW267433  10.191   2.929  10.712  0.1945  0.3007  0.1327
53866SOL     OW67434   1.420   7.891  11.833 -0.3912 -0.4648 -0.0339
53866SOL    HW167435   1.420   7.928  11.744  1.0079 -0.9290 -0.2575
53866SOL    HW267436   1.330   7.865  11.848 -0.8594  0.5633 -0.9177
53867SOL     OW67437   6.557   6.270  10.479  0.7126 -0.4401  0.1591
53867SOL    HW167438   6.649   6.245  10.480  0.5193 -1.1997  1.5836
53867SOL    HW267439   6.554   6.350  10.533  0.8928  1.1388 -2.0316
53868SOL     OW67440  10.972   6.746   5.894  0.3305 -0.3257 -0.0559
53868SOL    HW167441  11.023   6.723   5.817  1.2088  1.7901 -0.1889
53868SOL    HW267442  10.881   6.742   5.865  0.4772 -2.3240 -0.3480
53869SOL     OW67443   3.459  10.754   1.589 -0.2607 -0.2505  0.0429
53869SOL    HW167444   3.368  10.727   1.596 -0.1502 -0.3665  1.4289
53869SOL    HW267445   3.478  10.795   1.674  1.0917 -0.6305 -0.0592
53870SOL     OW67446   6.095   5.211   2.675 -0.0261 -0.4095 -0.1276
53870SOL    HW167447   6.017   5.158   2.689 -0.2230 -0.0365  0.2218
53870SOL    HW267448   6.166   5.160   2.713 -0.2665 -0.2756  0.5125
53871SOL     OW67449   4.864   9.125   1.273  0.1535 -0.4239  0.2464
53871SOL    HW167450   4.769   9.116   1.281  0.2744 -1.9513  0.1844
53871SOL    HW267451   4.881   9.117   1.179  0.2442  1.1948  0.0977
53872SOL     OW67452   7.393   6.494  12.076 -0.2940  0.6892  0.5872
53872SOL    HW167453   7.309   6.453  12.094  0.6693 -2.1188 -0.7216
53872SOL    HW267454   7.443   6.485  12.157 -0.3542 -0.1717  0.5414
53873SOL     OW67455   3.684   2.407   1.650  0.2179  0.2352  0.1547
53873SOL    HW167456   3.735   2.460   1.711 -2.0066  2.4016  0.2877
53873SOL    HW267457   3.600   2.394   1.694 -0.8954  0.5492 -1.7869
53874SOL     OW67458   1.107   8.934   2.719 -0.3352 -0.2588  0.0370
53874SOL    HW167459   1.079   8.907   2.632  0.4100 -1.6989  0.2112
53874SOL    HW267460   1.201   8.953   2.710 -0.1740 -0.7490  0.5819
53875SOL     OW67461  11.810   0.761   9.274  0.1934 -0.2271 -0.7209
53875SOL    HW167462  11.752   0.837   9.270  0.4322  0.2023  2.0821
53875SOL    HW267463  11.751   0.685   9.271 -0.4337  0.1804  0.6001
53876SOL     OW67464   1.976   4.595   8.628  0.3417  0.2838 -0.3062
53876SOL    HW167465   1.970   4.671   8.686 -0.3679  0.1370 -0.1820
53876SOL    HW267466   2.026   4.531   8.679 -0.2058  0.1852  0.1133
53877SOL     OW67467   0.148   7.689   7.205 -0.1599 -0.2945  0.0925
53877SOL    HW167468   0.133   7.748   7.132  1.3448  0.5528  0.4247
53877SOL    HW267469   0.191   7.612   7.166  1.2311  0.4253  0.1161
53878SOL     OW67470  12.033  10.909  11.448 -0.1420 -0.5490 -0.1834
53878SOL    HW167471  12.002  10.822  11.422  1.7093 -0.3976 -3.4543
53878SOL    HW267472  11.965  10.969  11.416 -0.1143 -0.6534 -0.4436
53879SOL     OW67473   1.305   6.659   2.475 -0.5700 -0.0987 -0.6399
53879SOL    HW167474   1.401   6.651   2.479 -0.6839 -1.9740 -0.6523
53879SOL    HW267475   1.280   6.609   2.397 -1.5733  0.2979 -0.5834
53880SOL     OW67476   0.296   3.262   5.235  0.3218 -0.2462  0.0575
53880SOL    HW167477   0.206   3.228   5.239 -0.3022  1.3819  0.6657
53880SOL    HW267478   0.307   3.290   5.144  1.5602 -3.7424 -1.0235
53881SOL     OW67479  11.181   9.935   9.990  0.5796  0.4561  0.5739
53881SOL    HW167480  11.238   9.920  10.065  0.5476  2.0168  0.9437
53881SOL    HW267481  11.216  10.015   9.949 -1.1482  1.2914  0.6412
53882SOL     OW67482   1.005   4.730   4.710 -0.2020 -0.0619  0.1166
53882SOL    HW167483   1.090   4.744   4.753  1.0863 -0.4949 -2.1083
53882SOL    HW267484   0.995   4.807   4.653 -1.6038  0.2560  0.7607
53883SOL     OW67485   6.406   8.075   4.071  0.1197  0.2045  0.2343
53883SOL    HW167486   6.316   8.052   4.051  0.5269  0.2884 -1.8981
53883SOL    HW267487   6.402   8.111   4.160 -1.7045 -1.0182  0.7082
53884SOL     OW67488   6.415   7.986   8.216 -0.4088 -0.0795 -0.1157
53884SOL    HW167489   6.470   8.058   8.246 -1.3774  0.3586  0.6558
53884SOL    HW267490   6.346   7.979   8.282 -0.3244 -1.7345 -0.1597
53885SOL     OW67491   3.406   0.648  11.427  0.1281  0.0717  0.4188
53885SOL    HW167492   3.415   0.591  11.351 -0.2808 -1.7442  1.6461
53885SOL    HW267493   3.489   0.696  11.431  0.3002 -0.0883 -0.9326
53886SOL     OW67494   0.553  10.899  10.040  0.1975  0.4629  0.3435
53886SOL    HW167495   0.612  10.892  10.115 -0.4430 -0.9852  0.7627
53886SOL    HW267496   0.606  10.874   9.965  0.4624  0.4791  0.5250
53887SOL     OW67497  11.759  11.227   1.844 -0.6129 -0.5411  0.1455
53887SOL    HW167498  11.828  11.207   1.780  0.0114 -0.1241  0.6754
53887SOL    HW267499  11.680  11.187   1.808 -0.6233  0.9651 -1.6540
53888SOL     OW67500   4.829   4.954   6.731 -0.2195 -0.7197  0.1828
53888SOL    HW167501   4.908   4.903   6.751  1.6005  1.4987 -0.9162
53888SOL    HW267502   4.806   4.997   6.813  1.6971  1.1018 -0.1572
53889SOL     OW67503  10.011   8.551   1.808 -0.1168  0.2316  0.1797
53889SOL    HW167504  10.086   8.498   1.779  0.0302  0.6096 -0.1372
53889SOL    HW267505   9.935   8.497   1.787 -0.1548  1.2698 -2.8025
53890SOL     OW67506   1.377   8.922   9.654 -0.5751  0.2690 -0.5798
53890SOL    HW167507   1.408   8.976   9.581  1.5753 -0.0202  0.0512
53890SOL    HW267508   1.452   8.866   9.676 -1.6272 -0.6081  0.9722
53891SOL     OW67509  11.894   5.419   3.725  0.0063  0.2158  0.1272
53891SOL    HW167510  11.929   5.365   3.796  0.3047  0.5310  0.2263
53891SOL    HW267511  11.965   5.481   3.706  0.4708 -0.7183 -1.3596
53892SOL     OW67512   7.883  10.576   0.549 -0.1228  0.3329 -0.4216
53892SOL    HW167513   7.875  10.482   0.530 -1.6053 -0.0051  1.6088
53892SOL    HW267514   7.956  10.581   0.612  0.1709  0.6016 -0.7780
53893SOL     OW67515   4.381   5.074  11.349  0.1557  0.1430  0.1043
53893SOL    HW167516   4.457   5.065  11.292 -1.2908  1.8006 -2.2617
53893SOL    HW267517   4.311   5.027  11.303 -0.6807  0.1893  1.2959
53894SOL     OW67518   8.316   2.945   5.091  0.3551  0.3311 -0.1299
53894SOL    HW167519   8.335   2.874   5.152 -0.4083  1.7195  1.8322
53894SOL    HW267520   8.397   2.955   5.040  0.6729 -1.5064 -0.0657
53895SOL     OW67521   1.814   3.920   5.550  0.2848  0.1435 -0.4082
53895SOL    HW167522   1.829   3.989   5.486 -2.3269 -0.2638 -1.5817
53895SOL    HW267523   1.874   3.849   5.525  0.9773  0.8884 -0.9025
53896SOL     OW67524   1.468  11.697  10.856 -0.0954 -0.5211  0.2367
53896SOL    HW167525   1.426  11.778  10.826  0.1484 -0.3262  0.4208
53896SOL    HW267526   1.443  11.631  10.791  0.8814  0.0130 -0.7084
53897SOL     OW67527   7.992   5.982   6.380  0.3141 -0.0186 -0.3835
53897SOL    HW167528   8.087   5.982   6.386  0.2739  0.7230  0.4296
53897SOL    HW267529   7.964   5.911   6.438  0.3716 -0.2970 -0.6950
53898SOL     OW67530   8.043   3.335   3.679 -0.2441  0.0612  0.5843
53898SOL    HW167531   8.026   3.292   3.763  0.6936 -0.0199  0.7419
53898SOL    HW267532   8.076   3.266   3.622  1.0571  0.4956  0.7732
53899SOL     OW67533  10.562   8.779   7.006  0.6015  0.4970 -0.1517
53899SOL    HW167534  10.589   8.790   6.914  0.7391  1.2870 -0.0301
53899SOL    HW267535  10.645   8.781   7.055  0.6212 -1.0632 -0.0951
53900SOL     OW67536   8.862   8.428   0.605 -0.2182  0.2602  0.1832
53900SOL    HW167537   8.867   8.345   0.558  1.6902  0.3089  0.2121
53900SOL    HW267538   8.886   8.494   0.540  1.7127  0.3961  0.9545
53901SOL     OW67539   6.445   8.817   0.791  0.3125  0.1404 -0.1225
53901SOL    HW167540   6.430   8.727   0.763 -1.2716  0.0273  0.9920
53901SOL    HW267541   6.366   8.842   0.839  0.2347  2.5126 -1.3273
53902SOL     OW67542  12.328   6.647   3.124  0.4726 -0.2578  0.2601
53902SOL    HW167543  12.323   6.617   3.034 -0.1443  0.8663 -0.1074
53902SOL    HW267544  12.236   6.657   3.151  0.6468  0.9498  0.4537
53903SOL     OW67545   7.798   0.651   1.286 -0.0057 -0.1439 -0.0799
53903SOL    HW167546   7.738   0.614   1.222  0.3862 -0.7329 -0.1145
53903SOL    HW267547   7.878   0.598   1.279  0.0887 -0.1487  0.8004
53904SOL     OW67548   7.659   2.073   1.833 -0.9719 -0.1480 -0.1200
53904SOL    HW167549   7.612   2.134   1.776  0.0999 -0.0458 -0.9189
53904SOL    HW267550   7.747   2.068   1.796 -0.2512 -0.1397  1.4841
53905SOL     OW67551   3.619  11.520   3.713  0.0118  0.2881 -0.0070
53905SOL    HW167552   3.645  11.556   3.798 -0.5709 -0.5144  0.5219
53905SOL    HW267553   3.653  11.583   3.649 -0.2002  1.3060  0.8536
53906SOL     OW67554   1.778  10.025   4.912  0.5586  0.3216 -0.0816
53906SOL    HW167555   1.780  10.082   4.989 -2.4286 -1.0909  1.2129
53906SOL    HW267556   1.720  10.069   4.850  1.5596  0.6236 -0.8239
53907SOL     OW67557   2.180   0.808   6.702 -0.2454  0.3612  0.1189
53907SOL    HW167558   2.212   0.720   6.683 -0.7930  0.2887 -0.4777
53907SOL    HW267559   2.087   0.797   6.721 -0.0456  0.6464  1.3180
53908SOL     OW67560  10.071   6.854   5.450 -0.0218 -0.0947  0.2293
53908SOL    HW167561  10.111   6.818   5.529  0.0454  0.9719  0.6914
53908SOL    HW267562  10.029   6.779   5.408  0.5027 -0.7903  0.9330
53909SOL     OW67563   2.694   8.557  11.220  0.6035 -0.6274  0.4038
53909SOL    HW167564   2.763   8.623  11.224 -1.2090  1.4786 -0.5086
53909SOL    HW267565   2.631   8.592  11.157 -0.9836 -2.7724  0.6600
53910SOL     OW67566   7.658   9.231   8.144  0.3352  0.2539 -0.6775
53910SOL    HW167567   7.564   9.240   8.125  0.3288  2.6728  0.1291
53910SOL    HW267568   7.661   9.171   8.219 -0.6143  0.4567 -0.4570
53911SOL     OW67569   0.425   3.434   4.676  0.1805 -0.0260 -0.4717
53911SOL    HW167570   0.495   3.461   4.734 -0.2984  0.7609 -0.2443
53911SOL    HW267571   0.466   3.427   4.589  0.5643  0.2650 -0.3139
53912SOL     OW67572  11.343  11.795   7.912 -0.2809 -0.2861 -0.1545
53912SOL    HW167573  11.349  11.753   7.826  0.2936  1.7561 -1.1600
53912SOL    HW267574  11.253  11.825   7.919 -0.1915  0.0062 -0.2624
53913SOL     OW67575   5.207   5.671   0.952 -0.1747 -0.3541 -0.1915
53913SOL    HW167576   5.297   5.677   0.986 -1.0354 -1.9271  2.6826
53913SOL    HW267577   5.177   5.762   0.946  0.6985  0.0725  1.5096
53914SOL     OW67578  10.973   3.569   7.887 -0.3751 -0.1803  0.4408
53914SOL    HW167579  11.028   3.647   7.894 -0.4232 -0.0199 -0.7957
53914SOL    HW267580  11.008   3.521   7.813  2.1623 -3.4284  3.4533
53915SOL     OW67581  12.236   2.158   9.384  0.2099 -1.0267  0.2301
53915SOL    HW167582  12.187   2.076   9.379 -0.5360 -0.5631 -0.3454
53915SOL    HW267583  12.205   2.199   9.465  0.4835 -1.2507  0.4483
53916SOL     OW67584   9.274   0.485   6.327  0.1204 -0.4444  0.0095
53916SOL    HW167585   9.347   0.544   6.308 -1.5679  1.6476 -0.4821
53916SOL    HW267586   9.225   0.481   6.245 -0.1534 -2.0718  0.2304
53917SOL     OW67587   1.168   4.577   5.281 -0.2534  0.2390  0.2876
53917SOL    HW167588   1.259   4.561   5.303 -0.1337  0.5394  0.0168
53917SOL    HW267589   1.171   4.646   5.215 -0.7066  0.6665  0.7072
53918SOL     OW67590   8.350   7.369   7.306  0.4423  0.8584 -0.2847
53918SOL    HW167591   8.271   7.394   7.354  1.2237  2.3006  0.3073
53918SOL    HW267592   8.340   7.275   7.291 -1.8499  1.1842 -1.1284
53919SOL     OW67593   5.662   1.322   1.697  0.1337  0.1540 -0.6791
53919SOL    HW167594   5.572   1.302   1.724 -0.5607  2.1929 -1.2807
53919SOL    HW267595   5.693   1.242   1.656 -0.5827 -1.3611  1.5127
53920SOL     OW67596   6.668   0.563   5.235 -0.0017  0.1817  0.0346
53920SOL    HW167597   6.689   0.524   5.320 -0.9449  0.3187  0.3346
53920SOL    HW267598   6.728   0.637   5.228 -0.2529  0.4649  0.8052
53921SOL     OW67599  11.900   7.903   3.932 -0.0623 -0.1184  0.0313
53921SOL    HW167600  11.829   7.967   3.936 -0.5824 -0.7085  0.2354
53921SOL    HW267601  11.917   7.880   4.023  0.7393  0.3943  0.0220
53922SOL     OW67602   7.497   1.024   6.671  0.3390  0.1665 -0.1015
53922SOL    HW167603   7.502   1.001   6.763  2.3462  0.7694 -0.0173
53922SOL    HW267604   7.457   0.948   6.629 -2.4524  0.6475  1.4637
53923SOL     OW67605   8.013  10.564   0.791 -0.2156 -0.2949 -0.4615
53923SOL    HW167606   8.068  10.488   0.771  0.2255 -0.3686  0.9265
53923SOL    HW267607   7.948  10.531   0.853  0.2535  0.5369  0.5035
53924SOL     OW67608   0.116   3.228   0.694 -0.6622  0.0477 -0.2077
53924SOL    HW167609   0.092   3.137   0.712 -0.6307  0.1058  0.1330
53924SOL    HW267610   0.032   3.272   0.677 -0.7081  0.0372 -0.0018
53925SOL     OW67611   7.907   1.489   6.712  0.1963  0.1045 -0.2257
53925SOL    HW167612   7.964   1.565   6.695  0.9041 -0.3174  0.1953
53925SOL    HW267613   7.916   1.474   6.806  2.6898 -2.5011 -0.7430
53926SOL     OW67614   9.193  12.153   4.886  0.5219  0.4658  0.1362
53926SOL    HW167615   9.199  12.057   4.889  1.3091  0.4539 -1.0758
53926SOL    HW267616   9.192  12.179   4.978 -2.7746 -0.8435  0.5925
53927SOL     OW67617   9.680   8.744   5.296  0.8370  0.7712 -0.0551
53927SOL    HW167618   9.636   8.776   5.218  1.1749 -0.7300 -0.8920
53927SOL    HW267619   9.657   8.808   5.364 -0.3618  1.5067 -1.1032
53928SOL     OW67620   6.002   2.607  11.684 -0.0350 -0.0701 -0.5648
53928SOL    HW167621   5.932   2.577  11.742  1.7692 -0.8784  1.2731
53928SOL    HW267622   5.988   2.702  11.678 -2.0046 -0.3486 -1.2979
53929SOL     OW67623   6.620   1.671   6.270  0.1079  0.4413 -0.2304
53929SOL    HW167624   6.622   1.640   6.179  2.0214  1.3721 -0.5481
53929SOL    HW267625   6.635   1.766   6.263 -0.3026  0.6125  1.0322
53930SOL     OW67626   4.989  11.609   6.388  0.1475 -0.0946 -0.5622
53930SOL    HW167627   4.916  11.666   6.413  0.1428  0.6925 -2.2189
53930SOL    HW267628   4.994  11.544   6.458 -0.6617  1.1934  0.7483
53931SOL     OW67629   1.097   1.709   2.032 -0.7590 -0.7432  0.1497
53931SOL    HW167630   1.053   1.691   1.949  0.7777 -2.2681 -0.3817
53931SOL    HW267631   1.065   1.796   2.058 -0.8172  0.0470 -2.3483
53932SOL     OW67632  12.162   4.158   8.890 -0.4691  0.5351  0.2230
53932SOL    HW167633  12.141   4.204   8.809  0.1498  0.8163  0.2228
53932SOL    HW267634  12.164   4.066   8.865 -0.0468  0.6404 -0.1305
53933SOL     OW67635  10.188   3.110   7.102 -0.7784  0.8378 -0.0499
53933SOL    HW167636  10.206   3.017   7.116  1.6619  1.2840  0.1540
53933SOL    HW267637  10.135   3.136   7.178 -2.2938 -0.5389 -0.5781
53934SOL     OW67638   1.923   5.366   9.542  0.2353 -0.0837  0.1655
53934SOL    HW167639   1.862   5.319   9.599 -0.3133 -1.9226 -1.7944
53934SOL    HW267640   2.007   5.322   9.555  0.2212 -0.1738 -0.0316
53935SOL     OW67641   6.856  10.784   0.679  0.1301  0.1034 -0.5752
53935SOL    HW167642   6.851  10.691   0.700  0.3504  0.3492  0.6783
53935SOL    HW267643   6.941  10.812   0.713 -0.5275  1.0495  0.3652
53936SOL     OW67644   5.960   5.925   4.024 -0.2725  0.2313 -0.2251
53936SOL    HW167645   5.966   5.830   4.033 -0.3644  0.2191 -0.2918
53936SOL    HW267646   5.897   5.939   3.953  0.6788  0.3159 -1.0827
53937SOL     OW67647   3.015  10.210   7.610 -0.0384 -0.3710 -0.6037
53937SOL    HW167648   2.938  10.265   7.598 -0.5266 -0.9452 -0.1260
53937SOL    HW267649   3.062  10.216   7.527 -1.0739 -0.7404 -1.2389
53938SOL     OW67650   4.911   8.837   5.090  0.6323  0.0243  0.4641
53938SOL    HW167651   4.959   8.771   5.039  0.4193  0.4319 -0.2831
53938SOL    HW267652   4.854   8.785   5.147 -0.0984 -0.4662 -0.6541
53939SOL     OW67653   2.613   8.732   7.721 -0.0388  0.0208  0.1625
53939SOL    HW167654   2.671   8.674   7.770  0.3812 -0.0669 -0.4220
53939SOL    HW267655   2.579   8.677   7.651  0.5969  0.5413 -0.5766
53940SOL     OW67656   5.743   4.434  10.436 -0.3540 -0.1741 -0.4852
53940SOL    HW167657   5.780   4.509  10.388 -2.9540 -0.0656 -2.5471
53940SOL    HW267658   5.733   4.466  10.525  0.7112  1.1133 -0.7865
53941SOL     OW67659   4.805   8.838   7.864  0.1662  0.2785 -0.8913
53941SOL    HW167660   4.851   8.904   7.812 -1.5030  0.4806 -2.2060
53941SOL    HW267661   4.713   8.848   7.840 -0.4589 -0.8003  0.8511
53942SOL     OW67662   9.932  12.322   3.923  0.3114  0.4031 -0.1067
53942SOL    HW167663   9.951  12.230   3.940 -2.1492 -0.4834 -1.6310
53942SOL    HW267664   9.950  12.366   4.007  1.4984 -1.4479  0.6610
53943SOL     OW67665   9.010  10.150  11.303 -0.5315  0.0842 -0.0637
53943SOL    HW167666   8.946  10.118  11.365  0.4568 -2.0836 -0.0822
53943SOL    HW267667   9.026  10.077  11.244  1.4011  0.7813 -0.4960
53944SOL     OW67668   9.632   4.519   8.758 -0.3840 -0.0286 -0.2205
53944SOL    HW167669   9.581   4.463   8.700 -0.6563  0.9421 -0.9564
53944SOL    HW267670   9.579   4.525   8.837  0.7784 -2.7373  0.8757
53945SOL     OW67671   8.736   8.836   0.434  1.1185 -0.0824 -0.0375
53945SOL    HW167672   8.757   8.926   0.461 -0.3674 -0.0368  1.0844
53945SOL    HW267673   8.691   8.799   0.509 -1.8206 -0.4842 -1.8419
53946SOL     OW67674   5.730   8.309  10.945 -0.4162  0.6222  0.4623
53946SOL    HW167675   5.652   8.365  10.943 -1.4703 -0.7013 -2.7947
53946SOL    HW267676   5.696   8.220  10.938  1.3423 -0.1196  0.8085
53947SOL     OW67677  12.239   1.830  11.779  0.5747  0.2862 -0.0257
53947SOL    HW167678  12.272   1.852  11.865 -1.6588  2.1994  0.4469
53947SOL    HW267679  12.211   1.914  11.741  0.0085 -0.6925 -1.9392
53948SOL     OW67680   1.384   2.134   3.875  0.4758 -0.6251  0.2152
53948SOL    HW167681   1.385   2.226   3.848 -0.5973 -0.8333 -0.5872
53948SOL    HW267682   1.466   2.098   3.840  0.3181 -0.2684 -0.5305
53949SOL     OW67683  11.697   3.502   4.530 -0.1616  0.2168 -0.3444
53949SOL    HW167684  11.725   3.419   4.493 -1.0142  0.0285 -0.6003
53949SOL    HW267685  11.746   3.568   4.481 -0.4455 -0.0842 -1.0529
53950SOL     OW67686   9.795  12.165  10.973 -0.0094  0.3632  0.0724
53950SOL    HW167687   9.749  12.119  11.043 -0.9183  0.4530 -0.4462
53950SOL    HW267688   9.885  12.133  10.977 -0.4799 -0.9916  0.1207
53951SOL     OW67689   5.556   8.036   1.322 -0.1233  0.1248  0.1756
53951SOL    HW167690   5.490   8.051   1.390 -0.5451 -0.0925 -0.1835
53951SOL    HW267691   5.506   8.021   1.242  0.3718  0.3390 -0.1816
53952SOL     OW67692   2.575   2.436   9.834 -0.6787  0.1310  0.3483
53952SOL    HW167693   2.640   2.366   9.831 -0.6923  0.1444 -1.1077
53952SOL    HW267694   2.492   2.392   9.814 -0.8849  0.3615  0.6876
53953SOL     OW67695   9.044   2.518  12.116 -0.2842  0.5301  0.2042
53953SOL    HW167696   9.070   2.570  12.040 -2.6645  0.3236 -0.8406
53953SOL    HW267697   9.036   2.429  12.082  2.2817 -0.3552  1.6306
53954SOL     OW67698  12.330   7.933   2.027 -0.7342  0.1657  0.3010
53954SOL    HW167699  12.424   7.912   2.025 -0.2770  2.0551 -0.7110
53954SOL    HW267700  12.289   7.854   2.060  1.1617 -0.9637  0.1386
53955SOL     OW67701   7.599   6.966   7.220 -0.0372 -0.1759 -0.6241
53955SOL    HW167702   7.684   6.978   7.178  0.2373  2.5299  0.5260
53955SOL    HW267703   7.620   6.949   7.312 -0.7437 -0.6990 -0.5483
53956SOL     OW67704   1.592   7.033  11.546 -0.3274  0.1830 -0.0799
53956SOL    HW167705   1.628   6.949  11.576 -2.2804 -1.1323 -1.2064
53956SOL    HW267706   1.639   7.098  11.598  0.6849 -1.6275  1.4405
53957SOL     OW67707   2.896   3.516   0.827 -0.2838  0.9918 -0.3350
53957SOL    HW167708   2.867   3.572   0.900 -0.3009  1.1598 -0.4703
53957SOL    HW267709   2.977   3.476   0.860 -1.6796 -1.0486  0.8202
53958SOL     OW67710   6.108   1.516  11.991  0.3909 -0.9495  0.1932
53958SOL    HW167711   6.106   1.491  11.899 -0.2032 -0.0203 -0.0600
53958SOL    HW267712   6.038   1.466  12.031  0.6038 -1.3007  0.1305
53959SOL     OW67713   6.768   0.728   7.678  0.0524 -0.1378 -0.0450
53959SOL    HW167714   6.699   0.747   7.614 -0.5020  0.2054  0.6461
53959SOL    HW267715   6.847   0.718   7.625 -0.4687 -0.2515 -0.8207
53960SOL     OW67716   1.747  12.130   6.641 -0.2783  0.1923 -0.0324
53960SOL    HW167717   1.686  12.101   6.573  0.3146 -1.1825 -0.0229
53960SOL    HW267718   1.735  12.066   6.712  0.8848  0.1171  0.1160
53961SOL     OW67719   3.199   5.815   8.861 -0.2642 -0.2225 -0.9316
53961SOL    HW167720   3.167   5.902   8.887 -1.9597 -1.3714  1.2097
53961SOL    HW267721   3.138   5.754   8.903  3.0688 -2.5912  0.9661
53962SOL     OW67722  11.485   5.422   5.151 -0.6110  0.0192  0.2678
53962SOL    HW167723  11.427   5.347   5.134 -0.1993  0.0235 -1.2197
53962SOL    HW267724  11.551   5.418   5.083 -1.3162  2.4869 -0.6730
53963SOL     OW67725   5.584   0.105   7.875 -0.0766 -0.1056  0.5125
53963SOL    HW167726   5.570   0.068   7.788  0.6796  1.4266 -0.2910
53963SOL    HW267727   5.648   0.046   7.915 -0.9052 -1.1860  0.3078
53964SOL     OW67728   1.519   7.646  11.525  0.6396  0.2528  0.3270
53964SOL    HW167729   1.569   7.620  11.447 -0.8438 -0.6193 -0.3857
53964SOL    HW267730   1.481   7.564  11.557  0.9038  0.6626  1.7611
53965SOL     OW67731   2.305  10.202   8.660  0.4499  0.1340 -0.3911
53965SOL    HW167732   2.259  10.160   8.587 -0.3921  1.6433 -0.7815
53965SOL    HW267733   2.386  10.235   8.620  0.2207  0.5290 -0.5335
53966SOL     OW67734   5.443   5.456  11.779 -0.5558  0.5352 -0.0953
53966SOL    HW167735   5.536   5.445  11.801 -0.9791  0.8672  2.1835
53966SOL    HW267736   5.421   5.543  11.814 -1.7034  0.4801 -0.6613
53967SOL     OW67737  10.475   2.116   6.339 -0.0262 -0.1586  0.5037
53967SOL    HW167738  10.506   2.199   6.375 -0.4712 -0.4425  1.6095
53967SOL    HW267739  10.385   2.108   6.372 -0.3268 -0.6293 -0.3867
53968SOL     OW67740   5.860   7.269  11.071  0.0522  0.3200  0.1014
53968SOL    HW167741   5.920   7.236  11.005  3.5418  1.9217  2.1961
53968SOL    HW267742   5.867   7.365  11.063 -1.3786  0.5442  1.1707
53969SOL     OW67743   0.217   4.320   8.343  0.0031 -0.3898 -0.2135
53969SOL    HW167744   0.200   4.396   8.399 -0.2133  0.0617 -0.8853
53969SOL    HW267745   0.143   4.317   8.283  0.0857 -1.0497 -0.2848
53970SOL     OW67746   2.494  10.172   1.681 -0.2357 -0.5237 -0.6870
53970SOL    HW167747   2.564  10.139   1.737  0.7332 -0.0740 -1.5918
53970SOL    HW267748   2.521  10.148   1.592  0.0776  1.8545 -1.3009
53971SOL     OW67749   5.765   9.038   7.967  0.2440  0.6501  0.0584
53971SOL    HW167750   5.803   9.119   8.001  0.9287 -0.1534  1.2738
53971SOL    HW267751   5.674   9.039   7.997  0.5887  0.3949  1.1381
53972SOL     OW67752   1.277   6.276  10.355 -0.1092  0.3089 -0.1482
53972SOL    HW167753   1.280   6.186  10.389  0.0089  0.3110 -0.1532
53972SOL    HW267754   1.334   6.325  10.414  1.3789  0.0068 -1.2771
53973SOL     OW67755  10.597  12.017   8.503 -0.7286  0.3931  0.3431
53973SOL    HW167756  10.551  11.946   8.458 -2.9381  1.1494  1.2747
53973SOL    HW267757  10.558  12.019   8.590  1.1516  1.0881  1.2344
53974SOL     OW67758  12.045  11.439   1.788  0.2742  0.1024 -0.3716
53974SOL    HW167759  12.069  11.387   1.866 -0.2570  0.3428 -0.0434
53974SOL    HW267760  12.023  11.373   1.722  0.6764 -0.1042 -0.3086
53975SOL     OW67761   1.219   7.867   6.801  0.0961  0.4429 -0.5288
53975SOL    HW167762   1.232   7.932   6.869 -3.6903 -1.0268  1.9291
53975SOL    HW267763   1.276   7.794   6.827  1.6876  1.3360 -1.3304
53976SOL     OW67764   2.529   3.209  11.273  0.7116  0.8229  0.2705
53976SOL    HW167765   2.573   3.174  11.350  1.4838  0.0751 -0.4956
53976SOL    HW267766   2.573   3.292  11.255  0.9508  0.6937  0.2641
53977SOL     OW67767   1.288   6.345   2.948 -0.9025  0.9057  0.2757
53977SOL    HW167768   1.210   6.289   2.952 -0.4494  0.0265 -1.9211
53977SOL    HW267769   1.360   6.285   2.932 -0.1442  1.9613 -0.3901
53978SOL     OW67770   7.890   8.621   4.623 -0.2130 -0.3271 -0.3281
53978SOL    HW167771   7.978   8.655   4.639  0.1758 -0.4007 -2.0381
53978SOL    HW267772   7.899   8.569   4.543 -1.8153 -0.3332 -0.5393
53979SOL     OW67773   1.363   6.731   2.865 -0.3548 -0.2615 -0.1333
53979SOL    HW167774   1.335   6.823   2.859  0.1415 -0.1151 -0.2135
53979SOL    HW267775   1.377   6.717   2.959 -0.8629 -0.3871 -0.0735
53980SOL     OW67776   3.647   5.246  10.422 -0.3837  0.0241 -0.1439
53980SOL    HW167777   3.696   5.216  10.499  2.0557 -0.0921 -1.6377
53980SOL    HW267778   3.586   5.311  10.457  1.6912  1.1118  1.7569
53981SOL     OW67779  10.798   1.720   7.426 -0.2643  0.3189 -0.6232
53981SOL    HW167780  10.761   1.775   7.494  0.6462 -0.8854  0.9152
53981SOL    HW267781  10.724   1.696   7.371 -0.8467  2.1495 -0.6998
53982SOL     OW67782  11.775   6.555   9.395  0.3459  0.1491  0.3326
53982SOL    HW167783  11.801   6.541   9.304  1.7834 -0.2563  0.7769
53982SOL    HW267784  11.828   6.493   9.445  0.2390  0.9817  1.5194
53983SOL     OW67785  11.452   9.199  10.761  0.0545  0.2775  0.5671
53983SOL    HW167786  11.402   9.121  10.738  0.3461  0.1082  0.5124
53983SOL    HW267787  11.389   9.255  10.807 -0.6218  0.7413 -0.8553
53984SOL     OW67788   3.829   1.711  10.995  0.0933 -0.2927  0.1451
53984SOL    HW167789   3.921   1.720  11.021 -0.2421  0.8772  0.9810
53984SOL    HW267790   3.779   1.735  11.073 -0.9385 -1.1816 -0.2172
53985SOL     OW67791   9.321   5.394   0.165 -0.2490  0.2746  0.0227
53985SOL    HW167792   9.228   5.375   0.178  0.1025 -1.5050  0.1832
53985SOL    HW267793   9.366   5.328   0.217  1.1205  1.6129  0.5856
53986SOL     OW67794   6.147  10.596  11.995  0.3839 -0.9067  0.2870
53986SOL    HW167795   6.239  10.583  11.975 -0.0973 -2.6004 -1.0759
53986SOL    HW267796   6.110  10.635  11.916 -0.6738 -3.4538 -0.5869
53987SOL     OW67797  10.267   9.949   3.484  0.2829  0.3144  0.0324
53987SOL    HW167798  10.262   9.900   3.402  0.1435  0.4696 -0.0538
53987SOL    HW267799  10.212   9.900   3.545  1.0113 -0.2299  0.2574
53988SOL     OW67800   0.551   9.178   8.001 -0.2896  0.2095  0.3727
53988SOL    HW167801   0.567   9.109   7.936 -0.3563  0.0742  0.4985
53988SOL    HW267802   0.480   9.230   7.963 -0.1568  0.2826  0.2208
53989SOL     OW67803   2.476   0.412  11.340 -0.4046  0.1107 -0.0164
53989SOL    HW167804   2.507   0.339  11.285 -1.0410  0.7147 -1.2192
53989SOL    HW267805   2.514   0.395  11.426  2.2444  0.1339 -1.0933
53990SOL     OW67806   1.692   9.875   1.964 -0.0890 -0.4181 -0.4692
53990SOL    HW167807   1.664   9.846   2.051 -1.0008  1.8231  0.0340
53990SOL    HW267808   1.621   9.850   1.906  0.2558 -1.3857 -0.4906
53991SOL     OW67809   3.664   0.146   4.012  0.3267  0.1806 -0.2417
53991SOL    HW167810   3.689   0.174   3.924 -1.2177  3.0067  0.1233
53991SOL    HW267811   3.569   0.146   4.012  0.2526 -2.0611  0.8379
53992SOL     OW67812   3.581   7.279   6.257 -0.8833 -0.3725  0.3133
53992SOL    HW167813   3.599   7.185   6.268 -0.9936 -0.3252  0.9916
53992SOL    HW267814   3.518   7.283   6.185  2.2213 -0.4775 -2.6713
53993SOL     OW67815   4.324   8.066   0.111  0.4011 -0.6020  0.0697
53993SOL    HW167816   4.409   8.069   0.155 -0.0670 -2.2673  1.1931
53993SOL    HW267817   4.328   8.137   0.047  1.9837  0.4373  1.2350
53994SOL     OW67818   4.194   6.238   7.363  0.3982 -0.2980 -0.3322
53994SOL    HW167819   4.242   6.310   7.404  1.3469 -1.5095  0.7774
53994SOL    HW267820   4.104   6.270   7.356  0.7757  0.9551  0.1883
53995SOL     OW67821   2.540   1.327   1.622 -0.3677  0.0553 -0.1211
53995SOL    HW167822   2.572   1.294   1.706  1.0884  0.9599 -0.3011
53995SOL    HW267823   2.589   1.407   1.606 -0.4295 -0.2205 -1.9677
53996SOL     OW67824   8.494   7.247   4.085  0.6947  0.1834  0.3815
53996SOL    HW167825   8.444   7.204   4.154  1.4092  0.1886  0.8990
53996SOL    HW267826   8.585   7.233   4.107  0.9433 -0.1790 -0.7882
53997SOL     OW67827  10.256   7.391   5.152  0.3922  0.0404 -0.0552
53997SOL    HW167828  10.294   7.378   5.065 -3.1229 -2.0948 -1.4441
53997SOL    HW267829  10.191   7.460   5.139 -1.0574 -1.1865  0.5345
53998SOL     OW67830   4.754  11.574   8.623  0.0623 -0.1346  0.1733
53998SOL    HW167831   4.688  11.643   8.613 -0.4213 -0.4288  1.2070
53998SOL    HW267832   4.730  11.508   8.558 -0.2707  0.0577  0.0957
53999SOL     OW67833   5.271  11.660  11.304  0.0044 -0.8701 -0.3951
53999SOL    HW167834   5.245  11.673  11.395 -0.3913 -1.6718 -0.3895
53999SOL    HW267835   5.292  11.567  11.298  1.5097 -0.5194 -0.7571
54000SOL     OW67836   5.929   4.686   5.203  0.0682 -0.4799  0.4688
54000SOL    HW167837   5.935   4.731   5.119  0.0508  0.5927  1.0318
54000SOL    HW267838   5.836   4.670   5.216  0.1660 -1.8548 -0.3216
54001SOL     OW67839   1.480  12.323   4.714  0.1055  0.2502  0.3598
54001SOL    HW167840   1.558  12.274   4.740 -0.0437 -1.2992 -1.8547
54001SOL    HW267841   1.512  12.412   4.700  1.1272  0.0212  1.1239
54002SOL     OW67842   0.699   8.958   9.464  0.4694 -0.1679  0.0760
54002SOL    HW167843   0.763   8.893   9.491  1.5395  0.7364 -0.2280
54002SOL    HW267844   0.683   9.011   9.542  1.5748  0.8050 -0.3310
54003SOL     OW67845   3.548   2.254   1.052 -0.1377  0.2498  0.3808
54003SOL    HW167846   3.585   2.302   1.126  1.6841 -2.5397  1.4453
54003SOL    HW267847   3.492   2.188   1.092 -0.9119  0.1105 -0.8826
54004SOL     OW67848  11.410  10.500   8.623 -0.4666 -0.2412  0.2757
54004SOL    HW167849  11.364  10.448   8.688  1.3678  0.0890  1.9177
54004SOL    HW267850  11.453  10.436   8.566  0.1843 -0.5418  1.0969
54005SOL     OW67851  11.189   3.150  11.354 -0.0913 -0.7589 -0.0042
54005SOL    HW167852  11.227   3.238  11.356  0.2419 -0.9140  1.0219
54005SOL    HW267853  11.212   3.116  11.268 -0.9535  0.4690 -0.7656
54006SOL     OW67854   5.747   9.161   8.556 -0.6004  0.3081 -0.7127
54006SOL    HW167855   5.772   9.175   8.464 -2.5661 -1.3903 -1.5874
54006SOL    HW267856   5.773   9.242   8.600  2.1773  0.4224 -2.3177
54007SOL     OW67857   9.849   6.551   0.314  0.3180 -0.2009 -0.3606
54007SOL    HW167858   9.898   6.476   0.347 -0.1501  0.2342  1.4339
54007SOL    HW267859   9.771   6.513   0.274 -0.6552 -0.6741  1.8370
54008SOL     OW67860   1.963   8.467   3.893 -0.4097 -0.6063 -0.3792
54008SOL    HW167861   1.915   8.478   3.811 -0.9675 -0.1115  0.0155
54008SOL    HW267862   1.997   8.554   3.914  1.6698 -1.1319 -1.2479
54009SOL     OW67863   5.955   6.956   8.913  0.3664  0.2303 -0.1838
54009SOL    HW167864   6.014   6.892   8.873  1.6683  0.3608  1.4643
54009SOL    HW267865   5.935   7.017   8.842  3.2021  0.8822 -0.5163
54010SOL     OW67866   6.412   3.609   6.751 -0.3301  0.1277 -0.0337
54010SOL    HW167867   6.458   3.526   6.738 -0.1959  0.0319  0.9109
54010SOL    HW267868   6.319   3.588   6.739 -0.1923  0.1778 -1.2894
54011SOL     OW67869   6.649   6.228  11.624 -0.2776  0.5895 -0.3078
54011SOL    HW167870   6.728   6.258  11.579 -0.6051  0.9767 -0.6163
54011SOL    HW267871   6.651   6.132  11.614 -0.8085  0.7257 -1.8999
54012SOL     OW67872   1.732   3.054   4.097 -0.5341  0.0293 -0.1288
54012SOL    HW167873   1.639   3.054   4.073 -0.8096  1.8040  0.8424
54012SOL    HW267874   1.770   3.126   4.047  0.2978 -0.5178 -0.3154
54013SOL     OW67875   5.269  11.966   9.235  0.0521 -0.0572 -0.4038
54013SOL    HW167876   5.303  11.976   9.147  0.1690  0.5553 -0.2880
54013SOL    HW267877   5.219  12.045   9.252  0.5211  0.1025  0.2986
54014SOL     OW67878   2.199   1.056  11.192  0.4890  0.1525 -0.3403
54014SOL    HW167879   2.233   1.061  11.281 -1.3600 -1.0162  0.4850
54014SOL    HW267880   2.277   1.047  11.137  1.6267  0.0354  1.2193
54015SOL     OW67881  11.749   2.083  10.981  0.2102 -0.2098  0.0946
54015SOL    HW167882  11.805   2.018  10.940 -0.0082 -0.9509  0.9531
54015SOL    HW267883  11.660   2.054  10.962  0.0809  0.9554 -1.2547
54016SOL     OW67884   0.710   3.897   8.008  0.3993 -0.1159 -0.2565
54016SOL    HW167885   0.697   3.948   7.928  1.4119  1.7252  0.6881
54016SOL    HW267886   0.760   3.820   7.980  2.2334  1.3260 -1.1692
54017SOL     OW67887   5.805   6.232   9.242  0.6276 -0.0304  0.5656
54017SOL    HW167888   5.876   6.294   9.226  0.8823  0.0715  1.9943
54017SOL    HW267889   5.848   6.147   9.247  0.3682 -0.2554 -0.6490
54018SOL     OW67890   1.585  10.445  10.183 -0.3837  0.0522 -0.1598
54018SOL    HW167891   1.519  10.507  10.214 -0.3509 -0.6751  1.5281
54018SOL    HW267892   1.669  10.487  10.203 -0.3607  0.0746 -0.3088
54019SOL     OW67893   3.955   1.288   6.004  0.4838  0.2099  0.4422
54019SOL    HW167894   3.998   1.372   5.987  0.6922 -0.2907 -1.7127
54019SOL    HW267895   3.861   1.307   5.997  0.5372  0.2338 -0.2766
54020SOL     OW67896   5.009   5.592  10.584 -0.6621  0.0698  0.2648
54020SOL    HW167897   4.962   5.524  10.631 -0.2364 -1.5360 -1.5042
54020SOL    HW267898   5.087   5.609  10.637 -0.4038 -1.3854  0.3913
54021SOL     OW67899  12.319   1.793   5.258 -0.2734 -0.6765  0.0337
54021SOL    HW167900  12.411   1.810   5.281 -0.5384  1.6991 -0.4527
54021SOL    HW267901  12.288   1.734   5.327  0.6372  1.3768  2.3531
54022SOL     OW67902   6.426   9.973   6.823  0.0138 -0.0230  0.0412
54022SOL    HW167903   6.386   9.893   6.789 -0.3835  0.2025 -0.0285
54022SOL    HW267904   6.513   9.975   6.783 -0.0821 -0.2733 -0.1824
54023SOL     OW67905  11.799   0.795   6.893  0.2211  0.7257  0.3127
54023SOL    HW167906  11.883   0.752   6.908  0.4349  0.3996 -1.5223
54023SOL    HW267907  11.734   0.725   6.897  0.2044  0.7443  0.3714
54024SOL     OW67908   7.669   7.424   5.836 -0.0165 -0.3060  0.2748
54024SOL    HW167909   7.680   7.329   5.838 -1.3842 -0.4759  0.7774
54024SOL    HW267910   7.758   7.458   5.848  0.5465 -1.5059 -0.2799
54025SOL     OW67911   1.320   8.657   0.020 -0.0568 -0.0456 -0.6394
54025SOL    HW167912   1.304   8.751   0.023  1.0671  0.1405  0.2587
54025SOL    HW267913   1.412   8.649  -0.004 -0.4329 -0.9585 -1.8576
54026SOL     OW67914   3.779   9.555   9.440  0.0803  0.1864  0.2969
54026SOL    HW167915   3.842   9.495   9.398  0.8493  1.1959 -0.0453
54026SOL    HW267916   3.834   9.614   9.491 -0.6934  0.4287  0.8567
54027SOL     OW67917   6.060   0.679  10.067 -0.0376 -0.0242  0.1916
54027SOL    HW167918   6.063   0.599  10.119  1.4212 -1.2024 -1.5818
54027SOL    HW267919   5.992   0.732  10.109  0.3706 -1.2878  2.6612
54028SOL     OW67920   1.293   6.110   5.512  0.6059 -0.1212 -0.1817
54028SOL    HW167921   1.327   6.128   5.424  0.5726  0.1033 -0.1504
54028SOL    HW267922   1.314   6.189   5.562  1.3953 -0.5946  0.2406
54029SOL     OW67923   3.971   6.153   7.719  0.0605  0.1031  0.2173
54029SOL    HW167924   4.060   6.146   7.754  0.0592  1.0718  0.4451
54029SOL    HW267925   3.955   6.247   7.713 -0.7339 -0.0564 -0.3816
54030SOL     OW67926   9.289   6.423   1.058  0.0080 -0.1744 -0.9268
54030SOL    HW167927   9.334   6.475   0.992  0.6908  0.8978  0.3323
54030SOL    HW267928   9.360   6.386   1.111 -0.5332  0.8472  0.5685
54031SOL     OW67929   6.526   8.659   8.736 -0.3987 -0.1549 -0.4066
54031SOL    HW167930   6.506   8.596   8.666 -0.9874 -2.1310  1.4481
54031SOL    HW267931   6.445   8.668   8.785 -0.1031  1.5249 -0.1624
54032SOL     OW67932   3.422   8.427   1.949  0.0701  0.2928  0.0586
54032SOL    HW167933   3.337   8.437   1.907  0.3841  2.5274 -0.1592
54032SOL    HW267934   3.449   8.516   1.972  2.0986 -0.4027  0.6439
54033SOL     OW67935  11.103   9.560   6.217 -0.0184 -0.1592 -0.3307
54033SOL    HW167936  11.164   9.494   6.250  0.8206 -0.1737 -1.8069
54033SOL    HW267937  11.022   9.544   6.265  0.6989 -1.0945  0.6260
54034SOL     OW67938   5.449   0.908  10.616  0.4202 -0.7171 -0.0855
54034SOL    HW167939   5.412   0.953  10.693  2.5279  0.0048  0.5700
54034SOL    HW267940   5.438   0.971  10.545  0.9748 -0.2154  0.2585
54035SOL     OW67941   1.119   6.962   5.899  0.3064  0.0771  0.2151
54035SOL    HW167942   1.054   6.915   5.951  0.5029 -0.1672  0.2455
54035SOL    HW267943   1.123   6.913   5.816  1.1208 -0.4673  0.5648
54036SOL     OW67944   1.961   1.165   5.426 -0.2347  0.1065  0.4168
54036SOL    HW167945   2.004   1.114   5.494  0.0235  0.0759  0.2344
54036SOL    HW267946   1.973   1.256   5.453 -0.4929  0.0818  0.6223
54037SOL     OW67947  12.069   0.590   4.582  0.0706  0.0812 -0.3391
54037SOL    HW167948  12.098   0.520   4.523 -0.6389 -0.1865 -0.3758
54037SOL    HW267949  12.039   0.659   4.523 -0.0134  0.0824 -0.2941
54038SOL     OW67950   0.992  11.363   8.584 -0.0772 -0.5422  0.1548
54038SOL    HW167951   1.085  11.378   8.564  0.0526 -2.0740 -0.5275
54038SOL    HW267952   0.967  11.437   8.639  1.2668  0.4459 -0.5260
54039SOL     OW67953   0.638   7.334   9.118 -0.0661 -0.3046  0.5150
54039SOL    HW167954   0.559   7.388   9.120 -0.0755 -0.1869 -1.3987
54039SOL    HW267955   0.685   7.362   9.040  2.1906  0.0028  1.8924
54040SOL     OW67956   7.145   2.341   9.837  0.2610 -0.0870  0.1340
54040SOL    HW167957   7.058   2.300   9.837 -0.3811  1.2043  0.5070
54040SOL    HW267958   7.150   2.386   9.753 -0.2107  1.3754  0.8682
54041SOL     OW67959   0.551   4.352   0.768 -0.1072  0.2457  0.4174
54041SOL    HW167960   0.593   4.428   0.808  2.1289 -0.7702  0.1170
54041SOL    HW267961   0.514   4.303   0.842  3.4220 -1.2792  1.3770
54042SOL     OW67962   6.436  11.475   7.500  0.0540  0.5781  0.1450
54042SOL    HW167963   6.411  11.389   7.468 -0.1910  0.1170  1.5060
54042SOL    HW267964   6.527  11.464   7.530  0.2559  0.9764 -0.3157
54043SOL     OW67965   0.169   5.115   2.539 -0.7088 -0.0007  0.2706
54043SOL    HW167966   0.171   5.021   2.524 -0.2409  0.3921 -2.6955
54043SOL    HW267967   0.261   5.140   2.548 -0.6507  0.4434 -1.3263
54044SOL     OW67968   8.980   8.672   5.076  0.0456  0.0426  0.2296
54044SOL    HW167969   9.074   8.675   5.055 -0.0372 -2.4585 -0.8193
54044SOL    HW267970   8.973   8.605   5.143 -1.0227  0.1607  0.2446
54045SOL     OW67971   9.586  12.018   6.466  0.1705 -0.0324  0.0440
54045SOL    HW167972   9.679  12.013   6.487  0.9967 -0.1237 -3.1120
54045SOL    HW267973   9.579  12.089   6.403 -2.1543  0.7607  1.0594
54046SOL     OW67974   3.763  11.333   8.206 -0.3081 -0.6275  0.0979
54046SOL    HW167975   3.856  11.350   8.223 -0.1716 -1.1123 -0.1312
54046SOL    HW267976   3.716  11.398   8.258  0.1722 -0.0349 -0.1876
54047SOL     OW67977   6.115   1.166  10.785  0.4579  0.1721 -0.6885
54047SOL    HW167978   6.177   1.109  10.831 -1.4221 -0.1922  1.5540
54047SOL    HW267979   6.141   1.159  10.693  1.4659 -2.8300 -0.3030
54048SOL     OW67980   0.182   7.910   0.729  0.0893  0.2788  0.6792
54048SOL    HW167981   0.135   7.988   0.702 -0.8772 -0.3286  0.5575
54048SOL    HW267982   0.171   7.906   0.824  0.2552  0.3590  0.7027
54049SOL     OW67983   7.196   6.567  11.436 -0.0290 -0.6746 -0.5903
54049SOL    HW167984   7.111   6.582  11.395 -0.0718 -3.4190 -1.7426
54049SOL    HW267985   7.175   6.533  11.523 -0.2188 -2.0309 -1.1267
54050SOL     OW67986   4.209  11.778  11.619 -0.4880  0.4801  0.0501
54050SOL    HW167987   4.147  11.850  11.630 -0.2399  0.7382 -0.1994
54050SOL    HW267988   4.290  11.821  11.591  0.8701  0.5372  3.5850
54051SOL     OW67989   4.405   4.427   6.087 -0.6320 -0.4662  0.3362
54051SOL    HW167990   4.401   4.371   6.009  0.1956 -0.3828  0.2294
54051SOL    HW267991   4.482   4.482   6.073 -2.0490  1.5145 -0.1104
54052SOL     OW67992   6.297   7.142   8.037 -0.3573  0.1999 -0.9599
54052SOL    HW167993   6.225   7.121   7.977  0.5880 -1.5027 -1.5729
54052SOL    HW267994   6.373   7.098   7.999  0.3858 -0.5605  1.2244
54053SOL     OW67995   9.602   1.630   2.531 -0.0915 -0.5001  0.2764
54053SOL    HW167996   9.653   1.670   2.602  0.5807  0.9540 -0.9748
54053SOL    HW267997   9.518   1.674   2.535  0.8783  1.7131 -1.5448
54054SOL     OW67998   5.929   1.950  10.472  0.1035  0.1124 -0.0294
54054SOL    HW167999   6.017   1.956  10.434  0.4583  1.4140  0.9167
54054SOL    HW268000   5.919   2.032  10.521 -2.1374  0.5705 -1.1449
54055SOL     OW68001   5.454   7.611   1.701  1.2307 -0.0507  0.4387
54055SOL    HW168002   5.407   7.536   1.737  2.9245 -1.7392 -0.6761
54055SOL    HW268003   5.408   7.631   1.619  1.6364 -0.8373  0.0106
54056SOL     OW68004   1.560   4.130   9.621  0.4181 -0.7666 -0.1901
54056SOL    HW168005   1.510   4.168   9.549 -1.5232 -1.9046  0.4907
54056SOL    HW268006   1.558   4.036   9.605 -0.0070 -1.0442  1.2795
54057SOL     OW68007   4.642  10.027   3.457 -0.4974  0.0889  0.5287
54057SOL    HW168008   4.726   9.993   3.489  0.6923  2.3477 -0.0024
54057SOL    HW268009   4.659  10.051   3.366 -1.8144  0.3470  0.3338
54058SOL     OW68010   1.522  11.526  11.987 -0.2171  0.0347 -0.0777
54058SOL    HW168011   1.510  11.585  12.062  2.3118  1.1349 -0.4519
54058SOL    HW268012   1.615  11.506  11.986 -0.7042 -2.6922 -0.9946
54059SOL     OW68013  10.761   2.624   6.493 -0.5417  0.8157  0.7741
54059SOL    HW168014  10.691   2.689   6.490 -0.0674  1.3207  0.5372
54059SOL    HW268015  10.760   2.591   6.583  0.2405  2.2876  1.3514
54060SOL     OW68016  11.118   4.581   2.232 -0.3622 -0.2650  0.1383
54060SOL    HW168017  11.076   4.507   2.187 -1.0020  0.3436 -0.2812
54060SOL    HW268018  11.212   4.564   2.221 -0.4753  0.3471 -2.3030
54061SOL     OW68019   2.828   9.264  11.805  0.2127 -0.7014  0.4405
54061SOL    HW168020   2.819   9.216  11.887  0.5680 -1.5364  0.0002
54061SOL    HW268021   2.848   9.197  11.740  1.6546  0.1282 -0.0195
54062SOL     OW68022   1.650   5.140   3.904  0.3243  0.5563  0.1879
54062SOL    HW168023   1.630   5.163   3.995  2.7994 -0.4632  1.0649
54062SOL    HW268024   1.667   5.046   3.906  0.4072  0.5051 -1.3589
54063SOL     OW68025  10.189   0.530  11.455  0.7513  0.5787 -0.2744
54063SOL    HW168026  10.138   0.454  11.425  1.7335 -0.1817 -0.0775
54063SOL    HW268027  10.235   0.560  11.378  1.5700 -0.0035 -0.0196
54064SOL     OW68028   1.851  11.939   3.431 -0.0186 -0.3946  0.3681
54064SOL    HW168029   1.800  11.922   3.510  1.0332 -0.6049  1.0083
54064SOL    HW268030   1.821  11.873   3.369 -0.8974 -0.1879  0.5570
54065SOL     OW68031   8.899   4.094   0.011  0.2077  0.4213 -0.3916
54065SOL    HW168032   8.954   4.163   0.049  1.1618  0.3063 -1.4978
54065SOL    HW268033   8.928   4.088  -0.080  1.1703 -2.4221 -0.0014
54066SOL     OW68034   4.318   1.462   3.447  0.7820 -0.7619 -0.4154
54066SOL    HW168035   4.402   1.505   3.432  0.0580  0.9235  0.0488
54066SOL    HW268036   4.331   1.407   3.524  0.5455  2.5339  2.2376
54067SOL     OW68037  10.834  10.387   3.455 -0.0154 -0.5393 -0.4369
54067SOL    HW168038  10.834  10.442   3.533  0.8173  0.7995 -1.3298
54067SOL    HW268039  10.751  10.339   3.459 -1.1713  1.3653  0.0067
54068SOL     OW68040   2.774   2.629   2.364 -0.0928  0.2260 -0.1728
54068SOL    HW168041   2.728   2.697   2.314 -0.3724  0.0402 -0.1722
54068SOL    HW268042   2.765   2.656   2.455  2.5221  1.8862 -0.3179
54069SOL     OW68043  10.178  10.410   8.132 -0.2380 -0.4684  0.8863
54069SOL    HW168044  10.112  10.370   8.075 -1.1328 -0.7122  2.0677
54069SOL    HW268045  10.186  10.349   8.205 -1.0906  1.1142  2.3660
54070SOL     OW68046   7.217   5.078   8.246 -0.1666  0.1449 -0.2698
54070SOL    HW168047   7.262   4.994   8.247  1.1286  0.8289  0.5651
54070SOL    HW268048   7.286   5.143   8.248 -0.9853  1.3547 -3.7999
54071SOL     OW68049   9.174   0.291  10.942 -0.0012 -0.1412 -0.6164
54071SOL    HW168050   9.233   0.326  11.009  0.4389 -1.1980 -0.4316
54071SOL    HW268051   9.159   0.200  10.968 -2.7463  0.4159  0.0345
54072SOL     OW68052  10.684   8.122   0.218  0.4461 -0.4172  0.4728
54072SOL    HW168053  10.779   8.131   0.221  0.2473  3.2765  0.5587
54072SOL    HW268054  10.663   8.063   0.290  2.4569  2.7639  3.9996
54073SOL     OW68055   3.549   1.132  12.326 -0.1941 -0.1192  0.2066
54073SOL    HW168056   3.584   1.152  12.413  2.2522  1.3340 -1.0315
54073SOL    HW268057   3.532   1.217  12.286 -1.4624 -0.7674 -0.7320
54074SOL     OW68058  10.318   5.903   0.776 -0.4528 -0.3110  0.0401
54074SOL    HW168059  10.251   5.835   0.787 -2.4271  1.0651 -2.3719
54074SOL    HW268060  10.347   5.894   0.685  1.7825 -0.0299  0.6576
54075SOL     OW68061  11.662   9.374   6.377 -0.1736 -0.1495  0.2704
54075SOL    HW168062  11.598   9.355   6.445 -0.7835  0.9904  0.0397
54075SOL    HW268063  11.697   9.459   6.400  2.2292 -1.2708  1.0812
54076SOL     OW68064   5.027   3.539   1.560 -0.2182 -0.3379 -0.0851
54076SOL    HW168065   5.090   3.553   1.489 -0.4767  0.5540 -0.1451
54076SOL    HW268066   5.076   3.558   1.639 -0.0769 -0.8268 -0.0518
54077SOL     OW68067  12.265   8.380  10.310  0.4717  0.1335  0.6774
54077SOL    HW168068  12.179   8.373  10.351  0.0504  0.2068 -0.1793
54077SOL    HW268069  12.278   8.474  10.296  1.0659  0.1972  1.5652
54078SOL     OW68070   5.824   2.100   2.717  0.5107 -0.4522  0.1286
54078SOL    HW168071   5.790   2.023   2.672 -1.4683  0.1427  0.5062
54078SOL    HW268072   5.748   2.140   2.758  1.3034  2.1299 -0.6830
54079SOL     OW68073   0.649   8.253   7.443  0.1245  0.3150 -0.2290
54079SOL    HW168074   0.556   8.255   7.464  0.6252  0.2273  2.3378
54079SOL    HW268075   0.686   8.190   7.504  1.8474  0.1953 -1.3412
54080SOL     OW68076   0.613   2.448   3.940 -0.6800  0.3113  0.3438
54080SOL    HW168077   0.517   2.442   3.938 -0.6434 -0.7240 -1.4280
54080SOL    HW268078   0.641   2.385   3.873  1.1688  1.9450 -0.5189
54081SOL     OW68079   5.606   0.866   4.940  0.3753  0.1356  0.3922
54081SOL    HW168080   5.656   0.810   4.881 -2.2601 -1.2657 -0.6864
54081SOL    HW268081   5.583   0.810   5.014 -1.0674  0.1644 -0.0019
54082SOL     OW68082  10.460   1.430   9.722  0.1911  0.3402  0.4184
54082SOL    HW168083  10.395   1.433   9.792 -0.7687 -0.6192 -0.4067
54082SOL    HW268084  10.540   1.465   9.763 -0.8589  1.7414  1.3895
54083SOL     OW68085   3.249   4.088   9.050 -0.4926  0.0752  0.3959
54083SOL    HW168086   3.191   4.013   9.061 -1.2685  0.5313 -0.4489
54083SOL    HW268087   3.230   4.144   9.126 -0.9021  0.0552  0.3107
54084SOL     OW68088  12.076  11.866   9.685 -0.4664 -0.3057  0.3181
54084SOL    HW168089  12.137  11.801   9.650  0.6631  1.3125 -0.8872
54084SOL    HW268090  12.103  11.877   9.777 -0.3215 -1.1321  0.3782
54085SOL     OW68091   4.961   4.416   3.610 -0.1523  0.4555 -0.0182
54085SOL    HW168092   4.930   4.375   3.530 -0.9305  0.4961  0.2516
54085SOL    HW268093   5.033   4.473   3.582 -0.7736  0.8944 -0.7683
54086SOL     OW68094   3.727   1.888   0.660  0.5541 -0.2626 -0.6192
54086SOL    HW168095   3.647   1.889   0.712  0.0240  0.1020 -1.4204
54086SOL    HW268096   3.772   1.969   0.684  0.3021 -0.0853 -0.7465
54087SOL     OW68097   7.127   7.045   2.204  0.1129  0.0677  0.4338
54087SOL    HW168098   7.136   7.113   2.137  0.4745  0.6853  1.0889
54087SOL    HW268099   7.215   7.008   2.213 -0.2732 -1.1401 -0.5755
54088SOL     OW68100   9.775   6.237   0.563 -0.1338  0.0707 -0.1804
54088SOL    HW168101   9.848   6.190   0.603  0.5010  0.7560 -0.5004
54088SOL    HW268102   9.800   6.247   0.471  0.2932  1.9924  0.1016
54089SOL     OW68103   3.414   2.205   7.044  0.0381  0.4036  1.0047
54089SOL    HW168104   3.396   2.282   7.098  0.5752 -0.2751  2.1715
54089SOL    HW268105   3.436   2.241   6.958 -1.0859  1.4897  1.1357
54090SOL     OW68106   1.025   0.557   8.922  0.0680  0.1631  0.1477
54090SOL    HW168107   1.003   0.490   8.986 -0.2126  0.3459  0.2456
54090SOL    HW268108   1.031   0.511   8.838  1.0325 -0.1834  0.3964
54091SOL     OW68109   0.283   8.831   6.917 -0.1416 -0.0553  0.1743
54091SOL    HW168110   0.371   8.816   6.884  0.5608  0.0011  1.9100
54091SOL    HW268111   0.263   8.753   6.969 -1.4139 -0.3921 -0.7815
54092SOL     OW68112   8.602   3.214   3.073 -0.0816  0.5532 -0.5860
54092SOL    HW168113   8.584   3.125   3.043  0.8239 -0.0340  0.4895
54092SOL    HW268114   8.558   3.271   3.010 -0.6504 -0.6539 -1.3131
54093SOL     OW68115   5.921   3.289   4.186 -0.3086 -0.0033 -0.3960
54093SOL    HW168116   5.867   3.230   4.132  1.2006 -1.1227 -0.7718
54093SOL    HW268117   5.983   3.326   4.124  1.4709 -1.3166  0.5080
54094SOL     OW68118  10.735  10.166   1.716  0.5870  0.3853 -0.4344
54094SOL    HW168119  10.724  10.237   1.780 -2.0544 -0.9181  0.7225
54094SOL    HW268120  10.719  10.207   1.632 -0.2264  1.3281  0.1539
54095SOL     OW68121   3.153   6.193   9.711  0.0642 -0.0459 -0.1468
54095SOL    HW168122   3.119   6.242   9.636 -0.5039 -0.9031 -0.4577
54095SOL    HW268123   3.084   6.130   9.732  0.9444 -0.9906 -0.0085
54096SOL     OW68124   1.243  11.266   0.009  0.2648 -0.0306  0.5003
54096SOL    HW168125   1.222  11.334   0.074  0.2236 -1.0107  1.5388
54096SOL    HW268126   1.333  11.242   0.028 -0.0050 -0.8865  0.7256
54097SOL     OW68127  10.724  11.317  11.285 -0.3009 -0.0643 -0.4737
54097SOL    HW168128  10.757  11.229  11.304  1.2495  0.3354 -1.1985
54097SOL    HW268129  10.770  11.374  11.347 -2.3031  0.1203  0.9332
54098SOL     OW68130   3.619   8.483   7.152  0.5656  0.2998 -0.0024
54098SOL    HW168131   3.548   8.469   7.090 -0.1494 -1.3897  1.1058
54098SOL    HW268132   3.578   8.527   7.226  0.7174 -0.3828  0.5005
54099SOL     OW68133   5.696   8.272   7.191  0.2833  0.5221  0.1866
54099SOL    HW168134   5.675   8.354   7.237 -0.4357  0.3407  0.1983
54099SOL    HW268135   5.776   8.241   7.232  0.9069  1.5370 -0.2289
54100SOL     OW68136   1.914   5.968   2.153  0.2762 -0.6106  0.8650
54100SOL    HW168137   1.948   5.891   2.107  0.2579 -0.2008  0.1465
54100SOL    HW268138   1.991   6.021   2.174  0.3585 -1.1582  2.0036
54101SOL     OW68139   6.930   0.825   6.236  0.3375  0.0775  0.4189
54101SOL    HW168140   6.853   0.879   6.253 -0.0277 -0.9306  2.3222
54101SOL    HW268141   7.001   0.887   6.223 -0.2837  1.0371  1.4388
54102SOL     OW68142   4.317  12.170   2.298  0.2511 -0.3605 -0.5972
54102SOL    HW168143   4.343  12.212   2.216 -0.9698  1.2061 -0.2344
54102SOL    HW268144   4.329  12.076   2.281  1.0581 -0.0214 -2.1761
54103SOL     OW68145   3.777   4.108   4.762 -0.0156  0.4194  0.1637
54103SOL    HW168146   3.795   4.057   4.683  2.6953  0.7871  0.4579
54103SOL    HW268147   3.742   4.191   4.729 -1.2589 -0.3213 -0.4748
54104SOL     OW68148   9.313   1.677   9.914 -0.0347  0.0636  0.0924
54104SOL    HW168149   9.348   1.757   9.954  0.5068 -0.4545  0.6758
54104SOL    HW268150   9.280   1.626   9.988  1.5545 -1.1890 -0.0085
54105SOL     OW68151   2.160  10.512   5.429  0.2809 -0.3783  0.2876
54105SOL    HW168152   2.213  10.454   5.374 -0.2733  0.5751 -1.3400
54105SOL    HW268153   2.079  10.464   5.444  0.9093 -1.1493  1.3626
54106SOL     OW68154  10.187   1.848   3.147  0.7811  0.4223 -0.1532
54106SOL    HW168155  10.192   1.853   3.051  1.1038  1.3218 -0.0982
54106SOL    HW268156  10.122   1.780   3.164  1.2505 -0.2634 -1.0055
54107SOL     OW68157   2.154   5.271   0.160  0.4143  0.5742  0.3564
54107SOL    HW168158   2.067   5.311   0.160  0.1264  0.1585 -2.4968
54107SOL    HW268159   2.144   5.191   0.211 -0.5084  1.2375  1.2413
54108SOL     OW68160   8.827   2.622  12.276 -0.1271  0.0875  0.0641
54108SOL    HW168161   8.893   2.692  12.275 -0.8486  0.7911  0.3082
54108SOL    HW268162   8.877   2.541  12.266  0.7320  0.6360 -0.1897
54109SOL     OW68163   9.544   9.036   6.162 -0.3673 -0.0142  0.4209
54109SOL    HW168164   9.537   9.033   6.257  0.8355 -2.3923  0.5108
54109SOL    HW268165   9.471   8.983   6.131  0.2818 -0.7463  0.1207
54110SOL     OW68166   1.237   0.829   0.298  0.1320  0.3396  0.3292
54110SOL    HW168167   1.330   0.810   0.287  0.0946 -1.2142  2.1800
54110SOL    HW268168   1.194   0.744   0.285 -1.1513  1.1601 -1.2286
54111SOL     OW68169   9.103   5.624   4.119  0.2560  0.1335 -0.6637
54111SOL    HW168170   9.075   5.662   4.035  0.1423  0.3902 -0.5103
54111SOL    HW268171   9.032   5.563   4.142  0.3425 -0.0231 -0.8089
54112SOL     OW68172   2.556   8.474   9.391 -0.1197 -0.5665 -0.2975
54112SOL    HW168173   2.637   8.455   9.343  0.5059  0.0797  0.4837
54112SOL    HW268174   2.578   8.461   9.483 -1.2520 -1.5636 -0.1491
54113SOL     OW68175   6.919   2.632   8.515 -0.9410  0.2369  0.6135
54113SOL    HW168176   6.995   2.649   8.569  0.4997 -0.8603 -0.9482
54113SOL    HW268177   6.846   2.672   8.562  0.7801  2.5433  1.4919
54114SOL     OW68178   4.519   3.361  10.927  0.0529  0.1433  0.1479
54114SOL    HW168179   4.563   3.439  10.961 -0.6388  0.4848  0.2622
54114SOL    HW268180   4.440   3.353  10.980 -0.5352  0.1136 -0.7126
54115SOL     OW68181  10.836   2.161   0.949 -0.2607 -0.0952  0.4839
54115SOL    HW168182  10.873   2.129   1.031  0.7838  1.2239  0.5567
54115SOL    HW268183  10.873   2.249   0.938 -2.4697  0.8304 -0.0497
54116SOL     OW68184   1.852   2.378   6.033  0.3710  0.4825 -0.1904
54116SOL    HW168185   1.910   2.329   6.091  0.5139 -1.2392 -1.7306
54116SOL    HW268186   1.876   2.351   5.945 -1.0893  1.6249 -0.9967
54117SOL     OW68187  12.069   0.655   0.972  0.5687  0.0353  0.0275
54117SOL    HW168188  12.097   0.734   0.926 -0.0216  0.6586  0.7246
54117SOL    HW268189  12.119   0.585   0.930  1.6988  0.8682 -0.0756
54118SOL     OW68190   2.144   6.383  11.505  0.4440 -0.1289 -0.6478
54118SOL    HW168191   2.123   6.423  11.421 -1.1156 -0.8571 -0.6420
54118SOL    HW268192   2.059   6.370  11.548  1.2178  0.5659  1.2167
54119SOL     OW68193   2.464  11.951   0.354  0.3709  0.2001 -0.3121
54119SOL    HW168194   2.487  11.866   0.391 -2.1700 -0.0979  0.7639
54119SOL    HW268195   2.510  12.014   0.409  0.2819 -0.3967  0.4608
54120SOL     OW68196   5.749   9.113   5.674  0.5763  0.0621  0.7779
54120SOL    HW168197   5.823   9.093   5.617  0.4068  1.6091 -0.0251
54120SOL    HW268198   5.740   9.035   5.729  1.0601 -1.2694 -0.9482
54121SOL     OW68199   3.255   7.557   9.090  0.3022  0.1184 -0.8714
54121SOL    HW168200   3.233   7.602   9.008  3.0325  2.0799 -0.6314
54121SOL    HW268201   3.302   7.479   9.063  0.4559  0.3182 -1.1790
54122SOL     OW68202   9.139   3.177   5.875 -0.1843 -0.2166 -0.3697
54122SOL    HW168203   9.072   3.129   5.923  0.1135 -1.5995 -1.2729
54122SOL    HW268204   9.133   3.267   5.908 -1.7481 -0.5427  0.3273
54123SOL     OW68205   3.169   3.516   8.829 -0.0513 -0.1341  0.1872
54123SOL    HW168206   3.120   3.544   8.751  0.7965 -0.1541 -0.3589
54123SOL    HW268207   3.193   3.598   8.872 -0.5468 -0.1233  0.4527
54124SOL     OW68208   1.579   1.796   5.938 -0.0164  0.3500  0.1563
54124SOL    HW168209   1.549   1.765   5.853  2.3330 -0.6473 -0.3972
54124SOL    HW268210   1.582   1.717   5.993  1.7065  0.3124  0.0895
54125SOL     OW68211   0.429   3.533  10.547  0.0899 -0.5013 -0.2142
54125SOL    HW168212   0.502   3.475  10.529  2.0192  1.6251  0.3201
54125SOL    HW268213   0.419   3.584  10.466 -0.2698 -0.2198  0.0031
54126SOL     OW68214   6.413   3.595   0.275 -0.5238 -0.1955  0.5003
54126SOL    HW168215   6.480   3.663   0.283  1.0247 -1.1974 -2.3606
54126SOL    HW268216   6.342   3.636   0.226 -0.0207 -0.2908 -0.3427
54127SOL     OW68217   4.663  11.951   0.875 -0.5636 -0.2255 -0.8112
54127SOL    HW168218   4.594  11.975   0.937 -0.3461 -2.1609  0.2562
54127SOL    HW268219   4.738  12.006   0.901 -0.4787 -0.9865  0.6885
54128SOL     OW68220   5.429   1.530   2.183 -0.4276 -0.3097 -0.1133
54128SOL    HW168221   5.387   1.596   2.128 -0.4108  0.3335  0.6373
54128SOL    HW268222   5.522   1.553   2.181 -0.3673 -0.5552 -0.1780
54129SOL     OW68223   3.968   5.242   6.818 -0.7660  0.6205 -0.0378
54129SOL    HW168224   4.033   5.311   6.834 -0.0640  0.1301 -0.7237
54129SOL    HW268225   3.957   5.240   6.723  0.3854 -1.2426 -0.1729
54130SOL     OW68226  10.149   8.346   5.497  0.6908 -0.4002 -0.2233
54130SOL    HW168227  10.083   8.380   5.558  0.8508  2.9194 -1.7034
54130SOL    HW268228  10.225   8.329   5.552 -0.3453 -1.1511  1.0355
54131SOL     OW68229   1.945   5.344   1.100  0.2313  0.0019  0.0736
54131SOL    HW168230   2.018   5.352   1.038  0.1096  0.7579  0.0164
54131SOL    HW268231   1.873   5.309   1.048  0.6416 -1.0546  0.2045
54132SOL     OW68232   1.843   0.064   7.688 -0.4238  0.0725 -0.4655
54132SOL    HW168233   1.911   0.011   7.645  1.0884  0.7481  0.9807
54132SOL    HW268234   1.774   0.001   7.709 -0.3593 -0.6061 -2.1210
54133SOL     OW68235   9.865  10.694   1.238 -0.2066  0.0413  0.1586
54133SOL    HW168236   9.855  10.659   1.327 -0.3249  0.0199  0.1378
54133SOL    HW268237   9.910  10.777   1.250  1.2489 -0.7138  0.0983
54134SOL     OW68238   1.216   3.690   0.700  0.1840  0.0348  0.0797
54134SOL    HW168239   1.198   3.679   0.606  0.6522  1.0222 -0.1457
54134SOL    HW268240   1.311   3.700   0.705  0.0417  1.4199  0.4829
54135SOL     OW68241   1.870   7.468  10.339 -0.1083  0.2729  0.1663
54135SOL    HW168242   1.911   7.550  10.313 -1.0953  0.2228 -1.7837
54135SOL    HW268243   1.924   7.434  10.410  2.4543  0.8399 -1.4142
54136SOL     OW68244  10.869  11.656   2.903  0.0444  0.6510  0.2630
54136SOL    HW168245  10.900  11.631   2.990  0.6663  0.9460  0.1322
54136SOL    HW268246  10.779  11.687   2.917 -0.1290 -0.0284  0.6770
54137SOL     OW68247   5.543  12.083  12.096 -0.3762  0.2724 -0.5987
54137SOL    HW168248   5.590  12.004  12.072 -1.1100 -1.0474  1.8942
54137SOL    HW268249   5.609  12.153  12.094  0.6660 -0.7112 -1.2539
54138SOL     OW68250   2.696   8.035  10.372  0.5213  0.1730  0.0223
54138SOL    HW168251   2.714   7.960  10.430 -0.0926 -0.0616 -0.0796
54138SOL    HW268252   2.650   8.097  10.428  0.1195  0.0369 -0.1507
54139SOL     OW68253   4.540  11.977   4.692 -0.4998 -0.7870 -0.2284
54139SOL    HW168254   4.606  12.003   4.756  0.4424 -1.1232 -1.0343
54139SOL    HW268255   4.489  12.056   4.676  0.2986 -0.2705 -0.2763
54140SOL     OW68256   8.922   0.040   2.899 -0.4076  0.6548  0.0878
54140SOL    HW168257   8.950  -0.004   2.980 -1.0562 -1.1944 -0.6219
54140SOL    HW268258   8.902   0.129   2.926  0.0558  0.2797  1.8347
54141SOL     OW68259   8.910  11.491   5.715 -0.5679 -0.1058  0.1672
54141SOL    HW168260   8.829  11.500   5.666 -0.0928  1.6119 -0.3726
54141SOL    HW268261   8.938  11.581   5.732  1.5169 -0.6407 -0.1625
54142SOL     OW68262   5.133   2.369   8.475 -0.1547 -0.2108  0.1191
54142SOL    HW168263   5.119   2.425   8.551 -1.9574 -2.2225  1.3587
54142SOL    HW268264   5.227   2.376   8.458 -0.3189  3.5500 -0.1756
54143SOL     OW68265   5.676   8.913   3.692 -0.0636  0.7861  0.1409
54143SOL    HW168266   5.750   8.940   3.746  0.0968  1.1093 -0.2294
54143SOL    HW268267   5.638   8.839   3.738 -0.1815  1.3069  0.9053
54144SOL     OW68268   1.412   7.875   5.294 -0.2302  0.0093  0.1802
54144SOL    HW168269   1.361   7.914   5.365  0.9464 -1.5324  1.9402
54144SOL    HW268270   1.502   7.879   5.324  0.2381 -1.2439 -0.9717
54145SOL     OW68271   4.701   7.224  12.128  0.8505  0.2919 -0.4709
54145SOL    HW168272   4.631   7.287  12.112  0.8123  0.9191  1.7852
54145SOL    HW268273   4.748   7.260  12.203  3.8979  0.1120 -2.1605
54146SOL     OW68274   1.072   8.178  11.559 -0.2822 -0.3357 -0.1682
54146SOL    HW168275   1.025   8.254  11.594 -0.6279 -0.4620 -0.3515
54146SOL    HW268276   1.111   8.137  11.637  1.5289  1.0944 -0.2745
54147SOL     OW68277   0.790  10.345   8.335 -0.1521  0.2618  0.5574
54147SOL    HW168278   0.821  10.256   8.317  1.4695  1.0139 -0.6855
54147SOL    HW268279   0.759  10.343   8.425  0.6114 -1.3605  0.8087
54148SOL     OW68280   8.683  10.079   5.300 -0.8283  0.0693 -0.7307
54148SOL    HW168281   8.619  10.027   5.251 -0.2171 -0.5248 -0.9167
54148SOL    HW268282   8.648  10.083   5.389 -1.1485 -0.2086 -0.8432
54149SOL     OW68283   4.479   7.727   7.083  0.1725 -0.5161 -0.7950
54149SOL    HW168284   4.472   7.688   7.170  1.7623  0.3720 -0.2154
54149SOL    HW268285   4.569   7.707   7.055  1.6353  3.6451  0.1047
54150SOL     OW68286   0.336  10.985   9.288  0.1537 -0.0911  0.1183
54150SOL    HW168287   0.352  11.034   9.207  0.4268 -0.0409  0.2037
54150SOL    HW268288   0.390  10.907   9.280 -2.0674 -1.6413 -1.1271
54151SOL     OW68289   8.293   1.320   8.203  0.1769  0.1707  0.0575
54151SOL    HW168290   8.235   1.391   8.228 -2.4011 -1.4131 -0.9998
54151SOL    HW268291   8.381   1.353   8.220 -0.9369  3.2553  0.3664
54152SOL     OW68292  11.921   2.571   6.710  0.1829  0.6296 -0.1356
54152SOL    HW168293  11.882   2.497   6.757 -0.5258 -0.5789 -2.4477
54152SOL    HW268294  11.852   2.637   6.708  0.8834  1.4997  2.1069
54153SOL     OW68295   0.568   5.704   2.303  0.2689  0.1708 -0.3148
54153SOL    HW168296   0.514   5.777   2.272 -0.1967 -0.1624 -0.3054
54153SOL    HW268297   0.658   5.733   2.290  0.0928  0.8495 -0.0761
54154SOL     OW68298   6.238   9.459   4.877 -0.1819  0.4274 -0.4611
54154SOL    HW168299   6.167   9.401   4.903 -0.4297  1.1388  0.4647
54154SOL    HW268300   6.198   9.521   4.816  0.4216 -1.3092 -2.7923
54155SOL     OW68301   5.940   8.200   7.045 -0.5006 -0.1580 -0.4179
54155SOL    HW168302   5.867   8.149   7.008  1.0216 -1.5245 -1.6868
54155SOL    HW268303   6.006   8.135   7.067 -0.5143  0.8124  3.0197
54156SOL     OW68304   7.790   1.526   5.984  0.7791 -0.2897  0.0188
54156SOL    HW168305   7.722   1.513   6.050  1.6357 -0.7177  0.8339
54156SOL    HW268306   7.781   1.452   5.924 -1.0959  0.9658 -1.3755
54157SOL     OW68307   3.257   0.931   2.287 -0.3134  0.1618 -0.3266
54157SOL    HW168308   3.248   0.993   2.360  0.4454 -0.9028  0.6979
54157SOL    HW268309   3.272   0.987   2.211  0.0660  1.2583  0.5190
54158SOL     OW68310   7.479   2.772   8.195 -0.1946 -0.1287 -0.0250
54158SOL    HW168311   7.528   2.798   8.274  0.9961 -0.5868 -0.5903
54158SOL    HW268312   7.432   2.851   8.169  3.2928  1.6403 -1.6824
54159SOL     OW68313   4.311   1.198   4.628  0.2092  0.0418 -0.0089
54159SOL    HW168314   4.258   1.250   4.569  1.0015  1.2193  0.2794
54159SOL    HW268315   4.273   1.213   4.715 -0.1994 -0.7049 -0.0516
54160SOL     OW68316   1.990   2.954  12.020  0.6372 -0.5139 -0.4222
54160SOL    HW168317   1.965   2.889  11.955  1.0453 -0.3087 -0.7883
54160SOL    HW268318   2.086   2.959  12.013  0.6115  0.0827 -0.3557
54161SOL     OW68319   7.037  11.868  10.908  0.4422 -0.3169  0.1595
54161SOL    HW168320   7.001  11.937  10.852 -0.8694 -2.3986 -1.7405
54161SOL    HW268321   6.961  11.819  10.938  1.3340 -0.9593  1.4710
54162SOL     OW68322  11.887   5.793   7.374 -0.2033 -0.1432  0.2883
54162SOL    HW168323  11.959   5.804   7.436 -2.1312  0.3661  2.5231
54162SOL    HW268324  11.879   5.698   7.365  1.3138 -0.2212 -0.7777
54163SOL     OW68325   5.237  10.799   3.445  0.1867 -0.2485  0.1483
54163SOL    HW168326   5.186  10.877   3.426  2.8345  1.4416 -0.6856
54163SOL    HW268327   5.285  10.820   3.525 -0.9567 -2.0871  1.3721
54164SOL     OW68328   2.650   3.852   0.300  0.2699 -0.3361 -0.4031
54164SOL    HW168329   2.624   3.854   0.392  2.5809  0.0166  0.3140
54164SOL    HW268330   2.670   3.760   0.283 -1.2336 -0.5829 -0.9065
54165SOL     OW68331   8.030   5.522   7.664  0.0654 -0.1901  0.1368
54165SOL    HW168332   8.114   5.561   7.641 -0.5992  1.8210  0.8537
54165SOL    HW268333   8.004   5.568   7.744 -1.7308 -0.6958 -0.1100
54166SOL     OW68334   3.529   8.082  11.036 -0.3381 -0.1355  0.5845
54166SOL    HW168335   3.591   8.090  11.109 -0.1232 -0.4101  0.4369
54166SOL    HW268336   3.448   8.121  11.068  0.2502  1.3113  0.3799
54167SOL     OW68337   8.035   4.669   6.863 -0.2861  0.2493  0.0262
54167SOL    HW168338   8.073   4.632   6.942  0.3978  0.5992 -0.1345
54167SOL    HW268339   8.110   4.694   6.809 -0.7366  1.2025 -0.1778
54168SOL     OW68340   4.850   9.004   0.502 -0.1287  0.0904 -0.3876
54168SOL    HW168341   4.916   9.040   0.560 -0.5243 -0.4823  0.4331
54168SOL    HW268342   4.770   9.000   0.555 -0.4235 -0.7286 -0.8663
54169SOL     OW68343   7.819  11.361  11.474  0.7677  0.3783  0.3990
54169SOL    HW168344   7.885  11.423  11.443 -0.1294  1.5474  0.7289
54169SOL    HW268345   7.762  11.348  11.399  0.6456  0.3842  0.4910
54170SOL     OW68346   1.649   6.195   8.021 -0.1691  0.6293 -0.8226
54170SOL    HW168347   1.574   6.189   7.962  1.4708 -0.0642 -2.9914
54170SOL    HW268348   1.669   6.104   8.043  1.1450  0.6323 -1.8511
54171SOL     OW68349   4.972   8.052  11.353  0.2682  0.2576 -0.0781
54171SOL    HW168350   5.042   8.073  11.290 -0.1349  2.2087  0.0438
54171SOL    HW268351   4.920   7.985  11.310  1.0450  0.2522 -1.0569
54172SOL     OW68352  10.712   4.810   5.318  0.1347 -0.4682  0.0463
54172SOL    HW168353  10.764   4.746   5.365 -0.9794 -0.3124  1.5471
54172SOL    HW268354  10.720   4.891   5.369  0.6222  0.3195 -1.2144
54173SOL     OW68355   7.065   7.610   6.554  0.6186 -0.3345  0.3880
54173SOL    HW168356   6.987   7.653   6.589  1.0692 -1.1570  2.5313
54173SOL    HW268357   7.059   7.623   6.459 -0.5594  2.1910  0.7428
54174SOL     OW68358   8.093   9.802  10.093 -0.3783  0.1207  0.1343
54174SOL    HW168359   8.125   9.738  10.156 -0.1971  0.5083  0.4421
54174SOL    HW268360   8.018   9.760  10.051  0.8140 -0.9948 -0.9423
54175SOL     OW68361   3.738   1.236   0.211  0.1019  0.0873 -0.2433
54175SOL    HW168362   3.768   1.157   0.255 -0.5291 -1.7460 -2.8393
54175SOL    HW268363   3.795   1.305   0.244  1.2177 -1.5761  1.5332
54176SOL     OW68364   2.945   4.696   9.632  0.3078  0.3762 -0.6636
54176SOL    HW168365   2.883   4.647   9.578  2.0201 -0.4745 -1.9429
54176SOL    HW268366   2.978   4.765   9.575  0.0499  1.2591  0.2268
54177SOL     OW68367   6.002   6.865   5.603  0.3386  0.9062  0.0844
54177SOL    HW168368   6.030   6.945   5.559  0.6325  0.8870  0.2336
54177SOL    HW268369   5.955   6.815   5.536 -0.0228  1.2939  0.0477
54178SOL     OW68370   9.410   2.088   0.223 -0.0115  0.1444 -0.4284
54178SOL    HW168371   9.481   2.053   0.277 -0.3892 -1.2369 -0.7953
54178SOL    HW268372   9.330   2.067   0.272 -0.2844 -0.0603 -0.9566
54179SOL     OW68373   3.203   3.610  10.797  0.1689 -0.1940 -0.5542
54179SOL    HW168374   3.151   3.580  10.722  1.0531  0.8972 -1.6370
54179SOL    HW268375   3.158   3.689  10.827  0.7035  0.2547 -0.9330
54180SOL     OW68376  11.214   1.462   5.959  0.2478 -0.5196  0.3610
54180SOL    HW168377  11.220   1.540   5.905  0.8072 -1.3535 -0.8327
54180SOL    HW268378  11.271   1.398   5.916  1.2967 -1.0062  2.3396
54181SOL     OW68379   1.811   7.969  11.907 -0.2234  0.0908 -0.4388
54181SOL    HW168380   1.779   8.045  11.858  2.2307  1.3360 -0.2420
54181SOL    HW268381   1.891   8.000  11.950  1.0509 -2.6851 -0.5937
54182SOL     OW68382   0.087   7.247   4.192  0.1803  0.2707  0.7678
54182SOL    HW168383   0.122   7.173   4.242 -0.8711 -0.9557 -0.2381
54182SOL    HW268384   0.158   7.271   4.132  0.2289 -0.4839  0.5192
54183SOL     OW68385   2.865   5.289   1.650  0.0713 -0.0338  0.1413
54183SOL    HW168386   2.880   5.218   1.588 -1.1507  0.5746 -0.9106
54183SOL    HW268387   2.808   5.350   1.603 -0.0369  0.9689  1.5047
54184SOL     OW68388   1.997  10.071   4.367 -0.4785 -0.3462  0.0515
54184SOL    HW168389   1.919  10.122   4.386  1.2583  1.8911  1.7302
54184SOL    HW268390   2.027  10.039   4.452  1.5672  0.6954 -0.2008
54185SOL     OW68391   9.736   8.990  11.136  0.0769 -0.3553  0.0872
54185SOL    HW168392   9.831   9.001  11.142  0.3887 -1.5488 -1.7570
54185SOL    HW268393   9.709   9.049  11.065 -0.1231 -1.8581 -1.1496
54186SOL     OW68394   0.407  10.526   5.247 -0.3345  0.8056 -0.0821
54186SOL    HW168395   0.484  10.553   5.197 -0.5694 -0.9702 -1.5353
54186SOL    HW268396   0.334  10.574   5.207 -0.3694  0.1744 -0.8244
54187SOL     OW68397  10.910   3.302  11.271  0.5601 -0.5328  0.3823
54187SOL    HW168398  10.995   3.345  11.278  0.9481 -1.0124 -1.0819
54187SOL    HW268399  10.919   3.243  11.196 -1.4876  0.3930 -0.6730
54188SOL     OW68400   4.222   8.154   6.538 -0.2931 -0.2067  0.7693
54188SOL    HW168401   4.225   8.154   6.442 -1.6394 -0.4395  0.7041
54188SOL    HW268402   4.133   8.180   6.559  0.4631  1.5646  2.0182
54189SOL     OW68403   9.976   3.965   2.267  0.5199  0.0594  0.0835
54189SOL    HW168404  10.011   3.958   2.355  1.3553  0.8963 -0.1704
54189SOL    HW268405   9.952   3.875   2.243  1.7144 -0.4023  0.5892
54190SOL     OW68406   0.605   6.857   9.272  0.1166  0.6164 -0.0283
54190SOL    HW168407   0.621   6.771   9.232 -0.1505 -1.9275  4.5765
54190SOL    HW268408   0.515   6.851   9.305  0.1566  2.6191  0.5635
54191SOL     OW68409   5.700   7.953   0.909 -0.1875 -0.0247 -0.3568
54191SOL    HW168410   5.756   7.914   0.976 -2.9966 -1.0930  1.5469
54191SOL    HW268411   5.691   8.044   0.935 -1.8869 -0.6055  1.3068
54192SOL     OW68412  11.447   1.411   3.299  0.3210 -1.0405 -0.1052
54192SOL    HW168413  11.521   1.470   3.283  0.2027 -0.8173  0.1699
54192SOL    HW268414  11.413   1.436   3.385 -0.0640 -1.1520 -0.2195
54193SOL     OW68415   7.547   7.075   8.517  0.0652 -0.1575 -0.4712
54193SOL    HW168416   7.560   7.012   8.446  1.2865 -0.2184 -0.2040
54193SOL    HW268417   7.470   7.125   8.490  0.1040 -0.6327 -1.5084
54194SOL     OW68418   2.166   6.577   1.394  0.1584  0.3434  0.7182
54194SOL    HW168419   2.185   6.502   1.451  2.3081  0.8916  0.7824
54194SOL    HW268420   2.216   6.649   1.432  0.1870  1.1718 -0.8303
54195SOL     OW68421   0.540  10.364   2.898 -0.4083 -0.4454  0.1571
54195SOL    HW168422   0.532  10.280   2.943 -2.5548 -0.3523  0.0737
54195SOL    HW268423   0.499  10.349   2.813 -0.4991  0.5899  0.0041
54196SOL     OW68424   8.934   7.904   1.212 -0.2468  0.2857 -0.0170
54196SOL    HW168425   8.882   7.862   1.280  1.9755  0.6304  2.0076
54196SOL    HW268426   8.951   7.992   1.245 -0.0378  0.8624 -1.5558
54197SOL     OW68427   3.607   2.381   3.350 -0.0933  0.0607 -0.1824
54197SOL    HW168428   3.686   2.432   3.367 -0.2437  0.3134 -0.2466
54197SOL    HW268429   3.637   2.290   3.352  0.4451  0.1865 -1.4565
54198SOL     OW68430  12.010  10.490   4.394 -0.4203 -0.7528 -0.0053
54198SOL    HW168431  12.084  10.537   4.356  0.0305 -1.1805  0.3298
54198SOL    HW268432  12.045  10.403   4.414 -0.4220 -0.3347  2.0483
54199SOL     OW68433   1.205   3.797   5.003 -0.0721  0.5008  0.2014
54199SOL    HW168434   1.228   3.886   5.029  2.3936  0.0672 -0.2907
54199SOL    HW268435   1.186   3.752   5.085 -1.6595  1.5049  0.4334
54200SOL     OW68436   8.620   5.578   8.103 -0.1142 -0.1643  0.0238
54200SOL    HW168437   8.545   5.631   8.076  0.4535  0.2269 -0.8253
54200SOL    HW268438   8.667   5.559   8.022  1.8323  1.3281  0.7204
54201SOL     OW68439   9.880  12.319   0.540 -0.5274 -0.7634  0.0962
54201SOL    HW168440   9.929  12.334   0.621 -0.6776  0.1996  0.0189
54201SOL    HW268441   9.939  12.348   0.471 -0.7581 -0.7119 -0.0790
54202SOL     OW68442  10.521  10.399   6.631  0.2227 -0.3734  0.0099
54202SOL    HW168443  10.531  10.315   6.676  1.3322 -0.5012 -0.4421
54202SOL    HW268444  10.564  10.386   6.547 -1.2852  0.0602 -0.8492
54203SOL     OW68445   4.012   2.278  10.628  0.4303  0.1013  0.8315
54203SOL    HW168446   4.052   2.281  10.715 -0.5881 -1.4272  1.3846
54203SOL    HW268447   3.935   2.335  10.636 -0.2840 -0.9020  1.2890
54204SOL     OW68448   4.295   8.277   8.231  0.2368 -0.1034  0.9068
54204SOL    HW168449   4.251   8.193   8.213  0.4211  0.3679 -2.3229
54204SOL    HW268450   4.381   8.252   8.264  0.3567 -1.2288 -0.1634
54205SOL     OW68451   2.302   7.049   8.951  0.3070 -0.3433 -0.1006
54205SOL    HW168452   2.293   7.066   8.858  0.5697  0.6992  0.0450
54205SOL    HW268453   2.212   7.049   8.985  0.2878  1.0772 -0.0814
54206SOL     OW68454  10.490   8.858   8.325  0.2248  0.2966 -0.1271
54206SOL    HW168455  10.486   8.808   8.406 -1.7057 -0.4472 -0.6169
54206SOL    HW268456  10.555   8.926   8.341  0.5467 -0.4016  1.7041
54207SOL     OW68457   4.578   1.734  11.174 -0.3068 -0.5674  0.3194
54207SOL    HW168458   4.507   1.767  11.230 -1.3234 -0.5762 -0.9143
54207SOL    HW268459   4.552   1.645  11.153  0.5365 -0.8781  0.5858
54208SOL     OW68460   0.206   8.995  11.357 -0.2129  0.2410 -0.2346
54208SOL    HW168461   0.252   8.914  11.380  1.8894  1.2330 -0.7426
54208SOL    HW268462   0.272   9.063  11.367 -2.1404  2.0416  0.9544
54209SOL     OW68463  10.379   7.330   1.721  0.2735  0.0929 -0.2881
54209SOL    HW168464  10.287   7.314   1.703  0.5101 -0.7890 -0.7437
54209SOL    HW268465  10.409   7.383   1.647  0.0313  0.7962  0.1010
54210SOL     OW68466   1.926   5.224   8.976  0.3765  0.0656 -0.5305
54210SOL    HW168467   1.844   5.270   8.959 -0.4506 -1.5506 -1.0856
54210SOL    HW268468   1.947   5.246   9.067 -1.1810 -0.2400 -0.0736
54211SOL     OW68469   2.094   0.043   0.778  0.4416  0.2503 -0.0555
54211SOL    HW168470   2.181   0.005   0.769  0.9693  1.0584  1.3722
54211SOL    HW268471   2.074   0.035   0.871 -2.0446 -2.0550 -0.6656
54212SOL     OW68472   9.220   6.279   2.827  0.4983 -0.5375  0.5683
54212SOL    HW168473   9.176   6.321   2.753  0.1670  1.7470  1.9629
54212SOL    HW268474   9.249   6.194   2.793  0.0244  0.2633 -2.0420
54213SOL     OW68475  11.363   8.425   0.303  0.1599 -0.0372 -0.0056
54213SOL    HW168476  11.422   8.386   0.239  0.3219  0.8046 -0.3811
54213SOL    HW268477  11.286   8.367   0.304  0.0481  0.0744 -1.1475
54214SOL     OW68478  11.981   2.243   7.945  0.4097  0.2749 -0.4269
54214SOL    HW168479  11.980   2.270   8.036 -0.7395 -2.2797  0.3933
54214SOL    HW268480  12.019   2.155   7.946 -3.0467 -1.4394 -1.8212
54215SOL     OW68481  10.229   3.598   2.346  0.0576 -0.4554 -0.1367
54215SOL    HW168482  10.271   3.517   2.318  0.6603  0.0236 -0.6638
54215SOL    HW268483  10.176   3.625   2.270 -0.3699 -0.5025  0.1405
54216SOL     OW68484  12.008   6.530   7.458  0.1306 -0.3419  0.1762
54216SOL    HW168485  11.931   6.475   7.449 -0.6369  0.0465  3.1937
54216SOL    HW268486  12.066   6.481   7.517  0.7067  0.8197  0.6040
54217SOL     OW68487  11.858   1.842  10.534  0.3726  0.4941 -0.1256
54217SOL    HW168488  11.781   1.846  10.590 -0.9932 -0.8580 -1.8090
54217SOL    HW268489  11.856   1.923  10.483 -0.5572  0.0172 -0.8824
54218SOL     OW68490   0.106   4.071   9.861  0.4054 -0.2244 -0.2076
54218SOL    HW168491   0.161   4.001   9.898  2.3307  1.5764  0.5230
54218SOL    HW268492   0.114   4.143   9.923 -2.5902  0.2981 -0.2632
54219SOL     OW68493   8.206   7.613   3.487  0.5978  0.2731 -0.3613
54219SOL    HW168494   8.270   7.677   3.516 -0.1151  0.2643  1.3209
54219SOL    HW268495   8.253   7.529   3.488  1.7951  0.7866 -3.4246
54220SOL     OW68496   9.718   9.353   0.892  0.2148 -0.5464 -0.2710
54220SOL    HW168497   9.811   9.368   0.874  0.2177  0.0154  0.1807
54220SOL    HW268498   9.716   9.282   0.956  0.3343 -0.5047 -0.2223
54221SOL     OW68499   3.627   6.864   0.104 -0.4195  0.0674  0.3196
54221SOL    HW168500   3.679   6.851   0.183  1.1954 -2.2722 -1.0305
54221SOL    HW268501   3.691   6.868   0.033 -1.9470 -1.6861 -1.2696
54222SOL     OW68502   7.013   8.360  10.396  0.3259  0.2222 -0.2246
54222SOL    HW168503   7.083   8.313  10.351  0.0342  0.3363 -0.8157
54222SOL    HW268504   7.044   8.451  10.401  1.2858 -0.1515  1.7212
54223SOL     OW68505   4.267   9.164   2.372 -0.0338 -0.0636  0.0480
54223SOL    HW168506   4.223   9.224   2.311  2.1729  1.7236  0.0602
54223SOL    HW268507   4.280   9.216   2.451 -0.1132 -1.3614  0.9482
54224SOL     OW68508   9.959   2.783   6.991  0.0624  0.3535 -0.4844
54224SOL    HW168509   9.880   2.775   7.044 -0.5140 -0.2230 -1.4182
54224SOL    HW268510   9.954   2.711   6.928  1.6107 -0.0565 -0.1994
54225SOL     OW68511  10.121   9.042   3.036  0.2542 -0.2521  0.3932
54225SOL    HW168512  10.202   9.023   2.989  0.3571 -0.2942  0.5910
54225SOL    HW268513  10.098   9.131   3.008 -0.3700 -0.7283 -0.7308
54226SOL     OW68514   5.490   1.556   6.480  0.1144  0.1453  0.0263
54226SOL    HW168515   5.505   1.470   6.521 -1.5507 -1.1860 -1.9588
54226SOL    HW268516   5.403   1.581   6.511 -0.5096 -0.1609 -1.3998
54227SOL     OW68517   3.633   2.756   5.383  0.0535  0.1170  0.0377
54227SOL    HW168518   3.727   2.756   5.403  0.0554  2.5619  0.2760
54227SOL    HW268519   3.629   2.738   5.289  0.6911 -0.6625  0.1464
54228SOL     OW68520   7.686   3.840   4.032 -0.3114  0.4350  0.4870
54228SOL    HW168521   7.771   3.850   4.075 -0.4079 -1.7071  1.3483
54228SOL    HW268522   7.623   3.837   4.104 -0.7770 -0.6675  0.0635
54229SOL     OW68523   6.646   1.903   3.798  0.0195  0.0059  0.1747
54229SOL    HW168524   6.608   1.953   3.726  0.5259 -0.9436 -0.7738
54229SOL    HW268525   6.706   1.963   3.841 -1.8331  1.2606  1.1536
54230SOL     OW68526   6.352   8.566  11.157  0.4430  0.4461  0.1023
54230SOL    HW168527   6.441   8.599  11.148  0.8809 -0.1777  1.7449
54230SOL    HW268528   6.354   8.512  11.236 -1.5918  1.1456  0.7166
54231SOL     OW68529  11.158   2.577   1.055  0.6941  0.0893  0.2261
54231SOL    HW168530  11.123   2.596   1.141 -1.1127 -0.2731 -0.3984
54231SOL    HW268531  11.117   2.642   0.997  0.3102 -0.9180 -0.6727
54232SOL     OW68532   4.326   8.622   9.707 -0.0601  0.8662  0.0473
54232SOL    HW168533   4.230   8.621   9.716 -0.3969  2.3708 -2.4368
54232SOL    HW268534   4.341   8.630   9.613  2.5716 -0.7219  0.2507
54233SOL     OW68535   4.492  11.630   0.932 -0.3259  0.2609  0.5734
54233SOL    HW168536   4.556  11.675   0.987  0.0896  0.5273 -0.1153
54233SOL    HW268537   4.544  11.595   0.859 -0.6298 -1.3524  1.0843
54234SOL     OW68538   2.574   6.206   9.981  0.6879 -0.6168 -0.2077
54234SOL    HW168539   2.581   6.171   9.892 -0.8059  0.5297 -0.8094
54234SOL    HW268540   2.578   6.129  10.037 -1.0862 -1.6469 -1.4126
54235SOL     OW68541  10.494  11.531   5.608 -0.2706 -0.1320  0.1927
54235SOL    HW168542  10.559  11.536   5.539 -0.0052 -0.1763  0.4391
54235SOL    HW268543  10.539  11.563   5.687 -0.7153  0.3962  0.2418
54236SOL     OW68544   1.699   2.046   6.004  0.2859  0.0006 -0.0803
54236SOL    HW168545   1.744   2.057   5.921  0.5560 -0.5450 -0.0071
54236SOL    HW268546   1.700   1.952   6.020 -2.1251 -0.2050 -0.7638
54237SOL     OW68547   0.785   2.237  10.547  0.3871 -0.0548  0.1839
54237SOL    HW168548   0.824   2.315  10.587  0.0600 -0.1556  0.7050
54237SOL    HW268549   0.810   2.165  10.606 -0.8664 -0.0751  0.7154
54238SOL     OW68550   0.131  12.015  10.221 -0.2489  0.2445 -0.2524
54238SOL    HW168551   0.150  11.928  10.187  1.0108  0.5760 -0.4686
54238SOL    HW268552   0.214  12.063  10.211 -1.3358  1.9819 -1.6968
54239SOL     OW68553   0.881   1.758   5.373 -0.3725 -0.0105  0.1777
54239SOL    HW168554   0.815   1.819   5.339 -1.7079 -0.7375  1.3469
54239SOL    HW268555   0.860   1.674   5.332  1.5970  0.2668 -1.6023
54240SOL     OW68556   6.592   6.028   6.839  0.0089 -0.2449 -0.3163
54240SOL    HW168557   6.687   6.030   6.849 -0.0701  2.0842  0.4920
54240SOL    HW268558   6.563   5.959   6.899  1.1170 -0.6127 -0.1755
54241SOL     OW68559  10.634   7.565   4.330 -0.3665 -0.2287  0.4175
54241SOL    HW168560  10.714   7.556   4.278 -0.0971  2.4005  0.2478
54241SOL    HW268561  10.613   7.476   4.358  1.9363 -1.1321 -0.5267
54242SOL     OW68562   8.188   3.716   1.602  0.5330 -0.1488  0.1058
54242SOL    HW168563   8.122   3.707   1.671 -1.7534  0.6430 -1.7941
54242SOL    HW268564   8.176   3.638   1.548 -0.2023  0.8499 -1.2547
54243SOL     OW68565  11.023   3.142  11.071 -0.3111  0.0798  0.1088
54243SOL    HW168566  11.006   3.101  10.986 -0.6594 -0.2015  0.3130
54243SOL    HW268567  11.107   3.106  11.099 -1.3420 -1.7316  1.0202
54244SOL     OW68568   4.792   2.332   3.873  0.0127 -0.3799  0.2224
54244SOL    HW168569   4.874   2.286   3.888 -0.2537 -0.9594 -0.0702
54244SOL    HW268570   4.774   2.321   3.780 -0.9357 -1.1784  0.4788
54245SOL     OW68571  11.473   0.100   9.569 -0.5035  0.1942 -0.3500
54245SOL    HW168572  11.528   0.178   9.568  1.4058 -1.0820 -2.3130
54245SOL    HW268573  11.406   0.116   9.504  0.3892 -0.0871 -1.3660
54246SOL     OW68574   0.607   8.621  11.386  0.3520  0.2232  0.2109
54246SOL    HW168575   0.543   8.623  11.314 -0.6526 -1.7030  0.9853
54246SOL    HW268576   0.667   8.550  11.363  0.1259 -0.2964  1.1770
54247SOL     OW68577   2.799  10.873   7.495 -0.1421  0.1831 -0.1257
54247SOL    HW168578   2.783  10.963   7.467 -1.5933 -0.7687 -2.7966
54247SOL    HW268579   2.893  10.869   7.511  0.4099  1.6245 -2.4699
54248SOL     OW68580   7.933   7.694   5.010  0.1851  0.1752 -0.2608
54248SOL    HW168581   7.875   7.743   4.951 -0.4609 -0.6008 -0.2850
54248SOL    HW268582   7.941   7.608   4.970  0.1622 -0.1925  0.5146
54249SOL     OW68583   1.098   4.902   7.554 -0.2859  0.1215  0.2246
54249SOL    HW168584   1.182   4.911   7.599 -0.1638 -0.4896  0.1245
54249SOL    HW268585   1.032   4.913   7.623 -0.1383  1.0782  0.2230
54250SOL     OW68586   3.155  10.205   5.573 -0.4272 -0.3084 -0.0789
54250SOL    HW168587   3.191  10.292   5.559 -2.7389  0.8836  0.8097
54250SOL    HW268588   3.192  10.176   5.657  2.9693 -1.7438 -1.8820
54251SOL     OW68589   0.566   2.875  11.002  0.3454 -0.1289 -0.4072
54251SOL    HW168590   0.569   2.836  10.915  0.5403 -0.6025 -0.1891
54251SOL    HW268591   0.599   2.807  11.060  1.2444  0.5619 -0.0946
54252SOL     OW68592   2.450   7.900  10.942 -0.2198  0.2512 -0.3351
54252SOL    HW168593   2.521   7.958  10.916  0.0182 -0.1798 -0.6502
54252SOL    HW268594   2.492   7.834  10.997 -0.5458  0.5598  0.2969
54253SOL     OW68595  10.346   7.888   2.925 -0.3000  0.4857 -0.0485
54253SOL    HW168596  10.385   7.804   2.899  0.0715  0.2177  1.3228
54253SOL    HW268597  10.309   7.872   3.011 -3.2678  0.8219 -1.1445
54254SOL     OW68598   7.535   3.445   8.830 -0.2559 -0.5090  0.2846
54254SOL    HW168599   7.625   3.462   8.857 -0.7293  0.3963  1.3579
54254SOL    HW268600   7.488   3.428   8.912 -1.0744 -0.8919 -0.2532
54255SOL     OW68601   5.383   2.523  11.913 -0.0646  0.2239 -0.1362
54255SOL    HW168602   5.379   2.459  11.983 -2.3794 -0.0367 -0.4351
54255SOL    HW268603   5.333   2.484  11.842 -0.9662  2.0649 -0.5721
54256SOL     OW68604   3.602   0.890   7.366  0.5886 -0.4525  0.1370
54256SOL    HW168605   3.627   0.947   7.293 -0.9686  0.7853  0.4977
54256SOL    HW268606   3.569   0.951   7.433  0.5392 -1.6689  1.2535
54257SOL     OW68607   9.705   8.690   4.123  0.3396 -0.7942  0.3455
54257SOL    HW168608   9.672   8.634   4.053  1.3380 -0.4356 -0.4457
54257SOL    HW268609   9.758   8.756   4.078 -0.7030  0.7262  1.2609
54258SOL     OW68610   8.240   3.870   3.932 -0.6363 -0.3103 -0.3720
54258SOL    HW168611   8.284   3.931   3.873  1.2175 -0.2098  1.0036
54258SOL    HW268612   8.294   3.792   3.932 -1.0757 -0.6372  0.5117
54259SOL     OW68613   6.603  10.457   4.302 -0.1659 -0.4539  0.0506
54259SOL    HW168614   6.692  10.428   4.282 -0.7219 -2.2542 -0.0286
54259SOL    HW268615   6.599  10.457   4.398  0.0995  0.3007  0.0710
54260SOL     OW68616   6.828   7.982   8.326 -0.0909  0.7442  0.6144
54260SOL    HW168617   6.908   8.011   8.369  0.4167  0.7422 -0.3135
54260SOL    HW268618   6.853   7.969   8.235 -0.0933 -3.1589  0.9934
54261SOL     OW68619  10.762   0.082  10.263 -0.3714  0.3250 -0.0324
54261SOL    HW168620  10.797   0.068  10.175  2.1050 -0.8296  1.0391
54261SOL    HW268621  10.809   0.158  10.296  0.5656 -0.7021  1.1124
54262SOL     OW68622   6.550  11.749   1.322  0.2729 -0.1518  0.1871
54262SOL    HW168623   6.525  11.672   1.271 -0.9428  0.0861  0.3914
54262SOL    HW268624   6.617  11.792   1.270  0.3443 -0.8900 -0.3384
54263SOL     OW68625   3.385   1.035   7.066 -0.5088  0.0275 -0.2135
54263SOL    HW168626   3.385   1.051   6.972  0.3909  1.0507 -0.0588
54263SOL    HW268627   3.472   1.064   7.096 -1.5026  1.6923  1.2508
54264SOL     OW68628   8.558  11.128   0.844  0.1245 -0.5134 -0.0426
54264SOL    HW168629   8.466  11.107   0.861 -0.5594  0.5600 -2.0966
54264SOL    HW268630   8.595  11.146   0.930 -1.8849  0.1660  0.7390
54265SOL     OW68631   9.297   5.863   3.651  0.4590  0.1046 -0.2738
54265SOL    HW168632   9.336   5.934   3.600  1.4408  1.5647  2.3407
54265SOL    HW268633   9.297   5.894   3.741 -0.2076 -2.7530  0.8395
54266SOL     OW68634   4.784   0.556   2.797 -0.1893 -0.4786 -0.3305
54266SOL    HW168635   4.833   0.631   2.831  0.1803 -0.5223 -0.7634
54266SOL    HW268636   4.848   0.504   2.749 -0.4684 -1.0147 -0.1398
54267SOL     OW68637   5.537   7.103   3.262 -0.2850 -0.5155 -0.8704
54267SOL    HW168638   5.561   7.175   3.204  0.5582 -0.1825 -0.1348
54267SOL    HW268639   5.445   7.086   3.243 -0.4545  0.6661 -1.1561
54268SOL     OW68640   6.103   0.908   2.023  0.6443  0.5760 -0.0291
54268SOL    HW168641   6.092   1.002   2.014 -1.5289  0.2548 -1.3309
54268SOL    HW268642   6.081   0.889   2.114 -1.3151  1.0838 -0.3545
54269SOL     OW68643  10.196   3.927   8.033 -0.0205  0.5453  0.1524
54269SOL    HW168644  10.170   4.017   8.053  0.6816  0.9796 -0.8383
54269SOL    HW268645  10.156   3.909   7.948 -1.3170 -0.5930  0.9521
54270SOL     OW68646  11.576   5.407   2.714  0.4915  0.4877 -0.4034
54270SOL    HW168647  11.523   5.445   2.644  1.3216 -0.8067 -1.8175
54270SOL    HW268648  11.514   5.386   2.783 -0.4817  1.0914 -1.0685
54271SOL     OW68649   2.506   5.105  10.876  0.3430 -0.1064  0.1441
54271SOL    HW168650   2.599   5.124  10.888  0.8606 -3.2414  2.2728
54271SOL    HW268651   2.464   5.191  10.871  2.9852  1.4645  2.4390
54272SOL     OW68652  10.954   1.791  10.028  0.2680  0.2884 -0.5065
54272SOL    HW168653  11.045   1.817  10.043  0.0405  1.7352 -1.4955
54272SOL    HW268654  10.933   1.734  10.102  2.2609 -0.8395 -0.7362
54273SOL     OW68655   9.525  12.047   0.981  0.7039 -0.0585 -0.2078
54273SOL    HW168656   9.578  11.995   0.920  0.8580 -0.5684  0.3578
54273SOL    HW268657   9.538  12.006   1.066  0.0614  0.3241  0.0838
54274SOL     OW68658   2.768  10.115   2.938  0.0184  0.1975 -0.0979
54274SOL    HW168659   2.853  10.072   2.944 -0.3938 -0.7076 -0.5306
54274SOL    HW268660   2.745  10.134   3.029  0.3664 -0.1992  0.0793
54275SOL     OW68661   5.181  10.798  11.604 -0.4339 -0.2419  0.1195
54275SOL    HW168662   5.093  10.825  11.576  0.0748  2.2606  0.7342
54275SOL    HW268663   5.178  10.803  11.699 -0.6823 -3.9258  0.4590
54276SOL     OW68664   4.984   0.100   1.445  0.1643 -0.0376  0.0507
54276SOL    HW168665   4.986   0.168   1.511 -0.5563  0.4861 -0.4576
54276SOL    HW268666   4.914   0.041   1.473  1.5134 -1.2131  1.0921
54277SOL     OW68667  10.159   0.446  10.432  0.1320 -0.0608 -0.0874
54277SOL    HW168668  10.089   0.416  10.490  0.1392 -1.3419 -0.7070
54277SOL    HW268669  10.208   0.509  10.485 -1.3088  0.6783  0.4489
54278SOL     OW68670   9.562   8.237   0.937 -0.1323 -0.6010  0.2898
54278SOL    HW168671   9.473   8.218   0.909  0.2548 -0.6179 -1.0188
54278SOL    HW268672   9.560   8.330   0.961 -1.0346 -1.1634  2.6306
54279SOL     OW68673   6.608   4.626   4.531 -0.3334  0.0880  0.5904
54279SOL    HW168674   6.672   4.555   4.536  0.4119  0.7574  0.8578
54279SOL    HW268675   6.655   4.703   4.563 -0.9027  0.8609 -0.3612
54280SOL     OW68676   9.859   9.474  11.323  0.4657 -0.0578 -0.1616
54280SOL    HW168677   9.862   9.535  11.397  1.8399  0.5455 -0.6899
54280SOL    HW268678   9.931   9.501  11.266 -0.7763 -0.2607 -1.9186
54281SOL     OW68679  11.666   5.215   0.382  0.3883  0.6130 -0.1342
54281SOL    HW168680  11.754   5.176   0.381 -0.1476 -0.6666  0.0352
54281SOL    HW268681  11.639   5.210   0.474 -0.8613 -1.4614 -0.5353
54282SOL     OW68682   3.269   9.496   1.708 -0.1220 -0.1003  0.0351
54282SOL    HW168683   3.338   9.436   1.738 -1.0921 -0.8425  0.8514
54282SOL    HW268684   3.268   9.566   1.772  3.3322  2.7924 -2.6697
54283SOL     OW68685   7.373  11.935  11.206  0.0937  0.1664  0.3126
54283SOL    HW168686   7.385  12.025  11.234 -3.4479  0.8040  0.2396
54283SOL    HW268687   7.430  11.883  11.263  0.6431  2.2419  1.7324
54284SOL     OW68688  11.955   7.397   5.868 -0.0162  0.5339  0.0385
54284SOL    HW168689  11.960   7.307   5.899  0.7613  1.4082  2.7545
54284SOL    HW268690  12.025   7.404   5.803 -1.0386 -1.1389 -1.3316
54285SOL     OW68691   4.860   2.761  11.593  0.7723  0.4692  0.3235
54285SOL    HW168692   4.822   2.717  11.517  2.0673  0.4547 -0.3340
54285SOL    HW268693   4.788   2.814  11.628  0.3610  1.1439 -1.4347
54286SOL     OW68694   0.195   6.848   5.482  0.1541  0.1805  0.2704
54286SOL    HW168695   0.101   6.869   5.483  0.1211  0.2268 -1.3564
54286SOL    HW268696   0.234   6.911   5.542 -0.6226  1.4379 -0.4939
54287SOL     OW68697  10.714   3.371   6.601 -0.2796 -0.1115 -0.5300
54287SOL    HW168698  10.776   3.361   6.674 -1.2417 -1.4390  0.1491
54287SOL    HW268699  10.769   3.371   6.523  0.6643 -0.0868  0.1178
54288SOL     OW68700   8.004   4.750   7.593  0.2829  0.2537 -0.2668
54288SOL    HW168701   7.991   4.837   7.631 -0.2399 -0.0290  0.2283
54288SOL    HW268702   7.958   4.691   7.654 -0.3647 -0.2428 -1.2176
54289SOL     OW68703   2.073   5.028  10.850 -0.0618 -0.5673  0.4799
54289SOL    HW168704   2.116   5.082  10.784 -0.5222 -1.1213 -0.2844
54289SOL    HW268705   1.989   5.004  10.811 -1.2911  0.8300  2.0983
54290SOL     OW68706   9.007   2.226   1.705 -0.4848 -0.1075  0.0473
54290SOL    HW168707   8.932   2.286   1.710  0.6529  1.6655 -2.4415
54290SOL    HW268708   9.080   2.276   1.740  0.2483 -0.4886 -0.9176
54291SOL     OW68709   8.210  11.628   3.583 -0.7581  0.3884  0.3544
54291SOL    HW168710   8.126  11.598   3.548 -1.1566  1.3598  0.4429
54291SOL    HW268711   8.249  11.550   3.623 -0.6354 -0.5818 -1.5463
54292SOL     OW68712   4.338   6.677   0.438 -0.4956 -0.0570  0.8219
54292SOL    HW168713   4.408   6.740   0.452 -0.2729 -0.2611  0.6290
54292SOL    HW268714   4.377   6.609   0.383 -1.1029  0.2928 -0.0671
54293SOL     OW68715  10.566   9.371   4.488  0.3749  0.0483 -0.5833
54293SOL    HW168716  10.608   9.425   4.555  1.9441 -0.5312 -1.0520
54293SOL    HW268717  10.634   9.357   4.422 -0.5388 -1.0321 -1.3482
54294SOL     OW68718   8.011  11.544   1.702 -0.2616  0.3498 -0.0704
54294SOL    HW168719   8.020  11.469   1.643 -1.7393  0.5260 -0.5533
54294SOL    HW268720   8.088  11.539   1.759  0.7143 -0.3857 -1.3783
54295SOL     OW68721   2.212   4.800   1.557  0.0365 -0.8137 -0.9690
54295SOL    HW168722   2.260   4.880   1.579 -1.1143 -0.3601 -0.0065
54295SOL    HW268723   2.204   4.803   1.461 -1.7094  1.3003 -0.8438
54296SOL     OW68724   0.295   8.031   6.607  0.3205  0.2352 -0.0558
54296SOL    HW168725   0.345   7.984   6.540 -0.0121 -0.9868  0.5079
54296SOL    HW268726   0.359   8.090   6.647  1.3661 -1.2502  0.6112
54297SOL     OW68727   9.123   5.841   6.995 -0.1668 -0.4248  0.5721
54297SOL    HW168728   9.152   5.924   6.957  0.3880 -1.1250 -0.5880
54297SOL    HW268729   9.139   5.851   7.089 -1.4300  1.2964  0.6526
54298SOL     OW68730   3.668  11.390   7.249  0.4448  0.2977  0.5036
54298SOL    HW168731   3.595  11.350   7.296 -1.0704 -0.2203 -2.0589
54298SOL    HW268732   3.729  11.318   7.233  0.0516  0.0406  0.1055
54299SOL     OW68733   3.361   9.695  11.307  0.2762  0.0814 -0.4503
54299SOL    HW168734   3.309   9.692  11.226 -2.0014  1.1817  0.8775
54299SOL    HW268735   3.316   9.636  11.367  1.7960 -0.5372  0.1337
54300SOL     OW68736   0.518   8.740  11.610  0.0430 -0.4502  0.4268
54300SOL    HW168737   0.564   8.708  11.532 -0.6008 -1.0701  0.2920
54300SOL    HW268738   0.574   8.810  11.644 -0.3127  0.7705 -1.3560
54301SOL     OW68739   3.120   0.470   3.646 -0.0260 -0.7941 -0.1116
54301SOL    HW168740   3.033   0.476   3.608  0.4149 -1.3980 -1.2834
54301SOL    HW268741   3.110   0.504   3.735 -1.1108  0.6116 -0.7345
54302SOL     OW68742   5.333   0.008   9.642  0.6545  0.5624 -0.0608
54302SOL    HW168743   5.372  -0.046   9.574  1.1988 -0.3089  0.9157
54302SOL    HW268744   5.379  -0.017   9.722 -0.2044  1.3109  0.6910
54303SOL     OW68745   5.282   3.596   7.640 -0.0081 -0.7139 -0.4425
54303SOL    HW168746   5.198   3.594   7.686 -0.1236  0.8662 -0.5328
54303SOL    HW268747   5.308   3.504   7.633 -0.8223 -1.1093  1.2336
54304SOL     OW68748   9.434   0.712   4.680  0.0276 -0.6678  0.0855
54304SOL    HW168749   9.516   0.758   4.663 -0.6829  0.8660  0.6793
54304SOL    HW268750   9.401   0.750   4.761 -2.4672  0.5105 -1.3527
54305SOL     OW68751  10.608  10.090  11.188  1.0785 -0.1160  0.4335
54305SOL    HW168752  10.521  10.050  11.198  0.3340  1.3299  0.0339
54305SOL    HW268753  10.629  10.122  11.276  0.6755  0.5290  0.3055
54306SOL     OW68754   3.111   8.013   7.467 -0.1295  0.2890  0.1407
54306SOL    HW168755   3.142   7.947   7.406  1.2441  0.8950  0.1467
54306SOL    HW268756   3.173   8.010   7.540 -1.6961 -0.3776  1.5173
54307SOL     OW68757   1.301   4.675   6.997 -0.1602  0.5445 -0.3088
54307SOL    HW168758   1.308   4.627   7.080  0.5934 -0.3406 -0.8668
54307SOL    HW268759   1.358   4.751   7.009 -0.1469  0.4861  0.0192
54308SOL     OW68760  11.307   9.841   6.355  0.0775  0.7204  0.0174
54308SOL    HW168761  11.239   9.903   6.331  0.2715  0.6270 -0.8169
54308SOL    HW268762  11.284   9.761   6.308  0.2264  0.3834  0.5081
54309SOL     OW68763   4.480   3.308   6.941  0.3318  0.2358  0.1290
54309SOL    HW168764   4.573   3.302   6.917 -0.1119 -0.5097 -1.5803
54309SOL    HW268765   4.435   3.262   6.871 -1.1961 -1.2642  1.9881
54310SOL     OW68766   4.064   8.953   3.844 -0.2739  0.5067 -0.1515
54310SOL    HW168767   4.150   8.933   3.806 -0.3494 -0.0256 -0.0550
54310SOL    HW268768   4.081   8.962   3.938 -0.2570  0.7938 -0.1831
54311SOL     OW68769   4.855   7.828   4.114 -0.1689 -0.7112 -0.4215
54311SOL    HW168770   4.939   7.873   4.115 -0.2822 -0.4859 -0.7151
54311SOL    HW268771   4.813   7.858   4.033  0.3663 -2.4972 -1.3980
54312SOL     OW68772   5.685   5.585  10.493 -0.5829  0.0489 -0.5231
54312SOL    HW168773   5.637   5.648  10.438  0.1951  0.0614 -1.2054
54312SOL    HW268774   5.775   5.617  10.493 -0.7473  0.6685  1.6791
54313SOL     OW68775   6.990   9.757   4.427 -0.1232  0.2819 -0.1199
54313SOL    HW168776   6.921   9.780   4.489  0.1866 -1.6962  1.0521
54313SOL    HW268777   7.063   9.814   4.449 -0.7191  1.0319 -0.0634
54314SOL     OW68778   0.578   8.019   5.149 -0.0767 -0.2880  0.5751
54314SOL    HW168779   0.600   8.069   5.071  0.4314 -0.3139  0.7012
54314SOL    HW268780   0.662   8.001   5.192 -0.3366 -0.3908  1.0563
54315SOL     OW68781   5.155   8.405   1.263 -0.2410  0.1829 -0.1715
54315SOL    HW168782   5.231   8.378   1.315  0.5415  1.2136 -0.7475
54315SOL    HW268783   5.083   8.407   1.325  0.5246  0.6667  0.7230
54316SOL     OW68784   8.957   0.707   4.925 -0.9156  0.5379 -0.0357
54316SOL    HW168785   8.873   0.740   4.894 -0.6879  1.1958  0.0293
54316SOL    HW268786   8.990   0.776   4.983 -0.1607  0.4567 -0.3553
54317SOL     OW68787   7.353  11.090  11.802 -0.6825  0.6686 -0.1294
54317SOL    HW168788   7.393  11.039  11.873 -0.1438  1.4229  0.1275
54317SOL    HW268789   7.260  11.095  11.824 -0.5581  0.6900  0.3995
54318SOL     OW68790   3.658   1.187  11.003 -1.0238  0.1477 -0.3698
54318SOL    HW168791   3.614   1.269  10.982 -2.1796 -0.3376  0.0722
54318SOL    HW268792   3.657   1.182  11.098  0.9232  0.5951 -0.2910
54319SOL     OW68793   3.630   1.499   2.484 -0.2050 -0.1861  0.7234
54319SOL    HW168794   3.558   1.437   2.477  0.7260 -1.2794  0.5443
54319SOL    HW268795   3.709   1.445   2.488  0.6739  0.9893  0.1290
54320SOL     OW68796   2.061   7.721   7.713 -0.0231  0.0835  0.0034
54320SOL    HW168797   1.996   7.764   7.656 -1.7543 -2.1139  0.1833
54320SOL    HW268798   2.014   7.705   7.795  1.1938 -0.3877  0.6369
54321SOL     OW68799   8.664   8.243   4.314  0.4867 -0.1344 -0.0773
54321SOL    HW168800   8.720   8.187   4.368  1.9997  0.5239 -0.9130
54321SOL    HW268801   8.649   8.321   4.367  0.2951 -0.3441  0.1795
54322SOL     OW68802   6.136   5.789  10.764 -0.7866  0.4874 -0.2144
54322SOL    HW168803   6.164   5.822  10.849  0.1979  0.8914 -0.6860
54322SOL    HW268804   6.112   5.868  10.714 -1.1527  0.2698 -0.3932
54323SOL     OW68805  11.458   4.071   3.616 -0.2590  0.2616  0.3859
54323SOL    HW168806  11.518   4.144   3.633 -0.5297  0.6280 -0.1963
54323SOL    HW268807  11.457   4.022   3.698  0.3812  0.5803  0.5946
54324SOL     OW68808   5.138   3.078   2.059 -0.0633 -0.3512 -0.0337
54324SOL    HW168809   5.046   3.049   2.056 -0.1746 -0.0286  0.2285
54324SOL    HW268810   5.146   3.139   1.986  0.0747 -0.7603 -0.3618
54325SOL     OW68811  10.406   6.665   6.547 -0.2429  0.2092 -0.2268
54325SOL    HW168812  10.457   6.661   6.628  1.3716  0.9419 -1.1480
54325SOL    HW268813  10.371   6.754   6.546  0.0020  0.3052 -0.4704
54326SOL     OW68814   5.491   4.348   8.910  0.7160 -0.1478  0.2310
54326SOL    HW168815   5.432   4.277   8.937  0.4448 -0.1785 -0.4419
54326SOL    HW268816   5.564   4.302   8.867 -0.1895  0.0593 -1.5739
54327SOL     OW68817   0.126   3.329   8.500 -0.6166  0.8568 -0.1175
54327SOL    HW168818   0.040   3.354   8.533  0.8798  3.2899  2.4106
54327SOL    HW268819   0.176   3.307   8.579  1.1471 -0.4118 -1.5034
54328SOL     OW68820   1.922   5.763   7.708  0.0340  0.0374  0.5303
54328SOL    HW168821   1.981   5.688   7.698  1.5443  0.8923  2.3377
54328SOL    HW268822   1.847   5.742   7.653  1.4253 -1.7291 -0.8055
54329SOL     OW68823   2.681  11.718   6.663 -0.1564 -0.3054  0.1054
54329SOL    HW168824   2.587  11.717   6.678 -0.0852 -2.1575  0.6702
54329SOL    HW268825   2.692  11.668   6.582  0.4531 -1.7255  1.0309
54330SOL     OW68826   4.054   2.964  10.446  0.1074  0.6138  0.0251
54330SOL    HW168827   4.017   2.935  10.362  0.5618  1.0324 -0.3226
54330SOL    HW268828   4.019   3.052  10.459 -0.3045  0.3861  0.4913
54331SOL     OW68829   8.443   3.993  10.782 -0.8214 -0.3965  0.3602
54331SOL    HW168830   8.481   4.070  10.741 -0.2898  0.1519  1.7898
54331SOL    HW268831   8.350   3.998  10.762 -0.4489 -0.7319 -1.6077
54332SOL     OW68832   6.333   7.885   1.419 -0.0471 -0.3852  0.2168
54332SOL    HW168833   6.367   7.974   1.425  0.0123 -0.2379 -1.7326
54332SOL    HW268834   6.406   7.829   1.445  0.7808  0.0468 -1.0930
54333SOL     OW68835   6.417   1.299   3.673 -0.0251  0.4905  0.2698
54333SOL    HW168836   6.470   1.244   3.616 -0.7536 -3.3516  2.9234
54333SOL    HW268837   6.470   1.311   3.751 -0.5242  2.3810  0.3695
54334SOL     OW68838   5.142  10.077   2.979  1.2329 -0.3734 -0.0861
54334SOL    HW168839   5.131  10.031   3.062 -0.3142  1.3433  0.7443
54334SOL    HW268840   5.054  10.106   2.956  1.4257 -1.8084 -3.0013
54335SOL     OW68841   5.047   2.558   3.430 -0.4400  0.9181 -0.1939
54335SOL    HW168842   4.989   2.589   3.361 -0.4305  2.1795  0.3458
54335SOL    HW268843   5.135   2.565   3.392 -0.4319  1.6466 -0.0557
54336SOL     OW68844   3.730   8.452  10.485  0.6984 -0.3064  0.2667
54336SOL    HW168845   3.734   8.394  10.562 -1.1871  0.6919  1.1819
54336SOL    HW268846   3.674   8.405  10.423 -0.9046  0.4808  1.0440
54337SOL     OW68847   8.841   1.958   3.833 -0.1651  0.5441  0.6416
54337SOL    HW168848   8.809   2.044   3.859 -0.3706  0.4723  0.6314
54337SOL    HW268849   8.935   1.962   3.845 -0.1026  0.9754  0.0513
54338SOL     OW68850   4.133   4.846   6.442  0.3078 -0.3265 -0.6441
54338SOL    HW168851   4.130   4.759   6.403  0.4462 -0.9610  0.7260
54338SOL    HW268852   4.211   4.887   6.403  1.4263 -1.5633  0.1895
54339SOL     OW68853  12.092   0.102   1.944 -0.1897  0.0677 -0.7688
54339SOL    HW168854  12.043   0.067   1.869  0.1500 -0.9020 -0.5443
54339SOL    HW268855  12.179   0.122   1.908 -0.0139 -0.4358 -0.6353
54340SOL     OW68856   2.282   0.548   6.741  0.1448  0.3582  0.2211
54340SOL    HW168857   2.358   0.500   6.708 -0.4241 -1.8603  1.8645
54340SOL    HW268858   2.206   0.498   6.709 -0.6828  2.2797 -1.0318
54341SOL     OW68859   6.150  11.300   6.240 -0.3373 -0.2602  0.7239
54341SOL    HW168860   6.119  11.215   6.271 -0.4716 -0.9862 -1.2952
54341SOL    HW268861   6.077  11.335   6.189  0.5671 -0.0134 -0.4282
54342SOL     OW68862   3.426   6.507   9.840 -0.0324  0.5370  0.5091
54342SOL    HW168863   3.451   6.580   9.783  0.0748  0.1644  0.0731
54342SOL    HW268864   3.333   6.521   9.858 -0.0125  0.7810  0.4259
54343SOL     OW68865   9.471   5.314   7.042 -0.0926 -0.0443 -0.2933
54343SOL    HW168866   9.417   5.260   7.099 -0.9956 -0.0517 -1.1117
54343SOL    HW268867   9.460   5.403   7.076  0.0987 -0.1673  0.0889
54344SOL     OW68868   6.300  11.632   8.780  0.0011 -0.3237 -0.2133
54344SOL    HW168869   6.332  11.554   8.825  1.4191 -0.8487 -2.0120
54344SOL    HW268870   6.354  11.703   8.815  0.8231 -0.6603 -0.7865
54345SOL     OW68871   2.623   6.012   9.074 -0.7543  0.0538 -0.1838
54345SOL    HW168872   2.611   5.948   9.003 -0.4302 -0.7020  0.4264
54345SOL    HW268873   2.603   5.963   9.154 -2.9675  1.3918  0.1603
54346SOL     OW68874   7.765   6.696   1.069  0.1828  0.0105 -0.0038
54346SOL    HW168875   7.803   6.696   0.981  0.4210  0.8553  0.0871
54346SOL    HW268876   7.671   6.685   1.055  0.3719 -1.3535 -0.2726
54347SOL     OW68877   0.550   0.817  11.642  0.4704 -0.2431 -0.2528
54347SOL    HW168878   0.529   0.863  11.723 -0.1585 -1.2395  0.1625
54347SOL    HW268879   0.517   0.874  11.572  0.0714  0.1259  0.2327
54348SOL     OW68880   0.188   5.568   2.340 -0.4016  0.4448  0.1998
54348SOL    HW168881   0.217   5.568   2.249  1.3733  0.2590  0.7272
54348SOL    HW268882   0.104   5.522   2.338 -0.0470 -0.2026 -1.2468
54349SOL     OW68883   4.143  12.028   6.697  0.3875 -0.2834 -0.0147
54349SOL    HW168884   4.101  12.095   6.644  0.6166  0.9619  1.2990
54349SOL    HW268885   4.089  12.022   6.776  2.6571  1.5740  1.8610
54350SOL     OW68886   9.362   2.029   7.625  0.1568  0.2299 -0.2214
54350SOL    HW168887   9.444   2.031   7.673 -0.0235  2.2422  0.0913
54350SOL    HW268888   9.295   2.013   7.692  0.2061 -0.5500 -0.3507
54351SOL     OW68889   6.641  10.969   4.398  0.0232 -0.3226  0.5087
54351SOL    HW168890   6.703  10.921   4.343  1.9300  3.3937 -1.0158
54351SOL    HW268891   6.558  10.964   4.350  1.5792  2.6957 -3.1028
54352SOL     OW68892   3.783   0.882   9.933 -0.9328 -0.2338  0.0082
54352SOL    HW168893   3.765   0.802   9.884 -1.1703  0.7588 -1.5854
54352SOL    HW268894   3.876   0.875   9.956 -0.8705 -0.8031 -0.3884
54353SOL     OW68895   2.631  10.089   1.445  0.3571  0.4877 -0.1597
54353SOL    HW168896   2.687  10.039   1.386  1.1195  1.2954 -0.1357
54353SOL    HW268897   2.674  10.174   1.453 -2.0607  2.0629 -2.0763
54354SOL     OW68898   0.416   3.290   1.759 -0.3946 -0.2245  0.6803
54354SOL    HW168899   0.440   3.380   1.782 -1.1759  0.3707 -0.6793
54354SOL    HW268900   0.327   3.279   1.793  0.1427 -0.9409  1.9325
54355SOL     OW68901   4.048   1.401   6.725 -0.0750 -0.1168  0.2252
54355SOL    HW168902   4.035   1.496   6.721 -0.9337 -0.1985  0.7867
54355SOL    HW268903   4.036   1.379   6.817 -1.2999 -0.9513 -0.1025
54356SOL     OW68904   0.319   7.638   2.865  0.4300  0.2861 -0.3186
54356SOL    HW168905   0.358   7.551   2.856 -0.8210 -0.1355 -2.3282
54356SOL    HW268906   0.329   7.677   2.778  0.5709  1.9972  0.4386
54357SOL     OW68907  11.384   7.056   8.756  0.6129 -0.4222  0.3337
54357SOL    HW168908  11.473   7.082   8.779  0.1093  0.9477  0.8942
54357SOL    HW268909  11.333   7.136   8.769 -0.2926 -0.4847 -2.3650
54358SOL     OW68910   6.906  12.226   6.802  0.6293 -0.0065  0.4243
54358SOL    HW168911   6.944  12.194   6.720 -0.6786 -0.9718  0.1641
54358SOL    HW268912   6.860  12.151   6.838 -0.9919  1.0688  0.7270
54359SOL     OW68913   3.781   5.189  11.717  0.0535  0.2703 -0.2246
54359SOL    HW168914   3.750   5.231  11.637 -0.8123  0.9641  0.4393
54359SOL    HW268915   3.811   5.262  11.772 -0.5476 -0.0497  0.5568
54360SOL     OW68916   2.092   4.688   6.460  0.2747 -0.1510 -0.6222
54360SOL    HW168917   2.013   4.640   6.436 -0.5503  0.4684  0.7905
54360SOL    HW268918   2.140   4.627   6.517 -1.1416  0.8648  1.8134
54361SOL     OW68919   7.266   2.464  10.221  0.4073  0.0304  0.2388
54361SOL    HW168920   7.204   2.418  10.165  0.6113  0.8056 -0.6597
54361SOL    HW268921   7.218   2.482  10.302 -0.0888 -0.5628  0.0808
54362SOL     OW68922   1.675  11.296   2.166 -0.4763 -0.5092  0.7327
54362SOL    HW168923   1.618  11.220   2.178 -1.0320 -0.5194 -1.4515
54362SOL    HW268924   1.742  11.267   2.105 -0.8087  0.7718 -0.3016
54363SOL     OW68925  10.316   9.764   9.050 -0.1735  0.2743 -0.6653
54363SOL    HW168926  10.272   9.683   9.023  0.8869 -0.3569 -0.5525
54363SOL    HW268927  10.389   9.735   9.104 -0.1374  1.3497 -0.1022
54364SOL     OW68928   5.349   5.519  11.206  0.1951  0.2471 -0.5324
54364SOL    HW168929   5.362   5.444  11.263 -0.7897  0.7630  0.4109
54364SOL    HW268930   5.417   5.510  11.138  1.5207 -0.2846  0.8109
54365SOL     OW68931   0.434   1.125   5.675  0.3392 -0.0258 -0.3299
54365SOL    HW168932   0.353   1.153   5.632 -1.5507 -2.0635  1.6592
54365SOL    HW268933   0.439   1.031   5.657  2.0438 -0.0277 -0.0087
54366SOL     OW68934  11.922   5.861   1.746  0.6509 -0.4269  0.4269
54366SOL    HW168935  11.991   5.833   1.806  0.2547  0.7774  1.4867
54366SOL    HW268936  11.889   5.943   1.783 -0.4835 -0.3106 -0.7481
54367SOL     OW68937  10.724  11.210   0.748 -0.8364 -0.1308  0.2538
54367SOL    HW168938  10.672  11.131   0.754 -1.3631  0.0248 -1.6237
54367SOL    HW268939  10.675  11.267   0.688  0.2994  0.9823  0.3305
54368SOL     OW68940  12.148   2.682   2.354  0.5484 -0.3582  0.0551
54368SOL    HW168941  12.166   2.608   2.411  1.5913 -0.8442 -0.8674
54368SOL    HW268942  12.142   2.758   2.413  2.2902 -0.7276  0.7662
54369SOL     OW68943  11.169   8.879   7.637 -0.6324 -0.3074 -0.3634
54369SOL    HW168944  11.122   8.806   7.598  1.4980 -1.3340 -1.1661
54369SOL    HW268945  11.217   8.919   7.565  2.7736 -1.7629  0.8593
54370SOL     OW68946   7.533   6.198   6.467 -0.5735  0.5123  0.1301
54370SOL    HW168947   7.471   6.128   6.487  0.7897 -1.6616 -2.5377
54370SOL    HW268948   7.605   6.154   6.423 -0.5943  3.7706 -3.8053
54371SOL     OW68949   0.440   9.789   5.018 -0.0002 -0.6354  0.3351
54371SOL    HW168950   0.504   9.782   4.947 -1.0259 -0.1470 -0.6743
54371SOL    HW268951   0.437   9.702   5.058  2.3296 -0.3061  1.3547
54372SOL     OW68952   4.043   0.229   2.386  0.4529  0.4198 -0.4834
54372SOL    HW168953   3.987   0.224   2.463  0.2448  0.2510 -0.6435
54372SOL    HW268954   4.057   0.138   2.360 -0.6854  0.4974 -1.5036
54373SOL     OW68955   3.450   2.063   3.628 -0.0336 -0.2052 -0.0736
54373SOL    HW168956   3.434   1.979   3.583  2.4444  1.2145 -4.1152
54373SOL    HW268957   3.531   2.049   3.676  3.4562  0.8692 -4.8901
54374SOL     OW68958   2.146   4.395   2.661 -0.2692 -0.1598 -0.1776
54374SOL    HW168959   2.191   4.316   2.631  2.6773  1.4689 -0.4429
54374SOL    HW268960   2.194   4.421   2.739 -1.7212  0.9489  0.3931
54375SOL     OW68961   5.781   0.553   7.679 -0.2698  0.1379 -0.0926
54375SOL    HW168962   5.776   0.492   7.605  1.2434 -1.4474  1.0187
54375SOL    HW268963   5.816   0.500   7.750 -1.8063  1.5739  1.8280
54376SOL     OW68964   8.953   5.001   2.509 -0.3078 -0.8257  0.0412
54376SOL    HW168965   8.865   5.035   2.528  0.0112 -0.0078  0.1084
54376SOL    HW268966   8.942   4.906   2.507 -1.5401 -0.6938 -1.6390
54377SOL     OW68967   2.799   8.641   0.658  0.0073 -0.4445 -0.6372
54377SOL    HW168968   2.738   8.710   0.685 -1.1701 -1.1784 -1.3137
54377SOL    HW268969   2.816   8.591   0.738 -0.2738 -0.2182 -0.4340
54378SOL     OW68970   4.319   4.348   3.606 -0.0785  0.5282 -0.2370
54378SOL    HW168971   4.382   4.348   3.534  1.6030 -2.0907  1.0753
54378SOL    HW268972   4.258   4.277   3.586 -0.2748  0.5143  0.3684
54379SOL     OW68973   8.391   7.659   2.359 -0.2319 -0.5079  0.8652
54379SOL    HW168974   8.297   7.672   2.353 -0.0092  0.9465  0.1753
54379SOL    HW268975   8.417   7.631   2.271  0.1256  0.2486  0.7207
54380SOL     OW68976   1.777   9.141   9.196 -0.2464 -0.2764  0.1615
54380SOL    HW168977   1.700   9.129   9.140  0.0303 -0.5153 -0.1702
54380SOL    HW268978   1.847   9.092   9.152  0.3568  0.7700 -0.0709
54381SOL     OW68979   0.200   3.202   1.196 -0.2638  0.2425  0.0866
54381SOL    HW168980   0.292   3.179   1.179 -0.5402 -0.1722 -0.9337
54381SOL    HW268981   0.204   3.259   1.273  0.9983  1.4165 -0.7879
54382SOL     OW68982   9.064   9.971   3.774  0.5588 -0.0764 -0.0533
54382SOL    HW168983   9.032   9.954   3.863 -1.4100 -0.0689 -0.7063
54382SOL    HW268984   9.070   9.884   3.734 -1.6787  0.0746 -0.8649
54383SOL     OW68985   8.286   8.419  10.512 -0.5538  0.1579  0.1784
54383SOL    HW168986   8.224   8.478  10.554 -0.3345  0.5360 -0.0227
54383SOL    HW268987   8.240   8.335  10.506 -1.4438  0.7050 -0.9564
54384SOL     OW68988   3.392  10.886   3.542  0.1588 -0.4963  0.3472
54384SOL    HW168989   3.412  10.806   3.493  2.0777 -0.4986  1.0441
54384SOL    HW268990   3.378  10.856   3.632  1.0864 -0.0666  0.6541
54385SOL     OW68991   3.630  12.215   3.874 -0.9352 -0.0726 -0.1978
54385SOL    HW168992   3.669  12.280   3.933 -2.7111  0.5516  0.3734
54385SOL    HW268993   3.671  12.231   3.789  0.4340  0.1493  0.4855
54386SOL     OW68994  11.478   8.828   3.102 -0.7043 -0.0150  1.1755
54386SOL    HW168995  11.392   8.789   3.087 -1.0951 -0.1655  3.4222
54386SOL    HW268996  11.465   8.921   3.088 -0.8377 -0.1948  0.0142
54387SOL     OW68997   1.021   9.200   4.820 -0.4592  0.3973 -0.3989
54387SOL    HW168998   1.082   9.146   4.870 -0.5626 -0.2053 -0.9026
54387SOL    HW268999   1.059   9.288   4.821  1.9135 -0.4632 -3.0043
54388SOL     OW69000   5.637  11.906   6.420 -0.2618  0.0029 -0.4241
54388SOL    HW169001   5.672  11.843   6.482  3.0826  0.2483 -1.8809
54388SOL    HW269002   5.561  11.862   6.381  0.5359 -2.1098  0.3066
54389SOL     OW69003  10.934   5.695   5.423 -0.2618 -0.6636  0.4916
54389SOL    HW169004  10.857   5.660   5.377  0.2284  0.5842 -1.4005
54389SOL    HW269005  10.897   5.746   5.495 -1.4038  1.4084 -1.4167
54390SOL     OW69006   4.002   5.238   4.882 -0.3498 -0.5188 -0.5055
54390SOL    HW169007   4.029   5.322   4.845 -1.2001 -0.2774 -0.5993
54390SOL    HW269008   3.906   5.241   4.881 -0.3988 -0.9164  0.7694
54391SOL     OW69009   5.289   4.469  11.409 -0.3274 -0.4175  0.1950
54391SOL    HW169010   5.367   4.523  11.422  0.8532 -1.6511 -1.2755
54391SOL    HW269011   5.237   4.517  11.344  0.6255 -0.9178 -0.9688
54392SOL     OW69012   3.882   3.853  11.667 -0.2726 -0.1868  0.0236
54392SOL    HW169013   3.946   3.907  11.714  1.1574  1.1247 -3.1533
54392SOL    HW269014   3.816   3.915  11.638 -1.3644 -1.0479  0.5937
54393SOL     OW69015   5.891  11.904   1.592  0.4508  0.6317 -0.1017
54393SOL    HW169016   5.955  11.975   1.589 -1.1535  2.1165 -0.9861
54393SOL    HW269017   5.808  11.945   1.568 -0.6327 -1.4626 -0.2001
54394SOL     OW69018   1.152   6.743   6.766  0.1606 -0.6323  0.3828
54394SOL    HW169019   1.202   6.662   6.766 -0.1120 -0.8021  0.4631
54394SOL    HW269020   1.134   6.760   6.673 -1.5274 -1.7583  0.4689
54395SOL     OW69021   2.585   5.227   1.392 -0.6506  0.5223 -0.1130
54395SOL    HW169022   2.614   5.158   1.452 -2.3207  1.5169  2.0074
54395SOL    HW269023   2.605   5.309   1.438  0.6848  1.4850 -2.2682
54396SOL     OW69024   3.230  11.522   7.999 -0.4534 -0.3545  0.2138
54396SOL    HW169025   3.279  11.603   7.988  1.0608 -1.2815 -0.2457
54396SOL    HW269026   3.147  11.537   7.953  0.3886  0.4417 -1.1107
54397SOL     OW69027   9.111   3.794   5.315 -0.7949  0.1544 -0.2038
54397SOL    HW169028   9.178   3.770   5.379  0.1556  1.7798 -0.5457
54397SOL    HW269029   9.136   3.748   5.235  1.2396  2.4028 -0.9727
54398SOL     OW69030  12.149   7.452   8.068  0.3038 -0.3995 -0.1123
54398SOL    HW169031  12.119   7.542   8.075  1.6892 -0.0171  2.2140
54398SOL    HW269032  12.079   7.400   8.108 -0.2382 -0.3188 -0.9306
54399SOL     OW69033   1.038   7.776   6.634  0.1635  0.0883 -0.1692
54399SOL    HW169034   0.991   7.860   6.632  0.8646  0.4815 -0.9558
54399SOL    HW269035   1.103   7.787   6.703 -0.4292 -0.1953  0.4372
54400SOL     OW69036   2.349  10.725   1.172 -0.4679 -0.2482 -0.5692
54400SOL    HW169037   2.357  10.805   1.119  3.0468  0.5577  0.9125
54400SOL    HW269038   2.342  10.756   1.262  2.4550 -1.4448  0.1988
54401SOL     OW69039   6.845   6.310  11.896 -0.1754 -0.6996  0.7013
54401SOL    HW169040   6.755   6.314  11.928 -0.6557  0.1355 -0.6691
54401SOL    HW269041   6.839   6.264  11.812  0.3719  0.9625 -0.3007
54402SOL     OW69042   8.014   4.923  12.291  0.0628 -0.5105 -0.6617
54402SOL    HW169043   8.004   4.998  12.350  0.3341 -0.5864 -0.5167
54402SOL    HW269044   7.926   4.887  12.283 -0.3651  0.7248 -1.9259
54403SOL     OW69045   0.231   0.382  11.408 -0.1063  0.2245  0.1052
54403SOL    HW169046   0.288   0.329  11.464 -0.1330  1.4192  1.3144
54403SOL    HW269047   0.144   0.371  11.445 -0.2186  0.5778 -0.0496
54404SOL     OW69048   3.401   0.092   6.105 -0.3337 -0.6254  0.3447
54404SOL    HW169049   3.333   0.159   6.108 -0.6153 -0.6710 -2.4359
54404SOL    HW269050   3.428   0.081   6.197 -0.1142  3.4096  0.9656
54405SOL     OW69051   3.680   3.396  11.236 -0.2872  0.0778 -0.3137
54405SOL    HW169052   3.722   3.441  11.309 -2.4255  1.3209  0.2429
54405SOL    HW269053   3.670   3.463  11.169 -0.2902 -0.5020 -0.9060
54406SOL     OW69054   1.002   6.631   0.944  0.0463 -0.5806  0.3986
54406SOL    HW169055   1.035   6.568   0.880 -1.2878 -0.4030 -0.5118
54406SOL    HW269056   0.956   6.577   1.009  0.0567 -0.6508  0.3484
54407SOL     OW69057  11.805  12.294  10.503  0.5300  0.1797 -0.4006
54407SOL    HW169058  11.895  12.275  10.531  0.4193  0.6177  0.2679
54407SOL    HW269059  11.812  12.375  10.453  0.4984  0.2633 -0.2711
54408SOL     OW69060   3.155  10.491   5.812 -0.3658  0.2469  0.0495
54408SOL    HW169061   3.222  10.477   5.746 -1.0987 -0.5793 -0.5570
54408SOL    HW269062   3.193  10.553   5.873  0.0114  1.7211 -1.6177
54409SOL     OW69063   8.092   5.102   4.848 -0.2395 -0.0272 -0.3068
54409SOL    HW169064   8.106   5.194   4.827 -0.2118 -0.2400 -1.2999
54409SOL    HW269065   8.011   5.100   4.898  0.0693  0.5928  0.2190
54410SOL     OW69066   7.238  11.844   8.838  0.0257 -0.0584  0.0038
54410SOL    HW169067   7.212  11.884   8.756  0.0547 -0.6505 -0.3020
54410SOL    HW269068   7.296  11.772   8.812 -0.7293 -0.8498  0.4822
54411SOL     OW69069   7.998   8.885   6.446  0.1189 -0.2516 -0.7503
54411SOL    HW169070   7.904   8.879   6.460  0.3054 -0.3899  0.5397
54411SOL    HW269071   8.033   8.803   6.482  0.9305  0.7108  0.7557
54412SOL     OW69072   3.976   8.265   4.854 -0.4304  0.4570 -0.2255
54412SOL    HW169073   3.954   8.172   4.849 -0.9180  0.5816 -0.5057
54412SOL    HW269074   4.018   8.275   4.939 -0.1446 -0.0674 -0.3035
54413SOL     OW69075   3.015   3.622   7.869 -0.1951  0.2295  0.3850
54413SOL    HW169076   3.101   3.645   7.834 -0.6548 -0.4243 -1.2407
54413SOL    HW269077   2.956   3.630   7.795 -1.3489 -0.4257  1.2114
54414SOL     OW69078   6.531   5.164   5.872  0.3405 -0.2162 -0.3676
54414SOL    HW169079   6.531   5.166   5.967  0.9311 -0.6425 -0.3576
54414SOL    HW269080   6.511   5.254   5.846  2.1535  0.3736  0.1501
54415SOL     OW69081  11.186   1.063   6.856 -0.6327  0.3103 -0.1553
54415SOL    HW169082  11.236   1.038   6.778 -0.9479 -0.8485 -0.0051
54415SOL    HW269083  11.193   1.158   6.860  1.3267  0.2055 -0.2990
54416SOL     OW69084   3.991   3.064   0.496  0.5822  0.5286 -0.2753
54416SOL    HW169085   4.031   3.066   0.583 -2.3596 -0.0711  1.2098
54416SOL    HW269086   3.981   2.971   0.476 -0.9949  0.6369 -0.0962
54417SOL     OW69087   6.995   8.075   5.644 -0.2045  0.9545  0.6679
54417SOL    HW169088   6.972   8.168   5.654  1.0894  1.1326  2.6617
54417SOL    HW269089   7.083   8.069   5.680 -0.5589 -1.1752  1.3057
54418SOL     OW69090   7.639   0.232   9.679  0.1273  0.6598 -0.1383
54418SOL    HW169091   7.660   0.259   9.769 -0.8027  0.6346  0.0911
54418SOL    HW269092   7.724   0.209   9.641  0.3139 -1.8077  1.5212
54419SOL     OW69093   1.122   6.530   7.731  0.2362  0.7650  0.5913
54419SOL    HW169094   1.049   6.585   7.703  0.3815 -0.1004 -1.6684
54419SOL    HW269095   1.182   6.531   7.657  1.8701  0.2932  1.8506
54420SOL     OW69096   9.659  10.600   5.975 -0.2231  0.1693  0.7251
54420SOL    HW169097   9.587  10.538   5.967 -0.6030  0.5630  0.9884
54420SOL    HW269098   9.698  10.580   6.061 -1.0713  1.0287  1.3348
54421SOL     OW69099   2.481  11.315  11.489 -0.1612  0.0273  0.2122
54421SOL    HW169100   2.483  11.308  11.394 -0.3654  0.5389  0.1637
54421SOL    HW269101   2.393  11.283  11.513 -0.4615  0.7794  0.1402
54422SOL     OW69102  12.215   7.182   3.530 -0.4425 -0.2060 -0.7398
54422SOL    HW169103  12.246   7.258   3.579  0.6748 -0.7928 -0.5241
54422SOL    HW269104  12.168   7.129   3.594  0.4837 -0.6634 -0.4220
54423SOL     OW69105  10.047   1.651   1.498 -0.3685  0.2999 -0.3993
54423SOL    HW169106   9.962   1.609   1.514 -0.4533  0.2931 -0.8613
54423SOL    HW269107  10.065   1.634   1.406 -0.0778  0.6957 -0.4170
54424SOL     OW69108   1.301   2.669  10.762 -0.5392  0.2072 -0.8018
54424SOL    HW169109   1.290   2.710  10.676 -1.1455  0.4688 -0.6049
54424SOL    HW269110   1.354   2.591  10.745  1.5579  1.5965 -1.0344
54425SOL     OW69111   5.440  11.244   5.807 -0.4016 -0.5685  0.5717
54425SOL    HW169112   5.359  11.293   5.820  0.7011  1.0791  1.7110
54425SOL    HW269113   5.459  11.253   5.714 -1.5015 -0.9599  0.2972
54426SOL     OW69114   1.176   2.328  10.680  0.1264 -0.2361  0.3671
54426SOL    HW169115   1.247   2.371  10.726 -0.1219  1.6580 -0.9137
54426SOL    HW269116   1.098   2.379  10.702 -0.2265 -0.1538 -0.9646
54427SOL     OW69117   5.621   2.264   8.646  0.1410  0.9622  0.0994
54427SOL    HW169118   5.543   2.310   8.617 -0.1244  0.4073 -0.0821
54427SOL    HW269119   5.654   2.317   8.719 -0.1726  1.4151 -0.0836
54428SOL     OW69120   6.450  11.247   1.199  0.1347 -0.4124  0.5508
54428SOL    HW169121   6.375  11.199   1.235  1.0039 -1.7689  0.6570
54428SOL    HW269122   6.434  11.249   1.104  0.3068 -1.3640  0.4896
54429SOL     OW69123   6.980   2.130   7.528 -0.3861  0.5611 -0.5873
54429SOL    HW169124   6.979   2.078   7.447 -0.4202 -2.1709  1.0364
54429SOL    HW269125   6.888   2.149   7.545 -0.7608 -1.7225  0.3979
54430SOL     OW69126   4.204   8.413   6.812 -0.5628 -0.1657  0.0591
54430SOL    HW169127   4.205   8.339   6.751 -0.6891 -0.5685  0.5393
54430SOL    HW269128   4.197   8.491   6.756 -1.7738 -0.5848 -0.4082
54431SOL     OW69129   4.267  10.854  12.244 -0.2836  0.3968 -0.2076
54431SOL    HW169130   4.255  10.828  12.335  1.0442  0.6093  0.0359
54431SOL    HW269131   4.313  10.780  12.204  0.8220  1.0792 -0.2366
54432SOL     OW69132   1.945   2.868   0.058  0.5578 -0.4352  0.5027
54432SOL    HW169133   1.886   2.926   0.010  1.1715 -0.2631 -0.0713
54432SOL    HW269134   2.032   2.887   0.020  1.0619 -0.2900  1.6905
54433SOL     OW69135  11.531   0.991   0.012 -0.1535 -0.0249  0.1413
54433SOL    HW169136  11.516   0.928   0.083 -0.2671  0.2544  0.3651
54433SOL    HW269137  11.525   1.077   0.054 -1.5918  0.1889 -0.4461
54434SOL     OW69138  11.463   7.075   1.883  0.2515 -0.0485  0.1322
54434SOL    HW169139  11.402   7.039   1.819  0.8860 -0.2226 -0.3822
54434SOL    HW269140  11.524   7.004   1.902  1.8858  0.8811 -1.3463
54435SOL     OW69141   8.215   4.539   9.243 -0.6270  0.0503  0.2108
54435SOL    HW169142   8.271   4.617   9.246 -0.7098  0.1123  0.1667
54435SOL    HW269143   8.173   4.537   9.329 -0.7671  0.1611  0.1455
54436SOL     OW69144   6.712   8.031   3.795  0.1114 -0.0658  0.4334
54436SOL    HW169145   6.757   7.951   3.770  1.3164  0.8147 -0.3381
54436SOL    HW269146   6.770   8.102   3.765  0.3156  1.1003  3.2766
54437SOL     OW69147  12.046   0.130   9.947 -0.1165 -0.3644 -0.0354
54437SOL    HW169148  12.087   0.062   9.895 -0.5746 -1.6773  1.2349
54437SOL    HW269149  12.113   0.157  10.010 -0.3594 -0.6608  0.3609
54438SOL     OW69150   8.689   4.880   3.687  0.1080 -0.2219 -0.3915
54438SOL    HW169151   8.697   4.804   3.630  0.3617 -0.2680 -0.2994
54438SOL    HW269152   8.763   4.872   3.748 -0.4574 -0.4626  0.2820
54439SOL     OW69153   0.217  10.518  10.169 -0.5987 -0.4820  0.2991
54439SOL    HW169154   0.147  10.563  10.217 -2.3490 -0.0865 -2.3959
54439SOL    HW269155   0.286  10.583  10.158 -1.1338  0.1112  0.3947
54440SOL     OW69156   6.620  10.220   0.239  0.5420  0.1200  0.2184
54440SOL    HW169157   6.619  10.271   0.320 -1.5937 -1.3574  1.2197
54440SOL    HW269158   6.555  10.262   0.183  2.3963  1.4652 -1.0352
54441SOL     OW69159  12.001   0.943   8.633  0.0025 -0.2413 -0.0528
54441SOL    HW169160  11.956   1.019   8.596 -2.1982 -1.2855  0.3302
54441SOL    HW269161  11.936   0.901   8.689  1.2156 -2.3047 -0.0786
54442SOL     OW69162   3.495   5.025   0.585  0.3114 -0.3928  0.3262
54442SOL    HW169163   3.457   5.062   0.665  0.2085 -0.0148  0.1025
54442SOL    HW269164   3.460   4.935   0.582 -1.8971  0.4194 -0.6946
54443SOL     OW69165  11.449   8.845   9.735  0.8043 -0.7534 -0.1674
54443SOL    HW169166  11.483   8.764   9.696 -0.3174 -0.6547 -1.4530
54443SOL    HW269167  11.487   8.915   9.682  1.5909 -0.4246  0.8011
54444SOL     OW69168   2.839   5.783   3.918 -0.5119 -0.3146 -0.1666
54444SOL    HW169169   2.804   5.704   3.960 -0.9774 -0.2923 -0.5091
54444SOL    HW269170   2.779   5.853   3.945 -0.3054 -0.1418 -0.1524
54445SOL     OW69171   4.423   2.947   7.907 -0.3473 -0.3489 -0.2868
54445SOL    HW169172   4.424   2.876   7.972  1.4818 -0.0121  0.1117
54445SOL    HW269173   4.468   2.910   7.831 -1.0772 -0.2154 -0.7970
54446SOL     OW69174   5.050   9.835   2.358  0.2495  0.3095  0.3205
54446SOL    HW169175   5.007   9.816   2.442 -1.6543 -0.8641 -0.8562
54446SOL    HW269176   5.115   9.902   2.380 -1.3501  1.2988  2.4305
54447SOL     OW69177  11.188  11.418   3.847  0.1003 -0.1744  0.5773
54447SOL    HW169178  11.134  11.346   3.815  0.0531  0.5677 -1.1458
54447SOL    HW269179  11.148  11.496   3.809  2.7415  0.3426 -1.4626
54448SOL     OW69180   0.985   3.392   4.316  0.3115 -0.1170  0.2087
54448SOL    HW169181   0.963   3.345   4.235  1.2465 -0.4845  0.1593
54448SOL    HW269182   1.020   3.325   4.374  0.0837  0.2332  0.7619
54449SOL     OW69183  12.169   0.900   7.655 -0.4084 -0.3900  0.0221
54449SOL    HW169184  12.247   0.921   7.604 -1.0680 -1.9477 -1.7333
54449SOL    HW269185  12.204   0.862   7.736  0.6705 -0.8078 -0.6171
54450SOL     OW69186   2.673   6.828  10.082  0.1585  0.0209  0.0937
54450SOL    HW169187   2.677   6.875  10.165  1.2876  0.2184 -0.0643
54450SOL    HW269188   2.667   6.897  10.016  2.8872  0.0478 -0.2152
54451SOL     OW69189  11.705   3.936   4.598 -0.0312  0.1007 -0.1399
54451SOL    HW169190  11.620   3.893   4.586 -0.1012  0.3980 -0.7843
54451SOL    HW269191  11.694   3.988   4.677 -0.2262 -0.4000  0.1648
54452SOL     OW69192   8.230   9.440   1.912  0.2804  0.4149  0.0466
54452SOL    HW169193   8.306   9.479   1.954  0.5464 -0.4638  0.3946
54452SOL    HW269194   8.194   9.511   1.857  1.4453  0.7809 -0.2680
54453SOL     OW69195   1.345  10.418   6.580  0.0745 -0.5999 -0.0061
54453SOL    HW169196   1.422  10.444   6.529 -1.4294  1.8758 -1.2385
54453SOL    HW269197   1.277  10.403   6.514 -0.6038 -2.4761  1.0597
54454SOL     OW69198  10.107   4.265   0.928  0.1360  0.3454 -0.2120
54454SOL    HW169199  10.160   4.331   0.885 -0.9125 -0.0815 -2.3106
54454SOL    HW269200  10.019   4.302   0.929  0.2523  0.7641  2.6059
54455SOL     OW69201   4.553   9.428   0.502  0.0608 -0.2181 -0.2125
54455SOL    HW169202   4.633   9.450   0.455  0.6165 -2.1606 -0.2865
54455SOL    HW269203   4.483   9.469   0.452  0.9471  1.0417 -0.4610
54456SOL     OW69204   7.641   5.838   9.543  0.1483 -0.9859  0.0888
54456SOL    HW169205   7.629   5.885   9.460  0.7420  0.9242  1.0160
54456SOL    HW269206   7.574   5.770   9.542 -1.3542  0.4273 -0.9745
54457SOL     OW69207   2.869   5.801   9.291  0.2652  0.3255 -0.3587
54457SOL    HW169208   2.909   5.717   9.272  1.2769  0.4713  0.9769
54457SOL    HW269209   2.791   5.804   9.235  0.7939 -1.0168 -1.2099
54458SOL     OW69210   0.185   7.610   2.143 -0.2336 -0.5654  0.2469
54458SOL    HW169211   0.100   7.571   2.164 -1.3014  1.4649 -0.0262
54458SOL    HW269212   0.224   7.550   2.081 -1.1418 -1.9256  0.9412
54459SOL     OW69213   5.901   8.228   8.834 -0.5981 -0.2323  0.4536
54459SOL    HW169214   5.896   8.215   8.928 -2.2269 -1.4389  0.2498
54459SOL    HW269215   5.967   8.166   8.804 -1.0797 -0.8482  0.6557
54460SOL     OW69216  10.540   6.141  10.420  0.3109  0.3347  0.0012
54460SOL    HW169217  10.601   6.071  10.440  1.0125  0.2469 -2.1975
54460SOL    HW269218  10.456   6.110  10.453  0.9550 -0.6764  0.7544
54461SOL     OW69219   5.948   3.853   7.226  0.1812  0.0332 -0.4378
54461SOL    HW169220   6.026   3.828   7.177 -0.3306  0.9064 -1.7624
54461SOL    HW269221   5.975   3.851   7.318  1.6554 -0.0015 -0.8507
54462SOL     OW69222   2.445   0.571   9.188  0.1395 -0.4799  0.3847
54462SOL    HW169223   2.470   0.575   9.096  1.3017 -0.1541  0.7067
54462SOL    HW269224   2.477   0.486   9.218  0.5100 -0.2348  0.6964
54463SOL     OW69225   9.924   5.900   0.128  0.0992 -0.6172  0.1776
54463SOL    HW169226   9.881   5.929   0.208  0.7029  1.4520 -0.1906
54463SOL    HW269227   9.854   5.892   0.064 -0.1376 -0.4123  0.4107
54464SOL     OW69228  11.615   6.542   7.579 -0.8457 -0.1726 -0.1359
54464SOL    HW169229  11.559   6.594   7.522  2.1872  2.0335 -1.3379
54464SOL    HW269230  11.654   6.476   7.522 -1.1235 -0.8276  0.4046
54465SOL     OW69231   3.432   3.852   0.669  0.1549 -0.2958  0.0763
54465SOL    HW169232   3.471   3.871   0.584  0.5318 -0.5769  0.1822
54465SOL    HW269233   3.345   3.818   0.648  0.0241  0.1863 -0.1690
54466SOL     OW69234   1.679   7.841   2.790 -0.1526 -0.3251 -0.1296
54466SOL    HW169235   1.647   7.931   2.801 -2.6069 -1.2594  0.9776
54466SOL    HW269236   1.759   7.851   2.738  0.3958  2.5982  1.0753
54467SOL     OW69237   3.360   2.509   7.532  0.5391 -0.3955  0.3728
54467SOL    HW169238   3.370   2.604   7.531 -0.5870 -0.2644  0.5708
54467SOL    HW269239   3.326   2.487   7.445  0.4474 -0.5730  0.4527
54468SOL     OW69240   6.924   3.545   8.722  0.1422 -0.0418  0.2254
54468SOL    HW169241   6.884   3.461   8.702 -0.0441  0.0339  0.2755
54468SOL    HW269242   7.018   3.526   8.730  0.1601 -0.1564 -0.2359
54469SOL     OW69243   3.616   6.375   1.782 -0.2242 -0.0198  0.6251
54469SOL    HW169244   3.587   6.308   1.843 -0.7008  0.3633  0.8282
54469SOL    HW269245   3.573   6.353   1.699 -1.3411  0.6949  0.9914
54470SOL     OW69246   0.210  11.864   4.604  0.0511 -0.5407  0.8482
54470SOL    HW169247   0.201  11.888   4.512  0.5332 -0.2127  0.8795
54470SOL    HW269248   0.141  11.913   4.649  2.3974  2.7673  1.2384
54471SOL     OW69249   9.478   8.344   4.873  0.1662 -0.5517  0.2039
54471SOL    HW169250   9.524   8.398   4.938 -0.9080  0.3947  0.2038
54471SOL    HW269251   9.463   8.403   4.799 -0.0210 -1.1784 -0.2691
54472SOL     OW69252   1.914   6.464   3.555  0.2833  0.2286  0.0185
54472SOL    HW169253   1.884   6.548   3.519  0.5902  0.0554 -0.6562
54472SOL    HW269254   2.008   6.477   3.571 -0.2819  1.1818  3.2919
54473SOL     OW69255   9.167   9.043   1.335  0.1144 -0.4248 -0.3461
54473SOL    HW169256   9.080   9.079   1.319  0.5890  0.4562 -1.0216
54473SOL    HW269257   9.222   9.080   1.266  1.3950  0.4273  1.0692
54474SOL     OW69258  11.336   3.486   7.533 -0.2425  0.1703 -0.3490
54474SOL    HW169259  11.349   3.568   7.579  1.1915  0.6403 -1.4836
54474SOL    HW269260  11.404   3.486   7.465 -1.2323 -1.2132 -1.4069
54475SOL     OW69261   3.252   0.935   3.882 -0.2511  0.0053 -0.4431
54475SOL    HW169262   3.333   0.888   3.863  0.0468  0.5326 -0.4918
54475SOL    HW269263   3.227   0.975   3.799 -0.6714 -0.3117 -0.4751
54476SOL     OW69264   1.145   4.449   2.623 -0.3109  0.0030 -0.0149
54476SOL    HW169265   1.071   4.404   2.662 -0.6076  1.4011  1.1300
54476SOL    HW269266   1.196   4.482   2.697 -1.0076  2.9190 -0.6990
54477SOL     OW69267   4.228   1.664   4.989 -0.0569 -0.4333  0.0916
54477SOL    HW169268   4.315   1.702   4.996 -0.9375  1.7503 -0.0714
54477SOL    HW269269   4.169   1.733   5.018 -1.7915 -1.6008 -0.4812
54478SOL     OW69270   9.395   3.541   6.024  0.2644 -0.7762  0.3732
54478SOL    HW169271   9.392   3.632   6.054 -1.1123 -0.8476  0.5203
54478SOL    HW269272   9.414   3.547   5.931  1.8783 -0.4288  0.7005
54479SOL     OW69273  10.246  11.257   7.764  0.1408 -0.1851 -0.1815
54479SOL    HW169274  10.287  11.322   7.707  1.3551 -1.0246 -0.3076
54479SOL    HW269275  10.280  11.173   7.732 -1.9694 -0.9749 -0.5097
54480SOL     OW69276   5.292   5.194   3.394  0.0591  0.4442  0.6386
54480SOL    HW169277   5.316   5.107   3.428  1.5989  0.6816  0.2274
54480SOL    HW269278   5.210   5.179   3.347  1.0043 -1.0933 -0.6098
54481SOL     OW69279   3.258   6.952  11.257  0.1482 -0.0723 -0.0334
54481SOL    HW169280   3.170   6.916  11.272  0.5299 -0.5875  1.1170
54481SOL    HW269281   3.284   6.916  11.173 -1.1259  0.8955 -0.8852
54482SOL     OW69282   8.829  10.975   8.916 -0.5644 -0.1823 -0.0589
54482SOL    HW169283   8.747  11.012   8.950 -0.7558 -0.2799 -0.4057
54482SOL    HW269284   8.809  10.883   8.901 -0.7994  0.0609 -1.3761
54483SOL     OW69285   2.701   8.171   9.485 -0.2940  0.0746  0.8946
54483SOL    HW169286   2.774   8.114   9.511  0.7771  1.0069  0.0557
54483SOL    HW269287   2.705   8.244   9.547 -0.7780 -0.0638  1.0943
54484SOL     OW69288   2.371   3.469   7.264  0.1214  0.0490  0.4970
54484SOL    HW169289   2.452   3.498   7.306  1.0278 -1.7054  0.0541
54484SOL    HW269290   2.400   3.406   7.198 -1.5925 -0.4128  0.1452
54485SOL     OW69291   8.586   4.892   2.125 -0.2623 -0.3549 -0.2042
54485SOL    HW169292   8.629   4.847   2.198 -0.6760  0.3052  0.4606
54485SOL    HW269293   8.493   4.884   2.143 -0.3698 -0.3114 -0.7371
54486SOL     OW69294   9.761  10.864   7.888  0.0301  0.4877  0.0267
54486SOL    HW169295   9.841  10.868   7.835  0.5813  0.9128  0.8635
54486SOL    HW269296   9.765  10.779   7.931  0.7613  1.0658  1.1486
54487SOL     OW69297   4.054   0.746   5.311  0.0248  0.1304 -0.0875
54487SOL    HW169298   4.008   0.829   5.301  1.2980  0.7821 -0.7595
54487SOL    HW269299   4.001   0.697   5.374 -2.3181  0.2679 -1.8081
54488SOL     OW69300   2.516  11.704   1.714 -0.0188  0.1350 -0.4741
54488SOL    HW169301   2.505  11.678   1.806  0.8865 -1.4441 -0.7690
54488SOL    HW269302   2.452  11.774   1.701 -1.0177 -0.4437  1.0289
54489SOL     OW69303   7.675   2.626   2.474  0.0411  0.1196 -0.0345
54489SOL    HW169304   7.678   2.573   2.554  1.2706 -0.1417 -0.2261
54489SOL    HW269305   7.679   2.561   2.403 -2.4597  0.2480 -0.3845
54490SOL     OW69306  10.525   5.629   3.816  0.0084  0.0778  0.1249
54490SOL    HW169307  10.564   5.544   3.800  0.5208  0.3742 -0.2279
54490SOL    HW269308  10.470   5.645   3.739  0.0252  0.1310  0.1237
54491SOL     OW69309   7.309   2.194   8.433  0.3778 -0.3310 -0.5779
54491SOL    HW169310   7.381   2.257   8.429 -0.3314  0.5778  0.4096
54491SOL    HW269311   7.231   2.248   8.445 -0.9101 -1.0665 -4.3184
54492SOL     OW69312   1.947   1.361   0.243  0.2527 -0.2119 -0.0219
54492SOL    HW169313   2.028   1.387   0.286  1.2179  0.2506 -2.0190
54492SOL    HW269314   1.883   1.426   0.271  0.7639 -0.0735  0.8814
54493SOL     OW69315   8.399   6.659   6.110 -0.1577 -0.7043 -0.5536
54493SOL    HW169316   8.311   6.691   6.129  0.2790 -0.3013  0.9695
54493SOL    HW269317   8.457   6.725   6.149  0.8115 -1.2436 -1.0457
54494SOL     OW69318   5.834  10.008   8.181 -0.0061 -0.1273  0.3328
54494SOL    HW169319   5.782  10.008   8.100  0.2532  1.3940  0.1273
54494SOL    HW269320   5.769  10.002   8.251 -0.2452 -1.2794  0.0259
54495SOL     OW69321   7.013   2.869   1.385  0.7551 -0.0064 -0.2366
54495SOL    HW169322   7.001   2.803   1.454 -1.9236  0.4618 -0.1248
54495SOL    HW269323   7.107   2.873   1.372  1.2573 -1.2996  2.2401
54496SOL     OW69324  10.350   2.284  11.808 -0.2592  0.2998  0.2695
54496SOL    HW169325  10.376   2.308  11.897  0.7139  1.1275 -0.2270
54496SOL    HW269326  10.341   2.367  11.762  1.5900 -0.1770 -1.0359
54497SOL     OW69327   9.338   8.348   2.884  0.4076  0.7451  0.7765
54497SOL    HW169328   9.258   8.319   2.927  1.4585 -0.2865  2.1335
54497SOL    HW269329   9.354   8.281   2.817 -0.9790  2.1063 -1.0183
54498SOL     OW69330   1.319   1.702   1.793  0.1494 -0.1634 -0.8689
54498SOL    HW169331   1.368   1.692   1.875  0.8404 -0.7267 -1.3452
54498SOL    HW269332   1.268   1.622   1.786 -2.7780  1.3906  0.8415
54499SOL     OW69333   1.221   0.392   5.993 -0.3535 -0.0512 -0.0318
54499SOL    HW169334   1.274   0.472   5.994 -0.9235  0.3653 -0.9812
54499SOL    HW269335   1.241   0.351   5.909 -1.6713  0.2363 -0.5210
54500SOL     OW69336   6.271   0.107   2.415  0.5455  0.0372  0.1171
54500SOL    HW169337   6.177   0.094   2.432  0.5332  0.3040  0.2518
54500SOL    HW269338   6.279   0.200   2.394  0.6344 -0.1798 -0.8611
54501SOL     OW69339   7.981   1.151   2.120 -0.4067 -0.1990 -0.1698
54501SOL    HW169340   7.920   1.216   2.085  0.4142 -0.5652 -2.4749
54501SOL    HW269341   8.015   1.190   2.201 -0.3748  1.9946 -1.1773
54502SOL     OW69342   1.063  10.159   7.695 -0.5584 -0.2148 -0.5816
54502SOL    HW169343   1.146  10.119   7.722 -1.0413 -1.4861 -0.8992
54502SOL    HW269344   1.078  10.253   7.703  0.2917 -0.4542  1.1947
54503SOL     OW69345   5.823   3.430   1.934  0.2996 -0.4554 -0.3275
54503SOL    HW169346   5.802   3.355   1.991 -1.2635  0.2016 -0.0054
54503SOL    HW269347   5.906   3.405   1.893  0.6931 -1.6277  1.0552
54504SOL     OW69348   9.432   2.748   5.419 -0.9330  0.4340  0.4411
54504SOL    HW169349   9.365   2.752   5.351 -0.6697 -0.9337  0.0872
54504SOL    HW269350   9.488   2.824   5.401 -0.6534 -0.0977 -1.1066
54505SOL     OW69351   6.948   9.285   2.696  0.0150  0.2428  0.8570
54505SOL    HW169352   6.860   9.262   2.725 -0.0954  1.0467  1.1868
54505SOL    HW269353   6.981   9.345   2.764  0.1962  1.2221 -0.0636
54506SOL     OW69354   8.190   7.471   7.532  0.0345 -0.0700  0.0972
54506SOL    HW169355   8.132   7.395   7.544  0.9805 -0.7975  0.1639
54506SOL    HW269356   8.192   7.513   7.619 -1.2249  0.5975 -0.1654
54507SOL     OW69357   0.544  11.432   1.328 -0.5032  0.0896 -0.4736
54507SOL    HW169358   0.516  11.434   1.237  1.7857  4.2213 -1.3485
54507SOL    HW269359   0.489  11.497   1.372  0.8272  0.8633  0.1223
54508SOL     OW69360   1.221   4.472   3.026  0.5385  0.6830  0.2899
54508SOL    HW169361   1.300   4.512   2.989  2.4163 -1.2115  1.9997
54508SOL    HW269362   1.236   4.378   3.021 -0.6593  0.2816  2.5299
54509SOL     OW69363  10.753   0.763   7.636  0.5363  0.2194  0.2211
54509SOL    HW169364  10.739   0.705   7.711  0.3608  1.4101  1.1444
54509SOL    HW269365  10.755   0.851   7.674  0.7113  0.8332 -1.1492
54510SOL     OW69366   7.282  10.335   6.726  0.1212  0.3113 -0.2792
54510SOL    HW169367   7.318  10.364   6.642 -0.3062  0.3396 -0.4547
54510SOL    HW269368   7.187  10.343   6.716  0.0468 -0.1255  0.0468
54511SOL     OW69369  11.114   2.003   4.176 -0.3653  0.1577  0.1729
54511SOL    HW169370  11.035   2.052   4.153  0.6398  1.4973 -0.4785
54511SOL    HW269371  11.135   2.030   4.265  0.2604  1.0365 -0.2313
54512SOL     OW69372  10.884   2.891   2.955 -0.5748  0.7956 -0.1477
54512SOL    HW169373  10.887   2.900   2.860  0.8664 -1.8096 -0.4538
54512SOL    HW269374  10.952   2.827   2.976  0.2521  2.4453  2.8559
54513SOL     OW69375   7.686   0.226   5.094  0.9699 -0.4746  0.0982
54513SOL    HW169376   7.642   0.184   5.167  1.2012 -0.6984  0.1122
54513SOL    HW269377   7.671   0.168   5.020  0.4404 -0.0728 -0.1159
54514SOL     OW69378   2.991   5.348   9.266  0.0148  0.5421  0.0437
54514SOL    HW169379   2.962   5.381   9.351 -1.0981 -0.8192  0.2455
54514SOL    HW269380   3.003   5.426   9.212 -1.3550  1.3316  0.8298
54515SOL     OW69381   9.148   0.460  11.707 -0.2496 -0.3059  0.0684
54515SOL    HW169382   9.082   0.391  11.712 -0.4630 -0.1721 -0.7427
54515SOL    HW269383   9.188   0.462  11.794 -0.9483 -0.7502  0.4055
54516SOL     OW69384   6.431   2.323   9.352  0.0678  0.5095 -0.3190
54516SOL    HW169385   6.426   2.227   9.345  0.6476  0.5053 -0.8326
54516SOL    HW269386   6.341   2.351   9.365 -0.3611  0.0167 -1.9500
54517SOL     OW69387   2.862   6.121   7.959 -0.0777  0.1853 -0.0563
54517SOL    HW169388   2.820   6.042   7.992 -0.1383  0.3863  0.3527
54517SOL    HW269389   2.884   6.100   7.868 -1.0457  0.0717 -0.2722
54518SOL     OW69390   1.272   2.193  11.713  0.2103  0.3837 -0.3465
54518SOL    HW169391   1.248   2.114  11.666  1.2433  0.8281 -1.6953
54518SOL    HW269392   1.346   2.229  11.664  0.5622  1.5320  0.9388
54519SOL     OW69393   9.492   7.449   2.455  0.0597  0.5997 -0.2849
54519SOL    HW169394   9.470   7.455   2.362  0.7787 -0.2203 -0.5210
54519SOL    HW269395   9.511   7.539   2.481 -0.3167  0.8632 -0.8863
54520SOL     OW69396   0.536  11.705   6.733  0.8202 -0.0413 -0.2963
54520SOL    HW169397   0.493  11.782   6.696  0.0823 -1.0849 -1.6814
54520SOL    HW269398   0.488  11.686   6.814  1.5351  1.4075  0.5090
54521SOL     OW69399   4.374   5.810  10.085  0.3575  0.4229  0.1730
54521SOL    HW169400   4.453   5.838  10.130  0.1492  0.2803  0.6305
54521SOL    HW269401   4.366   5.716  10.105  0.0854  0.4305  0.1110
54522SOL     OW69402   9.485   0.587  10.959 -0.1771 -0.0909  0.4668
54522SOL    HW169403   9.438   0.531  11.021  0.0316 -0.7185  0.0722
54522SOL    HW269404   9.501   0.530  10.883  1.4376  0.0340  0.6867
54523SOL     OW69405   8.031   4.893  12.006 -0.1727  0.3478 -0.2260
54523SOL    HW169406   7.975   4.816  12.016 -1.6251  1.5122  1.2829
54523SOL    HW269407   8.056   4.915  12.096  0.2382  1.6123 -0.6319
54524SOL     OW69408   2.169   1.188   4.075 -0.2285 -0.5326  0.0968
54524SOL    HW169409   2.185   1.109   4.126  0.3568 -0.9372 -0.6844
54524SOL    HW269410   2.183   1.260   4.136 -0.8120 -1.0313  0.8293
54525SOL     OW69411   6.341   0.072   0.581  0.0760 -1.0399  0.2792
54525SOL    HW169412   6.274   0.122   0.534 -0.0301 -0.1831  1.2968
54525SOL    HW269413   6.424   0.111   0.553 -0.0192 -0.0323  1.2997
54526SOL     OW69414  10.541   5.357   1.377  0.0178  0.3222 -0.3676
54526SOL    HW169415  10.578   5.428   1.430  1.8087 -1.2522  0.6349
54526SOL    HW269416  10.505   5.296   1.442 -3.3577  1.1631 -1.2738
54527SOL     OW69417   9.862   3.315  11.200  0.0163  0.3734 -0.1865
54527SOL    HW169418   9.812   3.235  11.215  0.0976  0.5345  1.0958
54527SOL    HW269419   9.951   3.294  11.229 -0.2364  1.2670  1.3420
54528SOL     OW69420   4.701   2.145   6.938 -0.0378  0.0492 -0.1355
54528SOL    HW169421   4.725   2.221   6.886 -0.3172  1.2555  1.4064
54528SOL    HW269422   4.626   2.108   6.893  0.7435  0.0363 -1.4861
54529SOL     OW69423  10.204   4.419   9.062  1.0198 -0.4834 -0.2021
54529SOL    HW169424  10.110   4.408   9.051  0.5045  2.1296  0.8200
54529SOL    HW269425  10.237   4.438   8.974  0.5298 -0.9893 -0.4996
54530SOL     OW69426  12.092   8.017   7.453  0.0123  0.2858  0.4892
54530SOL    HW169427  12.174   7.969   7.448 -0.1660 -0.0383  0.6946
54530SOL    HW269428  12.043   7.975   7.523 -1.8755 -1.9437 -1.9399
54531SOL     OW69429   1.649   7.472  11.818 -0.3014  0.4052  0.1339
54531SOL    HW169430   1.646   7.567  11.806 -1.4831  0.5490  1.2484
54531SOL    HW269431   1.584   7.455  11.887  2.6139 -0.7398  2.8424
54532SOL     OW69432   5.577   3.925   2.858 -0.6457  0.0861 -0.3733
54532SOL    HW169433   5.659   3.939   2.809  0.7210 -1.2447  1.4075
54532SOL    HW269434   5.592   3.969   2.942 -2.4403  1.2098 -0.5929
54533SOL     OW69435   5.409  12.203  11.830 -0.6426  0.4070  0.5921
54533SOL    HW169436   5.389  12.192  11.923  5.7818  0.0877  2.4237
54533SOL    HW269437   5.419  12.114  11.797 -0.0031  0.5153  0.4781
54534SOL     OW69438   1.073  11.340   7.189 -0.5893 -0.2251  0.3947
54534SOL    HW169439   0.995  11.350   7.134 -0.3926 -1.2723 -0.0947
54534SOL    HW269440   1.059  11.257   7.234  0.6932 -0.8986 -0.4248
54535SOL     OW69441   7.857   7.642  11.573 -0.9117  0.0656  0.1183
54535SOL    HW169442   7.932   7.583  11.582 -1.2755 -0.4357 -0.0992
54535SOL    HW269443   7.854   7.662  11.479 -0.4692  0.8656  0.2605
54536SOL     OW69444   4.318   9.590   4.421  0.5826 -0.1166 -0.3165
54536SOL    HW169445   4.389   9.527   4.411  1.4117  1.0205 -2.0974
54536SOL    HW269446   4.303   9.624   4.333 -0.1038  1.8801  0.5105
54537SOL     OW69447   3.621   2.336   0.806 -0.3388 -0.2124  0.1324
54537SOL    HW169448   3.610   2.429   0.830  0.5424 -0.0842  0.0865
54537SOL    HW269449   3.597   2.288   0.885  0.6820  0.1292  0.6629
54538SOL     OW69450   2.036   5.195   9.862 -0.2759  0.3794  0.2170
54538SOL    HW169451   2.101   5.232   9.922 -0.4614  0.5458  0.3154
54538SOL    HW269452   2.040   5.100   9.877  0.1724  0.3595 -0.0071
54539SOL     OW69453   8.766   9.753   9.975  0.5621 -0.2112  0.2657
54539SOL    HW169454   8.731   9.829  10.021 -0.6760  0.5379 -1.8106
54539SOL    HW269455   8.795   9.787   9.891  0.3331 -1.9672 -0.5654
54540SOL     OW69456   3.339   0.664   8.696 -0.4383 -0.4044 -0.0988
54540SOL    HW169457   3.396   0.589   8.679  0.0224  0.2616 -1.7495
54540SOL    HW269458   3.359   0.725   8.625  0.2475  1.9197  1.9646
54541SOL     OW69459   4.626  10.132   5.286  0.5865  0.3270 -0.0246
54541SOL    HW169460   4.574  10.197   5.237 -0.7888 -0.8232 -0.1744
54541SOL    HW269461   4.561  10.085   5.338  1.5389 -0.9339  0.0589
54542SOL     OW69462   5.064   6.233   8.946 -0.0430  0.2735  0.6406
54542SOL    HW169463   5.127   6.212   8.877 -1.3009 -0.6305 -0.2857
54542SOL    HW269464   5.111   6.215   9.027  1.2580  0.7359  0.0225
54543SOL     OW69465   7.916   3.219  10.485  0.3235 -0.0441 -0.1030
54543SOL    HW169466   8.011   3.221  10.485  0.3422  2.4431 -0.0606
54543SOL    HW269467   7.891   3.294  10.432 -1.6249 -0.4841  0.1162
54544SOL     OW69468   5.221  10.977   3.132  0.1587 -0.1672 -0.1787
54544SOL    HW169469   5.289  10.937   3.078  0.3421 -0.9110  0.5843
54544SOL    HW269470   5.221  11.069   3.106  2.0684  0.0341  0.4030
54545SOL     OW69471   8.700   7.267   1.939  0.4481  0.4886 -0.4118
54545SOL    HW169472   8.767   7.326   1.905  1.6974 -1.6993 -2.0128
54545SOL    HW269473   8.642   7.251   1.865 -1.1011  1.2498  0.5809
54546SOL     OW69474   5.177  10.228   1.999 -0.3937  0.2186 -0.3371
54546SOL    HW169475   5.170  10.142   2.040 -0.9456 -0.4380 -1.7610
54546SOL    HW269476   5.112  10.227   1.928  0.1812  1.4964 -0.9209
54547SOL     OW69477   4.725   3.184   8.224  0.3586 -0.5219  0.6092
54547SOL    HW169478   4.715   3.254   8.159  1.2155  0.4555  1.4831
54547SOL    HW269479   4.637   3.172   8.259 -0.2885 -1.6617 -1.2822
54548SOL     OW69480  10.117   3.628   2.625  0.3833 -0.1462  0.2792
54548SOL    HW169481  10.144   3.624   2.533  0.5271  1.2016  0.2335
54548SOL    HW269482  10.117   3.537   2.655  2.1936 -0.4594 -0.5334
54549SOL     OW69483  11.806   7.512   1.008 -0.3795  0.0330  0.1806
54549SOL    HW169484  11.811   7.497   1.102 -0.1445  0.9233  0.3157
54549SOL    HW269485  11.808   7.424   0.970 -0.7490 -0.3481  1.0132
54550SOL     OW69486  10.033   2.679   0.520 -0.0245 -0.0270  0.1401
54550SOL    HW169487  10.024   2.764   0.478 -0.8784 -1.0179 -1.7921
54550SOL    HW269488  10.095   2.631   0.465 -0.0399 -0.8838  0.8343
54551SOL     OW69489   7.658   8.628   9.206 -0.3782  0.0688  0.0933
54551SOL    HW169490   7.691   8.713   9.237  2.8501 -0.4420 -1.4312
54551SOL    HW269491   7.688   8.565   9.272 -2.1386 -0.0180  0.8516
54552SOL     OW69492   9.468  10.405   6.071  0.2630 -0.0004 -0.0902
54552SOL    HW169493   9.449  10.497   6.089  1.2051 -0.1335  1.7976
54552SOL    HW269494   9.385  10.360   6.087  0.0248  0.4134 -0.1392
54553SOL     OW69495   2.621   0.044   2.456 -0.2742  0.5311 -0.1077
54553SOL    HW169496   2.659   0.069   2.541  2.4989  0.7525 -1.3054
54553SOL    HW269497   2.602  -0.050   2.466  0.7586  0.3703  0.5154
54554SOL     OW69498  10.538   0.466   9.917  0.4191 -0.0556 -0.4902
54554SOL    HW169499  10.473   0.536   9.913  1.0213  0.4898 -1.1014
54554SOL    HW269500  10.488   0.388   9.941 -0.2630  0.5776  0.2018
54555SOL     OW69501   3.096   8.619   4.938  0.2185  0.1972  0.5669
54555SOL    HW169502   3.060   8.584   4.857 -3.3228  1.8489  1.2197
54555SOL    HW269503   3.094   8.714   4.926 -0.7408  0.5028  2.6284
54556SOL     OW69504  11.437   6.860   1.304 -0.4673  0.2024 -0.3856
54556SOL    HW169505  11.490   6.902   1.372 -1.1153 -0.3499  0.4878
54556SOL    HW269506  11.484   6.779   1.283 -1.0022 -0.3613  0.4960
54557SOL     OW69507   7.797   4.412   4.510  0.8146  0.3061 -1.0647
54557SOL    HW169508   7.725   4.353   4.486 -0.8670  1.3767  0.9574
54557SOL    HW269509   7.768   4.498   4.480  1.6770  0.6337 -0.9920
54558SOL     OW69510  11.183   0.874  11.902 -0.5148 -0.1796  0.3152
54558SOL    HW169511  11.252   0.858  11.837  0.4199 -0.7273  1.3908
54558SOL    HW269512  11.231   0.880  11.985 -1.8661 -1.8507  1.2790
54559SOL     OW69513   0.489   2.614   0.728  0.3601 -0.0043 -0.5412
54559SOL    HW169514   0.426   2.631   0.798 -0.5089 -2.9760 -0.4857
54559SOL    HW269515   0.435   2.593   0.652  1.2357 -1.6930 -0.7421
54560SOL     OW69516  12.158   7.901   9.776  0.4557 -0.6449 -0.3989
54560SOL    HW169517  12.070   7.884   9.745  0.0246 -1.3567  1.1089
54560SOL    HW269518  12.155   7.991   9.810  0.2611 -0.7347 -0.1795
54561SOL     OW69519   8.055   0.613  11.901 -0.2738  0.1359  0.0625
54561SOL    HW169520   8.002   0.630  11.979  0.1996 -0.1459  0.4545
54561SOL    HW269521   8.127   0.676  11.906 -0.1752  0.0360 -0.0809
54562SOL     OW69522   9.979   2.810   7.278 -0.6967  0.0463 -0.0110
54562SOL    HW169523  10.021   2.745   7.335  1.3737  0.2451 -1.2334
54562SOL    HW269524  10.025   2.803   7.195 -2.1813  1.3024 -0.9982
54563SOL     OW69525   3.564   9.665   7.601  0.2291 -0.1943 -0.7118
54563SOL    HW169526   3.529   9.755   7.601  0.3075 -0.1197  1.2001
54563SOL    HW269527   3.656   9.675   7.624 -0.0957 -0.8228  1.0280
54564SOL     OW69528   3.409   4.770   0.521  0.1677  0.4668 -0.2575
54564SOL    HW169529   3.502   4.750   0.530  0.8480  2.5563 -1.8394
54564SOL    HW269530   3.371   4.690   0.483  1.3029 -0.3847  0.3460
54565SOL     OW69531   1.341   1.621  11.964 -0.2382  0.0040 -0.1521
54565SOL    HW169532   1.282   1.546  11.973 -1.4285  0.9962  0.6783
54565SOL    HW269533   1.421   1.594  12.009 -0.8599 -0.5580  0.6489
54566SOL     OW69534  10.785  12.201   8.379  0.9729  0.1866 -0.2220
54566SOL    HW169535  10.849  12.218   8.448 -0.6189 -1.7106  1.8511
54566SOL    HW269536  10.717  12.149   8.421 -0.6019 -0.2050 -3.0014
54567SOL     OW69537   9.184   9.393   3.437 -0.1560  0.2172  0.2590
54567SOL    HW169538   9.107   9.449   3.427  0.5181  1.1510  0.1625
54567SOL    HW269539   9.201   9.361   3.348  1.1143  2.1502 -0.2623
54568SOL     OW69540   6.881   6.284   6.643  0.1294  0.1343  0.3316
54568SOL    HW169541   6.806   6.316   6.593 -0.8268 -0.5949  1.2744
54568SOL    HW269542   6.933   6.363   6.660 -1.6519  1.0872  1.7283
54569SOL     OW69543  10.783   1.057   1.212 -0.7667 -0.0609  0.1143
54569SOL    HW169544  10.817   1.144   1.195  0.0618 -0.2810  0.5758
54569SOL    HW269545  10.762   1.022   1.126  0.5248 -0.0432 -0.2313
54570SOL     OW69546   1.949   5.374  11.676  0.1156  0.2414 -0.2843
54570SOL    HW169547   1.945   5.468  11.694  0.9785  0.0858  0.7966
54570SOL    HW269548   2.042   5.357  11.660  0.1182 -0.6123  0.5751
54571SOL     OW69549  11.464   2.617   5.442  0.0669  0.3828 -0.1774
54571SOL    HW169550  11.536   2.557   5.462  0.5157  0.8896 -0.2267
54571SOL    HW269551  11.492   2.661   5.361 -0.3607  0.4891 -0.2674
54572SOL     OW69552  11.649   7.140   8.818  0.0072 -0.3395  0.2836
54572SOL    HW169553  11.642   7.235   8.822  0.3850 -0.3328  0.9321
54572SOL    HW269554  11.708   7.124   8.744  0.8745 -0.0141  0.8846
54573SOL     OW69555   3.359   6.233   2.427 -0.1407 -0.4405  0.2339
54573SOL    HW169556   3.412   6.312   2.437 -1.4216  0.6165 -0.9126
54573SOL    HW269557   3.270   6.261   2.445 -0.6370 -1.5948 -0.3048
54574SOL     OW69558   6.734   8.520   4.924  0.0312 -0.3470  0.2987
54574SOL    HW169559   6.733   8.610   4.956 -0.1019 -0.6157  1.0663
54574SOL    HW269560   6.816   8.483   4.958  1.7703  0.3764 -2.6379
54575SOL     OW69561   1.629   7.053   8.076  0.5571  0.2434  0.1801
54575SOL    HW169562   1.537   7.025   8.074  0.6258  0.0211  0.0237
54575SOL    HW269563   1.636   7.118   8.006  0.6628 -0.2057 -0.2327
54576SOL     OW69564   9.878   1.015   8.892  0.3088  0.0955 -1.1141
54576SOL    HW169565   9.876   1.064   8.810  0.8799  0.4081 -0.9422
54576SOL    HW269566   9.962   0.969   8.891  0.2104 -0.0933 -0.8203
54577SOL     OW69567   6.990   3.754   7.995  0.4195  0.7756 -0.2919
54577SOL    HW169568   6.981   3.849   7.987  2.0535  0.9297 -0.7780
54577SOL    HW269569   7.006   3.724   7.905 -0.8018 -0.0688 -0.2456
54578SOL     OW69570  11.479   4.838   5.200  0.0365 -0.0744  0.2489
54578SOL    HW169571  11.430   4.907   5.245 -1.4329  0.0921 -1.4841
54578SOL    HW269572  11.562   4.879   5.174 -0.3417  0.6973  0.2425
54579SOL     OW69573  10.115   1.614   5.639  0.3292 -0.0771  0.2618
54579SOL    HW169574  10.124   1.545   5.706 -1.4147 -0.0736  0.5419
54579SOL    HW269575  10.192   1.603   5.584  1.2432 -0.8072  1.6220
54580SOL     OW69576   8.938   2.150   5.061  0.2258  0.4079 -0.6133
54580SOL    HW169577   8.928   2.235   5.102 -0.9481  0.3248 -0.6989
54580SOL    HW269578   9.000   2.164   4.990  0.0844  1.1777 -0.5863
54581SOL     OW69579   4.382   4.563   9.900  0.1763 -0.1430 -0.0336
54581SOL    HW169580   4.364   4.656   9.912  0.2027 -0.2152  0.5844
54581SOL    HW269581   4.302   4.519   9.930 -0.2452 -0.2797 -1.3143
54582SOL     OW69582   7.883  11.645   4.907  0.0292 -0.2435 -0.1289
54582SOL    HW169583   7.816  11.707   4.936 -1.0258 -0.4995 -1.8489
54582SOL    HW269584   7.840  11.594   4.838  1.9981 -0.4309 -1.2969
54583SOL     OW69585   3.071  12.271   6.030 -0.4162  0.1046  0.4424
54583SOL    HW169586   3.134  12.212   6.071  0.4141  0.5180 -0.2042
54583SOL    HW269587   3.010  12.293   6.100  0.6998  0.4439  1.3463
54584SOL     OW69588   6.486  10.434   9.994  0.1977 -0.3319 -0.1672
54584SOL    HW169589   6.489  10.514  10.048  1.0309 -1.1388  1.0339
54584SOL    HW269590   6.574  10.396  10.004 -0.4373 -1.8139 -0.0606
54585SOL     OW69591  12.122   9.299   8.509  0.0020 -0.0748 -0.2502
54585SOL    HW169592  12.056   9.267   8.570 -1.5722  0.9884 -1.3332
54585SOL    HW269593  12.133   9.227   8.446 -0.0242 -0.2966 -0.0060
54586SOL     OW69594  12.143   8.825   4.650 -0.3669  0.2004  0.3257
54586SOL    HW169595  12.126   8.737   4.685 -1.9962  0.0039 -0.8371
54586SOL    HW269596  12.230   8.818   4.610 -0.0471 -0.5872  1.1118
54587SOL     OW69597   9.353   4.015  11.817 -0.3600 -0.2607 -0.0982
54587SOL    HW169598   9.320   3.933  11.854  0.5361  0.0839  1.5453
54587SOL    HW269599   9.319   4.083  11.875 -0.1659  0.4522 -0.7985
54588SOL     OW69600  10.022  11.787   4.720 -0.6035  0.4010  0.7839
54588SOL    HW169601  10.093  11.799   4.783  0.7209 -1.5806 -0.2178
54588SOL    HW269602   9.985  11.702   4.743 -0.9130  0.2226 -0.3220
54589SOL     OW69603   7.262  12.183   2.475  0.4675  0.2241 -0.0824
54589SOL    HW169604   7.314  12.261   2.455  0.9742 -0.3609 -1.0835
54589SOL    HW269605   7.238  12.194   2.567 -0.3589  2.0756 -0.4693
54590SOL     OW69606  11.043   2.626  10.612 -0.8934 -0.2682  0.3427
54590SOL    HW169607  10.973   2.690  10.600 -0.8839 -0.2444  0.4097
54590SOL    HW269608  11.029   2.592  10.701 -1.2724 -0.8140  0.0816
54591SOL     OW69609   0.239   0.010   4.447  0.4735 -0.0448  0.5870
54591SOL    HW169610   0.206  -0.032   4.526  2.8172 -0.2665  1.5386
54591SOL    HW269611   0.229   0.104   4.464  1.3874 -0.0754  1.3910
54592SOL     OW69612  11.882   0.493   7.419 -0.1563  0.0595  0.1232
54592SOL    HW169613  11.910   0.477   7.508 -0.9492  0.6682  0.4993
54592SOL    HW269614  11.955   0.464   7.364  0.1189 -0.7949  0.9398
54593SOL     OW69615   1.825   7.375   5.340 -0.2216 -0.0378 -0.0475
54593SOL    HW169616   1.845   7.461   5.303  0.1586 -0.1163 -0.0235
54593SOL    HW269617   1.756   7.393   5.404 -1.4521 -0.0132 -1.3300
54594SOL     OW69618   1.068   2.928   3.399 -0.3932 -0.0983  0.1571
54594SOL    HW169619   1.155   2.912   3.437 -0.3877  0.2641  0.2969
54594SOL    HW269620   1.040   3.010   3.438 -0.0409  0.7187 -1.2452
54595SOL     OW69621   4.143  11.695   1.404  0.0237  1.2696 -0.5830
54595SOL    HW169622   4.230  11.671   1.435 -0.1576  1.6760  0.2564
54595SOL    HW269623   4.095  11.612   1.401  0.7467  0.8802 -2.1047
54596SOL     OW69624   7.653   0.324   9.396 -0.0818  0.9631 -0.2035
54596SOL    HW169625   7.636   0.283   9.482 -1.8787 -1.5868 -1.6290
54596SOL    HW269626   7.730   0.278   9.363  0.2264  1.4886 -0.2092
54597SOL     OW69627   9.881  10.982  11.878 -0.2226 -0.3844 -0.5558
54597SOL    HW169628   9.836  11.043  11.935  1.7164  0.6931 -0.0928
54597SOL    HW269629   9.956  10.952  11.928  1.8880  1.0394 -2.6496
54598SOL     OW69630   3.662  11.851   7.048  0.0747  0.7433 -0.4074
54598SOL    HW169631   3.633  11.760   7.039  2.0839 -0.2976  2.2697
54598SOL    HW269632   3.652  11.870   7.142 -0.5793  3.4407 -0.9302
54599SOL     OW69633   5.389   7.565   5.504 -0.4256  0.2543 -0.4357
54599SOL    HW169634   5.445   7.617   5.446 -0.3035  1.4242  0.6947
54599SOL    HW269635   5.324   7.628   5.536 -0.2479 -0.2656  0.9946
54600SOL     OW69636  11.785   8.627   5.181  0.2017  0.3797  0.0910
54600SOL    HW169637  11.815   8.716   5.161 -0.2891  0.5705  0.1777
54600SOL    HW269638  11.694   8.639   5.209  0.3471 -0.0789  0.7672
54601SOL     OW69639   2.045   4.035   2.951  0.0322  0.6608 -0.0375
54601SOL    HW169640   2.000   3.957   2.985  0.2300  0.8686  0.7098
54601SOL    HW269641   1.976   4.084   2.907 -0.0871  0.0443 -0.5483
54602SOL     OW69642   6.214   4.454  10.062  0.0626 -0.1127 -0.4626
54602SOL    HW169643   6.296   4.475  10.106 -0.0216  0.6392 -0.6594
54602SOL    HW269644   6.187   4.536  10.020 -0.2873 -0.6038 -1.2119
54603SOL     OW69645   0.520   2.685   4.119 -0.0525  0.7847  0.1632
54603SOL    HW169646   0.484   2.773   4.106 -0.3416  0.6701  0.1873
54603SOL    HW269647   0.529   2.650   4.030 -0.0758  0.7832  0.1615
54604SOL     OW69648   7.117   4.534   2.488  0.1608  0.1384 -0.3901
54604SOL    HW169649   7.201   4.515   2.445  0.5752  0.4638  0.2639
54604SOL    HW269650   7.082   4.447   2.509 -0.6726 -0.0977 -2.5067
54605SOL     OW69651   0.268   2.173   4.068 -0.2048 -0.2321  0.3445
54605SOL    HW169652   0.223   2.253   4.095 -2.8321 -1.1334 -1.0284
54605SOL    HW269653   0.215   2.102   4.104  1.0192 -1.4035 -0.0459
54606SOL     OW69654  10.902  11.863   3.266  0.1518  0.0327 -0.1459
54606SOL    HW169655  10.903  11.934   3.330 -0.4159 -0.8380  0.8672
54606SOL    HW269656  10.870  11.903   3.185 -1.8450  0.5709  0.8568
54607SOL     OW69657   4.841  10.113   2.125  0.0197 -0.1346 -0.0787
54607SOL    HW169658   4.826  10.164   2.045  1.6819  0.2096 -0.2004
54607SOL    HW269659   4.796  10.030   2.110 -0.8444  0.4521 -0.7934
54608SOL     OW69660   9.268   2.324   6.008 -0.2554 -0.2817 -0.2493
54608SOL    HW169661   9.229   2.359   5.928 -0.5290  0.6203  0.2697
54608SOL    HW269662   9.236   2.381   6.078 -0.1162 -1.1274  0.5249
54609SOL     OW69663   6.018  11.504   3.292  0.0113  0.2697 -0.0287
54609SOL    HW169664   6.000  11.549   3.209 -0.3382 -0.5189 -0.3880
54609SOL    HW269665   5.934  11.507   3.339 -0.3349 -0.9945 -0.5385
54610SOL     OW69666   9.855  10.688   0.939  0.3484 -0.0481  0.2441
54610SOL    HW169667   9.887  10.772   0.972  0.6484  0.3719 -1.0569
54610SOL    HW269668   9.896  10.623   0.996 -0.2382  0.6923  1.5436
54611SOL     OW69669   6.604   3.494   3.038 -0.0309  0.1068 -0.4461
54611SOL    HW169670   6.524   3.518   2.991  1.0305  2.9838 -0.9724
54611SOL    HW269671   6.647   3.431   2.981 -0.3114  1.1449 -1.8623
54612SOL     OW69672  11.210   3.786  10.954 -0.1118 -0.2658  0.2984
54612SOL    HW169673  11.253   3.705  10.928 -1.0504 -0.2723 -1.3507
54612SOL    HW269674  11.180   3.825  10.872 -2.4023  0.1879  1.2657
54613SOL     OW69675   7.255   6.004   5.746  0.6642 -0.2378 -0.2713
54613SOL    HW169676   7.286   6.027   5.658  1.5913 -0.5663 -0.0477
54613SOL    HW269677   7.175   5.954   5.731 -1.3947  2.9218 -0.7868
54614SOL     OW69678   1.664   8.318   5.529 -0.1727 -0.5952 -0.2610
54614SOL    HW169679   1.623   8.388   5.580  1.5274  0.9263 -0.8894
54614SOL    HW269680   1.734   8.285   5.585  1.7335  1.1149 -1.4938
54615SOL     OW69681   3.925   2.238   7.558  0.5024  0.0391 -0.1119
54615SOL    HW169682   3.954   2.278   7.476  1.9941  0.8149  0.7472
54615SOL    HW269683   4.006   2.206   7.599 -0.3149 -1.1480  0.6408
54616SOL     OW69684   5.324   3.739   8.204 -0.1183 -0.0148 -0.1299
54616SOL    HW169685   5.323   3.649   8.237  0.5756  0.1523  0.3758
54616SOL    HW269686   5.369   3.788   8.272 -0.4947  0.7215 -0.4037
54617SOL     OW69687   7.787   1.052   6.971  0.3072 -0.0234 -0.0716
54617SOL    HW169688   7.692   1.067   6.972  0.0679 -0.5990 -3.3545
54617SOL    HW269689   7.825   1.139   6.956  0.0978 -0.0736 -0.9912
54618SOL     OW69690   9.394   8.189   1.348 -0.0471  0.7253  0.7284
54618SOL    HW169691   9.452   8.265   1.348 -0.5767  1.1657  1.8920
54618SOL    HW269692   9.439   8.125   1.404  1.2528 -0.5610 -1.6559
54619SOL     OW69693   4.734   4.206   5.253 -0.0015 -0.8385 -0.5576
54619SOL    HW169694   4.674   4.136   5.279 -0.8677  0.1175  0.0530
54619SOL    HW269695   4.707   4.230   5.164 -0.1320 -0.8209 -0.5127
54620SOL     OW69696   8.609   9.430   7.936 -0.0606 -0.2622  0.7335
54620SOL    HW169697   8.611   9.512   7.886 -2.8466  0.5009  1.6690
54620SOL    HW269698   8.653   9.452   8.019  0.4297 -0.1580  0.4530
54621SOL     OW69699   3.567   4.677   9.789  0.2921 -0.0736  0.6414
54621SOL    HW169700   3.590   4.727   9.867  2.3228  0.1074 -0.0215
54621SOL    HW269701   3.641   4.689   9.730 -1.3963  0.2264 -1.5496
54622SOL     OW69702  10.607  11.012  11.053  0.3515 -0.5115  0.2773
54622SOL    HW169703  10.666  10.953  11.099  0.0133 -0.1303  1.2309
54622SOL    HW269704  10.664  11.062  10.995  0.9060 -0.4450  0.8662
54623SOL     OW69705  12.252  11.891   8.937 -0.1877 -0.2821  0.0649
54623SOL    HW169706  12.345  11.904   8.917 -0.5870 -0.7087 -2.4088
54623SOL    HW269707  12.252  11.833   9.013  1.5883 -0.2747  0.1085
54624SOL     OW69708   1.895   2.819   2.087  0.0598  0.2073 -0.4623
54624SOL    HW169709   1.933   2.743   2.129 -0.1148 -0.4796 -1.4986
54624SOL    HW269710   1.926   2.894   2.138 -1.0706 -0.6335  1.5739
54625SOL     OW69711   2.876  10.390  10.709  0.3489  0.1825  0.4231
54625SOL    HW169712   2.840  10.313  10.665 -1.0740  1.1997 -0.2804
54625SOL    HW269713   2.903  10.448  10.638  0.4828  0.7517  0.9249
54626SOL     OW69714  11.561   6.928   5.908 -0.1595  0.3172 -0.4259
54626SOL    HW169715  11.632   6.966   5.959  0.3200 -0.3801 -0.5514
54626SOL    HW269716  11.603   6.901   5.826  0.1358 -2.8550  0.6417
54627SOL     OW69717   8.734   5.154   3.692  0.6863 -0.1419 -0.1361
54627SOL    HW169718   8.716   5.061   3.676  0.0457 -0.1086  0.3293
54627SOL    HW269719   8.704   5.169   3.782 -1.5559  1.0726 -0.9997
54628SOL     OW69720   9.950   7.079   2.340 -0.0697  0.3231  0.0450
54628SOL    HW169721   9.994   7.119   2.415  0.9012 -0.1564 -0.2550
54628SOL    HW269722   9.944   7.149   2.275  0.6465  0.2762 -0.0738
54629SOL     OW69723   3.457  11.371   2.347 -0.3110  0.0024 -0.1521
54629SOL    HW169724   3.374  11.344   2.386 -1.0534  1.1833 -0.8637
54629SOL    HW269725   3.476  11.456   2.387  2.0001 -1.4203  2.0841
54630SOL     OW69726   0.211   6.034   3.759 -0.3824 -0.1320  0.4943
54630SOL    HW169727   0.238   6.116   3.718 -0.1678 -0.4446  0.0083
54630SOL    HW269728   0.286   6.008   3.813 -0.0936 -0.4703 -0.0574
54631SOL     OW69729   3.239   1.643   1.766  0.2580 -0.4673  0.3888
54631SOL    HW169730   3.274   1.666   1.680 -2.1996 -0.3661 -0.6698
54631SOL    HW269731   3.193   1.561   1.752  0.2457 -0.7202  1.7553
54632SOL     OW69732   1.194   8.722   9.614 -0.2653  0.0273  0.1401
54632SOL    HW169733   1.258   8.792   9.628 -0.3386 -0.3182  2.6683
54632SOL    HW269734   1.110   8.767   9.610 -0.4944  0.1120  3.3108
54633SOL     OW69735   4.536   4.013   2.713 -0.2137  0.2545  0.1380
54633SOL    HW169736   4.488   3.945   2.759  0.0750 -0.6460 -0.8647
54633SOL    HW269737   4.468   4.072   2.680 -0.4530  0.6020  1.1921
54634SOL     OW69738  11.939   3.911  10.634  0.3581  0.1443  0.3211
54634SOL    HW169739  11.873   3.906  10.565 -0.3902  2.6512  0.7524
54634SOL    HW269740  11.899   3.865  10.708  0.7162 -1.6039 -0.5216
54635SOL     OW69741   7.548   6.041  11.634 -0.3181  0.1343 -0.1912
54635SOL    HW169742   7.612   6.046  11.563  0.4230 -1.0114  0.3697
54635SOL    HW269743   7.480   6.104  11.609  0.4697  0.5665 -1.3511
54636SOL     OW69744   3.968   8.939   6.272  0.4644 -0.3608 -0.5388
54636SOL    HW169745   3.978   8.965   6.180  1.7374 -0.5819 -0.4826
54636SOL    HW269746   3.983   8.845   6.272  0.1537 -0.4123 -0.1438
54637SOL     OW69747   2.875   0.662   4.324 -0.0613 -0.2872 -0.0754
54637SOL    HW169748   2.808   0.685   4.259  0.7872  0.0209 -0.8746
54637SOL    HW269749   2.827   0.622   4.396 -1.0700 -0.3099 -0.7462
54638SOL     OW69750   8.140   1.739   7.266 -0.2331 -0.1370  0.0345
54638SOL    HW169751   8.167   1.713   7.354  0.1487 -0.4824 -0.1797
54638SOL    HW269752   8.217   1.784   7.230 -0.4226  0.0953 -0.0821
54639SOL     OW69753   6.210   7.186   6.792  0.1728 -0.5277 -0.4954
54639SOL    HW169754   6.199   7.091   6.784 -1.6926 -0.2547 -2.3692
54639SOL    HW269755   6.223   7.215   6.702  0.3067  1.0305  0.0073
54640SOL     OW69756  11.006   7.466   7.306 -0.1724 -0.3457 -0.7236
54640SOL    HW169757  11.017   7.398   7.239 -0.3522  0.5269 -1.6532
54640SOL    HW269758  11.073   7.531   7.286  0.4389 -0.5505  0.5701
54641SOL     OW69759   3.106   8.620   1.086  0.5359 -0.0702 -0.3568
54641SOL    HW169760   3.092   8.558   1.014  1.8706  0.1223 -0.8150
54641SOL    HW269761   3.118   8.704   1.043 -1.5629  0.6184  0.2749
54642SOL     OW69762  11.758  11.212   4.422 -0.2094  0.0294  0.0701
54642SOL    HW169763  11.839  11.172   4.393  2.0903  3.4642  1.1574
54642SOL    HW269764  11.723  11.256   4.344 -1.2261 -1.5688 -0.4338
54643SOL     OW69765   6.611   6.920   3.146 -0.0548  0.3217 -0.3104
54643SOL    HW169766   6.666   6.974   3.090  0.0029 -0.2736 -0.8482
54643SOL    HW269767   6.670   6.854   3.181 -0.2359  0.2485 -0.1407
54644SOL     OW69768   6.585   9.154   7.138  0.2964  0.5036 -0.6844
54644SOL    HW169769   6.556   9.190   7.054 -1.9702 -2.0031 -1.0932
54644SOL    HW269770   6.544   9.210   7.203  0.6102  1.3888 -1.2284
54645SOL     OW69771  11.056   1.095   4.102  0.2417 -0.7847 -0.3237
54645SOL    HW169772  10.998   1.020   4.116  0.0464 -0.4249  0.9122
54645SOL    HW269773  11.073   1.129   4.190  0.4121  0.5563 -0.8513
54646SOL     OW69774  11.597   9.791   9.087 -0.9929  0.7095  0.3539
54646SOL    HW169775  11.635   9.780   9.000  2.2406 -0.6787  1.7778
54646SOL    HW269776  11.544   9.712   9.100 -0.3067  0.2162  0.1811
54647SOL     OW69777   1.843  10.164   9.739  0.2949 -0.0813  0.5974
54647SOL    HW169778   1.915  10.102   9.724  0.5637  0.1819  0.7737
54647SOL    HW269779   1.790  10.123   9.807  0.2670 -0.2882  0.4532
54648SOL     OW69780   2.618   7.490   9.776  0.2946  0.4036  0.4351
54648SOL    HW169781   2.685   7.558   9.784  0.7810  0.0863 -0.7403
54648SOL    HW269782   2.654   7.428   9.713 -1.0121  0.1187 -0.0619
54649SOL     OW69783   1.005   0.434   8.529  0.2211 -0.2035 -0.0663
54649SOL    HW169784   0.915   0.440   8.562  0.0347 -0.9095 -0.4131
54649SOL    HW269785   1.041   0.521   8.543 -0.6390  0.2006 -0.2482
54650SOL     OW69786   0.892  11.106   3.483 -0.3256  0.0767  0.1514
54650SOL    HW169787   0.875  11.088   3.576  0.4634 -1.6148  0.0083
54650SOL    HW269788   0.964  11.170   3.484 -0.8134  0.6329  0.6922
54651SOL     OW69789   9.910   5.725   4.301  0.3806 -0.1513  0.5861
54651SOL    HW169790  10.000   5.718   4.269  0.2745 -0.0052  0.2526
54651SOL    HW269791   9.919   5.751   4.392  0.6524  2.8450 -0.1799
54652SOL     OW69792   8.280   0.948   5.254  0.7255 -0.3564 -0.1598
54652SOL    HW169793   8.272   0.891   5.330  0.7886  1.8143  1.5532
54652SOL    HW269794   8.223   0.908   5.188  0.1383 -1.9248  1.2317
54653SOL     OW69795   4.187   5.134   1.639  0.1716 -0.6322  0.1598
54653SOL    HW169796   4.133   5.075   1.694  0.2620 -0.6323  0.2489
54653SOL    HW269797   4.219   5.078   1.569  0.9270 -0.8900  0.6936
54654SOL     OW69798   8.458   9.110   4.514 -0.3342 -0.1534  0.1905
54654SOL    HW169799   8.495   9.194   4.485 -1.0178 -0.3463 -1.3868
54654SOL    HW269800   8.492   9.046   4.452 -3.0596 -0.3586 -1.2749
54655SOL     OW69801   5.344   4.621   6.901 -0.4831  0.4797 -0.2936
54655SOL    HW169802   5.375   4.652   6.817  0.2776 -1.8412 -0.9425
54655SOL    HW269803   5.418   4.575   6.939 -0.6901  1.8007  1.8617
54656SOL     OW69804   7.038  10.727   7.608  0.0487 -0.1942  0.0041
54656SOL    HW169805   6.944  10.706   7.608  0.1335 -0.6277 -0.7113
54656SOL    HW269806   7.070  10.692   7.691 -0.2730 -0.7903 -0.1130
54657SOL     OW69807   6.061   6.118   7.706  0.1587 -0.0492  0.5593
54657SOL    HW169808   6.112   6.198   7.721  0.6580 -0.2245 -0.1558
54657SOL    HW269809   5.987   6.146   7.651 -1.7119  0.6064  3.2070
54658SOL     OW69810   8.442   7.261   3.377  0.9240  0.0034  0.2501
54658SOL    HW169811   8.401   7.257   3.291 -0.0112  1.3052  0.6033
54658SOL    HW269812   8.464   7.170   3.397 -0.1428 -0.5085 -0.7470
54659SOL     OW69813  10.491   6.449   8.309 -0.1728 -0.1179 -0.0049
54659SOL    HW169814  10.444   6.533   8.314 -0.4886 -0.1410 -1.8970
54659SOL    HW269815  10.583   6.473   8.323 -0.3446  0.4381  0.2262
54660SOL     OW69816   6.857   7.716   6.683 -0.5834 -0.7867 -0.2685
54660SOL    HW169817   6.884   7.805   6.661 -2.2155 -0.4525 -1.0798
54660SOL    HW269818   6.816   7.724   6.768  0.7604 -1.0903  0.4335
54661SOL     OW69819   3.417   5.533   7.221  0.0155  0.2290 -0.2552
54661SOL    HW169820   3.416   5.441   7.248  0.5559 -0.2626 -1.8178
54661SOL    HW269821   3.489   5.572   7.271 -0.7404  0.0333  1.0414
54662SOL     OW69822   8.325   8.536   3.228  0.3064 -0.6352 -0.4409
54662SOL    HW169823   8.373   8.453   3.221 -1.0898 -1.3523 -2.6007
54662SOL    HW269824   8.254   8.517   3.289 -0.3153 -1.2264 -1.3260
54663SOL     OW69825   5.947   4.730   6.965 -0.4358  0.2685 -0.0162
54663SOL    HW169826   5.885   4.770   6.905  0.7096 -0.7942 -2.0209
54663SOL    HW269827   5.915   4.641   6.977  0.2662 -0.0561 -0.4709
54664SOL     OW69828   0.068   6.896   4.979 -0.0906 -0.4616  0.3789
54664SOL    HW169829   0.122   6.887   5.058  2.7290 -2.5913 -1.6208
54664SOL    HW269830   0.122   6.947   4.919 -0.8318 -1.5655 -1.2673
54665SOL     OW69831   2.949   7.182   7.848 -0.0838 -0.5013  0.0368
54665SOL    HW169832   3.044   7.190   7.856  0.0075 -0.2007 -1.1994
54665SOL    HW269833   2.935   7.109   7.788 -0.6233 -0.1369 -0.2908
54666SOL     OW69834   9.389   9.324   1.452 -0.3975 -0.2609  0.1689
54666SOL    HW169835   9.297   9.344   1.467 -0.6187  0.8476 -2.1870
54666SOL    HW269836   9.431   9.337   1.537 -2.0498  1.5397  0.7788
54667SOL     OW69837   1.098   5.519   0.878 -0.7054  0.5232 -0.4722
54667SOL    HW169838   1.188   5.513   0.911 -0.9434 -3.4548 -0.0469
54667SOL    HW269839   1.050   5.562   0.949  0.4496  0.5492  0.3285
54668SOL     OW69840   2.364   2.255   9.749 -0.7608 -0.1094 -0.0454
54668SOL    HW169841   2.310   2.267   9.671 -0.7292 -1.4266 -0.2788
54668SOL    HW269842   2.421   2.181   9.728 -1.0609 -0.7756  1.3809
54669SOL     OW69843   6.462  11.855   6.691 -0.6772  0.5786 -0.1862
54669SOL    HW169844   6.453  11.939   6.645  0.6844  0.5520 -0.5421
54669SOL    HW269845   6.536  11.812   6.648 -1.0054 -0.5671  0.3684
54670SOL     OW69846   7.152   4.049   0.876 -0.4871 -0.3783  0.6365
54670SOL    HW169847   7.178   4.050   0.784  0.3687 -1.8283  0.8304
54670SOL    HW269848   7.065   4.089   0.877 -0.6730 -0.6964 -0.8601
54671SOL     OW69849   1.828  10.467   9.070 -0.0789  0.0968  0.2715
54671SOL    HW169850   1.739  10.502   9.063 -0.6660 -1.4712 -0.5878
54671SOL    HW269851   1.830  10.394   9.009  2.1993  0.8527 -0.6826
54672SOL     OW69852   7.916   5.679   6.197  0.2986 -0.0054  0.2851
54672SOL    HW169853   7.945   5.590   6.175 -0.8877 -0.4119  0.2966
54672SOL    HW269854   7.925   5.727   6.114  0.6229 -0.2171  0.1928
54673SOL     OW69855   7.807   5.936  10.503  0.2659 -0.9365  0.0562
54673SOL    HW169856   7.794   5.859  10.448  0.1270  0.5869 -2.1648
54673SOL    HW269857   7.845   5.902  10.584 -1.2891 -3.5014 -0.1943
54674SOL     OW69858  10.791   3.282   7.907  0.2158 -0.9357 -0.1969
54674SOL    HW169859  10.841   3.310   7.983  1.1751  0.4100 -1.2722
54674SOL    HW269860  10.838   3.320   7.832 -1.2292 -1.4104 -1.3903
54675SOL     OW69861  10.202   4.033   5.738 -0.2468  0.7338  0.0075
54675SOL    HW169862  10.200   4.016   5.832 -0.7547 -1.7615 -0.3939
54675SOL    HW269863  10.296   4.036   5.716 -0.1225 -0.0039  0.4076
54676SOL     OW69864   2.829   6.297   2.674  0.1019  0.0120 -0.4484
54676SOL    HW169865   2.835   6.311   2.579 -0.4593  1.7898 -0.2607
54676SOL    HW269866   2.920   6.291   2.703  0.3213  0.8885 -0.9284
54677SOL     OW69867   6.623   2.855   6.858 -0.4707  0.2700 -0.1134
54677SOL    HW169868   6.591   2.765   6.844  1.6905 -1.2116  3.1886
54677SOL    HW269869   6.567   2.890   6.926  1.2597 -0.2930  1.7030
54678SOL     OW69870   9.529   2.308   0.543 -0.5073 -0.5404  0.0720
54678SOL    HW169871   9.470   2.247   0.588 -2.1931  0.4229 -0.7240
54678SOL    HW269872   9.600   2.322   0.605 -0.5493 -2.5501  0.6639
54679SOL     OW69873   8.458   4.582   6.879 -0.2630  0.1530 -0.6424
54679SOL    HW169874   8.435   4.665   6.838 -0.7111  0.3177 -0.0691
54679SOL    HW269875   8.554   4.582   6.881 -0.2566  0.4489 -1.0620
54680SOL     OW69876  11.139   8.245   1.542 -0.2499  0.8507 -0.4923
54680SOL    HW169877  11.135   8.200   1.457 -0.1357  0.1789 -0.1510
54680SOL    HW269878  11.074   8.200   1.596  1.8466 -0.8815  0.7623
54681SOL     OW69879  11.382   2.347   5.322 -0.1770 -0.4911  0.4650
54681SOL    HW169880  11.415   2.276   5.268  0.4780 -0.3262  0.6456
54681SOL    HW269881  11.378   2.422   5.263  0.3983 -0.3476  0.6076
54682SOL     OW69882  11.687   9.770   1.412 -0.1708  0.1785 -0.1269
54682SOL    HW169883  11.753   9.723   1.362 -1.6555 -1.6225 -0.4960
54682SOL    HW269884  11.636   9.818   1.345 -1.3556 -1.2125 -0.2723
54683SOL     OW69885  10.636   8.306   4.914  0.3233 -0.1021  0.4549
54683SOL    HW169886  10.633   8.340   5.004 -1.0826  1.3684 -0.1027
54683SOL    HW269887  10.696   8.365   4.868 -0.4589  0.3233 -0.0232
54684SOL     OW69888   6.087  10.046   8.902 -0.1239  0.0400 -0.0803
54684SOL    HW169889   6.067  10.116   8.964 -0.3735 -0.0328 -0.0792
54684SOL    HW269890   6.044   9.969   8.937 -0.3429  0.0184 -0.3900
54685SOL     OW69891   5.994  11.574  10.029  0.1632  0.1495  0.1932
54685SOL    HW169892   6.079  11.533  10.010  1.4011  0.9343  3.3352
54685SOL    HW269893   5.999  11.660   9.988  0.7577  0.0607  0.0651
54686SOL     OW69894   0.996   6.966   5.216  0.1209  0.0753  0.3239
54686SOL    HW169895   0.925   6.963   5.152 -0.5446 -0.2827  1.0599
54686SOL    HW269896   1.051   6.890   5.196  0.4896  0.5227 -0.4393
54687SOL     OW69897   8.579   3.213   9.265 -0.3425 -0.2237 -0.4010
54687SOL    HW169898   8.525   3.141   9.299 -0.5409 -0.5656 -1.3920
54687SOL    HW269899   8.515   3.277   9.233 -0.2148  1.3001  2.1737
54688SOL     OW69900   0.803   5.036   4.225  1.3378 -0.1894 -0.2985
54688SOL    HW169901   0.754   5.055   4.305  1.2771 -1.2737 -0.0594
54688SOL    HW269902   0.833   5.121   4.194 -1.1618  0.5841 -0.7645
54689SOL     OW69903  12.273  11.557   5.711  0.1970 -0.2840  0.2660
54689SOL    HW169904  12.221  11.519   5.640  0.0180 -0.1228  0.3101
54689SOL    HW269905  12.210  11.571   5.782 -0.2123  2.0366 -0.4654
54690SOL     OW69906   7.834   7.852   1.844 -0.0290 -0.3127 -0.6700
54690SOL    HW169907   7.750   7.867   1.888  0.2336  0.4456 -0.3945
54690SOL    HW269908   7.884   7.932   1.862  1.8858 -1.9027  1.7508
54691SOL     OW69909   2.217   9.393   4.580  0.3356  0.2318  0.1529
54691SOL    HW169910   2.161   9.329   4.623  1.8975  0.7235  3.2221
54691SOL    HW269911   2.264   9.343   4.513  0.3338 -1.4983  1.3720
54692SOL     OW69912   2.588   3.033   9.741  0.8693  0.1677  0.4935
54692SOL    HW169913   2.585   3.024   9.836  1.7612  1.0896  0.6208
54692SOL    HW269914   2.496   3.026   9.713  0.3663  1.8979  1.6201
54693SOL     OW69915   4.396   8.482   4.135 -1.0708  0.4409 -0.4320
54693SOL    HW169916   4.320   8.498   4.078  0.3656 -2.2757 -3.3708
54693SOL    HW269917   4.431   8.570   4.152 -4.0648  1.6879  0.0633
54694SOL     OW69918  11.918   1.686   4.130 -0.1562 -0.3124  0.4892
54694SOL    HW169919  11.971   1.611   4.102  1.1478  0.2083  1.5059
54694SOL    HW269920  11.833   1.671   4.088  0.5408 -1.5609 -0.5583
54695SOL     OW69921   4.324   4.936   4.266  1.1488  0.1073  0.6123
54695SOL    HW169922   4.349   4.856   4.219 -1.3452 -1.1389  1.2402
54695SOL    HW269923   4.360   4.923   4.354  0.1335 -0.7418  0.9335
54696SOL     OW69924  11.817   0.773   5.485 -0.5393  0.4474 -0.3617
54696SOL    HW169925  11.776   0.732   5.562  0.0204  0.6427  0.0489
54696SOL    HW269926  11.911   0.756   5.497 -0.5444 -0.8012 -1.7526
54697SOL     OW69927   9.813  10.603   5.417 -0.1422 -0.2025 -0.1261
54697SOL    HW169928   9.745  10.544   5.449  0.4248 -1.4300 -1.0865
54697SOL    HW269929   9.883  10.597   5.483 -0.5502  0.2928  0.3574
54698SOL     OW69930  11.706   1.794   2.375 -0.1652  0.1223  0.3057
54698SOL    HW169931  11.648   1.862   2.409  1.3537  0.8483  1.6343
54698SOL    HW269932  11.760   1.840   2.310 -1.9699 -0.8849 -2.0215
54699SOL     OW69933  11.006   6.875   2.428 -0.2069  0.1938  0.5606
54699SOL    HW169934  11.035   6.900   2.340 -1.8477 -1.9436 -0.7190
54699SOL    HW269935  11.085   6.843   2.471  0.5899  1.0657 -0.2080
54700SOL     OW69936   1.370   9.673   8.512 -0.1462  0.1047 -0.3995
54700SOL    HW169937   1.352   9.581   8.491 -2.3069  0.3142  0.2903
54700SOL    HW269938   1.368   9.718   8.427  0.8695 -0.4567 -0.7343
54701SOL     OW69939  11.556   1.952  12.314  0.9942 -0.5683 -0.0199
54701SOL    HW169940  11.575   1.935  12.222 -1.0314  0.2599 -0.6342
54701SOL    HW269941  11.561   1.867  12.356  1.7150 -0.9927 -0.9294
54702SOL     OW69942   8.225   5.067   5.772  0.3737  0.6523  0.1995
54702SOL    HW169943   8.267   5.094   5.690 -0.0419  1.3213  0.1983
54702SOL    HW269944   8.131   5.079   5.756  0.1317 -1.0040  0.1357
54703SOL     OW69945   7.478   8.270   2.787  0.3975 -0.0235 -0.6546
54703SOL    HW169946   7.503   8.312   2.705  0.7643 -0.6761 -0.8929
54703SOL    HW269947   7.561   8.254   2.832  0.1911  0.4287 -0.1005
54704SOL     OW69948   1.480   1.487   5.866 -0.5938  0.1140 -0.1413
54704SOL    HW169949   1.490   1.393   5.880  0.7896  0.3013  0.3299
54704SOL    HW269950   1.477   1.525   5.954  2.1969  0.7615 -0.2140
54705SOL     OW69951   0.585   7.523   3.007 -0.2276  0.0959 -0.0398
54705SOL    HW169952   0.620   7.575   2.935  1.7342  1.0888  1.5285
54705SOL    HW269953   0.602   7.576   3.085 -2.6592 -0.7358  1.1708
54706SOL     OW69954  11.487   5.071   3.489  0.1454 -0.2786 -0.2358
54706SOL    HW169955  11.577   5.043   3.505  0.0999 -0.5942 -0.5335
54706SOL    HW269956  11.493   5.166   3.478  0.6639 -0.4775 -1.8375
54707SOL     OW69957  11.860   8.232   4.494 -0.3798 -0.2772 -0.5933
54707SOL    HW169958  11.860   8.190   4.580 -1.0092  0.5815 -0.1583
54707SOL    HW269959  11.771   8.219   4.460 -1.2716  2.3817  0.4327
54708SOL     OW69960   9.873  12.041   7.932 -0.0418  0.0548  0.0430
54708SOL    HW169961   9.892  12.071   8.021 -0.4740 -0.6742  0.3935
54708SOL    HW269962   9.944  11.981   7.912  0.8704  1.3206 -0.6908
54709SOL     OW69963   3.426  10.162  10.800 -0.1985 -0.3697 -0.1396
54709SOL    HW169964   3.349  10.163  10.857 -0.3700  3.0666 -0.1907
54709SOL    HW269965   3.391  10.184  10.713  0.7502  1.1753 -0.1726
54710SOL     OW69966   1.228   3.083   1.397  0.1152  0.1860 -0.5065
54710SOL    HW169967   1.310   3.132   1.399 -0.3120  0.9151 -0.5218
54710SOL    HW269968   1.188   3.101   1.482 -0.7411  1.0924 -1.0773
54711SOL     OW69969   7.707   6.429   9.263 -0.1339 -0.1668 -0.4442
54711SOL    HW169970   7.788   6.479   9.253 -1.0106  1.0074 -2.2715
54711SOL    HW269971   7.642   6.494   9.290 -0.7439 -0.8318 -0.2721
54712SOL     OW69972   5.866   6.020   8.589  0.3538 -0.0321  0.1229
54712SOL    HW169973   5.820   6.045   8.669  1.3718  1.1497  0.3816
54712SOL    HW269974   5.799   5.984   8.532 -0.4542 -0.5589  1.3713
54713SOL     OW69975   0.122   8.460   7.932 -0.2477  0.5371 -0.3301
54713SOL    HW169976   0.156   8.545   7.905  2.1213 -0.2361  0.0447
54713SOL    HW269977   0.140   8.402   7.858  2.5299 -0.6534  1.1399
54714SOL     OW69978  10.472  10.699   4.337 -0.1875  0.7951 -0.2571
54714SOL    HW169979  10.465  10.705   4.242 -0.4545  0.9587 -0.2302
54714SOL    HW269980  10.387  10.731   4.369  0.4432  2.2043  0.0774
54715SOL     OW69981   9.771   7.751   5.720  0.4605  0.3260 -0.8753
54715SOL    HW169982   9.730   7.837   5.733  1.4754  0.5301  1.4894
54715SOL    HW269983   9.816   7.759   5.636 -2.2163  0.9145 -2.3594
54716SOL     OW69984   1.626  10.731   5.791  0.5784  0.4430  0.3211
54716SOL    HW169985   1.606  10.806   5.736  0.1170 -0.5478 -0.9059
54716SOL    HW269986   1.721  10.726   5.792  0.5946  0.6740 -0.0923
54717SOL     OW69987   3.613  11.575   1.688 -0.2971  0.0857 -0.2637
54717SOL    HW169988   3.664  11.641   1.735 -0.8031  0.5635 -0.3725
54717SOL    HW269989   3.615  11.604   1.597 -2.3373  1.1950 -0.0109
54718SOL     OW69990  10.832  12.155   5.285 -0.1833 -0.4891  0.4177
54718SOL    HW169991  10.861  12.064   5.291  0.3094 -0.2613  2.2262
54718SOL    HW269992  10.784  12.170   5.366 -0.9349  0.6570 -0.2080
54719SOL     OW69993   5.995  10.782   7.591 -0.3063 -0.3777  0.1666
54719SOL    HW169994   5.998  10.828   7.508  0.0383 -1.9215 -0.7224
54719SOL    HW269995   5.964  10.694   7.569 -0.3616 -0.7762  1.6944
54720SOL     OW69996   8.306   7.286   3.154  0.0814 -0.1459  0.5658
54720SOL    HW169997   8.222   7.242   3.168  0.3362 -1.0143 -0.5501
54720SOL    HW269998   8.303   7.315   3.063  1.3196 -0.9168  0.2578
54721SOL     OW69999   8.275   6.914   1.089 -0.0377  0.3439 -0.6230
54721SOL    HW170000   8.277   6.839   1.030 -0.7836  0.7392 -1.1578
54721SOL    HW270001   8.209   6.892   1.155  0.6307  0.0028 -0.0486
54722SOL     OW70002   0.810   6.090   7.464 -0.6161  0.0303  0.3361
54722SOL    HW170003   0.748   6.071   7.534 -0.4155  1.1790  0.8610
54722SOL    HW270004   0.876   6.147   7.505  2.2255 -3.0662  0.4900
54723SOL     OW70005  10.926   8.817   5.916  0.0010  0.4000 -0.0521
54723SOL    HW170006  10.855   8.773   5.871  0.4480 -0.2144 -0.1796
54723SOL    HW270007  10.953   8.754   5.984  1.4921 -0.0908 -1.0566
54724SOL     OW70008   4.348   1.811   8.203  0.2525 -0.4344 -0.1072
54724SOL    HW170009   4.435   1.776   8.224  0.7872  1.6853  1.4817
54724SOL    HW270010   4.362   1.904   8.186 -1.3818 -0.5066 -2.3699
54725SOL     OW70011   7.040   9.173   7.278 -0.0985 -0.3692  0.5393
54725SOL    HW170012   7.056   9.255   7.324  1.5151 -0.9855  1.1243
54725SOL    HW270013   7.054   9.105   7.343  1.2917 -1.2266 -0.5965
54726SOL     OW70014   5.576   0.655   3.442  0.0848  0.3047  0.5728
54726SOL    HW170015   5.558   0.748   3.455 -0.0746  0.4817 -0.8075
54726SOL    HW270016   5.605   0.624   3.528 -1.0574  1.3409  1.3668
54727SOL     OW70017   8.859   2.023  11.191  0.3648 -0.2397  0.4102
54727SOL    HW170018   8.776   1.975  11.194  1.6052 -2.6588 -0.9178
54727SOL    HW270019   8.915   1.979  11.255  0.6566  1.4602  1.3993
54728SOL     OW70020   8.565   6.981   9.732  0.5560  0.2761 -0.4526
54728SOL    HW170021   8.646   6.933   9.716 -0.6558 -1.7864 -0.7711
54728SOL    HW270022   8.590   7.052   9.790  2.8470  0.5875 -1.7045
54729SOL     OW70023   6.134   3.009   5.533  0.4830 -0.6572 -0.1349
54729SOL    HW170024   6.190   3.086   5.523 -1.3199  0.8727  0.8389
54729SOL    HW270025   6.099   2.993   5.446 -0.4953  0.7970 -0.0560
54730SOL     OW70026   1.560   1.748   3.137  0.4177 -0.3808 -0.7746
54730SOL    HW170027   1.652   1.721   3.147  0.5998 -0.0930 -1.5581
54730SOL    HW270028   1.510   1.679   3.179  1.0380  0.0165  0.6668
54731SOL     OW70029   3.985   9.860   0.365 -0.6044 -0.0313 -0.6710
54731SOL    HW170030   3.919   9.836   0.429 -2.7152  1.3112 -2.2465
54731SOL    HW270031   4.017   9.775   0.331 -0.8701 -0.6995  0.6959
54732SOL     OW70032  10.741   2.220   2.825  0.1551 -0.3367 -0.2583
54732SOL    HW170033  10.814   2.228   2.887  0.0133 -0.1599 -0.1143
54732SOL    HW270034  10.669   2.186   2.877  0.4407 -1.5947 -0.6314
54733SOL     OW70035   1.620   3.600  10.758  0.2312 -0.0974 -0.7140
54733SOL    HW170036   1.637   3.601  10.664  1.7080  0.0048 -0.4780
54733SOL    HW270037   1.707   3.613  10.798 -0.4728  0.7065  0.6461
54734SOL     OW70038   7.060   0.362  11.323  0.3189 -0.1471 -0.4499
54734SOL    HW170039   7.012   0.390  11.245  0.5595  0.5284 -0.3613
54734SOL    HW270040   7.009   0.398  11.396  1.0320  0.7027 -0.3584
54735SOL     OW70041   8.749   0.124  11.021  0.0240  0.2336  0.2252
54735SOL    HW170042   8.820   0.141  11.084 -0.5337  0.3505  0.8336
54735SOL    HW270043   8.785   0.059  10.961  1.1737  1.3820 -0.3756
54736SOL     OW70044   5.042   0.408   4.948 -0.3917 -0.1511  0.2290
54736SOL    HW170045   5.046   0.365   4.863 -0.0549  0.1346  0.0972
54736SOL    HW270046   4.952   0.439   4.956 -0.2346  0.4949 -0.3642
54737SOL     OW70047   4.193  11.842   6.475  0.1343 -0.0171  0.6280
54737SOL    HW170048   4.136  11.855   6.399 -1.7512  0.2944  2.0275
54737SOL    HW270049   4.147  11.885   6.547  1.5889 -0.7874  2.0843
54738SOL     OW70050  12.017   3.633   5.655 -0.3039  0.2953  0.2694
54738SOL    HW170051  12.111   3.619   5.665 -0.2327  0.7440  0.2336
54738SOL    HW270052  12.004   3.726   5.674 -0.9674 -0.0841  1.9373
54739SOL     OW70053  11.812   5.034  11.149  0.6823  0.0563  0.2514
54739SOL    HW170054  11.854   4.974  11.211  0.5519 -1.2694 -0.9232
54739SOL    HW270055  11.731   5.061  11.193  0.7351 -0.6295  0.7817
54740SOL     OW70056   4.713   5.125   0.281  0.2743 -0.1695  0.2787
54740SOL    HW170057   4.652   5.051   0.282  0.3535 -0.2383  1.2511
54740SOL    HW270058   4.761   5.116   0.199 -0.1053 -0.8745  0.1285
54741SOL     OW70059   0.812   9.226   8.032 -0.3767 -0.4649 -0.0103
54741SOL    HW170060   0.847   9.148   7.988  0.6446  0.7348 -1.4550
54741SOL    HW270061   0.717   9.215   8.027 -0.2546 -1.4266 -0.5800
54742SOL     OW70062   4.880   7.731   5.641 -0.2649  0.0197 -0.2438
54742SOL    HW170063   4.934   7.735   5.720 -1.5240  1.1110  0.6119
54742SOL    HW270064   4.833   7.647   5.649  0.3118 -0.3154 -0.3255
54743SOL     OW70065   2.519  11.665   1.430  0.1988  0.1235  0.1463
54743SOL    HW170066   2.425  11.673   1.413 -0.0624  2.2199  2.1476
54743SOL    HW270067   2.528  11.683   1.524  2.7465  1.4766 -0.2717
54744SOL     OW70068   2.573   5.840   9.290 -0.0816 -0.3482 -0.5927
54744SOL    HW170069   2.499   5.874   9.339  0.3052 -1.7586  1.0588
54744SOL    HW270070   2.550   5.750   9.270  0.0704 -0.0178 -2.4641
54745SOL     OW70071  11.017   3.840   2.808  0.2552  0.4687 -0.5643
54745SOL    HW170072  11.105   3.803   2.809  0.0217 -0.0807 -0.3932
54745SOL    HW270073  11.003   3.870   2.898 -1.3958 -3.4313  0.6711
54746SOL     OW70074   9.628  10.988   8.990 -0.2062 -0.0609 -0.4062
54746SOL    HW170075   9.630  10.918   9.055  0.9268 -3.0567 -3.4097
54746SOL    HW270076   9.536  10.997   8.967 -0.4620  0.0933  0.6245
54747SOL     OW70077   5.352   8.051   6.965  0.2940 -0.0866  0.1772
54747SOL    HW170078   5.360   7.955   6.971  0.3991 -0.2609 -1.9722
54747SOL    HW270079   5.258   8.067   6.968  0.3011  0.0153  2.8441
54748SOL     OW70080  10.070   1.037   7.009  0.4719  0.4851  0.3105
54748SOL    HW170081  10.105   0.952   6.983 -0.2145  0.4499 -0.5385
54748SOL    HW270082  10.142   1.098   6.994  0.0886  0.4992 -1.9427
54749SOL     OW70083   7.842   6.959   4.959 -0.4434  0.2323  0.0182
54749SOL    HW170084   7.778   6.891   4.937 -0.9803  0.9169 -0.5882
54749SOL    HW270085   7.919   6.911   4.989 -0.4273 -0.6966 -1.3998
54750SOL     OW70086   5.970   3.479   8.179  0.2527 -0.4353 -0.6152
54750SOL    HW170087   5.890   3.491   8.128  0.7072 -0.8241 -1.4398
54750SOL    HW270088   6.021   3.558   8.163  0.4213 -0.5834 -0.8166
54751SOL     OW70089   7.443   0.349  10.615 -0.3513  0.5360 -0.3025
54751SOL    HW170090   7.530   0.334  10.579 -0.4697 -1.1996  0.0316
54751SOL    HW270091   7.436   0.286  10.687 -2.1554  0.0677 -0.8331
54752SOL     OW70092   3.067   0.015   1.459  0.3024 -0.0645 -0.4294
54752SOL    HW170093   3.161   0.017   1.446  0.3755  0.4096  0.1325
54752SOL    HW270094   3.055   0.034   1.552 -0.4083  1.6537 -0.8302
54753SOL     OW70095   5.368   1.059  12.197 -0.5017 -0.4867  0.3170
54753SOL    HW170096   5.422   1.023  12.267  1.3483  0.0547 -0.7697
54753SOL    HW270097   5.418   1.041  12.117 -2.1316 -0.2959 -0.7909
54754SOL     OW70098   5.378   2.258   6.310  0.1983  0.0036  0.1173
54754SOL    HW170099   5.354   2.243   6.402  1.9675  2.2490  1.0304
54754SOL    HW270100   5.313   2.208   6.260 -0.6418 -1.5283  2.5683
54755SOL     OW70101  12.200   8.124  10.819 -0.7603  0.1418  0.0384
54755SOL    HW170102  12.140   8.051  10.833 -1.7879  0.9590  0.0941
54755SOL    HW270103  12.193   8.176  10.899 -1.1413  1.0358 -0.5542
54756SOL     OW70104  12.188  10.632   7.057 -0.0954 -0.1180  0.2986
54756SOL    HW170105  12.132  10.629   6.980  0.2423 -2.3617  0.0898
54756SOL    HW270106  12.127  10.646   7.130 -0.9243 -1.8808  0.0080
54757SOL     OW70107   5.556   5.415  12.054  0.2195 -0.2735 -1.0097
54757SOL    HW170108   5.605   5.334  12.073 -0.5726 -0.4402  0.4362
54757SOL    HW270109   5.582   5.475  12.124 -2.1348 -0.6116  0.2645
54758SOL     OW70110   1.855   9.300   2.981  0.0119 -0.3753  0.3014
54758SOL    HW170111   1.804   9.375   3.013 -0.7325 -1.1440  0.9772
54758SOL    HW270112   1.863   9.243   3.058  1.1234 -0.6963 -0.0374
54759SOL     OW70113   8.257  11.199   2.768 -0.1387 -0.1833  0.3278
54759SOL    HW170114   8.226  11.287   2.789 -1.2301 -0.5501  0.2866
54759SOL    HW270115   8.277  11.159   2.853 -0.9920 -0.3695  0.4554
54760SOL     OW70116   3.571  10.922  11.722 -0.2608 -0.1552 -0.1663
54760SOL    HW170117   3.483  10.894  11.698 -0.8414  1.3337  0.1203
54760SOL    HW270118   3.576  11.013  11.692  0.3315  0.5581  1.9400
54761SOL     OW70119  12.067   3.896   5.743 -0.3893 -0.1711 -0.0726
54761SOL    HW170120  12.155   3.931   5.753  0.1859 -1.3902 -0.7357
54761SOL    HW270121  12.014   3.948   5.803  0.7429  0.6767  0.2273
54762SOL     OW70122   4.205   4.222   1.075 -0.4483  0.0797  0.0595
54762SOL    HW170123   4.175   4.134   1.094 -0.3115  0.0180 -0.0060
54762SOL    HW270124   4.285   4.232   1.126 -0.7364  0.3500  0.4669
54763SOL     OW70125   2.644  12.269   2.763  0.3841 -0.1085  0.2105
54763SOL    HW170126   2.646  12.174   2.754  1.7292 -0.4972  3.4953
54763SOL    HW270127   2.726  12.299   2.724 -0.7604  0.0082 -2.3459
54764SOL     OW70128   6.214   8.010   8.390 -0.3547  0.3275 -0.1137
54764SOL    HW170129   6.258   7.965   8.462  0.2357  0.6328 -0.2763
54764SOL    HW270130   6.202   8.100   8.421  0.5551  0.6521 -0.6519
54765SOL     OW70131  10.790   9.549  10.697 -0.6923  0.2027  0.1325
54765SOL    HW170132  10.818   9.613  10.632 -1.3048  1.3504  0.9609
54765SOL    HW270133  10.841   9.570  10.775 -1.2883  0.0381  0.5737
54766SOL     OW70134   9.181   0.822   9.000  0.4824 -0.1565  0.2646
54766SOL    HW170135   9.256   0.883   9.001 -0.4497  1.0672 -0.8570
54766SOL    HW270136   9.210   0.749   8.946  0.4849  0.8945 -1.2346
54767SOL     OW70137   1.849   7.410   2.708 -0.2742 -0.3754  0.2510
54767SOL    HW170138   1.898   7.472   2.654  0.8115 -0.4612  1.1026
54767SOL    HW270139   1.784   7.463   2.753 -1.1807 -0.2959 -1.0764
54768SOL     OW70140   0.048   6.484   0.312  0.2036 -0.0493  0.5975
54768SOL    HW170141   0.086   6.519   0.232 -1.4348 -1.8789 -1.0941
54768SOL    HW270142   0.023   6.561   0.363  0.4025  1.1788 -1.0885
54769SOL     OW70143   4.261   3.871   3.801  0.3040 -0.0975 -0.3523
54769SOL    HW170144   4.305   3.800   3.848 -0.6326  0.3033  1.1999
54769SOL    HW270145   4.207   3.827   3.736  1.4876 -0.6743 -0.9787
54770SOL     OW70146   6.326   0.417   3.677 -0.2340 -0.0232  0.0613
54770SOL    HW170147   6.338   0.350   3.610  1.6153  0.3166  0.0073
54770SOL    HW270148   6.236   0.448   3.663  0.0052 -0.1096 -2.1466
54771SOL     OW70149  12.287   5.945   2.572 -0.0223  0.1950  0.0603
54771SOL    HW170150  12.372   5.915   2.542 -1.0145 -1.8648 -0.9366
54771SOL    HW270151  12.293   6.040   2.575  2.9246  0.0677  2.0303
54772SOL     OW70152  12.261   9.701   2.525 -0.1375  0.2770 -0.1949
54772SOL    HW170153  12.213   9.647   2.462  0.1560 -2.8531  2.0264
54772SOL    HW270154  12.330   9.644   2.558  1.4257  2.6979  1.0086
54773SOL     OW70155   5.625   5.738   1.825 -0.1901  0.4664 -0.5167
54773SOL    HW170156   5.646   5.801   1.895  1.1983 -0.7772  0.2312
54773SOL    HW270157   5.542   5.698   1.853  1.5413 -1.8079  1.8140
54774SOL     OW70158   9.759   5.124   0.614 -0.0888 -0.4366 -0.2984
54774SOL    HW170159   9.813   5.114   0.536  0.8900 -1.2627  0.4465
54774SOL    HW270160   9.816   5.094   0.686 -0.7671  0.7772  0.7930
54775SOL     OW70161   8.071   3.826   0.353  0.5013  0.5480  0.1922
54775SOL    HW170162   8.138   3.763   0.325 -1.3845 -2.5837  2.1986
54775SOL    HW270163   8.093   3.845   0.444 -0.5594  0.6027  0.4443
54776SOL     OW70164   1.679  11.665   0.648  0.1950 -0.1610 -0.0257
54776SOL    HW170165   1.585  11.676   0.629  0.2251 -0.0358 -0.1018
54776SOL    HW270166   1.722  11.678   0.563  0.1343 -2.2664 -0.4427
54777SOL     OW70167   4.348   7.892   9.149  0.0361  0.1579  0.0597
54777SOL    HW170168   4.423   7.931   9.104  0.2304 -0.4911 -0.1832
54777SOL    HW270169   4.273   7.943   9.120  0.0086 -0.8508 -1.7903
54778SOL     OW70170  11.391  10.758   1.084 -0.2209  0.1187 -0.0159
54778SOL    HW170171  11.378  10.839   1.035 -0.6779 -0.1807 -0.4025
54778SOL    HW270172  11.321  10.700   1.054  0.1255 -0.4362  0.2198
54779SOL     OW70173   7.418   7.287   0.952 -0.3516  0.4045  0.1141
54779SOL    HW170174   7.460   7.209   0.917 -0.5958 -0.2167  1.1681
54779SOL    HW270175   7.393   7.338   0.875 -2.5953 -1.7924 -0.7206
54780SOL     OW70176   9.514   7.872   3.355  0.8521  0.1177 -0.3301
54780SOL    HW170177   9.516   7.921   3.273 -1.3295  0.7883 -0.0412
54780SOL    HW270178   9.476   7.932   3.419  0.9362 -0.9534  0.7760
54781SOL     OW70179   8.781   4.696   3.512 -0.8034  0.3260  0.3530
54781SOL    HW170180   8.744   4.608   3.504  0.3859 -0.1005 -0.6625
54781SOL    HW270181   8.873   4.681   3.532 -0.1614  1.3037 -1.6754
54782SOL     OW70182   7.113  11.673   4.661  0.4737 -0.0307 -0.3264
54782SOL    HW170183   7.083  11.747   4.714  1.7447  0.9510 -0.9252
54782SOL    HW270184   7.149  11.612   4.725 -0.2726  0.0022  0.1455
54783SOL     OW70185   4.903   2.607   9.903 -0.1137  0.1569 -0.2965
54783SOL    HW170186   4.996   2.629   9.912 -0.1619  0.4931 -0.5672
54783SOL    HW270187   4.857   2.678   9.949 -0.1698 -1.4944  2.3833
54784SOL     OW70188   9.853   8.367   3.873  0.0228 -0.2261  0.8598
54784SOL    HW170189   9.906   8.447   3.879  0.7573 -0.5392 -0.8047
54784SOL    HW270190   9.811   8.359   3.958  1.1668  1.0837  1.5801
54785SOL     OW70191   3.526   6.711   1.487 -0.7550  0.0154 -0.3344
54785SOL    HW170192   3.481   6.626   1.488  0.3725 -0.6336 -1.4219
54785SOL    HW270193   3.488   6.758   1.413  0.7512 -0.7994 -1.6776
54786SOL     OW70194  12.094   8.136   8.623 -0.0354  0.1018 -0.0396
54786SOL    HW170195  12.161   8.096   8.567  1.1522  0.0968  1.3366
54786SOL    HW270196  12.050   8.199   8.566  1.5892  0.5956 -0.8219
54787SOL     OW70197   9.991   5.416   1.924 -0.5486 -0.4576 -0.1269
54787SOL    HW170198   9.954   5.415   1.836  1.1440  0.3482 -0.9072
54787SOL    HW270199   9.916   5.429   1.982 -1.7453 -1.3731 -1.4006
54788SOL     OW70200   4.711   7.977   1.884  0.3908 -0.5806 -0.1304
54788SOL    HW170201   4.757   7.893   1.884  0.3648 -0.5985 -0.6856
54788SOL    HW270202   4.625   7.957   1.848  0.5047 -0.2532 -0.5959
54789SOL     OW70203  10.744  10.067   9.433  0.2751 -0.5197  0.1650
54789SOL    HW170204  10.734   9.976   9.405  0.0363  0.0473 -1.8063
54789SOL    HW270205  10.654  10.099   9.441  0.3608 -0.4082  0.7030
54790SOL     OW70206   6.680   8.920   9.483  0.5156  0.4767  0.3838
54790SOL    HW170207   6.638   8.994   9.440  1.3581  0.3300 -0.7552
54790SOL    HW270208   6.610   8.878   9.532 -1.1254 -0.7021 -2.6816
54791SOL     OW70209  11.726   8.377  11.897 -0.0627  0.6213  0.4588
54791SOL    HW170210  11.739   8.373  11.991 -0.3403 -0.1314  0.4719
54791SOL    HW270211  11.631   8.385  11.885 -0.0726  0.2235  0.2394
54792SOL     OW70212  11.804   0.297  11.151 -0.1431  0.1426  0.8729
54792SOL    HW170213  11.818   0.392  11.159 -0.1510  0.2752 -0.4226
54792SOL    HW270214  11.718   0.290  11.109  0.5793 -0.3821 -0.5652
54793SOL     OW70215   8.233  10.611   4.370  0.4985  0.3809  0.2200
54793SOL    HW170216   8.186  10.548   4.316 -1.3638  1.7805  0.0909
54793SOL    HW270217   8.295  10.559   4.421  0.5905 -1.2497 -1.4639
54794SOL     OW70218   6.364  12.062   7.895  1.0934  0.0599 -0.3253
54794SOL    HW170219   6.281  12.103   7.870  0.7425 -1.6992 -2.4039
54794SOL    HW270220   6.388  12.104   7.978 -1.1893  1.5447 -0.3236
54795SOL     OW70221   3.482   2.820   2.197  0.4330  0.3375  0.1948
54795SOL    HW170222   3.474   2.900   2.250  1.2745  0.9841 -0.6260
54795SOL    HW270223   3.414   2.762   2.232  1.4125  0.4321  2.4810
54796SOL     OW70224   2.597   0.767   5.149 -0.1522 -0.3368 -0.9443
54796SOL    HW170225   2.518   0.729   5.188 -0.0610  0.0675 -0.3464
54796SOL    HW270226   2.566   0.806   5.067 -0.6142 -0.0120 -0.6229
54797SOL     OW70227   4.288   8.520   5.463 -0.1287  0.3548 -0.5932
54797SOL    HW170228   4.325   8.608   5.455 -0.7202  0.7018  0.3754
54797SOL    HW270229   4.364   8.462   5.458  0.4823  1.0164  0.4989
54798SOL     OW70230   9.600   0.466   8.456  0.0910 -0.1002 -0.5400
54798SOL    HW170231   9.633   0.400   8.394  0.1998 -1.3236  0.7632
54798SOL    HW270232   9.677   0.520   8.476  0.7868 -1.4453  0.6280
54799SOL     OW70233   2.254   8.572  11.035  0.2749  0.0054 -0.2442
54799SOL    HW170234   2.219   8.658  11.060 -0.0303 -0.0499 -0.4835
54799SOL    HW270235   2.179   8.513  11.040 -0.4467  0.4474 -3.7932
54800SOL     OW70236   6.017   7.909   3.069  0.4910  0.1642 -0.3018
54800SOL    HW170237   6.062   7.974   3.014 -0.3223  1.0046 -0.0053
54800SOL    HW270238   6.064   7.911   3.152 -0.6422  1.7603  0.3473
54801SOL     OW70239   6.750  10.813  11.832 -0.4248 -0.3884  0.0593
54801SOL    HW170240   6.744  10.813  11.928  0.6547 -0.5890  0.1455
54801SOL    HW270241   6.758  10.906  11.809  0.4046 -0.3943  0.2676
54802SOL     OW70242   3.866   1.448  11.457 -0.6209 -0.0585  0.2163
54802SOL    HW170243   3.807   1.386  11.415  0.2707 -1.3120  0.7682
54802SOL    HW270244   3.953   1.425  11.424 -0.0444 -0.3676  1.8916
54803SOL     OW70245   4.372   5.136   5.070  0.1036 -0.6171 -0.1031
54803SOL    HW170246   4.366   5.086   4.988  1.3927 -0.3573 -0.3675
54803SOL    HW270247   4.404   5.222   5.043  1.3261 -0.7878  0.7654
54804SOL     OW70248   8.425   2.677   5.165  0.0174 -0.1315 -0.6777
54804SOL    HW170249   8.334   2.658   5.144  0.3665 -1.7766 -0.8867
54804SOL    HW270250   8.454   2.601   5.217  1.7725 -0.5799 -2.2067
54805SOL     OW70251   8.753   3.401  12.172  0.2489 -0.2950  0.4029
54805SOL    HW170252   8.823   3.356  12.126 -0.1545 -3.7501  2.7578
54805SOL    HW270253   8.796   3.444  12.246  0.1435 -0.4706  0.5665
54806SOL     OW70254   9.553  12.010   4.889  0.2131  0.0394 -0.4698
54806SOL    HW170255   9.575  12.024   4.797  0.9859 -0.4247 -0.3650
54806SOL    HW270256   9.557  12.097   4.928 -1.2903  0.4189 -1.1046
54807SOL     OW70257   3.020   7.471   3.749  0.3976  0.3746  0.3088
54807SOL    HW170258   3.017   7.408   3.821  1.6615 -0.6101 -0.4509
54807SOL    HW270259   3.020   7.417   3.670 -1.0524  1.4427 -0.4559
54808SOL     OW70260  11.999   5.632   1.165 -0.6665  0.1431 -0.2089
54808SOL    HW170261  12.047   5.550   1.151  0.6578  1.1474 -1.8303
54808SOL    HW270262  12.045   5.675   1.236 -2.5211 -1.2899  2.0274
54809SOL     OW70263   6.450   1.924   0.015  0.0043  0.0666 -0.0713
54809SOL    HW170264   6.534   1.882  -0.001 -0.3410 -1.4130  1.6857
54809SOL    HW270265   6.457   1.960   0.104 -0.2744  2.4188 -0.9232
54810SOL     OW70266  11.040   1.936   6.670 -0.1756 -0.3011 -0.6899
54810SOL    HW170267  11.004   2.001   6.730 -0.9259 -0.2486 -1.1880
54810SOL    HW270268  10.977   1.864   6.672 -0.0409 -0.4349 -1.1669
54811SOL     OW70269   2.505   4.668   2.921  0.7114  0.6855  0.4422
54811SOL    HW170270   2.515   4.757   2.954 -0.8928  0.7541  0.8027
54811SOL    HW270271   2.518   4.676   2.826 -0.8652  1.5839  0.2706
54812SOL     OW70272  10.088   9.517   4.119  0.4804 -0.2153 -0.2500
54812SOL    HW170273  10.061   9.596   4.072 -1.9232 -1.2245 -0.7173
54812SOL    HW270274  10.161   9.545   4.174 -0.6107  2.4462 -0.0360
54813SOL     OW70275   4.295   3.956   8.269 -0.0316 -0.2567 -0.0261
54813SOL    HW170276   4.305   3.985   8.178 -0.8900 -3.1591 -1.1509
54813SOL    HW270277   4.384   3.929   8.294  0.3058  0.9991  0.2308
54814SOL     OW70278  10.691   6.392  10.078  0.0149 -0.2778  0.0810
54814SOL    HW170279  10.732   6.469  10.117 -0.4670  0.8456 -1.5337
54814SOL    HW270280  10.629   6.361  10.144 -1.0975  1.8160  0.0882
54815SOL     OW70281   7.619  11.428   3.539 -0.6306  0.0879 -0.1433
54815SOL    HW170282   7.577  11.402   3.621  1.5026 -0.6155  0.7879
54815SOL    HW270283   7.672  11.353   3.514  0.1811  0.9708 -1.1750
54816SOL     OW70284   8.117   4.326   2.878  0.2952 -0.6475 -0.3582
54816SOL    HW170285   8.070   4.256   2.925  1.6367 -1.3458 -0.0106
54816SOL    HW270286   8.048   4.377   2.835 -0.9041 -0.5782  1.5647
54817SOL     OW70287   5.504   8.658   1.204 -0.2272 -0.3409  0.5386
54817SOL    HW170288   5.472   8.707   1.280 -0.6930 -0.4246  0.3969
54817SOL    HW270289   5.587   8.621   1.232  0.3412  0.8689  0.5267
54818SOL     OW70290   1.304   2.279  10.181 -0.1244 -0.6801 -0.5704
54818SOL    HW170291   1.310   2.319  10.094 -1.4296  1.7265  0.3635
54818SOL    HW270292   1.342   2.343  10.240 -0.5518 -1.6482  0.8160
54819SOL     OW70293   5.043  10.674   4.377  0.3111  0.1292  0.9717
54819SOL    HW170294   4.965  10.727   4.362  0.4541 -0.3890 -2.3011
54819SOL    HW270295   5.018  10.585   4.353  1.6695 -0.1857  0.6007
54820SOL     OW70296  11.344   9.566  11.138  0.2834 -0.2362 -0.2425
54820SOL    HW170297  11.266   9.601  11.182  1.0135 -0.6087  1.3953
54820SOL    HW270298  11.392   9.644  11.110  0.5223  0.0470  0.9165
54821SOL     OW70299   1.884   1.690  10.866  0.2043  0.1837  0.2269
54821SOL    HW170300   1.944   1.690  10.791  0.9108  2.2034  0.7185
54821SOL    HW270301   1.935   1.728  10.937 -0.8777 -0.4661  1.3786
54822SOL     OW70302   6.160  12.217  10.939 -0.1600 -0.2272  0.2928
54822SOL    HW170303   6.127  12.289  10.886 -1.2854 -0.0672  1.1708
54822SOL    HW270304   6.082  12.174  10.974  0.5196 -1.1058  0.7881
54823SOL     OW70305   6.688   5.895   6.392 -0.0196  0.3816  0.0740
54823SOL    HW170306   6.719   5.848   6.469  1.1467 -0.1962 -0.7113
54823SOL    HW270307   6.747   5.970   6.383 -0.3036  0.5871 -0.1056
54824SOL     OW70308   0.883   4.700   8.114 -0.0711 -0.0289  0.0273
54824SOL    HW170309   0.850   4.626   8.166  0.6522 -0.4461 -0.0972
54824SOL    HW270310   0.860   4.678   8.024  2.1420 -1.2478 -0.3069
54825SOL     OW70311   0.427   9.641   0.503 -0.4911  0.4154 -0.3326
54825SOL    HW170312   0.431   9.630   0.598 -1.5207 -1.8174 -0.4718
54825SOL    HW270313   0.515   9.671   0.478  0.4218 -0.9132  1.1304
54826SOL     OW70314   1.172   2.664   9.449  0.3950 -0.4775 -0.1474
54826SOL    HW170315   1.079   2.682   9.453  0.3510 -0.7404  0.1043
54826SOL    HW270316   1.203   2.711   9.372  0.3404  0.8837  0.6325
54827SOL     OW70317   3.785  11.486   2.239  0.1972  0.0126 -0.0646
54827SOL    HW170318   3.829  11.567   2.213  0.4721 -0.4174 -0.9470
54827SOL    HW270319   3.715  11.475   2.175 -1.2601  0.6912  1.3138
54828SOL     OW70320   8.574   3.608   2.680 -0.0621 -0.2578  0.0680
54828SOL    HW170321   8.561   3.691   2.634 -2.9158  0.0854  1.2598
54828SOL    HW270322   8.501   3.553   2.650 -0.4538 -0.9425  2.1242
54829SOL     OW70323   3.804   4.679   3.627  0.5526 -0.0919  0.1424
54829SOL    HW170324   3.826   4.772   3.623 -0.8265  0.2342 -0.5600
54829SOL    HW270325   3.729   4.674   3.687  2.0536 -1.0906  2.0390
54830SOL     OW70326   6.145   7.984  12.066 -0.5598 -0.4749  0.0970
54830SOL    HW170327   6.102   8.065  12.094 -1.1153 -0.4795 -0.6839
54830SOL    HW270328   6.076   7.918  12.069  0.0999 -1.1417  1.5805
54831SOL     OW70329   1.680   8.096   0.639  0.0622  0.3086  0.2224
54831SOL    HW170330   1.689   8.139   0.554  1.1284  0.0977  0.2173
54831SOL    HW270331   1.679   8.003   0.618  2.8214  0.1212  0.5788
54832SOL     OW70332   5.531   1.382   9.970  0.4201  0.2884 -0.2846
54832SOL    HW170333   5.480   1.425  10.038 -0.3218 -0.3305 -0.4346
54832SOL    HW270334   5.617   1.425   9.973  0.4270  0.2168  1.0921
54833SOL     OW70335   4.209  10.345  12.305  0.1104 -0.5359  0.4863
54833SOL    HW170336   4.300  10.319  12.290  0.3011 -0.8776  2.0683
54833SOL    HW270337   4.160  10.263  12.304 -0.7378 -0.1555 -3.3961
54834SOL     OW70338   8.766   3.592  10.680  0.2438 -0.4230  0.4651
54834SOL    HW170339   8.805   3.668  10.724 -0.8342  1.3434 -1.4101
54834SOL    HW270340   8.685   3.627  10.642  0.4710 -2.1425 -1.7600
54835SOL     OW70341   2.464   7.504  10.650  0.7206  0.5212  0.5330
54835SOL    HW170342   2.446   7.588  10.608 -0.7391  0.1612  0.3712
54835SOL    HW270343   2.390   7.491  10.709  0.9379 -0.6475  0.5658
54836SOL     OW70344   0.617   7.558   6.731 -0.0615 -0.0174 -0.1218
54836SOL    HW170345   0.565   7.592   6.658  0.0674  1.1498  0.2970
54836SOL    HW270346   0.567   7.483   6.763  0.0912 -0.8101 -1.6496
54837SOL     OW70347  10.377   5.125   0.791 -0.2001  0.0124 -0.2897
54837SOL    HW170348  10.318   5.198   0.811  0.0464 -0.1227  1.0211
54837SOL    HW270349  10.385   5.126   0.695 -2.6624 -0.2647 -0.5578
54838SOL     OW70350   7.782   0.814   4.822  0.4448  0.2001 -0.8625
54838SOL    HW170351   7.709   0.831   4.881  1.7006  1.4022  0.4414
54838SOL    HW270352   7.834   0.894   4.824  4.8224 -2.2214  2.8568
54839SOL     OW70353   4.699   9.885   1.697 -0.4871  0.2670  0.3981
54839SOL    HW170354   4.737   9.839   1.622 -2.0732 -0.0771 -0.2349
54839SOL    HW270355   4.755   9.861   1.770  0.1621 -0.6851 -0.3854
54840SOL     OW70356   5.697   3.199  12.206 -0.3212 -0.1973  0.2105
54840SOL    HW170357   5.684   3.285  12.245  0.8706  0.5673 -0.9955
54840SOL    HW270358   5.639   3.141  12.255 -1.3665  1.3399  0.8505
54841SOL     OW70359   4.350   4.920   6.264 -0.3997 -0.1421 -0.2145
54841SOL    HW170360   4.404   4.968   6.202 -0.2017 -1.3929 -1.0545
54841SOL    HW270361   4.345   4.831   6.228 -0.7879 -0.7498  1.2537
54842SOL     OW70362   6.812   3.573  10.396  0.0687  0.5211  0.1915
54842SOL    HW170363   6.875   3.600  10.463 -1.2658  2.3932  0.7756
54842SOL    HW270364   6.766   3.499  10.435 -0.4050  1.3283  1.2191
54843SOL     OW70365   2.017  11.028   8.318 -0.2839 -0.2507  0.3177
54843SOL    HW170366   1.996  10.989   8.233 -1.6695  1.1842 -0.0408
54843SOL    HW270367   1.979  11.115   8.315  0.9723  0.3992  1.8641
54844SOL     OW70368   3.372   0.462  10.474 -0.1858  0.0344 -0.2014
54844SOL    HW170369   3.375   0.493  10.565  0.4136  0.3481 -0.3216
54844SOL    HW270370   3.330   0.377  10.479 -4.5193  1.9398 -0.1836
54845SOL     OW70371   9.429   1.618  10.388  0.3192  0.4906 -0.2704
54845SOL    HW170372   9.505   1.671  10.413  0.9694 -0.0578 -1.0244
54845SOL    HW270373   9.388   1.668  10.318  1.1949 -0.1761 -1.3008
54846SOL     OW70374   2.408  12.076   2.988 -0.6835 -0.0444  0.0841
54846SOL    HW170375   2.454  12.119   3.060 -0.8541 -1.6441  1.2063
54846SOL    HW270376   2.447  11.989   2.984 -0.1614  0.2414 -2.2875
54847SOL     OW70377  12.209   0.089  10.733 -0.0075  0.3050 -0.1457
54847SOL    HW170378  12.246   0.150  10.798 -1.6695  0.8841  0.2957
54847SOL    HW270379  12.244   0.120  10.649 -0.3082  1.4713  0.1451
54848SOL     OW70380  10.583   0.312  10.715 -0.5472  0.5621  0.1465
54848SOL    HW170381  10.499   0.316  10.670 -0.6574 -0.0529  0.2916
54848SOL    HW270382  10.620   0.228  10.689  0.4889  1.2659 -0.7303
54849SOL     OW70383   7.255   3.537   8.714 -0.5447 -0.1306 -0.0217
54849SOL    HW170384   7.274   3.629   8.730  0.1223 -0.5032  1.5237
54849SOL    HW270385   7.340   3.493   8.722 -0.3202 -0.6129 -3.4888
54850SOL     OW70386   5.397   3.918   6.804 -0.1413  0.1158  0.4188
54850SOL    HW170387   5.310   3.884   6.783 -0.0270 -0.0371  0.1765
54850SOL    HW270388   5.457   3.859   6.758  0.0157  1.8940 -1.8903
54851SOL     OW70389   2.519   8.778   8.017 -0.4597 -0.1432  0.2818
54851SOL    HW170390   2.540   8.801   7.926 -1.2161 -0.4706  0.0155
54851SOL    HW270391   2.599   8.799   8.066 -0.5018  1.3482 -0.2347
54852SOL     OW70392  11.571  11.720   4.358  0.3165  0.1969  0.0349
54852SOL    HW170393  11.531  11.757   4.279  1.3919  0.7073 -0.2988
54852SOL    HW270394  11.665  11.717   4.337  0.4759 -0.8232  0.8370
54853SOL     OW70395   7.647   9.274   2.094  0.3808  0.3558 -0.5512
54853SOL    HW170396   7.731   9.230   2.087  0.5643  0.8424 -1.5757
54853SOL    HW270397   7.600   9.226   2.163  0.1439 -2.1790 -2.3487
54854SOL     OW70398   5.257   4.701   0.735  0.0422 -0.1952  0.5929
54854SOL    HW170399   5.215   4.778   0.695  0.2841 -0.2605  0.2094
54854SOL    HW270400   5.335   4.686   0.682  0.0900 -0.5998  0.7756
54855SOL     OW70401  11.205   5.513   0.512  0.2513 -0.2277  0.1497
54855SOL    HW170402  11.203   5.609   0.510 -1.6385 -0.2213  0.3227
54855SOL    HW270403  11.291   5.490   0.477 -0.1726  1.5045 -2.2988
54856SOL     OW70404   1.241   7.095   1.867 -0.1520 -0.4047  0.1046
54856SOL    HW170405   1.287   7.026   1.820 -1.6011 -0.5716 -1.1455
54856SOL    HW270406   1.209   7.053   1.947 -0.7861 -1.1123 -0.5130
54857SOL     OW70407   4.356   0.752   9.761  0.1115  0.5022  0.1411
54857SOL    HW170408   4.384   0.720   9.847 -0.2951  0.7958  0.3838
54857SOL    HW270409   4.432   0.737   9.705 -0.1435 -1.1404  0.1782
54858SOL     OW70410  10.385   6.913   6.876 -0.1153  0.4398 -0.6240
54858SOL    HW170411  10.308   6.948   6.831 -1.1691 -0.9107  0.0486
54858SOL    HW270412  10.369   6.819   6.882  1.2571  0.2248  0.1702
54859SOL     OW70413   5.642   2.630  11.403 -0.1236 -0.5309 -0.1047
54859SOL    HW170414   5.602   2.561  11.350 -1.7807  0.0864  0.2928
54859SOL    HW270415   5.672   2.585  11.482 -1.3330 -0.8004  0.2207
54860SOL     OW70416   0.046   5.696   1.573 -0.0930 -0.0757 -0.2739
54860SOL    HW170417   0.105   5.699   1.497  0.4224 -0.0568  0.1265
54860SOL    HW270418   0.091   5.747   1.640 -0.3319 -0.4966  0.2036
54861SOL     OW70419   1.804  10.275   6.860  0.2505 -0.2689 -0.0034
54861SOL    HW170420   1.747  10.247   6.931 -0.1284  1.5655  0.4547
54861SOL    HW270421   1.862  10.200   6.845 -0.1438 -0.9658  1.7355
54862SOL     OW70422   2.307   9.810  11.749  0.6890  0.4087  0.1229
54862SOL    HW170423   2.227   9.760  11.761  0.6461  0.5016  0.2332
54862SOL    HW270424   2.363   9.755  11.694  0.3116  0.6097 -0.4668
54863SOL     OW70425  11.770   8.687   0.052  0.7507  0.2488 -0.0636
54863SOL    HW170426  11.839   8.735   0.006  0.9747 -2.7705 -3.2387
54863SOL    HW270427  11.811   8.605   0.079 -1.1743 -1.0145 -0.7587
54864SOL     OW70428   1.563   3.409   7.476 -0.1172  0.8969  0.1501
54864SOL    HW170429   1.606   3.471   7.416 -0.5916 -0.2488 -1.4443
54864SOL    HW270430   1.578   3.323   7.436 -1.9338  0.2526  0.7735
54865SOL     OW70431   7.336   5.180   7.791  0.6425  0.8017  0.3860
54865SOL    HW170432   7.404   5.118   7.766  0.7127  1.2651 -0.6427
54865SOL    HW270433   7.269   5.170   7.724  0.1469  1.0568  0.8339
54866SOL     OW70434   3.661  10.814   9.426 -0.0944 -0.7136  0.8062
54866SOL    HW170435   3.724  10.791   9.358 -0.6431 -2.1145  0.7342
54866SOL    HW270436   3.693  10.771   9.505 -0.4272 -0.5908  1.0128
54867SOL     OW70437   5.105   6.525   3.334  0.1949  0.1122 -0.3011
54867SOL    HW170438   5.111   6.457   3.401  1.7100 -1.3309 -1.7827
54867SOL    HW270439   5.089   6.477   3.253 -1.8888  1.8188 -0.9926
54868SOL     OW70440  11.996   8.619  11.188  0.1578 -0.4717  0.0850
54868SOL    HW170441  12.075   8.570  11.165  1.3248  1.2380  0.2307
54868SOL    HW270442  11.958   8.570  11.261  0.7034 -1.7024 -0.4297
54869SOL     OW70443   7.353   0.136   0.477  0.0732 -0.1406  0.0813
54869SOL    HW170444   7.358   0.061   0.418  0.1517 -0.3732  0.3816
54869SOL    HW270445   7.335   0.098   0.563 -0.5777  0.2350  0.1155
54870SOL     OW70446   4.654  11.320   2.618  0.7213  0.3511  0.1614
54870SOL    HW170447   4.712  11.310   2.694 -0.2383  0.8475  0.9729
54870SOL    HW270448   4.709  11.296   2.544  1.8452  0.3802  0.9525
54871SOL     OW70449   6.594   1.545   6.015 -0.2773 -0.2114  0.1632
54871SOL    HW170450   6.525   1.501   6.066  0.1624  0.2385  1.1747
54871SOL    HW270451   6.546   1.601   5.954 -0.8160 -0.3132  0.4820
54872SOL     OW70452   5.993   9.519  10.361 -0.1257  0.2296  0.6157
54872SOL    HW170453   6.054   9.557  10.425  1.6007 -1.8852  0.3435
54872SOL    HW270454   6.046   9.456  10.312 -2.0002 -0.0014 -1.2712
54873SOL     OW70455  11.986   9.578   5.838 -0.2809  0.2375 -0.2479
54873SOL    HW170456  11.891   9.577   5.828 -0.2601 -0.1324 -0.4196
54873SOL    HW270457  12.001   9.623   5.921 -0.6989 -1.4092  0.7805
54874SOL     OW70458   7.581  11.300   4.687  0.0073  0.0166  0.4983
54874SOL    HW170459   7.510  11.306   4.623 -0.1465 -0.0808  0.6583
54874SOL    HW270460   7.537  11.277   4.769  0.2058  0.1190  0.6336
54875SOL     OW70461   8.323   4.195   5.730 -0.3269  0.1606  0.1509
54875SOL    HW170462   8.322   4.236   5.816 -3.2374  1.5757 -0.4542
54875SOL    HW270463   8.234   4.205   5.696  0.5120 -0.9597 -2.7660
54876SOL     OW70464   1.948   7.122   5.525  0.0356  0.7250 -0.5691
54876SOL    HW170465   1.854   7.132   5.508 -0.3004  0.0032  0.7039
54876SOL    HW270466   1.990   7.183   5.464 -1.2345  0.8376 -1.3743
54877SOL     OW70467   4.660   9.644  10.876 -0.1236  0.8442  0.1708
54877SOL    HW170468   4.748   9.628  10.909 -0.6203 -1.8822  0.3652
54877SOL    HW270469   4.617   9.693  10.947  0.8715  1.1869  0.5555
54878SOL     OW70470   4.943   8.891   2.842  0.1019 -0.0282  0.2615
54878SOL    HW170471   4.948   8.985   2.824  0.3718  0.0320  0.6511
54878SOL    HW270472   4.849   8.875   2.853  0.0279  0.1406 -0.0733
54879SOL     OW70473   4.871   3.322   5.836  0.3965 -0.2839 -0.0183
54879SOL    HW170474   4.897   3.338   5.927  0.4643  0.5438 -0.1714
54879SOL    HW270475   4.793   3.377   5.823  1.2892  0.8359 -0.8972
54880SOL     OW70476  10.823   4.566   8.052 -0.0932  0.4060  0.1849
54880SOL    HW170477  10.805   4.653   8.016 -0.6734 -0.1882 -1.0181
54880SOL    HW270478  10.892   4.531   7.996 -0.8489 -0.4487 -0.2316
54881SOL     OW70479   4.759   1.905   6.178  0.4540  0.3283  0.3213
54881SOL    HW170480   4.708   1.964   6.124 -0.7587 -0.4622  0.5653
54881SOL    HW270481   4.850   1.919   6.150 -0.1390 -0.3468 -2.2520
54882SOL     OW70482   4.169   0.075   3.658 -0.8022  0.1777  0.0662
54882SOL    HW170483   4.224   0.015   3.609 -1.9936 -0.5685 -0.4180
54882SOL    HW270484   4.145   0.143   3.595  0.4476  1.1380  0.5806
54883SOL     OW70485   5.459   2.573  12.313 -0.0418  0.1203 -0.4550
54883SOL    HW170486   5.514   2.584  12.390 -0.2984 -2.3518  0.1596
54883SOL    HW270487   5.431   2.662  12.291  0.5610  0.9633  1.8909
54884SOL     OW70488   0.067   7.921   6.669  0.6314 -0.2222 -0.4098
54884SOL    HW170489   0.156   7.957   6.667  1.0739 -1.2079  0.4215
54884SOL    HW270490   0.012   7.995   6.693  1.4993 -0.0291  1.1465
54885SOL     OW70491   6.233  10.374   9.279 -0.1178  0.5947 -0.1963
54885SOL    HW170492   6.168  10.405   9.342 -1.0509 -1.7761  0.1383
54885SOL    HW270493   6.221  10.279   9.279  4.0510 -0.1152  0.6304
54886SOL     OW70494   2.718   4.184   0.393 -0.5675 -0.4455  0.0315
54886SOL    HW170495   2.753   4.272   0.377 -1.7022  0.0361  0.1049
54886SOL    HW270496   2.780   4.126   0.349  1.2659  0.2154  1.6073
54887SOL     OW70497   7.942   6.550  12.057 -0.0231  0.0990 -0.0786
54887SOL    HW170498   7.930   6.635  12.014  0.3075  1.3658  2.1648
54887SOL    HW270499   7.897   6.488  12.000 -1.1249  1.9248 -1.3080
54888SOL     OW70500   3.288   4.108  10.938  0.0140 -0.1099 -0.1545
54888SOL    HW170501   3.297   4.052  10.861 -0.3761 -0.3374 -0.0397
54888SOL    HW270502   3.234   4.181  10.908  0.2085  0.0121 -0.2058
54889SOL     OW70503   6.922   1.538  10.410 -0.0542  0.1551  0.2093
54889SOL    HW170504   6.843   1.564  10.458 -1.0770 -0.5006 -1.0612
54889SOL    HW270505   6.960   1.620  10.379  0.3198  0.5462  1.6327
54890SOL     OW70506   2.216   9.556  10.961 -0.2766  0.3758 -0.7616
54890SOL    HW170507   2.196   9.570  10.869  1.0688  1.1903 -0.9514
54890SOL    HW270508   2.282   9.487  10.962 -2.3958 -1.7904 -0.1819
54891SOL     OW70509   4.573   0.416   2.259  0.2160 -0.3019  0.3205
54891SOL    HW170510   4.499   0.399   2.317  0.4630 -0.5318  0.5754
54891SOL    HW270511   4.628   0.338   2.268  0.6195 -0.0185  0.3402
54892SOL     OW70512   4.897   8.688   3.892 -0.7346  0.3604  0.1529
54892SOL    HW170513   4.927   8.613   3.945 -1.3277 -1.0893 -1.4559
54892SOL    HW270514   4.977   8.732   3.865 -0.3828  0.4953  1.3721
54893SOL     OW70515   5.301   2.498   9.613 -0.0756 -0.2759 -0.2865
54893SOL    HW170516   5.374   2.556   9.590 -0.6062  0.5859  0.1595
54893SOL    HW270517   5.277   2.523   9.702 -0.5871 -0.8979 -0.2419
54894SOL     OW70518   3.797   2.038   1.935 -0.5689 -0.2783  0.3105
54894SOL    HW170519   3.889   2.062   1.945 -0.0001 -2.1583  0.0757
54894SOL    HW270520   3.792   1.994   1.850 -1.4758 -1.0076  0.7123
54895SOL     OW70521   1.874   6.804   0.210  0.8505 -0.0341 -0.4035
54895SOL    HW170522   1.932   6.826   0.137  0.6399 -1.6355 -1.1091
54895SOL    HW270523   1.882   6.708   0.218  0.8342  0.0850  1.6537
54896SOL     OW70524   6.764   9.172   3.258 -0.1917 -0.4064 -0.2659
54896SOL    HW170525   6.844   9.168   3.205  0.4634 -2.3528  0.7776
54896SOL    HW270526   6.731   9.083   3.258 -1.9691  0.2100 -0.0211
54897SOL     OW70527   7.606  10.923  10.121  0.2626  0.0777 -0.2036
54897SOL    HW170528   7.548  10.916  10.196  0.2228  0.0880 -0.2336
54897SOL    HW270529   7.569  10.864  10.056  0.5705 -0.2975 -0.0414
54898SOL     OW70530   4.577  10.105  10.389 -0.1417  0.3141  0.3332
54898SOL    HW170531   4.660  10.057  10.398 -0.4565 -0.0132  1.6702
54898SOL    HW270532   4.599  10.195  10.413 -0.4230 -0.0339  2.0112
54899SOL     OW70533   4.219  10.806   0.633  0.2310  0.5140 -0.1337
54899SOL    HW170534   4.153  10.817   0.564 -0.3288 -1.2181  0.0881
54899SOL    HW270535   4.168  10.811   0.714  0.7713  1.7065  0.1579
54900SOL     OW70536   8.270   4.705   6.699 -0.8159 -0.4826  0.5152
54900SOL    HW170537   8.272   4.788   6.651  0.3301 -0.0971  1.2025
54900SOL    HW270538   8.329   4.648   6.650 -0.6704 -0.5042  0.7135
54901SOL     OW70539   2.059   1.935   1.059  0.4544 -0.1820  0.3326
54901SOL    HW170540   1.984   1.980   1.099  0.6790 -0.1001  0.6640
54901SOL    HW270541   2.023   1.850   1.032  0.0850  0.1063 -0.0920
54902SOL     OW70542   8.670   5.415   0.531  0.1250 -0.5810  0.2923
54902SOL    HW170543   8.713   5.330   0.524  1.5747 -0.0969  2.5396
54902SOL    HW270544   8.741   5.477   0.547 -1.0168  0.8920 -0.1370
54903SOL     OW70545   3.388   1.010   0.987 -0.2057 -0.2274  0.3040
54903SOL    HW170546   3.453   0.995   0.918 -0.3897 -0.0125  0.0850
54903SOL    HW270547   3.361   1.101   0.976  0.0302 -0.0802  0.8883
54904SOL     OW70548   6.982   6.851   3.434 -0.1185  0.3953  0.5047
54904SOL    HW170549   7.006   6.774   3.485 -0.7611 -1.6729 -2.1185
54904SOL    HW270550   7.031   6.842   3.353 -3.2930  0.4814 -1.5717
54905SOL     OW70551   8.584   8.738   0.633 -0.2115 -0.0706 -0.4285
54905SOL    HW170552   8.640   8.699   0.701  0.4732  0.1212 -0.8699
54905SOL    HW270553   8.502   8.689   0.638  1.2328 -2.9574 -2.2308
54906SOL     OW70554   8.660   2.143   2.962  0.5275  0.4482  0.2592
54906SOL    HW170555   8.707   2.164   3.042 -0.6181 -1.0211  1.3765
54906SOL    HW270556   8.580   2.195   2.967 -0.3572 -0.9267  0.9681
54907SOL     OW70557   1.087   5.474   5.882  0.0423  0.1031  0.2056
54907SOL    HW170558   1.014   5.446   5.827  0.7343  0.8596 -1.1627
54907SOL    HW270559   1.072   5.568   5.896  0.1755  0.0334  0.8600
54908SOL     OW70560  11.911   3.504   7.372 -0.3432  0.0045 -0.8469
54908SOL    HW170561  11.919   3.427   7.428 -0.9845  0.1780 -0.5077
54908SOL    HW270562  11.997   3.545   7.377 -0.1459 -0.4175 -0.6321
54909SOL     OW70563   4.073   8.860  10.034  0.2181  0.5774 -0.7087
54909SOL    HW170564   3.999   8.807  10.061  1.0120 -0.9030 -1.3255
54909SOL    HW270565   4.060   8.876   9.941  0.5749  0.4649 -0.7815
54910SOL     OW70566   5.260   1.742   3.557  0.0505 -0.2220  0.2475
54910SOL    HW170567   5.328   1.706   3.614  1.8227 -0.9163 -2.1417
54910SOL    HW270568   5.304   1.807   3.503 -1.8728  1.4547  0.5740
54911SOL     OW70569   9.570   2.736   4.794 -0.6300 -0.1310 -0.2586
54911SOL    HW170570   9.475   2.727   4.801 -0.8045  1.9475  1.0658
54911SOL    HW270571   9.596   2.777   4.877  1.0203  1.9153 -1.6790
54912SOL     OW70572   7.583   2.462   0.828 -0.3501 -0.1713  0.2338
54912SOL    HW170573   7.616   2.430   0.912  0.6868  2.5845  0.9718
54912SOL    HW270574   7.497   2.498   0.848 -0.0922  0.5106  0.1384
54913SOL     OW70575   4.313   8.681   6.311  0.0963 -0.4755  0.1104
54913SOL    HW170576   4.395   8.656   6.267  0.0324  1.4237 -1.2406
54913SOL    HW270577   4.338   8.754   6.367 -0.4464 -0.7759  0.7526
54914SOL     OW70578   3.634  11.948   3.955  0.3365  0.4536 -0.2520
54914SOL    HW170579   3.560  11.945   4.015  0.2904  0.3706 -0.3120
54914SOL    HW270580   3.657  12.040   3.949 -1.9087  0.9675 -2.8531
54915SOL     OW70581   3.798  10.245   4.682 -0.3270  0.3049 -0.0064
54915SOL    HW170582   3.703  10.238   4.675 -0.5055  2.1017  0.1786
54915SOL    HW270583   3.814  10.339   4.694  1.3226 -0.1451  1.8877
54916SOL     OW70584   7.024  10.942   0.174 -0.5402 -0.0523  0.1048
54916SOL    HW170585   7.046  10.980   0.089  0.1025 -0.3876  0.1140
54916SOL    HW270586   6.959  11.002   0.212  0.1384  0.8016 -0.0629
54917SOL     OW70587   9.474  11.797   6.313 -0.1426 -0.0790  0.2093
54917SOL    HW170588   9.498  11.884   6.346  0.8973 -0.3350  0.1525
54917SOL    HW270589   9.551  11.743   6.329 -1.4288 -1.5088  2.0682
54918SOL     OW70590   5.395   2.635   7.161  0.3363  0.1891  0.3043
54918SOL    HW170591   5.302   2.642   7.138 -0.2002  0.7097  2.4212
54918SOL    HW270592   5.439   2.619   7.077 -1.3736  2.4413 -1.1455
54919SOL     OW70593   6.006   2.268   2.425 -0.2791 -0.2172  0.0867
54919SOL    HW170594   6.001   2.176   2.449  1.0528 -0.3168  0.0634
54919SOL    HW270595   5.915   2.295   2.413 -0.9353 -0.7303  3.0201
54920SOL     OW70596   3.553   8.515   7.899 -0.2545  0.7822  0.0483
54920SOL    HW170597   3.473   8.517   7.845 -0.0557  0.9134 -0.2432
54920SOL    HW270598   3.573   8.422   7.908  0.9183  0.7908 -1.9181
54921SOL     OW70599   5.295   9.055   1.495  0.1045  0.8788 -0.1824
54921SOL    HW170600   5.291   8.985   1.560 -1.4557  1.4357  0.3538
54921SOL    HW270601   5.360   9.024   1.432 -0.0648 -0.7494  0.3845
54922SOL     OW70602   6.128   7.017   4.174 -0.6040 -0.1910  0.0471
54922SOL    HW170603   6.042   7.009   4.214 -0.9367 -0.9261 -0.7768
54922SOL    HW270604   6.124   6.960   4.097  0.3390  0.4154 -0.4731
54923SOL     OW70605   3.079  11.616   2.745 -0.5142  0.1715  0.4521
54923SOL    HW170606   3.076  11.691   2.805  0.6785  0.6296 -0.0319
54923SOL    HW270607   3.169  11.585   2.749 -1.1021 -1.5785  1.0094
54924SOL     OW70608   2.650   0.108   3.049 -0.7495 -0.0121  0.4087
54924SOL    HW170609   2.744   0.123   3.049 -0.7120 -0.2567  0.5688
54924SOL    HW270610   2.633   0.063   2.967 -0.5071 -1.3717  1.0816
54925SOL     OW70611   4.750   9.030   4.408 -0.4258 -0.0698 -0.3910
54925SOL    HW170612   4.713   8.950   4.447  1.0091 -1.0721 -0.9857
54925SOL    HW270613   4.702   9.041   4.326 -1.3023  0.2710  0.1419
54926SOL     OW70614   7.440   4.893   4.542  0.3985 -0.2723  0.6318
54926SOL    HW170615   7.409   4.810   4.577  0.4535 -0.7885 -0.5019
54926SOL    HW270616   7.535   4.892   4.560  0.9803 -1.8622 -1.9849
54927SOL     OW70617   6.792   4.457   9.985 -0.6601  0.0414 -0.0945
54927SOL    HW170618   6.699   4.440   9.965 -0.1838 -2.6590 -0.3741
54927SOL    HW270619   6.814   4.533   9.931 -2.3406 -0.1881 -1.1961
54928SOL     OW70620  10.769   6.610   9.072 -0.1204 -0.4511 -0.5080
54928SOL    HW170621  10.715   6.550   9.022 -0.9435  0.0446 -0.2397
54928SOL    HW270622  10.859   6.582   9.055 -0.4113 -0.7004 -1.7197
54929SOL     OW70623   2.707   0.589   0.462 -0.6280  0.0373 -0.0865
54929SOL    HW170624   2.738   0.510   0.506 -1.2561  0.2042  0.6871
54929SOL    HW270625   2.733   0.578   0.371  0.4837 -0.4374  0.2741
54930SOL     OW70626   1.559   8.827   8.547 -0.0351  0.1872 -0.4249
54930SOL    HW170627   1.466   8.809   8.536 -0.3647  0.0303  2.0717
54930SOL    HW270628   1.572   8.913   8.506 -2.0649  1.8294  2.0982
54931SOL     OW70629   0.320   6.988   6.613 -0.5258 -0.1154  0.3075
54931SOL    HW170630   0.319   7.083   6.615 -0.3597 -0.0892 -0.5136
54931SOL    HW270631   0.234   6.961   6.646  0.0309  0.2643  2.2076
54932SOL     OW70632   7.465   0.139   7.005  0.3770 -0.3684 -0.9380
54932SOL    HW170633   7.374   0.126   6.979  0.9747 -1.8894 -2.4492
54932SOL    HW270634   7.475   0.233   7.013 -1.7786 -0.2507  1.0371
54933SOL     OW70635   9.642   6.555   9.207 -0.4437  0.4279  0.4326
54933SOL    HW170636   9.645   6.648   9.182  0.7862  0.8200  1.8175
54933SOL    HW270637   9.733   6.526   9.201 -0.8321 -0.7325 -0.0748
54934SOL     OW70638   7.946  11.397   8.769 -0.6751 -0.1664 -0.3179
54934SOL    HW170639   8.002  11.342   8.713  0.8285  1.0427 -0.0788
54934SOL    HW270640   7.953  11.484   8.731 -1.1564  0.3113  0.6644
54935SOL     OW70641   0.687   1.407  11.057  0.0075  0.4621  0.2023
54935SOL    HW170642   0.668   1.328  11.008  0.3474 -0.4450  1.4924
54935SOL    HW270643   0.756   1.382  11.118  1.3708  2.2029 -0.5242
54936SOL     OW70644   5.114   1.193   7.051  0.1020 -0.7849 -0.0156
54936SOL    HW170645   5.141   1.154   6.968 -0.3341 -0.6534 -0.2197
54936SOL    HW270646   5.158   1.140   7.118  0.7101 -0.6955 -0.3350
54937SOL     OW70647   7.811   0.214   6.545 -0.0195  0.7794  0.2054
54937SOL    HW170648   7.825   0.258   6.630 -0.5635  0.7013  0.3354
54937SOL    HW270649   7.898   0.216   6.504  0.0618  1.6089  0.3833
54938SOL     OW70650   5.576   8.081   3.062  0.2552  0.0532 -0.0879
54938SOL    HW170651   5.558   8.047   2.975 -1.1852  0.5521 -0.0075
54938SOL    HW270652   5.654   8.032   3.091 -0.5696 -1.7519 -0.7511
54939SOL     OW70653   7.033   2.703   6.430 -0.2996  0.9133 -0.2677
54939SOL    HW170654   6.958   2.749   6.466  0.1365  1.2320  0.2519
54939SOL    HW270655   7.072   2.658   6.506 -0.4925  0.0020 -0.6916
54940SOL     OW70656   0.093   2.716   2.476  0.1893 -0.8754  0.1033
54940SOL    HW170657   0.086   2.707   2.381 -2.2195 -1.2908  0.2510
54940SOL    HW270658   0.069   2.807   2.494 -2.2943 -1.5087  0.4344
54941SOL     OW70659   3.778   5.107  11.009  0.2748  0.3391  0.2597
54941SOL    HW170660   3.712   5.038  11.017 -0.0561 -0.0035 -3.4683
54941SOL    HW270661   3.862   5.061  11.018  0.0312 -0.3506 -0.8234
54942SOL     OW70662   5.669   7.117  11.847 -0.1158  0.8666  0.6944
54942SOL    HW170663   5.651   7.027  11.872  2.5736  0.1855  0.3855
54942SOL    HW270664   5.610   7.133  11.773 -1.1474 -0.3577  1.2094
54943SOL     OW70665   4.735   4.532   3.945 -0.0123  0.0014  0.2380
54943SOL    HW170666   4.830   4.531   3.935  0.3713 -0.7477  2.9866
54943SOL    HW270667   4.700   4.525   3.856  2.5209 -3.1057 -0.6502
54944SOL     OW70668   5.079   8.819  11.980  0.0797  0.1796  0.1134
54944SOL    HW170669   5.130   8.870  11.917 -0.6393  0.5566 -0.1696
54944SOL    HW270670   5.075   8.731  11.942 -1.6897  0.7742 -1.1855
54945SOL     OW70671   2.271   2.641   4.131  0.4881  0.4472 -0.3083
54945SOL    HW170672   2.214   2.595   4.193 -1.0338  0.7091 -1.4412
54945SOL    HW270673   2.300   2.719   4.178  2.6068 -1.2279  1.4314
54946SOL     OW70674  10.798   7.625   8.685  0.0029  0.6914 -0.3547
54946SOL    HW170675  10.832   7.558   8.744  1.4660  0.8577 -0.9691
54946SOL    HW270676  10.849   7.704   8.707 -0.4459  1.1325 -0.8653
54947SOL     OW70677   3.107   2.888   4.609 -0.6625 -0.3056  0.3365
54947SOL    HW170678   3.116   2.885   4.705 -1.8689 -1.3602  0.4370
54947SOL    HW270679   3.016   2.915   4.594  0.2423  2.7070 -0.5789
54948SOL     OW70680   0.304   8.892  10.639 -0.1886 -0.4110  0.2144
54948SOL    HW170681   0.382   8.886  10.695  1.3386 -0.0443 -1.7785
54948SOL    HW270682   0.293   8.986  10.624  0.2310 -0.5707 -1.1548
54949SOL     OW70683   2.949   5.988   3.413 -0.1111  0.1650  0.0318
54949SOL    HW170684   2.858   6.000   3.437 -0.1371  0.8005 -0.3651
54949SOL    HW270685   2.945   5.941   3.329 -0.1006  0.9329 -0.4081
54950SOL     OW70686   4.320   5.196   4.185 -0.1690 -0.0584 -0.8022
54950SOL    HW170687   4.373   5.212   4.106  0.0595  1.1790 -0.4230
54950SOL    HW270688   4.342   5.106   4.211  0.0028 -0.3622 -1.9542
54951SOL     OW70689   6.961   4.405   6.546  0.2414 -0.6441 -0.0123
54951SOL    HW170690   6.985   4.317   6.518  0.5414 -0.8125  0.7697
54951SOL    HW270691   6.889   4.392   6.608 -0.2445 -0.2850 -0.4851
54952SOL     OW70692   1.051   6.733  12.050 -0.6024  0.0235 -0.2580
54952SOL    HW170693   1.140   6.730  12.015 -0.1863 -0.8018  0.8161
54952SOL    HW270694   1.022   6.642  12.050 -0.3359 -0.1159  2.0735
54953SOL     OW70695   4.421   6.218   4.381  0.3213  0.3277 -0.4050
54953SOL    HW170696   4.403   6.135   4.336  1.3517  0.0838 -0.3984
54953SOL    HW270697   4.449   6.191   4.468  0.4030  0.6988 -0.3175
54954SOL     OW70698   7.102   1.250   5.643 -0.4121 -0.1088  0.0505
54954SOL    HW170699   7.137   1.256   5.555  0.9131  0.9871  0.6087
54954SOL    HW270700   7.176   1.223   5.697 -0.4941  1.7650  1.1993
54955SOL     OW70701  10.368  12.073   5.409  0.4257 -0.2027 -0.2800
54955SOL    HW170702  10.402  11.984   5.407 -1.6740 -1.1326  1.1064
54955SOL    HW270703  10.372  12.098   5.501 -2.5037 -0.4453  0.0378
54956SOL     OW70704   6.575   3.428   0.417  0.2029 -0.0930 -0.5571
54956SOL    HW170705   6.635   3.499   0.395  0.2546  0.7806  2.0636
54956SOL    HW270706   6.488   3.464   0.400  0.2791 -0.0091 -0.7795
54957SOL     OW70707   1.288  11.981   3.189  0.3488 -0.2156  0.3687
54957SOL    HW170708   1.300  12.073   3.167 -0.4055  0.0302  0.9590
54957SOL    HW270709   1.367  11.959   3.240 -0.2245  0.5726  1.6544
54958SOL     OW70710   7.248  11.119  10.898  0.2266  0.3069  0.0224
54958SOL    HW170711   7.326  11.122  10.953 -0.4952 -0.4355  1.1090
54958SOL    HW270712   7.282  11.106  10.809  1.2962 -1.1254  0.6146
54959SOL     OW70713   4.028   7.649   8.306  0.1470  0.3491 -0.1924
54959SOL    HW170714   3.965   7.720   8.298 -0.6007 -0.0318  1.6307
54959SOL    HW270715   4.080   7.671   8.384  0.3913 -0.7164 -0.0270
54960SOL     OW70716   9.203   5.194   5.382  0.3362  0.2650  0.0814
54960SOL    HW170717   9.258   5.198   5.303 -0.5478  0.9654 -0.5198
54960SOL    HW270718   9.114   5.184   5.348  0.0628 -0.7124  1.0356
54961SOL     OW70719  11.812  11.802   4.573  0.1219 -0.1163 -0.9977
54961SOL    HW170720  11.724  11.841   4.574  0.7400  1.3673  0.1897
54961SOL    HW270721  11.805  11.729   4.512 -2.2136 -0.6897 -0.1390
54962SOL     OW70722   9.952   1.440  10.042 -0.2999 -0.3017  0.2736
54962SOL    HW170723  10.002   1.379   9.987  1.5274  1.5762 -0.2779
54962SOL    HW270724   9.927   1.511   9.983 -3.6529 -1.0633  0.5652
54963SOL     OW70725   7.449   6.336   7.970 -0.0877  0.0863 -0.3052
54963SOL    HW170726   7.459   6.328   7.875 -1.0535  1.0441 -0.5075
54963SOL    HW270727   7.527   6.383   7.999 -0.0477  0.2630 -0.7001
54964SOL     OW70728  10.884  11.750   3.896  0.0712  0.4025 -0.2556
54964SOL    HW170729  10.832  11.794   3.963  1.3264  0.6456  0.5916
54964SOL    HW270730  10.881  11.657   3.921  0.1553  0.4309 -0.1428
54965SOL     OW70731   2.276   2.974   0.905  0.5398 -0.5010 -0.4655
54965SOL    HW170732   2.366   3.005   0.899  0.7466 -0.9524  0.2136
54965SOL    HW270733   2.264   2.952   0.997 -0.7131  0.8535 -0.2623
54966SOL     OW70734   5.999   0.281   6.337 -0.4216  0.2732 -0.2652
54966SOL    HW170735   5.956   0.210   6.290  1.1133 -0.5294 -0.5272
54966SOL    HW270736   5.993   0.356   6.278  0.7117 -0.4895 -1.4061
54967SOL     OW70737  10.969   5.497   1.037  0.1107 -0.3172 -0.2762
54967SOL    HW170738  10.945   5.588   1.051 -0.3597 -0.6370  1.1511
54967SOL    HW270739  10.892   5.457   0.996 -0.7815 -0.6736  1.6362
54968SOL     OW70740   3.970   6.314   1.179 -0.1393 -0.0576  0.2399
54968SOL    HW170741   3.964   6.395   1.128 -2.9577 -0.1695  0.2071
54968SOL    HW270742   3.940   6.338   1.266  0.6860 -0.7406  0.7285
54969SOL     OW70743   2.077   2.329   7.232 -0.0786 -0.4244 -0.7054
54969SOL    HW170744   1.987   2.319   7.262 -0.8907 -1.8997 -3.2725
54969SOL    HW270745   2.096   2.247   7.186  1.0155  1.4542 -3.8985
54970SOL     OW70746  11.787  11.629  12.317  0.0790  0.5763 -0.0171
54970SOL    HW170747  11.770  11.593  12.229 -0.0243 -1.9270  0.9327
54970SOL    HW270748  11.701  11.653  12.349 -0.0278  0.4405 -0.1938
54971SOL     OW70749   1.550   2.752   3.588 -0.4760 -0.0594  0.6328
54971SOL    HW170750   1.615   2.763   3.658  0.4484  0.8053 -0.3270
54971SOL    HW270751   1.504   2.672   3.612  0.0806 -0.0064  2.0202
54972SOL     OW70752   2.594   6.176  11.706 -0.2713  0.6355  0.1272
54972SOL    HW170753   2.499   6.188  11.696 -0.3141  0.6768  0.5721
54972SOL    HW270754   2.607   6.082  11.694 -0.5739  0.3836  1.5859
54973SOL     OW70755   2.279  10.354   1.593  0.2662  0.7683  0.2606
54973SOL    HW170756   2.335  10.294   1.641 -0.3582  0.7967  1.0346
54973SOL    HW270757   2.209  10.376   1.654 -0.8111  0.4244 -0.8141
54974SOL     OW70758   9.710   1.734   2.299  0.1389 -0.3202 -0.0871
54974SOL    HW170759   9.801   1.759   2.317  0.3607 -0.8409 -0.4260
54974SOL    HW270760   9.677   1.701   2.382  0.3955 -0.5040 -0.0538
54975SOL     OW70761   4.797  10.135   5.737 -0.0544  0.0409  0.0001
54975SOL    HW170762   4.892  10.130   5.726 -0.0720 -0.9498  0.1873
54975SOL    HW270763   4.785  10.191   5.814  0.5242 -1.8639  1.5859
54976SOL     OW70764   9.597   3.523   7.629  0.1032 -1.0482  0.0268
54976SOL    HW170765   9.669   3.578   7.661 -0.8806  0.8874 -0.9224
54976SOL    HW270766   9.604   3.442   7.680  1.6981 -0.1052  1.3994
54977SOL     OW70767   5.326  11.092   1.450 -0.8184 -0.0184 -0.6318
54977SOL    HW170768   5.275  11.168   1.478 -1.3808 -0.2390 -1.0257
54977SOL    HW270769   5.289  11.018   1.499 -2.2332 -0.5124 -2.3433
54978SOL     OW70770   6.886  10.825   3.884  0.1181  0.3782 -0.2175
54978SOL    HW170771   6.838  10.907   3.897  0.2373  0.4396 -0.1556
54978SOL    HW270772   6.978  10.850   3.896  0.2885  0.5532 -1.6795
54979SOL     OW70773  10.262   8.666   3.654  0.0190 -0.0584  0.5215
54979SOL    HW170774  10.199   8.705   3.593  1.1769 -0.9211 -1.3000
54979SOL    HW270775  10.293   8.587   3.610  2.5103  0.4260  1.2444
54980SOL     OW70776   4.400   8.201  10.814 -0.0683  0.2042  1.2661
54980SOL    HW170777   4.475   8.255  10.836 -1.0103  1.4873  1.4171
54980SOL    HW270778   4.361   8.177  10.898  0.4621 -0.9349  1.2138
54981SOL     OW70779  11.866   8.843   2.475 -0.1084  0.1935 -0.2466
54981SOL    HW170780  11.896   8.836   2.384 -0.0473 -1.6311 -0.1385
54981SOL    HW270781  11.803   8.772   2.484  0.8215 -0.4684  1.4688
54982SOL     OW70782  12.131   1.440   9.139  0.0036 -0.4342  0.3243
54982SOL    HW170783  12.109   1.466   9.049  0.7969  1.0792  0.5400
54982SOL    HW270784  12.193   1.506   9.169 -1.0773 -0.2772  2.3778
54983SOL     OW70785   2.026  11.580   7.595 -0.1967  0.0639 -0.1091
54983SOL    HW170786   2.028  11.613   7.685  2.5879 -0.0725 -0.0598
54983SOL    HW270787   2.054  11.654   7.542  0.1360 -0.4398 -0.6469
54984SOL     OW70788  11.346   6.544   5.969 -0.1175 -0.3075 -0.1864
54984SOL    HW170789  11.404   6.468   5.968 -0.6822 -0.7843  1.0806
54984SOL    HW270790  11.364   6.589   5.887 -0.0876 -2.0454 -1.1708
54985SOL     OW70791  11.709   4.619  10.008 -0.1999 -0.2840 -0.0101
54985SOL    HW170792  11.710   4.692   9.947 -1.2695 -0.2333  0.0189
54985SOL    HW270793  11.634   4.636  10.065 -1.1800 -1.9661 -0.7201
54986SOL     OW70794  10.586  10.844   7.873  0.2749  0.5270  0.4057
54986SOL    HW170795  10.584  10.882   7.961 -0.0012  0.5265  0.4010
54986SOL    HW270796  10.599  10.751   7.888  0.3998  0.5489  0.4390
54987SOL     OW70797  10.731   9.015   0.712 -0.8924 -0.2011  0.1523
54987SOL    HW170798  10.637   9.027   0.721 -0.9090  0.5680 -0.8888
54987SOL    HW270799  10.749   9.032   0.620  0.5275  1.4518  0.6869
54988SOL     OW70800   8.411   0.897   4.540  0.0549 -0.5055 -0.6774
54988SOL    HW170801   8.490   0.951   4.540 -0.5569  0.4533  0.5032
54988SOL    HW270802   8.400   0.871   4.632 -2.0444  1.0354 -0.4322
54989SOL     OW70803   0.170  11.268   4.911 -0.3970  0.3539 -0.3045
54989SOL    HW170804   0.147  11.353   4.950 -0.9218  0.5211 -0.9629
54989SOL    HW270805   0.241  11.289   4.851 -0.3519  0.2877 -0.2726
54990SOL     OW70806  12.178   7.723   2.115  0.1871 -0.0433  0.1217
54990SOL    HW170807  12.118   7.713   2.189 -0.2807 -1.7018 -0.4360
54990SOL    HW270808  12.163   7.646   2.061 -0.3578  1.6810 -2.3677
54991SOL     OW70809   6.025   2.828   9.137  0.1943 -0.4257  0.5810
54991SOL    HW170810   6.015   2.781   9.054  2.0230  1.1907 -0.6553
54991SOL    HW270811   6.053   2.761   9.199 -0.1296 -1.4972 -0.3897
54992SOL     OW70812   2.626   5.277   5.736 -0.1144  0.0264 -0.1130
54992SOL    HW170813   2.633   5.193   5.691  1.6422  0.5712 -0.9577
54992SOL    HW270814   2.664   5.263   5.822 -0.4298 -0.2007 -0.0102
54993SOL     OW70815   9.155   2.804   5.253  0.4332  0.0734  0.2676
54993SOL    HW170816   9.161   2.830   5.161  1.1324 -0.0507  0.2740
54993SOL    HW270817   9.159   2.886   5.302 -0.7175  0.2047  0.1664
54994SOL     OW70818   9.743   9.870   1.404 -0.4081 -0.0176 -0.1379
54994SOL    HW170819   9.787   9.934   1.461  0.3345  1.0349 -1.8168
54994SOL    HW270820   9.773   9.893   1.316 -1.0828 -1.9538 -0.9037
54995SOL     OW70821   9.958   4.104  11.446  0.4729 -0.2523 -0.1337
54995SOL    HW170822   9.963   4.113  11.541  0.6980 -0.0627 -0.1625
54995SOL    HW270823  10.015   4.030  11.426  0.0157 -0.6269 -0.0713
54996SOL     OW70824  12.235   4.906  10.192  0.2728  0.3235 -1.0586
54996SOL    HW170825  12.212   4.858  10.112  1.4301 -0.3624 -1.0005
54996SOL    HW270826  12.158   4.898  10.248 -1.3931  2.5320 -2.8357
54997SOL     OW70827   0.218   4.435   6.575 -0.1340 -0.4396  0.2654
54997SOL    HW170828   0.198   4.525   6.547  0.8228 -0.4339 -0.4417
54997SOL    HW270829   0.275   4.445   6.650  1.4164 -0.4210 -0.8694
54998SOL     OW70830   7.718   3.345   8.183  0.5192  0.3533 -0.5982
54998SOL    HW170831   7.734   3.251   8.180  0.3877  0.3391 -0.9169
54998SOL    HW270832   7.689   3.362   8.273  1.0202  0.1723 -0.4004
54999SOL     OW70833   7.234   5.123   6.295  0.4537 -0.6020  0.0084
54999SOL    HW170834   7.320   5.141   6.257  0.4788 -1.0334 -0.1478
54999SOL    HW270835   7.239   5.031   6.321  0.2519 -0.4547  0.5712
55000SOL     OW70836  10.022   9.454   0.975  0.0014  0.6083 -0.4457
55000SOL    HW170837  10.021   9.526   1.038  0.2543  0.0997  0.1527
55000SOL    HW270838  10.058   9.380   1.024 -0.5245 -0.0034 -0.9634
55001SOL     OW70839   1.378   7.970   4.745 -0.3830 -0.7276 -0.4095
55001SOL    HW170840   1.376   7.929   4.659 -2.0715 -1.2469 -0.1588
55001SOL    HW270841   1.430   7.911   4.799  0.0879 -0.7557 -0.8806
55002SOL     OW70842   3.982   4.158   0.656 -0.5796  0.3889  0.0298
55002SOL    HW170843   4.074   4.185   0.664 -0.1239 -0.9039 -0.6009
55002SOL    HW270844   3.957   4.185   0.568 -0.6901  0.3969  0.0641
55003SOL     OW70845   3.129   2.781   1.448  0.1571 -0.2835 -0.0832
55003SOL    HW170846   3.184   2.858   1.436  0.6543 -0.5610  0.3527
55003SOL    HW270847   3.158   2.744   1.532 -1.4304  0.1579  0.6905
55004SOL     OW70848   8.117   0.759   8.128  0.5861  0.3747 -0.1384
55004SOL    HW170849   8.158   0.676   8.153  0.6673  0.3942 -0.2101
55004SOL    HW270850   8.145   0.774   8.038 -1.2854 -0.6822 -0.9560
55005SOL     OW70851  10.756   6.689   1.563  0.1759  0.3708  0.2160
55005SOL    HW170852  10.678   6.744   1.560  0.2790  0.5581  0.8133
55005SOL    HW270853  10.724   6.603   1.590 -0.2295 -0.3468 -2.3151
55006SOL     OW70854   5.513   9.400   3.182 -0.3220  0.0975  0.0468
55006SOL    HW170855   5.585   9.338   3.179 -0.2814 -0.1665  3.3991
55006SOL    HW270856   5.444   9.355   3.231 -1.0332  1.9675  0.8702
55007SOL     OW70857   2.555   4.901   1.147  0.7257  0.2721 -0.2329
55007SOL    HW170858   2.617   4.832   1.121  1.3271  1.5231 -2.3816
55007SOL    HW270859   2.486   4.897   1.081 -0.4621  0.2215  0.9860
55008SOL     OW70860   7.787   8.923   1.325  0.2883  0.0736 -0.0133
55008SOL    HW170861   7.874   8.958   1.310 -0.0213  0.4600 -0.9427
55008SOL    HW270862   7.740   8.993   1.371  0.6325 -0.3657  1.0560
55009SOL     OW70863   9.834   1.829   4.788 -0.2647  0.5835  0.0117
55009SOL    HW170864   9.843   1.909   4.735  1.9698  0.3528 -0.0206
55009SOL    HW270865   9.830   1.758   4.723  0.6622  0.4464  0.0980
55010SOL     OW70866   5.788   2.764  10.094 -0.1349  0.4790  0.3913
55010SOL    HW170867   5.799   2.845  10.144 -0.6653 -0.6825  2.5170
55010SOL    HW270868   5.843   2.700  10.139 -1.6781 -0.9610  0.3336
55011SOL     OW70869   2.580   3.318  10.217 -0.5993  0.1684 -0.1573
55011SOL    HW170870   2.511   3.352  10.275 -0.1959  0.7718 -0.0311
55011SOL    HW270871   2.556   3.226  10.205 -0.0819 -0.2929  1.9141
55012SOL     OW70872   8.878   9.592  12.123 -0.3502 -0.2075 -0.1005
55012SOL    HW170873   8.946   9.571  12.059  0.4258  0.7346  0.3864
55012SOL    HW270874   8.890   9.685  12.141 -0.6507 -0.4158  1.2936
55013SOL     OW70875   8.893   4.948   9.677  0.6935  0.3185 -0.3055
55013SOL    HW170876   8.888   5.028   9.624  0.5362  0.1897 -0.4877
55013SOL    HW270877   8.872   4.977   9.766 -0.4151  0.2984 -0.5535
55014SOL     OW70878  11.569   6.996   5.129  0.2970  0.2714 -0.1730
55014SOL    HW170879  11.606   7.021   5.213 -0.3856 -2.2439  0.9597
55014SOL    HW270880  11.567   6.901   5.130 -3.6098  0.1508 -1.2312
55015SOL     OW70881   6.506   5.584   0.788 -0.0206  0.6710 -0.4549
55015SOL    HW170882   6.496   5.656   0.726 -1.0647 -1.9379 -3.6584
55015SOL    HW270883   6.417   5.552   0.802  0.3820  0.1494  1.1283
55016SOL     OW70884   5.848   7.505   7.241 -0.7344 -0.3002  0.4649
55016SOL    HW170885   5.799   7.554   7.175 -0.3528  0.5862  0.8295
55016SOL    HW270886   5.792   7.508   7.319  0.2388  1.4515  1.1432
55017SOL     OW70887   0.050   4.918   4.400 -0.0979 -0.7724  0.7817
55017SOL    HW170888  -0.010   4.885   4.466 -0.0079 -1.3450  0.5895
55017SOL    HW270889   0.010   4.892   4.317 -1.0266  1.3121  0.5162
55018SOL     OW70890   0.892   5.182   2.656  0.3542 -0.0191  0.5016
55018SOL    HW170891   0.931   5.099   2.627  0.1298  0.6235 -1.9083
55018SOL    HW270892   0.884   5.233   2.575  0.4755  2.3649  1.9186
55019SOL     OW70893   7.582   1.006   1.599  0.0982  0.1891  0.2800
55019SOL    HW170894   7.672   0.990   1.571 -0.0041  0.3786 -0.1710
55019SOL    HW270895   7.558   1.088   1.555  0.0591  0.6961  1.2285
55020SOL     OW70896   3.669   6.096   7.450 -0.7929 -0.1039 -0.1193
55020SOL    HW170897   3.586   6.089   7.403 -0.1515  2.9771 -1.9987
55020SOL    HW270898   3.696   6.187   7.439  1.8269 -0.4218  2.2600
55021SOL     OW70899  12.218   8.807  12.129  0.2298 -0.4107 -0.3273
55021SOL    HW170900  12.143   8.793  12.186  1.3031  1.2038  1.6455
55021SOL    HW270901  12.180   8.830  12.044 -1.5553  0.9000  0.7489
55022SOL     OW70902   2.054   2.285   6.198  0.6178 -0.3697  0.2839
55022SOL    HW170903   2.057   2.205   6.144  1.6326 -1.5883  2.0586
55022SOL    HW270904   2.142   2.322   6.191  0.1560  0.6438 -0.5159
55023SOL     OW70905   3.097   0.155   4.033  0.1019 -0.5009 -0.1632
55023SOL    HW170906   3.057   0.171   3.948 -2.4083 -0.2625  0.9837
55023SOL    HW270907   3.180   0.202   4.030 -1.1999  1.8955 -1.5072
55024SOL     OW70908   7.856   8.663  10.180 -0.2960 -0.5558 -0.4388
55024SOL    HW170909   7.854   8.574  10.216 -0.4918  0.1567  1.4653
55024SOL    HW270910   7.895   8.715  10.250  1.4774  0.6140 -2.1846
55025SOL     OW70911   0.414   7.992   9.972  0.0705  0.0114  0.2697
55025SOL    HW170912   0.399   8.083  10.000 -2.0961 -0.1430 -0.2053
55025SOL    HW270913   0.338   7.972   9.917  0.7849 -1.9298 -0.0534
55026SOL     OW70914   1.880   0.258  10.501 -0.2748 -1.3339  0.3938
55026SOL    HW170915   1.843   0.285  10.585 -0.5882 -1.2259  0.2236
55026SOL    HW270916   1.911   0.168  10.516 -1.1170 -1.6380  0.3906
55027SOL     OW70917   3.883  10.798   5.868  0.0903 -0.0414 -0.0799
55027SOL    HW170918   3.944  10.753   5.926  0.4238  1.9269  1.1789
55027SOL    HW270919   3.848  10.728   5.812  0.0232 -1.9716  2.2028
55028SOL     OW70920   0.034  11.101   4.727 -0.4448 -0.4918  0.1556
55028SOL    HW170921   0.077  11.154   4.794 -0.0856 -0.6059  0.0206
55028SOL    HW270922   0.023  11.161   4.652  1.7519 -1.0833 -0.7271
55029SOL     OW70923   3.955   6.799   7.680 -0.2125 -0.4291 -0.1090
55029SOL    HW170924   3.870   6.756   7.675 -2.0758  2.7727  0.6157
55029SOL    HW270925   3.974   6.827   7.591  0.3894 -1.6435 -0.3690
55030SOL     OW70926   9.854   3.224   2.678 -0.4311 -0.5345  0.0506
55030SOL    HW170927   9.819   3.160   2.741 -3.3434  0.8299 -0.0250
55030SOL    HW270928   9.846   3.308   2.723 -2.3319  0.4464 -1.9704
55031SOL     OW70929   2.908   3.792   9.181 -0.3737  0.0753 -0.1867
55031SOL    HW170930   2.973   3.797   9.110 -1.5036  1.8621 -1.1428
55031SOL    HW270931   2.824   3.801   9.137 -1.1267  0.8084  1.3394
55032SOL     OW70932  11.000   9.991   3.908  0.3844  0.6178  0.0193
55032SOL    HW170933  10.927   9.944   3.947  3.0583 -3.2355  1.0219
55032SOL    HW270934  11.042  10.036   3.982  0.6065  0.4528 -0.0045
55033SOL     OW70935  12.273   8.916   2.093  0.3975  0.2930  0.2432
55033SOL    HW170936  12.197   8.974   2.087  1.6122  1.8527 -0.8760
55033SOL    HW270937  12.245   8.836   2.048 -0.5868  0.8155 -0.1083
55034SOL     OW70938   0.918   5.662  10.541  0.3037  0.0938 -0.0279
55034SOL    HW170939   0.869   5.621  10.612 -1.2459 -1.2166 -1.7648
55034SOL    HW270940   0.859   5.728  10.506 -0.4147 -1.5955 -2.2315
55035SOL     OW70941   2.076   7.394   3.746 -0.6773 -0.1554  0.1157
55035SOL    HW170942   2.132   7.396   3.668 -1.0035 -0.1570 -0.1216
55035SOL    HW270943   2.010   7.462   3.730  0.3690  1.1906  1.2416
55036SOL     OW70944   1.976   2.698   3.339  0.1956 -0.2803 -0.1255
55036SOL    HW170945   1.949   2.725   3.426  2.3215 -0.3118  0.6115
55036SOL    HW270946   2.028   2.618   3.353  1.7406  0.4663 -1.2222
55037SOL     OW70947   8.926   9.175   8.553  0.3470 -0.1017 -0.0269
55037SOL    HW170948   8.914   9.246   8.616 -0.5187 -0.4044  0.1692
55037SOL    HW270949   8.854   9.185   8.491  0.9470 -0.0643 -0.7285
55038SOL     OW70950  10.936  11.493   9.240 -0.0065 -0.0242 -0.1000
55038SOL    HW170951  10.886  11.568   9.271  3.1057  1.5786  1.4259
55038SOL    HW270952  10.895  11.418   9.282 -2.0878  0.9635 -0.2398
55039SOL     OW70953   7.883   2.015   5.949 -0.4545 -0.0769  0.3689
55039SOL    HW170954   7.973   1.985   5.960 -0.2852 -0.1874 -1.0865
55039SOL    HW270955   7.867   2.009   5.855 -1.4722  1.3996  0.4060
55040SOL     OW70956  11.285   4.985  10.774 -0.6895 -0.0249  0.2371
55040SOL    HW170957  11.249   5.064  10.735 -2.1511 -1.1907 -0.9220
55040SOL    HW270958  11.286   4.921  10.702  2.4793 -0.5088  0.5403
55041SOL     OW70959   2.911   9.054   0.025  0.0059  0.3415  0.5893
55041SOL    HW170960   2.856   9.009   0.089 -1.4858  0.8693 -0.2632
55041SOL    HW270961   2.901   9.147   0.047 -0.7078  0.5453 -0.5133
55042SOL     OW70962  11.901   5.052  11.741  0.4285  0.1130 -0.0750
55042SOL    HW170963  11.858   4.967  11.749 -0.0892  0.2435 -1.2133
55042SOL    HW270964  11.993   5.032  11.724  0.2892 -0.2321 -0.4317
55043SOL     OW70965   9.402   5.842   3.241  0.1401 -0.3091  0.3387
55043SOL    HW170966   9.354   5.767   3.278 -0.0029  0.1809  1.1734
55043SOL    HW270967   9.339   5.914   3.245 -0.3720 -0.5354 -2.1852
55044SOL     OW70968   8.689  12.229   1.665 -0.2942  0.1645  0.5811
55044SOL    HW170969   8.741  12.240   1.586 -1.2238 -2.1623 -0.4495
55044SOL    HW270970   8.740  12.171   1.720 -0.0660  1.0355  1.3041
55045SOL     OW70971   5.020   7.460   4.832 -0.5592 -0.1773  0.1144
55045SOL    HW170972   5.003   7.406   4.755 -1.4066  1.0147 -0.5648
55045SOL    HW270973   4.936   7.504   4.849  0.7706  3.0824 -1.0563
55046SOL     OW70974   1.255   5.265   6.557 -0.2860  0.3448 -0.3832
55046SOL    HW170975   1.168   5.228   6.540  0.0504 -0.3338 -0.6661
55046SOL    HW270976   1.283   5.223   6.638 -0.4383  0.9659 -0.0032
55047SOL     OW70977   8.350   9.867  10.002 -0.2597  0.0662  0.0606
55047SOL    HW170978   8.359   9.832   9.913 -0.1908  0.3185 -0.0338
55047SOL    HW270979   8.263   9.840  10.030  0.5164 -1.9381  0.7670
55048SOL     OW70980   7.157   6.980  11.083  0.9139  0.1630  0.0738
55048SOL    HW170981   7.082   6.967  11.024  0.5685 -1.4678  0.8093
55048SOL    HW270982   7.118   7.001  11.168  1.2626 -0.8843  0.5084
55049SOL     OW70983   0.891   5.197  11.873  0.6235  0.2060  0.2648
55049SOL    HW170984   0.916   5.273  11.926 -3.6194  1.9118  0.2217
55049SOL    HW270985   0.878   5.232  11.785 -0.1657 -0.8475 -0.0517
55050SOL     OW70986   3.413   4.149   2.820  0.1385  0.7463  0.2259
55050SOL    HW170987   3.400   4.217   2.754  0.8645 -0.8779 -1.6731
55050SOL    HW270988   3.420   4.197   2.902 -0.1160  2.8983 -0.9343
55051SOL     OW70989   5.847  11.447   9.862 -0.4655 -0.5124  0.0438
55051SOL    HW170990   5.912  11.467   9.929 -0.5712  1.6385 -0.4046
55051SOL    HW270991   5.884  11.483   9.781 -1.3210 -1.0630 -0.6137
55052SOL     OW70992   0.785   0.845   1.981 -0.4505 -0.1780 -0.5449
55052SOL    HW170993   0.857   0.879   1.927  0.6580 -0.5632  0.6402
55052SOL    HW270994   0.771   0.756   1.949  1.2506 -0.9734  0.7097
55053SOL     OW70995   4.462   4.012   6.623 -0.0279  0.1906  0.0785
55053SOL    HW170996   4.553   4.001   6.648 -0.9155 -0.8641  3.2626
55053SOL    HW270997   4.445   3.940   6.562  1.0522 -0.0532  0.0527
55054SOL     OW70998  11.745   2.398  10.206 -0.1243  0.1723 -0.4488
55054SOL    HW170999  11.809   2.328  10.203  0.5508  0.6404  1.3980
55054SOL    HW271000  11.693   2.380  10.285  0.1220  1.7423  0.1178
55055SOL     OW71001  10.866   2.525  11.307 -0.8180  0.3338  0.3193
55055SOL    HW171002  10.933   2.467  11.271 -1.5911 -0.1854 -0.3547
55055SOL    HW271003  10.913   2.604  11.334 -0.1237  0.6028 -1.5241
55056SOL     OW71004   7.992   6.514   1.097  0.3096 -0.2129 -0.0127
55056SOL    HW171005   7.959   6.426   1.081  0.0154 -0.9370  3.5632
55056SOL    HW271006   7.916   6.572   1.087  0.2309 -0.5141 -1.2036
55057SOL     OW71007   6.431   7.703   8.523  0.1552  0.1806  0.3552
55057SOL    HW171008   6.478   7.620   8.525 -0.1526 -0.0047  0.0918
55057SOL    HW271009   6.370   7.697   8.597 -0.1122  0.0198  0.1264
55058SOL     OW71010   5.508   3.835   8.885  0.1827  0.1137 -0.7113
55058SOL    HW171011   5.506   3.917   8.836 -1.8301  1.5009  1.4487
55058SOL    HW271012   5.585   3.842   8.941 -0.5155  1.0113  0.1607
55059SOL     OW71013  10.781   4.882   5.086  0.5002 -0.1647 -0.2685
55059SOL    HW171014  10.709   4.934   5.051 -0.1957  0.8276  2.4220
55059SOL    HW271015  10.752   4.856   5.173  2.3076 -2.0984 -0.1539
55060SOL     OW71016  11.360   3.348   3.015  0.4976 -0.3671 -0.2351
55060SOL    HW171017  11.413   3.283   3.061 -0.5130 -0.4125  0.9418
55060SOL    HW271018  11.280   3.300   2.992  0.5291 -0.0338 -1.0574
55061SOL     OW71019   3.958   8.182   6.987  0.3016 -0.0467 -0.3184
55061SOL    HW171020   3.983   8.263   7.033  0.8667 -0.3099 -0.1463
55061SOL    HW271021   4.013   8.114   7.027 -0.4391 -0.5854 -0.2007
55062SOL     OW71022  11.804   0.395   3.341 -0.0403 -0.4069 -1.1550
55062SOL    HW171023  11.843   0.308   3.353  1.1751  0.3465  0.7746
55062SOL    HW271024  11.837   0.425   3.257  1.0962 -1.0218 -0.9451
55063SOL     OW71025   3.427   7.499   4.943 -0.8974 -0.0544 -0.3887
55063SOL    HW171026   3.343   7.480   4.903 -0.9599  0.8629 -0.7095
55063SOL    HW271027   3.491   7.481   4.874 -0.8385 -0.5191 -0.2196
55064SOL     OW71028   2.415  11.274   4.270  0.0630 -0.2511 -0.9881
55064SOL    HW171029   2.476  11.236   4.207 -0.0368  1.0772 -1.9319
55064SOL    HW271030   2.447  11.245   4.355  1.4045 -0.4413 -1.5295
55065SOL     OW71031   3.435   0.232   6.932  0.9083  0.0667  0.1638
55065SOL    HW171032   3.508   0.281   6.893  0.0911  0.5724 -0.7852
55065SOL    HW271033   3.467   0.205   7.018  2.3429 -0.0502 -0.3821
55066SOL     OW71034   2.582  10.830   4.674  0.0452 -0.1017  0.4712
55066SOL    HW171035   2.539  10.744   4.669  2.0055 -1.1614  0.8528
55066SOL    HW271036   2.530  10.886   4.617 -1.3917 -1.4931  0.3434
55067SOL     OW71037  11.049   6.876   0.941  0.3793  0.6392 -0.7524
55067SOL    HW171038  11.082   6.838   0.859  0.2655  0.3911 -0.6850
55067SOL    HW271039  10.958   6.848   0.945  0.4764  0.3623 -0.3774
55068SOL     OW71040   9.236   2.526  11.602 -0.0748 -0.2302 -0.4149
55068SOL    HW171041   9.160   2.478  11.570  0.1468 -1.4372  0.8019
55068SOL    HW271042   9.225   2.614  11.567 -1.1904 -0.8009 -1.5789
55069SOL     OW71043   4.701   2.321   3.610 -0.0643 -0.6312 -0.2548
55069SOL    HW171044   4.687   2.237   3.565  1.3484 -0.1479 -1.7030
55069SOL    HW271045   4.622   2.371   3.591  0.3388 -0.5842 -1.9355
55070SOL     OW71046  11.017   8.609   8.259 -0.4560 -0.5274 -0.0513
55070SOL    HW171047  11.075   8.629   8.185 -0.3940  1.1506  0.4034
55070SOL    HW271048  10.998   8.694   8.298 -0.4487 -1.3566  1.9037
55071SOL     OW71049   5.101  10.666   2.083  0.3059  0.1250 -0.2051
55071SOL    HW171050   5.041  10.716   2.027 -0.1122  0.6620  0.6969
55071SOL    HW271051   5.167  10.730   2.109  0.4684 -0.1131 -0.0354
55072SOL     OW71052   5.795   6.576   1.174  0.0707 -0.5895 -0.2751
55072SOL    HW171053   5.761   6.562   1.262 -0.7419  0.9823 -0.3079
55072SOL    HW271054   5.771   6.496   1.127 -1.8996 -0.3607  0.2448
55073SOL     OW71055   6.827   7.295  10.001  0.3392  0.0109  0.2512
55073SOL    HW171056   6.784   7.211   9.987 -0.3606  0.2461  0.9175
55073SOL    HW271057   6.854   7.323   9.913 -1.3470  0.0974 -0.2735
55074SOL     OW71058  11.103   5.418   0.278  0.6545  0.1695  0.9019
55074SOL    HW171059  11.189   5.420   0.238  0.9741 -1.5185  1.3926
55074SOL    HW271060  11.120   5.416   0.372  0.1700 -1.2308  0.9959
55075SOL     OW71061  10.278   4.876   1.214 -0.0100  0.0066 -0.0596
55075SOL    HW171062  10.363   4.831   1.207 -0.3451 -1.0137  1.8293
55075SOL    HW271063  10.271   4.925   1.132  1.6080 -1.2690 -1.0394
55076SOL     OW71064   8.933   2.074   3.329  0.3692 -0.1326 -0.1195
55076SOL    HW171065   8.884   2.003   3.371 -1.2305  0.5399 -0.7710
55076SOL    HW271066   8.982   2.115   3.400 -0.8112 -0.2118  0.7672
55077SOL     OW71067   7.980   9.588   3.744  0.0719 -0.7410  0.0101
55077SOL    HW171068   7.959   9.660   3.685  0.4557 -1.0505 -0.5153
55077SOL    HW271069   7.898   9.540   3.754  0.0544 -0.8199 -0.4646
55078SOL     OW71070   1.582   8.634   1.025 -0.3302 -0.3347 -0.6076
55078SOL    HW171071   1.497   8.596   1.045 -0.7021  1.0628  0.5709
55078SOL    HW271072   1.579   8.723   1.059  1.5867 -0.2188 -0.5814
55079SOL     OW71073   6.012   0.794   8.383  0.1910 -0.2496  0.1792
55079SOL    HW171074   6.031   0.727   8.448 -0.4871 -2.7752 -2.0545
55079SOL    HW271075   6.029   0.877   8.429 -0.2065 -1.8266  3.4982
55080SOL     OW71076   0.984   6.127   5.793 -0.2498  0.4891 -0.0062
55080SOL    HW171077   0.992   6.082   5.709  1.5445  0.8910 -0.0864
55080SOL    HW271078   0.891   6.119   5.816 -0.6479 -0.1586 -1.7149
55081SOL     OW71079   9.544   7.676  11.948 -0.0579  0.3073 -0.7836
55081SOL    HW171080   9.517   7.747  11.890 -4.2826 -1.1292 -0.8604
55081SOL    HW271081   9.519   7.596  11.902  1.7004 -1.1788  0.6579
55082SOL     OW71082   9.419  11.871   1.629  0.1818  0.3807  0.5716
55082SOL    HW171083   9.471  11.917   1.564 -0.5985  0.5127  0.0273
55082SOL    HW271084   9.475  11.799   1.658 -1.0056 -2.5181 -3.5477
55083SOL     OW71085   6.883   6.885   6.747  0.0290  0.4797  0.0963
55083SOL    HW171086   6.818   6.883   6.817  1.3478 -2.6782  1.4057
55083SOL    HW271087   6.968   6.886   6.791  0.9141  0.8933 -1.5108
55084SOL     OW71088   8.320   6.357   2.995 -0.4954  0.2414  0.0972
55084SOL    HW171089   8.247   6.308   3.032 -0.8863  1.9594  1.8132
55084SOL    HW271090   8.280   6.420   2.935 -0.0790 -0.9071 -1.4443
55085SOL     OW71091   0.141  12.284   3.703 -0.1821  0.5072  0.5812
55085SOL    HW171092   0.129  12.375   3.678 -1.0874 -0.3171 -2.4852
55085SOL    HW271093   0.052  12.249   3.712  0.1011 -0.5227 -0.3397
55086SOL     OW71094  11.501  11.956   2.212  0.3309  0.7203 -0.0614
55086SOL    HW171095  11.496  11.951   2.117  1.0924  0.9771 -0.1229
55086SOL    HW271096  11.519  11.867   2.241 -0.8727  0.4588 -0.0800
55087SOL     OW71097   2.268   1.181   3.307 -0.0984  0.6213 -0.3753
55087SOL    HW171098   2.195   1.229   3.347 -0.5206 -1.2414  1.3055
55087SOL    HW271099   2.319   1.149   3.382  2.1204  1.3343 -1.5041
55088SOL     OW71100   4.478   2.489   9.666  0.2663  0.4793 -0.3263
55088SOL    HW171101   4.507   2.402   9.690 -0.6478  0.8075  2.2455
55088SOL    HW271102   4.391   2.476   9.627  0.7309  0.1439 -1.2731
55089SOL     OW71103   9.712   8.322   9.938  0.1087  0.0287 -0.8586
55089SOL    HW171104   9.676   8.308  10.025 -0.5828  1.2717 -0.9085
55089SOL    HW271105   9.708   8.236   9.896  1.4129 -0.8159  0.6422
55090SOL     OW71106   7.569  10.376   7.542 -0.1833 -0.1583 -0.1340
55090SOL    HW171107   7.490  10.348   7.494 -0.2471 -1.0608  0.4768
55090SOL    HW271108   7.641  10.330   7.499 -0.1391 -0.3183  0.1134
55091SOL     OW71109   9.501   5.559   2.894  0.0678 -0.2617 -0.0617
55091SOL    HW171110   9.484   5.465   2.903 -1.4512  0.0816  1.1716
55091SOL    HW271111   9.414   5.598   2.880  0.4442  1.1214  1.2091
55092SOL     OW71112   2.892   9.622  12.121  0.2134  0.3470  0.1572
55092SOL    HW171113   2.823   9.688  12.124 -0.4084 -0.1404 -1.7779
55092SOL    HW271114   2.845   9.538  12.125  0.7482  0.0138 -0.3727
55093SOL     OW71115   8.439   5.455   0.820 -0.0614  0.3911 -1.2667
55093SOL    HW171116   8.495   5.464   0.897  0.4761 -0.2071 -1.5784
55093SOL    HW271117   8.461   5.530   0.765 -1.6460  1.7736 -0.1244
55094SOL     OW71118   0.192   8.567   9.553  0.0812  0.1827  0.3238
55094SOL    HW171119   0.237   8.513   9.489 -0.6401  0.2113 -0.2218
55094SOL    HW271120   0.117   8.513   9.581 -1.3088  1.3122 -1.0752
55095SOL     OW71121   3.550   1.585  10.065 -0.0825  0.4603 -0.0751
55095SOL    HW171122   3.595   1.654  10.017 -0.5144  0.9741  0.2408
55095SOL    HW271123   3.579   1.595  10.156 -0.4120  0.4532  0.0358
55096SOL     OW71124  10.410  12.330   1.798  0.2666  0.2932 -0.3121
55096SOL    HW171125  10.495  12.294   1.773  0.1778 -0.9817  1.1128
55096SOL    HW271126  10.414  12.338   1.893 -1.1067  0.4642 -0.2466
55097SOL     OW71127  11.459  10.592   3.227 -0.1116  0.1222 -0.3301
55097SOL    HW171128  11.522  10.534   3.270  0.0353  0.3151 -0.2817
55097SOL    HW271129  11.491  10.680   3.246  0.7714  0.2042 -1.9964
55098SOL     OW71130  12.078   3.448   8.046 -0.1742  0.0590 -0.1891
55098SOL    HW171131  12.102   3.407   7.963 -0.6470 -1.1850  0.2598
55098SOL    HW271132  12.012   3.390   8.083 -0.9123  1.2787  0.4683
55099SOL     OW71133   4.806  10.502   5.324  0.3775 -0.5325  0.0602
55099SOL    HW171134   4.882  10.456   5.287 -0.6817 -1.6804 -0.7592
55099SOL    HW271135   4.840  10.589   5.346  1.5494 -0.4498 -1.8014
55100SOL     OW71136   2.809   5.634   4.617 -0.2461 -0.5461  0.2451
55100SOL    HW171137   2.761   5.635   4.700  0.1109 -1.4976  0.4743
55100SOL    HW271138   2.799   5.544   4.585 -1.5602  0.1366 -1.4474
55101SOL     OW71139   6.880   6.352  11.465 -0.1820  0.2855  0.4615
55101SOL    HW171140   6.864   6.304  11.384 -0.0240 -1.8437  1.6239
55101SOL    HW271141   6.885   6.444  11.438 -2.8536 -0.0345 -1.5645
55102SOL     OW71142  10.823   2.790  10.624 -0.0759 -0.1350 -0.0513
55102SOL    HW171143  10.777   2.816  10.704  1.1433 -0.0336  0.6284
55102SOL    HW271144  10.834   2.872  10.576 -0.6770 -0.1750 -0.2751
55103SOL     OW71145  10.580   4.546   3.675  0.1200 -0.6174  0.0231
55103SOL    HW171146  10.670   4.515   3.665  0.1485 -0.2873 -0.8623
55103SOL    HW271147  10.548   4.558   3.585 -1.5263 -2.7098  0.2564
55104SOL     OW71148  10.669  11.168  10.462  0.1544  0.3670 -0.2285
55104SOL    HW171149  10.575  11.189  10.463  0.4750  1.9439  1.1949
55104SOL    HW271150  10.688  11.148  10.370 -1.2738  1.5443 -0.8186
55105SOL     OW71151   1.103   6.111   0.501  0.2941  0.3213 -0.1932
55105SOL    HW171152   1.055   6.152   0.574  2.3656  0.7418  1.0042
55105SOL    HW271153   1.084   6.166   0.426 -1.0308  0.5021  0.2373
55106SOL     OW71154   3.887   7.379   9.739 -0.1474 -0.3888 -0.3740
55106SOL    HW171155   3.863   7.443   9.806 -0.6820 -0.9740  0.0125
55106SOL    HW271156   3.819   7.313   9.744  1.1921 -1.7870  0.3052
55107SOL     OW71157   1.044  12.126  10.863 -0.0979  0.1929 -0.4668
55107SOL    HW171158   0.980  12.193  10.839  0.4216 -0.0994 -2.9363
55107SOL    HW271159   0.994  12.062  10.913 -0.9092  1.7156  0.7306
55108SOL     OW71160   8.025   0.936   0.376 -0.5488  0.4236 -0.3584
55108SOL    HW171161   8.073   1.019   0.383  1.4429 -0.7478  0.7937
55108SOL    HW271162   7.979   0.927   0.459 -0.8003  0.3946 -0.4994
55109SOL     OW71163   3.689   9.124   8.265  0.2919 -0.2904  0.3443
55109SOL    HW171164   3.623   9.057   8.248  0.6962 -0.6081  0.0158
55109SOL    HW271165   3.659   9.168   8.345  0.2893 -1.1884  0.8426
55110SOL     OW71166   1.264   8.182   8.220  0.0813 -0.2015  0.3338
55110SOL    HW171167   1.180   8.170   8.175  0.6449  1.1968 -1.1808
55110SOL    HW271168   1.242   8.231   8.300 -0.6898 -1.0323  0.6507
55111SOL     OW71169  10.313   3.825   0.565 -0.1323  0.3379 -0.2099
55111SOL    HW171170  10.360   3.749   0.602  1.0308  1.5066  0.8128
55111SOL    HW271171  10.226   3.791   0.544  0.1923 -1.1660  0.7012
55112SOL     OW71172   9.652   6.378   5.527  0.1132 -0.1909  0.6261
55112SOL    HW171173   9.620   6.464   5.501  1.9758  0.2682 -0.3674
55112SOL    HW271174   9.577   6.319   5.515 -1.6455  1.4614  2.7429
55113SOL     OW71175  10.706  10.991   3.527  0.1590  0.7644 -0.6707
55113SOL    HW171176  10.693  10.982   3.433 -0.3352  2.7134 -0.8394
55113SOL    HW271177  10.763  10.918   3.551  0.1388  0.1247 -2.4262
55114SOL     OW71178  10.407   3.603   7.536 -0.2268 -0.2601 -0.2606
55114SOL    HW171179  10.331   3.652   7.504 -1.2975 -0.1232  2.2548
55114SOL    HW271180  10.381   3.511   7.527  1.0347 -0.4434 -3.2086
55115SOL     OW71181   6.035   0.583  11.774  0.3822 -0.6173  0.1554
55115SOL    HW171182   5.959   0.570  11.831 -0.2553 -0.6867 -0.7056
55115SOL    HW271183   6.106   0.605  11.835 -0.6592  0.9700  0.8879
55116SOL     OW71184   1.023   5.014  11.043 -0.5354  0.1562  0.7815
55116SOL    HW171185   0.974   5.096  11.047 -2.1940 -0.8057  1.1954
55116SOL    HW271186   0.957   4.948  11.022  0.8951 -0.9810 -0.3582
55117SOL     OW71187   9.781   3.387  10.283  0.0573  0.5880  0.0237
55117SOL    HW171188   9.717   3.458  10.287 -1.2979 -0.5068 -1.0554
55117SOL    HW271189   9.810   3.386  10.192 -0.0893 -0.3386 -0.0234
55118SOL     OW71190   9.913   5.117   5.783  0.0092 -0.0356  0.3140
55118SOL    HW171191   9.866   5.187   5.738 -1.0394 -0.5923  0.5160
55118SOL    HW271192   9.902   5.137   5.876 -1.6702 -1.3057  0.4283
55119SOL     OW71193   6.091   6.232   7.172  0.2769  0.3868  0.3046
55119SOL    HW171194   6.095   6.152   7.225 -1.0360 -1.0012 -1.5567
55119SOL    HW271195   5.998   6.257   7.174  0.6409  1.7682  0.6998
55120SOL     OW71196   2.662   2.556   3.856 -0.1286 -0.2262 -0.3652
55120SOL    HW171197   2.577   2.570   3.897 -0.6908 -1.3093 -1.0908
55120SOL    HW271198   2.696   2.477   3.898  1.3923  1.1895  1.2219
55121SOL     OW71199  11.640  11.166   6.562  0.6149 -0.0178  0.6182
55121SOL    HW171200  11.585  11.214   6.500  2.0175  1.5485  0.5055
55121SOL    HW271201  11.709  11.128   6.508 -0.1831 -1.7878  0.7836
55122SOL     OW71202   2.620   1.941  10.370  0.2002  0.3643 -0.3713
55122SOL    HW171203   2.587   2.030  10.367  0.9528  0.8676  2.6587
55122SOL    HW271204   2.544   1.888  10.393 -0.0314  0.3842 -1.0907
55123SOL     OW71205   8.922   2.271   6.346 -0.4111 -0.2085 -0.3860
55123SOL    HW171206   8.928   2.187   6.300 -2.2017 -0.5883 -0.0107
55123SOL    HW271207   9.012   2.290   6.373 -0.0351 -2.2637 -0.0349
55124SOL     OW71208  11.889   2.903   4.957 -0.0259  0.1336 -0.1651
55124SOL    HW171209  11.974   2.910   5.001 -0.6605  1.2522  0.9550
55124SOL    HW271210  11.910   2.898   4.864  1.3462 -1.7789  0.1992
55125SOL     OW71211   5.033  11.418   6.588 -0.2896  0.7578  0.0436
55125SOL    HW171212   4.993  11.335   6.612 -0.1639  0.5194 -0.5558
55125SOL    HW271213   5.012  11.477   6.660 -0.1640  0.1383  0.5926
55126SOL     OW71214   8.637   2.603   8.446 -0.9953  0.2576  0.5169
55126SOL    HW171215   8.579   2.679   8.454 -0.5274  0.6371  0.3461
55126SOL    HW271216   8.615   2.549   8.522 -1.9085  0.1567  0.2008
55127SOL     OW71217   1.492  10.084   7.136 -0.1006  0.2489 -0.0302
55127SOL    HW171218   1.562  10.130   7.089 -1.1383 -0.4635 -2.4625
55127SOL    HW271219   1.413  10.135   7.117 -0.4897  0.2116  1.4179
55128SOL     OW71220   2.438   6.466   4.082 -0.1228  0.2305  0.5819
55128SOL    HW171221   2.412   6.536   4.141  1.8307 -1.0040  3.1291
55128SOL    HW271222   2.447   6.389   4.138 -0.2366 -1.6042 -1.7463
55129SOL     OW71223   6.854   5.639  10.259 -0.1744 -0.1628 -0.2935
55129SOL    HW171224   6.841   5.733  10.242 -0.7158 -0.5620 -2.3980
55129SOL    HW271225   6.767   5.609  10.287 -0.2867 -0.2417 -0.7245
55130SOL     OW71226   0.878   2.689   7.419  0.2074 -0.4367 -0.1795
55130SOL    HW171227   0.809   2.755   7.414  1.3744  0.8079 -0.5134
55130SOL    HW271228   0.939   2.723   7.485 -0.0635 -2.0989  1.0019
55131SOL     OW71229   3.569   9.028   5.267 -0.0190 -0.2052 -0.1069
55131SOL    HW171230   3.664   9.018   5.264  0.0942  0.4142  0.9841
55131SOL    HW271231   3.536   8.940   5.287  0.3140 -0.4202 -0.4802
55132SOL     OW71232   7.048   5.291   8.086  0.0038 -0.3689 -0.2319
55132SOL    HW171233   6.968   5.240   8.073 -1.8176  2.0888  0.4424
55132SOL    HW271234   7.106   5.233   8.135 -1.5885 -2.0660 -0.2382
55133SOL     OW71235   6.371   0.305   5.095 -0.9500 -0.3770 -0.0322
55133SOL    HW171236   6.414   0.388   5.116 -0.2814 -0.1719 -2.0404
55133SOL    HW271237   6.302   0.328   5.033 -1.0237 -1.2889 -0.3038
55134SOL     OW71238   3.276   2.017   5.703  0.0999 -0.7966  0.5443
55134SOL    HW171239   3.329   2.096   5.709 -0.9997  0.0233 -0.1898
55134SOL    HW271240   3.288   1.973   5.787  1.8224 -0.5799  0.4510
55135SOL     OW71241   2.092   8.743   2.919  0.8017 -0.4541  0.1302
55135SOL    HW171242   2.006   8.784   2.927  0.3112 -1.6748  1.4814
55135SOL    HW271243   2.134   8.791   2.847  0.4691  2.6897  1.8671
55136SOL     OW71244   7.268   8.501   7.611  0.2971 -0.4504 -0.5484
55136SOL    HW171245   7.261   8.578   7.668  1.0250 -1.0614  0.3976
55136SOL    HW271246   7.292   8.430   7.671  1.3168 -1.0639 -1.6606
55137SOL     OW71247   0.982   8.539   2.631 -0.5207 -0.0302  0.3139
55137SOL    HW171248   1.064   8.491   2.619 -0.5547  0.0764 -0.4140
55137SOL    HW271249   0.932   8.488   2.695  0.7665  0.7469  2.0142
55138SOL     OW71250  11.318   1.722  10.234  0.6158 -0.3688  0.3579
55138SOL    HW171251  11.340   1.629  10.235  0.7256 -0.3693  2.6389
55138SOL    HW271252  11.399   1.766  10.258  0.3278  0.2629  0.1962
55139SOL     OW71253  10.580   6.782  11.308 -0.6640  0.4899  0.2478
55139SOL    HW171254  10.564   6.876  11.301  0.4777  0.6485 -0.3725
55139SOL    HW271255  10.583   6.750  11.218  0.1621  0.0799  0.4076
55140SOL     OW71256   7.270   2.122   9.927  0.1683 -0.0082  0.0436
55140SOL    HW171257   7.255   2.093  10.017 -1.5935 -1.9497 -0.8111
55140SOL    HW271258   7.220   2.204   9.920  3.2519  2.2412  1.7762
55141SOL     OW71259  11.353   8.994   5.138  0.3234 -0.3516 -0.3247
55141SOL    HW171260  11.405   8.917   5.162  0.8684 -0.1245 -0.7840
55141SOL    HW271261  11.416   9.064   5.127 -0.2768  0.5060  1.3266
55142SOL     OW71262   6.782   6.228   4.165  0.0689 -0.5384 -0.1367
55142SOL    HW171263   6.849   6.164   4.189 -0.0841 -0.2712  1.0542
55142SOL    HW271264   6.709   6.209   4.223 -0.6200 -0.3440 -0.9175
55143SOL     OW71265   0.192   3.235   2.815 -0.5027 -0.3480 -0.0463
55143SOL    HW171266   0.103   3.242   2.848  0.1906  2.5730  1.5007
55143SOL    HW271267   0.200   3.306   2.751  0.5432 -1.0217 -0.7062
55144SOL     OW71268   8.589   8.382   9.149 -0.2975  0.2111  0.4336
55144SOL    HW171269   8.587   8.294   9.186 -1.9956  0.0886  0.1433
55144SOL    HW271270   8.634   8.435   9.214  0.5681 -0.8253  0.6998
55145SOL     OW71271   4.457   5.545   4.249 -0.5247  0.5284 -0.1914
55145SOL    HW171272   4.460   5.538   4.345  0.2206 -0.3377 -0.2553
55145SOL    HW271273   4.364   5.553   4.228 -0.8512 -1.0523  0.5132
55146SOL     OW71274  11.584   1.047   0.936 -0.5435 -0.3946  0.0746
55146SOL    HW171275  11.634   1.004   0.867  1.3833  2.5656 -0.5288
55146SOL    HW271276  11.546   1.124   0.894 -1.5531  0.0482  1.7061
55147SOL     OW71277  10.007   5.711   1.575  0.6420  0.2472 -0.0916
55147SOL    HW171278  10.067   5.721   1.502  0.9892 -0.2503  0.1226
55147SOL    HW271279   9.953   5.636   1.552  0.6969  0.1393  0.1290
55148SOL     OW71280   4.675  10.915   8.990 -0.0518  0.1327  0.6702
55148SOL    HW171281   4.753  10.938   8.939 -0.6453  1.0214  0.1391
55148SOL    HW271282   4.691  10.825   9.018  1.2306  0.3530  0.7055
55149SOL     OW71283   8.709   3.468   9.336 -0.4153  0.4554  0.5808
55149SOL    HW171284   8.723   3.498   9.246 -1.3819  0.0506  0.2793
55149SOL    HW271285   8.676   3.378   9.326  0.1625  0.1434  1.3706
55150SOL     OW71286  11.700   0.419   4.039 -0.2251  0.3491 -0.3085
55150SOL    HW171287  11.746   0.337   4.056  2.2087  1.8290  1.0408
55150SOL    HW271288  11.749   0.459   3.967 -0.6219  1.0937 -0.1793
55151SOL     OW71289   2.080   0.397  11.744 -0.7259 -0.1490 -0.2214
55151SOL    HW171290   2.157   0.443  11.710 -1.6868  0.6055 -1.4316
55151SOL    HW271291   2.053   0.449  11.819  0.1881 -0.6779  0.5055
55152SOL     OW71292   9.578   3.797   5.970 -0.1599  0.1013  0.3252
55152SOL    HW171293   9.635   3.863   5.932  0.1573  0.1774  0.9159
55152SOL    HW271294   9.539   3.840   6.047  1.6649 -1.0144  1.9696
55153SOL     OW71295   0.501   3.096  12.217 -0.1469  0.0120  0.0813
55153SOL    HW171296   0.516   3.178  12.264 -1.0919 -0.2434  0.8792
55153SOL    HW271297   0.457   3.040  12.282 -1.3383 -0.4175 -1.0551
55154SOL     OW71298   4.831   9.982   7.605  0.6893  0.2962 -0.3738
55154SOL    HW171299   4.854  10.070   7.634 -0.3749  0.4008  0.2064
55154SOL    HW271300   4.735   9.983   7.599  0.4842 -1.3536  1.4577
55155SOL     OW71301  10.485   9.295  10.732  0.0664 -0.3331  0.1018
55155SOL    HW171302  10.456   9.334  10.650 -0.1010 -1.2926 -0.3089
55155SOL    HW271303  10.541   9.361  10.772 -0.7138  0.5768 -0.2653
55156SOL     OW71304  10.958   8.140   4.943 -0.8689 -0.1566 -0.7847
55156SOL    HW171305  10.963   8.183   4.857 -1.1877  2.0130  0.2231
55156SOL    HW271306  10.873   8.095   4.942 -0.4071 -1.0607 -1.9648
55157SOL     OW71307   9.762   6.938   1.673  0.3317  0.1395  0.7297
55157SOL    HW171308   9.692   6.887   1.633  1.2616 -0.8714  0.3583
55157SOL    HW271309   9.762   7.021   1.624 -0.0077 -0.2091  0.1262
55158SOL     OW71310   8.093  10.646   1.742 -0.6028 -0.1754 -0.2940
55158SOL    HW171311   8.105  10.701   1.819 -0.2778  1.1263 -1.2352
55158SOL    HW271312   8.091  10.556   1.776 -1.7163  0.4318  1.3486
55159SOL     OW71313   9.763   9.557   4.162 -0.1323 -0.2004 -0.1294
55159SOL    HW171314   9.678   9.574   4.201 -1.7320 -0.6761 -3.0745
55159SOL    HW271315   9.744   9.542   4.069  3.1861 -0.2836 -0.9251
55160SOL     OW71316  11.180   8.495   1.683 -0.5176  0.4465 -0.3683
55160SOL    HW171317  11.092   8.513   1.717  0.0724 -2.5433  3.3330
55160SOL    HW271318  11.168   8.419   1.625 -0.3294 -0.4194  0.7075
55161SOL     OW71319  11.826   1.645   7.331 -0.7532  0.1807  0.0961
55161SOL    HW171320  11.740   1.620   7.364 -0.3341 -1.1022  0.2618
55161SOL    HW271321  11.882   1.644   7.409 -0.4111  0.1664 -0.1489
55162SOL     OW71322   1.915  11.277  12.028 -0.0521  0.2251 -0.4393
55162SOL    HW171323   1.932  11.211  11.961 -0.1654 -0.4157  0.1528
55162SOL    HW271324   1.889  11.227  12.105  0.4961  0.9286  0.2158
55163SOL     OW71325   8.623   7.136   9.953  0.1769 -0.5968  0.3562
55163SOL    HW171326   8.537   7.128   9.995  0.9762  1.1574  2.5049
55163SOL    HW271327   8.623   7.223   9.913  1.0693 -0.4183  0.7154
55164SOL     OW71328  11.986   2.412   4.823  0.2998 -0.0976  0.7239
55164SOL    HW171329  11.892   2.393   4.826  0.3016 -0.6128 -1.1921
55164SOL    HW271330  12.005   2.453   4.908 -1.8713  1.1133  0.7028
55165SOL     OW71331   6.668  11.456   0.339  0.2034  0.8193  0.2449
55165SOL    HW171332   6.666  11.481   0.247  2.6200  2.1654  0.4677
55165SOL    HW271333   6.599  11.508   0.380 -0.6607  0.4654 -0.7080
55166SOL     OW71334   9.396   5.766   8.082 -0.1088  0.0116  0.4336
55166SOL    HW171335   9.441   5.844   8.114 -0.7417  0.8313 -0.6141
55166SOL    HW271336   9.467   5.706   8.060  0.5890  1.5289 -1.8142
55167SOL     OW71337   7.331   0.493  11.082  0.0175 -0.2486  0.2974
55167SOL    HW171338   7.252   0.536  11.114  0.1104 -0.4375  0.7937
55167SOL    HW271339   7.403   0.534  11.130  0.1897 -0.3075  0.0934
55168SOL     OW71340   4.700   7.349  11.370  0.0902 -0.4568 -0.1775
55168SOL    HW171341   4.627   7.289  11.358 -0.1948 -0.5504  1.6575
55168SOL    HW271342   4.768   7.316  11.312 -0.6209 -1.5845 -0.3981
55169SOL     OW71343   3.857  11.298  10.440  0.1478 -0.1419  0.0678
55169SOL    HW171344   3.816  11.303  10.526  1.3938 -1.2029  0.7811
55169SOL    HW271345   3.939  11.251  10.456  0.6211  0.0313 -1.6318
55170SOL     OW71346   1.285   6.546   7.515 -0.6737  0.8620  1.0728
55170SOL    HW171347   1.267   6.624   7.463 -1.3326  0.3259  0.4661
55170SOL    HW271348   1.276   6.474   7.453  1.5462  0.3791  1.2359
55171SOL     OW71349   9.715   5.709  10.846  0.1463  0.5683  0.0872
55171SOL    HW171350   9.693   5.630  10.895 -1.4591  0.5844 -0.5664
55171SOL    HW271351   9.761   5.677  10.768 -0.2374  0.3000 -0.0297
55172SOL     OW71352   8.150  10.819   1.950 -0.5793 -0.3545 -0.0581
55172SOL    HW171353   8.112  10.852   2.031 -1.9878 -0.7073 -0.5399
55172SOL    HW271354   8.200  10.893   1.915 -2.1523  0.6928 -0.1897
55173SOL     OW71355   3.724   7.118   1.838 -0.5896  0.1867  0.4857
55173SOL    HW171356   3.722   7.064   1.917 -2.2839 -0.3591  0.1070
55173SOL    HW271357   3.792   7.079   1.783 -1.6135 -1.4484  0.3247
55174SOL     OW71358   8.191   8.019  10.970  0.1109 -0.2860 -0.3571
55174SOL    HW171359   8.139   8.025  11.050 -0.5390 -0.1576 -0.7848
55174SOL    HW271360   8.129   8.037  10.900  0.6175 -0.6692 -0.9107
55175SOL     OW71361   2.111   1.915   7.267  0.6138  0.4528  0.4854
55175SOL    HW171362   2.084   1.850   7.202  0.1655  0.3537  0.7623
55175SOL    HW271363   2.170   1.973   7.220  0.6191  0.1379  0.1003
55176SOL     OW71364   8.486  11.635  10.671 -0.1613 -0.5287  0.9241
55176SOL    HW171365   8.493  11.703  10.604 -1.2631 -2.1749 -0.9848
55176SOL    HW271366   8.546  11.663  10.740 -1.0155  2.6606  0.5577
55177SOL     OW71367  10.410   0.089   1.063  0.1587 -0.0250  0.0568
55177SOL    HW171368  10.426   0.060   1.153  1.0670 -1.5887 -0.5772
55177SOL    HW271369  10.496   0.110   1.028  0.0791 -1.4278 -1.0767
55178SOL     OW71370  11.886  10.698   4.542  0.1241  0.5032  0.2133
55178SOL    HW171371  11.921  10.686   4.631  0.0477 -0.3862  0.1383
55178SOL    HW271372  11.923  10.625   4.492 -1.0344  0.1131 -0.1094
55179SOL     OW71373   3.696   1.911   3.715 -0.4505 -0.2610 -0.2702
55179SOL    HW171374   3.673   1.840   3.655 -1.0458 -0.8900  0.6732
55179SOL    HW271375   3.748   1.869   3.783 -0.7584  0.2081  0.2621
55180SOL     OW71376   3.437  11.152  10.880  0.5373 -0.0918  0.5675
55180SOL    HW171377   3.421  11.219  10.814  3.1486 -0.1057 -0.2035
55180SOL    HW271378   3.444  11.070  10.831 -0.3456 -0.5692  1.2243
55181SOL     OW71379   0.707   7.336   3.421  0.4193 -0.0266  0.2129
55181SOL    HW171380   0.753   7.392   3.483 -0.5402  0.6464  0.3402
55181SOL    HW271381   0.616   7.337   3.452 -0.1387  0.5768 -1.3830
55182SOL     OW71382  10.196   1.002   5.101 -0.0001 -0.2228  0.1425
55182SOL    HW171383  10.144   1.003   5.020 -0.0327  1.0986  0.1564
55182SOL    HW271384  10.188   1.091   5.135  0.8760 -0.4826  1.0576
55183SOL     OW71385   6.908  11.774   1.695  0.0382  0.0369  0.4569
55183SOL    HW171386   6.997  11.739   1.696  0.2258  0.3593 -1.3028
55183SOL    HW271387   6.905  11.831   1.618 -1.6265  0.2219  0.6049
55184SOL     OW71388   6.564   2.689  11.932  0.1726  0.4844 -0.4050
55184SOL    HW171389   6.471   2.694  11.912 -0.4453 -1.8754  1.4288
55184SOL    HW271390   6.584   2.595  11.931  1.6955  0.6528  2.4585
55185SOL     OW71391   8.945  10.656   2.460  0.5214 -0.6424  0.3753
55185SOL    HW171392   9.004  10.730   2.446 -0.5013  0.2117  0.4283
55185SOL    HW271393   8.963  10.597   2.387  0.2007  0.4490 -0.6267
55186SOL     OW71394   3.642   6.069   0.529  0.2892  0.0934 -0.2163
55186SOL    HW171395   3.703   6.059   0.602  0.7366  0.3313 -0.5545
55186SOL    HW271396   3.559   6.034   0.562  0.7387 -0.7188  0.0681
55187SOL     OW71397   4.780   2.284   4.911 -0.5808  0.1673 -0.3057
55187SOL    HW171398   4.730   2.362   4.886  0.6357  0.3877 -2.3500
55187SOL    HW271399   4.828   2.310   4.990 -0.9023  1.1821 -0.4303
55188SOL     OW71400   4.934   0.304   0.838  0.0750  0.1660 -0.4307
55188SOL    HW171401   4.845   0.331   0.816 -0.8296 -0.7254  1.8877
55188SOL    HW271402   4.939   0.212   0.811 -0.1892 -0.1936  0.7322
55189SOL     OW71403  11.324   3.870   6.921  0.3117 -0.5350 -0.0504
55189SOL    HW171404  11.322   3.886   6.827  0.2831  0.6340  0.1343
55189SOL    HW271405  11.375   3.790   6.931 -1.2573 -1.7462 -1.1845
55190SOL     OW71406   6.899   7.680   8.359 -0.7423  0.0921  0.1131
55190SOL    HW171407   6.977   7.735   8.358 -0.0065 -0.8977 -1.6483
55190SOL    HW271408   6.851   7.703   8.279  0.5283 -2.9546 -1.7171
55191SOL     OW71409   8.576  11.347   1.338 -0.3417 -0.1328 -0.3792
55191SOL    HW171410   8.563  11.441   1.345 -1.2352 -0.3688  1.7146
55191SOL    HW271411   8.671  11.336   1.346 -0.2344  0.5743 -0.5901
55192SOL     OW71412   8.029  11.757   1.053  0.7787 -0.0520 -0.0914
55192SOL    HW171413   8.015  11.680   1.109  0.3269  0.4674  0.5160
55192SOL    HW271414   7.944  11.800   1.050  0.4731 -0.6924 -2.1355
55193SOL     OW71415   3.043   5.604   9.152  0.1366  0.1879 -0.1335
55193SOL    HW171416   3.088   5.688   9.162 -0.7581  0.8795 -1.5441
55193SOL    HW271417   2.997   5.612   9.069  0.7819 -2.0676 -0.7817
55194SOL     OW71418   0.225   0.620   6.593 -0.8706 -0.0919  0.0945
55194SOL    HW171419   0.137   0.610   6.556 -0.4550  2.9052 -2.0131
55194SOL    HW271420   0.223   0.706   6.636  1.0939  0.1707 -0.2766
55195SOL     OW71421   6.906   7.440   1.508  0.0086 -0.0637 -0.1417
55195SOL    HW171422   6.945   7.353   1.502  0.1370 -0.0382  0.2955
55195SOL    HW271423   6.880   7.448   1.600 -1.1247 -0.1222 -0.4390
55196SOL     OW71424   7.460   2.744   0.658 -0.3229  0.7217  0.4668
55196SOL    HW171425   7.397   2.816   0.662 -0.2301  1.0091 -2.0212
55196SOL    HW271426   7.425   2.678   0.718 -1.3766  2.0746  1.3993
55197SOL     OW71427   7.983  10.438   3.873  0.0862 -0.0306  0.2600
55197SOL    HW171428   7.900  10.482   3.889 -0.0974 -0.0575 -0.5959
55197SOL    HW271429   7.998  10.447   3.779 -0.1859 -2.1758 -0.0418
55198SOL     OW71430   2.763   4.822   8.457 -0.0989  0.2417  0.1179
55198SOL    HW171431   2.750   4.824   8.362  0.2853 -0.5030  0.0413
55198SOL    HW271432   2.697   4.761   8.489  0.5631 -0.4527  0.1838
55199SOL     OW71433   1.449   2.363   4.639  0.3687 -0.0174  0.4508
55199SOL    HW171434   1.522   2.372   4.578  0.1419  1.4722  0.3737
55199SOL    HW271435   1.472   2.421   4.712  0.5764 -1.6662  1.7595
55200SOL     OW71436   6.667   2.606   1.142 -0.3874  0.2137 -0.4407
55200SOL    HW171437   6.630   2.678   1.193 -0.4477 -0.5383  0.6020
55200SOL    HW271438   6.675   2.534   1.204 -1.9764 -1.2657 -1.8459
55201SOL     OW71439  10.907   8.742   1.993  0.4235 -0.4980  0.0473
55201SOL    HW171440  10.831   8.707   2.039  0.8194 -0.3238  0.8540
55201SOL    HW271441  10.982   8.708   2.042  0.8243  0.8315  0.3770
55202SOL     OW71442   0.628   1.979  10.112 -0.0064 -0.3318 -0.2179
55202SOL    HW171443   0.565   2.022  10.171  0.3565  0.2288 -0.2319
55202SOL    HW271444   0.575   1.950  10.038 -0.3139 -0.2118 -0.0474
55203SOL     OW71445   1.499   3.675   4.000 -0.0981 -0.0461  0.0090
55203SOL    HW171446   1.496   3.581   4.020 -1.9398 -0.0654 -0.1850
55203SOL    HW271447   1.432   3.688   3.933  0.7989  1.2736 -0.6984
55204SOL     OW71448   0.827   0.593   0.207 -0.3888 -0.8186  0.6724
55204SOL    HW171449   0.867   0.509   0.229 -1.0573 -1.4691 -0.4956
55204SOL    HW271450   0.737   0.587   0.238 -1.0406 -1.3544 -1.1796
55205SOL     OW71451   9.106   8.739   8.604 -0.2713  0.1968  0.3758
55205SOL    HW171452   9.058   8.728   8.522  2.4602 -0.3844 -1.2698
55205SOL    HW271453   9.142   8.828   8.598  2.1556 -0.7637 -0.4228
55206SOL     OW71454   3.612   6.288   4.252 -0.2913 -0.1544  0.2637
55206SOL    HW171455   3.687   6.244   4.213 -0.2780  1.3536 -1.5455
55206SOL    HW271456   3.596   6.363   4.195 -2.0713  0.5649  1.6195
55207SOL     OW71457   0.391   3.121   2.263  0.2231  0.1663 -0.7966
55207SOL    HW171458   0.358   3.205   2.295  2.4321  1.0065 -0.5767
55207SOL    HW271459   0.342   3.107   2.181 -2.9772 -0.3169  1.0255
55208SOL     OW71460   0.826   5.709   6.607 -0.1898 -0.9276  0.3314
55208SOL    HW171461   0.761   5.779   6.615  0.3955  0.3651 -3.9352
55208SOL    HW271462   0.910   5.753   6.621  0.1487 -0.8188 -1.8174
55209SOL     OW71463   2.040   5.487  11.337 -0.3682  0.0886 -0.4999
55209SOL    HW171464   2.016   5.508  11.247 -0.6916 -1.2354 -0.7427
55209SOL    HW271465   2.135   5.475  11.334 -0.3658  0.1329 -0.6417
55210SOL     OW71466   4.846   5.479  11.876 -0.0869  0.3639  0.8488
55210SOL    HW171467   4.800   5.396  11.863 -1.8673  1.5674 -0.9912
55210SOL    HW271468   4.809   5.514  11.957 -0.1796 -0.0646  0.9978
55211SOL     OW71469   3.123   3.723   4.585 -0.4400  0.2869 -0.1841
55211SOL    HW171470   3.195   3.762   4.635 -0.4887 -0.0578  0.1618
55211SOL    HW271471   3.079   3.666   4.648 -0.1407 -0.6166 -0.7827
55212SOL     OW71472   9.006   1.120   9.504 -0.1438 -0.6766 -0.2579
55212SOL    HW171473   9.040   1.030   9.506  0.0839 -0.5850  0.0657
55212SOL    HW271474   9.084   1.175   9.508 -0.2951 -0.4638 -0.1957
55213SOL     OW71475  11.913  11.015   2.599 -0.2314 -0.2823  0.2424
55213SOL    HW171476  11.989  11.049   2.647 -1.4466  1.1123  1.2373
55213SOL    HW271477  11.925  11.049   2.510 -0.1674  0.7290  0.6250
55214SOL     OW71478   2.354   4.193   2.611  0.3217  0.2133 -0.2160
55214SOL    HW171479   2.404   4.114   2.629  0.7611  0.6670  0.6242
55214SOL    HW271480   2.304   4.173   2.532  1.1623 -0.5595 -0.5629
55215SOL     OW71481   0.737   6.989   1.551 -0.3057  0.1572  0.4660
55215SOL    HW171482   0.651   6.995   1.510  0.1345 -0.4729 -0.5763
55215SOL    HW271483   0.745   7.071   1.600 -0.9568  0.8340 -0.5054
55216SOL     OW71484  11.861   9.923   2.540 -0.1909  0.2674  0.2104
55216SOL    HW171485  11.950   9.951   2.561 -0.6101  2.3542 -0.5514
55216SOL    HW271486  11.805   9.994   2.571 -1.6252 -0.9805  0.6361
55217SOL     OW71487   6.058   5.239   4.787 -0.3819  0.2160 -0.8985
55217SOL    HW171488   6.136   5.198   4.751  0.9093  1.8537 -0.0840
55217SOL    HW271489   6.091   5.307   4.846 -2.4111 -0.5660  1.2763
55218SOL     OW71490   0.650   3.136  11.363  0.2116  0.3614  0.3134
55218SOL    HW171491   0.639   3.210  11.423  1.0669  0.3735  0.4727
55218SOL    HW271492   0.704   3.171  11.292 -1.9345  0.7571 -1.2359
55219SOL     OW71493   5.913   7.565   2.368 -0.6822 -0.1759  0.1066
55219SOL    HW171494   5.885   7.509   2.441 -0.1568 -0.9365 -0.2625
55219SOL    HW271495   5.831   7.598   2.332 -1.0152 -0.7684  0.2887
55220SOL     OW71496   7.850   1.837   8.824 -0.5449  0.0479 -0.2454
55220SOL    HW171497   7.790   1.820   8.752 -1.4829 -1.6429  0.8581
55220SOL    HW271498   7.934   1.800   8.796 -1.0224 -1.0116 -0.3094
55221SOL     OW71499   9.405   5.320   2.986 -0.7198 -0.2319 -0.2065
55221SOL    HW171500   9.312   5.326   2.966 -0.8348 -1.7292 -0.2681
55221SOL    HW271501   9.444   5.281   2.908 -0.2386 -0.7166  0.2631
55222SOL     OW71502   3.238   3.656   2.756 -0.0928  0.1322  0.0771
55222SOL    HW171503   3.265   3.728   2.812 -1.2442 -0.1743  1.0682
55222SOL    HW271504   3.296   3.662   2.679  2.5264 -0.2934  1.8728
55223SOL     OW71505   2.039   3.857   0.976  0.1331 -0.6353  0.1537
55223SOL    HW171506   1.989   3.886   0.899  0.9480 -0.1196 -0.2092
55223SOL    HW271507   1.978   3.864   1.049  0.5070  3.1132  0.2932
55224SOL     OW71508   9.926   8.681   5.716  0.1428 -0.2631 -0.5979
55224SOL    HW171509  10.008   8.726   5.699 -1.4088  2.2411 -1.9566
55224SOL    HW271510   9.871   8.745   5.761 -0.9323 -2.0277  0.7315
55225SOL     OW71511  10.294   2.193  11.110  0.4842 -0.1385 -0.2829
55225SOL    HW171512  10.321   2.228  11.025  2.9234  0.2821  0.6069
55225SOL    HW271513  10.264   2.270  11.159 -1.4461 -0.4486 -0.8581
55226SOL     OW71514   2.045  10.767   3.125  0.2303 -0.4232  0.0627
55226SOL    HW171515   1.994  10.692   3.155  0.5363 -0.4587  0.5002
55226SOL    HW271516   2.062  10.817   3.204  1.0811 -0.5368 -0.0437
55227SOL     OW71517   5.091  11.140   7.837  0.1302 -0.3442  0.0957
55227SOL    HW171518   5.104  11.086   7.915 -2.6356  1.1564  1.7700
55227SOL    HW271519   5.166  11.200   7.837  0.9935 -1.3844  0.6745
55228SOL     OW71520   7.575   8.397  11.476 -0.1069 -0.3439 -0.3620
55228SOL    HW171521   7.541   8.485  11.463 -2.0684 -0.7954  1.2566
55228SOL    HW271522   7.631   8.382  11.400 -0.8549  1.7579 -1.4100
55229SOL     OW71523   0.176   8.144   6.261 -0.4616 -0.1624 -0.2760
55229SOL    HW171524   0.153   8.061   6.303 -2.9610 -0.4544 -1.9832
55229SOL    HW271525   0.266   8.132   6.232 -0.3689 -1.8185  0.5840
55230SOL     OW71526   7.793   8.498   1.089 -0.1099  0.1896  0.0420
55230SOL    HW171527   7.818   8.410   1.063 -1.3424  0.2084 -1.3479
55230SOL    HW271528   7.720   8.486   1.149 -0.6889  0.2604 -0.6360
55231SOL     OW71529  10.507   3.170   7.211 -0.1826  0.4548  0.7003
55231SOL    HW171530  10.525   3.083   7.246 -1.1938 -0.7216 -1.4682
55231SOL    HW271531  10.520   3.161   7.116  1.9033  3.2693  0.5629
55232SOL     OW71532   0.532   9.992   5.156 -0.4020  0.5166 -0.6062
55232SOL    HW171533   0.485   9.925   5.106 -0.6668  0.0482  0.2570
55232SOL    HW271534   0.579   9.943   5.223  3.0579  0.7126 -2.6742
55233SOL     OW71535   2.203  11.752   8.675  0.7564 -0.1396  0.0642
55233SOL    HW171536   2.249  11.831   8.704  0.2258  0.5466 -0.8821
55233SOL    HW271537   2.132  11.739   8.738  1.3250 -0.3374  0.6757
55234SOL     OW71538  10.368   4.244   2.256  0.0045  0.1427  0.2867
55234SOL    HW171539  10.389   4.321   2.308 -0.2946  0.8997 -0.6663
55234SOL    HW271540  10.272   4.239   2.258 -0.0416  0.4781 -0.5733
55235SOL     OW71541   4.918   4.661   8.796  0.2139 -0.1792 -0.1388
55235SOL    HW171542   4.849   4.701   8.848  1.2269  1.9542 -0.3420
55235SOL    HW271543   4.891   4.569   8.787 -1.8579  0.2647  0.9387
55236SOL     OW71544   3.851  10.528   3.156  0.0261 -0.3473 -0.2730
55236SOL    HW171545   3.943  10.535   3.182 -0.6412  0.7218  2.0740
55236SOL    HW271546   3.802  10.537   3.238 -2.2471  1.7131 -1.7049
55237SOL     OW71547   1.704   8.929   6.988 -0.4639 -0.1556 -0.1090
55237SOL    HW171548   1.670   8.843   7.014  1.5295 -0.4136  2.0215
55237SOL    HW271549   1.663   8.947   6.903 -3.1746 -1.8574  0.7172
55238SOL     OW71550   6.677   2.420   9.526 -0.3719 -0.0017  0.0710
55238SOL    HW171551   6.588   2.421   9.491  0.0156  0.6068 -0.9383
55238SOL    HW271552   6.728   2.374   9.459  0.3275  0.9403 -0.0680
55239SOL     OW71553   1.367   1.613   8.531 -0.3847  0.2545 -0.4415
55239SOL    HW171554   1.456   1.576   8.536 -0.7357 -0.5727 -0.2514
55239SOL    HW271555   1.323   1.582   8.610 -1.6376 -1.4806 -1.7534
55240SOL     OW71556   4.646   9.012   3.257  1.1396 -0.4583 -0.3025
55240SOL    HW171557   4.657   9.014   3.352  0.5439 -0.5828 -0.2231
55240SOL    HW271558   4.694   9.089   3.226  0.7906 -0.0406  0.1662
55241SOL     OW71559   8.149   5.074   7.395 -0.7217 -0.0165  0.2034
55241SOL    HW171560   8.100   5.151   7.424 -0.8435 -0.3514  0.9012
55241SOL    HW271561   8.241   5.103   7.395 -0.7692  0.1346  0.4237
55242SOL     OW71562   4.113  12.291   4.970 -0.0716 -0.0955 -0.1830
55242SOL    HW171563   4.029  12.291   5.016  0.0549 -0.2968  0.0448
55242SOL    HW271564   4.155  12.209   4.996 -0.0642 -0.2825 -0.7707
55243SOL     OW71565   5.306   7.385   3.394  0.3753 -0.7738 -0.4837
55243SOL    HW171566   5.336   7.458   3.447 -0.3192 -1.5098  0.9610
55243SOL    HW271567   5.217   7.367   3.426 -0.7844 -0.1481 -3.0498
55244SOL     OW71568   8.160   0.514   7.745  0.3044  0.0917  0.4462
55244SOL    HW171569   8.141   0.527   7.652  0.0809  0.1032  0.4936
55244SOL    HW271570   8.167   0.603   7.781  1.7358  0.1129  0.1735
55245SOL     OW71571   1.168   6.110   7.515  0.4331  0.0474 -0.2150
55245SOL    HW171572   1.165   6.014   7.510 -1.3415  0.1174 -3.2513
55245SOL    HW271573   1.223   6.136   7.441  0.5649  1.4053  0.3326
55246SOL     OW71574   9.206   6.364   5.707 -0.7738  0.1714 -0.0343
55246SOL    HW171575   9.275   6.412   5.752 -1.6289  1.2498  0.1674
55246SOL    HW271576   9.125   6.397   5.745 -1.4528 -0.1824 -1.1167
55247SOL     OW71577   2.006   8.035   2.034  0.3124 -0.1319  0.4442
55247SOL    HW171578   1.984   7.944   2.017  0.6899  0.0085 -0.9440
55247SOL    HW271579   1.923   8.076   2.059  0.0254 -0.7166  0.4617
55248SOL     OW71580  10.952   4.148  10.716 -0.0359 -0.4840  0.2104
55248SOL    HW171581  10.965   4.225  10.771  0.6653 -0.1432 -0.4023
55248SOL    HW271582  10.860   4.126  10.726 -0.1794  0.2764  0.6079
55249SOL     OW71583   3.045   4.760   0.147  0.3188  0.1760  0.2503
55249SOL    HW171584   3.076   4.775   0.057  0.6877 -1.3450  0.0862
55249SOL    HW271585   3.125   4.755   0.199  0.1802 -0.1914  0.4343
55250SOL     OW71586   5.793   5.842   8.969  0.4262 -0.2610  0.3543
55250SOL    HW171587   5.806   5.755   8.931  1.6288 -0.0165  0.1530
55250SOL    HW271588   5.769   5.824   9.060  0.0487 -0.8047  0.1560
55251SOL     OW71589  10.119   3.207   5.767  0.2119  0.6018  0.1413
55251SOL    HW171590  10.026   3.217   5.784 -0.2607 -1.4086 -0.9637
55251SOL    HW271591  10.151   3.154   5.840  0.3251  0.6063  0.0963
55252SOL     OW71592  10.854  12.162   3.981  0.1830  0.5851 -0.4789
55252SOL    HW171593  10.776  12.133   4.029  0.7799  0.3699  0.4013
55252SOL    HW271594  10.821  12.218   3.911 -0.7037  1.1650  0.3856
55253SOL     OW71595  11.331   5.959   1.605  0.3418  0.0063 -0.1146
55253SOL    HW171596  11.251   5.951   1.552  0.3050  1.0069 -0.2145
55253SOL    HW271597  11.302   5.940   1.694 -0.4270  2.2657  0.1583
55254SOL     OW71598  10.003   5.395   3.104 -0.4449 -0.0111 -0.5690
55254SOL    HW171599  10.016   5.487   3.084  0.6892  0.0914  0.5204
55254SOL    HW271600  10.067   5.348   3.051 -0.8597 -0.1717 -0.9426
55255SOL     OW71601   9.564   8.188   4.361  0.1910 -0.0081 -0.1037
55255SOL    HW171602   9.484   8.239   4.348 -0.0004  0.0977  1.3035
55255SOL    HW271603   9.584   8.199   4.454  1.0587 -1.1808 -0.1322
55256SOL     OW71604   5.811  10.610   5.597  0.0458 -0.1482 -0.2901
55256SOL    HW171605   5.860  10.671   5.541 -0.7832  0.1074 -0.7540
55256SOL    HW271606   5.719  10.633   5.582 -0.1867  0.4168  1.7555
55257SOL     OW71607   1.786   2.456  11.511  0.5302 -0.3434 -0.0348
55257SOL    HW171608   1.737   2.378  11.540 -0.4636  0.0143 -0.7022
55257SOL    HW271609   1.815   2.434  11.423 -1.3019  0.6818 -0.9514
55258SOL     OW71610   5.468  11.227   6.082 -0.4775  0.2061 -0.1485
55258SOL    HW171611   5.527  11.152   6.072 -1.6522 -0.8067  0.2239
55258SOL    HW271612   5.456  11.260   5.993 -0.0345 -0.1053 -0.3303
55259SOL     OW71613   2.424   2.442   2.749 -0.1463  0.4507  0.6719
55259SOL    HW171614   2.503   2.479   2.787  1.1895  0.2094 -1.6907
55259SOL    HW271615   2.438   2.348   2.751 -0.2465  0.4151  0.0406
55260SOL     OW71616   8.585   3.805   8.595  0.0011 -0.0609 -0.3565
55260SOL    HW171617   8.664   3.779   8.547  0.1109 -0.0353 -0.1922
55260SOL    HW271618   8.618   3.856   8.669 -0.1038 -0.7784  0.1996
55261SOL     OW71619   9.774  11.422   0.865  0.4531 -0.3966  0.4003
55261SOL    HW171620   9.697  11.392   0.816 -0.0432  0.8163  0.4169
55261SOL    HW271621   9.771  11.373   0.947 -0.2770 -0.3999  0.3773
55262SOL     OW71622   3.939   6.116   0.308 -0.6348 -0.1837  0.1414
55262SOL    HW171623   3.937   6.035   0.258  0.6928 -0.9526  1.2499
55262SOL    HW271624   4.020   6.160   0.281 -0.4094 -0.1300  0.8693
55263SOL     OW71625   6.225   5.979   7.901  0.3367  0.5935 -0.2632
55263SOL    HW171626   6.168   6.022   7.965  0.7807 -0.2428  0.7154
55263SOL    HW271627   6.189   6.005   7.816 -0.8794  0.9120  0.3247
55264SOL     OW71628   4.791   5.362   2.528 -0.2421 -0.0320 -0.8869
55264SOL    HW171629   4.739   5.435   2.560  0.1231 -0.7418  1.5574
55264SOL    HW271630   4.746   5.284   2.561  0.9332 -0.7663 -0.9436
55265SOL     OW71631   1.272   5.472   2.634  0.0740 -0.2008 -0.3860
55265SOL    HW171632   1.367   5.469   2.642 -0.0007  0.8678  1.4473
55265SOL    HW271633   1.241   5.399   2.686 -0.1311  0.1251 -0.0457
55266SOL     OW71634  12.144   2.256   3.969 -0.1733  0.0521  0.0612
55266SOL    HW171635  12.155   2.330   4.027  2.3651 -0.2696  0.0837
55266SOL    HW271636  12.181   2.284   3.886  1.1095 -1.2462  0.1523
55267SOL     OW71637   1.277   1.228   2.670  0.6148 -0.0156 -0.0626
55267SOL    HW171638   1.364   1.211   2.706  1.4478 -0.4547 -2.1734
55267SOL    HW271639   1.243   1.141   2.647 -0.0450  0.2201 -0.0019
55268SOL     OW71640   5.502  10.250   1.883  0.0499 -0.2134  0.1533
55268SOL    HW171641   5.475  10.217   1.969  0.0981 -1.6500 -0.3581
55268SOL    HW271642   5.596  10.266   1.891 -0.1105  0.5261  0.6252
55269SOL     OW71643  11.496   7.782   3.140 -0.1046 -0.1769  0.0990
55269SOL    HW171644  11.498   7.744   3.052 -4.1466  0.6411 -0.5537
55269SOL    HW271645  11.487   7.707   3.199 -1.0255 -0.5845 -0.5451
55270SOL     OW71646   2.605   3.392   5.745  0.3188 -0.6368  0.2888
55270SOL    HW171647   2.573   3.476   5.777  0.1217 -0.9211  0.8710
55270SOL    HW271648   2.559   3.378   5.662  0.3752 -0.1591  0.1771
55271SOL     OW71649  11.219   8.068   2.576  0.5489 -0.0792  0.1368
55271SOL    HW171650  11.138   8.021   2.593 -0.1601 -0.0490 -2.6787
55271SOL    HW271651  11.225   8.133   2.646 -0.9598 -1.1849  1.3459
55272SOL     OW71652   1.831   5.968  11.736  0.4210  0.1371 -0.0966
55272SOL    HW171653   1.868   5.980  11.648  1.9301 -0.5381  0.4103
55272SOL    HW271654   1.765   6.036  11.743  2.1161  1.9639 -0.7776
55273SOL     OW71655   8.299   6.754   4.521  0.2891 -0.5998 -0.0712
55273SOL    HW171656   8.229   6.700   4.558 -1.3739  2.6036  1.9597
55273SOL    HW271657   8.344   6.790   4.598  2.6211 -0.6321 -1.3352
55274SOL     OW71658   2.272  11.030   0.174  0.1584  0.2852 -0.2393
55274SOL    HW171659   2.336  10.981   0.121  0.0387 -1.1062  0.8417
55274SOL    HW271660   2.198  10.970   0.182 -0.2615  0.9081  0.6038
55275SOL     OW71661   4.098   2.640   3.402  0.3848  0.2152  0.3207
55275SOL    HW171662   4.011   2.616   3.370 -0.1186  1.8992  0.3362
55275SOL    HW271663   4.087   2.650   3.497  1.2712 -2.2424  0.7381
55276SOL     OW71664  10.523   7.372   4.609 -0.1298  0.1420 -0.1626
55276SOL    HW171665  10.486   7.351   4.524  1.6078  1.0205 -1.2031
55276SOL    HW271666  10.483   7.455   4.634  0.2466  0.4995 -0.7235
55277SOL     OW71667   2.781   1.128  10.380 -0.3996 -0.3442 -0.1234
55277SOL    HW171668   2.806   1.219  10.364 -4.1223  1.5821  3.2634
55277SOL    HW271669   2.849   1.095  10.439  0.9410  0.1609 -1.3093
55278SOL     OW71670   6.361   3.075   4.127 -0.1712  0.0994 -0.7072
55278SOL    HW171671   6.288   3.088   4.187  0.3544 -0.6744  0.1116
55278SOL    HW271672   6.396   3.163   4.113 -1.2608  0.4803 -1.1304
55279SOL     OW71673   0.749   4.691   1.940  0.7558 -0.2914  0.4615
55279SOL    HW171674   0.843   4.701   1.952  0.8280  0.1779 -0.3696
55279SOL    HW271675   0.710   4.761   1.993  0.9817  0.7149 -0.6441
55280SOL     OW71676   2.718   0.848   4.839  0.1903 -0.1670  0.7420
55280SOL    HW171677   2.756   0.763   4.860  0.1675  0.1373  2.1174
55280SOL    HW271678   2.793   0.904   4.819  0.1603 -0.6792 -0.8928
55281SOL     OW71679   9.919   9.691  10.039  0.0225 -0.7810 -0.4331
55281SOL    HW171680   9.830   9.712  10.066  0.4147  1.1236 -0.4701
55281SOL    HW271681   9.919   9.702   9.944  0.7681  1.4572 -0.2446
55282SOL     OW71682   7.025   6.856  11.515 -0.1175  0.5838  0.0403
55282SOL    HW171683   7.012   6.918  11.586  0.0204  1.9712 -1.1008
55282SOL    HW271684   7.117   6.832  11.520 -0.1929  0.3791  0.5348
55283SOL     OW71685   0.740   9.798   9.997 -0.1970  0.0801  0.0817
55283SOL    HW171686   0.650   9.800   9.965  0.1897  3.6434 -1.2582
55283SOL    HW271687   0.733   9.815  10.091 -0.9477  2.5616 -0.3525
55284SOL     OW71688   3.244   1.344   0.227 -0.3361 -0.8911  0.0769
55284SOL    HW171689   3.226   1.335   0.134 -1.3738  2.0914 -0.1245
55284SOL    HW271690   3.321   1.400   0.231 -0.5128 -0.6921  1.0126
55285SOL     OW71691   6.335   0.629   6.652  0.1862  0.2449 -0.5414
55285SOL    HW171692   6.270   0.598   6.589 -0.2407  1.1657 -0.5759
55285SOL    HW271693   6.385   0.695   6.605  1.6355 -0.9283 -0.7313
55286SOL     OW71694   7.677  12.131   9.149 -0.1117  0.1478 -0.4237
55286SOL    HW171695   7.680  12.061   9.214 -3.4591  0.7845  0.6027
55286SOL    HW271696   7.634  12.204   9.194  0.3643  1.7561 -2.4102
55287SOL     OW71697   6.234   3.624   4.092  0.3456  0.1701 -0.1781
55287SOL    HW171698   6.292   3.697   4.074  0.5465  0.0535 -0.0031
55287SOL    HW271699   6.152   3.665   4.120  1.2383  0.3323  2.4236
55288SOL     OW71700   4.778   3.638   7.877  0.4610  0.6865 -0.3357
55288SOL    HW171701   4.826   3.655   7.797 -0.4002  0.1372 -0.9851
55288SOL    HW271702   4.809   3.552   7.906  0.8118  0.9093 -0.0515
55289SOL     OW71703   3.196   3.306   4.320  0.7648  0.0149  0.3683
55289SOL    HW171704   3.133   3.376   4.306  1.0286  0.1830 -0.0125
55289SOL    HW271705   3.153   3.246   4.381 -0.0619 -0.2546 -0.4610
55290SOL     OW71706   0.263   2.322   2.686 -0.1804 -0.3916  0.1031
55290SOL    HW171707   0.277   2.229   2.666  0.6377 -0.6048  1.5316
55290SOL    HW271708   0.244   2.324   2.780 -2.1292  0.7182 -0.2466
55291SOL     OW71709   1.891   7.749  11.700  0.4724  0.2568  0.3466
55291SOL    HW171710   1.809   7.742  11.748  0.1763  1.4509  0.0463
55291SOL    HW271711   1.909   7.843  11.697  1.2685  0.0881 -0.5722
55292SOL     OW71712   2.389   0.821   3.857 -0.5862 -0.0528  0.2327
55292SOL    HW171713   2.471   0.807   3.810 -0.3013  0.7168  0.4873
55292SOL    HW271714   2.377   0.740   3.908 -0.5132 -0.5800 -0.5715
55293SOL     OW71715   7.039  10.812  12.167 -0.2528 -0.1731  0.2795
55293SOL    HW171716   6.962  10.863  12.193 -0.4542 -0.6719  0.6816
55293SOL    HW271717   7.059  10.843  12.078  1.1500  2.3912  1.3687
55294SOL     OW71718   0.003   3.950   5.234  0.1652 -0.7207 -0.3196
55294SOL    HW171719   0.045   4.011   5.294 -0.0791  0.5351 -1.3855
55294SOL    HW271720  -0.026   3.878   5.290  0.3175  0.2028  0.9967
55295SOL     OW71721  11.021   2.231   6.644  0.4463 -0.4664  0.0193
55295SOL    HW171722  11.045   2.248   6.735 -0.0829  0.1094  0.0572
55295SOL    HW271723  11.018   2.318   6.604 -1.6741 -0.4732  0.0516
55296SOL     OW71724  12.170   7.460   5.434  0.0029  0.3449  0.3482
55296SOL    HW171725  12.197   7.446   5.343  2.9381  1.3364  0.9670
55296SOL    HW271726  12.087   7.507   5.427  0.4706  0.9677 -1.8386
55297SOL     OW71727   5.233   9.898   5.404  0.3102 -0.1150 -0.0060
55297SOL    HW171728   5.291   9.972   5.385  0.7315  0.4455  2.9709
55297SOL    HW271729   5.146   9.929   5.378  0.7510  0.6986 -0.5568
55298SOL     OW71730  11.034   5.451   2.631 -0.2323 -0.3542  0.4434
55298SOL    HW171731  11.081   5.412   2.704  0.6155  1.4307  0.9248
55298SOL    HW271732  11.024   5.380   2.568 -0.3760 -1.7578  1.9832
55299SOL     OW71733   4.722  11.264   2.342  0.1685 -0.4850  0.9235
55299SOL    HW171734   4.775  11.273   2.263  0.5095 -0.9458  1.0965
55299SOL    HW271735   4.636  11.235   2.310 -0.1197  0.6342  0.6083
55300SOL     OW71736  11.339  12.133  12.068 -0.0583 -0.5166  0.3466
55300SOL    HW171737  11.244  12.132  12.055  0.1379  1.2721 -1.8761
55300SOL    HW271738  11.375  12.141  11.980  2.0551  0.8564  1.2565
55301SOL     OW71739   0.926   1.235   1.125  0.0212 -0.3158  0.4632
55301SOL    HW171740   0.857   1.246   1.190 -0.6469 -4.4571  0.7440
55301SOL    HW271741   1.002   1.206   1.175  0.0713 -1.6688 -0.3338
55302SOL     OW71742   3.205   6.048   5.298  0.3029  0.3579 -0.2634
55302SOL    HW171743   3.238   6.107   5.366 -0.8841 -0.1171  0.7721
55302SOL    HW271744   3.213   6.098   5.217  1.4981  1.0502  0.2577
55303SOL     OW71745   3.955   4.911   5.783 -0.0685  0.5937  0.7233
55303SOL    HW171746   3.919   4.992   5.819  0.1786  0.7626  0.5948
55303SOL    HW271747   3.899   4.891   5.708  0.9632  1.6599 -0.3928
55304SOL     OW71748   3.902  12.049  11.676  0.5908 -0.0834 -0.2550
55304SOL    HW171749   3.966  12.051  11.747  0.9985 -0.4777 -0.6030
55304SOL    HW271750   3.890  11.955  11.658  0.2019  0.0018 -0.4494
55305SOL     OW71751  11.092   2.848   4.222  0.2440  0.5824 -0.5240
55305SOL    HW171752  11.148   2.821   4.149 -1.0562 -0.0200 -1.3575
55305SOL    HW271753  11.081   2.942   4.210  0.3711  0.5546 -0.8711
55306SOL     OW71754  10.166   2.093   1.911  0.5087 -0.6214  0.0285
55306SOL    HW171755  10.096   2.030   1.893 -0.2024  0.1489  0.0218
55306SOL    HW271756  10.120   2.176   1.926  1.4557 -0.0008 -0.4444
55307SOL     OW71757   2.332   5.616   3.569 -0.3275 -0.6156 -0.1676
55307SOL    HW171758   2.381   5.551   3.519 -0.9902 -0.0062 -1.6412
55307SOL    HW271759   2.336   5.696   3.517 -0.6274  0.1776  0.9834
55308SOL     OW71760   2.998   9.870   0.266  0.0673 -0.0419 -0.2044
55308SOL    HW171761   3.089   9.898   0.270 -0.1609  0.8074 -0.6945
55308SOL    HW271762   2.998   9.797   0.203  0.4685 -0.3206  0.1140
55309SOL     OW71763   7.303   3.047   3.406 -0.0372  0.6282 -0.4224
55309SOL    HW171764   7.288   3.135   3.440  1.2239  0.1967  1.3855
55309SOL    HW271765   7.296   2.990   3.483 -1.4158 -0.9595 -1.6379
55310SOL     OW71766   5.654   4.550   9.998  0.0573 -0.4591  0.2461
55310SOL    HW171767   5.615   4.508  10.075  0.5129 -0.1492  0.6577
55310SOL    HW271768   5.675   4.477   9.940 -1.2034 -0.6224 -0.0297
55311SOL     OW71769   5.568   9.097   6.135  0.1802  0.2444  0.5006
55311SOL    HW171770   5.475   9.075   6.141  0.3737 -0.5671  0.6861
55311SOL    HW271771   5.569   9.189   6.109 -0.6803 -0.3695 -1.9796
55312SOL     OW71772   8.892  11.368   3.931  0.2897  0.3363  0.8030
55312SOL    HW171773   8.808  11.337   3.963 -0.3749  1.2926  0.0414
55312SOL    HW271774   8.908  11.450   3.979  0.2005  0.7751  0.1044
55313SOL     OW71775   8.574  11.564   0.454  0.2703  0.1653  0.0040
55313SOL    HW171776   8.666  11.546   0.435  0.7338  0.8818  1.3900
55313SOL    HW271777   8.574  11.599   0.543 -1.2395  1.1073 -0.3208
55314SOL     OW71778   8.241   3.612  10.537  1.0105 -0.4233 -0.0969
55314SOL    HW171779   8.164   3.581  10.585  2.5367 -1.3716  1.9328
55314SOL    HW271780   8.206   3.652  10.458 -1.5713 -0.4766  0.9156
55315SOL     OW71781   2.398   4.136   3.726 -0.7478 -0.6196  0.1695
55315SOL    HW171782   2.329   4.195   3.756 -0.5796 -0.3667  0.0631
55315SOL    HW271783   2.366   4.102   3.642 -0.6680 -0.3726  0.0386
55316SOL     OW71784   7.779   8.882   0.013 -0.1521 -0.3133  0.8631
55316SOL    HW171785   7.762   8.885  -0.081 -0.5234 -0.3368  0.9286
55316SOL    HW271786   7.812   8.969   0.035 -0.0495 -0.3137  0.7099
55317SOL     OW71787  10.978   1.223   7.022 -0.6334  0.2052 -0.2411
55317SOL    HW171788  10.903   1.173   7.054 -0.2119 -0.9299 -0.9703
55317SOL    HW271789  11.051   1.194   7.076 -0.5470  0.6666 -0.1072
55318SOL     OW71790   9.164   1.437  10.762  0.5048  0.3272 -0.1850
55318SOL    HW171791   9.101   1.422  10.692 -0.5924 -0.4594  0.9334
55318SOL    HW271792   9.154   1.530  10.783  0.2080  0.3617 -0.4677
55319SOL     OW71793   2.061   5.219   8.085  0.2334  0.3699 -0.0537
55319SOL    HW171794   2.092   5.309   8.074  1.3546  0.0432  0.2853
55319SOL    HW271795   2.032   5.214   8.176 -0.6253  0.6169 -0.3108
55320SOL     OW71796   9.683   9.586   8.258 -0.1816  0.4283  0.1245
55320SOL    HW171797   9.625   9.660   8.276  1.9713  2.8630 -2.0759
55320SOL    HW271798   9.653   9.552   8.174  0.6041  0.6789 -0.2621
55321SOL     OW71799  11.874   6.239  12.119 -0.4428  0.1193 -0.0094
55321SOL    HW171800  11.797   6.181  12.121 -0.3402 -0.1147 -1.7952
55321SOL    HW271801  11.879   6.270  12.029  2.6789 -1.3975 -0.4853
55322SOL     OW71802   4.869   1.950   7.648 -0.3061  0.2616 -0.4929
55322SOL    HW171803   4.865   1.906   7.733 -2.4730 -0.3449 -0.8693
55322SOL    HW271804   4.961   1.977   7.640  0.2591 -0.8999  1.4006
55323SOL     OW71805  10.825   8.272   8.371 -0.3966  0.8579 -0.1690
55323SOL    HW171806  10.818   8.254   8.277 -1.4574  0.3289  0.0042
55323SOL    HW271807  10.919   8.284   8.385 -0.1639  0.3864 -1.1949
55324SOL     OW71808  10.543   4.057   7.030  0.2802  0.0193  0.1335
55324SOL    HW171809  10.614   4.105   7.072  0.1968  0.1315  0.1467
55324SOL    HW271810  10.528   4.102   6.947 -0.1381  0.3251  0.3732
55325SOL     OW71811   8.835   1.840   3.460 -0.2276 -0.1368  0.4878
55325SOL    HW171812   8.757   1.867   3.508  0.5124  0.3439  1.4505
55325SOL    HW271813   8.802   1.781   3.392 -1.2700 -1.0360  1.7403
55326SOL     OW71814   0.087   9.028  12.198 -0.2473  0.0514  0.0684
55326SOL    HW171815   0.165   8.972  12.199 -0.4261 -0.2311  1.9382
55326SOL    HW271816   0.014   8.967  12.192 -0.3993  0.1121  1.0502
55327SOL     OW71817   6.249   6.020   9.931 -0.1382 -0.0526 -0.2822
55327SOL    HW171818   6.252   5.964   9.854 -0.2052  0.1914 -0.4644
55327SOL    HW271819   6.328   6.074   9.924 -0.7458  0.8007 -0.8210
55328SOL     OW71820   2.263   4.189   4.587 -0.7609  0.0099 -0.1958
55328SOL    HW171821   2.349   4.155   4.563 -0.3868  1.7729 -1.5109
55328SOL    HW271822   2.222   4.117   4.635  2.0101 -0.3565  1.9222
55329SOL     OW71823  11.083   4.109   8.035 -0.1234  0.3304  0.2591
55329SOL    HW171824  11.056   4.195   8.068 -0.2651  0.0078  1.0136
55329SOL    HW271825  11.162   4.088   8.084  0.4334  0.4356 -0.5920
55330SOL     OW71826   1.487   0.870   3.469  0.2533  0.0923 -0.6303
55330SOL    HW171827   1.530   0.876   3.554 -0.5751  2.5341 -0.2912
55330SOL    HW271828   1.552   0.904   3.407  0.6139 -1.0605 -0.9124
55331SOL     OW71829   9.544   8.076   6.178  0.1010  0.2784 -0.2075
55331SOL    HW171830   9.463   8.089   6.226  0.0149  0.4432 -0.3936
55331SOL    HW271831   9.598   8.151   6.201 -0.5497  1.2053 -1.5984
55332SOL     OW71832  11.236   3.081  12.319  0.0716 -0.1544 -0.0579
55332SOL    HW171833  11.144   3.056  12.310  0.3188 -1.7637  1.3392
55332SOL    HW271834  11.235   3.160  12.373 -0.4706 -0.3477  0.2174
55333SOL     OW71835   4.250   8.256   6.010  0.0681  0.9236  0.1269
55333SOL    HW171836   4.239   8.348   5.986 -0.4046  0.5208 -1.3101
55333SOL    HW271837   4.201   8.208   5.943  2.1322 -0.4784 -0.4875
55334SOL     OW71838   0.965   2.150   0.406  0.4457  0.0386 -0.0498
55334SOL    HW171839   1.011   2.190   0.332 -0.6356  1.0111 -0.2119
55334SOL    HW271840   0.879   2.126   0.371  0.9014 -2.0705  0.1554
55335SOL     OW71841   2.466   3.171   5.814 -0.1959  0.7061  0.6568
55335SOL    HW171842   2.536   3.216   5.767 -2.4427  3.7217 -0.0674
55335SOL    HW271843   2.499   3.163   5.904  1.5086  0.9588  0.0942
55336SOL     OW71844   1.172   2.904   4.523  0.0712  0.2882  0.0011
55336SOL    HW171845   1.160   2.983   4.470  1.8097  0.1003 -0.7336
55336SOL    HW271846   1.257   2.870   4.496 -0.6588 -1.8761  0.2868
55337SOL     OW71847   5.682   4.171   5.054  0.2513 -0.1555 -0.4405
55337SOL    HW171848   5.708   4.188   4.964  0.4994 -0.6379 -0.4659
55337SOL    HW271849   5.746   4.107   5.086 -0.1051 -0.3371 -0.0727
55338SOL     OW71850   7.456   4.096  11.337  0.1980 -0.2877  0.2112
55338SOL    HW171851   7.526   4.041  11.302 -0.0392 -0.2444 -0.3373
55338SOL    HW271852   7.377   4.067  11.292  0.1540  0.8538 -0.4772
55339SOL     OW71853   3.690   4.012  10.223 -0.1161  0.2868  0.0994
55339SOL    HW171854   3.630   4.026  10.149 -0.1222 -1.2147 -0.2257
55339SOL    HW271855   3.661   4.074  10.290 -1.6990 -0.0086 -0.2666
55340SOL     OW71856   5.392   0.981   7.633  0.6950 -0.4847  0.0049
55340SOL    HW171857   5.381   0.955   7.724  0.2838  0.9801  0.3814
55340SOL    HW271858   5.311   0.955   7.590 -0.9053  2.5310  0.9654
55341SOL     OW71859   6.669   1.354   5.391 -0.3836 -0.1675 -0.0493
55341SOL    HW171860   6.670   1.372   5.485  0.5124 -2.5304  0.4837
55341SOL    HW271861   6.592   1.400   5.358  0.7031  2.9020  1.2929
55342SOL     OW71862  10.381   4.237   0.431 -0.5126  0.0831  0.4158
55342SOL    HW171863  10.304   4.206   0.383  0.0147 -2.1074  0.8858
55342SOL    HW271864  10.455   4.209   0.378  0.0258  2.0921  0.0199
55343SOL     OW71865   9.907  10.603   9.745  0.2429 -0.7504 -0.4082
55343SOL    HW171866   9.870  10.558   9.821 -1.2570 -1.0828 -1.2889
55343SOL    HW271867   9.967  10.540   9.707  0.6805 -0.7407  0.2551
55344SOL     OW71868   5.776  11.471   0.973  0.0999 -0.1941  0.0836
55344SOL    HW171869   5.719  11.408   1.016 -1.0910  0.3264 -0.6516
55344SOL    HW271870   5.864  11.452   1.006 -0.6430 -0.2430  2.1981
55345SOL     OW71871   7.559  10.334   9.798 -0.0398 -0.6265 -0.3650
55345SOL    HW171872   7.492  10.284   9.751 -0.1378  0.6627 -1.6587
55345SOL    HW271873   7.561  10.419   9.754  1.8233 -0.3250  0.2182
55346SOL     OW71874   9.592   9.098   0.827 -0.4700 -0.2799  0.0947
55346SOL    HW171875   9.507   9.115   0.786 -0.0087 -0.2175 -0.8696
55346SOL    HW271876   9.651   9.081   0.754  0.0734 -1.6405  0.8106
55347SOL     OW71877   7.802   9.139  12.173  0.2127 -0.0525  0.0196
55347SOL    HW171878   7.731   9.202  12.159  0.7080  0.6267  0.5125
55347SOL    HW271879   7.795   9.078  12.099 -2.3131 -1.3703  1.2343
55348SOL     OW71880   5.737  10.844   3.762 -0.1604 -0.3488 -0.4102
55348SOL    HW171881   5.650  10.883   3.767  0.2605  0.4406  1.5624
55348SOL    HW271882   5.794  10.905   3.808  1.1874 -1.5234 -0.4309
55349SOL     OW71883   9.318   9.412  10.080 -0.5973  0.0170 -0.8553
55349SOL    HW171884   9.370   9.351  10.028 -1.6656 -1.2060 -0.5378
55349SOL    HW271885   9.381   9.453  10.139 -0.1458 -2.5640  0.5984
55350SOL     OW71886  10.472   2.341   3.410  0.0794  0.1091 -0.2777
55350SOL    HW171887  10.384   2.304   3.419  0.5246 -0.6907  1.1542
55350SOL    HW271888  10.519   2.279   3.355  0.4280 -0.7693  0.9798
55351SOL     OW71889   8.081   9.959   0.653 -0.3645  0.1250  0.0333
55351SOL    HW171890   8.148  10.009   0.606 -0.5075 -0.0342 -0.3421
55351SOL    HW271891   8.014  10.024   0.675  0.1145  0.3737  0.8035
55352SOL     OW71892   1.469   7.253  10.191  0.4425 -0.5184  0.1890
55352SOL    HW171893   1.469   7.345  10.219 -0.0900 -0.4855  0.1039
55352SOL    HW271894   1.477   7.258  10.095 -0.0244 -0.5410  0.1463
55353SOL     OW71895   0.425  10.017   6.401  0.1007 -0.2607 -0.1632
55353SOL    HW171896   0.504   9.964   6.410  0.5021  0.3309 -0.1121
55353SOL    HW271897   0.368   9.967   6.342 -0.0755 -1.3651  0.8959
55354SOL     OW71898   1.349   8.507   7.621 -0.8673  0.1464 -0.1547
55354SOL    HW171899   1.414   8.552   7.675  0.1046  0.0732 -1.2138
55354SOL    HW271900   1.275   8.567   7.618 -1.2333 -0.1607  1.8116
55355SOL     OW71901   7.244   2.041   0.457 -0.1314 -0.4565 -0.0157
55355SOL    HW171902   7.155   2.009   0.442 -0.3026 -1.7599  2.9305
55355SOL    HW271903   7.265   2.092   0.379 -3.5758  0.1866 -0.7079
55356SOL     OW71904  11.158   7.260   3.195  0.6630 -0.1411  0.6762
55356SOL    HW171905  11.126   7.175   3.226 -1.4573  1.0678  1.9732
55356SOL    HW271906  11.251   7.244   3.177  0.0104 -3.1713 -0.8763
55357SOL     OW71907   9.775   1.995   9.198 -0.4715  0.0039 -0.9477
55357SOL    HW171908   9.866   1.968   9.189 -0.0540  1.1853 -0.4511
55357SOL    HW271909   9.751   1.967   9.287 -0.3914  0.2788 -0.8401
55358SOL     OW71910   9.055   7.620   6.071  0.7445 -0.0399  0.1118
55358SOL    HW171911   9.138   7.600   6.115  1.0799 -0.6411 -0.7615
55358SOL    HW271912   9.035   7.710   6.097  2.7502  0.9036 -1.2787
55359SOL     OW71913   6.786   5.157   1.539 -0.4255 -0.1533  0.2960
55359SOL    HW171914   6.871   5.140   1.580 -0.2040  1.5666  0.6423
55359SOL    HW271915   6.806   5.171   1.447 -0.3399  0.1519  0.3600
55360SOL     OW71916   8.271   8.453  11.935  0.2274 -0.6093  0.2236
55360SOL    HW171917   8.219   8.386  11.891  0.8976 -0.1167 -1.3624
55360SOL    HW271918   8.344   8.405  11.974 -0.4603 -1.0700  0.9809
55361SOL     OW71919   3.454  11.842   8.600  0.2031 -0.0509  0.2057
55361SOL    HW171920   3.483  11.763   8.646  0.8708  0.7644  1.2125
55361SOL    HW271921   3.423  11.900   8.670 -0.2360  0.6003 -0.5193
55362SOL     OW71922   8.008   0.553   5.028  0.6562 -0.2492 -0.1188
55362SOL    HW171923   7.986   0.644   5.010 -2.2717 -0.7417  0.3415
55362SOL    HW271924   7.973   0.505   4.952 -0.0246 -1.1611  0.7423
55363SOL     OW71925   1.376   3.406   4.671 -0.2000  0.1172 -0.0091
55363SOL    HW171926   1.377   3.418   4.576 -0.0655  0.2586  0.0088
55363SOL    HW271927   1.399   3.314   4.684 -0.8099 -0.0578 -0.1354
55364SOL     OW71928   6.545   5.601   2.614 -0.7142  0.3271  0.3485
55364SOL    HW171929   6.527   5.610   2.707  0.4017 -2.2461  0.9086
55364SOL    HW271930   6.631   5.560   2.609 -0.6549  0.5593 -1.8340
55365SOL     OW71931  10.477  10.169   9.097  0.9436  0.0579  0.0905
55365SOL    HW171932  10.497  10.109   9.026  0.2234  0.7761 -0.7484
55365SOL    HW271933  10.381  10.176   9.097  0.9975  0.9416  0.3846
55366SOL     OW71934   6.662   5.266   5.205 -0.4850 -0.0167  0.0173
55366SOL    HW171935   6.583   5.309   5.173 -1.3061 -1.2948  0.2600
55366SOL    HW271936   6.674   5.192   5.145 -0.1702 -0.5324  0.7134
55367SOL     OW71937   3.844   6.459   8.386 -0.0669  0.0881  0.4232
55367SOL    HW171938   3.764   6.501   8.417 -0.4945 -0.8052  0.5472
55367SOL    HW271939   3.828   6.440   8.294  0.5172  1.0903  0.0905
55368SOL     OW71940   6.176   1.882  10.717  0.4559  0.3129  0.3745
55368SOL    HW171941   6.207   1.833  10.794 -0.4198  0.6691  0.9836
55368SOL    HW271942   6.183   1.820  10.645 -1.3618 -1.0441  1.2647
55369SOL     OW71943  11.177   7.589  11.542  0.3815 -0.3315 -0.1642
55369SOL    HW171944  11.251   7.598  11.602 -0.1986  0.3558  0.4732
55369SOL    HW271945  11.198   7.648  11.469  0.5367 -0.2538 -0.0579
55370SOL     OW71946   0.009   3.276   9.654 -0.3525  0.0644 -0.0284
55370SOL    HW171947  -0.048   3.344   9.689 -0.0519  0.1899  0.2251
55370SOL    HW271948   0.037   3.226   9.731 -0.7259 -0.4699 -0.2328
55371SOL     OW71949   3.336   2.642   9.610  0.1225 -0.5585 -0.4885
55371SOL    HW171950   3.383   2.671   9.532 -1.3363 -1.2320 -1.6564
55371SOL    HW271951   3.372   2.696   9.681  2.3646 -0.7942 -1.3693
55372SOL     OW71952   7.144   1.634   7.496 -0.2384 -0.0161  0.3369
55372SOL    HW171953   7.207   1.683   7.442 -0.2156 -0.6730 -0.2432
55372SOL    HW271954   7.063   1.634   7.445  0.2018 -1.9511 -0.4479
55373SOL     OW71955   6.536   5.391   8.386  0.2838  0.1260 -0.5774
55373SOL    HW171956   6.588   5.366   8.309  0.9104  1.2377 -0.5409
55373SOL    HW271957   6.526   5.486   8.377 -1.0501  0.0404 -0.1385
55374SOL     OW71958  11.465   7.971   0.659 -0.4524 -0.1766  0.2504
55374SOL    HW171959  11.471   8.018   0.576 -0.4217  1.3940  1.1190
55374SOL    HW271960  11.394   7.908   0.645  0.1571 -0.5894 -1.2498
55375SOL     OW71961   7.233  10.198   2.403  0.1804  0.1197  0.0369
55375SOL    HW171962   7.144  10.176   2.431 -0.7301  1.0412 -1.9412
55375SOL    HW271963   7.287  10.126   2.437 -0.9249  0.5267  2.9918
55376SOL     OW71964  12.030  12.219   6.335  0.0507 -0.1599 -0.4778
55376SOL    HW171965  11.962  12.154   6.317 -1.5885  1.1474  0.7590
55376SOL    HW271966  12.066  12.240   6.248 -0.7918 -1.2088 -1.1103
55377SOL     OW71967   1.205   1.746   2.818  0.2174 -0.1791 -0.4208
55377SOL    HW171968   1.226   1.685   2.747  1.9082  0.6077 -0.6490
55377SOL    HW271969   1.252   1.712   2.894 -1.3323 -0.8431  0.2708
55378SOL     OW71970   3.289   5.604   4.722  0.4800  0.0122 -0.2174
55378SOL    HW171971   3.371   5.599   4.672  2.2290  0.2784  2.3685
55378SOL    HW271972   3.246   5.520   4.707  1.1971 -0.1175 -1.6765
55379SOL     OW71973  10.814   5.532   3.646 -0.2880 -0.2510 -0.3272
55379SOL    HW171974  10.878   5.538   3.575 -0.6097 -1.3910 -0.7362
55379SOL    HW271975  10.732   5.508   3.603 -0.2615 -1.9912  0.5093
55380SOL     OW71976   0.253   5.154   5.179 -0.1489 -0.2553 -0.1211
55380SOL    HW171977   0.308   5.186   5.108  0.4669 -0.2828  0.3362
55380SOL    HW271978   0.266   5.059   5.178  0.2304 -0.2123  0.3227
55381SOL     OW71979   5.601   0.667   4.423  0.0154 -0.2724 -0.1511
55381SOL    HW171980   5.549   0.735   4.380  0.4290  0.0995 -0.0671
55381SOL    HW271981   5.601   0.594   4.361 -0.1477 -0.0721 -0.3887
55382SOL     OW71982   0.973   9.111   7.665 -0.1085 -0.0308 -0.4471
55382SOL    HW171983   0.919   9.040   7.630  1.1749 -1.0932 -0.3584
55382SOL    HW271984   0.963   9.105   7.760 -0.8923  0.6618 -0.4717
55383SOL     OW71985   2.991   5.515   5.091 -0.9978 -0.7148 -0.4044
55383SOL    HW171986   3.074   5.538   5.134 -0.5641 -1.0655 -1.0454
55383SOL    HW271987   2.973   5.589   5.033 -1.9843  0.1257  0.9162
55384SOL     OW71988   7.794   5.204  11.930  0.1004 -0.3844  0.3387
55384SOL    HW171989   7.874   5.251  11.906 -1.6377  2.4390 -0.4601
55384SOL    HW271990   7.780   5.224  12.022 -1.5437  2.4123 -0.3902
55385SOL     OW71991   6.004  10.451  11.687  0.3108 -0.5899  0.2308
55385SOL    HW171992   6.008  10.512  11.613 -0.7918 -1.6084 -0.7222
55385SOL    HW271993   6.093  10.447  11.720  0.9351 -0.4262 -1.3372
55386SOL     OW71994   5.409   5.747   8.351  0.4112 -0.3026  0.4354
55386SOL    HW171995   5.343   5.815   8.340  0.8749  0.5233  2.2983
55386SOL    HW271996   5.402   5.693   8.272 -1.7000  0.4110  0.0720
55387SOL     OW71997   8.412   0.075  12.140 -0.6136  0.8486  0.1544
55387SOL    HW171998   8.349   0.118  12.083 -0.3307  1.2201  0.1173
55387SOL    HW271999   8.383   0.097  12.229 -0.3200  1.3423  0.1321
55388SOL     OW72000   5.096   5.966   2.441 -0.1959  0.3506  0.6333
55388SOL    HW172001   5.018   6.020   2.427  1.9305  3.3932 -0.6679
55388SOL    HW272002   5.141   6.009   2.513  1.3129 -0.0219 -0.0565
55389SOL     OW72003   2.303   7.396   2.980 -0.4357 -0.2264  0.0584
55389SOL    HW172004   2.288   7.328   3.046 -2.2636  0.1740  0.1002
55389SOL    HW272005   2.329   7.473   3.030  0.3370 -0.5136  0.1144
55390SOL     OW72006   8.771   9.475   6.360 -0.5030  0.2851  0.0756
55390SOL    HW172007   8.798   9.410   6.295  0.4528  0.4190  0.3274
55390SOL    HW272008   8.680   9.493   6.339 -1.1070 -1.8766  0.6098
55391SOL     OW72009   0.585   2.845   2.532 -0.2000  0.5395  0.0567
55391SOL    HW172010   0.671   2.884   2.547  0.0073 -0.5465  1.9664
55391SOL    HW272011   0.603   2.751   2.519 -1.1006  0.2501  0.8049
55392SOL     OW72012  11.011   8.410   6.487 -0.5199 -0.1975  0.2915
55392SOL    HW172013  10.959   8.412   6.567 -0.2332  0.5753  0.4692
55392SOL    HW272014  11.100   8.392   6.517 -0.0885  1.8098  0.3547
55393SOL     OW72015   1.921   4.993   1.951  0.4776 -0.0389  0.2781
55393SOL    HW172016   1.991   4.940   1.991  0.3137  0.1607  0.8492
55393SOL    HW272017   1.894   4.943   1.874  1.9471  0.3773 -0.5393
55394SOL     OW72018   0.685  12.248   6.397 -0.2840  0.1196 -0.0226
55394SOL    HW172019   0.674  12.331   6.352 -0.1217 -0.8958 -2.0637
55394SOL    HW272020   0.738  12.195   6.337 -0.5888 -1.5284  1.0910
55395SOL     OW72021   4.279   9.289   0.754 -0.3343 -0.2186 -0.2519
55395SOL    HW172022   4.375   9.286   0.750 -0.2151  1.0945  0.7113
55395SOL    HW272023   4.250   9.209   0.711  1.1929 -0.5234 -0.7657
55396SOL     OW72024   9.701   1.495   9.023  0.3540 -0.3969 -0.3500
55396SOL    HW172025   9.698   1.586   9.052 -2.9639  0.3483 -2.4891
55396SOL    HW272026   9.713   1.444   9.103  2.6529  1.8697  0.8613
55397SOL     OW72027   3.175   8.142   2.328 -0.7688 -0.0068 -0.0194
55397SOL    HW172028   3.098   8.103   2.286 -0.9241  0.9438 -0.6220
55397SOL    HW272029   3.212   8.201   2.263  1.0577 -1.1412 -0.1004
55398SOL     OW72030   3.842   6.493   1.707 -0.1090  0.2798  0.2788
55398SOL    HW172031   3.773   6.455   1.760  0.1814 -0.1737  0.3431
55398SOL    HW272032   3.808   6.578   1.678 -1.1801 -0.4675 -0.7063
55399SOL     OW72033   0.685   3.479  10.206  0.3410  0.1197  0.1415
55399SOL    HW172034   0.660   3.536  10.279  0.9139  0.9243 -0.2818
55399SOL    HW272035   0.607   3.478  10.150 -0.4339 -1.2288  1.1849
55400SOL     OW72036   6.566   0.051   2.900  0.7098 -0.3107 -0.0540
55400SOL    HW172037   6.639  -0.011   2.898  1.6595  0.7747  0.0893
55400SOL    HW272038   6.584   0.112   2.828 -1.2008 -1.2591 -1.4178
55401SOL     OW72039   4.623   4.013   8.881 -0.0349 -0.0258 -0.1753
55401SOL    HW172040   4.631   3.991   8.789  0.1332 -0.1144 -0.1393
55401SOL    HW272041   4.528   4.012   8.898 -0.0549 -0.2227 -0.2946
55402SOL     OW72042   9.646   7.797   7.033 -0.1665  0.8892 -0.2396
55402SOL    HW172043   9.602   7.799   7.118  0.1687  0.2322 -0.0355
55402SOL    HW272044   9.635   7.706   7.003  1.9311  0.3806  0.3187
55403SOL     OW72045   8.765  10.617   8.360 -0.1382 -0.1189 -0.3361
55403SOL    HW172046   8.791  10.682   8.425 -1.5738  1.9846 -1.7539
55403SOL    HW272047   8.839  10.614   8.299  0.3347 -0.5870  0.2383
55404SOL     OW72048   7.247   9.212   7.856 -0.3793  0.2518  0.2593
55404SOL    HW172049   7.153   9.215   7.836 -0.5745 -0.4463  1.0454
55404SOL    HW272050   7.284   9.164   7.782 -0.7936 -0.3817  0.4488
55405SOL     OW72051   2.720  10.595  10.824 -0.0012  0.2471 -1.0945
55405SOL    HW172052   2.640  10.602  10.772 -0.8704 -2.2153 -0.2402
55405SOL    HW272053   2.768  10.522  10.786  1.0931  0.6752 -0.5988
55406SOL     OW72054   8.067   8.972   2.902  0.2132 -0.5197 -1.1637
55406SOL    HW172055   8.107   8.889   2.876  1.8340  0.3159 -1.4313
55406SOL    HW272056   8.060   9.022   2.820  0.7900  0.2446 -0.7586
55407SOL     OW72057  11.593  12.199  12.177  0.0371 -0.4995 -0.3123
55407SOL    HW172058  11.498  12.191  12.162 -0.1414  0.9357 -0.0867
55407SOL    HW272059  11.621  12.266  12.114  1.0847 -1.5566 -1.0038
55408SOL     OW72060   3.532   0.957   2.494  0.1799 -0.0745 -0.5451
55408SOL    HW172061   3.561   1.005   2.416  1.2175  2.1048  1.0495
55408SOL    HW272062   3.470   0.892   2.462  0.3419  0.9561 -3.1280
55409SOL     OW72063   5.208   4.908  11.803 -0.5753 -0.0349 -0.5094
55409SOL    HW172064   5.227   4.969  11.874  1.7563  0.4153 -1.4202
55409SOL    HW272065   5.288   4.855  11.795 -0.2900  0.6586 -3.4643
55410SOL     OW72066   6.012   1.647   5.239 -0.5023  0.0328 -0.1428
55410SOL    HW172067   6.054   1.603   5.313 -2.0228  0.9714  1.3405
55410SOL    HW272068   6.047   1.602   5.162  2.5828  0.2653  0.9983
55411SOL     OW72069   7.739   5.283   4.774  0.4030  0.5393  0.2406
55411SOL    HW172070   7.661   5.230   4.793 -0.5461  1.7231 -0.1686
55411SOL    HW272071   7.805   5.221   4.746 -1.1312 -0.3074 -1.6622
55412SOL     OW72072   3.565   1.438   3.127 -0.0114  0.6488 -0.0109
55412SOL    HW172073   3.510   1.374   3.171  0.7940 -0.1760 -0.1856
55412SOL    HW272074   3.586   1.398   3.043 -0.1639  1.4984 -0.4681
55413SOL     OW72075   9.073   4.213   2.145  0.0792  0.2891  0.2319
55413SOL    HW172076   9.158   4.234   2.106 -0.6110  0.0922 -1.4242
55413SOL    HW272077   9.089   4.130   2.191  0.6038 -0.1709 -0.7365
55414SOL     OW72078   0.518   3.638   6.586  0.3286 -0.0122 -0.0809
55414SOL    HW172079   0.486   3.724   6.559 -0.1972 -0.1160  0.2103
55414SOL    HW272080   0.533   3.591   6.504  2.7217  1.0922 -0.3662
55415SOL     OW72081  10.951  11.834   9.773  0.0125 -0.3573  0.0348
55415SOL    HW172082  11.032  11.822   9.823  0.3181 -0.8990 -0.5722
55415SOL    HW272083  10.958  11.922   9.736  0.4753 -0.5165 -0.2692
55416SOL     OW72084   7.251   3.263   0.679  0.3521  0.9120 -0.5992
55416SOL    HW172085   7.326   3.205   0.687  1.0124  1.8221  0.0098
55416SOL    HW272086   7.288   3.347   0.652 -0.3666  1.5308  0.2687
55417SOL     OW72087   2.494   3.919   9.726 -0.8111 -0.1858  0.2046
55417SOL    HW172088   2.536   3.963   9.653 -1.9142  0.8268  0.1588
55417SOL    HW272089   2.406   3.957   9.731 -1.7198 -2.1558  0.3595
55418SOL     OW72090   2.948  11.497  11.165  0.6818 -0.8229 -0.1230
55418SOL    HW172091   2.995  11.579  11.152 -0.0234 -0.2355  0.9590
55418SOL    HW272092   2.958  11.450  11.082 -1.6503  1.7208 -2.0009
55419SOL     OW72093   0.135   7.148   7.932  0.5229 -0.1808 -0.3416
55419SOL    HW172094   0.127   7.071   7.876  1.5355 -0.3784 -0.2142
55419SOL    HW272095   0.228   7.166   7.936  0.3976  0.3054  0.6569
55420SOL     OW72096   3.919  11.454  11.655  0.0265 -0.0808  0.4862
55420SOL    HW172097   3.871  11.502  11.723  0.6689 -0.9423  1.5844
55420SOL    HW272098   3.863  11.378  11.636 -0.6196  0.6678 -0.6835
55421SOL     OW72099   9.944   6.491   4.901  0.7965 -0.2672 -0.0479
55421SOL    HW172100   9.921   6.566   4.955  0.7101 -1.6605  1.9726
55421SOL    HW272101   9.919   6.516   4.813 -1.2905  1.2351  0.8917
55422SOL     OW72102  12.098   9.219  10.487 -0.0255 -0.0711 -0.0859
55422SOL    HW172103  12.077   9.175  10.404  0.8924  1.2237 -1.0354
55422SOL    HW272104  12.165   9.163  10.527  1.0685  0.3666 -1.2434
55423SOL     OW72105   9.576   5.466   6.299  0.7612  0.1400  0.3121
55423SOL    HW172106   9.533   5.426   6.375  1.1682  0.3364  0.6519
55423SOL    HW272107   9.508   5.470   6.232  0.2772  0.3460  0.8050
55424SOL     OW72108   0.059   2.698   0.573  0.1052 -0.5762  0.1695
55424SOL    HW172109   0.138   2.645   0.565 -0.5093 -1.7118  1.3100
55424SOL    HW272110  -0.011   2.643   0.537 -0.3554 -0.0168  0.1839
55425SOL     OW72111   6.453   6.324   8.103  0.1378 -0.0090 -0.0468
55425SOL    HW172112   6.447   6.263   8.030 -1.4119  1.0325 -0.8481
55425SOL    HW272113   6.540   6.363   8.095  0.6952 -1.2522 -0.2091
55426SOL     OW72114   4.189  11.955  10.694  0.1811 -0.0656  0.0063
55426SOL    HW172115   4.130  12.028  10.716  0.6820 -0.2746  2.3630
55426SOL    HW272116   4.250  11.992  10.631 -1.6417  0.5232 -1.5015
55427SOL     OW72117   6.428   9.704   8.940  0.4168  0.3570 -0.2163
55427SOL    HW172118   6.417   9.706   8.845  1.7916 -1.3563 -0.4672
55427SOL    HW272119   6.454   9.614   8.959  3.2540  1.4008  1.3929
55428SOL     OW72120   4.992  11.950   9.553  0.0401  0.0188  0.7977
55428SOL    HW172121   4.973  11.979   9.642  2.5203  2.4203  0.6699
55428SOL    HW272122   5.071  11.895   9.562  0.3335  0.3155  0.0952
55429SOL     OW72123   4.373   2.692   6.777 -0.1517  0.7094  0.3137
55429SOL    HW172124   4.368   2.601   6.807  0.9384  0.7582  0.6803
55429SOL    HW272125   4.421   2.738   6.846  0.1738  1.3512 -0.3264
55430SOL     OW72126   0.998   0.047   2.370 -0.6526  0.1210 -0.2059
55430SOL    HW172127   1.048   0.123   2.400  0.9317  0.5482 -3.4600
55430SOL    HW272128   0.908   0.078   2.367 -0.6091  0.6472  1.8955
55431SOL     OW72129   8.537   4.381   3.822  0.1924  0.8976 -0.0306
55431SOL    HW172130   8.572   4.313   3.765 -1.6097 -0.2567  0.1316
55431SOL    HW272131   8.608   4.445   3.832  1.5866 -0.4447 -1.0212
55432SOL     OW72132   0.978   1.315   9.570 -0.1093 -0.2237  0.3637
55432SOL    HW172133   0.973   1.361   9.654  1.5786 -0.4212  0.6102
55432SOL    HW272134   1.025   1.234   9.590  1.0030  0.0762 -0.8825
55433SOL     OW72135   6.993   0.798   1.930  0.9411 -0.2147 -0.3257
55433SOL    HW172136   7.047   0.829   1.857  0.7814 -2.6288 -1.5997
55433SOL    HW272137   6.967   0.877   1.977  2.6213  1.2886 -1.7737
55434SOL     OW72138  11.186   6.833  11.711 -0.3313  0.5164  0.4169
55434SOL    HW172139  11.258   6.887  11.678 -0.1093  0.0855  0.1974
55434SOL    HW272140  11.170   6.867  11.799 -0.9389  1.6773 -0.1209
55435SOL     OW72141   4.235  12.212   0.172 -0.4131  0.0832 -0.2241
55435SOL    HW172142   4.241  12.122   0.204 -0.6652  0.5988  1.3328
55435SOL    HW272143   4.147  12.218   0.135 -0.1679 -0.4793 -0.9278
55436SOL     OW72144   1.969  11.773   4.878  0.2616  0.4289 -0.4407
55436SOL    HW172145   2.034  11.703   4.868 -0.8737 -0.7338 -0.0311
55436SOL    HW272146   2.017  11.846   4.916  1.6729  0.1881 -1.7050
55437SOL     OW72147   6.626   0.413   1.572  0.5978 -0.3135  0.0309
55437SOL    HW172148   6.596   0.502   1.591  0.8591 -0.4548  1.1938
55437SOL    HW272149   6.698   0.425   1.511 -1.0738  0.0872 -1.9917
55438SOL     OW72150   0.588  10.329  10.303 -0.0343  0.1932  0.1948
55438SOL    HW172151   0.595  10.423  10.286  2.1898  0.1334  0.4634
55438SOL    HW272152   0.497  10.308  10.281 -0.6781  2.4320  0.3726
55439SOL     OW72153   4.896   6.547  11.223  0.9273 -0.0446  0.1924
55439SOL    HW172154   4.837   6.518  11.292 -0.9729  0.3130 -1.1922
55439SOL    HW272155   4.884   6.642  11.219 -0.3960 -0.2189 -1.7328
55440SOL     OW72156   8.614  10.840   2.945  0.0351 -0.2009 -0.1877
55440SOL    HW172157   8.591  10.928   2.975  0.5438 -0.2079  0.2282
55440SOL    HW272158   8.532  10.804   2.911  0.1003  0.9480 -1.6626
55441SOL     OW72159   8.171   1.610   6.437  0.3997  0.3360 -0.3067
55441SOL    HW172160   8.102   1.645   6.493  0.2137 -0.5635  0.0441
55441SOL    HW272161   8.147   1.518   6.425  0.2915  0.5712 -2.0907
55442SOL     OW72162   2.895  11.194   6.522 -0.0988  0.2786 -0.1043
55442SOL    HW172163   2.931  11.264   6.578 -1.5052  0.3587  0.7556
55442SOL    HW272164   2.862  11.129   6.584  0.7991 -0.9843 -0.8938
55443SOL     OW72165   2.182   3.879   0.641  0.2454 -0.0524 -0.2329
55443SOL    HW172166   2.216   3.871   0.730 -0.8130 -0.5578  0.1430
55443SOL    HW272167   2.216   3.963   0.610  2.7658 -1.0259 -0.3221
55444SOL     OW72168   4.909  11.630   8.390 -0.1889 -0.3269 -0.3796
55444SOL    HW172169   4.876  11.708   8.347  1.7597  1.5164  1.2685
55444SOL    HW272170   4.838  11.603   8.449 -0.2021  1.3637  0.4305
55445SOL     OW72171   3.084   8.592   1.504  0.1509  0.1074 -0.4742
55445SOL    HW172172   3.106   8.504   1.536  0.9387  0.4964  0.1021
55445SOL    HW272173   3.070   8.581   1.410 -0.3798 -0.7406 -0.3119
55446SOL     OW72174   4.046   7.453  11.151  0.2427 -0.2297 -0.2100
55446SOL    HW172175   4.103   7.483  11.222  0.4111  0.4416 -0.6233
55446SOL    HW272176   4.073   7.505  11.075  1.3649 -2.2539 -1.2736
55447SOL     OW72177   0.629   6.421  11.224  0.2603  0.0867  0.6244
55447SOL    HW172178   0.629   6.345  11.166  2.1062  0.8309 -0.4178
55447SOL    HW272179   0.714   6.418  11.268  0.4754  1.6898  0.3663
55448SOL     OW72180  11.725   1.907   9.646  0.0839  0.3917  0.4307
55448SOL    HW172181  11.743   1.950   9.563 -1.3307  1.3233  0.5732
55448SOL    HW272182  11.650   1.849   9.628 -0.9833  1.4426  1.2654
55449SOL     OW72183   3.468   3.384   4.840 -0.2419  0.0134  0.0349
55449SOL    HW172184   3.428   3.301   4.818  0.4669  0.2402 -2.4349
55449SOL    HW272185   3.425   3.411   4.921 -0.1556 -2.9319  1.1762
55450SOL     OW72186   0.961   5.839   1.886  0.4194 -0.3373  0.0868
55450SOL    HW172187   0.958   5.745   1.868 -0.6791 -0.3466  0.2358
55450SOL    HW272188   0.908   5.878   1.816  0.2206  0.0964  0.4765
55451SOL     OW72189  12.190   7.506   9.405 -0.2869 -0.0105 -0.4175
55451SOL    HW172190  12.217   7.480   9.317  0.1792 -2.8818  0.4890
55451SOL    HW272191  12.240   7.450   9.464 -1.3838  1.0738  1.6691
55452SOL     OW72192   6.512  10.261   7.288  0.5580  0.2069 -0.1149
55452SOL    HW172193   6.603  10.233   7.298 -0.1368 -1.3599  2.7487
55452SOL    HW272194   6.493  10.311   7.367 -1.2969 -0.1755 -0.2812
55453SOL     OW72195   8.673  10.740   9.315  0.7712  0.1325  0.0504
55453SOL    HW172196   8.754  10.786   9.338  1.5140 -1.1256 -0.0042
55453SOL    HW272197   8.674  10.735   9.220  0.8024 -0.1776  0.0653
55454SOL     OW72198   6.339   1.423   7.832  0.0159  0.3101 -0.1663
55454SOL    HW172199   6.332   1.518   7.843  0.3497  0.1162  2.1390
55454SOL    HW272200   6.432   1.408   7.817  0.1082  0.2823  0.4114
55455SOL     OW72201  11.661   3.163   3.349  0.2003  0.2116  0.4815
55455SOL    HW172202  11.681   3.078   3.310 -1.6090  0.3387 -0.8516
55455SOL    HW272203  11.597   3.144   3.418  1.9160  0.2210  2.1505
55456SOL     OW72204   6.646   9.201   9.610 -0.5219  0.2510 -0.3058
55456SOL    HW172205   6.565   9.170   9.652 -0.6003  0.5531 -0.2293
55456SOL    HW272206   6.616   9.247   9.532 -0.3875 -0.1331 -0.5838
55457SOL     OW72207   5.540   1.621   8.645 -0.1323  0.7949 -0.0492
55457SOL    HW172208   5.538   1.702   8.695 -0.5186  0.7276  0.0568
55457SOL    HW272209   5.629   1.589   8.654  0.3644  1.8316 -1.1273
55458SOL     OW72210   1.027   6.415   5.242  0.5143 -0.0146 -0.7166
55458SOL    HW172211   0.973   6.486   5.206 -0.9445 -1.0295 -0.6183
55458SOL    HW272212   1.100   6.460   5.285 -1.0159  1.5025  0.4122
55459SOL     OW72213   9.837  10.740   4.613 -0.2969  0.0946 -0.0816
55459SOL    HW172214   9.814  10.806   4.548  0.9486  0.9530  0.3064
55459SOL    HW272215   9.886  10.674   4.565 -1.0142 -0.2371 -0.3588
55460SOL     OW72216   8.015   7.631   9.063  0.3770  0.1433  0.0675
55460SOL    HW172217   7.984   7.540   9.067  0.4656  0.1532  1.6865
55460SOL    HW272218   7.944   7.682   9.102  1.2537  0.4814  1.2742
55461SOL     OW72219  11.379  12.144  10.536 -0.0452  0.1120  0.3101
55461SOL    HW172220  11.291  12.121  10.565 -0.0620 -0.2487 -0.0245
55461SOL    HW272221  11.434  12.074  10.568  0.0891  0.2334  0.3442
55462SOL     OW72222   3.413   6.265   3.629  0.0140  0.2599  0.7856
55462SOL    HW172223   3.372   6.184   3.600  1.2576 -0.1284  0.0495
55462SOL    HW272224   3.373   6.284   3.714 -0.4389 -1.0139  0.8625
55463SOL     OW72225  11.502   4.736  10.158  0.1665  0.0973 -0.7900
55463SOL    HW172226  11.446   4.660  10.144  0.9200 -1.3099  2.8746
55463SOL    HW272227  11.448   4.798  10.207  0.4993  0.6224 -1.0686
55464SOL     OW72228   6.390   3.467   5.321  0.4002 -0.6509 -0.2371
55464SOL    HW172229   6.471   3.429   5.286 -0.7199 -3.9259  0.3839
55464SOL    HW272230   6.382   3.429   5.408 -1.0372  0.8721  0.3332
55465SOL     OW72231   0.571   7.571  10.615 -0.0214 -0.3999  0.0990
55465SOL    HW172232   0.621   7.499  10.577 -1.6227 -1.8363  0.6084
55465SOL    HW272233   0.492   7.577  10.561  0.3537  1.4297 -0.3243
55466SOL     OW72234   6.077   4.535   7.599  0.1279 -0.3899 -0.0597
55466SOL    HW172235   6.047   4.453   7.560  0.4292 -1.1178  1.1711
55466SOL    HW272236   6.076   4.598   7.527  1.3670 -1.8298 -1.4246
55467SOL     OW72237   8.793   3.013   2.136 -0.2420 -0.0245  0.4722
55467SOL    HW172238   8.862   3.075   2.111  0.1894 -0.0118  1.6122
55467SOL    HW272239   8.837   2.950   2.193 -0.2111 -2.5698 -2.1200
55468SOL     OW72240   0.293   7.327   9.550  0.2739  0.1192 -0.1624
55468SOL    HW172241   0.366   7.266   9.562  0.8466  0.4818 -1.6284
55468SOL    HW272242   0.301   7.388   9.624 -0.5776 -1.7627  1.5927
55469SOL     OW72243   9.024  11.506   1.895  0.1328 -0.0717  0.0664
55469SOL    HW172244   8.971  11.431   1.923  0.6572 -1.0792 -1.5347
55469SOL    HW272245   9.073  11.474   1.819  1.6213  1.4082  0.3529
55470SOL     OW72246   5.935  10.441   9.133 -1.0272 -0.7306  0.0628
55470SOL    HW172247   5.849  10.455   9.094 -0.9700 -1.1489 -0.2217
55470SOL    HW272248   5.975  10.373   9.078 -0.1382  0.1464 -0.3879
55471SOL     OW72249   4.840  12.239  11.149 -0.0895 -0.3726 -0.6870
55471SOL    HW172250   4.885  12.195  11.076  0.0338 -0.0687 -0.7958
55471SOL    HW272251   4.895  12.316  11.167  0.0993 -0.6664 -0.0050
55472SOL     OW72252  10.797   2.340   1.342 -0.0164  0.3165 -0.2015
55472SOL    HW172253  10.852   2.332   1.420 -2.1891  0.3463  1.4165
55472SOL    HW272254  10.746   2.259   1.340 -0.4536  0.6002 -1.2536
55473SOL     OW72255  10.459   1.194   7.674 -0.1447  0.4186  0.5065
55473SOL    HW172256  10.398   1.230   7.739 -0.3418  0.8803  0.0710
55473SOL    HW272257  10.502   1.271   7.636 -0.4239  0.1889 -0.2996
55474SOL     OW72258  10.638   7.634   6.718  0.4201  0.1276  0.0560
55474SOL    HW172259  10.579   7.705   6.741  1.5068  0.9613  0.4009
55474SOL    HW272260  10.613   7.609   6.630 -1.5697 -0.7450  0.8213
55475SOL     OW72261   1.259   1.886  10.745  0.2106  0.0472 -0.1988
55475SOL    HW172262   1.347   1.849  10.744 -0.3294 -1.2829 -1.1054
55475SOL    HW272263   1.253   1.929  10.830  1.5360 -0.3270  0.1169
55476SOL     OW72264  11.095   2.370   8.149  0.4560  0.0894  0.2747
55476SOL    HW172265  11.190   2.384   8.154  0.4406  0.3593 -0.1191
55476SOL    HW272266  11.066   2.430   8.080 -0.1819  0.9066  1.2179
55477SOL     OW72267  11.373  11.666   5.781  0.1466 -0.1001  0.0177
55477SOL    HW172268  11.442  11.634   5.724 -0.4640 -0.0339 -0.7753
55477SOL    HW272269  11.341  11.588   5.827  0.0699 -0.2940 -0.3629
55478SOL     OW72270   0.416   1.585   5.943 -0.2688 -0.0885 -0.5944
55478SOL    HW172271   0.498   1.569   5.990 -1.4370 -1.5734  1.0795
55478SOL    HW272272   0.394   1.501   5.904 -1.9141 -0.2514  0.5918
55479SOL     OW72273   1.369   1.712   2.099  0.4938 -0.1222 -0.1791
55479SOL    HW172274   1.409   1.765   2.030 -0.4610  1.1380  0.1763
55479SOL    HW272275   1.275   1.716   2.079  0.4625 -2.9902 -1.0022
55480SOL     OW72276  12.007   4.294   4.114  0.5129 -0.0272  0.2918
55480SOL    HW172277  12.044   4.216   4.156 -0.8914 -1.8311 -1.6352
55480SOL    HW272278  12.070   4.316   4.045  0.1727 -0.4347 -0.1596
55481SOL     OW72279  11.625   9.372   7.712 -0.2859  0.1726 -0.3448
55481SOL    HW172280  11.536   9.354   7.683  0.1572 -1.1408 -0.9536
55481SOL    HW272281  11.618   9.378   7.807 -0.7240 -1.9194 -0.2111
55482SOL     OW72282  11.324   9.977  10.243 -0.3679  0.5344  0.4633
55482SOL    HW172283  11.240  10.023  10.256 -0.0377  0.9529  1.1736
55482SOL    HW272284  11.383  10.016  10.308  0.3248  0.1010  0.1044
55483SOL     OW72285   2.459  11.266   3.906  0.4529 -0.6448  0.4060
55483SOL    HW172286   2.437  11.346   3.953  1.1527 -1.8987  3.0486
55483SOL    HW272287   2.377  11.216   3.905 -0.6104  0.8370 -3.1732
55484SOL     OW72288   8.148   4.329   1.534  0.2765 -0.3130 -0.4763
55484SOL    HW172289   8.208   4.400   1.512  0.8155 -0.7250 -0.3372
55484SOL    HW272290   8.145   4.329   1.630  0.6652 -0.7978 -0.4616
55485SOL     OW72291  10.364   1.209   8.537  0.0777  0.0918  0.5813
55485SOL    HW172292  10.445   1.171   8.571 -0.2489 -1.3362 -0.1408
55485SOL    HW272293  10.392   1.286   8.488  0.8191  0.5443  1.6798
55486SOL     OW72294  11.225   3.810   0.171  0.0192  0.6829 -0.1776
55486SOL    HW172295  11.217   3.716   0.160 -0.0982  0.6035  0.5154
55486SOL    HW272296  11.183   3.828   0.255 -0.0450  1.3650 -0.3485
55487SOL     OW72297   1.988   8.988  11.485 -0.5455  0.5039  0.2654
55487SOL    HW172298   2.055   9.036  11.535 -0.7731  0.0737  0.9907
55487SOL    HW272299   1.946   8.931  11.549  0.4341 -1.4828 -0.7629
55488SOL     OW72300   8.909   2.001   9.801  0.1602  0.2109 -0.0945
55488SOL    HW172301   8.950   1.917   9.822 -1.4130  0.1898  3.6444
55488SOL    HW272302   8.820   1.978   9.775  0.0565  0.6537 -0.1424
55489SOL     OW72303   3.838   6.178   6.583 -0.1553  0.0740  0.3115
55489SOL    HW172304   3.760   6.124   6.569 -1.0759  1.3979  0.1660
55489SOL    HW272305   3.818   6.261   6.539  1.9519 -0.0662 -1.0225
55490SOL     OW72306   0.918   6.513  10.300 -0.0880 -0.2280  0.2420
55490SOL    HW172307   0.890   6.466  10.221  1.6276 -1.4141  0.2771
55490SOL    HW272308   0.943   6.600  10.268  1.2173 -0.9000 -0.7003
55491SOL     OW72309   8.399  12.100   4.401 -0.3443 -0.3353 -0.0290
55491SOL    HW172310   8.415  12.013   4.363  0.0124 -0.4565  0.3908
55491SOL    HW272311   8.344  12.144   4.336  0.8571 -0.2720 -1.0481
55492SOL     OW72312  11.757   7.999   9.575 -0.5715  0.1006 -0.1592
55492SOL    HW172313  11.844   7.967   9.551  0.0526  0.3026  1.7021
55492SOL    HW272314  11.746   8.079   9.524  0.2812  0.0007 -0.5097
55493SOL     OW72315   1.157   3.377   6.106 -0.1398 -0.2715  0.0852
55493SOL    HW172316   1.152   3.442   6.036 -0.1200 -1.0088 -0.6154
55493SOL    HW272317   1.163   3.428   6.186 -0.1729  0.5885 -0.4529
55494SOL     OW72318   5.217   0.201   6.232 -0.2535 -0.5397  0.0609
55494SOL    HW172319   5.281   0.172   6.168 -0.9709 -1.2920 -0.3426
55494SOL    HW272320   5.147   0.240   6.180 -0.2826 -0.0388  0.4698
55495SOL     OW72321   1.670   4.743   5.559 -0.0832  0.1375 -0.0688
55495SOL    HW172322   1.716   4.680   5.504 -1.7894 -0.4586 -0.8800
55495SOL    HW272323   1.584   4.753   5.518 -1.8606 -1.1629  3.0094
55496SOL     OW72324   5.100   0.683   4.154  0.0056  0.0407  0.0625
55496SOL    HW172325   5.077   0.644   4.238 -1.9095 -0.3153 -0.5812
55496SOL    HW272326   5.157   0.619   4.112 -0.5297 -0.6333  0.3453
55497SOL     OW72327   8.775   9.057   0.843  0.3061  0.3200  0.0567
55497SOL    HW172328   8.734   9.025   0.923 -1.5208  0.5231 -0.7441
55497SOL    HW272329   8.850   8.999   0.830  0.1342 -0.2577  1.4388
55498SOL     OW72330  11.586   8.832   9.439 -0.3816  0.6662 -0.3945
55498SOL    HW172331  11.574   8.913   9.488 -1.3621  0.0184  0.5031
55498SOL    HW272332  11.663   8.791   9.479 -1.4277 -0.0665  0.9807
55499SOL     OW72333   1.386   9.246   8.566  0.0412  0.3335  0.7228
55499SOL    HW172334   1.470   9.225   8.608  0.3460  0.2189  0.0676
55499SOL    HW272335   1.331   9.278   8.637  0.0706 -1.2193  1.4845
55500SOL     OW72336  10.813   9.526  10.332 -0.2280  0.1864  0.1082
55500SOL    HW172337  10.842   9.458  10.271 -1.8064 -0.2354 -0.2137
55500SOL    HW272338  10.893   9.555  10.375  0.5477 -1.5306 -0.1017
55501SOL     OW72339  11.281  10.800  10.265  0.7390  0.1274  0.0256
55501SOL    HW172340  11.219  10.845  10.208  0.2574  0.3790  0.7479
55501SOL    HW272341  11.299  10.717  10.219  0.6673  0.4952 -0.6871
55502SOL     OW72342  11.745   8.364  12.182  0.4209  0.0002  0.2390
55502SOL    HW172343  11.786   8.305  12.245 -0.8607  1.4414  2.5868
55502SOL    HW272344  11.652   8.342  12.185 -0.3571  2.8719  2.3032
55503SOL     OW72345   8.440   9.612   1.339  0.1998 -0.1325  0.2482
55503SOL    HW172346   8.529   9.623   1.373  1.2293 -1.7863 -1.6762
55503SOL    HW272347   8.399   9.550   1.398  0.3908  0.4406  1.0012
55504SOL     OW72348   9.003  12.299   3.148  0.3290  0.0443 -0.4519
55504SOL    HW172349   8.925  12.244   3.157  0.3282  0.1745  0.3468
55504SOL    HW272350   8.998  12.361   3.220  0.8030  0.5229 -0.8189
55505SOL     OW72351   6.434   7.856   9.425  0.2363  0.0377  0.1958
55505SOL    HW172352   6.411   7.855   9.518  2.3489  0.2397  0.7769
55505SOL    HW272353   6.524   7.824   9.422  0.4810  0.7626 -1.7004
55506SOL     OW72354   6.610   7.850   2.593 -0.7524  0.0837 -0.1531
55506SOL    HW172355   6.521   7.851   2.559 -0.9845 -0.6878  0.3972
55506SOL    HW272356   6.664   7.827   2.517 -0.9783  0.8936 -0.5650
55507SOL     OW72357  11.780   9.873   5.002  0.5196 -0.1079 -0.3701
55507SOL    HW172358  11.840   9.905   5.070 -1.3310  2.2837  0.3034
55507SOL    HW272359  11.789   9.937   4.931 -0.4848 -0.2837 -0.6666
55508SOL     OW72360   4.678  10.212   8.577  0.4463  0.0826  0.1251
55508SOL    HW172361   4.731  10.132   8.587  0.4046  0.2042  1.4395
55508SOL    HW272362   4.697  10.263   8.655 -1.6575  0.1045  0.6778
55509SOL     OW72363   1.436   1.437   2.059 -0.0079  0.2031 -0.2549
55509SOL    HW172364   1.391   1.514   2.094 -1.3560 -0.5499 -0.2404
55509SOL    HW272365   1.486   1.470   1.985  0.7676  1.3636  0.7441
55510SOL     OW72366   3.965  12.222   3.934 -0.4477 -1.1373 -0.1419
55510SOL    HW172367   4.021  12.216   4.012  0.2466 -1.6035 -0.6611
55510SOL    HW272368   3.971  12.314   3.909  1.0853 -1.4014 -0.8827
55511SOL     OW72369  10.213  10.281   6.567  0.2569 -0.3800  0.2835
55511SOL    HW172370  10.212  10.311   6.476  1.4949  0.2178  0.4475
55511SOL    HW272371  10.305  10.262   6.585  0.0306 -0.4587  1.4208
55512SOL     OW72372   7.153   2.243   7.685  0.0644  0.0307 -0.1247
55512SOL    HW172373   7.083   2.212   7.628 -0.6984  0.9814  0.2615
55512SOL    HW272374   7.133   2.206   7.771  1.5220 -1.8644 -0.5460
55513SOL     OW72375   6.664   3.187   8.123  0.4272 -0.2394  0.3999
55513SOL    HW172376   6.705   3.267   8.090  0.7601  0.8191  3.0478
55513SOL    HW272377   6.737   3.126   8.137  0.0675 -1.5136 -2.6072
55514SOL     OW72378   3.005   3.114   0.560 -0.0005 -0.3627  0.4757
55514SOL    HW172379   3.025   3.179   0.493  0.4535 -0.6904  0.2937
55514SOL    HW272380   3.011   3.163   0.643 -1.1559  0.1895  0.2630
55515SOL     OW72381   0.557  11.227  11.959 -0.5196  0.5618 -0.0080
55515SOL    HW172382   0.480  11.204  12.012  0.2263 -0.6945  0.5890
55515SOL    HW272383   0.526  11.295  11.900 -1.5612  1.5791  1.6268
55516SOL     OW72384   9.847   7.779   2.294  0.0574 -0.7347  0.5432
55516SOL    HW172385   9.934   7.742   2.279  0.7662  0.4010  1.6876
55516SOL    HW272386   9.843   7.856   2.238 -0.3029 -0.8928  0.3450
55517SOL     OW72387   7.686   8.450   0.511 -0.0094 -0.6243  0.5747
55517SOL    HW172388   7.774   8.452   0.474 -0.0689  2.8047  0.3711
55517SOL    HW272389   7.699   8.423   0.602  1.1001 -1.0392  0.3102
55518SOL     OW72390   8.129  10.607  10.804 -0.1801  0.3341  0.0994
55518SOL    HW172391   8.130  10.703  10.803  1.1339  0.3619  1.1517
55518SOL    HW272392   8.037  10.584  10.816 -0.7756  1.3894 -1.9005
55519SOL     OW72393  11.567   3.918  10.921 -0.0031  0.5813  0.1763
55519SOL    HW172394  11.473   3.932  10.906  0.0389  0.4226 -0.2538
55519SOL    HW272395  11.604   3.910  10.833  0.4732  1.0258  0.3333
55520SOL     OW72396  11.631  10.803   6.328 -0.3754  0.2818 -0.3571
55520SOL    HW172397  11.635  10.745   6.404 -1.3641  0.3404 -0.2463
55520SOL    HW272398  11.611  10.746   6.255  0.3398  0.2576 -0.5378
55521SOL     OW72399   2.076   6.227   1.049 -0.2842 -0.8227  0.2946
55521SOL    HW172400   2.099   6.319   1.045  1.0631 -1.1567 -0.1016
55521SOL    HW272401   2.024   6.211   0.969 -1.4441 -0.1902  0.9029
55522SOL     OW72402   1.562  10.884   9.618  0.2613 -0.2230 -0.2972
55522SOL    HW172403   1.468  10.876   9.601 -0.4019  1.5284  2.0149
55522SOL    HW272404   1.598  10.920   9.537 -0.7079 -2.4106 -1.8013
55523SOL     OW72405   7.315   1.926   2.496  0.6942 -0.3706  0.4353
55523SOL    HW172406   7.316   2.020   2.481  0.3737 -0.4154  0.1259
55523SOL    HW272407   7.223   1.902   2.492  0.8414 -0.8515 -0.5063
55524SOL     OW72408   6.981   6.880   4.652 -0.6044 -0.0596  0.5086
55524SOL    HW172409   7.034   6.928   4.587  1.0829 -1.6260  0.6443
55524SOL    HW272410   6.998   6.925   4.734 -1.3586  0.8617  0.1806
55525SOL     OW72411   8.713   2.014  10.928 -0.4066 -0.2468  0.0838
55525SOL    HW172412   8.715   2.095  10.877  0.2195 -1.4584 -1.9220
55525SOL    HW272413   8.767   2.033  11.005  0.0877  1.0975 -0.5626
55526SOL     OW72414   8.780  10.362   0.706  0.5191  0.5170 -0.3945
55526SOL    HW172415   8.722  10.296   0.669  2.0455  0.3858 -2.8116
55526SOL    HW272416   8.735  10.445   0.691 -0.1216  0.2425  0.0064
55527SOL     OW72417   5.017  12.252   1.998 -0.6983 -0.8046  0.4556
55527SOL    HW172418   5.065  12.179   2.037  1.1617 -1.1449 -2.2036
55527SOL    HW272419   4.970  12.213   1.924  0.5747  0.6600 -1.2017
55528SOL     OW72420  10.239   6.393   9.803  0.3496 -0.1758 -0.4844
55528SOL    HW172421  10.174   6.453   9.840  1.4543  1.0293 -0.4220
55528SOL    HW272422  10.315   6.401   9.861  1.1606 -0.2666 -1.4971
55529SOL     OW72423   5.187  10.110   2.284 -0.3507 -0.3688 -0.2992
55529SOL    HW172424   5.277  10.132   2.305  0.2874 -2.9068 -0.0759
55529SOL    HW272425   5.134  10.169   2.337  1.1677  0.8169 -0.0564
55530SOL     OW72426   7.272   4.045   9.660  0.2204 -0.3527  0.5496
55530SOL    HW172427   7.262   3.979   9.729 -0.7488 -1.4401 -0.5695
55530SOL    HW272428   7.302   3.995   9.584  2.3091  0.9812  0.4076
55531SOL     OW72429   6.650  11.280   3.118 -0.5440 -0.3068 -0.3652
55531SOL    HW172430   6.735  11.323   3.109 -1.7966  2.2117 -1.1505
55531SOL    HW272431   6.628  11.289   3.210 -0.7404  0.7273 -0.4968
55532SOL     OW72432   7.605   7.648   4.520 -0.3596  0.3139  0.3084
55532SOL    HW172433   7.552   7.693   4.587  0.4707  0.1666  1.0879
55532SOL    HW272434   7.647   7.577   4.568  0.9192  0.7182 -0.1757
55533SOL     OW72435   1.536   3.713  10.373 -0.5253 -0.9224 -0.1907
55533SOL    HW172436   1.443   3.725  10.393 -0.2518 -1.8693  1.9764
55533SOL    HW272437   1.571   3.802  10.372 -1.1772 -0.6386  0.6604
55534SOL     OW72438  11.254   1.777   4.522 -0.0170  0.1592 -0.1245
55534SOL    HW172439  11.326   1.839   4.528 -0.3275  0.8924 -2.7895
55534SOL    HW272440  11.283   1.710   4.460 -0.4592 -1.3280  1.1839
55535SOL     OW72441   3.222   2.869   3.306 -0.1798 -0.4317 -0.2459
55535SOL    HW172442   3.208   2.810   3.233 -0.5383  1.0998 -1.4809
55535SOL    HW272443   3.312   2.898   3.297 -0.7975  1.3085 -1.3446
55536SOL     OW72444   7.651  12.248   4.416 -0.6245 -0.4972  0.3384
55536SOL    HW172445   7.661  12.197   4.496  0.6995  0.4856  0.8328
55536SOL    HW272446   7.704  12.202   4.350 -0.0676 -0.1983  0.5743
55537SOL     OW72447  10.336   2.220   0.181  0.4617  0.3496 -0.0290
55537SOL    HW172448  10.291   2.151   0.231  0.4763  0.3126 -0.0674
55537SOL    HW272449  10.414   2.178   0.146 -0.2102  0.0091 -1.1765
55538SOL     OW72450   2.945  11.244   3.840 -0.4470 -0.6725 -0.1468
55538SOL    HW172451   2.976  11.157   3.813  0.8141  0.1384 -1.4638
55538SOL    HW272452   2.982  11.256   3.928  1.0680 -0.6775 -0.7582
55539SOL     OW72453  10.377   6.607   3.449 -0.3449  0.3084 -0.0560
55539SOL    HW172454  10.423   6.622   3.532 -1.5045  0.1746  0.6364
55539SOL    HW272455  10.383   6.691   3.403  0.1061  0.4556  0.2547
55540SOL     OW72456   5.164   2.830   3.732 -0.3069 -0.3177  0.6416
55540SOL    HW172457   5.083   2.779   3.731 -0.3308 -0.3119  1.3814
55540SOL    HW272458   5.227   2.775   3.686 -1.0010  0.1816 -0.9719
55541SOL     OW72459   5.878   2.126   5.012  0.4066 -0.5033 -0.2518
55541SOL    HW172460   5.857   2.054   4.953  0.7759  1.1611 -2.5643
55541SOL    HW272461   5.973   2.119   5.025  1.0463  1.3230 -3.1451
55542SOL     OW72462   5.315   4.376   4.069  0.4815  0.2663  0.2929
55542SOL    HW172463   5.316   4.296   4.017  0.7424 -0.0461  0.7687
55542SOL    HW272464   5.359   4.352   4.151  2.4514  1.4270 -0.3352
55543SOL     OW72465   2.142  11.213   0.764  0.2432 -0.3515 -0.0484
55543SOL    HW172466   2.179  11.277   0.825  0.6518 -1.2769  0.6897
55543SOL    HW272467   2.086  11.158   0.817  0.3891 -1.0010 -0.5521
55544SOL     OW72468   4.261  11.946   1.209  0.3788  0.2939 -0.2749
55544SOL    HW172469   4.190  11.907   1.259  0.5132  1.8794  1.2554
55544SOL    HW272470   4.331  11.962   1.273  0.8574  1.6958 -1.0921
55545SOL     OW72471   5.634   0.715   6.322  0.5649  0.2739  0.0793
55545SOL    HW172472   5.590   0.744   6.402  0.9986  1.9202 -0.2426
55545SOL    HW272473   5.574   0.738   6.252  0.0091 -1.5163 -0.1016
55546SOL     OW72474   5.701  11.212   4.042  0.3423  0.4857 -0.3589
55546SOL    HW172475   5.703  11.246   4.131 -1.3622  2.0445 -0.8531
55546SOL    HW272476   5.761  11.138   4.043  1.4441  1.3387  1.7101
55547SOL     OW72477   3.317   2.840   2.657  0.3046  0.1211  0.4560
55547SOL    HW172478   3.227   2.838   2.690  0.2305  0.3099  0.2643
55547SOL    HW272479   3.368   2.879   2.727  0.3985 -0.8525  0.9536
55548SOL     OW72480   7.273   6.117   2.167 -0.3675  0.6076 -0.6474
55548SOL    HW172481   7.316   6.070   2.238 -0.3520  1.1614 -0.2919
55548SOL    HW272482   7.306   6.074   2.087  0.5014  0.7311 -0.3646
55549SOL     OW72483  10.800   1.818  11.324  0.3118  0.4696  0.3181
55549SOL    HW172484  10.824   1.747  11.264  0.3344  1.2386 -0.6031
55549SOL    HW272485  10.714   1.793  11.358  1.5579 -1.4299  2.2670
55550SOL     OW72486  10.332  11.875   0.642  0.0178  0.4841 -0.1645
55550SOL    HW172487  10.286  11.821   0.706  1.6227 -1.1763 -0.3232
55550SOL    HW272488  10.405  11.820   0.613  1.4059  2.5511 -0.7861
55551SOL     OW72489   3.215   6.753   0.404 -0.2175 -0.5728  0.0082
55551SOL    HW172490   3.160   6.704   0.344 -1.4256 -1.0540  1.4302
55551SOL    HW272491   3.292   6.777   0.353 -0.5944 -2.0620 -1.3327
55552SOL     OW72492   1.982  11.321  11.414 -0.0505 -0.0125  0.5610
55552SOL    HW172493   1.984  11.230  11.383  0.9489 -0.0554  0.7311
55552SOL    HW272494   1.958  11.372  11.336 -0.0243 -0.3637  0.3188
55553SOL     OW72495   3.758   3.474   2.631 -0.0096  0.2413 -0.1984
55553SOL    HW172496   3.841   3.452   2.587  1.1560  1.1117  1.4553
55553SOL    HW272497   3.699   3.498   2.560  1.8272  1.7193 -1.3210
55554SOL     OW72498   0.668   9.096   9.706  0.0343 -0.3784 -0.2302
55554SOL    HW172499   0.734   9.101   9.775 -0.8238 -0.1882  0.6073
55554SOL    HW272500   0.602   9.036   9.741 -0.5013 -0.1476 -0.8150
55555SOL     OW72501   2.063   9.264   6.149  0.5242 -0.6522  0.3428
55555SOL    HW172502   2.100   9.212   6.221 -0.4326 -1.6092  0.1732
55555SOL    HW272503   2.048   9.200   6.079  1.5803  0.2947 -0.7818
55556SOL     OW72504   0.473   4.986   8.125 -0.0565 -0.4450 -0.0185
55556SOL    HW172505   0.463   4.892   8.141 -1.0855 -0.3323  0.0679
55556SOL    HW272506   0.411   5.027   8.186  1.7705  0.4048  1.3385
55557SOL     OW72507   1.121  11.485   8.947 -0.0147 -0.0352 -0.0721
55557SOL    HW172508   1.101  11.451   9.034 -0.2069 -0.4436 -0.2766
55557SOL    HW272509   1.188  11.427   8.913  0.4898  0.4750  0.0307
55558SOL     OW72510   1.250   2.047   9.441 -0.0930  0.3924 -0.2718
55558SOL    HW172511   1.303   1.994   9.500 -2.1729  0.1665  1.4928
55558SOL    HW272512   1.198   1.983   9.391 -0.8322  0.6740  0.1235
55559SOL     OW72513  11.522   8.260   2.822  0.5474  0.4710  0.1961
55559SOL    HW172514  11.526   8.189   2.759  0.5626  0.5559  0.0998
55559SOL    HW272515  11.552   8.222   2.905 -0.1280  0.1866  0.3155
55560SOL     OW72516   1.790   5.541   2.828  0.1420  0.3182 -0.1465
55560SOL    HW172517   1.782   5.448   2.806 -1.8277  0.7534 -1.5781
55560SOL    HW272518   1.757   5.547   2.918 -1.4862 -0.1573 -0.6731
55561SOL     OW72519   8.579   0.183   9.113 -0.3832 -0.6834  0.0723
55561SOL    HW172520   8.638   0.249   9.076  1.7892 -0.8555  2.9220
55561SOL    HW272521   8.552   0.220   9.197 -1.3819 -2.2625  0.4916
55562SOL     OW72522   8.880  11.757   8.464 -0.0625  0.4443 -0.0223
55562SOL    HW172523   8.789  11.773   8.490 -1.0535 -1.2593 -2.1511
55562SOL    HW272524   8.900  11.827   8.402  0.0614  0.7604  0.3689
55563SOL     OW72525   8.408   0.989   8.035 -0.7147 -0.3744  0.7249
55563SOL    HW172526   8.393   1.063   7.975 -0.9110  0.7275  2.0714
55563SOL    HW272527   8.450   0.922   7.981 -0.4046  0.7749 -0.5174
55564SOL     OW72528   2.494   7.885   1.249 -0.2943  0.1597  0.0130
55564SOL    HW172529   2.548   7.869   1.171  0.5607  2.4976  0.0393
55564SOL    HW272530   2.503   7.806   1.301 -0.2918 -1.1812 -1.9015
55565SOL     OW72531  11.604  11.070   0.302 -0.1344 -0.6904  0.2229
55565SOL    HW172532  11.612  11.068   0.207 -1.9802 -1.0742  0.0470
55565SOL    HW272533  11.579  11.160   0.322  1.0658 -0.3912  0.4401
55566SOL     OW72534   6.775  10.884   5.258 -0.1440  0.0623 -0.3975
55566SOL    HW172535   6.690  10.857   5.293  1.8517 -2.0444  3.4591
55566SOL    HW272536   6.814  10.804   5.224  1.1338  0.5607 -0.1689
55567SOL     OW72537  12.252   1.132   4.255 -0.3038 -0.5384  0.2042
55567SOL    HW172538  12.204   1.161   4.177  0.2667 -0.3419 -0.0749
55567SOL    HW272539  12.185   1.088   4.308 -0.3501 -2.2239 -1.1576
55568SOL     OW72540   7.831   6.743   6.914 -0.1887 -0.2002 -0.3009
55568SOL    HW172541   7.753   6.707   6.872 -0.0463  0.2540 -0.9715
55568SOL    HW272542   7.900   6.680   6.892 -0.0144  0.2780 -1.1722
55569SOL     OW72543   0.642   9.624  10.825  0.0796  0.5420 -0.5435
55569SOL    HW172544   0.666   9.689  10.759  1.0661 -0.7344 -1.4828
55569SOL    HW272545   0.710   9.557  10.819 -1.9833 -1.6479 -1.0577
55570SOL     OW72546   6.134   6.719  10.961 -0.2951 -0.2836 -0.0332
55570SOL    HW172547   6.174   6.755  11.041 -2.1537  1.0702  0.3605
55570SOL    HW272548   6.110   6.630  10.984 -1.7436  0.4110  1.3334
55571SOL     OW72549   2.606   8.046  11.513 -0.6320 -0.8465  0.0008
55571SOL    HW172550   2.617   7.951  11.517  0.2800 -0.7814 -0.5644
55571SOL    HW272551   2.519   8.059  11.475 -0.2163 -1.4741 -1.2263
55572SOL     OW72552   6.997   5.950   7.274 -0.2503  0.7398 -0.5729
55572SOL    HW172553   7.031   5.979   7.359 -0.5396  0.5694 -0.3951
55572SOL    HW272554   6.972   6.031   7.229  0.5856  0.8830 -0.7963
55573SOL     OW72555   8.224   1.006   2.005 -0.3586  0.0546 -0.2416
55573SOL    HW172556   8.278   1.048   2.072 -1.2859 -1.0387  1.2542
55573SOL    HW272557   8.159   1.072   1.982  0.7533  0.9064 -1.0796
55574SOL     OW72558  10.499   7.733   3.301  0.8568  0.1838  0.1427
55574SOL    HW172559  10.425   7.765   3.354 -0.6410  2.7354 -3.1434
55574SOL    HW272560  10.576   7.765   3.347 -0.4040  3.0300  0.5144
55575SOL     OW72561   0.211   4.312  11.076 -0.5507  0.0607 -0.4043
55575SOL    HW172562   0.303   4.290  11.094 -0.4717  0.1183 -0.7172
55575SOL    HW272563   0.216   4.389  11.019 -0.7262 -1.1054 -2.0913
55576SOL     OW72564  11.697   2.938   9.497  0.2772 -0.2111 -0.5785
55576SOL    HW172565  11.723   3.009   9.439 -1.2635  0.2612 -0.7493
55576SOL    HW272566  11.662   2.871   9.438  1.6027 -1.0885 -0.4075
55577SOL     OW72567   1.933   1.359   0.572 -0.3007 -0.3416  0.5457
55577SOL    HW172568   2.008   1.369   0.514 -0.1080 -2.0600  0.4318
55577SOL    HW272569   1.957   1.285   0.628 -1.6435 -0.4806  0.9560
55578SOL     OW72570   6.892  10.131   1.412  0.2405 -0.3697  0.3518
55578SOL    HW172571   6.906  10.083   1.493  1.5498  1.2831  1.1772
55578SOL    HW272572   6.936  10.215   1.426 -1.0928  0.6875 -1.3830
55579SOL     OW72573   3.292   2.957   5.316  0.0853 -0.0966 -0.2396
55579SOL    HW172574   3.365   2.999   5.361  1.0016 -0.2196 -1.5516
55579SOL    HW272575   3.307   2.864   5.327 -0.3073 -0.1219  0.1279
55580SOL     OW72576   0.631   6.953   8.441  0.0814 -0.1216 -0.7324
55580SOL    HW172577   0.696   7.017   8.410 -0.8140  0.0636 -2.3011
55580SOL    HW272578   0.596   6.993   8.521  1.7533 -0.1538  0.0778
55581SOL     OW72579  11.984  11.546   2.410 -0.5261  0.6612  0.0516
55581SOL    HW172580  12.021  11.570   2.495  0.8199  5.0233 -1.5017
55581SOL    HW272581  11.891  11.533   2.428 -0.1401  0.4716  2.2973
55582SOL     OW72582   4.830  12.083   4.574  0.0523 -0.3105  0.3232
55582SOL    HW172583   4.801  12.010   4.628 -2.2848 -0.9746 -1.6472
55582SOL    HW272584   4.827  12.049   4.484 -1.1387  2.1586 -0.6733
55583SOL     OW72585   0.510   3.861  10.592  0.5202  0.2728 -0.2420
55583SOL    HW172586   0.595   3.856  10.636 -0.0759  0.4922  0.9435
55583SOL    HW272587   0.448   3.881  10.661 -0.5904 -0.4537 -1.0055
55584SOL     OW72588   0.943  10.939  10.676  0.0332  0.1913  0.2372
55584SOL    HW172589   0.875  10.874  10.694 -0.4600  0.4155 -0.7885
55584SOL    HW272590   0.899  11.009  10.630  0.8141  0.6969  0.2387
55585SOL     OW72591   7.628  10.597   3.472 -0.5187 -0.1939 -0.0315
55585SOL    HW172592   7.603  10.510   3.502  0.7694 -0.1463  1.2562
55585SOL    HW272593   7.559  10.621   3.409 -1.3686 -1.7582  0.2534
55586SOL     OW72594   0.596  10.868   8.451 -0.4889 -0.1153 -0.4982
55586SOL    HW172595   0.654  10.792   8.461 -0.1092  0.4704  2.9106
55586SOL    HW272596   0.510  10.836   8.481 -0.0255  1.0333  2.3159
55587SOL     OW72597   2.687   6.482   0.853  0.9097  0.3982  0.0251
55587SOL    HW172598   2.783   6.484   0.848  0.8946  0.0148 -0.4784
55587SOL    HW272599   2.658   6.549   0.792  0.8536  0.5154  0.1792
55588SOL     OW72600  10.595  11.645   7.739  0.0314 -0.0439  0.1168
55588SOL    HW172601  10.690  11.654   7.749 -0.0899  1.6468  0.0242
55588SOL    HW272602  10.580  11.551   7.743  1.7206 -0.3591  0.0348
55589SOL     OW72603  12.260  11.997   5.048  0.1104  0.7617  0.3492
55589SOL    HW172604  12.204  11.922   5.029  0.8088  0.5036 -0.8050
55589SOL    HW272605  12.199  12.071   5.056 -0.5603  0.1298  1.2780
55590SOL     OW72606   7.387   8.582   6.499  0.3768 -0.0722 -0.2817
55590SOL    HW172607   7.462   8.578   6.559  0.2261  0.5253 -0.0456
55590SOL    HW272608   7.424   8.611   6.416  0.6829 -1.4809 -0.6528
55591SOL     OW72609  11.831   0.819   2.740 -0.2744 -0.2139  0.8873
55591SOL    HW172610  11.877   0.891   2.783 -0.2284  0.1478  0.2267
55591SOL    HW272611  11.899   0.773   2.691 -0.3535 -0.5534  1.0912
55592SOL     OW72612  10.277   0.614   5.541 -0.0024  0.0431  0.4900
55592SOL    HW172613  10.268   0.535   5.487  0.8397 -0.0495  0.4748
55592SOL    HW272614  10.331   0.586   5.615 -1.6319  0.0178  1.7136
55593SOL     OW72615   6.843   9.965  12.170 -0.4932 -0.2693  0.1478
55593SOL    HW172616   6.834  10.057  12.145 -0.4333 -0.5954 -1.1178
55593SOL    HW272617   6.884   9.967  12.257 -3.1160  0.9863  1.4711
55594SOL     OW72618   0.591   7.921  12.096 -0.0111  0.4417  0.1712
55594SOL    HW172619   0.507   7.909  12.141 -0.4717  1.0930 -0.4925
55594SOL    HW272620   0.597   8.016  12.082 -1.2882  0.1332 -3.7210
55595SOL     OW72621   9.785   4.308   1.019 -0.0931 -0.2297  0.4971
55595SOL    HW172622   9.762   4.222   0.984 -0.8883 -0.1551  0.8058
55595SOL    HW272623   9.720   4.367   0.981  1.9565  0.7202 -1.7752
55596SOL     OW72624   8.903   1.192   2.666 -0.4812 -0.1089  0.2114
55596SOL    HW172625   8.944   1.113   2.700 -0.3378 -0.3372 -0.4745
55596SOL    HW272626   8.975   1.255   2.658 -0.8317  0.6092  2.1605
55597SOL     OW72627   9.356   4.616   1.491  0.0470  0.1910  0.0472
55597SOL    HW172628   9.332   4.681   1.426 -1.5965  1.3123  1.6586
55597SOL    HW272629   9.298   4.634   1.565  2.0579 -0.7818  1.9671
55598SOL     OW72630   1.671   1.257   5.005 -0.3141 -0.3712 -0.8330
55598SOL    HW172631   1.754   1.208   5.004 -0.6987 -1.0417 -1.8366
55598SOL    HW272632   1.665   1.294   4.917 -0.8373  0.0966 -0.5995
55599SOL     OW72633   0.103   0.334   6.095  0.2151 -0.1720 -0.3808
55599SOL    HW172634   0.118   0.420   6.136  0.0467 -0.1853 -0.2925
55599SOL    HW272635   0.009   0.320   6.101  0.5229 -1.8725  2.7053
55600SOL     OW72636   8.480   1.181   2.735  0.1657 -0.3031 -0.2796
55600SOL    HW172637   8.468   1.266   2.692 -0.6816 -0.0651  0.4006
55600SOL    HW272638   8.566   1.186   2.775 -0.6050  0.9611  1.3209
55601SOL     OW72639   7.970  11.916   9.867  0.0401 -0.4666 -0.5685
55601SOL    HW172640   7.885  11.926   9.822 -0.6508 -0.2623  0.7452
55601SOL    HW272641   8.034  11.917   9.796 -1.0155 -0.0408 -1.5539
55602SOL     OW72642   4.397   2.815   3.104 -0.4840 -0.4998  0.4847
55602SOL    HW172643   4.445   2.883   3.058 -0.8261 -0.9740 -0.6022
55602SOL    HW272644   4.310   2.816   3.065 -0.4508 -1.6546  0.3330
55603SOL     OW72645   9.640  11.097   6.849 -0.2081 -0.5421 -0.9324
55603SOL    HW172646   9.583  11.083   6.773 -2.2791 -2.3406  0.8042
55603SOL    HW272647   9.583  11.083   6.924  1.9735  0.2631  0.9877
55604SOL     OW72648   6.000   2.809   7.800  0.2467 -0.5857 -0.2198
55604SOL    HW172649   5.992   2.823   7.706  0.4929  0.6724 -0.0677
55604SOL    HW272650   6.023   2.717   7.809  1.1352 -0.4973 -1.4417
55605SOL     OW72651   6.903   2.328   5.737 -0.6654 -0.3742 -0.5165
55605SOL    HW172652   6.869   2.362   5.654 -2.5473 -1.2920 -0.1725
55605SOL    HW272653   6.864   2.241   5.745 -0.8437 -0.1553  1.4956
55606SOL     OW72654   2.066   3.484   5.151  0.6053  0.3496  0.5799
55606SOL    HW172655   2.101   3.559   5.200 -0.1128 -0.0704  1.7767
55606SOL    HW272656   1.979   3.514   5.122  0.2265 -0.0744  1.2473
55607SOL     OW72657   2.091   3.255   3.790 -0.3992 -0.0736  0.1918
55607SOL    HW172658   2.157   3.256   3.721 -0.0427 -0.5094  0.5243
55607SOL    HW272659   2.099   3.341   3.832  0.4559 -0.4014  0.7019
55608SOL     OW72660   5.236   8.306   4.078 -0.1094  0.4078  0.1642
55608SOL    HW172661   5.291   8.367   4.029 -0.1665  1.8569  1.7878
55608SOL    HW272662   5.270   8.220   4.056  1.6303  1.1660 -0.3129
55609SOL     OW72663  10.495   6.681   4.923 -0.0819 -0.0400  0.3279
55609SOL    HW172664  10.433   6.623   4.879  1.2973 -1.9663  0.7839
55609SOL    HW272665  10.544   6.722   4.852  0.3257 -1.0695 -0.0089
55610SOL     OW72666   6.181   7.506   1.090 -0.2895  0.1708 -0.4469
55610SOL    HW172667   6.196   7.464   1.175 -0.7763  1.1394  0.1247
55610SOL    HW272668   6.133   7.440   1.039  0.3559 -0.5663 -0.1248
55611SOL     OW72669   0.162   7.597  11.651  0.9537  0.3985  0.5024
55611SOL    HW172670   0.103   7.582  11.725  2.2634  0.9129  1.7128
55611SOL    HW272671   0.124   7.672  11.605 -0.2734 -0.3843  0.2066
55612SOL     OW72672   2.927  11.726   3.592 -0.7999  0.4452  0.1599
55612SOL    HW172673   2.960  11.638   3.575 -1.6074  0.5974 -2.7319
55612SOL    HW272674   3.006  11.780   3.599 -0.3173 -0.3977  1.5371
55613SOL     OW72675   3.256   3.230   8.156  0.0792  0.1080 -0.6177
55613SOL    HW172676   3.277   3.249   8.248  1.1617 -1.5741 -0.4674
55613SOL    HW272677   3.162   3.247   8.149 -0.1439 -0.2447  0.9647
55614SOL     OW72678   8.637   9.970   8.962  0.2016 -0.4421 -0.4054
55614SOL    HW172679   8.704   9.982   8.894  0.6813  1.9559  0.4018
55614SOL    HW272680   8.601  10.057   8.976  0.8673 -0.5791  3.1184
55615SOL     OW72681   3.669   5.901  10.063  0.1190  0.1205 -0.2829
55615SOL    HW172682   3.659   5.988  10.025 -0.5793 -0.3317 -1.1690
55615SOL    HW272683   3.579   5.873  10.083  0.3507 -0.3337  0.1395
55616SOL     OW72684   4.570   9.032   1.192  0.0640 -0.3887 -0.0974
55616SOL    HW172685   4.529   9.036   1.278 -1.1217 -0.3744 -0.6323
55616SOL    HW272686   4.540   9.111   1.147 -0.0891 -0.8451 -0.8261
55617SOL     OW72687  10.611   3.774   4.221  0.8741  0.3562  0.4478
55617SOL    HW172688  10.546   3.718   4.264  0.7909  1.1719  1.4296
55617SOL    HW272689  10.669   3.713   4.176 -0.1599 -0.4248  0.1353
55618SOL     OW72690   7.308   4.490   0.009 -0.0590  0.2510 -0.4474
55618SOL    HW172691   7.298   4.399  -0.021 -0.3800  0.1514 -0.0487
55618SOL    HW272692   7.349   4.483   0.095 -1.0673  0.4155  0.0689
55619SOL     OW72693   9.814   9.952  11.222  0.5420 -0.1227 -0.4108
55619SOL    HW172694   9.730   9.992  11.201  0.3471 -1.0389 -1.4349
55619SOL    HW272695   9.839   9.904  11.143  1.3896 -0.9429  0.3252
55620SOL     OW72696  10.686   9.658   4.352  0.1881 -0.0177 -0.2801
55620SOL    HW172697  10.765   9.702   4.321 -0.2397 -0.2630 -1.8052
55620SOL    HW272698  10.717   9.573   4.385  0.6279  0.0996 -0.3793
55621SOL     OW72699   8.828   6.676   8.881 -0.4325 -0.2027 -0.2801
55621SOL    HW172700   8.782   6.592   8.885  0.4918 -0.7235 -0.2978
55621SOL    HW272701   8.866   6.679   8.794 -1.0523  0.5749 -0.5389
55622SOL     OW72702   4.516   9.154   5.619 -0.1143  0.0898 -0.0428
55622SOL    HW172703   4.503   9.096   5.544 -0.8115 -0.0143  0.1512
55622SOL    HW272704   4.531   9.240   5.580  0.9489 -0.2117 -0.3323
55623SOL     OW72705   1.764  12.019   1.171 -0.0987  0.5304  0.3229
55623SOL    HW172706   1.729  11.940   1.212  1.6701  0.1549  1.1781
55623SOL    HW272707   1.832  12.050   1.231  0.4366  1.7199 -0.8462
55624SOL     OW72708   1.360   4.679   4.275  0.2944  0.1258 -0.0828
55624SOL    HW172709   1.286   4.642   4.226  0.2951 -0.9656  0.7039
55624SOL    HW272710   1.375   4.616   4.346  0.8487  1.2248  0.8006
55625SOL     OW72711  12.012   6.522  11.466  0.2790 -0.5190  0.6346
55625SOL    HW172712  12.029   6.531  11.372  1.3235 -2.8114  0.5428
55625SOL    HW272713  11.944   6.455  11.472  0.2356 -0.4075  1.5210
55626SOL     OW72714   2.793   3.669  10.723  0.1290 -0.2599  0.3444
55626SOL    HW172715   2.838   3.752  10.741 -0.7738  0.1382  0.7821
55626SOL    HW272716   2.754   3.682  10.636  0.0811 -0.2696  0.3646
55627SOL     OW72717   6.299   3.429  10.194 -0.6162 -0.4176  0.0978
55627SOL    HW172718   6.254   3.447  10.276 -0.0504  1.0980  0.1104
55627SOL    HW272719   6.307   3.515  10.151  0.3975 -0.9518 -0.8549
55628SOL     OW72720   5.868   7.034   9.521 -0.2945 -0.4046  0.2827
55628SOL    HW172721   5.852   7.090   9.445 -1.2966 -1.6071 -0.4246
55628SOL    HW272722   5.816   7.073   9.591 -2.5817 -1.5003 -0.7180
55629SOL     OW72723   2.755   0.469  11.679 -0.6913 -0.1173 -0.1836
55629SOL    HW172724   2.670   0.430  11.656 -0.5071 -0.5837 -0.0760
55629SOL    HW272725   2.787   0.416  11.751 -1.4292  1.5517  1.4591
55630SOL     OW72726  10.827   9.113   1.794  0.0183  0.0683  0.1524
55630SOL    HW172727  10.843   9.202   1.761 -1.9946 -0.1943 -1.7585
55630SOL    HW272728  10.769   9.125   1.869  0.8429  0.4119  0.7510
55631SOL     OW72729  11.542   9.448   7.976  0.4196 -0.4233  0.4537
55631SOL    HW172730  11.531   9.543   7.978 -0.7637 -0.5481  1.1046
55631SOL    HW272731  11.583   9.427   8.060  1.1809 -0.4350  0.0795
55632SOL     OW72732   5.752   0.003   1.872  0.5384 -0.0144 -0.3858
55632SOL    HW172733   5.672  -0.029   1.912  1.1335 -0.6148  0.3512
55632SOL    HW272734   5.726   0.029   1.783 -0.3175 -0.9039 -0.4078
55633SOL     OW72735   7.566  10.096   5.314 -0.1445  0.8971 -0.6304
55633SOL    HW172736   7.618  10.154   5.369 -0.1843  0.4374 -0.1012
55633SOL    HW272737   7.496  10.151   5.279 -0.3511  1.1005  0.1014
55634SOL     OW72738   7.204   4.234   6.989  0.1603 -0.4358 -0.1199
55634SOL    HW172739   7.121   4.234   6.941  1.1810  0.5033 -2.0232
55634SOL    HW272740   7.261   4.177   6.938  0.9354 -0.4003  0.6910
55635SOL     OW72741   2.713   9.620   0.701 -0.9919  0.2016 -0.3332
55635SOL    HW172742   2.752   9.571   0.628 -1.1693 -1.2020  0.4797
55635SOL    HW272743   2.784   9.675   0.734 -0.6765  0.2137 -1.0250
55636SOL     OW72744  12.091   3.485   6.294 -0.6734  0.6163 -0.3487
55636SOL    HW172745  12.097   3.537   6.374  0.4687 -0.0649  0.0224
55636SOL    HW272746  11.998   3.461   6.288 -0.3690 -1.8555  2.4306
55637SOL     OW72747   4.791   8.730   0.464 -0.2412  0.5353 -0.6380
55637SOL    HW172748   4.861   8.675   0.428  0.0394  0.2272  0.3507
55637SOL    HW272749   4.821   8.819   0.449  1.0549  0.4222  1.0036
55638SOL     OW72750   2.248  11.232   1.651  0.5820  1.0171  0.2428
55638SOL    HW172751   2.243  11.190   1.565  2.0600  1.5632 -0.1373
55638SOL    HW272752   2.235  11.162   1.714  2.7792 -0.0241 -0.3747
55639SOL     OW72753   1.767   0.221   7.360  0.1019  0.3104 -0.0332
55639SOL    HW172754   1.757   0.130   7.334  2.4212  0.1806 -0.7047
55639SOL    HW272755   1.689   0.240   7.412 -0.2188 -2.1616  0.5081
55640SOL     OW72756  10.988   3.056  11.806  0.6116 -0.0328 -0.1192
55640SOL    HW172757  11.010   2.973  11.849 -1.3293 -0.2017  0.6392
55640SOL    HW272758  10.967   3.031  11.716  1.1914 -0.1790 -0.2211
55641SOL     OW72759  11.851   4.720   2.428 -0.1620 -0.3221 -0.7949
55641SOL    HW172760  11.921   4.774   2.463 -0.2624 -0.2842 -0.6490
55641SOL    HW272761  11.851   4.642   2.485  0.1287 -0.5775 -1.1435
55642SOL     OW72762   6.453   0.671   6.937  0.0985  0.2720  0.2188
55642SOL    HW172763   6.427   0.642   6.849  0.2005 -0.1511  0.3255
55642SOL    HW272764   6.522   0.610   6.963  0.6301  0.8854  0.2742
55643SOL     OW72765   0.480   6.543   4.072 -0.0314  0.3952 -0.0493
55643SOL    HW172766   0.439   6.520   4.155 -1.6676  0.0547 -0.9001
55643SOL    HW272767   0.427   6.616   4.039 -0.7040 -0.7742 -1.7027
55644SOL     OW72768   7.167   5.401   7.847  0.5923 -0.0945  0.2176
55644SOL    HW172769   7.201   5.330   7.793 -2.8308 -0.8611 -1.1773
55644SOL    HW272770   7.100   5.360   7.902 -0.9477  1.8504 -0.0783
55645SOL     OW72771   9.093   8.251   2.940 -0.5938 -0.0346 -0.5381
55645SOL    HW172772   9.100   8.250   2.845 -0.4713  0.7789 -0.5377
55645SOL    HW272773   9.041   8.173   2.961 -0.3997 -0.3556 -1.2493
55646SOL     OW72774   1.918  10.210   3.191  0.0217 -0.2913  0.5753
55646SOL    HW172775   1.962  10.166   3.264  0.8658 -0.6740 -0.1475
55646SOL    HW272776   1.943  10.302   3.200 -0.8559 -0.1200  1.4502
55647SOL     OW72777   6.250   7.387  12.113 -0.0595 -0.2952  0.5313
55647SOL    HW172778   6.344   7.377  12.130 -0.0369 -0.4500  0.3222
55647SOL    HW272779   6.244   7.464  12.056 -0.1647  0.4330  1.5020
55648SOL     OW72780   8.104   8.106   4.358 -0.3587 -0.1891 -0.1325
55648SOL    HW172781   8.099   8.053   4.438 -0.7424  1.0583  0.7083
55648SOL    HW272782   8.140   8.190   4.387 -1.8800  0.8023 -0.9812
55649SOL     OW72783   7.673   2.259   3.272  0.3814 -0.2136 -0.2938
55649SOL    HW172784   7.634   2.235   3.187 -0.7550 -1.3654  0.5166
55649SOL    HW272785   7.745   2.198   3.283  1.2688  0.6756 -0.9117
55650SOL     OW72786   2.933  11.295  10.495 -0.4776 -0.0440 -0.3444
55650SOL    HW172787   2.955  11.367  10.435  0.5157  1.0536  1.2733
55650SOL    HW272788   2.873  11.240  10.444  1.2802  0.1289 -2.8189
55651SOL     OW72789   1.569  10.578   1.680 -0.7696  0.4487  0.1534
55651SOL    HW172790   1.561  10.485   1.661  0.3198  0.4350 -0.3286
55651SOL    HW272791   1.501  10.596   1.745 -2.3637 -0.2327 -1.2544
55652SOL     OW72792   4.279   7.788   6.202 -0.0057  0.0900  0.0341
55652SOL    HW172793   4.193   7.830   6.205  0.0778  0.2294  2.1383
55652SOL    HW272794   4.340   7.860   6.184 -0.1910  0.2630  0.0877
55653SOL     OW72795   0.535   2.126   5.702 -0.1840 -0.3543  0.0626
55653SOL    HW172796   0.554   2.039   5.669  0.4537 -0.1296 -0.1792
55653SOL    HW272797   0.596   2.138   5.775  0.6491  0.3789 -0.7279
55654SOL     OW72798   5.875   4.279   1.846  0.7960 -0.1955  0.3094
55654SOL    HW172799   5.793   4.236   1.823 -1.8268  4.4426 -0.4250
55654SOL    HW272800   5.924   4.283   1.764 -0.2365  0.5719 -0.2977
55655SOL     OW72801   1.851   5.959   1.463  0.0710 -1.1510  0.4052
55655SOL    HW172802   1.829   6.044   1.501  0.6210 -1.1039  0.6340
55655SOL    HW272803   1.915   5.979   1.395 -0.9026 -1.2397 -0.5493
55656SOL     OW72804   8.753   3.678   0.493  0.5376 -0.1098 -0.0466
55656SOL    HW172805   8.663   3.652   0.510  0.2041  1.0607  0.1070
55656SOL    HW272806   8.792   3.686   0.580  0.2027  1.2854 -0.0001
55657SOL     OW72807  11.023   7.907   6.082 -0.2368  0.1592  0.2110
55657SOL    HW172808  10.971   7.939   6.156 -1.1527 -0.6108 -0.0775
55657SOL    HW272809  10.958   7.887   6.014  0.3903 -1.1530 -0.0361
55658SOL     OW72810   5.511   6.917   1.665  0.3309  0.3285  0.6191
55658SOL    HW172811   5.598   6.916   1.627 -0.3079 -0.7188 -0.8883
55658SOL    HW272812   5.488   6.824   1.676 -2.5101  0.2117 -3.7688
55659SOL     OW72813   4.207   3.260  11.373 -0.2609  0.3780  0.3617
55659SOL    HW172814   4.143   3.331  11.369  0.9997  1.5594 -2.9688
55659SOL    HW272815   4.237   3.259  11.464 -2.1888  2.3565  1.1010
55660SOL     OW72816  10.343  10.534   5.532 -0.3443  0.0497 -1.0704
55660SOL    HW172817  10.283  10.538   5.458  0.4917 -0.6650 -1.7971
55660SOL    HW272818  10.295  10.578   5.603 -2.4546 -1.9644 -1.1212
55661SOL     OW72819   5.953   9.697   4.167 -0.3000  0.0537  0.1015
55661SOL    HW172820   5.949   9.779   4.118  0.0716 -0.9518 -1.6764
55661SOL    HW272821   5.867   9.689   4.208 -0.8934  0.5660 -1.0135
55662SOL     OW72822   4.224   5.161   6.325 -0.4455 -0.3207  0.0873
55662SOL    HW172823   4.147   5.148   6.270 -0.8667 -1.2506  0.8726
55662SOL    HW272824   4.283   5.090   6.299  0.5852  0.9318 -1.1860
55663SOL     OW72825  11.327   3.345   0.737  0.3716  0.1941  0.0848
55663SOL    HW172826  11.402   3.405   0.743  0.8220 -0.5170  2.2125
55663SOL    HW272827  11.255   3.392   0.779  0.4099 -0.2740  0.6841
55664SOL     OW72828   3.975   8.233   6.556 -0.4059 -0.2229 -0.2190
55664SOL    HW172829   3.922   8.227   6.635 -1.2000 -0.4382 -0.7595
55664SOL    HW272830   3.916   8.209   6.485 -0.1926  1.6333 -1.0857
55665SOL     OW72831   7.672   0.400   2.969 -0.4154  0.3551 -0.0022
55665SOL    HW172832   7.632   0.351   2.898 -0.5650  0.9227 -0.3141
55665SOL    HW272833   7.750   0.350   2.992 -0.4907  0.0482 -0.4112
55666SOL     OW72834   3.069  10.292   3.436 -0.0135  0.2301  0.6291
55666SOL    HW172835   3.030  10.245   3.363 -1.5830 -0.6583  1.9972
55666SOL    HW272836   3.132  10.230   3.474 -0.4453  0.0347  1.0467
55667SOL     OW72837   2.391   8.870   9.683  0.2405 -0.1678 -0.3313
55667SOL    HW172838   2.386   8.901   9.593 -1.1952 -1.3214 -0.6888
55667SOL    HW272839   2.444   8.791   9.678 -0.9888 -1.0042 -0.4138
55668SOL     OW72840   7.141   2.685   8.800 -0.6936  0.2546 -0.0758
55668SOL    HW172841   7.119   2.681   8.893  3.2059  0.9885  1.0539
55668SOL    HW272842   7.150   2.594   8.773 -1.5641  0.0454  0.3041
55669SOL     OW72843   1.001   0.736   0.737  0.7005 -0.2542 -0.5618
55669SOL    HW172844   0.928   0.689   0.698  1.3262 -0.8875 -0.9962
55669SOL    HW272845   1.045   0.778   0.663 -0.7556  2.3981 -0.0526
55670SOL     OW72846  10.908   7.197   1.242  0.6410  0.3793  0.0060
55670SOL    HW172847  10.841   7.165   1.182  0.4989  1.9599 -0.7204
55670SOL    HW272848  10.865   7.200   1.327  0.6280 -1.1893  0.0830
55671SOL     OW72849   3.251   7.042   8.070  0.3197 -0.4069  0.8401
55671SOL    HW172850   3.178   7.085   8.114  1.0720  0.8282  0.9376
55671SOL    HW272851   3.211   6.974   8.017 -0.7430 -0.9896  2.3115
55672SOL     OW72852   7.481   0.944   5.843 -0.1041 -0.4136  0.0081
55672SOL    HW172853   7.541   0.916   5.774  0.2879  0.1196  0.1218
55672SOL    HW272854   7.394   0.918   5.812  0.3858 -3.7980  1.1262
55673SOL     OW72855  11.644   5.508   0.526 -0.3134  0.4937  0.3747
55673SOL    HW172856  11.563   5.481   0.483  0.0360  0.8409 -0.5322
55673SOL    HW272857  11.616   5.568   0.595 -0.8211  0.7485 -0.0466
55674SOL     OW72858   9.095  10.598  10.276 -0.0247 -0.6252  0.1555
55674SOL    HW172859   9.140  10.658  10.336  1.4987 -0.6088 -0.9567
55674SOL    HW272860   9.036  10.548  10.333 -0.2623  0.8983  1.3281
55675SOL     OW72861   7.069  10.944   8.554  0.2859 -0.5570  0.7665
55675SOL    HW172862   6.992  10.975   8.601  0.1359  1.6808 -0.7957
55675SOL    HW272863   7.037  10.876   8.495 -0.7131  0.8743 -0.4168
55676SOL     OW72864   0.795   0.090   6.139  0.1194  0.0970 -0.3778
55676SOL    HW172865   0.703   0.092   6.164 -0.2331 -1.2447 -1.4677
55676SOL    HW272866   0.815   0.181   6.115 -0.5213  0.6721  1.1211
55677SOL     OW72867   0.507   6.702   2.311  0.3322  0.3940 -0.4320
55677SOL    HW172868   0.581   6.643   2.296  0.1868 -1.0448  3.2356
55677SOL    HW272869   0.520   6.734   2.401 -1.8550  2.6322 -0.8054
55678SOL     OW72870   0.609   9.307  11.167 -0.3823  0.1258 -0.2445
55678SOL    HW172871   0.543   9.346  11.109 -1.0127  0.2640  0.5435
55678SOL    HW272872   0.597   9.213  11.158  1.4221  0.0216 -2.4740
55679SOL     OW72873   9.667   5.381   1.163 -0.6775  0.2925  1.1252
55679SOL    HW172874   9.597   5.368   1.098 -0.3342 -0.2845  0.8579
55679SOL    HW272875   9.699   5.292   1.182  0.8239  0.6201  0.3069
55680SOL     OW72876  10.267   4.462   1.646  0.3190 -0.0363  0.1306
55680SOL    HW172877  10.192   4.441   1.702 -1.1842  1.7272 -1.1191
55680SOL    HW272878  10.321   4.383   1.650 -0.5113 -0.5932  2.7246
55681SOL     OW72879   6.657  11.815  11.223 -0.3129 -0.6494 -0.0531
55681SOL    HW172880   6.719  11.814  11.150  0.9549 -0.2070  0.9756
55681SOL    HW272881   6.708  11.783  11.298 -1.0790  0.5326  1.0064
55682SOL     OW72882   4.938   6.392   5.349  0.1438 -0.4242 -0.4377
55682SOL    HW172883   4.911   6.344   5.271  0.1227 -0.9282 -0.1214
55682SOL    HW272884   4.884   6.471   5.348 -0.7768 -1.0324 -0.2569
55683SOL     OW72885   3.718   9.608   5.149  0.5435 -0.3920  0.4722
55683SOL    HW172886   3.679   9.585   5.065  0.3002  0.5858  0.3016
55683SOL    HW272887   3.752   9.525   5.184  1.3502 -0.6991 -0.9495
55684SOL     OW72888   4.398   0.347  11.290  0.3265 -0.7884  0.0362
55684SOL    HW172889   4.320   0.334  11.236  0.4882 -1.1750 -0.1051
55684SOL    HW272890   4.470   0.354  11.227  0.6714 -2.3030  0.2216
55685SOL     OW72891   5.184  11.932  10.355  0.7096  0.0157  0.1845
55685SOL    HW172892   5.123  11.902  10.422 -0.5473 -1.8400 -1.6479
55685SOL    HW272893   5.218  12.015  10.388 -1.0357 -0.0449  2.3485
55686SOL     OW72894   5.649   9.304   4.847  0.3186 -0.3108  0.1957
55686SOL    HW172895   5.643   9.231   4.785  0.5991 -0.3831  0.2530
55686SOL    HW272896   5.559   9.317   4.877  0.4582 -1.6323  1.3302
55687SOL     OW72897   3.014   3.618   6.307  0.0875  0.4425 -0.1793
55687SOL    HW172898   3.085   3.665   6.351  0.7986 -1.5261  0.9044
55687SOL    HW272899   2.945   3.612   6.373 -0.7912  1.6366 -0.9624
55688SOL     OW72900   4.226  10.107   3.196  0.2287  0.4450 -0.2596
55688SOL    HW172901   4.199  10.148   3.278 -0.1689  1.0979 -0.7075
55688SOL    HW272902   4.322  10.105   3.201  0.1915 -0.2374  0.5479
55689SOL     OW72903   6.383   5.024  10.094  0.1846  0.3528 -0.2747
55689SOL    HW172904   6.319   5.086  10.128  0.1858  0.4771 -0.5022
55689SOL    HW272905   6.367   5.022  10.000 -1.3539 -1.7121 -0.0351
55690SOL     OW72906   2.501   7.315   4.995 -0.1984 -0.2639  0.0592
55690SOL    HW172907   2.504   7.238   4.939 -1.3883 -0.8348  0.7253
55690SOL    HW272908   2.427   7.299   5.054 -2.0532  2.4128 -1.3237
55691SOL     OW72909   1.377   3.700   4.419 -0.6197 -0.4041 -0.4975
55691SOL    HW172910   1.317   3.657   4.481  0.2999 -1.5019 -0.3409
55691SOL    HW272911   1.443   3.634   4.400  1.4797  1.2844  0.5660
55692SOL     OW72912   6.902   5.713   4.238  0.8862 -0.0113  0.2017
55692SOL    HW172913   6.969   5.680   4.297  2.1795 -1.0206 -1.7070
55692SOL    HW272914   6.819   5.688   4.280  1.7625 -1.6348  1.0716
55693SOL     OW72915   9.435   4.057   8.220 -0.2459  0.0042 -0.4676
55693SOL    HW172916   9.435   3.977   8.167  1.2151 -0.6925  0.5209
55693SOL    HW272917   9.418   4.127   8.158  0.5999 -0.8766 -1.7363
55694SOL     OW72918   7.013   1.129  10.083 -0.0894  0.6993 -0.0535
55694SOL    HW172919   6.969   1.212  10.100 -4.2129 -1.2379 -0.2034
55694SOL    HW272920   6.982   1.101   9.997  1.8416 -0.6787 -0.3804
55695SOL     OW72921   9.662  10.176  11.556  0.0320 -0.2067  0.4728
55695SOL    HW172922   9.698  10.135  11.635 -0.8554 -0.8965  0.5378
55695SOL    HW272923   9.738  10.196  11.502  0.5776 -0.7231  1.0395
55696SOL     OW72924   4.483   7.752   5.017 -0.1533  0.4089  0.5278
55696SOL    HW172925   4.452   7.739   5.107 -1.6460  0.9854  0.1354
55696SOL    HW272926   4.468   7.667   4.975  0.8693  0.0333  0.8910
55697SOL     OW72927  11.752  11.557  11.706  0.3257 -0.3282  0.1788
55697SOL    HW172928  11.800  11.609  11.770  2.0140 -2.6475  0.9232
55697SOL    HW272929  11.678  11.521  11.756  0.5071 -0.5346  0.3012
55698SOL     OW72930   4.651   7.315   3.946  0.1071  0.2662  0.6555
55698SOL    HW172931   4.639   7.400   3.987  0.4812  0.6708 -0.0480
55698SOL    HW272932   4.721   7.329   3.882  0.0305 -0.5202  0.3861
55699SOL     OW72933  11.108   2.745   2.257  0.1842  0.5845  0.8820
55699SOL    HW172934  11.092   2.767   2.165  1.9539  2.4711  0.9630
55699SOL    HW272935  11.081   2.654   2.265  1.6873 -0.2014 -1.9653
55700SOL     OW72936   0.927   5.863   1.389  0.2196 -0.6191 -0.1658
55700SOL    HW172937   0.965   5.919   1.457 -0.3171 -0.7491  0.2421
55700SOL    HW272938   0.881   5.924   1.332 -0.6513 -0.6646  0.4670
55701SOL     OW72939   7.358   7.323   3.937 -0.2648  0.0465 -0.6847
55701SOL    HW172940   7.267   7.301   3.918  0.4236 -4.6270  0.0708
55701SOL    HW272941   7.358   7.351   4.029 -0.9273 -0.0701 -0.6500
55702SOL     OW72942   1.436   7.090   0.074  0.0510 -0.6577  0.0090
55702SOL    HW172943   1.504   7.029   0.044  0.1401 -1.5876  1.9340
55702SOL    HW272944   1.354   7.054   0.040  0.2757 -0.9072 -0.2734
55703SOL     OW72945   2.210   7.445   1.669 -0.3569  0.5938  0.1374
55703SOL    HW172946   2.282   7.477   1.615  1.0700  0.7481  2.0138
55703SOL    HW272947   2.226   7.483   1.756 -2.5486  0.3814  0.7106
55704SOL     OW72948   5.481   7.577   1.345 -0.1817  0.6997  0.3007
55704SOL    HW172949   5.412   7.644   1.350 -2.1055 -1.0588 -0.8419
55704SOL    HW272950   5.459   7.515   1.414  0.7960  0.5478  0.4910
55705SOL     OW72951   4.508   0.997  11.206  0.1773  0.2555  0.2207
55705SOL    HW172952   4.594   1.018  11.244 -0.1409  0.8568  0.6231
55705SOL    HW272953   4.512   0.903  11.189  1.6846  0.5860 -1.7113
55706SOL     OW72954   4.523   8.869   3.525  0.0349 -0.7671  0.1707
55706SOL    HW172955   4.551   8.959   3.512 -0.3652 -0.4310  1.5024
55706SOL    HW272956   4.603   8.817   3.514 -0.0873 -0.4854 -2.5569
55707SOL     OW72957   4.546   2.769   7.089 -0.0838 -0.3725 -0.2474
55707SOL    HW172958   4.544   2.741   7.181 -3.9083 -1.2452 -0.4528
55707SOL    HW272959   4.534   2.864   7.093  1.7505 -0.1009  0.1024
55708SOL     OW72960   4.236   7.142   8.590 -0.1899 -0.8512  0.2054
55708SOL    HW172961   4.150   7.154   8.548  1.0275  1.3654 -1.9203
55708SOL    HW272962   4.250   7.222   8.640  0.7334 -1.0762  0.3181
55709SOL     OW72963   2.147  11.319   8.772  0.4260  0.2675  0.7124
55709SOL    HW172964   2.103  11.385   8.825  0.9979  1.6577 -0.4791
55709SOL    HW272965   2.223  11.365   8.735  2.9482 -1.9554  2.6252
55710SOL     OW72966   4.242  11.853   2.479  0.5847 -0.5340  0.4113
55710SOL    HW172967   4.318  11.862   2.537  1.5111 -2.5497 -0.3873
55710SOL    HW272968   4.166  11.855   2.538  1.4020 -0.8142  1.4934
55711SOL     OW72969   0.111   2.633   7.086 -0.3852  0.0624 -0.0486
55711SOL    HW172970   0.129   2.726   7.096  0.2212  0.3763 -3.0116
55711SOL    HW272971   0.192   2.596   7.051 -0.9752 -1.3618  0.0049
55712SOL     OW72972  10.251   0.119   6.108 -0.0432  0.2828  0.4920
55712SOL    HW172973  10.206   0.098   6.190  2.4666 -0.0313  1.9087
55712SOL    HW272974  10.269   0.213   6.114 -1.3964  0.6439 -0.5850
55713SOL     OW72975  10.343   9.090  12.087 -0.2373 -0.4135 -0.0574
55713SOL    HW172976  10.301   9.081  12.172 -0.4344  0.2569 -0.0861
55713SOL    HW272977  10.271   9.089  12.024 -0.3210  1.7273 -0.0464
55714SOL     OW72978  11.280   9.192  10.443 -0.5219 -0.6045 -0.2426
55714SOL    HW172979  11.345   9.249  10.485 -1.1811  0.6351 -0.8432
55714SOL    HW272980  11.234   9.151  10.517  0.3271 -0.8019  0.1931
55715SOL     OW72981   3.300  11.095  10.263 -0.3673 -0.0745  0.4364
55715SOL    HW172982   3.237  11.112  10.333  1.0504 -1.1647  2.0610
55715SOL    HW272983   3.353  11.175  10.258 -1.9144  0.9095 -1.0508
55716SOL     OW72984   8.289   9.292   5.652  0.1175 -0.3434 -0.5496
55716SOL    HW172985   8.311   9.382   5.631 -0.4143 -0.1272 -0.1749
55716SOL    HW272986   8.240   9.260   5.577 -0.2275 -0.1272 -0.4184
55717SOL     OW72987   6.890   9.214  11.997  0.1753 -0.2941 -0.2617
55717SOL    HW172988   6.976   9.255  12.002 -0.2829  0.6154  0.5438
55717SOL    HW272989   6.842   9.266  11.932 -0.9036  1.4841  1.8450
55718SOL     OW72990   2.037   1.520   8.631 -0.0650  0.2722 -0.7888
55718SOL    HW172991   2.093   1.561   8.565  1.2127  0.1440  0.1996
55718SOL    HW272992   2.038   1.580   8.705 -3.5125  1.7056 -1.6682
55719SOL     OW72993   6.360   9.305   7.702  0.2032  0.1158  0.1819
55719SOL    HW172994   6.295   9.324   7.633 -1.3357 -0.9551  1.2635
55719SOL    HW272995   6.308   9.292   7.781  1.7634 -0.6785  1.1354
55720SOL     OW72996   0.040   4.103   1.456  0.2770  0.0312  0.5469
55720SOL    HW172997   0.119   4.156   1.446 -1.4337  2.5417 -0.5247
55720SOL    HW272998  -0.027   4.164   1.486 -1.7015 -1.6302 -0.2496
55721SOL     OW72999   5.099  10.409   1.161  0.2171 -0.5234 -0.1104
55721SOL    HW173000   5.103  10.450   1.247  0.1420  0.5122 -0.5826
55721SOL    HW273001   5.036  10.338   1.171 -2.0143  1.3564 -0.0007
55722SOL     OW73002   2.097   4.217   8.046  0.3172 -0.1443  0.0827
55722SOL    HW173003   2.137   4.234   7.961 -0.6553  0.8789 -0.1905
55722SOL    HW273004   2.005   4.199   8.026  0.0924  0.0459  0.9099
55723SOL     OW73005  10.460   0.733  10.821  0.3091  0.1053 -0.1769
55723SOL    HW173006  10.397   0.802  10.843  0.9770  1.1627 -1.4271
55723SOL    HW273007  10.525   0.737  10.891  0.4721  0.9297 -0.3595
55724SOL     OW73008   5.248   9.398   2.295 -0.3668  0.0299 -0.2111
55724SOL    HW173009   5.220   9.400   2.203 -1.2455  1.8554  0.0501
55724SOL    HW273010   5.166   9.387   2.344  0.0562 -0.5611  0.3846
55725SOL     OW73011  11.643   8.052   3.611  0.3877 -0.3545 -0.4200
55725SOL    HW173012  11.716   8.103   3.575  0.3705 -0.0830 -0.0688
55725SOL    HW273013  11.656   7.964   3.576  1.0434 -0.3725 -0.1214
55726SOL     OW73014  10.672   9.526   4.707  0.3860 -0.3229 -0.3733
55726SOL    HW173015  10.760   9.564   4.712  0.3972 -0.3511 -0.3561
55726SOL    HW273016  10.624   9.567   4.779  0.6164 -0.8990  0.1129
55727SOL     OW73017   4.217   0.464   6.323  0.7158 -0.4087  0.0517
55727SOL    HW173018   4.242   0.386   6.373  0.9200 -1.1718 -1.2111
55727SOL    HW273019   4.160   0.431   6.254  1.5385  0.4125 -1.0579
55728SOL     OW73020   7.902   8.143   3.504  0.5415  0.1706 -0.0137
55728SOL    HW173021   7.844   8.210   3.543 -0.0897 -0.0509 -0.5462
55728SOL    HW273022   7.847   8.065   3.499  1.4210 -0.5327  1.0301
55729SOL     OW73023   6.840   2.616   6.662 -0.1616 -0.1629  0.1023
55729SOL    HW173024   6.873   2.540   6.614 -0.5505 -0.1552 -0.1837
55729SOL    HW273025   6.840   2.589   6.754  0.4785 -0.2187  0.0872
55730SOL     OW73026   2.049   8.900   7.258  0.1610 -0.0745  0.2715
55730SOL    HW173027   2.031   8.980   7.208  0.0005  0.4992  1.2391
55730SOL    HW273028   2.135   8.916   7.297 -0.1877 -0.0814  1.0437
55731SOL     OW73029   1.366  10.953   0.903  0.0193  0.3431 -0.6652
55731SOL    HW173030   1.341  10.948   0.995  1.7968 -1.9757 -0.2318
55731SOL    HW273031   1.287  10.984   0.858 -0.8326  1.6789  1.6131
55732SOL     OW73032  10.879   3.503   6.808 -0.0502 -0.2933 -0.1880
55732SOL    HW173033  10.928   3.575   6.847  0.7818 -0.8528 -0.1674
55732SOL    HW273034  10.803   3.492   6.864 -0.0708  0.4145 -0.0645
55733SOL     OW73035   5.609  10.352   5.280 -0.1837  0.1940 -0.1287
55733SOL    HW173036   5.680  10.366   5.343 -0.1365  0.7476 -0.3040
55733SOL    HW273037   5.532  10.390   5.322 -0.9788 -2.5315  1.1746
55734SOL     OW73038   1.533   3.926   5.143 -0.0752 -0.5577  0.5297
55734SOL    HW173039   1.540   3.845   5.193  0.1891  0.4735  2.2546
55734SOL    HW273040   1.491   3.988   5.203  1.7671  1.2103  0.1213
55735SOL     OW73041   2.209   2.232   5.706  0.1773  0.3614  0.2487
55735SOL    HW173042   2.246   2.255   5.621  0.6759 -0.0462  0.3528
55735SOL    HW273043   2.162   2.150   5.691  0.1539  0.3590  0.3350
55736SOL     OW73044  11.482   5.809   7.561  0.2141  0.5412 -0.1988
55736SOL    HW173045  11.511   5.727   7.603 -0.3177  0.6830  0.4558
55736SOL    HW273046  11.465   5.784   7.470  0.4753  0.0225 -0.1116
55737SOL     OW73047   7.169   5.515   6.486 -0.2042 -1.0786 -0.4259
55737SOL    HW173048   7.244   5.555   6.532 -0.1730 -0.4037 -1.0423
55737SOL    HW273049   7.095   5.530   6.545  0.2851 -2.5795  0.6283
55738SOL     OW73050   9.192  11.937  10.958 -0.0348  0.2557 -0.2488
55738SOL    HW173051   9.164  11.921  10.868  0.2637 -0.3941 -0.2345
55738SOL    HW273052   9.137  11.880  11.011 -0.1470  0.5666 -0.0269
55739SOL     OW73053   3.936   8.594   7.805  0.4211  0.4685  0.1847
55739SOL    HW173054   3.924   8.635   7.890 -2.2726  0.6842 -0.2170
55739SOL    HW273055   3.954   8.667   7.745 -0.2757  0.6162  0.1506
55740SOL     OW73056   8.196   9.053  10.820 -0.3787 -0.0053  0.4612
55740SOL    HW173057   8.155   8.972  10.852 -0.0630 -0.9526 -1.3910
55740SOL    HW273058   8.234   9.028  10.736  0.6536  1.8309  0.3461
55741SOL     OW73059   8.366   5.936   2.481 -0.3842  0.5538 -0.1448
55741SOL    HW173060   8.352   5.971   2.394  1.3419  2.7097  0.3686
55741SOL    HW273061   8.331   6.003   2.540  0.1487 -0.0183  0.8506
55742SOL     OW73062   2.237  11.514   2.596  0.2659  0.1629  0.2927
55742SOL    HW173063   2.309  11.574   2.614 -1.8774  2.9893  0.1643
55742SOL    HW273064   2.192  11.505   2.680  0.8115 -1.7801  0.4359
55743SOL     OW73065   7.756  10.112  12.202 -0.2520 -0.1408 -0.1917
55743SOL    HW173066   7.752  10.200  12.240  0.0100 -0.3188  0.2568
55743SOL    HW273067   7.837  10.111  12.152 -0.2312 -0.1433 -0.1573
55744SOL     OW73068   6.384   1.609   0.855  0.2240  0.0491  0.1548
55744SOL    HW173069   6.364   1.627   0.947 -0.5372 -1.4996  0.3203
55744SOL    HW273070   6.320   1.543   0.828  1.4913 -0.7738 -0.9936
55745SOL     OW73071   1.947   1.313   4.689  0.2448 -0.2848 -0.4274
55745SOL    HW173072   1.997   1.273   4.760  0.7416 -0.2318 -0.7424
55745SOL    HW273073   1.889   1.375   4.732  1.1149  0.3384 -0.1293
55746SOL     OW73074   0.364   2.736   2.020 -0.3508  0.7566  0.1769
55746SOL    HW173075   0.430   2.793   2.061 -0.4093  0.3182  0.8901
55746SOL    HW273076   0.364   2.657   2.073 -1.2676  0.6426  0.0231
55747SOL     OW73077   5.819   8.994   9.474 -0.4168 -0.1427  0.0318
55747SOL    HW173078   5.761   9.052   9.523  0.9221  1.7178 -0.4929
55747SOL    HW273079   5.787   8.997   9.385  0.1895  0.5605 -0.1766
55748SOL     OW73080   7.832   9.575   1.913  0.7464 -0.0929 -0.0617
55748SOL    HW173081   7.841   9.494   1.863  0.0623 -0.5894  0.5981
55748SOL    HW273082   7.877   9.641   1.860 -1.7364 -0.1296 -2.4125
55749SOL     OW73083   0.006   5.231   0.215 -0.2735 -0.7355 -0.3004
55749SOL    HW173084  -0.010   5.138   0.232 -1.2677 -0.3923  0.7677
55749SOL    HW273085  -0.007   5.241   0.121  1.3291 -1.9373 -0.6947
55750SOL     OW73086   9.909   9.553  12.158  0.2526  0.1490 -0.4526
55750SOL    HW173087   9.816   9.544  12.135  0.4548 -1.0710 -0.8690
55750SOL    HW273088   9.917   9.643  12.189 -1.4014 -0.1755  1.1262
55751SOL     OW73089   3.709   8.127   7.937 -0.8265  0.0426  0.3146
55751SOL    HW173090   3.766   8.200   7.913  0.3426 -0.6551  0.8412
55751SOL    HW273091   3.724   8.116   8.031 -2.8531  0.6791  0.7426
55752SOL     OW73092  10.297   5.406   7.575 -0.8523  0.1071 -0.0176
55752SOL    HW173093  10.243   5.348   7.522 -0.0123 -0.0828 -0.6871
55752SOL    HW273094  10.366   5.350   7.610 -0.3308  0.5906 -0.2526
55753SOL     OW73095   8.892   1.153   8.784 -0.3721 -0.3845 -0.0876
55753SOL    HW173096   8.967   1.095   8.772 -0.9505 -1.1754  0.0252
55753SOL    HW273097   8.896   1.179   8.876  0.1300  0.0971 -0.2434
55754SOL     OW73098   1.236   8.015   1.654 -0.1415  0.1589 -0.1661
55754SOL    HW173099   1.289   8.028   1.576 -0.9060 -0.0760 -0.7289
55754SOL    HW273100   1.155   7.977   1.623 -1.1320  1.6003  0.5325
55755SOL     OW73101  11.845  11.234   0.372  0.3462  0.1212 -0.0590
55755SOL    HW173102  11.842  11.159   0.432 -0.9018 -0.0853 -0.3520
55755SOL    HW273103  11.768  11.285   0.394  0.9603  1.1115 -0.1547
55756SOL     OW73104   7.196   9.057   9.422  0.3535  0.3375 -0.7064
55756SOL    HW173105   7.152   8.981   9.460  1.4630 -0.2334 -0.5076
55756SOL    HW273106   7.146   9.132   9.452 -1.8428 -0.3705 -2.3552
55757SOL     OW73107  10.410   2.510   8.140 -0.1905  0.1099  0.1197
55757SOL    HW173108  10.485   2.452   8.149 -1.2279 -1.3404 -0.1764
55757SOL    HW273109  10.435   2.572   8.072 -0.0756 -1.7658 -1.6319
55758SOL     OW73110   0.115  11.549  11.133  0.3003 -0.7028  0.1869
55758SOL    HW173111   0.113  11.627  11.189  0.6036 -0.3075 -0.3470
55758SOL    HW273112   0.185  11.495  11.169  0.4218 -0.5003  0.2545
55759SOL     OW73113   5.439   1.867   5.276 -0.3207 -0.6344 -0.1334
55759SOL    HW173114   5.498   1.937   5.249 -1.5277  0.1288 -0.8688
55759SOL    HW273115   5.481   1.828   5.353  0.1639  1.1730  0.5515
55760SOL     OW73116   8.781   8.574   7.647 -0.2389  0.8384 -0.0914
55760SOL    HW173117   8.745   8.585   7.559  0.0875 -0.6001 -0.4188
55760SOL    HW273118   8.708   8.597   7.705 -1.7248 -1.8871 -0.7312
55761SOL     OW73119   5.456   0.115   5.819  0.3681 -0.2147  0.6096
55761SOL    HW173120   5.362   0.104   5.808 -0.0136  3.2697 -0.9699
55761SOL    HW273121   5.490   0.117   5.729  0.8995  4.7114  0.6762
55762SOL     OW73122  11.216   5.605   2.309  0.5091 -0.7629  0.5033
55762SOL    HW173123  11.283   5.648   2.256  1.0519 -2.8081 -0.6064
55762SOL    HW273124  11.159   5.562   2.245 -0.5582 -0.8988  1.5116
55763SOL     OW73125   7.958   8.425   0.503 -0.3964  0.0301  0.0413
55763SOL    HW173126   8.007   8.389   0.577 -2.1728  0.0855  1.3038
55763SOL    HW273127   8.016   8.492   0.467  0.2100  0.5782  1.8994
55764SOL     OW73128   9.147  11.709   5.945 -0.4968 -0.0235 -0.6664
55764SOL    HW173129   9.054  11.694   5.960 -0.6964 -0.1979 -1.9584
55764SOL    HW273130   9.159  11.697   5.851  0.2353  3.0148 -1.0746
55765SOL     OW73131   1.996   4.673   2.479 -0.6431  0.4574 -0.3337
55765SOL    HW173132   1.904   4.646   2.477 -0.8857  0.9905  1.7714
55765SOL    HW273133   2.045   4.592   2.462 -1.4149 -0.9504  3.2885
55766SOL     OW73134   7.960   0.053   8.458 -0.6840 -0.2977 -0.0370
55766SOL    HW173135   7.979   0.135   8.504 -0.8602 -0.2384 -0.0696
55766SOL    HW273136   7.960  -0.013   8.527 -0.2136 -0.3196 -0.0592
55767SOL     OW73137   0.645   1.760   3.610 -0.0730 -0.0746 -0.2015
55767SOL    HW173138   0.712   1.810   3.655 -0.2545 -1.0031  1.1650
55767SOL    HW273139   0.694   1.700   3.553  0.3347 -1.1411  1.2041
55768SOL     OW73140   6.691   4.880  12.321 -0.7925  0.1944  0.4876
55768SOL    HW173141   6.746   4.953  12.350 -0.8710  1.0114 -1.2977
55768SOL    HW273142   6.625   4.872  12.390 -0.1720  1.1206  1.2272
55769SOL     OW73143   0.206   4.959   6.233  0.1426  0.0259  0.2663
55769SOL    HW173144   0.192   4.885   6.174  1.5662 -1.1806  1.3903
55769SOL    HW273145   0.117   4.989   6.254 -0.5114 -1.8099  0.3239
55770SOL     OW73146   2.836   9.086   5.436 -0.4020 -0.1820 -0.2753
55770SOL    HW173147   2.919   9.091   5.388 -0.2576 -0.6532 -0.0802
55770SOL    HW273148   2.830   9.171   5.481 -0.2130  0.0025 -0.5939
55771SOL     OW73149   6.616   6.329   6.529  0.0167  0.3460  0.3984
55771SOL    HW173150   6.580   6.280   6.454  1.1569  1.7054 -1.1073
55771SOL    HW273151   6.543   6.336   6.590 -0.4036 -2.5370  0.3619
55772SOL     OW73152   9.851   6.248   0.906 -0.5690  0.0238 -0.6453
55772SOL    HW173153   9.892   6.175   0.859  0.0700 -0.3000  0.3871
55772SOL    HW273154   9.786   6.206   0.962 -0.9028  0.3518 -0.7862
55773SOL     OW73155   2.217   3.716   5.768 -0.5698 -0.4190 -0.0740
55773SOL    HW173156   2.242   3.633   5.727 -1.5532 -0.7909  0.0505
55773SOL    HW273157   2.173   3.690   5.849  0.3660  0.2771  0.6886
55774SOL     OW73158   9.027  10.928   2.137 -0.1996  0.0902 -0.5134
55774SOL    HW173159   9.020  11.023   2.129 -2.2965  0.0898  0.7435
55774SOL    HW273160   8.962  10.894   2.076 -1.4045 -0.4133  0.9817
55775SOL     OW73161   4.064   7.778   7.005 -0.0351  0.2014 -0.3499
55775SOL    HW173162   4.042   7.870   7.024 -0.0222  0.4261 -1.3858
55775SOL    HW273163   4.140   7.783   6.948 -0.1256 -0.4524 -0.5269
55776SOL     OW73164   7.727   0.328  11.436  0.2600 -0.0099 -0.0374
55776SOL    HW173165   7.806   0.284  11.468  0.7770  2.1413  1.9946
55776SOL    HW273166   7.749   0.356  11.347  2.1445  1.1717  0.7367
55777SOL     OW73167   1.128   6.254   5.038  0.0124 -0.4676  0.6274
55777SOL    HW173168   1.138   6.297   4.953  0.5857  1.3949  1.5636
55777SOL    HW273169   1.106   6.326   5.098  2.9048 -1.0885  2.6632
55778SOL     OW73170   0.671   1.049   3.548 -0.3455 -0.6892 -0.3285
55778SOL    HW173171   0.751   1.050   3.601 -0.2903 -1.1665 -0.3990
55778SOL    HW273172   0.655   1.141   3.527  0.6532 -0.6513 -1.0190
55779SOL     OW73173   7.807   8.963   4.002 -0.0656  0.2405 -0.5629
55779SOL    HW173174   7.847   8.962   4.090 -0.0656 -0.5602 -0.5683
55779SOL    HW273175   7.724   9.008   4.015 -0.6033 -0.8977  0.0961
55780SOL     OW73176   9.096  10.375  10.991 -0.3059  0.0343  0.0110
55780SOL    HW173177   9.128  10.425  10.915 -0.9001  0.5511  0.0858
55780SOL    HW273178   9.171  10.370  11.050 -0.2652  0.9654  0.0574
55781SOL     OW73179  12.122   8.529   5.435  1.0428 -0.0203  0.2486
55781SOL    HW173180  12.109   8.533   5.529 -0.7456 -2.0266  0.1840
55781SOL    HW273181  12.209   8.491   5.424  0.7896 -0.9080  1.1556
55782SOL     OW73182   0.121   3.423   2.107 -0.2797 -0.4073 -0.1208
55782SOL    HW173183   0.063   3.486   2.065  0.5122  0.5999  0.2729
55782SOL    HW273184   0.171   3.384   2.035  0.2470  0.4680 -0.2436
55783SOL     OW73185  11.351   9.157   6.751 -0.2723 -0.1790 -0.2782
55783SOL    HW173186  11.263   9.158   6.789  0.0152 -0.0609  0.4024
55783SOL    HW273187  11.338   9.129   6.660 -0.8514 -1.6388  0.2271
55784SOL     OW73188   6.374   7.034   8.470  0.2033 -0.1940 -0.1528
55784SOL    HW173189   6.416   6.949   8.486  0.2622 -0.1142  0.1155
55784SOL    HW273190   6.432   7.098   8.510 -0.1076 -0.0708  0.1072
55785SOL     OW73191   9.662   8.857   9.472  0.2867  0.2325  0.2376
55785SOL    HW173192   9.594   8.830   9.534 -1.4218  0.0912 -1.5811
55785SOL    HW273193   9.719   8.780   9.464 -1.1160 -0.8020 -0.4245
55786SOL     OW73194   2.189  10.683   9.533 -0.1747 -0.1759 -0.0365
55786SOL    HW173195   2.240  10.632   9.597 -0.3708 -0.5987 -0.2176
55786SOL    HW273196   2.232  10.666   9.449  0.3404  0.7114  0.0306
55787SOL     OW73197   9.047   1.673   3.045 -0.2350 -0.3459  0.2149
55787SOL    HW173198   9.057   1.743   3.109  1.7032  0.1472 -0.5349
55787SOL    HW273199   8.962   1.689   3.004 -0.1230  1.1593  0.5275
55788SOL     OW73200   2.701   1.654   9.463 -0.7762 -0.3282  0.4076
55788SOL    HW173201   2.615   1.643   9.423 -0.4615 -1.1947 -0.0634
55788SOL    HW273202   2.734   1.736   9.426 -0.5608 -1.0264 -1.0252
55789SOL     OW73203  11.928   1.513   6.555  0.0661 -0.1658  0.6378
55789SOL    HW173204  11.937   1.607   6.573  0.5509  0.0622 -0.6233
55789SOL    HW273205  11.981   1.471   6.623  0.2151  0.5010  0.9511
55790SOL     OW73206  11.190  12.321   0.103  0.1020 -0.1803 -0.2217
55790SOL    HW173207  11.202  12.376   0.180 -1.6894 -0.5400  0.3519
55790SOL    HW273208  11.269  12.266   0.101  1.2799  1.4381 -0.0359
55791SOL     OW73209   7.280   1.561  10.325  0.5342  0.1451 -0.1057
55791SOL    HW173210   7.272   1.640  10.271 -2.1586 -0.6542 -1.0378
55791SOL    HW273211   7.263   1.590  10.414  0.9764  0.8161 -0.2329
55792SOL     OW73212   2.972   0.844   8.977 -0.2769 -0.4358 -0.2335
55792SOL    HW173213   2.908   0.883   8.918 -1.2272 -0.5391  0.6903
55792SOL    HW273214   3.035   0.800   8.920  0.1811  1.4550 -1.2368
55793SOL     OW73215   0.521   1.200   3.854  0.4705  0.1417  0.8314
55793SOL    HW173216   0.495   1.109   3.843 -3.6288  1.2136 -0.2423
55793SOL    HW273217   0.542   1.208   3.947 -2.3122 -1.3421  1.7179
55794SOL     OW73218   1.953   3.981  10.379  0.1332 -0.1377  0.0582
55794SOL    HW173219   1.943   3.984  10.284  0.2576 -0.4557  0.0335
55794SOL    HW273220   1.900   4.054  10.412  2.1718  1.6790 -0.4210
55795SOL     OW73221   0.006   7.909   1.753  0.4030  0.1012  0.1147
55795SOL    HW173222   0.050   7.825   1.755  3.3393  1.5290  1.0801
55795SOL    HW273223  -0.003   7.934   1.845  2.0087  1.9288 -0.1521
55796SOL     OW73224   9.504   5.444   4.018 -0.4053 -0.0420  0.0382
55796SOL    HW173225   9.512   5.502   3.942 -0.8825 -0.5505 -0.4042
55796SOL    HW273226   9.580   5.465   4.072 -0.4023  0.7745 -0.2681
55797SOL     OW73227   7.435   5.030   7.232 -0.0145  0.0060  0.4230
55797SOL    HW173228   7.519   5.054   7.270  1.2868 -0.9281 -1.6581
55797SOL    HW273229   7.399   4.965   7.292  0.7110  0.4481  1.3664
55798SOL     OW73230  10.895   7.730   0.771 -0.2943  0.2284 -0.7126
55798SOL    HW173231  10.980   7.773   0.779 -0.3802  0.6257 -1.8134
55798SOL    HW273232  10.893   7.695   0.682 -0.2450 -2.0663  0.1250
55799SOL     OW73233   2.294   3.451   9.509 -0.0104 -0.6053 -0.0905
55799SOL    HW173234   2.281   3.359   9.530  1.5990 -0.7089  0.6327
55799SOL    HW273235   2.325   3.451   9.418  2.8369 -1.0977  0.7894
55800SOL     OW73236   4.748   0.381   8.859 -0.1234 -0.2601  0.4874
55800SOL    HW173237   4.660   0.411   8.833  0.3906  0.5701 -0.4015
55800SOL    HW273238   4.753   0.399   8.953 -0.4811  0.8370  0.3128
55801SOL     OW73239   3.832   0.749  11.843 -0.4016  0.0904 -0.3606
55801SOL    HW173240   3.756   0.787  11.799 -1.0896  0.8020  1.3166
55801SOL    HW273241   3.903   0.755  11.780 -1.3976  0.7849 -1.4540
55802SOL     OW73242   8.436   7.154   0.955 -0.1926  0.2292  0.5678
55802SOL    HW173243   8.391   7.146   0.871  0.2962  0.7685  0.2561
55802SOL    HW273244   8.515   7.204   0.936  0.6658 -0.8995  1.0690
55803SOL     OW73245   9.525   9.588   6.242  0.3954  0.0467  0.4418
55803SOL    HW173246   9.455   9.524   6.258 -0.6979  0.4177 -2.3241
55803SOL    HW273247   9.493   9.641   6.169  3.2260  0.8048 -0.3751
55804SOL     OW73248   8.538   2.403  12.050  0.0612  0.3793  0.7078
55804SOL    HW173249   8.483   2.472  12.012 -0.4181 -0.8691 -0.9595
55804SOL    HW273250   8.500   2.321  12.019  1.8933 -0.5873  0.8352
55805SOL     OW73251   8.146   3.087   5.262 -0.1007  0.3344  0.7349
55805SOL    HW173252   8.190   3.039   5.192 -1.7037  0.6396 -0.5362
55805SOL    HW273253   8.217   3.121   5.316  1.2794  1.4341 -1.6313
55806SOL     OW73254   8.171   2.467   5.458  0.6030 -0.5018  0.7681
55806SOL    HW173255   8.197   2.505   5.542 -0.3945 -0.9640  1.3114
55806SOL    HW273256   8.253   2.455   5.410  0.9982  2.2951  0.5539
55807SOL     OW73257   6.537   4.717   2.690  0.0153  0.5685  0.3429
55807SOL    HW173258   6.502   4.773   2.759 -1.1804  0.6931 -0.3348
55807SOL    HW273259   6.461   4.697   2.635  0.8393  0.0422 -0.6291
55808SOL     OW73260   8.391  11.423   8.331 -0.1289  0.2663  0.6447
55808SOL    HW173261   8.409  11.404   8.239  0.9417 -2.1478  1.2709
55808SOL    HW273262   8.468  11.473   8.361  0.7120 -1.0370  0.7644
55809SOL     OW73263   2.852  10.728   2.445  0.1513 -0.5372  0.3746
55809SOL    HW173264   2.881  10.729   2.536 -1.2615  0.6190  0.8393
55809SOL    HW273265   2.761  10.758   2.447  0.7788  1.9490 -1.6256
55810SOL     OW73266   2.279   5.201  12.032 -0.3449  0.3067 -0.2084
55810SOL    HW173267   2.202   5.188  11.978  0.6044  0.3219 -1.6165
55810SOL    HW273268   2.256   5.162  12.116 -2.1809  1.0880 -0.3104
55811SOL     OW73269   3.478  11.423   8.428  0.2642 -0.0128 -0.5715
55811SOL    HW173270   3.410  11.382   8.374  0.8876 -0.3734 -1.1001
55811SOL    HW273271   3.456  11.516   8.428  1.1870  0.2607 -2.8788
55812SOL     OW73272   8.018   4.210   9.175  0.0599  0.4700  0.3709
55812SOL    HW173273   8.000   4.297   9.141 -2.2928 -0.0783  0.0898
55812SOL    HW273274   7.939   4.185   9.221  1.0031 -1.2039  1.1840
55813SOL     OW73275   2.854  12.320   6.182  0.5724 -0.7875 -0.1469
55813SOL    HW173276   2.808  12.236   6.191  0.3734 -0.7363 -0.6160
55813SOL    HW273277   2.804  12.380   6.237 -1.2698 -0.2223 -2.2927
55814SOL     OW73278   6.367  11.412   5.570  0.5256 -0.3055 -0.5601
55814SOL    HW173279   6.310  11.336   5.556 -1.6234  1.1408 -0.2347
55814SOL    HW273280   6.382  11.413   5.665 -1.2583  0.8123 -0.2403
55815SOL     OW73281   9.038  11.381   5.939 -0.2439 -0.4252  0.3014
55815SOL    HW173282   9.108  11.439   5.967 -0.1998 -0.0283 -0.6059
55815SOL    HW273283   9.011  11.415   5.853  0.4516 -2.3069 -0.7196
55816SOL     OW73284   4.107   5.134   3.964  0.0453  0.0559 -0.2621
55816SOL    HW173285   4.016   5.160   3.950 -0.9534 -2.5593  0.8297
55816SOL    HW273286   4.110   5.107   4.056  2.2166  1.0191  0.0090
55817SOL     OW73287   7.742   9.486   3.817  0.5808  0.5286  0.5450
55817SOL    HW173288   7.720   9.445   3.901  1.3498 -1.0282  0.0269
55817SOL    HW273289   7.685   9.562   3.812  0.4357  0.5963  2.4261
55818SOL     OW73290   3.705  10.256   5.023  0.3954  0.0446 -0.1293
55818SOL    HW173291   3.772  10.323   5.039  0.4782 -0.0360 -0.1308
55818SOL    HW273292   3.741  10.178   5.066  0.6067 -0.1691 -0.6890
55819SOL     OW73293   1.025   9.799   9.964 -0.6803 -0.3180  0.7445
55819SOL    HW173294   1.056   9.718  10.006  0.7349  0.0224  0.4292
55819SOL    HW273295   0.932   9.804   9.986 -0.5976 -1.5904  1.4789
55820SOL     OW73296   9.134   3.595   5.713 -0.0348  0.1867  0.0784
55820SOL    HW173297   9.169   3.535   5.779  1.4746 -1.7670 -2.3448
55820SOL    HW273298   9.043   3.567   5.700  0.3873 -1.0250 -0.3698
55821SOL     OW73299   1.060   8.647  11.527 -0.8002 -0.1180  0.0323
55821SOL    HW173300   1.084   8.663  11.435 -1.2796  1.3918  0.1405
55821SOL    HW273301   1.141   8.616  11.567 -0.8394 -1.8503 -1.1095
55822SOL     OW73302   9.809   0.870   8.202 -0.2258  0.0799 -0.4036
55822SOL    HW173303   9.747   0.939   8.178 -1.0903 -0.5433 -0.0177
55822SOL    HW273304   9.767   0.824   8.275  0.2669 -0.9481 -0.7539
55823SOL     OW73305   3.033   7.793   9.879 -0.2128 -0.6453  0.1876
55823SOL    HW173306   2.995   7.841   9.806  1.8329  0.6638 -0.1016
55823SOL    HW273307   3.008   7.702   9.864 -2.0418 -0.0399 -0.6610
55824SOL     OW73308   7.175   7.039   4.524 -0.2912 -0.1206 -0.5042
55824SOL    HW173309   7.182   7.101   4.595  1.0588  0.6940 -1.3027
55824SOL    HW273310   7.222   7.080   4.451  0.0970 -1.7797 -1.2488
55825SOL     OW73311   3.136   1.437   1.960 -0.6120 -0.2789 -0.4858
55825SOL    HW173312   3.158   1.458   2.050 -1.1785 -0.8509 -0.2064
55825SOL    HW273313   3.040   1.433   1.959 -0.7395  1.6440 -1.5472
55826SOL     OW73314  10.381   4.151   7.272  0.3045 -0.0783  0.0245
55826SOL    HW173315  10.378   4.156   7.177  1.6846 -2.8226 -0.2630
55826SOL    HW273316  10.305   4.096   7.295  0.9009 -0.7850  0.3313
55827SOL     OW73317  12.188   6.841  11.316  0.7484 -0.0665 -0.5527
55827SOL    HW173318  12.273   6.830  11.358  0.1633 -1.7048  0.3007
55827SOL    HW273319  12.156   6.751  11.302 -0.8485  0.5067 -0.8315
55828SOL     OW73320   8.007   3.067   6.651  1.1297  0.2042  0.3238
55828SOL    HW173321   7.948   3.112   6.710  0.7450  1.3944 -0.9178
55828SOL    HW273322   8.083   3.125   6.644  0.9767  0.3047 -0.6770
55829SOL     OW73323   8.977   1.743   8.987 -0.0016  0.4446 -0.3236
55829SOL    HW173324   8.988   1.657   9.028  1.1453 -0.2672 -1.9851
55829SOL    HW273325   9.035   1.801   9.037 -0.0967  0.0454  0.2577
55830SOL     OW73326  12.290   1.398   9.456 -0.0343 -0.0602  0.4975
55830SOL    HW173327  12.236   1.344   9.513  0.8122 -2.2930 -0.6833
55830SOL    HW273328  12.364   1.425   9.511 -0.5647  0.0899  1.1534
55831SOL     OW73329   9.803   1.137   4.340  0.1988  0.7081  0.0790
55831SOL    HW173330   9.856   1.217   4.337  1.5971 -0.0906  1.7092
55831SOL    HW273331   9.717   1.167   4.369  0.2361  1.8183 -0.8997
55832SOL     OW73332  10.224   2.931   2.328  0.3312  0.2249 -0.2855
55832SOL    HW173333  10.134   2.905   2.350  0.8207 -1.5824 -0.3280
55832SOL    HW273334  10.275   2.909   2.406  0.9482  0.0836 -0.7238
55833SOL     OW73335   0.142   9.093   6.933 -0.7939  0.3352  0.6988
55833SOL    HW173336   0.179   9.005   6.929 -2.3734 -0.4763  2.5006
55833SOL    HW273337   0.218   9.150   6.941  0.2170 -1.1682  3.0053
55834SOL     OW73338   8.741   5.405   7.754  0.1053 -0.5666 -0.3706
55834SOL    HW173339   8.831   5.374   7.758  0.3866 -0.0333 -1.9307
55834SOL    HW273340   8.746   5.497   7.780  0.0759 -0.4402 -0.8034
55835SOL     OW73341   7.632   9.692   8.263  0.2430  0.1751 -0.5670
55835SOL    HW173342   7.612   9.754   8.333 -0.5804 -1.0660  0.3327
55835SOL    HW273343   7.557   9.632   8.262  0.7116 -0.4143 -1.8560
55836SOL     OW73344   1.993   0.559  11.934 -0.4571  0.0976 -0.5540
55836SOL    HW173345   1.903   0.544  11.963 -0.9892  0.7001 -1.8018
55836SOL    HW273346   2.024   0.629  11.991  0.5687 -2.5054  2.3923
55837SOL     OW73347  10.162   8.752   5.623 -0.2913  0.2371 -0.4545
55837SOL    HW173348  10.244   8.761   5.671 -0.8274 -0.2675  0.5861
55837SOL    HW273349  10.185   8.771   5.532  0.8303  0.7984 -0.0733
55838SOL     OW73350  11.401   0.717   4.497 -0.4292  0.1232 -1.0303
55838SOL    HW173351  11.479   0.726   4.443  1.1891  0.2887  1.1780
55838SOL    HW273352  11.390   0.622   4.509  1.9527  0.0402  1.8389
55839SOL     OW73353   6.736   9.036  11.512  0.1151 -0.2988  0.5720
55839SOL    HW173354   6.768   8.948  11.532  1.2244 -0.0333  0.0247
55839SOL    HW273355   6.777   9.057  11.428 -0.1238  0.7466  0.7143
55840SOL     OW73356   4.039   9.269   8.987 -0.1671 -0.0113 -0.2651
55840SOL    HW173357   4.039   9.174   9.002 -0.2335 -0.1465 -1.0371
55840SOL    HW273358   3.976   9.281   8.915 -1.0776  0.7607  0.6326
55841SOL     OW73359   9.036   2.458   9.291 -0.2631  0.2307  0.1208
55841SOL    HW173360   8.970   2.516   9.331 -0.8856 -1.8104  2.2369
55841SOL    HW273361   8.989   2.376   9.277  1.5947 -0.9892  0.8262
55842SOL     OW73362   0.709  11.378   1.547  0.1753 -0.2383  0.2497
55842SOL    HW173363   0.801  11.365   1.522  0.0552 -0.3313 -0.1659
55842SOL    HW273364   0.661  11.372   1.464 -0.1455  0.3988  0.3827
55843SOL     OW73365   1.624   7.480   0.605 -0.0724 -0.1066  0.5491
55843SOL    HW173366   1.627   7.395   0.560  1.8611 -0.5808  1.4696
55843SOL    HW273367   1.716   7.502   0.620 -0.5745  1.6849  1.2268
55844SOL     OW73368   6.767   3.961  12.292  0.2274  0.8994 -0.1020
55844SOL    HW173369   6.752   4.054  12.308 -0.4162  0.9036 -0.6822
55844SOL    HW273370   6.801   3.927  12.375 -1.5399  1.2329  0.7976
55845SOL     OW73371   5.422  11.540   7.697 -0.4616  0.2049 -0.3056
55845SOL    HW173372   5.332  11.565   7.677 -0.9555 -0.4484  0.9689
55845SOL    HW273373   5.414  11.482   7.773  1.1706  1.4631  0.8829
55846SOL     OW73374   2.479   8.041   4.863  0.3286  0.0275  0.2219
55846SOL    HW173375   2.456   8.100   4.935  1.3606  0.4318  0.2376
55846SOL    HW273376   2.571   8.019   4.879  0.5913  0.1805 -1.0173
55847SOL     OW73377   6.537   4.286  10.888  0.1099  0.1023  0.0773
55847SOL    HW173378   6.594   4.213  10.913 -0.7331 -1.2210 -1.6502
55847SOL    HW273379   6.455   4.269  10.935 -0.2012 -0.2904 -0.5847
55848SOL     OW73380   7.988   5.442   8.654 -0.0643  0.0151 -0.4676
55848SOL    HW173381   7.917   5.393   8.695  0.2979 -0.4948 -0.4374
55848SOL    HW273382   8.008   5.512   8.716 -0.4807  0.1070 -0.4369
55849SOL     OW73383   0.431   8.969  11.885 -0.5074  0.3603 -0.0880
55849SOL    HW173384   0.514   8.944  11.926 -1.0594  0.3048  1.0332
55849SOL    HW273385   0.456   9.027  11.813  0.4703  0.7520  0.5506
55850SOL     OW73386   5.109   7.035   6.121 -0.3637  0.0701  0.5106
55850SOL    HW173387   5.154   7.014   6.039  0.4668  0.3693  0.8753
55850SOL    HW273388   5.056   6.957   6.140  1.3322 -1.0306  0.9347
55851SOL     OW73389  11.454  12.306   6.922 -0.4814 -0.3330  0.2765
55851SOL    HW173390  11.449  12.401   6.909  2.3089 -0.1905 -0.4336
55851SOL    HW273391  11.489  12.296   7.011  3.5323 -0.4088 -1.1244
55852SOL     OW73392   3.409   2.362  10.106  0.0450  0.3389  0.1847
55852SOL    HW173393   3.404   2.428  10.036 -0.1956  1.0261  0.8314
55852SOL    HW273394   3.339   2.387  10.167 -0.1841 -0.6466  0.3418
55853SOL     OW73395   6.812   3.934   3.593  0.0351  0.2668 -0.3229
55853SOL    HW173396   6.867   3.994   3.542 -0.1651  0.7148 -0.0209
55853SOL    HW273397   6.725   3.974   3.589  0.0515  0.3962  0.5122
55854SOL     OW73398   2.075   9.351  11.680  0.1129  0.6222 -0.1034
55854SOL    HW173399   2.077   9.256  11.694  1.5640  0.7320  0.5231
55854SOL    HW273400   1.984   9.369  11.655 -0.0832 -0.9850 -0.6777
55855SOL     OW73401   9.063  11.517   1.201  0.2894  0.5670 -0.2928
55855SOL    HW173402   9.099  11.443   1.152 -0.5972  0.1456 -0.3250
55855SOL    HW273403   9.074  11.592   1.142 -1.5553 -0.0797 -1.5461
55856SOL     OW73404   0.718   7.062   4.236  0.2029  0.2011  0.3552
55856SOL    HW173405   0.800   7.023   4.206 -0.0561 -0.9897  1.1334
55856SOL    HW273406   0.745   7.136   4.290  0.6884  2.3456 -2.5592
55857SOL     OW73407   7.314   1.184   6.502  0.3040  0.9597  0.4554
55857SOL    HW173408   7.267   1.242   6.561  0.6375  0.3783  1.3172
55857SOL    HW273409   7.389   1.153   6.554 -0.5285 -1.2009  0.4790
55858SOL     OW73410   4.360   9.448   4.914 -0.0428 -0.4163  0.0134
55858SOL    HW173411   4.375   9.502   4.836 -0.4283 -1.1046 -0.5580
55858SOL    HW273412   4.434   9.386   4.915  0.4469  0.1645  0.7158
55859SOL     OW73413   8.107   1.810   3.123  0.6528  0.3422  0.2547
55859SOL    HW173414   8.051   1.742   3.086  0.4034 -0.8981  2.6941
55859SOL    HW273415   8.185   1.810   3.067 -0.1467 -0.6383 -0.8941
55860SOL     OW73416   1.977   8.137   4.765 -0.2407 -0.0176  0.0168
55860SOL    HW173417   1.895   8.168   4.803 -0.3523 -1.2026  0.8096
55860SOL    HW273418   1.976   8.043   4.779  2.0693  0.1191  1.7697
55861SOL     OW73419   5.507   7.635   6.892 -0.7515 -0.4909 -0.2378
55861SOL    HW173420   5.540   7.572   6.828 -0.5778 -0.5816 -0.0627
55861SOL    HW273421   5.536   7.720   6.858  0.1123 -0.6063  0.1635
55862SOL     OW73422   5.684   9.226   2.923 -0.3391  0.1018 -0.2799
55862SOL    HW173423   5.626   9.288   2.878  0.6818  0.9730 -0.4259
55862SOL    HW273424   5.634   9.145   2.925 -1.2649  0.6249 -1.0794
55863SOL     OW73425   7.888   2.422   3.677  0.0350  0.2055 -0.2617
55863SOL    HW173426   7.867   2.463   3.594 -0.6196  0.0323 -0.1829
55863SOL    HW273427   7.804   2.401   3.716  0.3292  0.4546  0.5340
55864SOL     OW73428   9.944   0.817   9.437  0.1245 -0.5140 -0.3200
55864SOL    HW173429   9.962   0.873   9.361  1.0017 -0.0873  0.1885
55864SOL    HW273430   9.973   0.869   9.512  0.4457 -1.4436  0.2029
55865SOL     OW73431   5.680   5.462  10.737  0.1517 -0.4380 -0.4417
55865SOL    HW173432   5.669   5.517  10.660 -0.2837 -1.3907 -1.0711
55865SOL    HW273433   5.772   5.471  10.760  0.3028 -0.2129 -1.1195
55866SOL     OW73434   4.649   4.442   4.182 -0.2379  0.1458 -0.6984
55866SOL    HW173435   4.633   4.350   4.162 -0.4035 -0.0728  0.4142
55866SOL    HW273436   4.688   4.477   4.101 -0.8302 -0.7174 -1.3805
55867SOL     OW73437   6.881  10.401   9.304 -0.1717 -0.1874 -0.2702
55867SOL    HW173438   6.946  10.469   9.320 -0.5238 -0.2067  1.3722
55867SOL    HW273439   6.929  10.333   9.256  0.2543  1.0365 -1.6769
55868SOL     OW73440   3.588  12.142   4.358  0.0950 -0.1776 -0.1514
55868SOL    HW173441   3.591  12.057   4.314 -1.6157 -0.6962  0.6709
55868SOL    HW273442   3.670  12.184   4.333  1.3613 -2.3658  0.0462
55869SOL     OW73443   5.470   9.062   2.570 -0.0277 -0.2883  0.1005
55869SOL    HW173444   5.512   9.006   2.505 -1.2301  0.5057 -1.4191
55869SOL    HW273445   5.378   9.036   2.569 -0.0152 -0.5266  1.8088
55870SOL     OW73446   5.071   2.746   7.828 -0.1791 -0.3847  0.3652
55870SOL    HW173447   5.058   2.841   7.828  0.1587 -0.3389  0.2703
55870SOL    HW273448   5.105   2.726   7.741  0.4477 -0.4949  0.6313
55871SOL     OW73449   0.019  11.474   0.714 -0.1111 -0.0139 -0.1357
55871SOL    HW173450   0.016  11.379   0.715 -0.2743 -0.0169 -0.5781
55871SOL    HW273451   0.018  11.500   0.806  1.1003 -0.4752  0.0222
55872SOL     OW73452   5.897  10.111  11.969  0.1613  0.0015  0.5087
55872SOL    HW173453   5.978  10.123  11.919  0.2976  0.5167  0.8476
55872SOL    HW273454   5.924  10.061  12.046  0.1926  0.3529  0.7243
55873SOL     OW73455  10.547   4.112   9.616 -0.2583  0.1682  0.7616
55873SOL    HW173456  10.550   4.024   9.580 -1.1845  0.5634 -0.3501
55873SOL    HW273457  10.488   4.160   9.558 -1.7728  0.8647  2.7260
55874SOL     OW73458   8.553   9.920   2.350 -0.5847 -0.5510 -0.0555
55874SOL    HW173459   8.613   9.931   2.276  0.1557  1.0572  0.7457
55874SOL    HW273460   8.467   9.913   2.309 -0.0695 -0.9447 -1.1253
55875SOL     OW73461   0.580   4.929   0.692 -0.2088 -0.2811  0.2513
55875SOL    HW173462   0.579   4.969   0.605  3.6912  0.3015  0.2916
55875SOL    HW273463   0.577   4.835   0.674 -1.1097 -0.1517 -0.3641
55876SOL     OW73464   6.867   0.570   9.408  0.0235 -0.4929 -0.4536
55876SOL    HW173465   6.842   0.614   9.327 -0.1819 -2.7257 -1.6490
55876SOL    HW273466   6.839   0.480   9.397  0.8562 -1.0864  1.7305
55877SOL     OW73467   3.103  11.088  11.400  0.9762  0.0734  0.6653
55877SOL    HW173468   3.069  11.001  11.423  0.4967 -0.6884 -2.4009
55877SOL    HW273469   3.187  11.070  11.357 -0.1663  0.7741 -2.1057
55878SOL     OW73470   9.868   3.922   8.116 -0.0619 -0.2553 -0.2654
55878SOL    HW173471   9.914   3.847   8.153  0.1094 -0.2943 -0.5546
55878SOL    HW273472   9.805   3.884   8.056  0.0509 -0.1655 -0.4397
55879SOL     OW73473   0.944   3.609   2.497  0.1426 -0.0314  0.2907
55879SOL    HW173474   0.937   3.695   2.456  2.2597 -0.8406 -1.9889
55879SOL    HW273475   0.936   3.547   2.425  0.5101 -1.6821  1.6083
55880SOL     OW73476   9.573   4.931   4.932  0.1613 -0.4929 -0.5467
55880SOL    HW173477   9.614   5.008   4.972 -2.8691  0.4341  1.0878
55880SOL    HW273478   9.557   4.957   4.841  0.8638  0.0619 -0.5249
55881SOL     OW73479   9.370   2.309   5.354  0.0724 -0.0777  0.2929
55881SOL    HW173480   9.344   2.252   5.282  0.8793  0.5651 -0.5367
55881SOL    HW273481   9.289   2.351   5.382 -0.3166 -0.6542  0.0521
55882SOL     OW73482   9.340   3.454   0.951 -0.2863 -0.0044  0.4012
55882SOL    HW173483   9.263   3.406   0.920  0.9825 -1.7182 -0.2658
55882SOL    HW273484   9.398   3.387   0.986  1.1355  1.1854  0.4351
55883SOL     OW73485  11.318   8.605   1.103 -0.0690  0.1605 -0.0485
55883SOL    HW173486  11.281   8.574   1.021  1.6317 -2.2176 -0.0326
55883SOL    HW273487  11.338   8.697   1.087  1.8164 -0.6290 -2.9761
55884SOL     OW73488   0.957   2.000   0.071 -0.2076 -0.3876 -0.2214
55884SOL    HW173489   0.990   2.054  -0.000 -1.3148 -0.2652 -0.6561
55884SOL    HW273490   0.946   1.913   0.032 -1.9898 -0.0371 -0.5659
55885SOL     OW73491   1.579   0.674   2.610  0.0168  0.7354 -0.1248
55885SOL    HW173492   1.634   0.749   2.587 -1.8340  1.7370 -1.5473
55885SOL    HW273493   1.601   0.655   2.701  4.7335 -0.7647 -1.3227
55886SOL     OW73494   2.648   2.025   4.929 -0.4917 -0.3436  0.5496
55886SOL    HW173495   2.616   2.112   4.953  0.3279  0.4218 -1.0410
55886SOL    HW273496   2.689   2.036   4.844 -0.1810 -2.2616  0.3966
55887SOL     OW73497   3.221   3.893   5.820  0.3626  0.4239  0.2002
55887SOL    HW173498   3.148   3.843   5.856  0.0576  0.0221 -0.9639
55887SOL    HW273499   3.188   3.930   5.738  1.0402  1.3602  0.3222
55888SOL     OW73500  11.750  10.425   3.959 -0.3315 -0.4851 -0.5110
55888SOL    HW173501  11.682  10.441   3.893  1.0402  2.1408 -1.4143
55888SOL    HW273502  11.748  10.502   4.016  0.4785 -1.3582  0.7697
55889SOL     OW73503   5.529   6.342  12.229 -0.4399  0.3643  0.0524
55889SOL    HW173504   5.511   6.411  12.166 -0.8362 -2.5810 -3.4119
55889SOL    HW273505   5.615   6.364  12.265 -1.8895  4.2067  1.6971
55890SOL     OW73506   7.383   7.193   6.365  0.2197  0.0882  0.5857
55890SOL    HW173507   7.472   7.164   6.345  0.1085 -0.5081  0.9367
55890SOL    HW273508   7.395   7.271   6.419  0.5464 -0.4634  1.3295
55891SOL     OW73509   9.880   1.342  10.329  0.7994  0.3659  0.2998
55891SOL    HW173510   9.940   1.406  10.365  0.9081  0.3592  0.1336
55891SOL    HW273511   9.916   1.322  10.242  1.1069 -0.3624  0.5800
55892SOL     OW73512   3.124  11.605   1.947  0.1943 -0.1300  0.2865
55892SOL    HW173513   3.170  11.686   1.922 -0.4325  0.2073  0.2221
55892SOL    HW273514   3.065  11.587   1.874 -0.9225  0.3164  1.0466
55893SOL     OW73515   3.277   2.608   3.165  0.2325 -0.1236  0.5275
55893SOL    HW173516   3.336   2.665   3.115  0.0231  0.6534  1.1476
55893SOL    HW273517   3.297   2.520   3.135  2.5679 -0.0137  1.5486
55894SOL     OW73518   4.219   3.005  10.957  0.3550  0.1451  0.0310
55894SOL    HW173519   4.133   3.004  10.915  0.0348 -0.6315  0.6867
55894SOL    HW273520   4.203   3.042  11.044  0.9803  1.5625 -0.4369
55895SOL     OW73521   1.783  12.056   8.057  1.2512  0.0645  0.0749
55895SOL    HW173522   1.817  11.974   8.094 -0.2819 -0.6753 -0.0501
55895SOL    HW273523   1.834  12.125   8.099  3.2435 -0.9727 -0.5259
55896SOL     OW73524   4.452  10.523   3.480 -1.0034  0.1786 -0.2574
55896SOL    HW173525   4.430  10.613   3.504 -0.0286  0.2392  0.4607
55896SOL    HW273526   4.449  10.523   3.384 -2.1193  0.6707 -0.2368
55897SOL     OW73527   9.765   8.343   3.604 -0.1928  0.0699 -0.3061
55897SOL    HW173528   9.802   8.370   3.688  0.1242 -0.3963 -0.2966
55897SOL    HW273529   9.697   8.408   3.587 -0.5778 -0.1013  0.5344
55898SOL     OW73530  12.102   1.256   3.541  0.0921  0.0013  0.1374
55898SOL    HW173531  12.036   1.216   3.483  1.7385 -1.2087 -1.0052
55898SOL    HW273532  12.054   1.278   3.620 -1.5053 -1.7254 -0.2777
55899SOL     OW73533   0.629   5.051  10.695  0.0371  0.2523 -0.2938
55899SOL    HW173534   0.688   5.007  10.634  1.8673  0.2991  1.3336
55899SOL    HW273535   0.551   5.070  10.643  1.9390  1.4155 -2.9881
55900SOL     OW73536   0.299   5.719   4.541 -0.2207 -0.1345 -0.6970
55900SOL    HW173537   0.351   5.798   4.527 -0.8812  0.2935 -0.7928
55900SOL    HW273538   0.318   5.694   4.631  0.3844 -0.1597 -0.8280
55901SOL     OW73539   8.818   0.193   2.472 -0.2067 -0.2482  0.4940
55901SOL    HW173540   8.790   0.167   2.384 -0.3817 -3.3110  1.3142
55901SOL    HW273541   8.908   0.222   2.461  0.8452 -3.4351 -0.4304
55902SOL     OW73542  10.176   9.731  11.639  0.3171 -0.0521  0.4825
55902SOL    HW173543  10.094   9.780  11.643  1.4016  2.1073 -1.4313
55902SOL    HW273544  10.207   9.731  11.730 -0.5610  1.3915  0.8242
55903SOL     OW73545   4.062   7.357   7.202 -0.0055  0.1196  0.4476
55903SOL    HW173546   4.051   7.348   7.297  3.1241  0.5860  0.9397
55903SOL    HW273547   4.071   7.267   7.171 -0.2814  0.0113  0.6696
55904SOL     OW73548   9.210   6.912  10.337  0.2615  0.6901 -0.1232
55904SOL    HW173549   9.238   6.976  10.272  0.6518  1.2809  0.6140
55904SOL    HW273550   9.131   6.949  10.375 -0.2275  0.1272 -0.5653
55905SOL     OW73551   7.109  10.630   3.611  0.3700  0.3778 -0.3529
55905SOL    HW173552   7.171  10.584   3.667 -0.7875  0.9672  1.5405
55905SOL    HW273553   7.143  10.720   3.606  1.8839 -0.2441 -2.8909
55906SOL     OW73554   3.631   4.852  11.882  0.1491 -0.5231  0.2936
55906SOL    HW173555   3.701   4.880  11.823  1.3402 -1.0301  1.4321
55906SOL    HW273556   3.614   4.928  11.938 -0.3765 -0.3335 -0.1074
55907SOL     OW73557  10.639   6.396   3.429  0.1873  0.0148 -0.2139
55907SOL    HW173558  10.577   6.396   3.356  0.1084  0.4859 -0.1516
55907SOL    HW273559  10.725   6.396   3.388  0.2847 -3.6940 -0.3647
55908SOL     OW73560   7.427   6.988   5.060  0.3234  0.1650 -0.2531
55908SOL    HW173561   7.378   7.025   5.134  1.0196  0.4561  0.0795
55908SOL    HW273562   7.515   6.971   5.096  1.0578  1.4893 -1.3173
55909SOL     OW73563   5.018   7.875   6.607  0.3978  0.5392 -0.1635
55909SOL    HW173564   5.016   7.779   6.609  1.1221  0.4667 -1.4647
55909SOL    HW273565   4.934   7.901   6.645  0.3667 -0.5977  0.5966
55910SOL     OW73566   6.221   9.815  10.180 -0.4345 -0.5803 -0.3581
55910SOL    HW173567   6.129   9.841  10.190 -0.1352  0.4122 -0.1710
55910SOL    HW273568   6.245   9.846  10.093  0.0519  0.1640  0.0380
55911SOL     OW73569   7.380  10.791   9.321  1.0342 -0.3779  0.2898
55911SOL    HW173570   7.428  10.867   9.286  0.4550  0.6197  1.5918
55911SOL    HW273571   7.448  10.726   9.339  1.5055 -0.3275 -1.1606
55912SOL     OW73572   3.130   7.838  11.674  0.4488  0.7956  0.1468
55912SOL    HW173573   3.128   7.811  11.765 -0.5111  0.0026 -0.0938
55912SOL    HW273574   3.131   7.756  11.624  0.6285  1.2129 -0.5592
55913SOL     OW73575   6.132   0.268   9.703 -0.2499 -0.1361  0.2746
55913SOL    HW173576   6.096   0.189   9.664  0.0075 -0.0428 -0.1682
55913SOL    HW273577   6.195   0.300   9.637 -0.2402  0.3461  0.5157
55914SOL     OW73578   8.529   2.605   4.760  0.3218 -0.0903 -0.0317
55914SOL    HW173579   8.571   2.613   4.846  0.4957 -1.8393  0.0780
55914SOL    HW273580   8.436   2.596   4.780  0.0543  1.8987 -0.1830
55915SOL     OW73581  11.981   4.071   6.345 -0.6057  0.5160 -0.1368
55915SOL    HW173582  11.992   4.164   6.368 -0.0523  0.1398  1.2448
55915SOL    HW273583  12.067   4.032   6.361 -1.0841 -0.4169  0.2549
55916SOL     OW73584  12.301   5.440   6.228 -0.1062 -0.5238  0.1390
55916SOL    HW173585  12.327   5.531   6.240  0.5700 -0.8482  1.3163
55916SOL    HW273586  12.212   5.435   6.263 -1.3621  0.3010 -2.6890
55917SOL     OW73587   5.557   4.561   9.066 -0.0234  0.3516  0.2858
55917SOL    HW173588   5.531   4.541   9.156  0.9805 -1.3874  0.2303
55917SOL    HW273589   5.551   4.477   9.020  2.0903  0.6074 -0.5875
55918SOL     OW73590   8.537   1.490   4.604 -0.1064  0.1592  0.0464
55918SOL    HW173591   8.526   1.583   4.581  0.1432 -0.1437 -1.3383
55918SOL    HW273592   8.605   1.491   4.672  0.8332  0.9101 -0.8597
55919SOL     OW73593   6.007   7.624   2.950 -0.0518  0.6336  0.0895
55919SOL    HW173594   6.097   7.600   2.975  1.3613  3.1889 -2.0496
55919SOL    HW273595   5.998   7.716   2.977 -2.8984 -0.1153  2.1913
55920SOL     OW73596   2.133   4.364  11.487 -0.2064  0.5967 -0.2348
55920SOL    HW173597   2.213   4.415  11.485 -0.0328  0.3285 -0.2768
55920SOL    HW273598   2.118   4.345  11.580  0.2635 -0.0937 -0.2908
55921SOL     OW73599   4.740   4.485   0.219 -0.0917 -0.0271  0.3082
55921SOL    HW173600   4.771   4.468   0.130  0.4067 -2.2902  0.8453
55921SOL    HW273601   4.786   4.421   0.273 -0.0375  1.5625  2.2967
55922SOL     OW73602   6.830   5.946  11.090  0.2727  0.1271 -0.2414
55922SOL    HW173603   6.807   6.023  11.039  1.0089  1.6075  1.5769
55922SOL    HW273604   6.760   5.884  11.072 -1.3618  1.9094 -0.3131
55923SOL     OW73605   4.959   8.463   2.516 -0.4223 -0.2215  0.0420
55923SOL    HW173606   4.900   8.536   2.497 -0.1096  0.0141 -0.0177
55923SOL    HW273607   4.918   8.419   2.591 -0.0416  0.6681  0.7867
55924SOL     OW73608   1.037   3.958   1.551 -0.4139  0.0416  0.1416
55924SOL    HW173609   0.976   3.991   1.617 -1.0635 -0.3740 -0.2312
55924SOL    HW273610   1.094   3.898   1.598 -1.6719 -1.2259  0.1125
55925SOL     OW73611  10.292   0.731   6.077  0.3504 -0.0515 -0.4149
55925SOL    HW173612  10.355   0.666   6.107  1.1221  0.0045 -1.8307
55925SOL    HW273613  10.207   0.690   6.092  0.7965 -1.0606 -0.5644
55926SOL     OW73614   5.856   9.608   2.737 -0.2740 -0.1457  0.3100
55926SOL    HW173615   5.807   9.690   2.743  0.4268  0.3656 -0.7722
55926SOL    HW273616   5.806   9.554   2.675 -0.7113 -0.5425  0.9875
55927SOL     OW73617  12.129  10.046  11.246  0.2361 -0.1796 -0.2093
55927SOL    HW173618  12.042  10.060  11.283 -0.4299 -0.2495 -1.6942
55927SOL    HW273619  12.155   9.960  11.276 -0.2931 -0.2373  0.0913
55928SOL     OW73620  10.178   7.710   9.386  0.2998 -0.0638 -0.3892
55928SOL    HW173621  10.111   7.773   9.359 -1.4013 -1.2177  0.8786
55928SOL    HW273622  10.261   7.754   9.369 -0.7982  2.0797 -0.5348
55929SOL     OW73623   6.189   2.892   6.300  0.0342 -0.3922  0.6565
55929SOL    HW173624   6.192   2.848   6.215 -1.4752  1.1053 -0.2463
55929SOL    HW273625   6.248   2.842   6.356  0.9232 -1.5302 -1.2207
55930SOL     OW73626   7.164   4.349  11.730  0.1091 -0.8566 -0.1079
55930SOL    HW173627   7.194   4.265  11.695  0.5745 -0.5786 -0.3874
55930SOL    HW273628   7.124   4.394  11.656  0.4717 -0.5553 -0.1282
55931SOL     OW73629   1.851  10.608   0.941 -0.0338  0.2186 -0.3738
55931SOL    HW173630   1.819  10.631   1.028  2.1783  0.8230  0.3414
55931SOL    HW273631   1.917  10.675   0.921  1.0533 -1.1335 -1.5594
55932SOL     OW73632   4.380   6.198   9.830 -0.3553 -0.2857 -0.3515
55932SOL    HW173633   4.313   6.204   9.762 -0.4379 -1.5935 -0.4160
55932SOL    HW273634   4.463   6.210   9.784 -0.4246 -0.9632 -0.6744
55933SOL     OW73635   6.897   7.500   6.901 -0.5252 -0.3877  0.0700
55933SOL    HW173636   6.990   7.490   6.924 -0.8800  0.8123  2.2308
55933SOL    HW273637   6.895   7.577   6.844 -0.0015 -1.6090 -1.6840
55934SOL     OW73638   9.067   7.915  11.694  0.0624 -0.1625  0.0395
55934SOL    HW173639   9.020   7.924  11.611 -0.1853  0.3994  0.2332
55934SOL    HW273640   8.999   7.923  11.761  0.2370 -0.7811  0.2960
55935SOL     OW73641  10.286   4.384   1.992 -0.1094 -0.4557 -0.0988
55935SOL    HW173642  10.256   4.338   2.070 -0.6933 -0.7022 -0.4562
55935SOL    HW273643  10.205   4.402   1.943  0.1344  0.6987 -0.1057
55936SOL     OW73644   7.614   7.495  10.855 -0.3978 -0.5793  0.0741
55936SOL    HW173645   7.677   7.455  10.795  1.3129  0.7890  0.8524
55936SOL    HW273646   7.636   7.459  10.941  1.3295  2.0304  0.8266
55937SOL     OW73647  12.324   7.513  12.299  0.2552  0.4659 -0.1866
55937SOL    HW173648  12.252   7.458  12.330  1.3136 -0.7675  0.1681
55937SOL    HW273649  12.398   7.488  12.354  1.7197 -0.4077 -2.4312
55938SOL     OW73650   2.653   3.854  11.885 -0.3195 -0.4712  0.2997
55938SOL    HW173651   2.586   3.890  11.828  0.8175  0.0278 -0.7738
55938SOL    HW273652   2.626   3.764  11.901  0.2080 -1.2184 -2.5191
55939SOL     OW73653   4.678   4.881   0.062 -0.0385 -0.5820  0.2214
55939SOL    HW173654   4.691   4.872  -0.033  1.7588  1.1892  0.2505
55939SOL    HW273655   4.663   4.791   0.092 -1.1377 -1.1291 -1.7778
55940SOL     OW73656   6.043  12.276   3.128 -0.4079 -0.2028 -0.3130
55940SOL    HW173657   6.105  12.228   3.074 -0.2545 -0.3623  0.0036
55940SOL    HW273658   6.096  12.341   3.174 -0.6943  0.6234 -1.1394
55941SOL     OW73659   7.133  10.631   7.851 -0.0934  0.2875  0.3662
55941SOL    HW173660   7.081  10.551   7.847 -0.1543  0.3412  0.1020
55941SOL    HW273661   7.196  10.614   7.922  0.0153 -0.0663  0.1877
55942SOL     OW73662   7.629   0.366   2.106 -0.2869 -0.3465 -0.1565
55942SOL    HW173663   7.569   0.305   2.063 -1.2087  0.2358  0.2763
55942SOL    HW273664   7.601   0.453   2.078  0.2377 -0.0551  0.1964
55943SOL     OW73665   4.223   6.407   8.544  0.1711  0.0377 -0.2760
55943SOL    HW173666   4.163   6.444   8.479  0.4639  1.9993  0.4867
55943SOL    HW273667   4.309   6.410   8.502  0.2080  0.3456 -0.1836
55944SOL     OW73668  11.142   7.172   2.428  0.1642  0.1065  0.0997
55944SOL    HW173669  11.070   7.128   2.472 -0.8505  2.3446  0.8131
55944SOL    HW273670  11.144   7.133   2.341 -0.9701 -0.9987  0.5421
55945SOL     OW73671  10.071   8.270  10.566 -0.0037  1.1884  0.3969
55945SOL    HW173672  10.066   8.182  10.602 -0.3172  1.1285  0.2183
55945SOL    HW273673  10.135   8.315  10.620  1.2087  0.4524 -0.3738
55946SOL     OW73674   0.172   5.307   6.385 -0.6728  0.3347 -0.3551
55946SOL    HW173675   0.115   5.350   6.321  0.9421  0.8112 -1.5540
55946SOL    HW273676   0.220   5.380   6.426 -0.8338 -0.0559  0.5386
55947SOL     OW73677   7.283  10.510   3.763  0.5127  0.0414 -0.2267
55947SOL    HW173678   7.350  10.448   3.734  0.5038 -0.2140  0.2872
55947SOL    HW273679   7.309  10.533   3.852 -1.2593 -1.7795  0.8486
55948SOL     OW73680   1.906  10.699   6.833 -0.0276  0.0385  0.5844
55948SOL    HW173681   1.921  10.690   6.927  1.6010 -2.0069  0.2061
55948SOL    HW273682   1.817  10.667   6.820  0.1835 -0.8865  1.2934
55949SOL     OW73683   9.299   7.746   5.130  0.8144  0.7565 -0.2329
55949SOL    HW173684   9.215   7.771   5.092  0.3238  0.7754  0.8046
55949SOL    HW273685   9.343   7.830   5.147  0.6885  0.7855 -0.0388
55950SOL     OW73686   0.100   3.845   8.648  0.2156  0.1113 -0.1074
55950SOL    HW173687   0.168   3.799   8.698  0.9998  1.0373 -0.2844
55950SOL    HW273688   0.049   3.891   8.714 -1.0383 -1.5554  0.1403
55951SOL     OW73689   3.693   5.641   8.550 -0.5648 -0.3006 -0.8667
55951SOL    HW173690   3.759   5.605   8.490 -0.3063 -1.9184  0.3404
55951SOL    HW273691   3.688   5.734   8.526  2.6236  0.0745 -0.5981
55952SOL     OW73692   6.392   7.795  10.604  0.1209  0.0352 -0.0502
55952SOL    HW173693   6.404   7.889  10.614 -0.8991  0.1299  0.4295
55952SOL    HW273694   6.322   7.786  10.539 -1.6197 -0.2913  1.7678
55953SOL     OW73695   2.538  11.939   9.265  0.2768 -0.0212  0.0590
55953SOL    HW173696   2.447  11.961   9.287 -0.2832 -0.8689 -1.2735
55953SOL    HW273697   2.550  11.973   9.177  0.7006 -1.3838 -0.4323
55954SOL     OW73698   1.025  10.697  10.475  0.4085  0.5557 -0.6176
55954SOL    HW173699   0.968  10.659  10.542  0.4304  1.2550 -0.1942
55954SOL    HW273700   1.103  10.641  10.476  0.0670  0.0725 -0.6393
55955SOL     OW73701   8.152   1.562   8.351  0.4827 -0.8189  0.3697
55955SOL    HW173702   8.084   1.534   8.413 -1.5487  1.8371 -0.4597
55955SOL    HW273703   8.200   1.630   8.397  0.8911 -0.8949  0.0574
55956SOL     OW73704   4.550  11.133   0.119  0.7999  0.0567  0.2073
55956SOL    HW173705   4.598  11.061   0.078  1.8612 -0.0680  1.6014
55956SOL    HW273706   4.461  11.124   0.087  1.1594 -1.2062 -0.5015
55957SOL     OW73707   4.385   4.061   3.976  0.4696  0.2023  0.1900
55957SOL    HW173708   4.326   3.998   3.935 -1.5292  1.9623  0.2137
55957SOL    HW273709   4.457   4.071   3.914  0.2648 -1.2430 -0.3087
55958SOL     OW73710   5.097   6.609   4.323  0.1544  0.3460 -0.5695
55958SOL    HW173711   5.084   6.595   4.229 -0.0981  0.1561 -0.5071
55958SOL    HW273712   5.081   6.702   4.335  1.1657  0.5703 -0.8726
55959SOL     OW73713   4.350   2.362   3.889  0.0226 -0.1154  0.2278
55959SOL    HW173714   4.391   2.429   3.943 -0.8603  1.4210 -0.9076
55959SOL    HW273715   4.297   2.310   3.950  0.3143  0.5449  1.0555
55960SOL     OW73716   8.426   5.294   4.024  0.2834  0.2854  0.2538
55960SOL    HW173717   8.452   5.306   4.116  1.8223  1.7411 -0.3308
55960SOL    HW273718   8.487   5.229   3.990 -0.8864 -0.9706  0.4644
55961SOL     OW73719   4.662  10.291   7.505 -0.1807 -0.2434  0.2065
55961SOL    HW173720   4.609  10.222   7.545  2.4527 -2.1514  0.6565
55961SOL    HW273721   4.621  10.373   7.534 -3.7552 -1.4982 -0.7960
55962SOL     OW73722   5.001   1.445   7.056 -0.9350  0.2250  0.2579
55962SOL    HW173723   5.051   1.363   7.049  1.0199  1.4115 -0.2455
55962SOL    HW273724   5.004   1.466   7.149 -2.0642 -0.5946  0.5114
55963SOL     OW73725   7.289   4.063   2.957  0.2333 -0.0035 -0.0496
55963SOL    HW173726   7.325   4.104   3.036  1.3234  2.2446 -1.5889
55963SOL    HW273727   7.255   4.136   2.905 -0.4715 -1.3942 -1.6662
55964SOL     OW73728   2.416   3.375   5.539  0.1552 -0.1809  0.4038
55964SOL    HW173729   2.460   3.310   5.485  2.1803  0.4860  1.1585
55964SOL    HW273730   2.323   3.363   5.520  0.6158 -1.8300 -1.0744
55965SOL     OW73731   7.809   5.865   0.291 -0.1084  0.4650 -0.0959
55965SOL    HW173732   7.875   5.798   0.277 -0.6222  0.1163 -0.9267
55965SOL    HW273733   7.859   5.944   0.313  0.5973  0.2533 -0.8848
55966SOL     OW73734   7.004   5.662  11.962 -0.2095 -0.3268  0.5000
55966SOL    HW173735   7.043   5.632  12.043  1.4033 -1.0858 -0.5161
55966SOL    HW273736   6.912   5.679  11.984  0.7144  1.9540  3.0807
55967SOL     OW73737   4.931   0.137  11.778 -0.1176  0.4276 -0.7625
55967SOL    HW173738   4.929   0.232  11.777 -1.7301  0.4271 -0.2434
55967SOL    HW273739   4.873   0.112  11.850  0.1469 -0.9486 -0.9934
55968SOL     OW73740  10.908   5.865   1.954 -0.6522  0.0978 -0.0267
55968SOL    HW173741  10.986   5.913   1.980 -1.7394  2.4336 -0.7635
55968SOL    HW273742  10.938   5.807   1.884  0.5321  0.4827  0.1437
55969SOL     OW73743  12.207   9.762  11.327  0.2064 -0.1451 -0.6762
55969SOL    HW173744  12.178   9.675  11.302  1.3920 -0.6041 -0.5273
55969SOL    HW273745  12.175   9.774  11.416  1.9316 -1.3717  0.1623
55970SOL     OW73746   4.255   3.847   9.549 -0.4075 -0.7637 -0.1181
55970SOL    HW173747   4.251   3.925   9.605  2.8266 -0.4843 -0.0942
55970SOL    HW273748   4.232   3.774   9.606  1.3737 -0.3166  1.2432
55971SOL     OW73749   5.875  11.298   6.134 -0.0076 -0.4423 -0.6116
55971SOL    HW173750   5.791  11.309   6.178 -0.5179 -3.7047 -0.5307
55971SOL    HW273751   5.889  11.203   6.133  2.5924 -0.1379 -2.6804
55972SOL     OW73752   3.005   8.112   1.830 -0.5695  0.1352 -0.0555
55972SOL    HW173753   2.961   8.189   1.793  0.2954 -0.1117 -1.6939
55972SOL    HW273754   3.017   8.054   1.755  0.9616 -0.5648  0.7021
55973SOL     OW73755   6.034  12.272   0.034 -0.0418  0.6121 -0.1232
55973SOL    HW173756   5.948  12.311   0.041 -0.0032  0.5272  1.2021
55973SOL    HW273757   6.091  12.330   0.085  0.4129 -0.0442  0.1323
55974SOL     OW73758   6.615   5.342  11.155 -0.2850 -0.5797  0.8871
55974SOL    HW173759   6.642   5.318  11.243  2.5330  0.2836  0.3563
55974SOL    HW273760   6.631   5.436  11.149  0.8151 -0.8221 -0.8844
55975SOL     OW73761   1.324  12.194   5.969  0.5749 -0.3076 -0.2172
55975SOL    HW173762   1.325  12.211   6.064 -2.0515 -0.6430 -0.0599
55975SOL    HW273763   1.254  12.131   5.957 -1.6671  2.3811 -2.7411
55976SOL     OW73764   8.685   7.925   3.257  0.1637 -0.1757  0.2170
55976SOL    HW173765   8.635   7.918   3.338  0.1659  1.9590  0.4745
55976SOL    HW273766   8.776   7.914   3.284  0.0585 -1.0531  0.2335
55977SOL     OW73767   1.130   9.830   2.836 -0.0000 -0.0390 -0.6084
55977SOL    HW173768   1.224   9.848   2.839  0.0382 -0.3124  0.0395
55977SOL    HW273769   1.121   9.742   2.873 -0.4270 -0.3649 -1.4625
55978SOL     OW73770   6.341   6.298   8.360 -0.3167  0.3225 -0.2964
55978SOL    HW173771   6.378   6.295   8.271  0.7866  0.7463  0.1369
55978SOL    HW273772   6.394   6.363   8.406 -0.5006 -0.3154  0.8482
55979SOL     OW73773   9.221   5.636   7.912  0.5771 -0.1622  0.4297
55979SOL    HW173774   9.249   5.691   7.985  0.3681  1.6769 -0.8051
55979SOL    HW273775   9.225   5.547   7.946  0.0903  0.6517  2.8029
55980SOL     OW73776   1.875   8.554   8.608  0.6090  0.5569  0.4296
55980SOL    HW173777   1.810   8.568   8.676  0.6612 -2.1270  1.1297
55980SOL    HW273778   1.953   8.599   8.640  0.5345 -0.3663  2.0108
55981SOL     OW73779   5.900  11.578   2.042 -0.5784 -0.1687 -0.0341
55981SOL    HW173780   5.929  11.665   2.069  0.5142 -0.6280  0.3344
55981SOL    HW273781   5.815  11.593   2.001 -0.9463  0.9197  1.0709
55982SOL     OW73782   7.613  11.406   5.150 -0.1106  0.2540  0.0087
55982SOL    HW173783   7.613  11.402   5.246  2.4823  3.1427  0.2928
55982SOL    HW273784   7.695  11.363   5.124  0.4514  1.6498 -0.6470
55983SOL     OW73785   6.565   7.758   6.646 -0.2133 -0.3625 -0.1297
55983SOL    HW173786   6.480   7.734   6.685  0.4600 -0.5315  1.3110
55983SOL    HW273787   6.629   7.738   6.715  0.8987  0.6898 -0.8237
55984SOL     OW73788   3.594   4.136   1.775  0.3180 -0.3826  0.4806
55984SOL    HW173789   3.522   4.136   1.712 -0.2762 -0.0531  1.1453
55984SOL    HW273790   3.669   4.105   1.725 -0.4411 -1.4286 -0.0508
55985SOL     OW73791   8.274   5.650   3.936  0.1483  0.1963  0.2566
55985SOL    HW173792   8.323   5.585   3.986 -1.5992 -1.2502  0.2040
55985SOL    HW273793   8.270   5.726   3.994  2.1557  0.2716  0.3555
55986SOL     OW73794   8.293   8.032   5.363  0.0408 -0.8903 -0.2520
55986SOL    HW173795   8.314   8.126   5.354 -0.0199 -0.8068  0.4874
55986SOL    HW273796   8.333   7.992   5.285 -0.3145 -0.1893 -0.8044
55987SOL     OW73797   1.884   2.677   4.216  0.3724 -0.4159 -0.6992
55987SOL    HW173798   1.800   2.634   4.202  0.0409  0.1786 -0.5591
55987SOL    HW273799   1.945   2.605   4.236 -0.0141 -0.8854 -1.1792
55988SOL     OW73800   3.481   9.943   5.822  0.1325 -0.1924  0.2765
55988SOL    HW173801   3.407   9.920   5.879 -0.7276  1.7863  0.0211
55988SOL    HW273802   3.444   9.944   5.734  0.9328 -0.9874 -0.0910
55989SOL     OW73803   9.775   3.229   1.433  0.0638 -0.0210  0.0988
55989SOL    HW173804   9.707   3.202   1.494 -1.7811 -0.3823 -2.0057
55989SOL    HW273805   9.851   3.176   1.458 -0.8861 -0.8295  1.4582
55990SOL     OW73806   4.559   9.450   8.849 -0.0279  0.2135  0.3038
55990SOL    HW173807   4.485   9.448   8.911 -0.7552  0.1097 -0.5466
55990SOL    HW273808   4.577   9.358   8.831  0.1402  0.2448  0.3155
55991SOL     OW73809   8.493   5.425   3.377  0.5155 -0.3748  0.0166
55991SOL    HW173810   8.457   5.425   3.288 -0.1591 -3.4612  0.1945
55991SOL    HW273811   8.586   5.446   3.365  0.2835 -0.0393 -1.3303
55992SOL     OW73812   8.782   6.729   1.424 -0.4137 -0.2780  0.3532
55992SOL    HW173813   8.750   6.709   1.336 -0.7749  0.5626  0.2810
55992SOL    HW273814   8.826   6.649   1.453 -1.6367 -1.0919  0.0235
55993SOL     OW73815  10.273   6.587   6.202 -0.2525 -0.0177 -0.2147
55993SOL    HW173816  10.285   6.529   6.278 -2.2082 -1.1329 -0.6880
55993SOL    HW273817  10.205   6.648   6.230 -1.5443 -0.9174 -1.2755
55994SOL     OW73818   5.982  11.839   4.013 -0.4638  0.1047  0.4352
55994SOL    HW173819   6.000  11.932   4.028 -0.0889  0.0512  0.3266
55994SOL    HW273820   5.985  11.829   3.918 -2.2160  0.3144  0.3171
55995SOL     OW73821  12.019   7.363   4.786  0.0167 -0.0635  0.2943
55995SOL    HW173822  12.108   7.341   4.757 -0.1718 -0.4421 -0.0010
55995SOL    HW273823  11.969   7.372   4.705  0.1868  1.9450  0.3519
55996SOL     OW73824   1.677   0.248   0.268  0.0457 -0.1990 -0.1817
55996SOL    HW173825   1.634   0.172   0.308  0.2629  0.1101  0.6751
55996SOL    HW273826   1.755   0.262   0.322 -0.4176  1.1172  0.1853
55997SOL     OW73827   4.105   6.128   3.630  0.5419  0.1941  0.2777
55997SOL    HW173828   4.088   6.221   3.615  0.1676  0.2180  0.8412
55997SOL    HW273829   4.186   6.127   3.681  0.5950  0.2011  0.1950
55998SOL     OW73830   6.199   8.831   1.384 -0.3900 -0.2166  0.0401
55998SOL    HW173831   6.244   8.904   1.340  2.1182 -1.2902  0.6790
55998SOL    HW273832   6.165   8.778   1.312 -1.0048  0.8114 -0.4555
55999SOL     OW73833   1.253  11.105   9.027  0.3054  0.6171  0.4291
55999SOL    HW173834   1.302  11.155   8.961  0.1197  0.9363  0.5327
55999SOL    HW273835   1.188  11.167   9.060  0.2518  0.3870  0.7513
56000SOL     OW73836   2.258   8.036   5.765 -0.1837  0.1025  0.2674
56000SOL    HW173837   2.324   8.088   5.719 -1.0743  2.6474  1.6865
56000SOL    HW273838   2.175   8.080   5.746 -1.3030 -2.0021 -0.0506
56001SOL     OW73839   1.056   9.435   9.480 -0.4911  0.0093  0.4154
56001SOL    HW173840   0.979   9.378   9.473  0.1290 -0.6678 -1.4969
56001SOL    HW273841   1.074   9.463   9.391  0.5171  1.5030  1.0493
56002SOL     OW73842   5.922   7.905  11.440 -0.1501  0.4505 -0.1679
56002SOL    HW173843   5.872   7.827  11.415  1.3042 -1.1230  1.5361
56002SOL    HW273844   6.004   7.897  11.391 -0.0767  1.0326 -0.1439
56003SOL     OW73845   4.754   8.484   9.010  0.0847  0.0988 -0.3791
56003SOL    HW173846   4.765   8.408   8.953 -0.9428 -0.4145  0.0855
56003SOL    HW273847   4.667   8.473   9.049  0.2213  1.1306  0.2585
56004SOL     OW73848   9.359   3.915   0.313  0.0248 -0.3064 -0.9168
56004SOL    HW173849   9.293   3.984   0.300 -0.8847 -0.8967  0.3943
56004SOL    HW273850   9.342   3.852   0.243 -1.7587 -1.1462  0.2124
56005SOL     OW73851   9.146   9.837   2.949  0.5897  0.1581  0.2337
56005SOL    HW173852   9.156   9.928   2.922 -1.3429  0.6186  0.8836
56005SOL    HW273853   9.183   9.785   2.878  0.7507  1.4391 -0.6318
56006SOL     OW73854   4.515  12.068   0.091  0.7569  0.1181 -0.1304
56006SOL    HW173855   4.524  12.030   0.178  2.1423  0.5718 -0.0538
56006SOL    HW273856   4.499  12.161   0.106 -0.7950 -0.0885 -0.3504
56007SOL     OW73857   6.289   1.718   4.977 -0.0749  0.1928 -0.2426
56007SOL    HW173858   6.236   1.639   4.991 -0.2598  0.2975 -0.3534
56007SOL    HW273859   6.225   1.788   4.967 -0.0489  1.2834  4.5589
56008SOL     OW73860   6.080   3.867   9.696 -0.3176 -0.4257  0.3764
56008SOL    HW173861   6.046   3.956   9.685 -0.5212 -0.6276 -0.7282
56008SOL    HW273862   6.164   3.879   9.741  0.0506  0.3944 -0.4947
56009SOL     OW73863   8.547   1.366   1.964 -0.3381 -0.3793 -0.2669
56009SOL    HW173864   8.473   1.358   1.903 -1.5774  1.4019  0.8787
56009SOL    HW273865   8.593   1.283   1.957 -2.6302 -1.6969 -0.8439
56010SOL     OW73866  10.120   3.766   0.005 -0.0210  0.0344 -0.0829
56010SOL    HW173867  10.192   3.819  -0.030  0.1971 -0.4733 -0.4153
56010SOL    HW273868  10.139   3.759   0.098 -0.0069  0.4708 -0.0493
56011SOL     OW73869   8.145   4.286   4.810 -0.6472  0.0129  0.0439
56011SOL    HW173870   8.174   4.365   4.764 -0.6253  0.6586  1.1445
56011SOL    HW273871   8.050   4.297   4.818 -0.7370 -0.4004 -0.3825
56012SOL     OW73872   0.396   9.505   5.086  0.0965  0.0404 -0.8072
56012SOL    HW173873   0.311   9.497   5.044 -0.2750  0.8256 -0.2433
56012SOL    HW273874   0.445   9.427   5.059 -1.8162 -2.0120  1.2254
56013SOL     OW73875   1.874   3.439   1.898 -0.1023 -0.3163  0.5008
56013SOL    HW173876   1.906   3.518   1.855  0.0181 -0.3221  0.5799
56013SOL    HW273877   1.788   3.464   1.932 -0.0071 -0.1776  0.6443
56014SOL     OW73878  11.631   8.931   3.873  0.1218  0.3573  0.0321
56014SOL    HW173879  11.720   8.927   3.908  0.1482  2.3710  0.3371
56014SOL    HW273880  11.620   9.022   3.845 -2.6435  0.8719  2.2930
56015SOL     OW73881   2.157   5.893   8.463  0.5671 -0.3877 -0.1845
56015SOL    HW173882   2.177   5.800   8.453  0.1217 -0.5761  0.6125
56015SOL    HW273883   2.067   5.895   8.494  0.2149  0.3571 -1.1995
56016SOL     OW73884   9.617   1.924   7.875 -0.6910  0.0247  0.0258
56016SOL    HW173885   9.584   2.012   7.893 -0.7595 -0.0495  0.2599
56016SOL    HW273886   9.687   1.938   7.811  0.5624  0.4525  1.4344
56017SOL     OW73887  10.450   9.678   1.235  0.7907  0.1415 -0.3550
56017SOL    HW173888  10.386   9.626   1.283  1.9735 -0.9575  0.0733
56017SOL    HW273889  10.442   9.766   1.272  0.1854 -0.1846  0.3242
56018SOL     OW73890  11.932   9.766   2.290 -0.5194 -0.5771  0.3245
56018SOL    HW173891  11.929   9.825   2.365  0.8058  1.2385 -0.9891
56018SOL    HW273892  11.999   9.701   2.313 -0.0649  0.0101  0.6616
56019SOL     OW73893   8.767   3.632   2.250  0.4800  0.0370  0.7793
56019SOL    HW173894   8.772   3.618   2.344 -1.2651 -0.4107  0.8469
56019SOL    HW273895   8.687   3.587   2.223  1.5394 -0.8555 -1.1220
56020SOL     OW73896   9.387   8.858  11.995 -0.0018 -0.2342  0.3863
56020SOL    HW173897   9.417   8.946  11.969  0.2427 -0.2614  0.5778
56020SOL    HW273898   9.312   8.842  11.938  0.3738 -0.1872 -0.1387
56021SOL     OW73899  10.304   8.214   3.840  0.1085 -0.3222  0.4182
56021SOL    HW173900  10.209   8.200   3.836 -0.0132  0.4706  0.3376
56021SOL    HW273901  10.325   8.212   3.933  0.1769 -1.4981  0.3871
56022SOL     OW73902   5.243  11.433   5.870  0.2592  0.7654 -0.1347
56022SOL    HW173903   5.229  11.355   5.925  1.0235  1.3165  0.8782
56022SOL    HW273904   5.155  11.471   5.860 -0.0174  0.1622 -0.0436
56023SOL     OW73905  10.840   0.327   7.981 -0.1740 -0.1978 -0.0287
56023SOL    HW173906  10.855   0.417   7.954 -1.2677  0.4127  1.2733
56023SOL    HW273907  10.746   0.312   7.966  0.3704 -1.8451 -2.1992
56024SOL     OW73908   4.959  12.247   8.306  0.4031 -0.4537  0.8264
56024SOL    HW173909   5.048  12.253   8.341  0.9863 -1.3162 -0.4552
56024SOL    HW273910   4.924  12.336   8.316  1.2815 -0.1770  1.6358
56025SOL     OW73911   5.061   8.324  12.213  0.2532  0.5271  0.1867
56025SOL    HW173912   4.977   8.371  12.217  0.1257  0.2725  0.6368
56025SOL    HW273913   5.098   8.335  12.301  1.8934  2.8058 -0.6895
56026SOL     OW73914   2.061   6.209   9.866  0.5334 -0.1816 -0.4950
56026SOL    HW173915   2.010   6.280   9.905 -0.8239 -2.0576  1.3488
56026SOL    HW273916   2.127   6.254   9.812  0.5198  2.4970  1.5102
56027SOL     OW73917   5.154   9.537  10.728  0.0136 -0.2538  0.4896
56027SOL    HW173918   5.163   9.624  10.690 -2.4695 -0.4496 -0.7994
56027SOL    HW273919   5.193   9.544  10.815  0.2250  2.0281  0.2739
56028SOL     OW73920   8.905   1.746   8.286  0.1261 -0.1500 -0.4546
56028SOL    HW173921   8.965   1.808   8.329  0.0003 -0.3280 -0.0220
56028SOL    HW273922   8.872   1.691   8.357  0.0090 -0.5261 -0.7983
56029SOL     OW73923  11.936   5.456   4.570 -0.3097  0.8775 -0.1429
56029SOL    HW173924  11.974   5.435   4.484 -1.6090 -0.6104 -0.4020
56029SOL    HW273925  11.842   5.451   4.556 -0.5779 -1.9876  1.9091
56030SOL     OW73926   8.398   7.222   2.130  0.4243 -0.3638  0.0575
56030SOL    HW173927   8.330   7.156   2.121  1.1476 -1.5293  2.2364
56030SOL    HW273928   8.352   7.303   2.152 -0.3916 -0.3965 -1.4309
56031SOL     OW73929   1.341  10.996   5.420 -0.1081  0.3574 -0.1177
56031SOL    HW173930   1.321  10.910   5.458  0.6153  0.1038 -0.2901
56031SOL    HW273931   1.304  11.059   5.481  0.5859 -0.0573  0.7393
56032SOL     OW73932   2.881  10.974   3.823 -0.0085  0.0331 -0.0906
56032SOL    HW173933   2.822  11.003   3.754  0.7454 -0.2880 -0.9026
56032SOL    HW273934   2.849  10.887   3.848 -0.8825  0.5606  0.7007
56033SOL     OW73935   3.308   2.620   2.293  0.4166 -0.2537 -0.9378
56033SOL    HW173936   3.367   2.559   2.337 -0.2621 -0.1282  0.1947
56033SOL    HW273937   3.222   2.601   2.331 -0.2754 -0.3833 -2.4972
56034SOL     OW73938   4.483  11.232  11.747  0.4218 -0.1821  0.4367
56034SOL    HW173939   4.537  11.154  11.734  0.9025 -0.0506  1.5403
56034SOL    HW273940   4.538  11.304  11.715  0.4528 -0.1759  0.5023
56035SOL     OW73941   7.428   6.651   6.852  0.0332  0.3406 -0.0283
56035SOL    HW173942   7.365   6.685   6.789  0.4058 -1.9886 -1.7565
56035SOL    HW273943   7.507   6.635   6.801  0.9372  0.0283  1.4062
56036SOL     OW73944   6.979   9.175   1.475  0.0812  0.0092 -0.5670
56036SOL    HW173945   7.044   9.190   1.407  0.0925  1.7355 -0.2359
56036SOL    HW273946   7.028   9.181   1.557 -0.3924  0.9006 -0.3274
56037SOL     OW73947  10.318   5.287   2.651  0.3569 -0.1470  0.1328
56037SOL    HW173948  10.288   5.198   2.667  1.9147 -0.5021  1.3218
56037SOL    HW273949  10.350   5.286   2.561  1.0834 -1.0232  0.3844
56038SOL     OW73950   2.979   6.968   7.665 -0.2719  0.0699  0.6076
56038SOL    HW173951   3.075   6.965   7.656 -0.3702 -1.5786 -0.3513
56038SOL    HW273952   2.954   6.876   7.675 -1.8592  0.3679 -0.3901
56039SOL     OW73953   3.008   2.319   1.581 -0.0123 -0.3443 -0.7446
56039SOL    HW173954   2.997   2.280   1.668  0.2073 -1.5429 -1.2398
56039SOL    HW273955   2.976   2.253   1.520  1.9620 -0.4824 -1.7130
56040SOL     OW73956  11.833   5.007   4.739 -0.4409  0.2122 -0.2035
56040SOL    HW173957  11.894   4.944   4.777  1.9450  0.2598 -3.4920
56040SOL    HW273958  11.827   5.077   4.804 -0.3394 -1.7181  1.9915
56041SOL     OW73959  10.806   9.391   4.030  0.7081  0.2168  0.5944
56041SOL    HW173960  10.821   9.320   3.967  0.7759 -1.8615  2.7803
56041SOL    HW273961  10.713   9.411   4.021  1.0081  0.9678 -1.1039
56042SOL     OW73962   0.467   8.933   9.788  0.3949  0.2693  0.2091
56042SOL    HW173963   0.503   8.863   9.842 -0.1372 -1.4277 -1.5282
56042SOL    HW273964   0.395   8.892   9.740 -0.2802  2.1517 -0.4984
56043SOL     OW73965   2.609   5.294   4.279 -0.2582 -0.2956 -0.0543
56043SOL    HW173966   2.672   5.349   4.325 -0.4212 -0.4232  0.3255
56043SOL    HW273967   2.539   5.278   4.342  0.6209 -2.3990  0.4883
56044SOL     OW73968  11.726   6.429   2.382  0.0088  0.4081  0.3643
56044SOL    HW173969  11.668   6.412   2.456  1.3036 -1.0156  1.1013
56044SOL    HW273970  11.814   6.419   2.418  0.6584 -1.2345 -1.5621
56045SOL     OW73971   6.133   7.695   7.980 -0.2202 -0.3437  0.1171
56045SOL    HW173972   6.217   7.732   7.952  0.4882 -2.2303 -0.4567
56045SOL    HW273973   6.090   7.765   8.028  1.8294  0.5844  0.7048
56046SOL     OW73974   8.203   3.013   6.396  0.6290 -0.1257 -0.6747
56046SOL    HW173975   8.200   3.015   6.492  0.8390 -0.5495 -0.6574
56046SOL    HW273976   8.115   3.041   6.369  0.4578 -0.3407 -0.3526
56047SOL     OW73977   0.358   3.983   9.591  0.5206 -0.1490  0.0314
56047SOL    HW173978   0.434   3.975   9.533  0.5295 -0.3549  0.0712
56047SOL    HW273979   0.384   4.050   9.654  1.1670 -1.0982  0.8044
56048SOL     OW73980   8.044   9.152  11.732 -0.5875 -0.2918 -0.1277
56048SOL    HW173981   7.964   9.138  11.783 -1.6027 -0.0856 -1.5926
56048SOL    HW273982   8.040   9.244  11.705  0.5727 -0.0499  0.4609
56049SOL     OW73983  12.291   9.168   6.649 -0.2426 -0.6219 -0.2868
56049SOL    HW173984  12.225   9.222   6.605 -0.9931 -0.1277  1.3591
56049SOL    HW273985  12.240   9.100   6.694  0.1959  0.4463  1.9690
56050SOL     OW73986  10.686   5.164  10.267  0.1270 -0.0910  0.1475
56050SOL    HW173987  10.758   5.203  10.218 -0.1228 -0.3840 -0.4676
56050SOL    HW273988  10.683   5.072  10.237 -0.9822  0.1076 -0.4299
56051SOL     OW73989   4.334   5.850  11.167 -0.2680 -0.6318  0.9277
56051SOL    HW173990   4.386   5.802  11.231  0.5998 -0.6666  0.2144
56051SOL    HW273991   4.273   5.786  11.132 -0.4699 -0.7114  1.4173
56052SOL     OW73992  12.180   1.343   4.604  0.0358 -0.3357 -0.4536
56052SOL    HW173993  12.204   1.397   4.680 -0.5703 -0.4053 -0.2113
56052SOL    HW273994  12.202   1.397   4.528 -0.0551  0.0335 -0.2198
56053SOL     OW73995  10.653   8.740   5.878 -0.8498 -0.1805 -0.4570
56053SOL    HW173996  10.629   8.649   5.863 -1.9857  0.1733 -0.8368
56053SOL    HW273997  10.580   8.777   5.928 -0.0631  0.3397  0.3569
56054SOL     OW73998   0.467   6.192   5.756 -0.0404 -0.1596  0.0610
56054SOL    HW173999   0.417   6.125   5.710 -0.5465  1.2436 -1.5505
56054SOL    HW274000   0.401   6.240   5.807 -0.4288  1.5936 -1.9439
56055SOL     OW74001   9.440  11.711  10.335 -0.0658 -0.2792 -0.0590
56055SOL    HW174002   9.462  11.664  10.416 -0.3238 -1.6812 -0.7743
56055SOL    HW274003   9.508  11.777  10.328  0.0293 -0.2029  1.2460
56056SOL     OW74004  12.225   4.788   9.197  0.0614  0.3019 -0.3166
56056SOL    HW174005  12.299   4.840   9.230  0.3363  0.5801 -1.3308
56056SOL    HW274006  12.258   4.749   9.117 -0.8142  0.1938 -0.6321
56057SOL     OW74007  11.268  11.361   6.228 -0.2611 -0.0168 -0.0766
56057SOL    HW174008  11.270  11.380   6.322 -1.6156  1.8280 -0.3635
56057SOL    HW274009  11.176  11.347   6.209  0.1589 -1.8871 -0.9069
56058SOL     OW74010   1.195  12.300   7.205 -0.0073 -0.3471 -0.4184
56058SOL    HW174011   1.255  12.279   7.134  0.3446 -2.8951  0.5287
56058SOL    HW274012   1.122  12.239   7.194 -1.5199  1.3905 -0.4206
56059SOL     OW74013   0.283  11.480   9.898  0.2325 -0.5123 -0.2622
56059SOL    HW174014   0.196  11.443   9.883  0.0898 -0.6552  0.8139
56059SOL    HW274015   0.336  11.444   9.827 -0.0439 -2.3660  0.3989
56060SOL     OW74016   5.561   5.886   7.957  0.1614  0.3597 -0.0669
56060SOL    HW174017   5.621   5.908   8.028 -1.3992  0.9788  1.1284
56060SOL    HW274018   5.551   5.791   7.962  0.1897  0.3821  0.4664
56061SOL     OW74019   7.821   5.925   9.958  0.4977  1.0462 -0.2438
56061SOL    HW174020   7.831   5.855  10.022  1.1669  1.1978 -0.1719
56061SOL    HW274021   7.765   5.888   9.890  2.1714 -0.1552 -1.0402
56062SOL     OW74022   4.967   7.570   3.962  0.0054 -0.2060 -0.1662
56062SOL    HW174023   5.027   7.602   3.894  2.1068  0.4952  1.9112
56062SOL    HW274024   4.897   7.636   3.965 -0.3081 -0.4185 -1.8163
56063SOL     OW74025   2.722   6.082   9.443 -0.2736 -0.8305  0.0829
56063SOL    HW174026   2.640   6.126   9.422 -0.3882 -0.1695  1.7867
56063SOL    HW274027   2.733   6.018   9.373 -1.5592 -0.0367 -0.8928
56064SOL     OW74028   5.190  10.768   7.132  0.3245 -0.4662 -0.2195
56064SOL    HW174029   5.103  10.786   7.169  0.2328 -0.9433 -0.1977
56064SOL    HW274030   5.248  10.830   7.176  0.1091 -0.6024  0.2669
56065SOL     OW74031   6.735   5.093  11.622  0.2976  0.4589 -0.2325
56065SOL    HW174032   6.765   5.013  11.665  0.5700  0.6957  0.0246
56065SOL    HW274033   6.779   5.163  11.670  0.8506  0.7149 -1.1038
56066SOL     OW74034   8.473   8.228  11.670 -0.2366  0.4479 -0.2063
56066SOL    HW174035   8.419   8.276  11.607 -0.8501 -1.4493 -1.1853
56066SOL    HW274036   8.426   8.237  11.753 -0.7659  0.8565 -0.5390
56067SOL     OW74037   1.215   8.638   5.995 -0.1552 -0.5722  0.2959
56067SOL    HW174038   1.281   8.662   6.059 -1.1235  2.3093  0.3545
56067SOL    HW274039   1.176   8.557   6.029  2.1250 -1.3833  1.1252
56068SOL     OW74040  11.098   3.923   7.298  0.7047  0.0886 -0.0376
56068SOL    HW174041  11.126   3.834   7.276  1.3030  0.1218  0.5593
56068SOL    HW274042  11.004   3.915   7.314  0.5240 -0.1994 -1.1816
56069SOL     OW74043   5.716   1.869   4.065 -0.3069  0.0617  0.4657
56069SOL    HW174044   5.623   1.887   4.051 -0.2825  0.4698  0.7951
56069SOL    HW274045   5.717   1.790   4.119 -0.4025 -1.3161 -1.4436
56070SOL     OW74046   5.676   6.672   9.481  0.1560  0.0439  0.2387
56070SOL    HW174047   5.626   6.687   9.401 -1.2536 -1.1348  0.8519
56070SOL    HW274048   5.664   6.579   9.500  0.1725  0.3666  1.9991
56071SOL     OW74049   5.373   3.882   0.095 -0.2422  0.1008 -0.3654
56071SOL    HW174050   5.314   3.929   0.154  0.5884  1.0962 -0.2965
56071SOL    HW274051   5.336   3.896   0.008 -0.2674  0.4990 -0.2953
56072SOL     OW74052   2.999  12.113   9.641  0.1506 -0.2719 -0.0384
56072SOL    HW174053   2.939  12.040   9.623  0.1059  0.5340 -4.3578
56072SOL    HW274054   3.076  12.095   9.585  2.4775  0.4907  2.6851
56073SOL     OW74055   7.117   5.083   0.938 -0.4244  0.1997 -0.4534
56073SOL    HW174056   7.193   5.028   0.919 -0.7904 -0.2060 -0.7638
56073SOL    HW274057   7.155   5.167   0.966  0.1418 -0.2574  0.2068
56074SOL     OW74058   6.805   5.950  11.417  0.3045  0.3403 -0.4651
56074SOL    HW174059   6.764   5.865  11.400  0.0856  0.3258  0.1135
56074SOL    HW274060   6.897   5.930  11.430 -0.1807 -0.3069  2.9563
56075SOL     OW74061   5.541   2.924   6.133 -0.3316 -0.0786  0.3097
56075SOL    HW174062   5.599   2.913   6.057  0.8210 -0.7607  1.2590
56075SOL    HW274063   5.557   3.013   6.163 -1.8987  0.7347 -1.0986
56076SOL     OW74064   3.623   6.075   9.202 -0.1491  0.8878 -0.1464
56076SOL    HW174065   3.668   6.002   9.161  1.2942  1.1286  0.9246
56076SOL    HW274066   3.538   6.080   9.157  1.5794  1.6815 -3.6864
56077SOL     OW74067   2.083   6.085   6.995  0.5581 -0.2748 -0.2625
56077SOL    HW174068   2.135   6.130   6.929 -0.6380  2.5290  0.5361
56077SOL    HW274069   2.077   6.148   7.068 -3.9626 -0.2625 -0.3604
56078SOL     OW74070   7.861   5.635   1.971  0.0255  0.2596  0.4370
56078SOL    HW174071   7.885   5.604   1.884  1.0871  1.8416  0.0987
56078SOL    HW274072   7.892   5.567   2.031  0.5664 -0.1981 -0.3493
56079SOL     OW74073   3.957   6.275   2.614  0.5310 -0.4059 -0.2084
56079SOL    HW174074   4.046   6.303   2.636  0.8126 -0.7388 -0.8771
56079SOL    HW274075   3.955   6.278   2.518 -0.1389 -0.5263 -0.2005
56080SOL     OW74076   9.731   7.695   6.429  0.1097  0.4362  0.4812
56080SOL    HW174077   9.732   7.742   6.346 -1.7257  0.7016  0.5585
56080SOL    HW274078   9.653   7.729   6.475 -0.6569 -1.8316  1.0142
56081SOL     OW74079   5.913   2.951  10.478 -0.3239  0.2045 -0.5794
56081SOL    HW174080   5.984   2.889  10.462  3.9458  3.0750  4.0686
56081SOL    HW274081   5.884   2.932  10.567 -1.5365  2.4414 -0.4163
56082SOL     OW74082  11.091   9.635  11.232  0.2467  0.7208 -0.1915
56082SOL    HW174083  11.082   9.730  11.230  0.5962  0.7541 -0.3094
56082SOL    HW274084  11.026   9.606  11.297  0.8620  1.1270  0.6308
56083SOL     OW74085   2.024   5.245   2.970 -0.0104  0.4623  0.0038
56083SOL    HW174086   2.022   5.185   3.044  0.1303  0.5027  0.0405
56083SOL    HW274087   2.115   5.274   2.965 -0.0959  0.7358  0.0357
56084SOL     OW74088   0.190   2.557   0.008 -0.1696 -0.2982 -0.2259
56084SOL    HW174089   0.284   2.545  -0.008 -0.1052  0.6679 -0.6503
56084SOL    HW274090   0.157   2.594  -0.074 -0.5332  1.2902  0.6058
56085SOL     OW74091   7.980   9.857  11.159  0.2426 -0.9856 -0.4474
56085SOL    HW174092   7.912   9.840  11.225 -0.1189  3.0539  0.4747
56085SOL    HW274093   8.060   9.819  11.197 -0.3091 -0.3190  1.4979
56086SOL     OW74094   5.854   2.765  10.978  0.2361  0.0739  0.2244
56086SOL    HW174095   5.881   2.701  11.043  0.4939  1.6954  1.7910
56086SOL    HW274096   5.936   2.804  10.946  0.0391  0.6891  0.4427
56087SOL     OW74097   7.306   1.271   2.927 -0.0459 -0.1502  0.5136
56087SOL    HW174098   7.346   1.354   2.953 -1.6802  1.4354 -1.6395
56087SOL    HW274099   7.275   1.232   3.008 -0.7905  2.2390  1.4688
56088SOL     OW74100  10.394   0.570   7.475  0.6859 -0.4871  0.3947
56088SOL    HW174101  10.375   0.626   7.550 -1.2364 -0.7814  0.1608
56088SOL    HW274102  10.312   0.565   7.427  1.5244 -1.4088 -1.0045
56089SOL     OW74103   7.092   5.498   4.169 -0.2722 -0.5348  0.0454
56089SOL    HW174104   7.015   5.467   4.120 -1.2789  0.2067  1.0902
56089SOL    HW274105   7.107   5.586   4.135 -0.2592 -0.4513  0.2719
56090SOL     OW74106   3.822   4.041  12.072  0.6214 -0.2528 -0.4154
56090SOL    HW174107   3.918   4.043  12.070  0.6352 -0.0754  0.2373
56090SOL    HW274108   3.800   4.014  12.161  0.0606  0.2599 -0.3872
56091SOL     OW74109   2.010   8.523   3.483 -0.7712  0.2870  0.3999
56091SOL    HW174110   1.978   8.451   3.536 -3.1704 -1.2179 -2.7471
56091SOL    HW274111   2.080   8.562   3.535 -0.4442 -3.2488  2.9727
56092SOL     OW74112   6.990   8.723   2.254 -0.7856  0.0990 -0.2157
56092SOL    HW174113   7.055   8.696   2.188 -0.1018  2.4336 -0.5983
56092SOL    HW274114   7.036   8.713   2.338 -0.5856 -0.0157 -0.3369
56093SOL     OW74115   0.628  10.068   7.438  0.0747 -0.1952 -0.2410
56093SOL    HW174116   0.707  10.018   7.456 -0.7549 -1.1104  0.9819
56093SOL    HW274117   0.648  10.156   7.470  0.3272 -0.6168  0.7855
56094SOL     OW74118   6.398   9.430   2.359 -0.5010  0.3556 -0.5563
56094SOL    HW174119   6.310   9.459   2.335  0.3836  2.4247 -1.5155
56094SOL    HW274120   6.454   9.467   2.291  0.9882 -2.1345 -0.7930
56095SOL     OW74121  10.267   0.951   6.573  0.0722  0.0566 -0.0155
56095SOL    HW174122  10.324   0.983   6.504  0.4093 -0.0525  0.2089
56095SOL    HW274123  10.179   0.964   6.540  0.1554  2.0126  0.4041
56096SOL     OW74124   3.117   2.264  10.399  0.6462  0.8133  0.3365
56096SOL    HW174125   3.160   2.343  10.365 -1.3093  1.8204  0.0887
56096SOL    HW274126   3.084   2.290  10.484 -0.6894  0.5295 -0.0778
56097SOL     OW74127   8.553   7.957  11.335  0.1566 -0.4452  0.8584
56097SOL    HW174128   8.481   7.974  11.396  0.2313 -0.4951  0.9636
56097SOL    HW274129   8.537   7.868  11.304 -0.5740  0.0250 -0.1606
56098SOL     OW74130  11.007   4.955   3.460 -0.8074 -0.6037  0.3070
56098SOL    HW174131  11.090   4.968   3.506 -0.6066 -0.4569 -0.0883
56098SOL    HW274132  10.980   4.866   3.484 -0.6073 -0.6014  0.5473
56099SOL     OW74133  12.070   6.328   5.254  0.1690  0.1492  0.1432
56099SOL    HW174134  12.044   6.332   5.162  0.4911  1.7061  0.1021
56099SOL    HW274135  12.118   6.409   5.269 -0.5401  0.2781  1.8942
56100SOL     OW74136   7.706   9.038   6.953  0.3048  0.1217 -0.1747
56100SOL    HW174137   7.698   9.016   6.861 -0.1456 -1.3874  0.1987
56100SOL    HW274138   7.746   9.125   6.954 -2.6498  1.6646 -1.8705
56101SOL     OW74139  11.793   0.873   6.036  0.2178 -0.0596 -0.3375
56101SOL    HW174140  11.762   0.964   6.029  0.1336  0.0199  0.8387
56101SOL    HW274141  11.761   0.844   6.122 -0.5785 -1.5236 -1.0893
56102SOL     OW74142   0.411   2.123   6.643  0.6278  0.7570 -0.4190
56102SOL    HW174143   0.374   2.209   6.622 -0.3698  0.7520  1.1200
56102SOL    HW274144   0.396   2.113   6.737  1.7927 -0.6084 -0.3447
56103SOL     OW74145   9.571   3.524   4.525 -0.1065  0.2490 -0.1899
56103SOL    HW174146   9.619   3.442   4.519  0.4681  0.6337 -1.1950
56103SOL    HW274147   9.635   3.587   4.559  0.1322  0.7618 -1.5212
56104SOL     OW74148  10.993   2.903   2.642 -0.0788 -0.3870  0.0262
56104SOL    HW174149  11.020   2.992   2.618  0.1355 -0.8268 -1.4079
56104SOL    HW274150  10.970   2.861   2.560  0.2217 -1.8044  0.6384
56105SOL     OW74151   4.096   0.567   0.088 -0.5697 -0.3947 -0.6375
56105SOL    HW174152   4.160   0.506   0.127  0.9950  1.2817 -0.4392
56105SOL    HW274153   4.056   0.611   0.163  1.2222  1.6216 -0.7558
56106SOL     OW74154   1.329   4.672   1.753 -0.5129 -0.2158  0.3684
56106SOL    HW174155   1.252   4.716   1.786  0.7363  1.1591  1.5858
56106SOL    HW274156   1.344   4.599   1.813 -0.5944 -0.2065  0.3993
56107SOL     OW74157   3.668  10.219   0.225  0.1056  0.1637  0.2862
56107SOL    HW174158   3.612  10.189   0.153  0.2666 -1.4534  0.8026
56107SOL    HW274159   3.754  10.181   0.206 -0.2585 -1.7692  2.1968
56108SOL     OW74160   7.025   4.339   0.860  0.0595 -0.8398 -0.1059
56108SOL    HW174161   7.110   4.379   0.844 -0.2695 -0.3452 -0.6690
56108SOL    HW274162   7.000   4.301   0.775 -0.6455 -0.2681 -0.1667
56109SOL     OW74163  11.143   7.828  10.997 -0.6262 -0.1683 -0.3420
56109SOL    HW174164  11.117   7.892  11.064 -1.3575 -0.8818  0.0721
56109SOL    HW274165  11.220   7.867  10.956 -0.9445  0.8931  0.0280
56110SOL     OW74166   9.654   1.641   5.922 -0.1695 -0.0503  0.2931
56110SOL    HW174167   9.732   1.691   5.948  1.1741 -2.3475  0.9289
56110SOL    HW274168   9.588   1.708   5.904  1.3605  1.9301  1.5849
56111SOL     OW74169   6.782   6.739   3.241 -0.7255 -0.5233 -0.2823
56111SOL    HW174170   6.866   6.765   3.278 -0.1521 -1.5653 -0.8231
56111SOL    HW274171   6.770   6.648   3.270 -1.0729 -0.7948 -1.2487
56112SOL     OW74172  11.944   2.223   5.938 -0.1623  0.3312 -0.2115
56112SOL    HW174173  11.948   2.218   6.033 -0.4697 -0.3740 -0.2328
56112SOL    HW274174  12.034   2.208   5.909 -0.3380 -1.0764 -0.0914
56113SOL     OW74175   2.938   6.691   4.222  0.1013 -0.5967 -0.3005
56113SOL    HW174176   2.934   6.780   4.188 -0.7657 -1.1426 -1.6774
56113SOL    HW274177   3.031   6.667   4.215  0.5460  0.5438  1.1076
56114SOL     OW74178   6.181   6.003   5.539  0.5381 -0.3288 -0.0788
56114SOL    HW174179   6.104   5.992   5.481  1.2747  1.5204 -1.5123
56114SOL    HW274180   6.174   6.093   5.570  0.4995 -1.1059  2.3457
56115SOL     OW74181  12.241   5.475   1.634  0.1198  0.0958  0.3038
56115SOL    HW174182  12.260   5.463   1.727 -0.2451  1.3085  0.5480
56115SOL    HW274183  12.284   5.557   1.610  0.0926 -0.1334 -0.5664
56116SOL     OW74184   6.683  10.966   0.262  0.3782 -0.5291 -0.4033
56116SOL    HW174185   6.634  11.024   0.320 -0.8887  0.7923 -2.6139
56116SOL    HW274186   6.707  10.891   0.316  0.4175  1.1676  2.0944
56117SOL     OW74187   4.656   2.650   3.446 -0.0940  0.1348  0.2870
56117SOL    HW174188   4.570   2.654   3.405  0.5644  1.2541 -1.0931
56117SOL    HW274189   4.638   2.640   3.539 -1.7101  0.0435 -0.0085
56118SOL     OW74190   9.447   6.855   7.232 -0.0533  0.1751  0.0204
56118SOL    HW174191   9.395   6.849   7.152  0.1209 -1.0011 -0.0276
56118SOL    HW274192   9.393   6.812   7.299  0.1404  0.4477  0.3523
56119SOL     OW74193   9.277   2.105   4.602 -0.4131 -0.8997 -0.0618
56119SOL    HW174194   9.345   2.142   4.546  0.2423 -2.1895 -0.1673
56119SOL    HW274195   9.324   2.078   4.681 -0.9694 -0.9420  0.2581
56120SOL     OW74196   1.099   7.572   7.728  0.2254 -0.4131 -0.0976
56120SOL    HW174197   1.019   7.606   7.688  2.2796  1.3986 -3.0611
56120SOL    HW274198   1.133   7.644   7.781  1.0456 -0.2947 -0.7573
56121SOL     OW74199   5.097   1.133   8.146  0.4342 -0.0133  0.1802
56121SOL    HW174200   5.085   1.228   8.136  0.2533 -0.0789 -0.2517
56121SOL    HW274201   5.021   1.095   8.103 -0.1372 -0.3301  1.4467
56122SOL     OW74202   0.651   8.008   8.441  1.0052  0.9879  0.1162
56122SOL    HW174203   0.633   8.100   8.462  2.1321  0.9624  1.3245
56122SOL    HW274204   0.654   8.005   8.346 -2.5955  1.4750 -0.1531
56123SOL     OW74205   4.265   2.190   0.909  0.4344  0.7873 -0.2307
56123SOL    HW174206   4.203   2.124   0.877  0.3215  1.0933 -0.6420
56123SOL    HW274207   4.258   2.262   0.847  0.3048  1.3342  0.4091
56124SOL     OW74208   6.298   6.412  10.323 -0.0493 -0.0315 -0.0207
56124SOL    HW174209   6.253   6.386  10.404 -0.2512 -0.7579 -0.3606
56124SOL    HW274210   6.384   6.442  10.352  0.8520 -2.6748  0.2663
56125SOL     OW74211   3.433   9.872   6.926  0.0408  0.2503 -0.1724
56125SOL    HW174212   3.500   9.939   6.911  1.5649 -1.2548 -0.3285
56125SOL    HW274213   3.476   9.808   6.983 -0.9383 -1.2321 -1.0442
56126SOL     OW74214   0.220   2.495   1.145 -0.2132 -0.1418 -0.0997
56126SOL    HW174215   0.246   2.451   1.064  1.5648 -0.1628  0.4510
56126SOL    HW274216   0.302   2.523   1.185 -0.9657 -0.8557  2.1071
56127SOL     OW74217  11.040   4.245   1.531  0.2223  0.3243  0.2037
56127SOL    HW174218  10.984   4.249   1.453  1.3636  0.2968 -0.6394
56127SOL    HW274219  11.125   4.278   1.501  1.0032 -0.7600  1.1467
56128SOL     OW74220   1.523   8.406   7.439  0.2712 -0.7229  0.5485
56128SOL    HW174221   1.544   8.348   7.512 -0.1636  0.1074  1.3623
56128SOL    HW274222   1.458   8.466   7.475 -0.4932 -0.7417 -0.7428
56129SOL     OW74223   5.991   0.713  11.524  0.4830  0.9357  0.1570
56129SOL    HW174224   5.999   0.670  11.609  1.7839 -1.2781 -1.0057
56129SOL    HW274225   5.918   0.774  11.535  0.0076  0.0417  2.5657
56130SOL     OW74226   0.764   0.839   1.548 -0.0681 -0.1272  0.2423
56130SOL    HW174227   0.678   0.830   1.588  0.0405 -0.3807  0.4185
56130SOL    HW274228   0.764   0.927   1.510 -0.4125 -0.1381  0.2179
56131SOL     OW74229   6.194  11.501   4.994 -0.7590 -0.0758  0.5427
56131SOL    HW174230   6.196  11.405   5.000  4.3323 -0.4330 -1.4980
56131SOL    HW274231   6.217  11.520   4.903 -0.5620  3.0782  1.1232
56132SOL     OW74232  11.304   2.049   8.592 -0.1144 -0.8461  0.2188
56132SOL    HW174233  11.312   2.096   8.509 -0.4086 -0.3066  0.4971
56132SOL    HW274234  11.274   1.962   8.567  0.2523 -0.8383 -0.2802
56133SOL     OW74235  11.929   0.166   6.135  0.4137 -0.2845  0.3833
56133SOL    HW174236  11.882   0.231   6.187 -0.7063  0.2116 -1.1723
56133SOL    HW274237  11.863   0.131   6.075  1.4069 -1.6060  0.0245
56134SOL     OW74238  10.780   3.102   8.588  0.1839 -0.0174 -0.2639
56134SOL    HW174239  10.698   3.071   8.626 -1.3663  0.7512 -2.7678
56134SOL    HW274240  10.843   3.032   8.608 -0.6066  0.0538  2.9988
56135SOL     OW74241   3.602   3.391   8.334 -0.4206 -0.0471  0.4684
56135SOL    HW174242   3.514   3.413   8.303  0.2190  0.9729 -0.6997
56135SOL    HW274243   3.659   3.406   8.259  1.0573  1.4692  1.8051
56136SOL     OW74244   1.764   3.667   0.733 -0.2287 -0.0158  0.0437
56136SOL    HW174245   1.793   3.592   0.682  0.4984 -0.1015  0.5600
56136SOL    HW274246   1.824   3.738   0.707 -0.9159  0.3976 -0.4507
56137SOL     OW74247   0.063   6.548   0.584  0.2545 -0.1476 -0.2816
56137SOL    HW174248   0.076   6.626   0.638 -0.3638 -0.9527  1.0892
56137SOL    HW274249   0.150   6.529   0.548  0.8660 -0.0372  1.0946
56138SOL     OW74250   4.113   3.171   5.691  0.2252  0.0314 -0.1409
56138SOL    HW174251   4.113   3.247   5.749  2.6664  0.2449 -0.3045
56138SOL    HW274252   4.097   3.097   5.750  0.8466  0.4047  0.5143
56139SOL     OW74253   5.614  12.197   5.373 -0.1290  0.0762 -0.2625
56139SOL    HW174254   5.650  12.151   5.297 -0.1171  1.3688 -1.0703
56139SOL    HW274255   5.524  12.217   5.348 -0.9732 -1.7578  1.1246
56140SOL     OW74256   7.011   4.422   1.378  0.1245 -0.3735  0.0543
56140SOL    HW174257   7.035   4.373   1.299 -3.7364  0.0596 -1.6266
56140SOL    HW274258   7.011   4.357   1.447 -0.7857 -1.8425 -1.2663
56141SOL     OW74259   9.763   2.755   8.171  0.0799 -0.0726  0.1954
56141SOL    HW174260   9.739   2.757   8.264 -0.1441  1.2401  0.1283
56141SOL    HW274261   9.845   2.804   8.167  0.7507 -1.1702 -0.1485
56142SOL     OW74262   3.357   1.432   4.725  0.1425 -0.3476  0.2078
56142SOL    HW174263   3.295   1.393   4.787  0.2784  0.4797  0.8739
56142SOL    HW274264   3.340   1.386   4.643 -0.8098 -0.6816  0.5755
56143SOL     OW74265   5.415   1.443   1.164 -0.0175 -0.1237  0.0244
56143SOL    HW174266   5.384   1.355   1.142  0.3979  0.1225 -1.6675
56143SOL    HW274267   5.481   1.428   1.232 -0.2709 -1.0687  0.0886
56144SOL     OW74268   1.651   6.567   1.863 -0.0467 -0.0422 -0.3236
56144SOL    HW174269   1.624   6.648   1.906  0.9051 -0.6618  1.4943
56144SOL    HW274270   1.600   6.566   1.781 -1.3410  1.5309  0.4105
56145SOL     OW74271   5.945  10.300  11.296  0.6817  0.1723  0.0943
56145SOL    HW174272   6.020  10.244  11.275 -0.3431 -0.4952 -2.0643
56145SOL    HW274273   5.981  10.388  11.298  1.6342 -0.1937 -0.3134
56146SOL     OW74274  11.048  10.939   6.265  0.0672 -0.5312  0.1638
56146SOL    HW174275  11.142  10.924   6.254  0.2946  0.7218  0.1459
56146SOL    HW274276  11.029  11.011   6.204 -0.8780 -0.6794  0.2707
56147SOL     OW74277   4.218   0.732   1.162 -0.0323  0.2377  0.1002
56147SOL    HW174278   4.206   0.702   1.252  0.7627  0.9131  0.4503
56147SOL    HW274279   4.292   0.793   1.167  1.3245 -1.1766 -1.3287
56148SOL     OW74280  10.139   2.733  11.889  0.0171  0.0293  0.2396
56148SOL    HW174281  10.218   2.709  11.938  0.4554  0.3067 -0.3277
56148SOL    HW274282  10.069   2.729  11.955  0.4468 -0.5259  0.6748
56149SOL     OW74283   4.093   8.753  12.078 -0.2245 -0.4960 -0.0302
56149SOL    HW174284   4.003   8.732  12.050 -0.5652  0.3641  0.3905
56149SOL    HW274285   4.100   8.847  12.067  0.5260 -0.5170  0.2565
56150SOL     OW74286   7.973   5.046   1.507  0.6952  0.3772 -0.7235
56150SOL    HW174287   7.950   4.984   1.576  2.5437  0.8851  0.4192
56150SOL    HW274288   7.893   5.097   1.493 -0.2769 -0.9728 -0.3409
56151SOL     OW74289  11.100   0.643   1.515  0.0406 -0.1082  0.2862
56151SOL    HW174290  11.148   0.718   1.551 -1.2162  0.6397  0.4415
56151SOL    HW274291  11.135   0.634   1.426 -1.9948  2.7517 -0.9429
56152SOL     OW74292   7.505   1.700   1.299 -0.3949 -0.3515 -0.0494
56152SOL    HW174293   7.529   1.609   1.311  0.5499 -0.1915 -0.6403
56152SOL    HW274294   7.448   1.701   1.222  0.1251 -0.3719 -0.4408
56153SOL     OW74295   6.169  11.176   8.866  0.4648  0.0544  0.5966
56153SOL    HW174296   6.248  11.124   8.853 -0.5255 -1.4950  0.5285
56153SOL    HW274297   6.099  11.112   8.875 -0.9619  1.3963 -0.3540
56154SOL     OW74298   3.101   3.894   3.320 -0.1925 -0.5344  0.6155
56154SOL    HW174299   3.009   3.915   3.336  0.2838  2.0286  0.4412
56154SOL    HW274300   3.100   3.825   3.254 -1.9715 -0.7569  0.8426
56155SOL     OW74301   0.742   9.264   0.591  0.3088  0.3932  0.2713
56155SOL    HW174302   0.657   9.279   0.550  0.7531  2.2590 -0.0631
56155SOL    HW274303   0.744   9.170   0.608 -0.7847 -0.1232 -2.0144
56156SOL     OW74304   6.334   9.267   7.027  0.6322  0.3107 -0.4983
56156SOL    HW174305   6.278   9.313   6.965  0.4101 -0.1196 -0.6194
56156SOL    HW274306   6.325   9.315   7.109 -0.9038 -0.4874 -0.1694
56157SOL     OW74307   4.051   6.734   4.618 -0.4967  0.5808 -0.0267
56157SOL    HW174308   4.074   6.798   4.550  1.3545 -0.4710 -0.4272
56157SOL    HW274309   3.959   6.714   4.600 -1.3019  3.4229  0.3924
56158SOL     OW74310   6.320  10.792   1.826  0.3681 -0.2458 -0.0424
56158SOL    HW174311   6.349  10.878   1.796  1.9988 -0.4455  0.8392
56158SOL    HW274312   6.384  10.731   1.789  1.1249 -0.7268  1.9524
56159SOL     OW74313  11.224   5.273  10.677  0.7121  0.3266 -0.1172
56159SOL    HW174314  11.246   5.279  10.770  2.2057 -1.3008 -0.3071
56159SOL    HW274315  11.133   5.302  10.672  0.8780  1.3460  1.6929
56160SOL     OW74316   3.043   0.458   7.953 -0.0405 -0.4422  0.7252
56160SOL    HW174317   2.981   0.530   7.968 -0.5044 -0.6480 -0.1734
56160SOL    HW274318   3.020   0.394   8.021 -1.4501 -0.9177 -0.1502
56161SOL     OW74319   9.670   1.916   3.425 -0.0807 -1.0170 -0.0027
56161SOL    HW174320   9.667   1.979   3.497 -0.7551 -0.5623 -0.4099
56161SOL    HW274321   9.693   1.833   3.466 -0.7767 -0.8317  0.7887
56162SOL     OW74322   3.950   4.753   4.784 -0.1597 -0.3952  0.1573
56162SOL    HW174323   3.979   4.824   4.842  0.4129 -0.3629 -0.1597
56162SOL    HW274324   4.003   4.763   4.705 -0.1144 -1.1335  0.0807
56163SOL     OW74325   9.019   0.968   6.052 -0.7789  0.1252  0.3570
56163SOL    HW174326   9.106   1.001   6.075 -0.0939 -0.8221 -0.8067
56163SOL    HW274327   8.999   1.009   5.968 -0.9270 -0.6367  0.0196
56164SOL     OW74328  10.844   3.014  10.471  0.4165 -0.8744 -0.1296
56164SOL    HW174329  10.854   3.041  10.380 -0.8642 -1.0054 -0.3176
56164SOL    HW274330  10.764   3.057  10.501  1.2768 -0.1183  1.2151
56165SOL     OW74331   2.497  11.056   8.253  0.2520 -0.5899  0.3567
56165SOL    HW174332   2.546  11.051   8.171  0.6646  0.4367  0.5250
56165SOL    HW274333   2.428  10.990   8.243  1.6761 -2.1315  0.1430
56166SOL     OW74334   5.565   4.999  11.375  0.2897  0.1844  0.2142
56166SOL    HW174335   5.531   5.044  11.298 -0.2336  0.7001  0.7295
56166SOL    HW274336   5.503   4.927  11.390 -0.0795  0.5802  0.6253
56167SOL     OW74337   6.960   5.876   0.091 -0.4298 -0.0245  0.0582
56167SOL    HW174338   6.954   5.895  -0.002 -0.6641 -3.0215 -0.6312
56167SOL    HW274339   6.874   5.901   0.126 -1.3509 -1.4278 -1.1023
56168SOL     OW74340   4.542   6.624  11.233  0.2259  0.3558 -0.1556
56168SOL    HW174341   4.451   6.594  11.243  1.0570 -2.7925 -0.7716
56168SOL    HW274342   4.576   6.622  11.323  0.1811 -0.3802 -0.1442
56169SOL     OW74343   3.724   9.388   7.058 -0.0981 -0.2744  0.5157
56169SOL    HW174344   3.635   9.373   7.027 -0.8654  2.1162  1.3311
56169SOL    HW274345   3.713   9.417   7.149  1.6300 -1.3578  1.1126
56170SOL     OW74346  11.536   5.551   1.941 -0.1765  0.0241  0.8730
56170SOL    HW174347  11.458   5.575   1.891 -0.3625 -0.3058  0.9969
56170SOL    HW274348  11.609   5.586   1.892 -0.4747  1.3653  1.3546
56171SOL     OW74349   8.604   8.555   3.138  0.0168 -0.0033  0.5481
56171SOL    HW174350   8.666   8.626   3.120 -0.8526  0.5103 -0.5894
56171SOL    HW274351   8.523   8.600   3.162 -0.6305 -0.5752 -0.4830
56172SOL     OW74352   5.188  11.318  11.316 -0.4434  0.3586  0.0032
56172SOL    HW174353   5.138  11.395  11.342  0.8512  1.0401  0.5637
56172SOL    HW274354   5.176  11.313  11.221 -1.8017  0.3174  0.1612
56173SOL     OW74355   3.695   5.054   7.472 -0.2430 -0.1211  0.2516
56173SOL    HW174356   3.722   5.080   7.383 -0.8993  0.4175  0.2025
56173SOL    HW274357   3.609   5.014   7.459 -0.1102 -0.5224  0.5899
56174SOL     OW74358  11.117   4.160   2.275  0.1423 -0.6396  0.3409
56174SOL    HW174359  11.176   4.090   2.301  1.6926  0.9150  1.2492
56174SOL    HW274360  11.062   4.175   2.352  0.3815 -0.3023  0.4468
56175SOL     OW74361   0.881   9.681   4.018 -0.3238 -0.0156  0.4578
56175SOL    HW174362   0.960   9.716   3.978  0.1275 -1.4660  0.0276
56175SOL    HW274363   0.809   9.723   3.971  0.1974 -0.2739 -0.5916
56176SOL     OW74364  12.181   7.476   0.452  0.3525 -0.7707  0.1194
56176SOL    HW174365  12.132   7.457   0.532  0.7305  1.6971  1.0185
56176SOL    HW274366  12.270   7.444   0.470  0.1538 -1.2680  0.2224
56177SOL     OW74367   0.014   1.145   0.146  0.7673 -0.2735  0.0676
56177SOL    HW174368  -0.043   1.090   0.200  0.5274  1.4422  1.6418
56177SOL    HW274369  -0.044   1.212   0.110  1.2718 -0.2898 -0.8162
56178SOL     OW74370   5.593  12.012   8.221  0.0973  0.3134 -0.6990
56178SOL    HW174371   5.561  11.921   8.216  0.8119  0.1225 -4.4360
56178SOL    HW274372   5.518  12.065   8.197  0.0397  0.6572  0.1941
56179SOL     OW74373   1.487   9.157   9.194 -0.1006 -0.0568  0.6962
56179SOL    HW174374   1.420   9.221   9.173 -0.7969 -0.8792  0.3530
56179SOL    HW274375   1.439   9.080   9.224  0.6428 -0.8286 -0.0205
56180SOL     OW74376   1.796   2.702   4.809 -0.2888  0.0786  0.4066
56180SOL    HW174377   1.837   2.696   4.896  0.0914  1.0676  0.3079
56180SOL    HW274378   1.718   2.756   4.824  0.7047  1.7180 -0.1734
56181SOL     OW74379   5.601   2.564   6.496 -0.5347  0.0402 -0.2947
56181SOL    HW174380   5.647   2.642   6.526 -0.8228 -0.2955  1.0850
56181SOL    HW274381   5.558   2.592   6.415  0.7514  0.8094 -0.7497
56182SOL     OW74382   5.413  11.838  10.567 -0.7900 -1.2871  0.0602
56182SOL    HW174383   5.417  11.781  10.644  0.5550 -0.9959  0.2275
56182SOL    HW274384   5.427  11.926  10.602  1.4729 -1.3093 -0.6630
56183SOL     OW74385   7.952   3.923   5.029  0.7391 -0.7024 -0.2976
56183SOL    HW174386   7.988   3.960   5.110  0.0050  2.2007 -1.1662
56183SOL    HW274387   7.862   3.956   5.027  0.9173 -0.2500 -2.5336
56184SOL     OW74388   2.501  12.268   4.034 -0.2963  0.0206 -0.1550
56184SOL    HW174389   2.433  12.202   4.045 -0.9286  0.6153 -0.3691
56184SOL    HW274390   2.476  12.315   3.954  0.9732 -0.4504 -0.8566
56185SOL     OW74391   1.654   1.668   3.701  0.7948 -0.2341  0.0764
56185SOL    HW174392   1.725   1.605   3.715  3.2437  2.3393  0.0884
56185SOL    HW274393   1.676   1.742   3.757 -2.5679  0.2898  0.9155
56186SOL     OW74394   5.561   1.843   8.844  0.8756 -0.6036  0.7262
56186SOL    HW174395   5.649   1.880   8.831  0.4841 -0.0218 -0.4716
56186SOL    HW274396   5.502   1.917   8.829  0.0715 -1.6181 -1.6104
56187SOL     OW74397   3.675   7.875   7.564  0.0797  0.0672 -0.0821
56187SOL    HW174398   3.668   7.899   7.656 -0.6720  0.6335 -0.2738
56187SOL    HW274399   3.739   7.804   7.562 -0.2730 -0.2914  0.9333
56188SOL     OW74400   1.204   2.476   1.420  0.6038 -0.3979 -0.0665
56188SOL    HW174401   1.209   2.570   1.439  2.2737 -0.7823  1.6968
56188SOL    HW274402   1.248   2.434   1.494  0.3712 -2.5641 -1.0799
56189SOL     OW74403   2.815   6.652   7.056 -0.4372 -0.1726 -0.0413
56189SOL    HW174404   2.848   6.689   6.974  0.7577  0.3890  0.6695
56189SOL    HW274405   2.893   6.631   7.106 -1.0780  1.9194  2.0204
56190SOL     OW74406   5.606   3.208  11.283  0.3902 -0.2659  0.1675
56190SOL    HW174407   5.609   3.173  11.372  1.3297 -2.8857 -0.8192
56190SOL    HW274408   5.616   3.303  11.294  1.0299 -0.5775  2.7917
56191SOL     OW74409   6.988   8.025   9.979  0.5445 -0.2842  0.7002
56191SOL    HW174410   6.993   7.935  10.011  0.2201 -0.3479  0.5768
56191SOL    HW274411   6.922   8.067  10.035  1.0406  0.0126  1.0724
56192SOL     OW74412  11.871   4.838   7.347  0.5747  0.2609 -0.5861
56192SOL    HW174413  11.840   4.752   7.376  1.3224 -0.2871 -1.3630
56192SOL    HW274414  11.866   4.835   7.252 -0.6601  1.5890 -0.5873
56193SOL     OW74415   3.986  10.783  11.697 -0.2894  0.7482 -0.1143
56193SOL    HW174416   4.050  10.805  11.764  1.3939 -0.7462 -1.1426
56193SOL    HW274417   3.916  10.738  11.744 -0.2124  1.6798  0.9198
56194SOL     OW74418   9.227   7.671  11.993 -0.1477 -0.1234 -0.3713
56194SOL    HW174419   9.145   7.626  11.974 -0.4322  0.7985 -1.4507
56194SOL    HW274420   9.237   7.734  11.921  0.7318  0.8246  0.5403
56195SOL     OW74421   8.291   7.663   2.663 -0.3182  0.0204 -0.4030
56195SOL    HW174422   8.326   7.708   2.587 -0.0554 -1.3350 -1.1126
56195SOL    HW274423   8.282   7.731   2.730  1.0658  0.9062 -1.0880
56196SOL     OW74424  11.847   5.213   5.718 -0.1931  0.5879  0.4670
56196SOL    HW174425  11.932   5.205   5.674 -1.1206  0.6305 -1.4112
56196SOL    HW274426  11.846   5.303   5.750 -0.3262  1.2627 -1.3200
56197SOL     OW74427   4.675   4.111   7.515 -1.3391 -0.5488  0.4318
56197SOL    HW174428   4.705   4.051   7.584  0.1652  0.2344  0.5151
56197SOL    HW274429   4.595   4.072   7.482 -0.9541 -2.0558  1.1875
56198SOL     OW74430  11.355   9.207   3.357  0.4248 -0.2646  0.0597
56198SOL    HW174431  11.392   9.128   3.395 -0.4721 -1.2352 -1.0023
56198SOL    HW274432  11.291   9.238   3.422  1.3548  0.0717  0.8337
56199SOL     OW74433   7.551   4.669   4.126 -0.5604 -0.4014 -0.0966
56199SOL    HW174434   7.518   4.700   4.041 -0.6809 -1.6493 -0.5200
56199SOL    HW274435   7.565   4.575   4.114  0.0571 -0.4805  1.0727
56200SOL     OW74436  10.341   4.962   4.028  0.3845  0.1699 -0.7257
56200SOL    HW174437  10.380   5.040   4.066 -0.1367 -0.1797  0.6058
56200SOL    HW274438  10.350   4.895   4.096  1.5005 -1.1640 -2.1213
56201SOL     OW74439  11.089   4.677   3.313  0.3401  0.2999 -0.1460
56201SOL    HW174440  10.996   4.653   3.315 -0.2177  2.2775  2.1246
56201SOL    HW274441  11.134   4.598   3.343 -0.9234  0.1690  1.5959
56202SOL     OW74442   0.254   2.065   8.059  0.4151 -0.1106  0.1469
56202SOL    HW174443   0.271   2.059   7.965  0.2970  1.9089 -0.0649
56202SOL    HW274444   0.171   2.018   8.072 -0.8521  1.5875 -1.2316
56203SOL     OW74445  12.315   5.576   9.593 -0.9198 -0.1813  0.5502
56203SOL    HW174446  12.385   5.561   9.531 -2.6757  0.6993 -1.7843
56203SOL    HW274447  12.331   5.513   9.664  2.9107  0.9020  0.8475
56204SOL     OW74448   7.705  12.024  10.222  0.2239  0.2433 -0.2464
56204SOL    HW174449   7.683  11.962  10.153 -0.5269  1.1023 -0.7966
56204SOL    HW274450   7.794  12.000  10.248  0.0824 -0.8267 -0.6967
56205SOL     OW74451   8.377   7.810  11.017  0.3453 -0.2766  0.4300
56205SOL    HW174452   8.313   7.880  11.034 -1.0093 -1.2119 -0.5879
56205SOL    HW274453   8.379   7.759  11.098 -1.4400 -1.1457 -0.0114
56206SOL     OW74454   3.601   6.591   8.106 -0.0288 -0.2873 -0.4441
56206SOL    HW174455   3.511   6.566   8.125 -0.9324  1.7787 -1.6982
56206SOL    HW274456   3.651   6.510   8.115 -1.9690 -1.4565  0.3875
56207SOL     OW74457   0.411   6.441   4.354 -0.1717 -0.1191 -0.1288
56207SOL    HW174458   0.433   6.527   4.388  0.7858 -0.9558  1.5204
56207SOL    HW274459   0.349   6.405   4.418 -1.5154 -0.2031 -1.4377
56208SOL     OW74460   5.127   7.957   4.147 -0.1629 -0.0728 -0.3187
56208SOL    HW174461   5.092   8.015   4.214  2.4090  0.3684  0.7266
56208SOL    HW274462   5.121   7.869   4.185  1.7132  0.2227  0.7370
56209SOL     OW74463  10.963   0.822   6.545 -0.3042  0.3248  0.7381
56209SOL    HW174464  11.011   0.853   6.469  1.0725  0.7349  1.7414
56209SOL    HW274465  10.918   0.743   6.515  1.4667 -0.4137 -0.1007
56210SOL     OW74466   6.524   0.519   0.941 -0.3259  0.0712  0.4518
56210SOL    HW174467   6.493   0.515   0.850 -2.7759  1.9683  1.0826
56210SOL    HW274468   6.619   0.511   0.935 -0.4767 -0.5936 -2.1910
56211SOL     OW74469   5.799   4.699   9.671 -0.3375  0.0000 -0.6835
56211SOL    HW174470   5.836   4.665   9.589 -0.1143  2.2385 -1.5764
56211SOL    HW274471   5.705   4.687   9.661 -0.2133 -1.4674 -0.4034
56212SOL     OW74472   4.786   3.039   4.871  0.3889 -0.5576  0.1333
56212SOL    HW174473   4.830   3.107   4.820  2.0739 -1.2669  0.5778
56212SOL    HW274474   4.788   2.962   4.814 -1.3016 -0.3469 -0.2742
56213SOL     OW74475   0.908  11.824   5.926 -0.1642  0.4438  0.7523
56213SOL    HW174476   0.980  11.788   5.874  0.1878  2.0852  0.0170
56213SOL    HW274477   0.894  11.761   5.996 -0.3441 -1.6485 -1.0564
56214SOL     OW74478  11.947  11.539  11.065  0.4031  0.0278  0.3802
56214SOL    HW174479  12.041  11.526  11.081  0.4218  0.4485  0.6435
56214SOL    HW274480  11.920  11.463  11.015  0.9630  0.0681  0.0098
56215SOL     OW74481  11.967   0.468   8.157 -0.4226  0.0316  0.1636
56215SOL    HW174482  12.059   0.452   8.134 -0.6303 -0.4980 -0.3305
56215SOL    HW274483  11.958   0.429   8.244  0.1723  1.3565  0.8464
56216SOL     OW74484  10.834   0.023   3.772 -0.0839 -0.1744  0.1141
56216SOL    HW174485  10.753   0.003   3.724  0.0328  2.1936 -1.2251
56216SOL    HW274486  10.904  -0.003   3.713  0.0800  0.6403 -0.0663
56217SOL     OW74487   3.793   7.122   4.421  0.3699  0.2076 -0.5311
56217SOL    HW174488   3.880   7.100   4.389  1.1148  1.0127  0.8464
56217SOL    HW274489   3.805   7.204   4.469 -1.2985  0.7471 -0.9531
56218SOL     OW74490   0.093   3.961   8.881 -0.3853  0.3170 -0.0012
56218SOL    HW174491   0.113   4.045   8.923  0.4390  0.4769 -0.6965
56218SOL    HW274492   0.145   3.897   8.929 -0.3245  0.3310 -0.0492
56219SOL     OW74493   1.963   8.322   8.742 -0.0510  0.4756  0.1682
56219SOL    HW174494   1.920   8.385   8.684 -1.7672  0.3240  1.2309
56219SOL    HW274495   1.936   8.347   8.830  0.4284 -0.8723  0.7285
56220SOL     OW74496  11.850   6.228   5.356  0.7277  0.1434 -0.5694
56220SOL    HW174497  11.811   6.277   5.428  1.9212 -2.2700  1.9065
56220SOL    HW274498  11.933   6.271   5.339  0.9719  0.0644  0.3634
56221SOL     OW74499   4.465  11.339   1.706 -0.6143 -0.2271 -0.1674
56221SOL    HW174500   4.470  11.244   1.701 -1.1140 -0.3910  1.6274
56221SOL    HW274501   4.440  11.357   1.797  0.4102  1.6558 -0.2051
56222SOL     OW74502   7.056   2.244  10.466  0.2480  0.1757 -0.1646
56222SOL    HW174503   7.053   2.339  10.457  0.8438  0.1210 -1.1117
56222SOL    HW274504   7.020   2.227  10.553  1.3027  1.3530  0.5466
56223SOL     OW74505  11.728  11.116  10.811  0.8032 -0.2458 -0.2127
56223SOL    HW174506  11.639  11.083  10.805  0.5538  0.6021 -1.7191
56223SOL    HW274507  11.770  11.060  10.877 -0.3519 -1.7777 -0.7101
56224SOL     OW74508  11.137   3.019  10.805  0.6678  0.5968 -0.3629
56224SOL    HW174509  11.194   2.956  10.849  1.6370  1.0778 -0.8959
56224SOL    HW274510  11.129   2.986  10.715  0.5145  0.8043 -0.4277
56225SOL     OW74511  10.275   2.495   0.833 -0.2699 -0.5173  0.2342
56225SOL    HW174512  10.323   2.486   0.915  0.5790 -0.9855 -0.3009
56225SOL    HW274513  10.203   2.555   0.854 -0.2034 -0.7998  1.3708
56226SOL     OW74514   5.256   8.837   1.635  0.7413 -0.2555  0.4324
56226SOL    HW174515   5.161   8.832   1.642  0.8192 -0.2897  1.6367
56226SOL    HW274516   5.283   8.747   1.617  0.5624 -0.2768  0.2699
56227SOL     OW74517  11.903   8.416   4.079  0.0431  0.3608  0.4589
56227SOL    HW174518  11.895   8.511   4.088  0.9014  0.5053 -0.1261
56227SOL    HW274519  11.819   8.387   4.045 -0.2920  0.8821  0.8286
56228SOL     OW74520   8.953   3.035   7.541 -0.4551 -0.0145  0.1539
56228SOL    HW174521   9.008   3.030   7.463 -2.1648  2.5381 -1.3965
56228SOL    HW274522   8.969   3.122   7.576 -1.0881 -0.4514  1.6099
56229SOL     OW74523   7.201   6.735   3.776 -0.0686 -0.9380 -0.0486
56229SOL    HW174524   7.136   6.714   3.709 -1.5230 -0.0047  1.0034
56229SOL    HW274525   7.218   6.652   3.820 -0.5386 -1.2047 -0.3639
56230SOL     OW74526  10.539   3.395   8.045 -0.1183  0.1581 -0.3426
56230SOL    HW174527  10.590   3.318   8.019  0.1773  0.5554 -0.9395
56230SOL    HW274528  10.533   3.388   8.141 -1.9285 -1.7625 -0.5149
56231SOL     OW74529   8.780   1.729   0.844  0.0673 -0.2635  0.7707
56231SOL    HW174530   8.734   1.731   0.760  0.6626 -1.3324  0.3947
56231SOL    HW274531   8.794   1.635   0.861  2.5503  0.0127  0.6088
56232SOL     OW74532   9.115   4.164   8.595  0.1256 -0.3908  0.2603
56232SOL    HW174533   9.035   4.216   8.595  0.3328 -0.0644  0.8137
56232SOL    HW274534   9.136   4.152   8.687  1.8880  1.3429  0.1458
56233SOL     OW74535   3.833   3.960  11.308 -0.2936 -0.0536 -0.5673
56233SOL    HW174536   3.762   3.902  11.336  0.9187 -0.8595  0.9838
56233SOL    HW274537   3.862   4.003  11.389  0.2274  1.1499 -1.3614
56234SOL     OW74538   4.646   6.332   0.505 -0.2787  0.4259  0.0396
56234SOL    HW174539   4.680   6.244   0.524 -2.4593 -0.4649  0.1406
56234SOL    HW274540   4.714   6.373   0.452  1.7696 -0.5067  1.7910
56235SOL     OW74541   8.168   2.274   0.548 -0.5270 -0.2982 -0.2975
56235SOL    HW174542   8.080   2.237   0.552 -1.3701  1.4090 -1.5379
56235SOL    HW274543   8.192   2.269   0.455  0.5395 -0.4032 -0.0283
56236SOL     OW74544   8.113   9.358   9.847  0.1286 -0.1546 -0.2744
56236SOL    HW174545   8.021   9.336   9.858  0.6777 -2.2343  0.5625
56236SOL    HW274546   8.135   9.327   9.759 -0.2085  1.4666 -0.9849
56237SOL     OW74547   4.179   8.536   5.069  0.2537  0.2052  0.2651
56237SOL    HW174548   4.143   8.459   5.114 -1.3254  1.3519  1.0417
56237SOL    HW274549   4.273   8.531   5.087  0.2084 -1.5918  0.2110
56238SOL     OW74550   3.305   8.455   0.450 -0.2324 -0.8969 -0.2266
56238SOL    HW174551   3.244   8.493   0.513  0.9711  0.2912  0.2587
56238SOL    HW274552   3.278   8.363   0.444 -0.1471 -1.1751  2.3608
56239SOL     OW74553   3.966  10.678  11.244  0.2856  0.3715 -0.4403
56239SOL    HW174554   4.058  10.656  11.231  0.5144  0.4768  0.8941
56239SOL    HW274555   3.920  10.595  11.230  0.6869  0.0811 -0.0543
56240SOL     OW74556   8.549  11.821   1.068  0.1680  0.0718 -0.1269
56240SOL    HW174557   8.540  11.876   1.146  1.2819 -1.0304  0.8355
56240SOL    HW274558   8.465  11.777   1.060  0.3855 -0.6318  1.1471
56241SOL     OW74559  11.106   3.603   5.700 -0.3477  0.2529 -0.3714
56241SOL    HW174560  11.110   3.508   5.699  1.8112  0.2950 -1.5061
56241SOL    HW274561  11.022   3.624   5.659 -0.7903 -1.1564 -0.2073
56242SOL     OW74562   3.540   1.860   6.581 -0.4666 -0.5092 -0.4180
56242SOL    HW174563   3.468   1.798   6.589  0.4988 -1.5697  0.5422
56242SOL    HW274564   3.588   1.830   6.503 -1.2654  0.4418 -1.2959
56243SOL     OW74565  10.730   7.791   3.466  0.3986  0.6531 -0.0168
56243SOL    HW174566  10.731   7.816   3.559 -0.8408 -1.0415  0.5077
56243SOL    HW274567  10.780   7.709   3.463  0.1703  0.5332 -0.7885
56244SOL     OW74568  10.002   8.282   6.097  0.5301 -0.3956  0.5336
56244SOL    HW174569  10.090   8.315   6.082 -0.0433  0.1706 -1.9673
56244SOL    HW274570   9.956   8.355   6.138 -0.0335  1.2287 -2.6573
56245SOL     OW74571  12.273   2.742  11.360  0.3889  0.2434 -0.0575
56245SOL    HW174572  12.296   2.727  11.268 -1.8939 -0.1598 -0.6245
56245SOL    HW274573  12.258   2.655  11.396  2.5033  0.3170  1.0903
56246SOL     OW74574  12.212   6.854   2.457  0.2612  0.1758 -0.1300
56246SOL    HW174575  12.188   6.942   2.484 -0.5683 -0.1186  0.1226
56246SOL    HW274576  12.146   6.797   2.497  0.9438 -0.5893 -0.0574
56247SOL     OW74577  11.196   8.709   8.074 -0.3779 -0.2411 -0.0050
56247SOL    HW174578  11.284   8.699   8.110  1.7101  0.1548 -4.2836
56247SOL    HW274579  11.186   8.804   8.061 -1.7907 -0.2181  1.0010
56248SOL     OW74580   7.857   0.679  12.075 -0.0855 -0.4826 -0.0904
56248SOL    HW174581   7.878   0.644  12.162 -0.0335  1.1759  0.6232
56248SOL    HW274582   7.811   0.608  12.031 -1.1830 -0.9964  1.7438
56249SOL     OW74583   9.260   1.610   8.269 -0.2536  0.2547 -0.1821
56249SOL    HW174584   9.281   1.588   8.360  1.4416  2.4061  0.0367
56249SOL    HW274585   9.165   1.617   8.267 -0.2945  0.7487  1.5997
56250SOL     OW74586   9.778   2.221   2.396 -0.3020 -0.1985  0.2403
56250SOL    HW174587   9.751   2.280   2.467  0.3486 -0.8937  1.0993
56250SOL    HW274588   9.720   2.145   2.406 -1.8159  0.6806 -1.4839
56251SOL     OW74589   4.833   1.200   1.341 -0.0340 -0.1692  0.2198
56251SOL    HW174590   4.893   1.261   1.384 -0.3056  0.1679  0.1224
56251SOL    HW274591   4.868   1.113   1.363 -0.5842 -0.0385  1.7300
56252SOL     OW74592   0.691  10.665   1.726  0.2885 -0.3807 -0.0006
56252SOL    HW174593   0.692  10.749   1.679 -0.3774 -1.4962 -2.1198
56252SOL    HW274594   0.625  10.677   1.794  0.5557  0.9624  0.0591
56253SOL     OW74595   6.267   9.249   5.202  0.0336 -0.1708  0.1799
56253SOL    HW174596   6.356   9.279   5.187  0.3885 -1.0375  0.5019
56253SOL    HW274597   6.219   9.327   5.229  0.9628  0.0909  1.1389
56254SOL     OW74598   7.431   7.053   4.165 -0.0181  0.0915 -0.0805
56254SOL    HW174599   7.490   7.123   4.134 -0.1829  0.2378 -0.0672
56254SOL    HW274600   7.415   7.000   4.087  1.7091 -1.1116  0.3375
56255SOL     OW74601  11.565  11.708   9.608  0.2249  0.1717  0.4212
56255SOL    HW174602  11.620  11.712   9.686 -0.1324 -0.0675  0.6909
56255SOL    HW274603  11.613  11.758   9.542  1.4828 -1.2537  0.2035
56256SOL     OW74604   3.903   4.401   8.448 -0.1961 -0.0397  0.0965
56256SOL    HW174605   3.905   4.435   8.538  1.1806  0.7164 -0.1844
56256SOL    HW274606   3.942   4.314   8.454 -0.3696 -0.1077  0.2661
56257SOL     OW74607   4.641   8.343   0.573 -0.3132 -0.3140 -0.0712
56257SOL    HW174608   4.621   8.397   0.497  2.9964  0.3503 -0.6413
56257SOL    HW274609   4.734   8.359   0.589 -0.9262 -0.0092  4.4888
56258SOL     OW74610   2.057  10.000  10.125  0.5678 -0.3911 -0.2954
56258SOL    HW174611   1.988   9.937  10.105  0.3167 -0.3864  0.5205
56258SOL    HW274612   2.049  10.067  10.057 -1.4094  0.5509  0.7543
56259SOL     OW74613   7.195   3.544   2.646 -0.2693 -0.4273  0.0529
56259SOL    HW174614   7.198   3.578   2.736  0.1160  1.5690 -0.6650
56259SOL    HW274615   7.102   3.535   2.627 -0.7535  4.3157 -1.0577
56260SOL     OW74616  11.686   4.079   4.291 -0.0865  0.3982 -0.1858
56260SOL    HW174617  11.711   4.006   4.347 -3.1026  0.4354  1.4028
56260SOL    HW274618  11.623   4.041   4.230  0.7266  1.0753 -1.5051
56261SOL     OW74619  11.050   2.624   7.971 -0.0178 -0.7132  0.5458
56261SOL    HW174620  11.141   2.629   7.941 -0.1798 -0.1757  0.1185
56261SOL    HW274621  11.009   2.703   7.936 -0.8138 -1.2722  0.1667
56262SOL     OW74622   6.969   1.752   3.074 -0.5162 -0.1350 -0.8149
56262SOL    HW174623   6.993   1.660   3.086  3.4987  0.8868  0.7835
56262SOL    HW274624   6.913   1.772   3.149  1.9298 -0.4701  1.2607
56263SOL     OW74625   3.635   9.492   8.028  0.3784 -0.3909 -0.1969
56263SOL    HW174626   3.590   9.560   8.079  1.3328 -0.0235  0.1692
56263SOL    HW274627   3.620   9.516   7.937 -0.1847 -0.2908 -0.0841
56264SOL     OW74628   1.550   2.106  11.930  0.0199 -0.0714 -0.3517
56264SOL    HW174629   1.517   2.018  11.946  0.5108 -0.4622 -1.4393
56264SOL    HW274630   1.475   2.163  11.948  0.4274 -0.4189  3.1150
56265SOL     OW74631   9.340  12.306   2.164  0.5873 -0.3358 -0.4405
56265SOL    HW174632   9.361  12.255   2.243  0.2837  1.3755  0.7977
56265SOL    HW274633   9.417  12.361   2.150 -1.2273  3.2564  1.9312
56266SOL     OW74634   1.891  11.658   0.398 -0.3883 -0.4579  0.1785
56266SOL    HW174635   1.942  11.650   0.478 -0.6415  0.3637  0.4320
56266SOL    HW274636   1.947  11.620   0.330  0.1725 -0.4079  0.6098
56267SOL     OW74637   4.369   1.348   7.311  0.2704 -0.3945  0.4555
56267SOL    HW174638   4.449   1.395   7.289  0.5605 -1.6198 -1.2858
56267SOL    HW274639   4.397   1.282   7.375  0.6779 -0.8415 -0.1747
56268SOL     OW74640   6.486   7.702  11.137 -0.6581 -0.1390  0.2810
56268SOL    HW174641   6.548   7.681  11.207  0.6534  0.0983 -0.7755
56268SOL    HW274642   6.433   7.622  11.127  0.3959 -0.8513  0.2656
56269SOL     OW74643   7.279   6.745   9.014  0.1997 -0.1741 -0.4016
56269SOL    HW174644   7.307   6.785   8.931 -1.0136 -0.1444 -0.8134
56269SOL    HW274645   7.308   6.654   9.008  0.3814 -0.0975 -0.7239
56270SOL     OW74646   1.165   3.363   2.433  0.1601  0.1708 -0.4510
56270SOL    HW174647   1.087   3.372   2.378  0.1030 -2.0378 -0.8173
56270SOL    HW274648   1.131   3.342   2.520  0.1342 -4.7474 -1.3339
56271SOL     OW74649   1.370   1.468   7.763 -0.3138  0.7259  0.2940
56271SOL    HW174650   1.435   1.529   7.727 -0.1367  0.0163 -0.6223
56271SOL    HW274651   1.376   1.391   7.707 -0.1285 -0.3854  1.7935
56272SOL     OW74652   5.390   7.621   4.637  0.2238  0.5984 -0.1603
56272SOL    HW174653   5.450   7.607   4.564  0.1842  1.4457 -0.3647
56272SOL    HW274654   5.441   7.669   4.702  0.5299 -0.9114  0.7702
56273SOL     OW74655   5.884   2.241   3.080  0.1561 -0.1121  0.4643
56273SOL    HW174656   5.805   2.207   3.037 -0.2633  0.0326  1.1104
56273SOL    HW274657   5.951   2.177   3.059 -0.3738 -0.7750  0.7496
56274SOL     OW74658  11.213   8.385   9.380 -0.0732 -0.1580 -0.4866
56274SOL    HW174659  11.255   8.469   9.399  0.9261 -0.6031 -0.6576
56274SOL    HW274660  11.259   8.352   9.303 -0.0779 -1.1152 -0.0957
56275SOL     OW74661   3.845   2.365  11.933 -0.3283  0.4913 -0.2493
56275SOL    HW174662   3.907   2.312  11.883  0.2328 -0.0158  0.9279
56275SOL    HW274663   3.762   2.354  11.887 -0.0351 -0.7100 -0.5480
56276SOL     OW74664   0.088   9.505  11.620  0.7684 -0.7013  0.2287
56276SOL    HW174665   0.083   9.543  11.708  0.9727 -0.8902  0.3224
56276SOL    HW274666   0.175   9.465  11.616  0.4876 -1.3351  0.2099
56277SOL     OW74667   4.636   7.722   1.191  0.0595 -0.4234 -0.5882
56277SOL    HW174668   4.546   7.693   1.207 -0.4477  1.7128  0.9608
56277SOL    HW274669   4.626   7.807   1.148  1.3483 -0.3186 -0.7133
56278SOL     OW74670   0.691  11.262  10.772  0.4193  0.5370 -0.4036
56278SOL    HW174671   0.714  11.341  10.722 -1.4294  1.5863  0.2731
56278SOL    HW274672   0.729  11.277  10.858  1.0148  0.1642 -0.6024
56279SOL     OW74673   8.636   1.465   5.802 -0.0559 -0.5692 -0.6139
56279SOL    HW174674   8.646   1.557   5.824 -3.3904 -0.0953 -0.5696
56279SOL    HW274675   8.599   1.465   5.714 -0.7900 -1.7935 -0.3316
56280SOL     OW74676   3.860   8.674  12.174  0.2513  0.0659 -0.0998
56280SOL    HW174677   3.821   8.614  12.110  1.1624  1.9640 -2.6177
56280SOL    HW274678   3.787   8.727  12.205 -0.1503 -0.6777  0.2656
56281SOL     OW74679   9.731   7.800   9.995  0.2094 -0.4814  1.0593
56281SOL    HW174680   9.667   7.732  10.018  1.2560 -1.0287  2.5248
56281SOL    HW274681   9.805   7.751   9.959  0.1043  0.0977  0.0088
56282SOL     OW74682   6.814   7.394   8.810 -0.0536 -0.5946  0.0978
56282SOL    HW174683   6.875   7.387   8.883 -1.4611 -0.0352  1.3665
56282SOL    HW274684   6.769   7.309   8.807  1.5927 -1.4953 -1.6566
56283SOL     OW74685   0.810   6.631   3.436 -0.0064  0.2290  0.0589
56283SOL    HW174686   0.719   6.604   3.450 -0.4578  1.1947 -0.9160
56283SOL    HW274687   0.839   6.581   3.360 -0.2741  1.1290 -0.6534
56284SOL     OW74688  10.747   1.126   4.591  0.0678  0.1244 -0.1623
56284SOL    HW174689  10.679   1.119   4.525  0.7816  0.0580 -0.8986
56284SOL    HW274690  10.700   1.150   4.671 -0.7543  0.6286 -0.7786
56285SOL     OW74691   1.016   7.721   5.761 -0.2449 -0.6720  0.4876
56285SOL    HW174692   0.987   7.633   5.787 -1.6443 -0.0201  1.2862
56285SOL    HW274693   0.972   7.779   5.823 -2.1423  0.8518 -2.1021
56286SOL     OW74694  11.888   6.005   5.499 -0.3644 -0.1453  0.1356
56286SOL    HW174695  11.796   5.979   5.510 -1.3548  3.2331  1.0831
56286SOL    HW274696  11.884   6.084   5.445  2.0000  0.2471  0.4227
56287SOL     OW74697   1.875   1.357   4.303  0.2891  0.3771 -0.4894
56287SOL    HW174698   1.816   1.397   4.238 -0.0179  0.3725 -0.2135
56287SOL    HW274699   1.914   1.432   4.348  0.3740  0.3784 -0.5656
56288SOL     OW74700  11.594   7.007   6.688 -0.0853  0.3270 -0.0376
56288SOL    HW174701  11.659   6.966   6.745 -0.6863  0.7737  1.0200
56288SOL    HW274702  11.632   7.092   6.664 -0.3078  0.6387  0.6763
56289SOL     OW74703   8.999   0.779   6.267  0.7594 -0.0798 -0.4141
56289SOL    HW174704   9.007   0.807   6.176  0.8721  1.0828 -0.0542
56289SOL    HW274705   8.936   0.839   6.305  0.4211 -0.8030  0.1883
56290SOL     OW74706   1.562  11.310   6.025 -0.4051  0.3126 -0.5522
56290SOL    HW174707   1.598  11.323   5.937  0.2097  0.1797 -0.3243
56290SOL    HW274708   1.533  11.219   6.026 -2.1642  0.8208 -1.2332
56291SOL     OW74709   0.182   2.865  11.687 -0.1443 -0.1598 -0.1084
56291SOL    HW174710   0.213   2.809  11.615 -2.1012 -3.7819  1.5554
56291SOL    HW274711   0.212   2.820  11.766 -1.1419  1.6894  1.3873
56292SOL     OW74712   0.100   4.494   0.136 -0.3502  0.3967 -0.5773
56292SOL    HW174713   0.143   4.465   0.216  3.0861  0.8319 -2.0807
56292SOL    HW274714   0.150   4.454   0.065  0.2703  4.2353 -2.6061
56293SOL     OW74715   9.048  11.224   5.664  0.2533 -0.2976  0.6302
56293SOL    HW174716   9.009  11.308   5.690  0.6610 -0.8370  3.2748
56293SOL    HW274717   9.140  11.232   5.689  0.8339 -0.7472 -1.2213
56294SOL     OW74718   8.590   1.441   0.358  0.3832  0.2023 -0.1909
56294SOL    HW174719   8.624   1.530   0.344  0.5483  0.2825  0.6821
56294SOL    HW274720   8.590   1.430   0.453  0.9462 -0.9588 -0.3102
56295SOL     OW74721  10.908   4.236  12.139  0.2073 -0.1304 -0.1470
56295SOL    HW174722  10.850   4.201  12.071 -0.6215  1.1465 -0.1330
56295SOL    HW274723  10.996   4.223  12.104 -0.1512 -0.6752 -0.8821
56296SOL     OW74724   4.256   2.231   9.664 -0.0327 -0.2442  0.3988
56296SOL    HW174725   4.340   2.219   9.708  0.4273 -2.3791 -0.8929
56296SOL    HW274726   4.193   2.186   9.720 -0.1473  0.4659  0.8479
56297SOL     OW74727   0.296   8.750  11.426  0.3718  0.4184 -0.5328
56297SOL    HW174728   0.354   8.707  11.363  1.6909 -0.7652  1.3799
56297SOL    HW274729   0.351   8.766  11.503 -1.9176 -1.2843  1.6248
56298SOL     OW74730   6.455   9.560   5.514 -0.2157 -0.1089  0.2380
56298SOL    HW174731   6.415   9.597   5.435  0.4139  1.0661  0.4465
56298SOL    HW274732   6.405   9.598   5.586 -0.0491 -0.2619  0.4342
56299SOL     OW74733   5.978   8.469   8.389  0.2359  0.1245  0.8700
56299SOL    HW174734   5.926   8.404   8.435 -1.1112 -1.2696 -2.3548
56299SOL    HW274735   5.931   8.551   8.401  0.4677  0.0353  2.6807
56300SOL     OW74736  10.105   0.476   7.120  0.3587  0.2532  0.4390
56300SOL    HW174737  10.047   0.423   7.066  0.3222  0.5939  0.1381
56300SOL    HW274738  10.111   0.560   7.074  1.4363  0.0772  0.2336
56301SOL     OW74739   3.602   2.856   4.612  0.1870  0.2144  0.2935
56301SOL    HW174740   3.682   2.804   4.609 -0.2356 -0.4162 -1.7238
56301SOL    HW274741   3.624   2.938   4.569 -0.4429 -0.3263 -1.1354
56302SOL     OW74742   4.138   5.679  10.373 -0.1602 -0.2185  0.5347
56302SOL    HW174743   4.051   5.706  10.344  0.4748  1.4863  0.0754
56302SOL    HW274744   4.196   5.751  10.346  0.9120  0.2813  3.7115
56303SOL     OW74745   7.161   6.374  12.152 -0.0410  0.3473  0.1525
56303SOL    HW174746   7.084   6.421  12.184  1.1359  1.2173  1.9243
56303SOL    HW274747   7.199   6.334  12.231  1.6952  0.5418 -0.5313
56304SOL     OW74748   3.710   4.312   8.197  0.2576  0.2076  0.6546
56304SOL    HW174749   3.634   4.263   8.165  0.9292 -0.8137  0.5674
56304SOL    HW274750   3.682   4.349   8.280 -0.9697  1.4871 -0.2860
56305SOL     OW74751   0.791   6.466   0.785  0.2354  0.2745  0.4090
56305SOL    HW174752   0.878   6.507   0.786  1.1255 -1.4074 -1.5944
56305SOL    HW274753   0.751   6.496   0.704 -0.4448 -0.1704  0.5737
56306SOL     OW74754   5.463   7.969  11.823  0.8533  0.0959 -0.1406
56306SOL    HW174755   5.464   7.875  11.843  0.2237 -0.0821 -0.8869
56306SOL    HW274756   5.373   7.996  11.842  1.0085  0.5309 -0.0173
56307SOL     OW74757   2.846   6.355   5.343  0.1230  0.3197 -0.0251
56307SOL    HW174758   2.835   6.398   5.259 -2.4277  0.9100  0.5204
56307SOL    HW274759   2.777   6.288   5.346  1.1574 -0.7605  0.9709
56308SOL     OW74760   5.787  12.156   0.354 -0.3640  0.2539 -0.2328
56308SOL    HW174761   5.772  12.092   0.422  1.7471 -0.0409  0.0177
56308SOL    HW274762   5.849  12.115   0.294 -1.6313  0.7581 -2.0100
56309SOL     OW74763   0.449   3.167  11.135 -0.5211  0.1120 -0.2589
56309SOL    HW174764   0.401   3.195  11.058 -0.1814  1.3823 -0.0220
56309SOL    HW274765   0.498   3.090  11.106  0.2581  1.0634 -1.5661
56310SOL     OW74766   7.578   6.527   0.386  0.2097  0.2944  0.0030
56310SOL    HW174767   7.601   6.534   0.479 -0.1986  1.3243  0.0377
56310SOL    HW274768   7.607   6.439   0.361 -0.4077 -0.3127  1.3066
56311SOL     OW74769   3.627   4.047   7.835  0.2759  0.3681 -0.0715
56311SOL    HW174770   3.558   4.100   7.875 -1.2629 -0.6361 -1.2522
56311SOL    HW274771   3.619   4.065   7.741  0.3878 -1.1417 -0.3991
56312SOL     OW74772   5.035   2.670   4.317 -0.3271 -0.1037 -0.1299
56312SOL    HW174773   5.010   2.620   4.395  2.6082 -0.2995  0.7944
56312SOL    HW274774   5.130   2.670   4.317 -0.2018  0.8796 -3.1420
56313SOL     OW74775   1.487   4.009  11.639 -0.3702  0.1141  0.1420
56313SOL    HW174776   1.432   4.046  11.708  2.3697 -0.0623  2.6170
56313SOL    HW274777   1.550   4.078  11.618  2.2206 -1.5847  1.8411
56314SOL     OW74778   9.544   3.205   0.118  0.2464  0.3845 -0.0571
56314SOL    HW174779   9.593   3.271   0.069 -1.2582  0.6940 -1.2600
56314SOL    HW274780   9.488   3.255   0.177  2.0563  0.0070  2.0853
56315SOL     OW74781   1.254   7.197   8.590 -0.3456  0.4312  0.5123
56315SOL    HW174782   1.289   7.156   8.669 -0.8033  0.9289  0.9892
56315SOL    HW274783   1.267   7.290   8.604 -1.8786  0.6435  0.7506
56316SOL     OW74784   7.206   7.949   8.571 -0.0115 -0.2211 -0.4872
56316SOL    HW174785   7.252   7.968   8.653  0.6685 -0.0667 -0.9000
56316SOL    HW274786   7.178   8.034   8.539  1.7419 -0.0265 -1.5826
56317SOL     OW74787  12.253  10.826   9.171  0.0242  0.1539 -0.0582
56317SOL    HW174788  12.163  10.794   9.167  0.0900 -0.1135  0.5545
56317SOL    HW274789  12.273  10.853   9.081 -0.9092  0.9031 -0.0546
56318SOL     OW74790   6.027   2.621   8.526 -0.3733  0.9312 -0.4723
56318SOL    HW174791   5.955   2.672   8.563 -2.0358 -0.8642 -1.0308
56318SOL    HW274792   6.014   2.625   8.431  0.6455  1.0637 -0.6248
56319SOL     OW74793   7.139   7.262   6.286  0.0858  0.3943 -0.0682
56319SOL    HW174794   7.216   7.234   6.336 -0.7107 -0.7573  0.5704
56319SOL    HW274795   7.175   7.295   6.203  1.1424 -3.3150 -1.2846
56320SOL     OW74796   6.795  10.478  12.077  0.0017  0.3108  0.0193
56320SOL    HW174797   6.768  10.523  12.158 -0.6590 -0.1509  0.0612
56320SOL    HW274798   6.720  10.487  12.018  0.4159  0.4924 -0.4851
56321SOL     OW74799   3.895   0.386   4.306  0.4053  0.5827  0.5851
56321SOL    HW174800   3.970   0.338   4.271 -0.8364 -0.9718 -0.0790
56321SOL    HW274801   3.865   0.441   4.233 -1.0325 -1.2462 -0.2812
56322SOL     OW74802  11.635   7.190   5.994 -0.4452 -0.4170  0.3223
56322SOL    HW174803  11.731   7.182   5.992 -0.2513  1.2562  0.9720
56322SOL    HW274804  11.614   7.241   5.915 -0.3232  2.6115  2.0800
56323SOL     OW74805   6.169   3.583  10.989  0.1325  0.0136  0.0636
56323SOL    HW174806   6.130   3.570  10.903 -1.2605  0.7918  0.5449
56323SOL    HW274807   6.263   3.588  10.973 -0.1185  0.3194 -1.4250
56324SOL     OW74808   9.490  10.618   5.372  0.0270  0.5947 -0.1429
56324SOL    HW174809   9.499  10.657   5.459  1.8118  0.8817 -0.4055
56324SOL    HW274810   9.543  10.538   5.377  1.9052  1.6675 -1.5135
56325SOL     OW74811  10.835   5.658   2.721  0.6108 -0.0238 -0.3016
56325SOL    HW174812  10.905   5.594   2.713  0.0974 -0.5032 -1.0822
56325SOL    HW274813  10.766   5.626   2.663  0.7606  1.7666 -1.5571
56326SOL     OW74814   9.934   0.074   7.864 -0.1365  0.3408  0.2725
56326SOL    HW174815   9.865   0.119   7.913 -0.9063 -0.4716 -0.0319
56326SOL    HW274816   9.926  -0.018   7.889  0.1531  0.0787 -0.5456
56327SOL     OW74817   4.119   5.670   0.985 -0.1090  0.0250 -0.2873
56327SOL    HW174818   4.115   5.703   1.075  0.9406  1.0352 -0.5820
56327SOL    HW274819   4.210   5.684   0.959 -0.0920 -1.3982 -1.0972
56328SOL     OW74820   0.019   4.281   7.894 -0.4451  0.4178  0.5553
56328SOL    HW174821   0.009   4.187   7.903  0.1569  0.2974  0.0136
56328SOL    HW274822  -0.045   4.305   7.826  0.4410  0.1627 -0.4003
56329SOL     OW74823   6.859   1.904   3.299  0.2552  0.3727 -0.0693
56329SOL    HW174824   6.923   1.959   3.255  0.4643  0.5006  0.3842
56329SOL    HW274825   6.775   1.926   3.258  0.2042  1.6201  0.6290
56330SOL     OW74826   4.552  11.571   3.799 -0.5696  0.3078  1.0123
56330SOL    HW174827   4.616  11.542   3.734 -2.6316  1.1675 -1.5891
56330SOL    HW274828   4.521  11.655   3.766 -2.4806  0.2731  2.5611
56331SOL     OW74829   2.048   1.808   4.484  0.2911 -0.2054  0.0391
56331SOL    HW174830   2.132   1.771   4.460  0.9642  2.1087 -1.4688
56331SOL    HW274831   2.069   1.892   4.524 -1.2636 -0.3239  1.2233
56332SOL     OW74832  10.801  10.499  10.869 -1.0884  0.6198 -0.0262
56332SOL    HW174833  10.795  10.494  10.965 -0.1648  0.5768  0.0345
56332SOL    HW274834  10.825  10.410  10.842  1.0451  1.1570 -0.0837
56333SOL     OW74835   1.887   3.631  10.499 -0.6321  0.2173  0.0926
56333SOL    HW174836   1.944   3.613  10.574  1.0626  1.3071 -0.8692
56333SOL    HW274837   1.823   3.695  10.532  0.2220  0.8504  0.5577
56334SOL     OW74838   6.774   8.537   6.528  0.1188 -0.5469  0.0831
56334SOL    HW174839   6.736   8.570   6.446  2.3367  0.4388 -0.6121
56334SOL    HW274840   6.781   8.615   6.584  3.3515 -0.0881 -0.7568
56335SOL     OW74841  11.546   2.512   7.945  0.1706  0.2176  0.3396
56335SOL    HW174842  11.603   2.588   7.955 -0.4953  1.0439 -1.5598
56335SOL    HW274843  11.594   2.454   7.884  0.1211 -0.3090  0.7916
56336SOL     OW74844   7.236   0.807   6.139 -0.0769  0.5003 -0.0666
56336SOL    HW174845   7.188   0.890   6.130  0.4646  0.7255 -1.0761
56336SOL    HW274846   7.327   0.832   6.152 -0.2317  0.0759  2.2624
56337SOL     OW74847   1.877   6.129   0.606  0.5597  0.0885 -0.2042
56337SOL    HW174848   1.785   6.128   0.634  0.3941  0.5621 -0.7132
56337SOL    HW274849   1.874   6.161   0.516  1.2225  0.0427 -0.2449
56338SOL     OW74850   3.168   9.620  11.129 -0.3652 -0.0426  0.5115
56338SOL    HW174851   3.133   9.708  11.114 -1.6707 -0.2111  2.2756
56338SOL    HW274852   3.094   9.570  11.162  0.4121 -1.7799 -0.2472
56339SOL     OW74853   2.304   1.989  11.335  0.1381  0.8358 -0.0341
56339SOL    HW174854   2.383   1.935  11.332 -0.2574  0.2696 -1.1324
56339SOL    HW274855   2.232   1.925  11.328 -0.3480  1.4730 -1.1308
56340SOL     OW74856   6.330   7.843   7.039 -0.0144 -0.5428  0.4654
56340SOL    HW174857   6.416   7.870   7.069 -0.3787  1.8297 -0.4183
56340SOL    HW274858   6.342   7.752   7.010  1.5330 -1.1511  2.7100
56341SOL     OW74859   1.808   7.628   7.164  0.1513  0.2941  0.3593
56341SOL    HW174860   1.901   7.650   7.171  0.2881  0.1607 -0.8062
56341SOL    HW274861   1.797   7.603   7.072 -0.9497 -0.1001  0.5915
56342SOL     OW74862   6.177  11.536   7.174  0.4476 -0.4693  0.1644
56342SOL    HW174863   6.259  11.505   7.137 -0.5961 -1.4036 -1.5091
56342SOL    HW274864   6.131  11.456   7.200 -1.6685 -0.4147 -2.8485
56343SOL     OW74865   0.127  10.541   4.024  0.2222  0.5419 -0.6145
56343SOL    HW174866   0.188  10.521   3.953  2.0992 -2.1691  1.5219
56343SOL    HW274867   0.144  10.632   4.046  0.9294  0.8738 -2.3429
56344SOL     OW74868   1.299   8.158  11.377 -0.6815 -0.4211 -0.3077
56344SOL    HW174869   1.229   8.188  11.435  0.8894  1.5664  0.6987
56344SOL    HW274870   1.319   8.233  11.322  2.2348 -0.0290  1.0862
56345SOL     OW74871   1.478  10.787   3.256 -0.2862  0.0052 -0.2123
56345SOL    HW174872   1.404  10.833   3.218  0.5673  0.2734 -1.6322
56345SOL    HW274873   1.439  10.726   3.319 -1.6738  0.3860 -0.6680
56346SOL     OW74874  11.362   0.673   0.709 -0.1195 -0.4943 -0.3216
56346SOL    HW174875  11.269   0.672   0.687 -0.8546  1.4581  2.2445
56346SOL    HW274876  11.404   0.709   0.631 -1.3749 -1.8848 -1.7229
56347SOL     OW74877   2.878   1.902  10.730 -0.1452 -0.5612  0.0547
56347SOL    HW174878   2.848   1.894  10.639 -0.7886 -0.6149  0.2628
56347SOL    HW274879   2.807   1.947  10.775  0.2335 -0.4014  0.5039
56348SOL     OW74880   8.693   2.979   7.148  0.2187 -0.0403 -0.0492
56348SOL    HW174881   8.680   2.970   7.242  0.1448  1.1887  0.0783
56348SOL    HW274882   8.692   3.074   7.133 -3.0573 -0.1959 -1.7368
56349SOL     OW74883   4.187   9.257  11.729  0.1038  0.5774  0.1277
56349SOL    HW174884   4.225   9.169  11.727 -0.6970  0.1682  1.7266
56349SOL    HW274885   4.221   9.299  11.650  2.6281 -0.2744  0.6704
56350SOL     OW74886   2.557   5.243  11.196 -0.4215  0.1141 -0.0430
56350SOL    HW174887   2.575   5.232  11.289 -1.3520  1.5536  0.3296
56350SOL    HW274888   2.484   5.183  11.178  0.3895 -0.8986 -0.1048
56351SOL     OW74889   7.052  11.049  11.350  0.6109 -0.1891  0.1891
56351SOL    HW174890   7.083  11.130  11.309 -0.0497 -0.6725 -1.3648
56351SOL    HW274891   7.033  10.991  11.276 -0.8771 -1.0407  1.1844
56352SOL     OW74892   7.690   2.728   1.615 -0.0511 -0.3502 -0.7947
56352SOL    HW174893   7.756   2.700   1.678  0.5028  2.7078  0.1592
56352SOL    HW274894   7.607   2.696   1.650  0.2224  1.3583  1.6679
56353SOL     OW74895   6.853   1.838   5.005  0.0258 -0.0792  0.0665
56353SOL    HW174896   6.878   1.770   4.942 -0.0568  1.4918 -1.7362
56353SOL    HW274897   6.820   1.910   4.952 -1.5214  0.7453  2.0078
56354SOL     OW74898   7.436   6.820   2.590  0.3007  0.0508 -0.3474
56354SOL    HW174899   7.487   6.805   2.510 -0.1802 -0.2272 -0.6083
56354SOL    HW274900   7.483   6.771   2.658 -1.2332 -2.7966 -1.1693
56355SOL     OW74901   1.526   4.524   8.447  0.1359  0.4593 -0.6267
56355SOL    HW174902   1.605   4.499   8.495 -0.6815 -1.1540 -0.0251
56355SOL    HW274903   1.543   4.498   8.357  0.3321  0.1665 -0.5080
56356SOL     OW74904   4.186   7.797   4.941  0.5769 -0.8331  0.3094
56356SOL    HW174905   4.256   7.740   4.972 -0.5299 -1.4760  1.7271
56356SOL    HW274906   4.161   7.849   5.017  0.6419  0.6109 -0.6121
56357SOL     OW74907   6.338  10.985   3.719  0.3417  0.1188 -0.2393
56357SOL    HW174908   6.366  10.975   3.810 -0.1188  0.2771 -0.0798
56357SOL    HW274909   6.325  10.895   3.688  0.1327  0.0750 -0.0322
56358SOL     OW74910   7.135   9.680   5.320 -0.2388  0.6668 -0.4072
56358SOL    HW174911   7.162   9.771   5.332  0.3963  0.5981 -1.2600
56358SOL    HW274912   7.094   9.657   5.403  2.5144  0.7144  1.0995
56359SOL     OW74913   6.364   5.365   6.674 -0.3009 -0.1430 -0.4391
56359SOL    HW174914   6.441   5.307   6.674 -0.0613  0.1432 -2.1780
56359SOL    HW274915   6.398   5.450   6.648 -1.3455 -0.2748 -2.4217
56360SOL     OW74916  11.310   5.265   7.016 -0.2454 -0.1408 -0.0678
56360SOL    HW174917  11.228   5.215   7.013  0.4994 -1.3764 -0.2384
56360SOL    HW274918  11.297   5.333   6.950 -1.7207  0.6477  0.9690
56361SOL     OW74919  11.519  10.544   6.152 -0.4422 -0.5456  0.6091
56361SOL    HW174920  11.598  10.505   6.116 -0.6840 -1.9463  1.5100
56361SOL    HW274921  11.494  10.611   6.089  0.6653 -1.0497 -0.4002
56362SOL     OW74922   4.001  10.122   2.552  0.2377 -0.6153  0.3794
56362SOL    HW174923   4.022  10.213   2.575 -0.8757 -0.4692  0.9182
56362SOL    HW274924   4.019  10.073   2.632  1.0583 -0.9139  0.0160
56363SOL     OW74925   3.345   9.790  12.065 -0.5585  0.6913  0.0759
56363SOL    HW174926   3.278   9.729  12.033  0.1157  0.6249 -1.2931
56363SOL    HW274927   3.390   9.819  11.986  0.5308  1.3280  0.9039
56364SOL     OW74928   4.579  11.192   7.112 -0.6419  0.2890 -0.2312
56364SOL    HW174929   4.521  11.128   7.071 -0.5920  0.0996 -0.0095
56364SOL    HW274930   4.520  11.261   7.142 -0.6772  0.4300 -0.6243
56365SOL     OW74931   5.343  10.230   8.528  0.3580  0.4640  0.1942
56365SOL    HW174932   5.322  10.211   8.620 -0.2409  0.7550  0.1214
56365SOL    HW274933   5.419  10.176   8.510  0.2020  0.0499  0.7329
56366SOL     OW74934   2.089   3.804   8.812 -0.1283  0.0116 -0.7623
56366SOL    HW174935   2.120   3.828   8.900  0.0691 -0.9479 -0.5583
56366SOL    HW274936   2.097   3.885   8.761  0.9921  0.2525 -0.2376
56367SOL     OW74937  12.226   7.701   6.646  0.1246  0.4058 -0.0753
56367SOL    HW174938  12.170   7.761   6.598  0.4617 -0.1113 -1.1324
56367SOL    HW274939  12.309   7.747   6.654  0.8986 -0.4826 -2.2729
56368SOL     OW74940   1.608  10.906   5.093 -0.0164  0.0974  0.2745
56368SOL    HW174941   1.588  10.975   5.156  0.3633  0.2274  0.2559
56368SOL    HW274942   1.656  10.950   5.023 -1.5823  0.2244 -0.7767
56369SOL     OW74943  11.931   0.870   7.564  0.3743 -0.1322 -0.2876
56369SOL    HW174944  11.899   0.794   7.614  0.2067 -0.1811 -0.4672
56369SOL    HW274945  12.020   0.884   7.596  1.5705 -2.2588 -2.3174
56370SOL     OW74946   3.422   4.130   4.482 -0.0364 -0.0881  0.3694
56370SOL    HW174947   3.438   4.188   4.408  1.2461 -0.0158  0.6889
56370SOL    HW274948   3.508   4.095   4.505 -0.9159 -3.1591 -0.6329
56371SOL     OW74949   2.214   1.191   9.537 -0.6461  0.2487 -0.7985
56371SOL    HW174950   2.276   1.125   9.567  0.7468  0.9651 -2.0237
56371SOL    HW274951   2.180   1.157   9.454 -1.1540  0.3273 -0.6277
56372SOL     OW74952   2.480   4.103  10.471  0.3368 -0.3051 -0.5041
56372SOL    HW174953   2.432   4.024  10.498 -1.2067  0.9242  0.4709
56372SOL    HW274954   2.573   4.078  10.480 -0.0939 -1.2586  2.1572
56373SOL     OW74955   5.122   8.030   5.444 -0.3432  0.1244  0.1397
56373SOL    HW174956   5.135   8.049   5.351 -0.8022  1.6409  0.3578
56373SOL    HW274957   5.043   7.976   5.447 -2.2249  2.6271 -0.2103
56374SOL     OW74958   9.218   8.699  11.487 -0.4057 -0.3629 -0.2675
56374SOL    HW174959   9.246   8.652  11.565  0.2681  0.5926  0.0909
56374SOL    HW274960   9.161   8.769  11.520  0.7030  0.6851 -0.4890
56375SOL     OW74961   9.341   9.028   4.013 -0.4072 -0.0368 -0.1400
56375SOL    HW174962   9.339   8.933   4.009 -2.1458 -0.1974  2.3949
56375SOL    HW274963   9.411   9.048   4.076 -0.5716  0.3074 -0.0619
56376SOL     OW74964   3.129   5.922   6.111 -0.5747 -0.2381  0.5303
56376SOL    HW174965   3.043   5.894   6.144  0.1562 -0.9962  1.9054
56376SOL    HW274966   3.184   5.844   6.121  0.2348  0.1953 -0.4906
56377SOL     OW74967   4.921   7.820   8.433  0.7910  0.0413 -0.2487
56377SOL    HW174968   4.830   7.821   8.402  0.7844 -0.2210 -0.2381
56377SOL    HW274969   4.921   7.758   8.505  1.0979 -0.3770 -0.6074
56378SOL     OW74970  10.085   0.562   2.643 -0.0275  0.1201 -0.5879
56378SOL    HW174971  10.172   0.581   2.606  0.3561  1.4034  0.8832
56378SOL    HW274972  10.082   0.466   2.647  1.5720  0.0440 -0.1344
56379SOL     OW74973   5.566   4.158   8.004  0.1133 -0.0893  0.1347
56379SOL    HW174974   5.573   4.209   8.084 -0.1065 -0.6383  0.5139
56379SOL    HW274975   5.610   4.211   7.937 -0.4183  0.7461  0.4338
56380SOL     OW74976   3.686  11.450   1.459 -0.0868  0.0489  0.1130
56380SOL    HW174977   3.741  11.391   1.510  0.5671  0.5388 -0.0230
56380SOL    HW274978   3.646  11.393   1.392 -1.1656 -0.6528  1.2995
56381SOL     OW74979   0.272   0.331   5.314 -0.1337  0.2125  0.1894
56381SOL    HW174980   0.202   0.342   5.379 -0.9687  0.9624 -0.8087
56381SOL    HW274981   0.337   0.398   5.338  0.0347 -0.1606  0.8193
56382SOL     OW74982   0.397   5.797  11.203 -0.0380 -0.1179  0.2983
56382SOL    HW174983   0.364   5.878  11.166  1.0726  1.4850  2.5448
56382SOL    HW274984   0.319   5.750  11.233 -0.6245  0.9703  0.5398
56383SOL     OW74985   1.346   3.442   8.404 -0.1367  0.3040  0.3234
56383SOL    HW174986   1.291   3.505   8.358 -1.8626 -1.3531 -0.0401
56383SOL    HW274987   1.291   3.409   8.475  0.1215 -1.8242 -0.3833
56384SOL     OW74988   7.661   3.785   6.712 -0.0429  0.2946 -0.4211
56384SOL    HW174989   7.629   3.728   6.642  1.8250 -0.8540 -0.3978
56384SOL    HW274990   7.703   3.858   6.665  2.5329 -1.2129 -0.6230
56385SOL     OW74991  10.089  12.040  12.155 -0.1827  0.1767  0.1944
56385SOL    HW174992  10.036  12.023  12.076  1.4380 -1.0806 -0.6866
56385SOL    HW274993  10.135  11.958  12.170  1.3457  1.1654  1.0555
56386SOL     OW74994   8.451   3.138   8.070 -0.4985 -0.6734  0.1207
56386SOL    HW174995   8.465   3.165   8.161 -0.1900 -0.8553  0.1312
56386SOL    HW274996   8.513   3.191   8.020 -1.2873  0.0679 -0.0887
56387SOL     OW74997   8.796  11.118   3.153 -0.3316 -0.0168 -0.3023
56387SOL    HW174998   8.871  11.104   3.096 -0.0471  1.1283 -0.2354
56387SOL    HW274999   8.824  11.087   3.239 -0.5170 -1.0994 -0.6203
56388SOL     OW75000   1.734   0.184   0.622  0.0507 -0.3766  0.5608
56388SOL    HW175001   1.659   0.176   0.562  1.1251 -0.8202 -0.7739
56388SOL    HW275002   1.811   0.169   0.567  1.2682  1.8241  1.5390
56389SOL     OW75003   1.346   7.908   0.348 -0.4040  0.0791  0.2731
56389SOL    HW175004   1.262   7.868   0.322  0.4570 -0.8070 -1.3534
56389SOL    HW275005   1.323   7.971   0.415 -2.3380 -0.4101  0.1347
56390SOL     OW75006   5.189   4.807   8.726 -0.0373 -0.0249  0.0330
56390SOL    HW175007   5.120   4.749   8.759  0.0089  0.2522  0.6323
56390SOL    HW275008   5.268   4.752   8.727 -0.2554 -0.3608 -0.7134
56391SOL     OW75009  10.709   5.691   2.153 -0.3629 -0.3107 -0.3274
56391SOL    HW175010  10.690   5.756   2.087 -0.5637  0.6588  0.6533
56391SOL    HW275011  10.624   5.672   2.193 -0.2246 -0.7575 -0.2384
56392SOL     OW75012   6.981   0.895   5.849  0.4025  0.0919  0.7415
56392SOL    HW175013   6.887   0.886   5.836  0.6487 -1.1926 -0.2966
56392SOL    HW275014   7.007   0.816   5.896  0.8806  0.7452  1.6223
56393SOL     OW75015   3.401   5.827  10.056 -0.4547  1.1206 -0.1215
56393SOL    HW175016   3.312   5.793  10.044 -0.5091  1.0818  0.3724
56393SOL    HW275017   3.410   5.838  10.150  1.0112 -1.4114  0.1070
56394SOL     OW75018  10.775   1.221   8.436 -0.3034 -0.1112  0.1791
56394SOL    HW175019  10.757   1.129   8.416  1.6976 -0.5190  0.0904
56394SOL    HW275020  10.702   1.269   8.396 -1.2482 -1.6202  0.0107
56395SOL     OW75021   8.326   4.420   4.007  1.0428  0.4791  0.4459
56395SOL    HW175022   8.387   4.396   3.937 -1.4003 -1.3516 -1.2654
56395SOL    HW275023   8.339   4.355   4.075  0.0510 -0.8602 -0.5906
56396SOL     OW75024   2.179   6.330   4.184 -0.1118 -0.0415  0.2152
56396SOL    HW175025   2.228   6.361   4.107  0.2342 -1.3656 -0.1297
56396SOL    HW275026   2.136   6.250   4.154 -0.7213 -0.0783  1.1502
56397SOL     OW75027   7.120   2.804  10.035  0.4315  0.3050 -0.1372
56397SOL    HW175028   7.179   2.879  10.046 -0.1099  0.5252  1.5493
56397SOL    HW275029   7.178   2.731  10.016  1.5058  0.1593  3.1681
56398SOL     OW75030   6.931  12.146   0.701 -0.0215  0.6814  0.5235
56398SOL    HW175031   6.983  12.134   0.622  0.4091  0.8231  0.7858
56398SOL    HW275032   6.980  12.100   0.770 -1.2144 -0.9044  0.3927
56399SOL     OW75033   5.490   7.338   4.205  0.0076  1.2090  0.1724
56399SOL    HW175034   5.577   7.343   4.246 -0.1747  0.6407  0.6366
56399SOL    HW275035   5.498   7.269   4.140 -0.0542  1.2572  0.1138
56400SOL     OW75036   5.537   1.741   9.084  0.8958  0.0633  0.0400
56400SOL    HW175037   5.549   1.741   8.989  0.5789 -0.2915 -0.0014
56400SOL    HW275038   5.448   1.772   9.097 -0.2454 -2.8996  0.0504
56401SOL     OW75039   1.056   2.807   4.788  0.2365  0.8046  0.6704
56401SOL    HW175040   1.087   2.826   4.699 -0.5986 -1.5588 -0.2114
56401SOL    HW275041   0.965   2.837   4.788  0.3301  1.0995  0.8652
56402SOL     OW75042  11.247   9.351   6.305  0.3238 -0.1709 -0.4630
56402SOL    HW175043  11.266   9.331   6.396 -2.2806 -1.2790 -0.0872
56402SOL    HW275044  11.315   9.304   6.256  1.1197 -0.4467  0.8600
56403SOL     OW75045   9.557   5.200   2.768 -0.5376  0.3629  0.2369
56403SOL    HW175046   9.603   5.196   2.684 -0.4487 -1.5710  0.3232
56403SOL    HW275047   9.620   5.237   2.829  0.3667 -0.7489  0.0029
56404SOL     OW75048   1.381  10.062   5.771  0.6206 -0.2908 -0.3403
56404SOL    HW175049   1.398  10.028   5.859  1.4643  1.9046  0.4103
56404SOL    HW275050   1.307  10.009   5.739  1.3023 -2.1953  1.0197
56405SOL     OW75051   6.010   2.988   9.708 -0.2790  0.7032  0.2444
56405SOL    HW175052   5.995   3.037   9.627 -1.0547 -0.5051 -0.3728
56405SOL    HW275053   5.935   2.928   9.714 -0.3550  0.9355  1.9883
56406SOL     OW75054   0.423   8.678   8.022  0.1439 -0.0191 -0.1180
56406SOL    HW175055   0.349   8.651   8.078  1.0370 -1.2190  0.5455
56406SOL    HW275056   0.481   8.726   8.081  0.6284 -0.4490 -0.2377
56407SOL     OW75057  10.064   9.303   1.803  0.3244 -0.2403 -0.2527
56407SOL    HW175058  10.145   9.324   1.850 -0.0742  0.1104  0.2840
56407SOL    HW275059   9.997   9.354   1.847  0.0986  0.9187 -1.8482
56408SOL     OW75060   4.474   9.372   4.391  0.4329  0.3427  0.2326
56408SOL    HW175061   4.569   9.368   4.378  0.3600 -0.7031 -0.1198
56408SOL    HW275062   4.438   9.323   4.317 -0.4678  1.8778 -0.3944
56409SOL     OW75063  11.939   4.089   4.482  0.3961  0.2188 -0.3595
56409SOL    HW175064  11.927   4.000   4.448 -2.0066 -0.1180  1.0941
56409SOL    HW275065  11.990   4.078   4.562  0.2935  0.1681 -0.3005
56410SOL     OW75066  10.056   8.330   9.343 -0.2577  0.4069 -0.2010
56410SOL    HW175067   9.979   8.344   9.398 -0.8336 -1.6271 -0.4046
56410SOL    HW275068  10.122   8.389   9.379 -1.4324  1.0728  0.9578
56411SOL     OW75069   6.598   4.195   2.741  0.1920 -0.3005  0.6934
56411SOL    HW175070   6.527   4.131   2.748 -0.0203  0.0825  2.4480
56411SOL    HW275071   6.555   4.279   2.728  0.3341 -0.1577  1.1075
56412SOL     OW75072   6.897  10.105   0.781  0.1216  0.4997  0.1283
56412SOL    HW175073   6.843  10.179   0.755 -1.4715 -0.2879  1.0881
56412SOL    HW275074   6.921  10.123   0.872 -3.1716 -1.6415  1.6386
56413SOL     OW75075   1.462   0.380   9.103 -0.4961  0.1297  0.1409
56413SOL    HW175076   1.398   0.450   9.117 -1.0254 -0.3481  0.1730
56413SOL    HW275077   1.440   0.315   9.169  0.6631  0.3860  0.8006
56414SOL     OW75078   7.621  11.987   8.866 -0.0782 -0.0593  0.2257
56414SOL    HW175079   7.707  12.028   8.870 -0.0731 -0.0521  0.0521
56414SOL    HW275080   7.559  12.058   8.882 -0.0402 -0.1314  0.7267
56415SOL     OW75081   8.023   2.073   7.749  0.3941 -0.3959  0.1116
56415SOL    HW175082   7.943   2.021   7.760  0.5614 -1.2524 -2.1603
56415SOL    HW275083   8.094   2.011   7.768  0.5487 -0.2096  0.1358
56416SOL     OW75084  11.688   1.822   8.964 -0.4756  0.1889  0.2414
56416SOL    HW175085  11.759   1.831   9.027 -0.4969 -1.6198  0.5800
56416SOL    HW275086  11.697   1.733   8.930 -1.3470  0.6287 -1.2337
56417SOL     OW75087   3.578   2.147   0.245  0.3285 -0.2569 -0.7848
56417SOL    HW175088   3.664   2.121   0.211  0.3986  0.9959 -1.6426
56417SOL    HW275089   3.577   2.243   0.237 -1.5410 -0.3149 -1.7917
56418SOL     OW75090   2.541   4.765   2.637 -0.0126  0.0065 -0.0659
56418SOL    HW175091   2.633   4.743   2.622 -0.3168 -1.2532 -0.1820
56418SOL    HW275092   2.507   4.783   2.549  0.0629  0.2259 -0.0501
56419SOL     OW75093   3.141  11.039   9.187 -0.2066  0.1880 -0.0616
56419SOL    HW175094   3.201  11.112   9.173 -1.0678  0.9866  0.3135
56419SOL    HW275095   3.182  10.965   9.143  1.5449  0.4640  1.0101
56420SOL     OW75096  10.624   8.641   4.468  0.0011 -0.2154  0.4426
56420SOL    HW175097  10.595   8.622   4.557 -0.3675  0.9594  0.5824
56420SOL    HW275098  10.553   8.608   4.413 -0.4052  0.3040  0.6531
56421SOL     OW75099  10.084   1.235   0.232  0.3908 -0.0204 -0.9084
56421SOL    HW175100  10.140   1.306   0.263  1.0144 -0.4183 -1.0811
56421SOL    HW275101  10.006   1.278   0.198  0.9827  0.6224 -1.4925
56422SOL     OW75102   5.466  10.225  11.489 -0.6344  0.4887 -0.0154
56422SOL    HW175103   5.472  10.286  11.416 -0.6093  0.2912 -0.1804
56422SOL    HW275104   5.402  10.265  11.549  0.3321  1.3028  0.4938
56423SOL     OW75105   1.843   4.754   0.607 -0.2351 -0.4427 -0.6560
56423SOL    HW175106   1.895   4.799   0.673 -0.6922 -0.7281 -0.0875
56423SOL    HW275107   1.819   4.671   0.648  1.2550 -1.5819 -1.9647
56424SOL     OW75108   6.873  10.336   4.322 -0.1741  0.5036 -0.3101
56424SOL    HW175109   6.920  10.319   4.403  1.2442 -0.8943 -1.3642
56424SOL    HW275110   6.915  10.280   4.257 -1.5678  1.2181 -1.9258
56425SOL     OW75111  11.019   8.320   7.305  0.6085  0.3337  0.0172
56425SOL    HW175112  10.924   8.320   7.319  0.6356  1.5781  0.4018
56425SOL    HW275113  11.050   8.241   7.349 -0.3598 -0.7039 -1.0875
56426SOL     OW75114   9.895   4.865  11.201 -0.1684 -0.2339  0.2539
56426SOL    HW175115   9.897   4.778  11.242 -1.7968  0.2053  1.3605
56426SOL    HW275116   9.856   4.922  11.267 -0.9984  0.9229 -1.1713
56427SOL     OW75117  10.666   0.932   9.346  0.4155  0.3382  0.1083
56427SOL    HW175118  10.758   0.908   9.331 -0.1545 -1.5293 -0.7382
56427SOL    HW275119  10.648   1.000   9.282  0.8397 -0.3108 -0.7300
56428SOL     OW75120   8.670  12.027   6.430  0.1788  0.3073  0.2918
56428SOL    HW175121   8.582  11.990   6.440 -0.2563  1.3402  0.4051
56428SOL    HW275122   8.707  11.978   6.357 -1.3220  1.2983 -1.2335
56429SOL     OW75123   0.872   9.737   2.615 -0.2156  0.1548 -0.0540
56429SOL    HW175124   0.843   9.828   2.614  0.6863  0.4524  0.0770
56429SOL    HW275125   0.930   9.730   2.539 -1.7512 -0.8233 -1.2067
56430SOL     OW75126  11.679   3.160   1.834 -0.3445  0.0108 -0.1911
56430SOL    HW175127  11.644   3.228   1.892  0.0442 -1.1988  1.5649
56430SOL    HW275128  11.602   3.120   1.794 -0.7751 -0.3153  0.9153
56431SOL     OW75129   5.992   0.043   6.214  0.4191  0.0322 -0.2828
56431SOL    HW175130   6.087   0.046   6.224  0.4547  0.0039 -0.5980
56431SOL    HW275131   5.965  -0.038   6.257  0.5200  0.1300 -0.0394
56432SOL     OW75132   1.976  11.427   7.120  1.0854  0.7938  0.1754
56432SOL    HW175133   1.989  11.520   7.137  1.7490  0.5402  1.1212
56432SOL    HW275134   1.884  11.420   7.094  0.8265  1.6167  0.8300
56433SOL     OW75135   3.894   8.466   2.816  0.1472  0.2436 -0.1097
56433SOL    HW175136   3.953   8.393   2.795 -0.4555 -0.3786  0.3019
56433SOL    HW275137   3.948   8.526   2.869  0.2340 -0.6510  0.8506
56434SOL     OW75138   3.729   0.864   3.724 -0.2493  0.1927 -0.1255
56434SOL    HW175139   3.824   0.858   3.726 -0.3586 -2.3608 -0.1185
56434SOL    HW275140   3.707   0.861   3.631 -0.3788 -0.3437 -0.0759
56435SOL     OW75141   4.942   0.377   6.361  0.0791 -0.5296  0.0369
56435SOL    HW175142   4.949   0.288   6.325 -1.8684 -0.4670 -0.6402
56435SOL    HW275143   4.880   0.421   6.303  0.7429  1.1787  0.5708
56436SOL     OW75144   5.596   0.593   8.812  0.1141 -0.0176  0.5579
56436SOL    HW175145   5.675   0.545   8.787  0.2394  0.7504 -0.6140
56436SOL    HW275146   5.536   0.526   8.844  1.4155 -0.5542  2.0047
56437SOL     OW75147   7.684   7.143   9.985  0.1032  0.4118  0.4111
56437SOL    HW175148   7.739   7.159   9.908  1.5204  1.7318  1.6391
56437SOL    HW275149   7.601   7.186   9.965  0.7824  1.5618 -0.0253
56438SOL     OW75150   3.141   5.257   6.464 -0.4508 -0.6300 -0.3111
56438SOL    HW175151   3.136   5.221   6.375  0.6880  1.7914 -1.4564
56438SOL    HW275152   3.233   5.248   6.489 -0.1715  1.1544 -0.5526
56439SOL     OW75153   7.045  10.864   7.051 -0.2547  0.0502 -0.4561
56439SOL    HW175154   7.018  10.875   7.142 -0.7794 -1.4718 -0.3945
56439SOL    HW275155   7.136  10.832   7.056 -0.3488 -0.2181 -0.4578
56440SOL     OW75156   3.595   3.771   7.912  0.0479  0.4699  0.2176
56440SOL    HW175157   3.631   3.848   7.868 -0.4239  0.4946 -0.1370
56440SOL    HW275158   3.552   3.806   7.991 -0.5538  0.6308 -0.1737
56441SOL     OW75159   4.361  11.019   3.365 -0.2084 -0.1916 -0.1335
56441SOL    HW175160   4.292  11.086   3.365  0.4168  0.4956 -1.5250
56441SOL    HW275161   4.390  11.015   3.456 -1.0104  0.6281  0.1777
56442SOL     OW75162   8.885   5.390   0.254  0.4310 -0.1873 -0.0700
56442SOL    HW175163   8.929   5.466   0.292  1.6154 -1.7787  1.9298
56442SOL    HW275164   8.900   5.319   0.316 -0.9246 -2.0107 -1.6770
56443SOL     OW75165   9.248   4.226   4.960 -0.1350  0.2685  0.2056
56443SOL    HW175166   9.272   4.301   4.906 -2.1269  0.4776 -0.4676
56443SOL    HW275167   9.209   4.164   4.899 -0.7863 -0.2520  1.1236
56444SOL     OW75168   6.540   6.646  10.745 -0.2429 -0.2718 -0.0784
56444SOL    HW175169   6.467   6.670  10.687  1.4555 -0.3779 -2.4164
56444SOL    HW275170   6.533   6.552  10.756 -1.0977 -0.1343  0.7090
56445SOL     OW75171   6.128  10.249   8.263  0.6885 -0.2626 -0.0217
56445SOL    HW175172   6.035  10.261   8.282  1.0910  1.3922  1.1242
56445SOL    HW275173   6.130  10.209   8.177 -1.0613  1.5300 -0.9691
56446SOL     OW75174   9.075   7.053   0.920 -0.3315 -0.3333 -0.2905
56446SOL    HW175175   9.045   7.066   0.830 -3.6418 -0.0655  0.7418
56446SOL    HW275176   9.032   6.973   0.949  3.2242 -2.2947  0.1638
56447SOL     OW75177  11.364   8.541  10.735  0.7361 -0.0943  0.0784
56447SOL    HW175178  11.367   8.494  10.818 -0.9072  1.1601  0.8997
56447SOL    HW275179  11.300   8.493  10.682 -0.2695  0.6518  0.5849
56448SOL     OW75180   0.862   6.191   7.187 -0.5444  0.4608  0.4390
56448SOL    HW175181   0.768   6.184   7.168 -0.6404 -3.2358  1.6797
56448SOL    HW275182   0.871   6.166   7.278  1.7792 -0.5048  0.0204
56449SOL     OW75183   3.306   3.871   4.705 -0.4086 -0.0830 -0.0735
56449SOL    HW175184   3.374   3.879   4.773  0.7578  0.1952 -1.2362
56449SOL    HW275185   3.237   3.932   4.733  0.5226  0.8237  0.3270
56450SOL     OW75186   3.381  11.360   5.421  0.5523  0.6828 -0.7517
56450SOL    HW175187   3.443  11.287   5.411  0.5200  0.6245 -0.5262
56450SOL    HW275188   3.298  11.319   5.445  0.8152  0.8558  0.5850
56451SOL     OW75189   9.939   7.301   5.897 -0.3572 -0.4298  0.2384
56451SOL    HW175190   9.908   7.212   5.880 -1.4485 -0.2114  0.9737
56451SOL    HW275191   9.867   7.357   5.869 -0.4919  0.1148  1.6052
56452SOL     OW75192   7.832   1.164   7.812 -0.2047  0.1741  0.7153
56452SOL    HW175193   7.789   1.078   7.814 -0.9570  0.5156 -0.2351
56452SOL    HW275194   7.890   1.160   7.736 -0.6340  0.6831  0.3527
56453SOL     OW75195   9.941  11.968   9.494 -0.3774  0.1811 -0.0802
56453SOL    HW175196  10.022  11.945   9.539  0.3461  0.8430 -1.0068
56453SOL    HW275197   9.894  12.024   9.555  1.7178  3.1427 -0.9664
56454SOL     OW75198  10.023  11.801   3.159 -0.6771  0.2225 -0.3746
56454SOL    HW175199  10.117  11.811   3.143 -0.4819  1.3293  1.1428
56454SOL    HW275200  10.016  11.721   3.211 -0.4291  0.7092  0.4246
56455SOL     OW75201  12.289   4.711  12.181  0.1144 -0.3003 -0.3898
56455SOL    HW175202  12.247   4.671  12.105  0.6154 -0.4194 -0.6083
56455SOL    HW275203  12.370   4.750  12.147 -0.6694  1.4834 -0.3083
56456SOL     OW75204   2.831   4.700   2.667 -0.0017  0.3458  0.5508
56456SOL    HW175205   2.916   4.670   2.636 -1.1658 -1.1063 -1.4445
56456SOL    HW275206   2.819   4.786   2.625  0.5642  0.6882  1.0678
56457SOL     OW75207  12.083   1.660  11.349 -0.2776 -0.1999  0.0910
56457SOL    HW175208  12.150   1.613  11.397 -0.9499 -0.8768  0.3894
56457SOL    HW275209  12.072   1.743  11.395  0.2526 -0.1457  0.1157
56458SOL     OW75210   3.228   0.516  10.212 -0.2429 -0.1758 -0.1752
56458SOL    HW175211   3.224   0.605  10.247 -0.4415 -0.1428 -0.2784
56458SOL    HW275212   3.144   0.477  10.237  0.4948 -0.8775  1.2948
56459SOL     OW75213   0.011   2.186   7.702  0.3689  0.4436 -0.1237
56459SOL    HW175214   0.004   2.189   7.798  0.3978  2.6364 -0.1538
56459SOL    HW275215   0.099   2.218   7.683  0.3349  0.0891 -0.8928
56460SOL     OW75216   4.615   7.773   2.756 -0.0712 -0.0250  0.1333
56460SOL    HW175217   4.675   7.710   2.715 -1.3458 -1.2849  0.1435
56460SOL    HW275218   4.596   7.837   2.687  1.7266  0.7543  0.3077
56461SOL     OW75219   2.988   4.300   6.325 -0.3485  0.7422 -0.7813
56461SOL    HW175220   3.038   4.302   6.243  1.2301  1.0903  0.1368
56461SOL    HW275221   2.977   4.392   6.349 -0.6488  0.6410 -0.5284
56462SOL     OW75222  11.245   6.422   9.021  0.5239  0.5196  0.2332
56462SOL    HW175223  11.260   6.330   9.043 -0.4669  0.3460  0.2361
56462SOL    HW275224  11.303   6.470   9.080  0.7158 -0.0841  0.5501
56463SOL     OW75225   9.126   2.809  11.659  0.1141 -0.0073 -0.0149
56463SOL    HW175226   9.059   2.876  11.672  0.6127  0.2590  1.4414
56463SOL    HW275227   9.196   2.853  11.610 -0.1959  0.1093 -0.3509
56464SOL     OW75228   5.253   0.500   9.930  0.2186  0.7237  0.3034
56464SOL    HW175229   5.344   0.503   9.903 -0.0905 -1.1986 -1.2425
56464SOL    HW275230   5.210   0.568   9.879  0.3150 -0.3456 -1.2640
56465SOL     OW75231   3.888  11.808   0.722 -0.1769  0.3249  0.3941
56465SOL    HW175232   3.850  11.720   0.712 -0.1829  0.2392  1.0999
56465SOL    HW275233   3.831  11.851   0.786  0.4382  0.4760  0.8517
56466SOL     OW75234   4.665   0.516   4.205 -0.1666  0.2631 -0.6387
56466SOL    HW175235   4.627   0.458   4.139  0.9267 -0.5136 -0.6148
56466SOL    HW275236   4.750   0.477   4.225  0.7174  2.0031 -0.7952
56467SOL     OW75237   3.189   4.797   5.772  0.5894 -0.0067  0.4489
56467SOL    HW175238   3.173   4.704   5.790 -0.0017  0.3764  2.1547
56467SOL    HW275239   3.172   4.840   5.856  2.6625  1.4387  0.2086
56468SOL     OW75240   7.366   1.433   1.398 -0.2063 -0.2815  0.0153
56468SOL    HW175241   7.415   1.354   1.375 -0.5034 -1.1663  2.2223
56468SOL    HW275242   7.382   1.445   1.492 -2.4372  0.6617  0.3274
56469SOL     OW75243   8.132   4.901  10.243  0.2532 -0.2722  0.4007
56469SOL    HW175244   8.174   4.933  10.322 -1.0226  0.7682  0.7008
56469SOL    HW275245   8.185   4.826  10.216  2.2852  0.9663  0.7223
56470SOL     OW75246   2.271   8.648   5.097 -0.4038  0.6063 -0.0480
56470SOL    HW175247   2.273   8.650   5.193 -0.1168  1.2826 -0.0656
56470SOL    HW275248   2.244   8.559   5.076 -0.9997  0.6001  0.6712
56471SOL     OW75249  11.587   9.825   4.544 -0.2264  0.0422 -0.0320
56471SOL    HW175250  11.602   9.888   4.615  0.5960 -0.6584  0.4349
56471SOL    HW275251  11.667   9.829   4.491 -0.3979 -0.2037 -0.3114
56472SOL     OW75252   6.141  10.649   6.903  1.5593 -0.0049 -0.4904
56472SOL    HW175253   6.163  10.661   6.811  2.0893  0.9760 -0.2567
56472SOL    HW275254   6.046  10.641   6.905  1.6419 -1.2885 -1.2362
56473SOL     OW75255   4.068   3.637   6.732  0.1352 -0.5960 -0.2436
56473SOL    HW175256   4.041   3.554   6.695 -3.6662 -1.0516  2.9437
56473SOL    HW275257   4.055   3.700   6.661 -1.7260 -2.0783 -1.3175
56474SOL     OW75258   9.598  10.839   2.217 -0.5590 -0.1243  0.0143
56474SOL    HW175259   9.557  10.835   2.131 -0.4639  2.1801 -0.1966
56474SOL    HW275260   9.596  10.748   2.249 -3.4054 -0.5493 -1.0796
56475SOL     OW75261   5.180   6.696  12.093  0.1056 -0.0763  0.0784
56475SOL    HW175262   5.183   6.768  12.029 -2.5705 -1.3484 -1.6434
56475SOL    HW275263   5.247   6.635  12.064  0.3679  0.3449 -0.2126
56476SOL     OW75264  10.772   9.084   6.235  0.4272 -0.5460 -0.1794
56476SOL    HW175265  10.796   9.058   6.146 -0.5160 -0.2788 -0.5320
56476SOL    HW275266  10.679   9.063   6.242  0.2554  0.3239  0.4091
56477SOL     OW75267   4.631   6.963   8.983  0.4599 -0.2654 -0.0864
56477SOL    HW175268   4.572   6.939   8.912 -0.9383  1.3619  0.4725
56477SOL    HW275269   4.619   6.895   9.049 -0.2848 -0.3096 -0.2625
56478SOL     OW75270   7.276   5.690   4.844 -0.0751 -0.1157 -0.1449
56478SOL    HW175271   7.357   5.696   4.896 -0.1196 -1.7081  0.1585
56478SOL    HW275272   7.298   5.632   4.771 -0.3067  1.3007 -1.3923
56479SOL     OW75273   3.403  12.180   7.424 -0.0091 -0.7435 -0.0345
56479SOL    HW175274   3.362  12.099   7.395 -0.2841 -0.2768 -0.9961
56479SOL    HW275275   3.451  12.212   7.347 -1.2010  0.8035 -0.1792
56480SOL     OW75276   6.032   8.060   5.942  0.1162  0.1400  0.5503
56480SOL    HW175277   5.954   8.072   5.888 -0.8817  1.0689  2.0928
56480SOL    HW275278   6.014   7.982   5.994  0.9657 -0.6102 -0.2422
56481SOL     OW75279  11.164   8.465  12.323  0.0308  0.0893  0.3296
56481SOL    HW175280  11.074   8.484  12.297  0.2291  0.4270 -0.1097
56481SOL    HW275281  11.198   8.548  12.356  1.0124  0.6363 -1.9316
56482SOL     OW75282   2.978   0.455   1.376 -0.0492 -0.5265 -0.0762
56482SOL    HW175283   3.060   0.415   1.345 -0.1641  0.9172 -2.4139
56482SOL    HW275284   2.911   0.389   1.357  0.3397 -1.0342  0.2854
56483SOL     OW75285   6.709   2.174  11.499 -0.0268  0.1961  0.4385
56483SOL    HW175286   6.784   2.128  11.537 -0.1183 -0.1097  0.2565
56483SOL    HW275287   6.649   2.187  11.572 -1.0541 -2.0742  0.0938
56484SOL     OW75288   3.345   1.330  10.369 -0.5818  0.0647 -0.0782
56484SOL    HW175289   3.428   1.338  10.417 -2.0649 -1.8719  3.1736
56484SOL    HW275290   3.368   1.288  10.287  1.7496  0.2205  0.4413
56485SOL     OW75291   1.176  11.328   2.953  0.0233 -0.1963  0.0134
56485SOL    HW175292   1.243  11.353   3.016  0.1302 -1.7548  0.5581
56485SOL    HW275293   1.224  11.293   2.878 -0.0876  1.9736 -1.1500
56486SOL     OW75294   6.206   6.647   9.272 -0.4006 -0.4878  0.8706
56486SOL    HW175295   6.177   6.727   9.227 -0.0370 -1.0346 -0.3822
56486SOL    HW275296   6.157   6.647   9.354 -3.2574 -0.8782 -0.7248
56487SOL     OW75297   0.360   0.907  11.473 -0.2060  0.2471  0.1761
56487SOL    HW175298   0.365   0.905  11.378  0.2343  1.0208  0.1812
56487SOL    HW275299   0.330   0.995  11.494  3.7258  1.6074  0.8900
56488SOL     OW75300  10.899   5.763   6.559  0.2222 -0.1862 -0.1547
56488SOL    HW175301  10.830   5.828   6.543  1.4658  1.1003 -0.4827
56488SOL    HW275302  10.962   5.808   6.614  0.5886 -1.5177  0.5717
56489SOL     OW75303   4.530   7.821   3.750 -0.1760 -0.0545  0.0989
56489SOL    HW175304   4.551   7.728   3.737 -0.1480 -0.1229  0.6114
56489SOL    HW275305   4.515   7.829   3.844 -0.5976  0.3795 -0.0048
56490SOL     OW75306   9.851   8.998   2.979 -0.0954  0.3883 -0.1598
56490SOL    HW175307   9.944   9.010   3.000 -0.0690  1.2623 -0.7440
56490SOL    HW275308   9.851   8.936   2.906  0.1107  1.2492 -0.9139
56491SOL     OW75309   8.817   9.221  11.256  0.4236  0.3121 -0.2005
56491SOL    HW175310   8.822   9.317  11.254 -3.1673  0.6517  0.3022
56491SOL    HW275311   8.787   9.197  11.168 -0.6205 -0.1144  0.2533
56492SOL     OW75312  12.073  11.774   5.115 -0.3250 -0.5753  0.3057
56492SOL    HW175313  12.051  11.691   5.157  0.8258 -0.6226  0.8394
56492SOL    HW275314  12.045  11.841   5.177  0.1298 -0.6050  0.5406
56493SOL     OW75315   4.497  11.763   2.388 -0.0930  0.1557  0.0253
56493SOL    HW175316   4.422  11.801   2.434 -0.7092 -0.5144 -0.4019
56493SOL    HW275317   4.495  11.670   2.413  1.2842  0.3326  0.9255
56494SOL     OW75318   2.057   5.722   5.606  0.6496  0.0891  0.0479
56494SOL    HW175319   2.114   5.790   5.642  1.2610  0.2878 -1.2395
56494SOL    HW275320   2.038   5.752   5.517 -0.5026 -0.5736  0.0523
56495SOL     OW75321   0.746   6.300   7.998 -0.2414  0.3345 -0.2325
56495SOL    HW175322   0.758   6.205   7.994  4.3767  0.6544 -0.2191
56495SOL    HW275323   0.766   6.330   7.910  0.4672  1.3441  0.2517
56496SOL     OW75324   9.347   9.487  10.699  0.4080  0.3404  0.3006
56496SOL    HW175325   9.321   9.437  10.621  1.7146  0.7998 -0.4586
56496SOL    HW275326   9.279   9.554  10.708  0.1170  0.1347 -0.3151
56497SOL     OW75327   2.723   3.300   0.937  0.1364  0.3810 -0.3503
56497SOL    HW175328   2.785   3.370   0.955 -0.6365  0.4384  2.7886
56497SOL    HW275329   2.762   3.223   0.977 -0.5616 -0.2102 -0.7914
56498SOL     OW75330   5.001   3.790   1.954 -0.5250 -0.2775 -0.0795
56498SOL    HW175331   4.961   3.876   1.970 -0.0995  0.0705 -0.8345
56498SOL    HW275332   5.072   3.785   2.018 -0.3610  0.0604 -0.2342
56499SOL     OW75333   1.282   0.446   6.798 -0.3313  0.1251 -0.3146
56499SOL    HW175334   1.241   0.482   6.876 -0.3962  0.9957 -0.7401
56499SOL    HW275335   1.211   0.404   6.750  0.0764 -2.5874  1.2231
56500SOL     OW75336  12.177  10.086   2.589 -0.0487  0.1325  0.5804
56500SOL    HW175337  12.208  10.007   2.545 -2.2537 -0.3189 -0.3164
56500SOL    HW275338  12.216  10.082   2.676  2.3635 -0.3028 -0.4142
56501SOL     OW75339   2.063   8.385   7.132  0.3274  0.4134  0.3056
56501SOL    HW175340   2.021   8.471   7.121 -0.4625  0.1567  1.1912
56501SOL    HW275341   2.054   8.366   7.225  0.1877 -0.7951  0.0539
56502SOL     OW75342   6.688  12.196   0.816  0.2692  0.5526 -0.1549
56502SOL    HW175343   6.766  12.190   0.760 -0.2171 -1.2138 -0.7090
56502SOL    HW275344   6.660  12.105   0.827 -1.3924  1.1177  0.5061
56503SOL     OW75345   6.011   9.088  10.309  0.2686  0.1357  0.5446
56503SOL    HW175346   5.976   9.074  10.398 -0.4050  0.5048  0.3416
56503SOL    HW275347   6.076   9.019  10.299 -0.3687 -0.5497  0.9530
56504SOL     OW75348   7.392  12.282   2.134  0.6594 -0.0843 -0.1815
56504SOL    HW175349   7.417  12.190   2.141  0.0428 -0.1741  1.3906
56504SOL    HW275350   7.412  12.318   2.221  1.1323  1.3366 -0.8525
56505SOL     OW75351   3.348   7.222   9.954  0.0660  0.3709 -0.3055
56505SOL    HW175352   3.434   7.225   9.913  1.5298 -0.3164  2.4826
56505SOL    HW275353   3.287   7.237   9.882  2.3917 -0.8870 -2.7395
56506SOL     OW75354  10.025   8.788   4.149  0.0838 -0.8395 -0.0490
56506SOL    HW175355  10.055   8.868   4.191 -1.0225 -0.5875  0.2772
56506SOL    HW275356  10.004   8.729   4.221 -1.0443 -0.6914 -0.2415
56507SOL     OW75357   1.500   4.957  10.327  0.0080 -0.1934 -0.6864
56507SOL    HW175358   1.554   5.035  10.316  1.3246 -0.9489  0.0971
56507SOL    HW275359   1.458   4.944  10.242  0.2495  1.0006 -1.0094
56508SOL     OW75360  10.331  10.944   0.557 -0.1370  0.3595 -0.2016
56508SOL    HW175361  10.376  11.027   0.541 -2.2157  1.5165 -0.4751
56508SOL    HW275362  10.335  10.897   0.474  3.9499 -1.4625  0.7837
56509SOL     OW75363   5.095   0.106   0.092 -0.4557 -0.0133  0.6711
56509SOL    HW175364   5.082   0.094  -0.002 -0.6528 -0.5410  0.7634
56509SOL    HW275365   5.180   0.066   0.110 -1.3304 -1.7896  1.0635
56510SOL     OW75366   3.943   5.972   8.363 -0.5380  0.1543 -0.5871
56510SOL    HW175367   3.878   6.030   8.404  0.3391  0.6377  0.1570
56510SOL    HW275368   4.007   5.955   8.433 -0.9190 -1.9750 -0.6941
56511SOL     OW75369   7.181   6.942   8.627  0.0772  0.1668  0.2970
56511SOL    HW175370   7.198   6.863   8.577  0.9545 -0.6246  1.7710
56511SOL    HW275371   7.250   6.943   8.694 -2.1062  0.1449  2.6948
56512SOL     OW75372   7.203   4.736   3.276  0.2840 -0.3908 -0.0802
56512SOL    HW175373   7.254   4.756   3.355 -0.1256 -0.8294  0.2999
56512SOL    HW275374   7.216   4.642   3.262  1.9733  0.0134 -1.6978
56513SOL     OW75375   2.200   3.560   3.868 -0.1090  0.1655 -0.4816
56513SOL    HW175376   2.291   3.535   3.852 -0.8196 -3.2074 -0.0583
56513SOL    HW275377   2.192   3.561   3.963 -0.6843 -0.4369 -0.5144
56514SOL     OW75378   9.726  11.080   4.819 -0.2553  0.1190 -0.2771
56514SOL    HW175379   9.698  11.019   4.887 -0.0437 -0.7094 -0.9150
56514SOL    HW275380   9.664  11.067   4.747  0.5065 -0.2520 -0.8931
56515SOL     OW75381   2.789   6.044   0.530 -0.3863  0.0856  0.2450
56515SOL    HW175382   2.708   6.022   0.576 -1.3150  0.7577 -0.9992
56515SOL    HW275383   2.773   6.131   0.493  1.4327  0.8372  1.0911
56516SOL     OW75384  10.325   0.130  10.457 -0.1508  0.2339 -0.1223
56516SOL    HW175385  10.295   0.161  10.372  2.3418  2.5067 -0.2918
56516SOL    HW275386  10.408   0.086  10.439 -0.1239 -0.2416  1.0344
56517SOL     OW75387   2.537   6.539   8.795  0.4234 -0.5460 -0.3960
56517SOL    HW175388   2.602   6.609   8.800 -0.6549  0.3908  2.9462
56517SOL    HW275389   2.588   6.459   8.811  1.1365 -0.1180 -0.4589
56518SOL     OW75390   8.295   6.052   9.745  0.3435 -0.3292  0.0173
56518SOL    HW175391   8.354   6.077   9.816 -0.6001 -0.1499  0.7615
56518SOL    HW275392   8.221   6.011   9.789  0.3851 -1.5113 -0.9769
56519SOL     OW75393   9.141  12.190  11.939  0.0987  0.0065 -0.4970
56519SOL    HW175394   9.054  12.228  11.939  1.4131  3.4395  0.4008
56519SOL    HW275395   9.168  12.190  11.847 -0.7588 -0.9779 -0.7624
56520SOL     OW75396   1.518   0.615  12.031 -0.1841  0.0287 -0.0266
56520SOL    HW175397   1.473   0.605  11.947  0.6653 -2.6183 -0.2440
56520SOL    HW275398   1.462   0.674  12.082 -2.0479 -0.3848 -1.5141
56521SOL     OW75399   7.886  11.364  10.192  0.0069  0.3642  0.4440
56521SOL    HW175400   7.822  11.371  10.263 -0.0389 -1.7687  0.6840
56521SOL    HW275401   7.965  11.404  10.227 -0.5469  0.9694  1.0167
56522SOL     OW75402  10.263   9.692   6.520  0.0291  0.0982  0.8417
56522SOL    HW175403  10.344   9.742   6.524 -0.4958  1.0484 -0.0859
56522SOL    HW275404  10.236   9.695   6.428 -2.4683  2.1648  1.5090
56523SOL     OW75405   6.736  11.193   1.594  0.2291 -0.6441 -0.2651
56523SOL    HW175406   6.718  11.174   1.502 -1.4179 -0.2891 -0.0442
56523SOL    HW275407   6.699  11.281   1.609  0.7153 -0.5781  0.6694
56524SOL     OW75408  11.557   7.596   4.791  0.3530 -0.2562 -0.3922
56524SOL    HW175409  11.479   7.645   4.765  0.3649 -0.6793 -1.2674
56524SOL    HW275410  11.527   7.535   4.857 -0.1431 -0.6721 -0.9899
56525SOL     OW75411   5.868  11.401   4.748 -0.2891  0.2678  0.1084
56525SOL    HW175412   5.885  11.464   4.818 -1.5499  0.3173  0.3940
56525SOL    HW275413   5.773  11.404   4.736 -0.2189 -0.6261 -0.7775
56526SOL     OW75414   9.708   7.931   0.111 -0.2996  0.6330 -0.4682
56526SOL    HW175415   9.743   7.888   0.033 -0.8963  1.6713 -1.3350
56526SOL    HW275416   9.682   8.018   0.081  2.0035  2.1142  1.4920
56527SOL     OW75417   7.311   9.496   7.105  0.0236 -0.3499 -0.2270
56527SOL    HW175418   7.386   9.553   7.125  0.3171 -1.2513  1.4688
56527SOL    HW275419   7.351   9.415   7.074 -0.0987 -1.3120  1.9078
56528SOL     OW75420   2.550   5.729   9.686 -0.0207 -0.8244  0.4447
56528SOL    HW175421   2.509   5.666   9.627 -0.7027  0.2838 -0.2887
56528SOL    HW275422   2.633   5.750   9.644  0.0378 -0.9340  0.5025
56529SOL     OW75423   4.445  11.535   8.987 -0.5114 -1.1385  0.7003
56529SOL    HW175424   4.520  11.594   8.996  1.7669 -3.8247  0.7424
56529SOL    HW275425   4.402  11.563   8.906 -0.0426  1.0484  1.1539
56530SOL     OW75426   0.523   3.019   4.730 -0.9377 -0.2089 -0.5274
56530SOL    HW175427   0.516   3.060   4.644 -0.2887 -0.7584 -0.8535
56530SOL    HW275428   0.476   2.936   4.722  1.8452 -1.8337 -1.4007
56531SOL     OW75429   8.689   2.222   4.485  0.1262  0.2558  0.1315
56531SOL    HW175430   8.719   2.221   4.394 -0.8766  0.6615 -0.2156
56531SOL    HW275431   8.644   2.306   4.494  0.9754  0.6127  1.2618
56532SOL     OW75432   3.026  10.138  10.497 -0.2431  0.3787 -0.8340
56532SOL    HW175433   3.023  10.231  10.473  2.4955  1.0056  0.7829
56532SOL    HW275434   3.119  10.116  10.494 -0.2638 -1.0122  3.2503
56533SOL     OW75435   2.710   5.241  10.967 -0.0613  0.8694  0.3858
56533SOL    HW175436   2.665   5.244  11.051 -0.6068  0.7822  0.0971
56533SOL    HW275437   2.739   5.331  10.952  0.1197  0.8678  0.7075
56534SOL     OW75438   7.001   0.568   1.724 -0.4579  0.3665  0.1500
56534SOL    HW175439   6.952   0.510   1.783  1.8760 -1.0646  0.8400
56534SOL    HW275440   6.970   0.656   1.745 -2.6831 -0.4520  0.5196
56535SOL     OW75441  11.788   7.015   1.708 -0.7102 -0.3023 -0.5492
56535SOL    HW175442  11.861   6.956   1.687 -0.8615 -0.3325 -0.9974
56535SOL    HW275443  11.776   7.005   1.802 -0.8825 -1.1573 -0.6555
56536SOL     OW75444   0.305   0.867   4.201  0.1101  0.0612 -0.7439
56536SOL    HW175445   0.263   0.833   4.279 -0.0446 -1.5980 -1.5019
56536SOL    HW275446   0.313   0.961   4.216 -0.8942 -0.0740  0.7863
56537SOL     OW75447   9.475  11.546   4.126  0.9371 -0.1895 -0.0905
56537SOL    HW175448   9.424  11.479   4.080  2.0222 -0.8954 -0.3092
56537SOL    HW275449   9.412  11.588   4.185 -0.2954  0.1572 -1.5852
56538SOL     OW75450   1.827   4.912  11.252  0.3058  0.3843 -0.0402
56538SOL    HW175451   1.826   5.007  11.267 -1.2782  0.3730  0.0932
56538SOL    HW275452   1.881   4.901  11.174  1.1605  1.3074  0.3869
56539SOL     OW75453   6.591   3.456   9.129 -0.3481  0.1606 -0.2212
56539SOL    HW175454   6.548   3.529   9.173  1.1596 -0.4996  2.5695
56539SOL    HW275455   6.537   3.380   9.150  1.4002 -0.4941  2.4120
56540SOL     OW75456  11.105  11.403   7.973  0.2841  0.2226  0.5161
56540SOL    HW175457  11.046  11.407   8.048  0.1049  2.0886  0.3222
56540SOL    HW275458  11.165  11.476   7.985  1.5088 -0.6312 -0.1614
56541SOL     OW75459   2.400  12.056   3.559 -0.7284 -0.2133 -0.0684
56541SOL    HW175460   2.409  12.150   3.546 -0.2097 -0.4730 -1.7757
56541SOL    HW275461   2.307  12.038   3.542 -0.3606 -0.3231 -2.1532
56542SOL     OW75462   9.558   5.023   6.464 -0.3526 -0.2677 -0.2218
56542SOL    HW175463   9.473   5.009   6.506  0.0279 -1.5699  0.1655
56542SOL    HW275464   9.581   4.937   6.428  0.9115  0.0007 -0.0921
56543SOL     OW75465   0.290   7.119   6.909  0.6210 -0.2130  0.5236
56543SOL    HW175466   0.244   7.079   6.835  0.4666  0.4231  0.2701
56543SOL    HW275467   0.366   7.161   6.870  0.5962  0.0325  0.7411
56544SOL     OW75468  12.105  10.838   1.597  0.7853  0.6474  0.0478
56544SOL    HW175469  12.152  10.918   1.575  0.5399  0.4843 -1.0969
56544SOL    HW275470  12.045  10.824   1.524 -0.3916  0.3422  1.0430
56545SOL     OW75471   8.359   2.291   2.490  0.4059 -0.1332  0.5299
56545SOL    HW175472   8.410   2.257   2.417  0.1632 -0.0282  0.3091
56545SOL    HW275473   8.282   2.233   2.495  2.1703 -2.4871  3.0565
56546SOL     OW75474   4.793   3.543   5.412 -0.4120 -0.5930 -0.6015
56546SOL    HW175475   4.709   3.544   5.365  0.6366 -0.1303 -2.6009
56546SOL    HW275476   4.800   3.454   5.445 -1.4734 -0.7861 -0.8432
56547SOL     OW75477   0.895   1.901  10.414  0.1086 -0.1287 -0.1949
56547SOL    HW175478   0.910   1.893  10.508  0.2467 -2.6999 -0.3591
56547SOL    HW275479   0.932   1.986  10.391 -1.0685  1.1335  2.2461
56548SOL     OW75480   0.895   9.703   5.161  0.3568 -0.0154 -0.4924
56548SOL    HW175481   0.894   9.608   5.154  2.0683 -0.0671 -0.4821
56548SOL    HW275482   0.861   9.734   5.077 -1.1559 -0.6043 -0.1280
56549SOL     OW75483   1.906   6.673   5.194  0.2467 -0.2342 -0.1701
56549SOL    HW175484   1.879   6.722   5.271  2.1717  0.7710 -0.0582
56549SOL    HW275485   1.829   6.670   5.137 -0.2762  1.8685  0.3658
56550SOL     OW75486   7.726   6.511   5.752  0.4899  0.3735 -0.4169
56550SOL    HW175487   7.728   6.561   5.834  2.1010  0.3109 -0.3769
56550SOL    HW275488   7.771   6.567   5.689  0.4412 -0.1367 -0.9086
56551SOL     OW75489   7.645   1.198  10.143 -0.2923 -0.5460 -0.5180
56551SOL    HW175490   7.554   1.227  10.153 -0.2384 -0.8905  1.3629
56551SOL    HW275491   7.694   1.277  10.123 -0.9986 -0.3788 -1.7260
56552SOL     OW75492   8.830   9.061   0.564 -0.6753  0.0652  0.0300
56552SOL    HW175493   8.925   9.052   0.566 -0.7975 -1.8175 -0.7348
56552SOL    HW275494   8.806   9.090   0.652  0.4605 -1.3823  0.8523
56553SOL     OW75495   1.907   8.893   3.847 -0.7556 -0.6231 -0.0400
56553SOL    HW175496   1.882   8.893   3.939 -0.0046 -1.0073  0.1734
56553SOL    HW275497   1.830   8.926   3.801 -0.7461  0.6542  0.8236
56554SOL     OW75498   1.580   7.912   1.284  0.1304  0.4625 -0.4403
56554SOL    HW175499   1.557   7.947   1.198  1.0463 -0.0959 -0.9248
56554SOL    HW275500   1.541   7.974   1.346 -1.4149  0.3318 -1.2258
56555SOL     OW75501   8.151  11.670   4.946  0.1310  0.1575 -0.4648
56555SOL    HW175502   8.056  11.668   4.950  0.1238 -2.5663  0.5370
56555SOL    HW275503   8.171  11.685   4.854 -1.2736  0.2952 -0.7661
56556SOL     OW75504   2.313   3.223   6.450 -0.2459  0.1082 -0.2724
56556SOL    HW175505   2.243   3.208   6.387  0.5667 -1.6177 -0.8332
56556SOL    HW275506   2.393   3.205   6.401  0.5071  0.6612  0.7331
56557SOL     OW75507   7.471  11.334   9.702 -0.5959  0.1681 -0.2040
56557SOL    HW175508   7.400  11.359   9.762 -0.4332 -0.1974  0.1498
56557SOL    HW275509   7.475  11.239   9.709 -0.2867  0.1618 -0.4759
56558SOL     OW75510   4.212   5.407   9.411  0.3752 -0.6119 -0.3026
56558SOL    HW175511   4.191   5.488   9.458  0.1822  0.0489 -1.4835
56558SOL    HW275512   4.138   5.349   9.430  0.5981 -0.5850  0.6975
56559SOL     OW75513   7.525   0.518   8.139 -0.0780 -0.2266 -0.4702
56559SOL    HW175514   7.501   0.611   8.134  0.6893  0.0309  0.3461
56559SOL    HW275515   7.589   0.514   8.210  0.9179 -1.1678 -1.3799
56560SOL     OW75516   7.339   2.848  10.478 -0.6820  0.7656  0.2092
56560SOL    HW175517   7.320   2.941  10.492 -2.4941  0.6900 -1.2908
56560SOL    HW275518   7.344   2.839  10.382 -2.5734 -0.9818  0.1860
56561SOL     OW75519   4.420   1.642   9.787  0.1659  0.0563 -0.1905
56561SOL    HW175520   4.349   1.657   9.849  0.6874 -2.0557  1.0159
56561SOL    HW275521   4.444   1.730   9.756 -3.5345  0.7776 -1.4061
56562SOL     OW75522   0.180   4.446   4.790 -0.1346  0.3427  0.0612
56562SOL    HW175523   0.113   4.378   4.778  0.2178  0.3524 -2.3579
56562SOL    HW275524   0.251   4.401   4.835 -1.1260 -0.0438  1.3266
56563SOL     OW75525   4.344   6.662   8.280 -0.7007  0.3469 -0.4728
56563SOL    HW175526   4.424   6.657   8.334  0.2535 -0.0111 -1.8708
56563SOL    HW275527   4.275   6.631   8.339 -0.3707  3.3147  1.7117
56564SOL     OW75528   4.354   3.803   0.140  0.5294 -0.1628  0.4870
56564SOL    HW175529   4.320   3.746   0.209 -1.5079 -1.1805 -1.2461
56564SOL    HW275530   4.285   3.868   0.127  1.6307  1.0537  0.5198
56565SOL     OW75531   1.533   3.932   5.574  0.1112  0.6087 -0.0490
56565SOL    HW175532   1.628   3.926   5.563  0.1349 -0.8658  0.7218
56565SOL    HW275533   1.521   3.952   5.667 -0.3440  1.4434 -0.2700
56566SOL     OW75534   1.900  10.756   0.538 -0.9394 -0.4057  0.3422
56566SOL    HW175535   1.900  10.678   0.593  0.3241 -2.4833 -2.3446
56566SOL    HW275536   1.831  10.740   0.474 -1.2756  1.1474  0.2783
56567SOL     OW75537   6.667  11.164   1.332 -0.1000  0.1927 -0.5276
56567SOL    HW175538   6.735  11.198   1.274 -0.9286  0.9685 -1.0883
56567SOL    HW275539   6.585  11.192   1.290 -0.8297 -2.0601 -0.7198
56568SOL     OW75540   4.974   2.829   1.109 -0.3045  0.2677 -0.4436
56568SOL    HW175541   4.917   2.756   1.085  1.3295 -1.4865  0.7801
56568SOL    HW275542   4.921   2.882   1.169 -1.9374  0.8502 -2.2877
56569SOL     OW75543   1.196   1.283  10.078 -0.0056  0.0431  0.0287
56569SOL    HW175544   1.236   1.227  10.011  0.1953  0.5787 -0.3032
56569SOL    HW275545   1.247   1.364  10.077 -0.3047  0.2481  0.4901
56570SOL     OW75546   4.911   7.739  11.378  0.4535  0.1388  0.3899
56570SOL    HW175547   4.820   7.709  11.377 -0.0732  1.6525 -0.2674
56570SOL    HW275548   4.954   7.688  11.309 -1.3203  3.2519 -3.4341
56571SOL     OW75549   4.718  11.789   2.183 -0.6900  0.6481  0.4187
56571SOL    HW175550   4.675  11.840   2.251  0.3805  0.5221  1.2050
56571SOL    HW275551   4.718  11.846   2.106  0.1486  1.6939  1.1747
56572SOL     OW75552   5.222   4.968   6.129 -0.4820  0.4484  0.4381
56572SOL    HW175553   5.136   5.008   6.139 -0.9012 -0.5344  0.9925
56572SOL    HW275554   5.207   4.875   6.148  0.7276  0.2895  0.7123
56573SOL     OW75555  10.177   9.686   6.878  0.3769 -0.3447 -0.0092
56573SOL    HW175556  10.191   9.599   6.840 -2.1700 -0.4443 -0.9389
56573SOL    HW275557  10.082   9.691   6.892  0.6520  1.6509  1.6514
56574SOL     OW75558  10.995   1.959   0.255 -0.6151 -0.0803 -0.0196
56574SOL    HW175559  11.059   2.030   0.251 -2.8391  2.0212 -0.2256
56574SOL    HW275560  11.021   1.899   0.184  0.1395  1.5917 -1.2178
56575SOL     OW75561   8.429   9.987   4.457 -0.0025 -0.2208  0.6720
56575SOL    HW175562   8.364  10.055   4.476 -0.9042 -0.6957 -0.6364
56575SOL    HW275563   8.479   9.979   4.539 -0.2881  1.5418  1.0675
56576SOL     OW75564  10.421  10.462   4.701  0.5298 -0.1599  0.3578
56576SOL    HW175565  10.413  10.557   4.711  1.4084  0.0966 -1.1166
56576SOL    HW275566  10.497  10.439   4.754 -0.4887 -0.2885  1.8389
56577SOL     OW75567   0.548   0.360   9.933 -0.2255  0.1236 -0.4613
56577SOL    HW175568   0.635   0.370   9.970 -0.8364  1.3742  0.7438
56577SOL    HW275569   0.499   0.311   9.999 -0.8346  0.7408 -0.4448
56578SOL     OW75570   2.545   0.080   1.350  0.0329  0.0225 -0.3022
56578SOL    HW175571   2.619   0.019   1.352  0.3146  0.2218 -2.3564
56578SOL    HW275572   2.470   0.026   1.323 -0.4701 -0.0400  1.1124
56579SOL     OW75573   5.766   9.405   9.967 -0.3663  0.2212  0.0837
56579SOL    HW175574   5.793   9.362   9.886 -1.6930 -0.2195 -0.1480
56579SOL    HW275575   5.756   9.334  10.030 -1.6627  0.2728 -0.0428
56580SOL     OW75576   5.479   6.762   8.500  0.4366 -0.1126 -0.2901
56580SOL    HW175577   5.557   6.707   8.496 -0.5500 -1.5008 -1.2457
56580SOL    HW275578   5.474   6.803   8.413  0.7638  0.9663  0.1776
56581SOL     OW75579   3.169  11.287   6.412  0.2274 -0.0331 -0.4558
56581SOL    HW175580   3.103  11.219   6.403 -0.0457  0.0275  0.9097
56581SOL    HW275581   3.132  11.348   6.476  1.1766  0.5214 -0.4166
56582SOL     OW75582   6.296   5.009   3.350  0.8143 -0.0734  0.1273
56582SOL    HW175583   6.338   4.943   3.406  1.3344 -0.0451 -0.2229
56582SOL    HW275584   6.353   5.085   3.355  0.5607  0.1272  0.0103
56583SOL     OW75585   8.864   3.961   2.780 -0.4338 -0.0536  0.7050
56583SOL    HW175586   8.907   4.024   2.838 -1.1969  0.4024  0.7955
56583SOL    HW275587   8.925   3.888   2.775  0.2356  0.4678  1.0234
56584SOL     OW75588  11.696  12.262   4.516  0.2300  0.2202  0.0627
56584SOL    HW175589  11.698  12.356   4.498 -0.2475  0.2894  0.3533
56584SOL    HW275590  11.707  12.256   4.611  1.1942 -0.0700 -0.0533
56585SOL     OW75591   4.093  11.214   6.505 -0.1153 -0.1251 -0.0227
56585SOL    HW175592   4.005  11.243   6.532 -0.0115 -1.6530  2.2574
56585SOL    HW275593   4.122  11.281   6.443 -1.3599  2.5854  2.0763
56586SOL     OW75594   0.620   4.106   7.808  0.3706 -0.2639  0.4206
56586SOL    HW175595   0.676   4.152   7.746 -0.1948  0.2198  0.2559
56586SOL    HW275596   0.606   4.167   7.879  0.4635 -0.5694  0.7031
56587SOL     OW75597   4.389   7.542   3.339 -0.6705 -0.4254 -0.0848
56587SOL    HW175598   4.448   7.475   3.374 -0.3191 -0.7972 -1.3303
56587SOL    HW275599   4.303   7.518   3.373 -0.2792 -0.4934  0.8879
56588SOL     OW75600   4.855  11.349   8.030 -0.1871  0.0066  0.0250
56588SOL    HW175601   4.905  11.294   8.091 -1.4098  0.3959  1.4462
56588SOL    HW275602   4.837  11.292   7.955  0.3649 -0.8521  0.5296
56589SOL     OW75603   4.398   9.010  12.327 -0.0473  0.0688 -0.8596
56589SOL    HW175604   4.476   9.060  12.353  1.1512 -2.5233  1.0097
56589SOL    HW275605   4.348   9.070  12.272  0.2317  4.0592  2.6881
56590SOL     OW75606  11.886  11.851   4.907  0.0691 -0.6497  0.0196
56590SOL    HW175607  11.833  11.777   4.877  0.8520 -1.0498 -0.3974
56590SOL    HW275608  11.968  11.812   4.937  1.2737  0.1802 -1.9906
56591SOL     OW75609  10.745   9.277   9.830  0.1739 -0.1362  0.4148
56591SOL    HW175610  10.717   9.342   9.894  0.2468  1.0919 -0.7436
56591SOL    HW275611  10.799   9.216   9.880 -0.1739  0.5028  1.6116
56592SOL     OW75612   1.301   8.755  11.341 -0.0536 -0.2926 -0.3526
56592SOL    HW175613   1.341   8.668  11.340 -2.5205 -1.5411  0.9056
56592SOL    HW275614   1.261   8.764  11.255 -4.1117 -2.7344  1.0151
56593SOL     OW75615  10.395   3.560   0.631 -0.2411 -0.2013 -0.0851
56593SOL    HW175616  10.333   3.493   0.605 -0.9203 -0.3020  1.6473
56593SOL    HW275617  10.458   3.514   0.687  1.0107  0.0513 -1.2111
56594SOL     OW75618  10.397  11.616  12.223  0.4798 -0.6954  0.8501
56594SOL    HW175619  10.342  11.539  12.231 -0.4574 -0.1908 -0.4421
56594SOL    HW275620  10.342  11.688  12.254  0.2113 -0.1244 -0.8433
56595SOL     OW75621   6.789   1.831   5.517 -0.2234  0.4323 -0.3209
56595SOL    HW175622   6.781   1.768   5.589  1.9551 -0.1152 -0.4899
56595SOL    HW275623   6.761   1.782   5.439 -1.8569  0.7919  0.0107
56596SOL     OW75624   6.366   9.217  10.752  0.5791 -0.2902 -0.0248
56596SOL    HW175625   6.290   9.265  10.718 -0.2730 -1.2769  0.4193
56596SOL    HW275626   6.348   9.126  10.728  1.4206 -0.5908  0.4758
56597SOL     OW75627   2.762   4.360   9.757  0.5951 -0.1551  0.2275
56597SOL    HW175628   2.739   4.312   9.836  0.9213 -0.0991  0.3596
56597SOL    HW275629   2.686   4.351   9.700 -0.1202  0.7899  0.9995
56598SOL     OW75630   1.138   9.065   3.364  0.3926  0.0758  0.6323
56598SOL    HW175631   1.061   9.073   3.308 -0.0066  1.8096  1.3816
56598SOL    HW275632   1.182   9.149   3.356  2.2239 -0.8597  0.2675
56599SOL     OW75633   2.330   6.152   7.841  0.7826  0.3648  0.3001
56599SOL    HW175634   2.407   6.159   7.897  0.6742  3.2429  0.2514
56599SOL    HW275635   2.256   6.171   7.900  0.2305 -0.9171  0.0451
56600SOL     OW75636   4.792   7.326  11.666 -0.0561  0.1679 -0.3823
56600SOL    HW175637   4.840   7.397  11.709 -1.0097  1.0717 -0.7587
56600SOL    HW275638   4.776   7.358  11.577 -1.1851 -0.1694 -0.3173
56601SOL     OW75639   9.591   4.376   7.936  0.0861  0.5729  0.1914
56601SOL    HW175640   9.618   4.339   7.853 -1.0619 -0.8688  0.4275
56601SOL    HW275641   9.530   4.312   7.973 -2.2359  2.7729  0.5085
56602SOL     OW75642   7.649   0.032   5.932  0.2333  0.3724 -0.1702
56602SOL    HW175643   7.604   0.113   5.956  1.2975  0.8430  0.2898
56602SOL    HW275644   7.674  -0.009   6.015 -0.8781 -0.7869 -0.3773
56603SOL     OW75645   2.325   1.048   1.003  0.2003 -0.0415 -0.5211
56603SOL    HW175646   2.286   0.974   0.956 -0.8507  1.1957 -1.7062
56603SOL    HW275647   2.323   1.119   0.939  1.8684  0.8252  0.3423
56604SOL     OW75648   6.800   0.477   4.535 -0.2314 -0.4224 -0.1097
56604SOL    HW175649   6.885   0.490   4.577  0.5144  0.9677 -1.9120
56604SOL    HW275650   6.779   0.385   4.551  1.6354 -0.8110  0.3237
56605SOL     OW75651   8.632   0.133   7.489 -0.1173 -0.7137 -0.1556
56605SOL    HW175652   8.653   0.040   7.501 -0.0582 -0.5244  1.4585
56605SOL    HW275653   8.544   0.142   7.525  0.2988  0.0418  0.7149
56606SOL     OW75654   0.641  11.417   3.078 -0.6740 -0.0345 -0.2935
56606SOL    HW175655   0.598  11.496   3.045 -0.6121  0.3545  0.5306
56606SOL    HW275656   0.732  11.427   3.050 -0.8869 -0.3461 -1.1251
56607SOL     OW75657   0.804   1.915  10.971  0.5598 -0.2273  0.0345
56607SOL    HW175658   0.814   1.851  10.901  1.1408 -1.1902  0.9809
56607SOL    HW275659   0.779   1.864  11.048  1.1681  0.6564  0.8437
56608SOL     OW75660   3.116  10.112   1.911  0.4185 -0.4945  0.1534
56608SOL    HW175661   3.033  10.149   1.884 -0.5001 -1.7385  1.1455
56608SOL    HW275662   3.132  10.041   1.849 -0.5812 -1.9142  1.4589
56609SOL     OW75663  12.215  12.217  11.130  0.3138 -0.5179 -0.0873
56609SOL    HW175664  12.290  12.257  11.085  0.2777 -0.8049 -0.4059
56609SOL    HW275665  12.168  12.292  11.167  0.5906 -0.3120 -0.1412
56610SOL     OW75666   0.971   1.511   3.846 -0.1103  1.0205  0.8016
56610SOL    HW175667   1.038   1.483   3.783 -0.3030  2.1757  0.0534
56610SOL    HW275668   0.911   1.437   3.851 -0.0685  0.8824 -0.3628
56611SOL     OW75669   0.705   2.621  11.927  0.3504 -0.6246 -0.2115
56611SOL    HW175670   0.766   2.568  11.976  0.1497 -1.0465 -0.4153
56611SOL    HW275671   0.668   2.562  11.861 -1.1294 -0.6875  0.6299
56612SOL     OW75672   3.167   4.425   7.548  0.3550 -0.0470  0.2607
56612SOL    HW175673   3.192   4.338   7.580  0.8488  0.6700  1.9828
56612SOL    HW275674   3.250   4.472   7.540 -0.0491  1.0397  1.8771
56613SOL     OW75675   0.208   0.506   0.137  0.4412 -0.5782  0.3086
56613SOL    HW175676   0.189   0.590   0.178 -1.4623 -1.0443  0.4937
56613SOL    HW275677   0.168   0.512   0.050  2.0304 -0.6019 -0.4565
56614SOL     OW75678   2.039   3.419   6.200 -0.1196  0.1602  0.2832
56614SOL    HW175679   2.026   3.470   6.280  0.6714  0.2133  0.3882
56614SOL    HW275680   2.043   3.329   6.229 -0.6929  0.1052  0.1969
56615SOL     OW75681  11.825   8.391   2.070 -0.0199  0.2700 -0.0078
56615SOL    HW175682  11.871   8.334   2.008  1.4601 -0.2957  1.5362
56615SOL    HW275683  11.750   8.338   2.099  1.1286 -0.8159  1.1270
56616SOL     OW75684   3.465  10.259   9.230  0.1430  0.6983 -0.3597
56616SOL    HW175685   3.402  10.187   9.230 -0.6210  1.3289 -1.2413
56616SOL    HW275686   3.510  10.252   9.145  0.2993  1.0528 -0.3089
56617SOL     OW75687  10.373   5.236   6.889  0.3399  0.0900  0.0829
56617SOL    HW175688  10.390   5.307   6.951  1.0223 -0.2601  0.3035
56617SOL    HW275689  10.443   5.242   6.824 -0.6427  0.7619 -0.9600
56618SOL     OW75690   6.746   7.789   2.376 -0.0834 -0.3257  0.2011
56618SOL    HW175691   6.826   7.741   2.398 -0.0000  0.6995  2.4545
56618SOL    HW275692   6.737   7.780   2.281  3.9303  1.3453 -0.5389
56619SOL     OW75693   2.149   4.570   0.460  0.3503 -0.0701 -0.1069
56619SOL    HW175694   2.239   4.540   0.447  0.5371  0.5695 -0.3359
56619SOL    HW275695   2.149   4.608   0.548  0.5830  0.8605 -0.4887
56620SOL     OW75696  11.179   9.853   9.243 -0.1143  0.4231  0.0261
56620SOL    HW175697  11.087   9.875   9.227 -0.4921  0.2957  1.8377
56620SOL    HW275698  11.228   9.922   9.199 -1.0976  0.9855 -0.2233
56621SOL     OW75699  12.216   8.528   7.017 -1.2937 -0.2370 -0.4508
56621SOL    HW175700  12.287   8.494   6.963 -0.5935  0.9874 -0.3332
56621SOL    HW275701  12.177   8.450   7.058 -0.6254 -0.9992 -1.2304
56622SOL     OW75702  11.085   2.975   4.502 -0.5520 -0.3198 -0.3303
56622SOL    HW175703  11.101   2.911   4.432  0.9294 -1.2957  0.8212
56622SOL    HW275704  11.164   2.971   4.556 -0.1031  2.9871 -0.5335
56623SOL     OW75705   5.874   3.441   4.400 -0.6085 -0.4863  0.7889
56623SOL    HW175706   5.783   3.470   4.387 -0.0274  1.2505  0.2635
56623SOL    HW275707   5.888   3.377   4.331 -1.2514 -0.3008  0.4703
56624SOL     OW75708   9.951   1.675   6.520 -1.0951 -0.1289  0.1969
56624SOL    HW175709   9.953   1.600   6.460  1.7957  0.3350 -0.4401
56624SOL    HW275710  10.015   1.653   6.587 -0.8043  1.4020  0.4519
56625SOL     OW75711   1.704   3.570   5.425 -0.8005 -0.7043 -0.4094
56625SOL    HW175712   1.663   3.510   5.487 -0.3489 -0.4694  0.1196
56625SOL    HW275713   1.698   3.526   5.340 -1.0357 -1.2108 -0.1278
56626SOL     OW75714   7.365   7.196   0.529  0.1942 -0.1599  0.4437
56626SOL    HW175715   7.283   7.147   0.534  0.2555 -0.2201  0.8570
56626SOL    HW275716   7.432   7.135   0.560  0.2996  0.1169  0.7623
56627SOL     OW75717   3.806   1.155   8.577 -0.0216 -0.6001 -0.0631
56627SOL    HW175718   3.733   1.099   8.604  0.1645 -1.4728 -1.2639
56627SOL    HW275719   3.781   1.186   8.490  1.1708 -1.1935 -0.6426
56628SOL     OW75720   1.120  10.345   6.397 -0.1206  0.0646 -0.8714
56628SOL    HW175721   1.041  10.374   6.442  0.7035  2.0101 -0.5643
56628SOL    HW275722   1.103  10.366   6.305  0.0478  0.5417 -0.7972
56629SOL     OW75723   5.089   2.432   0.474  0.5064 -0.3865 -0.5707
56629SOL    HW175724   5.141   2.493   0.526 -0.4602  1.7636 -1.9773
56629SOL    HW275725   5.092   2.468   0.385 -3.4894  0.0128 -0.7203
56630SOL     OW75726   2.381   3.726   3.660  0.1732  0.4275 -0.3433
56630SOL    HW175727   2.382   3.640   3.700 -0.2773  0.0958 -1.0131
56630SOL    HW275728   2.364   3.786   3.732  0.2946 -0.0620  0.0972
56631SOL     OW75729   2.938   1.065   0.390 -0.6958 -0.2144 -0.2003
56631SOL    HW175730   3.011   1.012   0.422 -2.2688 -1.7497  1.0082
56631SOL    HW275731   2.971   1.155   0.391  1.2093 -0.8807  0.1370
56632SOL     OW75732   0.216   0.132   0.131  0.2122 -0.0220  0.5870
56632SOL    HW175733   0.302   0.117   0.092  0.7875  0.0926  1.7807
56632SOL    HW275734   0.156   0.134   0.056  1.5157  2.1017 -0.5011
56633SOL     OW75735   5.627   3.843  11.233  0.0375  0.6002 -0.3434
56633SOL    HW175736   5.565   3.780  11.269 -1.1281 -0.0478 -3.2476
56633SOL    HW275737   5.687   3.860  11.305 -1.5344 -1.3142  1.5628
56634SOL     OW75738   3.964   6.571   2.718 -0.3022 -0.3629  0.0927
56634SOL    HW175739   4.024   6.628   2.766 -1.8631 -0.2423  2.0530
56634SOL    HW275740   3.972   6.486   2.760  1.8138 -1.6931 -2.6510
56635SOL     OW75741   0.487   2.473   5.615  0.5056  0.2754 -0.0661
56635SOL    HW175742   0.565   2.454   5.563  0.6769  1.5077 -0.2899
56635SOL    HW275743   0.419   2.417   5.576  0.3622  1.8950 -2.3511
56636SOL     OW75744   2.069  12.321   3.660  0.2141  0.0050  0.0289
56636SOL    HW175745   2.036  12.333   3.571 -2.0298 -0.4993  0.7308
56636SOL    HW275746   2.080  12.410   3.694  0.5209  0.1903 -0.5463
56637SOL     OW75747   9.495  10.145   1.524 -0.6326 -0.3205 -0.4339
56637SOL    HW175748   9.569  10.186   1.568 -1.7031  0.9083  0.3049
56637SOL    HW275749   9.493  10.056   1.558  1.7602 -1.0644 -2.0876
56638SOL     OW75750   7.861  11.374  10.498  0.0848  0.1362 -0.5207
56638SOL    HW175751   7.862  11.278  10.490  2.1279  0.0431  0.2362
56638SOL    HW275752   7.828  11.390  10.586 -0.5800  0.1636 -0.7679
56639SOL     OW75753   7.352  10.909   8.960  1.1900 -0.0739  0.0282
56639SOL    HW175754   7.436  10.951   8.944  0.9784  0.7679  1.0126
56639SOL    HW275755   7.315  10.893   8.873  1.8254  0.6496 -0.3825
56640SOL     OW75756   7.468   7.166   4.824 -0.0404  0.4216  0.3864
56640SOL    HW175757   7.544   7.135   4.775  2.3898  2.2283  2.6664
56640SOL    HW275758   7.456   7.102   4.893  0.2283  0.7529  0.7466
56641SOL     OW75759   1.197  11.013  11.558  0.2789  0.5132  0.7177
56641SOL    HW175760   1.217  10.926  11.593 -0.4319 -0.5166 -1.3392
56641SOL    HW275761   1.283  11.053  11.546  0.7433 -0.6775 -0.1574
56642SOL     OW75762  11.966   2.264   9.419 -0.2610 -0.3723  0.2525
56642SOL    HW175763  11.872   2.285   9.421 -0.2988 -0.5995  2.3611
56642SOL    HW275764  11.997   2.306   9.339 -2.0157  0.3250 -0.1284
56643SOL     OW75765   0.379   9.416  11.628  0.3875 -0.8819 -0.1861
56643SOL    HW175766   0.321   9.399  11.703 -3.5560  0.5092 -2.6375
56643SOL    HW275767   0.406   9.507  11.639 -2.2517  0.1611 -1.5350
56644SOL     OW75768   1.207   9.585   9.259 -0.0100  0.6857  0.0044
56644SOL    HW175769   1.209   9.547   9.171  0.7860  2.9106 -1.0276
56644SOL    HW275770   1.143   9.656   9.253  0.0620  0.8730  1.2213
56645SOL     OW75771   7.949   8.481   8.541 -0.5041 -0.0663  0.0489
56645SOL    HW175772   7.988   8.537   8.609 -0.9445  1.4625 -0.9082
56645SOL    HW275773   7.982   8.518   8.459 -1.5244 -0.6820 -0.6497
56646SOL     OW75774  12.120   1.298  10.597  0.4208  0.6443 -0.2424
56646SOL    HW175775  12.097   1.369  10.538 -1.6386  0.5622  0.3922
56646SOL    HW275776  12.131   1.341  10.682 -1.8392  0.1641  0.3645
56647SOL     OW75777   8.019   9.906  10.763  0.5249 -0.1000  0.3413
56647SOL    HW175778   8.099   9.941  10.723  1.2074 -1.1668  0.7377
56647SOL    HW275779   7.951   9.921  10.696  0.9040  1.3589  0.2378
56648SOL     OW75780   2.525   1.111   5.419 -0.3489 -0.1663  0.3707
56648SOL    HW175781   2.562   1.026   5.443 -0.8300 -0.8014 -1.0194
56648SOL    HW275782   2.559   1.172   5.485  2.2418 -0.9259 -0.1688
56649SOL     OW75783   3.800   6.521   0.359  0.0775 -0.6092 -0.2435
56649SOL    HW175784   3.883   6.480   0.382  0.5781  0.7888  0.5834
56649SOL    HW275785   3.741   6.499   0.431  0.6559  0.9215  0.7600
56650SOL     OW75786   8.948  12.056   9.160  0.3838 -0.9168  0.0405
56650SOL    HW175787   8.924  12.004   9.084 -1.3960 -0.2750  0.1203
56650SOL    HW275788   8.985  12.136   9.123  1.3633 -1.4166 -0.1004
56651SOL     OW75789   7.201   3.074   2.525  0.2952  0.0519 -0.0026
56651SOL    HW175790   7.281   3.095   2.572 -0.4018 -0.1500  1.3290
56651SOL    HW275791   7.145   3.151   2.536 -1.1223 -1.1924  2.3709
56652SOL     OW75792  11.708   8.722   2.812  0.0354 -0.8733 -0.2333
56652SOL    HW175793  11.699   8.673   2.893 -1.0382 -0.4869 -0.1129
56652SOL    HW275794  11.642   8.791   2.817  0.7795 -0.0797 -0.8869
56653SOL     OW75795  11.898   5.964   3.227  0.2571  0.2245  0.0583
56653SOL    HW175796  11.910   5.908   3.151  1.1380  0.0251  0.3325
56653SOL    HW275797  11.959   5.930   3.292  0.0800  0.8796  0.5840
56654SOL     OW75798   1.561   1.955   8.085  0.2779  0.1315 -0.0361
56654SOL    HW175799   1.508   1.911   8.151  0.2168 -0.0546 -0.2100
56654SOL    HW275800   1.514   1.942   8.003 -0.4802  1.7175  0.1019
56655SOL     OW75801   9.440   6.737   1.255 -0.3544  0.0540  0.6066
56655SOL    HW175802   9.453   6.672   1.186 -0.1078  0.5376  0.1950
56655SOL    HW275803   9.527   6.751   1.292  0.1830  2.3404 -1.2963
56656SOL     OW75804   4.689   0.622   0.885  0.0628  0.5019 -0.2742
56656SOL    HW175805   4.763   0.676   0.856  1.6300 -0.5387  1.4868
56656SOL    HW275806   4.698   0.541   0.833  0.8186 -0.0144  0.6159
56657SOL     OW75807   5.797   3.281   1.644 -0.3194  0.3447  0.2086
56657SOL    HW175808   5.834   3.201   1.682 -1.0856 -0.4053 -0.5955
56657SOL    HW275809   5.869   3.344   1.647  0.1721 -0.2394  1.2286
56658SOL     OW75810   0.826   2.102  11.967 -0.4486 -0.2157 -0.6065
56658SOL    HW175811   0.877   2.021  11.959  1.5627  0.6654  1.8389
56658SOL    HW275812   0.869   2.163  11.908  1.5958  0.5398  1.4845
56659SOL     OW75813  11.324   1.417   9.974  0.5422  0.7594 -0.4485
56659SOL    HW175814  11.228   1.421   9.969  0.3797 -1.6001 -0.5552
56659SOL    HW275815  11.343   1.425  10.067  0.3705  2.3963 -0.5212
56660SOL     OW75816   0.565  10.553  11.871 -0.0959  1.1040  0.1283
56660SOL    HW175817   0.530  10.524  11.787 -1.7833  0.9284  0.8542
56660SOL    HW275818   0.507  10.625  11.897  0.5774  1.3339  1.0088
56661SOL     OW75819   3.956  11.945  11.211 -0.1961  0.3877 -0.2154
56661SOL    HW175820   3.886  11.993  11.254 -0.2425 -0.1925  0.3687
56661SOL    HW275821   4.020  12.012  11.186 -1.2608  1.0051 -1.3666
56662SOL     OW75822   2.432   2.177   9.327 -0.3919  0.2520  0.7790
56662SOL    HW175823   2.509   2.124   9.306 -0.8313 -0.2819  0.4658
56662SOL    HW275824   2.441   2.256   9.274  1.0984  1.2734  2.4588
56663SOL     OW75825  11.459   9.902   5.466  0.2929 -0.1826  0.0783
56663SOL    HW175826  11.434   9.846   5.393 -0.8503  0.5095 -0.0912
56663SOL    HW275827  11.378   9.945   5.492  0.3547 -1.3468  2.6027
56664SOL     OW75828   7.003   2.251   1.051  0.9155  0.3427  0.4566
56664SOL    HW175829   6.973   2.326   0.999  0.5259  0.7129  1.1905
56664SOL    HW275830   6.926   2.195   1.060  1.8157 -1.5276 -2.2965
56665SOL     OW75831   2.216   9.133   9.130  0.0494  0.5401 -0.7772
56665SOL    HW175832   2.227   9.107   9.039 -0.5180  0.2203 -0.7563
56665SOL    HW275833   2.152   9.071   9.165  0.2685  0.6556 -0.1612
56666SOL     OW75834   8.868   7.226   6.511 -0.4753 -0.6339  0.1542
56666SOL    HW175835   8.934   7.274   6.561  0.3792 -2.8822  1.3411
56666SOL    HW275836   8.786   7.273   6.529  0.7930  3.0489 -2.4426
56667SOL     OW75837   7.849   4.876   7.955 -0.2969 -0.1424 -0.0388
56667SOL    HW175838   7.840   4.869   7.860  0.7415 -0.7961 -0.1103
56667SOL    HW275839   7.889   4.961   7.969  1.1795 -0.7633 -0.3366
56668SOL     OW75840   2.048   1.035   7.348 -0.3493  0.0009  0.0807
56668SOL    HW175841   2.038   1.000   7.437 -1.4001  0.7368  0.2715
56668SOL    HW275842   1.959   1.062   7.323 -0.2340 -0.9685 -1.5221
56669SOL     OW75843   4.252   8.097   5.079 -0.0938 -0.5614 -0.3148
56669SOL    HW175844   4.219   8.020   5.126 -1.3911  0.9391  1.3840
56669SOL    HW275845   4.264   8.163   5.147  1.8827  0.4877 -1.6020
56670SOL     OW75846  12.261   0.617   2.037 -0.0185 -0.3879 -0.0908
56670SOL    HW175847  12.202   0.690   2.023  0.0797 -0.3247 -0.1691
56670SOL    HW275848  12.274   0.579   1.950  1.1473  0.4349 -0.2988
56671SOL     OW75849   4.847   2.140   1.275 -0.4256  0.0108 -0.2201
56671SOL    HW175850   4.921   2.173   1.224 -1.1466 -1.0092 -2.0122
56671SOL    HW275851   4.884   2.069   1.328 -0.0605 -0.3353 -0.9272
56672SOL     OW75852  10.836   8.822   7.510 -0.2980 -0.0164 -0.0699
56672SOL    HW175853  10.794   8.907   7.495  0.2443  0.2930  0.1709
56672SOL    HW275854  10.765   8.759   7.499 -1.1796  0.5875  1.7545
56673SOL     OW75855   6.451  10.095   8.831  0.0125 -0.0139  0.0133
56673SOL    HW175856   6.498  10.041   8.895 -0.8877 -1.1034 -0.2174
56673SOL    HW275857   6.444  10.181   8.873  0.2575 -0.4470  0.9779
56674SOL     OW75858   6.906   3.897   2.888 -0.2210  0.1368  0.7307
56674SOL    HW175859   6.859   3.924   2.967  0.3593  1.7945  0.5564
56674SOL    HW275860   6.983   3.850   2.920 -1.1487 -1.2406  1.0505
56675SOL     OW75861   4.206   4.035   7.291  0.3307 -0.2036 -0.4549
56675SOL    HW175862   4.208   4.079   7.206 -1.1174  1.5428  0.3511
56675SOL    HW275863   4.164   3.951   7.273 -0.1279  0.2164 -1.4401
56676SOL     OW75864  11.855   9.054   1.452  0.3231  0.2784  0.1052
56676SOL    HW175865  11.897   8.975   1.416  1.0731  0.6223  0.2093
56676SOL    HW275866  11.787   9.076   1.389  0.9374  0.2709 -0.5706
56677SOL     OW75867  12.020   6.555  11.916 -0.6990 -0.4876 -0.0668
56677SOL    HW175868  11.954   6.491  11.944 -0.9783  0.5708  1.8567
56677SOL    HW275869  12.096   6.535  11.970  0.1587 -0.8774 -1.3771
56678SOL     OW75870   5.405   4.591   5.288  0.2156  0.7064  0.3175
56678SOL    HW175871   5.322   4.615   5.329  0.5954  0.7780  1.0599
56678SOL    HW275872   5.383   4.576   5.196 -0.7147  0.2278  0.6057
56679SOL     OW75873   4.159  12.148   7.924 -0.4764 -0.9613 -0.3112
56679SOL    HW175874   4.247  12.111   7.914 -1.0506 -2.6316  0.4394
56679SOL    HW275875   4.151  12.210   7.852  1.6048 -0.1624  0.0913
56680SOL     OW75876   7.600   4.689   5.370 -0.6249  0.0910 -0.1076
56680SOL    HW175877   7.511   4.724   5.362 -0.0426  1.7231  0.1564
56680SOL    HW275878   7.640   4.742   5.439  0.2021 -1.4218  0.6306
56681SOL     OW75879   5.420  11.780  11.582 -0.5496  0.3093  0.3425
56681SOL    HW175880   5.331  11.760  11.611 -0.8671  0.5100 -0.4421
56681SOL    HW275881   5.416  11.873  11.559 -0.9438 -0.2907 -2.3774
56682SOL     OW75882   5.230   2.101   1.202 -0.3541  1.0578  0.0211
56682SOL    HW175883   5.316   2.136   1.223 -0.5218  1.4097  0.1288
56682SOL    HW275884   5.228   2.014   1.242 -0.1537  1.1618  0.2529
56683SOL     OW75885  11.882   2.816   8.139 -0.1276 -0.3178 -0.5080
56683SOL    HW175886  11.879   2.740   8.081 -0.9914 -0.5556 -0.1770
56683SOL    HW275887  11.965   2.808   8.184  0.1196 -0.6675 -1.0086
56684SOL     OW75888   1.409   9.687   8.002  0.0078  0.4353  0.0172
56684SOL    HW175889   1.380   9.689   7.911  0.6595 -0.1025 -0.2166
56684SOL    HW275890   1.499   9.718   7.999 -0.4227  1.8374  0.6967
56685SOL     OW75891  11.927   9.323  11.633  0.2723 -0.0309  0.5030
56685SOL    HW175892  11.955   9.319  11.724  1.1441  0.1454  0.2465
56685SOL    HW275893  11.847   9.270  11.630  0.8209 -0.9134  1.1545
56686SOL     OW75894   6.766   3.664   3.187 -0.2292  0.1357  0.3345
56686SOL    HW175895   6.723   3.609   3.121 -0.2408  0.3229  0.1842
56686SOL    HW275896   6.761   3.752   3.151  1.1959  0.0366 -0.1730
56687SOL     OW75897   1.103   5.855  10.232 -0.2982 -0.0147  0.5317
56687SOL    HW175898   1.177   5.795  10.237 -0.5436 -0.4354 -0.4715
56687SOL    HW275899   1.093   5.872  10.138  0.0291  1.9488  0.7958
56688SOL     OW75900   3.875  12.108  10.509 -0.5323 -0.2642  0.3374
56688SOL    HW175901   3.919  12.142  10.587  0.4896  0.5727 -0.5690
56688SOL    HW275902   3.943  12.060  10.462 -1.3667 -1.5578  0.3881
56689SOL     OW75903  10.565   5.640   0.384 -0.4718 -0.0905 -0.1346
56689SOL    HW175904  10.528   5.613   0.300  0.5161  1.0783 -0.9867
56689SOL    HW275905  10.616   5.719   0.363  0.0927  0.0109  1.5020
56690SOL     OW75906   9.243  10.419   9.823 -0.6451  0.0022 -0.1998
56690SOL    HW175907   9.204  10.460   9.746 -0.9951 -0.6923 -0.4027
56690SOL    HW275908   9.297  10.488   9.862  0.6653 -0.0399 -1.8323
56691SOL     OW75909  10.702  12.291  12.141 -0.1651  0.1135 -0.9125
56691SOL    HW175910  10.791  12.309  12.172  0.4764 -1.8590 -1.4665
56691SOL    HW275911  10.681  12.366  12.085  0.6903  1.1569  0.0965
56692SOL     OW75912   6.999   4.099   8.396  0.0486  0.1756  0.6542
56692SOL    HW175913   7.011   4.012   8.359 -1.4496  0.8289 -1.5224
56692SOL    HW275914   7.083   4.143   8.381  0.3048 -0.4033  0.3849
56693SOL     OW75915   1.159   3.938   9.139  0.0794  0.1421  0.1742
56693SOL    HW175916   1.072   3.916   9.106 -0.0574 -0.1510  0.7061
56693SOL    HW275917   1.146   3.949   9.233  0.9147 -1.6795  0.5532
56694SOL     OW75918   7.469   9.291   7.032  1.2307  0.5814 -0.2969
56694SOL    HW175919   7.552   9.275   7.076  0.6938  1.2205  1.0038
56694SOL    HW275920   7.471   9.235   6.955  3.5197  1.6994 -1.1427
56695SOL     OW75921   2.889   2.877  10.908  0.3459 -0.2659 -0.2226
56695SOL    HW175922   2.853   2.962  10.883 -2.3114 -1.4433 -0.7302
56695SOL    HW275923   2.978   2.878  10.874 -0.2555  1.5641 -1.9366
56696SOL     OW75924   7.498   8.364   0.873  0.3024  0.3098 -0.3730
56696SOL    HW175925   7.438   8.419   0.823  0.2428  0.8659  0.2883
56696SOL    HW275926   7.454   8.279   0.878 -0.4265  0.7016  0.0790
56697SOL     OW75927  10.816   3.484  11.926  0.5407  0.5147 -1.0044
56697SOL    HW175928  10.787   3.433  11.851 -1.7457  3.7009 -2.5017
56697SOL    HW275929  10.881   3.544  11.891 -0.7207  2.1997 -0.6115
56698SOL     OW75930   8.840   7.948   5.958 -0.2434 -0.7382 -0.1714
56698SOL    HW175931   8.869   7.988   6.040  0.0488 -1.0348 -0.1267
56698SOL    HW275932   8.759   7.903   5.981 -0.3448 -0.5344 -0.1242
56699SOL     OW75933   9.706   3.076  11.438 -0.1833 -0.2367  0.3057
56699SOL    HW175934   9.646   3.034  11.499 -1.5839  1.4788  0.1955
56699SOL    HW275935   9.774   3.115  11.494 -1.0663  0.7116  0.7495
56700SOL     OW75936   2.531   6.710   6.528  0.1618 -0.0171 -0.0589
56700SOL    HW175937   2.563   6.713   6.438 -0.8594  1.6543 -0.4043
56700SOL    HW275938   2.436   6.708   6.521  0.0729 -0.3458  0.9870
56701SOL     OW75939   6.737   2.210  12.171 -0.3098  0.6845 -0.1111
56701SOL    HW175940   6.815   2.230  12.222 -1.0371  0.7102  1.0450
56701SOL    HW275941   6.674   2.176  12.236 -0.4512 -1.6664 -1.3646
56702SOL     OW75942   5.194   5.280   6.265 -0.1347 -0.4270  0.0221
56702SOL    HW175943   5.226   5.294   6.175 -0.2313 -0.3292  0.0038
56702SOL    HW275944   5.256   5.328   6.320 -0.6706  0.3788 -0.0636
56703SOL     OW75945   5.169   9.138   5.894 -0.5102 -0.1780  0.1130
56703SOL    HW175946   5.099   9.198   5.868 -0.2646  0.5704  1.1320
56703SOL    HW275947   5.238   9.153   5.829 -1.4471 -1.2836 -1.1993
56704SOL     OW75948  11.408   2.265   3.433 -0.4099  0.6225 -0.0728
56704SOL    HW175949  11.451   2.209   3.369 -0.7963  2.2367 -1.8475
56704SOL    HW275950  11.364   2.205   3.492 -0.1150 -0.9464 -1.3886
56705SOL     OW75951   1.989  10.306   6.585  0.3792 -0.3289 -0.0175
56705SOL    HW175952   2.026  10.384   6.625  0.0666 -0.8253  1.2815
56705SOL    HW275953   2.018  10.233   6.641 -0.9480 -0.9253 -0.0673
56706SOL     OW75954   8.074   0.372  11.831 -0.1473  0.4059  0.5864
56706SOL    HW175955   7.991   0.332  11.859 -1.1632  2.4898  0.7113
56706SOL    HW275956   8.065   0.465  11.853  2.0195  0.7875  0.0882
56707SOL     OW75957  11.656  11.171   9.163  0.0013  0.0827  0.1450
56707SOL    HW175958  11.586  11.197   9.223 -0.7661 -1.7780  0.0898
56707SOL    HW275959  11.656  11.239   9.096 -1.3734  0.4183  0.4529
56708SOL     OW75960  12.289  11.046   6.988 -0.2111  0.5589  0.0986
56708SOL    HW175961  12.337  11.106   6.932  0.2426 -0.0282 -0.1442
56708SOL    HW275962  12.207  11.031   6.942  0.6906 -0.9497 -1.0757
56709SOL     OW75963  10.083   1.721   1.215  0.2078  0.4958 -0.1591
56709SOL    HW175964  10.038   1.805   1.219 -0.4270  0.2029 -0.8413
56709SOL    HW275965  10.150   1.732   1.148 -0.3169  0.2564 -0.7255
56710SOL     OW75966  11.296   9.694   7.126 -0.9555  0.0062  0.4452
56710SOL    HW175967  11.240   9.696   7.048 -1.3815  1.1915  0.7611
56710SOL    HW275968  11.243   9.650   7.192 -0.2980 -1.7172 -0.1256
56711SOL     OW75969   9.068   9.849   3.307 -0.3360 -0.1633  0.2189
56711SOL    HW175970   9.015   9.927   3.323  0.6953  0.3919  1.0504
56711SOL    HW275971   9.033   9.783   3.368  0.1973  0.3301  1.0685
56712SOL     OW75972   3.365   8.821   4.024  0.0192 -0.5249 -0.5555
56712SOL    HW175973   3.277   8.784   4.033 -0.7064  0.9668 -1.2821
56712SOL    HW275974   3.422   8.752   4.059 -1.2602 -2.3400 -1.8222
56713SOL     OW75975   6.391   3.822   9.528  0.1163  0.0223 -0.3911
56713SOL    HW175976   6.315   3.774   9.496 -0.2652  0.4166 -0.0996
56713SOL    HW275977   6.399   3.795   9.620  0.0636  0.3092 -0.3011
56714SOL     OW75978   3.095   6.870   7.939  0.6139  0.3879 -0.4245
56714SOL    HW175979   3.001   6.885   7.949  0.5930  0.8496 -1.1963
56714SOL    HW275980   3.103   6.812   7.863  0.9153 -0.3619  0.1661
56715SOL     OW75981   5.164   0.189   2.957 -0.2507  0.2372  0.3631
56715SOL    HW175982   5.179   0.139   2.877 -0.9977 -0.0639  0.4000
56715SOL    HW275983   5.252   0.203   2.993  0.1443  0.9157 -0.8109
56716SOL     OW75984   9.851   0.175   3.329  0.1724  0.0624 -0.2109
56716SOL    HW175985   9.797   0.165   3.408 -1.6031  0.0076 -1.3755
56716SOL    HW275986   9.834   0.265   3.301  0.9398  0.1401 -0.4451
56717SOL     OW75987   1.309   6.669   1.498 -0.3534  0.2605 -0.0831
56717SOL    HW175988   1.228   6.675   1.548 -0.2620  3.7571 -0.0973
56717SOL    HW275989   1.289   6.711   1.414  0.7355 -1.4323 -1.2556
56718SOL     OW75990   5.144  12.181   4.142 -0.2424  0.1852 -0.6701
56718SOL    HW175991   5.067  12.230   4.169 -0.4633  0.5763 -1.9369
56718SOL    HW275992   5.110  12.109   4.088  0.0909 -1.2838  0.9890
56719SOL     OW75993   3.970   8.669   6.280  0.3553  0.2366  0.4742
56719SOL    HW175994   3.910   8.691   6.351 -0.9600  2.5161 -1.2005
56719SOL    HW275995   3.961   8.575   6.269 -1.4145  0.2345  1.6165
56720SOL     OW75996  11.286   2.176   4.040  0.3676  0.0170  0.1158
56720SOL    HW175997  11.244   2.193   3.955  0.9120  1.0746  0.0322
56720SOL    HW275998  11.218   2.133   4.092 -1.2104  2.4534  0.2892
56721SOL     OW75999  10.517   9.013   8.014 -0.8445 -0.3265 -0.2769
56721SOL    HW176000  10.525   8.920   8.036 -0.5260 -0.0268  0.9447
56721SOL    HW276001  10.437   9.019   7.962 -3.5634 -0.6504  3.4985
56722SOL     OW76002   3.564   4.777   1.281  0.1498  0.5773  0.1094
56722SOL    HW176003   3.490   4.721   1.305  2.3037 -2.2779  0.5893
56722SOL    HW276004   3.627   4.765   1.352  2.6900 -0.3081 -2.1351
56723SOL     OW76005   5.054   2.588   2.716  0.7784  0.2964  0.0726
56723SOL    HW176006   5.019   2.525   2.654  0.3024  0.9290 -0.3018
56723SOL    HW276007   5.060   2.539   2.798 -1.9069  0.4095  0.4228
56724SOL     OW76008  10.080   3.096  11.953 -0.3874  0.0703  0.2625
56724SOL    HW176009  10.159   3.076  12.002 -0.1988  0.5924  0.1702
56724SOL    HW276010  10.039   3.168  12.000 -0.0043  0.8441 -0.5482
56725SOL     OW76011  10.648  11.681  10.933 -0.1905 -0.0799  0.1686
56725SOL    HW176012  10.699  11.602  10.953  0.3209  0.1375 -0.2512
56725SOL    HW276013  10.606  11.660  10.850 -0.3979 -0.0705  0.2719
56726SOL     OW76014   7.594   6.880   5.716  0.5899  0.5034 -0.0220
56726SOL    HW176015   7.621   6.801   5.670  1.8436  0.5111  0.6361
56726SOL    HW276016   7.593   6.855   5.808 -1.0292  0.7178  0.0488
56727SOL     OW76017   1.291   4.609   9.057  0.5018  0.3023 -0.0467
56727SOL    HW176018   1.225   4.660   9.104 -0.0644 -0.5605  0.1098
56727SOL    HW276019   1.370   4.664   9.060 -0.0954  1.1819  0.0839
56728SOL     OW76020   0.389   5.845   9.021  0.2870 -0.5280  0.0211
56728SOL    HW176021   0.305   5.889   9.008 -0.0511 -1.2344 -0.2397
56728SOL    HW276022   0.454   5.915   9.014 -0.3059  0.1064  0.7073
56729SOL     OW76023   8.094   3.288  11.826  0.2099 -0.3713  0.5553
56729SOL    HW176024   8.073   3.195  11.817 -1.2819 -0.5216  3.9385
56729SOL    HW276025   8.014   3.334  11.801  0.6865  0.0104 -0.3334
56730SOL     OW76026   7.161   3.487   3.358  0.0049  0.2072  0.1261
56730SOL    HW176027   7.112   3.407   3.339  0.9099 -0.5935  1.0718
56730SOL    HW276028   7.103   3.557   3.330 -3.0784 -0.5266  3.8368
56731SOL     OW76029  11.345  12.311   5.393  0.4112  0.1763 -0.1410
56731SOL    HW176030  11.345  12.243   5.325  0.8685 -1.6541  1.5861
56731SOL    HW276031  11.434  12.346   5.391  1.3156 -1.8263  1.2527
56732SOL     OW76032   7.505   3.607   5.525  0.2666 -0.3530 -0.8732
56732SOL    HW176033   7.554   3.679   5.486 -0.4237  0.5070 -0.2176
56732SOL    HW276034   7.572   3.548   5.560  0.8527  0.7494 -0.0729
56733SOL     OW76035   9.781   8.705  10.853  0.1900  0.1852 -0.8485
56733SOL    HW176036   9.726   8.778  10.824  0.4845  1.2932  1.1446
56733SOL    HW276037   9.870   8.732  10.831  0.4537  1.2019  1.1885
56734SOL     OW76038   8.046   3.377   6.618  0.0924 -0.0355 -0.2351
56734SOL    HW176039   8.063   3.434   6.693 -1.3023 -0.9953  0.8607
56734SOL    HW276040   8.126   3.325   6.608  0.8552  1.1384 -0.3846
56735SOL     OW76041   1.530   0.484   6.654  0.2268  0.5079  0.2909
56735SOL    HW176042   1.450   0.468   6.705 -2.0491  1.2249 -2.7698
56735SOL    HW276043   1.564   0.566   6.688  0.9959 -0.8399  3.0771
56736SOL     OW76044   3.521  10.426  11.388 -0.4748 -0.0721 -0.6735
56736SOL    HW176045   3.524  10.522  11.393  1.6871 -0.0712 -0.8389
56736SOL    HW276046   3.497  10.408  11.297 -0.9343  0.3125 -0.6314
56737SOL     OW76047  10.798   4.599  10.744 -0.4148 -0.1898  0.0009
56737SOL    HW176048  10.712   4.609  10.785 -0.6325  2.2033 -0.9028
56737SOL    HW276049  10.851   4.669  10.780  1.1421 -1.4897  0.3591
56738SOL     OW76050   5.537   1.779   9.881  0.3801  0.8067  0.3975
56738SOL    HW176051   5.479   1.766   9.955  0.9947 -0.1050  0.7306
56738SOL    HW276052   5.615   1.820   9.918  0.4774  0.8271  0.1714
56739SOL     OW76053   5.431  11.077   4.112 -0.1451  0.5255 -0.0879
56739SOL    HW176054   5.462  11.140   4.047 -1.6159  0.5715 -0.7762
56739SOL    HW276055   5.386  11.010   4.061  1.2613 -1.0498  0.6399
56740SOL     OW76056   4.425   9.800   4.579  0.2650 -0.0985 -0.5502
56740SOL    HW176057   4.350   9.759   4.537  0.2637 -1.3355  0.6061
56740SOL    HW276058   4.441   9.880   4.527 -2.1025  0.4487 -0.5480
56741SOL     OW76059   0.961   6.369   9.383 -0.0510  0.3175  0.0321
56741SOL    HW176060   1.033   6.394   9.441  1.6367 -0.1984 -1.7671
56741SOL    HW276061   1.003   6.329   9.307 -2.1350  1.3686 -1.7898
56742SOL     OW76062   4.530   6.807   4.002 -0.0174 -0.2331  0.0412
56742SOL    HW176063   4.525   6.746   3.929 -0.9958 -1.1105  0.8075
56742SOL    HW276064   4.574   6.884   3.966  1.7549 -1.5532 -0.8329
56743SOL     OW76065  10.079   3.102   5.123 -0.0352 -0.5079 -0.5307
56743SOL    HW176066  10.074   3.151   5.204  0.4110 -0.5405 -0.4806
56743SOL    HW276067  10.049   3.014   5.146 -4.6145  0.5642 -1.4051
56744SOL     OW76068   8.805   9.948   6.688  0.3847 -0.0604  0.2035
56744SOL    HW176069   8.764  10.006   6.623  0.0434 -1.3265 -0.7549
56744SOL    HW276070   8.761   9.970   6.771  1.0463  1.7992  0.1007
56745SOL     OW76071   1.763   6.729   3.756  0.9080  0.2756 -0.2377
56745SOL    HW176072   1.683   6.703   3.710  1.0373  1.8947 -1.4185
56745SOL    HW276073   1.834   6.698   3.701  1.0746  0.9705 -0.4185
56746SOL     OW76074   8.258   5.337   0.246 -0.4978 -0.2730 -0.2463
56746SOL    HW176075   8.351   5.334   0.269 -0.9692 -0.4350  1.9090
56746SOL    HW276076   8.238   5.250   0.213 -0.2583 -0.8698  1.1004
56747SOL     OW76077   7.209   5.009   3.535 -0.1012 -0.0119 -0.0275
56747SOL    HW176078   7.269   4.981   3.605  1.6013  1.0620 -1.0187
56747SOL    HW276079   7.192   4.929   3.485  0.7540 -0.2663  0.0803
56748SOL     OW76080   3.263   4.838   0.304 -0.0899  0.3168  0.0645
56748SOL    HW176081   3.350   4.865   0.275  0.1315 -1.2947 -0.8785
56748SOL    HW276082   3.279   4.785   0.382 -0.1133 -0.8726 -0.7214
56749SOL     OW76083   8.540  11.132   9.002 -0.0952  0.2780 -0.2985
56749SOL    HW176084   8.453  11.115   9.038 -0.7289  1.0905 -1.4018
56749SOL    HW276085   8.562  11.220   9.032  1.0205 -0.4727  1.2180
56750SOL     OW76086   9.969   2.426  10.421  0.5317  0.3947 -0.7941
56750SOL    HW176087   9.901   2.362  10.444  0.8217  0.4275  0.1903
56750SOL    HW276088  10.046   2.373  10.402  1.1443  0.4621  1.2851
56751SOL     OW76089  10.115   3.712   8.468 -0.3822 -0.1990  0.1573
56751SOL    HW176090  10.109   3.744   8.557 -2.0140  1.3001 -0.4383
56751SOL    HW276091  10.059   3.634   8.466 -1.4390  0.5443  0.1403
56752SOL     OW76092   5.988   8.428   6.063 -0.5253  0.0614  0.0722
56752SOL    HW176093   5.934   8.354   6.088 -2.0997  1.3006  0.5063
56752SOL    HW276094   5.954   8.456   5.979  1.6632 -1.1500 -1.3073
56753SOL     OW76095   4.320   5.095   2.416  0.7223 -0.4065  0.0340
56753SOL    HW176096   4.241   5.098   2.362  0.8030 -1.1487 -0.1429
56753SOL    HW276097   4.366   5.176   2.396  0.3431 -0.2911 -0.3853
56754SOL     OW76098   5.871   5.205  11.261  0.3865  0.1529  0.2498
56754SOL    HW176099   5.959   5.191  11.228  0.5438  1.2526  0.1809
56754SOL    HW276100   5.882   5.217  11.356 -0.0505 -2.8851  0.7962
56755SOL     OW76101  12.052  10.919   6.821  0.0279 -0.1626  0.1525
56755SOL    HW176102  12.035  10.825   6.817  2.0185 -0.5303 -1.5526
56755SOL    HW276103  12.033  10.950   6.732  1.1246  0.6878  0.1922
56756SOL     OW76104   5.223   5.080   8.728 -0.0120  0.6348  0.2929
56756SOL    HW176105   5.213   5.099   8.821  2.3876 -0.7632  0.8968
56756SOL    HW276106   5.209   4.986   8.720 -0.5549  0.7878 -0.8532
56757SOL     OW76107   9.834  11.319   6.264  0.1322 -0.6014 -0.3544
56757SOL    HW176108   9.818  11.308   6.170  0.2181 -1.6069 -0.2658
56757SOL    HW276109   9.882  11.401   6.270 -0.4442 -0.1854 -1.1228
56758SOL     OW76110   6.093   9.525   4.362  0.3882  0.1079  0.0219
56758SOL    HW176111   6.064   9.583   4.291  0.4693  0.3248  0.1650
56758SOL    HW276112   6.031   9.453   4.362  0.5357 -0.0236 -0.4398
56759SOL     OW76113   3.675   7.343   2.324  0.3552  0.3249  0.0521
56759SOL    HW176114   3.649   7.405   2.257 -1.5922  0.6061  0.9883
56759SOL    HW276115   3.700   7.264   2.276 -0.6113  0.6481 -1.0287
56760SOL     OW76116   6.666   3.192   4.683  0.1061 -0.2293  0.0677
56760SOL    HW176117   6.596   3.217   4.623  0.9340 -0.0624 -0.8543
56760SOL    HW276118   6.708   3.116   4.641 -1.0355 -1.9195  1.7935
56761SOL     OW76119   9.501   4.322   5.950 -0.7753 -0.5633 -0.7306
56761SOL    HW176120   9.479   4.235   5.983 -2.8423  0.2824  0.3219
56761SOL    HW276121   9.554   4.361   6.019 -2.1852 -0.0368  0.0930
56762SOL     OW76122  10.912   2.212   6.159 -0.0433 -0.6559 -0.7498
56762SOL    HW176123  10.893   2.133   6.108 -2.1432 -1.1212  0.6247
56762SOL    HW276124  10.844   2.274   6.134  2.1175  1.1576 -2.5098
56763SOL     OW76125   0.852   2.667   4.384 -0.2380 -0.1306  0.6670
56763SOL    HW176126   0.835   2.605   4.455  0.6312  0.6244  1.5606
56763SOL    HW276127   0.925   2.628   4.335 -1.0848 -0.8392 -0.0726
56764SOL     OW76128   2.593   0.017  10.671 -0.3513  0.3589 -0.2795
56764SOL    HW176129   2.618   0.093  10.724  1.1853 -0.0464 -0.3848
56764SOL    HW276130   2.675  -0.028  10.653 -0.8187  0.3974 -2.9136
56765SOL     OW76131   4.717  10.782   4.971 -0.1545  0.0426 -0.0921
56765SOL    HW176132   4.791  10.827   5.012  1.0430 -0.4518 -1.6397
56765SOL    HW276133   4.651  10.776   5.041  0.6799  1.7861  0.8980
56766SOL     OW76134   4.592   1.535   5.615  0.1291 -0.3045  0.7216
56766SOL    HW176135   4.543   1.527   5.697 -0.0746 -0.5808  0.5756
56766SOL    HW276136   4.586   1.448   5.575 -2.3689  0.5631 -1.0434
56767SOL     OW76137   7.182   3.485   9.180  0.3596 -0.0429 -0.8161
56767SOL    HW176138   7.182   3.571   9.222 -1.0873 -1.2956  2.0469
56767SOL    HW276139   7.108   3.489   9.119 -0.6191  0.3389  0.3472
56768SOL     OW76140   5.527   1.854   7.318 -0.0983  0.0734 -0.1877
56768SOL    HW176141   5.580   1.790   7.366  1.5765  1.4353 -0.0909
56768SOL    HW276142   5.437   1.823   7.326  0.6592 -2.4021 -0.3914
56769SOL     OW76143   8.684   2.241   9.273  0.3129 -0.1133  0.1863
56769SOL    HW176144   8.775   2.228   9.299  0.2417  1.0126  1.0879
56769SOL    HW276145   8.654   2.155   9.245  1.5585 -0.5611  0.1704
56770SOL     OW76146   9.704   9.105   7.943 -0.0366 -0.0964 -0.1403
56770SOL    HW176147   9.713   9.011   7.959  0.2006 -0.1408 -0.5180
56770SOL    HW276148   9.719   9.115   7.849 -2.3074  0.0357 -0.5485
56771SOL     OW76149   3.913   2.416  11.277 -0.2411  0.4492  0.4905
56771SOL    HW176150   3.949   2.479  11.215 -1.3305  0.9179  0.3245
56771SOL    HW276151   3.819   2.415  11.259 -0.4799  0.1016  1.6874
56772SOL     OW76152  11.973   2.630   3.247  0.8113 -0.1810 -0.1647
56772SOL    HW176153  11.891   2.678   3.234  0.1526 -1.2356 -0.0511
56772SOL    HW276154  12.035   2.695   3.279  0.5793  1.0627 -2.0861
56773SOL     OW76155   1.144   7.696   3.928  0.3883 -0.2383 -0.4722
56773SOL    HW176156   1.130   7.783   3.891 -1.4904  0.1150  0.9182
56773SOL    HW276157   1.119   7.636   3.858 -0.5351  0.3837 -0.6891
56774SOL     OW76158   1.171   5.970   2.592  0.8074 -0.0290 -0.2928
56774SOL    HW176159   1.172   5.945   2.685  0.3853 -1.6177 -0.6869
56774SOL    HW276160   1.149   6.063   2.593  1.7581  0.2237  1.2368
56775SOL     OW76161   1.476   2.196   4.141  0.2028 -0.7120  0.3814
56775SOL    HW176162   1.559   2.189   4.094  0.1871 -5.5217  0.6166
56775SOL    HW276163   1.410   2.208   4.073  0.8313  1.6173  0.0843
56776SOL     OW76164   7.294   8.858  11.784  0.0551  0.5745  0.3375
56776SOL    HW176165   7.329   8.947  11.777  0.3584  0.4571  0.3350
56776SOL    HW276166   7.220   8.866  11.845  0.8073  0.6213  1.2644
56777SOL     OW76167   3.273   9.909   2.734  0.3387 -0.2400  0.0456
56777SOL    HW176168   3.353   9.942   2.775  0.5530 -0.9431  0.1960
56777SOL    HW276169   3.280   9.814   2.740 -0.3192 -0.3148 -0.3078
56778SOL     OW76170   3.234   8.598  10.307  0.5873  0.0206  0.2450
56778SOL    HW176171   3.256   8.628  10.219 -0.2602  1.9809  0.6357
56778SOL    HW276172   3.303   8.635  10.363 -0.1399  0.8017  0.6618
56779SOL     OW76173   0.933  10.891   1.392 -0.2657  0.2249  0.2220
56779SOL    HW176174   0.999  10.957   1.370  2.9123 -2.3484  1.2759
56779SOL    HW276175   0.895  10.865   1.308 -0.3190  2.0515 -0.3615
56780SOL     OW76176   8.983   3.484   6.292 -0.2413  0.1235 -0.1656
56780SOL    HW176177   8.923   3.451   6.226 -1.1932 -0.8073  1.1139
56780SOL    HW276178   8.935   3.477   6.374  1.1847  0.5006  0.7434
56781SOL     OW76179   0.686   7.159   7.623 -0.2258  0.4719 -0.2976
56781SOL    HW176180   0.640   7.120   7.698  0.1255  1.2757  0.3541
56781SOL    HW276181   0.699   7.087   7.562  1.9811 -0.8723  1.6074
56782SOL     OW76182   9.295   7.034   6.060  0.0495  0.5854  0.3359
56782SOL    HW176183   9.273   7.125   6.041 -0.9248  0.2850 -0.0453
56782SOL    HW276184   9.301   6.992   5.974  3.3333  0.8600  0.3040
56783SOL     OW76185   9.229   3.156  11.549 -0.2152  0.1654 -0.6246
56783SOL    HW176186   9.322   3.180  11.558 -0.0411 -0.3210 -1.1342
56783SOL    HW276187   9.186   3.206  11.619  0.7199 -1.2745  1.0644
56784SOL     OW76188   6.401   7.318   7.783  0.0214  0.4430 -0.5514
56784SOL    HW176189   6.399   7.234   7.737  2.2296  0.3210 -0.5217
56784SOL    HW276190   6.336   7.372   7.738  0.0586 -0.6044 -1.9174
56785SOL     OW76191   1.429  10.452   8.199 -0.4487  0.1147  0.4586
56785SOL    HW176192   1.363  10.459   8.131  1.5007 -0.7467 -1.6389
56785SOL    HW276193   1.440  10.542   8.231 -0.3718  0.8137 -1.4346
56786SOL     OW76194   5.573   3.561   8.269 -0.3334 -0.7486  1.0907
56786SOL    HW176195   5.605   3.493   8.209 -0.8416  1.4401 -1.8778
56786SOL    HW276196   5.482   3.536   8.286 -0.5323 -0.8409 -0.0098
56787SOL     OW76197   3.505   2.950  11.815 -0.1041  0.2961  0.0809
56787SOL    HW176198   3.599   2.947  11.831 -0.0985 -1.5316 -0.0188
56787SOL    HW276199   3.488   3.039  11.786  1.6899  0.5052 -0.4602
56788SOL     OW76200   2.184   3.993   4.064 -0.8337  0.2288 -0.1145
56788SOL    HW176201   2.205   4.014   4.155 -0.0382 -1.1925  0.0516
56788SOL    HW276202   2.105   3.939   4.068 -0.7334  0.0687 -0.2560
56789SOL     OW76203   4.675   4.517   2.418  0.3385  0.3176  0.1655
56789SOL    HW176204   4.642   4.432   2.389  1.9707 -0.4069  0.3175
56789SOL    HW276205   4.600   4.558   2.461 -1.2533  0.0842 -2.1725
56790SOL     OW76206   1.450  10.182   9.059  0.1806 -0.0698 -0.5014
56790SOL    HW176207   1.424  10.160   8.969 -1.3788  0.6025 -0.2559
56790SOL    HW276208   1.371  10.167   9.111  1.1520 -0.7778  0.8343
56791SOL     OW76209   4.131   1.606   0.841 -0.2834  0.4930  0.3141
56791SOL    HW176210   4.075   1.641   0.771  0.2714 -1.2365 -1.0531
56791SOL    HW276211   4.172   1.684   0.879 -0.3216  1.4852 -1.5356
56792SOL     OW76212   9.689  12.234   9.780 -0.5860  0.0805  0.2459
56792SOL    HW176213   9.615  12.173   9.777 -1.2337  0.8739 -0.4519
56792SOL    HW276214   9.648  12.320   9.789  0.3395  0.3733  2.0404
56793SOL     OW76215  10.450   3.173   4.713 -0.0624  0.0719 -0.4250
56793SOL    HW176216  10.451   3.268   4.703 -1.7309  0.1343 -0.3442
56793SOL    HW276217  10.386   3.158   4.783 -1.0176 -1.1758 -1.5136
56794SOL     OW76218   6.815   1.708  10.919 -0.4703 -0.0048  0.6976
56794SOL    HW176219   6.739   1.733  10.972  0.2372 -0.5110  1.9852
56794SOL    HW276220   6.878   1.674  10.982 -0.2424 -2.2177 -0.6504
56795SOL     OW76221   3.690   3.163   3.238 -0.1724 -0.1977  0.1059
56795SOL    HW176222   3.778   3.197   3.228 -0.7777  1.4558  0.1272
56795SOL    HW276223   3.660   3.198   3.322 -1.4549  0.7392 -0.7020
56796SOL     OW76224   0.234  10.711   6.612  0.1692  0.4043  0.7384
56796SOL    HW176225   0.211  10.802   6.596 -0.3321  0.0844 -0.4516
56796SOL    HW276226   0.232  10.702   6.708 -1.7762  1.1239  0.7965
56797SOL     OW76227   4.506  10.714   3.087 -0.3095 -0.2836 -0.0659
56797SOL    HW176228   4.535  10.775   3.156  0.3504  0.9996 -1.4334
56797SOL    HW276229   4.425  10.753   3.053 -0.5188 -0.8015 -0.1704
56798SOL     OW76230   8.801   9.856   0.287  0.4101 -0.2375  0.0194
56798SOL    HW176231   8.726   9.874   0.231  0.4517 -0.6017 -0.1570
56798SOL    HW276232   8.877   9.865   0.229  0.4899 -0.0746  0.1475
56799SOL     OW76233   9.239   0.433   9.405 -0.4228  0.0554 -0.3183
56799SOL    HW176234   9.155   0.408   9.443  0.3354 -1.5319  0.3984
56799SOL    HW276235   9.272   0.502   9.463  0.1306 -1.4488  1.2425
56800SOL     OW76236   6.657  11.633   6.473 -0.5508  0.2073 -0.1290
56800SOL    HW176237   6.704  11.556   6.442 -2.5673 -0.6919 -1.0953
56800SOL    HW276238   6.605  11.662   6.399 -0.3098  2.1598  0.4080
56801SOL     OW76239   6.221  11.564   1.227  0.4421 -0.1922 -0.1273
56801SOL    HW176240   6.307  11.535   1.197 -0.0291 -2.1776  0.2890
56801SOL    HW276241   6.237  11.602   1.314  1.0920  0.9646 -0.7251
56802SOL     OW76242   6.645   5.617  10.434 -0.3154 -0.2468  0.7283
56802SOL    HW176243   6.582   5.677  10.395 -1.2238 -1.5606  0.0942
56802SOL    HW276244   6.597   5.574  10.505  0.5925  0.3853  1.7579
56803SOL     OW76245   9.391   5.239   3.613 -0.0218 -0.3450 -0.6349
56803SOL    HW176246   9.406   5.146   3.630  0.8880 -0.4457 -1.8543
56803SOL    HW276247   9.476   5.273   3.586 -0.3387  0.8621 -0.1903
56804SOL     OW76248   0.245  10.467   0.408 -0.2787  0.5288 -0.3855
56804SOL    HW176249   0.330  10.425   0.395 -0.3183 -0.7128  2.5829
56804SOL    HW276250   0.200  10.456   0.324  1.1235 -2.1568 -0.9053
56805SOL     OW76251   7.003   2.641   2.509  0.2084 -0.5207 -0.1711
56805SOL    HW176252   6.952   2.636   2.590  0.7122 -0.4381  0.1496
56805SOL    HW276253   6.943   2.606   2.442 -0.6154  0.4419  0.0376
56806SOL     OW76254   3.520   3.887   8.148  0.5663  0.0221  0.0592
56806SOL    HW176255   3.509   3.979   8.121  2.9122  0.7000  1.1370
56806SOL    HW276256   3.528   3.892   8.243 -1.0898 -1.5648  0.3306
56807SOL     OW76257   4.249   1.308   9.062 -0.3275  0.1571 -0.5215
56807SOL    HW176258   4.335   1.278   9.090 -0.8717 -1.0090 -0.0270
56807SOL    HW276259   4.216   1.239   9.005 -2.1837 -0.9986  1.7591
56808SOL     OW76260   5.920   8.470   2.027 -0.5846 -0.2169  0.2613
56808SOL    HW176261   5.863   8.399   2.056 -1.1826  0.7543  1.5462
56808SOL    HW276262   6.002   8.457   2.074  0.3864 -1.6944 -1.6912
56809SOL     OW76263   8.932   0.494   1.769 -0.3992 -0.4986  1.2285
56809SOL    HW176264   8.957   0.428   1.704  0.0552  0.9163 -0.0926
56809SOL    HW276265   9.014   0.534   1.796 -0.8396  2.6385 -1.4669
56810SOL     OW76266   7.689   3.386   4.882 -0.2955  0.4908  0.0456
56810SOL    HW176267   7.763   3.326   4.886 -0.8215 -0.1778 -0.1434
56810SOL    HW276268   7.705   3.449   4.952 -0.2655 -0.4649  0.9080
56811SOL     OW76269   2.537   9.673   4.778 -0.0798 -0.2884 -0.1326
56811SOL    HW176270   2.443   9.688   4.771 -0.2728 -1.4630 -0.2767
56811SOL    HW276271   2.562   9.707   4.864 -1.1833 -2.5382  1.1643
56812SOL     OW76272   7.712   2.148   0.079  0.4015  0.3978 -0.1105
56812SOL    HW176273   7.697   2.189   0.165  1.7418  1.7155 -0.4680
56812SOL    HW276274   7.802   2.172   0.057  0.2463 -0.3798 -1.6506
56813SOL     OW76275   0.616  10.425   5.072  0.3083 -0.0346 -1.0214
56813SOL    HW176276   0.575  10.354   5.022  1.0060 -1.5036  0.3991
56813SOL    HW276277   0.662  10.381   5.143  2.2227  1.7322 -1.0731
56814SOL     OW76278   1.038   8.693   9.921 -0.0751  0.1030 -0.2550
56814SOL    HW176279   1.118   8.683   9.870  0.0182  0.3776 -0.1656
56814SOL    HW276280   1.020   8.606   9.955  0.8496  0.2661  0.7120
56815SOL     OW76281  10.861   6.904   1.185 -0.0010  0.7091  0.1566
56815SOL    HW176282  10.954   6.920   1.201  0.4154 -0.8845 -0.4924
56815SOL    HW276283  10.859   6.820   1.139 -1.4599  2.3685 -3.2044
56816SOL     OW76284   4.272   5.038   1.389 -0.3798 -0.5288  0.0558
56816SOL    HW176285   4.353   5.076   1.355 -0.0662  0.1934  1.5467
56816SOL    HW276286   4.207   5.053   1.319 -0.4469  3.3483  0.7448
56817SOL     OW76287  10.202  10.902   5.968 -0.5572  0.0115  0.4238
56817SOL    HW176288  10.273  10.944   5.921 -2.1435  2.6566  0.1833
56817SOL    HW276289  10.227  10.810   5.973  2.2847  0.6391 -0.6285
56818SOL     OW76290   6.383   3.322  10.635  0.0601 -0.3956  0.2359
56818SOL    HW176291   6.447   3.251  10.641 -1.5153 -1.7799  1.9693
56818SOL    HW276292   6.344   3.312  10.548  1.9751  0.3476 -0.7621
56819SOL     OW76293   2.204   8.580  10.073  0.1276  0.6087  0.6427
56819SOL    HW176294   2.231   8.546  10.158  0.7744  2.4257  1.2127
56819SOL    HW276295   2.161   8.664  10.093 -0.4651  0.6735 -0.7595
56820SOL     OW76296   2.811   1.928   7.594  0.0808 -0.3260 -0.4365
56820SOL    HW176297   2.815   2.023   7.585  0.0990 -0.3028 -0.2070
56820SOL    HW276298   2.720   1.906   7.574 -0.1262 -0.1670  0.2960
56821SOL     OW76299   3.312   7.344  10.185  0.4201  0.5826  0.3613
56821SOL    HW176300   3.378   7.306  10.244  0.7603  0.2146 -0.2485
56821SOL    HW276301   3.330   7.304  10.100  0.5738  1.8517 -0.2278
56822SOL     OW76302   0.112   1.132   4.641 -0.2564  0.1279 -0.4241
56822SOL    HW176303   0.038   1.159   4.695 -0.1854 -0.3502 -0.0826
56822SOL    HW276304   0.132   1.209   4.587 -0.0422  0.7680  0.5381
56823SOL     OW76305  10.504   5.282   1.655 -0.3945 -0.3960  0.3034
56823SOL    HW176306  10.475   5.274   1.746  1.4468  0.3088  1.0172
56823SOL    HW276307  10.587   5.329   1.661 -0.9428  1.0188 -1.8774
56824SOL     OW76308   5.579   5.113   9.761 -0.0870  0.2158 -0.6713
56824SOL    HW176309   5.488   5.084   9.770  0.8028 -2.1895  1.9664
56824SOL    HW276310   5.608   5.074   9.678 -0.1239 -3.5358  0.8722
56825SOL     OW76311   3.684   1.774   6.353 -0.0182 -0.1772  0.0665
56825SOL    HW176312   3.694   1.687   6.392 -0.7514 -0.3868 -0.1981
56825SOL    HW276313   3.706   1.761   6.260  0.4929  0.0586  0.1500
56826SOL     OW76314   8.409   3.314  10.231  0.1675 -0.0477  0.2526
56826SOL    HW176315   8.442   3.261  10.304 -0.7319  0.6449  1.2062
56826SOL    HW276316   8.336   3.262  10.195 -0.2731  0.2201  0.7445
56827SOL     OW76317   3.254  10.516   9.194 -0.4406  0.1705 -0.1902
56827SOL    HW176318   3.309  10.477   9.263 -1.1995 -0.8776 -0.1581
56827SOL    HW276319   3.294  10.486   9.112 -0.5285  0.0071 -0.1745
56828SOL     OW76320   5.338   3.018   7.390  0.0365 -0.3476  0.0279
56828SOL    HW176321   5.390   3.098   7.397  0.0020 -0.4233  1.4432
56828SOL    HW276322   5.389   2.962   7.330 -0.6416  1.2150 -2.1239
56829SOL     OW76323   0.926   0.726   7.668  0.1379  0.3803 -0.0583
56829SOL    HW176324   0.981   0.662   7.623 -0.2401  0.8797 -1.2903
56829SOL    HW276325   0.988   0.788   7.707  0.4980 -0.6543  1.0583
56830SOL     OW76326   5.386  10.558   9.568  0.7407 -0.0940 -0.0289
56830SOL    HW176327   5.416  10.618   9.636 -0.1044 -1.0536  1.2361
56830SOL    HW276328   5.466  10.526   9.527  1.3266 -0.1005  1.0692
56831SOL     OW76329   9.306   4.688   5.567 -0.5564  0.3972 -0.2538
56831SOL    HW176330   9.318   4.782   5.580  1.2226  0.6250 -2.8265
56831SOL    HW276331   9.311   4.676   5.472  2.6787 -2.6168  0.0844
56832SOL     OW76332   8.469   5.515   2.310 -0.0150  0.0451 -0.2535
56832SOL    HW176333   8.373   5.518   2.304 -0.1271 -0.9609  0.7785
56832SOL    HW276334   8.487   5.514   2.404  0.9306 -1.5973 -0.4188
56833SOL     OW76335   0.658   7.582   5.205  0.0799  0.8353 -0.3424
56833SOL    HW176336   0.753   7.587   5.215  0.2075 -0.8958 -0.3211
56833SOL    HW276337   0.644   7.572   5.110 -0.0715  0.9721 -0.3354
56834SOL     OW76338   8.325   7.202   7.684  0.7525  0.1172  0.7100
56834SOL    HW176339   8.305   7.127   7.628  2.1370  0.7532 -0.7400
56834SOL    HW276340   8.265   7.195   7.757  1.0988 -2.6045  0.8143
56835SOL     OW76341   8.997   9.870   2.042 -0.4474 -0.5036 -0.7067
56835SOL    HW176342   9.086   9.889   2.014 -0.3648 -0.9112 -0.7220
56835SOL    HW276343   9.001   9.783   2.082 -1.0770 -1.1308 -1.9388
56836SOL     OW76344   4.366   3.053   6.489 -0.7197  0.3952 -0.0845
56836SOL    HW176345   4.403   3.067   6.402  0.8811  0.0218  0.5025
56836SOL    HW276346   4.278   3.019   6.472 -0.3285  0.0328 -1.5579
56837SOL     OW76347   1.667  10.165   6.497 -0.4497 -0.2545  0.3922
56837SOL    HW176348   1.758  10.134   6.499 -0.4584 -0.4919 -1.5276
56837SOL    HW276349   1.673  10.257   6.522  0.4992  0.0546 -0.8754
56838SOL     OW76350   4.821   8.866   9.445 -0.0460  0.6947  0.3941
56838SOL    HW176351   4.915   8.884   9.452  0.2370 -0.8670  1.2054
56838SOL    HW276352   4.787   8.883   9.533 -0.3886  0.5407  0.2941
56839SOL     OW76353   6.804   6.287   9.062  0.2223  0.0501  0.2748
56839SOL    HW176354   6.889   6.279   9.105  0.7892  1.4314 -0.5543
56839SOL    HW276355   6.765   6.366   9.099 -1.0774 -0.9601  1.2093
56840SOL     OW76356   1.310  10.274  11.917  0.4585 -0.4189 -0.6187
56840SOL    HW176357   1.346  10.343  11.862  0.0364  0.6355  0.3977
56840SOL    HW276358   1.215  10.288  11.914  0.4810  0.3962  1.2787
56841SOL     OW76359   0.890   1.239   5.269 -0.2056 -0.1526  0.6695
56841SOL    HW176360   0.947   1.165   5.247 -1.2658 -1.4365  2.0642
56841SOL    HW276361   0.901   1.299   5.195  2.7370 -0.4193  0.7515
56842SOL     OW76362   8.071   8.846  10.956 -0.0981  0.4071 -0.4135
56842SOL    HW176363   8.049   8.876  11.044  0.4930 -1.6462  0.4737
56842SOL    HW276364   7.986   8.825  10.916 -0.2391 -0.5723  0.3883
56843SOL     OW76365  10.409   7.013   1.608 -0.0384 -0.0628  0.8939
56843SOL    HW176366  10.466   7.076   1.651 -0.7399  0.1191  1.5642
56843SOL    HW276367  10.384   7.055   1.525  2.9838 -1.2422 -0.7885
56844SOL     OW76368   1.711   5.666   5.525  0.5787 -0.2206  0.2093
56844SOL    HW176369   1.740   5.677   5.616  1.8911 -0.0839 -0.2076
56844SOL    HW276370   1.635   5.723   5.518  0.4757 -0.2117  1.2197
56845SOL     OW76371   3.880   2.752  12.228 -0.3062  0.0032  0.2754
56845SOL    HW176372   3.828   2.701  12.290 -0.7265  1.0560  0.8055
56845SOL    HW276373   3.826   2.828  12.207  1.1601  1.3783  1.2062
56846SOL     OW76374   4.740   7.416   8.233 -0.1893 -0.4191 -0.1741
56846SOL    HW176375   4.760   7.463   8.314  0.2254 -1.7973  0.5635
56846SOL    HW276376   4.685   7.343   8.260  0.7392 -1.4575 -0.9754
56847SOL     OW76377   3.339   4.575  11.150 -0.2283  0.7922 -0.2924
56847SOL    HW176378   3.330   4.541  11.239  0.4049  0.0215 -0.5098
56847SOL    HW276379   3.258   4.624  11.135 -0.7668  0.1366  0.3635
56848SOL     OW76380   9.128   8.109   8.664 -0.2785  0.0334  0.1055
56848SOL    HW176381   9.067   8.171   8.705  1.2748  0.8757  1.2554
56848SOL    HW276382   9.091   8.092   8.578 -2.5841 -0.1699  1.0729
56849SOL     OW76383   5.050   2.234   3.917  0.4351 -1.1444 -0.5271
56849SOL    HW176384   5.116   2.302   3.910 -2.3809  1.6602 -2.4539
56849SOL    HW276385   5.057   2.203   4.008  3.1926  0.1543 -0.1922
56850SOL     OW76386   7.358   7.601   4.941 -0.1874 -0.6927 -0.4682
56850SOL    HW176387   7.431   7.540   4.951 -1.1464 -1.9861 -1.1468
56850SOL    HW276388   7.399   7.684   4.918  1.0467 -1.4859 -1.1807
56851SOL     OW76389   4.810   7.461   4.569 -0.0931  0.2248  0.5491
56851SOL    HW176390   4.871   7.532   4.549 -0.5231 -0.3562 -3.7402
56851SOL    HW276391   4.866   7.385   4.584  0.3024  0.5919  0.9425
56852SOL     OW76392   2.572  11.174   4.482  0.4643 -0.4925 -0.9005
56852SOL    HW176393   2.656  11.133   4.501  0.3840 -0.1231  0.3263
56852SOL    HW276394   2.507  11.115   4.521  0.2258 -0.2008 -0.8483
56853SOL     OW76395   3.248   4.399   3.975  0.4840 -0.4698  0.5058
56853SOL    HW176396   3.321   4.416   4.034 -1.1931  0.4067  2.4479
56853SOL    HW276397   3.207   4.484   3.961 -1.2710 -1.1725  1.0435
56854SOL     OW76398   7.852   6.507   4.609 -0.1052 -0.1843 -0.2030
56854SOL    HW176399   7.866   6.600   4.625  0.7577  0.1775 -2.6047
56854SOL    HW276400   7.770   6.504   4.559  0.3546 -0.6023 -0.9512
56855SOL     OW76401  10.872   1.541   3.695  0.7115  0.3542 -0.0918
56855SOL    HW176402  10.906   1.541   3.606  1.0700 -1.5338  0.0095
56855SOL    HW276403  10.787   1.498   3.688  0.3242  1.0253  0.3515
56856SOL     OW76404   5.033   7.093   5.052  0.1551 -0.1206 -0.7583
56856SOL    HW176405   4.989   7.009   5.068  2.2833 -1.0012  0.9472
56856SOL    HW276406   4.994   7.153   5.115 -0.3456 -0.2223 -0.9692
56857SOL     OW76407   1.259   2.933  10.331  0.0402  0.4330  0.2822
56857SOL    HW176408   1.180   2.966  10.290 -0.4893 -1.3559 -0.2165
56857SOL    HW276409   1.277   2.851  10.286  1.9043  0.5393  0.7333
56858SOL     OW76410   7.992   5.194   5.258 -0.3536 -0.0120 -0.1698
56858SOL    HW176411   7.966   5.140   5.184 -0.1748 -1.3783  0.7352
56858SOL    HW276412   8.003   5.132   5.331 -0.1211  1.2340  0.8947
56859SOL     OW76413  11.152   8.995   7.879 -0.5197  0.2006  0.2028
56859SOL    HW176414  11.211   8.954   7.816  1.0185  2.8128 -0.2034
56859SOL    HW276415  11.065   8.980   7.843  0.2430  0.7195 -2.0391
56860SOL     OW76416   3.770   4.445  11.118  0.3407 -0.0800  0.4193
56860SOL    HW176417   3.720   4.484  11.189 -0.4130 -0.8564  0.3362
56860SOL    HW276418   3.801   4.361  11.154  0.8744  0.0094  0.1876
56861SOL     OW76419   7.318   7.732   6.870  0.2769  0.4227 -0.7264
56861SOL    HW176420   7.398   7.681   6.861  0.0833 -0.1092  0.4399
56861SOL    HW276421   7.298   7.730   6.963 -1.1383  0.4600 -0.9983
56862SOL     OW76422   1.154   6.975   0.112  0.4880 -0.3950  0.4566
56862SOL    HW176423   1.164   6.907   0.178 -0.6929 -1.5414 -0.4882
56862SOL    HW276424   1.198   6.939   0.035  1.6972  0.8475  0.5338
56863SOL     OW76425   8.829  11.815   5.569 -0.3208 -0.4717  0.1989
56863SOL    HW176426   8.807  11.756   5.497 -0.0253 -1.6057  1.0148
56863SOL    HW276427   8.744  11.840   5.606 -0.5189  0.8558 -1.0988
56864SOL     OW76428   9.091  10.493   8.408 -0.0058 -0.3208  0.7410
56864SOL    HW176429   9.026  10.497   8.338  0.4398  2.0780  0.3859
56864SOL    HW276430   9.042  10.467   8.486 -1.1905  0.4469  0.2724
56865SOL     OW76431   0.959  10.306   9.973 -0.0112 -0.2134 -0.0631
56865SOL    HW176432   0.900  10.282  10.045 -0.6912 -0.1268 -0.5866
56865SOL    HW276433   0.980  10.223   9.931  2.2914 -0.5974  1.6345
56866SOL     OW76434   2.509   3.350   7.657  0.0556 -0.2794  0.2825
56866SOL    HW176435   2.425   3.396   7.652  0.2301  0.0875  0.7099
56866SOL    HW276436   2.564   3.406   7.712  0.3472 -0.8715  0.6049
56867SOL     OW76437   4.778   3.704  12.090  0.1585 -0.5317  0.0568
56867SOL    HW176438   4.828   3.710  12.010  1.7530 -1.2901  0.9554
56867SOL    HW276439   4.690   3.678  12.062  0.1746  1.0106 -1.5550
56868SOL     OW76440   2.395  10.188  12.308  0.0985 -0.2661 -0.0292
56868SOL    HW176441   2.408  10.221  12.397  0.3101  0.7050 -0.4106
56868SOL    HW276442   2.353  10.103  12.320 -0.0589 -0.0567  0.9921
56869SOL     OW76443   7.352   9.359   3.146  0.5997  0.0185  0.5270
56869SOL    HW176444   7.344   9.394   3.235  0.6099  0.3504  0.3999
56869SOL    HW276445   7.277   9.397   3.099  1.1832  0.6971  0.1230
56870SOL     OW76446   3.914   8.198   3.049 -0.1431 -0.1629 -0.5004
56870SOL    HW176447   3.838   8.165   3.001  0.3232  0.1661 -1.4966
56870SOL    HW276448   3.973   8.229   2.980 -0.3680  2.3177  0.3473
56871SOL     OW76449   6.525   9.869   3.189  0.6655  0.0377  0.6550
56871SOL    HW176450   6.620   9.881   3.177  0.6830 -0.1594  0.5961
56871SOL    HW276451   6.516   9.780   3.221  0.3669 -0.6359 -1.1559
56872SOL     OW76452  10.307   2.368   3.016  0.2991 -0.6583  0.1829
56872SOL    HW176453  10.276   2.351   2.927  3.7083 -0.4584 -1.1930
56872SOL    HW276454  10.296   2.285   3.062 -0.4861 -1.0793 -0.7242
56873SOL     OW76455   4.033   5.436   2.012 -0.0994  0.1325  0.2570
56873SOL    HW176456   4.057   5.529   2.021  0.1421  0.3670 -2.0974
56873SOL    HW276457   4.080   5.407   1.935 -2.0274 -1.2964 -0.4647
56874SOL     OW76458   7.766   4.201   0.816  0.2157  0.5221 -0.7659
56874SOL    HW176459   7.741   4.292   0.802  0.8413  1.2071  2.0235
56874SOL    HW276460   7.706   4.151   0.760 -2.6706  2.4495  0.3484
56875SOL     OW76461   2.774   8.155   5.235 -0.1473 -0.4209 -0.0174
56875SOL    HW176462   2.750   8.248   5.228  0.1906 -0.3099  0.2423
56875SOL    HW276463   2.797   8.130   5.146 -0.7666 -0.4038 -0.1864
56876SOL     OW76464   6.415   8.917   8.764  0.2115  0.8890  0.1454
56876SOL    HW176465   6.477   8.879   8.703 -0.9576  0.0186 -0.5477
56876SOL    HW276466   6.355   8.968   8.709 -0.4678  0.6272  0.6276
56877SOL     OW76467   3.954   5.631   0.082 -0.1754 -0.6591  0.0665
56877SOL    HW176468   3.859   5.615   0.083 -0.1131 -1.0433 -0.0313
56877SOL    HW276469   3.975   5.653   0.173 -0.3481 -0.6378  0.1030
56878SOL     OW76470   2.096   9.206   3.945  0.2892  0.4949 -0.9191
56878SOL    HW176471   2.118   9.192   3.853  0.0730 -2.4091 -0.6194
56878SOL    HW276472   2.097   9.119   3.984 -0.7920  1.4932  1.5974
56879SOL     OW76473   2.250   3.524   1.427  0.2883 -0.3675 -0.0935
56879SOL    HW176474   2.330   3.529   1.374  1.5482 -0.1038  1.7299
56879SOL    HW276475   2.228   3.431   1.428  2.0183 -0.8250  1.3163
56880SOL     OW76476   9.676   9.694  10.689  0.0625 -0.0067 -0.5187
56880SOL    HW176477   9.705   9.641  10.764 -1.7338  0.6616  0.7203
56880SOL    HW276478   9.714   9.781  10.706  1.8202 -0.4723 -1.8042
56881SOL     OW76479   7.238   9.008   9.764 -0.1552 -0.1501  0.3149
56881SOL    HW176480   7.312   9.040   9.815 -0.1192 -0.4551  0.4546
56881SOL    HW276481   7.277   8.958   9.693 -0.2449 -1.0960  0.9169
56882SOL     OW76482   2.146   0.267  10.220  0.0387  0.0761 -0.7190
56882SOL    HW176483   2.091   0.277  10.299 -0.2972 -1.6251 -0.6792
56882SOL    HW276484   2.149   0.354  10.181 -0.1954  0.8558  0.9139
56883SOL     OW76485   0.918   4.866   0.114 -0.0011 -0.3360 -0.4451
56883SOL    HW176486   0.953   4.949   0.146 -0.8456  0.2368 -0.9504
56883SOL    HW276487   0.995   4.815   0.090  0.5233  0.4319 -0.4473
56884SOL     OW76488   7.555   2.887  11.335  0.0221 -0.2279  0.5293
56884SOL    HW176489   7.644   2.881  11.369 -0.0595  0.1876  0.8197
56884SOL    HW276490   7.500   2.902  11.412 -0.2789 -0.2923  0.3297
56885SOL     OW76491   3.085   2.814   0.674 -0.5607  0.0853 -0.1385
56885SOL    HW176492   3.108   2.833   0.765  1.4242 -0.6125 -0.4608
56885SOL    HW276493   2.990   2.827   0.671 -0.6658  0.2179  1.9970
56886SOL     OW76494   4.124   6.960   0.990  0.1036  0.4284 -0.0404
56886SOL    HW176495   4.160   6.905   1.059  0.8154  0.5129 -0.3402
56886SOL    HW276496   4.089   7.036   1.036  0.5926  0.4953  0.2317
56887SOL     OW76497   7.443   7.259   7.224  0.2523  0.2632  0.1433
56887SOL    HW176498   7.441   7.233   7.132 -1.1146 -0.8113  0.4482
56887SOL    HW276499   7.502   7.195   7.265  0.1599  0.1984  0.1744
56888SOL     OW76500   2.797   9.062   4.820  0.2608  0.0075 -0.2656
56888SOL    HW176501   2.889   9.036   4.819  0.7636  1.6957  0.0459
56888SOL    HW276502   2.798   9.157   4.812 -1.4793  0.0320 -0.6179
56889SOL     OW76503   7.653   8.057   5.768  0.4259 -0.6961  0.0348
56889SOL    HW176504   7.593   7.983   5.770  1.2768 -1.4364 -0.7200
56889SOL    HW276505   7.721   8.035   5.831  1.6005 -1.4044 -1.4231
56890SOL     OW76506  11.578   2.013   0.781 -0.3349  0.6746  0.3192
56890SOL    HW176507  11.528   2.037   0.859 -1.2380 -0.5910  0.1670
56890SOL    HW276508  11.584   2.094   0.731  0.1306  1.4775  1.6193
56891SOL     OW76509   5.239   0.286  11.801 -0.2442 -0.0377 -0.3773
56891SOL    HW176510   5.284   0.223  11.746 -1.1196  0.1396 -1.3257
56891SOL    HW276511   5.217   0.358  11.742  0.7841  1.2020  0.6845
56892SOL     OW76512   0.510   4.953   2.384 -0.4143 -0.3064 -0.7013
56892SOL    HW176513   0.558   5.035   2.371 -3.7823  2.2201  1.1460
56892SOL    HW276514   0.444   4.952   2.315 -1.9720 -0.1017  0.7232
56893SOL     OW76515   6.015   1.075   7.333 -0.6335 -0.5707  0.6085
56893SOL    HW176516   5.944   1.096   7.393 -0.4869 -1.2002  1.0104
56893SOL    HW276517   6.095   1.087   7.385 -0.4641 -0.2118  0.2662
56894SOL     OW76518  11.690   5.062   3.818 -0.0945  0.2404  0.3315
56894SOL    HW176519  11.675   5.147   3.777  0.5088 -0.7881 -2.2165
56894SOL    HW276520  11.762   5.078   3.880 -2.3066  2.2521  2.6582
56895SOL     OW76521   6.481   7.797   4.279  0.4589 -0.4420 -0.1216
56895SOL    HW176522   6.550   7.811   4.214  1.2428  0.0115  0.7848
56895SOL    HW276523   6.527   7.767   4.357 -0.3383  0.1308  0.5902
56896SOL     OW76524   5.007  11.523   0.625 -0.0887 -0.0166 -0.5722
56896SOL    HW176525   5.043  11.513   0.712 -0.4987  1.5418 -0.1901
56896SOL    HW276526   4.973  11.436   0.602 -1.9549  0.0212  1.7318
56897SOL     OW76527   6.033   2.587   7.220  0.5785  0.0679 -0.2235
56897SOL    HW176528   5.996   2.572   7.307 -0.6609  0.2471 -0.6925
56897SOL    HW276529   5.957   2.595   7.163  1.2220  2.8410 -0.8728
56898SOL     OW76530   5.367   3.931  11.532 -0.3253  0.3029  0.4162
56898SOL    HW176531   5.445   3.915  11.584  0.1059  1.2947  0.1032
56898SOL    HW276532   5.370   4.025  11.512 -0.8984  0.1011 -0.7109
56899SOL     OW76533   9.255   2.492   8.699 -0.3036 -0.1072  0.4037
56899SOL    HW176534   9.252   2.424   8.765 -0.7417 -1.6953 -1.1755
56899SOL    HW276535   9.166   2.528   8.696 -0.7992 -1.3329 -0.5653
56900SOL     OW76536   0.708   0.578   9.806 -0.2783  0.5172 -0.4353
56900SOL    HW176537   0.725   0.531   9.888  1.0314  2.5358  0.5422
56900SOL    HW276538   0.657   0.655   9.833 -0.2557  0.9575 -1.6052
56901SOL     OW76539   7.830   3.265   7.064 -0.3393  0.5930 -0.3232
56901SOL    HW176540   7.735   3.281   7.064 -0.5565 -0.6055 -0.3000
56901SOL    HW276541   7.867   3.343   7.104 -1.4672  0.3117  1.4046
56902SOL     OW76542   7.732   8.199   1.960  0.1319 -0.4840  0.2899
56902SOL    HW176543   7.745   8.109   1.928 -0.1344 -0.7356  0.8850
56902SOL    HW276544   7.792   8.252   1.907  2.1864 -1.3436  1.6266
56903SOL     OW76545   3.483   9.650   0.619  0.7491  0.2524 -0.5719
56903SOL    HW176546   3.512   9.734   0.653 -0.4649 -0.0831  1.4353
56903SOL    HW276547   3.544   9.586   0.656 -1.1066 -0.2171  1.9433
56904SOL     OW76548   1.967   9.952   8.320 -0.6040  0.0592  0.2808
56904SOL    HW176549   1.915   9.923   8.395 -0.2998  0.0991  0.5116
56904SOL    HW276550   1.999   9.870   8.281 -0.2219  0.0564  0.5894
56905SOL     OW76551   8.484   7.510  10.998  1.0222 -0.1729  0.3674
56905SOL    HW176552   8.423   7.536  10.929  1.7062 -0.0257 -0.1959
56905SOL    HW276553   8.538   7.588  11.013  0.7390 -0.1367  1.2214
56906SOL     OW76554   6.080   7.293   0.942  0.7100  0.3700  0.5842
56906SOL    HW176555   5.997   7.249   0.925  0.8272  0.9232 -1.7893
56906SOL    HW276556   6.130   7.230   0.995 -0.8542 -0.3274  1.3050
56907SOL     OW76557   1.016   1.571   0.333  0.0818  0.1487  0.3338
56907SOL    HW176558   1.100   1.613   0.313 -0.1913  1.0049  0.9346
56907SOL    HW276559   0.950   1.637   0.310 -0.3246  0.3567  1.9418
56908SOL     OW76560   3.538   8.406   4.203  0.4570  0.2496 -0.1632
56908SOL    HW176561   3.569   8.495   4.189  1.3945  0.0429  0.4878
56908SOL    HW276562   3.613   8.351   4.180  0.5039 -0.2837  1.2072
56909SOL     OW76563   9.484   3.482   1.881  0.1117 -0.5326 -0.0029
56909SOL    HW176564   9.541   3.498   1.956  0.0116  0.0330 -0.0451
56909SOL    HW276565   9.493   3.388   1.864  1.5280 -0.3510 -0.3950
56910SOL     OW76566   1.384   1.229   3.246  0.0481 -0.2677 -0.1772
56910SOL    HW176567   1.375   1.324   3.240  0.0756 -0.1002  1.6956
56910SOL    HW276568   1.397   1.200   3.156 -1.5787  1.3160 -0.9906
56911SOL     OW76569  10.361   8.641  10.675  0.0877  0.3160  0.0692
56911SOL    HW176570  10.372   8.715  10.735  1.9325 -0.4188  0.7108
56911SOL    HW276571  10.426   8.657  10.606 -1.9822  1.1466 -1.8347
56912SOL     OW76572   3.371   2.454   7.819  0.1401 -0.1799  0.1103
56912SOL    HW176573   3.376   2.496   7.733  0.1849 -0.5322 -0.0629
56912SOL    HW276574   3.439   2.496   7.871  1.5765 -1.4124 -0.6723
56913SOL     OW76575   2.494   6.819   4.459 -0.7539  0.5491  0.0061
56913SOL    HW176576   2.499   6.747   4.522 -0.6774 -0.8914 -1.5605
56913SOL    HW276577   2.577   6.813   4.411 -0.6798  1.8177 -0.0423
56914SOL     OW76578   2.058   1.632   4.754  0.1369  0.4394 -0.7972
56914SOL    HW176579   2.069   1.711   4.700 -0.0127 -0.7698 -2.6737
56914SOL    HW276580   1.967   1.606   4.739 -0.0501  0.3253  0.4414
56915SOL     OW76581   8.332   3.966   4.445  0.3340 -0.3993 -0.1293
56915SOL    HW176582   8.359   3.915   4.368  1.1231 -0.7771  0.3791
56915SOL    HW276583   8.381   3.927   4.518  1.5370  1.5633  0.1748
56916SOL     OW76584   1.420   3.536   8.933 -0.6351 -0.2066 -0.6531
56916SOL    HW176585   1.357   3.606   8.916 -1.2215 -0.3655  0.6901
56916SOL    HW276586   1.505   3.577   8.919 -0.9348  1.0495  0.8264
56917SOL     OW76587   5.701   6.413   7.961  0.4669 -0.1233  0.2882
56917SOL    HW176588   5.751   6.342   7.922  0.9624  0.6407 -0.5010
56917SOL    HW276589   5.704   6.396   8.056  0.5940 -1.1254  0.1117
56918SOL     OW76590   2.549   3.564   7.042 -0.6458 -0.2041 -0.0406
56918SOL    HW176591   2.472   3.508   7.057  0.2390 -1.4706 -0.1183
56918SOL    HW276592   2.611   3.508   6.996 -0.7390  1.6144 -2.6113
56919SOL     OW76593   1.535  11.141   3.761 -0.0132  0.9164 -0.0256
56919SOL    HW176594   1.550  11.141   3.667 -0.3231  0.4758 -0.0798
56919SOL    HW276595   1.618  11.169   3.799  0.6046 -0.3732 -0.3666
56920SOL     OW76596   6.380   3.322   9.386  0.3514  0.0540  0.9782
56920SOL    HW176597   6.303   3.276   9.354 -1.0754  0.5606  3.4202
56920SOL    HW276598   6.436   3.253   9.422  0.6767 -0.2433 -0.0864
56921SOL     OW76599  11.501  10.543   5.629  0.2772  0.6046 -0.0816
56921SOL    HW176600  11.496  10.458   5.586  0.4631  1.0449 -1.0172
56921SOL    HW276601  11.452  10.532   5.711 -0.2440 -0.2238 -0.4882
56922SOL     OW76602   5.817   3.736   0.564  0.0225 -0.7243 -0.3399
56922SOL    HW176603   5.879   3.765   0.631 -0.3395 -0.9023  0.0776
56922SOL    HW276604   5.833   3.795   0.490 -0.3261  0.2012  0.3036
56923SOL     OW76605   9.355   6.477   4.410  0.1876  0.4914  0.5125
56923SOL    HW176606   9.332   6.551   4.465 -1.2965 -0.1405  0.7811
56923SOL    HW276607   9.361   6.514   4.321 -2.0217  0.7065  0.4078
56924SOL     OW76608   9.707   8.602   6.422  0.0453 -0.1383  0.0726
56924SOL    HW176609   9.645   8.531   6.436 -0.3533 -0.4221 -2.5611
56924SOL    HW276610   9.653   8.681   6.425 -0.0827 -0.2178 -0.0962
56925SOL     OW76611   0.723   2.724   8.692 -0.8931 -0.0806  0.3355
56925SOL    HW176612   0.684   2.811   8.682 -0.3657  0.2073  0.7447
56925SOL    HW276613   0.740   2.717   8.786 -0.3000 -0.3538  0.2063
56926SOL     OW76614   3.420   4.518  11.843  0.0291 -0.1000  0.4605
56926SOL    HW176615   3.392   4.599  11.885 -1.2890 -0.3380  0.0908
56926SOL    HW276616   3.451   4.463  11.915 -4.0144 -1.2768  1.6040
56927SOL     OW76617   7.292   1.523  11.587 -0.1814  0.6879 -0.0922
56927SOL    HW176618   7.342   1.602  11.609  0.5257  0.7256 -1.6871
56927SOL    HW276619   7.311   1.462  11.658  0.7207  1.3276  0.2371
56928SOL     OW76620   8.951   8.896   8.827  0.2785  0.7249  0.4003
56928SOL    HW176621   8.930   8.854   8.911  1.5226  2.2591  1.5152
56928SOL    HW276622   8.952   8.989   8.847 -1.6945  1.3282 -1.8696
56929SOL     OW76623   0.608   0.418  10.370 -0.5996  0.4440 -0.1225
56929SOL    HW176624   0.693   0.426  10.327 -0.6907 -1.9217 -0.8715
56929SOL    HW276625   0.611   0.482  10.441  1.4604  0.9987 -0.6454
56930SOL     OW76626  10.876   1.706   4.967 -0.1346  0.0190  0.0174
56930SOL    HW176627  10.951   1.713   5.026 -0.3799 -0.6911  0.4289
56930SOL    HW276628  10.800   1.697   5.025 -0.4762  0.1836 -0.3982
56931SOL     OW76629   6.369  10.786   0.665 -0.1821  0.1423 -0.3690
56931SOL    HW176630   6.357  10.722   0.735 -0.3530  1.3872  0.7764
56931SOL    HW276631   6.464  10.793   0.655  0.0315  2.3223  2.0843
56932SOL     OW76632   7.480   5.649   0.091  0.7046 -0.0093 -0.2284
56932SOL    HW176633   7.407   5.634   0.030  0.4387  0.2186  0.0321
56932SOL    HW276634   7.539   5.708   0.044  0.1383  0.7643  0.0108
56933SOL     OW76635   8.754  10.769  11.712 -0.6838  0.1821 -0.0966
56933SOL    HW176636   8.826  10.746  11.770 -1.1475  0.1084  0.4648
56933SOL    HW276637   8.773  10.857  11.683 -0.7162  0.4329  0.6136
56934SOL     OW76638   5.451   3.091   6.965  0.2022  0.2801 -0.2078
56934SOL    HW176639   5.513   3.117   7.033  0.7618  0.8552 -0.9323
56934SOL    HW276640   5.420   3.173   6.928 -0.5329 -0.0187 -0.2724
56935SOL     OW76641   7.988   0.202   1.439 -0.6008  0.5626 -0.1531
56935SOL    HW176642   7.958   0.286   1.473 -0.7521  0.0626  0.9776
56935SOL    HW276643   8.053   0.172   1.502  0.0256  0.1787 -0.9543
56936SOL     OW76644   5.053   9.307   0.952 -0.4341  0.6466 -0.3009
56936SOL    HW176645   5.080   9.380   0.896  1.6101  0.7303  0.6979
56936SOL    HW276646   5.124   9.244   0.945 -1.4177 -0.5453  0.1158
56937SOL     OW76647   2.645   1.093   3.226 -0.0639 -0.7479 -0.1678
56937SOL    HW176648   2.649   1.000   3.247  3.5820 -1.1675 -1.9491
56937SOL    HW276649   2.624   1.096   3.132 -0.7275  0.3084 -0.0088
56938SOL     OW76650   3.599   9.301  11.181  0.0154 -0.5438 -0.2544
56938SOL    HW176651   3.607   9.396  11.175 -0.0545 -0.4627  0.7114
56938SOL    HW276652   3.506   9.283  11.167 -0.4592 -0.2089  2.0905
56939SOL     OW76653   8.936   5.257   0.538  0.4414  0.3404  0.0016
56939SOL    HW176654   8.943   5.262   0.633 -1.6618  1.6355  0.1501
56939SOL    HW276655   8.895   5.172   0.522 -0.5511  0.7428  0.3673
56940SOL     OW76656   0.485   3.159   7.516  0.2724  0.3358  0.6292
56940SOL    HW176657   0.468   3.151   7.423 -2.0055  0.3834  0.9797
56940SOL    HW276658   0.402   3.136   7.558  1.7076 -1.4914  2.7434
56941SOL     OW76659   1.608   6.258   6.033  0.3659 -0.1028  0.2356
56941SOL    HW176660   1.656   6.188   5.988 -0.1703 -0.3872  0.1037
56941SOL    HW276661   1.625   6.243   6.126  1.8923  0.7799  0.1323
56942SOL     OW76662  10.107   1.207   4.277 -0.4658  0.2810  0.5887
56942SOL    HW176663  10.121   1.130   4.222 -0.7287  0.7846 -0.2105
56942SOL    HW276664  10.057   1.267   4.221 -1.4389  0.5012  1.6589
56943SOL     OW76665   4.726   4.063   5.954 -0.6580  0.1654  0.2493
56943SOL    HW176666   4.734   4.056   5.859  0.7045 -1.9704  0.4518
56943SOL    HW276667   4.633   4.049   5.971 -0.7142 -0.7844 -0.7014
56944SOL     OW76668   4.225   1.432   4.841 -0.0480 -0.2082  0.0396
56944SOL    HW176669   4.243   1.512   4.891 -0.2448 -0.4781  0.5571
56944SOL    HW276670   4.139   1.446   4.802 -0.8648 -0.8256  1.5281
56945SOL     OW76671  10.713   9.682   0.871 -0.2455 -0.1585 -0.1616
56945SOL    HW176672  10.727   9.776   0.884 -1.8991  0.2444 -1.0581
56945SOL    HW276673  10.696   9.648   0.959  0.0449  0.4338  0.1313
56946SOL     OW76674  11.887   3.948   0.023  0.1827  0.3683 -0.2363
56946SOL    HW176675  11.822   4.001  -0.023 -0.1638 -0.5818 -0.8696
56946SOL    HW276676  11.853   3.859   0.019  1.0984 -0.0171  0.1944
56947SOL     OW76677  10.530   5.382   3.229 -0.4427  0.1571 -0.2322
56947SOL    HW176678  10.462   5.386   3.162 -0.5834  0.1599 -0.0885
56947SOL    HW276679  10.601   5.331   3.189 -0.0909  1.0450 -0.7808
56948SOL     OW76680   4.859   3.397   3.837  0.5105 -0.4343 -0.5819
56948SOL    HW176681   4.862   3.434   3.925  1.8438 -1.6625 -0.0646
56948SOL    HW276682   4.867   3.302   3.851  1.5552 -0.5974 -2.0441
56949SOL     OW76683   9.328   1.492   3.856 -0.5409  0.5710 -0.7734
56949SOL    HW176684   9.263   1.422   3.851 -1.2713  1.1523  0.1548
56949SOL    HW276685   9.332   1.514   3.949  0.1642  1.3093 -0.9701
56950SOL     OW76686   2.330   8.890   0.181  0.0270 -0.6284 -0.2350
56950SOL    HW176687   2.367   8.876   0.268  0.7636 -1.7552 -0.7030
56950SOL    HW276688   2.320   8.802   0.145 -1.7848 -0.2581 -0.6942
56951SOL     OW76689   1.631   3.279   0.953  0.6457  0.9545  0.3428
56951SOL    HW176690   1.689   3.209   0.921  1.1834  0.9604  1.2408
56951SOL    HW276691   1.641   3.275   1.048 -1.7392  0.1977  0.6179
56952SOL     OW76692   5.310   7.210   8.464  0.0026 -0.2448 -0.0389
56952SOL    HW176693   5.368   7.248   8.398  0.7082 -1.6656 -0.2705
56952SOL    HW276694   5.222   7.216   8.425  0.3414 -0.5238 -0.8605
56953SOL     OW76695   0.347   2.448  11.839 -0.3794  0.6076  0.1603
56953SOL    HW176696   0.432   2.459  11.796 -0.2279  1.6107  0.6697
56953SOL    HW276697   0.353   2.364  11.884  0.1738  0.4503 -0.1960
56954SOL     OW76698  12.066  12.283   1.226 -0.1866 -0.2605  0.2369
56954SOL    HW176699  12.038  12.193   1.213 -2.1840  0.2950  0.4531
56954SOL    HW276700  12.061  12.297   1.320  0.7688 -0.1009  0.2768
56955SOL     OW76701   2.186   5.829   0.262  0.4178  0.0508  0.3310
56955SOL    HW176702   2.126   5.814   0.189  1.6281 -0.5518 -0.5612
56955SOL    HW276703   2.135   5.882   0.323 -0.5469  0.7748 -1.0422
56956SOL     OW76704   2.764   6.076   1.199 -0.3981 -0.0501  0.0211
56956SOL    HW176705   2.673   6.046   1.205 -0.9199  1.6630  1.3869
56956SOL    HW276706   2.815   5.996   1.190 -1.9800 -1.0920 -0.0762
56957SOL     OW76707  10.721   0.798   3.532 -0.3465  0.2844 -0.0088
56957SOL    HW176708  10.692   0.878   3.577 -3.5700 -0.1354 -1.1252
56957SOL    HW276709  10.690   0.808   3.442  1.0992 -1.3244 -0.7404
56958SOL     OW76710  11.707   4.585   4.306 -0.3362 -0.1705  0.1208
56958SOL    HW176711  11.728   4.512   4.248  0.2086  0.2282 -0.1944
56958SOL    HW276712  11.628   4.623   4.270  0.2037  0.2998 -0.5791
56959SOL     OW76713   6.786   9.908   6.432  0.5739  0.1357 -0.2388
56959SOL    HW176714   6.875   9.909   6.397  0.4687  0.0370 -0.5150
56959SOL    HW276715   6.733   9.947   6.362  0.5191  0.9835  0.2559
56960SOL     OW76716  12.195   0.548   7.401 -0.3308 -0.3105 -0.7611
56960SOL    HW176717  12.275   0.549   7.454  0.2224  0.6587 -1.5963
56960SOL    HW276718  12.124   0.545   7.466  0.3665 -0.6689 -0.0017
56961SOL     OW76719   3.257   4.433   3.110  0.0691  0.0183 -0.1066
56961SOL    HW176720   3.242   4.350   3.154 -0.1419 -0.8448 -1.7436
56961SOL    HW276721   3.202   4.496   3.159 -0.7956 -1.0543  0.3419
56962SOL     OW76722  11.550   0.106   8.641 -0.3267 -0.5106  0.0282
56962SOL    HW176723  11.623   0.068   8.689 -0.0620 -0.3513 -0.2483
56962SOL    HW276724  11.477   0.105   8.704  0.6273  2.0134  1.3096
56963SOL     OW76725  10.549   1.862  11.824  0.4805 -0.4409 -0.0619
56963SOL    HW176726  10.470   1.853  11.877  0.4635  1.1095  0.2089
56963SOL    HW276727  10.522   1.913  11.748  1.0471 -0.6093 -0.3904
56964SOL     OW76728  10.372  11.121  11.073  0.5336  0.4239  0.2941
56964SOL    HW176729  10.390  11.205  11.114  1.3400  1.1246 -1.3954
56964SOL    HW276730  10.457  11.080  11.061  0.3080  0.1717 -0.5217
56965SOL     OW76731  11.088   1.209   9.365 -0.2945 -0.1747 -0.2347
56965SOL    HW176732  11.050   1.124   9.387 -0.1336  0.0799  1.1155
56965SOL    HW276733  11.019   1.272   9.384  0.1405  0.1293  0.3629
56966SOL     OW76734   2.611   4.997   5.687 -0.2680  0.3283 -0.2023
56966SOL    HW176735   2.580   4.916   5.727 -2.7087  0.6165 -1.3565
56966SOL    HW276736   2.646   4.970   5.602  1.9014  0.1425  0.6827
56967SOL     OW76737   8.581   2.325   5.838  0.1873 -0.0168 -0.2225
56967SOL    HW176738   8.632   2.311   5.758 -0.1284 -0.5392 -0.3386
56967SOL    HW276739   8.617   2.262   5.901  0.9727  0.9370  0.3119
56968SOL     OW76740   6.179   3.919   2.493  0.1849  0.1249 -0.0484
56968SOL    HW176741   6.146   4.001   2.455 -0.0596  0.3770  0.6823
56968SOL    HW276742   6.263   3.905   2.451 -0.7840 -0.4735 -1.8941
56969SOL     OW76743   7.730   0.495  11.858 -0.4003  0.3810 -0.5683
56969SOL    HW176744   7.756   0.521  11.770  0.6393  2.7770  0.3447
56969SOL    HW276745   7.773   0.412  11.873  1.3155  1.0520 -1.5220
56970SOL     OW76746   6.581   6.175   5.945  0.5227 -0.1260  0.2176
56970SOL    HW176747   6.563   6.162   5.852  0.9962  1.6916 -0.1701
56970SOL    HW276748   6.676   6.161   5.953  0.5707  0.2363  0.3100
56971SOL     OW76749  10.685   0.396   8.505  0.4533 -0.1996  0.3758
56971SOL    HW176750  10.746   0.334   8.465 -0.4438 -0.9020  0.0782
56971SOL    HW276751  10.604   0.347   8.515 -0.6510  1.2698 -0.9864
56972SOL     OW76752   0.787   0.233   0.580 -0.3677  0.8508  0.5414
56972SOL    HW176753   0.701   0.258   0.615  0.3564  2.4831  1.2749
56972SOL    HW276754   0.826   0.179   0.648 -0.4141  0.9800  0.6723
56973SOL     OW76755  10.258   1.440   1.770 -0.3356 -0.1727 -0.5639
56973SOL    HW176756  10.198   1.501   1.813  0.4089  0.4362 -0.3593
56973SOL    HW276757  10.204   1.393   1.707 -1.4405 -1.0570  0.9964
56974SOL     OW76758   7.732   6.091   6.328 -0.1780  0.2402  0.2516
56974SOL    HW176759   7.693   6.006   6.309  0.5695  0.2487 -1.5256
56974SOL    HW276760   7.818   6.070   6.364 -0.7535  0.2497  1.6839
56975SOL     OW76761   6.791   1.681   4.757  0.0771 -0.3060 -0.1349
56975SOL    HW176762   6.837   1.735   4.693 -2.2782  2.2873  0.1571
56975SOL    HW276763   6.700   1.714   4.755 -0.3998 -0.9480  3.5834
56976SOL     OW76764   5.229  10.425   6.245 -0.0084 -0.1441  0.5379
56976SOL    HW176765   5.265  10.463   6.165 -0.1694 -0.8680  0.1109
56976SOL    HW276766   5.253  10.332   6.241 -2.4301 -0.8171 -0.0916
56977SOL     OW76767   9.298   1.698   5.006 -0.0176  0.1397  0.4192
56977SOL    HW176768   9.330   1.696   4.916  0.6644  1.2901  0.6187
56977SOL    HW276769   9.349   1.630   5.051  0.8620  0.6938  0.2999
56978SOL     OW76770  10.424   1.679   2.414 -0.7223 -0.0586 -0.1002
56978SOL    HW176771  10.414   1.584   2.420 -0.2098 -0.1222 -0.1376
56978SOL    HW276772  10.463   1.694   2.328 -1.2595  0.2313 -0.2962
56979SOL     OW76773   0.563  12.231   6.741 -0.4631  0.2219  0.2630
56979SOL    HW176774   0.550  12.284   6.663 -0.7090  0.5235  0.5053
56979SOL    HW276775   0.599  12.291   6.806  1.4024 -0.4269 -0.1348
56980SOL     OW76776  12.028   3.264   0.405 -0.0333 -0.4034 -0.1559
56980SOL    HW176777  11.955   3.313   0.369  0.2982  1.5667  1.6498
56980SOL    HW276778  12.094   3.264   0.336 -0.0960  1.6680 -0.2838
56981SOL     OW76779   4.375   9.263   1.634  0.3511 -0.4956 -0.8856
56981SOL    HW176780   4.301   9.318   1.609  1.5737  0.6151 -2.2709
56981SOL    HW276781   4.397   9.289   1.723 -0.2559 -0.0814 -0.8575
56982SOL     OW76782   8.980   8.903   2.338 -0.0801 -0.1336  0.0475
56982SOL    HW176783   8.927   8.962   2.284 -0.2187  1.0911  1.4373
56982SOL    HW276784   9.070   8.924   2.316 -0.1478 -0.1352 -0.2276
56983SOL     OW76785  10.822   8.453   5.695 -0.6558  0.3433  0.3501
56983SOL    HW176786  10.810   8.360   5.712  1.4257  0.1504  1.0224
56983SOL    HW276787  10.856   8.488   5.777 -2.3668  1.9406  0.4438
56984SOL     OW76788   0.589   4.556   9.139 -0.7759  0.4635  1.1940
56984SOL    HW176789   0.633   4.641   9.133  0.9217 -0.3231  1.7569
56984SOL    HW276790   0.496   4.576   9.128 -0.4611  2.4450  1.7373
56985SOL     OW76791   4.285   8.279  12.246  0.1198 -0.0896  0.5382
56985SOL    HW176792   4.363   8.312  12.291  0.7595 -1.1692  0.2857
56985SOL    HW276793   4.263   8.346  12.182  2.0325 -0.5834 -0.7223
56986SOL     OW76794   7.249   7.616   0.546  0.6299  0.0870 -0.3712
56986SOL    HW176795   7.233   7.689   0.605 -0.0695  1.7414 -2.4649
56986SOL    HW276796   7.306   7.652   0.478 -0.2457 -1.1191 -1.8107
56987SOL     OW76797   4.494   3.475   1.267 -0.3019  0.3279  0.2129
56987SOL    HW176798   4.544   3.460   1.186 -0.8150 -0.0404 -0.0432
56987SOL    HW276799   4.487   3.571   1.273  0.4611  0.3852  0.2734
56988SOL     OW76800   7.049  11.014  10.186 -0.5258 -0.6395 -0.4696
56988SOL    HW176801   6.984  11.014  10.255  0.6020 -0.8178  0.6175
56988SOL    HW276802   7.090  11.101  10.190  1.6814 -1.6633  1.2104
56989SOL     OW76803  11.673   9.532   9.934  0.1577  0.1153  0.3756
56989SOL    HW176804  11.752   9.577   9.904  1.4632 -0.9629  2.0067
56989SOL    HW276805  11.612   9.603   9.953  1.2650  1.0885  0.4757
56990SOL     OW76806  11.071   2.931   8.201 -0.2585  0.0802 -0.3871
56990SOL    HW176807  10.983   2.967   8.198 -0.2822 -0.0216 -1.0576
56990SOL    HW276808  11.091   2.909   8.110 -0.5412 -2.3165  0.0588
56991SOL     OW76809   8.112   0.340   6.639 -0.6796 -0.1202 -0.2289
56991SOL    HW176810   8.126   0.334   6.544 -2.0170 -2.5533 -0.3562
56991SOL    HW276811   8.192   0.303   6.676 -0.1810  0.7750 -0.3656
56992SOL     OW76812  11.718   1.932   7.241  0.4748  0.4152  0.0641
56992SOL    HW176813  11.716   1.866   7.172  4.3868 -1.3687  1.3494
56992SOL    HW276814  11.765   2.006   7.203 -0.2067  0.7628 -0.1139
56993SOL     OW76815  10.734   6.228  12.077  0.1987 -0.1042 -0.0121
56993SOL    HW176816  10.665   6.243  12.142  1.3730  0.0185  1.2511
56993SOL    HW276817  10.738   6.310  12.027  1.1592  0.8841  1.6077
56994SOL     OW76818   4.087  11.091   5.522 -0.2319  0.2849 -0.0482
56994SOL    HW176819   4.040  11.020   5.478 -1.5631  0.5894  0.8414
56994SOL    HW276820   4.177  11.081   5.491 -0.3531 -1.8478  0.0836
56995SOL     OW76821   5.555   8.575   2.611  0.4007  0.0763  0.1811
56995SOL    HW176822   5.640   8.550   2.576 -0.1370 -0.4641 -0.7911
56995SOL    HW276823   5.492   8.551   2.543 -0.7104 -1.0641  1.5247
56996SOL     OW76824   1.907   7.242  10.092  0.2068 -0.3161 -0.3399
56996SOL    HW176825   1.892   7.303  10.163  0.2100 -0.7382  0.0275
56996SOL    HW276826   2.002   7.242  10.079  0.1823 -0.0343 -0.5313
56997SOL     OW76827   0.510   8.431   5.577  0.0278  0.3078  0.0632
56997SOL    HW176828   0.579   8.408   5.516  0.2753 -0.0092  0.4632
56997SOL    HW276829   0.459   8.499   5.531 -1.4440 -1.8134 -1.6490
56998SOL     OW76830   3.345   3.450  12.317  0.0620 -0.3811 -0.0766
56998SOL    HW176831   3.356   3.368  12.365 -0.7754  0.5058  1.7301
56998SOL    HW276832   3.343   3.424  12.225  1.0396 -2.2364  0.3724
56999SOL     OW76833  12.159   0.241   4.191  0.4723  0.0321 -0.3880
56999SOL    HW176834  12.110   0.203   4.118  0.4657  1.4094 -1.1285
56999SOL    HW276835  12.238   0.277   4.151  1.3170 -0.6893  0.5561
57000SOL     OW76836   3.421   7.671   6.195  0.5473  0.6456  0.0738
57000SOL    HW176837   3.463   7.611   6.256  0.3977 -0.5663 -0.9722
57000SOL    HW276838   3.467   7.754   6.206  0.6383  0.4025  1.6721
57001SOL     OW76839   8.704  10.995  11.954  0.1206 -0.2865  0.4665
57001SOL    HW176840   8.688  10.999  11.860  0.8007  1.9952  0.4029
57001SOL    HW276841   8.623  10.959  11.990 -0.2969 -0.8210 -0.9317
57002SOL     OW76842   4.014   8.193   5.862 -0.2525 -0.2037  0.2904
57002SOL    HW176843   3.988   8.285   5.870  0.3541 -0.1074  1.3223
57002SOL    HW276844   4.054   8.187   5.775 -1.0582  0.3048 -0.1305
57003SOL     OW76845  10.915   4.836   3.844 -0.2304 -0.3150  0.2654
57003SOL    HW176846  10.893   4.798   3.759  0.2382 -1.6593  0.7270
57003SOL    HW276847  10.843   4.898   3.862 -0.8469 -0.7495 -0.6498
57004SOL     OW76848  10.276   9.769   7.998  0.1977  0.2069 -0.2294
57004SOL    HW176849  10.306   9.848   8.044  1.1538 -0.1422 -0.2324
57004SOL    HW276850  10.238   9.714   8.067 -0.3919  0.6218 -0.2133
57005SOL     OW76851   1.156   0.619   7.503 -0.0845  1.0179  0.4247
57005SOL    HW176852   1.219   0.611   7.432 -1.3115  0.5198 -0.6638
57005SOL    HW276853   1.180   0.550   7.564  1.5524  2.0367  1.0008
57006SOL     OW76854   5.369   9.912   1.600  0.2020 -0.3853  0.3141
57006SOL    HW176855   5.300   9.937   1.663  0.8043  2.6144 -0.0360
57006SOL    HW276856   5.332   9.932   1.515  1.3604  1.0529  0.1066
57007SOL     OW76857   6.761   8.210   4.261  0.5464  0.1591  0.5708
57007SOL    HW176858   6.775   8.133   4.315  1.5512  0.1783  0.3705
57007SOL    HW276859   6.669   8.208   4.237  0.6236 -1.1277  0.3494
57008SOL     OW76860   7.831   3.501   0.360  0.1753  0.0693 -0.4059
57008SOL    HW176861   7.802   3.456   0.440 -0.9341  0.4936 -0.5554
57008SOL    HW276862   7.926   3.508   0.370 -0.0978  1.8028  1.7825
57009SOL     OW76863   2.345  12.020   7.191 -0.2948  0.5833  0.1674
57009SOL    HW176864   2.336  12.071   7.272 -0.2642  1.2873 -0.2627
57009SOL    HW276865   2.400  11.945   7.216 -1.3720  0.0796  1.1000
57010SOL     OW76866   2.692  11.270   8.665 -0.6203  0.2231 -0.1143
57010SOL    HW176867   2.776  11.248   8.625 -1.3432  1.6573 -2.7050
57010SOL    HW276868   2.630  11.207   8.628 -1.2966  1.5179 -1.2772
57011SOL     OW76869  10.298   5.102   4.951 -0.0503 -0.5068  0.1983
57011SOL    HW176870  10.222   5.043   4.949 -0.8401  0.4605  0.6964
57011SOL    HW276871  10.332   5.099   4.862 -0.4515 -1.2359  0.0551
57012SOL     OW76872   3.811   2.296  11.598  0.2893 -0.2106 -0.6464
57012SOL    HW176873   3.803   2.202  11.582  1.4984 -0.3871 -0.2947
57012SOL    HW276874   3.728   2.321  11.638  0.8090 -1.6026  1.4397
57013SOL     OW76875  10.254  10.186  11.050  0.0806  0.2485  0.0141
57013SOL    HW176876  10.304  10.106  11.068 -0.7469 -0.0933  0.9239
57013SOL    HW276877  10.240  10.225  11.137 -1.8193 -0.0453 -0.1272
57014SOL     OW76878   5.028   6.919   1.502 -0.2213  0.0588 -0.2295
57014SOL    HW176879   5.107   6.968   1.525  0.7548 -1.7586  0.5295
57014SOL    HW276880   5.061   6.843   1.453 -1.5038 -0.7325  0.0944
57015SOL     OW76881   6.147   9.537   9.569  0.0814 -0.3024  0.0639
57015SOL    HW176882   6.235   9.501   9.577  0.5679  0.6926 -0.6018
57015SOL    HW276883   6.112   9.537   9.658 -0.1330 -2.8171  0.0507
57016SOL     OW76884   6.069   3.370   1.816 -0.0611 -0.0116 -0.1455
57016SOL    HW176885   6.089   3.326   1.734 -0.0040  0.1023 -0.1923
57016SOL    HW276886   6.131   3.334   1.879 -2.2177 -2.6034  0.6677
57017SOL     OW76887   3.149   1.931   6.482 -0.1266  0.1663 -0.2098
57017SOL    HW176888   3.078   1.966   6.537  0.4986  0.7731  0.2387
57017SOL    HW276889   3.189   1.863   6.536  0.8518  1.1489  0.3620
57018SOL     OW76890   1.920   5.758   3.544  0.8600 -0.4097  0.4563
57018SOL    HW176891   1.978   5.816   3.495 -0.7303  0.8515 -0.0305
57018SOL    HW276892   1.975   5.723   3.614  1.7704  2.1575  1.1375
57019SOL     OW76893   8.730   1.051   2.467 -0.0250  0.0744  0.2530
57019SOL    HW176894   8.659   1.002   2.510  0.5504 -0.1881  0.9230
57019SOL    HW276895   8.752   1.120   2.529  0.2676  0.1847  0.0284
57020SOL     OW76896   2.652   3.671   8.751  0.1925  0.1086 -1.0427
57020SOL    HW176897   2.648   3.601   8.816  0.5806 -0.5661 -1.7326
57020SOL    HW276898   2.618   3.748   8.797  0.7212 -0.2850  0.0521
57021SOL     OW76899   2.033   2.515   0.101 -0.7394 -0.0434 -0.6951
57021SOL    HW176900   1.998   2.476   0.021  1.7111 -1.2401 -1.2853
57021SOL    HW276901   1.976   2.590   0.119 -2.0880 -0.4775 -2.8333
57022SOL     OW76902  10.625   7.964   6.568 -0.5844  0.2583  0.2647
57022SOL    HW176903  10.695   8.003   6.515  0.5773 -0.8119  0.9664
57022SOL    HW276904  10.553   7.950   6.506  0.4212 -0.1385 -0.8489
57023SOL     OW76905  11.931   6.781   1.621  0.6457 -0.3095  0.0066
57023SOL    HW176906  11.979   6.702   1.642 -1.5205 -1.0011  3.1060
57023SOL    HW276907  11.852   6.750   1.576 -0.8900 -0.1747  2.4666
57024SOL     OW76908   2.516   7.802   5.765 -0.4550 -0.1860  0.2592
57024SOL    HW176909   2.603   7.803   5.806  0.0112  0.1188 -0.7080
57024SOL    HW276910   2.502   7.892   5.735  0.1304 -0.7955 -2.0687
57025SOL     OW76911  10.389   7.281   2.728  0.1979 -0.3273  0.6262
57025SOL    HW176912  10.299   7.314   2.728  0.6197  0.8967  1.0062
57025SOL    HW276913  10.439   7.347   2.777  1.4559 -0.5455 -0.2939
57026SOL     OW76914   3.949   8.208   4.235  0.0206  0.1978 -0.1691
57026SOL    HW176915   3.940   8.201   4.140  0.6636  0.3486 -0.2474
57026SOL    HW276916   3.953   8.117   4.266 -3.0118  0.0311  0.0351
57027SOL     OW76917  11.532  10.650   2.784 -0.1702 -0.2355 -0.0034
57027SOL    HW176918  11.605  10.668   2.843  0.9999 -4.0137 -0.0199
57027SOL    HW276919  11.540  10.716   2.715  0.7728  1.8767  1.9729
57028SOL     OW76920  11.516   3.801   3.209  0.0362  0.2404  0.8435
57028SOL    HW176921  11.429   3.821   3.175  0.2335  0.7511  0.6309
57028SOL    HW276922  11.510   3.819   3.303 -0.1514  0.0457  0.8709
57029SOL     OW76923  11.376   4.846   1.700 -0.1728  0.0090  0.0011
57029SOL    HW176924  11.285   4.821   1.719  0.7060 -2.1498  1.8576
57029SOL    HW276925  11.405   4.893   1.778  0.8721 -1.0788  0.2890
57030SOL     OW76926   5.566  11.044   2.292  0.6147  0.3520  0.2469
57030SOL    HW176927   5.488  11.022   2.344  0.0971  1.1349 -0.1768
57030SOL    HW276928   5.537  11.033   2.201  0.8945  0.9613  0.0790
57031SOL     OW76929   6.519   6.324   2.671 -0.1918 -0.2232 -0.4406
57031SOL    HW176930   6.581   6.287   2.734  0.2471 -2.0385 -1.8545
57031SOL    HW276931   6.439   6.337   2.722  0.2926 -1.1712  0.6237
57032SOL     OW76932   3.980   0.373   9.190  0.8402 -0.1847 -0.0963
57032SOL    HW176933   3.905   0.411   9.145  1.7854  0.5385 -1.1128
57032SOL    HW276934   4.006   0.440   9.254  1.5666  0.2462 -0.8303
57033SOL     OW76935   4.614   9.751  10.624 -0.1772 -0.3997  0.0430
57033SOL    HW176936   4.643   9.722  10.711  0.1616 -2.4065 -0.6715
57033SOL    HW276937   4.619   9.672  10.570  0.6238  0.9933 -2.0796
57034SOL     OW76938  11.798  10.537   5.144 -0.5443 -0.3826 -0.3874
57034SOL    HW176939  11.707  10.515   5.164  0.3028 -1.7382  2.6219
57034SOL    HW276940  11.824  10.474   5.077 -0.6729 -3.1347  1.9246
57035SOL     OW76941   1.937   5.425  10.762  0.1272  0.6126 -0.0252
57035SOL    HW176942   1.908   5.350  10.709 -1.2252  1.9710 -1.3129
57035SOL    HW276943   1.876   5.495  10.739 -0.2392  1.4529  3.0137
57036SOL     OW76944   0.575   9.389   9.579  0.0534 -0.2795 -0.1753
57036SOL    HW176945   0.630   9.458   9.617 -1.3312 -0.3390  2.1509
57036SOL    HW276946   0.635   9.314   9.569  0.9947  0.4649 -0.2888
57037SOL     OW76947   9.563   9.379   7.714  0.3687  0.2014  0.6362
57037SOL    HW176948   9.500   9.308   7.709 -0.5625  1.0035  0.5603
57037SOL    HW276949   9.510   9.459   7.714  1.3703  0.8996  0.8258
57038SOL     OW76950   6.496   7.236   3.776  0.4861 -0.1922  0.4982
57038SOL    HW176951   6.590   7.251   3.789  0.7949 -0.3772 -1.2817
57038SOL    HW276952   6.454   7.301   3.832  1.7545  2.4803 -1.4223
57039SOL     OW76953  11.843   0.772  10.881  0.0281 -0.1410  0.1573
57039SOL    HW176954  11.808   0.724  10.956 -0.2477  0.4335  0.4016
57039SOL    HW276955  11.935   0.748  10.878 -0.0586 -0.5154  0.4101
57040SOL     OW76956   9.311  12.319   5.379 -0.0930  0.3380 -0.3061
57040SOL    HW176957   9.357  12.329   5.462 -1.3668  4.0513  0.1692
57040SOL    HW276958   9.356  12.379   5.319 -0.9435 -0.0967 -1.4156
57041SOL     OW76959   0.574   0.728   5.202  0.2497 -0.1665 -0.2479
57041SOL    HW176960   0.630   0.702   5.128 -0.8470 -0.9287 -0.8424
57041SOL    HW276961   0.554   0.820   5.186 -0.2887 -0.4209 -1.1324
57042SOL     OW76962   9.698   8.741   4.393 -0.5774  0.2357  0.2173
57042SOL    HW176963   9.656   8.823   4.422  0.2308  0.6183  0.3225
57042SOL    HW276964   9.713   8.754   4.300  2.0168  1.3509  0.7067
57043SOL     OW76965   8.462   7.847   1.323  0.2112 -0.7224  0.4884
57043SOL    HW176966   8.542   7.824   1.276  1.9102  1.4373  2.0514
57043SOL    HW276967   8.490   7.858   1.414 -1.9701 -0.3334  1.1799
57044SOL     OW76968   1.836  10.155   6.247  0.6271  0.0242 -0.5124
57044SOL    HW176969   1.820  10.249   6.250  0.5153  0.0174 -0.8578
57044SOL    HW276970   1.916  10.142   6.298 -0.7760 -0.0248  1.8131
57045SOL     OW76971   5.156  11.366   7.010  0.3786 -0.8791 -0.0030
57045SOL    HW176972   5.155  11.286   6.957 -0.0291  0.0086 -1.3723
57045SOL    HW276973   5.229  11.417   6.976 -0.5526  0.1850 -0.4779
57046SOL     OW76974   7.812   8.692   5.470 -0.3387  0.0484 -0.5092
57046SOL    HW176975   7.908   8.694   5.464 -0.2469  2.1310  0.7898
57046SOL    HW276976   7.784   8.775   5.431 -1.4350  0.6229  1.3829
57047SOL     OW76977   9.357  10.005  11.663 -0.3326 -0.5081  0.4486
57047SOL    HW176978   9.355  10.084  11.716  1.8188 -0.6623  0.8309
57047SOL    HW276979   9.387  10.033  11.577 -2.0772 -0.5509 -0.2275
57048SOL     OW76980   9.393   2.016   3.683 -0.5381 -0.6804 -0.0874
57048SOL    HW176981   9.333   2.020   3.757 -0.7548 -4.7796  0.1661
57048SOL    HW276982   9.344   1.975   3.613  1.1957 -1.8470 -0.6966
57049SOL     OW76983   7.079  11.256   2.828 -0.1936  0.7149 -0.2169
57049SOL    HW176984   7.035  11.180   2.790  1.0265  0.8182 -1.9606
57049SOL    HW276985   7.046  11.331   2.778  0.1780  1.0704  0.0639
57050SOL     OW76986   1.114   2.303   4.815 -0.0528 -0.0758  0.4394
57050SOL    HW176987   1.056   2.347   4.877  0.4384  0.8898  0.2422
57050SOL    HW276988   1.196   2.292   4.863  1.3223  3.2675 -0.8074
57051SOL     OW76989   0.958   1.761   2.956  0.6012 -0.3172 -0.1429
57051SOL    HW176990   1.048   1.756   2.925  0.1393 -1.1674 -1.4444
57051SOL    HW276991   0.948   1.683   3.011  0.3751 -0.8197 -0.8719
57052SOL     OW76992  12.133   9.477   7.159  0.0751 -0.5333 -0.5291
57052SOL    HW176993  12.084   9.552   7.191  0.6968 -0.3502  0.0106
57052SOL    HW276994  12.066   9.412   7.138 -0.3734 -0.6535  1.1182
57053SOL     OW76995   7.297   7.621   7.275 -0.3403  0.0740 -0.3113
57053SOL    HW176996   7.358   7.549   7.262 -1.4662 -1.3692  1.6599
57053SOL    HW276997   7.352   7.697   7.291  1.0877 -1.3516  2.3244
57054SOL     OW76998   3.681  11.837  10.626  0.1269 -0.1756  0.3771
57054SOL    HW176999   3.765  11.825  10.670  0.7020  0.1810 -0.6010
57054SOL    HW277000   3.681  11.773  10.555  0.6423  1.4619 -1.1434
57055SOL     OW77001   3.426   5.400   7.934 -0.3104  0.1079  0.1393
57055SOL    HW177002   3.365   5.331   7.961 -0.9652  1.2555  1.7665
57055SOL    HW277003   3.430   5.393   7.839  0.0415 -2.4677  0.2666
57056SOL     OW77004   9.572  12.309   2.808 -0.0972  0.2307  0.4919
57056SOL    HW177005   9.615  12.229   2.780 -1.2478 -0.3691  0.3541
57056SOL    HW277006   9.513  12.282   2.878  1.4264  1.4277  2.3059
57057SOL     OW77007   7.670   2.390   6.443  0.0408 -0.2439 -0.2173
57057SOL    HW177008   7.582   2.423   6.424 -0.2202  1.2987  3.0553
57057SOL    HW277009   7.720   2.467   6.470  1.6604 -1.4552  0.4164
57058SOL     OW77010   1.064   6.244   2.635 -0.1086 -0.7457  0.4778
57058SOL    HW177011   1.145   6.290   2.656 -0.2861  0.5624 -1.5009
57058SOL    HW277012   0.995   6.296   2.677 -0.0792 -0.8396  0.6436
57059SOL     OW77013   3.353   5.801   7.805 -0.0074 -0.1623 -0.1546
57059SOL    HW177014   3.353   5.859   7.728  0.2807 -0.5932 -0.4798
57059SOL    HW277015   3.300   5.848   7.870  0.3895  0.5646 -0.3473
57060SOL     OW77016   4.216   8.572   3.662 -0.0493 -0.1536  0.0853
57060SOL    HW177017   4.213   8.537   3.751 -0.2390  1.0705  0.5896
57060SOL    HW277018   4.207   8.667   3.674 -0.2190  0.0164 -1.2515
57061SOL     OW77019   9.536   0.354  11.364 -0.3816  0.5964  0.0311
57061SOL    HW177020   9.628   0.348  11.390 -0.7747 -2.6540  1.1080
57061SOL    HW277021   9.494   0.403  11.435  0.1040 -0.2699  0.9384
57062SOL     OW77022  10.134   9.990   0.933 -0.3350 -0.2501  0.4176
57062SOL    HW177023  10.041   9.973   0.914 -0.1102 -0.7409 -0.3008
57062SOL    HW277024  10.181   9.937   0.868  0.4779 -1.6743  2.0979
57063SOL     OW77025  12.327   0.441   2.453 -0.0253  0.7344 -0.9064
57063SOL    HW177026  12.409   0.483   2.427 -0.9108  3.0611 -0.2542
57063SOL    HW277027  12.348   0.348   2.460  3.3157  1.4766  1.9904
57064SOL     OW77028   0.270   2.654   8.354  0.3640  0.0886  0.2229
57064SOL    HW177029   0.194   2.697   8.394 -0.1382  0.4575 -1.0889
57064SOL    HW277030   0.246   2.562   8.349 -0.4480  0.3446 -1.1062
57065SOL     OW77031   5.836  11.198  10.217 -0.1001 -0.1796  0.5143
57065SOL    HW177032   5.844  11.289  10.244 -1.5060 -0.0539  0.6116
57065SOL    HW277033   5.746  11.174  10.241 -0.2102 -1.1674 -0.7606
57066SOL     OW77034  10.975   4.069   7.794  0.0014  0.8969  0.3025
57066SOL    HW177035  11.020   4.086   7.877 -0.3381  0.4651  0.5754
57066SOL    HW277036  10.892   4.030   7.820  0.3937 -0.3512 -0.2932
57067SOL     OW77037   2.789   3.433  11.548  0.1792  0.0604 -0.2750
57067SOL    HW177038   2.877   3.470  11.561 -0.0402  0.2668  0.7708
57067SOL    HW277039   2.743   3.500  11.497  0.2832  0.5048  0.1939
57068SOL     OW77040   5.933   4.405   8.640  0.0553  0.5149  1.0749
57068SOL    HW177041   5.920   4.380   8.731  1.0500  3.2597  2.0761
57068SOL    HW277042   5.963   4.496   8.644 -1.8156  1.4140 -2.0965
57069SOL     OW77043   5.681   0.969  11.005  0.3112 -0.7732 -0.0941
57069SOL    HW177044   5.726   1.015  10.935  0.0716  0.5707  0.6081
57069SOL    HW277045   5.751   0.931  11.058  0.5301 -0.7302 -0.3514
57070SOL     OW77046   0.817  10.532   8.855 -0.0420  0.5511  0.8463
57070SOL    HW177047   0.891  10.489   8.898  0.3962 -0.0630 -0.4604
57070SOL    HW277048   0.802  10.611   8.906  3.6266  2.4273 -0.6598
57071SOL     OW77049  11.689   7.906   2.077  0.3637  0.3462  0.5983
57071SOL    HW177050  11.754   7.843   2.046  1.7989  1.1626  1.8186
57071SOL    HW277051  11.626   7.913   2.005  1.2472 -0.9750 -0.3520
57072SOL     OW77052   8.087   8.748   2.467 -0.1051 -0.2234 -0.1308
57072SOL    HW177053   8.113   8.751   2.558 -1.8434 -1.9938  0.4968
57072SOL    HW277054   8.057   8.658   2.453 -2.3556  0.6528 -1.6704
57073SOL     OW77055   4.941   0.697   3.173 -0.0118 -0.0831 -0.6479
57073SOL    HW177056   5.019   0.681   3.225  0.0360 -1.3697 -1.0777
57073SOL    HW277057   4.880   0.628   3.200 -0.5719  0.2083 -1.1441
57074SOL     OW77058   6.053   8.231  12.216 -0.5462  0.3328 -0.7286
57074SOL    HW177059   6.074   8.306  12.160 -1.9623  2.6361  1.6570
57074SOL    HW277060   5.958   8.224  12.212 -0.4496 -1.3806 -0.8521
57075SOL     OW77061   4.367   8.938   6.428 -0.2474 -0.0362 -0.0614
57075SOL    HW177062   4.415   8.975   6.354 -0.5152  0.1058 -0.1674
57075SOL    HW277063   4.289   8.993   6.436  0.0068  0.2478  0.6277
57076SOL     OW77064   7.357   2.938   7.089 -0.3166  0.0491 -0.0197
57076SOL    HW177065   7.287   2.903   7.035 -0.7976  0.5544  0.2627
57076SOL    HW277066   7.349   3.033   7.080  0.0417  0.1224  0.3815
57077SOL     OW77067  11.731   9.546   5.855  0.1483 -0.5667 -0.4066
57077SOL    HW177068  11.698   9.494   5.782 -0.8483  1.1965 -1.2798
57077SOL    HW277069  11.655   9.598   5.884  1.2425  0.9296 -0.0687
57078SOL     OW77070   5.619   3.001   7.747  0.0367  0.0139  0.5918
57078SOL    HW177071   5.528   2.990   7.776 -0.7820 -0.7481 -1.9528
57078SOL    HW277072   5.638   2.920   7.699  1.8218  0.4625  0.4830
57079SOL     OW77073   4.885   2.274   7.382  0.6729  0.1711 -0.3161
57079SOL    HW177074   4.819   2.223   7.335  0.4993 -1.1959  1.3058
57079SOL    HW277075   4.953   2.210   7.403  2.4234  1.4762 -1.6528
57080SOL     OW77076   5.627   8.956   1.636 -0.6652  0.1368 -0.5139
57080SOL    HW177077   5.620   9.044   1.598 -0.5760  0.0150 -0.8222
57080SOL    HW277078   5.607   8.968   1.728 -1.4637  0.3560 -0.7036
57081SOL     OW77079   9.890   5.482   1.390 -0.0105  0.3823 -0.1343
57081SOL    HW177080   9.966   5.425   1.386 -0.2880  0.0126 -0.1428
57081SOL    HW277081   9.898   5.538   1.312  0.4650  0.6228  0.0804
57082SOL     OW77082   3.286   5.482  12.229  0.1490  0.0850 -0.1405
57082SOL    HW177083   3.306   5.575  12.220  2.4543 -0.1627  1.4709
57082SOL    HW277084   3.306   5.462  12.320  0.2108 -2.1059 -0.5778
57083SOL     OW77085  11.406   1.262   4.361  0.4249  0.6684  0.3199
57083SOL    HW177086  11.484   1.232   4.315  0.3788  0.9544  0.0538
57083SOL    HW277087  11.431   1.262   4.454  0.1192 -1.1315  0.4274
57084SOL     OW77088   7.602   2.221   0.337  0.1226  0.1877  0.5167
57084SOL    HW177089   7.517   2.179   0.322  0.3048 -0.2553  0.7157
57084SOL    HW277090   7.594   2.261   0.423  1.1765 -2.5851  2.0114
57085SOL     OW77091   3.887   4.240   9.460  0.2677 -0.8980  0.0735
57085SOL    HW177092   3.851   4.326   9.480  1.2826 -0.3877 -0.2676
57085SOL    HW277093   3.843   4.214   9.379 -0.8203 -1.1833  0.7308
57086SOL     OW77094   1.214   4.828   5.184 -0.1400 -0.3852 -0.2430
57086SOL    HW177095   1.197   4.884   5.259 -0.6717 -1.0775  0.1672
57086SOL    HW277096   1.207   4.886   5.108  1.4606  0.5537  0.2774
57087SOL     OW77097   6.403   5.376   2.541 -0.2206 -0.3375  0.0780
57087SOL    HW177098   6.410   5.461   2.583  0.0173 -0.3655  0.0942
57087SOL    HW277099   6.309   5.359   2.536 -0.3099  0.3328 -0.7592
57088SOL     OW77100   4.970   6.554   4.085 -0.0134 -0.2764  0.6729
57088SOL    HW177101   4.903   6.609   4.046 -0.7123 -0.1623  1.9796
57088SOL    HW277102   5.018   6.517   4.010 -1.6384 -0.5177 -0.3004
57089SOL     OW77103   3.262   2.813   6.038  0.5544  0.3547  0.0186
57089SOL    HW177104   3.311   2.835   5.959 -0.1425  2.5483  0.1292
57089SOL    HW277105   3.207   2.738   6.013  0.5813  0.8159 -1.4765
57090SOL     OW77106   0.889   8.780   9.590  0.8452 -0.2614 -0.4130
57090SOL    HW177107   0.868   8.706   9.532  1.9196 -1.1723  0.3251
57090SOL    HW277108   0.848   8.758   9.673 -0.2499  0.7993 -0.6454
57091SOL     OW77109   3.249  10.056   6.555  0.2073  0.4309 -0.3726
57091SOL    HW177110   3.203  10.076   6.474  3.2346  1.3203 -1.9994
57091SOL    HW277111   3.252  10.139   6.602 -1.2560 -0.0125  0.5780
57092SOL     OW77112   6.765  11.306  10.874  0.8171  0.1303  0.4181
57092SOL    HW177113   6.851  11.302  10.916  1.7050 -0.7940 -1.3728
57092SOL    HW277114   6.766  11.388  10.825 -0.0895  1.0461  1.8655
57093SOL     OW77115   5.755   4.007   3.087  0.5718 -0.3185  0.0505
57093SOL    HW177116   5.832   3.951   3.078  2.1905  1.6295  0.9800
57093SOL    HW277117   5.790   4.096   3.084 -1.8203  0.6632 -0.7309
57094SOL     OW77118   5.260   7.791   5.581 -0.4290 -0.5213 -0.1370
57094SOL    HW177119   5.188   7.788   5.645  1.1376  1.2815  1.8911
57094SOL    HW277120   5.237   7.864   5.523 -0.0440  0.4068  0.8381
57095SOL     OW77121   4.772   4.306   1.982 -0.2634  0.2923 -0.1538
57095SOL    HW177122   4.678   4.313   1.998 -0.3304  0.4777 -0.6236
57095SOL    HW277123   4.813   4.349   2.057 -0.5241 -0.7533  0.6052
57096SOL     OW77124   7.970  10.211  12.044 -0.2791  0.2397 -0.1719
57096SOL    HW177125   7.997  10.170  11.962 -0.3054 -0.4325  0.1465
57096SOL    HW277126   8.041  10.192  12.105 -0.3965  0.4755  0.0415
57097SOL     OW77127  10.182  10.104   8.071  0.2744  0.1638 -0.0959
57097SOL    HW177128  10.090  10.102   8.097  0.2405  1.0204 -0.0999
57097SOL    HW277129  10.230  10.073   8.148  0.2931  4.0486  1.7178
57098SOL     OW77130   1.463   8.634   6.991  0.3333  0.1736 -0.2031
57098SOL    HW177131   1.548   8.665   7.022  0.6980  0.9038 -1.7982
57098SOL    HW277132   1.477   8.614   6.898 -0.3639 -3.0487  0.2532
57099SOL     OW77133   9.229   9.692   4.408 -0.2605 -0.5636 -0.2167
57099SOL    HW177134   9.225   9.676   4.502 -1.3016  2.1361  0.2947
57099SOL    HW277135   9.321   9.711   4.391 -0.4051  1.2892  0.7862
57100SOL     OW77136   7.505   4.170   6.532  0.1126  0.0053  0.0971
57100SOL    HW177137   7.412   4.154   6.546 -0.2257  1.6984  0.0832
57100SOL    HW277138   7.522   4.141   6.442 -0.5870  0.3860 -0.1649
57101SOL     OW77139   2.622   2.201   5.497 -0.0095  0.7359 -0.2162
57101SOL    HW177140   2.704   2.208   5.546  0.2909 -1.3854 -0.3158
57101SOL    HW277141   2.580   2.122   5.531 -2.3379  2.0733  0.2255
57102SOL     OW77142   1.673   4.785  10.539 -0.7129 -0.2959  0.1640
57102SOL    HW177143   1.724   4.704  10.537  1.4999  1.0255 -1.1128
57102SOL    HW277144   1.649   4.800  10.448  0.2373  1.2239  0.1358
57103SOL     OW77145   8.283   0.961   5.876 -0.3893  0.2606  0.0526
57103SOL    HW177146   8.335   0.939   5.953  1.6981  0.1723 -1.3188
57103SOL    HW277147   8.230   0.883   5.859  2.0120 -1.2756 -0.8354
57104SOL     OW77148   8.889   2.174   8.549  0.6923  0.4251  0.2076
57104SOL    HW177149   8.933   2.257   8.535  0.1901  0.9922  1.7498
57104SOL    HW277150   8.848   2.153   8.465  1.8315  1.1114 -0.5367
57105SOL     OW77151   5.882   0.664   4.814 -0.2697  0.0608 -0.1761
57105SOL    HW177152   5.842   0.579   4.795  0.2130 -0.4957  1.2299
57105SOL    HW277153   5.971   0.656   4.782  0.2621 -0.5526  1.3712
57106SOL     OW77154   2.795   1.985   1.750 -0.2919  0.3714  0.2283
57106SOL    HW177155   2.841   1.902   1.742 -0.0023  0.5356  0.1907
57106SOL    HW277156   2.796   2.004   1.844  0.3735  0.7452  0.1483
57107SOL     OW77157   9.578   2.868   5.217  0.1478 -0.5372  0.0646
57107SOL    HW177158   9.515   2.877   5.145 -0.2732 -1.9181  0.2308
57107SOL    HW277159   9.660   2.844   5.174  0.3437  0.3737 -0.0821
57108SOL     OW77160   8.559   2.552   1.803  1.1123  0.0310  0.7295
57108SOL    HW177161   8.563   2.647   1.793 -1.4906  0.4768  2.6789
57108SOL    HW277162   8.489   2.525   1.743  1.1131 -0.5073  0.9662
57109SOL     OW77163   1.922   0.997   6.012 -0.1651 -0.4551  0.3726
57109SOL    HW177164   1.934   0.984   5.918  0.0885  0.6322  0.2392
57109SOL    HW277165   2.009   0.981   6.050 -0.2889 -0.9841  0.4340
57110SOL     OW77166   4.122   9.176  10.010  0.1522  0.1023  0.9611
57110SOL    HW177167   4.105   9.090   9.970 -1.0894  0.1068  1.4346
57110SOL    HW277168   4.216   9.176  10.026  0.0778 -1.5161  1.6827
57111SOL     OW77169   7.932  11.244   9.619 -0.0781 -1.0632  0.6844
57111SOL    HW177170   7.937  11.298   9.698 -0.1230 -0.8448  0.5404
57111SOL    HW277171   7.998  11.175   9.632  1.3402  0.1037  0.0752
57112SOL     OW77172   4.240   0.258   5.668 -0.3283 -0.3404 -0.3862
57112SOL    HW177173   4.268   0.243   5.577 -0.4951  0.8767 -0.6644
57112SOL    HW277174   4.164   0.316   5.660  1.0343  1.7125  0.5669
57113SOL     OW77175   0.213   3.792   7.731  0.2568 -0.1196 -0.1586
57113SOL    HW177176   0.291   3.749   7.766 -1.3708 -1.9617  1.4563
57113SOL    HW277177   0.166   3.823   7.808 -0.7261  0.7617 -1.0779
57114SOL     OW77178   8.641   2.232   5.256  0.3747  0.4068  0.5722
57114SOL    HW177179   8.595   2.172   5.197  0.0321  1.2832 -0.0647
57114SOL    HW277180   8.679   2.298   5.199  2.3913 -0.2470  1.0877
57115SOL     OW77181   5.984   6.446  11.006  0.3169  0.2208  0.1177
57115SOL    HW177182   5.984   6.351  11.018  0.6196  0.4416  2.2305
57115SOL    HW277183   5.981   6.458  10.911  2.2250 -1.9224 -0.3087
57116SOL     OW77184   3.048   0.760   5.713 -0.0104 -0.3947 -0.7178
57116SOL    HW177185   3.084   0.820   5.779 -0.6946  0.1747 -0.8408
57116SOL    HW277186   3.016   0.685   5.764 -0.8123  0.1782 -0.3427
57117SOL     OW77187  11.870   4.684   6.264  0.0140  0.3659 -0.0210
57117SOL    HW177188  11.822   4.706   6.344 -0.7110 -1.4236  0.0922
57117SOL    HW277189  11.900   4.768   6.230  0.1387  1.2014  1.9990
57118SOL     OW77190   8.269  12.051   3.998  0.3807 -0.2074  0.3988
57118SOL    HW177191   8.200  12.003   4.044  1.3233 -0.2613  1.8402
57118SOL    HW277192   8.255  12.031   3.906 -1.8572  0.2525  0.5945
57119SOL     OW77193   1.517  11.485   6.367  0.2528 -0.7260 -0.4244
57119SOL    HW177194   1.437  11.493   6.419  0.7114 -0.3348  0.2268
57119SOL    HW277195   1.588  11.485   6.431  0.8141 -0.4578 -1.0383
57120SOL     OW77196   1.993  11.995   9.426 -0.7964  0.4464 -0.3721
57120SOL    HW177197   1.908  11.995   9.470 -0.3935  1.4239  0.4558
57120SOL    HW277198   1.973  12.017   9.335 -1.3639  1.5070 -0.0101
57121SOL     OW77199   4.028   9.656   5.912  0.1638  0.1545 -0.1927
57121SOL    HW177200   3.950   9.602   5.926  0.1530 -0.0726 -1.0852
57121SOL    HW277201   3.994   9.740   5.880  0.2701  0.1262 -0.3809
57122SOL     OW77202   7.425   8.689  10.653  0.1352  0.3039  0.5402
57122SOL    HW177203   7.501   8.653  10.700 -0.2782 -0.8762  0.3493
57122SOL    HW277204   7.442   8.783  10.647  2.2811 -0.1061 -0.7743
57123SOL     OW77205   5.608   1.626   9.327  0.7875  0.1161 -1.1271
57123SOL    HW177206   5.605   1.680   9.248 -2.3178  3.0621  0.6957
57123SOL    HW277207   5.679   1.663   9.379  1.1934 -0.1372 -1.5016
57124SOL     OW77208   6.478   7.763  11.454  0.1138 -0.2076 -0.7929
57124SOL    HW177209   6.543   7.763  11.384  0.4519 -0.6322 -0.4779
57124SOL    HW277210   6.528   7.750  11.534 -0.2324  0.6361 -0.4285
57125SOL     OW77211   4.096   5.799  12.028 -0.3332 -0.4240  0.2875
57125SOL    HW177212   4.169   5.766  12.080  0.6649  0.5104 -0.4903
57125SOL    HW277213   4.072   5.881  12.070  0.5322  0.3785 -0.7412
57126SOL     OW77214   4.025  11.450   4.351  0.0532 -0.0900 -0.9569
57126SOL    HW177215   4.027  11.515   4.421 -0.1718 -0.2262 -0.8223
57126SOL    HW277216   4.046  11.499   4.272 -1.8413  0.4980 -1.1263
57127SOL     OW77217   5.799   3.403   7.818  0.2785 -0.2223  1.1411
57127SOL    HW177218   5.876   3.448   7.852  0.5347  0.5992 -0.3975
57127SOL    HW277219   5.727   3.465   7.833 -0.1330 -1.0376  2.6828
57128SOL     OW77220   6.729  11.841   6.094 -0.1980  0.1843  0.4991
57128SOL    HW177221   6.752  11.906   6.161 -0.8637  0.2599  0.6620
57128SOL    HW277222   6.634  11.834   6.100 -0.3575  0.7725 -0.9919
57129SOL     OW77223   4.879   8.486   9.696 -0.5443 -0.7207  0.0199
57129SOL    HW177224   4.912   8.396   9.686 -0.3184 -0.6425  0.0436
57129SOL    HW277225   4.785   8.476   9.712 -0.2412 -1.0687  1.8844
57130SOL     OW77226   1.132   2.051   5.000 -0.4676  0.6013 -0.0883
57130SOL    HW177227   1.160   2.037   4.909  0.1051  1.6440 -0.0901
57130SOL    HW277228   1.175   2.132   5.026 -1.2455  0.7263  0.8702
57131SOL     OW77229   8.650   6.637  10.747 -0.4585  0.2821 -0.6443
57131SOL    HW177230   8.556   6.618  10.751  0.0265 -2.1381  0.6705
57131SOL    HW277231   8.689   6.557  10.713  1.2124  1.0167 -0.5328
57132SOL     OW77232   8.309  11.153  10.691  0.1990 -0.3801  0.5868
57132SOL    HW177233   8.286  11.093  10.619 -2.5700 -0.0161  1.0341
57132SOL    HW277234   8.241  11.220  10.689  1.0676  0.6392  2.4650
57133SOL     OW77235  11.536   8.230   5.670  0.2100  0.4233 -0.3475
57133SOL    HW177236  11.618   8.278   5.686 -0.6662  1.7245  0.4335
57133SOL    HW277237  11.563   8.139   5.659  1.6331  0.5797  1.3496
57134SOL     OW77238   8.486   2.248   7.979  0.2134 -0.4786  0.3179
57134SOL    HW177239   8.491   2.229   7.885 -0.2100  0.2797  0.1313
57134SOL    HW277240   8.393   2.263   7.996  0.3851  0.2314  0.6816
57135SOL     OW77241   5.699   9.625   0.149  0.1346  0.3267 -0.5357
57135SOL    HW177242   5.741   9.696   0.101  0.8112  1.0636  1.0726
57135SOL    HW277243   5.689   9.555   0.085  1.1565  1.2037 -1.6904
57136SOL     OW77244   2.085   6.565   1.117  0.4098 -0.7064 -0.2012
57136SOL    HW177245   2.115   6.637   1.061  1.2505  0.0925  1.2431
57136SOL    HW277246   2.142   6.568   1.193 -0.9230 -1.5568  0.8763
57137SOL     OW77247  11.159   4.192   5.040 -0.0120 -0.0060 -0.3242
57137SOL    HW177248  11.191   4.204   5.130  0.1690  0.0184 -0.3916
57137SOL    HW277249  11.136   4.281   5.012  0.4834  0.0680 -0.5070
57138SOL     OW77250   4.904   4.915   1.095 -0.1507 -0.4827  0.5926
57138SOL    HW177251   4.982   4.920   1.149 -0.6390 -0.1165  1.2704
57138SOL    HW277252   4.840   4.971   1.139 -0.3537  0.3479 -0.6997
57139SOL     OW77253   4.180   8.961   3.419 -0.1012 -0.4630  0.1969
57139SOL    HW177254   4.094   8.982   3.457 -0.6944 -0.4610 -1.0926
57139SOL    HW277255   4.202   9.039   3.367  0.5786 -0.5585  0.3446
57140SOL     OW77256   3.116   4.446   9.985  0.1529  0.4518  0.1139
57140SOL    HW177257   3.061   4.443  10.064 -1.4562 -0.0311 -0.9598
57140SOL    HW277258   3.069   4.505   9.926 -0.1392 -1.2985 -1.4818
57141SOL     OW77259   6.630   1.990   2.668 -0.0638 -0.0186  0.2216
57141SOL    HW177260   6.602   1.902   2.692  1.3741 -0.4443  0.4506
57141SOL    HW277261   6.685   1.977   2.591  4.0827 -0.0231  2.8704
57142SOL     OW77262   7.589   4.818   1.500  0.2970  0.0702  0.0172
57142SOL    HW177263   7.644   4.766   1.441  1.2450  0.7687  0.2528
57142SOL    HW277264   7.500   4.805   1.468  0.6751 -0.4758 -0.8552
57143SOL     OW77265   6.040  10.345   1.772  0.1301  0.0551 -0.0351
57143SOL    HW177266   5.989  10.413   1.728  0.2405 -0.6372 -1.2940
57143SOL    HW277267   6.112  10.392   1.814  2.0372  0.5306 -3.4843
57144SOL     OW77268   8.401   5.191   0.737  0.4330  0.2573 -0.1457
57144SOL    HW177269   8.484   5.146   0.718 -0.2908 -0.9891 -0.4590
57144SOL    HW277270   8.427   5.282   0.751  1.6836  0.2246 -1.7940
57145SOL     OW77271   2.694   4.708   6.655  0.1138 -0.3071 -0.1581
57145SOL    HW177272   2.676   4.802   6.645 -0.0282 -0.1028  1.7822
57145SOL    HW277273   2.664   4.670   6.573 -0.3677  1.2626 -0.7556
57146SOL     OW77274  11.747   9.271   2.522  0.1209 -0.3170  0.3701
57146SOL    HW177275  11.669   9.233   2.483  0.9443  0.2798 -1.9929
57146SOL    HW277276  11.714   9.326   2.593 -1.6841  0.3421 -0.9025
57147SOL     OW77277  11.910   7.621   2.575 -0.5360 -0.2719  0.2573
57147SOL    HW177278  11.919   7.678   2.651 -2.2149  0.2281  0.1181
57147SOL    HW277279  11.897   7.533   2.612  2.2518 -0.6719  0.4698
57148SOL     OW77280   6.762   1.414   5.034 -0.2716  0.1406  0.1485
57148SOL    HW177281   6.795   1.326   5.014  0.2261  0.7602 -1.9770
57148SOL    HW277282   6.839   1.471   5.025 -0.6951  0.8709  1.0296
57149SOL     OW77283   2.652   8.582   6.877  0.1672  0.1065  0.0316
57149SOL    HW177284   2.675   8.601   6.786  2.0338 -0.2219  0.4010
57149SOL    HW277285   2.557   8.576   6.876  0.0263  1.6362 -1.5984
57150SOL     OW77286   3.561  12.144  11.360 -0.6729 -0.0035 -0.0303
57150SOL    HW177287   3.584  12.163  11.450  0.0941 -2.4429  0.3751
57150SOL    HW277288   3.467  12.162  11.354 -0.4027  1.8567  0.7068
57151SOL     OW77289   6.515  10.088   1.810 -0.0889 -0.2552 -0.7080
57151SOL    HW177290   6.606  10.091   1.780 -0.4453 -0.9690 -1.9462
57151SOL    HW277291   6.465  10.065   1.731 -1.6564  2.6419 -0.6957
57152SOL     OW77292  11.410  11.020   5.451 -0.1270 -0.5351 -0.3350
57152SOL    HW177293  11.444  10.961   5.384  0.2021 -0.4666 -0.2292
57152SOL    HW277294  11.406  10.967   5.531  0.8752 -0.2171 -0.0626
57153SOL     OW77295   2.173   8.368   8.140  0.4310  0.0894 -0.1254
57153SOL    HW177296   2.267   8.381   8.158  0.5160 -1.0153  0.2886
57153SOL    HW277297   2.138   8.331   8.221  0.0491 -1.4072 -0.9394
57154SOL     OW77298   2.894   7.115   9.180  0.1210  0.0475 -0.3630
57154SOL    HW177299   2.937   7.167   9.248  1.3105 -0.7690 -0.4573
57154SOL    HW277300   2.868   7.034   9.224  0.5153 -0.3102 -0.7755
57155SOL     OW77301   1.857  10.484   1.698  0.3679  0.4938 -0.3755
57155SOL    HW177302   1.828  10.421   1.631 -2.4561  0.1696  1.0161
57155SOL    HW277303   1.781  10.540   1.712  1.0340  0.8536  2.1957
57156SOL     OW77304   6.784   0.439   7.341 -0.0644 -1.0415  0.7368
57156SOL    HW177305   6.762   0.347   7.331  0.0919 -1.3798  2.9840
57156SOL    HW277306   6.880   0.442   7.337 -0.1089 -0.5055 -2.2273
57157SOL     OW77307   1.903   7.812   9.386 -0.1532  0.3737  0.2908
57157SOL    HW177308   1.997   7.794   9.381 -0.2099  0.2938 -0.7716
57157SOL    HW277309   1.862   7.727   9.372 -0.3860  0.5062  0.1666
57158SOL     OW77310   0.800  10.421   6.386 -0.5459  0.8554 -0.2430
57158SOL    HW177311   0.712  10.453   6.369 -0.5730  0.3837 -1.0229
57158SOL    HW277312   0.789  10.329   6.409 -0.3615  1.0978  0.8460
57159SOL     OW77313   5.485   6.814   6.076 -0.6518  0.1805  0.4824
57159SOL    HW177314   5.393   6.788   6.069 -0.4363 -0.7239  0.9475
57159SOL    HW277315   5.491   6.858   6.161 -0.8208  0.9895  0.0883
57160SOL     OW77316   8.253   0.450  10.589 -0.2096  0.0432  0.3445
57160SOL    HW177317   8.220   0.448  10.499  1.1976 -0.8812 -0.1902
57160SOL    HW277318   8.242   0.360  10.621  0.4476  0.0646  0.6516
57161SOL     OW77319   2.049   2.698  10.569 -0.0551 -0.0790  0.2693
57161SOL    HW177320   2.055   2.679  10.475  0.5444  1.2466  0.0131
57161SOL    HW277321   1.959   2.731  10.580 -0.0788 -0.0936  0.1296
57162SOL     OW77322  10.664   0.140  11.595  0.5713 -0.0340  0.0715
57162SOL    HW177323  10.682   0.151  11.501 -1.5674  1.1177 -0.2560
57162SOL    HW277324  10.572   0.115  11.599  0.5952  0.0679  1.8737
57163SOL     OW77325   2.489   9.291   1.421  0.3862  0.7134  0.3838
57163SOL    HW177326   2.521   9.234   1.351 -3.8567 -0.6451 -0.7674
57163SOL    HW277327   2.478   9.376   1.379 -0.2524  0.4084 -0.0949
57164SOL     OW77328   2.098   2.090   9.997 -0.6512  0.3370  0.4194
57164SOL    HW177329   2.187   2.086  10.032 -1.0422  2.4030  1.8712
57164SOL    HW277330   2.055   2.159  10.048 -3.5821 -1.5880  0.8211
57165SOL     OW77331   5.048   3.658   6.625 -0.2252  0.1254 -0.1967
57165SOL    HW177332   5.088   3.719   6.687  1.1037 -1.3639  0.4787
57165SOL    HW277333   5.049   3.704   6.541 -0.5906  1.5605  0.5490
57166SOL     OW77334   7.962   5.030   2.246 -0.2447 -0.2277 -0.3010
57166SOL    HW177335   7.874   5.008   2.278  0.1165  0.8651  1.6476
57166SOL    HW277336   8.022   4.985   2.305  0.4695  1.1873  0.1226
57167SOL     OW77337  10.833   2.304   3.541 -0.4756  0.1173  0.4201
57167SOL    HW177338  10.900   2.336   3.480  0.2680 -0.9527  0.6476
57167SOL    HW277339  10.751   2.338   3.506 -0.1650 -1.0312 -1.6248
57168SOL     OW77340  12.215   7.429   8.860 -0.1848 -0.1268 -0.1184
57168SOL    HW177341  12.275   7.360   8.831 -1.1987 -1.6952  1.3652
57168SOL    HW277342  12.134   7.412   8.812 -1.1004 -1.2910  1.7321
57169SOL     OW77343  10.399   0.751   3.131  0.4207  0.0966 -0.1431
57169SOL    HW177344  10.342   0.822   3.102  0.7946  0.2809 -0.4527
57169SOL    HW277345  10.456   0.735   3.055  0.6327 -0.2259  0.0848
57170SOL     OW77346   1.770   2.151   7.972 -0.0512  0.5423  0.0984
57170SOL    HW177347   1.716   2.072   7.969 -0.1174  0.5580  0.7266
57170SOL    HW277348   1.716   2.219   7.930 -0.3377  0.4528  0.3190
57171SOL     OW77349   1.887   8.956   4.145  0.8369 -0.2628 -0.0417
57171SOL    HW177350   1.978   8.963   4.118  0.7986 -0.3798 -0.2039
57171SOL    HW277351   1.871   9.033   4.199  0.9240 -0.0502 -0.3218
57172SOL     OW77352   7.673   4.310   1.689  0.5654  0.0643 -0.1036
57172SOL    HW177353   7.714   4.376   1.632  0.8456 -0.4894 -0.5575
57172SOL    HW277354   7.595   4.354   1.723  0.0590  0.2232 -1.3890
57173SOL     OW77355   6.018   7.176  10.607  0.2722  0.2349 -0.0265
57173SOL    HW177356   6.085   7.203  10.545  0.1898 -1.5671 -0.9599
57173SOL    HW277357   6.056   7.101  10.653 -0.8434 -0.4497 -0.1691
57174SOL     OW77358   6.055   2.587   9.259 -0.2615 -0.1619 -0.5648
57174SOL    HW177359   6.092   2.548   9.338 -0.4830  1.4312  0.3524
57174SOL    HW277360   5.967   2.616   9.285  0.7006  2.9843 -0.5138
57175SOL     OW77361   9.373   1.653   6.758  0.2225  0.6585 -0.4277
57175SOL    HW177362   9.447   1.698   6.799  0.5208  0.4788 -0.7667
57175SOL    HW277363   9.387   1.560   6.777  0.2621  0.5920 -0.7724
57176SOL     OW77364   4.756   1.926   0.424  0.3602 -0.1037 -0.0899
57176SOL    HW177365   4.808   1.847   0.414 -1.8825 -1.5932 -0.6009
57176SOL    HW277366   4.675   1.897   0.467 -1.2955  1.5362 -1.8897
57177SOL     OW77367   9.116   0.261   4.434 -0.0641  0.1614  0.2889
57177SOL    HW177368   9.083   0.351   4.432  0.4791  0.3747  0.6977
57177SOL    HW277369   9.211   0.271   4.443 -0.1903 -0.4520  3.2524
57178SOL     OW77370   0.489  11.882   2.044  0.4044 -0.0752 -0.4531
57178SOL    HW177371   0.561  11.898   1.983 -0.6522 -1.4541 -2.1643
57178SOL    HW277372   0.467  11.790   2.031 -2.0184  0.4350 -0.4166
57179SOL     OW77373  10.924   9.919   4.478 -0.3287  0.4369  0.5999
57179SOL    HW177374  10.914   9.895   4.386  0.1922  1.2983  0.3029
57179SOL    HW277375  10.998   9.867   4.509 -1.7536 -1.3729  1.1159
57180SOL     OW77376   0.147  10.592   8.978  0.0750  0.0030 -0.7420
57180SOL    HW177377   0.149  10.545   8.894  0.0381  1.4510 -1.5875
57180SOL    HW277378   0.080  10.659   8.966  0.6864  0.7890  0.1292
57181SOL     OW77379  11.358  11.679   6.482  0.5418 -0.5084  0.1442
57181SOL    HW177380  11.287  11.740   6.502  0.6685 -0.2141 -0.2845
57181SOL    HW277381  11.323  11.593   6.505 -0.4021 -0.5037 -1.1782
57182SOL     OW77382   7.307   4.091   0.454 -0.0054  0.1253 -0.1663
57182SOL    HW177383   7.289   4.108   0.362  0.6185 -0.4828 -0.4070
57182SOL    HW277384   7.367   4.160   0.480  1.2768 -0.7479 -0.7188
57183SOL     OW77385   3.164  10.656   3.336  1.0924 -0.2134  0.1048
57183SOL    HW177386   3.076  10.645   3.373  0.0146 -1.3424 -2.4930
57183SOL    HW277387   3.172  10.750   3.321 -0.6551 -0.2818 -1.6544
57184SOL     OW77388   7.176   1.188   9.737 -0.4869 -0.0029 -0.7289
57184SOL    HW177389   7.215   1.106   9.765  1.0933  1.4783  1.7235
57184SOL    HW277390   7.085   1.165   9.716 -0.4430 -2.1569  1.0916
57185SOL     OW77391   2.500   8.780   3.879 -0.6161 -0.1703  0.5629
57185SOL    HW177392   2.574   8.779   3.940  1.2876 -0.6491 -1.6456
57185SOL    HW277393   2.493   8.871   3.850 -0.1786 -0.3373 -0.0637
57186SOL     OW77394  11.523   2.543   1.724 -0.1686  0.5718 -0.4300
57186SOL    HW177395  11.530   2.468   1.664  0.0978  1.2101 -1.2246
57186SOL    HW277396  11.459   2.515   1.790  1.8583 -1.3628  0.8558
57187SOL     OW77397   0.044   9.130  10.145 -0.0312  0.0882  0.4406
57187SOL    HW177398   0.101   9.143  10.221  0.3114 -1.0895  0.4048
57187SOL    HW277399   0.080   9.188  10.078  0.9487 -0.3933  0.5270
57188SOL     OW77400   5.142  10.749   4.715 -0.1160 -0.1958  0.4901
57188SOL    HW177401   5.083  10.822   4.695  0.8892  1.1632  2.2387
57188SOL    HW277402   5.185  10.730   4.631 -1.9222 -0.2505 -0.4811
57189SOL     OW77403   8.829  11.627  10.469  0.7537 -0.8554 -0.5799
57189SOL    HW177404   8.821  11.677  10.550 -0.3256 -3.0049  0.7358
57189SOL    HW277405   8.893  11.676  10.417  0.7012  1.1551  1.1098
57190SOL     OW77406   6.039   2.520   4.564  0.0535 -0.2062 -0.6487
57190SOL    HW177407   6.124   2.564   4.564 -0.3524  0.8633  2.8404
57190SOL    HW277408   5.981   2.579   4.611 -1.5301 -2.7319  0.8044
57191SOL     OW77409   4.238  11.630   5.238  0.0970 -0.0761 -0.6152
57191SOL    HW177410   4.180  11.705   5.229  1.3486  0.8624 -1.2279
57191SOL    HW277411   4.318  11.666   5.276 -0.1737 -1.5805  1.5799
57192SOL     OW77412  11.687   4.384   1.900  0.1630  0.2598 -0.2087
57192SOL    HW177413  11.603   4.425   1.883 -0.6473 -1.2140  0.0716
57192SOL    HW277414  11.737   4.450   1.948 -1.5018  0.5209  1.2608
57193SOL     OW77415   4.659   6.926   8.168  0.0593  0.1006  0.2262
57193SOL    HW177416   4.718   6.927   8.092  0.4511  0.2751  0.5311
57193SOL    HW277417   4.571   6.928   8.130  0.2495 -0.1229 -0.2328
57194SOL     OW77418   5.300  10.279   8.038  0.1063 -0.5158  0.3795
57194SOL    HW177419   5.395  10.282   8.046  0.1680  1.1370 -0.5780
57194SOL    HW277420   5.268  10.290   8.128  0.7819 -1.7073  0.7972
57195SOL     OW77421   1.538   5.526   2.977  0.1583 -0.3022 -0.0998
57195SOL    HW177422   1.541   5.522   3.073  0.3344  0.4561 -0.0662
57195SOL    HW277423   1.452   5.491   2.954  0.0476 -0.3327  0.3507
57196SOL     OW77424   4.722   6.288   5.838  0.0896 -0.7574  0.2292
57196SOL    HW177425   4.738   6.263   5.747  1.5110 -0.5279  0.3937
57196SOL    HW277426   4.646   6.237   5.864 -0.0647 -1.1534 -0.9529
57197SOL     OW77427   7.826  11.014   4.449 -0.7604  0.3223 -0.2328
57197SOL    HW177428   7.864  11.093   4.411 -1.9433  1.8628  1.5751
57197SOL    HW277429   7.896  10.949   4.445  1.0046  2.1074  0.1334
57198SOL     OW77430   1.070   2.172  10.263  0.0895  0.8461 -0.0306
57198SOL    HW177431   1.084   2.159  10.357  0.4475  2.1551  0.1069
57198SOL    HW277432   1.158   2.188  10.227  0.2861 -1.8183 -0.9890
57199SOL     OW77433   7.264   8.141   4.977 -0.0784  0.1672  0.1923
57199SOL    HW177434   7.300   8.103   5.058  3.0898  0.5308 -0.9112
57199SOL    HW277435   7.273   8.071   4.912 -1.5671  0.2442 -0.1201
57200SOL     OW77436  11.437   9.839  11.014  0.2454 -0.1912 -0.4513
57200SOL    HW177437  11.442   9.929  10.980 -0.6808  0.0449 -0.0107
57200SOL    HW277438  11.526   9.819  11.042  0.0248  1.5317  1.7433
57201SOL     OW77439   6.749   5.578   7.945  0.3158 -0.0092 -0.4557
57201SOL    HW177440   6.690   5.621   7.883 -0.5255 -0.0123  0.3272
57201SOL    HW277441   6.818   5.541   7.890 -0.1413  0.4283 -1.3443
57202SOL     OW77442   7.179  10.113   9.987 -0.2493  0.4346  0.3925
57202SOL    HW177443   7.170  10.042  10.051  1.5016  0.9655  1.3092
57202SOL    HW277444   7.272  10.137   9.991 -0.6201  2.2109 -0.5162
57203SOL     OW77445   5.064   3.360   9.837 -0.1031 -0.1119  0.7141
57203SOL    HW177446   5.046   3.354   9.931 -0.3599  0.7432  0.7274
57203SOL    HW277447   5.045   3.452   9.815  0.2458 -0.2340 -0.1111
57204SOL     OW77448   7.780  10.359   9.632 -0.8285  0.0880 -0.0956
57204SOL    HW177449   7.716  10.324   9.694 -0.2622  0.0049  0.4531
57204SOL    HW277450   7.843  10.288   9.621 -0.6899  0.2615 -0.4302
57205SOL     OW77451  12.126   9.655   6.378 -0.3142  0.3106  0.3940
57205SOL    HW177452  12.090   9.607   6.452 -0.3647 -0.3796 -0.0694
57205SOL    HW277453  12.211   9.686   6.409 -0.0023 -0.6170  0.5026
57206SOL     OW77454   0.683   2.544  11.447 -0.6181 -0.2451 -0.1323
57206SOL    HW177455   0.692   2.465  11.394 -0.8024 -1.8162  2.0426
57206SOL    HW277456   0.619   2.598  11.401  0.0387 -1.0294 -2.0214
57207SOL     OW77457   1.452  11.736   0.531  0.1174  0.2462 -0.2241
57207SOL    HW177458   1.425  11.789   0.456  1.7749  0.7425 -0.4983
57207SOL    HW277459   1.422  11.787   0.607  0.6619  1.0121 -0.5069
57208SOL     OW77460   8.382  11.465   7.601 -0.0275  0.4793  0.4291
57208SOL    HW177461   8.344  11.482   7.514 -1.0393  1.1258  0.9753
57208SOL    HW277462   8.348  11.535   7.656  0.1259 -0.2559  1.4937
57209SOL     OW77463  10.188   1.466   6.139  0.0535 -0.1415 -0.0981
57209SOL    HW177464  10.145   1.452   6.223  0.0986  1.9265  0.3083
57209SOL    HW277465  10.275   1.498   6.162 -0.7243  2.7617 -0.8659
57210SOL     OW77466   0.153   9.498   7.998 -0.1738 -0.5270  0.4662
57210SOL    HW177467   0.142   9.593   8.004 -1.4118 -0.5310 -1.1790
57210SOL    HW277468   0.069   9.462   8.027 -0.7530 -0.9816 -1.6082
57211SOL     OW77469  10.663  10.829   4.675  0.5648  0.1875 -0.6314
57211SOL    HW177470  10.736  10.843   4.735  0.5231  1.1309 -0.7894
57211SOL    HW277471  10.698  10.772   4.607 -0.0603 -3.0887  1.5471
57212SOL     OW77472   8.247   6.417   3.398 -0.3556 -0.3100  0.3118
57212SOL    HW177473   8.295   6.360   3.458 -1.4256 -1.9473 -0.3321
57212SOL    HW277474   8.310   6.440   3.330 -0.3292 -2.1748 -0.3496
57213SOL     OW77475   8.904   4.870   3.862 -0.3214 -0.0323  0.6069
57213SOL    HW177476   8.941   4.790   3.899  0.9570 -0.0642 -0.6978
57213SOL    HW277477   8.980   4.925   3.841 -0.9638  0.0430 -1.8104
57214SOL     OW77478   8.476   1.029   6.956 -0.4430  0.1433  0.0101
57214SOL    HW177479   8.534   1.000   7.026  0.9847  1.5244 -0.5474
57214SOL    HW277480   8.514   1.111   6.924 -2.2012  0.6421 -1.0036
57215SOL     OW77481  11.086   3.469   6.479 -0.0961  0.1450 -0.6150
57215SOL    HW177482  11.125   3.550   6.447 -0.7120  0.5174 -0.4236
57215SOL    HW277483  11.134   3.449   6.559  0.6748 -0.1784 -1.1355
57216SOL     OW77484   4.231   2.448   2.275 -0.1036  0.3061 -0.0484
57216SOL    HW177485   4.178   2.500   2.215 -0.7816 -0.3175 -0.0053
57216SOL    HW277486   4.187   2.459   2.360 -0.1187 -0.1542  0.0017
57217SOL     OW77487   2.203   5.559   2.897  0.4618  0.2195 -0.7403
57217SOL    HW177488   2.142   5.561   2.824  0.7330  0.2993 -0.9659
57217SOL    HW277489   2.253   5.640   2.890 -0.2093  0.7366  0.1429
57218SOL     OW77490   6.736   4.898   3.796  0.1772 -0.2660 -0.4020
57218SOL    HW177491   6.793   4.904   3.719 -1.3487 -1.5750 -1.7117
57218SOL    HW277492   6.780   4.950   3.863  2.3630 -0.3866 -1.6596
57219SOL     OW77493   8.456  11.094  10.332  0.3859  0.2601  0.0227
57219SOL    HW177494   8.441  11.007  10.295  2.5420  0.5715 -1.8281
57219SOL    HW277495   8.504  11.079  10.413 -1.4379 -0.3043  1.0602
57220SOL     OW77496   1.884   7.622   5.219 -0.6707  0.3941  0.0933
57220SOL    HW177497   1.925   7.592   5.138  0.6981  0.7933  0.6102
57220SOL    HW277498   1.790   7.624   5.199 -0.4337 -0.2985 -1.2118
57221SOL     OW77499  11.482   4.775   1.191  0.6785 -0.2098 -0.3212
57221SOL    HW177500  11.427   4.810   1.261  1.1047 -0.2384  0.0321
57221SOL    HW277501  11.449   4.815   1.111 -0.2306 -0.6748 -0.1865
57222SOL     OW77502   6.401   2.570  11.550  0.5895  0.0279 -0.1450
57222SOL    HW177503   6.478   2.625  11.562  0.1812  0.6434 -0.2939
57222SOL    HW277504   6.391   2.563  11.455 -0.1340  0.8056 -0.1304
57223SOL     OW77505   6.564   2.563   7.973 -0.1027 -0.3910 -0.0037
57223SOL    HW177506   6.505   2.603   7.910 -0.5579 -0.7882  0.1555
57223SOL    HW277507   6.551   2.469   7.960 -0.3849 -0.4778  0.8334
57224SOL     OW77508   3.016  12.101  11.023  0.7916  0.1877  0.1153
57224SOL    HW177509   3.094  12.072  11.070  1.5868  1.8329 -0.1099
57224SOL    HW277510   3.039  12.188  10.990 -0.7732  0.2694 -0.8571
57225SOL     OW77511   0.919   1.356   3.466 -0.1619  0.1199 -0.2571
57225SOL    HW177512   0.922   1.319   3.554 -0.4673  0.8610  0.0706
57225SOL    HW277513   1.003   1.331   3.427 -0.5002 -1.2336 -0.1842
57226SOL     OW77514   3.343   7.298  10.713  0.0990 -0.7500 -0.0013
57226SOL    HW177515   3.393   7.377  10.698  0.1124 -0.7208  0.1862
57226SOL    HW277516   3.297   7.314  10.796  0.1597 -0.9655  0.0762
57227SOL     OW77517   7.858   8.267   2.263 -0.9517 -0.0698  0.3412
57227SOL    HW177518   7.787   8.204   2.254 -2.0038  1.1398 -0.1437
57227SOL    HW277519   7.829   8.343   2.213 -0.3207  1.3058  1.9594
57228SOL     OW77520  11.700   4.329   0.340 -0.4181  0.1284 -0.5477
57228SOL    HW177521  11.642   4.327   0.264 -0.5381  0.4850 -0.4673
57228SOL    HW277522  11.642   4.347   0.414 -0.2630  0.0688 -0.4118
57229SOL     OW77523   7.193   9.691   4.096 -0.2004 -0.2555  0.0094
57229SOL    HW177524   7.264   9.741   4.137 -0.8714 -0.7667  1.9237
57229SOL    HW277525   7.201   9.710   4.003  0.7902  1.8129  0.4487
57230SOL     OW77526   7.894   0.062   3.836 -0.2009 -0.3849 -0.4756
57230SOL    HW177527   7.938   0.078   3.752 -1.5015  1.5368 -0.8760
57230SOL    HW277528   7.801   0.052   3.812 -0.5696  0.0394  0.7000
57231SOL     OW77529   1.305  10.491   3.824  0.1769 -0.1354  0.1526
57231SOL    HW177530   1.302  10.513   3.917  2.6318  0.4882  0.1677
57231SOL    HW277531   1.270  10.569   3.780 -0.9560 -0.4182  0.5447
57232SOL     OW77532   6.928   0.499   0.991  0.3040 -0.1278 -0.2391
57232SOL    HW177533   6.903   0.474   0.902 -5.1509  1.2469  0.5479
57232SOL    HW277534   6.916   0.594   0.994  1.5964  0.0384  1.6957
57233SOL     OW77535   9.114  11.137   3.088  0.1093  0.3263 -0.6146
57233SOL    HW177536   9.129  11.078   3.162 -1.3975 -0.4069 -0.8494
57233SOL    HW277537   9.053  11.089   3.032 -0.0153  1.5276 -1.5429
57234SOL     OW77538   2.553   1.079  11.275  0.0979 -0.1906 -0.1262
57234SOL    HW177539   2.603   0.999  11.259  1.1501  0.1420  1.2933
57234SOL    HW277540   2.484   1.053  11.335  0.3300 -0.0888  0.1913
57235SOL     OW77541   3.745   4.576   8.916 -0.2854  0.5276  0.4629
57235SOL    HW177542   3.777   4.567   9.006 -1.1035  1.9783  0.9285
57235SOL    HW277543   3.770   4.665   8.891  0.7061 -0.1463 -1.0924
57236SOL     OW77544   5.633   8.637   2.882 -0.0806 -0.2890 -0.6241
57236SOL    HW177545   5.550   8.676   2.909  0.8296  1.2615  0.0629
57236SOL    HW277546   5.620   8.615   2.789 -0.8106  1.1893 -0.9044
57237SOL     OW77547   1.912   7.175   6.629  0.1519  0.1389  0.0678
57237SOL    HW177548   1.993   7.126   6.645 -0.6618 -1.5739 -0.8478
57237SOL    HW277549   1.861   7.163   6.709  0.4973  0.6423  0.3720
57238SOL     OW77550   6.884  10.260   7.078 -0.2400 -0.1360  0.0252
57238SOL    HW177551   6.816  10.310   7.123 -0.5448 -1.3489  0.9690
57238SOL    HW277552   6.841  10.178   7.053  0.2984 -0.0363 -1.3124
57239SOL     OW77553   1.834   4.978   2.339  0.0329  0.1902 -0.0484
57239SOL    HW177554   1.794   5.048   2.288  0.0991  0.0896 -0.2366
57239SOL    HW277555   1.901   5.022   2.391  0.0634  0.2674 -0.1544
57240SOL     OW77556   1.837   6.757  10.591 -0.2660  0.8151  0.1286
57240SOL    HW177557   1.819   6.847  10.620 -2.6999  0.4317 -0.0059
57240SOL    HW277558   1.930   6.744  10.609 -0.2233  2.8225  1.6264
57241SOL     OW77559   0.962   9.202   3.102  0.0614  0.6070  0.1605
57241SOL    HW177560   1.012   9.280   3.124 -0.0715  0.8778 -0.4740
57241SOL    HW277561   0.992   9.179   3.014 -0.6194  0.5297 -0.0540
57242SOL     OW77562   1.161   2.213   7.971  0.0288  0.4445  0.1000
57242SOL    HW177563   1.240   2.255   8.005  1.2142 -0.3422 -1.5646
57242SOL    HW277564   1.168   2.222   7.876 -2.2333  0.9357 -0.0675
57243SOL     OW77565   1.688   9.711   8.074  0.4478 -0.4758 -0.7433
57243SOL    HW177566   1.666   9.651   8.145 -0.8400  0.3027 -0.4439
57243SOL    HW277567   1.766   9.673   8.034  1.6312 -0.5767  1.4908
57244SOL     OW77568   8.127   5.774   1.087  0.3276 -0.2429 -0.4017
57244SOL    HW177569   8.052   5.755   1.030 -1.1287 -2.9411  2.1353
57244SOL    HW277570   8.118   5.867   1.108 -0.8840  0.0655 -2.0732
57245SOL     OW77571   3.803  11.270   3.103  0.0275  0.4315 -0.2438
57245SOL    HW177572   3.848  11.205   3.158 -1.2335 -0.4716 -0.2532
57245SOL    HW277573   3.824  11.353   3.144  1.1286 -0.0204  0.1654
57246SOL     OW77574   8.840   8.746   4.235 -0.8259 -0.3467  0.2861
57246SOL    HW177575   8.804   8.832   4.214  0.6754  0.1410 -0.4534
57246SOL    HW277576   8.777   8.684   4.197 -0.1161  0.4833 -2.5235
57247SOL     OW77577   4.159   4.596   8.862 -0.1232 -0.2292  0.1394
57247SOL    HW177578   4.253   4.611   8.852 -0.4640  0.4947 -2.7878
57247SOL    HW277579   4.144   4.603   8.956  2.7231 -0.3235  0.6879
57248SOL     OW77580  11.741   0.250   0.387 -0.3237 -0.0460 -0.6854
57248SOL    HW177581  11.759   0.158   0.371 -1.1216 -0.4155  0.4340
57248SOL    HW277582  11.823   0.287   0.417  0.1176 -0.2743 -1.5751
57249SOL     OW77583   2.222   7.820  10.466  0.0968 -0.3687  0.1926
57249SOL    HW177584   2.304   7.785  10.502  0.5754 -2.7741 -2.8140
57249SOL    HW277585   2.250   7.885  10.402 -0.3785 -0.6191 -0.2755
57250SOL     OW77586   7.199  10.206   4.331 -0.3583  0.1389  0.0528
57250SOL    HW177587   7.214  10.264   4.406 -1.4237 -0.1102  0.4778
57250SOL    HW277588   7.280  10.211   4.280  0.6124 -0.1107  1.4992
57251SOL     OW77589   2.999   6.154   5.514 -0.0653 -0.0174 -0.2709
57251SOL    HW177590   2.936   6.221   5.488 -0.2336 -0.7464 -1.8135
57251SOL    HW277591   3.018   6.106   5.434  1.9130 -0.2902  0.3091
57252SOL     OW77592   3.255   4.931   9.066  0.0876  0.3469 -0.6386
57252SOL    HW177593   3.293   5.016   9.043 -1.1587  0.9279 -0.6347
57252SOL    HW277594   3.331   4.873   9.078  0.9854  1.6174  0.0299
57253SOL     OW77595   9.227   9.872   5.132 -0.5668 -0.0993 -0.1532
57253SOL    HW177596   9.313   9.869   5.092  0.2898 -1.3699  1.6395
57253SOL    HW277597   9.216   9.962   5.161  1.3564 -0.4373  1.9116
57254SOL     OW77598  12.276  10.151   3.134 -0.2088 -0.0159 -0.1854
57254SOL    HW177599  12.276  10.184   3.224  0.2760  0.1493 -0.2411
57254SOL    HW277600  12.193  10.181   3.097 -1.0353 -1.2267  0.6176
57255SOL     OW77601   9.536   0.538  10.139  0.2531  0.1383 -0.1136
57255SOL    HW177602   9.539   0.605  10.070  0.9343 -0.4522 -0.6658
57255SOL    HW277603   9.626   0.530  10.169  0.1897 -0.5940 -0.1050
57256SOL     OW77604   5.845   1.193   1.894 -0.2026  0.2413 -0.2840
57256SOL    HW177605   5.814   1.259   1.832 -0.8086 -1.3277 -1.7474
57256SOL    HW277606   5.882   1.243   1.966  0.3633  2.1708 -1.8206
57257SOL     OW77607   2.643   5.335   8.352  0.4355 -0.2025  0.4833
57257SOL    HW177608   2.715   5.329   8.290 -0.9265  0.1836 -1.2323
57257SOL    HW277609   2.639   5.249   8.393  2.0832 -0.1111  0.9068
57258SOL     OW77610   9.753   4.697   6.848  0.5523 -0.0880  0.4784
57258SOL    HW177611   9.773   4.786   6.820  0.4660  0.6278  2.5542
57258SOL    HW277612   9.814   4.643   6.797  0.0174  1.0252 -1.4543
57259SOL     OW77613   4.386   9.969  10.682 -0.1866  0.1902  0.3306
57259SOL    HW177614   4.425   9.885  10.660  0.3721  0.4522  0.3047
57259SOL    HW277615   4.445  10.034  10.644 -1.0761  0.5857 -0.4295
57260SOL     OW77616   7.412   1.948   0.939  0.2771 -0.3580  0.0681
57260SOL    HW177617   7.502   1.964   0.908 -0.1605  1.0023 -0.5610
57260SOL    HW277618   7.358   1.962   0.862 -0.7859  2.3523  1.1943
57261SOL     OW77619   3.834   4.085   2.573  0.0056 -0.3404 -0.2512
57261SOL    HW177620   3.767   4.047   2.629  2.6519 -2.3284  1.8634
57261SOL    HW277621   3.851   4.018   2.506 -0.1457  0.1996 -0.8461
57262SOL     OW77622  11.327   5.741   4.986  0.3525 -0.3739  0.2102
57262SOL    HW177623  11.350   5.665   4.933 -0.6691 -0.5706  0.0346
57262SOL    HW277624  11.231   5.747   4.980  0.4682  1.5916 -0.7330
57263SOL     OW77625  11.420   9.478   3.665  0.2977  0.2600 -0.3281
57263SOL    HW177626  11.494   9.442   3.616 -0.4569 -0.9102 -0.6550
57263SOL    HW277627  11.453   9.491   3.754  0.6058 -1.2803 -0.1930
57264SOL     OW77628   7.977  10.239  10.915  0.2364 -0.0962  0.1315
57264SOL    HW177629   7.985  10.271  10.826  2.0895  2.1413  1.0069
57264SOL    HW277630   8.065  10.247  10.952 -0.1482 -2.3251  1.7715
57265SOL     OW77631   0.804   5.111   7.224 -0.6635  0.3727  0.2225
57265SOL    HW177632   0.762   5.092   7.308  2.1357 -0.3126  1.5926
57265SOL    HW277633   0.836   5.201   7.234 -4.1883  2.1316 -1.9951
57266SOL     OW77634   9.360  11.627   0.978 -0.1606  0.2495 -0.0675
57266SOL    HW177635   9.398  11.624   0.891  0.8179 -0.3474  0.3722
57266SOL    HW277636   9.283  11.684   0.968 -0.5037 -0.4113 -1.4686
57267SOL     OW77637   5.703  10.035   9.275  0.7563 -0.2529 -0.1527
57267SOL    HW177638   5.722   9.947   9.309  2.0253  0.0781  0.0429
57267SOL    HW277639   5.738  10.094   9.341  1.6043  0.3988 -1.1465
57268SOL     OW77640   1.915   2.298  12.246 -0.5137  1.3413 -0.1877
57268SOL    HW177641   1.900   2.350  12.167 -0.2713  1.1487 -0.3617
57268SOL    HW277642   2.009   2.283  12.247 -0.7561 -0.4617 -1.0139
57269SOL     OW77643   7.687   2.393   1.081  0.2334 -0.3303 -0.0847
57269SOL    HW177644   7.645   2.330   1.140 -0.3412  0.1638  0.0395
57269SOL    HW277645   7.778   2.394   1.109 -0.1221  0.2471  1.1140
57270SOL     OW77646   1.574  10.547   9.442  0.1898  0.2575  0.2854
57270SOL    HW177647   1.548  10.510   9.526 -1.9281 -2.2035 -1.2963
57270SOL    HW277648   1.557  10.477   9.379  2.0325  1.8558 -2.1854
57271SOL     OW77649   4.254  12.254   2.586  0.8727  0.4342  0.0288
57271SOL    HW177650   4.268  12.324   2.523  2.3786  0.7879  0.7217
57271SOL    HW277651   4.296  12.177   2.546  0.0035  0.1250 -0.3222
57272SOL     OW77652   7.698   7.418   3.902  0.1718 -0.4593 -0.8866
57272SOL    HW177653   7.762   7.414   3.831  2.1597  0.7799  0.7153
57272SOL    HW277654   7.663   7.507   3.898 -0.6867 -0.7937 -1.0862
57273SOL     OW77655   3.877  12.124   4.815 -0.1809  0.1969  0.1899
57273SOL    HW177656   3.806  12.182   4.788  0.6391  0.9090 -0.5405
57273SOL    HW277657   3.928  12.176   4.877 -0.0541 -0.1549  0.3834
57274SOL     OW77658   8.384   8.297   5.448 -0.0476  0.5122 -0.4593
57274SOL    HW177659   8.348   8.299   5.536 -0.2263  0.7718 -0.5363
57274SOL    HW277660   8.471   8.258   5.458  0.1095  0.9445 -0.1041
57275SOL     OW77661  11.759   2.135   8.214 -0.5908  0.2682  0.3754
57275SOL    HW177662  11.787   2.077   8.143 -0.2097  0.5779  0.2716
57275SOL    HW277663  11.666   2.148   8.198 -0.2643  1.3342 -0.7967
57276SOL     OW77664  11.617  10.961  10.069  0.1415 -0.2077  0.1189
57276SOL    HW177665  11.652  11.049  10.077  0.0843 -0.2148  0.4454
57276SOL    HW277666  11.617  10.944   9.975  0.0643  0.1740  0.0479
57277SOL     OW77667   2.894   2.479   8.729  0.1249  0.5642 -0.0878
57277SOL    HW177668   2.986   2.500   8.748  0.0366  1.5348 -0.6633
57277SOL    HW277669   2.846   2.509   8.806 -0.0062  2.6579 -0.9108
57278SOL     OW77670   7.868   0.125   9.516  0.0891  0.0761 -0.5941
57278SOL    HW177671   7.871   0.061   9.588 -3.9940 -0.2050 -0.4804
57278SOL    HW277672   7.880   0.072   9.437 -1.0655 -0.5358 -0.3781
57279SOL     OW77673   9.978   5.576   1.136 -0.1859 -0.4659  0.1571
57279SOL    HW177674   9.938   5.588   1.050  0.1743 -2.1278 -0.2750
57279SOL    HW277675  10.022   5.491   1.131 -0.0418 -0.5418  1.9415
57280SOL     OW77676  11.350  10.295   3.423  0.7721 -0.2216 -0.6688
57280SOL    HW177677  11.435  10.325   3.393  1.1673 -1.2519 -0.6049
57280SOL    HW277678  11.347  10.320   3.516  0.1700  1.5831 -1.1170
57281SOL     OW77679   2.258  10.666  10.250 -0.6348  0.2153  0.2075
57281SOL    HW177680   2.207  10.739  10.215 -1.4649 -0.0717  0.8119
57281SOL    HW277681   2.201  10.590  10.241  0.8302 -0.7290 -1.9860
57282SOL     OW77682   5.967   1.601   1.365 -0.3631 -0.2994  0.3277
57282SOL    HW177683   6.023   1.657   1.418  1.1461 -0.5313 -0.9410
57282SOL    HW277684   5.983   1.512   1.397 -1.1173 -0.2406  0.9031
57283SOL     OW77685   4.455  10.970   6.947  0.4664 -0.5834  0.0704
57283SOL    HW177686   4.426  10.952   6.858  0.2361  0.7069 -0.1343
57283SOL    HW277687   4.488  10.886   6.979 -0.6842 -1.3879 -0.7494
57284SOL     OW77688   7.658  10.515   2.141  0.2400  0.2805 -0.6388
57284SOL    HW177689   7.705  10.435   2.166 -0.9085 -0.9719 -2.2903
57284SOL    HW277690   7.637  10.557   2.224  2.1363 -0.3508  0.2266
57285SOL     OW77691   2.900   7.117   0.911  0.2425  0.5275 -0.2337
57285SOL    HW177692   2.983   7.071   0.921 -1.1970 -2.5520 -1.3520
57285SOL    HW277693   2.912   7.199   0.959  3.5035 -0.3077  0.5817
57286SOL     OW77694   0.088  11.291   9.924  1.0654  0.3572 -0.3846
57286SOL    HW177695   0.075  11.221   9.860  0.4316  1.1386 -1.1316
57286SOL    HW277696   0.025  11.359   9.900 -0.1555  0.1319  1.8785
57287SOL     OW77697   9.983   4.076  11.108  0.2987  0.5494  0.3305
57287SOL    HW177698   9.962   4.135  11.180  1.1978  1.4532 -0.1201
57287SOL    HW277699   9.920   4.004  11.117 -1.1748  1.8149  0.5912
57288SOL     OW77700   0.584   3.996   0.907 -0.2499  0.4055 -0.3540
57288SOL    HW177701   0.560   3.969   0.818  0.3620  0.0736 -0.4220
57288SOL    HW277702   0.594   3.914   0.956 -1.7290  0.6120  0.3389
57289SOL     OW77703   6.174   4.818  10.309  0.4634  0.0494  0.2542
57289SOL    HW177704   6.220   4.872  10.373  0.0992  0.9190 -0.2049
57289SOL    HW277705   6.243   4.776  10.258  0.7468  0.4391  0.3156
57290SOL     OW77706  12.006   3.327   8.502  0.1327 -0.4015 -0.3323
57290SOL    HW177707  12.011   3.393   8.434 -0.2546 -0.3441 -0.3036
57290SOL    HW277708  12.012   3.377   8.584  0.8095 -0.4877 -0.3216
57291SOL     OW77709  10.683   4.911   4.801 -0.7101 -0.1519  0.7513
57291SOL    HW177710  10.692   4.983   4.739 -0.2629 -0.4815  0.4194
57291SOL    HW277711  10.599   4.870   4.779 -0.2725 -0.6484 -0.0641
57292SOL     OW77712   2.777   7.621   3.780  0.0686  0.3576 -0.0063
57292SOL    HW177713   2.733   7.561   3.720  3.0637 -0.8365 -1.1936
57292SOL    HW277714   2.869   7.594   3.778  1.0950  3.3245  1.4898
57293SOL     OW77715   0.369   7.880   5.082 -0.5083  0.8602 -0.0763
57293SOL    HW177716   0.337   7.946   5.021 -0.0962 -0.1500 -1.4703
57293SOL    HW277717   0.453   7.915   5.113 -0.2213  0.9597 -0.9133
57294SOL     OW77718   6.475  11.804   8.888 -0.4044 -0.0563  0.2650
57294SOL    HW177719   6.528  11.753   8.950  0.1421 -0.5305 -0.5548
57294SOL    HW277720   6.492  11.895   8.911 -0.6945 -0.2322  1.1972
57295SOL     OW77721   3.686   8.252   2.415 -0.7423 -0.3497  0.4175
57295SOL    HW177722   3.590   8.249   2.412 -0.7748 -0.4727  1.4665
57295SOL    HW277723   3.712   8.162   2.431 -0.5628  0.0331  2.5226
57296SOL     OW77724   6.269   7.638   6.707 -0.5100 -0.3840  0.3726
57296SOL    HW177725   6.176   7.614   6.714 -0.5278 -0.3205  0.3606
57296SOL    HW277726   6.267   7.733   6.691 -0.4830 -0.5401 -0.6563
57297SOL     OW77727   3.630  11.050  11.217 -0.2755 -0.1171  0.5524
57297SOL    HW177728   3.661  10.982  11.276 -0.5286 -0.3966  0.3679
57297SOL    HW277729   3.682  11.128  11.239 -1.5894  0.3141  2.3734
57298SOL     OW77730   6.409   1.627  10.652 -0.1630  0.6639  0.4128
57298SOL    HW177731   6.425   1.720  10.669 -3.2664  2.2073 -3.5865
57298SOL    HW277732   6.316   1.622  10.631  0.2917 -2.9711 -1.5066
57299SOL     OW77733   9.169   4.069   5.368 -0.0609  0.4162 -0.1241
57299SOL    HW177734   9.179   4.099   5.458 -0.3278  0.4264 -0.0974
57299SOL    HW277735   9.119   3.987   5.375 -0.6280  0.7345 -0.3043
57300SOL     OW77736   7.711   9.155   4.629  0.3119  0.1211  0.3586
57300SOL    HW177737   7.761   9.093   4.577 -0.2850 -1.6890  1.8272
57300SOL    HW277738   7.621   9.121   4.627  0.6180 -1.4540  4.3566
57301SOL     OW77739  11.994   8.476  12.163 -0.2890 -0.1386  0.0051
57301SOL    HW177740  11.995   8.571  12.150  0.0446  0.1691  1.9385
57301SOL    HW277741  11.902   8.451  12.150 -0.4529  0.5145 -0.1297
57302SOL     OW77742  10.469   1.368   1.239 -0.2013  0.5010  0.4799
57302SOL    HW177743  10.502   1.287   1.278 -0.7589 -0.1442 -0.3504
57302SOL    HW277744  10.375   1.367   1.258 -0.7944 -0.5901 -2.0644
57303SOL     OW77745   0.293   5.433   6.930  0.0965  0.6388 -0.2073
57303SOL    HW177746   0.241   5.467   6.857 -1.5259  0.7029  0.9316
57303SOL    HW277747   0.344   5.508   6.960  0.1356  0.8247 -0.7187
57304SOL     OW77748   1.758  11.959   0.855 -0.3084  0.1325  0.2626
57304SOL    HW177749   1.850  11.934   0.865  0.5318  2.6029 -0.6458
57304SOL    HW277750   1.751  11.986   0.763 -1.6379  1.0676  0.6178
57305SOL     OW77751   1.342   2.977  10.983  0.1415  0.3523  0.4591
57305SOL    HW177752   1.285   2.902  10.963  1.2277 -0.3735  0.0095
57305SOL    HW277753   1.430   2.940  10.988  0.6239  1.5095  0.8205
57306SOL     OW77754   1.907   9.452  10.006 -0.6146 -0.2203  0.0445
57306SOL    HW177755   1.959   9.439   9.926  1.2479 -0.0178  1.1495
57306SOL    HW277756   1.821   9.481   9.975  0.7203  2.1276 -1.8588
57307SOL     OW77757   5.582  11.640   3.853  0.0175 -0.0392 -0.2485
57307SOL    HW177758   5.632  11.667   3.776  1.4095  3.4313  1.6501
57307SOL    HW277759   5.530  11.717   3.876  0.3235 -0.6060  2.7349
57308SOL     OW77760   8.921   9.170   1.270  0.2759 -0.1618  0.0596
57308SOL    HW177761   8.918   9.242   1.332  0.1364 -0.9614  1.0079
57308SOL    HW277762   8.830   9.159   1.241  0.2188 -0.2436  0.2649
57309SOL     OW77763  12.133  10.366   2.309  0.3572 -0.1755  0.1401
57309SOL    HW177764  12.099  10.408   2.231  2.0574  0.7531 -0.1710
57309SOL    HW277765  12.189  10.295   2.276  1.5547  0.5913  0.4363
57310SOL     OW77766  11.570   6.690   4.058 -0.7628 -0.4104  0.1466
57310SOL    HW177767  11.630   6.679   4.132 -1.0140 -0.1424  0.3973
57310SOL    HW277768  11.604   6.633   3.990  0.9685  1.2552 -0.4634
57311SOL     OW77769   5.336   3.192   5.961 -0.6292 -0.3394  0.7695
57311SOL    HW177770   5.252   3.212   5.920 -0.7226  0.3029  1.2526
57311SOL    HW277771   5.381   3.137   5.898 -1.8395 -1.6144  0.9538
57312SOL     OW77772   7.108   7.787   0.051 -0.2243 -0.5330 -0.1736
57312SOL    HW177773   7.037   7.752  -0.004  0.6796 -0.7573 -1.2522
57312SOL    HW277774   7.072   7.867   0.088 -1.0111 -0.5739 -0.8028
57313SOL     OW77775   3.810  11.861   9.252 -0.2855 -0.0241  0.0599
57313SOL    HW177776   3.895  11.905   9.258 -0.4396  0.2335  0.4305
57313SOL    HW277777   3.753  11.910   9.312 -0.1676 -1.4016  1.3669
57314SOL     OW77778   6.343  12.312   2.178  0.4869 -0.2267 -0.2360
57314SOL    HW177779   6.275  12.320   2.110 -0.7412 -1.0988  0.8488
57314SOL    HW277780   6.298  12.333   2.259  0.6837 -3.5410  0.9034
57315SOL     OW77781   6.105   3.494   2.896  0.3523  0.9738  0.2554
57315SOL    HW177782   6.050   3.565   2.928 -0.9706  0.1652 -0.1721
57315SOL    HW277783   6.044   3.428   2.865  1.5742  0.6388 -1.5801
57316SOL     OW77784   1.596   0.253  10.180  0.5725 -0.8796 -0.2027
57316SOL    HW177785   1.502   0.262  10.196  0.8625 -1.8325  2.7326
57316SOL    HW277786   1.607   0.162  10.153  0.3069  0.2880 -5.0561
57317SOL     OW77787   3.248   0.966  10.388  0.2777 -0.3578 -0.1916
57317SOL    HW177788   3.169   1.004  10.349  0.5263  0.2706 -0.0940
57317SOL    HW277789   3.260   0.883  10.342  0.2735  0.1323 -1.1020
57318SOL     OW77790   9.737  10.729   3.330 -0.3108  0.3149 -0.0200
57318SOL    HW177791   9.710  10.803   3.276  0.2863  0.3159 -0.3223
57318SOL    HW277792   9.689  10.654   3.294 -1.9168  0.7553  1.1004
57319SOL     OW77793   5.022  10.456   5.047  0.9623  0.0459 -0.4642
57319SOL    HW177794   5.033  10.433   5.140  0.3248  1.3739 -0.0266
57319SOL    HW277795   4.934  10.424   5.025 -0.0415  2.1442  0.2251
57320SOL     OW77796   2.388   2.403   3.707 -0.1301 -0.6760 -0.0362
57320SOL    HW177797   2.387   2.431   3.799  1.4613  0.4863 -0.3298
57320SOL    HW277798   2.341   2.472   3.660  0.5814 -0.3665 -0.3039
57321SOL     OW77799   4.621   3.111   8.705 -0.9518  0.1304 -0.5401
57321SOL    HW177800   4.602   3.039   8.644 -0.6676  0.8491 -1.5052
57321SOL    HW277801   4.703   3.085   8.747  0.3845  0.8710 -2.5305
57322SOL     OW77802   1.816   4.681  12.248 -0.5787 -0.1831  0.1288
57322SOL    HW177803   1.767   4.622  12.191 -0.4635 -0.7906  0.6426
57322SOL    HW277804   1.813   4.765  12.204  0.7781 -0.9542 -1.5578
57323SOL     OW77805   0.929   4.328   5.967  0.4286  0.9672  0.0386
57323SOL    HW177806   1.003   4.296   6.019  0.3217  0.0111 -0.3736
57323SOL    HW277807   0.852   4.313   6.022  0.2147 -0.8245 -0.6660
57324SOL     OW77808  10.295   6.018  10.528 -0.2204 -0.6190  0.2959
57324SOL    HW177809  10.226   6.023  10.462  0.6243 -0.3154 -0.5844
57324SOL    HW277810  10.276   5.938  10.576 -1.6775 -0.0949  0.6443
57325SOL     OW77811   5.244   5.902   4.718 -0.5335  0.2893  0.4228
57325SOL    HW177812   5.249   5.939   4.806  2.3363  0.9178  0.0737
57325SOL    HW277813   5.307   5.830   4.718 -0.7480  0.0714 -1.0059
57326SOL     OW77814   7.820   7.810   8.879 -0.1963  0.3222  0.3434
57326SOL    HW177815   7.777   7.725   8.872  1.8009 -0.6675 -1.1961
57326SOL    HW277816   7.759   7.865   8.928 -1.8802 -1.7670  0.7147
57327SOL     OW77817   9.782   8.904   5.830 -0.3022  0.0550 -0.5499
57327SOL    HW177818   9.760   8.993   5.803 -0.7566  0.0526 -0.2121
57327SOL    HW277819   9.697   8.863   5.847 -0.1557 -0.7758 -1.7154
57328SOL     OW77820   4.635   0.617  11.783  0.5362  0.3397 -0.6103
57328SOL    HW177821   4.564   0.676  11.807  0.4753  0.0754 -0.1313
57328SOL    HW277822   4.594   0.531  11.776  0.9238  0.0626  0.3422
57329SOL     OW77823   3.939   1.656   2.990 -0.2010 -0.6437 -0.3060
57329SOL    HW177824   3.858   1.706   3.003  0.5482  0.6172 -0.4007
57329SOL    HW277825   3.997   1.715   2.943  1.4018 -0.9085  1.2227
57330SOL     OW77826  10.346   0.490   2.514 -0.2241  0.1901  0.0684
57330SOL    HW177827  10.396   0.409   2.529 -0.7533 -0.0841  0.4011
57330SOL    HW277828  10.352   0.537   2.597 -0.6117  0.1045  0.1448
57331SOL     OW77829   8.369  11.238   5.365 -0.5433 -0.9581 -0.1928
57331SOL    HW177830   8.277  11.253   5.347 -0.0030  2.4858 -0.6907
57331SOL    HW277831   8.379  11.253   5.459 -0.2572  0.5259 -0.4332
57332SOL     OW77832  12.023   0.703   2.226  0.5789 -0.1964  0.4533
57332SOL    HW177833  12.093   0.757   2.262 -1.4750  1.3455  2.5289
57332SOL    HW277834  11.986   0.658   2.302 -1.8182  0.5253 -0.1932
57333SOL     OW77835   0.047   1.533   5.464  0.1220  0.0243 -0.1000
57333SOL    HW177836   0.020   1.543   5.556 -1.6331 -0.0528 -0.5601
57333SOL    HW277837   0.127   1.584   5.457 -1.4638  2.8665  0.7311
57334SOL     OW77838  10.896   3.903  12.006  0.0725  0.4857 -0.0077
57334SOL    HW177839  10.984   3.926  11.976 -0.0554  0.4731 -0.4032
57334SOL    HW277840  10.872   3.826  11.954  0.4689 -0.5219  1.2425
57335SOL     OW77841   6.766   1.908   0.042  0.5509  0.0593  0.6748
57335SOL    HW177842   6.736   1.819   0.063 -0.0548 -0.0880 -0.7150
57335SOL    HW277843   6.790   1.904  -0.051 -1.3206  1.8003  0.0404
57336SOL     OW77844   8.269   7.656   1.302  0.0830  0.1545 -0.2440
57336SOL    HW177845   8.247   7.635   1.211 -1.7803 -0.3929  0.2797
57336SOL    HW277846   8.322   7.735   1.297  0.8973 -0.4434 -1.8529
57337SOL     OW77847   9.002   9.502  11.020  0.0509 -0.4535  0.5568
57337SOL    HW177848   8.920   9.508  11.069 -0.4510 -1.1736 -0.1682
57337SOL    HW277849   9.050   9.431  11.061  0.6746  0.4640  1.4722
57338SOL     OW77850   4.819  10.992   7.586 -0.3504  0.0282 -0.1619
57338SOL    HW177851   4.901  11.024   7.549  0.0127 -0.3726  0.2788
57338SOL    HW277852   4.846  10.937   7.660 -0.9413 -1.4551 -1.0195
57339SOL     OW77853   0.708  11.425   9.118  0.3846  0.9046  0.2995
57339SOL    HW177854   0.687  11.457   9.030 -0.4791 -0.4492 -0.0198
57339SOL    HW277855   0.656  11.346   9.128  2.3341 -0.3741  1.0776
57340SOL     OW77856   2.552   5.323   9.763  0.4935  0.3632  0.4293
57340SOL    HW177857   2.613   5.253   9.786  0.3448 -0.1286 -0.5821
57340SOL    HW277858   2.558   5.329   9.667 -1.1756  0.1549  0.2787
57341SOL     OW77859   7.167   8.118   6.046 -0.2563 -0.2361 -0.4382
57341SOL    HW177860   7.081   8.150   6.021 -1.1314 -1.1399  1.2196
57341SOL    HW277861   7.175   8.141   6.139  0.7736 -1.2222 -0.2601
57342SOL     OW77862   3.660   0.996   6.304 -0.6493 -0.2764 -0.1913
57342SOL    HW177863   3.707   0.968   6.226  1.7173  1.9026  0.3063
57342SOL    HW277864   3.699   0.944   6.375 -2.5865 -2.0372 -0.3218
57343SOL     OW77865   5.561   5.322   3.122  0.6139  0.1151 -0.7833
57343SOL    HW177866   5.474   5.288   3.104  0.2417  1.2986 -1.3322
57343SOL    HW277867   5.621   5.254   3.092 -0.1087 -1.0142  0.2434
57344SOL     OW77868   7.290   2.288   5.081 -0.0867 -0.0739 -0.1212
57344SOL    HW177869   7.206   2.302   5.125  0.1057  0.3551  0.1108
57344SOL    HW277870   7.354   2.285   5.152  0.0621 -0.6822 -0.2771
57345SOL     OW77871  10.631   9.698   7.770  0.1399  0.3319 -0.0669
57345SOL    HW177872  10.716   9.661   7.747  0.4343  0.7081  0.4005
57345SOL    HW277873  10.618   9.673   7.862  0.4667  1.6070  0.3395
57346SOL     OW77874  11.845  12.191   9.311 -0.1420  0.0057 -0.6085
57346SOL    HW177875  11.867  12.138   9.388  2.1190  1.0980 -0.3974
57346SOL    HW277876  11.751  12.207   9.319 -0.2527 -1.1771  1.1055
57347SOL     OW77877   5.791   2.569   9.000  0.4218  0.3420 -0.4963
57347SOL    HW177878   5.820   2.549   9.089  1.3625 -1.5232 -1.1474
57347SOL    HW277879   5.726   2.639   9.010 -0.5175 -0.7516  1.7741
57348SOL     OW77880   7.346   0.212   7.736 -0.1337  0.2215  0.7586
57348SOL    HW177881   7.405   0.139   7.753  0.4829  0.5739  0.1851
57348SOL    HW277882   7.342   0.260   7.818 -0.9144 -0.7095  1.2840
57349SOL     OW77883   2.425   1.674   5.087 -0.7489 -0.2794 -0.3626
57349SOL    HW177884   2.389   1.588   5.064  1.6310 -0.8983 -2.2349
57349SOL    HW277885   2.412   1.727   5.009 -2.4342  1.2195  0.8770
57350SOL     OW77886   1.805   9.422   8.664 -0.3131  0.3975  0.4080
57350SOL    HW177887   1.856   9.421   8.584  1.2173 -0.5855  1.3571
57350SOL    HW277888   1.819   9.510   8.700  1.2685 -0.0445  0.9601
57351SOL     OW77889   1.346  11.414  11.797  0.4238 -0.0178 -1.0831
57351SOL    HW177890   1.418  11.450  11.849 -0.6962  0.8802 -0.0782
57351SOL    HW277891   1.374  11.423  11.706  1.6715  0.0636 -0.7067
57352SOL     OW77892   2.150   4.230   9.017  0.0754 -0.1860 -0.2248
57352SOL    HW177893   2.150   4.314   8.970 -1.4036  0.4103  0.7659
57352SOL    HW277894   2.103   4.248   9.099 -0.0409 -1.9228  0.1326
57353SOL     OW77895   3.783   3.767  10.142 -0.5852  0.1797 -0.0057
57353SOL    HW177896   3.724   3.840  10.158  0.3306  0.8965  0.2031
57353SOL    HW277897   3.807   3.776  10.050 -0.5476  0.0777 -0.0062
57354SOL     OW77898   7.637   5.883   0.921 -0.5634  0.3531  0.5672
57354SOL    HW177899   7.602   5.862   0.835 -0.3792 -1.8376  0.9852
57354SOL    HW277900   7.682   5.967   0.908 -0.3648 -0.0229 -1.5032
57355SOL     OW77901  11.630   8.216   6.046 -0.4729 -0.4969  0.0730
57355SOL    HW177902  11.707   8.192   5.994 -1.3498 -0.8869 -1.0863
57355SOL    HW277903  11.582   8.134   6.057 -1.1077 -0.1267  0.1265
57356SOL     OW77904   4.695   1.910   0.794  0.7697 -0.0573  0.1947
57356SOL    HW177905   4.623   1.891   0.734 -0.2745  0.2566  1.3268
57356SOL    HW277906   4.708   2.005   0.787 -1.3075  0.4972  2.5286
57357SOL     OW77907   2.346   1.984   1.200  0.7155 -0.2202  0.0235
57357SOL    HW177908   2.417   1.931   1.238  0.0341 -0.3469  1.1501
57357SOL    HW277909   2.297   2.017   1.275 -1.9852 -2.2454 -0.6758
57358SOL     OW77910   3.657   8.620  11.218  1.0902  0.2689  0.3034
57358SOL    HW177911   3.714   8.580  11.284  1.0778  0.1071  0.2159
57358SOL    HW277912   3.595   8.672  11.269 -0.5176 -1.8009  0.6037
57359SOL     OW77913   0.301   9.136   3.086  0.2266 -0.2468 -0.2879
57359SOL    HW177914   0.369   9.164   3.147  1.2615  1.1715 -2.0037
57359SOL    HW277915   0.345   9.074   3.028 -0.9350 -2.1588  0.7675
57360SOL     OW77916   9.968   1.753   2.084  0.5785  0.1861  0.1743
57360SOL    HW177917  10.058   1.731   2.108  0.5152 -3.9375 -2.4153
57360SOL    HW277918   9.916   1.738   2.163  1.7953 -0.2475  0.9063
57361SOL     OW77919   1.618  11.092   8.335 -0.5979  0.3765 -0.4262
57361SOL    HW177920   1.666  11.018   8.297 -0.8031 -0.5464  1.0263
57361SOL    HW277921   1.666  11.170   8.305  0.0616 -0.3676 -1.3754
57362SOL     OW77922  10.277   7.792   7.942  0.1543 -0.3430 -0.3043
57362SOL    HW177923  10.254   7.770   7.852  0.8549 -1.9048 -0.1395
57362SOL    HW277924  10.194   7.820   7.982  0.0865  1.7348 -1.7646
57363SOL     OW77925   6.038  10.617   1.632 -0.0094 -0.4250  0.5835
57363SOL    HW177926   6.015  10.630   1.540 -0.8206 -1.3975  0.6254
57363SOL    HW277927   6.106  10.681   1.650  0.0113 -0.0901 -0.6439
57364SOL     OW77928   0.526   1.543   7.793 -0.7533  0.1644 -0.4430
57364SOL    HW177929   0.620   1.522   7.786 -0.4738  0.1979  2.2709
57364SOL    HW277930   0.488   1.466   7.836 -1.8342  0.5046 -0.7763
57365SOL     OW77931   1.845  12.283  11.876  0.6526 -0.0055 -0.0684
57365SOL    HW177932   1.887  12.348  11.819 -0.2262 -0.0318 -0.7600
57365SOL    HW277933   1.866  12.199  11.836 -0.2499 -0.0052 -0.5574
57366SOL     OW77934   2.813   8.065   5.878 -0.7392  0.4883 -0.5156
57366SOL    HW177935   2.745   8.111   5.829 -1.2197 -0.4868 -0.7849
57366SOL    HW277936   2.782   8.066   5.968 -0.6765  0.8021 -0.4943
57367SOL     OW77937   3.410   9.619   5.230  0.3414  0.6855 -0.6139
57367SOL    HW177938   3.361   9.542   5.256  0.4292  0.4175 -1.2363
57367SOL    HW277939   3.480   9.586   5.174  1.4966  1.0032  0.5715
57368SOL     OW77940   5.919   2.618   0.746  0.0810  0.3197 -0.1222
57368SOL    HW177941   6.010   2.633   0.721 -0.1121  1.9611  0.0349
57368SOL    HW277942   5.924   2.561   0.822  0.9203 -0.3799 -0.6807
57369SOL     OW77943   3.855   7.586   9.426 -0.2500 -0.1763 -0.2872
57369SOL    HW177944   3.773   7.608   9.471 -0.3677 -0.0187 -0.5785
57369SOL    HW277945   3.851   7.492   9.413 -0.4637 -0.1456 -0.4514
57370SOL     OW77946  11.286  12.217   8.985  0.4595  0.7819  0.4345
57370SOL    HW177947  11.375  12.180   8.982  0.8537  1.7837 -1.3012
57370SOL    HW277948  11.287  12.272   9.064  0.8751 -0.3560  1.2636
57371SOL     OW77949  12.119  10.332   0.921  0.1344 -0.1711  0.1608
57371SOL    HW177950  12.149  10.254   0.968  1.6038 -1.5750 -2.8462
57371SOL    HW277951  12.095  10.300   0.834  3.3353  2.9764 -2.1547
57372SOL     OW77952   5.819   6.159  12.244 -0.1195 -0.1691  0.0363
57372SOL    HW177953   5.809   6.142  12.151  3.4768  0.3881 -0.6034
57372SOL    HW277954   5.843   6.252  12.249  1.1789 -0.5311  1.3110
57373SOL     OW77955   9.170   9.882   7.017  0.4392  0.1404 -0.0361
57373SOL    HW177956   9.086   9.870   6.973 -0.9511  0.7171  2.2925
57373SOL    HW277957   9.173   9.812   7.082  1.7260  0.1985 -0.0036
57374SOL     OW77958  11.514   1.002   5.284 -1.1435  0.2281  0.1577
57374SOL    HW177959  11.528   0.908   5.274 -2.8660  0.1593 -2.9493
57374SOL    HW277960  11.591   1.032   5.333 -0.5852 -2.7523  1.3544
57375SOL     OW77961   7.561   1.014   7.751  0.1743  0.6504  0.6461
57375SOL    HW177962   7.497   1.075   7.713 -0.4141  0.5339  1.4244
57375SOL    HW277963   7.512   0.966   7.818  0.2994 -1.5244 -0.7196
57376SOL     OW77964   2.929   9.804   2.540 -0.0841 -0.4303  0.0006
57376SOL    HW177965   2.833   9.803   2.542 -0.0761 -0.9418  0.2163
57376SOL    HW277966   2.952   9.890   2.575 -0.4984  0.8204 -2.5591
57377SOL     OW77967   6.823   7.726   1.581 -0.1271  0.0623  0.3529
57377SOL    HW177968   6.824   7.730   1.677  0.4642  1.6368  0.3017
57377SOL    HW277969   6.883   7.655   1.560  0.2106  0.1006  1.1341
57378SOL     OW77970   5.332   4.151   0.828 -0.0877  0.2562 -0.3260
57378SOL    HW177971   5.264   4.084   0.830 -1.1626  1.3145  0.8892
57378SOL    HW277972   5.289   4.228   0.792  1.2445  0.2216 -2.1105
57379SOL     OW77973   3.049   6.580   6.310  0.1310 -1.0732 -0.0297
57379SOL    HW177974   3.011   6.550   6.392 -2.6459  0.7562 -0.4885
57379SOL    HW277975   2.980   6.564   6.245  1.1208  0.1602 -1.4487
57380SOL     OW77976   5.232  10.745  10.534  0.0359  0.2521 -0.0936
57380SOL    HW177977   5.326  10.731  10.520  0.1828  0.6896  0.4316
57380SOL    HW277978   5.198  10.657  10.553  0.6131  0.2902  1.2333
57381SOL     OW77979   4.130   6.699  10.833 -0.1555  0.1991  0.2720
57381SOL    HW177980   4.037   6.679  10.842 -0.2140  0.2152 -0.2673
57381SOL    HW277981   4.151   6.750  10.911 -1.5722  3.7333 -1.4366
57382SOL     OW77982   4.306  10.032   0.106 -0.0946  0.1803 -0.4417
57382SOL    HW177983   4.382  10.090   0.098 -0.0125 -0.0569 -1.7528
57382SOL    HW277984   4.339   9.956   0.155  0.2429  0.5163 -0.1461
57383SOL     OW77985   9.898   5.421   3.373 -0.0686 -0.0207 -0.0922
57383SOL    HW177986   9.946   5.379   3.301  1.4605 -0.2836  1.0096
57383SOL    HW277987   9.850   5.492   3.332 -1.0705 -1.5404 -1.7007
57384SOL     OW77988   4.641   6.406   4.904  0.5628 -0.2895 -0.1365
57384SOL    HW177989   4.646   6.456   4.986 -0.5007 -1.9344  0.9864
57384SOL    HW277990   4.715   6.345   4.909  1.5727  0.7751 -1.2853
57385SOL     OW77991   1.789   9.730   5.177 -0.7271 -0.3102 -0.1587
57385SOL    HW177992   1.770   9.636   5.174 -2.2017 -0.0297 -3.2527
57385SOL    HW277993   1.736   9.768   5.107  2.1214  2.3935 -1.1031
57386SOL     OW77994   3.490   7.058   2.582 -0.0996 -0.3546  0.1987
57386SOL    HW177995   3.515   7.150   2.589 -2.7485  0.4410  0.5749
57386SOL    HW277996   3.395   7.058   2.598 -0.5677 -2.8831 -1.8561
57387SOL     OW77997   4.248   7.743   5.470  0.0508 -0.1781 -0.2775
57387SOL    HW177998   4.292   7.665   5.503  0.0290  0.3196  0.9951
57387SOL    HW277999   4.209   7.783   5.548 -1.1948  0.3140 -1.1248
57388SOL     OW78000   0.419   3.360   8.344  0.6949  0.3036 -0.1703
57388SOL    HW178001   0.343   3.342   8.399  1.1880  0.0521  0.4509
57388SOL    HW278002   0.400   3.316   8.261  0.3027 -0.0304  0.0945
57389SOL     OW78003   3.122   0.453   9.394  0.3278  0.8789  0.2525
57389SOL    HW178004   3.163   0.490   9.473 -0.4139  0.3832  0.8867
57389SOL    HW278005   3.146   0.514   9.325  0.0179  1.9794  1.0828
57390SOL     OW78006   4.073   9.372  11.146 -0.1016 -0.5013  0.4922
57390SOL    HW178007   4.014   9.363  11.070  0.1830  0.7591  0.0961
57390SOL    HW278008   4.014   9.382  11.221 -0.4746  1.7161 -0.0185
57391SOL     OW78009   7.287   8.398   5.865 -0.1134 -0.4215  0.0129
57391SOL    HW178010   7.265   8.442   5.783  3.2515  2.9088  0.5963
57391SOL    HW278011   7.371   8.356   5.849  0.2145 -0.4134  1.5019
57392SOL     OW78012   1.185   0.815   9.945 -0.2066 -0.0259 -0.1900
57392SOL    HW178013   1.266   0.816   9.996  0.1934 -2.3058 -0.6551
57392SOL    HW278014   1.121   0.859  10.001  0.5390 -1.2751  1.7409
57393SOL     OW78015   9.886   0.480  12.135 -0.0055 -0.2929  0.2601
57393SOL    HW178016   9.834   0.405  12.164 -1.3065  0.0577 -1.0678
57393SOL    HW278017   9.902   0.530  12.216 -1.9669 -0.2862  0.6879
57394SOL     OW78018   1.660   3.773   7.460  0.2450  0.2623  0.1230
57394SOL    HW178019   1.742   3.765   7.411  0.5239  3.1916 -0.0627
57394SOL    HW278020   1.681   3.742   7.548  0.2535 -3.2629 -0.9928
57395SOL     OW78021   7.566   5.317   2.039 -0.3477  0.1868  0.1134
57395SOL    HW178022   7.486   5.296   2.087 -0.4925  1.8246  0.6434
57395SOL    HW278023   7.541   5.387   1.980  0.0237 -1.2462 -1.8664
57396SOL     OW78024   6.430   8.242   9.364  0.6127  0.0487  0.1202
57396SOL    HW178025   6.524   8.237   9.382  0.3882  0.2850  1.5288
57396SOL    HW278026   6.417   8.186   9.288  1.9506  0.3558 -0.3596
57397SOL     OW78027  10.718   6.891   7.389 -0.4692 -0.1737  0.1744
57397SOL    HW178028  10.732   6.908   7.296  0.7408 -3.0576 -0.2978
57397SOL    HW278029  10.784   6.944   7.433  1.0667 -1.0966 -0.9081
57398SOL     OW78030   6.412   0.739   0.414 -0.2964 -0.5318  0.0978
57398SOL    HW178031   6.363   0.660   0.391 -2.3312  0.0876  1.9314
57398SOL    HW278032   6.376   0.807   0.358  1.1795 -0.7565 -1.1974
57399SOL     OW78033   0.805   4.650  12.211 -0.0265 -0.9254  0.1682
57399SOL    HW178034   0.793   4.744  12.223 -0.6094 -1.1624  1.6267
57399SOL    HW278035   0.878   4.627  12.268  0.4908 -1.2794 -0.6106
57400SOL     OW78036   7.432  11.991   3.388  0.3835  0.1279 -0.1353
57400SOL    HW178037   7.413  12.045   3.464 -0.1722  2.2732 -1.6932
57400SOL    HW278038   7.347  11.981   3.344  0.9819  0.5200 -1.4262
57401SOL     OW78039   4.302   7.052   6.628 -0.5793 -0.0586  0.4980
57401SOL    HW178040   4.395   7.043   6.605 -0.7514  0.0308 -0.2537
57401SOL    HW278041   4.299   7.036   6.723  0.1741 -0.2564  0.4938
57402SOL     OW78042   1.699   7.313   6.133 -0.0037 -0.3718 -0.2496
57402SOL    HW178043   1.708   7.384   6.197  1.3770  0.0366 -0.8779
57402SOL    HW278044   1.632   7.256   6.171  0.2433  0.2556  1.2001
57403SOL     OW78045   9.652   9.011   1.528 -0.1218 -0.2072  0.3568
57403SOL    HW178046   9.561   8.988   1.511  0.0711 -0.1091 -0.9225
57403SOL    HW278047   9.696   8.996   1.445  0.4529  2.6023  0.0614
57404SOL     OW78048   9.345   2.471   3.449 -0.1448  0.3768 -0.2439
57404SOL    HW178049   9.292   2.537   3.493 -0.8601  0.4193 -1.1428
57404SOL    HW278050   9.367   2.511   3.364  1.9252  0.6524  0.3694
57405SOL     OW78051   6.759   3.950   4.755  0.2093 -0.1424 -0.0225
57405SOL    HW178052   6.673   3.987   4.734 -0.3369 -1.0620  0.5311
57405SOL    HW278053   6.747   3.856   4.750  1.0299 -0.2956  0.6569
57406SOL     OW78054   7.890   8.621   1.326  0.0000 -0.5125  0.0574
57406SOL    HW178055   7.865   8.712   1.308  1.8386 -0.2453 -1.4249
57406SOL    HW278056   7.847   8.570   1.257 -1.1654 -0.8379  0.9846
57407SOL     OW78057  11.123   3.799   4.693 -0.0787 -0.4169  0.3472
57407SOL    HW178058  11.053   3.845   4.739 -0.1893 -0.2418  0.0059
57407SOL    HW278059  11.181   3.868   4.661  0.6008 -0.5825  1.1642
57408SOL     OW78060   4.466  11.630   4.197  0.2668 -0.2421 -0.1750
57408SOL    HW178061   4.510  11.549   4.171  2.2960  1.0688 -1.0072
57408SOL    HW278062   4.421  11.659   4.118  0.9567  0.3126 -0.3696
57409SOL     OW78063   9.821   7.373   2.612  0.3519 -0.4229 -0.0952
57409SOL    HW178064   9.821   7.282   2.581 -1.8201 -0.2008 -0.8977
57409SOL    HW278065   9.795   7.424   2.536 -0.8902  0.6113  0.9779
57410SOL     OW78066  11.755   0.666   2.946 -0.0971 -0.6288  0.1741
57410SOL    HW178067  11.660   0.675   2.950 -0.0920 -0.8751  2.5442
57410SOL    HW278068  11.783   0.729   2.880 -1.8798 -0.4554 -0.4619
57411SOL     OW78069   7.323   2.131   7.938  0.2383 -0.1227  0.2669
57411SOL    HW178070   7.417   2.114   7.941  0.2673  0.0704  0.4952
57411SOL    HW278071   7.310   2.204   7.999 -0.1978 -0.7761  0.9812
57412SOL     OW78072   0.504  11.074   3.041  0.2662 -0.0170  0.3403
57412SOL    HW178073   0.584  11.029   3.014  2.0279  1.9897  1.8755
57412SOL    HW278074   0.525  11.109   3.128 -1.4498  2.5329 -0.1793
57413SOL     OW78075   1.958   9.588   3.713 -0.0083  0.2503 -0.2118
57413SOL    HW178076   1.892   9.590   3.783 -0.0762 -0.5267 -0.2387
57413SOL    HW278077   1.942   9.505   3.668 -1.0590  1.4722 -2.2334
57414SOL     OW78078   5.457  10.405  11.278 -0.3541 -0.5484 -0.1616
57414SOL    HW178079   5.526  10.450  11.228  1.1603 -1.3620  1.1190
57414SOL    HW278080   5.411  10.354  11.212  1.3049 -1.2366 -0.8610
57415SOL     OW78081  11.981   2.697   1.455 -0.4577 -0.2426 -0.1494
57415SOL    HW178082  11.889   2.674   1.441 -0.6005 -0.5599  1.1779
57415SOL    HW278083  11.980   2.792   1.466 -0.5645 -0.1988 -0.5089
57416SOL     OW78084   9.958  10.038   3.527 -0.5036 -0.3534  0.2055
57416SOL    HW178085   9.984  10.061   3.617 -1.5346  0.5560  0.3057
57416SOL    HW278086  10.033   9.992   3.491  1.0577  1.7592  0.5913
57417SOL     OW78087  11.026  12.272   3.578 -0.1478  0.0905 -0.4105
57417SOL    HW178088  11.008  12.355   3.534 -0.3096 -0.1629 -0.8311
57417SOL    HW278089  10.979  12.207   3.526 -0.7397 -0.1583  0.4315
57418SOL     OW78090  12.198  10.329   8.832  0.1188 -0.0869  0.7930
57418SOL    HW178091  12.150  10.258   8.791 -0.8182  0.3386  1.1297
57418SOL    HW278092  12.139  10.403   8.830  1.4431  0.9846 -0.4281
57419SOL     OW78093   0.813   8.110  11.846 -0.0084 -0.1497  0.6794
57419SOL    HW178094   0.728   8.150  11.829 -0.5722 -1.5312  0.1282
57419SOL    HW278095   0.795   8.017  11.852  1.5362 -0.5173  0.0979
57420SOL     OW78096  11.937  11.902   7.176 -0.0418 -0.1592 -0.1046
57420SOL    HW178097  11.952  11.818   7.134  0.2166 -1.3088  2.1280
57420SOL    HW278098  11.975  11.892   7.263 -0.4428  2.1100  0.3840
57421SOL     OW78099  12.076   4.795   1.652 -0.1077  0.6414  0.4373
57421SOL    HW178100  12.062   4.715   1.702  0.6502 -1.0257 -1.8779
57421SOL    HW278101  12.172   4.802   1.644 -0.1892  0.1526 -1.7053
57422SOL     OW78102   7.787   2.610   8.389  0.2261 -0.1127 -0.0032
57422SOL    HW178103   7.800   2.705   8.381 -0.8875 -0.1016 -2.8514
57422SOL    HW278104   7.702   2.601   8.432  2.1224 -0.0045  4.2142
57423SOL     OW78105   3.431  12.039   8.826 -0.0697 -0.0967 -0.0527
57423SOL    HW178106   3.493  12.092   8.875  0.9662 -0.9803 -0.3782
57423SOL    HW278107   3.397  12.098   8.758 -0.8199  0.8536  1.1142
57424SOL     OW78108   1.013   3.065   8.717  0.0983 -0.0342 -0.3679
57424SOL    HW178109   0.986   3.139   8.662  0.5350  1.8363  1.8056
57424SOL    HW278110   0.935   3.045   8.770 -0.2814 -1.7479 -1.4612
57425SOL     OW78111   6.302   1.934   2.616  0.1861  0.0210 -0.1108
57425SOL    HW178112   6.358   1.856   2.612 -0.3478 -0.3999  0.3971
57425SOL    HW278113   6.357   2.001   2.655  0.6618 -0.0941 -0.5798
57426SOL     OW78114   3.712   3.981   5.991  0.1726  0.2446  0.4768
57426SOL    HW178115   3.742   4.040   5.922 -0.6637  0.5488  0.3539
57426SOL    HW278116   3.648   3.924   5.947  1.5379 -1.2899  0.4124
57427SOL     OW78117   1.891   2.035   8.185 -0.3719  0.1696  0.1428
57427SOL    HW178118   1.863   2.074   8.102 -1.1619 -0.7806 -0.0593
57427SOL    HW278119   1.835   2.077   8.251  0.6258  1.3200  0.2823
57428SOL     OW78120   2.263   0.077   6.502  0.3364  0.2362 -0.0500
57428SOL    HW178121   2.227   0.147   6.557  0.7070 -1.0272  1.9074
57428SOL    HW278122   2.187   0.041   6.457  0.0806  1.5957 -0.7612
57429SOL     OW78123  12.187  12.116   7.191 -0.1106  0.5366  0.1987
57429SOL    HW178124  12.107  12.167   7.185 -0.2730  0.2324 -0.2965
57429SOL    HW278125  12.185  12.078   7.279 -0.4140  0.6861  0.2574
57430SOL     OW78126   4.216  11.842   7.066  0.0797  0.8337  0.3660
57430SOL    HW178127   4.194  11.804   7.150  0.4827 -1.4233 -0.4815
57430SOL    HW278128   4.304  11.878   7.078  0.1402  0.5164  0.8913
57431SOL     OW78129  11.135   9.645   0.325 -0.9790  0.0599 -0.3192
57431SOL    HW178130  11.127   9.736   0.356  1.2546  0.3338 -0.3488
57431SOL    HW278131  11.192   9.651   0.249 -0.1921 -1.4400  0.1190
57432SOL     OW78132   3.262  10.588   8.118  0.3154  0.4279 -0.0831
57432SOL    HW178133   3.247  10.656   8.052 -0.2404  1.1855  0.7925
57432SOL    HW278134   3.346  10.549   8.093  0.9220  1.8049 -0.3049
57433SOL     OW78135   4.744   2.838  12.178  0.2891 -0.4069 -0.4810
57433SOL    HW178136   4.750   2.880  12.092  0.7524  0.1414 -0.1898
57433SOL    HW278137   4.835   2.814  12.199  0.5083  1.3291  0.7554
57434SOL     OW78138   2.378   4.677   8.716 -0.4459 -0.2552  0.1440
57434SOL    HW178139   2.310   4.640   8.772  0.6329 -0.0314  1.6694
57434SOL    HW278140   2.442   4.713   8.777 -0.6229  2.6900 -1.2360
57435SOL     OW78141   9.544   4.882   0.189 -0.4043 -0.0504 -0.1910
57435SOL    HW178142   9.492   4.935   0.250  0.5306 -0.0008  0.5720
57435SOL    HW278143   9.580   4.811   0.242  0.6952  0.1840 -0.5941
57436SOL     OW78144   4.932   1.274  11.777  0.2149 -0.7144 -0.3364
57436SOL    HW178145   4.880   1.355  11.774 -0.9466 -1.4145  0.0844
57436SOL    HW278146   5.023   1.303  11.770 -0.1503  0.6628  0.3034
57437SOL     OW78147   6.967   3.936   9.897 -0.4501 -0.1869 -0.0989
57437SOL    HW178148   7.056   3.932   9.933 -0.1302 -0.4755 -0.8861
57437SOL    HW278149   6.923   4.003   9.948 -0.4918 -1.5978  1.8411
57438SOL     OW78150   8.471   6.864   2.584 -0.1458 -0.5903  0.1605
57438SOL    HW178151   8.501   6.807   2.513  0.5627  2.3977 -2.1439
57438SOL    HW278152   8.551   6.885   2.632 -0.3024 -0.9883  0.6028
57439SOL     OW78153   5.800   0.667   3.250 -0.0178  0.9283 -0.0714
57439SOL    HW178154   5.731   0.675   3.315 -1.5684  1.2456 -1.6764
57439SOL    HW278155   5.842   0.583   3.269 -0.8694  0.7096  0.9049
57440SOL     OW78156   2.638   3.445   3.113 -0.4682 -0.3519  0.5925
57440SOL    HW178157   2.601   3.533   3.110 -0.6300 -0.4121  0.7717
57440SOL    HW278158   2.561   3.388   3.121 -0.5434 -0.6462 -1.5595
57441SOL     OW78159   5.100  11.151   2.459  0.1327 -0.3427  0.1709
57441SOL    HW178160   5.128  11.238   2.489 -0.9460 -0.2697  1.0309
57441SOL    HW278161   5.051  11.115   2.533  0.3904 -1.6163 -0.2463
57442SOL     OW78162   0.267   1.526   3.705  0.1387  0.4234 -0.2894
57442SOL    HW178163   0.362   1.541   3.700  0.1737  0.9910  1.3933
57442SOL    HW278164   0.228   1.609   3.678  0.1966  1.0841  1.5441
57443SOL     OW78165   2.588   0.425   6.377 -0.2944  0.1320 -0.4124
57443SOL    HW178166   2.577   0.332   6.356  0.8360  0.4155 -2.5646
57443SOL    HW278167   2.633   0.461   6.300  0.2399  2.2480  0.8339
57444SOL     OW78168   7.194   5.689   9.276  0.4430  0.2172  0.1391
57444SOL    HW178169   7.213   5.632   9.350  0.7502 -0.9887 -0.8259
57444SOL    HW278170   7.227   5.775   9.303 -0.0288 -0.0445  1.6254
57445SOL     OW78171  11.787  10.818   0.294 -0.4096 -0.5661 -0.0882
57445SOL    HW178172  11.738  10.895   0.265  1.3650  0.6896  0.0711
57445SOL    HW278173  11.743  10.789   0.374 -1.9617 -0.6287 -0.9289
57446SOL     OW78174  11.540   7.475   3.823 -0.1669 -0.1575 -0.0450
57446SOL    HW178175  11.569   7.393   3.864  0.7980  0.0832 -0.2293
57446SOL    HW278176  11.588   7.543   3.869  0.1493  0.1943 -0.8863
57447SOL     OW78177   4.954   6.819   6.201  0.1119 -0.0885 -0.0315
57447SOL    HW178178   4.937   6.860   6.286  0.0348  5.4588 -2.2780
57447SOL    HW278179   4.868   6.816   6.159  0.3326 -1.5487 -0.4269
57448SOL     OW78180   9.804   8.790   0.712  0.1054 -0.0603 -0.3596
57448SOL    HW178181   9.812   8.874   0.668  1.0956 -0.2698 -0.6150
57448SOL    HW278182   9.710   8.776   0.721 -0.0718  0.9857 -0.4674
57449SOL     OW78183  10.446   2.563   9.719  0.0136  0.2971  0.1536
57449SOL    HW178184  10.439   2.473   9.687  0.5360 -0.3494  1.7395
57449SOL    HW278185  10.396   2.563   9.801 -1.4872  1.9412 -0.6879
57450SOL     OW78186   1.938   8.296   6.150 -0.2111 -0.4903 -0.4976
57450SOL    HW178187   1.972   8.208   6.166 -1.1246 -0.6267  0.8737
57450SOL    HW278188   1.924   8.332   6.238 -0.1764  0.8981 -1.0370
57451SOL     OW78189   7.261   4.961   7.962 -0.0065 -0.0685  0.6694
57451SOL    HW178190   7.275   5.039   7.907 -1.3488 -0.8177 -0.8300
57451SOL    HW278191   7.168   4.965   7.986 -0.2437 -1.4935  0.0840
57452SOL     OW78192   2.018   4.276   7.492 -0.6628  1.0604  0.2489
57452SOL    HW178193   2.104   4.319   7.496 -1.2802  2.3008  0.5324
57452SOL    HW278194   2.002   4.262   7.398  0.6737 -0.9699  0.2440
57453SOL     OW78195   8.935  10.624   9.864 -0.2087  0.6059  0.0885
57453SOL    HW178196   8.854  10.643   9.818  0.2952  2.2774 -0.1821
57453SOL    HW278197   8.923  10.661   9.951 -0.3038 -0.5219  0.5665
57454SOL     OW78198   9.624   6.439   5.997  0.0899  0.5418  0.1531
57454SOL    HW178199   9.679   6.516   5.983  1.2405 -0.0730  1.1495
57454SOL    HW278200   9.685   6.366   6.007 -0.9680 -0.5204 -0.7122
57455SOL     OW78201   5.495   9.963   2.312  0.2051  0.1410 -0.1119
57455SOL    HW178202   5.526   9.876   2.337  3.3018  0.9635 -0.7302
57455SOL    HW278203   5.487  10.010   2.395 -1.1833 -0.5878  0.1986
57456SOL     OW78204   9.776   1.837   5.706  0.3817 -0.3151 -0.0843
57456SOL    HW178205   9.862   1.874   5.730  0.7408  0.0701 -1.8174
57456SOL    HW278206   9.765   1.861   5.614 -2.0629  0.5042  0.3638
57457SOL     OW78207   9.787   2.114  11.301 -0.1144  0.4072  0.4917
57457SOL    HW178208   9.875   2.152  11.309  0.1907 -0.6414  3.0154
57457SOL    HW278209   9.758   2.101  11.391 -2.0495 -1.1575 -0.2881
57458SOL     OW78210   6.342   4.545   1.430 -0.4819  0.8919  0.0672
57458SOL    HW178211   6.291   4.498   1.364  0.3582 -0.1477  0.1536
57458SOL    HW278212   6.364   4.628   1.388 -1.7953  1.1600 -0.1558
57459SOL     OW78213   3.876   7.887   6.772 -0.0562  0.3548  0.0762
57459SOL    HW178214   3.811   7.953   6.749 -1.7104 -1.6552 -1.3906
57459SOL    HW278215   3.935   7.885   6.696  1.2761  1.5428  1.0221
57460SOL     OW78216   4.448   5.075   3.674 -0.4002 -0.3736  0.4615
57460SOL    HW178217   4.418   5.024   3.749 -0.1211 -1.5283 -0.1908
57460SOL    HW278218   4.413   5.028   3.598 -0.0522  0.3597 -0.1665
57461SOL     OW78219  10.802   8.524   4.776 -0.7003  0.5173  0.4790
57461SOL    HW178220  10.767   8.587   4.839  1.8675  2.2162  0.3514
57461SOL    HW278221  10.883   8.564   4.745  1.1407 -2.9153  0.4356
57462SOL     OW78222   3.260   5.767  11.015  0.1705 -0.4051  0.4259
57462SOL    HW178223   3.227   5.677  11.011 -1.6871  0.2190  0.8811
57462SOL    HW278224   3.310   5.770  11.096 -0.8670 -0.6944  1.0935
57463SOL     OW78225   2.585   8.774   1.997 -0.2224  0.3932 -0.2474
57463SOL    HW178226   2.585   8.866   1.970  1.1481  0.4559 -0.0904
57463SOL    HW278227   2.665   8.737   1.959  0.0897 -0.3147  1.0253
57464SOL     OW78228   4.478   6.366  12.070 -0.0465 -0.4946  0.4319
57464SOL    HW178229   4.491   6.281  12.026 -0.4091 -0.0064 -0.6576
57464SOL    HW278230   4.522   6.355  12.155 -0.6959 -2.0039  0.6156
57465SOL     OW78231   6.099   6.446   0.441  0.1941 -0.5265  0.1118
57465SOL    HW178232   6.191   6.457   0.465 -0.4714  1.1186  2.1546
57465SOL    HW278233   6.093   6.481   0.352  1.0403  2.2211  1.0448
57466SOL     OW78234   8.072   6.014  12.262  0.3535  0.5717  0.2987
57466SOL    HW178235   8.051   6.065  12.341 -1.5514  2.6556 -1.4307
57466SOL    HW278236   8.108   6.078  12.201 -0.0688 -0.5795 -1.2089
57467SOL     OW78237   7.904   1.495   2.447 -0.3035  0.0089 -0.3752
57467SOL    HW178238   7.948   1.550   2.384  2.1429  0.0143  1.2205
57467SOL    HW278239   7.904   1.408   2.407 -1.1524  0.4672 -1.4396
57468SOL     OW78240   7.314   9.368   6.356 -0.8210 -0.5193 -0.2988
57468SOL    HW178241   7.384   9.307   6.379  0.2281  0.4760 -0.7702
57468SOL    HW278242   7.275   9.329   6.277 -1.0594 -1.2596  0.1668
57469SOL     OW78243   9.669   1.267   4.083 -0.1652  0.4548 -0.3072
57469SOL    HW178244   9.761   1.253   4.108  0.2638  1.2800 -1.3742
57469SOL    HW278245   9.667   1.356   4.048 -1.6668  0.9555  0.9560
57470SOL     OW78246  10.387   2.282  12.137 -0.1868  0.0945  0.2130
57470SOL    HW178247  10.401   2.350  12.203  0.6622  1.2106 -1.0660
57470SOL    HW278248  10.427   2.204  12.175  2.7931  1.3555 -0.0326
57471SOL     OW78249   6.128  10.169  10.690  0.2701 -0.2266 -0.0305
57471SOL    HW178250   6.100  10.218  10.613  0.1747  0.1303  0.2322
57471SOL    HW278251   6.047  10.141  10.732  0.2297  1.7107  1.3154
57472SOL     OW78252   3.414   5.273   4.637 -0.2973 -0.1566  0.1266
57472SOL    HW178253   3.445   5.227   4.715 -0.8891 -0.3518  0.2541
57472SOL    HW278254   3.457   5.358   4.640  0.0219 -0.3250  0.4299
57473SOL     OW78255   6.080   8.918   6.105  0.9897 -0.0960 -0.1823
57473SOL    HW178256   6.111   8.834   6.074  2.4694 -0.7016  2.6019
57473SOL    HW278257   6.158   8.974   6.107  1.0757 -0.1743  2.4185
57474SOL     OW78258   3.377   3.242   5.215 -0.2576  0.0265 -0.2104
57474SOL    HW178259   3.327   3.193   5.150  0.4038 -0.2085 -0.5527
57474SOL    HW278260   3.469   3.230   5.189 -0.0673  1.4068 -0.3001
57475SOL     OW78261   6.779   9.315   5.372  0.1050  0.1864  0.5722
57475SOL    HW178262   6.808   9.309   5.463  0.4546  1.7495  0.5868
57475SOL    HW278263   6.683   9.317   5.378  0.0846 -0.9184  0.8070
57476SOL     OW78264   2.554  10.968   6.714  0.0178 -0.3982 -0.0780
57476SOL    HW178265   2.529  10.889   6.666  0.2158  0.8023 -2.2833
57476SOL    HW278266   2.480  10.984   6.773  0.7115 -3.1222  1.7080
57477SOL     OW78267  10.749  11.229  11.586  0.0719  0.4930 -0.1308
57477SOL    HW178268  10.742  11.317  11.624  0.9034  0.7628 -0.5740
57477SOL    HW278269  10.661  11.209  11.555  0.0384  1.5079 -0.7486
57478SOL     OW78270   0.193   5.524   7.944  0.4309 -0.1455 -0.2300
57478SOL    HW178271   0.193   5.450   8.004  1.7500 -0.6116 -0.7524
57478SOL    HW278272   0.243   5.592   7.989  0.3375 -0.0383 -0.2866
57479SOL     OW78273   6.604   1.398  10.407  0.2094  0.2478  0.3249
57479SOL    HW178274   6.571   1.375  10.495  1.5196  0.2772  0.8419
57479SOL    HW278275   6.678   1.339  10.393 -0.7739 -0.6619 -1.3432
57480SOL     OW78276   7.333   4.174   8.181  0.5189 -0.4110  0.4053
57480SOL    HW178277   7.315   4.112   8.111  2.0852 -1.3903  0.8339
57480SOL    HW278278   7.307   4.129   8.261  2.6602 -1.0140  0.8250
57481SOL     OW78279   2.380   5.281   8.103 -0.1929 -0.3112 -0.5548
57481SOL    HW178280   2.416   5.196   8.078  0.0871 -0.5784  0.7134
57481SOL    HW278281   2.386   5.333   8.023 -1.5401 -1.8411 -1.7281
57482SOL     OW78282  12.187  11.639   9.565 -0.6604  0.5421  0.1706
57482SOL    HW178283  12.259  11.648   9.503 -0.2470 -1.4157  0.2756
57482SOL    HW278284  12.137  11.564   9.532 -0.9940  0.0788  1.6269
57483SOL     OW78285   8.331   8.594   0.653  0.1456 -0.4484  0.4008
57483SOL    HW178286   8.289   8.572   0.570  0.3074 -0.2878  0.2764
57483SOL    HW278287   8.347   8.509   0.695 -1.8097 -0.4945  1.2110
57484SOL     OW78288   1.953   1.877   9.208  0.2569  0.0437  0.3924
57484SOL    HW178289   1.965   1.904   9.117  0.2763  1.8478  0.8863
57484SOL    HW278290   1.874   1.822   9.206  0.1990  0.1393 -0.6905
57485SOL     OW78291   9.022   9.768   4.013  0.3097  0.2698  0.5143
57485SOL    HW178292   9.068   9.700   3.964  1.2593 -0.0156  1.7546
57485SOL    HW278293   8.939   9.727   4.037  0.1229  0.1798 -0.2412
57486SOL     OW78294   5.774  10.052   7.904  0.1368 -0.3649 -0.5549
57486SOL    HW178295   5.775  10.137   7.860 -0.5458 -0.6901 -1.2241
57486SOL    HW278296   5.687  10.017   7.885 -0.8829  0.2192  2.5158
57487SOL     OW78297   6.286   2.700  11.796  0.0840 -0.3817 -0.0095
57487SOL    HW178298   6.304   2.783  11.753  2.1977 -1.7584 -2.0069
57487SOL    HW278299   6.261   2.641  11.726 -0.8257 -1.6026  1.2835
57488SOL     OW78300   4.133   6.345   1.448 -0.4401 -0.2603  0.1546
57488SOL    HW178301   4.155   6.436   1.471 -0.2218  0.1973 -1.7400
57488SOL    HW278302   4.217   6.299   1.448  0.0831  0.5141 -2.8676
57489SOL     OW78303   4.711   2.094   9.714  0.0717  0.0568  0.2107
57489SOL    HW178304   4.758   2.046   9.782  0.8223  0.1358 -0.2410
57489SOL    HW278305   4.666   2.026   9.663  1.5516 -0.2498 -0.7478
57490SOL     OW78306   4.564   2.828   7.714  0.1930  0.1680 -0.5691
57490SOL    HW178307   4.494   2.768   7.689  1.3686 -1.7145  0.4890
57490SOL    HW278308   4.644   2.776   7.707  1.1474  1.2951  1.3894
57491SOL     OW78309   7.124  12.259  12.066 -0.3084  0.6405  0.4893
57491SOL    HW178310   7.052  12.198  12.084 -0.5514  1.3823  2.1955
57491SOL    HW278311   7.190  12.205  12.023 -2.0806  0.0762 -1.6858
57492SOL     OW78312   6.455   7.443   6.687  0.0965  0.6587 -0.2080
57492SOL    HW178313   6.383   7.382   6.671 -0.8850  1.3722  1.2343
57492SOL    HW278314   6.412   7.526   6.708  1.3274  1.1372  0.5525
57493SOL     OW78315  10.624   0.438   1.794 -0.7180  0.0257 -0.2707
57493SOL    HW178316  10.686   0.398   1.855 -1.6135 -0.8281  0.1036
57493SOL    HW278317  10.542   0.392   1.810 -1.3248  0.7852 -1.1211
57494SOL     OW78318   7.126  10.474   6.067 -0.1295 -0.2344  0.0448
57494SOL    HW178319   7.221  10.489   6.067 -0.3709  1.5169 -0.6003
57494SOL    HW278320   7.116  10.385   6.034  1.2061  0.3553 -2.1999
57495SOL     OW78321   9.031   3.773  10.066 -0.7748 -0.2890  0.3296
57495SOL    HW178322   8.965   3.743  10.003 -2.3579  0.2950  1.6370
57495SOL    HW278323   9.052   3.862  10.039  2.3402 -1.6020 -2.2762
57496SOL     OW78324   9.090   9.046   0.532  0.3891  0.2970  0.0762
57496SOL    HW178325   9.138   9.096   0.466  0.0172 -1.1208 -1.3368
57496SOL    HW278326   9.114   8.954   0.515 -1.4329 -0.2881  0.4676
57497SOL     OW78327   1.423   9.719   1.777 -0.0762 -0.0206 -0.5929
57497SOL    HW178328   1.420   9.764   1.692 -0.2395  0.7007 -0.2111
57497SOL    HW278329   1.390   9.783   1.840 -1.9646 -1.2529 -0.2650
57498SOL     OW78330   9.765   8.031   1.426 -0.5928  0.1429  0.4668
57498SOL    HW178331   9.716   8.081   1.362  0.2866 -0.9809 -1.1452
57498SOL    HW278332   9.857   8.048   1.406 -0.2038 -2.9080 -0.9301
57499SOL     OW78333   0.195   6.875  11.029 -0.3303 -0.1768  0.4831
57499SOL    HW178334   0.144   6.816  10.972  0.0882 -0.6820  0.6263
57499SOL    HW278335   0.285   6.867  10.997  0.0604 -1.1178  1.7340
57500SOL     OW78336   0.013   3.248   2.548 -0.5488 -0.0597  0.3532
57500SOL    HW178337  -0.033   3.237   2.631 -1.5093  0.7236 -0.0568
57500SOL    HW278338   0.009   3.342   2.531 -1.4472 -0.3490 -1.1731
57501SOL     OW78339  12.233  11.431   6.186  0.1083  0.0977 -0.1358
57501SOL    HW178340  12.230  11.458   6.278 -2.2004 -0.2255 -0.0641
57501SOL    HW278341  12.321  11.395   6.175  0.6860  0.7973  1.7379
57502SOL     OW78342  10.936   1.341   7.592 -0.2000 -0.0571 -0.0124
57502SOL    HW178343  10.923   1.251   7.563 -2.1724  0.5587 -1.2039
57502SOL    HW278344  11.000   1.334   7.663 -1.6711 -2.6059  1.1997
57503SOL     OW78345   5.468   8.234  11.120 -0.0455 -0.0131  0.4856
57503SOL    HW178346   5.501   8.321  11.142 -1.0319  0.5238 -0.0897
57503SOL    HW278347   5.513   8.175  11.180  0.4018  0.9322  1.0949
57504SOL     OW78348   8.458   3.420   7.533 -0.1700 -0.2149  0.1433
57504SOL    HW178349   8.441   3.407   7.439 -2.6139 -0.9107  0.6156
57504SOL    HW278350   8.447   3.514   7.547  1.2164  0.0607 -0.3925
57505SOL     OW78351   7.770   3.127   0.149  0.2558 -0.1184  0.4759
57505SOL    HW178352   7.861   3.131   0.177  1.3166  1.5690 -2.6575
57505SOL    HW278353   7.734   3.213   0.170  0.1281  0.0378 -0.3270
57506SOL     OW78354   1.938   9.516   1.417 -0.5368  0.0304 -0.2375
57506SOL    HW178355   2.022   9.507   1.462  0.1553  2.8073 -0.7690
57506SOL    HW278356   1.960   9.513   1.324 -1.1220  0.0665 -0.3797
57507SOL     OW78357   3.404   5.544   5.952 -0.0298 -0.0143  0.0456
57507SOL    HW178358   3.457   5.534   5.874  1.7160  0.9898  1.0330
57507SOL    HW278359   3.349   5.620   5.934  0.9645  0.7315  0.0827
57508SOL     OW78360   2.492   5.744   3.341  0.3897  0.2216  0.9226
57508SOL    HW178361   2.550   5.748   3.266  1.6554 -0.9719  1.7759
57508SOL    HW278362   2.474   5.835   3.363  3.8349  0.7975  2.0008
57509SOL     OW78363   6.690   0.348   8.522 -0.0576  0.0914 -0.0040
57509SOL    HW178364   6.749   0.407   8.475 -0.6193  1.0807  0.5172
57509SOL    HW278365   6.749   0.294   8.576  0.3459  2.0630  1.6626
57510SOL     OW78366  10.725  10.137   8.161  0.4556 -0.4958  0.0019
57510SOL    HW178367  10.746  10.214   8.107  0.6367 -0.6598 -0.1653
57510SOL    HW278368  10.638  10.155   8.197 -0.3872 -1.0609 -1.6194
57511SOL     OW78369   8.101   2.209   2.508 -0.1591  0.4293  0.4329
57511SOL    HW178370   8.034   2.272   2.532 -0.0131  0.1145  1.7662
57511SOL    HW278371   8.057   2.124   2.515  0.2503  0.2491  0.9210
57512SOL     OW78372   9.441   1.738  12.155 -0.1545 -0.1590  0.8949
57512SOL    HW178373   9.367   1.743  12.094 -0.2327  0.3534  1.0297
57512SOL    HW278374   9.516   1.769  12.104  0.3042 -2.1682  0.2542
57513SOL     OW78375   2.309   0.912   5.140  0.0369 -0.7050 -0.3043
57513SOL    HW178376   2.279   0.828   5.107 -0.6623 -0.7636  0.4724
57513SOL    HW278377   2.389   0.930   5.089 -0.7215 -1.0326 -1.6511
57514SOL     OW78378  11.579   4.345   6.494 -0.0493  0.6462 -0.1401
57514SOL    HW178379  11.609   4.264   6.454  3.1378  0.3942  2.3552
57514SOL    HW278380  11.635   4.413   6.456  0.7823  0.8618  1.3753
57515SOL     OW78381   4.580  10.599   6.057 -0.6238  0.1924  0.3133
57515SOL    HW178382   4.557  10.674   6.001 -3.2545 -1.1792 -0.6440
57515SOL    HW278383   4.674  10.587   6.044 -0.6745  1.5219 -1.8423
57516SOL     OW78384   2.698  10.151   5.172 -0.4209  0.4237  0.0032
57516SOL    HW178385   2.676  10.233   5.130  0.2408  0.9915  0.7334
57516SOL    HW278386   2.694  10.170   5.266 -3.3423 -1.1796  0.3080
57517SOL     OW78387   0.870   8.103  12.261 -0.4417  0.2888 -0.0476
57517SOL    HW178388   0.948   8.159  12.255  0.8130 -1.3767 -0.1447
57517SOL    HW278389   0.810   8.137  12.195  0.2492  1.5303 -0.0651
57518SOL     OW78390   8.076   8.383   6.788  0.1681 -0.2561  0.0082
57518SOL    HW178391   8.168   8.375   6.811 -0.1941 -1.6142  1.0891
57518SOL    HW278392   8.031   8.399   6.871 -0.5214  1.1640 -0.5912
57519SOL     OW78393   1.684  11.675   2.354 -0.2400  0.3001 -0.0911
57519SOL    HW178394   1.710  11.636   2.271 -0.0880 -0.8848  0.4968
57519SOL    HW278395   1.762  11.724   2.383 -0.3584  0.8794 -0.7158
57520SOL     OW78396   9.093   2.841   0.843 -0.0884 -0.1006 -0.3297
57520SOL    HW178397   9.187   2.829   0.829 -0.3701 -0.7403 -1.8350
57520SOL    HW278398   9.085   2.856   0.938  1.3728 -1.5873  0.0781
57521SOL     OW78399   3.552   6.944   1.320 -0.0805 -0.4415 -0.5886
57521SOL    HW178400   3.634   6.981   1.353  0.1154 -0.9894 -0.4613
57521SOL    HW278401   3.489   7.015   1.329 -0.0271 -0.5612  0.9086
57522SOL     OW78402   6.903  10.591  11.277 -0.1002 -0.2075  0.4171
57522SOL    HW178403   6.984  10.638  11.298 -1.9658  1.8185  4.1776
57522SOL    HW278404   6.895  10.526  11.347 -2.0474  0.1931  0.6128
57523SOL     OW78405   6.478   9.193   0.561 -0.5276 -1.0595  0.3306
57523SOL    HW178406   6.484   9.127   0.630 -4.1343 -0.5589  1.2953
57523SOL    HW278407   6.385   9.195   0.537 -0.3559  2.7321 -0.6277
57524SOL     OW78408   5.241   5.681  10.743  0.2269 -0.1634  0.1598
57524SOL    HW178409   5.262   5.758  10.796 -3.0212  0.5851  0.5928
57524SOL    HW278410   5.223   5.613  10.808  2.0313 -1.0546 -0.2082
57525SOL     OW78411  12.221  12.029   3.917 -0.4042  0.6662  0.0529
57525SOL    HW178412  12.254  12.088   3.849 -0.3668  2.3257  1.4389
57525SOL    HW278413  12.126  12.028   3.903 -0.4255  1.2099  0.1230
57526SOL     OW78414   7.760  11.393  11.770 -0.5057  0.5303  0.3305
57526SOL    HW178415   7.755  11.403  11.675  0.5910  0.9903  0.3176
57526SOL    HW278416   7.812  11.314  11.784  0.6617  1.3264  0.5594
57527SOL     OW78417   3.109   8.943   0.123 -0.8155 -0.3064 -0.0169
57527SOL    HW178418   3.043   8.972   0.061 -1.0754  0.2203  0.4956
57527SOL    HW278419   3.167   8.886   0.072 -0.9458  0.2216 -0.7730
57528SOL     OW78420   3.700   7.639  11.268 -0.1574  0.0083 -0.0063
57528SOL    HW178421   3.754   7.565  11.242  1.8673  0.2931  2.8539
57528SOL    HW278422   3.687   7.689  11.188  4.8171  0.4521 -0.8569
57529SOL     OW78423  12.189   0.219   4.929 -0.0785 -0.5359  0.2223
57529SOL    HW178424  12.248   0.185   4.861 -1.6296 -2.1438 -0.3708
57529SOL    HW278425  12.174   0.310   4.903 -0.7925 -1.1690 -1.7516
57530SOL     OW78426   2.608   6.375   7.069 -0.5442 -0.8214  0.0477
57530SOL    HW178427   2.590   6.413   7.155  1.3955  0.4712 -0.0508
57530SOL    HW278428   2.587   6.445   7.007 -0.8408 -1.3495 -0.4572
57531SOL     OW78429   0.202   9.516   7.435  0.6127 -0.1642  0.5047
57531SOL    HW178430   0.122   9.483   7.395 -0.6646  3.2164 -0.0099
57531SOL    HW278431   0.187   9.508   7.529  0.6288 -1.5637  0.4025
57532SOL     OW78432   4.948  11.459   4.810  0.7584  0.3855  0.8268
57532SOL    HW178433   4.886  11.434   4.879  0.5335 -1.4281  0.0102
57532SOL    HW278434   5.034  11.447   4.850  0.6178  0.7941  1.2624
57533SOL     OW78435   7.850   3.622   1.495  0.2831  0.7313  0.0055
57533SOL    HW178436   7.850   3.716   1.516 -0.4478  0.7113  0.1341
57533SOL    HW278437   7.887   3.580   1.573 -0.5529  0.8215  0.4632
57534SOL     OW78438   9.548   4.832   2.393 -0.1782  1.0717 -0.0488
57534SOL    HW178439   9.544   4.760   2.456 -0.5419  1.5297  0.4566
57534SOL    HW278440   9.465   4.827   2.346  0.3877  0.2924 -0.9884
57535SOL     OW78441   8.611   7.509   2.659  0.1509 -0.1021  0.2092
57535SOL    HW178442   8.648   7.493   2.746 -1.5795 -0.2827  0.9654
57535SOL    HW278443   8.523   7.472   2.664 -0.3617  0.8345 -1.2911
57536SOL     OW78444   1.058   4.549  11.037  0.2982  0.3292 -0.3197
57536SOL    HW178445   0.975   4.533  11.082  0.3253  1.0804  0.0108
57536SOL    HW278446   1.109   4.600  11.099  1.0410 -0.1876 -0.4969
57537SOL     OW78447  10.440   2.412   5.606  0.6936  0.7443  0.5678
57537SOL    HW178448  10.347   2.429   5.617  0.3378 -1.1371  0.8185
57537SOL    HW278449  10.455   2.328   5.650  2.2871  0.4789 -0.3872
57538SOL     OW78450  10.370   0.905   5.598  0.0116  0.7032  0.1474
57538SOL    HW178451  10.362   0.912   5.693 -0.3265  1.1225  0.0894
57538SOL    HW278452  10.306   0.839   5.572 -1.9315  2.5596 -0.0852
57539SOL     OW78453   2.233   7.449  11.202 -0.9445  0.6167  0.4995
57539SOL    HW178454   2.301   7.495  11.251 -0.8297  0.4482  0.4980
57539SOL    HW278455   2.156   7.505  11.210 -1.2051  0.1342  1.6896
57540SOL     OW78456   7.606   3.095   1.178  0.7769  0.0140 -0.1861
57540SOL    HW178457   7.620   3.122   1.269 -0.0858  0.0016 -0.0394
57540SOL    HW278458   7.686   3.048   1.155  0.4731 -1.1880  1.0339
57541SOL     OW78459   3.384   7.149   9.549  0.2259  0.3563  0.4927
57541SOL    HW178460   3.422   7.101   9.475  0.8491 -1.1974  1.7736
57541SOL    HW278461   3.349   7.081   9.607  2.1165  1.3018  2.9186
57542SOL     OW78462   3.643  11.231   4.329 -0.1269  0.0230 -0.4270
57542SOL    HW178463   3.575  11.185   4.280 -0.5668 -0.7106  0.8075
57542SOL    HW278464   3.629  11.323   4.308 -0.0516 -0.2948 -1.9438
57543SOL     OW78465   9.243   5.339   3.340 -0.0326  0.6389 -0.9786
57543SOL    HW178466   9.152   5.344   3.370 -0.2588 -0.5228 -1.4184
57543SOL    HW278467   9.244   5.268   3.277  1.1387  0.8195 -1.1981
57544SOL     OW78468   1.928   2.778   3.029 -0.2347 -0.1202 -0.0929
57544SOL    HW178469   1.867   2.851   3.021 -0.6185 -0.6218 -2.2217
57544SOL    HW278470   1.925   2.756   3.122 -1.6977  1.2158  0.2338
57545SOL     OW78471   2.997  11.934  12.213 -0.1571 -0.4244 -0.0494
57545SOL    HW178472   3.088  11.932  12.181 -0.5271 -0.4595 -1.1257
57545SOL    HW278473   2.995  11.868  12.283  0.9037  0.3164  0.7290
57546SOL     OW78474  12.299   1.330  10.043  0.3655 -0.1802 -0.0335
57546SOL    HW178475  12.359   1.272  10.089  0.7221 -0.0280 -0.2997
57546SOL    HW278476  12.232   1.272  10.007  0.8427 -0.4519 -0.4899
57547SOL     OW78477   9.975   8.772   0.904  0.8921 -0.0840 -0.5007
57547SOL    HW178478  10.050   8.806   0.856  0.3373 -0.1043 -1.4181
57547SOL    HW278479   9.902   8.779   0.842  0.4846 -1.6740 -0.2498
57548SOL     OW78480   3.595   0.745   2.892  0.4202 -0.1635 -0.4777
57548SOL    HW178481   3.613   0.791   2.973 -0.5979 -0.9561  0.2138
57548SOL    HW278482   3.662   0.777   2.831  1.1590  0.4812  0.6424
57549SOL     OW78483   2.402  11.135   0.936 -0.6200 -0.1310 -0.0715
57549SOL    HW178484   2.365  11.217   0.967 -0.9453 -0.2443 -0.1582
57549SOL    HW278485   2.438  11.155   0.850 -2.2644 -0.4900 -0.8700
57550SOL     OW78486   6.088   6.574   3.736 -0.1139 -0.5199  0.3295
57550SOL    HW178487   6.152   6.574   3.807  0.0834  1.5988  0.2297
57550SOL    HW278488   6.003   6.570   3.779  0.0470 -1.7828  0.5428
57551SOL     OW78489   1.837   7.535   3.659 -0.5787  0.5612 -0.3322
57551SOL    HW178490   1.834   7.475   3.584  0.0823 -0.5579  0.5042
57551SOL    HW278491   1.754   7.521   3.704 -0.5703  0.5171 -0.3299
57552SOL     OW78492   2.446   0.573   2.741  0.1004  0.2975 -0.0113
57552SOL    HW178493   2.425   0.535   2.655 -0.7590  1.1924 -0.2236
57552SOL    HW278494   2.415   0.508   2.804 -1.2164  0.5513 -0.3632
57553SOL     OW78495  11.848   1.705   2.849  0.2023  0.2612  0.3032
57553SOL    HW178496  11.791   1.673   2.779 -2.0829  0.8600  1.7415
57553SOL    HW278497  11.806   1.786   2.878  3.7454  2.7339 -0.7909
57554SOL     OW78498   5.337  10.201   4.726  0.0558 -0.2239  0.2395
57554SOL    HW178499   5.369  10.270   4.667  2.0090  0.2991  1.7866
57554SOL    HW278500   5.245  10.221   4.739 -0.4690 -0.3898 -2.6027
57555SOL     OW78501   8.472   0.407   4.786  0.3396  0.5032  0.1772
57555SOL    HW178502   8.510   0.349   4.719 -0.5209  1.0690 -0.8376
57555SOL    HW278503   8.479   0.495   4.748 -0.4722  0.7937  0.6772
57556SOL     OW78504   7.905   1.346   0.740  0.3646  0.3110 -0.2880
57556SOL    HW178505   7.814   1.315   0.738  0.9685 -1.5820 -0.3096
57556SOL    HW278506   7.897   1.441   0.744 -1.6185  0.2016 -0.3320
57557SOL     OW78507   1.123   9.524   6.174 -1.0148 -0.3977 -0.0704
57557SOL    HW178508   1.132   9.620   6.171 -1.2893 -0.3500  0.5458
57557SOL    HW278509   1.049   9.505   6.117  1.0844 -0.5642 -3.0150
57558SOL     OW78510  11.595   5.105  12.293  0.3633  0.0864 -0.3431
57558SOL    HW178511  11.554   5.060  12.367 -0.2524 -0.6350 -1.0922
57558SOL    HW278512  11.647   5.037  12.250  2.5377  1.0300  0.6908
57559SOL     OW78513  11.433   6.008   3.959 -0.2507 -0.3908 -0.2596
57559SOL    HW178514  11.434   5.920   3.996  0.1161 -0.2498  0.0727
57559SOL    HW278515  11.373   6.057   4.015  0.7150 -0.0397  0.4822
57560SOL     OW78516   1.366   2.317   9.680  0.5518 -0.2759  0.1554
57560SOL    HW178517   1.385   2.366   9.601  1.0988 -1.6710 -0.6206
57560SOL    HW278518   1.416   2.236   9.671  1.0203 -0.2817  2.1566
57561SOL     OW78519   1.276  10.896  11.894  0.5571  0.4834 -0.3570
57561SOL    HW178520   1.333  10.883  11.818 -0.3503  0.7477 -1.0963
57561SOL    HW278521   1.259  10.990  11.896  1.4267  0.6551  0.8283
57562SOL     OW78522   4.282  11.788   5.860  0.2538 -0.5265 -0.3373
57562SOL    HW178523   4.219  11.728   5.820 -0.8832  0.2793  0.1906
57562SOL    HW278524   4.297  11.752   5.948 -0.1111 -0.2592 -0.1664
57563SOL     OW78525   8.675  10.466   5.952 -0.4582 -0.3544  0.3806
57563SOL    HW178526   8.661  10.464   5.857  0.5631  0.2543  0.1958
57563SOL    HW278527   8.650  10.554   5.978  2.7356  0.8254  0.0148
57564SOL     OW78528   0.216   5.140  11.757 -0.1061 -0.0845  0.0864
57564SOL    HW178529   0.300   5.095  11.764  0.0787  0.0242 -1.1715
57564SOL    HW278530   0.184   5.144  11.846  0.9189 -0.7178  0.5071
57565SOL     OW78531   3.065   3.853  10.898 -0.5142 -0.7288  0.2675
57565SOL    HW178532   2.984   3.894  10.928  0.1735  1.2959 -0.4581
57565SOL    HW278533   3.088   3.900  10.818  0.3663 -2.5824 -0.6436
57566SOL     OW78534  12.154  11.853   2.132  1.0798  0.5673 -0.3845
57566SOL    HW178535  12.120  11.941   2.117  0.8750  0.1480 -2.7418
57566SOL    HW278536  12.106  11.797   2.071 -0.8387 -1.7792  2.9608
57567SOL     OW78537   4.632   9.799   6.305 -0.0812  0.5314 -0.1603
57567SOL    HW178538   4.612   9.734   6.238  0.0156 -0.7086  0.9694
57567SOL    HW278539   4.603   9.758   6.387  0.6333  1.6237  0.6590
57568SOL     OW78540  12.291   4.391   8.473 -0.6535  0.0722  0.3403
57568SOL    HW178541  12.272   4.410   8.381 -0.8694 -1.6282  0.0181
57568SOL    HW278542  12.357   4.456   8.497  1.7623 -1.3416 -1.9363
57569SOL     OW78543   0.052   3.581   1.398  0.0551 -0.0323 -0.2983
57569SOL    HW178544   0.119   3.619   1.342 -0.8161 -1.4256 -2.3812
57569SOL    HW278545  -0.018   3.647   1.399  1.0221  1.0374  1.1720
57570SOL     OW78546   2.501  11.103  10.590 -0.0001 -0.5403 -0.3179
57570SOL    HW178547   2.444  11.113  10.667 -1.1057 -0.6393 -1.0917
57570SOL    HW278548   2.447  11.056  10.527  1.3732 -1.7066 -0.6744
57571SOL     OW78549  11.670   8.446  10.578  0.1395 -0.5095 -0.4102
57571SOL    HW178550  11.621   8.442  10.661 -1.3748  0.1267 -1.2290
57571SOL    HW278551  11.759   8.468  10.604 -0.6226  1.2029  0.9944
57572SOL     OW78552   4.936   7.888   7.529  0.2830  0.2623  0.2305
57572SOL    HW178553   5.016   7.919   7.570  0.2073  1.3547 -0.4019
57572SOL    HW278554   4.957   7.883   7.436  0.1371 -1.1507  0.2603
57573SOL     OW78555  11.711   1.459   0.638 -0.0096 -0.2471 -0.0031
57573SOL    HW178556  11.649   1.512   0.589  0.3984  1.5334  1.3029
57573SOL    HW278557  11.771   1.522   0.677 -0.0514 -1.5665  2.4050
57574SOL     OW78558   0.627   4.001   9.260  0.0033  0.1975 -0.2302
57574SOL    HW178559   0.531   3.999   9.257  0.0077  0.1667 -0.3585
57574SOL    HW278560   0.651   3.928   9.316 -0.0395  0.0381 -0.4173
57575SOL     OW78561   5.906   3.143   2.177 -0.3855 -0.2514 -0.1619
57575SOL    HW178562   5.921   3.052   2.203  1.2956  0.3232  1.0175
57575SOL    HW278563   5.811   3.149   2.166 -0.4878 -2.2660 -0.8128
57576SOL     OW78564   8.626   1.901  11.208 -0.3021 -0.1832 -0.1376
57576SOL    HW178565   8.562   1.972  11.201 -0.2031 -0.0016  0.7142
57576SOL    HW278566   8.584   1.827  11.165 -0.8775  0.0738 -0.0243
57577SOL     OW78567   7.645   3.789   4.344 -0.0721  0.3331  0.8319
57577SOL    HW178568   7.699   3.713   4.364 -0.4518  0.1783  1.2827
57577SOL    HW278569   7.703   3.864   4.355 -0.4728  0.3569  3.5222
57578SOL     OW78570   7.283  12.300   6.700 -0.0100 -0.5164 -0.0435
57578SOL    HW178571   7.378  12.290   6.704  0.4656  2.2945 -1.8668
57578SOL    HW278572   7.259  12.341   6.783  0.5502 -0.2062 -0.0315
57579SOL     OW78573   5.001   9.730   1.159 -0.1285  0.0250 -0.3253
57579SOL    HW178574   5.053   9.663   1.202 -0.4387  0.5035  0.8211
57579SOL    HW278575   4.951   9.682   1.092 -1.1869 -1.0938  1.1989
57580SOL     OW78576   9.378   3.628   3.934 -0.0033 -0.1171 -0.1385
57580SOL    HW178577   9.465   3.589   3.922 -0.5542 -0.8921 -1.8676
57580SOL    HW278578   9.341   3.633   3.846 -1.1104  1.6954  0.3759
57581SOL     OW78579  10.483   6.678   5.208 -0.0758  0.2239  0.0317
57581SOL    HW178580  10.484   6.677   5.113  0.2903 -0.7751  0.0322
57581SOL    HW278581  10.506   6.588   5.233 -1.4718  0.1149  1.0482
57582SOL     OW78582  10.622  10.784   5.270 -0.0129 -0.4528  0.3065
57582SOL    HW178583  10.619  10.721   5.341  0.2579  0.6729  1.3497
57582SOL    HW278584  10.534  10.821   5.266  0.7018  1.6296  2.1074
57583SOL     OW78585   5.373  11.876   4.160  0.4040 -0.4877  0.5287
57583SOL    HW178586   5.384  11.958   4.207 -2.8727  0.6487 -0.3775
57583SOL    HW278587   5.397  11.897   4.070  0.3591 -0.7472  0.4571
57584SOL     OW78588   9.642   1.439   8.020  0.3936  0.2315  0.4143
57584SOL    HW178589   9.601   1.524   8.002 -2.6724 -1.4941 -1.6632
57584SOL    HW278590   9.679   1.412   7.936 -1.4647 -1.7675  0.1630
57585SOL     OW78591   5.269   9.133  12.117 -0.0112 -0.3193  0.2063
57585SOL    HW178592   5.191   9.140  12.062  0.7157  4.1654 -0.6148
57585SOL    HW278593   5.342   9.128  12.056  0.5724 -0.0203  0.8601
57586SOL     OW78594   0.961   2.488  11.598  0.5085  0.1098 -0.4388
57586SOL    HW178595   0.892   2.462  11.538 -1.3691 -1.5741  2.2435
57586SOL    HW278596   0.948   2.582  11.611 -0.4373  0.0586 -0.9609
57587SOL     OW78597   3.607   9.558  11.305  0.4071  0.1206 -0.5188
57587SOL    HW178598   3.612   9.524  11.395  1.7957  1.8871  0.1608
57587SOL    HW278599   3.539   9.625  11.309  1.3120  1.0590 -0.4279
57588SOL     OW78600   4.135  10.730   2.500  0.1822 -0.1840  0.4440
57588SOL    HW178601   4.221  10.735   2.458  1.1598  1.5301  2.4484
57588SOL    HW278602   4.073  10.753   2.430  1.6420  1.6929 -0.3311
57589SOL     OW78603   1.919   3.607   8.683  0.1120 -0.0907 -0.2667
57589SOL    HW178604   1.877   3.622   8.599 -0.4191  0.5542  0.1091
57589SOL    HW278605   1.980   3.680   8.693 -0.1912  0.1069  0.1380
57590SOL     OW78606   2.130   3.461   8.207  1.0371  0.3391  0.0517
57590SOL    HW178607   2.173   3.543   8.231  0.9332  0.4832 -0.2506
57590SOL    HW278608   2.093   3.429   8.289 -1.2144  1.9374 -0.2481
57591SOL     OW78609   4.166   5.141   6.660 -0.1772  0.3105 -0.5187
57591SOL    HW178610   4.199   5.230   6.671  0.9790  0.2808 -2.9919
57591SOL    HW278611   4.140   5.136   6.568 -1.6089 -1.4757 -0.0724
57592SOL     OW78612   3.691   0.344   8.773  0.2680 -0.4095  0.0300
57592SOL    HW178613   3.760   0.394   8.817 -0.7450  4.1497 -2.8337
57592SOL    HW278614   3.734   0.265   8.743  3.3952  0.7304  1.0518
57593SOL     OW78615   1.569   1.850   4.291 -0.0818  0.3227 -0.0895
57593SOL    HW178616   1.614   1.929   4.323  3.6067 -2.3565  2.1946
57593SOL    HW278617   1.520   1.819   4.367  1.6275 -1.4614  0.3743
57594SOL     OW78618   2.117   1.512   1.552  0.2346  0.0920  0.1671
57594SOL    HW178619   2.030   1.490   1.520 -0.0259  1.5405 -0.2063
57594SOL    HW278620   2.177   1.464   1.494 -0.2908 -0.3015 -0.0608
57595SOL     OW78621   5.290   8.454  10.484  0.1814  0.3492  0.2300
57595SOL    HW178622   5.382   8.478  10.494  0.3661  0.4549 -1.3359
57595SOL    HW278623   5.271   8.471  10.391 -0.3153 -3.2851 -0.4887
57596SOL     OW78624  10.072   1.510   3.543  0.5223  0.3130  0.4800
57596SOL    HW178625  10.110   1.447   3.604  0.4453 -1.8634 -1.5946
57596SOL    HW278626  10.137   1.517   3.473  0.3898  2.3716  0.5036
57597SOL     OW78627   1.799   9.168   5.620 -0.6283  0.4655  0.1838
57597SOL    HW178628   1.783   9.262   5.630  0.1845  0.8086 -1.4198
57597SOL    HW278629   1.854   9.145   5.695  0.4161  1.6176 -0.1927
57598SOL     OW78630   0.436   5.398   8.514 -0.1639  0.3152 -0.2904
57598SOL    HW178631   0.374   5.328   8.534 -0.1558  0.5426  0.6118
57598SOL    HW278632   0.416   5.423   8.424 -1.2417  0.2406 -0.0911
57599SOL     OW78633   2.756   7.269   7.179 -0.2771 -0.4540  0.4416
57599SOL    HW178634   2.696   7.322   7.127 -0.7791  0.1430  1.5943
57599SOL    HW278635   2.770   7.190   7.126 -1.2135 -0.1264 -0.3306
57600SOL     OW78636   6.588  11.117   3.640 -0.3824  0.0377  0.0244
57600SOL    HW178637   6.494  11.106   3.655 -0.4064 -0.5507 -0.5132
57600SOL    HW278638   6.611  11.049   3.577  0.3862  0.2497  0.0571
57601SOL     OW78639  10.549   0.651   9.318  0.0931  0.1022  0.1512
57601SOL    HW178640  10.600   0.727   9.346  0.3491 -0.7203  2.0674
57601SOL    HW278641  10.570   0.641   9.225 -0.3328  2.6274 -0.3134
57602SOL     OW78642   2.808   9.454   3.572 -0.3811 -0.1161  0.0045
57602SOL    HW178643   2.735   9.490   3.622 -0.0605 -0.9570  1.1357
57602SOL    HW278644   2.886   9.479   3.622  0.0329 -0.0251 -0.6794
57603SOL     OW78645   5.647   6.740   7.011 -0.0001 -0.1809 -0.3622
57603SOL    HW178646   5.552   6.739   6.996 -0.2067  0.0720  0.8280
57603SOL    HW278647   5.678   6.658   6.973 -1.1737 -1.7986  1.9057
57604SOL     OW78648   1.567   8.061   1.691 -0.3047  0.1995  0.6283
57604SOL    HW178649   1.531   7.999   1.628  0.6736 -0.9501  1.1333
57604SOL    HW278650   1.608   8.005   1.757  2.4860  1.3533  0.0193
57605SOL     OW78651  10.489   5.249   2.949  0.1134 -0.4732  0.2079
57605SOL    HW178652  10.549   5.319   2.925  1.4405 -0.8418  2.2077
57605SOL    HW278653  10.535   5.169   2.925 -1.0876 -0.7450 -1.3924
57606SOL     OW78654   9.447   6.497   3.829 -0.6698 -0.1600 -0.2755
57606SOL    HW178655   9.358   6.513   3.860 -0.2878 -1.6365  1.7322
57606SOL    HW278656   9.491   6.453   3.901  1.8399  0.8526 -1.0604
57607SOL     OW78657  10.343  11.782   6.627  0.4923 -0.2439  0.9541
57607SOL    HW178658  10.422  11.797   6.575  0.6959 -0.0022  1.3316
57607SOL    HW278659  10.275  11.831   6.581  0.7338  0.2210  1.0811
57608SOL     OW78660  10.712  11.884  11.541 -0.3754  0.7849 -0.2756
57608SOL    HW178661  10.747  11.953  11.484 -0.8713  0.3439 -1.1327
57608SOL    HW278662  10.631  11.856  11.498  0.8669 -1.8046 -1.1212
57609SOL     OW78663   9.559   3.075   0.454  0.2335 -0.0725 -0.0999
57609SOL    HW178664   9.604   3.103   0.374  2.3864 -1.1228  0.6639
57609SOL    HW278665   9.467   3.070   0.429  0.7352  0.4092 -2.2807
57610SOL     OW78666   0.994   5.657   5.162  0.3951  0.2736 -0.7038
57610SOL    HW178667   1.072   5.631   5.211  0.4070 -0.6280 -1.1976
57610SOL    HW278668   1.024   5.666   5.072  0.0962  0.7015 -0.7633
57611SOL     OW78669  12.067   1.974   6.806  0.2965 -0.1861 -0.5464
57611SOL    HW178670  12.007   1.917   6.759  1.6718 -1.8919 -0.3330
57611SOL    HW278671  12.154   1.952   6.771  0.9396  1.3360 -0.0034
57612SOL     OW78672   3.213   4.483   0.153 -0.1329 -0.6378  0.1965
57612SOL    HW178673   3.204   4.420   0.081 -1.2060  0.5691 -0.7729
57612SOL    HW278674   3.124   4.515   0.167  0.6116  1.9585 -0.5403
57613SOL     OW78675   9.327  12.051   0.338  0.3541  0.1549  0.1985
57613SOL    HW178676   9.331  11.988   0.267 -0.0271 -0.0171  0.3279
57613SOL    HW278677   9.419  12.069   0.359  0.4799 -1.3213  1.0240
57614SOL     OW78678  12.241   4.953  11.326  0.6333  0.0386 -0.0260
57614SOL    HW178679  12.212   5.039  11.295 -1.1500 -1.0141 -1.5103
57614SOL    HW278680  12.208   4.948  11.416 -0.7084  0.3096 -0.4730
57615SOL     OW78681   4.717   7.195   0.674 -0.0598  0.2636 -0.5379
57615SOL    HW178682   4.732   7.105   0.703  4.2711  1.1334  0.6930
57615SOL    HW278683   4.737   7.194   0.581 -1.1246 -0.2309 -0.7678
57616SOL     OW78684  11.481   8.112  10.775  0.3223 -0.4073  0.1548
57616SOL    HW178685  11.449   8.193  10.815  0.0405 -0.5044  0.1277
57616SOL    HW278686  11.574   8.128  10.759  0.6584 -0.6968  1.6796
57617SOL     OW78687   0.954   6.821   8.463  0.4119  0.0664  0.6303
57617SOL    HW178688   0.872   6.772   8.471  1.5593 -1.9303  0.8026
57617SOL    HW278689   0.948   6.889   8.531 -1.4831  0.6268 -0.0224
57618SOL     OW78690   2.103   2.534  11.512 -0.6210  0.1425 -0.4120
57618SOL    HW178691   2.075   2.517  11.422  0.6508 -0.1486 -0.7634
57618SOL    HW278692   2.086   2.451  11.558 -0.8386  0.1478 -0.4794
57619SOL     OW78693  11.396   1.167   9.790  0.0576 -0.2661 -0.2952
57619SOL    HW178694  11.430   1.212   9.867 -0.3249  0.3312 -0.4702
57619SOL    HW278695  11.447   1.086   9.785  1.6448  0.6991 -0.6796
57620SOL     OW78696   2.266   1.024   6.538  0.3422  0.1255  1.2177
57620SOL    HW178697   2.200   1.092   6.553  0.1325 -0.0817  1.2345
57620SOL    HW278698   2.247   0.956   6.603  0.1578 -0.2382  0.7909
57621SOL     OW78699   0.736   1.815  11.213 -0.2455  0.0809 -0.4978
57621SOL    HW178700   0.658   1.848  11.258 -0.9460 -0.4520 -1.2829
57621SOL    HW278701   0.708   1.731  11.177  1.5881 -1.7176  1.8856
57622SOL     OW78702  10.155   7.528   0.841  0.5965  0.5737 -0.3868
57622SOL    HW178703  10.077   7.509   0.892  0.6801  1.8372  0.2381
57622SOL    HW278704  10.227   7.489   0.891  0.6392  1.5236  0.3185
57623SOL     OW78705   8.402   8.079   7.450  0.4353  0.2700  0.4695
57623SOL    HW178706   8.445   8.157   7.485 -2.4244  1.9363  0.5953
57623SOL    HW278707   8.402   8.017   7.523 -0.0876  1.4086  1.4690
57624SOL     OW78708   9.680   0.648   7.780 -0.0099  0.1679 -0.5699
57624SOL    HW178709   9.755   0.613   7.828  0.4602  0.4091 -1.1307
57624SOL    HW278710   9.697   0.625   7.689 -1.9156 -2.1761 -0.4436
57625SOL     OW78711   0.813  10.701   6.525  0.0890 -0.1239  0.6276
57625SOL    HW178712   0.769  10.629   6.570  0.3949 -0.2788  0.6822
57625SOL    HW278713   0.864  10.658   6.457 -1.2319  0.1816 -0.6092
57626SOL     OW78714   6.629   2.893   2.949 -0.1610 -0.1774 -0.9707
57626SOL    HW178715   6.647   2.799   2.949 -0.4537 -0.2384 -0.1918
57626SOL    HW278716   6.566   2.906   3.020 -0.5674  0.5236 -1.4442
57627SOL     OW78717   3.109   8.216   1.306  0.2882 -0.2022 -0.3001
57627SOL    HW178718   3.186   8.189   1.255  1.4404  2.5726 -0.2272
57627SOL    HW278719   3.146   8.256   1.385 -1.3660 -0.9376  0.9107
57628SOL     OW78720  10.409   5.310  10.425  0.3730  0.4213  0.7416
57628SOL    HW178721  10.388   5.279  10.337 -0.7532  0.5710  0.9473
57628SOL    HW278722  10.482   5.254  10.453  0.1048 -0.2774  0.0880
57629SOL     OW78723   1.103   7.339  11.719  0.3529  0.5458 -0.0388
57629SOL    HW178724   1.049   7.357  11.796 -2.4012  2.2960 -2.1716
57629SOL    HW278725   1.183   7.390  11.733  0.0273  0.6362  1.7244
57630SOL     OW78726   2.428   6.371  10.158  0.6291  0.2129  0.0475
57630SOL    HW178727   2.480   6.342  10.083  1.3498  2.7430 -0.5135
57630SOL    HW278728   2.337   6.364  10.129  0.7276 -1.5145  0.0210
57631SOL     OW78729   2.948   5.008   2.210 -0.1840 -0.9073  0.7224
57631SOL    HW178730   2.872   5.050   2.168  1.9721  0.3899 -2.1889
57631SOL    HW278731   2.918   4.990   2.299 -3.4928  0.6890  0.0991
57632SOL     OW78732   9.085   9.283   1.850 -0.3569 -0.2205  0.3903
57632SOL    HW178733   9.139   9.216   1.808  2.8504  1.8618  0.8394
57632SOL    HW278734   9.099   9.271   1.944  1.1090  1.5855  0.4609
57633SOL     OW78735   3.288   4.621  10.789  0.9530 -0.4238  0.7722
57633SOL    HW178736   3.274   4.552  10.724 -0.8420  1.5561 -1.1323
57633SOL    HW278737   3.382   4.639  10.786  1.1088 -1.3317 -0.2397
57634SOL     OW78738   2.190   2.809  11.659 -0.1869 -0.1035  0.0196
57634SOL    HW178739   2.182   2.714  11.653  1.7962 -0.3962  1.2657
57634SOL    HW278740   2.229   2.835  11.575 -0.4465 -0.4205 -0.2007
57635SOL     OW78741   4.266   1.413   2.363  0.1468 -0.0971  0.1034
57635SOL    HW178742   4.191   1.472   2.361 -1.3838 -1.9861 -1.3910
57635SOL    HW278743   4.305   1.427   2.450 -1.9870  0.8512  0.9691
57636SOL     OW78744   6.432   2.333   7.452  0.3078 -0.1423  0.7872
57636SOL    HW178745   6.476   2.378   7.380  1.5410  0.9426  2.1566
57636SOL    HW278746   6.502   2.289   7.500 -0.1917  0.6984  2.3769
57637SOL     OW78747   4.120   1.654   2.592  0.3198 -0.2712  0.5075
57637SOL    HW178748   4.125   1.641   2.497 -0.2451 -1.0138  0.5749
57637SOL    HW278749   4.115   1.566   2.629  2.2830 -0.0833  1.3564
57638SOL     OW78750  12.006   2.592   7.328  0.0757 -0.2199 -0.3808
57638SOL    HW178751  12.002   2.664   7.391 -0.6980  1.1097 -1.8641
57638SOL    HW278752  12.097   2.564   7.329  0.1728  0.0658  0.9652
57639SOL     OW78753   9.307   3.483  11.927 -0.1454  0.1721 -0.3156
57639SOL    HW178754   9.312   3.426  12.003  0.4031 -1.0427 -1.2125
57639SOL    HW278755   9.389   3.533  11.929  0.8338 -1.3068 -1.1481
57640SOL     OW78756   0.397   2.450   5.876  0.0515  0.1882  0.3453
57640SOL    HW178757   0.365   2.532   5.914 -1.8088 -0.4761  0.3098
57640SOL    HW278758   0.408   2.469   5.783 -0.7722  0.2906  0.2656
57641SOL     OW78759   1.739   3.541   3.706  0.1770  0.2187 -0.2536
57641SOL    HW178760   1.783   3.536   3.621  1.1567 -0.7044  0.2700
57641SOL    HW278761   1.681   3.465   3.707  1.2052 -0.5885  0.4243
57642SOL     OW78762   7.519   9.848  11.456  0.0587  0.3750 -0.8018
57642SOL    HW178763   7.529   9.755  11.437  0.8482  0.3557 -0.3349
57642SOL    HW278764   7.454   9.851  11.527  0.5795  0.1198 -0.3042
57643SOL     OW78765   8.352  10.471  10.832  0.3759 -0.8990  0.6950
57643SOL    HW178766   8.407  10.525  10.889  0.4309  0.7045 -0.7990
57643SOL    HW278767   8.267  10.514  10.833 -0.0546 -1.7243  0.7265
57644SOL     OW78768   4.294   0.347   2.285 -0.3613 -0.3687  0.0113
57644SOL    HW178769   4.229   0.277   2.276 -0.2918 -0.4420  0.0767
57644SOL    HW278770   4.287   0.375   2.376  2.1351 -2.8004  1.1131
57645SOL     OW78771   6.310   6.611   7.917  0.3553  0.8528  0.1680
57645SOL    HW178772   6.243   6.567   7.969 -0.1049  1.1502 -0.1633
57645SOL    HW278773   6.377   6.635   7.980 -0.0136  0.8586  0.5634
57646SOL     OW78774   3.313   8.230  11.864  0.2565 -0.6920  0.7392
57646SOL    HW178775   3.254   8.185  11.803  0.5887  0.4696 -0.4886
57646SOL    HW278776   3.398   8.225  11.822  0.4094  0.5259  0.8835
57647SOL     OW78777   7.131   6.857   8.102 -0.4185 -0.3404  0.0807
57647SOL    HW178778   7.078   6.933   8.125 -2.8153 -1.5328 -1.2427
57647SOL    HW278779   7.182   6.885   8.026  1.6500  1.0631  1.8268
57648SOL     OW78780  11.089   3.547   4.709 -0.4618 -0.5068 -0.0785
57648SOL    HW178781  11.102   3.641   4.696 -0.2470 -0.6915 -1.2912
57648SOL    HW278782  11.109   3.532   4.802  2.2426  0.1996 -0.4751
57649SOL     OW78783   6.182   0.724   4.533  1.2950 -0.1574  0.0546
57649SOL    HW178784   6.111   0.788   4.525 -0.1658 -1.3540  2.3245
57649SOL    HW278785   6.230   0.752   4.611  1.9593 -0.6131 -0.1892
57650SOL     OW78786   8.803  10.638   7.048 -0.4300  0.4621 -0.5037
57650SOL    HW178787   8.791  10.576   7.120  1.6061 -0.1058 -0.5911
57650SOL    HW278788   8.813  10.723   7.091  0.2842  0.1970 -0.1350
57651SOL     OW78789   1.437   8.385   0.636 -0.0612 -0.0641 -0.5392
57651SOL    HW178790   1.379   8.349   0.703  0.1644 -2.0771 -1.3581
57651SOL    HW278791   1.485   8.455   0.680  0.1617 -1.3985  1.4163
57652SOL     OW78792  11.739   6.569   7.921  0.1466  0.6081  0.2812
57652SOL    HW178793  11.769   6.601   8.006  0.4795  1.8434 -0.2783
57652SOL    HW278794  11.740   6.647   7.864  0.0589 -0.2152 -0.8825
57653SOL     OW78795   1.550   1.814  12.214 -0.8744 -0.1007 -0.0686
57653SOL    HW178796   1.528   1.842  12.125 -2.2828  0.4764  0.4302
57653SOL    HW278797   1.489   1.743  12.232 -0.4477 -0.3590  0.3712
57654SOL     OW78798   3.524   1.709   0.900  0.3668  0.2633 -0.1354
57654SOL    HW178799   3.545   1.729   0.991  1.4041 -1.3044  0.0118
57654SOL    HW278800   3.518   1.613   0.898 -3.0931  0.3630 -0.9947
57655SOL     OW78801  10.831   4.329   0.073 -0.0455 -0.1651  0.1098
57655SOL    HW178802  10.816   4.423   0.063 -2.0959 -0.4314  0.2406
57655SOL    HW278803  10.852   4.299  -0.016  0.3328  0.3592  0.0166
57656SOL     OW78804   7.076   3.999   5.061 -0.1251  0.4716  0.4388
57656SOL    HW178805   7.160   4.042   5.076  0.2438 -0.3394  0.7429
57656SOL    HW278806   7.029   4.058   5.001  0.2653  1.4060  1.0336
57657SOL     OW78807   0.332   6.884   3.181  0.3245  0.1866  0.3689
57657SOL    HW178808   0.294   6.894   3.093  0.7005  1.1037  0.3094
57657SOL    HW278809   0.256   6.877   3.239  0.0394 -1.7502 -0.1354
57658SOL     OW78810   6.720   1.965   2.421 -0.3392  0.1861 -0.6522
57658SOL    HW178811   6.675   2.019   2.356 -2.6039 -0.3252  0.4049
57658SOL    HW278812   6.680   1.879   2.412 -0.5137  0.0293  1.1911
57659SOL     OW78813  11.229   9.483   7.868  0.4634 -0.0811 -0.3125
57659SOL    HW178814  11.287   9.484   7.944 -1.8911 -0.1765  1.6167
57659SOL    HW278815  11.187   9.569   7.868 -0.4608 -0.5174 -0.7703
57660SOL     OW78816   0.369   5.953  11.501  0.0270 -0.0826  0.3062
57660SOL    HW178817   0.336   5.954  11.411 -0.3699 -1.8141  0.4036
57660SOL    HW278818   0.344   6.038  11.537 -1.5500 -0.1339 -0.6033
57661SOL     OW78819   7.300   7.487   2.449  0.0604  0.1073 -0.1617
57661SOL    HW178820   7.304   7.558   2.513 -2.2923 -2.4999  3.2740
57661SOL    HW278821   7.390   7.453   2.446  0.6473  1.5300  0.1888
57662SOL     OW78822   5.185   9.253   8.788 -0.0006 -0.2662  0.2002
57662SOL    HW178823   5.163   9.314   8.718  0.1442 -0.6248 -0.1577
57662SOL    HW278824   5.110   9.258   8.848 -0.2573 -0.1728 -0.1246
57663SOL     OW78825   5.351   1.872   0.126 -0.4706 -1.0798 -0.3671
57663SOL    HW178826   5.286   1.818   0.081  0.3854 -1.7235 -0.8403
57663SOL    HW278827   5.418   1.811   0.155 -0.0200 -0.4036  0.0416
57664SOL     OW78828   1.038   4.604   9.777  0.4191  0.7796 -0.0871
57664SOL    HW178829   1.077   4.520   9.801 -1.5686  0.3909  2.1030
57664SOL    HW278830   1.071   4.665   9.842  0.1924  1.2244 -0.3883
57665SOL     OW78831   7.593   6.492   4.521  0.2158 -0.1216 -0.5399
57665SOL    HW178832   7.568   6.432   4.592  0.9015  0.3100  0.0784
57665SOL    HW278833   7.525   6.559   4.522  0.9538  0.6462  0.6513
57666SOL     OW78834   4.886   8.724   2.534  0.4060 -0.5239 -0.0677
57666SOL    HW178835   4.901   8.755   2.445  0.0194  0.2312  0.1258
57666SOL    HW278836   4.830   8.790   2.574  1.1280 -0.4908  0.9505
57667SOL     OW78837   6.827  12.059   7.018  0.2968  0.5147  0.5318
57667SOL    HW178838   6.898  12.047   7.081 -0.6618 -1.1386  1.3883
57667SOL    HW278839   6.770  12.124   7.059  0.2141  0.2223  0.8912
57668SOL     OW78840   6.767   3.918   1.951  0.0959 -0.4572 -0.2573
57668SOL    HW178841   6.689   3.958   1.990 -1.4402 -2.3935 -1.1833
57668SOL    HW278842   6.770   3.830   1.988  1.1140 -0.8400 -1.2017
57669SOL     OW78843   7.667   8.900   2.828  0.2841  1.2280  0.7156
57669SOL    HW178844   7.730   8.935   2.765  1.4170  0.0467  1.1406
57669SOL    HW278845   7.582   8.933   2.798  1.0719  2.7626  0.0578
57670SOL     OW78846   0.112   9.032  10.440 -0.7611  0.1286  0.0544
57670SOL    HW178847   0.163   8.955  10.417 -0.8187  0.3712 -0.9151
57670SOL    HW278848   0.021   9.002  10.438 -0.6840 -0.2696  1.6501
57671SOL     OW78849   4.646   9.022   5.059 -0.2429  0.1497  0.3260
57671SOL    HW178850   4.596   9.094   5.098 -0.9984  0.1714 -0.6513
57671SOL    HW278851   4.722   9.012   5.117 -0.2987  1.5019  0.6678
57672SOL     OW78852   4.408   3.655   3.917  0.6463 -0.0323  0.4528
57672SOL    HW178853   4.362   3.581   3.956 -0.2484 -0.4364 -1.2375
57672SOL    HW278854   4.416   3.632   3.824 -1.6776  2.8720 -0.6526
57673SOL     OW78855   3.078   0.004  10.899  0.2345  0.3585  0.4926
57673SOL    HW178856   3.048   0.095  10.899 -1.3735 -0.0307 -2.4125
57673SOL    HW278857   3.170   0.008  10.872  0.3227  1.1491  0.9133
57674SOL     OW78858   0.528   2.661   8.294 -0.3812 -0.2213  0.1069
57674SOL    HW178859   0.565   2.608   8.364 -3.0377 -4.5771 -1.4211
57674SOL    HW278860   0.434   2.649   8.301 -0.8462  0.6172 -3.0787
57675SOL     OW78861   3.760   9.713  10.992 -0.5577  0.0168  0.3553
57675SOL    HW178862   3.835   9.684  10.940 -0.1275  0.5719  0.6617
57675SOL    HW278863   3.737   9.799  10.956 -1.9781 -0.7464 -0.7058
57676SOL     OW78864   2.972   1.154   3.211  0.3438  0.3469 -0.0424
57676SOL    HW178865   3.049   1.210   3.207  0.6440  0.0349  0.9259
57676SOL    HW278866   2.908   1.204   3.261  0.0283  0.4782 -0.5750
57677SOL     OW78867  11.803   7.467  10.394 -0.0587  0.4725 -0.2534
57677SOL    HW178868  11.849   7.403  10.340 -0.9085  1.3014 -2.0682
57677SOL    HW278869  11.872   7.516  10.439  0.6136 -1.3989  0.8596
57678SOL     OW78870   8.388   6.344   4.558 -0.2902 -0.2449 -0.5845
57678SOL    HW178871   8.358   6.431   4.582  0.0737 -0.5469  1.1562
57678SOL    HW278872   8.347   6.286   4.624  0.5348 -1.2038 -0.8924
57679SOL     OW78873   5.283  11.354   6.492 -0.1096 -0.2010 -0.0207
57679SOL    HW178874   5.190  11.367   6.513 -0.4254 -0.4729 -1.1657
57679SOL    HW278875   5.327  11.428   6.533 -0.9044  0.2237  0.0989
57680SOL     OW78876   3.667   6.816   5.671 -0.1063  0.3716 -0.3850
57680SOL    HW178877   3.725   6.742   5.688 -1.1593 -0.7638 -1.5002
57680SOL    HW278878   3.581   6.787   5.700 -0.9074  0.3726 -2.5596
57681SOL     OW78879  10.060   8.575   8.666  0.1454 -0.1039 -0.7079
57681SOL    HW178880  10.067   8.647   8.604  0.6385  0.2678 -0.2408
57681SOL    HW278881   9.970   8.577   8.697  0.2707  0.5889 -0.3821
57682SOL     OW78882   3.071   8.900   6.926 -0.6965  0.7697  0.0952
57682SOL    HW178883   3.042   8.974   6.979 -1.8597  1.5307 -1.5267
57682SOL    HW278884   2.989   8.857   6.899 -0.1161  0.2287 -0.8412
57683SOL     OW78885   1.698  11.797   3.259  0.3812  0.1340 -0.2452
57683SOL    HW178886   1.691  11.704   3.234  0.1685  0.1444 -0.2286
57683SOL    HW278887   1.678  11.844   3.178 -1.3725  0.1753  0.1658
57684SOL     OW78888   2.657  10.357   5.000  0.0765 -0.5017 -0.3372
57684SOL    HW178889   2.563  10.359   4.980  0.2130 -0.5225 -1.0284
57684SOL    HW278890   2.699  10.353   4.914  0.6827 -1.5740 -0.0019
57685SOL     OW78891   4.543   8.899   7.775  0.1577  0.7156 -0.0866
57685SOL    HW178892   4.473   8.834   7.774  0.3073  0.5544 -0.2693
57685SOL    HW278893   4.500   8.981   7.798 -0.1598  0.7042 -0.6287
57686SOL     OW78894   1.637   9.786   4.899 -0.1966  0.1652  0.0917
57686SOL    HW178895   1.718   9.836   4.886  0.4820 -0.7390  0.7462
57686SOL    HW278896   1.597   9.784   4.812  1.0131 -0.2643 -0.4904
57687SOL     OW78897   5.398   3.280   1.115  0.0739  0.4095  0.0713
57687SOL    HW178898   5.308   3.291   1.146  0.2059  0.7091  0.3571
57687SOL    HW278899   5.427   3.197   1.155  0.2158  0.7520  0.6986
57688SOL     OW78900   7.367  11.580   5.467  0.0755  0.0803 -0.0227
57688SOL    HW178901   7.334  11.636   5.397  1.8810 -0.1989 -1.1516
57688SOL    HW278902   7.339  11.491   5.443  0.4823  0.0156 -0.2537
57689SOL     OW78903   0.108  11.094   9.757  0.4809  1.0352 -0.0822
57689SOL    HW178904   0.111  11.075   9.663 -2.7893 -0.3448 -0.0552
57689SOL    HW278905   0.097  11.009   9.799 -0.4429  1.7930  1.3208
57690SOL     OW78906  10.431   1.017   6.811 -0.0642 -0.2522  0.0310
57690SOL    HW178907  10.393   1.007   6.724 -0.7699  0.5235  0.2430
57690SOL    HW278908  10.483   0.937   6.824 -0.2677 -0.5477 -0.9358
57691SOL     OW78909  11.041   8.097  10.804  0.1932  0.8176  0.2401
57691SOL    HW178910  10.977   8.125  10.739 -1.6782  1.2635  2.1559
57691SOL    HW278911  11.019   8.006  10.823  0.8110  0.6481  0.1738
57692SOL     OW78912   7.603   5.185   3.619 -0.1063 -0.1928 -0.1470
57692SOL    HW178913   7.586   5.142   3.535 -1.1424  0.5318 -0.3283
57692SOL    HW278914   7.597   5.278   3.600  2.8211  0.1286  0.0930
57693SOL     OW78915   4.853   5.219   9.455  0.5956  0.2854  0.2761
57693SOL    HW178916   4.758   5.217   9.443  0.6345  0.9447 -0.1548
57693SOL    HW278917   4.879   5.127   9.454 -0.1001  0.0711  0.9134
57694SOL     OW78918   4.337   5.728   1.324 -0.2606  0.0306 -0.5605
57694SOL    HW178919   4.321   5.741   1.417 -1.1555 -1.2361 -0.5087
57694SOL    HW278920   4.265   5.775   1.281  0.1686  0.6400 -0.6203
57695SOL     OW78921   1.635   8.467   0.057 -0.3664 -0.0525  0.0770
57695SOL    HW178922   1.678   8.406  -0.004 -0.7564  0.1919 -0.4414
57695SOL    HW278923   1.708   8.507   0.104  0.1085  1.3315 -1.7086
57696SOL     OW78924   4.664  10.534   7.649  0.3735 -0.0917  0.2038
57696SOL    HW178925   4.660  10.620   7.608 -0.6499 -0.5339 -0.6925
57696SOL    HW278926   4.754  10.504   7.635  0.2439  0.0652 -1.1531
57697SOL     OW78927   4.365   2.915   5.820  0.5432  0.4862 -0.4275
57697SOL    HW178928   4.386   2.838   5.766 -0.2596  0.0207 -0.0850
57697SOL    HW278929   4.270   2.915   5.826  0.6289  0.2044  1.4455
57698SOL     OW78930  12.132   9.448   8.791 -0.1931  0.0767  0.2013
57698SOL    HW178931  12.200   9.391   8.827  0.3521  0.6965  0.1616
57698SOL    HW278932  12.131   9.428   8.697 -0.9405 -0.8321  0.3836
57699SOL     OW78933   0.955  11.534   9.771 -0.4556  0.0154 -0.4283
57699SOL    HW178934   0.873  11.579   9.752 -0.2901 -0.7934 -3.4580
57699SOL    HW278935   0.968  11.549   9.865 -3.1759  1.5691 -0.1752
57700SOL     OW78936   4.366   9.328  11.531 -0.1531  0.8867  0.2346
57700SOL    HW178937   4.455   9.292  11.530 -0.9751 -1.2920 -0.4577
57700SOL    HW278938   4.341   9.332  11.439 -1.5088 -0.6334  0.4848
57701SOL     OW78939  12.314   6.985  11.722 -0.1978  0.1226 -0.2665
57701SOL    HW178940  12.276   6.986  11.810 -0.7289 -1.4577 -0.4545
57701SOL    HW278941  12.245   6.951  11.666  0.5464 -0.0656 -1.1002
57702SOL     OW78942  10.280   9.231   0.890 -0.0758  0.1208  0.0180
57702SOL    HW178943  10.340   9.305   0.885  1.4154 -0.9930  0.5530
57702SOL    HW278944  10.257   9.225   0.983  0.2482 -0.3973  0.0706
57703SOL     OW78945   3.622   9.845  10.554  0.2342  0.6462 -0.3475
57703SOL    HW178946   3.663   9.922  10.595 -1.6051  1.2627  0.4435
57703SOL    HW278947   3.609   9.783  10.626 -1.3395  0.9910 -0.2861
57704SOL     OW78948   6.290   2.656   4.557 -0.4536  1.0057  0.0630
57704SOL    HW178949   6.369   2.665   4.610  1.1831  0.4741 -2.1234
57704SOL    HW278950   6.287   2.736   4.504  0.9722 -0.6413 -2.7190
57705SOL     OW78951   4.321   7.878  11.894 -0.4367 -0.1900 -0.3700
57705SOL    HW178952   4.289   7.884  11.805  0.0917 -0.6473 -0.5959
57705SOL    HW278953   4.272   7.946  11.942  1.2213  2.0155 -1.5982
57706SOL     OW78954   2.061   7.852   4.615  0.4040  0.4113  0.0752
57706SOL    HW178955   2.127   7.835   4.682  1.6772  0.1696 -1.1692
57706SOL    HW278956   2.112   7.879   4.538 -0.8236 -1.1130 -1.3630
57707SOL     OW78957   6.710  10.005   8.260  0.3772 -0.1426 -0.4357
57707SOL    HW178958   6.718  10.079   8.320  0.0896  0.3243 -0.9575
57707SOL    HW278959   6.618  10.006   8.233  0.6944  0.2099 -1.5662
57708SOL     OW78960   9.097   0.308   8.879 -0.6380 -0.1293 -0.2934
57708SOL    HW178961   9.065   0.398   8.884  2.5532  1.0836  1.4314
57708SOL    HW278962   9.128   0.288   8.968  2.7399 -1.2043 -1.5438
57709SOL     OW78963   5.317   8.050   0.236 -0.0237  0.0658  0.4830
57709SOL    HW178964   5.245   8.032   0.296 -0.5224 -2.4638 -0.7328
57709SOL    HW278965   5.300   8.139   0.204 -0.8623  0.6766  2.4956
57710SOL     OW78966   8.262   7.370   5.762 -0.4231 -0.1620  0.0403
57710SOL    HW178967   8.212   7.342   5.838  0.7491 -0.8178  0.5809
57710SOL    HW278968   8.307   7.291   5.731 -2.2867 -0.3747 -2.4812
57711SOL     OW78969  12.144   1.098  11.965  0.3730 -0.2407 -0.0445
57711SOL    HW178970  12.130   1.182  12.008  0.2585 -0.0033 -0.5370
57711SOL    HW278971  12.237   1.078  11.981  0.5335  0.2352 -0.3754
57712SOL     OW78972   5.204   9.852   0.171 -0.1768  0.3714  0.0912
57712SOL    HW178973   5.241   9.828   0.086 -0.6247 -0.2240  0.0595
57712SOL    HW278974   5.123   9.802   0.177 -0.8411  1.4495  0.2834
57713SOL     OW78975  11.275   1.333   6.880 -0.1372 -0.7765 -0.1891
57713SOL    HW178976  11.349   1.393   6.892 -0.0936 -0.7783 -0.4549
57713SOL    HW278977  11.212   1.383   6.828  1.0377 -1.8781 -2.8639
57714SOL     OW78978   1.714   5.715  11.576  0.3625  0.2352  0.5237
57714SOL    HW178979   1.729   5.693  11.668  0.9483 -1.1031  0.1382
57714SOL    HW278980   1.660   5.794  11.579 -2.1314 -1.3754  2.0719
57715SOL     OW78981   7.884   0.316   2.204 -0.0778  0.5501  0.1167
57715SOL    HW178982   7.856   0.252   2.270  1.5939 -1.3007 -0.8611
57715SOL    HW278983   7.803   0.341   2.159 -0.9587  0.2755  1.4767
57716SOL     OW78984   0.365   4.489   6.292  0.7201 -0.0931  0.3187
57716SOL    HW178985   0.407   4.461   6.373  0.0007 -1.5510  0.2081
57716SOL    HW278986   0.317   4.568   6.316 -0.8015 -1.3858  1.7258
57717SOL     OW78987   6.642   6.811   5.742  0.4071  0.2548 -0.4748
57717SOL    HW178988   6.683   6.860   5.814 -0.2146 -0.2738  0.2512
57717SOL    HW278989   6.566   6.768   5.782 -0.2581  0.3721 -1.5631
57718SOL     OW78990   8.933  12.278   7.559  0.4971  0.1411 -0.4119
57718SOL    HW178991   8.996  12.256   7.627  2.7001 -0.2688 -2.4547
57718SOL    HW278992   8.869  12.208   7.561  1.1814 -0.4780  0.4700
57719SOL     OW78993   6.152   2.046   1.265 -0.3850 -0.2857  0.3967
57719SOL    HW178994   6.217   2.108   1.300  1.1876 -0.8112 -1.3920
57719SOL    HW278995   6.076   2.055   1.323  0.4887  1.9172  1.3115
57720SOL     OW78996  11.447   6.399   4.598  0.3945 -0.3813 -0.0595
57720SOL    HW178997  11.480   6.412   4.509 -0.1084 -2.1093 -0.5446
57720SOL    HW278998  11.407   6.482   4.622  0.4140  0.0627 -1.5167
57721SOL     OW78999  11.781  12.116  10.215  0.3366 -0.4205 -0.0996
57721SOL    HW179000  11.775  12.071  10.299 -0.8672 -1.9828 -0.9735
57721SOL    HW279001  11.826  12.198  10.235  0.0270 -0.7272  2.0633
57722SOL     OW79002   6.483   7.233  11.013  0.6979  0.2907  0.2854
57722SOL    HW179003   6.546   7.165  11.038  2.5828  2.1384  0.8100
57722SOL    HW279004   6.409   7.219  11.072  1.0998 -1.1929  0.4901
57723SOL     OW79005   4.034   5.573   3.691  0.5097 -0.0742 -0.0443
57723SOL    HW179006   4.005   5.597   3.603  0.7145  0.0358 -0.0818
57723SOL    HW279007   4.084   5.492   3.678 -0.4397 -0.6946  0.1195
57724SOL     OW79008   2.446   7.438   4.122 -0.1723  0.1626  0.3661
57724SOL    HW179009   2.436   7.475   4.034 -0.7238  1.7392  1.0609
57724SOL    HW279010   2.362   7.397   4.141 -0.2540  0.3405  0.3872
57725SOL     OW79011  10.306  11.580  11.414  0.2722 -0.4897  0.0638
57725SOL    HW179012  10.370  11.645  11.387 -1.2245  0.0709 -2.4655
57725SOL    HW279013  10.228  11.630  11.437 -0.4177 -1.2691 -0.4778
57726SOL     OW79014   8.742   0.856  10.935  0.3441  0.1022 -0.5492
57726SOL    HW179015   8.820   0.807  10.909  0.8764  0.5732  0.1140
57726SOL    HW279016   8.669   0.800  10.910  0.9381 -1.8512  1.6651
57727SOL     OW79017   1.198   9.305  11.716 -0.5139  0.2266 -0.2371
57727SOL    HW179018   1.242   9.300  11.800  1.5083 -2.2491 -1.3026
57727SOL    HW279019   1.218   9.393  11.683  1.2049  0.1885  0.5967
57728SOL     OW79020   5.886   8.824   2.386  0.3492  0.1046  0.0668
57728SOL    HW179021   5.966   8.876   2.384  1.0344 -0.6984  2.4839
57728SOL    HW279022   5.873   8.795   2.296  1.6425  1.8922 -0.7479
57729SOL     OW79023  10.609  11.533   3.923  0.0433  0.0706 -0.3921
57729SOL    HW179024  10.565  11.448   3.923 -0.5576  0.3449  1.2365
57729SOL    HW279025  10.701  11.512   3.937  0.4203 -0.4666 -3.1598
57730SOL     OW79026   8.967   1.533   0.582 -0.6741  0.1714  0.1877
57730SOL    HW179027   9.016   1.540   0.663  0.4541 -0.1662 -0.4525
57730SOL    HW279028   9.005   1.599   0.525 -1.5518  0.5058 -0.0367
57731SOL     OW79029   3.578   1.791   5.380  0.5927 -0.7990  0.4227
57731SOL    HW179030   3.648   1.843   5.420  1.6461 -1.5095 -0.4302
57731SOL    HW279031   3.569   1.829   5.292 -0.1547 -0.6686  0.5503
57732SOL     OW79032   4.371   8.726  10.099 -0.1358  0.1681  0.3799
57732SOL    HW179033   4.329   8.771  10.025  0.2392 -1.8644 -1.1402
57732SOL    HW279034   4.356   8.633  10.082  0.9554 -0.3897  2.2850
57733SOL     OW79035   3.207  11.130   7.868 -0.0567 -0.4704 -0.3032
57733SOL    HW179036   3.156  11.109   7.946 -0.4324  0.2063 -0.3633
57733SOL    HW279037   3.268  11.198   7.896  0.1118 -0.5375 -0.4966
57734SOL     OW79038   8.950   0.219   7.575 -0.0507  0.0700 -0.4358
57734SOL    HW179039   8.867   0.247   7.614 -0.3049  0.1730 -1.0250
57734SOL    HW279040   8.930   0.133   7.538  0.7438 -0.9617  1.4254
57735SOL     OW79041   9.234  10.694   3.202 -0.1612  0.8115  0.2879
57735SOL    HW179042   9.257  10.700   3.294 -4.7149 -1.3814  1.8686
57735SOL    HW279043   9.186  10.775   3.184 -0.8874  0.4312  0.4642
57736SOL     OW79044   3.291  10.817   7.934  0.0724 -0.2457 -0.1094
57736SOL    HW179045   3.368  10.859   7.972  0.1148  0.3607 -0.8418
57736SOL    HW279046   3.217  10.848   7.986  0.2370 -0.2224  0.1107
57737SOL     OW79047   0.026   8.970   7.631 -0.3555  0.0600  0.0382
57737SOL    HW179048   0.002   8.889   7.586  0.2959  0.2855 -0.7474
57737SOL    HW279049  -0.019   9.039   7.581 -0.9447  0.1856  0.7299
57738SOL     OW79050   4.051  11.557   0.987  0.8159 -0.2409 -0.2466
57738SOL    HW179051   4.127  11.499   0.991  1.0285  0.0546  0.0972
57738SOL    HW279052   4.085  11.643   1.011  0.1815 -0.2940  0.9433
57739SOL     OW79053   2.195   6.850   8.515  0.0927  0.0855  0.1301
57739SOL    HW179054   2.228   6.761   8.529 -0.1980 -0.0259  0.1039
57739SOL    HW279055   2.113   6.839   8.468 -0.6603  0.2959  1.3502
57740SOL     OW79056   1.406   9.096   5.497 -0.6357 -0.5389 -0.4345
57740SOL    HW179057   1.386   9.156   5.569 -0.6339 -0.0566 -0.8243
57740SOL    HW279058   1.478   9.138   5.451 -0.4479 -0.9872 -0.5509
57741SOL     OW79059   1.353   0.074   7.500  0.2958  0.0031  0.0144
57741SOL    HW179060   1.417   0.029   7.444  0.7578 -0.7225  1.0835
57741SOL    HW279061   1.318   0.005   7.556 -0.1878  0.7003  0.5888
57742SOL     OW79062   8.220  12.032   8.679  0.0353  0.2009 -0.3636
57742SOL    HW179063   8.239  12.120   8.711  0.3001 -0.5631  1.6962
57742SOL    HW279064   8.141  12.006   8.726  1.2059 -1.4774  0.7818
57743SOL     OW79065   7.579   8.072   2.206  0.4601 -0.3670 -0.0180
57743SOL    HW179066   7.561   7.987   2.166 -2.4819  0.5870 -0.9709
57743SOL    HW279067   7.537   8.135   2.147 -0.3004  1.4743  2.3529
57744SOL     OW79068   8.618   2.546   0.488 -0.3756 -0.7207  0.2048
57744SOL    HW179069   8.635   2.636   0.459  0.7544 -1.4472 -1.5056
57744SOL    HW279070   8.523   2.540   0.493 -0.4572  0.6889  0.8090
57745SOL     OW79071   2.513  11.557   7.564  0.2641  0.3359 -0.0150
57745SOL    HW179072   2.445  11.495   7.587  1.4923 -0.7697  0.7662
57745SOL    HW279073   2.476  11.643   7.587 -0.4676 -0.3190  1.3887
57746SOL     OW79074  10.215   2.345   3.509 -0.4862 -0.0932 -0.6245
57746SOL    HW179075  10.138   2.288   3.507 -0.7136  0.2019 -0.3692
57746SOL    HW279076  10.201   2.407   3.437 -0.9806  0.5903  0.0468
57747SOL     OW79077   3.113  10.250   3.842 -0.4416  0.4599 -0.1029
57747SOL    HW179078   3.024  10.253   3.808 -0.6959 -0.4227  0.4729
57747SOL    HW279079   3.126  10.335   3.883 -0.1335  1.5733 -2.3313
57748SOL     OW79080  10.228   5.917   6.419 -0.1666  0.3724 -0.4151
57748SOL    HW179081  10.282   5.872   6.354  1.0169  1.1957 -0.0236
57748SOL    HW279082  10.197   5.996   6.374  0.2725  0.7091 -0.1256
57749SOL     OW79083   2.830  11.014   2.725  0.3423  0.7662  0.0665
57749SOL    HW179084   2.780  11.019   2.807 -1.3905  1.1994 -0.9497
57749SOL    HW279085   2.771  11.052   2.660  1.7384  0.5613 -1.3598
57750SOL     OW79086   4.691   7.393   1.609  0.0577  0.1189 -0.2144
57750SOL    HW179087   4.660   7.353   1.528  1.8459  2.2727 -2.1010
57750SOL    HW279088   4.676   7.487   1.596  2.8263  0.7932  0.7213
57751SOL     OW79089   0.678  10.132   0.186  0.0529  0.1377 -0.5735
57751SOL    HW179090   0.630  10.141   0.103 -0.7994 -0.6329 -0.1903
57751SOL    HW279091   0.686  10.221   0.219 -0.2870  0.3739 -1.1057
57752SOL     OW79092  11.094   8.388   2.504  0.1327 -0.4125  0.3714
57752SOL    HW179093  11.185   8.412   2.485  0.4293 -0.2650  1.8365
57752SOL    HW279094  11.063   8.458   2.561 -0.1800 -1.5893  1.6874
57753SOL     OW79095   8.608   0.583   2.131  0.1413  0.2052  0.0239
57753SOL    HW179096   8.635   0.533   2.207 -1.5910  0.7657  1.0772
57753SOL    HW279097   8.607   0.520   2.059  0.0860 -0.7671  0.8579
57754SOL     OW79098  11.740   8.583   2.420  0.0785  0.9075  0.0639
57754SOL    HW179099  11.684   8.524   2.470  0.5448  1.9102  1.8785
57754SOL    HW279100  11.809   8.526   2.385 -0.9751 -0.0238 -0.5331
57755SOL     OW79101   9.554   2.474   0.336  0.1377  0.0602  0.1703
57755SOL    HW179102   9.622   2.537   0.361  1.5654 -1.2678 -0.2349
57755SOL    HW279103   9.535   2.426   0.416  1.4250 -1.1369 -0.1949
57756SOL     OW79104  10.490  11.825   5.415  0.4068 -0.2943  0.6484
57756SOL    HW179105  10.504  11.824   5.321 -1.8551 -0.4071  0.2562
57756SOL    HW279106  10.415  11.767   5.429  0.7393 -0.3557  2.5357
57757SOL     OW79107   5.165  12.067   3.182 -0.2193 -0.0748 -0.1354
57757SOL    HW179108   5.107  12.072   3.258 -1.2282  0.0646 -0.8877
57757SOL    HW279109   5.170  11.974   3.161  1.4702 -0.3125  1.1201
57758SOL     OW79110   3.695   2.782   8.448  0.3221  0.1397  0.4740
57758SOL    HW179111   3.641   2.851   8.409  0.2536  1.3048  2.5147
57758SOL    HW279112   3.781   2.794   8.409  0.0031  0.5775 -0.1106
57759SOL     OW79113   4.356  11.592   3.211  0.5749 -0.0913  0.3775
57759SOL    HW179114   4.314  11.564   3.292  0.4252  0.4081  0.4768
57759SOL    HW279115   4.288  11.585   3.144  0.4096  0.4440  0.4846
57760SOL     OW79116   2.037   9.529  11.169 -0.0285  0.5106  0.4316
57760SOL    HW179117   2.098   9.559  11.101  0.2696 -0.1504  0.3967
57760SOL    HW279118   1.956   9.511  11.122 -0.2772  1.4482  0.4874
57761SOL     OW79119  11.377   9.625   6.728 -0.6575  0.3534  0.1058
57761SOL    HW179120  11.379   9.720   6.714 -1.7787  0.3122 -0.4707
57761SOL    HW279121  11.456   9.607   6.778 -1.1277  1.7923  1.4690
57762SOL     OW79122  11.700   2.760  10.355 -0.2374 -0.1539  0.5361
57762SOL    HW179123  11.725   2.852  10.360  0.8133 -0.3219 -1.0789
57762SOL    HW279124  11.619   2.760  10.304 -0.5727 -0.0869  1.0590
57763SOL     OW79125   9.849   6.712   6.450  0.1282 -0.1494 -0.3715
57763SOL    HW179126   9.761   6.713   6.412 -0.2311  0.4889  0.4764
57763SOL    HW279127   9.867   6.619   6.465 -0.6624 -0.2355  0.0613
57764SOL     OW79128   7.807  10.296   1.973  0.2495 -0.4421 -0.0995
57764SOL    HW179129   7.714  10.294   1.951 -0.0324  0.4751  0.9574
57764SOL    HW279130   7.837  10.382   1.944  0.5046 -0.2970  0.5744
57765SOL     OW79131   0.982   0.032   1.934 -0.1967 -0.0687 -0.6228
57765SOL    HW179132   0.969   0.124   1.958  1.8782  0.6513 -1.9266
57765SOL    HW279133   1.038  -0.003   2.004 -2.5062 -0.9707  0.8994
57766SOL     OW79134  10.734   6.086   5.887 -0.1227 -0.2431  0.4427
57766SOL    HW179135  10.816   6.136   5.886 -1.1372  1.5898 -2.0035
57766SOL    HW279136  10.735   6.039   5.970  2.8981  0.5440  0.9616
57767SOL     OW79137   2.226   4.378   3.189  0.2704 -0.2309 -0.3122
57767SOL    HW179138   2.190   4.356   3.103 -2.7295  0.7524  0.5640
57767SOL    HW279139   2.287   4.449   3.172  0.4270 -0.6652 -1.7035
57768SOL     OW79140   5.989   5.816   2.066  0.0066 -0.4043  0.2064
57768SOL    HW179141   5.973   5.744   2.006 -1.9032 -3.8691  4.3449
57768SOL    HW279142   5.941   5.890   2.029 -0.9281 -2.2176 -2.4833
57769SOL     OW79143   7.876   2.209   7.114  0.0519  0.1345  0.3809
57769SOL    HW179144   7.857   2.116   7.104  1.4390 -0.1486  0.0892
57769SOL    HW279145   7.904   2.219   7.205 -0.1673  0.2860  0.4332
57770SOL     OW79146   4.651   3.674   7.563 -0.0475  0.4814 -0.2279
57770SOL    HW179147   4.728   3.629   7.596 -0.7339  0.1908  1.0329
57770SOL    HW279148   4.637   3.637   7.475 -0.3065 -1.4541  0.5813
57771SOL     OW79149   0.202   0.628   8.646  0.2564  0.1088  0.5533
57771SOL    HW179150   0.277   0.577   8.617 -0.9107 -0.3854 -1.8920
57771SOL    HW279151   0.148   0.567   8.696  0.4492 -0.1149  0.4876
57772SOL     OW79152   2.471   9.229   8.442  0.1155 -0.0266  0.6133
57772SOL    HW179153   2.519   9.296   8.491 -0.8393  1.0259  0.1449
57772SOL    HW279154   2.385   9.268   8.426 -0.1995 -1.0700 -0.3270
57773SOL     OW79155  10.943   3.700  10.127 -0.5400  0.1275  0.4108
57773SOL    HW179156  10.860   3.651  10.125 -0.2381 -0.3644 -0.0480
57773SOL    HW279157  11.007   3.638  10.161  0.4677 -0.7999 -2.7879
57774SOL     OW79158  11.178   8.745  10.124  0.3661 -0.6277  0.0619
57774SOL    HW179159  11.247   8.778  10.181  0.4188  0.4990 -0.6298
57774SOL    HW279160  11.218   8.671  10.078  0.7542 -0.6757  0.4701
57775SOL     OW79161   4.401   7.968   3.056  0.5656 -0.1997  0.8171
57775SOL    HW179162   4.426   7.895   3.112  0.6392 -1.3442 -0.6508
57775SOL    HW279163   4.310   7.952   3.034  0.6545 -0.0050  0.2781
57776SOL     OW79164  10.733   5.431   1.653 -0.9768 -0.7504  0.1126
57776SOL    HW179165  10.803   5.486   1.620 -1.6694 -0.7518 -1.4360
57776SOL    HW279166  10.696   5.480   1.726  0.0799 -0.3795  0.4104
57777SOL     OW79167   8.307   0.226   2.684  0.3067 -0.0986 -0.1494
57777SOL    HW179168   8.265   0.141   2.676  0.8605 -0.4194  0.3133
57777SOL    HW279169   8.389   0.217   2.636  0.6905 -0.0503  0.4812
57778SOL     OW79170  11.572  11.584   1.455 -0.7176 -0.2340  0.0136
57778SOL    HW179171  11.653  11.580   1.507 -0.7783  1.5785  0.3150
57778SOL    HW279172  11.574  11.505   1.401  0.8478 -0.6366  0.6103
57779SOL     OW79173   3.404   2.970   2.868  0.0238 -0.4341 -0.7906
57779SOL    HW179174   3.443   3.045   2.914  0.5283 -1.3143  0.2854
57779SOL    HW279175   3.312   2.971   2.893 -0.6276  1.3832 -2.9679
57780SOL     OW79176   7.928  11.681   3.023  0.3908  0.5459  0.0685
57780SOL    HW179177   7.877  11.637   2.955  1.8986 -1.0129 -0.1472
57780SOL    HW279178   7.893  11.646   3.105  1.6604 -1.2977 -0.1049
57781SOL     OW79179   3.540   1.417  10.976  0.1687  0.5396 -0.6575
57781SOL    HW179180   3.458   1.393  11.019  0.2791 -0.2226 -0.8542
57781SOL    HW279181   3.523   1.502  10.937 -1.1116 -0.3802 -2.2139
57782SOL     OW79182   9.354   9.540   8.824 -0.4308 -0.3797 -0.3679
57782SOL    HW179183   9.266   9.570   8.799 -1.6019 -0.8261  2.7984
57782SOL    HW279184   9.409   9.617   8.812 -2.1750  1.3118  1.7250
57783SOL     OW79185   3.715   2.749   3.412 -0.5521  0.2394 -0.1029
57783SOL    HW179186   3.755   2.824   3.456 -1.7206  0.8075  0.0285
57783SOL    HW279187   3.658   2.710   3.479 -0.5880 -0.2735 -0.4273
57784SOL     OW79188   1.319  11.265   0.890  0.2803  0.2529  0.0700
57784SOL    HW179189   1.327  11.358   0.909  0.2071  0.7770 -2.1536
57784SOL    HW279190   1.408  11.236   0.874  0.3359 -0.1477  1.0651
57785SOL     OW79191  11.886   8.409   4.853  0.3008  0.3726  0.3532
57785SOL    HW179192  11.812   8.468   4.839  0.4899  0.6748  0.6231
57785SOL    HW279193  11.859   8.328   4.810 -0.6370  0.1206  1.3777
57786SOL     OW79194   0.267   7.922   7.384 -0.2045  0.2658 -0.3564
57786SOL    HW179195   0.327   7.956   7.317 -0.0129 -1.3750 -1.0604
57786SOL    HW279196   0.254   7.830   7.361 -0.2281 -0.3330  1.8103
57787SOL     OW79197  10.483   2.863   4.341  0.1747  0.3264  0.5388
57787SOL    HW179198  10.420   2.856   4.268 -0.3340 -1.9917  1.1042
57787SOL    HW279199  10.487   2.956   4.361 -1.0324  0.8246 -1.2932
57788SOL     OW79200   6.559   8.931   7.857 -0.0265 -0.7031  0.2625
57788SOL    HW179201   6.564   8.988   7.780  0.9020 -2.3329 -0.9352
57788SOL    HW279202   6.649   8.924   7.888 -0.3419 -0.3654  1.3154
57789SOL     OW79203   2.747   5.449   1.863  0.4951 -0.5447 -0.0810
57789SOL    HW179204   2.761   5.533   1.820  0.8530 -0.0974  0.8949
57789SOL    HW279205   2.827   5.399   1.845  0.0809 -0.8705 -1.0751
57790SOL     OW79206   4.611   3.391   6.093  0.0530 -1.0642 -0.0869
57790SOL    HW179207   4.541   3.394   6.158  0.1044  0.4679 -0.0747
57790SOL    HW279208   4.685   3.435   6.135 -0.1861  0.7863 -1.4536
57791SOL     OW79209   2.240   7.773   1.394  0.4403  0.0960  0.0047
57791SOL    HW179210   2.215   7.864   1.408 -1.1868 -0.5477  1.6622
57791SOL    HW279211   2.158   7.727   1.378  1.3250 -0.9616 -1.7987
57792SOL     OW79212   0.167   9.602   6.195  0.3262 -0.0738  0.2685
57792SOL    HW179213   0.190   9.608   6.102 -1.9548 -1.3125 -0.4700
57792SOL    HW279214   0.222   9.531   6.228  0.2786 -0.4627 -0.4644
57793SOL     OW79215   9.216  12.127   6.855 -0.1606 -0.2575 -0.0066
57793SOL    HW179216   9.147  12.187   6.827  1.6924  2.2047  0.4044
57793SOL    HW279217   9.264  12.107   6.775 -0.2732 -0.5522 -0.0032
57794SOL     OW79218   8.531   3.120   9.613 -0.2858  0.6584 -0.1647
57794SOL    HW179219   8.479   3.044   9.638  1.3413  0.0650  1.6759
57794SOL    HW279220   8.589   3.088   9.545  0.1748  0.3080  0.3818
57795SOL     OW79221   8.485   8.190   6.011 -0.5673 -0.6671 -0.3840
57795SOL    HW179222   8.395   8.174   6.037 -0.3050  0.3097  1.2791
57795SOL    HW279223   8.520   8.247   6.079  0.3161  1.7691 -2.6928
57796SOL     OW79224   9.600   0.242   7.758 -0.0643 -0.2828  0.1798
57796SOL    HW179225   9.644   0.237   7.843  0.2940 -1.6445 -0.0571
57796SOL    HW279226   9.553   0.325   7.760  2.5457  1.3295  0.4191
57797SOL     OW79227   7.206  11.380   9.790  0.7161 -0.1863  0.5360
57797SOL    HW179228   7.202  11.446   9.722  0.4587 -1.2493 -0.5079
57797SOL    HW279229   7.114  11.358   9.807  0.7711  0.1254  1.3007
57798SOL     OW79230   3.269   4.099   4.175  0.3192 -0.4551 -0.7893
57798SOL    HW179231   3.321   4.172   4.209  1.0111 -0.9104 -0.8551
57798SOL    HW279232   3.242   4.050   4.253 -2.1624  1.1418 -0.5146
57799SOL     OW79233   5.485  10.577  10.508  0.1968  0.1361  0.2137
57799SOL    HW179234   5.559  10.628  10.540  1.8896 -0.6983 -2.1206
57799SOL    HW279235   5.488  10.496  10.558 -0.5376  0.9349  1.6412
57800SOL     OW79236  10.067  10.494   8.836  0.1186  0.0724 -0.2059
57800SOL    HW179237  10.134  10.436   8.798  0.1445  0.2170 -0.3860
57800SOL    HW279238  10.038  10.547   8.762  0.0460  0.2423 -0.0553
57801SOL     OW79239   2.510  11.370   3.026 -0.4424 -0.4462 -0.6916
57801SOL    HW179240   2.586  11.313   3.035 -0.8038 -0.6615  1.5756
57801SOL    HW279241   2.458  11.329   2.957  0.2675 -1.7443 -0.5023
57802SOL     OW79242   6.225   8.841   9.556 -0.0870  0.0328  0.4775
57802SOL    HW179243   6.180   8.924   9.564 -0.3889 -0.0039 -0.7177
57802SOL    HW279244   6.281   8.836   9.634 -0.1457  1.2955  0.6134
57803SOL     OW79245  11.442   4.592   2.336  0.1452  0.0304  0.1566
57803SOL    HW179246  11.503   4.666   2.335 -0.5138  0.5933  0.3714
57803SOL    HW279247  11.472   4.537   2.409  0.4683  0.2365  0.1796
57804SOL     OW79248   4.140   0.943  11.497 -0.1827  0.1295  0.1862
57804SOL    HW179249   4.197   0.885  11.448 -0.8675 -0.6522  0.2970
57804SOL    HW279250   4.105   0.888  11.568  0.5122  1.1314  1.3570
57805SOL     OW79251  12.163   2.279   1.688  0.1577  0.2454  0.5447
57805SOL    HW179252  12.248   2.260   1.726  0.4867  0.7272  0.0680
57805SOL    HW279253  12.109   2.308   1.762 -0.2801 -2.1293  1.2534
57806SOL     OW79254   5.247   3.299   6.923  0.6300 -0.1334 -0.2561
57806SOL    HW179255   5.194   3.346   6.988  0.9009 -0.2561  0.0539
57806SOL    HW279256   5.190   3.293   6.846  0.6582  0.8647 -0.3656
57807SOL     OW79257   7.390   4.320   6.159  0.4227 -0.3424 -0.3534
57807SOL    HW179258   7.382   4.403   6.113  0.9071  0.4490  0.9473
57807SOL    HW279259   7.311   4.313   6.213 -0.1192 -1.2404 -1.2278
57808SOL     OW79260   9.750   1.074   5.104 -0.8080  0.0069 -0.2436
57808SOL    HW179261   9.819   1.078   5.170 -0.0472  0.4275 -1.0462
57808SOL    HW279262   9.793   1.097   5.022 -1.2596 -2.4156 -1.2739
57809SOL     OW79263   8.146   1.534   9.984  0.1197 -0.2517 -0.1613
57809SOL    HW179264   8.127   1.595   9.913 -0.1849 -0.4668 -0.2681
57809SOL    HW279265   8.093   1.457   9.964  0.0810 -0.3375  0.2623
57810SOL     OW79266   6.044  11.174   8.174  0.2787 -0.3547 -0.0213
57810SOL    HW179267   5.963  11.224   8.174  0.7469  0.4374  0.5752
57810SOL    HW279268   6.026  11.099   8.230  0.4028  0.6280  1.4078
57811SOL     OW79269   2.592   4.275   3.286  0.0966 -0.0597 -0.1634
57811SOL    HW179270   2.637   4.333   3.225  2.3776  0.1732  1.6233
57811SOL    HW279271   2.501   4.307   3.286  1.0203  2.8194 -0.0629
57812SOL     OW79272  10.815   7.867  11.038 -0.3783  0.7996 -0.4636
57812SOL    HW179273  10.858   7.823  11.110 -1.8701 -0.1232 -0.0824
57812SOL    HW279274  10.725   7.832  11.039 -0.5665  1.1198 -2.4613
57813SOL     OW79275  12.059   8.131   9.160  0.0573  0.1104 -0.5617
57813SOL    HW179276  12.010   8.163   9.084 -1.5784 -0.1327  0.3592
57813SOL    HW279277  12.032   8.188   9.232  0.7605 -0.3519  0.0876
57814SOL     OW79278   4.320  12.146  10.065  0.3964  0.0603  0.0373
57814SOL    HW179279   4.370  12.200  10.004  0.3868  0.4555  0.3756
57814SOL    HW279280   4.242  12.120  10.017  0.7467 -0.2584 -0.3718
57815SOL     OW79281  10.005   8.431  11.335 -0.4394 -0.0597  0.1965
57815SOL    HW179282   9.923   8.479  11.347 -0.0977  0.4835  0.4020
57815SOL    HW279283  10.009   8.372  11.410 -1.2622 -1.0147 -0.4854
57816SOL     OW79284   5.889  11.143   2.259  0.1153  0.1245 -0.1149
57816SOL    HW179285   5.850  11.186   2.183  0.1289  0.4349  0.0537
57816SOL    HW279286   5.969  11.192   2.276  0.7551 -0.6976 -0.6510
57817SOL     OW79287   6.619   2.870  10.134 -1.1864  0.3748 -0.1117
57817SOL    HW179288   6.695   2.886  10.077 -0.9792 -0.1960 -0.0040
57817SOL    HW279289   6.558   2.821  10.080 -0.7327 -0.7053  0.3319
57818SOL     OW79290  10.323   0.017   0.020 -0.2377 -0.0392  0.4404
57818SOL    HW179291  10.315   0.080   0.092  0.1782 -0.6832  1.0773
57818SOL    HW279292  10.280   0.059  -0.054 -2.1912 -0.0322  1.5103
57819SOL     OW79293   3.588   9.826   2.671 -0.2756 -0.4074 -0.0599
57819SOL    HW179294   3.525   9.773   2.623  0.0147  0.1162 -1.0416
57819SOL    HW279295   3.625   9.886   2.606 -0.2056  0.6395  0.9068
57820SOL     OW79296   6.202  10.991  10.263  0.2284  0.5735  0.2377
57820SOL    HW179297   6.156  10.920  10.217 -0.5286  1.2153 -0.0119
57820SOL    HW279298   6.135  11.033  10.316  0.7063  1.0179  0.4980
57821SOL     OW79299   0.939   2.952   0.836  0.1212  0.0108 -0.1335
57821SOL    HW179300   1.024   2.907   0.826 -0.4102 -1.1012  0.1996
57821SOL    HW279301   0.917   2.941   0.929 -0.5941 -0.1151 -0.3122
57822SOL     OW79302   5.593   6.746   2.057  0.4912 -0.2789 -0.5317
57822SOL    HW179303   5.623   6.817   2.000 -0.1968  0.2982 -0.1988
57822SOL    HW279304   5.659   6.678   2.048 -0.2545 -0.7962 -3.0829
57823SOL     OW79305  10.458   9.153   3.299  0.1053  0.0245  0.0782
57823SOL    HW179306  10.380   9.171   3.351  0.3414  0.1237  0.4022
57823SOL    HW279307  10.467   9.229   3.242 -0.4643 -0.3321 -0.4965
57824SOL     OW79308   4.010   8.584  10.942 -0.0963  0.1423  0.4796
57824SOL    HW179309   3.994   8.512  11.004  0.4846  1.2238  1.9263
57824SOL    HW279310   3.981   8.662  10.988  0.6623  1.0293 -0.5060
57825SOL     OW79311   2.066   9.116   1.915  0.4838 -0.2106  0.2747
57825SOL    HW179312   2.025   9.193   1.955 -0.9362  0.2219 -1.8496
57825SOL    HW279313   2.138   9.152   1.863  1.5753 -0.6461  1.4383
57826SOL     OW79314   3.318   4.274   4.687 -0.5445 -0.0874 -0.3543
57826SOL    HW179315   3.354   4.208   4.627 -3.5277 -0.4045 -1.9871
57826SOL    HW279316   3.366   4.354   4.666  2.0923 -1.3071  0.6060
57827SOL     OW79317   3.849   4.184  11.133 -0.2595  0.0482 -0.1919
57827SOL    HW179318   3.928   4.222  11.171 -0.1645 -0.6188  0.2998
57827SOL    HW279319   3.824   4.114  11.194  0.6833 -2.0032 -2.0401
57828SOL     OW79320   6.334  11.803   3.790  0.3730 -0.0370 -0.4585
57828SOL    HW179321   6.425  11.776   3.779  0.4915  0.8196 -1.7939
57828SOL    HW279322   6.338  11.879   3.847  0.3447 -0.8268  0.6229
57829SOL     OW79323   9.694  10.491   5.131 -0.1636 -0.3733  0.0069
57829SOL    HW179324   9.711  10.545   5.209 -1.8071 -3.0510  2.4254
57829SOL    HW279325   9.781  10.464   5.101  0.5073  0.5752  1.0198
57830SOL     OW79326   2.481   8.322   8.667  0.6327 -0.4365  0.4362
57830SOL    HW179327   2.445   8.235   8.653 -2.7436  0.7000  1.2378
57830SOL    HW279328   2.487   8.330   8.763  0.1937  0.4718  0.3951
57831SOL     OW79329   2.847   6.298   2.391  0.1113  0.2927  0.0428
57831SOL    HW179330   2.754   6.313   2.372  0.8778  2.1420 -2.9182
57831SOL    HW279331   2.869   6.219   2.341  0.5933  1.2344 -1.3066
57832SOL     OW79332   8.642   7.290   7.158 -0.5455  0.0512  0.0040
57832SOL    HW179333   8.615   7.290   7.066 -2.1923 -0.9213  0.4397
57832SOL    HW279334   8.631   7.381   7.186  1.5861  0.7181 -1.1593
57833SOL     OW79335   2.345   2.097   8.632 -0.0035  0.2000 -0.0300
57833SOL    HW179336   2.393   2.099   8.715 -0.7979  0.1748  0.4379
57833SOL    HW279337   2.408   2.130   8.568 -0.0416  2.2823  0.9280
57834SOL     OW79338   0.033  12.118   1.371  0.0711  0.0929 -0.5553
57834SOL    HW179339  -0.061  12.098   1.366  0.5007 -2.0718 -1.1409
57834SOL    HW279340   0.043  12.198   1.320 -1.5270  0.6773 -0.0323
57835SOL     OW79341   3.462   6.464   9.428  0.5893 -0.7460  0.3848
57835SOL    HW179342   3.533   6.404   9.408  0.7260  0.0449 -1.7587
57835SOL    HW279343   3.382   6.412   9.418  0.7884 -1.3234  1.6116
57836SOL     OW79344   9.453   9.163  10.315  0.2603  0.3305  0.1277
57836SOL    HW179345   9.526   9.125  10.365  0.4982 -0.5956 -0.9028
57836SOL    HW279346   9.494   9.201  10.238 -0.2960  0.2402 -0.2153
57837SOL     OW79347   3.966  10.994   2.674 -0.4717 -0.2459  0.4636
57837SOL    HW179348   3.913  10.930   2.626  0.6807  1.3863 -3.4200
57837SOL    HW279349   3.903  11.051   2.717 -1.7211 -0.7981 -0.5784
57838SOL     OW79350   6.671   9.272  10.071 -0.4913 -0.1051 -0.5422
57838SOL    HW179351   6.716   9.310   9.996  0.1674 -0.8232 -0.5200
57838SOL    HW279352   6.656   9.181  10.047 -2.5001  0.2511 -0.7986
57839SOL     OW79353  11.925   6.706   0.148 -0.4828 -0.1591 -0.3015
57839SOL    HW179354  11.878   6.686   0.067 -1.4684  0.9405 -0.0336
57839SOL    HW279355  11.987   6.634   0.159 -1.7957 -1.4258 -0.9325
57840SOL     OW79356   5.129   2.651   7.062 -0.6711  0.6411  0.0760
57840SOL    HW179357   5.097   2.571   7.104 -0.8546  0.5228 -0.2854
57840SOL    HW279358   5.107   2.640   6.970  1.3030  0.1068 -0.3686
57841SOL     OW79359   6.374   4.438   3.677 -0.1376 -0.0583  0.2313
57841SOL    HW179360   6.317   4.370   3.642  0.4833 -0.4241 -0.1062
57841SOL    HW279361   6.386   4.414   3.769  0.0584 -0.4035  0.1207
57842SOL     OW79362   6.381   1.191   4.500  0.0865  0.3521 -0.2692
57842SOL    HW179363   6.294   1.204   4.536  0.7926  0.3049  1.5696
57842SOL    HW279364   6.440   1.197   4.576  1.8090  1.5486 -1.6106
57843SOL     OW79365   4.213   8.115   0.628 -0.2342  0.4859  0.4429
57843SOL    HW179366   4.127   8.076   0.639 -0.2851  0.4141 -0.1780
57843SOL    HW279367   4.255   8.063   0.559 -0.1082  1.1849 -0.0205
57844SOL     OW79368   6.154   9.034  11.951 -0.3768  0.1820 -0.3749
57844SOL    HW179369   6.159   9.032  12.047 -0.2881 -0.3554 -0.3857
57844SOL    HW279370   6.151   9.127  11.929 -1.6780  0.2876  0.2065
57845SOL     OW79371  11.947   6.327   2.587  0.3106  0.1577 -0.2703
57845SOL    HW179372  11.925   6.415   2.618 -0.9904 -0.8272  1.8486
57845SOL    HW279373  12.027   6.304   2.635  0.1987 -0.1132 -0.2107
57846SOL     OW79374   6.701   6.574   4.851 -0.5293 -0.4580  0.0516
57846SOL    HW179375   6.619   6.584   4.803 -0.7848 -1.7224  0.1817
57846SOL    HW279376   6.692   6.630   4.928 -1.6242 -1.2098  0.4968
57847SOL     OW79377   8.648   6.802   3.328 -0.2164 -0.1243  0.0965
57847SOL    HW179378   8.606   6.790   3.243  0.8503  1.2244 -0.6786
57847SOL    HW279379   8.733   6.843   3.307  0.5171 -0.7092  1.7362
57848SOL     OW79380   2.441   7.590  11.432 -0.2592 -0.0827  0.4730
57848SOL    HW179381   2.393   7.673  11.428  1.7291  1.0802 -0.1399
57848SOL    HW279382   2.516   7.602  11.374 -1.1474 -3.1858 -1.6471
57849SOL     OW79383   4.320   4.993   0.995 -0.5739  0.7269 -0.1879
57849SOL    HW179384   4.326   4.931   1.068 -0.8224  1.9735  0.9203
57849SOL    HW279385   4.275   4.944   0.926  0.8108 -0.8991 -0.0065
57850SOL     OW79386   5.945   9.111   1.019  0.4559 -0.6982  0.0917
57850SOL    HW179387   5.914   9.024   0.994 -1.2518 -0.2195  0.3931
57850SOL    HW279388   6.040   9.108   1.006  0.4802 -2.7207  0.4806
57851SOL     OW79389   5.827   2.641   6.279  0.2496  0.2212  0.6774
57851SOL    HW179390   5.845   2.673   6.190  1.5422  0.5592  1.0389
57851SOL    HW279391   5.731   2.632   6.282  0.0665  1.4582 -0.3311
57852SOL     OW79392   5.965  10.508   7.532  0.4167 -0.5693  0.3238
57852SOL    HW179393   5.899  10.445   7.562  3.1541 -2.6140  2.6251
57852SOL    HW279394   6.004  10.466   7.455 -0.1399  0.0849 -0.3276
57853SOL     OW79395  12.327   4.630   0.681 -0.4556  0.0181  0.0539
57853SOL    HW179396  12.417   4.663   0.676 -0.9463  1.9905  2.2204
57853SOL    HW279397  12.280   4.698   0.729 -3.0448 -1.1433 -0.6678
57854SOL     OW79398   7.986   3.234   3.298 -0.1609 -0.1915  0.0582
57854SOL    HW179399   7.925   3.290   3.250 -0.6882 -0.0316  0.8876
57854SOL    HW279400   7.971   3.146   3.263 -0.4054 -0.0534 -0.1875
57855SOL     OW79401   9.194   0.154   6.695 -0.0321  0.0352  0.3353
57855SOL    HW179402   9.117   0.167   6.749  1.5186  2.3199  2.1746
57855SOL    HW279403   9.213   0.240   6.658  2.3354 -0.1504  0.9646
57856SOL     OW79404   6.143   1.494  11.314 -0.6187  0.3680 -0.4463
57856SOL    HW179405   6.074   1.558  11.294 -1.4152 -0.7881 -1.5910
57856SOL    HW279406   6.219   1.526  11.265 -1.1754  0.1788 -1.4847
57857SOL     OW79407  11.552   9.304   1.709 -0.1278 -0.1239  0.1354
57857SOL    HW179408  11.584   9.219   1.679  1.9808  0.9343 -0.8127
57857SOL    HW279409  11.614   9.331   1.777  0.8767  1.7812 -1.4282
57858SOL     OW79410  11.151   0.884   4.891 -0.1290  0.3646  0.1990
57858SOL    HW179411  11.240   0.851   4.874 -0.7560 -2.4360  1.8234
57858SOL    HW279412  11.129   0.932   4.811  3.3591  2.4952  0.3245
57859SOL     OW79413   0.110   2.226   1.364  0.3519  0.3307  0.3164
57859SOL    HW179414   0.178   2.216   1.298  1.3660  0.6126  1.2928
57859SOL    HW279415   0.099   2.138   1.400  0.9995  0.4923  0.9208
57860SOL     OW79416   7.092   3.965   7.122  0.2708  0.2244 -0.1153
57860SOL    HW179417   7.146   4.023   7.068 -1.6951  1.1664 -1.1918
57860SOL    HW279418   7.030   4.024   7.165  0.1022 -0.8033  1.1103
57861SOL     OW79419   6.344   0.726   1.153 -0.1142  0.3371  0.1854
57861SOL    HW179420   6.321   0.633   1.145 -1.0254  0.5953 -0.3707
57861SOL    HW279421   6.352   0.740   1.248  0.2091 -0.3433  0.2685
57862SOL     OW79422   2.056   4.002   6.401 -0.2044 -0.5000  0.6324
57862SOL    HW179423   2.013   4.083   6.428  2.3753  0.3762  2.5351
57862SOL    HW279424   2.082   4.017   6.310  0.5584  1.0272  1.0644
57863SOL     OW79425   2.498   4.777  10.508 -0.7861  0.4036 -0.2568
57863SOL    HW179426   2.468   4.863  10.539  0.7026  1.2011 -0.9337
57863SOL    HW279427   2.445   4.715  10.558 -2.3420  1.6946 -0.1845
57864SOL     OW79428   3.092   2.264   0.891 -0.3800  0.4170  0.7315
57864SOL    HW179429   3.015   2.297   0.845 -0.2963 -0.3078  0.0511
57864SOL    HW279430   3.126   2.340   0.938  0.5560  1.6592 -1.8139
57865SOL     OW79431  11.149   7.833  11.898  0.3201  0.0174 -0.1995
57865SOL    HW179432  11.114   7.874  11.819 -0.5224 -0.2443  0.0312
57865SOL    HW279433  11.212   7.896  11.932  0.1601  0.4452 -0.6882
57866SOL     OW79434   5.265  11.984   2.535  0.5213 -0.3896  0.0984
57866SOL    HW179435   5.265  12.074   2.502  2.3785 -1.1092 -2.1164
57866SOL    HW279436   5.219  11.933   2.468  2.5186 -1.5728 -0.4689
57867SOL     OW79437   5.094   4.469   0.737  0.1785  0.1391  0.2871
57867SOL    HW179438   5.030   4.539   0.751 -0.5719 -0.3816 -0.4616
57867SOL    HW279439   5.138   4.492   0.655  0.2141 -0.0635  0.2498
57868SOL     OW79440   7.553   0.542   9.600  0.1119 -0.0188 -0.4510
57868SOL    HW179441   7.648   0.552   9.604  0.0459  0.2957  2.4292
57868SOL    HW279442   7.537   0.499   9.517  2.9403 -1.5784 -0.3141
57869SOL     OW79443   7.060  11.036   5.935  0.4783  0.3537  0.6064
57869SOL    HW179444   7.000  11.043   6.009 -0.1239  1.5509  0.0267
57869SOL    HW279445   7.016  10.975   5.875  0.6946 -0.1675  0.9766
57870SOL     OW79446   7.553   9.066   9.071  0.1009  0.0855 -0.1966
57870SOL    HW179447   7.520   9.128   9.006 -0.5915  0.7242  0.7484
57870SOL    HW279448   7.494   9.074   9.145  0.3722 -1.2547  0.2007
57871SOL     OW79449   1.389   7.810   6.583  0.0151  0.1915 -0.6523
57871SOL    HW179450   1.364   7.865   6.509  0.6960  1.3002 -0.0766
57871SOL    HW279451   1.330   7.835   6.654  0.6576  0.5582 -0.2362
57872SOL     OW79452  11.673   0.950   4.731 -0.2479  0.0804  0.3112
57872SOL    HW179453  11.709   1.032   4.764  2.2008 -0.3943 -0.9252
57872SOL    HW279454  11.672   0.961   4.636  0.9687 -1.5962  0.0638
57873SOL     OW79455   8.203  12.292   2.668 -0.0668  0.1325  0.6062
57873SOL    HW179456   8.189  12.199   2.652  1.2421  0.2346 -1.6743
57873SOL    HW279457   8.123  12.334   2.637 -0.9542 -0.2355  2.3024
57874SOL     OW79458   4.342   0.842   9.209  0.2367  0.1726  0.4966
57874SOL    HW179459   4.274   0.862   9.273 -0.3701  1.2678 -0.4525
57874SOL    HW279460   4.294   0.808   9.133  0.8483 -0.0321  0.1964
57875SOL     OW79461   7.750   8.425   0.776  0.5971  0.1338 -0.3271
57875SOL    HW179462   7.826   8.413   0.833 -0.5495 -0.7112  1.0775
57875SOL    HW279463   7.675   8.398   0.829 -0.8083  1.7641 -1.3578
57876SOL     OW79464   9.541   4.003  11.275  0.2986 -0.1882 -0.2333
57876SOL    HW179465   9.478   4.023  11.344 -0.1470 -0.6723 -0.4924
57876SOL    HW279466   9.606   4.074  11.280  0.4717 -0.4014  0.9088
57877SOL     OW79467  11.746   8.897   5.086 -0.2283  0.9230 -0.3509
57877SOL    HW179468  11.676   8.855   5.036 -0.2882 -0.1916  0.6398
57877SOL    HW279469  11.778   8.966   5.028  1.5284 -1.9406 -3.1651
57878SOL     OW79470   6.979   3.291   2.497  0.4025 -0.1390 -0.5653
57878SOL    HW179471   6.974   3.355   2.568  0.8376 -0.4181 -0.2771
57878SOL    HW279472   6.995   3.343   2.418  0.0543  0.1585 -0.4420
57879SOL     OW79473  11.897   3.032   7.530 -0.7947  0.0472  0.3999
57879SOL    HW179474  11.832   3.051   7.462 -3.0070 -1.3850  2.0075
57879SOL    HW279475  11.850   3.042   7.612  1.8420  1.8620  1.8530
57880SOL     OW79476   4.929   1.123  11.555 -0.3796 -0.6887  0.1625
57880SOL    HW179477   4.933   1.183  11.630 -2.7778 -2.0215  1.4831
57880SOL    HW279478   4.960   1.039  11.589 -0.8979 -1.1669 -0.5204
57881SOL     OW79479   2.709   1.069  10.693  0.4444 -0.3938 -0.7749
57881SOL    HW179480   2.699   0.987  10.644 -0.8250 -0.8404  0.1943
57881SOL    HW279481   2.804   1.081  10.700  0.6518 -1.2074 -1.8450
57882SOL     OW79482   8.996   9.948  10.811 -0.1555  0.0977  0.2987
57882SOL    HW179483   9.021  10.027  10.764  0.2067  0.1587  0.5904
57882SOL    HW279484   9.045   9.878  10.769  0.7432  0.2570  1.0529
57883SOL     OW79485  12.269   2.850   3.547 -0.1718  0.3008  0.5872
57883SOL    HW179486  12.302   2.926   3.595 -0.9222  0.1836  1.3131
57883SOL    HW279487  12.188   2.826   3.593 -1.0283  0.3150 -0.8735
57884SOL     OW79488   0.654   3.345   5.296 -0.4093  0.0893 -0.3440
57884SOL    HW179489   0.616   3.405   5.232 -0.5972 -0.5759 -0.8647
57884SOL    HW279490   0.609   3.365   5.378  0.4958  1.5939 -0.1874
57885SOL     OW79491   7.827   3.145   6.831 -0.8380 -0.1588  0.2348
57885SOL    HW179492   7.870   3.187   6.906  0.0087 -1.6788  0.6621
57885SOL    HW279493   7.779   3.072   6.870  0.5125 -1.6565 -0.7688
57886SOL     OW79494  12.178   9.845   3.609 -0.2918  0.4526  0.0061
57886SOL    HW179495  12.155   9.815   3.697 -0.1042 -1.3266 -0.5062
57886SOL    HW279496  12.265   9.808   3.594  0.5207  2.3327 -0.2450
57887SOL     OW79497   2.446   9.320   6.887  0.8243 -0.4056  0.6517
57887SOL    HW179498   2.408   9.235   6.864 -1.5935  0.2520  1.8430
57887SOL    HW279499   2.422   9.332   6.979  0.9708  1.6599  0.4550
57888SOL     OW79500   4.380   6.087   7.600  0.1630  0.4727  0.4603
57888SOL    HW179501   4.387   6.147   7.526 -0.0030 -0.3026 -0.1938
57888SOL    HW279502   4.328   6.135   7.665 -0.9906  0.5822 -0.5135
57889SOL     OW79503   8.925   9.885   1.035  0.2089 -0.0119 -0.6666
57889SOL    HW179504   8.857   9.837   0.987 -0.5116  0.1757  0.1357
57889SOL    HW279505   8.967   9.940   0.970  1.7416 -2.4089 -1.8612
57890SOL     OW79506   3.447   7.594   8.626  0.4059 -0.1079 -0.1680
57890SOL    HW179507   3.500   7.641   8.690  1.4199 -1.7157  0.2489
57890SOL    HW279508   3.368   7.569   8.673  0.0437  0.8021 -0.2779
57891SOL     OW79509   5.813   0.662   1.693 -0.0655  0.0973  0.3694
57891SOL    HW179510   5.883   0.728   1.690 -0.3164  0.3387 -0.4311
57891SOL    HW279511   5.732   0.713   1.683 -0.1852 -0.4398 -1.8592
57892SOL     OW79512   1.484   3.633  11.967  0.3666 -0.5343 -0.4008
57892SOL    HW179513   1.466   3.580  12.045  0.0073  1.2429  0.7985
57892SOL    HW279514   1.414   3.611  11.906  0.1538 -1.3375  0.1121
57893SOL     OW79515   7.966   8.031   0.022 -0.7217 -0.7610  0.1955
57893SOL    HW179516   7.961   8.075   0.107  0.5921  0.7974 -0.4808
57893SOL    HW279517   7.925   7.946   0.037  0.1273 -0.8284  2.5663
57894SOL     OW79518   8.721   8.681   7.400 -0.2290  0.1470 -0.4071
57894SOL    HW179519   8.664   8.719   7.333 -1.2906 -2.5941 -1.2179
57894SOL    HW279520   8.809   8.708   7.374 -0.9232  2.6274 -0.4183
57895SOL     OW79521  11.871   2.502   2.813 -0.0018 -0.2591  0.3284
57895SOL    HW179522  11.963   2.526   2.822  0.0337 -0.4105  0.3744
57895SOL    HW279523  11.825   2.557   2.877  0.1857 -0.9668  1.0858
57896SOL     OW79524   6.734   2.072   6.004  0.5950 -0.7570 -0.4228
57896SOL    HW179525   6.682   2.055   6.083  0.5293  1.2876  0.0161
57896SOL    HW279526   6.754   1.985   5.970 -0.1761 -1.6662  1.3168
57897SOL     OW79527   1.006   9.289   0.519  0.1172  0.2870 -0.2608
57897SOL    HW179528   1.042   9.219   0.465  0.8336  1.5169 -1.4458
57897SOL    HW279529   0.912   9.274   0.519  0.2376 -0.4956 -0.7341
57898SOL     OW79530   9.437  10.802   6.882  0.1541  0.0962  0.1392
57898SOL    HW179531   9.370  10.803   6.813  0.0986  0.6682  0.2035
57898SOL    HW279532   9.424  10.883   6.931  0.1991 -0.3014  0.8257
57899SOL     OW79533  11.639   7.155   1.076  0.4635  0.2513  0.3423
57899SOL    HW179534  11.574   7.180   1.010 -1.0584 -3.5673  0.1198
57899SOL    HW279535  11.601   7.183   1.159 -0.0676  0.6361 -0.0282
57900SOL     OW79536   7.326   2.650   2.142  0.0181 -0.5535  0.4450
57900SOL    HW179537   7.253   2.613   2.190 -0.4815 -0.4504 -0.2249
57900SOL    HW279538   7.349   2.730   2.190 -0.6055 -0.3438  0.4009
57901SOL     OW79539   5.574   2.506   1.608 -0.3564  0.0507 -0.0324
57901SOL    HW179540   5.542   2.424   1.571  1.4986  0.0098 -1.7329
57901SOL    HW279541   5.518   2.573   1.569 -2.0069 -0.3408  1.5134
57902SOL     OW79542  11.441   7.956   6.542 -0.1824  0.5102 -0.3667
57902SOL    HW179543  11.379   7.887   6.521 -0.3053  0.4283  0.2619
57902SOL    HW279544  11.527   7.914   6.537 -0.0369  0.9390 -2.6092
57903SOL     OW79545   3.629   3.779   9.347 -0.3212 -0.6838  0.0662
57903SOL    HW179546   3.620   3.832   9.427 -2.2676 -1.6353  0.5380
57903SOL    HW279547   3.718   3.743   9.352 -0.4331 -0.8065  1.9013
57904SOL     OW79548   6.348   6.199   6.096 -0.5425 -0.5503 -0.5623
57904SOL    HW179549   6.389   6.285   6.093 -0.1349 -0.7580 -2.3000
57904SOL    HW279550   6.409   6.142   6.050  0.5129 -2.4191  2.8327
57905SOL     OW79551  11.058   1.495  10.618  0.2613  0.4131  0.2902
57905SOL    HW179552  11.139   1.446  10.629  0.8431  1.3296  0.1555
57905SOL    HW279553  11.030   1.474  10.528 -0.3079 -0.8325  0.7233
57906SOL     OW79554   0.489   0.562   7.840 -0.0778 -0.7023  0.3628
57906SOL    HW179555   0.516   0.471   7.852  1.5089 -0.4387 -0.9543
57906SOL    HW279556   0.571   0.612   7.838 -0.8138  0.5267 -0.8315
57907SOL     OW79557   2.519  11.392   7.941 -0.5040  0.2637  0.8337
57907SOL    HW179558   2.540  11.456   7.873 -0.7244  0.1180  0.6262
57907SOL    HW279559   2.476  11.443   8.009 -2.4016  0.0842 -0.1354
57908SOL     OW79560   8.311   8.677  10.938  0.6608 -0.2086 -0.1249
57908SOL    HW179561   8.334   8.722  10.856  0.6107 -1.1380 -0.6658
57908SOL    HW279562   8.251   8.737  10.982  1.0699  0.5235 -0.5300
57909SOL     OW79563   7.063  12.137   1.554 -0.4798  0.6694 -1.0050
57909SOL    HW179564   7.084  12.054   1.512 -0.0776  0.3829 -0.2469
57909SOL    HW279565   6.967  12.142   1.552 -0.6728 -1.0259  1.2312
57910SOL     OW79566   3.871   5.820  10.293 -0.5556 -0.0504  0.1652
57910SOL    HW179567   3.810   5.758  10.333  0.2049 -0.4217  0.7629
57910SOL    HW279568   3.848   5.818  10.200 -0.9890 -0.7177  0.2717
57911SOL     OW79569   5.070   1.205   1.017  0.0943  0.5103 -0.0397
57911SOL    HW179570   5.026   1.123   1.037  0.4614  0.3023 -0.0799
57911SOL    HW279571   5.045   1.224   0.926  2.0391 -0.8978 -0.9538
57912SOL     OW79572   0.855  10.529   3.091 -0.1645  0.3202  0.3991
57912SOL    HW179573   0.761  10.548   3.087 -0.2661 -0.3490 -2.3964
57912SOL    HW279574   0.896  10.611   3.064 -0.0311  0.1587  0.1078
57913SOL     OW79575   3.477   9.907   7.621 -0.2132  0.0649 -0.1878
57913SOL    HW179576   3.444   9.957   7.547 -0.2324  1.2227  0.5727
57913SOL    HW279577   3.404   9.905   7.683 -0.2387 -0.9970 -0.2345
57914SOL     OW79578   7.550   4.731   7.591 -0.4952 -0.5965 -0.1076
57914SOL    HW179579   7.610   4.736   7.516 -1.9715  2.4955 -1.2551
57914SOL    HW279580   7.569   4.646   7.631  2.8295 -0.8677 -1.8775
57915SOL     OW79581   0.227   5.482   6.031  0.1825  0.7244  0.4353
57915SOL    HW179582   0.234   5.391   6.002 -1.8428  0.2499  1.2792
57915SOL    HW279583   0.137   5.491   6.061  1.1794  2.1613  3.3092
57916SOL     OW79584   1.174   2.019   0.872  0.2081  0.0464  0.0514
57916SOL    HW179585   1.152   2.082   0.941 -0.4769  0.0198 -0.1275
57916SOL    HW279586   1.152   2.065   0.791 -0.6984 -0.5612 -0.0640
57917SOL     OW79587   8.008   0.439   0.898  0.3709 -0.1606  0.1560
57917SOL    HW179588   8.056   0.387   0.962  1.7725  0.3797 -0.4091
57917SOL    HW279589   8.048   0.526   0.903  0.6105 -0.1358 -1.5333
57918SOL     OW79590   8.011  11.589   7.800 -0.4111  0.1421  0.5506
57918SOL    HW179591   8.000  11.654   7.870 -2.0483 -0.4369  0.8705
57918SOL    HW279592   7.963  11.512   7.830 -2.1571  0.2549 -1.6673
57919SOL     OW79593   9.021   2.838  11.393  0.4403  0.5837  0.0407
57919SOL    HW179594   8.929   2.809  11.396  0.7743 -1.2528 -3.0259
57919SOL    HW279595   9.064   2.785  11.460 -0.4277 -0.0379  0.1319
57920SOL     OW79596   9.334   2.132  10.527  0.5719 -0.5169 -0.3220
57920SOL    HW179597   9.293   2.068  10.586  0.3517  0.7183  0.9053
57920SOL    HW279598   9.377   2.195  10.586 -0.4577  1.3001 -1.4386
57921SOL     OW79599   3.132   1.882   8.947  0.3861  0.0479 -0.2037
57921SOL    HW179600   3.167   1.906   8.861  0.0918  0.6960 -0.1501
57921SOL    HW279601   3.150   1.788   8.955  0.5642  0.0156 -0.9026
57922SOL     OW79602   3.987   8.941  11.664  0.1960 -0.2047  0.3092
57922SOL    HW179603   3.911   8.936  11.606  0.6727 -0.0120 -0.3460
57922SOL    HW279604   3.986   8.859  11.712 -1.3085  0.4343  1.4496
57923SOL     OW79605   0.243   8.929   0.824  0.6581  0.0205  0.3055
57923SOL    HW179606   0.270   8.849   0.869  1.8427  1.2084  1.8198
57923SOL    HW279607   0.171   8.963   0.877  0.8754  0.5008  0.2989
57924SOL     OW79608   5.988  11.080  10.447  0.4027 -0.2628  0.5882
57924SOL    HW179609   5.953  11.094  10.359 -0.2453 -2.5127  0.4111
57924SOL    HW279610   5.912  11.058  10.500  1.1228 -2.4281  0.8433
57925SOL     OW79611   1.203   4.763  11.134  0.0225 -0.1257  0.1514
57925SOL    HW179612   1.161   4.786  11.051 -0.2979 -1.1063  0.0242
57925SOL    HW279613   1.294   4.792  11.125  0.2535 -1.1447 -0.9530
57926SOL     OW79614   3.303   1.477  10.737 -0.5488  0.2134  0.3916
57926SOL    HW179615   3.305   1.522  10.821  0.4540 -0.7201  0.8986
57926SOL    HW279616   3.216   1.494  10.703 -0.6807  1.3210  1.2195
57927SOL     OW79617   3.465   0.184   3.424  0.3645  0.1150  0.8038
57927SOL    HW179618   3.480   0.094   3.395 -1.1700 -0.1811  0.8553
57927SOL    HW279619   3.386   0.179   3.478 -1.0173  1.7979 -0.8995
57928SOL     OW79620   7.605   4.851   0.815 -0.0378  0.7067 -0.3273
57928SOL    HW179621   7.605   4.824   0.723 -2.6657  1.3182 -0.5657
57928SOL    HW279622   7.584   4.772   0.864  1.3434  0.3848 -0.2018
57929SOL     OW79623   4.909  10.258   4.141 -0.0932  0.2074 -0.2703
57929SOL    HW179624   4.886  10.224   4.054 -0.0537 -1.7124  0.4201
57929SOL    HW279625   4.901  10.182   4.199  2.2658  0.8416  0.9995
57930SOL     OW79626   5.001  11.508   1.636  0.4163 -0.4997  0.3923
57930SOL    HW179627   5.002  11.603   1.636  2.8066 -0.4311 -1.6807
57930SOL    HW279628   4.926  11.485   1.581  1.5365  0.3087 -1.5616
57931SOL     OW79629   3.914   3.907   5.129 -0.5476 -0.3223 -0.2546
57931SOL    HW179630   3.881   3.960   5.201  0.1991 -1.4232  0.9268
57931SOL    HW279631   4.007   3.895   5.148  0.4243  1.7976 -2.9291
57932SOL     OW79632   6.886   1.688   3.473 -0.0458 -0.1052  0.1238
57932SOL    HW179633   6.838   1.760   3.431  1.5796 -0.2403 -2.1198
57932SOL    HW279634   6.972   1.725   3.492  0.6273 -1.2667 -0.5595
57933SOL     OW79635   9.874   1.086  10.398  0.0448 -0.0028 -0.3581
57933SOL    HW179636   9.842   1.091  10.488 -0.1627 -0.1780 -0.4205
57933SOL    HW279637   9.857   1.173  10.361  1.0004  0.3741  0.0527
57934SOL     OW79638  12.187   4.697   5.951 -0.6620 -0.5510 -0.1703
57934SOL    HW179639  12.151   4.784   5.971 -1.0150 -0.5284 -0.8879
57934SOL    HW279640  12.128   4.662   5.884 -0.8762 -1.5878  0.5391
57935SOL     OW79641  11.715   7.712   8.338  0.4563 -0.2966 -0.0449
57935SOL    HW179642  11.689   7.735   8.427 -2.8329 -1.9310 -0.4312
57935SOL    HW279643  11.731   7.796   8.295  0.5790  0.5839  1.6585
57936SOL     OW79644   9.633   7.297   3.427 -0.4410  0.3541 -0.5823
57936SOL    HW179645   9.592   7.369   3.474  0.0978  0.2485  0.0529
57936SOL    HW279646   9.664   7.238   3.495 -2.5610 -1.4761 -1.0717
57937SOL     OW79647   6.599   7.407  11.213  0.4159 -0.4065 -0.4318
57937SOL    HW179648   6.518   7.402  11.161 -0.6244 -1.4356  1.2037
57937SOL    HW279649   6.572   7.440  11.298  1.8988  0.1642 -0.1506
57938SOL     OW79650   1.624  11.358   9.162 -0.2378 -0.3071 -0.0195
57938SOL    HW179651   1.712  11.323   9.150  0.2426  0.4204  1.2267
57938SOL    HW279652   1.614  11.423   9.092  0.7746  0.6209  0.6587
57939SOL     OW79653   7.510   0.214   1.649 -0.6354 -0.1287  0.1132
57939SOL    HW179654   7.421   0.244   1.667 -0.7862  1.0823 -2.3105
57939SOL    HW279655   7.499   0.145   1.583  0.2054 -0.2960  0.1333
57940SOL     OW79656   3.456   4.397   2.932 -0.1452 -0.1789 -0.0215
57940SOL    HW179657   3.534   4.430   2.976 -0.4687  1.5818 -0.6845
57940SOL    HW279658   3.387   4.402   2.998  0.0891 -0.8121  0.2754
57941SOL     OW79659  11.468  10.357   4.783 -0.5323  0.0236 -0.0538
57941SOL    HW179660  11.378  10.384   4.799 -0.5020 -0.6301  1.3488
57941SOL    HW279661  11.498  10.322   4.867  1.0630  0.3199 -0.4659
57942SOL     OW79662   1.658   6.432   6.816 -0.1353 -0.1537  0.0273
57942SOL    HW179663   1.672   6.340   6.838 -1.6439 -0.1692  1.0682
57942SOL    HW279664   1.586   6.460   6.873 -0.3646  1.4067 -0.9583
57943SOL     OW79665   6.600   9.275   4.558 -0.1700  0.0533  0.5015
57943SOL    HW179666   6.684   9.268   4.512 -0.1010 -1.9607  0.8334
57943SOL    HW279667   6.554   9.346   4.513  0.5533 -0.7310 -1.6245
57944SOL     OW79668   5.941  12.048  10.988 -0.0998 -0.2030  0.6518
57944SOL    HW179669   5.860  12.100  10.989  0.2898  0.4219  0.4750
57944SOL    HW279670   5.938  11.997  11.069 -0.4912  0.0983  0.8307
57945SOL     OW79671   1.981   4.863   0.829  0.1777  0.2720  0.1905
57945SOL    HW179672   2.050   4.930   0.829  0.5932 -0.1512  0.5805
57945SOL    HW279673   1.971   4.840   0.921 -0.0491 -0.1140  0.0675
57946SOL     OW79674   2.598   1.612   7.215  0.6346 -0.3041  0.3548
57946SOL    HW179675   2.625   1.637   7.126  0.3472 -0.7946  0.1277
57946SOL    HW279676   2.551   1.689   7.248  0.9829 -0.0145  0.1906
57947SOL     OW79677  10.190   4.838   1.755 -0.6042  0.1128 -0.7968
57947SOL    HW179678  10.127   4.789   1.808 -0.6553 -0.8287 -1.6918
57947SOL    HW279679  10.148   4.922   1.739 -0.4478  0.5389  0.9029
57948SOL     OW79680   0.748   5.737   5.450  0.4094 -0.1763  0.2874
57948SOL    HW179681   0.691   5.661   5.446 -0.1904  0.2772  0.0625
57948SOL    HW279682   0.837   5.702   5.440 -0.0010 -0.5948 -2.8289
57949SOL     OW79683   0.857   5.341   7.402 -0.1909  0.6020 -0.1761
57949SOL    HW179684   0.789   5.287   7.442 -0.3898  1.5425  0.8218
57949SOL    HW279685   0.809   5.405   7.349 -0.0822  1.0799  0.2914
57950SOL     OW79686   8.321   7.355   3.926  0.2100 -1.0067 -0.6070
57950SOL    HW179687   8.255   7.287   3.911 -1.0515 -0.2152  1.0735
57950SOL    HW279688   8.382   7.315   3.988 -0.8924 -0.4250  0.8916
57951SOL     OW79689   9.289   7.006   1.224 -0.2968 -0.1344  0.3000
57951SOL    HW179690   9.381   6.983   1.229  0.1321  0.5685 -2.5513
57951SOL    HW279691   9.243   6.922   1.226  0.6172 -0.6960 -0.9041
57952SOL     OW79692   6.608   3.386  10.186 -0.2530 -0.0157  0.3476
57952SOL    HW179693   6.639   3.357  10.272 -0.4419 -2.3443 -0.3061
57952SOL    HW279694   6.514   3.399  10.197 -0.0901  0.9093  0.7683
57953SOL     OW79695  11.443  10.946  12.063 -0.7059  0.3673  0.0296
57953SOL    HW179696  11.415  10.854  12.061 -1.4387  0.3749  3.5197
57953SOL    HW279697  11.363  10.995  12.080 -0.3334  1.7706 -1.8516
57954SOL     OW79698   7.603   5.008   4.795 -0.5322  0.0243 -0.3054
57954SOL    HW179699   7.626   4.941   4.730  0.6651 -0.7001  0.8121
57954SOL    HW279700   7.554   4.960   4.862  1.1987  0.0003  1.0107
57955SOL     OW79701   5.957   4.587  11.785 -0.0268  0.3451 -0.1750
57955SOL    HW179702   6.034   4.633  11.819  0.0292 -0.4835  0.8777
57955SOL    HW279703   5.992   4.520  11.727  0.2926 -1.7033  2.2262
57956SOL     OW79704   4.198   9.879  12.210  0.5106 -0.2021 -0.4354
57956SOL    HW179705   4.234   9.915  12.291  0.4148  0.4665 -0.6906
57956SOL    HW279706   4.131   9.941  12.183  1.3558  0.2086 -1.6632
57957SOL     OW79707   2.333   9.702  11.350 -0.3083  0.0658 -0.7489
57957SOL    HW179708   2.274   9.768  11.387 -1.0798 -0.6969 -0.5955
57957SOL    HW279709   2.312   9.621  11.396  0.9313 -0.2095 -0.6304
57958SOL     OW79710   2.159   8.468   3.237  0.0205 -0.0937  0.2659
57958SOL    HW179711   2.091   8.481   3.171  0.2573 -2.4916 -0.5646
57958SOL    HW279712   2.113   8.481   3.321 -1.2300 -0.5914 -0.3048
57959SOL     OW79713  11.071   9.536   4.793 -0.2524  0.0300  0.0506
57959SOL    HW179714  11.075   9.477   4.718  0.5180 -1.3019  1.0977
57959SOL    HW279715  11.010   9.605   4.767 -0.9588 -1.0771 -1.3065
57960SOL     OW79716   3.702   0.730   1.025  0.4693  0.1043  0.1161
57960SOL    HW179717   3.674   0.817   1.053 -0.3642  0.0491 -0.5167
57960SOL    HW279718   3.695   0.676   1.104  1.2082  0.6496  0.5681
57961SOL     OW79719   2.759   0.050  11.120 -0.6490  0.1982 -0.5130
57961SOL    HW179720   2.825   0.069  11.186 -0.3878  0.1693 -0.7652
57961SOL    HW279721   2.778  -0.040  11.093 -0.2980  0.4601 -1.1533
57962SOL     OW79722   4.811   9.369   0.700 -0.5276  0.4651  0.3403
57962SOL    HW179723   4.894   9.410   0.724 -1.4478  3.8372 -1.6513
57962SOL    HW279724   4.818   9.351   0.606 -1.1963 -1.6659  0.6224
57963SOL     OW79725   3.851  11.862   4.736  0.3365 -0.3338  0.7583
57963SOL    HW179726   3.917  11.823   4.794 -0.8330 -0.6876  1.9143
57963SOL    HW279727   3.853  11.955   4.758  0.9532 -0.2218  0.2539
57964SOL     OW79728   3.796   2.009   0.987 -0.3429  0.5706  0.1479
57964SOL    HW179729   3.717   2.003   0.933 -0.2542  4.1599 -0.6598
57964SOL    HW279730   3.790   2.095   1.028  1.5818 -0.4246  2.7617
57965SOL     OW79731   9.033   1.867   4.972 -0.3543  0.1113 -0.4548
57965SOL    HW179732   9.098   1.796   4.970 -0.0458  0.2052  2.4182
57965SOL    HW279733   8.992   1.864   4.886  2.5753 -0.7640 -1.9444
57966SOL     OW79734   6.251  10.585   7.442 -0.4724  0.0699 -0.4516
57966SOL    HW179735   6.191  10.599   7.368 -2.3828  1.7043  1.2736
57966SOL    HW279736   6.205  10.522   7.498  0.7251 -0.7730 -0.3815
57967SOL     OW79737   9.190   3.185   1.174  0.1328  0.2966  0.2004
57967SOL    HW179738   9.145   3.109   1.212 -1.9947  1.1660 -0.4585
57967SOL    HW279739   9.127   3.222   1.113  2.0642  1.1698 -1.3552
57968SOL     OW79740  12.189   4.726   7.256  0.6092  0.0679  0.7656
57968SOL    HW179741  12.095   4.739   7.253  0.4848 -0.8449  0.4040
57968SOL    HW279742  12.220   4.755   7.171 -0.0539 -4.4708 -1.3345
57969SOL     OW79743  10.313  12.006   3.296  0.5200 -0.1275  0.0353
57969SOL    HW179744  10.307  11.956   3.214 -0.7912  1.9252 -1.2110
57969SOL    HW279745  10.288  12.095   3.272  0.7846  0.7116  2.5611
57970SOL     OW79746   9.337   7.490   4.035 -0.3376  0.0180 -0.2407
57970SOL    HW179747   9.424   7.530   4.034  0.0315 -0.7640 -1.1707
57970SOL    HW279748   9.336   7.437   4.114 -0.3999  0.9217  0.3764
57971SOL     OW79749   3.242   2.895   1.892  0.1864 -1.0217  0.1125
57971SOL    HW179750   3.189   2.878   1.814 -1.4365 -0.5613  1.0657
57971SOL    HW279751   3.235   2.814   1.943 -0.3643 -0.6362  0.6573
57972SOL     OW79752   7.285   2.808   8.452  0.6810 -0.5607 -0.1711
57972SOL    HW179753   7.322   2.894   8.435  0.2682 -0.4903 -0.7283
57972SOL    HW279754   7.194   2.825   8.475  1.2700 -0.6044  2.5213
57973SOL     OW79755   6.426   2.831   5.586 -0.0197 -0.1418  0.2314
57973SOL    HW179756   6.409   2.874   5.502  2.0671 -2.7071 -1.7046
57973SOL    HW279757   6.351   2.773   5.598 -0.5591  0.5782  0.4228
57974SOL     OW79758   5.064   9.774   0.828  0.1124  1.2778 -0.4350
57974SOL    HW179759   5.105   9.851   0.868  1.5838  0.4444 -0.2450
57974SOL    HW279760   5.113   9.760   0.747  0.5223  0.0098  0.0041
57975SOL     OW79761   7.810   1.949   6.478 -0.4001  0.0954  0.3161
57975SOL    HW179762   7.732   1.971   6.427 -0.5942  0.1167  0.6226
57975SOL    HW279763   7.832   2.030   6.523 -0.1528  0.1111  0.1719
57976SOL     OW79764   0.073   8.777   4.572  0.3180 -0.6335 -0.3712
57976SOL    HW179765   0.105   8.704   4.625 -0.0260  0.5869  1.6724
57976SOL    HW279766   0.123   8.773   4.491  2.6450 -1.2318  0.9930
57977SOL     OW79767  11.670   3.962   0.431  0.2029 -0.0736  0.2030
57977SOL    HW179768  11.604   3.972   0.500 -0.2517  0.7837 -0.3366
57977SOL    HW279769  11.619   3.964   0.350  0.8259 -0.2042 -0.1930
57978SOL     OW79770   1.634   4.964   5.292  0.3797  0.1906  0.6093
57978SOL    HW179771   1.557   4.912   5.314  0.7910 -0.6435  0.1427
57978SOL    HW279772   1.701   4.900   5.269  0.1070  0.8833 -2.7330
57979SOL     OW79773   5.526   9.904   6.229 -0.5469 -0.1845  0.0616
57979SOL    HW179774   5.459   9.859   6.281 -2.2391  2.8722  0.7370
57979SOL    HW279775   5.550   9.980   6.281 -0.4710  1.6888 -2.5370
57980SOL     OW79776   0.524  12.188   9.997  0.1147 -0.1120 -0.2920
57980SOL    HW179777   0.528  12.198   9.902  1.9489 -0.2905 -0.2543
57980SOL    HW279778   0.612  12.163  10.023  0.1915  1.9176  1.7096
57981SOL     OW79779  10.472   2.672   2.241 -0.4392 -0.2527 -0.3739
57981SOL    HW179780  10.529   2.600   2.268  0.6477  0.0286 -1.7777
57981SOL    HW279781  10.383   2.639   2.253  0.0038 -0.8638  1.4634
57982SOL     OW79782   8.382   3.414   1.268  0.3448 -0.2750 -0.4595
57982SOL    HW179783   8.304   3.371   1.233  0.0459  0.6920 -1.0440
57982SOL    HW279784   8.368   3.507   1.250  0.9211  0.0906  0.8404
57983SOL     OW79785   4.767   8.809   7.140 -0.5385  0.5401  0.6201
57983SOL    HW179786   4.770   8.800   7.236  0.2926 -1.2113  0.4768
57983SOL    HW279787   4.679   8.779   7.116 -0.8499  1.2582  0.8494
57984SOL     OW79788   2.245   9.454  12.088  0.1714 -0.4283  0.2562
57984SOL    HW179789   2.267   9.383  12.028  0.8260 -1.4029  1.5921
57984SOL    HW279790   2.286   9.429  12.171 -1.0714  0.6517  1.2364
57985SOL     OW79791   3.756   8.858   6.714 -0.6936  0.4501 -0.3604
57985SOL    HW179792   3.750   8.803   6.792  2.6944 -0.6249 -0.6886
57985SOL    HW279793   3.731   8.945   6.744 -1.2512 -0.2882  1.4635
57986SOL     OW79794   3.863   9.130   9.341  0.1222  0.0296 -0.2810
57986SOL    HW179795   3.805   9.110   9.267 -1.8888 -1.6313  1.6059
57986SOL    HW279796   3.951   9.125   9.305 -0.7940 -0.3584 -2.6260
57987SOL     OW79797  11.637   2.164  11.842 -0.2478 -0.1806 -0.0374
57987SOL    HW179798  11.642   2.087  11.897  2.2309  0.6169  0.9970
57987SOL    HW279799  11.599   2.232  11.898 -1.8579 -0.4276 -0.7584
57988SOL     OW79800   7.010   2.628   0.018  0.2650 -0.6799  0.5460
57988SOL    HW179801   7.087   2.670  -0.020  0.2403  0.9756  2.1846
57988SOL    HW279802   6.955   2.606  -0.058 -0.1246  3.0952 -0.4819
57989SOL     OW79803   1.146  11.751   3.123 -0.0615  0.1471  0.0226
57989SOL    HW179804   1.126  11.810   3.051 -0.5154  1.8747  1.4927
57989SOL    HW279805   1.199  11.803   3.183 -2.0795 -0.2156  2.3040
57990SOL     OW79806   9.747   2.743   8.442  0.1627 -0.7071 -0.3922
57990SOL    HW179807   9.728   2.661   8.488  0.9855 -0.5956  0.1602
57990SOL    HW279808   9.831   2.772   8.478  0.4752 -0.2481 -1.4587
57991SOL     OW79809   1.472   6.706   0.636 -0.4716 -0.1512 -0.3542
57991SOL    HW179810   1.460   6.715   0.731  0.5077 -0.3477 -0.2010
57991SOL    HW279811   1.528   6.628   0.626 -1.1240 -0.5372 -1.1336
57992SOL     OW79812   6.402   2.475  10.010 -0.2960 -0.1121  0.6605
57992SOL    HW179813   6.414   2.380  10.017  2.0687  0.0228 -0.4660
57992SOL    HW279814   6.488   2.507   9.981 -1.4552  2.2008 -0.4081
57993SOL     OW79815   8.893   8.262   6.465  0.1350 -0.3246 -0.0441
57993SOL    HW179816   8.966   8.291   6.520  0.0388  3.2078 -1.5419
57993SOL    HW279817   8.820   8.318   6.490 -0.8767 -0.9771 -1.4030
57994SOL     OW79818  11.754   3.020   1.158  0.5121 -0.3823 -0.5393
57994SOL    HW179819  11.691   3.013   1.086  0.4279 -0.1164 -0.4921
57994SOL    HW279820  11.831   3.060   1.118  0.4031 -0.0744 -0.4446
57995SOL     OW79821   1.330  10.687   2.476 -0.0564  0.0079  0.0765
57995SOL    HW179822   1.347  10.686   2.381 -0.2320 -2.6686 -0.0051
57995SOL    HW279823   1.412  10.657   2.515  0.4432  2.3134  0.9422
57996SOL     OW79824   0.975   5.245  10.196 -0.2614  0.1678 -0.0938
57996SOL    HW179825   1.016   5.310  10.254  0.3851  0.4772 -0.8781
57996SOL    HW279826   0.958   5.293  10.115  0.2324 -0.6428 -0.6855
57997SOL     OW79827   1.096   7.507   9.179  0.0699  0.0161  0.6144
57997SOL    HW179828   1.178   7.550   9.160  0.1761 -0.2953  0.3603
57997SOL    HW279829   1.041   7.575   9.219  0.0853  0.4900 -0.1516
57998SOL     OW79830   2.438   9.167   9.530  0.1996  0.5412  0.1998
57998SOL    HW179831   2.425   9.078   9.497  1.8286 -0.1197  1.1959
57998SOL    HW279832   2.488   9.155   9.611  2.0705  2.4265 -0.5966
57999SOL     OW79833   7.882  10.419   6.382  0.0677  0.1076 -0.5995
57999SOL    HW179834   7.955  10.361   6.404  1.1004  1.2495 -0.9213
57999SOL    HW279835   7.894  10.496   6.437 -0.5610  0.5732 -1.0916
58000SOL     OW79836   9.939   5.114   0.429  0.1750  0.2363  0.5750
58000SOL    HW179837   9.872   5.141   0.367 -1.7924 -0.6311  2.2307
58000SOL    HW279838  10.004   5.067   0.376 -1.5395 -0.6415 -0.8129
58001SOL     OW79839   1.096   3.110   5.756 -0.6162  0.2555 -0.2673
58001SOL    HW179840   1.177   3.142   5.716 -0.8678  0.8498 -0.3197
58001SOL    HW279841   1.125   3.051   5.825 -0.0971  1.2918  0.4216
58002SOL     OW79842   1.329   7.920   3.510  0.0574 -0.0504  0.1785
58002SOL    HW179843   1.415   7.907   3.551  0.0921  1.4473  0.6228
58002SOL    HW279844   1.340   7.889   3.420  0.0646 -3.1691  1.1150
58003SOL     OW79845   8.021   4.555  12.069  0.3594 -0.3285 -0.5259
58003SOL    HW179846   7.936   4.599  12.079 -0.2322 -1.6532  0.5641
58003SOL    HW279847   8.035   4.552  11.974 -0.5450  0.3884 -0.6998
58004SOL     OW79848  10.972   0.362  12.117 -0.5914 -0.3535  0.4301
58004SOL    HW179849  10.968   0.359  12.212 -1.8118 -1.2344  0.3755
58004SOL    HW279850  10.881   0.377  12.089 -0.2822 -0.2832 -0.5924
58005SOL     OW79851   5.952  12.029   9.533  0.5565  0.0950 -0.3690
58005SOL    HW179852   6.026  11.968   9.538  0.9067  0.6055  1.0416
58005SOL    HW279853   5.993  12.115   9.526  0.2057  0.5837  2.5089
58006SOL     OW79854   1.349   1.802   0.799  0.2954  0.5576  0.2398
58006SOL    HW179855   1.310   1.887   0.818  0.2736  0.3215  1.2974
58006SOL    HW279856   1.435   1.823   0.762  0.4717  1.0367  0.9045
58007SOL     OW79857  11.471   6.026   6.316 -0.8216  0.7872 -0.2352
58007SOL    HW179858  11.542   6.061   6.262 -0.7458  0.4561 -0.3578
58007SOL    HW279859  11.437   5.952   6.265  0.2878 -0.5470  0.8476
58008SOL     OW79860   2.423  10.980  10.881  0.3825 -0.5255 -0.2960
58008SOL    HW179861   2.512  10.962  10.850  0.1414 -1.8063 -0.2743
58008SOL    HW279862   2.436  11.041  10.954  1.2964 -1.1912  0.1163
58009SOL     OW79863   8.640  12.314   7.042 -0.0613 -0.0539  0.7865
58009SOL    HW179864   8.687  12.387   7.081  3.2518 -2.2366  1.2941
58009SOL    HW279865   8.681  12.236   7.079 -1.0112 -2.2357 -2.3201
58010SOL     OW79866   7.417  10.912   7.493  0.2123 -0.0554 -0.3818
58010SOL    HW179867   7.482  10.844   7.477  0.9190  0.6948 -0.7706
58010SOL    HW279868   7.389  10.899   7.583 -1.6118 -2.4968 -1.1792
58011SOL     OW79869   5.602   5.368   8.814 -0.5841  0.3583  0.3880
58011SOL    HW179870   5.587   5.356   8.908 -0.9451  0.8911  0.4060
58011SOL    HW279871   5.560   5.292   8.773 -4.2388  2.1504  0.3770
58012SOL     OW79872   5.065   1.425   5.590 -0.0954  0.0092  0.0344
58012SOL    HW179873   5.057   1.441   5.684  1.6188  0.7565  0.1027
58012SOL    HW279874   4.986   1.463   5.551  0.1826  1.6084  0.9820
58013SOL     OW79875   4.912   7.569   2.280 -0.7271  0.4327 -0.5765
58013SOL    HW179876   4.939   7.642   2.335 -0.7214 -0.2157  0.3006
58013SOL    HW279877   4.947   7.491   2.324 -1.3595 -0.1569 -1.0957
58014SOL     OW79878   0.252  11.676   7.575  0.3830  0.3794 -0.2729
58014SOL    HW179879   0.228  11.769   7.570  0.7458  0.4285 -1.4729
58014SOL    HW279880   0.168  11.630   7.577  0.1968  0.6942 -0.6585
58015SOL     OW79881   3.858   3.498   3.090  0.3151 -0.1404  0.2331
58015SOL    HW179882   3.763   3.509   3.099  0.4365 -0.7010  4.0800
58015SOL    HW279883   3.890   3.584   3.063 -1.2410  0.0140 -1.3043
58016SOL     OW79884   5.678   2.609   3.407  0.0749  0.1415  0.2184
58016SOL    HW179885   5.646   2.677   3.348 -0.0070 -1.1430 -1.2754
58016SOL    HW279886   5.636   2.529   3.377  0.5032 -0.6719  1.6657
58017SOL     OW79887  11.101   2.823   3.233 -0.1062 -0.5355 -0.4291
58017SOL    HW179888  11.078   2.771   3.156  0.3125 -1.8480  0.2886
58017SOL    HW279889  11.157   2.892   3.200 -0.4827 -0.6711 -1.3896
58018SOL     OW79890   5.416   5.617   4.162  0.4797 -0.2962 -0.2418
58018SOL    HW179891   5.375   5.686   4.109 -0.0309 -0.1643  0.3047
58018SOL    HW279892   5.500   5.653   4.189  0.0446  0.2911  0.3743
58019SOL     OW79893   0.652   1.710   6.315 -0.0867  0.3430  0.1444
58019SOL    HW179894   0.712   1.694   6.387  1.1500  1.3198 -0.6363
58019SOL    HW279895   0.675   1.644   6.249 -1.7843 -1.1170  0.9119
58020SOL     OW79896   3.197  11.686   6.633 -0.1122 -0.0645 -0.1343
58020SOL    HW179897   3.186  11.638   6.551  0.8598 -1.5599  0.5573
58020SOL    HW279898   3.110  11.687   6.672 -0.4733  0.1880 -0.9323
58021SOL     OW79899   3.182   9.902   1.744  0.0347 -0.5099  0.0429
58021SOL    HW179900   3.111   9.847   1.710 -0.7951  0.1329  0.6958
58021SOL    HW279901   3.207   9.957   1.669  1.5054 -2.3400 -0.8990
58022SOL     OW79902   3.994   5.082   1.978 -0.3097 -0.4370  0.0846
58022SOL    HW179903   4.025   5.168   1.948  0.1291 -1.1130 -1.5088
58022SOL    HW279904   4.073   5.028   1.982 -0.7376 -1.0783 -0.0419
58023SOL     OW79905   8.510   6.094   3.754  0.2909 -0.1580 -0.3082
58023SOL    HW179906   8.527   6.097   3.848 -0.6877 -1.1224 -0.0686
58023SOL    HW279907   8.525   6.003   3.729 -1.3291 -0.3692 -0.6725
58024SOL     OW79908   2.385   5.533   8.937 -0.3273  0.2908 -0.3769
58024SOL    HW179909   2.402   5.456   8.991 -2.2216  0.1718  0.1278
58024SOL    HW279910   2.291   5.529   8.919 -0.1514  1.5838 -1.7616
58025SOL     OW79911   2.597   7.666   1.361 -0.2100  0.0395  0.1076
58025SOL    HW179912   2.680   7.624   1.341 -0.4339  0.2575 -1.3681
58025SOL    HW279913   2.554   7.605   1.422  0.0553 -1.2320 -0.9256
58026SOL     OW79914   3.073   5.825  11.719 -0.6765 -0.2016  0.0579
58026SOL    HW179915   3.036   5.886  11.784 -2.6726 -1.0219 -0.2235
58026SOL    HW279916   3.081   5.742  11.767  0.7576 -0.0714  0.0720
58027SOL     OW79917   9.756   6.511   4.211  0.3133  0.2023  0.6367
58027SOL    HW179918   9.830   6.530   4.270  1.2063 -0.5747 -0.1994
58027SOL    HW279919   9.748   6.590   4.157  1.0395  0.0106  0.2283
58028SOL     OW79920   1.063  11.948  11.637 -0.0602 -0.2118 -0.1247
58028SOL    HW179921   1.098  12.032  11.667 -1.1609  0.4289 -0.5501
58028SOL    HW279922   1.101  11.883  11.697  1.0539  0.5461  0.0114
58029SOL     OW79923  11.793  11.842   9.763  0.1067  0.3340  0.0101
58029SOL    HW179924  11.886  11.847   9.780 -0.0952 -0.7522  1.6429
58029SOL    HW279925  11.754  11.907   9.821 -0.3226 -1.0429  1.3348
58030SOL     OW79926   3.690   5.917   1.469 -0.2599 -0.3068  0.5183
58030SOL    HW179927   3.703   5.998   1.420  0.7844 -1.2504 -0.8450
58030SOL    HW279928   3.749   5.924   1.545  0.4695 -0.1331 -0.0540
58031SOL     OW79929   8.387   6.543   4.788  0.0119  0.5692  0.2940
58031SOL    HW179930   8.338   6.572   4.865  1.3957  1.6021  0.8276
58031SOL    HW279931   8.385   6.617   4.728  0.0391  0.2419 -0.1160
58032SOL     OW79932   1.714   8.106   3.097 -0.6302 -0.2237 -0.5857
58032SOL    HW179933   1.772   8.183   3.100  0.2918 -0.8285 -1.8568
58032SOL    HW279934   1.737   8.056   3.175 -0.6472  0.3617 -0.1918
58033SOL     OW79935  12.139   7.738   0.624 -0.0805  0.1339 -0.0773
58033SOL    HW179936  12.216   7.730   0.680 -0.4126 -2.0113  0.1482
58033SOL    HW279937  12.091   7.656   0.637 -1.2808  0.4893 -1.8793
58034SOL     OW79938  11.350  10.264   6.976 -0.6653 -0.2971  0.1513
58034SOL    HW179939  11.375  10.274   7.068  0.0953 -1.2115  0.0552
58034SOL    HW279940  11.399  10.332   6.930  0.7178 -1.2750  0.1351
58035SOL     OW79941   2.047   3.127   5.726 -0.2706  0.3085 -0.6983
58035SOL    HW179942   2.142   3.118   5.716 -0.3045  1.2736 -2.2531
58035SOL    HW279943   2.033   3.136   5.820  1.2531  0.7865 -0.4933
58036SOL     OW79944   7.796   8.244   4.503  0.2801  0.6894 -0.3686
58036SOL    HW179945   7.777   8.154   4.479  1.8226  0.4510 -0.7645
58036SOL    HW279946   7.881   8.241   4.546  1.0438  2.1191 -1.6531
58037SOL     OW79947   6.589   1.910   9.922 -0.3207 -0.0729  0.0324
58037SOL    HW179948   6.597   1.815   9.917 -1.6320 -0.1794 -0.2434
58037SOL    HW279949   6.499   1.929   9.895  0.1563  1.3114 -0.6990
58038SOL     OW79950   1.238   8.915   0.011 -0.0965  0.3565  0.5434
58038SOL    HW179951   1.202   8.952  -0.070  1.0072 -1.6095 -0.9378
58038SOL    HW279952   1.327   8.951   0.016  0.7238 -1.3783 -0.5199
58039SOL     OW79953   7.119   7.725  11.367 -0.3597  0.7169  0.6826
58039SOL    HW179954   7.059   7.791  11.402  1.0683  2.2843  0.3388
58039SOL    HW279955   7.157   7.684  11.445  0.3945  1.8994  0.9538
58040SOL     OW79956   8.651   3.297   7.973 -0.2604  0.1414 -0.5404
58040SOL    HW179957   8.628   3.387   7.997 -1.7952 -0.3706  0.0423
58040SOL    HW279958   8.739   3.285   8.007  0.0377  1.4846 -0.7926
58041SOL     OW79959   7.985   3.333   4.216 -0.5923 -0.4906 -0.4915
58041SOL    HW179960   7.904   3.377   4.242 -1.7827 -1.1919 -2.7297
58041SOL    HW279961   8.003   3.271   4.287 -2.9109 -1.3971 -0.5988
58042SOL     OW79962   0.482   5.043   9.774  0.4326  0.2049 -0.1624
58042SOL    HW179963   0.500   5.137   9.773  1.7633  0.0117  1.1780
58042SOL    HW279964   0.511   5.011   9.689 -0.4146  1.0500 -0.7851
58043SOL     OW79965   5.853   6.992   4.054  0.1422  0.3874  0.4064
58043SOL    HW179966   5.915   6.947   3.997 -1.1114 -0.2290 -0.5213
58043SOL    HW279967   5.868   7.085   4.038 -0.0482  0.2238 -0.8124
58044SOL     OW79968   3.952   4.694  11.060  0.1405 -0.5270  0.4977
58044SOL    HW179969   3.888   4.758  11.092  0.1751 -0.8557  1.2302
58044SOL    HW279970   3.898   4.622  11.026  0.1202 -1.0508  1.6228
58045SOL     OW79971   4.606   1.706   8.206  0.1649  0.0922 -0.2016
58045SOL    HW179972   4.612   1.671   8.295  1.9559 -0.3919 -0.4667
58045SOL    HW279973   4.697   1.723   8.181 -0.1392 -1.2719 -2.5126
58046SOL     OW79974   4.397   2.040   5.174 -0.5345  0.2732  0.0184
58046SOL    HW179975   4.382   1.952   5.208 -3.4669 -0.3583 -2.5259
58046SOL    HW279976   4.454   2.027   5.098 -0.9228  0.5770 -0.3293
58047SOL     OW79977   7.589   8.716  10.330 -0.4311  0.1076 -0.0810
58047SOL    HW179978   7.499   8.740  10.307 -0.7514 -0.3137  0.6987
58047SOL    HW279979   7.643   8.781  10.286 -1.1505  0.7294 -0.0622
58048SOL     OW79980  11.599   9.602   2.141  0.1051  0.7968 -0.1476
58048SOL    HW179981  11.647   9.681   2.164 -0.1171  1.2345 -1.1372
58048SOL    HW279982  11.515   9.634   2.107  0.0817  0.1543 -0.7222
58049SOL     OW79983   3.998  11.352   3.966  0.9053  0.3765 -0.4001
58049SOL    HW179984   3.975  11.402   3.888 -0.3657  1.3365  0.5575
58049SOL    HW279985   4.034  11.416   4.027 -1.9811  0.5305  1.3597
58050SOL     OW79986   6.902   3.458   1.205 -0.0904  0.7072 -0.6348
58050SOL    HW179987   6.865   3.444   1.118  0.8535  0.6150 -1.0372
58050SOL    HW279988   6.900   3.372   1.247  1.3292  0.2931 -1.3421
58051SOL     OW79989   4.045  10.464   9.018  0.0260 -0.0608  0.0597
58051SOL    HW179990   4.075  10.438   9.105  1.1161  2.1468  0.4123
58051SOL    HW279991   3.957  10.498   9.031  0.2661  0.4589  0.3504
58052SOL     OW79992   1.707   7.661   5.583 -0.1596  0.1697 -0.4115
58052SOL    HW179993   1.616   7.652   5.611 -1.2078 -0.2946 -3.6049
58052SOL    HW279994   1.751   7.584   5.621 -1.8371 -1.3170 -1.3432
58053SOL     OW79995   5.348   5.868   9.554 -0.1998 -0.4525  0.1463
58053SOL    HW179996   5.425   5.853   9.498 -0.5386  0.0542 -0.4688
58053SOL    HW279997   5.284   5.910   9.496 -1.1122 -1.2753  0.5306
58054SOL     OW79998   4.507   6.703   7.361  0.3437  0.3007 -0.3852
58054SOL    HW179999   4.528   6.789   7.399 -0.8484  0.5914 -0.3660
58054SOL    HW280000   4.448   6.723   7.289 -0.2572 -0.5441 -0.1317
58055SOL     OW80001   0.266   5.215  10.672 -0.2986 -0.6098 -0.1551
58055SOL    HW180002   0.233   5.254  10.753 -1.0599  0.1209 -0.7982
58055SOL    HW280003   0.238   5.124  10.675  0.9010 -0.9645  1.0508
58056SOL     OW80004   8.182   4.787  11.037 -0.1076  0.5489  0.0329
58056SOL    HW180005   8.094   4.823  11.033  0.2407  1.3179 -1.0256
58056SOL    HW280006   8.221   4.829  11.114 -0.5676  0.3911  0.3591
58057SOL     OW80007  10.994  11.187   0.672  0.9649 -0.2561 -0.3506
58057SOL    HW180008  11.033  11.273   0.661  1.5852 -0.2557  1.4769
58057SOL    HW280009  10.900  11.204   0.680  0.6783 -0.1082 -3.2034
58058SOL     OW80010  11.245   2.420   0.334 -0.1531  0.1526 -0.4661
58058SOL    HW180011  11.335   2.447   0.353 -0.4199  1.3844 -0.9240
58058SOL    HW280012  11.212   2.484   0.272 -1.0485 -0.8304 -1.0474
58059SOL     OW80013   2.681   0.837   2.251 -0.0579  0.3877  0.7471
58059SOL    HW180014   2.745   0.908   2.239  0.2494  0.0320  0.2447
58059SOL    HW280015   2.688   0.785   2.171 -1.3031  0.5985  0.4943
58060SOL     OW80016   4.793   6.418   1.844 -0.0368 -0.1564 -0.1525
58060SOL    HW180017   4.762   6.328   1.840 -0.3330 -0.1044  0.8055
58060SOL    HW280018   4.846   6.429   1.765  0.8222 -1.4776  0.2063
58061SOL     OW80019   2.370   8.668   1.366 -0.1344 -0.1541  0.0987
58061SOL    HW180020   2.389   8.761   1.350 -1.4770  0.4643  1.6832
58061SOL    HW280021   2.422   8.646   1.443  1.2809 -1.1755 -1.1039
58062SOL     OW80022   8.842   7.931   4.927 -0.1094 -0.2681  0.8433
58062SOL    HW180023   8.761   7.887   4.899  0.5672 -0.6400 -0.6562
58062SOL    HW280024   8.825   7.959   5.017 -2.1454  0.2210  0.3596
58063SOL     OW80025   6.180   0.626   1.957  0.3102  0.9378 -0.5510
58063SOL    HW180026   6.161   0.718   1.972  1.1464  1.1250 -0.6065
58063SOL    HW280027   6.180   0.616   1.862 -0.9459  0.6150 -0.5405
58064SOL     OW80028  11.530   8.299   0.121 -0.1611  0.4665 -0.6946
58064SOL    HW180029  11.602   8.327   0.177 -1.2216  1.3577  0.2655
58064SOL    HW280030  11.531   8.203   0.127 -1.3471  0.5232  2.3954
58065SOL     OW80031   8.071   3.206   5.694  0.2356  0.3483 -0.2977
58065SOL    HW180032   8.081   3.165   5.779 -0.5971 -3.3662 -1.8276
58065SOL    HW280033   8.143   3.270   5.690  0.7264  0.1517  2.8326
58066SOL     OW80034   2.943   4.782   6.364 -0.0423  0.2650  0.1239
58066SOL    HW180035   2.925   4.827   6.447 -2.7851 -1.1037  0.3920
58066SOL    HW280036   2.920   4.846   6.297  1.5888  1.1647  0.3733
58067SOL     OW80037   1.104   1.615  11.117 -0.0299 -0.1779  0.0439
58067SOL    HW180038   1.138   1.529  11.143  1.7221  0.9597  1.8073
58067SOL    HW280039   1.054   1.645  11.192  0.5678  0.9072  0.0393
58068SOL     OW80040   0.185   1.324   7.428  0.1583 -0.3261  0.4578
58068SOL    HW180041   0.215   1.301   7.340  0.4996  0.9756  0.2123
58068SOL    HW280042   0.174   1.240   7.472  0.4063 -0.9826 -0.6875
58069SOL     OW80043  10.691   6.944   8.107 -0.2718  0.1305  0.1598
58069SOL    HW180044  10.746   7.002   8.054 -0.3900  1.4554  1.4317
58069SOL    HW280045  10.663   6.876   8.046  0.2558  1.1465 -1.2750
58070SOL     OW80046   0.659  10.421   0.217 -0.2248 -0.2142  0.2840
58070SOL    HW180047   0.633  10.483   0.284 -1.1861 -2.0123  1.6549
58070SOL    HW280048   0.621  10.455   0.136 -1.2648  0.6245  1.1038
58071SOL     OW80049  11.051   7.885   1.205  0.3448  0.0219  0.0743
58071SOL    HW180050  10.973   7.833   1.186  0.7808 -0.4612 -0.4458
58071SOL    HW280051  11.118   7.851   1.145  0.7812  0.8545  0.0696
58072SOL     OW80052   0.771  10.991   8.127 -0.5512  0.3599 -0.1645
58072SOL    HW180053   0.842  11.005   8.189 -0.6871  2.7691 -0.4508
58072SOL    HW280054   0.693  10.979   8.182 -0.1324 -1.3556  0.1274
58073SOL     OW80055   5.051   4.055   6.916  0.2590 -0.0617  0.0193
58073SOL    HW180056   4.975   4.113   6.913 -0.6516 -1.1108  1.3987
58073SOL    HW280057   5.069   4.043   7.009  1.3687 -0.8054 -0.2654
58074SOL     OW80058  11.993   2.375   9.891 -0.0170  0.4139 -0.2938
58074SOL    HW180059  12.003   2.470   9.895  0.7704  0.2959  1.7299
58074SOL    HW280060  11.942   2.359   9.811  2.4688  2.2810 -2.4620
58075SOL     OW80061  11.213  10.970   2.057  0.0166 -0.1044 -0.0217
58075SOL    HW180062  11.270  10.932   2.124  1.5358  0.7312 -0.7836
58075SOL    HW280063  11.266  10.967   1.977 -0.4470  1.9954 -0.4615
58076SOL     OW80064   0.518   7.504   4.203 -0.8146 -1.1115  0.1930
58076SOL    HW180065   0.591   7.545   4.249 -0.5918 -0.3402 -0.8201
58076SOL    HW280066   0.559   7.442   4.143 -0.6754  1.4936 -2.6458
58077SOL     OW80067   3.706   2.123   2.729  0.1312  0.0393 -0.7227
58077SOL    HW180068   3.747   2.048   2.772 -0.9417 -0.4041 -0.4365
58077SOL    HW280069   3.690   2.185   2.800 -0.3905 -0.1188 -0.6961
58078SOL     OW80070   1.262   0.823   6.320 -0.2642 -0.6806 -0.3013
58078SOL    HW180071   1.194   0.800   6.383  0.1045  2.1243  1.2985
58078SOL    HW280072   1.248   0.916   6.302  2.5294 -0.2335 -0.6612
58079SOL     OW80073   0.943   4.450   6.572 -0.3665 -0.6033 -0.2241
58079SOL    HW180074   0.976   4.434   6.660 -0.1801  0.5601 -0.0678
58079SOL    HW280075   0.881   4.378   6.556 -1.3898 -0.1297  1.3620
58080SOL     OW80076  11.262   9.032   7.400  0.0280 -0.6155  1.0269
58080SOL    HW180077  11.346   9.062   7.433  0.1453  0.2703  0.0003
58080SOL    HW280078  11.280   9.002   7.311 -0.5703 -1.3411  1.1395
58081SOL     OW80079   6.574   2.093   2.171  0.0563 -0.0433  0.2001
58081SOL    HW180080   6.515   2.107   2.096  1.1327  1.5816 -0.3918
58081SOL    HW280081   6.550   2.161   2.233 -0.4289 -1.0211  1.1163
58082SOL     OW80082  11.920   0.912  11.996 -0.0688 -0.0268 -0.3752
58082SOL    HW180083  11.986   0.970  11.957  0.4062 -1.2372 -1.4096
58082SOL    HW280084  11.838   0.940  11.955 -0.0998  0.9048  0.2717
58083SOL     OW80085   8.340   0.533   4.053  0.7144 -0.1768 -0.2040
58083SOL    HW180086   8.398   0.532   4.129  0.0811  1.9389  0.3822
58083SOL    HW280087   8.276   0.602   4.073 -0.4979 -0.7437 -1.9149
58084SOL     OW80088   5.552   0.012  10.342  0.9195  0.3367  0.1265
58084SOL    HW180089   5.621   0.040  10.283  1.9077  0.1752  1.1673
58084SOL    HW280090   5.592   0.016  10.429  0.2845 -1.7669  0.5706
58085SOL     OW80091   3.276   9.331   7.779  0.2546 -0.7609  0.2436
58085SOL    HW180092   3.347   9.363   7.723  1.4039  0.9600  2.5320
58085SOL    HW280093   3.317   9.313   7.863 -1.8001 -0.9913  1.2625
58086SOL     OW80094   2.571  11.498  11.005 -0.7980  0.1042  0.0785
58086SOL    HW180095   2.624  11.488  10.926 -0.2636  0.0914  0.4341
58086SOL    HW280096   2.611  11.439  11.069 -0.6345  0.8404  0.6640
58087SOL     OW80097   2.680   1.019  11.746 -0.2783  0.2459  0.0554
58087SOL    HW180098   2.651   0.930  11.726  1.2895  0.0290 -1.5494
58087SOL    HW280099   2.772   1.009  11.769 -0.1201  1.4308  0.0202
58088SOL     OW80100   8.537   1.198   3.982 -0.2610  0.0839 -0.6563
58088SOL    HW180101   8.468   1.183   4.046  0.0971 -0.3504 -0.3649
58088SOL    HW280102   8.515   1.282   3.942  0.1838  0.9831  0.9227
58089SOL     OW80103   0.040   8.639  10.260 -0.0497  0.0821  0.2744
58089SOL    HW180104   0.032   8.655  10.166  0.9503 -0.9099  0.0075
58089SOL    HW280105   0.125   8.676  10.283  0.8622 -1.8893  0.2664
58090SOL     OW80106  10.300   9.863  12.234  0.3422  0.0505  0.3424
58090SOL    HW180107  10.367   9.854  12.302  0.3341  0.7303  0.4451
58090SOL    HW280108  10.349   9.882  12.154  0.2568  1.1016  0.5229
58091SOL     OW80109   7.230   8.157   1.083  0.1615 -0.0518 -0.6810
58091SOL    HW180110   7.219   8.136   1.176 -0.6933 -2.3299 -1.2446
58091SOL    HW280111   7.147   8.199   1.058 -0.8365 -2.1145 -1.0435
58092SOL     OW80112   0.638   1.250   4.848 -1.1476 -0.1365  0.3342
58092SOL    HW180113   0.551   1.265   4.812 -0.4612  3.8162 -0.0739
58092SOL    HW280114   0.622   1.227   4.940 -2.6650  1.0605  0.4136
58093SOL     OW80115   4.615   0.132   2.041 -0.0012  0.3454 -0.0673
58093SOL    HW180116   4.577   0.102   2.124 -2.4431  0.9325 -0.8734
58093SOL    HW280117   4.539   0.162   1.990  1.2889 -0.8520 -2.8932
58094SOL     OW80118  11.987   2.356   2.224 -0.0028 -0.4686  0.0355
58094SOL    HW180119  12.043   2.417   2.175 -0.3778  0.9676  1.3181
58094SOL    HW280120  11.918   2.411   2.261 -0.1965 -1.6239  1.4878
58095SOL     OW80121   2.143   7.041   0.289  0.1009 -0.3463 -0.0716
58095SOL    HW180122   2.092   7.069   0.213  0.7929  1.1232 -0.0158
58095SOL    HW280123   2.148   7.118   0.345  2.5138 -0.3705 -0.1438
58096SOL     OW80124  10.738   3.082   0.542 -0.5803  0.1104 -0.0168
58096SOL    HW180125  10.685   3.045   0.613  1.0242 -1.1548  0.5857
58096SOL    HW280126  10.804   3.136   0.586  0.6231 -0.9252 -0.4700
58097SOL     OW80127   8.264  11.916   7.491 -0.7957  0.1371 -0.7443
58097SOL    HW180128   8.273  11.894   7.398 -1.9107 -0.0875 -0.8164
58097SOL    HW280129   8.174  11.891   7.513 -0.0881 -1.2247  0.7997
58098SOL     OW80130   5.919   2.429  10.638  0.4888 -0.2290  0.2026
58098SOL    HW180131   5.980   2.449  10.567 -0.6250  0.2434 -0.6565
58098SOL    HW280132   5.913   2.509  10.689  1.3020 -0.5737  0.8631
58099SOL     OW80133  11.121  10.558  11.452 -0.5470  0.1561 -0.0043
58099SOL    HW180134  11.195  10.568  11.511 -2.3437 -0.1312  2.4853
58099SOL    HW280135  11.105  10.463  11.449 -1.3420  0.2649  0.2878
58100SOL     OW80136  11.599   9.205   4.186 -0.4764 -0.0524  0.2711
58100SOL    HW180137  11.540   9.275   4.212 -0.4231 -0.1574  0.6783
58100SOL    HW280138  11.543   9.139   4.145 -0.4901  0.3540 -0.3937
58101SOL     OW80139  10.796   4.250   3.339 -0.5572  0.1024  0.4620
58101SOL    HW180140  10.705   4.230   3.363 -0.5927 -1.4110 -0.7810
58101SOL    HW280141  10.844   4.170   3.360 -0.5730 -1.3619 -4.0877
58102SOL     OW80142   7.595   8.525   1.417 -0.2779  0.0138 -0.3343
58102SOL    HW180143   7.679   8.481   1.431  0.2290  1.3744  1.1790
58102SOL    HW280144   7.558   8.483   1.339  0.9386 -1.8811  0.0675
58103SOL     OW80145   9.411  12.165   7.667 -0.1319  0.1307  0.5794
58103SOL    HW180146   9.372  12.099   7.724  0.3496  0.9639  1.9252
58103SOL    HW280147   9.480  12.205   7.720  0.6779  0.5985 -0.7730
58104SOL     OW80148   3.545   9.839  11.879  0.0371 -0.2856 -0.1794
58104SOL    HW180149   3.620   9.838  11.939  0.6262 -1.8259 -0.8935
58104SOL    HW280150   3.570   9.902  11.812  1.1712 -1.5006 -0.9447
58105SOL     OW80151   6.745   0.727   5.818 -0.0162 -0.1810  0.2375
58105SOL    HW180152   6.784   0.651   5.862  1.8631 -0.0326 -1.0346
58105SOL    HW280153   6.699   0.691   5.742 -0.3513 -0.1639  0.4321
58106SOL     OW80154   8.260   6.142   7.462 -0.4349  0.2621 -0.2955
58106SOL    HW180155   8.226   6.072   7.518  0.0525  0.2659  0.0086
58106SOL    HW280156   8.199   6.215   7.476 -1.2870 -0.2785 -1.0622
58107SOL     OW80157   2.147   5.099   4.742 -0.0326 -0.4229  0.3993
58107SOL    HW180158   2.101   5.021   4.773 -1.1681 -0.5329 -1.3991
58107SOL    HW280159   2.233   5.067   4.715  0.1059 -0.7423  1.2066
58108SOL     OW80160   0.694   0.089  10.077  0.4313 -0.3694 -0.2674
58108SOL    HW180161   0.654   0.011  10.038 -1.2391 -0.9646  2.3427
58108SOL    HW280162   0.746   0.055  10.150  1.1899  0.8437 -0.2166
58109SOL     OW80163   4.281  11.414   2.884 -0.1093  0.1806 -0.0801
58109SOL    HW180164   4.228  11.335   2.895  0.9775 -0.4090  1.3199
58109SOL    HW280165   4.326  11.401   2.801 -0.2876 -0.4637 -0.0862
58110SOL     OW80166   8.603  10.379   7.746  0.0749  0.0097 -0.1693
58110SOL    HW180167   8.641  10.292   7.732 -1.2395 -0.3890 -1.4822
58110SOL    HW280168   8.589  10.384   7.841  2.1524 -0.3128  0.1969
58111SOL     OW80169  11.261   9.290   9.744 -0.2986  0.0001  0.3057
58111SOL    HW180170  11.203   9.346   9.694 -1.4911 -0.3971  1.1889
58111SOL    HW280171  11.335   9.346   9.767 -0.2304  0.4643 -0.9956
58112SOL     OW80172   2.972   0.887   3.177  0.1965  0.5717 -0.0777
58112SOL    HW180173   3.063   0.888   3.147  0.6808 -1.5096  1.1121
58112SOL    HW280174   2.954   0.978   3.201  2.2148  0.9173  0.3633
58113SOL     OW80175   8.897   6.544   3.409 -0.0394 -0.0498  0.3794
58113SOL    HW180176   8.889   6.453   3.382 -1.5932  0.7036 -1.9712
58113SOL    HW280177   8.956   6.583   3.344 -1.0078  1.0462  0.1419
58114SOL     OW80178  11.825  12.003   1.316 -0.1955 -0.0014  0.5968
58114SOL    HW180179  11.834  12.007   1.411 -0.8878 -3.6273  0.9520
58114SOL    HW280180  11.735  11.975   1.301  0.4987 -1.5638 -0.9870
58115SOL     OW80181   2.767  11.398   7.564 -0.0062  0.1384  0.0172
58115SOL    HW180182   2.773  11.486   7.529  0.0612 -0.1786 -0.7841
58115SOL    HW280183   2.678  11.369   7.543  0.0908 -0.1200 -0.0497
58116SOL     OW80184   0.939   8.013  11.197 -0.1166  0.1204  0.2620
58116SOL    HW180185   0.891   7.935  11.225 -1.5866  0.6245 -0.6940
58116SOL    HW280186   1.001   7.981  11.132 -0.6738 -0.2659 -0.0875
58117SOL     OW80187  11.325   4.158   0.392 -0.2356  0.3730  0.1294
58117SOL    HW180188  11.247   4.180   0.341 -0.0657  1.1117  0.1655
58117SOL    HW280189  11.299   4.085   0.446 -0.5053 -0.2518 -0.8170
58118SOL     OW80190   0.969   7.916   6.364 -0.3322  0.2067  0.3364
58118SOL    HW180191   1.019   7.862   6.426 -1.0152  0.1183  0.8115
58118SOL    HW280192   1.035   7.975   6.327  0.6710 -1.6634 -1.0221
58119SOL     OW80193   7.770   0.485   4.081  0.3184 -0.4683  0.1135
58119SOL    HW180194   7.710   0.473   4.155 -1.2212  0.9220 -0.8151
58119SOL    HW280195   7.722   0.450   4.006  0.7887  0.3935 -0.6106
58120SOL     OW80196   3.697   6.958  11.693 -0.3464 -0.2254 -0.1101
58120SOL    HW180197   3.718   6.997  11.778 -4.5914  2.4622 -0.0285
58120SOL    HW280198   3.711   7.029  11.631 -0.3745 -1.1867 -1.2497
58121SOL     OW80199  10.378   1.399   7.299 -0.2789 -0.2604  0.1654
58121SOL    HW180200  10.447   1.340   7.267  1.4722  1.1419  1.1279
58121SOL    HW280201  10.332   1.427   7.220 -0.3309 -1.8753 -0.4303
58122SOL     OW80202   3.021   7.408   0.446  0.3545 -0.8387 -0.5458
58122SOL    HW180203   2.950   7.349   0.471 -1.4428  1.3526 -0.1720
58122SOL    HW280204   3.094   7.382   0.503 -0.9136 -1.6195  0.8139
58123SOL     OW80205   4.288   8.760   7.792  0.2876 -0.1517  0.0741
58123SOL    HW180206   4.201   8.790   7.767  0.2271  0.2443  0.7343
58123SOL    HW280207   4.273   8.701   7.866  0.5012 -0.9162 -0.4754
58124SOL     OW80208   3.282   9.200  12.192 -0.2084 -0.4551  0.1260
58124SOL    HW180209   3.297   9.231  12.282 -0.5038 -1.7555  0.6422
58124SOL    HW280210   3.208   9.252  12.161 -2.3852 -2.3016  1.9015
58125SOL     OW80211   1.435   9.921   9.821  0.1939 -0.1969 -0.5613
58125SOL    HW180212   1.343   9.910   9.800  0.1908  0.4137 -0.9015
58125SOL    HW280213   1.480   9.912   9.738  0.3339  0.5755 -0.5822
58126SOL     OW80214   7.275   7.202   6.959  0.3568  0.2209  0.1363
58126SOL    HW180215   7.235   7.279   6.999 -1.4734 -1.0666  0.8836
58126SOL    HW280216   7.222   7.184   6.882  1.3363  0.2031 -0.5655
58127SOL     OW80217   1.849   4.280  11.779 -0.4061 -0.2200  0.2971
58127SOL    HW180218   1.779   4.299  11.716 -0.9726 -1.7845  0.4291
58127SOL    HW280219   1.903   4.360  11.778 -1.7660  0.7451 -0.3439
58128SOL     OW80220   4.453   4.181   5.611 -0.0234  0.6510  0.2768
58128SOL    HW180221   4.378   4.131   5.579  0.0969  1.1927 -0.9408
58128SOL    HW280222   4.522   4.116   5.623 -0.0604  0.4132 -0.6675
58129SOL     OW80223   4.693   0.057   6.010 -0.1196  0.8155 -0.3488
58129SOL    HW180224   4.637  -0.004   5.963 -1.6558 -0.6197  2.9870
58129SOL    HW280225   4.782   0.024   5.996 -0.9038 -2.3701  1.3697
58130SOL     OW80226   2.534   3.181   7.210  0.3809  0.3779 -0.1045
58130SOL    HW180227   2.628   3.169   7.195 -0.0841 -2.4094 -1.3595
58130SOL    HW280228   2.517   3.142   7.295 -0.0236 -1.9159 -1.1580
58131SOL     OW80229   7.939   4.168   6.984  0.2597 -0.1534  0.4080
58131SOL    HW180230   7.916   4.241   6.927  0.3858  0.3527  1.0043
58131SOL    HW280231   7.871   4.103   6.966  0.2814  0.0037 -0.2985
58132SOL     OW80232   7.517   7.062  11.665 -0.3058 -0.0225 -0.3199
58132SOL    HW180233   7.483   7.115  11.593 -2.1113 -0.8004 -0.0939
58132SOL    HW280234   7.564   6.991  11.622 -1.0138 -0.2506 -0.7246
58133SOL     OW80235   5.123   0.119   9.542 -0.5003 -0.4209  0.0331
58133SOL    HW180236   5.207   0.086   9.575  1.0298  1.1800 -1.9830
58133SOL    HW280237   5.091   0.177   9.611 -0.0144 -1.1196  0.8655
58134SOL     OW80238  10.525   6.625   6.808  0.8885 -0.3679  0.5837
58134SOL    HW180239  10.586   6.682   6.854  1.7316 -1.4252  0.8137
58134SOL    HW280240  10.580   6.560   6.765 -0.0378 -0.9177  0.1975
58135SOL     OW80241  11.876   1.615   3.499  0.1919 -0.1364  0.1044
58135SOL    HW180242  11.956   1.595   3.548 -1.1632  1.9450  3.5124
58135SOL    HW280243  11.898   1.691   3.447  0.9463 -0.8032 -0.5836
58136SOL     OW80244   1.260   5.895   4.749  0.1433  0.2612  0.0673
58136SOL    HW180245   1.187   5.836   4.733  0.3721 -0.0044 -0.0113
58136SOL    HW280246   1.236   5.944   4.827  0.9590 -1.5516  1.5154
58137SOL     OW80247   2.655  12.153  11.260  0.1532 -0.5671 -0.3789
58137SOL    HW180248   2.590  12.222  11.273  0.9249  0.1141  0.0210
58137SOL    HW280249   2.644  12.126  11.169 -0.5618 -0.3389 -0.3672
58138SOL     OW80250   5.586   8.441   5.608 -0.5422  0.7118  0.3448
58138SOL    HW180251   5.644   8.514   5.631  0.9626 -0.0500 -0.8136
58138SOL    HW280252   5.642   8.380   5.561 -1.4275 -1.8608  2.3943
58139SOL     OW80253  11.667  10.772   9.401  0.1247  0.1585 -0.4451
58139SOL    HW180254  11.620  10.826   9.339 -2.8142 -0.6453  0.8985
58139SOL    HW280255  11.660  10.683   9.366 -0.2361 -0.0998  0.2601
58140SOL     OW80256   3.801   7.954  10.593  0.3569  0.3341 -0.1160
58140SOL    HW180257   3.748   7.917  10.523  0.5008 -0.5110  0.2053
58140SOL    HW280258   3.744   8.017  10.637 -0.0075  0.2462 -0.4634
58141SOL     OW80259   4.853   0.783   8.977  0.1731 -0.0928  0.4025
58141SOL    HW180260   4.898   0.703   8.950  0.8891 -0.1260  1.6006
58141SOL    HW280261   4.765   0.774   8.941  0.4649 -1.0563 -0.1298
58142SOL     OW80262   9.577   7.132   4.114 -0.2931  0.2944 -0.2943
58142SOL    HW180263   9.626   7.050   4.122 -0.1083  0.4941  0.7252
58142SOL    HW280264   9.602   7.166   4.029  1.7785  0.6505  0.3987
58143SOL     OW80265   9.765   0.551   9.809  0.6168  0.0182 -0.0142
58143SOL    HW180266   9.840   0.579   9.756 -0.2881 -0.0817 -1.4172
58143SOL    HW280267   9.719   0.488   9.753  0.0165 -0.6680  1.2068
58144SOL     OW80268   7.514   5.268   1.281 -0.0216 -0.0717 -0.3373
58144SOL    HW180269   7.481   5.358   1.281  0.8358  0.2474 -0.9998
58144SOL    HW280270   7.453   5.221   1.338  0.1482  1.1517  0.9144
58145SOL     OW80271   6.644  10.233   8.500  0.2339 -0.5555  0.4407
58145SOL    HW180272   6.554  10.248   8.471  0.8242 -1.2466 -1.9468
58145SOL    HW280273   6.688  10.317   8.488  0.5761 -0.9360 -1.2328
58146SOL     OW80274  11.527  11.417  11.147 -0.5343  0.0925  0.0378
58146SOL    HW180275  11.499  11.360  11.075  0.9759  0.5858 -0.9855
58146SOL    HW280276  11.461  11.486  11.150 -1.3284 -0.6521  0.0226
58147SOL     OW80277   6.066   0.539   9.561  1.0627 -0.0619  1.0057
58147SOL    HW180278   5.988   0.513   9.609  1.1859  0.8543  1.7324
58147SOL    HW280279   6.038   0.540   9.469  1.2979 -3.5828  0.7545
58148SOL     OW80280  12.267  11.989   2.475 -0.9022 -0.5889  0.0155
58148SOL    HW180281  12.334  12.054   2.495 -1.0640 -0.2538 -0.5222
58148SOL    HW280282  12.301  11.907   2.512 -0.8705 -0.1308  1.0137
58149SOL     OW80283   7.208  10.165   8.341 -0.3362 -0.1029 -0.1212
58149SOL    HW180284   7.296  10.203   8.339  0.0915 -1.0399  0.2723
58149SOL    HW280285   7.156  10.227   8.392 -0.0778  0.7865 -0.9127
58150SOL     OW80286   9.946   5.191   2.198  0.1904  0.4095  0.0145
58150SOL    HW180287   9.882   5.146   2.254  3.4717 -2.3729  1.8746
58150SOL    HW280288   9.915   5.174   2.109 -2.4783  0.6016  0.8212
58151SOL     OW80289   4.586  10.536   8.122 -0.0442 -0.0822  0.0688
58151SOL    HW180290   4.596  10.531   8.027 -0.2519  1.1838 -0.0394
58151SOL    HW280291   4.493  10.552   8.135  0.0927  0.4192  0.4460
58152SOL     OW80292   1.779   7.424   8.130  0.4816 -0.6334 -0.4096
58152SOL    HW180293   1.777   7.463   8.043  0.2266 -0.6182 -0.3969
58152SOL    HW280294   1.869   7.394   8.141  0.3192 -1.3585 -0.9960
58153SOL     OW80295   4.973   1.978   6.953 -0.1650  0.2717 -0.2258
58153SOL    HW180296   4.878   1.993   6.951 -0.6167 -1.8319  1.5653
58153SOL    HW280297   4.984   1.905   7.014  2.5844  0.0984 -0.8264
58154SOL     OW80298   0.975   3.803   3.835 -0.3135  0.3348 -0.0872
58154SOL    HW180299   1.066   3.830   3.839 -0.8207  1.9846  1.5739
58154SOL    HW280300   0.937   3.832   3.918 -2.0431 -1.5384 -0.1168
58155SOL     OW80301   0.510   4.972   3.710  0.1151 -0.0972 -0.2545
58155SOL    HW180302   0.552   5.043   3.759  0.5913  0.2241 -1.1071
58155SOL    HW280303   0.463   4.922   3.776  0.5735  0.4484  0.5023
58156SOL     OW80304   9.451   3.950   7.290  0.0994  0.1669  0.4182
58156SOL    HW180305   9.364   3.989   7.292  0.7144  1.5911  2.5070
58156SOL    HW280306   9.439   3.863   7.329 -0.4834  0.0470 -0.0073
58157SOL     OW80307   1.666   5.138   0.242 -0.1300 -0.1986 -0.0402
58157SOL    HW180308   1.572   5.118   0.244 -0.4783  0.9998  3.3217
58157SOL    HW280309   1.707   5.062   0.285  0.1341  0.2118  0.4550
58158SOL     OW80310  10.902   3.017   3.216  0.2687 -0.2467 -0.0965
58158SOL    HW180311  10.845   3.005   3.139 -0.4990 -0.2934  0.4731
58158SOL    HW280312  10.951   2.935   3.222 -1.8430 -1.5089  1.2146
58159SOL     OW80313   8.023   9.701   3.304  0.2807 -0.1803  0.1925
58159SOL    HW180314   8.107   9.707   3.258  0.6947 -0.3214  0.9038
58159SOL    HW280315   7.979   9.627   3.263  0.9261 -0.7217  0.4476
58160SOL     OW80316   2.599   5.159  10.488 -0.7192  0.1149 -0.0538
58160SOL    HW180317   2.625   5.082  10.437 -0.3812 -0.1243  0.4620
58160SOL    HW280318   2.513   5.136  10.523 -0.3819 -0.2595  0.5453
58161SOL     OW80319   7.174   5.041   4.773  0.4869  0.5411 -0.1038
58161SOL    HW180320   7.134   5.031   4.687 -0.8953 -0.4758  0.6084
58161SOL    HW280321   7.146   5.128   4.802 -2.1724 -0.4961  0.7720
58162SOL     OW80322  11.677   8.938   5.353 -0.4170  0.0850 -0.7829
58162SOL    HW180323  11.672   8.976   5.265 -0.0573 -1.8932 -1.7208
58162SOL    HW280324  11.765   8.901   5.357  0.5778  2.3821  1.4511
58163SOL     OW80325   0.716   9.942   5.335  0.1502 -0.1069 -0.4934
58163SOL    HW180326   0.678   9.887   5.403 -2.2884  1.1608 -0.7239
58163SOL    HW280327   0.811   9.927   5.342 -0.1731 -1.5637  1.7689
58164SOL     OW80328   0.298   7.769   2.619  0.6924 -0.2578  0.3571
58164SOL    HW180329   0.267   7.693   2.571  1.0500 -0.3914  0.3430
58164SOL    HW280330   0.366   7.808   2.564 -0.1242  0.6074 -0.0773
58165SOL     OW80331  11.760   0.223   4.897 -0.1944  0.1689  0.2480
58165SOL    HW180332  11.808   0.267   4.826  0.2477 -0.4538  0.1476
58165SOL    HW280333  11.829   0.183   4.950 -0.3698  2.3656  2.2567
58166SOL     OW80334  11.941  10.201   0.736  0.0612 -0.0126 -0.2403
58166SOL    HW180335  11.908  10.114   0.758 -3.1210  0.5291 -2.1413
58166SOL    HW280336  11.934  10.205   0.640 -0.7745  2.5889 -0.1486
58167SOL     OW80337   0.049   3.200   6.792 -0.2595 -0.0403  0.1167
58167SOL    HW180338  -0.014   3.228   6.858  0.5686 -2.6483  2.1648
58167SOL    HW280339   0.134   3.210   6.835  0.5880  0.9852 -1.6743
58168SOL     OW80340  10.186   8.405   2.335  0.3042  0.1926  0.1687
58168SOL    HW180341  10.223   8.356   2.262  0.2946  0.3785  0.0405
58168SOL    HW280342  10.222   8.362   2.413  2.9540  2.0065  0.0654
58169SOL     OW80343   5.508   2.475   0.877 -0.5837  0.0851  0.0380
58169SOL    HW180344   5.593   2.431   0.871 -1.5731 -2.0721  0.8274
58169SOL    HW280345   5.481   2.486   0.785 -0.3114 -1.0700 -0.2069
58170SOL     OW80346  10.674   5.648  12.242  0.5727  0.6424 -0.2377
58170SOL    HW180347  10.702   5.684  12.158  1.4618 -0.9855 -0.6667
58170SOL    HW280348  10.746   5.592  12.271 -0.6352 -0.6033  0.5146
58171SOL     OW80349   5.362   6.537   6.335  0.1695 -0.9455  0.6919
58171SOL    HW180350   5.275   6.554   6.371 -0.2361  0.3495 -0.8114
58171SOL    HW280351   5.407   6.621   6.339  0.0266 -0.6652 -1.8958
58172SOL     OW80352  10.250   9.104  10.140  0.3036  0.1322 -0.7215
58172SOL    HW180353  10.270   9.179  10.195 -0.2868  0.9920 -1.6381
58172SOL    HW280354  10.188   9.138  10.075 -0.7796 -1.3978 -0.5355
58173SOL     OW80355   1.583   1.791   1.939 -0.1145 -0.3258  0.1947
58173SOL    HW180356   1.667   1.835   1.954 -0.4951 -0.1682  2.1414
58173SOL    HW280357   1.607   1.700   1.919  0.5403 -0.0897 -0.1264
58174SOL     OW80358   2.866   9.273   6.212  0.0814 -0.2207 -0.2656
58174SOL    HW180359   2.865   9.284   6.117  2.0717 -0.9493 -0.4376
58174SOL    HW280360   2.931   9.204   6.226 -0.1720 -0.1096  1.6357
58175SOL     OW80361   2.926   7.157   1.322  0.4602  0.5353  0.1107
58175SOL    HW180362   2.945   7.063   1.328  0.7028  0.4242 -1.6582
58175SOL    HW280363   2.892   7.181   1.408 -1.4558 -1.5892  0.0422
58176SOL     OW80364   5.855  11.761   2.738 -0.4009  0.3379 -0.6492
58176SOL    HW180365   5.805  11.751   2.657  0.0712  0.2690 -0.9353
58176SOL    HW280366   5.911  11.837   2.723 -0.6051  0.5746 -0.2329
58177SOL     OW80367  11.621   6.034   6.013  0.0537 -0.2465 -0.0001
58177SOL    HW180368  11.711   6.056   5.990  0.2185  0.8775  1.5594
58177SOL    HW280369  11.612   5.942   5.990  1.0444  0.0640 -1.7811
58178SOL     OW80370  11.309   0.969  12.182 -0.4006 -0.3349  0.2059
58178SOL    HW180371  11.307   1.046  12.125  1.0299 -1.6299 -1.7775
58178SOL    HW280372  11.392   0.976  12.229 -1.9861  1.2108  3.0538
58179SOL     OW80373   5.045   0.528   3.541  0.0876  0.0550  0.0479
58179SOL    HW180374   5.131   0.501   3.575  0.3569 -0.1644 -0.7704
58179SOL    HW280375   5.021   0.458   3.480  0.5839  1.4001 -1.7840
58180SOL     OW80376   8.931   4.570   6.048 -0.8293  0.1692  0.2222
58180SOL    HW180377   8.898   4.607   5.967  0.4799 -0.2862 -0.5465
58180SOL    HW280378   9.027   4.571   6.039 -0.6222  0.5579  1.9618
58181SOL     OW80379   3.931   1.569   3.609  0.6751 -0.5493 -0.1374
58181SOL    HW180380   3.928   1.610   3.523  0.5356 -0.4251 -0.0736
58181SOL    HW280381   3.851   1.517   3.614 -0.3069  0.9475  0.6564
58182SOL     OW80382   4.172  10.155   1.121 -0.6002  0.7232 -0.3897
58182SOL    HW180383   4.201  10.203   1.199 -0.6328 -0.3582  0.3122
58182SOL    HW280384   4.247  10.100   1.098 -0.6699  0.8781 -1.0051
58183SOL     OW80385  10.405   4.136   4.276 -0.4413  0.6399  0.0607
58183SOL    HW180386  10.316   4.111   4.298  0.3155 -0.9945  1.5022
58183SOL    HW280387  10.422   4.094   4.192 -1.5427  2.3801 -1.0989
58184SOL     OW80388   8.910   5.951   0.247  0.1094  0.1543 -0.2465
58184SOL    HW180389   8.918   5.866   0.291  0.3714  0.1247 -0.3482
58184SOL    HW280390   8.940   6.014   0.313 -0.1099  0.1704 -0.1621
58185SOL     OW80391   5.119   7.402   2.015  0.0537  0.1938 -0.8127
58185SOL    HW180392   5.048   7.431   2.072  1.6908  0.7751  1.0405
58185SOL    HW280393   5.110   7.307   2.012  0.8505 -0.0586  1.8721
58186SOL     OW80394   0.670   8.169   3.375  0.4206 -0.1177  0.1136
58186SOL    HW180395   0.748   8.122   3.347  0.0215 -0.3086 -0.7336
58186SOL    HW280396   0.640   8.214   3.295 -1.6141 -1.8668 -0.1858
58187SOL     OW80397   0.969   2.450   2.831  0.2618 -0.0917  0.1123
58187SOL    HW180398   0.955   2.405   2.914  0.9193  1.2589  0.9883
58187SOL    HW280399   1.004   2.535   2.855  0.4680  0.3387 -1.5609
58188SOL     OW80400   5.757   8.966   7.376  0.3666 -0.6406  0.1432
58188SOL    HW180401   5.717   8.921   7.450  0.7398  0.9892  1.3842
58188SOL    HW280402   5.761   9.057   7.403  0.2268  0.0524 -2.0273
58189SOL     OW80403   7.686   7.008   7.742  0.0595  0.1087 -0.2831
58189SOL    HW180404   7.767   6.999   7.692  0.9323 -0.1691  1.1331
58189SOL    HW280405   7.701   7.083   7.799 -0.7551  0.1727 -0.1401
58190SOL     OW80406   5.505  10.265   5.769  0.0767 -0.1108 -0.0265
58190SOL    HW180407   5.565  10.237   5.838 -1.5864  0.7695  1.8634
58190SOL    HW280408   5.461  10.184   5.742 -0.6321 -0.2282  1.3652
58191SOL     OW80409   7.237   5.056  11.773  0.0527  0.3736  0.0307
58191SOL    HW180410   7.211   4.964  11.772 -3.1284  1.1256 -1.0645
58191SOL    HW280411   7.283   5.069  11.690  2.0287 -0.5184  0.9375
58192SOL     OW80412  10.416   7.690  11.833  0.4855  0.4090 -0.1048
58192SOL    HW180413  10.446   7.617  11.888 -0.2103  0.5994  0.5458
58192SOL    HW280414  10.332   7.715  11.871  1.2790  2.3709  0.4585
58193SOL     OW80415   1.454   0.406   7.993 -0.1779  0.4841 -0.5609
58193SOL    HW180416   1.538   0.392   8.036  0.6879  2.0580 -1.6119
58193SOL    HW280417   1.455   0.498   7.968 -1.2287 -0.0049 -2.6566
58194SOL     OW80418   4.457   1.893  10.665  0.2361 -0.1761 -0.0500
58194SOL    HW180419   4.523   1.864  10.728  0.9533  1.2905 -0.0858
58194SOL    HW280420   4.427   1.978  10.697 -3.1692 -1.6209  1.0589
58195SOL     OW80421   6.459   7.998   6.783 -0.2055 -0.2600 -0.0624
58195SOL    HW180422   6.517   7.948   6.840 -0.6387 -0.0262  0.5995
58195SOL    HW280423   6.509   8.076   6.759 -0.6257  0.4870  1.4065
58196SOL     OW80424  11.283   9.838   3.911  0.3590  0.7546  0.1444
58196SOL    HW180425  11.248   9.910   3.964  1.4759 -0.2317  2.3760
58196SOL    HW280426  11.207   9.783   3.892 -0.0631  1.0909  0.8151
58197SOL     OW80427   5.440   4.032   0.593 -0.2441  0.6659 -0.5560
58197SOL    HW180428   5.457   4.082   0.673  0.9908 -0.9935  0.2872
58197SOL    HW280429   5.391   3.955   0.622 -0.3985  0.3856 -1.5067
58198SOL     OW80430   7.875   4.980  10.145 -0.1203  0.1469  0.0599
58198SOL    HW180431   7.861   4.901  10.092 -0.1593 -0.1237  0.4647
58198SOL    HW280432   7.942   4.954  10.208  0.3088  0.6326 -0.1971
58199SOL     OW80433   3.462   5.271   2.184  0.2672  0.1135 -0.0950
58199SOL    HW180434   3.555   5.294   2.176  0.2032  0.0309 -1.1615
58199SOL    HW280435   3.457   5.180   2.153  0.0623 -0.4204  1.4030
58200SOL     OW80436   7.360   6.231   3.946 -0.6330  0.5061  0.1390
58200SOL    HW180437   7.433   6.209   4.004 -0.7464  1.1301  0.5193
58200SOL    HW280438   7.330   6.146   3.914 -1.5508 -0.0015  2.1764
58201SOL     OW80439   2.389   8.950   7.085  0.2346  0.0351 -0.0670
58201SOL    HW180440   2.340   9.015   7.135  0.3661 -0.6669  0.9974
58201SOL    HW280441   2.477   8.988   7.076  0.1684  0.2297  0.1180
58202SOL     OW80442   9.911   2.957   2.785 -0.3174  0.4124 -0.7091
58202SOL    HW180443   9.869   2.883   2.830  1.0538  0.5426  0.8833
58202SOL    HW280444   9.972   2.917   2.724  0.3753  0.2098  0.1050
58203SOL     OW80445  10.647   7.320   0.676  0.4626 -0.4423  0.1891
58203SOL    HW180446  10.562   7.308   0.633  0.3607  0.2053  0.2078
58203SOL    HW280447  10.633   7.288   0.765 -0.1216  0.7903  0.5613
58204SOL     OW80448   5.816   1.411   9.517  0.3150  0.5982 -0.1767
58204SOL    HW180449   5.879   1.472   9.477 -0.2102  0.8564 -0.6268
58204SOL    HW280450   5.741   1.466   9.540  0.2761  0.3039  0.4183
58205SOL     OW80451  10.435  10.748   2.255  0.3941  0.2440  0.1793
58205SOL    HW180452  10.463  10.660   2.228 -0.1511 -0.3881  1.5527
58205SOL    HW280453  10.340  10.741   2.264  0.0093  1.6604 -1.9823
58206SOL     OW80454   3.191   6.412  11.175 -0.3837  0.4078  0.0915
58206SOL    HW180455   3.109   6.453  11.146  0.6396  2.7497  0.2801
58206SOL    HW280456   3.188   6.418  11.271 -0.0418  0.4200  0.1034
58207SOL     OW80457  10.029   2.385  11.173 -0.1124  0.0347 -0.5718
58207SOL    HW180458  10.031   2.397  11.268  0.7596 -1.0773 -0.4287
58207SOL    HW280459  10.099   2.441  11.140 -2.2088  2.7214 -0.9191
58208SOL     OW80460   2.031   6.246   7.235 -0.1537  0.1626  0.3330
58208SOL    HW180461   2.015   6.227   7.327  1.3997 -3.3592  0.0647
58208SOL    HW280462   2.102   6.309   7.235  0.2290 -0.2418  1.5689
58209SOL     OW80463   1.174   1.791   5.607  0.1131  0.3058  0.0911
58209SOL    HW180464   1.256   1.749   5.632  0.5987 -0.5639 -2.6302
58209SOL    HW280465   1.112   1.766   5.676  1.4081 -1.5204  0.6627
58210SOL     OW80466   6.124  11.796   2.103 -0.5546  0.1513  0.3005
58210SOL    HW180467   6.137  11.761   2.192 -1.3250 -0.0375  0.3405
58210SOL    HW280468   6.204  11.771   2.056  0.4699  1.3832  1.2856
58211SOL     OW80469  10.860   8.685   7.851  0.0729  0.4357  0.3091
58211SOL    HW180470  10.770   8.690   7.816  0.4873 -1.3831 -1.1901
58211SOL    HW280471  10.850   8.640   7.935 -0.5192  1.2207  0.6740
58212SOL     OW80472   3.450  10.445   5.181 -0.1233  0.3011 -0.4421
58212SOL    HW180473   3.512  10.475   5.247 -1.0810  3.0994 -0.6674
58212SOL    HW280474   3.486  10.475   5.098 -0.2143 -0.9104 -0.9475
58213SOL     OW80475  10.121   3.292  11.313  0.1485 -0.2911 -0.0502
58213SOL    HW180476  10.196   3.326  11.363  0.3489 -0.5679 -0.1604
58213SOL    HW280477  10.142   3.200  11.299  0.2536 -0.1465 -0.9254
58214SOL     OW80478   9.786   5.386   7.762  0.0120 -0.2401 -0.8461
58214SOL    HW180479   9.803   5.300   7.722 -0.9258  0.6573 -3.3854
58214SOL    HW280480   9.873   5.423   7.777  0.4792 -1.9398  1.2319
58215SOL     OW80481   7.677   0.462   8.364  0.0913 -0.0295 -0.0185
58215SOL    HW180482   7.588   0.470   8.400  0.5089 -0.8344  1.2492
58215SOL    HW280483   7.735   0.481   8.438  1.0109  1.7763 -1.1467
58216SOL     OW80484  10.036   0.397  10.920 -0.2369  0.1237  0.5324
58216SOL    HW180485  10.103   0.444  10.971 -0.6785 -0.5733  1.7966
58216SOL    HW280486   9.982   0.467  10.883 -0.1839  0.6551  1.4220
58217SOL     OW80487   7.484  12.324  11.959 -0.6032  0.0319  0.1469
58217SOL    HW180488   7.547  12.255  11.939  0.2905  1.3841 -2.0224
58217SOL    HW280489   7.528  12.377  12.025 -1.0036 -1.0081  1.2976
58218SOL     OW80490   3.848   1.630   5.601 -0.0084 -0.0210 -0.3551
58218SOL    HW180491   3.810   1.718   5.597 -1.6742 -0.7066 -0.3490
58218SOL    HW280492   3.816   1.586   5.522  0.3670 -0.7888 -0.0861
58219SOL     OW80493   2.320   4.044   0.792 -0.1543  0.1459 -0.0717
58219SOL    HW180494   2.373   3.992   0.853  0.3651  1.1174  0.3269
58219SOL    HW280495   2.385   4.086   0.735 -0.5816  0.1188 -0.5756
58220SOL     OW80496   5.122  10.767   0.188  0.2938 -0.0155 -0.1007
58220SOL    HW180497   5.093  10.677   0.201 -0.1834  0.3154  1.4602
58220SOL    HW280498   5.208  10.771   0.231 -0.4689  0.6715  1.4412
58221SOL     OW80499  11.709   6.662   6.852 -0.0297  0.1730  0.2065
58221SOL    HW180500  11.743   6.624   6.933 -0.0399  0.7080  0.4671
58221SOL    HW280501  11.734   6.755   6.857  1.1340 -0.0378 -1.0176
58222SOL     OW80502  11.843   6.041   0.790 -0.5383  0.0714 -0.1228
58222SOL    HW180503  11.813   6.064   0.702  1.3566  0.3192 -0.7545
58222SOL    HW280504  11.868   6.125   0.829 -0.0868 -0.1864  0.1455
58223SOL     OW80505   2.470  10.124  12.030  0.1837 -0.8710  0.6853
58223SOL    HW180506   2.426  10.193  11.980  0.3571 -0.9978  0.3549
58223SOL    HW280507   2.452  10.146  12.122  0.6671 -0.0917  0.6025
58224SOL     OW80508   4.914   2.162   4.712  0.4639 -0.0151  0.0643
58224SOL    HW180509   4.845   2.125   4.656  1.7286 -1.0566 -0.8883
58224SOL    HW280510   4.868   2.198   4.787 -1.0605 -1.4106 -0.1478
58225SOL     OW80511  10.494  11.451   3.562  0.2101  0.5295 -0.0240
58225SOL    HW180512  10.464  11.460   3.471  1.7623  0.0182 -0.6277
58225SOL    HW280513  10.414  11.438   3.612 -0.6244 -0.0962 -1.4445
58226SOL     OW80514   1.390   8.299  12.034 -0.0529 -0.4639  0.0649
58226SOL    HW180515   1.438   8.218  12.048 -0.0862 -0.1957  1.9638
58226SOL    HW280516   1.367   8.330  12.122 -1.6071  0.6732 -0.6729
58227SOL     OW80517   4.039   4.454   6.177 -0.1654 -0.0979 -0.6723
58227SOL    HW180518   4.102   4.417   6.115  0.2938  1.9448 -1.5227
58227SOL    HW280519   4.091   4.517   6.228 -0.8671 -0.6665  0.7952
58228SOL     OW80520   7.150   8.653   7.851  0.2202  0.6524 -0.2563
58228SOL    HW180521   7.169   8.744   7.875 -1.0900  0.3759  2.1177
58228SOL    HW280522   7.056   8.652   7.834  0.2756 -0.2083 -0.5413
58229SOL     OW80523   7.802   1.852   2.306 -0.4321 -0.6599  0.2317
58229SOL    HW180524   7.869   1.785   2.303  0.4366  0.0859  2.0240
58229SOL    HW280525   7.844   1.930   2.269  0.0267  0.0368  2.1162
58230SOL     OW80526   8.681   1.248   1.203 -0.2923  0.2353 -0.0084
58230SOL    HW180527   8.707   1.160   1.230 -1.0002 -0.1213 -0.4335
58230SOL    HW280528   8.626   1.234   1.126  0.8648  1.1560 -1.0373
58231SOL     OW80529   4.077   1.806   5.966  0.3272  0.4499  0.1475
58231SOL    HW180530   4.016   1.742   5.930 -0.6881  0.5731  1.5717
58231SOL    HW280531   4.059   1.807   6.060  3.3813 -0.4050  0.8697
58232SOL     OW80532  11.043   4.735  11.681 -0.5798  0.0253  0.1164
58232SOL    HW180533  11.062   4.762  11.591 -0.4654  1.1152  0.4605
58232SOL    HW280534  10.952   4.706  11.678 -1.5270  2.7088  0.1986
58233SOL     OW80535   8.363   7.662  11.258  0.4624  0.4446 -0.0803
58233SOL    HW180536   8.425   7.616  11.314  2.3611  1.4015 -1.3071
58233SOL    HW280537   8.315   7.592  11.213  0.2633 -0.3088  1.2431
58234SOL     OW80538   9.467   6.262  10.535 -0.0807 -0.1581  0.2333
58234SOL    HW180539   9.557   6.243  10.563 -0.4203  0.1696  1.6744
58234SOL    HW280540   9.466   6.244  10.441  1.4164 -0.4246  0.2429
58235SOL     OW80541   6.045   7.109   9.776 -0.2294 -0.6477 -0.0137
58235SOL    HW180542   6.083   7.032   9.734 -1.4148 -2.0709  1.3728
58235SOL    HW280543   5.955   7.111   9.743 -0.3245 -0.1043  0.2795
58236SOL     OW80544  11.018   0.043   3.188 -0.6621  0.1859 -0.1111
58236SOL    HW180545  11.040  -0.048   3.209 -0.2446 -0.0829 -1.5860
58236SOL    HW280546  11.055   0.094   3.260  1.6406 -0.5861 -0.6333
58237SOL     OW80547  12.068   2.988   3.055  0.4697  0.2768  0.2277
58237SOL    HW180548  12.109   3.072   3.074 -2.6609  1.8797  0.5310
58237SOL    HW280549  12.087   2.934   3.132  0.6677  1.4824  1.0380
58238SOL     OW80550   5.644  10.629   1.100 -0.0042 -0.6241 -0.3613
58238SOL    HW180551   5.592  10.635   1.020 -0.7350 -0.1635  0.1366
58238SOL    HW280552   5.640  10.537   1.125  0.5991 -0.8618 -1.0825
58239SOL     OW80553   3.901   2.407   0.933  0.1867 -0.4615  0.0444
58239SOL    HW180554   3.973   2.416   0.870  0.1877 -0.9111 -0.0206
58239SOL    HW280555   3.826   2.380   0.880 -0.8545  2.8560 -0.3864
58240SOL     OW80556   8.790   6.396   1.742  0.6123 -1.0040  0.0061
58240SOL    HW180557   8.715   6.446   1.775  2.3449 -0.0667  2.8189
58240SOL    HW280558   8.755   6.307   1.730 -0.9496 -0.6187  1.3278
58241SOL     OW80559   2.571   6.627   6.923  0.2177 -0.2724  0.3684
58241SOL    HW180560   2.644   6.647   6.981  1.3158  0.3312 -1.1582
58241SOL    HW280561   2.570   6.700   6.860 -1.2620 -0.6278 -0.0654
58242SOL     OW80562   9.945   2.614  10.197 -0.4920 -0.0991  0.2515
58242SOL    HW180563   9.916   2.690  10.247  0.8093  0.1932  0.5928
58242SOL    HW280564   9.982   2.555  10.262  0.8336  0.1028 -0.2854
58243SOL     OW80565   7.670  11.493   2.477  0.0474  0.1115 -0.7739
58243SOL    HW180566   7.763  11.490   2.453  0.4357  0.2495  0.6124
58243SOL    HW280567   7.640  11.577   2.444  0.3385 -0.0614 -1.4945
58244SOL     OW80568   8.583   9.783  10.544 -0.4975 -0.7314  0.0561
58244SOL    HW180569   8.656   9.805  10.602  0.0866  1.8723 -1.5184
58244SOL    HW280570   8.534   9.865  10.535 -0.6971 -1.0908 -2.8987
58245SOL     OW80571   8.068   8.596   8.312  0.0345  0.0831  0.4297
58245SOL    HW180572   8.158   8.573   8.334  0.6748  0.8047 -1.2571
58245SOL    HW280573   8.040   8.529   8.250 -0.2863  0.3556  0.2768
58246SOL     OW80574   1.281   8.571   2.974 -0.5071 -0.1851 -0.7579
58246SOL    HW180575   1.319   8.571   2.885  2.2637 -0.3503  0.3126
58246SOL    HW280576   1.319   8.648   3.016 -1.0255 -0.6359  0.5836
58247SOL     OW80577   3.496   8.811   2.823  0.1662  0.8493  0.3388
58247SOL    HW180578   3.539   8.822   2.739 -2.6308  0.9205 -1.2061
58247SOL    HW280579   3.529   8.728   2.857  0.4770  0.2248 -1.4008
58248SOL     OW80580   3.820   8.467  11.947  0.3049  0.2542 -0.1895
58248SOL    HW180581   3.751   8.515  11.901 -0.8184 -1.4175 -0.3436
58248SOL    HW280582   3.774   8.417  12.015  1.0940 -2.0520 -1.2238
58249SOL     OW80583   9.515   0.602   7.367  0.4589 -0.4249  0.4751
58249SOL    HW180584   9.525   0.696   7.381  0.5455 -0.5130  1.0354
58249SOL    HW280585   9.604   0.570   7.353  0.9591 -0.9951  4.0891
58250SOL     OW80586   9.714   8.447   8.564 -0.9452 -0.1565  0.2484
58250SOL    HW180587   9.737   8.354   8.562  0.2189  0.0694 -2.8518
58250SOL    HW280588   9.787   8.489   8.609 -0.2845 -0.5051 -0.4879
58251SOL     OW80589   9.190   3.141   2.351  1.0315 -0.0644 -0.2216
58251SOL    HW180590   9.245   3.141   2.273  0.6520  0.3843 -0.4984
58251SOL    HW280591   9.251   3.148   2.424  1.3324  0.6397 -0.5317
58252SOL     OW80592   4.361   4.504   7.102 -0.1957  0.1958 -0.0102
58252SOL    HW180593   4.324   4.477   7.018 -0.2059 -0.7775  0.2972
58252SOL    HW280594   4.295   4.478   7.166 -0.1354  0.8336  0.3167
58253SOL     OW80595  10.255   0.197   4.858  0.2395 -0.7087  0.3689
58253SOL    HW180596  10.214   0.271   4.812  2.3357 -0.3897 -1.1873
58253SOL    HW280597  10.191   0.127   4.853 -0.3147 -0.1338 -1.5999
58254SOL     OW80598   8.969   0.875   3.814 -0.0509 -0.0418  0.2822
58254SOL    HW180599   8.906   0.937   3.776  1.3147  0.9087 -0.4911
58254SOL    HW280600   8.917   0.797   3.833 -1.3210  0.4583 -1.0016
58255SOL     OW80601   5.742   6.315   2.105 -0.3944 -0.2132 -0.1968
58255SOL    HW180602   5.647   6.305   2.098 -0.6493 -1.1277  2.9525
58255SOL    HW280603   5.754   6.384   2.170  1.1421  0.2062 -0.8709
58256SOL     OW80604  11.770  10.853   1.947  0.3834 -0.2735  0.4499
58256SOL    HW180605  11.800  10.891   1.865  1.9401  0.4882  1.3308
58256SOL    HW280606  11.767  10.926   2.009  1.5578 -1.1891  1.6703
58257SOL     OW80607   7.451   2.960   9.481  0.2804  0.4818  1.0591
58257SOL    HW180608   7.365   2.959   9.522  0.7183 -1.1545  2.0483
58257SOL    HW280609   7.433   2.968   9.387 -0.8097  2.8190  1.4176
58258SOL     OW80610   5.344  11.304   9.604 -0.4624 -0.3827  1.0264
58258SOL    HW180611   5.396  11.302   9.685  0.7942  1.4344  0.3342
58258SOL    HW280612   5.405  11.274   9.536  0.3656  3.1906 -0.0512
58259SOL     OW80613  10.601   7.078  10.445 -0.7172  0.3096  0.3777
58259SOL    HW180614  10.610   7.107  10.355  0.2488  0.8035  0.6221
58259SOL    HW280615  10.548   7.146  10.487 -1.4488 -0.0858  0.1192
58260SOL     OW80616   4.177   9.686   2.664  0.0910  0.0758 -0.5354
58260SOL    HW180617   4.239   9.690   2.737 -0.1494  0.5037 -0.3513
58260SOL    HW280618   4.224   9.639   2.595  0.2603 -0.4697 -0.0518
58261SOL     OW80619   3.433   6.606   9.168  0.4425 -0.2896  0.2989
58261SOL    HW180620   3.357   6.664   9.161  0.1712 -0.6024  0.6196
58261SOL    HW280621   3.432   6.576   9.259 -0.4581 -2.2061 -0.3078
58262SOL     OW80622   9.055   3.370  10.954 -0.0000  0.3004 -0.6876
58262SOL    HW180623   9.082   3.316  11.028 -1.2283  0.5880 -0.0225
58262SOL    HW280624   9.137   3.385  10.906  0.5786 -1.1074 -0.2237
58263SOL     OW80625  10.387  10.168   7.395  0.5351 -0.4835 -0.0577
58263SOL    HW180626  10.381  10.072   7.390  0.8698 -0.4826 -0.6205
58263SOL    HW280627  10.365  10.189   7.486 -0.1240 -1.0441 -0.0829
58264SOL     OW80628   7.544   3.552   3.877  0.0783  0.4220  0.5613
58264SOL    HW180629   7.620   3.595   3.917  0.3818  1.8795 -1.4135
58264SOL    HW280630   7.487   3.625   3.852 -0.4429 -0.4556 -0.8852
58265SOL     OW80631   3.220   1.665   7.619  0.1460 -0.0728  0.2064
58265SOL    HW180632   3.168   1.734   7.577  0.3103  1.8256  2.8307
58265SOL    HW280633   3.261   1.709   7.694 -0.6578 -3.2503  2.7390
58266SOL     OW80634   5.626   8.716   3.443  0.3624 -0.1531  0.7659
58266SOL    HW180635   5.595   8.679   3.526 -0.8870 -0.3060  0.2623
58266SOL    HW280636   5.623   8.643   3.382  1.1262 -0.0033  0.5489
58267SOL     OW80637   1.835   1.011   9.028 -0.0016  0.3360 -0.3257
58267SOL    HW180638   1.850   1.106   9.025  1.1982  0.2836  1.7923
58267SOL    HW280639   1.773   0.994   8.957 -0.3048  2.7036 -0.7121
58268SOL     OW80640   8.999   9.559   9.307  0.0132  0.0850 -0.3131
58268SOL    HW180641   9.060   9.490   9.285  0.9034 -0.0418  2.2184
58268SOL    HW280642   9.017   9.629   9.243  0.9640 -0.9484 -1.2139
58269SOL     OW80643   7.850   5.823   2.183  0.1657  0.1635 -0.5582
58269SOL    HW180644   7.913   5.893   2.168  1.3895 -0.5097  1.1345
58269SOL    HW280645   7.863   5.764   2.109  0.2285  0.9363 -1.1782
58270SOL     OW80646   2.719   2.166   0.060 -0.1031  0.2992  0.2234
58270SOL    HW180647   2.705   2.135  -0.030  0.2116  2.0211 -0.4480
58270SOL    HW280648   2.785   2.107   0.095  0.2158 -0.0229 -0.8791
58271SOL     OW80649   0.228  11.497  11.653  0.0522 -0.6662 -0.5012
58271SOL    HW180650   0.270  11.461  11.575  1.4087  0.0306 -0.1369
58271SOL    HW280651   0.250  11.591  11.651  0.4440 -0.7032  0.8998
58272SOL     OW80652   0.688  11.403   9.822  0.3009  0.1660 -0.0660
58272SOL    HW180653   0.670  11.372   9.911  0.5149 -1.0797 -0.4267
58272SOL    HW280654   0.691  11.498   9.829  0.1069  0.0924  1.2193
58273SOL     OW80655   8.954   7.444  12.261 -0.0377  0.1583  0.0582
58273SOL    HW180656   9.033   7.498  12.262  0.0629  0.0158 -0.1578
58273SOL    HW280657   8.984   7.359  12.294 -0.2116  0.2534  0.4685
58274SOL     OW80658   8.173   6.972   7.092  0.1832 -0.1725  0.5996
58274SOL    HW180659   8.184   6.887   7.134 -1.6211 -0.8284 -0.1835
58274SOL    HW280660   8.206   6.959   7.003  1.7927  0.5586  1.0430
58275SOL     OW80661  10.095   8.921   2.620 -0.2869 -0.1960  0.1804
58275SOL    HW180662  10.130   8.846   2.668  1.2304 -0.0165 -0.6071
58275SOL    HW280663  10.119   8.997   2.673 -2.0448 -0.2286  1.1116
58276SOL     OW80664   7.400   1.403  10.911  0.3931 -0.1608  0.0527
58276SOL    HW180665   7.360   1.411  10.824  1.3050 -0.1159 -0.3865
58276SOL    HW280666   7.493   1.384  10.892  1.6446  4.1316  0.8797
58277SOL     OW80667   0.174   4.652   7.868  0.2860 -0.0375  0.2554
58277SOL    HW180668   0.221   4.616   7.942  0.8952 -1.0985 -0.6116
58277SOL    HW280669   0.083   4.656   7.896  0.3456 -1.4642  0.6812
58278SOL     OW80670   2.336   9.641  10.178  0.1843 -0.1827 -0.2838
58278SOL    HW180671   2.345   9.631  10.272  0.0585 -1.9402 -0.4299
58278SOL    HW280672   2.415   9.602  10.141  0.0328  0.0924 -0.9214
58279SOL     OW80673   8.021   1.114   5.852 -0.3862  0.6881 -0.0200
58279SOL    HW180674   8.092   1.121   5.789 -0.7585  0.7818 -0.4346
58279SOL    HW280675   7.981   1.029   5.835  1.5866 -0.8377  2.3216
58280SOL     OW80676   5.865   1.746   3.124  0.4627  0.2402  0.3135
58280SOL    HW180677   5.889   1.707   3.040  0.7809 -1.7357  1.2735
58280SOL    HW280678   5.873   1.841   3.110  1.9746 -0.1030 -1.4192
58281SOL     OW80679   1.595   9.918   0.238 -0.0170  0.0815  0.2150
58281SOL    HW180680   1.536   9.872   0.298 -0.1296  1.6592  1.3548
58281SOL    HW280681   1.542   9.935   0.160 -0.2834 -0.7387  0.2029
58282SOL     OW80682   0.399   4.187   6.406 -0.4955  0.3178 -0.4659
58282SOL    HW180683   0.315   4.183   6.451 -0.2251  1.5610  0.1682
58282SOL    HW280684   0.450   4.250   6.455  0.9021 -0.5697 -0.7194
58283SOL     OW80685   7.208  10.979   5.498 -0.2864 -0.0911  1.0070
58283SOL    HW180686   7.281  10.943   5.548 -1.0566 -2.4401  0.5946
58283SOL    HW280687   7.181  11.057   5.546  2.1749  0.5839  1.4068
58284SOL     OW80688  10.764  12.019  10.390 -0.1284  0.5255 -0.1142
58284SOL    HW180689  10.679  11.979  10.368  0.3391  0.2047 -1.4627
58284SOL    HW280690  10.829  11.958  10.355  0.8409 -1.0102  3.8795
58285SOL     OW80691  10.350   5.671   5.275  1.0318 -0.2335  0.3249
58285SOL    HW180692  10.278   5.710   5.226  1.5220 -1.0140 -1.0500
58285SOL    HW280693  10.416   5.741   5.279  1.5742 -0.5965 -1.4195
58286SOL     OW80694   1.164   6.183   3.647 -0.1872 -0.0287 -0.2866
58286SOL    HW180695   1.246   6.143   3.620 -0.5572 -0.6517 -0.5191
58286SOL    HW280696   1.166   6.271   3.610  0.3040 -0.0974 -0.4195
58287SOL     OW80697  10.012   8.775   6.262 -0.2486  0.2145 -0.0034
58287SOL    HW180698   9.987   8.803   6.350 -1.7664 -0.2022 -0.2604
58287SOL    HW280699   9.937   8.798   6.208 -0.3225 -1.6064 -0.7453
58288SOL     OW80700   0.868   5.922   4.426  0.3183 -0.1900 -0.0653
58288SOL    HW180701   0.895   6.014   4.427  2.2249 -0.7005 -0.3558
58288SOL    HW280702   0.908   5.887   4.346  2.6252 -2.0529  1.7541
58289SOL     OW80703  12.308   8.282   1.163  0.3713 -0.1666 -0.1402
58289SOL    HW180704  12.269   8.203   1.199 -1.0121  1.1422  1.4499
58289SOL    HW280705  12.392   8.291   1.209  1.8883 -2.0569 -2.3021
58290SOL     OW80706   5.686   4.072   7.528 -0.1132  0.5857  0.2737
58290SOL    HW180707   5.747   4.060   7.601  0.3313  0.2402 -0.1549
58290SOL    HW280708   5.726   4.139   7.474 -0.2828  0.6024  0.1687
58291SOL     OW80709   9.060   3.388   0.532 -0.2131 -0.0267 -0.6770
58291SOL    HW180710   9.050   3.304   0.487 -0.0279 -0.3183 -0.1756
58291SOL    HW280711   8.972   3.410   0.562  0.0454 -1.0566  0.9816
58292SOL     OW80712  10.168   4.461   5.454 -0.4834  0.3103 -0.0898
58292SOL    HW180713  10.154   4.545   5.499  1.4076 -0.4245  2.0514
58292SOL    HW280714  10.092   4.408   5.479 -1.9800  1.4783 -1.9042
58293SOL     OW80715   2.778  11.734  10.146  0.2537 -0.5197 -0.5912
58293SOL    HW180716   2.856  11.721  10.199  0.3334  0.5547 -0.4183
58293SOL    HW280717   2.810  11.738  10.056  0.4017 -0.1365 -0.5240
58294SOL     OW80718  11.990  10.507   1.622  0.2688 -0.5324 -0.6397
58294SOL    HW180719  12.077  10.523   1.584 -0.1919 -0.8835 -1.8910
58294SOL    HW280720  11.929  10.541   1.557 -0.5462  1.4775  1.0599
58295SOL     OW80721   4.944   4.501   2.496 -0.4966  0.5932 -0.0393
58295SOL    HW180722   4.965   4.584   2.453  0.2421  0.0436 -0.7738
58295SOL    HW280723   5.016   4.442   2.472 -1.8593 -0.7846 -0.9996
58296SOL     OW80724   4.208   7.839   5.226  1.1737 -0.3603 -0.5285
58296SOL    HW180725   4.229   7.813   5.316  1.7153  2.6465  0.3042
58296SOL    HW280726   4.113   7.854   5.228  1.1491 -0.5050 -0.5447
58297SOL     OW80727   9.923   0.412  10.563 -0.0698  0.3669 -0.5232
58297SOL    HW180728   9.890   0.324  10.581 -0.2696  0.0400 -2.2542
58297SOL    HW280729   9.846   0.460  10.531 -0.4610  1.8625  2.3937
58298SOL     OW80730   7.052   3.370   0.830 -0.4138 -0.4899 -0.3534
58298SOL    HW180731   7.100   3.303   0.780 -0.7457  1.6825 -3.9001
58298SOL    HW280732   6.961   3.361   0.802 -1.0296 -0.4149  1.4559
58299SOL     OW80733   5.356   2.753   5.254  0.0699 -0.3875  0.0038
58299SOL    HW180734   5.263   2.772   5.260  0.5345  2.0140  0.6873
58299SOL    HW280735   5.399   2.835   5.275  2.3673 -1.3124 -0.6955
58300SOL     OW80736   2.201  11.919   2.619  0.0135 -0.3386  0.0019
58300SOL    HW180737   2.226  11.929   2.528  0.6481 -1.3876  0.0456
58300SOL    HW280738   2.209  12.007   2.656 -0.1758  0.0802 -0.9232
58301SOL     OW80739   1.304   2.150   6.368 -0.0765  0.7145 -0.0528
58301SOL    HW180740   1.315   2.180   6.278  0.7658 -1.4379 -0.7381
58301SOL    HW280741   1.391   2.159   6.408  0.5300 -1.7967 -0.6589
58302SOL     OW80742  10.206   4.169   7.701  0.2595  0.2740 -0.5321
58302SOL    HW180743  10.230   4.190   7.792  0.1099  0.0774 -0.4464
58302SOL    HW280744  10.217   4.074   7.695  0.1351  0.2691 -0.6808
58303SOL     OW80745   2.996   3.677   9.439 -0.0679  0.1203 -0.5950
58303SOL    HW180746   3.008   3.763   9.401  2.3632 -0.7076 -1.9645
58303SOL    HW280747   3.083   3.636   9.432 -1.2374 -2.5929 -0.4656
58304SOL     OW80748   7.334   1.147  10.584 -0.5278 -0.5858  0.0873
58304SOL    HW180749   7.293   1.175  10.503  0.3487 -1.1454 -0.5743
58304SOL    HW280750   7.262   1.139  10.646 -1.4321 -1.5742 -1.0454
58305SOL     OW80751   4.249  11.398   5.062 -0.5682  0.0535  0.1500
58305SOL    HW180752   4.236  11.451   5.140 -1.0436 -1.9059  1.4758
58305SOL    HW280753   4.338  11.420   5.032 -0.1897  0.4689  1.5262
58306SOL     OW80754   3.458   3.595   8.192  0.4744 -0.0049 -0.1944
58306SOL    HW180755   3.440   3.536   8.118  0.3847 -0.5064  0.2229
58306SOL    HW280756   3.440   3.683   8.157  1.2394 -0.1568 -1.0149
58307SOL     OW80757   8.229   4.583   1.453  0.3023 -0.0850  0.0763
58307SOL    HW180758   8.161   4.648   1.437  1.2147  0.7923 -0.4265
58307SOL    HW280759   8.292   4.597   1.381  1.1928 -0.6020  0.7344
58308SOL     OW80760   9.571   9.281   5.998 -0.1948  0.3064  0.0146
58308SOL    HW180761   9.485   9.309   5.965 -0.4266  1.0107  1.1228
58308SOL    HW280762   9.551   9.211   6.060 -0.0148  0.6565  0.4807
58309SOL     OW80763  10.870  11.372  12.327  0.5978 -0.1200  0.0736
58309SOL    HW180764  10.833  11.460  12.330  1.6333  0.3334  0.2317
58309SOL    HW280765  10.797  11.313  12.346  0.1085  0.7685  0.9830
58310SOL     OW80766   2.237  10.404   3.595  0.2291 -0.1113 -0.0742
58310SOL    HW180767   2.319  10.378   3.635  0.9023 -0.6741 -1.7284
58310SOL    HW280768   2.241  10.499   3.591  1.0791 -0.1668 -0.6900
58311SOL     OW80769  10.503   5.393   5.925 -0.0520 -0.1417  0.0048
58311SOL    HW180770  10.484   5.333   5.997 -1.1229 -0.5712 -0.6029
58311SOL    HW280771  10.417   5.428   5.900  0.5929  2.2389  0.8235
58312SOL     OW80772   4.053   4.616   7.701 -0.1078 -0.5558  0.4790
58312SOL    HW180773   4.051   4.619   7.796 -0.4376 -2.7871  0.6053
58312SOL    HW280774   4.123   4.554   7.680 -0.8226 -1.0119 -0.6655
58313SOL     OW80775   2.170   2.057   7.889  0.3169  0.3386 -0.7138
58313SOL    HW180776   2.153   1.963   7.904 -1.0164  0.6102 -0.3900
58313SOL    HW280777   2.195   2.090   7.975  0.8275  0.2736 -0.8367
58314SOL     OW80778  11.955   4.055   3.784  0.7043  0.6944 -0.1950
58314SOL    HW180779  11.876   4.038   3.835  0.5372  1.5276 -0.1542
58314SOL    HW280780  11.961   4.151   3.780  1.2043  0.6432 -0.9847
58315SOL     OW80781   0.852   6.914   4.449  0.0983  0.2964  0.0700
58315SOL    HW180782   0.816   6.990   4.495  1.5753  2.2307 -1.7223
58315SOL    HW280783   0.947   6.926   4.454  0.3947 -1.6873  0.0618
58316SOL     OW80784   5.208   2.437  11.693  0.1240 -0.1275 -0.1909
58316SOL    HW180785   5.150   2.393  11.756 -0.6137  0.9771 -0.0630
58316SOL    HW280786   5.199   2.530  11.714  3.2434  0.0161  0.9147
58317SOL     OW80787   1.739  11.531   7.802  0.2434  0.0712  0.0616
58317SOL    HW180788   1.730  11.617   7.762 -1.8246  0.5060  1.3283
58317SOL    HW280789   1.649  11.499   7.813  0.7698 -0.8430  2.4902
58318SOL     OW80790   2.850   0.026   2.633 -0.4210 -0.5854 -0.6372
58318SOL    HW180791   2.893   0.058   2.554  0.3364 -0.2705 -0.1125
58318SOL    HW280792   2.921   0.017   2.697 -1.0469 -0.6561  0.0619
58319SOL     OW80793   1.100   2.916  12.127 -0.2910  0.2620 -0.4973
58319SOL    HW180794   1.122   2.833  12.084  0.9953  0.9636 -1.2567
58319SOL    HW280795   1.177   2.971  12.112 -0.6200  1.1914  1.0398
58320SOL     OW80796   3.930  11.025   8.504  0.3073 -0.3271  0.1983
58320SOL    HW180797   3.861  11.031   8.438  0.1728  0.0690  0.3733
58320SOL    HW280798   4.006  10.991   8.456  0.8540  1.9109 -0.6533
58321SOL     OW80799   3.362  10.674  11.028  0.1239  0.0723  0.6658
58321SOL    HW180800   3.324  10.592  10.998 -3.1537  2.0418 -1.1372
58321SOL    HW280801   3.423  10.699  10.959 -0.2596  0.0293  0.3089
58322SOL     OW80802   8.271   0.896   3.975 -0.2703  0.5709  0.3106
58322SOL    HW180803   8.253   0.859   4.062  0.5163  2.6929  1.4490
58322SOL    HW280804   8.364   0.919   3.978 -0.1267  0.3102 -1.2804
58323SOL     OW80805   8.827   0.309   1.061 -0.1724 -0.1931 -0.2653
58323SOL    HW180806   8.855   0.247   0.994  0.7312 -0.0404 -0.0321
58323SOL    HW280807   8.735   0.328   1.039 -0.4278 -1.5120 -0.4024
58324SOL     OW80808   1.962   4.599   2.983  0.2314 -0.5194  0.1365
58324SOL    HW180809   1.953   4.655   2.906 -0.6014  0.7202  1.0896
58324SOL    HW280810   1.887   4.540   2.980  0.3834 -0.6986 -0.1652
58325SOL     OW80811   5.760   1.806   2.207 -0.3887 -0.4426 -0.2883
58325SOL    HW180812   5.713   1.730   2.174 -1.5303 -1.1638  2.6951
58325SOL    HW280813   5.825   1.770   2.267  0.5302  0.8523 -0.4595
58326SOL     OW80814   7.472  11.132   5.307  0.0261 -0.1718  0.8706
58326SOL    HW180815   7.527  11.149   5.230 -2.5451  2.1889 -0.5913
58326SOL    HW280816   7.483  11.038   5.322  0.3702 -0.8625 -2.6317
58327SOL     OW80817   6.277  11.976   9.831  0.1003 -0.6909  0.0015
58327SOL    HW180818   6.316  11.954   9.746  0.6950  0.0176  0.0757
58327SOL    HW280819   6.238  12.063   9.817  0.6106 -0.3591  0.5650
58328SOL     OW80820   0.271   9.843   1.033 -0.1674  0.1800 -0.0143
58328SOL    HW180821   0.361   9.875   1.043  1.1340 -2.8219 -0.9128
58328SOL    HW280822   0.260   9.780   1.104  0.3679 -3.1622 -2.6387
58329SOL     OW80823   5.787   5.342   5.528 -0.2620  0.6668  0.3863
58329SOL    HW180824   5.801   5.263   5.581 -2.4458  0.8966  1.4245
58329SOL    HW280825   5.845   5.331   5.453  1.6742 -0.5071  1.9403
58330SOL     OW80826   1.146   9.129  10.209 -0.3836  0.4988 -0.8375
58330SOL    HW180827   1.116   9.045  10.174 -0.2736 -0.5452  1.4264
58330SOL    HW280828   1.071   9.187  10.199 -0.9337 -0.2550 -1.1776
58331SOL     OW80829   6.365   8.984   6.363  0.2767 -0.4764  0.3060
58331SOL    HW180830   6.372   9.044   6.438  0.2294  0.5510 -0.4855
58331SOL    HW280831   6.300   8.920   6.389 -0.3703  0.3709  0.8318
58332SOL     OW80832   6.380  10.308   1.899 -0.2486 -0.3700  0.6479
58332SOL    HW180833   6.426  10.226   1.878  1.1253 -0.2882  2.9975
58332SOL    HW280834   6.423  10.373   1.843  2.5425 -0.3381  2.5962
58333SOL     OW80835   5.410  10.596   6.771  0.0268 -0.2194 -0.0603
58333SOL    HW180836   5.420  10.542   6.693  0.9635 -0.7121  0.3828
58333SOL    HW280837   5.420  10.535   6.844 -1.7319  0.0796  0.4581
58334SOL     OW80838   4.468   1.222   2.827  0.1771  0.5188  0.2494
58334SOL    HW180839   4.497   1.218   2.736  1.5788  1.5657  0.6010
58334SOL    HW280840   4.501   1.141   2.866  0.7164  0.6606  0.1063
58335SOL     OW80841   8.477   5.230   5.168 -0.0481  0.1946 -0.0211
58335SOL    HW180842   8.402   5.287   5.155  0.1171  0.2004 -1.0455
58335SOL    HW280843   8.440   5.147   5.196 -0.3718  0.4401  0.2834
58336SOL     OW80844   4.521   9.614   4.777  0.1757  0.0009  0.5913
58336SOL    HW180845   4.452   9.661   4.729 -0.4297 -1.2568  0.1663
58336SOL    HW280846   4.591   9.603   4.713 -0.7484 -1.9329 -0.1887
58337SOL     OW80847  10.682   6.732   7.891  0.0074 -0.5986  0.4300
58337SOL    HW180848  10.641   6.752   7.806 -0.0105  1.8013  0.9445
58337SOL    HW280849  10.775   6.750   7.878 -0.0087 -0.1325  0.9322
58338SOL     OW80850  11.392   0.950   2.422 -0.3019  0.4095 -0.4190
58338SOL    HW180851  11.464   0.888   2.414  0.8135  1.4960  0.7144
58338SOL    HW280852  11.335   0.930   2.348 -0.1750 -2.1594  0.0764
58339SOL     OW80853   0.948   5.947   9.120 -0.5929  0.0745 -0.3205
58339SOL    HW180854   1.032   5.906   9.097  0.6640  2.8009 -1.0120
58339SOL    HW280855   0.882   5.880   9.099  1.3090 -1.7735 -0.7687
58340SOL     OW80856   0.805   5.416   5.762  0.3391  0.1914  0.2006
58340SOL    HW180857   0.724   5.467   5.758  0.3508  0.4076 -5.3763
58340SOL    HW280858   0.775   5.325   5.768 -0.3381  0.3331 -0.7303
58341SOL     OW80859   6.049   1.173   1.700 -0.8679  0.5196 -0.5828
58341SOL    HW180860   6.105   1.213   1.767 -0.3072 -1.3574  0.1515
58341SOL    HW280861   5.980   1.130   1.750 -0.9396 -0.1773 -1.2663
58342SOL     OW80862   8.301   8.158   2.010  0.0431 -0.0437  0.0011
58342SOL    HW180863   8.382   8.111   2.031  0.4006  0.4931 -0.1404
58342SOL    HW280864   8.259   8.171   2.095 -0.4820 -1.3577 -0.0516
58343SOL     OW80865   9.599   6.236   6.598 -0.2758  0.0010 -0.0231
58343SOL    HW180866   9.645   6.153   6.608 -2.1651 -0.9502  1.3030
58343SOL    HW280867   9.635   6.291   6.667  0.0468 -0.1370 -0.0750
58344SOL     OW80868   6.671   7.860   4.054 -0.1785 -0.0799 -0.7961
58344SOL    HW180869   6.640   7.889   3.968  0.2466  0.6269 -0.7218
58344SOL    HW280870   6.762   7.890   4.058 -0.8763  2.1050  0.8253
58345SOL     OW80871   3.863   9.236   5.833 -0.2815  0.1866 -0.0745
58345SOL    HW180872   3.804   9.183   5.779 -0.6001 -0.7335  1.1363
58345SOL    HW280873   3.822   9.323   5.836 -1.5426 -0.4183  0.6759
58346SOL     OW80874  10.026   4.897   4.562 -0.3686  0.3208 -0.2247
58346SOL    HW180875   9.976   4.977   4.577  1.3778  0.9800  2.8143
58346SOL    HW280876  10.117   4.926   4.556  0.3195 -1.3991  1.1402
58347SOL     OW80877   5.456   0.912   3.170 -0.0694  0.1229  0.4319
58347SOL    HW180878   5.520   0.860   3.122  1.2184  2.1350 -0.1362
58347SOL    HW280879   5.499   0.934   3.252 -0.9305 -0.3907  1.0401
58348SOL     OW80880   4.399   3.228   5.568 -0.9208  0.1791 -0.0810
58348SOL    HW180881   4.401   3.230   5.473 -0.1025 -0.2133 -0.0876
58348SOL    HW280882   4.307   3.234   5.591 -1.0328  2.1385 -0.8366
58349SOL     OW80883   8.031  12.111   4.448 -0.1166  0.2370 -0.6527
58349SOL    HW180884   7.969  12.155   4.390 -0.1676  0.9596 -0.0605
58349SOL    HW280885   8.115  12.152   4.429 -0.5873  2.6560  1.8335
58350SOL     OW80886   5.244  12.184   1.760 -0.2180  0.3832 -0.2369
58350SOL    HW180887   5.152  12.203   1.777 -1.3940 -0.5661 -4.2967
58350SOL    HW280888   5.250  12.088   1.762  0.5180  0.4124 -0.5713
58351SOL     OW80889  10.641  10.273   0.142 -0.2237  0.5072  0.1639
58351SOL    HW180890  10.634  10.269   0.238  0.0259 -1.6566  0.1339
58351SOL    HW280891  10.552  10.263   0.110 -0.0639 -1.3218  0.1758
58352SOL     OW80892   6.936   3.482   6.498  0.4936 -0.0313  0.3181
58352SOL    HW180893   6.853   3.520   6.526  0.3113 -0.9184  1.0342
58352SOL    HW280894   7.003   3.534   6.543  0.3606  0.8541 -0.4650
58353SOL     OW80895   5.064   8.245   5.737  0.4655  0.2986  0.4556
58353SOL    HW180896   5.024   8.162   5.763 -1.5519  0.8193 -0.7688
58353SOL    HW280897   4.990   8.304   5.722  1.4714  0.8656 -3.5903
58354SOL     OW80898   0.843   4.163   2.069 -0.5630  0.2320  0.2699
58354SOL    HW180899   0.936   4.168   2.091 -0.3222  0.2977 -0.7052
58354SOL    HW280900   0.834   4.218   1.991 -1.5706  0.8561  0.7904
58355SOL     OW80901   9.894   5.000  10.112 -0.0750 -0.3927  0.0145
58355SOL    HW180902   9.905   5.052  10.191 -1.2243 -0.7789  0.4444
58355SOL    HW280903   9.951   5.042  10.047 -0.6186  1.0979  0.4752
58356SOL     OW80904   3.959   1.679   6.451  0.7739  0.9749  0.2374
58356SOL    HW180905   3.976   1.585   6.451  2.5784  1.2611  1.1466
58356SOL    HW280906   3.897   1.692   6.523  0.4669  0.4755  0.0676
58357SOL     OW80907   3.054  11.805   9.206 -0.2142 -0.1745  0.2123
58357SOL    HW180908   2.978  11.747   9.204 -0.7070  0.4697  0.0038
58357SOL    HW280909   3.119  11.760   9.152 -1.1441  0.1905 -1.2772
58358SOL     OW80910   8.760   8.659  11.229  0.3455  0.2591 -0.2606
58358SOL    HW180911   8.856   8.665  11.229  0.4466  0.6232 -3.4166
58358SOL    HW280912   8.741   8.566  11.230  0.9021  0.0838 -2.2275
58359SOL     OW80913   8.208   9.534   5.498 -0.3654 -0.2687 -0.2690
58359SOL    HW180914   8.234   9.625   5.512 -0.1220 -0.5728  1.4998
58359SOL    HW280915   8.132   9.522   5.555 -2.2408 -0.4195 -2.6329
58360SOL     OW80916   7.783   9.088   7.935  0.0870 -0.3352  0.8656
58360SOL    HW180917   7.860   9.140   7.957  0.3832 -1.5941  3.0336
58360SOL    HW280918   7.724   9.100   8.008 -0.7793 -1.2680  0.3431
58361SOL     OW80919   2.798   4.147   9.082  0.4825  0.1472  0.4063
58361SOL    HW180920   2.859   4.210   9.122  0.6849 -0.4489  1.0505
58361SOL    HW280921   2.790   4.177   8.991  1.1195  0.6956  0.5162
58362SOL     OW80922   2.468  11.822   7.620  0.3111  0.2644 -0.4264
58362SOL    HW180923   2.542  11.852   7.567  1.5928  0.3446  1.3224
58362SOL    HW280924   2.465  11.883   7.694  0.1979 -1.2958  0.9147
58363SOL     OW80925   3.810   2.593  11.719 -0.3030 -0.5094 -0.1060
58363SOL    HW180926   3.889   2.548  11.689 -1.5226 -1.7343 -1.6336
58363SOL    HW280927   3.747   2.523  11.734 -1.8778  0.5803 -1.3119
58364SOL     OW80928   6.684   7.255   2.640  0.5409 -0.2716  0.0994
58364SOL    HW180929   6.642   7.291   2.718  1.0381  3.4062 -1.1500
58364SOL    HW280930   6.777   7.249   2.663  0.3491 -1.8608  0.6093
58365SOL     OW80931   0.160  11.698   1.830 -0.6873 -0.2954  0.2053
58365SOL    HW180932   0.154  11.651   1.914 -2.1521  0.2750  0.4632
58365SOL    HW280933   0.069  11.711   1.804 -0.2647  0.3923 -1.0034
58366SOL     OW80934   9.244  10.997  10.962 -0.2120  0.2212  0.0073
58366SOL    HW180935   9.204  10.910  10.962  0.7644 -0.2436 -0.6132
58366SOL    HW280936   9.305  10.995  11.036 -0.0483  0.3130 -0.1239
58367SOL     OW80937   5.752   8.332   5.415  0.2616 -0.0018  0.4074
58367SOL    HW180938   5.810   8.359   5.487 -0.2514 -0.0361  0.8382
58367SOL    HW280939   5.808   8.334   5.337  0.4409  1.5102  0.5519
58368SOL     OW80940   3.802  11.633   1.118 -0.3578  0.3466 -0.1072
58368SOL    HW180941   3.836  11.659   1.203 -0.3805  0.3353 -0.0947
58368SOL    HW280942   3.875  11.646   1.058  0.6773 -2.5064  0.3713
58369SOL     OW80943   9.206  11.853   3.093  0.0699  0.3835 -0.0367
58369SOL    HW180944   9.226  11.946   3.103  0.3354  0.3959 -0.6103
58369SOL    HW280945   9.139  11.849   3.025  1.3215  0.0613 -1.3132
58370SOL     OW80946   2.231   3.153   7.625 -0.5201  0.1667 -0.0867
58370SOL    HW180947   2.235   3.179   7.533  0.2262  1.4130  0.2766
58370SOL    HW280948   2.318   3.171   7.659 -0.8637 -0.0391  0.9288
58371SOL     OW80949   3.241   6.879   7.639 -0.0217 -0.0653  0.5133
58371SOL    HW180950   3.281   6.805   7.684  3.3682  1.6874  0.7229
58371SOL    HW280951   3.294   6.891   7.561  0.0673  2.5983  0.8980
58372SOL     OW80952   6.985   8.889   7.033 -0.5153  0.2567  0.0165
58372SOL    HW180953   7.068   8.879   7.079 -0.7547 -0.7919  0.2388
58372SOL    HW280954   6.940   8.960   7.079  0.1567  0.6801  0.0307
58373SOL     OW80955  11.772   5.281   3.529 -0.4295 -0.1023 -0.0217
58373SOL    HW180956  11.818   5.327   3.599  1.2683  0.3347 -1.3556
58373SOL    HW280957  11.810   5.193   3.529 -0.7257 -0.2310 -0.1178
58374SOL     OW80958   8.010   6.501   0.489 -0.4781 -0.0185 -0.1103
58374SOL    HW180959   8.081   6.449   0.450 -0.7718  0.1579 -0.8927
58374SOL    HW280960   7.930   6.452   0.469 -0.7385  0.6296 -0.6973
58375SOL     OW80961   3.595  11.473   5.545  0.0366 -0.2049  0.6484
58375SOL    HW180962   3.665  11.456   5.483 -1.6080  0.9725 -1.6907
58375SOL    HW280963   3.517  11.435   5.505 -1.1501  0.7728  1.8897
58376SOL     OW80964   9.484   4.143  11.505  0.4523 -0.2131 -0.1378
58376SOL    HW180965   9.437   4.208  11.558 -0.9604 -1.1254 -0.2023
58376SOL    HW280966   9.551   4.193  11.459  0.2713  0.9646  0.8242
58377SOL     OW80967   9.901   9.226   5.796  0.0956  1.0358 -0.0678
58377SOL    HW180968   9.936   9.154   5.847  0.3486  2.1176  1.3510
58377SOL    HW280969   9.807   9.209   5.791  0.4036 -0.4645 -1.5769
58378SOL     OW80970   5.818   5.912   3.534  0.6328 -0.8609 -0.1255
58378SOL    HW180971   5.905   5.934   3.501 -0.2365 -2.3078 -3.8903
58378SOL    HW280972   5.791   5.989   3.583  3.3412  0.2963 -0.2585
58379SOL     OW80973   1.199   9.025   9.849 -0.6850 -0.2240  0.0959
58379SOL    HW180974   1.263   8.986   9.790 -1.6006 -0.3502 -0.8535
58379SOL    HW280975   1.214   8.983   9.934 -0.7508 -1.6535 -0.5751
58380SOL     OW80976  11.190   4.223   2.592 -0.6899 -0.3541  0.5778
58380SOL    HW180977  11.096   4.228   2.578 -0.6224  0.3071  0.2667
58380SOL    HW280978  11.201   4.179   2.676 -1.2969 -0.0059  0.8459
58381SOL     OW80979   1.218   6.141   3.169  0.0105  0.0428  0.2395
58381SOL    HW180980   1.257   6.076   3.226 -1.4749 -1.7049 -0.6167
58381SOL    HW280981   1.260   6.127   3.084  0.1781  0.6866  0.2101
58382SOL     OW80982  11.611   1.054   3.516  0.3572 -0.2523  0.3900
58382SOL    HW180983  11.558   1.066   3.595 -0.1587 -2.9493  0.5301
58382SOL    HW280984  11.691   1.012   3.548 -0.3189 -2.4031 -0.5931
58383SOL     OW80985   6.480   2.005   1.397 -0.3046  0.3337  0.0601
58383SOL    HW180986   6.449   1.963   1.477  0.2654 -1.0981 -0.4323
58383SOL    HW280987   6.421   2.079   1.383 -1.3880 -0.3492  0.9424
58384SOL     OW80988   8.286   7.842   1.794 -0.6878 -0.0777 -0.6184
58384SOL    HW180989   8.241   7.832   1.878  1.1300  0.0166  0.4145
58384SOL    HW280990   8.379   7.837   1.815 -0.0778  2.3683 -2.2840
58385SOL     OW80991   0.713   0.247   4.702 -0.7438  0.5598 -0.2169
58385SOL    HW180992   0.627   0.206   4.707 -0.2851 -0.6508 -1.4871
58385SOL    HW280993   0.773   0.174   4.689  0.3306  1.4985 -0.6730
58386SOL     OW80994   3.409   9.263   7.986 -0.0049  0.7055 -0.1812
58386SOL    HW180995   3.421   9.230   8.075 -0.2207  1.3739  0.1046
58386SOL    HW280996   3.484   9.229   7.938 -1.2979 -1.9996 -0.4596
58387SOL     OW80997   7.555   2.568   3.037 -0.1434  0.3180  0.0680
58387SOL    HW180998   7.495   2.507   3.080 -1.3480  1.7494  0.5224
58387SOL    HW280999   7.636   2.561   3.087  0.0057 -1.4314 -0.3695
58388SOL     OW81000   4.366   1.600  10.767 -0.3314 -0.0775 -0.0871
58388SOL    HW181001   4.317   1.624  10.845 -0.8986  0.6889 -0.6718
58388SOL    HW281002   4.457   1.618  10.789 -0.6328  1.5297 -0.1017
58389SOL     OW81003   8.170   1.839  10.590 -0.2002  0.0194 -0.5627
58389SOL    HW181004   8.215   1.797  10.663 -1.1228 -0.2585 -0.1367
58389SOL    HW281005   8.083   1.859  10.624 -0.2897  0.8795 -1.2480
58390SOL     OW81006   7.848   6.068   7.496 -0.0286  0.7220  0.7010
58390SOL    HW181007   7.919   6.033   7.549 -0.9406  0.0188  1.5141
58390SOL    HW281008   7.865   6.035   7.408 -0.1029 -0.6536  1.1689
58391SOL     OW81009  11.000   8.732   4.810  0.1324  0.2702  0.6541
58391SOL    HW181010  10.940   8.793   4.855 -1.0925 -1.1100  0.9630
58391SOL    HW281011  10.994   8.651   4.861  0.7040 -0.5403 -0.5330
58392SOL     OW81012   7.827   2.633   5.179  0.0787 -0.0238 -0.4364
58392SOL    HW181013   7.758   2.571   5.202  0.7061 -1.2643 -1.7543
58392SOL    HW281014   7.908   2.584   5.191  0.8531  1.5555  1.5776
58393SOL     OW81015   8.386   5.047   0.978 -0.5818  0.7367  0.5223
58393SOL    HW181016   8.383   5.089   0.892  0.5515  0.8011  0.5003
58393SOL    HW281017   8.358   4.957   0.962  0.5547  0.4752 -0.1129
58394SOL     OW81018   3.368   3.739   1.242 -0.1627  0.0081 -0.0053
58394SOL    HW181019   3.309   3.685   1.189 -0.0857 -0.2498  0.1716
58394SOL    HW281020   3.456   3.714   1.212 -0.1520  0.7693 -0.6409
58395SOL     OW81021  11.505   8.174   9.198 -0.2387 -0.0595  0.0914
58395SOL    HW181022  11.410   8.178   9.183 -0.3078 -1.2704  0.0723
58395SOL    HW281023  11.544   8.174   9.111 -0.3061 -0.8534  0.0499
58396SOL     OW81024  11.012   7.678   0.304  0.2882 -0.1042 -0.1376
58396SOL    HW181025  11.033   7.624   0.228  0.5801  1.4605 -1.1909
58396SOL    HW281026  11.085   7.740   0.311 -0.9974  1.4705 -0.1798
58397SOL     OW81027   8.940   9.291   9.745  0.2204  0.1233  0.1164
58397SOL    HW181028   8.923   9.366   9.802  2.4482 -0.3863  1.5725
58397SOL    HW281029   8.958   9.219   9.806  1.4918 -0.7357 -1.2145
58398SOL     OW81030   2.253  11.341  11.776 -0.0906  0.7430 -0.6587
58398SOL    HW181031   2.272  11.266  11.832  1.2587  0.7520 -1.0771
58398SOL    HW281032   2.222  11.303  11.694  1.6537  0.5525 -1.2779
58399SOL     OW81033   3.733  11.132   1.399  0.4776  0.3228 -0.1076
58399SOL    HW181034   3.705  11.206   1.346 -0.0067 -0.1025 -0.4479
58399SOL    HW281035   3.697  11.150   1.486  1.2323  0.9944  0.0747
58400SOL     OW81036   8.090   1.754   0.750 -0.0863  0.5964  0.5291
58400SOL    HW181037   8.139   1.707   0.682  0.9400  1.7663  0.4160
58400SOL    HW281038   8.157   1.802   0.798 -0.9532  0.8202  1.5354
58401SOL     OW81039   4.626  10.181   9.321  0.1372 -0.4033 -0.1369
58401SOL    HW181040   4.571  10.239   9.268 -0.8127  0.0580  1.2873
58401SOL    HW281041   4.687  10.240   9.365 -0.2549 -0.5672  0.6366
58402SOL     OW81042  11.357  11.697   6.197  0.4033 -0.0179 -0.1871
58402SOL    HW181043  11.373  11.673   6.288 -1.7020 -1.9391 -0.2410
58402SOL    HW281044  11.282  11.644   6.171 -0.4948  2.1223 -2.3740
58403SOL     OW81045   1.230   5.380  12.039 -0.1306 -0.2380 -0.0939
58403SOL    HW181046   1.307   5.326  12.020  0.8606  0.5084  1.5586
58403SOL    HW281047   1.267   5.461  12.075 -1.6939  0.2575  0.4606
58404SOL     OW81048   5.160  10.537   3.464 -0.2443 -0.0491 -0.9280
58404SOL    HW181049   5.208  10.616   3.439 -0.2787  0.3876  0.3329
58404SOL    HW281050   5.091  10.568   3.522 -0.2551 -1.0066 -0.4116
58405SOL     OW81051  12.143   0.099   0.318 -0.2265 -0.1692 -0.1483
58405SOL    HW181052  12.132   0.132   0.229 -1.8084  2.9456  1.0408
58405SOL    HW281053  12.211   0.154   0.357 -1.2262  0.1939  1.2090
58406SOL     OW81054   5.725  11.471   2.280  0.6120  0.3322  0.1636
58406SOL    HW181055   5.779  11.530   2.332  2.4583 -0.8877 -0.2574
58406SOL    HW281056   5.711  11.395   2.336  0.0504  0.2736 -0.0503
58407SOL     OW81057   4.795   7.422   8.918  0.5175 -0.0008  0.4498
58407SOL    HW181058   4.788   7.385   9.006  1.9880  0.8725  0.9656
58407SOL    HW281059   4.850   7.359   8.870 -0.7365 -0.7600 -0.0394
58408SOL     OW81060   9.370   2.790   0.804  0.5037 -0.3378  0.2854
58408SOL    HW181061   9.368   2.725   0.875  0.3607 -0.1952  0.4116
58408SOL    HW281062   9.457   2.779   0.765  1.3707  0.9179  1.7275
58409SOL     OW81063   3.593   0.319   0.949 -0.1007 -0.5738  0.4427
58409SOL    HW181064   3.602   0.353   0.860  1.2517 -1.0151  0.3858
58409SOL    HW281065   3.683   0.305   0.978 -0.5562 -1.4034  1.5031
58410SOL     OW81066   6.232   9.892   0.171 -0.2568  0.1695 -0.8391
58410SOL    HW181067   6.283   9.840   0.110 -0.6404  1.0770 -1.9633
58410SOL    HW281068   6.189   9.958   0.117 -1.0332  0.6719  0.3403
58411SOL     OW81069  10.503   3.518   5.020 -0.8053  0.0971  0.7706
58411SOL    HW181070  10.505   3.436   5.070 -0.5110 -0.1609  0.3396
58411SOL    HW281071  10.569   3.506   4.952 -0.9741  0.5782  0.5200
58412SOL     OW81072  11.047  11.756   2.443 -0.2736 -0.1676 -0.7442
58412SOL    HW181073  11.064  11.736   2.535 -0.7502 -0.9649 -0.8199
58412SOL    HW281074  11.085  11.843   2.430 -0.5051  0.1054  0.2945
58413SOL     OW81075   5.776  10.579   3.688 -0.2276 -0.0951  0.2053
58413SOL    HW181076   5.766  10.672   3.709 -1.5503  0.4012 -2.2256
58413SOL    HW281077   5.847  10.577   3.624 -1.1722 -0.5344 -0.8553
58414SOL     OW81078   6.952  10.984   7.964  0.4382 -0.3194  0.3000
58414SOL    HW181079   6.857  10.975   7.959  0.2704  1.6168 -1.3791
58414SOL    HW281080   6.969  11.000   8.057 -0.9467 -0.1248  0.5518
58415SOL     OW81081   6.405   6.943   2.817 -0.0715  0.7483  0.3721
58415SOL    HW181082   6.342   6.890   2.767 -0.7342  0.6939  1.2325
58415SOL    HW281083   6.470   6.970   2.753 -0.0802 -0.5681 -0.2240
58416SOL     OW81084   9.495   6.071   3.550 -0.2032 -0.0719 -0.5529
58416SOL    HW181085   9.578   6.062   3.503 -0.8386 -0.1086 -1.7179
58416SOL    HW281086   9.519   6.075   3.642  1.1270  0.4400 -0.9075
58417SOL     OW81087   5.168   0.924   9.153 -0.4859 -0.3766  0.1020
58417SOL    HW181088   5.257   0.939   9.185 -0.3324  0.8744 -0.8496
58417SOL    HW281089   5.177   0.858   9.084 -0.1300  0.5252 -0.7314
58418SOL     OW81090   4.516   8.489   3.883 -0.0182 -0.2702  0.3852
58418SOL    HW181091   4.495   8.420   3.946  1.3644 -0.2038  0.9538
58418SOL    HW281092   4.561   8.445   3.812 -1.2374 -0.2850 -0.4047
58419SOL     OW81093   2.489   7.321   5.723  0.3661 -0.6393 -0.4534
58419SOL    HW181094   2.504   7.375   5.801 -1.7455  1.5773 -1.4641
58419SOL    HW281095   2.457   7.382   5.657 -2.8247 -3.1743 -1.5149
58420SOL     OW81096  12.177  11.731   7.524  0.4875  0.1972  0.3862
58420SOL    HW181097  12.095  11.691   7.495  1.2319 -1.2584  0.1796
58420SOL    HW281098  12.228  11.740   7.444  0.3577  1.5909  0.4351
58421SOL     OW81099  11.885   0.247   2.667 -0.1257 -0.9037  0.4098
58421SOL    HW181100  11.884   0.224   2.575  0.5098 -1.0492  0.4359
58421SOL    HW281101  11.974   0.277   2.684 -0.7451  1.0149  0.5209
58422SOL     OW81102   4.119   3.324  11.807  0.2009 -0.2898 -0.5609
58422SOL    HW181103   4.201   3.374  11.806  0.4465 -0.6887 -0.4972
58422SOL    HW281104   4.057   3.381  11.852  0.5661 -0.1772 -0.1927
58423SOL     OW81105   9.289   2.410   6.695 -0.4253  0.4755  0.1441
58423SOL    HW181106   9.320   2.391   6.606  0.0328  1.0690  0.1687
58423SOL    HW281107   9.314   2.333   6.746  0.9337  0.8739  0.1330
58424SOL     OW81108   2.495   9.137   4.640 -0.1770  0.1686  0.0077
58424SOL    HW181109   2.570   9.100   4.686  0.0406  0.1990 -0.3170
58424SOL    HW281110   2.461   9.204   4.699 -0.8352 -0.8263  0.7855
58425SOL     OW81111   0.510   6.753   1.533 -0.1168 -0.4282 -0.1669
58425SOL    HW181112   0.502   6.842   1.567 -0.8095 -0.5226 -0.0742
58425SOL    HW281113   0.432   6.740   1.479  0.9220 -0.3023 -1.7594
58426SOL     OW81114   7.891   2.970   5.295 -0.6710 -0.5183  0.3178
58426SOL    HW181115   7.866   2.974   5.387  0.5343 -2.1049  0.7745
58426SOL    HW281116   7.976   3.014   5.291  0.0735 -1.9048  0.3220
58427SOL     OW81117   9.162   0.750  10.730  0.4661 -0.1229 -0.1774
58427SOL    HW181118   9.178   0.691  10.657  0.1415  0.1140 -0.4452
58427SOL    HW281119   9.167   0.838  10.691 -0.6215 -0.0151 -0.1071
58428SOL     OW81120   0.185   8.071   9.063  0.6023 -0.6599  0.1301
58428SOL    HW181121   0.240   8.102   8.991  2.3606 -0.1341  1.5891
58428SOL    HW281122   0.247   8.056   9.135 -1.1486 -0.3439  1.7927
58429SOL     OW81123   1.393  10.217   0.580 -0.8424  0.6595  0.7060
58429SOL    HW181124   1.415  10.131   0.616 -1.3513  0.1402 -0.1862
58429SOL    HW281125   1.311  10.203   0.533 -2.1908  2.1395  2.4703
58430SOL     OW81126  11.375  11.633  11.206 -0.2504  0.1284 -0.0516
58430SOL    HW181127  11.306  11.656  11.144 -0.8792  0.3760  0.7222
58430SOL    HW281128  11.328  11.606  11.285  0.5120  2.8185  1.4311
58431SOL     OW81129   3.896   2.979   9.221 -0.2723 -0.5398  0.2223
58431SOL    HW181130   3.875   3.035   9.146  0.4230 -0.6197 -0.0428
58431SOL    HW281131   3.984   3.007   9.247 -0.4579 -0.6072  0.9224
58432SOL     OW81132   4.840   3.339   4.380  0.4061 -0.1977 -0.2484
58432SOL    HW181133   4.860   3.420   4.427  3.1678  0.1063 -1.7372
58432SOL    HW281134   4.828   3.274   4.449  0.7545  0.9440  0.9320
58433SOL     OW81135   2.835   2.025   9.982  0.1758  0.3757 -0.3850
58433SOL    HW181136   2.877   1.948   9.942 -0.4678 -0.4937  0.5500
58433SOL    HW281137   2.773   1.988  10.044  0.8309  1.6811  1.1054
58434SOL     OW81138   9.673   0.498   3.483 -0.5041  0.3271  0.4132
58434SOL    HW181139   9.720   0.519   3.564 -1.4410  1.5482  0.6847
58434SOL    HW281140   9.618   0.423   3.506  0.0603 -0.0404  0.5770
58435SOL     OW81141   4.256   3.724   8.023 -0.5427 -0.1167  0.0477
58435SOL    HW181142   4.232   3.772   7.944 -0.4556 -1.3347 -0.7509
58435SOL    HW281143   4.348   3.700   8.009 -0.1169  0.8109  1.1348
58436SOL     OW81144   5.684   6.720  10.072  0.2836  0.1092 -0.0316
58436SOL    HW181145   5.590   6.706  10.084  0.4282 -0.0201  1.0633
58436SOL    HW281146   5.706   6.666   9.996 -0.1742 -1.4844  0.9162
58437SOL     OW81147   6.630   7.228   1.274  0.0869  0.1695 -0.0329
58437SOL    HW181148   6.550   7.212   1.224 -0.3252  0.1691  0.6018
58437SOL    HW281149   6.660   7.314   1.244 -1.2950  1.1278  1.1409
58438SOL     OW81150   5.420   7.647   9.544 -0.6075  0.0303 -0.1197
58438SOL    HW181151   5.404   7.715   9.478  1.0487  0.7161  0.1341
58438SOL    HW281152   5.413   7.693   9.628 -0.4078 -0.3214  0.0926
58439SOL     OW81153   8.820   6.168   3.351  0.2584  0.1028 -0.4857
58439SOL    HW181154   8.851   6.156   3.441  1.1915  0.0082 -0.8068
58439SOL    HW281155   8.737   6.214   3.360  0.5170  0.4114  0.4112
58440SOL     OW81156   2.091   9.247  10.567  0.1864  0.4005 -0.9705
58440SOL    HW181157   2.019   9.186  10.552  0.9858 -0.4771 -1.3411
58440SOL    HW281158   2.129   9.261  10.481  0.5727  0.7023 -0.7525
58441SOL     OW81159  11.466  10.823   7.956  0.5570  0.0789 -0.3204
58441SOL    HW181160  11.447  10.884   8.026 -1.8027 -2.2195  1.2430
58441SOL    HW281161  11.562  10.817   7.954  0.7116  0.8018  2.2061
58442SOL     OW81162   9.165   8.404  10.109  0.2478 -0.6494  0.0906
58442SOL    HW181163   9.083   8.372  10.071  0.7933  1.3160 -3.1084
58442SOL    HW281164   9.233   8.369  10.052  1.5466 -0.7900  1.6556
58443SOL     OW81165   7.629   3.495  10.678 -0.4139  0.0808  0.4405
58443SOL    HW181166   7.589   3.446  10.751 -0.9094  0.3097  0.3243
58443SOL    HW281167   7.587   3.461  10.600 -0.4245  0.3701  0.3191
58444SOL     OW81168   3.175   1.160   8.748  0.0860 -0.4047 -0.0805
58444SOL    HW181169   3.197   1.244   8.789 -0.7797  0.4060 -1.2181
58444SOL    HW281170   3.259   1.115   8.739  0.5978  0.4395  0.3227
58445SOL     OW81171   5.096   3.308   5.349 -0.1547  0.2964  0.5546
58445SOL    HW181172   5.011   3.281   5.385 -0.7145  1.7067  0.3675
58445SOL    HW281173   5.114   3.391   5.392  0.6428  0.5035 -0.1749
58446SOL     OW81174   8.776   2.764  11.427 -0.0928 -0.2709 -0.3527
58446SOL    HW181175   8.688   2.736  11.401  0.1935 -0.9903 -0.5751
58446SOL    HW281176   8.782   2.741  11.519  0.1234 -0.9189 -0.5215
58447SOL     OW81177  11.912  11.333   8.858 -0.7538  0.5146  0.2860
58447SOL    HW181178  11.854  11.407   8.842  0.1223  0.9848 -0.8766
58447SOL    HW281179  11.889  11.269   8.791 -0.0990  0.6198 -0.0536
58448SOL     OW81180   5.382   9.289   9.246  0.6512  0.2323 -0.2485
58448SOL    HW181181   5.394   9.328   9.159  0.1840 -0.3524 -0.5843
58448SOL    HW281182   5.443   9.216   9.249 -1.6150 -1.8587 -1.4149
58449SOL     OW81183   3.897  11.394   2.763 -0.0521  0.2554 -0.1079
58449SOL    HW181184   3.953  11.390   2.686 -0.4198  0.0762 -0.3686
58449SOL    HW281185   3.821  11.341   2.740 -1.3924  2.2846 -0.6198
58450SOL     OW81186   3.312   5.912   0.135  0.4325 -0.2732 -0.5543
58450SOL    HW181187   3.306   5.823   0.168 -0.3943 -0.8008 -2.0494
58450SOL    HW281188   3.331   5.965   0.213 -0.4206 -1.5713  0.5759
58451SOL     OW81189   7.348   0.465   3.536  0.0977 -0.6483  0.7983
58451SOL    HW181190   7.430   0.474   3.487  0.7256 -0.1155  1.9075
58451SOL    HW281191   7.300   0.546   3.518  0.2773 -0.5018  0.9821
58452SOL     OW81192   5.538   0.450   0.354  0.4155  0.5929 -0.4821
58452SOL    HW181193   5.520   0.397   0.276  1.4697  1.4961 -1.3679
58452SOL    HW281194   5.631   0.437   0.371 -0.1278 -1.0351  1.7707
58453SOL     OW81195   7.879   0.974   0.613  0.3951  0.3818 -0.0412
58453SOL    HW181196   7.901   1.042   0.677  0.4546  1.5948 -1.2846
58453SOL    HW281197   7.783   0.973   0.612  0.3344 -1.4214  1.8255
58454SOL     OW81198   1.719   0.041   9.439  0.2724  0.0399  0.3002
58454SOL    HW181199   1.672  -0.034   9.405  0.3265  1.0639 -2.2622
58454SOL    HW281200   1.766   0.008   9.516 -1.6642 -1.8704  0.7415
58455SOL     OW81201   3.493   6.685  10.138  0.9928 -0.3267 -0.6269
58455SOL    HW181202   3.415   6.679  10.084 -0.5859  2.5257  1.0873
58455SOL    HW281203   3.461   6.681  10.228  2.6201  1.8065  0.1496
58456SOL     OW81204   1.552   5.462   2.643  0.6690 -0.6578  0.5390
58456SOL    HW181205   1.610   5.509   2.582 -2.4166 -0.2502 -2.3701
58456SOL    HW281206   1.594   5.473   2.728  4.5175  0.0430 -1.2077
58457SOL     OW81207   1.838  10.401   7.756 -0.2600 -0.6688 -0.4035
58457SOL    HW181208   1.898  10.335   7.791  1.0847  1.1164  0.8264
58457SOL    HW281209   1.884  10.438   7.681 -1.4431 -1.7448 -1.7222
58458SOL     OW81210  12.082   4.066  10.830  0.3480 -0.1131  0.0948
58458SOL    HW181211  12.065   4.008  10.756 -1.9989 -0.8115  1.0962
58458SOL    HW281212  12.101   4.007  10.903  0.2353  0.4584  0.5970
58459SOL     OW81213   6.789   1.845   6.474  0.1992  0.0176 -0.2361
58459SOL    HW181214   6.827   1.766   6.511  0.9694  1.3044  1.9083
58459SOL    HW281215   6.859   1.911   6.480 -1.2374  1.5540  0.6141
58460SOL     OW81216   0.282   6.656   6.451  0.4347 -0.5465  0.1688
58460SOL    HW181217   0.197   6.680   6.489  0.6005  2.6623 -1.1831
58460SOL    HW281218   0.266   6.574   6.405 -1.5424 -0.7734  1.1658
58461SOL     OW81219   7.016   4.840   4.119  0.3095  0.0585 -0.0426
58461SOL    HW181220   7.084   4.832   4.052 -1.2208 -0.8432 -1.5534
58461SOL    HW281221   6.957   4.907   4.085 -0.2516 -0.0913  0.6206
58462SOL     OW81222   2.306   5.823   2.905 -0.1159 -0.3010 -0.8021
58462SOL    HW181223   2.399   5.837   2.884 -0.5855 -0.0313 -2.9089
58462SOL    HW281224   2.260   5.840   2.823 -2.0175 -0.7956  0.1071
58463SOL     OW81225   8.957   5.458   1.632 -0.3469  0.1335  0.0633
58463SOL    HW181226   8.880   5.418   1.672 -1.1382 -0.7888 -2.2117
58463SOL    HW281227   8.930   5.477   1.542  1.9271  0.2234 -0.6639
58464SOL     OW81228  10.491   2.890  12.112 -0.5973 -0.4632  0.3081
58464SOL    HW181229  10.573   2.938  12.097 -1.7676  1.7217  0.5416
58464SOL    HW281230  10.519   2.803  12.141  1.6265 -0.0214 -0.3367
58465SOL     OW81231   1.213   4.322   0.812 -0.4392 -0.1411 -0.1247
58465SOL    HW181232   1.156   4.399   0.817 -2.0640 -1.2684 -0.4529
58465SOL    HW281233   1.223   4.306   0.718 -0.9012 -0.8733 -0.0544
58466SOL     OW81234   6.673  10.855  10.101  0.5849 -0.2086  0.9249
58466SOL    HW181235   6.642  10.851  10.010 -0.1284 -1.0928  1.1918
58466SOL    HW281236   6.616  10.794  10.148  1.9790 -0.9928  1.6659
58467SOL     OW81237   4.504   0.544   9.091  0.0974  0.0434  0.2977
58467SOL    HW181238   4.409   0.549   9.081  0.3393  1.0297 -2.1823
58467SOL    HW281239   4.517   0.496   9.173 -2.4982 -2.8230 -0.7794
58468SOL     OW81240   6.461   8.295  10.792  0.3378 -0.0269 -0.3316
58468SOL    HW181241   6.409   8.370  10.821 -0.2371 -0.0197 -1.3180
58468SOL    HW281242   6.397   8.227  10.771  0.8784 -1.0156  1.0838
58469SOL     OW81243   2.931   8.143   9.789  0.7029  0.4344 -0.1318
58469SOL    HW181244   2.984   8.153   9.710  0.1800  0.1926 -0.5197
58469SOL    HW281245   2.994   8.146   9.861  1.3376 -0.7147 -0.6227
58470SOL     OW81246   5.905  10.075   1.688 -0.2164 -0.1250 -0.3545
58470SOL    HW181247   5.980  10.100   1.742  0.3435  1.7453 -1.8935
58470SOL    HW281248   5.831  10.071   1.749  0.9827 -1.3901  1.0788
58471SOL     OW81249  11.458  12.232   2.965 -0.7123 -0.3561  0.0886
58471SOL    HW181250  11.406  12.258   2.888 -1.2505 -1.7010 -0.0217
58471SOL    HW281251  11.486  12.143   2.946 -1.8685 -1.1776  1.9570
58472SOL     OW81252   5.677   5.640   5.903 -0.2994  0.2353  0.3202
58472SOL    HW181253   5.729   5.623   5.825 -1.6558  0.1135 -0.5888
58472SOL    HW281254   5.719   5.715   5.945  0.9480 -0.2441 -0.0482
58473SOL     OW81255   3.015   1.325   0.413 -0.2025 -0.5841  0.1949
58473SOL    HW181256   3.028   1.373   0.494  1.5963  0.5053 -0.6631
58473SOL    HW281257   3.098   1.336   0.365 -0.9940 -1.6660 -1.5386
58474SOL     OW81258   5.544  12.139   1.148 -0.1656  0.1305 -0.7563
58474SOL    HW181259   5.517  12.229   1.161  0.7081  0.3583 -0.4663
58474SOL    HW281260   5.626  12.144   1.099  0.9908 -0.3922  1.0227
58475SOL     OW81261   5.270   3.863   4.724  0.1953 -0.0260  0.3772
58475SOL    HW181262   5.331   3.824   4.786  1.2336  0.2500 -0.4244
58475SOL    HW281263   5.271   3.957   4.745  2.1843  0.4115 -1.3131
58476SOL     OW81264   1.403  10.443   7.408  0.0902 -0.6397 -0.4517
58476SOL    HW181265   1.319  10.453   7.452  0.4182 -0.7946  0.2283
58476SOL    HW281266   1.448  10.527   7.422  0.1923 -0.6856 -0.4991
58477SOL     OW81267   9.188   8.700   6.798  0.2504  0.9684  0.3117
58477SOL    HW181268   9.153   8.779   6.758 -2.1632  0.1182  0.5849
58477SOL    HW281269   9.280   8.720   6.815  0.4645  2.6238 -2.3168
58478SOL     OW81270   3.655   6.417   0.154 -0.0757  0.4067  0.2927
58478SOL    HW181271   3.698   6.406   0.238  0.9950  1.5671 -0.0781
58478SOL    HW281272   3.563   6.394   0.171  0.3072 -0.2911  1.5304
58479SOL     OW81273   3.451   3.244   7.322 -0.1390  0.2440 -0.1385
58479SOL    HW181274   3.517   3.294   7.370  0.6019 -0.5778 -0.2902
58479SOL    HW281275   3.375   3.303   7.318  0.2015  0.7910  0.9754
58480SOL     OW81276   6.587   5.888   0.260 -0.0512 -0.3806  0.1320
58480SOL    HW181277   6.518   5.822   0.273  1.2634 -1.9011 -0.3402
58480SOL    HW281278   6.545   5.971   0.282 -1.1458 -1.5779  3.0068
58481SOL     OW81279   8.891  12.215   5.935 -1.3249  0.1610  0.1393
58481SOL    HW181280   8.919  12.257   5.854  0.9652  0.2641  0.9226
58481SOL    HW281281   8.841  12.282   5.981  1.4564  1.8082  0.9396
58482SOL     OW81282   7.473  10.204   8.951  0.4444 -0.3795 -0.0157
58482SOL    HW181283   7.566  10.191   8.934  0.5251  0.5480 -0.3280
58482SOL    HW281284   7.429  10.169   8.873  0.5502 -0.4539 -0.0428
58483SOL     OW81285   4.870   2.654   4.081 -0.1597  0.1798  0.1368
58483SOL    HW181286   4.827   2.570   4.091 -1.0714  0.7588  1.4072
58483SOL    HW281287   4.941   2.654   4.145  0.8997 -0.2229 -0.9851
58484SOL     OW81288   6.972   6.703   9.029  0.2781  0.5441 -0.0802
58484SOL    HW181289   6.925   6.787   9.026 -0.3063  0.2024 -1.6326
58484SOL    HW281290   7.059   6.726   9.061  0.6989  2.0702 -2.0860
58485SOL     OW81291   8.313   5.673   3.237  0.2755 -0.5657 -0.4227
58485SOL    HW181292   8.398   5.681   3.281 -0.1878 -0.6255  0.5099
58485SOL    HW281293   8.255   5.636   3.304 -0.5837 -0.1648 -0.9304
58486SOL     OW81294  10.281   5.121  10.932  0.4230 -0.3159  0.7818
58486SOL    HW181295  10.216   5.164  10.877  0.2435 -1.5090  0.0384
58486SOL    HW281296  10.229   5.070  10.995  0.6245 -1.2056  0.2377
58487SOL     OW81297   0.831   3.226   9.409 -0.0862  0.8506 -0.7881
58487SOL    HW181298   0.815   3.150   9.353  0.8914 -0.4317  0.5849
58487SOL    HW281299   0.795   3.201   9.495 -0.5152  2.2954 -0.5235
58488SOL     OW81300   2.697   7.883   9.236 -0.2189  0.4119  0.3961
58488SOL    HW181301   2.668   7.823   9.167 -1.2145 -0.4566  1.5468
58488SOL    HW281302   2.786   7.908   9.209 -0.6175  0.1919 -1.2520
58489SOL     OW81303   1.358  11.048  10.737  0.1473 -0.1270  0.0615
58489SOL    HW181304   1.305  11.123  10.765 -1.5185 -1.4494  0.5969
58489SOL    HW281305   1.405  11.021  10.816  0.8272  0.3734 -0.1551
58490SOL     OW81306   3.480   5.776   9.342  0.5565 -0.4778  0.2102
58490SOL    HW181307   3.522   5.747   9.423  1.0750 -1.1502 -0.2926
58490SOL    HW281308   3.512   5.866   9.330  1.8796 -0.9643 -0.1530
58491SOL     OW81309   8.623   4.807  11.142 -0.2945  0.0086  0.0718
58491SOL    HW181310   8.618   4.833  11.050  0.4536  0.1838  0.0710
58491SOL    HW281311   8.686   4.734  11.143  1.0568  1.1232  0.6433
58492SOL     OW81312  11.550   3.704   2.086 -0.9971 -0.3242 -0.0448
58492SOL    HW181313  11.635   3.746   2.071 -0.1617 -1.5971  0.9454
58492SOL    HW281314  11.533   3.655   2.006 -1.1619  0.5001 -0.5282
58493SOL     OW81315   4.970   5.862  11.661 -0.1076  0.1615 -0.3735
58493SOL    HW181316   4.982   5.930  11.727  0.6397 -0.9942  0.7136
58493SOL    HW281317   4.890   5.816  11.688 -0.5423  0.4950 -1.0383
58494SOL     OW81318   9.684   5.159   1.495  0.0712 -0.2181  0.0875
58494SOL    HW181319   9.699   5.189   1.406  0.9673  0.1116  0.3416
58494SOL    HW281320   9.608   5.101   1.488  0.7685 -1.0441 -1.0594
58495SOL     OW81321   6.276   0.258   0.386  0.2686 -0.1933 -0.3747
58495SOL    HW181322   6.366   0.279   0.361  0.4740  0.6980  0.9962
58495SOL    HW281323   6.239   0.342   0.415  0.0263 -1.0686  2.1124
58496SOL     OW81324   8.735   0.207   3.610 -0.2382 -0.2143 -0.5074
58496SOL    HW181325   8.726   0.290   3.565  1.5569  1.4059  1.8673
58496SOL    HW281326   8.645   0.182   3.633 -0.7219  1.7837 -0.0904
58497SOL     OW81327   9.721   5.089   7.078  0.4069 -0.3879  0.3303
58497SOL    HW181328   9.724   5.000   7.042  1.9280  0.0779 -0.8275
58497SOL    HW281329   9.633   5.121   7.056  0.6999 -0.7419 -1.5574
58498SOL     OW81330   9.007  11.833   2.911  0.0586  0.6210  0.2624
58498SOL    HW181331   8.977  11.922   2.893 -0.6165  0.9174  2.5633
58498SOL    HW281332   8.930  11.778   2.899  0.2248  0.4698 -0.1520
58499SOL     OW81333   7.425   0.718   5.426 -0.1647  0.2642  0.0825
58499SOL    HW181334   7.387   0.678   5.504  2.3694 -0.6260  0.9536
58499SOL    HW281335   7.421   0.812   5.443  0.2362  0.0823  1.2421
58500SOL     OW81336   3.503   0.840   6.648  0.3479 -0.4614  0.3071
58500SOL    HW181337   3.494   0.771   6.582  2.1745  0.8018 -1.3656
58500SOL    HW281338   3.598   0.851   6.658  0.1026  1.4402  0.9123
58501SOL     OW81339   7.003   3.716   7.021  0.0592 -0.1437  0.0513
58501SOL    HW181340   7.089   3.673   7.029 -0.4856 -1.1972  0.3866
58501SOL    HW281341   7.014   3.799   7.068  0.8840 -0.2823  0.1223
58502SOL     OW81342   0.650   2.958   2.893 -0.2884 -0.1000  0.4966
58502SOL    HW181343   0.615   2.873   2.920  0.6508 -1.3222 -1.7744
58502SOL    HW281344   0.587   2.990   2.828 -0.2716  0.6135  0.8239
58503SOL     OW81345  12.281   6.770   0.738  0.0958 -0.4405  0.1814
58503SOL    HW181346  12.205   6.777   0.680  0.9004 -0.2918 -0.8799
58503SOL    HW281347  12.301   6.861   0.760  0.0860 -0.4696  0.3118
58504SOL     OW81348  10.515   1.162  11.087  0.2056  0.4290  0.1669
58504SOL    HW181349  10.476   1.245  11.116 -3.0926 -1.0815  0.4686
58504SOL    HW281350  10.467   1.140  11.007  0.4978 -1.5604  0.5017
58505SOL     OW81351   2.057   9.893   4.150  0.4844 -0.0539  0.1434
58505SOL    HW181352   2.019   9.938   4.074 -0.1065 -0.7825 -0.0027
58505SOL    HW281353   2.054   9.958   4.220 -2.2879 -0.4525  0.5155
58506SOL     OW81354   2.819  11.584   2.694 -0.5627 -0.2603  0.2226
58506SOL    HW181355   2.808  11.641   2.618 -0.7058 -1.2726 -0.5322
58506SOL    HW281356   2.911  11.593   2.718 -0.5633  0.2121  0.0602
58507SOL     OW81357   4.351   1.425   1.740  0.8927 -0.0605 -0.2216
58507SOL    HW181358   4.445   1.409   1.749  0.8460  0.1727  0.8502
58507SOL    HW281359   4.311   1.339   1.754  0.9377 -0.1266 -0.4986
58508SOL     OW81360   1.454  11.248   2.968  0.7747 -0.0057 -0.7346
58508SOL    HW181361   1.426  11.158   2.984 -0.1659 -0.0306 -2.4162
58508SOL    HW281362   1.548  11.247   2.990  0.6605 -1.2303 -0.1876
58509SOL     OW81363   8.488  11.875   3.205  0.6382  0.1120 -0.7022
58509SOL    HW181364   8.584  11.878   3.215  0.3648  1.3924  3.3730
58509SOL    HW281365   8.466  11.961   3.169  0.9284  0.5760  0.1970
58510SOL     OW81366   7.482   6.567   8.503 -0.6261  0.0548 -0.6859
58510SOL    HW181367   7.512   6.514   8.576  0.5321  0.2096 -1.0362
58510SOL    HW281368   7.560   6.612   8.472 -1.5912  2.1460 -0.2639
58511SOL     OW81369   2.123  12.176   9.058  0.6471  0.1639 -0.3005
58511SOL    HW181370   2.159  12.213   9.139  0.5182 -0.9838  0.3081
58511SOL    HW281371   2.189  12.111   9.030  1.6106  1.8436 -2.1875
58512SOL     OW81372   7.056  10.897   7.370 -0.1384  0.0378  0.7679
58512SOL    HW181373   7.076  10.850   7.451  3.9354  1.0037  0.5401
58512SOL    HW281374   7.109  10.976   7.375 -0.1613  0.3957 -2.5913
58513SOL     OW81375   6.769   1.468   7.329 -0.1989 -0.0359 -0.2705
58513SOL    HW181376   6.739   1.529   7.396 -0.9001  0.8281 -1.3281
58513SOL    HW281377   6.854   1.502   7.301 -0.5117  0.3816 -0.7388
58514SOL     OW81378   1.517  10.429   4.076 -0.4763 -0.8640 -0.0106
58514SOL    HW181379   1.597  10.431   4.128 -0.6711 -0.9439  0.2960
58514SOL    HW281380   1.547  10.425   3.985 -0.1115  1.1716 -0.0341
58515SOL     OW81381   8.500  10.648  11.694  0.0995  0.0155  0.2271
58515SOL    HW181382   8.552  10.699  11.756 -0.0557 -0.3869  0.7027
58515SOL    HW281383   8.561  10.621  11.626  0.4681 -0.2733  0.6681
58516SOL     OW81384   4.294   8.770   1.652 -0.2489  0.0328 -0.1935
58516SOL    HW181385   4.280   8.779   1.558  0.7395 -2.3234 -0.6301
58516SOL    HW281386   4.247   8.690   1.676  1.0481 -0.4279  0.9471
58517SOL     OW81387   0.149  12.235   1.594  0.0333 -0.3463  0.3701
58517SOL    HW181388   0.137  12.153   1.547 -2.3092 -0.6572  1.3788
58517SOL    HW281389   0.163  12.208   1.685  1.7117  0.3357  0.3485
58518SOL     OW81390   6.628   8.775   5.009  0.0230  0.5353 -0.2049
58518SOL    HW181391   6.574   8.815   4.940  1.5720 -0.9350 -2.4205
58518SOL    HW281392   6.567   8.725   5.062 -1.1897  1.4271 -0.7129
58519SOL     OW81393   2.091   8.634   8.731 -0.1228  0.1479  0.0675
58519SOL    HW181394   2.168   8.661   8.680 -0.6706  0.2576 -0.7114
58519SOL    HW281395   2.092   8.691   8.808 -0.5208  1.5172 -0.9014
58520SOL     OW81396   7.263   0.456   0.230  0.0343 -0.2694  0.3908
58520SOL    HW181397   7.282   0.522   0.164 -1.4915 -0.5259 -0.3396
58520SOL    HW281398   7.314   0.379   0.203 -1.0638 -0.5803 -0.8646
58521SOL     OW81399   2.827  10.844   9.934  0.2918  0.0153 -0.7823
58521SOL    HW181400   2.919  10.857   9.957  0.5581 -2.3995 -0.1726
58521SOL    HW281401   2.823  10.753   9.903 -2.1794 -0.5404  0.8675
58522SOL     OW81402   9.218   3.021   6.256  0.0955  0.3818 -0.5503
58522SOL    HW181403   9.199   2.988   6.344  2.5811 -0.0546 -0.1034
58522SOL    HW281404   9.222   3.117   6.267  0.3127  0.3357 -0.2006
58523SOL     OW81405   8.361   1.895   8.825 -0.8346 -0.4597  0.0026
58523SOL    HW181406   8.370   1.988   8.845  1.9157 -0.9469  1.4991
58523SOL    HW281407   8.399   1.886   8.737  2.5306 -0.5976  1.3294
58524SOL     OW81408   3.504   2.886   7.972  0.0103  0.0774  0.9328
58524SOL    HW181409   3.510   2.921   8.061 -1.8685  1.0130  0.7447
58524SOL    HW281410   3.549   2.950   7.918 -0.8146  0.6918  0.9561
58525SOL     OW81411   7.822   2.278   2.763  0.6663 -0.2480 -0.0225
58525SOL    HW181412   7.815   2.368   2.796  0.6498 -0.0632 -0.5120
58525SOL    HW281413   7.911   2.251   2.785  1.0281  0.2720 -0.8009
58526SOL     OW81414  10.557   9.696   8.075  0.1024 -0.2267 -0.0047
58526SOL    HW181415  10.639   9.652   8.055 -0.9803 -1.0174 -3.3459
58526SOL    HW281416  10.490   9.643   8.032 -2.2165  0.3681  2.6387
58527SOL     OW81417  10.080   4.595  11.751 -0.4354 -0.1501 -0.1116
58527SOL    HW181418  10.086   4.595  11.847 -1.4218  0.6341 -0.0403
58527SOL    HW281419   9.992   4.562  11.733  0.8523 -3.5553 -0.8683
58528SOL     OW81420   7.548   4.365  11.346  0.1569  0.7255 -0.1777
58528SOL    HW181421   7.495   4.290  11.317  0.9478 -0.1942  0.7175
58528SOL    HW281422   7.483   4.432  11.368 -0.6284 -0.1391  0.2396
58529SOL     OW81423  10.014   6.245   0.178 -0.9333 -0.2469  0.1152
58529SOL    HW181424  10.033   6.327   0.223  0.5388 -1.4505  1.8442
58529SOL    HW281425  10.021   6.266   0.085 -1.6458  1.7849  0.4719
58530SOL     OW81426   0.032   7.440   1.797 -0.0523  0.0272 -0.7372
58530SOL    HW181427   0.081   7.381   1.740  1.2430  1.2719 -0.9788
58530SOL    HW281428  -0.030   7.383   1.844  0.2351 -1.2981 -1.9107
58531SOL     OW81429   5.574   7.954   2.787  0.1145 -0.1509 -0.0215
58531SOL    HW181430   5.668   7.939   2.783  0.1450  0.2211 -1.3240
58531SOL    HW281431   5.535   7.870   2.760  0.1217  0.1270 -0.9265
58532SOL     OW81432   4.516   7.764   3.231  0.2615  0.3278  0.2496
58532SOL    HW181433   4.563   7.800   3.307 -0.9396 -0.0662  1.2028
58532SOL    HW281434   4.461   7.695   3.267 -0.9801  0.6957 -0.8597
58533SOL     OW81435   1.606  11.943   3.009 -0.4865  0.4269 -0.3774
58533SOL    HW181436   1.542  11.882   2.971  0.0291  0.4416 -1.3000
58533SOL    HW281437   1.597  12.022   2.957 -0.5516  0.8539  0.2732
58534SOL     OW81438   3.331   8.308   2.173 -0.0919 -0.0846  0.7572
58534SOL    HW181439   3.358   8.372   2.239  0.4526 -1.3661  1.8365
58534SOL    HW281440   3.365   8.342   2.090 -0.9130  1.6363  1.0867
58535SOL     OW81441   2.556   1.217   7.653 -0.1863  0.1614 -0.1294
58535SOL    HW181442   2.483   1.171   7.610  1.1013  0.6502 -3.0104
58535SOL    HW281443   2.633   1.166   7.630  0.4539 -0.9039  3.6630
58536SOL     OW81444   6.641   5.636   8.649  0.6229  0.4045 -0.3068
58536SOL    HW181445   6.667   5.566   8.708  0.5409 -0.4944 -1.3087
58536SOL    HW281446   6.721   5.686   8.632  0.8534  0.0541 -0.2438
58537SOL     OW81447   1.605   9.001   9.451 -0.1397 -0.4677  0.1728
58537SOL    HW181448   1.607   9.021   9.358  0.4169 -1.5152 -0.0460
58537SOL    HW281449   1.660   8.924   9.461 -0.3066 -0.4560  1.3507
58538SOL     OW81450   9.962   2.896   0.382 -0.7013  0.4221  0.0217
58538SOL    HW181451   9.916   2.910   0.300  1.4147 -0.2433 -1.3385
58538SOL    HW281452   9.918   2.954   0.444 -3.2925 -0.1319 -1.1648
58539SOL     OW81453   5.485   2.978   2.367 -0.2105  0.2648 -0.7051
58539SOL    HW181454   5.425   3.043   2.403  1.3142  1.4176 -0.1450
58539SOL    HW281455   5.432   2.931   2.302 -1.5731  1.5584 -0.6063
58540SOL     OW81456   5.670   8.031   1.684 -0.8179  0.3035  0.2372
58540SOL    HW181457   5.688   7.943   1.653 -0.9755  0.0326  0.9059
58540SOL    HW281458   5.692   8.088   1.609  1.2550 -0.1249  0.4376
58541SOL     OW81459   1.256   0.316   2.076 -0.0306  0.5864 -0.0507
58541SOL    HW181460   1.291   0.248   2.132  2.0820 -0.0548 -1.9603
58541SOL    HW281461   1.169   0.286   2.051 -0.5852  0.4103  1.9836
58542SOL     OW81462   2.874   3.878  12.315  0.2783 -0.2503 -0.1200
58542SOL    HW181463   2.833   3.944  12.371 -0.2072 -1.8194  1.4242
58542SOL    HW281464   2.965   3.906  12.308 -0.1886  1.2713 -0.5794
58543SOL     OW81465   8.931   2.678   6.346  0.5099  0.7875 -0.2248
58543SOL    HW181466   8.839   2.662   6.324  0.6865  0.3350 -0.6443
58543SOL    HW281467   8.935   2.666   6.441  0.3301 -0.1993 -0.3259
58544SOL     OW81468   5.433  11.343   5.144  0.7049 -0.5068  0.0475
58544SOL    HW181469   5.476  11.428   5.134 -2.6552  1.2577 -0.8091
58544SOL    HW281470   5.410  11.339   5.237 -0.9432  0.5887 -0.2636
58545SOL     OW81471   8.242  10.092  10.656  0.3371 -0.2038  0.0412
58545SOL    HW181472   8.309  10.133  10.710  0.5677 -1.8507  1.0736
58545SOL    HW281473   8.290  10.058  10.580  0.3857  0.0717 -0.0540
58546SOL     OW81474   2.415   6.965   5.139 -0.2573 -0.2999 -0.2178
58546SOL    HW181475   2.465   7.007   5.069 -0.1004  1.2273  0.7642
58546SOL    HW281476   2.412   6.873   5.114  4.0113 -0.7430  0.1399
58547SOL     OW81477   5.855   7.917   6.873 -0.1024  0.0971 -0.1279
58547SOL    HW181478   5.932   7.867   6.900 -1.2462 -1.9023 -0.3948
58547SOL    HW281479   5.878   7.950   6.785 -0.4634 -2.7286 -1.3780
58548SOL     OW81480   9.881   1.276   0.477  0.3308 -0.5376  0.3265
58548SOL    HW181481   9.959   1.332   0.482 -1.8803  2.9413 -0.5106
58548SOL    HW281482   9.892   1.227   0.396  0.7246  1.5792 -0.9833
58549SOL     OW81483   5.957  11.617   3.056  0.2222  0.1396  0.3654
58549SOL    HW181484   5.971  11.562   2.978  1.5874 -0.1242  0.7622
58549SOL    HW281485   5.985  11.704   3.029  0.6788  0.0520  0.5395
58550SOL     OW81486   3.605  10.937   8.647 -0.0002  0.1677  0.5507
58550SOL    HW181487   3.535  10.919   8.585 -0.1055  1.0887  0.3815
58550SOL    HW281488   3.570  10.910   8.732 -0.4154  0.2577  0.4122
58551SOL     OW81489  11.356   7.586   0.052  0.0560  0.0501 -0.2837
58551SOL    HW181490  11.391   7.638  -0.020  1.5207 -2.9254 -1.9073
58551SOL    HW281491  11.429   7.577   0.113 -0.0511 -0.3880 -0.2130
58552SOL     OW81492   0.172   1.485   7.916 -0.2702 -0.4002 -0.2163
58552SOL    HW181493   0.096   1.488   7.974 -0.3847 -0.3865 -0.3649
58552SOL    HW281494   0.225   1.413   7.949  0.5189  0.6771  0.9507
58553SOL     OW81495   1.591   5.154   3.636 -0.4538  0.2413 -0.2529
58553SOL    HW181496   1.599   5.141   3.730 -0.3801 -2.0469 -0.5246
58553SOL    HW281497   1.504   5.193   3.625 -0.2612  1.0180  0.7674
58554SOL     OW81498  10.619   8.411   3.873  0.6009 -0.3059  0.2281
58554SOL    HW181499  10.674   8.380   3.946  1.4751 -0.8294 -0.6214
58554SOL    HW281500  10.677   8.467   3.822 -0.0093  0.0660 -0.0658
58555SOL     OW81501   0.614   4.930   9.287 -0.1034 -0.4426 -0.0149
58555SOL    HW181502   0.652   4.972   9.365 -1.5550  1.1475 -0.1007
58555SOL    HW281503   0.670   4.958   9.215  0.6532 -1.1021  0.2917
58556SOL     OW81504   6.689   7.468   2.437  0.2337 -0.1389  0.2628
58556SOL    HW181505   6.667   7.503   2.523  1.0032  0.1880  0.3336
58556SOL    HW281506   6.720   7.379   2.455  2.1176  0.5302  0.5545
58557SOL     OW81507   2.596   7.754  11.675 -0.2007  0.5844  0.2917
58557SOL    HW181508   2.595   7.659  11.685  2.4231  0.6092  1.4442
58557SOL    HW281509   2.633   7.768  11.588  1.9634  0.4932  1.1335
58558SOL     OW81510   7.059   8.451   6.769 -0.1069  0.3873  0.1225
58558SOL    HW181511   7.121   8.493   6.828  1.0390 -0.0108 -0.7624
58558SOL    HW281512   7.050   8.362   6.803  1.2826 -0.1330 -0.8144
58559SOL     OW81513   1.867   3.412   6.687 -0.0539  0.2538 -0.1375
58559SOL    HW181514   1.779   3.444   6.706  0.3499  1.2350  0.1456
58559SOL    HW281515   1.924   3.461   6.747  0.7167 -0.1374 -0.5313
58560SOL     OW81516   4.371   6.538   9.686  0.6033 -0.8728 -0.2678
58560SOL    HW181517   4.338   6.627   9.676  1.2785 -0.3711  1.5947
58560SOL    HW281518   4.292   6.485   9.697  0.2503 -0.1769  0.7294
58561SOL     OW81519   2.500   4.799   8.956 -0.3955 -0.1597  0.0694
58561SOL    HW181520   2.512   4.883   8.913 -1.5219 -0.6389 -1.2312
58561SOL    HW281521   2.587   4.776   8.988  0.1538  0.9483 -0.5677
58562SOL     OW81522  12.081  11.947   5.986  0.2233  0.7329 -0.4471
58562SOL    HW181523  12.094  11.864   5.940 -0.4390  0.8255 -0.8126
58562SOL    HW281524  11.999  11.982   5.950  0.4101  1.4640 -0.1754
58563SOL     OW81525  10.136   2.471   8.735 -0.2964  0.0716  0.6034
58563SOL    HW181526  10.049   2.511   8.740 -0.0835  0.4022  2.2634
58563SOL    HW281527  10.196   2.543   8.753  0.1288 -0.8219  3.0195
58564SOL     OW81528   1.919  10.775   6.560 -0.2467 -0.0823 -0.0756
58564SOL    HW181529   1.939  10.858   6.602  2.2834 -0.4379 -0.4337
58564SOL    HW281530   1.850  10.736   6.614 -0.0604  1.3463  1.2379
58565SOL     OW81531   4.782   3.894   2.651  0.1646  0.5704 -0.1675
58565SOL    HW181532   4.833   3.953   2.596  0.1344  2.0172  1.2664
58565SOL    HW281533   4.694   3.932   2.653 -0.5645 -0.9454 -1.2226
58566SOL     OW81534   6.007  12.115   4.001 -0.5676  0.2486 -0.5226
58566SOL    HW181535   5.933  12.175   3.988  0.9510  2.2023 -0.4690
58566SOL    HW281536   6.071  12.141   3.934  0.2818 -1.1168 -0.2802
58567SOL     OW81537   4.108   6.296  11.914 -0.4527 -0.0100 -0.0023
58567SOL    HW181538   4.032   6.353  11.906  0.5939  1.2731 -1.1833
58567SOL    HW281539   4.157   6.309  11.833  0.0810 -2.2395 -0.1061
58568SOL     OW81540  12.053   0.856   4.795  0.4722  0.7371  0.0750
58568SOL    HW181541  11.980   0.794   4.789  3.3665 -2.8450 -2.3702
58568SOL    HW281542  12.041   0.915   4.720 -0.3343  0.7299  0.1924
58569SOL     OW81543  11.781   8.111   3.284  0.0093 -0.0782  0.3159
58569SOL    HW181544  11.743   8.198   3.275  0.2334 -0.0825 -0.8370
58569SOL    HW281545  11.834   8.116   3.364 -1.8453  0.1095  1.6226
58570SOL     OW81546   8.033   0.417   1.820 -0.3503 -0.3954  0.2651
58570SOL    HW181547   8.114   0.426   1.769  0.4224 -1.9334  1.1412
58570SOL    HW281548   7.992   0.337   1.786  0.0107 -1.2608  1.7636
58571SOL     OW81549   0.290   9.570   4.454  0.7200 -0.7438 -0.4115
58571SOL    HW181550   0.354   9.611   4.513  0.6601 -0.5500 -0.4796
58571SOL    HW281551   0.217   9.632   4.451  0.3095 -1.1972  0.0511
58572SOL     OW81552   4.214   7.776   7.781 -0.3272 -0.0672 -0.1530
58572SOL    HW181553   4.173   7.753   7.864 -1.5258 -1.4413 -1.0776
58572SOL    HW281554   4.144   7.818   7.731 -0.6909 -2.3699 -1.7320
58573SOL     OW81555   2.415  11.155   6.546 -0.3151 -0.2189 -0.0838
58573SOL    HW181556   2.475  11.106   6.602 -1.2178 -0.4014  0.7484
58573SOL    HW281557   2.369  11.088   6.495 -0.7485 -0.1653  0.2361
58574SOL     OW81558   2.721   9.970   9.813  0.4725  0.2488  0.5133
58574SOL    HW181559   2.760   9.902   9.868  0.0955  1.2819  2.1449
58574SOL    HW281560   2.792  10.034   9.802 -0.1084  1.2052  1.8908
58575SOL     OW81561   7.068   0.825   4.129  0.2621  0.5518  0.2921
58575SOL    HW181562   7.082   0.730   4.132  1.3733  0.6887 -0.1356
58575SOL    HW281563   7.009   0.839   4.055  2.1516  0.3835 -1.3485
58576SOL     OW81564   3.376   4.172  11.930 -0.3377  0.3217  0.3106
58576SOL    HW181565   3.414   4.241  11.984 -0.1251  0.3505  0.1262
58576SOL    HW281566   3.310   4.131  11.986  0.4030 -0.1451  0.8429
58577SOL     OW81567  11.858   1.717   8.466 -0.2092  0.3628 -0.1446
58577SOL    HW181568  11.811   1.693   8.546  0.1528 -1.2117 -0.3651
58577SOL    HW281569  11.793   1.762   8.412 -0.6103  0.9246  0.7797
58578SOL     OW81570   0.488   7.361   8.444  0.6611 -0.3651 -0.0950
58578SOL    HW181571   0.434   7.383   8.519  2.0428  1.5366  0.3965
58578SOL    HW281572   0.524   7.444   8.414  0.6230 -1.1387 -2.5193
58579SOL     OW81573   2.030   3.444   2.400  0.2999  0.4481 -0.4849
58579SOL    HW181574   1.960   3.457   2.336  0.3219  0.7057 -0.4543
58579SOL    HW281575   1.985   3.417   2.480  0.2802 -0.0033 -0.6407
58580SOL     OW81576  10.552   6.686  12.110  0.1099  0.0370 -0.7483
58580SOL    HW181577  10.538   6.594  12.087 -0.6913  0.6335 -2.8668
58580SOL    HW281578  10.629   6.711  12.059  0.8170  0.3444  0.4528
58581SOL     OW81579   3.285   6.036   2.983  0.5713 -0.0624  0.6586
58581SOL    HW181580   3.266   6.111   2.926 -0.2699  1.0320  2.3106
58581SOL    HW281581   3.375   6.051   3.013  1.2825 -1.0207 -0.8831
58582SOL     OW81582   4.172   6.660   7.782  0.2180 -0.1045 -0.1720
58582SOL    HW181583   4.107   6.709   7.732 -0.4039 -0.6191  0.1213
58582SOL    HW281584   4.229   6.727   7.819  0.2941  0.3179 -1.0149
58583SOL     OW81585   2.269  12.165   2.189  0.2882 -0.1078 -0.2276
58583SOL    HW181586   2.294  12.195   2.102 -0.5597  0.8638 -0.1543
58583SOL    HW281587   2.252  12.246   2.238 -0.8892 -0.6691  0.3331
58584SOL     OW81588   6.440   2.803   0.159 -0.1984 -0.8612  0.4155
58584SOL    HW181589   6.526   2.837   0.133 -1.6087  2.8248 -0.1076
58584SOL    HW281590   6.427   2.838   0.248 -0.4900 -2.8777  1.2125
58585SOL     OW81591   0.956   1.302   7.995 -0.2404 -0.0171 -0.1905
58585SOL    HW181592   0.938   1.209   7.982 -0.3414 -0.0979  0.5116
58585SOL    HW281593   0.949   1.340   7.907 -0.8725 -0.5546 -0.3835
58586SOL     OW81594   5.342   0.670   2.184 -0.1446  0.0705 -0.1644
58586SOL    HW181595   5.295   0.750   2.161  0.4819  0.9407  1.3868
58586SOL    HW281596   5.283   0.599   2.159 -1.3793  1.0656 -0.1753
58587SOL     OW81597   0.849  12.082   4.392  0.3211  0.1388  0.0296
58587SOL    HW181598   0.788  12.018   4.355  2.1810 -0.8339 -1.5923
58587SOL    HW281599   0.814  12.101   4.479 -2.5970  0.1701 -1.0353
58588SOL     OW81600   9.981   2.915  10.941  0.5569  0.2433  0.0048
58588SOL    HW181601   9.986   2.896  10.847  3.3495 -1.4765  0.3826
58588SOL    HW281602  10.031   2.995  10.952  0.3777  0.3483  0.0600
58589SOL     OW81603   4.218   8.516   5.822  0.0698  0.3101 -0.6098
58589SOL    HW181604   4.276   8.590   5.801 -0.4368  0.6618 -0.7812
58589SOL    HW281605   4.188   8.533   5.911 -0.3655  0.5187 -0.7970
58590SOL     OW81606   9.381   8.007   5.161 -0.0617 -0.0912 -0.6704
58590SOL    HW181607   9.473   8.005   5.134  0.7054 -0.3089  1.6973
58590SOL    HW281608   9.343   8.080   5.112  1.6018  0.5693 -1.0463
58591SOL     OW81609   5.929   6.607   9.055  0.3945  0.2538  0.2823
58591SOL    HW181610   5.991   6.543   9.091 -1.0643 -1.5717 -0.3499
58591SOL    HW281611   5.928   6.678   9.119  0.1893 -1.4933  2.3014
58592SOL     OW81612   6.721   7.098   6.242 -0.3184  0.3323  0.4253
58592SOL    HW181613   6.689   7.111   6.153 -0.9101 -1.0244  0.4154
58592SOL    HW281614   6.682   7.170   6.292 -2.0847 -0.3255  0.0741
58593SOL     OW81615   6.675   0.160  11.975  0.8170  0.4818  0.2851
58593SOL    HW181616   6.655   0.106  12.051  0.4495  0.1294 -0.0583
58593SOL    HW281617   6.712   0.241  12.012  0.3749  0.4317  0.8489
58594SOL     OW81618  12.212   8.116   0.167  0.1131 -0.0131 -0.7416
58594SOL    HW181619  12.227   8.200   0.124 -1.4111 -0.9329 -3.3331
58594SOL    HW281620  12.162   8.138   0.246 -0.1140  1.5192 -1.2770
58595SOL     OW81621   3.922   9.733   9.596 -0.5245 -0.1020  0.0794
58595SOL    HW181622   3.902   9.779   9.677 -0.6295  2.6443 -1.3677
58595SOL    HW281623   4.018   9.736   9.590 -0.6189  2.7708 -1.4148
58596SOL     OW81624   1.671   3.658   8.884 -0.2131 -0.3588  0.5108
58596SOL    HW181625   1.623   3.713   8.823 -0.6678 -0.1791  1.0258
58596SOL    HW281626   1.763   3.683   8.872 -0.4874  1.2827  1.4640
58597SOL     OW81627   5.713   3.073   5.487  0.0911 -0.2238 -0.2756
58597SOL    HW181628   5.635   3.127   5.495  0.2837 -0.0165  0.2631
58597SOL    HW281629   5.764   3.091   5.567  0.6462 -0.4195 -0.5748
58598SOL     OW81630   3.884  10.615   4.010 -0.2076  0.2074  0.5996
58598SOL    HW181631   3.797  10.583   4.032 -0.7635  2.6780  2.3747
58598SOL    HW281632   3.944  10.551   4.049 -1.1820 -0.9355  0.2958
58599SOL     OW81633   6.878   7.442   1.806 -0.1657  0.0660 -0.2406
58599SOL    HW181634   6.825   7.364   1.826 -1.6723  1.0557 -0.2017
58599SOL    HW281635   6.956   7.433   1.861 -0.9626 -0.7451  0.8005
58600SOL     OW81636   0.255  10.888   0.968  0.3806 -0.0494 -0.2321
58600SOL    HW181637   0.241  10.961   1.028 -1.5627  1.4209 -2.3110
58600SOL    HW281638   0.349  10.892   0.947  1.0219 -0.3749  2.3101
58601SOL     OW81639   7.806   2.028   3.359  0.1167  0.6485 -0.3989
58601SOL    HW181640   7.834   2.070   3.441 -0.7353 -1.1353  0.8861
58601SOL    HW281641   7.854   1.945   3.357 -0.4777  0.3113 -1.2959
58602SOL     OW81642   3.260   3.865  11.894  0.4650 -0.1365  0.3480
58602SOL    HW181643   3.226   3.864  11.805  2.3357  1.3717 -0.4537
58602SOL    HW281644   3.202   3.926  11.941  0.5625  0.5044 -0.3400
58603SOL     OW81645   4.911   0.786   4.622  0.1123  0.3487 -0.2704
58603SOL    HW181646   4.868   0.833   4.694 -1.1277  0.0529 -0.7937
58603SOL    HW281647   4.963   0.853   4.578  0.2010  0.7223  0.3816
58604SOL     OW81648   2.472   0.304  10.478 -0.1600  0.2310 -0.9074
58604SOL    HW181649   2.481   0.399  10.472 -1.0220  0.3211 -0.9059
58604SOL    HW281650   2.378   0.289  10.489  0.1026 -0.5569  0.4445
58605SOL     OW81651   7.049  10.226   9.796  0.5144 -0.4202  0.0766
58605SOL    HW181652   7.047  10.320   9.814  3.3708 -0.3682  0.6385
58605SOL    HW281653   7.096  10.189   9.870  0.7367 -2.0732 -0.8459
58606SOL     OW81654   3.649   3.503   0.971  0.3442 -0.2692 -0.1432
58606SOL    HW181655   3.671   3.580   1.023 -0.3593 -0.4163  0.3776
58606SOL    HW281656   3.592   3.451   1.027 -2.3912  0.6842 -1.8611
58607SOL     OW81657   0.685   8.031  11.518  0.2789 -0.7857  0.2283
58607SOL    HW181658   0.736   8.099  11.475 -0.4724 -0.9473 -0.9438
58607SOL    HW281659   0.637   8.077  11.587 -0.6850  0.0176 -0.9279
58608SOL     OW81660   7.978   2.495   2.799 -0.0254 -0.1441  0.4463
58608SOL    HW181661   7.934   2.522   2.718 -0.8508 -2.4839  0.0489
58608SOL    HW281662   8.068   2.523   2.788 -0.3840  0.5869 -0.7739
58609SOL     OW81663   1.212   8.023   0.058 -0.1491  0.2656  0.3249
58609SOL    HW181664   1.302   7.993   0.045  0.0767  1.0391  0.0574
58609SOL    HW281665   1.181   8.047  -0.029 -0.3706  0.6637  0.5073
58610SOL     OW81666   2.710   5.348   2.436 -0.1951 -0.0464  0.0480
58610SOL    HW181667   2.688   5.409   2.365  0.7912  0.1192 -0.1346
58610SOL    HW281668   2.659   5.269   2.416 -1.4205  0.6664  0.2397
58611SOL     OW81669   7.819   8.416  10.036 -0.1631  0.1058  0.4409
58611SOL    HW181670   7.801   8.501  10.077  1.0315 -0.1292  1.5334
58611SOL    HW281671   7.815   8.433   9.942 -0.6297  1.2157  0.6430
58612SOL     OW81672   6.524   0.535   7.338  0.0187 -0.4131  0.6262
58612SOL    HW181673   6.616   0.508   7.334  0.7690  1.9893 -0.0271
58612SOL    HW281674   6.495   0.535   7.247 -0.3456 -0.2766  0.7404
58613SOL     OW81675  10.417   7.495   3.224  0.0587 -0.1824  0.0945
58613SOL    HW181676  10.495   7.441   3.211  0.4754 -0.1682  2.1993
58613SOL    HW281677  10.451   7.581   3.249 -0.6336  0.2736 -0.4806
58614SOL     OW81678   4.499   1.147   1.170 -0.0838  0.2766  0.1362
58614SOL    HW181679   4.475   1.231   1.131 -0.3131  0.2633  0.2439
58614SOL    HW281680   4.479   1.083   1.102  0.0022  0.3009  0.0882
58615SOL     OW81681   6.905  11.084   3.322 -0.4438  0.1294  0.2231
58615SOL    HW181682   6.860  11.138   3.257 -2.5274  0.2367  1.6666
58615SOL    HW281683   6.916  10.999   3.279 -1.3250  0.3403 -0.4515
58616SOL     OW81684   3.236   9.095   3.319  0.3939  0.2339 -0.0666
58616SOL    HW181685   3.290   9.050   3.383  0.4097  0.2339 -0.0801
58616SOL    HW281686   3.191   9.025   3.272  1.6574  0.1469 -1.2011
58617SOL     OW81687   2.710  11.548   2.076 -0.1685  0.0980  0.6201
58617SOL    HW181688   2.794  11.517   2.041  0.9896  3.1115  0.3943
58617SOL    HW281689   2.735  11.605   2.150 -2.2333 -1.2172  2.4572
58618SOL     OW81690  10.886  11.019   7.952  0.0719 -0.2145  0.2988
58618SOL    HW181691  10.812  10.961   7.968 -0.2409 -0.1406 -0.7571
58618SOL    HW281692  10.870  11.095   8.007 -0.9449  0.0415 -0.3271
58619SOL     OW81693   7.722   2.423   4.660 -0.2986  0.0680  0.0200
58619SOL    HW181694   7.724   2.519   4.664  0.5110  0.0256  1.0424
58619SOL    HW281695   7.667   2.397   4.733  0.8672 -0.2797  0.8000
58620SOL     OW81696   9.231   4.875   1.530  0.7597  0.0514  0.3058
58620SOL    HW181697   9.216   4.811   1.600 -2.8926  0.9671  0.5492
58620SOL    HW281698   9.225   4.960   1.572  1.0406  0.6031 -0.7276
58621SOL     OW81699   9.597   2.460   3.861  0.1012 -0.3231  0.0747
58621SOL    HW181700   9.511   2.478   3.901  0.7795  0.0630  1.4093
58621SOL    HW281701   9.584   2.479   3.768 -1.3275 -0.5127  0.2028
58622SOL     OW81702   5.469   1.846   1.164  0.1360  0.1581  0.4796
58622SOL    HW181703   5.402   1.784   1.193 -0.7041  0.3680 -0.9072
58622SOL    HW281704   5.548   1.793   1.157  0.2220 -0.0269  2.4306
58623SOL     OW81705   5.500   7.304   4.678  0.1734 -0.1764 -0.2685
58623SOL    HW181706   5.507   7.372   4.611 -1.6292 -1.3380 -1.7563
58623SOL    HW281707   5.467   7.349   4.756  1.2190  1.0174 -0.4933
58624SOL     OW81708   9.186  10.135   4.884  0.1742  0.1548 -0.2332
58624SOL    HW181709   9.169  10.123   4.977 -0.9121 -3.6224 -0.7452
58624SOL    HW281710   9.262  10.081   4.866  1.3197  2.0474 -1.3420
58625SOL     OW81711   5.506   5.600   9.546 -0.3019  0.5441 -0.6313
58625SOL    HW181712   5.452   5.675   9.569  1.8274  1.3553  2.3191
58625SOL    HW281713   5.476   5.530   9.605 -0.7770 -0.2649 -1.7990
58626SOL     OW81714   1.955   5.084   1.378  0.6993  0.7348 -0.2444
58626SOL    HW181715   1.967   5.087   1.473  0.1301  0.1052 -0.1500
58626SOL    HW281716   2.043   5.101   1.343  1.0666  0.2201  0.4010
58627SOL     OW81717   1.723   1.352   1.599  0.1509 -0.0647 -0.5283
58627SOL    HW181718   1.759   1.426   1.648  0.0323  0.1053 -0.6959
58627SOL    HW281719   1.734   1.277   1.657 -1.5515  0.4171  0.4607
58628SOL     OW81720   5.167   3.206   4.822 -0.2064  0.0933  0.3666
58628SOL    HW181721   5.161   3.166   4.909 -0.2778 -0.6318  0.0373
58628SOL    HW281722   5.220   3.145   4.771 -0.0512  0.5819 -0.0597
58629SOL     OW81723   9.452   3.061   5.457  0.4418 -0.6759 -0.0387
58629SOL    HW181724   9.439   3.146   5.499  0.4042 -0.6569 -0.0883
58629SOL    HW281725   9.540   3.034   5.484  0.9802 -0.0126 -1.0900
58630SOL     OW81726  11.238   1.061  11.294  0.4313 -0.1293 -0.3966
58630SOL    HW181727  11.202   1.051  11.382 -0.8391  0.5440 -0.8183
58630SOL    HW281728  11.316   1.005  11.293 -0.3663 -1.3026  0.6801
58631SOL     OW81729   9.603   7.183   4.788 -0.2383  0.0650  0.2182
58631SOL    HW181730   9.670   7.157   4.725 -0.2176  0.1218  0.2174
58631SOL    HW281731   9.617   7.125   4.863  0.9623  1.2491  0.9590
58632SOL     OW81732   0.182  11.257   4.271  0.2935 -0.5579 -0.4115
58632SOL    HW181733   0.110  11.215   4.224 -1.0244  0.7662  0.3440
58632SOL    HW281734   0.184  11.347   4.237 -1.1220  0.6486  2.4001
58633SOL     OW81735   4.871   6.487   1.090 -0.2643  0.1347 -0.5659
58633SOL    HW181736   4.808   6.541   1.042  0.1193  2.0451  0.9949
58633SOL    HW281737   4.952   6.496   1.041 -0.9413 -1.8417 -2.2305
58634SOL     OW81738   7.100  12.198   4.785  0.1777  0.1766 -0.0386
58634SOL    HW181739   7.029  12.137   4.804  0.2025  0.3460  0.6370
58634SOL    HW281740   7.061  12.285   4.793  0.4047  0.2656  0.1406
58635SOL     OW81741   6.443   7.510   1.015  0.3761  0.0414 -0.9559
58635SOL    HW181742   6.458   7.507   0.920  0.0128 -1.8915 -0.9842
58635SOL    HW281743   6.349   7.521   1.024  0.3915  0.0618 -0.8165
58636SOL     OW81744   4.316   9.591   2.414 -0.1440 -0.6062 -0.0101
58636SOL    HW181745   4.383   9.553   2.471 -0.6610 -0.8099  0.4769
58636SOL    HW281746   4.340   9.563   2.326  1.2333  0.5340 -0.0381
58637SOL     OW81747   3.929   3.028  11.663 -0.0384  0.2956  0.4382
58637SOL    HW181748   3.911   2.952  11.607  0.7751  0.0092  0.5512
58637SOL    HW281749   3.908   3.103  11.608  0.1314  0.0024 -0.0387
58638SOL     OW81750  10.083   2.686   9.853  0.5772  0.3266  0.1465
58638SOL    HW181751  10.066   2.595   9.878 -1.5346  1.2667  2.5950
58638SOL    HW281752  10.023   2.703   9.781  0.8308 -0.1311 -0.1819
58639SOL     OW81753   3.455   5.695   9.033 -0.3914 -0.1574  0.0170
58639SOL    HW181754   3.515   5.654   8.971 -0.7561 -2.3455  1.0236
58639SOL    HW281755   3.508   5.758   9.080  0.4159 -0.0372 -1.0277
58640SOL     OW81756   0.566   8.489   6.150 -0.5457 -0.0088 -0.0474
58640SOL    HW181757   0.570   8.541   6.231 -0.8383 -1.0201  0.6372
58640SOL    HW281758   0.476   8.457   6.147 -0.2028 -0.9987 -0.1173
58641SOL     OW81759   2.687  11.501   0.714  0.3191 -0.4748  0.6456
58641SOL    HW181760   2.756  11.446   0.750  1.0003  0.6086  1.0343
58641SOL    HW281761   2.722  11.533   0.631  0.4122  0.3034  0.9740
58642SOL     OW81762   7.342   4.004   2.099  0.3090  0.3160 -0.0104
58642SOL    HW181763   7.402   3.941   2.058 -0.8223 -1.0289  0.3330
58642SOL    HW281764   7.385   4.028   2.181 -0.0963 -1.5262  0.7911
58643SOL     OW81765  10.183   7.567   3.957 -0.4372 -0.4984 -0.4084
58643SOL    HW181766  10.118   7.632   3.929 -0.7987 -1.2005 -1.2771
58643SOL    HW281767  10.266   7.601   3.924 -0.2061  0.7994  1.3887
58644SOL     OW81768   4.502   5.020   0.552  0.5624  0.2842  0.6732
58644SOL    HW181769   4.464   5.090   0.606 -0.8851  0.5354 -0.6211
58644SOL    HW281770   4.441   5.010   0.479  1.9055 -0.8079 -0.3450
58645SOL     OW81771   6.661   7.479  10.397 -0.0245  0.4336  0.1185
58645SOL    HW181772   6.689   7.473  10.488 -0.7097  0.6992  0.3587
58645SOL    HW281773   6.737   7.453  10.346  0.3237  0.1520  0.7736
58646SOL     OW81774   9.549  10.223   1.009 -0.1326 -0.4927 -0.3610
58646SOL    HW181775   9.638  10.187   1.007  0.3004  0.4440  0.6535
58646SOL    HW281776   9.522  10.214   1.100 -0.4090  0.7468 -0.3031
58647SOL     OW81777   5.560   5.999  11.013  0.1661 -0.3021 -0.5831
58647SOL    HW181778   5.651   5.980  10.990  0.5199 -0.9471  1.2027
58647SOL    HW281779   5.529   5.920  11.057  0.0236  1.2574  2.3755
58648SOL     OW81780   3.231   7.351   9.715 -0.0690 -0.0661  0.2498
58648SOL    HW181781   3.245   7.260   9.689 -0.0836  0.1393 -0.5011
58648SOL    HW281782   3.319   7.390   9.713 -0.1989  0.1957 -0.4537
58649SOL     OW81783   0.265   4.445   5.875 -0.1719  0.0504  0.3348
58649SOL    HW181784   0.282   4.517   5.815  2.7486  0.1415  1.1374
58649SOL    HW281785   0.207   4.482   5.942  0.7713  1.5070  0.3788
58650SOL     OW81786   8.148   7.529   3.217 -0.1055  0.5106 -0.2326
58650SOL    HW181787   8.199   7.567   3.288  0.8852 -0.4835 -0.3753
58650SOL    HW281788   8.181   7.439   3.210 -0.9739  0.2520 -1.2039
58651SOL     OW81789  11.698  10.042   9.492  0.0024 -0.2243 -0.5053
58651SOL    HW181790  11.713   9.950   9.515  0.6646  0.5901  2.9988
58651SOL    HW281791  11.617  10.064   9.537  0.4903  1.1825 -0.2689
58652SOL     OW81792   5.141   8.256  10.647  0.8408 -0.3705  0.1068
58652SOL    HW181793   5.153   8.182  10.588 -0.4344  0.8752 -1.8150
58652SOL    HW281794   5.181   8.330  10.602 -2.7086  1.2591 -0.7701
58653SOL     OW81795  10.087  11.594   9.207 -1.0636 -0.0524 -0.4813
58653SOL    HW181796  10.011  11.638   9.245  0.9515  2.2828  1.1616
58653SOL    HW281797  10.132  11.662   9.157  1.6223 -0.3869  1.2526
58654SOL     OW81798   4.592   0.002   5.345 -0.2084  0.0889  0.2401
58654SOL    HW181799   4.594   0.019   5.439 -1.2868 -1.4680  0.5947
58654SOL    HW281800   4.683   0.011   5.317  0.2228  0.0354  1.5518
58655SOL     OW81801   9.760  10.009   4.926 -0.0469  0.4261  0.2945
58655SOL    HW181802   9.713  10.037   4.848 -1.7572  0.7360  1.3993
58655SOL    HW281803   9.753   9.914   4.926 -1.8743  0.5239  1.1247
58656SOL     OW81804  10.202  11.155   9.317  0.4765 -0.3504 -0.0871
58656SOL    HW181805  10.291  11.151   9.351  0.1506 -1.2848  0.7054
58656SOL    HW281806  10.186  11.068   9.280 -0.2650 -0.3461  0.1912
58657SOL     OW81807   7.837  11.117   0.768  0.0380 -1.0091  0.0236
58657SOL    HW181808   7.840  11.026   0.741  0.9621 -1.0842  0.3433
58657SOL    HW281809   7.865  11.166   0.691 -0.3099 -1.0001 -0.1000
58658SOL     OW81810   0.982   3.695  11.776 -0.3930  0.2425  0.1764
58658SOL    HW181811   0.950   3.669  11.862 -2.5659  0.1011 -0.6073
58658SOL    HW281812   0.912   3.750  11.740  0.6473  0.6526 -1.3300
58659SOL     OW81813   3.246  10.235  10.228 -0.4145 -0.3887  0.7678
58659SOL    HW181814   3.169  10.262  10.178  0.3422 -0.5584 -0.5334
58659SOL    HW281815   3.268  10.149  10.194  0.2825 -0.3917  1.2000
58660SOL     OW81816   4.149   4.245   2.223  0.1429  0.3212 -0.2613
58660SOL    HW181817   4.195   4.160   2.224  0.0314  0.2614  0.4333
58660SOL    HW281818   4.137   4.264   2.130  1.1243  0.0888 -0.4494
58661SOL     OW81819  11.746   0.468   5.781  0.1999  0.4490  0.5876
58661SOL    HW181820  11.835   0.432   5.786 -0.0200 -0.1945  0.1109
58661SOL    HW281821  11.690   0.391   5.784 -0.2913  0.7443 -0.4545
58662SOL     OW81822   0.569   4.458   1.076  0.3814  0.0795 -0.2300
58662SOL    HW181823   0.663   4.461   1.058  0.4795  0.1557  0.2836
58662SOL    HW281824   0.562   4.433   1.168 -0.0300  2.1012  0.3449
58663SOL     OW81825   6.372   3.886  11.214 -0.5479 -0.8258  0.1813
58663SOL    HW181826   6.373   3.791  11.209  0.3251 -0.7636 -2.3653
58663SOL    HW281827   6.280   3.910  11.207 -0.8698 -1.4799  1.8755
58664SOL     OW81828   4.630   9.921   9.713  0.1007 -0.3065  0.2129
58664SOL    HW181829   4.616   9.920   9.618  0.5306 -2.7507  0.0964
58664SOL    HW281830   4.679  10.001   9.730  0.5873 -0.1445 -1.7188
58665SOL     OW81831   0.828   3.700   7.871  0.1387 -1.0049 -0.6195
58665SOL    HW181832   0.828   3.701   7.775  0.4574 -0.7274 -0.6166
58665SOL    HW281833   0.821   3.607   7.894  0.4263 -1.0995 -0.9127
58666SOL     OW81834   1.618   4.895   8.515 -0.1429 -0.0866  0.5083
58666SOL    HW181835   1.585   4.824   8.571 -1.8581  0.5707  0.3738
58666SOL    HW281836   1.609   4.974   8.568 -1.1677  0.4525 -0.4433
58667SOL     OW81837  11.642   6.942   3.631  0.1544 -0.6370 -0.4469
58667SOL    HW181838  11.627   7.006   3.561  0.1311 -0.2035 -0.0552
58667SOL    HW281839  11.682   6.867   3.588  0.6085 -0.1700 -0.8438
58668SOL     OW81840   0.890   1.006   8.030  0.6670  0.2852 -0.2741
58668SOL    HW181841   0.796   1.024   8.028  0.4612 -0.6569  0.2785
58668SOL    HW281842   0.899   0.931   8.089  1.8719  0.9621  0.4588
58669SOL     OW81843   8.470   9.105   2.239 -0.2687 -0.2841  0.1106
58669SOL    HW181844   8.563   9.111   2.220 -0.3499 -0.7522 -0.4552
58669SOL    HW281845   8.443   9.022   2.200 -0.7825 -0.4808  0.8507
58670SOL     OW81846   9.458   0.283  10.079  0.0043  0.4393 -0.7358
58670SOL    HW181847   9.449   0.216  10.148  3.5456  0.4667 -0.0196
58670SOL    HW281848   9.477   0.363  10.127  1.6607  0.6404 -1.6583
58671SOL     OW81849  12.114   2.417   8.358 -0.0850  0.3825  0.3166
58671SOL    HW181850  12.063   2.347   8.400  0.8983 -0.6156 -0.0797
58671SOL    HW281851  12.087   2.497   8.403 -1.8542 -0.1169  0.2304
58672SOL     OW81852   5.794  10.158   6.949 -0.3409  0.2105  0.7952
58672SOL    HW181853   5.868  10.099   6.933 -1.5173 -0.9521 -0.7432
58672SOL    HW281854   5.767  10.138   7.039 -1.8628 -3.1380 -0.2159
58673SOL     OW81855   6.676   6.960  10.577  0.3919 -0.2958 -0.1130
58673SOL    HW181856   6.768   6.948  10.603  0.2927  0.0622  0.4208
58673SOL    HW281857   6.679   7.024  10.505  0.5165  0.1568  0.2904
58674SOL     OW81858   6.373  10.668   3.664  0.1253 -0.3253  0.1387
58674SOL    HW181859   6.386  10.624   3.580  1.2310 -2.4503  1.3094
58674SOL    HW281860   6.427  10.617   3.725 -1.1017  0.7720  2.2395
58675SOL     OW81861   1.374   1.332   4.601 -0.3274 -0.0190 -0.7960
58675SOL    HW181862   1.320   1.410   4.611 -0.0789  0.3341 -2.0479
58675SOL    HW281863   1.311   1.259   4.604 -0.6718  0.2826 -0.6102
58676SOL     OW81864   6.747  11.009   0.768 -0.1546  0.2813  0.3855
58676SOL    HW181865   6.658  10.988   0.740  0.4457 -0.1329 -1.3170
58676SOL    HW281866   6.802  10.941   0.730  1.1610  1.7378 -0.4721
58677SOL     OW81867   2.553  10.174   6.337 -0.1284 -0.3487 -0.0719
58677SOL    HW181868   2.538  10.149   6.245 -2.8447 -2.1962  0.7526
58677SOL    HW281869   2.612  10.107   6.370 -0.4589 -0.6376 -0.0636
58678SOL     OW81870   9.102   6.778   9.419  0.1557 -0.2005 -0.1594
58678SOL    HW181871   9.106   6.704   9.357  1.2098  0.2485 -0.6604
58678SOL    HW281872   9.112   6.856   9.364 -2.4453  0.4475  0.1868
58679SOL     OW81873   4.779   9.550   7.822  0.5848 -0.8692  0.1133
58679SOL    HW181874   4.702   9.535   7.878 -0.5046 -0.2184 -1.1408
58679SOL    HW281875   4.798   9.644   7.833 -0.6829 -0.3308 -1.8008
58680SOL     OW81876   8.072  11.000   5.658  0.3224 -0.0764  0.1725
58680SOL    HW181877   7.991  11.052   5.653 -0.0389 -0.5814  0.6808
58680SOL    HW281878   8.069  10.945   5.579 -0.4234 -0.9315  0.7832
58681SOL     OW81879   4.934   8.701   3.037 -0.4961 -0.4845 -0.5494
58681SOL    HW181880   4.947   8.614   3.001 -1.9797 -0.7963 -0.3561
58681SOL    HW281881   4.940   8.760   2.961 -2.4111 -1.0319 -1.1801
58682SOL     OW81882   0.037   5.843   3.695  0.1273  0.8277  0.2450
58682SOL    HW181883   0.021   5.834   3.601 -0.2669 -1.4232  0.4712
58682SOL    HW281884   0.074   5.931   3.705 -1.3502  1.7487 -1.7788
58683SOL     OW81885   1.852   7.405   8.470 -0.3206  0.4354  0.0903
58683SOL    HW181886   1.941   7.434   8.453  0.2492  0.5815  2.8325
58683SOL    HW281887   1.810   7.478   8.515 -1.6298  0.1049 -0.5264
58684SOL     OW81888   4.443  10.370   0.224  0.7488  0.4551 -0.4875
58684SOL    HW181889   4.450  10.296   0.284  0.7165  0.7016 -0.1740
58684SOL    HW281890   4.357  10.408   0.243  0.5670  0.3000 -0.9714
58685SOL     OW81891   3.838   5.096   3.503  0.4431 -0.0379 -0.1796
58685SOL    HW181892   3.876   5.076   3.417  1.3382 -0.5283  0.3120
58685SOL    HW281893   3.747   5.067   3.497  0.4431  0.1157 -1.0248
58686SOL     OW81894   0.249  11.979   5.564  0.1938  0.4998 -0.3818
58686SOL    HW181895   0.324  12.032   5.592  0.4024 -0.1854  0.4262
58686SOL    HW281896   0.210  12.027   5.492  0.6680  1.5044  0.0150
58687SOL     OW81897   5.652  10.685   0.811 -0.4031  0.2340  0.1256
58687SOL    HW181898   5.661  10.718   0.721 -1.3399  1.5096  0.4664
58687SOL    HW281899   5.715  10.735   0.861  1.1280 -1.4576 -0.0084
58688SOL     OW81900   3.369   7.577  12.076  0.0941  0.1744  0.6615
58688SOL    HW181901   3.461   7.588  12.101  0.7788  3.2061 -2.5086
58688SOL    HW281902   3.369   7.502  12.017  0.8193  0.8152 -0.1916
58689SOL     OW81903   3.741  11.356   2.499 -0.5993 -0.3158  0.5866
58689SOL    HW181904   3.722  11.400   2.416 -1.4379  0.1290  0.9982
58689SOL    HW281905   3.815  11.300   2.480 -0.0482  0.6353 -0.1809
58690SOL     OW81906  11.492  10.357   7.524  0.1087  0.1629 -0.0196
58690SOL    HW181907  11.574  10.340   7.477  0.5963  1.1210  0.4558
58690SOL    HW281908  11.519  10.403   7.603 -0.9798  1.5639 -0.4256
58691SOL     OW81909   2.292   9.630   7.412  0.2864 -0.2429  0.6238
58691SOL    HW181910   2.363   9.630   7.476  0.1801 -0.6304  0.7469
58691SOL    HW281911   2.307   9.708   7.359  0.2130  0.2396  1.3022
58692SOL     OW81912   1.421   7.322   4.506  0.1784  0.5870 -0.1267
58692SOL    HW181913   1.389   7.403   4.546 -0.3127  0.5809 -0.4959
58692SOL    HW281914   1.350   7.259   4.518  0.7421  0.0692  0.5677
58693SOL     OW81915   5.554   5.912   6.829  0.2600  0.1454  0.2173
58693SOL    HW181916   5.584   5.932   6.740  1.1975 -0.3648  0.4042
58693SOL    HW281917   5.632   5.881   6.874 -0.0707  0.9685  1.4071
58694SOL     OW81918   9.218   7.355   8.058 -0.0277 -0.8402 -0.1133
58694SOL    HW181919   9.134   7.367   8.013 -0.5484 -0.7059  0.8749
58694SOL    HW281920   9.280   7.337   7.987 -0.4209  1.3220 -1.0956
58695SOL     OW81921   7.333   5.803   6.890 -0.0141  0.2318  0.0986
58695SOL    HW181922   7.258   5.857   6.865 -0.4780  0.5781  2.0956
58695SOL    HW281923   7.331   5.801   6.986  1.9652 -0.5620  0.1744
58696SOL     OW81924   3.680   0.572   5.770 -0.0103  0.5905  0.1396
58696SOL    HW181925   3.646   0.588   5.682  0.4739  0.3544 -0.0977
58696SOL    HW281926   3.724   0.654   5.794  0.9832  0.2281 -0.3767
58697SOL     OW81927   9.971   9.731   0.150 -0.2604  0.1139 -0.4681
58697SOL    HW181928   9.925   9.767   0.227  3.9811  0.5994  2.1594
58697SOL    HW281929   9.939   9.641   0.145 -1.4036  0.3523  1.2483
58698SOL     OW81930   0.168   9.077   4.396  0.3004 -0.1371  0.5710
58698SOL    HW181931   0.258   9.059   4.422  0.0667 -0.5723  1.0782
58698SOL    HW281932   0.143   9.155   4.445  0.5653  0.2938  0.0408
58699SOL     OW81933   1.019   0.631   3.835 -0.4623 -0.0337 -0.2487
58699SOL    HW181934   1.085   0.699   3.845  1.0350 -1.2718 -1.2436
58699SOL    HW281935   1.001   0.602   3.925  1.3804 -0.5779  0.0006
58700SOL     OW81936   4.956   0.744   6.614  0.3201 -0.7630  0.3619
58700SOL    HW181937   5.019   0.693   6.564  0.4232 -0.8359  0.5615
58700SOL    HW281938   4.882   0.685   6.626  0.6811 -1.0888  1.1066
58701SOL     OW81939   9.663   9.082   5.407 -0.1838  0.1713  0.2259
58701SOL    HW181940   9.601   9.149   5.379 -0.2183  0.1249  0.1916
58701SOL    HW281941   9.610   9.004   5.425 -0.0066 -0.2794 -1.0881
58702SOL     OW81942   2.979   7.846  10.934  0.5202  0.5491  0.3575
58702SOL    HW181943   2.915   7.888  10.876  1.3299 -0.8687 -1.6940
58702SOL    HW281944   3.063   7.882  10.908  0.8270  0.4643  1.2064
58703SOL     OW81945   2.885   4.810   7.539  0.0217  0.8352  0.0847
58703SOL    HW181946   2.947   4.750   7.580 -1.0248  0.4954  1.2435
58703SOL    HW281947   2.931   4.894   7.536  1.1304  0.2172 -0.6088
58704SOL     OW81948   9.639   4.208   2.748  0.2811  0.2727 -0.2370
58704SOL    HW181949   9.575   4.262   2.794  0.9361  0.6674  0.2151
58704SOL    HW281950   9.615   4.118   2.772  0.3366  0.4532  0.5205
58705SOL     OW81951   3.515   3.132  12.088 -0.6390 -0.2899  0.7046
58705SOL    HW181952   3.526   3.137  11.993 -0.0346 -2.8359  0.5873
58705SOL    HW281953   3.465   3.211  12.110  2.0735  2.1607 -1.2194
58706SOL     OW81954   8.507  10.853   6.430 -0.6632 -0.4968  0.2687
58706SOL    HW181955   8.533  10.926   6.487 -1.4573  1.1309 -1.3822
58706SOL    HW281956   8.414  10.866   6.414 -0.4808 -0.9519 -1.3354
58707SOL     OW81957   3.105   7.740   5.354 -0.4856  0.5464  0.1050
58707SOL    HW181958   3.081   7.682   5.282 -1.2596  1.6657 -0.5673
58707SOL    HW281959   3.053   7.708   5.428  0.6877 -0.9249  0.3441
58708SOL     OW81960   0.111   1.833   8.003 -0.4989 -0.0878  0.1888
58708SOL    HW181961   0.116   1.775   7.928  1.3856  0.3202 -0.0328
58708SOL    HW281962   0.070   1.781   8.072  1.4862 -1.8468  0.1194
58709SOL     OW81963   9.607  10.562  10.052 -0.0575  0.1689 -0.1423
58709SOL    HW181964   9.550  10.549  10.128  0.7125  1.2610  0.6557
58709SOL    HW281965   9.598  10.655  10.031  2.4062  0.7332  0.8734
58710SOL     OW81966   1.263   5.919   5.231 -0.0643  0.1748  0.3785
58710SOL    HW181967   1.202   5.883   5.296  1.2395 -1.3433  0.8184
58710SOL    HW281968   1.207   5.949   5.160 -1.4421  0.6099  1.5960
58711SOL     OW81969  10.571   2.802   4.982  0.5625 -0.2429 -0.1219
58711SOL    HW181970  10.636   2.793   5.051  0.8592 -1.7727 -0.5756
58711SOL    HW281971  10.528   2.717   4.978 -0.2252  0.1775 -1.0709
58712SOL     OW81972  12.252   7.407   9.171 -0.2365  1.0777  0.4270
58712SOL    HW181973  12.347   7.416   9.163 -0.3381  0.9111 -1.2001
58712SOL    HW281974  12.219   7.421   9.083 -1.5213 -1.5042  0.4215
58713SOL     OW81975   9.616   0.841   1.595 -0.6197  0.3964  0.4566
58713SOL    HW181976   9.707   0.812   1.604 -0.3079  0.6511 -1.4899
58713SOL    HW281977   9.570   0.793   1.663  0.7705 -0.6875  0.7004
58714SOL     OW81978   3.980   9.816   7.130  0.3097  0.1498  0.6573
58714SOL    HW181979   4.032   9.765   7.068 -0.0353  1.5578 -0.8698
58714SOL    HW281980   3.915   9.860   7.076  0.4807  2.0605  1.9226
58715SOL     OW81981   3.331   8.053   8.598  0.1433  0.1943 -0.3984
58715SOL    HW181982   3.331   7.967   8.556  2.3468  0.0611 -0.2425
58715SOL    HW281983   3.348   8.034   8.690  0.1311  0.7557 -0.2769
58716SOL     OW81984  11.921   9.662   1.327  0.8672  0.0178  0.1175
58716SOL    HW181985  11.991   9.704   1.377  0.3094  0.7874  0.2881
58716SOL    HW281986  11.927   9.569   1.348  0.5328  0.3435  1.7826
58717SOL     OW81987   3.638   3.757   1.087 -0.1587  0.1593  0.0386
58717SOL    HW181988   3.721   3.803   1.096  0.5282 -0.6445 -1.6230
58717SOL    HW281989   3.582   3.818   1.038  0.6124 -0.5212 -1.7927
58718SOL     OW81990   4.937   5.086   1.440  0.0478  0.5701 -0.2015
58718SOL    HW181991   4.853   5.041   1.453 -0.2502  1.5308  1.5453
58718SOL    HW281992   4.912   5.176   1.421  0.6845  0.6655 -0.5805
58719SOL     OW81993  10.371   9.651   3.493 -0.0661  0.1861 -0.0828
58719SOL    HW181994  10.323   9.705   3.431 -1.3785 -1.6844 -0.7943
58719SOL    HW281995  10.310   9.580   3.516  1.6184 -1.1022  0.6444
58720SOL     OW81996   0.123   7.799  11.424  0.0804 -0.7083  0.2330
58720SOL    HW181997   0.044   7.772  11.378  0.6612 -0.8924 -0.6937
58720SOL    HW281998   0.099   7.882  11.465 -0.0545  0.2895 -1.6983
58721SOL     OW81999   1.928   2.257  10.122 -0.1083 -0.1102 -0.8336
58721SOL    HW182000   1.907   2.350  10.130  0.2299 -0.1968  2.7896
58721SOL    HW282001   1.843   2.214  10.110 -0.5314  0.5386 -0.2413
58722SOL     OW82002   0.898   4.266  11.040  0.2157  0.5783 -0.0306
58722SOL    HW182003   0.953   4.286  11.115  2.0160  1.5998 -1.5438
58722SOL    HW282004   0.917   4.174  11.019  0.5025  0.6033  0.1243
58723SOL     OW82005  10.004   6.795   3.481  0.4092 -0.0746 -0.4393
58723SOL    HW182006  10.012   6.752   3.566  1.1114 -0.2927 -0.6082
58723SOL    HW282007  10.032   6.728   3.418 -0.5267 -0.0679 -0.8878
58724SOL     OW82008   5.111   2.200   9.342 -0.8177 -0.0711 -0.6677
58724SOL    HW182009   5.048   2.245   9.285 -3.4670 -0.2396  1.8606
58724SOL    HW282010   5.057   2.159   9.410  1.9697 -1.5746  0.8427
58725SOL     OW82011   2.610   9.502  10.322  0.4740 -0.1713  0.4842
58725SOL    HW182012   2.690   9.449  10.329 -0.8227 -2.1720  1.0991
58725SOL    HW282013   2.593   9.506  10.228  0.6143 -0.8368  0.4264
58726SOL     OW82014   5.262   0.931   6.467  0.5904  0.4595  0.0939
58726SOL    HW182015   5.287   0.839   6.477 -0.9463  0.1228  1.0179
58726SOL    HW282016   5.186   0.942   6.523 -0.4951  1.7978 -1.5383
58727SOL     OW82017   1.873   0.772  12.235 -0.4702 -0.1101  0.9868
58727SOL    HW182018   1.879   0.691  12.286 -0.1719 -0.4667  0.3908
58727SOL    HW282019   1.808   0.824  12.281  0.6110  0.0570  2.4065
58728SOL     OW82020  10.591   3.011   1.544  0.1824 -0.1606 -0.0392
58728SOL    HW182021  10.514   3.049   1.502  0.3712  0.3745  0.0888
58728SOL    HW282022  10.660   3.015   1.478 -0.3849 -2.5502 -0.9044
58729SOL     OW82023   4.977   8.432   1.468 -0.1126  0.0026 -0.1281
58729SOL    HW182024   4.991   8.404   1.559 -0.4675  0.6280  0.1225
58729SOL    HW282025   4.974   8.527   1.472 -1.4772  0.0019 -0.5968
58730SOL     OW82026  11.422   1.389   6.596  0.5928  0.1737  0.0586
58730SOL    HW182027  11.449   1.480   6.608 -1.4053  0.7638  0.4477
58730SOL    HW282028  11.442   1.347   6.680 -1.5821  1.1477  1.1509
58731SOL     OW82029   9.585   8.111  11.545  0.8234 -0.0407  0.0605
58731SOL    HW182030   9.494   8.106  11.574  0.7670 -0.6438 -0.2174
58731SOL    HW282031   9.623   8.027  11.571  0.8615 -0.4667 -1.2874
58732SOL     OW82032   5.939   4.589  11.216 -0.2051  0.0026  0.2001
58732SOL    HW182033   5.997   4.578  11.141  1.4402  0.7435  1.3106
58732SOL    HW282034   5.911   4.681  11.210 -0.5546 -0.1049  0.1726
58733SOL     OW82035   7.992   4.152   3.044  0.4298 -0.1788 -0.0680
58733SOL    HW182036   7.946   4.068   3.052  0.7419 -0.3825 -0.3620
58733SOL    HW282037   8.013   4.176   3.134 -0.1343 -0.1449  0.0613
58734SOL     OW82038   7.115   1.941   8.846 -0.7304 -0.5498 -0.2572
58734SOL    HW182039   7.171   2.014   8.873  0.1539 -2.1697  2.7143
58734SOL    HW282040   7.163   1.900   8.774  0.9011 -0.6233  0.8104
58735SOL     OW82041   3.795   7.152   4.825 -0.5025 -0.1256  0.4819
58735SOL    HW182042   3.736   7.219   4.860 -0.0441  0.6162 -0.1338
58735SOL    HW282043   3.866   7.201   4.785 -0.4282 -0.9722 -0.4645
58736SOL     OW82044   5.754   8.210   3.722 -0.7625 -0.0563 -0.1518
58736SOL    HW182045   5.831   8.226   3.777 -0.0792 -1.1016 -0.7702
58736SOL    HW282046   5.687   8.179   3.783 -0.4838  0.2061  0.2923
58737SOL     OW82047  12.276   6.697   4.832  0.2431  0.2804  0.1764
58737SOL    HW182048  12.314   6.742   4.907  0.9253 -0.9620  0.6024
58737SOL    HW282049  12.325   6.728   4.757  0.7118  0.2460  0.4679
58738SOL     OW82050  11.725   3.620   1.304 -0.3854 -0.1229  0.4664
58738SOL    HW182051  11.806   3.635   1.256 -0.1722 -0.5404  0.6946
58738SOL    HW282052  11.697   3.533   1.276 -1.4295  0.5164 -0.5869
58739SOL     OW82053   2.510   1.432   4.767 -0.0287 -0.0618 -0.4540
58739SOL    HW182054   2.457   1.509   4.749 -0.5837 -0.7273 -1.7992
58739SOL    HW282055   2.499   1.417   4.861 -1.6110  0.2625 -0.5641
58740SOL     OW82056   9.234  12.170  11.107  0.0500 -0.2249  0.7517
58740SOL    HW182057   9.208  12.085  11.071  1.0623 -0.1368 -0.2799
58740SOL    HW282058   9.235  12.157  11.201  2.8755 -2.2548  0.5855
58741SOL     OW82059   9.777  11.738   1.352 -0.3256 -0.1128  0.6331
58741SOL    HW182060   9.854  11.793   1.370  0.4565 -1.0377  0.2312
58741SOL    HW282061   9.724  11.789   1.291 -0.3640  0.8139  1.4130
58742SOL     OW82062   7.497   9.774   8.717  0.1878 -0.8636 -0.4209
58742SOL    HW182063   7.420   9.753   8.770 -0.2005  0.1688 -0.5567
58742SOL    HW282064   7.553   9.824   8.776  0.9837 -1.9891 -0.1844
58743SOL     OW82065   6.620   1.098   1.590 -0.1772 -0.1419 -0.3562
58743SOL    HW182066   6.590   1.120   1.502 -0.3268 -1.2009 -0.5824
58743SOL    HW282067   6.561   1.146   1.648  0.4257  1.2113 -0.8186
58744SOL     OW82068   4.243   7.842   3.422 -0.1668 -0.2253  0.7057
58744SOL    HW182069   4.332   7.877   3.426  0.1680 -0.3300 -2.6355
58744SOL    HW282070   4.195   7.903   3.366 -1.4413 -1.5136  0.3154
58745SOL     OW82071  10.916  10.043   5.111  0.0118  0.4111  0.4871
58745SOL    HW182072  10.897   9.977   5.178  1.5769  0.6079  1.1472
58745SOL    HW282073  11.005  10.024   5.083 -0.0249  1.3847 -0.3369
58746SOL     OW82074  11.598   4.070  11.555 -0.2939  0.1373  0.1180
58746SOL    HW182075  11.587   4.020  11.635 -0.0470 -0.3455 -0.1444
58746SOL    HW282076  11.524   4.044  11.500  1.2511 -2.0547 -1.0947
58747SOL     OW82077  10.792   0.037   1.707 -0.1438  0.3151  0.2304
58747SOL    HW182078  10.762   0.127   1.701 -0.5679  0.1671  0.0722
58747SOL    HW282079  10.770  -0.001   1.622  0.1770  0.1090  0.2402
58748SOL     OW82080   6.231   0.675   2.989  0.0770  0.1653 -0.5097
58748SOL    HW182081   6.283   0.612   3.040 -3.5567 -2.1335  0.7315
58748SOL    HW282082   6.208   0.744   3.051 -1.0638 -0.5698 -0.0941
58749SOL     OW82083  11.640  10.029   0.553  0.4165  0.7275  0.2052
58749SOL    HW182084  11.606  10.116   0.532 -0.4320  0.5712  0.8844
58749SOL    HW282085  11.574   9.990   0.610  0.9279 -0.2548  0.1553
58750SOL     OW82086   5.048   1.036   2.845 -0.4759 -0.0852 -0.2930
58750SOL    HW182087   5.048   1.101   2.915 -2.1239  1.2307 -1.4414
58750SOL    HW282088   5.113   1.067   2.783 -0.7689  0.0993 -0.5106
58751SOL     OW82089  10.301   0.120   6.544  0.3582  0.5763 -0.3572
58751SOL    HW182090  10.350   0.175   6.483 -1.1189  0.5916 -1.5890
58751SOL    HW282091  10.359   0.046   6.561  0.4340  0.0353 -2.6605
58752SOL     OW82092   6.416   5.731   4.886 -0.7920 -0.4292 -0.5253
58752SOL    HW182093   6.471   5.739   4.808 -0.9241 -0.7246 -0.6488
58752SOL    HW282094   6.454   5.793   4.948 -1.9552  1.4429 -1.5731
58753SOL     OW82095   5.070   7.374   6.065 -0.1309  0.3731 -0.3166
58753SOL    HW182096   5.029   7.350   6.148 -0.2367 -0.7305 -0.6687
58753SOL    HW282097   5.011   7.440   6.027  0.1185  1.1665  0.6436
58754SOL     OW82098   4.118   5.609   1.801 -0.5037  0.6898 -0.2685
58754SOL    HW182099   4.083   5.698   1.808  2.2603  1.9459 -1.1709
58754SOL    HW282100   4.130   5.596   1.707 -0.3648 -0.4314 -0.1020
58755SOL     OW82101   7.132   8.761   3.873 -0.1438 -0.2120 -0.3009
58755SOL    HW182102   7.131   8.667   3.892 -0.6786  0.0091  0.8705
58755SOL    HW282103   7.132   8.766   3.777  2.0945 -1.3999 -0.4367
58756SOL     OW82104   3.983  11.931   1.891 -0.4989  0.6946  0.0454
58756SOL    HW182105   3.959  11.902   1.803 -0.3837 -1.8891  0.7815
58756SOL    HW282106   3.959  12.024   1.893 -1.3750  0.5981 -2.3733
58757SOL     OW82107   2.767   8.350  12.148 -0.3189 -0.1642  0.0183
58757SOL    HW182108   2.827   8.275  12.152 -0.0309  0.0894  0.6057
58757SOL    HW282109   2.805   8.406  12.080 -0.5160 -0.5292 -0.3991
58758SOL     OW82110   7.198  11.156   3.754 -0.2571 -0.3949  0.4831
58758SOL    HW182111   7.293  11.161   3.741 -0.1603  0.1525  1.3610
58758SOL    HW282112   7.163  11.143   3.666  0.7394 -2.2871  0.3024
58759SOL     OW82113   3.937  10.063   7.742 -0.0100  0.6979 -0.1227
58759SOL    HW182114   3.979   9.987   7.782 -0.3205  0.3845 -0.3817
58759SOL    HW282115   3.988  10.079   7.663  0.0334  0.7351 -0.0873
58760SOL     OW82116   6.937   8.173   4.685 -0.1384 -0.4089 -0.0663
58760SOL    HW182117   6.924   8.267   4.680  1.2655 -0.1039  1.2633
58760SOL    HW282118   6.952   8.155   4.778  0.8837 -1.7451 -0.4444
58761SOL     OW82119   6.079   6.639   1.935 -0.4807  0.0521 -0.0120
58761SOL    HW182120   6.118   6.719   1.973  0.8172 -1.2813  1.6542
58761SOL    HW282121   6.139   6.615   1.865 -1.7447  1.3613 -1.6171
58762SOL     OW82122   5.456   3.226   9.516  0.5671  0.1098  0.5898
58762SOL    HW182123   5.551   3.232   9.529  0.4912  0.2635  1.0718
58762SOL    HW282124   5.419   3.221   9.604  0.0220  1.7139  0.5025
58763SOL     OW82125   0.194   0.171   1.662  0.4039 -0.2452  0.2416
58763SOL    HW182126   0.127   0.216   1.610  0.3879 -0.2376  0.2682
58763SOL    HW282127   0.182   0.078   1.642  3.3457 -0.0740 -3.3570
58764SOL     OW82128   5.132   5.173   5.878 -0.2628  0.3062  0.1398
58764SOL    HW182129   5.041   5.191   5.899 -0.8359  0.2529 -2.0872
58764SOL    HW282130   5.132   5.084   5.844  0.0986  1.2424 -2.4919
58765SOL     OW82131   9.077  12.207   1.648  0.5253  0.6015 -0.3053
58765SOL    HW182132   9.047  12.260   1.722 -1.5772 -3.4387  2.0825
58765SOL    HW282133   9.164  12.177   1.674  0.1435 -0.1149  0.1817
58766SOL     OW82134  11.322   3.714   2.801  0.1241  0.4698 -0.3040
58766SOL    HW182135  11.309   3.745   2.891 -1.9481 -0.7202 -0.1369
58766SOL    HW282136  11.383   3.641   2.810  0.0603  0.4627  0.1192
58767SOL     OW82137   5.566  11.416   3.615 -0.4956 -0.0797 -0.0236
58767SOL    HW182138   5.576  11.399   3.708  2.6933  0.6079 -0.1421
58767SOL    HW282139   5.527  11.336   3.580  0.3983 -1.2676  1.5569
58768SOL     OW82140   2.345  10.001   5.798  0.3760 -0.6445  0.1115
58768SOL    HW182141   2.351   9.906   5.814  1.3842 -0.7125 -0.5213
58768SOL    HW282142   2.334  10.039   5.885 -0.4517 -1.3648  0.3378
58769SOL     OW82143   4.412   6.520   2.726 -0.2139 -0.1067  0.0163
58769SOL    HW182144   4.395   6.611   2.701  2.2004  0.2547 -0.5413
58769SOL    HW282145   4.384   6.514   2.817 -0.2955  1.2428  0.1034
58770SOL     OW82146  12.206   7.476   5.000  0.2871 -0.2228 -0.6932
58770SOL    HW182147  12.294   7.511   4.986 -0.6676  2.2488 -1.0871
58770SOL    HW282148  12.164   7.481   4.914 -0.5913 -0.3320 -0.2852
58771SOL     OW82149   1.300   7.427   1.079 -0.4988  0.1269  0.4770
58771SOL    HW182150   1.303   7.511   1.125  0.8687  0.4114 -0.0829
58771SOL    HW282151   1.330   7.447   0.990 -3.0180 -0.4207 -0.5914
58772SOL     OW82152   5.254   9.489   7.126 -0.4176  0.2447 -0.2473
58772SOL    HW182153   5.216   9.575   7.143  1.1730  0.5580  2.4032
58772SOL    HW282154   5.200   9.428   7.177  0.8752  0.3209  1.2953
58773SOL     OW82155   1.002   0.882   1.793 -0.0193  0.4092 -0.4142
58773SOL    HW182156   1.081   0.907   1.841 -2.1994  1.7558  2.8694
58773SOL    HW282157   0.992   0.951   1.726  1.8762 -0.1954 -1.3859
58774SOL     OW82158  10.330   8.101  11.810 -0.3000 -0.1203 -0.5827
58774SOL    HW182159  10.343   8.139  11.897 -1.8771  0.1195 -0.4370
58774SOL    HW282160  10.332   8.006  11.825  0.5726 -0.1031 -0.4867
58775SOL     OW82161   5.981   0.289  12.240 -0.0798 -0.0578 -0.2956
58775SOL    HW182162   5.889   0.305  12.219 -0.3365 -1.1530 -0.0967
58775SOL    HW282163   5.980   0.268  12.334  0.4109  0.1999 -0.2325
58776SOL     OW82164   0.025   2.542   6.641  0.5559 -0.1430  0.5518
58776SOL    HW182165  -0.010   2.605   6.704 -2.0071  0.7106 -1.5361
58776SOL    HW282166   0.082   2.593   6.584  0.1974 -0.1686  0.1669
58777SOL     OW82167   4.898   4.816   4.658  0.4294  0.4801 -0.7670
58777SOL    HW182168   4.964   4.850   4.719 -1.1780  1.0159  0.7734
58777SOL    HW282169   4.864   4.894   4.614 -0.7573  0.5138  0.1523
58778SOL     OW82170   4.748  10.403  11.752  0.2327  0.1122  0.1459
58778SOL    HW182171   4.765  10.396  11.846 -0.7571 -0.1995  0.3068
58778SOL    HW282172   4.746  10.313  11.721  0.0595  0.1933 -0.0834
58779SOL     OW82173  11.638   7.407   2.454  0.2192  0.1695 -0.2524
58779SOL    HW182174  11.657   7.492   2.415  1.8631  0.0037  0.1472
58779SOL    HW282175  11.593   7.428   2.536  0.1264  0.6278 -0.4182
58780SOL     OW82176   7.913   7.805   7.916 -0.1249  0.5056 -0.0154
58780SOL    HW182177   7.881   7.886   7.877  1.5523  0.4089 -1.7295
58780SOL    HW282178   7.991   7.831   7.965 -0.3215  0.1226  0.5076
58781SOL     OW82179  10.122   6.302   3.986  0.0166 -0.6286  0.0065
58781SOL    HW182180  10.068   6.380   3.969 -0.6541 -1.0726  0.0420
58781SOL    HW282181  10.183   6.329   4.054  0.4765  0.1680 -0.6971
58782SOL     OW82182  11.717   8.077   8.472 -0.1160  0.5720 -0.1456
58782SOL    HW182183  11.782   8.021   8.515 -2.1517 -1.7174  0.1207
58782SOL    HW282184  11.683   8.132   8.543 -0.7615 -0.5411  0.4420
58783SOL     OW82185   3.262   7.564   3.618 -0.0971  0.5966  0.4555
58783SOL    HW182186   3.258   7.650   3.575 -0.5969  0.2471 -0.2036
58783SOL    HW282187   3.182   7.559   3.670 -0.3944  0.2594 -0.0297
58784SOL     OW82188   6.262   9.053   5.001  0.1095  1.4466  0.2041
58784SOL    HW182189   6.170   9.028   4.998  0.3453  0.4477  0.7182
58784SOL    HW282190   6.271   9.103   5.083 -0.2202  2.6461 -0.4748
58785SOL     OW82191   7.757   0.507  10.548 -0.0261 -0.3117 -0.0174
58785SOL    HW182192   7.776   0.492  10.640  2.1693 -0.6224 -0.4723
58785SOL    HW282193   7.745   0.602  10.542 -1.7884 -0.4350  0.8038
58786SOL     OW82194   8.586   7.389   3.093  0.3682  0.5303 -0.0621
58786SOL    HW182195   8.576   7.328   3.020  0.8206  1.0670 -0.5861
58786SOL    HW282196   8.507   7.378   3.146  0.1135  0.0203 -0.5479
58787SOL     OW82197   3.416   8.004   9.232  0.2871  0.2085 -0.1084
58787SOL    HW182198   3.441   8.037   9.318 -0.0761 -0.9619  0.4665
58787SOL    HW282199   3.466   8.058   9.170  0.8001  0.8475  0.8390
58788SOL     OW82200  11.269   0.564  11.057  0.2405 -0.1575 -0.4197
58788SOL    HW182201  11.239   0.489  11.110 -0.4210  0.4458  0.0927
58788SOL    HW282202  11.203   0.572  10.989  0.1474  0.1385 -0.2960
58789SOL     OW82203   7.979   7.264   3.470  0.4092  0.3218 -0.3750
58789SOL    HW182204   8.057   7.314   3.494  0.3521  0.7140 -0.9962
58789SOL    HW282205   8.013   7.182   3.434  0.5017 -1.0259  2.4809
58790SOL     OW82206   6.996   8.830  11.015  0.0923  0.8481 -0.2192
58790SOL    HW182207   6.964   8.743  11.040 -1.2561  1.1024 -0.9616
58790SOL    HW282208   7.055   8.814  10.942 -2.0504  0.6914 -2.0032
58791SOL     OW82209   1.827  11.634   4.615 -0.5204  0.3450 -0.5924
58791SOL    HW182210   1.821  11.539   4.613  0.3721  0.2766 -0.4307
58791SOL    HW282211   1.796  11.659   4.702 -0.3237  0.1721 -0.4737
58792SOL     OW82212   4.933   2.770   5.013 -0.3102  0.0694 -0.3342
58792SOL    HW182213   4.944   2.675   5.022  0.7094  0.1503 -0.6237
58792SOL    HW282214   4.846   2.781   4.975 -1.3127 -0.6478  1.6330
58793SOL     OW82215   4.903   7.241   2.678  0.0524 -0.7075  0.4669
58793SOL    HW182216   4.925   7.148   2.677  0.6719 -0.6815  3.2910
58793SOL    HW282217   4.859   7.254   2.762 -2.5936  1.0664 -1.0325
58794SOL     OW82218   7.083  12.028   0.945  0.1178  0.2787  0.3731
58794SOL    HW182219   7.125  11.947   0.916  1.8119  1.4023 -0.5159
58794SOL    HW282220   7.149  12.070   1.001 -1.1222  0.6061  1.6574
58795SOL     OW82221  11.007   1.545  10.875  0.3953 -0.1942 -0.0844
58795SOL    HW182222  10.923   1.587  10.861  0.4586  0.0349  0.2117
58795SOL    HW282223  11.030   1.507  10.790  0.4451  0.5623 -0.4095
58796SOL     OW82224   6.784   3.636   6.181 -0.3316 -0.3489 -0.1841
58796SOL    HW182225   6.854   3.701   6.191  1.4311 -1.6986 -2.6535
58796SOL    HW282226   6.819   3.557   6.222 -1.0051 -0.6512 -0.1841
58797SOL     OW82227   2.127   2.906   5.334  1.0771  0.1819  0.9392
58797SOL    HW182228   2.061   2.953   5.384  1.8976 -0.4708  2.7200
58797SOL    HW282229   2.098   2.913   5.243 -0.1866  1.8642  1.4271
58798SOL     OW82230   2.811   8.058  10.816 -0.3829  0.2227 -0.2580
58798SOL    HW182231   2.899   8.095  10.818 -0.7336  1.0209  0.7755
58798SOL    HW282232   2.755   8.125  10.855 -1.9056  0.8714 -3.2483
58799SOL     OW82233   2.276   6.095   4.381  0.5427  0.7316 -0.2520
58799SOL    HW182234   2.191   6.138   4.389 -0.3331 -1.0718  0.8483
58799SOL    HW282235   2.279   6.064   4.291  0.5256  1.7007 -0.6019
58800SOL     OW82236   5.985  11.604  11.451 -0.2677  0.3450 -0.6431
58800SOL    HW182237   5.973  11.659  11.529 -1.0176 -0.7507  0.0419
58800SOL    HW282238   5.896  11.578  11.427  0.1210 -1.5282 -0.2171
58801SOL     OW82239   6.158   8.759   5.388 -0.0364  0.2044 -0.3510
58801SOL    HW182240   6.252   8.770   5.404  0.2557 -2.0080 -0.1877
58801SOL    HW282241   6.143   8.802   5.304  1.4297 -0.4845 -1.0231
58802SOL     OW82242  11.872   9.054   6.447 -0.0692  0.7023  0.0567
58802SOL    HW182243  11.912   9.132   6.408  2.7951  0.0852  1.4784
58802SOL    HW282244  11.946   8.999   6.472 -1.9444 -1.7142  0.7034
58803SOL     OW82245   7.157   5.197   3.082 -0.1616 -0.2044  0.3493
58803SOL    HW182246   7.224   5.251   3.124 -0.5902 -0.5686  1.5451
58803SOL    HW282247   7.202   5.115   3.060 -0.0704 -0.2305  0.6261
58804SOL     OW82248   7.770   6.443   1.698  0.0749  0.2321 -0.2462
58804SOL    HW182249   7.716   6.509   1.654 -0.7414 -0.7146 -0.6948
58804SOL    HW282250   7.825   6.407   1.629  0.1149  0.0510 -0.1191
58805SOL     OW82251   7.503  10.556   0.593 -0.0279 -0.0351 -0.4697
58805SOL    HW182252   7.432  10.494   0.582 -0.3492 -0.6590  3.5041
58805SOL    HW282253   7.571  10.527   0.532 -1.4502 -2.2027 -1.1083
58806SOL     OW82254   3.465   0.964   8.879 -0.4358  0.3678 -0.5557
58806SOL    HW182255   3.526   0.980   8.950  1.1311 -0.4136 -1.6574
58806SOL    HW282256   3.392   0.916   8.920  1.0536 -1.2734  0.3235
58807SOL     OW82257   5.280   7.730   7.960 -0.4138  0.0636  0.2435
58807SOL    HW182258   5.231   7.677   7.898 -0.7888 -1.8725  2.1018
58807SOL    HW282259   5.223   7.804   7.979 -0.0827  0.9816 -2.0254
58808SOL     OW82260   3.212   9.726   0.002 -0.5118  0.0258 -0.0929
58808SOL    HW182261   3.204   9.808  -0.046 -0.8647 -0.5983 -1.1385
58808SOL    HW282262   3.122   9.701   0.022 -0.6828 -1.6204 -2.4851
58809SOL     OW82263  11.159   0.291   0.588  0.3927  0.2652  0.1309
58809SOL    HW182264  11.123   0.252   0.668 -0.5736 -0.9823 -0.8632
58809SOL    HW282265  11.252   0.268   0.590 -0.0846 -1.9663 -0.2915
58810SOL     OW82266   0.796   1.612   3.432  0.1605  0.2065  0.1572
58810SOL    HW182267   0.817   1.520   3.447  0.9124 -0.0890 -2.2785
58810SOL    HW282268   0.874   1.659   3.463 -0.3487  0.0987  1.6937
58811SOL     OW82269  11.680  10.016   4.720  0.3280 -0.2078  0.7731
58811SOL    HW182270  11.768  10.023   4.756  1.6267 -2.2590 -1.6174
58811SOL    HW282271  11.678  10.081   4.650 -0.1089 -0.0831  0.8993
58812SOL     OW82272   2.583   3.613   6.749 -0.2090 -0.5640  0.6726
58812SOL    HW182273   2.544   3.583   6.831  0.4670 -2.7140  0.2545
58812SOL    HW282274   2.676   3.594   6.757  0.2171  1.0813  0.1714
58813SOL     OW82275   1.924   9.935  10.890  0.8138 -0.0121 -0.5186
58813SOL    HW182276   1.908   9.969  10.802  0.6573 -0.4165 -0.6482
58813SOL    HW282277   1.840   9.895  10.916 -0.1047  2.6218  0.9852
58814SOL     OW82278   2.862   2.569   0.071 -0.1092  0.5154 -0.3595
58814SOL    HW182279   2.779   2.596   0.030 -0.7247 -1.0495 -0.2077
58814SOL    HW282280   2.837   2.538   0.158  0.7682  0.8688  0.0296
58815SOL     OW82281   2.999   0.829   2.306 -0.5906  0.2341 -0.3361
58815SOL    HW182282   2.977   0.862   2.218 -0.6178  0.7853 -0.1276
58815SOL    HW282283   3.095   0.831   2.308 -0.6075  1.6223  0.1537
58816SOL     OW82284   1.377   7.543   5.340 -0.2364 -0.5712 -0.1622
58816SOL    HW182285   1.370   7.637   5.358  0.6699 -0.2977 -1.1566
58816SOL    HW282286   1.326   7.530   5.260  0.2949 -0.7880 -0.4646
58817SOL     OW82287   4.721   4.703  10.937 -0.5891  0.2990  0.1887
58817SOL    HW182288   4.732   4.615  10.901 -1.6510  0.4977 -0.7124
58817SOL    HW282289   4.732   4.693  11.031 -0.4636 -0.7566  0.0724
58818SOL     OW82290   3.861  11.661  10.756  0.5139  0.3501 -0.6585
58818SOL    HW182291   3.823  11.575  10.773 -0.1332  1.0279  1.6628
58818SOL    HW282292   3.951  11.654  10.787  0.7067  0.2892 -1.2202
58819SOL     OW82293   7.165   8.011  11.703  0.0762 -0.2596 -0.4809
58819SOL    HW182294   7.125   8.053  11.627 -0.4914 -0.0722 -0.0896
58819SOL    HW282295   7.233   7.955  11.667 -0.1448 -0.1269 -1.1212
58820SOL     OW82296  10.606   0.433   2.156 -0.3137  0.0548 -0.1589
58820SOL    HW182297  10.537   0.453   2.093 -0.3083 -0.3941 -0.3081
58820SOL    HW282298  10.640   0.348   2.129 -0.1614 -0.0407  0.3223
58821SOL     OW82299   6.179   1.600   6.193  0.1689  0.1255  0.2629
58821SOL    HW182300   6.250   1.558   6.143 -2.6780 -0.3263 -4.0170
58821SOL    HW282301   6.138   1.528   6.240 -1.3610 -1.1373 -2.6991
58822SOL     OW82302   5.188   8.428   0.116 -0.1602 -0.1761  0.2656
58822SOL    HW182303   5.183   8.523   0.108  1.5863 -0.1549 -1.0428
58822SOL    HW282304   5.278   8.406   0.094 -0.2641 -2.0773  1.4829
58823SOL     OW82305  10.152  10.904   9.171 -0.0125  0.0638 -0.0982
58823SOL    HW182306  10.226  10.856   9.132  0.2180 -0.4836  0.9781
58823SOL    HW282307  10.083  10.838   9.180 -0.3106  0.3556 -0.2248
58824SOL     OW82308   1.827   3.188  11.962  0.0208  0.2178  0.1625
58824SOL    HW182309   1.734   3.201  11.979 -0.2097  1.8070 -1.9118
58824SOL    HW282310   1.831   3.109  11.908 -0.2324  0.6446 -0.4880
58825SOL     OW82311   4.430   4.414  12.074 -0.1670  0.0798 -0.0595
58825SOL    HW182312   4.476   4.497  12.063 -1.2236  0.4356 -2.3932
58825SOL    HW282313   4.419   4.380  11.985  0.6603 -2.8532  0.8354
58826SOL     OW82314   9.636   4.784   6.416  0.1917 -0.4745  0.0411
58826SOL    HW182315   9.608   4.764   6.327 -1.7095 -0.6556  0.6323
58826SOL    HW282316   9.696   4.713   6.439 -2.7549 -3.0940  0.4044
58827SOL     OW82317   3.874   2.159   3.239  0.1670  0.2324 -0.8568
58827SOL    HW182318   3.897   2.218   3.311  0.3681  0.6635 -1.2642
58827SOL    HW282319   3.790   2.121   3.264 -0.3052  1.2083 -0.8819
58828SOL     OW82320   0.092   6.171   9.274 -0.3514 -0.1443  0.4234
58828SOL    HW182321   0.185   6.162   9.294 -0.4827 -0.1898  1.0254
58828SOL    HW282322   0.089   6.184   9.179  0.3062  0.4935  0.4872
58829SOL     OW82323  10.656   6.356   4.939 -0.3170  0.3096  0.2432
58829SOL    HW182324  10.704   6.429   4.979 -0.0482 -0.5220  1.4613
58829SOL    HW282325  10.623   6.305   5.013 -0.5341 -0.7995 -0.5939
58830SOL     OW82326   6.866   6.250   5.816  0.1146  0.2892  0.3974
58830SOL    HW182327   6.792   6.283   5.766 -0.4592 -0.3150  0.8310
58830SOL    HW282328   6.943   6.280   5.768 -0.4025  1.3117  0.1957
58831SOL     OW82329   7.247  10.438   1.205 -0.1478  0.2587  0.9403
58831SOL    HW182330   7.201  10.402   1.129 -1.0029  1.4857  0.8483
58831SOL    HW282331   7.224  10.379   1.277 -3.4825  1.8074  1.3317
58832SOL     OW82332   3.339   3.153   3.433 -0.2776  0.4183  0.0349
58832SOL    HW182333   3.311   3.194   3.352 -1.1423  0.0275  0.1271
58832SOL    HW282334   3.258   3.131   3.478  0.1886  0.0758  0.7288
58833SOL     OW82335   2.892  10.539  12.202 -0.4738  0.2304  0.2367
58833SOL    HW182336   2.941  10.517  12.280 -0.7930  0.0997  0.4011
58833SOL    HW282337   2.876  10.455  12.159  3.7331  0.5314 -2.4723
58834SOL     OW82338   3.240   4.328   8.106 -0.3498 -0.0931  0.5627
58834SOL    HW182339   3.229   4.423   8.098 -1.9934 -0.2636  0.3287
58834SOL    HW282340   3.224   4.309   8.198 -1.7915 -0.3013  0.2966
58835SOL     OW82341   1.849   2.026   7.421 -0.1833 -0.3753 -0.3027
58835SOL    HW182342   1.920   1.985   7.370  1.8495  1.3248  0.9820
58835SOL    HW282343   1.777   2.034   7.360  1.4628 -0.2650 -2.3408
58836SOL     OW82344   2.101   4.922   6.147  0.5162 -0.0121 -0.0485
58836SOL    HW182345   2.075   4.985   6.080 -0.1311 -1.1990 -0.9476
58836SOL    HW282346   2.120   4.976   6.224 -1.5400  1.1646 -0.2923
58837SOL     OW82347   2.736   2.099   8.285 -0.0999  0.1684  0.1184
58837SOL    HW182348   2.742   2.008   8.315  1.3441  0.4694  0.7854
58837SOL    HW282349   2.676   2.140   8.347  0.2936 -0.0015  0.6094
58838SOL     OW82350   5.115   8.512  10.967  0.3532 -0.2702  0.3379
58838SOL    HW182351   5.183   8.515  10.900 -0.3955 -0.7450 -0.4778
58838SOL    HW282352   5.106   8.419  10.988 -0.6360 -0.3156 -0.2154
58839SOL     OW82353  10.450   7.916   4.513 -0.0689  0.0064  0.2296
58839SOL    HW182354  10.449   7.854   4.586 -0.9894 -0.0364  0.1974
58839SOL    HW282355  10.443   7.861   4.435 -0.4235  0.1216  0.1783
58840SOL     OW82356   1.797   2.211   0.163 -0.0721 -0.1010  0.3046
58840SOL    HW182357   1.764   2.130   0.126 -1.1666  1.0516 -1.3330
58840SOL    HW282358   1.839   2.256   0.090  1.3133  0.4434  1.3851
58841SOL     OW82359   2.715   3.313   1.781 -0.0189 -0.2110  0.3489
58841SOL    HW182360   2.687   3.222   1.784  1.2868 -0.6084  1.7002
58841SOL    HW282361   2.804   3.312   1.818  0.7059  1.3627 -1.2271
58842SOL     OW82362  10.836   9.740   5.897  0.2598  0.4293  0.0590
58842SOL    HW182363  10.748   9.760   5.927  0.4507  0.2876  0.7429
58842SOL    HW282364  10.893   9.797   5.949  0.6369 -0.2046  0.3492
58843SOL     OW82365   4.157  10.394  11.652 -0.3973  0.1338 -0.4172
58843SOL    HW182366   4.098  10.433  11.588  0.0153  0.8979 -0.3406
58843SOL    HW282367   4.104  10.388  11.732 -1.0613 -1.2665 -0.9393
58844SOL     OW82368   7.925  11.992   4.925  1.1627  0.1616  0.0745
58844SOL    HW182369   7.969  12.019   5.006  0.1208  0.3033  0.6111
58844SOL    HW282370   7.855  11.934   4.955  0.7756  0.2096 -0.7380
58845SOL     OW82371   3.978   6.333   4.363  0.5516 -0.0742  0.3561
58845SOL    HW182372   4.041   6.368   4.300  0.9046 -1.6086 -0.1947
58845SOL    HW282373   3.892   6.345   4.322  0.3756  2.5209  1.3434
58846SOL     OW82374   3.692   1.388   3.547 -0.2754 -0.1980 -0.6175
58846SOL    HW182375   3.600   1.376   3.525 -0.6221 -1.7614  1.4435
58846SOL    HW282376   3.737   1.318   3.500 -0.2815 -0.1307 -0.7238
58847SOL     OW82377   2.046   2.358   3.899  0.3090 -0.3338 -0.1882
58847SOL    HW182378   2.109   2.387   3.833 -0.0370 -2.2618 -1.4734
58847SOL    HW282379   2.099   2.336   3.975  0.7427  1.7363  0.1568
58848SOL     OW82380  11.915  12.130   9.876  0.4829 -0.1158  0.0068
58848SOL    HW182381  11.989  12.152   9.819  1.2827  0.0368  1.0733
58848SOL    HW282382  11.864  12.211   9.881  1.0535  0.2172  0.4556
58849SOL     OW82383   5.094   8.786   1.881  0.5941 -0.3604 -0.2363
58849SOL    HW182384   5.124   8.722   1.946 -0.1891 -0.0446  0.4480
58849SOL    HW282385   5.174   8.830   1.853  0.8847 -0.1074  0.9423
58850SOL     OW82386   4.861  11.673   4.650 -0.8305 -0.2014  0.0904
58850SOL    HW182387   4.903  11.601   4.697 -0.1426 -0.4207 -0.8134
58850SOL    HW282388   4.932  11.736   4.635 -1.3751  0.5538  0.6617
58851SOL     OW82389  12.038   6.229   4.715 -0.4166 -0.2744 -0.8556
58851SOL    HW182390  12.122   6.184   4.720 -0.5113 -0.5470 -1.7333
58851SOL    HW282391  12.011   6.221   4.624 -0.7407  0.9983 -0.8919
58852SOL     OW82392   9.839   8.183   5.881 -0.2046 -0.0224 -0.2280
58852SOL    HW182393   9.875   8.243   5.946 -1.7178  0.0937  0.5559
58852SOL    HW282394   9.769   8.137   5.927  0.0101 -1.4036 -1.2170
58853SOL     OW82395  10.635   2.856   5.546 -0.2383 -0.1877  0.2566
58853SOL    HW182396  10.590   2.941   5.550  0.7078  0.3384  0.1814
58853SOL    HW282397  10.709   2.866   5.605  0.3721 -0.6585 -0.4149
58854SOL     OW82398   3.638  11.543   2.680  0.0208 -0.2261  0.4455
58854SOL    HW182399   3.686  11.483   2.624  1.0326  0.9519 -0.0038
58854SOL    HW282400   3.675  11.528   2.768 -0.3589 -0.8705  0.4989
58855SOL     OW82401   2.452   3.494   3.759  0.5965  0.1685  0.0002
58855SOL    HW182402   2.443   3.400   3.749  1.3034  0.2370 -1.5990
58855SOL    HW282403   2.547   3.510   3.754  0.3982  1.0788 -1.2625
58856SOL     OW82404   3.581   2.437   7.129 -0.0563  0.0903 -0.1154
58856SOL    HW182405   3.569   2.506   7.195 -0.6655 -1.6912  1.7740
58856SOL    HW282406   3.628   2.367   7.176  0.2723 -0.9002 -1.8442
58857SOL     OW82407   9.160   6.164   1.816  0.4021  0.3042 -0.2805
58857SOL    HW182408   9.185   6.206   1.898  1.4409 -0.8996  0.0495
58857SOL    HW282409   9.242   6.149   1.769 -0.0517 -0.1990 -0.9570
58858SOL     OW82410  11.506   7.981   6.068 -0.0082  0.1688 -0.0323
58858SOL    HW182411  11.429   7.961   6.014 -1.3256  1.4863  1.2589
58858SOL    HW282412  11.495   7.926   6.146  0.2210  0.5742  0.2871
58859SOL     OW82413   7.114   6.716   7.135 -0.5880  0.3401 -0.2761
58859SOL    HW182414   7.081   6.721   7.225 -1.4381  0.0578 -0.5637
58859SOL    HW282415   7.202   6.753   7.140 -1.0190  1.3036  0.4732
58860SOL     OW82416  11.578   2.611  11.968 -0.5893  0.0422 -0.6417
58860SOL    HW182417  11.621   2.562  12.038  0.9428  0.4531 -1.2703
58860SOL    HW282418  11.622   2.696  11.967 -0.3539 -0.0705 -2.3064
58861SOL     OW82419   2.432  11.930   8.361 -0.7169  0.0307 -0.2768
58861SOL    HW182420   2.345  11.969   8.355 -0.1025  1.3171 -1.4022
58861SOL    HW282421   2.416  11.835   8.360 -2.1219  0.2346  0.2224
58862SOL     OW82422   6.785   0.265   2.118 -0.3789  0.4379  0.0173
58862SOL    HW182423   6.755   0.333   2.058 -0.2947 -0.5185 -1.1507
58862SOL    HW282424   6.713   0.203   2.123 -0.2600  0.3419  0.6701
58863SOL     OW82425   2.241  10.646   1.919 -0.1919  0.5655  0.1445
58863SOL    HW182426   2.174  10.606   1.864 -2.0410  0.7830  2.1251
58863SOL    HW282427   2.260  10.729   1.877 -1.1136  0.4561 -0.5181
58864SOL     OW82428   5.646   8.924   4.268 -0.1056 -0.4542  0.0521
58864SOL    HW182429   5.555   8.953   4.282  0.6198  0.7141  3.3827
58864SOL    HW282430   5.640   8.829   4.264 -1.5291 -0.3778 -0.5192
58865SOL     OW82431  10.354   8.337   5.684 -0.4638  0.3162  0.0778
58865SOL    HW182432  10.394   8.418   5.651 -0.3074  0.7230  1.2155
58865SOL    HW282433  10.405   8.316   5.762 -0.4273 -0.9642 -0.2743
58866SOL     OW82434   7.108   9.248   9.149  0.4769  0.2944  0.0702
58866SOL    HW182435   7.168   9.202   9.208 -0.1374 -1.9232 -0.9188
58866SOL    HW282436   7.021   9.226   9.182  0.1601  0.2004 -0.7844
58867SOL     OW82437   0.606   9.593   2.537  0.1518  0.4383 -0.2593
58867SOL    HW182438   0.641   9.557   2.456 -0.1656 -0.1627 -0.1372
58867SOL    HW282439   0.675   9.650   2.570 -1.1600  3.9346 -2.9461
58868SOL     OW82440  11.097  11.501   5.501  0.0280  0.1763 -0.2933
58868SOL    HW182441  11.096  11.584   5.453 -2.0616 -0.2338 -1.0903
58868SOL    HW282442  11.057  11.438   5.440 -0.4836 -0.9017  1.1069
58869SOL     OW82443   5.074   8.246   9.213  0.3772 -0.2512 -0.0246
58869SOL    HW182444   5.067   8.231   9.119 -0.7151 -1.1730  0.1876
58869SOL    HW282445   5.069   8.158   9.252 -2.7003  0.2788  1.0734
58870SOL     OW82446  10.648   2.144  10.975  0.1181  0.8110 -0.2417
58870SOL    HW182447  10.594   2.202  11.029  0.3814  1.3764 -0.5798
58870SOL    HW282448  10.713   2.109  11.035  0.1510  1.1121 -0.0989
58871SOL     OW82449  11.056   9.192   4.946 -0.4982 -0.5646 -0.2387
58871SOL    HW182450  11.026   9.271   4.991 -0.2802 -1.1933  1.0395
58871SOL    HW282451  11.148   9.185   4.968 -0.0543 -0.2213 -1.8211
58872SOL     OW82452   1.633  12.051   4.786  0.0759 -0.3555 -0.1936
58872SOL    HW182453   1.672  12.061   4.699  0.4043  2.5506  0.1972
58872SOL    HW282454   1.544  12.023   4.768  0.3017 -0.3583 -1.4551
58873SOL     OW82455   4.210  10.598  10.129 -0.0078  0.6269  0.2844
58873SOL    HW182456   4.263  10.518  10.117 -2.1622 -0.9991  0.9317
58873SOL    HW282457   4.217  10.644  10.046  0.3860 -0.8173 -0.5131
58874SOL     OW82458   3.604   5.541   2.329 -0.0866  0.7258  0.1168
58874SOL    HW182459   3.515   5.559   2.360  0.0703  0.9037  0.4749
58874SOL    HW282460   3.629   5.618   2.279  0.3250  1.2222  1.0632
58875SOL     OW82461   9.591   6.823  11.237 -0.6038  0.2050 -0.3181
58875SOL    HW182462   9.584   6.779  11.322 -1.5161  1.0218  0.0444
58875SOL    HW282463   9.673   6.789  11.200  0.3321  0.5462  1.3126
58876SOL     OW82464   3.917  10.885   7.164 -0.1710 -0.0120  0.1328
58876SOL    HW182465   3.828  10.906   7.136 -0.1543 -0.6599 -0.4364
58876SOL    HW282466   3.913  10.792   7.189  0.3966 -0.1048 -0.1150
58877SOL     OW82467  11.143  10.636   6.925 -0.0566  1.3910  0.0882
58877SOL    HW182468  11.209  10.603   6.987 -0.4963 -0.5040 -0.3779
58877SOL    HW282469  11.089  10.696   6.977 -0.5055 -0.2429  1.6245
58878SOL     OW82470  11.904   0.107  11.860  0.0548  0.6923  0.1122
58878SOL    HW182471  11.811   0.089  11.868  0.2543 -0.0893  0.8815
58878SOL    HW282472  11.933   0.053  11.787 -0.3544  2.0841 -1.1325
58879SOL     OW82473  11.230   1.444   8.669 -0.0965  0.3845 -0.3008
58879SOL    HW182474  11.151   1.428   8.722  0.2107  1.2149  0.4411
58879SOL    HW282475  11.282   1.365   8.680  0.0234  0.5957  0.7726
58880SOL     OW82476   3.751  11.229  11.623  0.1475  0.3129  0.3302
58880SOL    HW182477   3.695  11.279  11.564  3.5208  1.0957 -2.5774
58880SOL    HW282478   3.782  11.155  11.570  0.4146 -1.1634  2.4171
58881SOL     OW82479   2.100   6.257   2.087 -0.0466 -0.7398 -0.1891
58881SOL    HW182480   2.088   6.216   2.172 -0.4756 -0.1366  0.0434
58881SOL    HW282481   2.108   6.351   2.106 -1.7184 -0.4172 -0.9398
58882SOL     OW82482   6.823   4.194  12.047 -0.1459 -0.5305  0.0662
58882SOL    HW182483   6.758   4.212  12.115 -0.5649 -0.5142 -0.3250
58882SOL    HW282484   6.770   4.174  11.969  0.2804  2.2073 -1.0303
58883SOL     OW82485   4.703  11.954   5.727  0.4286  0.0002 -0.2333
58883SOL    HW182486   4.666  11.894   5.791  1.9466  0.4846  1.1536
58883SOL    HW282487   4.660  12.038   5.746  0.0200 -0.1141 -0.6366
58884SOL     OW82488  10.096   9.209   1.122  0.1965 -0.4365 -0.7653
58884SOL    HW182489  10.050   9.125   1.123 -1.5127  0.4753 -0.0290
58884SOL    HW282490  10.173   9.194   1.177 -0.4932 -1.3133 -0.0050
58885SOL     OW82491   3.285   9.918  10.459  0.0527 -0.0997 -0.2029
58885SOL    HW182492   3.356   9.901  10.521 -0.6006 -1.5794  0.1659
58885SOL    HW282493   3.207   9.880  10.500 -1.2241  2.4236 -0.0792
58886SOL     OW82494  10.842  10.302   8.533  0.4734  0.2873 -0.4192
58886SOL    HW182495  10.791  10.368   8.485 -3.2416 -0.9920  1.3635
58886SOL    HW282496  10.818  10.314   8.624  2.0382 -1.6145  0.3264
58887SOL     OW82497   8.886   7.124   9.113  0.0955  0.3720  0.7901
58887SOL    HW182498   8.948   7.142   9.043  0.7679  0.3235  1.3634
58887SOL    HW282499   8.894   7.030   9.129 -0.3651  0.3050  0.6503
58888SOL     OW82500   5.745   1.407  11.179  0.1906 -0.3389  0.1597
58888SOL    HW182501   5.664   1.395  11.130  0.1059 -2.7090  0.7876
58888SOL    HW282502   5.814   1.383  11.117  0.4254  1.2096 -0.2211
58889SOL     OW82503   3.149   8.334   5.882  0.8058 -0.4339  0.1375
58889SOL    HW182504   3.178   8.288   5.804  1.0863 -0.3498  0.1893
58889SOL    HW282505   3.215   8.312   5.948  0.9582  0.0556  0.1539
58890SOL     OW82506   2.562   6.354   3.698  0.5240  0.3476  0.2492
58890SOL    HW182507   2.531   6.343   3.608  2.1305 -0.3443 -0.2523
58890SOL    HW282508   2.516   6.285   3.747 -0.3739  0.7404 -0.0099
58891SOL     OW82509   8.363  10.097   3.260 -0.4333 -0.3530 -0.5660
58891SOL    HW182510   8.385  10.080   3.168 -1.9861  1.3887 -1.3350
58891SOL    HW282511   8.298  10.031   3.282 -0.6209 -0.3152 -0.9899
58892SOL     OW82512   9.335  10.634   4.862  1.1663 -0.4874 -0.2845
58892SOL    HW182513   9.340  10.540   4.849  0.0246 -0.4972 -0.7514
58892SOL    HW282514   9.426  10.664   4.856  1.4294 -1.4170 -1.1936
58893SOL     OW82515   6.801   1.403   4.719  0.2471 -0.7418  0.0994
58893SOL    HW182516   6.799   1.498   4.727 -1.6324 -0.4871 -2.3199
58893SOL    HW282517   6.722   1.374   4.765 -0.1159 -0.9588 -0.6538
58894SOL     OW82518   0.978   0.690   9.709 -0.2373 -0.1368 -0.7616
58894SOL    HW182519   0.891   0.653   9.720  1.0158 -2.8799  0.8272
58894SOL    HW282520   1.002   0.721   9.796  0.7726 -0.3748 -0.9418
58895SOL     OW82521   2.049   3.960   4.807  0.0520  0.8657 -0.0554
58895SOL    HW182522   2.034   3.900   4.880 -0.7754 -0.0744 -0.9672
58895SOL    HW282523   2.128   3.927   4.764 -0.3218  0.4922 -0.4713
58896SOL     OW82524   3.776   4.464  10.829  0.1727 -0.1599 -0.6598
58896SOL    HW182525   3.754   4.487  10.919  0.5936 -1.8024 -0.0886
58896SOL    HW282526   3.871   4.448  10.832  0.1640 -0.3495 -1.3539
58897SOL     OW82527  10.339   9.912   9.913  0.6183  0.4064 -0.3760
58897SOL    HW182528  10.333  10.006   9.930 -2.9824  0.5271 -1.5428
58897SOL    HW282529  10.369   9.906   9.822  1.1159  0.4044 -0.2134
58898SOL     OW82530   8.175  11.610   6.169  0.2594  0.1268 -0.2492
58898SOL    HW182531   8.193  11.678   6.105 -0.8947  0.3395 -0.3689
58898SOL    HW282532   8.121  11.652   6.236 -1.1419 -0.8278 -0.7274
58899SOL     OW82533   4.864  10.279   0.447 -0.3623  1.2084 -0.3863
58899SOL    HW182534   4.780  10.322   0.429  0.0374  1.3774 -1.9913
58899SOL    HW282535   4.878  10.221   0.371 -0.5455 -1.3022  1.3642
58900SOL     OW82536  10.605  10.153   7.614  0.5325  0.1639  0.2843
58900SOL    HW182537  10.618  10.100   7.692  0.7479 -0.8086 -0.3997
58900SOL    HW282538  10.515  10.185   7.621  0.3450 -0.4248  0.6229
58901SOL     OW82539  11.199  10.355   4.871 -0.2489  0.3697 -0.5889
58901SOL    HW182540  11.164  10.388   4.788 -1.1441  0.5347 -0.1545
58901SOL    HW282541  11.161  10.268   4.880 -0.6298  0.5820 -0.0746
58902SOL     OW82542   4.807   8.193   4.199  0.1076 -0.2722 -0.5336
58902SOL    HW182543   4.834   8.239   4.119  2.4270 -1.1150 -0.3352
58902SOL    HW282544   4.728   8.146   4.174 -0.3396  1.0664 -1.7359
58903SOL     OW82545   7.627   5.776  12.248  0.4241  0.2082  0.1251
58903SOL    HW182546   7.654   5.862  12.216  0.5326  0.3682  0.6490
58903SOL    HW282547   7.681   5.714  12.198  0.2857  0.4324 -0.3120
58904SOL     OW82548   5.942   2.010   9.539 -0.5889 -0.1703 -0.2227
58904SOL    HW182549   6.002   2.027   9.466 -1.0402 -1.2783 -0.8772
58904SOL    HW282550   5.977   2.062   9.611  0.6019 -0.0478 -0.8637
58905SOL     OW82551   1.434   3.400   1.535 -0.4619 -0.5456 -0.3089
58905SOL    HW182552   1.516   3.404   1.584 -1.1275  2.1068  0.7692
58905SOL    HW282553   1.451   3.450   1.455 -1.4375  1.4875  0.6997
58906SOL     OW82554   4.436   9.023   4.582 -0.6339  0.5758 -0.1684
58906SOL    HW182555   4.515   8.985   4.620 -0.9816 -1.0892 -1.0235
58906SOL    HW282556   4.369   9.012   4.649 -0.7040 -0.2871 -0.3621
58907SOL     OW82557   1.992   2.781   8.924 -0.2849 -0.1867 -0.9283
58907SOL    HW182558   2.056   2.767   8.994 -2.5986  1.5097  1.7590
58907SOL    HW282559   1.988   2.697   8.878  2.4565 -0.9106 -0.0713
58908SOL     OW82560   1.638   0.779   5.472  0.3303 -0.2850  0.0695
58908SOL    HW182561   1.622   0.738   5.387  0.5642  1.1897 -0.7288
58908SOL    HW282562   1.664   0.707   5.529 -0.2423 -1.3725 -0.9950
58909SOL     OW82563   5.828   3.745   8.714 -0.6823  0.4147 -0.3025
58909SOL    HW182564   5.814   3.699   8.797 -0.0335 -0.2226 -0.5384
58909SOL    HW282565   5.867   3.680   8.656  0.3513  1.2783 -0.6128
58910SOL     OW82566   5.976   4.320   8.888  0.3857 -0.5955 -0.3898
58910SOL    HW182567   5.959   4.227   8.900  1.6950 -1.1485 -2.3070
58910SOL    HW282568   6.064   4.333   8.925  0.9040 -0.5139 -1.6119
58911SOL     OW82569   3.974   0.875   7.203 -0.6003 -0.4352 -0.0161
58911SOL    HW182570   3.940   0.918   7.124 -1.2355  0.0652  0.5144
58911SOL    HW282571   3.961   0.940   7.273  2.0951  0.0722  0.1058
58912SOL     OW82572   3.777   9.303   4.352  0.6110 -0.2498  0.2891
58912SOL    HW182573   3.708   9.258   4.401 -0.7017  0.6718 -0.6423
58912SOL    HW282574   3.855   9.249   4.364 -0.0952 -0.9665  1.9260
58913SOL     OW82575   7.824   5.389   2.103 -0.2349  0.5623  0.2810
58913SOL    HW182576   7.735   5.385   2.068 -0.9993  0.8244  2.0777
58913SOL    HW282577   7.849   5.298   2.116 -0.7161  0.5131  0.8901
58914SOL     OW82578   3.484   9.980   8.317  0.3410 -0.1891 -0.4050
58914SOL    HW182579   3.466  10.073   8.313  3.5085  0.6813  1.7419
58914SOL    HW282580   3.435   9.942   8.244 -1.9728  2.9121 -0.6616
58915SOL     OW82581   7.876   7.532   6.212  0.3670  0.0822 -0.5386
58915SOL    HW182582   7.853   7.553   6.122 -1.7009  1.9185  0.3200
58915SOL    HW282583   7.913   7.614   6.247 -0.5344 -0.0282  0.7554
58916SOL     OW82584  10.487   2.544   5.363  0.6579 -0.2185  0.0975
58916SOL    HW182585  10.507   2.466   5.415 -0.8523 -0.9613 -0.3434
58916SOL    HW282586  10.432   2.597   5.421  1.0860  0.1745  0.1425
58917SOL     OW82587   2.393   9.941   2.206 -0.1579  0.0748 -0.0885
58917SOL    HW182588   2.325  10.002   2.235 -0.0926 -0.2694  0.8235
58917SOL    HW282589   2.345   9.873   2.160 -0.2247  0.8379 -1.1913
58918SOL     OW82590   8.646   1.937   7.145 -0.1182  0.0277  0.1505
58918SOL    HW182591   8.651   1.970   7.056 -2.3684 -0.7244 -0.3194
58918SOL    HW282592   8.722   1.879   7.154  1.1834  1.5541 -0.5945
58919SOL     OW82593   8.623   4.485   4.262  0.2051 -0.4169  0.2649
58919SOL    HW182594   8.562   4.553   4.232 -1.7727 -1.6819  1.1962
58919SOL    HW282595   8.599   4.408   4.210  1.7936 -0.6898 -0.1164
58920SOL     OW82596  11.466   4.506   1.276  0.7695 -0.2191  0.5014
58920SOL    HW182597  11.517   4.496   1.356  0.9149  1.7107  0.6822
58920SOL    HW282598  11.459   4.600   1.263 -1.8108 -0.4005 -0.1087
58921SOL     OW82599   6.974   7.043   6.297 -0.4393 -0.1294  0.1780
58921SOL    HW182600   6.879   7.055   6.297 -0.2961  1.3041  1.2308
58921SOL    HW282601   7.010   7.132   6.292  0.8533 -0.6415 -0.1081
58922SOL     OW82602   7.253  12.188   5.502  0.6047 -0.3383 -0.1388
58922SOL    HW182603   7.263  12.154   5.413  1.1421 -0.0053 -0.2130
58922SOL    HW282604   7.342  12.191   5.536  0.4589  0.0636  0.2132
58923SOL     OW82605  11.641  10.743   5.744 -0.2626 -0.0383 -0.1370
58923SOL    HW182606  11.607  10.665   5.700 -1.5269  0.5712 -0.2893
58923SOL    HW282607  11.567  10.776   5.795 -0.3189  2.0433 -1.4381
58924SOL     OW82608   6.918   5.820  10.643  0.7518 -0.0328 -0.4517
58924SOL    HW182609   6.908   5.732  10.606 -0.9316 -0.7713  1.5239
58924SOL    HW282610   6.917   5.805  10.738  1.8422  2.0135 -0.0711
58925SOL     OW82611   2.382  11.324   4.697 -0.1339 -0.1337 -0.7663
58925SOL    HW182612   2.352  11.356   4.612  1.3488  0.7362 -0.9991
58925SOL    HW282613   2.474  11.352   4.702  0.0546 -0.9258  0.7516
58926SOL     OW82614  12.169   0.890   8.236 -0.5358 -0.7807  0.4579
58926SOL    HW182615  12.121   0.954   8.183 -0.5254 -0.5320  0.7438
58926SOL    HW282616  12.139   0.805   8.205 -1.7803 -0.6298  1.1865
58927SOL     OW82617   0.052   0.818  11.123 -0.3344 -0.2069 -0.3433
58927SOL    HW182618   0.096   0.785  11.045  0.0299  0.3858 -0.3987
58927SOL    HW282619   0.060   0.748  11.187  0.4044 -0.2368 -0.4625
58928SOL     OW82620  10.404   3.336  10.620  0.6484  0.5389  0.2769
58928SOL    HW182621  10.450   3.349  10.703 -0.3446 -0.5531  1.0462
58928SOL    HW282622  10.324   3.289  10.645  0.0103  0.7681 -1.2300
58929SOL     OW82623   7.035   4.528   3.860  0.3379  0.0610 -0.0866
58929SOL    HW182624   7.053   4.487   3.944 -1.1438  0.1826  0.3169
58929SOL    HW282625   6.939   4.529   3.853  0.3705  1.6624 -0.9599
58930SOL     OW82626   5.199   3.016  10.570 -0.2953  0.3486  0.3091
58930SOL    HW182627   5.175   2.937  10.618 -0.9679 -0.3784 -1.1434
58930SOL    HW282628   5.293   3.027  10.587  0.4137 -2.1720 -1.3196
58931SOL     OW82629   7.196  11.078   0.661  0.9294  0.2940  0.7185
58931SOL    HW182630   7.164  10.988   0.670  0.4125  0.5817  1.9400
58931SOL    HW282631   7.128  11.132   0.700 -0.0554  1.5070 -2.3730
58932SOL     OW82632   4.138   5.996  11.041  0.3199  0.2416  0.0355
58932SOL    HW182633   4.200   5.953  11.100  0.3865  0.8178  0.3965
58932SOL    HW282634   4.052   5.965  11.070  0.4110 -0.3357 -0.2838
58933SOL     OW82635   7.869   1.762   3.317  0.4171 -0.0028  0.2854
58933SOL    HW182636   7.951   1.809   3.303  0.1770  0.3689  0.0983
58933SOL    HW282637   7.886   1.673   3.286  0.8519 -0.0224  0.5716
58934SOL     OW82638   9.542   0.847   3.264  0.6189  0.0319  0.1329
58934SOL    HW182639   9.524   0.884   3.178  0.6314 -0.7231 -0.1950
58934SOL    HW282640   9.567   0.923   3.318  0.1819  0.5636 -0.4028
58935SOL     OW82641   6.780   5.028   7.014 -0.7052 -0.3046 -0.2949
58935SOL    HW182642   6.766   5.083   7.091  0.3457 -0.9604  0.3819
58935SOL    HW282643   6.705   5.047   6.958  0.0270  2.4761 -0.4950
58936SOL     OW82644  11.690   4.487   1.445  0.0266 -0.4455 -0.2393
58936SOL    HW182645  11.746   4.523   1.377 -0.6905  0.7470 -0.2332
58936SOL    HW282646  11.747   4.476   1.521  0.3297  0.3972 -0.3424
58937SOL     OW82647  10.183   6.119   1.995  0.3327  0.0606  0.1506
58937SOL    HW182648  10.153   6.090   2.081  0.6953 -0.3493  0.1403
58937SOL    HW282649  10.108   6.165   1.958  0.0962  0.0348  0.5879
58938SOL     OW82650   1.363  10.760   8.491  0.3879 -0.4493 -0.5609
58938SOL    HW182651   1.409  10.702   8.551  1.9988  0.6637 -0.6620
58938SOL    HW282652   1.391  10.848   8.516  0.8412  0.0783 -2.6750
58939SOL     OW82653   2.315   5.397   8.590  0.5811 -0.7634 -0.4382
58939SOL    HW182654   2.247   5.394   8.657  1.1738  2.4931  0.4664
58939SOL    HW282655   2.269   5.370   8.510 -0.9319 -1.7282  0.6905
58940SOL     OW82656   5.808   4.621   6.274 -0.1199 -0.5296  0.3634
58940SOL    HW182657   5.883   4.614   6.215 -0.7117 -0.2751 -0.4340
58940SOL    HW282658   5.803   4.714   6.297 -1.0383 -0.2737 -0.7490
58941SOL     OW82659   8.884   2.680   0.260  0.7228  0.2417 -0.3185
58941SOL    HW182660   8.884   2.601   0.206  1.8587  1.4842 -2.2319
58941SOL    HW282661   8.805   2.727   0.234  0.6776  0.3005 -0.0725
58942SOL     OW82662   7.467  10.549  10.812  0.0083 -0.0374  0.5459
58942SOL    HW182663   7.425  10.520  10.893  0.4169 -0.3960  0.6318
58942SOL    HW282664   7.486  10.642  10.827  0.1308 -0.1148  0.8846
58943SOL     OW82665   9.462  10.401  11.552 -0.1821 -0.1431  0.2199
58943SOL    HW182666   9.382  10.361  11.519 -1.0319  0.1199  1.8489
58943SOL    HW282667   9.525  10.329  11.558 -1.2030 -0.9733  1.6136
58944SOL     OW82668   3.057   4.674   8.574  0.3149  0.3832  0.3533
58944SOL    HW182669   3.001   4.623   8.633  1.5825  0.7771  1.9732
58944SOL    HW282670   2.999   4.741   8.538 -0.4872  0.1530  1.1904
58945SOL     OW82671   4.871   1.602   5.551  0.5159  0.0785  0.3596
58945SOL    HW182672   4.865   1.626   5.459 -1.1884 -1.3660  0.0413
58945SOL    HW282673   4.780   1.586   5.578  1.1753 -2.2964  1.4751
58946SOL     OW82674   1.878   4.751   7.673  0.6763  0.3611 -0.3875
58946SOL    HW182675   1.905   4.680   7.731  2.2201 -0.1225 -1.6276
58946SOL    HW282676   1.957   4.775   7.626 -0.0313  2.2682 -0.7162
58947SOL     OW82677   9.471   8.471   2.614 -0.0818  0.2711  0.2599
58947SOL    HW182678   9.542   8.415   2.585 -0.3138  1.1665 -2.3728
58947SOL    HW282679   9.395   8.442   2.563 -0.4535  2.1999 -0.4053
58948SOL     OW82680   3.721   8.169  11.227 -0.1597 -0.9654  0.3846
58948SOL    HW182681   3.777   8.245  11.211  0.8286 -1.1560  2.4945
58948SOL    HW282682   3.783   8.097  11.239 -0.9823 -1.6613  0.4665
58949SOL     OW82683   5.931   3.984   7.932 -0.8115 -0.6425 -0.1210
58949SOL    HW182684   5.961   3.896   7.953 -0.1111  0.0454  2.0116
58949SOL    HW282685   5.845   3.991   7.973 -0.5599 -0.1244  0.3380
58950SOL     OW82686   8.013   6.616   8.223  0.3930 -0.1333  0.1824
58950SOL    HW182687   7.962   6.540   8.250  1.5904 -0.2800  2.2703
58950SOL    HW282688   8.103   6.594   8.245  0.7937  1.7958  0.7045
58951SOL     OW82689   4.220   2.521   1.380  0.1751 -0.0034  0.6654
58951SOL    HW182690   4.184   2.466   1.310  0.7128  1.2036 -0.5998
58951SOL    HW282691   4.217   2.465   1.458  0.0711 -1.5824 -0.4250
58952SOL     OW82692   9.812   9.076   9.544  0.0182  0.0567 -0.4487
58952SOL    HW182693   9.731   9.025   9.538 -1.2991  1.5630  2.6723
58952SOL    HW282694   9.859   9.038   9.618  0.6454  1.1727 -0.2556
58953SOL     OW82695   0.425   7.320   1.446  1.1281  0.2721  0.3786
58953SOL    HW182696   0.449   7.278   1.528  0.6461  1.0967  0.9515
58953SOL    HW282697   0.445   7.254   1.379  2.5613  0.0016  1.0432
58954SOL     OW82698   1.104  10.957   9.553  0.3134  0.4887  0.6434
58954SOL    HW182699   1.062  10.944   9.468  1.9867 -0.3095 -0.1189
58954SOL    HW282700   1.036  10.936   9.617 -1.5595  2.8407 -0.3958
58955SOL     OW82701   6.536   3.844   0.292  0.0979  0.1010 -0.6892
58955SOL    HW182702   6.601   3.914   0.303 -0.2141  0.4592 -1.1118
58955SOL    HW282703   6.480   3.874   0.221  0.3451 -0.8688 -1.3095
58956SOL     OW82704  12.284   5.212   3.934  0.0379 -0.0101  0.8108
58956SOL    HW182705  12.309   5.304   3.924 -1.0324  0.2574  0.3792
58956SOL    HW282706  12.348   5.164   3.881 -2.1025  0.9205 -3.0324
58957SOL     OW82707   6.368   4.073   2.845  0.7319  0.8664  0.3743
58957SOL    HW182708   6.277   4.066   2.873  0.1230  4.6704 -0.1799
58957SOL    HW282709   6.409   4.132   2.909  2.4429  0.3496 -0.1807
58958SOL     OW82710   4.693   4.484   3.665 -0.1461  0.4348  0.5026
58958SOL    HW182711   4.742   4.415   3.620 -0.3306  1.1931 -0.9293
58958SOL    HW282712   4.743   4.564   3.648  0.7845  0.5206  3.2454
58959SOL     OW82713  10.948  11.878   0.247  0.2174 -0.2491 -0.6636
58959SOL    HW182714  11.017  11.823   0.211  0.3485 -0.7030  0.2586
58959SOL    HW282715  10.963  11.964   0.208  0.9539 -0.4862 -0.9157
58960SOL     OW82716   1.417   3.447  12.161 -0.3346 -0.3874  0.5057
58960SOL    HW182717   1.343   3.507  12.161  0.2104  0.3014  0.3149
58960SOL    HW282718   1.432   3.429  12.254 -0.6907 -0.4695  0.5494
58961SOL     OW82719   2.785   5.817   7.241  0.3397 -0.6848 -0.1457
58961SOL    HW182720   2.762   5.819   7.333 -0.0828 -0.3251 -0.2543
58961SOL    HW282721   2.837   5.897   7.227 -1.6942  0.6094 -0.7368
58962SOL     OW82722   6.155   8.413   1.053 -0.0653 -0.1148  0.0145
58962SOL    HW182723   6.233   8.447   1.010  0.2647 -0.2108  0.5244
58962SOL    HW282724   6.188   8.365   1.129 -0.6830  1.0514  1.0631
58963SOL     OW82725   0.534   4.865   9.556  0.2657 -0.5408 -0.4638
58963SOL    HW182726   0.491   4.881   9.472  1.2845 -2.5509 -1.4384
58963SOL    HW282727   0.618   4.826   9.533  0.2473 -1.8733  1.4971
58964SOL     OW82728   2.690   7.409  10.107 -0.2023  0.4405 -0.3260
58964SOL    HW182729   2.687   7.504  10.098 -1.8144  0.3404 -1.2043
58964SOL    HW282730   2.747   7.379  10.036 -3.0333  0.5335 -2.8486
58965SOL     OW82731   1.652   7.744  11.861  0.4473 -0.0902 -0.0307
58965SOL    HW182732   1.566   7.784  11.846 -0.0617 -1.3748 -0.7058
58965SOL    HW282733   1.703   7.812  11.905 -1.0909  0.5158  0.8933
58966SOL     OW82734   4.336   8.369  11.741  0.7954  0.1213  0.2764
58966SOL    HW182735   4.256   8.420  11.757  0.4041 -0.1760 -0.6395
58966SOL    HW282736   4.390   8.384  11.819  0.0402  0.6929  0.7096
58967SOL     OW82737   9.261   6.571   1.611 -0.0577  0.3061  0.1306
58967SOL    HW182738   9.318   6.567   1.687  0.7718  0.0068 -0.4827
58967SOL    HW282739   9.238   6.663   1.603  1.0126  0.5764 -0.0736
58968SOL     OW82740   7.754   3.805   7.364  0.4384  0.8372  0.4867
58968SOL    HW182741   7.817   3.777   7.431 -0.8912 -1.1180  1.0017
58968SOL    HW282742   7.735   3.725   7.314 -1.6637  1.3512  0.3784
58969SOL     OW82743   7.499   1.945   9.130 -0.4317  0.1845  0.1704
58969SOL    HW182744   7.466   1.987   9.051  0.5849 -0.0431 -0.3880
58969SOL    HW282745   7.490   2.013   9.198  0.1605  0.9307 -0.4794
58970SOL     OW82746   6.561   1.971  10.925 -0.2122  0.2978 -0.3316
58970SOL    HW182747   6.552   1.932  10.838  2.6901 -0.9849 -0.1889
58970SOL    HW282748   6.583   2.063  10.907 -2.0073  0.6760 -0.8168
58971SOL     OW82749   1.509   8.159   4.122 -0.1200 -0.0783  0.2483
58971SOL    HW182750   1.419   8.192   4.114  0.5687  1.5815 -1.2876
58971SOL    HW282751   1.521   8.103   4.046  1.0069  2.0418 -1.2460
58972SOL     OW82752   1.709   5.538   7.300 -0.6147 -0.4030 -0.0160
58972SOL    HW182753   1.698   5.444   7.316  0.6243 -0.5399  0.0784
58972SOL    HW282754   1.633   5.561   7.247 -1.5664 -1.2044  0.9406
58973SOL     OW82755   8.051   7.141   1.001  0.0787  0.2758 -0.0386
58973SOL    HW182756   8.124   7.163   1.059  0.0266 -0.2164  0.2132
58973SOL    HW282757   8.006   7.069   1.045  1.9329 -2.3933 -2.2076
58974SOL     OW82758  10.311   2.615  12.069  0.5224 -0.1008  0.1632
58974SOL    HW182759  10.288   2.573  12.152  1.7567 -1.3613 -0.1142
58974SOL    HW282760  10.406   2.626  12.073  0.3018  2.4650  0.1013
58975SOL     OW82761  10.263   7.114   1.329 -0.3885  0.5828  0.5466
58975SOL    HW182762  10.182   7.166   1.330 -0.3309  0.8161 -1.5936
58975SOL    HW282763  10.235   7.027   1.303 -0.0022  0.6065  0.0243
58976SOL     OW82764   8.383  11.771  11.846  0.6954  0.5313  0.1634
58976SOL    HW182765   8.454  11.794  11.786  0.0324 -0.7762 -1.1665
58976SOL    HW282766   8.417  11.697  11.896  0.3096 -0.0295 -0.4016
58977SOL     OW82767   6.374   6.615   5.824  0.2138 -0.3311  0.0698
58977SOL    HW182768   6.279   6.608   5.820  0.1781  0.0407  0.2295
58977SOL    HW282769   6.399   6.552   5.891  0.0554 -0.2463  0.2102
58978SOL     OW82770   9.828   2.028   6.417  0.0510  0.2343 -0.0723
58978SOL    HW182771   9.769   1.993   6.350  0.2931  1.4733 -0.9669
58978SOL    HW282772   9.897   2.072   6.368  1.0265 -0.0447  0.9823
58979SOL     OW82773   5.908   7.137   4.817 -0.1198 -0.2956 -0.0937
58979SOL    HW182774   5.903   7.042   4.830 -1.1446 -0.7831 -3.3179
58979SOL    HW282775   5.823   7.162   4.781  0.6515  1.5807 -0.7623
58980SOL     OW82776   4.453   8.484  10.295  0.2561  0.1226  1.0256
58980SOL    HW182777   4.433   8.411  10.236  0.0876  1.2077 -0.2868
58980SOL    HW282778   4.400   8.466  10.373  1.5312 -2.0748  1.4986
58981SOL     OW82779  10.677   7.318   5.227  0.3603 -0.3465  0.0082
58981SOL    HW182780  10.743   7.265   5.272 -0.2636 -2.5562 -1.5222
58981SOL    HW282781  10.600   7.262   5.222  0.2045 -0.0313 -3.2408
58982SOL     OW82782   8.966  10.278   0.369  0.2520  0.7595  0.3445
58982SOL    HW182783   8.996  10.187   0.357  1.6626  0.9311  2.1482
58982SOL    HW282784   9.041  10.322   0.408 -0.4079  2.7456 -0.5145
58983SOL     OW82785   8.819   7.808   0.601 -0.5278 -0.5070  0.7505
58983SOL    HW182786   8.760   7.860   0.656  2.0093  1.6630  1.6322
58983SOL    HW282787   8.778   7.810   0.514 -2.5962 -0.6337  1.6614
58984SOL     OW82788   0.654  12.317  12.192 -0.4349  0.1099  0.3248
58984SOL    HW182789   0.679  12.388  12.132 -1.5187  0.1715 -0.0663
58984SOL    HW282790   0.639  12.242  12.135 -2.0592  0.3245  0.4368
58985SOL     OW82791   3.211   1.435   5.881  0.4356  0.1491 -0.4031
58985SOL    HW182792   3.121   1.459   5.902  0.8051  0.7161  0.5513
58985SOL    HW282793   3.246   1.398   5.962  1.1644  0.2485 -0.6655
58986SOL     OW82794  11.887  10.238   0.464 -0.4289  0.7544 -0.0967
58986SOL    HW182795  11.933  10.200   0.389  2.6160  1.9367  1.0235
58986SOL    HW282796  11.809  10.183   0.475  0.8102 -1.5563 -1.9788
58987SOL     OW82797   3.366   9.595   3.274 -0.3588 -0.0542 -0.3866
58987SOL    HW182798   3.392   9.623   3.187  0.1340 -1.6977 -0.8157
58987SOL    HW282799   3.366   9.499   3.269  1.7183 -0.2912  1.9476
58988SOL     OW82800   6.769   1.449  11.553  0.3174  0.6253  0.0973
58988SOL    HW182801   6.781   1.362  11.590 -0.8741  0.1346 -0.6215
58988SOL    HW282802   6.838   1.502  11.594  0.4262 -0.4031  1.3044
58989SOL     OW82803  10.373  10.555   1.754  0.3183  0.0725 -0.1966
58989SOL    HW182804  10.324  10.475   1.773 -0.3622  0.1919 -1.3638
58989SOL    HW282805  10.350  10.615   1.826 -1.2525  0.1126 -0.6989
58990SOL     OW82806   1.281   1.863  11.459  0.3085  0.3725  0.0446
58990SOL    HW182807   1.344   1.840  11.527  0.0201 -3.1548 -0.6686
58990SOL    HW282808   1.220   1.923  11.502  1.6358  0.3657  2.0777
58991SOL     OW82809   3.086  11.323   4.043 -0.3280  0.3657 -0.2101
58991SOL    HW182810   3.053  11.413   4.045 -0.3273  0.3609 -0.0114
58991SOL    HW282811   3.181  11.332   4.052 -0.3170  0.3506 -0.3052
58992SOL     OW82812  10.272   1.481   0.205  0.1552 -0.1339  0.2367
58992SOL    HW182813  10.215   1.557   0.212  0.1618 -0.0373 -0.7169
58992SOL    HW282814  10.255   1.445   0.119  0.5281 -0.9211  0.4814
58993SOL     OW82815   3.068   0.193  10.526  0.6007  0.9350 -0.3661
58993SOL    HW182816   2.995   0.157  10.476  1.6492 -2.2365  0.1504
58993SOL    HW282817   3.137   0.208  10.462  0.0691  2.4420 -0.6246
58994SOL     OW82818   0.111   2.212   5.882  0.0004 -0.4443  0.0647
58994SOL    HW182819   0.182   2.151   5.861 -0.7548 -1.0846 -0.7318
58994SOL    HW282820   0.120   2.282   5.817 -0.1592 -0.5917 -0.1206
58995SOL     OW82821   5.000   8.153   7.934  0.2408  0.0827 -0.1043
58995SOL    HW182822   5.003   8.217   7.863  1.0583 -0.8034 -0.8867
58995SOL    HW282823   4.908   8.154   7.963 -0.5153 -0.7400 -2.2861
58996SOL     OW82824   6.648   1.552   0.836  0.4894  0.8238  0.1443
58996SOL    HW182825   6.645   1.581   0.927  0.4607  2.0147 -0.2226
58996SOL    HW282826   6.557   1.557   0.806  0.8803  3.9193 -0.9577
58997SOL     OW82827   6.107  11.632   4.146  0.3622  0.0562  0.2128
58997SOL    HW182828   6.057  11.551   4.152  1.7222 -0.7473  1.4028
58997SOL    HW282829   6.047  11.695   4.107 -0.8770 -1.3988 -0.3063
58998SOL     OW82830   3.048   1.219   6.445 -0.2792 -0.3010 -0.5156
58998SOL    HW182831   3.080   1.129   6.445 -0.5394 -0.3948 -0.3255
58998SOL    HW282832   3.058   1.248   6.354 -1.0574 -0.8299 -0.7767
58999SOL     OW82833  10.582   7.075   5.071  0.1605  0.8366 -0.0300
58999SOL    HW182834  10.613   6.997   5.117 -0.7947 -0.4218 -1.4432
58999SOL    HW282835  10.661   7.127   5.056  0.9254 -0.2121  0.2825
59000SOL     OW82836   5.537   3.631  12.235 -0.1536 -0.6498 -0.0645
59000SOL    HW182837   5.539   3.547  12.281  1.0818 -0.8179 -0.4000
59000SOL    HW282838   5.628   3.648  12.212  0.0211  2.0176  2.1769
59001SOL     OW82839  10.459   0.406   0.418 -0.4899  0.1698 -0.2510
59001SOL    HW182840  10.403   0.482   0.408  0.2030  1.0064  1.7299
59001SOL    HW282841  10.401   0.336   0.449 -0.3530  1.4945  3.5760
59002SOL     OW82842   4.544   8.519   0.392 -0.0645 -0.5873 -0.4342
59002SOL    HW182843   4.464   8.561   0.422 -0.1412 -0.1307 -1.2538
59002SOL    HW282844   4.596   8.589   0.352  0.3215 -1.0496 -0.7684
59003SOL     OW82845   8.938   0.788   3.360  0.1879 -0.0695  0.0342
59003SOL    HW182846   9.019   0.746   3.388  0.8744 -0.4094 -2.2778
59003SOL    HW282847   8.960   0.881   3.352  0.4015 -0.1731 -0.6710
59004SOL     OW82848   6.128   0.248   8.968  0.4069 -0.3056  0.4616
59004SOL    HW182849   6.220   0.270   8.957  0.1909  1.1808  1.3454
59004SOL    HW282850   6.129   0.164   9.014  1.3679  0.2776  1.5726
59005SOL     OW82851   0.627   7.283  11.782  0.3514 -0.1256 -0.8962
59005SOL    HW182852   0.679   7.204  11.793  1.0786  0.2992 -1.2037
59005SOL    HW282853   0.655   7.341  11.853  0.2994  0.1031 -1.0584
59006SOL     OW82854   8.429  10.469   5.148 -0.8997 -0.2328 -0.1956
59006SOL    HW182855   8.505  10.451   5.093  0.7745  1.5546  1.3552
59006SOL    HW282856   8.398  10.555   5.117 -0.8416  0.1011  0.6523
59007SOL     OW82857   9.886   7.791   5.477  0.4434 -0.0480  0.1129
59007SOL    HW182858   9.958   7.735   5.446 -0.2742  0.0568 -1.8818
59007SOL    HW282859   9.913   7.880   5.453 -0.4764 -0.0417 -0.9610
59008SOL     OW82860   0.521  10.551   7.940  0.0982 -0.3829  0.5490
59008SOL    HW182861   0.449  10.612   7.924 -1.6727 -1.9507  1.9475
59008SOL    HW282862   0.480  10.478   7.987  2.3058 -2.1432 -0.0731
59009SOL     OW82863   7.213   8.429   9.395 -0.4104 -0.2435 -0.0171
59009SOL    HW182864   7.227   8.337   9.415  0.9218  0.0222  0.4119
59009SOL    HW282865   7.279   8.450   9.329 -0.0045  0.6340  0.6405
59010SOL     OW82866   0.171   6.412   6.376  0.7823  0.5769  0.1153
59010SOL    HW182867   0.114   6.385   6.449 -0.2042 -0.0817 -0.8754
59010SOL    HW282868   0.113   6.460   6.317  1.0545 -0.7299 -1.2784
59011SOL     OW82869   5.471  10.775   7.458  0.1341 -0.2275 -0.0995
59011SOL    HW182870   5.489  10.848   7.517 -1.5185 -0.9502  1.3940
59011SOL    HW282871   5.429  10.815   7.382 -3.0425  0.2703  1.7367
59012SOL     OW82872   3.066   4.914   0.485 -0.7135 -0.3377 -0.2589
59012SOL    HW182873   3.145   4.918   0.431 -1.3914 -1.1467 -1.3545
59012SOL    HW282874   3.072   4.830   0.531 -0.4658  0.0501  0.4384
59013SOL     OW82875   5.691  12.287   9.634  0.1597 -0.3812  0.3775
59013SOL    HW182876   5.780  12.267   9.607  0.4077  0.5448  0.4732
59013SOL    HW282877   5.701  12.352   9.704 -0.5993  0.2574 -0.0891
59014SOL     OW82878   4.772  10.808  11.877  0.7695 -0.0204  0.1714
59014SOL    HW182879   4.729  10.867  11.939  0.0077  1.9947 -2.0909
59014SOL    HW282880   4.864  10.810  11.900  0.3029 -0.7260  2.2597
59015SOL     OW82881   9.732   8.378   2.529  0.1047  0.7252  0.3175
59015SOL    HW182882   9.729   8.351   2.437 -1.0093 -0.8404  0.7867
59015SOL    HW282883   9.822   8.360   2.556 -0.0061 -0.3806 -0.0256
59016SOL     OW82884  11.898  11.483   2.751  0.0985 -0.1081 -0.0215
59016SOL    HW182885  11.976  11.529   2.721  0.0896 -0.2707 -0.3008
59016SOL    HW282886  11.919  11.456   2.840 -0.4667  1.7607  0.7292
59017SOL     OW82887   1.246   6.406   3.263  0.0839 -0.7943  0.3467
59017SOL    HW182888   1.242   6.315   3.231  0.7926 -1.6098  2.4091
59017SOL    HW282889   1.340   6.427   3.261 -0.1057  0.0465 -0.4363
59018SOL     OW82890   5.325   3.111   3.778  0.0638  0.0140  0.2580
59018SOL    HW182891   5.353   3.157   3.699  1.7616  0.5768  1.1585
59018SOL    HW282892   5.268   3.041   3.745  0.1346  0.6850 -1.3892
59019SOL     OW82893   8.095  11.049   5.278  0.0796 -0.0822 -0.2784
59019SOL    HW182894   8.026  10.994   5.313  0.5157  0.3969  1.4100
59019SOL    HW282895   8.176  10.999   5.291  0.2376  0.0082 -0.8470
59020SOL     OW82896   7.496   5.418   5.428 -0.6387  0.1698  0.2611
59020SOL    HW182897   7.499   5.443   5.521 -0.4806 -0.6224  0.4786
59020SOL    HW282898   7.555   5.343   5.422 -0.5863  0.2707 -0.5030
59021SOL     OW82899   9.840  12.108   9.975 -0.2244  0.2479  0.2241
59021SOL    HW182900   9.853  12.021   9.939 -0.0399  0.8213 -1.1506
59021SOL    HW282901   9.814  12.162   9.900  3.4273  2.2580  0.1576
59022SOL     OW82902   9.451   9.226   8.090  0.1649  0.0303  0.0599
59022SOL    HW182903   9.491   9.171   8.022  0.1413 -0.8205  0.7028
59022SOL    HW282904   9.525   9.249   8.148  0.2113  0.8648 -0.3277
59023SOL     OW82905   0.234   2.243   4.531  0.2957  0.7176  1.0468
59023SOL    HW182906   0.160   2.193   4.498  0.8656  1.3250 -1.4023
59023SOL    HW282907   0.300   2.177   4.553 -0.3527  0.2463  1.5817
59024SOL     OW82908   0.804   6.532   7.157 -0.2928 -0.1327 -0.1978
59024SOL    HW182909   0.785   6.626   7.164 -1.5465 -0.3712 -0.1629
59024SOL    HW282910   0.894   6.528   7.125 -0.8076  1.1007 -1.9261
59025SOL     OW82911   8.587   4.255   2.835  0.1577 -0.1350  0.8136
59025SOL    HW182912   8.553   4.333   2.792 -0.7500 -0.3282  1.1545
59025SOL    HW282913   8.662   4.286   2.885  1.0584  0.1407 -0.6495
59026SOL     OW82914  12.186  11.979   5.614 -0.5002  0.0250  0.6132
59026SOL    HW182915  12.123  12.035   5.569  1.2448  2.2003  0.7485
59026SOL    HW282916  12.221  11.922   5.545  0.8655  2.1242 -0.5174
59027SOL     OW82917  12.072   9.790   2.747  0.5403  0.2223 -0.2340
59027SOL    HW182918  12.097   9.817   2.836  1.7114  0.1474 -0.5256
59027SOL    HW282919  12.154   9.792   2.698  0.4166 -2.3474 -0.6613
59028SOL     OW82920  12.303   9.287   8.944 -0.1436 -0.0237  0.0673
59028SOL    HW182921  12.373   9.323   8.890 -0.1622  0.0487  0.0927
59028SOL    HW282922  12.341   9.207   8.981 -0.9936 -1.5711 -2.1731
59029SOL     OW82923   0.844   6.382   5.734 -0.3479 -0.0622  0.5187
59029SOL    HW182924   0.925   6.334   5.717 -1.5954 -2.6515  1.3724
59029SOL    HW282925   0.873   6.463   5.775  1.8126 -1.1647  1.3567
59030SOL     OW82926   4.455   3.762   5.581 -0.2511 -0.1088 -0.2312
59030SOL    HW182927   4.401   3.693   5.543 -1.2727  0.7259 -0.3353
59030SOL    HW282928   4.392   3.827   5.613  0.5333 -0.5166  2.4432
59031SOL     OW82929   0.115   2.401   2.476 -0.2849  0.0038  0.1470
59031SOL    HW182930   0.169   2.377   2.550  0.3397  1.1573  0.0864
59031SOL    HW282931   0.117   2.497   2.474 -2.3601  0.1038  0.1691
59032SOL     OW82932   6.470   7.710  12.203 -0.4661  0.3651  0.1597
59032SOL    HW182933   6.430   7.796  12.213 -0.8863  0.4160 -1.5360
59032SOL    HW282934   6.563   7.728  12.186 -0.8609  0.6649 -2.0544
59033SOL     OW82935   1.255   2.694   5.807 -0.4074  0.7062  0.4439
59033SOL    HW182936   1.196   2.734   5.872 -0.3232 -0.1388  1.0641
59033SOL    HW282937   1.340   2.692   5.851  0.1685  2.1634 -0.5493
59034SOL     OW82938   4.557   9.618   0.995 -0.2117  0.1651  0.1518
59034SOL    HW182939   4.489   9.551   0.998 -0.2639  0.2125  0.0027
59034SOL    HW282940   4.583   9.622   0.903 -0.3393  0.4851  0.1319
59035SOL     OW82941   4.305  11.843   4.913 -0.4902 -0.4970  0.3455
59035SOL    HW182942   4.380  11.875   4.963 -0.9505  0.3790  0.5078
59035SOL    HW282943   4.343  11.794   4.840  0.1999 -1.4946  1.3472
59036SOL     OW82944  10.383   8.122   0.716  0.0133 -0.1815 -0.1526
59036SOL    HW182945  10.415   8.047   0.766  0.9508 -0.2179 -0.7970
59036SOL    HW282946  10.305   8.151   0.765 -0.5538 -1.7434 -0.0697
59037SOL     OW82947  10.133   3.487   4.596  0.2827 -0.3473 -0.3035
59037SOL    HW182948  10.207   3.528   4.640 -0.3771  0.6610 -0.1078
59037SOL    HW282949  10.062   3.490   4.660 -1.0295  2.1512 -1.7051
59038SOL     OW82950   3.589   4.594  11.281 -0.0563 -0.3671 -0.3503
59038SOL    HW182951   3.513   4.547  11.245 -0.6877 -0.1210  0.6238
59038SOL    HW282952   3.634   4.529  11.334 -0.2866 -0.1813  0.0744
59039SOL     OW82953   6.773   4.214   0.026 -0.4609 -0.2047  0.0759
59039SOL    HW182954   6.744   4.304   0.041  1.1252  0.9643 -2.9142
59039SOL    HW282955   6.852   4.205   0.078 -0.0618  0.5243 -0.3891
59040SOL     OW82956   9.702   7.070   5.208 -0.3858  0.1246 -0.6552
59040SOL    HW182957   9.640   7.141   5.229  0.4537  0.4505  0.9084
59040SOL    HW282958   9.788   7.109   5.221  0.0931 -1.1960  0.3246
59041SOL     OW82959   4.897   8.316  10.739  0.1145 -0.1206 -0.1044
59041SOL    HW182960   4.977   8.265  10.731 -1.1477 -2.3308  0.3581
59041SOL    HW282961   4.830   8.251  10.762 -1.7739  1.6519 -0.3233
59042SOL     OW82962   0.189   5.240   4.283  0.3230 -0.3396 -0.4074
59042SOL    HW182963   0.257   5.300   4.314 -0.8555  0.2422  1.1619
59042SOL    HW282964   0.166   5.188   4.360 -0.6015 -0.9130 -1.0578
59043SOL     OW82965   0.329   3.600   9.437  0.4121 -0.6177  0.1176
59043SOL    HW182966   0.240   3.616   9.469  0.4042  0.6438 -0.4803
59043SOL    HW282967   0.385   3.651   9.496  0.6136 -0.2953 -0.3510
59044SOL     OW82968   1.961  11.425   1.889 -0.2033 -0.1792  0.0048
59044SOL    HW182969   2.021  11.452   1.819 -0.6293  0.5772 -0.0828
59044SOL    HW282970   1.926  11.341   1.860  0.2265 -0.2516 -0.3121
59045SOL     OW82971   0.971   8.393   8.809  0.2561 -0.2446  0.4289
59045SOL    HW182972   0.893   8.414   8.860 -0.2417 -2.4992  0.6899
59045SOL    HW282973   1.023   8.337   8.867  0.5918 -1.2970 -0.8493
59046SOL     OW82974   3.831   5.413   2.770  0.1060  0.0985  0.2096
59046SOL    HW182975   3.775   5.342   2.802  0.1307 -0.5230 -1.0726
59046SOL    HW282976   3.769   5.477   2.735  0.0823  0.7518  1.3981
59047SOL     OW82977  11.464  10.333  10.273  0.0793  0.7438  0.4096
59047SOL    HW182978  11.497  10.256  10.321 -0.5627  0.8436  1.0246
59047SOL    HW282979  11.417  10.296  10.199  1.2562  0.5906 -0.2912
59048SOL     OW82980   6.514   6.797   8.504  0.3571 -0.0655  0.2268
59048SOL    HW182981   6.564   6.798   8.586  1.4244 -3.2522 -0.2521
59048SOL    HW282982   6.481   6.708   8.498  1.1213 -0.2332 -3.2721
59049SOL     OW82983   8.519  12.026   8.341  0.4286  0.0324  0.3199
59049SOL    HW182984   8.548  12.071   8.420 -0.4915  0.1400  0.6115
59049SOL    HW282985   8.426  12.011   8.355  0.5163 -1.0828 -0.2061
59050SOL     OW82986   3.088   1.281   6.200 -0.1417 -0.0572 -0.1117
59050SOL    HW182987   3.052   1.280   6.112 -0.2704  0.3310 -0.0662
59050SOL    HW282988   3.155   1.349   6.199 -1.6786  1.5326  0.6689
59051SOL     OW82989   0.034   6.709  12.138 -0.5541 -0.2565 -1.0747
59051SOL    HW182990   0.106   6.656  12.174  0.5680  0.7810 -1.7225
59051SOL    HW282991   0.046   6.703  12.043 -1.5847 -0.3893 -1.2083
59052SOL     OW82992   0.174   7.517   3.732 -0.0719  0.1128  0.4575
59052SOL    HW182993   0.154   7.436   3.685 -1.4181  0.1386  0.9452
59052SOL    HW282994   0.124   7.585   3.686 -1.0108  0.2176  1.5896
59053SOL     OW82995   5.740   3.864  10.554 -0.0720 -0.2483  0.2001
59053SOL    HW182996   5.648   3.842  10.551  0.1297 -0.9561 -1.2037
59053SOL    HW282997   5.786   3.787  10.521  1.1242 -0.3628  1.9677
59054SOL     OW82998   1.165   7.676   4.400  0.3563  0.4604 -0.1621
59054SOL    HW182999   1.192   7.711   4.316  1.2358  0.4735  0.1204
59054SOL    HW283000   1.107   7.743   4.436 -2.4787 -0.8046 -2.0098
59055SOL     OW83001   5.754   8.610  11.739  0.3358  0.1228 -0.0947
59055SOL    HW183002   5.764   8.667  11.815 -1.2867 -0.7920  0.8824
59055SOL    HW283003   5.802   8.531  11.762  1.8671  0.7217 -1.0862
59056SOL     OW83004   8.542   7.958  10.883 -0.3940  0.4373  0.3968
59056SOL    HW183005   8.469   8.017  10.862 -0.1214  0.1971 -1.3734
59056SOL    HW283006   8.502   7.888  10.935 -1.0413  1.2750  1.0636
59057SOL     OW83007   0.433   8.422  10.752 -0.2729 -0.0803 -0.0982
59057SOL    HW183008   0.495   8.364  10.708 -1.0640  0.0002 -1.3788
59057SOL    HW283009   0.376   8.363  10.802 -0.6236 -0.3541 -0.8132
59058SOL     OW83010  10.343  10.355   6.017  0.7043 -0.5036  0.1282
59058SOL    HW183011  10.299  10.273   5.997 -1.3110  0.2030  1.3154
59058SOL    HW283012  10.389  10.338   6.100  1.6753 -0.8757 -0.4694
59059SOL     OW83013   0.250   5.087   0.748 -0.1489  0.4639  0.2456
59059SOL    HW183014   0.176   5.073   0.688 -0.6359 -0.4914  1.0444
59059SOL    HW283015   0.209   5.095   0.834  0.7146 -1.1088  0.8456
59060SOL     OW83016   8.929   7.041   7.652  0.7390 -0.7058 -0.4148
59060SOL    HW183017   8.961   6.982   7.584 -1.0668 -3.1799  0.7121
59060SOL    HW283018   8.962   7.003   7.734 -1.0418 -0.6309  0.3966
59061SOL     OW83019   5.407   6.234  11.804 -0.5976  0.1047 -0.2831
59061SOL    HW183020   5.330   6.264  11.756  0.1489  0.2508 -1.4438
59061SOL    HW283021   5.392   6.261  11.894 -1.4588  0.9848 -0.6752
59062SOL     OW83022  11.914   4.825  11.990 -0.2268 -0.0117  0.1174
59062SOL    HW183023  11.858   4.778  11.928 -1.1336  0.3026  0.6964
59062SOL    HW283024  12.002   4.792  11.971 -0.7000 -1.1025 -0.2548
59063SOL     OW83025   7.712   8.368   5.949  0.3217 -0.5702 -0.2400
59063SOL    HW183026   7.662   8.310   6.006 -1.1320  0.6895 -0.1422
59063SOL    HW283027   7.746   8.436   6.009  0.7333 -0.5031 -0.5484
59064SOL     OW83028  12.150   8.029   1.316  0.1422  0.7329  0.1128
59064SOL    HW183029  12.172   8.047   1.407  1.5906  0.5197 -0.1627
59064SOL    HW283030  12.167   7.935   1.305 -1.3003  0.4655 -0.0558
59065SOL     OW83031   8.620   9.169   9.752  0.4155  0.3897  0.1775
59065SOL    HW183032   8.663   9.155   9.668  2.2834 -0.4715  1.2213
59065SOL    HW283033   8.527   9.156   9.734  0.5872  1.7283 -2.0436
59066SOL     OW83034   4.327   3.028   0.545  0.1261  0.1822 -0.5291
59066SOL    HW183035   4.244   3.052   0.588  0.2291  2.5901 -1.5068
59066SOL    HW283036   4.374   3.111   0.537  2.0600 -0.9326 -1.2310
59067SOL     OW83037   5.744  10.274   6.408  0.1423  0.1355 -0.3435
59067SOL    HW183038   5.802  10.204   6.439 -0.8417 -0.4277  0.2772
59067SOL    HW283039   5.757  10.274   6.313  2.8546  1.5813 -0.0660
59068SOL     OW83040  10.131   0.415   1.200 -0.3416  0.0763 -0.0128
59068SOL    HW183041  10.180   0.420   1.282  0.9007  1.2509 -0.7893
59068SOL    HW283042  10.130   0.322   1.178  1.2725 -0.0210  0.2112
59069SOL     OW83043   2.293   6.884   6.914 -0.0861 -0.1662 -0.5180
59069SOL    HW183044   2.315   6.966   6.957 -1.8557  0.6328 -1.0691
59069SOL    HW283045   2.353   6.879   6.840  1.4588 -0.4609  0.6812
59070SOL     OW83046   5.365   7.582   5.934  0.4373 -0.1044 -0.2072
59070SOL    HW183047   5.338   7.510   5.877 -0.0435  0.5258 -0.7943
59070SOL    HW283048   5.425   7.635   5.881  1.6833 -0.6593  0.5878
59071SOL     OW83049   3.453   1.910   0.256 -0.0711 -0.4342 -0.0552
59071SOL    HW183050   3.492   1.996   0.236  0.6591 -0.7244  0.0902
59071SOL    HW283051   3.421   1.919   0.345  1.2799 -0.7368  0.4913
59072SOL     OW83052   9.790   3.910   2.646 -0.2598 -0.1275  0.2628
59072SOL    HW183053   9.739   3.838   2.681  0.2288 -0.7856 -0.3430
59072SOL    HW283054   9.880   3.889   2.669 -0.1991  0.7472  0.8534
59073SOL     OW83055   1.391   5.053   3.006  0.0029  0.2442  0.1807
59073SOL    HW183056   1.298   5.030   3.008  0.0176 -0.6916 -3.1959
59073SOL    HW283057   1.392   5.148   2.995 -0.6654  0.1318 -1.0739
59074SOL     OW83058  11.959   3.221   6.085 -0.1346  0.0136  0.8477
59074SOL    HW183059  11.935   3.129   6.093 -1.3258  0.1928 -0.2466
59074SOL    HW283060  11.935   3.260   6.169 -0.2535 -0.5582  1.0785
59075SOL     OW83061   4.261   7.928  10.386  0.5652  0.3789 -0.7397
59075SOL    HW183062   4.282   7.967  10.471 -0.9736  1.3941 -0.7774
59075SOL    HW283063   4.340   7.941  10.333  0.8778  1.4825 -0.0420
59076SOL     OW83064   2.854   8.179   4.930 -0.6236 -0.3039  0.1287
59076SOL    HW183065   2.844   8.087   4.954 -1.8268 -0.2079  0.0225
59076SOL    HW283066   2.850   8.179   4.834 -2.2673  0.0167  0.1701
59077SOL     OW83067   6.251   9.758   2.944 -0.3305  0.4204  0.0828
59077SOL    HW183068   6.195   9.744   2.867 -2.1175  1.8962  1.0477
59077SOL    HW283069   6.190   9.771   3.016  1.2903  1.2469  1.3731
59078SOL     OW83070   1.513  11.203   5.745  0.0529  0.4616  0.0396
59078SOL    HW183071   1.578  11.142   5.709 -0.5215  0.3182 -0.7837
59078SOL    HW283072   1.437  11.149   5.763  0.4645  0.4499  1.9245
59079SOL     OW83073   9.048   7.565   5.718 -0.3855 -0.6501 -0.2887
59079SOL    HW183074   9.025   7.503   5.787  1.9802 -0.3654  0.8440
59079SOL    HW283075   8.968   7.575   5.667 -1.0011 -4.2783 -0.2659
59080SOL     OW83076   1.508  11.858   2.494 -0.1793  0.8488  0.3443
59080SOL    HW183077   1.449  11.787   2.521  1.0851 -0.3903 -0.0326
59080SOL    HW283078   1.525  11.841   2.401  0.4143  1.4549  0.3374
59081SOL     OW83079   3.434  11.833   0.362  0.3025  0.2072 -0.8107
59081SOL    HW183080   3.502  11.889   0.324  2.1540 -0.2687  1.5324
59081SOL    HW283081   3.419  11.870   0.449 -0.5136 -1.2659 -0.2886
59082SOL     OW83082  11.532   1.831   8.389  0.1913 -0.7664 -0.5074
59082SOL    HW183083  11.598   1.833   8.319  1.3527  2.3580  0.4982
59082SOL    HW283084  11.455   1.873   8.350  0.8479  1.0013  0.0044
59083SOL     OW83085   5.855   6.849  10.934 -0.2686 -0.2799  0.0617
59083SOL    HW183086   5.763   6.820  10.937 -0.6799  0.8938 -0.5131
59083SOL    HW283087   5.904   6.777  10.973 -1.5150 -0.6160  1.1086
59084SOL     OW83088   6.193   0.267   4.297  0.5388 -0.2722 -0.3746
59084SOL    HW183089   6.280   0.307   4.288 -0.0924  1.1674 -0.3990
59084SOL    HW283090   6.132   0.339   4.280 -0.6705 -1.3661 -0.8091
59085SOL     OW83091   9.979   4.799   5.438  0.1981 -1.0684  0.3861
59085SOL    HW183092   9.985   4.768   5.348  1.1353 -1.4953  0.5864
59085SOL    HW283093  10.068   4.790   5.473  0.1481  0.3229  0.9530
59086SOL     OW83094   3.720   4.424  11.437 -0.0086  0.6801  0.8308
59086SOL    HW183095   3.649   4.417  11.501 -0.3139 -0.1818  0.4165
59086SOL    HW283096   3.800   4.407  11.488 -0.0248  2.2477  1.4152
59087SOL     OW83097   7.976   2.475   4.825  0.5258 -0.2723 -0.0933
59087SOL    HW183098   7.910   2.444   4.762  0.5564  0.1593 -0.3413
59087SOL    HW283099   7.993   2.399   4.881 -0.1448 -0.3987 -0.0558
59088SOL     OW83100  12.113   3.862   1.100  0.0440 -0.1002  0.6149
59088SOL    HW183101  12.159   3.943   1.078 -2.0061  0.7113 -0.9919
59088SOL    HW283102  12.024   3.875   1.069 -0.6815 -2.5324  1.4083
59089SOL     OW83103   9.114   2.243   0.026  0.0790  0.3381  0.6180
59089SOL    HW183104   9.171   2.319   0.038  0.5565  0.4020 -1.5393
59089SOL    HW283105   9.045   2.253   0.091  0.8026  1.9614  1.1825
59090SOL     OW83106   7.842   3.501  10.887  0.2471 -0.3271 -0.1478
59090SOL    HW183107   7.759   3.490  10.841 -0.1073 -1.0133  0.6383
59090SOL    HW283108   7.831   3.453  10.969  1.9330 -1.6817 -0.6469
59091SOL     OW83109   4.165   1.708   1.258  0.1656 -0.2793 -0.5978
59091SOL    HW183110   4.107   1.659   1.199 -0.2774  0.0615 -0.4571
59091SOL    HW283111   4.176   1.651   1.334  1.7187 -1.2514 -1.4899
59092SOL     OW83112   7.783   3.808   9.608 -0.2846  0.1193  0.8551
59092SOL    HW183113   7.861   3.760   9.639  0.0781  0.5200  0.5685
59092SOL    HW283114   7.774   3.880   9.669 -1.3504 -0.7906  1.8105
59093SOL     OW83115   6.142   9.336   3.849  0.3440  0.0087  0.1363
59093SOL    HW183116   6.195   9.406   3.888  1.2018  0.6108 -1.9754
59093SOL    HW283117   6.200   9.260   3.847  0.6876  0.2854 -0.9217
59094SOL     OW83118   2.278   2.088   1.657  0.2066  0.0696 -0.0091
59094SOL    HW183119   2.274   2.074   1.563  2.3457 -0.5904 -0.0700
59094SOL    HW283120   2.343   2.024   1.688  1.1697  1.7001  1.5843
59095SOL     OW83121   0.761   3.393   8.640  0.4884 -0.0396  0.1517
59095SOL    HW183122   0.719   3.382   8.726 -0.2951  0.2726 -0.1778
59095SOL    HW283123   0.763   3.487   8.626 -0.7620 -0.1170 -0.8054
59096SOL     OW83124   4.471  10.429   8.883 -0.7241  0.0284  0.1027
59096SOL    HW183125   4.438  10.516   8.906 -0.9176 -0.1978  0.6960
59096SOL    HW283126   4.392  10.378   8.864 -0.5235  0.6503 -2.7695
59097SOL     OW83127   9.819   0.308   6.513 -0.3871 -0.3012  0.3827
59097SOL    HW183128   9.737   0.260   6.502 -0.0008 -1.2395  1.4117
59097SOL    HW283129   9.884   0.240   6.529  0.2994  0.5343  1.2381
59098SOL     OW83130  10.664   1.540   6.538 -0.3958 -0.6956 -0.0142
59098SOL    HW183131  10.729   1.512   6.602 -0.3360  0.4212  0.4334
59098SOL    HW283132  10.706   1.528   6.453  0.5537  0.3536  0.2823
59099SOL     OW83133   3.299  10.795   6.486 -0.2317 -0.0804  0.0372
59099SOL    HW183134   3.360  10.864   6.462 -0.1511  0.6752  2.2107
59099SOL    HW283135   3.213  10.835   6.479 -0.5930 -1.1414 -3.0167
59100SOL     OW83136   6.000   7.424   8.627  0.4452  0.1607  0.0310
59100SOL    HW183137   5.992   7.517   8.608  0.5945  0.3205  0.7281
59100SOL    HW283138   6.093   7.412   8.648  0.5345 -0.2470 -0.5795
59101SOL     OW83139   0.607  10.917   4.312 -0.1809 -0.0394  0.5464
59101SOL    HW183140   0.675  10.948   4.371  0.3626 -1.8448  0.9138
59101SOL    HW283141   0.547  10.867   4.368 -1.7144  1.3037  0.1862
59102SOL     OW83142   5.584   0.763   1.429  0.0462 -0.1037  0.0142
59102SOL    HW183143   5.665   0.719   1.407 -0.0934 -2.3128  3.1813
59102SOL    HW283144   5.516   0.716   1.380  0.5275  1.6521 -2.5166
59103SOL     OW83145   7.341   9.918  12.013  0.4570  0.2070  0.6010
59103SOL    HW183146   7.373   9.907  11.924 -0.2323  1.9268  0.1057
59103SOL    HW283147   7.249   9.942  12.003  0.4455  0.7205  1.7609
59104SOL     OW83148  11.346   4.754   4.564  0.1200  0.0168 -0.1942
59104SOL    HW183149  11.273   4.812   4.587  0.3142  0.1901 -0.0157
59104SOL    HW283150  11.423   4.811   4.565  0.0335  0.2743 -2.2206
59105SOL     OW83151  10.172  11.198   2.796  0.0718  0.0097  0.0126
59105SOL    HW183152  10.177  11.176   2.889  1.3770 -1.0969 -0.2811
59105SOL    HW283153  10.246  11.257   2.782  0.9253 -1.1782 -0.6369
59106SOL     OW83154   9.377   1.219   1.291  1.0130  0.0037 -0.1235
59106SOL    HW183155   9.369   1.139   1.342 -0.8002 -0.1370 -0.5467
59106SOL    HW283156   9.290   1.259   1.296  1.6116  1.4716 -0.7044
59107SOL     OW83157   5.199   1.622   4.438 -0.2691  0.1915  0.7821
59107SOL    HW183158   5.228   1.653   4.524 -2.7150  0.5962  1.5486
59107SOL    HW283159   5.190   1.701   4.385 -0.7093  0.1697  0.8180
59108SOL     OW83160  11.684   4.269   2.936 -0.5249  0.3825 -0.6441
59108SOL    HW183161  11.678   4.175   2.954 -0.0038  0.4960  0.1742
59108SOL    HW283162  11.778   4.287   2.934 -0.6263  1.0264  0.0267
59109SOL     OW83163   7.273   8.828  10.886 -0.5315 -0.0704  0.3416
59109SOL    HW183164   7.297   8.890  10.955 -1.7856 -1.2240  1.9112
59109SOL    HW283165   7.351   8.776  10.871 -0.0574  0.6074  0.4340
59110SOL     OW83166   5.263   6.171   8.756 -0.4717 -0.5255 -0.1498
59110SOL    HW183167   5.293   6.091   8.713  0.1655  0.3472 -1.3841
59110SOL    HW283168   5.301   6.242   8.704 -2.1087  0.6015  0.1189
59111SOL     OW83169   6.161   1.751  10.968 -0.9726  0.6548 -0.0071
59111SOL    HW183170   6.104   1.769  11.043 -0.9234 -0.0861  0.2113
59111SOL    HW283171   6.182   1.659  10.976 -0.7167  0.6459 -0.7685
59112SOL     OW83172   5.928   5.984   0.346  0.2948  0.3397 -0.4328
59112SOL    HW183173   5.939   6.035   0.427 -0.1309 -2.2705  1.4189
59112SOL    HW283174   5.865   6.034   0.294 -0.9774  1.1645  1.7632
59113SOL     OW83175   0.500   9.953   6.072  0.1223 -0.1151  0.3862
59113SOL    HW183176   0.409   9.963   6.043 -0.0086 -0.7199  0.5869
59113SOL    HW283177   0.514  10.028   6.130  0.3645  1.0766 -1.1589
59114SOL     OW83178   9.261   1.490   6.059 -0.7429 -0.0201 -0.2920
59114SOL    HW183179   9.284   1.478   5.966  0.1176 -0.0785 -0.0762
59114SOL    HW283180   9.200   1.564   6.059  0.2172  0.7822 -0.7752
59115SOL     OW83181   4.592  11.352   3.526 -0.3971  0.6219  0.6351
59115SOL    HW183182   4.672  11.385   3.566 -0.4845  1.2579  0.3015
59115SOL    HW283183   4.581  11.265   3.563 -0.4910  1.1917  2.0181
59116SOL     OW83184   5.598   5.222   2.813 -0.0069  0.4559  0.0672
59116SOL    HW183185   5.660   5.295   2.807 -1.1975  1.6430  1.4221
59116SOL    HW283186   5.621   5.166   2.739  2.3497  1.0722  0.2387
59117SOL     OW83187   0.537   8.082  10.283  0.7546 -0.4756  0.5716
59117SOL    HW183188   0.482   8.028  10.339 -1.5973 -0.3273 -1.4330
59117SOL    HW283189   0.503   8.171  10.294  0.3597 -0.4221 -0.9014
59118SOL     OW83190  11.547   0.127   0.014  0.1214  0.2788 -0.1430
59118SOL    HW183191  11.577   0.065   0.081  1.1038  0.0640 -0.7708
59118SOL    HW283192  11.542   0.211   0.061  1.6431  0.3134  0.0335
59119SOL     OW83193   9.464   7.271   1.760  0.0091  0.0491 -0.1133
59119SOL    HW183194   9.418   7.355   1.749  1.1365  1.0871  2.3584
59119SOL    HW283195   9.539   7.278   1.701 -0.0756  0.6617 -0.1577
59120SOL     OW83196   8.902   2.427   2.138  0.1021 -0.4795 -0.3065
59120SOL    HW183197   8.926   2.511   2.098  1.8359 -2.1367 -3.0918
59120SOL    HW283198   8.806   2.428   2.139  0.0496  2.1597  1.3931
59121SOL     OW83199  12.152   1.107   1.491  0.0378 -0.3519  0.1781
59121SOL    HW183200  12.093   1.170   1.449 -0.6412 -0.6320  0.6817
59121SOL    HW283201  12.142   1.124   1.585  1.2829  0.0396  0.2572
59122SOL     OW83202   1.261  10.662   1.765  0.0215  0.0105 -0.5550
59122SOL    HW183203   1.281  10.618   1.847 -1.9067  2.5518  1.4674
59122SOL    HW283204   1.172  10.634   1.744 -0.8544  1.9939  0.2371
59123SOL     OW83205   4.285   4.852   9.957 -0.0204 -0.3460  0.3236
59123SOL    HW183206   4.330   4.924   9.912 -0.2570 -0.6919 -0.4657
59123SOL    HW283207   4.268   4.887  10.045  1.7816 -0.1909  0.6681
59124SOL     OW83208   2.130   7.630   0.301  0.7133  0.3506 -0.0743
59124SOL    HW183209   2.086   7.710   0.330  1.4967 -0.0057  2.3344
59124SOL    HW283210   2.071   7.559   0.328  1.3861  0.0047  0.5238
59125SOL     OW83211   2.891   1.558   0.939  0.6148  0.3077 -0.1994
59125SOL    HW183212   2.898   1.623   1.008  1.6124  0.3445 -0.3257
59125SOL    HW283213   2.819   1.589   0.884 -0.4764  0.0568  1.0360
59126SOL     OW83214   8.017   8.216   6.553 -0.2421 -0.2016  0.2227
59126SOL    HW183215   8.014   8.291   6.612 -0.5380 -0.0775  0.0560
59126SOL    HW283216   7.925   8.191   6.543 -0.2429  0.1064 -0.5943
59127SOL     OW83217   8.100  11.379   5.452  0.3279  0.5127 -0.0288
59127SOL    HW183218   8.128  11.419   5.370  1.0723 -0.0316 -0.0557
59127SOL    HW283219   8.026  11.323   5.428  1.1358 -0.3740 -0.5109
59128SOL     OW83220  11.968   3.549   8.326  0.1824  0.2013  0.3414
59128SOL    HW183221  11.958   3.644   8.339  0.4111  0.0582  1.7951
59128SOL    HW283222  12.002   3.540   8.238  0.5183  1.5045  0.3183
59129SOL     OW83223   4.641  11.416  10.147 -0.1318  0.1150  0.1556
59129SOL    HW183224   4.623  11.383  10.059  1.0665 -0.0516 -0.0456
59129SOL    HW283225   4.713  11.477  10.135  0.2012 -0.0914  1.0550
59130SOL     OW83226   9.639   7.923   2.955  0.5994  0.1120  0.1742
59130SOL    HW183227   9.703   7.969   3.008  1.7140 -1.6371  0.4328
59130SOL    HW283228   9.688   7.851   2.915 -1.1207 -1.1176  0.1514
59131SOL     OW83229  10.269   9.289   7.876  0.5795  0.2271  0.6036
59131SOL    HW183230  10.345   9.301   7.819  0.0782 -0.6339 -0.2576
59131SOL    HW283231  10.260   9.194   7.886 -0.0332  0.3355  1.1872
59132SOL     OW83232   9.090   7.181  10.415  0.0764 -0.0575 -0.2495
59132SOL    HW183233   9.099   7.255  10.355 -1.6541 -0.1385 -0.6805
59132SOL    HW283234   9.058   7.221  10.496  0.1295 -0.2150 -0.1514
59133SOL     OW83235   0.360   3.943   3.851  0.1254 -0.4045 -0.1530
59133SOL    HW183236   0.419   3.906   3.786 -1.4545 -1.6129 -0.9446
59133SOL    HW283237   0.295   3.875   3.867 -2.7129  1.7945 -1.3983
59134SOL     OW83238   7.568  11.032   3.171  0.5305 -0.0303 -0.2529
59134SOL    HW183239   7.583  11.114   3.123 -2.0234  0.1901 -0.8334
59134SOL    HW283240   7.521  11.060   3.249 -0.3772 -0.9351 -0.4641
59135SOL     OW83241  10.469  10.153   9.802  0.1984 -0.5625  0.0402
59135SOL    HW183242  10.422  10.182   9.880 -0.0361 -1.4702  0.2554
59135SOL    HW283243  10.407  10.095   9.757  0.6188 -0.6884 -0.3898
59136SOL     OW83244   9.169   4.470   2.714 -0.5421  0.1288 -0.5445
59136SOL    HW183245   9.168   4.375   2.725  0.0687  0.0968 -0.7267
59136SOL    HW283246   9.240   4.486   2.652 -0.4955  0.7218 -0.3421
59137SOL     OW83247   5.945   5.277   8.958  0.2639 -0.3724 -0.1967
59137SOL    HW183248   5.966   5.359   8.914  0.6169 -0.3135  0.0778
59137SOL    HW283249   5.957   5.210   8.890 -0.2593 -0.1778 -0.4864
59138SOL     OW83250  10.933   0.169   1.308 -0.5318 -0.3898 -0.0925
59138SOL    HW183251  10.865   0.154   1.374 -0.4721  0.1642  0.0995
59138SOL    HW283252  10.942   0.265   1.304 -1.0589 -0.3708 -1.4370
59139SOL     OW83253  10.922   9.775   4.230  0.1336  0.5643 -0.5222
59139SOL    HW183254  10.904   9.764   4.137  1.4730 -0.4313 -0.6982
59139SOL    HW283255  11.017   9.792   4.234  0.6327 -2.0710  0.8025
59140SOL     OW83256   2.053   7.344   8.106  0.3696 -0.0781  0.7094
59140SOL    HW183257   2.107   7.297   8.169 -0.4460 -1.0981  0.6685
59140SOL    HW283258   2.114   7.369   8.037  0.9622 -0.4028  1.1071
59141SOL     OW83259   7.283   4.418   0.497 -0.4987 -0.2123 -0.0017
59141SOL    HW183260   7.189   4.410   0.477 -0.5303  1.5131 -0.7122
59141SOL    HW283261   7.312   4.492   0.443  1.6424 -1.7123 -1.0356
59142SOL     OW83262   0.034  10.318   1.717  0.6046 -0.4202  0.5232
59142SOL    HW183263  -0.061  10.333   1.714  0.4142 -1.6893 -0.7303
59142SOL    HW283264   0.052  10.296   1.808 -0.3338 -0.3641  0.7291
59143SOL     OW83265   0.180   4.371   1.637  0.0180  0.0084 -0.0500
59143SOL    HW183266   0.088   4.346   1.635  0.5464 -2.1269 -0.0366
59143SOL    HW283267   0.189   4.436   1.567 -1.4896  0.3221  0.0114
59144SOL     OW83268   3.693   0.274   2.801 -0.0502 -0.3939 -0.4447
59144SOL    HW183269   3.685   0.334   2.876  0.0405 -1.1208  0.1552
59144SOL    HW283270   3.604   0.242   2.786  0.0743 -0.9107 -0.0924
59145SOL     OW83271   0.426   0.890   8.332 -0.0016 -0.2054  0.1136
59145SOL    HW183272   0.481   0.935   8.268 -0.0311  0.2374  0.3940
59145SOL    HW283273   0.353   0.854   8.281 -0.5545  0.9994  0.0432
59146SOL     OW83274   6.730  11.193   7.974 -0.0533  0.3212  0.3367
59146SOL    HW183275   6.638  11.196   7.946 -0.1308 -0.1920  0.5205
59146SOL    HW283276   6.753  11.284   7.991 -0.9431  0.3442  1.5906
59147SOL     OW83277   4.862   2.156  10.942  0.0758 -0.7091 -0.5933
59147SOL    HW183278   4.910   2.197  11.013 -0.1299 -0.3748 -0.6494
59147SOL    HW283279   4.864   2.220  10.871  2.0796 -1.8427 -1.6447
59148SOL     OW83280   8.533   9.751   5.514  0.4044 -0.3284 -0.1551
59148SOL    HW183281   8.566   9.790   5.595 -0.3168  0.2254 -0.1175
59148SOL    HW283282   8.611   9.718   5.470  1.2149  2.0408 -0.6470
59149SOL     OW83283   0.811   2.853   2.261  0.5276  0.3728 -0.7799
59149SOL    HW183284   0.809   2.764   2.296 -0.2198  0.2271 -1.1714
59149SOL    HW283285   0.821   2.909   2.338 -2.6412  0.1581 -0.1001
59150SOL     OW83286   4.659  10.026   1.387  0.2749  0.1345  0.2670
59150SOL    HW183287   4.734   9.971   1.365 -0.7768 -1.1606 -0.2158
59150SOL    HW283288   4.587   9.965   1.401 -1.3846  1.4092 -1.9945
59151SOL     OW83289   3.832   2.803  11.526 -0.3005 -0.2061  0.5452
59151SOL    HW183290   3.824   2.745  11.602  0.3343 -1.7617 -0.5163
59151SOL    HW283291   3.744   2.803  11.487 -0.3780 -0.2144  0.7199
59152SOL     OW83292   8.637   2.679   6.179  0.3987 -0.1065 -0.2368
59152SOL    HW183293   8.608   2.701   6.267 -1.3679 -1.6977 -0.3504
59152SOL    HW283294   8.599   2.746   6.122  0.1404 -0.0227  0.0380
59153SOL     OW83295   4.079   3.734   1.366 -0.2273  0.0070  0.3780
59153SOL    HW183296   4.027   3.805   1.327 -0.8003 -0.7421 -0.2521
59153SOL    HW283297   4.055   3.735   1.459  0.7825  1.4918  0.6491
59154SOL     OW83298   8.339   9.984   7.604 -0.1056 -0.4359 -0.6264
59154SOL    HW183299   8.395   9.907   7.598 -0.3605 -0.6740 -0.0862
59154SOL    HW283300   8.252   9.952   7.579 -0.2571 -0.3830 -0.1791
59155SOL     OW83301   3.961   3.714   2.490  0.4189  0.2587 -0.1412
59155SOL    HW183302   4.036   3.751   2.537  1.5710 -1.1182 -0.8319
59155SOL    HW283303   3.955   3.624   2.521  1.0008 -0.5870 -2.3431
59156SOL     OW83304   9.320   1.361   1.738  0.3824  0.3630  0.1172
59156SOL    HW183305   9.355   1.446   1.768  3.7404 -0.1759 -1.7822
59156SOL    HW283306   9.248   1.385   1.680  0.7970  1.8947  0.1696
59157SOL     OW83307  10.065  11.081   8.329 -0.3355 -0.2705  0.6054
59157SOL    HW183308   9.994  11.019   8.312  0.5653 -1.8252  2.0937
59157SOL    HW283309  10.027  11.167   8.314 -1.5590 -1.1555 -1.8533
59158SOL     OW83310   5.446   5.966   0.323  0.3176 -0.6270 -0.0457
59158SOL    HW183311   5.361   5.942   0.289  0.0555  0.7213 -0.4186
59158SOL    HW283312   5.482   6.026   0.258  1.1858 -0.5240  0.5085
59159SOL     OW83313   7.662   8.338  11.206 -0.0400  0.5270 -0.3980
59159SOL    HW183314   7.568   8.321  11.191  0.2341 -1.0085 -0.6109
59159SOL    HW283315   7.694   8.372  11.123 -0.1015 -0.5526 -0.8923
59160SOL     OW83316   6.377   1.292   8.909  0.0323  0.4816  0.3281
59160SOL    HW183317   6.468   1.269   8.888 -0.5170 -2.3088  0.5742
59160SOL    HW283318   6.382   1.329   8.997  0.9447  0.1508  0.4327
59161SOL     OW83319   5.369  10.312  12.163  0.1462 -0.2256  0.3850
59161SOL    HW183320   5.357  10.402  12.194 -0.5886 -0.2049  0.0691
59161SOL    HW283321   5.376  10.319  12.068 -3.3936 -0.7336 -0.0715
59162SOL     OW83322   3.511  10.898   8.064 -0.6109  0.5491  0.4451
59162SOL    HW183323   3.597  10.867   8.035 -1.5717 -0.6959 -1.2745
59162SOL    HW283324   3.526  10.987   8.094  1.1571  0.5990 -0.4893
59163SOL     OW83325   7.288   3.802   0.199  0.6728  0.7345  0.1623
59163SOL    HW183326   7.277   3.777   0.291 -0.5097  2.5294  0.5760
59163SOL    HW283327   7.364   3.753   0.169  2.6297  1.9118  2.8252
59164SOL     OW83328   3.021   8.951   4.563 -0.2290  0.8348  0.1987
59164SOL    HW183329   3.051   9.035   4.528 -0.5418  0.6271 -0.5800
59164SOL    HW283330   2.971   8.912   4.492 -0.4409  0.1712  0.7044
59165SOL     OW83331   6.372   8.402   5.254  0.6875  0.0642  0.4064
59165SOL    HW183332   6.438   8.338   5.279 -0.0207 -0.4889  0.9226
59165SOL    HW283333   6.289   8.356   5.264  0.2628  0.2650 -1.6297
59166SOL     OW83334  11.743   8.935  11.003 -0.4658 -0.1438 -0.0083
59166SOL    HW183335  11.752   9.030  11.001  2.9510 -0.3599 -0.1721
59166SOL    HW283336  11.789   8.907  11.082 -0.6883 -1.7066 -0.3900
59167SOL     OW83337   1.901   6.217   6.512  0.0190 -0.5256  0.2661
59167SOL    HW183338   1.874   6.307   6.494  0.5047 -0.5501 -0.6828
59167SOL    HW283339   1.883   6.204   6.605 -1.0607  0.1954  0.1740
59168SOL     OW83340   6.710   9.240   1.420 -0.2594  0.0433 -0.6979
59168SOL    HW183341   6.805   9.235   1.432 -0.1612 -1.2845 -1.8299
59168SOL    HW283342   6.694   9.193   1.338 -2.1640 -1.9951  0.7506
59169SOL     OW83343   9.341   7.308   0.661 -0.1667  0.3649 -0.4079
59169SOL    HW183344   9.252   7.302   0.626  0.4212 -1.1266 -1.7919
59169SOL    HW283345   9.395   7.336   0.586  0.5648  1.1367  0.3775
59170SOL     OW83346   7.544   9.666   0.378  0.2822 -0.2741 -0.4466
59170SOL    HW183347   7.578   9.641   0.464  1.8379 -1.2283 -1.2923
59170SOL    HW283348   7.493   9.590   0.350 -1.9174  0.7752  0.3956
59171SOL     OW83349   8.689   6.584   1.137 -0.1100 -0.0103  0.2611
59171SOL    HW183350   8.769   6.544   1.171  1.0333  1.2576 -0.8235
59171SOL    HW283351   8.674   6.540   1.054 -0.4286 -0.0970  0.3643
59172SOL     OW83352   7.598   9.593   9.947 -0.2124 -0.1445 -1.1095
59172SOL    HW183353   7.598   9.499   9.932  0.7353 -0.8031  2.1135
59172SOL    HW283354   7.505   9.617   9.947 -0.5831 -1.4655 -0.2510
59173SOL     OW83355   1.401   9.160   4.760  0.4623 -0.1441  0.0248
59173SOL    HW183356   1.490   9.177   4.732  0.3981 -0.2500 -0.2411
59173SOL    HW283357   1.358   9.245   4.755  0.2740 -0.2802 -0.8338
59174SOL     OW83358   4.058   1.902   2.505 -0.5163 -0.3569 -0.6485
59174SOL    HW183359   4.034   1.891   2.413  0.5576 -1.2270 -0.8516
59174SOL    HW283360   4.049   1.814   2.543 -0.3771 -0.1261 -0.0664
59175SOL     OW83361   0.012   2.633   4.336  0.3565 -0.5150 -1.4688
59175SOL    HW183362   0.005   2.727   4.352 -1.0691 -0.2723 -3.1592
59175SOL    HW283363   0.100   2.621   4.300  1.3486 -0.2068  0.7107
59176SOL     OW83364  10.903   4.104   3.608 -0.2392 -0.2703  0.0546
59176SOL    HW183365  10.920   4.064   3.523 -0.7922  0.5094 -0.4279
59176SOL    HW283366  10.863   4.033   3.659 -3.5154  0.2393 -1.5787
59177SOL     OW83367   4.450  12.019   9.659 -0.1029 -0.1340 -0.5009
59177SOL    HW183368   4.452  12.105   9.702 -0.0757  0.1417 -1.0499
59177SOL    HW283369   4.376  11.974   9.700  0.7522 -0.3964  0.8249
59178SOL     OW83370   9.756   3.138   4.739  0.0976 -0.0721  0.6675
59178SOL    HW183371   9.771   3.196   4.814 -1.4829 -1.1688  1.9089
59178SOL    HW283372   9.744   3.198   4.665 -0.0768  1.1366  1.6337
59179SOL     OW83373   3.160   4.505   9.446  0.4767  0.0179  0.1926
59179SOL    HW183374   3.075   4.494   9.488  0.4033  1.1972  0.3772
59179SOL    HW283375   3.213   4.432   9.479 -0.7674 -1.3884 -0.7864
59180SOL     OW83376   0.882   8.046   3.656 -0.2339 -0.6298  0.1988
59180SOL    HW183377   0.797   8.087   3.638 -0.4559 -1.6710 -1.3153
59180SOL    HW283378   0.885   8.039   3.752 -1.9171 -0.6772  0.2885
59181SOL     OW83379   7.666   0.049  10.534 -0.0346  0.2429  0.6967
59181SOL    HW183380   7.651   0.124  10.477 -0.7801 -0.3117  0.1561
59181SOL    HW283381   7.750   0.014  10.505 -0.6308 -0.3178 -0.3927
59182SOL     OW83382   8.787  12.033   9.603  0.1285 -0.1587 -0.6874
59182SOL    HW183383   8.698  12.061   9.581  0.2950  1.9087  1.0139
59182SOL    HW283384   8.780  12.000   9.692  0.7915 -1.5833 -1.1420
59183SOL     OW83385   8.559   0.183   6.201 -0.0869  0.1711 -0.2611
59183SOL    HW183386   8.556   0.165   6.296 -0.2981  4.0987  0.6286
59183SOL    HW283387   8.472   0.218   6.181 -0.0277 -0.5755 -1.9439
59184SOL     OW83388   0.613   9.289   6.234  0.2244 -0.3267 -0.5558
59184SOL    HW183389   0.695   9.241   6.246 -1.0373 -2.4107  0.4344
59184SOL    HW283390   0.548   9.221   6.216 -0.9556  1.4129 -3.6511
59185SOL     OW83391   8.223   7.842  12.189  0.1239 -0.1558 -0.1976
59185SOL    HW183392   8.310   7.812  12.165  0.4578  0.9333 -0.3850
59185SOL    HW283393   8.202   7.910  12.125 -1.5682 -1.5515 -1.2097
59186SOL     OW83394   7.375   2.480   4.044 -0.1798  0.3478  0.2427
59186SOL    HW183395   7.318   2.539   4.093 -2.9281 -1.6918 -0.2412
59186SOL    HW283396   7.351   2.392   4.075  3.1867 -0.6605  0.3942
59187SOL     OW83397   1.852   0.413   8.213 -0.4675  0.5676 -0.1907
59187SOL    HW183398   1.903   0.393   8.291 -0.2679 -3.3930 -1.1365
59187SOL    HW283399   1.765   0.376   8.231 -0.5679  0.0662 -1.5715
59188SOL     OW83400   8.183   2.920   3.597  0.6448 -0.3658 -0.0129
59188SOL    HW183401   8.226   2.957   3.521 -0.4917  0.5254 -0.2401
59188SOL    HW283402   8.097   2.962   3.600 -0.0668 -1.7813  0.6644
59189SOL     OW83403   0.530  11.674  11.170  0.2652 -0.2315  0.0389
59189SOL    HW183404   0.508  11.624  11.091 -3.2236  0.1959  0.6018
59189SOL    HW283405   0.484  11.757  11.159  0.2531  0.0969  2.2275
59190SOL     OW83406   2.837   6.308  11.355  0.1813  0.0292  0.4805
59190SOL    HW183407   2.823   6.219  11.386  0.3898  0.1762  1.0286
59190SOL    HW283408   2.932   6.315  11.346  0.1257  0.0025 -0.1736
59191SOL     OW83409   3.028   9.779   4.876 -0.1245  0.3070  0.0671
59191SOL    HW183410   3.094   9.772   4.945 -1.0317  0.1987  0.9439
59191SOL    HW283411   2.960   9.834   4.913 -0.9389 -0.3008 -0.4950
59192SOL     OW83412   8.747   7.848   8.616 -0.9596 -0.1853 -0.4698
59192SOL    HW183413   8.747   7.928   8.564 -1.2995  0.4164  0.4466
59192SOL    HW283414   8.707   7.873   8.699 -0.4865 -1.1528  0.0600
59193SOL     OW83415  10.508   2.892   7.191  0.3558 -0.1918  0.0381
59193SOL    HW183416  10.425   2.857   7.159 -0.7522  0.3466  2.1121
59193SOL    HW283417  10.570   2.819   7.184 -0.7131 -1.1217  0.0277
59194SOL     OW83418   4.406   9.644   3.642  0.3651 -0.1217 -0.3818
59194SOL    HW183419   4.376   9.699   3.569 -2.1521 -2.3048 -1.1673
59194SOL    HW283420   4.466   9.581   3.603  1.1669  0.3877  0.0029
59195SOL     OW83421   1.062   0.179   3.959  0.3356 -0.2125  0.4234
59195SOL    HW183422   1.044   0.133   4.041  0.0726  1.8498  1.5810
59195SOL    HW283423   0.996   0.248   3.955  0.2321 -0.3595 -1.6410
59196SOL     OW83424  11.509   3.242   1.064 -0.0340 -0.9138 -0.5717
59196SOL    HW183425  11.566   3.249   1.140  1.0475 -2.9205 -1.1308
59196SOL    HW283426  11.569   3.236   0.990 -1.0183  3.3271 -1.9879
59197SOL     OW83427   3.404   9.122   8.220 -0.1115 -0.1948 -0.4648
59197SOL    HW183428   3.315   9.087   8.229  0.2448 -0.9628  0.1787
59197SOL    HW283429   3.410   9.190   8.288 -0.0037 -0.5791 -0.0858
59198SOL     OW83430  10.516   1.012   8.352  0.2580  0.3639 -0.2312
59198SOL    HW183431  10.494   1.105   8.358 -0.8434  0.0755  0.6760
59198SOL    HW283432  10.434   0.970   8.327  0.2149 -0.5666  1.3725
59199SOL     OW83433   5.302   1.766   8.563  0.6337  0.3972  0.2874
59199SOL    HW183434   5.366   1.709   8.604  1.1721  1.1027  0.4409
59199SOL    HW283435   5.343   1.852   8.563  0.5014  0.4944 -1.3969
59200SOL     OW83436   5.388   7.057   4.661  0.1434  0.2448 -0.1421
59200SOL    HW183437   5.414   7.148   4.671 -0.5012  0.5737 -1.3031
59200SOL    HW283438   5.388   7.042   4.567  0.0979 -0.9172  0.0279
59201SOL     OW83439   5.455   3.981   7.096 -0.0280  0.2777  0.4053
59201SOL    HW183440   5.464   3.938   7.011 -1.8214  0.2781  0.1823
59201SOL    HW283441   5.515   3.932   7.153 -0.4552 -1.1920 -0.3394
59202SOL     OW83442   0.965   8.330   3.308 -0.3120 -0.5801  0.1175
59202SOL    HW183443   1.019   8.272   3.362  0.2782  0.0112  0.1692
59202SOL    HW283444   0.985   8.418   3.340 -2.7856 -0.4406  1.4963
59203SOL     OW83445  10.688   6.291   6.926 -0.5487 -0.5702 -0.6639
59203SOL    HW183446  10.647   6.327   6.848 -0.3591  0.0802 -0.4714
59203SOL    HW283447  10.722   6.367   6.973  0.6388 -1.0638 -0.6817
59204SOL     OW83448   5.418  10.639   1.471 -0.0344 -0.7268  0.5473
59204SOL    HW183449   5.389  10.569   1.413  1.1135 -1.3839  0.7283
59204SOL    HW283450   5.443  10.594   1.552 -0.2682  0.0181  1.0391
59205SOL     OW83451   8.999   7.181   6.072  0.1573  0.7073  0.0771
59205SOL    HW183452   9.089   7.209   6.056  0.2607  0.6357  0.5326
59205SOL    HW283453   9.003   7.135   6.156 -0.1281 -0.1251 -0.3585
59206SOL     OW83454   7.188   9.612   4.930  0.3197 -0.0291 -0.3707
59206SOL    HW183455   7.226   9.650   5.009  0.1656 -0.3695 -0.1313
59206SOL    HW283456   7.235   9.654   4.858  1.5115 -0.8411 -0.0783
59207SOL     OW83457   6.486   2.918   1.864  0.4356 -0.3548 -0.8029
59207SOL    HW183458   6.580   2.907   1.879 -0.0912 -1.6475  2.2705
59207SOL    HW283459   6.459   2.838   1.819  0.3629 -1.4029  1.0322
59208SOL     OW83460   1.587   3.065  12.265  0.0338 -0.4129  0.3477
59208SOL    HW183461   1.572   2.977  12.231 -0.3489 -0.2579  0.1077
59208SOL    HW283462   1.679   3.084  12.244  0.7671 -1.5643  2.2678
59209SOL     OW83463   4.043   7.229   9.952  0.3148 -0.0770  0.0681
59209SOL    HW183464   4.004   7.283   9.883  0.2134  2.6950  2.1242
59209SOL    HW283465   3.989   7.149   9.954 -0.6920  0.5050 -1.9081
59210SOL     OW83466  10.916   3.704   3.571  0.5456  0.0554 -0.0068
59210SOL    HW183467  10.909   3.761   3.494  0.8979  0.2328  0.0904
59210SOL    HW283468  10.890   3.761   3.644  1.5128  0.2799  0.1707
59211SOL     OW83469   3.678   3.631   2.418 -0.5686  0.5494  0.0104
59211SOL    HW183470   3.750   3.690   2.439 -0.4884  0.2249  0.6857
59211SOL    HW283471   3.608   3.688   2.386 -0.4214  0.9917  0.4719
59212SOL     OW83472  11.065   9.590  11.705 -0.1122 -0.1519  0.0497
59212SOL    HW183473  11.090   9.679  11.679 -0.1785  0.4047  1.8011
59212SOL    HW283474  10.969   9.592  11.703 -0.1076 -0.3846 -0.5266
59213SOL     OW83475   8.703   8.915   4.629  0.2504  0.1318  0.3720
59213SOL    HW183476   8.695   8.833   4.581 -2.2110  1.2655 -1.3697
59213SOL    HW283477   8.659   8.899   4.712 -0.6351 -0.1907 -0.1540
59214SOL     OW83478   2.850   4.369   4.738 -0.7363  0.0697  0.3967
59214SOL    HW183479   2.776   4.423   4.714 -1.6035 -1.0054  0.5626
59214SOL    HW283480   2.882   4.333   4.655  0.5722  1.6935  0.1469
59215SOL     OW83481   0.874   4.544  10.490  0.1880 -0.1380  0.2856
59215SOL    HW183482   0.893   4.458  10.450 -1.0769 -0.6984  0.8235
59215SOL    HW283483   0.784   4.563  10.462  0.3077  0.8086  0.5368
59216SOL     OW83484   7.758   6.996  10.511  0.2214  0.0133 -0.6630
59216SOL    HW183485   7.811   6.979  10.589 -0.8410 -2.3988 -0.3415
59216SOL    HW283486   7.688   7.053  10.542  0.8534  0.6138 -0.3177
59217SOL     OW83487   1.499   1.678   7.604 -0.0518  0.2297  0.5072
59217SOL    HW183488   1.526   1.650   7.516  1.4649 -1.1446  1.3661
59217SOL    HW283489   1.570   1.735   7.634 -1.3010  1.9845  0.2905
59218SOL     OW83490   3.504   7.410  11.032 -0.1843 -0.3648  0.3135
59218SOL    HW183491   3.548   7.408  10.947  2.3150  0.1286  1.4863
59218SOL    HW283492   3.436   7.477  11.023  1.1843  0.9245 -0.8195
59219SOL     OW83493   4.939   8.912   8.706  0.1695  0.1503 -0.0905
59219SOL    HW183494   4.972   8.963   8.780 -0.7264 -0.2614  0.6233
59219SOL    HW283495   4.864   8.963   8.674 -0.8342 -0.7471  0.7340
59220SOL     OW83496   7.421  10.945   2.282  0.1458  0.1137  0.3104
59220SOL    HW183497   7.406  10.885   2.208 -0.2385  2.8914 -2.0485
59220SOL    HW283498   7.333  10.965   2.314  0.1419  0.6980 -0.0498
59221SOL     OW83499   2.365   2.671  12.009 -0.3898 -0.2526  0.0911
59221SOL    HW183500   2.457   2.669  11.981 -0.8437 -0.5543 -1.4904
59221SOL    HW283501   2.367   2.638  12.099  0.8679 -2.1297 -0.5534
59222SOL     OW83502   6.895   9.830   4.744  0.3902  0.1552  0.1754
59222SOL    HW183503   6.858   9.742   4.738 -0.5725  0.5723 -0.4021
59222SOL    HW283504   6.901   9.847   4.838  3.7744 -1.7522  0.4690
59223SOL     OW83505   9.521   8.351   6.739 -0.5546  0.4553  0.0708
59223SOL    HW183506   9.493   8.410   6.809  2.8411  1.2466  0.9370
59223SOL    HW283507   9.593   8.302   6.777 -1.9429 -2.9484 -1.2810
59224SOL     OW83508   5.427   2.812  10.208  0.2262  0.1631 -0.0921
59224SOL    HW183509   5.381   2.828  10.126  1.3801  2.6661 -0.3519
59224SOL    HW283510   5.481   2.890  10.221  1.0772 -0.7291  2.3933
59225SOL     OW83511   5.593   1.274   1.363  0.2181  0.0035 -0.1499
59225SOL    HW183512   5.524   1.273   1.430  0.4375  1.6345  0.1329
59225SOL    HW283513   5.627   1.184   1.363 -3.2971 -1.5304 -1.8254
59226SOL     OW83514  12.266   7.649   8.393 -0.1730 -0.2801  0.4628
59226SOL    HW183515  12.271   7.689   8.307  1.2793 -1.3196  0.0284
59226SOL    HW283516  12.294   7.718   8.453  1.4919 -0.3466 -0.1893
59227SOL     OW83517   0.990   9.709   0.647  0.2710 -0.0775 -0.2357
59227SOL    HW183518   0.943   9.775   0.697  1.0028  0.7769 -0.6468
59227SOL    HW283519   0.942   9.628   0.663 -0.7160  0.5696  0.1876
59228SOL     OW83520   7.126   4.782   5.194  0.2727 -0.1388 -0.4494
59228SOL    HW183521   7.090   4.822   5.115  0.1876 -0.6458 -0.6705
59228SOL    HW283522   7.053   4.730   5.229  0.5159 -0.4609 -0.4143
59229SOL     OW83523  11.635  11.554   5.950  0.3004  0.4585 -0.1151
59229SOL    HW183524  11.642  11.565   5.855 -0.7544 -0.9791 -0.4031
59229SOL    HW283525  11.566  11.488   5.961  0.1766  0.8391  1.6678
59230SOL     OW83526   6.503   9.184   2.326  0.7078  0.1904 -0.0467
59230SOL    HW183527   6.450   9.263   2.323  0.9440  0.3731  0.4355
59230SOL    HW283528   6.581   9.209   2.376 -1.1360 -1.4116  4.1259
59231SOL     OW83529   1.145   6.228   2.232  0.1694  0.2197 -0.5244
59231SOL    HW183530   1.166   6.178   2.153  1.8306 -0.1199  0.0847
59231SOL    HW283531   1.138   6.163   2.301 -1.4166  0.5027 -0.3881
59232SOL     OW83532  12.145   8.599   1.021 -0.3001 -0.7796  0.1711
59232SOL    HW183533  12.193   8.535   0.969  0.4180 -0.2940  0.2191
59232SOL    HW283534  12.123   8.553   1.103  0.0867 -1.0031  0.1486
59233SOL     OW83535  10.063   4.786   7.796  0.5581 -0.4191 -0.0655
59233SOL    HW183536  10.098   4.854   7.853  0.1821 -0.6846  0.5005
59233SOL    HW283537  10.077   4.705   7.845 -0.9956 -0.5162  0.2854
59234SOL     OW83538  12.249   8.381   0.910  0.0420 -0.4275  0.0240
59234SOL    HW183539  12.208   8.308   0.862 -1.5971  0.3194  0.2069
59234SOL    HW283540  12.291   8.339   0.986  0.1820 -1.3067 -0.5285
59235SOL     OW83541   0.161   9.010   0.324  0.4351  0.4519 -0.3740
59235SOL    HW183542   0.206   9.050   0.399 -3.3169  3.0473  0.7895
59235SOL    HW283543   0.182   9.067   0.250  0.7455  0.3970 -0.3295
59236SOL     OW83544   3.402   4.574   6.630  0.0603  0.0345  0.2377
59236SOL    HW183545   3.452   4.611   6.702  1.2226 -1.5407  0.2924
59236SOL    HW283546   3.466   4.523   6.580 -1.3766 -1.7004  0.0740
59237SOL     OW83547   0.279   4.393  11.654  0.5767 -0.1845 -0.0356
59237SOL    HW183548   0.247   4.403  11.743  0.0874 -2.4968  0.0876
59237SOL    HW283549   0.208   4.427  11.599  1.6585  3.1598  0.3787
59238SOL     OW83550  11.927   0.788   3.972 -0.1527 -0.4828  0.4695
59238SOL    HW183551  11.949   0.697   3.954  0.8417 -0.1146 -0.3207
59238SOL    HW283552  11.870   0.814   3.900 -1.2969 -0.7674  1.2591
59239SOL     OW83553  11.568  11.717   8.049 -0.1125 -0.4351  0.0273
59239SOL    HW183554  11.603  11.794   8.003 -2.4620  0.5570 -0.2620
59239SOL    HW283555  11.473  11.730   8.047 -0.5889 -3.3970 -0.0365
59240SOL     OW83556   8.718   9.706   3.324 -0.1290 -0.1724 -0.3139
59240SOL    HW183557   8.633   9.703   3.368 -0.0941  0.3958 -0.1903
59240SOL    HW283558   8.745   9.798   3.332  1.6441 -0.8090  1.8578
59241SOL     OW83559   9.577  11.150   5.587  0.8867 -0.1333 -0.2861
59241SOL    HW183560   9.660  11.174   5.545  0.4723  0.2775 -0.8915
59241SOL    HW283561   9.510  11.172   5.522  0.1517  1.3930  0.9200
59242SOL     OW83562   1.551  10.188   3.502  0.6468 -0.1391 -0.2343
59242SOL    HW183563   1.528  10.113   3.448 -0.9939  0.0761  0.1062
59242SOL    HW283564   1.500  10.260   3.465  1.3388  0.5547  0.1351
59243SOL     OW83565   2.308  10.440   0.473  0.2968  0.3243  0.5014
59243SOL    HW183566   2.352  10.491   0.540  0.6673  0.1795  0.3736
59243SOL    HW283567   2.221  10.423   0.508 -0.2653  2.0873  0.0273
59244SOL     OW83568   0.239   2.243   2.047 -0.0433  0.2735 -0.3978
59244SOL    HW183569   0.233   2.251   2.142 -1.8029  0.0730 -0.4486
59244SOL    HW283570   0.283   2.159   2.032  1.2098  0.7989  0.2130
59245SOL     OW83571  10.008  11.667   2.791 -0.0241  0.0049  0.2117
59245SOL    HW183572  10.035  11.674   2.700  1.9716  1.9823  0.8748
59245SOL    HW283573   9.926  11.716   2.796  0.1666  0.3905 -0.3863
59246SOL     OW83574   0.670   7.582   8.362  0.3945  0.1267 -0.6973
59246SOL    HW183575   0.714   7.664   8.383  0.4201  0.2434 -1.2001
59246SOL    HW283576   0.673   7.577   8.266  0.1353 -0.3174 -0.6832
59247SOL     OW83577   9.542  10.397   4.730  0.2020 -0.4733 -0.3744
59247SOL    HW183578   9.557  10.468   4.668  0.0470 -0.3048 -0.2184
59247SOL    HW283579   9.599  10.326   4.699 -0.3940 -0.6362 -1.1085
59248SOL     OW83580   6.016   2.203  12.031 -0.2698 -0.3785  0.3792
59248SOL    HW183581   6.093   2.234  12.079  1.0014 -0.9981 -1.1577
59248SOL    HW283582   6.042   2.208  11.939 -2.5843  0.7133 -0.2926
59249SOL     OW83583   3.795  10.281  11.918 -0.3616  0.0795  0.3030
59249SOL    HW183584   3.882  10.295  11.955 -0.7797 -3.0827  2.9940
59249SOL    HW283585   3.811  10.243  11.832  0.9344 -0.4159  0.7376
59250SOL     OW83586   0.481   0.042   8.264 -0.5408  0.2156 -0.3134
59250SOL    HW183587   0.451  -0.044   8.236 -1.0664 -0.2827  1.6460
59250SOL    HW283588   0.539   0.072   8.193  0.5052 -2.1835 -0.5558
59251SOL     OW83589   7.970   6.786  11.869 -0.0167 -0.1032  0.0320
59251SOL    HW183590   8.051   6.744  11.900  0.0320 -0.9373 -1.1038
59251SOL    HW283591   7.994   6.878  11.856  0.6281 -0.2475  0.1436
59252SOL     OW83592   7.700   9.080   6.102 -0.1180 -0.4443 -0.3156
59252SOL    HW183593   7.738   9.112   6.184 -1.2490 -0.6191  0.2996
59252SOL    HW283594   7.615   9.123   6.096 -0.4136 -1.0944 -0.9645
59253SOL     OW83595   0.291   1.452  11.678  0.4855 -0.1391  0.2545
59253SOL    HW183596   0.230   1.524  11.690  1.3436  0.8758 -1.1339
59253SOL    HW283597   0.299   1.443  11.583  1.6879 -0.9289  0.4087
59254SOL     OW83598   8.560  11.232   3.672  0.9599 -0.0733 -0.1349
59254SOL    HW183599   8.552  11.190   3.587  3.1283  1.0090 -0.9441
59254SOL    HW283600   8.606  11.168   3.727  2.3310  0.3537 -0.7340
59255SOL     OW83601   8.659   2.750  11.090 -0.5105 -0.0077  0.3430
59255SOL    HW183602   8.706   2.830  11.065 -2.6180  1.2080 -0.0110
59255SOL    HW283603   8.725   2.696  11.133  0.6629  2.6517  2.1772
59256SOL     OW83604  12.271   5.601   0.574 -0.3683 -0.0352  0.0820
59256SOL    HW183605  12.352   5.581   0.527  0.6289 -0.3808  1.8605
59256SOL    HW283606  12.241   5.517   0.608 -0.6587  0.3070  0.6955
59257SOL     OW83607   2.527   2.714  11.046 -0.5064 -0.0782 -0.3934
59257SOL    HW183608   2.450   2.705  11.102 -1.2015  0.7870 -1.1734
59257SOL    HW283609   2.536   2.808  11.032  0.7205 -0.1585 -0.3028
59258SOL     OW83610   9.126   3.006   7.324 -0.2653 -0.0656 -0.4114
59258SOL    HW183611   9.126   2.933   7.263  0.0038  2.3558 -3.5867
59258SOL    HW283612   9.218   3.016   7.349  0.7846  2.1974 -4.2518
59259SOL     OW83613   3.495   3.254  10.779  0.1175  0.4734 -0.2694
59259SOL    HW183614   3.551   3.217  10.847 -0.0085  0.4363 -0.1855
59259SOL    HW283615   3.490   3.347  10.799  1.3620  0.7486 -1.1278
59260SOL     OW83616   6.611  10.404   9.684  0.4060  0.3968 -0.5844
59260SOL    HW183617   6.664  10.382   9.608  1.8828  1.9752 -0.0907
59260SOL    HW283618   6.668  10.386   9.759 -0.7872 -0.5161  0.1456
59261SOL     OW83619   7.379   3.626   6.099  0.2313 -0.3468 -0.0672
59261SOL    HW183620   7.458   3.647   6.148 -0.4449  0.3924  0.7659
59261SOL    HW283621   7.390   3.535   6.073  1.0206 -0.4871  0.6997
59262SOL     OW83622   6.660   4.224   3.449  0.2067  0.0364  0.4053
59262SOL    HW183623   6.596   4.161   3.483  0.6498 -0.6097  0.0824
59262SOL    HW283624   6.614   4.268   3.377 -0.7491  1.4440  1.8109
59263SOL     OW83625   0.123   8.267   2.431  0.0335 -0.0142 -0.2717
59263SOL    HW183626   0.136   8.340   2.370  0.4034  0.4923  0.4025
59263SOL    HW283627   0.057   8.299   2.493  1.8345  0.6565  1.4050
59264SOL     OW83628   2.248  12.063   0.442  0.2809  0.4815  0.1203
59264SOL    HW183629   2.309  12.025   0.379 -0.9061  1.4280 -1.6987
59264SOL    HW283630   2.277  12.153   0.454 -0.7846  0.9968 -0.8995
59265SOL     OW83631   9.189   3.657   6.300 -0.0335 -0.1589 -0.2592
59265SOL    HW183632   9.206   3.663   6.395 -0.4188  1.5662 -0.2727
59265SOL    HW283633   9.104   3.615   6.293  0.1609 -0.6292  0.1452
59266SOL     OW83634   8.131   7.449   1.410  0.5941 -0.1482 -0.3280
59266SOL    HW183635   8.044   7.428   1.376  1.2569 -0.8596 -1.6525
59266SOL    HW283636   8.155   7.530   1.365  1.2055 -0.7430 -1.1056
59267SOL     OW83637   1.312  10.980   3.099  0.1933 -0.3548  0.3527
59267SOL    HW183638   1.237  10.959   3.044  1.1167  1.9554 -2.0340
59267SOL    HW283639   1.388  10.965   3.043  1.3085  0.5025  1.5640
59268SOL     OW83640   2.749   9.342   7.059 -0.6297 -0.0159  0.2086
59268SOL    HW183641   2.700   9.424   7.061  0.3987  0.6217  2.3317
59268SOL    HW283642   2.777   9.333   6.968 -2.4872  0.8927 -0.5124
59269SOL     OW83643   6.710   5.314   1.169 -0.2666  0.0015 -0.0974
59269SOL    HW183644   6.620   5.302   1.142 -0.0981  0.8699 -1.0785
59269SOL    HW283645   6.762   5.263   1.106 -0.0289  0.0290  0.0727
59270SOL     OW83646   4.327   9.517   1.826  0.3688  0.0124 -0.6588
59270SOL    HW183647   4.346   9.608   1.802  2.9228 -0.5246 -0.9492
59270SOL    HW283648   4.231   9.511   1.822  0.1737  2.4431 -1.4675
59271SOL     OW83649   9.144   3.501   1.633 -0.3709  0.6240  0.5951
59271SOL    HW183650   9.055   3.509   1.667 -0.3757 -1.5502  1.2477
59271SOL    HW283651   9.136   3.445   1.556  0.2490  1.7528 -0.3200
59272SOL     OW83652   5.698   4.050   0.533 -0.7253  0.3950  0.6582
59272SOL    HW183653   5.732   4.063   0.621 -0.4843 -1.8143  0.9506
59272SOL    HW283654   5.605   4.033   0.544 -1.1255  2.1401  0.2555
59273SOL     OW83655   6.951   0.719   7.475  0.0253 -0.1208 -0.2346
59273SOL    HW183656   7.016   0.789   7.471  0.9581 -0.9957 -3.1056
59273SOL    HW283657   7.001   0.639   7.493 -0.1536 -0.7938 -2.3846
59274SOL     OW83658  10.147   4.111   9.369  0.0970 -0.2946  0.5525
59274SOL    HW183659  10.110   4.066   9.293  1.9838  1.1047 -1.3137
59274SOL    HW283660  10.074   4.162   9.403 -0.6584 -0.4480 -0.7403
59275SOL     OW83661  11.060   1.800   7.946  0.5316 -0.0724  0.1201
59275SOL    HW183662  11.102   1.866   7.891  0.6115  0.6638  1.0335
59275SOL    HW283663  11.030   1.733   7.885  0.3940  0.8431 -0.8440
59276SOL     OW83664   2.483  12.113  11.602  0.2492 -0.3562 -0.1559
59276SOL    HW183665   2.399  12.110  11.556 -1.0776  2.2121  1.8545
59276SOL    HW283666   2.547  12.087  11.536 -1.7147  1.1656 -2.8769
59277SOL     OW83667   2.495   3.198   2.491 -0.4521 -0.0077 -0.1845
59277SOL    HW183668   2.536   3.263   2.548 -0.0969  1.5800 -2.1581
59277SOL    HW283669   2.413   3.239   2.463 -0.8322 -0.9474 -0.4695
59278SOL     OW83670   6.240   9.371   5.663 -0.1530  0.1922  0.6301
59278SOL    HW183671   6.203   9.323   5.736  1.2676 -1.1428  0.5238
59278SOL    HW283672   6.313   9.317   5.633  0.2976  1.4875 -0.7501
59279SOL     OW83673  10.585   4.469   0.329 -0.1428  0.0999 -0.1713
59279SOL    HW183674  10.632   4.403   0.380  0.6775  0.7720 -0.0344
59279SOL    HW283675  10.557   4.534   0.394 -1.9945 -0.6788 -0.1278
59280SOL     OW83676   6.860   0.424   5.918  0.1950  0.0559  0.2183
59280SOL    HW183677   6.911   0.346   5.897 -1.2244 -0.6107 -1.0076
59280SOL    HW283678   6.839   0.416   6.011 -0.8826 -1.6611 -0.1313
59281SOL     OW83679   2.027   3.081   2.203 -0.1763 -0.4522  0.4084
59281SOL    HW183680   1.986   3.167   2.201 -0.6096 -0.5954  1.7810
59281SOL    HW283681   2.121   3.098   2.199 -0.2571  0.1013  0.7550
59282SOL     OW83682   6.177  11.014  11.776  0.1598 -0.4039  0.1490
59282SOL    HW183683   6.162  11.107  11.758 -0.8407 -0.6778 -0.5351
59282SOL    HW283684   6.270  11.001  11.757  0.2802  0.4375  0.1378
59283SOL     OW83685   0.009   8.260   9.449  0.0307 -0.0297  0.0319
59283SOL    HW183686  -0.011   8.316   9.525  0.3613  1.3809 -0.8921
59283SOL    HW283687  -0.069   8.205   9.440  0.2748 -0.7611  1.8253
59284SOL     OW83688  10.924   1.451   3.207  0.4357 -0.7015  0.3363
59284SOL    HW183689  10.990   1.383   3.197  1.4571  0.3476 -0.2148
59284SOL    HW283690  10.868   1.442   3.129  1.5450  0.1112 -0.5837
59285SOL     OW83691   5.950   0.613   2.469 -0.3265  0.2708  0.2729
59285SOL    HW183692   5.898   0.586   2.393  0.3447 -2.3456  0.6486
59285SOL    HW283693   5.885   0.630   2.537 -0.7911 -1.7309  0.3784
59286SOL     OW83694   4.256   1.523   1.497  0.5713  0.0691  0.2172
59286SOL    HW183695   4.282   1.500   1.586 -0.2107  0.1442  0.4704
59286SOL    HW283696   4.336   1.558   1.457  0.6371  1.2075  1.2860
59287SOL     OW83697   2.583   6.782  10.364 -0.4015  0.2141  0.3782
59287SOL    HW183698   2.513   6.721  10.387 -0.4599  0.4933  0.9635
59287SOL    HW283699   2.632   6.795  10.445  0.5503 -0.2486 -0.0988
59288SOL     OW83700  10.783   1.207   9.907 -0.7089  0.0688 -0.0958
59288SOL    HW183701  10.812   1.120   9.880 -0.1612  0.8434 -2.1959
59288SOL    HW283702  10.707   1.191   9.963  0.0873 -1.7810  0.5264
59289SOL     OW83703   6.353   2.043   5.913 -0.2828  0.3710  0.8026
59289SOL    HW183704   6.314   1.991   5.984 -2.7885  1.5115  0.3639
59289SOL    HW283705   6.361   2.131   5.949 -2.5155  1.2047 -0.5189
59290SOL     OW83706   0.121   1.816   8.524  0.1151 -0.0853 -0.6874
59290SOL    HW183707   0.060   1.757   8.479  0.8245 -1.5347  0.1590
59290SOL    HW283708   0.076   1.900   8.526 -1.2581 -0.7675 -1.3022
59291SOL     OW83709   0.285   5.708   1.376 -0.1781  0.1208  0.1630
59291SOL    HW183710   0.299   5.666   1.291  1.0246 -0.1674  0.4924
59291SOL    HW283711   0.308   5.800   1.361  0.8054 -0.0857  0.3655
59292SOL     OW83712   6.082  10.115   7.651 -0.6130  0.0037  0.5658
59292SOL    HW183713   6.033  10.055   7.707 -1.2032 -0.4216 -0.3898
59292SOL    HW283714   6.147  10.060   7.607 -1.4042 -0.0235 -0.5986
59293SOL     OW83715  11.907  10.772   0.952  0.1615 -0.1358  0.7075
59293SOL    HW183716  11.968  10.790   1.023  0.0625 -0.2716  0.8270
59293SOL    HW283717  11.954  10.714   0.893  0.6487  0.8540  0.0865
59294SOL     OW83718   3.264   1.760  11.648  0.1573 -0.3998  0.2680
59294SOL    HW183719   3.332   1.808  11.696  2.3233 -0.2845 -2.6283
59294SOL    HW283720   3.260   1.675  11.692 -0.4138  0.7721  2.6422
59295SOL     OW83721   3.724  11.880   3.672  0.3834  0.2653  0.0988
59295SOL    HW183722   3.648  11.881   3.730  0.1529  2.2876 -0.1461
59295SOL    HW283723   3.719  11.797   3.626 -0.1741 -0.7988  1.9910
59296SOL     OW83724   5.693   3.688   9.519  0.1698 -0.6262  0.7392
59296SOL    HW183725   5.781   3.653   9.531  0.3876 -0.3646 -0.0486
59296SOL    HW283726   5.665   3.654   9.435  0.1016  0.4841  0.2916
59297SOL     OW83727   9.250   8.405   3.801  0.3399 -1.1407 -0.7134
59297SOL    HW183728   9.156   8.399   3.818  0.4769 -0.7096  0.2678
59297SOL    HW283729   9.257   8.463   3.724 -0.1873 -1.1234 -0.7521
59298SOL     OW83730   3.526   4.261   1.010 -0.3182  0.2350  0.7214
59298SOL    HW183731   3.604   4.215   1.040  0.5679  1.5090  0.4632
59298SOL    HW283732   3.471   4.269   1.088 -0.0605 -0.4010  0.9744
59299SOL     OW83733   0.675   6.411   9.297 -0.3142 -0.4172  0.1461
59299SOL    HW183734   0.746   6.428   9.360 -1.1487 -2.3188  1.7117
59299SOL    HW283735   0.687   6.319   9.273 -0.3623  0.1228 -2.1242
59300SOL     OW83736   2.572  10.059   8.737 -0.1708  0.2190 -0.3715
59300SOL    HW183737   2.667  10.069   8.743 -0.0858 -0.7039  0.0089
59300SOL    HW283738   2.542  10.068   8.827 -0.3701 -0.1188 -0.4017
59301SOL     OW83739   5.819   0.587  10.644  0.1416  0.2547 -0.2727
59301SOL    HW183740   5.871   0.642  10.585  1.8055 -1.5131 -0.5534
59301SOL    HW283741   5.771   0.528  10.586 -0.0454  0.0707  0.0654
59302SOL     OW83742   1.074   0.911   2.876  0.0013 -0.0944  0.1880
59302SOL    HW183743   1.027   0.828   2.876  0.1997 -0.2091 -0.2749
59302SOL    HW283744   1.006   0.978   2.864 -0.0892 -0.2291 -0.0367
59303SOL     OW83745   0.272  12.006   3.314  0.3180  0.5499 -0.1407
59303SOL    HW183746   0.288  12.076   3.377  1.3139  0.2619 -0.0549
59303SOL    HW283747   0.359  11.972   3.293 -0.0899 -0.1317 -0.7891
59304SOL     OW83748   9.992   9.658  10.299 -0.1278 -0.1974  0.5615
59304SOL    HW183749   9.919   9.653  10.361 -0.4572 -0.1183  0.1818
59304SOL    HW283750   9.950   9.655  10.213  0.2654  0.6114  0.3375
59305SOL     OW83751   6.678   4.406   9.273  0.9613 -0.2380 -0.8458
59305SOL    HW183752   6.651   4.349   9.201  2.4130 -0.0146 -1.6091
59305SOL    HW283753   6.764   4.372   9.299  0.2412 -0.6664  1.1834
59306SOL     OW83754   5.069  10.660   9.791 -0.0655 -0.5315 -0.7824
59306SOL    HW183755   5.021  10.665   9.874  2.0243  1.9004  0.4149
59306SOL    HW283756   5.037  10.734   9.740  0.2284 -0.7285 -1.2601
59307SOL     OW83757   7.133   7.738   3.242  0.4074  0.6001 -0.4741
59307SOL    HW183758   7.142   7.722   3.149  0.4120 -1.6772 -0.1338
59307SOL    HW283759   7.175   7.663   3.284 -2.5119 -0.2194  1.3173
59308SOL     OW83760   9.879   1.196   7.612  0.0159 -0.4922  0.1891
59308SOL    HW183761   9.855   1.159   7.697  0.9677  1.1817  1.2450
59308SOL    HW283762   9.959   1.150   7.587 -0.7347 -1.5916 -0.2385
59309SOL     OW83763   5.152   6.394   1.411 -0.6456 -0.3102 -0.2421
59309SOL    HW183764   5.163   6.364   1.320  1.0459  1.5701 -0.7342
59309SOL    HW283765   5.237   6.378   1.451  0.5528  3.9627 -0.6784
59310SOL     OW83766  11.234   2.518   9.231 -0.5551 -0.6135 -0.5862
59310SOL    HW183767  11.285   2.440   9.252 -2.4778 -1.2476  2.4072
59310SOL    HW283768  11.292   2.592   9.252  0.4659 -1.2573 -1.1144
59311SOL     OW83769   9.256   2.354   3.071  0.4295  0.5816  0.2846
59311SOL    HW183770   9.335   2.403   3.094 -0.3282  1.3731  1.3099
59311SOL    HW283771   9.186   2.420   3.074 -0.3680 -0.2443  0.1008
59312SOL     OW83772   8.915   5.939   5.255  0.0758  0.4518  0.4389
59312SOL    HW183773   8.968   5.859   5.262  2.7418  1.9435 -1.1861
59312SOL    HW283774   8.937   5.989   5.333 -0.9536  0.0155  1.0318
59313SOL     OW83775   5.200   9.749   6.717  0.5425  0.2148  0.1676
59313SOL    HW183776   5.286   9.744   6.676 -0.0541  0.3348 -1.1419
59313SOL    HW283777   5.167   9.836   6.693 -0.5415 -0.3931 -0.5915
59314SOL     OW83778  12.314   5.262   5.198 -0.0135 -0.3137  0.1055
59314SOL    HW183779  12.402   5.230   5.219  0.3371 -0.8420 -1.9356
59314SOL    HW283780  12.320   5.357   5.207  1.2177 -0.2041 -1.3437
59315SOL     OW83781   1.024   4.334  10.129 -0.1383  0.9900  0.0896
59315SOL    HW183782   1.040   4.353  10.222 -0.4780 -2.1493  0.8903
59315SOL    HW283783   1.105   4.293  10.098 -0.8789 -0.2379 -0.2847
59316SOL     OW83784  10.899   2.860   8.609 -0.1884 -0.3134  0.7506
59316SOL    HW183785  10.886   2.784   8.665  0.1946 -2.2100 -1.5427
59316SOL    HW283786  10.961   2.830   8.542 -0.0486  2.0136 -0.2700
59317SOL     OW83787   7.600  12.143   1.606  0.2328 -0.0946  0.3414
59317SOL    HW183788   7.649  12.217   1.570  3.0554 -1.8676  0.2074
59317SOL    HW283789   7.590  12.164   1.699 -1.4951  1.6247 -0.1629
59318SOL     OW83790   7.910  11.095  10.464 -0.1908  0.3735 -0.1429
59318SOL    HW183791   7.972  11.072  10.395 -0.8466  0.3048 -0.7254
59318SOL    HW283792   7.825  11.064  10.431 -0.5779  0.7075  0.5126
59319SOL     OW83793   2.636   9.783   8.326 -0.7112  0.5903  0.5671
59319SOL    HW183794   2.695   9.761   8.253  1.0133  1.6517  1.5773
59319SOL    HW283795   2.553   9.804   8.283 -0.1246 -0.0757 -0.9926
59320SOL     OW83796   5.479  10.952  11.595 -0.2262  0.5547 -0.4656
59320SOL    HW183797   5.391  10.976  11.622  0.1229  2.0262 -0.5895
59320SOL    HW283798   5.466  10.892  11.522 -1.1549 -1.9845  1.6255
59321SOL     OW83799   5.093  11.500   2.917  0.1997 -0.5253 -0.0182
59321SOL    HW183800   5.183  11.529   2.908 -0.0437 -0.1106 -1.3413
59321SOL    HW283801   5.042  11.580   2.926 -0.0527 -0.7512  0.6089
59322SOL     OW83802   1.483   3.741   5.386  0.2337 -0.5006 -0.1205
59322SOL    HW183803   1.496   3.826   5.429 -1.0601 -1.0797  1.5479
59322SOL    HW283804   1.566   3.695   5.399  0.6562  0.1980 -0.2932
59323SOL     OW83805   1.612   2.442   8.921  0.2842  0.3754  0.1073
59323SOL    HW183806   1.626   2.528   8.880 -0.7895  0.4421 -0.1487
59323SOL    HW283807   1.642   2.379   8.857  3.1441  0.5605  1.1267
59324SOL     OW83808   4.016   5.467   6.460 -0.3230 -0.3879 -0.1136
59324SOL    HW183809   3.943   5.525   6.441  1.3669  2.2382  0.8741
59324SOL    HW283810   3.984   5.380   6.436 -3.0191  0.8859 -1.6239
59325SOL     OW83811  11.382   4.718  11.066  0.1166  0.0295  0.4528
59325SOL    HW183812  11.445   4.647  11.053  1.5909  0.8487  2.5398
59325SOL    HW283813  11.432   4.798  11.046 -0.6033  0.6410  1.0571
59326SOL     OW83814  10.921   6.332   5.586 -0.3787 -0.0646 -0.1603
59326SOL    HW183815  10.969   6.365   5.510 -0.2124 -0.0863 -0.0655
59326SOL    HW283816  10.923   6.237   5.576  0.1569 -0.0906  0.1834
59327SOL     OW83817   4.731   7.696   6.808  0.2557 -0.1989 -0.1753
59327SOL    HW183818   4.712   7.750   6.732 -0.2388  0.0473  0.1168
59327SOL    HW283819   4.761   7.759   6.875 -0.0675 -0.3169  0.0826
59328SOL     OW83820   2.240  11.246   3.114 -0.6730 -0.1380 -0.4680
59328SOL    HW183821   2.272  11.166   3.156 -0.2483 -0.6946 -1.7950
59328SOL    HW283822   2.318  11.287   3.078 -0.8950  0.8715  0.1452
59329SOL     OW83823   8.395   7.763   3.900 -0.3055 -0.2867  0.2840
59329SOL    HW183824   8.303   7.736   3.900 -0.4785  0.2186 -0.8199
59329SOL    HW283825   8.424   7.751   3.990 -1.3713 -0.7283  0.5858
59330SOL     OW83826  11.238   8.789  10.991 -0.2818 -0.3414  0.7661
59330SOL    HW183827  11.196   8.760  10.910  0.8833  1.7556 -0.6625
59330SOL    HW283828  11.183   8.861  11.022  1.0941  1.1235 -0.0645
59331SOL     OW83829   0.572   2.744   0.010 -0.1828 -0.0443  0.0935
59331SOL    HW183830   0.479   2.759   0.026 -0.3053  0.2436 -0.8569
59331SOL    HW283831   0.579   2.739  -0.085  0.1148 -4.0528  0.1359
59332SOL     OW83832  10.670   2.663  11.854 -0.1806 -0.0540  0.2139
59332SOL    HW183833  10.704   2.597  11.793 -0.4960 -0.0615  0.0452
59332SOL    HW283834  10.741   2.726  11.863 -0.3306  0.2381 -0.5897
59333SOL     OW83835   0.606  10.624   9.890  0.3034 -0.4411 -0.4565
59333SOL    HW183836   0.686  10.676   9.897  1.1807 -1.6447 -1.0974
59333SOL    HW283837   0.637  10.534   9.885 -1.2072 -1.1198  1.3365
59334SOL     OW83838   2.105   7.902   3.701  0.1803  0.8024 -0.5010
59334SOL    HW183839   2.192   7.911   3.741 -0.7196 -1.5782  2.2970
59334SOL    HW283840   2.117   7.836   3.633  0.6775  0.9318 -0.5440
59335SOL     OW83841   7.689   4.656   4.399  0.1976 -0.1663  0.3634
59335SOL    HW183842   7.625   4.609   4.345 -0.2433 -2.6279  2.8117
59335SOL    HW283843   7.763   4.670   4.341 -0.7973 -1.3804 -1.2890
59336SOL     OW83844   5.111   4.656   9.215 -0.1679  0.3168 -0.3042
59336SOL    HW183845   5.143   4.636   9.127  1.8555 -0.6419  0.5760
59336SOL    HW283846   5.088   4.571   9.253 -0.6698  0.6793  0.2267
59337SOL     OW83847   6.928   2.823   6.834  0.3133  0.0321 -0.4758
59337SOL    HW183848   6.839   2.792   6.849 -0.3981  1.6678 -1.0833
59337SOL    HW283849   6.932   2.839   6.740  2.1931 -2.6740 -0.9504
59338SOL     OW83850   1.646   6.237   9.394  0.0306 -0.4093 -0.7576
59338SOL    HW183851   1.629   6.203   9.306  1.2622  0.0023 -1.1624
59338SOL    HW283852   1.741   6.231   9.405 -0.0679 -0.1244  0.4144
59339SOL     OW83853  10.946   9.862   3.264  0.0259 -0.1539 -0.3152
59339SOL    HW183854  10.938   9.812   3.182 -0.0382 -4.5025  2.0414
59339SOL    HW283855  11.036   9.846   3.293 -0.2457  0.4491  0.9335
59340SOL     OW83856  10.792   3.868   1.963 -0.3785 -0.2834  0.0719
59340SOL    HW183857  10.739   3.939   2.000  0.8679 -0.1056  1.5852
59340SOL    HW283858  10.876   3.873   2.009  0.4681 -1.4606 -1.2503
59341SOL     OW83859   4.534   7.134  11.285 -0.4769 -0.2739 -0.2514
59341SOL    HW183860   4.546   7.080  11.363 -1.1895 -1.0316 -0.6509
59341SOL    HW283861   4.538   7.073  11.212 -2.1604  0.0502 -0.6663
59342SOL     OW83862   1.562   1.205   7.918  0.0807 -0.0829 -0.1837
59342SOL    HW183863   1.574   1.154   7.838  1.6557 -1.2887  0.7566
59342SOL    HW283864   1.515   1.145   7.977  2.6302 -0.8813  1.2111
59343SOL     OW83865   7.910   2.204   5.080  0.1566 -0.3595  1.0731
59343SOL    HW183866   7.851   2.201   5.005  1.5993 -1.0558 -0.0836
59343SOL    HW283867   7.868   2.265   5.141 -0.7364  0.7358 -0.5604
59344SOL     OW83868   9.925   1.407   6.443  0.1854  0.3417  0.3817
59344SOL    HW183869   9.920   1.359   6.527 -2.1922  1.4184  0.9327
59344SOL    HW283870   9.981   1.352   6.388 -1.4343 -2.5143  1.3596
59345SOL     OW83871   5.903   6.597   0.590 -0.2049  0.2886 -0.3646
59345SOL    HW183872   5.975   6.546   0.554  0.4048  1.6168 -1.1005
59345SOL    HW283873   5.919   6.599   0.684  0.2742 -0.0969 -0.4337
59346SOL     OW83874   4.647   3.788   8.471 -0.2137  0.0150  0.1616
59346SOL    HW183875   4.650   3.810   8.377 -1.2530 -0.3866  0.0238
59346SOL    HW283876   4.556   3.765   8.487 -0.2975  1.1681  1.5403
59347SOL     OW83877   2.978  10.965   5.957  0.6176  0.1512  0.3608
59347SOL    HW183878   3.000  10.928   5.871 -0.4639 -1.6740  0.8149
59347SOL    HW283879   2.888  10.995   5.947  0.1286 -1.0017  1.1108
59348SOL     OW83880   4.840   4.575   6.781  0.3903  0.5354 -0.6247
59348SOL    HW183881   4.830   4.491   6.825 -1.2629  2.1322  2.4255
59348SOL    HW283882   4.930   4.576   6.750  1.2386 -1.4230  1.4731
59349SOL     OW83883  11.781  11.493  11.434  0.4054  0.9435  0.1767
59349SOL    HW183884  11.770  11.536  11.519  0.3804 -0.1712  0.7543
59349SOL    HW283885  11.738  11.552  11.372  0.4956  1.8177  0.9186
59350SOL     OW83886   5.371   5.538   2.212 -0.3959  0.1421  0.6095
59350SOL    HW183887   5.314   5.573   2.281 -1.7404 -0.6141 -0.0672
59350SOL    HW283888   5.407   5.614   2.169 -0.4021  0.6380  1.4551
59351SOL     OW83889   8.975   7.776   5.369 -0.1471  0.2313 -0.2256
59351SOL    HW183890   8.969   7.695   5.317  0.2898  0.0545 -0.0099
59351SOL    HW283891   8.949   7.845   5.308  1.3880  0.1518 -1.0222
59352SOL     OW83892   9.237   3.381   5.028  0.1930  0.2065 -0.0235
59352SOL    HW183893   9.219   3.429   4.947 -1.3604  0.1299  0.2376
59352SOL    HW283894   9.330   3.360   5.024  0.0191 -0.3900 -2.1244
59353SOL     OW83895   4.503  10.179  11.192  0.0573 -0.4260 -0.1354
59353SOL    HW183896   4.584  10.129  11.204  0.2953 -0.3936 -1.4493
59353SOL    HW283897   4.451  10.127  11.132 -1.4058 -0.9707  1.5168
59354SOL     OW83898  11.494   8.832  10.896 -0.0341 -0.3763  0.1765
59354SOL    HW183899  11.556   8.868  10.960  0.2382  0.5848 -0.6009
59354SOL    HW283900  11.409   8.837  10.940  0.3502 -1.1743  1.0351
59355SOL     OW83901   1.602   7.752   9.275  0.1143  0.0193  0.6345
59355SOL    HW183902   1.664   7.686   9.307  0.3081  0.5337  1.3284
59355SOL    HW283903   1.651   7.799   9.207  0.3639  0.1946  0.9352
59356SOL     OW83904   8.571  10.551   8.714  0.2412  0.3043 -0.3270
59356SOL    HW183905   8.489  10.531   8.760  0.2980  0.3749 -0.1923
59356SOL    HW283906   8.567  10.499   8.634 -0.0281  0.4675 -0.4192
59357SOL     OW83907   5.111   2.483   8.711  0.0706 -0.1582  0.1527
59357SOL    HW183908   5.090   2.572   8.740  1.6396  0.7894 -1.4147
59357SOL    HW283909   5.194   2.463   8.754 -0.4541 -1.0338  0.7810
59358SOL     OW83910   6.454  10.866   3.137 -0.0806  0.3919  0.2908
59358SOL    HW183911   6.431  10.951   3.172  1.1714  0.3944  1.1881
59358SOL    HW283912   6.549  10.870   3.124  0.1783 -1.2036  1.3675
59359SOL     OW83913  12.195  10.733   2.129  0.1428 -0.4514 -0.0822
59359SOL    HW183914  12.173  10.663   2.068  0.4904  0.7793 -1.7030
59359SOL    HW283915  12.199  10.812   2.075 -1.7699  1.1551  1.8978
59360SOL     OW83916   6.386   6.395   0.431 -0.3985  0.2835  0.4514
59360SOL    HW183917   6.335   6.340   0.489  0.2012 -2.1530 -1.1831
59360SOL    HW283918   6.478   6.373   0.450 -0.1229  1.0016  0.0270
59361SOL     OW83919   7.428  11.668   4.724 -0.0521  0.4182  0.0217
59361SOL    HW183920   7.335  11.680   4.706  0.1224  2.1322  0.0755
59361SOL    HW283921   7.467  11.649   4.639 -0.4571 -0.4360  0.0175
59362SOL     OW83922   0.058   2.065  10.648  0.2271  0.5765  0.2168
59362SOL    HW183923   0.127   2.002  10.627 -0.3219  0.2396 -0.6047
59362SOL    HW283924   0.005   2.021  10.714  0.9909  0.9754  1.1138
59363SOL     OW83925   6.912   4.785   5.469  0.1109 -0.3171 -0.3045
59363SOL    HW183926   6.989   4.729   5.481  0.2261 -0.6699 -2.4317
59363SOL    HW283927   6.877   4.760   5.384 -0.8378  1.6763 -0.5509
59364SOL     OW83928   0.703   5.316   0.191  0.0098 -0.5128 -0.5215
59364SOL    HW183929   0.717   5.374   0.116 -0.1642 -0.3342 -0.4184
59364SOL    HW283930   0.718   5.372   0.267 -1.4466 -0.2457 -0.3939
59365SOL     OW83931   8.125  11.111  11.741 -0.1603 -0.7427  0.4477
59365SOL    HW183932   8.125  11.164  11.661 -2.7301 -0.0459  0.7995
59365SOL    HW283933   8.153  11.024  11.713  1.1500  0.0166 -0.7450
59366SOL     OW83934   9.064   1.993   0.700  0.7918  0.1504 -0.1960
59366SOL    HW183935   9.113   1.951   0.629  1.1885 -0.9280  0.6933
59366SOL    HW283936   9.019   1.921   0.744  0.0205  0.8875  0.2500
59367SOL     OW83937   4.144  11.660  12.054  0.2600  0.6500  0.1478
59367SOL    HW183938   4.125  11.654  12.148  1.8761  1.7975  0.5860
59367SOL    HW283939   4.065  11.699  12.017 -1.0610 -1.3122  0.7270
59368SOL     OW83940   1.300   5.389   2.942 -0.7067  0.5827 -1.0109
59368SOL    HW183941   1.259   5.437   3.014  0.5652  1.5127 -0.8822
59368SOL    HW283942   1.229   5.336   2.906 -0.8910 -1.7873  2.3999
59369SOL     OW83943   9.142   9.962   9.563  0.3614 -0.5629 -0.1210
59369SOL    HW183944   9.101   9.877   9.580 -1.9418  0.7246  1.3399
59369SOL    HW283945   9.082  10.025   9.602  2.5698  1.6812 -0.1157
59370SOL     OW83946   9.069   1.229   1.918  0.2087  0.2647  0.1989
59370SOL    HW183947   9.079   1.232   1.823 -1.4063  0.6104 -0.0014
59370SOL    HW283948   9.088   1.318   1.947  0.0891  0.3209  0.1083
59371SOL     OW83949   9.553   7.414   6.324 -0.3204 -0.0490  0.1441
59371SOL    HW183950   9.551   7.479   6.254 -2.6251 -0.0947  0.0927
59371SOL    HW283951   9.535   7.331   6.280 -0.1387 -0.3294  0.5859
59372SOL     OW83952   8.520   0.341   9.325 -0.0254  1.1786 -0.1781
59372SOL    HW183953   8.584   0.404   9.293 -0.2878  2.3338  1.4754
59372SOL    HW283954   8.435   0.383   9.312 -0.1731  1.4187  1.4036
59373SOL     OW83955   4.184   7.634   0.681  0.3402 -0.5485 -0.5183
59373SOL    HW183956   4.266   7.646   0.727 -0.1583  0.8890  0.0277
59373SOL    HW283957   4.116   7.648   0.748 -0.3697 -2.4144 -0.7820
59374SOL     OW83958  10.818   8.595   2.431 -0.1746 -0.3919  0.1440
59374SOL    HW183959  10.861   8.586   2.516  0.9225  1.1950 -0.1925
59374SOL    HW283960  10.773   8.679   2.436 -0.7771 -0.6604 -0.5720
59375SOL     OW83961   8.030   5.394   3.093 -0.6522  0.0556  0.0780
59375SOL    HW183962   8.043   5.312   3.142 -0.4862  0.9420  1.6109
59375SOL    HW283963   8.021   5.367   3.002 -2.9623 -1.8709  0.7847
59376SOL     OW83964  10.975   4.149   0.667 -0.7961 -0.3631 -0.4248
59376SOL    HW183965  10.937   4.086   0.605 -1.2405 -1.0691  0.5355
59376SOL    HW283966  11.041   4.098   0.714  0.9437  0.6762 -1.6127
59377SOL     OW83967  10.269   9.054   6.991 -0.0191 -0.2698  0.1662
59377SOL    HW183968  10.271   8.971   6.942 -1.7405 -0.6238  0.6041
59377SOL    HW283969  10.358   9.088   6.985  0.0720 -0.7440 -2.4211
59378SOL     OW83970   6.362   7.466   5.562 -0.4015  0.3532 -0.2275
59378SOL    HW183971   6.366   7.372   5.541  0.9704  0.2821  0.2176
59378SOL    HW283972   6.398   7.509   5.484 -0.9329  0.5159 -0.3889
59379SOL     OW83973   6.920   5.452   3.828 -0.2826 -0.2569 -0.2671
59379SOL    HW183974   6.927   5.538   3.867 -1.7242 -0.6489  0.9180
59379SOL    HW283975   7.007   5.414   3.837  0.3615  1.0445 -0.7967
59380SOL     OW83976   3.183   9.134   9.906  0.2762  0.1308 -0.5545
59380SOL    HW183977   3.122   9.135   9.980  0.9772 -0.9955  0.0840
59380SOL    HW283978   3.128   9.118   9.830 -0.2321 -1.0969  0.0388
59381SOL     OW83979   6.207   7.323   2.933  0.1050  0.3319 -0.1855
59381SOL    HW183980   6.118   7.334   2.900  0.2813 -0.6410 -1.0406
59381SOL    HW283981   6.216   7.229   2.950  0.7295  0.5203  0.6257
59382SOL     OW83982   7.958   2.155   3.602  0.5728 -0.1323  0.2551
59382SOL    HW183983   8.004   2.233   3.572 -0.9273  0.3642 -0.8551
59382SOL    HW283984   7.882   2.189   3.650 -0.4357 -0.8763 -0.7677
59383SOL     OW83985   5.498   7.092   1.086  0.1124  0.1708  0.6857
59383SOL    HW183986   5.412   7.082   1.128  0.5467  0.4977  1.6662
59383SOL    HW283987   5.497   7.027   1.015 -0.7835 -0.1103  0.9390
59384SOL     OW83988  10.045   3.715   8.165  0.4393 -0.2202 -0.1146
59384SOL    HW183989  10.072   3.732   8.255 -0.8702  0.6208  0.1468
59384SOL    HW283990  10.109   3.761   8.112  0.3201  0.6063  0.4424
59385SOL     OW83991   0.686   1.643   9.696 -0.3408  0.8199 -0.2051
59385SOL    HW183992   0.630   1.565   9.695 -0.7096  1.0749  0.0068
59385SOL    HW283993   0.747   1.627   9.768 -0.0683  0.4901 -0.5090
59386SOL     OW83994   3.497   4.153   2.291  0.1405 -0.1040  0.0730
59386SOL    HW183995   3.442   4.113   2.358 -0.8799 -0.2798 -0.8408
59386SOL    HW283996   3.578   4.102   2.292 -0.6679 -1.4299 -0.2363
59387SOL     OW83997   8.725  11.241  12.066 -0.6387  0.3380  0.2491
59387SOL    HW183998   8.718  11.235  12.162 -0.1903 -1.4136  0.2022
59387SOL    HW283999   8.741  11.152  12.038 -0.3175  0.9016 -1.4472
59388SOL     OW84000   3.360   6.807   4.579  0.5651 -0.0398 -0.0179
59388SOL    HW184001   3.354   6.714   4.556 -0.2888  0.0427 -0.1802
59388SOL    HW284002   3.427   6.811   4.647  0.9762 -0.7038 -0.3670
59389SOL     OW84003   0.164   0.759   0.341 -0.0486 -0.4965  0.3889
59389SOL    HW184004   0.084   0.708   0.356 -1.5643  1.7500  0.4482
59389SOL    HW284005   0.198   0.776   0.429 -0.8095  0.4482  0.5161
59390SOL     OW84006   1.813   3.371  11.594 -0.0660 -0.2463  0.3186
59390SOL    HW184007   1.872   3.350  11.666 -0.5297  0.2131  0.8466
59390SOL    HW284008   1.783   3.460  11.613 -0.4563 -0.2497 -0.2622
59391SOL     OW84009   5.637   3.826   9.740 -0.3043  0.5234 -0.4504
59391SOL    HW184010   5.679   3.799   9.659 -0.6465  1.1675 -0.8495
59391SOL    HW284011   5.556   3.869   9.713 -1.5011 -1.1286  0.3173
59392SOL     OW84012   5.848   7.517   0.694  0.0715  0.0069  0.0015
59392SOL    HW184013   5.842   7.442   0.635  0.3871  0.6919 -0.9326
59392SOL    HW284014   5.941   7.523   0.716  0.3338  1.0535 -1.2228
59393SOL     OW84015   5.912  10.594   1.875 -0.3257 -0.6285  0.0435
59393SOL    HW184016   5.900  10.683   1.909 -0.2790 -0.1219 -1.2243
59393SOL    HW284017   6.003  10.591   1.848 -1.1350  0.1349 -3.1225
59394SOL     OW84018   3.214   7.634   4.384  0.2508  0.5569 -0.5075
59394SOL    HW184019   3.155   7.706   4.361 -0.3875 -0.1903 -1.2995
59394SOL    HW284020   3.265   7.619   4.304  1.3347  1.0048  0.0781
59395SOL     OW84021   8.703   0.986   8.159 -0.0847  0.8649 -0.2133
59395SOL    HW184022   8.630   1.007   8.100  0.7438  1.5364 -1.0470
59395SOL    HW284023   8.780   0.986   8.102  0.4869 -0.5116  0.5258
59396SOL     OW84024   7.140   9.049   5.006 -0.4926  0.4322 -0.5467
59396SOL    HW184025   7.095   9.130   4.986 -0.2916  0.3918 -1.1592
59396SOL    HW284026   7.069   8.988   5.031 -0.8234  0.2699 -1.8234
59397SOL     OW84027  10.802  10.747   2.052  0.3985 -0.1457 -0.5380
59397SOL    HW184028  10.805  10.654   2.074 -0.2679 -0.0867 -0.1757
59397SOL    HW284029  10.792  10.792   2.137 -0.8123  0.1617 -0.8145
59398SOL     OW84030  11.466   3.718   4.896  0.0952 -0.5900  0.3644
59398SOL    HW184031  11.532   3.789   4.895 -1.6963  1.1763 -0.8596
59398SOL    HW284032  11.429   3.722   4.983 -1.7018  1.7952 -0.3915
59399SOL     OW84033   2.311   3.776   6.056 -0.1042 -0.7475 -0.5807
59399SOL    HW184034   2.272   3.859   6.028 -1.7433 -1.0159  0.7550
59399SOL    HW284035   2.255   3.709   6.017 -0.9186 -1.1511  1.2261
59400SOL     OW84036   2.613   0.692  10.279 -0.1707 -0.4446 -0.5072
59400SOL    HW184037   2.704   0.721  10.273  0.2599 -2.0692 -3.9154
59400SOL    HW284038   2.570   0.732  10.203 -2.3787  0.2934  1.0214
59401SOL     OW84039   3.329   2.242   4.476 -0.9378  0.2446  0.8130
59401SOL    HW184040   3.347   2.266   4.386 -1.9153 -1.0544  0.2379
59401SOL    HW284041   3.316   2.326   4.521 -0.4452  0.9002 -0.2420
59402SOL     OW84042   9.204   0.442   0.673  0.8069  0.3719  0.5499
59402SOL    HW184043   9.225   0.438   0.580  0.3862  3.1429  0.2396
59402SOL    HW284044   9.137   0.510   0.679 -1.1572 -1.5390  2.6113
59403SOL     OW84045  11.218   4.694   3.014  0.1136 -0.5312  0.1827
59403SOL    HW184046  11.243   4.771   2.962 -1.5347 -0.1537 -0.1123
59403SOL    HW284047  11.123   4.703   3.025  0.4258 -0.3215  3.7189
59404SOL     OW84048   4.961   5.974  10.253  0.4443 -0.3223 -0.3693
59404SOL    HW184049   4.927   6.053  10.294  1.7040  0.0320  0.0583
59404SOL    HW284050   5.015   5.933  10.321  1.4889 -0.4305 -1.2371
59405SOL     OW84051   9.604   1.006   2.233 -0.1057  0.1517  0.4745
59405SOL    HW184052   9.523   0.956   2.221 -0.3135 -0.0262  2.3124
59405SOL    HW284053   9.664   0.946   2.277  0.8088  0.5011 -0.2598
59406SOL     OW84054   7.616  11.473   4.174  0.5029 -0.2613 -0.5050
59406SOL    HW184055   7.704  11.480   4.210  0.5892 -1.5089 -0.4316
59406SOL    HW284056   7.591  11.563   4.154  2.8244 -0.0348 -3.0308
59407SOL     OW84057   6.550   3.485   3.543 -0.2871  0.3582  0.2153
59407SOL    HW184058   6.543   3.415   3.477 -0.6871 -0.4646  1.1034
59407SOL    HW284059   6.622   3.540   3.512 -0.7938  0.2893 -1.1739
59408SOL     OW84060   5.378   2.400   1.785  0.5723 -0.6171 -0.7751
59408SOL    HW184061   5.399   2.412   1.878  0.1184  1.6436 -0.9257
59408SOL    HW284062   5.446   2.449   1.739  0.6692 -1.5492 -1.6437
59409SOL     OW84063   5.425   6.643  10.691  0.3222  0.0757 -0.1002
59409SOL    HW184064   5.355   6.674  10.749  1.3043 -0.9047  1.7220
59409SOL    HW284065   5.401   6.553  10.671 -0.9264  0.9279 -2.7973
59410SOL     OW84066   5.893   8.309   0.538 -0.0447  0.2172  0.4970
59410SOL    HW184067   5.860   8.280   0.453 -0.4078  0.8580  0.4166
59410SOL    HW284068   5.897   8.404   0.532  2.4993  0.1500  0.2664
59411SOL     OW84069   4.073   7.891   7.480  0.8304 -0.5811 -0.2673
59411SOL    HW184070   4.113   7.976   7.460 -1.1318  0.1326 -1.4917
59411SOL    HW284071   4.141   7.827   7.457  2.0897  0.6197 -0.0235
59412SOL     OW84072   4.045  11.632   8.985  0.3873 -0.4533  0.0959
59412SOL    HW184073   3.955  11.613   8.959  0.4931  1.2763 -1.9316
59412SOL    HW284074   4.098  11.566   8.939  0.1959 -1.2097  0.9473
59413SOL     OW84075   4.078   7.374   8.307 -0.1296  0.1317  0.7314
59413SOL    HW184076   4.150   7.368   8.370 -1.3655  1.0787  2.3335
59413SOL    HW284077   4.049   7.465   8.313 -0.5147  0.1570 -1.0073
59414SOL     OW84078   2.681   1.704   0.065  0.3135 -0.9460  0.0494
59414SOL    HW184079   2.594   1.664   0.065 -0.3496  0.3484 -1.8959
59414SOL    HW284080   2.727   1.661   0.137 -1.7823 -1.9678  0.8732
59415SOL     OW84081  11.167  11.700   0.304 -0.0724  0.6021  0.3530
59415SOL    HW184082  11.235  11.683   0.369 -0.6286  2.6829  1.5418
59415SOL    HW284083  11.085  11.674   0.347 -0.1488 -1.5702 -0.9445
59416SOL     OW84084   4.521  10.438   3.115 -0.2758  0.0173  0.7711
59416SOL    HW184085   4.506  10.527   3.084  1.7392 -0.1467 -0.8603
59416SOL    HW284086   4.615  10.433   3.131 -0.0737 -2.2543 -0.7270
59417SOL     OW84087  12.208  10.973  10.634  0.1691 -0.1965 -0.0220
59417SOL    HW184088  12.258  11.054  10.650 -0.1616 -0.4013  2.5712
59417SOL    HW284089  12.118  11.003  10.622  0.3926 -0.0438 -1.3732
59418SOL     OW84090   3.889   8.521  11.374  0.4150  0.3267 -0.3034
59418SOL    HW184091   3.927   8.607  11.361 -0.2934  0.6142 -0.5192
59418SOL    HW284092   3.915   8.471  11.297 -0.1014  0.6937 -0.7258
59419SOL     OW84093   5.571   4.766   9.458 -0.6464  0.3368  0.2741
59419SOL    HW184094   5.634   4.707   9.419  0.2109  1.2651  0.2167
59419SOL    HW284095   5.498   4.710   9.485  0.3193 -0.7892  0.6040
59420SOL     OW84096  10.913   1.112   0.903 -0.2626 -0.7287  0.0855
59420SOL    HW184097  10.905   1.169   0.980  0.4521  0.4784 -0.7121
59420SOL    HW284098  10.824   1.080   0.888 -1.2035  2.0365 -0.8020
59421SOL     OW84099   3.712   5.722   9.784  0.7257  0.4850  0.4489
59421SOL    HW184100   3.681   5.809   9.758  2.4039  0.5810 -1.5106
59421SOL    HW284101   3.807   5.731   9.789  1.0257 -1.4694 -0.7975
59422SOL     OW84102   4.948   6.625   8.120 -0.2051 -0.2208 -0.0474
59422SOL    HW184103   5.017   6.575   8.165 -0.4406  0.4057  1.0483
59422SOL    HW284104   4.953   6.596   8.029  1.2606 -0.4707  0.0815
59423SOL     OW84105   1.798   9.743   0.457 -0.7404 -0.3567 -0.1890
59423SOL    HW184106   1.776   9.733   0.550  1.5209 -1.4884  0.2895
59423SOL    HW284107   1.729   9.800   0.422 -2.6131 -1.2614  1.7823
59424SOL     OW84108   7.004   2.591   1.952 -0.0036 -0.2600  0.3027
59424SOL    HW184109   6.976   2.516   1.898  0.3011 -1.0656  1.2250
59424SOL    HW284110   7.097   2.601   1.933 -0.1605  0.2707 -0.2433
59425SOL     OW84111   0.339   4.879   4.481  0.2996 -0.5305 -0.0156
59425SOL    HW184112   0.358   4.790   4.510 -0.1451 -0.8698 -0.7492
59425SOL    HW284113   0.245   4.889   4.492  0.4884  0.2371  1.0961
59426SOL     OW84114   2.965   7.747  12.236 -0.1024  0.5487  0.1461
59426SOL    HW184115   3.031   7.708  12.293 -0.5526  1.8115  1.5962
59426SOL    HW284116   2.898   7.679  12.226  0.5413 -0.0938  0.1509
59427SOL     OW84117   0.295   9.381   8.232 -0.6437 -0.3364  0.1048
59427SOL    HW184118   0.268   9.400   8.142 -0.4819  0.6021  0.2474
59427SOL    HW284119   0.239   9.309   8.259 -0.1000 -1.2405 -1.0519
59428SOL     OW84120   7.595  11.184   0.889 -0.8286  0.1709  0.1314
59428SOL    HW184121   7.681  11.213   0.920 -0.6997  1.2685 -1.1352
59428SOL    HW284122   7.607  11.168   0.796 -1.5491 -1.5894  0.3101
59429SOL     OW84123   1.399  10.005   1.834 -0.2808  0.2927 -0.2498
59429SOL    HW184124   1.477  10.036   1.788 -0.9520  0.8376 -1.0457
59429SOL    HW284125   1.416  10.024   1.926  1.7411 -2.1522  0.0159
59430SOL     OW84126  11.753   9.068   8.599 -0.4244  0.1447 -0.2978
59430SOL    HW184127  11.725   8.978   8.585  1.6906 -0.9714  1.9867
59430SOL    HW284128  11.710   9.095   8.679  2.4208 -0.5933  1.6407
59431SOL     OW84129   9.633   7.037   7.226 -0.3596  0.3555 -0.1261
59431SOL    HW184130   9.556   6.980   7.234  0.1770 -0.4073 -0.3731
59431SOL    HW284131   9.655   7.060   7.317  0.5360 -1.3490  0.1167
59432SOL     OW84132   1.650   6.776  11.598 -0.1059  0.5106  0.4478
59432SOL    HW184133   1.688   6.801  11.683  2.8133 -0.9908 -0.2877
59432SOL    HW284134   1.614   6.688  11.613  0.0626  0.4065  0.2523
59433SOL     OW84135   5.254   9.239   5.344  0.1442 -0.2225  0.1051
59433SOL    HW184136   5.282   9.183   5.416 -0.9361 -3.2726 -1.6691
59433SOL    HW284137   5.181   9.192   5.303 -0.3630  2.1412 -2.0084
59434SOL     OW84138   1.722   0.725   8.439  0.3454 -0.5933  0.3390
59434SOL    HW184139   1.669   0.793   8.481 -1.2968 -2.1500  0.9094
59434SOL    HW284140   1.733   0.756   8.349  1.7666  1.5750  1.1654
59435SOL     OW84141   5.077   8.822   4.234  0.1632  0.2848  0.0845
59435SOL    HW184142   5.010   8.888   4.216 -0.3049 -0.3452 -0.5429
59435SOL    HW284143   5.037   8.767   4.302 -0.8749 -1.3486 -1.7432
59436SOL     OW84144   5.012   7.636   1.885 -0.2580  0.2995  0.1974
59436SOL    HW184145   5.043   7.549   1.912  0.3185  0.3945 -0.1588
59436SOL    HW284146   4.927   7.645   1.929  0.1414 -0.0240  1.0657
59437SOL     OW84147   1.348   5.097   1.950 -0.2097 -0.1484 -0.4469
59437SOL    HW184148   1.423   5.065   2.000  0.3752 -0.1097 -1.2849
59437SOL    HW284149   1.272   5.055   1.991  0.1425  0.6847  1.1188
59438SOL     OW84150  11.151   3.562   0.870 -0.0964  0.4108  0.1010
59438SOL    HW184151  11.058   3.558   0.849 -0.1750  1.5992  0.1553
59438SOL    HW284152  11.158   3.517   0.954 -0.6846  0.6116  0.2661
59439SOL     OW84153   7.501  10.644  10.204 -0.6082  0.3531 -0.6835
59439SOL    HW184154   7.468  10.621  10.117  1.9398 -0.2631 -1.5603
59439SOL    HW284155   7.551  10.567  10.231 -1.2052  0.6214  1.2865
59440SOL     OW84156  10.956   3.667  11.026 -0.2332  0.1788  0.2184
59440SOL    HW184157  10.964   3.573  11.009 -1.0623  0.4821 -2.3990
59440SOL    HW284158  11.040   3.704  10.998  0.4131  0.1784  2.0443
59441SOL     OW84159   5.365  10.808   2.673 -0.4230  0.3280 -0.1812
59441SOL    HW184160   5.327  10.775   2.591 -0.7135  0.4793 -0.1087
59441SOL    HW284161   5.419  10.736   2.705  1.7225  1.1174 -1.7863
59442SOL     OW84162   7.974   7.912  11.633  0.2078  0.4898 -0.6221
59442SOL    HW184163   7.932   7.826  11.634 -0.3196  0.7225 -1.4274
59442SOL    HW284164   7.901   7.974  11.624  0.5405  1.0597  0.4595
59443SOL     OW84165   7.138   5.556   6.014  0.0645 -1.0227 -0.1031
59443SOL    HW184166   7.136   5.648   6.041 -0.0916  0.1689 -3.6462
59443SOL    HW284167   7.051   5.522   6.038 -0.0855 -0.0882  0.7371
59444SOL     OW84168   0.767   3.105   8.847 -0.5020  0.4464 -0.3790
59444SOL    HW184169   0.765   3.130   8.939 -1.3407  0.3169 -0.3598
59444SOL    HW284170   0.695   3.153   8.807 -1.9012 -1.5827 -0.4182
59445SOL     OW84171   9.004   0.640  11.109 -0.5431 -0.4509  0.0831
59445SOL    HW184172   8.923   0.672  11.150 -0.5040  0.7745 -0.7204
59445SOL    HW284173   8.997   0.545  11.114 -1.4346 -0.3527  1.1685
59446SOL     OW84174   0.177   4.064   7.628 -0.1980 -0.2599  0.2484
59446SOL    HW184175   0.105   4.090   7.571 -1.0969 -0.6275  1.1776
59446SOL    HW284176   0.141   3.992   7.681  0.4668  0.3005  1.5119
59447SOL     OW84177   8.860   9.117   4.736 -0.2553 -0.3008  0.0320
59447SOL    HW184178   8.803   9.066   4.677 -0.6232  1.0908 -0.8555
59447SOL    HW284179   8.932   9.058   4.756 -0.6861 -1.1962 -0.9409
59448SOL     OW84180   0.656   6.429  10.221  0.5915 -0.0258  0.1091
59448SOL    HW184181   0.642   6.523  10.217 -1.2373 -0.3008 -0.7843
59448SOL    HW284182   0.737   6.415  10.171 -1.3231  0.7050 -3.5581
59449SOL     OW84183   8.524  11.082   3.103  0.4133  0.7908  0.5629
59449SOL    HW184184   8.615  11.110   3.100 -0.2164  3.0073  0.5441
59449SOL    HW284185   8.495  11.103   3.192  0.0993 -0.5753  0.8081
59450SOL     OW84186   0.951   2.972   0.209 -0.0167  0.2563 -0.4719
59450SOL    HW184187   0.991   3.059   0.205 -2.1586  1.4454  1.2815
59450SOL    HW284188   0.866   2.984   0.167 -0.2626 -1.0386 -0.3648
59451SOL     OW84189   5.012   5.827   3.814  0.3046 -0.0207 -0.1415
59451SOL    HW184190   4.949   5.816   3.743 -1.5524  1.4346  1.1935
59451SOL    HW284191   5.000   5.749   3.868 -1.7063  1.0254  1.0389
59452SOL     OW84192   5.708  11.818   9.110 -0.5094 -0.1313 -0.0596
59452SOL    HW184193   5.642  11.834   9.043 -0.5635 -0.6084 -0.1275
59452SOL    HW284194   5.791  11.839   9.067 -0.5119 -0.7811 -0.4050
59453SOL     OW84195   8.208   5.308   4.383 -0.4557  0.0194  0.2780
59453SOL    HW184196   8.293   5.315   4.427 -0.1805 -1.1099 -0.0573
59453SOL    HW284197   8.227   5.324   4.291 -0.9644  1.9354  0.4629
59454SOL     OW84198   6.734   4.477   0.821  0.2191 -0.0243 -0.0350
59454SOL    HW184199   6.756   4.568   0.836  0.7457 -0.3770  1.4565
59454SOL    HW284200   6.699   4.446   0.904  0.9350 -1.4341 -0.2191
59455SOL     OW84201   0.359  11.593   6.951  0.3267  0.5808 -0.3742
59455SOL    HW184202   0.411  11.647   7.010 -1.8031  0.3593  1.8970
59455SOL    HW284203   0.283  11.648   6.929 -0.1003 -0.2137 -0.9481
59456SOL     OW84204   5.661   4.290   0.397 -0.8891 -0.3655  0.6041
59456SOL    HW184205   5.666   4.217   0.459  1.7399 -0.3081  0.5534
59456SOL    HW284206   5.721   4.265   0.327 -0.9709  1.2707 -0.0712
59457SOL     OW84207   3.021   1.896   4.900 -0.3574  0.8261 -0.0135
59457SOL    HW184208   2.970   1.897   4.819 -0.9381 -0.2926  0.3119
59457SOL    HW284209   2.957   1.875   4.968  0.8224 -3.3792  0.0864
59458SOL     OW84210  12.327   5.870   5.203 -0.0557  0.2256 -0.1074
59458SOL    HW184211  12.316   5.965   5.196  0.4523  0.1536 -2.7932
59458SOL    HW284212  12.383   5.858   5.280  0.7047  2.1765 -0.3016
59459SOL     OW84213   5.391   7.759   0.302 -0.1563  0.0846  0.6329
59459SOL    HW184214   5.381   7.851   0.275 -1.3480  0.0914  1.0436
59459SOL    HW284215   5.332   7.749   0.376 -1.4135 -1.4597 -0.4908
59460SOL     OW84216   4.275   4.028  10.677 -0.9068  0.1267 -0.2942
59460SOL    HW184217   4.257   4.034  10.583 -0.7519  0.4816 -0.3043
59460SOL    HW284218   4.261   4.117  10.709 -1.3225 -0.0686  0.0870
59461SOL     OW84219   6.086   5.347   0.288  0.0300  0.3798  0.4006
59461SOL    HW184220   6.040   5.318   0.209  1.7255 -1.2249 -0.0443
59461SOL    HW284221   6.078   5.443   0.286  0.7750  0.4595 -2.2254
59462SOL     OW84222   8.074   8.872   0.416 -0.0013 -0.0415  0.4830
59462SOL    HW184223   8.086   8.939   0.349  1.2356 -1.2031 -0.5189
59462SOL    HW284224   8.139   8.805   0.395 -0.4990 -1.0812  2.0558
59463SOL     OW84225   4.492  10.332   4.700  0.6028  0.0622 -0.2167
59463SOL    HW184226   4.485  10.402   4.765  0.1834  0.4964 -0.7247
59463SOL    HW284227   4.578  10.294   4.715  0.5484  0.2218  0.5341
59464SOL     OW84228   3.360  10.937  10.746  0.3531 -0.0495 -0.0602
59464SOL    HW184229   3.401  10.851  10.745 -0.4786 -0.4577 -0.9747
59464SOL    HW284230   3.275  10.924  10.703  1.2454  1.7189 -2.5921
59465SOL     OW84231  11.669  11.273   4.158  0.2466 -0.0608  0.4467
59465SOL    HW184232  11.752  11.281   4.111 -0.0004 -0.6351 -0.0931
59465SOL    HW284233  11.609  11.329   4.109 -0.0129 -0.6672  0.0636
59466SOL     OW84234  11.371   3.773   7.598  0.0309 -0.2334  0.3923
59466SOL    HW184235  11.394   3.857   7.558  1.7415 -1.0504 -0.4548
59466SOL    HW284236  11.281   3.785   7.627 -0.6258  1.1011 -1.8900
59467SOL     OW84237  10.726   3.398   2.216  0.2644 -0.7814  0.0899
59467SOL    HW184238  10.657   3.356   2.267 -0.8476 -0.6443 -1.2398
59467SOL    HW284239  10.774   3.451   2.279 -0.1681 -1.7335  1.2413
59468SOL     OW84240   9.135   2.844   8.760  0.3652 -0.2981 -0.2849
59468SOL    HW184241   9.164   2.931   8.733  0.1903 -0.5177 -1.1983
59468SOL    HW284242   9.047   2.857   8.796  0.3795 -0.0885 -0.3285
59469SOL     OW84243   0.987   1.244   3.706  0.1900  0.1939  0.4085
59469SOL    HW184244   0.983   1.148   3.715 -0.4492  0.1641 -0.0542
59469SOL    HW284245   0.943   1.277   3.784  0.1094  0.0977  0.4051
59470SOL     OW84246   4.533   7.456   7.641  0.7916 -0.5993  0.7391
59470SOL    HW184247   4.573   7.538   7.612  0.0964  0.4725  2.6369
59470SOL    HW284248   4.603   7.391   7.631  1.1727  0.0542 -1.3777
59471SOL     OW84249   3.987   8.034   6.080 -0.1694 -0.0138 -0.3624
59471SOL    HW184250   3.996   7.947   6.043 -2.3135  0.1973 -1.5687
59471SOL    HW284251   3.997   8.093   6.005 -1.5242  0.5940 -0.0933
59472SOL     OW84252   4.523   2.214   4.411  0.1169  0.0993 -0.2857
59472SOL    HW184253   4.433   2.182   4.402  0.4370 -0.9729  0.1288
59472SOL    HW284254   4.576   2.150   4.363  0.6284  0.9598 -0.8946
59473SOL     OW84255   4.090  11.207  11.957  0.6801 -0.2637 -0.1776
59473SOL    HW184256   4.014  11.234  12.009  1.4189  0.1296  0.7183
59473SOL    HW284257   4.060  11.129  11.909 -1.0264  1.1777 -1.6378
59474SOL     OW84258  11.268   7.113   0.792 -0.1537 -0.1254 -0.3006
59474SOL    HW184259  11.344   7.148   0.745 -0.6754  1.0672 -0.2900
59474SOL    HW284260  11.289   7.021   0.805  1.8557  0.4198  0.8047
59475SOL     OW84261   5.976   1.741   2.382 -0.1585  0.2511 -0.5110
59475SOL    HW184262   6.036   1.691   2.327  1.7541 -1.1832  2.5739
59475SOL    HW284263   6.021   1.824   2.397 -0.6749  0.6404 -1.1136
59476SOL     OW84264  10.690   3.226  10.710  0.4261 -0.3048  0.1194
59476SOL    HW184265  10.785   3.228  10.698  0.5154 -1.4059  0.5430
59476SOL    HW284266  10.677   3.233  10.805  0.2032 -2.3948  0.2829
59477SOL     OW84267   6.866   1.378   3.865  0.0642  0.7852 -0.2325
59477SOL    HW184268   6.833   1.465   3.843 -2.1426  0.0263 -0.1718
59477SOL    HW284269   6.810   1.349   3.937  1.7738 -0.0873  0.8004
59478SOL     OW84270  12.021   9.204   7.190 -0.2824 -0.5423  0.0197
59478SOL    HW184271  11.959   9.195   7.118  0.0355  3.5593 -1.0223
59478SOL    HW284272  12.095   9.149   7.165 -1.0525 -0.8437 -1.7050
59479SOL     OW84273   7.734   1.859   9.072  0.3471 -0.3792 -0.2857
59479SOL    HW184274   7.716   1.766   9.058 -0.5840 -0.2014 -0.3505
59479SOL    HW284275   7.651   1.895   9.103 -0.2011  1.0014 -3.0538
59480SOL     OW84276  11.442  10.744   0.314 -0.0706 -0.2257  0.1347
59480SOL    HW184277  11.443  10.798   0.235  3.3120 -0.8663 -0.3941
59480SOL    HW284278  11.417  10.657   0.283  0.1784 -0.2407 -0.0216
59481SOL     OW84279   7.532   1.513   8.164  0.0588  0.2588 -0.0946
59481SOL    HW184280   7.615   1.466   8.167  0.1724  0.4259 -0.5687
59481SOL    HW284281   7.557   1.604   8.148 -0.1425  0.5380  1.0481
59482SOL     OW84282  11.394   4.914   3.206 -0.4621 -0.3830  0.1090
59482SOL    HW184283  11.349   4.830   3.217 -0.3597 -0.4555 -0.0258
59482SOL    HW284284  11.484   4.896   3.235  0.4229 -1.1592 -2.7623
59483SOL     OW84285   7.335  11.569   0.084 -0.2072 -0.0939  0.5535
59483SOL    HW184286   7.389  11.491   0.068  1.4668  1.3628 -1.5784
59483SOL    HW284287   7.374  11.636   0.028 -0.8155  2.6500  3.1361
59484SOL     OW84288   5.412   5.449   7.906 -0.5905  0.3512 -0.0293
59484SOL    HW184289   5.431   5.418   7.817 -0.8034 -0.3653  0.1720
59484SOL    HW284290   5.348   5.386   7.940  0.9883 -0.5747  1.3630
59485SOL     OW84291   3.629  10.335   6.744 -0.4646  0.0052 -0.1355
59485SOL    HW184292   3.654  10.388   6.820  1.1920 -0.9452  0.0151
59485SOL    HW284293   3.533  10.331   6.748 -0.6211  2.4593  0.1874
59486SOL     OW84294   6.590   4.057  11.098  0.5541  0.3883 -0.5795
59486SOL    HW184295   6.528   4.008  11.152  0.9026  0.5344 -0.0401
59486SOL    HW284296   6.675   4.039  11.137  0.7038  1.2735 -0.4725
59487SOL     OW84297   3.680  11.303   1.209 -0.3495 -0.7043  0.0047
59487SOL    HW184298   3.718  11.292   1.122 -1.6433  0.1021 -0.7060
59487SOL    HW284299   3.586  11.296   1.194 -0.6312  0.1937  1.2098
59488SOL     OW84300  10.760  11.313   0.309 -0.1071 -0.6230  0.1052
59488SOL    HW184301  10.839  11.259   0.307 -0.4422 -1.1323  0.5007
59488SOL    HW284302  10.705  11.277   0.240 -0.2283 -0.6327  0.2068
59489SOL     OW84303   3.499   9.861   1.650  0.0573 -0.0480 -0.3961
59489SOL    HW184304   3.409   9.859   1.616  0.0634 -1.7032 -0.4074
59489SOL    HW284305   3.491   9.897   1.738 -0.6968 -0.6888 -0.1979
59490SOL     OW84306   4.262   6.907   4.957  0.2233 -0.0536 -0.0503
59490SOL    HW184307   4.308   6.986   4.930  1.3354  1.3323  4.9452
59490SOL    HW284308   4.170   6.927   4.942  0.4156  2.5907  1.6352
59491SOL     OW84309   3.561   9.877   5.146 -0.5455  0.2174 -0.5281
59491SOL    HW184310   3.619   9.804   5.126 -0.5703 -0.0528  0.3310
59491SOL    HW284311   3.548   9.921   5.062  2.2985  1.3471 -0.4864
59492SOL     OW84312   8.234  10.701   0.349  0.5046 -0.0240  0.3712
59492SOL    HW184313   8.188  10.689   0.266  1.9889  1.4810 -0.7483
59492SOL    HW284314   8.296  10.772   0.332  1.4904 -0.2811  2.5212
59493SOL     OW84315   5.429   8.691  12.082 -0.1093  0.3364  0.2451
59493SOL    HW184316   5.465   8.603  12.079  3.2066  1.5737  0.1624
59493SOL    HW284317   5.456   8.726  12.167 -3.6782  0.5226  1.5054
59494SOL     OW84318   3.815  11.286   0.937  0.4895  0.5685 -0.0855
59494SOL    HW184319   3.811  11.379   0.914  2.6933  1.1713  1.5966
59494SOL    HW284320   3.840  11.243   0.855 -1.9955  1.1719 -1.2716
59495SOL     OW84321   8.852   0.959  11.710  0.9511  0.3202 -0.7380
59495SOL    HW184322   8.927   0.909  11.742  1.9357  1.8900 -0.5107
59495SOL    HW284323   8.884   1.002  11.630  0.7964  2.1527  0.1385
59496SOL     OW84324   0.777   2.942  11.536  0.1003 -0.4493  0.3821
59496SOL    HW184325   0.715   2.978  11.472  0.8386 -1.9045 -1.2202
59496SOL    HW284326   0.746   2.976  11.620 -1.1785  1.1658 -0.6664
59497SOL     OW84327   5.346   0.673  10.809 -0.2397  0.0440 -0.2990
59497SOL    HW184328   5.374   0.583  10.795  2.0119  0.2652  1.9724
59497SOL    HW284329   5.388   0.699  10.891 -2.8918  2.3494  0.5092
59498SOL     OW84330   9.916   0.085   3.051 -0.0757  0.0902 -0.6670
59498SOL    HW184331   9.911   0.167   3.002 -1.3370 -0.3234 -1.2793
59498SOL    HW284332   9.900   0.111   3.142 -1.3808  0.4430 -0.9680
59499SOL     OW84333   0.532   2.968   9.788 -0.1192 -0.0993 -0.1802
59499SOL    HW184334   0.465   3.034   9.770 -0.6639 -0.4335  0.5555
59499SOL    HW284335   0.490   2.885   9.765 -0.8646 -0.5557  2.4533
59500SOL     OW84336   2.885  10.385   4.500 -0.0388  0.2535  0.0277
59500SOL    HW184337   2.946  10.365   4.429  0.7434  0.4627  0.6163
59500SOL    HW284338   2.804  10.410   4.456  0.3786  0.2245 -0.7830
59501SOL     OW84339   4.295   7.531   6.321  0.2120  0.2985 -0.1825
59501SOL    HW184340   4.326   7.481   6.245  1.4895  0.5176  0.1750
59501SOL    HW284341   4.287   7.621   6.289  0.3916  0.3251 -0.1510
59502SOL     OW84342   8.239   4.067   0.636 -0.2667 -0.0020 -0.1337
59502SOL    HW184343   8.288   4.083   0.717 -1.9806  1.1551  0.7449
59502SOL    HW284344   8.148   4.084   0.660 -0.8737 -0.1272 -2.1979
59503SOL     OW84345   6.834   9.439   2.035  0.0927 -0.2573  0.0069
59503SOL    HW184346   6.860   9.361   2.084 -1.2046  0.0590  1.2634
59503SOL    HW284347   6.822   9.408   1.945 -2.4561 -2.0578  0.8509
59504SOL     OW84348   8.390   8.798   1.862  0.2257 -0.1161  0.2193
59504SOL    HW184349   8.455   8.756   1.805 -0.5738  0.1464 -0.8948
59504SOL    HW284350   8.306   8.778   1.822 -0.3727 -0.1014  1.4322
59505SOL     OW84351   5.827   7.195   7.616 -0.3941  0.1813 -0.0203
59505SOL    HW184352   5.868   7.165   7.697 -0.7370  0.0282  0.1017
59505SOL    HW284353   5.861   7.135   7.549 -1.1398 -0.5529  0.2369
59506SOL     OW84354   7.862   9.454   3.200  0.2965 -0.3173  0.2009
59506SOL    HW184355   7.953   9.427   3.193  0.3709  0.0497 -0.3416
59506SOL    HW284356   7.815   9.397   3.138  0.3968  0.5135 -0.6603
59507SOL     OW84357   2.859  11.612   9.213  0.1584  0.0318 -0.3948
59507SOL    HW184358   2.845  11.579   9.124  0.6076  0.1097 -0.4995
59507SOL    HW284359   2.778  11.592   9.259 -0.3724  0.6759 -1.0305
59508SOL     OW84360   6.110   1.157  12.203  0.0446  0.2582  0.0089
59508SOL    HW184361   6.070   1.077  12.238  0.8843  0.2233  0.9144
59508SOL    HW284362   6.165   1.126  12.131 -0.7285  0.1986 -0.5798
59509SOL     OW84363   1.491   9.279   1.675 -0.6398  0.0140 -0.1053
59509SOL    HW184364   1.530   9.257   1.591  1.1487  0.1915  0.6248
59509SOL    HW284365   1.521   9.368   1.693 -1.0272 -0.0062  0.7005
59510SOL     OW84366   6.414   0.848   1.988  0.2461  0.5138  0.3493
59510SOL    HW184367   6.453   0.934   2.004 -1.5720  1.6194 -0.7922
59510SOL    HW284368   6.322   0.858   2.014 -0.7333 -0.1244 -2.4701
59511SOL     OW84369   6.437   0.550   7.939 -0.2864 -1.0346  0.2118
59511SOL    HW184370   6.432   0.599   8.022 -1.1750 -1.0527  0.1828
59511SOL    HW284371   6.347   0.524   7.922 -0.0829 -1.1770 -0.6812
59512SOL     OW84372   3.943   8.808   7.991 -0.0139  0.9636 -0.3691
59512SOL    HW184373   3.848   8.808   8.001  0.1894 -1.0836  3.7023
59512SOL    HW284374   3.976   8.823   8.079  3.4262 -0.2704 -1.2955
59513SOL     OW84375   5.521   9.375   8.003 -0.6493  0.4714  0.3005
59513SOL    HW184376   5.464   9.300   8.021 -0.3322 -0.0194 -0.7168
59513SOL    HW284377   5.462   9.451   8.012 -1.6789 -0.0648 -1.4599
59514SOL     OW84378  11.485  11.013  11.789 -0.1893  0.5234 -1.2047
59514SOL    HW184379  11.465  11.001  11.882 -0.4631  0.7000 -1.2390
59514SOL    HW284380  11.468  11.106  11.773 -0.0627  0.5103 -1.4118
59515SOL     OW84381   6.646  12.312   8.099 -0.1578 -0.2622 -0.1653
59515SOL    HW184382   6.727  12.347   8.062  0.0432 -0.5071  0.0303
59515SOL    HW284383   6.642  12.350   8.187 -0.1694 -0.3796 -0.1152
59516SOL     OW84384  10.486   5.621   0.109  1.0550 -0.9637  0.2560
59516SOL    HW184385  10.560   5.631   0.050  0.7798 -0.3448  0.0118
59516SOL    HW284386  10.416   5.672   0.069  0.5377 -1.4171  0.5638
59517SOL     OW84387   1.545   4.262   6.456 -0.5191 -0.1715 -0.2818
59517SOL    HW184388   1.525   4.268   6.362 -2.2838 -0.8194  0.0102
59517SOL    HW284389   1.551   4.353   6.485  0.0217  0.0369 -1.0020
59518SOL     OW84390   2.821   6.612  12.186  0.1577  0.8074  0.3336
59518SOL    HW184391   2.761   6.682  12.159  0.1002  1.0312  1.0219
59518SOL    HW284392   2.782   6.533  12.150 -0.1897  1.0387  0.1916
59519SOL     OW84393   1.709   7.341   7.262  0.1222  0.3305  0.0551
59519SOL    HW184394   1.671   7.266   7.307  1.2909 -1.1331 -1.3310
59519SOL    HW284395   1.643   7.366   7.197  1.6716 -2.8860 -3.1025
59520SOL     OW84396   2.009   0.262   3.346 -0.2210 -0.3173 -0.9918
59520SOL    HW184397   2.102   0.282   3.357 -0.3115 -0.2285 -0.3228
59520SOL    HW284398   2.005   0.166   3.352 -0.2094 -0.3003 -0.6598
59521SOL     OW84399   8.000   9.821   4.701 -0.2919 -0.2454  0.2970
59521SOL    HW184400   7.992   9.873   4.781  1.7381 -1.0453  1.1001
59521SOL    HW284401   7.914   9.827   4.660 -1.3921  0.2505  2.4981
59522SOL     OW84402   8.843   4.395   6.750 -0.1970  0.0366 -0.4134
59522SOL    HW184403   8.853   4.301   6.739 -1.2103 -0.0119 -0.9433
59522SOL    HW284404   8.926   4.432   6.718  0.1350 -0.6490 -0.3598
59523SOL     OW84405   0.491   7.077   7.222 -0.5510  0.5863  0.0386
59523SOL    HW184406   0.563   7.047   7.278 -0.4887  2.8117  1.2537
59523SOL    HW284407   0.494   7.019   7.146  0.8967 -0.9979  1.2173
59524SOL     OW84408   4.894   9.120   5.387 -0.2043 -0.1450  0.5271
59524SOL    HW184409   4.951   9.073   5.326 -1.0115 -2.5845  1.5457
59524SOL    HW284410   4.849   9.185   5.333  1.8052  0.2884 -0.7166
59525SOL     OW84411   7.199   7.585   7.629  0.1080  0.4524  0.8331
59525SOL    HW184412   7.223   7.672   7.662  1.0367  0.2917  0.6286
59525SOL    HW284413   7.190   7.598   7.534 -0.1713  0.4177  0.8569
59526SOL     OW84414   4.533   2.186   0.975  0.0965 -0.2568  1.0110
59526SOL    HW184415   4.582   2.212   0.896  0.2111 -0.4874  1.0070
59526SOL    HW284416   4.442   2.205   0.953  0.2518  0.9939  1.3333
59527SOL     OW84417   0.631   5.805  11.452 -0.1268 -0.3513  0.2577
59527SOL    HW184418   0.644   5.868  11.381  0.1097 -0.8019 -0.1009
59527SOL    HW284419   0.557   5.841  11.502 -0.5788 -0.2555 -0.4691
59528SOL     OW84420   7.748  11.857   5.111 -0.5902  0.1832 -0.6571
59528SOL    HW184421   7.672  11.802   5.094 -0.7640  0.3014 -0.2712
59528SOL    HW284422   7.744  11.876   5.204  2.0138 -2.9352  0.2739
59529SOL     OW84423   8.392   9.046   3.458  0.2134 -0.7521 -0.0804
59529SOL    HW184424   8.446   9.040   3.379 -1.3461 -0.3878 -1.2181
59529SOL    HW284425   8.302   9.051   3.426 -0.3718  1.8679  1.5879
59530SOL     OW84426   5.269   9.744  11.610 -0.0316 -0.0862  0.2215
59530SOL    HW184427   5.338   9.678  11.610  0.1646  0.1207 -0.1425
59530SOL    HW284428   5.312   9.824  11.582 -0.1597  0.3189  1.1517
59531SOL     OW84429   0.830   3.075   5.770 -0.6620  0.4875  0.0226
59531SOL    HW184430   0.925   3.069   5.780 -0.7774 -1.6347  0.3255
59531SOL    HW284431   0.816   3.069   5.675 -0.5093 -0.3237  0.0358
59532SOL     OW84432   7.286   6.728   1.376 -0.0087  0.5244 -0.1549
59532SOL    HW184433   7.247   6.807   1.412 -0.9779 -0.6500  1.5091
59532SOL    HW284434   7.315   6.678   1.452  1.6158 -0.2303 -1.2182
59533SOL     OW84435  10.370   4.177   6.133 -0.1384  0.2205 -0.5009
59533SOL    HW184436  10.382   4.168   6.227 -1.8372  0.8511 -0.2019
59533SOL    HW284437  10.456   4.155   6.096  0.3774 -0.6566  1.1354
59534SOL     OW84438  12.185   3.350   8.749  0.1213 -0.1840 -0.2192
59534SOL    HW184439  12.200   3.436   8.710  0.7332  0.7309  1.9339
59534SOL    HW284440  12.098   3.355   8.787  0.1225 -0.5619 -0.1621
59535SOL     OW84441   5.012   4.194   3.753 -0.2398 -0.7517  0.3787
59535SOL    HW184442   5.015   4.279   3.709  1.0084 -0.8752  0.1911
59535SOL    HW284443   4.931   4.153   3.722 -0.5606  0.1259  0.0319
59536SOL     OW84444   2.625   0.059   0.685 -0.3554  0.1938  0.0462
59536SOL    HW184445   2.659   0.119   0.752 -0.8030  0.6510 -0.1253
59536SOL    HW284446   2.545   0.024   0.724 -1.9415  2.2684 -1.1378
59537SOL     OW84447   9.731   6.639   3.780 -0.7437  0.0008 -0.8864
59537SOL    HW184448   9.739   6.726   3.740 -2.1175  0.9257  0.7085
59537SOL    HW284449   9.637   6.621   3.778 -0.4079 -1.8497 -1.9296
59538SOL     OW84450   5.267   1.259   1.935 -0.1670  0.4669  0.2327
59538SOL    HW184451   5.332   1.232   1.871  0.9614 -1.7118  2.1394
59538SOL    HW284452   5.236   1.177   1.974 -3.1347  1.5048  0.3399
59539SOL     OW84453   5.610   4.576   8.354 -0.5836  0.3574  0.1121
59539SOL    HW184454   5.613   4.650   8.415 -3.3445  1.1728 -0.5855
59539SOL    HW284455   5.663   4.604   8.280 -1.2661  1.5218  0.0310
59540SOL     OW84456   6.186   9.960   9.219 -0.3154  0.5916  0.8544
59540SOL    HW184457   6.239   9.884   9.198  1.8682  2.4364 -0.8290
59540SOL    HW284458   6.241  10.014   9.275 -1.1202  1.7270  0.6031
59541SOL     OW84459   2.794   2.239   3.005 -0.8521 -0.0311 -0.1449
59541SOL    HW184460   2.732   2.190   2.950 -2.1109  1.9336 -0.5655
59541SOL    HW284461   2.813   2.318   2.956 -0.2544  0.7368  1.2635
59542SOL     OW84462  11.335   9.593   4.818 -0.0620 -1.0861  0.2760
59542SOL    HW184463  11.364   9.528   4.882 -2.8679 -0.6425  2.1917
59542SOL    HW284464  11.245   9.568   4.798  0.3217 -0.4548 -2.6243
59543SOL     OW84465   2.980   6.097   1.826  0.1950  0.8717  0.2000
59543SOL    HW184466   2.942   6.112   1.912 -0.1938 -1.6820  0.5554
59543SOL    HW284467   3.056   6.041   1.842 -0.8076 -1.0040 -1.1869
59544SOL     OW84468   1.883  11.118   8.701  0.0284  0.6225  0.2100
59544SOL    HW184469   1.866  11.198   8.750  0.2694  0.8618 -0.0968
59544SOL    HW284470   1.810  11.060   8.725  1.0023  0.1142  2.1179
59545SOL     OW84471   1.620   4.389   7.720 -0.0547  0.2055 -0.3295
59545SOL    HW184472   1.576   4.342   7.648 -0.1064 -0.0262 -0.1494
59545SOL    HW284473   1.572   4.471   7.728  0.6498  0.7293 -1.3022
59546SOL     OW84474  12.178   6.588  11.698  1.0437 -0.3286  0.9129
59546SOL    HW184475  12.156   6.552  11.612  2.3094 -0.1151  0.4741
59546SOL    HW284476  12.106   6.561  11.755 -0.3081  0.3595 -0.4228
59547SOL     OW84477  11.896   1.069   6.242 -0.5441 -0.3478 -0.1868
59547SOL    HW184478  11.976   1.051   6.292 -0.3169 -1.1730 -0.8220
59547SOL    HW284479  11.842   1.122   6.301 -0.1586 -1.0546  0.8284
59548SOL     OW84480   1.777   4.961   9.664 -0.0516 -0.2951  0.1764
59548SOL    HW184481   1.777   5.053   9.690 -0.9461 -0.5505  1.2114
59548SOL    HW284482   1.865   4.944   9.632  0.2579  0.8068  0.4093
59549SOL     OW84483   2.545   8.056   2.342 -0.2126 -0.1753  0.0599
59549SOL    HW184484   2.627   8.048   2.390 -0.4866 -0.8841  0.4276
59549SOL    HW284485   2.571   8.073   2.252  0.3054  2.5543  0.6509
59550SOL     OW84486  12.322   2.825   3.060 -0.2047  0.0439 -0.8452
59550SOL    HW184487  12.345   2.772   2.984  0.5845 -1.2624  0.2522
59550SOL    HW284488  12.367   2.908   3.046  1.5619 -0.8749 -0.9087
59551SOL     OW84489   9.007  10.556   9.028 -0.0884  0.5037 -0.0310
59551SOL    HW184490   9.060  10.541   9.107  2.6203  1.4151 -1.5204
59551SOL    HW284491   8.917  10.541   9.055  0.9656 -1.8962  2.5402
59552SOL     OW84492   1.068   9.989   4.925 -0.6628  0.0946 -0.2985
59552SOL    HW184493   1.080   9.924   4.994 -0.1916  2.1602  1.7092
59552SOL    HW284494   0.973   9.993   4.911 -0.6386 -1.6763 -1.1998
59553SOL     OW84495   1.715   6.682   4.476  0.3543  0.1655  0.1968
59553SOL    HW184496   1.659   6.629   4.420 -1.0706  0.8564  0.8909
59553SOL    HW284497   1.789   6.625   4.497  0.8331 -0.1826 -2.1558
59554SOL     OW84498   5.877   9.247   2.172 -0.5832  0.4544 -0.2301
59554SOL    HW184499   5.873   9.328   2.120 -1.9426 -0.5569 -1.8343
59554SOL    HW284500   5.892   9.276   2.261  0.0687  2.4115 -0.9283
59555SOL     OW84501  10.401   2.629  10.148  0.6499 -0.0724  0.3466
59555SOL    HW184502  10.363   2.657  10.231 -0.9383  1.4474 -0.8280
59555SOL    HW284503  10.443   2.545  10.168  0.1495  0.1504  2.6107
59556SOL     OW84504   3.866   1.573  10.138 -0.0273  0.2639  0.0912
59556SOL    HW184505   3.889   1.488  10.101  0.6912  0.7639 -0.6636
59556SOL    HW284506   3.783   1.558  10.184 -1.4067 -0.2380 -2.3679
59557SOL     OW84507  11.190   2.646   1.807  0.2132 -0.4545  0.0008
59557SOL    HW184508  11.112   2.650   1.752 -1.7514  0.9113  2.6653
59557SOL    HW284509  11.251   2.708   1.768 -2.1726  2.5768  0.7202
59558SOL     OW84510   6.493   2.953   7.316 -0.1715 -0.1233 -0.2109
59558SOL    HW184511   6.586   2.960   7.333  0.0016 -1.6678 -0.3465
59558SOL    HW284512   6.485   2.948   7.221 -0.4283  0.4406 -0.2206
59559SOL     OW84513   2.899  12.261   7.692  0.8118 -0.0474  0.0128
59559SOL    HW184514   2.879  12.276   7.784  1.8298 -0.3686  0.3110
59559SOL    HW284515   2.975  12.317   7.674  2.4798 -2.0757  0.2075
59560SOL     OW84516   3.718   6.043   4.478  0.5553  0.0355  1.1520
59560SOL    HW184517   3.797   6.066   4.429 -0.1392 -0.6283 -0.3660
59560SOL    HW284518   3.701   5.952   4.453 -2.2567  0.9949 -0.8858
59561SOL     OW84519  11.495   3.673   2.373 -0.2905  0.2628  0.0643
59561SOL    HW184520  11.539   3.656   2.290 -0.7865 -0.7432 -0.0046
59561SOL    HW284521  11.524   3.761   2.398  1.1805 -0.0776 -0.3485
59562SOL     OW84522   2.894  11.191  10.758  0.4512 -0.4730 -0.1166
59562SOL    HW184523   2.844  11.123  10.713 -0.9285  0.5090 -0.1389
59562SOL    HW284524   2.919  11.253  10.690 -1.4028  0.8715  0.3367
59563SOL     OW84525   2.419  10.874   5.426  0.4510 -0.1007  0.4449
59563SOL    HW184526   2.374  10.885   5.342  1.4132 -1.9709 -0.3878
59563SOL    HW284527   2.421  10.779   5.440  1.6811  0.0897  1.8136
59564SOL     OW84528  11.062  11.610   9.600  0.0995  0.0117 -1.3060
59564SOL    HW184529  11.119  11.603   9.676  0.1818  1.5382 -1.1972
59564SOL    HW284530  11.087  11.692   9.558 -1.0285 -0.0048 -2.0688
59565SOL     OW84531   7.770   6.073   5.779 -0.2967 -0.1404 -0.5686
59565SOL    HW184532   7.730   6.007   5.836  0.2221  0.2880  0.3231
59565SOL    HW284533   7.715   6.150   5.790 -0.0888 -0.0014 -0.5039
59566SOL     OW84534   8.502   9.483   6.241  0.5715 -0.8095  0.1617
59566SOL    HW184535   8.512   9.414   6.176  1.6049 -0.7465  0.2276
59566SOL    HW284536   8.445   9.548   6.200  0.1267 -1.3873 -0.1510
59567SOL     OW84537   6.420   2.410   0.356 -0.4492  0.9092  0.6296
59567SOL    HW184538   6.454   2.441   0.440  1.0879 -2.0649  1.2327
59567SOL    HW284539   6.345   2.355   0.380 -0.7752  1.0473 -0.0671
59568SOL     OW84540   5.582   1.847   8.264 -0.6657 -0.0669  0.0968
59568SOL    HW184541   5.529   1.823   8.188 -0.1476  0.7266 -0.5298
59568SOL    HW284542   5.611   1.763   8.300 -0.8488 -0.4539 -0.6348
59569SOL     OW84543  12.015   2.472   7.758  0.2911 -0.0603  0.2736
59569SOL    HW184544  11.982   2.431   7.678 -1.8116 -0.2937  1.1891
59569SOL    HW284545  12.028   2.399   7.819  0.4694  0.2483  0.6113
59570SOL     OW84546  10.290  10.167  10.021  0.2638 -0.1167 -0.3441
59570SOL    HW184547  10.339  10.166  10.103  1.0253 -0.6737 -0.7936
59570SOL    HW284548  10.209  10.120  10.041 -2.1724  4.3030  1.5875
59571SOL     OW84549   5.806   4.339   5.554  0.4199  0.3863  0.6975
59571SOL    HW184550   5.803   4.247   5.582 -2.0085  0.5654  1.2565
59571SOL    HW284551   5.758   4.340   5.471 -0.2476  1.2315  1.0743
59572SOL     OW84552  11.569   2.894   9.722 -0.1777  0.8140 -0.0203
59572SOL    HW184553  11.622   2.899   9.642 -1.9118  1.7115 -1.1708
59572SOL    HW284554  11.544   2.985   9.739 -1.3352  0.4067  0.4956
59573SOL     OW84555   8.790   1.649  11.604 -0.2057  0.1477 -0.2961
59573SOL    HW184556   8.720   1.638  11.540  0.1896  0.3213 -0.7649
59573SOL    HW284557   8.745   1.666  11.687 -0.7140  0.2146 -0.5849
59574SOL     OW84558  10.371   7.800   2.336  0.1404 -0.0955  0.5368
59574SOL    HW184559  10.297   7.746   2.310  0.1588  0.0191  0.2434
59574SOL    HW284560  10.338   7.890   2.334  0.1716 -0.0772  0.8073
59575SOL     OW84561   9.004   5.844   1.161  0.0354  0.2219 -0.3739
59575SOL    HW184562   9.053   5.766   1.136  0.2913 -0.6790  2.5959
59575SOL    HW284563   8.930   5.846   1.101  0.9304 -1.3082 -1.6135
59576SOL     OW84564   7.464   0.240   0.082 -0.5661  0.0711 -0.0658
59576SOL    HW184565   7.527   0.188   0.132  0.7910  1.0543 -0.6704
59576SOL    HW284566   7.399   0.177   0.050 -0.7123 -0.7690  1.7746
59577SOL     OW84567  12.188   8.290   6.348 -0.0123 -0.0365  0.0355
59577SOL    HW184568  12.215   8.222   6.286 -0.0851 -0.9321  0.9512
59577SOL    HW284569  12.114   8.251   6.395 -0.6885  1.0627 -0.0803
59578SOL     OW84570  11.312   3.976   2.363  0.1330 -0.1123  0.1974
59578SOL    HW184571  11.277   3.928   2.438 -0.5441  1.7111  1.1055
59578SOL    HW284572  11.406   3.957   2.364  0.0648 -0.4791  1.2208
59579SOL     OW84573   4.423   3.704  10.415 -0.6184  0.6665 -0.2308
59579SOL    HW184574   4.398   3.699  10.507 -0.7076 -1.1346 -0.3105
59579SOL    HW284575   4.454   3.793  10.403 -0.8080  0.9957  1.4870
59580SOL     OW84576  11.112   0.132   0.352 -0.2531 -0.8645 -0.4861
59580SOL    HW184577  11.019   0.146   0.335 -0.8517 -2.0305  1.5651
59580SOL    HW284578  11.136   0.204   0.411 -0.6137 -2.1456  1.2848
59581SOL     OW84579   1.899   1.553   3.761  0.7795  0.3036  0.4063
59581SOL    HW184580   1.944   1.630   3.795  2.5095  0.0121 -1.0836
59581SOL    HW284581   1.937   1.479   3.808  0.8373  0.1627  0.1400
59582SOL     OW84582  10.417   8.796   5.707  0.6347  0.5991 -0.2079
59582SOL    HW184583  10.457   8.881   5.726  0.5250  0.6355 -0.1360
59582SOL    HW284584  10.487   8.732   5.722  0.5105  0.6133  0.4803
59583SOL     OW84585   4.112   5.117   7.407  0.5571  0.1986  0.2245
59583SOL    HW184586   4.070   5.090   7.490 -0.9414  0.1650 -0.5038
59583SOL    HW284587   4.101   5.041   7.350 -1.1960  1.2864 -0.9589
59584SOL     OW84588   9.813  11.982   4.701 -0.3703 -0.9037 -0.1148
59584SOL    HW184589   9.881  11.916   4.719  0.6752  0.4810  1.3216
59584SOL    HW284590   9.839  12.021   4.618  0.7021 -0.3354  0.4523
59585SOL     OW84591   1.285  10.334   5.103 -0.4038  0.2195 -0.0443
59585SOL    HW184592   1.244  10.301   5.023 -2.2462  1.4265  0.3306
59585SOL    HW284593   1.211  10.359   5.159  0.8470  0.0174  1.7831
59586SOL     OW84594   2.501   3.003   3.488 -0.4729 -0.0111  0.2692
59586SOL    HW184595   2.557   2.926   3.475  0.6060  0.6192  1.0445
59586SOL    HW284596   2.422   2.968   3.530 -0.7537 -0.9281 -0.9501
59587SOL     OW84597   3.822   3.804   0.645  0.8289 -0.5256 -0.0395
59587SOL    HW184598   3.854   3.823   0.557  0.5654  0.7741  0.1335
59587SOL    HW284599   3.792   3.888   0.679 -0.7607 -1.3018  0.6128
59588SOL     OW84600  12.230   5.360  11.860  0.0187  0.1168 -0.6289
59588SOL    HW184601  12.219   5.293  11.928  0.0406  1.3843  0.6835
59588SOL    HW284602  12.180   5.327  11.786 -0.4179 -1.0917  0.1616
59589SOL     OW84603   7.769  10.960   1.217 -0.4273  0.3902 -0.2237
59589SOL    HW184604   7.838  10.899   1.189  0.1356 -0.2924  2.4214
59589SOL    HW284605   7.816  11.033   1.256 -1.0435 -0.8832  3.2608
59590SOL     OW84606   1.225   1.579   4.499 -0.0898  0.3343 -0.3724
59590SOL    HW184607   1.133   1.554   4.513 -0.1048  0.5446 -0.0908
59590SOL    HW284608   1.222   1.674   4.488 -0.2158  0.1219 -2.8119
59591SOL     OW84609  12.259   5.954   4.391 -0.5664 -0.2549  0.3588
59591SOL    HW184610  12.261   5.868   4.433 -1.8059 -0.5743 -0.1798
59591SOL    HW284611  12.173   5.958   4.349 -0.9245  1.6310  1.1798
59592SOL     OW84612   1.708   2.147  10.016  0.3389  0.3687 -0.5336
59592SOL    HW184613   1.663   2.220   9.973 -0.6823 -0.6917 -1.3232
59592SOL    HW284614   1.663   2.136  10.100  0.6895  0.8162 -0.2807
59593SOL     OW84615   4.336   8.877   9.865 -0.2660  0.5143 -0.3799
59593SOL    HW184616   4.387   8.826   9.802  2.6210  1.1272  1.2441
59593SOL    HW284617   4.295   8.946   9.814  0.6046  0.0047 -1.8189
59594SOL     OW84618   9.148  10.277   1.174  0.7183 -0.8824 -0.0498
59594SOL    HW184619   9.113  10.315   1.094  0.2773 -2.0074 -0.4096
59594SOL    HW284620   9.229  10.325   1.191  0.8300 -0.6625 -1.1807
59595SOL     OW84621   9.804   1.398   2.664  0.1398 -0.0218  0.0302
59595SOL    HW184622   9.743   1.403   2.738  0.4445  0.5519  0.2472
59595SOL    HW284623   9.823   1.489   2.642 -1.9850 -0.0736 -2.4865
59596SOL     OW84624  12.219   7.683   6.172  0.0307  0.0240  0.0608
59596SOL    HW184625  12.200   7.602   6.125  0.8113 -0.1083 -0.0533
59596SOL    HW284626  12.268   7.736   6.109 -1.4461  1.0729 -0.2574
59597SOL     OW84627   2.700  11.772   1.262  0.0811  0.1629 -0.1134
59597SOL    HW184628   2.628  11.742   1.317  0.5951 -1.5096 -0.3018
59597SOL    HW284629   2.771  11.711   1.281  1.2383  1.3796 -0.4285
59598SOL     OW84630   4.590   9.412  10.747  0.1107  0.2083 -0.2167
59598SOL    HW184631   4.666   9.365  10.783  0.9255  1.5948 -0.0238
59598SOL    HW284632   4.589   9.495  10.795 -0.2916  1.0697 -1.6512
59599SOL     OW84633   7.618   3.778   2.485 -0.2240 -0.3189 -0.4724
59599SOL    HW184634   7.684   3.756   2.551 -0.6270  0.3130  0.1467
59599SOL    HW284635   7.670   3.806   2.409  0.2266 -0.0506 -0.0732
59600SOL     OW84636   6.324   9.043   6.087 -0.6285  0.1929  0.6371
59600SOL    HW184637   6.337   9.136   6.073  3.4376 -0.5550 -2.2573
59600SOL    HW284638   6.339   9.030   6.180  0.4592  2.2260  0.7942
59601SOL     OW84639  11.959   4.436  10.503 -0.6731 -0.0726 -0.0304
59601SOL    HW184640  11.932   4.517  10.546  0.8609 -0.2600  1.3809
59601SOL    HW284641  11.935   4.367  10.565  0.1638 -0.4806 -0.1389
59602SOL     OW84642   9.527   9.534   1.295 -0.5914  0.4938 -0.1546
59602SOL    HW184643   9.477   9.500   1.369 -0.2933  1.1788  0.3773
59602SOL    HW284644   9.468   9.527   1.220 -0.8843 -0.2391  0.1401
59603SOL     OW84645  11.603   7.781   2.631  0.1202 -1.0809  0.0021
59603SOL    HW184646  11.534   7.744   2.576  1.3029  0.3436 -2.6389
59603SOL    HW284647  11.684   7.744   2.597  0.8532 -0.9268  1.5012
59604SOL     OW84648   6.102   4.270   7.413 -0.1696 -0.2043 -0.2458
59604SOL    HW184649   6.161   4.202   7.378 -1.5915 -2.3676  1.3178
59604SOL    HW284650   6.028   4.270   7.352 -0.0919  0.0711 -0.3390
59605SOL     OW84651   9.579   2.607   7.320  0.0447 -0.5808 -0.1849
59605SOL    HW184652   9.630   2.685   7.341 -0.0757 -0.9440  1.5676
59605SOL    HW284653   9.535   2.629   7.238  1.6075  0.3982 -0.8000
59606SOL     OW84654   9.376   9.286   2.013  0.5163 -0.0556 -0.1958
59606SOL    HW184655   9.442   9.293   2.082  0.3944  0.4174 -0.1233
59606SOL    HW284656   9.292   9.300   2.058  0.3920 -0.3049 -0.3463
59607SOL     OW84657   6.129   6.727  10.407 -0.4721  0.6022 -0.3580
59607SOL    HW184658   6.079   6.785  10.464  1.1776  0.1368  1.7069
59607SOL    HW284659   6.084   6.643  10.412 -1.6441  1.1248 -1.6422
59608SOL     OW84660   8.297   2.789   7.439  0.2336  0.3019 -0.3636
59608SOL    HW184661   8.372   2.732   7.458 -0.0950 -0.2968 -0.7921
59608SOL    HW284662   8.282   2.838   7.520  0.2423 -0.5590  0.1705
59609SOL     OW84663   1.336   6.499  11.898 -0.9671  0.5303  0.6193
59609SOL    HW184664   1.313   6.420  11.947  3.2827 -0.1146  1.9965
59609SOL    HW284665   1.363   6.468  11.812  0.4843  0.4503  1.0836
59610SOL     OW84666   9.570   0.860   7.500  0.1014  0.2080  0.4252
59610SOL    HW184667   9.521   0.930   7.545 -0.9080 -1.0330  1.3172
59610SOL    HW284668   9.626   0.823   7.568 -0.8629 -1.1765  0.4929
59611SOL     OW84669   6.021   6.072   9.325 -0.2050 -0.1719  0.5473
59611SOL    HW184670   6.063   6.058   9.240 -0.9010 -1.7497  0.4217
59611SOL    HW284671   6.093   6.094   9.384  0.7129 -1.8840  0.1381
59612SOL     OW84672  11.141   3.405   7.151  0.3024  0.3386 -0.2149
59612SOL    HW184673  11.045   3.403   7.148  0.3185 -0.0483 -0.7804
59612SOL    HW284674  11.163   3.356   7.230  0.0548 -0.8983 -0.8820
59613SOL     OW84675   8.240   6.964   6.829 -0.2172 -0.0130  0.4822
59613SOL    HW184676   8.194   6.968   6.745 -0.1865  0.8695  0.5020
59613SOL    HW284677   8.282   6.878   6.828  0.4346  0.2849 -0.7557
59614SOL     OW84678   7.550   5.203   7.553 -0.3232 -0.2078  0.2282
59614SOL    HW184679   7.539   5.203   7.458 -0.8950 -0.4714  0.2933
59614SOL    HW284680   7.621   5.140   7.569 -1.1129 -1.1545  0.0721
59615SOL     OW84681   6.518   2.628   6.717  0.2856  0.4368  0.4622
59615SOL    HW184682   6.481   2.577   6.789 -0.5879 -0.5534 -0.6273
59615SOL    HW284683   6.600   2.583   6.695  0.2315  0.3495  0.4361
59616SOL     OW84684   2.390  11.058   4.671  0.2744 -0.0087  0.3858
59616SOL    HW184685   2.322  11.018   4.724  1.1222  0.7681  2.1335
59616SOL    HW284686   2.377  11.152   4.681  1.0239  0.1534 -0.0478
59617SOL     OW84687  10.796   2.990   4.120 -0.4171  0.4752 -0.4467
59617SOL    HW184688  10.886   3.020   4.108 -0.9301  1.5583 -1.8323
59617SOL    HW284689  10.784   2.988   4.215  0.5170  1.9869 -0.2611
59618SOL     OW84690  10.358   2.216   9.843  0.0074  0.9057  0.5248
59618SOL    HW184691  10.363   2.297   9.894 -0.0515  1.8585 -0.9304
59618SOL    HW284692  10.351   2.245   9.752 -1.6654 -0.7239  0.0793
59619SOL     OW84693   4.922   5.427   7.339  0.4262  0.2074  0.1650
59619SOL    HW184694   4.868   5.386   7.406  1.1145  0.6392  1.0124
59619SOL    HW284695   4.953   5.355   7.284 -0.5862 -0.0918 -0.0317
59620SOL     OW84696  11.687   3.259   9.643  0.0528 -0.2354 -0.9202
59620SOL    HW184697  11.640   3.219   9.717 -0.2002  0.1730 -0.8608
59620SOL    HW284698  11.779   3.245   9.664 -0.0150 -2.0320 -1.5741
59621SOL     OW84699   8.655   0.565   2.620 -0.4842 -0.2194  0.1156
59621SOL    HW184700   8.625   0.536   2.706 -3.8593  0.0500 -0.8283
59621SOL    HW284701   8.658   0.660   2.626  1.0374 -0.2573  0.3872
59622SOL     OW84702   3.011   8.850   4.094 -0.2740  0.3453  0.4135
59622SOL    HW184703   2.967   8.802   4.023 -0.2540 -1.2144  1.4090
59622SOL    HW284704   2.985   8.941   4.080 -1.8489 -0.1818 -0.4567
59623SOL     OW84705  11.585   6.912   2.274 -0.5172  0.4589  0.5417
59623SOL    HW184706  11.551   6.928   2.362  0.5900  0.8778  0.9095
59623SOL    HW284707  11.600   6.817   2.271 -0.7693  0.4103  0.7124
59624SOL     OW84708   6.607   2.882   9.831 -0.0367 -0.0758 -0.0322
59624SOL    HW184709   6.610   2.795   9.793  1.7418  0.5128 -1.3969
59624SOL    HW284710   6.696   2.897   9.863 -0.2316  1.3386 -0.0730
59625SOL     OW84711  10.202   3.306   0.342 -0.4757  0.4779  1.1007
59625SOL    HW184712  10.277   3.359   0.313 -0.9386  0.7043  0.2728
59625SOL    HW284713  10.216   3.221   0.300 -0.5963  0.4648  1.0886
59626SOL     OW84714   6.160   4.871   9.679  0.3044  0.3747 -0.4920
59626SOL    HW184715   6.123   4.845   9.594 -0.2226 -1.6132  0.2765
59626SOL    HW284716   6.089   4.918   9.722  0.2902  0.6751 -0.8361
59627SOL     OW84717   4.445   5.586   6.687 -0.1375  0.0783  0.4261
59627SOL    HW184718   4.442   5.598   6.592  1.2860 -2.0053  0.0417
59627SOL    HW284719   4.479   5.669   6.721  2.0009 -0.0443 -1.2049
59628SOL     OW84720   9.469   2.253   2.254 -0.2976 -0.5244  0.3039
59628SOL    HW184721   9.542   2.194   2.269 -0.0823 -0.3893 -0.1812
59628SOL    HW284722   9.398   2.219   2.309  0.2051 -0.5028  0.9721
59629SOL     OW84723   2.052   5.919   0.491  0.5175 -0.4423 -0.2636
59629SOL    HW184724   2.029   5.859   0.563 -0.8289  1.0969  0.6755
59629SOL    HW284725   2.007   6.000   0.513  1.3732  0.5816 -2.0727
59630SOL     OW84726  11.929   3.370   3.981  0.5281 -0.2196  0.2631
59630SOL    HW184727  11.979   3.446   3.949 -0.7390  0.6818  0.3533
59630SOL    HW284728  11.839   3.401   3.986 -0.1189 -1.9169 -0.2239
59631SOL     OW84729   3.210   1.043   3.642  0.2892 -0.1097  0.7535
59631SOL    HW184730   3.137   1.102   3.623  2.0185  1.1044 -3.2310
59631SOL    HW284731   3.185   0.961   3.598  0.7678 -0.0597  0.3729
59632SOL     OW84732   6.469   2.274   7.891 -0.4419 -0.4418 -0.0015
59632SOL    HW184733   6.384   2.262   7.932 -0.7203  0.9263 -0.1613
59632SOL    HW284734   6.454   2.336   7.820  0.5814 -0.5952 -0.3750
59633SOL     OW84735   1.578   6.556  12.179  0.3366  0.0305 -0.6414
59633SOL    HW184736   1.496   6.588  12.215  0.1211 -1.0397 -0.1705
59633SOL    HW284737   1.559   6.468  12.147  0.4411  0.9720 -3.6310
59634SOL     OW84738   2.271  11.232   0.492 -0.2295 -0.0325 -0.0427
59634SOL    HW184739   2.299  11.231   0.584  0.0132 -0.0288 -0.1141
59634SOL    HW284740   2.352  11.251   0.443 -0.4817  0.6228 -0.2097
59635SOL     OW84741   4.284   6.333   5.934  0.1573  0.3922  0.0151
59635SOL    HW184742   4.275   6.428   5.939 -2.8330  0.2301 -0.2970
59635SOL    HW284743   4.216   6.299   5.992 -1.0169 -1.4929 -2.2743
59636SOL     OW84744  11.220   5.883   8.710 -0.0248 -0.2924 -0.3483
59636SOL    HW184745  11.208   5.832   8.630 -2.0412 -2.1361  0.9900
59636SOL    HW284746  11.277   5.828   8.764 -1.3593 -0.6827  0.7093
59637SOL     OW84747   3.889   2.927   2.022  0.0816  0.2799  0.2398
59637SOL    HW184748   3.804   2.882   2.017  0.0425  0.1792  1.5242
59637SOL    HW284749   3.913   2.943   1.931 -2.2190  1.9989 -0.1618
59638SOL     OW84750  12.212   8.355   2.521 -0.3015 -0.6359  0.6026
59638SOL    HW184751  12.204   8.339   2.427 -2.5159 -0.7947  0.7709
59638SOL    HW284752  12.129   8.397   2.546 -0.1082 -1.3393  2.6289
59639SOL     OW84753   6.013  11.095   3.066  0.3915 -0.5458  0.8011
59639SOL    HW184754   5.923  11.130   3.061  0.5000 -0.3856 -0.3377
59639SOL    HW284755   6.060  11.160   3.118  0.4710  0.8208 -0.8739
59640SOL     OW84756   7.976   0.365   4.446  0.4990  0.2925  0.3461
59640SOL    HW184757   7.973   0.301   4.517 -2.0811 -1.3268 -1.0582
59640SOL    HW284758   7.901   0.423   4.461 -0.6961 -0.6688 -1.4566
59641SOL     OW84759   2.340   4.596   2.089 -0.2381  0.3619 -0.2039
59641SOL    HW184760   2.302   4.634   2.010 -1.3280 -0.0210  0.1241
59641SOL    HW284761   2.404   4.532   2.056  1.0960  1.9026 -0.7584
59642SOL     OW84762   5.781   9.316   0.946 -0.2200  0.3939 -0.5842
59642SOL    HW184763   5.835   9.241   0.971 -0.9209 -0.2552 -0.9591
59642SOL    HW284764   5.692   9.289   0.969 -0.3082  1.8371  0.9581
59643SOL     OW84765   7.513   6.501   3.634 -0.2231 -0.0206 -0.1043
59643SOL    HW184766   7.424   6.527   3.656  0.0558  1.4280 -0.5847
59643SOL    HW284767   7.569   6.564   3.679  0.7256 -2.1457  1.9591
59644SOL     OW84768   6.314   7.012   3.773  0.0589  0.3923 -0.1034
59644SOL    HW184769   6.395   7.012   3.823 -0.0456  1.1331  0.0665
59644SOL    HW284770   6.306   7.101   3.739 -0.3855  0.1701 -0.6082
59645SOL     OW84771   7.905   5.338   1.574 -0.4127 -0.0103 -0.0700
59645SOL    HW184772   7.852   5.297   1.506  0.2718 -0.2178 -0.4901
59645SOL    HW284773   7.893   5.283   1.651 -1.0080  0.0934 -0.0836
59646SOL     OW84774   9.851  10.383   5.651 -0.1929  0.2881 -0.0007
59646SOL    HW184775   9.933  10.350   5.687 -0.5621 -0.0111  0.5795
59646SOL    HW284776   9.838  10.467   5.695 -0.4303  0.1181  0.2614
59647SOL     OW84777  10.820   1.913   8.411 -0.0224 -0.2275 -0.1422
59647SOL    HW184778  10.728   1.939   8.411  0.1834  0.5367 -0.7300
59647SOL    HW284779  10.822   1.831   8.460 -0.8465  0.3479  0.8877
59648SOL     OW84780   3.245   8.325   1.533 -0.2299 -0.2186  0.1422
59648SOL    HW184781   3.306   8.394   1.508 -0.6776  0.2322  0.2811
59648SOL    HW284782   3.300   8.259   1.576 -0.0343  0.9282  1.7852
59649SOL     OW84783   3.317   5.371   0.214 -0.4001 -0.1670 -0.0409
59649SOL    HW184784   3.364   5.325   0.284 -0.8817  0.1854  0.5223
59649SOL    HW284785   3.260   5.305   0.175  0.6022 -0.6241 -0.7879
59650SOL     OW84786   9.092   5.525   0.993  0.1694  0.6055 -0.2738
59650SOL    HW184787   9.058   5.447   0.949  0.7234 -0.4683  1.1182
59650SOL    HW284788   9.145   5.491   1.065  0.5064  2.2763  0.3211
59651SOL     OW84789   4.561   2.559  11.877 -0.0591 -0.2799 -0.3136
59651SOL    HW184790   4.501   2.505  11.825  1.1330 -0.7055 -1.3084
59651SOL    HW284791   4.622   2.496  11.914 -0.7385  0.0516  1.4340
59652SOL     OW84792   3.767  11.088  12.003 -0.0081 -0.4194  0.1329
59652SOL    HW184793   3.773  11.042  11.919 -0.6583  0.0561 -0.1928
59652SOL    HW284794   3.693  11.148  11.991  0.2629  0.0681  0.8491
59653SOL     OW84795   4.611   6.951  12.077 -0.4579  0.2182  0.2938
59653SOL    HW184796   4.628   7.041  12.104 -1.0863 -0.3672  2.8753
59653SOL    HW284797   4.524   6.954  12.038 -0.6413  0.6797  0.7251
59654SOL     OW84798   4.088   3.926  11.833  0.0276  0.1423 -0.3444
59654SOL    HW184799   4.091   3.844  11.883 -2.6298  0.3381  0.2604
59654SOL    HW284800   4.086   3.995  11.899  1.2494  0.6947 -0.8405
59655SOL     OW84801   5.128   7.317   7.290 -0.2026 -0.1437  0.2772
59655SOL    HW184802   5.084   7.232   7.293 -1.3221  0.3831 -0.6198
59655SOL    HW284803   5.116   7.347   7.200  1.8455  0.1173  0.0299
59656SOL     OW84804  11.575   7.404   8.677 -0.4458  0.2006 -0.2883
59656SOL    HW184805  11.606   7.495   8.676 -2.3339  0.8871 -0.5515
59656SOL    HW284806  11.574   7.378   8.585 -0.7503  0.2336 -0.2961
59657SOL     OW84807   9.649   9.537   5.318 -0.0879 -0.1333 -0.6672
59657SOL    HW184808   9.711   9.521   5.246 -1.2041 -1.1173 -1.4539
59657SOL    HW284809   9.613   9.623   5.299 -0.1544 -0.2599 -1.1328
59658SOL     OW84810   6.155   4.148   6.959 -0.5778 -0.1582 -0.2290
59658SOL    HW184811   6.167   4.072   6.903 -1.5524 -0.1004 -0.5352
59658SOL    HW284812   6.244   4.177   6.981 -0.1295 -2.5740  1.5245
59659SOL     OW84813   2.362   5.672   2.478  0.4549 -0.3006  0.6424
59659SOL    HW184814   2.294   5.730   2.512 -1.1247 -1.4165 -0.4073
59659SOL    HW284815   2.421   5.730   2.430 -1.5102  0.4363 -1.0563
59660SOL     OW84816   2.397   4.486   0.385  0.5164  0.0636 -0.2433
59660SOL    HW184817   2.437   4.442   0.310  2.0682 -1.6010  1.4219
59660SOL    HW284818   2.469   4.535   0.425 -0.0164  0.1198  0.6750
59661SOL     OW84819   1.046   3.713   1.428 -0.1961  0.0533  0.0043
59661SOL    HW184820   0.995   3.778   1.477 -0.3145 -2.0766  2.9426
59661SOL    HW284821   1.135   3.720   1.464 -0.3859 -1.8719  0.9570
59662SOL     OW84822  10.637   8.487   8.782  0.5206 -0.1856  0.1124
59662SOL    HW184823  10.716   8.485   8.728 -0.0776  0.9611 -0.8566
59662SOL    HW284824  10.661   8.542   8.857  0.2625  1.4208 -0.9138
59663SOL     OW84825   1.110   9.522   2.077 -0.5531 -0.1897  0.2149
59663SOL    HW184826   1.161   9.490   2.002 -0.7525 -0.0668  0.0280
59663SOL    HW284827   1.147   9.475   2.152  1.7171  1.8319  0.5154
59664SOL     OW84828   7.044   9.642   5.576  0.3261  0.0186  0.0562
59664SOL    HW184829   6.956   9.653   5.613  0.4713  1.3327  0.0686
59664SOL    HW284830   7.058   9.548   5.574 -1.2799 -0.2338 -0.4070
59665SOL     OW84831  10.189   4.706   7.169 -0.8664  0.0644  0.5511
59665SOL    HW184832  10.243   4.634   7.136  0.8264  1.2356  0.6487
59665SOL    HW284833  10.099   4.679   7.152 -0.2680 -2.0031  0.4657
59666SOL     OW84834   5.595   2.761   9.438  0.0617 -0.1601 -0.3377
59666SOL    HW184835   5.563   2.698   9.503  0.5282  0.5751  0.6149
59666SOL    HW284836   5.516   2.790   9.393 -0.0734 -2.2405 -1.5855
59667SOL     OW84837   5.596  11.039   5.423 -0.2294  0.1924 -0.1336
59667SOL    HW184838   5.584  11.132   5.402 -0.5965 -0.2143 -1.8857
59667SOL    HW284839   5.509  11.008   5.446 -0.1694  0.1903  0.0961
59668SOL     OW84840   6.895   7.192  11.682 -0.2377  0.2837  0.1509
59668SOL    HW184841   6.840   7.115  11.667 -0.4364  0.4477  0.0383
59668SOL    HW284842   6.974   7.157  11.724 -0.8020  0.1515  1.1508
59669SOL     OW84843   4.209   5.411   6.678 -0.1588  0.2906 -0.3726
59669SOL    HW184844   4.286   5.468   6.675 -0.9812  1.3892 -1.4210
59669SOL    HW284845   4.157   5.437   6.603 -1.5225 -0.4889  0.2695
59670SOL     OW84846   8.677   6.467   8.906 -0.5512  0.4088 -0.2355
59670SOL    HW184847   8.610   6.456   8.973 -0.6484 -0.5000 -0.4657
59670SOL    HW284848   8.745   6.404   8.929 -0.5266  0.1832 -0.9161
59671SOL     OW84849  10.188   7.327  11.898 -0.8328 -0.3993  0.0700
59671SOL    HW184850  10.172   7.422  11.900 -1.5431 -0.4599 -1.2590
59671SOL    HW284851  10.170   7.298  11.987 -1.6551  0.5681  0.2504
59672SOL     OW84852   4.588   4.448   5.146 -0.0070  0.0009 -0.0675
59672SOL    HW184853   4.495   4.466   5.164 -0.6417 -1.6265 -1.3883
59672SOL    HW284854   4.614   4.516   5.085 -0.7577 -0.2846 -0.7358
59673SOL     OW84855   4.700   1.005  10.268  0.2445 -0.2580  0.2030
59673SOL    HW184856   4.657   0.919  10.275 -0.1116 -0.4380 -2.7527
59673SOL    HW284857   4.628   1.068  10.270  0.4540 -0.0190  1.6749
59674SOL     OW84858   6.971   3.520   8.998 -0.0489 -0.3832 -0.6850
59674SOL    HW184859   6.924   3.437   8.989 -1.3494  0.3307 -0.7343
59674SOL    HW284860   6.917   3.583   8.950  0.7429  0.5510 -0.3694
59675SOL     OW84861   7.985   5.001   7.709 -0.2579 -0.5891 -0.0560
59675SOL    HW184862   7.971   5.094   7.723  0.0149 -0.3127 -1.4225
59675SOL    HW284863   8.080   4.989   7.721 -0.3008 -0.6935  0.1713
59676SOL     OW84864  12.078   9.290   1.222  0.4081 -0.5568  0.0119
59676SOL    HW184865  12.163   9.250   1.204  1.3916  1.4539 -0.0879
59676SOL    HW284866  12.051   9.328   1.138 -0.9244 -1.6887 -0.1182
59677SOL     OW84867   0.772   8.938   5.578 -0.0370  0.1925  0.5748
59677SOL    HW184868   0.815   8.892   5.650 -0.9444  1.5883  2.1026
59677SOL    HW284869   0.679   8.916   5.588 -0.0680 -0.3656 -0.7926
59678SOL     OW84870  11.357   6.933  10.059  1.1607  0.4515  0.0871
59678SOL    HW184871  11.433   6.961  10.109  0.2564  2.1332  0.5890
59678SOL    HW284872  11.323   7.013  10.020  0.4293 -0.4707 -1.2587
59679SOL     OW84873   1.783   0.072   9.849  0.1327 -0.3791  0.0677
59679SOL    HW184874   1.814   0.108   9.932  2.6350 -0.7835 -0.6159
59679SOL    HW284875   1.813   0.134   9.783 -3.7594  1.1592 -0.5391
59680SOL     OW84876   2.770   8.250   3.741 -0.9336  0.0990 -0.1556
59680SOL    HW184877   2.685   8.281   3.772  0.4322  1.4401  2.5751
59680SOL    HW284878   2.824   8.330   3.736  1.0567 -1.0476  1.4378
59681SOL     OW84879   4.295   9.568   8.427 -0.1214 -0.1002  0.0598
59681SOL    HW184880   4.387   9.564   8.453  0.5766  0.2644 -2.0981
59681SOL    HW284881   4.276   9.661   8.418  0.1311 -0.1982 -1.9811
59682SOL     OW84882   8.631   9.238  12.215  0.5050 -0.0297  0.5108
59682SOL    HW184883   8.631   9.271  12.125  1.8712  0.1467  0.5559
59682SOL    HW284884   8.560   9.173  12.217 -1.0567  1.5758 -0.0628
59683SOL     OW84885   1.862   4.107  10.155 -0.2396 -0.1651 -0.6401
59683SOL    HW184886   1.913   4.121  10.075  1.0824  0.5869  0.2955
59683SOL    HW284887   1.775   4.140  10.134  0.7235  2.4007 -1.0175
59684SOL     OW84888   6.166   6.207   1.154 -0.1888  0.1979  0.1573
59684SOL    HW184889   6.233   6.160   1.204 -0.2614  0.4013  0.4500
59684SOL    HW284890   6.136   6.143   1.089 -1.8314 -0.9232  1.9221
59685SOL     OW84891   0.469   3.456   7.062  0.4224  0.5301  0.1416
59685SOL    HW184892   0.542   3.436   7.003  0.4247 -0.6087  0.5128
59685SOL    HW284893   0.497   3.536   7.108  0.4095  1.4643 -1.3883
59686SOL     OW84894   6.578   3.632   2.223 -0.2432  0.3347  0.3305
59686SOL    HW184895   6.492   3.591   2.223 -0.0105 -0.1699 -0.1862
59686SOL    HW284896   6.570   3.706   2.283 -1.2597  0.7626 -0.3075
59687SOL     OW84897   2.939   2.488   3.487 -0.6991 -0.1719  0.1286
59687SOL    HW184898   2.854   2.508   3.525 -0.2720 -0.0782  1.0503
59687SOL    HW284899   2.924   2.492   3.392 -1.4451  1.0014  0.2804
59688SOL     OW84900   0.172  10.170   6.366  0.0993  0.4256 -0.0339
59688SOL    HW184901   0.128  10.251   6.341  0.4120  0.3100 -1.0080
59688SOL    HW284902   0.252  10.168   6.313 -0.4206 -1.0105 -0.8467
59689SOL     OW84903   2.378   0.295   0.467 -0.5976  0.0698  0.7591
59689SOL    HW184904   2.308   0.231   0.449 -0.6824  0.3473  0.1014
59689SOL    HW284905   2.359   0.368   0.409  1.6896 -0.9021 -1.3751
59690SOL     OW84906  11.777   9.789   1.715 -0.8352 -0.1105  0.0627
59690SOL    HW184907  11.854   9.757   1.763  0.8012  4.0385  0.6296
59690SOL    HW284908  11.793   9.763   1.624  2.4336  2.1477 -0.2026
59691SOL     OW84909   8.492   8.882   4.083 -0.8062 -0.1388  0.0941
59691SOL    HW184910   8.513   8.968   4.046 -0.2623 -0.1632  0.3403
59691SOL    HW284911   8.553   8.871   4.156 -0.2058 -1.1637 -0.5448
59692SOL     OW84912   5.226   7.638   1.048  0.6455  0.5179  0.2129
59692SOL    HW184913   5.149   7.663   0.997  0.8150  2.0510  0.6764
59692SOL    HW284914   5.231   7.702   1.118  2.9381  1.1170 -0.4115
59693SOL     OW84915   1.781   8.107   9.021  0.0661 -0.1456  0.2918
59693SOL    HW184916   1.716   8.072   8.961 -2.4041  1.6285  1.7341
59693SOL    HW284917   1.802   8.194   8.987  0.9432 -0.2914  0.4171
59694SOL     OW84918   1.135  11.647   0.855 -0.1662 -0.2492 -0.2123
59694SOL    HW184919   1.041  11.645   0.837 -0.1711  0.5070 -0.2820
59694SOL    HW284920   1.142  11.659   0.949 -0.1401  0.3518 -0.2901
59695SOL     OW84921   4.465   9.749   2.638 -0.5443 -0.2433 -0.2472
59695SOL    HW184922   4.403   9.782   2.704  0.7561  0.3253  0.7348
59695SOL    HW284923   4.520   9.687   2.686  2.4152  2.4206  0.1091
59696SOL     OW84924   9.649   4.105   5.662 -0.5886  0.1427  0.2994
59696SOL    HW184925   9.685   4.079   5.747 -1.1687  0.6420  0.7096
59696SOL    HW284926   9.725   4.117   5.606 -0.2700 -1.9914  0.2107
59697SOL     OW84927  11.498   3.337   5.618  0.5886 -0.1110  0.3569
59697SOL    HW184928  11.478   3.318   5.526 -0.1356 -1.8764  0.8377
59697SOL    HW284929  11.461   3.424   5.633 -0.9275 -0.5624 -0.5512
59698SOL     OW84930   0.516  10.993   0.569  0.2089  0.2703  0.3968
59698SOL    HW184931   0.520  10.920   0.508  0.1694 -1.1038  1.9714
59698SOL    HW284932   0.589  11.049   0.544  1.0007 -0.9357 -0.0847
59699SOL     OW84933   1.798   3.742   2.896 -0.4957 -0.6099  0.0738
59699SOL    HW184934   1.824   3.774   2.810 -0.1469 -1.0082  0.0306
59699SOL    HW284935   1.717   3.694   2.880 -1.5215  0.9733  0.2695
59700SOL     OW84936   7.238  10.168   4.962  0.1325 -0.3275  0.7097
59700SOL    HW184937   7.245  10.263   4.954 -2.1798 -0.2722 -2.7712
59700SOL    HW284938   7.160  10.154   5.016 -0.0407 -0.2250  0.4878
59701SOL     OW84939   0.118   8.100   4.319 -0.6422  0.8524  0.1521
59701SOL    HW184940   0.143   8.009   4.334 -1.2654  0.8146  1.0615
59701SOL    HW284941   0.028   8.106   4.354 -0.7249  1.7284 -0.1926
59702SOL     OW84942   6.691   9.960   7.108  0.3585 -0.0628 -0.1594
59702SOL    HW184943   6.735   9.999   7.032  0.1297  0.4056 -0.0500
59702SOL    HW284944   6.708  10.021   7.179 -0.1836 -0.0553 -0.0383
59703SOL     OW84945  10.064   4.879   7.528  0.7689  0.1906 -0.0788
59703SOL    HW184946  10.034   4.877   7.619 -0.0438  0.5651 -0.3303
59703SOL    HW284947  10.123   4.804   7.520 -2.4786 -2.5695 -0.3787
59704SOL     OW84948   1.835   6.878   8.667 -0.1760 -0.0199  0.3955
59704SOL    HW184949   1.893   6.877   8.590  0.2269  0.2649  0.6935
59704SOL    HW284950   1.856   6.798   8.714 -2.0179 -1.3845 -0.9486
59705SOL     OW84951   5.932   3.876   0.050  0.5475  0.1325  0.0628
59705SOL    HW184952   6.026   3.889   0.040  0.5176 -0.2381 -0.7949
59705SOL    HW284953   5.892   3.950   0.005  0.4236  0.4841  0.7389
59706SOL     OW84954   9.055   8.754   4.448  0.1247 -0.0252  0.4255
59706SOL    HW184955   8.985   8.729   4.388  1.0502 -0.1846 -0.5936
59706SOL    HW284956   9.032   8.844   4.474 -0.4365 -0.0619  0.0749
59707SOL     OW84957   2.764   5.822   2.512  0.2491  0.4265 -1.0921
59707SOL    HW184958   2.782   5.728   2.504  2.0002  0.6271 -0.1147
59707SOL    HW284959   2.716   5.830   2.594 -0.7024  0.3150 -1.6248
59708SOL     OW84960   1.714   4.079   7.732  0.2634 -0.3567  0.5853
59708SOL    HW184961   1.674   3.993   7.740 -3.1836  0.7520 -2.0803
59708SOL    HW284962   1.657   4.127   7.672  3.2020  3.1075  0.1582
59709SOL     OW84963   6.101   1.614   3.600  0.1653 -0.1592  0.2540
59709SOL    HW184964   6.143   1.537   3.561  0.5134 -0.2578  0.8034
59709SOL    HW284965   6.141   1.621   3.687  0.2133  0.7102  0.1662
59710SOL     OW84966   8.448  11.128   0.466  1.2672 -0.0544 -0.4877
59710SOL    HW184967   8.411  11.079   0.393  2.2831 -0.5260 -0.6994
59710SOL    HW284968   8.416  11.083   0.544  0.0988  0.5076 -0.6148
59711SOL     OW84969   6.824  10.285   2.957  0.3056 -0.5053 -0.2788
59711SOL    HW184970   6.868  10.349   3.013 -0.9372  0.0704  0.0764
59711SOL    HW284971   6.793  10.218   3.018 -0.4140 -0.2464 -0.3476
59712SOL     OW84972  12.065   2.559   9.542 -0.4726 -0.2593  0.2578
59712SOL    HW184973  12.042   2.469   9.568 -1.2798 -0.5363 -1.3085
59712SOL    HW284974  12.147   2.550   9.494  0.6535  0.1643  2.0293
59713SOL     OW84975   7.445   9.122  11.548  0.0134  0.4078  0.1874
59713SOL    HW184976   7.488   9.072  11.618  3.5580 -0.5933 -2.4278
59713SOL    HW284977   7.477   9.211  11.560  0.9570  0.1537 -0.3348
59714SOL     OW84978  11.992   8.534   3.655 -0.0700 -0.2545 -0.2011
59714SOL    HW184979  11.984   8.553   3.749 -1.0989  1.6135 -0.6162
59714SOL    HW284980  12.058   8.596   3.624 -0.0447 -0.5724 -0.7872
59715SOL     OW84981   5.694  10.269  11.972  0.1683 -0.2988 -0.4672
59715SOL    HW184982   5.640  10.267  11.892  0.3109 -1.9041 -0.5428
59715SOL    HW284983   5.767  10.211  11.953  0.5112 -0.2356  0.6343
59716SOL     OW84984  11.883   9.759   1.033 -0.0297  0.2113  0.1027
59716SOL    HW184985  11.883   9.852   1.052 -0.3663  0.0967  0.6890
59716SOL    HW284986  11.840   9.719   1.108 -1.5060 -0.2576 -0.9302
59717SOL     OW84987  10.349   4.884   3.768  0.4243 -0.1723  0.1662
59717SOL    HW184988  10.274   4.853   3.717  0.6151  1.1560 -0.9853
59717SOL    HW284989  10.318   4.886   3.858 -0.9635  0.4409 -0.2986
59718SOL     OW84990  11.737   6.661   4.280  0.3524 -0.2589 -0.3605
59718SOL    HW184991  11.680   6.610   4.338  0.5003  0.1339  0.1378
59718SOL    HW284992  11.805   6.599   4.254  0.0039 -0.5785 -0.5200
59719SOL     OW84993   7.941  12.234   0.954  1.0343  0.4888 -0.3650
59719SOL    HW184994   7.862  12.287   0.941 -0.1803 -1.0146  0.5289
59719SOL    HW284995   8.000  12.291   1.003 -0.0325  1.1829  0.1575
59720SOL     OW84996   1.939   5.182   4.301  0.5068 -0.6163  0.3820
59720SOL    HW184997   1.880   5.126   4.252  0.3158 -0.0226 -0.0732
59720SOL    HW284998   2.022   5.177   4.254  0.7456 -1.2222  0.8562
59721SOL     OW84999   8.292   6.275   5.796 -0.1960  0.4988  0.6373
59721SOL    HW185000   8.324   6.217   5.726  1.2386  2.4066 -0.3873
59721SOL    HW285001   8.197   6.275   5.785 -0.1091 -0.4277 -0.3266
59722SOL     OW85002  11.884   7.642   7.642 -0.5039  0.2222  0.3414
59722SOL    HW185003  11.856   7.618   7.553 -1.2374  0.7510  0.4162
59722SOL    HW285004  11.857   7.568   7.696 -2.3667  0.9529  0.5041
59723SOL     OW85005   2.758   5.016   5.225 -0.4871  0.2861 -0.1001
59723SOL    HW185006   2.776   4.924   5.204  0.8334  0.6909 -0.9053
59723SOL    HW285007   2.809   5.065   5.161 -0.3639  1.5857  0.9435
59724SOL     OW85008  11.979  11.310   4.837 -0.0636 -0.2216 -0.3938
59724SOL    HW185009  11.978  11.225   4.793  0.4930  0.1991 -1.2544
59724SOL    HW285010  12.070  11.340   4.828 -0.1189  0.2026  0.4102
59725SOL     OW85011   1.431   8.738  12.020  0.8619 -0.1666 -0.0886
59725SOL    HW185012   1.366   8.667  12.019  2.0233 -1.2879  0.8720
59725SOL    HW285013   1.442   8.761  11.928  1.2722 -2.0438 -0.5628
59726SOL     OW85014   8.126   3.113  11.155  0.0745 -0.4893 -0.4133
59726SOL    HW185015   8.068   3.113  11.231 -0.0017  1.4209 -0.4346
59726SOL    HW285016   8.171   3.028  11.159 -0.3705 -0.6759  1.4000
59727SOL     OW85017   4.428   6.264   4.895 -0.0514  0.1356  0.0218
59727SOL    HW185018   4.506   6.319   4.891 -0.2495  0.4188  0.0314
59727SOL    HW285019   4.360   6.322   4.929 -0.1946 -0.1896  0.2938
59728SOL     OW85020   0.124   4.525   9.944 -0.2185  0.4284  0.5350
59728SOL    HW185021   0.112   4.513   9.850  1.0193  0.2211  0.3872
59728SOL    HW285022   0.104   4.440   9.983  0.6742  0.1018  0.3016
59729SOL     OW85023   0.505   6.609  11.393 -0.0415  0.3864  0.1901
59729SOL    HW185024   0.506   6.698  11.356 -0.1498  0.8594  1.2907
59729SOL    HW285025   0.549   6.556  11.327 -2.7415  0.6121 -2.0329
59730SOL     OW85026   3.588   9.510   3.044 -0.4913 -0.5993 -0.2402
59730SOL    HW185027   3.676   9.473   3.031 -0.2972 -0.8286  1.5437
59730SOL    HW285028   3.529   9.438   3.021 -0.2047 -0.7420 -0.5528
59731SOL     OW85029   1.249  10.920   1.661  0.6628  0.1921  0.2407
59731SOL    HW185030   1.295  10.841   1.691 -1.8706 -1.7737 -0.7398
59731SOL    HW285031   1.187  10.940   1.730  0.1615  0.3517 -0.2502
59732SOL     OW85032   5.916  12.153   4.881  0.0886 -0.3728  0.2600
59732SOL    HW185033   5.948  12.122   4.966  0.3331 -0.7470  0.0340
59732SOL    HW285034   5.960  12.097   4.817  0.2444  0.1972 -0.1371
59733SOL     OW85035   3.537   6.313  11.473  0.3389  0.4577 -0.1251
59733SOL    HW185036   3.554   6.220  11.457 -0.1756  0.7004 -2.5030
59733SOL    HW285037   3.465   6.314  11.536 -0.8778 -0.8591 -1.3975
59734SOL     OW85038   9.562   1.714   2.071  0.6600  0.3835 -0.4927
59734SOL    HW185039   9.633   1.687   2.130  1.3182 -1.4860 -2.0373
59734SOL    HW285040   9.557   1.644   2.006  0.0896  2.4141 -2.7869
59735SOL     OW85041   4.271   3.452   4.052 -0.4999  0.5273  0.2482
59735SOL    HW185042   4.265   3.468   4.146  1.1879 -0.7328  0.6319
59735SOL    HW285043   4.182   3.431   4.025 -1.0238  0.9901  1.5551
59736SOL     OW85044   3.780   1.949   4.455  0.4829 -0.2601  0.5212
59736SOL    HW185045   3.693   1.990   4.456  0.3018 -0.6180  0.0687
59736SOL    HW285046   3.764   1.860   4.487  0.9084  0.0821  1.7075
59737SOL     OW85047  10.687  11.412   8.605  0.2160 -0.3225 -0.5970
59737SOL    HW185048  10.776  11.389   8.578  0.6556 -1.8842  1.8894
59737SOL    HW285049  10.688  11.508   8.613  2.0526 -0.3816  0.4632
59738SOL     OW85050   5.496   9.768   3.579 -0.4887  0.5206 -0.1160
59738SOL    HW185051   5.554   9.709   3.627 -0.6031  1.9621  1.8959
59738SOL    HW285052   5.496   9.733   3.490  1.6850 -0.8400  0.3272
59739SOL     OW85053   0.288   4.665   3.615  0.1882  0.1897 -0.4360
59739SOL    HW185054   0.382   4.679   3.604 -0.1052  3.1418  0.1152
59739SOL    HW285055   0.279   4.569   3.619  3.2152 -0.1737  0.2671
59740SOL     OW85056  11.004   0.361   0.097 -0.4925  0.0418 -0.1369
59740SOL    HW185057  10.995   0.456   0.101  0.1459  0.1391 -0.8685
59740SOL    HW285058  10.989   0.331   0.187  0.5708  0.9444  0.3548
59741SOL     OW85059  11.675   8.874   2.044  0.0856 -0.3522  0.6087
59741SOL    HW185060  11.762   8.908   2.023 -0.0220  1.7590  3.1737
59741SOL    HW285061  11.671   8.790   1.997  2.3319  0.7845 -1.9309
59742SOL     OW85062   6.768   5.347  12.148 -0.0129  0.3126 -0.2227
59742SOL    HW185063   6.751   5.340  12.242  0.4804 -0.8710 -0.2088
59742SOL    HW285064   6.802   5.436  12.137 -3.9643  2.0873  0.0533
59743SOL     OW85065   7.901   3.918   4.456  0.2871 -0.3902  0.4143
59743SOL    HW185066   7.983   3.894   4.500 -0.1863 -0.0869  1.4909
59743SOL    HW285067   7.924   3.922   4.363  1.1025 -1.9681  0.5039
59744SOL     OW85068   1.632   3.085   2.028 -0.0112 -0.0319 -0.3280
59744SOL    HW185069   1.642   3.076   2.123  1.2863 -0.2864 -0.4734
59744SOL    HW285070   1.675   3.008   1.992  1.4106  1.1213 -1.1948
59745SOL     OW85071   9.207  11.472   5.036  0.0305 -0.5557 -0.4239
59745SOL    HW185072   9.254  11.525   4.971 -0.0566 -0.6307 -0.5490
59745SOL    HW285073   9.118  11.466   5.002 -1.4811  3.4616  1.9964
59746SOL     OW85074   5.580   9.089   2.147  0.3394  0.2567  0.6455
59746SOL    HW185075   5.637   9.165   2.142  0.9430 -0.2260  0.0752
59746SOL    HW285076   5.571   9.059   2.056  1.7921 -1.5769  1.0310
59747SOL     OW85077   0.650   2.041   7.602  0.2773 -0.4873  0.2235
59747SOL    HW185078   0.715   2.053   7.671  0.8051  0.0971 -0.3703
59747SOL    HW285079   0.640   1.946   7.596 -0.3440 -0.5448  1.6124
59748SOL     OW85080   0.924   2.450   4.972 -0.2143  0.8316  0.2883
59748SOL    HW185081   0.953   2.537   4.999 -0.4720  1.1175 -0.3437
59748SOL    HW285082   0.909   2.404   5.054 -0.9059  1.6587  0.6407
59749SOL     OW85083  11.002   1.795   1.755 -0.0378  0.3669  0.3010
59749SOL    HW185084  11.042   1.758   1.676 -1.6088 -0.1793 -0.2707
59749SOL    HW285085  11.023   1.733   1.825  0.2426  0.1691  0.0401
59750SOL     OW85086   9.781  11.356   6.845 -0.2418 -0.4761  0.4568
59750SOL    HW185087   9.730  11.386   6.770  0.4825 -0.8527 -0.1955
59750SOL    HW285088   9.754  11.265   6.859 -0.8568 -0.2086  1.0775
59751SOL     OW85089   4.674   0.964   3.938 -0.1157  0.6641 -0.6783
59751SOL    HW185090   4.714   0.978   3.853  0.3993 -1.5007 -0.8570
59751SOL    HW285091   4.744   0.928   3.992 -0.9193  0.1638  0.0594
59752SOL     OW85092   4.452   8.195   1.264 -0.3307 -0.0436 -0.0231
59752SOL    HW185093   4.530   8.161   1.221 -1.3408 -0.8737 -1.2804
59752SOL    HW285094   4.384   8.130   1.246 -0.9324 -0.2128  2.4819
59753SOL     OW85095   2.006  10.836   0.900  0.3207 -0.6412  0.0884
59753SOL    HW185096   1.957  10.917   0.887  0.6401 -0.4737 -0.0941
59753SOL    HW285097   2.098  10.863   0.902  0.5985 -1.1918 -1.9952
59754SOL     OW85098   1.644  10.788  10.063 -0.3246  0.3905 -0.4927
59754SOL    HW185099   1.583  10.738  10.008 -0.2984  0.8031 -0.8979
59754SOL    HW285100   1.702  10.721  10.101 -0.8554  0.0272 -0.3204
59755SOL     OW85101   8.576   7.286   5.738  0.0584 -0.6055  0.4785
59755SOL    HW185102   8.518   7.353   5.775 -0.5239 -0.4033 -0.7686
59755SOL    HW285103   8.518   7.213   5.717  0.3542 -0.6528 -0.1838
59756SOL     OW85104   8.648   9.937   6.929  0.2282  0.5599 -0.0803
59756SOL    HW185105   8.701  10.011   6.958 -0.5026  0.3844  1.8563
59756SOL    HW285106   8.628   9.889   7.009 -0.6138 -0.8663 -1.0980
59757SOL     OW85107   5.614  10.544   7.498  0.4104  0.1533 -0.2013
59757SOL    HW185108   5.567  10.479   7.446  1.5572 -0.1963 -0.8389
59757SOL    HW285109   5.579  10.628   7.469 -1.0207 -0.1333  0.5652
59758SOL     OW85110   7.983   3.717   7.498  0.2859 -0.5256 -0.0455
59758SOL    HW185111   8.003   3.642   7.553  1.1037  0.6562  1.3340
59758SOL    HW285112   8.039   3.787   7.530 -2.0025  1.3314  0.2209
59759SOL     OW85113   4.313   3.582   0.303  0.2633  0.1095 -0.0948
59759SOL    HW185114   4.280   3.503   0.259 -0.1406 -0.1847  0.7077
59759SOL    HW285115   4.369   3.549   0.373  0.7945  0.5660 -0.3024
59760SOL     OW85116   9.124  11.737   2.089 -0.1262  0.5825 -0.4698
59760SOL    HW185117   9.067  11.660   2.087 -1.4748  1.5729 -2.0309
59760SOL    HW285118   9.209  11.704   2.060 -0.6161 -0.3862 -0.8518
59761SOL     OW85119   6.521   5.449  11.627 -0.1368 -0.0500 -0.2125
59761SOL    HW185120   6.539   5.426  11.718  1.0491 -0.0641 -0.4316
59761SOL    HW285121   6.450   5.513  11.631  0.4456  0.5553  0.7824
59762SOL     OW85122   4.037   9.825   4.625 -0.0363 -0.1041 -0.7398
59762SOL    HW185123   4.054   9.919   4.630 -0.2294 -0.1311  1.3448
59762SOL    HW285124   3.980   9.815   4.549  0.7519  1.3173 -1.5681
59763SOL     OW85125   1.617   0.502   7.277 -0.2036  0.4019  0.1607
59763SOL    HW185126   1.625   0.544   7.363 -1.1856  1.7277 -0.3675
59763SOL    HW285127   1.579   0.417   7.296  0.6323  0.2200  1.1373
59764SOL     OW85128  11.943   3.951   5.207  0.0378  0.3329  0.0002
59764SOL    HW185129  11.979   3.911   5.286 -0.5096  2.0802  1.1946
59764SOL    HW285130  11.848   3.947   5.219 -0.0477  0.5563 -0.5839
59765SOL     OW85131  11.846  10.517   3.007  0.0080  0.0721 -0.0357
59765SOL    HW185132  11.864  10.502   3.099 -0.8526  1.0636  0.3126
59765SOL    HW285133  11.774  10.457   2.986  2.2508 -2.4887 -0.9329
59766SOL     OW85134   0.411   9.030   8.721  0.6857  0.7897 -0.3284
59766SOL    HW185135   0.327   9.015   8.765  1.8465  2.8287  2.9678
59766SOL    HW285136   0.387   9.063   8.635 -1.8224 -1.1109 -0.4751
59767SOL     OW85137   0.735  12.056  11.306 -0.0303 -0.0401  0.0430
59767SOL    HW185138   0.778  11.986  11.355 -1.4175 -0.6623  0.4407
59767SOL    HW285139   0.785  12.134  11.326 -0.6864 -0.2247  2.7072
59768SOL     OW85140   4.187   3.080  12.245 -0.2831  0.0803 -0.1187
59768SOL    HW185141   4.273   3.111  12.218 -0.2449  1.8620  1.7305
59768SOL    HW285142   4.127   3.115  12.179  0.1746  0.8805 -0.1212
59769SOL     OW85143   2.536   9.416   6.090  0.6252  0.7776 -0.1116
59769SOL    HW185144   2.484   9.441   6.167 -0.6185 -0.0202 -0.6552
59769SOL    HW285145   2.505   9.328   6.068  2.2080  0.2984 -0.4990
59770SOL     OW85146  11.096  11.382   1.505 -0.2988 -0.1669 -0.0587
59770SOL    HW185147  11.103  11.306   1.563  2.0010 -0.9620 -1.2371
59770SOL    HW285148  11.145  11.451   1.550 -1.2758  0.2494  0.4004
59771SOL     OW85149   8.273   2.895   2.150  0.0896 -0.0881  0.6865
59771SOL    HW185150   8.300   2.884   2.059 -0.5026 -1.1137  0.6146
59771SOL    HW285151   8.332   2.838   2.200 -0.5026 -0.6444  0.7694
59772SOL     OW85152   0.931   3.390  10.813  0.5296  0.5336  0.3783
59772SOL    HW185153   0.870   3.423  10.746  0.7657  0.6905  0.2407
59772SOL    HW285154   0.982   3.466  10.838  1.2100  0.2348 -0.0770
59773SOL     OW85155   2.481   7.761   7.841 -0.3641  1.1157  0.3761
59773SOL    HW185156   2.531   7.842   7.841  1.2477  0.1945  1.8775
59773SOL    HW285157   2.480   7.732   7.932 -0.3410 -0.8635 -0.1908
59774SOL     OW85158  11.666   9.203  11.383 -0.0493 -0.2140 -0.2082
59774SOL    HW185159  11.658   9.235  11.293  1.2233  0.0015 -0.2663
59774SOL    HW285160  11.618   9.120  11.384 -1.5412  0.6064 -0.6229
59775SOL     OW85161   6.586   4.835   8.031  0.8786 -0.2725  0.3912
59775SOL    HW185162   6.648   4.769   8.000  1.3596  0.1934  0.3499
59775SOL    HW285163   6.509   4.823   7.976  1.1482 -0.4826  0.0579
59776SOL     OW85164   3.717   4.829  11.136 -0.0716 -0.0679 -0.4153
59776SOL    HW185165   3.700   4.754  11.194  0.4145 -0.0498 -0.2446
59776SOL    HW285166   3.639   4.835  11.081 -1.1655  0.7845  1.1756
59777SOL     OW85167   9.420   8.772   1.749  0.0802  0.0791 -0.3776
59777SOL    HW185168   9.451   8.845   1.695 -0.4642  0.3561 -0.3237
59777SOL    HW285169   9.490   8.759   1.813 -0.6162  1.8054  0.8050
59778SOL     OW85170   0.133  12.319   4.149 -0.6263 -0.4370  0.3447
59778SOL    HW185171   0.169  12.332   4.237 -1.6931  0.6900  0.6350
59778SOL    HW285172   0.055  12.265   4.162 -0.1036 -1.3155 -0.0689
59779SOL     OW85173   4.447  11.942   2.194 -0.1057  0.4505  0.1192
59779SOL    HW185174   4.391  11.911   2.123  2.5049 -0.2945 -1.7505
59779SOL    HW285175   4.462  11.864   2.248 -0.2591  0.4930  0.2270
59780SOL     OW85176  10.627   2.948   4.767  0.2432  0.1357  0.0644
59780SOL    HW185177  10.596   2.890   4.836  1.4500 -0.8471 -0.1750
59780SOL    HW285178  10.550   2.998   4.741 -0.8949 -1.4785  0.1633
59781SOL     OW85179  11.080   5.923   4.329 -0.3626 -0.5280 -0.0581
59781SOL    HW185180  11.042   5.931   4.416 -0.2185  0.1701 -0.0522
59781SOL    HW285181  11.024   5.977   4.273  0.4184  0.2662 -0.1046
59782SOL     OW85182  10.515   2.391   9.486  0.5692 -0.0103  0.0105
59782SOL    HW185183  10.611   2.386   9.484  0.5299 -0.7566 -0.4232
59782SOL    HW285184  10.492   2.439   9.407  0.5883  0.2360  0.1543
59783SOL     OW85185   6.638   7.963  10.156 -0.1911 -0.2445  0.0790
59783SOL    HW185186   6.643   8.024  10.230 -0.2350 -0.4988  0.2899
59783SOL    HW285187   6.582   7.892  10.187 -0.0899 -0.4232 -0.1490
59784SOL     OW85188   8.041   7.220   5.068  0.2014  0.2457  0.5205
59784SOL    HW185189   8.099   7.232   4.993 -1.2743 -0.0159 -0.7033
59784SOL    HW285190   8.093   7.170   5.131  2.1497  2.1699  0.5456
59785SOL     OW85191   9.285   7.583   8.312 -0.2214  0.5095 -0.0710
59785SOL    HW185192   9.331   7.652   8.359  0.6620 -1.1258  1.5950
59785SOL    HW285193   9.344   7.508   8.316 -0.8179 -0.1872 -2.4712
59786SOL     OW85194   2.035   6.882   5.405 -0.4227  0.1223 -0.2834
59786SOL    HW185195   2.009   6.949   5.468  1.2441  0.1535  0.4245
59786SOL    HW285196   1.952   6.852   5.366 -1.5225  0.1341  1.8712
59787SOL     OW85197   2.856  12.330   2.158  0.1192  0.1050  0.1256
59787SOL    HW185198   2.768  12.325   2.121  0.3846 -3.0232 -0.3243
59787SOL    HW285199   2.845  12.383   2.238 -2.0775  0.1027 -0.1070
59788SOL     OW85200  11.446   7.708   2.859 -0.0896 -0.8352 -0.0124
59788SOL    HW185201  11.373   7.708   2.797 -0.3464  0.7793  0.2452
59788SOL    HW285202  11.523   7.729   2.805 -0.2653  0.2551  0.1347
59789SOL     OW85203   9.003   6.497   8.734 -0.5169 -0.0360 -0.5310
59789SOL    HW185204   8.990   6.402   8.731  0.8414 -0.2257 -1.4873
59789SOL    HW285205   8.962   6.529   8.654  0.5367 -0.0460 -1.0875
59790SOL     OW85206   0.385   8.587   3.755  0.6599  0.3533 -0.2409
59790SOL    HW185207   0.369   8.676   3.724  1.0746  0.1964 -0.9551
59790SOL    HW285208   0.298   8.549   3.767  0.4738  1.0643  0.7199
59791SOL     OW85209   2.339   2.663   0.660  0.2044  0.1786  0.0881
59791SOL    HW185210   2.290   2.669   0.742 -2.7630  0.5951 -1.5883
59791SOL    HW285211   2.349   2.569   0.645 -2.8646 -0.0656 -0.9753
59792SOL     OW85212   8.550  11.504  10.112  0.1691 -0.2976 -0.4446
59792SOL    HW185213   8.504  11.556  10.046 -1.7143 -1.3650 -0.0412
59792SOL    HW285214   8.623  11.463  10.064  0.2889  0.8402 -1.2724
59793SOL     OW85215   6.337   6.662   4.819  0.0689 -0.4082 -0.1119
59793SOL    HW185216   6.382   6.701   4.894  0.2473 -0.0528 -0.3965
59793SOL    HW285217   6.246   6.654   4.846  0.2496 -0.8658  0.3665
59794SOL     OW85218   8.518   5.728   6.245  0.4978 -0.4824  0.5043
59794SOL    HW185219   8.535   5.750   6.154  1.1062 -1.3835  0.3869
59794SOL    HW285220   8.605   5.726   6.286  0.4655 -2.2415  0.5781
59795SOL     OW85221   1.104   8.185   5.861  0.3965 -0.2119  0.3047
59795SOL    HW185222   1.154   8.251   5.812 -0.2988 -0.4258 -0.7140
59795SOL    HW285223   1.038   8.154   5.800  2.0352 -3.4727 -0.0817
59796SOL     OW85224   8.371   6.535   2.103  0.8946  0.4121 -0.1943
59796SOL    HW185225   8.331   6.510   2.187  0.2639  0.7423 -0.3880
59796SOL    HW285226   8.297   6.565   2.050  1.2456 -0.0825 -0.9830
59797SOL     OW85227   6.980   2.539   1.301  0.0818  0.1805  0.1027
59797SOL    HW185228   6.894   2.496   1.294 -0.3394  0.9977  0.1146
59797SOL    HW285229   6.965   2.627   1.267  0.9524  0.2983  0.0052
59798SOL     OW85230   3.895  12.203   1.835  0.3357  0.1378 -0.3155
59798SOL    HW185231   3.890  12.246   1.750  0.8629  2.1061  0.5987
59798SOL    HW285232   3.907  12.274   1.897 -0.2705 -1.2345  1.4505
59799SOL     OW85233   6.255  10.850   5.428 -0.1514  0.4597 -0.1662
59799SOL    HW185234   6.242  10.890   5.514  1.4232  0.0308  0.3044
59799SOL    HW285235   6.166  10.832   5.397 -0.7757  1.2046  1.0798
59800SOL     OW85236   8.643  12.266   5.426  0.3726  0.0730  0.3686
59800SOL    HW185237   8.598  12.235   5.347  2.1105  0.2305 -0.7395
59800SOL    HW285238   8.629  12.196   5.490 -0.4892 -0.3755 -0.2784
59801SOL     OW85239   9.085   4.377   5.413  0.2111  0.0511  0.1772
59801SOL    HW185240   9.138   4.388   5.334 -1.0594  2.9676 -0.4307
59801SOL    HW285241   9.007   4.330   5.383  0.1955  0.2441 -0.0973
59802SOL     OW85242   1.410   7.000   6.833 -0.7421 -0.2952  0.5170
59802SOL    HW185243   1.323   7.007   6.872 -1.4549  0.1666 -1.0936
59802SOL    HW285244   1.395   6.960   6.747  0.4033  1.4852 -0.5647
59803SOL     OW85245   0.012   6.752   6.509 -0.2868  0.0557 -0.4773
59803SOL    HW185246  -0.075   6.719   6.533 -1.2155  2.0813 -0.8444
59803SOL    HW285247   0.037   6.809   6.581  0.3085  0.2465 -0.8249
59804SOL     OW85248   0.920   0.493  10.449  0.2442  0.9073  0.3879
59804SOL    HW185249   0.964   0.557  10.394  0.9224  0.2536  0.1645
59804SOL    HW285250   0.856   0.544  10.499  0.9769  1.8061  0.4274
59805SOL     OW85251   4.072   1.672   4.062 -0.3131 -0.9844  0.8446
59805SOL    HW185252   4.102   1.742   4.120 -2.3684 -0.2825  1.1257
59805SOL    HW285253   4.108   1.696   3.976  0.1830 -0.3678  1.2110
59806SOL     OW85254   2.785   5.510  10.909  0.0250 -0.7524  0.1486
59806SOL    HW185255   2.864   5.532  10.860 -0.0894 -0.7071 -0.0183
59806SOL    HW285256   2.753   5.594  10.943  0.4890 -0.8674  0.9001
59807SOL     OW85257  10.905   3.643   8.384 -0.2489 -0.4337 -0.3007
59807SOL    HW185258  10.813   3.663   8.370  0.0423 -0.1688 -2.1898
59807SOL    HW285259  10.905   3.558   8.428 -1.3991 -0.3903 -0.1972
59808SOL     OW85260   4.765   2.319   9.171  0.1107  0.4410  0.1885
59808SOL    HW185261   4.692   2.380   9.153  0.8288  1.1687 -0.3572
59808SOL    HW285262   4.810   2.358   9.246 -0.2471 -0.1802  0.7269
59809SOL     OW85263  11.223  10.318   1.523  0.3461  0.2818 -0.2321
59809SOL    HW185264  11.297  10.259   1.538 -0.4192 -0.3343  1.3219
59809SOL    HW285265  11.229  10.383   1.592 -1.3232 -0.5934  0.7965
59810SOL     OW85266  12.050   7.735   2.337 -0.6130 -0.2192 -0.8726
59810SOL    HW185267  11.985   7.806   2.338 -1.6817 -1.1413 -1.9967
59810SOL    HW285268  12.018   7.672   2.402 -0.8393 -0.6621 -1.4072
59811SOL     OW85269   1.623   1.769   0.686  0.2031 -0.6117  0.1210
59811SOL    HW185270   1.677   1.693   0.665 -0.7033 -0.5907 -2.7149
59811SOL    HW285271   1.614   1.816   0.603  0.6423  2.5948  1.7445
59812SOL     OW85272   3.872   3.179   6.956  0.3844 -0.0579  0.4337
59812SOL    HW185273   3.838   3.138   6.876 -0.8846 -1.3662  1.5778
59812SOL    HW285274   3.794   3.214   7.000  1.1202  1.0864  0.8740
59813SOL     OW85275   2.767   7.402   4.980  0.3907  0.0280  1.0662
59813SOL    HW185276   2.793   7.415   5.070 -0.8277  1.6169  1.2463
59813SOL    HW285277   2.680   7.361   4.986  0.8553 -1.0736  0.5731
59814SOL     OW85278   1.367   0.759   4.056 -0.3717  0.0930  0.0212
59814SOL    HW185279   1.292   0.809   4.089  0.4680  1.1409  0.4249
59814SOL    HW285280   1.380   0.689   4.119 -0.4073  0.5043  0.4873
59815SOL     OW85281  11.878   5.043   3.566 -0.1736 -0.2984 -0.3364
59815SOL    HW185282  11.838   5.001   3.642 -0.3967 -0.9773 -0.8131
59815SOL    HW285283  11.972   5.024   3.576 -0.2845 -1.0168 -0.6001
59816SOL     OW85284   5.040  12.135   9.344 -0.8107  0.1987  0.1078
59816SOL    HW185285   5.006  12.068   9.404 -0.1122 -0.7129 -0.4961
59816SOL    HW285286   5.003  12.111   9.259  1.2512 -0.7929 -0.5595
59817SOL     OW85287   0.730   6.991  10.142 -0.5291  0.3226  0.0499
59817SOL    HW185288   0.670   6.964  10.073  0.3597 -1.3028 -0.1388
59817SOL    HW285289   0.688   7.067  10.183 -2.2222 -0.1807 -0.6886
59818SOL     OW85290  10.178   3.714   3.097  0.2796 -0.7554  0.3810
59818SOL    HW185291  10.255   3.761   3.132 -0.6339  1.7037 -0.6771
59818SOL    HW285292  10.195   3.706   3.004 -0.6371 -0.3994  0.1766
59819SOL     OW85293  12.328   0.848  10.501  0.1989 -0.7013 -0.4413
59819SOL    HW185294  12.332   0.807  10.587 -2.0980 -0.6399 -0.2495
59819SOL    HW285295  12.314   0.941  10.519  0.3746 -0.5885 -0.8819
59820SOL     OW85296   4.578   7.995   0.217  0.0898  0.7114 -0.4508
59820SOL    HW185297   4.624   8.061   0.165  0.0406 -0.3269 -1.8638
59820SOL    HW285298   4.644   7.962   0.277  0.0517  2.2026  0.4709
59821SOL     OW85299   2.986   4.590  11.434 -0.8692  0.3882 -0.3654
59821SOL    HW185300   2.928   4.520  11.464 -1.2666  0.3909 -1.0980
59821SOL    HW285301   3.040   4.549  11.366  2.4020 -0.5749  2.5133
59822SOL     OW85302   1.615   3.519   9.628 -0.3607 -0.4127  0.0969
59822SOL    HW185303   1.648   3.563   9.707 -0.0370  1.8915 -1.2184
59822SOL    HW285304   1.534   3.566   9.606 -0.7791 -1.4237 -0.5970
59823SOL     OW85305   3.352   6.547   4.508 -0.3325 -0.1642  0.0174
59823SOL    HW185306   3.270   6.509   4.476 -0.9012  0.4659  0.6637
59823SOL    HW285307   3.415   6.476   4.503 -1.6878 -1.7246  2.5428
59824SOL     OW85308   4.565   4.490   8.515  0.0301 -0.5615 -0.1822
59824SOL    HW185309   4.625   4.460   8.584  0.4854  0.4671 -0.1067
59824SOL    HW285310   4.479   4.460   8.544  0.1957 -0.0433  0.9127
59825SOL     OW85311   7.310  11.919   7.049  0.7916  0.1482 -0.3599
59825SOL    HW185312   7.365  11.890   6.975 -0.0021  2.2046 -1.8424
59825SOL    HW285313   7.313  12.014   7.045 -1.8109  0.3282  0.3468
59826SOL     OW85314   5.728   4.281   4.811  0.5202  0.1607  0.3191
59826SOL    HW185315   5.736   4.308   4.719 -0.3820 -0.8174 -0.0677
59826SOL    HW285316   5.693   4.358   4.855 -2.7240 -0.4670 -0.8959
59827SOL     OW85317   9.440   6.589   0.914 -0.5488 -0.3185  0.1036
59827SOL    HW185318   9.533   6.568   0.904  0.3803  2.1969  2.1938
59827SOL    HW285319   9.436   6.684   0.902 -2.9318 -0.4208 -0.2535
59828SOL     OW85320   9.428  10.601   8.739 -0.2745 -0.0422  0.3875
59828SOL    HW185321   9.375  10.608   8.660  0.2717  0.6042  0.0668
59828SOL    HW285322   9.503  10.659   8.723  0.6136 -1.0523  0.7592
59829SOL     OW85323   6.088   4.574  12.242  0.5530  0.0526 -0.1346
59829SOL    HW185324   6.153   4.541  12.305  1.4351 -0.4551 -1.2835
59829SOL    HW285325   6.106   4.668  12.237  0.4306  0.1109  0.4111
59830SOL     OW85326  10.390   5.008   0.261 -0.9079  0.3824  0.2591
59830SOL    HW185327  10.452   4.944   0.296  0.7027  2.1141  0.7235
59830SOL    HW285328  10.425   5.032   0.176 -1.4152  0.7666  0.1529
59831SOL     OW85329   6.569   3.235   2.896 -0.2218 -0.3798  0.3760
59831SOL    HW185330   6.504   3.223   2.826  0.3661 -1.0126 -0.0760
59831SOL    HW285331   6.516   3.249   2.975 -0.9015  1.8441 -0.4003
59832SOL     OW85332   9.221   2.182   7.417  0.2457  0.0010  0.1348
59832SOL    HW185333   9.163   2.229   7.478  1.7953 -0.3014  1.9190
59832SOL    HW285334   9.282   2.134   7.473  1.8516 -0.1938 -1.6664
59833SOL     OW85335   5.341   2.636   8.494 -0.0417  0.2756 -0.2374
59833SOL    HW185336   5.376   2.676   8.415  1.1471  0.1896  0.2283
59833SOL    HW285337   5.410   2.577   8.525 -0.8367 -0.3706  0.3767
59834SOL     OW85338  10.148   7.229   3.456  0.1886  0.1399  0.1693
59834SOL    HW185339  10.108   7.251   3.541  1.7412  0.0428  0.9718
59834SOL    HW285340  10.101   7.152   3.426 -1.4775  1.1153  0.1251
59835SOL     OW85341   9.034   9.900   5.832 -0.1466 -0.4032 -0.4030
59835SOL    HW185342   9.008   9.855   5.751 -2.3933 -1.6884  0.9260
59835SOL    HW285343   8.968   9.874   5.896  1.9139  0.0499  2.0505
59836SOL     OW85344   3.415  10.866  10.247  0.2546  0.8977  0.0437
59836SOL    HW185345   3.362  10.824  10.180  1.3788  1.4437 -1.2153
59836SOL    HW285346   3.365  10.944  10.272  0.2104  1.1195 -0.7331
59837SOL     OW85347   7.453   8.811   7.442  0.1487  0.4415 -0.2624
59837SOL    HW185348   7.480   8.771   7.359 -0.5352  2.3425 -1.4666
59837SOL    HW285349   7.534   8.837   7.485  0.4572  0.7414 -1.0253
59838SOL     OW85350   6.693   1.149   2.354  0.0923  0.1834  0.0584
59838SOL    HW185351   6.656   1.153   2.442 -0.1810  0.2728 -0.0608
59838SOL    HW285352   6.706   1.056   2.337  2.6116  0.2352  1.2184
59839SOL     OW85353   5.922   3.464   2.553  0.4100 -0.2633  0.1565
59839SOL    HW185354   5.893   3.549   2.586 -2.5534 -0.6155 -1.1806
59839SOL    HW285355   5.908   3.470   2.458  0.8901 -1.9863 -0.0521
59840SOL     OW85356   0.554   0.369   3.262  0.1312  0.1807 -0.7068
59840SOL    HW185357   0.648   0.354   3.268  0.1795  1.0023  1.2547
59840SOL    HW285358   0.516   0.303   3.321 -0.4062  0.7214 -0.4408
59841SOL     OW85359   0.583   2.515  11.714 -0.3404  0.0389 -0.6674
59841SOL    HW185360   0.559   2.605  11.689 -1.5056  0.0391  0.3129
59841SOL    HW285361   0.653   2.491  11.655  0.9798  2.1121 -0.0464
59842SOL     OW85362  12.222   2.561   0.380  0.0438 -0.2562  0.0291
59842SOL    HW185363  12.170   2.482   0.368  0.3778 -0.6389  1.0054
59842SOL    HW285364  12.161   2.633   0.365  0.3456 -0.5796 -3.8173
59843SOL     OW85365   1.874   1.194   1.225 -0.2018 -1.2027 -0.6755
59843SOL    HW185366   1.849   1.129   1.290 -1.0269 -0.2045  0.0340
59843SOL    HW285367   1.822   1.172   1.147 -1.1758 -0.8395 -0.1344
59844SOL     OW85368  10.907   2.530   4.805 -0.3012 -0.1003  0.2899
59844SOL    HW185369  10.896   2.625   4.800  1.4836  0.2286  1.5546
59844SOL    HW285370  10.900   2.510   4.899 -0.4291 -1.1922  0.0591
59845SOL     OW85371   4.048   6.562   8.045 -0.3581  0.4913 -0.2465
59845SOL    HW185372   4.114   6.606   7.990  0.0765 -0.4950 -0.5352
59845SOL    HW285373   4.006   6.634   8.092  0.7310  1.1803 -0.2658
59846SOL     OW85374   1.112  10.406   4.321 -0.1105 -0.0605  0.1294
59846SOL    HW185375   1.103  10.465   4.395 -0.0074  2.0604 -1.4500
59846SOL    HW285376   1.025  10.402   4.282  0.3430  0.8502 -1.0386
59847SOL     OW85377   6.954  11.313   8.516  0.2128  0.4927 -0.5212
59847SOL    HW185378   7.037  11.316   8.467 -0.7171  0.0486 -2.1998
59847SOL    HW285379   6.942  11.403   8.547  1.6284  0.4219  0.3251
59848SOL     OW85380   0.508  10.708  11.495  0.4433 -0.3116  0.4043
59848SOL    HW185381   0.583  10.725  11.552 -0.1873  0.2940  1.0794
59848SOL    HW285382   0.532  10.747  11.411  0.8173  0.0379  0.6688
59849SOL     OW85383   0.869   9.516   7.629  0.1632 -0.0710 -0.0148
59849SOL    HW185384   0.912   9.595   7.662  0.8902 -0.0760 -0.9012
59849SOL    HW285385   0.853   9.463   7.706  0.3034  0.6413  0.5147
59850SOL     OW85386   5.157   4.209   0.099  0.5322  0.3608 -0.0202
59850SOL    HW185387   5.084   4.165   0.057 -0.7809  1.5970  0.8884
59850SOL    HW285388   5.188   4.147   0.166  1.3179 -0.7669 -1.3849
59851SOL     OW85389  10.450   0.916   8.031  0.2544  0.7213 -0.3216
59851SOL    HW185390  10.446   0.857   8.107 -1.1082  1.6703  0.3829
59851SOL    HW285391  10.525   0.972   8.048  3.0934 -2.1899 -2.1320
59852SOL     OW85392   8.260   8.694   2.069  0.1292 -0.2870  0.2229
59852SOL    HW185393   8.179   8.737   2.044  0.4976  0.3723  0.1429
59852SOL    HW285394   8.326   8.730   2.010  0.6885  0.0294  1.0233
59853SOL     OW85395   0.790   3.985   7.273  0.0989  0.2966  0.1186
59853SOL    HW185396   0.741   3.977   7.355 -0.8368 -0.0720 -0.4603
59853SOL    HW285397   0.728   3.957   7.206  0.6206  1.2939 -0.7925
59854SOL     OW85398  10.623  12.092   4.110 -0.1558  0.3805 -0.3411
59854SOL    HW185399  10.636  12.130   4.197 -0.5926 -0.1626 -0.0327
59854SOL    HW285400  10.533  12.116   4.086 -0.3199 -0.1617 -0.2854
59855SOL     OW85401   8.304   6.841   8.847 -0.0780  0.4990  0.1473
59855SOL    HW185402   8.398   6.846   8.831  0.0498  0.1813  0.7638
59855SOL    HW285403   8.275   6.766   8.795  0.2970 -0.3937  1.1813
59856SOL     OW85404   9.237   9.019   1.027 -0.4817 -0.4693  0.3446
59856SOL    HW185405   9.201   8.931   1.039  0.2244 -0.9991 -1.2232
59856SOL    HW285406   9.317   9.020   1.080 -1.1892 -0.2792  1.4528
59857SOL     OW85407   7.670  12.058   4.632 -0.1810  0.1737 -0.6436
59857SOL    HW185408   7.588  12.044   4.679  0.3111  0.9487  0.4652
59857SOL    HW285409   7.721  11.978   4.647 -0.5979 -0.1834 -1.0910
59858SOL     OW85410   1.042   6.756  11.750 -0.1937  0.0986 -0.4085
59858SOL    HW185411   1.029   6.717  11.836 -0.0124  0.6933 -0.1030
59858SOL    HW285412   0.964   6.731  11.700 -1.0035  0.9489  0.3836
59859SOL     OW85413   2.240  11.732   0.360 -0.7442 -0.1464  0.0951
59859SOL    HW185414   2.176  11.790   0.402  0.3145  0.6806  0.6031
59859SOL    HW285415   2.248  11.766   0.270 -0.2073  0.4393  0.3599
59860SOL     OW85416   8.898   0.188   3.967  0.0215  0.5235  0.3465
59860SOL    HW185417   8.965   0.157   4.029  0.7368 -0.7044 -1.0007
59860SOL    HW285418   8.823   0.132   3.983  1.1050 -1.6280 -1.6632
59861SOL     OW85419  12.153   4.641   6.687  0.0589  0.2699 -0.9210
59861SOL    HW185420  12.124   4.638   6.596  0.3445  2.7395 -1.1825
59861SOL    HW285421  12.249   4.633   6.681  0.0775  0.4348 -0.8540
59862SOL     OW85422   3.565   9.230   5.984 -0.0904  0.3964  0.5298
59862SOL    HW185423   3.625   9.303   6.004  0.6674  0.5175 -1.8362
59862SOL    HW285424   3.613   9.152   6.011  0.0634  0.6395  0.9747
59863SOL     OW85425   7.599   1.137   9.071 -0.7312  0.0021  0.2396
59863SOL    HW185426   7.604   1.211   9.011 -0.1429 -0.6826 -0.5830
59863SOL    HW285427   7.607   1.176   9.158 -0.5481  0.9192 -0.1762
59864SOL     OW85428  10.112  10.868   5.142  0.4408  0.1651  0.2241
59864SOL    HW185429  10.063  10.818   5.208 -0.4098  2.5593  1.5209
59864SOL    HW285430  10.204  10.849   5.161  0.2342  0.9270  2.3087
59865SOL     OW85431  10.555   8.251  10.679  0.2223  0.4144 -0.2606
59865SOL    HW185432  10.587   8.335  10.712  1.7943 -0.3857  0.3772
59865SOL    HW285433  10.625   8.219  10.622 -1.6835  0.9338 -3.0580
59866SOL     OW85434   8.565   2.716  12.208 -0.4203  0.5361 -0.4370
59866SOL    HW185435   8.654   2.688  12.230 -0.6920  0.2318  0.2986
59866SOL    HW285436   8.571   2.742  12.116  0.0744 -1.0233 -0.8792
59867SOL     OW85437   9.432  11.479   6.216  0.0075  0.3095  0.0797
59867SOL    HW185438   9.409  11.535   6.142 -1.1144 -1.1514 -0.7438
59867SOL    HW285439   9.503  11.525   6.261  0.4396  1.4308 -1.6709
59868SOL     OW85440   0.450   0.258   1.921  0.5037  0.4865  0.4146
59868SOL    HW185441   0.532   0.282   1.966  0.4735 -0.3168  0.9269
59868SOL    HW285442   0.472   0.262   1.828  0.5591  2.2264  0.4774
59869SOL     OW85443   4.749   0.581  10.420  0.1724  0.2542 -0.2685
59869SOL    HW185444   4.781   0.524  10.490 -1.4759 -1.5912 -0.9107
59869SOL    HW285445   4.712   0.657  10.465 -2.5361 -1.7150  1.1483
59870SOL     OW85446   2.985   3.199   0.839 -0.0470  0.2492 -0.4194
59870SOL    HW185447   2.919   3.218   0.773 -0.1167  0.5854 -0.2541
59870SOL    HW285448   3.054   3.264   0.824 -0.7089  1.2515  0.7379
59871SOL     OW85449   4.746  11.462   9.152  0.6007  0.0781 -0.0692
59871SOL    HW185450   4.794  11.379   9.156  1.2480  0.4660  0.4709
59871SOL    HW285451   4.812  11.527   9.128 -0.3185  0.1382 -2.7304
59872SOL     OW85452   9.190   9.397   2.741  0.0720  0.1739 -0.2807
59872SOL    HW185453   9.097   9.387   2.762 -0.2281 -2.6194 -2.4015
59872SOL    HW285454   9.204   9.341   2.665  4.0113 -1.3483  1.2858
59873SOL     OW85455   9.521   0.545   5.785 -0.1746  0.1113 -0.0391
59873SOL    HW185456   9.572   0.616   5.746 -1.6855  0.2057 -2.0007
59873SOL    HW285457   9.577   0.468   5.776  1.2056  0.8811  1.4916
59874SOL     OW85458   0.474   6.511  10.935  0.5739 -0.3130 -0.2225
59874SOL    HW185459   0.521   6.428  10.942  0.4057 -0.3956 -0.0496
59874SOL    HW285460   0.542   6.578  10.941  0.5320 -0.3806  1.7089
59875SOL     OW85461   9.170   0.977   4.934  0.1477 -0.1991  0.3313
59875SOL    HW185462   9.149   0.963   4.842  1.6253  0.2347 -0.0874
59875SOL    HW285463   9.102   1.037   4.965  1.6026  2.5523 -1.4318
59876SOL     OW85464   9.330   4.479   2.486 -0.1147  0.2420  0.6556
59876SOL    HW185465   9.316   4.384   2.485  0.1492  0.2044  0.6414
59876SOL    HW285466   9.398   4.494   2.420 -0.4768  0.4913  0.3341
59877SOL     OW85467   0.725   8.457  10.130 -0.1679 -0.0425  0.1638
59877SOL    HW185468   0.820   8.454  10.143 -0.2233 -0.8518  0.4186
59877SOL    HW285469   0.690   8.483  10.215 -0.2071 -0.2352  0.2058
59878SOL     OW85470   1.291   8.254   0.261 -0.0844 -0.3762  0.3617
59878SOL    HW185471   1.296   8.176   0.206  3.4702 -0.4813  0.6046
59878SOL    HW285472   1.319   8.226   0.348  0.4912  0.9778  0.6526
59879SOL     OW85473   6.258   8.661   2.486 -0.4754 -0.0501  0.0401
59879SOL    HW185474   6.260   8.726   2.416 -0.9510  0.6933  0.7078
59879SOL    HW285475   6.292   8.582   2.445 -0.9710  0.3015 -1.1024
59880SOL     OW85476  10.728   1.354   2.553 -0.4645 -0.2173 -0.2441
59880SOL    HW185477  10.714   1.260   2.548  0.3926 -0.5628  2.3196
59880SOL    HW285478  10.823   1.364   2.566 -0.6826  0.9164  0.6148
59881SOL     OW85479   1.728  10.572   3.792  0.4664 -0.3373  0.1126
59881SOL    HW185480   1.709  10.649   3.739 -0.6424  0.6518  1.8292
59881SOL    HW285481   1.672  10.503   3.755 -0.5990  0.4390  0.2223
59882SOL     OW85482   9.944  11.263   4.084 -0.1579  0.1193 -0.3000
59882SOL    HW185483   9.864  11.289   4.130 -0.0789 -1.4327  0.7632
59882SOL    HW285484  10.015  11.306   4.131 -0.2133 -0.1250  0.0080
59883SOL     OW85485   4.852  10.813  10.653  0.4578 -0.2378 -0.3439
59883SOL    HW185486   4.893  10.796  10.738 -2.1917 -1.8177  0.7234
59883SOL    HW285487   4.822  10.904  10.660  0.0458 -0.4275  0.5162
59884SOL     OW85488   2.633   3.801   9.921 -0.3036  0.3325 -0.1355
59884SOL    HW185489   2.576   3.845   9.984  0.2888  1.7617 -0.5595
59884SOL    HW285490   2.600   3.829   9.835 -0.0119 -0.1971 -0.4256
59885SOL     OW85491   6.147   9.134   6.699 -0.2237  0.1000  0.2609
59885SOL    HW185492   6.151   9.183   6.617 -0.1280 -0.4955 -0.1007
59885SOL    HW285493   6.080   9.178   6.751 -3.4661 -1.9523 -1.8010
59886SOL     OW85494   8.760   5.678   1.237 -0.0232 -0.3863 -0.2601
59886SOL    HW185495   8.734   5.726   1.159 -1.1882  0.0826  0.3875
59886SOL    HW285496   8.775   5.746   1.303  1.8606 -0.7169 -0.3088
59887SOL     OW85497   7.273   2.184   6.531 -0.4604 -0.7681  0.5038
59887SOL    HW185498   7.239   2.230   6.454  1.6118 -0.0896 -0.0799
59887SOL    HW285499   7.271   2.092   6.507  0.4682 -0.5426 -0.5436
59888SOL     OW85500  11.696   8.677  10.203 -0.1509  0.0113 -0.3700
59888SOL    HW185501  11.791   8.690  10.206 -0.1841  0.0642  0.8002
59888SOL    HW285502  11.667   8.731  10.129  0.6863  0.2884 -0.5032
59889SOL     OW85503   7.073   9.897   3.163  0.1053  0.6456  0.0305
59889SOL    HW185504   7.112   9.983   3.150  1.1631  0.1265 -0.3980
59889SOL    HW285505   7.046   9.897   3.255  1.0279  1.0741  0.3112
59890SOL     OW85506   4.455   1.903   2.710  0.2833 -0.2330  0.3661
59890SOL    HW185507   4.526   1.931   2.653  1.3984  1.5415  2.4808
59890SOL    HW285508   4.412   1.984   2.737  0.6656 -0.8265  3.0506
59891SOL     OW85509   7.406   3.333   6.115  0.2501 -0.2912  0.4181
59891SOL    HW185510   7.489   3.293   6.140  0.8233  0.3209 -0.4174
59891SOL    HW285511   7.410   3.338   6.019 -0.5031  0.2626  0.4061
59892SOL     OW85512   3.361   8.644  10.629 -0.2115 -0.4008  0.4511
59892SOL    HW185513   3.427   8.660  10.561 -0.2468 -0.4773  0.3994
59892SOL    HW285514   3.407   8.591  10.695  0.0633  0.3472  0.8786
59893SOL     OW85515  11.628   5.779   5.936 -0.0286 -0.1949  0.0050
59893SOL    HW185516  11.688   5.767   5.862  0.5883  0.3046  0.4199
59893SOL    HW285517  11.561   5.712   5.923  0.2832 -0.3619 -0.7994
59894SOL     OW85518   2.816   5.198   2.638 -0.5263  0.1745  0.3483
59894SOL    HW185519   2.721   5.212   2.638 -0.2195  2.7030  0.7649
59894SOL    HW285520   2.844   5.227   2.551 -0.0088  0.7168  0.6858
59895SOL     OW85521   0.430   8.513  11.960 -0.0360 -0.4047 -0.0286
59895SOL    HW185522   0.357   8.575  11.951  0.0255 -0.1687  0.9312
59895SOL    HW285523   0.471   8.538  12.043 -0.5884 -2.3196  0.8780
59896SOL     OW85524   1.891   6.358  11.692  0.2962 -0.3907  0.1760
59896SOL    HW185525   1.952   6.347  11.765 -0.9830  0.9161  1.4848
59896SOL    HW285526   1.877   6.452  11.686 -0.6105 -0.5791 -0.9347
59897SOL     OW85527   8.772  10.715   5.294 -0.5271 -0.1871 -0.3574
59897SOL    HW185528   8.858  10.720   5.254 -0.3989  2.8713  0.1120
59897SOL    HW285529   8.788  10.675   5.380  0.5772  1.0836  0.0516
59898SOL     OW85530   8.546   2.149   9.509  0.1209  0.0708 -0.3333
59898SOL    HW185531   8.621   2.195   9.471 -0.4595  1.2551 -0.1132
59898SOL    HW285532   8.493   2.122   9.434  1.3301 -1.8267 -0.5472
59899SOL     OW85533   9.654   0.915  11.968 -0.2516  0.0625  0.6493
59899SOL    HW185534   9.595   0.969  12.020 -2.1773 -1.0904 -0.2535
59899SOL    HW285535   9.704   0.978  11.916 -2.0424  1.0157  0.0194
59900SOL     OW85536   9.898  11.246   8.169 -0.3741  0.1189  0.2299
59900SOL    HW185537   9.839  11.178   8.137 -0.9307 -0.5477  2.5138
59900SOL    HW285538   9.980  11.230   8.123 -0.5393 -2.0435  0.5959
59901SOL     OW85539   0.297   2.252   2.341 -0.4233  0.2273  0.2083
59901SOL    HW185540   0.367   2.269   2.404 -0.6229  0.1219  0.4627
59901SOL    HW285541   0.228   2.315   2.364 -0.1889  0.7194 -0.4033
59902SOL     OW85542   2.814   0.014  11.434 -0.2705 -0.4772 -0.2228
59902SOL    HW185543   2.763   0.052  11.506 -0.0827 -0.3934 -0.1337
59902SOL    HW285544   2.753  -0.045  11.390 -0.1761 -1.1105  0.4688
59903SOL     OW85545   1.665   0.264   3.387  0.0292 -0.4569  0.4027
59903SOL    HW185546   1.657   0.196   3.321  0.3443  0.5410 -0.6917
59903SOL    HW285547   1.744   0.312   3.364  0.1885 -0.1170  1.5491
59904SOL     OW85548   3.782   7.700   7.813 -0.0379  1.0911 -0.1950
59904SOL    HW185549   3.850   7.645   7.852 -0.3153  1.8462  1.4342
59904SOL    HW285550   3.809   7.710   7.722  1.2741  0.2014  0.0628
59905SOL     OW85551   7.964   3.346   5.228  0.2905 -0.6215  0.2282
59905SOL    HW185552   7.904   3.393   5.170  2.9972  0.6061 -1.7877
59905SOL    HW285553   7.984   3.265   5.181  1.1808 -0.4135  0.2216
59906SOL     OW85554   1.606   0.687   9.058 -0.7885 -0.1780  0.4937
59906SOL    HW185555   1.590   0.778   9.085  1.1506  0.7515 -1.2091
59906SOL    HW285556   1.631   0.642   9.138  0.3464  1.3463  1.0255
59907SOL     OW85557   2.527  12.306   3.558 -0.0264  0.3269 -0.8466
59907SOL    HW185558   2.537  12.386   3.610  0.7739 -0.5156  0.3657
59907SOL    HW285559   2.615  12.267   3.557 -0.9901 -2.2566  1.5680
59908SOL     OW85560  12.139   7.883  11.595 -0.2146  0.0287 -0.0690
59908SOL    HW185561  12.147   7.967  11.551  0.3167  0.7717  1.3810
59908SOL    HW285562  12.053   7.850  11.570 -0.0957  0.5924 -1.3079
59909SOL     OW85563   2.933  10.538   0.455 -0.0642 -0.4444 -0.2131
59909SOL    HW185564   2.846  10.505   0.433 -1.1254  0.2345  2.5711
59909SOL    HW285565   2.961  10.484   0.529  2.3906 -1.3090 -1.6613
59910SOL     OW85566   7.787  10.819   7.597 -0.8018 -0.0288  0.1803
59910SOL    HW185567   7.875  10.809   7.561  0.6106  1.9632  2.7536
59910SOL    HW285568   7.752  10.897   7.554 -1.9338 -1.5555 -1.8148
59911SOL     OW85569   8.277   8.497   0.010  0.1909  0.0777  0.1257
59911SOL    HW185570   8.185   8.523   0.001 -0.1243 -0.0390  2.4585
59911SOL    HW285571   8.323   8.579   0.032  1.0840  0.5483 -2.9739
59912SOL     OW85572   0.821  10.687   9.150  0.1724 -0.0008 -0.0286
59912SOL    HW185573   0.733  10.689   9.186  0.1447 -1.4929  0.0317
59912SOL    HW285574   0.850  10.597   9.160  0.8999 -0.0523 -1.9835
59913SOL     OW85575   8.156   7.650   5.196 -0.7486 -0.4410  0.4291
59913SOL    HW185576   8.108   7.568   5.188 -0.9757 -0.1324 -2.3000
59913SOL    HW285577   8.106   7.712   5.143  0.9743  0.6867  0.0309
59914SOL     OW85578   1.070   5.941   5.609 -0.2388  0.6109  0.2503
59914SOL    HW185579   1.036   5.919   5.521  1.3153  0.4462 -0.3403
59914SOL    HW285580   1.151   5.989   5.592 -0.7953  2.0943  1.6084
59915SOL     OW85581   5.305   8.986   6.076 -0.1013 -0.4504 -0.0127
59915SOL    HW185582   5.259   9.014   5.997  1.0692 -0.9983 -0.9151
59915SOL    HW285583   5.320   8.893   6.064  1.6046 -0.2097  0.0594
59916SOL     OW85584  12.303   8.744   2.342  0.1117  0.5826  0.1660
59916SOL    HW185585  12.395   8.745   2.368 -0.0459 -1.8992  1.0252
59916SOL    HW285586  12.302   8.702   2.256 -0.1263  1.8601 -0.4842
59917SOL     OW85587   3.646   0.205  11.742  0.3747 -0.2288 -0.1837
59917SOL    HW185588   3.724   0.239  11.698 -1.1420  1.5878 -1.6295
59917SOL    HW285589   3.579   0.202  11.674 -2.0894  2.7128  1.8452
59918SOL     OW85590   0.653   4.250   8.460 -0.3327 -0.8795  0.4937
59918SOL    HW185591   0.662   4.332   8.509  1.6556 -1.5227  1.2955
59918SOL    HW285592   0.565   4.219   8.480 -0.7762  0.5791  0.9293
59919SOL     OW85593   2.263   6.060   3.258 -0.0185 -0.2285 -0.2752
59919SOL    HW185594   2.198   6.129   3.272 -0.3581 -0.5048 -0.5175
59919SOL    HW285595   2.322   6.097   3.192  0.1658  0.0818  0.0538
59920SOL     OW85596   5.623   2.234   4.808 -0.5223 -0.1492  0.4176
59920SOL    HW185597   5.685   2.163   4.826 -0.3043  0.6230  3.2824
59920SOL    HW285598   5.558   2.227   4.878  0.5807  3.5104  2.0489
59921SOL     OW85599   9.110  10.113   5.162 -0.6405 -0.3072  0.0733
59921SOL    HW185600   9.049  10.182   5.136  0.8781  1.3302  0.6249
59921SOL    HW285601   9.081  10.087   5.250 -1.0807 -0.1797 -0.0347
59922SOL     OW85602   1.347  11.483   0.437  0.0083 -0.3184 -0.1431
59922SOL    HW185603   1.402  11.561   0.427 -0.0393 -0.4256 -1.3735
59922SOL    HW285604   1.308  11.493   0.524  1.1492  0.2814  0.3331
59923SOL     OW85605   4.013   1.398   1.195  0.1760 -0.2794 -0.1294
59923SOL    HW185606   3.969   1.468   1.147 -0.0503 -1.2278 -1.3468
59923SOL    HW285607   4.026   1.434   1.283  1.4129  1.8716 -1.1015
59924SOL     OW85608   6.155   9.617   9.834  0.0047  0.1628 -0.7970
59924SOL    HW185609   6.119   9.609   9.923  2.0057  0.5809  0.1192
59924SOL    HW285610   6.128   9.705   9.806 -2.0407 -0.5871 -1.3195
59925SOL     OW85611   7.581   2.071   8.217 -0.0254  0.0584  0.3271
59925SOL    HW185612   7.670   2.097   8.244  0.5056  0.4595 -1.6617
59925SOL    HW285613   7.561   2.128   8.143 -1.4966 -0.8147  0.0247
59926SOL     OW85614   5.900   5.081   0.116  0.2529 -0.0117  0.0897
59926SOL    HW185615   5.929   5.070   0.026 -2.9141 -0.2334 -1.0221
59926SOL    HW285616   5.861   4.996   0.139 -2.3216  1.0942  0.2319
59927SOL     OW85617   7.190   7.407  11.763 -0.0263  0.5599  0.2237
59927SOL    HW185618   7.281   7.391  11.789  0.2829  1.1254 -0.4854
59927SOL    HW285619   7.182   7.368  11.676 -0.3558  0.8409  0.1222
59928SOL     OW85620   9.269   4.148  12.063  0.5267 -0.2567  0.0337
59928SOL    HW185621   9.269   4.122  12.155 -0.7760  0.4974  0.2675
59928SOL    HW285622   9.310   4.234  12.062  0.1720 -0.0859 -0.0301
59929SOL     OW85623  12.325   5.533   5.224  0.1585 -0.3063 -0.3634
59929SOL    HW185624  12.254   5.594   5.204  0.4378  0.1197 -0.0668
59929SOL    HW285625  12.350   5.554   5.314  0.3319 -0.7882 -0.2917
59930SOL     OW85626   3.103   7.785   3.257  0.4645  0.5507 -0.1581
59930SOL    HW185627   3.105   7.794   3.162 -2.3218  1.1022 -0.2334
59930SOL    HW285628   3.068   7.869   3.288  0.4746  0.0429  1.2859
59931SOL     OW85629   3.914   3.769  12.317 -0.4216 -0.3851 -0.1115
59931SOL    HW185630   3.864   3.715  12.378 -1.2777  1.1682  0.6239
59931SOL    HW285631   3.865   3.765  12.235 -1.1240  0.1660  0.2681
59932SOL     OW85632   7.488   3.644   0.825  0.0623  0.1467 -0.0908
59932SOL    HW185633   7.398   3.612   0.823  0.2886 -0.5412  0.4427
59932SOL    HW285634   7.535   3.581   0.880  0.8451  0.5617 -0.2703
59933SOL     OW85635   9.216   6.614   7.656  0.1149  0.1298  0.5535
59933SOL    HW185636   9.276   6.549   7.694 -0.0940  0.1362  0.8946
59933SOL    HW285637   9.136   6.606   7.707 -0.1128  0.2519  0.2157
59934SOL     OW85638   7.041   2.209   2.617  0.1381 -0.1475  0.1793
59934SOL    HW185639   7.065   2.225   2.526  0.6991 -1.5315  0.0657
59934SOL    HW285640   6.945   2.201   2.616  0.0843  0.4547 -0.1670
59935SOL     OW85641   6.233   1.176  11.878 -0.2736 -0.5905  0.4100
59935SOL    HW185642   6.209   1.265  11.853 -0.1245 -0.8488 -0.7092
59935SOL    HW285643   6.248   1.131  11.795  0.2623 -1.4913  0.9765
59936SOL     OW85644   5.738   0.287  10.756  0.0795  0.1681  0.1267
59936SOL    HW185645   5.806   0.320  10.814 -1.1778  2.1034  0.5829
59936SOL    HW285646   5.745   0.341  10.677 -0.2923 -0.2889 -0.2275
59937SOL     OW85647   0.595   3.640  11.060 -0.2001  0.0008 -0.7060
59937SOL    HW185648   0.519   3.683  11.098 -0.7572  0.4263 -2.2474
59937SOL    HW285649   0.650   3.617  11.135 -1.9689 -0.5770  0.4617
59938SOL     OW85650   3.751  10.848  11.349 -0.5718 -0.4243  0.5513
59938SOL    HW185651   3.677  10.806  11.394 -0.1842 -0.5367  1.0996
59938SOL    HW285652   3.803  10.775  11.316  0.5292 -0.4530  2.1915
59939SOL     OW85653   0.129  10.761   7.661  0.0861  0.4899  0.4028
59939SOL    HW185654   0.170  10.796   7.582 -0.3288  1.7198  0.7044
59939SOL    HW285655   0.085  10.681   7.631  2.8084 -1.0360  0.1240
59940SOL     OW85656   4.541   0.256  11.531  0.1422  0.2259  0.7003
59940SOL    HW185657   4.480   0.264  11.457  0.6435  0.0273  0.2628
59940SOL    HW285658   4.536   0.164  11.556  1.4395 -0.1771 -0.3745
59941SOL     OW85659   4.578   3.301  11.510 -0.3140 -0.4726 -0.1673
59941SOL    HW185660   4.516   3.229  11.525 -1.0798 -0.1681 -1.7017
59941SOL    HW285661   4.551   3.370  11.570 -1.9563 -0.0737 -1.3032
59942SOL     OW85662   7.861   9.286   9.920 -0.1920 -0.1590 -0.3552
59942SOL    HW185663   7.772   9.318   9.906  0.3167  1.2766 -0.5387
59942SOL    HW285664   7.885   9.320  10.006  0.2498 -0.3744 -0.3938
59943SOL     OW85665   6.215   6.910   0.027  0.3815 -0.2400 -0.5721
59943SOL    HW185666   6.191   6.852   0.099 -0.4291  0.1835 -0.4921
59943SOL    HW285667   6.256   6.852  -0.038 -0.5244 -0.9288 -0.5500
59944SOL     OW85668   2.425   1.706   1.589  0.0558 -0.1437  0.7985
59944SOL    HW185669   2.495   1.643   1.606 -0.1439 -0.0551  2.0257
59944SOL    HW285670   2.432   1.769   1.661 -1.0262  0.0945  0.7055
59945SOL     OW85671   3.358   0.067   7.610  0.2711 -0.0638  0.1176
59945SOL    HW185672   3.432   0.124   7.628 -0.2612  1.5849 -2.4732
59945SOL    HW285673   3.392   0.001   7.550 -0.2771  0.6219 -0.9764
59946SOL     OW85674   6.368  10.216  10.117 -0.3293 -0.2387  0.2434
59946SOL    HW185675   6.455  10.193  10.152 -0.8595 -0.8633  1.2068
59946SOL    HW285676   6.384  10.291  10.061  0.9869 -0.9320 -0.3564
59947SOL     OW85677   5.483  11.017   3.736  0.2549  0.4384 -0.4035
59947SOL    HW185678   5.421  11.066   3.790  1.3990  1.9215 -0.3571
59947SOL    HW285679   5.441  10.932   3.721 -0.5966  0.3957  1.8492
59948SOL     OW85680  11.211   5.263   6.094 -0.0607  0.1041 -0.5588
59948SOL    HW185681  11.248   5.227   6.014  0.9313 -1.0579  0.3858
59948SOL    HW285682  11.273   5.238   6.162 -1.8817 -0.6822  0.8889
59949SOL     OW85683   7.040  12.224   8.324 -0.3805 -0.6377 -0.1850
59949SOL    HW185684   7.034  12.271   8.241  0.4060 -1.3128 -0.6376
59949SOL    HW285685   7.071  12.290   8.387  1.1841 -0.6268 -0.9120
59950SOL     OW85686  11.930   8.689   0.870  0.2330 -0.3055 -0.7246
59950SOL    HW185687  11.870   8.732   0.931 -0.3525  1.7406 -2.6028
59950SOL    HW285688  12.014   8.686   0.916 -0.3325  0.6196  0.4201
59951SOL     OW85689   2.147   8.874   5.261  0.3375 -0.0732 -0.2346
59951SOL    HW185690   2.242   8.871   5.272  0.2080 -2.0913  0.8510
59951SOL    HW285691   2.112   8.824   5.335 -1.6463  1.3924 -0.0811
59952SOL     OW85692  10.326   1.588   6.478  0.1741 -0.1814  0.0932
59952SOL    HW185693  10.362   1.584   6.390 -0.1105 -0.0280 -0.0289
59952SOL    HW285694  10.371   1.663   6.519  0.4919 -0.4075  0.1630
59953SOL     OW85695   6.301   6.400   9.621 -0.3989 -0.5748  0.5237
59953SOL    HW185696   6.352   6.448   9.687 -0.6689  0.1339  0.2359
59953SOL    HW285697   6.228   6.459   9.600 -1.4942 -1.6782  1.1214
59954SOL     OW85698   3.985   3.632   4.639  0.8034 -0.1937  0.1510
59954SOL    HW185699   4.001   3.702   4.702  1.7815 -0.3717  0.1190
59954SOL    HW285700   3.938   3.565   4.690 -2.5243  1.4759 -0.4359
59955SOL     OW85701   9.767   4.781   7.124  0.2274  0.2556 -0.3758
59955SOL    HW185702   9.758   4.749   7.034 -1.6459  1.5632 -0.7224
59955SOL    HW285703   9.840   4.842   7.121 -0.9470  1.6918 -1.5098
59956SOL     OW85704   9.915   0.515   8.294 -0.2816  0.2139  0.2033
59956SOL    HW185705   9.893   0.571   8.220  1.4143  0.0099 -0.5055
59956SOL    HW285706   9.883   0.563   8.371 -1.3020  0.8332 -0.5942
59957SOL     OW85707  11.706  11.319   3.569 -0.4687 -0.4950 -0.6851
59957SOL    HW185708  11.611  11.322   3.578 -0.4198 -1.0455  0.0688
59957SOL    HW285709  11.730  11.405   3.535 -1.1136  0.0510  0.2306
59958SOL     OW85710   8.830   0.338   1.990  0.2865 -0.3759 -0.1747
59958SOL    HW185711   8.842   0.426   1.953  0.7631 -0.4575 -0.2213
59958SOL    HW285712   8.914   0.295   1.976  0.6958 -0.2092  1.5847
59959SOL     OW85713  11.528  11.971   5.570  0.0421  0.1920 -0.1134
59959SOL    HW185714  11.542  11.949   5.662 -1.7747 -1.3471 -0.1530
59959SOL    HW285715  11.576  11.904   5.521 -0.6594 -0.2124 -0.2619
59960SOL     OW85716  11.851  11.601   1.660 -0.0720  0.2943  0.3881
59960SOL    HW185717  11.792  11.552   1.717 -0.2150 -1.2726 -1.0399
59960SOL    HW285718  11.934  11.553   1.665 -0.4612 -0.7047 -1.7094
59961SOL     OW85719   6.180  10.527   7.147 -0.3073  0.0076 -0.0162
59961SOL    HW185720   6.231  10.446   7.144 -2.0851 -1.1326 -2.2489
59961SOL    HW285721   6.149  10.540   7.058 -2.7768  1.3470  0.9301
59962SOL     OW85722  11.683  10.977   0.037  0.1830 -0.0865 -0.3677
59962SOL    HW185723  11.630  10.993  -0.040 -0.4042 -0.1535  0.0178
59962SOL    HW285724  11.704  10.883   0.034  0.0018 -0.1276 -0.3488
59963SOL     OW85725   3.992   0.817  11.166 -0.0059 -0.2189  0.0021
59963SOL    HW185726   4.077   0.860  11.168  0.3020 -0.7995 -0.1809
59963SOL    HW285727   3.942   0.859  11.236  0.2903  0.4125 -0.1629
59964SOL     OW85728   9.164   9.886   1.724 -0.4492 -0.2142 -0.7255
59964SOL    HW185729   9.107   9.961   1.738  1.6939  1.1924  1.2479
59964SOL    HW285730   9.250   9.916   1.753  0.8206 -2.9673 -1.3370
59965SOL     OW85731  10.085   8.430   6.378  0.1088  0.3163  0.0650
59965SOL    HW185732  10.087   8.336   6.358  0.9511  0.9429 -3.3316
59965SOL    HW285733   9.998   8.458   6.351  0.0117  0.6070  0.6662
59966SOL     OW85734   3.475   7.051  10.961  0.0931 -0.0425  0.0749
59966SOL    HW185735   3.540   7.053  10.890  1.2799 -0.7740  1.1096
59966SOL    HW285736   3.517   7.002  11.031 -0.6683  1.4638  1.6722
59967SOL     OW85737  10.865   0.232   2.532  0.2493 -0.4605 -0.0627
59967SOL    HW185738  10.859   0.167   2.462  2.1395 -0.9570  0.1760
59967SOL    HW285739  10.807   0.303   2.504  0.9247 -0.6550 -2.1327
59968SOL     OW85740   2.795   5.826   9.556  0.1247  0.1029  0.3789
59968SOL    HW185741   2.820   5.812   9.464  0.2045  0.5122  0.3341
59968SOL    HW285742   2.788   5.921   9.564 -2.4480 -0.0084  0.1359
59969SOL     OW85743   5.796   3.679   5.573 -0.2296  0.5153  0.4730
59969SOL    HW185744   5.835   3.691   5.486  0.9559 -0.5999  0.8109
59969SOL    HW285745   5.764   3.589   5.573 -1.5200  0.9552  0.7257
59970SOL     OW85746   8.989   8.941   8.373 -0.5151 -0.2312  0.3035
59970SOL    HW185747   9.071   8.917   8.331 -0.7246 -1.3877  0.5375
59970SOL    HW285748   9.014   9.005   8.440  0.1469 -0.3556  0.1751
59971SOL     OW85749  10.579   6.072   3.792 -0.1978 -0.2455 -0.2544
59971SOL    HW185750  10.552   6.102   3.705  0.6166  1.5467  0.0606
59971SOL    HW285751  10.666   6.034   3.779  0.2699  0.7527 -0.1187
59972SOL     OW85752   7.547   7.054   8.038 -0.5419 -0.1955  0.2571
59972SOL    HW185753   7.638   7.076   8.017 -0.6123  0.2592  0.4182
59972SOL    HW285754   7.495   7.113   7.983 -0.7435 -0.4677  0.1501
59973SOL     OW85755   8.275   6.767   5.833  0.3245  0.1080  0.3074
59973SOL    HW185756   8.339   6.795   5.898  1.6738 -0.6437 -0.6367
59973SOL    HW285757   8.322   6.772   5.749 -0.4141 -1.6998 -0.2677
59974SOL     OW85758   9.017  12.188   1.127  0.3350 -0.0904  0.6435
59974SOL    HW185759   9.074  12.130   1.178 -0.7900  0.7389  2.9931
59974SOL    HW285760   8.954  12.129   1.086  1.8196 -0.8652 -0.6515
59975SOL     OW85761  10.103   1.279  10.989  0.3631 -0.1228  0.0805
59975SOL    HW185762  10.138   1.194  10.962  0.8076 -0.7057  2.2881
59975SOL    HW285763  10.012   1.262  11.012 -0.5212  0.7075 -2.3815
59976SOL     OW85764   4.800   8.313   6.973  0.3576  0.7809 -0.2339
59976SOL    HW185765   4.794   8.227   7.013 -1.1076  1.1784  0.4664
59976SOL    HW285766   4.840   8.369   7.040  1.8229  0.5622 -0.8824
59977SOL     OW85767  10.579   5.952   5.707 -0.5860  0.2504  0.1184
59977SOL    HW185768  10.494   5.988   5.684 -1.2205 -1.2929 -0.0287
59977SOL    HW285769  10.612   6.010   5.776 -0.7089  2.2010 -1.3763
59978SOL     OW85770   4.841  10.374   4.597 -0.1551  0.3519  0.1589
59978SOL    HW185771   4.789  10.452   4.611 -0.0929  0.3100  0.6417
59978SOL    HW285772   4.856  10.371   4.502 -0.0893  0.9660  0.1491
59979SOL     OW85773   3.690  11.855   0.937  0.5996 -0.0710  0.2455
59979SOL    HW185774   3.657  11.780   0.987  0.2504 -0.8213 -1.0843
59979SOL    HW285775   3.647  11.930   0.977  1.1394 -0.5280  1.7654
59980SOL     OW85776  10.790  10.254  10.671 -0.5360 -0.0578 -0.1961
59980SOL    HW185777  10.721  10.193  10.645  0.4726 -0.7209 -1.4093
59980SOL    HW285778  10.868  10.199  10.683 -0.4021  0.5211  2.1638
59981SOL     OW85779   9.734   4.029   0.133 -0.2363 -0.3342  0.5393
59981SOL    HW185780   9.663   4.071   0.084 -0.2689  0.3609  1.1554
59981SOL    HW285781   9.805   4.093   0.132 -0.3180 -0.2121  1.5725
59982SOL     OW85782   6.511   6.689   8.079 -0.3852 -0.1479  0.4357
59982SOL    HW185783   6.573   6.616   8.073  0.1883  0.3844 -0.3613
59982SOL    HW285784   6.562   6.760   8.117  0.0533  0.8463 -1.8836
59983SOL     OW85785   0.519   9.050   2.386 -0.4580 -0.0384  0.0195
59983SOL    HW185786   0.446   9.108   2.366 -1.0985 -0.9809 -0.4254
59983SOL    HW285787   0.498   8.968   2.342  0.8217 -0.3641 -0.0361
59984SOL     OW85788   0.585   4.139  12.298  0.2293  0.0169  0.1846
59984SOL    HW185789   0.594   4.228  12.333  1.0810 -0.4301  1.1495
59984SOL    HW285790   0.494   4.116  12.313 -0.1908  0.9735 -0.7171
59985SOL     OW85791   2.472  11.538   5.326 -0.6136  0.0962  0.1863
59985SOL    HW185792   2.557  11.537   5.370 -0.3516 -0.9352 -0.3171
59985SOL    HW285793   2.457  11.630   5.305  0.8374  0.1826 -0.5837
59986SOL     OW85794   1.212  11.153   8.350  0.2803 -0.1950 -0.1837
59986SOL    HW185795   1.218  11.217   8.422  2.8892  0.4361 -0.8635
59986SOL    HW285796   1.247  11.199   8.274  3.3181 -2.6851 -0.4820
59987SOL     OW85797  12.132   0.789   3.606  0.2165 -0.6771 -0.5679
59987SOL    HW185798  12.222   0.804   3.637  0.1528 -1.1460 -0.1457
59987SOL    HW285799  12.077   0.830   3.672  0.1050 -0.7944 -0.5889
59988SOL     OW85800  11.180   3.457  11.299 -0.0693 -0.0470 -0.1685
59988SOL    HW185801  11.266   3.487  11.271  0.5681 -0.4304  1.2879
59988SOL    HW285802  11.139   3.535  11.337  0.7197 -0.4287  1.5834
59989SOL     OW85803   9.920   2.425   2.734  0.7791  0.7416  0.5544
59989SOL    HW185804   9.968   2.368   2.795 -0.9310 -2.4151 -0.7907
59989SOL    HW285805   9.855   2.469   2.788  0.2898 -0.8243  1.3170
59990SOL     OW85806   8.435   9.316   3.398 -0.2751 -0.0671  0.5960
59990SOL    HW185807   8.520   9.274   3.399 -0.8876 -1.3433  0.8830
59990SOL    HW285808   8.378   9.256   3.447 -0.9152  1.6681  2.1274
59991SOL     OW85809   2.307   1.902   8.439 -0.5054  0.0848  0.3976
59991SOL    HW185810   2.395   1.874   8.465 -0.1564  1.7252  1.1283
59991SOL    HW285811   2.278   1.959   8.510 -1.8789  0.1240 -0.1673
59992SOL     OW85812   4.965  11.962  11.582  0.2651 -0.3199 -0.1170
59992SOL    HW185813   4.910  12.009  11.520  1.4272  1.5396  0.2017
59992SOL    HW285814   4.931  11.985  11.668  0.2143 -0.9041  0.0257
59993SOL     OW85815   2.077  11.011   0.530 -0.1824 -0.2239  0.0979
59993SOL    HW185816   1.995  11.059   0.539 -2.2276 -3.4028 -0.4053
59993SOL    HW285817   2.144  11.074   0.560 -3.0335  1.3012  4.2154
59994SOL     OW85818   8.717  10.222   7.356 -0.2206  0.1308 -0.4176
59994SOL    HW185819   8.750  10.252   7.440 -0.0951 -0.4758 -0.2463
59994SOL    HW285820   8.759  10.136   7.343  0.2307  0.4822 -1.3687
59995SOL     OW85821  11.828   0.582   7.969 -0.2567  0.0050  0.3956
59995SOL    HW185822  11.851   0.532   8.048 -2.3348  0.5253  1.3931
59995SOL    HW285823  11.734   0.593   7.974 -0.2803  1.1776 -1.5421
59996SOL     OW85824  10.234  10.869   9.529 -0.9856  0.6775 -0.0030
59996SOL    HW185825  10.144  10.887   9.504 -1.0368  2.5393  1.3274
59996SOL    HW285826  10.271  10.955   9.551  0.5524 -0.2420  1.2640
59997SOL     OW85827   6.938   3.237   3.974  0.0431  0.3269  0.1366
59997SOL    HW185828   6.990   3.314   3.994 -0.4904  0.5771  0.6022
59997SOL    HW285829   6.894   3.258   3.891 -0.8261  0.9202  0.7250
59998SOL     OW85830   3.442   1.262   3.270  0.1890 -0.0507  0.2945
59998SOL    HW185831   3.352   1.273   3.241  0.3990  0.6205 -0.1366
59998SOL    HW285832   3.436   1.243   3.364 -0.4120 -0.3819  0.1900
59999SOL     OW85833   0.198   4.014   8.471  0.4562  0.4367 -0.0751
59999SOL    HW185834   0.177   4.096   8.515 -0.8225  1.1965 -1.9401
59999SOL    HW285835   0.159   3.946   8.527  0.0323  1.2398  0.6348
60000SOL     OW85836  10.389   4.937   8.537 -0.1838 -0.9012 -0.1537
60000SOL    HW185837  10.367   4.930   8.444 -0.9737 -2.0710  0.1021
60000SOL    HW285838  10.485   4.942   8.538 -0.0999 -2.0656 -0.9828
60001SOL     OW85839   2.877   4.422   0.692  0.3837 -0.0256 -0.1117
60001SOL    HW185840   2.875   4.416   0.596  1.9022 -1.7903 -0.0829
60001SOL    HW285841   2.867   4.331   0.722 -0.0210  0.4962  1.4149
60002SOL     OW85842   9.013   7.560  11.072  0.6821  0.1425 -0.2412
60002SOL    HW185843   8.988   7.516  10.991  3.0097 -0.8217 -0.5388
60002SOL    HW285844   8.947   7.627  11.085  0.6127  0.8139 -3.3508
60003SOL     OW85845  10.468   4.904  10.904 -0.3611 -0.2901  0.0209
60003SOL    HW185846  10.551   4.950  10.911  0.0653 -1.0533  0.0126
60003SOL    HW285847  10.402   4.971  10.922  0.3302 -0.3962  3.7159
60004SOL     OW85848   5.407   1.869   6.570 -0.1177  0.0069 -0.6386
60004SOL    HW185849   5.335   1.927   6.593 -1.5011 -1.8591  0.0776
60004SOL    HW285850   5.466   1.874   6.645 -0.6799 -0.1618 -0.1717
60005SOL     OW85851   2.780   7.664   7.204  0.5193  0.4786  0.5301
60005SOL    HW185852   2.862   7.680   7.157  1.1270 -0.4364  1.2370
60005SOL    HW285853   2.769   7.739   7.261  0.3257  1.0943 -0.3025
60006SOL     OW85854   8.993   3.915   6.856 -0.2453  0.1619  0.1169
60006SOL    HW185855   8.925   3.917   6.923 -0.1894 -0.5684  0.1968
60006SOL    HW285856   9.036   3.831   6.867 -0.6875 -0.2852 -1.2745
60007SOL     OW85857  11.841   5.229   1.492  0.3907 -0.1552 -0.2569
60007SOL    HW185858  11.915   5.268   1.538  0.0366  0.6757 -0.3740
60007SOL    HW285859  11.783   5.200   1.562  0.3512  0.1325 -0.1663
60008SOL     OW85860   5.861  11.507   9.196 -0.1687  0.3296  0.9978
60008SOL    HW185861   5.835  11.558   9.120 -1.5174  2.5505  2.8083
60008SOL    HW285862   5.789  11.445   9.210  0.7621 -1.1170 -0.3102
60009SOL     OW85863   2.397   8.978   7.732 -0.1942  0.0174  0.4812
60009SOL    HW185864   2.336   8.939   7.795 -0.1221 -0.5520  0.2023
60009SOL    HW285865   2.442   8.904   7.692 -2.6379  0.0082 -2.7486
60010SOL     OW85866   2.136  10.445  11.356 -0.2934  0.4853 -0.4519
60010SOL    HW185867   2.147  10.371  11.296 -1.2051  0.9108 -1.1791
60010SOL    HW285868   2.211  10.440  11.415  0.7783  0.1981 -1.7888
60011SOL     OW85869   4.019  10.783   0.447 -0.8035  0.1812 -0.8514
60011SOL    HW185870   3.961  10.710   0.427 -0.2316 -0.2427 -0.9963
60011SOL    HW285871   3.994  10.852   0.386 -1.7679  0.3455 -0.2936
60012SOL     OW85872   8.846  11.501   3.627  0.0092 -0.3371 -0.2634
60012SOL    HW185873   8.801  11.546   3.698 -1.1011 -0.2189 -1.0222
60012SOL    HW285874   8.901  11.436   3.671 -1.9215 -1.4157  0.6493
60013SOL     OW85875   8.990   0.955   1.643 -0.4869  0.1696  0.3569
60013SOL    HW185876   8.990   1.048   1.622 -1.8884  0.9660  3.3451
60013SOL    HW285877   9.076   0.938   1.681  0.5288 -0.3305 -1.9793
60014SOL     OW85878   4.647   8.984   4.770  0.2538 -0.2112  0.1815
60014SOL    HW185879   4.677   9.008   4.858  0.2352  2.4779 -0.4409
60014SOL    HW285880   4.711   9.025   4.711 -1.7047  1.2300 -1.0797
60015SOL     OW85881   5.944  11.991   2.640 -0.7398  0.0919 -0.5339
60015SOL    HW185882   5.966  12.031   2.556 -1.1154  0.0527 -0.6530
60015SOL    HW285883   5.942  12.065   2.701  1.0234 -0.0581 -0.2347
60016SOL     OW85884   7.832   2.818   2.362  0.2761  0.0420  0.2006
60016SOL    HW185885   7.840   2.791   2.270 -1.3849  3.6102 -1.1971
60016SOL    HW285886   7.773   2.753   2.401  1.4611 -1.8685 -1.0304
60017SOL     OW85887   6.445   6.876   6.154 -0.0532 -0.0151 -0.4272
60017SOL    HW185888   6.465   6.955   6.105  0.3232 -0.7412 -1.4978
60017SOL    HW285889   6.530   6.834   6.169 -0.2770 -0.4021 -0.2056
60018SOL     OW85890   7.714   1.746   3.536 -0.2397 -0.1195 -0.3995
60018SOL    HW185891   7.792   1.753   3.591 -1.0593  2.6544  0.5796
60018SOL    HW285892   7.745   1.766   3.447  0.2788  0.2930 -0.1288
60019SOL     OW85893  10.138   0.158   8.462 -0.0232 -0.1752  0.2940
60019SOL    HW185894  10.169   0.101   8.532  0.5736  2.1802  2.0516
60019SOL    HW285895  10.214   0.168   8.404  0.0501 -0.6565  0.3033
60020SOL     OW85896   2.146   2.626   6.109 -0.0160 -0.3680 -0.2431
60020SOL    HW185897   2.151   2.552   6.050 -1.6319  0.1480 -1.0850
60020SOL    HW285898   2.235   2.636   6.143  0.9975 -0.6362 -2.6298
60021SOL     OW85899   5.506   6.366   1.217  0.2576 -0.3291  0.8242
60021SOL    HW185900   5.431   6.319   1.254 -0.0378 -0.4527  0.0745
60021SOL    HW285901   5.542   6.307   1.151  0.0295  0.3981  0.0404
60022SOL     OW85902   0.386   5.944   7.704  0.3554  0.6935  0.1669
60022SOL    HW185903   0.305   5.995   7.710  1.0313  1.7977  0.1308
60022SOL    HW285904   0.376   5.892   7.624 -1.1383 -0.6991  1.1838
60023SOL     OW85905   5.271   0.033   2.108 -0.5227 -0.3532  0.2347
60023SOL    HW185906   5.344   0.008   2.051  0.6336  0.4832  1.2689
60023SOL    HW285907   5.204  -0.034   2.093  0.7329 -1.5541 -0.2385
60024SOL     OW85908  10.277  10.691  11.509 -0.6196  0.1451 -0.1647
60024SOL    HW185909  10.242  10.780  11.514 -1.1695 -0.0398 -0.5455
60024SOL    HW285910  10.341  10.695  11.438  0.7954  0.6877  1.0878
60025SOL     OW85911   1.391   1.897   6.914  0.2478  0.3643 -0.4723
60025SOL    HW185912   1.361   1.847   6.990  1.2544  1.8912  0.9964
60025SOL    HW285913   1.386   1.989   6.942 -0.8254  1.1014 -2.8132
60026SOL     OW85914   5.300   7.448   6.372 -0.0112 -0.7109  0.1354
60026SOL    HW185915   5.336   7.500   6.300  0.1093 -0.1216  0.6094
60026SOL    HW285916   5.295   7.359   6.337 -0.6603 -0.3062 -0.8569
60027SOL     OW85917  12.010  10.610   4.059 -0.2165  0.1233 -0.0520
60027SOL    HW185918  12.078  10.676   4.051 -0.5872  0.6638  1.0693
60027SOL    HW285919  12.054  10.527   4.037  0.6128  0.5506 -0.0228
60028SOL     OW85920   2.482  11.643   0.835  0.1703  0.2573 -0.0977
60028SOL    HW185921   2.560  11.606   0.792 -0.7767  0.3221 -1.9887
60028SOL    HW285922   2.415  11.643   0.766 -1.2588  0.9989  1.2404
60029SOL     OW85923   6.290   7.045  10.731 -0.0250 -0.3677  0.3858
60029SOL    HW185924   6.371   7.001  10.757  0.9372  1.2878  0.3078
60029SOL    HW285925   6.239   6.977  10.687  2.7590 -0.6843 -2.6568
60030SOL     OW85926   4.960   6.131  10.677 -0.1065 -0.2136  0.3978
60030SOL    HW185927   4.939   6.043  10.707  0.3802  0.1460  1.8769
60030SOL    HW285928   4.960   6.184  10.757  1.2281  0.8032 -0.2412
60031SOL     OW85929   7.531  12.119   0.798 -0.0520 -0.1225  0.4561
60031SOL    HW185930   7.551  12.182   0.866 -0.5199 -0.6956  1.1437
60031SOL    HW285931   7.445  12.146   0.765  0.7397  0.9243 -0.8323
60032SOL     OW85932   6.935   7.675  10.987 -0.1316  0.0618 -0.0142
60032SOL    HW185933   6.841   7.656  10.978 -0.2482  0.2151  0.8180
60032SOL    HW285934   6.978   7.598  10.949 -0.5886  0.1492 -0.7303
60033SOL     OW85935   8.327   6.310   1.168 -0.3929  0.5449  0.0794
60033SOL    HW185936   8.284   6.242   1.220 -0.6603  0.4421 -0.2718
60033SOL    HW285937   8.324   6.277   1.079  0.8857  0.3029  0.1181
60034SOL     OW85938   4.829  12.054  11.369 -0.3481  0.1139 -0.1671
60034SOL    HW185939   4.877  11.993  11.313  0.8832 -0.0743  1.0466
60034SOL    HW285940   4.810  12.128  11.312 -0.7494 -0.8384 -1.3230
60035SOL     OW85941   3.614  12.272  11.892 -0.1891 -0.0800 -0.2454
60035SOL    HW185942   3.524  12.286  11.922 -0.2065 -0.4938 -0.0931
60035SOL    HW285943   3.645  12.359  11.869 -1.0722 -0.0812 -1.5647
60036SOL     OW85944   5.372  11.625   2.981 -0.4115 -0.0755  0.5748
60036SOL    HW185945   5.403  11.712   2.955 -1.1690  0.2223  0.6362
60036SOL    HW285946   5.357  11.632   3.076 -0.6649 -0.2072  0.5463
60037SOL     OW85947  11.301  10.340   1.125 -0.3243  0.0168 -0.0443
60037SOL    HW185948  11.374  10.331   1.186 -0.8021  0.5561  0.6217
60037SOL    HW285949  11.322  10.418   1.073  0.4959 -0.9180 -1.1766
60038SOL     OW85950   2.871  10.286  12.076 -0.5195  0.0502 -0.0450
60038SOL    HW185951   2.842  10.221  12.012 -2.3467  1.3158 -0.5934
60038SOL    HW285952   2.816  10.271  12.153 -0.7209  0.7033 -0.0486
60039SOL     OW85953  10.925   3.166   4.565  0.1250 -0.1326  0.1870
60039SOL    HW185954  10.993   3.100   4.551  0.8759  0.1748  2.0421
60039SOL    HW285955  10.902   3.157   4.658 -0.5587  1.4610  0.2067
60040SOL     OW85956  10.642   7.706   2.340  1.0087 -0.1329 -0.3023
60040SOL    HW185957  10.627   7.628   2.287 -2.0794  0.9648 -1.2758
60040SOL    HW285958  10.568   7.764   2.319  2.3955  2.4769  1.4340
60041SOL     OW85959   6.618   9.333  10.647 -0.5238  0.4343  0.3118
60041SOL    HW185960   6.543   9.282  10.678 -0.6485 -0.1601 -0.8882
60041SOL    HW285961   6.689   9.270  10.638 -0.1764  0.8010  0.4524
60042SOL     OW85962   5.467   5.740   9.901  0.1754  0.5992  0.3560
60042SOL    HW185963   5.563   5.746   9.901  0.3031 -0.3873  2.4004
60042SOL    HW285964   5.439   5.803   9.835  2.2382  0.6531 -0.5522
60043SOL     OW85965   5.859   4.374   2.488  0.4108 -0.2157 -0.2068
60043SOL    HW185966   5.852   4.279   2.495 -1.7668 -0.1738 -0.9852
60043SOL    HW285967   5.927   4.388   2.421  2.0559 -1.1203  1.1775
60044SOL     OW85968   1.910   1.149   6.367 -0.0225 -0.0853 -0.4737
60044SOL    HW185969   1.841   1.177   6.307 -1.1249 -0.0639  0.7720
60044SOL    HW285970   1.904   1.053   6.367 -0.3646 -0.0644 -0.0080
60045SOL     OW85971   2.296  11.173  10.003  0.3711  0.5090 -0.1607
60045SOL    HW185972   2.206  11.193  10.030  0.8316  2.3638  0.1557
60045SOL    HW285973   2.304  11.213   9.916  0.7726  0.0113 -0.3542
60046SOL     OW85974   9.389   0.501  11.560  0.0791  0.7271 -0.1012
60046SOL    HW185975   9.317   0.480  11.620 -0.4413  0.5139 -0.7834
60046SOL    HW285976   9.443   0.563  11.607 -0.3280  0.5646  0.5867
60047SOL     OW85977   0.172   2.056   1.670 -0.2110  0.5565  0.0661
60047SOL    HW185978   0.180   1.995   1.743  0.1032 -0.5310 -0.8446
60047SOL    HW285979   0.141   2.003   1.597 -0.6601  1.6460 -0.5654
60048SOL     OW85980   9.165   1.700   4.705  0.1952  0.4321 -1.0675
60048SOL    HW185981   9.190   1.707   4.613  1.6171 -1.3818 -0.8856
60048SOL    HW285982   9.247   1.713   4.753 -0.1874 -0.3674 -0.1665
60049SOL     OW85983   6.023   4.717   1.646 -0.2288  0.1516 -0.0598
60049SOL    HW185984   6.042   4.759   1.562 -1.3997 -0.3418 -0.5881
60049SOL    HW285985   6.082   4.641   1.648  0.1542  0.4404 -0.2109
60050SOL     OW85986  10.332   0.503   4.014  0.4106  0.2544  0.2572
60050SOL    HW185987  10.394   0.550   4.070 -0.4705  0.2870  1.2437
60050SOL    HW285988  10.302   0.430   4.069 -0.7584  0.5074 -0.0286
60051SOL     OW85989   1.872   9.444   5.108 -0.2923 -0.5074  0.1787
60051SOL    HW185990   1.903   9.403   5.027 -0.1962  1.8120 -1.0198
60051SOL    HW285991   1.950   9.454   5.162  0.7346  2.6521 -1.6458
60052SOL     OW85992   0.994   0.704   4.193 -0.5473 -0.1314 -0.3049
60052SOL    HW185993   0.917   0.717   4.138 -1.5112 -0.6375  0.8839
60052SOL    HW285994   1.044   0.785   4.182 -2.0464  0.9020  0.1224
60053SOL     OW85995   7.577   8.420   7.985 -0.0262  0.0876  0.1298
60053SOL    HW185996   7.538   8.338   8.014 -0.1863 -1.0879 -3.0288
60053SOL    HW285997   7.503   8.479   7.972 -1.0189 -1.7034 -4.5171
60054SOL     OW85998   2.160   1.763   1.420 -0.2280 -0.2694 -0.8157
60054SOL    HW185999   2.132   1.690   1.475 -1.9558  1.6752  1.0868
60054SOL    HW286000   2.239   1.797   1.462 -0.9676  0.5810 -0.0653
60055SOL     OW86001   9.016   8.675  11.280 -0.1604  0.4701 -0.4636
60055SOL    HW186002   9.031   8.768  11.261  2.5023  0.5178  1.3506
60055SOL    HW286003   9.064   8.659  11.361 -3.1836 -1.8146  1.0554
60056SOL     OW86004   0.919   9.302   1.041  0.1657 -0.3599  0.4682
60056SOL    HW186005   0.876   9.233   0.990  0.5670  0.6328 -1.3295
60056SOL    HW286006   0.853   9.371   1.047  0.3269 -0.2312  0.7696
60057SOL     OW86007   8.771   2.397  11.884  0.1117 -0.4551 -0.0696
60057SOL    HW186008   8.693   2.403  11.938  0.2484  0.4218  0.0360
60057SOL    HW286009   8.828   2.336  11.931 -0.6859 -1.4851 -0.3914
60058SOL     OW86010   0.540   9.376   3.818  0.1155 -0.0694 -0.0746
60058SOL    HW186011   0.471   9.384   3.753 -0.1163  1.8109  0.3666
60058SOL    HW286012   0.599   9.449   3.800  1.3976 -0.9817  0.2697
60059SOL     OW86013   0.286   4.891   5.127  0.3412 -0.0517 -0.4754
60059SOL    HW186014   0.311   4.860   5.040  0.5412 -1.2726  0.0045
60059SOL    HW286015   0.200   4.851   5.143  0.6074 -0.3835  0.1607
60060SOL     OW86016   1.607   9.518   1.718 -0.4722 -0.4834 -0.2772
60060SOL    HW186017   1.643   9.568   1.645  1.3016 -0.9956  0.2073
60060SOL    HW286018   1.551   9.580   1.765 -0.2591  0.3296 -1.0753
60061SOL     OW86019   0.310   2.321   8.098  0.3779  0.2864  0.5477
60061SOL    HW186020   0.405   2.332   8.096  0.2599  1.3515 -0.7000
60061SOL    HW286021   0.296   2.226   8.092  1.3624  0.1744 -0.1676
60062SOL     OW86022   4.697   9.029   8.532  0.2463 -0.3706  0.2506
60062SOL    HW186023   4.625   8.968   8.544  1.1243 -1.3159  0.8842
60062SOL    HW286024   4.655   9.115   8.522 -0.9903 -1.0457 -0.5019
60063SOL     OW86025   9.593   8.817  11.445  0.7901  0.0030  0.5978
60063SOL    HW186026   9.575   8.909  11.466  0.2652 -0.2898  1.4878
60063SOL    HW286027   9.534   8.798  11.372 -0.7795 -0.2338  1.8672
60064SOL     OW86028   3.844   0.451   3.056  0.0077 -0.2759  0.1484
60064SOL    HW186029   3.939   0.447   3.047 -0.1248 -1.2235 -1.1335
60064SOL    HW286030   3.829   0.499   3.138  1.6070 -1.3771  1.1299
60065SOL     OW86031   4.595   1.050   0.572  0.4561  0.0970  0.1556
60065SOL    HW186032   4.521   0.991   0.565  0.4279  0.2541 -1.1194
60065SOL    HW286033   4.609   1.060   0.666 -0.9808 -0.1198  0.4137
60066SOL     OW86034   7.982   9.128   3.818 -0.6002  0.3569 -0.5706
60066SOL    HW186035   8.060   9.181   3.833  2.5003 -3.3028 -2.2053
60066SOL    HW286036   7.951   9.106   3.905  1.8484 -0.2518  0.2077
60067SOL     OW86037   9.623   4.714   4.517 -0.0158  0.2111 -0.0638
60067SOL    HW186038   9.686   4.683   4.452  0.9190 -0.6127  1.1943
60067SOL    HW286039   9.677   4.749   4.587 -1.0067  0.7579  0.4415
60068SOL     OW86040   5.333   7.851   1.877 -0.1221 -0.0505 -0.3136
60068SOL    HW186041   5.342   7.784   1.809  1.3364 -1.0849  0.8054
60068SOL    HW286042   5.265   7.817   1.934 -0.7456  0.3922 -0.7913
60069SOL     OW86043   2.854   0.097   0.267  0.4466 -0.0653  0.2779
60069SOL    HW186044   2.928   0.048   0.231  0.4054  0.6898 -0.9022
60069SOL    HW286045   2.883   0.123   0.354  1.6103  0.2585 -0.1861
60070SOL     OW86046   0.574   2.382   2.002 -0.1886 -0.0719 -0.0408
60070SOL    HW186047   0.543   2.441   1.934 -1.4873 -0.4053  0.2240
60070SOL    HW286048   0.534   2.298   1.981 -2.1013  0.2109  2.0535
60071SOL     OW86049   8.464   2.944   4.759  0.0111 -0.2763  0.1423
60071SOL    HW186050   8.375   2.909   4.757  0.1149 -0.5710  0.5052
60071SOL    HW286051   8.465   3.010   4.689 -0.2762 -0.7751 -0.3420
60072SOL     OW86052  11.395   5.563   2.524 -0.1946  0.5918  0.5227
60072SOL    HW186053  11.394   5.642   2.578 -0.7502 -0.1048  1.5643
60072SOL    HW286054  11.324   5.576   2.461 -0.5952  0.7156  1.0005
60073SOL     OW86055   2.470   6.239   0.027 -0.6828 -0.0760  0.6641
60073SOL    HW186056   2.431   6.206   0.108 -0.1412  0.5684  1.1940
60073SOL    HW286057   2.426   6.323   0.011 -1.5240 -0.6614 -0.2813
60074SOL     OW86058   3.713   9.211   7.988  0.0522 -0.0801 -0.3446
60074SOL    HW186059   3.706   9.304   8.011  0.1050 -0.5037  1.6080
60074SOL    HW286060   3.708   9.166   8.072 -3.0376 -2.0586 -1.4446
60075SOL     OW86061   0.994  11.103   6.291  0.1169 -0.1122 -0.3966
60075SOL    HW186062   0.912  11.058   6.307 -0.0973  0.2617 -0.4250
60075SOL    HW286063   1.052  11.074   6.361 -0.3655  0.4254  0.2374
60076SOL     OW86064   3.005   0.991   0.091 -0.4766  0.0457 -0.7007
60076SOL    HW186065   3.056   0.969   0.169  0.5790 -1.3012 -1.7350
60076SOL    HW286066   2.983   1.084   0.103  0.4527  0.1101  0.7512
60077SOL     OW86067   2.877   9.746   1.019 -0.4103  0.0854 -0.4050
60077SOL    HW186068   2.870   9.790   1.103 -0.9962 -0.3458 -0.2191
60077SOL    HW286069   2.791   9.705   1.006 -0.1353 -0.3394 -0.9378
60078SOL     OW86070   3.365  12.067   6.004 -0.0847 -0.1631  0.1728
60078SOL    HW186071   3.302  12.101   6.068  0.1472 -0.4023  0.5278
60078SOL    HW286072   3.342  11.975   5.993  0.3927 -0.3304  0.5349
60079SOL     OW86073   1.240  11.932   7.770 -0.1051  0.3452  0.7245
60079SOL    HW186074   1.237  11.858   7.831 -1.0169 -0.1706  0.0755
60079SOL    HW286075   1.226  11.892   7.684 -0.7286  1.2827  0.3831
60080SOL     OW86076   6.133  10.450   7.852  0.8961 -0.5952  0.6146
60080SOL    HW186077   6.153  10.434   7.760 -0.4187  3.5929 -0.6346
60080SOL    HW286078   6.047  10.411   7.865  0.9234 -0.8963 -0.0640
60081NA      NA86079   2.394   9.563   8.850 -0.3459  0.3945  0.4800
60082NA      NA86080   6.139   1.012   9.706 -0.0100 -0.0647  0.4900
60083NA      NA86081   4.684   2.524   6.204 -0.0247 -0.1492 -0.2745
60084NA      NA86082   2.767   3.292  11.988 -0.1098 -0.2067 -0.2633
60085NA      NA86083   8.965   6.536   3.624 -0.5113 -0.3041  0.3617
60086NA      NA86084   7.668   9.707   1.929  0.1908  0.8288 -0.2676
60087NA      NA86085   5.878   2.973   2.591  0.1258  0.1277 -0.3525
60088NA      NA86086   4.820   0.721   0.285  0.1771 -0.0184  0.4110
60089NA      NA86087   1.659   1.245   2.360 -0.2450 -0.1278 -0.4999
60090NA      NA86088   4.657   6.512   2.739 -0.1445 -0.1981  0.3653
60091NA      NA86089  12.008   6.004   8.501 -0.1620  0.3297 -0.7184
60092NA      NA86090   9.013   3.851   2.011  0.4737 -0.5513  0.0501
60093NA      NA86091   5.658   4.258  10.320 -0.0730 -0.0266  0.2735
60094NA      NA86092   2.117  10.812   0.491 -0.6354  0.1633  0.5098
60095NA      NA86093   6.877   5.040  10.974  0.6580  0.1038 -0.5911
60096NA      NA86094   6.283   8.712   1.555 -0.2274  0.1890  0.3467
60097NA      NA86095   1.180   1.461   0.900 -0.0109 -0.3677 -0.1406
60098NA      NA86096   6.287  10.993  10.740  0.1928 -0.2986 -0.2267
60099NA      NA86097   2.038   7.087  11.450  0.2232  0.0324 -0.4860
60100NA      NA86098   7.274  11.487   9.368  0.7361 -0.0869  0.1788
60101NA      NA86099   1.235   9.381   9.581  0.2457  0.0485  0.0996
60102NA      NA86100   9.883   7.641   8.615 -0.4986 -0.8148  0.0719
60103NA      NA86101  11.324   7.245   1.156 -0.3218  0.0070  0.5940
60104NA      NA86102   7.955   4.285   7.458  0.0487 -0.4514 -0.6505
60105NA      NA86103   4.377   1.573  10.548 -0.1336  0.6890 -0.2715
60106NA      NA86104   1.822   6.280   7.581 -0.2182  0.0540  0.3102
60107NA      NA86105   6.743   2.025   5.554  0.0129  0.0031 -0.1404
60108NA      NA86106   0.236   9.345   2.577 -0.2284 -0.4239 -0.4051
60109NA      NA86107   2.715   3.332   9.386 -0.2171 -0.1198  0.3886
60110NA      NA86108   4.128  11.265   4.965 -0.2677 -0.0975  0.0714
60111NA      NA86109   4.821   3.695  10.727  0.4247  0.3062 -0.0670
60112NA      NA86110  10.943   3.976   9.758 -0.1799 -0.0304 -0.2242
60113NA      NA86111  11.822   7.556   5.945 -0.1272 -0.0494 -0.0404
60114NA      NA86112   8.799   4.107  11.541 -0.3743 -0.0423 -0.0396
60115NA      NA86113   9.443  11.518   1.131 -0.3208  0.0013 -0.0686
60116NA      NA86114   0.394   5.253  10.516  0.3642 -0.1646 -0.5341
60117NA      NA86115   4.140  11.419  11.608 -0.2201  0.1903 -0.0209
60118NA      NA86116   6.046   9.914  11.036  0.0678  0.0166  0.1273
60119NA      NA86117   8.755  10.517  11.311 -0.2376  0.1985  0.0409
60120NA      NA86118  11.395   1.061   2.628 -0.1403  0.2148 -0.2555
60121NA      NA86119   0.578  10.344   0.884  0.1734  0.3371  0.0984
60122NA      NA86120   3.098  11.025   9.405  0.0703 -0.4033  0.0553
60123NA      NA86121   8.617   8.888  10.042  0.0123 -0.0967  0.3547
60124NA      NA86122   6.845   7.592   8.714  0.3743  0.0744 -0.0193
60125NA      NA86123   7.251  11.325   2.269  0.2338  0.6386 -0.0094
60126NA      NA86124   1.887  11.718   2.753 -0.1897  0.4632  0.0611
60127NA      NA86125   9.015   2.602   0.412  0.1171 -0.0887  0.1587
60128NA      NA86126  10.857   5.491   6.197  0.1840 -1.0299  0.2161
60129NA      NA86127   8.745   5.360  11.916 -0.3187  0.1209 -0.3881
60130NA      NA86128   0.487   3.486   0.851  0.3756 -0.3601  0.1852
60131NA      NA86129   5.961   5.887   4.861 -0.1599 -0.0388 -0.3041
60132NA      NA86130  10.815   4.783   4.901 -0.0557  0.8350 -0.3203
60133NA      NA86131   3.891   2.378  10.112  0.1653  0.1487 -0.1410
60134NA      NA86132  10.748   4.850   8.746 -0.6420 -0.2447 -0.4719
60135NA      NA86133   1.192   6.928  11.782  0.3303 -0.3991 -0.2923
60136NA      NA86134   5.548   5.085   2.400 -0.3442 -0.0465 -0.3446
60137NA      NA86135   4.924  10.408  11.249  0.4024 -0.0181  0.5991
60138NA      NA86136   9.638  11.568   8.342 -0.1465 -0.8399  0.3165
60139NA      NA86137   1.046  12.163   4.323 -0.0323  0.2560 -0.0251
60140NA      NA86138   4.248  10.052   9.904 -0.1314  0.1814  0.1123
60141NA      NA86139   4.889   5.921   9.167  0.0665 -0.1755 -0.3471
60142NA      NA86140   7.358   5.009   4.390  0.0366  0.1760 -0.3468
60143NA      NA86141   1.864   8.659   4.328  0.3543  0.4274  0.0729
60144NA      NA86142   6.141   8.526   2.894  0.2366  0.2589 -0.1939
60145NA      NA86143   4.643   6.940   4.552  0.2668  0.6194  0.4272
60146NA      NA86144   2.236   2.008   0.999 -0.3006  0.1973  0.4084
60147NA      NA86145   5.446   0.541   7.330 -0.1181  0.1237 -0.3333
60148NA      NA86146   1.760   8.355   5.333 -0.0571 -0.0683  0.0251
60149NA      NA86147   9.238   7.637   5.676  0.0757 -0.0501  0.2182
60150NA      NA86148  12.215   2.887   6.435  0.1001  0.1041 -0.1401
60151NA      NA86149   8.602  11.472   7.992 -0.6821  0.1050 -0.0937
60152NA      NA86150   6.182   8.624   9.578 -0.0803  0.0365  0.3307
60153NA      NA86151   5.018   4.622   7.152 -0.1235  0.1896 -0.1989
60154NA      NA86152  11.389   4.719   0.811 -0.3477  0.3371  0.1935
60155NA      NA86153   9.292   1.275   6.156  0.1264  0.0244 -0.2601
60156NA      NA86154   7.958   9.852  10.960  0.1666 -0.5551 -0.3227
60157NA      NA86155   7.344   6.786  10.533  0.1150  0.3059 -0.2822
60158NA      NA86156   4.706   4.408   5.330  0.1696  0.0077 -0.1732
60159NA      NA86157   0.705   7.067   6.805 -0.3549 -0.2846 -0.0091
60160NA      NA86158   2.736   5.339   0.632 -0.0640  0.2699 -0.0703
60161NA      NA86159   9.134   5.579   1.745  0.1944 -0.0630 -0.1188
60162NA      NA86160   0.190   3.780  11.526 -0.1854 -0.0989 -0.1046
60163NA      NA86161  10.491   7.095   2.704  0.2235 -0.6202  0.0851
60164NA      NA86162   9.321  11.335   6.334  0.2765  0.2911 -0.1653
60165NA      NA86163   2.683   1.409   7.207 -0.2859 -0.3165  0.4335
60166NA      NA86164   2.198   3.638   9.550  0.1922 -0.1413  0.3346
60167NA      NA86165  10.101   3.428   6.855  0.2621 -0.2184 -0.1216
60168NA      NA86166   3.976  10.154   1.104  0.2117 -0.0345 -0.1450
60169NA      NA86167   8.499   4.371   7.579 -0.4787 -0.2807  0.0717
60170NA      NA86168   3.897   7.702   6.850 -0.0883 -0.4340  0.2133
60171NA      NA86169   5.332   5.622  10.004  0.3226  0.4837  0.3635
60172NA      NA86170   6.430   1.218  11.968 -0.1459 -0.5848 -0.2070
60173NA      NA86171   2.345  11.519  10.296 -0.5216 -0.3067  0.2062
60174NA      NA86172   1.113   4.738  11.352 -0.0995 -0.4234  0.3884
60175NA      NA86173   0.433   4.512   4.032  0.0037 -0.5384  0.0549
60176NA      NA86174   7.833   0.809   1.913 -0.3090 -0.4539 -0.4194
60177NA      NA86175   0.949  12.280   1.203  0.1586 -0.2256 -0.2311
60178NA      NA86176  10.008   1.892   0.706 -0.0114  0.1415  0.1776
60179NA      NA86177   7.645   1.331   2.969  0.4195 -0.4652  0.7939
60180NA      NA86178  11.312   4.260   4.487  0.1242  0.2656  0.1272
60181NA      NA86179   5.668   8.928   3.463 -0.2585  0.0614 -0.3015
60182NA      NA86180   4.666   8.682   0.920 -0.0817 -0.0046  0.3662
60183NA      NA86181  10.354   8.907  10.149  0.1287 -0.3381 -0.3478
60184NA      NA86182   0.565   7.407  11.086  0.1559 -0.2136  0.0269
60185NA      NA86183  10.474   7.823   8.029 -0.2269  0.0849  0.0045
60186NA      NA86184   1.136   9.372   0.943 -0.1046 -0.4279 -0.1709
60187NA      NA86185   4.053   1.472   3.098  0.0414 -0.1884 -0.2831
60188NA      NA86186  11.078   8.887   4.200 -0.1486  0.4213 -0.0226
60189NA      NA86187   2.300   7.221   5.792  0.1283  0.1605  0.2316
60190NA      NA86188   1.817   1.577   8.280 -0.6303  0.0521 -0.2053
60191NA      NA86189   4.504   0.967   4.084 -0.2821 -0.1444  0.5838
60192NA      NA86190   1.697  12.124   1.004  0.2391 -0.1740  0.1435
60193NA      NA86191  10.585   2.739   3.875 -0.0684 -0.0655  0.3239
60194NA      NA86192   4.341   2.509   2.881 -0.0644 -0.1022 -0.6022
60195NA      NA86193  12.116   1.775   3.985 -0.1771  0.0664  0.2814
60196NA      NA86194   7.040   3.608   1.283  0.2934 -0.1518  0.2540
60197NA      NA86195  11.029  10.060   3.609  0.0740  0.4842 -0.4171
60198NA      NA86196   6.796   4.925   5.572  0.0584  0.3828  0.5497
60199NA      NA86197   1.155  11.498   6.710 -0.4828  0.4363  0.0970
60200NA      NA86198   9.248   9.140   9.548 -0.1344 -0.3582 -0.2348
60201NA      NA86199   8.229  12.045   4.844 -0.3308  0.4046  0.1744
60202NA      NA86200   3.425  10.666   2.691  0.6973 -0.1585  0.5947
60203NA      NA86201  10.168   6.016   6.623 -0.2261 -0.1609 -0.1144
60204NA      NA86202  11.306   4.158   3.505  0.0850 -0.1423 -0.2117
60205NA      NA86203  11.235   4.593   6.049 -0.3103 -0.5861  0.2906
60206NA      NA86204   9.896  12.005   7.453 -0.4984  0.1673  0.1885
60207NA      NA86205   8.760   5.928   0.103 -0.3396  0.4091  0.0955
60208NA      NA86206   4.810   7.838   9.670 -0.1011 -0.1217  0.9619
60209NA      NA86207   2.991   6.003   0.560 -0.1351  0.0003  0.1410
60210NA      NA86208   1.086   6.109   3.841  0.4458  0.1466  0.1725
60211NA      NA86209  10.712  10.720   6.842  0.3001  0.4188  0.1739
60212NA      NA86210   0.427   1.061   0.295  0.0871  0.0641 -0.1326
60213NA      NA86211   3.613  11.767  11.187  0.7654 -0.0291  0.1093
60214NA      NA86212   0.552   5.019   6.877  0.2699 -0.3162 -0.4091
60215NA      NA86213   6.588   5.093   1.557 -0.0199 -0.2402 -0.2693
60216NA      NA86214   0.039  11.742   6.792 -0.3505 -0.1795 -0.0990
60217NA      NA86215   8.612   1.448   9.487  0.1366  0.3120  0.9894
60218NA      NA86216   1.709   1.567  10.831 -0.2873 -0.0719  0.0344
60219NA      NA86217   5.249   7.658  11.671  0.1985 -0.4262  0.1601
60220NA      NA86218   3.871   5.277   8.280 -0.0019  0.5610  0.5093
60221NA      NA86219   6.670   9.230   4.777 -0.1013  0.1576 -0.0942
60222NA      NA86220  10.514   2.413   4.758  0.3511 -0.3491  0.0834
60223NA      NA86221  11.701   4.268  11.564  0.5937  0.5350  0.0164
60224NA      NA86222  11.547   7.275  11.554 -0.4948 -0.1182  0.5967
60225NA      NA86223   5.559   3.789   0.169  0.1770 -0.3589  0.0639
60226NA      NA86224   0.856   4.366   7.053  0.0672 -0.0409 -0.0699
60227NA      NA86225  11.237   9.678   1.513 -0.2460  0.0334 -0.0480
60228NA      NA86226   4.339   9.202   5.735 -0.0115  0.3913 -0.5352
60229NA      NA86227  11.819  11.130  12.256  0.7944  0.2061 -0.1386
60230NA      NA86228   2.546   6.163  12.169  0.3053  0.2618 -0.1656
60231NA      NA86229  11.585   3.800   1.296  0.2992  0.0352 -0.0209
60232NA      NA86230  11.330   4.419   2.640  0.0928 -0.0009 -0.3295
60233NA      NA86231   3.222   4.936   3.238  0.3181 -0.4647 -0.3272
60234NA      NA86232   8.519   7.520   8.425 -0.1497  0.0215  0.3689
60235NA      NA86233  10.410   5.847   8.364  0.2145 -0.0793 -0.2168
60236NA      NA86234   7.080   3.116   7.971 -0.2060 -0.4075  0.3238
60237NA      NA86235   1.201   9.284   6.935 -0.3318  0.1669 -0.2860
60238NA      NA86236   8.491   6.993   1.108 -0.2256  0.1741  0.7113
60239NA      NA86237  11.406   7.751   9.695  0.4860 -0.5421 -0.3878
60240NA      NA86238   3.663   4.987   2.269  0.1258 -0.3805 -0.1812
60241NA      NA86239   0.427   3.473  11.003  0.3704  0.1540 -0.2193
60242NA      NA86240   1.677   5.338   3.228 -0.2612 -0.5682 -0.2383
60243NA      NA86241   3.972   0.398   1.944 -0.3764  0.3177  0.1880
60244NA      NA86242   9.423   2.979   4.416  0.1083  0.2247 -0.0957
60245NA      NA86243   8.664   9.080   7.115 -0.0830  0.1657 -0.3144
60246NA      NA86244   4.327  10.871   9.340 -0.3509 -0.2719 -0.1868
60247NA      NA86245   4.904   8.107  11.543 -0.2843 -0.2424  0.0074
60248NA      NA86246   7.832   2.291   4.442 -0.4635 -0.0619 -0.2095
60249NA      NA86247   8.980   6.209   0.028  0.1262  0.0753  0.4117
60250NA      NA86248   8.727   6.977   1.744  0.0344  0.2956  0.4453
60251NA      NA86249   6.904   5.215   8.472 -0.0185  0.0494  0.4014
60252NA      NA86250  12.008   0.743   9.186  0.6503  0.0338 -0.0561
60253CL      CL86251   8.276   2.096   1.405  0.0433  0.5823 -0.0858
60254CL      CL86252   7.805   6.289   0.407  0.0235  0.0164 -0.0236
60255CL      CL86253   2.777   0.243   9.332 -0.0232 -0.3325  0.0217
60256CL      CL86254   5.446   8.420   3.872 -0.3923  0.0117  0.5686
60257CL      CL86255   3.252   5.460  10.922 -0.0295 -0.3898  0.0574
60258CL      CL86256   0.708   9.557   5.717 -0.0147 -0.2146 -0.4120
60259CL      CL86257   3.497   4.986   2.095 -0.1393  0.3629  0.0631
60260CL      CL86258   6.294   2.262   1.452  0.1671  0.1970  0.0793
60261CL      CL86259   4.147   5.839   0.605  0.4662 -0.1793 -0.0747
60262CL      CL86260   0.514   3.031   5.582 -0.1092 -0.1492 -0.0166
60263CL      CL86261   6.418  12.215  10.479 -0.0021 -0.1394  0.2615
60264CL      CL86262   8.366   6.580   0.002  0.4344 -0.2532 -0.0027
60265CL      CL86263   7.617   8.979   8.337 -0.2755 -0.0738 -0.0336
60266CL      CL86264   9.184  10.765   1.329  0.0319  0.4149 -0.2178
60267CL      CL86265   1.545   4.084   5.872  0.4139 -0.2011  0.2262
60268CL      CL86266  10.301   1.892   4.983  0.2900  0.0266  0.2652
60269CL      CL86267   1.558   6.248  12.137  0.4867  0.0076 -0.0105
60270CL      CL86268  10.739  11.341   6.082 -0.2265  0.0576 -0.0101
60271CL      CL86269   3.402   5.470   3.360 -0.3533  0.0869 -0.0104
60272CL      CL86270   8.680   5.945   7.500 -0.1521  0.0017 -0.1880
60273CL      CL86271   3.239  10.642   4.910  0.0831 -0.1484 -0.4381
60274CL      CL86272   2.002   8.904   9.159  0.5698  0.1135  0.4285
60275CL      CL86273  10.859  10.146  11.961 -0.3441  0.2762 -0.0534
60276CL      CL86274   6.067   4.126   1.034 -0.1227  0.2927  0.0560
60277CL      CL86275   8.638   9.506   7.284 -0.0674  0.1581  0.0675
60278CL      CL86276   0.036   4.859   8.623 -0.0627 -0.3175  0.3369
60279CL      CL86277  10.813   6.764   3.952 -0.3961 -0.3143 -0.1947
60280CL      CL86278  11.258  11.838   9.868 -0.0410  0.4587  0.4287
60281CL      CL86279   5.459   0.333   3.904  0.1023  0.2675  0.0330
60282CL      CL86280  10.903   3.918   3.352 -0.2098 -0.2925  0.1516
60283CL      CL86281  11.722   1.436   1.788 -0.0593  0.0270 -0.1470
60284CL      CL86282  12.093  10.031   8.712  0.2402 -0.3674  0.0104
60285CL      CL86283   4.039   2.899   5.827  0.0796  0.2836 -0.1875
60286CL      CL86284  10.406   3.869  11.696 -0.2839  0.0196  0.0307
60287CL      CL86285   2.518   5.953   5.664 -0.2063  0.0841  0.0507
60288CL      CL86286   2.802   2.098   2.048 -0.0082  0.0784  0.3287
60289CL      CL86287  10.984   4.220   4.186 -0.1324 -0.5309  0.1340
60290CL      CL86288   5.876   2.073   0.685 -0.1411  0.0178  0.2248
60291CL      CL86289  12.203   5.920   8.958 -0.6025  0.0685 -0.0421
60292CL      CL86290  10.218   6.403   5.528  0.4560 -0.6424 -0.1110
60293CL      CL86291   3.558   2.380  11.777  0.0927  0.0457  0.3212
60294CL      CL86292   6.930   3.039   8.145 -0.2669 -0.0430  0.1282
60295CL      CL86293   8.855   8.751   9.067 -0.0777  0.0961 -0.1494
60296CL      CL86294   2.375  12.244   0.839 -0.2203 -0.0760  0.2698
60297CL      CL86295   0.940   8.934   7.968  0.3744  0.2835  0.4015
60298CL      CL86296   6.838   7.150   8.338 -0.1378  0.1341 -0.4388
60299CL      CL86297  11.563   7.900  11.527  0.1677  0.1771  0.1558
60300CL      CL86298   7.743   9.455   6.380  0.1552  0.1981  0.1623
60301CL      CL86299   4.742   9.882   0.022 -0.3364  0.0618  0.3075
60302CL      CL86300   2.020  11.209  10.848 -0.2096 -0.1517  0.3025
60303CL      CL86301   2.116  11.775   2.111 -0.3051 -0.1330  0.1405
60304CL      CL86302   6.409   0.135   3.520  0.3160  0.2377 -0.0561
60305CL      CL86303   2.829   9.913   1.276 -0.1028  0.1768 -0.6297
60306CL      CL86304   2.573   5.878   2.773 -0.0717  0.2382  0.1102
60307CL      CL86305   1.005   1.841  11.825 -0.1950  0.1222 -0.2812
60308CL      CL86306   8.069   6.660   7.560 -0.0637 -0.0860  0.4659
60309CL      CL86307   9.052  11.609  12.026 -0.1524  0.0440 -0.2754
60310CL      CL86308   3.686   1.216  11.310  0.4693  0.1009  0.1706
60311CL      CL86309   7.136   7.909   9.348  0.0188  0.2015  0.1170
60312CL      CL86310   8.998   4.297   3.134  0.3939  0.1473 -0.1341
60313CL      CL86311  11.492   9.934   1.248  0.0803  0.3049 -0.0255
60314CL      CL86312   6.139   6.142  10.734 -0.0750 -0.0671  0.2136
60315CL      CL86313   5.125   2.090   7.505  0.5074 -0.0787 -0.3471
60316CL      CL86314   1.510   1.588   6.162 -0.1489  0.0471 -0.0147
60317CL      CL86315   0.527   7.256   6.800 -0.1188 -0.1135  0.2735
60318CL      CL86316  10.112   7.605   2.254  0.1984 -0.6307  0.1320
60319CL      CL86317  10.612   3.364   0.745 -0.1342 -0.0049 -0.2726
60320CL      CL86318   2.752  10.486   3.663 -0.0501  0.0942 -0.2726
60321CL      CL86319   2.351   6.145   2.333 -0.1196  0.1016  0.1199
60322CL      CL86320   0.027  10.274   3.409 -0.1544  0.5020 -0.1331
60323CL      CL86321   5.240   5.353   1.781  0.0914  0.1749 -0.2813
60324CL      CL86322   7.961   8.834  10.485 -0.2006 -0.3700  0.0691
60325CL      CL86323   3.779   8.698   9.244 -0.0004 -0.1322 -0.3782
60326CL      CL86324   4.379  10.633   9.316 -0.2151  0.2470  0.3460
60327CL      CL86325   3.455   4.986   7.948 -0.4890 -0.4731 -0.2050
60328CL      CL86326   1.641   9.587   0.730 -0.0093  0.2104  0.3039
60329CL      CL86327   7.302   4.039   7.881  0.0636  0.1045 -0.1695
60330CL      CL86328   1.726  10.368   2.403  0.0179  0.1517  0.1980
60331CL      CL86329  11.648   1.146   4.220 -0.6867 -0.0311  0.2652
60332CL      CL86330   3.320   1.283   2.445  0.1276  0.5801  0.0586
60333CL      CL86331  12.192   4.819   4.187 -0.7092 -0.3407  0.4991
60334CL      CL86332   0.953   6.750   7.463  0.2826 -0.1825 -0.0584
60335CL      CL86333  10.261   5.002   7.942  0.1916 -0.0889  0.1603
60336CL      CL86334   7.325   2.151   8.897 -0.5452  0.1482  0.0589
60337CL      CL86335  11.087  12.018   1.994  0.5362  0.4963  0.0631
60338CL      CL86336   9.631   2.102  10.052  0.1638  0.0002  0.1813
60339CL      CL86337   8.239   4.656   4.415 -0.0198 -0.2672  0.1914
60340CL      CL86338  11.414  10.736   5.949  0.1118  0.2980  0.1524
60341CL      CL86339   9.908   2.586   1.786 -0.1451 -0.4466 -0.3676
60342CL      CL86340   3.191   0.104  12.203 -0.3185 -0.1528  0.2405
60343CL      CL86341   1.645   9.056   6.393  0.2340  0.4555  0.0945
60344CL      CL86342   0.061   9.626   3.581  0.1935 -0.5873 -0.2247
60345CL      CL86343   3.745   6.490   6.412 -0.6059 -0.0369 -0.0156
60346CL      CL86344   3.956   8.347  11.118  0.1672  0.0908 -0.1771
60347CL      CL86345   8.898   3.252   8.145  0.2311 -0.0029  0.3007
60348CL      CL86346  11.575   5.970   2.101 -0.1709  0.0606  0.2395
60349CL      CL86347   9.331   2.959   3.780  0.3038  0.2505 -0.3772
60350CL      CL86348   4.953   3.717  10.525  0.3730  0.2488  0.2656
60351CL      CL86349   9.840   3.453   2.889 -0.1466 -0.1873 -0.3295
60352CL      CL86350   9.947   7.663  11.576 -0.3383  0.3799 -0.0343
60353CL      CL86351   6.136   7.769  10.409  0.0248  0.0380 -0.2493
60354CL      CL86352   8.950   5.314   0.839 -0.3749 -0.3156 -0.4445
60355CL      CL86353   5.088   6.674   2.942  0.3193 -0.2427 -0.3271
60356CL      CL86354   6.266   2.950  10.730  0.2216  0.1388 -0.0592
60357CL      CL86355   4.010  10.023   8.891  0.1284  0.1520  0.0954
60358CL      CL86356   0.266   2.925  10.520  0.2269  0.1215 -0.0484
60359CL      CL86357  11.816  12.046   1.623 -0.0432 -0.0155  0.0853
60360CL      CL86358   4.382   3.696   2.766  0.2273  0.0129  0.0109
60361CL      CL86359   0.233   4.272   5.259 -0.3128  0.1530 -0.0379
60362CL      CL86360   9.387   4.428  12.136  0.0203 -0.5072  0.2562
60363CL      CL86361   6.788   3.261  11.356  0.1567 -0.0026  0.0840
60364CL      CL86362   2.981   5.739   0.602  0.3222 -0.0953 -0.1428
60365CL      CL86363   2.708   6.342  12.137 -0.1430 -0.1652  0.3490
60366CL      CL86364   2.191   9.048  11.721  0.2585  0.0060 -0.2103
60367CL      CL86365   3.776  11.494   8.962  0.2987  0.6355  0.1106
60368CL      CL86366   5.076   7.257  10.973 -0.2533 -0.1214 -0.3265
60369CL      CL86367  11.775   4.311   7.079 -0.1566  0.1591 -0.2939
60370CL      CL86368   7.433   9.409  10.425 -0.4432  0.4180  0.2037
60371CL      CL86369   7.532   7.885   1.947 -0.2395  0.0208  0.0634
60372CL      CL86370   2.129   4.511   8.882 -0.1326  0.2631 -0.1887
60373CL      CL86371   8.916  10.961   6.858 -0.3941 -0.3357 -0.0301
60374CL      CL86372   1.988   6.710   4.148 -0.4287  0.4564 -0.1519
60375CL      CL86373   4.205   4.006   5.530 -0.5119 -0.0301 -0.4247
60376CL      CL86374  11.786   4.759  11.713  0.0102 -0.4165  0.0988
60377CL      CL86375   5.223   3.077  12.239  0.1401  0.3692 -0.0717
60378CL      CL86376   2.384   4.892   0.613  0.0759 -0.4202 -0.1109
60379CL      CL86377   9.498  11.571   4.850  0.2583 -0.2566 -0.5157
60380CL      CL86378   2.052   2.344   9.262 -0.1677  0.3642 -0.7157
60381CL      CL86379   6.047   0.004   9.563  0.0430  0.6523  0.4240
60382CL      CL86380   1.302   9.597   9.664  0.0080 -0.0540 -0.0824
60383CL      CL86381   3.410   4.950   7.352  0.5699 -0.3765  0.3693
60384CL      CL86382   6.567   4.082   6.700 -0.1486  0.1583 -0.0947
60385CL      CL86383   4.638  11.885   8.051 -0.5229 -0.0038  0.0267
60386CL      CL86384   0.738   5.262   1.785  0.4617 -0.2306  0.0347
60387CL      CL86385  10.428  11.649   4.719 -0.4109 -0.2582 -0.0766
60388CL      CL86386  10.358   5.024   6.339 -0.0415  0.0739  0.1486
60389CL      CL86387   1.067   4.118   3.178 -0.0034  0.0985 -0.0169
60390CL      CL86388   8.558   3.579   7.105  0.1683 -0.2476 -0.2678
60391CL      CL86389   3.068   8.428   4.227  0.1640 -0.1371  0.0179
60392CL      CL86390   4.224   0.042   1.692 -0.2674 -0.2525  0.2694
60393CL      CL86391  12.286   3.639  11.117  0.0001  0.1019 -0.0126
60394CL      CL86392   5.429  11.655   0.470 -0.2989  0.0209  0.1141
60395CL      CL86393   6.990   5.811   2.969 -0.0920 -0.1851 -0.3200
60396CL      CL86394   9.333   5.497   5.612  0.0210 -0.0663 -0.1910
60397CL      CL86395  10.786   4.117  11.678  0.1112 -0.0171 -0.0494
60398CL      CL86396   1.605   8.149   5.863 -0.2184 -0.3918  0.2974
60399CL      CL86397  10.366   9.172   1.257  0.4974  0.2358 -0.2924
60400CL      CL86398  11.548   9.530   0.206 -0.0264 -0.1936 -0.3503
60401CL      CL86399   4.714   1.174   7.637 -0.3394  0.1162  0.0043
60402CL      CL86400   9.905  11.397  12.102 -0.1520 -0.1922 -0.0345
60403CL      CL86401   7.208   9.840  10.145 -0.4208  0.2342 -0.2014
60404CL      CL86402   8.918   1.856   0.177  0.1673  0.1104  0.0579
60405CL      CL86403   8.357   2.877   1.855 -0.1544 -0.1477  0.4326
60406CL      CL86404  12.161   4.648  11.924 -0.4180 -0.4825 -0.1379
60407CL      CL86405   9.450   3.460   2.538 -0.0799  0.1593 -0.3271
60408CL      CL86406   7.457   5.171   2.520 -0.3766  0.1510  0.1871
60409CL      CL86407   4.118   7.063   7.149  0.1223 -0.1954 -0.0976
60410CL      CL86408   6.390   2.833   2.367  0.2702  0.2181  0.2818
60411CL      CL86409   2.925  10.327   1.799 -0.3483  0.1001  0.0305
60412CL      CL86410   3.784   1.938   5.552 -0.2250 -0.2084 -0.6386
60413CL      CL86411   5.155   7.831   1.278  0.3002 -0.0331 -0.2551
60414CL      CL86412   2.736  11.954   2.721  0.3585 -0.3802  0.0749
60415CL      CL86413   3.510   0.027   5.094 -0.0344  0.3621 -0.1817
60416CL      CL86414   9.111   9.646   8.699  0.2479 -0.2483  0.2097
60417CL      CL86415   1.527   1.712  10.750  0.2760  0.0429  0.0279
60418CL      CL86416   0.134   8.461   9.971  0.3828  0.0141  0.0022
60419CL      CL86417  10.537   1.365   8.304  0.4315  0.7031  0.1865
60420CL      CL86418   6.323   9.079   1.188 -0.0191  0.0716 -0.1909
60421CL      CL86419   6.103   1.230   2.038 -0.0958  0.3933  0.0263
60422CL      CL86420   5.635  10.538  11.068 -0.2570 -0.1971  0.1145
60423CL      CL86421   9.099   8.945   6.610  0.0924 -0.2573 -0.2367
60424CL      CL86422   3.744   0.585   0.510  0.1566 -0.2620 -0.0744
  12.33185  12.33185  12.33185
